G6POcore-PETIM in water
171473
    1aaa     O1    1   6.064   7.012   6.384  0.4999  0.1442  0.3044
    1aaa     C1    2   5.933   7.059   6.342  0.4431 -0.3219 -0.1056
    1aaa     H1    3   5.871   6.977   6.303  0.5212 -0.7747  0.7150
    1aaa     H2    4   5.932   7.154   6.286  0.1182 -1.0215 -1.3362
    1aaa     C2    5   6.164   6.996   6.273 -0.3270 -0.1329  0.0908
    1aaa     H3    6   6.172   7.088   6.214  2.3788  0.3078  1.0086
    1aaa     H4    7   6.132   6.919   6.201 -0.1529 -0.7727  0.6842
    1aaa     C3    8   5.853   7.096   6.469 -0.9627  0.0011  0.3495
    1aaa     H5    9   5.864   7.025   6.551  0.3214 -1.3472 -0.9388
    1aaa     H6   10   5.746   7.090   6.445 -0.6934 -1.8997 -0.5506
    1aaa     C4   11   6.304   6.951   6.328 -0.3626 -0.7884 -0.0455
    1aaa     H7   12   6.376   6.937   6.247 -0.7802  1.3368 -0.8368
    1aaa     H8   13   6.295   6.858   6.386  0.1983 -1.6233 -1.2622
    1aaa     C5   14   5.887   7.245   6.510  0.0715  0.7123  0.1644
    1aaa     H9   15   5.990   7.253   6.547  0.8987 -3.1601 -0.8472
    1aaa    H10   16   5.882   7.302   6.416  1.1792  0.5414 -0.0166
    1aaa     C6   17   6.365   7.062   6.425  0.2783 -0.0279 -0.7975
    1aaa    H11   18   6.302   7.072   6.515 -1.0721  3.0602 -1.9413
    1aaa    H12   19   6.358   7.157   6.372 -0.2910  1.2582  1.4427
    1aaa     N1   20   5.799   7.313   6.610  0.3116  0.3398 -0.3742
    1aaa     N2   21   6.508   7.039   6.466  0.0585  0.1439  0.5251
    1aaa     C7   22   6.548   7.150   6.554  0.5631  0.5115 -0.5192
    1aaa    H13   23   6.523   7.239   6.495  0.6741  1.7678  1.2478
    1aaa    H14   24   6.476   7.155   6.636 -0.6263 -1.3627 -1.3812
    1aaa     C8   25   6.533   6.910   6.531  0.1953  0.1275 -0.8119
    1aaa    H15   26   6.486   6.840   6.462 -1.1777  1.5257 -1.3542
    1aaa    H16   27   6.641   6.895   6.546 -0.1307 -0.7711  0.8978
    1aaa     C9   28   5.821   7.262   6.742  0.5258  0.2920 -0.0019
    1aaa    H17   29   5.759   7.318   6.814 -2.0953  0.0478 -1.9084
    1aaa    H18   30   5.789   7.157   6.745  0.1227  0.4317  1.3539
    1aaa    C10   31   5.656   7.323   6.567  0.7247 -0.9787 -0.0465
    1aaa    H19   32   5.644   7.380   6.474 -0.6867 -1.9322 -0.4772
    1aaa    H20   33   5.613   7.226   6.541 -2.1135  0.4758 -1.2338
    1aaa    C11   34   6.693   7.168   6.603  0.0862  0.0467  0.1233
    1aaa    H21   35   6.700   7.245   6.682 -0.8852  1.1307 -0.8038
    1aaa    H22   36   6.724   7.071   6.644  0.3317 -0.1747 -0.5771
    1aaa    C12   37   6.460   6.897   6.672 -0.0824 -0.5089  0.1440
    1aaa    H23   38   6.527   6.941   6.748  0.1382  1.3318 -1.0445
    1aaa    H24   39   6.370   6.960   6.671 -0.5444 -1.1669  0.0195
    1aaa    C13   40   5.961   7.277   6.806 -0.5833 -0.2442 -0.9382
    1aaa    H25   41   5.963   7.220   6.900  0.5622  0.2667 -0.6439
    1aaa    H26   42   6.038   7.228   6.746 -1.4954 -0.1213 -2.2688
    1aaa    C14   43   5.565   7.389   6.674  0.4310 -0.1934 -0.1322
    1aaa    H27   44   5.459   7.367   6.652 -0.1998  1.0493  1.4820
    1aaa    H28   45   5.579   7.347   6.774  0.5020 -1.0608 -0.4970
    1aaa    C15   46   5.580   7.539   6.691 -0.5496 -0.5101 -0.1986
    1aaa    H29   47   5.681   7.564   6.728  0.1284  0.8446 -2.7463
    1aaa    H30   48   5.580   7.582   6.590  0.9784  1.4304  0.5524
    1aaa    C16   49   5.987   7.432   6.823 -0.5027 -0.0885  0.3655
    1aaa    H31   50   5.987   7.474   6.722 -1.3750 -1.6761 -0.3266
    1aaa    H32   51   5.912   7.479   6.887 -0.2186 -0.4197  0.9578
    1aaa    C17   52   6.426   6.754   6.713 -0.4697 -1.0992 -0.0900
    1aaa    H33   53   6.485   6.686   6.649  1.0951 -1.4614  1.6298
    1aaa    H34   54   6.449   6.734   6.818 -0.9285 -2.1229 -0.1698
    1aaa    C18   55   6.781   7.207   6.484 -0.1486 -0.7473 -0.6885
    1aaa    H35   56   6.742   7.152   6.398 -1.2079 -0.5021 -0.3786
    1aaa    H36   57   6.775   7.317   6.479 -0.3484 -0.7126  0.1933
    2bbb     N1   58   5.228   7.858   7.021 -0.1568  0.8892 -0.3637
    2bbb     C1   59   5.260   7.864   7.164 -0.1335  1.1060 -0.4920
    2bbb     H1   60   5.255   7.762   7.202  3.3389  0.3593 -1.6948
    2bbb     H2   61   5.181   7.913   7.222  0.3004  0.7791  0.3852
    2bbb     C2   62   5.093   7.806   6.988  0.7819 -0.2691 -0.2779
    2bbb     H3   63   5.073   7.712   7.040 -0.0337  0.4123  0.6964
    2bbb     H4   64   5.091   7.784   6.881 -1.0581 -1.7498 -0.0034
    2bbb     C3   65   5.338   7.795   6.937 -0.7245  0.1234 -0.0478
    2bbb     H5   66   5.430   7.854   6.949 -0.4138 -0.5513  1.0082
    2bbb     H6   67   5.312   7.807   6.831 -3.4406  0.7045  0.5907
    2bbb     C4   68   5.371   7.652   6.980 -0.0354  0.0079  0.1693
    2bbb     H7   69   5.282   7.603   6.938  0.2898  0.8733 -1.6536
    2bbb     H8   70   5.377   7.641   7.089 -1.3989 -1.6978  0.1284
    2bbb     C5   71   5.382   7.946   7.210  0.6515  0.1253  0.3369
    2bbb     H9   72   5.373   8.054   7.193  2.4314  0.0777 -1.2607
    2bbb    H10   73   5.471   7.923   7.150 -0.7923 -0.9214 -1.5284
    2bbb     C6   74   4.985   7.915   7.027  0.4098 -0.4106  0.4158
    2bbb    H11   75   5.017   8.007   6.977  0.6049 -0.4708  0.4302
    2bbb    H12   76   4.980   7.935   7.134  1.3702  1.2876  0.1751
    2bbb     C7   77   5.500   7.596   6.914 -0.4189  0.6040  0.4469
    2bbb    H13   78   5.524   7.493   6.941 -0.8766  0.6312  0.9541
    2bbb    H14   79   5.589   7.656   6.937  0.8412 -1.0945  0.1516
    2bbb     C8   80   4.847   7.865   6.966  0.4494 -0.3195 -0.0628
    2bbb    H15   81   4.764   7.909   7.024 -1.0870 -1.5088 -1.2681
    2bbb    H16   82   4.833   7.757   6.979  0.0300 -0.5245 -1.9553
    2bbb     C9   83   5.399   7.932   7.360 -0.2681 -0.1163 -0.4132
    2bbb    H17   84   5.493   7.984   7.383 -0.2878  0.4881 -1.6340
    2bbb    H18   85   5.417   7.826   7.382  0.2807  0.4784  2.4332
    2bbb     O1   86   5.483   7.603   6.774 -0.3128 -1.2970 -0.6941
    3bbb     N1   87   6.346   7.567   7.244  0.1949  0.1664  0.7796
    3bbb     C1   88   6.487   7.525   7.203  0.1165 -0.0153  0.0576
    3bbb     H1   89   6.548   7.584   7.272 -0.0078  1.5281 -1.0936
    3bbb     H2   90   6.516   7.566   7.105 -0.4370  2.7970  0.9602
    3bbb     C2   91   6.302   7.529   7.383 -0.0885 -0.6496  0.5193
    3bbb     H3   92   6.387   7.523   7.452  0.3089 -0.7815  0.0196
    3bbb     H4   93   6.257   7.429   7.374 -1.9547  0.2952 -2.1031
    3bbb     C3   94   6.238   7.565   7.136  0.1554 -0.0679 -0.2133
    3bbb     H5   95   6.172   7.648   7.164  2.8444  1.9822  0.5032
    3bbb     H6   96   6.185   7.470   7.144  2.2799 -1.2021  1.3667
    3bbb     C4   97   6.281   7.588   6.988 -0.4408  0.4158  0.5800
    3bbb     H7   98   6.355   7.514   6.954 -1.0794 -0.1859  0.4865
    3bbb     H8   99   6.336   7.682   6.974 -3.5236  2.0373 -1.7023
    3bbb     C5  100   6.503   7.371   7.211  0.0718 -0.2135 -0.3395
    3bbb     H9  101   6.428   7.320   7.149 -2.4910  1.6296  1.0207
    3bbb    H10  102   6.465   7.326   7.304 -0.6885 -1.2339 -1.1155
    3bbb     C6  103   6.195   7.628   7.428  0.5027  0.2803  0.0289
    3bbb    H11  104   6.103   7.612   7.370  1.5148  0.2360 -1.6151
    3bbb    H12  105   6.233   7.728   7.405 -0.4688  0.4185 -1.1410
    3bbb     C7  106   6.155   7.584   6.905  0.0128 -0.4285 -0.1275
    3bbb    H13  107   6.174   7.632   6.809  1.4644  1.1621  0.9055
    3bbb    H14  108   6.071   7.639   6.951 -1.5646 -1.6794 -1.3639
    3bbb     C8  109   6.181   7.622   7.581  0.3089 -0.5217 -0.6342
    3bbb    H15  110   6.279   7.648   7.624  1.3564 -2.2057 -1.8544
    3bbb    H16  111   6.157   7.518   7.609  0.4776 -1.2331 -2.9231
    3bbb     C9  112   6.649   7.320   7.183  0.0962 -0.1599  0.1522
    3bbb    H17  113   6.653   7.213   7.207  1.3142  0.1100  1.2989
    3bbb    H18  114   6.720   7.374   7.247 -0.0039 -1.4757  1.4203
    3bbb     O1  115   6.115   7.451   6.888  0.0722 -0.1214  0.4383
    4bbb     N1  116   6.043   6.545   6.389  0.0876 -0.0743  0.3192
    4bbb     C1  117   5.900   6.561   6.434  0.4174 -0.1115  0.7758
    4bbb     H1  118   5.904   6.518   6.535  2.5570 -1.1056  0.3371
    4bbb     H2  119   5.832   6.491   6.383  0.5649 -0.6118  1.2581
    4bbb     C2  120   6.063   6.564   6.244  0.3167 -0.1178  0.0802
    4bbb     H3  121   6.015   6.658   6.215 -0.8911 -0.1640  1.7940
    4bbb     H4  122   6.012   6.478   6.200  0.7689  0.3092 -1.3395
    4bbb     C3  123   6.142   6.601   6.484  0.4969 -0.3426 -0.1672
    4bbb     H5  124   6.146   6.709   6.469 -0.6732 -0.4500 -1.5076
    4bbb     H6  125   6.239   6.553   6.462  0.1566 -0.3437 -1.7618
    4bbb     C4  126   6.117   6.586   6.630  0.4946  0.2595 -0.0449
    4bbb     H7  127   6.082   6.485   6.654 -0.9003  0.9339  0.9483
    4bbb     H8  128   6.030   6.646   6.660  1.0275  1.0603 -0.0646
    4bbb     C5  129   5.832   6.700   6.424  0.4785  0.4302  0.0154
    4bbb     H9  130   5.841   6.732   6.320 -0.4121 -0.1303 -0.2485
    4bbb    H10  131   5.880   6.761   6.501 -1.2120  0.8636  0.7787
    4bbb     C6  132   6.207   6.549   6.187  0.3621  0.3658 -0.2442
    4bbb    H11  133   6.241   6.456   6.235  2.4636  2.4900  2.7081
    4bbb    H12  134   6.259   6.641   6.216 -1.1483  1.1127  0.1474
    4bbb     C7  135   6.245   6.607   6.710  0.3914 -0.6395 -0.1589
    4bbb    H13  136   6.326   6.542   6.674  2.1195  1.0862  0.3970
    4bbb    H14  137   6.237   6.594   6.819  0.7725  0.4806  0.0160
    4bbb     C8  138   6.193   6.528   6.031  0.2754  0.0272 -0.6457
    4bbb    H15  139   6.117   6.600   5.998 -0.6291 -0.9064 -0.6683
    4bbb    H16  140   6.154   6.427   6.015 -0.2256  0.0582  0.3069
    4bbb     C9  141   5.678   6.697   6.453 -0.9826 -0.8571  0.7481
    4bbb    H17  142   5.664   6.670   6.558 -2.6427  0.4432  0.9208
    4bbb    H18  143   5.640   6.621   6.384  1.4771 -0.5924 -1.0716
    4bbb     O1  144   6.287   6.739   6.688  0.2383 -0.0547 -0.7760
    5bbb     N1  145   7.301   7.385   6.283  0.1505  0.2165  0.0336
    5bbb     C1  146   7.361   7.393   6.144  0.1504  0.0012  0.3074
    5bbb     H1  147   7.276   7.405   6.076 -0.1117 -0.8749  0.4778
    5bbb     H2  148   7.396   7.292   6.124 -1.7297 -0.7026  0.3576
    5bbb     C2  149   7.399   7.388   6.396  0.9657 -0.0659 -0.1275
    5bbb     H3  150   7.341   7.416   6.485  0.6531 -0.6473 -0.1409
    5bbb     H4  151   7.468   7.471   6.380  1.5162 -0.5213 -0.1615
    5bbb     C3  152   7.201   7.279   6.292  0.3860  0.1960 -0.3157
    5bbb     H5  153   7.246   7.180   6.292 -2.1457 -1.1226  2.8070
    5bbb     H6  154   7.145   7.281   6.197  1.5991 -1.3371 -1.1113
    5bbb     C4  155   7.103   7.285   6.418 -0.5442 -0.4854  0.4458
    5bbb     H7  156   7.057   7.385   6.420 -0.3212 -0.3471 -0.7244
    5bbb     H8  157   7.159   7.271   6.511  0.1416  0.9342  0.2777
    5bbb     C5  158   7.463   7.503   6.112 -0.2389 -0.2125 -0.3315
    5bbb     H9  159   7.554   7.470   6.163  1.3845 -1.5386 -3.7708
    5bbb    H10  160   7.434   7.604   6.144  2.7348  0.4321  0.6774
    5bbb     C6  161   7.478   7.261   6.426  0.3123  0.4758  1.0750
    5bbb    H11  162   7.505   7.223   6.327 -0.8310  0.3929  0.7913
    5bbb    H12  163   7.420   7.184   6.478 -0.0608 -0.0173 -0.0371
    5bbb     C7  164   7.008   7.160   6.406  0.2176 -0.3309 -0.1494
    5bbb    H13  165   7.072   7.071   6.404 -0.4299 -1.0503  3.3418
    5bbb    H14  166   6.952   7.177   6.314  0.7162  2.9683  0.0214
    5bbb     C8  167   7.601   7.280   6.514  0.0173 -0.0176 -0.1959
    5bbb    H15  168   7.659   7.187   6.524  0.5771  0.4370  0.9982
    5bbb    H16  169   7.556   7.303   6.612  0.1019  2.2501 -0.6480
    5bbb     C9  170   7.493   7.510   5.958  0.2087 -0.5021  0.3334
    5bbb    H17  171   7.576   7.577   5.931 -0.2188 -1.0533 -2.7731
    5bbb    H18  172   7.402   7.544   5.907 -1.9203 -2.5970  2.5124
    5bbb     O1  173   6.916   7.154   6.513  0.1883  0.3884  0.4741
    6bbb     N1  174   4.470   7.605   6.695  0.8201 -0.2350  0.0300
    6bbb     C1  175   4.366   7.542   6.782  0.1176 -0.3337 -0.1483
    6bbb     H1  176   4.396   7.527   6.886  1.0848 -0.4427 -0.4274
    6bbb     H2  177   4.332   7.444   6.745 -0.7296 -0.6898  1.4834
    6bbb     C2  178   4.437   7.627   6.550  0.2081  1.0519  0.5358
    6bbb     H3  179   4.526   7.661   6.495  1.3438 -0.6253  1.2267
    6bbb     H4  180   4.360   7.704   6.542  0.5755  1.5161  1.3013
    6bbb     C3  181   4.525   7.722   6.754 -0.0148  0.1403 -0.4485
    6bbb     H5  182   4.507   7.723   6.862 -0.2245 -0.9641 -0.4552
    6bbb     H6  183   4.479   7.816   6.721  2.2762  1.1226 -1.0468
    6bbb     C4  184   4.679   7.732   6.738 -0.3608  0.4670  1.0417
    6bbb     H7  185   4.710   7.695   6.639  1.2452  0.5455  1.4849
    6bbb     H8  186   4.739   7.669   6.804  1.1842 -0.9392 -1.5549
    6bbb     C5  187   4.231   7.621   6.782  0.2749 -0.7554 -0.1289
    6bbb     H9  188   4.191   7.625   6.681  0.7441  1.9528 -0.2767
    6bbb    H10  189   4.247   7.727   6.803  0.3015 -0.6557 -0.6488
    6bbb     C6  190   4.381   7.495   6.480 -0.0153  0.4189 -0.8966
    6bbb    H11  191   4.319   7.534   6.398 -1.2412 -1.5890 -0.9856
    6bbb    H12  192   4.314   7.433   6.540 -0.6316  2.3143  0.4980
    6bbb     C7  193   4.713   7.881   6.763  0.1256  0.8445 -0.1302
    6bbb    H13  194   4.640   7.921   6.835  1.3508  1.9332  0.5488
    6bbb    H14  195   4.694   7.931   6.668 -2.0988  0.1475 -0.1103
    6bbb     C8  196   4.504   7.406   6.446  0.0164  0.1272  0.2965
    6bbb    H15  197   4.557   7.387   6.540  0.8329 -1.9396 -0.5401
    6bbb    H16  198   4.572   7.464   6.382 -0.8997 -0.5811 -1.4051
    6bbb     C9  199   4.126   7.577   6.877 -0.2945  0.0435 -0.9290
    6bbb    H17  200   4.040   7.644   6.870  0.2145  0.9302  0.8297
    6bbb    H18  201   4.151   7.577   6.984 -1.3745  1.4196 -0.6626
    6bbb     O1  202   4.847   7.898   6.827 -0.1087  0.1855 -0.1907
    7bbb     N1  203   4.920   7.785   7.577 -0.3143 -0.3241  0.2893
    7bbb     C1  204   4.843   7.689   7.485  0.0796  0.2549 -0.6456
    7bbb     H1  205   4.745   7.659   7.523 -1.2163  2.1592 -2.2895
    7bbb     H2  206   4.908   7.604   7.462 -1.1137 -0.9384  0.2433
    7bbb     C2  207   4.898   7.775   7.727 -0.2798  0.0519 -0.5171
    7bbb     H3  208   4.930   7.868   7.776  0.8593 -0.5710 -0.0601
    7bbb     H4  209   4.944   7.684   7.767  0.8772  0.7006 -0.3465
    7bbb     C3  210   5.065   7.796   7.532  0.2595 -0.1085 -0.1979
    7bbb     H5  211   5.062   7.827   7.427 -0.7229 -0.4788 -0.2848
    7bbb     H6  212   5.102   7.693   7.542 -0.7437 -0.4384  0.2850
    7bbb     C4  213   5.149   7.892   7.614 -0.7642 -0.0693  0.3454
    7bbb     H7  214   5.156   7.854   7.717  0.9006  1.1963  0.7600
    7bbb     H8  215   5.104   7.992   7.611 -4.6118 -1.6582 -0.1546
    7bbb     C5  216   4.803   7.753   7.349  0.1713  0.2238  1.4029
    7bbb     H9  217   4.893   7.766   7.288 -1.5792 -1.3103 -1.7894
    7bbb    H10  218   4.770   7.857   7.360  0.6147  0.3297  1.7291
    7bbb     C6  219   4.748   7.761   7.762 -0.3628 -0.0639 -0.1351
    7bbb    H11  220   4.736   7.653   7.746 -0.1215 -0.3605  1.5000
    7bbb    H12  221   4.687   7.828   7.701  0.4591  0.8061 -0.0271
    7bbb     C7  222   5.291   7.913   7.564  0.3059  0.2128 -0.7282
    7bbb    H13  223   5.346   7.818   7.567 -0.8696 -0.5318 -1.6167
    7bbb    H14  224   5.340   7.984   7.631  3.0513 -2.1488 -0.0210
    7bbb     C8  225   4.722   7.791   7.909 -0.1818 -0.8279  0.2284
    7bbb    H15  226   4.796   7.732   7.964  0.4380  0.9986  1.4443
    7bbb    H16  227   4.626   7.757   7.947  0.4456 -2.6133  0.2862
    7bbb     C9  228   4.697   7.678   7.263  0.0633 -0.1200 -0.2446
    7bbb    H17  229   4.721   7.571   7.273 -0.0046  0.0641  2.6181
    7bbb    H18  230   4.697   7.717   7.161  0.9374  1.7488  0.4262
    7bbb     O1  231   5.286   7.961   7.434  0.4117 -0.0202  0.1951
    8bbb     N1  232   5.721   7.886   7.838  0.0171 -1.0689 -0.1635
    8bbb     C1  233   5.716   8.034   7.800 -0.2632  0.5572  0.4953
    8bbb     H1  234   5.815   8.080   7.803  0.5255 -0.7464 -2.3947
    8bbb     H2  235   5.658   8.093   7.872  0.5454  1.6348  0.2776
    8bbb     C2  236   5.579   7.820   7.839 -0.8865 -0.2839 -0.4647
    8bbb     H3  237   5.589   7.720   7.884  1.3910 -0.8612 -2.0961
    8bbb     H4  238   5.549   7.820   7.733  1.9130 -1.0967 -1.3468
    8bbb     C3  239   5.811   7.803   7.760 -0.4853  0.4204 -0.2961
    8bbb     H5  240   5.799   7.789   7.652  0.3479  0.2098 -0.3646
    8bbb     H6  241   5.805   7.704   7.807  0.3064 -0.1834 -1.4211
    8bbb     C4  242   5.954   7.840   7.791  0.0449  0.1928 -0.1594
    8bbb     H7  243   5.955   7.851   7.900  0.9980 -0.1569 -0.1143
    8bbb     H8  244   5.985   7.938   7.753 -0.6817  1.0476  1.3831
    8bbb     C5  245   5.656   8.055   7.657  0.2498 -0.4070 -0.0283
    8bbb     H9  246   5.556   8.012   7.639 -0.1858  1.0370 -1.2664
    8bbb    H10  247   5.720   8.005   7.584  1.0932  1.0005 -0.2952
    8bbb     C6  248   5.473   7.891   7.922  0.4319  0.6453 -0.0950
    8bbb    H11  249   5.432   7.982   7.876  2.0889  0.9000 -1.1392
    8bbb    H12  250   5.508   7.926   8.020  1.6766  3.2179 -1.3498
    8bbb     C7  251   6.059   7.733   7.761 -0.9173  0.0849 -0.4978
    8bbb    H13  252   6.044   7.639   7.814  1.0689  0.1193  0.2077
    8bbb    H14  253   6.157   7.766   7.799 -2.4979  2.2986  1.9748
    8bbb     C8  254   5.355   7.792   7.942  0.1048 -0.5627  0.2392
    8bbb    H15  255   5.387   7.712   8.010  0.3122  0.2443  1.1117
    8bbb    H16  256   5.329   7.743   7.847 -1.1386  0.0375  0.2408
    8bbb     C9  257   5.655   8.207   7.616  0.0892 -0.2660  0.0410
    8bbb    H17  258   5.760   8.235   7.599 -0.0651  0.9055  0.9437
    8bbb    H18  259   5.611   8.275   7.690 -1.0872  1.8808 -2.4422
    8bbb     O1  260   6.072   7.708   7.621  0.5823 -0.2118  1.0268
    9bbb     N1  261   6.983   7.600   6.799 -0.8513 -0.3448  0.3668
    9bbb     C1  262   6.996   7.747   6.820 -0.0378 -0.0978 -0.0625
    9bbb     H1  263   7.024   7.775   6.923  0.7305  1.5442 -0.6993
    9bbb     H2  264   6.897   7.790   6.802  0.1807  0.5492  0.2474
    9bbb     C2  265   7.108   7.522   6.757 -0.5070 -0.2050 -0.4234
    9bbb     H3  266   7.151   7.578   6.673 -0.0306  1.4587  0.8775
    9bbb     H4  267   7.086   7.419   6.728 -1.4342  0.0866 -0.8024
    9bbb     C3  268   6.911   7.530   6.902  0.9838  0.4409  0.2609
    9bbb     H5  269   6.834   7.590   6.953  1.2648  1.3319 -0.3450
    9bbb     H6  270   6.986   7.517   6.981  1.5522 -1.1627 -0.5170
    9bbb     C4  271   6.858   7.383   6.875  0.0213  0.7041 -0.8090
    9bbb     H7  272   6.936   7.328   6.821  0.1050  0.4527 -0.4334
    9bbb     H8  273   6.780   7.403   6.800  0.1107  0.5933 -0.9331
    9bbb     C5  274   7.089   7.832   6.727  0.0613  0.4011 -0.1797
    9bbb     H9  275   7.078   7.802   6.622  0.1759 -0.9735  0.1774
    9bbb    H10  276   7.191   7.818   6.764 -0.7436  1.8098  2.8827
    9bbb     C6  277   7.220   7.512   6.868  0.3283 -0.6447  0.0464
    9bbb    H11  278   7.195   7.460   6.961  0.8374 -0.5469  0.2433
    9bbb    H12  279   7.261   7.609   6.898 -0.7778  0.4533 -1.7875
    9bbb     C7  280   6.803   7.308   6.998 -0.0475 -0.3048 -0.0049
    9bbb    H13  281   6.874   7.316   7.080 -0.9819 -0.8139  0.8770
    9bbb    H14  282   6.793   7.201   6.976  0.9033 -0.7919  1.7747
    9bbb     C8  283   7.344   7.442   6.812 -0.1804  0.9312  0.0739
    9bbb    H15  284   7.416   7.423   6.893 -1.6974 -0.0872  1.2361
    9bbb    H16  285   7.389   7.517   6.746  0.9457  1.0306  0.9081
    9bbb     C9  286   7.063   7.982   6.750  0.5584 -0.0488 -0.0879
    9bbb    H17  287   7.098   8.007   6.851 -0.9541  0.5050  0.3224
    9bbb    H18  288   6.956   8.006   6.757  0.8700  1.5599 -0.6302
    9bbb     O1  289   6.674   7.359   7.043 -0.2800  0.1933  0.0875
   10bbb     N1  290   6.650   6.641   5.726  0.2637  0.7221 -0.8495
   10bbb     C1  291   6.697   6.742   5.634 -0.7421  0.2645  0.3541
   10bbb     H1  292   6.800   6.726   5.601 -0.9108 -1.3817  0.5649
   10bbb     H2  293   6.688   6.845   5.672 -0.5042  0.3521  0.1764
   10bbb     C2  294   6.734   6.591   5.838 -0.5914 -0.1648  0.0402
   10bbb     H3  295   6.683   6.508   5.889 -0.5435  0.3765  1.0015
   10bbb     H4  296   6.746   6.661   5.922 -0.5162  0.1166 -0.2032
   10bbb     C3  297   6.502   6.649   5.773  0.2373  0.4126 -0.4985
   10bbb     H5  298   6.444   6.716   5.709  0.5556 -0.7977 -2.1028
   10bbb     H6  299   6.503   6.685   5.877 -0.8491 -1.0461  0.0586
   10bbb     C4  300   6.430   6.510   5.767  0.3123 -0.3412 -0.0073
   10bbb     H7  301   6.492   6.436   5.818  0.4129  0.3828  0.9378
   10bbb     H8  302   6.432   6.483   5.660  0.4530 -0.3807  0.0055
   10bbb     C5  303   6.620   6.738   5.501  0.0055 -0.2759  0.3310
   10bbb     H9  304   6.656   6.825   5.445  0.1774  0.2790  1.2936
   10bbb    H10  305   6.512   6.749   5.515 -0.1659  0.1297 -1.0932
   10bbb     C6  306   6.869   6.529   5.786  0.4580  0.0871 -0.2224
   10bbb    H11  307   6.930   6.602   5.731 -1.7289  1.8818 -0.3957
   10bbb    H12  308   6.850   6.450   5.712 -0.1611  0.5736 -0.5864
   10bbb     C7  309   6.288   6.509   5.824 -0.3830  0.4688  0.5906
   10bbb    H13  310   6.253   6.406   5.822 -2.0865  1.0204 -0.7634
   10bbb    H14  311   6.223   6.577   5.767  0.6147  0.5839 -0.4648
   10bbb     C8  312   6.959   6.477   5.898 -0.6456  0.1307 -0.0157
   10bbb    H15  313   7.001   6.564   5.950 -1.5641  0.7494 -0.2694
   10bbb    H16  314   7.032   6.409   5.854 -0.5709  0.9498 -1.2162
   10bbb     C9  315   6.658   6.615   5.417  0.4415 -0.4952 -0.6184
   10bbb    H17  316   6.625   6.519   5.460 -0.7349 -0.4202 -1.3090
   10bbb    H18  317   6.767   6.604   5.410  0.3900 -2.5575  0.8527
   10bbb     O1  318   6.314   6.553   5.962 -0.2185 -0.0297  0.1201
   11bbb     N1  319   5.199   7.024   6.400 -0.2686 -0.1815 -0.3129
   11bbb     C1  320   5.058   6.998   6.359  0.1088 -0.3499  0.1528
   11bbb     H1  321   5.041   7.038   6.258  0.3273  0.9705  0.6152
   11bbb     H2  322   4.993   7.045   6.434 -1.0241 -0.7041 -0.5876
   11bbb     C2  323   5.224   7.165   6.434  0.1693  0.5563  0.2135
   11bbb     H3  324   5.152   7.228   6.381 -0.3455  0.0038  0.2445
   11bbb     H4  325   5.318   7.206   6.393  0.9332  0.9451  2.2600
   11bbb     C3  326   5.301   6.966   6.305 -0.2233  0.3049  0.2779
   11bbb     H5  327   5.293   7.032   6.218 -2.2064  0.4068  0.4907
   11bbb     H6  328   5.279   6.864   6.272  1.8245 -0.3244  0.6965
   11bbb     C4  329   5.444   6.968   6.368 -1.0262 -0.0132 -0.0173
   11bbb     H7  330   5.457   7.057   6.431 -0.8582 -0.6276  0.8234
   11bbb     H8  331   5.514   6.982   6.284 -0.7891 -1.2597 -0.0419
   11bbb     C5  332   5.033   6.848   6.355  0.1698 -0.2738 -0.2377
   11bbb     H9  333   5.082   6.808   6.445 -0.7814  1.1622  0.9502
   11bbb    H10  334   5.071   6.795   6.267 -1.5840 -0.4810 -0.8988
   11bbb     C6  335   5.208   7.187   6.588  0.0569 -0.6824 -0.2848
   11bbb    H11  336   5.115   7.145   6.628 -0.1553 -0.6367 -0.7244
   11bbb    H12  337   5.218   7.295   6.605 -1.0905 -0.2872 -1.9362
   11bbb     C7  338   5.489   6.852   6.454  0.1448  0.0601  0.3010
   11bbb    H13  339   5.435   6.763   6.420 -0.6415  0.9894 -0.9862
   11bbb    H14  340   5.462   6.890   6.554  0.5569  0.4654  0.2602
   11bbb     C8  341   5.319   7.124   6.664  0.4636  0.0356  0.0701
   11bbb    H15  342   5.422   7.154   6.639  1.3826 -2.9985 -0.2945
   11bbb    H16  343   5.320   7.015   6.649 -0.7542 -0.0341  0.4461
   11bbb     C9  344   4.884   6.810   6.370 -0.1129  0.0348 -0.0802
   11bbb    H17  345   4.830   6.858   6.287 -2.3594 -1.1872  0.5770
   11bbb    H18  346   4.834   6.843   6.462 -0.6236  0.9642 -0.6802
   11bbb     O1  347   5.632   6.835   6.438  0.0597 -0.3521 -0.5569
   12bbb     N1  348   7.930   7.748   6.390 -0.2007  0.7175 -0.3051
   12bbb     C1  349   7.937   7.718   6.246 -0.4603 -0.2234 -0.0648
   12bbb     H1  350   7.980   7.621   6.218  1.3227  1.0017 -1.8105
   12bbb     H2  351   8.017   7.779   6.202  0.8135 -0.8228  1.3370
   12bbb     C2  352   8.064   7.768   6.465  0.0094  0.4080  0.7204
   12bbb     H3  353   8.133   7.683   6.454  3.3869  2.7145  2.1243
   12bbb     H4  354   8.043   7.777   6.573  2.3575  2.6429  1.0825
   12bbb     C3  355   7.846   7.653   6.465  0.4663  0.2166 -0.1037
   12bbb     H5  356   7.742   7.667   6.435  0.8311  0.3287 -1.3715
   12bbb     H6  357   7.856   7.675   6.572  0.8511 -2.3285  0.4400
   12bbb     C4  358   7.894   7.505   6.463  0.1987 -0.1945 -0.1046
   12bbb     H7  359   7.989   7.495   6.517  1.2406 -1.0883 -1.9720
   12bbb     H8  360   7.914   7.469   6.361 -1.1045  0.5995 -0.6703
   12bbb     C5  361   7.804   7.738   6.168  0.9197  0.6276 -0.7152
   12bbb     H9  362   7.727   7.698   6.235  1.0088  0.9040 -0.4460
   12bbb    H10  363   7.807   7.670   6.082  0.0066 -3.5050  2.2095
   12bbb     C6  364   8.138   7.891   6.430 -0.1369  0.1941 -0.3211
   12bbb    H11  365   8.071   7.978   6.418 -0.6878  0.3239  2.7321
   12bbb    H12  366   8.176   7.868   6.330 -0.9755  0.9292 -0.8274
   12bbb     C7  367   7.795   7.423   6.543 -0.1839  0.1625 -0.1374
   12bbb    H13  368   7.773   7.473   6.638  1.4111 -0.0113  0.3528
   12bbb    H14  369   7.850   7.332   6.568  2.2824  1.0214 -2.0483
   12bbb     C8  370   8.250   7.923   6.528  0.5108  0.1674 -0.6798
   12bbb    H15  371   8.315   7.843   6.566 -0.3057  0.1952  0.8568
   12bbb    H16  372   8.196   7.972   6.610 -1.1289 -2.0880 -0.3326
   12bbb     C9  373   7.774   7.883   6.132 -0.3993 -0.8132  0.4390
   12bbb    H17  374   7.776   7.940   6.225  0.9504 -2.0662  1.2025
   12bbb    H18  375   7.677   7.904   6.084  0.1528  2.8150  0.6108
   12bbb     O1  376   7.684   7.387   6.455  0.2689 -0.0091 -0.1067
   13bbb     N1  377   7.367   7.146   5.693  0.0727  0.1186  0.0497
   13bbb     C1  378   7.353   7.186   5.554  0.1939  0.7460  0.2101
   13bbb     H1  379   7.410   7.273   5.519 -1.5557  1.8518  0.0072
   13bbb     H2  380   7.246   7.189   5.532 -0.0206 -1.6007  0.6078
   13bbb     C2  381   7.270   7.043   5.730  0.1483 -0.0677  0.2898
   13bbb     H3  382   7.309   6.950   5.685  0.6926 -0.2256  1.0639
   13bbb     H4  383   7.168   7.061   5.696  0.0807  0.4910  0.7752
   13bbb     C3  384   7.508   7.121   5.736  0.4846  0.4447  0.2043
   13bbb     H5  385   7.545   7.031   5.687 -0.9880  1.9033 -4.0701
   13bbb     H6  386   7.496   7.118   5.845 -0.0748 -0.2800  0.1275
   13bbb     C4  387   7.605   7.241   5.704  0.7360 -0.3053  0.0362
   13bbb     H7  388   7.620   7.241   5.596  0.5961 -1.6891 -0.0045
   13bbb     H8  389   7.699   7.223   5.757  1.6666  0.6259 -1.2533
   13bbb     C5  390   7.398   7.070   5.455 -0.2201  0.1070  0.2358
   13bbb     H9  391   7.340   6.979   5.475 -0.1558 -0.1396 -0.6619
   13bbb    H10  392   7.503   7.041   5.457 -0.2471  0.0139  1.6887
   13bbb     C6  393   7.246   7.019   5.882 -0.0133  0.4845 -0.4587
   13bbb    H11  394   7.201   7.109   5.927 -3.3998 -0.1589 -2.2703
   13bbb    H12  395   7.344   7.001   5.928 -0.3774  2.4040  1.2567
   13bbb     C7  396   7.554   7.378   5.757 -0.6453  0.2232  0.2290
   13bbb    H13  397   7.460   7.400   5.704 -0.3119  1.3577  0.0920
   13bbb    H14  398   7.631   7.451   5.729 -0.7337 -0.7146 -2.7907
   13bbb     C8  399   7.145   6.902   5.919  0.1402  0.6470 -0.0033
   13bbb    H15  400   7.044   6.940   5.904  0.2427  0.5727 -1.0047
   13bbb    H16  401   7.145   6.891   6.028 -3.0598  1.1174  0.1194
   13bbb     C9  402   7.371   7.112   5.301 -0.0101 -0.7640 -0.1053
   13bbb    H17  403   7.438   7.195   5.277 -0.7812 -0.2437 -0.5185
   13bbb    H18  404   7.273   7.155   5.279  0.3859 -0.0095 -0.4123
   13bbb     O1  405   7.535   7.377   5.903  0.1161 -0.2325 -0.2690
   14bbb     N1  406   4.424   6.845   6.345 -0.3533  0.1974 -0.3116
   14bbb     C1  407   4.359   6.822   6.216 -0.3928 -0.5530 -0.0914
   14bbb     H1  408   4.402   6.879   6.133  2.4883  0.3820  1.8834
   14bbb     H2  409   4.251   6.835   6.228 -0.4468 -0.5448 -0.5593
   14bbb     C2  410   4.381   6.750   6.451  0.6928 -0.2331  0.4475
   14bbb     H3  411   4.398   6.648   6.413 -0.1910  0.2529 -1.3307
   14bbb     H4  412   4.276   6.769   6.476 -0.0025 -1.7437 -1.1390
   14bbb     C3  413   4.437   6.985   6.381  0.3111 -0.0528  0.0339
   14bbb     H5  414   4.491   6.986   6.476  0.2923 -1.5327  0.0888
   14bbb     H6  415   4.338   7.032   6.389  0.2984 -0.2792  1.5031
   14bbb     C4  416   4.515   7.067   6.274 -0.1148 -0.1754  0.7110
   14bbb     H7  417   4.447   7.093   6.192 -0.4017  0.0837  1.0294
   14bbb     H8  418   4.602   7.010   6.239 -0.4416  0.6748 -1.6263
   14bbb     C5  419   4.371   6.670   6.176 -0.2354 -0.2291  0.0604
   14bbb     H9  420   4.285   6.613   6.214 -0.6044  0.7664  0.7733
   14bbb    H10  421   4.472   6.640   6.206  0.2541  1.1507 -0.1288
   14bbb     C6  422   4.462   6.764   6.571 -0.4207 -0.6177  0.5669
   14bbb    H11  423   4.444   6.856   6.628  2.1468 -0.7241  1.7025
   14bbb    H12  424   4.566   6.778   6.540 -0.9617  1.7709 -0.3354
   14bbb     C7  425   4.567   7.199   6.334  0.7465  0.3699 -0.3749
   14bbb    H13  426   4.614   7.246   6.246 -4.4629 -0.2302 -3.9988
   14bbb    H14  427   4.635   7.173   6.415  1.6826  3.5142 -0.0078
   14bbb     C8  428   4.466   6.644   6.658  0.0441  0.9611 -0.3114
   14bbb    H15  429   4.466   6.560   6.586  0.2327  1.4582 -0.8965
   14bbb    H16  430   4.377   6.623   6.719  0.6335 -1.5900 -0.1854
   14bbb     C9  431   4.358   6.645   6.025  0.2084 -0.0375  0.7367
   14bbb    H17  432   4.415   6.715   5.962  0.5475  0.0119  1.0919
   14bbb    H18  433   4.258   6.679   5.996 -0.1145 -0.6407  1.1140
   14bbb     O1  434   4.460   7.281   6.385 -0.4556 -0.2183  0.0082
   15bbb     N1  435   4.103   7.187   7.170 -0.1688  0.1839 -0.3654
   15bbb     C1  436   4.164   7.048   7.170 -0.5912 -0.9720  0.2962
   15bbb     H1  437   4.198   7.010   7.267  0.0799 -0.7174  0.1640
   15bbb     H2  438   4.259   7.058   7.116 -1.5015  0.3703 -1.1064
   15bbb     C2  439   4.141   7.270   7.287  0.4661  0.1250  0.0268
   15bbb     H3  440   4.116   7.376   7.272 -0.5295  0.1840  1.9240
   15bbb     H4  441   4.249   7.268   7.310  1.0031 -1.2646 -2.3178
   15bbb     C3  442   4.106   7.266   7.048  0.3664 -0.7490 -0.4459
   15bbb     H5  443   4.101   7.196   6.963  2.3623 -0.7333 -0.6255
   15bbb     H6  444   4.200   7.322   7.050 -0.3918  0.5723  1.7098
   15bbb     C4  445   3.980   7.360   7.040  0.0803  0.3611  0.6905
   15bbb     H7  446   3.997   7.446   7.106  0.6459  0.1336  0.8480
   15bbb     H8  447   3.899   7.297   7.081 -0.7801  1.9669  1.5568
   15bbb     C5  448   4.096   6.931   7.102  0.2669  0.1551  0.0515
   15bbb     H9  449   4.175   6.855   7.099  3.6404  3.2961  1.7916
   15bbb    H10  450   4.067   6.962   7.001 -3.5484  2.5132  1.6189
   15bbb     C6  451   4.063   7.236   7.418  0.9105  0.2880 -0.3645
   15bbb    H11  452   4.099   7.306   7.494  0.2661 -0.9268  1.1258
   15bbb    H12  453   4.104   7.139   7.451  1.9074  1.1967  1.1722
   15bbb     C7  454   3.953   7.404   6.896 -0.6120  0.2330  0.1341
   15bbb    H13  455   3.882   7.488   6.893  0.6311  1.3647  1.1892
   15bbb    H14  456   3.905   7.322   6.841 -1.9352  1.6306 -0.9039
   15bbb     C8  457   3.905   7.227   7.412  0.0096  0.2386 -0.2106
   15bbb    H15  458   3.864   7.171   7.497  0.4531 -0.6251 -0.5602
   15bbb    H16  459   3.887   7.165   7.323  2.3558  0.1325 -0.6765
   15bbb     C9  460   3.974   6.887   7.179  0.3483  0.5486 -0.0941
   15bbb    H17  461   3.908   6.827   7.115 -0.7983  1.4558  0.2057
   15bbb    H18  462   3.914   6.975   7.204 -0.5110  0.4522 -1.7106
   15bbb     O1  463   4.083   7.447   6.841 -0.2625  0.5057  0.4146
   16bbb     N1  464   4.987   8.271   8.064  0.2581  0.1277 -0.0435
   16bbb     C1  465   4.952   8.359   8.179 -0.1253  0.4213 -0.0063
   16bbb     H1  466   4.843   8.362   8.195 -0.3082 -2.1173 -0.2738
   16bbb     H2  467   4.981   8.463   8.163  1.2694  0.0884  0.2693
   16bbb     C2  468   5.130   8.274   8.046  0.3749  0.0967  0.7963
   16bbb     H3  469   5.172   8.193   8.106  1.2851  0.8531  1.1984
   16bbb     H4  470   5.162   8.371   8.086  0.5307 -0.6496  2.5443
   16bbb     C3  471   4.920   8.140   8.046 -0.4650 -0.6843 -0.2149
   16bbb     H5  472   4.959   8.079   8.128  2.3279  2.1237  0.7224
   16bbb     H6  473   4.953   8.105   7.947 -0.9046  1.0335 -1.0129
   16bbb     C4  474   4.766   8.131   8.063 -0.2877 -0.1103 -0.7959
   16bbb     H7  475   4.714   8.199   7.994  0.5425  1.8041  0.3523
   16bbb     H8  476   4.738   8.174   8.161  2.3582  0.3652 -0.1618
   16bbb     C5  477   5.010   8.318   8.315 -0.2467  0.4938  0.0569
   16bbb     H9  478   5.120   8.314   8.309 -0.3457 -0.0308 -2.2667
   16bbb    H10  479   4.972   8.219   8.345  0.4645 -0.4915 -2.0263
   16bbb     C6  480   5.183   8.256   7.899 -0.3028  0.1086 -0.6361
   16bbb    H11  481   5.122   8.319   7.834 -0.1695  0.9202  0.0193
   16bbb    H12  482   5.165   8.152   7.869 -0.0392 -0.7145  1.8373
   16bbb     C7  483   4.719   7.981   8.057 -0.4203 -0.4068 -0.0395
   16bbb    H13  484   4.613   7.978   8.082 -0.4200 -1.3298 -0.1256
   16bbb    H14  485   4.761   7.911   8.130 -0.5497  0.7341  1.1553
   16bbb     C8  486   5.334   8.291   7.884  0.3399 -0.3677  0.0183
   16bbb    H15  487   5.366   8.267   7.782  2.1531  0.4877  0.3414
   16bbb    H16  488   5.390   8.224   7.950 -3.0611 -2.5689  0.9335
   16bbb     C9  489   4.977   8.417   8.425 -0.3338 -0.0949  0.2126
   16bbb    H17  490   4.868   8.421   8.427 -0.3304  0.2022  2.4578
   16bbb    H18  491   5.012   8.518   8.401 -1.0003  0.0389 -0.1895
   16bbb     O1  492   4.738   7.931   7.927  0.1759  0.1288  0.0490
   17bbb     N1  493   4.084   7.730   7.246  0.2303  0.1519  0.6054
   17bbb     C1  494   4.030   7.635   7.347  0.4613  0.4279  0.3128
   17bbb     H1  495   4.100   7.556   7.375 -1.0920 -0.3379  2.2084
   17bbb     H2  496   3.943   7.591   7.296  0.4712 -2.6520  2.6784
   17bbb     C2  497   3.991   7.759   7.131 -0.2618 -0.3362  0.5355
   17bbb     H3  498   3.944   7.672   7.085 -2.6556 -0.1137  2.3833
   17bbb     H4  499   4.052   7.797   7.049 -0.1032 -1.8488 -0.0776
   17bbb     C3  500   4.221   7.698   7.196  0.6607  0.1194 -0.5876
   17bbb     H5  501   4.248   7.756   7.108  0.2631  0.1623 -0.6797
   17bbb     H6  502   4.225   7.594   7.159 -0.0993 -0.1671  0.0897
   17bbb     C4  503   4.323   7.706   7.309  0.0772  0.3120 -0.3017
   17bbb     H7  504   4.308   7.639   7.394  4.2330  1.4109  1.5517
   17bbb     H8  505   4.322   7.798   7.369 -0.8823 -0.0468  0.2662
   17bbb     C5  506   3.977   7.707   7.472 -0.2845 -0.4014  0.3249
   17bbb     H9  507   3.900   7.642   7.514  0.6757 -1.2496  0.8324
   17bbb    H10  508   3.926   7.799   7.442  0.8332  0.5505  1.2120
   17bbb     C6  509   3.880   7.862   7.170 -0.2007  0.1556 -0.0158
   17bbb    H11  510   3.915   7.954   7.218  0.9239  0.2334 -0.9442
   17bbb    H12  511   3.811   7.821   7.245 -0.6818  1.0577  0.0509
   17bbb     C7  512   4.452   7.666   7.245 -0.5640  0.7062  0.5458
   17bbb    H13  513   4.455   7.733   7.158 -1.2668  1.8696  1.3744
   17bbb    H14  514   4.461   7.561   7.216 -0.9415  0.1353  2.3566
   17bbb     C8  515   3.792   7.897   7.053  0.0016 -0.1951  0.2992
   17bbb    H15  516   3.843   7.938   6.965 -2.3578  0.7555 -0.7202
   17bbb    H16  517   3.720   7.972   7.086 -1.7656 -1.7819  0.2487
   17bbb     C9  518   4.084   7.738   7.583  0.0013 -0.1115 -0.0867
   17bbb    H17  519   4.030   7.782   7.667 -0.9278 -0.4544 -0.4954
   17bbb    H18  520   4.156   7.816   7.552 -0.3522 -0.3554 -1.6140
   17bbb     O1  521   4.565   7.704   7.322  0.6004 -0.3949  0.2828
   18bbb     N1  522   5.164   7.756   8.399 -0.2564 -0.3337 -0.4470
   18bbb     C1  523   5.112   7.853   8.508  0.5131  0.2151 -0.0672
   18bbb     H1  524   5.092   7.800   8.602 -1.0106 -0.1365 -0.5484
   18bbb     H2  525   5.009   7.886   8.488  1.1546  1.9886 -0.6090
   18bbb     C2  526   5.289   7.675   8.425  0.1135  0.4113 -0.7640
   18bbb     H3  527   5.380   7.735   8.427 -0.3924  1.1831  0.8907
   18bbb     H4  528   5.301   7.598   8.348 -0.5165 -0.3213 -0.1464
   18bbb     C3  529   5.155   7.818   8.267  0.7140 -0.4148 -0.2398
   18bbb     H5  530   5.237   7.884   8.235  2.1941 -2.2763 -0.5123
   18bbb     H6  531   5.075   7.892   8.271  1.8231  0.7821  2.8435
   18bbb     C4  532   5.127   7.721   8.151 -0.3428  0.8736 -0.5495
   18bbb     H7  533   5.033   7.668   8.169  1.4114 -2.9639 -1.6109
   18bbb     H8  534   5.209   7.648   8.153  0.2127  1.4971  0.0672
   18bbb     C5  535   5.213   7.963   8.543  0.4521 -0.1920 -1.0513
   18bbb     H9  536   5.232   8.036   8.464 -1.4661  2.1002  0.4543
   18bbb    H10  537   5.302   7.908   8.576 -0.8660  0.0111  3.4783
   18bbb     C6  538   5.288   7.602   8.566 -0.2879 -0.2683  0.2578
   18bbb    H11  539   5.204   7.532   8.567 -1.1568  0.7462 -0.3944
   18bbb    H12  540   5.285   7.668   8.654 -1.7653 -1.0345  0.8055
   18bbb     C7  541   5.127   7.794   8.012  0.1338  0.1651 -0.7896
   18bbb    H13  542   5.039   7.859   8.015  0.1805  0.1971  0.3150
   18bbb    H14  543   5.119   7.719   7.933 -1.2253 -1.7123  1.0019
   18bbb     C8  544   5.425   7.519   8.580  0.5255 -0.5749  0.2026
   18bbb    H15  545   5.443   7.457   8.491 -0.5217  1.0967 -1.2514
   18bbb    H16  546   5.413   7.447   8.662 -0.6544 -0.9860 -0.3073
   18bbb     C9  547   5.151   8.055   8.655  0.9414  0.5067  0.2645
   18bbb    H17  548   5.054   8.093   8.618 -0.7244 -1.5825  2.1660
   18bbb    H18  549   5.208   8.143   8.685  1.0830  0.3511  0.4557
   18bbb     O1  550   5.251   7.868   7.995  0.1917 -0.3144  0.3805
   19bbb     N1  551   5.323   8.493   7.284  0.0545 -0.1526  0.1837
   19bbb     C1  552   5.249   8.616   7.263 -0.1204 -0.8058 -0.5077
   19bbb     H1  553   5.142   8.601   7.243  0.1143 -0.3865 -2.2845
   19bbb     H2  554   5.287   8.655   7.167  0.7735 -1.2934 -0.3603
   19bbb     C2  555   5.347   8.411   7.168  0.0843 -0.2240 -0.3936
   19bbb     H3  556   5.425   8.336   7.185 -0.0333 -0.7495 -2.0073
   19bbb     H4  557   5.390   8.462   7.081 -0.6819 -0.6870 -1.0529
   19bbb     C3  558   5.281   8.416   7.399 -0.0867 -0.4016 -0.1970
   19bbb     H5  559   5.183   8.373   7.377  0.5087 -1.1102 -1.6525
   19bbb     H6  560   5.272   8.478   7.489 -2.2616  0.5770 -1.0298
   19bbb     C4  561   5.368   8.295   7.438 -0.1091 -0.1318  0.4595
   19bbb     H7  562   5.368   8.210   7.369  0.5479 -0.2430  0.5928
   19bbb     H8  563   5.327   8.261   7.534 -2.6443  0.0492 -0.4929
   19bbb     C5  564   5.257   8.735   7.364 -0.4686 -0.7818  0.5533
   19bbb     H9  565   5.357   8.776   7.387 -0.1397 -1.5814  0.5579
   19bbb    H10  566   5.228   8.693   7.461  2.1509 -3.9703  0.1108
   19bbb     C6  567   5.213   8.343   7.119 -0.5653  0.3918 -0.5038
   19bbb    H11  568   5.131   8.415   7.105  1.3808  2.2365 -3.5072
   19bbb    H12  569   5.174   8.267   7.188 -0.1267 -1.2036 -1.9325
   19bbb     C7  570   5.511   8.335   7.464 -0.7953  0.2779  0.0382
   19bbb    H13  571   5.507   8.407   7.546  0.8368 -0.7310  1.0640
   19bbb    H14  572   5.552   8.380   7.373 -1.5222 -2.4082 -1.7255
   19bbb     C8  573   5.236   8.262   6.994  0.3260  0.3251  0.9446
   19bbb    H15  574   5.139   8.239   6.949 -1.6360  0.4058  4.6860
   19bbb    H16  575   5.286   8.168   7.020  1.2407  0.4426 -0.2844
   19bbb     C9  576   5.160   8.854   7.321  0.3888  0.2219 -0.6409
   19bbb    H17  577   5.187   8.941   7.382 -0.7406  1.3740 -1.7275
   19bbb    H18  578   5.057   8.823   7.344  0.3811  1.4476  1.1736
   19bbb     O1  579   5.580   8.220   7.497 -0.1519 -0.2544  0.1325
   20bbb     N1  580   7.194   6.841   6.800  0.7723  0.2998 -0.2909
   20bbb     C1  581   7.085   6.837   6.702 -0.0559 -0.2347  0.2381
   20bbb     H1  582   7.079   6.732   6.669 -2.1553 -0.0364 -0.1931
   20bbb     H2  583   7.101   6.899   6.613 -1.8133 -0.3079 -0.1752
   20bbb     C2  584   7.311   6.763   6.748 -0.0455 -0.0774 -0.6155
   20bbb     H3  585   7.358   6.828   6.673  0.1473  1.0695  0.4578
   20bbb     H4  586   7.291   6.666   6.702 -1.4896  0.1985 -0.6019
   20bbb     C3  587   7.229   6.968   6.864 -0.2155 -0.0630  0.1282
   20bbb     H5  588   7.316   6.956   6.930 -0.3079 -1.8008 -0.0348
   20bbb     H6  589   7.144   7.011   6.919  0.0515 -1.3492  1.6375
   20bbb     C4  590   7.269   7.069   6.755 -0.0556 -0.1954 -0.2593
   20bbb     H7  591   7.184   7.078   6.687 -0.3831  0.7586  0.2591
   20bbb     H8  592   7.357   7.051   6.692  0.9416  0.1481  1.0043
   20bbb     C5  593   6.940   6.855   6.767  0.3000  0.8008  0.0124
   20bbb     H9  594   6.912   6.961   6.772 -2.6942  0.1582 -0.6778
   20bbb    H10  595   6.957   6.813   6.867 -1.7031  1.8562  0.8588
   20bbb     C6  596   7.415   6.724   6.855 -0.8322  0.5695  0.7647
   20bbb    H11  597   7.372   6.661   6.934 -0.1533 -1.5478 -0.4819
   20bbb    H12  598   7.466   6.806   6.909  0.4267 -0.8730  1.8710
   20bbb     C7  599   7.294   7.202   6.831  0.0973  0.0876  0.4002
   20bbb    H13  600   7.382   7.185   6.894 -0.3578 -0.2732  0.9525
   20bbb    H14  601   7.209   7.223   6.897 -1.1107  0.1634 -1.1070
   20bbb     C8  602   7.532   6.640   6.790 -0.3441 -0.0765 -0.0184
   20bbb    H15  603   7.469   6.570   6.734  0.5153  0.5825 -1.9234
   20bbb    H16  604   7.581   6.595   6.877  0.5613 -0.3748 -0.6702
   20bbb     C9  605   6.823   6.781   6.694 -0.2383 -0.3382  0.1330
   20bbb    H17  606   6.838   6.803   6.587  0.2749 -1.5729 -0.0595
   20bbb    H18  607   6.725   6.819   6.726 -0.0852  0.9823 -0.8480
   20bbb     O1  608   7.310   7.315   6.748 -0.5585  0.3344  0.5097
   21bbb     N1  609   7.504   8.263   6.622  0.2666 -0.2036 -0.3062
   21bbb     C1  610   7.622   8.248   6.716  0.4322 -0.3622  0.7417
   21bbb     H1  611   7.627   8.148   6.760 -0.8521 -0.7841  0.0132
   21bbb     H2  612   7.605   8.310   6.805 -0.3124  0.5667 -0.0234
   21bbb     C2  613   7.503   8.395   6.551 -0.5710  0.7008 -0.1598
   21bbb     H3  614   7.441   8.398   6.461  0.7488 -1.2486 -1.2025
   21bbb     H4  615   7.604   8.408   6.510  0.2865  0.5054  1.7806
   21bbb     C3  616   7.373   8.228   6.683  0.7178  0.0003 -0.5628
   21bbb     H5  617   7.349   8.280   6.776  1.8622  0.2793 -0.4098
   21bbb     H6  618   7.387   8.124   6.717  2.3471  0.6319  0.8307
   21bbb     C4  619   7.254   8.245   6.582  0.3582  0.3550  0.0708
   21bbb     H7  620   7.278   8.184   6.494  1.7187 -0.7607  1.1660
   21bbb     H8  621   7.240   8.349   6.551 -1.9546 -0.0091 -0.3150
   21bbb     C5  622   7.762   8.295   6.658  0.5255 -0.9431  0.0838
   21bbb     H9  623   7.767   8.402   6.638  2.4276 -0.8804  0.7566
   21bbb    H10  624   7.778   8.237   6.567  2.1494 -0.2848 -0.0692
   21bbb     C6  625   7.472   8.527   6.634  0.1033 -0.2385  0.1993
   21bbb    H11  626   7.548   8.532   6.713  0.1224  0.3984  0.1448
   21bbb    H12  627   7.373   8.516   6.680 -0.1947  1.0113 -0.1324
   21bbb     C7  628   7.127   8.192   6.655 -0.3262 -0.0968 -0.4077
   21bbb    H13  629   7.042   8.231   6.597  0.9739  2.1312 -0.9625
   21bbb    H14  630   7.129   8.227   6.759  0.9783 -0.1018 -0.4049
   21bbb     C8  631   7.461   8.651   6.551  0.2458 -0.2648 -0.1933
   21bbb    H15  632   7.427   8.738   6.609 -2.6766 -0.1901 -1.8230
   21bbb    H16  633   7.384   8.640   6.473  0.5749 -0.2836 -0.5132
   21bbb     C9  634   7.874   8.258   6.755  0.4857 -0.4209 -0.3198
   21bbb    H17  635   7.969   8.241   6.704 -0.7179 -2.6866 -2.0296
   21bbb    H18  636   7.854   8.169   6.815 -2.9089  0.6745  0.4392
   21bbb     O1  637   7.133   8.050   6.655  0.0488 -0.0669 -1.0256
   22bbb     N1  638   7.089   6.126   6.301  0.1082  0.3768  0.2354
   22bbb     C1  639   7.089   6.156   6.451 -1.1058 -0.2232 -0.1372
   22bbb     H1  640   7.026   6.084   6.504 -1.9922  1.0417  0.5864
   22bbb     H2  641   7.037   6.251   6.469 -2.3846 -0.4442 -2.2899
   22bbb     C2  642   7.158   6.003   6.267 -0.0695 -0.3249 -0.3982
   22bbb     H3  643   7.100   5.924   6.316 -0.1127 -0.0058  0.0758
   22bbb     H4  644   7.261   6.008   6.305 -0.6431 -0.8577  1.3286
   22bbb     C3  645   6.954   6.133   6.250  0.2480 -0.3339 -0.3438
   22bbb     H5  646   6.880   6.104   6.326 -0.7581 -0.1724 -1.2290
   22bbb     H6  647   6.935   6.069   6.163 -0.3051 -0.5739 -0.0528
   22bbb     C4  648   6.922   6.278   6.207  0.1307 -0.2990 -0.1291
   22bbb     H7  649   6.948   6.353   6.283  0.3045  0.5776 -1.0214
   22bbb     H8  650   6.814   6.279   6.191  0.3805  2.2614 -2.3621
   22bbb     C5  651   7.232   6.172   6.516  0.3287 -0.5876  0.5830
   22bbb     H9  652   7.286   6.077   6.503 -0.2676 -0.8099 -0.3877
   22bbb    H10  653   7.227   6.186   6.625 -2.2480 -0.9589  0.5795
   22bbb     C6  654   7.177   5.982   6.107 -0.3232 -0.0860 -0.7500
   22bbb    H11  655   7.203   6.072   6.050  3.0052 -1.7568 -2.1500
   22bbb    H12  656   7.085   5.938   6.067  0.0208  1.0889 -2.9376
   22bbb     C7  657   6.983   6.312   6.073 -0.1926 -0.9320  0.7475
   22bbb    H13  658   6.997   6.223   6.010 -0.0002 -0.9401  0.7999
   22bbb    H14  659   7.080   6.363   6.077 -0.2443 -0.7244 -0.4374
   22bbb     C8  660   7.293   5.891   6.072 -0.1490  0.3719  0.8877
   22bbb    H15  661   7.387   5.946   6.084  0.0658  1.1619 -2.9214
   22bbb    H16  662   7.296   5.866   5.965  1.1910  1.0021  0.7576
   22bbb     C9  663   7.306   6.299   6.459 -0.0554 -0.2188  0.1752
   22bbb    H17  664   7.279   6.382   6.525 -0.4653 -0.4698  0.3308
   22bbb    H18  665   7.264   6.328   6.362 -1.8019  0.3949  1.0641
   22bbb     O1  666   6.891   6.389   5.996 -0.4829 -0.4736  0.2449
   23bbb     N1  667   6.443   6.571   4.887 -0.1031 -0.6203  0.1883
   23bbb     C1  668   6.464   6.436   4.822  0.6644  0.2956 -0.1479
   23bbb     H1  669   6.442   6.352   4.889  1.7470 -0.3612 -0.5870
   23bbb     H2  670   6.567   6.427   4.786  1.5609 -0.2359  2.3551
   23bbb     C2  671   6.508   6.682   4.816  0.2739  0.0241  0.4211
   23bbb     H3  672   6.485   6.655   4.712  0.0542 -0.2415  0.5346
   23bbb     H4  673   6.618   6.676   4.819  0.2380 -0.2560  1.4460
   23bbb     C3  674   6.493   6.567   5.031 -0.0967 -0.6083  0.0252
   23bbb     H5  675   6.447   6.487   5.090 -0.9766 -0.0807  0.0686
   23bbb     H6  676   6.449   6.656   5.078  0.8965 -0.2951  0.3741
   23bbb     C4  677   6.643   6.568   5.051  0.4911  0.2789 -0.0121
   23bbb     H7  678   6.687   6.663   5.018 -1.0018  0.7960 -0.6090
   23bbb     H8  679   6.687   6.486   4.994  0.7612  0.3059  0.1535
   23bbb     C5  680   6.381   6.420   4.696 -0.0171  0.2375  0.7089
   23bbb     H9  681   6.429   6.340   4.640  0.4700  2.0357 -1.6110
   23bbb    H10  682   6.380   6.513   4.637 -0.5424  1.5252  2.6184
   23bbb     C6  683   6.468   6.828   4.848 -0.3296 -0.3086  0.2083
   23bbb    H11  684   6.499   6.857   4.950  0.9501 -0.2964 -0.1594
   23bbb    H12  685   6.360   6.836   4.839 -0.1533 -0.1234 -2.4447
   23bbb     C7  686   6.685   6.538   5.197  0.1320  0.1784 -0.1613
   23bbb    H13  687   6.791   6.564   5.207  0.0246  0.5066  0.1727
   23bbb    H14  688   6.663   6.437   5.232  0.1311  0.4853  0.7425
   23bbb     C8  689   6.527   6.935   4.745 -0.2426  0.3873 -0.6065
   23bbb    H15  690   6.529   7.034   4.792 -0.0156  0.4665 -0.7742
   23bbb    H16  691   6.469   6.930   4.652  1.6826 -2.8515 -1.7730
   23bbb     C9  692   6.234   6.398   4.729 -0.1448 -0.0302  1.1129
   23bbb    H17  693   6.196   6.492   4.771  0.4799 -0.0330  1.7006
   23bbb    H18  694   6.229   6.319   4.805  0.1633  0.0017  1.1670
   23bbb     O1  695   6.616   6.629   5.284 -0.2278  0.1394  0.0389
   24bbb     N1  696   5.263   7.240   7.219 -0.4702 -0.1315  0.2674
   24bbb     C1  697   5.392   7.191   7.272  0.0571 -0.0968 -0.5154
   24bbb     H1  698   5.474   7.243   7.221  1.4557 -0.9235  0.8140
   24bbb     H2  699   5.404   7.085   7.247 -0.0087  0.3178 -2.4225
   24bbb     C2  700   5.218   7.368   7.273  0.2815 -0.1172 -0.3411
   24bbb     H3  701   5.275   7.456   7.241  0.2576 -0.0260 -0.1363
   24bbb     H4  702   5.229   7.384   7.381  1.4869  0.9390 -0.6021
   24bbb     C3  703   5.262   7.234   7.071 -0.2642  0.2764 -0.4202
   24bbb     H5  704   5.352   7.275   7.025  0.2246  1.0165  1.1074
   24bbb     H6  705   5.176   7.289   7.029 -0.2864  0.8224  0.3053
   24bbb     C4  706   5.242   7.088   7.027 -0.6492 -0.4189 -0.7153
   24bbb     H7  707   5.164   7.052   7.096  1.4173  0.5957  2.4051
   24bbb     H8  708   5.335   7.032   7.041 -0.4003 -0.0350 -0.8284
   24bbb     C5  709   5.415   7.182   7.424 -0.0011  0.1546 -0.6857
   24bbb     H9  710   5.339   7.122   7.477 -0.7836  2.9806  1.6313
   24bbb    H10  711   5.395   7.279   7.470 -0.0827 -0.4281  0.5691
   24bbb     C6  712   5.064   7.399   7.243 -0.7631  0.1855  0.4451
   24bbb    H11  713   5.048   7.398   7.134  2.4911  2.1727 -0.1983
   24bbb    H12  714   5.044   7.501   7.280 -1.7087 -0.1558  0.9045
   24bbb     C7  715   5.201   7.085   6.883 -0.2395 -0.1324  0.6572
   24bbb    H13  716   5.105   7.133   6.863 -1.1057 -2.5519 -1.7232
   24bbb    H14  717   5.206   6.982   6.845 -1.1285  0.4246 -1.0523
   24bbb     C8  718   4.974   7.306   7.328  0.7298  0.0353  0.1262
   24bbb    H15  719   5.022   7.208   7.322  1.0727  0.1552  0.7921
   24bbb    H16  720   4.881   7.292   7.272  0.0144 -0.8493  1.4909
   24bbb     C9  721   5.555   7.124   7.470 -0.0673 -0.4563 -0.2297
   24bbb    H17  722   5.631   7.171   7.407  2.4461 -0.5033  2.5872
   24bbb    H18  723   5.554   7.014   7.468 -1.7253 -0.4642 -1.1522
   24bbb     O1  724   5.303   7.156   6.807 -0.1579  0.4424 -0.5680
   25bbb     N1  725   4.580   6.272   6.293 -0.2473  0.0961 -0.5967
   25bbb     C1  726   4.685   6.168   6.322  0.1789  0.6995 -0.3651
   25bbb     H1  727   4.700   6.138   6.426  2.3628 -2.2155 -1.3591
   25bbb     H2  728   4.784   6.203   6.292  2.1604 -2.3156  2.0274
   25bbb     C2  729   4.434   6.222   6.312  0.1471  0.9197 -0.0855
   25bbb     H3  730   4.411   6.129   6.259 -1.7701 -0.0420  2.2024
   25bbb     H4  731   4.366   6.296   6.267 -0.9879  1.0599  1.7249
   25bbb     C3  732   4.603   6.391   6.373 -0.5044  0.0244 -0.0916
   25bbb     H5  733   4.611   6.367   6.480 -0.8547 -1.5890 -0.4079
   25bbb     H6  734   4.516   6.456   6.358  0.0851  0.7776 -0.2676
   25bbb     C4  735   4.736   6.462   6.326 -0.4735 -0.4981 -0.1542
   25bbb     H7  736   4.755   6.448   6.219 -0.5432  0.8147 -0.3582
   25bbb     H8  737   4.825   6.408   6.361  0.1020 -1.5607 -3.0032
   25bbb     C5  738   4.662   6.041   6.231 -0.0397  0.3420 -0.2295
   25bbb     H9  739   4.594   5.971   6.280 -1.2279  1.6829  0.1216
   25bbb    H10  740   4.758   5.988   6.236 -0.9224 -1.4241 -1.2396
   25bbb     C6  741   4.392   6.200   6.458  0.6754 -0.2492  0.1416
   25bbb    H11  742   4.407   6.289   6.522  0.5935  1.6845 -2.3604
   25bbb    H12  743   4.454   6.124   6.506 -1.5692 -0.8870  2.2508
   25bbb     C7  744   4.748   6.611   6.370 -0.0608 -0.0521  0.5716
   25bbb    H13  745   4.724   6.614   6.477  1.5967 -0.8068  1.0088
   25bbb    H14  746   4.684   6.677   6.310  1.1888  1.6069  0.9878
   25bbb     C8  747   4.243   6.158   6.482  0.4569 -0.2292  0.6247
   25bbb    H15  748   4.211   6.176   6.586 -0.4937  0.5088  0.2151
   25bbb    H16  749   4.246   6.049   6.475 -0.6597 -0.1344 -2.6850
   25bbb     C9  750   4.624   6.076   6.081  0.0353 -0.5982 -0.1255
   25bbb    H17  751   4.705   6.133   6.033  0.3128  0.9023  1.9931
   25bbb    H18  752   4.544   6.151   6.077 -1.1506 -1.8742 -2.6350
   25bbb     O1  753   4.879   6.667   6.348  0.4991  0.3226  0.0102
   26bbb     N1  754   8.227   8.405   6.473  0.4885  0.2016 -0.4616
   26bbb     C1  755   8.107   8.460   6.411  0.5050  0.4325 -0.3180
   26bbb     H1  756   8.126   8.488   6.307 -1.0965 -1.2825 -1.1428
   26bbb     H2  757   8.071   8.543   6.473 -2.2747 -0.2245 -0.9049
   26bbb     C2  758   8.312   8.516   6.527  0.0689 -0.0530 -0.4781
   26bbb     H3  759   8.283   8.617   6.497 -0.8199 -0.3938 -0.7939
   26bbb     H4  760   8.416   8.517   6.491  0.0458  3.9952 -0.8412
   26bbb     C3  761   8.310   8.328   6.379  0.3596 -0.1266  0.6077
   26bbb     H5  762   8.345   8.384   6.292  0.2897 -2.1494 -0.8058
   26bbb     H6  763   8.256   8.250   6.325  0.2690 -0.0543  0.5960
   26bbb     C4  764   8.419   8.247   6.455 -0.3271  0.1306  0.7251
   26bbb     H7  765   8.486   8.307   6.517 -0.2709 -1.4128  2.2447
   26bbb     H8  766   8.476   8.193   6.379  0.4802 -0.9920  2.0813
   26bbb     C5  767   7.997   8.349   6.395 -0.2825 -0.2611  0.1591
   26bbb     H9  768   7.980   8.310   6.496 -3.0984 -1.1135 -0.5345
   26bbb    H10  769   8.038   8.273   6.328 -0.8208  1.0028 -1.7067
   26bbb     C6  770   8.306   8.517   6.676 -0.1827  0.3852 -0.0302
   26bbb    H11  771   8.393   8.573   6.714 -0.3308  1.2923 -0.9927
   26bbb    H12  772   8.312   8.413   6.711 -0.1976  0.9058  1.6130
   26bbb     C7  773   8.374   8.131   6.538  0.2985  0.6312 -0.0809
   26bbb    H13  774   8.306   8.161   6.619 -0.8033 -0.1368 -0.6944
   26bbb    H14  775   8.461   8.089   6.589  0.6515  0.8570 -0.4940
   26bbb     C8  776   8.171   8.574   6.740 -0.7596  0.1462 -0.7358
   26bbb    H15  777   8.183   8.585   6.848  0.9702  0.4860 -0.9318
   26bbb    H16  778   8.095   8.498   6.722 -0.8761  0.1727 -0.3535
   26bbb     C9  779   7.860   8.388   6.332  0.2474  0.0608 -0.0461
   26bbb    H17  780   7.810   8.469   6.387 -1.6474  0.0706 -1.6698
   26bbb    H18  781   7.795   8.300   6.340 -0.8358  0.6769 -1.5422
   26bbb     O1  782   8.319   8.029   6.456  0.0323 -0.3745  0.3746
   27bbb     N1  783   8.173   8.173   5.836 -0.2506  0.4197 -0.5155
   27bbb     C1  784   8.311   8.112   5.837 -0.2453 -0.7066  0.8446
   27bbb     H1  785   8.303   8.006   5.811 -1.6676 -0.5847  0.7058
   27bbb     H2  786   8.350   8.118   5.939  1.6606  1.4445  0.0772
   27bbb     C2  787   8.179   8.315   5.872 -0.1971 -0.6049  0.4450
   27bbb     H3  788   8.080   8.361   5.866  0.2632  0.2246 -1.9729
   27bbb     H4  789   8.246   8.351   5.793 -1.6796  0.6973 -0.2738
   27bbb     C3  790   8.077   8.089   5.908  0.4467 -0.2233  0.7653
   27bbb     H5  791   8.087   8.086   6.017 -3.2081  0.1565  1.2337
   27bbb     H6  792   8.090   7.984   5.879  0.3449 -0.6814  2.3028
   27bbb     C4  793   7.926   8.109   5.876 -0.2147 -0.1163 -0.2337
   27bbb     H7  794   7.898   8.036   5.800  0.5467  1.3739 -2.0245
   27bbb     H8  795   7.909   8.210   5.838 -1.7148 -0.3473 -0.2162
   27bbb     C5  796   8.421   8.180   5.743  0.0524 -0.1589  0.4574
   27bbb     H9  797   8.513   8.122   5.756  1.5288  1.5773 -1.3958
   27bbb    H10  798   8.438   8.284   5.775 -2.6604 -0.3843  2.9742
   27bbb     C6  799   8.238   8.364   6.010  0.2915 -0.2152 -0.5049
   27bbb    H11  800   8.344   8.336   6.015  0.1770 -0.7306 -0.8543
   27bbb    H12  801   8.177   8.322   6.090  2.4021  0.1076  1.3616
   27bbb     C7  802   7.845   8.081   6.008 -0.1783  0.2405 -0.0149
   27bbb    H13  803   7.742   8.113   5.985  0.2618 -0.4470 -3.4873
   27bbb    H14  804   7.885   8.148   6.086 -0.3012  0.3395 -0.0364
   27bbb     C8  805   8.231   8.513   6.028 -0.5139  0.0730 -0.0682
   27bbb    H15  806   8.262   8.533   6.132 -0.8172 -2.7374  0.6389
   27bbb    H16  807   8.127   8.548   6.024 -0.4005  1.0261  2.8149
   27bbb     C9  808   8.384   8.179   5.598  0.2648  0.5646  0.0845
   27bbb    H17  809   8.313   8.261   5.580  1.9736  2.1967  0.5168
   27bbb    H18  810   8.346   8.085   5.556  2.3114  0.8050 -2.5327
   27bbb     O1  811   7.864   7.939   6.041  0.0611 -0.3437  0.2066
   28bbb     N1  812   7.493   6.402   5.804 -0.0656 -0.6231  0.4574
   28bbb     C1  813   7.614   6.339   5.861  0.2667 -0.0198  0.2520
   28bbb     H1  814   7.588   6.283   5.952  0.8511 -0.6543  0.0479
   28bbb     H2  815   7.689   6.416   5.880  0.1604  0.4790 -1.2212
   28bbb     C2  816   7.387   6.317   5.748 -0.3067  0.5460  0.7874
   28bbb     H3  817   7.427   6.248   5.673  0.7690  2.2080 -0.2521
   28bbb     H4  818   7.319   6.381   5.690 -0.1728  0.6856  0.7817
   28bbb     C3  819   7.444   6.514   5.884 -0.4090 -0.4043  0.0822
   28bbb     H5  820   7.532   6.578   5.898  0.6351 -1.8750  0.4941
   28bbb     H6  821   7.414   6.494   5.987  0.3677 -1.0086  0.1984
   28bbb     C4  822   7.330   6.600   5.812  0.1223 -0.3752 -0.7069
   28bbb     H7  823   7.238   6.543   5.795  0.0699 -0.8573  1.0092
   28bbb     H8  824   7.360   6.647   5.718 -1.9564  1.8066 -0.3599
   28bbb     C5  825   7.677   6.231   5.769 -0.3007  0.2056  0.1680
   28bbb     H9  826   7.727   6.299   5.699 -0.4597  2.0515  1.7558
   28bbb    H10  827   7.603   6.160   5.730 -1.0765  0.6831  0.7397
   28bbb     C6  828   7.300   6.234   5.849 -1.0254  1.0324  0.5642
   28bbb    H11  829   7.250   6.304   5.918 -1.1576  0.3813  1.1337
   28bbb    H12  830   7.367   6.192   5.925  1.2724  1.3483 -1.1908
   28bbb     C7  831   7.291   6.705   5.916  0.0592  0.0544 -0.4367
   28bbb    H13  832   7.380   6.768   5.911  0.1512  0.3302  2.6003
   28bbb    H14  833   7.273   6.668   6.018  1.6112 -2.5277 -1.0051
   28bbb     C8  834   7.222   6.120   5.773  0.9096 -0.3937 -1.0269
   28bbb    H15  835   7.152   6.082   5.848  0.0041 -1.2927 -2.2933
   28bbb    H16  836   7.289   6.039   5.744  0.5870 -1.1359  0.2306
   28bbb     C9  837   7.788   6.156   5.844 -0.2092  0.0032 -0.2592
   28bbb    H17  838   7.872   6.217   5.879  0.9288 -2.3746  1.4580
   28bbb    H18  839   7.828   6.078   5.778  1.0215  0.4433 -0.0600
   28bbb     O1  840   7.182   6.774   5.860 -0.4830  0.8473  0.8063
   29bbb     N1  841   7.215   6.737   4.892 -0.5629 -0.3716 -0.7257
   29bbb     C1  842   7.337   6.679   4.824 -0.2618 -0.3042 -0.2297
   29bbb     H1  843   7.405   6.756   4.787 -0.1961 -1.3379 -2.4383
   29bbb     H2  844   7.302   6.637   4.729 -1.3594  1.7168 -0.7747
   29bbb     C2  845   7.114   6.641   4.943  0.6830  0.5773  0.5429
   29bbb     H3  846   7.029   6.699   4.979 -0.3383 -0.4549 -0.1367
   29bbb     H4  847   7.149   6.580   5.027 -0.7029 -1.1048 -0.0565
   29bbb     C3  848   7.250   6.821   5.015  0.3277  0.0733 -0.1449
   29bbb     H5  849   7.282   6.757   5.098 -2.5889 -1.1226  0.1998
   29bbb     H6  850   7.154   6.869   5.040 -1.2057 -1.7455 -2.0886
   29bbb     C4  851   7.348   6.936   4.972 -0.1039  0.5782 -0.0360
   29bbb     H7  852   7.331   6.975   4.871  1.2556 -1.5097 -1.1589
   29bbb     H8  853   7.451   6.897   4.969 -0.1620  0.4344 -2.4203
   29bbb     C5  854   7.416   6.583   4.923  0.4922 -0.8192  0.9020
   29bbb     H9  855   7.346   6.513   4.970 -2.2398  0.8096 -0.4903
   29bbb    H10  856   7.463   6.636   5.007  1.4665 -1.6454  0.8995
   29bbb     C6  857   7.047   6.550   4.841 -0.3681 -0.2586  0.5311
   29bbb    H11  858   6.986   6.471   4.888 -0.8675 -0.9084 -1.1099
   29bbb    H12  859   7.121   6.500   4.776  0.4013  1.3636  0.1235
   29bbb     C7  860   7.352   7.057   5.076 -0.6239  0.1239  0.2748
   29bbb    H13  861   7.251   7.101   5.073  0.4950  2.8397 -1.2835
   29bbb    H14  862   7.415   7.137   5.037 -0.3280 -0.9506 -1.5896
   29bbb     C8  863   6.962   6.636   4.745  0.3440  0.5177 -0.4524
   29bbb    H15  864   7.029   6.708   4.696 -1.0239  0.7993 -1.9833
   29bbb    H16  865   6.878   6.694   4.784 -0.1139 -0.3773 -0.0624
   29bbb     C9  866   7.530   6.508   4.850  0.2944 -0.6321  0.0020
   29bbb    H17  867   7.603   6.582   4.815  0.0532 -0.5172 -0.2499
   29bbb    H18  868   7.491   6.461   4.759 -0.9564 -1.0873  0.7541
   29bbb     O1  869   7.392   7.008   5.207 -0.2393 -0.5068  0.4889
   30bbb     N1  870   4.957   6.394   6.760  0.1328  0.4422  0.2051
   30bbb     C1  871   5.017   6.298   6.659  0.2601  0.5513 -0.7017
   30bbb     H1  872   5.101   6.251   6.713  0.6352  1.1302 -0.7656
   30bbb     H2  873   5.058   6.363   6.581 -0.6681  0.7338 -1.0437
   30bbb     C2  874   5.048   6.504   6.798 -0.5817  0.1340 -0.5472
   30bbb     H3  875   5.143   6.461   6.832 -0.4762  2.6488  2.9601
   30bbb     H4  876   5.010   6.568   6.879 -1.1499 -0.5929 -0.2267
   30bbb     C3  877   4.817   6.436   6.730 -0.2822 -0.5442  0.4420
   30bbb     H5  878   4.752   6.353   6.701  1.2373 -1.8015  0.5185
   30bbb     H6  879   4.811   6.496   6.639  1.7996 -1.3006 -0.2460
   30bbb     C4  880   4.748   6.520   6.847  0.0037 -0.0690 -0.5617
   30bbb     H7  881   4.793   6.620   6.853  1.8898 -0.8299 -1.1515
   30bbb     H8  882   4.776   6.466   6.939  0.8470  0.0459 -0.7437
   30bbb     C5  883   4.939   6.174   6.623 -0.3055  0.5206 -0.6310
   30bbb     H9  884   5.012   6.128   6.555  1.3436  2.8090 -0.5123
   30bbb    H10  885   4.850   6.209   6.570 -0.8608  0.5353  0.2934
   30bbb     C6  886   5.085   6.602   6.680  0.3307  0.0449 -0.5070
   30bbb    H11  887   4.999   6.623   6.615  0.5594 -0.9303 -1.1370
   30bbb    H12  888   5.163   6.564   6.613  1.3393  3.4307 -1.4792
   30bbb     C7  889   4.597   6.530   6.838  0.4955 -0.3967  0.1107
   30bbb    H13  890   4.550   6.544   6.936  3.6350 -0.6312  1.7785
   30bbb    H14  891   4.550   6.439   6.798 -2.1039  1.4515 -1.3145
   30bbb     C8  892   5.134   6.742   6.739  0.1943  0.1662  0.2029
   30bbb    H15  893   5.173   6.806   6.659 -0.9764 -0.3045 -0.7882
   30bbb    H16  894   5.213   6.719   6.811  0.6331 -0.5997 -0.5056
   30bbb     C9  895   4.895   6.080   6.742  0.2256 -0.4617  0.1658
   30bbb    H17  896   4.834   6.144   6.807  1.7228  1.6426 -0.4085
   30bbb    H18  897   4.979   6.051   6.806 -0.3841 -1.7631  0.4322
   30bbb     O1  898   4.577   6.645   6.749 -0.1218 -0.0463 -0.0091
   31bbb     N1  899   4.159   6.130   5.957  0.2934  0.3599  0.0026
   31bbb     C1  900   4.240   6.071   6.061 -0.0179  0.1290  0.0377
   31bbb     H1  901   4.224   6.129   6.152 -2.1717 -0.7572  0.2919
   31bbb     H2  902   4.343   6.068   6.025 -0.3866  1.6968 -1.2309
   31bbb     C2  903   4.147   6.058   5.826 -0.5155  0.2245  0.3536
   31bbb     H3  904   4.107   5.957   5.838 -0.3201 -0.3676 -3.0136
   31bbb     H4  905   4.245   6.048   5.779 -2.3077 -0.5884 -3.6727
   31bbb     C3  906   4.172   6.280   5.952  0.0979 -0.2730  0.0290
   31bbb     H5  907   4.193   6.324   6.051 -2.4453  1.8293 -0.2663
   31bbb     H6  908   4.082   6.328   5.910 -0.6955 -0.5739  1.3182
   31bbb     C4  909   4.292   6.323   5.862  0.3155  0.1565 -0.4251
   31bbb     H7  910   4.266   6.300   5.758 -0.7554  3.8482 -1.1200
   31bbb     H8  911   4.373   6.256   5.894 -0.9681 -0.9541  0.6056
   31bbb     C5  912   4.202   5.927   6.095  0.1452  0.1723 -0.1617
   31bbb     H9  913   4.226   5.861   6.011  1.3366 -1.6790  1.5390
   31bbb    H10  914   4.099   5.920   6.131  0.7020 -2.0953  1.1713
   31bbb     C6  915   4.041   6.113   5.735 -0.4434 -0.2569  0.3132
   31bbb    H11  916   4.072   6.214   5.706  2.7859 -1.1947  0.1840
   31bbb    H12  917   3.955   6.134   5.800 -2.2363 -0.0247 -1.9982
   31bbb     C7  918   4.315   6.470   5.872  0.1996 -0.6470  0.0091
   31bbb    H13  919   4.215   6.512   5.883 -0.0684 -1.4972  1.0671
   31bbb    H14  920   4.363   6.519   5.787  0.6643  1.7750  1.5448
   31bbb     C8  921   4.007   6.026   5.608 -0.8954 -0.6568  0.3175
   31bbb    H15  922   3.924   6.061   5.545  0.3329 -1.5460 -1.9057
   31bbb    H16  923   3.988   5.924   5.644  1.8761 -1.2667  0.2789
   31bbb     C9  924   4.292   5.886   6.220 -0.1379 -0.8790 -0.6845
   31bbb    H17  925   4.267   5.952   6.304  2.5185 -0.8730  0.2101
   31bbb    H18  926   4.396   5.909   6.194  0.0012  0.1667  0.6982
   31bbb     O1  927   4.377   6.507   5.994  0.1765  0.0832  0.2914
   32bbb     N1  928   3.423   7.574   7.299 -0.3500 -0.1031  0.1124
   32bbb     C1  929   3.290   7.543   7.234  0.0484  0.6151  0.3270
   32bbb     H1  930   3.309   7.523   7.128  0.3532  1.6106  0.1863
   32bbb     H2  931   3.218   7.625   7.245  0.1195  0.6558  0.4900
   32bbb     C2  932   3.488   7.700   7.256  0.4080  0.0729 -0.5971
   32bbb     H3  933   3.543   7.695   7.161  0.8331  0.0084 -0.3437
   32bbb     H4  934   3.571   7.726   7.322 -0.0122 -0.0077 -0.0355
   32bbb     C3  935   3.515   7.457   7.280 -0.5389 -0.1918 -0.4461
   32bbb     H5  936   3.515   7.423   7.176  3.7035 -0.2684 -0.5892
   32bbb     H6  937   3.471   7.368   7.327  0.3335 -0.0574  0.6725
   32bbb     C4  938   3.664   7.479   7.315 -0.0303 -0.3436 -0.4418
   32bbb     H7  939   3.677   7.537   7.407 -2.7802 -3.7338  2.3454
   32bbb     H8  940   3.721   7.527   7.234  2.0393  0.2808  1.2833
   32bbb     C5  941   3.211   7.422   7.288 -0.5160 -1.0292  0.3525
   32bbb     H9  942   3.162   7.441   7.384 -2.4645 -2.1982 -0.3611
   32bbb    H10  943   3.274   7.332   7.283  0.2495 -0.4481 -0.9779
   32bbb     C6  944   3.395   7.823   7.259  0.5563 -0.0490  0.0462
   32bbb    H11  945   3.348   7.830   7.358 -0.0094  0.4402 -0.2486
   32bbb    H12  946   3.311   7.812   7.189  1.8544 -0.1236 -1.5419
   32bbb     C7  947   3.715   7.337   7.339 -0.3145 -0.4793  0.2677
   32bbb    H13  948   3.708   7.269   7.253  1.0710 -0.7406  0.3423
   32bbb    H14  949   3.663   7.287   7.422  1.0034 -2.3095  0.0643
   32bbb     C8  950   3.466   7.955   7.218 -0.6187  0.1879 -1.2979
   32bbb    H15  951   3.479   7.954   7.109 -1.8659 -0.2579 -1.4639
   32bbb    H16  952   3.565   7.970   7.262 -1.8748  4.6832  0.4968
   32bbb     C9  953   3.092   7.389   7.193 -0.1045 -0.0117  0.2133
   32bbb    H17  954   3.025   7.330   7.257 -0.0252  1.7924  2.0519
   32bbb    H18  955   3.140   7.322   7.120  2.2320  2.6537 -0.9163
   32bbb     O1  956   3.849   7.359   7.379  0.0357  0.1098  0.1066
   33bbb     N1  957   4.027   6.876   7.702 -0.2477  0.5099  0.0677
   33bbb     C1  958   3.982   6.776   7.812  0.1057 -0.2002 -0.2090
   33bbb     H1  959   4.040   6.792   7.904  0.3159 -0.1300 -0.3525
   33bbb     H2  960   4.004   6.673   7.780 -3.2063 -1.8724  2.3241
   33bbb     C2  961   4.090   7.003   7.738  0.2572  0.0485 -0.0219
   33bbb     H3  962   4.137   7.039   7.646 -2.1097  0.4460 -1.1418
   33bbb     H4  963   4.159   6.989   7.822 -1.1187 -1.9064  0.8748
   33bbb     C3  964   3.958   6.867   7.569 -0.8045 -0.3185 -0.0748
   33bbb     H5  965   4.026   6.924   7.505  1.1950 -3.0399 -0.4918
   33bbb     H6  966   3.865   6.925   7.562 -0.7854 -0.3687 -0.7350
   33bbb     C4  967   3.961   6.717   7.511 -1.2810 -0.0242 -0.2413
   33bbb     H7  968   3.896   6.644   7.561 -1.1026  0.6669  1.0695
   33bbb     H8  969   4.063   6.677   7.510 -1.0303  0.5456  0.6529
   33bbb     C5  970   3.835   6.779   7.846 -0.1172  0.0118 -0.0808
   33bbb     H9  971   3.770   6.730   7.772  0.0406  0.4639 -0.5230
   33bbb    H10  972   3.804   6.884   7.849 -1.4833 -0.3021 -1.7662
   33bbb     C6  973   3.985   7.109   7.782  0.8811  0.0409  0.3031
   33bbb    H11  974   3.942   7.075   7.877 -0.8469  2.1553  0.3504
   33bbb    H12  975   3.905   7.103   7.708  0.1773 -1.7199  1.1523
   33bbb     C7  976   3.923   6.735   7.366  0.4505 -0.0848  0.0651
   33bbb    H13  977   3.828   6.789   7.376  1.4047  1.4684  1.2062
   33bbb    H14  978   3.912   6.635   7.321  1.3485 -1.2139  2.2197
   33bbb     C8  979   4.040   7.257   7.798 -0.3799  0.0952 -0.0148
   33bbb    H15  980   4.087   7.289   7.704 -1.0432 -1.7621 -1.0443
   33bbb    H16  981   4.125   7.259   7.868 -0.9697  2.9353  0.7354
   33bbb     C9  982   3.805   6.716   7.987  0.0553  0.0008 -0.0181
   33bbb    H17  983   3.874   6.768   8.054  0.5214 -2.4481  1.5227
   33bbb    H18  984   3.828   6.609   7.978  0.1259 -0.1031  1.1748
   33bbb     O1  985   4.022   6.815   7.292  0.3595  0.7275  0.3406
   34bbb     N1  986   5.763   8.542   7.981  0.0164  0.3094  0.7154
   34bbb     C1  987   5.904   8.575   7.947 -0.3025 -0.1769 -0.2300
   34bbb     H1  988   5.972   8.493   7.973  1.4104  0.3456 -2.6557
   34bbb     H2  989   5.931   8.661   8.010 -1.5854 -0.5795  0.9077
   34bbb     C2  990   5.755   8.503   8.119  0.5116  0.0326 -0.3890
   34bbb     H3  991   5.835   8.432   8.141 -0.9849 -0.9185  2.5947
   34bbb     H4  992   5.658   8.462   8.150  1.3062  0.0677  2.4515
   34bbb     C3  993   5.666   8.642   7.940 -0.8209 -0.4310 -0.4420
   34bbb     H5  994   5.677   8.664   7.833  2.7951 -2.1120 -0.5402
   34bbb     H6  995   5.682   8.736   7.994 -2.2381 -1.2006  1.4487
   34bbb     C4  996   5.520   8.594   7.956  0.3302  0.1109  0.2331
   34bbb     H7  997   5.456   8.667   7.905 -1.4596 -1.4923  0.0527
   34bbb     H8  998   5.477   8.588   8.057  0.1326 -2.3435  0.0719
   34bbb     C5  999   5.931   8.600   7.799  0.6031  0.0549  0.1520
   34bbb     H9 1000   6.037   8.627   7.786  0.4165  0.8793  0.2723
   34bbb    H10 1001   5.868   8.689   7.782  0.7977  0.6769  2.4499
   34bbb     C6 1002   5.786   8.625   8.218  0.3936 -0.2522  0.6494
   34bbb    H11 1003   5.720   8.711   8.201  1.0830  0.6796  2.4725
   34bbb    H12 1004   5.884   8.672   8.209 -0.1142  0.4465 -3.0553
   34bbb     C7 1005   5.493   8.465   7.871 -0.1763 -0.3371 -1.1009
   34bbb    H13 1006   5.561   8.383   7.899  0.4471 -0.1017 -1.8860
   34bbb    H14 1007   5.505   8.490   7.765 -0.6243 -0.6960 -1.2395
   34bbb     C8 1008   5.762   8.580   8.369 -0.7237  0.2573  0.5837
   34bbb    H15 1009   5.667   8.527   8.378 -1.0125  0.8531  1.1600
   34bbb    H16 1010   5.749   8.664   8.438 -1.7205 -0.2262  0.9988
   34bbb     C9 1011   5.894   8.482   7.705  0.4595 -0.3848  0.2406
   34bbb    H17 1012   5.788   8.457   7.709  0.5006 -0.4196  1.5623
   34bbb    H18 1013   5.952   8.390   7.722  1.8313  0.3176 -0.4668
   34bbb     O1 1014   5.357   8.430   7.902  0.3787  0.2351 -0.0798
   35bbb     N1 1015   5.080   8.421   9.028 -0.2691  1.3669  0.3899
   35bbb     C1 1016   5.223   8.448   9.045 -0.0325  0.0588  0.3484
   35bbb     H1 1017   5.246   8.555   9.033  0.7936 -0.2864 -1.4542
   35bbb     H2 1018   5.273   8.394   8.964 -2.1057 -1.7194  0.1839
   35bbb     C2 1019   5.020   8.288   9.069 -0.4044 -0.2398  0.2300
   35bbb     H3 1020   5.050   8.259   9.171  0.0506  0.3399  0.2656
   35bbb     H4 1021   5.069   8.217   9.001 -3.0272 -0.3880 -1.6368
   35bbb     C3 1022   5.022   8.482   8.905 -0.1132  0.0427 -0.2630
   35bbb     H5 1023   5.037   8.590   8.904  2.3254 -0.2455 -0.9273
   35bbb     H6 1024   4.914   8.468   8.897  0.0192 -1.1065 -0.3122
   35bbb     C4 1025   5.081   8.420   8.783 -0.7438 -0.1707 -0.2259
   35bbb     H7 1026   5.087   8.311   8.786 -0.8919 -0.1852 -0.4460
   35bbb     H8 1027   5.186   8.448   8.763 -0.5097  0.1528  1.3748
   35bbb     C5 1028   5.298   8.390   9.172  0.5865  0.2557  0.0469
   35bbb     H9 1029   5.224   8.394   9.253 -0.6692  2.3242 -1.1125
   35bbb    H10 1030   5.374   8.453   9.218  1.3774 -2.2023  2.3967
   35bbb     C6 1031   4.867   8.272   9.058 -0.0290  0.5913  0.7824
   35bbb    H11 1032   4.834   8.290   8.955 -1.1880 -0.4031  0.9618
   35bbb    H12 1033   4.821   8.350   9.120 -0.0411  0.2500  1.2093
   35bbb     C7 1034   4.992   8.459   8.662  0.9548  0.0312 -0.3133
   35bbb    H13 1035   5.010   8.565   8.639 -0.6421  0.7658  1.6380
   35bbb    H14 1036   4.886   8.455   8.688  0.7932  0.5937 -0.8673
   35bbb     C8 1037   4.825   8.131   9.103  0.1736  0.2834 -0.5042
   35bbb    H15 1038   4.827   8.134   9.212 -1.1868  1.9558 -0.4986
   35bbb    H16 1039   4.894   8.055   9.061 -1.7809 -2.2334  0.5795
   35bbb     C9 1040   5.349   8.241   9.158  0.1083  0.1766 -0.4521
   35bbb    H17 1041   5.432   8.230   9.088 -0.7678  0.7498 -1.5966
   35bbb    H18 1042   5.262   8.187   9.119  1.4585 -0.7612 -2.3132
   35bbb     O1 1043   5.019   8.370   8.554 -0.0930  0.1499 -0.1584
   36bbb     N1 1044   3.609   7.382   6.853 -0.4578 -0.2904  0.1521
   36bbb     C1 1045   3.509   7.356   6.746 -0.0941 -0.3265 -0.3646
   36bbb     H1 1046   3.538   7.268   6.687  2.5588  0.8654 -1.0002
   36bbb     H2 1047   3.521   7.442   6.678  1.7682 -0.4120 -0.2122
   36bbb     C2 1048   3.617   7.284   6.965  0.2868 -0.1373  0.4944
   36bbb     H3 1049   3.520   7.270   7.014  1.2262 -1.3649  2.0972
   36bbb     H4 1050   3.683   7.327   7.041  0.5768  1.4741 -0.6139
   36bbb     C3 1051   3.596   7.523   6.914  0.5197  0.0985 -0.5660
   36bbb     H5 1052   3.669   7.530   6.995  1.4949  1.1997 -1.5127
   36bbb     H6 1053   3.495   7.530   6.957  0.1646 -3.2708 -0.5567
   36bbb     C4 1054   3.633   7.645   6.828 -0.5604  0.5927 -0.0707
   36bbb     H7 1055   3.557   7.658   6.750 -0.6357  0.4993 -0.0127
   36bbb     H8 1056   3.729   7.622   6.782  0.2325  0.1213  1.7124
   36bbb     C5 1057   3.358   7.342   6.799 -0.6551 -0.1534 -0.1463
   36bbb     H9 1058   3.324   7.434   6.847 -0.2248 -1.2281  2.4296
   36bbb    H10 1059   3.355   7.258   6.870  1.3114  1.9610  2.6902
   36bbb     C6 1060   3.672   7.141   6.930  0.2393  0.3799  0.3615
   36bbb    H11 1061   3.760   7.157   6.866  0.1386  1.3674  0.4491
   36bbb    H12 1062   3.590   7.098   6.870 -0.0915  0.4102  0.7899
   36bbb     C7 1063   3.649   7.784   6.899 -0.1869 -0.1279 -0.3770
   36bbb    H13 1064   3.559   7.834   6.938  1.2031  1.9113  0.3811
   36bbb    H14 1065   3.690   7.859   6.830  1.4696  1.4096  2.1428
   36bbb     C8 1066   3.709   7.066   7.062 -0.4066 -0.2014 -0.4862
   36bbb    H15 1067   3.794   7.120   7.105 -0.3596 -0.0632 -0.7493
   36bbb    H16 1068   3.734   6.962   7.039 -0.6970 -0.5223  0.5762
   36bbb     C9 1069   3.273   7.307   6.676 -0.1346 -0.4359  0.4670
   36bbb    H17 1070   3.277   7.198   6.659 -1.8784 -0.5579  0.6485
   36bbb    H18 1071   3.316   7.347   6.583 -1.5836  0.3841  0.1103
   36bbb     O1 1072   3.738   7.773   7.011  0.1702 -0.2103  0.1882
   37bbb     N1 1073   4.491   7.364   7.626 -0.2776 -0.0059  0.1634
   37bbb     C1 1074   4.546   7.301   7.747  0.5820 -0.5058 -0.1971
   37bbb     H1 1075   4.556   7.376   7.827 -1.1277 -1.1535  0.6758
   37bbb     H2 1076   4.647   7.260   7.729  1.2666  0.8781  0.3794
   37bbb     C2 1077   4.512   7.282   7.502 -0.5492 -0.2017  0.0921
   37bbb     H3 1078   4.415   7.243   7.469 -0.1768 -0.8833 -0.2147
   37bbb     H4 1079   4.574   7.192   7.511  0.4450  0.6104  1.8728
   37bbb     C3 1080   4.368   7.444   7.627  0.1140 -0.1312 -0.1402
   37bbb     H5 1081   4.299   7.360   7.628  1.1565 -1.0430  1.7917
   37bbb     H6 1082   4.340   7.498   7.536  0.7213 -0.1333 -0.3339
   37bbb     C4 1083   4.358   7.542   7.748  0.1326 -0.5305  0.2675
   37bbb     H7 1084   4.462   7.561   7.775  1.1310 -2.7058 -1.7638
   37bbb     H8 1085   4.300   7.499   7.831 -1.5330 -1.5120 -1.3240
   37bbb     C5 1086   4.454   7.198   7.806 -0.6502  0.6137  0.0690
   37bbb     H9 1087   4.437   7.120   7.731  1.1331 -0.3500  0.6238
   37bbb    H10 1088   4.353   7.235   7.827 -1.1247  0.0212 -1.0323
   37bbb     C6 1089   4.571   7.358   7.378 -0.5953 -0.0186  0.1898
   37bbb    H11 1090   4.671   7.397   7.402 -1.1245  0.7901  1.1121
   37bbb    H12 1091   4.514   7.450   7.366 -0.9977 -0.5319 -2.3894
   37bbb     C7 1092   4.278   7.668   7.705 -0.9137  0.0610 -0.0585
   37bbb    H13 1093   4.350   7.719   7.640  0.8924 -0.1601  1.6630
   37bbb    H14 1094   4.254   7.733   7.789  0.0929  1.0811 -0.5416
   37bbb     C8 1095   4.578   7.270   7.247  0.2313  0.4855  0.4294
   37bbb    H15 1096   4.614   7.326   7.159 -0.5073  0.2153 -0.0555
   37bbb    H16 1097   4.477   7.246   7.213  0.6821  1.6454 -1.9898
   37bbb     C9 1098   4.510   7.123   7.931 -0.1342  0.0593  0.3625
   37bbb    H17 1099   4.428   7.082   7.991 -1.1304  0.1832 -0.8750
   37bbb    H18 1100   4.560   7.192   7.999  1.0191 -1.4362  1.0880
   37bbb     O1 1101   4.160   7.625   7.626 -0.0501  0.1699 -0.0843
   38bbb     N1 1102   5.576   7.923   8.857  0.0036  0.2822  0.5118
   38bbb     C1 1103   5.574   8.075   8.851  0.0849  0.9039 -0.4168
   38bbb     H1 1104   5.676   8.111   8.869  1.4154 -2.4574 -0.4792
   38bbb     H2 1105   5.508   8.120   8.926 -1.3882 -2.1990  0.3145
   38bbb     C2 1106   5.600   7.869   8.993  0.2705 -0.1122 -0.1622
   38bbb     H3 1107   5.600   7.759   8.983  0.2183 -0.1093 -0.1880
   38bbb     H4 1108   5.511   7.888   9.053 -0.9089  0.3843 -2.0135
   38bbb     C3 1109   5.658   7.874   8.742 -0.2304 -0.2919  0.3439
   38bbb     H5 1110   5.754   7.928   8.748 -0.6789  0.3652  2.3060
   38bbb     H6 1111   5.603   7.886   8.648 -1.0832  0.0237  0.8771
   38bbb     C4 1112   5.690   7.729   8.745  0.2512  0.5379  0.1841
   38bbb     H7 1113   5.740   7.707   8.840 -0.9688  0.7058  0.8771
   38bbb     H8 1114   5.770   7.703   8.673  0.6760  0.9909  0.4856
   38bbb     C5 1115   5.523   8.135   8.719 -0.3308  0.7277  0.1584
   38bbb     H9 1116   5.458   8.061   8.670  1.0072 -1.0704  1.0055
   38bbb    H10 1117   5.612   8.134   8.656 -0.1080  2.2652  0.4120
   38bbb     C6 1118   5.725   7.920   9.075  0.3377  0.0833 -0.4816
   38bbb    H11 1119   5.824   7.920   9.027  2.1065  0.8231  2.8495
   38bbb    H12 1120   5.743   7.840   9.148 -0.1796  0.8718  0.5473
   38bbb     C7 1121   5.566   7.632   8.731 -0.0774  0.5245 -0.2845
   38bbb    H13 1122   5.480   7.677   8.782 -0.6770 -1.0738  0.1743
   38bbb    H14 1123   5.591   7.540   8.785  0.6025  0.9977  0.2310
   38bbb     C8 1124   5.705   8.060   9.151  0.0771 -0.5051 -0.0583
   38bbb    H15 1125   5.620   8.071   9.220  1.1793  0.4824  1.1981
   38bbb    H16 1126   5.687   8.133   9.071 -0.1578 -0.4921  0.0055
   38bbb     C9 1127   5.463   8.273   8.732  0.1679 -0.0595 -0.4695
   38bbb    H17 1128   5.373   8.274   8.795 -0.4654  0.6611 -1.3590
   38bbb    H18 1129   5.428   8.298   8.630  0.1329  0.8033 -0.2478
   38bbb     O1 1130   5.533   7.609   8.597  0.5175 -0.1077  0.1030
   39bbb     N1 1131   5.168   7.663   9.086  0.0815  0.5176  0.5589
   39bbb     C1 1132   5.087   7.705   9.208  0.2435 -0.4092  0.7671
   39bbb     H1 1133   5.134   7.794   9.251 -0.8027 -0.4049  1.9375
   39bbb     H2 1134   5.084   7.627   9.285 -1.2289 -1.4063 -0.2472
   39bbb     C2 1135   5.151   7.524   9.050 -0.0255 -0.0929  0.1599
   39bbb     H3 1136   5.057   7.507   8.997 -0.6474 -0.5179  1.3627
   39bbb     H4 1137   5.151   7.461   9.140  1.1246 -0.2831  0.0435
   39bbb     C3 1138   5.155   7.750   8.968 -0.2736  0.0354 -1.0380
   39bbb     H5 1139   5.054   7.753   8.926 -1.0792 -3.0624  0.4397
   39bbb     H6 1140   5.217   7.709   8.887 -0.8354 -0.8955 -1.0037
   39bbb     C4 1141   5.207   7.889   8.991 -0.2041  0.1428 -0.0655
   39bbb     H7 1142   5.298   7.887   9.052 -1.0758 -0.8292  1.2391
   39bbb     H8 1143   5.141   7.956   9.047 -1.4477  0.1630 -1.4881
   39bbb     C5 1144   4.942   7.741   9.176  0.0019 -0.2585  0.4192
   39bbb     H9 1145   4.895   7.660   9.120 -1.9316  1.6304 -0.8517
   39bbb    H10 1146   4.929   7.828   9.110 -0.9347 -2.0446 -1.8810
   39bbb     C6 1147   5.275   7.474   8.966  0.0387 -0.3803 -0.2999
   39bbb    H11 1148   5.357   7.547   8.975  0.3066 -0.4458 -1.9947
   39bbb    H12 1149   5.238   7.478   8.863 -1.0648 -3.1704 -0.0914
   39bbb     C7 1150   5.237   7.965   8.858 -0.7910 -0.5485 -0.9633
   39bbb    H13 1151   5.324   7.923   8.807  2.4187  2.1098  1.8302
   39bbb    H14 1152   5.277   8.060   8.896 -0.5260 -1.1583  0.3482
   39bbb     C8 1153   5.340   7.345   9.016  0.1347  1.8915 -0.2045
   39bbb    H15 1154   5.267   7.262   9.012  1.7437  0.4572 -1.3476
   39bbb    H16 1155   5.382   7.359   9.116 -0.2707  1.5272  0.0230
   39bbb     C9 1156   4.860   7.756   9.310  0.8796  0.1027  0.7548
   39bbb    H17 1157   4.883   7.673   9.378  2.6719  0.4627  0.6391
   39bbb    H18 1158   4.751   7.748   9.298  0.6111  0.6318  2.4535
   39bbb     O1 1159   5.119   7.974   8.774 -0.1418  0.3606 -0.4444
   40bbb     N1 1160   5.599   8.547   6.672 -0.2171 -0.4377 -0.3448
   40bbb     C1 1161   5.609   8.559   6.528  0.0197  0.3851 -0.7415
   40bbb     H1 1162   5.628   8.663   6.500 -0.5429  1.5555  2.7478
   40bbb     H2 1163   5.506   8.538   6.496 -0.0399  0.7492 -0.7841
   40bbb     C2 1164   5.546   8.670   6.739  0.6362 -1.0725  0.1299
   40bbb     H3 1165   5.438   8.670   6.722  0.8657  0.6785 -1.6419
   40bbb     H4 1166   5.580   8.764   6.695  1.6325 -1.6399 -0.3498
   40bbb     C3 1167   5.539   8.418   6.722 -0.7148 -0.6032 -0.4179
   40bbb     H5 1168   5.572   8.411   6.826  3.1418 -1.1856 -1.4958
   40bbb     H6 1169   5.595   8.334   6.678  1.1045  1.0868 -1.5079
   40bbb     C4 1170   5.390   8.395   6.691 -0.5539  0.5196 -0.2450
   40bbb     H7 1171   5.379   8.370   6.585  0.1539 -0.4584 -0.1058
   40bbb     H8 1172   5.335   8.490   6.695 -0.5786  0.5726 -1.6654
   40bbb     C5 1173   5.702   8.465   6.454  0.2921  0.3587  0.3124
   40bbb     H9 1174   5.681   8.471   6.346 -0.2621 -2.0964  0.2224
   40bbb    H10 1175   5.677   8.361   6.478 -2.0072  0.4468 -1.3350
   40bbb     C6 1176   5.583   8.696   6.886  0.7514  0.3043  0.4989
   40bbb    H11 1177   5.692   8.687   6.893  0.9487 -2.4652 -2.9541
   40bbb    H12 1178   5.544   8.609   6.940 -2.1594  2.4971  2.2745
   40bbb     C7 1179   5.320   8.286   6.768  0.4979  0.6540  0.1490
   40bbb    H13 1180   5.378   8.193   6.757  1.8928  1.7599 -3.2241
   40bbb    H14 1181   5.221   8.277   6.723  0.2403 -1.1161  0.9796
   40bbb     C8 1182   5.514   8.823   6.944 -0.5829 -0.2102 -0.3917
   40bbb    H15 1183   5.562   8.850   7.040  1.8870  2.0591 -2.1105
   40bbb    H16 1184   5.409   8.798   6.958 -0.7867  0.6360 -0.3693
   40bbb     C9 1185   5.848   8.486   6.478 -0.4196  0.2371  0.2194
   40bbb    H17 1186   5.899   8.404   6.427 -1.0201 -1.6313  2.4425
   40bbb    H18 1187   5.864   8.463   6.584  0.9144 -2.0785 -0.4218
   40bbb     O1 1188   5.323   8.335   6.905 -0.2220  0.1155  0.0543
   41bbb     N1 1189   5.024   8.877   6.758  0.5644 -0.3148 -0.1430
   41bbb     C1 1190   5.161   8.901   6.704  0.0641 -0.3854  0.4486
   41bbb     H1 1191   5.223   8.816   6.735 -1.6468 -1.5905  0.7213
   41bbb     H2 1192   5.195   8.993   6.754 -0.7771 -1.6174  3.5128
   41bbb     C2 1193   4.954   8.764   6.693 -0.6667  0.3500 -0.7873
   41bbb     H3 1194   4.918   8.791   6.592 -1.7088  0.4877 -0.3898
   41bbb     H4 1195   4.861   8.751   6.749 -0.7969  0.8311 -0.8892
   41bbb     C3 1196   5.025   8.864   6.905 -0.0067 -0.2712 -0.1774
   41bbb     H5 1197   5.090   8.785   6.944  0.4201  0.9935  1.8431
   41bbb     H6 1198   4.927   8.825   6.936  0.1475  0.2674  1.0544
   41bbb     C4 1199   5.056   8.996   6.985  0.3395  0.3585 -0.0421
   41bbb     H7 1200   4.971   9.063   6.970 -0.6222 -0.9753 -0.8142
   41bbb     H8 1201   5.143   9.056   6.956 -1.6303  2.1071 -2.8353
   41bbb     C5 1202   5.163   8.919   6.549  0.1459 -0.1180 -0.0342
   41bbb     H9 1203   5.085   8.992   6.521  0.2947  0.5050  1.1285
   41bbb    H10 1204   5.141   8.824   6.498 -0.0135  0.0050 -0.1988
   41bbb     C6 1205   5.028   8.628   6.695 -0.0584 -0.3602  0.3477
   41bbb    H11 1206   5.046   8.583   6.794  0.7418 -2.1024 -0.5409
   41bbb    H12 1207   5.126   8.641   6.648 -0.5195  1.4718 -0.1656
   41bbb     C7 1208   5.056   8.965   7.136 -0.2463  0.3111  0.2707
   41bbb    H13 1209   4.958   8.924   7.164 -0.5158  0.8910  0.2050
   41bbb    H14 1210   5.060   9.062   7.186  5.2995  0.0422  0.9375
   41bbb     C8 1211   4.956   8.523   6.615  0.3493  0.8081 -0.2182
   41bbb    H15 1212   5.022   8.437   6.598  2.9800  2.6224  0.3509
   41bbb    H16 1213   4.941   8.550   6.510  0.2706 -0.5736 -0.5879
   41bbb     C9 1214   5.309   8.957   6.505  0.3230  0.5169  0.4885
   41bbb    H17 1215   5.373   8.884   6.556 -2.3586 -3.5777 -1.4637
   41bbb    H18 1216   5.326   9.061   6.534 -0.0639  0.4747  0.8726
   41bbb     O1 1217   5.168   8.881   7.183 -0.1069  0.2783 -0.1337
   42bbb     N1 1218   7.639   6.776   6.263 -0.3635  0.0064 -0.4189
   42bbb     C1 1219   7.577   6.911   6.283 -0.2972  0.5501  0.2368
   42bbb     H1 1220   7.638   6.986   6.230 -0.4582  1.4776  1.3163
   42bbb     H2 1221   7.583   6.953   6.384 -0.6190 -1.3564  1.0856
   42bbb     C2 1222   7.662   6.733   6.124  0.5058 -0.6337  0.3888
   42bbb     H3 1223   7.565   6.746   6.074  1.2290  0.6960 -0.7585
   42bbb     H4 1224   7.699   6.631   6.131 -2.5408 -1.8857 -0.1499
   42bbb     C3 1225   7.755   6.755   6.352  0.5230 -0.3089  0.3777
   42bbb     H5 1226   7.840   6.814   6.316 -1.2660  2.1411 -0.0882
   42bbb     H6 1227   7.765   6.646   6.356 -0.1310 -0.3613  0.6846
   42bbb     C4 1228   7.739   6.788   6.507  0.2858 -0.9903  0.7183
   42bbb     H7 1229   7.720   6.895   6.521 -0.8466 -1.5236  4.1179
   42bbb     H8 1230   7.830   6.767   6.563  1.1698  1.7318  0.4482
   42bbb     C5 1231   7.427   6.914   6.247 -0.3113 -0.0904  0.3256
   42bbb     H9 1232   7.419   6.939   6.141 -0.0470  1.3807  0.6335
   42bbb    H10 1233   7.372   6.993   6.300 -0.2930 -0.5773  1.0824
   42bbb     C6 1234   7.770   6.818   6.042  0.7384 -0.3371 -0.2378
   42bbb    H11 1235   7.858   6.814   6.108 -0.3479  2.0826  1.4839
   42bbb    H12 1236   7.746   6.924   6.032 -1.7252 -1.0017 -2.4878
   42bbb     C7 1237   7.619   6.706   6.563  0.5097 -0.0149 -0.0483
   42bbb    H13 1238   7.635   6.599   6.544  0.5163 -0.0133 -0.0545
   42bbb    H14 1239   7.526   6.730   6.510  0.0037  1.1794  1.3160
   42bbb     C8 1240   7.811   6.768   5.894  0.2215 -0.2553 -0.4411
   42bbb    H15 1241   7.815   6.658   5.890  1.9973 -0.2896  0.9553
   42bbb    H16 1242   7.912   6.809   5.878  1.5379 -2.0928  2.3735
   42bbb     C9 1243   7.346   6.784   6.282 -0.6788  0.7766  0.9416
   42bbb    H17 1244   7.381   6.742   6.377  1.4312 -2.2207 -0.9890
   42bbb    H18 1245   7.376   6.714   6.203  0.5870  0.8627  1.3315
   42bbb     O1 1246   7.611   6.725   6.712 -0.2420 -0.2231 -0.5246
   43bbb     N1 1247   6.896   6.247   6.862 -0.2851  0.2802  0.0240
   43bbb     C1 1248   7.047   6.247   6.842  0.3492 -0.6367 -0.1585
   43bbb     H1 1249   7.086   6.277   6.743  3.0099 -0.5720  0.8199
   43bbb     H2 1250   7.078   6.142   6.847  0.5412 -0.5250  1.7469
   43bbb     C2 1251   6.832   6.121   6.812  0.2608 -0.9010 -0.1316
   43bbb     H3 1252   6.906   6.041   6.826 -0.2155 -1.3433 -0.1178
   43bbb     H4 1253   6.822   6.124   6.703  1.8404 -2.7919 -0.4012
   43bbb     C3 1254   6.830   6.379   6.835 -0.3590 -0.1938  0.3341
   43bbb     H5 1255   6.887   6.461   6.882 -0.6037  1.5479 -2.2126
   43bbb     H6 1256   6.725   6.380   6.864 -0.4482 -0.6217  0.0386
   43bbb     C4 1257   6.820   6.399   6.683 -0.7489 -0.3327  0.8109
   43bbb     H7 1258   6.762   6.318   6.637  1.3037 -1.2638 -0.2344
   43bbb     H8 1259   6.922   6.391   6.646 -1.2418  0.9075 -0.9547
   43bbb     C5 1260   7.130   6.312   6.950  0.3517 -0.4078  0.1347
   43bbb     H9 1261   7.130   6.236   7.029 -1.4970  1.5738  2.1857
   43bbb    H10 1262   7.071   6.391   6.999 -1.8660 -2.5900  1.1847
   43bbb     C6 1263   6.693   6.098   6.872  0.2877 -0.0193  0.0308
   43bbb    H11 1264   6.611   6.150   6.821  0.3955  0.2176  0.0987
   43bbb    H12 1265   6.691   6.125   6.978  0.0066  0.0286  0.0143
   43bbb     C7 1266   6.772   6.541   6.654  0.1988 -0.4039  0.3454
   43bbb    H13 1267   6.669   6.540   6.693  0.8319 -0.4644  2.1223
   43bbb    H14 1268   6.770   6.554   6.546 -2.5977  1.0861  0.4951
   43bbb     C8 1269   6.658   5.949   6.863 -0.0942  0.8483  0.4325
   43bbb    H15 1270   6.558   5.944   6.906  0.1494  1.3053  1.0793
   43bbb    H16 1271   6.727   5.891   6.926  0.5106  2.0644  0.9369
   43bbb     C9 1272   7.272   6.361   6.908 -0.1641  0.2120 -0.1498
   43bbb    H17 1273   7.304   6.404   7.004 -0.4921  0.2850 -0.0713
   43bbb    H18 1274   7.268   6.441   6.834  0.9822  1.3052  0.9258
   43bbb     O1 1275   6.849   6.640   6.724 -0.3014 -0.7496  0.2897
   44bbb     N1 1276   7.934   8.958   6.376 -0.3572  0.1147  0.1541
   44bbb     C1 1277   8.018   8.900   6.264 -0.4174  0.2476 -0.6417
   44bbb     H1 1278   8.070   8.989   6.227  4.5289 -0.6495  3.0952
   44bbb     H2 1279   7.955   8.857   6.185 -0.4053  0.7395 -0.9199
   44bbb     C2 1280   8.007   9.029   6.479 -0.9035 -0.0604  0.0934
   44bbb     H3 1281   8.087   8.963   6.515 -1.0466 -0.6869 -0.7054
   44bbb     H4 1282   7.940   9.048   6.563 -1.3514  1.2356 -0.5263
   44bbb     C3 1283   7.844   8.854   6.435 -0.1495 -0.5061 -0.3811
   44bbb     H5 1284   7.792   8.895   6.522 -1.7051 -0.6439 -1.2143
   44bbb     H6 1285   7.906   8.774   6.479  1.0366 -0.2038 -1.4331
   44bbb     C4 1286   7.741   8.797   6.339  0.5339 -0.1489  0.1390
   44bbb     H7 1287   7.787   8.700   6.313  0.4364 -0.6874  1.8652
   44bbb     H8 1288   7.736   8.867   6.254  0.7762  1.0836  1.1233
   44bbb     C5 1289   8.124   8.794   6.307 -0.6562  0.5991 -0.1750
   44bbb     H9 1290   8.106   8.699   6.255 -1.6061 -1.0649  2.8891
   44bbb    H10 1291   8.112   8.766   6.413  1.9854 -0.7460 -0.1611
   44bbb     C6 1292   8.068   9.167   6.435  0.3864  0.5367 -0.2099
   44bbb    H11 1293   7.991   9.232   6.392 -0.3123  0.2944  0.6304
   44bbb    H12 1294   8.134   9.148   6.350 -1.6248  0.3182 -1.8046
   44bbb     C7 1295   7.597   8.779   6.393  0.0240 -0.1081  0.2138
   44bbb    H13 1296   7.533   8.760   6.306  1.5889  0.1488 -1.0229
   44bbb    H14 1297   7.573   8.869   6.450 -0.6623 -0.6688  0.8382
   44bbb     C8 1298   8.146   9.237   6.554 -0.0886  0.3645  0.0546
   44bbb    H15 1299   8.093   9.211   6.646 -1.6235 -0.3357 -0.9887
   44bbb    H16 1300   8.146   9.347   6.555 -0.1292  0.3623  1.0403
   44bbb     C9 1301   8.259   8.859   6.289  0.3949  0.6357 -0.0513
   44bbb    H17 1302   8.271   8.933   6.369 -1.2497 -1.9791  2.8092
   44bbb    H18 1303   8.246   8.912   6.194 -1.4609  0.3453 -0.0012
   44bbb     O1 1304   7.593   8.672   6.490  0.0159 -0.4396  0.1548
   45bbb     N1 1305   7.812   8.654   7.048  0.6699  0.6299  0.5676
   45bbb     C1 1306   7.816   8.796   7.000 -0.3071  0.5958 -0.0153
   45bbb     H1 1307   7.921   8.827   7.012 -0.0724 -0.5616  1.2743
   45bbb     H2 1308   7.759   8.858   7.071 -1.8601 -0.1582 -0.5696
   45bbb     C2 1309   7.682   8.580   7.020  0.4352  0.4089 -0.5693
   45bbb     H3 1310   7.685   8.484   7.073  2.5176  0.5105 -0.4357
   45bbb     H4 1311   7.669   8.554   6.914  3.3274  1.7416 -1.3603
   45bbb     C3 1312   7.937   8.589   7.003 -0.4715  0.1386  0.2561
   45bbb     H5 1313   8.016   8.652   7.046  0.6417 -0.9359 -0.1611
   45bbb     H6 1314   7.937   8.584   6.893 -2.0300 -1.6475  0.2863
   45bbb     C4 1315   7.954   8.446   7.062  0.4067  0.7222 -0.2179
   45bbb     H7 1316   7.870   8.418   7.126 -1.1589  1.6281 -1.7845
   45bbb     H8 1317   8.040   8.449   7.130 -1.0590  0.5759  1.6896
   45bbb     C5 1318   7.783   8.822   6.864  0.1192  0.0084  0.0125
   45bbb     H9 1319   7.681   8.787   6.844  0.3242 -0.4473 -0.2601
   45bbb    H10 1320   7.849   8.761   6.800  1.0931  0.4194  0.6089
   45bbb     C6 1321   7.559   8.650   7.078 -0.0558  0.1951 -0.0249
   45bbb    H11 1322   7.542   8.742   7.021 -0.1892  0.4181  0.3716
   45bbb    H12 1323   7.577   8.681   7.182 -0.1160  1.9402 -0.5049
   45bbb     C7 1324   7.968   8.336   6.960  0.6569 -0.7343 -0.1359
   45bbb    H13 1325   7.933   8.241   7.003  0.2383 -0.1012  0.9706
   45bbb    H14 1326   8.073   8.330   6.931  0.9689 -0.0559  0.8216
   45bbb     C8 1327   7.429   8.567   7.079  0.0635 -0.8664  0.1817
   45bbb    H15 1328   7.395   8.571   6.975 -1.6606  0.9005  0.7550
   45bbb    H16 1329   7.357   8.628   7.135  0.2408  0.9798 -1.4997
   45bbb     C9 1330   7.808   8.972   6.814  0.0893 -0.0884 -0.0090
   45bbb    H17 1331   7.762   8.986   6.715  1.4353 -0.4958 -0.7147
   45bbb    H18 1332   7.916   8.987   6.811 -0.0425  0.8400 -2.1772
   45bbb     O1 1333   7.893   8.368   6.845  0.0743  0.1880  0.8980
   46bbb     N1 1334   7.423   5.418   6.420 -0.0568 -0.9563  0.3118
   46bbb     C1 1335   7.325   5.303   6.415  0.8207  0.3185 -0.0488
   46bbb     H1 1336   7.369   5.209   6.450 -3.0959 -1.6199  0.2681
   46bbb     H2 1337   7.305   5.289   6.308  3.5067  0.5421 -0.6582
   46bbb     C2 1338   7.486   5.445   6.555 -0.0324 -0.0563  0.9975
   46bbb     H3 1339   7.409   5.473   6.628  1.2360  0.8575  2.0336
   46bbb     H4 1340   7.560   5.527   6.551 -0.6836  0.6941  3.0465
   46bbb     C3 1341   7.378   5.544   6.360  0.1852  0.1963 -0.6019
   46bbb     H5 1342   7.452   5.617   6.395 -0.8314 -0.0903  2.4126
   46bbb     H6 1343   7.283   5.582   6.399  0.4206  1.3566 -1.1054
   46bbb     C4 1344   7.380   5.548   6.204 -0.1043 -0.3354 -0.0364
   46bbb     H7 1345   7.282   5.513   6.170 -1.2566  2.8476 -0.2699
   46bbb     H8 1346   7.457   5.478   6.169 -0.4365  0.4347 -2.4643
   46bbb     C5 1347   7.196   5.316   6.490  0.4708 -0.0193 -0.3193
   46bbb     H9 1348   7.165   5.421   6.481 -1.7590 -0.6476 -0.6564
   46bbb    H10 1349   7.218   5.296   6.595 -0.3781 -1.4927 -0.4003
   46bbb     C6 1350   7.550   5.322   6.616 -0.1800  0.7019  0.2114
   46bbb    H11 1351   7.639   5.298   6.556 -1.0408 -2.1485 -0.0666
   46bbb    H12 1352   7.482   5.237   6.619  1.1613 -0.4664 -0.9889
   46bbb     C7 1353   7.406   5.685   6.140 -0.1917  0.7204 -0.4079
   46bbb    H13 1354   7.420   5.668   6.033  5.4398 -0.2980  0.1845
   46bbb    H14 1355   7.503   5.730   6.165  0.0572  0.0951 -0.2427
   46bbb     C8 1356   7.598   5.366   6.760  0.0294 -0.5079  0.6802
   46bbb    H15 1357   7.510   5.406   6.812 -0.2202 -1.4104  0.9644
   46bbb    H16 1358   7.678   5.442   6.761 -1.1250  0.8424 -1.5854
   46bbb     C9 1359   7.083   5.225   6.444 -0.0400  0.5176  0.1105
   46bbb    H17 1360   7.073   5.222   6.335 -0.7854 -1.1237  0.1998
   46bbb    H18 1361   6.982   5.253   6.473 -0.1742 -0.1151  0.2576
   46bbb     O1 1362   7.295   5.778   6.163  0.5300  0.3217  0.0779
   47bbb     N1 1363   7.897   6.302   6.480 -0.1552  0.3587 -0.4572
   47bbb     C1 1364   7.976   6.415   6.417  0.4930 -0.3327 -0.6590
   47bbb     H1 1365   8.025   6.471   6.498 -1.5059  1.9016 -0.8840
   47bbb     H2 1366   7.910   6.489   6.369 -0.1726 -1.6442 -1.8223
   47bbb     C2 1367   7.961   6.255   6.606  0.6424 -0.4818 -0.1268
   47bbb     H3 1368   7.887   6.213   6.676  2.3644 -2.3054  0.7198
   47bbb     H4 1369   8.002   6.339   6.664 -0.3039 -0.4432  0.5176
   47bbb     C3 1370   7.754   6.326   6.504 -0.7657 -0.7719  0.3181
   47bbb     H5 1371   7.743   6.419   6.560 -1.7013 -2.4162  3.0302
   47bbb     H6 1372   7.707   6.249   6.566 -0.5730 -1.5349 -0.4626
   47bbb     C4 1373   7.677   6.328   6.361  0.1766 -0.8099 -0.3283
   47bbb     H7 1374   7.689   6.228   6.316  1.7314 -0.0185 -1.7661
   47bbb     H8 1375   7.726   6.403   6.298 -1.8556 -0.7282 -1.9094
   47bbb     C5 1376   8.083   6.372   6.321 -0.1622 -0.7434 -0.3328
   47bbb     H9 1377   8.026   6.360   6.228 -1.1899 -0.5559  0.2611
   47bbb    H10 1378   8.127   6.276   6.349  0.9427  0.1946  1.2889
   47bbb     C6 1379   8.064   6.141   6.594 -0.4489 -0.2438 -0.2438
   47bbb    H11 1380   8.162   6.182   6.568 -0.0804  0.0429  1.5286
   47bbb    H12 1381   8.032   6.066   6.520 -1.7476  1.8989 -1.9687
   47bbb     C7 1382   7.528   6.368   6.371 -0.3444 -0.0565  0.3633
   47bbb    H13 1383   7.477   6.359   6.274 -0.2528 -1.8638  0.4509
   47bbb    H14 1384   7.518   6.471   6.409 -0.1073 -0.5442  1.8001
   47bbb     C8 1385   8.082   6.057   6.725  0.2341 -0.0451  0.4805
   47bbb    H15 1386   8.113   6.131   6.799 -0.0681  1.1762 -0.5775
   47bbb    H16 1387   8.165   5.985   6.719  0.6102  0.4278 -0.1689
   47bbb     C9 1388   8.203   6.474   6.307 -0.8491 -0.7786 -0.2874
   47bbb    H17 1389   8.289   6.427   6.259 -1.2453  0.4987 -2.3762
   47bbb    H18 1390   8.231   6.509   6.407 -0.6091  0.1773 -0.6797
   47bbb     O1 1391   7.453   6.284   6.462  0.9504  0.9442  0.0857
   48bbb     N1 1392   6.516   7.073   4.291 -1.1992 -0.0976  0.1646
   48bbb     C1 1393   6.622   7.121   4.188 -0.3212 -0.5209  0.1136
   48bbb     H1 1394   6.707   7.052   4.193  0.6377  0.6359  0.2709
   48bbb     H2 1395   6.663   7.222   4.203  2.9157 -1.7412  0.3141
   48bbb     C2 1396   6.386   7.138   4.267  0.1173  0.4352 -0.6482
   48bbb     H3 1397   6.366   7.138   4.159 -2.0741  3.4198 -0.3676
   48bbb     H4 1398   6.381   7.243   4.298  0.4070  1.0187 -2.4717
   48bbb     C3 1399   6.560   7.082   4.432  0.3804  0.1922 -0.4556
   48bbb     H5 1400   6.486   7.043   4.503 -0.1727 -3.1398 -2.6357
   48bbb     H6 1401   6.597   7.184   4.448  0.7593  0.1846 -1.2233
   48bbb     C4 1402   6.679   6.975   4.460 -0.2379  0.2520 -0.1917
   48bbb     H7 1403   6.756   6.981   4.383  1.4796 -0.6198  1.4006
   48bbb     H8 1404   6.635   6.875   4.455 -1.2711  0.6042  1.2187
   48bbb     C5 1405   6.592   7.105   4.038 -1.2540  0.1902 -0.6041
   48bbb     H9 1406   6.688   7.136   3.994 -0.9339  1.9701  1.2507
   48bbb    H10 1407   6.511   7.175   4.013 -1.7946 -0.5997 -1.1506
   48bbb     C6 1408   6.274   7.064   4.347  0.5421 -0.4968  0.3004
   48bbb    H11 1409   6.180   7.102   4.306  0.6386  0.3536  0.8555
   48bbb    H12 1410   6.274   7.098   4.451 -0.0798  0.8078 -0.1120
   48bbb     C7 1411   6.733   6.989   4.606 -0.5257  0.0291  0.1020
   48bbb    H13 1412   6.720   7.095   4.630 -0.8079  0.0488 -0.1299
   48bbb    H14 1413   6.837   6.956   4.610 -1.2574 -2.9630 -1.5935
   48bbb     C8 1414   6.280   6.911   4.343  0.2702  0.2783 -0.5243
   48bbb    H15 1415   6.375   6.874   4.383  0.1465 -1.3254 -1.6351
   48bbb    H16 1416   6.266   6.879   4.239 -4.0789 -0.3066  0.0390
   48bbb     C9 1417   6.558   6.956   3.995  0.6072  0.0195  0.2521
   48bbb    H17 1418   6.461   6.943   4.045  0.8154  2.3280  1.4072
   48bbb    H18 1419   6.625   6.881   4.038  0.2113  0.8626  2.4766
   48bbb     O1 1420   6.664   6.906   4.709 -0.3827  0.0590  0.1308
   49bbb     N1 1421   5.841   6.363   4.294 -0.7289 -0.0228  0.0633
   49bbb     C1 1422   5.789   6.489   4.226  0.2283  0.2814 -0.4736
   49bbb     H1 1423   5.754   6.540   4.317  2.3847 -0.1400  0.6627
   49bbb     H2 1424   5.699   6.465   4.169  0.7101 -0.6513 -0.8552
   49bbb     C2 1425   5.911   6.259   4.205  0.3085  0.2692  0.1842
   49bbb     H3 1426   5.940   6.171   4.264 -0.5583 -0.8879 -1.0316
   49bbb     H4 1427   5.995   6.298   4.146  2.3966 -1.3994  1.8732
   49bbb     C3 1428   5.923   6.395   4.414 -0.1011  0.1090  0.4841
   49bbb     H5 1429   5.862   6.464   4.473 -1.6777 -1.4390  0.7554
   49bbb     H6 1430   6.009   6.451   4.374  0.9970 -2.3169 -0.8134
   49bbb     C4 1431   5.972   6.277   4.497 -0.0780  0.0061 -0.8029
   49bbb     H7 1432   6.053   6.217   4.451  0.3769 -0.1981  0.2397
   49bbb     H8 1433   5.893   6.203   4.514  1.0539 -0.9912  0.3031
   49bbb     C5 1434   5.888   6.576   4.146 -0.5389  0.2661 -0.1320
   49bbb     H9 1435   5.938   6.512   4.072 -1.0924  0.3449 -0.5831
   49bbb    H10 1436   5.974   6.609   4.206  0.6359 -0.5253 -1.3285
   49bbb     C6 1437   5.807   6.199   4.102  0.2904  0.1418 -0.2633
   49bbb    H11 1438   5.772   6.270   4.025 -0.4401 -0.4694 -0.5102
   49bbb    H12 1439   5.717   6.162   4.153 -0.0152  0.5274 -0.5145
   49bbb     C7 1440   6.034   6.322   4.626 -0.2836  0.3235  0.3073
   49bbb    H13 1441   6.037   6.235   4.693  0.6762 -0.7976 -1.1347
   49bbb    H14 1442   5.979   6.406   4.670  2.7657  1.9274  1.3660
   49bbb     C8 1443   5.860   6.079   4.018  0.1542 -0.5417 -0.1787
   49bbb    H15 1444   5.770   6.022   3.992  0.3084 -1.0739  0.4285
   49bbb    H16 1445   5.931   6.020   4.077  0.6952  0.7650  0.5280
   49bbb     C9 1446   5.815   6.684   4.070  0.0572 -0.3599  0.3946
   49bbb    H17 1447   5.766   6.753   4.140  1.2217  0.7085  0.2063
   49bbb    H18 1448   5.740   6.640   4.004  0.6431 -0.3247 -0.3121
   49bbb     O1 1449   6.161   6.377   4.601  0.3721  0.1698  0.1481
   50bbb     N1 1450   5.035   7.431   7.872  0.7262  0.2310 -0.4752
   50bbb     C1 1451   5.174   7.405   7.841  0.6370  0.4635  0.8725
   50bbb     H1 1452   5.179   7.302   7.805 -1.3691  0.4053  0.6796
   50bbb     H2 1453   5.237   7.414   7.931  0.4591  0.3138  1.0119
   50bbb     C2 1454   4.979   7.364   7.991  0.3196  0.1046  0.4911
   50bbb     H3 1455   5.047   7.386   8.074 -0.0431  0.3205  0.7311
   50bbb     H4 1456   4.957   7.259   7.965  0.9348 -0.0226  0.4529
   50bbb     C3 1457   4.953   7.418   7.750  0.2098  0.2720 -0.7669
   50bbb     H5 1458   4.993   7.483   7.671 -0.0859  1.0866 -0.2567
   50bbb     H6 1459   4.849   7.449   7.769 -0.8869 -4.0214  1.5340
   50bbb     C4 1460   4.939   7.274   7.687 -0.2368 -0.4472 -0.6192
   50bbb     H7 1461   4.878   7.203   7.743  0.5043  0.2348  1.1147
   50bbb     H8 1462   5.040   7.232   7.676 -0.3455 -0.4903 -1.5578
   50bbb     C5 1463   5.245   7.492   7.732 -0.3168  0.5587  0.6464
   50bbb     H9 1464   5.206   7.594   7.744  0.0144  0.7526  0.1108
   50bbb    H10 1465   5.201   7.456   7.638  1.9671 -0.8096  0.0394
   50bbb     C6 1466   4.840   7.408   8.033 -0.2659 -0.5625 -0.1091
   50bbb    H11 1467   4.765   7.378   7.959 -1.1120 -2.0359  1.2670
   50bbb    H12 1468   4.838   7.518   8.029  1.8776 -0.3580  1.9772
   50bbb     C7 1469   4.870   7.284   7.552 -0.0613 -0.0469  0.0488
   50bbb    H13 1470   4.766   7.316   7.562  0.2104  1.5689 -1.7310
   50bbb    H14 1471   4.876   7.180   7.517  2.1098  0.3757 -1.0107
   50bbb     C8 1472   4.798   7.364   8.180  0.2481  0.5903 -0.5690
   50bbb    H15 1473   4.844   7.267   8.204 -1.0021 -0.2062 -1.2950
   50bbb    H16 1474   4.689   7.352   8.186  0.3042  0.4722  0.2199
   50bbb     C9 1475   5.407   7.477   7.733  0.5976 -0.3824  0.2201
   50bbb    H17 1476   5.438   7.375   7.707  0.5909 -1.3220  3.4596
   50bbb    H18 1477   5.448   7.488   7.834  1.1058 -0.9256  0.0801
   50bbb     O1 1478   4.955   7.362   7.458  0.0868 -0.2881 -0.3275
   51bbb     N1 1479   5.603   7.275   8.007  0.0463  0.5482 -0.1002
   51bbb     C1 1480   5.719   7.311   8.095  0.0786 -0.4848 -0.7646
   51bbb     H1 1481   5.773   7.217   8.115  2.0027  0.4061 -1.5434
   51bbb     H2 1482   5.675   7.341   8.191 -2.6855 -1.7293 -1.5306
   51bbb     C2 1483   5.476   7.254   8.077  0.5830 -0.3176  0.2368
   51bbb     H3 1484   5.479   7.154   8.123 -0.0252  0.2191  1.4944
   51bbb     H4 1485   5.396   7.242   8.004  1.6664  3.2954 -1.7789
   51bbb     C3 1486   5.622   7.164   7.904  0.4422  0.4766  0.4418
   51bbb     H5 1487   5.530   7.159   7.846  1.6809 -2.4337 -1.5129
   51bbb     H6 1488   5.628   7.062   7.945 -2.1800  0.4371  0.8736
   51bbb     C4 1489   5.729   7.196   7.797  0.0606  1.2083  0.6406
   51bbb     H7 1490   5.825   7.167   7.840  0.8090 -0.4599 -1.9533
   51bbb     H8 1491   5.731   7.305   7.783  0.0375  1.3580  1.6987
   51bbb     C5 1492   5.810   7.419   8.045 -0.1149  0.2005 -0.1376
   51bbb     H9 1493   5.855   7.391   7.948  1.0382  2.3211 -0.2726
   51bbb    H10 1494   5.894   7.426   8.115  0.8451 -1.9472 -0.9543
   51bbb     C6 1495   5.426   7.364   8.173 -0.9622 -0.4343 -0.4150
   51bbb    H11 1496   5.442   7.462   8.126  2.4001 -1.3473 -1.4233
   51bbb    H12 1497   5.489   7.372   8.262 -1.3967  0.6428 -0.1809
   51bbb     C7 1498   5.702   7.128   7.659 -0.2100  0.5459 -0.0701
   51bbb    H13 1499   5.701   7.020   7.676  1.9070  0.6625  1.2433
   51bbb    H14 1500   5.788   7.147   7.594  0.3930  1.7202  1.0152
   51bbb     C8 1501   5.277   7.331   8.219  0.6336 -0.1462  0.4649
   51bbb    H15 1502   5.227   7.275   8.138  1.2467 -0.8603  0.5640
   51bbb    H16 1503   5.223   7.419   8.255 -0.2472 -0.0120 -1.0701
   51bbb     C9 1504   5.740   7.557   8.040 -0.5911 -0.3512 -0.1227
   51bbb    H17 1505   5.642   7.544   7.992 -1.3099 -0.8108  1.3864
   51bbb    H18 1506   5.786   7.632   7.975 -0.6608 -1.1888 -1.1773
   51bbb     O1 1507   5.582   7.185   7.598  1.0829 -0.5809  0.1320
   52bbb     N1 1508   3.804   6.422   6.198 -0.1671 -0.9907  0.0259
   52bbb     C1 1509   3.675   6.364   6.244 -0.1484 -0.6133 -0.0567
   52bbb     H1 1510   3.677   6.256   6.224  3.6281 -1.3903  3.3291
   52bbb     H2 1511   3.589   6.411   6.195 -0.7554  0.2907  1.8071
   52bbb     C2 1512   3.801   6.562   6.177 -0.6038  0.0711 -0.3666
   52bbb     H3 1513   3.810   6.612   6.274 -0.1646 -2.1782  0.8143
   52bbb     H4 1514   3.713   6.592   6.119  1.1025  0.6772 -2.8082
   52bbb     C3 1515   3.918   6.371   6.275 -0.1058 -0.4040  0.1182
   52bbb     H5 1516   3.912   6.414   6.376  3.0943 -0.1135  0.2733
   52bbb     H6 1517   4.017   6.396   6.235 -0.3796  0.0056 -0.3101
   52bbb     C4 1518   3.931   6.216   6.295 -0.7505 -0.8020  0.1073
   52bbb     H7 1519   3.966   6.173   6.201  0.4317 -1.0595  0.6576
   52bbb     H8 1520   3.833   6.168   6.308 -0.2849 -1.6741  0.4581
   52bbb     C5 1521   3.651   6.388   6.397  0.6051  0.1508 -0.7332
   52bbb     H9 1522   3.652   6.495   6.417 -1.2328  0.8396 -3.6726
   52bbb    H10 1523   3.731   6.348   6.461 -0.8575 -0.9786  0.4554
   52bbb     C6 1524   3.921   6.610   6.089  0.0544  0.3234  0.0125
   52bbb    H11 1525   3.907   6.565   5.990 -0.3400 -0.4322  0.3984
   52bbb    H12 1526   4.016   6.572   6.130 -0.9132 -0.8023  1.3104
   52bbb     C7 1527   4.013   6.179   6.417 -0.1060  0.8255  0.2301
   52bbb    H13 1528   4.008   6.072   6.439  0.6380  0.8062  0.3213
   52bbb    H14 1529   3.987   6.232   6.510 -0.2211  2.0261 -0.4652
   52bbb     C8 1530   3.928   6.765   6.086  0.5458  0.0824  0.3891
   52bbb    H15 1531   3.936   6.797   6.191  0.7434 -0.2913  0.4908
   52bbb    H16 1532   3.832   6.801   6.047  0.4197  0.6254  1.1838
   52bbb     C9 1533   3.512   6.337   6.437  0.7809  0.6631 -0.5965
   52bbb    H17 1534   3.435   6.393   6.383  0.3398  1.1106  0.4753
   52bbb    H18 1535   3.503   6.367   6.542  0.4028 -0.0687 -0.4193
   52bbb     O1 1536   4.146   6.213   6.389 -0.6628 -0.9252  0.2712
   53bbb     N1 1537   4.465   5.597   5.772  0.3765  0.3607 -0.1438
   53bbb     C1 1538   4.575   5.498   5.732  0.3705  0.0682  0.6690
   53bbb     H1 1539   4.673   5.545   5.717  0.5868 -0.1930  1.2303
   53bbb     H2 1540   4.547   5.454   5.635  0.8034  0.0136  0.5680
   53bbb     C2 1541   4.332   5.539   5.791 -0.2970 -0.1082  0.6000
   53bbb     H3 1542   4.316   5.496   5.891  0.9547  0.3344  1.0176
   53bbb     H4 1543   4.317   5.456   5.722 -1.9394 -0.7857  1.7160
   53bbb     C3 1544   4.509   5.690   5.876  0.2240 -0.0304 -0.4185
   53bbb     H5 1545   4.527   5.627   5.965 -0.8797  0.1567 -0.0435
   53bbb     H6 1546   4.428   5.756   5.908 -0.2187 -1.3160  1.2969
   53bbb     C4 1547   4.643   5.772   5.856 -0.0659  0.4824  0.2068
   53bbb     H7 1548   4.641   5.826   5.761 -0.4414  0.6689  0.3185
   53bbb     H8 1549   4.719   5.694   5.845 -1.3544 -0.8760  0.4902
   53bbb     C5 1550   4.608   5.383   5.828  0.0568  0.4265 -0.4886
   53bbb     H9 1551   4.514   5.341   5.864 -0.1777  0.9989 -0.4212
   53bbb    H10 1552   4.662   5.416   5.918  1.0491  0.0122 -0.9156
   53bbb     C6 1553   4.217   5.639   5.750  0.1417 -0.5543 -0.3162
   53bbb    H11 1554   4.224   5.659   5.643  3.0219 -0.2567 -0.1539
   53bbb    H12 1555   4.239   5.735   5.797  0.4750 -1.1560  0.8079
   53bbb     C7 1556   4.688   5.861   5.976 -0.3973  0.0289  0.1468
   53bbb    H13 1557   4.775   5.918   5.940  1.4985 -2.2712  0.8510
   53bbb    H14 1558   4.708   5.800   6.065 -0.5930 -0.1072  0.0980
   53bbb     C8 1559   4.074   5.588   5.795 -0.4906 -0.3560  0.1373
   53bbb    H15 1560   4.075   5.559   5.901  0.4241  0.6930  0.4273
   53bbb    H16 1561   4.039   5.497   5.743 -1.2474 -0.2764  0.4994
   53bbb     C9 1562   4.660   5.262   5.754  0.1072 -0.1789  0.0339
   53bbb    H17 1563   4.688   5.181   5.823 -0.6511 -1.5125 -1.1712
   53bbb    H18 1564   4.746   5.304   5.701  0.4155 -0.5826  0.2089
   53bbb     O1 1565   4.585   5.955   6.012  0.2888 -0.1581  0.1820
   54bbb     N1 1566   8.398   8.959   7.032 -0.1576  0.2798 -0.2320
   54bbb     C1 1567   8.483   9.077   7.058 -0.2163 -0.4919 -0.6767
   54bbb     H1 1568   8.529   9.073   7.158 -1.1007 -3.8082 -0.2819
   54bbb     H2 1569   8.426   9.171   7.058 -2.8633 -1.9754  0.3550
   54bbb     C2 1570   8.317   8.918   7.147  0.2744 -0.0306  0.1876
   54bbb     H3 1571   8.374   8.911   7.240  1.0011  0.1913 -0.2290
   54bbb     H4 1572   8.292   8.813   7.127  0.5369 -0.3941  1.6503
   54bbb     C3 1573   8.330   8.949   6.901 -0.4068  0.3616 -0.7477
   54bbb     H5 1574   8.402   8.966   6.820  0.8589  0.6184  0.4042
   54bbb     H6 1575   8.251   9.023   6.883 -3.2868 -2.3187 -0.1163
   54bbb     C4 1576   8.266   8.816   6.864 -0.9839  0.5735  0.1155
   54bbb     H7 1577   8.186   8.796   6.936 -0.4493  2.6659  1.3863
   54bbb     H8 1578   8.346   8.744   6.885  0.2367  1.4199 -1.4681
   54bbb     C5 1579   8.611   9.076   6.968 -0.0887 -0.2576 -0.3760
   54bbb     H9 1580   8.596   9.072   6.860 -0.1588  1.7198 -0.4863
   54bbb    H10 1581   8.663   8.984   6.998  1.4362  0.3920 -0.9415
   54bbb     C6 1582   8.190   9.006   7.168 -0.2850  0.6703  0.0281
   54bbb    H11 1583   8.142   9.021   7.071  0.3890  0.4746 -0.3467
   54bbb    H12 1584   8.227   9.101   7.208 -1.0493  0.8314  0.3631
   54bbb     C7 1585   8.225   8.820   6.716  0.7640  0.1424  0.6555
   54bbb    H13 1586   8.306   8.830   6.643  0.9681 -0.0564  0.8508
   54bbb    H14 1587   8.159   8.907   6.707  0.6846  0.0936  0.7548
   54bbb     C8 1588   8.110   8.933   7.277  0.0231 -0.5132 -0.1281
   54bbb    H15 1589   8.141   8.964   7.377 -1.0702 -1.4384  0.5274
   54bbb    H16 1590   8.106   8.825   7.258 -0.0966 -0.1145 -2.9288
   54bbb     C9 1591   8.706   9.200   7.010  0.3445  0.4703 -0.1746
   54bbb    H17 1592   8.805   9.173   6.972 -0.3467 -2.3781 -0.2065
   54bbb    H18 1593   8.719   9.205   7.119 -2.8363 -0.9264  0.3770
   54bbb     O1 1594   8.140   8.709   6.689 -0.6071  0.6740 -0.1114
   55bbb     N1 1595   7.843   8.679   5.821 -0.2713 -0.2935  0.7064
   55bbb     C1 1596   7.887   8.818   5.806 -0.2444 -0.9806  0.2736
   55bbb     H1 1597   7.896   8.847   5.700  1.0665  3.2387  1.3473
   55bbb     H2 1598   7.984   8.842   5.850 -0.1602  2.0272 -1.2757
   55bbb     C2 1599   7.941   8.590   5.748 -0.2088 -0.4306 -0.7602
   55bbb     H3 1600   7.939   8.493   5.799 -2.5624 -0.9497 -1.7164
   55bbb     H4 1601   8.042   8.632   5.755  1.0738 -2.9812 -2.4491
   55bbb     C3 1602   7.827   8.635   5.960  0.2762  0.3250 -0.1382
   55bbb     H5 1603   7.767   8.708   6.015  0.1104 -0.1900  0.3800
   55bbb     H6 1604   7.919   8.641   6.018 -1.2227  1.2439  2.2664
   55bbb     C4 1605   7.752   8.498   5.975 -0.4311  0.0249 -0.2496
   55bbb     H7 1606   7.783   8.407   5.922 -0.6393 -1.0756  1.4291
   55bbb     H8 1607   7.650   8.522   5.945 -1.1181  0.8949  2.4678
   55bbb     C5 1608   7.797   8.927   5.869 -0.0264  0.5863  0.4683
   55bbb     H9 1609   7.804   8.921   5.979  0.4038 -0.5096  0.3930
   55bbb    H10 1610   7.691   8.910   5.845  0.3165  0.1659 -0.8021
   55bbb     C6 1611   7.913   8.564   5.600  0.4891  0.4263  0.4834
   55bbb    H11 1612   7.881   8.650   5.539 -0.0441 -1.4401 -2.0208
   55bbb    H12 1613   7.836   8.486   5.603  0.2265  0.6490 -0.3370
   55bbb     C7 1614   7.740   8.450   6.130  0.1758  0.2901 -0.1432
   55bbb    H13 1615   7.688   8.353   6.127  2.4969 -1.1699  1.8597
   55bbb    H14 1616   7.678   8.522   6.184 -0.4472 -0.0326 -0.4143
   55bbb     C8 1617   8.042   8.497   5.547 -0.4096  0.6043  0.1158
   55bbb    H15 1618   8.028   8.394   5.585  1.2643  0.4856  0.4644
   55bbb    H16 1619   8.135   8.533   5.591 -0.2848 -1.6371  1.8793
   55bbb     C9 1620   7.836   9.068   5.837 -0.0831  0.4686  0.2557
   55bbb    H17 1621   7.741   9.122   5.848 -1.2583 -1.6209  0.9246
   55bbb    H18 1622   7.875   9.071   5.735  1.9938  0.9751  1.0292
   55bbb     O1 1623   7.872   8.428   6.191  0.4589  0.1221 -0.4175
   56bbb     N1 1624   8.417   8.815   5.570  0.0080  0.5738 -0.0049
   56bbb     C1 1625   8.546   8.876   5.581 -0.4239 -0.0168 -0.3401
   56bbb     H1 1626   8.548   8.930   5.676  1.8031  2.5672 -1.6998
   56bbb     H2 1627   8.566   8.955   5.507  1.0212  0.8488  0.9227
   56bbb     C2 1628   8.385   8.765   5.427 -0.6259 -0.3376 -0.3055
   56bbb     H3 1629   8.278   8.741   5.432 -0.4646 -1.1956 -0.7671
   56bbb     H4 1630   8.428   8.666   5.409  1.4332  0.7000 -1.3910
   56bbb     C3 1631   8.368   8.729   5.679 -0.3598 -0.5601  0.1179
   56bbb     H5 1632   8.408   8.628   5.663 -1.8035 -1.0877 -0.3203
   56bbb     H6 1633   8.261   8.713   5.666 -0.9493  1.6602  1.6743
   56bbb     C4 1634   8.396   8.778   5.824  0.1458 -0.0117 -0.0085
   56bbb     H7 1635   8.371   8.885   5.829 -1.6382 -0.4223  0.5896
   56bbb     H8 1636   8.493   8.748   5.865  0.1596 -0.0722 -0.0862
   56bbb     C5 1637   8.660   8.768   5.576  0.1138 -0.1869  0.2082
   56bbb     H9 1638   8.647   8.710   5.483  2.9335 -0.1182 -0.3138
   56bbb    H10 1639   8.645   8.698   5.659  0.5493 -0.8689 -0.2764
   56bbb     C6 1640   8.422   8.849   5.305  0.0281  0.0043  0.1029
   56bbb    H11 1641   8.529   8.826   5.292 -0.1427 -1.7362  1.3707
   56bbb    H12 1642   8.407   8.956   5.323 -0.2087 -0.1772  1.0516
   56bbb     C7 1643   8.292   8.721   5.914 -0.6249 -0.1895 -0.4670
   56bbb    H13 1644   8.188   8.742   5.888 -1.8918  2.2532  5.0182
   56bbb    H14 1645   8.303   8.765   6.014 -2.3214 -2.2852  0.7237
   56bbb     C8 1646   8.353   8.816   5.173 -0.1656 -0.2451  0.2531
   56bbb    H15 1647   8.376   8.715   5.136  0.2912 -0.4037  0.9477
   56bbb    H16 1648   8.404   8.888   5.108 -0.0640  0.5370  1.1809
   56bbb     C9 1649   8.793   8.832   5.570  0.4139 -0.1214 -0.0969
   56bbb    H17 1650   8.867   8.752   5.564  0.3156 -0.1088 -3.1140
   56bbb    H18 1651   8.803   8.901   5.655 -1.7004  1.0864 -0.7523
   56bbb     O1 1652   8.315   8.573   5.937 -0.3903 -0.4189  0.6933
   57bbb     N1 1653   8.862   8.379   5.333 -0.2979  0.1518 -0.4747
   57bbb     C1 1654   8.861   8.453   5.204 -0.1221  0.2286 -0.3350
   57bbb     H1 1655   8.797   8.397   5.135 -0.8568  2.3781 -1.5150
   57bbb     H2 1656   8.959   8.452   5.156 -0.6808  0.5065 -1.5239
   57bbb     C2 1657   8.962   8.437   5.426  0.4597  0.0585 -0.0360
   57bbb     H3 1658   8.969   8.375   5.517  1.3230  1.5222  0.9279
   57bbb     H4 1659   8.927   8.535   5.461  0.4353  0.5250 -1.3297
   57bbb     C3 1660   8.726   8.363   5.399  0.1528  0.5694 -0.3426
   57bbb     H5 1661   8.679   8.462   5.408 -0.0818  0.5192 -1.0136
   57bbb     H6 1662   8.743   8.328   5.502  1.0431 -1.2161 -1.0534
   57bbb     C4 1663   8.631   8.270   5.316 -0.3416  0.0210 -0.7081
   57bbb     H7 1664   8.685   8.176   5.296  2.8708  0.8413  2.7498
   57bbb     H8 1665   8.617   8.317   5.218 -0.4358  0.9012 -0.2792
   57bbb     C5 1666   8.792   8.590   5.195  0.1827 -0.5757 -0.3441
   57bbb     H9 1667   8.841   8.668   5.253 -2.8227  1.4091 -0.2773
   57bbb    H10 1668   8.690   8.577   5.235  0.1361  1.0099  0.0813
   57bbb     C6 1669   9.111   8.461   5.396 -0.1420  0.3728  0.3023
   57bbb    H11 1670   9.104   8.526   5.308 -2.4432 -0.1853  0.0035
   57bbb    H12 1671   9.149   8.367   5.353  2.2343  0.2437  2.4558
   57bbb     C7 1672   8.491   8.259   5.393 -0.3612 -0.0469  0.6798
   57bbb    H13 1673   8.418   8.204   5.332 -2.8844  3.6306  0.0842
   57bbb    H14 1674   8.441   8.357   5.389 -1.8087 -0.7260  1.4262
   57bbb     C8 1675   9.191   8.522   5.509 -0.5174  0.2970  0.3546
   57bbb    H15 1676   9.211   8.447   5.586 -2.0951 -0.0784  0.4194
   57bbb    H16 1677   9.148   8.609   5.559  0.8115  1.3489 -0.2664
   57bbb     C9 1678   8.768   8.632   5.051 -0.3233  0.2499  0.0873
   57bbb    H17 1679   8.717   8.553   4.995  1.6837  0.5946 -2.4063
   57bbb    H18 1680   8.864   8.652   5.002  0.0461 -0.7789  0.3460
   57bbb     O1 1681   8.504   8.223   5.526 -0.3231 -0.1457 -0.1395
   58bbb     N1 1682   7.045   6.224   5.251 -0.0460  1.2569  0.0197
   58bbb     C1 1683   7.042   6.372   5.270  0.2352  0.5138  0.3932
   58bbb     H1 1684   6.972   6.395   5.351 -0.0512 -0.9286  0.5808
   58bbb     H2 1685   7.006   6.423   5.179  1.8202  0.7760 -0.1219
   58bbb     C2 1686   6.918   6.167   5.191  0.0461  0.5917 -0.1338
   58bbb     H3 1687   6.833   6.185   5.257 -0.1178  1.9126 -0.6807
   58bbb     H4 1688   6.920   6.058   5.174 -0.1264  0.8260 -1.7479
   58bbb     C3 1689   7.091   6.150   5.370 -0.1028  0.0903 -0.2620
   58bbb     H5 1690   7.195   6.173   5.395  0.6665  0.2953 -3.3133
   58bbb     H6 1691   7.097   6.042   5.349  0.4337  0.4568 -2.1596
   58bbb     C4 1692   6.989   6.162   5.487 -0.1773 -0.4430 -0.1588
   58bbb     H7 1693   6.899   6.103   5.464 -1.0973  0.2466  1.4471
   58bbb     H8 1694   6.958   6.263   5.519  2.6269  1.3685 -2.6689
   58bbb     C5 1695   7.173   6.437   5.316 -0.0428  0.5790 -0.0954
   58bbb     H9 1696   7.247   6.407   5.241  1.1876  0.1607  1.2508
   58bbb    H10 1697   7.201   6.377   5.403 -3.0672 -1.2001 -0.1938
   58bbb     C6 1698   6.896   6.218   5.045  0.1092 -0.3402 -1.6661
   58bbb    H11 1699   6.998   6.228   5.007  0.4668  2.4256 -0.2001
   58bbb    H12 1700   6.848   6.316   5.053 -1.6240 -1.1543 -1.6658
   58bbb     C7 1701   7.049   6.098   5.612  1.2101  0.3717 -0.2612
   58bbb    H13 1702   7.092   6.002   5.581  0.3549  0.4533 -1.8269
   58bbb    H14 1703   6.973   6.083   5.689  0.5423  1.3843 -0.6919
   58bbb     C8 1704   6.810   6.128   4.952  0.3451  0.0331 -0.2723
   58bbb    H15 1705   6.718   6.122   5.011  0.4954  3.7560  0.6171
   58bbb    H16 1706   6.848   6.026   4.940  1.2568  0.4027 -0.6070
   58bbb     C9 1707   7.169   6.588   5.335  0.6220 -0.5384  0.0243
   58bbb    H17 1708   7.123   6.623   5.242 -0.5028 -2.3777 -0.1698
   58bbb    H18 1709   7.275   6.614   5.348  1.1247 -2.1353 -0.6313
   58bbb     O1 1710   7.154   6.182   5.664 -0.0935 -0.4080 -0.0040
   59bbb     N1 1711   7.818   5.791   6.339  1.1541 -0.4331 -0.1710
   59bbb     C1 1712   7.918   5.736   6.432  0.1348  0.1759 -0.0553
   59bbb     H1 1713   7.953   5.813   6.501 -2.5983  0.8525  0.6932
   59bbb     H2 1714   8.009   5.707   6.378  0.9245  0.1511  1.2562
   59bbb     C2 1715   7.682   5.813   6.406  0.9870 -0.2828 -0.4452
   59bbb     H3 1716   7.639   5.727   6.459 -0.6312 -0.6253 -2.1816
   59bbb     H4 1717   7.608   5.848   6.333  0.4102 -3.6526 -1.6533
   59bbb     C3 1718   7.875   5.909   6.268  0.7543  0.2372  0.1089
   59bbb     H5 1719   7.977   5.896   6.228  0.4663 -0.3263 -0.4439
   59bbb     H6 1720   7.888   5.985   6.347  1.4553  0.3898 -0.1403
   59bbb     C4 1721   7.777   5.957   6.161  0.4053  0.4699 -0.2828
   59bbb     H7 1722   7.684   6.002   6.195 -1.3582 -2.0304 -1.4785
   59bbb     H8 1723   7.743   5.863   6.117  2.2252 -0.7274  0.6996
   59bbb     C5 1724   7.881   5.603   6.502 -0.2822 -0.4819 -0.2375
   59bbb     H9 1725   7.884   5.523   6.427  1.6754 -0.2797 -0.4278
   59bbb    H10 1726   7.790   5.612   6.563  0.1026 -2.7960  0.8017
   59bbb     C6 1727   7.696   5.925   6.508 -0.5497 -0.5589  0.5218
   59bbb    H11 1728   7.709   6.020   6.455  1.9938 -1.4560 -0.5945
   59bbb    H12 1729   7.778   5.914   6.580 -0.0838  0.2206  0.1308
   59bbb     C7 1730   7.840   6.050   6.048 -0.2427 -0.3418 -0.3552
   59bbb    H13 1731   7.918   5.997   5.993  0.7895  1.0616 -0.2815
   59bbb    H14 1732   7.883   6.141   6.093  0.1340 -0.8574  0.3487
   59bbb     C8 1733   7.570   5.936   6.600 -0.1996 -0.0601  0.0538
   59bbb    H15 1734   7.481   5.974   6.548 -0.1105 -0.5822 -0.5017
   59bbb    H16 1735   7.587   6.019   6.669 -0.1445  0.9216 -1.1061
   59bbb     C9 1736   8.000   5.569   6.595 -0.3588 -0.1465 -0.1187
   59bbb    H17 1737   8.033   5.663   6.641  2.9061 -1.8831  1.4352
   59bbb    H18 1738   8.095   5.536   6.551  1.5178  0.8913  2.8551
   59bbb     O1 1739   7.732   6.088   5.955  0.1953 -0.6010 -0.1516
   60bbb     N1 1740   6.685   6.517   4.209 -0.3170 -0.4712 -0.2825
   60bbb     C1 1741   6.554   6.468   4.263  0.2911 -0.1592 -0.0845
   60bbb     H1 1742   6.561   6.400   4.349 -1.9291 -3.0954 -2.0042
   60bbb     H2 1743   6.503   6.401   4.192 -0.2374  0.8398 -0.6625
   60bbb     C2 1744   6.679   6.576   4.074 -0.2670 -0.0631  0.3235
   60bbb     H3 1745   6.776   6.604   4.030  0.0400 -0.1430  0.9397
   60bbb     H4 1746   6.617   6.667   4.076  2.2184  1.7826 -1.0759
   60bbb     C3 1747   6.760   6.605   4.294  0.1543 -0.1632  0.0713
   60bbb     H5 1748   6.713   6.702   4.311  1.1594  0.4371 -0.4509
   60bbb     H6 1749   6.853   6.626   4.238  0.0887 -0.9829 -0.3642
   60bbb     C4 1750   6.782   6.530   4.433 -0.3876  0.3056 -0.2046
   60bbb     H7 1751   6.810   6.423   4.429 -3.0738 -0.4370 -0.8708
   60bbb     H8 1752   6.687   6.533   4.486  0.2040  0.0042  0.9041
   60bbb     C5 1753   6.448   6.575   4.298  0.3349 -0.5049  0.1010
   60bbb     H9 1754   6.471   6.656   4.228  0.8239 -1.9297 -1.4467
   60bbb    H10 1755   6.460   6.618   4.398  0.2639  1.2707 -0.6147
   60bbb     C6 1756   6.619   6.483   3.974  0.0373 -0.2651 -0.8132
   60bbb    H11 1757   6.515   6.456   3.997 -0.4863 -0.2092 -2.8751
   60bbb    H12 1758   6.679   6.392   3.966 -0.6857 -0.6498 -2.2084
   60bbb     C7 1759   6.887   6.615   4.515 -0.0013  0.2700 -0.3016
   60bbb    H13 1760   6.846   6.716   4.526  0.4671  0.3550  0.7504
   60bbb    H14 1761   6.987   6.631   4.474  0.2129  2.1676  0.8296
   60bbb     C8 1762   6.616   6.549   3.830 -0.4924  0.0269  0.5701
   60bbb    H15 1763   6.708   6.595   3.793  0.2193 -0.9777  1.0422
   60bbb    H16 1764   6.540   6.628   3.823  0.0170  0.3903 -1.3582
   60bbb     C9 1765   6.302   6.529   4.278 -0.1677  0.4163 -0.2173
   60bbb    H17 1766   6.252   6.626   4.291 -0.4670  0.1818  0.4448
   60bbb    H18 1767   6.274   6.450   4.349  2.1083 -0.1678  0.1409
   60bbb     O1 1768   6.904   6.552   4.644  0.0657 -0.1513  0.0998
   61bbb     N1 1769   7.995   6.118   5.009  0.1432  0.5396  0.2075
   61bbb     C1 1770   7.940   5.982   5.020  0.0759 -0.1091 -0.2164
   61bbb     H1 1771   7.831   5.978   5.033  0.0925 -2.4078 -0.3112
   61bbb     H2 1772   7.976   5.932   5.110  1.6796  1.3586  0.0097
   61bbb     C2 1773   8.032   6.185   5.132  0.8605  0.4622  0.2235
   61bbb     H3 1774   7.950   6.202   5.203  0.6275 -1.8311  0.5859
   61bbb     H4 1775   8.065   6.284   5.099  2.3884  0.3861  1.4007
   61bbb     C3 1776   7.916   6.205   4.912 -0.2080 -0.3953 -0.4074
   61bbb     H5 1777   7.900   6.144   4.822 -0.0013 -2.0343  0.6193
   61bbb     H6 1778   7.978   6.291   4.884 -0.7762  0.5964  1.2215
   61bbb     C4 1779   7.773   6.260   4.968 -0.8656 -0.3757  0.4322
   61bbb     H7 1780   7.784   6.329   5.052  2.0436 -0.5817  0.3192
   61bbb     H8 1781   7.710   6.173   4.990 -0.1564 -1.5565 -1.8668
   61bbb     C5 1782   7.983   5.891   4.897  0.0142 -0.5130  0.0309
   61bbb     H9 1783   8.081   5.918   4.856  0.1228 -0.9732 -0.0152
   61bbb    H10 1784   7.905   5.907   4.822 -0.3695 -1.5126  0.1928
   61bbb     C6 1785   8.141   6.110   5.216  0.3871  0.9519 -0.1751
   61bbb    H11 1786   8.210   6.076   5.138 -1.9591 -0.3051 -1.8562
   61bbb    H12 1787   8.091   6.026   5.266  2.7239  0.0223  0.7315
   61bbb     C7 1788   7.705   6.349   4.864  0.0439  0.4468 -0.3271
   61bbb    H13 1789   7.675   6.288   4.777  2.6474 -1.8144  0.2403
   61bbb    H14 1790   7.784   6.414   4.825  2.5899 -1.7621  0.8657
   61bbb     C8 1791   8.209   6.203   5.327  0.0111 -0.1737  0.2823
   61bbb    H15 1792   8.227   6.292   5.266  3.1265 -1.5635 -1.0602
   61bbb    H16 1793   8.308   6.170   5.361  0.4621 -1.1134 -1.7842
   61bbb     C9 1794   7.984   5.742   4.925  0.5570 -0.0734 -0.3674
   61bbb    H17 1795   7.885   5.711   4.959  0.5692 -2.4081 -2.1938
   61bbb    H18 1796   8.063   5.731   5.001 -0.8153 -0.0636  1.1089
   61bbb     O1 1797   7.598   6.415   4.935 -1.1141  0.5043 -0.1778
   62bbb     N1 1798   4.675   7.133   6.787  0.0632 -0.1052  0.1133
   62bbb     C1 1799   4.778   7.206   6.711 -0.2993  0.6830  0.2330
   62bbb     H1 1800   4.756   7.214   6.604  2.5499 -0.1461 -0.5043
   62bbb     H2 1801   4.873   7.151   6.714 -1.7535 -1.9817  1.5566
   62bbb     C2 1802   4.538   7.186   6.757 -0.5949  0.4859  0.2458
   62bbb     H3 1803   4.511   7.152   6.656  3.5953 -1.9477 -0.3336
   62bbb     H4 1804   4.551   7.295   6.755  0.5290  0.3644  0.3007
   62bbb     C3 1805   4.686   6.982   6.781 -0.1544 -0.1520 -0.4950
   62bbb     H5 1806   4.669   6.947   6.678  1.6577 -1.2594 -0.4630
   62bbb     H6 1807   4.609   6.925   6.834  0.2355  0.4832  0.7711
   62bbb     C4 1808   4.820   6.929   6.840  0.0125  1.0546  0.0434
   62bbb     H7 1809   4.795   6.851   6.912 -2.4794  2.1979  0.5182
   62bbb     H8 1810   4.874   6.995   6.908 -0.7893  1.4421  0.3123
   62bbb     C5 1811   4.800   7.347   6.772 -0.4587 -0.0511  0.3296
   62bbb     H9 1812   4.798   7.349   6.882  0.3318 -0.9913  0.3814
   62bbb    H10 1813   4.722   7.416   6.739 -2.5023 -1.2477  2.3768
   62bbb     C6 1814   4.439   7.156   6.871 -0.3637 -0.5201  0.1502
   62bbb    H11 1815   4.398   7.250   6.911  0.8041 -0.0768  0.3488
   62bbb    H12 1816   4.492   7.094   6.944  2.4405  1.1380 -0.3096
   62bbb     C7 1817   4.920   6.873   6.735 -0.0982  0.2240 -0.4864
   62bbb    H13 1818   4.954   6.960   6.677 -0.9290  1.6640  1.1272
   62bbb    H14 1819   4.874   6.797   6.670 -0.8738 -0.5822  0.9600
   62bbb     C8 1820   4.319   7.066   6.817 -0.5236 -0.0314  0.4158
   62bbb    H15 1821   4.253   7.051   6.903 -1.9115  3.0365  0.0351
   62bbb    H16 1822   4.355   6.972   6.774 -1.6597  0.1612 -1.0389
   62bbb     C9 1823   4.934   7.415   6.736 -0.3238 -0.1465  0.2387
   62bbb    H17 1824   5.015   7.343   6.749  0.0154  0.0768 -0.5961
   62bbb    H18 1825   4.945   7.498   6.807 -0.0560  0.5400 -0.5908
   62bbb     O1 1826   5.027   6.812   6.813  0.5025 -0.3573 -0.0199
   63bbb     N1 1827   4.516   5.659   6.657  0.1515  0.3363  0.1391
   63bbb     C1 1828   4.570   5.577   6.542  0.3007 -0.1303  0.6971
   63bbb     H1 1829   4.508   5.488   6.525 -0.6344  0.7062 -0.4658
   63bbb     H2 1830   4.669   5.537   6.568  0.0594 -0.3148  1.3361
   63bbb     C2 1831   4.366   5.687   6.633 -0.1097  0.0314 -0.1175
   63bbb     H3 1832   4.314   5.591   6.616 -0.8611  0.7470 -2.1121
   63bbb     H4 1833   4.350   5.743   6.541 -2.2570 -2.1043 -1.1884
   63bbb     C3 1834   4.606   5.775   6.694 -0.5196 -0.7922 -0.6035
   63bbb     H5 1835   4.573   5.836   6.779  3.2646 -1.3120  1.4866
   63bbb     H6 1836   4.621   5.840   6.608 -1.6054  0.4968  0.1424
   63bbb     C4 1837   4.745   5.737   6.752  0.1372 -0.9877 -0.3809
   63bbb     H7 1838   4.816   5.686   6.685 -0.3597 -1.3836 -0.6187
   63bbb     H8 1839   4.736   5.665   6.835  0.8493 -0.7082 -0.0585
   63bbb     C5 1840   4.584   5.663   6.410  0.5266  0.6953 -0.3172
   63bbb     H9 1841   4.585   5.772   6.425  0.8049  0.6221  0.2044
   63bbb    H10 1842   4.496   5.646   6.346 -1.1325  0.2026  1.9616
   63bbb     C6 1843   4.300   5.769   6.742  0.2539  0.4479  0.1557
   63bbb    H11 1844   4.208   5.820   6.710 -1.2904 -1.6343  1.0772
   63bbb    H12 1845   4.367   5.854   6.765 -0.0676  0.8513 -0.3657
   63bbb     C7 1846   4.817   5.869   6.812 -0.0378  0.1834 -0.4937
   63bbb    H13 1847   4.913   5.842   6.859 -1.1693 -0.2376  1.7199
   63bbb    H14 1848   4.759   5.907   6.897 -1.4237  0.1715 -1.4140
   63bbb     C8 1849   4.273   5.698   6.879  0.3117 -0.4270  0.0646
   63bbb    H15 1850   4.233   5.780   6.940  0.0050  0.2252 -0.9933
   63bbb    H16 1851   4.363   5.657   6.926  0.1673 -0.2794  0.4779
   63bbb     C9 1852   4.710   5.625   6.331 -0.4639 -0.3744 -0.1214
   63bbb    H17 1853   4.723   5.663   6.229 -1.1878 -0.8060 -0.3846
   63bbb    H18 1854   4.697   5.518   6.309  0.5143  0.1050 -3.6081
   63bbb     O1 1855   4.834   5.961   6.707  0.3286  0.4661 -0.6792
   64bbb     N1 1856   4.469   5.846   5.327 -0.7465  0.1600 -0.3525
   64bbb     C1 1857   4.556   5.769   5.422 -0.0376  0.0232 -0.1170
   64bbb     H1 1858   4.535   5.662   5.417 -0.3776  0.0477  0.6239
   64bbb     H2 1859   4.535   5.804   5.524 -1.7751  1.6581 -0.9652
   64bbb     C2 1860   4.481   5.792   5.185 -0.4525 -0.1919 -0.7968
   64bbb     H3 1861   4.586   5.774   5.157  0.1173  0.8432  0.5981
   64bbb     H4 1862   4.438   5.872   5.124 -0.7792 -0.5938 -1.1004
   64bbb     C3 1863   4.326   5.860   5.380  0.8732 -0.6604  0.2278
   64bbb     H5 1864   4.343   5.905   5.478  0.7805 -0.6165  0.2236
   64bbb     H6 1865   4.283   5.759   5.389 -1.9784  0.3367 -1.0591
   64bbb     C4 1866   4.213   5.942   5.305 -0.5132 -0.0186 -0.5224
   64bbb     H7 1867   4.184   5.901   5.207  1.6054 -1.0695 -0.7663
   64bbb     H8 1868   4.252   6.044   5.296 -1.4748  0.5224  0.9880
   64bbb     C5 1869   4.708   5.801   5.403 -0.0844 -0.4646 -0.3935
   64bbb     H9 1870   4.744   5.821   5.504 -0.5576  1.6656 -0.6085
   64bbb    H10 1871   4.725   5.896   5.351 -0.9260 -0.4056 -0.5798
   64bbb     C6 1872   4.405   5.660   5.155 -0.2497 -0.2351 -0.0422
   64bbb    H11 1873   4.297   5.676   5.153 -0.6463 -2.5070 -0.2651
   64bbb    H12 1874   4.422   5.594   5.242 -2.2475  1.2771  1.5970
   64bbb     C7 1875   4.091   5.942   5.404  0.8371 -1.0400 -0.4898
   64bbb    H13 1876   4.069   5.840   5.437 -1.8070 -0.4124 -0.0527
   64bbb    H14 1877   4.004   5.986   5.353  1.7272  1.4603 -0.0074
   64bbb     C8 1878   4.458   5.585   5.029  1.0767 -0.2969  0.3098
   64bbb    H15 1879   4.392   5.501   5.006  0.5823  0.0917  0.2866
   64bbb    H16 1880   4.556   5.544   5.053  1.7406  1.1070  0.1099
   64bbb     C9 1881   4.784   5.678   5.346  0.5452 -0.5656 -0.7113
   64bbb    H17 1882   4.743   5.649   5.249  0.4714 -0.1510 -0.8070
   64bbb    H18 1883   4.768   5.585   5.401 -1.8349 -0.7212 -1.5414
   64bbb     O1 1884   4.124   6.022   5.522  0.3138 -0.1539 -0.6288
   65bbb     N1 1885   4.157   5.329   6.235 -0.1688 -0.0568 -0.0725
   65bbb     C1 1886   4.120   5.264   6.103 -0.5222 -0.0189  0.0020
   65bbb     H1 1887   4.200   5.295   6.034 -1.4134  1.4004 -0.4492
   65bbb     H2 1888   4.031   5.304   6.053 -0.2616 -0.5864 -0.9468
   65bbb     C2 1889   4.283   5.270   6.301 -0.5940  0.3035  0.1221
   65bbb     H3 1890   4.269   5.162   6.315 -1.3602  0.4465  0.4977
   65bbb     H4 1891   4.306   5.311   6.400  1.6951 -0.7736  0.1030
   65bbb     C3 1892   4.149   5.481   6.222 -0.2019  0.3419  0.0506
   65bbb     H5 1893   4.053   5.513   6.179  0.9050 -0.4027 -3.3178
   65bbb     H6 1894   4.218   5.516   6.143 -0.1291 -0.2806 -0.1695
   65bbb     C4 1895   4.182   5.561   6.348  0.6354  0.3212  0.4593
   65bbb     H7 1896   4.286   5.538   6.376 -0.4088 -4.1952  1.4430
   65bbb     H8 1897   4.123   5.530   6.435  1.4481  1.7557  1.5657
   65bbb     C5 1898   4.102   5.106   6.096 -0.4002 -0.3404 -0.0383
   65bbb     H9 1899   4.185   5.056   6.148 -0.9227 -1.2242 -0.0252
   65bbb    H10 1900   4.106   5.084   5.989 -1.0579  0.3216 -0.2037
   65bbb     C6 1901   4.414   5.291   6.219 -0.4217  0.9642  0.2073
   65bbb    H11 1902   4.430   5.400   6.216 -2.9497  1.5705  3.1936
   65bbb    H12 1903   4.403   5.265   6.113  3.7263 -0.8230  0.0076
   65bbb     C7 1904   4.163   5.708   6.322  0.1413  0.4508 -1.1853
   65bbb    H13 1905   4.154   5.757   6.419  0.7280  0.3801 -1.0918
   65bbb    H14 1906   4.073   5.742   6.268 -2.0008  0.0423  1.8850
   65bbb     C8 1907   4.549   5.233   6.272  0.6783 -0.2021 -0.1238
   65bbb    H15 1908   4.534   5.125   6.273 -1.1094 -0.0448 -2.0987
   65bbb    H16 1909   4.589   5.275   6.365  3.4632 -1.1205 -0.8080
   65bbb     C9 1910   3.965   5.062   6.161 -0.2809 -0.1547  0.6589
   65bbb    H17 1911   3.893   5.074   6.080  0.1922  1.2529  0.4078
   65bbb    H18 1912   3.923   5.144   6.222 -2.9853  0.0303 -1.2639
   65bbb     O1 1913   4.281   5.748   6.255 -0.2417 -0.9924 -0.2744
   66bbb     N1 1914   3.141   8.184   7.002 -0.9528  0.1133 -0.1129
   66bbb     C1 1915   3.213   8.270   6.907 -0.9320  0.2867 -0.3624
   66bbb     H1 1916   3.219   8.214   6.813 -1.5775  1.6318 -1.2265
   66bbb     H2 1917   3.317   8.290   6.936 -1.3572  0.0319  1.4741
   66bbb     C2 1918   3.012   8.130   6.949  0.3847  0.0568  0.2172
   66bbb     H3 1919   3.000   8.129   6.840 -2.1926 -0.1591  0.4528
   66bbb     H4 1920   2.929   8.186   6.994  0.5260  0.4538 -0.0051
   66bbb     C3 1921   3.125   8.230   7.144  1.5502  0.7795 -0.3032
   66bbb     H5 1922   3.076   8.146   7.195  0.8688  1.6671  0.5577
   66bbb     H6 1923   3.060   8.318   7.152 -1.5487 -1.3155 -0.7917
   66bbb     C4 1924   3.251   8.280   7.205  0.9446 -0.1009  0.0065
   66bbb     H7 1925   3.228   8.288   7.312  2.9828 -2.5952  0.7337
   66bbb     H8 1926   3.278   8.377   7.161 -1.0169  0.9374  0.9767
   66bbb     C5 1927   3.139   8.408   6.889  0.6007 -0.0430  0.4100
   66bbb     H9 1928   3.122   8.456   6.986  1.4884 -0.0223  0.5666
   66bbb    H10 1929   3.042   8.381   6.844 -0.1384 -0.7629  2.3527
   66bbb     C6 1930   2.986   7.987   7.002 -0.2002 -0.3652 -0.1835
   66bbb    H11 1931   2.890   7.947   6.969 -0.2079 -2.4140  2.0902
   66bbb    H12 1932   2.978   7.990   7.111 -1.7488  0.3654 -0.2962
   66bbb     C7 1933   3.375   8.183   7.187  0.0886  0.2716  0.0214
   66bbb    H13 1934   3.460   8.240   7.226  1.9817 -0.8400 -2.2351
   66bbb    H14 1935   3.409   8.167   7.084  1.0240 -2.8362  0.7063
   66bbb     C8 1936   3.092   7.881   6.975 -0.7421  0.4673 -0.0967
   66bbb    H15 1937   3.066   7.782   7.016  1.1862  0.0288  0.1888
   66bbb    H16 1938   3.188   7.913   7.018 -0.3922  2.8611 -2.4649
   66bbb     C9 1939   3.222   8.505   6.806  0.1228 -0.2587 -0.4366
   66bbb    H17 1940   3.172   8.603   6.808 -0.5135 -0.4990 -2.1902
   66bbb    H18 1941   3.235   8.488   6.698 -0.0127 -0.5314 -0.4118
   66bbb     O1 1942   3.363   8.060   7.253  0.0022 -0.0665 -0.1004
   67bbb     N1 1943   2.607   7.653   6.858  0.0266  0.3230  0.8146
   67bbb     C1 1944   2.471   7.600   6.831  0.2058  0.2129  0.2412
   67bbb     H1 1945   2.394   7.673   6.801  0.4998  0.0695 -0.8855
   67bbb     H2 1946   2.423   7.556   6.920 -1.5346 -1.4549 -1.4404
   67bbb     C2 1947   2.674   7.722   6.747  0.4030  0.0021 -0.0093
   67bbb     H3 1948   2.688   7.655   6.661  0.5013  0.5709 -0.4436
   67bbb     H4 1949   2.772   7.760   6.778  0.0817  1.7059 -0.9624
   67bbb     C3 1950   2.692   7.551   6.936 -0.5159  0.0046  0.1869
   67bbb     H5 1951   2.713   7.475   6.860 -1.8442  2.1345 -2.5030
   67bbb     H6 1952   2.637   7.507   7.020 -0.3631 -3.2558 -1.2817
   67bbb     C4 1953   2.834   7.590   6.988  0.3544 -0.0039  0.7025
   67bbb     H7 1954   2.832   7.673   7.060 -1.1576 -0.0665  0.7783
   67bbb     H8 1955   2.899   7.609   6.902 -0.7328  1.2635  0.1123
   67bbb     C5 1956   2.453   7.483   6.740  0.1629  0.0405  0.0398
   67bbb     H9 1957   2.526   7.406   6.769 -1.8490 -1.6041  0.9332
   67bbb    H10 1958   2.472   7.499   6.633 -1.0393 -2.2795 -0.5917
   67bbb     C6 1959   2.600   7.850   6.696  0.2629 -0.3778  0.1370
   67bbb    H11 1960   2.589   7.928   6.772  0.8112  0.7117 -0.8662
   67bbb    H12 1961   2.501   7.811   6.671 -0.2863  1.7673 -1.3371
   67bbb     C7 1962   2.900   7.470   7.065  0.1265  0.6160 -0.3616
   67bbb    H13 1963   2.903   7.384   6.998 -2.1401 -0.1213  0.4076
   67bbb    H14 1964   2.828   7.445   7.144  1.1507  0.4920  0.5559
   67bbb     C8 1965   2.669   7.902   6.568 -0.0984 -0.0780 -0.2504
   67bbb    H15 1966   2.590   7.957   6.516  0.1153 -0.2490 -0.7731
   67bbb    H16 1967   2.703   7.815   6.509 -3.7969 -0.2525 -2.4418
   67bbb     C9 1968   2.312   7.417   6.737  0.2280  0.7884  0.3686
   67bbb    H17 1969   2.276   7.403   6.634  1.1526  1.3849 -0.0406
   67bbb    H18 1970   2.238   7.477   6.793  1.4390  2.1198  0.5937
   67bbb     O1 1971   3.027   7.502   7.124 -0.0625  0.5620  0.5084
   68bbb     N1 1972   3.509   7.569   7.755 -0.4063 -0.5458 -0.0931
   68bbb     C1 1973   3.525   7.703   7.809  0.2353 -0.2851  0.6406
   68bbb     H1 1974   3.567   7.695   7.910  1.9543 -1.7086 -0.1318
   68bbb     H2 1975   3.431   7.757   7.825  0.2263 -0.3087  0.6668
   68bbb     C2 1976   3.436   7.473   7.849 -0.4775 -0.4965  0.2448
   68bbb     H3 1977   3.493   7.432   7.933 -1.8165  0.4540  1.6881
   68bbb     H4 1978   3.408   7.389   7.786 -2.1524  1.2389 -1.4501
   68bbb     C3 1979   3.624   7.504   7.704  0.6399 -0.1340 -0.2622
   68bbb     H5 1980   3.665   7.580   7.636 -2.6000  1.5878 -0.5017
   68bbb     H6 1981   3.598   7.418   7.642 -1.0980  0.4125 -0.3421
   68bbb     C4 1982   3.745   7.480   7.797  0.2591 -0.5820 -0.3294
   68bbb     H7 1983   3.707   7.426   7.885  0.5913  0.2376  0.3303
   68bbb     H8 1984   3.774   7.577   7.839 -1.2099 -0.1233 -0.3081
   68bbb     C5 1985   3.597   7.806   7.717  0.5900 -0.1366  0.2052
   68bbb     H9 1986   3.570   7.795   7.612  0.7762  0.3904  0.0982
   68bbb    H10 1987   3.706   7.795   7.712  0.3450 -2.1492 -2.5741
   68bbb     C6 1988   3.309   7.533   7.912 -0.7572  0.1643 -0.7338
   68bbb    H11 1989   3.246   7.563   7.827 -0.9971  1.3553 -0.1601
   68bbb    H12 1990   3.345   7.613   7.978  1.7303 -2.8144  1.8611
   68bbb     C7 1991   3.870   7.418   7.728  0.0778  0.5499  0.5100
   68bbb    H13 1992   3.928   7.498   7.679  0.4172 -1.7879 -3.2564
   68bbb    H14 1993   3.839   7.354   7.645  1.2637 -0.5204  0.8549
   68bbb     C8 1994   3.231   7.430   7.995 -0.0315 -0.7101 -0.3602
   68bbb    H15 1995   3.279   7.416   8.093  1.3967  3.9465 -0.1561
   68bbb    H16 1996   3.216   7.348   7.924  1.2809  1.6415 -3.5442
   68bbb     C9 1997   3.574   7.954   7.765  0.0399  0.3196 -0.1812
   68bbb    H17 1998   3.625   7.967   7.862 -0.8688 -0.0221  0.3564
   68bbb    H18 1999   3.468   7.972   7.783 -0.1386 -1.2438  0.5632
   68bbb     O1 2000   3.946   7.362   7.839 -0.4175  0.7018  0.1184
   69bbb     N1 2001   3.236   6.718   8.046  0.2618  0.7784 -0.4958
   69bbb     C1 2002   3.153   6.624   7.962  0.5041 -0.7465  0.4993
   69bbb     H1 2003   3.195   6.624   7.861 -1.3058 -1.2301 -0.2954
   69bbb     H2 2004   3.052   6.665   7.955  0.6695  0.0698  2.2414
   69bbb     C2 2005   3.195   6.858   8.046  0.7979 -0.0581  0.6458
   69bbb     H3 2006   3.106   6.886   7.989  0.5998  0.3962  1.1675
   69bbb     H4 2007   3.270   6.922   7.999 -0.4661  0.8151 -0.2369
   69bbb     C3 2008   3.380   6.692   8.032 -0.1503 -0.1208 -0.0015
   69bbb     H5 2009   3.426   6.751   7.952  0.5311  0.8410  1.0665
   69bbb     H6 2010   3.388   6.586   8.006 -0.8881  0.3635 -2.5453
   69bbb     C4 2011   3.465   6.727   8.157  0.1712  0.3810 -0.1869
   69bbb     H7 2012   3.438   6.668   8.246  0.2241  0.4565 -0.1193
   69bbb     H8 2013   3.446   6.833   8.179 -3.0769  0.0800 -1.0350
   69bbb     C5 2014   3.135   6.480   8.013  0.4410 -0.1568 -0.4065
   69bbb     H9 2015   3.234   6.437   7.996  0.3430  0.0139 -1.4805
   69bbb    H10 2016   3.065   6.428   7.947 -1.5241  1.1797  0.5149
   69bbb     C6 2017   3.171   6.920   8.186  0.4305  0.2420  0.1545
   69bbb    H11 2018   3.104   7.005   8.165 -0.2094 -0.2577  0.1423
   69bbb    H12 2019   3.259   6.965   8.233 -0.8733  0.5151  2.4903
   69bbb     C7 2020   3.613   6.698   8.147  0.1679  0.0831  0.2430
   69bbb    H13 2021   3.622   6.589   8.143  1.0560  0.2044 -2.9305
   69bbb    H14 2022   3.670   6.730   8.235 -2.2430  1.2082  1.5095
   69bbb     C8 2023   3.101   6.814   8.276 -0.3592  0.1130 -0.3151
   69bbb    H15 2024   3.157   6.721   8.295 -0.1507 -0.3902 -2.9589
   69bbb    H16 2025   3.011   6.778   8.224 -0.1303 -1.9777  0.6479
   69bbb     C9 2026   3.076   6.458   8.153  0.4099  0.3245  0.2461
   69bbb    H17 2027   3.143   6.499   8.230 -2.7135  1.1502  2.7490
   69bbb    H18 2028   3.056   6.351   8.165  0.2407  0.2647 -0.5631
   69bbb     O1 2029   3.662   6.753   8.015  0.3977  0.0030  0.1324
   70bbb     N1 2030   6.036   8.182   8.758 -0.0411  0.2876  0.2415
   70bbb     C1 2031   5.998   8.116   8.888 -0.3106 -0.3239  0.4485
   70bbb     H1 2032   5.979   8.009   8.875 -1.4151 -0.0519 -0.4004
   70bbb     H2 2033   5.906   8.162   8.929  1.1337  1.0688  2.3236
   70bbb     C2 2034   6.100   8.085   8.657  0.3883 -0.1235 -0.3914
   70bbb     H3 2035   6.188   8.036   8.699  0.0397 -2.3028 -2.0475
   70bbb     H4 2036   6.125   8.142   8.567  1.8678  2.5225  1.5211
   70bbb     C3 2037   5.918   8.259   8.704 -0.0209 -0.5710  0.3054
   70bbb     H5 2038   5.885   8.337   8.774  0.1022  1.4130 -1.7337
   70bbb     H6 2039   5.838   8.187   8.682 -0.1330 -0.2826 -0.2434
   70bbb     C4 2040   5.963   8.342   8.578  0.5466  0.2707 -0.0407
   70bbb     H7 2041   5.982   8.282   8.489  2.7255  0.0747  0.4816
   70bbb     H8 2042   6.053   8.400   8.603  0.0266  1.1931 -0.2425
   70bbb     C5 2043   6.109   8.125   8.995 -0.1665 -0.3027  0.5630
   70bbb     H9 2044   6.058   8.108   9.090 -1.6394  0.8055  0.0008
   70bbb    H10 2045   6.135   8.231   9.003  3.2511 -1.1211  2.0656
   70bbb     C6 2046   6.005   7.971   8.608 -0.2109  0.2534  0.1244
   70bbb    H11 2047   5.908   8.013   8.579 -0.5858 -1.1024 -0.6892
   70bbb    H12 2048   5.981   7.895   8.684  0.0738 -0.1706 -0.2023
   70bbb     C7 2049   5.849   8.438   8.540  0.6413  0.2261 -0.5043
   70bbb    H13 2050   5.837   8.509   8.623  0.2052 -0.7871  0.3212
   70bbb    H14 2051   5.758   8.376   8.535  0.6936  0.2665 -2.7655
   70bbb     C8 2052   6.077   7.901   8.486  0.5528  0.0843 -0.4358
   70bbb    H15 2053   6.092   7.976   8.408 -0.8375  1.4681  0.5638
   70bbb    H16 2054   6.015   7.827   8.435  1.0792 -0.3112 -0.5090
   70bbb     C9 2055   6.223   8.028   8.987  0.0472  0.3567 -0.3355
   70bbb    H17 2056   6.305   8.076   9.041  0.0696  0.9293 -0.8634
   70bbb    H18 2057   6.253   8.013   8.883  1.5599  0.6590  0.0378
   70bbb     O1 2058   5.872   8.498   8.408  0.1581  0.0611 -0.3977
   71bbb     N1 2059   5.960   8.418   7.087 -0.2104 -0.0325 -0.2624
   71bbb     C1 2060   5.812   8.424   7.055  0.5153  0.4432  0.4176
   71bbb     H1 2061   5.798   8.459   6.953  1.2986  3.1315  1.1468
   71bbb     H2 2062   5.765   8.498   7.120 -0.7086 -0.0225  0.0902
   71bbb     C2 2063   6.033   8.533   7.034  0.2494 -0.2362 -0.3470
   71bbb     H3 2064   6.137   8.540   7.066  0.1801  0.1878 -0.2124
   71bbb     H4 2065   5.989   8.625   7.075 -0.3475 -1.5552  2.1929
   71bbb     C3 2066   5.994   8.379   7.227  0.0021 -0.4034 -0.1466
   71bbb     H5 2067   6.101   8.357   7.233 -0.4448 -2.5478  0.8328
   71bbb     H6 2068   5.941   8.286   7.251 -0.1259 -0.6779 -1.4105
   71bbb     C4 2069   5.960   8.490   7.327 -0.0024 -0.5359 -0.4808
   71bbb     H7 2070   5.877   8.557   7.302 -0.3448 -0.5917  0.4776
   71bbb     H8 2071   6.053   8.546   7.347  0.9061 -2.6615  1.7968
   71bbb     C5 2072   5.729   8.295   7.061 -0.6088 -0.1704 -0.0520
   71bbb     H9 2073   5.624   8.318   7.039 -0.2714  1.2351 -0.2835
   71bbb    H10 2074   5.737   8.253   7.162  0.8028 -1.4830 -0.6785
   71bbb     C6 2075   6.047   8.543   6.879 -0.2543 -0.4319 -0.6423
   71bbb    H11 2076   6.099   8.637   6.859 -1.2598  0.2147 -0.2518
   71bbb    H12 2077   5.953   8.543   6.823 -0.1788 -0.5976 -0.7712
   71bbb     C7 2078   5.917   8.429   7.464  0.6447  0.3651 -0.4223
   71bbb    H13 2079   5.962   8.333   7.491  2.0097 -0.0442 -3.7464
   71bbb    H14 2080   5.813   8.397   7.448  0.9015 -0.6940 -0.0685
   71bbb     C8 2081   6.127   8.422   6.824 -0.2848  0.3109 -0.0830
   71bbb    H15 2082   6.056   8.339   6.837  1.4343 -1.2663 -0.3358
   71bbb    H16 2083   6.216   8.404   6.886 -0.3272  1.0274  0.1991
   71bbb     C9 2084   5.777   8.184   6.962  0.1700 -0.3495  0.0209
   71bbb    H17 2085   5.812   8.102   7.026  0.4893  1.2250  2.0044
   71bbb    H18 2086   5.864   8.220   6.906  1.1902 -1.5218  0.7910
   71bbb     O1 2087   5.931   8.522   7.574  0.0789  0.1937 -0.6172
   72bbb     N1 2088   4.254   7.906   9.179  0.2680  0.5093 -0.0752
   72bbb     C1 2089   4.200   7.789   9.254  0.1838  0.8007  0.0183
   72bbb     H1 2090   4.094   7.798   9.279 -0.0457  1.9297 -1.2411
   72bbb     H2 2091   4.261   7.781   9.345 -0.6571  3.8101  0.9507
   72bbb     C2 2092   4.205   8.031   9.240  0.1236  0.7824  0.3713
   72bbb     H3 2093   4.271   8.110   9.202  1.1037 -0.1426  0.0991
   72bbb     H4 2094   4.215   8.025   9.349 -0.4372 -0.7898  0.3642
   72bbb     C3 2095   4.402   7.895   9.175  0.0061  0.7327 -0.2070
   72bbb     H5 2096   4.424   7.796   9.134 -0.1202  0.2172  0.9335
   72bbb     H6 2097   4.431   7.899   9.281  0.0552  0.4109 -0.2078
   72bbb     C4 2098   4.480   8.003   9.098  0.6191 -0.1747 -0.0434
   72bbb     H7 2099   4.441   8.103   9.119  0.4331 -0.3378  0.4057
   72bbb     H8 2100   4.457   7.980   8.994 -1.9738  1.9157 -0.0291
   72bbb     C5 2101   4.202   7.654   9.181  0.2641 -0.1677 -0.1189
   72bbb     H9 2102   4.161   7.570   9.239 -1.4924  0.1914 -0.7845
   72bbb    H10 2103   4.305   7.635   9.151 -0.0690 -0.4698 -1.1165
   72bbb     C6 2104   4.054   8.060   9.207  0.3415 -0.0719 -0.0308
   72bbb    H11 2105   3.991   7.977   9.239  0.8557 -0.6423 -0.4783
   72bbb    H12 2106   4.044   8.062   9.098 -0.7175  0.3765  0.0589
   72bbb     C7 2107   4.634   7.987   9.107  0.6706 -0.4887  0.0342
   72bbb    H13 2108   4.677   7.898   9.059  0.2990  0.1251 -1.4668
   72bbb    H14 2109   4.666   7.967   9.210 -0.0982  0.6988  0.5231
   72bbb     C8 2110   3.993   8.183   9.271  0.7360 -1.0193  0.0618
   72bbb    H15 2111   4.032   8.275   9.226 -0.2021 -1.4179 -1.6551
   72bbb    H16 2112   4.023   8.188   9.376  1.3042  3.4127 -0.1051
   72bbb     C9 2113   4.108   7.665   9.057  0.8471  0.4957 -0.7206
   72bbb    H17 2114   4.119   7.581   8.988  0.0927  1.1786 -1.7058
   72bbb    H18 2115   4.133   7.755   9.000 -0.0528  1.7372  0.7581
   72bbb     O1 2116   4.686   8.111   9.058 -0.0683 -0.8754  0.0176
   73bbb     N1 2117   5.554   7.934   9.582 -0.3502 -0.6803  0.0185
   73bbb     C1 2118   5.495   7.841   9.680  0.4511 -0.1761 -0.3472
   73bbb     H1 2119   5.440   7.899   9.756  2.7466  1.2896  0.2931
   73bbb     H2 2120   5.571   7.781   9.732  0.7410  1.3376  1.0519
   73bbb     C2 2121   5.638   8.040   9.642 -0.3383 -0.2495  0.3789
   73bbb     H3 2122   5.587   8.098   9.720 -2.1179 -0.4462 -0.5977
   73bbb     H4 2123   5.676   8.107   9.564 -0.7107 -0.7969 -0.2850
   73bbb     C3 2124   5.467   7.978   9.470  0.5300 -0.5085  0.7939
   73bbb     H5 2125   5.400   7.902   9.427  0.9664 -0.5283  0.1415
   73bbb     H6 2126   5.530   7.990   9.381 -0.6156 -1.2283 -0.1488
   73bbb     C4 2127   5.371   8.101   9.500  0.0429  0.2747  0.1704
   73bbb     H7 2128   5.419   8.194   9.535 -0.9134 -0.4820  3.9679
   73bbb     H8 2129   5.310   8.074   9.587 -0.4380 -1.0352 -0.5535
   73bbb     C5 2130   5.389   7.741   9.620 -0.5244  0.5540 -0.0474
   73bbb     H9 2131   5.421   7.679   9.535 -3.3577 -0.6729 -0.3073
   73bbb    H10 2132   5.307   7.797   9.575 -0.1235  1.1817 -0.0152
   73bbb     C6 2133   5.759   7.982   9.706  0.1757  0.0411 -0.0794
   73bbb    H11 2134   5.824   7.925   9.638  2.1320  2.1182 -0.0733
   73bbb    H12 2135   5.724   7.909   9.780  1.0737 -1.7757 -1.3617
   73bbb     C7 2136   5.283   8.140   9.381  0.1685 -0.0631 -0.4329
   73bbb    H13 2137   5.219   8.226   9.403 -0.2034 -0.3470 -0.4101
   73bbb    H14 2138   5.224   8.055   9.346  0.5614 -0.9974  1.0850
   73bbb     C8 2139   5.854   8.083   9.774  0.1671  0.2884 -0.4538
   73bbb    H15 2140   5.879   8.159   9.699  1.2743  1.5215  1.1044
   73bbb    H16 2141   5.947   8.028   9.798  1.0381  1.9285  0.0611
   73bbb     C9 2142   5.338   7.652   9.731 -0.6925 -0.0421  0.1663
   73bbb    H17 2143   5.318   7.711   9.821  1.0587  0.3461  0.3428
   73bbb    H18 2144   5.424   7.594   9.768 -2.1261 -2.1384  0.3924
   73bbb     O1 2145   5.387   8.188   9.290  0.3288 -0.1050  0.7975
   74bbb     N1 2146   3.427   7.049   7.610 -0.3449 -0.0777  0.0484
   74bbb     C1 2147   3.484   7.051   7.750 -0.4189  1.3345 -1.0053
   74bbb     H1 2148   3.487   6.949   7.791 -1.6460  1.9624  0.7459
   74bbb     H2 2149   3.421   7.110   7.817  0.2608  0.5334  0.3842
   74bbb     C2 2150   3.289   7.012   7.602 -0.0287  0.5557 -0.1579
   74bbb     H3 2151   3.275   6.920   7.660  0.9744  1.1393  1.0395
   74bbb     H4 2152   3.256   7.002   7.498  2.0160  1.1532 -0.9270
   74bbb     C3 2153   3.507   6.981   7.505 -0.0881  0.0392  1.0507
   74bbb     H5 2154   3.483   6.874   7.511 -2.5085  0.4249 -0.3541
   74bbb     H6 2155   3.614   6.997   7.521  0.2471 -1.2552  0.2350
   74bbb     C4 2156   3.483   7.033   7.360  0.2981  0.2044 -0.4089
   74bbb     H7 2157   3.467   7.141   7.369  2.4789  0.5108  0.4508
   74bbb     H8 2158   3.392   6.987   7.320 -1.2418  1.0300  1.9519
   74bbb     C5 2159   3.619   7.126   7.772  0.5338  0.5217 -0.6629
   74bbb     H9 2160   3.629   7.221   7.717  0.0607  0.4294 -0.9109
   74bbb    H10 2161   3.693   7.065   7.720  0.7616  0.6238 -0.4626
   74bbb     C6 2162   3.191   7.120   7.658 -0.2652  0.4508  0.0675
   74bbb    H11 2163   3.220   7.153   7.759  1.6041 -2.1956  0.4919
   74bbb    H12 2164   3.093   7.069   7.655  0.3233 -0.7121  0.0893
   74bbb     C7 2165   3.606   6.995   7.276  0.2907 -0.2571 -0.4496
   74bbb    H13 2166   3.620   6.886   7.266  1.8066 -0.1558  0.2097
   74bbb    H14 2167   3.695   7.040   7.321  0.0125 -1.3491  1.2790
   74bbb     C8 2168   3.194   7.241   7.564 -0.1234  0.1815 -0.0862
   74bbb    H15 2169   3.153   7.208   7.468  1.5509  0.5367 -0.9612
   74bbb    H16 2170   3.300   7.269   7.562 -0.4999  1.7958  0.4301
   74bbb     C9 2171   3.665   7.136   7.923  0.4713  0.2546 -0.8072
   74bbb    H17 2172   3.763   7.186   7.933 -0.0714  0.9728  1.5259
   74bbb    H18 2173   3.675   7.036   7.967 -1.2233  0.6860  0.6497
   74bbb     O1 2174   3.597   7.067   7.147 -0.1385  1.1376 -0.2316
   75bbb     N1 2175   2.751   7.225   6.532  0.8167 -0.0844 -0.4535
   75bbb     C1 2176   2.741   7.127   6.649 -0.8237  0.1336  0.7792
   75bbb     H1 2177   2.650   7.137   6.709 -2.6408  0.0613 -1.8053
   75bbb     H2 2178   2.831   7.138   6.711 -1.1984  2.9764  0.9241
   75bbb     C2 2179   2.654   7.218   6.422 -0.2355  0.6711  0.8530
   75bbb     H3 2180   2.668   7.131   6.357  0.4356  1.1581  0.3317
   75bbb     H4 2181   2.671   7.298   6.349 -2.0320  0.6228  0.3286
   75bbb     C3 2182   2.796   7.361   6.558 -0.7428 -0.2679 -0.4733
   75bbb     H5 2183   2.708   7.420   6.586 -0.9537  0.3084 -2.2403
   75bbb     H6 2184   2.823   7.405   6.462  3.1663  3.3156  1.9409
   75bbb     C4 2185   2.919   7.390   6.650  0.3358 -0.2977 -0.3112
   75bbb     H7 2186   2.896   7.363   6.754 -0.1566  1.8351  0.1851
   75bbb     H8 2187   2.923   7.500   6.646  0.7892 -0.2244  1.4520
   75bbb     C5 2188   2.732   6.983   6.601  0.0615 -0.0658 -0.1916
   75bbb     H9 2189   2.810   6.971   6.525  0.7365  0.0402  0.4695
   75bbb    H10 2190   2.639   6.972   6.543  0.8936 -0.4544 -1.4879
   75bbb     C6 2191   2.503   7.214   6.472  0.3866 -0.8525 -0.7354
   75bbb    H11 2192   2.478   7.296   6.541  0.6469 -0.7054 -0.8173
   75bbb    H12 2193   2.492   7.127   6.538 -2.0947  0.9237  1.3982
   75bbb     C7 2194   3.049   7.335   6.600 -0.2765 -0.4652  0.4886
   75bbb    H13 2195   3.080   7.373   6.502 -2.8602  0.5269 -0.0285
   75bbb    H14 2196   3.041   7.226   6.602  3.7540 -0.9321 -0.1266
   75bbb     C8 2197   2.394   7.211   6.357 -0.0295  0.9222 -0.1346
   75bbb    H15 2198   2.400   7.125   6.290 -0.0860  1.4482 -0.8215
   75bbb    H16 2199   2.408   7.306   6.303 -2.9817  2.2194  1.1725
   75bbb     C9 2200   2.724   6.880   6.711  0.0474  0.1363  0.5227
   75bbb    H17 2201   2.718   6.780   6.665 -0.3627  0.8600 -1.0859
   75bbb    H18 2202   2.632   6.894   6.769  0.3786  2.1748  0.6228
   75bbb     O1 2203   3.151   7.367   6.694 -0.0247  0.1078  0.0524
   76bbb     N1 2204   4.950   6.878   7.363  0.8445  0.4867 -0.2843
   76bbb     C1 2205   5.067   6.944   7.434 -0.1296  0.2747 -0.0808
   76bbb     H1 2206   5.035   7.022   7.504 -1.2688 -2.2989  2.4588
   76bbb     H2 2207   5.137   6.989   7.363  1.3295 -2.6932 -0.6908
   76bbb     C2 2208   4.867   6.781   7.447 -0.5021  0.1851  0.4277
   76bbb     H3 2209   4.929   6.709   7.502 -0.2052 -0.1661 -0.3469
   76bbb     H4 2210   4.795   6.733   7.380 -1.1934  0.2467  1.1163
   76bbb     C3 2211   4.871   6.977   7.288 -0.3994 -0.7692 -0.5189
   76bbb     H5 2212   4.933   7.017   7.207  0.0686  1.5978  0.8859
   76bbb     H6 2213   4.855   7.066   7.351 -0.4845 -0.3972 -1.0538
   76bbb     C4 2214   4.735   6.936   7.224 -0.0368  0.4869  0.5849
   76bbb     H7 2215   4.663   6.897   7.297 -0.8930  3.9604  1.7929
   76bbb     H8 2216   4.736   6.861   7.144 -2.0500  2.0353 -0.9857
   76bbb     C5 2217   5.160   6.847   7.503 -0.6148 -0.0652 -0.4057
   76bbb     H9 2218   5.112   6.792   7.584 -0.9741  0.2322 -0.4145
   76bbb    H10 2219   5.240   6.906   7.550 -0.7551 -0.6777  0.6279
   76bbb     C6 2220   4.789   6.853   7.561 -0.3921  0.0651 -0.4741
   76bbb    H11 2221   4.731   6.935   7.518 -2.6708 -1.6891 -0.9559
   76bbb    H12 2222   4.869   6.889   7.627  0.6739 -1.4792 -0.8628
   76bbb     C7 2223   4.659   7.061   7.172  0.3542  0.0646  0.3418
   76bbb    H13 2224   4.554   7.037   7.149  0.4166  1.1358 -1.2029
   76bbb    H14 2225   4.700   7.098   7.078 -0.5872  0.5579  0.1128
   76bbb     C8 2226   4.684   6.762   7.635  0.7373 -0.1228  0.1119
   76bbb    H15 2227   4.597   6.765   7.569  0.4193  1.1509  0.5523
   76bbb    H16 2228   4.650   6.809   7.728 -1.0185 -1.7125  0.3266
   76bbb     C9 2229   5.229   6.741   7.404 -0.3340 -0.3292  0.1194
   76bbb    H17 2230   5.265   6.785   7.311 -0.7360 -1.3126 -0.5170
   76bbb    H18 2231   5.162   6.662   7.366  0.6366 -1.0672 -0.0826
   76bbb     O1 2232   4.661   7.158   7.282 -0.1306 -0.0374  0.0679
   77bbb     N1 2233   5.043   6.882   8.079 -0.2736  0.6024  0.5847
   77bbb     C1 2234   5.110   6.830   8.203  0.1414 -0.5374 -0.0226
   77bbb     H1 2235   5.110   6.914   8.274 -1.0764  2.7544 -3.5359
   77bbb     H2 2236   5.214   6.807   8.177  0.3491 -1.0139  1.1485
   77bbb     C2 2237   5.126   6.978   8.000  0.0139  0.6380 -0.1085
   77bbb     H3 2238   5.117   7.070   8.059  1.1035  0.0512  1.0119
   77bbb     H4 2239   5.082   6.994   7.901  0.2305  0.3310 -0.2528
   77bbb     C3 2240   4.897   6.913   8.092  0.9593 -0.0583 -0.2753
   77bbb     H5 2241   4.897   7.003   8.154  3.9095 -0.3251  0.2742
   77bbb     H6 2242   4.848   6.832   8.148  0.3363 -0.2156 -1.0231
   77bbb     C4 2243   4.818   6.929   7.962 -0.3113  0.5676  0.0324
   77bbb     H7 2244   4.809   6.830   7.914 -1.5156  0.4729  0.4233
   77bbb     H8 2245   4.861   7.006   7.897 -0.4609  0.8891  0.3115
   77bbb     C5 2246   5.037   6.702   8.266 -0.8747  0.0647  0.0795
   77bbb     H9 2247   5.024   6.637   8.178  0.9927  0.8591 -0.8443
   77bbb    H10 2248   4.940   6.730   8.308 -0.3863  1.5260  0.3100
   77bbb     C6 2249   5.277   6.947   7.973  0.3194  0.2875  0.6743
   77bbb    H11 2250   5.336   6.962   8.065 -0.1325 -0.7699  1.1567
   77bbb    H12 2251   5.308   7.027   7.905 -2.1759  1.6179  0.9760
   77bbb     C7 2252   4.676   6.973   8.004  0.8109  0.3484 -0.4709
   77bbb    H13 2253   4.686   7.041   8.089 -0.8978  0.2837 -0.1851
   77bbb    H14 2254   4.627   6.879   8.033  1.2872  0.6400  1.3903
   77bbb     C8 2255   5.315   6.816   7.899  0.0368  0.0780 -0.1634
   77bbb    H15 2256   5.279   6.817   7.796  0.2640  0.1793 -0.2439
   77bbb    H16 2257   5.282   6.722   7.943 -1.7322 -0.3247 -2.2178
   77bbb     C9 2258   5.128   6.631   8.377  0.6482 -0.0864 -0.5750
   77bbb    H17 2259   5.157   6.700   8.457  1.5881  1.3435 -2.0866
   77bbb    H18 2260   5.222   6.596   8.332 -0.4789 -0.9779 -2.3423
   77bbb     O1 2261   4.603   7.027   7.894  0.0143 -0.0648  0.1940
   78bbb     N1 2262   6.058   8.416   9.508  0.1341 -0.4103  0.2608
   78bbb     C1 2263   6.071   8.323   9.623  0.4210  0.1989 -1.0628
   78bbb     H1 2264   6.065   8.219   9.588  2.2067 -1.6823  3.4821
   78bbb     H2 2265   5.983   8.341   9.686  1.7546 -0.7923  1.1951
   78bbb     C2 2266   6.072   8.564   9.546  0.5547  0.6141  0.0296
   78bbb     H3 2267   6.064   8.606   9.445  2.0585 -1.9436 -1.2328
   78bbb     H4 2268   6.172   8.596   9.577  0.6099 -0.5427  1.1195
   78bbb     C3 2269   5.938   8.396   9.424  0.4241  0.0066 -0.7516
   78bbb     H5 2270   5.912   8.481   9.361 -1.3287 -0.0855 -0.2180
   78bbb     H6 2271   5.858   8.387   9.499 -0.0752  2.4591 -0.9024
   78bbb     C4 2272   5.940   8.261   9.351 -0.0316 -0.5270  0.1385
   78bbb     H7 2273   5.946   8.182   9.427  0.1731 -1.2068 -0.5703
   78bbb     H8 2274   6.033   8.262   9.292  0.2909  1.9784  0.5568
   78bbb     C5 2275   6.196   8.330   9.716  0.2681 -0.7271 -0.7059
   78bbb     H9 2276   6.207   8.246   9.786 -0.5055  0.2094  0.5813
   78bbb    H10 2277   6.191   8.413   9.787  2.5237 -1.3281  0.2308
   78bbb     C6 2278   5.959   8.623   9.633  0.9208 -1.0679  0.1961
   78bbb    H11 2279   5.969   8.579   9.733 -0.6591  0.8696  1.2934
   78bbb    H12 2280   5.860   8.586   9.602 -0.8448  1.7193  2.0737
   78bbb     C7 2281   5.810   8.242   9.271 -0.9061 -0.4491 -0.0063
   78bbb    H13 2282   5.808   8.305   9.182  0.4811 -0.1496  0.1476
   78bbb    H14 2283   5.722   8.265   9.332 -0.0262  1.8213  0.5000
   78bbb     C8 2284   5.950   8.774   9.636 -0.2112  0.5024 -0.4856
   78bbb    H15 2285   5.854   8.810   9.676 -0.7983 -2.7206  1.3255
   78bbb    H16 2286   5.960   8.814   9.534  1.8147  1.8274  0.1891
   78bbb     C9 2287   6.330   8.353   9.651 -0.2888 -0.2466  0.2984
   78bbb    H17 2288   6.348   8.460   9.639  1.6839 -0.3385  1.9247
   78bbb    H18 2289   6.312   8.314   9.550  1.0124 -0.7081  0.2225
   78bbb     O1 2290   5.825   8.110   9.221  0.2238  0.1066 -0.3197
   79bbb     N1 2291   5.755   8.589   9.090 -0.1010  0.1979  0.0670
   79bbb     C1 2292   5.713   8.713   9.150 -0.3949 -0.1343 -0.0601
   79bbb     H1 2293   5.673   8.791   9.084  0.2993 -0.1959 -0.5535
   79bbb     H2 2294   5.803   8.762   9.189  0.5482 -1.1058 -0.9735
   79bbb     C2 2295   5.886   8.587   9.017  0.4794  0.4249  0.5320
   79bbb     H3 2296   5.893   8.674   8.951  0.9799 -0.0132 -0.0083
   79bbb     H4 2297   5.883   8.493   8.960  1.6945 -0.2997  1.6192
   79bbb     C3 2298   5.649   8.516   9.018  0.4884  0.3843 -0.7764
   79bbb     H5 2299   5.556   8.509   9.077  1.4116 -2.0317  0.5300
   79bbb     H6 2300   5.688   8.416   8.996  0.3580  0.5880 -2.0053
   79bbb     C4 2301   5.604   8.582   8.881 -0.7576 -0.4101  0.0328
   79bbb     H7 2302   5.691   8.617   8.825 -2.0460  1.8292 -0.7391
   79bbb     H8 2303   5.546   8.668   8.918  1.2503  0.7426  0.6148
   79bbb     C5 2304   5.610   8.704   9.263  0.0993  0.1631 -0.3673
   79bbb     H9 2305   5.509   8.710   9.221 -0.2615 -1.5098  0.1819
   79bbb    H10 2306   5.631   8.790   9.329 -0.8413  0.9706 -1.0899
   79bbb     C6 2307   6.016   8.584   9.098  0.2783 -0.4654 -0.0115
   79bbb    H11 2308   6.018   8.501   9.169  0.3419 -0.8976 -0.5165
   79bbb    H12 2309   6.012   8.669   9.167 -1.5965 -0.1802 -0.4236
   79bbb     C7 2310   5.514   8.501   8.792  0.2424 -0.5313  0.1096
   79bbb    H13 2311   5.507   8.550   8.694 -2.1176 -0.4947  0.2536
   79bbb    H14 2312   5.412   8.491   8.831 -0.1357  1.8706 -0.1415
   79bbb     C8 2313   6.143   8.587   9.002  1.2510  0.8519  0.8952
   79bbb    H15 2314   6.228   8.635   9.052  0.7447  0.7477  1.8760
   79bbb    H16 2315   6.115   8.645   8.914 -1.6620  0.2491  1.3216
   79bbb     C9 2316   5.616   8.580   9.349  0.4595  0.7080 -0.3805
   79bbb    H17 2317   5.717   8.577   9.392  1.0185 -0.8925 -1.6646
   79bbb    H18 2318   5.601   8.494   9.282 -1.0247  0.0018  0.8244
   79bbb     O1 2319   5.567   8.366   8.785  0.1793 -0.4118 -0.1544
   80bbb     N1 2320   5.606   7.096   8.587 -0.2362 -0.1047  0.6513
   80bbb     C1 2321   5.726   7.173   8.552  0.2987 -0.3084  0.1451
   80bbb     H1 2322   5.792   7.115   8.486 -0.9744 -1.4955 -0.1435
   80bbb     H2 2323   5.782   7.182   8.645 -0.1426 -3.5366  0.8446
   80bbb     C2 2324   5.524   7.024   8.484 -0.0644 -0.6343 -0.9875
   80bbb     H3 2325   5.440   7.083   8.446 -0.0435  0.3406  0.4001
   80bbb     H4 2326   5.470   6.947   8.541 -1.4675  1.1202  0.1639
   80bbb     C3 2327   5.529   7.138   8.703  0.3702  1.2028  0.0665
   80bbb     H5 2328   5.456   7.058   8.720  0.5742  1.1300  0.6365
   80bbb     H6 2329   5.483   7.235   8.679  3.3165  2.8990  0.7476
   80bbb     C4 2330   5.610   7.154   8.829  0.1395 -0.1461  0.3021
   80bbb     H7 2331   5.682   7.235   8.814  1.3090 -1.4187 -1.4214
   80bbb     H8 2332   5.671   7.066   8.853 -0.4340 -0.3988  0.8915
   80bbb     C5 2333   5.701   7.319   8.493  0.0853 -0.0553 -0.6735
   80bbb     H9 2334   5.626   7.368   8.557  1.7706 -0.1728  1.4909
   80bbb    H10 2335   5.648   7.304   8.398  0.7974 -1.5043 -0.8792
   80bbb     C6 2336   5.597   6.980   8.358 -0.1207  0.6997 -0.6032
   80bbb    H11 2337   5.697   6.939   8.376  0.5100  2.4883  0.1726
   80bbb    H12 2338   5.617   7.066   8.294  4.8549 -0.9273 -1.7115
   80bbb     C7 2339   5.519   7.190   8.952  0.0048  0.7909 -0.1788
   80bbb    H13 2340   5.583   7.207   9.040 -1.2912  0.8364  0.7984
   80bbb    H14 2341   5.457   7.104   8.982  0.8686 -0.3629 -1.6007
   80bbb     C8 2342   5.493   6.884   8.280 -0.4011 -0.4917  0.0049
   80bbb    H15 2343   5.541   6.861   8.185  1.0942 -2.8181  1.2278
   80bbb    H16 2344   5.401   6.943   8.271  0.0851 -0.0373 -2.6778
   80bbb     C9 2345   5.821   7.423   8.479  0.1273  0.0911  0.5939
   80bbb    H17 2346   5.790   7.517   8.430  0.6640 -0.5185 -0.9754
   80bbb    H18 2347   5.893   7.379   8.409 -0.1795 -1.0129  0.9490
   80bbb     O1 2348   5.435   7.307   8.921  0.0606 -0.1147  0.1455
   81bbb     N1 2349   4.504   7.979   9.571  0.8778 -0.0639  0.5001
   81bbb     C1 2350   4.486   7.985   9.718  0.2461  0.2631  0.3814
   81bbb     H1 2351   4.517   8.084   9.753 -0.2384  0.1784  1.0677
   81bbb     H2 2352   4.551   7.912   9.767 -1.1878 -1.3418 -0.0276
   81bbb     C2 2353   4.435   8.101   9.507  0.1368  0.4881  0.7115
   81bbb     H3 2354   4.330   8.113   9.534  0.0432  3.0588 -0.5274
   81bbb     H4 2355   4.428   8.084   9.399 -0.5140  0.4249  0.7642
   81bbb     C3 2356   4.649   7.989   9.535  0.3887 -0.2039  0.2554
   81bbb     H5 2357   4.697   8.082   9.570 -1.3678  0.4005  1.1668
   81bbb     H6 2358   4.643   8.005   9.426  2.1693 -1.9325 -0.1534
   81bbb     C4 2359   4.740   7.866   9.566  0.8228 -0.4149  0.2834
   81bbb     H7 2360   4.695   7.781   9.513  0.8998 -0.2619 -0.0307
   81bbb     H8 2361   4.745   7.848   9.674  2.4923 -2.2886 -0.0398
   81bbb     C5 2362   4.335   7.968   9.761  1.1657 -0.0996 -1.1325
   81bbb     H9 2363   4.277   8.060   9.743  0.3237 -0.2085  0.7247
   81bbb    H10 2364   4.336   7.956   9.870  2.2458 -0.5508 -1.1840
   81bbb     C6 2365   4.493   8.243   9.522 -0.3799 -0.0092  0.4362
   81bbb    H11 2366   4.587   8.249   9.466  0.4153  1.9694  1.8728
   81bbb    H12 2367   4.518   8.261   9.627 -1.5134 -1.0329  0.9027
   81bbb     C7 2368   4.888   7.887   9.512  0.4368 -0.3354  0.2075
   81bbb    H13 2369   4.951   7.809   9.556  1.9111 -0.7847 -2.4867
   81bbb    H14 2370   4.926   7.982   9.554 -1.3508  0.6491 -0.3031
   81bbb     C8 2371   4.399   8.359   9.468 -0.8676 -0.0027  0.0453
   81bbb    H15 2372   4.449   8.454   9.491  0.1458 -0.8342  1.3663
   81bbb    H16 2373   4.305   8.364   9.524 -1.4221  0.0982 -0.8544
   81bbb     C9 2374   4.265   7.848   9.693  0.0260  0.5818 -0.3576
   81bbb    H17 2375   4.307   7.750   9.716  0.0355 -0.1920 -3.2397
   81bbb    H18 2376   4.283   7.859   9.585  1.2471  1.6640 -0.0784
   81bbb     O1 2377   4.877   7.892   9.366 -0.5016 -0.3602  0.0296
   82bbb     N1 2378   5.407   9.386   6.706  0.0704  0.3285 -0.2848
   82bbb     C1 2379   5.340   9.357   6.588 -0.4324  0.1871  0.2067
   82bbb     H1 2380   5.396   9.270   6.551 -1.8668 -0.8982  0.4973
   82bbb     H2 2381   5.353   9.441   6.519  0.6412  0.1146  0.3077
   82bbb     C2 2382   5.532   9.463   6.704  0.4505  0.7389  0.4211
   82bbb     H3 2383   5.610   9.418   6.642 -2.2366 -3.7584 -0.1801
   82bbb     H4 2384   5.572   9.477   6.805  1.2686 -0.5792  0.2998
   82bbb     C3 2385   5.415   9.281   6.812  0.8390 -0.1195 -0.5836
   82bbb     H5 2386   5.314   9.241   6.827  1.9009 -2.8127 -0.1431
   82bbb     H6 2387   5.448   9.322   6.909 -1.1566 -2.0453  1.0084
   82bbb     C4 2388   5.507   9.167   6.778 -0.2163  0.4049  0.3413
   82bbb     H7 2389   5.611   9.192   6.756 -0.3318  0.5090 -0.1045
   82bbb     H8 2390   5.457   9.119   6.692  0.4418 -1.3536  0.9073
   82bbb     C5 2391   5.190   9.313   6.595  0.2397 -0.7978 -0.1470
   82bbb     H9 2392   5.139   9.391   6.653  0.4758 -0.4522 -0.4014
   82bbb    H10 2393   5.180   9.225   6.660  0.3408 -0.4211  0.3834
   82bbb     C6 2394   5.524   9.604   6.647 -0.3464  0.2064 -0.5225
   82bbb    H11 2395   5.502   9.602   6.539 -1.7801 -0.0595 -0.2506
   82bbb    H12 2396   5.627   9.638   6.635 -0.1635 -0.8783 -2.4469
   82bbb     C7 2397   5.502   9.069   6.900 -0.4145 -0.3341 -0.3513
   82bbb    H13 2398   5.405   9.066   6.950  0.0726 -2.1211  0.5387
   82bbb    H14 2399   5.574   9.097   6.978 -0.2048 -3.1794  0.5971
   82bbb     C8 2400   5.438   9.713   6.717  0.1738 -0.7612 -0.0325
   82bbb    H15 2401   5.441   9.664   6.815  1.8357 -1.3177 -0.3209
   82bbb    H16 2402   5.335   9.718   6.680  0.0682  0.8741  0.4237
   82bbb     C9 2403   5.123   9.300   6.460  0.1454  0.1381  0.4134
   82bbb    H17 2404   5.024   9.256   6.474 -0.4571  1.6190  0.9892
   82bbb    H18 2405   5.182   9.230   6.400  0.6225  0.2542  0.7449
   82bbb     O1 2406   5.525   8.939   6.860  1.2212 -0.5936 -0.3812
   83bbb     N1 2407   5.861   9.007   6.289  0.1731  0.1951  0.4081
   83bbb     C1 2408   5.949   8.963   6.171  0.1394  0.0522 -0.4672
   83bbb     H1 2409   6.048   8.940   6.211  1.0440  1.1613 -1.9663
   83bbb     H2 2410   5.964   9.055   6.113  0.4688  1.2094  1.3701
   83bbb     C2 2411   5.922   9.123   6.357 -0.0471 -0.5733  0.1851
   83bbb     H3 2412   5.941   9.204   6.285  1.2334 -0.8174  0.2242
   83bbb     H4 2413   6.018   9.087   6.397  0.5115  2.9387  2.4531
   83bbb     C3 2414   5.822   8.894   6.378 -0.4960 -0.3674  0.2845
   83bbb     H5 2415   5.771   8.815   6.321 -0.1571  0.0815 -0.6639
   83bbb     H6 2416   5.746   8.932   6.447  0.2183 -1.2005  1.5768
   83bbb     C4 2417   5.942   8.836   6.467 -0.1193 -0.1708  0.0374
   83bbb     H7 2418   5.982   8.910   6.537 -0.7035  1.0403 -0.8808
   83bbb     H8 2419   6.028   8.812   6.403 -0.3195  0.4111 -0.4479
   83bbb     C5 2420   5.888   8.857   6.074 -0.9751 -0.0503 -0.1223
   83bbb     H9 2421   5.798   8.912   6.046 -0.4593  0.6391 -0.4496
   83bbb    H10 2422   5.862   8.766   6.129 -3.2027  1.1719  0.9954
   83bbb     C6 2423   5.842   9.182   6.478  0.1459  0.0861  0.2884
   83bbb    H11 2424   5.800   9.102   6.541 -1.5089  0.2163 -0.5986
   83bbb    H12 2425   5.764   9.244   6.433  0.6124 -0.1206 -0.8272
   83bbb     C7 2426   5.901   8.710   6.545 -0.0240 -0.1678 -0.1845
   83bbb    H13 2427   5.800   8.723   6.586  0.3512 -0.9972  1.0354
   83bbb    H14 2428   5.979   8.698   6.621  0.7252  1.4207 -0.6546
   83bbb     C8 2429   5.938   9.268   6.563 -0.6632  0.4246  0.4044
   83bbb    H15 2430   5.992   9.335   6.495 -1.5372  0.7763  0.0323
   83bbb    H16 2431   6.008   9.201   6.614  0.4055  0.3289 -1.1343
   83bbb     C9 2432   5.993   8.833   5.962  0.1022  0.1988  0.0486
   83bbb    H17 2433   6.085   8.784   5.997 -0.7936 -0.7521  1.1363
   83bbb    H18 2434   6.017   8.933   5.924 -0.7100 -0.2297 -1.6747
   83bbb     O1 2435   5.905   8.612   6.436  0.3083  0.2758 -0.2142
   84bbb     N1 2436   4.826   8.399   7.087  0.0368 -0.7097 -0.3395
   84bbb     C1 2437   4.830   8.552   7.099  0.2506  0.1248  0.4352
   84bbb     H1 2438   4.844   8.591   6.998  1.9674 -1.3543  0.0467
   84bbb     H2 2439   4.913   8.586   7.161  1.5306  0.5322 -1.4480
   84bbb     C2 2440   4.843   8.339   7.223  0.2826 -0.6914  0.6508
   84bbb     H3 2441   4.752   8.348   7.284 -0.8798 -2.0118 -0.8153
   84bbb     H4 2442   4.923   8.396   7.273 -0.5461  0.5524  0.5922
   84bbb     C3 2443   4.719   8.337   7.007  0.2268 -0.3955  0.0311
   84bbb     H5 2444   4.627   8.334   7.067 -0.2996 -0.4373 -0.7548
   84bbb     H6 2445   4.744   8.231   7.003  1.5698 -0.0931 -0.1183
   84bbb     C4 2446   4.709   8.400   6.868 -0.4142 -0.2393  0.7310
   84bbb     H7 2447   4.675   8.503   6.884 -0.5267 -0.0646 -0.5512
   84bbb     H8 2448   4.625   8.351   6.817 -1.9437  1.3687  1.5976
   84bbb     C5 2449   4.695   8.612   7.166  0.0227 -0.2847  0.5257
   84bbb     H9 2450   4.696   8.575   7.269  0.3737  0.1735  0.6917
   84bbb    H10 2451   4.611   8.565   7.112 -0.0105  0.7881 -0.4083
   84bbb     C6 2452   4.890   8.191   7.224  0.4410  0.2511 -0.1134
   84bbb    H11 2453   4.975   8.170   7.157  2.0877 -0.0488  1.9721
   84bbb    H12 2454   4.814   8.132   7.172 -0.0699  0.0217  0.8699
   84bbb     C7 2455   4.844   8.396   6.783  0.4545 -0.5250 -0.4493
   84bbb    H13 2456   4.860   8.291   6.754 -0.9864 -0.4420 -1.6278
   84bbb    H14 2457   4.914   8.427   6.862  1.1270 -1.8086 -0.5109
   84bbb     C8 2458   4.915   8.138   7.367  0.3244 -0.4102  0.3338
   84bbb    H15 2459   5.006   8.186   7.406  2.9961 -3.6598 -1.4062
   84bbb    H16 2460   4.930   8.030   7.366  0.4874 -0.3865 -0.5284
   84bbb     C9 2461   4.685   8.762   7.163  0.4389 -0.6427 -0.9534
   84bbb    H17 2462   4.764   8.804   7.226  1.3214 -0.9164 -1.8512
   84bbb    H18 2463   4.594   8.797   7.213  0.8441  0.7188 -1.1081
   84bbb     O1 2464   4.836   8.487   6.677  0.5037  0.0982 -0.3344
   85bbb     N1 2465   5.523   8.749   6.014  0.2372  0.4910 -0.3280
   85bbb     C1 2466   5.468   8.838   5.906  1.0449 -0.6290 -0.2307
   85bbb     H1 2467   5.492   8.820   5.801  0.1092  0.8591 -0.7261
   85bbb     H2 2468   5.509   8.938   5.922 -0.5391  0.3364 -1.8024
   85bbb     C2 2469   5.528   8.603   5.984 -0.7241  0.2892  0.5419
   85bbb     H3 2470   5.433   8.568   5.941 -1.6899  1.9528  1.2321
   85bbb     H4 2471   5.538   8.547   6.078 -2.3890  0.1903  0.7014
   85bbb     C3 2472   5.490   8.784   6.150  0.1431  0.1492 -0.3387
   85bbb     H5 2473   5.554   8.726   6.217 -2.1847 -1.2653  0.7946
   85bbb     H6 2474   5.387   8.753   6.172  0.4597 -2.0160 -1.6533
   85bbb     C4 2475   5.502   8.936   6.189 -0.7809 -0.6701  0.5574
   85bbb     H7 2476   5.428   8.990   6.128 -0.6495 -0.7239  0.3479
   85bbb     H8 2477   5.601   8.965   6.152 -0.8486  0.8186  1.4545
   85bbb     C5 2478   5.312   8.859   5.912  0.3639  0.3310  0.1403
   85bbb     H9 2479   5.269   8.844   6.012  0.3152  0.7488  0.1842
   85bbb    H10 2480   5.271   8.771   5.859  0.8184  1.3453 -1.9741
   85bbb     C6 2481   5.649   8.571   5.888 -0.2983 -0.0648 -0.3722
   85bbb    H11 2482   5.742   8.582   5.946  0.8153  3.4718 -2.5291
   85bbb    H12 2483   5.654   8.650   5.813 -0.6103 -0.0415 -0.3691
   85bbb     C7 2484   5.470   8.972   6.334  0.1535 -0.0358 -0.1910
   85bbb    H13 2485   5.490   9.077   6.357 -0.7395  0.0730  0.1245
   85bbb    H14 2486   5.527   8.900   6.394 -1.7927 -1.7603 -0.2874
   85bbb     C8 2487   5.647   8.432   5.813  0.6866 -0.2611 -0.4562
   85bbb    H15 2488   5.637   8.351   5.886  1.0790  0.0581 -0.0348
   85bbb    H16 2489   5.741   8.414   5.759  0.4402  1.0891 -1.3836
   85bbb     C9 2490   5.261   8.988   5.844 -0.3227  1.0419 -0.2913
   85bbb    H17 2491   5.152   8.985   5.844 -0.3144 -2.2414 -0.4904
   85bbb    H18 2492   5.287   8.985   5.738 -0.1414  0.4686 -0.2322
   85bbb     O1 2493   5.330   8.949   6.360  0.1922  0.1557 -0.3573
   86bbb     N1 2494   7.638   6.656   5.376  0.3948 -1.0569 -0.8159
   86bbb     C1 2495   7.656   6.767   5.277  0.1821 -0.5141  0.2231
   86bbb     H1 2496   7.706   6.849   5.330 -3.6534  0.9698  1.8822
   86bbb     H2 2497   7.557   6.807   5.251  0.5496  0.0325 -0.3820
   86bbb     C2 2498   7.611   6.527   5.313 -0.0874 -0.3991 -0.3618
   86bbb     H3 2499   7.688   6.497   5.242 -0.3147 -1.9118 -0.0113
   86bbb     H4 2500   7.521   6.531   5.250 -0.1981 -1.8605 -0.3297
   86bbb     C3 2501   7.540   6.689   5.487 -0.1219  0.0703  0.1121
   86bbb     H5 2502   7.508   6.602   5.545 -3.0045  0.7206 -0.3177
   86bbb     H6 2503   7.451   6.736   5.442  0.1258 -1.2083 -1.8266
   86bbb     C4 2504   7.596   6.794   5.587 -0.2475 -0.0905 -0.4202
   86bbb     H7 2505   7.515   6.822   5.656 -0.3701 -2.1472  0.3448
   86bbb     H8 2506   7.635   6.888   5.546 -0.3009  0.1174  0.0068
   86bbb     C5 2507   7.731   6.735   5.143  0.4136 -0.4031  0.9811
   86bbb     H9 2508   7.679   6.669   5.072 -2.0039  0.0142  2.2403
   86bbb    H10 2509   7.821   6.677   5.168 -0.6717 -1.6262  2.2537
   86bbb     C6 2510   7.607   6.406   5.414 -0.4234  0.0683  1.0749
   86bbb    H11 2511   7.500   6.386   5.427 -0.4633 -1.4185 -1.0662
   86bbb    H12 2512   7.656   6.434   5.508  1.1949  0.3618  0.1987
   86bbb     C7 2513   7.708   6.727   5.677  0.1079 -0.4285 -0.6556
   86bbb    H13 2514   7.805   6.708   5.630  0.4719 -2.5523  0.8237
   86bbb    H14 2515   7.676   6.629   5.714 -1.2175  1.1218  2.6875
   86bbb     C8 2516   7.679   6.282   5.353  0.1911 -0.3410  0.5075
   86bbb    H15 2517   7.785   6.308   5.338  0.4155 -0.9832  0.9630
   86bbb    H16 2518   7.633   6.257   5.257  0.5424  0.5283  0.1014
   86bbb     C9 2519   7.773   6.859   5.061 -0.1821  0.2622 -0.2091
   86bbb    H17 2520   7.865   6.903   5.100 -0.2714  0.0478  0.2504
   86bbb    H18 2521   7.696   6.937   5.062 -0.7572 -0.2891 -0.5520
   86bbb     O1 2522   7.716   6.809   5.794 -0.1329 -0.0371 -0.5140
   87bbb     N1 2523   6.775   6.763   6.198 -0.0321  0.3765 -0.0191
   87bbb     C1 2524   6.756   6.911   6.212  0.1453  0.4988 -0.0175
   87bbb     H1 2525   6.769   6.939   6.318  0.0304  1.2063 -0.1905
   87bbb     H2 2526   6.651   6.930   6.187  0.6936  0.3421 -2.6731
   87bbb     C2 2527   6.677   6.695   6.287  0.4982  0.4553 -0.0629
   87bbb     H3 2528   6.580   6.744   6.283  0.8680  1.1514 -0.7567
   87bbb     H4 2529   6.724   6.698   6.387  0.6157 -2.1816  0.0399
   87bbb     C3 2530   6.914   6.703   6.187 -0.3901 -0.8046 -0.4520
   87bbb     H5 2531   6.974   6.765   6.119 -0.0613 -0.5669  0.0442
   87bbb     H6 2532   6.915   6.602   6.146  1.2647 -0.7493 -0.6234
   87bbb     C4 2533   6.990   6.697   6.325  0.3185  0.4165  0.2479
   87bbb     H7 2534   6.954   6.612   6.386  0.7532 -0.1546 -0.2773
   87bbb     H8 2535   6.967   6.791   6.376 -1.7689  0.2784 -0.3392
   87bbb     C5 2536   6.839   7.002   6.115  0.7317  1.0247  0.5034
   87bbb     H9 2537   6.948   6.997   6.130  0.9770  0.1777 -1.2930
   87bbb    H10 2538   6.814   7.104   6.147 -2.0202 -0.0116  2.0102
   87bbb     C6 2539   6.657   6.548   6.251 -0.1329  0.1243 -0.2827
   87bbb    H11 2540   6.750   6.497   6.278  0.6500  1.0260 -1.1626
   87bbb    H12 2541   6.626   6.531   6.147  1.8761 -1.5951 -0.6841
   87bbb     C7 2542   7.137   6.678   6.316 -0.2571 -0.3090 -0.0506
   87bbb    H13 2543   7.166   6.593   6.253  0.3925  1.2907 -2.0251
   87bbb    H14 2544   7.176   6.668   6.418  1.5116  0.9776 -0.5447
   87bbb     C8 2545   6.547   6.479   6.332  0.2740  0.8060 -0.3151
   87bbb    H15 2546   6.454   6.467   6.276 -1.3564 -1.5559  2.5812
   87bbb    H16 2547   6.515   6.532   6.422 -1.3639 -1.4324  0.5113
   87bbb     C9 2548   6.797   6.972   5.967  0.6350  0.9202  0.1004
   87bbb    H17 2549   6.689   6.957   5.960  0.6767  0.9253 -0.6851
   87bbb    H18 2550   6.851   6.880   5.941 -1.3110 -1.2743  3.1635
   87bbb     O1 2551   7.205   6.797   6.270 -0.1749 -0.4226 -0.4848
   88bbb     N1 2552   6.829   5.655   6.365  0.3117 -0.3502 -0.2187
   88bbb     C1 2553   6.964   5.635   6.327 -0.4812  0.4230  0.3196
   88bbb     H1 2554   7.008   5.620   6.427  0.4171 -0.8582 -0.2285
   88bbb     H2 2555   7.001   5.730   6.288  0.5073  0.0868  0.4217
   88bbb     C2 2556   6.743   5.705   6.257  0.1617 -0.4500  0.6889
   88bbb     H3 2557   6.635   5.690   6.271 -0.3689 -0.0363 -2.3219
   88bbb     H4 2558   6.754   5.647   6.164  1.2572  1.2194 -0.2698
   88bbb     C3 2559   6.801   5.723   6.500 -0.0828  0.6229 -0.3824
   88bbb     H5 2560   6.840   5.826   6.507 -0.5172  0.8802 -1.4687
   88bbb     H6 2561   6.841   5.667   6.585 -0.6743  1.5118  0.5083
   88bbb     C4 2562   6.648   5.735   6.535 -0.0860  0.5828 -0.0481
   88bbb     H7 2563   6.591   5.644   6.514 -2.3446  2.0081 -0.3694
   88bbb     H8 2564   6.607   5.821   6.481  1.8784  0.6612 -1.5620
   88bbb     C5 2565   6.990   5.510   6.238 -0.3681  0.2106 -0.4707
   88bbb     H9 2566   6.900   5.449   6.247 -1.0835  0.5279 -4.0312
   88bbb    H10 2567   7.075   5.458   6.284 -1.0772  0.6293  1.3879
   88bbb     C6 2568   6.771   5.853   6.222 -0.1112 -0.3414 -0.0762
   88bbb    H11 2569   6.878   5.875   6.225 -0.1061 -0.5032  1.4552
   88bbb    H12 2570   6.723   5.919   6.295 -0.9994  0.2503 -1.1485
   88bbb     C7 2571   6.625   5.760   6.691  0.1058  0.0550  0.1359
   88bbb    H13 2572   6.670   5.686   6.758 -1.6453  0.9106  2.4291
   88bbb    H14 2573   6.517   5.755   6.711  0.2670 -1.0471  0.7899
   88bbb     C8 2574   6.715   5.899   6.089  0.1525  0.1430  0.8131
   88bbb    H15 2575   6.712   6.008   6.081 -1.6192  0.1648  1.4323
   88bbb    H16 2576   6.614   5.857   6.085 -0.3400  1.3248  0.2673
   88bbb     C9 2577   7.008   5.554   6.097 -0.1980 -0.0012  0.0363
   88bbb    H17 2578   7.096   5.619   6.103  0.0232 -0.3428  0.6084
   88bbb    H18 2579   6.921   5.609   6.060 -0.1518 -0.5628 -0.9356
   88bbb     O1 2580   6.657   5.904   6.722 -0.0946  0.3704 -0.1117
   89bbb     N1 2581   7.813   6.426   7.003  0.6039  0.1924  0.2054
   89bbb     C1 2582   7.822   6.349   7.133  0.3063  0.0250 -0.6577
   89bbb     H1 2583   7.856   6.249   7.101  0.1173 -0.1721 -0.2419
   89bbb     H2 2584   7.717   6.336   7.163  0.2766 -0.8857 -1.1070
   89bbb     C2 2585   7.946   6.484   6.956 -0.3152  0.0261  1.3744
   89bbb     H3 2586   8.018   6.406   6.927 -2.1524 -1.6278  1.0488
   89bbb     H4 2587   7.989   6.542   7.038  0.1743 -0.4653  1.4722
   89bbb     C3 2588   7.722   6.359   6.901  0.4848 -0.5350 -0.5852
   89bbb     H5 2589   7.760   6.262   6.870  1.6739 -0.5814  0.8726
   89bbb     H6 2590   7.716   6.426   6.815  0.0674  1.3651  0.8517
   89bbb     C4 2591   7.576   6.337   6.947 -0.3493  0.3483  0.0330
   89bbb     H7 2592   7.529   6.432   6.974  0.2973  0.4259  0.9176
   89bbb     H8 2593   7.583   6.265   7.029  2.2588 -3.4962 -3.1226
   89bbb     C5 2594   7.913   6.392   7.254  0.2200  0.0721 -0.2241
   89bbb     H9 2595   8.017   6.385   7.221  0.6735 -0.4102  1.2357
   89bbb    H10 2596   7.907   6.315   7.332 -1.9510  0.8799  0.4767
   89bbb     C6 2597   7.943   6.585   6.831  0.1173  0.4604 -0.6080
   89bbb    H11 2598   7.883   6.669   6.871 -0.4379 -0.3746  0.3547
   89bbb    H12 2599   7.899   6.532   6.746 -0.5952  0.5862 -0.3286
   89bbb     C7 2600   7.492   6.279   6.828  0.1054 -0.3961  0.3986
   89bbb    H13 2601   7.531   6.184   6.791  1.6744  0.5286 -0.4218
   89bbb    H14 2602   7.504   6.348   6.742 -2.4688 -0.3049  0.0072
   89bbb     C8 2603   8.083   6.652   6.793 -0.0613 -0.3706 -0.2905
   89bbb    H15 2604   8.127   6.692   6.886 -0.8150  1.4038 -0.6551
   89bbb    H16 2605   8.074   6.736   6.723  1.1345  2.4273  2.6063
   89bbb     C9 2606   7.890   6.537   7.309  0.4138 -0.0906 -0.2441
   89bbb    H17 2607   7.784   6.561   7.328 -0.0718  0.1271 -2.9290
   89bbb    H18 2608   7.928   6.594   7.224 -0.2696 -1.4792 -1.5267
   89bbb     O1 2609   7.354   6.249   6.866  0.0622  0.0147  0.4276
   90bbb     N1 2610   8.688   9.050   6.589 -0.3665 -0.1997 -0.0543
   90bbb     C1 2611   8.791   9.152   6.539 -0.1838 -0.0434  0.0121
   90bbb     H1 2612   8.755   9.250   6.571  2.6273  0.6373  1.3685
   90bbb     H2 2613   8.802   9.144   6.430 -2.7383  0.2410 -0.3289
   90bbb     C2 2614   8.734   8.907   6.562  0.2279  1.1692 -0.4557
   90bbb     H3 2615   8.834   8.898   6.605 -0.6574 -0.7530  1.4072
   90bbb     H4 2616   8.739   8.885   6.455  0.6708  2.2882 -0.6858
   90bbb     C3 2617   8.542   9.082   6.570 -0.5043 -0.2937  0.1353
   90bbb     H5 2618   8.494   9.012   6.640  2.3612  2.5056  5.4941
   90bbb     H6 2619   8.508   9.084   6.466  0.9053  1.5431 -0.3393
   90bbb     C4 2620   8.513   9.224   6.620  0.2232 -0.1245 -0.2668
   90bbb     H7 2621   8.531   9.296   6.539 -1.2223 -1.9293 -2.3052
   90bbb     H8 2622   8.578   9.251   6.704  2.4919 -0.0360 -1.9461
   90bbb     C5 2623   8.931   9.129   6.597  0.0119 -0.1677 -0.3498
   90bbb     H9 2624   8.999   9.211   6.568  0.1668 -0.4272 -0.7380
   90bbb    H10 2625   8.982   9.041   6.553  1.2154 -0.4403  1.4843
   90bbb     C6 2626   8.649   8.799   6.632 -0.4546 -0.0120  0.3756
   90bbb    H11 2627   8.569   8.770   6.562  0.7497  1.8361 -1.9221
   90bbb    H12 2628   8.601   8.842   6.720 -0.3305  0.8726  0.0184
   90bbb     C7 2629   8.367   9.242   6.661 -0.6682  0.6150  0.5939
   90bbb    H13 2630   8.354   9.351   6.660  0.7510  0.9036 -3.2050
   90bbb    H14 2631   8.347   9.199   6.760 -0.8401 -2.7143 -0.7586
   90bbb     C8 2632   8.741   8.686   6.675  0.7166  0.0506 -0.7825
   90bbb    H15 2633   8.832   8.710   6.731 -0.5961  2.5919  0.3965
   90bbb    H16 2634   8.781   8.643   6.583  4.1673  0.6297  0.2856
   90bbb     C9 2635   8.927   9.113   6.757  0.7519 -0.6445 -0.0409
   90bbb    H17 2636   8.840   9.055   6.790  1.6385 -1.1105  1.5485
   90bbb    H18 2637   8.910   9.217   6.788  1.4911  0.7442 -3.6887
   90bbb     O1 2638   8.279   9.187   6.564  0.1947  0.4359  0.6269
   91bbb     N1 2639   8.708   8.526   6.110  0.6399 -0.7842  0.0856
   91bbb     C1 2640   8.679   8.443   5.987 -0.0187 -0.3951 -0.0191
   91bbb     H1 2641   8.618   8.497   5.913  0.0836 -1.1051 -0.6308
   91bbb     H2 2642   8.622   8.355   6.016  1.3847 -1.1446  0.5623
   91bbb     C2 2643   8.804   8.476   6.213 -0.5400 -0.5799 -0.0831
   91bbb     H3 2644   8.829   8.551   6.290 -0.4665 -0.6192 -0.0692
   91bbb     H4 2645   8.898   8.441   6.169 -0.4328  2.0532 -2.2230
   91bbb     C3 2646   8.582   8.603   6.155 -0.1873  0.5207  0.0656
   91bbb     H5 2647   8.513   8.541   6.214  0.4350  1.1192  1.4783
   91bbb     H6 2648   8.534   8.638   6.064  1.7332  1.0520 -0.8027
   91bbb     C4 2649   8.608   8.736   6.224  0.7801  0.6139 -1.1916
   91bbb     H7 2650   8.692   8.794   6.184  0.4673  1.4359 -0.7021
   91bbb     H8 2651   8.630   8.709   6.328  0.0884 -0.2673 -1.2670
   91bbb     C5 2652   8.808   8.402   5.911 -0.7838  0.1544 -0.2028
   91bbb     H9 2653   8.886   8.372   5.982 -0.8605 -1.6925 -0.8413
   91bbb    H10 2654   8.841   8.484   5.846 -0.8760  0.0762 -0.3468
   91bbb     C6 2655   8.757   8.345   6.274  0.0969  0.7555 -0.3103
   91bbb    H11 2656   8.718   8.280   6.195 -2.4560  1.3183  0.3868
   91bbb    H12 2657   8.669   8.371   6.334  0.8584  2.2394  0.2262
   91bbb     C7 2658   8.486   8.834   6.222 -0.2610 -0.0922  0.6911
   91bbb    H13 2659   8.470   8.874   6.121 -1.0625  1.2476  1.3296
   91bbb    H14 2660   8.514   8.922   6.280  2.4773  0.1188 -0.7490
   91bbb     C8 2661   8.863   8.266   6.357  0.0648  0.2069 -0.3274
   91bbb    H15 2662   8.949   8.227   6.300 -0.0577  0.3401 -0.6049
   91bbb    H16 2663   8.809   8.179   6.395 -1.1817  1.1019  0.0171
   91bbb     C9 2664   8.779   8.281   5.823  0.3999 -0.0238 -0.5696
   91bbb    H17 2665   8.692   8.310   5.763 -0.0451  0.9977  0.5216
   91bbb    H18 2666   8.756   8.195   5.887  3.4715 -0.2824  0.3442
   91bbb     O1 2667   8.367   8.765   6.276 -0.3481  0.2343 -0.7811
   92bbb     N1 2668   7.538   8.025   7.103  0.2132 -0.1681 -0.5214
   92bbb     C1 2669   7.638   8.042   7.208 -0.6219 -0.3685 -0.2922
   92bbb     H1 2670   7.662   7.942   7.246 -0.2891 -0.1955 -0.0393
   92bbb     H2 2671   7.593   8.098   7.292 -1.1437  1.6675 -1.8389
   92bbb     C2 2672   7.600   7.952   6.987  0.1704 -0.7173 -0.0288
   92bbb     H3 2673   7.661   7.868   7.024 -1.6901 -0.9786  2.6798
   92bbb     H4 2674   7.654   8.029   6.930 -1.1611  0.7909  0.6908
   92bbb     C3 2675   7.483   8.154   7.056  0.1835  0.1133 -0.4232
   92bbb     H5 2676   7.432   8.141   6.960  1.1583 -0.2294 -0.9082
   92bbb     H6 2677   7.567   8.224   7.041  0.6820 -0.2576  0.5116
   92bbb     C4 2678   7.378   8.213   7.150  0.4878 -0.6359  0.2107
   92bbb     H7 2679   7.427   8.244   7.243 -0.8177  3.5391 -0.3244
   92bbb     H8 2680   7.297   8.142   7.170 -0.1979  0.2606  0.6371
   92bbb     C5 2681   7.769   8.114   7.174  0.3057 -0.2849  0.2880
   92bbb     H9 2682   7.754   8.213   7.130  0.5244 -0.3104  0.1525
   92bbb    H10 2683   7.818   8.052   7.097 -0.0889 -0.8810  0.5091
   92bbb     C6 2684   7.502   7.882   6.891 -0.2633 -0.3372  0.1016
   92bbb    H11 2685   7.422   7.943   6.847 -0.1338 -0.8138 -0.8323
   92bbb    H12 2686   7.450   7.801   6.944  0.1654 -0.3110  0.5680
   92bbb     C7 2687   7.327   8.349   7.102 -0.5069 -0.4485  0.1470
   92bbb    H13 2688   7.245   8.381   7.168  0.5881  1.0285  0.8525
   92bbb    H14 2689   7.295   8.345   6.997  1.7826 -0.5311 -0.5836
   92bbb     C8 2690   7.572   7.821   6.764  0.0522  0.2333  0.3655
   92bbb    H15 2691   7.636   7.736   6.792 -0.3029 -1.0491 -2.3801
   92bbb    H16 2692   7.629   7.900   6.713 -0.3784  0.5262  0.3324
   92bbb     C9 2693   7.850   8.107   7.306  0.1563 -0.4220 -0.3713
   92bbb    H17 2694   7.841   8.008   7.354 -0.5072 -0.3910 -0.4273
   92bbb    H18 2695   7.811   8.176   7.382  1.9693 -0.3896  0.5923
   92bbb     O1 2696   7.441   8.435   7.124 -0.2211  0.1648 -0.1201
   93bbb     N1 2697   8.058   9.326   7.010 -0.5635 -0.0885 -0.0376
   93bbb     C1 2698   8.192   9.303   6.943 -0.2698 -0.2232  0.5924
   93bbb     H1 2699   8.170   9.283   6.837 -4.9866  0.7679  1.1459
   93bbb     H2 2700   8.249   9.218   6.981  2.3634  1.5576  0.8298
   93bbb     C2 2701   8.065   9.354   7.159  0.3445  0.0342  0.5773
   93bbb     H3 2702   8.160   9.405   7.179 -0.3660  1.5744  0.1290
   93bbb     H4 2703   8.051   9.269   7.227 -2.1686  0.1005  0.2445
   93bbb     C3 2704   7.958   9.229   6.962 -0.6858 -0.6623  0.1886
   93bbb     H5 2705   7.941   9.160   7.046  2.0703  1.8886  3.1165
   93bbb     H6 2706   7.998   9.183   6.870  2.2577  2.2139 -0.1672
   93bbb     C4 2707   7.826   9.297   6.925 -0.0292  0.5261  0.4386
   93bbb     H7 2708   7.844   9.360   6.837  0.1929 -1.0262 -0.6660
   93bbb     H8 2709   7.790   9.350   7.013 -0.3966  1.3563 -0.1956
   93bbb     C5 2710   8.279   9.429   6.950  0.0895 -0.3948  0.1111
   93bbb     H9 2711   8.366   9.420   6.883 -1.5771 -1.7966 -2.0202
   93bbb    H10 2712   8.328   9.446   7.046 -0.4965  1.2160  0.1515
   93bbb     C6 2713   7.960   9.461   7.193  0.2094 -0.5280 -0.6161
   93bbb    H11 2714   7.859   9.418   7.194  0.9695 -2.6254  2.8162
   93bbb    H12 2715   7.961   9.539   7.116  0.9653  0.9551  0.8134
   93bbb     C7 2716   7.723   9.200   6.869 -0.1049 -0.1827 -0.6171
   93bbb    H13 2717   7.734   9.210   6.760  0.9731 -1.5777 -0.6560
   93bbb    H14 2718   7.626   9.239   6.903  1.0252  0.3853  2.2944
   93bbb     C8 2719   7.986   9.520   7.328  0.0747 -0.2683  0.4536
   93bbb    H15 2720   7.902   9.588   7.348 -0.5863 -1.0646  0.4550
   93bbb    H16 2721   8.086   9.563   7.334  1.0154 -1.6789 -2.8440
   93bbb     C9 2722   8.197   9.553   6.899 -0.0092 -0.1186  0.0580
   93bbb    H17 2723   8.129   9.577   6.982  0.2878  1.4060 -0.1097
   93bbb    H18 2724   8.142   9.526   6.808 -1.5349  1.9505  0.2936
   93bbb     O1 2725   7.741   9.059   6.909 -0.0718 -0.3384  0.0395
   94bbb     N1 2726   7.894   4.997   7.172 -0.1742 -0.4536 -0.0023
   94bbb     C1 2727   7.978   4.920   7.069  0.3188  0.2212 -0.3428
   94bbb     H1 2728   8.072   4.975   7.058 -0.0904  0.9409 -0.3432
   94bbb     H2 2729   7.937   4.920   6.967  1.4556 -1.6688 -0.8424
   94bbb     C2 2730   7.954   5.008   7.309  0.7604 -0.1951  0.4472
   94bbb     H3 2731   7.936   4.910   7.354  1.5286  0.1563  1.5586
   94bbb     H4 2732   7.905   5.086   7.368  2.0457  0.3782  0.8130
   94bbb     C3 2733   7.848   5.128   7.107  0.6862  0.6219  0.3240
   94bbb     H5 2734   7.945   5.176   7.091  0.7954  0.6515  1.0382
   94bbb     H6 2735   7.804   5.182   7.192 -2.3120 -0.1808 -0.5935
   94bbb     C4 2736   7.757   5.113   6.984 -0.0818  0.2676  0.0800
   94bbb     H7 2737   7.681   5.038   7.009  0.8072 -1.8720 -3.0766
   94bbb     H8 2738   7.804   5.070   6.896  0.5342  0.9339  0.0718
   94bbb     C5 2739   7.984   4.773   7.115 -0.3745  0.4731 -0.0170
   94bbb     H9 2740   7.879   4.744   7.125 -0.8580  2.3837  0.9554
   94bbb    H10 2741   8.036   4.759   7.210 -1.0826 -2.7400 -0.0107
   94bbb     C6 2742   8.111   5.039   7.309 -0.0556  0.6421 -0.7471
   94bbb    H11 2743   8.157   4.961   7.248 -1.6583 -1.1092  0.1441
   94bbb    H12 2744   8.138   5.030   7.415 -2.9284  1.3353  0.1436
   94bbb     C7 2745   7.689   5.252   6.952 -1.0986 -0.0751 -0.4037
   94bbb    H13 2746   7.771   5.324   6.958 -0.0123 -1.2582 -0.5458
   94bbb    H14 2747   7.614   5.278   7.028 -0.6671 -1.6225  0.5941
   94bbb     C8 2748   8.148   5.184   7.261  0.1307  0.1935 -0.7019
   94bbb    H15 2749   8.080   5.242   7.324 -0.0130 -1.9160  1.1947
   94bbb    H16 2750   8.133   5.191   7.153 -1.1572 -2.3160 -0.7526
   94bbb     C9 2751   8.045   4.686   7.000 -0.2272 -0.4748  0.8949
   94bbb    H17 2752   8.013   4.724   6.902  0.9960  0.4857  0.8428
   94bbb    H18 2753   8.017   4.581   7.014  1.1488 -1.1458 -0.9649
   94bbb     O1 2754   7.643   5.242   6.815 -0.3350 -0.8080 -0.1948
   95bbb     N1 2755   7.311   4.721   6.625  0.1691  0.3340 -0.7563
   95bbb     C1 2756   7.452   4.755   6.669  0.4530 -0.4893 -0.1729
   95bbb     H1 2757   7.446   4.861   6.697  0.1244 -0.3938 -0.5909
   95bbb     H2 2758   7.522   4.755   6.584  0.2138 -0.6307 -0.3738
   95bbb     C2 2759   7.309   4.606   6.534  0.1155 -0.2232 -0.9349
   95bbb     H3 2760   7.350   4.519   6.588 -1.3980 -1.5649 -1.8173
   95bbb     H4 2761   7.374   4.625   6.448  0.8303 -0.7480 -0.5224
   95bbb     C3 2762   7.229   4.837   6.584 -0.1927 -0.4448 -0.4467
   95bbb     H5 2763   7.227   4.908   6.668  0.5200 -1.6455  0.6322
   95bbb     H6 2764   7.129   4.802   6.558  0.5546 -0.5044 -3.6493
   95bbb     C4 2765   7.279   4.918   6.463 -0.5656 -0.1278  0.0262
   95bbb     H7 2766   7.317   4.852   6.385  0.1900  2.0179 -1.5146
   95bbb     H8 2767   7.370   4.974   6.487 -0.0982 -1.4184  1.4538
   95bbb     C5 2768   7.496   4.677   6.794 -0.5895  0.4512 -0.1045
   95bbb     H9 2769   7.493   4.568   6.779 -1.0638  0.5439 -0.7648
   95bbb    H10 2770   7.434   4.704   6.881  0.4138 -1.0287  1.1088
   95bbb     C6 2771   7.165   4.567   6.482  0.0097 -0.6249  0.4139
   95bbb    H11 2772   7.136   4.636   6.402  1.7789  0.5139  0.7049
   95bbb    H12 2773   7.089   4.580   6.559 -0.6195 -1.5676 -0.0286
   95bbb     C7 2774   7.162   5.003   6.402 -0.4253  1.0488 -0.1453
   95bbb    H13 2775   7.081   4.939   6.366 -0.8634  0.8895  1.0843
   95bbb    H14 2776   7.209   5.056   6.317 -1.2185 -0.5351 -1.6280
   95bbb     C8 2777   7.178   4.426   6.424  0.1449 -0.8197 -0.0500
   95bbb    H15 2778   7.217   4.365   6.505  2.2390 -1.4681 -1.4816
   95bbb    H16 2779   7.252   4.430   6.343 -0.2719  2.0083 -0.4083
   95bbb     C9 2780   7.645   4.705   6.841 -0.0958  0.0656 -0.0033
   95bbb    H17 2781   7.651   4.815   6.842 -1.0644  0.1328  0.8443
   95bbb    H18 2782   7.719   4.671   6.769 -0.1917 -2.8435  1.1416
   95bbb     O1 2783   7.118   5.096   6.499  0.1962  0.3152  0.2790
   96bbb     N1 2784   7.672   5.781   7.102 -0.2156 -0.3056 -0.0066
   96bbb     C1 2785   7.569   5.892   7.115 -0.1612  0.2418 -0.2771
   96bbb     H1 2786   7.490   5.839   7.170 -0.3073  0.8802  0.1335
   96bbb     H2 2787   7.532   5.919   7.015 -0.1524  0.8580 -0.1193
   96bbb     C2 2788   7.629   5.658   7.029 -0.7045  0.2482 -0.4602
   96bbb     H3 2789   7.716   5.592   7.019  0.8010  1.7552  1.7891
   96bbb     H4 2790   7.624   5.697   6.926  0.0755 -0.0320 -0.6087
   96bbb     C3 2791   7.808   5.828   7.066  0.2515  0.2939 -0.2219
   96bbb     H5 2792   7.879   5.747   7.083  0.9663  0.8852 -0.3485
   96bbb     H6 2793   7.835   5.906   7.138  2.7140 -1.1983  0.5987
   96bbb     C4 2794   7.819   5.887   6.923 -0.2603 -0.6330  0.8059
   96bbb     H7 2795   7.736   5.956   6.901  0.2607 -0.4941 -0.8173
   96bbb     H8 2796   7.807   5.807   6.849  0.6276 -0.1876  0.1737
   96bbb     C5 2797   7.609   6.012   7.196  0.8128  0.2070  0.2361
   96bbb     H9 2798   7.513   6.064   7.206  0.0153 -0.8937 -1.1754
   96bbb    H10 2799   7.685   6.064   7.137 -1.0898 -0.1424 -2.7483
   96bbb     C6 2800   7.499   5.589   7.075 -0.3983 -0.5129 -0.2713
   96bbb    H11 2801   7.494   5.486   7.036 -1.4428 -0.2624 -0.8398
   96bbb    H12 2802   7.411   5.645   7.041 -0.7874 -0.8821  0.1138
   96bbb     C7 2803   7.947   5.962   6.903  0.0438 -0.4807 -0.0058
   96bbb    H13 2804   8.038   5.901   6.915  0.8209  0.7034  0.2678
   96bbb    H14 2805   7.955   6.053   6.964  2.5216  0.8744 -2.1420
   96bbb     C8 2806   7.485   5.566   7.225 -0.4395  0.2595 -0.1438
   96bbb    H15 2807   7.489   5.664   7.276 -0.5718  0.8082 -1.1681
   96bbb    H16 2808   7.573   5.510   7.257 -0.3950 -0.9516 -2.2300
   96bbb     C9 2809   7.668   5.988   7.337  0.2553 -0.4589  0.4453
   96bbb    H17 2810   7.757   5.923   7.333  0.9535  0.5249 -0.5519
   96bbb    H18 2811   7.593   5.937   7.398 -0.1060 -1.2405 -0.6223
   96bbb     O1 2812   7.955   6.003   6.764 -0.0123 -0.3571  0.1098
   97bbb     N1 2813   8.153   7.077   6.164  0.0545  0.3170  0.2750
   97bbb     C1 2814   8.236   7.184   6.219  1.0212  0.0827 -0.5006
   97bbb     H1 2815   8.326   7.184   6.156  2.3654 -2.5797  1.2124
   97bbb     H2 2816   8.266   7.161   6.322  1.8257 -0.6686 -0.8783
   97bbb     C2 2817   8.098   7.084   6.023  0.2863  0.4350  0.1196
   97bbb     H3 2818   8.038   7.176   6.018  0.0460  0.4319  2.1374
   97bbb     H4 2819   8.032   7.001   5.995 -0.7292  0.9162  1.0026
   97bbb     C3 2820   8.224   6.949   6.199  0.3061 -0.7859 -0.4116
   97bbb     H5 2821   8.259   6.958   6.302  0.3706  2.2647 -0.6101
   97bbb     H6 2822   8.314   6.937   6.137  1.5776 -0.0860  1.2354
   97bbb     C4 2823   8.144   6.813   6.188 -1.2771  0.5574  0.2081
   97bbb     H7 2824   8.124   6.814   6.081  0.0822 -0.2532 -0.0645
   97bbb     H8 2825   8.047   6.816   6.241 -0.4295 -1.4479  2.0169
   97bbb     C5 2826   8.165   7.319   6.210 -0.1576  0.0485 -0.1810
   97bbb     H9 2827   8.062   7.317   6.246 -0.4902 -2.2533 -1.0538
   97bbb    H10 2828   8.160   7.345   6.103 -0.3133  1.7572  0.2308
   97bbb     C6 2829   8.205   7.107   5.911  0.5218 -0.1064 -0.7563
   97bbb    H11 2830   8.263   7.016   5.892  1.2530  0.5350 -1.6819
   97bbb    H12 2831   8.272   7.182   5.956  1.1179 -0.0841 -1.6709
   97bbb     C7 2832   8.235   6.697   6.227 -0.6367  0.1095  0.3538
   97bbb    H13 2833   8.278   6.706   6.327  1.6831 -1.6902 -0.3967
   97bbb    H14 2834   8.315   6.670   6.156 -0.1384  1.0441  0.5503
   97bbb     C8 2835   8.143   7.162   5.776 -0.9606 -0.1736 -0.2695
   97bbb    H15 2836   8.109   7.267   5.778 -0.9617 -0.1882  0.6452
   97bbb    H16 2837   8.052   7.104   5.756 -0.9429 -0.2589 -0.0997
   97bbb     C9 2838   8.242   7.434   6.270 -0.4582 -0.4693  0.2339
   97bbb    H17 2839   8.245   7.402   6.375 -1.6933 -1.0632  0.1062
   97bbb    H18 2840   8.197   7.534   6.268 -0.1897 -0.3675 -1.0835
   97bbb     O1 2841   8.153   6.584   6.235 -0.0471  0.2129 -0.2166
   98bbb     N1 2842   5.806   6.736   4.615  0.0854  0.3199 -0.2094
   98bbb     C1 2843   5.729   6.851   4.562  0.1392 -0.6745  0.6219
   98bbb     H1 2844   5.764   6.945   4.606 -0.7483  0.2584 -0.5740
   98bbb     H2 2845   5.626   6.837   4.596 -0.6191  1.8911 -0.3403
   98bbb     C2 2846   5.788   6.732   4.767  0.4278 -0.0442  0.8971
   98bbb     H3 2847   5.681   6.742   4.792 -0.1688 -0.0978 -1.3966
   98bbb     H4 2848   5.837   6.817   4.817  2.6326 -0.9947  0.4495
   98bbb     C3 2849   5.951   6.736   4.576 -0.5168  0.1588  0.4030
   98bbb     H5 2850   5.949   6.730   4.467  0.4340 -0.6276  0.4122
   98bbb     H6 2851   5.989   6.638   4.608 -0.9964  0.1542  1.0042
   98bbb     C4 2852   6.032   6.865   4.622  0.1934  0.2125  0.6883
   98bbb     H7 2853   6.033   6.873   4.731 -2.4030 -1.3767  0.9232
   98bbb     H8 2854   5.976   6.953   4.588  0.1919  0.7023  1.9133
   98bbb     C5 2855   5.748   6.872   4.408  0.3816 -0.1913  0.0138
   98bbb     H9 2856   5.762   6.777   4.355  0.5007  1.2820 -2.7891
   98bbb    H10 2857   5.845   6.922   4.396  1.8613 -2.4868  1.4929
   98bbb     C6 2858   5.852   6.612   4.848 -0.4802 -0.2180  0.7714
   98bbb    H11 2859   5.853   6.643   4.954  0.3808  1.4590  0.3202
   98bbb    H12 2860   5.957   6.605   4.816 -1.0039  1.1851 -1.4788
   98bbb     C7 2861   6.178   6.873   4.565  0.1594 -0.4329  0.5504
   98bbb    H13 2862   6.244   6.793   4.601  1.2858 -0.6184 -1.7382
   98bbb    H14 2863   6.232   6.962   4.599  0.8751 -0.6898  0.1134
   98bbb     C8 2864   5.787   6.477   4.822 -0.0755  0.5339  0.9309
   98bbb    H15 2865   5.843   6.388   4.853  1.0041 -0.2089 -2.7495
   98bbb    H16 2866   5.786   6.465   4.713 -3.5396  0.3665  0.8434
   98bbb     C9 2867   5.628   6.955   4.344 -0.3677  0.6556  0.0595
   98bbb    H17 2868   5.547   6.882   4.344  0.5051 -0.3258 -0.4396
   98bbb    H18 2869   5.651   6.980   4.240  1.4835 -0.8974  0.0512
   98bbb     O1 2870   6.166   6.871   4.422  0.4509  0.2586  0.2978
   99bbb     N1 2871   6.785   6.764   3.443  0.3680 -0.0419  0.8110
   99bbb     C1 2872   6.902   6.689   3.386 -0.1633  0.4898  0.6711
   99bbb     H1 2873   6.929   6.608   3.455 -2.5598 -0.0783  1.0335
   99bbb     H2 2874   6.984   6.761   3.375  0.9266 -0.7062  0.7216
   99bbb     C2 2875   6.708   6.843   3.342 -0.1024 -0.8321  0.2550
   99bbb     H3 2876   6.612   6.873   3.385  0.0951  2.5317 -1.3387
   99bbb     H4 2877   6.676   6.781   3.257  0.4514  3.0948 -3.1214
   99bbb     C3 2878   6.812   6.827   3.577  0.5846 -0.1847 -0.4257
   99bbb     H5 2879   6.879   6.913   3.561 -1.4453  1.8042  1.1195
   99bbb     H6 2880   6.867   6.761   3.645  0.4905  0.9726  0.8049
   99bbb     C4 2881   6.674   6.868   3.643 -0.2792 -0.2235  0.1126
   99bbb     H7 2882   6.613   6.777   3.643 -0.5925 -0.0185 -0.3480
   99bbb     H8 2883   6.619   6.938   3.579 -0.9897 -1.1250 -0.2866
   99bbb     C5 2884   6.881   6.624   3.249  0.3203  0.4143 -0.2055
   99bbb     H9 2885   6.857   6.708   3.183  1.0928  1.2258  0.5311
   99bbb    H10 2886   6.791   6.561   3.255 -1.2665  2.5920  0.2464
   99bbb     C6 2887   6.777   6.978   3.299 -0.4396  0.3646 -1.0197
   99bbb    H11 2888   6.872   6.951   3.252 -0.1796 -0.2507 -0.1651
   99bbb    H12 2889   6.801   7.031   3.392 -2.5466  1.2827 -0.9450
   99bbb     C7 2890   6.677   6.931   3.785  0.0116  0.3113 -0.3281
   99bbb    H13 2891   6.727   7.027   3.801  0.7057 -0.1473  0.3472
   99bbb    H14 2892   6.735   6.861   3.847 -1.8795  0.1528  1.3898
   99bbb     C8 2893   6.685   7.047   3.198 -0.2558 -0.1130 -0.4734
   99bbb    H15 2894   6.737   7.134   3.157 -0.0029 -0.1569 -0.2453
   99bbb    H16 2895   6.592   7.082   3.244 -0.5257 -1.0927 -0.2317
   99bbb     C9 2896   6.991   6.536   3.198 -0.3967 -0.6255  0.6841
   99bbb    H17 2897   6.955   6.474   3.115 -0.6438  0.2611  0.1067
   99bbb    H18 2898   7.020   6.465   3.276  1.1292 -0.3462  0.3981
   99bbb     O1 2899   6.551   6.937   3.849 -0.6136  0.3767 -0.1512
  100bbb     N1 2900   6.344   6.073   3.860 -0.4732 -0.6275 -0.9870
  100bbb     C1 2901   6.360   6.109   4.004  0.1580 -0.0720  0.6568
  100bbb     H1 2902   6.369   6.218   4.015  4.3774 -0.2234  0.3433
  100bbb     H2 2903   6.457   6.068   4.034 -0.4806 -2.9188 -0.8398
  100bbb     C2 2904   6.437   6.143   3.768  0.0543 -0.1860  0.3557
  100bbb     H3 2905   6.403   6.247   3.762 -0.8722 -0.5183 -0.2143
  100bbb     H4 2906   6.427   6.107   3.666  0.5743  0.1426  0.1806
  100bbb     C3 2907   6.204   6.105   3.810 -0.1248 -0.0385  0.7073
  100bbb     H5 2908   6.201   6.119   3.702 -1.1691  0.3497  0.7775
  100bbb     H6 2909   6.175   6.202   3.852  0.6446  1.5015 -2.0764
  100bbb     C4 2910   6.101   5.992   3.833 -0.5661 -0.5282  0.3101
  100bbb     H7 2911   6.109   5.955   3.936  0.7082  0.8892  0.7480
  100bbb     H8 2912   6.132   5.916   3.760  0.2474 -0.3825  0.4986
  100bbb     C5 2913   6.266   6.049   4.112 -0.3569 -0.0049 -0.0022
  100bbb     H9 2914   6.291   5.943   4.108  0.1225  0.0531  1.0344
  100bbb    H10 2915   6.161   6.073   4.090 -0.2542  0.8158  0.3440
  100bbb     C6 2916   6.587   6.132   3.807 -0.1618  0.8786 -0.0125
  100bbb    H11 2917   6.597   6.186   3.901 -0.9347 -1.4817  1.5211
  100bbb    H12 2918   6.650   6.180   3.731  0.5873  0.0647  0.0776
  100bbb     C7 2919   5.962   6.051   3.800 -0.1094  0.2364  0.0504
  100bbb    H13 2920   5.892   5.967   3.789 -0.0478  0.3875 -1.8444
  100bbb    H14 2921   5.961   6.108   3.706 -0.2021  1.0464  0.5310
  100bbb     C8 2922   6.650   5.992   3.822  0.0763  0.0191 -0.2146
  100bbb    H15 2923   6.635   5.929   3.734  3.1165  0.4883 -1.2125
  100bbb    H16 2924   6.597   5.943   3.905 -2.3036  0.2328 -1.5396
  100bbb     C9 2925   6.297   6.103   4.252 -0.0721 -1.0845  0.3765
  100bbb    H17 2926   6.252   6.203   4.259  3.3169  0.6546 -0.3698
  100bbb    H18 2927   6.406   6.113   4.265  0.2647  0.9808 -2.7448
  100bbb     O1 2928   5.926   6.139   3.906 -0.4116 -0.1554  0.3000
  101bbb     N1 2929   6.107   7.066   3.762  0.0722 -0.1789 -0.1647
  101bbb     C1 2930   6.037   7.118   3.640  0.0947  0.3279 -0.3922
  101bbb     H1 2931   6.107   7.187   3.591  0.7050  2.3640  3.0223
  101bbb     H2 2932   5.946   7.176   3.660 -1.0537 -1.9561  1.5407
  101bbb     C2 2933   6.238   7.002   3.729  0.0960  0.1065 -0.4270
  101bbb     H3 2934   6.223   6.913   3.668 -0.3982 -0.3265  0.3098
  101bbb     H4 2935   6.293   6.980   3.821  0.0658  1.4940 -0.0492
  101bbb     C3 2936   6.013   6.980   3.843  0.4277  0.2142  0.5820
  101bbb     H5 2937   5.988   6.885   3.796 -0.6533  0.0810  1.4075
  101bbb     H6 2938   5.921   7.035   3.866 -1.2676 -1.9148 -0.7521
  101bbb     C4 2939   6.068   6.949   3.980  0.3442 -0.1660  0.1965
  101bbb     H7 2940   6.088   7.049   4.020  0.0935  0.8566 -2.0647
  101bbb     H8 2941   6.160   6.891   3.962  0.2898 -0.1717 -0.0658
  101bbb     C5 2942   6.001   7.006   3.532  0.6114  0.0790 -0.3844
  101bbb     H9 2943   5.959   6.916   3.580  0.5327  0.6862  0.7225
  101bbb    H10 2944   6.090   6.977   3.476  1.8704  0.7528  1.1910
  101bbb     C6 2945   6.342   7.096   3.656  0.6837  1.1589  0.2429
  101bbb    H11 2946   6.316   7.091   3.550  1.0954  0.1513  0.1746
  101bbb    H12 2947   6.435   7.039   3.656 -0.4135 -0.7431  0.6621
  101bbb     C7 2948   5.961   6.883   4.061  0.7551 -0.3152  0.2850
  101bbb    H13 2949   5.879   6.954   4.071 -0.4077 -1.4194 -0.9796
  101bbb    H14 2950   6.004   6.850   4.156  0.5155  0.3761  0.6327
  101bbb     C8 2951   6.362   7.235   3.718 -0.9428 -0.0672  0.7097
  101bbb    H15 2952   6.378   7.235   3.827  0.6164  1.2023  0.5155
  101bbb    H16 2953   6.285   7.304   3.682 -0.4076  0.2155  0.0974
  101bbb     C9 2954   5.899   7.058   3.427 -0.1001 -0.2196  0.1259
  101bbb    H17 2955   5.897   6.990   3.341 -1.3867 -2.0321  1.4855
  101bbb    H18 2956   5.914   7.162   3.398 -1.1629  0.3178  1.3927
  101bbb     O1 2957   5.912   6.761   3.993  0.4504 -0.1449  0.3446
  102bbb     N1 2958   4.789   7.481   8.701  0.4971 -0.3013  0.2937
  102bbb     C1 2959   4.799   7.430   8.835  0.2741 -0.4742  0.3368
  102bbb     H1 2960   4.698   7.439   8.877 -0.2234  0.0614 -0.8951
  102bbb     H2 2961   4.864   7.486   8.903  1.1419  1.4807 -1.9491
  102bbb     C2 2962   4.724   7.615   8.714  0.2664  0.2334  0.6869
  102bbb     H3 2963   4.622   7.604   8.751 -0.6401 -2.1179 -2.0722
  102bbb     H4 2964   4.690   7.651   8.616  0.8161 -1.7051 -0.2719
  102bbb     C3 2965   4.923   7.479   8.638  0.0886  0.5399 -0.6399
  102bbb     H5 2966   4.978   7.384   8.640  2.2806  1.6650 -2.2374
  102bbb     H6 2967   4.985   7.551   8.693  0.6869 -0.4233 -0.0134
  102bbb     C4 2968   4.914   7.514   8.487  0.5552  0.1754  0.0699
  102bbb     H7 2969   5.018   7.512   8.451  1.5616 -1.3178  2.7275
  102bbb     H8 2970   4.874   7.615   8.474 -0.0569 -0.1986 -1.0740
  102bbb     C5 2971   4.840   7.280   8.852 -0.4765 -0.1208  0.2224
  102bbb     H9 2972   4.944   7.270   8.819  0.0285 -0.3750  1.7922
  102bbb    H10 2973   4.774   7.220   8.788 -0.0620 -0.3448  0.0042
  102bbb     C6 2974   4.779   7.730   8.791  0.3629 -0.2277  0.5062
  102bbb    H11 2975   4.884   7.745   8.762  0.1362  0.6734  0.1023
  102bbb    H12 2976   4.778   7.713   8.899 -2.7608 -0.9009  0.4519
  102bbb     C7 2977   4.827   7.412   8.405 -0.2492  0.0938 -0.1532
  102bbb    H13 2978   4.719   7.409   8.426 -0.9339  0.6012 -3.1157
  102bbb    H14 2979   4.865   7.310   8.415  1.6842  0.9458  1.7796
  102bbb     C8 2980   4.702   7.854   8.754  0.0578 -0.1083  0.1890
  102bbb    H15 2981   4.726   7.933   8.826 -0.7640  1.1010 -0.8145
  102bbb    H16 2982   4.596   7.838   8.776 -0.5549  0.1625 -2.2486
  102bbb     C9 2983   4.817   7.220   8.994 -0.4144  0.0166  0.5073
  102bbb    H17 2984   4.716   7.256   9.015 -0.4714  0.5516 -0.5929
  102bbb    H18 2985   4.882   7.262   9.072 -0.6849  1.2214  0.1022
  102bbb     O1 2986   4.841   7.457   8.272 -0.5603 -0.7138  0.2481
  103bbb     N1 2987   5.741   7.615   7.251  0.3685  0.7057  0.3675
  103bbb     C1 2988   5.851   7.557   7.174  0.3442 -0.2870  0.5376
  103bbb     H1 2989   5.945   7.584   7.222  0.0637  1.7270  0.0191
  103bbb     H2 2990   5.845   7.593   7.070 -0.6800  1.5025  1.1822
  103bbb     C2 2991   5.740   7.760   7.244  0.3163  1.1249  0.0556
  103bbb     H3 2992   5.637   7.789   7.272  1.1499  2.2597  2.2470
  103bbb     H4 2993   5.759   7.785   7.139  0.3440 -2.8523 -1.0378
  103bbb     C3 2994   5.722   7.557   7.386 -0.0870 -1.2027  0.0352
  103bbb     H5 2995   5.817   7.577   7.438 -0.3529  2.5668 -0.6866
  103bbb     H6 2996   5.707   7.448   7.392  1.3745 -1.4334  0.1099
  103bbb     C4 2997   5.606   7.618   7.466 -0.1084 -0.5665  0.1230
  103bbb     H7 2998   5.517   7.610   7.403 -2.1085 -0.8749  2.7887
  103bbb     H8 2999   5.623   7.725   7.484 -0.6763 -0.7393  1.8883
  103bbb     C5 3000   5.857   7.404   7.159  0.1458 -0.0914 -0.4589
  103bbb     H9 3001   5.869   7.368   7.261 -2.0597 -0.2462 -0.2107
  103bbb    H10 3002   5.947   7.381   7.100  0.4685 -0.5035  0.1878
  103bbb     C6 3003   5.838   7.832   7.341  0.8981 -0.7456 -0.1856
  103bbb    H11 3004   5.931   7.779   7.315  0.7060 -0.6342 -1.1212
  103bbb    H12 3005   5.829   7.813   7.449  2.2703  1.6883  0.4315
  103bbb     C7 3006   5.571   7.541   7.584  0.4275 -0.2354 -0.5641
  103bbb    H13 3007   5.653   7.559   7.656  0.2723  3.1551 -1.0666
  103bbb    H14 3008   5.572   7.441   7.540 -0.0770  0.4191 -2.1327
  103bbb     C8 3009   5.849   7.982   7.314  0.5776  0.1585  0.5371
  103bbb    H15 3010   5.750   8.027   7.316 -0.2656 -1.3215 -2.2444
  103bbb    H16 3011   5.891   7.975   7.213 -0.5632  1.4156 -0.0466
  103bbb     C9 3012   5.728   7.334   7.103  0.7130 -0.0002 -0.2564
  103bbb    H17 3013   5.696   7.382   7.010  0.1516  0.5585  0.2112
  103bbb    H18 3014   5.648   7.342   7.178  1.1635  1.7343  0.0717
  103bbb     O1 3015   5.456   7.578   7.635 -0.0490  0.0486  0.6274
  104bbb     N1 3016   5.038   6.969   8.664  0.0677  0.6733 -0.2200
  104bbb     C1 3017   5.122   6.990   8.784 -0.7625 -0.2724 -0.0273
  104bbb     H1 3018   5.061   6.998   8.875 -0.7945  0.5102 -0.1099
  104bbb     H2 3019   5.177   7.084   8.776  2.5220 -2.1434 -1.7229
  104bbb     C2 3020   4.908   6.901   8.696 -0.0855  0.6143  0.9082
  104bbb     H3 3021   4.831   6.979   8.701  0.6589  1.3811  0.5231
  104bbb     H4 3022   4.909   6.843   8.789 -0.4516 -2.3386 -0.7924
  104bbb     C3 3023   5.026   7.080   8.570 -0.7387 -0.1612 -0.1290
  104bbb     H5 3024   4.983   7.165   8.624  1.0287  1.7938 -1.6224
  104bbb     H6 3025   4.960   7.045   8.490  0.1579 -0.8595 -0.5910
  104bbb     C4 3026   5.163   7.121   8.514  0.0859  1.0076  0.0905
  104bbb     H7 3027   5.223   7.037   8.477 -0.6632 -0.2606  1.6383
  104bbb     H8 3028   5.212   7.185   8.588  1.0984  0.6437 -0.2498
  104bbb     C5 3029   5.222   6.879   8.802  0.1001  0.5739  0.2124
  104bbb     H9 3030   5.310   6.919   8.854 -0.4685  0.9920  0.8774
  104bbb    H10 3031   5.265   6.844   8.708  0.9989 -0.7918  1.0937
  104bbb     C6 3032   4.880   6.800   8.576 -0.3731 -0.8175  0.7529
  104bbb    H11 3033   4.969   6.735   8.569 -0.3894 -0.6751 -1.5369
  104bbb    H12 3034   4.878   6.855   8.481 -1.0185  0.6671  1.5909
  104bbb     C7 3035   5.142   7.213   8.387  0.7814  0.1276  0.4503
  104bbb    H13 3036   5.100   7.300   8.437 -1.3000 -1.1865  1.0911
  104bbb    H14 3037   5.083   7.167   8.307 -0.0401  0.5122  0.8357
  104bbb     C8 3038   4.749   6.719   8.594  0.5294  0.5018  0.9481
  104bbb    H15 3039   4.716   6.673   8.500  0.1311  2.5324  0.0330
  104bbb    H16 3040   4.669   6.791   8.615  1.3891  1.5423  0.7145
  104bbb     C9 3041   5.182   6.750   8.877  0.9161  0.6568  0.0466
  104bbb    H17 3042   5.271   6.687   8.886  1.0827  0.9291  0.3531
  104bbb    H18 3043   5.104   6.687   8.834  0.3394  0.2590  1.5865
  104bbb     O1 3044   5.276   7.234   8.331 -0.1008  0.0023 -0.0180
  105bbb     N1 3045   5.665   8.034   8.257  1.0277  0.1438  0.1495
  105bbb     C1 3046   5.806   8.072   8.278 -0.8991  0.0354 -0.4748
  105bbb     H1 3047   5.863   7.996   8.332 -1.7855  2.0539  3.7464
  105bbb     H2 3048   5.817   8.159   8.344  0.3180 -1.7053  1.7586
  105bbb     C2 3049   5.562   8.132   8.214 -0.5479 -0.0021  0.1379
  105bbb     H3 3050   5.470   8.080   8.186  0.1682 -0.2255 -2.0054
  105bbb     H4 3051   5.586   8.185   8.121 -1.0310 -1.5699 -0.9080
  105bbb     C3 3052   5.616   7.919   8.345 -0.3217 -0.1124  0.0287
  105bbb     H5 3053   5.513   7.900   8.315 -0.0978  1.0883 -1.6304
  105bbb     H6 3054   5.604   7.933   8.453 -1.9869 -0.8074 -0.0324
  105bbb     C4 3055   5.690   7.790   8.322 -0.0118 -0.4688  0.4735
  105bbb     H7 3056   5.642   7.719   8.392  0.3916  1.3851  2.7569
  105bbb     H8 3057   5.798   7.797   8.344  0.7137 -0.2037 -2.7300
  105bbb     C5 3058   5.881   8.122   8.146  0.0061  0.2264 -0.6451
  105bbb     H9 3059   5.846   8.222   8.118 -0.1700 -0.0876 -1.5966
  105bbb    H10 3060   5.854   8.058   8.061 -1.2365 -0.3308  0.1316
  105bbb     C6 3061   5.526   8.234   8.324 -0.8938  0.0254  0.1871
  105bbb    H11 3062   5.620   8.280   8.358 -1.2073  0.4504  0.4868
  105bbb    H12 3063   5.486   8.187   8.415  1.3797 -0.9967  0.7421
  105bbb     C7 3064   5.670   7.738   8.185 -0.9037 -0.1288 -0.1010
  105bbb    H13 3065   5.710   7.800   8.104 -0.8100 -2.7113 -2.1677
  105bbb    H14 3066   5.564   7.729   8.157 -1.0132 -2.1207  0.8256
  105bbb     C8 3067   5.435   8.343   8.268  0.3322 -0.2292  0.5997
  105bbb    H15 3068   5.332   8.306   8.274  0.7495 -1.3996  0.8284
  105bbb    H16 3069   5.455   8.372   8.164 -0.7780  2.2963  1.0235
  105bbb     C9 3070   6.037   8.124   8.158  0.0905  0.6621 -0.0515
  105bbb    H17 3071   6.078   8.146   8.058  0.4839 -2.6906 -0.7225
  105bbb    H18 3072   6.060   8.021   8.187  1.6106  0.9210 -0.2151
  105bbb     O1 3073   5.735   7.606   8.176 -0.8176  0.1444 -0.5060
  106bbb     N1 3074   4.070   7.174   5.800  0.0700  0.5716  0.1284
  106bbb     C1 3075   3.965   7.125   5.704  0.1190  0.1509  0.0071
  106bbb     H1 3076   3.935   7.023   5.731  1.9805 -0.6152 -0.6837
  106bbb     H2 3077   3.997   7.122   5.600  1.1037  0.5115  0.2861
  106bbb     C2 3078   4.108   7.317   5.782  0.2218 -0.0205 -0.0875
  106bbb     H3 3079   4.187   7.347   5.851  0.0327  0.1075  0.0739
  106bbb     H4 3080   4.023   7.381   5.809  1.0049  0.3383  1.6676
  106bbb     C3 3081   4.195   7.089   5.802 -0.4642  0.5015  0.2007
  106bbb     H5 3082   4.280   7.135   5.854  0.7216 -0.6579 -0.6625
  106bbb     H6 3083   4.233   7.069   5.701 -4.5329 -1.3299 -1.1732
  106bbb     C4 3084   4.162   6.942   5.851 -0.4982 -0.4480  0.1324
  106bbb     H7 3085   4.254   6.883   5.853  0.9635  1.6857 -0.0959
  106bbb     H8 3086   4.100   6.888   5.778  1.1008 -2.2429  0.0136
  106bbb     C5 3087   3.833   7.206   5.731 -0.6909 -0.0139 -0.2024
  106bbb     H9 3088   3.753   7.158   5.674 -0.1238  0.0386 -1.0645
  106bbb    H10 3089   3.844   7.302   5.679  2.0087 -1.2016 -2.0743
  106bbb     C6 3090   4.153   7.361   5.637 -0.4521 -0.0315 -0.0951
  106bbb    H11 3091   4.057   7.368   5.585 -0.6348  0.3963  0.2915
  106bbb    H12 3092   4.215   7.291   5.580 -1.2046  0.5663 -1.7002
  106bbb     C7 3093   4.083   6.928   5.980 -0.0284 -0.3741  0.2632
  106bbb    H13 3094   3.998   6.997   5.974  1.4184  1.4765  0.0476
  106bbb    H14 3095   4.145   6.960   6.066  3.6545 -0.0267 -2.2743
  106bbb     C8 3096   4.211   7.508   5.628 -0.2618  0.4966 -0.2921
  106bbb    H15 3097   4.314   7.504   5.665  0.0207  2.9444 -0.6453
  106bbb    H16 3098   4.151   7.574   5.691  1.8332  0.4479  1.8840
  106bbb     C9 3099   3.783   7.210   5.883  0.0798  0.1929  0.6687
  106bbb    H17 3100   3.858   7.273   5.932  1.7847  1.7291 -3.3944
  106bbb    H18 3101   3.790   7.110   5.926 -1.6065  0.5357  1.8154
  106bbb     O1 3102   4.043   6.796   6.006 -0.0955  0.1387  0.1415
  107bbb     N1 3103   3.248   5.790   6.521 -0.6758  0.2858 -0.3766
  107bbb     C1 3104   3.320   5.710   6.428 -0.3517 -0.1310  0.7115
  107bbb     H1 3105   3.345   5.616   6.478  3.1132  1.5333  2.4434
  107bbb     H2 3106   3.416   5.753   6.397 -1.2610 -0.1453 -2.5691
  107bbb     C2 3107   3.115   5.728   6.557  0.0983 -0.0952  0.1125
  107bbb     H3 3108   3.042   5.723   6.475 -2.1581  1.8114  1.8592
  107bbb     H4 3109   3.063   5.793   6.628  1.4344 -0.1080  1.1391
  107bbb     C3 3110   3.239   5.934   6.494 -0.5419 -0.4609 -0.7691
  107bbb     H5 3111   3.181   5.978   6.576 -0.0071  0.0086 -0.6387
  107bbb     H6 3112   3.202   5.945   6.392  1.9478 -1.1265 -1.8155
  107bbb     C4 3113   3.376   6.004   6.503  0.5570  0.5306 -0.3009
  107bbb     H7 3114   3.446   5.972   6.425  0.2404  0.3863 -0.5283
  107bbb     H8 3115   3.428   5.980   6.596  0.2017  1.6997  0.2122
  107bbb     C5 3116   3.251   5.665   6.296  0.7843 -0.2362  0.1483
  107bbb     H9 3117   3.170   5.591   6.305 -1.9779  2.5265 -0.2018
  107bbb    H10 3118   3.321   5.599   6.244 -0.9675 -1.3965 -0.8474
  107bbb     C6 3119   3.117   5.591   6.621  0.7493 -0.0304 -0.4480
  107bbb    H11 3120   3.188   5.590   6.704 -2.1368 -0.1824  2.2018
  107bbb    H12 3121   3.149   5.514   6.551 -2.2985 -1.5505 -0.3297
  107bbb     C7 3122   3.360   6.150   6.477  0.4364  0.9390  0.3273
  107bbb    H13 3123   3.331   6.201   6.570  1.4443  2.1840 -0.0196
  107bbb    H14 3124   3.278   6.168   6.406  0.4235 -2.4329 -0.6924
  107bbb     C8 3125   2.984   5.543   6.675 -0.5381 -0.4797 -0.0327
  107bbb    H15 3126   2.956   5.612   6.756 -1.2791 -1.0887  0.2462
  107bbb    H16 3127   3.001   5.441   6.714 -1.3411 -0.9346 -0.8381
  107bbb     C9 3128   3.196   5.776   6.206  0.0516 -0.3333 -0.0050
  107bbb    H17 3129   3.278   5.844   6.182  0.6885 -1.2165 -0.4038
  107bbb    H18 3130   3.115   5.821   6.264 -0.3140  1.0409 -1.5414
  107bbb     O1 3131   3.497   6.196   6.442 -0.1656 -0.3070 -0.0404
  108bbb     N1 3132   3.682   5.813   6.124 -0.4606  0.2519 -0.7340
  108bbb     C1 3133   3.717   5.711   6.230 -0.0464 -0.2784 -0.0132
  108bbb     H1 3134   3.791   5.642   6.188  0.5150  0.7702 -0.8070
  108bbb     H2 3135   3.626   5.664   6.268  0.1054  1.2770  2.4829
  108bbb     C2 3136   3.560   5.901   6.164  0.9906  0.0068  0.4096
  108bbb     H3 3137   3.581   5.954   6.257 -1.9965  0.6817  0.8211
  108bbb     H4 3138   3.482   5.824   6.166 -0.0150  0.8234 -2.4158
  108bbb     C3 3139   3.696   5.759   5.990  0.1954  1.0561 -0.4653
  108bbb     H5 3140   3.667   5.828   5.910  0.2605 -0.4624 -1.8470
  108bbb     H6 3141   3.630   5.672   5.984  0.4339  0.5318  2.7874
  108bbb     C4 3142   3.844   5.719   5.950  1.0704  0.0053  0.2752
  108bbb     H7 3143   3.865   5.625   6.004 -1.2406 -1.1637 -0.7348
  108bbb     H8 3144   3.902   5.808   5.979 -0.6235  1.6024 -1.0376
  108bbb     C5 3145   3.778   5.792   6.346  0.3816 -0.6340  0.4181
  108bbb     H9 3146   3.726   5.886   6.366 -0.4128 -0.8079 -0.7115
  108bbb    H10 3147   3.883   5.811   6.321  0.6660 -0.2400  1.8555
  108bbb     C6 3148   3.526   6.007   6.050  0.8011  0.0521  0.1950
  108bbb    H11 3149   3.498   5.951   5.960 -2.6756  0.7151  0.7332
  108bbb    H12 3150   3.617   6.064   6.028  1.2930 -0.1114  1.6803
  108bbb     C7 3151   3.855   5.683   5.803  0.7559 -0.2373  0.9871
  108bbb    H13 3152   3.807   5.758   5.739  0.4886 -0.3651  1.0348
  108bbb    H14 3153   3.816   5.584   5.777  1.6071 -0.4013  0.2935
  108bbb     C8 3154   3.416   6.107   6.088  0.3466 -0.1867  0.1090
  108bbb    H15 3155   3.446   6.168   6.175  1.4165  0.4262 -0.6662
  108bbb    H16 3156   3.326   6.048   6.107  1.3547 -1.5922  0.7082
  108bbb     C9 3157   3.780   5.705   6.475 -0.1333 -0.4738  1.2660
  108bbb    H17 3158   3.845   5.619   6.455  0.2025 -0.2144  1.2276
  108bbb    H18 3159   3.684   5.654   6.491 -0.6620 -1.1257 -2.9190
  108bbb     O1 3160   3.987   5.696   5.771  0.0636  0.0407  0.0556
  109bbb     N1 3161   4.252   5.184   5.390 -0.0707 -0.0026 -0.2443
  109bbb     C1 3162   4.230   5.070   5.301  0.5597 -0.3421 -0.0013
  109bbb     H1 3163   4.123   5.046   5.293  0.8599 -1.7827  0.0417
  109bbb     H2 3164   4.269   4.975   5.340  1.1260 -1.3917 -2.8924
  109bbb     C2 3165   4.179   5.306   5.337 -0.1178  0.0121  0.0168
  109bbb     H3 3166   4.074   5.276   5.321 -0.5583  1.3052  0.3542
  109bbb     H4 3167   4.221   5.339   5.241  0.7564  0.5010  0.5549
  109bbb     C3 3168   4.397   5.208   5.413 -0.4534  0.0320  0.5089
  109bbb     H5 3169   4.412   5.298   5.475 -1.2341 -0.4632  1.4368
  109bbb     H6 3170   4.453   5.227   5.321  2.6535 -1.5083  1.9216
  109bbb     C4 3171   4.469   5.087   5.479 -0.1245  0.3556  0.0883
  109bbb     H7 3172   4.500   5.015   5.402  0.9708 -0.0056  0.8469
  109bbb     H8 3173   4.403   5.030   5.546  0.4381 -0.5703 -0.1191
  109bbb     C5 3174   4.294   5.084   5.158  0.2365 -0.8170 -0.1343
  109bbb     H9 3175   4.402   5.073   5.173  0.6471  1.1674 -1.3354
  109bbb    H10 3176   4.288   5.181   5.109 -0.4098 -1.3428 -1.1346
  109bbb     C6 3177   4.184   5.430   5.434 -0.1659  0.2000  0.0241
  109bbb    H11 3178   4.286   5.470   5.429  1.1115 -2.3492  2.5553
  109bbb    H12 3179   4.166   5.402   5.538  2.1896 -0.3992  0.3381
  109bbb     C7 3180   4.595   5.121   5.551  0.0760  0.4236 -0.3205
  109bbb    H13 3181   4.671   5.152   5.478 -1.5040  0.9243 -1.8252
  109bbb    H14 3182   4.632   5.028   5.594  1.3615  0.7745 -0.6360
  109bbb     C8 3183   4.076   5.539   5.396  0.9105 -0.4553 -0.6384
  109bbb    H15 3184   4.113   5.600   5.312 -0.4520  1.7623  0.3098
  109bbb    H16 3185   4.071   5.607   5.481 -0.3738 -2.0411  0.6100
  109bbb     C9 3186   4.247   4.979   5.059 -0.6265 -0.7811  0.0595
  109bbb    H17 3187   4.265   4.885   5.113  1.2759  0.1466  1.1542
  109bbb    H18 3188   4.327   4.975   4.984  0.2869  0.2305  0.9388
  109bbb     O1 3189   4.560   5.217   5.655 -0.0901 -0.2799 -0.7131
  110bbb     N1 3190   7.561   9.190   7.430  0.1985 -0.7938 -0.2884
  110bbb     C1 3191   7.592   9.331   7.378 -0.4587 -0.2082  0.0703
  110bbb     H1 3192   7.691   9.332   7.330  0.1366 -0.7320  1.2422
  110bbb     H2 3193   7.614   9.400   7.461 -0.0026  0.6946 -0.7775
  110bbb     C2 3194   7.457   9.189   7.530 -0.1767 -0.1027  1.1054
  110bbb     H3 3195   7.416   9.088   7.543 -1.6508  0.3332  0.1167
  110bbb     H4 3196   7.375   9.248   7.487  0.7534 -0.0310 -0.6351
  110bbb     C3 3197   7.674   9.109   7.462 -0.3703 -0.7846  0.2033
  110bbb     H5 3198   7.649   9.008   7.496 -2.1336 -1.7264 -3.3998
  110bbb     H6 3199   7.729   9.156   7.544 -0.9218 -0.6125  0.4777
  110bbb     C4 3200   7.768   9.086   7.340 -0.3473 -0.8237  0.4966
  110bbb     H7 3201   7.819   9.178   7.311  2.0491 -1.9129  0.9478
  110bbb     H8 3202   7.707   9.045   7.259  0.2078 -1.2793  0.2979
  110bbb     C5 3203   7.480   9.387   7.292 -0.0597  0.2887  0.7908
  110bbb     H9 3204   7.522   9.472   7.237  0.8949 -0.9565 -0.4732
  110bbb    H10 3205   7.394   9.428   7.346  0.3403  1.9839  0.2304
  110bbb     C6 3206   7.489   9.262   7.657 -0.1268  0.5484 -0.7241
  110bbb    H11 3207   7.568   9.338   7.648  0.4648  0.0345 -0.0540
  110bbb    H12 3208   7.531   9.187   7.725 -0.2786  0.2014 -1.0146
  110bbb     C7 3209   7.890   8.990   7.372  0.0075  0.2748  0.4538
  110bbb    H13 3210   7.855   8.889   7.399 -1.9527  0.9547  0.5868
  110bbb    H14 3211   7.953   9.032   7.452  1.9525 -0.9377 -0.3442
  110bbb     C8 3212   7.359   9.318   7.725 -0.1114  0.3463  0.2118
  110bbb    H15 3213   7.316   9.403   7.671 -0.3005 -0.7005 -1.3588
  110bbb    H16 3214   7.391   9.357   7.822  0.9880 -0.1687  0.0708
  110bbb     C9 3215   7.437   9.286   7.180 -0.5474 -0.0547 -0.5090
  110bbb    H17 3216   7.366   9.218   7.227 -1.8537  2.1291  0.8727
  110bbb    H18 3217   7.529   9.236   7.146 -0.4684 -0.4551  0.2748
  110bbb     O1 3218   7.974   8.986   7.257 -0.1990  0.0067  0.9793
  111bbb     N1 3219   8.783   9.796   7.013  0.1698 -0.0070  0.3987
  111bbb     C1 3220   8.767   9.768   7.160  0.0826  0.6578  0.5991
  111bbb     H1 3221   8.675   9.710   7.171 -0.3825  1.0534 -0.9545
  111bbb     H2 3222   8.745   9.863   7.210 -1.6702  1.0466 -0.7939
  111bbb     C2 3223   8.868   9.910   6.972  0.6309  0.5552  0.2850
  111bbb     H3 3224   8.972   9.874   6.965  0.7658  0.3853  2.5899
  111bbb     H4 3225   8.876   9.990   7.046 -0.1529 -0.6877  1.7760
  111bbb     C3 3226   8.802   9.674   6.921  0.4095  0.1503 -0.0066
  111bbb     H5 3227   8.898   9.634   6.956  0.8393  0.4726 -0.7790
  111bbb     H6 3228   8.826   9.706   6.819  1.4526  1.0483  0.5004
  111bbb     C4 3229   8.690   9.569   6.921 -0.4509  0.3281 -0.0380
  111bbb     H7 3230   8.630   9.590   6.832  3.0837  3.9637 -1.9088
  111bbb     H8 3231   8.621   9.580   7.005  1.5734 -0.5659  1.8286
  111bbb     C5 3232   8.881   9.686   7.226  0.0538  0.1284  0.0187
  111bbb     H9 3233   8.968   9.752   7.230  0.3561 -0.1305 -1.6569
  111bbb    H10 3234   8.913   9.602   7.163  0.3180  0.6427 -0.5432
  111bbb     C6 3235   8.822   9.968   6.832  0.1070 -0.1185  0.0622
  111bbb    H11 3236   8.716   9.946   6.816  0.4874 -1.3160 -0.9185
  111bbb    H12 3237   8.862   9.903   6.754  0.6214  0.0823  0.1537
  111bbb     C7 3238   8.759   9.426   6.914 -0.0299 -0.6032 -0.2874
  111bbb    H13 3239   8.847   9.423   6.979 -0.8777  0.3050  0.9214
  111bbb    H14 3240   8.799   9.405   6.813  1.6349 -0.1336  0.2436
  111bbb     C8 3241   8.867  10.106   6.801 -0.4310 -0.6769  0.2702
  111bbb    H15 3242   8.855  10.134   6.695 -1.5197  1.7006  0.9428
  111bbb    H16 3243   8.976  10.115   6.809 -0.4939  1.3994 -0.3652
  111bbb     C9 3244   8.844   9.633   7.363  0.5257  0.6729 -0.2895
  111bbb    H17 3245   8.932   9.580   7.403 -0.5586 -1.9131 -1.0668
  111bbb    H18 3246   8.768   9.554   7.363  2.0461 -1.0543  4.0063
  111bbb     O1 3247   8.666   9.326   6.949  0.0845 -0.1395 -0.0579
  112bbb     N1 3248   8.275   8.503   4.989  0.7583 -0.0266 -0.5387
  112bbb     C1 3249   8.147   8.499   4.910 -0.2529  0.1857 -0.0358
  112bbb     H1 3250   8.152   8.576   4.832  0.9900 -0.0762 -0.2351
  112bbb     H2 3251   8.054   8.525   4.961  0.0044  0.7622  0.1462
  112bbb     C2 3252   8.402   8.472   4.913  0.1083 -0.1753  0.0452
  112bbb     H3 3253   8.402   8.367   4.879  0.4981  0.0163 -0.5600
  112bbb     H4 3254   8.494   8.494   4.968  0.8181  0.1746 -1.2336
  112bbb     C3 3255   8.273   8.431   5.121  0.1588 -0.2431  1.0051
  112bbb     H5 3256   8.364   8.478   5.161  1.8404 -1.5859 -1.0360
  112bbb     H6 3257   8.287   8.324   5.106  1.6885  0.0750 -0.0061
  112bbb     C4 3258   8.148   8.473   5.198  0.0134  0.3353 -0.4085
  112bbb     H7 3259   8.057   8.436   5.148  0.4797  0.4748 -1.3710
  112bbb     H8 3260   8.141   8.583   5.198 -0.4254  0.3102 -0.3387
  112bbb     C5 3261   8.131   8.356   4.840 -0.2919 -0.8057  0.6680
  112bbb     H9 3262   8.159   8.276   4.909  3.5833 -0.4721 -0.2547
  112bbb    H10 3263   8.210   8.342   4.764  0.2137 -1.5523  1.3188
  112bbb     C6 3264   8.425   8.545   4.778 -0.3151 -0.1106  0.7292
  112bbb    H11 3265   8.352   8.513   4.702 -0.9543  2.3273  0.2316
  112bbb    H12 3266   8.518   8.506   4.735 -0.0088  0.2527  1.0642
  112bbb     C7 3267   8.134   8.416   5.338 -0.2424 -0.4967 -0.2272
  112bbb    H13 3268   8.234   8.406   5.381  0.6645  2.6274 -1.3062
  112bbb    H14 3269   8.086   8.318   5.338 -1.7729  0.2096 -0.3141
  112bbb     C8 3270   8.428   8.706   4.793  0.6786  0.1843 -0.5489
  112bbb    H15 3271   8.493   8.746   4.871 -0.1406 -0.9447  0.7636
  112bbb    H16 3272   8.326   8.738   4.821  0.4962  0.8003 -1.8342
  112bbb     C9 3273   7.991   8.335   4.774 -0.0154  0.1181 -0.6014
  112bbb    H17 3274   7.911   8.357   4.846  1.0258  2.2027 -0.0173
  112bbb    H18 3275   7.985   8.232   4.736  0.2366  0.6183 -2.0607
  112bbb     O1 3276   8.047   8.511   5.405 -0.3975 -0.1403  0.4920
  113bbb     N1 3277   8.364   9.318   6.074  0.0530  0.2886  0.1615
  113bbb     C1 3278   8.508   9.298   6.040  0.6140  0.6342 -0.5119
  113bbb     H1 3279   8.563   9.393   6.048  1.8602 -0.1867  1.2007
  113bbb     H2 3280   8.525   9.263   5.937 -1.6834  0.6416 -0.9525
  113bbb     C2 3281   8.331   9.364   6.210 -0.8778 -0.3579  0.7403
  113bbb     H3 3282   8.361   9.279   6.273  0.6217 -0.8175 -0.5214
  113bbb     H4 3283   8.224   9.383   6.221 -0.9185  0.3063 -0.6198
  113bbb     C3 3284   8.285   9.202   6.028 -0.0293  0.5920 -0.5443
  113bbb     H5 3285   8.303   9.122   6.101  1.0432 -0.0156 -1.4417
  113bbb     H6 3286   8.332   9.156   5.940 -1.2095 -1.4438 -0.1774
  113bbb     C4 3287   8.132   9.216   6.018  0.0644  0.3914  0.2523
  113bbb     H7 3288   8.109   9.320   5.993  0.8224  0.5336  0.1395
  113bbb     H8 3289   8.086   9.189   6.114  0.5209 -1.3515  0.0106
  113bbb     C5 3290   8.582   9.193   6.130 -0.3207 -0.0865 -0.1453
  113bbb     H9 3291   8.542   9.094   6.107  1.2418 -0.4277 -1.6093
  113bbb    H10 3292   8.561   9.225   6.233  0.6401  0.6020 -0.1524
  113bbb     C6 3293   8.401   9.490   6.252  0.1935 -0.0173  0.3720
  113bbb    H11 3294   8.388   9.573   6.181  0.2595  0.7894  1.2954
  113bbb    H12 3295   8.508   9.479   6.276 -0.0389 -2.8503  0.4099
  113bbb     C7 3296   8.061   9.120   5.913 -0.2550 -0.1387 -0.1243
  113bbb    H13 3297   8.087   9.015   5.933 -0.5580 -0.6153 -2.0898
  113bbb    H14 3298   8.088   9.152   5.812  0.6865 -0.5043  0.0021
  113bbb     C8 3299   8.343   9.538   6.392  0.0659  0.3408 -0.0598
  113bbb    H15 3300   8.325   9.455   6.461 -0.9730  0.3542 -0.3046
  113bbb    H16 3301   8.247   9.589   6.379 -2.4399 -3.7813  0.5177
  113bbb     C9 3302   8.734   9.186   6.094  0.1853  0.0786  0.0690
  113bbb    H17 3303   8.786   9.101   6.137 -0.0065 -0.3639 -0.5539
  113bbb    H18 3304   8.775   9.280   6.134  0.9702  0.3296 -1.2452
  113bbb     O1 3305   7.922   9.131   5.929  0.1760  0.2080  0.5342
  114bbb     N1 3306   7.939   8.882   4.847  0.0912  0.7247  0.3259
  114bbb     C1 3307   7.885   8.760   4.909  1.0708 -0.1994 -0.6312
  114bbb     H1 3308   7.952   8.725   4.988 -0.9387 -2.1197  0.3468
  114bbb     H2 3309   7.863   8.678   4.841  1.5475 -1.9959  1.2852
  114bbb     C2 3310   8.032   8.851   4.735 -0.2764  0.2857  0.3593
  114bbb     H3 3311   7.991   8.772   4.670 -0.8978  0.1136  0.9515
  114bbb     H4 3312   8.116   8.804   4.787 -0.8223 -0.1410  0.8757
  114bbb     C3 3313   7.964   8.997   4.937 -0.0682  0.6288 -0.2479
  114bbb     H5 3314   7.871   9.051   4.957  0.5280  2.5326 -2.2733
  114bbb     H6 3315   8.024   9.071   4.883 -1.1169  0.1774 -2.1007
  114bbb     C4 3316   8.042   8.963   5.064  0.2004  0.3587  0.8020
  114bbb     H7 3317   7.984   8.893   5.125 -1.7672 -0.6836 -2.0588
  114bbb     H8 3318   8.050   9.049   5.133  0.3581  1.2928 -0.3473
  114bbb     C5 3319   7.756   8.784   4.983  0.1355  0.0681  0.2792
  114bbb     H9 3320   7.681   8.818   4.910 -0.3620 -2.7458 -0.6513
  114bbb    H10 3321   7.764   8.862   5.060  0.2844 -0.6456  0.9982
  114bbb     C6 3322   8.100   8.969   4.654 -0.4247  0.9632  0.4450
  114bbb    H11 3323   8.155   8.918   4.574 -1.6230 -2.8178  1.8084
  114bbb    H12 3324   8.168   9.010   4.729  1.9084 -2.4372  0.4238
  114bbb     C7 3325   8.181   8.906   5.043 -0.3909  0.2703 -0.2796
  114bbb    H13 3326   8.250   8.985   5.012 -0.9079  1.3033  1.0598
  114bbb    H14 3327   8.176   8.829   4.965 -2.7297 -0.6575  0.6767
  114bbb     C8 3328   8.013   9.087   4.615 -0.3452 -0.5282 -0.1449
  114bbb    H15 3329   8.087   9.165   4.595 -0.6418 -0.8272 -2.8199
  114bbb    H16 3330   7.950   9.110   4.701 -1.2204  0.7624 -1.1013
  114bbb     C9 3331   7.700   8.665   5.063 -0.1694  0.3549  0.4131
  114bbb    H17 3332   7.679   8.573   5.006  2.3300 -0.6648  1.0150
  114bbb    H18 3333   7.603   8.698   5.101 -0.1294  0.6184  0.2919
  114bbb     O1 3334   8.212   8.854   5.175 -0.5206  0.0252 -0.1127
  115bbb     N1 3335   9.196   9.031   5.248 -0.0481  0.3530  0.1297
  115bbb     C1 3336   9.331   9.095   5.248  0.0102  0.0873 -0.1372
  115bbb     H1 3337   9.409   9.023   5.275 -0.2285  0.4586  1.6654
  115bbb     H2 3338   9.328   9.178   5.320  2.7718  0.5999 -0.4962
  115bbb     C2 3339   9.158   8.936   5.135 -0.1374 -0.0605 -0.1192
  115bbb     H3 3340   9.170   8.987   5.038  1.5207 -0.1781 -0.0177
  115bbb     H4 3341   9.055   8.900   5.141 -0.4554  0.6811 -0.9714
  115bbb     C3 3342   9.171   8.980   5.383  0.4524 -0.1617  0.4764
  115bbb     H5 3343   9.171   9.059   5.459 -0.9509  1.3361 -0.9856
  115bbb     H6 3344   9.251   8.913   5.415  0.3157 -2.5148 -3.4030
  115bbb     C4 3345   9.043   8.903   5.415 -0.8699 -0.7053  0.5534
  115bbb     H7 3346   9.056   8.864   5.517  0.4122 -0.3395  0.5467
  115bbb     H8 3347   9.045   8.812   5.355  0.4435 -0.5404  0.3151
  115bbb     C5 3348   9.366   9.157   5.111 -0.6535 -0.3549 -0.1850
  115bbb     H9 3349   9.277   9.197   5.062 -0.8921 -0.6228  0.0279
  115bbb    H10 3350   9.401   9.074   5.049 -0.6766  0.3431 -1.1480
  115bbb     C6 3351   9.250   8.807   5.129 -0.5254  0.4317  0.4874
  115bbb    H11 3352   9.281   8.773   5.228  1.8140  1.3469  0.1367
  115bbb    H12 3353   9.339   8.838   5.074  0.0747  0.7919  1.6340
  115bbb     C7 3354   8.911   8.985   5.417  0.1707  0.1306 -0.6855
  115bbb    H13 3355   8.902   9.017   5.313  0.8557  0.3155 -0.6901
  115bbb    H14 3356   8.910   9.069   5.487 -1.3971 -0.1562 -0.3252
  115bbb     C8 3357   9.188   8.693   5.046 -0.1526  0.6693 -0.2264
  115bbb    H15 3358   9.116   8.635   5.105  1.9852 -0.2917  1.5733
  115bbb    H16 3359   9.266   8.619   5.027 -0.0268  0.5169  0.8191
  115bbb     C9 3360   9.471   9.267   5.115  0.4425 -0.2169 -0.2329
  115bbb    H17 3361   9.454   9.335   5.199 -2.0000 -1.2292  0.1681
  115bbb    H18 3362   9.462   9.321   5.020  2.3581 -0.4851 -0.6194
  115bbb     O1 3363   8.800   8.890   5.441 -0.4233  0.0194  0.0358
  116bbb     N1 3364   9.636   8.713   5.197  0.5288  0.0908 -0.0270
  116bbb     C1 3365   9.737   8.761   5.296 -0.8950  0.0777 -0.2237
  116bbb     H1 3366   9.786   8.677   5.346 -0.3658  1.4899  1.7488
  116bbb     H2 3367   9.692   8.803   5.387 -1.8080 -1.3487  0.0161
  116bbb     C2 3368   9.685   8.638   5.083  0.1640  0.0072  0.2365
  116bbb     H3 3369   9.724   8.540   5.115  0.8986  0.5686  1.0966
  116bbb     H4 3370   9.777   8.679   5.039 -0.6957 -0.3585 -2.0435
  116bbb     C3 3371   9.515   8.651   5.260  0.6301  0.3989 -0.6012
  116bbb     H5 3372   9.444   8.611   5.187 -1.7693  0.0926  1.7812
  116bbb     H6 3373   9.462   8.731   5.312 -0.7999 -1.1429  0.3991
  116bbb     C4 3374   9.548   8.536   5.356  0.0723  0.3541 -0.0549
  116bbb     H7 3375   9.609   8.572   5.440  1.5806 -1.7945 -0.1222
  116bbb     H8 3376   9.598   8.457   5.299 -2.2122 -0.6029 -0.8429
  116bbb     C5 3377   9.860   8.859   5.245  0.3040 -0.2619 -0.1270
  116bbb     H9 3378   9.819   8.943   5.189 -3.5841 -1.9958 -0.1552
  116bbb    H10 3379   9.919   8.800   5.174 -0.6587  0.2942 -1.4214
  116bbb     C6 3380   9.587   8.592   4.970  0.8869 -0.1006 -0.2195
  116bbb    H11 3381   9.541   8.680   4.923 -0.3465  0.1159  1.2976
  116bbb    H12 3382   9.499   8.535   5.003  0.8244 -0.0691 -0.3309
  116bbb     C7 3383   9.415   8.459   5.409 -0.3442 -0.4151  0.5621
  116bbb    H13 3384   9.439   8.376   5.476  0.9120  1.1952  2.2071
  116bbb    H14 3385   9.368   8.413   5.321 -2.6774  0.3603  1.3423
  116bbb     C8 3386   9.650   8.502   4.855  0.4067  0.2404  0.5134
  116bbb    H15 3387   9.580   8.491   4.771  3.3893 -0.5103 -2.0833
  116bbb    H16 3388   9.666   8.404   4.901 -1.6830 -0.1305  0.5390
  116bbb     C9 3389   9.952   8.910   5.354 -0.1418 -0.2505  0.0509
  116bbb    H17 3390  10.018   8.976   5.297 -0.0062  0.5628  1.1194
  116bbb    H18 3391  10.022   8.831   5.385  0.5276  0.3541  0.0998
  116bbb     O1 3392   9.325   8.556   5.463 -0.1207  0.1020  0.0022
  117bbb     N1 3393   8.646   9.233   5.006  0.0899  0.4193  0.8727
  117bbb     C1 3394   8.507   9.234   4.945  0.1696  0.5430  0.1334
  117bbb     H1 3395   8.441   9.229   5.033 -0.4061 -1.2015 -0.3528
  117bbb     H2 3396   8.491   9.138   4.893  0.1232 -0.9944  2.7688
  117bbb     C2 3397   8.700   9.369   5.040 -0.0540  0.2514  0.5794
  117bbb     H3 3398   8.678   9.438   4.957 -0.7114 -1.4254 -0.7048
  117bbb     H4 3399   8.810   9.370   5.046 -0.1298  1.1537  2.0856
  117bbb     C3 3400   8.688   9.128   5.095 -0.2242  0.1602  0.3000
  117bbb     H5 3401   8.637   9.134   5.192 -0.3059 -0.6685  0.3193
  117bbb     H6 3402   8.794   9.128   5.122 -0.0983 -2.3414  0.0625
  117bbb     C4 3403   8.667   8.991   5.022 -0.8462 -0.4583 -0.6563
  117bbb     H7 3404   8.715   9.000   4.924 -0.4551  1.4000 -0.3291
  117bbb     H8 3405   8.559   8.973   5.014 -1.3718  1.5371  0.9808
  117bbb     C5 3406   8.468   9.344   4.846  0.1765 -0.1868 -0.3450
  117bbb     H9 3407   8.554   9.367   4.783  1.9428 -1.5701  1.4109
  117bbb    H10 3408   8.467   9.439   4.900  2.5064 -0.7392  0.8086
  117bbb     C6 3409   8.653   9.427   5.173  0.3465 -0.0780  0.1436
  117bbb    H11 3410   8.710   9.371   5.249  1.0519  0.5936  0.1253
  117bbb    H12 3411   8.544   9.417   5.177  0.1723  0.7202 -1.8718
  117bbb     C7 3412   8.731   8.871   5.090 -0.5069 -0.1234 -0.0297
  117bbb    H13 3413   8.723   8.859   5.198 -1.5266  0.2369 -0.0505
  117bbb    H14 3414   8.836   8.878   5.059 -0.5137 -0.8813 -0.2348
  117bbb     C8 3415   8.677   9.582   5.193 -0.5469 -0.1170  0.2411
  117bbb    H15 3416   8.670   9.627   5.292  2.6948  2.6801 -0.6261
  117bbb    H16 3417   8.597   9.625   5.132  1.9220  2.2729 -1.5136
  117bbb     C9 3418   8.328   9.313   4.780  0.1939 -0.3322  0.5539
  117bbb    H17 3419   8.336   9.224   4.716 -0.3046  0.4332 -0.6008
  117bbb    H18 3420   8.302   9.397   4.714  0.0903 -1.2402 -0.5917
  117bbb     O1 3421   8.683   8.747   5.037  0.0008  0.0886 -0.6673
  118bbb     N1 3422   6.683   6.074   4.364  0.1187 -0.3148 -0.1449
  118bbb     C1 3423   6.638   5.950   4.299  0.2163  0.6143  0.7006
  118bbb     H1 3424   6.607   5.967   4.195 -0.6541 -0.8066  0.6946
  118bbb     H2 3425   6.549   5.907   4.347  1.7904 -2.9290  0.7484
  118bbb     C2 3426   6.799   6.130   4.306  0.0023  0.6690  0.0580
  118bbb     H3 3427   6.885   6.065   4.326 -0.1163  0.6105  0.3952
  118bbb     H4 3428   6.820   6.232   4.343  0.7212  1.0393 -1.3131
  118bbb     C3 3429   6.700   6.052   4.512 -0.3345 -0.3624 -0.3516
  118bbb     H5 3430   6.797   6.005   4.533  1.3474  2.9705  0.0699
  118bbb     H6 3431   6.627   5.981   4.552 -1.7191  0.9328 -0.4582
  118bbb     C4 3432   6.700   6.183   4.597  0.3698  0.1461 -0.1908
  118bbb     H7 3433   6.619   6.248   4.563  2.6256  2.7798 -0.9168
  118bbb     H8 3434   6.794   6.234   4.572  0.8600  0.5710  2.2409
  118bbb     C5 3435   6.749   5.843   4.308 -0.3329  0.2627 -0.0383
  118bbb     H9 3436   6.798   5.841   4.406 -1.4050  2.2154  0.5886
  118bbb    H10 3437   6.825   5.870   4.233 -0.0153 -1.7313 -0.4781
  118bbb     C6 3438   6.804   6.161   4.157 -0.3327  0.6263  0.2552
  118bbb    H11 3439   6.703   6.198   4.136  0.1356  1.1734 -1.1445
  118bbb    H12 3440   6.820   6.066   4.105  1.2497  0.0387  1.6950
  118bbb     C7 3441   6.681   6.139   4.752 -0.1044 -0.3838  0.1318
  118bbb    H13 3442   6.675   6.030   4.762 -0.1257 -0.2052  3.1250
  118bbb    H14 3443   6.589   6.181   4.796  0.1982 -0.4631  0.8564
  118bbb     C8 3444   6.905   6.269   4.113  0.0133  0.5175  0.1202
  118bbb    H15 3445   6.878   6.364   4.162 -0.2042  0.2029  0.6244
  118bbb    H16 3446   6.899   6.276   4.004  3.5161 -3.2445 -0.5755
  118bbb     C9 3447   6.695   5.699   4.264 -0.0917  0.8118  0.6073
  118bbb    H17 3448   6.608   5.689   4.330  0.3713 -0.5914  1.0318
  118bbb    H18 3449   6.775   5.627   4.287 -0.6350 -0.1279 -0.3953
  118bbb     O1 3450   6.789   6.198   4.833  0.2480  0.1563  0.2120
  119bbb     N1 3451   6.933   6.961   5.237  0.0398 -0.3957  0.2708
  119bbb     C1 3452   6.896   7.102   5.282 -0.4195  0.4600 -0.7254
  119bbb     H1 3453   6.910   7.172   5.199  0.6417  2.0512  0.7278
  119bbb     H2 3454   6.968   7.131   5.360 -0.9501 -1.1187  0.4169
  119bbb     C2 3455   6.844   6.913   5.131 -0.7349  0.2491  0.0357
  119bbb     H3 3456   6.743   6.899   5.170 -1.1471  0.0061 -1.0748
  119bbb     H4 3457   6.877   6.811   5.107  0.3975  0.0598  2.1944
  119bbb     C3 3458   6.944   6.858   5.340 -0.3880  0.2380  0.1288
  119bbb     H5 3459   6.919   6.756   5.306  0.4552  0.6925 -1.9926
  119bbb     H6 3460   6.877   6.877   5.425 -1.2785  0.2511 -0.5593
  119bbb     C4 3461   7.081   6.860   5.401 -0.8085  0.1479  0.3568
  119bbb     H7 3462   7.111   6.954   5.450  2.8949 -0.6290 -0.1335
  119bbb     H8 3463   7.160   6.844   5.327 -0.0740 -1.7164  1.4674
  119bbb     C5 3464   6.750   7.120   5.329 -0.0206  0.9394 -0.2129
  119bbb     H9 3465   6.736   7.067   5.425  1.8725 -2.2903 -1.5368
  119bbb    H10 3466   6.675   7.083   5.258 -1.0723  3.3500 -0.4472
  119bbb     C6 3467   6.829   7.004   5.004  0.2051  0.2467 -0.0260
  119bbb    H11 3468   6.750   7.079   5.013  1.9886  2.5832 -2.1919
  119bbb    H12 3469   6.786   6.940   4.925  1.9498 -2.8235  1.3256
  119bbb     C7 3470   7.094   6.748   5.507  0.4415 -0.0002 -0.1154
  119bbb    H13 3471   7.017   6.781   5.577 -0.1593 -0.2466 -0.6457
  119bbb    H14 3472   7.186   6.761   5.565 -0.9171  1.4360  1.8266
  119bbb     C8 3473   6.956   7.067   4.944  0.6516  0.6190  0.4671
  119bbb    H15 3474   7.000   6.985   4.886 -0.3940  1.3822 -1.4970
  119bbb    H16 3475   7.033   7.098   5.016  0.3768  3.4879 -0.3713
  119bbb     C9 3476   6.717   7.259   5.341  0.0096 -1.0074  1.5088
  119bbb    H17 3477   6.731   7.300   5.240 -2.0752 -1.9218  0.7861
  119bbb    H18 3478   6.773   7.310   5.420  0.4343 -0.2195  0.7108
  119bbb     O1 3479   7.080   6.618   5.448  0.1627 -0.4713 -0.0521
  120bbb     N1 3480   7.137   5.687   6.815  0.2061 -0.2291  0.6781
  120bbb     C1 3481   7.083   5.558   6.761  0.1987 -0.0636  0.4452
  120bbb     H1 3482   7.141   5.525   6.674 -1.4686  0.3698 -0.9100
  120bbb     H2 3483   6.981   5.568   6.720  0.1157 -0.3275  0.5880
  120bbb     C2 3484   7.055   5.752   6.917 -0.0956  0.7518  0.6188
  120bbb     H3 3485   7.013   5.676   6.985  0.3673 -0.1472 -0.0816
  120bbb     H4 3486   6.966   5.792   6.867  0.9410  0.0493 -1.9401
  120bbb     C3 3487   7.151   5.779   6.701 -0.2800 -0.7156 -0.4521
  120bbb     H5 3488   7.124   5.882   6.727 -1.0199 -1.2261  0.9464
  120bbb     H6 3489   7.082   5.756   6.619  0.8784 -0.0816 -1.6380
  120bbb     C4 3490   7.294   5.776   6.646 -0.2999 -0.1092 -0.0797
  120bbb     H7 3491   7.284   5.835   6.555  0.0604 -1.1249 -0.8031
  120bbb     H8 3492   7.321   5.678   6.603 -2.0163 -0.9040  0.5377
  120bbb     C5 3493   7.068   5.440   6.861  0.6578  0.5020 -0.3144
  120bbb     H9 3494   7.024   5.356   6.805  0.7170  1.5904 -2.0421
  120bbb    H10 3495   7.009   5.465   6.950  1.8510  1.9567  0.0946
  120bbb     C6 3496   7.110   5.870   7.002 -0.7064  0.6923  0.3496
  120bbb    H11 3497   7.152   5.946   6.935  1.1313 -0.9171 -0.4411
  120bbb    H12 3498   7.194   5.828   7.059 -2.3894  0.0772  2.5296
  120bbb     C7 3499   7.409   5.826   6.734  0.1446 -0.0707  0.0562
  120bbb    H13 3500   7.413   5.770   6.828  1.8954 -0.5255 -0.2516
  120bbb    H14 3501   7.388   5.931   6.758  0.9780  0.0481  0.3120
  120bbb     C8 3502   7.005   5.925   7.106  0.0727  0.3382  1.2698
  120bbb    H15 3503   6.938   6.003   7.069  0.0922  0.7789  2.1474
  120bbb    H16 3504   7.065   5.964   7.189 -0.5072  0.7696  1.4884
  120bbb     C9 3505   7.208   5.394   6.900 -0.4214  0.4126  0.0906
  120bbb    H17 3506   7.244   5.463   6.978  0.7541  0.2299 -0.2721
  120bbb    H18 3507   7.279   5.413   6.819  0.0314 -1.8496 -0.1047
  120bbb     O1 3508   7.540   5.820   6.672 -0.0220  0.1489  0.1882
  121bbb     N1 3509   8.189   5.133   6.726 -0.5595  0.3688  0.4037
  121bbb     C1 3510   8.117   4.994   6.717  0.5459  0.3905  0.7688
  121bbb     H1 3511   8.013   5.012   6.745  0.3969 -1.0830  1.2297
  121bbb     H2 3512   8.157   4.913   6.779 -0.5458 -0.3903  0.4754
  121bbb     C2 3513   8.328   5.126   6.774 -0.1605 -0.6161 -0.0553
  121bbb     H3 3514   8.387   5.214   6.745 -0.7875  0.2695  1.2854
  121bbb     H4 3515   8.382   5.042   6.728 -1.8061 -1.2505 -0.9307
  121bbb     C3 3516   8.101   5.231   6.795  0.0444  0.6411 -0.7629
  121bbb     H5 3517   8.072   5.213   6.899  2.2137 -0.7823 -0.3518
  121bbb     H6 3518   8.009   5.223   6.735  0.7487 -2.0252 -1.5950
  121bbb     C4 3519   8.147   5.375   6.794 -0.7023 -0.2306 -0.2507
  121bbb     H7 3520   8.209   5.398   6.707 -0.5838 -1.3228 -0.4634
  121bbb     H8 3521   8.224   5.393   6.869 -0.6411 -1.1487 -0.0832
  121bbb     C5 3522   8.135   4.935   6.577 -0.5338 -0.2881 -0.0817
  121bbb     H9 3523   8.239   4.901   6.568 -0.1094  0.9777 -0.0529
  121bbb    H10 3524   8.138   5.019   6.507  2.5287 -0.8885 -0.7856
  121bbb     C6 3525   8.338   5.112   6.932 -0.1980  0.2218  0.4160
  121bbb    H11 3526   8.300   5.015   6.968  2.0210 -0.4261  1.1780
  121bbb    H12 3527   8.281   5.196   6.973  1.3632  1.7152 -0.3412
  121bbb     C7 3528   8.029   5.474   6.808  0.5432 -0.8702 -0.1007
  121bbb    H13 3529   8.069   5.575   6.819  1.2796 -0.9330 -1.8928
  121bbb    H14 3530   7.959   5.447   6.888 -0.0636  1.1398  0.0766
  121bbb     C8 3531   8.479   5.132   6.991 -0.0685  0.4143  0.8909
  121bbb    H15 3532   8.490   5.102   7.096  0.8233  1.1870  1.0239
  121bbb    H16 3533   8.505   5.238   6.985  2.0583 -0.1144 -0.2841
  121bbb     C9 3534   8.038   4.828   6.540 -0.0627  0.5980  0.2663
  121bbb    H17 3535   8.034   4.756   6.623  0.4364  2.2824  1.8031
  121bbb    H18 3536   8.076   4.777   6.450  0.5965 -0.0447  0.8879
  121bbb     O1 3537   7.964   5.466   6.683  0.2937  0.1900 -0.3292
  122bbb     N1 3538   6.477   6.307   3.269 -0.5328 -0.3864 -0.0915
  122bbb     C1 3539   6.342   6.238   3.292 -0.0070  0.2100 -0.1313
  122bbb     H1 3540   6.277   6.325   3.279  0.6999  1.4897  3.6338
  122bbb     H2 3541   6.324   6.206   3.396  0.0014  0.4206 -0.0649
  122bbb     C2 3542   6.525   6.345   3.130  0.2712  0.4885  0.3276
  122bbb     H3 3543   6.580   6.439   3.119  0.9966 -0.0224 -0.6127
  122bbb     H4 3544   6.432   6.364   3.074 -0.3191 -2.0623  0.3292
  122bbb     C3 3545   6.513   6.416   3.360 -0.8049 -0.0770 -0.0738
  122bbb     H5 3546   6.440   6.497   3.353  0.4974  1.2225  0.8817
  122bbb     H6 3547   6.614   6.452   3.336 -1.4682  1.7218 -0.2431
  122bbb     C4 3548   6.530   6.367   3.509 -0.3207 -0.8419 -0.2546
  122bbb     H7 3549   6.597   6.281   3.504  0.8772 -0.0226  1.0169
  122bbb     H8 3550   6.433   6.330   3.543 -1.0702  0.3722 -0.9985
  122bbb     C5 3551   6.318   6.127   3.177 -0.2708  0.2004  0.4817
  122bbb     H9 3552   6.391   6.045   3.179 -0.0793  0.3540 -0.2932
  122bbb    H10 3553   6.317   6.178   3.081  0.1953  0.3603  0.5634
  122bbb     C6 3554   6.608   6.237   3.053 -0.0099  0.3622  0.2884
  122bbb    H11 3555   6.570   6.136   3.074 -1.2986  1.3412  3.2514
  122bbb    H12 3556   6.712   6.239   3.088 -0.2316  0.0737  0.9839
  122bbb     C7 3557   6.580   6.480   3.600 -0.1572  0.0806  0.5774
  122bbb    H13 3558   6.521   6.573   3.593  2.8129  1.9804 -1.9418
  122bbb    H14 3559   6.684   6.506   3.575  0.8931 -1.8797  2.5478
  122bbb     C8 3560   6.619   6.263   2.904 -0.4063  0.2350  0.0242
  122bbb    H15 3561   6.703   6.201   2.869  0.6985  1.1934  0.8904
  122bbb    H16 3562   6.635   6.371   2.895 -1.1169  0.7798  3.6133
  122bbb     C9 3563   6.186   6.064   3.199  0.1748  0.0051 -0.1585
  122bbb    H17 3564   6.159   6.010   3.108  3.0337 -0.0619 -1.0631
  122bbb    H18 3565   6.107   6.137   3.218  0.3310  0.4555 -1.1931
  122bbb     O1 3566   6.586   6.434   3.734  0.0184 -0.0664 -0.0797
  123bbb     N1 3567   6.163   6.551   3.668  0.6921 -0.0705  0.2479
  123bbb     C1 3568   6.165   6.657   3.556 -0.2489 -0.4120  0.3959
  123bbb     H1 3569   6.238   6.734   3.582 -1.0232  0.1456  0.9954
  123bbb     H2 3570   6.078   6.724   3.552  1.6860  2.4023  2.0741
  123bbb     C2 3571   6.038   6.468   3.661  0.6828  0.0544 -0.0575
  123bbb     H3 3572   6.067   6.382   3.722  2.4483  1.6370  1.4843
  123bbb     H4 3573   6.017   6.424   3.563  0.3289 -0.4630  0.2453
  123bbb     C3 3574   6.201   6.612   3.794  0.1284  0.5779  0.3303
  123bbb     H5 3575   6.122   6.671   3.841  1.0980  2.8590 -0.7423
  123bbb     H6 3576   6.287   6.680   3.787 -0.1585  1.0493  1.1948
  123bbb     C4 3577   6.240   6.512   3.904  0.4388  0.6688 -0.7168
  123bbb     H7 3578   6.326   6.448   3.882  0.7161  0.7468  0.1182
  123bbb     H8 3579   6.156   6.446   3.924  1.7795 -1.1494 -0.8755
  123bbb     C5 3580   6.194   6.602   3.410 -0.1008  0.1108 -0.1124
  123bbb     H9 3581   6.098   6.577   3.363  0.4698 -0.3863 -1.0302
  123bbb    H10 3582   6.245   6.507   3.433  1.6076  1.2403  1.0431
  123bbb     C6 3583   5.910   6.535   3.725  0.1984 -0.1055  0.2117
  123bbb    H11 3584   5.886   6.630   3.677 -1.1400 -1.4337 -1.9110
  123bbb    H12 3585   5.935   6.570   3.826 -0.2617  0.9686 -0.0372
  123bbb     C7 3586   6.268   6.590   4.036  0.4639 -0.7688  0.9656
  123bbb    H13 3587   6.181   6.655   4.052 -0.0163 -0.0958 -3.2324
  123bbb    H14 3588   6.364   6.639   4.022  0.5552 -1.3371 -0.7067
  123bbb     C8 3589   5.783   6.441   3.718  0.2712 -0.0475  0.7418
  123bbb    H15 3590   5.811   6.341   3.755 -1.1189 -1.2612 -1.3040
  123bbb    H16 3591   5.749   6.421   3.616 -1.3605  1.1375  1.0201
  123bbb     C9 3592   6.289   6.695   3.322 -0.1275  0.2226 -0.6725
  123bbb    H17 3593   6.329   6.638   3.237  0.9719  0.4497 -0.3181
  123bbb    H18 3594   6.375   6.718   3.385 -1.5942  0.2860  1.4185
  123bbb     O1 3595   6.273   6.493   4.140 -0.2872  0.1003  0.0074
  124bbb     N1 3596   8.131   6.502   5.795 -0.2279 -0.4784  0.0337
  124bbb     C1 3597   8.140   6.408   5.916 -0.4441  0.9087  0.0080
  124bbb     H1 3598   8.095   6.311   5.891 -0.5709  0.4874  1.7152
  124bbb     H2 3599   8.076   6.439   6.000  0.2888 -0.7116  1.2015
  124bbb     C2 3600   8.174   6.641   5.824 -0.4996 -0.0590  0.6647
  124bbb     H3 3601   8.235   6.654   5.914 -1.4436  0.8954  1.1790
  124bbb     H4 3602   8.084   6.699   5.848 -0.9120 -1.2648  2.1645
  124bbb     C3 3603   8.015   6.485   5.704 -0.1607 -0.1697  0.8345
  124bbb     H5 3604   8.017   6.567   5.632 -2.0921  0.1702  1.1054
  124bbb     H6 3605   7.916   6.497   5.751 -0.0945  0.1118  0.9036
  124bbb     C4 3606   8.024   6.357   5.613 -0.5695 -0.2550  0.0874
  124bbb     H7 3607   7.930   6.351   5.555  0.9845 -4.1767 -2.4577
  124bbb     H8 3608   8.027   6.269   5.678  1.4748 -0.2485  0.0519
  124bbb     C5 3609   8.282   6.381   5.961 -0.9134 -0.6446 -0.4853
  124bbb     H9 3610   8.288   6.324   6.055 -0.1781 -0.6682 -0.5352
  124bbb    H10 3611   8.337   6.474   5.980  0.0988 -1.6822  2.1817
  124bbb     C6 3612   8.239   6.721   5.703 -0.1750 -0.2937 -0.3256
  124bbb    H11 3613   8.284   6.815   5.737 -1.5156  0.2000  0.1334
  124bbb    H12 3614   8.168   6.743   5.623  0.0766  0.0490 -0.4600
  124bbb     C7 3615   8.147   6.346   5.516  0.2961  0.3068 -0.3679
  124bbb    H13 3616   8.249   6.338   5.556  1.2796  0.9955 -2.5844
  124bbb    H14 3617   8.153   6.443   5.464  0.2924 -0.6955 -2.3229
  124bbb     C8 3618   8.359   6.636   5.647  0.2898 -0.1981  0.1621
  124bbb    H15 3619   8.325   6.548   5.591 -0.0109  1.6033 -2.6673
  124bbb    H16 3620   8.432   6.604   5.723 -0.1457 -1.3988  0.0959
  124bbb     C9 3621   8.373   6.307   5.856  0.2148 -0.5632  0.0003
  124bbb    H17 3622   8.361   6.343   5.753 -2.3622  0.8310  0.6904
  124bbb    H18 3623   8.341   6.202   5.859 -1.5114 -0.0892 -0.5805
  124bbb     O1 3624   8.117   6.234   5.430 -0.1170 -0.0726  0.4179
  125bbb     N1 3625   8.184   5.328   4.595  0.2714  0.0827  0.9072
  125bbb     C1 3626   8.100   5.341   4.473  0.5072 -0.6864 -0.3481
  125bbb     H1 3627   8.119   5.441   4.432 -0.9330  1.2495  3.2117
  125bbb     H2 3628   7.995   5.343   4.506  1.0023  2.8194  1.5964
  125bbb     C2 3629   8.198   5.195   4.665  0.2940 -0.7518  1.0885
  125bbb     H3 3630   8.282   5.197   4.735  1.7983 -1.1897 -0.6296
  125bbb     H4 3631   8.231   5.114   4.599 -0.0922  0.4745 -0.6926
  125bbb     C3 3632   8.163   5.434   4.694  0.1642 -0.0467 -0.3201
  125bbb     H5 3633   8.221   5.415   4.785  0.7306  2.1453 -0.1685
  125bbb     H6 3634   8.055   5.439   4.717  0.1971 -0.4964 -0.0536
  125bbb     C4 3635   8.203   5.578   4.660 -0.7107 -0.0639  0.1864
  125bbb     H7 3636   8.166   5.608   4.561 -2.6470 -2.2670  0.1602
  125bbb     H8 3637   8.312   5.586   4.653 -0.2062 -0.3161  4.8643
  125bbb     C5 3638   8.126   5.236   4.369 -0.3436  1.0376 -0.6768
  125bbb     H9 3639   8.100   5.134   4.402  1.1445  1.6832  2.9690
  125bbb    H10 3640   8.235   5.236   4.353  0.0072 -1.1643  1.1121
  125bbb     C6 3641   8.057   5.161   4.750  0.3551  0.0007  0.3929
  125bbb    H11 3642   8.028   5.248   4.809  1.1746  1.4266 -1.2208
  125bbb    H12 3643   8.103   5.083   4.813 -0.3134 -1.5755 -1.0003
  125bbb     C7 3644   8.162   5.675   4.774  0.1638  0.1917 -0.5377
  125bbb    H13 3645   8.192   5.776   4.741  0.5862  0.3456  0.3022
  125bbb    H14 3646   8.226   5.655   4.861  1.0717 -1.1914 -1.4875
  125bbb     C8 3647   7.940   5.100   4.656  0.2341 -0.8212 -0.7615
  125bbb    H15 3648   7.990   5.040   4.579 -0.8794  1.8747 -3.8128
  125bbb    H16 3649   7.875   5.174   4.608  0.6267 -0.0663 -0.1600
  125bbb     C9 3650   8.049   5.279   4.242  0.2263  0.9689 -0.1632
  125bbb    H17 3651   8.086   5.375   4.204  0.9112  1.1186  0.8510
  125bbb    H18 3652   7.941   5.285   4.259 -0.5868 -2.4004 -2.9680
  125bbb     O1 3653   8.023   5.670   4.802  0.0277  0.0751 -0.3116
  126ccc     C1 3654   3.996   7.074   6.449 -0.8983  0.3753 -0.1304
  126ccc     H1 3655   4.031   6.972   6.435  0.2031  0.3251  2.4220
  126ccc     H2 3656   3.998   7.123   6.351  0.2813 -0.6576 -0.6482
  126ccc     C2 3657   4.099   7.147   6.539  0.4156  0.1425 -0.0528
  126ccc     H3 3658   4.178   7.186   6.474  1.0491  1.7116  1.5781
  126ccc     H4 3659   4.047   7.234   6.580 -0.0746 -0.2624  0.1958
  126ccc     C3 3660   4.133   7.067   6.661 -0.2750  0.1463 -0.1351
  126ccc     H5 3661   4.155   6.964   6.633 -0.5921  0.6422 -2.4490
  126ccc     H6 3662   4.053   7.065   6.736 -0.8151  0.2926 -0.6995
  126ccc     N1 3663   3.860   7.060   6.516  0.1167 -0.5697 -0.5829
  126ccc     H7 3664   3.784   7.037   6.450  0.7735  0.0871 -1.5769
  126ccc     H8 3665   3.854   6.986   6.588  2.5358  0.4874  0.8256
  126ccc     O1 3666   4.255   7.134   6.704 -0.3880 -0.6007 -0.1648
  126ccc    H17 3667   3.836   7.147   6.566  0.6123 -0.9026  0.2586
  127ccc     C1 3668   5.020   7.516   6.323 -0.2294  0.8547  0.3629
  127ccc     H1 3669   4.970   7.422   6.346 -1.5960  1.0352 -1.6068
  127ccc     H2 3670   5.125   7.491   6.310 -0.5007  0.0246 -0.3230
  127ccc     C2 3671   5.002   7.618   6.438  0.0719  0.5316 -0.6228
  127ccc     H3 3672   5.056   7.710   6.412  2.3878 -0.8883 -1.0918
  127ccc     H4 3673   4.895   7.643   6.435  0.0292  0.7157  1.3499
  127ccc     C3 3674   5.035   7.560   6.576 -0.3701 -1.0346 -0.0187
  127ccc     H5 3675   5.017   7.639   6.650  0.3516  0.2776 -1.1877
  127ccc     H6 3676   5.136   7.518   6.580 -0.1256 -0.6749 -1.6907
  127ccc     N1 3677   4.966   7.571   6.190  0.2901  0.2975 -0.1498
  127ccc     H7 3678   5.002   7.514   6.112 -0.0621  1.1361 -0.9394
  127ccc     H8 3679   4.863   7.562   6.190  0.2690  0.2246  1.5694
  127ccc     O1 3680   4.936   7.459   6.600 -0.1694 -0.0947 -0.8910
  127ccc    H17 3681   5.004   7.666   6.184  0.8755  0.2635  2.1262
  128ccc     C1 3682   4.066   5.334   6.880  0.2667  0.7316 -0.3324
  128ccc     H1 3683   4.163   5.290   6.902  0.2706  0.4165 -0.9615
  128ccc     H2 3684   4.086   5.379   6.783  0.0392  2.5140  0.3993
  128ccc     C2 3685   4.028   5.441   6.985 -0.3722  0.2522 -0.4711
  128ccc     H3 3686   3.931   5.489   6.965  0.7483  2.2510 -1.4656
  128ccc     H4 3687   4.017   5.402   7.086  1.7119  0.5946 -0.0788
  128ccc     C3 3688   4.137   5.544   6.995  0.1794 -0.7534  0.5829
  128ccc     H5 3689   4.227   5.504   7.042  1.0357  0.3232 -0.0776
  128ccc     H6 3690   4.107   5.625   7.063 -2.9925 -1.9047  0.7105
  128ccc     N1 3691   3.964   5.220   6.868  0.0563  0.1575  0.0791
  128ccc     H7 3692   3.889   5.268   6.817  1.3862  0.9405 -1.2006
  128ccc     H8 3693   3.998   5.150   6.800  1.9258  1.7146 -0.6729
  128ccc     O1 3694   4.168   5.596   6.860 -0.2357 -0.1641  0.5895
  128ccc    H17 3695   3.943   5.178   6.960  0.9648  2.1654  1.2740
  129ccc     C1 3696   5.136   5.708   6.395  0.2757 -0.5058  0.3932
  129ccc     H1 3697   5.123   5.725   6.288  0.4211 -0.8115  0.3273
  129ccc     H2 3698   5.119   5.605   6.425 -1.1764 -0.1490  0.9078
  129ccc     C2 3699   5.030   5.790   6.474  0.2532  0.1956 -0.0805
  129ccc     H3 3700   5.029   5.743   6.573  1.7646 -1.5221 -0.8360
  129ccc     H4 3701   5.064   5.893   6.488 -2.4499  0.7400  4.4061
  129ccc     C3 3702   4.885   5.788   6.410 -0.0188  0.1977  0.8347
  129ccc     H5 3703   4.881   5.826   6.307 -0.1862 -1.0533  0.3483
  129ccc     H6 3704   4.821   5.855   6.468 -2.4000 -2.2816  1.2879
  129ccc     N1 3705   5.279   5.748   6.414 -0.4020  0.3758  0.3450
  129ccc     H7 3706   5.285   5.849   6.400 -3.9497  0.8403  1.2150
  129ccc     H8 3707   5.313   5.725   6.508 -0.7967 -1.2219  0.1435
  129ccc     O1 3708   4.836   5.649   6.406  0.0458  0.3294  0.0767
  129ccc    H17 3709   5.336   5.695   6.346 -1.2743  0.2425 -0.3145
  130ccc     C1 3710   4.687   5.522   4.641 -0.9652  0.0600  0.4142
  130ccc     H1 3711   4.791   5.489   4.641 -0.8906  0.0892 -2.2081
  130ccc     H2 3712   4.681   5.609   4.574  1.6697 -0.6263 -0.8555
  130ccc     C2 3713   4.641   5.560   4.783 -1.0423  0.1421  0.1267
  130ccc     H3 3714   4.642   5.474   4.851 -1.4093 -0.2346 -0.3333
  130ccc     H4 3715   4.718   5.629   4.819 -0.5279  0.8982 -2.2621
  130ccc     C3 3716   4.496   5.620   4.790  0.0961 -0.3443  0.1713
  130ccc     H5 3717   4.428   5.540   4.762 -0.9618  0.3682  0.6442
  130ccc     H6 3718   4.495   5.693   4.708  1.5022 -0.9457 -0.4202
  130ccc     N1 3719   4.598   5.417   4.578 -0.1397 -0.0209 -0.2269
  130ccc     H7 3720   4.589   5.328   4.629 -0.1020 -0.5146 -1.0643
  130ccc     H8 3721   4.503   5.451   4.555  1.1249  1.9925 -3.1726
  130ccc     O1 3722   4.468   5.680   4.919 -0.0026 -0.6455 -0.5302
  130ccc    H17 3723   4.634   5.398   4.483  0.6639 -1.2353  0.3039
  131ccc     C1 3724   5.202   5.714   5.384  0.2274 -0.3926 -0.3291
  131ccc     H1 3725   5.185   5.631   5.453 -0.8822  1.0526  1.2287
  131ccc     H2 3726   5.138   5.794   5.422 -1.7490 -2.5158  1.0855
  131ccc     C2 3727   5.146   5.666   5.252 -0.5599  0.1583 -0.2819
  131ccc     H3 3728   5.155   5.747   5.178  0.1555  0.0021 -0.3774
  131ccc     H4 3729   5.208   5.587   5.207 -2.2773 -0.9757 -0.7329
  131ccc     C3 3730   5.005   5.613   5.270  0.5185 -0.2407 -0.0368
  131ccc     H5 3731   5.013   5.531   5.343 -0.7276 -1.5514 -1.2932
  131ccc     H6 3732   4.960   5.577   5.177 -1.4043  2.7265 -0.3909
  131ccc     N1 3733   5.349   5.758   5.382 -0.2779  0.3420  0.3157
  131ccc     H7 3734   5.419   5.683   5.375  0.3568  0.9548 -0.0549
  131ccc     H8 3735   5.371   5.816   5.299  1.4906 -1.1110 -0.3031
  131ccc     O1 3736   4.920   5.717   5.329  0.2290  1.0291  0.1182
  131ccc    H17 3737   5.366   5.815   5.466 -2.1262  0.9882  0.3122
  132ccc     C1 3738   5.015   5.146   6.136  0.2534 -0.0891 -0.0697
  132ccc     H1 3739   5.068   5.139   6.041 -0.6198 -1.1155 -0.5049
  132ccc     H2 3740   4.982   5.047   6.170  1.2710 -0.0331  1.1582
  132ccc     C2 3741   4.885   5.218   6.097 -0.1297  0.5320 -0.1274
  132ccc     H3 3742   4.901   5.323   6.071  1.8985  0.1729 -0.4954
  132ccc     H4 3743   4.831   5.174   6.012 -0.4826 -2.2827  1.4207
  132ccc     C3 3744   4.788   5.225   6.219  0.0206  0.4275  0.8319
  132ccc     H5 3745   4.810   5.301   6.294  0.9680 -1.6322  2.7709
  132ccc     H6 3746   4.780   5.125   6.264 -3.0765  0.3143  0.2941
  132ccc     N1 3747   5.103   5.231   6.229 -0.6213 -0.0631  0.1490
  132ccc     H7 3748   5.054   5.274   6.308 -0.6070  0.1390  0.0476
  132ccc     H8 3749   5.171   5.167   6.271 -0.9276 -1.7514 -1.7397
  132ccc     O1 3750   4.655   5.259   6.173  0.7339 -0.4901  0.1822
  132ccc    H17 3751   5.148   5.317   6.195 -0.0944 -0.2461  0.3873
  133ccc     C1 3752   3.728   4.643   6.279 -0.4243 -0.2561  0.3594
  133ccc     H1 3753   3.684   4.696   6.363 -0.8273  1.9950 -1.1900
  133ccc     H2 3754   3.747   4.536   6.294 -2.2579 -0.8942 -1.4616
  133ccc     C2 3755   3.859   4.716   6.236  0.3695 -0.1918 -0.9234
  133ccc     H3 3756   3.948   4.688   6.295 -0.0714 -1.0778 -0.6708
  133ccc     H4 3757   3.895   4.690   6.136  1.6516  1.9351 -1.0948
  133ccc     C3 3758   3.840   4.866   6.230 -0.5749 -0.3858  0.5032
  133ccc     H5 3759   3.780   4.905   6.313 -0.4218  0.1853  0.3547
  133ccc     H6 3760   3.787   4.886   6.136  1.2048 -1.3135 -0.7475
  133ccc     N1 3761   3.622   4.647   6.173 -0.3870  0.8190 -0.2168
  133ccc     H7 3762   3.542   4.585   6.193 -0.8248  1.0828 -1.1167
  133ccc     H8 3763   3.582   4.740   6.155 -2.1858  0.3037  0.8287
  133ccc     O1 3764   3.971   4.924   6.214 -0.0135 -0.7173  0.8121
  133ccc    H17 3765   3.666   4.619   6.084 -0.7832  0.5806 -0.3390
  134ccc     C1 3766   3.108   7.721   6.577 -0.1997  0.8006 -0.0638
  134ccc     H1 3767   3.028   7.795   6.586 -1.3576 -0.3901 -0.2267
  134ccc     H2 3768   3.071   7.622   6.604 -0.9550  1.7190  2.6532
  134ccc     C2 3769   3.231   7.751   6.668  0.2228  0.3359 -0.0399
  134ccc     H3 3770   3.299   7.666   6.651 -0.7084 -0.1423 -1.6434
  134ccc     H4 3771   3.281   7.844   6.640  2.1997 -0.2475  1.3326
  134ccc     C3 3772   3.203   7.755   6.814 -0.3031  0.4142 -1.0832
  134ccc     H5 3773   3.297   7.754   6.870  1.6168 -0.2653 -4.1091
  134ccc     H6 3774   3.145   7.667   6.846 -0.4051  0.7422 -0.3444
  134ccc     N1 3775   3.136   7.716   6.432  0.3671 -0.2823 -0.5340
  134ccc     H7 3776   3.186   7.798   6.397  0.5009 -1.3438 -3.1070
  134ccc     H8 3777   3.190   7.632   6.406  0.9179 -0.3380  0.7452
  134ccc     O1 3778   3.118   7.862   6.842 -0.3567  0.0361  0.1349
  134ccc    H17 3779   3.049   7.712   6.377  0.4477 -1.5234 -0.6009
  135ccc     C1 3780   3.524   8.697   7.026 -0.5257 -0.0838 -0.1707
  135ccc     H1 3781   3.611   8.685   7.092 -0.6476 -0.5600 -0.0942
  135ccc     H2 3782   3.448   8.630   7.065  0.9901 -2.3122 -0.8352
  135ccc     C2 3783   3.559   8.646   6.885 -0.1259  0.2808 -0.3889
  135ccc     H3 3784   3.614   8.729   6.838 -1.4639  1.6178  0.3197
  135ccc     H4 3785   3.635   8.567   6.883  0.0183  0.3506  0.9497
  135ccc     C3 3786   3.429   8.616   6.813  0.4833 -0.3685  0.4313
  135ccc     H5 3787   3.447   8.595   6.707 -3.6054 -1.6609 -0.1924
  135ccc     H6 3788   3.361   8.702   6.822 -0.7826 -1.4442  1.7573
  135ccc     N1 3789   3.473   8.839   7.039 -0.4345  0.4075  0.3766
  135ccc     H7 3790   3.437   8.856   7.135 -0.3853  2.7940  0.0480
  135ccc     H8 3791   3.550   8.906   7.025  1.5679 -1.4458  1.8827
  135ccc     O1 3792   3.352   8.511   6.868 -0.5148  0.0538 -0.0414
  135ccc    H17 3793   3.393   8.856   6.976 -0.8476 -1.1794  0.4336
  136ccc     C1 3794   2.831   8.298   6.566 -0.1077 -0.2890  0.1993
  136ccc     H1 3795   2.891   8.380   6.606 -1.5770 -0.3477  2.7447
  136ccc     H2 3796   2.758   8.282   6.646  1.4625  0.1110  1.7777
  136ccc     C2 3797   2.921   8.169   6.542  0.8601  0.2389 -0.0687
  136ccc     H3 3798   3.000   8.193   6.469  0.5394 -0.8106 -0.7833
  136ccc     H4 3799   2.970   8.141   6.636 -0.9335 -3.9336 -0.1462
  136ccc     C3 3800   2.839   8.048   6.496  0.2699 -0.9125 -0.0492
  136ccc     H5 3801   2.902   7.967   6.458  1.6691 -0.0530  0.3655
  136ccc     H6 3802   2.771   8.072   6.413  0.2114 -2.4477 -0.4657
  136ccc     N1 3803   2.762   8.351   6.443 -0.5165  0.0202  0.1695
  136ccc     H7 3804   2.698   8.286   6.394 -1.2723  1.0056 -0.1940
  136ccc     H8 3805   2.693   8.425   6.464 -0.7950 -0.1640 -0.0762
  136ccc     O1 3806   2.759   8.004   6.603 -0.2227 -0.3359 -0.2997
  136ccc    H17 3807   2.835   8.391   6.382  1.0438 -2.1428  0.5088
  137ccc     C1 3808   2.245   7.097   7.017  0.6111  0.0198 -0.3502
  137ccc     H1 3809   2.143   7.098   7.056  0.4233  3.5895 -0.6481
  137ccc     H2 3810   2.297   7.190   7.039 -0.7365  0.9920 -1.1158
  137ccc     C2 3811   2.255   7.074   6.862  0.6150 -0.5244 -0.7866
  137ccc     H3 3812   2.353   7.032   6.837  0.5336 -0.1319 -1.8169
  137ccc     H4 3813   2.185   6.998   6.826 -0.3093 -1.4413  2.5434
  137ccc     C3 3814   2.221   7.195   6.784  0.3767 -0.4770  0.6670
  137ccc     H5 3815   2.135   7.250   6.825  0.7450  0.9803 -0.4188
  137ccc     H6 3816   2.210   7.172   6.677 -0.7804  1.4827  0.2986
  137ccc     N1 3817   2.319   6.999   7.104  0.4153 -0.1713  0.4189
  137ccc     H7 3818   2.404   6.962   7.060  2.3291  0.5302  3.2729
  137ccc     H8 3819   2.344   7.053   7.188 -1.2284  2.5484 -0.7162
  137ccc     O1 3820   2.329   7.287   6.792 -0.5019 -0.0141 -0.4240
  137ccc    H17 3821   2.263   6.916   7.127  0.0158  0.2254  0.8861
  138ccc     C1 3822   2.849   7.522   8.218  0.4118  0.3272 -0.1641
  138ccc     H1 3823   2.926   7.599   8.228  0.2835  0.4090  0.2332
  138ccc     H2 3824   2.881   7.458   8.301 -0.2176  1.0742  0.6765
  138ccc     C2 3825   2.869   7.452   8.081 -0.0582  0.2978  0.0043
  138ccc     H3 3826   2.796   7.370   8.077  0.0018  0.1886  0.9047
  138ccc     H4 3827   2.842   7.518   7.998  0.6005  1.4916  0.6975
  138ccc     C3 3828   3.004   7.381   8.053  0.7771 -0.0459  0.3003
  138ccc     H5 3829   2.974   7.319   7.968 -1.9605 -2.3983  2.7774
  138ccc     H6 3830   3.025   7.312   8.136 -2.9196 -0.6572  0.9126
  138ccc     N1 3831   2.711   7.581   8.247  0.2921  0.1364  0.4930
  138ccc     H7 3832   2.694   7.612   8.344  1.3889  0.5913  0.5568
  138ccc     H8 3833   2.714   7.660   8.182  2.8422  0.5694  1.0349
  138ccc     O1 3834   3.102   7.488   8.032 -0.0229  0.8681  0.0939
  138ccc    H17 3835   2.628   7.524   8.224  0.6449 -0.1162 -0.2066
  139ccc     C1 3836   3.481   8.281   7.670 -0.7478 -0.5496  0.8213
  139ccc     H1 3837   3.581   8.316   7.643 -1.5796  0.6049 -1.0356
  139ccc     H2 3838   3.502   8.242   7.769 -0.2390  1.5813  1.6205
  139ccc     C2 3839   3.448   8.179   7.561  0.9793  0.9459 -0.0693
  139ccc     H3 3840   3.367   8.117   7.601  0.7311  1.5928  0.4405
  139ccc     H4 3841   3.432   8.218   7.460  2.4008 -3.8134 -2.4260
  139ccc     C3 3842   3.556   8.071   7.537  0.5359 -0.1505 -0.6177
  139ccc     H5 3843   3.620   8.115   7.460  0.3033 -0.0690 -0.7639
  139ccc     H6 3844   3.503   7.986   7.494 -1.5993  0.8420 -0.0746
  139ccc     N1 3845   3.383   8.388   7.676 -0.4072 -0.1174  0.7564
  139ccc     H7 3846   3.288   8.348   7.673 -1.3738  2.0812 -0.7388
  139ccc     H8 3847   3.390   8.446   7.761 -0.8620 -0.2002  0.8532
  139ccc     O1 3848   3.626   8.045   7.667  0.3780 -0.3058 -0.0438
  139ccc    H17 3849   3.389   8.447   7.591  0.7035 -1.5290 -0.2009
  140ccc     C1 3850   3.090   6.915   8.682 -0.1333  0.0340 -0.7301
  140ccc     H1 3851   3.049   6.989   8.751 -0.8092 -0.1834 -0.8911
  140ccc     H2 3852   3.141   6.968   8.602 -1.7243  1.9637 -0.5464
  140ccc     C2 3853   2.964   6.849   8.624  0.5185  0.2521  0.6433
  140ccc     H3 3854   2.912   6.791   8.701  1.0850 -0.0792  0.7813
  140ccc     H4 3855   2.895   6.928   8.591  0.9766  0.8536  1.1064
  140ccc     C3 3856   2.990   6.780   8.485  0.0436  0.0233 -0.5135
  140ccc     H5 3857   2.899   6.730   8.451 -0.0831 -1.3650  1.6198
  140ccc     H6 3858   3.065   6.700   8.498 -0.1065  0.1347  1.3849
  140ccc     N1 3859   3.178   6.825   8.767  0.4411  0.3210  0.4780
  140ccc     H7 3860   3.123   6.798   8.850 -1.0299 -1.6858 -1.0518
  140ccc     H8 3861   3.210   6.740   8.720  0.2291 -0.5374  1.8246
  140ccc     O1 3862   3.050   6.875   8.395  0.4343  0.6129 -0.1399
  140ccc    H17 3863   3.267   6.870   8.792 -0.2813  3.1937 -1.6416
  141ccc     C1 3864   2.706   6.675   8.218  0.2777 -0.3849  0.1075
  141ccc     H1 3865   2.746   6.706   8.121 -0.7108  1.8000  0.3401
  141ccc     H2 3866   2.757   6.723   8.301 -1.4068  0.3273  0.7701
  141ccc     C2 3867   2.712   6.524   8.240 -0.2929 -0.1996  0.1410
  141ccc     H3 3868   2.648   6.484   8.319 -0.8884 -0.6175 -0.5462
  141ccc     H4 3869   2.682   6.475   8.147  0.9634  0.1217 -0.4607
  141ccc     C3 3870   2.862   6.484   8.273 -0.0622 -0.7964 -0.0441
  141ccc     H5 3871   2.871   6.375   8.279 -2.3885 -1.0124  0.2001
  141ccc     H6 3872   2.905   6.535   8.361  1.1890  0.8935 -1.5482
  141ccc     N1 3873   2.570   6.738   8.236 -0.3637 -0.2405 -0.4019
  141ccc     H7 3874   2.519   6.713   8.322 -0.2384 -3.2745 -1.1237
  141ccc     H8 3875   2.584   6.840   8.241  1.2919 -0.4254 -0.6660
  141ccc     O1 3876   2.947   6.521   8.161  0.8748  0.4226  0.3149
  141ccc    H17 3877   2.505   6.711   8.161 -2.5148 -2.0730  1.9344
  142ccc     C1 3878   6.506   7.807   8.489 -0.0692 -0.3624 -0.0588
  142ccc     H1 3879   6.477   7.895   8.546  0.9686  0.3518 -0.6074
  142ccc     H2 3880   6.523   7.825   8.383  1.5551 -0.4058  0.1717
  142ccc     C2 3881   6.395   7.702   8.522  0.3941  0.1720  0.2048
  142ccc     H3 3882   6.419   7.599   8.494  0.6119 -0.5918  2.9050
  142ccc     H4 3883   6.375   7.685   8.629 -0.0377 -1.5210 -0.1229
  142ccc     C3 3884   6.259   7.760   8.454 -0.0767 -0.4163  0.0102
  142ccc     H5 3885   6.200   7.674   8.420 -1.1260  0.6958 -1.0835
  142ccc     H6 3886   6.274   7.818   8.363  1.1335  0.0414  0.4820
  142ccc     N1 3887   6.635   7.760   8.531  0.0117  0.2219  0.7656
  142ccc     H7 3888   6.651   7.661   8.507  0.4111  0.4882 -0.0852
  142ccc     H8 3889   6.710   7.816   8.488 -1.2449  0.7934 -0.7650
  142ccc     O1 3890   6.189   7.838   8.548  0.3568  0.0356 -0.1466
  142ccc    H17 3891   6.642   7.767   8.634  0.2490 -1.8088  0.9211
  143ccc     C1 3892   6.101   7.698   9.232 -0.1381  0.0705  0.1104
  143ccc     H1 3893   6.034   7.614   9.250  2.6283 -2.0815  1.1507
  143ccc     H2 3894   6.035   7.784   9.221  0.1682  0.6166  2.2050
  143ccc     C2 3895   6.181   7.673   9.101  0.6208  0.5897  0.0049
  143ccc     H3 3896   6.248   7.589   9.122 -1.5556 -1.3219 -0.2807
  143ccc     H4 3897   6.103   7.649   9.027  0.1632  2.2629 -0.1036
  143ccc     C3 3898   6.268   7.788   9.056 -0.4318 -0.1678  0.1301
  143ccc     H5 3899   6.318   7.754   8.964 -0.1115 -2.0852  0.9597
  143ccc     H6 3900   6.345   7.814   9.130 -0.0605  1.9830 -0.9338
  143ccc     N1 3901   6.164   7.704   9.363 -0.7253  0.5372 -0.2277
  143ccc     H7 3902   6.202   7.610   9.383  0.0795  1.4371  2.9964
  143ccc     H8 3903   6.239   7.773   9.371  1.1905 -1.2294 -1.7988
  143ccc     O1 3904   6.179   7.893   9.043 -0.7561 -0.2212 -0.1013
  143ccc    H17 3905   6.086   7.721   9.428 -1.5920  0.3989 -1.2093
  144ccc     C1 3906   6.170   8.439   6.394  0.1598  0.0184 -0.5498
  144ccc     H1 3907   6.117   8.517   6.449  0.5762 -0.2101  0.1983
  144ccc     H2 3908   6.097   8.360   6.374  0.2030 -0.4622  1.0421
  144ccc     C2 3909   6.280   8.379   6.479 -0.1436 -0.0729 -0.3906
  144ccc     H3 3910   6.318   8.295   6.420 -0.4362  0.8299 -1.9232
  144ccc     H4 3911   6.366   8.447   6.488 -0.8959  1.1470 -1.7548
  144ccc     C3 3912   6.236   8.340   6.628 -0.1215  0.6897 -1.0989
  144ccc     H5 3913   6.327   8.323   6.688 -1.8725 -0.3968  1.3974
  144ccc     H6 3914   6.175   8.250   6.615 -1.2296  0.8331  2.3167
  144ccc     N1 3915   6.203   8.500   6.262  0.3206  0.5011  0.5307
  144ccc     H7 3916   6.270   8.578   6.259 -0.0931  0.8584  0.5344
  144ccc     H8 3917   6.238   8.420   6.207  1.9424  0.4385  1.5985
  144ccc     O1 3918   6.159   8.449   6.688 -0.9591  0.7422 -0.4665
  144ccc    H17 3919   6.114   8.532   6.221 -0.5928  1.3792  3.0175
  145ccc     C1 3920   5.612   7.861   6.639  0.2964 -0.2767 -0.7136
  145ccc     H1 3921   5.521   7.830   6.587  0.1551  0.0690 -0.6743
  145ccc     H2 3922   5.641   7.778   6.704  1.6719 -0.2376 -1.2557
  145ccc     C2 3923   5.589   7.993   6.711  0.0218 -0.1669 -0.0662
  145ccc     H3 3924   5.575   8.069   6.633  0.2951  0.8524  0.8570
  145ccc     H4 3925   5.494   7.987   6.765 -1.2957  0.9432 -2.1160
  145ccc     C3 3926   5.706   8.035   6.796 -0.4009 -0.3211 -0.2096
  145ccc     H5 3927   5.793   8.063   6.735  0.2724  2.8313  1.9306
  145ccc     H6 3928   5.744   7.952   6.857  2.1137  2.1093  1.8683
  145ccc     N1 3929   5.706   7.864   6.523 -0.1688  0.4890 -0.5462
  145ccc     H7 3930   5.805   7.875   6.549 -0.8601 -0.3729  3.0366
  145ccc     H8 3931   5.691   7.783   6.461 -0.2094  1.3273 -1.6600
  145ccc     O1 3932   5.669   8.145   6.880  0.4785  0.7741  0.5638
  145ccc    H17 3933   5.688   7.949   6.468 -0.4130  0.4140 -0.5841
  146ccc     C1 3934   3.581   8.271   9.256  0.1555  0.4888  0.0164
  146ccc     H1 3935   3.586   8.380   9.258  1.7130  0.4456  0.4870
  146ccc     H2 3936   3.623   8.236   9.351 -0.7796  1.3421  0.7581
  146ccc     C2 3937   3.652   8.194   9.145 -0.7681  0.6919  0.5560
  146ccc     H3 3938   3.637   8.085   9.144  1.1308  0.3870 -0.7468
  146ccc     H4 3939   3.612   8.231   9.049  2.0446  0.4618 -0.8255
  146ccc     C3 3940   3.802   8.220   9.137 -0.0398  0.4271 -0.2692
  146ccc     H5 3941   3.834   8.319   9.103  1.7933  0.1969  0.6433
  146ccc     H6 3942   3.840   8.153   9.058 -0.8678 -0.3804 -0.0029
  146ccc     N1 3943   3.432   8.236   9.253 -0.2054  0.2648 -0.2959
  146ccc     H7 3944   3.385   8.306   9.313 -2.3613 -2.0593  0.9192
  146ccc     H8 3945   3.391   8.231   9.159  2.3382  1.9924 -1.6168
  146ccc     O1 3946   3.854   8.187   9.265  0.3661  0.2167  0.4697
  146ccc    H17 3947   3.419   8.141   9.291 -0.7009 -0.3630 -1.9708
  147ccc     C1 3948   3.739   7.452   9.095  0.0784  0.2660 -0.5194
  147ccc     H1 3949   3.638   7.427   9.129  0.7660  0.5964  1.9510
  147ccc     H2 3950   3.808   7.454   9.180 -0.2914  3.4282 -0.1744
  147ccc     C2 3951   3.742   7.601   9.034  0.4178  0.1397 -0.6250
  147ccc     H3 3952   3.679   7.609   8.945  1.0427 -1.1112 -1.2074
  147ccc     H4 3953   3.714   7.662   9.121 -1.9165 -1.6253 -0.0180
  147ccc     C3 3954   3.880   7.646   8.983 -0.0337  0.4273  0.8911
  147ccc     H5 3955   3.874   7.745   8.936 -0.5694 -1.0898 -2.5410
  147ccc     H6 3956   3.922   7.568   8.919  1.7169  1.0032  1.2774
  147ccc     N1 3957   3.768   7.343   9.001 -0.3615 -0.3013  0.3405
  147ccc     H7 3958   3.859   7.334   8.953 -0.7866 -0.9125 -0.3689
  147ccc     H8 3959   3.751   7.249   9.039  2.7326 -1.7007 -1.3486
  147ccc     O1 3960   3.966   7.665   9.094 -0.1940  0.3604 -0.8146
  147ccc    H17 3961   3.700   7.350   8.925 -0.0258 -3.5511 -0.4110
  148ccc     C1 3962   5.839   8.236  10.172  0.2556  0.6851  0.4356
  148ccc     H1 3963   5.804   8.282  10.264 -1.8791  0.4388 -0.1909
  148ccc     H2 3964   5.946   8.217  10.165  0.1453 -0.3764  1.4144
  148ccc     C2 3965   5.795   8.317  10.047  0.0483  0.2241  0.2340
  148ccc     H3 3966   5.685   8.319  10.054  0.0426 -1.6191  1.4349
  148ccc     H4 3967   5.815   8.424  10.044  0.6513  0.1584 -3.7234
  148ccc     C3 3968   5.849   8.267   9.919 -0.6335  0.6712 -0.5643
  148ccc     H5 3969   5.958   8.258   9.918 -0.5019  2.0486 -2.0076
  148ccc     H6 3970   5.817   8.330   9.835 -2.0592  0.1055 -0.4740
  148ccc     N1 3971   5.780   8.101  10.173 -0.1417  0.2566  0.8517
  148ccc     H7 3972   5.677   8.102  10.183 -0.5031  1.2613 -2.1322
  148ccc     H8 3973   5.803   8.044  10.091 -0.8481 -0.7404  1.3253
  148ccc     O1 3974   5.792   8.140   9.892 -0.2859  0.4864  0.3519
  148ccc    H17 3975   5.818   8.049  10.253 -0.6468  1.3841  1.8614
  149ccc     C1 3976   5.022   7.388   9.588  0.1705 -0.1577  0.3864
  149ccc     H1 3977   5.069   7.449   9.510  1.2201  0.9892  1.8619
  149ccc     H2 3978   4.947   7.454   9.632 -1.5037 -2.1296  0.6096
  149ccc     C2 3979   5.132   7.349   9.697 -0.2330 -1.0024  0.0668
  149ccc     H3 3980   5.106   7.272   9.770  1.5779 -0.9011  0.8493
  149ccc     H4 3981   5.212   7.302   9.638 -0.4558 -1.3954  0.0735
  149ccc     C3 3982   5.187   7.465   9.779  0.9500 -0.4772 -0.3041
  149ccc     H5 3983   5.260   7.435   9.855  0.8853 -0.4301 -0.2219
  149ccc     H6 3984   5.102   7.513   9.829  0.9796  0.2219 -0.9022
  149ccc     N1 3985   4.959   7.263   9.542  0.3209 -0.3536  0.4640
  149ccc     H7 3986   5.032   7.215   9.486  1.4214  1.1719  0.5377
  149ccc     H8 3987   4.929   7.208   9.624 -1.6626 -0.7470 -0.4790
  149ccc     O1 3988   5.240   7.554   9.678 -0.1459 -0.1294 -0.7315
  149ccc    H17 3989   4.878   7.281   9.481  1.3301  0.7985 -0.5957
  150ccc     C1 3990   2.964   7.615   7.610 -0.5199  0.4830 -0.3450
  150ccc     H1 3991   2.955   7.616   7.502  1.0680  1.5350 -0.5087
  150ccc     H2 3992   3.068   7.645   7.613 -0.2199 -0.5813  0.5364
  150ccc     C2 3993   2.918   7.486   7.672  0.5049  0.2889 -0.2398
  150ccc     H3 3994   2.951   7.480   7.776  1.7073 -1.0239 -0.6673
  150ccc     H4 3995   2.809   7.475   7.662  0.5081  1.0179 -1.2287
  150ccc     C3 3996   2.983   7.367   7.591 -0.1905 -0.5144  0.0538
  150ccc     H5 3997   2.977   7.381   7.483 -1.0827  1.7057  0.3242
  150ccc     H6 3998   2.925   7.276   7.608  1.4228 -1.6310 -0.1669
  150ccc     N1 3999   2.878   7.731   7.647  0.3976 -0.6105 -0.1111
  150ccc     H7 4000   2.898   7.809   7.582  1.4061 -1.3823 -0.7701
  150ccc     H8 4001   2.778   7.711   7.642  0.0325  1.3212 -1.7597
  150ccc     O1 4002   3.126   7.358   7.628  0.4166  0.2790 -0.4874
  150ccc    H17 4003   2.907   7.765   7.740 -1.0341  2.2238 -0.5782
  151ccc     C1 4004   3.764   7.261   8.336  0.9300 -0.2117 -0.1327
  151ccc     H1 4005   3.673   7.265   8.397 -0.1637  0.6008 -1.7342
  151ccc     H2 4006   3.831   7.341   8.368  0.2898  0.0075  0.7036
  151ccc     C2 4007   3.731   7.281   8.188 -0.4841  0.2306  0.1128
  151ccc     H3 4008   3.719   7.388   8.166 -2.0578  0.2794  1.0659
  151ccc     H4 4009   3.820   7.249   8.133  0.3379 -0.0890  1.5692
  151ccc     C3 4010   3.607   7.196   8.146  0.3296  0.2198  0.1700
  151ccc     H5 4011   3.521   7.230   8.206 -0.4972  0.1048 -0.9115
  151ccc     H6 4012   3.621   7.091   8.173 -0.9265 -0.1078 -0.3505
  151ccc     N1 4013   3.823   7.131   8.371 -0.1845  0.0298 -0.4475
  151ccc     H7 4014   3.867   7.134   8.465  0.0424  1.0189 -0.5699
  151ccc     H8 4015   3.758   7.054   8.391  1.1504 -0.5127  2.4450
  151ccc     O1 4016   3.579   7.211   8.006 -0.3621  0.1759  0.5181
  151ccc    H17 4017   3.904   7.108   8.312  1.3177  3.4476  0.0188
  152ccc     C1 4018   1.911   7.155   6.304 -0.0928  0.4461 -0.1732
  152ccc     H1 4019   1.931   7.054   6.268 -0.3592  0.2801  0.1372
  152ccc     H2 4020   1.924   7.226   6.222  1.0635 -1.1472 -1.4208
  152ccc     C2 4021   2.029   7.191   6.402 -0.0826 -0.3196  0.0969
  152ccc     H3 4022   2.012   7.288   6.450 -0.9981 -1.5560  2.4132
  152ccc     H4 4023   2.032   7.115   6.481  1.8473 -0.3865  0.0085
  152ccc     C3 4024   2.156   7.197   6.324  0.7038  0.5388 -0.5958
  152ccc     H5 4025   2.164   7.276   6.249 -0.6669  0.9427 -0.3475
  152ccc     H6 4026   2.173   7.101   6.272  0.5917  0.2780 -0.1561
  152ccc     N1 4027   1.777   7.183   6.349  0.5631 -0.2790 -0.0970
  152ccc     H7 4028   1.753   7.282   6.365 -1.0765 -0.6736  0.0636
  152ccc     H8 4029   1.705   7.140   6.289  0.3121 -1.3376  0.9272
  152ccc     O1 4030   2.260   7.210   6.418 -0.1590  0.1197 -0.1992
  152ccc    H17 4031   1.756   7.147   6.443 -2.2244  0.9437 -0.1540
  153ccc     C1 4032   3.089   6.713   6.802 -0.5675  0.2894 -0.4601
  153ccc     H1 4033   3.058   6.610   6.781 -0.1599 -0.0983  0.8043
  153ccc     H2 4034   3.195   6.704   6.825 -0.6529 -0.4546 -0.3372
  153ccc     C2 4035   3.010   6.761   6.922 -0.1202 -0.5539  0.3745
  153ccc     H3 4036   3.023   6.702   7.013 -0.2312  2.0371  2.2038
  153ccc     H4 4037   3.052   6.857   6.956 -2.7983 -0.0686  2.7623
  153ccc     C3 4038   2.859   6.786   6.895 -0.2388 -0.7104  0.3259
  153ccc     H5 4039   2.810   6.833   6.981 -0.5628  1.0437 -0.7586
  153ccc     H6 4040   2.809   6.692   6.870  1.0763 -1.5772  0.8400
  153ccc     N1 4041   3.073   6.773   6.665  0.4917  0.4666  0.9041
  153ccc     H7 4042   3.154   6.745   6.607  0.9994  0.8193  1.4331
  153ccc     H8 4043   2.982   6.743   6.627  0.0099 -0.9281  3.0332
  153ccc     O1 4044   2.846   6.876   6.785  0.0406  0.2467  0.4450
  153ccc    H17 4045   3.074   6.876   6.664 -0.2309  0.5777  3.7729
  154ccc     C1 4046   4.635   6.392   7.472  0.0172 -0.7584 -0.0780
  154ccc     H1 4047   4.568   6.353   7.396  0.9382 -1.4733 -0.5400
  154ccc     H2 4048   4.687   6.304   7.510 -1.0656 -1.3922 -0.0103
  154ccc     C2 4049   4.547   6.470   7.579 -0.5798  0.9598 -0.1912
  154ccc     H3 4050   4.488   6.542   7.522 -1.6794 -0.9962 -1.6366
  154ccc     H4 4051   4.475   6.394   7.613  1.4340 -0.0095  2.2300
  154ccc     C3 4052   4.615   6.537   7.700  0.4227 -0.4376 -0.0588
  154ccc     H5 4053   4.643   6.454   7.765  0.3262 -0.9391 -0.6430
  154ccc     H6 4054   4.532   6.593   7.746  1.4023 -0.6441  2.0708
  154ccc     N1 4055   4.728   6.480   7.402 -0.1500  1.0803 -0.3202
  154ccc     H7 4056   4.679   6.564   7.366 -2.3164 -0.1323 -0.3639
  154ccc     H8 4057   4.797   6.505   7.474  0.0817 -2.4943  0.8599
  154ccc     O1 4058   4.725   6.625   7.661  0.1113  0.1651  0.5670
  154ccc    H17 4059   4.773   6.434   7.322 -0.0158  1.4376 -0.4547
  155ccc     C1 4060   5.640   6.460   7.420  0.1505  0.1695 -0.5953
  155ccc     H1 4061   5.644   6.468   7.312 -2.8221  0.6563 -0.7575
  155ccc     H2 4062   5.594   6.369   7.459  2.9308 -0.3105  1.9157
  155ccc     C2 4063   5.559   6.577   7.477 -0.1548 -0.1752 -0.1581
  155ccc     H3 4064   5.550   6.566   7.586  0.2608  0.1509 -0.0901
  155ccc     H4 4065   5.617   6.669   7.468  0.8405 -0.8351 -0.6531
  155ccc     C3 4066   5.429   6.593   7.404 -0.6685 -0.2825  0.7640
  155ccc     H5 4067   5.373   6.501   7.381 -0.2169 -0.1857 -0.8367
  155ccc     H6 4068   5.456   6.629   7.304 -0.8120  1.5093  1.3352
  155ccc     N1 4069   5.784   6.446   7.466 -0.6528  0.1308  0.1896
  155ccc     H7 4070   5.801   6.433   7.567  2.7101  0.2512 -0.2434
  155ccc     H8 4071   5.822   6.358   7.428 -2.2648 -0.6227  0.2592
  155ccc     O1 4072   5.343   6.685   7.475  0.0593  0.2742  0.5916
  155ccc    H17 4073   5.848   6.526   7.451  0.1179 -0.2542  1.2392
  156ccc     C1 4074   5.706   6.636   7.955 -0.3494 -0.4074 -0.4259
  156ccc     H1 4075   5.657   6.539   7.951 -1.3543  0.0883 -0.3931
  156ccc     H2 4076   5.671   6.691   8.042 -0.5720 -1.7385  0.3527
  156ccc     C2 4077   5.663   6.715   7.830  0.0999 -0.5642 -0.4115
  156ccc     H3 4078   5.720   6.809   7.833  0.3796 -0.7588  1.5370
  156ccc     H4 4079   5.694   6.654   7.744 -1.4035 -0.1122 -1.3161
  156ccc     C3 4080   5.518   6.730   7.810  1.1502 -0.0645  0.6249
  156ccc     H5 4081   5.475   6.630   7.821  0.5160  0.0609 -0.5193
  156ccc     H6 4082   5.493   6.755   7.706 -0.9783  0.1236  1.1454
  156ccc     N1 4083   5.855   6.605   7.960  0.3478  0.0387 -0.1743
  156ccc     H7 4084   5.885   6.533   7.893  2.9453 -0.1980  1.1240
  156ccc     H8 4085   5.912   6.691   7.952  0.1093  0.2315  0.1661
  156ccc     O1 4086   5.460   6.818   7.905  0.6174  0.2987  0.2594
  156ccc    H17 4087   5.861   6.557   8.050 -1.9684  0.4724  0.2813
  157ccc     C1 4088   5.070   6.210   8.408  0.5096  0.9803 -0.0664
  157ccc     H1 4089   5.007   6.122   8.424 -0.6583  2.0134  1.1868
  157ccc     H2 4090   5.171   6.173   8.391 -0.3972 -1.7093 -0.1540
  157ccc     C2 4091   5.048   6.301   8.534 -0.7162 -0.5839 -0.2704
  157ccc     H3 4092   4.941   6.310   8.555 -0.4163  0.2093  1.0428
  157ccc     H4 4093   5.092   6.244   8.617  0.2975 -0.1498 -0.4895
  157ccc     C3 4094   5.112   6.439   8.527 -0.0047  0.0974  0.5445
  157ccc     H5 4095   5.219   6.420   8.511 -0.4434 -0.6726 -1.9537
  157ccc     H6 4096   5.093   6.483   8.625  0.3660 -1.1685  1.2038
  157ccc     N1 4097   5.025   6.272   8.277 -0.0216  0.2690  0.2797
  157ccc     H7 4098   5.059   6.369   8.264 -0.7819  0.4305 -0.6599
  157ccc     H8 4099   5.059   6.227   8.191 -1.0074  2.2252 -1.2298
  157ccc     O1 4100   5.051   6.519   8.431  0.4768 -0.3329 -0.5099
  157ccc    H17 4101   4.923   6.276   8.262 -0.0551  1.8531  0.7066
  158ccc     C1 4102   6.168   9.153   9.840  0.3916  0.0777 -0.5302
  158ccc     H1 4103   6.255   9.179   9.901 -1.5173  3.5741  1.0406
  158ccc     H2 4104   6.085   9.179   9.907 -0.1753  0.7004 -1.4361
  158ccc     C2 4105   6.173   9.007   9.806 -0.4448  0.2703  0.8104
  158ccc     H3 4106   6.249   8.982   9.731  0.3111  0.7404  1.4134
  158ccc     H4 4107   6.209   8.942   9.886  1.0423  0.3315  0.2290
  158ccc     C3 4108   6.044   8.953   9.747  0.7309 -0.4761 -0.5243
  158ccc     H5 4109   5.991   9.008   9.668 -0.4162 -0.1502  0.4567
  158ccc     H6 4110   5.971   8.950   9.828  1.0389 -0.6745 -0.2516
  158ccc     N1 4111   6.163   9.245   9.722 -0.0979 -0.1823 -0.2315
  158ccc     H7 4112   6.248   9.239   9.664 -0.9097  0.9224 -1.5885
  158ccc     H8 4113   6.098   9.213   9.649 -0.7412 -0.1107  0.2983
  158ccc     O1 4114   6.071   8.819   9.707 -0.1847  0.2957  0.4334
  158ccc    H17 4115   6.145   9.341   9.754 -2.4369 -1.1533  1.6666
  159ccc     C1 4116   6.806   8.205   9.642 -0.4570 -0.4858 -0.2618
  159ccc     H1 4117   6.858   8.298   9.619 -1.2506  0.1715  0.5321
  159ccc     H2 4118   6.777   8.148   9.553 -0.4959 -0.1483 -0.4659
  159ccc     C2 4119   6.681   8.235   9.728 -0.1914  0.0645  0.1600
  159ccc     H3 4120   6.646   8.138   9.766 -1.2184  1.2712  2.4623
  159ccc     H4 4121   6.702   8.306   9.808  0.9407  1.1627 -1.0601
  159ccc     C3 4122   6.565   8.289   9.644  0.0881 -0.5877 -0.0595
  159ccc     H5 4123   6.555   8.236   9.548  1.5223 -0.5508 -0.2466
  159ccc     H6 4124   6.575   8.390   9.603  1.6794 -0.0714  1.4922
  159ccc     N1 4125   6.896   8.118   9.727 -0.3102 -0.4118 -0.0718
  159ccc     H7 4126   6.934   8.175   9.804 -1.1681 -0.7444  0.6141
  159ccc     H8 4127   6.848   8.037   9.768  0.1548 -0.5068  0.2926
  159ccc     O1 4128   6.443   8.284   9.710 -0.7725  0.5739  0.2557
  159ccc    H17 4129   6.972   8.083   9.667  0.2477 -0.7377  0.8109
  160ccc     C1 4130   6.484   8.532   8.948 -0.0025  0.7207  0.7673
  160ccc     H1 4131   6.420   8.596   9.009 -1.7362 -1.3265  1.2373
  160ccc     H2 4132   6.502   8.581   8.852  0.6474 -1.2265 -0.1410
  160ccc     C2 4133   6.411   8.406   8.909  0.5852  0.4405 -1.0879
  160ccc     H3 4134   6.461   8.346   8.831  1.7676 -1.5365  1.0474
  160ccc     H4 4135   6.407   8.341   8.998 -1.4127  0.7415 -0.9191
  160ccc     C3 4136   6.261   8.429   8.856  0.5569  0.0144 -0.1611
  160ccc     H5 4137   6.233   8.341   8.797 -1.6312  0.7262 -0.3014
  160ccc     H6 4138   6.270   8.517   8.791  0.8388  0.0183 -0.1149
  160ccc     N1 4139   6.619   8.504   9.013  0.9518 -1.1601  0.6535
  160ccc     H7 4140   6.677   8.435   8.965  1.0239 -0.1198 -0.8275
  160ccc     H8 4141   6.678   8.589   9.020  0.9795 -1.0622 -0.6437
  160ccc     O1 4142   6.164   8.451   8.963 -0.2323  0.3235 -0.1498
  160ccc    H17 4143   6.612   8.476   9.112  2.8863 -0.4525  1.0300
  161ccc     C1 4144   5.325   8.566   9.706  0.3227  0.2520  1.1966
  161ccc     H1 4145   5.354   8.666   9.675  0.3741 -0.3299 -0.7854
  161ccc     H2 4146   5.381   8.547   9.798  1.7771 -1.4258  0.0343
  161ccc     C2 4147   5.360   8.463   9.596 -0.0065  0.9251 -0.3744
  161ccc     H3 4148   5.350   8.362   9.636  1.9858  1.9799  3.1816
  161ccc     H4 4149   5.283   8.485   9.521 -2.3342  0.9202  1.8651
  161ccc     C3 4150   5.502   8.472   9.528  0.4475  0.3856  0.1470
  161ccc     H5 4151   5.516   8.386   9.461 -0.3291  0.8022 -0.5643
  161ccc     H6 4152   5.579   8.461   9.605 -0.4446  0.2496  1.0537
  161ccc     N1 4153   5.180   8.560   9.745  0.2526  0.1282 -0.4084
  161ccc     H7 4154   5.154   8.466   9.779  0.4958 -0.8199 -2.6554
  161ccc     H8 4155   5.156   8.631   9.816 -1.3262  1.4559 -2.1676
  161ccc     O1 4156   5.513   8.593   9.454  0.4073 -0.1374 -0.1718
  161ccc    H17 4157   5.117   8.591   9.670 -2.1727  0.3105  1.5783
  162ccc     C1 4158   5.676   6.465   8.497  0.0190 -0.3199 -0.1648
  162ccc     H1 4159   5.750   6.528   8.546 -0.8279 -0.0409  0.8025
  162ccc     H2 4160   5.722   6.436   8.403 -0.7611 -3.0559  0.1996
  162ccc     C2 4161   5.552   6.557   8.460 -0.3702  0.5097 -0.2532
  162ccc     H3 4162   5.480   6.493   8.409  1.1681  1.2346 -3.6216
  162ccc     H4 4163   5.500   6.599   8.547 -1.9044  0.4268 -1.1039
  162ccc     C3 4164   5.583   6.673   8.367 -0.0508  0.3763  0.0177
  162ccc     H5 4165   5.596   6.635   8.265  0.9116 -1.0025  0.6241
  162ccc     H6 4166   5.674   6.719   8.409  0.8429 -1.9308  0.7331
  162ccc     N1 4167   5.668   6.349   8.591  0.3721  0.0691  0.1224
  162ccc     H7 4168   5.681   6.265   8.534  2.1952  1.6747 -2.0050
  162ccc     H8 4169   5.746   6.341   8.658  1.3339  0.2600 -0.9583
  162ccc     O1 4170   5.473   6.767   8.362  0.1718 -0.5547 -0.2825
  162ccc    H17 4171   5.580   6.348   8.645  0.8940  3.0994  1.2247
  163ccc     C1 4172   6.080   7.351   8.771 -0.0382  0.4166 -0.0722
  163ccc     H1 4173   6.133   7.319   8.682  0.7527  0.6516  0.3051
  163ccc     H2 4174   5.998   7.280   8.783  1.6903 -1.8607 -1.0866
  163ccc     C2 4175   6.050   7.498   8.758 -0.9601 -0.4837  0.4536
  163ccc     H3 4176   5.976   7.534   8.830 -2.4357  0.1070 -1.2760
  163ccc     H4 4177   6.132   7.570   8.768 -0.5632 -0.9689  0.7512
  163ccc     C3 4178   6.005   7.514   8.615  0.5371  0.2434  0.3000
  163ccc     H5 4179   6.077   7.476   8.541 -0.4484  1.1835 -1.2014
  163ccc     H6 4180   5.981   7.618   8.592  1.2534  0.2594 -0.4452
  163ccc     N1 4181   6.176   7.332   8.891 -0.0182  0.1237 -0.2754
  163ccc     H7 4182   6.135   7.350   8.983  2.3669  0.0226  0.8833
  163ccc     H8 4183   6.194   7.232   8.907 -0.3778  0.2493  1.0197
  163ccc     O1 4184   5.882   7.439   8.607  0.2654 -0.0712  0.0522
  163ccc    H17 4185   6.264   7.385   8.882 -0.9862  1.8319 -0.0033
  164ccc     C1 4186   4.425   8.430   9.075  0.4518  0.6433 -1.0267
  164ccc     H1 4187   4.482   8.347   9.117  0.1035  1.5026  1.3137
  164ccc     H2 4188   4.487   8.519   9.091  2.5726 -1.0961  1.0939
  164ccc     C2 4189   4.285   8.450   9.144 -0.0312  0.5890  0.5316
  164ccc     H3 4190   4.250   8.548   9.109  1.5559  1.0712  0.2290
  164ccc     H4 4191   4.214   8.374   9.109  0.0370 -0.7980  3.1298
  164ccc     C3 4192   4.302   8.453   9.293  0.5293 -0.9311  0.1806
  164ccc     H5 4193   4.203   8.460   9.341  1.2717  0.0801  1.6350
  164ccc     H6 4194   4.342   8.551   9.320  2.0190 -0.9803 -1.6826
  164ccc     N1 4195   4.411   8.402   8.925 -0.3845 -0.0147  0.2778
  164ccc     H7 4196   4.504   8.400   8.881 -0.1285 -0.2961  0.8272
  164ccc     H8 4197   4.351   8.325   8.892  0.1131  0.0608 -0.8696
  164ccc     O1 4198   4.375   8.342   9.331 -0.0462  0.2733 -0.4589
  164ccc    H17 4199   4.361   8.483   8.886  0.1109 -0.3442 -1.0929
  165ccc     C1 4200   3.875   7.846   9.830 -0.6499  0.5943 -0.2706
  165ccc     H1 4201   3.925   7.940   9.807 -1.8433  1.3460  0.0615
  165ccc     H2 4202   3.916   7.802   9.921 -0.5490 -0.9588 -1.0416
  165ccc     C2 4203   3.910   7.756   9.717  0.7931 -0.7208 -0.2975
  165ccc     H3 4204   3.850   7.665   9.705 -0.9628 -0.2376  3.3594
  165ccc     H4 4205   3.892   7.817   9.628 -1.4414  0.1736  0.6987
  165ccc     C3 4206   4.057   7.717   9.715  0.0027  0.0316  0.3262
  165ccc     H5 4207   4.091   7.662   9.627  1.6176  0.1240  0.8706
  165ccc     H6 4208   4.090   7.656   9.800 -0.4831 -0.2868  0.2930
  165ccc     N1 4209   3.726   7.886   9.837  0.4399  0.5698  0.5512
  165ccc     H7 4210   3.674   7.797   9.837  2.3574 -0.9994 -4.7910
  165ccc     H8 4211   3.707   7.953   9.912  0.6167  2.6954 -1.1966
  165ccc     O1 4212   4.128   7.839   9.726  0.2040  0.2415  0.3059
  165ccc    H17 4213   3.687   7.934   9.754 -2.0400  0.0391  1.3084
  166ccc     C1 4214   5.537  10.142   6.751  0.2776  0.5573  0.6330
  166ccc     H1 4215   5.616  10.093   6.808 -0.5649 -0.5999  0.8561
  166ccc     H2 4216   5.443  10.136   6.807  1.3870 -0.5551  2.5275
  166ccc     C2 4217   5.525  10.069   6.617  0.1245 -0.5689 -0.2685
  166ccc     H3 4218   5.478  10.133   6.541  1.1938  0.1617 -0.3340
  166ccc     H4 4219   5.620  10.054   6.566 -0.1753 -0.7108 -0.7954
  166ccc     C3 4220   5.430   9.948   6.639 -0.3208 -0.5080 -0.1124
  166ccc     H5 4221   5.398   9.906   6.543  2.0714 -1.1105 -0.6974
  166ccc     H6 4222   5.332   9.977   6.679 -0.8529 -0.5694 -1.3053
  166ccc     N1 4223   5.562  10.288   6.743 -0.0422 -0.0374  0.1637
  166ccc     H7 4224   5.647  10.316   6.692 -0.0496 -1.0001 -0.4016
  166ccc     H8 4225   5.489  10.323   6.678 -1.4483 -0.3513  1.5168
  166ccc     O1 4226   5.497   9.843   6.712  0.2547  0.7094  0.0608
  166ccc    H17 4227   5.553  10.345   6.828  2.8849  1.7461 -0.5653
  167ccc     C1 4228   5.150   9.602   6.170 -0.6916  0.8896 -0.1147
  167ccc     H1 4229   5.200   9.547   6.090 -0.5943 -0.0443  0.5653
  167ccc     H2 4230   5.214   9.584   6.257 -1.9929  1.0853  0.9187
  167ccc     C2 4231   5.016   9.534   6.200 -0.1810  0.3063  0.2836
  167ccc     H3 4232   4.956   9.597   6.268 -0.3245  0.3934  0.0747
  167ccc     H4 4233   4.959   9.518   6.108  1.4152  0.2271 -0.7166
  167ccc     C3 4234   5.029   9.405   6.272  0.3241  0.5120  0.4459
  167ccc     H5 4235   5.071   9.328   6.207 -1.0787  1.4926 -1.7511
  167ccc     H6 4236   4.929   9.374   6.301  0.4687 -0.9421 -0.5137
  167ccc     N1 4237   5.148   9.750   6.140 -0.0194  0.7395 -0.2112
  167ccc     H7 4238   5.077   9.770   6.067  0.1535  0.8448 -0.3515
  167ccc     H8 4239   5.117   9.797   6.226  0.7228 -1.0032  1.0614
  167ccc     O1 4240   5.107   9.428   6.391  0.1286  0.0743  0.7943
  167ccc    H17 4241   5.242   9.787   6.121  0.7967 -1.7271 -1.3084
  168ccc     C1 4242   5.926   9.604   6.923 -0.7212 -0.3103 -0.9625
  168ccc     H1 4243   5.859   9.669   6.980  0.7603  1.1577 -0.7960
  168ccc     H2 4244   5.992   9.667   6.862 -1.1002 -0.9940 -2.1215
  168ccc     C2 4245   5.861   9.493   6.837 -0.9814 -0.2456  0.0531
  168ccc     H3 4246   5.813   9.416   6.899  0.2921 -0.1943  1.1549
  168ccc     H4 4247   5.791   9.551   6.775  0.1259  1.4224  0.2936
  168ccc     C3 4248   5.953   9.414   6.746 -0.1403  0.3749  0.0561
  168ccc     H5 4249   6.015   9.347   6.807 -0.5424  2.1543  2.5906
  168ccc     H6 4250   6.024   9.475   6.689  1.0055 -0.8603  0.1081
  168ccc     N1 4251   6.012   9.551   7.030 -0.3715 -0.2261 -0.1484
  168ccc     H7 4252   6.104   9.518   6.995 -0.6858  0.0502 -1.2825
  168ccc     H8 4253   6.029   9.632   7.092 -0.1911  0.4035 -0.9996
  168ccc     O1 4254   5.866   9.344   6.657  0.0929  0.5843  0.2871
  168ccc    H17 4255   5.968   9.485   7.095  0.5603 -0.1111  0.6213
  169ccc     C1 4256   6.044   8.679   5.518  0.1072  0.1539  0.0764
  169ccc     H1 4257   5.985   8.629   5.441 -0.3382 -0.6664  0.9165
  169ccc     H2 4258   6.136   8.627   5.543 -0.3553 -0.7235  0.0081
  169ccc     C2 4259   5.941   8.700   5.630 -0.3669  0.5640 -0.1432
  169ccc     H3 4260   5.838   8.724   5.603 -0.3250  1.8308  0.7289
  169ccc     H4 4261   5.926   8.604   5.680  0.4681  1.2447  1.4914
  169ccc     C3 4262   5.994   8.790   5.740  0.0642 -0.5553  0.2393
  169ccc     H5 4263   5.980   8.892   5.701  0.9570 -1.9093 -4.2377
  169ccc     H6 4264   6.101   8.767   5.742  0.0479 -0.6820 -0.1537
  169ccc     N1 4265   6.083   8.811   5.466  0.5749 -0.0673 -0.0294
  169ccc     H7 4266   6.123   8.877   5.535  1.8812  0.2146 -1.0106
  169ccc     H8 4267   6.154   8.803   5.392  0.0617 -0.1869 -0.5125
  169ccc     O1 4268   5.928   8.761   5.865  0.1637  0.4434 -0.2951
  169ccc    H17 4269   6.008   8.863   5.419  0.0277 -0.4040  0.4576
  170ccc     C1 4270   4.579   8.279   7.602  0.0680  0.0283 -0.4498
  170ccc     H1 4271   4.486   8.281   7.660  0.3443 -1.6252  0.1175
  170ccc     H2 4272   4.549   8.270   7.497  1.1167 -3.8591 -0.5759
  170ccc     C2 4273   4.661   8.152   7.645 -0.6070  0.4769 -0.5501
  170ccc     H3 4274   4.670   8.147   7.754  0.0117 -1.7807 -0.6571
  170ccc     H4 4275   4.609   8.057   7.629  0.2977 -0.2001  0.4150
  170ccc     C3 4276   4.809   8.149   7.590 -0.3133  0.3427  0.2286
  170ccc     H5 4277   4.865   8.056   7.610  0.2355  0.2322 -1.6579
  170ccc     H6 4278   4.874   8.223   7.639  1.0720 -0.3917 -0.4522
  170ccc     N1 4279   4.657   8.407   7.635 -0.6299  0.0617 -0.1756
  170ccc     H7 4280   4.691   8.407   7.732 -1.4777 -3.8469  0.3178
  170ccc     H8 4281   4.750   8.407   7.590 -0.4629 -0.6183  0.1386
  170ccc     O1 4282   4.799   8.162   7.446  0.2950 -0.0035  0.2105
  170ccc    H17 4283   4.612   8.496   7.609  3.1383  2.0970 -0.3860
  171ccc     C1 4284   4.543   9.016   6.870 -0.3860  0.3732 -0.4539
  171ccc     H1 4285   4.627   9.038   6.936 -1.5632 -0.5770  1.4610
  171ccc     H2 4286   4.453   9.027   6.932 -0.4711 -0.2437 -0.4560
  171ccc     C2 4287   4.553   8.868   6.831 -0.0338  0.4140 -0.6130
  171ccc     H3 4288   4.471   8.829   6.768  0.6362 -1.3993 -0.4135
  171ccc     H4 4289   4.649   8.853   6.779  1.4801  1.6367  1.6803
  171ccc     C3 4290   4.564   8.788   6.960  0.1126  0.0084  0.4162
  171ccc     H5 4291   4.548   8.680   6.946  0.4941 -0.0122  0.1073
  171ccc     H6 4292   4.486   8.823   7.029 -0.9572 -0.3835 -0.5427
  171ccc     N1 4293   4.525   9.109   6.746 -0.3458 -0.6647 -0.7541
  171ccc     H7 4294   4.498   9.208   6.760  2.0035  0.0528 -0.9849
  171ccc     H8 4295   4.615   9.118   6.697  1.6370 -0.6193  2.5963
  171ccc     O1 4296   4.684   8.810   7.026  0.5801  0.0309  0.4742
  171ccc    H17 4297   4.461   9.063   6.680 -2.2670 -1.7744  1.6834
  172ccc     C1 4298   5.323   8.362   5.556 -0.1360 -0.4098  0.3888
  172ccc     H1 4299   5.241   8.349   5.484  0.0254 -3.1060  0.5700
  172ccc     H2 4300   5.280   8.412   5.643  0.2229  1.1065 -0.2710
  172ccc     C2 4301   5.440   8.450   5.486  0.1116  0.8989 -0.7887
  172ccc     H3 4302   5.485   8.380   5.415 -1.4337 -0.3366 -0.6045
  172ccc     H4 4303   5.395   8.532   5.429  0.3130  0.4648 -1.5913
  172ccc     C3 4304   5.553   8.500   5.590  0.0600  0.5302 -0.4752
  172ccc     H5 4305   5.548   8.609   5.604  2.9031  0.6925 -0.1765
  172ccc     H6 4306   5.650   8.470   5.551  0.8364 -0.6360  2.1296
  172ccc     N1 4307   5.354   8.221   5.602 -0.2290 -0.0607 -0.4912
  172ccc     H7 4308   5.275   8.176   5.652  1.1708 -0.3353  1.6008
  172ccc     H8 4309   5.376   8.158   5.524 -1.4120 -2.0145  0.6666
  172ccc     O1 4310   5.531   8.432   5.722 -0.5834 -0.2040 -0.3448
  172ccc    H17 4311   5.434   8.221   5.667 -0.8032 -0.8576  0.2406
  173ccc     C1 4312   5.499   9.326   5.907  0.2190 -0.7310  0.0709
  173ccc     H1 4313   5.543   9.227   5.907 -0.3213 -0.9769  0.1900
  173ccc     H2 4314   5.562   9.378   5.979 -0.0062 -1.5627  0.8870
  173ccc     C2 4315   5.356   9.330   5.951  0.3140 -0.1545 -0.6544
  173ccc     H3 4316   5.335   9.320   6.058  0.3348 -0.1343 -0.6484
  173ccc     H4 4317   5.300   9.415   5.912 -0.9072 -0.7692 -0.2999
  173ccc     C3 4318   5.277   9.223   5.875  0.5758  0.7170 -0.2220
  173ccc     H5 4319   5.261   9.242   5.768  0.7021  0.3202 -0.3141
  173ccc     H6 4320   5.178   9.229   5.921  0.1375 -1.2757 -0.8431
  173ccc     N1 4321   5.532   9.367   5.764 -0.1143  0.6441 -0.5713
  173ccc     H7 4322   5.630   9.352   5.738 -0.2814  1.8682 -2.0586
  173ccc     H8 4323   5.479   9.303   5.703 -1.8289 -0.6375  2.0851
  173ccc     O1 4324   5.334   9.094   5.905 -0.3201  0.1766  0.3632
  173ccc    H17 4325   5.510   9.465   5.739 -1.6107 -0.1695 -2.7075
  174ccc     C1 4326   7.772   5.789   5.393 -0.2228 -0.6682  0.1341
  174ccc     H1 4327   7.873   5.775   5.430 -0.2979 -0.7857  0.2950
  174ccc     H2 4328   7.778   5.796   5.284  0.4633 -1.8425  0.0863
  174ccc     C2 4329   7.717   5.925   5.453 -0.3016  0.3250  0.4400
  174ccc     H3 4330   7.608   5.920   5.459 -0.3339  1.3471  0.7857
  174ccc     H4 4331   7.752   5.933   5.557  1.4557 -0.6940 -0.0296
  174ccc     C3 4332   7.742   6.052   5.372 -0.2986  0.0811 -0.5251
  174ccc     H5 4333   7.697   6.033   5.274 -0.3952  1.3179 -0.7352
  174ccc     H6 4334   7.847   6.083   5.359 -0.8797  2.7024  0.5012
  174ccc     N1 4335   7.688   5.671   5.427  0.1415 -0.1352  0.4496
  174ccc     H7 4336   7.593   5.702   5.402 -0.7677 -0.7756  2.8528
  174ccc     H8 4337   7.698   5.579   5.381 -0.1991 -0.7558  1.5777
  174ccc     O1 4338   7.680   6.167   5.440  0.3318  0.1977  0.2462
  174ccc    H17 4339   7.689   5.654   5.528  0.7649 -3.3069  0.0166
  175ccc     C1 4340   8.040   6.849   4.799  0.0365  0.3034 -0.5803
  175ccc     H1 4341   8.014   6.772   4.871 -0.6072  0.5786 -0.5103
  175ccc     H2 4342   8.083   6.936   4.849 -0.7618 -0.0974  0.8582
  175ccc     C2 4343   7.906   6.881   4.731  0.7530  0.5873 -0.2218
  175ccc     H3 4344   7.926   6.958   4.656 -1.1211 -0.0333 -1.4494
  175ccc     H4 4345   7.856   6.804   4.671 -1.4570  2.5603 -1.0774
  175ccc     C3 4346   7.814   6.931   4.841 -0.9130 -0.3785 -0.1112
  175ccc     H5 4347   7.721   6.975   4.803 -1.3321 -1.5192 -0.4485
  175ccc     H6 4348   7.851   7.011   4.906 -3.3528 -1.7063  3.1390
  175ccc     N1 4349   8.132   6.798   4.694 -0.6012  0.0316 -0.1762
  175ccc     H7 4350   8.100   6.715   4.641  3.4418 -1.8083 -0.1089
  175ccc     H8 4351   8.144   6.873   4.625 -2.3528 -1.3598 -2.1207
  175ccc     O1 4352   7.786   6.818   4.922  0.5152 -0.0363 -0.3884
  175ccc    H17 4353   8.223   6.773   4.736 -0.2004 -2.5375 -2.2723
  176ccc     C1 4354   6.465   6.073   6.337 -0.6944 -0.3721  0.1612
  176ccc     H1 4355   6.505   5.977   6.304  0.0409  0.2331 -0.7672
  176ccc     H2 4356   6.474   6.130   6.244  0.2220  1.1069  1.1263
  176ccc     C2 4357   6.556   6.137   6.450  0.5017  0.4030 -0.1090
  176ccc     H3 4358   6.521   6.082   6.539 -0.7382 -2.3583 -2.1585
  176ccc     H4 4359   6.660   6.117   6.423  0.0133 -1.6305 -0.6489
  176ccc     C3 4360   6.535   6.284   6.466 -0.1798 -0.3441  0.1071
  176ccc     H5 4361   6.575   6.321   6.561  2.4451  0.7392 -1.3032
  176ccc     H6 4362   6.429   6.311   6.465 -0.0823  0.0569  0.2004
  176ccc     N1 4363   6.322   6.042   6.358 -0.0650 -0.0573 -0.1961
  176ccc     H7 4364   6.254   6.119   6.345 -0.9515 -1.0470 -1.7116
  176ccc     H8 4365   6.299   5.974   6.285 -2.5871 -0.4751  0.8766
  176ccc     O1 4366   6.602   6.352   6.361 -0.2010  0.0719 -0.2595
  176ccc    H17 4367   6.310   5.995   6.449  2.4593  0.3966  0.4308
  177ccc     C1 4368   6.809   7.301   5.684  0.6695 -0.2898  0.1844
  177ccc     H1 4369   6.719   7.282   5.625 -0.2667  1.2103  1.0710
  177ccc     H2 4370   6.869   7.382   5.644 -1.3499  1.2002  0.0139
  177ccc     C2 4371   6.895   7.180   5.675  0.0724  0.2059  0.0099
  177ccc     H3 4372   6.916   7.145   5.573 -0.2307  1.1455 -0.3837
  177ccc     H4 4373   6.991   7.206   5.722  0.3284 -1.8108  0.7230
  177ccc     C3 4374   6.838   7.058   5.749  0.6630  0.2673 -0.1558
  177ccc     H5 4375   6.890   6.967   5.717  0.9250  0.5667 -0.5820
  177ccc     H6 4376   6.738   7.054   5.704  1.1975  2.0648 -1.6185
  177ccc     N1 4377   6.750   7.339   5.824  0.0515  0.1775  0.1131
  177ccc     H7 4378   6.657   7.296   5.835  0.0789  0.1894  0.3944
  177ccc     H8 4379   6.818   7.321   5.900  0.4788 -1.1717 -0.5562
  177ccc     O1 4380   6.833   7.083   5.890  0.3991 -0.1968 -0.0932
  177ccc    H17 4381   6.733   7.440   5.821  2.5558  0.6500 -2.5159
  178ccc     C1 4382   6.592   5.712   5.815 -0.1967  0.6052  0.3539
  178ccc     H1 4383   6.520   5.794   5.816  0.6299  1.3342  1.5072
  178ccc     H2 4384   6.585   5.674   5.917  1.1520 -1.5526 -0.2973
  178ccc     C2 4385   6.732   5.757   5.769  0.5016 -0.5056  0.0594
  178ccc     H3 4386   6.801   5.672   5.771 -0.0828 -1.0348 -1.3968
  178ccc     H4 4387   6.723   5.795   5.667 -1.1581  1.0423  0.7222
  178ccc     C3 4388   6.781   5.883   5.852  0.1739  0.4018 -0.6863
  178ccc     H5 4389   6.709   5.962   5.828 -0.5022 -0.2692 -0.9103
  178ccc     H6 4390   6.877   5.917   5.812  0.3296 -1.2072 -1.7724
  178ccc     N1 4391   6.544   5.603   5.728  0.0386 -0.1138 -0.0135
  178ccc     H7 4392   6.562   5.514   5.776 -0.2772 -0.5825 -0.7521
  178ccc     H8 4393   6.443   5.610   5.708  0.5602  3.6674 -2.2784
  178ccc     O1 4394   6.795   5.834   5.988 -0.0888 -0.3766  0.8691
  178ccc    H17 4395   6.582   5.606   5.633 -1.2357  0.0164 -0.5419
  179ccc     C1 4396   7.277   5.366   5.826 -0.4090 -0.5542 -0.4939
  179ccc     H1 4397   7.310   5.355   5.930  0.2613 -2.5761 -0.8896
  179ccc     H2 4398   7.311   5.464   5.793 -1.6913 -0.5178 -1.7763
  179ccc     C2 4399   7.128   5.358   5.811  0.4655  0.0503 -0.0119
  179ccc     H3 4400   7.087   5.342   5.711  0.7167  0.2049 -0.1405
  179ccc     H4 4401   7.104   5.270   5.872  0.3377  0.9239  1.2429
  179ccc     C3 4402   7.049   5.468   5.880  0.0824  0.5732 -0.8336
  179ccc     H5 4403   6.943   5.459   5.852 -0.3932  2.0929  0.3768
  179ccc     H6 4404   7.083   5.569   5.856  0.9529  0.1291 -1.5436
  179ccc     N1 4405   7.353   5.257   5.774 -0.3382 -0.0891 -0.1577
  179ccc     H7 4406   7.349   5.246   5.672 -1.1884  2.3881 -0.4833
  179ccc     H8 4407   7.452   5.260   5.801 -0.1946 -0.2997 -0.6548
  179ccc     O1 4408   7.050   5.442   6.019 -0.5379  0.4418 -0.1711
  179ccc    H17 4409   7.319   5.167   5.809  2.5234 -1.3111 -0.2615
  180ccc     C1 4410   8.422   6.425   6.830 -0.2294  0.0820  0.6548
  180ccc     H1 4411   8.331   6.389   6.877 -0.8723  0.1368 -0.5150
  180ccc     H2 4412   8.462   6.511   6.883  0.2064  1.6799 -2.0621
  180ccc     C2 4413   8.387   6.463   6.687 -0.4496 -0.3548 -0.2655
  180ccc     H3 4414   8.483   6.490   6.641 -1.3200  0.7721 -1.4782
  180ccc     H4 4415   8.335   6.388   6.626 -0.1148 -0.3779 -0.5241
  180ccc     C3 4416   8.301   6.595   6.705  0.6598 -0.2699  0.4080
  180ccc     H5 4417   8.296   6.653   6.612 -2.8822 -0.5507  0.2743
  180ccc     H6 4418   8.337   6.654   6.790  0.3085  1.4680 -0.6057
  180ccc     N1 4419   8.523   6.313   6.841  0.2229  0.0854 -0.1750
  180ccc     H7 4420   8.507   6.230   6.782 -2.2613  0.4534 -0.1370
  180ccc     H8 4421   8.619   6.349   6.830 -0.0872  0.5299 -1.6504
  180ccc     O1 4422   8.165   6.549   6.738 -0.0267  0.2083  0.2387
  180ccc    H17 4423   8.528   6.288   6.941 -1.4746 -0.4277 -0.1841
  181ccc     C1 4424   8.259   6.634   7.459 -0.7590  0.2775 -0.3514
  181ccc     H1 4425   8.264   6.640   7.351  0.9387  0.1772 -0.3122
  181ccc     H2 4426   8.233   6.530   7.482 -2.6755  1.0523  1.2424
  181ccc     C2 4427   8.150   6.702   7.532 -0.1096 -0.1291  0.9808
  181ccc     H3 4428   8.144   6.656   7.631  1.1453 -4.6744 -0.7966
  181ccc     H4 4429   8.172   6.809   7.539 -2.4084  0.4313  0.5150
  181ccc     C3 4430   8.009   6.689   7.469  0.1256 -0.3421 -0.0701
  181ccc     H5 4431   8.000   6.765   7.391  2.3664 -2.4065 -2.5384
  181ccc     H6 4432   7.945   6.713   7.555 -0.4572  1.9498 -1.0547
  181ccc     N1 4433   8.394   6.666   7.524  0.5544 -0.1573  0.7521
  181ccc     H7 4434   8.470   6.610   7.483  0.4247  0.8603 -0.9980
  181ccc     H8 4435   8.406   6.763   7.491 -2.4497  0.3071  0.7876
  181ccc     O1 4436   7.982   6.555   7.417 -0.0665 -0.2560 -0.2075
  181ccc    H17 4437   8.403   6.663   7.626 -1.5030  1.7793  1.0741
  182ccc     C1 4438   8.617   8.409   7.000 -0.2147 -0.1599 -0.3007
  182ccc     H1 4439   8.556   8.498   7.013  0.8696  0.2506  2.7834
  182ccc     H2 4440   8.716   8.442   7.031 -1.2178  2.3782  0.4585
  182ccc     C2 4441   8.625   8.362   6.850 -0.2821 -0.4259  0.4283
  182ccc     H3 4442   8.662   8.259   6.846 -2.2182 -1.1421  0.0684
  182ccc     H4 4443   8.525   8.348   6.806  0.3569 -0.7343 -1.0033
  182ccc     C3 4444   8.712   8.456   6.756 -0.0070  0.0830 -0.5057
  182ccc     H5 4445   8.712   8.420   6.652  1.1422  2.0647 -1.2381
  182ccc     H6 4446   8.812   8.464   6.800  0.1340  0.7747 -0.9390
  182ccc     N1 4447   8.564   8.306   7.094 -0.4344 -0.4536 -0.0437
  182ccc     H7 4448   8.563   8.212   7.051  0.6918 -0.5852  0.1732
  182ccc     H8 4449   8.616   8.283   7.180 -1.5548 -2.4361  0.1778
  182ccc     O1 4450   8.660   8.588   6.744 -0.2798  0.0958  0.5534
  182ccc    H17 4451   8.471   8.320   7.136  0.0470  3.6124 -0.0042
  183ccc     C1 4452   9.296   8.990   6.939 -0.0729 -0.3388  0.5917
  183ccc     H1 4453   9.306   9.071   7.012  0.3379  1.8787 -1.7558
  183ccc     H2 4454   9.298   9.038   6.841 -0.8846  0.3953  0.9228
  183ccc     C2 4455   9.168   8.913   6.953  0.4386  0.4907 -0.5309
  183ccc     H3 4456   9.159   8.833   6.879 -0.1157  0.9061 -0.9224
  183ccc     H4 4457   9.158   8.869   7.053 -2.2431 -0.6461 -1.2291
  183ccc     C3 4458   9.054   9.009   6.932 -0.1862  0.0373 -0.5015
  183ccc     H5 4459   9.060   9.098   6.996 -0.1032  1.0694 -1.8803
  183ccc     H6 4460   8.963   8.953   6.957  0.0666 -0.6312 -1.0632
  183ccc     N1 4461   9.423   8.910   6.935  0.5673  0.4456  0.7080
  183ccc     H7 4462   9.421   8.830   6.870  1.9910  0.0858  1.0659
  183ccc     H8 4463   9.487   8.977   6.889  0.7680  0.1025  0.4800
  183ccc     O1 4464   9.051   9.055   6.798  0.6954  0.3251 -0.5376
  183ccc    H17 4465   9.466   8.890   7.026 -0.5087 -0.1027  1.1197
  184ccc     C1 4466   9.193   8.326   6.577  0.6239  0.2704 -0.2151
  184ccc     H1 4467   9.173   8.382   6.668 -1.4843 -0.6520 -0.0468
  184ccc     H2 4468   9.167   8.394   6.495  1.4188 -0.0760 -0.7666
  184ccc     C2 4469   9.091   8.209   6.569 -0.7003 -0.6261  0.2966
  184ccc     H3 4470   9.103   8.154   6.475 -1.6616 -0.4712  0.0745
  184ccc     H4 4471   9.113   8.135   6.648 -2.4645 -0.4782  0.9783
  184ccc     C3 4472   8.939   8.244   6.586  0.2699  0.0707  0.2787
  184ccc     H5 4473   8.921   8.295   6.682  0.0559  0.0486  0.2506
  184ccc     H6 4474   8.882   8.150   6.593  0.3386 -0.0401 -0.5624
  184ccc     N1 4475   9.338   8.282   6.570 -0.3548  0.3708  0.1230
  184ccc     H7 4476   9.359   8.215   6.645 -3.7818  0.5397  1.4193
  184ccc     H8 4477   9.367   8.239   6.481 -1.3603 -1.2553  0.5306
  184ccc     O1 4478   8.910   8.336   6.471  0.0617  0.0790 -0.3515
  184ccc    H17 4479   9.397   8.366   6.578  0.5364 -0.3358  1.2367
  185ccc     C1 4480   8.975   7.977   5.673 -0.2674 -0.1028  0.2919
  185ccc     H1 4481   9.005   7.972   5.568  0.3252  0.8629  0.3947
  185ccc     H2 4482   8.879   8.028   5.664 -0.2020  0.1621  0.9795
  185ccc     C2 4483   9.077   8.084   5.734  0.2758 -0.1032  0.3001
  185ccc     H3 4484   9.152   8.038   5.799  0.5230  1.7858  1.4195
  185ccc     H4 4485   9.128   8.137   5.653  0.4478 -0.0403  0.4502
  185ccc     C3 4486   8.997   8.186   5.822 -0.5136  0.0220 -0.3261
  185ccc     H5 4487   9.061   8.267   5.859  0.0185 -0.4593 -0.1752
  185ccc     H6 4488   8.948   8.142   5.910  0.7837 -1.0076 -0.0901
  185ccc     N1 4489   8.961   7.840   5.746 -0.1638  0.6242  0.0845
  185ccc     H7 4490   9.046   7.796   5.785 -0.6443 -0.3028  0.1297
  185ccc     H8 4491   8.912   7.862   5.834 -1.1302  2.2070 -0.8231
  185ccc     O1 4492   8.884   8.242   5.746  0.3600 -0.3768 -0.3644
  185ccc    H17 4493   8.920   7.770   5.682 -0.4131 -0.0164  0.9115
  186ccc     C1 4494   7.344   7.887   6.446 -0.0848  0.3505 -0.6428
  186ccc     H1 4495   7.427   7.934   6.394 -0.1861  0.4233 -0.7390
  186ccc     H2 4496   7.329   7.929   6.545 -0.2379 -0.4642 -0.3093
  186ccc     C2 4497   7.381   7.739   6.468  0.3974  0.4751  0.0527
  186ccc     H3 4498   7.298   7.698   6.527 -0.0834 -2.3675 -2.3600
  186ccc     H4 4499   7.393   7.672   6.382  2.0107 -0.4324  0.9284
  186ccc     C3 4500   7.504   7.727   6.552 -0.7831 -0.1822 -0.0882
  186ccc     H5 4501   7.582   7.781   6.498 -1.8758  0.9528 -0.5743
  186ccc     H6 4502   7.516   7.619   6.566  0.0545 -0.2104 -0.9478
  186ccc     N1 4503   7.219   7.901   6.364 -0.2190 -0.7265  0.3666
  186ccc     H7 4504   7.198   7.826   6.297  0.1088 -2.3230  1.9659
  186ccc     H8 4505   7.137   7.901   6.428  0.4715  1.6946  1.3720
  186ccc     O1 4506   7.464   7.781   6.681  0.4069 -0.5579  0.9551
  186ccc    H17 4507   7.216   7.986   6.306 -0.4210 -2.2346 -1.9754
  187ccc     C1 4508   8.065   8.332   7.509 -0.7484 -0.5404 -0.9742
  187ccc     H1 4509   7.973   8.367   7.462 -0.9738  0.7883  0.3850
  187ccc     H2 4510   8.154   8.363   7.453 -0.7447 -0.6196 -1.0133
  187ccc     C2 4511   8.054   8.177   7.517 -0.0921 -0.3539  0.0161
  187ccc     H3 4512   8.131   8.127   7.577 -1.3992 -0.0744  2.0390
  187ccc     H4 4513   7.958   8.151   7.563 -0.9810  1.4675 -0.7281
  187ccc     C3 4514   8.086   8.109   7.385  0.4081 -0.7237 -0.0083
  187ccc     H5 4515   8.104   8.001   7.393  2.0836 -0.6005 -1.5215
  187ccc     H6 4516   8.185   8.144   7.352 -0.0086 -0.6052 -1.2068
  187ccc     N1 4517   8.077   8.388   7.647 -0.5280  0.2837  0.0553
  187ccc     H7 4518   8.054   8.327   7.727 -0.4070  1.5624  1.0927
  187ccc     H8 4519   8.177   8.409   7.653  0.1181 -1.4214 -3.0024
  187ccc     O1 4520   7.990   8.143   7.281 -0.1127  0.1765 -0.1727
  187ccc    H17 4521   8.034   8.480   7.661 -0.7042  0.6950 -2.7068
  188ccc     C1 4522   8.134   9.272   7.609  0.1604 -0.2733 -0.2781
  188ccc     H1 4523   8.212   9.343   7.582 -0.6708  1.1205  0.8304
  188ccc     H2 4524   8.117   9.199   7.529 -1.5090  0.7617 -0.9218
  188ccc     C2 4525   8.011   9.347   7.655  0.0787 -0.0858  0.1642
  188ccc     H3 4526   7.928   9.275   7.653 -0.7488  0.7864 -3.3208
  188ccc     H4 4527   8.026   9.383   7.757  0.3702  0.0074  0.0882
  188ccc     C3 4528   7.970   9.461   7.564  0.2629 -0.1571  0.0885
  188ccc     H5 4529   8.036   9.549   7.568  1.6026 -1.0496 -1.2706
  188ccc     H6 4530   7.872   9.505   7.586 -0.4467 -0.6623 -1.8541
  188ccc     N1 4531   8.177   9.179   7.713 -0.0946  0.0641 -0.3767
  188ccc     H7 4532   8.117   9.096   7.716  0.6465 -0.4893 -0.5856
  188ccc     H8 4533   8.273   9.146   7.697  0.0256 -1.2769  2.5308
  188ccc     O1 4534   7.966   9.416   7.428 -0.6955  0.3640  0.0178
  188ccc    H17 4535   8.170   9.228   7.803 -0.3937  2.1675 -1.4768
  189ccc     C1 4536   8.464   9.963   7.060  0.9319 -0.6702 -0.0108
  189ccc     H1 4537   8.527   9.904   7.127  1.8128 -0.4525 -0.6217
  189ccc     H2 4538   8.377   9.990   7.119 -0.5452 -2.3477 -1.3293
  189ccc     C2 4539   8.416   9.870   6.947  0.1747  0.1559  0.7356
  189ccc     H3 4540   8.367   9.938   6.876  0.0222 -0.5099  0.1952
  189ccc     H4 4541   8.498   9.825   6.889 -0.7356 -0.8417  0.1865
  189ccc     C3 4542   8.305   9.765   6.981  0.4758 -0.7772  0.0567
  189ccc     H5 4543   8.216   9.820   7.012  0.7772 -0.6434  0.6847
  189ccc     H6 4544   8.334   9.708   7.070 -1.9902  1.2158  2.3155
  189ccc     N1 4545   8.542  10.083   7.016  0.5032 -0.4436 -0.5704
  189ccc     H7 4546   8.621  10.071   6.951  1.1158  0.7095 -0.0732
  189ccc     H8 4547   8.484  10.149   6.962  1.8279  2.7873  1.6219
  189ccc     O1 4548   8.282   9.672   6.866  0.3114 -0.0095  0.0220
  189ccc    H17 4549   8.574  10.132   7.101 -2.7473 -0.0969  0.5861
  190ccc     C1 4550   8.493   5.307   7.478 -0.0749 -0.8941 -0.3224
  190ccc     H1 4551   8.594   5.318   7.517 -0.7967 -1.1178  1.7147
  190ccc     H2 4552   8.455   5.205   7.475 -1.1422 -0.6084  1.6582
  190ccc     C2 4553   8.482   5.360   7.334  0.8214 -0.5286  0.2036
  190ccc     H3 4554   8.515   5.463   7.320  0.8479 -0.7782 -1.8937
  190ccc     H4 4555   8.540   5.289   7.273 -0.5273  0.2368 -2.1269
  190ccc     C3 4556   8.339   5.339   7.282 -0.2960 -0.4422 -0.3861
  190ccc     H5 4557   8.335   5.367   7.176  0.2694  0.6644 -0.1336
  190ccc     H6 4558   8.280   5.417   7.332 -1.3484 -1.5690  0.1753
  190ccc     N1 4559   8.400   5.390   7.570 -0.7567  0.0139  0.7050
  190ccc     H7 4560   8.438   5.395   7.666  0.6414 -1.4383  0.2614
  190ccc     H8 4561   8.384   5.485   7.532  0.4494 -0.8699 -2.2839
  190ccc     O1 4562   8.283   5.202   7.302 -0.2998  0.1763 -0.7089
  190ccc    H17 4563   8.313   5.335   7.576 -1.7494  1.6379  2.7259
  191ccc     C1 4564   8.483   4.593   7.022 -0.0138 -0.3600 -0.0890
  191ccc     H1 4565   8.587   4.628   7.028 -0.4370  1.0298 -0.5684
  191ccc     H2 4566   8.492   4.489   6.991  2.1692  0.2009 -1.5707
  191ccc     C2 4567   8.404   4.667   6.918 -0.1761 -0.1497  0.1193
  191ccc     H3 4568   8.410   4.777   6.927  1.6936  0.2088 -3.6276
  191ccc     H4 4569   8.446   4.663   6.817  0.4103  0.8221  0.3126
  191ccc     C3 4570   8.254   4.630   6.908 -0.7223  0.1990  0.3314
  191ccc     H5 4571   8.228   4.523   6.911 -0.7731  0.0864 -2.1618
  191ccc     H6 4572   8.236   4.658   6.803  1.9079  0.5100 -0.1261
  191ccc     N1 4573   8.427   4.604   7.163  0.4511 -0.4326  0.5169
  191ccc     H7 4574   8.324   4.609   7.171  0.4783  2.0126  0.0941
  191ccc     H8 4575   8.459   4.529   7.226  0.4612 -1.4119 -0.6103
  191ccc     O1 4576   8.190   4.701   7.005  0.5608 -0.2185  0.2415
  191ccc    H17 4577   8.448   4.697   7.201 -1.5040  0.6875 -0.9217
  192ccc     C1 4578   6.841   4.168   6.362  0.3034  0.4142  0.3699
  192ccc     H1 4579   6.859   4.216   6.459  2.4283 -1.1244  0.8124
  192ccc     H2 4580   6.889   4.071   6.374  0.9267  0.7138  0.3355
  192ccc     C2 4581   6.903   4.240   6.242 -0.2152 -0.3175  0.1208
  192ccc     H3 4582   6.904   4.172   6.157  0.6133 -1.6649  1.1670
  192ccc     H4 4583   6.841   4.323   6.204  1.4648  0.7062 -0.4999
  192ccc     C3 4584   7.049   4.283   6.274  0.0410  0.3870 -0.3029
  192ccc     H5 4585   7.099   4.320   6.183  1.9925 -0.3765  0.4030
  192ccc     H6 4586   7.111   4.201   6.313 -1.4994  0.2570  2.0878
  192ccc     N1 4587   6.689   4.154   6.350 -0.0563 -0.0938 -0.0661
  192ccc     H7 4588   6.664   4.088   6.275  0.2534  1.0409 -1.1948
  192ccc     H8 4589   6.666   4.112   6.441 -0.0594  1.1136  0.5092
  192ccc     O1 4590   7.047   4.386   6.375 -0.0332 -0.2432 -0.6657
  192ccc    H17 4591   6.634   4.241   6.343 -1.9932 -1.1146  1.4450
  193ccc     C1 4592   7.630   4.501   7.209  0.8574 -0.4108 -0.1012
  193ccc     H1 4593   7.526   4.471   7.195  0.6589  0.5002 -0.7066
  193ccc     H2 4594   7.622   4.609   7.220 -5.1696 -0.0276 -3.8324
  193ccc     C2 4595   7.728   4.457   7.102 -0.0762 -0.2600  0.2941
  193ccc     H3 4596   7.830   4.490   7.124 -0.2876  1.5097 -1.1611
  193ccc     H4 4597   7.722   4.347   7.095 -0.0052 -0.2116 -0.6171
  193ccc     C3 4598   7.677   4.507   6.966  0.8316 -0.2059  0.6899
  193ccc     H5 4599   7.581   4.456   6.950  0.5973  0.5261 -0.2921
  193ccc     H6 4600   7.754   4.472   6.896  1.5769 -0.9028  1.8113
  193ccc     N1 4601   7.673   4.445   7.342  0.5838  0.1402  0.3181
  193ccc     H7 4602   7.715   4.351   7.343  1.7867  0.6588  1.5658
  193ccc     H8 4603   7.743   4.514   7.373  0.2977  0.1631  0.9152
  193ccc     O1 4604   7.669   4.651   6.974  0.1111  0.5983 -0.2887
  193ccc    H17 4605   7.601   4.450   7.415  1.1187  1.9435  0.7984
  194ccc     C1 4606   7.162   5.381   7.408 -0.3159 -0.0887 -0.3841
  194ccc     H1 4607   7.258   5.341   7.377 -0.2686 -1.0844  0.9726
  194ccc     H2 4608   7.086   5.303   7.401  0.1367 -0.5333 -0.4094
  194ccc     C2 4609   7.128   5.493   7.305  0.5724  0.9904  0.3119
  194ccc     H3 4610   7.094   5.444   7.212  5.2258 -1.8263 -0.2510
  194ccc     H4 4611   7.048   5.557   7.343  1.3790  1.6864  0.8525
  194ccc     C3 4612   7.245   5.579   7.263  0.6333  0.1882 -0.0433
  194ccc     H5 4613   7.243   5.655   7.343 -0.0700 -1.6557  1.7912
  194ccc     H6 4614   7.231   5.631   7.168  1.1658  1.0844  0.3602
  194ccc     N1 4615   7.174   5.420   7.554 -0.7023 -0.7156 -0.1275
  194ccc     H7 4616   7.255   5.475   7.583 -0.3719 -1.1550 -0.2058
  194ccc     H8 4617   7.084   5.461   7.584 -0.7343 -0.4403 -0.5923
  194ccc     O1 4618   7.361   5.497   7.259  0.0413 -0.0773 -0.3045
  194ccc    H17 4619   7.184   5.334   7.610 -1.1773 -0.8091 -0.1811
  195ccc     C1 4620   7.576   6.337   7.533  0.1990  0.4086  0.1098
  195ccc     H1 4621   7.585   6.335   7.425 -0.8510 -1.0168  0.0180
  195ccc     H2 4622   7.662   6.386   7.581  0.8427  0.7243 -1.3159
  195ccc     C2 4623   7.588   6.190   7.586  0.9615  0.0721 -0.5286
  195ccc     H3 4624   7.579   6.189   7.696  1.7363 -0.3642 -0.4671
  195ccc     H4 4625   7.502   6.129   7.555  0.5874  0.0801  0.4499
  195ccc     C3 4626   7.709   6.122   7.533 -0.2986  0.5440 -0.1450
  195ccc     H5 4627   7.706   6.021   7.575 -0.6779  0.1062 -1.2002
  195ccc     H6 4628   7.799   6.181   7.556 -0.2616  0.7658 -0.8220
  195ccc     N1 4629   7.452   6.417   7.575  0.7055  0.0241 -0.6502
  195ccc     H7 4630   7.377   6.384   7.512  0.9171 -1.9238  0.0385
  195ccc     H8 4631   7.429   6.407   7.675  1.8601 -1.2921 -0.4856
  195ccc     O1 4632   7.699   6.119   7.389  0.3448 -0.1207 -0.0074
  195ccc    H17 4633   7.472   6.514   7.545  2.3347 -0.3592 -0.8835
  196ccc     C1 4634   8.281   7.168   5.394  0.4884 -0.0196  0.3795
  196ccc     H1 4635   8.186   7.212   5.424  0.1998  1.0075 -1.8267
  196ccc     H2 4636   8.280   7.060   5.381 -1.2210  0.2024 -1.8576
  196ccc     C2 4637   8.389   7.194   5.498 -0.1337 -0.4906  0.2594
  196ccc     H3 4638   8.443   7.099   5.510 -1.4640 -1.5125 -1.4302
  196ccc     H4 4639   8.459   7.270   5.460  0.8167  0.5608  3.7238
  196ccc     C3 4640   8.329   7.235   5.636 -0.5387  0.4263  0.2470
  196ccc     H5 4641   8.268   7.325   5.619  0.5194  0.6510 -3.0850
  196ccc     H6 4642   8.413   7.258   5.703  1.8804 -2.3722 -1.5722
  196ccc     N1 4643   8.308   7.222   5.256  0.2300 -0.3661 -0.1164
  196ccc     H7 4644   8.330   7.323   5.257 -4.1414  0.8475 -2.1169
  196ccc     H8 4645   8.378   7.167   5.204 -0.3750 -2.5635  1.2527
  196ccc     O1 4646   8.233   7.128   5.671 -0.0072 -0.7116 -0.3322
  196ccc    H17 4647   8.220   7.226   5.203  0.2914  0.9952 -0.1402
  197ccc     C1 4648   8.557   7.356   6.376  0.0582 -0.4791 -0.1580
  197ccc     H1 4649   8.629   7.312   6.306 -0.6070  0.0160 -1.1755
  197ccc     H2 4650   8.464   7.304   6.357  0.1919 -0.3971 -1.0770
  197ccc     C2 4651   8.539   7.512   6.386 -0.0341 -0.2120  0.7243
  197ccc     H3 4652   8.484   7.540   6.477 -0.2125 -1.3276  0.9761
  197ccc     H4 4653   8.633   7.569   6.386 -0.5699  0.7413 -1.3075
  197ccc     C3 4654   8.464   7.558   6.260  0.2441 -0.6937 -0.5498
  197ccc     H5 4655   8.545   7.573   6.187  0.6516 -0.6581 -0.0972
  197ccc     H6 4656   8.412   7.653   6.276  0.1368 -0.9933  1.0307
  197ccc     N1 4657   8.598   7.306   6.515 -0.1318 -0.0596  0.2117
  197ccc     H7 4658   8.581   7.204   6.522 -0.0239 -0.6460 -4.7032
  197ccc     H8 4659   8.697   7.308   6.543 -0.2287 -2.4029  0.9864
  197ccc     O1 4660   8.376   7.453   6.201  0.3726  0.4656  0.4943
  197ccc    H17 4661   8.554   7.356   6.593  1.3388  0.9853  0.4237
  198ccc     C1 4662   5.371   6.257   4.953  0.2564  0.1555 -0.4243
  198ccc     H1 4663   5.416   6.181   5.019  1.4218 -0.3917 -1.8001
  198ccc     H2 4664   5.360   6.216   4.853 -0.8892  0.5519 -0.4688
  198ccc     C2 4665   5.461   6.382   4.947 -0.4276 -0.1657 -0.8346
  198ccc     H3 4666   5.398   6.458   4.901 -0.3060 -0.8235 -2.1570
  198ccc     H4 4667   5.491   6.406   5.050 -0.1814  1.3874 -1.2443
  198ccc     C3 4668   5.586   6.348   4.861  0.3108  0.0380 -0.1170
  198ccc     H5 4669   5.555   6.321   4.759 -0.1493  3.0086 -0.8315
  198ccc     H6 4670   5.655   6.272   4.899  1.5183  0.8915 -0.5454
  198ccc     N1 4671   5.232   6.296   5.007  0.2607  0.3788 -0.2662
  198ccc     H7 4672   5.168   6.218   5.028 -0.4498  1.4272  1.7128
  198ccc     H8 4673   5.237   6.365   5.083  0.9908  1.1565 -1.0022
  198ccc     O1 4674   5.647   6.476   4.863 -0.3648 -0.0738  0.2417
  198ccc    H17 4675   5.179   6.347   4.935 -2.0945 -0.3969  0.8140
  199ccc     C1 4676   5.511   7.346   4.436  0.0073 -0.3573 -0.4320
  199ccc     H1 4677   5.429   7.275   4.453 -0.3087  0.1564  0.2564
  199ccc     H2 4678   5.517   7.352   4.327 -0.7304 -0.3111 -0.4789
  199ccc     C2 4679   5.631   7.299   4.505  0.6409  0.4894  0.1688
  199ccc     H3 4680   5.701   7.383   4.514 -1.0422  1.9228  0.5531
  199ccc     H4 4681   5.598   7.274   4.607 -1.2757  0.2752 -0.4619
  199ccc     C3 4682   5.698   7.174   4.435  0.7169 -0.4978  0.3776
  199ccc     H5 4683   5.779   7.147   4.504 -0.3792  0.8649  2.2959
  199ccc     H6 4684   5.732   7.202   4.335 -0.0401 -1.9970 -0.3396
  199ccc     N1 4685   5.456   7.487   4.475  0.1007  0.1409 -0.0078
  199ccc     H7 4686   5.535   7.553   4.466 -0.9932  1.6487  0.8384
  199ccc     H8 4687   5.385   7.520   4.408 -0.7540  1.5103  1.4962
  199ccc     O1 4688   5.591   7.076   4.415  0.0437  0.2541  0.1431
  199ccc    H17 4689   5.425   7.485   4.573 -0.3597 -0.7604 -0.1613
  200ccc     C1 4690   6.667   6.991   2.786 -0.6415 -0.5079 -0.2886
  200ccc     H1 4691   6.607   6.907   2.751 -0.3639 -0.4712 -0.8580
  200ccc     H2 4692   6.749   6.951   2.846 -1.3534  1.6781  2.3430
  200ccc     C2 4693   6.582   7.074   2.885  0.7423 -0.0946 -0.4635
  200ccc     H3 4694   6.647   7.151   2.927  0.5154 -0.9477  1.5584
  200ccc     H4 4695   6.499   7.124   2.834 -1.0472 -1.2712  1.1706
  200ccc     C3 4696   6.532   7.000   3.010  0.3803  0.1219  0.2447
  200ccc     H5 4697   6.473   6.915   2.972 -1.1866  1.0348  0.5195
  200ccc     H6 4698   6.467   7.074   3.059  1.1856  1.2826 -0.3875
  200ccc     N1 4699   6.720   7.065   2.666 -0.0888 -0.3287 -0.5984
  200ccc     H7 4700   6.641   7.115   2.622  0.8305  3.1605  1.3517
  200ccc     H8 4701   6.785   7.141   2.691 -0.2574  0.2676 -1.9004
  200ccc     O1 4702   6.638   6.958   3.096  0.3269 -0.0116  0.3519
  200ccc    H17 4703   6.767   7.004   2.597 -0.3906 -0.8958 -0.3141
  201ccc     C1 4704   7.482   6.534   3.052  0.1398  0.1185  0.4795
  201ccc     H1 4705   7.463   6.480   2.959 -2.0735  1.1453  0.2738
  201ccc     H2 4706   7.496   6.459   3.130  2.1817  0.2461  0.2763
  201ccc     C2 4707   7.357   6.611   3.098  0.1694 -0.6203  0.4872
  201ccc     H3 4708   7.372   6.655   3.197  0.6569 -1.7042  0.9017
  201ccc     H4 4709   7.349   6.696   3.028 -1.4950  1.0479  2.5505
  201ccc     C3 4710   7.226   6.536   3.102 -0.0654  0.8921  0.2658
  201ccc     H5 4711   7.240   6.444   3.160  1.3344  1.2421  0.4999
  201ccc     H6 4712   7.194   6.500   3.003 -2.5069 -1.2378  1.6930
  201ccc     N1 4713   7.606   6.627   3.035  0.0249  0.1081 -0.0544
  201ccc     H7 4714   7.589   6.713   2.981  0.2530 -0.0098 -0.3155
  201ccc     H8 4715   7.653   6.655   3.123  1.7184 -0.1939 -0.8088
  201ccc     O1 4716   7.107   6.615   3.153 -0.1333  0.3614  0.3003
  201ccc    H17 4717   7.682   6.580   2.984 -1.3480 -0.3629 -1.7604
  202ccc     C1 4718   7.086   5.786   3.907 -0.3039  0.1194  0.7179
  202ccc     H1 4719   7.035   5.720   3.977  0.6325  0.6587  1.9461
  202ccc     H2 4720   7.187   5.808   3.941 -0.0143 -1.3496  0.8358
  202ccc     C2 4721   7.005   5.913   3.882  1.0496 -0.6980 -0.0369
  202ccc     H3 4722   7.003   5.977   3.971  1.8847  0.9808 -1.1687
  202ccc     H4 4723   7.065   5.973   3.812  0.9062  0.0134  0.4386
  202ccc     C3 4724   6.867   5.879   3.826 -0.1698  0.4488  0.4599
  202ccc     H5 4725   6.834   5.799   3.893 -0.8449  1.2437  1.0994
  202ccc     H6 4726   6.871   5.846   3.722 -1.4981  0.0527  0.5189
  202ccc     N1 4727   7.111   5.707   3.774  0.1501  0.6583  0.2185
  202ccc     H7 4728   7.136   5.610   3.800  0.8050  0.8543  0.3432
  202ccc     H8 4729   7.023   5.706   3.721  0.7517 -1.5508 -0.8832
  202ccc     O1 4730   6.791   5.999   3.844 -0.7917  0.2506 -0.2086
  202ccc    H17 4731   7.180   5.742   3.705  0.7759 -0.2286  0.3770
  203ccc     C1 4732   6.243   5.832   4.593 -0.5516 -0.4365  0.1498
  203ccc     H1 4733   6.350   5.831   4.612 -0.5911  1.2055  0.5959
  203ccc     H2 4734   6.214   5.793   4.495  1.6020 -1.4531 -0.1272
  203ccc     C2 4735   6.206   5.985   4.598 -0.2016  0.4293  0.1539
  203ccc     H3 4736   6.099   6.002   4.580 -0.0564  2.0904  0.6310
  203ccc     H4 4737   6.241   6.027   4.693  0.3734  1.2427 -0.3953
  203ccc     C3 4738   6.286   6.055   4.488  0.2079  0.3284  0.3025
  203ccc     H5 4739   6.389   6.022   4.506 -0.8600 -2.1243  2.6868
  203ccc     H6 4740   6.275   6.163   4.504  1.2053  0.3316  1.1267
  203ccc     N1 4741   6.177   5.760   4.706  0.2803 -0.0525 -0.1525
  203ccc     H7 4742   6.198   5.800   4.798  0.5298 -1.1916  0.2953
  203ccc     H8 4743   6.074   5.756   4.702  0.0728  0.3040  2.7144
  203ccc     O1 4744   6.242   6.022   4.354 -0.6603 -0.1106  0.4020
  203ccc    H17 4745   6.209   5.662   4.712  0.5508 -0.0013 -0.6935
  204ccc     C1 4746   6.771   7.522   3.685 -0.1128 -0.0577  0.6890
  204ccc     H1 4747   6.874   7.486   3.681 -0.1529 -0.2023  0.9644
  204ccc     H2 4748   6.766   7.547   3.791 -0.4178 -1.9617  1.1637
  204ccc     C2 4749   6.689   7.390   3.654  0.2478 -0.5888  0.6680
  204ccc     H3 4750   6.685   7.365   3.547 -1.0674  2.2782 -0.0408
  204ccc     H4 4751   6.733   7.298   3.693 -0.9910 -0.3826  2.6418
  204ccc     C3 4752   6.546   7.400   3.707  0.3637  0.6127  0.3147
  204ccc     H5 4753   6.495   7.488   3.668 -0.5825  0.1852  0.5666
  204ccc     H6 4754   6.540   7.415   3.816  0.0520  0.7543  0.2779
  204ccc     N1 4755   6.765   7.650   3.597 -0.2017  0.8503 -0.1836
  204ccc     H7 4756   6.804   7.726   3.655 -0.7466  1.4502 -0.5828
  204ccc     H8 4757   6.819   7.633   3.511  2.1478  0.4293  1.2797
  204ccc     O1 4758   6.492   7.277   3.661 -0.6324  0.6670  0.2983
  204ccc    H17 4759   6.667   7.669   3.572 -0.7866  0.2079  1.4761
  205ccc     C1 4760   5.522   7.112   3.614 -0.2324 -0.3127  0.3029
  205ccc     H1 4761   5.537   7.218   3.592 -0.3884 -0.6500 -1.6696
  205ccc     H2 4762   5.597   7.076   3.685 -1.0952  1.3747  2.1585
  205ccc     C2 4763   5.533   7.035   3.483 -0.8741 -0.4609  0.1996
  205ccc     H3 4764   5.529   6.928   3.508 -0.1218 -0.2972  1.0589
  205ccc     H4 4765   5.444   7.046   3.419 -1.7243  2.0270  1.6890
  205ccc     C3 4766   5.659   7.071   3.405  0.4224  0.1836  0.0905
  205ccc     H5 4767   5.659   7.176   3.374 -0.9360  0.6364  1.4877
  205ccc     H6 4768   5.666   7.004   3.318  0.3590 -0.0503  0.2643
  205ccc     N1 4769   5.388   7.100   3.680 -0.5491  0.3551 -0.0319
  205ccc     H7 4770   5.378   7.153   3.768  1.5762 -1.8405  1.6816
  205ccc     H8 4771   5.318   7.141   3.616  0.0114  1.3999  0.0029
  205ccc     O1 4772   5.772   7.039   3.491  0.6820 -0.8190  0.2074
  205ccc    H17 4773   5.368   7.000   3.695  2.0257 -0.1616  0.4008
  206ccc     C1 4774   4.587   8.043   8.407 -0.0829 -0.0943 -0.2031
  206ccc     H1 4775   4.571   8.079   8.306  0.2185  0.4765 -0.0509
  206ccc     H2 4776   4.515   8.103   8.463 -1.3608 -0.5227 -1.3536
  206ccc     C2 4777   4.737   8.063   8.450  0.8541  0.0387 -0.7324
  206ccc     H3 4778   4.804   7.994   8.398 -0.6527 -3.2107  1.3127
  206ccc     H4 4779   4.761   8.164   8.415  0.2953  1.2107  2.0089
  206ccc     C3 4780   4.759   8.031   8.601  0.1239  0.7592 -0.5745
  206ccc     H5 4781   4.693   8.089   8.666  2.1766 -0.7314  3.1503
  206ccc     H6 4782   4.855   8.054   8.649  1.1029 -4.2339  0.4353
  206ccc     N1 4783   4.542   7.902   8.418  0.3989  0.8798 -0.2207
  206ccc     H7 4784   4.614   7.834   8.390  0.2612  0.0672  1.2959
  206ccc     H8 4785   4.502   7.871   8.508  1.1533 -0.5846 -0.3633
  206ccc     O1 4786   4.734   7.892   8.620  0.5315  0.4620 -0.0998
  206ccc    H17 4787   4.466   7.892   8.349  0.3960 -1.6115  0.0582
  207ccc     C1 4788   4.710   6.776   9.175  0.5552 -0.4880 -0.2911
  207ccc     H1 4789   4.776   6.760   9.261  1.6689  1.1989 -0.7691
  207ccc     H2 4790   4.680   6.678   9.139 -0.2729  0.0622 -1.1264
  207ccc     C2 4791   4.754   6.870   9.068 -0.6536  0.1250  0.4369
  207ccc     H3 4792   4.837   6.821   9.016 -0.1913 -0.8642  2.0398
  207ccc     H4 4793   4.674   6.887   8.995 -1.3256  1.1328  1.3713
  207ccc     C3 4794   4.817   7.010   9.119  0.6063 -0.0886 -0.7325
  207ccc     H5 4795   4.916   7.003   9.164  0.6837 -0.2423 -0.9263
  207ccc     H6 4796   4.746   7.054   9.190 -0.6298  0.1573 -2.0522
  207ccc     N1 4797   4.591   6.822   9.256  0.1787 -0.1319  0.2733
  207ccc     H7 4798   4.606   6.910   9.308  1.3017 -0.6300  0.8153
  207ccc     H8 4799   4.506   6.826   9.198 -1.0926  1.0754  2.0864
  207ccc     O1 4800   4.816   7.079   8.991 -0.3274 -0.1112 -0.6711
  207ccc    H17 4801   4.561   6.761   9.334 -1.0229 -0.5725 -0.5005
  208ccc     C1 4802   6.300   8.031   7.543 -0.4078 -0.1909  0.4883
  208ccc     H1 4803   6.359   8.027   7.451 -0.1387 -0.8181  0.6778
  208ccc     H2 4804   6.301   7.929   7.582  2.2639  0.1862  1.6316
  208ccc     C2 4805   6.154   8.080   7.501 -0.0698 -0.2717 -0.4746
  208ccc     H3 4806   6.095   8.093   7.593 -0.5921 -2.1272 -0.5121
  208ccc     H4 4807   6.149   8.180   7.456 -1.3623 -0.1963 -0.1875
  208ccc     C3 4808   6.082   7.986   7.412  0.2863  0.8712 -0.0060
  208ccc     H5 4809   6.078   7.893   7.470 -1.3352  1.1852  0.4292
  208ccc     H6 4810   6.134   7.982   7.316  2.1054  1.0056  0.9296
  208ccc     N1 4811   6.392   8.114   7.631  0.2705 -0.4137  0.8444
  208ccc     H7 4812   6.328   8.171   7.688 -0.7844 -2.1168  1.4385
  208ccc     H8 4813   6.462   8.056   7.680  0.8825 -0.4535 -0.0528
  208ccc     O1 4814   5.946   8.041   7.396  0.8698  0.7815  0.1667
  208ccc    H17 4815   6.449   8.180   7.575  1.6239 -1.8339  0.4830
  209ccc     C1 4816   5.854   6.927   7.073  0.8959 -0.0606 -0.4752
  209ccc     H1 4817   5.901   6.981   7.155 -0.7232 -0.5577  0.8198
  209ccc     H2 4818   5.907   6.966   6.985 -1.6848 -2.1740 -3.1962
  209ccc     C2 4819   5.702   6.948   7.060 -0.1090 -0.8982 -0.5168
  209ccc     H3 4820   5.680   6.901   6.963 -1.3869  0.8600 -1.1222
  209ccc     H4 4821   5.656   6.891   7.142  1.5025 -2.7031 -0.7949
  209ccc     C3 4822   5.663   7.096   7.051 -0.4594  0.4679  0.7107
  209ccc     H5 4823   5.585   7.116   7.125 -1.9932  0.6289 -0.8731
  209ccc     H6 4824   5.631   7.107   6.947 -0.7295  0.1027  0.7557
  209ccc     N1 4825   5.907   6.786   7.096  0.4396  0.5443 -0.2717
  209ccc     H7 4826   6.006   6.775   7.068  0.1101 -0.4386 -1.1445
  209ccc     H8 4827   5.898   6.767   7.196  0.7345  0.7615 -0.2000
  209ccc     O1 4828   5.771   7.194   7.088  0.1766  0.8802  0.2412
  209ccc    H17 4829   5.865   6.704   7.049  0.8664 -0.7729  1.5586
  210ccc     C1 4830   4.556   6.400   8.923 -0.6466  1.0014 -0.1443
  210ccc     H1 4831   4.554   6.304   8.872 -1.1354  0.5624  0.6729
  210ccc     H2 4832   4.455   6.440   8.919 -0.2202  2.1681  0.4018
  210ccc     C2 4833   4.673   6.483   8.871 -0.1954  0.2035  0.4118
  210ccc     H3 4834   4.685   6.569   8.938 -0.8636  0.7473 -0.1492
  210ccc     H4 4835   4.768   6.428   8.881 -1.0105 -1.0450  1.5535
  210ccc     C3 4836   4.664   6.538   8.730 -0.7280 -0.2527  0.8534
  210ccc     H5 4837   4.566   6.588   8.722 -0.8491 -0.3375  1.7136
  210ccc     H6 4838   4.653   6.458   8.654 -1.0326  1.3405 -0.8600
  210ccc     N1 4839   4.567   6.361   9.071 -0.1675 -0.3683 -0.7682
  210ccc     H7 4840   4.648   6.301   9.093 -1.3153 -2.3492 -1.7231
  210ccc     H8 4841   4.576   6.448   9.126  2.6835 -0.9339 -0.1844
  210ccc     O1 4842   4.769   6.629   8.707 -0.1418  0.6432 -0.1473
  210ccc    H17 4843   4.480   6.314   9.100  0.3453 -0.6531  0.3289
  211ccc     C1 4844   5.306   6.678   9.213  0.2162  0.7747  0.0042
  211ccc     H1 4845   5.251   6.750   9.275 -0.1722  0.8113 -0.3813
  211ccc     H2 4846   5.364   6.735   9.140 -2.7997  3.8112 -0.2538
  211ccc     C2 4847   5.205   6.592   9.142 -0.4476 -0.6909 -0.0240
  211ccc     H3 4848   5.237   6.540   9.051 -2.0277 -2.1965  0.2322
  211ccc     H4 4849   5.164   6.513   9.205 -1.6677 -2.2167 -2.5979
  211ccc     C3 4850   5.092   6.684   9.091 -0.1565  0.0293 -0.5754
  211ccc     H5 4851   5.045   6.734   9.176 -0.6073 -0.8446 -0.2943
  211ccc     H6 4852   5.012   6.625   9.044  0.8978 -2.7477  0.8820
  211ccc     N1 4853   5.403   6.604   9.305  0.0547 -0.7980 -0.3625
  211ccc     H7 4854   5.344   6.545   9.365  0.1259  1.8453  2.5564
  211ccc     H8 4855   5.472   6.552   9.249 -1.0888 -0.6748 -1.9529
  211ccc     O1 4856   5.140   6.791   9.010  0.4306 -0.0026 -0.0873
  211ccc    H17 4857   5.452   6.665   9.372  0.4720 -0.0332 -1.3447
  212ccc     C1 4858   5.272   8.782   8.404 -0.1258  0.3427  0.2398
  212ccc     H1 4859   5.173   8.768   8.360 -1.2556  0.4699  2.5928
  212ccc     H2 4860   5.338   8.821   8.327  0.4384  0.1396  0.6211
  212ccc     C2 4861   5.328   8.650   8.444  0.1546  0.1926  0.2161
  212ccc     H3 4862   5.418   8.675   8.502 -0.2520  3.4466 -0.3814
  212ccc     H4 4863   5.256   8.604   8.513 -1.3000  1.4692 -0.3917
  212ccc     C3 4864   5.350   8.565   8.321 -0.0971  0.0850  0.3692
  212ccc     H5 4865   5.404   8.631   8.252  1.6066  0.6714  2.1576
  212ccc     H6 4866   5.258   8.527   8.275 -0.3336 -0.9867  1.6531
  212ccc     N1 4867   5.256   8.876   8.519  0.3614 -0.8032 -0.6258
  212ccc     H7 4868   5.216   8.833   8.604 -0.4675 -1.1263 -1.1609
  212ccc     H8 4869   5.337   8.935   8.543 -1.4985  1.5716  0.2163
  212ccc     O1 4870   5.435   8.459   8.358 -0.2743  0.9436 -0.2379
  212ccc    H17 4871   5.179   8.936   8.487 -0.6326 -1.2172  0.8738
  213ccc     C1 4872   6.210   8.488   8.235 -0.3407  0.3447  0.8525
  213ccc     H1 4873   6.103   8.508   8.246 -0.5314 -0.3601  0.3320
  213ccc     H2 4874   6.225   8.468   8.128 -0.8096 -1.1139  1.0502
  213ccc     C2 4875   6.252   8.373   8.330 -0.9549 -0.1338 -0.1292
  213ccc     H3 4876   6.360   8.373   8.350 -1.2697  0.0092  1.7046
  213ccc     H4 4877   6.207   8.383   8.429  2.6707  3.6158  1.4525
  213ccc     C3 4878   6.214   8.236   8.271 -0.9761  0.0335  0.1791
  213ccc     H5 4879   6.250   8.161   8.343 -0.2419 -0.2277 -0.4480
  213ccc     H6 4880   6.259   8.212   8.174 -0.1502 -0.0283  0.5689
  213ccc     N1 4881   6.277   8.619   8.282 -0.0011  0.6963  0.0160
  213ccc     H7 4882   6.243   8.706   8.238 -1.2165  0.4641  0.4451
  213ccc     H8 4883   6.262   8.630   8.383  0.9841  1.8685  0.0514
  213ccc     O1 4884   6.074   8.221   8.258  0.2718 -0.0366  0.0335
  213ccc    H17 4885   6.376   8.626   8.255 -0.0183 -0.9246 -0.6344
  214ccc     C1 4886   4.460   7.833   5.401 -0.0405  0.5854  0.3793
  214ccc     H1 4887   4.418   7.908   5.468  0.2141  0.0797  1.1116
  214ccc     H2 4888   4.422   7.849   5.300 -0.4656 -0.8917  0.2830
  214ccc     C2 4889   4.408   7.696   5.448 -0.0822  0.1404 -0.4558
  214ccc     H3 4890   4.453   7.610   5.396  0.4854 -0.0370  0.3020
  214ccc     H4 4891   4.443   7.680   5.551  1.0599  1.1293 -0.6665
  214ccc     C3 4892   4.251   7.682   5.456 -0.0466  0.1511  0.2357
  214ccc     H5 4893   4.205   7.699   5.358 -0.0263 -0.8871  0.0317
  214ccc     H6 4894   4.207   7.755   5.526 -0.0076  1.0024 -0.6127
  214ccc     N1 4895   4.610   7.853   5.416 -0.2877 -0.3191 -0.0034
  214ccc     H7 4896   4.625   7.954   5.425 -0.0063  0.1620 -3.9411
  214ccc     H8 4897   4.645   7.799   5.497 -0.1730  1.0461  0.8805
  214ccc     O1 4898   4.210   7.545   5.488  0.1807 -0.3830 -0.3577
  214ccc    H17 4899   4.653   7.824   5.327  1.1443  2.0149 -0.1430
  215ccc     C1 4900   3.367   7.304   5.880 -0.6961  0.1858 -0.3895
  215ccc     H1 4901   3.326   7.205   5.904  0.1213 -0.4728 -1.5847
  215ccc     H2 4902   3.423   7.296   5.787  0.2586 -0.5040  0.2174
  215ccc     C2 4903   3.466   7.363   5.985  0.1493 -0.6784 -0.2529
  215ccc     H3 4904   3.513   7.456   5.951  3.5785 -1.8146  0.9526
  215ccc     H4 4905   3.410   7.372   6.079  0.7380 -0.8153  0.1136
  215ccc     C3 4906   3.586   7.269   6.008  0.1940 -0.1823  0.4968
  215ccc     H5 4907   3.560   7.168   6.040  0.9600 -0.7030 -0.4821
  215ccc     H6 4908   3.654   7.312   6.082  1.4471 -1.2507  0.0085
  215ccc     N1 4909   3.255   7.394   5.843 -0.2944 -0.1814  0.4195
  215ccc     H7 4910   3.191   7.343   5.781  1.9678 -1.7148 -0.8229
  215ccc     H8 4911   3.201   7.432   5.921  1.6580  0.6012  1.4607
  215ccc     O1 4912   3.656   7.267   5.883  1.0078 -0.4766 -0.2845
  215ccc    H17 4913   3.295   7.469   5.784  1.1867 -0.1797  1.3654
  216ccc     C1 4914   2.610   5.593   6.729 -0.4338  0.2439  0.3576
  216ccc     H1 4915   2.534   5.584   6.651  1.1429  0.5621 -1.3038
  216ccc     H2 4916   2.662   5.687   6.708 -0.3869 -0.0265 -0.8302
  216ccc     C2 4917   2.699   5.473   6.728 -0.4920 -0.0144 -1.2085
  216ccc     H3 4918   2.770   5.482   6.811  0.1979  3.6947 -2.0323
  216ccc     H4 4919   2.635   5.387   6.749 -1.0074  1.0170  2.1241
  216ccc     C3 4920   2.778   5.438   6.595  0.2291  0.6294  0.2545
  216ccc     H5 4921   2.709   5.441   6.510 -0.3403  0.7951  0.7155
  216ccc     H6 4922   2.819   5.337   6.600 -1.6632 -0.1665  0.2632
  216ccc     N1 4923   2.528   5.599   6.856  0.4313 -0.3864 -0.3292
  216ccc     H7 4924   2.584   5.617   6.941 -2.0706 -0.2688  1.3968
  216ccc     H8 4925   2.461   5.677   6.853 -0.5046 -1.0040  2.2661
  216ccc     O1 4926   2.883   5.537   6.575 -0.1151  0.3548  0.3497
  216ccc    H17 4927   2.476   5.511   6.864 -0.0164 -0.2539 -1.6547
  217ccc     C1 4928   3.004   5.623   5.849  0.4938  0.5108 -1.0576
  217ccc     H1 4929   2.908   5.652   5.892  0.9380 -0.8176  0.9943
  217ccc     H2 4930   3.046   5.554   5.923  1.1925  0.7395 -1.2326
  217ccc     C2 4931   3.100   5.740   5.845 -0.3749  0.0251  0.0922
  217ccc     H3 4932   3.196   5.716   5.798 -0.6548  1.5310 -1.3342
  217ccc     H4 4933   3.075   5.821   5.775  0.7352  0.3230  0.0199
  217ccc     C3 4934   3.105   5.810   5.988 -0.3408  0.1368  0.2701
  217ccc     H5 4935   3.004   5.845   6.010  0.1317  2.2221 -0.6162
  217ccc     H6 4936   3.168   5.901   5.987 -1.1465  0.6971 -0.3703
  217ccc     N1 4937   2.988   5.558   5.718 -0.1017 -0.4561  0.1153
  217ccc     H7 4938   3.075   5.515   5.683  0.0417 -1.8370  1.9937
  217ccc     H8 4939   2.913   5.490   5.736 -1.8623  1.4407  0.1847
  217ccc     O1 4940   3.139   5.712   6.083  0.2485  0.2604 -0.8097
  217ccc    H17 4941   2.945   5.626   5.655  0.7354 -0.4468 -0.4653
  218ccc     C1 4942   3.255   6.307   5.765 -0.1769  0.2245  0.1656
  218ccc     H1 4943   3.182   6.238   5.808  0.1412  0.1464  0.5915
  218ccc     H2 4944   3.336   6.245   5.725  0.1139  0.5573  0.2305
  218ccc     C2 4945   3.318   6.397   5.872  0.2419  0.2084  0.6513
  218ccc     H3 4946   3.418   6.410   5.830 -0.0091 -0.7159 -0.3022
  218ccc     H4 4947   3.268   6.493   5.888 -1.2448 -0.6194  1.3022
  218ccc     C3 4948   3.341   6.330   6.007 -0.0473 -0.4340 -1.2177
  218ccc     H5 4949   3.240   6.321   6.051 -0.1313  0.1886 -1.2793
  218ccc     H6 4950   3.403   6.385   6.078 -0.5348 -0.4046 -0.8031
  218ccc     N1 4951   3.192   6.387   5.649  0.1331  0.1753 -0.4728
  218ccc     H7 4952   3.265   6.445   5.605 -0.1728  1.0652  0.1902
  218ccc     H8 4953   3.136   6.339   5.577  0.4723  0.7125 -1.1033
  218ccc     O1 4954   3.397   6.205   5.981  0.3000  0.0738 -0.4690
  218ccc    H17 4955   3.125   6.452   5.691  0.8485  0.4966  0.1983
  219ccc     C1 4956   3.771   5.916   6.822  0.7955  0.2207 -0.1037
  219ccc     H1 4957   3.680   5.858   6.803  0.0725  1.0811  0.6367
  219ccc     H2 4958   3.793   5.987   6.743 -2.3563 -0.4051 -1.6947
  219ccc     C2 4959   3.878   5.812   6.817  0.8175  0.5937 -0.3158
  219ccc     H3 4960   3.978   5.858   6.813  1.1050 -0.1003 -2.5898
  219ccc     H4 4961   3.882   5.749   6.907 -1.1045  0.9790  0.0694
  219ccc     C3 4962   3.861   5.715   6.697  0.5361 -0.5612 -0.1783
  219ccc     H5 4963   3.784   5.639   6.713  0.2204 -0.7048 -2.0622
  219ccc     H6 4964   3.961   5.669   6.689  1.3315  1.2952 -1.9641
  219ccc     N1 4965   3.761   5.978   6.959 -0.1345 -0.0211  0.1073
  219ccc     H7 4966   3.731   5.919   7.037 -0.1531  1.0874  0.9564
  219ccc     H8 4967   3.855   6.013   6.982 -0.0845 -0.1726  0.1346
  219ccc     O1 4968   3.815   5.788   6.584 -0.4972  0.0190 -0.4548
  219ccc    H17 4969   3.698   6.059   6.946  0.9254  0.6889 -0.8448
  220ccc     C1 4970   3.700   5.331   5.351 -0.4639  0.5263 -0.4519
  220ccc     H1 4971   3.724   5.225   5.353 -0.1900  0.5355 -2.0863
  220ccc     H2 4972   3.750   5.373   5.263  1.2047  1.1162  0.7255
  220ccc     C2 4973   3.737   5.399   5.485  0.6011  0.4486  0.4653
  220ccc     H3 4974   3.694   5.499   5.497 -1.0061 -0.1930  0.1728
  220ccc     H4 4975   3.702   5.334   5.566  0.3296  0.8531  0.6752
  220ccc     C3 4976   3.892   5.412   5.492  0.0255 -0.6052  0.3997
  220ccc     H5 4977   3.933   5.310   5.493 -0.4516 -0.8060  0.0788
  220ccc     H6 4978   3.915   5.476   5.578 -3.0308 -1.9699  2.4113
  220ccc     N1 4979   3.554   5.341   5.322 -0.4330 -0.3415 -0.1617
  220ccc     H7 4980   3.519   5.438   5.321 -1.0935 -0.5681  0.0873
  220ccc     H8 4981   3.524   5.293   5.236  1.4864 -0.4308 -0.8285
  220ccc     O1 4982   3.941   5.487   5.381 -0.7027  0.4265 -0.3136
  220ccc    H17 4983   3.505   5.297   5.402  0.2270 -0.8850 -0.0418
  221ccc     C1 4984   3.901   4.907   4.826 -0.4838 -0.4046  0.4907
  221ccc     H1 4985   3.910   4.861   4.925  1.2952 -3.3038 -0.8856
  221ccc     H2 4986   3.951   4.848   4.749 -0.2759  0.7970 -0.3339
  221ccc     C2 4987   3.962   5.051   4.838 -0.4303 -0.5021  0.1955
  221ccc     H3 4988   3.938   5.118   4.755 -0.3404  0.8223  1.2087
  221ccc     H4 4989   3.915   5.091   4.929 -2.6322 -1.9149 -0.2435
  221ccc     C3 4990   4.108   5.056   4.879  0.4498  0.7253 -0.0107
  221ccc     H5 4991   4.145   5.159   4.887 -0.6795  1.0411  1.9762
  221ccc     H6 4992   4.168   5.002   4.806  1.0975  0.1494  0.9273
  221ccc     N1 4993   3.755   4.902   4.795 -0.4087  0.1091  0.1443
  221ccc     H7 4994   3.703   4.961   4.861  2.0316  2.0641  0.4861
  221ccc     H8 4995   3.730   4.939   4.702  0.5057  0.2724 -0.0548
  221ccc     O1 4996   4.117   4.993   5.012  0.6726  0.1147  0.3144
  221ccc    H17 4997   3.718   4.807   4.806 -0.8283  0.0964 -1.2422
  222ccc     C1 4998   7.141   8.971   7.864 -0.3463 -0.8566 -0.7661
  222ccc     H1 4999   7.168   9.009   7.962 -0.9231 -0.0541 -0.9082
  222ccc     H2 5000   7.239   8.944   7.825  0.4795 -1.7669  1.7449
  222ccc     C2 5001   7.071   9.078   7.780  0.1767 -0.1113 -0.3965
  222ccc     H3 5002   7.061   9.045   7.676  0.7805 -0.5806 -0.3138
  222ccc     H4 5003   6.965   9.075   7.810 -0.2180  1.4078 -1.5114
  222ccc     C3 5004   7.141   9.217   7.778  0.2775  0.0590  0.6485
  222ccc     H5 5005   7.138   9.266   7.876  1.1861  0.3335  0.5456
  222ccc     H6 5006   7.078   9.274   7.709 -0.9045 -0.3737  1.3439
  222ccc     N1 5007   7.064   8.844   7.866  0.2795 -0.1149 -0.3118
  222ccc     H7 5008   7.054   8.832   7.765 -1.1568  1.0405 -0.3551
  222ccc     H8 5009   7.111   8.764   7.911 -1.2081 -0.2683  1.0789
  222ccc     O1 5010   7.275   9.201   7.740 -0.1484 -0.3022  0.1678
  222ccc    H17 5011   6.970   8.847   7.909 -0.6161 -0.5335 -2.1423
  223ccc     C1 5012   7.382   9.425   6.780 -0.3366  0.3159 -0.0786
  223ccc     H1 5013   7.344   9.430   6.678  0.7037 -1.3008 -0.5817
  223ccc     H2 5014   7.476   9.369   6.784 -0.1889  0.4579 -1.2507
  223ccc     C2 5015   7.263   9.354   6.858  0.4530 -0.2824  0.1617
  223ccc     H3 5016   7.188   9.425   6.896 -0.1884  0.0630 -1.6391
  223ccc     H4 5017   7.221   9.284   6.784  0.4869 -1.6260  1.3807
  223ccc     C3 5018   7.304   9.278   6.983 -0.8575 -0.0792 -0.3748
  223ccc     H5 5019   7.374   9.196   6.967 -0.9376 -0.3366  0.5474
  223ccc     H6 5020   7.213   9.237   7.029  0.2660 -3.7005 -1.1226
  223ccc     N1 5021   7.426   9.561   6.823 -0.4766  0.0456 -0.2791
  223ccc     H7 5022   7.480   9.564   6.911 -0.4721  1.0871 -0.3036
  223ccc     H8 5023   7.489   9.599   6.751 -0.6778  1.7382  0.3799
  223ccc     O1 5024   7.373   9.364   7.078 -0.7029 -0.1413 -0.0300
  223ccc    H17 5025   7.344   9.622   6.837 -2.4052 -2.7209  1.2985
  224ccc     C1 5026   8.877  10.409   7.100  0.1014 -0.2604 -0.2011
  224ccc     H1 5027   8.981  10.393   7.072 -0.1624 -0.9771 -0.7937
  224ccc     H2 5028   8.842  10.320   7.152 -1.6548  0.5195  0.0359
  224ccc     C2 5029   8.787  10.427   6.977 -0.4196 -0.1633 -0.0025
  224ccc     H3 5030   8.685  10.403   7.009 -0.6778 -0.5250 -1.0499
  224ccc     H4 5031   8.782  10.531   6.942 -0.7833  0.0298  0.6233
  224ccc     C3 5032   8.821  10.344   6.849  0.1209  0.2275 -0.4142
  224ccc     H5 5033   8.927  10.359   6.824  0.9355 -3.3104  0.2665
  224ccc     H6 5034   8.767  10.389   6.765  0.0458  3.7331  1.3469
  224ccc     N1 5035   8.867  10.527   7.201  0.0740 -0.1758 -0.5125
  224ccc     H7 5036   8.905  10.609   7.151 -2.7811  1.3776 -0.3239
  224ccc     H8 5037   8.767  10.546   7.220 -0.3980 -1.5721 -1.4211
  224ccc     O1 5038   8.800  10.208   6.883 -0.3834  0.3169  0.0842
  224ccc    H17 5039   8.921  10.519   7.288 -0.5797  1.7690  0.1141
  225ccc     C1 5040   8.749   9.918   7.683  0.1486 -0.0935  0.1897
  225ccc     H1 5041   8.826   9.895   7.757  0.8654 -0.5070 -0.6716
  225ccc     H2 5042   8.687   9.833   7.655 -2.9923  2.3930 -1.1220
  225ccc     C2 5043   8.820   9.958   7.546  0.3013  0.1820 -0.6671
  225ccc     H3 5044   8.746   9.995   7.473 -0.0529  0.9608  0.0718
  225ccc     H4 5045   8.885  10.042   7.570 -2.2073  2.2274 -0.5594
  225ccc     C3 5046   8.902   9.846   7.487 -0.1907 -0.3160  0.4315
  225ccc     H5 5047   8.971   9.802   7.560  1.9794  0.0445 -1.2732
  225ccc     H6 5048   8.955   9.888   7.400  0.2788 -0.1046  0.8110
  225ccc     N1 5049   8.664  10.032   7.749 -0.0885  0.6086  1.1555
  225ccc     H7 5050   8.572  10.054   7.707 -0.6147  1.4641  2.6811
  225ccc     H8 5051   8.645  10.011   7.848 -1.1477  1.7636  1.2281
  225ccc     O1 5052   8.802   9.745   7.451  0.4427 -0.2184 -0.3092
  225ccc    H17 5053   8.716  10.121   7.745  0.6418  0.1474 -1.4912
  226ccc     C1 5054   8.422   8.932   4.425 -0.4632  0.1847 -0.5930
  226ccc     H1 5055   8.476   8.976   4.341  1.3397  1.9442  1.3579
  226ccc     H2 5056   8.326   8.979   4.447 -0.0473  0.2545  1.1789
  226ccc     C2 5057   8.531   8.961   4.529 -0.2963 -0.1197 -0.8088
  226ccc     H3 5058   8.624   8.908   4.503 -0.3823 -1.4972  1.4062
  226ccc     H4 5059   8.562   9.065   4.547  0.3488 -0.8884  4.1351
  226ccc     C3 5060   8.502   8.906   4.670  0.5980 -0.6480 -0.5082
  226ccc     H5 5061   8.425   8.975   4.708  1.3315  0.9396 -1.7781
  226ccc     H6 5062   8.585   8.915   4.740 -0.8691  1.0692  1.1341
  226ccc     N1 5063   8.387   8.787   4.387  0.2325 -0.2343 -0.3274
  226ccc     H7 5064   8.326   8.798   4.305 -0.0480 -1.0633 -0.2396
  226ccc     H8 5065   8.463   8.738   4.337 -1.1303  0.0289 -2.7714
  226ccc     O1 5066   8.457   8.770   4.669  0.0870 -0.1885 -0.0937
  226ccc    H17 5067   8.335   8.730   4.455 -0.3555 -0.1772 -0.7276
  227ccc     C1 5068   7.922   8.290   4.416 -0.1274  0.9503 -0.3525
  227ccc     H1 5069   7.886   8.202   4.362  0.5353  1.6831 -2.0584
  227ccc     H2 5070   8.018   8.257   4.457 -0.5002 -2.9032 -2.1140
  227ccc     C2 5071   7.821   8.321   4.522 -0.4067 -0.2821 -0.2371
  227ccc     H3 5072   7.719   8.319   4.483 -0.9903  1.9466  0.9783
  227ccc     H4 5073   7.822   8.234   4.590 -2.3341 -0.1380  0.0332
  227ccc     C3 5074   7.860   8.444   4.602 -0.5022  0.1607  0.7238
  227ccc     H5 5075   7.786   8.455   4.682  0.5559 -2.2947  2.1776
  227ccc     H6 5076   7.860   8.529   4.533 -0.5717  0.5893  1.2440
  227ccc     N1 5077   7.938   8.388   4.299 -0.0219 -0.0672 -0.0474
  227ccc     H7 5078   8.030   8.379   4.252  0.3561  1.9167  0.2250
  227ccc     H8 5079   7.874   8.374   4.219  0.7185 -0.0875 -0.6470
  227ccc     O1 5080   7.986   8.428   4.663 -0.6695 -0.2292 -0.3706
  227ccc    H17 5081   7.922   8.484   4.334  0.1828  0.2801 -0.8757
  228ccc     C1 5082   8.489   9.905   6.416  0.4010 -0.2227  0.4194
  228ccc     H1 5083   8.397   9.934   6.365  1.6325  0.6655 -1.3967
  228ccc     H2 5084   8.542   9.834   6.353  1.3493 -0.1771  1.1409
  228ccc     C2 5085   8.472   9.839   6.556 -0.0592 -0.6428 -0.7377
  228ccc     H3 5086   8.567   9.805   6.597 -0.0156  1.5186  1.1792
  228ccc     H4 5087   8.429   9.918   6.619  0.9284 -0.8838  0.2630
  228ccc     C3 5088   8.378   9.722   6.535  0.4957  0.3418  0.4310
  228ccc     H5 5089   8.283   9.751   6.487  0.5411 -1.7904 -1.1131
  228ccc     H6 5090   8.359   9.681   6.635  0.5232 -1.0161 -0.1020
  228ccc     N1 5091   8.555  10.036   6.422 -0.3242 -0.3964  0.6632
  228ccc     H7 5092   8.566  10.080   6.330  0.3589  1.6529  1.6714
  228ccc     H8 5093   8.497  10.107   6.469 -0.5205  1.1817 -1.8066
  228ccc     O1 5094   8.441   9.631   6.444 -0.3141 -0.0048  0.0078
  228ccc    H17 5095   8.650  10.024   6.461  1.2502  2.4676 -1.8894
  229ccc     C1 5096   8.723   9.294   5.689  1.4021  0.2614  0.1350
  229ccc     H1 5097   8.630   9.257   5.734  1.6677 -0.7643 -0.1431
  229ccc     H2 5098   8.721   9.285   5.580 -0.0514  0.6121  0.1049
  229ccc     C2 5099   8.836   9.203   5.733 -0.1131 -0.4762 -0.2930
  229ccc     H3 5100   8.811   9.100   5.705 -0.8166 -1.2227  2.7392
  229ccc     H4 5101   8.931   9.222   5.681  0.7555 -0.9035  1.0842
  229ccc     C3 5102   8.864   9.213   5.890 -0.0922 -0.2536 -0.3009
  229ccc     H5 5103   8.885   9.316   5.920  2.9762 -1.1946  1.2944
  229ccc     H6 5104   8.943   9.148   5.931 -2.0961 -1.0203  2.6662
  229ccc     N1 5105   8.743   9.440   5.716  0.9095  0.1520  0.4968
  229ccc     H7 5106   8.656   9.491   5.695 -0.4087 -1.1481  2.5146
  229ccc     H8 5107   8.759   9.458   5.816 -1.3467 -3.2485  1.6418
  229ccc     O1 5108   8.743   9.173   5.949  0.3023 -0.2145  0.0646
  229ccc    H17 5109   8.814   9.487   5.657 -0.1924  0.8165 -0.3523
  230ccc     C1 5110   7.697   9.010   4.317  0.2069 -0.2550  0.5189
  230ccc     H1 5111   7.641   9.000   4.410 -1.4220 -1.3386 -0.5227
  230ccc     H2 5112   7.768   8.928   4.301 -0.6391 -0.5596 -2.2260
  230ccc     C2 5113   7.771   9.145   4.322 -0.1938 -0.3116  0.4171
  230ccc     H3 5114   7.852   9.158   4.249 -0.6650 -1.1423 -0.2693
  230ccc     H4 5115   7.689   9.218   4.321  1.4950  1.7487  2.3700
  230ccc     C3 5116   7.836   9.163   4.465  0.8038 -0.2207  0.2062
  230ccc     H5 5117   7.765   9.144   4.546  2.0575 -0.4278  1.2995
  230ccc     H6 5118   7.868   9.267   4.476 -0.1984  0.1099  0.1005
  230ccc     N1 5119   7.588   9.003   4.212  0.3654 -0.6890 -0.0286
  230ccc     H7 5120   7.623   9.008   4.115 -0.0177 -0.8266 -0.1761
  230ccc     H8 5121   7.544   8.912   4.229  0.1521 -0.1180  3.0148
  230ccc     O1 5122   7.943   9.073   4.487 -0.4420 -0.2855 -0.1992
  230ccc    H17 5123   7.516   9.076   4.226  1.3884  0.7821 -1.9010
  231ccc     C1 5124   7.703   8.270   5.312  0.0730  0.6799 -0.1171
  231ccc     H1 5125   7.604   8.289   5.353 -0.1233 -0.8192  0.1516
  231ccc     H2 5126   7.770   8.268   5.398 -1.1960 -0.3903  0.8800
  231ccc     C2 5127   7.746   8.379   5.209 -0.2722  0.5650 -0.0106
  231ccc     H3 5128   7.850   8.366   5.176 -0.1838  1.2437 -0.0130
  231ccc     H4 5129   7.686   8.366   5.118 -3.3595  0.5822  1.8604
  231ccc     C3 5130   7.727   8.524   5.267 -0.5147  0.8365 -0.2423
  231ccc     H5 5131   7.788   8.547   5.355 -0.6484  1.7926 -0.3840
  231ccc     H6 5132   7.626   8.551   5.298 -0.9397  0.2118 -1.0500
  231ccc     N1 5133   7.708   8.135   5.248  0.5723  0.0206 -0.2337
  231ccc     H7 5134   7.719   8.066   5.324 -0.1066  1.8170  1.5882
  231ccc     H8 5135   7.620   8.118   5.197  1.5302 -0.8296 -1.6963
  231ccc     O1 5136   7.781   8.629   5.176 -0.6348  0.3746 -0.1250
  231ccc    H17 5137   7.788   8.115   5.186  0.1071  1.8833 -1.5041
  232ccc     C1 5138   9.048   8.956   4.728 -0.1599 -0.1267  0.2486
  232ccc     H1 5139   9.107   9.048   4.719  0.0932 -0.4462 -2.0913
  232ccc     H2 5140   8.995   8.959   4.823 -1.8821 -0.0552 -0.6731
  232ccc     C2 5141   9.126   8.826   4.704  0.0621  0.1726  0.2144
  232ccc     H3 5142   9.062   8.737   4.693 -1.1312  0.9082  1.0596
  232ccc     H4 5143   9.183   8.828   4.610 -0.2441  0.4743  0.0325
  232ccc     C3 5144   9.217   8.789   4.818 -0.5598  0.5488  0.1962
  232ccc     H5 5145   9.282   8.871   4.850  1.4240 -0.2761 -1.5094
  232ccc     H6 5146   9.287   8.707   4.798 -1.2647  0.5480 -2.6946
  232ccc     N1 5147   8.942   8.965   4.624 -0.1194  0.1406  0.2564
  232ccc     H7 5148   8.996   8.973   4.537  2.9862 -2.8888  1.6994
  232ccc     H8 5149   8.888   8.877   4.614 -0.8635  0.7175 -1.1172
  232ccc     O1 5150   9.122   8.750   4.926  0.2556  0.2162  0.1476
  232ccc    H17 5151   8.882   9.047   4.640 -2.2341 -1.2746 -0.0139
  233ccc     C1 5152   9.949   9.341   5.101  0.3297  0.4159 -0.2406
  233ccc     H1 5153   9.989   9.362   5.200 -0.8367  1.0574  0.1110
  233ccc     H2 5154   9.903   9.435   5.069  3.5145  1.7096 -1.4305
  233ccc     C2 5155   9.838   9.232   5.117 -0.6852 -0.6719  0.2054
  233ccc     H3 5156   9.848   9.152   5.042 -0.5193  0.2507 -0.7875
  233ccc     H4 5157   9.851   9.188   5.216  0.4045 -0.2575  0.2525
  233ccc     C3 5158   9.702   9.302   5.113 -0.2342 -0.5701 -0.0463
  233ccc     H5 5159   9.688   9.354   5.017  0.5730 -3.1165 -1.6643
  233ccc     H6 5160   9.685   9.369   5.197  0.2306  0.8440 -1.0432
  233ccc     N1 5161  10.061   9.301   5.006  0.2780  0.5687  0.2366
  233ccc     H7 5162  10.025   9.285   4.911 -0.2514 -0.6446  0.6233
  233ccc     H8 5163  10.132   9.375   5.007  0.2425  0.6656 -1.8339
  233ccc     O1 5164   9.602   9.197   5.124 -0.4842 -0.6987 -0.2522
  233ccc    H17 5165  10.107   9.212   5.030  0.7208 -0.3553 -3.5252
  234ccc     C1 5166  10.020   8.400   4.819  0.4911  0.4098  0.2425
  234ccc     H1 5167   9.981   8.445   4.910 -1.7451  1.5551 -1.1821
  234ccc     H2 5168  10.095   8.465   4.773 -0.1895  0.5232 -0.7431
  234ccc     C2 5169   9.908   8.371   4.713 -0.1633 -0.5629 -0.2911
  234ccc     H3 5170   9.959   8.330   4.625  0.5765 -0.6156  0.1574
  234ccc     H4 5171   9.845   8.292   4.756 -2.5628  2.0287  1.3742
  234ccc     C3 5172   9.823   8.496   4.677  0.2506  0.0685  0.4576
  234ccc     H5 5173   9.745   8.459   4.609  2.9823 -1.9471 -1.7863
  234ccc     H6 5174   9.883   8.561   4.612  0.4872 -0.6401 -0.0444
  234ccc     N1 5175  10.094   8.286   4.863  0.0452  0.5474 -0.3164
  234ccc     H7 5176  10.158   8.307   4.940 -1.7878  1.5382  1.0202
  234ccc     H8 5177  10.031   8.214   4.902 -0.0461  0.7645 -0.0678
  234ccc     O1 5178   9.765   8.557   4.793 -0.2859  0.4320 -0.0476
  234ccc    H17 5179  10.143   8.235   4.787  1.0501  0.6274  0.2631
  235ccc     C1 5180   9.862   8.785   5.676 -0.3379  0.1572 -0.2529
  235ccc     H1 5181   9.886   8.680   5.697  1.8250  0.6862  0.1961
  235ccc     H2 5182   9.802   8.781   5.586  0.9683 -0.9851 -1.1158
  235ccc     C2 5183   9.988   8.873   5.647  0.3198 -0.4633 -0.8505
  235ccc     H3 5184  10.040   8.889   5.743 -0.6643 -1.8429 -0.0394
  235ccc     H4 5185  10.058   8.814   5.587  0.8669 -0.5932 -0.1101
  235ccc     C3 5186   9.956   9.006   5.573  0.1082  0.1671  1.2541
  235ccc     H5 5187  10.042   9.067   5.546 -1.5719  2.2363  0.2357
  235ccc     H6 5188   9.902   9.069   5.645  1.6114 -0.2166  2.7731
  235ccc     N1 5189   9.775   8.839   5.788  0.7748 -0.1464 -0.4097
  235ccc     H7 5190   9.747   8.938   5.782 -1.0288 -0.5239  0.9055
  235ccc     H8 5191   9.699   8.776   5.816  2.1994 -0.9230  2.1725
  235ccc     O1 5192   9.874   8.978   5.454 -0.4259 -0.0407 -0.3242
  235ccc    H17 5193   9.830   8.842   5.876 -1.0552  2.4647  0.7746
  236ccc     C1 5194   8.953   9.763   4.937 -0.2756  0.3562  0.0005
  236ccc     H1 5195   8.868   9.813   4.891 -1.5427  0.0023  1.8403
  236ccc     H2 5196   8.928   9.658   4.924 -0.1604  0.0309  2.0335
  236ccc     C2 5197   8.960   9.803   5.089 -0.3451  0.0774 -0.7941
  236ccc     H3 5198   9.041   9.746   5.135 -0.2836  0.5764 -0.2745
  236ccc     H4 5199   8.978   9.911   5.098 -0.6250  0.0078  0.7660
  236ccc     C3 5200   8.835   9.759   5.163  0.2506  0.2337 -0.2482
  236ccc     H5 5201   8.744   9.811   5.131  0.0774 -1.2916 -2.4661
  236ccc     H6 5202   8.842   9.780   5.271 -0.2027 -0.0535 -0.1637
  236ccc     N1 5203   9.076   9.795   4.851 -0.5551  0.1861 -0.5841
  236ccc     H7 5204   9.131   9.860   4.909 -1.9568  0.6169  0.3203
  236ccc     H8 5205   9.140   9.716   4.833  0.8364  0.4865  2.4407
  236ccc     O1 5206   8.809   9.617   5.142 -0.4034 -0.0473  0.1783
  236ccc    H17 5207   9.045   9.833   4.760 -1.1107 -2.7890 -1.7343
  237ccc     C1 5208   8.006   9.441   5.139 -0.1437 -0.0237  0.1385
  237ccc     H1 5209   8.009   9.549   5.119  0.2556 -0.3154 -1.5139
  237ccc     H2 5210   8.072   9.429   5.226  1.1283  0.1318 -0.7813
  237ccc     C2 5211   8.044   9.357   5.021  0.3739 -0.3936 -0.0347
  237ccc     H3 5212   8.031   9.251   5.046  1.2285 -0.5810 -0.3780
  237ccc     H4 5213   7.973   9.376   4.939  2.1747 -0.4012 -1.6722
  237ccc     C3 5214   8.186   9.381   4.967 -0.2130 -0.5775 -0.5915
  237ccc     H5 5215   8.262   9.379   5.046 -1.8643  1.4757  1.1692
  237ccc     H6 5216   8.195   9.480   4.919  2.8389  0.6073  2.0236
  237ccc     N1 5217   7.863   9.410   5.189  0.1887  0.1266 -0.5720
  237ccc     H7 5218   7.834   9.487   5.251 -0.3004 -0.1134 -0.4972
  237ccc     H8 5219   7.792   9.407   5.114  0.9795  1.4275 -1.4170
  237ccc     O1 5220   8.219   9.284   4.866 -0.3675 -0.1656  0.2424
  237ccc    H17 5221   7.864   9.325   5.248  2.4002  1.2866  1.2134
  238ccc     C1 5222   7.365   6.411   4.147  0.7131 -0.3848  0.3895
  238ccc     H1 5223   7.322   6.511   4.157  0.2233 -0.6877  1.4717
  238ccc     H2 5224   7.401   6.396   4.045 -2.2363 -0.0860 -0.7900
  238ccc     C2 5225   7.268   6.290   4.177 -0.5567 -1.0124  0.3565
  238ccc     H3 5226   7.310   6.201   4.128 -0.3604 -2.2770  2.6724
  238ccc     H4 5227   7.236   6.277   4.282 -0.9951 -1.1958  0.2045
  238ccc     C3 5228   7.136   6.315   4.094  0.2989 -0.8868 -0.2353
  238ccc     H5 5229   7.141   6.307   3.985 -0.8080 -2.1940 -0.2116
  238ccc     H6 5230   7.105   6.419   4.110  1.8382  0.0987 -2.9649
  238ccc     N1 5231   7.492   6.411   4.233 -0.5758 -0.1972 -0.0669
  238ccc     H7 5232   7.558   6.479   4.191 -0.7278 -0.2259 -0.3609
  238ccc     H8 5233   7.471   6.437   4.330 -0.1430 -0.1689  0.0202
  238ccc     O1 5234   7.040   6.225   4.143  0.4349 -0.2633  0.5830
  238ccc    H17 5235   7.535   6.318   4.233 -0.0326  0.0503  0.2954
  239ccc     C1 5236   6.454   5.585   3.956  0.0579  0.3173  0.2974
  239ccc     H1 5237   6.419   5.664   4.023 -1.3544 -0.2207  0.2171
  239ccc     H2 5238   6.436   5.491   4.009  0.5044 -1.1355 -1.9960
  239ccc     C2 5239   6.606   5.602   3.921  0.1521 -0.7454 -0.0302
  239ccc     H3 5240   6.633   5.524   3.849  1.7042  2.1782 -2.9173
  239ccc     H4 5241   6.616   5.702   3.877 -1.1442 -0.6910 -0.2610
  239ccc     C3 5242   6.687   5.600   4.046  0.7539 -0.6445  0.2171
  239ccc     H5 5243   6.794   5.607   4.021  0.7027 -1.5257 -0.2904
  239ccc     H6 5244   6.679   5.505   4.099  1.0717 -0.9152 -0.2127
  239ccc     N1 5245   6.367   5.573   3.836 -0.3606  0.3310  0.3850
  239ccc     H7 5246   6.377   5.485   3.782  0.8187 -0.5419  1.9386
  239ccc     H8 5247   6.268   5.583   3.861 -0.4237  2.2614 -0.5004
  239ccc     O1 5248   6.652   5.707   4.131  0.6020 -0.1370  0.0623
  239ccc    H17 5249   6.375   5.651   3.769  0.6672  1.3254  1.6068
  240ccc     C1 5250   6.911   7.454   4.731  0.6077  0.4805 -0.5293
  240ccc     H1 5251   6.832   7.437   4.805  1.2615 -0.6798 -0.0770
  240ccc     H2 5252   6.872   7.525   4.658 -1.4189  1.1878  1.1077
  240ccc     C2 5253   6.942   7.318   4.654 -0.9496 -0.4824  0.2464
  240ccc     H3 5254   6.849   7.281   4.610 -1.3642 -0.0460  0.7462
  240ccc     H4 5255   7.007   7.341   4.568 -1.7726 -0.7193 -0.4584
  240ccc     C3 5256   7.003   7.203   4.747  0.3279  0.1663 -0.0182
  240ccc     H5 5257   7.103   7.235   4.779  1.6859 -1.0998 -2.6099
  240ccc     H6 5258   7.018   7.112   4.688 -0.6472 -1.3634  1.9698
  240ccc     N1 5259   7.017   7.533   4.801 -0.4255  0.1205 -0.0566
  240ccc     H7 5260   7.108   7.535   4.752  1.0092 -1.1336  2.3518
  240ccc     H8 5261   6.990   7.631   4.818 -0.6653 -0.0200  0.3767
  240ccc     O1 5262   6.914   7.177   4.862  0.3846  0.1203  0.3005
  240ccc    H17 5263   7.039   7.500   4.896 -0.3697  3.3237  1.1620
  241ccc     C1 5264   6.369   7.325   5.512  0.0944 -0.1391  0.4551
  241ccc     H1 5265   6.421   7.401   5.571  0.9903  0.3091 -0.8472
  241ccc     H2 5266   6.429   7.235   5.520  1.1037  0.5486  0.8180
  241ccc     C2 5267   6.369   7.373   5.366 -0.0106  0.0503 -0.1248
  241ccc     H3 5268   6.334   7.291   5.301 -0.1744 -0.4421  0.5768
  241ccc     H4 5269   6.306   7.463   5.361  0.7121  0.5417 -0.4739
  241ccc     C3 5270   6.516   7.394   5.324  0.6203  0.4242 -0.5233
  241ccc     H5 5271   6.560   7.485   5.369  0.9430  0.3253 -0.6317
  241ccc     H6 5272   6.524   7.405   5.215 -1.6708  0.7794 -0.7024
  241ccc     N1 5273   6.233   7.295   5.567 -0.0210  0.0544 -0.0885
  241ccc     H7 5274   6.176   7.231   5.510 -1.8609  0.2322  1.4550
  241ccc     H8 5275   6.242   7.265   5.665 -1.0978  1.5104  0.4934
  241ccc     O1 5276   6.580   7.271   5.382  0.2688 -0.1992  0.3699
  241ccc    H17 5277   6.177   7.380   5.583  0.5886  0.3425  0.5636
  242ccc     C1 5278   6.764   5.639   7.368  0.6644 -0.9090  0.0259
  242ccc     H1 5279   6.820   5.681   7.452 -1.2704  0.0244  0.9491
  242ccc     H2 5280   6.832   5.581   7.307  2.7888  1.6424 -0.2185
  242ccc     C2 5281   6.711   5.746   7.274 -0.8244 -0.5219 -0.3040
  242ccc     H3 5282   6.687   5.700   7.178  1.0691 -1.6672 -0.2723
  242ccc     H4 5283   6.621   5.794   7.316 -0.3707 -0.1072  0.1999
  242ccc     C3 5284   6.814   5.854   7.246  0.0658  0.1594  0.6595
  242ccc     H5 5285   6.873   5.885   7.334 -1.9288  1.1125  1.7182
  242ccc     H6 5286   6.768   5.940   7.197  0.1975 -0.2742 -0.2377
  242ccc     N1 5287   6.668   5.546   7.436  0.2811  0.2103 -0.2308
  242ccc     H7 5288   6.627   5.473   7.376  2.3991 -0.8844 -0.4366
  242ccc     H8 5289   6.709   5.502   7.519 -0.1666 -0.6307 -0.4475
  242ccc     O1 5290   6.921   5.812   7.152  0.5467 -0.2499  0.0586
  242ccc    H17 5291   6.592   5.603   7.476 -0.9362 -0.8862 -0.8706
  243ccc     C1 5292   7.210   4.981   7.056  0.1530  0.5980 -0.5145
  243ccc     H1 5293   7.216   4.919   7.146 -0.0815  3.2512  1.4626
  243ccc     H2 5294   7.239   4.916   6.973  0.5320  0.1661 -0.0580
  243ccc     C2 5295   7.312   5.097   7.082 -0.6484  0.3374 -0.0885
  243ccc     H3 5296   7.290   5.133   7.183 -0.6137  0.1215 -0.0034
  243ccc     H4 5297   7.400   5.035   7.102 -1.3982 -0.1539  1.9714
  243ccc     C3 5298   7.330   5.200   6.967 -0.4774  0.0787  0.1688
  243ccc     H5 5299   7.366   5.153   6.875  1.7189  1.3590  0.3090
  243ccc     H6 5300   7.404   5.272   7.003  0.4920 -0.6943 -0.2284
  243ccc     N1 5301   7.064   5.019   7.046 -0.2142  0.1600 -0.2075
  243ccc     H7 5302   7.041   5.062   6.955 -0.8167 -1.4051 -0.8266
  243ccc     H8 5303   7.009   4.932   7.051 -0.1005  0.0693 -0.5322
  243ccc     O1 5304   7.204   5.262   6.958  0.1544 -0.0810  0.1159
  243ccc    H17 5305   7.040   5.082   7.125  0.5214  0.1313  0.0419
  244ccc     C1 5306   8.726   4.909   6.733  0.1713 -0.0868  0.2474
  244ccc     H1 5307   8.653   4.978   6.691  1.9407  1.7060 -0.0483
  244ccc     H2 5308   8.674   4.814   6.744 -1.5885  0.5215 -2.1436
  244ccc     C2 5309   8.778   4.945   6.877  0.1006 -0.4939  0.3380
  244ccc     H3 5310   8.775   4.859   6.946 -0.0403  0.8203  2.0364
  244ccc     H4 5311   8.885   4.965   6.873  0.4693 -1.7001  2.3081
  244ccc     C3 5312   8.704   5.069   6.926  0.0595  0.2236 -0.7596
  244ccc     H5 5313   8.743   5.162   6.882  1.5592 -0.8302 -1.7467
  244ccc     H6 5314   8.723   5.083   7.033  0.1147  1.4000 -0.9082
  244ccc     N1 5315   8.832   4.884   6.630 -0.7293 -0.1536  0.6220
  244ccc     H7 5316   8.884   4.969   6.603 -2.6647 -0.3129 -4.8730
  244ccc     H8 5317   8.891   4.808   6.665 -2.6823 -1.6996  0.7348
  244ccc     O1 5318   8.562   5.050   6.908  0.0161 -0.1152 -0.1896
  244ccc    H17 5319   8.789   4.847   6.544  2.0848  0.2403 -1.0721
  245ccc     C1 5320   7.737   4.956   6.248 -0.3032  0.4979 -0.0624
  245ccc     H1 5321   7.655   5.015   6.207 -0.6670  0.3723  0.4702
  245ccc     H2 5322   7.773   4.888   6.170  1.9218 -0.3385  1.5905
  245ccc     C2 5323   7.703   4.891   6.385  0.4373 -0.2232 -0.2311
  245ccc     H3 5324   7.669   4.971   6.452 -1.1103 -0.8774 -0.2008
  245ccc     H4 5325   7.611   4.832   6.372 -1.2100  2.4338 -1.6593
  245ccc     C3 5326   7.813   4.809   6.449  0.1059  0.5880 -0.4958
  245ccc     H5 5327   7.864   4.748   6.373  0.7633  1.3626 -0.6944
  245ccc     H6 5328   7.765   4.754   6.531  0.2657  3.2789  1.5518
  245ccc     N1 5329   7.858   5.047   6.251  0.7063  0.2738  0.1515
  245ccc     H7 5330   7.830   5.145   6.237  0.3090  0.3370  1.3106
  245ccc     H8 5331   7.922   5.039   6.331 -1.2428 -1.2870  1.6588
  245ccc     O1 5332   7.909   4.894   6.507 -1.2125  0.1381  0.2530
  245ccc    H17 5333   7.912   5.022   6.167 -1.5168 -0.5856 -1.1123
  246ccc     C1 5334   6.460   5.929   2.768  0.5467  0.5077 -0.2104
  246ccc     H1 5335   6.459   5.959   2.873 -0.3659 -2.0920  0.6231
  246ccc     H2 5336   6.557   5.891   2.736 -0.0937 -0.1002 -1.5006
  246ccc     C2 5337   6.423   6.048   2.678 -0.3622  0.3779 -0.4682
  246ccc     H3 5338   6.426   6.017   2.573 -1.9606  0.2097 -0.4839
  246ccc     H4 5339   6.319   6.069   2.706  0.1974  2.1113  0.4791
  246ccc     C3 5340   6.513   6.172   2.701 -0.2896  0.0162  0.2741
  246ccc     H5 5341   6.485   6.262   2.644 -2.6018 -1.0167 -0.3383
  246ccc     H6 5342   6.614   6.144   2.668 -0.6974  0.7871 -1.7986
  246ccc     N1 5343   6.361   5.813   2.763  0.2202  0.1333 -0.0860
  246ccc     H7 5344   6.266   5.844   2.786  0.4672  0.5353  0.4016
  246ccc     H8 5345   6.354   5.768   2.670 -2.2157  0.3344 -0.0537
  246ccc     O1 5346   6.504   6.200   2.845  0.6513  0.7585  0.4742
  246ccc    H17 5347   6.383   5.738   2.830 -1.9095  1.7705  2.6786
  247ccc     C1 5348   6.145   5.686   3.419 -0.0489 -0.0756 -0.2963
  247ccc     H1 5349   6.126   5.612   3.497  1.4034 -1.3929 -1.1402
  247ccc     H2 5350   6.251   5.712   3.413  0.0013  0.4505  1.8776
  247ccc     C2 5351   6.066   5.815   3.450 -0.8753  0.3966 -1.0636
  247ccc     H3 5352   5.969   5.776   3.483  0.4620 -0.2220  2.5071
  247ccc     H4 5353   6.099   5.854   3.546  0.1243 -0.0626 -1.2071
  247ccc     C3 5354   6.055   5.916   3.337 -0.0670 -0.4653  0.1016
  247ccc     H5 5355   5.979   5.991   3.361 -0.6819 -0.7335 -0.9366
  247ccc     H6 5356   6.029   5.871   3.240 -2.0305  1.4650 -0.3465
  247ccc     N1 5357   6.098   5.619   3.296 -0.0411 -0.3017 -0.2746
  247ccc     H7 5358   6.163   5.541   3.276 -0.2488 -0.9844  1.5200
  247ccc     H8 5359   6.000   5.587   3.297 -0.6945  1.1966 -3.4989
  247ccc     O1 5360   6.181   5.983   3.318  0.2422  0.2137 -0.3370
  247ccc    H17 5361   6.123   5.682   3.219  2.3759 -1.1646 -0.2835
  248ccc     C1 5362   5.487   6.595   3.981  0.7396  0.0717  0.3996
  248ccc     H1 5363   5.533   6.687   3.945 -0.4349  0.3430 -0.4556
  248ccc     H2 5364   5.552   6.541   4.050  0.5125  1.3995  1.6916
  248ccc     C2 5365   5.438   6.505   3.860 -0.3831  0.2063 -0.1387
  248ccc     H3 5366   5.354   6.446   3.897 -0.1139  0.4692  0.9366
  248ccc     H4 5367   5.395   6.567   3.781 -1.9240  0.5838  0.9568
  248ccc     C3 5368   5.556   6.413   3.807 -0.5515 -0.1327 -0.0529
  248ccc     H5 5369   5.536   6.369   3.709  0.7288  1.5001 -1.0886
  248ccc     H6 5370   5.571   6.332   3.880  1.0222 -0.5938 -0.8481
  248ccc     N1 5371   5.375   6.646   4.058  0.6404  0.0248 -0.0320
  248ccc     H7 5372   5.396   6.689   4.149  1.2788  0.5203 -0.4075
  248ccc     H8 5373   5.325   6.717   4.002 -0.1839 -0.1389  0.4619
  248ccc     O1 5374   5.674   6.493   3.796 -0.9798  0.4157  0.4357
  248ccc    H17 5375   5.317   6.564   4.081  0.2646  0.2701 -0.0933
  249ccc     C1 5376   6.087   6.936   3.073  0.9156  0.2750  0.2257
  249ccc     H1 5377   6.034   6.872   3.143  1.1563  0.6508  0.7542
  249ccc     H2 5378   6.137   6.865   3.006  0.3653  1.0955 -1.1082
  249ccc     C2 5379   6.195   7.002   3.148  0.3042  0.6368 -0.1117
  249ccc     H3 5380   6.260   7.054   3.077 -0.0875 -0.6413 -1.4590
  249ccc     H4 5381   6.165   7.063   3.234 -0.2877 -0.5533  0.5473
  249ccc     C3 5382   6.289   6.898   3.207 -0.8385 -0.1549 -0.1012
  249ccc     H5 5383   6.379   6.946   3.247  0.3853 -0.8070 -1.9629
  249ccc     H6 5384   6.324   6.837   3.122  0.5045  1.6660 -0.9220
  249ccc     N1 5385   5.987   7.020   2.998  0.2400  0.0296  0.3445
  249ccc     H7 5386   5.938   6.971   2.921  0.9482 -0.0782 -0.0400
  249ccc     H8 5387   5.920   7.067   3.061  1.6009  4.4569 -1.1338
  249ccc     O1 5388   6.215   6.814   3.293 -0.0021  0.1579  0.4198
  249ccc    H17 5389   6.036   7.100   2.956  1.6350 -1.9789 -2.1506
  250ccc     C1 5390   8.650   6.833   5.417 -0.4455  0.0540  0.5291
  250ccc     H1 5391   8.624   6.849   5.522  2.8545 -2.4217  1.9222
  250ccc     H2 5392   8.641   6.926   5.361  2.0545 -1.6255 -3.0011
  250ccc     C2 5393   8.569   6.721   5.350  0.3301 -0.5386  0.0361
  250ccc     H3 5394   8.495   6.766   5.282  2.6048  1.1282 -1.4870
  250ccc     H4 5395   8.636   6.663   5.285 -2.0331 -0.8013 -2.3589
  250ccc     C3 5396   8.509   6.624   5.451 -0.7755 -0.0678  0.0882
  250ccc     H5 5397   8.592   6.583   5.510 -1.2541 -0.2716  0.6272
  250ccc     H6 5398   8.455   6.545   5.398  1.0703 -0.6172 -1.0565
  250ccc     N1 5399   8.801   6.818   5.412  0.0496 -0.0863  0.4457
  250ccc     H7 5400   8.840   6.747   5.348 -2.0149  1.9073 -3.3816
  250ccc     H8 5401   8.848   6.907   5.389  0.5229 -0.3487  0.3678
  250ccc     O1 5402   8.424   6.705   5.537 -0.2550 -0.3860  0.0459
  250ccc    H17 5403   8.833   6.796   5.508  0.8100 -1.0192  0.0012
  251ccc     C1 5404   8.849   6.159   5.781 -0.1362  0.0128 -0.8742
  251ccc     H1 5405   8.808   6.060   5.764 -1.0906  0.2239  0.1045
  251ccc     H2 5406   8.933   6.152   5.852 -0.6747 -0.8992 -0.3086
  251ccc     C2 5407   8.744   6.248   5.855 -0.8344 -0.0816 -0.1576
  251ccc     H3 5408   8.727   6.199   5.951 -1.5728 -1.0998 -0.7831
  251ccc     H4 5409   8.785   6.350   5.860 -1.2710  0.4526 -4.0165
  251ccc     C3 5410   8.598   6.246   5.794  0.7771 -0.1336  0.1772
  251ccc     H5 5411   8.567   6.141   5.790 -0.6835  0.3156 -1.0631
  251ccc     H6 5412   8.597   6.281   5.690  2.3470 -0.6378 -0.0445
  251ccc     N1 5413   8.904   6.211   5.655 -0.4499 -0.5675  0.3074
  251ccc     H7 5414   8.920   6.313   5.663 -3.5573  0.0928 -0.5222
  251ccc     H8 5415   8.995   6.170   5.629  0.8075  1.8915  0.4278
  251ccc     O1 5416   8.514   6.321   5.890  0.3926  0.2372  0.3087
  251ccc    H17 5417   8.847   6.198   5.571  0.9553 -0.1053 -0.7707
  252ccc     C1 5418   7.889   4.873   5.002 -0.0198  0.6457 -0.4560
  252ccc     H1 5419   7.940   4.948   5.062 -0.0878  1.3736 -1.2901
  252ccc     H2 5420   7.944   4.839   4.914 -0.2393 -2.1866  0.3853
  252ccc     C2 5421   7.752   4.940   4.953  0.2724 -0.4499 -0.3342
  252ccc     H3 5422   7.696   4.864   4.897  1.0442 -0.7026 -0.7798
  252ccc     H4 5423   7.684   4.973   5.032  0.0850 -0.1302 -0.6271
  252ccc     C3 5424   7.788   5.064   4.855 -0.1250  0.1698  0.0800
  252ccc     H5 5425   7.842   5.143   4.909 -1.8984  3.3493 -2.4508
  252ccc     H6 5426   7.696   5.113   4.822 -0.5725 -0.0819  0.9218
  252ccc     N1 5427   7.870   4.765   5.102 -0.0730  0.2417  0.0159
  252ccc     H7 5428   7.803   4.792   5.175  0.9409  0.3110  0.9475
  252ccc     H8 5429   7.845   4.671   5.069  1.4875  0.2000 -1.2220
  252ccc     O1 5430   7.859   5.011   4.738 -0.6930 -0.3318  0.2673
  252ccc    H17 5431   7.953   4.760   5.162  0.1114  0.7111 -0.1900
  253ccc     C1 5432   8.069   4.985   3.899  0.2331  0.4247 -0.3471
  253ccc     H1 5433   8.129   4.942   3.818  2.7676 -0.6078  1.9371
  253ccc     H2 5434   7.963   4.979   3.874  0.0137  1.0009  0.4221
  253ccc     C2 5435   8.102   5.140   3.906 -0.1918 -0.6295  0.1551
  253ccc     H3 5436   8.210   5.155   3.920 -0.3849  0.7479  0.2891
  253ccc     H4 5437   8.074   5.188   3.812  1.8163 -1.9774 -1.2221
  253ccc     C3 5438   8.023   5.215   4.012  0.1129 -0.1746 -0.2753
  253ccc     H5 5439   7.916   5.191   4.009 -0.1066  0.8211 -0.5854
  253ccc     H6 5440   8.025   5.324   4.001  0.5901 -0.3199 -1.8306
  253ccc     N1 5441   8.105   4.907   4.022  0.4816 -0.2361  0.1735
  253ccc     H7 5442   8.079   4.948   4.113  1.1142  2.0715 -0.5980
  253ccc     H8 5443   8.072   4.810   4.020  0.3708 -0.2013  0.2734
  253ccc     O1 5444   8.072   5.181   4.139 -0.0135  0.3530 -0.0590
  253ccc    H17 5445   8.208   4.904   4.021  0.5614  0.8162  1.7184
  254SOL     OW 5446   6.490  11.067  10.721  0.2637  0.6830 -0.0171
  254SOL    HW1 5447   6.509  10.974  10.735 -0.3869  0.3734 -1.0415
  254SOL    HW2 5448   6.545  11.113  10.785  1.3051 -0.3492 -0.1375
  255SOL     OW 5449   0.564   7.419   1.568  0.2891 -0.0773  0.3158
  255SOL    HW1 5450   0.536   7.497   1.520  1.1845 -0.6793 -1.2921
  255SOL    HW2 5451   0.513   7.420   1.649 -0.9238  1.2798 -0.4200
  256SOL     OW 5452   0.291   4.721  10.858 -0.3208 -0.7508 -0.4711
  256SOL    HW1 5453   0.318   4.811  10.874 -0.3367 -0.7735 -0.3168
  256SOL    HW2 5454   0.251   4.692  10.940 -0.3536 -0.8839 -0.5329
  257SOL     OW 5455   3.506   2.236   9.051  0.2150  0.5004 -0.4368
  257SOL    HW1 5456   3.591   2.193   9.036 -0.1091 -0.1156 -0.5518
  257SOL    HW2 5457   3.444   2.163   9.057 -0.1071  0.8605  0.9762
  258SOL     OW 5458   9.329   0.369   7.062  0.1290 -0.1942 -0.0186
  258SOL    HW1 5459   9.317   0.459   7.032  0.6964 -0.3462 -0.7416
  258SOL    HW2 5460   9.255   0.353   7.121  0.1383  0.8064  0.2827
  259SOL     OW 5461   1.303   3.990   7.010  0.0927 -0.0201  0.2007
  259SOL    HW1 5462   1.342   3.924   7.066 -0.6006 -0.1315  0.5649
  259SOL    HW2 5463   1.215   4.004   7.046 -0.0277  0.5813 -0.2953
  260SOL     OW 5464  10.880   5.173   5.613  0.3434  0.3999 -0.4144
  260SOL    HW1 5465  10.930   5.190   5.693 -1.0102 -0.9247  0.7678
  260SOL    HW2 5466  10.897   5.250   5.558  1.2954  1.3618  1.1375
  261SOL     OW 5467   1.403   5.113  10.011 -0.3282  0.3465  0.1103
  261SOL    HW1 5468   1.417   5.207   9.996  1.0827  0.5375  2.1777
  261SOL    HW2 5469   1.309   5.106  10.027 -0.5555  1.2960 -0.6782
  262SOL     OW 5470   5.739  11.513   6.181 -0.1119 -0.0504 -0.1947
  262SOL    HW1 5471   5.649  11.522   6.213 -0.0722 -0.1280 -0.0624
  262SOL    HW2 5472   5.794  11.535   6.256 -0.0189  0.0522 -0.2913
  263SOL     OW 5473   2.147   4.510   3.213 -0.1904  0.5531 -0.1611
  263SOL    HW1 5474   2.084   4.469   3.154 -0.1802 -0.2545  0.3739
  263SOL    HW2 5475   2.098   4.579   3.258 -0.0363  1.6321 -1.5662
  264SOL     OW 5476   9.839   8.296   6.368 -0.0623  0.6367  0.1093
  264SOL    HW1 5477   9.900   8.362   6.399 -0.0107  1.4627 -1.6522
  264SOL    HW2 5478   9.819   8.321   6.278 -1.9579 -0.3621  0.1826
  265SOL     OW 5479   1.919  11.381   5.873  0.0408 -0.3715  0.2951
  265SOL    HW1 5480   1.978  11.345   5.807 -1.1568 -2.2889  0.1897
  265SOL    HW2 5481   1.852  11.427   5.822  0.9733  1.1127  0.3750
  266SOL     OW 5482   6.301   8.548   0.857  0.0519  0.0048 -0.6676
  266SOL    HW1 5483   6.287   8.567   0.950 -1.1133 -0.8311 -0.6509
  266SOL    HW2 5484   6.280   8.630   0.812  2.6909  1.1041 -0.0954
  267SOL     OW 5485   7.103  10.449   0.772  0.0927 -0.0299 -0.2945
  267SOL    HW1 5486   7.098  10.368   0.721 -1.6629 -0.9017  1.1563
  267SOL    HW2 5487   7.065  10.516   0.714  1.1327 -0.3009 -1.3313
  268SOL     OW 5488   7.643   7.827   9.869 -0.0356  0.1202  0.1410
  268SOL    HW1 5489   7.645   7.867   9.955 -0.4388  0.9394 -0.2190
  268SOL    HW2 5490   7.683   7.741   9.881  0.1631  0.3380  1.0789
  269SOL     OW 5491   1.931   9.990   4.230  0.2339  0.3365 -0.6503
  269SOL    HW1 5492   1.943  10.052   4.158 -0.7818 -0.1302 -1.2424
  269SOL    HW2 5493   1.855   9.938   4.205 -0.4613  0.4935  1.0018
  270SOL     OW 5494   8.096   3.293   2.135 -0.4229  0.0556  0.2823
  270SOL    HW1 5495   8.174   3.242   2.158 -1.2098 -0.6692  1.4196
  270SOL    HW2 5496   8.060   3.248   2.059 -1.1210 -1.1317  1.2887
  271SOL     OW 5497   7.081   7.738  11.619 -0.0467  0.0674  0.3607
  271SOL    HW1 5498   7.049   7.806  11.560 -1.3138 -1.3479 -0.6718
  271SOL    HW2 5499   7.160   7.775  11.657 -1.2513  2.5320  0.6835
  272SOL     OW 5500   8.346   7.343   0.623  0.2309 -0.8922  0.1056
  272SOL    HW1 5501   8.305   7.264   0.589  1.0091 -1.5538  0.6588
  272SOL    HW2 5502   8.314   7.349   0.713  0.1110 -0.5325  0.0394
  273SOL     OW 5503   5.428   5.103  10.780 -0.2633 -0.0694  0.0972
  273SOL    HW1 5504   5.349   5.079  10.828 -0.9540  0.6277 -0.6507
  273SOL    HW2 5505   5.497   5.107  10.847 -1.1530  0.6814  1.0086
  274SOL     OW 5506  11.919   3.017   1.197 -0.2141  0.0104 -0.9077
  274SOL    HW1 5507  11.852   2.999   1.262 -3.6172  2.2622 -3.4259
  274SOL    HW2 5508  11.933   2.934   1.152 -2.9293 -0.1858 -1.5638
  275SOL     OW 5509  11.330   1.895  11.735  0.7045 -0.0834  0.4404
  275SOL    HW1 5510  11.349   1.823  11.795  0.6049  1.4746  2.4511
  275SOL    HW2 5511  11.395   1.886  11.665 -0.9799 -3.6611 -0.9233
  276SOL     OW 5512  11.108   3.370  10.696 -0.1978 -0.1473  0.3924
  276SOL    HW1 5513  11.104   3.416  10.780 -1.6317 -2.6257  1.8287
  276SOL    HW2 5514  11.131   3.437  10.632 -0.2476  2.0909  2.5841
  277SOL     OW 5515   7.600   4.368   3.012  0.1023  0.3597 -0.1602
  277SOL    HW1 5516   7.598   4.363   2.917 -0.2513  0.5043 -0.1605
  277SOL    HW2 5517   7.509   4.354   3.039  0.4785 -1.5749  0.2541
  278SOL     OW 5518  11.748   5.428   1.647  0.1333  0.9257  0.3401
  278SOL    HW1 5519  11.715   5.374   1.719  0.3482  2.4409  1.6213
  278SOL    HW2 5520  11.810   5.372   1.601 -0.0424 -0.0890  1.3053
  279SOL     OW 5521  10.321   7.535   2.848 -0.3656  0.0358  0.2914
  279SOL    HW1 5522  10.320   7.445   2.881 -1.1827  0.0460  0.3027
  279SOL    HW2 5523  10.361   7.585   2.919  0.6728 -0.4029  0.0396
  280SOL     OW 5524   8.123  11.629   7.035 -0.1023  0.5002  0.4690
  280SOL    HW1 5525   8.146  11.722   7.025  0.3257  0.2035 -1.6696
  280SOL    HW2 5526   8.199  11.582   7.002 -1.6204 -0.5588 -1.7614
  281SOL     OW 5527  10.587   0.645   5.005  0.8072 -0.2036 -0.3768
  281SOL    HW1 5528  10.610   0.590   5.080  3.0130 -0.2387 -1.0085
  281SOL    HW2 5529  10.560   0.729   5.043  2.1490 -0.1385  0.4609
  282SOL     OW 5530   1.118  11.620   8.864  0.2826 -0.4528  0.5433
  282SOL    HW1 5531   1.038  11.645   8.909  0.5357 -0.5426  1.0451
  282SOL    HW2 5532   1.089  11.595   8.776 -0.3851 -1.5122  1.0450
  283SOL     OW 5533   3.413   0.855   8.926  0.4515  0.0713 -0.0258
  283SOL    HW1 5534   3.324   0.821   8.913  0.5120  0.0813 -0.4580
  283SOL    HW2 5535   3.399   0.941   8.965  0.2857 -0.1823  0.4891
  284SOL     OW 5536  10.597   2.926   6.472 -0.7491 -0.2870 -0.1237
  284SOL    HW1 5537  10.587   2.860   6.404 -1.4385 -0.0897 -0.2209
  284SOL    HW2 5538  10.507   2.946   6.499 -0.4699 -0.9326  1.3976
  285SOL     OW 5539  10.384   3.927   6.590  0.2910 -0.4237 -0.2248
  285SOL    HW1 5540  10.308   3.894   6.638  0.1528  0.6165  0.2987
  285SOL    HW2 5541  10.457   3.870   6.618  0.1728  0.0244  1.0754
  286SOL     OW 5542   8.073   2.195   8.152 -0.2011 -0.5385  0.2603
  286SOL    HW1 5543   7.999   2.232   8.199 -0.1154  0.0770 -0.0673
  286SOL    HW2 5544   8.121   2.272   8.119 -0.5657 -0.9464 -1.2980
  287SOL     OW 5545   7.693  10.998   4.007  0.2888  0.2060  0.2086
  287SOL    HW1 5546   7.627  10.930   4.018  1.8128 -1.6462 -1.3239
  287SOL    HW2 5547   7.677  11.033   3.919 -0.9155  2.4379  1.2275
  288SOL     OW 5548   3.770   7.793   3.897  0.0923 -0.3644 -0.0462
  288SOL    HW1 5549   3.802   7.841   3.820 -0.5575  0.5188  0.2102
  288SOL    HW2 5550   3.754   7.704   3.865  0.6233 -0.2308 -0.7173
  289SOL     OW 5551  10.438  10.735   2.191 -0.7966 -0.4682 -0.0125
  289SOL    HW1 5552  10.368  10.767   2.134 -1.1492 -0.3670  0.4647
  289SOL    HW2 5553  10.396  10.666   2.244 -0.0284 -1.8027 -1.0803
  290SOL     OW 5554   5.044   2.130   0.831  0.1194 -0.1600  0.7066
  290SOL    HW1 5555   4.969   2.075   0.810  1.1162 -1.9147  1.4553
  290SOL    HW2 5556   5.068   2.172   0.749 -1.6212  0.4120  0.4495
  291SOL     OW 5557   3.937   6.142   2.490 -0.0899  0.4279  0.0003
  291SOL    HW1 5558   3.984   6.097   2.419 -2.2629 -1.6482 -0.2796
  291SOL    HW2 5559   3.956   6.089   2.568 -0.2635  0.8263  0.3123
  292SOL     OW 5560   9.909   2.842   8.008  0.2548  0.3460  0.2346
  292SOL    HW1 5561   9.991   2.821   8.052  0.3994  1.0086  0.2795
  292SOL    HW2 5562   9.893   2.934   8.028 -2.0998 -0.4861  2.8683
  293SOL     OW 5563   2.732   7.129   4.962 -0.0860  0.0503 -0.5827
  293SOL    HW1 5564   2.689   7.167   5.038  0.0213 -0.3035 -0.3446
  293SOL    HW2 5565   2.772   7.203   4.918  1.4756  0.0493  0.7372
  294SOL     OW 5566   1.954   8.908  11.282 -0.3281 -0.4064 -0.4224
  294SOL    HW1 5567   1.890   8.969  11.318 -0.5892 -1.1895  0.4997
  294SOL    HW2 5568   1.901   8.843  11.235 -0.2494 -1.0923  0.3973
  295SOL     OW 5569   2.549   2.604   1.700  0.0909 -0.1401  0.5447
  295SOL    HW1 5570   2.530   2.676   1.640  0.3756  0.0519  0.6838
  295SOL    HW2 5571   2.644   2.602   1.706  0.1277 -1.1856 -0.2514
  296SOL     OW 5572  10.477   7.825   6.454  0.5342  0.3441 -0.0081
  296SOL    HW1 5573  10.560   7.815   6.408 -0.3137 -0.8016 -1.3648
  296SOL    HW2 5574  10.491   7.899   6.513  2.6223 -0.0692  0.0826
  297SOL     OW 5575   0.239   8.896   0.855 -0.0692 -0.3909  0.1131
  297SOL    HW1 5576   0.270   8.808   0.876 -0.7534 -0.4789  0.7955
  297SOL    HW2 5577   0.246   8.945   0.937  0.9379  0.3968 -0.4213
  298SOL     OW 5578   4.991   0.888   3.642 -0.3492 -0.2171  0.5623
  298SOL    HW1 5579   4.941   0.857   3.717 -1.9530  0.2663 -0.2730
  298SOL    HW2 5580   4.954   0.843   3.566  1.1310 -0.5765 -0.0008
  299SOL     OW 5581  10.899   6.277  10.735  0.0266 -0.2590 -0.7792
  299SOL    HW1 5582  10.820   6.236  10.702 -0.9966  1.4188 -0.5311
  299SOL    HW2 5583  10.937   6.212  10.795 -1.9247 -0.5718  0.1924
  300SOL     OW 5584  10.323   1.391  11.163 -0.4277 -0.2628 -0.3435
  300SOL    HW1 5585  10.314   1.317  11.223 -0.7800  1.0122  1.2205
  300SOL    HW2 5586  10.377   1.357  11.091  1.4942 -1.3520  1.5147
  301SOL     OW 5587   7.725   8.034   8.001  0.2694  0.1702  0.2509
  301SOL    HW1 5588   7.790   7.963   8.003  0.7377  0.6113  1.1094
  301SOL    HW2 5589   7.662   8.010   8.069 -0.3388 -0.1210 -0.4008
  302SOL     OW 5590   4.447   2.778  11.120  0.1864 -0.4191 -0.6283
  302SOL    HW1 5591   4.441   2.873  11.132  2.0615 -0.1722 -1.2356
  302SOL    HW2 5592   4.460   2.767  11.025 -0.6505 -1.3325 -0.6456
  303SOL     OW 5593   2.318   4.989  11.316 -0.4582  0.0071 -0.0586
  303SOL    HW1 5594   2.412   4.984  11.300 -0.7129  1.7163 -2.5707
  303SOL    HW2 5595   2.305   5.074  11.357 -1.0392  0.3254 -0.8924
  304SOL     OW 5596   8.449  11.227   1.741  0.3550 -0.2076  0.7612
  304SOL    HW1 5597   8.472  11.151   1.794  2.0988  0.0699  0.4757
  304SOL    HW2 5598   8.509  11.224   1.667 -2.6609 -1.1655 -1.8883
  305SOL     OW 5599   1.237   8.964   0.483  0.4776  0.1392 -0.5130
  305SOL    HW1 5600   1.243   9.058   0.469  0.0145  0.3489  0.6249
  305SOL    HW2 5601   1.188   8.954   0.564 -0.3294 -1.1100 -1.1181
  306SOL     OW 5602  11.891   9.258   5.584  0.3814 -0.2435 -0.2632
  306SOL    HW1 5603  11.916   9.272   5.676 -0.5208  3.2274 -0.4252
  306SOL    HW2 5604  11.970   9.280   5.535  0.4797 -0.8720 -0.3983
  307SOL     OW 5605   5.020   3.590   7.814  0.1306  0.0611  0.3233
  307SOL    HW1 5606   4.964   3.637   7.876  0.0773  1.2401 -0.5966
  307SOL    HW2 5607   5.108   3.621   7.832  0.8648 -2.9677  2.8700
  308SOL     OW 5608   9.902   9.013   2.172  0.4692  0.5338  0.0606
  308SOL    HW1 5609   9.813   9.020   2.138  0.6498  2.1596 -0.1771
  308SOL    HW2 5610   9.923   9.102   2.201  2.8891  0.7911 -2.1516
  309SOL     OW 5611   5.013   7.681  10.133 -0.2123  0.0165  0.2106
  309SOL    HW1 5612   4.963   7.607  10.167 -1.0799  0.6881  0.4304
  309SOL    HW2 5613   4.952   7.755  10.136  0.3369  0.5416 -0.8947
  310SOL     OW 5614  10.408   5.814   8.264  0.5126  0.2735  0.0744
  310SOL    HW1 5615  10.481   5.762   8.299  0.7569  0.3874 -0.2598
  310SOL    HW2 5616  10.384   5.769   8.184 -0.0061  0.0490  0.3514
  311SOL     OW 5617  11.007   2.046   1.670  0.3039  0.1753 -0.5560
  311SOL    HW1 5618  10.970   2.045   1.582 -3.2208 -0.7271  0.7611
  311SOL    HW2 5619  11.036   1.956   1.685  1.1577  0.3926 -0.8556
  312SOL     OW 5620   8.749  11.200  11.709  0.1364 -0.2367 -0.3901
  312SOL    HW1 5621   8.773  11.108  11.719 -0.1962 -0.2278  0.6726
  312SOL    HW2 5622   8.679  11.200  11.644  1.5644 -0.4776 -2.0093
  313SOL     OW 5623   8.462  11.858   2.671  0.5012  0.2200  0.6738
  313SOL    HW1 5624   8.513  11.816   2.602  2.1982 -0.8881  2.4715
  313SOL    HW2 5625   8.376  11.816   2.666 -0.5129  2.2715 -2.5502
  314SOL     OW 5626  11.852   2.633  11.423  0.7979  0.3826  0.2335
  314SOL    HW1 5627  11.833   2.545  11.454  2.5211 -0.7095 -1.5588
  314SOL    HW2 5628  11.770   2.662  11.381  1.3167 -2.1445 -2.8971
  315SOL     OW 5629   3.902   5.302   5.826 -0.1645  0.2154 -0.0597
  315SOL    HW1 5630   3.996   5.319   5.829 -0.4128  1.5331  1.3609
  315SOL    HW2 5631   3.895   5.207   5.822  1.2406  0.0020  1.4452
  316SOL     OW 5632   4.065   6.424   7.931 -0.0777 -0.0258 -0.2867
  316SOL    HW1 5633   4.007   6.443   7.857 -1.4606 -0.7566  0.5470
  316SOL    HW2 5634   4.006   6.388   7.997  1.0689  0.9313  1.3044
  317SOL     OW 5635   7.668   9.413   4.968 -0.0385 -0.2227  0.4221
  317SOL    HW1 5636   7.578   9.408   4.935 -1.1474  1.9071  2.7862
  317SOL    HW2 5637   7.705   9.488   4.922  0.3242 -0.6739 -0.0334
  318SOL     OW 5638  10.332   0.905  10.105 -0.0618 -0.0087 -0.1618
  318SOL    HW1 5639  10.382   0.833  10.143  1.5588  1.1726  0.0636
  318SOL    HW2 5640  10.381   0.928  10.026 -0.7289  0.6490 -0.3895
  319SOL     OW 5641   9.753   4.402   1.867  0.4311 -0.5994 -0.0064
  319SOL    HW1 5642   9.806   4.377   1.943  0.5702 -1.6521 -0.4396
  319SOL    HW2 5643   9.799   4.364   1.792 -0.7248 -1.2073 -0.4272
  320SOL     OW 5644  10.160   4.446  11.097 -0.3468  0.7001 -0.3073
  320SOL    HW1 5645  10.172   4.400  11.180 -0.6489  1.1214 -0.0269
  320SOL    HW2 5646  10.143   4.376  11.033  2.3324  0.1417 -0.5271
  321SOL     OW 5647   6.339  10.764   0.402  0.0577  0.0101  0.1521
  321SOL    HW1 5648   6.316  10.671   0.401  1.7270 -0.4710 -2.2911
  321SOL    HW2 5649   6.303  10.798   0.320  0.3698  1.2975  0.5276
  322SOL     OW 5650  10.070   1.839   5.926 -0.0309  0.4324 -0.5454
  322SOL    HW1 5651  10.082   1.789   6.007 -2.6138  0.2810 -0.1694
  322SOL    HW2 5652  10.084   1.776   5.856  2.0465  0.5212 -0.2838
  323SOL     OW 5653  10.597   2.904   4.494  0.4428  0.1241 -0.0130
  323SOL    HW1 5654  10.670   2.930   4.551 -0.4021  1.6745  0.4095
  323SOL    HW2 5655  10.542   2.848   4.550  0.1675  0.7701  0.3699
  324SOL     OW 5656   0.566  11.580   6.508 -0.3091  0.2195 -0.5258
  324SOL    HW1 5657   0.607  11.624   6.433 -0.4490  0.3138 -0.5472
  324SOL    HW2 5658   0.620  11.605   6.583  0.1969 -0.3739 -0.6870
  325SOL     OW 5659   7.757   9.784   7.801 -0.3953  0.4457  0.0288
  325SOL    HW1 5660   7.805   9.783   7.717 -0.8931 -0.1541 -0.2524
  325SOL    HW2 5661   7.826   9.794   7.867  0.1887 -0.9750 -0.3346
  326SOL     OW 5662  10.053   6.101   0.876 -0.0958 -0.2154 -0.3627
  326SOL    HW1 5663   9.999   6.102   0.955  0.9053 -0.6765  0.3605
  326SOL    HW2 5664  10.001   6.054   0.811 -0.5997 -0.5697  0.2861
  327SOL     OW 5665   6.457  11.174   3.926  0.1089  0.4324 -0.0460
  327SOL    HW1 5666   6.384  11.196   3.984 -0.9171 -1.3502 -0.6071
  327SOL    HW2 5667   6.420  11.177   3.838  0.8650  0.0530 -0.3881
  328SOL     OW 5668  11.856   8.514   8.818  0.3411  0.6183  0.4309
  328SOL    HW1 5669  11.906   8.595   8.829  0.7357  0.4173  0.1519
  328SOL    HW2 5670  11.922   8.447   8.798 -0.0679  0.4152 -0.2945
  329SOL     OW 5671   0.315  10.522   6.553 -0.3239 -0.1680 -0.2440
  329SOL    HW1 5672   0.242  10.532   6.492 -0.4258 -2.0661 -0.4995
  329SOL    HW2 5673   0.304  10.594   6.616 -0.5190  1.5202 -2.1020
  330SOL     OW 5674  11.761   7.900   1.650 -0.1884 -0.1007 -0.0272
  330SOL    HW1 5675  11.726   7.903   1.739 -2.4067  0.5884 -0.8432
  330SOL    HW2 5676  11.848   7.940   1.657  0.2758 -1.3370  2.0267
  331SOL     OW 5677   8.165   5.819   2.063 -0.3039 -0.1087  0.2437
  331SOL    HW1 5678   8.142   5.729   2.086 -1.6778  0.2505  0.3590
  331SOL    HW2 5679   8.118   5.836   1.981 -0.2904  0.5915  0.3713
  332SOL     OW 5680   5.733   9.111   2.888 -0.4383 -0.3837  0.0485
  332SOL    HW1 5681   5.708   9.094   2.797 -0.9821  1.1953 -0.1157
  332SOL    HW2 5682   5.718   9.027   2.933  1.0037 -1.5495 -1.5241
  333SOL     OW 5683   1.432   5.126   6.184 -0.0141 -0.0455 -0.3081
  333SOL    HW1 5684   1.474   5.077   6.254  0.8957 -0.1206 -0.8953
  333SOL    HW2 5685   1.405   5.208   6.226 -1.9971 -1.1819  0.8065
  334SOL     OW 5686   4.875   3.476   6.281 -0.2009 -0.6563 -0.4421
  334SOL    HW1 5687   4.952   3.533   6.276  0.7550 -1.9930 -1.8491
  334SOL    HW2 5688   4.907   3.397   6.326 -0.7871 -1.1349 -0.8540
  335SOL     OW 5689   3.554   6.365  10.352  0.6867 -0.0975 -0.4148
  335SOL    HW1 5690   3.576   6.293  10.293 -0.8072  0.2856 -1.5091
  335SOL    HW2 5691   3.551   6.326  10.439  0.4027 -1.2445 -0.9275
  336SOL     OW 5692   5.026   8.944   4.746  0.3271 -0.1182  0.0276
  336SOL    HW1 5693   5.052   8.908   4.831  1.3313  0.1779 -0.1314
  336SOL    HW2 5694   5.044   9.038   4.754 -0.5586  0.0791 -0.1697
  337SOL     OW 5695  10.641   7.686   9.723  0.1684  0.1024 -0.2715
  337SOL    HW1 5696  10.552   7.654   9.737  0.3425 -0.9037 -1.3204
  337SOL    HW2 5697  10.685   7.673   9.807 -0.6026  0.3630  0.1748
  338SOL     OW 5698   3.275   9.761   1.570  0.2573 -0.0804  0.7870
  338SOL    HW1 5699   3.290   9.855   1.575 -0.0970  0.0081  0.2371
  338SOL    HW2 5700   3.180   9.751   1.568  0.2931 -0.4471  0.7540
  339SOL     OW 5701   2.019   8.491   5.606  0.4520 -0.0418  0.0545
  339SOL    HW1 5702   2.052   8.482   5.517  1.8893 -0.9303  0.6477
  339SOL    HW2 5703   1.944   8.551   5.598 -0.2946 -1.1605 -1.9254
  340SOL     OW 5704  11.238   1.023   2.747 -0.5680 -0.5384 -0.2867
  340SOL    HW1 5705  11.236   1.086   2.819  0.5470 -1.2197  0.3748
  340SOL    HW2 5706  11.224   1.076   2.668 -0.5508  0.4019  0.3235
  341SOL     OW 5707  11.961   5.905   1.205  0.3579 -0.0490  0.3912
  341SOL    HW1 5708  11.915   5.821   1.206  1.9940 -0.9995  0.3575
  341SOL    HW2 5709  11.931   5.947   1.124  1.7448 -1.9978 -1.2700
  342SOL     OW 5710   7.965  10.248   0.925 -0.6911 -0.2343 -0.2976
  342SOL    HW1 5711   7.968  10.340   0.896  0.0429  0.0786  0.7398
  342SOL    HW2 5712   7.872  10.225   0.918 -0.8364  0.4742 -0.8994
  343SOL     OW 5713   3.343   3.007  11.465  0.3031  0.0314 -0.1860
  343SOL    HW1 5714   3.295   2.996  11.547 -3.0787 -3.1172 -2.2597
  343SOL    HW2 5715   3.407   2.935  11.466  0.0059 -0.2402 -0.4254
  344SOL     OW 5716   6.981   0.125   8.595 -0.5030  0.2970  0.1884
  344SOL    HW1 5717   7.062   0.079   8.615 -1.0318  0.0918  2.1461
  344SOL    HW2 5718   6.953   0.090   8.511 -0.1606 -1.9791  0.9500
  345SOL     OW 5719   3.573   3.786   7.732  0.6716  0.2602 -0.4925
  345SOL    HW1 5720   3.651   3.771   7.679  0.6800  1.3581 -0.8110
  345SOL    HW2 5721   3.606   3.805   7.820  0.6500 -1.7748  0.0006
  346SOL     OW 5722   8.156   4.357   5.871 -0.0561  0.3614 -0.2725
  346SOL    HW1 5723   8.138   4.443   5.833 -0.5436  0.6408  0.5682
  346SOL    HW2 5724   8.223   4.320   5.814 -1.4389  0.3504 -1.9752
  347SOL     OW 5725  11.154   1.640   1.191  0.4596 -0.4319 -0.0636
  347SOL    HW1 5726  11.235   1.685   1.212  0.0590  0.4192 -0.2798
  347SOL    HW2 5727  11.151   1.637   1.095  0.1303 -0.2357 -0.0648
  348SOL     OW 5728   2.471   9.479   6.147  0.3085 -0.2292  0.3007
  348SOL    HW1 5729   2.542   9.513   6.094  0.4098 -1.0959 -0.1371
  348SOL    HW2 5730   2.409   9.443   6.084 -0.5436  0.5451  0.6725
  349SOL     OW 5731  10.165   6.236   7.271 -0.4979  0.7217 -0.0075
  349SOL    HW1 5732  10.127   6.208   7.354  1.4064  1.1495  1.0495
  349SOL    HW2 5733  10.224   6.307   7.294  0.3956  0.5675 -1.6653
  350SOL     OW 5734   7.907   1.973   5.187  0.2741  0.4603  0.1466
  350SOL    HW1 5735   7.968   1.938   5.252  0.7028  0.3858 -0.2903
  350SOL    HW2 5736   7.871   1.895   5.144  1.3507  0.5473 -0.9404
  351SOL     OW 5737   2.424  10.750  10.870  0.0617  0.4619 -0.4595
  351SOL    HW1 5738   2.474  10.826  10.840 -0.7276  1.1470 -0.0741
  351SOL    HW2 5739   2.405  10.701  10.791  0.5703  0.6745 -0.7150
  352SOL     OW 5740   5.341   1.522   4.645  0.5010  0.2466  0.2024
  352SOL    HW1 5741   5.282   1.590   4.674 -0.6866 -1.2549  1.4728
  352SOL    HW2 5742   5.349   1.536   4.550 -2.9191 -0.2018 -0.2714
  353SOL     OW 5743   8.333  10.369   1.429  0.2117 -0.3426  0.2155
  353SOL    HW1 5744   8.354  10.458   1.402  0.9133 -0.4206  0.4771
  353SOL    HW2 5745   8.379  10.313   1.367 -0.5010 -0.5266 -0.1497
  354SOL     OW 5746   6.548   3.476  10.146  0.1698 -0.4034  0.4056
  354SOL    HW1 5747   6.539   3.394  10.098  1.5791 -0.5783  0.3885
  354SOL    HW2 5748   6.516   3.543  10.086  2.2923 -0.5717 -1.0240
  355SOL     OW 5749   6.696   7.400  11.216 -0.5301  0.3911  0.2797
  355SOL    HW1 5750   6.749   7.352  11.279 -0.4630 -0.5504 -0.4722
  355SOL    HW2 5751   6.738   7.486  11.211 -0.2758  0.3304  1.1710
  356SOL     OW 5752   2.211   1.197   5.888  0.1249 -0.8021  0.7067
  356SOL    HW1 5753   2.283   1.195   5.825  1.7859 -1.3127  2.5112
  356SOL    HW2 5754   2.169   1.281   5.875  0.7401 -0.6945 -0.7296
  357SOL     OW 5755   2.880   5.006   7.369 -0.1080  0.1979 -0.0597
  357SOL    HW1 5756   2.909   4.926   7.413 -1.3868  0.6636  1.7886
  357SOL    HW2 5757   2.934   5.075   7.407 -1.3229  0.6282  0.9622
  358SOL     OW 5758   0.914   4.957   6.654 -0.5465  0.2217 -0.3028
  358SOL    HW1 5759   0.863   4.899   6.711  0.5211 -1.5392 -1.0315
  358SOL    HW2 5760   0.877   4.941   6.566  0.7451 -0.5534 -0.7307
  359SOL     OW 5761  10.722   0.722   2.842  0.7263  0.2141  0.0438
  359SOL    HW1 5762  10.691   0.697   2.928 -1.1954 -1.1379 -0.9620
  359SOL    HW2 5763  10.716   0.642   2.790  0.7009  1.2394 -1.6236
  360SOL     OW 5764   4.424  11.823   2.920 -0.5216  0.2572 -0.0004
  360SOL    HW1 5765   4.446  11.743   2.966  2.4543 -0.0548 -1.7318
  360SOL    HW2 5766   4.380  11.877   2.985 -0.8730 -1.9914  1.7468
  361SOL     OW 5767   6.395  11.537   2.758  0.2319  0.0264 -0.4977
  361SOL    HW1 5768   6.331  11.604   2.735 -1.6461 -2.1122 -2.0597
  361SOL    HW2 5769   6.472  11.558   2.705  0.4886  2.0613  0.6122
  362SOL     OW 5770   3.495   8.875   3.195 -0.0050 -0.1088 -0.1708
  362SOL    HW1 5771   3.581   8.896   3.232  0.6995  1.4122 -2.4469
  362SOL    HW2 5772   3.449   8.959   3.195 -0.7114 -0.4893 -0.8645
  363SOL     OW 5773   8.955  11.076   0.123  0.0676  0.0975 -0.4534
  363SOL    HW1 5774   8.994  11.128   0.193 -1.1895  1.0762 -0.4464
  363SOL    HW2 5775   8.869  11.052   0.156 -0.6428  0.7752 -1.7544
  364SOL     OW 5776  10.556   5.849  11.690 -0.0854  0.0116  0.2086
  364SOL    HW1 5777  10.500   5.866  11.766  1.0967 -0.4109  1.2238
  364SOL    HW2 5778  10.524   5.766  11.654 -0.1875 -0.1716  0.7103
  365SOL     OW 5779   2.023   1.542   7.357 -0.2215 -0.4007  0.1544
  365SOL    HW1 5780   2.015   1.458   7.402  0.0564  0.1040  1.1765
  365SOL    HW2 5781   2.116   1.564   7.364 -0.2536 -0.1078 -0.2957
  366SOL     OW 5782   4.513   2.759   3.854  0.1269  0.2132  0.5327
  366SOL    HW1 5783   4.583   2.701   3.885 -0.5673 -0.6764  0.4974
  366SOL    HW2 5784   4.557   2.820   3.795  0.9703  0.0583  0.9809
  367SOL     OW 5785   5.602  10.160   1.352  0.5063  0.1078  0.3385
  367SOL    HW1 5786   5.555  10.210   1.285 -0.8920 -0.5314  0.8051
  367SOL    HW2 5787   5.694  10.184   1.340  0.2938  0.0308 -1.7811
  368SOL     OW 5788   9.839   5.745   0.903 -0.2619 -0.6846  0.2644
  368SOL    HW1 5789   9.822   5.651   0.915  0.3772 -1.3197 -3.0365
  368SOL    HW2 5790   9.753   5.784   0.888 -0.2540 -1.4436 -2.0708
  369SOL     OW 5791  11.279  10.287   6.975  0.4094  0.0638 -0.1613
  369SOL    HW1 5792  11.328  10.228   7.032  0.3279  0.4748  0.3399
  369SOL    HW2 5793  11.193  10.293   7.015  0.1049 -0.2425 -0.7530
  370SOL     OW 5794   1.249   3.699   3.955 -0.6767  0.3021  0.1847
  370SOL    HW1 5795   1.190   3.722   4.027 -0.2060  3.5064 -0.2856
  370SOL    HW2 5796   1.334   3.687   3.997 -0.1273  3.3901  0.2297
  371SOL     OW 5797   1.215   9.197   6.861  0.2964  0.7314 -0.0889
  371SOL    HW1 5798   1.243   9.116   6.903 -1.2509 -0.3516 -1.0385
  371SOL    HW2 5799   1.284   9.216   6.798  0.1226 -0.5320 -0.6930
  372SOL     OW 5800   4.982   5.795   8.384  0.1939 -0.5684 -0.1143
  372SOL    HW1 5801   4.946   5.867   8.437  0.4959  0.3829 -1.1689
  372SOL    HW2 5802   4.982   5.720   8.443  0.2666  0.3981  1.1487
  373SOL     OW 5803   1.066  11.410   0.033  0.0072  0.0576  0.0558
  373SOL    HW1 5804   1.106  11.460  -0.038  0.2390 -1.3517 -0.8347
  373SOL    HW2 5805   1.134  11.405   0.100 -0.2863  1.5797  0.5165
  374SOL     OW 5806   3.742   5.389   3.143  0.5850 -0.1757  0.1410
  374SOL    HW1 5807   3.746   5.358   3.052  0.8460 -1.4024  0.5509
  374SOL    HW2 5808   3.750   5.484   3.136  0.5567 -0.2431 -1.1206
  375SOL     OW 5809   9.604   0.764   7.559 -0.4486  0.1228  0.9124
  375SOL    HW1 5810   9.635   0.741   7.471  1.0042 -0.8048  1.6292
  375SOL    HW2 5811   9.514   0.794   7.546  0.4506  2.1352 -1.1650
  376SOL     OW 5812  10.377   5.215   5.128 -0.3565  0.3831  0.4324
  376SOL    HW1 5813  10.288   5.191   5.106  0.2427 -0.7578 -0.9087
  376SOL    HW2 5814  10.399   5.161   5.205 -0.6110  0.2001  0.3768
  377SOL     OW 5815   1.064   0.463  10.501  0.4208  0.1425 -0.2680
  377SOL    HW1 5816   1.024   0.475  10.587  0.9401  0.9274 -0.1215
  377SOL    HW2 5817   1.074   0.368  10.492  0.5890  0.0664  0.6414
  378SOL     OW 5818   3.165   9.855   6.405  0.5098  0.0579 -0.1500
  378SOL    HW1 5819   3.186   9.914   6.477  0.2571 -0.8279  0.6846
  378SOL    HW2 5820   3.181   9.906   6.326  2.8342  0.3915  0.4782
  379SOL     OW 5821  11.208   7.969   3.226  0.2435 -0.0199 -0.2202
  379SOL    HW1 5822  11.206   8.059   3.194  1.2702 -0.3137 -1.1550
  379SOL    HW2 5823  11.271   7.971   3.298 -0.2128  0.1199  0.1883
  380SOL     OW 5824   9.350   2.534   9.985 -0.2815 -0.2596 -0.1336
  380SOL    HW1 5825   9.350   2.608  10.046 -0.2910 -2.2645  2.5220
  380SOL    HW2 5826   9.269   2.487  10.006 -0.8842 -0.4228 -2.5995
  381SOL     OW 5827   0.092   3.681   6.133 -0.3828  0.0371  0.1625
  381SOL    HW1 5828   0.020   3.699   6.072 -0.7555  1.8437  1.0661
  381SOL    HW2 5829   0.170   3.685   6.079 -0.9091 -2.6614 -0.9811
  382SOL     OW 5830   7.931  11.142   6.306 -0.0296 -0.0622 -0.1047
  382SOL    HW1 5831   7.970  11.167   6.222 -2.0545  0.8888 -0.8202
  382SOL    HW2 5832   7.937  11.220   6.360  1.2684 -0.6727  0.6929
  383SOL     OW 5833  10.534   3.170   2.549 -0.0307  0.0618 -0.5213
  383SOL    HW1 5834  10.595   3.112   2.502  1.4750  0.9831  0.2226
  383SOL    HW2 5835  10.591   3.225   2.603 -1.6875 -1.4360  3.0312
  384SOL     OW 5836   3.167   1.307  11.856  0.1225 -0.4068  0.0468
  384SOL    HW1 5837   3.224   1.368  11.810  1.4688 -1.0084  0.8595
  384SOL    HW2 5838   3.156   1.346  11.943  1.1105 -1.3735  0.6174
  385SOL     OW 5839   1.984   3.326   2.680  0.5971  0.0973 -0.0373
  385SOL    HW1 5840   2.036   3.364   2.609 -0.3290 -1.4083 -1.6120
  385SOL    HW2 5841   1.969   3.398   2.741  3.0049  0.9898 -0.3996
  386SOL     OW 5842   4.872   2.248   0.507 -0.5130  0.0103 -0.0393
  386SOL    HW1 5843   4.910   2.331   0.480 -1.6807  0.7247  0.4539
  386SOL    HW2 5844   4.854   2.202   0.425  0.0606  0.2667 -0.3136
  387SOL     OW 5845  11.250   5.226  10.339  0.2680  0.2451 -0.6776
  387SOL    HW1 5846  11.283   5.296  10.396 -0.2247 -0.0202 -0.0577
  387SOL    HW2 5847  11.242   5.150  10.396 -1.4620  0.3076 -0.7847
  388SOL     OW 5848   7.751   0.646   7.663 -0.6042 -0.2156  0.3017
  388SOL    HW1 5849   7.844   0.627   7.648 -0.2117  1.4904  0.3737
  388SOL    HW2 5850   7.705   0.579   7.612  0.6492  2.1437 -4.5700
  389SOL     OW 5851   7.898   0.621  10.067 -0.3957  0.1202  0.1592
  389SOL    HW1 5852   7.902   0.550  10.003 -0.8314 -0.2912  0.5779
  389SOL    HW2 5853   7.983   0.618  10.112  0.2246  0.9191 -0.9163
  390SOL     OW 5854  10.920  11.650   6.992 -0.3248 -0.7815 -0.4036
  390SOL    HW1 5855  10.883  11.629   6.906 -1.3884 -0.8030  0.0402
  390SOL    HW2 5856  10.855  11.617   7.055 -0.6079  1.1240  0.3671
  391SOL     OW 5857   5.448   5.599  10.488 -0.1141  0.7534 -0.5788
  391SOL    HW1 5858   5.400   5.532  10.439  1.2742 -1.8378  1.3736
  391SOL    HW2 5859   5.398   5.609  10.569  1.1754 -0.0739  0.3544
  392SOL     OW 5860   9.066   5.130   0.718  0.0698 -0.0598  0.1851
  392SOL    HW1 5861   9.014   5.055   0.745 -1.0035 -0.0484 -1.7282
  392SOL    HW2 5862   9.157   5.100   0.724 -0.3000 -1.1285  0.4986
  393SOL     OW 5863   3.137   1.862   1.737  0.4772  0.5937  0.1113
  393SOL    HW1 5864   3.187   1.861   1.655  1.3922 -2.2247  0.5853
  393SOL    HW2 5865   3.200   1.836   1.804 -0.0322  3.6766  1.9578
  394SOL     OW 5866   9.717  10.226   1.188 -0.1505 -0.1432 -0.6778
  394SOL    HW1 5867   9.750  10.217   1.099  0.2344  0.0569 -0.5594
  394SOL    HW2 5868   9.630  10.186   1.186  0.0019 -0.4623 -1.0541
  395SOL     OW 5869   0.252   3.079   0.920  0.4000  0.3545 -0.3862
  395SOL    HW1 5870   0.279   3.097   0.830 -1.5047 -1.0483 -1.2944
  395SOL    HW2 5871   0.264   2.985   0.931  0.0042  0.4053  0.6161
  396SOL     OW 5872  11.465  10.032  11.760 -0.4029 -0.1103 -0.4574
  396SOL    HW1 5873  11.520  10.034  11.681  0.5351 -0.1613  0.1727
  396SOL    HW2 5874  11.481   9.945  11.797  0.9358  0.7041  0.9830
  397SOL     OW 5875   2.556   3.022  10.379 -0.0554  0.5014  0.3578
  397SOL    HW1 5876   2.604   3.084  10.325 -0.5821  1.4526  0.9405
  397SOL    HW2 5877   2.464   3.047  10.368 -0.3170 -0.4958  0.2158
  398SOL     OW 5878   3.808   9.398   3.432  0.0680 -0.7409  0.0982
  398SOL    HW1 5879   3.879   9.441   3.384 -1.2244 -0.3864 -1.6104
  398SOL    HW2 5880   3.847   9.372   3.515  1.4854  1.8032  0.3148
  399SOL     OW 5881   8.468   4.557   5.785 -0.2530  0.2893  0.3413
  399SOL    HW1 5882   8.494   4.625   5.723 -0.9211  1.4242  1.2708
  399SOL    HW2 5883   8.487   4.475   5.740  1.8415  1.0619 -0.2832
  400SOL     OW 5884   8.438   4.446   5.365 -0.0693  0.3625 -0.1817
  400SOL    HW1 5885   8.434   4.498   5.445  1.1589 -1.2622  1.0059
  400SOL    HW2 5886   8.391   4.365   5.386  0.0415  0.0236 -1.1831
  401SOL     OW 5887   4.079   9.351   1.269  0.0047  0.2925  0.4740
  401SOL    HW1 5888   4.061   9.380   1.180  0.2171 -0.0941  0.3015
  401SOL    HW2 5889   4.135   9.273   1.258  0.7787  0.7697  0.9621
  402SOL     OW 5890   0.119   8.883   5.204  0.1609  0.8953  0.4859
  402SOL    HW1 5891   0.104   8.797   5.242 -1.3296  0.1793 -1.5643
  402SOL    HW2 5892   0.088   8.944   5.271 -3.7320 -0.3319  0.0405
  403SOL     OW 5893   2.152  11.300   6.967  0.1554 -0.9514 -0.0675
  403SOL    HW1 5894   2.138  11.228   7.027 -2.3766 -0.2260  0.3156
  403SOL    HW2 5895   2.158  11.259   6.880  2.5657 -1.8757  0.4561
  404SOL     OW 5896   2.242   8.228   5.594  0.4450  0.1399  0.4937
  404SOL    HW1 5897   2.301   8.295   5.629  0.9133  0.1773 -0.3381
  404SOL    HW2 5898   2.231   8.251   5.502  0.1074 -0.5655  0.3468
  405SOL     OW 5899   3.181  10.469   4.505 -0.1395  0.0592  0.2525
  405SOL    HW1 5900   3.189  10.402   4.437 -2.5691 -0.0244 -0.0403
  405SOL    HW2 5901   3.262  10.462   4.555 -0.1763 -2.9295  0.0841
  406SOL     OW 5902   2.232   5.257   5.518 -0.3763  0.0168  0.0266
  406SOL    HW1 5903   2.196   5.317   5.583  0.9898  0.6641  0.2129
  406SOL    HW2 5904   2.157   5.204   5.490 -1.2166  0.5294  1.2434
  407SOL     OW 5905  11.311   4.279   6.184 -0.1316  0.0144 -0.2298
  407SOL    HW1 5906  11.343   4.328   6.108 -2.9159  1.1173 -0.8051
  407SOL    HW2 5907  11.290   4.346   6.249 -0.9241 -0.6618  0.2239
  408SOL     OW 5908  10.175   7.322   2.057 -0.5010  0.6699 -0.3113
  408SOL    HW1 5909  10.244   7.389   2.051 -0.6133  0.8418  0.2555
  408SOL    HW2 5910  10.212   7.246   2.011 -0.2455  1.0122 -0.6857
  409SOL     OW 5911   1.547   4.964  11.328 -0.0667  0.2703  0.2090
  409SOL    HW1 5912   1.560   5.059  11.332  0.5810  0.2591 -1.0439
  409SOL    HW2 5913   1.612   4.934  11.265  0.8724 -1.2546  1.8265
  410SOL     OW 5914   5.957   2.643   4.314  0.0548 -0.6727 -0.1043
  410SOL    HW1 5915   5.968   2.604   4.401 -2.1460 -0.2549  0.4426
  410SOL    HW2 5916   5.937   2.735   4.332 -0.0003 -0.4849 -1.0682
  411SOL     OW 5917   5.938   2.788   0.241  0.6613 -0.0946  0.0442
  411SOL    HW1 5918   6.002   2.724   0.271  0.3821  0.6049  2.2983
  411SOL    HW2 5919   5.854   2.753   0.270  0.1724 -0.2025 -1.4417
  412SOL     OW 5920   5.208   0.182   4.918 -0.3671 -0.4428 -0.2254
  412SOL    HW1 5921   5.207   0.103   4.863 -3.7285 -1.0524  0.4463
  412SOL    HW2 5922   5.199   0.254   4.855 -0.1086 -0.8241 -0.7078
  413SOL     OW 5923   0.023   5.067   0.463  0.4074 -0.4192  0.2256
  413SOL    HW1 5924   0.055   5.064   0.554  0.1784 -0.9396  0.2911
  413SOL    HW2 5925  -0.060   5.114   0.468  0.8808  0.4406  0.1368
  414SOL     OW 5926   5.271   0.524   3.107 -0.2440  0.0186  0.0453
  414SOL    HW1 5927   5.221   0.601   3.132 -1.5874 -0.7689 -0.1088
  414SOL    HW2 5928   5.208   0.468   3.061  0.3230 -1.7498  1.2903
  415SOL     OW 5929   9.139   6.968   8.877 -0.5190  0.0192 -0.7494
  415SOL    HW1 5930   9.092   6.918   8.810 -0.2091 -2.1606  0.5711
  415SOL    HW2 5931   9.210   6.910   8.905 -1.0523  0.5424  1.9736
  416SOL     OW 5932  11.254  11.125   9.929 -0.0552 -0.1607 -1.0490
  416SOL    HW1 5933  11.331  11.072   9.908  0.0473 -1.6383  2.4609
  416SOL    HW2 5934  11.180  11.063   9.925 -0.1647 -0.2738  1.4486
  417SOL     OW 5935   2.671  10.399   1.740 -0.2690 -0.1506 -0.1867
  417SOL    HW1 5936   2.701  10.309   1.755 -1.6085 -0.5496  0.2105
  417SOL    HW2 5937   2.578  10.390   1.718 -0.5853  1.1774  0.5327
  418SOL     OW 5938   7.156   1.746   9.901 -0.0588  0.2675  0.6191
  418SOL    HW1 5939   7.246   1.730   9.871 -0.0013 -1.3158  1.5358
  418SOL    HW2 5940   7.164   1.820   9.960  0.7716 -0.2832  1.2158
  419SOL     OW 5941   2.466   4.660  10.866  0.1406 -0.1665 -0.5242
  419SOL    HW1 5942   2.413   4.715  10.807 -0.6801  1.2458  1.4320
  419SOL    HW2 5943   2.465   4.574  10.825 -2.2898  0.2157 -1.4525
  420SOL     OW 5944   1.617   2.780   8.258 -0.5337  0.0429 -0.0023
  420SOL    HW1 5945   1.629   2.707   8.197 -3.8972  0.4468 -1.3414
  420SOL    HW2 5946   1.643   2.858   8.208 -1.5507  0.1999 -0.2960
  421SOL     OW 5947   5.513   6.856   9.942 -0.4898  0.1966  0.2301
  421SOL    HW1 5948   5.507   6.785   9.878  1.4935  0.4110 -0.2492
  421SOL    HW2 5949   5.606   6.860   9.965 -0.5950  2.4501  0.4649
  422SOL     OW 5950   2.804   3.478  10.903  0.2574 -0.5857 -0.1664
  422SOL    HW1 5951   2.898   3.475  10.918  0.5736  1.4115 -1.3532
  422SOL    HW2 5952   2.792   3.547  10.838 -2.1515  0.1483  0.9242
  423SOL     OW 5953   6.174   4.290   5.860 -0.0451  0.4387 -0.1611
  423SOL    HW1 5954   6.228   4.341   5.800 -0.4579  1.2212  0.1210
  423SOL    HW2 5955   6.236   4.238   5.910  0.3117 -0.2346 -1.2561
  424SOL     OW 5956   2.622   8.146  11.410 -0.0951  0.0652 -0.2442
  424SOL    HW1 5957   2.544   8.100  11.380 -0.5028 -1.5446  2.8815
  424SOL    HW2 5958   2.668   8.172  11.329 -2.0699 -1.9906 -2.1502
  425SOL     OW 5959   9.795   2.122   7.886 -0.1488 -0.5770  0.3820
  425SOL    HW1 5960   9.829   2.207   7.858 -0.3603 -0.5417  0.2219
  425SOL    HW2 5961   9.838   2.058   7.829  0.1712 -0.5953  0.6478
  426SOL     OW 5962   2.089   6.483   9.359 -0.3004 -0.3731  0.0449
  426SOL    HW1 5963   2.168   6.519   9.398 -0.3190 -0.3892  0.0965
  426SOL    HW2 5964   2.048   6.433   9.428 -1.0759  0.7634  0.4468
  427SOL     OW 5965  10.363  11.020   0.804  0.7883  0.2312 -0.3737
  427SOL    HW1 5966  10.442  10.967   0.812  1.1679  0.7838 -0.4218
  427SOL    HW2 5967  10.322  10.990   0.723  0.0047 -1.2907  0.5465
  428SOL     OW 5968   1.981   9.439   3.635 -0.9378  0.0162 -0.2783
  428SOL    HW1 5969   2.062   9.392   3.652 -1.1558 -0.4047 -0.3827
  428SOL    HW2 5970   1.963   9.487   3.716 -0.4703  0.2880 -0.3320
  429SOL     OW 5971   7.179  11.687   2.000 -0.3131 -0.0657 -1.0115
  429SOL    HW1 5972   7.240  11.761   2.002  0.3405 -0.5922  1.4999
  429SOL    HW2 5973   7.235  11.610   1.988 -0.7394 -0.3785 -1.0170
  430SOL     OW 5974   9.035  11.970   3.824  0.4458 -0.7315 -0.2611
  430SOL    HW1 5975   9.074  11.927   3.900  0.1477  0.9104  0.8900
  430SOL    HW2 5976   8.952  11.924   3.810 -0.7087  0.4664  2.0424
  431SOL     OW 5977   7.669   2.888   6.230  0.3978  0.2153  0.0634
  431SOL    HW1 5978   7.689   2.982   6.221 -1.8128  0.7414  0.0334
  431SOL    HW2 5979   7.652   2.859   6.140  1.6353 -0.3963  0.0031
  432SOL     OW 5980   9.289   1.995   3.362  0.5659  0.1244  0.1880
  432SOL    HW1 5981   9.264   1.905   3.386  0.0645  0.1289 -0.2806
  432SOL    HW2 5982   9.307   1.990   3.268 -3.0082  1.2090 -0.6958
  433SOL     OW 5983  10.343   2.689   5.165  0.6235 -0.1622 -0.2923
  433SOL    HW1 5984  10.271   2.631   5.142 -1.1130  0.9175  1.9554
  433SOL    HW2 5985  10.404   2.683   5.091 -1.2384 -1.9520 -1.8020
  434SOL     OW 5986   4.497   2.745  11.725  0.7616 -0.1516  0.6498
  434SOL    HW1 5987   4.502   2.754  11.630  1.1988  0.0561  0.6919
  434SOL    HW2 5988   4.527   2.829  11.759  0.4667 -0.1738  0.9723
  435SOL     OW 5989   3.252   0.829   1.986 -0.3516  0.6781  0.3109
  435SOL    HW1 5990   3.333   0.779   1.984 -0.8903 -0.1989  0.1391
  435SOL    HW2 5991   3.199   0.785   2.053 -1.0721  0.6386 -0.2812
  436SOL     OW 5992   4.440   3.068  11.173  0.0820 -0.3573  0.3303
  436SOL    HW1 5993   4.502   3.140  11.184 -0.9704  0.4144  1.3430
  436SOL    HW2 5994   4.380   3.076  11.246 -0.8281 -1.5039 -0.2595
  437SOL     OW 5995   0.317  11.089  10.687  0.4084 -0.3019  0.1264
  437SOL    HW1 5996   0.348  11.058  10.772 -1.4896 -1.1001  0.5884
  437SOL    HW2 5997   0.396  11.097  10.634  1.5019 -1.0401  1.5715
  438SOL     OW 5998   8.456   5.739   5.379  0.0762 -0.2076 -0.4926
  438SOL    HW1 5999   8.364   5.762   5.374  0.2815  0.7569  0.0400
  438SOL    HW2 6000   8.473   5.727   5.473  0.8677  1.2594 -0.4260
  439SOL     OW 6001   3.903   4.964   8.609 -0.2068 -0.5151  0.1683
  439SOL    HW1 6002   3.905   5.059   8.608  0.1963 -0.4985  1.0819
  439SOL    HW2 6003   3.838   4.940   8.543  0.5472  0.3559 -0.9170
  440SOL     OW 6004   7.176   8.201   9.760 -0.0925  0.2487  0.5578
  440SOL    HW1 6005   7.240   8.206   9.831 -0.8130  0.9044  1.1889
  440SOL    HW2 6006   7.222   8.234   9.683  0.2323  1.0209  1.0730
  441SOL     OW 6007   9.920   9.515   4.852 -0.0263 -0.5708 -0.3311
  441SOL    HW1 6008   9.985   9.583   4.835 -1.2244  0.8128  0.3974
  441SOL    HW2 6009   9.863   9.517   4.775  1.1087 -2.2372 -1.2781
  442SOL     OW 6010   0.604   0.319   3.731 -0.1218  0.5081  0.2455
  442SOL    HW1 6011   0.593   0.414   3.738  0.8053  0.5298  1.8557
  442SOL    HW2 6012   0.698   0.305   3.728 -0.2595 -0.3355 -0.8217
  443SOL     OW 6013   8.857   7.459   1.265 -0.0460  0.3400  0.0462
  443SOL    HW1 6014   8.856   7.371   1.229 -0.0208  0.8129 -1.1697
  443SOL    HW2 6015   8.882   7.515   1.192 -1.2294  1.4882  0.4651
  444SOL     OW 6016   5.652   1.709   8.600 -0.1011 -0.1923 -0.0797
  444SOL    HW1 6017   5.741   1.682   8.577 -0.1485  0.9616 -1.7846
  444SOL    HW2 6018   5.652   1.715   8.696  2.0210  0.9973 -0.1110
  445SOL     OW 6019   9.231   9.033  10.856 -0.0108  0.3940  0.6440
  445SOL    HW1 6020   9.317   9.067  10.833 -0.2069 -0.1207 -0.9374
  445SOL    HW2 6021   9.248   8.972  10.929  1.2041 -0.8935 -0.6595
  446SOL     OW 6022   7.437   1.864  10.643 -0.2061 -0.2452  0.1251
  446SOL    HW1 6023   7.403   1.917  10.571 -1.9272  1.0623  1.7976
  446SOL    HW2 6024   7.419   1.774  10.617  1.2597  0.0114 -2.0290
  447SOL     OW 6025   6.767   7.486   8.593 -0.0717 -0.3002 -0.1023
  447SOL    HW1 6026   6.728   7.422   8.533  0.2358 -0.6753  0.0875
  447SOL    HW2 6027   6.776   7.438   8.676 -1.5175  0.5428  0.5809
  448SOL     OW 6028   1.803  10.423   0.213 -0.1099  0.3402 -0.1739
  448SOL    HW1 6029   1.831  10.369   0.288  0.5385  1.0525  0.1146
  448SOL    HW2 6030   1.849  10.385   0.138 -1.7536 -1.1889 -0.4802
  449SOL     OW 6031   6.250  10.294   8.440 -0.0713  0.3893  0.0879
  449SOL    HW1 6032   6.249  10.373   8.384 -3.9188 -0.3538 -1.1504
  449SOL    HW2 6033   6.342  10.285   8.465  0.9827  3.7942 -1.8162
  450SOL     OW 6034  10.401   4.101   4.041 -0.5631  0.5923 -0.2714
  450SOL    HW1 6035  10.340   4.128   3.972 -1.2020  0.5886  0.2793
  450SOL    HW2 6036  10.359   4.129   4.122  0.9547  2.1461  0.0480
  451SOL     OW 6037   7.442   2.934   0.172 -0.2640  0.5584 -0.6350
  451SOL    HW1 6038   7.349   2.927   0.150 -0.2063  2.2347 -1.5572
  451SOL    HW2 6039   7.447   3.008   0.232  0.5005  0.5592 -0.6882
  452SOL     OW 6040   7.120   6.444   1.622 -0.2200 -0.0673  0.4172
  452SOL    HW1 6041   7.057   6.395   1.675 -1.7633  0.8997 -0.4488
  452SOL    HW2 6042   7.169   6.496   1.686 -1.4722  0.4439  1.0107
  453SOL     OW 6043   1.939   9.428   5.820 -0.0472  0.1976 -0.5933
  453SOL    HW1 6044   1.899   9.515   5.819  0.4939  0.4952  1.0166
  453SOL    HW2 6045   1.949   9.407   5.912  3.5918  0.1678 -0.8549
  454SOL     OW 6046   7.440   5.720   2.902 -0.2669 -0.2093 -0.3213
  454SOL    HW1 6047   7.525   5.763   2.900 -0.1277 -0.4995 -0.5854
  454SOL    HW2 6048   7.377   5.791   2.886 -0.0841  0.0164 -0.0455
  455SOL     OW 6049   1.147   4.726  10.322  0.1920 -0.1046 -0.1729
  455SOL    HW1 6050   1.091   4.658  10.360  0.9307 -0.4408  0.3339
  455SOL    HW2 6051   1.227   4.680  10.297 -0.4838 -0.0490 -2.7832
  456SOL     OW 6052   4.407   9.115   9.278 -0.4572  0.0842 -0.0365
  456SOL    HW1 6053   4.400   9.044   9.342 -0.3520  1.0346  1.0637
  456SOL    HW2 6054   4.495   9.150   9.290 -0.1120 -0.2773 -1.3324
  457SOL     OW 6055   2.855   4.380   9.163 -0.4147 -0.0616  0.5468
  457SOL    HW1 6056   2.783   4.359   9.103 -0.5618 -0.0199  0.7079
  457SOL    HW2 6057   2.890   4.295   9.190  0.0890 -0.0717 -0.1198
  458SOL     OW 6058   0.542   5.159   8.098  0.5071  0.3698 -0.5806
  458SOL    HW1 6059   0.493   5.241   8.099 -0.3069 -0.1102  0.1837
  458SOL    HW2 6060   0.529   5.124   8.010 -0.6852  0.1636 -0.3412
  459SOL     OW 6061   2.663   9.087   1.242  0.1395 -0.5491  0.5692
  459SOL    HW1 6062   2.690   9.140   1.167 -2.9639  0.6144  0.1302
  459SOL    HW2 6063   2.614   9.014   1.204  0.4386 -1.2046  1.4000
  460SOL     OW 6064   3.584   3.062  10.382 -0.3644 -0.5667  0.0926
  460SOL    HW1 6065   3.589   3.156  10.363 -0.6970 -0.6235 -0.3049
  460SOL    HW2 6066   3.492   3.040  10.369 -0.1993 -1.0475 -0.3276
  461SOL     OW 6067   1.951   2.670   3.023 -0.2097 -0.5638 -1.0625
  461SOL    HW1 6068   1.980   2.658   2.932  1.8311  0.8253 -0.6599
  461SOL    HW2 6069   1.971   2.761   3.042  0.2887 -1.0805  1.0798
  462SOL     OW 6070  10.167   5.360   6.159 -0.4464  0.0466  0.0620
  462SOL    HW1 6071  10.167   5.455   6.153  1.4803  0.1255  0.8817
  462SOL    HW2 6072  10.133   5.341   6.247  1.8238  0.1441  1.0344
  463SOL     OW 6073   9.377   6.898   9.904 -0.1884  0.0383  0.5785
  463SOL    HW1 6074   9.375   6.812   9.862 -0.5635  0.2865  0.0854
  463SOL    HW2 6075   9.304   6.897   9.965  0.1699 -0.2089  1.0083
  464SOL     OW 6076  11.802   2.957   2.945  0.0094  0.0131 -0.4593
  464SOL    HW1 6077  11.726   2.957   2.887  0.2600 -1.2867 -0.8199
  464SOL    HW2 6078  11.791   2.878   2.999  1.1935 -0.3099 -0.6539
  465SOL     OW 6079  11.333   8.252   7.683  0.2583  0.0649 -0.0729
  465SOL    HW1 6080  11.333   8.347   7.693  1.6586  0.0894 -0.2172
  465SOL    HW2 6081  11.384   8.236   7.604 -0.3844 -0.7959 -0.3302
  466SOL     OW 6082   2.300   1.700   1.331 -0.1537  0.2776  0.7874
  466SOL    HW1 6083   2.273   1.754   1.257  0.7840  1.4250  1.2532
  466SOL    HW2 6084   2.271   1.750   1.408  0.5876  0.0416  1.2242
  467SOL     OW 6085   2.611   9.705   9.855 -0.9478  0.3142  0.1016
  467SOL    HW1 6086   2.648   9.744   9.935  0.0029  1.5303 -0.8847
  467SOL    HW2 6087   2.668   9.631   9.835 -0.5534  0.6509 -0.0245
  468SOL     OW 6088   1.268   2.304   0.639 -0.4950 -0.3160 -0.3898
  468SOL    HW1 6089   1.283   2.398   0.626 -1.7060 -0.0055  0.3643
  468SOL    HW2 6090   1.291   2.289   0.731  0.4413 -0.9332 -0.7064
  469SOL     OW 6091   7.776  10.734   3.282  0.0159  0.2748  0.2567
  469SOL    HW1 6092   7.744  10.818   3.249 -1.3908 -0.7521 -1.1567
  469SOL    HW2 6093   7.855  10.717   3.230  0.0712  0.5278  0.2579
  470SOL     OW 6094   0.507   8.175   1.039 -0.5563 -0.1724  0.0544
  470SOL    HW1 6095   0.538   8.191   0.950 -1.6229  1.9368  0.0297
  470SOL    HW2 6096   0.412   8.180   1.034 -0.6265  0.1925  1.3553
  471SOL     OW 6097  11.673   1.519   7.466 -0.1479 -0.0337 -0.0367
  471SOL    HW1 6098  11.740   1.561   7.411  1.4343  0.2896  2.0304
  471SOL    HW2 6099  11.717   1.501   7.548 -2.5882  0.0121  1.3794
  472SOL     OW 6100   7.397   7.247   1.215 -0.0355  0.1888 -0.6037
  472SOL    HW1 6101   7.355   7.307   1.154 -1.0588 -0.9047 -1.0038
  472SOL    HW2 6102   7.355   7.265   1.299  0.1906  0.5453 -0.5667
  473SOL     OW 6103  10.514   0.109   5.549 -0.1737 -0.1376  0.1232
  473SOL    HW1 6104  10.546   0.028   5.507  1.5212  0.5265  0.0258
  473SOL    HW2 6105  10.544   0.102   5.639 -2.1479 -0.6828  0.7835
  474SOL     OW 6106   6.850   0.528  11.774 -0.2423 -0.0142 -0.0314
  474SOL    HW1 6107   6.827   0.449  11.724 -0.7540 -0.2763  0.6059
  474SOL    HW2 6108   6.767   0.560  11.808  0.2441 -0.7905  2.0499
  475SOL     OW 6109   7.155   0.453   5.049  0.2315 -0.5369  0.0875
  475SOL    HW1 6110   7.207   0.381   5.084  0.4039 -0.8141 -0.7335
  475SOL    HW2 6111   7.167   0.525   5.112  0.1976 -1.1610  0.8136
  476SOL     OW 6112   3.086  11.849   9.351 -0.6086  0.7359  0.2783
  476SOL    HW1 6113   3.166  11.826   9.302 -1.4691 -0.1833 -0.7341
  476SOL    HW2 6114   3.094  11.802   9.433  0.2944  1.3396  0.5515
  477SOL     OW 6115   3.647   0.862   2.090 -0.0728  0.1852  0.2727
  477SOL    HW1 6116   3.705   0.789   2.072  0.4552  0.7227 -0.2539
  477SOL    HW2 6117   3.638   0.907   2.006 -1.1546  0.1871  0.3722
  478SOL     OW 6118   1.550   6.950   0.921 -0.0209  1.2187  0.4008
  478SOL    HW1 6119   1.544   7.037   0.882 -0.5197  1.5335  1.1331
  478SOL    HW2 6120   1.643   6.936   0.936  0.2251  0.8685 -1.3462
  479SOL     OW 6121   7.339   1.866   9.595 -0.8163 -0.2009 -0.4514
  479SOL    HW1 6122   7.363   1.810   9.669  0.3072  0.5620 -0.2240
  479SOL    HW2 6123   7.278   1.930   9.633  1.7132  1.8113  0.4939
  480SOL     OW 6124   7.736   2.566   2.533  0.2435  0.0784 -0.5056
  480SOL    HW1 6125   7.716   2.491   2.590 -0.5808  1.2213  0.7797
  480SOL    HW2 6126   7.678   2.555   2.458  0.5800 -0.8943 -0.6433
  481SOL     OW 6127   7.693   4.093   2.395  0.6606  0.3073 -0.3907
  481SOL    HW1 6128   7.763   4.045   2.350  1.0828  0.7652 -0.2262
  481SOL    HW2 6129   7.649   4.142   2.326  1.1738  0.8420 -0.3497
  482SOL     OW 6130   2.360   1.973   3.254 -0.5027  1.1646  0.1435
  482SOL    HW1 6131   2.442   1.938   3.290 -0.7127  0.5943  0.0654
  482SOL    HW2 6132   2.380   2.065   3.237  0.5704  0.7094 -1.2068
  483SOL     OW 6133  11.929  11.856   4.915  0.1063 -0.1934  0.4484
  483SOL    HW1 6134  11.963  11.817   4.996  1.4788  0.3973  0.1744
  483SOL    HW2 6135  12.007  11.872   4.862 -0.5376  1.7723  0.0417
  484SOL     OW 6136   9.174   7.825   8.783  0.0932  0.3929 -0.3710
  484SOL    HW1 6137   9.198   7.735   8.807  1.6798  0.4055 -1.7076
  484SOL    HW2 6138   9.180   7.826   8.687 -0.6564  1.7354 -0.4223
  485SOL     OW 6139   7.418   2.794   8.742 -0.7260 -0.7277  0.1813
  485SOL    HW1 6140   7.359   2.863   8.710  1.3385  1.1039  0.0862
  485SOL    HW2 6141   7.414   2.726   8.676 -1.8121 -0.1272 -0.4090
  486SOL     OW 6142   5.382  10.871   5.789  0.3234 -0.0503  0.3944
  486SOL    HW1 6143   5.322  10.804   5.821 -1.0896 -0.6122 -2.9839
  486SOL    HW2 6144   5.333  10.953   5.798 -0.5079 -0.3391 -1.1004
  487SOL     OW 6145   0.417   0.023   0.167 -0.4906 -0.3325  0.0834
  487SOL    HW1 6146   0.499  -0.006   0.126 -1.4603 -1.6343 -1.0200
  487SOL    HW2 6147   0.429   0.004   0.260  0.5082 -0.3776 -0.0419
  488SOL     OW 6148   7.018   2.403   1.434  0.0349  0.4770 -0.4217
  488SOL    HW1 6149   7.096   2.454   1.456 -0.2524  1.2956 -1.2306
  488SOL    HW2 6150   7.048   2.340   1.369  0.2021  0.2160 -0.0923
  489SOL     OW 6151   9.145   1.624   5.756 -0.2893 -0.1767  0.0728
  489SOL    HW1 6152   9.110   1.633   5.668 -0.4935  0.1549  0.1876
  489SOL    HW2 6153   9.231   1.666   5.752 -0.4865  0.2313  0.1476
  490SOL     OW 6154   5.345   3.685   5.137  0.6678 -0.3344  0.1355
  490SOL    HW1 6155   5.256   3.718   5.128  0.8880  0.0276 -0.8276
  490SOL    HW2 6156   5.335   3.592   5.156  0.0752 -0.1241  0.8979
  491SOL     OW 6157   4.877   6.912   1.459  0.4413 -0.3525 -0.2952
  491SOL    HW1 6158   4.825   6.992   1.461  0.7334 -0.1751  1.1840
  491SOL    HW2 6159   4.943   6.928   1.391  0.6388  0.7514  0.1457
  492SOL     OW 6160   1.582   2.863   6.366  0.3011  0.5254 -0.1873
  492SOL    HW1 6161   1.603   2.855   6.459 -0.6049 -0.9820 -0.0869
  492SOL    HW2 6162   1.532   2.944   6.360 -0.2443  0.2779  0.7663
  493SOL     OW 6163   1.577   9.257   5.050 -0.1924  0.3448  0.2487
  493SOL    HW1 6164   1.547   9.279   5.138 -0.4787  0.1761  0.1960
  493SOL    HW2 6165   1.535   9.173   5.031 -0.5333  0.6207 -0.2462
  494SOL     OW 6166   9.120   0.476   5.692 -0.3975  0.1786 -0.1310
  494SOL    HW1 6167   9.064   0.530   5.637 -0.4883 -0.2111 -0.4259
  494SOL    HW2 6168   9.085   0.388   5.683 -0.2465  0.0675  0.3430
  495SOL     OW 6169   5.606   7.519  10.671 -0.2835 -0.1956  0.1315
  495SOL    HW1 6170   5.624   7.438  10.718  1.4446  0.9776  1.6428
  495SOL    HW2 6171   5.511   7.526  10.671 -0.4829 -2.3291 -0.2797
  496SOL     OW 6172   8.636   8.459   2.860 -1.0852  0.1552 -0.3525
  496SOL    HW1 6173   8.556   8.509   2.849 -1.3577 -0.1524  0.1590
  496SOL    HW2 6174   8.706   8.518   2.833 -1.2585  1.3743  1.6671
  497SOL     OW 6175   9.444   4.161  10.075 -0.0321 -0.4435 -0.5937
  497SOL    HW1 6176   9.462   4.094  10.009  0.4925 -0.9415  0.0426
  497SOL    HW2 6177   9.521   4.218  10.074  0.2802 -0.8507  0.0636
  498SOL     OW 6178   6.355   2.202   1.349 -0.4418 -0.2047 -0.2403
  498SOL    HW1 6179   6.386   2.245   1.429 -0.6952 -1.6391  0.6693
  498SOL    HW2 6180   6.434   2.184   1.299 -0.1598 -0.3927  0.2663
  499SOL     OW 6181  11.476   0.334   2.291  0.6324 -0.5441 -0.2156
  499SOL    HW1 6182  11.401   0.279   2.267 -0.2360  0.6195 -0.2883
  499SOL    HW2 6183  11.528   0.340   2.211  1.2569 -2.0142  0.0542
  500SOL     OW 6184   9.355   9.650  10.537  0.1868  0.1957  0.3733
  500SOL    HW1 6185   9.273   9.690  10.509  0.3754 -0.0021 -0.4904
  500SOL    HW2 6186   9.336   9.556  10.539  0.7541  0.0127 -1.1911
  501SOL     OW 6187  10.189   4.227   2.139  0.4955  0.0814  0.1885
  501SOL    HW1 6188  10.273   4.191   2.112 -0.0177 -1.2614  0.3392
  501SOL    HW2 6189  10.192   4.227   2.234  0.4612  0.3587  0.1903
  502SOL     OW 6190   2.010   6.456   1.526  0.2819 -0.0030  0.3829
  502SOL    HW1 6191   2.004   6.394   1.598 -1.6598 -0.3922 -0.0578
  502SOL    HW2 6192   1.999   6.542   1.567  1.7419 -0.0030  0.8337
  503SOL     OW 6193   9.635   1.349  10.104 -0.4482 -0.0457 -0.4002
  503SOL    HW1 6194   9.649   1.310  10.017 -0.7223 -0.2994 -0.3323
  503SOL    HW2 6195   9.571   1.291  10.146  0.7082 -0.7208  0.4998
  504SOL     OW 6196   3.855   1.616   8.936 -0.0555 -0.3865 -0.4123
  504SOL    HW1 6197   3.765   1.642   8.956 -0.2446  2.7478 -4.1238
  504SOL    HW2 6198   3.907   1.654   9.007 -1.4669 -0.2646  0.5903
  505SOL     OW 6199   6.461   4.526   0.759  0.2142  0.1014  0.3661
  505SOL    HW1 6200   6.422   4.459   0.815 -0.0516  0.9653  1.2361
  505SOL    HW2 6201   6.402   4.530   0.683 -0.6523  0.4351  1.0401
  506SOL     OW 6202   6.235   3.310   4.082  0.2012  0.1316  0.0410
  506SOL    HW1 6203   6.159   3.287   4.137  0.4723 -0.0782  0.3292
  506SOL    HW2 6204   6.276   3.227   4.061 -0.7657  0.0597 -1.7635
  507SOL     OW 6205  11.885   2.109   9.576 -0.1591 -0.3057  0.0900
  507SOL    HW1 6206  11.796   2.139   9.592  0.2324  1.4979 -0.8749
  507SOL    HW2 6207  11.936   2.189   9.563  1.5842 -1.2899  0.4272
  508SOL     OW 6208  11.097  11.462   4.464 -0.2113 -0.0480 -0.2612
  508SOL    HW1 6209  11.043  11.389   4.496 -1.6499  0.9449 -0.3376
  508SOL    HW2 6210  11.140  11.495   4.543 -0.6943 -0.0707  0.0210
  509SOL     OW 6211   9.023   2.293   6.028  0.4560 -0.3990  0.0133
  509SOL    HW1 6212   8.984   2.244   5.956 -0.8383 -1.3188  1.2817
  509SOL    HW2 6213   8.959   2.361   6.049 -0.0523 -1.2633  1.4323
  510SOL     OW 6214   3.551  10.809   8.615 -0.0295  0.8592  0.7230
  510SOL    HW1 6215   3.547  10.741   8.682 -1.0043 -0.5828 -0.7240
  510SOL    HW2 6216   3.636  10.795   8.572 -0.9988 -0.7343 -0.7946
  511SOL     OW 6217   1.142  11.880   3.032 -0.5093 -0.2676  0.4405
  511SOL    HW1 6218   1.117  11.843   2.948 -2.0478  1.4864  0.0554
  511SOL    HW2 6219   1.128  11.809   3.095 -0.9295 -1.0962 -0.5555
  512SOL     OW 6220   3.239   5.301   2.050  0.6392  0.0107 -0.0674
  512SOL    HW1 6221   3.285   5.302   2.134  0.4908  1.2858  0.0247
  512SOL    HW2 6222   3.250   5.390   2.016  0.2387 -0.3415 -1.1479
  513SOL     OW 6223   4.998   1.432   7.255  0.0862  1.0163  0.0905
  513SOL    HW1 6224   5.001   1.522   7.287  0.1704  1.4149 -1.0015
  513SOL    HW2 6225   5.077   1.391   7.292 -1.0996  0.7083  2.4576
  514SOL     OW 6226   7.645   8.081   3.110 -0.0306 -0.3489  0.0687
  514SOL    HW1 6227   7.581   8.011   3.121  0.8999 -1.0903  0.9466
  514SOL    HW2 6228   7.593   8.159   3.093 -1.0657 -1.4419 -2.2893
  515SOL     OW 6229   2.115   4.824   8.100 -0.1284  0.2130  0.2354
  515SOL    HW1 6230   2.147   4.914   8.099 -0.2223  0.2473  0.4227
  515SOL    HW2 6231   2.020   4.831   8.091 -0.0978  0.1139 -0.2248
  516SOL     OW 6232   2.308   7.766   4.021  0.0265  0.0866 -0.3101
  516SOL    HW1 6233   2.342   7.739   3.936  0.4795  0.0609 -0.1257
  516SOL    HW2 6234   2.386   7.786   4.073 -0.1808 -1.0029  0.4650
  517SOL     OW 6235  11.735   8.648   5.486 -0.2994  0.5504  0.1758
  517SOL    HW1 6236  11.730   8.680   5.396  0.2459 -0.2957 -0.1727
  517SOL    HW2 6237  11.766   8.723   5.537  1.3662  0.4876 -0.6905
  518SOL     OW 6238   0.065   5.158   8.502  0.5959  0.0691  0.3336
  518SOL    HW1 6239   0.087   5.205   8.421  0.0804  0.2719  0.3108
  518SOL    HW2 6240   0.068   5.065   8.477  1.0137  0.1051  0.2291
  519SOL     OW 6241  11.805   1.300   4.014  0.4937  0.2182 -0.3605
  519SOL    HW1 6242  11.753   1.332   3.940  1.0740 -0.4696 -1.0785
  519SOL    HW2 6243  11.895   1.297   3.981  1.1008  1.7678  0.9813
  520SOL     OW 6244   3.933   5.703  11.901  0.0337  0.3106 -0.3180
  520SOL    HW1 6245   3.894   5.708  11.988  0.0186  0.6425 -0.3434
  520SOL    HW2 6246   3.974   5.616  11.898  2.5130  1.3239  1.0806
  521SOL     OW 6247   9.432   3.136   1.649 -0.0721  0.0668 -0.3275
  521SOL    HW1 6248   9.401   3.226   1.636 -2.9298 -0.5761  1.1113
  521SOL    HW2 6249   9.484   3.117   1.571  0.2666  2.7961 -0.8740
  522SOL     OW 6250   6.546  10.518  10.531 -0.4695 -0.1598 -0.1602
  522SOL    HW1 6251   6.536  10.431  10.493  0.3522 -1.1152  1.6861
  522SOL    HW2 6252   6.639  10.524  10.553 -0.5633  1.0942 -0.0326
  523SOL     OW 6253   6.757  11.541   9.608  0.5408 -0.7613 -0.8188
  523SOL    HW1 6254   6.664  11.525   9.590  0.7409 -0.8897 -1.7685
  523SOL    HW2 6255   6.757  11.611   9.673 -0.2135 -0.5466 -1.0365
  524SOL     OW 6256   8.956   8.604   9.094  0.2628 -0.0696  0.8637
  524SOL    HW1 6257   8.881   8.600   9.035  0.0585 -0.1420  1.1296
  524SOL    HW2 6258   8.962   8.517   9.132  0.2203  0.0571  1.1665
  525SOL     OW 6259   4.775   1.527   0.106 -0.2554 -0.5660 -0.5711
  525SOL    HW1 6260   4.750   1.436   0.122 -1.4586 -0.1591 -0.0318
  525SOL    HW2 6261   4.871   1.526   0.109 -0.2510 -1.7874 -0.4709
  526SOL     OW 6262   3.590   6.540   0.577  0.0284 -0.1676  0.2891
  526SOL    HW1 6263   3.588   6.596   0.500 -1.4086  1.2389  1.2873
  526SOL    HW2 6264   3.682   6.539   0.604 -0.2024  4.5942  2.1502
  527SOL     OW 6265   4.436  10.735   1.131  0.0070  0.4155 -0.1645
  527SOL    HW1 6266   4.393  10.820   1.134 -0.2536  0.2897 -0.3484
  527SOL    HW2 6267   4.530  10.756   1.131 -0.0559  0.7044 -0.3188
  528SOL     OW 6268   4.126  11.821   4.380 -0.6588 -0.0967  0.4702
  528SOL    HW1 6269   4.193  11.756   4.361  0.1020  0.9841 -0.7103
  528SOL    HW2 6270   4.153  11.860   4.463  0.8066  1.0324 -0.4732
  529SOL     OW 6271  10.712  10.773   1.257  0.4233 -0.0608 -0.0189
  529SOL    HW1 6272  10.646  10.826   1.214  0.5703  0.3796  0.2966
  529SOL    HW2 6273  10.794  10.796   1.212  0.4690 -0.1106  0.0389
  530SOL     OW 6274   3.450   4.433   6.707 -0.4475  0.1809 -0.4204
  530SOL    HW1 6275   3.527   4.388   6.744  0.2442  2.6262  1.3892
  530SOL    HW2 6276   3.435   4.389   6.623  3.0318 -0.3625 -0.9369
  531SOL     OW 6277   2.994   5.944   7.875 -0.5376  0.9115  0.2942
  531SOL    HW1 6278   3.078   5.991   7.874 -0.6807  1.1576 -0.5074
  531SOL    HW2 6279   2.985   5.914   7.965  1.5726 -1.2126 -0.1128
  532SOL     OW 6280   2.198   2.440   4.836 -0.1363 -0.2082 -1.0219
  532SOL    HW1 6281   2.217   2.426   4.743 -0.8611 -1.4730 -1.0064
  532SOL    HW2 6282   2.279   2.476   4.871  0.1705  0.2357 -2.1310
  533SOL     OW 6283   1.000   1.414   7.235 -0.3082  0.3366  0.3111
  533SOL    HW1 6284   1.023   1.323   7.215  1.1356  0.4069  1.4421
  533SOL    HW2 6285   1.084   1.457   7.252 -1.0794  1.3905  1.7067
  534SOL     OW 6286  10.467   2.245   3.815  0.6148 -0.1172 -0.0115
  534SOL    HW1 6287  10.555   2.266   3.847  0.9191  0.1265 -0.9631
  534SOL    HW2 6288  10.481   2.217   3.724 -0.3138  0.1147 -0.2354
  535SOL     OW 6289   8.943   0.256   9.601  0.1030 -0.3403  0.8047
  535SOL    HW1 6290   8.895   0.327   9.645 -0.3010  0.3525 -0.6729
  535SOL    HW2 6291   9.031   0.260   9.637  0.5079  1.8962 -0.2255
  536SOL     OW 6292   9.150  11.285   5.004 -0.0105  0.0215 -0.8726
  536SOL    HW1 6293   9.059  11.296   4.974 -0.5518  0.7433  0.9303
  536SOL    HW2 6294   9.144  11.277   5.099  1.7165 -1.4437 -0.8284
  537SOL     OW 6295   0.068   3.379   0.418  0.0194 -0.0321  0.3648
  537SOL    HW1 6296   0.068   3.288   0.448  0.9502  0.9348  3.6820
  537SOL    HW2 6297   0.161   3.398   0.400 -0.1527  0.3225 -0.1703
  538SOL     OW 6298   9.817   4.821   0.382  0.7931 -0.2165  0.0111
  538SOL    HW1 6299   9.744   4.876   0.355  0.8560 -0.2294 -0.1920
  538SOL    HW2 6300   9.853   4.863   0.460  1.6613  0.7632 -0.8801
  539SOL     OW 6301  11.802   1.994   5.908  0.5246  0.2456  0.7028
  539SOL    HW1 6302  11.835   1.915   5.950  0.4211 -0.6939 -0.8789
  539SOL    HW2 6303  11.879   2.051   5.900  1.1550 -0.7119 -0.3130
  540SOL     OW 6304   9.481   7.602   4.855 -0.0746  0.2559  0.3168
  540SOL    HW1 6305   9.573   7.629   4.847 -0.5987  1.8291 -0.6039
  540SOL    HW2 6306   9.440   7.670   4.907 -0.9521  0.0997 -0.1530
  541SOL     OW 6307   1.523   9.094  10.245 -0.5686 -0.8822 -0.2156
  541SOL    HW1 6308   1.455   9.070  10.308 -0.1315 -2.4875 -0.3225
  541SOL    HW2 6309   1.586   9.022  10.248  1.6737  0.9545  0.5970
  542SOL     OW 6310   9.435  10.374  10.286  0.0046  0.7144  0.2951
  542SOL    HW1 6311   9.397  10.295  10.248 -0.5152 -0.2508  2.6280
  542SOL    HW2 6312   9.388  10.446  10.244 -1.2804 -0.3200 -0.1074
  543SOL     OW 6313  10.710  11.775   1.513  0.1049  0.3671  0.2005
  543SOL    HW1 6314  10.765  11.698   1.524  0.0878  0.1292 -1.2853
  543SOL    HW2 6315  10.621  11.743   1.526  0.0488 -0.0082 -1.0264
  544SOL     OW 6316   2.342   5.967   5.695 -0.4456  0.4149 -0.2696
  544SOL    HW1 6317   2.257   6.010   5.708 -0.5192  1.7658 -3.8586
  544SOL    HW2 6318   2.323   5.893   5.637  0.7037  0.2562 -0.4722
  545SOL     OW 6319  11.407   6.758  10.134 -0.7107  0.2439  0.4344
  545SOL    HW1 6320  11.486   6.797  10.171 -0.0677 -0.3345 -0.2894
  545SOL    HW2 6321  11.387   6.685  10.193  0.2980 -0.6646 -0.3230
  546SOL     OW 6322   3.924   9.443   6.769 -0.1880  0.0724  0.1482
  546SOL    HW1 6323   3.998   9.475   6.821  0.5720 -0.2480 -0.7104
  546SOL    HW2 6324   3.910   9.353   6.799  1.8594 -0.9987 -1.8365
  547SOL     OW 6325   0.098   7.670   4.185 -0.1646 -0.3069 -0.1433
  547SOL    HW1 6326   0.075   7.579   4.207  1.0669 -0.8431 -0.9797
  547SOL    HW2 6327   0.024   7.701   4.133 -0.8355 -0.6541  0.5782
  548SOL     OW 6328  11.459   2.966   2.168  0.4338  0.6577 -0.5263
  548SOL    HW1 6329  11.406   2.998   2.095 -0.2089  2.8723  0.7993
  548SOL    HW2 6330  11.451   2.871   2.164 -0.9203  0.7903 -2.3468
  549SOL     OW 6331  10.339   3.527   8.067  0.0302 -0.2125 -0.1130
  549SOL    HW1 6332  10.260   3.500   8.020 -0.9404  1.1499  0.6624
  549SOL    HW2 6333  10.411   3.497   8.012 -1.0452 -0.4640 -1.4340
  550SOL     OW 6334   6.988  11.387   9.599  0.4761  0.9323  0.0201
  550SOL    HW1 6335   6.900  11.426   9.598  0.0969  0.1218 -0.8961
  550SOL    HW2 6336   7.047  11.461   9.613 -0.3958  1.3686  1.6576
  551SOL     OW 6337   7.842   9.971   2.437  0.1323  0.8201  0.3155
  551SOL    HW1 6338   7.766   9.965   2.494  0.5147 -0.4297  0.7279
  551SOL    HW2 6339   7.915   9.987   2.497  0.6156 -1.0392  0.2784
  552SOL     OW 6340   3.252   2.833   5.523 -0.2199  0.4982 -0.5489
  552SOL    HW1 6341   3.186   2.810   5.457 -0.6210  0.3926 -0.1091
  552SOL    HW2 6342   3.288   2.749   5.551  0.6972  0.5859 -1.3789
  553SOL     OW 6343   5.770   0.536   2.797  0.2561  0.0620 -0.4552
  553SOL    HW1 6344   5.766   0.542   2.892  2.0358  0.4716 -0.3726
  553SOL    HW2 6345   5.754   0.626   2.767  0.1296  0.0177 -0.5196
  554SOL     OW 6346   3.228   5.370   5.269  0.0635  0.2684 -0.4046
  554SOL    HW1 6347   3.183   5.401   5.191 -0.1822 -0.8845 -0.7374
  554SOL    HW2 6348   3.210   5.276   5.272  0.9760  0.0981  0.4343
  555SOL     OW 6349   6.285   4.959   3.729  0.1197  0.0884 -0.4192
  555SOL    HW1 6350   6.242   4.873   3.728  0.5459 -0.1334 -1.4370
  555SOL    HW2 6351   6.278   4.989   3.820  0.1713 -1.1335  0.0097
  556SOL     OW 6352   7.812   0.655   3.983 -0.4436 -0.1879  0.3644
  556SOL    HW1 6353   7.872   0.583   3.964 -0.3006  0.2169 -0.7863
  556SOL    HW2 6354   7.808   0.658   4.079  1.4500 -0.1822  0.4852
  557SOL     OW 6355   6.198  10.894   7.139 -0.1139  0.1876 -0.1588
  557SOL    HW1 6356   6.119  10.871   7.091  0.5123  0.1352 -1.2127
  557SOL    HW2 6357   6.269  10.855   7.088  0.5017 -1.1359  1.6160
  558SOL     OW 6358   1.724   2.921   1.128 -0.3192 -0.2358 -0.2761
  558SOL    HW1 6359   1.683   2.979   1.193  1.6840 -0.4447  1.2835
  558SOL    HW2 6360   1.748   2.980   1.056 -2.5094  0.0136 -0.8672
  559SOL     OW 6361   7.576   5.819   4.154  0.0346 -0.2295 -0.0106
  559SOL    HW1 6362   7.624   5.739   4.131 -0.7871 -0.7108 -0.1029
  559SOL    HW2 6363   7.574   5.819   4.249 -0.5429 -0.6862 -0.0152
  560SOL     OW 6364   6.248   0.021   9.541 -0.3364 -0.2709 -0.3062
  560SOL    HW1 6365   6.199   0.062   9.470 -1.3317  0.5575  0.8185
  560SOL    HW2 6366   6.312   0.088   9.568 -1.4801  0.3203  1.0547
  561SOL     OW 6367   3.187  10.516   9.932  0.5074  0.1796  0.5731
  561SOL    HW1 6368   3.172  10.476  10.018 -1.6676 -0.3301  0.0191
  561SOL    HW2 6369   3.110  10.571   9.918  0.7828  0.1857 -1.0806
  562SOL     OW 6370   6.755   1.212   2.754 -0.4600 -0.6461  0.0964
  562SOL    HW1 6371   6.757   1.294   2.705 -2.7087  0.2370  1.3203
  562SOL    HW2 6372   6.846   1.197   2.781  0.3958  0.1493 -2.1216
  563SOL     OW 6373   6.495   7.960   9.284  0.0347 -0.0294  0.0689
  563SOL    HW1 6374   6.522   8.049   9.308  0.2231  0.6242 -2.2790
  563SOL    HW2 6375   6.570   7.925   9.236 -0.9556 -0.5006 -1.1748
  564SOL     OW 6376   8.665   3.089   7.119 -0.1876  0.3713  0.0372
  564SOL    HW1 6377   8.669   3.105   7.025  0.7847  1.7767  0.2809
  564SOL    HW2 6378   8.601   3.152   7.152  1.1538  1.4979  0.5839
  565SOL     OW 6379   2.840   0.553  11.109 -0.1470  0.2741 -0.3771
  565SOL    HW1 6380   2.765   0.494  11.097  1.9635 -2.2151 -2.3820
  565SOL    HW2 6381   2.800   0.638  11.127 -3.4082 -1.2296  0.2857
  566SOL     OW 6382   2.183   3.606  11.226  0.1900 -0.0664 -0.6934
  566SOL    HW1 6383   2.151   3.625  11.314 -1.1057  0.9413 -1.3337
  566SOL    HW2 6384   2.230   3.685  11.199 -0.3154  0.0560 -1.2659
  567SOL     OW 6385   1.546  11.835   0.764  0.2329 -0.2316  0.3611
  567SOL    HW1 6386   1.622  11.845   0.706 -0.3320 -1.8772 -0.7273
  567SOL    HW2 6387   1.538  11.920   0.808  1.6090  0.5592 -0.8385
  568SOL     OW 6388  10.427   7.734  11.148  0.5430 -0.4098  0.4177
  568SOL    HW1 6389  10.399   7.819  11.116 -0.8544 -0.8745  0.3337
  568SOL    HW2 6390  10.508   7.715  11.099 -0.1352  0.0493 -0.9333
  569SOL     OW 6391   1.453   4.419   8.665  0.3477 -0.1977  0.6910
  569SOL    HW1 6392   1.467   4.382   8.578 -1.2197 -0.9739  0.7444
  569SOL    HW2 6393   1.412   4.504   8.649  0.8159  0.0285  0.6654
  570SOL     OW 6394  11.700   1.428   8.219 -0.2578 -0.7618 -0.6177
  570SOL    HW1 6395  11.608   1.417   8.196 -0.0464 -0.0496 -1.9262
  570SOL    HW2 6396  11.712   1.523   8.228  0.2361 -0.8803  0.0629
  571SOL     OW 6397   6.061   6.652   8.836  0.0792  0.1535 -0.2963
  571SOL    HW1 6398   6.130   6.598   8.873 -1.0664  0.2200  2.1617
  571SOL    HW2 6399   6.054   6.624   8.745  2.6662 -0.4794 -0.3773
  572SOL     OW 6400   1.161   5.987   5.720  0.3242 -0.7234  0.8404
  572SOL    HW1 6401   1.117   6.041   5.785 -0.8781 -1.2330  0.4877
  572SOL    HW2 6402   1.248   5.971   5.757  0.2986  0.4728  1.4722
  573SOL     OW 6403   0.754   3.660   8.134 -0.0409  0.3361  0.3080
  573SOL    HW1 6404   0.707   3.714   8.070  1.1411  0.0328 -0.8726
  573SOL    HW2 6405   0.745   3.570   8.100  3.3910  0.4819 -1.4141
  574SOL     OW 6406  11.851   0.351   5.457 -0.3458 -0.5248 -0.1462
  574SOL    HW1 6407  11.859   0.262   5.422 -0.2337 -0.0719 -1.2963
  574SOL    HW2 6408  11.830   0.405   5.381 -1.8505  0.2285  0.7654
  575SOL     OW 6409   6.852   2.507   2.771  0.7001  0.0660 -0.2334
  575SOL    HW1 6410   6.813   2.485   2.855  1.0530  0.2180 -0.0316
  575SOL    HW2 6411   6.838   2.601   2.761 -2.5110 -0.4206 -1.9495
  576SOL     OW 6412   9.422   7.572   4.591 -0.0476  0.0382 -0.4926
  576SOL    HW1 6413   9.407   7.480   4.570  1.1736 -0.0447 -1.0815
  576SOL    HW2 6414   9.441   7.572   4.685  0.3926 -0.3841 -0.5734
  577SOL     OW 6415   1.718   0.435   3.650  0.7432  0.0540  0.3272
  577SOL    HW1 6416   1.710   0.340   3.639 -0.1857  0.2250 -0.6614
  577SOL    HW2 6417   1.709   0.471   3.562 -3.4666  1.2990  1.0236
  578SOL     OW 6418   5.125   2.646   5.653 -0.6397  0.7533  0.2189
  578SOL    HW1 6419   5.091   2.734   5.638 -0.5213  0.6888 -0.4835
  578SOL    HW2 6420   5.080   2.592   5.588 -0.8007  0.2718  0.7232
  579SOL     OW 6421  11.927   7.320   8.549  0.2136 -0.1051 -0.0466
  579SOL    HW1 6422  11.989   7.277   8.490  0.3272 -0.0229  0.0125
  579SOL    HW2 6423  11.958   7.296   8.637 -0.5452 -1.0643 -0.0272
  580SOL     OW 6424   1.161  11.643   4.999  0.0186  0.1901 -0.1058
  580SOL    HW1 6425   1.106  11.565   5.003 -1.8159  1.3654 -0.6589
  580SOL    HW2 6426   1.164  11.675   5.089  0.1487 -0.1063 -0.0041
  581SOL     OW 6427   9.972   6.617   8.374  0.1835 -0.2958 -0.6570
  581SOL    HW1 6428  10.006   6.704   8.396 -0.2252 -0.3047  0.0150
  581SOL    HW2 6429  10.002   6.560   8.445 -0.2710 -0.5324 -0.6516
  582SOL     OW 6430   5.664   0.461   0.216  0.0749  0.5659 -0.4420
  582SOL    HW1 6431   5.677   0.553   0.240 -0.5353  0.4652  0.3422
  582SOL    HW2 6432   5.661   0.415   0.301 -1.8891  0.1393 -0.6878
  583SOL     OW 6433   7.832   0.630   8.844  0.5269  0.5708 -0.0896
  583SOL    HW1 6434   7.908   0.687   8.827  0.8099  0.2355  0.0297
  583SOL    HW2 6435   7.778   0.680   8.905 -0.3007  1.6141 -1.5982
  584SOL     OW 6436   3.177   2.043   2.098 -0.1422  0.5063 -0.4341
  584SOL    HW1 6437   3.253   2.059   2.155  1.3934 -0.7349 -2.0211
  584SOL    HW2 6438   3.147   1.956   2.122  0.3870  0.0590 -1.3544
  585SOL     OW 6439   0.306   3.653   2.401 -0.2833 -0.2533 -0.2744
  585SOL    HW1 6440   0.351   3.693   2.327 -0.6346 -1.2754 -1.0692
  585SOL    HW2 6441   0.214   3.654   2.376 -0.5010  0.1818  0.5352
  586SOL     OW 6442  10.605   9.540   3.781  0.0725 -1.2801  0.1201
  586SOL    HW1 6443  10.604   9.595   3.859  3.1612 -0.7063 -0.1009
  586SOL    HW2 6444  10.648   9.595   3.715 -2.3153 -1.7886 -1.9998
  587SOL     OW 6445   6.491  10.114   0.208  0.7000 -0.5450  0.3159
  587SOL    HW1 6446   6.446  10.124   0.292 -0.8544 -1.5722 -0.3451
  587SOL    HW2 6447   6.514  10.022   0.203  1.3172 -0.3752 -0.1357
  588SOL     OW 6448   8.981   8.691  10.521  0.3524  0.9961 -0.2354
  588SOL    HW1 6449   9.030   8.757  10.571 -0.4633  1.6918 -0.3279
  588SOL    HW2 6450   8.890   8.722  10.524 -0.3245 -0.9387  1.0236
  589SOL     OW 6451   1.653   2.496  10.796 -0.4335  0.0340  0.3711
  589SOL    HW1 6452   1.590   2.567  10.779  0.2963  0.5146 -0.3913
  589SOL    HW2 6453   1.721   2.537  10.850 -0.3703 -0.2765  0.5255
  590SOL     OW 6454   1.840  10.094   6.866  0.1140  0.0025 -0.3317
  590SOL    HW1 6455   1.855  10.168   6.807  0.5426 -0.2837 -0.5894
  590SOL    HW2 6456   1.872  10.018   6.817  0.2145 -0.2774  0.1604
  591SOL     OW 6457   7.507   9.134   3.605 -0.9500  0.3161 -0.4551
  591SOL    HW1 6458   7.453   9.089   3.540  0.3356  0.0336 -1.3781
  591SOL    HW2 6459   7.472   9.105   3.689 -1.1271 -1.2577 -1.0274
  592SOL     OW 6460   4.482   3.589  11.611 -0.1462  0.0902  0.2828
  592SOL    HW1 6461   4.485   3.499  11.580  1.3710  0.0433  0.4972
  592SOL    HW2 6462   4.573   3.612  11.629 -0.7241  0.6819  3.0195
  593SOL     OW 6463   1.043   7.997   1.131 -0.5916 -0.0932 -0.0149
  593SOL    HW1 6464   1.081   7.973   1.215  1.8529 -0.6294 -1.1724
  593SOL    HW2 6465   1.063   7.923   1.073 -1.0764  0.7876 -1.3695
  594SOL     OW 6466   7.523  10.343   3.024 -0.7106 -0.1489  0.0243
  594SOL    HW1 6467   7.446  10.355   3.081 -0.8642 -1.8630  0.2127
  594SOL    HW2 6468   7.545  10.432   2.996 -3.0420  0.3843 -0.3950
  595SOL     OW 6469   3.452   0.487   4.441 -0.0832  0.1273  0.2097
  595SOL    HW1 6470   3.486   0.478   4.352  0.4184 -1.7256  0.5525
  595SOL    HW2 6471   3.410   0.573   4.442  1.4966  0.9773 -1.2723
  596SOL     OW 6472   3.703   3.449   6.476  0.4184  0.1470 -0.3699
  596SOL    HW1 6473   3.742   3.367   6.446  0.2370  0.4065 -1.3297
  596SOL    HW2 6474   3.774   3.513   6.470 -0.0473  0.5526 -1.8225
  597SOL     OW 6475   5.729   6.864  10.233  0.1353  0.1345 -0.1508
  597SOL    HW1 6476   5.758   6.927  10.167  0.0259 -0.1474 -0.4702
  597SOL    HW2 6477   5.705   6.786  10.184 -3.6397  1.1529 -0.2439
  598SOL     OW 6478   2.654   8.252   7.150 -0.2357  0.1764 -0.2896
  598SOL    HW1 6479   2.598   8.210   7.085 -0.5075  0.2376 -0.0979
  598SOL    HW2 6480   2.696   8.179   7.195 -0.9290  0.0924  0.2379
  599SOL     OW 6481   0.447   6.582   7.351 -0.1881 -0.2221  0.2560
  599SOL    HW1 6482   0.525   6.526   7.354  0.0251 -0.0288 -1.0985
  599SOL    HW2 6483   0.480   6.668   7.325 -0.8776 -0.2314 -0.6930
  600SOL     OW 6484   1.269   3.810   3.132  0.2627 -0.1074 -0.1451
  600SOL    HW1 6485   1.223   3.734   3.167 -1.7095  0.8612 -0.4958
  600SOL    HW2 6486   1.362   3.790   3.146 -0.2755 -1.5609  1.8273
  601SOL     OW 6487   6.009   4.038   4.512  0.1852  0.2718  0.4120
  601SOL    HW1 6488   6.074   4.091   4.558  1.3937 -0.2135 -0.6722
  601SOL    HW2 6489   6.054   3.955   4.496 -0.8347 -0.1962 -0.0537
  602SOL     OW 6490  10.365  11.762   2.838  0.3400  0.0592  0.0461
  602SOL    HW1 6491  10.329  11.722   2.917 -0.7757  0.7843 -0.0728
  602SOL    HW2 6492  10.358  11.693   2.771 -0.3719  0.0216  0.1527
  603SOL     OW 6493   0.559   3.900   6.762  0.2955  0.3840 -0.5980
  603SOL    HW1 6494   0.653   3.881   6.764  0.4465  1.0885  1.1001
  603SOL    HW2 6495   0.518   3.821   6.796  0.4916  0.9171  0.9726
  604SOL     OW 6496   8.044  11.156   8.107 -0.3437 -0.4460  0.0090
  604SOL    HW1 6497   8.096  11.199   8.175  2.8231 -0.6885 -2.0753
  604SOL    HW2 6498   8.068  11.064   8.114 -2.2996 -0.9815  0.3842
  605SOL     OW 6499   8.608   0.523   4.627  0.5491  0.2255  0.8410
  605SOL    HW1 6500   8.688   0.510   4.575  0.0508 -0.3360  0.2032
  605SOL    HW2 6501   8.610   0.454   4.693  0.7239  0.3770  0.9949
  606SOL     OW 6502  11.497   9.148   4.330  0.6006  0.2780 -0.3078
  606SOL    HW1 6503  11.463   9.134   4.242 -2.1794 -0.1849  0.7429
  606SOL    HW2 6504  11.434   9.106   4.388  2.6270  0.0639  1.9256
  607SOL     OW 6505  10.966   9.087   2.494 -0.4668  0.4503  0.7155
  607SOL    HW1 6506  10.983   9.123   2.581  1.6750  1.3298 -0.0030
  607SOL    HW2 6507  11.038   9.118   2.440 -2.8106  1.7644 -1.9696
  608SOL     OW 6508   8.742   3.542  10.925  0.0440  0.5209 -0.2205
  608SOL    HW1 6509   8.730   3.616  10.984 -0.5946 -1.7018  2.7120
  608SOL    HW2 6510   8.654   3.511  10.907  0.2709  0.7929 -1.9358
  609SOL     OW 6511   9.484   9.493   0.040  0.4067 -0.3062  0.2289
  609SOL    HW1 6512   9.396   9.457   0.048  0.1417  0.1350 -0.5734
  609SOL    HW2 6513   9.530   9.433  -0.018  0.9216 -1.0195  1.3412
  610SOL     OW 6514   8.417   6.861   7.728 -0.2107 -0.3710 -0.6528
  610SOL    HW1 6515   8.460   6.864   7.813 -0.4834 -0.2423 -0.5190
  610SOL    HW2 6516   8.439   6.945   7.687  0.6342 -0.7850 -1.0608
  611SOL     OW 6517   8.610   9.650   8.482  0.5307  0.2709  0.1739
  611SOL    HW1 6518   8.541   9.686   8.426  1.6506  2.1038 -0.0849
  611SOL    HW2 6519   8.599   9.696   8.565  1.5615  0.7284  0.0627
  612SOL     OW 6520   2.427   3.427   3.237 -0.5662 -0.2690 -0.0708
  612SOL    HW1 6521   2.372   3.505   3.238  1.5064  1.2708 -0.3693
  612SOL    HW2 6522   2.484   3.437   3.313 -0.9515 -2.0778  0.5163
  613SOL     OW 6523   7.153   0.803   0.392 -0.4669 -0.0784 -0.0499
  613SOL    HW1 6524   7.183   0.858   0.320  1.5653 -0.2280  0.6201
  613SOL    HW2 6525   7.099   0.736   0.350  0.7684 -0.2301 -1.4745
  614SOL     OW 6526   7.454   0.691   9.507  0.1429 -0.2159  0.5545
  614SOL    HW1 6527   7.394   0.622   9.534  0.4974 -0.9343 -0.4124
  614SOL    HW2 6528   7.397   0.761   9.475 -0.2332 -1.3808 -1.5243
  615SOL     OW 6529  11.918   1.361   5.922 -0.0968  0.4294  0.2454
  615SOL    HW1 6530  11.891   1.373   6.013  1.5600 -0.5703  0.9281
  615SOL    HW2 6531  11.853   1.301   5.885 -0.3337  0.1921  1.0318
  616SOL     OW 6532   4.687   2.959   8.100 -0.0765 -0.0543  0.1893
  616SOL    HW1 6533   4.624   2.909   8.153 -0.7766  1.3241  0.7029
  616SOL    HW2 6534   4.648   2.962   8.013 -0.5657  0.5140  0.4245
  617SOL     OW 6535   5.216  11.911  10.451  0.0488  0.0844  0.1378
  617SOL    HW1 6536   5.274  11.846  10.491  0.2356  0.3305  0.2644
  617SOL    HW2 6537   5.263  11.994  10.459 -0.8284  0.4966  1.3156
  618SOL     OW 6538   1.378   3.813   9.464  0.4446 -0.2025  0.1045
  618SOL    HW1 6539   1.349   3.774   9.381 -2.5210  1.3394  0.2803
  618SOL    HW2 6540   1.398   3.904   9.442  0.5480 -0.0264  0.9005
  619SOL     OW 6541   9.468   1.007   8.551 -0.1908  0.3637  0.1560
  619SOL    HW1 6542   9.521   0.928   8.562 -0.2583 -0.1966 -2.5969
  619SOL    HW2 6543   9.495   1.065   8.622 -0.3510 -2.1991  2.4846
  620SOL     OW 6544   6.174   4.239   4.206 -0.0418 -0.5293  0.3705
  620SOL    HW1 6545   6.221   4.250   4.289  1.1370  0.0403 -0.3385
  620SOL    HW2 6546   6.099   4.297   4.213 -1.3953 -2.3469  2.0167
  621SOL     OW 6547   0.286   3.170  10.073 -0.0030 -0.4290  0.6780
  621SOL    HW1 6548   0.379   3.188  10.061 -0.1688  0.0559  0.0294
  621SOL    HW2 6549   0.256   3.142   9.986 -0.3775 -0.9876  0.9804
  622SOL     OW 6550   7.239   4.725   1.726 -0.4699  0.3127  0.6001
  622SOL    HW1 6551   7.176   4.679   1.672 -0.0424  1.1061 -0.6154
  622SOL    HW2 6552   7.308   4.753   1.665 -0.0292  1.3308  1.5171
  623SOL     OW 6553   9.587   5.840   4.052 -0.4052  0.2201  0.2061
  623SOL    HW1 6554   9.661   5.831   4.111  1.0238  0.2390 -1.4970
  623SOL    HW2 6555   9.595   5.766   3.992  0.1111  1.8953 -1.9165
  624SOL     OW 6556  10.559   4.200   1.697 -0.2086 -0.3789  0.0995
  624SOL    HW1 6557  10.530   4.194   1.788 -0.0500 -1.6210  0.0756
  624SOL    HW2 6558  10.618   4.276   1.696 -1.0475  0.3133  0.7885
  625SOL     OW 6559   8.349   7.724   5.579 -0.4030 -0.0409  0.3475
  625SOL    HW1 6560   8.426   7.759   5.624 -0.6944 -0.1809  0.9532
  625SOL    HW2 6561   8.373   7.728   5.486  0.6481 -0.8047  0.5664
  626SOL     OW 6562   8.420   3.489   4.658  0.1557  0.2948 -0.1269
  626SOL    HW1 6563   8.405   3.461   4.568  0.1613 -0.9835  0.2503
  626SOL    HW2 6564   8.402   3.411   4.711  1.3233  0.6689  0.8827
  627SOL     OW 6565   6.203   6.767  10.231 -0.4197 -0.3623 -0.6635
  627SOL    HW1 6566   6.175   6.829  10.163 -0.1408  1.0283  0.4367
  627SOL    HW2 6567   6.247   6.822  10.296  0.5963 -1.8562 -0.0468
  628SOL     OW 6568  11.841  10.693   0.291  0.4613  0.4426  0.4535
  628SOL    HW1 6569  11.888  10.645   0.360 -1.1075 -1.0607  0.5579
  628SOL    HW2 6570  11.844  10.634   0.215 -4.1872 -1.5130  1.4673
  629SOL     OW 6571   6.397   0.366   7.456 -0.3365  0.6440 -0.1108
  629SOL    HW1 6572   6.489   0.341   7.463 -0.0034  1.7963 -0.1393
  629SOL    HW2 6573   6.394   0.455   7.490 -1.9478 -0.3622  2.7330
  630SOL     OW 6574   2.528   5.765   2.582  0.1271  0.2162  0.0982
  630SOL    HW1 6575   2.521   5.670   2.588  0.4549  0.0885 -1.2168
  630SOL    HW2 6576   2.472   5.788   2.508  0.9143  0.9274 -0.2900
  631SOL     OW 6577   7.344   2.350   1.692 -0.5170 -0.8580 -0.3511
  631SOL    HW1 6578   7.269   2.298   1.720 -1.2907  1.1555  1.6971
  631SOL    HW2 6579   7.408   2.339   1.762 -0.5465  0.5273 -0.0641
  632SOL     OW 6580   7.822   4.048   9.446 -0.1361 -0.6056  0.0723
  632SOL    HW1 6581   7.918   4.049   9.439 -0.1902  1.3208 -0.8320
  632SOL    HW2 6582   7.792   4.107   9.377 -1.9227 -0.2040  1.1406
  633SOL     OW 6583   4.830   9.070   4.122  0.1402 -0.2475  0.2265
  633SOL    HW1 6584   4.772   9.137   4.086  1.3723  0.4755 -0.4828
  633SOL    HW2 6585   4.890   9.050   4.051  0.6822 -1.0722  0.9008
  634SOL     OW 6586   3.172  11.482   5.544 -0.1020  0.6356  0.1248
  634SOL    HW1 6587   3.213  11.466   5.458  0.1740  0.2121  0.3298
  634SOL    HW2 6588   3.135  11.397   5.568 -3.3474  1.5107 -1.2014
  635SOL     OW 6589   3.776   6.730   0.186 -0.7471  0.8385  0.2241
  635SOL    HW1 6590   3.797   6.729   0.093 -2.4391  1.3357 -0.1952
  635SOL    HW2 6591   3.771   6.823   0.208 -1.7403  0.7305  0.4707
  636SOL     OW 6592  11.671   4.256   8.799 -0.1425 -0.1007  0.4304
  636SOL    HW1 6593  11.734   4.254   8.726 -0.5341  2.2986 -0.0647
  636SOL    HW2 6594  11.703   4.189   8.860 -0.2334 -2.7593 -2.2195
  637SOL     OW 6595   6.542   5.771   0.473 -0.1758 -0.0351 -0.1262
  637SOL    HW1 6596   6.454   5.747   0.445 -0.6518  1.1880  0.2647
  637SOL    HW2 6597   6.533   5.860   0.505  1.1946  0.0657  0.0117
  638SOL     OW 6598   5.452   0.177   8.927 -0.5652  0.2058  0.4971
  638SOL    HW1 6599   5.435   0.165   8.834 -0.6559 -2.1495  0.7604
  638SOL    HW2 6600   5.547   0.168   8.935 -0.7386 -1.8080  0.8417
  639SOL     OW 6601   1.277   5.016   4.892  0.2308  0.2129  0.1748
  639SOL    HW1 6602   1.235   5.094   4.854 -0.3970 -0.2443 -0.0950
  639SOL    HW2 6603   1.218   4.990   4.963  0.6569  0.2254  0.5314
  640SOL     OW 6604   1.304   2.981   9.334  0.2764 -0.0924  0.0367
  640SOL    HW1 6605   1.282   3.068   9.298  0.8883 -0.0984 -0.3580
  640SOL    HW2 6606   1.396   2.988   9.357 -0.2583  0.1356  2.2929
  641SOL     OW 6607  10.259   0.379   3.141 -0.3154  0.3142 -0.1084
  641SOL    HW1 6608  10.279   0.470   3.121  0.5567 -0.2642 -2.0171
  641SOL    HW2 6609  10.176   0.384   3.189  0.5927  2.2103  1.4372
  642SOL     OW 6610   6.665   7.885   6.157  0.0368 -0.0441 -0.2458
  642SOL    HW1 6611   6.661   7.828   6.234  1.0210 -0.1669 -0.2753
  642SOL    HW2 6612   6.598   7.850   6.098 -0.2637 -0.3631  0.2732
  643SOL     OW 6613   7.784   3.047   9.840 -0.5773 -0.0841 -0.3609
  643SOL    HW1 6614   7.754   3.014   9.925 -1.6628  1.4043 -0.1239
  643SOL    HW2 6615   7.821   2.971   9.796 -1.8920 -1.3411  0.6195
  644SOL     OW 6616   3.942   2.368   5.548 -0.4579  0.1376  0.1304
  644SOL    HW1 6617   3.921   2.376   5.641 -1.4712 -0.3300 -0.0434
  644SOL    HW2 6618   3.858   2.348   5.506  0.2582 -1.3420 -0.6673
  645SOL     OW 6619   9.254  10.492   4.877 -0.7094 -0.9532 -0.0270
  645SOL    HW1 6620   9.347  10.471   4.888 -0.2812  0.3914 -0.8674
  645SOL    HW2 6621   9.226  10.521   4.964  0.9225  3.1244 -0.6171
  646SOL     OW 6622   8.648  11.323   7.684  0.1536  0.0158  0.6116
  646SOL    HW1 6623   8.692  11.253   7.731  0.2480 -0.3445 -0.0024
  646SOL    HW2 6624   8.669  11.402   7.733 -1.0188 -0.5294  2.0702
  647SOL     OW 6625   0.716   2.624   5.499 -0.3691 -0.0604  0.0411
  647SOL    HW1 6626   0.645   2.682   5.526 -1.3198 -1.3773  0.4567
  647SOL    HW2 6627   0.711   2.622   5.404 -0.5053  0.3221  0.0402
  648SOL     OW 6628   0.282  10.627  10.429 -0.0015  0.7664  0.3664
  648SOL    HW1 6629   0.229  10.697  10.389 -1.7018 -1.5391 -1.7205
  648SOL    HW2 6630   0.234  10.547  10.410  1.8921 -1.0334  2.6228
  649SOL     OW 6631   9.383   6.548   8.712 -0.0683  0.3366  0.3330
  649SOL    HW1 6632   9.460   6.598   8.742 -0.3669  1.7460 -1.1254
  649SOL    HW2 6633   9.409   6.457   8.722  0.7461  0.7345  2.4811
  650SOL     OW 6634   4.272  10.100   2.325  0.2608 -0.1676 -0.4000
  650SOL    HW1 6635   4.349  10.145   2.360  0.3413 -0.4010 -0.2690
  650SOL    HW2 6636   4.198  10.138   2.372  0.4003 -0.7225  0.2838
  651SOL     OW 6637   4.354   3.518   0.753 -0.1538  0.4511  0.4171
  651SOL    HW1 6638   4.321   3.524   0.663 -2.3803  2.2654  1.2516
  651SOL    HW2 6639   4.298   3.453   0.794  0.8511 -0.3629  0.5162
  652SOL     OW 6640   9.828   3.853   4.389 -0.3715 -0.2389  0.1534
  652SOL    HW1 6641   9.862   3.868   4.477 -0.9203  0.8508  0.1975
  652SOL    HW2 6642   9.773   3.775   4.397  0.6034 -0.9088  0.4809
  653SOL     OW 6643   3.304   8.321   5.295  0.1717 -0.0077  0.1552
  653SOL    HW1 6644   3.367   8.338   5.226 -0.0276  0.7318  0.1443
  653SOL    HW2 6645   3.353   8.330   5.377  0.1918  0.0764  0.1339
  654SOL     OW 6646   9.270   7.560   9.907  0.3936 -0.2757  0.6846
  654SOL    HW1 6647   9.293   7.468   9.897 -0.3545 -0.5648  1.4820
  654SOL    HW2 6648   9.175   7.562   9.907  0.3965  0.5378  0.3771
  655SOL     OW 6649  11.768   4.837  11.399  0.3503 -0.0485  0.1992
  655SOL    HW1 6650  11.808   4.750  11.393 -2.8268 -1.6306  0.2030
  655SOL    HW2 6651  11.798   4.883  11.320 -1.0324 -2.6082 -1.9562
  656SOL     OW 6652  11.081   9.366   2.160  0.4921 -0.0863 -0.3660
  656SOL    HW1 6653  11.073   9.358   2.065  0.5267 -0.4486 -0.3417
  656SOL    HW2 6654  11.029   9.443   2.183  0.6551  0.1260 -0.7022
  657SOL     OW 6655   3.178   0.720   1.742  0.0186 -0.3054  0.3050
  657SOL    HW1 6656   3.111   0.781   1.714 -0.2873 -0.8055 -0.0811
  657SOL    HW2 6657   3.230   0.768   1.806 -0.0090  0.4686 -0.2373
  658SOL     OW 6658   1.821   2.849  11.856 -0.1668  0.6290  0.2763
  658SOL    HW1 6659   1.786   2.905  11.925 -0.4644  0.7568  0.0217
  658SOL    HW2 6660   1.749   2.791  11.833  0.3802 -0.4228  1.1104
  659SOL     OW 6661  10.749   3.671   4.422  0.2587  0.4124 -0.5107
  659SOL    HW1 6662  10.659   3.703   4.421  0.0501 -0.1351  0.1077
  659SOL    HW2 6663  10.780   3.691   4.510  0.9501  1.1373 -0.8999
  660SOL     OW 6664   1.652   7.866   9.499  0.2015  0.3647  0.2761
  660SOL    HW1 6665   1.561   7.839   9.510 -0.5076  1.8741 -1.3289
  660SOL    HW2 6666   1.698   7.823   9.570 -2.0222  0.7712  2.0984
  661SOL     OW 6667   6.969   7.634   9.350 -0.0354 -0.2145 -0.3798
  661SOL    HW1 6668   6.916   7.708   9.320 -1.9031 -0.8315  1.1619
  661SOL    HW2 6669   6.907   7.577   9.395  1.9346 -1.0535  1.4455
  662SOL     OW 6670  10.587   0.475   0.751 -0.1045 -0.3547 -0.1609
  662SOL    HW1 6671  10.682   0.483   0.762 -0.3014  2.8744  0.2290
  662SOL    HW2 6672  10.576   0.450   0.659  1.1464  1.3421 -0.8357
  663SOL     OW 6673   4.129   6.572   9.387 -0.2020 -0.6541  0.6354
  663SOL    HW1 6674   4.105   6.524   9.466 -0.1834 -0.8382  0.5282
  663SOL    HW2 6675   4.084   6.657   9.397  0.9103 -0.1327  1.5120
  664SOL     OW 6676   1.937   3.374   3.797  0.0060 -0.2075 -0.0127
  664SOL    HW1 6677   1.897   3.461   3.796 -2.7193 -1.3675 -0.2978
  664SOL    HW2 6678   1.947   3.351   3.704  0.3639 -0.3749  0.0644
  665SOL     OW 6679   3.360   5.596  10.876  0.4697  0.1097 -0.6342
  665SOL    HW1 6680   3.452   5.620  10.870 -0.0288  3.7995  2.3584
  665SOL    HW2 6681   3.348   5.570  10.968 -1.4717 -0.1307 -0.9109
  666SOL     OW 6682   1.357   6.766   7.689  0.1409 -0.5579 -0.0173
  666SOL    HW1 6683   1.285   6.790   7.630 -1.3028 -0.4685  1.7227
  666SOL    HW2 6684   1.372   6.673   7.672  0.3828 -0.3311 -1.1564
  667SOL     OW 6685   2.723   8.039   1.139  0.3853 -0.3591 -0.1813
  667SOL    HW1 6686   2.640   8.014   1.098  0.4404 -0.5186 -0.1969
  667SOL    HW2 6687   2.742   7.967   1.199  0.4059 -0.2217 -0.0221
  668SOL     OW 6688   5.299   6.292   1.145  0.2685 -0.4802  0.5226
  668SOL    HW1 6689   5.358   6.295   1.221 -1.0288 -1.5631  1.6288
  668SOL    HW2 6690   5.243   6.369   1.155 -0.6691 -1.2461  1.3511
  669SOL     OW 6691   8.433   4.838   9.730 -0.2414 -0.4955  0.2961
  669SOL    HW1 6692   8.472   4.924   9.715  0.3455 -0.6813  0.7180
  669SOL    HW2 6693   8.391   4.815   9.647 -0.7364  0.3624  0.2974
  670SOL     OW 6694   0.824  10.789   8.711  0.3302 -1.0929 -0.7158
  670SOL    HW1 6695   0.732  10.777   8.734 -0.5279 -0.1313 -3.2051
  670SOL    HW2 6696   0.828  10.877   8.673  1.8329 -1.8309 -2.4579
  671SOL     OW 6697   5.796  10.326   9.997 -0.1678 -0.3004 -0.5720
  671SOL    HW1 6698   5.754  10.271   9.931 -1.0066 -0.4617  0.0775
  671SOL    HW2 6699   5.728  10.341  10.063  0.1832  1.1429 -0.5007
  672SOL     OW 6700  11.928  10.475   6.192  0.3556  0.7118 -0.0835
  672SOL    HW1 6701  11.942  10.564   6.226  0.1170  1.4650 -1.8445
  672SOL    HW2 6702  11.855  10.441   6.243 -0.9860  2.3716 -0.8114
  673SOL     OW 6703   9.497   2.106   5.601  0.1627  0.2143 -0.5453
  673SOL    HW1 6704   9.411   2.090   5.641 -0.6161  0.6513 -1.9538
  673SOL    HW2 6705   9.528   2.019   5.575 -0.3008  0.1406 -0.8700
  674SOL     OW 6706   0.187   1.339   0.378  0.0552  0.6209  0.1710
  674SOL    HW1 6707   0.224   1.405   0.319 -1.6401  2.9922  1.5342
  674SOL    HW2 6708   0.244   1.341   0.454  0.7665 -0.5130 -0.3237
  675SOL     OW 6709   8.419   4.905  11.372 -0.3522  0.7636  0.4104
  675SOL    HW1 6710   8.477   4.848  11.423 -0.9279  0.2808  0.5422
  675SOL    HW2 6711   8.346   4.923  11.431 -0.5077  1.0804  0.1243
  676SOL     OW 6712   7.187   5.954   0.011  0.9744  0.0488  0.0171
  676SOL    HW1 6713   7.206   5.933   0.103 -1.1720  0.2981  0.5706
  676SOL    HW2 6714   7.240   6.031  -0.007  0.0128  1.1847  1.6984
  677SOL     OW 6715   0.629   7.811   4.688  0.1257 -0.0652  0.1770
  677SOL    HW1 6716   0.658   7.804   4.779  0.8848 -1.5994 -0.1469
  677SOL    HW2 6717   0.563   7.741   4.679  0.2337 -0.0789 -0.5125
  678SOL     OW 6718   1.322  10.389   5.124 -0.3494  0.3018  0.0435
  678SOL    HW1 6719   1.324  10.338   5.043  0.0440  0.7550 -0.2380
  678SOL    HW2 6720   1.358  10.330   5.190  1.2470  0.6033 -0.5190
  679SOL     OW 6721   9.658   7.436   9.280  0.3251  0.0291 -0.1701
  679SOL    HW1 6722   9.741   7.402   9.249  0.0205 -1.0757  0.1480
  679SOL    HW2 6723   9.631   7.500   9.214  1.7830  0.9930  0.1262
  680SOL     OW 6724  11.131   4.101   6.308  0.3214  0.2185 -0.2461
  680SOL    HW1 6725  11.192   4.163   6.268 -0.2481  0.3036 -1.0124
  680SOL    HW2 6726  11.140   4.116   6.402  1.0616  0.6202 -0.3672
  681SOL     OW 6727   0.173  10.402   7.060  0.2167  0.2165  0.0455
  681SOL    HW1 6728   0.268  10.409   7.072  0.2309 -1.1269  0.9328
  681SOL    HW2 6729   0.160  10.400   6.966  1.1344 -0.2741 -0.0778
  682SOL     OW 6730   6.861   1.897   6.345  0.3924  0.1842  0.3835
  682SOL    HW1 6731   6.824   1.833   6.283  2.5093 -2.3605  1.5706
  682SOL    HW2 6732   6.808   1.886   6.424 -0.7381  1.6868 -0.1095
  683SOL     OW 6733   4.920   1.559   2.606  0.3062 -0.5463  0.2441
  683SOL    HW1 6734   4.865   1.544   2.530  0.0688 -0.1822  0.3406
  683SOL    HW2 6735   4.868   1.615   2.663  1.2205  0.7866 -0.1849
  684SOL     OW 6736   5.277   1.178   6.073 -0.0634  0.0173  0.2385
  684SOL    HW1 6737   5.329   1.098   6.081 -1.8559 -1.2289  0.1905
  684SOL    HW2 6738   5.186   1.147   6.079 -0.8536  1.8748 -1.2879
  685SOL     OW 6739   1.229   9.261   2.343  0.0196 -0.7079 -0.5567
  685SOL    HW1 6740   1.190   9.183   2.304 -0.4192 -0.5026 -0.5325
  685SOL    HW2 6741   1.221   9.247   2.438 -0.9626 -0.1959 -0.5491
  686SOL     OW 6742   6.870  11.180   6.428  0.0639 -0.8109  0.2087
  686SOL    HW1 6743   6.881  11.270   6.396  1.5181 -1.2678 -0.6839
  686SOL    HW2 6744   6.864  11.189   6.523 -0.6958  0.2924  0.0774
  687SOL     OW 6745  10.996   6.189   4.598  0.1669 -0.1479  0.0327
  687SOL    HW1 6746  11.018   6.098   4.579  0.8424 -0.0713  0.4331
  687SOL    HW2 6747  10.943   6.217   4.524  1.6589 -0.2471 -1.1071
  688SOL     OW 6748   5.912   2.561   9.856  0.3742  0.3670  0.1452
  688SOL    HW1 6749   5.989   2.617   9.849  0.5710  0.1720  0.7202
  688SOL    HW2 6750   5.858   2.585   9.781  0.8098  0.7895 -0.0355
  689SOL     OW 6751   4.378   1.341   9.877 -0.1596 -0.4214 -0.0023
  689SOL    HW1 6752   4.450   1.401   9.899  1.3322 -2.4818  1.0921
  689SOL    HW2 6753   4.418   1.254   9.881 -2.4978 -1.5756 -0.3930
  690SOL     OW 6754  11.005  11.176  10.717 -0.3960  0.1545 -0.0486
  690SOL    HW1 6755  11.003  11.272  10.713 -1.0722  0.1131 -0.9584
  690SOL    HW2 6756  10.913  11.150  10.722 -0.2783 -0.4949 -1.0976
  691SOL     OW 6757   1.980  11.464   4.958 -0.3732 -0.1214  0.5218
  691SOL    HW1 6758   2.072  11.437   4.963 -0.3372 -0.1444 -0.1924
  691SOL    HW2 6759   1.982  11.558   4.979 -0.0860  0.0434 -0.1976
  692SOL     OW 6760  11.832   6.468   0.868 -0.0548  0.5801  0.1710
  692SOL    HW1 6761  11.788   6.548   0.840  0.2916 -0.2735 -3.2262
  692SOL    HW2 6762  11.812   6.404   0.800  3.1447 -1.0075  0.5164
  693SOL     OW 6763   5.445   0.806   8.727  0.0514 -0.1751  0.1478
  693SOL    HW1 6764   5.508   0.844   8.665 -0.1788 -0.8868 -0.5350
  693SOL    HW2 6765   5.360   0.838   8.698  0.0224  0.2667  0.6890
  694SOL     OW 6766   9.835   5.353   8.065 -0.1667  0.5072  0.1810
  694SOL    HW1 6767   9.857   5.276   8.117  1.2279  1.1402  0.5948
  694SOL    HW2 6768   9.745   5.374   8.090  0.1463  0.2206  1.6420
  695SOL     OW 6769   9.667   0.743   7.286  0.3577  0.3804  0.5596
  695SOL    HW1 6770   9.699   0.661   7.250 -0.0086  0.3945  0.2051
  695SOL    HW2 6771   9.717   0.811   7.241  1.3408  0.3326  1.5218
  696SOL     OW 6772   6.304   4.111   1.242  0.5320 -0.1771 -0.2638
  696SOL    HW1 6773   6.257   4.192   1.226  0.2639 -0.0980  0.8777
  696SOL    HW2 6774   6.387   4.138   1.282  0.2026 -0.4913  0.6414
  697SOL     OW 6775   4.500   9.667   7.312 -0.2953  0.3638  0.5395
  697SOL    HW1 6776   4.416   9.711   7.326 -1.4217 -1.2225 -0.7723
  697SOL    HW2 6777   4.511   9.611   7.388 -0.7427  0.1384  0.4430
  698SOL     OW 6778   5.268  11.997   6.748 -0.1405  0.7922  0.2030
  698SOL    HW1 6779   5.349  11.946   6.756  0.0151  1.1580  1.1731
  698SOL    HW2 6780   5.198  11.934   6.767 -0.1160  0.3928 -0.9915
  699SOL     OW 6781   1.402   2.085   0.506  0.1901 -0.2335 -0.2416
  699SOL    HW1 6782   1.399   2.142   0.429 -0.9877 -0.4455 -0.3716
  699SOL    HW2 6783   1.349   2.129   0.571 -1.8522 -1.7339 -0.7725
  700SOL     OW 6784   6.605  11.126  11.631  0.1199 -0.5049  0.1293
  700SOL    HW1 6785   6.681  11.107  11.577  0.9561 -0.3389  1.2152
  700SOL    HW2 6786   6.532  11.132  11.569  0.4515 -3.4094 -0.6853
  701SOL     OW 6787   3.119   5.599   1.673  0.3727 -0.0491  0.7065
  701SOL    HW1 6788   3.052   5.663   1.650  0.3536 -0.3784 -0.1652
  701SOL    HW2 6789   3.070   5.525   1.709  0.2540 -0.3247 -0.0084
  702SOL     OW 6790   9.099   0.806   0.600 -0.0832 -0.3781 -0.3676
  702SOL    HW1 6791   9.109   0.723   0.647  1.6431 -0.0896 -0.1431
  702SOL    HW2 6792   9.182   0.817   0.553  0.9860  2.6038  1.9065
  703SOL     OW 6793   2.590   9.302  11.586 -0.7432 -0.0409  0.3505
  703SOL    HW1 6794   2.654   9.337  11.649 -1.4731  1.4541  0.2966
  703SOL    HW2 6795   2.535   9.244  11.639  1.7810 -3.0135  0.0394
  704SOL     OW 6796   3.309  11.473   9.084 -0.4552 -0.1407 -0.5804
  704SOL    HW1 6797   3.265  11.448   9.003 -0.3405 -2.8019  0.0994
  704SOL    HW2 6798   3.351  11.557   9.063 -1.3524 -0.1874 -2.8923
  705SOL     OW 6799   8.632  10.200   8.502  0.5509  0.4486  0.0738
  705SOL    HW1 6800   8.587  10.139   8.443 -0.0638  1.4209 -0.4781
  705SOL    HW2 6801   8.599  10.177   8.589  0.8818 -0.4876 -0.0392
  706SOL     OW 6802   1.627   0.266   6.754  0.7643  0.1241  0.3067
  706SOL    HW1 6803   1.641   0.360   6.737  0.0605  0.0848 -0.5680
  706SOL    HW2 6804   1.551   0.243   6.700  1.0560 -1.0028  0.3569
  707SOL     OW 6805  10.770   9.408   1.732 -0.2909  0.2016  0.1280
  707SOL    HW1 6806  10.782   9.494   1.692 -0.3321 -0.6455 -1.8490
  707SOL    HW2 6807  10.678   9.388   1.719 -0.3857  0.0293  0.9880
  708SOL     OW 6808  10.927  11.210   2.921  0.2431 -0.2833  0.4063
  708SOL    HW1 6809  10.903  11.233   3.010  0.0896 -0.3523  0.3829
  708SOL    HW2 6810  10.844  11.204   2.874  0.3136 -0.3808  0.2913
  709SOL     OW 6811   2.918  11.164  10.474  0.0026  0.1605 -0.1892
  709SOL    HW1 6812   2.940  11.071  10.479  1.6220  0.5479  0.7170
  709SOL    HW2 6813   2.877  11.183  10.558  0.6669  0.4803  0.0707
  710SOL     OW 6814   4.464   4.382   2.795 -0.2305  0.5936  0.1039
  710SOL    HW1 6815   4.527   4.348   2.731 -0.1203 -2.1305  1.5067
  710SOL    HW2 6816   4.378   4.358   2.761 -0.2162 -0.1354  0.5690
  711SOL     OW 6817   4.422   7.377   8.195 -0.0811 -0.3852 -0.2762
  711SOL    HW1 6818   4.446   7.288   8.217 -1.1072 -0.3936  0.8671
  711SOL    HW2 6819   4.331   7.371   8.164 -0.8002  0.4819  1.5590
  712SOL     OW 6820   3.652   3.247  10.802 -0.7289  0.5805  0.6072
  712SOL    HW1 6821   3.722   3.263  10.739 -1.2390 -0.9264 -0.3804
  712SOL    HW2 6822   3.693   3.194  10.871 -0.4140  1.4347  1.1028
  713SOL     OW 6823  11.209   2.770   4.917 -0.0393  0.4951  0.0335
  713SOL    HW1 6824  11.153   2.781   4.840 -0.3921 -1.6072 -0.0607
  713SOL    HW2 6825  11.148   2.780   4.991 -0.7242 -2.2645 -0.0747
  714SOL     OW 6826   3.581   7.129   2.589  0.0754  0.3570  0.1003
  714SOL    HW1 6827   3.630   7.100   2.512 -0.4443 -2.5356  0.7215
  714SOL    HW2 6828   3.639   7.110   2.662 -0.3236  0.9225  0.5679
  715SOL     OW 6829   8.227  10.305   7.911 -0.2753  0.1575 -0.3249
  715SOL    HW1 6830   8.202  10.279   7.823 -0.7152  1.3196 -0.5563
  715SOL    HW2 6831   8.146  10.337   7.951 -0.1062 -0.4785  0.5456
  716SOL     OW 6832   3.695   2.787   1.504 -0.3730 -0.1877  0.0914
  716SOL    HW1 6833   3.694   2.766   1.411 -1.6041  0.1138  0.0188
  716SOL    HW2 6834   3.769   2.847   1.515  0.7949 -1.4746 -0.3784
  717SOL     OW 6835   5.613   2.417  10.868 -0.3452 -0.0119  0.3345
  717SOL    HW1 6836   5.518   2.415  10.879 -0.2548  0.4537  1.2732
  717SOL    HW2 6837   5.648   2.397  10.955  0.4144 -0.1251  0.0092
  718SOL     OW 6838   8.146   8.406   8.900  0.4048 -0.2969  0.3761
  718SOL    HW1 6839   8.185   8.357   8.973 -2.0048 -2.2172  0.4937
  718SOL    HW2 6840   8.099   8.478   8.943 -1.2146 -1.5649  0.8390
  719SOL     OW 6841   2.998   7.173   9.653  0.0198  0.0042  0.5824
  719SOL    HW1 6842   2.945   7.212   9.583  0.2726  2.0164  1.4475
  719SOL    HW2 6843   3.076   7.141   9.609  0.0753  1.0436 -0.1118
  720SOL     OW 6844   3.071   0.404   9.824 -0.0375  0.4657 -0.4529
  720SOL    HW1 6845   2.988   0.383   9.781 -1.7136 -0.8164  3.0137
  720SOL    HW2 6846   3.055   0.489   9.866 -0.7801 -1.0185  2.5458
  721SOL     OW 6847   2.963   2.361   4.918 -0.0115 -0.0867 -0.0512
  721SOL    HW1 6848   2.963   2.272   4.955  0.2908  0.4021  1.1669
  721SOL    HW2 6849   3.054   2.390   4.925 -0.6090  1.5051  2.6148
  722SOL     OW 6850   2.074   7.350   2.250 -0.7668  0.5495 -0.3412
  722SOL    HW1 6851   2.160   7.342   2.209 -1.0016  1.5948 -1.0827
  722SOL    HW2 6852   2.050   7.442   2.239 -1.4545  0.5522  0.9345
  723SOL     OW 6853   5.978   1.035   4.382  0.1605  0.3433 -0.2076
  723SOL    HW1 6854   6.061   1.043   4.336  1.2595  0.8892  1.7522
  723SOL    HW2 6855   5.912   1.059   4.317  1.5893  0.6372 -1.6042
  724SOL     OW 6856   7.390   6.318   7.840 -0.2028  0.4002 -0.4769
  724SOL    HW1 6857   7.296   6.339   7.843  0.0100  1.6190 -1.4672
  724SOL    HW2 6858   7.418   6.321   7.931 -1.6133 -2.5314  0.1499
  725SOL     OW 6859   3.274   2.416   4.081 -0.1555 -0.4516 -0.1822
  725SOL    HW1 6860   3.292   2.394   3.990  0.3013 -1.0790  0.0519
  725SOL    HW2 6861   3.214   2.491   4.076 -2.0645 -1.9250 -1.0256
  726SOL     OW 6862   5.827   1.591   9.188  0.0125  0.2915  0.0564
  726SOL    HW1 6863   5.826   1.659   9.255 -0.1799 -0.3428  0.7083
  726SOL    HW2 6864   5.744   1.601   9.141 -0.6830 -0.4135  1.1042
  727SOL     OW 6865   6.862   8.623   5.053  0.1370  0.5965  0.6419
  727SOL    HW1 6866   6.869   8.677   5.132 -0.6332 -0.0580  1.1772
  727SOL    HW2 6867   6.795   8.559   5.074  0.6931 -0.2747 -0.1603
  728SOL     OW 6868   5.021   6.866   0.528 -0.3027  0.4314  0.2510
  728SOL    HW1 6869   4.987   6.949   0.562 -1.1526  0.2424 -0.1199
  728SOL    HW2 6870   4.994   6.865   0.436 -2.4623 -1.3486  0.8247
  729SOL     OW 6871  10.919   8.821  11.049 -0.2032  0.1359 -0.0959
  729SOL    HW1 6872  11.006   8.859  11.040 -0.4518  0.8485  0.4287
  729SOL    HW2 6873  10.859   8.896  11.048 -0.8829 -0.3957 -1.2295
  730SOL     OW 6874   3.303   9.832  11.755  0.0736 -0.2388 -0.3488
  730SOL    HW1 6875   3.237   9.872  11.812  1.2346 -0.4742  1.2189
  730SOL    HW2 6876   3.271   9.743  11.741 -0.2674 -0.1535 -0.1376
  731SOL     OW 6877   4.871   9.059   6.381  0.1861  0.1886 -0.7436
  731SOL    HW1 6878   4.923   9.082   6.304 -0.5182 -0.8688 -1.5762
  731SOL    HW2 6879   4.780   9.076   6.355  0.0305  1.3719  0.4467
  732SOL     OW 6880   5.297   9.319   2.235 -0.3397  0.9969  0.3515
  732SOL    HW1 6881   5.207   9.294   2.256 -0.3678  0.5779 -0.2305
  732SOL    HW2 6882   5.324   9.378   2.306 -0.6926  0.2512  1.1185
  733SOL     OW 6883   5.094   5.558   1.979 -0.4935  0.3378 -0.1411
  733SOL    HW1 6884   5.064   5.526   1.893 -2.1910  0.7296  0.2550
  733SOL    HW2 6885   5.168   5.616   1.958 -0.4233 -0.1268 -1.2753
  734SOL     OW 6886   1.962   2.129  11.027 -0.5365  0.0121 -0.5202
  734SOL    HW1 6887   1.962   2.181  10.947  0.7164  1.7178  0.5076
  734SOL    HW2 6888   2.006   2.048  11.004  0.4486  0.7748 -1.3971
  735SOL     OW 6889   6.868  10.787   8.385 -0.4730  0.4857 -0.2040
  735SOL    HW1 6890   6.846  10.698   8.411  2.1588 -0.7613 -1.8349
  735SOL    HW2 6891   6.925  10.819   8.455 -0.7377  0.5658 -0.0252
  736SOL     OW 6892   2.665   1.150  10.740  0.2053 -0.2504 -0.1836
  736SOL    HW1 6893   2.573   1.147  10.767  0.1031  0.3392 -0.4508
  736SOL    HW2 6894   2.696   1.235  10.772  1.0258 -1.0045  1.0706
  737SOL     OW 6895  11.629  10.747   4.030  0.5956  0.1359  0.1966
  737SOL    HW1 6896  11.587  10.676   4.079  1.3056 -0.8727 -0.6224
  737SOL    HW2 6897  11.559  10.780   3.973  0.9701 -1.9452 -1.6155
  738SOL     OW 6898   0.001   3.981   4.533  0.3983  0.1529 -0.0264
  738SOL    HW1 6899  -0.030   3.893   4.552  0.4610 -0.2373 -1.6036
  738SOL    HW2 6900   0.094   3.970   4.513 -0.1759  0.0554 -3.1019
  739SOL     OW 6901  11.348   5.106   2.552 -0.3014 -0.0658 -0.0104
  739SOL    HW1 6902  11.320   5.189   2.515 -0.7403 -0.8051 -1.4273
  739SOL    HW2 6903  11.443   5.106   2.543 -0.3796 -0.1179 -0.9535
  740SOL     OW 6904   9.859   0.134  10.870 -0.2044 -0.5046 -0.9045
  740SOL    HW1 6905   9.910   0.183  10.804  0.1253  0.0390 -0.2562
  740SOL    HW2 6906   9.833   0.054  10.824  1.1229 -0.7364 -1.3087
  741SOL     OW 6907  11.245   1.356   6.603  0.4786  0.4647 -0.1042
  741SOL    HW1 6908  11.172   1.316   6.651  0.7250  0.1395  0.0067
  741SOL    HW2 6909  11.280   1.285   6.549  1.0778  0.4516  0.2802
  742SOL     OW 6910   9.745  11.686   5.709  0.0540 -1.1725  0.4493
  742SOL    HW1 6911   9.732  11.735   5.790 -0.7688 -2.5190  1.1574
  742SOL    HW2 6912   9.683  11.726   5.647  1.0234  0.1768  0.2873
  743SOL     OW 6913   5.297  10.007   0.303  0.1719  0.3614  0.3800
  743SOL    HW1 6914   5.204  10.024   0.315  0.5179  2.2509  0.8317
  743SOL    HW2 6915   5.302   9.942   0.233 -1.4954 -0.5538  1.0762
  744SOL     OW 6916   4.761   8.191   3.064 -0.4571 -0.1077  0.7124
  744SOL    HW1 6917   4.673   8.209   3.030 -0.7235 -0.3901  1.2486
  744SOL    HW2 6918   4.754   8.207   3.158  0.2050  0.3893  0.6836
  745SOL     OW 6919   9.477   1.935   8.182  0.2923 -0.0052 -0.3011
  745SOL    HW1 6920   9.549   1.971   8.129 -0.6992  0.8447 -1.1036
  745SOL    HW2 6921   9.420   2.010   8.199 -0.9735 -0.8760 -0.5981
  746SOL     OW 6922   8.527   8.276   0.311  0.0378 -0.0996  0.2583
  746SOL    HW1 6923   8.532   8.336   0.386  0.2686  1.6770 -1.0967
  746SOL    HW2 6924   8.554   8.192   0.346  0.5740  0.7567  2.0691
  747SOL     OW 6925   8.905   0.737   9.952 -0.1216 -0.0436  0.2129
  747SOL    HW1 6926   8.842   0.809   9.952 -0.5707 -0.4331 -0.1957
  747SOL    HW2 6927   8.969   0.761   9.884 -1.2525 -0.8633 -1.1914
  748SOL     OW 6928   0.210   4.722   1.580  0.6566  0.3222 -0.4007
  748SOL    HW1 6929   0.296   4.762   1.569  0.0295  1.6135 -0.7103
  748SOL    HW2 6930   0.148   4.794   1.575 -0.6030 -0.7828 -2.1943
  749SOL     OW 6931  10.603   5.757   8.586 -0.3334 -0.2965 -0.3119
  749SOL    HW1 6932  10.641   5.683   8.633  0.3899  0.6022  0.5623
  749SOL    HW2 6933  10.602   5.730   8.494  4.3675  0.3093 -0.7787
  750SOL     OW 6934   0.560   6.356   5.971  1.0521 -0.1058 -0.0677
  750SOL    HW1 6935   0.559   6.310   5.888  1.3118  0.3799 -0.3426
  750SOL    HW2 6936   0.507   6.302   6.029 -0.3163  0.2738 -0.9256
  751SOL     OW 6937   8.311   9.799   9.426  0.2272 -0.4557 -0.0893
  751SOL    HW1 6938   8.269   9.877   9.390 -0.3114 -0.6975 -0.0050
  751SOL    HW2 6939   8.238   9.741   9.448  0.4702 -0.0746  1.9436
  752SOL     OW 6940   9.636  11.985   8.343 -0.1697 -0.0992 -0.8103
  752SOL    HW1 6941   9.707  12.049   8.341 -0.9109  0.7863 -0.0001
  752SOL    HW2 6942   9.556  12.038   8.344 -0.7973 -1.0157  0.2969
  753SOL     OW 6943   8.346   1.220   8.224  0.3230 -0.0760  0.0528
  753SOL    HW1 6944   8.370   1.258   8.140  1.2648 -1.1272 -0.1705
  753SOL    HW2 6945   8.258   1.254   8.241  0.8922  1.7467 -0.3838
  754SOL     OW 6946   9.249   2.302   7.832  0.1991 -0.0870  0.5514
  754SOL    HW1 6947   9.323   2.247   7.804  0.4416  0.7572 -0.5441
  754SOL    HW2 6948   9.251   2.298   7.927  0.5656 -1.4983  0.5123
  755SOL     OW 6949  10.122   7.672   8.882  0.0244 -0.2576  0.4803
  755SOL    HW1 6950  10.148   7.761   8.859  0.9852 -0.6223  0.1164
  755SOL    HW2 6951  10.107   7.629   8.798 -0.8861 -0.3187  0.6645
  756SOL     OW 6952   1.091   6.639   3.575  0.5180 -0.2601  0.0152
  756SOL    HW1 6953   1.157   6.585   3.618 -0.7696 -0.1968  2.1791
  756SOL    HW2 6954   1.139   6.680   3.502  1.8049 -3.3922 -1.0988
  757SOL     OW 6955   9.259   9.152   1.049  0.6134  0.7102 -0.6136
  757SOL    HW1 6956   9.278   9.114   0.964 -0.8535 -0.7123 -0.3528
  757SOL    HW2 6957   9.177   9.201   1.035  1.1489  1.7035 -0.3512
  758SOL     OW 6958   6.985   1.630   3.447  0.4669 -0.2144  0.2292
  758SOL    HW1 6959   6.981   1.716   3.405  0.5261 -0.1667  0.3178
  758SOL    HW2 6960   6.963   1.568   3.378 -0.0663 -0.0941  0.2877
  759SOL     OW 6961   4.158   1.371   6.517  0.0562 -0.5953 -0.0426
  759SOL    HW1 6962   4.252   1.362   6.500 -0.4133 -0.5293 -3.3145
  759SOL    HW2 6963   4.116   1.319   6.448 -2.3184  0.4213  0.5295
  760SOL     OW 6964  10.156   0.105   4.536 -0.0246 -0.0086  0.4167
  760SOL    HW1 6965  10.209   0.035   4.497  1.9641  1.1970  0.8042
  760SOL    HW2 6966  10.220   0.161   4.581 -1.3016  2.8577 -1.0571
  761SOL     OW 6967   4.707   2.902   6.553  0.0347  0.9673  0.0828
  761SOL    HW1 6968   4.708   2.975   6.615 -1.4468 -0.1017  1.4371
  761SOL    HW2 6969   4.658   2.833   6.597 -2.1829  0.5442 -2.7114
  762SOL     OW 6970   5.323   9.862   4.876 -0.2053  0.0085 -0.0060
  762SOL    HW1 6971   5.354   9.923   4.943 -2.2022  2.2181 -0.9667
  762SOL    HW2 6972   5.322   9.777   4.920  1.8357  0.7616  1.6644
  763SOL     OW 6973   6.511   8.165   3.243 -0.0345  0.2022  0.0963
  763SOL    HW1 6974   6.479   8.255   3.240 -0.5245  0.1752  2.4794
  763SOL    HW2 6975   6.471   8.123   3.167 -2.7704  1.1294  0.9056
  764SOL     OW 6976   1.825   0.136   0.866  0.4321  0.0587  0.4598
  764SOL    HW1 6977   1.770   0.155   0.941  0.0237 -0.0206  0.1863
  764SOL    HW2 6978   1.779   0.175   0.791  1.2595  0.8774  0.3645
  765SOL     OW 6979  11.931   0.776   7.468  0.3076  0.5166  0.0565
  765SOL    HW1 6980  11.856   0.765   7.409  0.0047 -0.4878  0.6150
  765SOL    HW2 6981  11.989   0.836   7.421 -0.1070  0.0515 -1.0812
  766SOL     OW 6982  11.025   3.878   8.204  0.0621  0.3302 -0.0314
  766SOL    HW1 6983  10.973   3.798   8.191  0.7808 -0.2680  0.6518
  766SOL    HW2 6984  10.971   3.948   8.167 -1.0211 -0.3373  0.2308
  767SOL     OW 6985   1.467   1.249   4.035  0.0687  0.2876  0.0296
  767SOL    HW1 6986   1.552   1.291   4.046  0.2465 -0.2396  0.7778
  767SOL    HW2 6987   1.409   1.297   4.094  0.2324 -0.3740  0.7524
  768SOL     OW 6988   1.270   1.586  10.516 -0.3771  0.0819  0.0404
  768SOL    HW1 6989   1.359   1.607  10.486 -0.4464  2.0714  1.1128
  768SOL    HW2 6990   1.282   1.558  10.607 -0.8525  0.2272  0.1476
  769SOL     OW 6991  11.746  11.414   3.777  0.1371  0.3731  0.9447
  769SOL    HW1 6992  11.772  11.474   3.846 -1.5950  2.6196 -0.2256
  769SOL    HW2 6993  11.658  11.384   3.803 -0.1349  0.5019  0.2040
  770SOL     OW 6994   6.978   2.757   5.001 -0.1255  0.4482  0.2932
  770SOL    HW1 6995   6.988   2.818   5.073  1.7435  3.0258 -1.9170
  770SOL    HW2 6996   7.064   2.716   4.992 -0.7072 -0.8176  0.3020
  771SOL     OW 6997   9.954   2.590   1.402  0.1955 -0.4634  0.4175
  771SOL    HW1 6998  10.022   2.624   1.345 -2.0637  2.2385 -0.8901
  771SOL    HW2 6999   9.951   2.650   1.476 -1.3636  0.0548 -0.0274
  772SOL     OW 7000   2.028   0.857   0.325  0.1171 -0.2803  0.1850
  772SOL    HW1 7001   2.007   0.826   0.413  0.7660  1.7869  1.1466
  772SOL    HW2 7002   2.028   0.953   0.333 -2.2365  0.1010 -2.6414
  773SOL     OW 7003   1.296   5.352   8.211  0.1988 -0.2047  0.3792
  773SOL    HW1 7004   1.380   5.396   8.224  0.5319 -0.0050 -1.9613
  773SOL    HW2 7005   1.303   5.314   8.124 -2.3071  0.1885 -0.0576
  774SOL     OW 7006   0.589   9.550   6.642  0.7214  0.1308 -0.6369
  774SOL    HW1 7007   0.553   9.510   6.562  0.8614 -0.5148 -0.3789
  774SOL    HW2 7008   0.669   9.500   6.660  0.0730 -0.5229  0.5749
  775SOL     OW 7009  10.680   3.270   0.190 -0.7774  0.8399 -0.6923
  775SOL    HW1 7010  10.765   3.227   0.195 -1.0723  0.1167 -1.6354
  775SOL    HW2 7011  10.632   3.221   0.123 -1.8390  1.4066 -0.3719
  776SOL     OW 7012   5.079   5.410   4.987  0.1827  0.7829 -0.3644
  776SOL    HW1 7013   5.138   5.391   4.914 -0.0099 -0.6848 -0.1769
  776SOL    HW2 7014   5.001   5.357   4.969  0.5741 -0.4708  1.4465
  777SOL     OW 7015   3.963  11.704   3.920 -0.1341 -0.0404 -0.3184
  777SOL    HW1 7016   4.028  11.669   3.981  0.4890  1.1134 -0.3045
  777SOL    HW2 7017   4.008  11.774   3.873 -1.5928  1.3844  0.3009
  778SOL     OW 7018   9.271   7.399   1.569 -0.0713 -0.0913 -0.0831
  778SOL    HW1 7019   9.197   7.351   1.530 -1.1214  0.8930  0.6459
  778SOL    HW2 7020   9.275   7.481   1.520  1.9260 -0.9734 -1.5459
  779SOL     OW 7021   1.541   5.533  11.331  0.2416 -0.6012 -0.1528
  779SOL    HW1 7022   1.447   5.532  11.310 -0.2155  2.5973  1.0715
  779SOL    HW2 7023   1.545   5.504  11.422  0.4878 -0.9964 -0.2893
  780SOL     OW 7024   4.374   5.395   9.135 -0.7777 -0.4845 -0.0657
  780SOL    HW1 7025   4.412   5.440   9.211  0.3336 -2.4143  0.5878
  780SOL    HW2 7026   4.280   5.403   9.147 -0.6165  0.5074  0.7153
  781SOL     OW 7027  11.686   9.301   0.274  0.1264  0.3882  0.7686
  781SOL    HW1 7028  11.592   9.318   0.266 -0.0654 -0.8539  0.1128
  781SOL    HW2 7029  11.707   9.327   0.364 -0.6788  1.3862  0.6806
  782SOL     OW 7030   2.656   2.131   6.299 -0.7250 -0.3368 -0.5723
  782SOL    HW1 7031   2.694   2.171   6.377 -1.7261 -0.0047 -0.2303
  782SOL    HW2 7032   2.728   2.125   6.237 -0.3992  1.5283 -0.4471
  783SOL     OW 7033   2.349   3.005   0.820  0.3415  0.6249 -0.1001
  783SOL    HW1 7034   2.280   3.017   0.885  1.8260  0.4451  1.5828
  783SOL    HW2 7035   2.323   3.062   0.748  0.4168  3.7730  2.1220
  784SOL     OW 7036   0.221   7.933   1.920  0.6472  0.1949  0.2535
  784SOL    HW1 7037   0.149   7.944   1.983  0.1585  0.8230 -0.4022
  784SOL    HW2 7038   0.293   7.982   1.958  0.0844  1.3153 -0.0857
  785SOL     OW 7039  11.029   3.297   8.133 -0.0585 -0.8769 -0.2220
  785SOL    HW1 7040  11.113   3.254   8.147 -0.7688 -2.3530 -0.2337
  785SOL    HW2 7041  10.969   3.253   8.194 -0.9225 -0.1724 -0.5357
  786SOL     OW 7042   7.838   1.837   7.027 -0.0095  0.2701  0.3141
  786SOL    HW1 7043   7.836   1.798   7.114 -0.7668  0.9171  0.6000
  786SOL    HW2 7044   7.780   1.913   7.033 -0.1393  0.2789 -0.7791
  787SOL     OW 7045   3.450   5.698   9.568  0.6275 -0.3583  0.8288
  787SOL    HW1 7046   3.485   5.742   9.646  0.4088 -0.2604  0.8728
  787SOL    HW2 7047   3.454   5.605   9.590  2.0338 -0.4365  0.3475
  788SOL     OW 7048  11.266   4.086   0.055  0.0896 -0.1884  0.1114
  788SOL    HW1 7049  11.344   4.038   0.025 -0.3422 -0.8112 -0.0492
  788SOL    HW2 7050  11.229   4.030   0.123 -1.0523 -0.6671 -0.8566
  789SOL     OW 7051   1.612   2.927  10.995  0.0658  0.1260 -0.0618
  789SOL    HW1 7052   1.550   2.861  11.025 -1.3400 -0.4780 -3.8427
  789SOL    HW2 7053   1.569   3.010  11.012 -0.3991 -0.1593  0.1709
  790SOL     OW 7054   3.892   9.837   6.907  0.1122 -0.4267 -0.4971
  790SOL    HW1 7055   3.971   9.850   6.960 -0.8605  1.0113  0.6799
  790SOL    HW2 7056   3.835   9.784   6.962 -0.8265  0.9025 -0.1289
  791SOL     OW 7057   8.322   5.766  11.167  0.1576  0.2170  0.1670
  791SOL    HW1 7058   8.319   5.671  11.159  0.8915  0.2687 -0.9492
  791SOL    HW2 7059   8.298   5.798  11.080 -0.5776  1.0740  0.6660
  792SOL     OW 7060   4.580   3.006  11.764  0.1876  0.5573 -0.1259
  792SOL    HW1 7061   4.622   3.073  11.711  0.1137 -0.2487 -1.2364
  792SOL    HW2 7062   4.489   3.033  11.770  0.7542  2.3124  2.2900
  793SOL     OW 7063   7.048   0.273   7.774  0.0970  0.0935  0.4335
  793SOL    HW1 7064   7.094   0.284   7.691 -2.1221 -1.1919 -1.0812
  793SOL    HW2 7065   7.081   0.344   7.830  0.6793  1.8703 -1.9954
  794SOL     OW 7066   9.531   3.035  11.253 -0.1135 -0.4295  0.3686
  794SOL    HW1 7067   9.497   2.977  11.321 -2.3601  0.4461  0.0652
  794SOL    HW2 7068   9.482   3.012  11.174  1.3253 -0.3437 -0.5979
  795SOL     OW 7069   6.402   5.791   8.383  0.4376  0.0256 -0.2321
  795SOL    HW1 7070   6.362   5.850   8.319  0.5249  0.6926  0.3176
  795SOL    HW2 7071   6.334   5.728   8.404 -0.0079  0.5604 -0.0443
  796SOL     OW 7072  11.857  11.769   9.921  0.1192 -0.3438  0.4917
  796SOL    HW1 7073  11.909  11.766  10.001  1.1713  0.6724 -0.1083
  796SOL    HW2 7074  11.766  11.769   9.950  0.4412 -1.8698  1.5906
  797SOL     OW 7075   4.303   1.654   3.592  0.1104  0.3416  0.1836
  797SOL    HW1 7076   4.272   1.736   3.629 -0.9737  0.1764 -0.3304
  797SOL    HW2 7077   4.294   1.591   3.663  0.8739  0.6308  0.5550
  798SOL     OW 7078   4.076   7.470   2.108  0.7254  0.1643  0.2963
  798SOL    HW1 7079   4.037   7.522   2.038  0.0728  0.7907  1.1023
  798SOL    HW2 7080   4.063   7.379   2.081  0.5625  0.3996 -0.4289
  799SOL     OW 7081   8.776   1.475  10.799  0.4714  0.1144  0.1605
  799SOL    HW1 7082   8.744   1.385  10.809  1.3169 -0.2452 -0.2588
  799SOL    HW2 7083   8.850   1.480  10.858  0.8411  0.3234 -0.3173
  800SOL     OW 7084   3.971   7.192   9.809 -0.5809 -0.1694  0.3006
  800SOL    HW1 7085   3.945   7.102   9.829 -0.4119 -0.4960 -0.8474
  800SOL    HW2 7086   3.973   7.236   9.893 -0.3487 -1.3308  0.9257
  801SOL     OW 7087  11.128   5.062   6.446  0.1716 -0.0722 -0.1503
  801SOL    HW1 7088  11.180   5.119   6.503 -1.0061  0.4899  0.4053
  801SOL    HW2 7089  11.150   5.090   6.358 -0.9094  1.7999  0.1117
  802SOL     OW 7090   1.537   2.836   9.787  0.0188 -0.3295 -0.2966
  802SOL    HW1 7091   1.565   2.915   9.741  1.1239 -1.3694 -1.5108
  802SOL    HW2 7092   1.507   2.867   9.872  1.7835  1.2539 -0.1774
  803SOL     OW 7093   8.943   5.022   4.940  0.4323  0.3289 -0.3747
  803SOL    HW1 7094   8.952   5.112   4.970  0.5946  0.0522  0.4092
  803SOL    HW2 7095   8.849   5.011   4.925  0.3914  0.5670 -0.2959
  804SOL     OW 7096   7.413   7.215   2.142  0.6427  0.1263  0.0534
  804SOL    HW1 7097   7.483   7.264   2.187 -0.4792 -0.6656  2.8776
  804SOL    HW2 7098   7.334   7.234   2.193 -0.5548 -1.6024 -1.0670
  805SOL     OW 7099   8.114   9.437   1.904 -0.1392  0.3079 -0.0346
  805SOL    HW1 7100   8.082   9.350   1.879  0.4584  0.8641 -3.1392
  805SOL    HW2 7101   8.039   9.478   1.947 -0.7260 -1.3828  0.6688
  806SOL     OW 7102   0.748   2.103   5.950 -0.5411 -0.5696 -0.1935
  806SOL    HW1 7103   0.811   2.176   5.952 -2.0432  0.7721  1.3358
  806SOL    HW2 7104   0.704   2.112   5.866 -1.2603  0.8260  0.3068
  807SOL     OW 7105   0.232   3.639   7.201 -0.1102  0.7475  0.0150
  807SOL    HW1 7106   0.248   3.713   7.259 -0.1209  1.0586 -0.3737
  807SOL    HW2 7107   0.201   3.679   7.119  1.4328  0.4119 -0.7616
  808SOL     OW 7108   2.095  11.823   4.472 -0.0976  0.3373 -0.1647
  808SOL    HW1 7109   2.059  11.891   4.529  0.3386  1.2241 -0.9285
  808SOL    HW2 7110   2.044  11.830   4.391 -1.9187 -2.0597  0.6317
  809SOL     OW 7111   8.480   2.848   9.873  0.3517  0.1267  0.3673
  809SOL    HW1 7112   8.497   2.837   9.779  0.5269  0.2998  0.3796
  809SOL    HW2 7113   8.562   2.823   9.915  0.9487  1.9359  0.3704
  810SOL     OW 7114   0.238   2.263   3.128  0.5158 -0.1081 -0.3463
  810SOL    HW1 7115   0.251   2.276   3.034  0.2254 -2.0582 -0.6831
  810SOL    HW2 7116   0.171   2.195   3.135 -0.7277  1.1884  1.3106
  811SOL     OW 7117  10.150   0.442  10.968  0.5336 -0.0454 -0.5151
  811SOL    HW1 7118  10.086   0.513  10.974 -0.9103 -0.9938 -3.1233
  811SOL    HW2 7119  10.229   0.484  10.935  0.4495  0.6937  0.1806
  812SOL     OW 7120   1.971  11.843   7.412  0.2427 -0.0766 -0.8426
  812SOL    HW1 7121   1.895  11.863   7.357  0.3220  0.3995 -0.7869
  812SOL    HW2 7122   1.988  11.925   7.458 -0.4028 -0.7201  0.6047
  813SOL     OW 7123   0.921   8.095   2.651  0.2570  0.3028 -0.4073
  813SOL    HW1 7124   0.891   8.127   2.566  0.3845 -0.4317 -0.7369
  813SOL    HW2 7125   0.930   8.174   2.705 -1.9184  0.6001 -0.4007
  814SOL     OW 7126   1.401   0.380   3.431 -0.0187 -0.0912 -0.1032
  814SOL    HW1 7127   1.322   0.377   3.377  0.9121 -2.1713 -1.4656
  814SOL    HW2 7128   1.376   0.334   3.512 -0.2370 -0.6525 -0.4836
  815SOL     OW 7129   9.868   0.304   4.078 -0.4177  0.1191 -0.5987
  815SOL    HW1 7130   9.896   0.320   4.168 -1.5304  2.2029 -0.5560
  815SOL    HW2 7131   9.891   0.385   4.031  0.8328 -1.2017 -2.4083
  816SOL     OW 7132   9.533   7.907   4.631 -0.4783  0.3769  0.0664
  816SOL    HW1 7133   9.498   7.920   4.719  0.2066 -2.0963  0.7918
  816SOL    HW2 7134   9.457   7.882   4.578 -0.5958 -0.1432  0.4690
  817SOL     OW 7135   3.941   9.841   6.137 -0.0400 -0.0816  1.1033
  817SOL    HW1 7136   3.904   9.851   6.049 -1.9517 -0.8248  1.7609
  817SOL    HW2 7137   3.961   9.930   6.165 -0.7809  0.2987  0.4652
  818SOL     OW 7138   9.330   5.872   5.890 -0.2802 -0.0762 -0.7484
  818SOL    HW1 7139   9.377   5.839   5.966 -1.1360  0.9029  0.2308
  818SOL    HW2 7140   9.361   5.818   5.817  0.9615 -0.6627  0.1900
  819SOL     OW 7141   2.344  10.193   3.845  0.2239 -0.5561 -0.0316
  819SOL    HW1 7142   2.409  10.179   3.777 -2.2032 -0.9585 -2.4233
  819SOL    HW2 7143   2.359  10.283   3.874  0.6861 -0.0061 -1.8612
  820SOL     OW 7144  10.534  10.476  10.906 -0.3903  0.2958 -0.4270
  820SOL    HW1 7145  10.466  10.525  10.861 -0.2711  2.4027  1.4487
  820SOL    HW2 7146  10.509  10.480  10.999  1.9650  0.7286  0.2735
  821SOL     OW 7147   5.863   5.326   5.813  0.4570  0.0455  0.0656
  821SOL    HW1 7148   5.828   5.337   5.902  0.2499  1.0079 -0.1193
  821SOL    HW2 7149   5.958   5.322   5.825  0.6869  3.0829  0.1471
  822SOL     OW 7150   0.039   5.928   6.856 -0.3764 -0.2416 -0.0211
  822SOL    HW1 7151  -0.004   5.846   6.834 -0.0886 -0.6805  1.0255
  822SOL    HW2 7152   0.133   5.909   6.848 -0.3044 -0.0648  0.3940
  823SOL     OW 7153   9.172   5.470   2.020 -0.2509 -0.2772 -0.0133
  823SOL    HW1 7154   9.189   5.467   1.926 -0.1238  1.2150 -0.0695
  823SOL    HW2 7155   9.192   5.382   2.051  0.3606 -0.6095 -1.2761
  824SOL     OW 7156   9.109   5.687   0.134  0.2558 -0.6780  0.0168
  824SOL    HW1 7157   9.060   5.613   0.170  2.6390 -1.8625  1.0552
  824SOL    HW2 7158   9.180   5.702   0.197  0.9780  1.2604 -1.1463
  825SOL     OW 7159  10.716   5.980   8.857 -0.3170 -0.1099 -0.1674
  825SOL    HW1 7160  10.777   5.924   8.906 -0.1001  0.5453  0.3344
  825SOL    HW2 7161  10.755   5.988   8.770 -0.1951 -0.4865 -0.1524
  826SOL     OW 7162   5.451   4.551   4.221  0.2871  0.1236  0.0809
  826SOL    HW1 7163   5.385   4.482   4.228  0.5428 -0.0160  1.3195
  826SOL    HW2 7164   5.411   4.617   4.165 -1.7547  0.9910  2.3924
  827SOL     OW 7165  11.924   1.380  11.736  0.1811 -0.3445  0.2265
  827SOL    HW1 7166  11.886   1.306  11.783 -0.3136 -0.1475  0.1382
  827SOL    HW2 7167  11.994   1.342  11.683 -0.5568 -0.8633 -0.3898
  828SOL     OW 7168   3.794   7.285   0.215 -0.1114 -0.1945 -0.0685
  828SOL    HW1 7169   3.805   7.220   0.146 -0.8676 -0.4967  0.0907
  828SOL    HW2 7170   3.745   7.356   0.175  1.4060  0.6769 -0.4754
  829SOL     OW 7171   1.356  11.197   2.890 -0.1291 -0.4585  0.3991
  829SOL    HW1 7172   1.414  11.135   2.847 -0.8188 -0.4224 -0.6463
  829SOL    HW2 7173   1.289  11.143   2.932 -0.8771 -0.4574 -0.7287
  830SOL     OW 7174   5.409   7.715   2.968  0.0682 -0.2152  0.2613
  830SOL    HW1 7175   5.319   7.681   2.969  1.2481 -3.8093  2.0776
  830SOL    HW2 7176   5.435   7.712   2.877 -0.9601 -1.3846 -0.0314
  831SOL     OW 7177   0.724   5.352   5.573 -0.6173 -0.1418  0.0900
  831SOL    HW1 7178   0.788   5.423   5.576  0.7219 -1.3195  1.1186
  831SOL    HW2 7179   0.758   5.287   5.634 -1.6304 -1.7991 -1.0224
  832SOL     OW 7180   9.040   4.283   7.263 -0.2089 -0.0731  0.1722
  832SOL    HW1 7181   9.070   4.219   7.198  0.8067  1.1188 -0.5880
  832SOL    HW2 7182   9.113   4.292   7.323  0.2765  1.4441 -0.5889
  833SOL     OW 7183   7.283   7.084   7.885 -0.0676 -0.6365 -0.1393
  833SOL    HW1 7184   7.284   7.147   7.956  2.2895  0.4800 -1.0503
  833SOL    HW2 7185   7.197   7.096   7.843 -1.2209 -0.8493  2.0269
  834SOL     OW 7186   0.129   3.019   0.049 -0.7793 -0.3427  0.0196
  834SOL    HW1 7187   0.192   3.011   0.121  0.9203 -0.9558 -1.4628
  834SOL    HW2 7188   0.097   2.930   0.035 -1.0238 -0.2449 -0.0541
  835SOL     OW 7189   8.500   6.020  11.594  0.2893 -0.0739  0.0239
  835SOL    HW1 7190   8.414   6.059  11.582  0.2764  0.6494  1.9787
  835SOL    HW2 7191   8.518   5.975  11.512 -1.3394  0.9187 -0.9387
  836SOL     OW 7192   2.337   2.241   6.575  0.1321  0.2075 -0.2487
  836SOL    HW1 7193   2.286   2.316   6.542 -1.0008  0.0853  1.1262
  836SOL    HW2 7194   2.273   2.171   6.583  0.7139 -0.2265  0.6666
  837SOL     OW 7195  11.683   1.565   1.478 -0.0815 -0.7554 -0.0244
  837SOL    HW1 7196  11.590   1.575   1.498  0.0589 -1.8916  1.3959
  837SOL    HW2 7197  11.728   1.613   1.547  0.3907 -2.8291  1.2168
  838SOL     OW 7198  11.454   9.985   6.634  0.4274  0.2816 -0.0784
  838SOL    HW1 7199  11.453  10.050   6.564  2.8237  1.2084  0.6374
  838SOL    HW2 7200  11.532  10.007   6.686  0.2418 -2.0087  1.3101
  839SOL     OW 7201  11.116   0.026   7.261 -0.4690  0.3115 -0.1410
  839SOL    HW1 7202  11.050  -0.042   7.251  0.3056 -0.3686 -0.8804
  839SOL    HW2 7203  11.199  -0.023   7.266 -0.0912  1.0674  1.8785
  840SOL     OW 7204   7.494   8.420   4.917  0.2514  0.0681  0.1470
  840SOL    HW1 7205   7.470   8.464   4.836  0.1083 -0.0327  0.1353
  840SOL    HW2 7206   7.429   8.448   4.981 -0.1963 -0.5956 -0.0098
  841SOL     OW 7207   3.538   7.561  10.699 -0.6311 -0.0912 -0.4689
  841SOL    HW1 7208   3.529   7.643  10.650 -1.7912 -0.4869 -0.9487
  841SOL    HW2 7209   3.633   7.548  10.707 -0.3941  1.7141  0.3454
  842SOL     OW 7210   9.257  10.794   9.999 -0.1254  0.0352  0.4653
  842SOL    HW1 7211   9.274  10.775   9.907 -1.5199  0.5557  0.0675
  842SOL    HW2 7212   9.231  10.886  10.000  0.3404  0.1702  1.4540
  843SOL     OW 7213  10.311   7.142   1.627 -0.5916  0.1858  0.8212
  843SOL    HW1 7214  10.391   7.187   1.654  0.2490  0.0179 -1.1949
  843SOL    HW2 7215  10.338   7.050   1.617 -0.6317  0.3599 -1.2400
  844SOL     OW 7216  10.878   3.091   3.859 -0.4497  0.7995 -0.0616
  844SOL    HW1 7217  10.891   3.147   3.783  1.0357  0.5309 -0.0230
  844SOL    HW2 7218  10.789   3.057   3.848 -0.1785  0.5602 -1.7976
  845SOL     OW 7219   9.037   2.648   4.774  0.5750  0.4088 -0.9581
  845SOL    HW1 7220   9.053   2.555   4.788  1.0915  0.5647 -0.4894
  845SOL    HW2 7221   9.078   2.667   4.690  1.0986  0.3661 -0.7168
  846SOL     OW 7222   9.678   3.058   6.150  0.3366  0.2741 -0.1261
  846SOL    HW1 7223   9.729   3.138   6.138  1.3065 -0.2712  0.2463
  846SOL    HW2 7224   9.674   3.019   6.063  0.1802  0.5363 -0.2380
  847SOL     OW 7225   6.820   4.802  11.459  0.2098 -0.3640 -0.1236
  847SOL    HW1 7226   6.757   4.739  11.494 -0.2206 -0.4740 -1.0716
  847SOL    HW2 7227   6.766   4.876  11.431  0.7963  1.0117  2.1166
  848SOL     OW 7228   2.229   6.971   2.297  0.4183  0.0981 -0.1503
  848SOL    HW1 7229   2.312   7.012   2.272  0.2190  0.5528 -0.0802
  848SOL    HW2 7230   2.249   6.878   2.302  1.0383  0.2446  0.3151
  849SOL     OW 7231   1.722   9.576   7.561  0.2638 -0.5748  0.0359
  849SOL    HW1 7232   1.737   9.499   7.616 -0.2108 -2.1868 -1.9719
  849SOL    HW2 7233   1.790   9.572   7.494  0.8720  1.3807  0.4500
  850SOL     OW 7234   9.056   5.258   3.232 -0.1657  0.4775  0.0372
  850SOL    HW1 7235   9.086   5.167   3.227  1.6430  1.0363  0.0690
  850SOL    HW2 7236   9.076   5.285   3.321 -0.9351  0.8366  0.1078
  851SOL     OW 7237   8.578   7.516   3.555  0.2983 -0.0738 -0.5195
  851SOL    HW1 7238   8.658   7.474   3.521 -0.2143 -0.9370 -0.7055
  851SOL    HW2 7239   8.580   7.605   3.520  1.5136  0.1325  0.0322
  852SOL     OW 7240   3.844   9.230   1.352 -0.0910  0.3915 -0.3873
  852SOL    HW1 7241   3.776   9.285   1.312 -0.9487  0.5146  1.1722
  852SOL    HW2 7242   3.926   9.271   1.325 -0.6096  0.4700 -1.9909
  853SOL     OW 7243  10.598   9.156  10.468 -0.2379 -0.3002  0.0405
  853SOL    HW1 7244  10.638   9.106  10.397  1.7801 -1.2148  1.7173
  853SOL    HW2 7245  10.669   9.173  10.529 -1.1314  3.4691  0.2853
  854SOL     OW 7246   0.094   7.843   9.470 -0.2522 -0.2315 -0.1622
  854SOL    HW1 7247   0.125   7.850   9.379 -0.8350  0.9279 -0.2928
  854SOL    HW2 7248   0.114   7.928   9.508 -0.7009 -0.4550  0.5823
  855SOL     OW 7249   2.234  11.766   9.937  0.3787 -0.0903  0.4120
  855SOL    HW1 7250   2.235  11.793  10.029  0.8549  0.1075  0.3532
  855SOL    HW2 7251   2.326  11.764   9.912  0.4324 -2.5889  0.6249
  856SOL     OW 7252   6.510   9.392   6.568 -0.2430  0.1848  0.8439
  856SOL    HW1 7253   6.453   9.468   6.576  0.1505  0.5352  0.3827
  856SOL    HW2 7254   6.556   9.405   6.485 -0.0480 -0.4720  0.8427
  857SOL     OW 7255   4.941   5.574   8.914 -0.9241  0.0479 -0.0789
  857SOL    HW1 7256   5.017   5.539   8.869 -2.4864 -1.7234 -1.5369
  857SOL    HW2 7257   4.911   5.503   8.971 -1.2988  0.8377  0.7513
  858SOL     OW 7258  10.588   0.334   0.495 -0.0059 -0.2827  0.5978
  858SOL    HW1 7259  10.658   0.364   0.436  1.0295  0.6362  2.2051
  858SOL    HW2 7260  10.589   0.239   0.486  0.6759 -0.2145 -0.2639
  859SOL     OW 7261  10.742   1.207   2.874 -0.1034 -0.3658  0.2043
  859SOL    HW1 7262  10.705   1.160   2.800 -0.1221  0.4007 -0.2884
  859SOL    HW2 7263  10.771   1.291   2.837  0.3440 -0.1744  0.9641
  860SOL     OW 7264   5.797   1.697  10.447  0.0329  0.3646  0.5230
  860SOL    HW1 7265   5.799   1.602  10.453  2.9724  0.3268  0.6103
  860SOL    HW2 7266   5.830   1.716  10.359  0.8787  1.2863  1.0171
  861SOL     OW 7267   8.101   0.831   1.126  0.3368  0.0068  0.0982
  861SOL    HW1 7268   8.079   0.924   1.115  0.3854  0.4004  2.6142
  861SOL    HW2 7269   8.019   0.790   1.152  0.6137 -0.3521  0.4233
  862SOL     OW 7270   0.407   0.935  11.064  0.1183  0.2980 -0.1467
  862SOL    HW1 7271   0.487   0.974  11.100 -1.0582  1.9898  0.7353
  862SOL    HW2 7272   0.338   0.997  11.086 -1.5141 -1.2899 -0.5803
  863SOL     OW 7273   9.197   3.651   2.164 -0.2363  0.1369  0.1298
  863SOL    HW1 7274   9.269   3.672   2.105 -0.2309  0.0447  0.1035
  863SOL    HW2 7275   9.184   3.557   2.153 -0.2601  0.1269  0.2477
  864SOL     OW 7276   0.201   6.893   1.261 -0.6263  0.2467  0.4799
  864SOL    HW1 7277   0.125   6.845   1.294 -0.2897 -0.3878  0.3456
  864SOL    HW2 7278   0.172   6.929   1.177 -1.2343  1.2177  1.0758
  865SOL     OW 7279   4.396   9.485  10.299 -0.6296 -0.6830  0.0825
  865SOL    HW1 7280   4.483   9.523  10.315 -0.7686 -0.0822 -0.5573
  865SOL    HW2 7281   4.341   9.520  10.369 -1.0725  1.3852 -1.2202
  866SOL     OW 7282   1.246   4.333  11.397 -0.0515  0.7629  0.0513
  866SOL    HW1 7283   1.277   4.322  11.308  0.8966  2.3890  0.1478
  866SOL    HW2 7284   1.324   4.353  11.448 -0.3828 -1.3831  1.5239
  867SOL     OW 7285   5.122  11.266   1.166 -0.6422  0.3385  0.1896
  867SOL    HW1 7286   5.169  11.349   1.160  3.1575 -1.6269 -1.6150
  867SOL    HW2 7287   5.158  11.224   1.245  0.2929 -0.9230 -0.8400
  868SOL     OW 7288   8.161   9.417   3.270  0.4109 -0.0443 -0.6145
  868SOL    HW1 7289   8.234   9.434   3.330  0.7980  1.3605 -1.4293
  868SOL    HW2 7290   8.202   9.374   3.195  0.0370 -1.1931 -0.1738
  869SOL     OW 7291   1.420   4.595   0.314  0.5551  0.1957 -0.6541
  869SOL    HW1 7292   1.438   4.541   0.237 -1.3406  1.4150 -2.0404
  869SOL    HW2 7293   1.463   4.678   0.295 -1.8019  1.3069 -1.5684
  870SOL     OW 7294  11.260  10.193  10.646  0.8046  0.1143 -0.2556
  870SOL    HW1 7295  11.355  10.203  10.646  0.7582  0.7377 -1.1650
  870SOL    HW2 7296  11.238  10.176  10.554  0.0040  0.4566 -0.1407
  871SOL     OW 7297   1.309   3.840  10.625  0.5908 -0.0452  0.0558
  871SOL    HW1 7298   1.227   3.789  10.624  1.0682 -0.8798  1.0591
  871SOL    HW2 7299   1.300   3.898  10.700 -0.1136  1.7049 -1.3079
  872SOL     OW 7300   9.153   7.251   2.845 -0.0289 -0.5821  0.3438
  872SOL    HW1 7301   9.101   7.195   2.903 -0.9502 -0.3725 -0.2531
  872SOL    HW2 7302   9.129   7.340   2.870 -2.6372 -0.4503 -2.1749
  873SOL     OW 7303   7.963   3.014   8.551  0.2241  0.2965  0.1247
  873SOL    HW1 7304   8.034   3.051   8.604  0.0330  1.7724 -0.6128
  873SOL    HW2 7305   7.887   3.068   8.572 -0.3196 -0.3305 -0.2182
  874SOL     OW 7306   4.048   8.966   9.698  0.2593 -0.1672  0.0877
  874SOL    HW1 7307   4.134   8.925   9.704  0.3447  0.0449  0.3409
  874SOL    HW2 7308   4.063   9.044   9.644  0.4323  0.4001  0.9346
  875SOL     OW 7309   1.322   6.880   3.915  0.1504 -0.0835 -0.2510
  875SOL    HW1 7310   1.372   6.809   3.954  1.4213  0.5902 -0.6193
  875SOL    HW2 7311   1.365   6.898   3.832 -1.3326 -0.1782 -1.0802
  876SOL     OW 7312   6.148  10.497   9.007  0.0511 -0.3737  0.3224
  876SOL    HW1 7313   6.090  10.509   8.932 -0.2374  0.3612  0.6514
  876SOL    HW2 7314   6.214  10.435   8.977 -0.7367 -1.0032 -0.1526
  877SOL     OW 7315  11.134   8.538   8.115 -0.1156  0.0731 -0.0177
  877SOL    HW1 7316  11.087   8.542   8.198  0.4167 -2.5591  0.5015
  877SOL    HW2 7317  11.075   8.488   8.057  0.6287 -0.4193 -0.3673
  878SOL     OW 7318   7.620   0.577  11.584 -0.4297  0.4907 -0.6994
  878SOL    HW1 7319   7.594   0.488  11.560 -1.4288  0.1571  1.3926
  878SOL    HW2 7320   7.658   0.567  11.671 -1.0071  2.1768 -0.2337
  879SOL     OW 7321   7.038   1.229   9.245 -0.5819 -0.5088 -0.0266
  879SOL    HW1 7322   7.075   1.312   9.215 -0.3915 -0.8536 -0.7812
  879SOL    HW2 7323   7.012   1.184   9.165 -0.6079 -1.2146  0.3668
  880SOL     OW 7324   8.303   5.540   8.257 -0.4276 -0.3146  0.2177
  880SOL    HW1 7325   8.383   5.590   8.243 -0.9505  0.4546 -0.1664
  880SOL    HW2 7326   8.300   5.524   8.351 -0.4310  0.7413  0.4100
  881SOL     OW 7327   0.296   4.321  11.304  1.3166  0.0777  0.5777
  881SOL    HW1 7328   0.272   4.233  11.275 -0.4990  1.2697 -1.8558
  881SOL    HW2 7329   0.373   4.343  11.250 -0.1276  1.0868 -1.1741
  882SOL     OW 7330   9.176   8.784   0.768  0.0197  0.4612 -0.3075
  882SOL    HW1 7331   9.224   8.829   0.700  2.2453 -1.0191  0.1583
  882SOL    HW2 7332   9.229   8.796   0.847  0.7974 -2.8238 -0.1684
  883SOL     OW 7333   9.353   0.186   4.557  0.4403  0.1520 -0.5514
  883SOL    HW1 7334   9.316   0.274   4.551  0.5153  0.1940 -0.4023
  883SOL    HW2 7335   9.411   0.179   4.481 -0.2240 -0.0838 -1.0430
  884SOL     OW 7336  10.524   0.495  11.193  0.2984 -0.3454 -0.2268
  884SOL    HW1 7337  10.474   0.488  11.111 -0.5571  2.5782 -0.0654
  884SOL    HW2 7338  10.459   0.482  11.262  0.5964 -0.6060  0.0094
  885SOL     OW 7339  11.156   2.830   0.573  0.4130 -0.1133 -0.2394
  885SOL    HW1 7340  11.096   2.771   0.621 -1.4732 -0.7043 -3.0627
  885SOL    HW2 7341  11.106   2.911   0.562  0.8370  0.0398 -1.1071
  886SOL     OW 7342  10.016   0.518   1.000 -0.4614 -0.4910  0.5503
  886SOL    HW1 7343  10.045   0.437   0.956  1.2615 -0.8298  2.1669
  886SOL    HW2 7344   9.929   0.535   0.964  0.2558 -1.5318 -1.8679
  887SOL     OW 7345   1.273   9.655   3.867  0.0788  0.1649 -0.3403
  887SOL    HW1 7346   1.198   9.714   3.861 -0.4213 -0.3775  0.3541
  887SOL    HW2 7347   1.234   9.568   3.877  0.7359  0.0760  2.1741
  888SOL     OW 7348  10.904   0.597   4.641 -0.0683 -0.5362 -0.1278
  888SOL    HW1 7349  10.993   0.621   4.616 -0.2783 -0.9467 -1.3013
  888SOL    HW2 7350  10.896   0.505   4.616 -0.6954 -0.6217  0.3522
  889SOL     OW 7351   0.197  11.985   3.223 -0.4575 -0.6246  0.3557
  889SOL    HW1 7352   0.272  11.961   3.278  0.6841  0.2775 -0.7237
  889SOL    HW2 7353   0.136  12.027   3.283  1.5151  1.9552  0.7438
  890SOL     OW 7354   7.606   9.405   0.747  0.4850 -0.2723 -0.0214
  890SOL    HW1 7355   7.665   9.341   0.706  2.6233  0.0060  2.3373
  890SOL    HW2 7356   7.581   9.365   0.830 -0.1985  0.8914  0.3519
  891SOL     OW 7357   3.110   7.374   3.609 -0.0561 -0.0680 -0.4989
  891SOL    HW1 7358   3.116   7.417   3.524 -0.3576 -1.3318 -1.1937
  891SOL    HW2 7359   3.038   7.311   3.599 -2.5907  2.2215  1.8640
  892SOL     OW 7360  10.478   7.332   6.461  0.0949  0.7023 -0.2709
  892SOL    HW1 7361  10.466   7.238   6.445  2.9983  0.3734 -1.1081
  892SOL    HW2 7362  10.443   7.374   6.382 -1.2168  0.3757  0.1058
  893SOL     OW 7363   6.373   2.355   4.803 -0.5463  0.7094 -0.1421
  893SOL    HW1 7364   6.430   2.286   4.769  0.8671  2.2485 -1.0121
  893SOL    HW2 7365   6.284   2.323   4.784 -0.0688 -1.8042  1.4068
  894SOL     OW 7366   6.155  10.095   1.506 -0.2144 -0.5369 -0.1057
  894SOL    HW1 7367   6.159  10.120   1.414  1.2842  0.0690  0.0938
  894SOL    HW2 7368   6.192  10.007   1.508  0.6716 -0.1736  0.0209
  895SOL     OW 7369   1.750   9.272   3.862  0.4129  0.1547 -0.1165
  895SOL    HW1 7370   1.678   9.224   3.902 -1.3884  2.5514 -0.2749
  895SOL    HW2 7371   1.708   9.336   3.805  2.7590  0.3191 -1.8245
  896SOL     OW 7372   9.265   6.490   4.906 -0.2932  0.6248 -0.1233
  896SOL    HW1 7373   9.201   6.525   4.844  0.1808 -0.6357 -1.3735
  896SOL    HW2 7374   9.322   6.565   4.926  2.6097  0.1649 -5.1238
  897SOL     OW 7375   4.818   8.324   3.785  0.6624  0.6458 -0.2417
  897SOL    HW1 7376   4.804   8.271   3.707 -0.3281  1.7396 -0.8367
  897SOL    HW2 7377   4.856   8.264   3.848  0.1393 -0.6176 -1.0949
  898SOL     OW 7378   2.353   7.654   3.514 -0.0308 -0.1637  0.5135
  898SOL    HW1 7379   2.329   7.579   3.460  0.4444 -1.9298  2.6022
  898SOL    HW2 7380   2.432   7.689   3.472  0.4435 -1.6010  0.1415
  899SOL     OW 7381  10.702  10.696  11.634 -0.1042  0.1583 -0.1596
  899SOL    HW1 7382  10.698  10.601  11.636  2.4599 -0.0140  0.1142
  899SOL    HW2 7383  10.627  10.722  11.580 -1.1235 -1.9491  0.1267
  900SOL     OW 7384   3.701   5.855   3.668  0.4263 -0.2153 -0.1393
  900SOL    HW1 7385   3.631   5.920   3.678 -1.2705 -1.6078 -2.0863
  900SOL    HW2 7386   3.782   5.906   3.672 -0.8020  1.9484 -0.9701
  901SOL     OW 7387   6.947   3.243   5.212  0.1293  0.0131 -0.0855
  901SOL    HW1 7388   6.882   3.313   5.213 -0.4708 -0.5548  0.7112
  901SOL    HW2 7389   6.975   3.234   5.303  1.2784  0.1958 -0.4028
  902SOL     OW 7390   1.209   4.924  11.830  0.2053  0.4497 -0.0956
  902SOL    HW1 7391   1.302   4.919  11.852 -0.0943 -0.1949  1.0955
  902SOL    HW2 7392   1.178   5.003  11.875  0.1043  0.4790 -0.2153
  903SOL     OW 7393   5.849   2.023   2.840  0.1561  0.4728 -0.3967
  903SOL    HW1 7394   5.899   1.942   2.823 -0.4138 -0.6059  2.5292
  903SOL    HW2 7395   5.779   2.022   2.775 -0.1808 -1.7459 -0.0793
  904SOL     OW 7396   9.663   1.736   7.209  0.3984  0.1563 -0.1351
  904SOL    HW1 7397   9.688   1.777   7.292  0.3973  0.0348 -0.0746
  904SOL    HW2 7398   9.624   1.807   7.158 -1.6911 -0.2358  0.8342
  905SOL     OW 7399   9.553   5.519  11.595 -0.2003 -0.5394 -0.8876
  905SOL    HW1 7400   9.596   5.434  11.604  0.6435 -0.1066 -0.6175
  905SOL    HW2 7401   9.538   5.548  11.685  0.4502  0.0352 -0.9522
  906SOL     OW 7402  11.183   5.209  10.899 -0.3822 -0.2266  0.4106
  906SOL    HW1 7403  11.180   5.261  10.979  2.3106  1.6908 -0.5741
  906SOL    HW2 7404  11.148   5.266  10.831 -0.7687 -1.0834 -0.1348
  907SOL     OW 7405   5.675   4.118  11.637  0.5724 -0.5999 -0.0159
  907SOL    HW1 7406   5.656   4.107  11.544 -2.2637 -0.8228  0.4918
  907SOL    HW2 7407   5.671   4.030  11.674 -0.8935 -0.2801  0.6763
  908SOL     OW 7408   7.489   0.020   9.950 -0.1393 -0.1688  0.0530
  908SOL    HW1 7409   7.404   0.062   9.933 -0.6328  0.1304  2.8553
  908SOL    HW2 7410   7.532   0.019   9.864 -1.3684  3.2121 -0.7700
  909SOL     OW 7411   1.483   6.518   5.528 -0.2241  0.2549  0.3778
  909SOL    HW1 7412   1.451   6.585   5.468 -1.5510  0.7359  1.5679
  909SOL    HW2 7413   1.441   6.437   5.499 -1.4107  0.6095  1.0182
  910SOL     OW 7414   7.639   8.111   2.645  0.0966 -0.1329  0.3796
  910SOL    HW1 7415   7.681   8.026   2.661 -0.7627 -0.5234  0.6423
  910SOL    HW2 7416   7.589   8.128   2.725 -1.1969 -0.2609 -0.3741
  911SOL     OW 7417   3.005   6.047  10.459 -0.1459  0.6840 -0.3147
  911SOL    HW1 7418   3.063   6.123  10.468  1.2117 -0.3135 -0.2242
  911SOL    HW2 7419   3.008   6.004  10.545 -0.9834  0.5723 -0.3320
  912SOL     OW 7420   9.387   6.886   5.910 -0.1365  0.5743 -0.3449
  912SOL    HW1 7421   9.292   6.887   5.901 -0.0150  0.4516 -1.7920
  912SOL    HW2 7422   9.403   6.928   5.995 -1.4656  0.6944 -0.1331
  913SOL     OW 7423   8.192   5.935   8.623  0.0205 -0.2115 -0.3408
  913SOL    HW1 7424   8.166   5.888   8.544 -1.2066  0.8230 -0.5782
  913SOL    HW2 7425   8.179   5.871   8.693  0.8096 -1.0273 -0.9135
  914SOL     OW 7426   0.451   9.109   2.187  0.0032 -0.0867  0.9221
  914SOL    HW1 7427   0.538   9.073   2.201 -0.2462 -0.6598  1.0518
  914SOL    HW2 7428   0.461   9.170   2.114  0.3232 -0.8754  0.2946
  915SOL     OW 7429   3.905   8.908   3.832  0.2226 -0.3959 -0.1483
  915SOL    HW1 7430   3.858   8.860   3.764  1.9049 -0.6319 -1.2023
  915SOL    HW2 7431   3.855   8.891   3.912  0.1438 -3.0797 -0.6581
  916SOL     OW 7432   2.445   1.105  10.888  0.0258 -0.5502 -0.0817
  916SOL    HW1 7433   2.355   1.137  10.893  0.6581  1.5219 -0.7810
  916SOL    HW2 7434   2.483   1.131  10.972  0.7742  1.4610 -0.9715
  917SOL     OW 7435  11.082   7.203   2.694 -0.2525  0.1659  0.1680
  917SOL    HW1 7436  11.047   7.123   2.733  0.2310  0.6636  1.6960
  917SOL    HW2 7437  11.015   7.231   2.632 -0.0049 -1.9353 -1.1666
  918SOL     OW 7438   0.283  10.752   6.721 -0.2067  0.8401  0.1172
  918SOL    HW1 7439   0.200  10.792   6.748 -0.2814  2.6089 -2.3913
  918SOL    HW2 7440   0.349  10.820   6.735  0.6419 -0.1309  0.9666
  919SOL     OW 7441   5.935   5.103   5.253 -0.6556 -0.4174  0.0363
  919SOL    HW1 7442   5.852   5.056   5.246 -1.2942  0.2876  2.0979
  919SOL    HW2 7443   5.917   5.173   5.316  1.4283 -0.0471  0.2743
  920SOL     OW 7444   7.860   7.964   9.572  0.1980  0.4305 -0.4512
  920SOL    HW1 7445   7.835   8.018   9.647 -1.2765 -0.9805  0.1173
  920SOL    HW2 7446   7.945   7.928   9.595  0.2194  0.8171  0.0842
  921SOL     OW 7447   2.629   1.863   0.101  0.0801  0.1822 -0.0157
  921SOL    HW1 7448   2.570   1.930   0.067 -1.0875 -0.0344  1.4964
  921SOL    HW2 7449   2.572   1.788   0.120  1.0243 -0.4401  0.4218
  922SOL     OW 7450  10.254   0.374   5.188 -0.0117 -0.0453 -0.6620
  922SOL    HW1 7451  10.226   0.444   5.247 -0.7892 -0.9123  0.0373
  922SOL    HW2 7452  10.292   0.308   5.246 -0.7061 -0.8772 -1.1298
  923SOL     OW 7453   6.793  11.658   7.489  0.3307 -0.2808  0.2507
  923SOL    HW1 7454   6.887  11.641   7.501 -0.3910 -3.2754  3.4426
  923SOL    HW2 7455   6.765  11.592   7.425  0.3969  0.8729 -1.0077
  924SOL     OW 7456  10.056   0.480  10.392 -0.0016 -0.4285 -0.3575
  924SOL    HW1 7457   9.960   0.480  10.384 -0.0405 -0.9219  0.0251
  924SOL    HW2 7458  10.077   0.391  10.421  0.4215  0.1945  1.3256
  925SOL     OW 7459   7.851   1.507   4.258 -0.8450  0.5377  0.1204
  925SOL    HW1 7460   7.836   1.424   4.213  3.6964 -0.5284  0.1466
  925SOL    HW2 7461   7.856   1.573   4.188  3.0860 -0.6181 -0.9507
  926SOL     OW 7462   7.458   0.750   5.286  0.0354 -0.0302 -0.1802
  926SOL    HW1 7463   7.406   0.829   5.301  0.3589  0.0552  0.5597
  926SOL    HW2 7464   7.548   0.779   5.292  0.2753 -0.9224  3.4964
  927SOL     OW 7465   6.680   3.665   7.855 -0.4064  0.4018 -0.6807
  927SOL    HW1 7466   6.690   3.591   7.915 -1.0769  0.3400 -0.6318
  927SOL    HW2 7467   6.746   3.728   7.884 -0.7844  0.4140  0.1955
  928SOL     OW 7468   6.774  11.854   6.027  0.2960 -0.3757 -0.5620
  928SOL    HW1 7469   6.851  11.902   6.058  0.3591  0.5438 -2.0161
  928SOL    HW2 7470   6.804  11.809   5.948 -0.0700 -1.9208  0.1486
  929SOL     OW 7471   0.727   2.040   8.324  0.3707  0.2398 -0.4844
  929SOL    HW1 7472   0.661   2.041   8.254  0.8372  1.1690 -0.9362
  929SOL    HW2 7473   0.697   2.107   8.385 -0.1476 -0.7178  0.3324
  930SOL     OW 7474   1.911   9.085  10.160  0.5964  0.0188  0.2084
  930SOL    HW1 7475   1.986   9.080  10.101  0.7727  1.1937  0.3114
  930SOL    HW2 7476   1.897   9.179  10.174 -1.4717 -0.1059 -0.5625
  931SOL     OW 7477   1.700  11.878  11.438 -0.3305  0.4115  0.0470
  931SOL    HW1 7478   1.685  11.813  11.506  1.8096 -2.1177 -1.7059
  931SOL    HW2 7479   1.777  11.927  11.467 -0.3830  0.4193  0.1720
  932SOL     OW 7480  11.221   1.621  10.025 -0.5770 -0.2098  0.7395
  932SOL    HW1 7481  11.309   1.639   9.991 -0.9828 -0.6698 -0.6333
  932SOL    HW2 7482  11.164   1.678   9.973 -1.3013 -1.4379  0.1709
  933SOL     OW 7483  10.861   1.022   5.838  0.2051 -0.7303 -0.3473
  933SOL    HW1 7484  10.884   0.937   5.800  0.1199 -0.7907 -0.2649
  933SOL    HW2 7485  10.882   1.085   5.770  1.8531 -0.6516  0.1910
  934SOL     OW 7486   7.885   7.175   7.950 -0.0356  0.5042 -0.1534
  934SOL    HW1 7487   7.950   7.163   8.019  0.1164  0.4306 -0.3103
  934SOL    HW2 7488   7.836   7.093   7.948  0.6514  0.0999 -0.8551
  935SOL     OW 7489  11.437   1.872   5.350  0.0099  0.4572 -0.3286
  935SOL    HW1 7490  11.460   1.898   5.261 -4.8192  0.7296 -1.7939
  935SOL    HW2 7491  11.422   1.955   5.397 -1.9618  0.4300 -0.8060
  936SOL     OW 7492   7.475   4.175   0.790  0.2531 -0.5523 -0.0825
  936SOL    HW1 7493   7.389   4.132   0.794 -1.4515  2.5063 -1.0781
  936SOL    HW2 7494   7.517   4.138   0.712 -0.7791 -0.9961 -0.4373
  937SOL     OW 7495   1.874   6.925   5.461  1.1229  0.7010 -0.6234
  937SOL    HW1 7496   1.966   6.898   5.459  1.7731  2.4384  1.6191
  937SOL    HW2 7497   1.859   6.954   5.551 -1.3033  1.5575 -1.2179
  938SOL     OW 7498   7.078   3.505   8.181 -0.0276  0.0350 -0.1189
  938SOL    HW1 7499   7.158   3.492   8.129 -0.7812  2.5806 -2.1156
  938SOL    HW2 7500   7.079   3.598   8.203 -1.7798 -0.1709  0.9838
  939SOL     OW 7501   5.326   4.427   7.431 -0.1274  0.0270 -0.2405
  939SOL    HW1 7502   5.321   4.508   7.482 -0.1681 -0.0616 -0.1026
  939SOL    HW2 7503   5.270   4.442   7.356 -0.8598 -0.2153  0.2526
  940SOL     OW 7504   2.487   7.199   4.698 -0.1927 -0.1166  0.0071
  940SOL    HW1 7505   2.409   7.237   4.740  0.6442 -0.2209  1.7213
  940SOL    HW2 7506   2.490   7.109   4.731  1.7642  0.4764  1.6550
  941SOL     OW 7507   0.980   5.319  11.605  0.3368 -0.1734  0.3963
  941SOL    HW1 7508   1.004   5.298  11.695  0.3012 -1.3155  0.1586
  941SOL    HW2 7509   1.005   5.242  11.555  1.1298  0.7664 -0.7157
  942SOL     OW 7510   5.725   8.196   4.340  0.5016  0.5359 -0.0861
  942SOL    HW1 7511   5.684   8.280   4.318  0.7469  0.5643 -0.4471
  942SOL    HW2 7512   5.819   8.213   4.335  0.5569  0.0774 -0.8150
  943SOL     OW 7513   5.096   5.683   4.610 -0.3265 -0.3680 -0.3064
  943SOL    HW1 7514   5.015   5.714   4.571 -1.1720 -1.9226  0.1338
  943SOL    HW2 7515   5.093   5.715   4.700 -0.1552  0.0988 -0.4679
  944SOL     OW 7516   1.862  10.169   9.306 -0.0557 -0.5827  0.2792
  944SOL    HW1 7517   1.795  10.236   9.321 -1.0353 -1.6276  0.7200
  944SOL    HW2 7518   1.925  10.183   9.377 -1.0997 -1.1336  1.3533
  945SOL     OW 7519   0.420  10.987   9.071 -0.2899  0.6216  0.0509
  945SOL    HW1 7520   0.447  11.072   9.035 -0.2248  0.7741  0.4527
  945SOL    HW2 7521   0.393  11.007   9.161  1.8490 -0.1304  0.9308
  946SOL     OW 7522  10.227   2.488   4.186 -0.3019 -0.0503  0.3688
  946SOL    HW1 7523  10.170   2.489   4.109 -1.6469 -0.6965  1.3079
  946SOL    HW2 7524  10.171   2.517   4.257  0.6836 -0.2798  1.2540
  947SOL     OW 7525   4.237   0.303   5.738 -0.3678 -0.1520 -0.4872
  947SOL    HW1 7526   4.290   0.380   5.758  0.7099 -0.2805 -2.5655
  947SOL    HW2 7527   4.299   0.231   5.730 -1.1387 -0.8334 -0.5807
  948SOL     OW 7528   9.535   9.433   5.802 -0.8185  0.3915  0.4665
  948SOL    HW1 7529   9.560   9.340   5.805  0.1731  0.6708  1.4292
  948SOL    HW2 7530   9.551   9.465   5.890  0.5354  1.8873 -0.2680
  949SOL     OW 7531   1.110   1.588   7.582  0.2471  0.3634  0.7832
  949SOL    HW1 7532   1.205   1.598   7.584  0.6839 -2.0067 -1.8133
  949SOL    HW2 7533   1.091   1.521   7.648  0.9807 -1.9112 -1.1645
  950SOL     OW 7534   2.632   4.275   2.202  0.9316  0.1108 -0.2414
  950SOL    HW1 7535   2.602   4.281   2.293 -0.5068 -1.1826 -0.5779
  950SOL    HW2 7536   2.726   4.289   2.207  0.5464  3.1626  1.0536
  951SOL     OW 7537   4.258   2.602  10.960 -0.9663  0.1452  0.3258
  951SOL    HW1 7538   4.168   2.604  10.993 -1.4258  3.5125 -0.7255
  951SOL    HW2 7539   4.308   2.653  11.023 -0.6192  1.4752 -0.9673
  952SOL     OW 7540   1.502   8.240  11.194  0.2206 -0.4660  0.5705
  952SOL    HW1 7541   1.557   8.318  11.200 -0.2367 -0.2058  1.4348
  952SOL    HW2 7542   1.529   8.199  11.112  2.5831 -1.0140  1.5437
  953SOL     OW 7543  10.426   7.875   0.723  0.4628  0.4459 -0.5506
  953SOL    HW1 7544  10.345   7.926   0.731  0.5958  0.5721  0.0647
  953SOL    HW2 7545  10.434   7.830   0.806  1.3766  0.9648 -0.3433
  954SOL     OW 7546   2.444  11.364   5.308 -0.8299 -0.3263  0.1851
  954SOL    HW1 7547   2.476  11.372   5.398 -0.7758  2.9734  0.0157
  954SOL    HW2 7548   2.358  11.405   5.310 -1.1773 -0.9546 -1.1342
  955SOL     OW 7549   6.420  10.581   1.711 -0.0295 -0.3963  0.1652
  955SOL    HW1 7550   6.453  10.619   1.792  0.6769  0.7005 -0.6034
  955SOL    HW2 7551   6.342  10.533   1.737  1.5638 -2.2112  1.8906
  956SOL     OW 7552  10.837   1.987   3.897  0.3991  0.2358 -0.1278
  956SOL    HW1 7553  10.930   1.975   3.913 -0.0215 -0.5788  1.9957
  956SOL    HW2 7554  10.802   1.898   3.893 -0.3983  0.5486 -0.2836
  957SOL     OW 7555  10.952  11.050   8.744  0.2811  0.0295  0.1708
  957SOL    HW1 7556  10.994  11.132   8.721  1.1823 -0.6996 -0.8260
  957SOL    HW2 7557  10.915  11.018   8.662 -0.3671 -0.4062  0.6210
  958SOL     OW 7558   1.789   4.642  10.155  0.0053  0.4444  0.4857
  958SOL    HW1 7559   1.731   4.688  10.095 -1.2795  0.4967  1.7279
  958SOL    HW2 7560   1.865   4.700  10.164  1.5229 -0.7128 -3.0568
  959SOL     OW 7561   2.179   7.854  11.466  0.2301 -0.2116 -0.6511
  959SOL    HW1 7562   2.135   7.937  11.483  0.0934 -0.6880  1.6833
  959SOL    HW2 7563   2.122   7.788  11.507  2.0721 -1.0337  0.7655
  960SOL     OW 7564   8.581   2.877   8.579 -0.0101 -0.6716  0.0528
  960SOL    HW1 7565   8.563   2.970   8.592 -1.7402 -1.2112  2.3745
  960SOL    HW2 7566   8.550   2.836   8.660  1.6987 -3.1595 -0.4537
  961SOL     OW 7567   2.202   7.890   1.290 -0.2653  0.5638 -0.4180
  961SOL    HW1 7568   2.140   7.826   1.324  1.1775 -0.4972  0.2734
  961SOL    HW2 7569   2.268   7.839   1.245  1.1391  1.5119  0.4901
  962SOL     OW 7570   9.210   3.839   1.635 -0.0503  0.3898 -0.0311
  962SOL    HW1 7571   9.299   3.854   1.605 -1.0868  1.2290 -2.9838
  962SOL    HW2 7572   9.182   3.924   1.671 -0.1687  0.5819 -0.5717
  963SOL     OW 7573   2.819   8.873  10.600  0.1823  0.3128 -0.3850
  963SOL    HW1 7574   2.903   8.830  10.615 -0.2077 -0.7672 -1.2135
  963SOL    HW2 7575   2.806   8.927  10.678  1.5501  0.3513 -0.1594
  964SOL     OW 7576   6.579   8.098   8.790 -0.1507 -0.1112  0.1887
  964SOL    HW1 7577   6.591   8.056   8.875 -0.0747  0.1262  0.2971
  964SOL    HW2 7578   6.633   8.178   8.795  1.2541 -0.9547 -0.6970
  965SOL     OW 7579   4.796   2.865   7.327  0.0354 -0.0079  0.1072
  965SOL    HW1 7580   4.876   2.853   7.378 -0.1080  0.2429  0.3965
  965SOL    HW2 7581   4.759   2.947   7.359 -0.1156  0.0975 -0.3267
  966SOL     OW 7582  11.894   0.272   8.074  0.7609  0.0234  0.3307
  966SOL    HW1 7583  11.850   0.322   8.005  1.5455  0.9284  0.4586
  966SOL    HW2 7584  11.986   0.275   8.050  0.7663 -2.0255 -0.0451
  967SOL     OW 7585   0.034   2.280   4.546 -0.6351 -0.2457 -0.5832
  967SOL    HW1 7586   0.122   2.290   4.508 -0.6864  0.7333 -0.4712
  967SOL    HW2 7587   0.049   2.282   4.641 -0.8101  0.2676 -0.5648
  968SOL     OW 7588   6.123   6.673   1.282  0.3684  0.3895 -0.4419
  968SOL    HW1 7589   6.203   6.669   1.229  0.7095 -1.0528  0.1414
  968SOL    HW2 7590   6.131   6.601   1.344 -2.4424 -1.2905 -1.8359
  969SOL     OW 7591   9.716   8.494   4.006  0.3379 -0.3200 -0.0196
  969SOL    HW1 7592   9.691   8.576   3.964 -0.1755 -0.5555 -0.1812
  969SOL    HW2 7593   9.697   8.508   4.099  0.2111 -0.2664 -0.0523
  970SOL     OW 7594   0.604   3.606   0.246  0.1529  0.2994 -0.4123
  970SOL    HW1 7595   0.595   3.600   0.151  0.1221  0.6090 -0.4276
  970SOL    HW2 7596   0.697   3.624   0.260  0.2415 -0.1633 -0.3634
  971SOL     OW 7597   7.360   3.871  11.075  0.6459 -0.2326 -0.0011
  971SOL    HW1 7598   7.303   3.861  10.998 -1.4726  1.8196  1.1587
  971SOL    HW2 7599   7.364   3.784  11.114 -0.7766 -0.6824 -0.7756
  972SOL     OW 7600   5.398   9.311   8.075 -0.7948 -0.0266 -0.4614
  972SOL    HW1 7601   5.331   9.328   8.141 -0.4933 -0.3676 -0.0664
  972SOL    HW2 7602   5.354   9.255   8.011 -0.3876 -1.8136  0.7394
  973SOL     OW 7603   6.235   4.246  11.920 -0.4436 -0.2143 -0.4278
  973SOL    HW1 7604   6.211   4.193  11.844 -1.1691  0.8771 -0.9900
  973SOL    HW2 7605   6.203   4.334  11.899 -0.3309  0.1913  0.9917
  974SOL     OW 7606  10.844   5.682   5.211  0.2364  0.2885  0.1606
  974SOL    HW1 7607  10.928   5.713   5.243 -0.1313  0.8543  0.6019
  974SOL    HW2 7608  10.801   5.760   5.177 -0.3315  0.1063  0.4433
  975SOL     OW 7609   0.780   7.660   5.800 -0.0050  0.1647 -0.1622
  975SOL    HW1 7610   0.702   7.670   5.855 -1.4733 -0.2963 -2.0475
  975SOL    HW2 7611   0.765   7.578   5.752  0.7635  0.9737 -1.8724
  976SOL     OW 7612   8.420   5.947   0.424  0.0464 -0.1102  0.5728
  976SOL    HW1 7613   8.359   5.970   0.353 -0.4232 -0.9731  0.6817
  976SOL    HW2 7614   8.483   6.019   0.426 -1.7530  1.5307  1.3771
  977SOL     OW 7615   3.398   8.569   1.056  0.1845 -0.0142  0.2087
  977SOL    HW1 7616   3.405   8.487   1.007 -0.0100 -0.8312  1.5016
  977SOL    HW2 7617   3.306   8.596   1.045 -0.0219 -0.5293  0.6274
  978SOL     OW 7618   7.366   8.568   8.733 -0.0737 -0.2300 -0.2495
  978SOL    HW1 7619   7.427   8.517   8.786 -0.9468 -0.6249  0.4179
  978SOL    HW2 7620   7.354   8.516   8.654 -0.4685 -0.7657  0.1496
  979SOL     OW 7621   1.216   6.180   0.945  0.2187 -0.1507  0.1084
  979SOL    HW1 7622   1.254   6.260   0.983  0.1383 -0.1737  0.2387
  979SOL    HW2 7623   1.288   6.140   0.897 -0.1995  0.9492 -1.5091
  980SOL     OW 7624  10.941   1.850  10.672 -0.0903 -0.1825 -0.0262
  980SOL    HW1 7625  10.893   1.815  10.597 -0.0361  0.4655 -0.3762
  980SOL    HW2 7626  10.875   1.896  10.724  0.3190  1.9818 -1.2703
  981SOL     OW 7627   4.117   4.637   4.406 -0.3252 -0.1361 -0.2856
  981SOL    HW1 7628   4.040   4.582   4.389 -1.1287  0.7457  0.3429
  981SOL    HW2 7629   4.186   4.599   4.353 -0.0703 -3.3582  2.0788
  982SOL     OW 7630   1.962   1.827  10.853 -0.0791  0.1415  0.1716
  982SOL    HW1 7631   2.022   1.879  10.799  1.3286 -1.0106  0.5687
  982SOL    HW2 7632   2.016   1.796  10.926 -1.4647  0.0140  1.1737
  983SOL     OW 7633   0.987   1.983   9.957  0.1074 -0.5160  0.2060
  983SOL    HW1 7634   1.063   1.928   9.975  0.5263 -0.0091  0.0132
  983SOL    HW2 7635   0.946   1.997  10.042  1.7342  1.3719  0.7726
  984SOL     OW 7636  11.356   2.810  11.167 -0.2591 -0.6130 -0.9733
  984SOL    HW1 7637  11.295   2.878  11.139 -1.0087 -0.7753  0.2280
  984SOL    HW2 7638  11.303   2.730  11.168 -0.1610 -0.6790  0.5073
  985SOL     OW 7639   0.144   5.991   0.318  0.1947  0.1694 -0.6386
  985SOL    HW1 7640   0.111   6.061   0.261  0.1918 -0.7208 -1.7529
  985SOL    HW2 7641   0.073   5.975   0.380 -0.0715  0.6890 -0.8042
  986SOL     OW 7642   3.902   5.455   1.148 -0.6693 -0.2918 -1.2084
  986SOL    HW1 7643   3.821   5.451   1.096 -0.7740 -1.4729 -0.9702
  986SOL    HW2 7644   3.941   5.368   1.138  0.1192 -0.0114 -0.5925
  987SOL     OW 7645   5.234   8.687   3.735 -0.7694  0.0067  0.4928
  987SOL    HW1 7646   5.159   8.646   3.692 -2.3719 -0.1136  3.1845
  987SOL    HW2 7647   5.228   8.780   3.710  0.1967 -0.5271 -1.9507
  988SOL     OW 7648   4.059   0.074  10.432  0.0147 -0.3587 -0.4372
  988SOL    HW1 7649   4.068   0.065  10.337  0.0482 -1.0188 -0.3780
  988SOL    HW2 7650   4.126   0.015  10.468  1.1304  1.1261 -0.0001
  989SOL     OW 7651   7.869   0.668   6.451 -0.1131 -0.2680  0.0251
  989SOL    HW1 7652   7.835   0.745   6.406 -0.2271 -0.4574 -0.2135
  989SOL    HW2 7653   7.826   0.594   6.408 -0.3672 -0.4411  0.5623
  990SOL     OW 7654   5.343   1.804   6.438 -0.3049 -0.2234 -0.1291
  990SOL    HW1 7655   5.379   1.732   6.385  1.7116  0.0279  0.7901
  990SOL    HW2 7656   5.287   1.760   6.502 -1.6182 -0.6538 -1.5112
  991SOL     OW 7657   9.935   1.349   1.229 -0.1059 -0.1954 -0.3245
  991SOL    HW1 7658   9.950   1.260   1.260 -0.3602 -0.2051 -0.2209
  991SOL    HW2 7659   9.899   1.395   1.305  2.4436  0.7178  0.4315
  992SOL     OW 7660   1.012   5.120   4.041 -0.0912  0.1332 -0.4881
  992SOL    HW1 7661   1.073   5.084   4.107  0.7124 -1.2046 -1.8908
  992SOL    HW2 7662   1.038   5.212   4.033  2.8518 -0.7021 -2.1041
  993SOL     OW 7663   2.725   3.104   6.420 -0.4030 -0.3046  0.7022
  993SOL    HW1 7664   2.812   3.104   6.459  0.1104  1.1509 -0.3639
  993SOL    HW2 7665   2.692   3.193   6.434 -1.1605 -0.4371 -0.1085
  994SOL     OW 7666   8.744  10.829   3.694  0.1522 -0.2235  0.2675
  994SOL    HW1 7667   8.709  10.831   3.604  0.6012 -0.9653  0.0713
  994SOL    HW2 7668   8.831  10.792   3.685 -0.0070 -0.8217  1.0801
  995SOL     OW 7669   8.163   3.785   8.607  0.0724  0.3892 -0.0412
  995SOL    HW1 7670   8.197   3.702   8.643  0.5799  0.4814 -0.2897
  995SOL    HW2 7671   8.109   3.758   8.533 -0.5483  0.2282  0.4670
  996SOL     OW 7672   7.567   5.598   8.576  0.0518 -0.5550 -0.1552
  996SOL    HW1 7673   7.481   5.559   8.587  0.2273 -0.7377  0.6297
  996SOL    HW2 7674   7.625   5.524   8.557  0.1730 -0.5386  0.1349
  997SOL     OW 7675   5.205   0.553   4.423 -0.2150 -0.4989  0.1706
  997SOL    HW1 7676   5.225   0.578   4.332 -2.2167 -0.8493 -0.4192
  997SOL    HW2 7677   5.229   0.630   4.475  0.4311 -0.0780 -0.7254
  998SOL     OW 7678   3.478   2.854   8.756  0.0284 -0.1048 -0.4665
  998SOL    HW1 7679   3.426   2.829   8.680  0.7563  0.5747 -1.2028
  998SOL    HW2 7680   3.565   2.872   8.721  0.6239 -0.6856  0.6635
  999SOL     OW 7681   8.198  11.997  10.942  0.7854  0.2754 -0.3562
  999SOL    HW1 7682   8.242  11.919  10.909  3.9760  1.7548  0.0699
  999SOL    HW2 7683   8.248  12.070  10.905 -2.3347  2.2269 -1.1156
 1000SOL     OW 7684   5.674   5.491   5.713  0.3878 -0.7049 -0.1945
 1000SOL    HW1 7685   5.753   5.440   5.731  0.8079 -0.2492 -0.7124
 1000SOL    HW2 7686   5.611   5.461   5.778  1.6695  0.4698  1.6876
 1001SOL     OW 7687   3.043   8.306  10.169  0.3547 -0.1816 -0.0945
 1001SOL    HW1 7688   3.032   8.249  10.245  0.2397  0.4131  0.3389
 1001SOL    HW2 7689   3.090   8.382  10.202  0.6460 -0.0866 -0.7036
 1002SOL     OW 7690   9.958   5.648   9.939 -0.4231 -0.3739 -0.5713
 1002SOL    HW1 7691   9.895   5.636   9.867 -0.8285 -2.2640  0.0545
 1002SOL    HW2 7692   9.924   5.723   9.988 -0.2828  0.7926 -2.1674
 1003SOL     OW 7693   0.595   3.625   4.492  0.2320  0.0783  0.6508
 1003SOL    HW1 7694   0.605   3.713   4.455 -1.8321  0.3062  0.4853
 1003SOL    HW2 7695   0.589   3.567   4.416  0.0267  0.0087  0.7184
 1004SOL     OW 7696  10.123   6.197   2.777 -0.1423 -0.0316 -0.1391
 1004SOL    HW1 7697  10.065   6.267   2.807  0.3087 -0.5481  2.0929
 1004SOL    HW2 7698  10.091   6.118   2.820  1.1750 -0.6459 -0.2207
 1005SOL     OW 7699   7.235  10.701  11.339 -0.1458 -0.0950 -0.0380
 1005SOL    HW1 7700   7.285  10.742  11.268  1.3783 -0.6157  0.6856
 1005SOL    HW2 7701   7.289  10.715  11.417 -1.6392  0.1954  0.9757
 1006SOL     OW 7702   5.210   4.842   0.408 -0.5343  1.0555  0.6374
 1006SOL    HW1 7703   5.291   4.878   0.372 -1.2551  0.4515 -1.7928
 1006SOL    HW2 7704   5.191   4.897   0.484  1.0210  2.5847 -0.0102
 1007SOL     OW 7705   8.845   8.304   3.927  0.1432 -0.2606 -0.1507
 1007SOL    HW1 7706   8.750   8.312   3.938  0.1848 -0.4258  0.3433
 1007SOL    HW2 7707   8.882   8.349   4.003  0.4784  0.3926 -0.6803
 1008SOL     OW 7708  10.088   7.811   9.855  0.8169  0.4412  0.0471
 1008SOL    HW1 7709  10.110   7.782   9.767  1.5572 -0.4063  0.4953
 1008SOL    HW2 7710  10.172   7.830   9.896  0.4430  1.5051  0.3625
 1009SOL     OW 7711   4.788   8.252   4.428 -0.1898  0.1848 -0.4878
 1009SOL    HW1 7712   4.783   8.186   4.498 -0.6508  0.4258 -0.2818
 1009SOL    HW2 7713   4.710   8.305   4.441  0.6450  1.3392 -0.0847
 1010SOL     OW 7714   7.274   4.590   4.388  0.0798 -0.3128 -0.4486
 1010SOL    HW1 7715   7.187   4.629   4.394  0.2449  0.2003 -1.2990
 1010SOL    HW2 7716   7.324   4.631   4.459  0.3281  1.2481 -1.5031
 1011SOL     OW 7717   2.328   3.179   0.595 -0.1843 -0.3849  0.4140
 1011SOL    HW1 7718   2.238   3.212   0.601  0.4380  1.8551 -1.0486
 1011SOL    HW2 7719   2.369   3.235   0.528  2.1913 -1.5950  0.7564
 1012SOL     OW 7720   4.635  10.801   2.740 -0.2860  0.1435  0.2262
 1012SOL    HW1 7721   4.630  10.785   2.646 -0.2777  0.3090  0.1962
 1012SOL    HW2 7722   4.576  10.876   2.754  1.6954  1.8620 -0.0617
 1013SOL     OW 7723   0.606  11.208   0.634 -0.1879  0.0814 -0.0526
 1013SOL    HW1 7724   0.537  11.233   0.695 -0.0836  2.4754 -0.8370
 1013SOL    HW2 7725   0.560  11.191   0.551  0.1700  3.2117 -1.0176
 1014SOL     OW 7726   3.393   4.337   7.850 -0.4409 -0.5973 -0.1578
 1014SOL    HW1 7727   3.413   4.380   7.933 -1.1369 -0.8427  0.1462
 1014SOL    HW2 7728   3.477   4.329   7.806 -0.1022 -0.2180  0.4049
 1015SOL     OW 7729   7.307   0.054   7.303 -0.3706 -0.1578  0.3011
 1015SOL    HW1 7730   7.231   0.099   7.339 -1.2804 -2.0367  0.8715
 1015SOL    HW2 7731   7.271  -0.012   7.243  0.9223  0.1743 -0.9101
 1016SOL     OW 7732  11.129   7.535   2.800  0.3635 -0.1063  0.1858
 1016SOL    HW1 7733  11.171   7.570   2.721 -0.0855  1.5001  0.6207
 1016SOL    HW2 7734  11.117   7.442   2.782  0.1506  0.2492 -1.7003
 1017SOL     OW 7735   9.610  11.214   9.939 -0.2658  0.0147 -0.0699
 1017SOL    HW1 7736   9.642  11.181   9.855 -0.7411 -0.2508 -0.1508
 1017SOL    HW2 7737   9.675  11.279   9.965 -0.6637  0.8834 -1.1592
 1018SOL     OW 7738  10.583   1.622   9.258  0.3044  0.1492 -0.3242
 1018SOL    HW1 7739  10.643   1.690   9.290 -0.6232  0.5516  0.5912
 1018SOL    HW2 7740  10.601   1.546   9.314  0.6426 -0.0520 -0.6992
 1019SOL     OW 7741   9.171  10.945  11.612 -0.4051  0.3210 -0.8740
 1019SOL    HW1 7742   9.145  10.993  11.690 -1.1117 -2.3894  0.6741
 1019SOL    HW2 7743   9.230  10.877  11.643 -0.3125 -0.5480 -2.7815
 1020SOL     OW 7744   9.580   1.834   5.576 -0.5739 -0.1709  0.0579
 1020SOL    HW1 7745   9.668   1.843   5.611 -0.1381 -0.7233 -0.8543
 1020SOL    HW2 7746   9.557   1.742   5.590 -1.2485  0.1099  0.8351
 1021SOL     OW 7747   9.170   2.622  10.686  0.1792 -0.1736 -0.6045
 1021SOL    HW1 7748   9.229   2.565  10.637  0.9031  1.3824 -1.6177
 1021SOL    HW2 7749   9.121   2.669  10.619 -0.2853  0.5132  0.1988
 1022SOL     OW 7750   4.669   5.475  11.744 -0.1727  0.1318 -0.1964
 1022SOL    HW1 7751   4.709   5.553  11.705  0.7571 -0.2437 -0.0318
 1022SOL    HW2 7752   4.579   5.476  11.712  0.0325  0.8731 -0.7940
 1023SOL     OW 7753   2.841   7.646  10.164  0.4804  0.0759  0.1184
 1023SOL    HW1 7754   2.809   7.585  10.098 -0.0136  0.1623  0.2734
 1023SOL    HW2 7755   2.908   7.598  10.212  0.6010 -0.1006 -0.2309
 1024SOL     OW 7756   7.003   5.519   5.457  0.3458 -0.1135 -0.0952
 1024SOL    HW1 7757   6.928   5.466   5.485 -3.3268  3.6522 -1.5936
 1024SOL    HW2 7758   7.003   5.593   5.518  1.9302  0.6967 -1.0115
 1025SOL     OW 7759   4.693   3.625   8.285 -0.5893  0.3983 -0.1218
 1025SOL    HW1 7760   4.618   3.647   8.341 -0.1574  0.3088  0.4984
 1025SOL    HW2 7761   4.769   3.637   8.341 -0.2932 -2.5462  0.2721
 1026SOL     OW 7762   6.713   5.372   1.028 -0.0697  0.1339  0.0996
 1026SOL    HW1 7763   6.800   5.353   1.064 -0.5272 -0.4505  0.9232
 1026SOL    HW2 7764   6.652   5.343   1.096 -0.9392 -0.2250 -0.8172
 1027SOL     OW 7765   3.476   1.876   4.390 -0.4725  0.0488  0.5038
 1027SOL    HW1 7766   3.424   1.872   4.309 -1.3394 -0.3083  1.0535
 1027SOL    HW2 7767   3.452   1.960   4.430  0.9519  0.8332 -0.2330
 1028SOL     OW 7768  10.074   0.052   4.943  0.5468 -0.3110 -0.4938
 1028SOL    HW1 7769  10.154   0.082   4.899 -1.3500  2.1251 -2.5679
 1028SOL    HW2 7770  10.019   0.019   4.872 -0.4915 -1.5732  0.8451
 1029SOL     OW 7771   8.157  11.120   9.907  0.2665  0.0528 -0.0432
 1029SOL    HW1 7772   8.197  11.073   9.835  1.7206  0.3427  0.5543
 1029SOL    HW2 7773   8.210  11.199   9.918 -1.1737  1.0689  0.0104
 1030SOL     OW 7774  11.352  11.813   4.591 -0.9580  0.0501 -0.2896
 1030SOL    HW1 7775  11.272  11.785   4.546 -2.9190  0.6743  2.5675
 1030SOL    HW2 7776  11.344  11.908   4.599  0.8841  0.3323 -1.3292
 1031SOL     OW 7777   0.995  10.303   8.309 -0.4552  0.2518  0.1732
 1031SOL    HW1 7778   0.970  10.234   8.246 -1.4104 -0.0372  0.8345
 1031SOL    HW2 7779   1.074  10.341   8.273 -3.1246  2.9989 -3.5484
 1032SOL     OW 7780   5.884  11.605   9.933 -0.4940  0.3289 -0.7167
 1032SOL    HW1 7781   5.895  11.588  10.027 -1.5382  0.3566 -0.5793
 1032SOL    HW2 7782   5.967  11.577   9.894 -0.5545 -0.9798  0.0406
 1033SOL     OW 7783   4.006   5.572   8.351  0.2780 -0.1841  0.2827
 1033SOL    HW1 7784   4.078   5.606   8.405  0.5550  0.3391 -0.3963
 1033SOL    HW2 7785   3.964   5.651   8.316  0.9167 -0.5127 -1.3044
 1034SOL     OW 7786   0.902   3.316   0.262 -0.4001 -0.3355  0.4035
 1034SOL    HW1 7787   0.866   3.249   0.320 -0.3708  1.3878  2.5368
 1034SOL    HW2 7788   0.826   3.368   0.235 -0.1930 -0.0914  0.2820
 1035SOL     OW 7789   3.740   8.666   3.059 -0.1941  0.3549  0.0775
 1035SOL    HW1 7790   3.670   8.711   3.106 -1.7816 -3.7203  2.1194
 1035SOL    HW2 7791   3.700   8.637   2.977  0.0029  0.4711 -0.0607
 1036SOL     OW 7792   5.440   9.451   4.116 -0.4201 -0.8384 -0.3633
 1036SOL    HW1 7793   5.447   9.388   4.044  1.2995  0.5334 -1.4819
 1036SOL    HW2 7794   5.531   9.473   4.137 -0.9628  1.2480 -0.0018
 1037SOL     OW 7795   0.710   1.511   7.939 -1.1211  0.4444 -0.0268
 1037SOL    HW1 7796   0.704   1.606   7.947 -0.8304  0.4733 -0.1519
 1037SOL    HW2 7797   0.732   1.481   8.027 -1.5619  0.4601  0.0945
 1038SOL     OW 7798   2.479   4.001   2.039 -0.2516 -0.1772  0.2916
 1038SOL    HW1 7799   2.393   4.034   2.067 -0.5214 -1.7064  1.3736
 1038SOL    HW2 7800   2.535   4.012   2.115  0.6263  1.0793 -0.5061
 1039SOL     OW 7801  11.091   0.817  10.674 -0.0230 -0.4959  0.3629
 1039SOL    HW1 7802  11.120   0.728  10.654  0.7772  0.0294 -0.9817
 1039SOL    HW2 7803  11.075   0.857  10.588 -1.3735  0.3480  0.9657
 1040SOL     OW 7804  10.543   6.579   8.008 -0.5820  0.2452  0.7162
 1040SOL    HW1 7805  10.634   6.552   8.006 -0.4947  0.5783 -0.7084
 1040SOL    HW2 7806  10.511   6.563   7.919 -2.0373 -0.2931  1.3125
 1041SOL     OW 7807   4.525  10.325   6.092  0.0514  0.6235  0.6693
 1041SOL    HW1 7808   4.480  10.266   6.030  0.6126  0.6754  0.2000
 1041SOL    HW2 7809   4.528  10.276   6.174  1.2076 -0.3521  0.0801
 1042SOL     OW 7810   9.275   1.018   5.174  0.1818  0.4210  0.5453
 1042SOL    HW1 7811   9.214   0.947   5.195  0.3871  0.4278  1.2103
 1042SOL    HW2 7812   9.356   0.993   5.218  1.1760 -0.3671 -1.5926
 1043SOL     OW 7813   1.194   8.013  10.126  0.5840 -1.1064 -0.0069
 1043SOL    HW1 7814   1.271   8.006  10.070  1.0760 -2.2893  0.7874
 1043SOL    HW2 7815   1.208   8.094  10.176  0.3661 -0.2947 -1.2047
 1044SOL     OW 7816   5.407   2.909   5.386 -0.4169  0.6045  0.1147
 1044SOL    HW1 7817   5.393   2.821   5.352  1.1959  0.8735 -1.4176
 1044SOL    HW2 7818   5.321   2.951   5.383 -1.5140 -1.2846  2.1953
 1045SOL     OW 7819   2.543   0.174  11.825  0.0865  0.2622  0.4136
 1045SOL    HW1 7820   2.631   0.195  11.795 -0.4823  0.6605 -1.0769
 1045SOL    HW2 7821   2.492   0.162  11.745 -0.8954 -1.4173  1.2413
 1046SOL     OW 7822   2.196   5.358   8.396  0.2940  0.7164 -0.0949
 1046SOL    HW1 7823   2.188   5.338   8.489  1.7519  0.7557  0.0763
 1046SOL    HW2 7824   2.262   5.295   8.364  0.6096  1.4090 -0.8462
 1047SOL     OW 7825   5.727   4.079   3.461 -0.7284  0.1584  0.0384
 1047SOL    HW1 7826   5.768   4.086   3.375 -1.7399  1.6436 -0.3704
 1047SOL    HW2 7827   5.655   4.017   3.449 -1.5100  1.1310 -0.4893
 1048SOL     OW 7828   5.708  11.397   4.528  0.1779 -0.1021 -0.0699
 1048SOL    HW1 7829   5.735  11.421   4.439  0.4963 -1.3989 -0.3489
 1048SOL    HW2 7830   5.627  11.347   4.516  0.9229 -1.4284  0.2305
 1049SOL     OW 7831   6.647   5.317   8.085  0.3309 -0.1988 -0.0193
 1049SOL    HW1 7832   6.644   5.367   8.004  2.5284 -1.5247 -0.9971
 1049SOL    HW2 7833   6.712   5.361   8.139  0.2982 -0.4462  0.2284
 1050SOL     OW 7834   3.946  11.525   9.371 -0.1160  0.5127 -0.2629
 1050SOL    HW1 7835   3.944  11.463   9.298  3.6568  0.8641 -0.8507
 1050SOL    HW2 7836   3.948  11.469   9.449 -1.0437  0.0627 -0.5421
 1051SOL     OW 7837   7.304   5.678   0.534 -0.7479 -0.2483 -0.4821
 1051SOL    HW1 7838   7.285   5.603   0.477 -2.8417  1.1664 -1.7894
 1051SOL    HW2 7839   7.226   5.687   0.589  0.1680  0.0094  0.8405
 1052SOL     OW 7840   5.556   3.070   4.090  0.0659 -0.1648  1.0132
 1052SOL    HW1 7841   5.495   3.006   4.054 -0.4161  0.4234  0.7648
 1052SOL    HW2 7842   5.517   3.155   4.069  1.0951  0.2323  0.6071
 1053SOL     OW 7843   4.016   0.177  11.071  0.0976 -0.5564  0.4383
 1053SOL    HW1 7844   3.959   0.138  11.138 -1.1159 -0.7402 -0.6762
 1053SOL    HW2 7845   3.991   0.134  10.990  2.0200 -0.8055 -0.0557
 1054SOL     OW 7846   9.085  10.017   9.058  0.4247  0.0145 -0.3280
 1054SOL    HW1 7847   9.031  10.095   9.074 -0.2293 -0.2320 -1.2600
 1054SOL    HW2 7848   9.110  10.023   8.965 -1.7733 -2.1451 -1.1842
 1055SOL     OW 7849   9.141  10.844   7.220  0.1586  0.5549  0.2434
 1055SOL    HW1 7850   9.227  10.827   7.180 -0.1014  0.2265 -0.1925
 1055SOL    HW2 7851   9.159  10.861   7.312  0.6718  0.3030  0.1878
 1056SOL     OW 7852   2.852   1.002   9.765  0.3498 -0.3149 -0.2230
 1056SOL    HW1 7853   2.840   0.932   9.829  0.3700 -0.7315 -0.6715
 1056SOL    HW2 7854   2.865   0.957   9.682  0.8053  0.2176 -0.4439
 1057SOL     OW 7855   2.693   5.015   8.311  0.4826  0.5012  0.3490
 1057SOL    HW1 7856   2.716   4.976   8.227 -1.1500 -0.5665  0.3698
 1057SOL    HW2 7857   2.777   5.026   8.356  1.1854 -0.8492 -0.5805
 1058SOL     OW 7858   8.787   8.059   8.849 -0.5686  0.3991  0.0389
 1058SOL    HW1 7859   8.712   8.110   8.878 -0.2382  1.7116 -1.3437
 1058SOL    HW2 7860   8.772   8.043   8.756  2.6821  4.2424 -1.4380
 1059SOL     OW 7861   5.241   3.425   5.192 -0.0647  0.1746 -0.0007
 1059SOL    HW1 7862   5.209   3.379   5.115 -2.0400  1.5848 -0.0893
 1059SOL    HW2 7863   5.191   3.388   5.265  1.6420 -1.0058  0.6386
 1060SOL     OW 7864   0.152   4.932  11.332  0.6070 -0.3592 -0.1273
 1060SOL    HW1 7865   0.102   5.002  11.373 -0.3731 -0.7470 -0.6307
 1060SOL    HW2 7866   0.086   4.874  11.294  1.4511 -0.5640 -1.3410
 1061SOL     OW 7867   2.483  11.783   7.737 -0.3153  0.2638 -0.3442
 1061SOL    HW1 7868   2.518  11.696   7.720 -0.5701  0.3535 -1.3364
 1061SOL    HW2 7869   2.523  11.808   7.821  0.8991 -0.2105 -0.7625
 1062SOL     OW 7870   2.772   4.438   5.310  0.0054  0.4607  0.0551
 1062SOL    HW1 7871   2.756   4.348   5.283 -0.7030  0.1150  1.5148
 1062SOL    HW2 7872   2.708   4.489   5.260  2.6923  0.7237 -3.5026
 1063SOL     OW 7873   8.361   7.879   3.222  0.3666  0.2739  0.2548
 1063SOL    HW1 7874   8.283   7.933   3.209  0.4290  0.3868  0.3508
 1063SOL    HW2 7875   8.392   7.859   3.134 -2.2267 -3.3705 -0.0397
 1064SOL     OW 7876   6.035   1.860  11.384 -0.0199  0.1323 -0.1129
 1064SOL    HW1 7877   5.941   1.850  11.393 -0.3166  2.5010  0.1032
 1064SOL    HW2 7878   6.059   1.802  11.311 -1.2937 -1.8623  0.9631
 1065SOL     OW 7879   1.349   8.102   3.941  0.3524 -0.3792  0.5069
 1065SOL    HW1 7880   1.296   8.066   3.870  0.0298  0.3702  0.3576
 1065SOL    HW2 7881   1.406   8.030   3.967  0.4262 -0.6916 -0.4649
 1066SOL     OW 7882   0.279   1.279   8.934  0.5176  0.1344  0.5585
 1066SOL    HW1 7883   0.243   1.241   9.015  1.0336  0.2898  0.8642
 1066SOL    HW2 7884   0.218   1.349   8.911 -0.3464 -0.7429  0.0895
 1067SOL     OW 7885   1.159   8.929   1.439 -0.0399 -0.2489 -0.1634
 1067SOL    HW1 7886   1.104   8.873   1.494  1.6894  0.0495  2.0248
 1067SOL    HW2 7887   1.145   9.017   1.472 -0.0716  0.1633 -1.2311
 1068SOL     OW 7888   4.961  11.155   5.829 -0.0243 -0.3910  0.0423
 1068SOL    HW1 7889   4.914  11.206   5.763 -1.4740 -1.0955  0.4793
 1068SOL    HW2 7890   4.945  11.201   5.911  0.8020 -0.1626  0.0863
 1069SOL     OW 7891   0.676   5.904  11.520  0.2672 -0.1637  0.2648
 1069SOL    HW1 7892   0.711   5.920  11.433  0.6214  1.1168  0.6210
 1069SOL    HW2 7893   0.711   5.819  11.545  0.1257 -0.5614 -0.8478
 1070SOL     OW 7894   9.663   5.992   5.030  0.7686  0.0577  0.0218
 1070SOL    HW1 7895   9.719   6.048   4.977  0.2107  1.5821  0.9712
 1070SOL    HW2 7896   9.696   6.001   5.119 -0.4627  0.3549  0.4772
 1071SOL     OW 7897   7.724   2.141   5.936 -0.7008  0.5599  1.0518
 1071SOL    HW1 7898   7.716   2.236   5.942  0.7943  0.7845  0.0657
 1071SOL    HW2 7899   7.678   2.118   5.855 -0.5450  0.5279  0.9713
 1072SOL     OW 7900   7.946  10.007   7.874  0.0380  0.0486 -0.0211
 1072SOL    HW1 7901   7.858  10.040   7.890  0.6519  1.2468  1.0160
 1072SOL    HW2 7902   7.997  10.034   7.950  1.7507  1.0209 -1.4334
 1073SOL     OW 7903  11.576  11.002   0.246 -0.3983  0.0141  0.1295
 1073SOL    HW1 7904  11.534  10.952   0.315 -0.2473 -2.4006 -1.4260
 1073SOL    HW2 7905  11.669  11.001   0.268 -0.4543  0.1275  0.3821
 1074SOL     OW 7906  10.051   1.646   9.340  0.7137  0.2119 -0.5781
 1074SOL    HW1 7907  10.086   1.669   9.254 -0.6934  0.2722 -1.1538
 1074SOL    HW2 7908  10.039   1.730   9.385 -2.5643  0.6255 -1.9522
 1075SOL     OW 7909   5.314  11.266   3.373  0.0581 -0.6251 -0.0441
 1075SOL    HW1 7910   5.388  11.298   3.425  0.1293 -0.1006 -0.4601
 1075SOL    HW2 7911   5.254  11.229   3.438  0.0296  0.2554  0.4463
 1076SOL     OW 7912   3.295   7.163   9.577  0.1674 -0.3117 -0.0716
 1076SOL    HW1 7913   3.288   7.067   9.577 -2.2158 -0.2137  1.1436
 1076SOL    HW2 7914   3.314   7.186   9.668  2.1605  0.3714 -0.6016
 1077SOL     OW 7915   0.079   2.129   1.344  0.1852  0.3132  0.3272
 1077SOL    HW1 7916   0.148   2.170   1.292  0.9064 -0.8984  0.2942
 1077SOL    HW2 7917   0.126   2.072   1.405 -0.7305  0.5121  1.2566
 1078SOL     OW 7918   6.986   3.372  11.306 -0.3198  0.0229 -0.1435
 1078SOL    HW1 7919   6.912   3.311  11.299 -1.3638  1.0566  1.2591
 1078SOL    HW2 7920   7.055   3.321  11.349 -0.3121 -0.8588 -1.1681
 1079SOL     OW 7921   3.016   6.199   5.974 -0.2990  0.3987 -0.0702
 1079SOL    HW1 7922   2.969   6.135   6.028 -0.3064  0.5685  0.1223
 1079SOL    HW2 7923   3.057   6.146   5.905 -1.4738  0.3281 -0.7402
 1080SOL     OW 7924   6.120   9.468  10.627  0.4806 -0.0812  0.1074
 1080SOL    HW1 7925   6.063   9.392  10.641 -1.7373  1.5165  0.4297
 1080SOL    HW2 7926   6.075   9.540  10.672  0.7988  2.0971 -2.7302
 1081SOL     OW 7927   7.154  10.615   5.909 -0.0875  0.2181 -0.3673
 1081SOL    HW1 7928   7.143  10.584   5.999 -2.1537 -0.9100 -0.9412
 1081SOL    HW2 7929   7.132  10.708   5.912 -1.4289 -0.0958  0.1031
 1082SOL     OW 7930   6.839  10.876   7.859  0.2299 -0.2942  0.1509
 1082SOL    HW1 7931   6.889  10.807   7.816  4.0723  2.1551  0.1067
 1082SOL    HW2 7932   6.885  10.890   7.942 -0.6755  1.8157  0.3672
 1083SOL     OW 7933   7.391   0.913   1.788  0.2462  0.4155 -0.3474
 1083SOL    HW1 7934   7.327   0.868   1.733  0.0905 -0.9670  0.8983
 1083SOL    HW2 7935   7.351   0.914   1.875  1.5925  0.1641  0.3067
 1084SOL     OW 7936   3.609   8.288   0.032  0.1902 -0.3038  0.0150
 1084SOL    HW1 7937   3.636   8.282  -0.060  0.8449  0.0721  0.1734
 1084SOL    HW2 7938   3.652   8.214   0.075  0.8475  0.1944  0.2348
 1085SOL     OW 7939   6.030   7.228   4.721 -0.7960 -0.5245 -0.1335
 1085SOL    HW1 7940   5.950   7.208   4.770 -1.5043  2.2544  0.0199
 1085SOL    HW2 7941   5.999   7.257   4.635  0.0357  0.3537 -0.1563
 1086SOL     OW 7942  11.970  10.516   7.190 -0.2057  0.2545 -0.4946
 1086SOL    HW1 7943  11.956  10.557   7.105 -0.7016 -1.7344 -1.4563
 1086SOL    HW2 7944  12.049  10.463   7.178 -0.5403 -0.4015  0.1215
 1087SOL     OW 7945   0.699   0.261   4.156 -0.5239  0.2574  0.0961
 1087SOL    HW1 7946   0.609   0.273   4.188 -1.5407 -4.0245 -0.5373
 1087SOL    HW2 7947   0.753   0.263   4.236 -1.3382  1.3209  0.6538
 1088SOL     OW 7948  11.324  11.502   9.939  0.4075  0.7842 -0.0803
 1088SOL    HW1 7949  11.297  11.463   9.856  3.0299  0.7639 -1.0086
 1088SOL    HW2 7950  11.321  11.597   9.923 -1.2968  0.8763  0.6018
 1089SOL     OW 7951   7.006   8.310   2.266  0.7489 -0.6115 -0.2639
 1089SOL    HW1 7952   7.008   8.218   2.291 -1.0851 -0.2443  1.4443
 1089SOL    HW2 7953   6.933   8.317   2.205  1.2708 -0.3891 -0.8679
 1090SOL     OW 7954   8.726   7.328  11.653  0.5604 -0.2823 -0.0229
 1090SOL    HW1 7955   8.734   7.404  11.710 -1.0458 -1.0682  1.3275
 1090SOL    HW2 7956   8.640   7.338  11.613  0.2753 -1.4536  0.2795
 1091SOL     OW 7957   4.160  11.617   7.095 -0.2888  0.0208 -0.0432
 1091SOL    HW1 7958   4.229  11.604   7.160 -0.6386 -1.4198  0.0696
 1091SOL    HW2 7959   4.204  11.661   7.022  0.3335  0.7290  0.7292
 1092SOL     OW 7960   6.578   2.293  11.980 -0.0096 -0.2023 -0.1507
 1092SOL    HW1 7961   6.566   2.259  12.069 -1.8247  0.2012 -0.2138
 1092SOL    HW2 7962   6.668   2.268  11.957  0.6187 -0.0118  1.9158
 1093SOL     OW 7963   9.392   1.753   2.078 -0.4598 -0.1441  0.9678
 1093SOL    HW1 7964   9.372   1.670   2.033 -0.5947  0.1627  0.4553
 1093SOL    HW2 7965   9.307   1.797   2.085 -0.1605  0.6973 -0.2819
 1094SOL     OW 7966   8.395   4.948  11.834 -0.5717 -0.1642  0.0452
 1094SOL    HW1 7967   8.399   4.895  11.913 -1.5144 -0.3217 -0.0031
 1094SOL    HW2 7968   8.486   4.955  11.805 -0.3361 -1.0054  0.5487
 1095SOL     OW 7969   0.786   0.143   9.008 -0.6177 -0.0347  0.0772
 1095SOL    HW1 7970   0.731   0.179   8.939 -0.7498 -0.3218  0.0342
 1095SOL    HW2 7971   0.876   0.152   8.974 -0.6401  0.3707  0.1212
 1096SOL     OW 7972   6.540   0.909   6.034  0.1846  0.3941 -0.2669
 1096SOL    HW1 7973   6.447   0.928   6.041 -0.2881 -1.8551  0.4850
 1096SOL    HW2 7974   6.582   0.995   6.031 -1.7370  1.5359  1.7897
 1097SOL     OW 7975   6.499   2.131   5.681  0.0595 -0.5596  0.1539
 1097SOL    HW1 7976   6.489   2.156   5.589  1.4101  1.4950  0.5119
 1097SOL    HW2 7977   6.578   2.177   5.710  1.0168 -3.0339  1.7387
 1098SOL     OW 7978   3.722   9.111   1.954  0.1699 -0.4355 -0.0933
 1098SOL    HW1 7979   3.708   9.191   1.904 -1.5812  0.0393  1.0555
 1098SOL    HW2 7980   3.693   9.132   2.042  3.4410 -1.1293  1.3136
 1099SOL     OW 7981  10.485   2.345   4.199  0.1105  0.1924 -0.1346
 1099SOL    HW1 7982  10.406   2.398   4.186  0.2030  0.5646  0.7801
 1099SOL    HW2 7983  10.534   2.356   4.117 -1.8151 -1.9110 -1.7112
 1100SOL     OW 7984   2.306   8.167   1.228  0.1474  0.2998  0.5160
 1100SOL    HW1 7985   2.240   8.097   1.222  0.2731  0.1721  0.6271
 1100SOL    HW2 7986   2.376   8.130   1.281  1.7179 -0.6843 -2.0617
 1101SOL     OW 7987   3.825   7.599   1.426  0.1389  0.4323  0.0688
 1101SOL    HW1 7988   3.757   7.564   1.485 -0.4321  1.6697  0.1694
 1101SOL    HW2 7989   3.781   7.669   1.378  0.7000 -0.2807 -1.5801
 1102SOL     OW 7990   0.508   5.101   5.667  0.0610 -0.2236  0.0224
 1102SOL    HW1 7991   0.596   5.116   5.700 -0.3495 -1.3246  1.7452
 1102SOL    HW2 7992   0.508   5.141   5.580  2.0066  0.4766  0.2910
 1103SOL     OW 7993   2.440   5.098   6.077  0.2455 -0.4798  0.0673
 1103SOL    HW1 7994   2.379   5.111   6.150  0.5130 -4.4433  1.2213
 1103SOL    HW2 7995   2.383   5.081   6.002 -0.0103  1.9086 -0.3514
 1104SOL     OW 7996   5.235   7.722   4.430 -0.0442 -0.6042 -0.3390
 1104SOL    HW1 7997   5.188   7.750   4.352  1.5751 -0.0513 -1.1503
 1104SOL    HW2 7998   5.305   7.785   4.440 -0.6855 -0.1847  2.0637
 1105SOL     OW 7999   2.928   6.412  11.698  0.7333 -0.3861  0.2041
 1105SOL    HW1 8000   2.918   6.369  11.783 -0.6498 -0.8252 -0.1503
 1105SOL    HW2 8001   2.933   6.339  11.635 -1.4665 -0.1033 -0.3900
 1106SOL     OW 8002   1.021   7.378   2.350  0.0758  0.0222  0.5677
 1106SOL    HW1 8003   1.055   7.465   2.328  0.7631 -0.4260 -0.2223
 1106SOL    HW2 8004   1.068   7.318   2.292 -1.3244 -0.7509  0.1602
 1107SOL     OW 8005   5.303   4.081   9.727 -0.0601  0.4042  0.0972
 1107SOL    HW1 8006   5.260   4.120   9.651  0.6839 -1.6329 -1.4758
 1107SOL    HW2 8007   5.234   4.032   9.771  0.2936 -2.2000 -1.9704
 1108SOL     OW 8008   3.728   3.758   3.322 -0.2617  0.3075  0.2742
 1108SOL    HW1 8009   3.813   3.742   3.281 -0.5386  0.1587 -0.2483
 1108SOL    HW2 8010   3.740   3.731   3.414  0.2840  0.3983  0.2315
 1109SOL     OW 8011   0.906   4.768   1.804 -0.1161 -0.3179 -0.5959
 1109SOL    HW1 8012   0.899   4.863   1.811 -1.1026 -0.4361  0.2800
 1109SOL    HW2 8013   0.972   4.753   1.737 -2.0059  0.9672 -2.8816
 1110SOL     OW 8014   1.582   5.085   3.016  0.1185  0.1304 -0.0110
 1110SOL    HW1 8015   1.502   5.047   2.978  0.1263 -1.3378  1.3625
 1110SOL    HW2 8016   1.551   5.144   3.085  0.2077 -0.2685  0.3728
 1111SOL     OW 8017   6.459   0.670  11.503 -0.0617 -0.2313 -0.2130
 1111SOL    HW1 8018   6.418   0.672  11.590 -0.5221 -0.2360 -0.4230
 1111SOL    HW2 8019   6.425   0.590  11.463  1.0031 -0.7988  0.0059
 1112SOL     OW 8020   6.022   6.333   5.806  0.1628  0.1035  0.1184
 1112SOL    HW1 8021   6.093   6.278   5.841  0.6471  0.5013 -0.2254
 1112SOL    HW2 8022   6.010   6.301   5.717 -1.6679 -1.5022  0.8623
 1113SOL     OW 8023   1.123   5.061  11.230  0.3574  0.1223  0.3826
 1113SOL    HW1 8024   1.188   5.008  11.184 -0.4915 -2.0272  1.4944
 1113SOL    HW2 8025   1.171   5.137  11.261  1.0689  1.5740 -3.6556
 1114SOL     OW 8026   5.647   2.899   2.032 -0.1820 -0.1433 -0.2370
 1114SOL    HW1 8027   5.719   2.961   2.020 -0.3192  0.0481 -0.0784
 1114SOL    HW2 8028   5.568   2.952   2.025 -0.2898 -0.1680  0.6217
 1115SOL     OW 8029   4.619   5.381   0.255  0.5025  0.0627  0.6370
 1115SOL    HW1 8030   4.690   5.316   0.252  1.3280  0.9883 -0.3620
 1115SOL    HW2 8031   4.620   5.422   0.169  0.0317  1.4652  1.2804
 1116SOL     OW 8032   8.340   4.719   7.893 -0.8869 -0.3375 -0.2003
 1116SOL    HW1 8033   8.273   4.728   7.825  0.1339  0.8963 -1.0791
 1116SOL    HW2 8034   8.423   4.715   7.845 -0.0884  1.2161  0.9545
 1117SOL     OW 8035   4.650   5.343   1.336 -0.1560  0.3253 -0.7449
 1117SOL    HW1 8036   4.666   5.270   1.396 -1.9142  0.8341  0.4256
 1117SOL    HW2 8037   4.577   5.314   1.282 -0.5305  1.0032 -0.6124
 1118SOL     OW 8038   2.784  11.300   1.107  0.0524 -0.1160  0.3504
 1118SOL    HW1 8039   2.797  11.372   1.045  0.5642  0.6489  1.3180
 1118SOL    HW2 8040   2.692  11.307   1.132 -0.7774 -1.8078 -1.9615
 1119SOL     OW 8041   9.268   7.997   6.047 -0.1779  0.1282 -0.1056
 1119SOL    HW1 8042   9.319   8.064   6.002 -1.3759  0.1213 -1.5832
 1119SOL    HW2 8043   9.326   7.921   6.052 -0.0525  0.0713 -1.8837
 1120SOL     OW 8044   6.448   1.403   9.261 -0.3245  0.3277  0.3407
 1120SOL    HW1 8045   6.542   1.422   9.270  0.1810 -1.6012 -0.3007
 1120SOL    HW2 8046   6.445   1.322   9.209 -2.3671  0.4755  0.1457
 1121SOL     OW 8047   9.086   9.555   8.735 -0.0331 -0.0162 -0.0257
 1121SOL    HW1 8048   8.993   9.557   8.712  0.1316  1.8223 -0.6890
 1121SOL    HW2 8049   9.132   9.544   8.652  0.3967  1.9715 -0.1194
 1122SOL     OW 8050   3.145   8.679   0.741  0.2134  0.9709  0.5283
 1122SOL    HW1 8051   3.144   8.673   0.836  0.2909  1.4996  0.5670
 1122SOL    HW2 8052   3.148   8.588   0.711  2.0442  0.8148  1.0612
 1123SOL     OW 8053   1.153   7.489   8.573  0.4560 -0.0281 -0.8914
 1123SOL    HW1 8054   1.177   7.399   8.592  1.1228 -0.0152 -1.5969
 1123SOL    HW2 8055   1.113   7.521   8.654 -0.6640 -1.2273 -0.9427
 1124SOL     OW 8056   4.760   8.917   3.338  0.2821  1.1050  0.3421
 1124SOL    HW1 8057   4.714   8.962   3.267  0.0664  0.1093 -0.1567
 1124SOL    HW2 8058   4.846   8.896   3.301 -0.3311 -0.7110 -0.1594
 1125SOL     OW 8059   8.425   7.968  10.782 -0.1076  0.4601 -0.1856
 1125SOL    HW1 8060   8.479   8.002  10.712 -0.2295  1.7812  0.3316
 1125SOL    HW2 8061   8.337   7.964  10.745 -0.0607  0.5218 -0.3027
 1126SOL     OW 8062   0.964   8.301   4.741  0.0056 -0.0677  0.1314
 1126SOL    HW1 8063   1.052   8.336   4.759 -0.7155  1.5511  0.7230
 1126SOL    HW2 8064   0.917   8.375   4.702 -0.8752 -1.1498 -0.8966
 1127SOL     OW 8065   6.872   0.230   2.446 -0.1391  0.3138 -0.3672
 1127SOL    HW1 8066   6.933   0.302   2.427 -0.9412  1.2096  0.3410
 1127SOL    HW2 8067   6.928   0.159   2.478  0.4748  1.4984  1.3191
 1128SOL     OW 8068   1.563   7.838  11.677  0.1619 -0.8085  0.1535
 1128SOL    HW1 8069   1.617   7.903  11.632  0.7580 -0.8551  0.7878
 1128SOL    HW2 8070   1.626   7.775  11.712 -0.2577 -0.5197  1.4579
 1129SOL     OW 8071   9.831  11.281   4.491  0.0698 -0.2749 -0.5686
 1129SOL    HW1 8072   9.875  11.302   4.573 -2.5031 -1.4425  1.2487
 1129SOL    HW2 8073   9.869  11.196   4.466  0.5103 -0.1537 -0.3363
 1130SOL     OW 8074   9.189   4.036   9.061 -0.0743  0.1712  0.3756
 1130SOL    HW1 8075   9.134   4.092   9.005  1.7218  1.2132 -0.4463
 1130SOL    HW2 8076   9.269   4.023   9.010  0.2004 -1.8874  1.2355
 1131SOL     OW 8077   1.951   7.523   3.270  0.8394  0.3937 -0.3179
 1131SOL    HW1 8078   1.858   7.518   3.246  1.1151 -0.3054 -1.3420
 1131SOL    HW2 8079   1.994   7.558   3.192  1.5970 -0.5776 -0.3638
 1132SOL     OW 8080   9.308   8.949   0.398 -0.4939  0.0233  0.0387
 1132SOL    HW1 8081   9.222   8.974   0.430 -0.8712 -0.5563 -0.5039
 1132SOL    HW2 8082   9.314   8.991   0.312  0.3650  1.2752  0.6700
 1133SOL     OW 8083   3.559   8.845   8.363  0.5167  0.0416 -0.0474
 1133SOL    HW1 8084   3.484   8.851   8.304  0.9828 -1.2426 -0.8124
 1133SOL    HW2 8085   3.550   8.921   8.421 -0.5289  0.7473 -1.0939
 1134SOL     OW 8086   2.889   6.663   1.364  0.2923 -0.5138 -0.5967
 1134SOL    HW1 8087   2.879   6.755   1.340 -0.2281 -0.3650  0.1466
 1134SOL    HW2 8088   2.943   6.625   1.294 -1.6889 -0.2556 -2.3835
 1135SOL     OW 8089   5.952   1.169   3.695  0.6095 -0.1436 -0.0923
 1135SOL    HW1 8090   6.017   1.151   3.763  0.5486 -1.2589 -0.3158
 1135SOL    HW2 8091   5.901   1.243   3.730  0.6865 -0.5830  1.0017
 1136SOL     OW 8092  11.134   4.102   6.615 -0.1556 -0.5852  0.1197
 1136SOL    HW1 8093  11.217   4.126   6.657 -1.0603  0.3430  1.4599
 1136SOL    HW2 8094  11.115   4.015   6.649 -0.8733  0.1555  1.6985
 1137SOL     OW 8095   1.346   1.738   4.020  0.0726  0.1327  1.0328
 1137SOL    HW1 8096   1.272   1.733   4.081 -1.1330  0.9221 -0.3054
 1137SOL    HW2 8097   1.338   1.660   3.966  0.8322 -0.2992  1.5287
 1138SOL     OW 8098   3.166   7.914  11.362  0.8409 -0.6458  0.3402
 1138SOL    HW1 8099   3.257   7.942  11.355  0.2164  1.4752 -0.1957
 1138SOL    HW2 8100   3.164   7.857  11.438  2.6701 -1.0099  0.1563
 1139SOL     OW 8101   5.697  10.901   9.426  0.0541  0.2177  0.0929
 1139SOL    HW1 8102   5.605  10.924   9.411  0.0094 -0.1579 -0.2155
 1139SOL    HW2 8103   5.726  10.863   9.343  0.4248  0.1245  0.2639
 1140SOL     OW 8104   2.765   8.626   5.164  0.0375  0.3831  0.5998
 1140SOL    HW1 8105   2.734   8.614   5.075 -0.8464  1.9321  0.6596
 1140SOL    HW2 8106   2.785   8.537   5.195 -1.0716 -0.3240 -0.6194
 1141SOL     OW 8107   0.935   0.867   6.759 -0.0347 -0.4165  0.2822
 1141SOL    HW1 8108   0.956   0.931   6.691 -0.2537  0.9323  1.4427
 1141SOL    HW2 8109   0.948   0.914   6.841 -0.3191 -1.8374  1.1749
 1142SOL     OW 8110   5.624  10.562   6.868  0.3053 -0.5848  0.0856
 1142SOL    HW1 8111   5.711  10.560   6.907  0.1392  3.0753  1.0314
 1142SOL    HW2 8112   5.570  10.607   6.932 -1.0806  1.5910 -2.4142
 1143SOL     OW 8113  10.683   2.271   3.013 -0.8936 -0.6960 -0.0606
 1143SOL    HW1 8114  10.682   2.289   2.920  0.2573 -2.9600 -0.5939
 1143SOL    HW2 8115  10.773   2.290   3.041 -1.2143 -0.0735  0.5768
 1144SOL     OW 8116   7.603   9.470  10.665  0.4446  0.3314 -0.1810
 1144SOL    HW1 8117   7.618   9.429  10.750  1.1523  1.2990  0.1828
 1144SOL    HW2 8118   7.560   9.402  10.613 -2.1305  0.4204  1.6267
 1145SOL     OW 8119   9.153   0.223   7.569 -0.1661  0.5676  0.6827
 1145SOL    HW1 8120   9.243   0.255   7.563  0.5721 -1.5792 -0.9391
 1145SOL    HW2 8121   9.147   0.186   7.658  1.1690 -0.8006  0.2484
 1146SOL     OW 8122  11.399   8.950   2.232  0.8600 -0.0169 -0.1502
 1146SOL    HW1 8123  11.367   8.927   2.145  1.5420 -0.9970 -0.1670
 1146SOL    HW2 8124  11.389   8.869   2.283 -0.0229  0.6780  0.8531
 1147SOL     OW 8125   8.915   5.677   5.205 -0.0542 -0.0249 -0.3509
 1147SOL    HW1 8126   8.980   5.698   5.138  1.0466 -1.3135  0.2737
 1147SOL    HW2 8127   8.957   5.609   5.259 -2.1851 -1.4300 -0.3622
 1148SOL     OW 8128   1.046  10.549   5.374 -0.5629 -0.6966  0.2955
 1148SOL    HW1 8129   1.132  10.513   5.398  1.3074  2.5928 -0.7287
 1148SOL    HW2 8130   1.043  10.542   5.278 -0.7990  0.3650  0.2082
 1149SOL     OW 8131   5.706   1.290  11.967  0.9452 -0.2598 -0.5201
 1149SOL    HW1 8132   5.704   1.195  11.977  0.0255 -0.1369  0.7758
 1149SOL    HW2 8133   5.698   1.305  11.873 -0.9191 -1.4314 -0.5854
 1150SOL     OW 8134   1.316   0.085  10.411 -0.3470 -0.0386  0.3636
 1150SOL    HW1 8135   1.383   0.018  10.399 -0.0740 -0.1663  2.3442
 1150SOL    HW2 8136   1.289   0.108  10.322 -0.0315 -2.3394 -0.3816
 1151SOL     OW 8137  11.028   4.199   5.783 -0.0458  0.3609  0.5454
 1151SOL    HW1 8138  10.948   4.148   5.795 -0.8798  1.1299 -1.2610
 1151SOL    HW2 8139  11.002   4.290   5.800 -0.0570  0.8392 -1.6556
 1152SOL     OW 8140   8.072   6.015  11.193  0.6878 -0.7062 -0.0776
 1152SOL    HW1 8141   7.986   6.019  11.235  0.9254 -1.6729  0.5514
 1152SOL    HW2 8142   8.067   5.938  11.136  1.2337 -0.9801  0.2275
 1153SOL     OW 8143   2.713   6.019   0.813  0.2375  0.0483 -0.4933
 1153SOL    HW1 8144   2.647   6.062   0.759  1.0889  2.5770  0.3482
 1153SOL    HW2 8145   2.689   6.042   0.903  1.4170 -0.2384 -0.0884
 1154SOL     OW 8146   2.745   3.527   7.886 -0.4584 -0.4824 -0.2731
 1154SOL    HW1 8147   2.692   3.484   7.953  0.0678  0.1925  0.6084
 1154SOL    HW2 8148   2.701   3.611   7.871  1.1566  0.8256  1.6747
 1155SOL     OW 8149   7.817  10.067  10.888  0.0923  0.2594  0.3406
 1155SOL    HW1 8150   7.792  10.141  10.943 -2.4029 -0.4392  0.2471
 1155SOL    HW2 8151   7.843   9.999  10.950  0.2912  0.4801  0.5034
 1156SOL     OW 8152  11.178   5.488   5.962 -0.4845 -0.3706  0.0730
 1156SOL    HW1 8153  11.244   5.481   6.030 -1.6099 -1.1925  1.1313
 1156SOL    HW2 8154  11.202   5.566   5.912  0.7114 -0.1031  1.0280
 1157SOL     OW 8155  10.657   3.797   2.124  0.3336  0.4168 -0.0143
 1157SOL    HW1 8156  10.685   3.843   2.044  0.7851 -0.4117 -0.3422
 1157SOL    HW2 8157  10.685   3.855   2.195 -0.4619  1.3745 -0.4589
 1158SOL     OW 8158   7.299   6.948  11.979  0.4332 -0.8461  0.0092
 1158SOL    HW1 8159   7.365   6.973  11.915  1.0931 -1.0662  0.5859
 1158SOL    HW2 8160   7.345   6.954  12.063 -1.0174  1.7015  0.7425
 1159SOL     OW 8161   5.153  10.092   2.910 -0.1033  0.0004 -0.0602
 1159SOL    HW1 8162   5.127  10.174   2.951  0.0906  0.7602 -1.3888
 1159SOL    HW2 8163   5.106  10.092   2.826  0.4577 -0.8971 -0.3831
 1160SOL     OW 8164   3.074   4.049  10.746  0.2931 -0.0176 -0.3655
 1160SOL    HW1 8165   3.161   4.081  10.769 -0.3872  0.4517  1.8346
 1160SOL    HW2 8166   3.062   3.972  10.802 -2.1233  2.1456  2.4325
 1161SOL     OW 8167   6.325  11.419   9.238 -0.0387  0.0240  0.0467
 1161SOL    HW1 8168   6.312  11.514   9.231 -2.1268 -0.2908 -1.2110
 1161SOL    HW2 8169   6.264  11.391   9.307 -0.4429 -0.5467 -0.5291
 1162SOL     OW 8170   7.101   2.709   6.636 -0.5533  0.7900  0.0364
 1162SOL    HW1 8171   7.055   2.669   6.561 -1.8520 -2.0230  2.1532
 1162SOL    HW2 8172   7.042   2.779   6.665 -2.9984 -1.7161  1.6978
 1163SOL     OW 8173  10.699   4.251   4.268 -0.4946  0.1591  0.1217
 1163SOL    HW1 8174  10.731   4.224   4.182  1.4019 -1.6086  1.2932
 1163SOL    HW2 8175  10.752   4.328   4.290 -1.3811  0.9721 -0.4728
 1164SOL     OW 8176   3.220   0.131  11.360  0.1000 -0.0078 -0.3358
 1164SOL    HW1 8177   3.213   0.187  11.438  2.7223 -1.7426  1.2936
 1164SOL    HW2 8178   3.223   0.193  11.287 -0.4161  1.8016  1.0823
 1165SOL     OW 8179   9.257   5.276   8.894  0.4349 -0.1819  0.1542
 1165SOL    HW1 8180   9.185   5.269   8.957 -0.7974  1.7902 -0.9475
 1165SOL    HW2 8181   9.220   5.248   8.811  0.4904  2.0258 -0.6833
 1166SOL     OW 8182   1.850  10.232  11.321  0.5787 -0.2267  0.0376
 1166SOL    HW1 8183   1.838  10.324  11.342 -1.2546 -0.0064 -1.7415
 1166SOL    HW2 8184   1.803  10.219  11.239  2.0954 -2.4173 -0.5892
 1167SOL     OW 8185  11.308   1.464   6.301  0.0612  0.1579 -0.2235
 1167SOL    HW1 8186  11.387   1.447   6.352 -0.6433 -0.4051  0.7092
 1167SOL    HW2 8187  11.302   1.389   6.241 -0.7940 -0.8434  1.0492
 1168SOL     OW 8188   4.704   0.876   3.071 -0.3574 -0.4971  0.2384
 1168SOL    HW1 8189   4.675   0.962   3.101 -0.2902  0.2937 -1.7590
 1168SOL    HW2 8190   4.699   0.882   2.975 -1.4244 -3.0888  0.0434
 1169SOL     OW 8191  10.567  11.565   2.212  0.3987  0.0568 -0.4083
 1169SOL    HW1 8192  10.596  11.614   2.288 -0.6824 -0.6676  0.5045
 1169SOL    HW2 8193  10.507  11.499   2.247  0.3201 -0.6619 -1.8188
 1170SOL     OW 8194   7.291  11.995   2.935  0.1778  0.3233 -0.5672
 1170SOL    HW1 8195   7.320  11.989   3.026 -1.5935 -3.3611 -0.0639
 1170SOL    HW2 8196   7.357  11.946   2.885 -0.9222 -1.2480 -0.5632
 1171SOL     OW 8197  11.621  11.653   5.413  0.2753  0.2764  0.1260
 1171SOL    HW1 8198  11.538  11.617   5.445  0.1163  0.9659  0.5059
 1171SOL    HW2 8199  11.603  11.678   5.323 -0.2131  1.3071  0.5008
 1172SOL     OW 8200   4.630   8.921  10.310  0.4143  0.6277  0.4732
 1172SOL    HW1 8201   4.650   8.968  10.391  1.2354 -1.0911  1.3224
 1172SOL    HW2 8202   4.558   8.862  10.333 -0.9889  1.7741 -0.7211
 1173SOL     OW 8203   6.609   1.335   3.917  0.0627 -0.1027 -0.9558
 1173SOL    HW1 8204   6.534   1.388   3.944 -0.2099 -0.8742 -0.1703
 1173SOL    HW2 8205   6.574   1.273   3.854  0.3173  0.3949 -1.6083
 1174SOL     OW 8206   0.508   3.668   7.095  0.5667 -0.0879 -0.7264
 1174SOL    HW1 8207   0.539   3.597   7.039 -0.2448  0.8170 -2.3766
 1174SOL    HW2 8208   0.419   3.643   7.120  1.1765 -0.8531  0.8751
 1175SOL     OW 8209   3.292   4.165   6.921 -0.2507 -0.1123  0.3822
 1175SOL    HW1 8210   3.329   4.087   6.962  1.1961 -2.3408 -4.4927
 1175SOL    HW2 8211   3.357   4.234   6.935  1.7455 -1.6718 -0.7859
 1176SOL     OW 8212  11.212   2.617   7.774  0.6368  0.0429 -0.1259
 1176SOL    HW1 8213  11.250   2.549   7.719  1.7331  1.4826 -1.2327
 1176SOL    HW2 8214  11.119   2.595   7.779  0.5957 -0.4484 -2.1278
 1177SOL     OW 8215   8.209   3.956   5.978  0.4017  0.6183 -0.3733
 1177SOL    HW1 8216   8.224   4.042   6.017  1.1772  0.1074  0.5111
 1177SOL    HW2 8217   8.297   3.923   5.959  0.0805  0.4049 -1.5972
 1178SOL     OW 8218   1.821   8.949   4.562 -0.3680  0.1686  0.2426
 1178SOL    HW1 8219   1.849   8.940   4.471 -0.6970 -1.0654  0.2424
 1178SOL    HW2 8220   1.732   8.982   4.558 -0.5690 -0.3892  0.0966
 1179SOL     OW 8221   4.832   5.673  11.143 -0.2299  0.2647 -0.5146
 1179SOL    HW1 8222   4.850   5.581  11.124 -0.5432 -0.8975  3.8497
 1179SOL    HW2 8223   4.790   5.707  11.064 -1.0114 -3.5821 -1.9234
 1180SOL     OW 8224   6.757   6.183   0.944 -0.1096 -0.2899 -0.1375
 1180SOL    HW1 8225   6.723   6.099   0.977  2.0071 -1.1007  0.1330
 1180SOL    HW2 8226   6.852   6.173   0.947  0.2504  2.5872  1.0714
 1181SOL     OW 8227  11.164  11.444   7.617  0.2493  0.0618  0.0386
 1181SOL    HW1 8228  11.168  11.437   7.712  0.3712 -1.5616 -0.0592
 1181SOL    HW2 8229  11.077  11.409   7.595  0.6867 -0.7141 -0.5108
 1182SOL     OW 8230   4.257   7.865   4.305  0.2921 -0.6446  0.5195
 1182SOL    HW1 8231   4.276   7.801   4.236  0.7490  0.6627 -0.6120
 1182SOL    HW2 8232   4.163   7.880   4.297  0.2879 -0.7285  0.3961
 1183SOL     OW 8233   7.822   5.050   9.047  0.0206 -0.6719 -0.3065
 1183SOL    HW1 8234   7.838   5.141   9.073  0.8105 -1.2504  1.4284
 1183SOL    HW2 8235   7.862   5.043   8.960  0.5429  0.4694 -0.1850
 1184SOL     OW 8236  11.604   2.171  10.198 -0.3810  0.1200 -0.3498
 1184SOL    HW1 8237  11.645   2.097  10.153  1.0242 -0.1125  1.1980
 1184SOL    HW2 8238  11.582   2.232  10.128  0.3146 -0.8820 -1.4893
 1185SOL     OW 8239   7.968   6.856  10.290 -0.4391 -0.2173  0.6086
 1185SOL    HW1 8240   7.880   6.857  10.252  1.2300  0.2699 -3.8621
 1185SOL    HW2 8241   7.995   6.948  10.291  0.1847 -0.3858  1.6784
 1186SOL     OW 8242   6.092   3.341   5.271 -0.1124 -0.8795 -0.2704
 1186SOL    HW1 8243   5.997   3.345   5.262 -0.4706 -1.8450  2.2608
 1186SOL    HW2 8244   6.115   3.251   5.250 -0.2865 -1.6379  2.4266
 1187SOL     OW 8245   4.492   6.106   9.555 -0.1196  0.0507 -0.5863
 1187SOL    HW1 8246   4.524   6.029   9.601 -1.0720 -0.4601 -0.7503
 1187SOL    HW2 8247   4.459   6.164   9.625 -1.0080 -0.4619 -0.5613
 1188SOL     OW 8248   2.671   9.787   3.293 -0.3059  0.2929  0.0085
 1188SOL    HW1 8249   2.623   9.822   3.218 -0.8018  2.4590  1.2738
 1188SOL    HW2 8250   2.603   9.759   3.354  0.0088  1.9482  1.1656
 1189SOL     OW 8251   4.873  10.104   4.783 -0.4442  0.3172 -0.6696
 1189SOL    HW1 8252   4.961  10.076   4.756 -0.7856 -0.7063 -0.7594
 1189SOL    HW2 8253   4.878  10.200   4.783  0.4975  0.2885 -1.2539
 1190SOL     OW 8254   2.568   2.654   8.760  0.5316  0.1434  0.3231
 1190SOL    HW1 8255   2.657   2.671   8.792  0.0923  1.0569  1.1020
 1190SOL    HW2 8256   2.581   2.605   8.679  1.7935  1.1976 -0.1494
 1191SOL     OW 8257  10.764   7.158  10.669  0.2518  0.0956 -0.1312
 1191SOL    HW1 8258  10.813   7.228  10.627 -1.5993  1.1918 -0.5906
 1191SOL    HW2 8259  10.727   7.108  10.596  0.8260 -0.8466  0.2033
 1192SOL     OW 8260   0.112   0.071   0.708 -0.3475 -0.4625  0.1614
 1192SOL    HW1 8261   0.177   0.024   0.655 -0.9822 -0.1328 -0.9477
 1192SOL    HW2 8262   0.028   0.048   0.668 -0.7553  0.6930  0.3222
 1193SOL     OW 8263   9.415   3.202   8.167  0.0293  0.0213  0.2405
 1193SOL    HW1 8264   9.476   3.139   8.129 -1.0583 -0.6801 -0.3674
 1193SOL    HW2 8265   9.332   3.156   8.173 -1.1730  1.7752 -1.5283
 1194SOL     OW 8266   3.210   3.481   7.781  0.0294  0.3914 -0.0903
 1194SOL    HW1 8267   3.303   3.461   7.793  0.3207  0.7590 -1.6396
 1194SOL    HW2 8268   3.165   3.410   7.828  1.0766 -0.6012 -0.5427
 1195SOL     OW 8269   5.329   2.776  11.288 -0.4432 -0.3812  0.4687
 1195SOL    HW1 8270   5.326   2.796  11.381  1.9362  0.8538  0.3820
 1195SOL    HW2 8271   5.264   2.834  11.248  0.3135  0.9969  1.1470
 1196SOL     OW 8272   6.400   8.918   8.380  0.1952  0.5903  0.4939
 1196SOL    HW1 8273   6.430   8.915   8.471  0.3482 -1.1141  0.4136
 1196SOL    HW2 8274   6.440   8.842   8.338 -0.2566  1.0697 -0.8955
 1197SOL     OW 8275   9.511  10.118  11.924 -0.2000 -0.2873 -0.5621
 1197SOL    HW1 8276   9.531  10.034  11.964  0.3123  0.1159  0.0475
 1197SOL    HW2 8277   9.488  10.096  11.833  0.9181 -0.9903 -0.7002
 1198SOL     OW 8278   4.148   2.295   0.158  0.3660  0.1509  0.5113
 1198SOL    HW1 8279   4.156   2.384   0.190 -2.0611  0.5942  0.0198
 1198SOL    HW2 8280   4.083   2.299   0.088  0.7184 -1.8854 -0.0179
 1199SOL     OW 8281   6.441   7.245   2.369 -0.4158 -0.0436 -0.4474
 1199SOL    HW1 8282   6.403   7.322   2.327  0.2875 -0.1842 -1.3572
 1199SOL    HW2 8283   6.510   7.281   2.425 -2.6425  0.3602  2.2887
 1200SOL     OW 8284   4.238  11.294   7.685 -0.6359 -0.2344 -0.0215
 1200SOL    HW1 8285   4.325  11.313   7.652 -1.3693  0.4447 -1.6847
 1200SOL    HW2 8286   4.230  11.198   7.679 -0.0276 -0.2915  0.1022
 1201SOL     OW 8287   2.745   1.257   5.026 -0.1124 -0.7349  0.2685
 1201SOL    HW1 8288   2.810   1.294   5.086 -0.9323  1.5078 -0.1294
 1201SOL    HW2 8289   2.662   1.293   5.055 -0.4113  1.5051 -2.8637
 1202SOL     OW 8290   2.604  10.618   1.207  0.7973  0.1694  0.2725
 1202SOL    HW1 8291   2.567  10.535   1.237  1.1863 -0.3891 -0.7386
 1202SOL    HW2 8292   2.675  10.593   1.148  2.4072  1.2040  1.6519
 1203SOL     OW 8293   5.355  11.393   1.394  0.1296  0.3350 -0.2701
 1203SOL    HW1 8294   5.451  11.400   1.395  0.2153 -0.2968 -1.6616
 1203SOL    HW2 8295   5.338  11.301   1.415 -0.2781  0.7882  1.6022
 1204SOL     OW 8296   9.749  11.569   3.081  0.2203  0.2471  0.1279
 1204SOL    HW1 8297   9.695  11.547   3.157  1.1332  0.7697  0.9494
 1204SOL    HW2 8298   9.690  11.618   3.023 -0.9518 -1.5670 -0.2916
 1205SOL     OW 8299  11.310   6.326   1.049 -0.7420  0.4256 -0.0460
 1205SOL    HW1 8300  11.380   6.370   1.097  0.4648 -0.4857 -0.9097
 1205SOL    HW2 8301  11.258   6.397   1.012  0.8218  1.1544 -0.9432
 1206SOL     OW 8302  11.570   4.470   8.480 -0.4220 -0.0969  0.0778
 1206SOL    HW1 8303  11.608   4.503   8.398  3.0555 -0.8606  1.2331
 1206SOL    HW2 8304  11.570   4.375   8.469 -3.0162 -0.1242 -0.1990
 1207SOL     OW 8305   5.215   0.461   9.200  0.3376 -0.0240 -0.2781
 1207SOL    HW1 8306   5.199   0.383   9.146 -1.3985  0.2716 -0.2562
 1207SOL    HW2 8307   5.207   0.534   9.139  1.9598  0.1628 -0.2953
 1208SOL     OW 8308   8.898   6.778   8.360 -0.1444  0.1244 -0.2453
 1208SOL    HW1 8309   8.946   6.822   8.430  0.3015 -1.6726  0.6267
 1208SOL    HW2 8310   8.940   6.809   8.279 -0.7147  2.2861  0.2103
 1209SOL     OW 8311   6.151  11.896   3.272 -0.0695 -0.3723 -0.4654
 1209SOL    HW1 8312   6.168  11.974   3.324 -2.1619 -0.5407  0.5460
 1209SOL    HW2 8313   6.202  11.910   3.192  3.4068 -0.1740  1.5512
 1210SOL     OW 8314   9.620   9.612   3.874 -0.0810 -0.0676  0.6039
 1210SOL    HW1 8315   9.596   9.677   3.941 -0.0255 -0.1944  0.7481
 1210SOL    HW2 8316   9.715   9.624   3.863 -0.2763  0.7392 -0.2901
 1211SOL     OW 8317   7.315  10.457  10.132 -0.9620  0.5344  0.1598
 1211SOL    HW1 8318   7.383  10.394  10.110 -1.4160 -0.4053  1.2811
 1211SOL    HW2 8319   7.243  10.403  10.166 -1.5090  1.6345  0.8152
 1212SOL     OW 8320   0.831   7.951  11.449 -0.1550  0.1383  0.3827
 1212SOL    HW1 8321   0.770   7.949  11.375  0.3059  0.9484 -0.0316
 1212SOL    HW2 8322   0.786   7.903  11.518 -1.0451  0.2756 -0.0862
 1213SOL     OW 8323   7.515   2.087   5.703 -0.7865 -0.6222  0.2212
 1213SOL    HW1 8324   7.465   2.038   5.638  0.0366  0.5914 -1.3769
 1213SOL    HW2 8325   7.472   2.065   5.786 -3.2433 -0.5375 -0.9271
 1214SOL     OW 8326   7.513   3.011  11.601 -0.5232 -0.1827 -0.2709
 1214SOL    HW1 8327   7.494   3.023  11.694 -2.9770  1.3692 -0.8938
 1214SOL    HW2 8328   7.473   2.927  11.579 -1.4502  0.2611 -0.2878
 1215SOL     OW 8329   2.431   4.847   2.881 -0.0859  0.2683 -0.1222
 1215SOL    HW1 8330   2.511   4.897   2.863 -0.4441  0.9217  0.0416
 1215SOL    HW2 8331   2.408   4.809   2.796  0.8668 -0.6471  0.0168
 1216SOL     OW 8332  11.938  10.630   3.370  0.2159  0.0644 -0.4041
 1216SOL    HW1 8333  11.850  10.645   3.403  0.5156  0.1378  0.3843
 1216SOL    HW2 8334  11.927  10.619   3.276 -0.7847 -1.1435 -0.1642
 1217SOL     OW 8335   3.021   4.394   5.458  0.2572  0.5473 -0.6162
 1217SOL    HW1 8336   2.931   4.425   5.453 -0.1771 -0.1171  1.9737
 1217SOL    HW2 8337   3.017   4.303   5.429  0.2583  0.7183 -1.1782
 1218SOL     OW 8338  10.004   5.213   3.363 -0.2283  0.1345 -0.1286
 1218SOL    HW1 8339   9.958   5.218   3.447 -0.0761  1.2216 -0.0957
 1218SOL    HW2 8340  10.092   5.181   3.386 -0.1723  0.4730  0.1331
 1219SOL     OW 8341   5.448   8.244   5.997 -0.2380  0.2024 -0.1914
 1219SOL    HW1 8342   5.392   8.320   6.013  0.6092  1.3498 -2.3068
 1219SOL    HW2 8343   5.394   8.184   5.946  0.1170  0.9133 -1.4473
 1220SOL     OW 8344   5.073  10.829   0.566 -0.5116 -0.1944  0.0217
 1220SOL    HW1 8345   5.114  10.897   0.511 -0.0231  1.7102  2.5455
 1220SOL    HW2 8346   5.122  10.749   0.546  1.9311  1.1882  0.1383
 1221SOL     OW 8347   3.463   3.078   8.932 -0.1034 -0.1409 -0.0442
 1221SOL    HW1 8348   3.488   2.996   8.889 -0.5731  0.1316 -0.8701
 1221SOL    HW2 8349   3.412   3.125   8.866  0.1487  0.8188  0.4203
 1222SOL     OW 8350   8.241   0.171   4.015 -0.1709 -0.2725  0.0959
 1222SOL    HW1 8351   8.211   0.086   4.048 -1.5498  0.3064  0.4216
 1222SOL    HW2 8352   8.177   0.194   3.947  1.4297 -0.4689 -1.5273
 1223SOL     OW 8353   0.891   4.223  11.620  0.5578 -0.0959 -0.0535
 1223SOL    HW1 8354   0.986   4.226  11.612  0.6291  1.1686  0.9274
 1223SOL    HW2 8355   0.868   4.133  11.597  2.1381 -0.8379  1.0750
 1224SOL     OW 8356   1.777   4.093  11.181  0.1004 -0.2917  0.5585
 1224SOL    HW1 8357   1.809   4.175  11.218 -0.6154  0.4348 -0.3480
 1224SOL    HW2 8358   1.687   4.086  11.212  0.0854 -0.6102  0.4481
 1225SOL     OW 8359   2.720   9.310   3.407  0.3254  0.2988 -0.0048
 1225SOL    HW1 8360   2.790   9.359   3.450  1.9525 -0.9331 -1.1258
 1225SOL    HW2 8361   2.760   9.277   3.326 -1.8831  0.4580 -1.2494
 1226SOL     OW 8362  10.491  11.429   2.469 -0.0580 -0.7218 -0.1308
 1226SOL    HW1 8363  10.453  11.353   2.514  1.0903  0.0200  2.2641
 1226SOL    HW2 8364  10.566  11.454   2.523  0.2964  1.4263 -1.4879
 1227SOL     OW 8365   9.902   4.919   3.148  0.1705  0.9061 -0.7153
 1227SOL    HW1 8366   9.896   4.841   3.203 -0.1485  0.6251 -1.1432
 1227SOL    HW2 8367   9.954   4.891   3.072 -1.7844  0.4467 -1.9640
 1228SOL     OW 8368   3.914   2.159   9.646 -0.5533 -0.2607  0.4997
 1228SOL    HW1 8369   3.961   2.117   9.574  1.7577  1.5690  0.8287
 1228SOL    HW2 8370   3.847   2.212   9.602 -0.3554 -0.5698 -0.1978
 1229SOL     OW 8371  11.563   7.281   6.449 -0.2160  0.0354  0.1804
 1229SOL    HW1 8372  11.557   7.190   6.420 -0.5867  0.1083  0.0287
 1229SOL    HW2 8373  11.588   7.275   6.541 -0.5428 -0.2246  0.2537
 1230SOL     OW 8374   0.912   6.684   9.709 -0.8104  0.1305  0.2936
 1230SOL    HW1 8375   0.860   6.667   9.630 -0.5354  0.1195  0.1147
 1230SOL    HW2 8376   0.908   6.602   9.758  0.8651 -0.6351 -0.7647
 1231SOL     OW 8377   4.254  10.311   5.457 -0.5129  0.3666 -0.2144
 1231SOL    HW1 8378   4.212  10.333   5.374 -0.4524  0.4588 -0.2215
 1231SOL    HW2 8379   4.239  10.387   5.512  1.5740  1.4103 -0.9558
 1232SOL     OW 8380   5.701   3.521   8.352  0.2010  0.2590 -0.6295
 1232SOL    HW1 8381   5.747   3.505   8.435  0.6492  0.1214 -0.9012
 1232SOL    HW2 8382   5.710   3.616   8.338  2.0487 -0.0089 -1.6151
 1233SOL     OW 8383   1.914   2.048   4.603  0.3718  0.2231 -0.4962
 1233SOL    HW1 8384   1.936   2.062   4.511 -1.3333 -0.7004 -1.0908
 1233SOL    HW2 8385   1.846   2.113   4.622  1.1164  0.7870  0.2867
 1234SOL     OW 8386   1.497   4.483   3.040  0.1711 -0.8804 -0.2098
 1234SOL    HW1 8387   1.460   4.571   3.031  0.1621 -0.7908  0.6225
 1234SOL    HW2 8388   1.587   4.498   3.070 -0.1227 -1.1764  0.8328
 1235SOL     OW 8389   9.216  11.305  10.634 -0.3055  0.4020 -0.2245
 1235SOL    HW1 8390   9.124  11.279  10.633  0.4007 -2.3804  0.1945
 1235SOL    HW2 8391   9.234  11.323  10.727  0.7075 -4.1084  0.6873
 1236SOL     OW 8392   8.330   4.723   9.978 -0.5275 -0.7010  0.7072
 1236SOL    HW1 8393   8.373   4.767   9.905  1.9868 -1.2434  1.7370
 1236SOL    HW2 8394   8.282   4.792  10.024  0.0119  0.1402  0.0323
 1237SOL     OW 8395   8.669   4.893   5.314  0.3715 -0.4113 -0.0626
 1237SOL    HW1 8396   8.624   4.902   5.230  2.1040 -3.6928 -1.5165
 1237SOL    HW2 8397   8.731   4.966   5.316 -1.9773  1.7065  0.0629
 1238SOL     OW 8398   8.650   5.324   0.077 -0.4366  0.0487 -0.2793
 1238SOL    HW1 8399   8.613   5.381   0.010 -2.0096 -0.6561 -0.0654
 1238SOL    HW2 8400   8.647   5.375   0.157 -1.4176 -0.1492 -0.1763
 1239SOL     OW 8401   7.616  10.901   0.765 -0.5268 -0.1639 -0.2476
 1239SOL    HW1 8402   7.658  10.816   0.754 -1.7624 -0.6187 -1.7668
 1239SOL    HW2 8403   7.680  10.964   0.732  0.4606 -0.4433  1.0375
 1240SOL     OW 8404  11.226   3.251   9.150  0.3131 -0.2114  0.3312
 1240SOL    HW1 8405  11.254   3.331   9.195  1.9984 -1.3876  1.4931
 1240SOL    HW2 8406  11.185   3.198   9.218  1.3858 -1.3147  0.1554
 1241SOL     OW 8407   7.301   8.179  11.151  0.2477  0.3701  0.2278
 1241SOL    HW1 8408   7.315   8.122  11.075 -0.7940  1.2382 -0.6551
 1241SOL    HW2 8409   7.389   8.205  11.178  0.7261 -1.3148  0.4086
 1242SOL     OW 8410   0.610   6.166  11.523  0.0811 -0.2189  0.2457
 1242SOL    HW1 8411   0.642   6.078  11.543  0.0898 -0.3435 -0.3075
 1242SOL    HW2 8412   0.689   6.219  11.513  0.0741 -0.1270  0.6668
 1243SOL     OW 8413   1.936   8.142   3.126  0.3222  0.0152 -0.5120
 1243SOL    HW1 8414   2.011   8.087   3.148  0.2918  0.5202  1.0229
 1243SOL    HW2 8415   1.965   8.193   3.050  1.8371  0.7050  0.4635
 1244SOL     OW 8416  11.381   5.878   4.807  0.1593  0.5403 -0.0222
 1244SOL    HW1 8417  11.424   5.855   4.725  3.0579 -1.0978  1.7928
 1244SOL    HW2 8418  11.364   5.794   4.849 -1.3750  1.3417  1.0349
 1245SOL     OW 8419  11.117   4.413  10.168 -0.3230  0.5803 -0.4145
 1245SOL    HW1 8420  11.167   4.486  10.204 -1.2542  0.7133  0.6764
 1245SOL    HW2 8421  11.101   4.438  10.077 -1.6071  2.3091  0.2314
 1246SOL     OW 8422  10.677   0.898   4.509 -0.8125 -0.1135 -0.6525
 1246SOL    HW1 8423  10.662   0.891   4.604  0.8888  0.4208 -0.3134
 1246SOL    HW2 8424  10.644   0.816   4.474  0.9176 -1.4895  0.7531
 1247SOL     OW 8425   6.374   6.843   9.001  0.5431  0.1576 -0.0188
 1247SOL    HW1 8426   6.322   6.842   9.081  3.3477 -3.8794  2.0798
 1247SOL    HW2 8427   6.421   6.927   9.004  0.4417  0.2024  2.5299
 1248SOL     OW 8428   0.736   6.637   5.549  0.3278 -0.1607  0.1155
 1248SOL    HW1 8429   0.726   6.713   5.607 -0.6649 -0.0690 -0.1604
 1248SOL    HW2 8430   0.649   6.624   5.511  0.7411 -0.7915 -0.6474
 1249SOL     OW 8431   2.227   5.406   9.661  0.1054 -0.3417  0.2856
 1249SOL    HW1 8432   2.317   5.407   9.691  0.5723  1.0888 -1.0087
 1249SOL    HW2 8433   2.212   5.495   9.629 -1.1450 -1.0639 -1.2787
 1250SOL     OW 8434   7.923   4.069   4.589  0.7336 -0.4551  0.0194
 1250SOL    HW1 8435   7.884   4.157   4.589  1.2564 -0.2059 -1.1531
 1250SOL    HW2 8436   7.857   4.014   4.547  1.5028 -0.0774 -1.7525
 1251SOL     OW 8437   3.320   1.647   5.683 -0.0164  0.4456  0.1864
 1251SOL    HW1 8438   3.357   1.698   5.755  0.6244  0.2066  0.0373
 1251SOL    HW2 8439   3.318   1.557   5.715 -0.3225  0.4322  0.1315
 1252SOL     OW 8440   5.137   4.098   6.049 -0.2671  0.4486  0.1174
 1252SOL    HW1 8441   5.131   4.050   5.966 -0.3259 -0.6913  0.7540
 1252SOL    HW2 8442   5.228   4.088   6.076 -0.4412  0.0909  0.5951
 1253SOL     OW 8443   5.403   4.892   0.847 -0.7450 -1.1108 -0.2597
 1253SOL    HW1 8444   5.434   4.973   0.807 -2.8329  0.4622  1.0607
 1253SOL    HW2 8445   5.425   4.824   0.784  0.8873  0.4919 -1.5291
 1254SOL     OW 8446  10.391   7.206   0.309  0.3667  0.3445  0.1683
 1254SOL    HW1 8447  10.427   7.174   0.392  0.3532 -1.9444 -0.6281
 1254SOL    HW2 8448  10.460   7.261   0.273  2.0764 -1.7706 -0.0546
 1255SOL     OW 8449   9.901   0.709  11.897  0.4799 -0.4530 -0.1968
 1255SOL    HW1 8450   9.878   0.801  11.880  1.9309  0.3171  1.6591
 1255SOL    HW2 8451   9.840   0.682  11.966  1.2333 -0.2880  0.5433
 1256SOL     OW 8452  11.334   5.091   4.037 -0.2655 -0.1081 -0.0392
 1256SOL    HW1 8453  11.306   5.021   4.096 -0.0923  0.3852  0.6448
 1256SOL    HW2 8454  11.265   5.096   3.971  0.2889 -1.7132 -0.7942
 1257SOL     OW 8455   9.274   2.829   4.901  0.3082 -0.3422 -0.1738
 1257SOL    HW1 8456   9.227   2.910   4.919  1.4475  1.0690 -3.0320
 1257SOL    HW2 8457   9.274   2.783   4.985 -0.1315  2.7338  1.6824
 1258SOL     OW 8458  10.192  11.462  10.935 -0.3049 -0.0642 -0.3386
 1258SOL    HW1 8459  10.106  11.498  10.955  0.0334 -0.5781  2.4122
 1258SOL    HW2 8460  10.174  11.381  10.887 -1.3054  0.2154 -0.4533
 1259SOL     OW 8461  10.184   5.107   6.019 -0.0776  0.1656  0.1281
 1259SOL    HW1 8462  10.197   5.195   6.052  2.4938 -1.0663  2.9545
 1259SOL    HW2 8463  10.104   5.076   6.061  0.5497  0.2857  1.4925
 1260SOL     OW 8464   2.259   4.762   5.360  0.8818 -0.1207  0.1100
 1260SOL    HW1 8465   2.350   4.791   5.365  0.1254  2.2760  1.0568
 1260SOL    HW2 8466   2.242   4.751   5.267  1.9121  0.1873 -0.1206
 1261SOL     OW 8467  11.144   6.773   9.663  0.5303  0.1345  0.5839
 1261SOL    HW1 8468  11.071   6.723   9.697  0.2334 -0.2648 -0.5916
 1261SOL    HW2 8469  11.208   6.775   9.735 -0.1483 -0.4929  1.2153
 1262SOL     OW 8470   1.976   6.988   5.066  0.4500  0.2062  0.1667
 1262SOL    HW1 8471   2.014   7.056   5.121 -0.2622 -1.0311  2.3049
 1262SOL    HW2 8472   1.912   7.035   5.012  1.7450  1.5861 -0.2199
 1263SOL     OW 8473   3.793   2.420   3.404  0.0156 -0.1895  0.1290
 1263SOL    HW1 8474   3.808   2.326   3.395  2.1331  0.1130  0.0729
 1263SOL    HW2 8475   3.781   2.433   3.498 -1.2772 -0.6174  0.0428
 1264SOL     OW 8476   4.321   9.152   2.364 -0.2809 -0.0013 -0.0886
 1264SOL    HW1 8477   4.236   9.132   2.325 -0.5937  1.2086 -0.0727
 1264SOL    HW2 8478   4.344   9.238   2.328  0.0780  0.5134  1.3016
 1265SOL     OW 8479   7.954   4.696   4.604 -0.2660 -0.6184 -0.1159
 1265SOL    HW1 8480   8.038   4.737   4.583 -0.2751 -0.6661 -0.2506
 1265SOL    HW2 8481   7.930   4.650   4.523 -0.9503  0.2989 -0.4518
 1266SOL     OW 8482  10.788   9.637   3.139  0.3783  0.7994  0.5851
 1266SOL    HW1 8483  10.789   9.570   3.208  0.6250 -1.2953 -1.3463
 1266SOL    HW2 8484  10.834   9.711   3.178  0.7674 -0.4031  2.5795
 1267SOL     OW 8485   9.483  11.333  11.062  0.1341 -0.2838  0.2489
 1267SOL    HW1 8486   9.456  11.322  11.153  0.8353 -2.8716  0.2095
 1267SOL    HW2 8487   9.576  11.308  11.061 -0.0274 -0.9366 -1.2725
 1268SOL     OW 8488   3.078   3.463   0.098  0.3840 -0.7049  0.3888
 1268SOL    HW1 8489   3.006   3.461   0.161  2.3745  0.3299  2.8732
 1268SOL    HW2 8490   3.145   3.406   0.135  1.8127  0.3033 -0.5112
 1269SOL     OW 8491  10.923   5.862   4.991 -0.1902 -0.2212 -0.3272
 1269SOL    HW1 8492  10.881   5.836   4.909 -1.0300 -0.6194  0.2213
 1269SOL    HW2 8493  10.972   5.942   4.969 -2.0236  0.8337 -0.7680
 1270SOL     OW 8494  11.263   2.843   7.927  0.1341  0.0900 -0.6184
 1270SOL    HW1 8495  11.195   2.886   7.874  0.7018  1.4144 -0.3089
 1270SOL    HW2 8496  11.254   2.750   7.906 -1.4267  0.2844 -0.9902
 1271SOL     OW 8497   1.200   9.919  10.353  0.0461 -0.1039  0.2021
 1271SOL    HW1 8498   1.117   9.901  10.396  1.0834 -1.4164  1.7716
 1271SOL    HW2 8499   1.249   9.973  10.416  0.2593  1.0168 -0.8737
 1272SOL     OW 8500   3.927   0.386   4.037 -0.2799 -0.1662  0.1987
 1272SOL    HW1 8501   3.966   0.302   4.012  0.5494  0.2557  0.0175
 1272SOL    HW2 8502   3.850   0.394   3.981  1.6951  0.9022 -2.6577
 1273SOL     OW 8503   9.262   0.745   2.866 -0.1320  0.1369  0.4303
 1273SOL    HW1 8504   9.332   0.798   2.904  0.3200 -1.5471  2.1462
 1273SOL    HW2 8505   9.285   0.655   2.890 -1.9233 -0.6441 -0.5649
 1274SOL     OW 8506   4.211   3.484   9.991  0.1191  0.0119  0.1791
 1274SOL    HW1 8507   4.168   3.563  10.022 -0.2860  0.7795 -2.1059
 1274SOL    HW2 8508   4.207   3.423  10.064  0.4067  2.0675  1.9983
 1275SOL     OW 8509   8.137   7.770  10.030  0.0186 -0.0841 -0.0846
 1275SOL    HW1 8510   8.068   7.810   9.977 -0.1749 -1.6031 -1.0329
 1275SOL    HW2 8511   8.218   7.794   9.986 -0.0373 -0.0087 -0.1478
 1276SOL     OW 8512   9.729   7.834   6.355 -0.1196  0.1904 -0.4281
 1276SOL    HW1 8513   9.688   7.874   6.279 -2.6553 -1.0373  0.1873
 1276SOL    HW2 8514   9.679   7.867   6.430  1.6990  0.6244  0.6712
 1277SOL     OW 8515   6.456  11.582  10.496  0.4599 -0.1017 -0.3266
 1277SOL    HW1 8516   6.451  11.497  10.451  1.7085 -0.7407  0.6897
 1277SOL    HW2 8517   6.548  11.605  10.494  0.3495  0.4799  0.7921
 1278SOL     OW 8518  10.182   0.620   4.759 -0.8028 -0.2967 -0.4907
 1278SOL    HW1 8519  10.227   0.577   4.832 -0.4277 -1.7022 -1.5197
 1278SOL    HW2 8520  10.252   0.652   4.703 -1.0953  0.2370 -0.5631
 1279SOL     OW 8521  10.276   7.307   2.477  0.6079  0.2147 -0.1133
 1279SOL    HW1 8522  10.319   7.392   2.468  0.2048  0.2300 -3.0394
 1279SOL    HW2 8523  10.187   7.321   2.444  0.1689 -1.0866  0.4414
 1280SOL     OW 8524   3.162   8.976  10.549  0.0859  0.3705 -0.4522
 1280SOL    HW1 8525   3.162   9.055  10.603 -0.6307 -0.0729  0.2209
 1280SOL    HW2 8526   3.106   8.998  10.475 -0.7819  0.2468  0.1444
 1281SOL     OW 8527  11.513   7.978   6.575 -0.1036  0.0070 -0.3553
 1281SOL    HW1 8528  11.426   7.938   6.571 -0.0404 -0.1117 -0.5467
 1281SOL    HW2 8529  11.567   7.914   6.620 -0.2159  0.2666  0.1525
 1282SOL     OW 8530   2.853   0.398   2.397  0.4759  0.0457 -0.1964
 1282SOL    HW1 8531   2.941   0.361   2.405  0.8680  0.2709 -2.7238
 1282SOL    HW2 8532   2.867   0.487   2.364 -0.6369  1.1194  1.9990
 1283SOL     OW 8533   5.877   6.400   6.878 -0.8091 -0.2986 -0.1372
 1283SOL    HW1 8534   5.784   6.380   6.893 -1.0001  0.8303  0.2701
 1283SOL    HW2 8535   5.917   6.397   6.965 -1.1664  2.5409  0.2054
 1284SOL     OW 8536   4.899  10.383   1.131 -0.3215 -0.0004 -0.1756
 1284SOL    HW1 8537   4.854  10.393   1.214 -2.1814 -0.8892 -1.0202
 1284SOL    HW2 8538   4.869  10.456   1.077 -0.4997 -0.4102 -0.6407
 1285SOL     OW 8539  10.000   2.087   0.611 -0.4756 -0.2803 -0.3298
 1285SOL    HW1 8540   9.960   2.047   0.535 -0.6778 -0.2150 -0.2603
 1285SOL    HW2 8541   9.996   2.020   0.679 -1.2671  0.0188 -0.0679
 1286SOL     OW 8542   1.148   3.735  11.827  0.9037 -0.7717  0.3319
 1286SOL    HW1 8543   1.161   3.817  11.780  1.0306 -0.6577  0.5676
 1286SOL    HW2 8544   1.061   3.744  11.867  0.5585 -1.0897 -0.3291
 1287SOL     OW 8545   7.488   1.989   7.521  0.1398  0.0844 -0.0069
 1287SOL    HW1 8546   7.450   2.051   7.458  1.5798  1.1665  0.1662
 1287SOL    HW2 8547   7.452   2.016   7.605 -0.6176 -0.4442 -0.1443
 1288SOL     OW 8548   9.046   6.478   2.255 -0.0931 -0.2609 -0.3126
 1288SOL    HW1 8549   9.026   6.385   2.254  2.1728 -0.7932  0.3780
 1288SOL    HW2 8550   9.092   6.493   2.337  0.5989  1.2484 -0.9359
 1289SOL     OW 8551   1.674   6.474   8.134 -0.1114  0.2896  0.6297
 1289SOL    HW1 8552   1.646   6.499   8.046  1.3428  0.7337  0.2565
 1289SOL    HW2 8553   1.769   6.459   8.125 -0.1282 -0.7558  1.8813
 1290SOL     OW 8554   0.062   0.354   3.922 -0.5386  0.5540 -0.0320
 1290SOL    HW1 8555   0.154   0.379   3.907 -0.0405  0.1652  2.0429
 1290SOL    HW2 8556   0.048   0.279   3.864  0.3575  0.7913 -0.5768
 1291SOL     OW 8557   3.655   2.737   0.918  0.4041  0.4832 -0.3959
 1291SOL    HW1 8558   3.691   2.808   0.864  0.5465  0.1605 -0.7316
 1291SOL    HW2 8559   3.730   2.680   0.935  0.3838  0.6508  0.2526
 1292SOL     OW 8560   1.034   2.533  10.324 -0.1311  0.0914  0.1775
 1292SOL    HW1 8561   0.980   2.545  10.246  0.1907  1.6773  0.1690
 1292SOL    HW2 8562   1.111   2.588  10.309  1.1493 -1.5132  0.5393
 1293SOL     OW 8563   3.523   1.330   0.911  0.0681 -0.2239 -0.1443
 1293SOL    HW1 8564   3.517   1.244   0.869  0.1047  0.3685 -1.4047
 1293SOL    HW2 8565   3.530   1.310   1.005  1.5782 -1.6361 -0.5056
 1294SOL     OW 8566   7.815   4.973  11.966  0.2654 -0.4329 -0.2802
 1294SOL    HW1 8567   7.804   5.019  11.883  1.5245 -0.4642 -0.4912
 1294SOL    HW2 8568   7.831   4.882  11.940 -0.0253 -0.5741  0.0329
 1295SOL     OW 8569   5.883  10.531   8.498 -0.2379 -0.4117 -0.2092
 1295SOL    HW1 8570   5.920  10.459   8.447 -0.1819 -0.9414  0.5588
 1295SOL    HW2 8571   5.942  10.605   8.482  0.2742 -0.8207 -0.2149
 1296SOL     OW 8572   2.722   7.908   9.860 -0.2082 -0.1851  0.1159
 1296SOL    HW1 8573   2.689   7.828   9.819 -0.5414  1.3265 -2.8290
 1296SOL    HW2 8574   2.748   7.964   9.787  0.6332  2.1806  2.0637
 1297SOL     OW 8575   3.546   0.939  10.642  0.5441  0.2198 -0.6274
 1297SOL    HW1 8576   3.517   0.874  10.578 -0.7975  2.7011 -2.7549
 1297SOL    HW2 8577   3.493   0.921  10.720 -0.9449 -0.3037 -1.7051
 1298SOL     OW 8578   7.939   3.181   0.705 -0.4782  0.1145 -0.2501
 1298SOL    HW1 8579   7.953   3.274   0.689 -0.9343  0.2372  0.0368
 1298SOL    HW2 8580   7.844   3.173   0.718 -0.2371 -0.0867  1.5769
 1299SOL     OW 8581   8.757   6.817   4.275 -0.2801  0.0752 -0.7859
 1299SOL    HW1 8582   8.803   6.745   4.318 -1.5864 -1.8566 -2.4683
 1299SOL    HW2 8583   8.674   6.823   4.321  0.2827  1.4261  0.1524
 1300SOL     OW 8584   7.538  10.914   3.251 -0.2840 -0.3495  0.2928
 1300SOL    HW1 8585   7.574  10.919   3.339 -0.0018  0.5474  0.1338
 1300SOL    HW2 8586   7.484  10.993   3.242 -1.0149 -0.8723 -0.0343
 1301SOL     OW 8587   5.702   1.759   4.840 -0.6228  0.2496 -0.1975
 1301SOL    HW1 8588   5.616   1.792   4.816 -1.6285 -1.0764  1.4148
 1301SOL    HW2 8589   5.694   1.664   4.836  1.2988  0.0713 -1.6893
 1302SOL     OW 8590   3.033   4.326   3.521  0.3753  0.4279  0.1305
 1302SOL    HW1 8591   2.985   4.255   3.478  2.1137 -1.3381  0.9424
 1302SOL    HW2 8592   3.124   4.312   3.495  0.8448  1.9957  0.8335
 1303SOL     OW 8593   6.573   0.880   9.752 -0.2864 -0.1419  0.1155
 1303SOL    HW1 8594   6.643   0.906   9.812  1.1361 -1.4332 -0.9196
 1303SOL    HW2 8595   6.607   0.802   9.708 -1.3854  0.5938 -2.1624
 1304SOL     OW 8596  11.000   0.083   1.467 -0.2952 -0.4440 -0.2247
 1304SOL    HW1 8597  10.978   0.017   1.532  1.4983  0.6366  1.5887
 1304SOL    HW2 8598  11.087   0.058   1.436  0.3740  0.9925  0.4245
 1305SOL     OW 8599   1.879   2.558  10.122  0.0528  0.0468 -0.5731
 1305SOL    HW1 8600   1.805   2.542  10.180 -0.3997  0.5106 -1.0107
 1305SOL    HW2 8601   1.905   2.471  10.092 -0.3636 -0.1168 -0.4711
 1306SOL     OW 8602  10.657   9.570   5.207 -0.3517  0.2328 -0.3037
 1306SOL    HW1 8603  10.659   9.568   5.302 -1.1721 -0.5585 -0.2897
 1306SOL    HW2 8604  10.634   9.480   5.181  1.8192 -0.0792 -1.3226
 1307SOL     OW 8605   5.314   0.914   0.755  0.2440 -0.2366  0.0805
 1307SOL    HW1 8606   5.371   0.947   0.685 -0.7548  0.7111 -0.3234
 1307SOL    HW2 8607   5.283   0.830   0.723 -0.3554  0.2707 -0.7303
 1308SOL     OW 8608   9.814   5.235   7.321 -0.3185 -0.5842 -0.3704
 1308SOL    HW1 8609   9.877   5.221   7.250  0.8216  3.0839 -0.2819
 1308SOL    HW2 8610   9.729   5.241   7.276 -0.0406 -1.2636 -1.0179
 1309SOL     OW 8611   0.203   6.446   6.778  0.3347  0.1880  0.4689
 1309SOL    HW1 8612   0.209   6.352   6.760 -1.1687  0.1947 -0.2054
 1309SOL    HW2 8613   0.154   6.452   6.860 -0.1757  0.3869  0.1555
 1310SOL     OW 8614   1.492  10.758   9.662 -0.6662  0.2334  0.1290
 1310SOL    HW1 8615   1.427  10.722   9.723 -0.0727 -0.4691  0.3631
 1310SOL    HW2 8616   1.543  10.820   9.715 -0.1217 -0.4103  0.3708
 1311SOL     OW 8617   0.406  11.302   7.882 -0.0059  0.4936 -0.4088
 1311SOL    HW1 8618   0.315  11.295   7.855 -0.0498 -1.0154  0.0578
 1311SOL    HW2 8619   0.448  11.351   7.811 -0.4790 -1.8170 -2.3908
 1312SOL     OW 8620   6.885   2.028   5.588  0.2912  0.0450  0.1036
 1312SOL    HW1 8621   6.827   2.086   5.538 -0.4946 -0.6171  0.2288
 1312SOL    HW2 8622   6.827   1.982   5.649  1.1598  0.4482  1.2776
 1313SOL     OW 8623   1.372   5.202   4.331  0.2251  0.1201  0.1674
 1313SOL    HW1 8624   1.445   5.154   4.372 -0.0448 -0.1673  0.3132
 1313SOL    HW2 8625   1.294   5.154   4.357 -0.0512  0.6370  0.3003
 1314SOL     OW 8626   6.270   3.688   5.546  0.2145  0.1821 -0.4184
 1314SOL    HW1 8627   6.337   3.666   5.610  0.4317  1.2317 -0.2742
 1314SOL    HW2 8628   6.228   3.604   5.526  0.5624 -0.2541  0.6100
 1315SOL     OW 8629   4.933   4.216  11.420 -0.3614  0.0383  0.6977
 1315SOL    HW1 8630   4.979   4.145  11.374 -0.5340 -0.9524  2.0029
 1315SOL    HW2 8631   4.886   4.263  11.351  1.0717 -0.0881 -0.4127
 1316SOL     OW 8632   8.531  10.698  10.611  0.1366 -0.1580  0.5229
 1316SOL    HW1 8633   8.583  10.623  10.640  0.5541 -0.2244 -0.3614
 1316SOL    HW2 8634   8.595  10.766  10.590  0.0618 -0.7669 -2.1030
 1317SOL     OW 8635  10.429   1.509   0.079 -0.0322 -0.0696  0.1549
 1317SOL    HW1 8636  10.417   1.422   0.043  4.9730  0.0653 -2.6844
 1317SOL    HW2 8637  10.403   1.568   0.008  0.5957  0.5762  0.4517
 1318SOL     OW 8638   5.871  10.793   1.763 -0.1331  0.0507 -0.7521
 1318SOL    HW1 8639   5.889  10.838   1.845  0.4039  0.7093 -1.2302
 1318SOL    HW2 8640   5.830  10.859   1.708  1.1791  0.1270 -1.6586
 1319SOL     OW 8641  11.949   3.574   1.042 -0.3709 -0.0244 -0.6029
 1319SOL    HW1 8642  12.003   3.515   1.094 -1.4082  0.0842  0.6569
 1319SOL    HW2 8643  11.969   3.662   1.076 -1.3771  0.0074 -0.0468
 1320SOL     OW 8644   8.864   6.999   1.457 -0.5955  0.7688  0.2251
 1320SOL    HW1 8645   8.832   6.959   1.377  1.2236 -1.2777  0.4105
 1320SOL    HW2 8646   8.959   6.993   1.450 -0.2760  3.5797  1.1022
 1321SOL     OW 8647   6.827  11.602   9.928  0.7659 -0.0070  0.1931
 1321SOL    HW1 8648   6.809  11.508   9.938  1.2857  0.1457  3.8127
 1321SOL    HW2 8649   6.905  11.605   9.872  1.0711 -1.7734  0.4364
 1322SOL     OW 8650   3.069   8.145   1.594 -0.1419 -0.4055  0.2785
 1322SOL    HW1 8651   3.088   8.105   1.679  2.5675  1.2742  0.5986
 1322SOL    HW2 8652   3.028   8.229   1.615  0.4339 -0.0313 -0.0498
 1323SOL     OW 8653   2.407   7.789   7.442 -0.0370 -0.0251  0.2021
 1323SOL    HW1 8654   2.421   7.754   7.354 -0.2209  0.6239 -0.0933
 1323SOL    HW2 8655   2.482   7.847   7.457 -0.0086 -0.1334  0.4690
 1324SOL     OW 8656   9.172  11.706   3.871 -0.3086  0.2422 -0.7869
 1324SOL    HW1 8657   9.265  11.685   3.873 -0.4653 -0.4149 -0.3281
 1324SOL    HW2 8658   9.163  11.781   3.930  0.2709  1.7596 -2.5458
 1325SOL     OW 8659   9.677   5.685   5.492 -0.1321  0.0248 -0.0438
 1325SOL    HW1 8660   9.699   5.605   5.443 -0.6786  0.1038 -0.4284
 1325SOL    HW2 8661   9.695   5.756   5.431  0.9587  0.2449  0.5141
 1326SOL     OW 8662   9.980   9.979   8.765 -0.2464  0.4312  0.1162
 1326SOL    HW1 8663  10.046  10.003   8.700  1.2457  0.6300  1.6369
 1326SOL    HW2 8664   9.944  10.062   8.796  1.0493  0.5165  1.4990
 1327SOL     OW 8665   4.026  10.241   2.932  0.2628 -0.3899  0.2828
 1327SOL    HW1 8666   4.099  10.216   2.876  2.8958  1.3556  2.6340
 1327SOL    HW2 8667   3.986  10.317   2.889  0.4297 -0.7836 -0.5749
 1328SOL     OW 8668  10.399  11.125   3.356  0.8309 -0.8603 -0.3635
 1328SOL    HW1 8669  10.367  11.127   3.446 -0.7465  0.1269 -0.9106
 1328SOL    HW2 8670  10.397  11.216   3.328 -0.3690 -1.3172 -1.9400
 1329SOL     OW 8671   6.781   3.951   6.165 -0.6792  0.8002  0.2362
 1329SOL    HW1 8672   6.875   3.957   6.148 -0.5119  1.9929  1.3837
 1329SOL    HW2 8673   6.740   3.970   6.081  0.0992  0.0344 -0.3357
 1330SOL     OW 8674   8.926   9.257   3.530  0.2083  0.0582 -0.0018
 1330SOL    HW1 8675   8.836   9.284   3.546 -0.1356 -0.8954 -0.3168
 1330SOL    HW2 8676   8.920   9.168   3.496  1.3716 -0.8395  1.9613
 1331SOL     OW 8677   1.564  11.912   6.614  0.1089 -0.2875 -0.1886
 1331SOL    HW1 8678   1.519  11.996   6.618  0.0794 -0.2828 -0.5518
 1331SOL    HW2 8679   1.625  11.914   6.688 -0.3816 -0.2378  0.2180
 1332SOL     OW 8680   6.525  11.306   5.518 -0.0754  0.7278 -0.6849
 1332SOL    HW1 8681   6.469  11.383   5.517 -0.2067  0.6299 -0.8377
 1332SOL    HW2 8682   6.483  11.244   5.458  0.5681  0.9235 -1.3501
 1333SOL     OW 8683   3.655  10.227   3.493 -0.4100  0.1649  0.3435
 1333SOL    HW1 8684   3.703  10.144   3.496  0.1064  0.4823  1.2305
 1333SOL    HW2 8685   3.610  10.225   3.408 -1.1291 -1.4162  0.7183
 1334SOL     OW 8686   2.773   4.757  10.023  0.6271  0.3980 -0.7437
 1334SOL    HW1 8687   2.731   4.793   9.945 -0.2814 -1.3540 -1.1154
 1334SOL    HW2 8688   2.736   4.669  10.031  0.6214  0.5587  1.7200
 1335SOL     OW 8689   5.297  10.350  11.353 -0.3628 -0.1598 -0.2097
 1335SOL    HW1 8690   5.355  10.418  11.387 -0.1641 -0.4625  0.0562
 1335SOL    HW2 8691   5.309  10.354  11.258 -0.4234  0.2396 -0.2035
 1336SOL     OW 8692   6.773   7.839   1.403 -0.4629 -0.1505  0.2113
 1336SOL    HW1 8693   6.849   7.867   1.351 -0.3732  0.6835  0.7851
 1336SOL    HW2 8694   6.736   7.766   1.352  1.1641 -1.1028  0.3082
 1337SOL     OW 8695   3.755   8.378   2.647  0.1600  0.2421 -0.0221
 1337SOL    HW1 8696   3.797   8.449   2.598  3.7796 -0.2668  1.9754
 1337SOL    HW2 8697   3.722   8.420   2.726  0.7144 -0.0034  0.3436
 1338SOL     OW 8698   3.653   4.636   0.728 -0.0207 -0.3566 -0.4473
 1338SOL    HW1 8699   3.613   4.722   0.714  2.9317  0.9456 -1.6774
 1338SOL    HW2 8700   3.588   4.574   0.695 -1.2653  1.5388 -1.8075
 1339SOL     OW 8701  10.035  10.082   8.113 -0.0814 -0.2918 -0.4322
 1339SOL    HW1 8702  10.104  10.031   8.157  0.0404  0.6824  0.5361
 1339SOL    HW2 8703  10.068  10.171   8.113 -0.6230 -0.0792 -1.4600
 1340SOL     OW 8704  11.104   0.403   6.471  0.0473 -0.3566 -0.0445
 1340SOL    HW1 8705  11.149   0.327   6.434 -0.4903 -0.6636 -0.0741
 1340SOL    HW2 8706  11.044   0.432   6.401 -1.1017 -1.0455  0.6211
 1341SOL     OW 8707  11.579   1.645   9.054 -0.0216  0.0090 -0.1674
 1341SOL    HW1 8708  11.552   1.707   9.122  0.1885 -1.8617  1.7269
 1341SOL    HW2 8709  11.612   1.700   8.983  0.6492  2.0606  1.6242
 1342SOL     OW 8710   5.713   6.392   7.779  0.0153 -0.8048  0.1238
 1342SOL    HW1 8711   5.626   6.371   7.812  0.6717 -1.0650  1.8439
 1342SOL    HW2 8712   5.762   6.310   7.790  0.8324 -0.2726  0.5325
 1343SOL     OW 8713  11.763   3.258   5.002 -0.1718 -0.2237 -0.3868
 1343SOL    HW1 8714  11.693   3.308   5.043 -0.4846 -1.3340  0.4863
 1343SOL    HW2 8715  11.730   3.235   4.916 -0.2620  0.5552 -0.5642
 1344SOL     OW 8716   9.380   6.945   6.435 -0.4340 -0.5949 -0.0848
 1344SOL    HW1 8717   9.422   6.920   6.353 -2.3253 -0.7905 -1.0387
 1344SOL    HW2 8718   9.410   6.880   6.498  2.1481  0.3605 -0.2225
 1345SOL     OW 8719   0.062   7.474   6.186  0.6391  0.7292 -0.2571
 1345SOL    HW1 8720   0.041   7.465   6.094  0.2129  0.8919 -0.1774
 1345SOL    HW2 8721   0.012   7.550   6.215 -0.1188  0.0081  0.3696
 1346SOL     OW 8722   9.792   7.884   5.271  0.4002  0.5729  0.2148
 1346SOL    HW1 8723   9.804   7.976   5.250  2.0966  0.4786  0.6534
 1346SOL    HW2 8724   9.857   7.838   5.217 -2.2186 -0.7164 -2.1593
 1347SOL     OW 8725   1.578   6.458   4.226  0.6089 -0.3945 -0.4065
 1347SOL    HW1 8726   1.582   6.381   4.169 -0.3257 -1.1701  0.5219
 1347SOL    HW2 8727   1.492   6.451   4.268  0.2662  1.4870 -0.7383
 1348SOL     OW 8728   6.280   1.261  11.876 -0.3053 -0.2967 -0.8800
 1348SOL    HW1 8729   6.306   1.216  11.796  3.4894  0.9208 -0.5516
 1348SOL    HW2 8730   6.319   1.209  11.946 -1.5245 -0.0515 -0.0004
 1349SOL     OW 8731   1.176   6.392   2.840  0.2515 -0.1133 -0.1534
 1349SOL    HW1 8732   1.117   6.322   2.867  0.0541 -0.1913 -0.7837
 1349SOL    HW2 8733   1.134   6.472   2.872  0.6294 -0.2910  0.8390
 1350SOL     OW 8734   6.112   2.253   5.196  0.4842 -0.3246  0.0664
 1350SOL    HW1 8735   6.107   2.194   5.121 -0.9125 -0.9886  0.6421
 1350SOL    HW2 8736   6.166   2.326   5.166  1.5014 -1.4516 -0.9636
 1351SOL     OW 8737  11.816   4.410   3.760 -0.3663  0.0651 -0.6561
 1351SOL    HW1 8738  11.877   4.339   3.783  0.1001  0.8661  0.6781
 1351SOL    HW2 8739  11.742   4.397   3.820 -0.0818  0.9510 -0.1002
 1352SOL     OW 8740  11.384   5.007   9.737  0.3195 -0.2098  0.1035
 1352SOL    HW1 8741  11.432   4.936   9.780 -0.2212 -0.2232  0.6881
 1352SOL    HW2 8742  11.309   4.964   9.697  0.8527 -0.2088 -0.9316
 1353SOL     OW 8743  11.267   6.668   6.235 -0.3718  0.2703 -0.2851
 1353SOL    HW1 8744  11.248   6.762   6.233 -1.5996  0.0339 -0.4335
 1353SOL    HW2 8745  11.182   6.626   6.225 -0.0946 -0.8693  1.5504
 1354SOL     OW 8746   7.037   6.927   8.890  0.1717  0.6767 -0.0318
 1354SOL    HW1 8747   7.084   6.877   8.823  0.2180 -0.3618  0.7476
 1354SOL    HW2 8748   7.067   7.017   8.879 -0.5716  0.7344 -2.0563
 1355SOL     OW 8749   4.897  11.167   6.904  0.1649  0.2730  0.0559
 1355SOL    HW1 8750   4.809  11.138   6.929  0.2281  0.3539  0.3855
 1355SOL    HW2 8751   4.931  11.096   6.850 -0.3567  0.5478 -0.6487
 1356SOL     OW 8752   0.853   1.461   2.842  0.0551 -0.6699  0.4049
 1356SOL    HW1 8753   0.947   1.474   2.829  0.3141 -1.9184  0.8591
 1356SOL    HW2 8754   0.838   1.487   2.933  0.2262 -1.7212  0.7436
 1357SOL     OW 8755  11.772   7.372   0.583  0.3071 -0.0725  0.3064
 1357SOL    HW1 8756  11.699   7.382   0.644 -0.7401 -1.4838 -0.6326
 1357SOL    HW2 8757  11.801   7.282   0.595  0.8587  0.0006 -0.4222
 1358SOL     OW 8758  10.921   9.539  11.885  0.4723 -0.5985 -0.3524
 1358SOL    HW1 8759  11.015   9.551  11.897  0.7552 -2.6329 -0.1870
 1358SOL    HW2 8760  10.881   9.576  11.964  1.4315 -2.7855  1.2556
 1359SOL     OW 8761   3.932   2.589   5.326  1.1969 -0.4050  0.5023
 1359SOL    HW1 8762   3.842   2.606   5.297  1.4090 -1.5561 -0.9690
 1359SOL    HW2 8763   3.922   2.546   5.411  0.3785 -0.0601  0.5902
 1360SOL     OW 8764   9.334   1.942   3.099  0.6779 -0.1964 -0.6748
 1360SOL    HW1 8765   9.328   1.853   3.064 -0.1429  0.4776 -2.3697
 1360SOL    HW2 8766   9.407   1.982   3.052  0.1093  0.4648 -1.0238
 1361SOL     OW 8767   8.133   6.481   2.854 -0.0134 -0.1723  0.3291
 1361SOL    HW1 8768   8.127   6.390   2.883 -0.5672 -0.1164  0.4013
 1361SOL    HW2 8769   8.140   6.476   2.759 -0.5413 -0.2742  0.2958
 1362SOL     OW 8770  11.650   3.074  10.363 -0.0398 -0.6919 -0.2279
 1362SOL    HW1 8771  11.647   3.011  10.435  0.1263 -0.5982 -0.1392
 1362SOL    HW2 8772  11.707   3.144  10.394 -0.0257 -0.6152 -0.4219
 1363SOL     OW 8773   0.276   4.868   3.528 -0.4173 -0.2892  0.2375
 1363SOL    HW1 8774   0.286   4.869   3.623 -1.5220  0.8409  0.3765
 1363SOL    HW2 8775   0.231   4.951   3.508 -1.3788 -1.1003 -1.1246
 1364SOL     OW 8776  11.827   0.934   2.100 -0.4979  0.2743  0.3615
 1364SOL    HW1 8777  11.779   1.017   2.094  0.1730  0.6349 -0.0886
 1364SOL    HW2 8778  11.899   0.952   2.160  0.7187  0.5687 -1.1216
 1365SOL     OW 8779  10.481   7.699   3.014 -0.2746 -0.2258 -0.0925
 1365SOL    HW1 8780  10.534   7.762   3.063 -0.8106 -0.6986  1.1466
 1365SOL    HW2 8781  10.529   7.617   3.022 -1.2663 -0.7070  1.2300
 1366SOL     OW 8782   9.296   1.294  10.842 -0.3759 -0.2338 -0.6626
 1366SOL    HW1 8783   9.391   1.282  10.851 -0.2838  1.0929  0.5758
 1366SOL    HW2 8784   9.274   1.250  10.760  1.1658 -1.3135 -0.5473
 1367SOL     OW 8785   3.753   2.385   4.589 -0.0977 -0.0470 -0.3090
 1367SOL    HW1 8786   3.760   2.290   4.586 -0.5301 -0.0496 -1.6310
 1367SOL    HW2 8787   3.664   2.401   4.622 -0.8337 -0.1396 -2.1492
 1368SOL     OW 8788   1.857   1.665   7.572  0.2175 -0.0476  0.2204
 1368SOL    HW1 8789   1.897   1.610   7.504 -1.0132  0.0113 -0.5714
 1368SOL    HW2 8790   1.856   1.753   7.534 -1.4566 -0.1982 -0.1583
 1369SOL     OW 8791   2.288  11.771   8.477  0.2168 -0.9306  0.0128
 1369SOL    HW1 8792   2.301  11.794   8.385  2.1754  0.7306  0.6171
 1369SOL    HW2 8793   2.258  11.680   8.476  1.2154 -1.2878 -2.2412
 1370SOL     OW 8794  10.152   9.708   5.579 -0.3000 -0.0040  0.2749
 1370SOL    HW1 8795  10.111   9.794   5.591  0.0149  0.1072  0.5971
 1370SOL    HW2 8796  10.244   9.728   5.562 -0.3015 -0.2664 -0.0422
 1371SOL     OW 8797  11.626   9.696   8.824  0.2977  0.6891  0.0403
 1371SOL    HW1 8798  11.713   9.694   8.863 -0.8049  0.1751  2.6700
 1371SOL    HW2 8799  11.578   9.761   8.875 -0.9763  0.7161 -1.1313
 1372SOL     OW 8800   5.864   9.238   4.956  0.0215  0.2436  0.0165
 1372SOL    HW1 8801   5.878   9.333   4.961 -4.1740  1.1213 -0.6979
 1372SOL    HW2 8802   5.801   9.220   5.026  0.0164 -1.8498 -0.4740
 1373SOL     OW 8803   2.377   5.643   7.301  0.3266 -0.6441 -0.1911
 1373SOL    HW1 8804   2.428   5.568   7.331  0.2139 -0.3976  0.6437
 1373SOL    HW2 8805   2.332   5.674   7.379  1.0421  0.8128 -0.3154
 1374SOL     OW 8806   5.381   2.939   7.294 -0.2662 -0.0113  0.3335
 1374SOL    HW1 8807   5.364   2.846   7.276  0.6929 -0.2844  0.7848
 1374SOL    HW2 8808   5.453   2.938   7.357 -0.5180  1.0396  0.6500
 1375SOL     OW 8809   9.628  11.158   0.203  0.0322 -0.1750 -0.0239
 1375SOL    HW1 8810   9.704  11.101   0.188  0.2584 -0.0782  0.7404
 1375SOL    HW2 8811   9.644  11.199   0.288  0.0376  1.3178 -0.7202
 1376SOL     OW 8812   7.300   1.344   1.446  0.0080  0.0248  0.6254
 1376SOL    HW1 8813   7.365   1.393   1.396 -1.4245  0.3296 -1.0377
 1376SOL    HW2 8814   7.226   1.404   1.456 -1.3357 -1.3369 -0.4869
 1377SOL     OW 8815   7.195   7.962   4.249 -0.3315 -0.1862 -0.2608
 1377SOL    HW1 8816   7.120   7.929   4.200  0.2209 -0.6038 -0.8545
 1377SOL    HW2 8817   7.158   8.018   4.317 -1.2230 -1.0424 -0.0231
 1378SOL     OW 8818   4.168   8.871   7.437  0.9997  0.9927  0.0429
 1378SOL    HW1 8819   4.143   8.889   7.528  2.6659  0.1994  0.7017
 1378SOL    HW2 8820   4.168   8.776   7.431  0.7106  1.0437 -0.8707
 1379SOL     OW 8821   7.374   1.003   8.540 -0.4994  0.1663 -0.0090
 1379SOL    HW1 8822   7.287   0.964   8.552 -0.6387  0.0645 -1.2485
 1379SOL    HW2 8823   7.399   1.032   8.628 -1.5060 -0.3832  0.4800
 1380SOL     OW 8824   9.159  11.785  11.702  0.1493 -0.0718 -0.7491
 1380SOL    HW1 8825   9.159  11.691  11.722 -1.3241 -0.4018 -2.0908
 1380SOL    HW2 8826   9.242  11.801  11.658  1.2947 -0.3064  1.2296
 1381SOL     OW 8827   0.405  10.371  10.195  0.0828 -0.0337 -0.1932
 1381SOL    HW1 8828   0.458  10.298  10.164 -0.5083 -0.9920  0.9421
 1381SOL    HW2 8829   0.350  10.333  10.264  0.0719  1.5809  0.7490
 1382SOL     OW 8830   7.990   9.906   7.327  0.4678  0.1750 -0.2710
 1382SOL    HW1 8831   8.085   9.907   7.322  0.3962  0.3467 -3.1457
 1382SOL    HW2 8832   7.963   9.995   7.306 -0.3878  0.9103  3.2175
 1383SOL     OW 8833   6.308   1.330   3.564  0.1613 -0.2958 -0.1864
 1383SOL    HW1 8834   6.344   1.313   3.477  1.7695 -0.0120  0.3801
 1383SOL    HW2 8835   6.215   1.345   3.549  0.5113  0.3803 -1.9436
 1384SOL     OW 8836   7.467   0.009   0.425  0.3317 -0.1233 -0.4263
 1384SOL    HW1 8837   7.529   0.082   0.427 -1.5482  1.5548 -0.1115
 1384SOL    HW2 8838   7.420   0.015   0.508 -2.7242  0.9957 -2.0891
 1385SOL     OW 8839  10.649   4.765   3.006  0.0072 -0.6369  0.1594
 1385SOL    HW1 8840  10.602   4.791   3.086  0.3088 -3.5222  1.3939
 1385SOL    HW2 8841  10.658   4.670   3.014  1.1422 -0.8533 -2.7617
 1386SOL     OW 8842   8.266   8.591   3.378  0.0755 -0.4454  0.0154
 1386SOL    HW1 8843   8.224   8.659   3.326  0.9100  0.1814  0.1451
 1386SOL    HW2 8844   8.193   8.539   3.412 -0.6546  1.0135  0.8000
 1387SOL     OW 8845   6.281   0.947   3.796 -0.8575 -0.2192 -0.2599
 1387SOL    HW1 8846   6.207   0.886   3.799 -1.8263  0.9615  0.8188
 1387SOL    HW2 8847   6.351   0.901   3.843 -1.3290 -0.8199 -0.1237
 1388SOL     OW 8848   4.144   5.006   1.274  0.2242 -0.1730 -0.4360
 1388SOL    HW1 8849   4.154   4.995   1.369 -0.9610  0.0947 -0.2664
 1388SOL    HW2 8850   4.201   4.940   1.236 -0.3414 -1.2218  0.4773
 1389SOL     OW 8851   8.461   7.136  10.142  0.5637  0.2043  0.0168
 1389SOL    HW1 8852   8.369   7.151  10.166  1.1737  1.8711  1.6038
 1389SOL    HW2 8853   8.459   7.118  10.048 -1.4102 -0.2462  0.0961
 1390SOL     OW 8854  10.325   9.137   5.587 -0.3998 -0.1463  0.0549
 1390SOL    HW1 8855  10.309   9.069   5.521 -1.2523  0.1322 -0.0381
 1390SOL    HW2 8856  10.362   9.090   5.662 -1.0402 -0.7353  0.0138
 1391SOL     OW 8857   2.617   0.544   1.916 -0.1453 -0.5120 -0.2983
 1391SOL    HW1 8858   2.594   0.468   1.969  0.3806  0.1349  0.9098
 1391SOL    HW2 8859   2.684   0.512   1.855 -0.6742 -1.2465 -0.5014
 1392SOL     OW 8860   8.759  11.936   6.432  0.0927  0.1086 -0.5185
 1392SOL    HW1 8861   8.837  11.913   6.483 -0.1635  0.2173 -0.0653
 1392SOL    HW2 8862   8.710  11.996   6.489 -0.4593 -0.1769 -0.6809
 1393SOL     OW 8863   2.678   9.281   6.557  0.3322 -0.0862  0.6645
 1393SOL    HW1 8864   2.664   9.375   6.549 -0.5749 -0.3764 -1.9235
 1393SOL    HW2 8865   2.643   9.244   6.476 -0.4511 -2.7992  2.1126
 1394SOL     OW 8866   3.063   9.677   4.169  0.0256 -0.0983  0.1427
 1394SOL    HW1 8867   3.066   9.726   4.087 -1.0947  2.2903  1.4040
 1394SOL    HW2 8868   3.009   9.600   4.149 -3.5860  2.3523 -0.6040
 1395SOL     OW 8869   5.906   4.119   1.543 -0.0387 -0.4313  0.5142
 1395SOL    HW1 8870   5.881   4.040   1.497  1.5182 -0.4487 -0.3822
 1395SOL    HW2 8871   5.824   4.157   1.574 -0.9673 -1.3142 -0.8086
 1396SOL     OW 8872   1.725   1.310   7.458  0.9599 -0.2882 -0.6311
 1396SOL    HW1 8873   1.812   1.348   7.470  1.0105 -0.4307 -0.5531
 1396SOL    HW2 8874   1.725   1.281   7.367  0.7100  0.4444 -0.8750
 1397SOL     OW 8875   2.347   2.985   2.554 -0.2485 -0.0482 -0.0604
 1397SOL    HW1 8876   2.395   2.924   2.610 -0.1823 -0.7549 -0.8809
 1397SOL    HW2 8877   2.384   3.071   2.576 -1.2123 -0.0865  2.0386
 1398SOL     OW 8878   0.470  10.136   1.045  0.3941 -0.5435  0.1662
 1398SOL    HW1 8879   0.418  10.147   0.966  0.2365 -2.1886  0.0028
 1398SOL    HW2 8880   0.531  10.210   1.045 -0.5074  0.2146 -0.7623
 1399SOL     OW 8881   1.395   0.195  10.711  0.0196 -0.5042 -0.5172
 1399SOL    HW1 8882   1.382   0.227  10.801  1.7852  1.0407 -0.7530
 1399SOL    HW2 8883   1.432   0.107  10.723 -2.1246 -1.3805  0.1813
 1400SOL     OW 8884   7.621  11.705  10.314 -0.0519 -0.0666 -0.0292
 1400SOL    HW1 8885   7.585  11.760  10.383  0.4790  1.6083 -1.0150
 1400SOL    HW2 8886   7.701  11.751  10.286 -1.0846  0.2469 -2.8163
 1401SOL     OW 8887   6.409  11.792   3.472 -0.0230 -0.5452  0.2028
 1401SOL    HW1 8888   6.321  11.774   3.439  0.1608 -1.0354 -0.0357
 1401SOL    HW2 8889   6.423  11.726   3.540 -0.2115  0.1529  0.9327
 1402SOL     OW 8890  11.794   7.582   9.094  0.0476 -0.0618 -0.2038
 1402SOL    HW1 8891  11.716   7.608   9.044 -0.9512 -0.9356  0.8410
 1402SOL    HW2 8892  11.796   7.487   9.086  1.8285  0.0176 -1.3387
 1403SOL     OW 8893   9.296   9.098   8.630 -0.6751 -0.0504  0.5716
 1403SOL    HW1 8894   9.259   9.124   8.545  0.9814  0.2057 -0.1035
 1403SOL    HW2 8895   9.251   9.152   8.694  2.0626  4.1565 -0.6715
 1404SOL     OW 8896   7.652   9.586   3.824 -0.1401  0.2388 -0.4893
 1404SOL    HW1 8897   7.667   9.531   3.901 -0.8866 -0.4382 -0.8240
 1404SOL    HW2 8898   7.634   9.673   3.860 -5.5201 -0.9588  0.4894
 1405SOL     OW 8899   4.541   9.658   5.378  0.0029 -0.1626  0.3735
 1405SOL    HW1 8900   4.602   9.590   5.350  1.4279  0.8418  0.8845
 1405SOL    HW2 8901   4.502   9.690   5.297  0.8314 -0.2207 -0.0599
 1406SOL     OW 8902   1.076   2.166   5.385  0.2028  0.2818 -0.6137
 1406SOL    HW1 8903   1.033   2.087   5.417 -0.1288  0.6275 -0.2008
 1406SOL    HW2 8904   1.107   2.211   5.463  0.1773  0.6795 -0.8252
 1407SOL     OW 8905   0.706  10.626   9.055 -0.1814  0.1030 -0.2186
 1407SOL    HW1 8906   0.775  10.599   8.993 -0.3308  0.9838 -0.7743
 1407SOL    HW2 8907   0.630  10.574   9.029  0.0114 -0.1909 -0.2010
 1408SOL     OW 8908   7.634   3.218  11.073  0.2544  0.7244 -0.0014
 1408SOL    HW1 8909   7.673   3.253  10.993 -1.8413 -2.0080 -2.4844
 1408SOL    HW2 8910   7.610   3.295  11.125 -0.0312  2.7706 -2.9292
 1409SOL     OW 8911   8.259   1.655   6.243  0.4038  0.1349  0.6041
 1409SOL    HW1 8912   8.342   1.615   6.268  1.0596  0.7947 -0.4293
 1409SOL    HW2 8913   8.225   1.693   6.324  0.5936 -1.0307  1.2454
 1410SOL     OW 8914  11.765  11.963  10.121  0.5955  0.1740  0.5884
 1410SOL    HW1 8915  11.728  11.897  10.180 -0.8400 -0.0503 -0.5101
 1410SOL    HW2 8916  11.743  12.047  10.163 -2.1984  0.0970 -0.5153
 1411SOL     OW 8917   6.935   0.620   4.325 -0.7493 -0.1573  0.0899
 1411SOL    HW1 8918   7.020   0.660   4.307 -0.5590 -0.8218 -0.5237
 1411SOL    HW2 8919   6.955   0.548   4.384 -0.5137 -1.8265 -1.8991
 1412SOL     OW 8920   2.544   4.701   9.240  0.0674  0.5939 -0.1063
 1412SOL    HW1 8921   2.476   4.658   9.292 -1.1596  0.8800 -1.3969
 1412SOL    HW2 8922   2.548   4.790   9.276  1.0483  0.0629  1.1347
 1413SOL     OW 8923   5.464   3.175   5.381  0.1126 -0.2704  0.0211
 1413SOL    HW1 8924   5.414   3.199   5.459  0.8188  1.5412 -0.0602
 1413SOL    HW2 8925   5.456   3.079   5.377 -0.0576 -0.3999  2.2152
 1414SOL     OW 8926   9.942   3.349   1.724 -0.1250 -0.2311 -0.1610
 1414SOL    HW1 8927   9.853   3.334   1.693 -0.0046 -0.8437 -0.2323
 1414SOL    HW2 8928   9.961   3.272   1.779 -0.2995  0.7497  1.3531
 1415SOL     OW 8929   6.648   1.674   8.670 -0.1551  0.1129  0.2769
 1415SOL    HW1 8930   6.561   1.684   8.631 -0.5271  2.9327  1.5622
 1415SOL    HW2 8931   6.631   1.651   8.762  0.5421 -1.1435  0.1108
 1416SOL     OW 8932   1.870  11.696   0.794 -0.0882  0.2555 -0.4804
 1416SOL    HW1 8933   1.925  11.625   0.762 -0.4565 -0.0137 -0.5203
 1416SOL    HW2 8934   1.798  11.652   0.839  1.1733  0.6092  2.0796
 1417SOL     OW 8935   8.296  10.418   8.398  0.4729  0.0640 -0.2441
 1417SOL    HW1 8936   8.258  10.434   8.485 -1.7701 -1.8111 -0.8022
 1417SOL    HW2 8937   8.226  10.439   8.337  1.7907  0.6387 -1.6122
 1418SOL     OW 8938   8.974  10.357   5.547  0.6240  0.3556  0.3827
 1418SOL    HW1 8939   8.935  10.440   5.522  1.5528  0.9130  0.7196
 1418SOL    HW2 8940   8.940  10.341   5.636 -1.8014 -1.0813 -0.6938
 1419SOL     OW 8941   5.358  10.270   0.137 -0.3384  0.1854 -0.1099
 1419SOL    HW1 8942   5.357  10.200   0.071  0.2913  1.6208 -1.7348
 1419SOL    HW2 8943   5.416  10.337   0.100 -1.4653  1.8885  1.0339
 1420SOL     OW 8944   3.943   6.497   8.285  0.3976  0.1831 -0.3961
 1420SOL    HW1 8945   3.888   6.477   8.361 -0.1382  1.4525 -0.4243
 1420SOL    HW2 8946   3.936   6.419   8.229 -1.5090  0.3452 -0.4562
 1421SOL     OW 8947   9.386  10.703   7.276  0.1828 -0.5570  0.4552
 1421SOL    HW1 8948   9.413  10.664   7.359 -1.1384 -1.0500  0.6715
 1421SOL    HW2 8949   9.410  10.796   7.284  0.1557 -0.6202  1.3451
 1422SOL     OW 8950   8.354   0.680   7.161 -0.2495 -0.2843 -0.3584
 1422SOL    HW1 8951   8.274   0.627   7.154  1.0012 -2.2170 -0.5203
 1422SOL    HW2 8952   8.398   0.669   7.077 -0.0629  1.2611 -0.4961
 1423SOL     OW 8953   6.850   2.327   1.906  0.1895  0.0346  0.8456
 1423SOL    HW1 8954   6.920   2.278   1.950  0.1336  0.4359  1.3900
 1423SOL    HW2 8955   6.896   2.382   1.843  0.2295 -0.9350  0.0099
 1424SOL     OW 8956  10.919   1.328   6.162 -0.4354  0.2323 -0.6266
 1424SOL    HW1 8957  10.920   1.416   6.124 -0.6392  0.4083 -0.2319
 1424SOL    HW2 8958  10.961   1.339   6.248 -0.5901 -0.0273 -0.5159
 1425SOL     OW 8959   1.901   8.738  10.412 -0.1066  0.2655 -0.0647
 1425SOL    HW1 8960   1.871   8.757  10.323  0.1396  0.3200 -0.1356
 1425SOL    HW2 8961   1.930   8.823  10.446 -1.5319  0.5287  0.5751
 1426SOL     OW 8962  11.023   0.218   4.163 -0.0447 -0.1034  0.3598
 1426SOL    HW1 8963  10.999   0.228   4.071  0.9595 -1.0015 -0.0241
 1426SOL    HW2 8964  11.115   0.243   4.166  0.3922 -1.6483  0.7905
 1427SOL     OW 8965   8.138   8.855  11.355 -0.2177  0.1890  0.2994
 1427SOL    HW1 8966   8.067   8.826  11.412 -0.7789 -0.0773 -0.5135
 1427SOL    HW2 8967   8.206   8.886  11.415 -0.9673  0.3310  1.0973
 1428SOL     OW 8968  11.912   2.493   3.256  0.5319 -0.3652  0.5767
 1428SOL    HW1 8969  11.876   2.548   3.326  0.6584 -0.7586  0.9604
 1428SOL    HW2 8970  12.005   2.484   3.279  1.0618  1.2337 -0.7893
 1429SOL     OW 8971   9.940   6.251  10.873 -0.5747  0.1138  0.1423
 1429SOL    HW1 8972   9.970   6.237  10.962 -1.0661 -1.3059  0.1117
 1429SOL    HW2 8973   9.885   6.330  10.878  0.7593  1.0286  0.7408
 1430SOL     OW 8974   2.037   9.610  11.954  0.5123  0.0735  0.3873
 1430SOL    HW1 8975   2.037   9.533  12.011 -1.5176 -2.3064 -2.5708
 1430SOL    HW2 8976   2.055   9.576  11.867 -0.9650  2.8636 -1.1398
 1431SOL     OW 8977   8.496   7.958   7.865  0.2783  0.8079 -0.0527
 1431SOL    HW1 8978   8.447   7.955   7.783 -0.9233  1.4025  0.6163
 1431SOL    HW2 8979   8.581   7.917   7.844 -0.2795  0.2720 -1.3819
 1432SOL     OW 8980   0.410   4.894   1.539  0.0150  0.7220  0.6708
 1432SOL    HW1 8981   0.459   4.925   1.615  1.2733  0.7313 -0.1153
 1432SOL    HW2 8982   0.453   4.936   1.464 -1.0420  0.5231 -0.0671
 1433SOL     OW 8983   6.609   1.913   9.689 -0.2337  0.5706  0.1997
 1433SOL    HW1 8984   6.565   1.968   9.754  0.5198  1.1129  0.2665
 1433SOL    HW2 8985   6.602   1.961   9.607 -1.9377 -0.5147 -0.3328
 1434SOL     OW 8986   5.886   0.752  11.850 -0.3065 -0.2120 -0.2804
 1434SOL    HW1 8987   5.842   0.822  11.802 -0.2572  0.6931  0.9420
 1434SOL    HW2 8988   5.871   0.674  11.797 -1.8159  0.4075 -0.8289
 1435SOL     OW 8989   0.648  10.475   8.744  0.5759  0.0542  0.3887
 1435SOL    HW1 8990   0.738  10.443   8.735  0.6608  0.4484 -0.2177
 1435SOL    HW2 8991   0.624  10.503   8.656 -0.8967 -1.9744  0.0740
 1436SOL     OW 8992  10.076   0.851   9.666 -0.2106  0.3878  0.0228
 1436SOL    HW1 8993  10.013   0.869   9.596  0.0146  2.3028  0.2763
 1436SOL    HW2 8994  10.045   0.769   9.705 -1.4913  0.3483 -1.0144
 1437SOL     OW 8995  11.024   8.840   1.759  0.3551  0.5888 -0.0349
 1437SOL    HW1 8996  11.047   8.748   1.769 -0.1463  0.5073  0.3549
 1437SOL    HW2 8997  10.935   8.848   1.793  1.1100  1.5982  1.8719
 1438SOL     OW 8998   5.056  11.616  11.559 -0.3856 -0.0439 -0.0510
 1438SOL    HW1 8999   5.110  11.684  11.600 -1.2540 -0.9267  2.7572
 1438SOL    HW2 9000   5.110  11.585  11.486  0.8275  2.3448 -0.2623
 1439SOL     OW 9001   7.357   6.904  11.239 -0.0903  0.3911  0.1144
 1439SOL    HW1 9002   7.366   6.964  11.165  0.9286  0.8571  0.5903
 1439SOL    HW2 9003   7.366   6.817  11.201 -0.9070  0.5567 -0.4873
 1440SOL     OW 9004   2.952   0.129   0.799 -0.2797 -0.4491 -0.0854
 1440SOL    HW1 9005   2.971   0.054   0.854  1.3836 -0.5320 -0.7217
 1440SOL    HW2 9006   2.990   0.204   0.845 -2.2241  0.1039  0.7167
 1441SOL     OW 9007   2.406   9.190  11.755 -0.4458  0.2526 -0.1818
 1441SOL    HW1 9008   2.377   9.112  11.708 -0.8543  0.3292 -0.0594
 1441SOL    HW2 9009   2.333   9.213  11.811 -0.2698  0.6385 -0.1059
 1442SOL     OW 9010   7.320   0.298   5.819 -0.0576 -0.3308  0.0167
 1442SOL    HW1 9011   7.274   0.216   5.833 -1.7790  0.6441  0.4093
 1442SOL    HW2 9012   7.287   0.356   5.888  0.6820  0.8614 -0.5973
 1443SOL     OW 9013  11.935   5.176   6.145  0.7281  0.2307 -0.2292
 1443SOL    HW1 9014  11.891   5.125   6.213  4.3856 -2.6069  0.3563
 1443SOL    HW2 9015  11.956   5.259   6.187 -0.9858  0.3278  0.5251
 1444SOL     OW 9016  11.185   4.004   7.963  0.1913 -0.0412 -0.1497
 1444SOL    HW1 9017  11.202   3.941   8.034  1.7573  0.6011  0.0767
 1444SOL    HW2 9018  11.209   3.956   7.883  1.2198  0.1886  0.0084
 1445SOL     OW 9019   0.773   7.849   4.211  0.2931 -0.4032  0.3822
 1445SOL    HW1 9020   0.737   7.818   4.295  0.4745 -1.1238  0.2034
 1445SOL    HW2 9021   0.851   7.899   4.236  1.8862 -2.8026  0.5491
 1446SOL     OW 9022   3.265   7.324   9.215 -0.0072  0.5625 -0.6606
 1446SOL    HW1 9023   3.313   7.343   9.295  1.7163 -0.9062 -1.2829
 1446SOL    HW2 9024   3.174   7.347   9.235  0.0970 -1.0641  2.1738
 1447SOL     OW 9025   6.293   8.383   5.454 -0.4062 -0.1047  0.1659
 1447SOL    HW1 9026   6.239   8.318   5.499  0.4575 -0.6342  0.4620
 1447SOL    HW2 9027   6.287   8.359   5.362  2.2664 -2.5600  0.4566
 1448SOL     OW 9028   3.882   9.200   5.915  0.2414  0.0435  0.7869
 1448SOL    HW1 9029   3.824   9.138   5.872  1.7631 -0.1206 -1.1296
 1448SOL    HW2 9030   3.842   9.286   5.900 -1.1964 -0.2974  2.3646
 1449SOL     OW 9031   8.890   7.771   8.759 -0.6495 -0.2825  0.7180
 1449SOL    HW1 9032   8.857   7.811   8.839  0.4471 -1.2447  1.6869
 1449SOL    HW2 9033   8.980   7.802   8.751 -0.7003 -0.3089 -0.0706
 1450SOL     OW 9034   6.642   9.098   5.679 -0.1599 -0.4974 -0.1647
 1450SOL    HW1 9035   6.646   9.077   5.585 -0.7971 -3.6700  0.4273
 1450SOL    HW2 9036   6.550   9.119   5.695  0.4900  3.7163 -0.7928
 1451SOL     OW 9037   7.790   8.037   3.540  0.1041 -0.1167  0.2776
 1451SOL    HW1 9038   7.743   8.039   3.623  1.6825 -1.6252  1.2823
 1451SOL    HW2 9039   7.742   7.974   3.486 -1.5127  1.5993 -0.4145
 1452SOL     OW 9040   0.327   1.266  11.860  0.4983 -0.0449  0.1701
 1452SOL    HW1 9041   0.390   1.195  11.870 -1.1235 -1.5886 -0.1797
 1452SOL    HW2 9042   0.344   1.300  11.772  1.2090 -0.0552  0.2967
 1453SOL     OW 9043  11.573   4.974  11.576  0.2998 -0.1478  0.6278
 1453SOL    HW1 9044  11.601   4.883  11.564 -2.7059 -1.3507  1.6984
 1453SOL    HW2 9045  11.544   4.978  11.667  0.2949  1.8865  0.5860
 1454SOL     OW 9046  11.107   6.474  11.431 -0.0429 -0.0381  0.0057
 1454SOL    HW1 9047  11.070   6.445  11.347  2.2796  0.3009 -1.2225
 1454SOL    HW2 9048  11.187   6.421  11.441  1.8985  2.6799 -0.0656
 1455SOL     OW 9049   9.341   9.755  10.788 -0.2623  0.1780  0.3349
 1455SOL    HW1 9050   9.250   9.783  10.776 -0.3167  0.2628  0.9076
 1455SOL    HW2 9051   9.357   9.694  10.716 -0.2162  1.4892 -0.8007
 1456SOL     OW 9052   0.756   5.302   9.202  0.2093  0.0074 -0.1476
 1456SOL    HW1 9053   0.823   5.355   9.159  2.1121 -2.4572 -0.4443
 1456SOL    HW2 9054   0.750   5.338   9.291  1.1963  0.8927 -0.4166
 1457SOL     OW 9055   2.991   3.171   2.676  0.1418  0.5474 -0.7918
 1457SOL    HW1 9056   3.081   3.144   2.655  0.3072 -0.1167  0.6521
 1457SOL    HW2 9057   3.002   3.247   2.734 -0.2637  1.1538 -1.4897
 1458SOL     OW 9058   5.013   5.869  11.766  0.1313  0.1853 -0.2587
 1458SOL    HW1 9059   5.074   5.934  11.729  0.7999 -1.1279 -1.6015
 1458SOL    HW2 9060   5.070   5.797  11.795 -0.4256  0.9018  2.9728
 1459SOL     OW 9061   2.543   0.458  10.751 -0.2615  0.0517  0.6349
 1459SOL    HW1 9062   2.506   0.372  10.730  0.7457 -0.2857  0.2198
 1459SOL    HW2 9063   2.492   0.519  10.697  0.3164 -0.4950 -0.5752
 1460SOL     OW 9064   9.220   0.756   5.680  0.4928  0.0609 -0.5137
 1460SOL    HW1 9065   9.188   0.843   5.703 -1.0931 -0.3009 -1.1717
 1460SOL    HW2 9066   9.143   0.712   5.643  1.3795 -1.4604 -0.6200
 1461SOL     OW 9067   3.200   9.805   7.184  0.0393 -0.4059 -0.1685
 1461SOL    HW1 9068   3.230   9.755   7.259 -1.2217 -1.6462 -0.4510
 1461SOL    HW2 9069   3.213   9.897   7.210  1.9555 -0.8285  0.5329
 1462SOL     OW 9070   7.512   7.672   2.230 -0.2378 -0.0173 -0.2938
 1462SOL    HW1 9071   7.488   7.652   2.140  0.8369  1.3976 -0.9482
 1462SOL    HW2 9072   7.446   7.736   2.259 -1.1395 -1.1756  0.2834
 1463SOL     OW 9073   1.873  11.235  10.003 -0.1929 -0.2596 -0.2323
 1463SOL    HW1 9074   1.847  11.143  10.001 -2.2281  0.1906  1.5671
 1463SOL    HW2 9075   1.900  11.254   9.913 -2.4409 -1.9099 -1.3711
 1464SOL     OW 9076   0.202   3.381   7.331  0.7776 -0.1181 -0.0012
 1464SOL    HW1 9077   0.282   3.359   7.284  1.6545  0.6714  1.0904
 1464SOL    HW2 9078   0.180   3.469   7.302 -1.0963 -1.1489 -2.1180
 1465SOL     OW 9079   4.475   0.532   3.577  0.7740  0.8141 -0.2024
 1465SOL    HW1 9080   4.391   0.510   3.536  0.2932 -0.6911  1.4470
 1465SOL    HW2 9081   4.541   0.497   3.518  0.1253 -0.6779 -0.0868
 1466SOL     OW 9082   8.154   8.865   2.633 -0.0228 -0.2747  0.0086
 1466SOL    HW1 9083   8.157   8.959   2.617 -0.4772 -0.4173 -0.9953
 1466SOL    HW2 9084   8.224   8.828   2.579 -0.4266 -0.5918 -0.3141
 1467SOL     OW 9085   3.030   9.629   4.887 -0.3461  0.6202 -0.4802
 1467SOL    HW1 9086   3.090   9.558   4.865 -0.6781  0.1903 -0.0298
 1467SOL    HW2 9087   3.042   9.642   4.981  2.4358  3.7147 -1.1180
 1468SOL     OW 9088   0.399   9.483   7.787 -0.0761  0.4167 -0.0923
 1468SOL    HW1 9089   0.323   9.455   7.735  1.3763 -0.4109 -1.8883
 1468SOL    HW2 9090   0.464   9.415   7.772  1.5514  1.8421  0.2382
 1469SOL     OW 9091   1.410   1.142   1.989  0.0506 -0.7617 -0.2484
 1469SOL    HW1 9092   1.336   1.172   2.040 -0.9037 -0.5659 -1.6863
 1469SOL    HW2 9093   1.479   1.126   2.053 -0.0088  2.5266  0.8431
 1470SOL     OW 9094   4.838  10.764   2.937  0.9267  0.1592 -0.0264
 1470SOL    HW1 9095   4.803  10.830   2.998  1.5897  0.9711 -0.4963
 1470SOL    HW2 9096   4.776  10.763   2.864  1.0883  0.5115 -0.1710
 1471SOL     OW 9097   1.926   1.853   3.276  0.2769 -0.2595 -0.8698
 1471SOL    HW1 9098   1.851   1.910   3.293 -0.0959 -1.3732  1.7845
 1471SOL    HW2 9099   1.906   1.810   3.193 -1.4650  0.3584 -0.8060
 1472SOL     OW 9100  11.233   3.626  10.264 -0.2892  0.8511 -0.3311
 1472SOL    HW1 9101  11.328   3.620  10.251 -0.1909  0.5515  0.4855
 1472SOL    HW2 9102  11.216   3.720  10.269 -0.0519  0.9114 -0.5797
 1473SOL     OW 9103   4.100   9.688   7.916  0.1332  0.1119  0.1062
 1473SOL    HW1 9104   4.037   9.742   7.868  0.1568  0.2723  0.2532
 1473SOL    HW2 9105   4.142   9.749   7.977  0.4392  0.0105  0.0008
 1474SOL     OW 9106   1.629   5.487   6.689 -0.4509  0.1239  0.2243
 1474SOL    HW1 9107   1.691   5.439   6.635 -1.9925 -1.9673  0.1903
 1474SOL    HW2 9108   1.669   5.488   6.776 -1.0083 -2.7365  0.6302
 1475SOL     OW 9109   7.765   5.662   3.865  0.6608 -0.3468  0.0033
 1475SOL    HW1 9110   7.671   5.648   3.852  0.4448  0.0881  0.9497
 1475SOL    HW2 9111   7.785   5.613   3.945  1.3027 -0.6567 -0.3443
 1476SOL     OW 9112   2.497   2.833   4.595 -0.2375 -0.1873  0.6398
 1476SOL    HW1 9113   2.492   2.891   4.670 -2.0011  0.0667  0.3569
 1476SOL    HW2 9114   2.406   2.819   4.568  0.3066 -0.6926 -1.1165
 1477SOL     OW 9115   5.881   5.136   0.720 -0.2177 -0.5720  0.0240
 1477SOL    HW1 9116   5.964   5.088   0.723  0.5660  0.7884  0.9424
 1477SOL    HW2 9117   5.838   5.116   0.803  0.2167  0.4586  0.5129
 1478SOL     OW 9118  11.267   6.259   6.385  0.0192  0.8412 -0.3593
 1478SOL    HW1 9119  11.201   6.329   6.394 -0.5461  0.1490  1.4154
 1478SOL    HW2 9120  11.245   6.216   6.303 -1.2561  1.1335 -0.2009
 1479SOL     OW 9121   5.314  11.456  10.942  0.3000 -0.4229 -0.1557
 1479SOL    HW1 9122   5.401  11.496  10.943 -0.4271  1.3001 -1.3326
 1479SOL    HW2 9123   5.301  11.424  11.032  1.7265  0.2133  0.2965
 1480SOL     OW 9124   6.789   6.095   9.422 -0.1863 -0.3113  0.0054
 1480SOL    HW1 9125   6.817   6.154   9.492 -0.0755 -0.2707 -0.0717
 1480SOL    HW2 9126   6.828   6.132   9.343 -0.0723 -0.5171 -0.0368
 1481SOL     OW 9127  11.408  11.561   2.040  0.1442  0.0949 -0.1179
 1481SOL    HW1 9128  11.400  11.465   2.038 -0.8954  0.1660 -0.0183
 1481SOL    HW2 9129  11.376  11.589   1.954  2.5999  0.2503 -1.0677
 1482SOL     OW 9130   4.472   7.075   3.377 -0.5013  0.0512 -0.3270
 1482SOL    HW1 9131   4.449   7.168   3.387  0.9664  0.4620 -0.5462
 1482SOL    HW2 9132   4.404   7.028   3.426 -1.2585  1.2312 -0.1936
 1483SOL     OW 9133   5.950   3.685  11.899  0.5189  0.1624  0.6138
 1483SOL    HW1 9134   5.939   3.630  11.820 -0.4617 -0.4862  1.1774
 1483SOL    HW2 9135   6.013   3.637  11.952 -0.8511 -0.8284  1.4157
 1484SOL     OW 9136   3.546   6.192   2.759  0.1440  0.0392 -0.4981
 1484SOL    HW1 9137   3.527   6.257   2.827  0.5168  0.4127 -0.7459
 1484SOL    HW2 9138   3.460   6.174   2.719 -0.5167 -1.9600  1.5965
 1485SOL     OW 9139   2.178  10.411   0.687  0.2836 -0.0689  0.4649
 1485SOL    HW1 9140   2.247  10.352   0.658  1.7203  0.8214  1.8985
 1485SOL    HW2 9141   2.101  10.386   0.635  1.4174 -1.7062 -0.5103
 1486SOL     OW 9142   3.247   6.449   2.650 -0.7038  0.1319  0.2271
 1486SOL    HW1 9143   3.177   6.505   2.684  0.0330  1.3318 -0.1963
 1486SOL    HW2 9144   3.325   6.476   2.698 -0.6065 -1.5891  1.1118
 1487SOL     OW 9145  11.091   3.532  10.486 -0.2001 -0.5669 -0.3775
 1487SOL    HW1 9146  11.152   3.565  10.420  0.0491  1.1364  0.6553
 1487SOL    HW2 9147  11.029   3.603  10.499 -0.7142 -1.1888  0.6617
 1488SOL     OW 9148   8.270   1.335   3.517  0.3379 -0.6017  0.4517
 1488SOL    HW1 9149   8.287   1.252   3.561 -0.5308 -2.0033 -1.6751
 1488SOL    HW2 9150   8.356   1.363   3.486  0.5006 -1.2608  0.2854
 1489SOL     OW 9151   1.314  10.333  11.135  0.6316  0.1350 -0.0260
 1489SOL    HW1 9152   1.313  10.270  11.062 -0.5917 -1.2012  1.0653
 1489SOL    HW2 9153   1.376  10.296  11.198  0.0549  0.0922  0.5341
 1490SOL     OW 9154   2.092   5.675   4.616 -0.1494  0.5976  0.1547
 1490SOL    HW1 9155   2.145   5.750   4.644 -1.3945  0.9334  1.8049
 1490SOL    HW2 9156   2.154   5.602   4.611  0.9848  1.5908 -0.9652
 1491SOL     OW 9157   9.600   0.289   3.391  0.5281 -0.0965 -0.4820
 1491SOL    HW1 9158   9.665   0.219   3.381  0.9150  0.3224 -0.9346
 1491SOL    HW2 9159   9.639   0.350   3.453 -0.1801 -0.6969  0.5852
 1492SOL     OW 9160   6.086   7.912   1.172  0.2490 -0.3036 -0.0112
 1492SOL    HW1 9161   6.069   8.003   1.149  0.7454 -0.4393 -0.9461
 1492SOL    HW2 9162   6.026   7.861   1.117 -0.6486 -0.5288  1.1204
 1493SOL     OW 9163   2.134   7.459   8.324  0.1323 -0.3706  0.3455
 1493SOL    HW1 9164   2.191   7.518   8.274  0.6013 -1.8366 -0.9426
 1493SOL    HW2 9165   2.048   7.470   8.283 -0.1974  0.7495  1.3141
 1494SOL     OW 9166   7.822   2.752   6.426  0.3854  0.0324 -0.0341
 1494SOL    HW1 9167   7.756   2.799   6.376  0.8930  0.6116 -0.1775
 1494SOL    HW2 9168   7.903   2.800   6.409  0.6246  0.0621  1.0907
 1495SOL     OW 9169  11.237   2.309  10.075  0.0381  0.1055  0.3126
 1495SOL    HW1 9170  11.269   2.281  10.161 -0.4134  0.5431  0.6379
 1495SOL    HW2 9171  11.187   2.389  10.094  0.5463  0.6212 -0.4555
 1496SOL     OW 9172   4.947  11.212   1.757  0.5650 -0.1326 -0.0511
 1496SOL    HW1 9173   4.990  11.148   1.815  0.2966  0.0750  0.3821
 1496SOL    HW2 9174   4.961  11.178   1.669  0.3933 -0.8116  0.1791
 1497SOL     OW 9175   8.505   3.303  11.143 -0.6383  0.7741  0.4393
 1497SOL    HW1 9176   8.597   3.299  11.172 -0.8238 -0.9744  0.8883
 1497SOL    HW2 9177   8.459   3.343  11.217 -0.3960  0.6754  0.6471
 1498SOL     OW 9178   2.631   9.299   2.437 -0.0948 -0.2887  0.0807
 1498SOL    HW1 9179   2.702   9.363   2.433  0.7316 -1.2558 -2.2713
 1498SOL    HW2 9180   2.657   9.238   2.507  0.5014  0.3509  0.4249
 1499SOL     OW 9181   3.458   2.192   7.462  0.4067  0.2094  0.6426
 1499SOL    HW1 9182   3.552   2.191   7.447  0.1712  1.8192 -1.3286
 1499SOL    HW2 9183   3.444   2.268   7.519  0.1390  1.0820 -0.5663
 1500SOL     OW 9184   8.323   3.342   0.108 -0.4300  0.1022 -0.0821
 1500SOL    HW1 9185   8.370   3.384   0.036  0.9110 -1.5661 -0.2420
 1500SOL    HW2 9186   8.367   3.374   0.187 -1.9808  2.0300  0.0736
 1501SOL     OW 9187   5.244   4.847   9.112  0.6579  0.3444 -0.3972
 1501SOL    HW1 9188   5.256   4.929   9.064  0.3341  0.6572  0.0500
 1501SOL    HW2 9189   5.157   4.854   9.150  1.0861  0.3064  0.6300
 1502SOL     OW 9190   5.314   0.817   9.233 -0.1780 -0.0294 -0.0414
 1502SOL    HW1 9191   5.383   0.850   9.177 -0.4663  0.2176 -0.2557
 1502SOL    HW2 9192   5.358   0.795   9.315  0.3641 -1.0537 -0.5951
 1503SOL     OW 9193   0.216   0.190   3.507  0.9208 -0.1583 -0.0580
 1503SOL    HW1 9194   0.164   0.226   3.579 -0.3441 -1.1866 -0.4315
 1503SOL    HW2 9195   0.159   0.127   3.464  1.9681 -0.2371 -1.4224
 1504SOL     OW 9196   3.067   4.789   0.891  0.3271 -0.5410 -0.2409
 1504SOL    HW1 9197   3.056   4.878   0.924  2.3927 -0.3037 -0.0204
 1504SOL    HW2 9198   3.138   4.796   0.826  0.2090 -1.9493 -0.5624
 1505SOL     OW 9199   3.514   8.976   1.803 -0.2359 -0.0447 -0.2271
 1505SOL    HW1 9200   3.585   9.021   1.850 -0.6950  0.6444 -0.1922
 1505SOL    HW2 9201   3.559   8.923   1.737  0.2988  0.6052 -0.3886
 1506SOL     OW 9202   9.381   5.047   7.704 -0.3917 -0.3380 -0.1402
 1506SOL    HW1 9203   9.341   5.093   7.630 -0.0569 -0.2272 -0.2538
 1506SOL    HW2 9204   9.393   5.115   7.771 -0.4872 -0.3917 -0.0681
 1507SOL     OW 9205   7.467  11.259   6.328  0.3740 -0.0877  0.0743
 1507SOL    HW1 9206   7.389  11.284   6.279 -1.1222 -2.9430  0.7653
 1507SOL    HW2 9207   7.531  11.233   6.261  0.3839  1.2489 -0.4606
 1508SOL     OW 9208  11.319   2.265  11.525 -0.3323 -0.6187 -0.2772
 1508SOL    HW1 9209  11.353   2.313  11.600 -1.6795  1.0573 -0.6842
 1508SOL    HW2 9210  11.381   2.193  11.513 -0.2195 -1.1170  2.5750
 1509SOL     OW 9211   0.713   3.415   6.394  0.3187  0.0314  0.5966
 1509SOL    HW1 9212   0.679   3.451   6.312  0.0483 -1.1798  0.1569
 1509SOL    HW2 9213   0.637   3.372   6.434  0.2692  1.2154  1.8463
 1510SOL     OW 9214   3.243   7.289   3.864 -1.0304  0.0870  0.4793
 1510SOL    HW1 9215   3.244   7.317   3.772  1.7929 -1.5771 -0.1341
 1510SOL    HW2 9216   3.248   7.371   3.914  2.0468  1.0090 -1.0642
 1511SOL     OW 9217   0.587   1.219   3.969 -0.4489 -0.3949  0.6042
 1511SOL    HW1 9218   0.521   1.156   3.998 -1.5142  0.2065 -0.4400
 1511SOL    HW2 9219   0.650   1.166   3.920 -2.1066 -0.5283 -1.5477
 1512SOL     OW 9220   4.654   4.785   4.550  0.5313 -0.1192 -0.0325
 1512SOL    HW1 9221   4.737   4.777   4.503  1.5412  0.3688  1.5959
 1512SOL    HW2 9222   4.629   4.877   4.539  1.2337  0.2241  1.0822
 1513SOL     OW 9223   7.416   7.017   8.578  0.2715  0.3686  0.0908
 1513SOL    HW1 9224   7.394   6.925   8.566  2.2253 -0.0653 -0.6073
 1513SOL    HW2 9225   7.425   7.027   8.673  0.4677 -0.2823  0.1461
 1514SOL     OW 9226   2.181   1.168   0.659 -0.3157  0.0308 -0.1086
 1514SOL    HW1 9227   2.245   1.103   0.685 -1.0257 -0.5955  0.1032
 1514SOL    HW2 9228   2.173   1.226   0.734  0.9850  0.9191 -0.6267
 1515SOL     OW 9229   4.753   0.355  11.109 -0.1475  0.3192 -0.0749
 1515SOL    HW1 9230   4.832   0.323  11.153  0.0352 -0.4172 -0.8975
 1515SOL    HW2 9231   4.698   0.389  11.179 -0.8302 -2.8111  1.0758
 1516SOL     OW 9232   6.303   0.647   4.521 -0.0412 -0.5231 -0.1923
 1516SOL    HW1 9233   6.316   0.741   4.513  0.0860 -0.5922 -0.8736
 1516SOL    HW2 9234   6.335   0.611   4.438  0.9324 -1.2733  0.4849
 1517SOL     OW 9235   6.442   0.310  11.740 -0.4034 -0.1715 -0.2465
 1517SOL    HW1 9236   6.478   0.307  11.828 -0.4420 -0.8618 -0.2473
 1517SOL    HW2 9237   6.348   0.318  11.752 -0.7534 -3.2072 -0.1288
 1518SOL     OW 9238   5.420   0.295   7.517  0.4328  0.0115  0.6261
 1518SOL    HW1 9239   5.409   0.385   7.546  0.0872  0.0772  0.3004
 1518SOL    HW2 9240   5.394   0.296   7.425 -1.0957 -0.7293  1.0120
 1519SOL     OW 9241   8.544   2.561   9.714 -0.3820  0.0314  0.8747
 1519SOL    HW1 9242   8.484   2.495   9.750  0.8322 -0.9180  1.2151
 1519SOL    HW2 9243   8.608   2.511   9.663 -0.5589  1.1377 -0.4897
 1520SOL     OW 9244   2.665  11.765  10.094 -0.4340 -0.0108 -0.0721
 1520SOL    HW1 9245   2.696  11.711  10.167 -2.1198  0.5269  1.0869
 1520SOL    HW2 9246   2.744  11.784  10.044  1.0320  0.7242  2.3467
 1521SOL     OW 9247   8.593   3.215  11.810 -0.1204 -0.1758  0.3263
 1521SOL    HW1 9248   8.603   3.297  11.762  0.0677  0.5457  1.5501
 1521SOL    HW2 9249   8.519   3.172  11.768 -1.2838  1.3855  0.6894
 1522SOL     OW 9250  11.139   3.467   3.997 -0.0514  0.1145 -0.3459
 1522SOL    HW1 9251  11.180   3.445   3.914  0.5043 -0.0779 -0.0244
 1522SOL    HW2 9252  11.054   3.504   3.973  1.0603  2.3649 -1.1418
 1523SOL     OW 9253   3.167   8.817  10.809 -0.0098 -0.1800 -0.4564
 1523SOL    HW1 9254   3.119   8.857  10.736 -0.0709  0.7036  0.0582
 1523SOL    HW2 9255   3.250   8.865  10.811  0.3278 -0.7610 -0.4615
 1524SOL     OW 9256   8.519   4.304  11.281  0.1969 -0.2735  0.4621
 1524SOL    HW1 9257   8.579   4.333  11.350  1.1477 -0.9795 -0.0410
 1524SOL    HW2 9258   8.441   4.357  11.293 -0.3172 -1.4814  3.1220
 1525SOL     OW 9259   3.891   0.624   1.786 -0.3830 -0.1465 -0.0003
 1525SOL    HW1 9260   3.848   0.540   1.804 -0.6777 -0.4651 -1.9120
 1525SOL    HW2 9261   3.909   0.622   1.692 -1.3296  2.3595 -0.3223
 1526SOL     OW 9262   8.005  11.604   1.973  0.0829 -0.3433  0.4675
 1526SOL    HW1 9263   7.972  11.686   2.011 -0.4742  0.0439 -0.7925
 1526SOL    HW2 9264   8.099  11.605   1.992 -0.1650 -0.1270  1.7318
 1527SOL     OW 9265   1.963   1.339   7.013 -0.2443  0.1673 -0.2990
 1527SOL    HW1 9266   1.940   1.425   7.048 -0.7370  0.3135 -0.9651
 1527SOL    HW2 9267   1.886   1.313   6.962  0.4133 -0.0842 -1.1767
 1528SOL     OW 9268   8.245   0.318  11.042  0.2071  0.3495 -0.9868
 1528SOL    HW1 9269   8.164   0.294  10.998  0.5741 -0.0819 -1.4508
 1528SOL    HW2 9270   8.244   0.269  11.124 -0.0050  0.3411 -0.9953
 1529SOL     OW 9271   9.278   7.310   3.388 -0.0588 -0.2287 -0.1051
 1529SOL    HW1 9272   9.320   7.255   3.321  0.9495  2.2511 -1.6585
 1529SOL    HW2 9273   9.348   7.328   3.451 -0.2479 -0.2740  0.1191
 1530SOL     OW 9274   9.033   1.349  10.063  0.0770 -0.1901 -0.7237
 1530SOL    HW1 9275   8.972   1.422  10.073 -1.5635 -1.5498 -0.4290
 1530SOL    HW2 9276   9.119   1.390  10.069 -0.6917  1.3343  3.0610
 1531SOL     OW 9277   6.182   2.467  11.897  0.1263 -0.2522 -0.8030
 1531SOL    HW1 9278   6.111   2.501  11.951  1.1013 -0.7408  0.8611
 1531SOL    HW2 9279   6.158   2.375  11.881 -1.3253  0.4634 -3.2883
 1532SOL     OW 9280   4.448  10.607   0.667 -0.0960  0.1412  0.1284
 1532SOL    HW1 9281   4.447  10.512   0.673  0.6990  0.1254  0.1705
 1532SOL    HW2 9282   4.539  10.629   0.647 -0.2356  0.9008  0.2783
 1533SOL     OW 9283  11.320   7.106  11.785 -0.1475 -0.3998  0.4351
 1533SOL    HW1 9284  11.351   7.184  11.832  1.6633  0.3106 -1.7696
 1533SOL    HW2 9285  11.372   7.035  11.822 -0.8015 -0.3685  1.4678
 1534SOL     OW 9286  10.338   6.420   0.692 -0.3699 -0.2120  0.4880
 1534SOL    HW1 9287  10.338   6.478   0.768 -1.1643 -2.3712  2.2627
 1534SOL    HW2 9288  10.369   6.474   0.619 -0.6013  2.2406  2.1141
 1535SOL     OW 9289  11.737   3.331   8.334  0.4747  0.4777 -0.2947
 1535SOL    HW1 9290  11.651   3.293   8.351  0.6418  0.0278 -0.4517
 1535SOL    HW2 9291  11.793   3.296   8.404  0.3121  1.5455  0.4021
 1536SOL     OW 9292   8.766   1.002   3.561  0.5779  0.5566 -0.4708
 1536SOL    HW1 9293   8.832   0.989   3.629  0.7019  1.8241 -0.3314
 1536SOL    HW2 9294   8.813   0.984   3.479  0.2690 -1.6038 -0.2516
 1537SOL     OW 9295  10.880   9.321   4.366  0.3490  0.4068 -0.4169
 1537SOL    HW1 9296  10.891   9.310   4.461  1.5748 -1.1190 -0.6916
 1537SOL    HW2 9297  10.824   9.248   4.340  1.1143  0.0218 -1.0347
 1538SOL     OW 9298   4.762  11.042   5.130  0.3024 -0.1632  0.3182
 1538SOL    HW1 9299   4.801  10.955   5.129  1.6028  0.2761  2.8099
 1538SOL    HW2 9300   4.689  11.035   5.192  0.6802  0.5866  0.8679
 1539SOL     OW 9301   9.380  10.922   0.039  0.2728 -0.2132  0.1009
 1539SOL    HW1 9302   9.382  11.015   0.014  0.0952 -0.2403 -0.0153
 1539SOL    HW2 9303   9.376  10.923   0.135  2.6744 -0.1152  0.2666
 1540SOL     OW 9304   9.098   9.886   2.538  0.0530 -0.2317 -0.2545
 1540SOL    HW1 9305   9.159   9.835   2.591 -1.4729  0.5085  2.3853
 1540SOL    HW2 9306   9.018   9.833   2.535  0.1354 -0.3132 -1.9984
 1541SOL     OW 9307   6.479   1.417  11.030  0.3355  0.6102 -0.0891
 1541SOL    HW1 9308   6.507   1.399  11.120  1.6518 -0.4059 -0.6854
 1541SOL    HW2 9309   6.494   1.511  11.019 -1.8400  1.2204  1.4064
 1542SOL     OW 9310   7.940   3.868  10.276  0.4535 -0.0480 -0.6346
 1542SOL    HW1 9311   8.015   3.832  10.324  0.3690 -2.6134 -2.2879
 1542SOL    HW2 9312   7.974   3.885  10.188 -0.3335  1.1232 -0.7362
 1543SOL     OW 9313   2.250   5.040  10.284 -0.1677  0.5466  0.9997
 1543SOL    HW1 9314   2.305   5.003  10.353  1.6418 -0.2823 -0.7622
 1543SOL    HW2 9315   2.295   5.121  10.259  0.0201  0.1079 -0.1431
 1544SOL     OW 9316   3.634   1.508   7.383 -0.6536 -0.1054  0.1602
 1544SOL    HW1 9317   3.681   1.446   7.326 -0.9071  0.3024 -0.4992
 1544SOL    HW2 9318   3.658   1.481   7.472  1.7241  0.7676 -0.1548
 1545SOL     OW 9319   0.760   8.583   8.294  0.4443  0.5556 -0.0410
 1545SOL    HW1 9320   0.823   8.548   8.231 -0.6821  0.5745 -1.2224
 1545SOL    HW2 9321   0.778   8.536   8.375  0.3001 -1.3247 -1.0403
 1546SOL     OW 9322   2.948   5.577   4.235 -0.1364  0.1968  0.7422
 1546SOL    HW1 9323   2.952   5.508   4.169  1.0470  1.1259 -0.2074
 1546SOL    HW2 9324   2.909   5.652   4.189  0.2165  0.6999  1.2495
 1547SOL     OW 9325   3.066   9.711   5.172 -0.4591  0.3743  0.1063
 1547SOL    HW1 9326   2.991   9.765   5.200  0.1416  0.4292  1.7528
 1547SOL    HW2 9327   3.142   9.765   5.192  0.1104 -0.6630  0.8431
 1548SOL     OW 9328  10.235  10.702   0.198  0.2061  0.3883  0.3186
 1548SOL    HW1 9329  10.287  10.742   0.268 -0.9655  0.4486  1.1958
 1548SOL    HW2 9330  10.192  10.776   0.155  0.3329  0.2928  0.0263
 1549SOL     OW 9331  11.797   8.139   6.996  0.1426  0.0925 -0.5236
 1549SOL    HW1 9332  11.832   8.211   6.943  0.8221  0.7793  0.7942
 1549SOL    HW2 9333  11.778   8.180   7.081 -0.3762 -1.0895 -0.0539
 1550SOL     OW 9334   0.307   0.353   1.532 -0.0542  0.0478 -0.0991
 1550SOL    HW1 9335   0.283   0.403   1.611  0.9064 -0.5098  0.5619
 1550SOL    HW2 9336   0.392   0.388   1.507 -0.7397  0.8340 -1.4358
 1551SOL     OW 9337  10.529  11.083   7.513  0.0445  0.4102 -0.1747
 1551SOL    HW1 9338  10.438  11.064   7.538  0.7574 -0.6878  1.7759
 1551SOL    HW2 9339  10.528  11.176   7.492 -1.5531  0.3905 -0.3669
 1552SOL     OW 9340   2.048   5.149   2.545 -0.6067  0.6864  0.1768
 1552SOL    HW1 9341   2.096   5.227   2.518 -0.8035  0.8192  0.2088
 1552SOL    HW2 9342   1.979   5.139   2.479 -1.3116  1.2175  0.8134
 1553SOL     OW 9343   4.140   0.249   8.396  0.3400  0.4009  0.0067
 1553SOL    HW1 9344   4.147   0.343   8.386  3.5617  0.0366 -2.8755
 1553SOL    HW2 9345   4.217   0.223   8.446 -1.5909 -0.6337  2.6836
 1554SOL     OW 9346   5.609   9.308   3.697  0.1470  0.9771  0.0760
 1554SOL    HW1 9347   5.630   9.400   3.684 -0.1637  1.0585  0.1480
 1554SOL    HW2 9348   5.609   9.270   3.609 -4.7064  2.0932 -0.6514
 1555SOL     OW 9349   8.516  10.534   8.517 -0.3004  0.1044 -0.0362
 1555SOL    HW1 9350   8.443  10.484   8.481 -0.6753  0.2561  0.4989
 1555SOL    HW2 9351   8.476  10.589   8.584 -0.1837  2.2325 -1.5828
 1556SOL     OW 9352   4.416   5.550   1.665 -0.1859  0.2641 -0.2748
 1556SOL    HW1 9353   4.443   5.462   1.691 -1.3605 -0.2709 -0.7823
 1556SOL    HW2 9354   4.498   5.599   1.657  0.5089 -0.8610 -0.2661
 1557SOL     OW 9355   5.667   3.119   8.867 -0.1840  0.2587  0.3414
 1557SOL    HW1 9356   5.739   3.086   8.814 -0.0563  0.0005  0.6720
 1557SOL    HW2 9357   5.626   3.041   8.904 -0.7997  0.3853 -0.0536
 1558SOL     OW 9358   9.547   1.888   7.002 -0.6294  0.4182  0.4436
 1558SOL    HW1 9359   9.458   1.853   6.998 -0.2893 -0.4779  0.3941
 1558SOL    HW2 9360   9.544   1.966   6.947 -0.9244 -0.6796 -1.1682
 1559SOL     OW 9361   0.387   8.323   9.428  0.1056  0.1514  0.3263
 1559SOL    HW1 9362   0.408   8.231   9.410  2.6282  0.1451  2.6230
 1559SOL    HW2 9363   0.331   8.320   9.505 -0.3886  0.5437 -0.0088
 1560SOL     OW 9364   5.354   8.082   5.338  0.0041  0.6584  0.1897
 1560SOL    HW1 9365   5.418   8.011   5.346 -1.5043 -1.1212 -2.1253
 1560SOL    HW2 9366   5.368   8.117   5.250 -1.2391  1.2089  0.1821
 1561SOL     OW 9367   8.328  10.906   4.786  0.3456  0.1041 -0.8876
 1561SOL    HW1 9368   8.362  10.973   4.845 -2.3441 -0.7107  1.8412
 1561SOL    HW2 9369   8.388  10.832   4.797  2.0289  1.1842 -2.2132
 1562SOL     OW 9370   8.304   9.800   1.160  0.5846  0.1917  0.2507
 1562SOL    HW1 9371   8.322   9.706   1.164  1.0261  0.2925  0.7472
 1562SOL    HW2 9372   8.215   9.806   1.127  0.3531 -0.4165  0.7466
 1563SOL     OW 9373   2.023   7.253  10.279 -0.1969 -0.5458 -0.5004
 1563SOL    HW1 9374   2.115   7.233  10.262  0.3840  2.2489 -0.9911
 1563SOL    HW2 9375   2.016   7.252  10.375  0.7051  0.5513 -0.4003
 1564SOL     OW 9376  10.661  11.232   2.835  0.3691  0.2207 -0.0396
 1564SOL    HW1 9377  10.625  11.264   2.918 -0.7818 -1.6026  0.2321
 1564SOL    HW2 9378  10.650  11.305   2.774 -4.4020 -0.1815 -0.0888
 1565SOL     OW 9379   7.365   9.759  11.124 -0.2206 -0.2383  0.1627
 1565SOL    HW1 9380   7.431   9.765  11.193  0.0442  0.3675 -0.1381
 1565SOL    HW2 9381   7.402   9.808  11.051 -0.9265 -0.0455 -0.0730
 1566SOL     OW 9382   7.116   2.773   3.629 -0.2520  0.4824  0.1270
 1566SOL    HW1 9383   7.142   2.686   3.658  2.2785  1.3709  0.7977
 1566SOL    HW2 9384   7.035   2.759   3.579 -0.6027 -2.0501  1.2476
 1567SOL     OW 9385   7.633   8.449   7.378 -0.4366 -0.0775 -0.6357
 1567SOL    HW1 9386   7.575   8.474   7.305 -0.4350  0.8001 -0.3494
 1567SOL    HW2 9387   7.575   8.407   7.441 -1.3997  3.2514  0.9183
 1568SOL     OW 9388   7.261   4.548   7.039 -0.2375  0.2658  0.4582
 1568SOL    HW1 9389   7.191   4.545   7.103 -0.8796  2.1002 -0.1102
 1568SOL    HW2 9390   7.315   4.623   7.065  0.7409 -0.2784  0.0805
 1569SOL     OW 9391   1.338   3.976   4.182  0.0687  0.2489  0.3439
 1569SOL    HW1 9392   1.287   3.904   4.145  2.5170 -1.7343  0.6314
 1569SOL    HW2 9393   1.312   3.980   4.274 -0.5470  0.1772  0.1749
 1570SOL     OW 9394   7.948  10.312   5.637  0.3410 -0.1710 -0.4271
 1570SOL    HW1 9395   8.015  10.266   5.587 -1.3702 -1.0680 -1.9993
 1570SOL    HW2 9396   7.903  10.367   5.573 -0.3861  0.4802  0.6040
 1571SOL     OW 9397   1.581  11.668   8.539 -0.2440  0.7414  0.4363
 1571SOL    HW1 9398   1.572  11.601   8.607  1.9648  1.1889  1.2803
 1571SOL    HW2 9399   1.586  11.619   8.457  1.4992 -0.2150  1.0571
 1572SOL     OW 9400   9.402   4.889  10.830 -0.1683 -0.0100 -0.2525
 1572SOL    HW1 9401   9.377   4.820  10.769  1.4954 -0.3301 -0.6264
 1572SOL    HW2 9402   9.438   4.843  10.906  0.5834  0.4161 -0.3326
 1573SOL     OW 9403   4.093   0.558   0.288  0.3186  0.2276 -0.0104
 1573SOL    HW1 9404   4.134   0.476   0.260  0.3954 -0.1828  1.2420
 1573SOL    HW2 9405   4.009   0.560   0.243  0.0069 -0.9011  0.4806
 1574SOL     OW 9406   7.703   3.257   9.354  0.1678  0.0410 -0.4468
 1574SOL    HW1 9407   7.621   3.279   9.399  0.4488  0.5793 -0.1803
 1574SOL    HW2 9408   7.729   3.173   9.390 -0.0006  0.1175 -0.1446
 1575SOL     OW 9409   0.138  10.075  10.350 -0.5756 -0.0506 -0.0345
 1575SOL    HW1 9410   0.082  10.115  10.284  1.4264 -1.6763 -2.9509
 1575SOL    HW2 9411   0.109  10.112  10.433 -4.4156  0.8167 -1.5886
 1576SOL     OW 9412   1.489   2.621   8.474  0.6277  0.1377 -0.0188
 1576SOL    HW1 9413   1.554   2.663   8.417  0.1900 -0.3927 -0.9346
 1576SOL    HW2 9414   1.428   2.690   8.496 -0.0491  0.0425 -1.4609
 1577SOL     OW 9415   9.221   5.840   1.178  0.2408  0.2692  0.5821
 1577SOL    HW1 9416   9.301   5.808   1.138  0.5490  0.6823  0.8678
 1577SOL    HW2 9417   9.153   5.824   1.112  0.7439  0.9872 -0.1220
 1578SOL     OW 9418   1.806   7.374   6.823 -0.2723 -0.6650  0.6740
 1578SOL    HW1 9419   1.817   7.334   6.909  1.6749  0.0406  0.8127
 1578SOL    HW2 9420   1.827   7.304   6.761  0.0030 -0.7169  0.8242
 1579SOL     OW 9421   1.390   2.310  11.375  0.1049  0.1412 -0.2133
 1579SOL    HW1 9422   1.392   2.366  11.298  2.7786 -3.6092 -3.2448
 1579SOL    HW2 9423   1.468   2.335  11.425  0.5631 -0.0198 -0.8432
 1580SOL     OW 9424   2.540   7.312   1.462  0.1089  0.1659 -0.0332
 1580SOL    HW1 9425   2.503   7.223   1.461  0.3846 -0.0002  1.6711
 1580SOL    HW2 9426   2.463   7.369   1.466 -0.0896 -0.1667  3.0892
 1581SOL     OW 9427  10.756   5.516   5.451 -0.3155 -0.1326 -0.0384
 1581SOL    HW1 9428  10.801   5.545   5.372  1.0394 -1.2610  0.2837
 1581SOL    HW2 9429  10.687   5.458   5.420  0.3089 -0.6898 -0.4019
 1582SOL     OW 9430   0.191   1.093   8.624 -0.1312 -0.4707  0.1758
 1582SOL    HW1 9431   0.099   1.102   8.652 -0.8670  0.3613 -2.2179
 1582SOL    HW2 9432   0.186   1.041   8.544  1.2926  0.9365 -0.8812
 1583SOL     OW 9433   0.501   9.744  10.717  0.5453 -0.0605 -0.2366
 1583SOL    HW1 9434   0.441   9.756  10.790  1.0142  0.0799  0.1360
 1583SOL    HW2 9435   0.449   9.764  10.639 -0.1039 -0.7358  0.0160
 1584SOL     OW 9436   2.918   8.012  10.551  0.8477  0.1326 -0.5022
 1584SOL    HW1 9437   2.939   7.919  10.559 -0.0137 -0.0538 -0.2906
 1584SOL    HW2 9438   2.852   8.027  10.619  0.5993  0.7759 -0.8828
 1585SOL     OW 9439   2.799   8.053   3.648 -0.2894  0.2313  0.1741
 1585SOL    HW1 9440   2.808   7.972   3.697 -0.5874 -0.7529 -1.3318
 1585SOL    HW2 9441   2.705   8.073   3.650 -0.6653 -1.0531 -1.8134
 1586SOL     OW 9442   9.704   9.357   9.832  0.1335 -0.8450 -0.0247
 1586SOL    HW1 9443   9.723   9.305   9.754  0.5810 -1.4494  0.4835
 1586SOL    HW2 9444   9.657   9.434   9.798  1.2563 -0.5643 -1.0220
 1587SOL     OW 9445  10.462   1.397   8.424  0.1542  0.8483 -0.3747
 1587SOL    HW1 9446  10.510   1.316   8.440  1.8184  1.6208 -1.3110
 1587SOL    HW2 9447  10.477   1.450   8.503 -0.4520  0.4986 -0.0146
 1588SOL     OW 9448   3.794   9.848   0.059 -0.2305 -0.0999  0.7973
 1588SOL    HW1 9449   3.729   9.882  -0.003 -0.4660 -1.2378  0.3923
 1588SOL    HW2 9450   3.757   9.866   0.145 -1.0437 -0.6458  0.5716
 1589SOL     OW 9451   9.885   0.739   6.370  0.2990  0.0706 -0.4022
 1589SOL    HW1 9452   9.833   0.797   6.426  0.3616  0.1182 -0.3932
 1589SOL    HW2 9453   9.948   0.797   6.327  0.2637  0.0307 -0.5064
 1590SOL     OW 9454  11.638   2.221   1.892  0.3293  0.1780 -0.3383
 1590SOL    HW1 9455  11.567   2.220   1.827 -0.3501  1.5021  0.3558
 1590SOL    HW2 9456  11.713   2.256   1.844  0.2735 -0.3584 -0.8283
 1591SOL     OW 9457   3.982   9.832   3.950  0.4292 -0.2438 -0.0175
 1591SOL    HW1 9458   3.970   9.911   3.898 -0.7833  0.3331  1.1001
 1591SOL    HW2 9459   3.946   9.853   4.036  0.4892 -1.8580  0.4409
 1592SOL     OW 9460   5.779  10.091   3.532 -0.1726  0.2069 -0.5565
 1592SOL    HW1 9461   5.798  10.010   3.484  1.5404  0.1235  0.2069
 1592SOL    HW2 9462   5.856  10.106   3.586  0.0237  2.9756 -1.4763
 1593SOL     OW 9463   5.914   9.643  11.293 -0.3862  0.4236 -0.0095
 1593SOL    HW1 9464   5.871   9.714  11.340  0.6300  1.4494 -0.6127
 1593SOL    HW2 9465   6.006   9.651  11.316 -0.2530 -0.7514 -0.0433
 1594SOL     OW 9466   1.279   0.059   2.382 -0.2392  0.0510 -0.2398
 1594SOL    HW1 9467   1.218   0.016   2.322 -0.6080 -2.5604  1.8104
 1594SOL    HW2 9468   1.354  -0.001   2.387  0.4871  0.9992  0.6825
 1595SOL     OW 9469   5.146   1.159   9.153  0.3456 -0.0783 -0.0882
 1595SOL    HW1 9470   5.155   1.251   9.130  0.6309  0.4669  1.9762
 1595SOL    HW2 9471   5.226   1.138   9.201 -0.1835 -1.0967  0.3949
 1596SOL     OW 9472   9.567   8.399   6.475  0.1676  0.3909 -0.6139
 1596SOL    HW1 9473   9.537   8.488   6.462 -0.2299 -0.0803 -3.5109
 1596SOL    HW2 9474   9.630   8.384   6.405 -1.5729 -2.3368 -1.7634
 1597SOL     OW 9475   4.290   1.577   3.131 -0.2160 -0.0946  0.3187
 1597SOL    HW1 9476   4.277   1.520   3.055  0.3148  2.5380 -1.9195
 1597SOL    HW2 9477   4.252   1.528   3.204 -0.2167 -3.0514 -1.4725
 1598SOL     OW 9478   0.352   9.169   5.476 -0.7202 -0.1835 -0.0094
 1598SOL    HW1 9479   0.296   9.239   5.443  0.1045  0.7302  0.4489
 1598SOL    HW2 9480   0.336   9.168   5.570 -0.1345 -0.0655  0.0934
 1599SOL     OW 9481  10.567   5.533   2.365  0.0654  0.0001  0.4602
 1599SOL    HW1 9482  10.498   5.598   2.380  2.0723  2.0841  1.2925
 1599SOL    HW2 9483  10.609   5.561   2.284  0.7005 -0.5315  0.5993
 1600SOL     OW 9484   4.843  11.407   3.991  0.3973 -0.2690 -0.2912
 1600SOL    HW1 9485   4.851  11.451   4.076  1.2833 -0.2582 -0.3713
 1600SOL    HW2 9486   4.782  11.462   3.943 -1.8156 -1.4312  1.0463
 1601SOL     OW 9487   9.139   6.083   7.542 -0.0826  0.2383  0.4377
 1601SOL    HW1 9488   9.128   6.071   7.636  1.0947  0.6802  0.6561
 1601SOL    HW2 9489   9.060   6.130   7.514 -0.9422 -0.8540  0.9934
 1602SOL     OW 9490   9.969   8.050   4.505 -0.0627 -0.0672 -0.1003
 1602SOL    HW1 9491  10.050   8.074   4.461  0.4064 -1.4064 -0.0062
 1602SOL    HW2 9492   9.926   7.988   4.445 -0.0012 -0.9700  0.7648
 1603SOL     OW 9493  10.490   7.400   4.034 -0.1733  0.3748  0.2137
 1603SOL    HW1 9494  10.479   7.481   4.084 -2.4322 -0.4799  1.2459
 1603SOL    HW2 9495  10.499   7.331   4.100 -0.6280 -0.4875 -0.5910
 1604SOL     OW 9496   2.648   7.186   7.698  0.0427  0.2542 -0.1236
 1604SOL    HW1 9497   2.570   7.211   7.647  0.8341  0.1803 -1.3941
 1604SOL    HW2 9498   2.646   7.245   7.773 -0.1348  1.6892 -1.2002
 1605SOL     OW 9499   1.455  10.338   2.261  0.2960 -0.1981 -0.0669
 1605SOL    HW1 9500   1.435  10.422   2.221 -1.0715 -0.7510 -0.5988
 1605SOL    HW2 9501   1.537  10.310   2.220  0.7557  0.8579  0.1114
 1606SOL     OW 9502   1.750   9.186   7.272  0.4472  0.2793 -0.1009
 1606SOL    HW1 9503   1.776   9.096   7.290  0.2943 -0.3498 -2.7130
 1606SOL    HW2 9504   1.773   9.201   7.181 -0.2976  2.6323  0.0151
 1607SOL     OW 9505  10.958   5.035   0.772 -0.0905  0.0197  0.0906
 1607SOL    HW1 9506  11.001   4.953   0.796 -0.4641 -0.5194 -0.9778
 1607SOL    HW2 9507  10.865   5.013   0.768 -0.2012  0.5147 -0.1369
 1608SOL     OW 9508   8.657   7.988   3.118 -0.2497 -0.2161  0.5475
 1608SOL    HW1 9509   8.635   8.074   3.081  0.4361  0.4885  1.7228
 1608SOL    HW2 9510   8.627   7.993   3.209 -0.5572 -1.3773  0.5246
 1609SOL     OW 9511   8.384   4.306   1.028  0.3502 -0.2594 -0.0704
 1609SOL    HW1 9512   8.338   4.354   1.097  0.1120  0.6479 -0.8316
 1609SOL    HW2 9513   8.387   4.216   1.059  0.4631  0.1718  1.2278
 1610SOL     OW 9514   2.122   8.031   8.635 -0.2345 -0.3660  0.1434
 1610SOL    HW1 9515   2.179   8.106   8.652  1.3000 -1.4764  0.1479
 1610SOL    HW2 9516   2.174   7.973   8.579 -1.3313 -1.4673  0.2157
 1611SOL     OW 9517   1.076  11.381   4.931 -0.4725 -0.3474 -0.2641
 1611SOL    HW1 9518   1.100  11.310   4.990 -0.1068 -2.3514 -2.6629
 1611SOL    HW2 9519   1.122  11.361   4.849 -1.3200  2.0187 -1.4169
 1612SOL     OW 9520   4.816   4.997   8.816  0.1237  0.4034 -0.6740
 1612SOL    HW1 9521   4.792   4.944   8.893  1.6039  0.4095 -0.1688
 1612SOL    HW2 9522   4.805   4.938   8.742 -1.4050  0.4203 -0.4858
 1613SOL     OW 9523  10.564   4.571  11.985  0.1290  0.4281 -0.6203
 1613SOL    HW1 9524  10.514   4.531  11.914 -1.0552 -0.6624  0.7620
 1613SOL    HW2 9525  10.581   4.660  11.955 -2.0155  0.6044 -1.4776
 1614SOL     OW 9526   0.029   6.007   1.612 -0.1085 -0.1845  0.2093
 1614SOL    HW1 9527  -0.047   6.010   1.555 -0.5826  0.9220  0.8699
 1614SOL    HW2 9528   0.027   5.920   1.651 -0.0794 -0.7574 -1.0291
 1615SOL     OW 9529  10.411   4.858  10.495  0.3591  0.2994 -0.4610
 1615SOL    HW1 9530  10.488   4.906  10.525 -1.1642  3.3695 -1.0538
 1615SOL    HW2 9531  10.343   4.878  10.559 -0.3693 -1.1282 -0.7472
 1616SOL     OW 9532   6.623  10.449   5.167  0.9046  0.2064 -0.0181
 1616SOL    HW1 9533   6.570  10.370   5.180  1.1506  0.2931  1.6385
 1616SOL    HW2 9534   6.650  10.475   5.255  1.3627  1.7802 -0.5919
 1617SOL     OW 9535  11.209   4.805   6.338  0.4226 -0.1703  0.0466
 1617SOL    HW1 9536  11.152   4.785   6.263 -1.0692 -2.7330  1.6995
 1617SOL    HW2 9537  11.158   4.865   6.391  0.4884 -0.2013  0.1447
 1618SOL     OW 9538   0.421   1.209  10.139  0.1887 -0.2227 -0.0502
 1618SOL    HW1 9539   0.473   1.147  10.088  0.7945  0.7011 -0.6043
 1618SOL    HW2 9540   0.331   1.180  10.129  0.4595 -0.9815 -0.3235
 1619SOL     OW 9541   7.852   9.923   6.069 -0.1436 -0.1060 -0.2360
 1619SOL    HW1 9542   7.890   9.955   5.987  1.9698 -0.0061  0.7131
 1619SOL    HW2 9543   7.911   9.853   6.096 -0.4762  0.2440  1.4856
 1620SOL     OW 9544   2.010  11.264   8.277 -0.4131 -0.4646  0.1680
 1620SOL    HW1 9545   2.086  11.274   8.220  0.5986 -0.3211  1.4946
 1620SOL    HW2 9546   1.962  11.189   8.240  0.0713 -0.2290 -0.9841
 1621SOL     OW 9547   8.363   8.892   2.132  0.5633  0.7318 -0.3919
 1621SOL    HW1 9548   8.387   8.967   2.188 -1.6821  1.3412 -0.1115
 1621SOL    HW2 9549   8.332   8.826   2.194 -0.7109  0.9206 -0.7907
 1622SOL     OW 9550   4.667  10.457   0.166  0.4282 -0.2732  0.1341
 1622SOL    HW1 9551   4.727  10.451   0.091 -0.6671 -1.8893 -0.6699
 1622SOL    HW2 9552   4.588  10.497   0.130  0.6590  1.0658  1.0044
 1623SOL     OW 9553   2.947  11.843   8.037  0.3024 -0.3681  0.1636
 1623SOL    HW1 9554   2.949  11.881   7.949  0.0214 -0.3383  0.1684
 1623SOL    HW2 9555   2.934  11.918   8.095  1.7442 -0.2340  0.3393
 1624SOL     OW 9556   1.779   6.251   5.802 -0.4870  0.3783 -0.1012
 1624SOL    HW1 9557   1.770   6.180   5.866  0.6949 -0.2705 -0.6234
 1624SOL    HW2 9558   1.712   6.232   5.737  0.9807 -1.3437 -1.1901
 1625SOL     OW 9559   9.534   3.788   2.644 -0.1221 -0.5220  0.1889
 1625SOL    HW1 9560   9.472   3.800   2.716 -0.0152 -2.0313  0.5617
 1625SOL    HW2 9561   9.618   3.774   2.687 -0.0566 -1.4303 -0.2139
 1626SOL     OW 9562   4.672   9.342  11.681  0.5684  0.2274  0.0253
 1626SOL    HW1 9563   4.737   9.408  11.707  1.6551 -0.4213 -0.9255
 1626SOL    HW2 9564   4.593   9.392  11.662  0.8661  1.0786  0.9295
 1627SOL     OW 9565  10.968  10.925   2.300 -0.6780  0.1731 -0.0601
 1627SOL    HW1 9566  10.928  10.891   2.381  0.5683  1.2604  1.0549
 1627SOL    HW2 9567  11.007  10.849   2.259 -0.6810 -0.2784  0.7520
 1628SOL     OW 9568  10.804  10.768   8.216 -0.1624  0.5165 -0.3770
 1628SOL    HW1 9569  10.876  10.765   8.280  0.3692  2.7187 -0.7770
 1628SOL    HW2 9570  10.725  10.777   8.269  0.0165 -0.1046  0.0129
 1629SOL     OW 9571   7.644   6.057   9.659  0.1524 -0.0001 -0.3387
 1629SOL    HW1 9572   7.612   6.042   9.570  0.5550  0.8982 -0.6472
 1629SOL    HW2 9573   7.604   5.987   9.711 -1.4283  0.4453 -0.9015
 1630SOL     OW 9574  10.274   1.870   1.044  0.3464  0.8987  0.2736
 1630SOL    HW1 9575  10.181   1.853   1.052  0.6254  0.0160  2.1942
 1630SOL    HW2 9576  10.280   1.966   1.037 -0.6764  0.9747  0.3037
 1631SOL     OW 9577   0.876   5.490  11.909 -0.6996  0.1503 -0.3531
 1631SOL    HW1 9578   0.812   5.476  11.840 -1.3772  0.4704  0.1900
 1631SOL    HW2 9579   0.852   5.575  11.947 -0.7255 -0.2921  0.6648
 1632SOL     OW 9580   5.703   6.907  11.998 -0.1852 -0.1584 -0.9529
 1632SOL    HW1 9581   5.648   6.874  12.069 -0.3230  1.6887 -0.1237
 1632SOL    HW2 9582   5.663   6.872  11.919 -1.4057 -0.4391 -0.2520
 1633SOL     OW 9583   8.199  10.264   4.641  0.0716 -0.1800 -0.7201
 1633SOL    HW1 9584   8.255  10.319   4.696 -0.5407 -0.0973 -0.1660
 1633SOL    HW2 9585   8.235  10.176   4.651 -0.4158 -0.2769  0.3439
 1634SOL     OW 9586   1.856   8.703   5.845  0.0289 -0.3225  0.1931
 1634SOL    HW1 9587   1.889   8.792   5.850  1.4410 -0.7900 -0.4243
 1634SOL    HW2 9588   1.836   8.690   5.752  0.7933 -0.9657  0.1070
 1635SOL     OW 9589   7.574   5.550   0.259  0.4878 -0.1664  0.0677
 1635SOL    HW1 9590   7.637   5.482   0.236 -1.7448 -2.1217 -0.6742
 1635SOL    HW2 9591   7.577   5.612   0.185  0.0712 -1.3864 -1.0135
 1636SOL     OW 9592   0.948   8.621  11.704  0.3440 -0.4137  0.0088
 1636SOL    HW1 9593   0.927   8.687  11.638  0.0164 -0.9544 -0.4361
 1636SOL    HW2 9594   1.038   8.595  11.683  0.7335  0.3881  0.6210
 1637SOL     OW 9595   1.119   6.708   0.193 -0.3431 -0.0045  0.2228
 1637SOL    HW1 9596   1.036   6.662   0.183 -0.3685  0.3366 -1.4145
 1637SOL    HW2 9597   1.126   6.763   0.115  1.0700  0.5431  0.6974
 1638SOL     OW 9598   3.034   1.118   4.800  0.0515  0.0290 -0.3400
 1638SOL    HW1 9599   3.064   1.206   4.821 -0.7983  0.8344 -2.3045
 1638SOL    HW2 9600   2.944   1.129   4.771 -0.3499 -1.6175  0.1372
 1639SOL     OW 9601   5.923   5.739   0.438  0.1923  0.3977 -0.5514
 1639SOL    HW1 9602   5.838   5.774   0.464 -0.4325  0.0108 -2.0030
 1639SOL    HW2 9603   5.983   5.813   0.447 -0.3791  0.8063 -0.0002
 1640SOL     OW 9604   3.154   5.589   9.018  0.1314  0.0197 -0.2889
 1640SOL    HW1 9605   3.246   5.615   9.010  0.4751 -0.9015  0.4651
 1640SOL    HW2 9606   3.112   5.663   9.062  0.3943  0.6645 -1.0989
 1641SOL     OW 9607   0.604   4.812   2.597 -0.6878 -0.3076 -0.4860
 1641SOL    HW1 9608   0.575   4.724   2.622  0.5677 -0.2635  1.3007
 1641SOL    HW2 9609   0.692   4.820   2.634 -0.8177  1.7624 -0.5059
 1642SOL     OW 9610   1.645   5.636  10.923  0.5899 -0.4023 -0.3031
 1642SOL    HW1 9611   1.700   5.684  10.985  1.4329  1.3310 -2.2515
 1642SOL    HW2 9612   1.571   5.605  10.975  1.9105 -0.1964  1.8004
 1643SOL     OW 9613   9.943   8.013   3.462  0.6960  0.5051  0.1908
 1643SOL    HW1 9614   9.939   8.098   3.417  1.1460  0.7537  0.6157
 1643SOL    HW2 9615   9.935   7.949   3.391 -2.7809  0.8474  0.0964
 1644SOL     OW 9616   1.100   6.165   9.533 -0.3319 -0.5091  0.1454
 1644SOL    HW1 9617   1.089   6.198   9.444 -0.0496 -0.5804  0.0843
 1644SOL    HW2 9618   1.194   6.161   9.546 -0.3308 -2.0226 -0.1313
 1645SOL     OW 9619   6.848   1.454  10.272 -0.1235  0.4192 -0.3430
 1645SOL    HW1 9620   6.806   1.497  10.346  0.6090 -0.5897  0.6950
 1645SOL    HW2 9621   6.895   1.524  10.227  0.4959  0.8354  0.9195
 1646SOL     OW 9622   1.463  11.378   4.209  0.3218  0.3124  0.1758
 1646SOL    HW1 9623   1.418  11.387   4.125 -0.8344  1.7086  0.8999
 1646SOL    HW2 9624   1.392  11.378   4.273  1.2693  0.6241  1.2392
 1647SOL     OW 9625  10.234   7.019   8.021  0.4711 -0.1237  0.4938
 1647SOL    HW1 9626  10.162   7.049   7.965 -1.5412 -2.8007  1.4432
 1647SOL    HW2 9627  10.237   6.925   8.009  0.7141 -0.6962  3.9356
 1648SOL     OW 9628   6.074   2.852  11.019 -0.4719  0.0523 -1.0348
 1648SOL    HW1 9629   6.124   2.901  10.954 -1.6926  0.0888 -1.9760
 1648SOL    HW2 9630   6.060   2.766  10.980 -0.4193 -0.2444 -0.4181
 1649SOL     OW 9631   4.484   9.071   7.177  0.4918  0.3656  0.3678
 1649SOL    HW1 9632   4.441   8.993   7.210 -0.4162  0.7955  0.2199
 1649SOL    HW2 9633   4.577   9.055   7.191  0.5445 -1.7438 -1.7758
 1650SOL     OW 9634   1.103   4.802   1.144  0.2995  0.0485  0.6694
 1650SOL    HW1 9635   1.198   4.793   1.143  0.2811 -0.2961  1.2519
 1650SOL    HW2 9636   1.082   4.850   1.064  0.9339 -0.1672  0.3665
 1651SOL     OW 9637   9.262   7.051   1.847 -0.4256  0.2500 -0.9465
 1651SOL    HW1 9638   9.249   6.994   1.771 -0.8874  0.9590 -1.4081
 1651SOL    HW2 9639   9.240   7.138   1.815 -2.3798  0.3292  0.4795
 1652SOL     OW 9640   8.525   9.978   9.797 -0.0369 -0.2361 -0.6011
 1652SOL    HW1 9641   8.435   9.988   9.766 -0.6745 -0.9230  0.9025
 1652SOL    HW2 9642   8.539   9.884   9.800  0.3870 -0.1628  0.0603
 1653SOL     OW 9643   4.941   2.184   5.816 -0.5542  0.6328 -0.0787
 1653SOL    HW1 9644   4.889   2.109   5.787  2.0010 -1.5705  0.5812
 1653SOL    HW2 9645   4.932   2.247   5.745 -0.3833 -1.5825 -2.2173
 1654SOL     OW 9646   8.798   8.664   0.434 -0.3119  0.6659  0.3305
 1654SOL    HW1 9647   8.856   8.665   0.358 -0.9964 -1.1176 -0.2692
 1654SOL    HW2 9648   8.850   8.701   0.505  1.5135 -0.7114 -0.2252
 1655SOL     OW 9649   3.403  10.268   5.645 -0.1913 -0.3845  0.3100
 1655SOL    HW1 9650   3.449  10.194   5.605 -0.3892 -0.5750  0.4315
 1655SOL    HW2 9651   3.452  10.345   5.618 -1.2323 -0.3444 -1.6112
 1656SOL     OW 9652   9.365  11.782   4.546  0.3636 -0.0401 -0.2965
 1656SOL    HW1 9653   9.397  11.840   4.477  2.0890  0.7816  1.1305
 1656SOL    HW2 9654   9.420  11.704   4.540  0.0954 -0.2374 -0.2347
 1657SOL     OW 9655   5.773   3.858   6.780  0.1198 -0.8009  0.2063
 1657SOL    HW1 9656   5.866   3.862   6.759  0.0411 -0.2926 -0.0486
 1657SOL    HW2 9657   5.729   3.844   6.696 -0.1556  0.7472  0.0584
 1658SOL     OW 9658   4.774   0.537   5.044  0.6600  0.0200 -0.4211
 1658SOL    HW1 9659   4.805   0.591   5.116 -0.4948  2.5408 -1.7175
 1658SOL    HW2 9660   4.693   0.497   5.076 -0.4118  1.9527 -0.6027
 1659SOL     OW 9661  10.384   4.923   0.045 -0.0607 -0.0172 -0.1781
 1659SOL    HW1 9662  10.289   4.920   0.034 -0.3062 -0.4372  1.7919
 1659SOL    HW2 9663  10.398   4.969   0.127  1.5613  1.8169 -1.3812
 1660SOL     OW 9664   2.568  10.579  10.483  0.6050  0.5440 -0.2895
 1660SOL    HW1 9665   2.610  10.622  10.409  0.1860  0.7581 -0.4012
 1660SOL    HW2 9666   2.597  10.487  10.477  1.0701  0.6917 -0.3539
 1661SOL     OW 9667   3.757   4.957   3.119  0.2425 -0.4072 -0.2313
 1661SOL    HW1 9668   3.688   4.911   3.071  1.8320 -2.1255 -0.9868
 1661SOL    HW2 9669   3.710   5.020   3.173 -1.8453 -0.7845 -1.4754
 1662SOL     OW 9670  10.103   3.682   6.938 -0.3082  0.3670 -0.0927
 1662SOL    HW1 9671  10.133   3.608   6.990 -2.2673 -0.4924 -0.0998
 1662SOL    HW2 9672  10.157   3.755   6.966  0.5643 -0.7034  1.1033
 1663SOL     OW 9673   9.433   0.398   2.117  0.3809 -0.3152 -0.1793
 1663SOL    HW1 9674   9.342   0.423   2.133  0.0861 -2.0918  1.1771
 1663SOL    HW2 9675   9.470   0.383   2.204  1.5378 -1.0633 -0.7744
 1664SOL     OW 9676   6.642   3.895   4.438  0.4048 -0.0549 -0.5775
 1664SOL    HW1 9677   6.703   3.948   4.489  0.9558 -0.5370 -0.7226
 1664SOL    HW2 9678   6.648   3.930   4.349  0.1308  0.1898 -0.5004
 1665SOL     OW 9679   7.483   4.710   1.190  0.3953  0.2419 -0.3497
 1665SOL    HW1 9680   7.429   4.665   1.256 -1.5229  0.8933 -1.3967
 1665SOL    HW2 9681   7.560   4.740   1.239 -1.2222  1.2321  1.7847
 1666SOL     OW 9682   8.143   1.825   8.408 -0.5008 -0.1188 -0.2651
 1666SOL    HW1 9683   8.173   1.913   8.385  0.7411  0.1565  2.0864
 1666SOL    HW2 9684   8.050   1.836   8.429 -0.4624  0.5471 -0.4222
 1667SOL     OW 9685   5.670   4.816   1.643  0.3290  0.4821  0.0745
 1667SOL    HW1 9686   5.748   4.809   1.588 -0.0912  0.1950 -0.4960
 1667SOL    HW2 9687   5.678   4.745   1.706  0.2361  0.0677 -0.3725
 1668SOL     OW 9688   5.666   0.477   3.481 -0.0036 -0.2187  0.0030
 1668SOL    HW1 9689   5.622   0.528   3.412  0.8573  0.0175 -0.3959
 1668SOL    HW2 9690   5.737   0.535   3.511  1.2658 -1.3246 -0.7603
 1669SOL     OW 9691   6.867   7.228   1.635  0.3123 -0.0891 -0.1573
 1669SOL    HW1 9692   6.958   7.230   1.604  0.7368 -0.9023  0.9500
 1669SOL    HW2 9693   6.857   7.310   1.684  1.3666 -1.1626  2.0286
 1670SOL     OW 9694   3.957  11.588  11.618 -0.3354  0.0609 -0.6691
 1670SOL    HW1 9695   4.034  11.536  11.640  1.5993  1.5721 -3.2971
 1670SOL    HW2 9696   3.947  11.577  11.523 -2.6613  0.8476 -0.5665
 1671SOL     OW 9697   0.735   9.129   4.240 -0.7940 -0.1585 -0.3597
 1671SOL    HW1 9698   0.770   9.189   4.174  0.1846 -0.6288 -0.2759
 1671SOL    HW2 9699   0.707   9.187   4.311  2.0029  0.1447  0.6006
 1672SOL     OW 9700   0.722   2.313  11.190  0.4835 -0.3959 -0.3232
 1672SOL    HW1 9701   0.698   2.399  11.156  0.3091 -0.8795 -1.4398
 1672SOL    HW2 9702   0.757   2.265  11.115  0.9065 -1.1881  0.3597
 1673SOL     OW 9703   3.757   3.437   1.445 -0.5176  0.1377 -0.2686
 1673SOL    HW1 9704   3.703   3.449   1.367  0.2666  0.8271 -0.7227
 1673SOL    HW2 9705   3.732   3.508   1.503 -0.6861 -0.0320 -0.1325
 1674SOL     OW 9706   2.284   2.261   7.202 -0.6159 -0.2458  0.3091
 1674SOL    HW1 9707   2.348   2.282   7.134 -1.1554 -0.1904 -0.1872
 1674SOL    HW2 9708   2.337   2.249   7.281 -0.0186  0.0818 -0.0292
 1675SOL     OW 9709   8.247   2.022   9.362 -0.0133  0.4652 -0.0773
 1675SOL    HW1 9710   8.182   2.039   9.295  0.2959  0.9212 -0.2704
 1675SOL    HW2 9711   8.289   2.107   9.377  0.3277  0.2438  0.2595
 1676SOL     OW 9712  10.151   6.937   7.385 -0.3618  0.1058  0.7330
 1676SOL    HW1 9713  10.207   6.860   7.399  0.7393  0.8152  0.3206
 1676SOL    HW2 9714  10.201   7.010   7.420  0.1172  1.1485 -1.9121
 1677SOL     OW 9715   4.711  10.182   4.541  0.1410 -0.2686  0.1683
 1677SOL    HW1 9716   4.739  10.136   4.621 -0.0401  0.4565  0.6647
 1677SOL    HW2 9717   4.670  10.263   4.574 -1.3352 -0.6828 -0.5963
 1678SOL     OW 9718   3.462   8.845   5.349 -0.2784  0.3782 -0.2461
 1678SOL    HW1 9719   3.413   8.870   5.271 -0.8243  0.0538 -0.0090
 1678SOL    HW2 9720   3.493   8.756   5.330  0.3301  0.6229 -0.4433
 1679SOL     OW 9721   6.448   8.027   3.661 -0.4240 -0.3090  0.7875
 1679SOL    HW1 9722   6.460   8.026   3.756 -0.2889  1.0854  0.8006
 1679SOL    HW2 9723   6.353   8.023   3.649 -0.3978 -2.3430  0.9068
 1680SOL     OW 9724  11.372   5.208   5.847 -0.1335  0.2252 -0.7402
 1680SOL    HW1 9725  11.365   5.208   5.752  2.2933  1.9717 -1.0143
 1680SOL    HW2 9726  11.419   5.289   5.868 -1.2429  0.2823  2.0268
 1681SOL     OW 9727   2.106   4.018   8.082 -0.1534 -0.3569 -0.2578
 1681SOL    HW1 9728   2.044   4.065   8.027  0.4571 -0.1943 -0.8209
 1681SOL    HW2 9729   2.162   4.086   8.118 -1.3232 -0.3175  1.6190
 1682SOL     OW 9730   5.222   5.761   8.764 -0.8500 -0.5019 -0.1272
 1682SOL    HW1 9731   5.256   5.673   8.752  0.5193 -0.0132 -0.0561
 1682SOL    HW2 9732   5.216   5.772   8.859 -2.8186 -1.1477 -0.1435
 1683SOL     OW 9733   1.048   5.716   6.839  0.6324  0.1686  0.3419
 1683SOL    HW1 9734   1.063   5.668   6.921  2.4565  0.7325  0.3702
 1683SOL    HW2 9735   1.009   5.651   6.781 -1.8551  0.0519  1.9711
 1684SOL     OW 9736   3.747   6.925   3.633 -0.2203 -0.3200  0.3501
 1684SOL    HW1 9737   3.840   6.944   3.624 -0.1147  0.0624  2.0138
 1684SOL    HW2 9738   3.704   6.986   3.573  0.4480  1.3476  1.5126
 1685SOL     OW 9739   8.238   2.848   8.646 -0.0401 -0.0467 -0.8654
 1685SOL    HW1 9740   8.156   2.831   8.692 -0.8997 -2.1855 -2.9620
 1685SOL    HW2 9741   8.211   2.876   8.558  1.2903 -3.3434 -2.5100
 1686SOL     OW 9742   3.100   8.272   8.850  0.0488 -0.3954  0.2161
 1686SOL    HW1 9743   3.099   8.357   8.805 -4.1374  2.3967  4.6028
 1686SOL    HW2 9744   3.030   8.222   8.808 -0.5200  0.2113  0.4134
 1687SOL     OW 9745   6.501   2.588   0.437  0.4023  0.0597 -0.4926
 1687SOL    HW1 9746   6.467   2.504   0.406 -1.0007  0.0821  0.8335
 1687SOL    HW2 9747   6.423   2.636   0.465  1.3533  1.0481  0.5685
 1688SOL     OW 9748   0.923   0.190   2.590 -0.5482 -1.3731 -0.8854
 1688SOL    HW1 9749   0.971   0.273   2.597 -0.8410 -1.1610 -1.3814
 1688SOL    HW2 9750   0.831   0.216   2.583 -0.7553 -1.7804  0.1275
 1689SOL     OW 9751   7.606   3.594   2.343 -0.6643  0.5496 -0.0602
 1689SOL    HW1 9752   7.599   3.682   2.379  0.6917  0.4529  0.5300
 1689SOL    HW2 9753   7.652   3.544   2.411 -0.7508 -0.4197 -0.6903
 1690SOL     OW 9754  10.133   9.514   1.375  0.0206 -0.3651 -0.4678
 1690SOL    HW1 9755  10.037   9.506   1.376 -0.1786  1.5754 -0.5880
 1690SOL    HW2 9756  10.158   9.484   1.287 -0.7095  1.0531 -1.1868
 1691SOL     OW 9757   4.038   1.555   8.020 -0.4230  0.7485  0.4311
 1691SOL    HW1 9758   4.108   1.592   8.075  0.0434 -0.0411  0.3931
 1691SOL    HW2 9759   3.992   1.631   7.985  0.9920  1.3197 -0.2658
 1692SOL     OW 9760   2.251   4.156  11.592 -0.2005 -0.7728 -0.2680
 1692SOL    HW1 9761   2.196   4.111  11.656  1.6271 -1.7579  0.6759
 1692SOL    HW2 9762   2.227   4.248  11.601 -1.1939 -1.0979  0.6046
 1693SOL     OW 9763   2.987   8.119   9.955 -0.5599 -0.3655 -0.0625
 1693SOL    HW1 9764   2.991   8.159  10.042 -0.1280 -0.7549  0.1044
 1693SOL    HW2 9765   2.900   8.080   9.951 -0.3781 -0.8453  0.4338
 1694SOL     OW 9766   7.488   7.703   7.456  0.1148 -0.2417 -0.4082
 1694SOL    HW1 9767   7.517   7.736   7.541 -0.9155  0.7780 -0.4337
 1694SOL    HW2 9768   7.393   7.693   7.464 -0.2221  1.3002 -1.8870
 1695SOL     OW 9769   2.197   5.769   5.265 -0.4039 -0.0275  0.1354
 1695SOL    HW1 9770   2.116   5.717   5.270  0.2279 -0.9394  1.8019
 1695SOL    HW2 9771   2.264   5.707   5.238 -0.4830  1.1131 -3.1213
 1696SOL     OW 9772   7.141   7.247   9.194  0.4686 -0.7059 -0.5248
 1696SOL    HW1 9773   7.162   7.285   9.279 -1.7631 -0.1961 -0.1441
 1696SOL    HW2 9774   7.082   7.175   9.213 -1.6487  0.6206 -1.6912
 1697SOL     OW 9775   4.108   8.475   6.047 -0.4939 -0.7174  0.1374
 1697SOL    HW1 9776   4.075   8.386   6.061 -0.9873 -0.3766  1.3169
 1697SOL    HW2 9777   4.029   8.528   6.037 -0.3141 -0.0782  1.7602
 1698SOL     OW 9778  11.977   4.505   6.964  0.2110 -0.4128 -0.3273
 1698SOL    HW1 9779  11.884   4.525   6.962 -0.0458 -1.5335 -0.1666
 1698SOL    HW2 9780  12.020   4.588   6.944 -0.8939 -0.5337 -3.8767
 1699SOL     OW 9781   0.530   7.907   2.922 -0.2130  0.2713  0.2356
 1699SOL    HW1 9782   0.595   7.906   2.993 -0.9472  2.1029  1.0002
 1699SOL    HW2 9783   0.499   7.817   2.917  0.5550 -0.1050  1.5903
 1700SOL     OW 9784   5.592   7.661   0.565  0.4404 -0.4653 -0.1516
 1700SOL    HW1 9785   5.679   7.646   0.603  0.4568  0.9031  0.4099
 1700SOL    HW2 9786   5.534   7.669   0.641  0.3430  1.4995 -0.3599
 1701SOL     OW 9787   8.323   9.763   4.922 -0.1067 -0.1351  0.4706
 1701SOL    HW1 9788   8.390   9.818   4.964 -0.0829 -0.3227  0.6787
 1701SOL    HW2 9789   8.249   9.765   4.982 -0.7941  1.1337 -0.3611
 1702SOL     OW 9790   3.966   5.091   4.165  0.6524  0.5468  0.2266
 1702SOL    HW1 9791   4.050   5.078   4.209  0.6406 -0.1058  0.0720
 1702SOL    HW2 9792   3.953   5.011   4.115  0.8996  1.4881 -1.3887
 1703SOL     OW 9793   3.438   5.255   2.276  0.6895  0.2793 -0.0525
 1703SOL    HW1 9794   3.433   5.162   2.299 -1.5950  0.2962 -0.2514
 1703SOL    HW2 9795   3.507   5.260   2.211  0.5922 -1.3583 -0.3340
 1704SOL     OW 9796   8.095   3.711   1.661 -0.6493 -0.9326 -0.4778
 1704SOL    HW1 9797   8.078   3.759   1.579 -1.0549 -1.0182 -0.4432
 1704SOL    HW2 9798   8.124   3.624   1.632  3.1736  0.2191 -0.6467
 1705SOL     OW 9799   5.480   7.311   9.385  0.1535  0.0808 -0.2396
 1705SOL    HW1 9800   5.527   7.241   9.340  0.5115 -0.0786  0.3822
 1705SOL    HW2 9801   5.545   7.380   9.398  0.0307  0.1602 -0.0411
 1706SOL     OW 9802   9.958  11.241  10.129  0.3980  0.4981  0.1406
 1706SOL    HW1 9803   9.995  11.242  10.040 -1.8739  0.1182 -0.8856
 1706SOL    HW2 9804   9.974  11.152  10.161  1.2114  0.6302  0.1307
 1707SOL     OW 9805   6.042   6.946  10.857  1.1434  0.3260  0.0836
 1707SOL    HW1 9806   6.116   6.997  10.824  0.3039  1.6471  0.1833
 1707SOL    HW2 9807   6.082   6.867  10.894  2.6639  1.7128  1.5598
 1708SOL     OW 9808   3.264  10.727   7.547 -0.1946  0.5527 -0.4197
 1708SOL    HW1 9809   3.316  10.657   7.588 -1.3786 -1.3707 -1.9966
 1708SOL    HW2 9810   3.320  10.758   7.476 -0.8778 -1.1634 -1.7942
 1709SOL     OW 9811   7.396   8.762   1.604  0.7167  0.2068 -0.0069
 1709SOL    HW1 9812   7.387   8.701   1.531 -0.5353 -0.5172  0.7223
 1709SOL    HW2 9813   7.311   8.762   1.646  1.3142  0.8719  1.2613
 1710SOL     OW 9814   5.190   9.697   1.313 -0.2083  0.6783  0.0989
 1710SOL    HW1 9815   5.213   9.784   1.345  1.0203 -0.1698  1.6954
 1710SOL    HW2 9816   5.177   9.708   1.219  1.0876  2.3796  0.0738
 1711SOL     OW 9817   9.716  11.201   0.822  0.4930 -0.9813  0.1354
 1711SOL    HW1 9818   9.785  11.139   0.802 -0.2135 -1.6976 -0.1410
 1711SOL    HW2 9819   9.637  11.162   0.784 -0.0457 -0.1347  0.3506
 1712SOL     OW 9820   0.783   5.265   0.485  0.2284  0.6892  0.1052
 1712SOL    HW1 9821   0.791   5.344   0.539 -0.2750  0.2424  0.8521
 1712SOL    HW2 9822   0.850   5.276   0.417 -0.2119  2.0258 -0.1528
 1713SOL     OW 9823   8.470  11.164   8.060  0.2449 -0.8886  0.0176
 1713SOL    HW1 9824   8.410  11.213   8.003  2.4341  1.5078 -0.4178
 1713SOL    HW2 9825   8.464  11.208   8.144  1.6903 -0.3003 -0.1664
 1714SOL     OW 9826   6.767   7.464   9.436 -0.0926  0.2887 -0.0952
 1714SOL    HW1 9827   6.720   7.425   9.363 -1.0790 -0.0493  0.6936
 1714SOL    HW2 9828   6.797   7.389   9.488 -0.1442  0.5348  0.2972
 1715SOL     OW 9829   7.486   1.971   6.275  0.2295  0.0816  0.3195
 1715SOL    HW1 9830   7.427   2.046   6.266 -0.2107 -0.3334 -0.3318
 1715SOL    HW2 9831   7.571   2.003   6.245 -0.1425  0.0897 -0.7591
 1716SOL     OW 9832   2.817   0.941   7.804  0.3337  0.5992 -0.6508
 1716SOL    HW1 9833   2.777   0.915   7.721  3.6338 -1.2947 -1.8618
 1716SOL    HW2 9834   2.792   0.873   7.866  1.0853 -0.2055 -1.2136
 1717SOL     OW 9835   5.463   7.555   2.714  0.7104  0.3155 -0.0426
 1717SOL    HW1 9836   5.494   7.588   2.630 -1.3172  0.0392 -0.9491
 1717SOL    HW2 9837   5.369   7.543   2.702  0.1125  1.5152  2.6743
 1718SOL     OW 9838   7.918   4.330  11.895 -0.0529  0.3007 -0.3237
 1718SOL    HW1 9839   7.857   4.283  11.838 -0.5463 -0.1348  0.5335
 1718SOL    HW2 9840   8.004   4.312  11.858 -0.3654  0.0539 -0.9472
 1719SOL     OW 9841  11.510   7.365   8.425  0.3658  0.1737  0.5882
 1719SOL    HW1 9842  11.437   7.315   8.389  1.3243 -2.5192  2.0538
 1719SOL    HW2 9843  11.530   7.431   8.359 -2.0681 -0.2969 -0.7307
 1720SOL     OW 9844  11.731   9.731   7.555  0.0897 -0.7468  0.3390
 1720SOL    HW1 9845  11.707   9.821   7.578 -0.2382 -1.0694  1.3204
 1720SOL    HW2 9846  11.757   9.736   7.463  0.5228  0.4327  0.5056
 1721SOL     OW 9847   2.546   5.047   6.490 -0.3043 -0.3557  0.8384
 1721SOL    HW1 9848   2.550   4.979   6.423 -2.4322  0.1563  0.1196
 1721SOL    HW2 9849   2.479   5.017   6.551 -0.7029  0.6804  0.9437
 1722SOL     OW 9850  10.202  10.766   5.570 -0.9406 -0.2607  0.1823
 1722SOL    HW1 9851  10.273  10.721   5.525 -0.8646  0.3726 -0.3489
 1722SOL    HW2 9852  10.182  10.841   5.514 -0.3224  0.9831  1.5621
 1723SOL     OW 9853   3.987   9.565   3.304 -0.2882  0.1465  0.8637
 1723SOL    HW1 9854   3.929   9.627   3.348  0.5304  0.6307  1.2810
 1723SOL    HW2 9855   4.067   9.615   3.286 -0.6123 -0.0072 -1.2557
 1724SOL     OW 9856  10.096   7.634   5.347 -0.4632 -0.2953 -0.5134
 1724SOL    HW1 9857  10.048   7.572   5.402  1.5057 -1.4495 -0.0319
 1724SOL    HW2 9858  10.159   7.580   5.299  0.2313  1.1473 -1.2790
 1725SOL     OW 9859   3.212   1.989   0.621 -0.3587 -0.2399  0.6620
 1725SOL    HW1 9860   3.213   1.893   0.626 -0.7739 -0.3647 -0.9540
 1725SOL    HW2 9861   3.298   2.016   0.655  0.4009 -1.3005 -0.3268
 1726SOL     OW 9862   4.898   6.631  11.875 -0.5235  0.1881  0.9350
 1726SOL    HW1 9863   4.988   6.649  11.846 -0.8470  2.2786  1.0157
 1726SOL    HW2 9864   4.898   6.539  11.899  1.3343 -0.1057 -0.0279
 1727SOL     OW 9865   6.074   1.701   9.143  0.1497 -0.6388  0.1113
 1727SOL    HW1 9866   6.060   1.789   9.180  0.7975 -0.7501  0.6223
 1727SOL    HW2 9867   5.988   1.659   9.150  0.5283 -1.1600  2.8131
 1728SOL     OW 9868   2.546   2.488   1.090  0.8598 -0.1365 -0.4123
 1728SOL    HW1 9869   2.556   2.421   1.158  0.0286  1.8632  1.8446
 1728SOL    HW2 9870   2.453   2.485   1.067  0.2156  1.7449  1.5478
 1729SOL     OW 9871   1.626  11.155   1.175 -0.5105 -0.7060  0.0894
 1729SOL    HW1 9872   1.596  11.190   1.259 -0.5463 -1.0225  0.2091
 1729SOL    HW2 9873   1.667  11.230   1.131 -0.4016 -0.5628  0.4324
 1730SOL     OW 9874   8.151  11.288   8.340  0.0678  0.2767 -0.7134
 1730SOL    HW1 9875   8.228  11.245   8.377  1.1500  1.6110 -1.3382
 1730SOL    HW2 9876   8.155  11.377   8.374 -0.4987  0.7112 -1.7502
 1731SOL     OW 9877   7.667   7.210   7.714 -0.6100  0.1628  0.3387
 1731SOL    HW1 9878   7.745   7.176   7.757  1.6742  2.8095 -1.3578
 1731SOL    HW2 9879   7.621   7.259   7.782  0.0663 -0.1001  0.9946
 1732SOL     OW 9880  11.383  11.314   9.348 -0.4442  0.4377  0.6559
 1732SOL    HW1 9881  11.423  11.247   9.404  0.8281 -0.0179 -0.7344
 1732SOL    HW2 9882  11.292  11.287   9.339 -0.5345  0.1948  1.9796
 1733SOL     OW 9883   4.284   0.199   0.607  0.1262 -0.4356 -0.2494
 1733SOL    HW1 9884   4.199   0.227   0.573 -0.1635 -1.3369 -0.2801
 1733SOL    HW2 9885   4.310   0.126   0.551  0.7018 -0.4746  0.0584
 1734SOL     OW 9886   9.294   7.395   6.590 -0.6555 -0.0066  0.5046
 1734SOL    HW1 9887   9.237   7.406   6.666 -0.5917 -1.0143  0.7181
 1734SOL    HW2 9888   9.287   7.302   6.569 -0.5513  0.2390 -0.6310
 1735SOL     OW 9889   4.355   7.131   0.224 -0.1362 -0.4704  0.0437
 1735SOL    HW1 9890   4.403   7.211   0.243 -0.2663  0.1678 -2.1173
 1735SOL    HW2 9891   4.274   7.139   0.276  0.1371  0.4894  0.3417
 1736SOL     OW 9892   7.683   0.311  11.268 -0.2292  0.2806  0.4851
 1736SOL    HW1 9893   7.748   0.366  11.224 -0.3517  1.6599  1.9444
 1736SOL    HW2 9894   7.717   0.222  11.258 -0.1842  0.5022 -2.2209
 1737SOL     OW 9895   4.970  10.733   3.666  0.0482  0.0758 -0.1072
 1737SOL    HW1 9896   5.054  10.693   3.642 -0.6323 -0.1608 -2.3184
 1737SOL    HW2 9897   4.990  10.785   3.744  2.0322 -0.7130 -0.0248
 1738SOL     OW 9898  11.567   4.759   1.088 -0.5093  0.3258  1.0354
 1738SOL    HW1 9899  11.614   4.769   1.171  1.0102  1.0114  0.1267
 1738SOL    HW2 9900  11.476   4.742   1.114 -0.3980  2.1051  2.8499
 1739SOL     OW 9901   8.143   2.310   4.921 -0.8534 -0.8144 -0.0954
 1739SOL    HW1 9902   8.078   2.380   4.919  0.3080  0.2845 -0.6567
 1739SOL    HW2 9903   8.129   2.268   5.006 -0.5234  1.1517  0.9893
 1740SOL     OW 9904   3.726   2.712   4.640  0.5030  0.3422  0.0359
 1740SOL    HW1 9905   3.677   2.755   4.710 -1.5467  0.9675 -1.6596
 1740SOL    HW2 9906   3.685   2.626   4.632  1.6409 -0.2611  0.4657
 1741SOL     OW 9907   9.883   3.529  10.443  0.1080 -0.2213  0.1757
 1741SOL    HW1 9908   9.865   3.591  10.513  2.1253  0.0762  0.4894
 1741SOL    HW2 9909   9.867   3.578  10.362 -1.1439 -0.2253  0.4111
 1742SOL     OW 9910  11.857   9.238   6.244  0.1793  0.2468 -0.8071
 1742SOL    HW1 9911  11.822   9.158   6.284  0.8962  0.3605  0.0887
 1742SOL    HW2 9912  11.827   9.235   6.153  1.1055 -1.6250 -1.1039
 1743SOL     OW 9913   5.257   2.294   9.738 -0.4210 -0.1375  0.8403
 1743SOL    HW1 9914   5.313   2.231   9.693  1.3719  1.2858  0.9627
 1743SOL    HW2 9915   5.168   2.269   9.712  0.2687 -2.1749  0.2434
 1744SOL     OW 9916   1.610   2.373  11.965  0.2400  0.0256  0.9626
 1744SOL    HW1 9917   1.636   2.309  11.898  1.9912 -0.3757  1.9639
 1744SOL    HW2 9918   1.551   2.433  11.919  0.7681 -0.6875 -0.7352
 1745SOL     OW 9919   3.292  11.427  10.252 -0.0907 -0.4810 -0.0235
 1745SOL    HW1 9920   3.314  11.430  10.346  0.7004 -1.6481 -0.1534
 1745SOL    HW2 9921   3.336  11.503  10.215  0.7744 -0.8017  0.3276
 1746SOL     OW 9922   7.340   7.770   2.920 -0.0127 -0.2170  0.3803
 1746SOL    HW1 9923   7.353   7.812   3.005  1.5117 -1.1801  0.6664
 1746SOL    HW2 9924   7.394   7.821   2.860 -0.6349  0.1123  0.0954
 1747SOL     OW 9925  10.994   1.606  10.864 -0.1976 -0.0513  0.2255
 1747SOL    HW1 9926  10.937   1.642  10.796  1.4806 -0.9244 -1.7589
 1747SOL    HW2 9927  11.015   1.681  10.920 -1.5378  0.7231 -0.2669
 1748SOL     OW 9928   9.350  10.549   0.775 -0.0870  0.5179  0.8332
 1748SOL    HW1 9929   9.284  10.533   0.708 -0.3975  2.2548  0.6792
 1748SOL    HW2 9930   9.420  10.596   0.729  0.5743  0.0560  1.3342
 1749SOL     OW 9931   3.348  10.729  11.997 -0.2595  0.5073  0.5246
 1749SOL    HW1 9932   3.382  10.685  12.074 -1.2959  1.5829  1.6396
 1749SOL    HW2 9933   3.395  10.689  11.923  1.3614  0.0430  1.7559
 1750SOL     OW 9934   9.662   2.609   1.443  0.5637 -0.0381  0.4815
 1750SOL    HW1 9935   9.755   2.604   1.464  0.4635  0.3182  1.0481
 1750SOL    HW2 9936   9.619   2.623   1.528  0.1429  1.5097  0.0365
 1751SOL     OW 9937   5.511  11.760   4.980  0.0916  1.3763  0.0756
 1751SOL    HW1 9938   5.466  11.678   5.001 -0.4089  0.7806 -2.9000
 1751SOL    HW2 9939   5.532  11.799   5.065  0.0137 -1.6392  1.5831
 1752SOL     OW 9940   8.127   3.737   9.801 -0.4042 -0.1597  0.1533
 1752SOL    HW1 9941   8.216   3.706   9.815 -0.5837 -0.4389  0.6952
 1752SOL    HW2 9942   8.137   3.825   9.765  0.1033 -0.6077 -0.8347
 1753SOL     OW 9943   3.869   0.319   1.741 -0.1935  0.0282 -0.9265
 1753SOL    HW1 9944   3.779   0.343   1.763  0.6879  2.2896  0.6017
 1753SOL    HW2 9945   3.874   0.225   1.760 -1.9443  0.0699 -0.0271
 1754SOL     OW 9946   0.578   5.685   4.397  0.1907  0.4604 -0.5815
 1754SOL    HW1 9947   0.649   5.749   4.403  0.1523  0.4519  0.0681
 1754SOL    HW2 9948   0.622   5.602   4.379  0.3150  0.5278 -0.5909
 1755SOL     OW 9949   1.742   6.075  11.613  0.2602  0.9820 -0.1637
 1755SOL    HW1 9950   1.738   6.019  11.536  0.6085  0.9751 -0.1764
 1755SOL    HW2 9951   1.671   6.043  11.669 -0.0133  1.0064 -0.4923
 1756SOL     OW 9952   6.069   6.873   0.406 -0.4836  0.0180  0.5751
 1756SOL    HW1 9953   6.044   6.952   0.454  1.5988 -0.0902  1.9792
 1756SOL    HW2 9954   6.163   6.864   0.422  0.5185  0.1402 -3.8854
 1757SOL     OW 9955   3.559   8.465   6.117 -0.5028 -0.2276 -0.2189
 1757SOL    HW1 9956   3.476   8.449   6.161 -0.5161  1.1338  0.2788
 1757SOL    HW2 9957   3.618   8.496   6.186 -0.4373  1.6416 -1.0544
 1758SOL     OW 9958  10.936   8.182   3.068 -0.2264  0.0526 -0.1485
 1758SOL    HW1 9959  10.926   8.148   2.979  0.8474 -1.6952  0.3655
 1758SOL    HW2 9960  11.030   8.179   3.085 -0.4073  0.4575  1.0091
 1759SOL     OW 9961   7.017   5.163  11.300  0.3907 -0.2558  0.1408
 1759SOL    HW1 9962   7.044   5.074  11.320 -0.2225 -0.3264  0.6847
 1759SOL    HW2 9963   6.922   5.164  11.315  0.2920  0.3292 -0.4422
 1760SOL     OW 9964   8.465   3.951   2.246  0.5344 -0.4985 -0.5132
 1760SOL    HW1 9965   8.421   3.917   2.324 -1.3747 -0.1387 -1.3569
 1760SOL    HW2 9966   8.439   4.043   2.242 -0.9537 -0.9264 -2.5083
 1761SOL     OW 9967   4.138   3.485   6.470  0.0011 -0.0859  0.4205
 1761SOL    HW1 9968   4.085   3.417   6.429 -0.4280  1.9644 -2.7317
 1761SOL    HW2 9969   4.075   3.536   6.522 -0.6899  0.6762 -1.0793
 1762SOL     OW 9970   0.614   2.609   2.936 -0.0294  0.6449 -0.4766
 1762SOL    HW1 9971   0.568   2.538   2.893  0.4545  0.8806 -1.4091
 1762SOL    HW2 9972   0.592   2.599   3.029 -0.7844 -0.0951 -0.7242
 1763SOL     OW 9973   0.885   5.402  10.815 -0.3372  0.1543  0.7867
 1763SOL    HW1 9974   0.870   5.378  10.724 -0.8152 -1.5346  1.2863
 1763SOL    HW2 9975   0.892   5.319  10.862 -0.1379  0.9829  2.3086
 1764SOL     OW 9976  11.054   3.761   6.795 -0.0462  0.3627 -0.7142
 1764SOL    HW1 9977  11.027   3.675   6.762 -0.2862  0.2906 -0.3384
 1764SOL    HW2 9978  11.081   3.744   6.885 -0.1576  0.6936 -0.6186
 1765SOL     OW 9979   7.884   4.767   9.375  0.3416  0.3070  0.7612
 1765SOL    HW1 9980   7.817   4.728   9.318 -0.3671  0.2979  1.5796
 1765SOL    HW2 9981   7.845   4.767   9.462  1.5151  0.0628  1.3138
 1766SOL     OW 9982  11.331   5.600   0.704  0.2285  0.2136  0.2917
 1766SOL    HW1 9983  11.301   5.659   0.635  0.9521 -0.9927 -1.0848
 1766SOL    HW2 9984  11.426   5.595   0.693  0.3123 -0.3471  1.1009
 1767SOL     OW 9985  10.609  11.794   6.813 -0.2865 -0.3166 -0.5877
 1767SOL    HW1 9986  10.635  11.789   6.906  1.8203  1.4087 -0.9960
 1767SOL    HW2 9987  10.625  11.706   6.780  1.2484 -0.3884  0.2061
 1768SOL     OW 9988   4.020   8.539   6.593 -0.0250  0.0602 -0.4285
 1768SOL    HW1 9989   4.021   8.581   6.507  1.1906  1.6213  0.3120
 1768SOL    HW2 9990   3.972   8.599   6.649 -0.1281 -0.5705  0.1814
 1769SOL     OW 9991   1.547   5.699   6.504  0.1851  0.3768 -0.4549
 1769SOL    HW1 9992   1.626   5.737   6.465  0.3135  0.8045  0.2225
 1769SOL    HW2 9993   1.580   5.631   6.563 -0.0694 -1.6990 -2.5542
 1770SOL     OW 9994   4.800  11.430   8.234  0.2270 -0.1135 -0.6408
 1770SOL    HW1 9995   4.718  11.418   8.282  0.5500 -2.2770 -0.5451
 1770SOL    HW2 9996   4.777  11.491   8.163 -0.7043  1.6403  1.0873
 1771SOL     OW 9997  11.550   2.531   0.752  0.1722  0.8631  0.0956
 1771SOL    HW1 9998  11.477   2.588   0.775 -0.4047  0.6206 -1.0587
 1771SOL    HW2 9999  11.621   2.559   0.809 -1.1463  0.2973  2.1485
 1772SOL     OW10000   8.003   7.445   9.931  0.0087 -0.4886  0.3655
 1772SOL    HW110001   8.062   7.498   9.985  0.8922 -0.9217 -0.1744
 1772SOL    HW210002   8.047   7.361   9.921 -0.2411 -0.4872 -0.8732
 1773SOL     OW10003   7.813   5.940   2.069  0.2307 -0.5447 -0.9138
 1773SOL    HW110004   7.778   5.855   2.046 -1.5944  0.0652 -0.5531
 1773SOL    HW210005   7.817   5.940   2.164  3.0187 -1.2382 -0.9369
 1774SOL     OW10006   9.807   8.084   3.013 -0.3013  0.2317  0.3837
 1774SOL    HW110007   9.861   8.160   3.036  0.4892 -0.1482 -0.1669
 1774SOL    HW210008   9.868   8.024   2.970 -1.0608 -0.4378  0.2264
 1775SOL     OW10009   6.825   2.344   6.322 -0.0218 -0.4230  0.0710
 1775SOL    HW110010   6.781   2.429   6.321 -0.8299 -0.8263  0.5042
 1775SOL    HW210011   6.918   2.366   6.323 -0.2217  0.4653  0.2731
 1776SOL     OW10012   4.699   1.830   2.992  0.3986  0.1093 -0.0919
 1776SOL    HW110013   4.634   1.767   3.021  0.9959 -1.1356 -1.3812
 1776SOL    HW210014   4.670   1.913   3.030 -1.0841 -0.6929  0.6089
 1777SOL     OW10015   3.112   9.280   3.379 -0.1658  0.7286  0.0343
 1777SOL    HW110016   3.072   9.349   3.327 -0.0370 -0.4790 -1.7761
 1777SOL    HW210017   3.155   9.224   3.315 -1.1081 -1.5857  1.2825
 1778SOL     OW10018   8.878   3.705   4.793  0.1620 -0.1889  0.3847
 1778SOL    HW110019   8.901   3.618   4.825 -1.3434 -0.8296 -0.2011
 1778SOL    HW210020   8.798   3.692   4.742  0.9968  1.2080 -1.3911
 1779SOL     OW10021   1.726   1.876   9.976 -0.2348  0.2413  0.6738
 1779SOL    HW110022   1.758   1.937   9.909 -0.3796  2.1065  2.2207
 1779SOL    HW210023   1.655   1.828   9.933 -0.0121  1.0510 -0.6571
 1780SOL     OW10024   5.036   4.986   6.406  0.2088 -0.5155  0.1492
 1780SOL    HW110025   4.968   4.944   6.354  0.9496 -1.7775  0.1827
 1780SOL    HW210026   5.088   4.914   6.441  2.5260  0.4422 -1.1536
 1781SOL     OW10027   1.323   4.109   2.711 -0.2015  0.2850  0.4529
 1781SOL    HW110028   1.326   4.027   2.761  2.3157 -0.2786 -0.4701
 1781SOL    HW210029   1.408   4.149   2.725 -0.1281  1.0690 -1.8227
 1782SOL     OW10030   3.575   6.884   9.088  0.4153 -0.3607 -0.3479
 1782SOL    HW110031   3.623   6.802   9.071 -1.7255 -1.5626 -0.9467
 1782SOL    HW210032   3.502   6.858   9.144 -1.1297  0.8299 -1.6880
 1783SOL     OW10033   0.062   8.821   0.151 -0.8077 -0.0860 -0.2163
 1783SOL    HW110034   0.081   8.893   0.210  0.8886  0.4911 -1.3958
 1783SOL    HW210035   0.003   8.858   0.085  0.3501  0.3688 -1.0284
 1784SOL     OW10036  10.176   9.062   5.901 -0.2578 -0.0015  0.0944
 1784SOL    HW110037  10.253   9.034   5.853 -0.3108 -2.0402  1.1082
 1784SOL    HW210038  10.206   9.135   5.955  1.3092 -1.4953  1.3426
 1785SOL     OW10039   5.243   4.903  10.554  0.2518  0.0493 -0.1760
 1785SOL    HW110040   5.254   4.882  10.461  0.3727  2.9350 -0.8952
 1785SOL    HW210041   5.333   4.910  10.587  0.5626  4.3993 -1.3147
 1786SOL     OW10042   2.918   7.412   0.392 -0.4873 -0.7673 -0.0615
 1786SOL    HW110043   2.881   7.342   0.337 -2.8814 -0.5232  1.0835
 1786SOL    HW210044   2.891   7.388   0.481 -1.5056  1.6624  0.3417
 1787SOL     OW10045   9.996   5.382   3.130  0.3273  0.6983 -1.1863
 1787SOL    HW110046  10.016   5.343   3.215  0.8106  1.1384 -1.0917
 1787SOL    HW210047   9.901   5.377   3.123  0.2883  0.6278 -0.6391
 1788SOL     OW10048  10.851   3.452   3.199  0.6110  0.4393 -0.1650
 1788SOL    HW110049  10.933   3.462   3.151  1.7121 -0.4966  1.4147
 1788SOL    HW210050  10.873   3.393   3.271 -0.8788  1.9283  1.6230
 1789SOL     OW10051   5.357   3.316   9.925 -0.4675  0.3320 -0.1961
 1789SOL    HW110052   5.265   3.306   9.902 -0.7295  1.0411  0.5188
 1789SOL    HW210053   5.369   3.259  10.001 -0.5236  0.9027  0.2401
 1790SOL     OW10054   1.176   8.543   0.017 -0.2348 -0.1501  0.4948
 1790SOL    HW110055   1.168   8.455  -0.020  0.1233  0.4521 -1.1229
 1790SOL    HW210056   1.090   8.583   0.005 -0.9943 -0.8727  3.0011
 1791SOL     OW10057   3.144   2.015   5.105  0.1459  0.4814  0.0025
 1791SOL    HW110058   3.142   2.004   5.200 -0.9231  1.2726  0.0862
 1791SOL    HW210059   3.052   2.024   5.080  0.5152  2.3583 -0.8373
 1792SOL     OW10060   6.598   3.147   1.656  0.1720 -0.1834 -0.0820
 1792SOL    HW110061   6.625   3.160   1.747  0.9527 -2.2580  0.0210
 1792SOL    HW210062   6.527   3.083   1.661 -0.5251  0.4893 -0.8814
 1793SOL     OW10063  10.058   5.729   2.486  0.2611 -0.1424 -0.3125
 1793SOL    HW110064  10.016   5.778   2.415  4.2380  1.7066 -1.6946
 1793SOL    HW210065  10.085   5.796   2.548 -0.0693 -1.3920  1.2268
 1794SOL     OW10066   2.599   6.805   1.567 -0.4548 -0.1162  0.1348
 1794SOL    HW110067   2.507   6.786   1.585 -0.4655  0.1831  0.4020
 1794SOL    HW210068   2.598   6.893   1.531 -0.2667 -0.0962  0.1802
 1795SOL     OW10069   7.395   2.495   5.126  0.0476 -0.2333 -0.2791
 1795SOL    HW110070   7.413   2.557   5.197  3.0660  0.6133 -1.5777
 1795SOL    HW210071   7.408   2.409   5.165 -2.2899 -0.0547  1.0799
 1796SOL     OW10072  11.558  11.318  10.662  0.2867  0.4528 -0.4141
 1796SOL    HW110073  11.623  11.288  10.599  0.5138  0.2956 -0.1071
 1796SOL    HW210074  11.477  11.326  10.611  0.1167 -1.0737 -0.4284
 1797SOL     OW10075  11.534   0.141   5.113  0.3057  0.2082  0.3093
 1797SOL    HW110076  11.616   0.153   5.067  1.1058 -0.4170  1.5201
 1797SOL    HW210077  11.541   0.054   5.153 -0.5336  0.5347  1.2142
 1798SOL     OW10078  10.908   3.957   9.777  0.3070 -0.3838  0.6790
 1798SOL    HW110079  10.931   3.887   9.838  2.4648 -1.8135 -1.5843
 1798SOL    HW210080  10.988   3.973   9.727 -1.0285  1.4920 -1.0182
 1799SOL     OW10081   9.807  10.430   2.928 -0.1634 -0.1284  0.2721
 1799SOL    HW110082   9.813  10.430   3.024  1.9274 -0.5197  0.1997
 1799SOL    HW210083   9.884  10.480   2.900 -1.2917  0.8679 -1.2138
 1800SOL     OW10084   5.987   0.303   9.047  0.5675  0.1443 -0.1922
 1800SOL    HW110085   5.955   0.385   9.084 -1.1673 -0.2849 -0.6650
 1800SOL    HW210086   5.913   0.243   9.053  1.5578 -1.1600 -0.5790
 1801SOL     OW10087   6.930  10.633   0.022  0.1923 -0.2726  0.3230
 1801SOL    HW110088   6.911  10.539   0.016 -1.1659 -0.0177  0.2513
 1801SOL    HW210089   6.945  10.649   0.115  0.2153 -0.5251  0.3631
 1802SOL     OW10090   1.696  11.659   4.792 -0.0547  0.1126 -0.0106
 1802SOL    HW110091   1.781  11.639   4.754  0.6109  0.2188  1.3484
 1802SOL    HW210092   1.645  11.694   4.719  1.5303  1.3887 -0.5854
 1803SOL     OW10093  10.606   7.961   4.684  0.3535 -0.0495  0.2432
 1803SOL    HW110094  10.692   7.936   4.650 -0.8310 -1.9592 -1.5507
 1803SOL    HW210095  10.602   7.920   4.770  1.7358  1.2562  0.9827
 1804SOL     OW10096   2.420   7.321   6.032 -0.1926 -0.0839 -0.4157
 1804SOL    HW110097   2.370   7.393   6.072 -0.0341  1.5767 -2.9756
 1804SOL    HW210098   2.456   7.359   5.952  4.6198 -1.4081  0.8524
 1805SOL     OW10099   9.223   7.419  10.547  0.1293 -0.2845  0.1274
 1805SOL    HW110100   9.165   7.421  10.623 -0.4088  2.4912 -0.2615
 1805SOL    HW210101   9.306   7.454  10.580 -0.3085  1.5891 -0.6440
 1806SOL     OW10102   0.535   8.791   3.900  0.1293 -0.1964 -0.2505
 1806SOL    HW110103   0.467   8.734   3.862 -1.0636  1.2239 -0.3528
 1806SOL    HW210104   0.569   8.741   3.975 -2.3500 -0.2317  0.9547
 1807SOL     OW10105   0.948  10.774   1.426  0.1497  0.3015  0.1337
 1807SOL    HW110106   0.861  10.746   1.454 -0.5750  2.1262 -0.1460
 1807SOL    HW210107   0.987  10.813   1.505  0.6639 -0.3615  0.2168
 1808SOL     OW10108   9.408   6.100   3.297  0.0634 -0.3933  0.3262
 1808SOL    HW110109   9.388   6.167   3.363 -0.1915 -1.4691  1.3631
 1808SOL    HW210110   9.488   6.059   3.328  1.7141  1.1295 -1.6677
 1809SOL     OW10111   7.428   3.452   9.022 -0.0096 -0.2940  0.2114
 1809SOL    HW110112   7.393   3.454   9.111 -0.6162  1.2813 -0.0216
 1809SOL    HW210113   7.353   3.429   8.967  0.1389 -0.3412  0.0292
 1810SOL     OW10114   8.404   5.692  11.476 -1.0332 -0.7523 -0.1905
 1810SOL    HW110115   8.372   5.704  11.565 -1.0904  2.4306 -0.5428
 1810SOL    HW210116   8.325   5.673  11.425 -1.3966  0.0931  0.0380
 1811SOL     OW10117   2.936   9.155   7.366 -0.1142 -0.2986 -0.1450
 1811SOL    HW110118   2.853   9.184   7.329 -0.5054 -0.7751  0.3459
 1811SOL    HW210119   2.938   9.193   7.454 -0.0748 -0.7504  0.0526
 1812SOL     OW10120   2.545   1.402  10.338  0.0536 -0.1179  0.3791
 1812SOL    HW110121   2.623   1.384  10.389  0.3450  0.0324 -0.0105
 1812SOL    HW210122   2.569   1.383  10.247  1.0752  3.9949 -0.4123
 1813SOL     OW10123   2.682  10.160   4.526 -0.0156  0.2696  0.0569
 1813SOL    HW110124   2.647  10.219   4.593 -0.2951 -0.2753  0.4021
 1813SOL    HW210125   2.767  10.197   4.504  0.0194  0.5394  0.6088
 1814SOL     OW10126   1.368   6.864  11.125  0.7930  0.3590 -0.2277
 1814SOL    HW110127   1.296   6.846  11.185  1.5843  2.5322  1.5258
 1814SOL    HW210128   1.429   6.792  11.139  1.0236  0.8801  1.7747
 1815SOL     OW10129  11.103  11.102   6.554  0.1791 -0.4067 -0.4494
 1815SOL    HW110130  11.134  11.050   6.480  0.0323 -0.2324 -0.6342
 1815SOL    HW210131  11.015  11.131   6.528  0.8429  1.2168 -1.0039
 1816SOL     OW10132   0.670   0.985   7.597  0.4474 -0.3645  0.6822
 1816SOL    HW110133   0.693   0.943   7.514  3.5603  1.2528  0.5963
 1816SOL    HW210134   0.710   0.930   7.664  1.5415  0.5474  0.7982
 1817SOL     OW10135   5.922   5.816   8.859  0.5211 -0.3959  0.6385
 1817SOL    HW110136   5.969   5.734   8.844 -0.8344 -1.4787  1.8625
 1817SOL    HW210137   5.873   5.830   8.778  2.8323  0.7498 -0.6500
 1818SOL     OW10138  10.902   1.597   9.817  0.1390 -0.0615 -0.1026
 1818SOL    HW110139  10.904   1.520   9.873 -2.2961  1.0636  1.7150
 1818SOL    HW210140  10.868   1.565   9.733  0.9389 -1.2492  0.0102
 1819SOL     OW10141  11.621   0.291   5.688  0.3105 -0.1540  0.4593
 1819SOL    HW110142  11.708   0.251   5.688  0.8152  0.8747  2.0887
 1819SOL    HW210143  11.632   0.372   5.737 -1.5901 -0.0432  0.7665
 1820SOL     OW10144   9.244   7.314   7.038  0.1684  0.0818 -0.4322
 1820SOL    HW110145   9.321   7.320   6.982  0.6813 -0.5183  0.1872
 1820SOL    HW210146   9.213   7.224   7.027  0.5215 -0.1761  0.5364
 1821SOL     OW10147   7.746   5.293   8.741  0.2267 -0.7193  0.1308
 1821SOL    HW110148   7.778   5.351   8.810 -0.7874  0.5886 -0.4409
 1821SOL    HW210149   7.659   5.266   8.771 -0.6301  0.6245 -1.0060
 1822SOL     OW10150   4.673   3.363  11.477 -0.6447 -0.1330 -0.1991
 1822SOL    HW110151   4.694   3.323  11.561 -0.2409 -0.8651 -0.6359
 1822SOL    HW210152   4.751   3.414  11.455  0.2624 -1.9037 -1.2638
 1823SOL     OW10153   8.440   6.697   1.705  0.2169  0.0054 -0.3095
 1823SOL    HW110154   8.420   6.784   1.670 -0.7220  0.4054  1.1226
 1823SOL    HW210155   8.516   6.710   1.761 -0.4176  0.1010  0.5584
 1824SOL     OW10156   3.276   2.733  10.200 -0.0219  0.9665  0.5466
 1824SOL    HW110157   3.246   2.760  10.287 -1.5838  0.2787  0.2577
 1824SOL    HW210158   3.222   2.784  10.140 -0.2734  0.0740 -0.0032
 1825SOL     OW10159   0.791   7.583   5.216 -0.0162 -0.2778  0.0335
 1825SOL    HW110160   0.724   7.604   5.280 -0.4663  0.3185 -0.6223
 1825SOL    HW210161   0.766   7.497   5.181  0.2855 -0.6517  0.7048
 1826SOL     OW10162  10.027  11.923   8.117  0.4364 -0.4154 -0.3577
 1826SOL    HW110163   9.973  11.844   8.121 -0.0363 -0.0611  0.4240
 1826SOL    HW210164  10.016  11.964   8.202  0.6396  0.5251 -0.7747
 1827SOL     OW10165   7.064  11.658  11.878 -0.0254 -0.1563  0.1524
 1827SOL    HW110166   7.000  11.593  11.849 -1.9425  1.1115  1.3240
 1827SOL    HW210167   7.149  11.617  11.861 -1.1163 -1.9490 -1.3742
 1828SOL     OW10168   9.344   3.943   5.149 -0.3779 -0.1495 -0.0910
 1828SOL    HW110169   9.317   3.971   5.236  3.2658  1.1356  0.8104
 1828SOL    HW210170   9.292   3.997   5.089 -2.1727 -0.2856  1.2593
 1829SOL     OW10171   4.822   3.327   2.457 -0.2363 -0.4208  1.0560
 1829SOL    HW110172   4.793   3.250   2.408 -0.7520 -0.8243  1.9694
 1829SOL    HW210173   4.909   3.304   2.488  0.4307  0.1492 -0.3097
 1830SOL     OW10174   0.515   4.426   4.153 -0.2639  0.1208 -0.0952
 1830SOL    HW110175   0.604   4.461   4.145 -0.4871  0.6868 -0.1338
 1830SOL    HW210176   0.520   4.339   4.112  0.3255  0.0472  0.1197
 1831SOL     OW10177   1.045  11.392   7.378  0.0310  0.4948  0.6354
 1831SOL    HW110178   1.098  11.471   7.386  0.3823  0.4484 -0.9203
 1831SOL    HW210179   1.055  11.348   7.462  1.5830  1.0236  0.7616
 1832SOL     OW10180  11.518   2.568   1.313 -0.2111 -0.0967  0.0288
 1832SOL    HW110181  11.446   2.509   1.293 -0.9032  0.7437 -0.0446
 1832SOL    HW210182  11.497   2.601   1.401 -0.1313  0.4455 -0.1522
 1833SOL     OW10183   2.995   6.957   3.506 -0.8536  0.4597 -0.0194
 1833SOL    HW110184   2.902   6.972   3.524 -1.1825 -0.3879 -0.9246
 1833SOL    HW210185   3.003   6.862   3.494  0.0735  0.5522 -0.2372
 1834SOL     OW10186  10.736   4.588   1.140  0.1881 -0.1489  0.0817
 1834SOL    HW110187  10.761   4.679   1.123 -1.7198  0.4122  0.1383
 1834SOL    HW210188  10.669   4.593   1.208  1.8962 -1.8205  2.0387
 1835SOL     OW10189   1.628   8.175   6.110  0.0164 -0.0715 -0.5664
 1835SOL    HW110190   1.577   8.164   6.030 -0.1532 -1.6220 -0.2798
 1835SOL    HW210191   1.704   8.227   6.083 -0.2397 -0.2409 -1.6458
 1836SOL     OW10192  10.196   3.965   1.865 -0.2812 -0.6445 -0.4722
 1836SOL    HW110193  10.116   3.912   1.860  1.1248 -3.1665  1.3503
 1836SOL    HW210194  10.232   3.945   1.951  1.9632  1.0098 -0.9443
 1837SOL     OW10195   1.782   1.496   2.468  0.0809  0.1340  0.3361
 1837SOL    HW110196   1.732   1.556   2.525 -0.5226 -1.1761  1.2378
 1837SOL    HW210197   1.717   1.462   2.407  0.5373  0.7975 -0.5427
 1838SOL     OW10198  11.374   1.697   8.183 -0.0477  0.5815  0.1656
 1838SOL    HW110199  11.297   1.657   8.142  0.6383  1.0510 -1.6879
 1838SOL    HW210200  11.389   1.777   8.132  3.3386 -0.9183 -1.5017
 1839SOL     OW10201   7.688  10.914   4.390  0.5905  0.0707  0.1135
 1839SOL    HW110202   7.603  10.870   4.385  0.6918 -0.4107  1.7693
 1839SOL    HW210203   7.746  10.863   4.334 -0.7317  1.9216 -3.2105
 1840SOL     OW10204   9.510   7.360   8.857 -0.7477 -0.4973  0.0327
 1840SOL    HW110205   9.493   7.278   8.903 -2.0253  0.0550  0.5781
 1840SOL    HW210206   9.573   7.336   8.788 -0.8216 -1.8476  0.4072
 1841SOL     OW10207   7.432   6.788   9.774 -0.6268  0.2932 -0.3122
 1841SOL    HW110208   7.429   6.834   9.690 -1.6493  0.2801 -0.2936
 1841SOL    HW210209   7.429   6.857   9.839 -3.6864  0.2257 -0.2632
 1842SOL     OW10210   0.787   7.182   7.581 -0.2298  0.7357 -0.0548
 1842SOL    HW110211   0.792   7.203   7.674  1.8333 -2.5016  0.7152
 1842SOL    HW210212   0.876   7.195   7.549 -0.6005  0.4833 -1.2333
 1843SOL     OW10213   1.233  11.257   9.348 -0.1188 -0.1050  0.0697
 1843SOL    HW110214   1.175  11.193   9.388 -0.8982  1.6926  1.9824
 1843SOL    HW210215   1.262  11.312   9.420  3.1945 -0.2606 -0.9573
 1844SOL     OW10216   2.652   8.307  11.814  0.0594  0.2346  0.5190
 1844SOL    HW110217   2.735   8.263  11.798  0.3066  0.2461  1.6923
 1844SOL    HW210218   2.626   8.342  11.729 -0.5909 -2.9006 -0.7204
 1845SOL     OW10219   4.641   8.213   2.439 -0.1508  0.4468 -0.4484
 1845SOL    HW110220   4.620   8.129   2.480 -1.2049  1.4236  1.1194
 1845SOL    HW210221   4.679   8.190   2.354  0.3802 -1.6181  0.3032
 1846SOL     OW10222   0.362   1.197   2.858 -0.1034 -0.7302  0.4594
 1846SOL    HW110223   0.327   1.246   2.783 -1.5485 -1.4955  0.5845
 1846SOL    HW210224   0.381   1.264   2.924 -0.0297 -0.1636 -0.1315
 1847SOL     OW10225   1.298   0.583  11.015 -0.3353 -0.1556 -0.2362
 1847SOL    HW110226   1.389   0.580  10.985  0.0869  1.5818  0.7063
 1847SOL    HW210227   1.301   0.543  11.102 -0.6468 -0.8898 -0.5614
 1848SOL     OW10228   4.620   0.616   6.256  0.2975  0.0018  0.5387
 1848SOL    HW110229   4.698   0.596   6.309  0.3641  0.5571  0.6558
 1848SOL    HW210230   4.576   0.531   6.246  1.5758 -0.5579 -0.5839
 1849SOL     OW10231  10.956   7.803   0.955 -0.8594  0.5878  0.2665
 1849SOL    HW110232  10.889   7.830   1.017 -3.6189  0.5319 -2.4791
 1849SOL    HW210233  10.970   7.879   0.900 -1.2512 -0.4570 -1.3244
 1850SOL     OW10234   2.630   0.686   3.300  0.0661  0.1776  0.1574
 1850SOL    HW110235   2.566   0.747   3.262  0.6897  0.5748 -0.2762
 1850SOL    HW210236   2.715   0.723   3.275  0.4627 -0.3785  0.6759
 1851SOL     OW10237   2.085   3.392   5.450 -0.2899 -0.2807 -0.0931
 1851SOL    HW110238   2.070   3.319   5.510 -1.3864  0.4717  0.5846
 1851SOL    HW210239   2.160   3.439   5.486 -0.5832 -0.1657  0.3800
 1852SOL     OW10240   4.557   1.627   3.111  0.2635  0.0470  0.0808
 1852SOL    HW110241   4.513   1.645   3.193  0.1585 -1.9002  0.5150
 1852SOL    HW210242   4.513   1.549   3.077  2.0423 -0.7804 -0.4637
 1853SOL     OW10243   1.515   0.740   6.349 -0.4186 -0.3199 -0.5402
 1853SOL    HW110244   1.593   0.795   6.354  0.4100 -1.1701 -2.7440
 1853SOL    HW210245   1.450   0.793   6.303 -0.4356 -0.3582 -0.5601
 1854SOL     OW10246  11.390   1.036  10.753 -0.1497 -0.0987  0.6208
 1854SOL    HW110247  11.395   0.944  10.724  0.3534  0.0703  0.1505
 1854SOL    HW210248  11.306   1.042  10.799 -0.7206 -0.5176 -0.3352
 1855SOL     OW10249   2.482   6.797   6.996  0.2443 -0.0461 -0.0256
 1855SOL    HW110250   2.553   6.761   7.048 -0.7033 -2.0020  0.0032
 1855SOL    HW210251   2.483   6.746   6.915 -1.7928 -0.8876  0.4355
 1856SOL     OW10252  11.341   2.103   9.914  0.5431  0.2063 -0.1362
 1856SOL    HW110253  11.369   2.163   9.845 -0.1631 -0.2641 -0.8377
 1856SOL    HW210254  11.278   2.154   9.966 -1.4296 -0.4439 -1.7814
 1857SOL     OW10255   9.983  10.323   6.338  0.5448  0.1759  0.0789
 1857SOL    HW110256  10.002  10.393   6.275 -0.2210 -1.5516 -2.2363
 1857SOL    HW210257   9.926  10.263   6.290 -2.7496  0.2337  3.4323
 1858SOL     OW10258   3.808   7.384   8.717 -0.1206  0.6455  0.1900
 1858SOL    HW110259   3.720   7.370   8.680 -0.6545  3.2136  0.3033
 1858SOL    HW210260   3.846   7.452   8.661  2.2042 -1.0322 -0.3906
 1859SOL     OW10261   2.883   0.443   4.661  0.6838 -0.4178  0.5477
 1859SOL    HW110262   2.836   0.521   4.688  0.5543 -0.1740 -0.3626
 1859SOL    HW210263   2.974   0.460   4.686  0.8736  0.5372 -0.6877
 1860SOL     OW10264   2.999   0.107   2.278 -0.3955 -0.5436  0.9582
 1860SOL    HW110265   3.046   0.133   2.357  0.9982  0.2667 -0.0780
 1860SOL    HW210266   3.047   0.030   2.246 -0.3398 -0.2761  0.3841
 1861SOL     OW10267   5.407   0.098   5.873 -0.3142 -0.5805 -0.3138
 1861SOL    HW110268   5.313   0.083   5.879 -0.3959  0.2657  1.2198
 1861SOL    HW210269   5.437   0.095   5.964  0.9356  0.2654 -0.6716
 1862SOL     OW10270   0.162   3.447   3.622  0.2752  0.4774 -0.0824
 1862SOL    HW110271   0.112   3.386   3.677 -0.7362  1.4151  0.0777
 1862SOL    HW210272   0.206   3.391   3.558 -0.1183 -0.4664  0.4507
 1863SOL     OW10273   9.143   2.067   0.025  0.2233  0.4111  0.0535
 1863SOL    HW110274   9.150   2.058   0.120 -0.7939 -0.2705  0.0802
 1863SOL    HW210275   9.052   2.094   0.011 -0.0829 -0.9729 -0.8047
 1864SOL     OW10276   7.325   8.523   9.873 -0.8871  0.4608  0.6189
 1864SOL    HW110277   7.383   8.573   9.816 -1.2166 -0.7306 -0.8443
 1864SOL    HW210278   7.359   8.537   9.961  0.9794  0.6186 -0.0895
 1865SOL     OW10279   9.860   1.522  10.915 -0.8008  0.4274  0.5898
 1865SOL    HW110280   9.906   1.572  10.847  0.2365  1.2888  1.8739
 1865SOL    HW210281   9.907   1.439  10.919 -0.3819  0.6644  0.7420
 1866SOL     OW10282   9.810   3.665   9.468 -0.6057  0.3539  0.1002
 1866SOL    HW110283   9.729   3.711   9.490 -0.6247  0.0769  0.6302
 1866SOL    HW210284   9.812   3.591   9.528 -0.1111  0.1881 -0.1195
 1867SOL     OW10285   7.032   2.872   3.279 -0.3023  0.0175  0.1467
 1867SOL    HW110286   7.025   2.816   3.357 -0.1396  0.4333  0.4594
 1867SOL    HW210287   6.985   2.823   3.211 -0.5642 -0.2855  0.5394
 1868SOL     OW10288   5.076   6.681   7.123 -0.1837  0.1676 -0.8296
 1868SOL    HW110289   5.053   6.742   7.193  1.2527  0.9636 -1.0200
 1868SOL    HW210290   5.143   6.727   7.072 -0.5398 -0.7573 -2.1958
 1869SOL     OW10291  10.190   1.072   4.146 -0.0715  0.5801 -0.1761
 1869SOL    HW110292  10.270   1.078   4.093  0.7102 -0.8844  0.7671
 1869SOL    HW210293  10.162   1.163   4.157  1.5499  1.1476 -0.3994
 1870SOL     OW10294   9.431  11.406   2.396 -0.4669  0.7248  0.7568
 1870SOL    HW110295   9.510  11.370   2.356 -1.0307 -0.8237  0.9648
 1870SOL    HW210296   9.458  11.432   2.484 -0.2451 -0.0069  0.9056
 1871SOL     OW10297   2.941   7.339   3.175 -0.4063  0.1075 -0.0687
 1871SOL    HW110298   2.986   7.255   3.180 -0.4887  0.1365  1.8312
 1871SOL    HW210299   2.907   7.343   3.085  1.2532 -0.9952 -0.7932
 1872SOL     OW10300  11.868   6.006   0.982 -0.3807 -0.0316 -0.1254
 1872SOL    HW110301  11.834   6.095   0.985  1.1824  0.5906  1.7105
 1872SOL    HW210302  11.911   5.999   0.897  1.9803  2.0565  0.7614
 1873SOL     OW10303   2.636   6.730   3.958 -0.1695 -0.0822  0.0559
 1873SOL    HW110304   2.570   6.797   3.941  0.7922  1.5390  2.1074
 1873SOL    HW210305   2.594   6.647   3.935 -1.8860  1.1033 -1.3046
 1874SOL     OW10306   5.426   6.284   7.579  0.3568 -0.3297  0.2528
 1874SOL    HW110307   5.440   6.277   7.673 -0.9398 -3.1342  0.3327
 1874SOL    HW210308   5.493   6.229   7.540  1.4306  1.4794 -0.5959
 1875SOL     OW10309   3.812   5.350   8.394 -0.6903 -0.3353  0.2047
 1875SOL    HW110310   3.768   5.362   8.478 -1.0308 -0.9912  0.1212
 1875SOL    HW210311   3.880   5.418   8.394 -0.4572 -0.5408  1.1614
 1876SOL     OW10312   6.744   8.628   4.193  0.8968  0.0875  0.2112
 1876SOL    HW110313   6.750   8.709   4.243  1.0372  0.1232  0.1344
 1876SOL    HW210314   6.742   8.655   4.101  0.0686  0.0567  0.2070
 1877SOL     OW10315   2.892   9.827   4.778  0.4833 -0.4435 -0.2002
 1877SOL    HW110316   2.906   9.901   4.837  1.6291  0.1122 -1.1304
 1877SOL    HW210317   2.943   9.755   4.816  0.9326 -0.1905 -0.3222
 1878SOL     OW10318   6.768   6.782  10.279 -0.0844  0.0900  0.2998
 1878SOL    HW110319   6.793   6.784  10.372 -0.4635  0.8022  0.3967
 1878SOL    HW210320   6.791   6.870  10.247 -0.1745 -0.0774 -0.2241
 1879SOL     OW10321  10.765   6.795   2.956  0.0987 -0.0124  0.3753
 1879SOL    HW110322  10.719   6.715   2.978 -1.5524  0.5228 -0.9259
 1879SOL    HW210323  10.697   6.856   2.927  1.5289  1.0215 -1.0502
 1880SOL     OW10324   4.689   5.567   4.322  0.1544  0.0108 -0.0101
 1880SOL    HW110325   4.673   5.661   4.319 -3.1245 -0.1446  3.7936
 1880SOL    HW210326   4.612   5.529   4.281 -0.4792 -0.9097  1.9016
 1881SOL     OW10327   5.546   9.179   0.988  0.4278 -0.6848  0.1896
 1881SOL    HW110328   5.494   9.243   1.037  1.3200  0.1653  0.0327
 1881SOL    HW210329   5.482   9.134   0.933 -0.4796 -1.1345  1.5463
 1882SOL     OW10330   8.682   4.167   6.912 -0.6457 -0.1399 -0.2625
 1882SOL    HW110331   8.696   4.073   6.911  0.2937 -0.0024 -1.1911
 1882SOL    HW210332   8.605   4.181   6.856  1.4278 -0.0774 -3.3440
 1883SOL     OW10333   8.292   0.493   9.621  0.2432  0.5671 -0.4968
 1883SOL    HW110334   8.365   0.552   9.602 -0.6159  2.0854  0.7462
 1883SOL    HW210335   8.237   0.541   9.682 -2.4269 -0.0532 -2.2690
 1884SOL     OW10336   3.037   8.685  10.518  0.0730 -0.4161 -0.0577
 1884SOL    HW110337   3.095   8.725  10.454 -1.3556 -0.6297 -1.5698
 1884SOL    HW210338   2.960   8.658  10.467 -0.5752 -1.7678  1.5334
 1885SOL     OW10339   2.639   5.999   8.129 -0.1644  0.4499 -0.4885
 1885SOL    HW110340   2.673   5.999   8.040  0.0670  0.5134 -0.4021
 1885SOL    HW210341   2.561   6.053   8.126  0.0377  0.7368 -0.5799
 1886SOL     OW10342   2.081   0.598  10.846 -0.5136 -0.6307 -0.6583
 1886SOL    HW110343   2.015   0.537  10.814  0.1930 -1.7611 -0.0071
 1886SOL    HW210344   2.035   0.647  10.915 -0.3105 -2.3980  0.7969
 1887SOL     OW10345   0.051   9.878   0.115  0.3738 -0.3298  0.2127
 1887SOL    HW110346  -0.015   9.948   0.118 -1.1300 -1.6965  0.6345
 1887SOL    HW210347   0.103   9.891   0.194  0.4413  0.6172  0.0220
 1888SOL     OW10348   9.038   7.176  11.229  0.6648  0.1325 -0.5274
 1888SOL    HW110349   9.078   7.260  11.253  2.2227 -0.3495 -1.2849
 1888SOL    HW210350   9.069   7.115  11.296  1.8035 -0.3869 -1.4916
 1889SOL     OW10351   6.053   8.797  11.845  0.2930 -0.0548  0.1334
 1889SOL    HW110352   5.982   8.746  11.805  0.1526 -0.7007  1.1696
 1889SOL    HW210353   6.115   8.731  11.876  0.7586  0.4644  0.3185
 1890SOL     OW10354  11.106  11.782   9.078  0.0501 -0.1479  0.1386
 1890SOL    HW110355  11.174  11.848   9.067 -0.4417  0.1501 -1.4523
 1890SOL    HW210356  11.153  11.699   9.082  0.6257 -0.7295 -6.7912
 1891SOL     OW10357   8.225   7.944  11.388  0.2316  0.0250 -0.0416
 1891SOL    HW110358   8.165   7.874  11.415 -0.5145 -0.4557 -2.6700
 1891SOL    HW210359   8.312   7.906  11.397  0.1210  0.1898  2.3118
 1892SOL     OW10360   6.839   8.050   7.395  0.6575  0.0482 -0.1826
 1892SOL    HW110361   6.895   8.025   7.322  0.6994  0.3989 -0.2726
 1892SOL    HW210362   6.880   8.011   7.472 -0.3254 -1.8190 -0.5440
 1893SOL     OW10363   2.453  11.524   7.588 -0.3750 -0.0845  0.0289
 1893SOL    HW110364   2.406  11.607   7.586 -0.1165  0.0539 -1.1386
 1893SOL    HW210365   2.447  11.491   7.498 -2.5356 -2.5153  0.9203
 1894SOL     OW10366   3.658   5.486  10.232  0.0247  0.7626 -0.2953
 1894SOL    HW110367   3.683   5.404  10.274  0.4798  0.5912 -0.8819
 1894SOL    HW210368   3.563   5.483  10.227 -0.0506  0.8567  0.8392
 1895SOL     OW10369   0.417   6.392   0.367 -0.4143  0.0715  0.6746
 1895SOL    HW110370   0.484   6.347   0.316  1.1342 -1.3017  3.6438
 1895SOL    HW210371   0.433   6.485   0.349  0.5338 -0.3243 -0.7157
 1896SOL     OW10372   1.109   4.141   9.200  0.1019 -0.2673 -0.4052
 1896SOL    HW110373   1.118   4.047   9.216 -0.8616 -0.2276  0.4562
 1896SOL    HW210374   1.199   4.171   9.186  0.3601 -1.4124 -1.3277
 1897SOL     OW10375  11.883   1.020   0.717 -0.2412  0.0642 -0.0413
 1897SOL    HW110376  11.959   1.072   0.740 -1.4572  1.2187  1.6166
 1897SOL    HW210377  11.908   0.975   0.636  2.6853 -0.7245  1.1679
 1898SOL     OW10378   3.297   5.299   6.490 -0.4998  0.0837  0.1737
 1898SOL    HW110379   3.253   5.259   6.565  0.2361  1.8512  1.6209
 1898SOL    HW210380   3.230   5.302   6.422 -0.2676 -4.7479 -0.6091
 1899SOL     OW10381   7.163   2.848   5.342  0.7820 -0.6031 -0.6232
 1899SOL    HW110382   7.181   2.765   5.386  1.1772  0.1048  0.5881
 1899SOL    HW210383   7.221   2.911   5.384  0.4618  0.3071 -1.5011
 1900SOL     OW10384  10.716   1.596   0.066 -0.0022  0.7325 -0.1160
 1900SOL    HW110385  10.735   1.532  -0.003  2.2430 -0.2631  1.3026
 1900SOL    HW210386  10.668   1.548   0.132 -0.9115  1.3208 -0.3299
 1901SOL     OW10387  11.617  11.092   8.826  0.4544 -0.2570  0.1001
 1901SOL    HW110388  11.578  11.124   8.908 -1.4327  3.7073 -2.0157
 1901SOL    HW210389  11.542  11.079   8.768  1.8380  0.9312 -2.0986
 1902SOL     OW10390   3.702   3.450   3.568  0.4314 -0.1786  0.4091
 1902SOL    HW110391   3.772   3.394   3.535 -0.0277  0.6964 -2.2984
 1902SOL    HW210392   3.742   3.537   3.575 -0.2860  0.2874 -0.9699
 1903SOL     OW10393  11.998  10.847   5.937 -0.7250 -0.1923  0.5063
 1903SOL    HW110394  11.943  10.774   5.910  0.1576 -0.9962  0.8160
 1903SOL    HW210395  11.954  10.884   6.013 -1.9728  0.5842 -0.5430
 1904SOL     OW10396   8.724   5.640   0.745 -0.1506 -0.2359 -0.0000
 1904SOL    HW110397   8.725   5.553   0.705 -0.6751 -0.7352  1.0269
 1904SOL    HW210398   8.631   5.659   0.759 -0.2514  1.6399 -2.5473
 1905SOL     OW10399   8.894   3.195   7.225 -0.0136 -0.0717 -0.3083
 1905SOL    HW110400   8.970   3.141   7.207  1.1247  1.3905 -0.0882
 1905SOL    HW210401   8.819   3.142   7.196  0.8795 -2.3014  1.1588
 1906SOL     OW10402   1.488   6.628   0.669 -0.3358  0.2614  0.2118
 1906SOL    HW110403   1.432   6.559   0.706 -2.8213  0.6118 -2.5392
 1906SOL    HW210404   1.562   6.581   0.631 -1.1108 -0.7514 -0.0961
 1907SOL     OW10405   8.205   2.228   7.870 -0.0928 -0.5793  0.2016
 1907SOL    HW110406   8.219   2.284   7.946  0.7270 -1.4449  0.7041
 1907SOL    HW210407   8.204   2.289   7.796  1.4379  0.0617  0.6649
 1908SOL     OW10408   4.819   4.729   2.492 -0.3445 -0.3016 -0.2119
 1908SOL    HW110409   4.891   4.703   2.550  0.5807  2.5663  0.0799
 1908SOL    HW210410   4.838   4.686   2.409  0.3915 -1.4720  0.5352
 1909SOL     OW10411   4.917   5.127   5.330  0.2136  0.5032 -0.2921
 1909SOL    HW110412   4.955   5.040   5.315 -1.7629 -0.3266 -0.7267
 1909SOL    HW210413   4.992   5.187   5.324  1.6946 -1.1729  0.3734
 1910SOL     OW10414   8.262   2.555   5.446  0.4742 -0.4883  0.0579
 1910SOL    HW110415   8.251   2.464   5.420 -1.7031 -0.2804  0.0349
 1910SOL    HW210416   8.229   2.605   5.371 -0.7491  0.2274  1.0233
 1911SOL     OW10417   5.460   6.935   0.590  0.3637 -0.1542  0.0971
 1911SOL    HW110418   5.519   7.001   0.628  0.5602  0.1456 -0.7073
 1911SOL    HW210419   5.514   6.890   0.525  0.1783 -1.0041  0.5154
 1912SOL     OW10420   2.979   6.444   3.167  0.0728  0.2754  0.0938
 1912SOL    HW110421   3.053   6.489   3.127 -0.0268 -1.1177 -1.7999
 1912SOL    HW210422   2.975   6.360   3.121 -2.6015  0.2630  0.2278
 1913SOL     OW10423   2.717  10.906   3.116  0.4050  0.0425 -0.9500
 1913SOL    HW110424   2.756  10.990   3.138 -1.3752  0.1743  2.2740
 1913SOL    HW210425   2.767  10.842   3.167 -0.1530 -0.4453 -0.9959
 1914SOL     OW10426   5.143   6.093   8.081 -0.0065 -0.7526  0.4229
 1914SOL    HW110427   5.184   6.116   7.997  0.6744 -1.2919  0.5966
 1914SOL    HW210428   5.120   6.000   8.071  0.8616 -1.0519  1.1383
 1915SOL     OW10429  11.918   2.119   2.338  0.2955  0.5993  0.3792
 1915SOL    HW110430  11.883   2.032   2.359 -1.7477  1.2418 -0.1212
 1915SOL    HW210431  11.976   2.140   2.412  0.6238 -1.0482  0.6412
 1916SOL     OW10432   5.748   7.595   5.732 -0.4400  0.1146  0.5894
 1916SOL    HW110433   5.825   7.636   5.693  1.1909  0.1231  3.5543
 1916SOL    HW210434   5.686   7.667   5.745 -0.6190  0.2686 -0.9676
 1917SOL     OW10435   0.274  10.770   2.271 -0.2216  0.1395 -0.3060
 1917SOL    HW110436   0.206  10.729   2.217 -1.0126  1.7497 -0.5846
 1917SOL    HW210437   0.231  10.845   2.311  1.4784  1.4174 -0.7643
 1918SOL     OW10438   9.140   3.765   2.973 -0.5235  0.2570 -0.3523
 1918SOL    HW110439   9.165   3.776   3.065  1.4174 -0.4987 -0.7522
 1918SOL    HW210440   9.104   3.850   2.947 -1.2715  0.4310  1.1285
 1919SOL     OW10441   1.125  11.900   8.262 -0.0909 -0.0690 -0.1520
 1919SOL    HW110442   1.090  11.973   8.212 -0.5558 -0.0728  0.1687
 1919SOL    HW210443   1.147  11.938   8.348  0.7991 -0.0373 -0.3854
 1920SOL     OW10444   6.986  10.894   1.762  0.4154 -0.4059  0.5470
 1920SOL    HW110445   6.897  10.929   1.759  0.2863 -0.7893 -0.4211
 1920SOL    HW210446   7.012  10.887   1.670  1.8391  0.6848  0.8397
 1921SOL     OW10447   0.201   1.797   2.095  0.3361  0.3259 -0.1605
 1921SOL    HW110448   0.213   1.763   2.184  0.6510  0.1899 -0.2541
 1921SOL    HW210449   0.171   1.886   2.108 -3.0998 -0.7336  0.1451
 1922SOL     OW10450   3.667   7.327   0.523  0.8101  0.2017  0.3959
 1922SOL    HW110451   3.638   7.315   0.432  0.4819 -1.6501  0.7025
 1922SOL    HW210452   3.597   7.287   0.575  2.0923 -0.9058  1.3302
 1923SOL     OW10453   4.890   5.081   4.619 -0.3828 -0.1879 -0.3328
 1923SOL    HW110454   4.904   4.993   4.654 -0.4145 -0.0410  0.0580
 1923SOL    HW210455   4.957   5.091   4.551 -0.4616 -0.5596 -0.4666
 1924SOL     OW10456   7.346   7.147   1.893 -0.3745  0.5622 -0.7522
 1924SOL    HW110457   7.383   7.172   1.978 -0.1471  1.6802 -1.1725
 1924SOL    HW210458   7.347   7.227   1.841 -1.1065  0.0367 -1.6074
 1925SOL     OW10459   7.959   8.645   8.078  0.2604 -0.1577 -0.5340
 1925SOL    HW110460   8.024   8.707   8.047  1.0872 -1.7270 -2.1900
 1925SOL    HW210461   7.924   8.683   8.158  2.6219  1.1197 -0.0461
 1926SOL     OW10462  10.158   4.509   7.144 -0.2003 -0.0235  0.4701
 1926SOL    HW110463  10.121   4.428   7.109 -0.3198 -0.2258  1.0704
 1926SOL    HW210464  10.128   4.577   7.083  2.2542 -0.7606 -1.7584
 1927SOL     OW10465   9.923   1.925   7.743 -0.4102 -0.1861  0.1054
 1927SOL    HW110466  10.018   1.916   7.741 -0.2277  1.4535  0.1542
 1927SOL    HW210467   9.900   1.962   7.658 -1.2062 -2.0109 -0.5170
 1928SOL     OW10468   8.138   4.105   1.104 -0.6444  0.4646  0.0081
 1928SOL    HW110469   8.084   4.144   1.173  0.0979  0.2176  0.7471
 1928SOL    HW210470   8.224   4.093   1.145 -0.4604 -0.6091 -0.6450
 1929SOL     OW10471   0.966   5.664   4.403  0.4867  0.3073  0.0097
 1929SOL    HW110472   0.923   5.635   4.483 -2.2140 -0.8803 -1.7494
 1929SOL    HW210473   1.057   5.637   4.414 -0.3088 -1.9684  1.7094
 1930SOL     OW10474   0.180   8.400  11.644 -0.0906  0.2793 -0.5216
 1930SOL    HW110475   0.125   8.387  11.567  0.5533  1.0824 -1.1313
 1930SOL    HW210476   0.264   8.359  11.622  0.2688  0.9628 -0.4606
 1931SOL     OW10477  10.885   0.450   0.727 -0.1801  0.0445  0.3617
 1931SOL    HW110478  10.898   0.355   0.732  1.9471  0.3237  1.1250
 1931SOL    HW210479  10.904   0.472   0.636 -0.4978 -0.2271  0.2269
 1932SOL     OW10480  11.092   7.742   8.223  0.4099 -0.3401 -0.4077
 1932SOL    HW110481  11.166   7.736   8.283  1.5079  1.4411 -1.4890
 1932SOL    HW210482  11.125   7.706   8.141 -0.9694 -2.4507 -0.1061
 1933SOL     OW10483   2.159   8.173   9.446  0.1133 -0.0046  0.2928
 1933SOL    HW110484   2.185   8.081   9.435 -1.9142 -0.4932 -0.9736
 1933SOL    HW210485   2.110   8.193   9.367 -2.2916  1.1554  1.9634
 1934SOL     OW10486   5.979  11.869   0.295  0.5391  0.4122  0.5440
 1934SOL    HW110487   6.018  11.944   0.340 -1.1317  0.4650  2.0345
 1934SOL    HW210488   5.944  11.815   0.365 -0.3697 -0.5723 -0.6247
 1935SOL     OW10489  11.978   9.341   9.516 -0.0594 -0.1619 -0.1785
 1935SOL    HW110490  11.933   9.335   9.431 -1.6102 -0.3150  0.6181
 1935SOL    HW210491  11.943   9.420   9.556 -0.1355 -0.6527  0.7534
 1936SOL     OW10492   6.083   3.095   3.241 -0.2923 -0.0844  0.2406
 1936SOL    HW110493   6.138   3.017   3.237 -0.2802 -0.0161 -1.2130
 1936SOL    HW210494   6.101   3.142   3.160 -2.6910 -0.1808 -0.4231
 1937SOL     OW10495   6.017  10.078   2.057 -0.1014  0.0498  0.2344
 1937SOL    HW110496   5.978  10.103   1.973  1.3040  0.0472 -0.4543
 1937SOL    HW210497   6.049   9.989   2.042 -1.1186 -0.5163  1.2554
 1938SOL     OW10498   6.557   1.704   0.717  0.8373  0.0889  0.8217
 1938SOL    HW110499   6.472   1.728   0.680  0.6296 -1.7635  0.0021
 1938SOL    HW210500   6.616   1.700   0.642  1.0997 -0.8631  1.0663
 1939SOL     OW10501   1.416  11.684   8.238  0.1478 -0.1236 -0.2160
 1939SOL    HW110502   1.385  11.657   8.324 -0.3811  1.7008  0.2017
 1939SOL    HW210503   1.347  11.657   8.177 -0.6622  0.7919  0.2670
 1940SOL     OW10504   7.158   9.242   0.232 -0.0839 -0.3322  0.1449
 1940SOL    HW110505   7.074   9.208   0.202  0.7899 -1.0257 -1.6329
 1940SOL    HW210506   7.144   9.336   0.239 -0.6956 -0.2799 -1.3323
 1941SOL     OW10507   5.177   6.867   2.662 -0.1334 -0.6503 -0.2363
 1941SOL    HW110508   5.095   6.874   2.612  0.3031  0.2380 -0.8546
 1941SOL    HW210509   5.152   6.886   2.752 -0.8088 -1.5790 -0.2037
 1942SOL     OW10510   6.169   3.051   7.188  0.0914 -0.3221  0.0914
 1942SOL    HW110511   6.174   2.966   7.231 -0.4406 -0.4050 -0.0087
 1942SOL    HW210512   6.077   3.076   7.192  0.1322 -0.0476 -0.4471
 1943SOL     OW10513   7.234   6.306   2.336 -0.0970 -0.1129 -0.2269
 1943SOL    HW110514   7.175   6.238   2.368 -2.1273  1.5397 -0.1764
 1943SOL    HW210515   7.317   6.289   2.380 -1.1739 -1.2655  1.4863
 1944SOL     OW10516   3.830  11.644  11.853  0.2321 -0.0798 -0.2320
 1944SOL    HW110517   3.856  11.636  11.761  0.6133  1.2361 -0.2624
 1944SOL    HW210518   3.904  11.689  11.895 -0.4830  0.4817  0.4459
 1945SOL     OW10519   6.686   4.136   9.062 -0.7124  0.1192 -0.0447
 1945SOL    HW110520   6.743   4.158   8.988  0.8754 -0.3196  0.9966
 1945SOL    HW210521   6.739   4.078   9.116 -2.4953 -1.0374  0.5385
 1946SOL     OW10522   3.175   3.283  11.545  0.7697 -0.1882  0.0940
 1946SOL    HW110523   3.215   3.199  11.521 -1.2101 -1.1424 -0.0457
 1946SOL    HW210524   3.103   3.259  11.604 -1.7770  1.0506 -2.3026
 1947SOL     OW10525   7.273   6.171   3.268  0.0713  0.1961 -0.9890
 1947SOL    HW110526   7.309   6.190   3.355  1.4075  0.3956 -1.5613
 1947SOL    HW210527   7.345   6.190   3.208  0.1775 -2.8028 -1.9378
 1948SOL     OW10528   2.123   5.361   8.660 -0.1294  0.1885  0.2380
 1948SOL    HW110529   2.028   5.376   8.665 -0.7897 -3.0963  0.0541
 1948SOL    HW210530   2.159   5.410   8.733 -2.2901 -0.3353  1.7653
 1949SOL     OW10531   8.091   2.377  10.685 -0.1322 -0.0772  0.2250
 1949SOL    HW110532   8.018   2.338  10.637  1.1675 -0.1517 -1.8133
 1949SOL    HW210533   8.168   2.329  10.655  0.8503  0.3582  1.9158
 1950SOL     OW10534   4.952   9.522   3.785 -0.0992 -0.0044 -0.1251
 1950SOL    HW110535   4.971   9.568   3.704 -1.0158 -0.2157 -0.4774
 1950SOL    HW210536   4.908   9.587   3.840 -0.2511 -0.0968 -0.1354
 1951SOL     OW10537   6.320   9.748   0.782  0.2638  0.0315  0.0566
 1951SOL    HW110538   6.293   9.690   0.710  0.2905 -0.4704  0.4418
 1951SOL    HW210539   6.288   9.704   0.861  0.2351  0.5756  0.3541
 1952SOL     OW10540   2.114   3.881   2.753  0.1364  0.6337  0.0160
 1952SOL    HW110541   2.038   3.844   2.708 -1.4351  1.6736  1.6812
 1952SOL    HW210542   2.114   3.840   2.839  1.0257  1.2022  0.3079
 1953SOL     OW10543   6.263   6.747   8.351  0.2880 -0.5794  0.2954
 1953SOL    HW110544   6.172   6.728   8.374  0.2013 -1.0149 -0.3931
 1953SOL    HW210545   6.287   6.678   8.290  0.5748  0.4526 -0.7839
 1954SOL     OW10546   4.540   3.995   2.948 -0.7028  0.2851  0.6007
 1954SOL    HW110547   4.581   4.040   3.023 -0.4409 -1.6734  1.7034
 1954SOL    HW210548   4.607   3.998   2.880  0.2984 -0.6044  1.5112
 1955SOL     OW10549   2.197   9.985   3.948 -0.4796 -0.0660 -1.2337
 1955SOL    HW110550   2.139  10.007   4.021  0.4935 -1.3326 -0.0282
 1955SOL    HW210551   2.238  10.068   3.924  0.5782  0.1007  0.9306
 1956SOL     OW10552   7.845   1.650  11.062  0.3064  0.0536 -0.0814
 1956SOL    HW110553   7.858   1.576  11.120 -0.6034  0.5628  0.7989
 1956SOL    HW210554   7.753   1.673  11.071  0.6769  1.6360  0.1029
 1957SOL     OW10555   3.590  11.427   5.194  0.2104 -0.7443  0.6443
 1957SOL    HW110556   3.524  11.489   5.164  0.1654 -0.8937  0.4346
 1957SOL    HW210557   3.542  11.368   5.252  0.4278 -0.0668  1.5428
 1958SOL     OW10558   7.138   4.539   5.897 -0.2688  0.0427  0.3646
 1958SOL    HW110559   7.101   4.593   5.966  1.6150 -0.2304  1.6492
 1958SOL    HW210560   7.088   4.458   5.900 -1.8132  0.9284 -0.2728
 1959SOL     OW10561   8.502   4.739   4.966  0.7128  0.2106 -0.0274
 1959SOL    HW110562   8.555   4.754   4.888  1.3480  2.4394  0.7844
 1959SOL    HW210563   8.542   4.662   5.008  1.8212  0.4214 -0.6652
 1960SOL     OW10564   1.757   7.052  10.218  0.3361 -0.2369 -0.2205
 1960SOL    HW110565   1.695   7.011  10.277  0.1503 -1.4336 -1.2069
 1960SOL    HW210566   1.822   7.093  10.275  0.5726 -1.9655  0.8264
 1961SOL     OW10567  10.838   6.318   3.615  0.7006 -0.4104 -0.6685
 1961SOL    HW110568  10.827   6.413   3.617 -1.6906 -0.6256 -0.7088
 1961SOL    HW210569  10.900   6.300   3.685  0.9192  1.1591 -0.4219
 1962SOL     OW10570   3.933  10.338   9.284 -0.2402 -0.4738  0.2865
 1962SOL    HW110571   4.024  10.329   9.312 -0.1122  0.5429  0.2539
 1962SOL    HW210572   3.882  10.320   9.362  0.0424  0.0815  0.6098
 1963SOL     OW10573   3.688   8.892   3.415  0.2458 -0.2324  0.1281
 1963SOL    HW110574   3.709   8.982   3.441  0.5683  0.0308 -0.9647
 1963SOL    HW210575   3.614   8.867   3.469 -1.2352  1.4771 -1.0254
 1964SOL     OW10576  10.241   0.951  10.523  0.2656 -0.1696 -0.2872
 1964SOL    HW110577  10.259   0.859  10.503  2.0371  0.4018 -1.6023
 1964SOL    HW210578  10.210   0.989  10.441  1.2697  0.7882 -0.2534
 1965SOL     OW10579  10.431  11.718  11.448 -0.0285  0.5418  0.2027
 1965SOL    HW110580  10.517  11.755  11.429 -0.0434  0.3096 -0.3260
 1965SOL    HW210581  10.446  11.623  11.452  0.1232  0.6199  2.1497
 1966SOL     OW10582   6.765   3.077   8.934  0.0204 -0.2072 -0.0183
 1966SOL    HW110583   6.702   3.117   8.994  1.8012 -0.8911  2.5086
 1966SOL    HW210584   6.722   2.996   8.905 -1.4698  0.8662 -0.9200
 1967SOL     OW10585   6.348  11.235   8.724  0.5594  0.2161  0.0723
 1967SOL    HW110586   6.396  11.300   8.775 -0.6744 -0.0385  1.6022
 1967SOL    HW210587   6.417  11.183   8.681  1.6507  0.3337  1.6059
 1968SOL     OW10588   7.717   9.674   2.528  0.0424  0.0058  0.1911
 1968SOL    HW110589   7.690   9.741   2.591 -1.5444 -1.4660  1.1614
 1968SOL    HW210590   7.811   9.688   2.517 -0.4191  3.1909 -0.6640
 1969SOL     OW10591   5.872  11.284   7.776  0.6290  0.4101 -0.3063
 1969SOL    HW110592   5.935  11.229   7.822  1.2954 -1.0992 -2.8052
 1969SOL    HW210593   5.896  11.275   7.683 -0.7209  3.1006 -1.0064
 1970SOL     OW10594   5.687   9.538   4.232 -0.4969 -0.1111  0.0025
 1970SOL    HW110595   5.670   9.498   4.317  1.3511 -0.3255  0.3223
 1970SOL    HW210596   5.726   9.623   4.253 -0.1115 -0.1252 -0.6361
 1971SOL     OW10597   1.111   5.863   2.194 -0.1082 -0.2858  0.3681
 1971SOL    HW110598   1.135   5.923   2.265 -0.5445  0.3778 -0.0372
 1971SOL    HW210599   1.133   5.776   2.228  3.1613  0.2375 -0.0883
 1972SOL     OW10600   8.473   2.344   7.958  0.6873  0.2003  0.0900
 1972SOL    HW110601   8.456   2.249   7.959  0.8132  0.1262 -1.7369
 1972SOL    HW210602   8.483   2.367   8.050 -1.0958 -1.2489  0.7201
 1973SOL     OW10603   3.887   1.057   6.715  0.2392  0.1043  0.0249
 1973SOL    HW110604   3.806   1.013   6.688 -1.0234  1.5610  1.2526
 1973SOL    HW210605   3.951   1.033   6.647 -1.2432 -0.9684 -1.0611
 1974SOL     OW10606   5.913   6.641   5.328 -0.0382 -0.0606  0.0806
 1974SOL    HW110607   5.827   6.599   5.332 -0.6796  0.7878 -2.6594
 1974SOL    HW210608   5.904   6.720   5.381 -1.8037  1.2549 -2.0065
 1975SOL     OW10609  10.511  10.943   1.660  0.8859 -0.3156  0.1273
 1975SOL    HW110610  10.505  10.927   1.754 -1.3750  2.6063  0.6124
 1975SOL    HW210611  10.475  10.864   1.620  1.6096 -1.4889  1.7092
 1976SOL     OW10612   7.529   8.048   0.408  0.1156  0.3530  0.0698
 1976SOL    HW110613   7.435   8.039   0.391  0.6126 -1.6674 -2.0710
 1976SOL    HW210614   7.537   8.035   0.503 -1.5758 -1.9393 -0.0031
 1977SOL     OW10615  10.852   5.358   6.775  0.6431  0.2778  0.1133
 1977SOL    HW110616  10.775   5.354   6.718  1.1100  0.6462 -0.5592
 1977SOL    HW210617  10.820   5.398   6.855 -0.0982 -0.5427  0.2457
 1978SOL     OW10618   5.970   3.414   9.626  0.4812 -0.5993  0.0563
 1978SOL    HW110619   6.056   3.372   9.617  0.2021 -1.0760 -0.4136
 1978SOL    HW210620   5.907   3.347   9.599  0.0384  0.1592 -0.8545
 1979SOL     OW10621   6.554   4.286   4.284  0.7552 -0.4649  0.1182
 1979SOL    HW110622   6.484   4.223   4.304  1.5732 -1.3781  0.1276
 1979SOL    HW210623   6.629   4.232   4.260  1.8121  0.4740  1.2318
 1980SOL     OW10624  11.632   9.499   8.644  0.0535 -0.0786 -0.0138
 1980SOL    HW110625  11.687   9.435   8.690 -0.1183 -0.1404  0.1058
 1980SOL    HW210626  11.624   9.572   8.705  0.7475  0.3205 -0.3835
 1981SOL     OW10627   1.249   7.322   6.658 -0.1570  0.6722  0.1938
 1981SOL    HW110628   1.188   7.367   6.600  0.2061  2.1792  0.9242
 1981SOL    HW210629   1.214   7.234   6.666  0.2818  0.0761 -3.0353
 1982SOL     OW10630   2.485   4.080  10.363 -0.2520 -0.1622  0.2040
 1982SOL    HW110631   2.546   4.059  10.292 -2.5556  0.0257 -1.9551
 1982SOL    HW210632   2.500   4.173  10.380 -0.0913 -0.0647 -0.4505
 1983SOL     OW10633  10.805  10.266   7.946  0.1134 -0.2542  0.3608
 1983SOL    HW110634  10.784  10.311   7.863  1.1061 -1.9551 -0.8782
 1983SOL    HW210635  10.721  10.230   7.975 -0.3320  0.7402  0.3402
 1984SOL     OW10636   6.990  10.576   0.986 -0.3484 -0.0706  0.1181
 1984SOL    HW110637   7.051  10.530   0.930 -0.0110  1.0408 -0.4585
 1984SOL    HW210638   6.918  10.602   0.928 -0.8221 -0.3885  0.5556
 1985SOL     OW10639   1.181  11.986   6.364  0.0318 -0.2115  0.0203
 1985SOL    HW110640   1.174  12.017   6.274 -1.9470 -0.6835 -0.0424
 1985SOL    HW210641   1.187  12.065   6.417 -1.0912  0.1811 -0.4041
 1986SOL     OW10642   4.163  10.910   4.417 -0.4758 -0.2626  0.1293
 1986SOL    HW110643   4.131  10.905   4.327 -0.5859  1.2032  0.0783
 1986SOL    HW210644   4.122  10.835   4.460  1.0626 -2.1603 -1.4570
 1987SOL     OW10645   0.376   7.169  10.006  0.0661  0.1961  0.1857
 1987SOL    HW110646   0.319   7.094   9.989  2.3689 -1.8022  0.7544
 1987SOL    HW210647   0.442   7.165   9.937  0.5839  1.3630  0.5803
 1988SOL     OW10648   3.785   2.445   7.294  0.1633  0.2874  0.1528
 1988SOL    HW110649   3.830   2.512   7.346  1.6735  0.0349 -0.7505
 1988SOL    HW210650   3.754   2.492   7.216  0.6758  0.0677 -0.1881
 1989SOL     OW10651   4.203   2.066   4.540  0.0981 -0.5905 -0.5023
 1989SOL    HW110652   4.188   2.160   4.545 -2.1395 -0.9077 -0.4255
 1989SOL    HW210653   4.137   2.027   4.598  0.2975 -2.2691 -1.3240
 1990SOL     OW10654   3.410   0.353   6.045 -0.3535 -0.5454 -0.1968
 1990SOL    HW110655   3.429   0.407   6.122  1.0429  1.3866 -1.7824
 1990SOL    HW210656   3.316   0.337   6.050 -0.2647 -0.6102  1.9721
 1991SOL     OW10657   5.392  11.211   6.556 -0.1144  0.3417  0.0005
 1991SOL    HW110658   5.483  11.183   6.568  0.0491  0.1221 -1.5911
 1991SOL    HW210659   5.346  11.132   6.530 -0.3262  0.8652 -1.2521
 1992SOL     OW10660   3.419   4.032   3.414  0.0794 -0.3251  0.1603
 1992SOL    HW110661   3.498   4.078   3.385 -1.1599  1.4005 -0.7059
 1992SOL    HW210662   3.419   3.950   3.365  0.5812  0.3245 -0.9536
 1993SOL     OW10663   2.061   6.708   4.732 -0.4029  0.1966  0.4654
 1993SOL    HW110664   2.051   6.614   4.723  0.1951  0.1464  0.2770
 1993SOL    HW210665   2.155   6.721   4.745 -0.6425  0.6450  1.9651
 1994SOL     OW10666   1.797   9.814   3.577 -0.7679 -0.5782  0.1655
 1994SOL    HW110667   1.857   9.847   3.511 -1.1893  1.3347  0.6830
 1994SOL    HW210668   1.757   9.737   3.536 -0.2880 -0.0319 -1.4186
 1995SOL     OW10669   2.072   8.401   7.328 -0.7641  0.0276  0.4421
 1995SOL    HW110670   2.129   8.460   7.377 -0.9920  0.8098 -0.2070
 1995SOL    HW210671   2.045   8.452   7.252 -0.0162 -1.3190 -0.7786
 1996SOL     OW10672   0.723   6.766  11.328  0.5965 -0.7146  0.0504
 1996SOL    HW110673   0.804   6.811  11.353 -1.3840  3.2598 -0.0579
 1996SOL    HW210674   0.679   6.747  11.411 -0.0196  0.5488  0.0285
 1997SOL     OW10675   2.911   3.752   8.169  0.0404  0.6657 -0.2573
 1997SOL    HW110676   2.854   3.799   8.230 -1.3147  0.2881 -1.2016
 1997SOL    HW210677   2.886   3.784   8.082 -0.4277 -1.2460 -0.8672
 1998SOL     OW10678   6.481   4.932   6.410  0.2553  0.0872 -0.5353
 1998SOL    HW110679   6.493   4.837   6.414 -1.8977 -0.2104  0.6531
 1998SOL    HW210680   6.570   4.968   6.415  1.1227 -1.8439 -1.1397
 1999SOL     OW10681   3.233   3.982   1.335  0.1677 -0.3222 -0.3668
 1999SOL    HW110682   3.150   3.968   1.382  1.3280  1.5765  2.5523
 1999SOL    HW210683   3.273   3.895   1.331 -0.8737 -0.8663  0.4465
 2000SOL     OW10684  11.141   3.531   3.338 -0.1037 -0.7664  0.8413
 2000SOL    HW110685  11.105   3.619   3.341  0.6868 -0.3357 -0.8226
 2000SOL    HW210686  11.139   3.508   3.245  2.6227 -1.2368  0.8080
 2001SOL     OW10687   0.065   4.471   3.621 -0.2065 -0.0393  0.0505
 2001SOL    HW110688   0.037   4.404   3.558  1.0455 -1.7836  1.2659
 2001SOL    HW210689  -0.015   4.496   3.667 -0.8240 -0.0905 -0.9608
 2002SOL     OW10690   4.475  10.186   7.489 -0.1625 -0.2265  0.0789
 2002SOL    HW110691   4.549  10.231   7.447  2.7615 -2.6270  2.2242
 2002SOL    HW210692   4.447  10.246   7.558  1.8995 -0.4042  1.1739
 2003SOL     OW10693   3.181   0.984   9.908 -0.5471  0.1405  0.7220
 2003SOL    HW110694   3.131   0.933   9.972 -0.4893  0.5465  1.0935
 2003SOL    HW210695   3.171   0.936   9.826  0.6487 -1.2391  1.3480
 2004SOL     OW10696   4.359   4.325  10.029  0.2005  0.4076  0.7959
 2004SOL    HW110697   4.385   4.319  10.121 -1.3868  1.0636  1.3282
 2004SOL    HW210698   4.303   4.248  10.015 -1.9122  1.7680  1.2575
 2005SOL     OW10699   9.932  10.743   4.005 -0.4565 -0.1735  0.0442
 2005SOL    HW110700   9.957  10.835   3.997 -1.8636  0.3283  0.9936
 2005SOL    HW210701   9.894  10.721   3.920 -1.5248  0.6206  0.2830
 2006SOL     OW10702   5.069   6.149   4.827  0.4058  0.1340  0.0039
 2006SOL    HW110703   5.072   6.058   4.799  0.4445 -0.3352  1.4590
 2006SOL    HW210704   4.977   6.165   4.850  0.1433  0.8627 -1.4610
 2007SOL     OW10705  10.247   4.908  10.717 -0.1188  0.1369  0.3618
 2007SOL    HW110706  10.212   4.824  10.748  2.1866 -0.9323  0.2909
 2007SOL    HW210707  10.266   4.957  10.796  1.1416 -0.5880  0.5381
 2008SOL     OW10708   9.748   5.462  11.160 -0.3889 -0.3530  0.1548
 2008SOL    HW110709   9.786   5.381  11.124 -0.2155  0.7882 -2.3943
 2008SOL    HW210710   9.773   5.530  11.098 -2.1113  1.3767  1.2543
 2009SOL     OW10711   4.240  11.780   5.329 -0.1983 -0.2633  0.3577
 2009SOL    HW110712   4.260  11.764   5.237 -1.3129 -0.2810  0.1132
 2009SOL    HW210713   4.293  11.716   5.376  0.1287 -0.4749 -0.2838
 2010SOL     OW10714  11.951   8.260   6.163  0.5945 -0.5497  0.2721
 2010SOL    HW110715  12.021   8.305   6.116  1.7304 -1.3385  1.1473
 2010SOL    HW210716  11.956   8.170   6.132 -0.7768 -0.3867 -0.4724
 2011SOL     OW10717   8.780   5.322   8.503 -0.1732 -0.0828 -0.5310
 2011SOL    HW110718   8.730   5.252   8.547 -0.0925 -0.5969 -1.2387
 2011SOL    HW210719   8.854   5.338   8.560 -0.3136 -0.4244 -0.2512
 2012SOL     OW10720   2.763   1.326   1.432 -0.3693  0.5995  0.2486
 2012SOL    HW110721   2.704   1.367   1.370  0.1177  1.4828  0.3471
 2012SOL    HW210722   2.830   1.393   1.449  0.2884 -0.1366  0.6324
 2013SOL     OW10723  10.195   9.023   9.922  0.0088 -0.1495  0.5055
 2013SOL    HW110724  10.266   9.067   9.875  0.9065 -0.0647  1.9033
 2013SOL    HW210725  10.117   9.075   9.902 -0.1406 -1.3477 -2.6564
 2014SOL     OW10726   2.190   4.539   0.886 -0.0969 -0.2679  0.0724
 2014SOL    HW110727   2.098   4.515   0.899 -0.9947  2.4273 -0.6017
 2014SOL    HW210728   2.193   4.581   0.800  1.9901 -1.0795 -0.3281
 2015SOL     OW10729   4.297  11.243  11.027  0.4453  0.0058  0.0247
 2015SOL    HW110730   4.220  11.217  11.078 -0.1254  0.1531 -0.7470
 2015SOL    HW210731   4.271  11.232  10.936  1.3926 -0.0758 -0.2498
 2016SOL     OW10732  11.222   7.458  10.103  0.1162  0.2830  0.0182
 2016SOL    HW110733  11.190   7.438  10.015  0.1712 -1.1306  0.3043
 2016SOL    HW210734  11.143   7.469  10.155  0.0771 -0.1956  0.0671
 2017SOL     OW10735   4.330   0.280  10.036  0.5474 -0.0334  0.9433
 2017SOL    HW110736   4.293   0.363  10.004  2.8146  0.7282  0.1204
 2017SOL    HW210737   4.373   0.242   9.960  2.1898 -0.4344  2.0342
 2018SOL     OW10738  11.598   9.550   6.490  0.4038  0.4416  0.5520
 2018SOL    HW110739  11.680   9.527   6.447  1.2673  0.1043  2.3222
 2018SOL    HW210740  11.582   9.641   6.464  0.8271  0.2146 -0.5539
 2019SOL     OW10741   7.378  11.358   9.917  0.1016  0.1218  0.3125
 2019SOL    HW110742   7.472  11.358   9.936 -0.3425  1.5036  3.0777
 2019SOL    HW210743   7.364  11.435   9.863  0.5555 -0.2176 -0.3078
 2020SOL     OW10744   0.933   3.029   6.654  0.0404  0.4000 -0.7263
 2020SOL    HW110745   0.900   2.973   6.584 -0.5385  0.1884 -0.2926
 2020SOL    HW210746   0.872   3.102   6.658  0.4660  0.7718 -0.9025
 2021SOL     OW10747   0.054   0.712   0.950  0.0330  0.4393  0.2647
 2021SOL    HW110748   0.037   0.619   0.936 -0.8913  0.7646 -0.9287
 2021SOL    HW210749   0.018   0.731   1.036  0.0943 -0.2694  0.4509
 2022SOL     OW10750   3.015   1.635   2.352 -0.6622 -0.0408  0.3759
 2022SOL    HW110751   2.963   1.657   2.430  0.0473  2.0060  0.3174
 2022SOL    HW210752   3.082   1.703   2.347 -0.1459 -0.6227 -1.5524
 2023SOL     OW10753  10.110   7.179   7.082  0.6674 -0.5910 -0.3032
 2023SOL    HW110754  10.195   7.162   7.123  0.7548  0.3736 -0.0614
 2023SOL    HW210755  10.047   7.133   7.137  1.0888 -1.9157 -0.8912
 2024SOL     OW10756  10.905   8.224  10.767  0.0704  0.0668 -0.7786
 2024SOL    HW110757  10.843   8.200  10.836  0.4764 -0.5855 -0.6314
 2024SOL    HW210758  10.913   8.319  10.773 -0.4847  0.0974 -0.4338
 2025SOL     OW10759   3.900   1.111  10.195 -0.6707 -0.0010 -0.1777
 2025SOL    HW110760   3.955   1.034  10.183  0.3107  0.2106  2.4079
 2025SOL    HW210761   3.822   1.094  10.141 -0.1733 -2.4493 -0.2229
 2026SOL     OW10762   9.681   0.580   1.247 -0.1648  0.5082 -0.2336
 2026SOL    HW110763   9.621   0.653   1.263 -0.8107  0.0583 -0.5556
 2026SOL    HW210764   9.690   0.539   1.333  2.3768  2.5421  0.5930
 2027SOL     OW10765  10.316   5.216   0.999 -0.3911  1.0974  0.0241
 2027SOL    HW110766  10.232   5.220   0.955 -0.7938 -1.3188  0.4362
 2027SOL    HW210767  10.381   5.218   0.928 -1.0068 -1.9560 -0.7466
 2028SOL     OW10768   4.800   0.150  11.353  0.4658  0.5442  0.3147
 2028SOL    HW110769   4.715   0.123  11.386  0.0405  0.2981 -0.9126
 2028SOL    HW210770   4.815   0.236  11.391  0.8793 -0.4568  2.6136
 2029SOL     OW10771   6.598   0.703   2.406  0.3423 -0.0145 -0.2599
 2029SOL    HW110772   6.615   0.628   2.463  1.1991  0.0724 -0.3833
 2029SOL    HW210773   6.674   0.707   2.349  0.2777  0.9119 -0.2920
 2030SOL     OW10774   1.359   2.611   9.684 -0.2229  0.3748 -0.5181
 2030SOL    HW110775   1.309   2.532   9.663 -0.0249  0.3834 -1.0522
 2030SOL    HW210776   1.315   2.681   9.634 -0.6941  0.6967  0.3309
 2031SOL     OW10777   1.911   9.181   6.755 -0.5433  0.1519 -0.3005
 2031SOL    HW110778   1.923   9.092   6.723 -0.9491  0.3457 -1.0137
 2031SOL    HW210779   1.995   9.224   6.739  0.1304 -0.4666  1.3340
 2032SOL     OW10780  10.650   9.524   7.242 -0.2666  0.1580  0.4692
 2032SOL    HW110781  10.680   9.603   7.286  1.6736  0.1728 -0.7360
 2032SOL    HW210782  10.611   9.471   7.311 -1.1520  1.9334  1.3944
 2033SOL     OW10783   7.454   8.220   2.833  0.1858 -0.0222 -0.0582
 2033SOL    HW110784   7.504   8.301   2.832  1.1517 -0.5023  2.2754
 2033SOL    HW210785   7.365   8.246   2.858  0.4924  0.3358  0.6818
 2034SOL     OW10786   6.673   2.321   7.324 -0.1739  0.2361  0.1399
 2034SOL    HW110787   6.662   2.277   7.239  0.2582  0.7500 -0.1911
 2034SOL    HW210788   6.591   2.305   7.370 -1.7685  2.5812 -1.5954
 2035SOL     OW10789   2.705   5.585   7.158 -0.3148 -0.5235 -0.2065
 2035SOL    HW110790   2.678   5.530   7.231 -0.0844 -0.8100 -0.3349
 2035SOL    HW210791   2.791   5.618   7.183 -0.0615 -0.9405 -0.5208
 2036SOL     OW10792   2.260   4.769   1.780 -0.5048 -0.2612 -0.1203
 2036SOL    HW110793   2.311   4.738   1.705  0.2417 -1.5607  0.8840
 2036SOL    HW210794   2.325   4.806   1.839 -0.9250 -0.4194  0.4492
 2037SOL     OW10795   0.677  10.181   7.367 -0.3299 -0.0101 -0.1170
 2037SOL    HW110796   0.593  10.135   7.373  0.0133 -0.7054 -0.5447
 2037SOL    HW210797   0.715  10.171   7.455 -0.8481  0.6308  0.1926
 2038SOL     OW10798   4.078   8.515   7.836  0.3757 -0.6128 -0.2878
 2038SOL    HW110799   4.001   8.540   7.787 -0.0605 -0.1673  0.5997
 2038SOL    HW210800   4.115   8.441   7.787 -0.9867 -1.2794 -0.3607
 2039SOL     OW10801   1.087   8.217   6.531  0.3252  0.7643 -0.1903
 2039SOL    HW110802   1.032   8.252   6.600  0.5296 -1.6207  1.3065
 2039SOL    HW210803   1.061   8.265   6.452 -1.4644  2.0405  1.1146
 2040SOL     OW10804   8.570   8.249   1.711  0.1284 -0.0180  0.2002
 2040SOL    HW110805   8.542   8.298   1.789 -0.1785  1.0449 -0.5420
 2040SOL    HW210806   8.489   8.228   1.666  0.2155 -1.7936  0.8024
 2041SOL     OW10807   2.337   1.687   9.750  0.1342  0.0671 -0.4352
 2041SOL    HW110808   2.393   1.765   9.747 -1.1318  0.9905 -1.9685
 2041SOL    HW210809   2.253   1.717   9.714 -0.5005 -1.9257 -0.7333
 2042SOL     OW10810   3.551  11.891   3.911 -0.6521  0.1128  0.1379
 2042SOL    HW110811   3.467  11.857   3.943 -0.5402 -1.7673 -1.3428
 2042SOL    HW210812   3.551  11.868   3.818  1.2991  0.5363  0.0038
 2043SOL     OW10813  10.977   6.731   2.455 -0.2976 -0.7041  1.1397
 2043SOL    HW110814  10.971   6.641   2.424 -1.6077 -0.5784  0.9805
 2043SOL    HW210815  11.070   6.753   2.445 -0.3184 -1.3003 -0.9326
 2044SOL     OW10816  10.343  10.579   3.556  0.1372  0.4089 -0.3413
 2044SOL    HW110817  10.353  10.673   3.546  0.7617  0.3494 -0.3670
 2044SOL    HW210818  10.314  10.548   3.471 -1.1774  0.7077 -0.0163
 2045SOL     OW10819   1.803  11.075   0.184 -0.0686 -0.0642  0.0732
 2045SOL    HW110820   1.803  11.101   0.276 -1.3626 -0.9637  0.3513
 2045SOL    HW210821   1.893  11.046   0.167  0.1880  0.1402  1.0420
 2046SOL     OW10822   2.875   5.456   6.220  0.3831  0.1780  0.2648
 2046SOL    HW110823   2.800   5.397   6.209 -0.0784  0.6083  1.0151
 2046SOL    HW210824   2.843   5.541   6.190  0.9282  0.1443 -0.4547
 2047SOL     OW10825   6.608   6.886   2.447 -0.0184 -0.5980 -0.4322
 2047SOL    HW110826   6.656   6.820   2.396 -1.4166  0.2969 -3.1068
 2047SOL    HW210827   6.538   6.915   2.388 -1.6233  0.7367  1.9808
 2048SOL     OW10828   8.497   6.427  10.111 -0.3857  0.1504  0.0160
 2048SOL    HW110829   8.590   6.445  10.115  0.5858 -3.7575 -0.6726
 2048SOL    HW210830   8.468   6.427  10.202  0.4905  0.4424  0.3027
 2049SOL     OW10831   0.085   6.371   0.935  0.6332 -0.1609 -0.2687
 2049SOL    HW110832   0.015   6.433   0.915  2.2089  1.4893 -0.8927
 2049SOL    HW210833   0.057   6.289   0.892 -1.9441 -0.2678  1.3605
 2050SOL     OW10834   2.702   8.835  10.333  0.1428 -0.3875  0.0532
 2050SOL    HW110835   2.651   8.762  10.298 -0.3095  0.4808 -1.1556
 2050SOL    HW210836   2.726   8.807  10.421  0.3200 -2.1561 -0.5250
 2051SOL     OW10837   3.966  11.852   0.335 -0.0502 -0.5601  0.2048
 2051SOL    HW110838   4.003  11.764   0.323 -0.5089 -0.9890  1.7832
 2051SOL    HW210839   3.873  11.837   0.353 -0.2339  0.2856  0.0130
 2052SOL     OW10840   5.566   6.054   0.192  0.2280 -0.1837  0.1170
 2052SOL    HW110841   5.608   6.098   0.118 -0.2343 -0.7743 -0.5152
 2052SOL    HW210842   5.529   6.126   0.244  0.1403  0.2180 -0.4842
 2053SOL     OW10843   6.608   5.399   3.199  0.3766 -0.4269 -0.1978
 2053SOL    HW110844   6.686   5.455   3.205 -0.4082  0.6903 -0.2229
 2053SOL    HW210845   6.622   5.346   3.121  2.0078 -1.6644  0.8445
 2054SOL     OW10846   3.174   5.634  10.323  0.4489  0.3382 -0.6038
 2054SOL    HW110847   3.208   5.603  10.407  0.4032 -0.1001 -0.7430
 2054SOL    HW210848   3.247   5.681  10.283  0.4648  0.5660 -0.3117
 2055SOL     OW10849   0.543   0.997   6.881  0.1107  0.3641  0.0561
 2055SOL    HW110850   0.586   0.913   6.865  0.5652  0.4087  0.9771
 2055SOL    HW210851   0.613   1.062   6.873 -0.2256  0.6607 -0.5858
 2056SOL     OW10852   4.749   5.859   3.705  0.1813  0.5034  0.1418
 2056SOL    HW110853   4.661   5.839   3.673  0.4182  0.6078 -0.5903
 2056SOL    HW210854   4.763   5.797   3.777 -0.8094  1.0352  0.8327
 2057SOL     OW10855   2.815   8.784   6.234 -0.2555 -0.3168  0.4114
 2057SOL    HW110856   2.753   8.853   6.258  1.1340  1.6945 -1.4492
 2057SOL    HW210857   2.796   8.765   6.142 -0.2388 -2.0808  0.7382
 2058SOL     OW10858  10.788   6.833   0.687  0.1649 -0.4887  0.1964
 2058SOL    HW110859  10.727   6.837   0.760 -1.2443  0.6100 -0.9765
 2058SOL    HW210860  10.740   6.785   0.619 -0.1331  1.8686 -1.3528
 2059SOL     OW10861   0.796   2.010  10.474 -0.5488 -0.1229 -0.2394
 2059SOL    HW110862   0.816   1.918  10.491 -2.7294 -0.9856 -1.8300
 2059SOL    HW210863   0.753   2.040  10.554  2.2770  0.2930  1.2227
 2060SOL     OW10864   7.485   6.941   3.507 -0.1712  0.2099  1.3740
 2060SOL    HW110865   7.528   6.984   3.581  0.8357 -0.6138  1.2841
 2060SOL    HW210866   7.431   7.010   3.468  0.6394  1.1302  1.8246
 2061SOL     OW10867   8.292   3.401   1.307  0.3741 -0.6419  0.0237
 2061SOL    HW110868   8.339   3.322   1.281  0.9916 -0.1090 -0.5343
 2061SOL    HW210869   8.335   3.471   1.258 -1.5667 -0.2184 -1.1768
 2062SOL     OW10870   6.968   9.221   6.920  0.3386 -0.3615  0.0566
 2062SOL    HW110871   6.958   9.127   6.905  1.5975 -0.3567 -1.0301
 2062SOL    HW210872   6.933   9.262   6.841  0.7402  0.0270  0.0728
 2063SOL     OW10873   9.919   6.744  10.019  0.0252 -0.2333 -0.1211
 2063SOL    HW110874   9.887   6.767   9.932 -0.0459 -1.2475 -0.3748
 2063SOL    HW210875   9.842   6.752  10.075  0.2010  0.9932 -0.0259
 2064SOL     OW10876  11.102   0.343   2.730  0.1102  0.0866  0.5488
 2064SOL    HW110877  11.068   0.332   2.818 -1.5323 -0.7949 -0.1589
 2064SOL    HW210878  11.028   0.377   2.679  0.8462  0.0188 -0.6125
 2065SOL     OW10879   6.244   8.812   0.806 -0.8884  0.5975 -0.4753
 2065SOL    HW110880   6.273   8.830   0.896 -2.4140  2.3672 -0.2769
 2065SOL    HW210881   6.304   8.863   0.752 -1.6322  1.7388 -0.2596
 2066SOL     OW10882   5.295   6.320   3.215  0.0172  0.2687  0.3699
 2066SOL    HW110883   5.228   6.362   3.269  0.3285 -2.4886  3.2105
 2066SOL    HW210884   5.377   6.336   3.262  0.5376 -0.8858 -0.0932
 2067SOL     OW10885   2.380  10.228   9.825  0.4254 -0.9801 -0.0569
 2067SOL    HW110886   2.462  10.253   9.782 -1.2556  2.1810 -1.8061
 2067SOL    HW210887   2.397  10.239   9.918  1.3823  2.3557 -0.4724
 2068SOL     OW10888   8.965   0.494   0.322  0.0615 -0.2003 -0.2739
 2068SOL    HW110889   8.971   0.417   0.377  0.9322  0.5704  0.7614
 2068SOL    HW210890   9.055   0.510   0.293  0.2117  1.3511  0.8896
 2069SOL     OW10891   0.151  10.284   7.649 -0.0183  0.1897 -0.0236
 2069SOL    HW110892   0.220  10.269   7.585  1.4671  0.2285  1.5064
 2069SOL    HW210893   0.188  10.349   7.710 -2.1207  1.6580 -0.2042
 2070SOL     OW10894   9.784   9.738  11.897  0.1227  0.1412  0.0900
 2070SOL    HW110895   9.844   9.813  11.898 -1.5769  1.5849  2.1605
 2070SOL    HW210896   9.708   9.770  11.848 -0.6379 -0.2063  1.0321
 2071SOL     OW10897   5.402   5.182   0.819  0.0379 -0.2995  0.6767
 2071SOL    HW110898   5.379   5.205   0.909 -0.3348  0.6236  0.3502
 2071SOL    HW210899   5.449   5.258   0.785  1.2634 -1.1161  0.4629
 2072SOL     OW10900   4.679   0.132   2.384 -0.4720 -0.0984  0.3711
 2072SOL    HW110901   4.612   0.108   2.448  0.2916  0.0453  1.2504
 2072SOL    HW210902   4.723   0.208   2.422 -1.1747  1.1454 -1.1759
 2073SOL     OW10903   3.325   8.264   3.283  0.2361 -0.4501 -0.0312
 2073SOL    HW110904   3.344   8.174   3.308  0.0620 -0.2527  0.8371
 2073SOL    HW210905   3.241   8.259   3.238  0.7594 -0.8688 -0.9951
 2074SOL     OW10906   4.770   7.832   5.655  0.4441 -0.3097 -0.3104
 2074SOL    HW110907   4.855   7.872   5.639  1.1417 -1.3028  0.7871
 2074SOL    HW210908   4.784   7.775   5.730 -1.6798  0.9939  1.1568
 2075SOL     OW10909   0.727   0.131   1.988  0.0257  0.0079 -0.0101
 2075SOL    HW110910   0.742   0.134   2.083 -0.8702 -0.6711  0.1720
 2075SOL    HW210911   0.802   0.176   1.950  1.5511 -1.6076  0.9134
 2076SOL     OW10912   8.160   7.196   1.685  0.1932 -0.5049  0.0301
 2076SOL    HW110913   8.197   7.251   1.754 -1.2486  0.1198  0.3338
 2076SOL    HW210914   8.211   7.219   1.607 -0.1914  1.0980  0.2084
 2077SOL     OW10915  10.087   1.738   6.780  0.7132 -0.3516  0.2269
 2077SOL    HW110916  10.123   1.711   6.864 -0.2231  3.8559  2.2497
 2077SOL    HW210917   9.992   1.729   6.790  0.5496  0.8398 -0.0647
 2078SOL     OW10918   4.599   3.084   0.527 -0.5781 -0.0363  0.6658
 2078SOL    HW110919   4.568   3.139   0.598 -2.8600  0.3737 -0.5721
 2078SOL    HW210920   4.560   2.998   0.545 -0.5570 -0.1204  0.3107
 2079SOL     OW10921   0.571  11.880   1.421 -0.1018  0.3316 -0.0935
 2079SOL    HW110922   0.643  11.821   1.398 -1.1427 -0.6219 -0.9924
 2079SOL    HW210923   0.595  11.964   1.382  1.2988  0.4946  1.0235
 2080SOL     OW10924   7.428  11.864   0.213  0.0536 -0.5545 -0.7503
 2080SOL    HW110925   7.414  11.902   0.299  0.7768 -1.9965  0.0308
 2080SOL    HW210926   7.341  11.862   0.173 -0.5066 -1.0930  0.4681
 2081SOL     OW10927   8.954   5.990   6.335  0.0657 -0.4652 -0.0094
 2081SOL    HW110928   8.956   5.896   6.355  1.1564 -0.6819 -1.0418
 2081SOL    HW210929   9.042   6.010   6.305 -0.2125  0.8593  0.0061
 2082SOL     OW10930   3.301   0.010   3.280  0.1268 -0.1739  0.4497
 2082SOL    HW110931   3.335   0.013   3.191 -0.1521 -0.2323  0.3416
 2082SOL    HW210932   3.330  -0.074   3.314 -0.2075 -0.3737  0.2397
 2083SOL     OW10933   0.229   1.218   4.677 -0.0607  0.0245 -0.3441
 2083SOL    HW110934   0.270   1.286   4.731 -0.8855 -0.4676  0.9398
 2083SOL    HW210935   0.297   1.195   4.613  0.3708  1.7655 -0.5783
 2084SOL     OW10936  11.952   0.350   0.404 -0.1812  0.4673 -0.0768
 2084SOL    HW110937  12.036   0.394   0.404 -0.7402  1.5813 -1.1996
 2084SOL    HW210938  11.935   0.332   0.497  0.3178  2.1317  0.3706
 2085SOL     OW10939  11.945   3.660   1.711 -0.1625  0.0594  0.2246
 2085SOL    HW110940  11.890   3.682   1.636 -0.4731 -1.9139 -0.1909
 2085SOL    HW210941  11.884   3.640   1.781  0.0673 -0.1213  0.3765
 2086SOL     OW10942   9.248   9.807   9.868  0.0489 -0.0797 -0.2001
 2086SOL    HW110943   9.343   9.793   9.871 -0.2948 -2.8357  0.0150
 2086SOL    HW210944   9.230   9.831   9.777  0.7605 -1.3340 -0.6901
 2087SOL     OW10945  10.238   3.155   4.773  0.1466 -0.3314  0.0242
 2087SOL    HW110946  10.190   3.166   4.691 -0.5548 -0.2628  0.4315
 2087SOL    HW210947  10.225   3.063   4.796  1.9697 -0.8683 -0.9189
 2088SOL     OW10948   1.588   8.760   4.786 -0.3280  0.3980  0.0652
 2088SOL    HW110949   1.521   8.803   4.734  0.8571  1.3310 -0.7360
 2088SOL    HW210950   1.639   8.710   4.723 -1.9423 -2.7169  1.0045
 2089SOL     OW10951   5.003   4.877   8.166  0.4878 -0.7995  0.6316
 2089SOL    HW110952   4.912   4.853   8.148  0.2569  0.4309  0.0735
 2089SOL    HW210953   5.024   4.832   8.248 -0.9232 -0.3491  1.2767
 2090SOL     OW10954   0.419   5.539   5.329 -0.3926  0.3488 -0.8576
 2090SOL    HW110955   0.362   5.530   5.252  0.6371 -1.2083 -1.4951
 2090SOL    HW210956   0.403   5.459   5.379 -1.4914  1.6157  0.9126
 2091SOL     OW10957  10.787   5.215  10.151  0.0138  0.4025 -0.3073
 2091SOL    HW110958  10.706   5.168  10.172 -0.8666  1.3076 -1.5619
 2091SOL    HW210959  10.837   5.153  10.097  0.1852 -0.1594  0.4738
 2092SOL     OW10960   4.044   7.848  10.322  0.0613  0.4437  0.3137
 2092SOL    HW110961   4.055   7.937  10.288 -1.1321  0.4685 -0.0791
 2092SOL    HW210962   4.130   7.808  10.315  0.0809  0.7701 -1.8831
 2093SOL     OW10963   1.255   8.127   7.390 -0.1227 -0.0032 -0.5845
 2093SOL    HW110964   1.247   8.221   7.407 -1.6036 -0.4769  1.7582
 2093SOL    HW210965   1.198   8.112   7.314 -0.1207  0.9115 -0.7859
 2094SOL     OW10966   1.433   6.424   7.174  0.1383 -0.2455 -0.0270
 2094SOL    HW110967   1.446   6.330   7.165  0.8733 -0.4407  2.4086
 2094SOL    HW210968   1.344   6.433   7.209 -0.4249  0.0801 -1.4852
 2095SOL     OW10969   7.029   1.629   7.640  0.2443 -0.1799 -0.1583
 2095SOL    HW110970   7.115   1.656   7.674  0.4126  2.0175 -2.0913
 2095SOL    HW210971   6.966   1.671   7.698  0.4101 -1.6866  1.1830
 2096SOL     OW10972   7.371   5.910   8.421 -0.5797  0.6832 -0.2423
 2096SOL    HW110973   7.430   5.950   8.358 -1.8996  0.7609 -1.4987
 2096SOL    HW210974   7.392   5.951   8.504  1.2389  0.5581 -0.6104
 2097SOL     OW10975   2.161   1.752   6.796 -0.0972  0.1921  0.4529
 2097SOL    HW110976   2.196   1.820   6.854 -1.9445  0.6840  1.0577
 2097SOL    HW210977   2.066   1.768   6.795 -0.1308  0.5110 -3.0940
 2098SOL     OW10978   2.363   4.838   5.745  0.1537 -0.5663 -0.5322
 2098SOL    HW110979   2.347   4.861   5.653  1.8089  0.8062 -0.5375
 2098SOL    HW210980   2.421   4.762   5.741  0.8513 -0.0449 -0.6751
 2099SOL     OW10981  10.375   6.676   3.219  0.0680  0.5532 -0.0969
 2099SOL    HW110982  10.305   6.616   3.244 -0.8595  0.6304 -2.2861
 2099SOL    HW210983  10.376   6.742   3.289 -1.3016 -0.0601  0.5386
 2100SOL     OW10984   8.909  10.223   9.286  0.4493 -0.0214  0.1705
 2100SOL    HW110985   8.943  10.227   9.375  0.7464 -1.9911  0.1863
 2100SOL    HW210986   8.841  10.155   9.289 -0.4676  0.8121 -0.8292
 2101SOL     OW10987   1.517   6.145   7.157 -0.4356 -0.2817 -0.2054
 2101SOL    HW110988   1.521   6.072   7.095 -2.5540  0.1279 -0.8758
 2101SOL    HW210989   1.457   6.115   7.225 -0.6453  0.5249 -0.0328
 2102SOL     OW10990   8.428   5.910   3.167  0.0780 -0.1248 -0.3032
 2102SOL    HW110991   8.428   5.942   3.077 -0.0905 -1.7731 -0.9238
 2102SOL    HW210992   8.520   5.913   3.193  0.3300 -0.9271 -1.0362
 2103SOL     OW10993   5.034   3.668   0.164  0.3613 -0.7151 -0.6604
 2103SOL    HW110994   5.124   3.659   0.195 -0.3065 -0.3971  1.5281
 2103SOL    HW210995   4.989   3.590   0.195 -0.9013  0.7346  1.4753
 2104SOL     OW10996   0.925   2.160   6.406  0.3163  0.2292  0.0767
 2104SOL    HW110997   0.960   2.078   6.370 -0.3552 -0.8163  1.6709
 2104SOL    HW210998   0.919   2.219   6.330  0.4730 -1.3067 -1.1903
 2105SOL     OW10999   5.763   5.866   9.070  0.6360 -0.4538 -0.0374
 2105SOL    HW111000   5.711   5.786   9.065 -0.8167  0.4990 -1.6796
 2105SOL    HW211001   5.826   5.858   8.998  1.6498 -0.8620  0.8827
 2106SOL     OW11002   8.381  10.173   0.228 -0.4251 -0.1908  0.3070
 2106SOL    HW111003   8.362  10.191   0.320  0.4087 -0.0052  0.4486
 2106SOL    HW211004   8.300  10.136   0.193 -0.5767 -0.7549  1.2419
 2107SOL     OW11005   0.643   8.371   6.728  0.1817  0.0348  0.1991
 2107SOL    HW111006   0.649   8.465   6.710  1.5509  0.1806  1.2431
 2107SOL    HW211007   0.550   8.352   6.725 -0.2606  1.7599  1.4904
 2108SOL     OW11008   1.243   3.875   8.543  0.2413 -0.5900  0.5347
 2108SOL    HW111009   1.315   3.925   8.505 -0.2974  1.0822  1.5925
 2108SOL    HW211010   1.260   3.874   8.637 -1.7238  1.0325  0.9958
 2109SOL     OW11011   1.488   5.242   3.222 -0.1145  0.5904 -0.1172
 2109SOL    HW111012   1.406   5.282   3.252  0.7268  2.2908  0.0886
 2109SOL    HW211013   1.516   5.187   3.294 -0.9661  0.1387 -0.1154
 2110SOL     OW11014   5.842   0.840   1.792  0.1934  0.3847  0.3497
 2110SOL    HW111015   5.921   0.890   1.772  0.0246  0.6380  0.3097
 2110SOL    HW211016   5.865   0.750   1.771 -0.3853  0.7655 -2.3812
 2111SOL     OW11017   7.355   6.891  11.645  0.0083  0.8662  0.6382
 2111SOL    HW111018   7.265   6.862  11.639  0.0968  0.3145  1.6878
 2111SOL    HW211019   7.401   6.819  11.689  0.8909  1.2671  0.4088
 2112SOL     OW11020   2.345  10.096   0.856  0.3519 -0.5084 -0.2830
 2112SOL    HW111021   2.381  10.129   0.774 -0.3882 -1.6814 -1.1140
 2112SOL    HW211022   2.416  10.045   0.895  0.0818 -1.6203 -1.2022
 2113SOL     OW11023   0.976   8.098   7.548 -0.4784  0.5867 -0.1848
 2113SOL    HW111024   0.956   8.115   7.641 -0.9200  0.5791 -0.2749
 2113SOL    HW211025   0.998   8.184   7.513  0.2868  0.4978  0.0658
 2114SOL     OW11026   3.655   5.826   0.612  0.1840 -0.3682 -0.5345
 2114SOL    HW111027   3.562   5.820   0.633 -0.0956  1.5016 -1.0741
 2114SOL    HW211028   3.684   5.735   0.603 -1.1564 -1.0489  1.3978
 2115SOL     OW11029   6.898  10.385   4.505 -0.0335  0.2563  0.1445
 2115SOL    HW111030   6.990  10.390   4.530  0.4166  2.0592 -1.6623
 2115SOL    HW211031   6.850  10.393   4.588  1.3821 -0.9012  1.1364
 2116SOL     OW11032   7.265   3.429   6.194  0.1888 -0.4763  0.2732
 2116SOL    HW111033   7.240   3.406   6.104 -0.8485 -1.3537  0.7570
 2116SOL    HW211034   7.258   3.524   6.197 -3.2496 -0.6263  0.3481
 2117SOL     OW11035   3.678   7.854   1.364 -0.7881 -0.3622  0.1340
 2117SOL    HW111036   3.617   7.924   1.383  1.1504  1.6051 -0.4529
 2117SOL    HW211037   3.654   7.825   1.276 -0.6659  0.6563 -0.2466
 2118SOL     OW11038  11.640   1.379   1.305  0.4406  0.5291  0.6648
 2118SOL    HW111039  11.658   1.443   1.373 -1.6649 -0.0095  1.8424
 2118SOL    HW211040  11.549   1.353   1.320 -0.4802  1.0893 -2.9894
 2119SOL     OW11041   5.590  11.578   5.422  0.0357 -0.4767  0.0982
 2119SOL    HW111042   5.524  11.610   5.484 -0.0850 -0.0747 -0.2393
 2119SOL    HW211043   5.649  11.525   5.476  0.6347  0.8579  0.8054
 2120SOL     OW11044   3.484   2.473   4.639  0.4964 -0.5315 -0.4225
 2120SOL    HW111045   3.416   2.522   4.685  0.2277 -0.0799 -1.2805
 2120SOL    HW211046   3.477   2.502   4.548  1.1456 -1.2620 -0.7154
 2121SOL     OW11047   3.815   2.894   6.275  0.2171  0.0095 -0.3049
 2121SOL    HW111048   3.813   2.924   6.366 -1.8022 -0.6621 -0.0760
 2121SOL    HW211049   3.849   2.805   6.279 -2.2231 -0.9915  0.1933
 2122SOL     OW11050   0.832   1.343  10.545  0.1088 -0.2259  0.8663
 2122SOL    HW111051   0.828   1.415  10.482  2.2827 -1.3249 -0.6695
 2122SOL    HW211052   0.749   1.296  10.532 -0.0244  0.2844 -0.2969
 2123SOL     OW11053   6.641   4.771   3.934  0.5510  0.1941 -0.0921
 2123SOL    HW111054   6.609   4.853   3.971  1.3139 -0.7006  2.8787
 2123SOL    HW211055   6.660   4.717   4.011  1.9241 -2.0574 -1.9007
 2124SOL     OW11056   4.349   2.619   3.545 -0.1034  0.2761 -0.5591
 2124SOL    HW111057   4.336   2.713   3.537  2.3718  0.7475  0.2672
 2124SOL    HW211058   4.346   2.586   3.455 -1.7642  0.9692 -0.7957
 2125SOL     OW11059   5.174   9.915  10.690  0.4065  0.2675 -0.1421
 2125SOL    HW111060   5.094   9.967  10.691 -0.9718 -1.6006  2.8690
 2125SOL    HW211061   5.146   9.828  10.660  1.2850 -0.3623  0.7718
 2126SOL     OW11062  11.132  10.731  11.744 -0.4711 -0.3799 -0.1015
 2126SOL    HW111063  11.078  10.714  11.667 -0.3553 -2.9359  0.3034
 2126SOL    HW211064  11.115  10.657  11.802  1.4689  0.1017  1.1780
 2127SOL     OW11065   3.785   5.053   1.745 -0.2187  0.1309  0.3598
 2127SOL    HW111066   3.821   5.140   1.759 -0.5489  0.4783 -0.8012
 2127SOL    HW211067   3.690   5.066   1.746 -0.4044 -0.7692  3.3767
 2128SOL     OW11068  11.448   3.102   0.639  0.1867  0.5325  0.7985
 2128SOL    HW111069  11.528   3.154   0.638  0.9476 -0.5907  0.9705
 2128SOL    HW211070  11.378   3.165   0.627  1.1909  1.3640 -1.1294
 2129SOL     OW11071   1.732   8.003   2.948 -0.1436 -0.1312  0.0008
 2129SOL    HW111072   1.734   8.094   2.979 -3.7184  0.2777 -0.6080
 2129SOL    HW211073   1.811   7.964   2.986  0.3483  2.6176  2.1833
 2130SOL     OW11074   0.893   3.485   3.235  0.0541 -0.1476 -0.6900
 2130SOL    HW111075   0.847   3.421   3.290  0.7896  0.7524  1.0389
 2130SOL    HW211076   0.986   3.466   3.248  0.2916  1.3162 -0.0217
 2131SOL     OW11077  11.220   2.132   8.191 -0.3662 -0.3751  0.5962
 2131SOL    HW111078  11.146   2.072   8.200 -1.2059  0.5677  0.1250
 2131SOL    HW211079  11.215   2.163   8.101  1.0548 -0.8542  0.3290
 2132SOL     OW11080  11.643   2.720   8.472  0.4430  0.4989 -0.3158
 2132SOL    HW111081  11.693   2.666   8.411 -3.0437 -2.1063 -1.1593
 2132SOL    HW211082  11.575   2.761   8.419 -0.4278  1.1522  1.2326
 2133SOL     OW11083   4.745   3.303   1.599  0.0636 -0.0769 -0.2078
 2133SOL    HW111084   4.824   3.249   1.599  0.0525 -0.0926 -0.3719
 2133SOL    HW211085   4.694   3.272   1.524  0.3023  0.5197 -0.6236
 2134SOL     OW11086   1.379   9.599   7.067 -0.2514 -0.3405  0.5914
 2134SOL    HW111087   1.375   9.662   6.995  0.4756 -1.2610 -0.2697
 2134SOL    HW211088   1.290   9.598   7.102 -0.3320  0.9794  0.4666
 2135SOL     OW11089   0.466   8.885   7.029  0.4551  0.1976  0.2592
 2135SOL    HW111090   0.484   8.956   7.091 -0.8287  0.9513 -0.1972
 2135SOL    HW211091   0.438   8.811   7.084  1.4811  0.1273  0.7129
 2136SOL     OW11092   3.653  10.651   3.198 -0.5423  0.0929  0.2520
 2136SOL    HW111093   3.660  10.631   3.292 -1.3532  0.2452  0.3542
 2136SOL    HW211094   3.711  10.725   3.185 -0.2154 -0.0975  0.5780
 2137SOL     OW11095   9.858   4.949  10.015 -0.0821  0.5329 -0.7306
 2137SOL    HW111096   9.940   4.992  10.039  0.9704 -1.1063 -1.2103
 2137SOL    HW211097   9.789   5.009  10.045  1.2201  0.8610  1.8664
 2138SOL     OW11098   0.950   5.067  11.511 -0.2514  0.2151  0.3611
 2138SOL    HW111099   0.923   5.024  11.429 -0.6436 -2.2717  1.6894
 2138SOL    HW211100   1.042   5.040  11.522  0.2988  1.8367  0.0108
 2139SOL     OW11101   2.602  11.159   3.239  0.1093 -0.4301  0.2918
 2139SOL    HW111102   2.573  11.187   3.152 -0.2868  0.8654  0.8117
 2139SOL    HW211103   2.577  11.067   3.245 -0.0207 -0.4846 -0.8921
 2140SOL     OW11104   2.958  11.663  10.040 -0.3399  0.2335  0.0237
 2140SOL    HW111105   2.974  11.614   9.960 -1.1225 -1.4777  0.8708
 2140SOL    HW211106   3.013  11.621  10.106 -0.1308  1.2628  0.5227
 2141SOL     OW11107   7.618   0.857   8.613 -0.0594  0.3107 -0.1864
 2141SOL    HW111108   7.537   0.875   8.565 -0.8071 -0.9185  0.5453
 2141SOL    HW211109   7.643   0.769   8.586  1.1931  0.7689 -0.5802
 2142SOL     OW11110   8.858  10.498   0.504  0.4191 -0.1961  0.3184
 2142SOL    HW111111   8.815  10.441   0.441  2.0059 -0.5345 -0.5178
 2142SOL    HW211112   8.795  10.508   0.575 -0.9499 -0.7627 -0.7776
 2143SOL     OW11113   2.605  10.988   1.540  0.0945  0.4735  0.1179
 2143SOL    HW111114   2.547  11.047   1.589  0.8268  1.2063  0.1194
 2143SOL    HW211115   2.548  10.947   1.476 -0.3865  1.4184 -0.0864
 2144SOL     OW11116   5.274   1.818   3.875 -0.8524  0.1242  0.1948
 2144SOL    HW111117   5.220   1.887   3.837  0.6397  1.9684  1.2269
 2144SOL    HW211118   5.364   1.847   3.858 -0.1221  0.3297  3.7204
 2145SOL     OW11119   0.197  11.696   9.320  0.2222 -0.0519  0.3070
 2145SOL    HW111120   0.215  11.744   9.401  0.1840  0.2891  0.1135
 2145SOL    HW211121   0.105  11.672   9.326 -0.3737  1.8245 -0.5915
 2146SOL     OW11122   1.994   9.574   3.325 -0.2275 -0.0277 -0.2879
 2146SOL    HW111123   2.073   9.609   3.364  0.3231  1.0272 -2.2512
 2146SOL    HW211124   2.018   9.486   3.297  0.4145  0.4587 -1.2974
 2147SOL     OW11125   1.743   5.074   1.646 -0.1321 -0.3288  0.0536
 2147SOL    HW111126   1.662   5.124   1.648  0.1977  0.5613 -3.1846
 2147SOL    HW211127   1.813   5.140   1.648  0.9059 -1.0893  5.3478
 2148SOL     OW11128   2.395   7.875  11.895  0.4822 -0.2244  0.0248
 2148SOL    HW111129   2.305   7.891  11.925  0.3444  1.7827 -1.2969
 2148SOL    HW211130   2.385   7.819  11.818  0.2884  0.5696 -0.5383
 2149SOL     OW11131   7.670   5.446   8.291 -0.2679 -0.1333 -0.3705
 2149SOL    HW111132   7.722   5.429   8.370 -0.4218 -0.3646 -0.3168
 2149SOL    HW211133   7.664   5.541   8.286 -2.3356 -0.0933  1.2798
 2150SOL     OW11134   0.288   8.071  11.793 -0.1501  0.1618 -0.4276
 2150SOL    HW111135   0.327   8.119  11.720 -0.1852  0.5553 -0.1914
 2150SOL    HW211136   0.341   7.992  11.801 -0.2179  0.0567 -0.9510
 2151SOL     OW11137   6.512   5.713   3.216  0.0631 -1.1926  1.0025
 2151SOL    HW111138   6.600   5.724   3.250  0.0169 -1.1505  1.1080
 2151SOL    HW211139   6.496   5.618   3.220 -0.5022 -1.0570  2.5020
 2152SOL     OW11140   2.948   0.298  10.252 -0.3629  0.1727 -0.4352
 2152SOL    HW111141   2.961   0.392  10.242  0.4621 -0.0033 -1.2124
 2152SOL    HW211142   2.900   0.272  10.173  1.4095 -0.3858 -1.3930
 2153SOL     OW11143   4.683   4.754  10.919  0.0310 -0.4284  0.1481
 2153SOL    HW111144   4.601   4.732  10.875  0.4514 -0.8038 -0.4500
 2153SOL    HW211145   4.662   4.748  11.013 -0.4509 -1.1720 -0.0008
 2154SOL     OW11146   5.616   3.233   1.892  0.4589 -0.3716 -0.1461
 2154SOL    HW111147   5.710   3.215   1.889  0.3283 -1.3335  0.8770
 2154SOL    HW211148   5.582   3.174   1.960 -0.5738  1.3381  0.8936
 2155SOL     OW11149   0.986   5.602   5.776  0.1977  0.3695  0.3078
 2155SOL    HW111150   1.049   5.535   5.801 -0.5223 -0.2843  0.3928
 2155SOL    HW211151   1.018   5.682   5.819  1.0650  0.0961  0.1878
 2156SOL     OW11152   0.745   1.531   8.510  0.7869  0.6055  0.1775
 2156SOL    HW111153   0.746   1.587   8.433  0.2944 -0.2258 -0.4436
 2156SOL    HW211154   0.678   1.465   8.492  0.4324  0.5776  1.4494
 2157SOL     OW11155  11.921   4.153   3.179  0.2770  0.7403 -0.3063
 2157SOL    HW111156  11.862   4.190   3.113 -2.5034  2.3171  2.7377
 2157SOL    HW211157  11.919   4.059   3.162 -2.9704  0.7353 -0.6653
 2158SOL     OW11158   1.453   0.348  11.740 -0.0440 -0.7192  0.1778
 2158SOL    HW111159   1.462   0.437  11.776 -0.1616 -0.6268 -0.0211
 2158SOL    HW211160   1.480   0.291  11.812  1.0027 -0.4993 -0.0227
 2159SOL     OW11161   1.184   3.846  11.423  0.2335  0.1666 -0.1701
 2159SOL    HW111162   1.133   3.853  11.503  0.1825 -1.8955  0.0439
 2159SOL    HW211163   1.119   3.835  11.354  0.3281 -0.4430 -0.1659
 2160SOL     OW11164  10.803   4.010   5.260 -0.3671  0.7023 -0.3599
 2160SOL    HW111165  10.832   4.034   5.348 -0.6222  1.3906 -0.4535
 2160SOL    HW211166  10.791   3.916   5.263 -0.4862  0.7348  0.3761
 2161SOL     OW11167   9.726  10.560   6.322  0.1867 -0.7546  0.7164
 2161SOL    HW111168   9.733  10.535   6.229 -1.1497  1.0341  0.0795
 2161SOL    HW211169   9.791  10.630   6.333 -2.7450  2.4192 -0.2420
 2162SOL     OW11170   2.410   7.004  10.706 -0.0067  0.5577  0.6414
 2162SOL    HW111171   2.322   7.027  10.737 -0.6958  1.8433 -1.9116
 2162SOL    HW211172   2.397   6.929  10.648  0.4249  1.2180 -0.3437
 2163SOL     OW11173   8.751   3.370   4.758  0.0103  0.7123 -0.0360
 2163SOL    HW111174   8.740   3.340   4.668 -0.1068 -1.0855  0.5388
 2163SOL    HW211175   8.669   3.346   4.801 -0.2463  2.2566  0.3937
 2164SOL     OW11176   6.833   9.877   6.111  0.3017 -0.1195  0.3882
 2164SOL    HW111177   6.901   9.930   6.152  0.7865 -1.2043  1.0605
 2164SOL    HW211178   6.842   9.893   6.018  1.9528 -0.7336  0.4002
 2165SOL     OW11179  10.294   3.054  11.355 -0.1418  0.3723  0.0243
 2165SOL    HW111180  10.338   2.969  11.365  0.1973  0.5234 -0.1690
 2165SOL    HW211181  10.261   3.054  11.265  1.1254  1.0303 -0.4612
 2166SOL     OW11182   7.495   1.892   8.874  0.2445 -0.4946  0.0644
 2166SOL    HW111183   7.428   1.824   8.874  0.9779 -1.2400  0.9636
 2166SOL    HW211184   7.451   1.969   8.836 -1.8856 -0.2279  2.7492
 2167SOL     OW11185   5.273   9.280   7.219  0.4225 -0.6532 -0.3982
 2167SOL    HW111186   5.327   9.202   7.203  0.9098 -0.3473 -0.2959
 2167SOL    HW211187   5.336   9.352   7.214  0.0085 -0.2877 -0.2881
 2168SOL     OW11188  10.039   4.835   1.274  0.8176  0.2605  0.0257
 2168SOL    HW111189   9.956   4.863   1.312  1.7063  2.1279  0.7118
 2168SOL    HW211190  10.034   4.862   1.182  0.2693 -0.5885 -0.2029
 2169SOL     OW11191   7.624  10.650  10.286 -0.3031 -0.4867  0.5320
 2169SOL    HW111192   7.662  10.688  10.366  0.6040 -2.4754  1.1099
 2169SOL    HW211193   7.547  10.704  10.269  1.6076  2.5066  0.4555
 2170SOL     OW11194  11.614   8.823   9.387 -0.5042 -0.1605 -0.4477
 2170SOL    HW111195  11.666   8.748   9.358 -1.8299 -1.6585  0.8533
 2170SOL    HW211196  11.528   8.810   9.346 -1.1414 -0.0941  0.8153
 2171SOL     OW11197  10.361   9.001   4.646 -0.3657 -0.6097  0.2893
 2171SOL    HW111198  10.338   9.094   4.640  0.4121 -0.3743  0.7853
 2171SOL    HW211199  10.354   8.969   4.556  0.2858  0.1589 -0.0467
 2172SOL     OW11200  10.467   0.725  10.346 -0.0437 -0.0592 -0.2366
 2172SOL    HW111201  10.505   0.812  10.337  1.1809 -0.5706 -0.2823
 2172SOL    HW211202  10.457   0.713  10.441 -2.2561  0.9367 -0.2906
 2173SOL     OW11203   1.331  11.964   7.198  0.1729  0.0801 -0.1825
 2173SOL    HW111204   1.320  11.869   7.196  1.7688 -0.1264 -1.4626
 2173SOL    HW211205   1.426  11.978   7.190 -0.1008  1.7927 -1.0244
 2174SOL     OW11206  10.432   6.165   5.272  0.0576  0.3822  0.9786
 2174SOL    HW111207  10.397   6.232   5.213  0.9805  0.5965  0.6580
 2174SOL    HW211208  10.369   6.094   5.267 -0.9746  1.2472  1.3732
 2175SOL     OW11209  10.660  10.893   6.069  0.7283 -0.1308  0.2017
 2175SOL    HW111210  10.671  10.966   6.007  0.1478  0.8227  1.1947
 2175SOL    HW211211  10.566  10.890   6.085  0.8848 -0.3007  1.1178
 2176SOL     OW11212   0.503   5.708   0.610 -0.3679  0.4424  0.1193
 2176SOL    HW111213   0.442   5.766   0.656 -0.6201  0.4819 -0.2581
 2176SOL    HW211214   0.580   5.704   0.666 -0.4258  0.9836  0.2449
 2177SOL     OW11215   3.024   9.132   1.574 -0.3066  0.7056  0.0964
 2177SOL    HW111216   3.022   9.045   1.534 -0.4789  1.7171 -2.2735
 2177SOL    HW211217   3.101   9.131   1.631 -1.1093 -1.4107  1.2453
 2178SOL     OW11218  11.181  11.561   4.238  0.5134  0.2664 -0.2587
 2178SOL    HW111219  11.137  11.511   4.170 -0.5351  1.5131 -0.5415
 2178SOL    HW211220  11.139  11.534   4.319  0.3481  0.2581 -0.3469
 2179SOL     OW11221   9.782   8.990   0.269 -0.2394 -0.3912  0.1118
 2179SOL    HW111222   9.758   9.079   0.243 -2.3356 -0.4454  1.6107
 2179SOL    HW211223   9.704   8.956   0.313  1.7556 -1.5950  3.0325
 2180SOL     OW11224   0.796   0.151   6.849 -0.2166  0.3008 -0.6204
 2180SOL    HW111225   0.855   0.134   6.922 -0.0151 -1.3020 -1.0997
 2180SOL    HW211226   0.829   0.232   6.810  0.3478  0.5756  0.3906
 2181SOL     OW11227   6.431   4.520   5.205 -0.2234 -0.1480  0.0309
 2181SOL    HW111228   6.363   4.552   5.146 -0.0745  0.2508  0.0751
 2181SOL    HW211229   6.512   4.555   5.169 -0.0041 -0.8509 -0.1815
 2182SOL     OW11230  11.752  11.562   1.330 -0.5434 -0.2471 -0.1190
 2182SOL    HW111231  11.714  11.523   1.409  0.7925 -0.2890  0.5317
 2182SOL    HW211232  11.786  11.487   1.280  3.1916 -0.0546  1.7399
 2183SOL     OW11233   1.348   0.494   2.755  0.0722  0.3117  0.0281
 2183SOL    HW111234   1.283   0.460   2.693  1.0031 -0.1602 -0.7381
 2183SOL    HW211235   1.423   0.436   2.743  0.9911  1.4460  0.1436
 2184SOL     OW11236   2.266   3.624   1.985  0.2914 -0.1068 -0.9230
 2184SOL    HW111237   2.199   3.689   1.962 -1.0593 -1.8196 -2.1657
 2184SOL    HW211238   2.316   3.664   2.056 -1.0656  1.8807 -1.0141
 2185SOL     OW11239   3.902  11.826   4.648  0.1707 -0.3153 -0.0656
 2185SOL    HW111240   3.872  11.908   4.609 -0.7490 -0.0683  1.0805
 2185SOL    HW211241   3.848  11.759   4.606 -1.9003  0.0940  1.7409
 2186SOL     OW11242   7.884   4.629   7.432 -0.7184 -0.8052 -0.6798
 2186SOL    HW111243   7.944   4.612   7.505 -2.3135 -2.9099  0.2390
 2186SOL    HW211244   7.940   4.659   7.361  1.1201 -0.5031  0.8315
 2187SOL     OW11245   1.658   9.279   0.783 -0.1797  0.9647 -0.2334
 2187SOL    HW111246   1.734   9.298   0.729  1.5375  0.4555  1.8367
 2187SOL    HW211247   1.665   9.185   0.803 -0.6083  1.1681  1.0005
 2188SOL     OW11248   8.359   2.844  10.147 -0.0902 -0.1316 -0.0015
 2188SOL    HW111249   8.398   2.841  10.060  1.1289  0.3932  0.5008
 2188SOL    HW211250   8.429   2.813  10.205 -1.2477 -1.5980  0.6920
 2189SOL     OW11251   6.379   4.256   8.027  0.3051  0.0284 -0.5248
 2189SOL    HW111252   6.440   4.290   7.962 -0.6451  1.3323 -0.7689
 2189SOL    HW211253   6.417   4.280   8.111  0.0123  1.1059 -0.6817
 2190SOL     OW11254   5.487   5.418   0.451  0.7636 -0.1854 -0.3600
 2190SOL    HW111255   5.397   5.407   0.480  0.4376 -1.1233 -1.6178
 2190SOL    HW211256   5.539   5.417   0.531 -0.3477  0.5397  0.3913
 2191SOL     OW11257   7.968   2.941  10.816 -0.6123 -0.4447 -0.9866
 2191SOL    HW111258   7.998   2.892  10.893  0.4899  2.0249  0.2630
 2191SOL    HW211259   8.016   2.902  10.743  0.6937 -0.8554  0.0525
 2192SOL     OW11260   4.069   9.450   2.429 -0.4116  0.5022 -0.3199
 2192SOL    HW111261   4.054   9.544   2.436  2.6271  1.0278  0.7218
 2192SOL    HW211262   4.031   9.413   2.508  0.4064  1.2204  0.4289
 2193SOL     OW11263   6.253   3.384   1.526  0.7315 -0.7653  0.2932
 2193SOL    HW111264   6.342   3.384   1.490  0.4512  0.2523 -0.4537
 2193SOL    HW211265   6.249   3.463   1.580  0.0487 -0.4034 -0.2828
 2194SOL     OW11266  11.920   4.802  11.933 -0.6362 -0.5517  0.0591
 2194SOL    HW111267  11.856   4.811  11.862  1.0391 -1.4546 -1.6596
 2194SOL    HW211268  11.904   4.877  11.989 -1.9975  0.2373 -1.2977
 2195SOL     OW11269  11.956   9.984   2.712 -0.1688 -0.3582  0.5606
 2195SOL    HW111270  11.925   9.935   2.635 -0.7266  1.2760 -0.2960
 2195SOL    HW211271  12.050   9.970   2.712  0.0788  0.8531 -1.3885
 2196SOL     OW11272   8.837   5.742   2.730  0.0163 -0.8585 -0.2723
 2196SOL    HW111273   8.802   5.666   2.683 -0.1672 -2.3425  2.1145
 2196SOL    HW211274   8.861   5.708   2.816  1.0645  1.5664  0.4653
 2197SOL     OW11275   5.231   7.811   1.085 -0.0867  0.3146  0.0627
 2197SOL    HW111276   5.280   7.827   1.004 -0.4147  0.3715 -0.1265
 2197SOL    HW211277   5.217   7.716   1.086 -2.2652  0.5498 -1.2482
 2198SOL     OW11278   4.272   8.582   4.988 -0.4336  0.1807  0.5085
 2198SOL    HW111279   4.202   8.523   4.961 -0.5095  0.1360  0.7961
 2198SOL    HW211280   4.291   8.634   4.910 -0.6537  0.0605  0.3734
 2199SOL     OW11281   9.946   4.377   9.034  0.2743  0.2620  0.2178
 2199SOL    HW111282   9.866   4.415   9.070  1.6118  0.9973  2.6679
 2199SOL    HW211283   9.969   4.435   8.961 -0.9323  0.5678  0.0609
 2200SOL     OW11284   4.005   0.492   9.354  0.1977 -0.4604  0.3709
 2200SOL    HW111285   3.994   0.429   9.425 -1.1150 -1.2307 -0.4782
 2200SOL    HW211286   3.973   0.575   9.389  0.5285 -0.5996  1.0063
 2201SOL     OW11287   9.228   6.828  10.276 -0.0623  0.0169  0.2168
 2201SOL    HW111288   9.149   6.850  10.327 -1.4182 -0.6275 -1.5012
 2201SOL    HW211289   9.223   6.883  10.199  0.7380 -0.6379 -0.3177
 2202SOL     OW11290   4.243  11.777   9.092  0.6959  0.3750  0.3257
 2202SOL    HW111291   4.197  11.756   9.010 -1.0598 -1.4729  1.6765
 2202SOL    HW211292   4.211  11.863   9.117 -2.7262 -1.0694  1.5142
 2203SOL     OW11293   5.443   0.417   1.413  0.6136  0.3512 -0.4497
 2203SOL    HW111294   5.397   0.488   1.457 -0.9358 -1.6024  1.2651
 2203SOL    HW211295   5.375   0.367   1.368  0.8759 -2.5894  2.0899
 2204SOL     OW11296   2.760   5.499   3.665 -0.0089  0.8446  0.3455
 2204SOL    HW111297   2.683   5.517   3.718  0.0815 -0.2934  0.8849
 2204SOL    HW211298   2.768   5.403   3.664  0.3148  0.8492 -1.2606
 2205SOL     OW11299   4.772   0.611   2.194 -0.1396 -0.1592  0.1204
 2205SOL    HW111300   4.770   0.592   2.100 -0.0103  0.6183 -0.0417
 2205SOL    HW211301   4.839   0.552   2.229 -0.2658 -0.5283 -0.2468
 2206SOL     OW11302   6.731   2.312  11.116 -0.1015 -0.0745  0.1468
 2206SOL    HW111303   6.735   2.407  11.125 -1.1317  0.0000 -0.0600
 2206SOL    HW211304   6.755   2.278  11.202  0.9253  0.3448  0.0400
 2207SOL     OW11305  10.862   6.848   1.108 -0.2872 -0.2723  0.2562
 2207SOL    HW111306  10.776   6.850   1.150 -0.4009  1.0853  0.0041
 2207SOL    HW211307  10.871   6.934   1.068  0.5202 -0.9445 -1.0987
 2208SOL     OW11308   2.608   1.910   6.953  0.2271 -0.1446  0.2115
 2208SOL    HW111309   2.596   1.938   6.863 -0.2078 -0.2565  0.2314
 2208SOL    HW211310   2.634   1.989   7.000 -1.3893  0.3420  0.3489
 2209SOL     OW11311   8.413   9.725   7.476 -0.2892  0.1251  0.1028
 2209SOL    HW111312   8.495   9.753   7.518 -1.5987  1.9439  1.5985
 2209SOL    HW211313   8.376   9.661   7.537 -0.4398  0.0145 -0.1055
 2210SOL     OW11314   7.441  10.102   1.010 -0.7586 -0.0358  0.6742
 2210SOL    HW111315   7.401  10.181   0.974 -0.7960 -1.1707 -1.9880
 2210SOL    HW211316   7.376  10.033   0.995  0.5035 -1.1294  0.0584
 2211SOL     OW11317   7.446   4.968   9.805  0.0794  0.6727  0.0080
 2211SOL    HW111318   7.534   4.951   9.838 -1.3480 -2.2702  2.9694
 2211SOL    HW211319   7.414   5.043   9.856  1.0733  2.3626 -1.7408
 2212SOL     OW11320   7.198   2.859   0.736 -0.0378 -0.0360 -0.1709
 2212SOL    HW111321   7.196   2.953   0.755 -1.0476  0.6690 -3.2286
 2212SOL    HW211322   7.172   2.853   0.645  1.0060 -3.2518 -0.3648
 2213SOL     OW11323   3.474   4.976   3.506 -0.1796  0.1355  0.4023
 2213SOL    HW111324   3.431   5.046   3.456 -0.2822  1.1115  1.7901
 2213SOL    HW211325   3.435   4.896   3.472 -1.6398  0.8771  0.2062
 2214SOL     OW11326  11.539  10.529   4.213 -0.4496  0.0421 -1.0858
 2214SOL    HW111327  11.447  10.544   4.237 -0.4457 -1.2307 -0.1334
 2214SOL    HW211328  11.537  10.448   4.163  0.2055 -0.2201 -0.6900
 2215SOL     OW11329  10.956  10.488   7.533  0.2670 -0.0411  0.4103
 2215SOL    HW111330  11.048  10.473   7.556  0.3887  0.3365  0.1729
 2215SOL    HW211331  10.952  10.580   7.508 -0.5254  0.4489  2.1423
 2216SOL     OW11332   3.809   6.961   2.019 -0.3604 -0.3517 -0.3563
 2216SOL    HW111333   3.861   6.943   2.098 -0.3782  1.8671  0.2188
 2216SOL    HW211334   3.861   7.026   1.971 -2.0357  1.0551 -0.3395
 2217SOL     OW11335  10.913   3.194   3.617 -0.1174  0.2396 -0.0443
 2217SOL    HW111336  10.983   3.130   3.627 -0.9488 -0.4602  1.5888
 2217SOL    HW211337  10.933   3.239   3.535  2.6110  0.5329  0.7036
 2218SOL     OW11338  11.136   9.604   4.117  1.0226 -0.1774  0.1077
 2218SOL    HW111339  11.147   9.653   4.035 -1.6308 -0.2710 -0.3850
 2218SOL    HW211340  11.047   9.568   4.112  0.8423 -0.3586  2.9546
 2219SOL     OW11341   4.063   5.833   9.646  0.2635  0.4297 -0.3767
 2219SOL    HW111342   4.056   5.929   9.651  1.3297  0.5591 -1.0503
 2219SOL    HW211343   4.044   5.803   9.736 -0.5226  1.2217 -0.2550
 2220SOL     OW11344   7.561  11.261   2.407 -0.6583 -0.1153  0.3003
 2220SOL    HW111345   7.512  11.296   2.482 -0.3649  0.8500  0.0558
 2220SOL    HW211346   7.651  11.253   2.440  0.5928  4.6313 -1.0963
 2221SOL     OW11347  10.699  11.497   2.619 -0.1255 -0.0052  0.0435
 2221SOL    HW111348  10.751  11.421   2.591  0.5425  0.5523 -0.2724
 2221SOL    HW211349  10.733  11.518   2.706 -0.8626 -0.5468  0.4748
 2222SOL     OW11350   2.551   1.357   1.734 -0.6988  0.3114  0.1268
 2222SOL    HW111351   2.495   1.418   1.685 -0.8188 -1.1349 -1.6245
 2222SOL    HW211352   2.637   1.398   1.734 -0.3047 -0.3524 -2.7514
 2223SOL     OW11353   5.798   1.368   7.064 -0.4934 -0.1412  0.2997
 2223SOL    HW111354   5.869   1.408   7.015  0.0520 -0.6216  0.6828
 2223SOL    HW211355   5.724   1.428   7.053  0.1688  0.7337  0.4965
 2224SOL     OW11356   1.551   1.535   4.568  0.3187 -0.0942  0.0223
 2224SOL    HW111357   1.464   1.575   4.563  0.2591 -0.3832 -2.7617
 2224SOL    HW211358   1.612   1.609   4.564  0.2065  0.0158  0.3310
 2225SOL     OW11359   2.419   5.678   1.335  0.6422  0.4394 -0.8441
 2225SOL    HW111360   2.443   5.585   1.337  0.6666  0.4635  0.5864
 2225SOL    HW211361   2.484   5.718   1.277  0.3651 -0.4948 -1.8281
 2226SOL     OW11362   1.580  10.934   0.328 -0.2841 -0.3293  0.1558
 2226SOL    HW111363   1.643  10.998   0.294  0.5123 -1.0318  0.2721
 2226SOL    HW211364   1.624  10.849   0.318 -1.3196 -0.8703  0.0017
 2227SOL     OW11365   0.861   0.078   2.253 -0.2513  0.1148  0.8732
 2227SOL    HW111366   0.919   0.021   2.204 -0.7371 -0.8980  1.4505
 2227SOL    HW211367   0.918   0.148   2.286  0.9757 -1.5918  2.6025
 2228SOL     OW11368   7.610   0.595   3.764 -0.1234 -0.1636 -1.0786
 2228SOL    HW111369   7.653   0.679   3.751  0.1114 -0.3529 -1.5689
 2228SOL    HW211370   7.522   0.607   3.731 -2.2824  1.7396  4.2652
 2229SOL     OW11371   9.258   8.066   8.923 -0.0183  0.1583 -0.6054
 2229SOL    HW111372   9.199   8.142   8.922 -0.9247 -0.4546  1.2405
 2229SOL    HW211373   9.207   7.996   8.884  0.6618  0.3600 -1.9045
 2230SOL     OW11374  11.112   9.807   2.944  0.3343 -0.3428  0.0540
 2230SOL    HW111375  11.063   9.740   2.992  0.6440 -0.1931  0.5955
 2230SOL    HW211376  11.070   9.811   2.859  0.7791 -1.7696 -0.2684
 2231SOL     OW11377   4.184   2.236  10.706 -0.1453 -0.1587  0.1581
 2231SOL    HW111378   4.247   2.166  10.726  0.4566  0.2209 -0.3467
 2231SOL    HW211379   4.210   2.266  10.619 -3.1020 -2.2225 -1.5930
 2232SOL     OW11380   6.875   7.475   2.968  0.4086  0.5789 -0.1845
 2232SOL    HW111381   6.882   7.565   2.937 -0.9364  1.1796  1.1164
 2232SOL    HW211382   6.812   7.433   2.909  0.8281  0.5676 -0.6251
 2233SOL     OW11383   4.347   9.698  11.291  0.0631  0.2288 -0.0566
 2233SOL    HW111384   4.431   9.744  11.288  0.5043 -0.5556  0.1785
 2233SOL    HW211385   4.309   9.712  11.204  0.2198  0.9760 -0.0126
 2234SOL     OW11386  10.841   7.283   8.452 -0.8600  0.4219 -0.3472
 2234SOL    HW111387  10.901   7.210   8.469  0.3707  1.2544 -0.9198
 2234SOL    HW211388  10.779   7.248   8.387 -1.4361 -0.6554  0.7393
 2235SOL     OW11389  11.076  11.259  11.100  0.4756 -0.1794  0.0503
 2235SOL    HW111390  11.078  11.223  11.011  3.0675  1.7449 -0.7730
 2235SOL    HW211391  10.983  11.275  11.117 -0.5140 -4.0227 -0.7571
 2236SOL     OW11392   1.996   2.952   0.707  0.2639  0.0524 -0.5809
 2236SOL    HW111393   1.942   2.935   0.629  2.6095 -0.2429 -2.2704
 2236SOL    HW211394   2.053   2.875   0.713  0.4228  0.2737  1.2074
 2237SOL     OW11395   7.985   3.018  11.299 -0.6440  0.4654  0.6617
 2237SOL    HW111396   7.918   2.984  11.358 -0.2728  1.8341  1.9320
 2237SOL    HW211397   8.062   3.032  11.355  0.0198  0.9500 -0.3348
 2238SOL     OW11398   2.216   8.832   0.109 -0.1287 -0.3218 -0.1279
 2238SOL    HW111399   2.132   8.786   0.116 -0.6006 -0.4085 -4.0292
 2238SOL    HW211400   2.194   8.924   0.120 -0.1432 -0.5131  1.8582
 2239SOL     OW11401   1.424   9.861   1.123 -0.0850  0.2169 -0.4605
 2239SOL    HW111402   1.406   9.812   1.042  0.4040 -0.0134 -0.4309
 2239SOL    HW211403   1.516   9.886   1.117 -0.3152  1.0964 -0.4435
 2240SOL     OW11404   2.253   0.814  10.077  0.4737 -0.0829 -0.2055
 2240SOL    HW111405   2.178   0.792  10.132  0.6898  0.4152  0.3049
 2240SOL    HW211406   2.243   0.759   9.999 -0.1896 -0.3248  0.0415
 2241SOL     OW11407   0.195   9.911   4.993 -0.4735  0.2292 -0.1967
 2241SOL    HW111408   0.236   9.868   5.068 -0.1203 -0.8165 -0.9719
 2241SOL    HW211409   0.125   9.851   4.966 -0.7950  0.7424 -0.5235
 2242SOL     OW11410   2.857   9.731  11.226  0.1632 -0.1522  0.1168
 2242SOL    HW111411   2.784   9.706  11.169 -0.6138 -0.9542  1.4087
 2242SOL    HW211412   2.817   9.788  11.291  0.3073 -1.9030  1.8135
 2243SOL     OW11413   4.599   2.971   0.884 -0.4146 -0.1047 -0.1967
 2243SOL    HW111414   4.596   3.060   0.849 -0.6812 -0.2675 -0.5956
 2243SOL    HW211415   4.507   2.947   0.895 -0.3337  0.0800  0.9842
 2244SOL     OW11416  10.844  10.749   0.175  0.3319  0.1618 -0.5801
 2244SOL    HW111417  10.874  10.738   0.084  1.6318  0.4322 -0.1996
 2244SOL    HW211418  10.775  10.815   0.168 -0.5911 -0.8577 -1.5473
 2245SOL     OW11419   9.478   6.759   6.249 -0.5634 -0.1427  0.4591
 2245SOL    HW111420   9.548   6.714   6.297 -0.1202 -1.8157 -1.6021
 2245SOL    HW211421   9.453   6.697   6.181 -2.5657  1.3212 -0.2181
 2246SOL     OW11422   0.297   0.412   0.034  0.5458  0.2025  0.1255
 2246SOL    HW111423   0.207   0.434   0.012  0.6873 -2.0363 -3.4412
 2246SOL    HW211424   0.289   0.350   0.106 -0.5939  1.3140  1.0107
 2247SOL     OW11425   7.327   1.874   2.938  0.0932  0.2785  0.2042
 2247SOL    HW111426   7.320   1.815   3.013  0.5064 -2.1171 -1.5343
 2247SOL    HW211427   7.417   1.863   2.907 -0.4164  0.2828 -1.3581
 2248SOL     OW11428   7.459   1.526   2.094  0.3485  0.2884  0.7914
 2248SOL    HW111429   7.430   1.506   2.006 -1.5621  0.3304  1.3615
 2248SOL    HW211430   7.527   1.593   2.083 -1.1837  1.7032 -0.5889
 2249SOL     OW11431   7.333   5.614   3.143  0.3250 -0.5079  0.1705
 2249SOL    HW111432   7.292   5.691   3.184  0.8692 -0.4586  0.6420
 2249SOL    HW211433   7.368   5.647   3.060  0.6033 -0.2291  0.3952
 2250SOL     OW11434   6.854   0.065   3.867  0.2334 -0.0311 -0.1219
 2250SOL    HW111435   6.830   0.075   3.776 -0.5809 -0.5580  0.0272
 2250SOL    HW211436   6.838   0.151   3.907 -1.5329 -0.3867 -0.0043
 2251SOL     OW11437   2.043   3.948   0.816  0.2684 -0.5718 -0.3633
 2251SOL    HW111438   2.109   4.002   0.860 -0.8045  1.1639 -0.8092
 2251SOL    HW211439   1.997   3.905   0.888  1.0160 -0.7764  0.0096
 2252SOL     OW11440   1.202  10.686   6.421  0.0010 -0.5591  0.3077
 2252SOL    HW111441   1.203  10.753   6.490  0.5577  0.5341 -0.7190
 2252SOL    HW211442   1.136  10.623   6.450 -1.6826  1.2403  0.5801
 2253SOL     OW11443   1.934   5.690   8.340 -0.3559 -0.2007 -0.6772
 2253SOL    HW111444   1.932   5.596   8.318  0.3916  0.1237 -2.3538
 2253SOL    HW211445   1.843   5.715   8.350 -0.5446 -1.2012  0.2750
 2254SOL     OW11446   8.258   5.720   9.477  0.1571 -0.1815  0.5605
 2254SOL    HW111447   8.275   5.640   9.527 -0.1856 -0.1855  0.6713
 2254SOL    HW211448   8.248   5.690   9.387 -0.6687 -0.3547  0.7013
 2255SOL     OW11449   4.107   6.740   0.183  0.4968  0.0868 -0.0764
 2255SOL    HW111450   4.050   6.724   0.258  0.0421  0.8542 -0.2516
 2255SOL    HW211451   4.161   6.661   0.177  1.7724  0.7059  2.1342
 2256SOL     OW11452   6.639   3.289   9.939 -0.0842  0.3244  0.1807
 2256SOL    HW111453   6.636   3.197   9.965 -0.6100  0.1670 -0.4209
 2256SOL    HW211454   6.548   3.314   9.927  0.0375  1.0191  0.6364
 2257SOL     OW11455   8.643   4.974   8.090 -0.2262  0.1627  0.2231
 2257SOL    HW111456   8.612   4.980   8.000 -1.0119  0.8673  0.5148
 2257SOL    HW211457   8.569   4.936   8.138 -0.0187  0.2934  0.6516
 2258SOL     OW11458   0.339   2.767   4.418 -0.6797  0.4459  0.2864
 2258SOL    HW111459   0.330   2.863   4.420 -0.2971  0.5526 -1.4195
 2258SOL    HW211460   0.422   2.753   4.371 -2.2454 -0.7309 -2.3271
 2259SOL     OW11461   3.558  10.966   9.838  0.1563 -0.6089 -0.1818
 2259SOL    HW111462   3.507  10.889   9.861 -0.5731 -0.5466 -1.5084
 2259SOL    HW211463   3.497  11.023   9.791  1.4679 -0.6497 -2.0565
 2260SOL     OW11464   6.896   3.983   4.624  0.8151  0.4155  0.1753
 2260SOL    HW111465   6.917   3.936   4.705 -0.5038  1.3335  1.0992
 2260SOL    HW211466   6.837   4.054   4.652 -2.1685 -1.0193 -1.9189
 2261SOL     OW11467   3.012   6.010   9.126 -0.7034  0.3920  0.1975
 2261SOL    HW111468   2.990   6.044   9.213 -2.2304  2.9655 -1.0986
 2261SOL    HW211469   3.067   6.077   9.087  0.4331 -0.9965 -0.6666
 2262SOL     OW11470   1.281   4.754   2.470 -0.2642  0.2771 -0.1658
 2262SOL    HW111471   1.375   4.764   2.453 -0.8214  0.7708 -3.6877
 2262SOL    HW211472   1.272   4.666   2.507  1.5266 -0.0288 -0.3876
 2263SOL     OW11473   7.910   2.834   3.849 -0.5125 -0.4473  0.9387
 2263SOL    HW111474   7.846   2.885   3.799 -0.3043 -2.0228 -1.0564
 2263SOL    HW211475   7.861   2.798   3.923 -0.8700  1.8041  1.8833
 2264SOL     OW11476   9.449   3.985   4.248  0.0042 -0.3719  0.2347
 2264SOL    HW111477   9.388   4.058   4.238  0.1683 -0.0188  1.6057
 2264SOL    HW211478   9.438   3.933   4.169 -0.5996  0.7822 -0.4595
 2265SOL     OW11479   8.074  10.055   2.929 -0.3297  0.0393  0.9864
 2265SOL    HW111480   8.032  10.136   2.960  0.7126  0.5519  1.1236
 2265SOL    HW211481   8.148  10.086   2.877 -1.0900 -0.8338 -0.6699
 2266SOL     OW11482   4.800   1.120  11.552  0.7558 -0.5373 -0.0750
 2266SOL    HW111483   4.741   1.195  11.556 -0.6896 -1.5614 -1.2798
 2266SOL    HW211484   4.804   1.097  11.459 -1.4439 -3.8970  0.5178
 2267SOL     OW11485   2.237   6.344   1.327 -0.1944  0.0414 -0.2063
 2267SOL    HW111486   2.180   6.364   1.401  0.9287  1.4410  0.3121
 2267SOL    HW211487   2.299   6.279   1.361 -0.5125 -0.3456 -0.3432
 2268SOL     OW11488   5.163   4.848  11.881  0.1391 -0.4787  0.5876
 2268SOL    HW111489   5.213   4.920  11.919  1.1305 -1.0692  0.4396
 2268SOL    HW211490   5.206   4.769  11.913 -0.0951 -0.9963 -0.3358
 2269SOL     OW11491   1.312   7.773  11.317  0.0532  0.2619 -0.4996
 2269SOL    HW111492   1.224   7.809  11.307 -1.0864 -2.6051 -1.7650
 2269SOL    HW211493   1.323   7.713  11.244  2.1809 -1.1788  0.8673
 2270SOL     OW11494   9.509   1.427   5.046  0.7337 -0.2067 -0.2488
 2270SOL    HW111495   9.495   1.511   5.090  1.1291 -0.7498  0.9663
 2270SOL    HW211496   9.476   1.440   4.957  0.7364  1.2083 -0.0601
 2271SOL     OW11497  10.981   9.157   7.971 -0.2830  0.3706  0.7749
 2271SOL    HW111498  10.998   9.222   8.040 -0.1784 -0.2191  1.3177
 2271SOL    HW211499  11.000   9.203   7.889  3.2897  0.0774  1.2487
 2272SOL     OW11500   8.233   9.931   9.751 -0.7869  0.0080  0.3896
 2272SOL    HW111501   8.195  10.002   9.699 -0.9835 -0.3559  0.0333
 2272SOL    HW211502   8.177   9.855   9.733  0.7863 -0.8727 -1.0820
 2273SOL     OW11503   0.848   5.008   9.754 -0.0976 -0.0842 -0.4450
 2273SOL    HW111504   0.873   5.020   9.662  1.8593  1.7998  0.2451
 2273SOL    HW211505   0.920   4.959   9.793 -0.3141  0.2089  0.3384
 2274SOL     OW11506   0.001   9.868   1.142  0.2540  0.1185 -1.1785
 2274SOL    HW111507  -0.036   9.911   1.065  0.5727  0.2486 -1.2614
 2274SOL    HW211508   0.091   9.899   1.146  0.2420  0.1026 -0.7553
 2275SOL     OW11509   1.085   5.369   1.143 -0.3516  0.1425  0.0676
 2275SOL    HW111510   1.174   5.395   1.168 -0.8334 -0.3046  2.4187
 2275SOL    HW211511   1.064   5.426   1.069  1.7052  0.5618 -0.2622
 2276SOL     OW11512   2.351   6.615   4.763  0.8039  0.2423 -0.3447
 2276SOL    HW111513   2.313   6.528   4.777  0.4425  0.2906 -0.9859
 2276SOL    HW211514   2.427   6.599   4.705  1.0220  0.2980 -0.0759
 2277SOL     OW11515  11.539  10.483   1.801  0.0469 -0.3975 -0.5610
 2277SOL    HW111516  11.448  10.483   1.772  0.0351 -0.9363 -0.5380
 2277SOL    HW211517  11.552  10.397   1.841  0.6370 -0.4320 -0.8048
 2278SOL     OW11518   8.378   8.438   2.657 -0.8287 -0.6648 -0.1531
 2278SOL    HW111519   8.461   8.432   2.610  1.2625 -1.7324  3.3009
 2278SOL    HW211520   8.396   8.495   2.732 -4.2446  1.8384 -0.9645
 2279SOL     OW11521   1.431   3.938   6.089 -0.3689  0.0300  0.5746
 2279SOL    HW111522   1.364   3.889   6.137 -1.0041  1.1235  0.8197
 2279SOL    HW211523   1.384   3.979   6.016  0.4928 -1.2096 -0.7521
 2280SOL     OW11524   8.220   5.188   8.625  0.1746  0.7177 -0.2315
 2280SOL    HW111525   8.142   5.133   8.615  0.4271 -0.0050  1.4551
 2280SOL    HW211526   8.288   5.127   8.653  0.3281  1.9234  2.2260
 2281SOL     OW11527   6.918   9.762   3.634  0.2884  0.6006  0.0843
 2281SOL    HW111528   6.833   9.775   3.677 -0.6169 -0.8705 -1.1481
 2281SOL    HW211529   6.956   9.686   3.678  0.8400  1.0715  0.4293
 2282SOL     OW11530   9.617   9.026  11.810 -0.3227  0.7727  0.8124
 2282SOL    HW111531   9.609   8.975  11.891 -0.1979 -0.6388 -0.0376
 2282SOL    HW211532   9.529   9.021  11.771 -0.1577  0.7215  0.4486
 2283SOL     OW11533   1.698  10.955   4.385 -0.2347  0.0398  0.0109
 2283SOL    HW111534   1.676  10.870   4.422 -1.3466 -0.1374 -0.9962
 2283SOL    HW211535   1.623  11.010   4.405 -0.2811  0.2948 -0.8254
 2284SOL     OW11536   8.823   3.598  11.299 -0.0292 -0.2109 -0.6110
 2284SOL    HW111537   8.869   3.640  11.371  0.1523  0.0774 -0.8964
 2284SOL    HW211538   8.841   3.653  11.223  0.2570 -0.8251 -0.9976
 2285SOL     OW11539   0.802   5.160   8.852  0.0838 -0.5410 -0.1857
 2285SOL    HW111540   0.832   5.088   8.907 -0.1160 -1.8419 -1.7077
 2285SOL    HW211541   0.881   5.187   8.804 -0.0161 -0.2902 -0.2105
 2286SOL     OW11542   5.654   9.147   1.344  0.7932  0.1506  0.3452
 2286SOL    HW111543   5.679   9.071   1.291  0.9422  0.9317 -0.7596
 2286SOL    HW211544   5.738   9.180   1.378  0.9206  0.7108 -0.4664
 2287SOL     OW11545   1.166   5.207   9.638  0.2742  0.0343  0.5570
 2287SOL    HW111546   1.070   5.209   9.637  0.2301  0.0435  2.0547
 2287SOL    HW211547   1.188   5.123   9.677  0.8230  0.7128  1.7846
 2288SOL     OW11548   9.705   1.995   3.877 -0.4207 -0.0007 -0.2012
 2288SOL    HW111549   9.683   1.939   3.951 -2.8040 -1.0613 -1.6119
 2288SOL    HW211550   9.754   1.939   3.817 -0.2548  0.2683 -0.3211
 2289SOL     OW11551   0.529  11.665  11.278  0.0833  0.0619 -0.6076
 2289SOL    HW111552   0.574  11.645  11.196 -0.6313 -0.7826 -0.8033
 2289SOL    HW211553   0.450  11.611  11.277  0.1310 -0.0762  0.7030
 2290SOL     OW11554  11.518  11.106   5.619  0.0203  0.0739 -0.0044
 2290SOL    HW111555  11.466  11.104   5.700 -1.3487 -0.3143 -0.8551
 2290SOL    HW211556  11.608  11.116   5.649 -0.2996 -1.4519  1.6348
 2291SOL     OW11557   7.880   1.072   5.689  0.2769  0.1476 -0.4167
 2291SOL    HW111558   7.920   1.144   5.738  0.6413 -1.7399  2.2331
 2291SOL    HW211559   7.808   1.042   5.743 -0.1492 -1.2300 -1.6757
 2292SOL     OW11560  10.615   5.171   2.179  0.1481 -0.8231  0.0341
 2292SOL    HW111561  10.629   5.124   2.096 -2.3757  0.3051 -1.1187
 2292SOL    HW211562  10.527   5.146   2.206  0.0559  0.6283  1.1738
 2293SOL     OW11563   7.324   6.690  11.859  0.2709  0.1020  0.4268
 2293SOL    HW111564   7.346   6.626  11.927  0.3510  0.5775  0.8564
 2293SOL    HW211565   7.347   6.774  11.898  0.8070  0.3450 -0.3838
 2294SOL     OW11566   2.500   0.533   0.282 -0.3152 -0.3270  0.6315
 2294SOL    HW111567   2.416   0.578   0.275 -0.3736 -0.5602 -0.4099
 2294SOL    HW211568   2.499   0.493   0.368 -1.3707 -0.5182  0.5474
 2295SOL     OW11569   5.816   4.541   3.504 -0.0178 -0.0878  0.4666
 2295SOL    HW111570   5.892   4.513   3.556  2.0453  3.2615 -0.4586
 2295SOL    HW211571   5.819   4.486   3.426  0.9722 -0.6097  0.8458
 2296SOL     OW11572  11.972   7.103   4.137 -0.4706 -0.0290 -0.3857
 2296SOL    HW111573  11.891   7.125   4.181 -0.2223 -0.6396  0.3901
 2296SOL    HW211574  12.011   7.033   4.190 -0.4399 -1.1896 -1.8548
 2297SOL     OW11575   3.079   4.783   0.295 -0.2141  0.0055  0.1683
 2297SOL    HW111576   3.107   4.868   0.328  0.2666  0.2070 -0.7318
 2297SOL    HW211577   3.104   4.721   0.364 -0.1573  0.5366  0.6262
 2298SOL     OW11578   0.620   8.363   3.935  0.8696 -0.2123 -0.7260
 2298SOL    HW111579   0.645   8.357   4.027  0.3081 -1.9286 -0.6492
 2298SOL    HW211580   0.646   8.451   3.909 -1.3395  1.3697  1.7957
 2299SOL     OW11581   9.939   6.099   2.481 -0.0530  0.1325 -0.1992
 2299SOL    HW111582   9.843   6.097   2.487 -0.2882 -3.5445 -2.0815
 2299SOL    HW211583   9.969   6.062   2.564 -0.2754  0.6049  0.0965
 2300SOL     OW11584   6.857   1.185   0.051 -0.1263  0.2958  0.0636
 2300SOL    HW111585   6.912   1.193  -0.026  0.3329 -0.2463  0.3354
 2300SOL    HW211586   6.872   1.266   0.100  2.2873 -0.8183  1.3371
 2301SOL     OW11587   0.245   8.154   1.069 -0.5565 -0.5907  0.3659
 2301SOL    HW111588   0.172   8.095   1.049  0.9590 -2.4896  0.1470
 2301SOL    HW211589   0.225   8.189   1.156 -1.5968 -1.2762  0.4157
 2302SOL     OW11590  10.077   1.670   8.049 -0.4162  0.1977  0.2533
 2302SOL    HW111591  10.002   1.612   8.067 -1.0499  0.5373 -1.1594
 2302SOL    HW211592  10.048   1.756   8.078  0.1267  0.0323  1.3586
 2303SOL     OW11593   3.029   2.376   5.392  0.0965 -0.0510  0.2569
 2303SOL    HW111594   3.109   2.373   5.339  0.3787  0.6428  0.6314
 2303SOL    HW211595   2.967   2.320   5.345 -0.2387  1.9259 -1.7648
 2304SOL     OW11596   0.557   0.506   7.425  0.0888 -0.7373 -0.1331
 2304SOL    HW111597   0.530   0.459   7.347  1.3750 -1.4101 -0.2135
 2304SOL    HW211598   0.479   0.510   7.480 -0.4404 -1.6154 -0.7983
 2305SOL     OW11599   2.628   5.156   2.263  0.8985 -0.2198  0.1968
 2305SOL    HW111600   2.567   5.219   2.301  0.8899 -0.2985  0.3120
 2305SOL    HW211601   2.698   5.147   2.328  2.3123  1.7225 -0.9264
 2306SOL     OW11602   6.071   4.068   7.382 -0.4198 -0.3273 -0.2046
 2306SOL    HW111603   6.140   4.074   7.315  0.3390  2.9977  0.6907
 2306SOL    HW211604   6.110   4.016   7.452  1.6085  2.0456  0.5784
 2307SOL     OW11605   4.496  10.694   9.800  0.4792  0.2581 -0.0776
 2307SOL    HW111606   4.413  10.708   9.754 -0.2055 -2.2835  0.2454
 2307SOL    HW211607   4.471  10.688   9.893  0.7584 -1.8625 -0.0881
 2308SOL     OW11608   0.110   7.534   9.592 -0.0479 -0.3617 -0.6681
 2308SOL    HW111609   0.057   7.476   9.537  0.2365 -1.0098 -0.2729
 2308SOL    HW211610   0.131   7.609   9.536 -1.1465 -0.2242 -0.9112
 2309SOL     OW11611   9.177   0.262   9.922 -0.0730 -0.2103 -0.1821
 2309SOL    HW111612   9.152   0.338   9.974  0.7678  1.6645 -2.4016
 2309SOL    HW211613   9.270   0.250   9.940 -0.6571 -2.3973  2.0795
 2310SOL     OW11614   3.982   6.923   4.467 -0.1316 -0.8567  0.0589
 2310SOL    HW111615   3.982   7.003   4.519 -0.4564  0.9997 -2.6060
 2310SOL    HW211616   3.893   6.915   4.435  0.7612  0.0116 -2.9035
 2311SOL     OW11617   3.876   6.265   7.029  0.0830  0.0623 -0.0455
 2311SOL    HW111618   3.943   6.332   7.040 -0.5507  0.5617  0.9644
 2311SOL    HW211619   3.889   6.205   7.103 -0.7555  0.3281  0.3264
 2312SOL     OW11620   3.651   0.646   1.457  1.0411  0.1472  0.1324
 2312SOL    HW111621   3.621   0.668   1.369 -0.9453 -1.4313  0.3183
 2312SOL    HW211622   3.580   0.593   1.494  2.0322  0.3212  2.5117
 2313SOL     OW11623   2.729   2.357   7.624  0.0272 -0.2587  0.1019
 2313SOL    HW111624   2.670   2.365   7.549  0.8882  2.7406 -0.4144
 2313SOL    HW211625   2.697   2.423   7.686  2.0762  0.6422  0.2945
 2314SOL     OW11626   3.793   9.801   9.838 -0.3072  0.7624 -0.4507
 2314SOL    HW111627   3.765   9.710   9.847  0.3854  0.3949 -1.8157
 2314SOL    HW211628   3.715   9.847   9.807 -0.6805  0.6694  0.3158
 2315SOL     OW11629   8.551  11.548   0.360  0.0053 -0.5344 -0.5002
 2315SOL    HW111630   8.547  11.499   0.277  1.9000  0.8853 -1.5169
 2315SOL    HW211631   8.626  11.510   0.406  1.0951  0.9200 -1.0162
 2316SOL     OW11632   6.949  11.255   4.286  0.1901 -0.4224 -0.3970
 2316SOL    HW111633   6.928  11.296   4.202 -1.5411 -1.8664 -0.7304
 2316SOL    HW211634   6.878  11.191   4.300  0.6939 -0.5590  1.9296
 2317SOL     OW11635   6.512  10.799   4.870  0.8373  0.0426 -0.3970
 2317SOL    HW111636   6.443  10.747   4.913  0.1107  0.7036 -0.7399
 2317SOL    HW211637   6.477  10.818   4.783  0.4309  2.3417  0.2136
 2318SOL     OW11638   2.795   9.582   4.398 -0.0808  0.0129  0.1203
 2318SOL    HW111639   2.880   9.621   4.378  1.1944 -1.5896  1.9766
 2318SOL    HW211640   2.742   9.654   4.431  1.1268  0.7751  0.4566
 2319SOL     OW11641   6.722   3.761   2.096  0.3408  0.3356 -0.0857
 2319SOL    HW111642   6.775   3.701   2.148 -0.1506 -1.5222 -1.6137
 2319SOL    HW211643   6.786   3.817   2.052  1.0241 -1.0541 -0.9386
 2320SOL     OW11644   5.735   8.930  11.711  0.2831  0.4766 -0.5312
 2320SOL    HW111645   5.642   8.946  11.726  0.4926  0.9430  0.3913
 2320SOL    HW211646   5.753   8.969  11.626  0.3233  3.5274  0.7361
 2321SOL     OW11647   0.329  11.565   5.649  0.2732  0.7579 -0.5818
 2321SOL    HW111648   0.285  11.628   5.592  0.2802  0.4195 -0.9677
 2321SOL    HW211649   0.346  11.490   5.592 -0.5211  0.0548  0.1009
 2322SOL     OW11650   4.486   1.266   1.602  0.0241  0.3659  0.2706
 2322SOL    HW111651   4.552   1.242   1.537  0.5953  0.2448  0.8939
 2322SOL    HW211652   4.531   1.326   1.661 -0.4330  0.3036  0.6883
 2323SOL     OW11653   2.119   6.720   8.321 -0.0427  0.3260  0.6575
 2323SOL    HW111654   2.118   6.816   8.310 -0.0739  0.1439 -1.1658
 2323SOL    HW211655   2.201   6.692   8.280 -1.2021 -0.6525 -1.0754
 2324SOL     OW11656   6.075   5.330  11.712 -0.2816 -0.5871 -0.3321
 2324SOL    HW111657   6.134   5.256  11.720  0.0348 -0.2280  0.9999
 2324SOL    HW211658   6.018   5.324  11.789  0.5555  1.2149  0.4883
 2325SOL     OW11659   1.606   4.700   0.750  0.1751  0.3327  0.0408
 2325SOL    HW111660   1.515   4.678   0.772  0.6549 -0.9296  0.9162
 2325SOL    HW211661   1.601   4.786   0.710 -1.2472  1.0143  1.5415
 2326SOL     OW11662   0.633  11.065   9.655 -0.6873 -0.0758 -0.5797
 2326SOL    HW111663   0.665  11.034   9.570  0.8153  2.2952 -0.9783
 2326SOL    HW211664   0.685  11.018   9.719  0.6171  0.5611 -1.1265
 2327SOL     OW11665   7.653   4.459   9.444 -0.9127 -0.3108  0.8167
 2327SOL    HW111666   7.695   4.529   9.495 -0.7951  1.0690 -1.0922
 2327SOL    HW211667   7.724   4.400   9.422 -0.1826  1.1267 -0.9511
 2328SOL     OW11668  10.506  11.684   7.603 -0.3171  0.2763 -0.2498
 2328SOL    HW111669  10.513  11.608   7.660  0.2392  0.3188 -0.2545
 2328SOL    HW211670  10.412  11.699   7.594 -0.4224 -0.2299 -0.0125
 2329SOL     OW11671   7.034  10.693   4.363 -0.4761  0.3718  0.0986
 2329SOL    HW111672   7.076  10.700   4.449  0.2173  1.5941 -0.3127
 2329SOL    HW211673   7.090  10.633   4.314  0.0475  0.9402 -0.0114
 2330SOL     OW11674   2.021  11.495   7.705  0.2823 -0.2897 -0.4970
 2330SOL    HW111675   1.994  11.405   7.725 -0.0454 -0.2030 -0.5437
 2330SOL    HW211676   2.104  11.506   7.752  0.7655 -0.8973 -1.1867
 2331SOL     OW11677  11.810  11.880   2.099  0.3774  0.2494  0.1547
 2331SOL    HW111678  11.735  11.892   2.157  0.8105  0.6361  0.6537
 2331SOL    HW211679  11.773  11.879   2.011 -0.1395  1.2121  0.3377
 2332SOL     OW11680   9.006   0.204   5.760  0.5673 -0.7522 -0.5055
 2332SOL    HW111681   9.002   0.202   5.855 -0.1028 -0.9656 -0.5332
 2332SOL    HW211682   9.055   0.125   5.736 -1.7622 -2.2998 -0.4394
 2333SOL     OW11683   9.125   8.251   3.895  0.1445  0.3420 -0.3343
 2333SOL    HW111684   9.142   8.169   3.942 -0.0409  1.6276  2.1600
 2333SOL    HW211685   9.030   8.257   3.891  0.1575  0.0465 -1.3016
 2334SOL     OW11686   2.760   3.847   6.165 -0.3390  0.4099 -0.0006
 2334SOL    HW111687   2.759   3.940   6.140 -0.1468  0.3899 -0.0898
 2334SOL    HW211688   2.764   3.848   6.260  1.8089  0.5341 -0.0401
 2335SOL     OW11689   3.658   9.983   0.289 -0.2385 -0.4389 -0.8151
 2335SOL    HW111690   3.574   9.937   0.293 -0.1839 -0.4691  1.9303
 2335SOL    HW211691   3.687   9.988   0.380  2.6018 -0.1429 -1.6343
 2336SOL     OW11692  11.517   8.136   6.359 -0.0924 -0.3530  0.2159
 2336SOL    HW111693  11.608   8.114   6.340  0.0824 -0.7988  1.4674
 2336SOL    HW211694  11.503   8.107   6.449 -1.2071  0.5470  0.3689
 2337SOL     OW11695   0.470   0.299   0.932  0.0366 -0.0369 -0.3102
 2337SOL    HW111696   0.502   0.214   0.961 -0.9401 -0.5661 -0.7468
 2337SOL    HW211697   0.518   0.317   0.851 -0.4120 -0.5979 -0.7051
 2338SOL     OW11698  11.113   5.513   4.669  0.7919  0.1751  0.0655
 2338SOL    HW111699  11.147   5.562   4.595  1.3579 -0.0400  0.1801
 2338SOL    HW211700  11.183   5.515   4.734  0.7813 -0.6785  0.1178
 2339SOL     OW11701   9.157   8.370   7.234  0.1150  0.5616 -0.5861
 2339SOL    HW111702   9.233   8.371   7.291  0.0487  0.0505 -0.4810
 2339SOL    HW211703   9.162   8.452   7.184 -0.5853  1.7044  1.1363
 2340SOL     OW11704   7.363   3.930   8.694  0.2179 -0.0275 -0.5778
 2340SOL    HW111705   7.295   3.879   8.737  0.3766  0.0065 -0.2839
 2340SOL    HW211706   7.445   3.902   8.735  0.0498  3.1635  2.4409
 2341SOL     OW11707   4.244   0.907   0.943  0.4066  0.4379  0.5157
 2341SOL    HW111708   4.338   0.917   0.927  0.3944 -1.5388 -1.1158
 2341SOL    HW211709   4.236   0.908   1.039  2.1272  0.2027  0.6961
 2342SOL     OW11710   8.801   1.938   8.362 -0.3337 -0.1046 -0.0317
 2342SOL    HW111711   8.791   1.843   8.348 -0.8904 -0.5530  2.6974
 2342SOL    HW211712   8.715   1.974   8.343 -0.4211 -0.3267 -0.0617
 2343SOL     OW11713   2.683   5.124   0.407  0.1512  0.0633 -0.1534
 2343SOL    HW111714   2.606   5.068   0.396  1.1920 -1.2595 -1.1218
 2343SOL    HW211715   2.649   5.213   0.404 -1.4379 -0.4997  0.3526
 2344SOL     OW11716   2.336   7.569   9.035  0.6576  0.0801 -0.0994
 2344SOL    HW111717   2.243   7.563   9.011  0.9902 -1.1081 -1.1725
 2344SOL    HW211718   2.373   7.485   9.009  1.8256  0.1129  1.3333
 2345SOL     OW11719   6.968   4.039   2.401  0.3247  0.2605  0.6771
 2345SOL    HW111720   6.942   4.128   2.426  0.4467 -0.2027  2.6147
 2345SOL    HW211721   7.037   4.052   2.335 -0.7452  1.5470 -0.2543
 2346SOL     OW11722   2.530   7.998   4.631  0.4881 -0.2752 -0.6224
 2346SOL    HW111723   2.609   7.945   4.616  0.6298 -0.0263 -0.7666
 2346SOL    HW211724   2.561   8.088   4.625  0.1533 -0.1759 -0.8612
 2347SOL     OW11725   9.552   2.694   8.362  0.0336  0.1734  0.2793
 2347SOL    HW111726   9.599   2.770   8.396  2.0928 -0.0174 -1.9297
 2347SOL    HW211727   9.608   2.659   8.293 -2.7762 -0.8863 -1.6461
 2348SOL     OW11728   6.803   8.534   0.047  0.1171  0.0758 -0.2543
 2348SOL    HW111729   6.743   8.592   0.001 -1.0533 -0.3893  0.6364
 2348SOL    HW211730   6.867   8.592   0.088  0.1614  0.5911 -1.0396
 2349SOL     OW11731   2.248   4.080   1.031  0.4932 -0.1968  0.4266
 2349SOL    HW111732   2.280   4.083   0.941  0.9343  0.4652  0.5962
 2349SOL    HW211733   2.258   4.170   1.063  0.5481 -0.4736  1.2073
 2350SOL     OW11734   1.834  10.507   2.985  0.6014 -0.0090 -0.1446
 2350SOL    HW111735   1.837  10.537   3.076  1.2467  0.1180 -0.1992
 2350SOL    HW211736   1.924  10.517   2.954  0.7788 -1.7085 -0.2712
 2351SOL     OW11737  11.357   7.860  10.535  0.2589  0.2121 -0.5827
 2351SOL    HW111738  11.429   7.846  10.473  0.1906 -0.7078 -0.4685
 2351SOL    HW211739  11.368   7.950  10.564  0.5852  0.4974 -1.5625
 2352SOL     OW11740  11.832   4.898   2.623  0.1873 -0.8306 -0.3070
 2352SOL    HW111741  11.765   4.876   2.688 -0.1361 -1.0481 -0.7109
 2352SOL    HW211742  11.811   4.844   2.547 -0.1102  0.2380 -1.0085
 2353SOL     OW11743  11.384   4.185   9.713 -0.0092 -0.1035 -0.8323
 2353SOL    HW111744  11.453   4.152   9.655 -1.7805  0.0032 -3.1411
 2353SOL    HW211745  11.427   4.254   9.765  1.4902  0.4087 -2.6406
 2354SOL     OW11746   8.861   9.819   1.603  0.3878 -0.3705  0.8512
 2354SOL    HW111747   8.821   9.839   1.688 -1.2970  1.0898 -0.2192
 2354SOL    HW211748   8.950   9.851   1.611 -0.3395  1.7054  1.4240
 2355SOL     OW11749  10.326   7.399   8.815 -0.0321  0.0722  0.2030
 2355SOL    HW111750  10.364   7.437   8.735 -2.4482  0.8611 -0.6680
 2355SOL    HW211751  10.244   7.446   8.826  0.0301 -0.3339  2.9696
 2356SOL     OW11752   6.096   6.722  11.827  0.7944 -0.1728 -0.4015
 2356SOL    HW111753   6.004   6.718  11.854  0.7503  0.3400 -0.4813
 2356SOL    HW211754   6.136   6.645  11.867  1.0972  1.3600  2.4674
 2357SOL     OW11755   1.764   6.642   6.323 -0.2681 -0.0244 -0.1993
 2357SOL    HW111756   1.818   6.587   6.381  0.7245  0.4152 -0.6796
 2357SOL    HW211757   1.708   6.579   6.276 -0.4518 -0.4571  0.5854
 2358SOL     OW11758   5.192   9.382   5.396  0.0935 -0.6779 -0.1931
 2358SOL    HW111759   5.132   9.388   5.470 -0.3464 -0.5553 -0.5543
 2358SOL    HW211760   5.140   9.343   5.326  0.4324 -0.5535 -0.5201
 2359SOL     OW11761  11.472   2.667   4.030 -0.3297  0.1282 -0.3578
 2359SOL    HW111762  11.381   2.679   4.055  0.1239 -0.2860  1.6714
 2359SOL    HW211763  11.497   2.750   3.989 -1.1703  0.8252  0.5050
 2360SOL     OW11764  11.549   6.800   6.463 -0.7071  0.2539  0.0603
 2360SOL    HW111765  11.486   6.729   6.455 -0.6020  0.2183 -0.4420
 2360SOL    HW211766  11.503   6.867   6.514 -1.2700  0.3636 -0.5785
 2361SOL     OW11767   8.322   3.132   4.446  0.6563 -0.1961  0.1920
 2361SOL    HW111768   8.301   3.104   4.356  2.2843 -2.6767  0.5126
 2361SOL    HW211769   8.247   3.187   4.471 -0.0771  0.1879 -2.4916
 2362SOL     OW11770   6.722   3.874   0.168 -0.6684 -0.2969  0.1355
 2362SOL    HW111771   6.765   3.958   0.182 -1.3224  0.1389 -0.4422
 2362SOL    HW211772   6.645   3.875   0.224 -0.8338 -0.3902 -0.0851
 2363SOL     OW11773   0.305   4.286  11.586 -0.4137 -0.5201  0.5710
 2363SOL    HW111774   0.367   4.332  11.643 -0.9030  0.9269 -0.0121
 2363SOL    HW211775   0.329   4.314  11.498 -1.1520 -0.8914  0.2462
 2364SOL     OW11776   5.781   3.800   0.104 -0.0462 -0.2883  0.0872
 2364SOL    HW111777   5.834   3.772   0.178 -0.8075  0.3024  0.8724
 2364SOL    HW211778   5.834   3.778   0.027  1.2477  0.1021  0.8319
 2365SOL     OW11779   1.319   6.233   4.198 -0.5562 -0.1721 -0.0969
 2365SOL    HW111780   1.241   6.198   4.242 -0.2461  0.2807  0.8396
 2365SOL    HW211781   1.306   6.212   4.105 -1.4926 -0.6524  0.1332
 2366SOL     OW11782  10.207   9.886   8.895 -0.0898  0.0106  0.0794
 2366SOL    HW111783  10.120   9.912   8.864 -0.0278  0.5953  0.3795
 2366SOL    HW211784  10.257   9.967   8.897  0.8436 -0.4889 -1.2681
 2367SOL     OW11785   6.084   7.167   8.406 -0.3052 -0.3201  0.1432
 2367SOL    HW111786   6.171   7.150   8.442 -0.8273  1.2617  2.4176
 2367SOL    HW211787   6.091   7.253   8.365 -0.9964  0.3584  1.3621
 2368SOL     OW11788   9.070  10.458   1.866 -0.3226  0.0948 -0.6880
 2368SOL    HW111789   9.150  10.441   1.816  0.2942 -0.6883  0.5285
 2368SOL    HW211790   9.093  10.439   1.957 -1.4857  1.2809 -0.1033
 2369SOL     OW11791   7.956   3.644   7.538  0.6184 -0.1508  0.1602
 2369SOL    HW111792   7.974   3.577   7.605  0.2920 -1.3612 -0.9292
 2369SOL    HW211793   7.880   3.692   7.572  1.1341 -0.0273  1.1680
 2370SOL     OW11794  11.174   6.977   7.224  0.1139 -0.0496 -0.4253
 2370SOL    HW111795  11.088   6.972   7.266  0.3610 -2.0849 -0.0490
 2370SOL    HW211796  11.154   6.999   7.133 -1.1240 -3.1494 -1.0266
 2371SOL     OW11797   7.831  10.662   5.785  0.2010  0.1612  0.2608
 2371SOL    HW111798   7.849  10.572   5.759  0.2475  0.2845 -0.1387
 2371SOL    HW211799   7.842  10.662   5.880 -2.4460 -0.8634  0.6439
 2372SOL     OW11800   8.913   1.649   5.431 -0.1083 -0.0382  0.0090
 2372SOL    HW111801   8.887   1.740   5.417  0.8530  0.4063  1.0173
 2372SOL    HW211802   8.987   1.635   5.372 -0.4258 -0.2801 -0.3501
 2373SOL     OW11803   5.054   5.031   1.222  0.3492 -0.3655  0.2037
 2373SOL    HW111804   5.102   4.958   1.185  0.8723 -0.5555  1.2139
 2373SOL    HW211805   4.980   4.991   1.268  0.7118 -0.2797  0.8728
 2374SOL     OW11806   9.835   1.929   9.019 -0.3921 -0.2642  0.3816
 2374SOL    HW111807   9.772   1.858   9.033  0.0640 -0.8499 -0.4212
 2374SOL    HW211808   9.837   1.940   8.924 -0.3008  0.6870  0.4932
 2375SOL     OW11809   1.533  11.282   9.278 -0.2148  0.9441  0.2608
 2375SOL    HW111810   1.610  11.334   9.301  0.7388  0.0001 -0.6971
 2375SOL    HW211811   1.505  11.242   9.360 -0.0989  1.8294  0.7402
 2376SOL     OW11812  10.672   2.996   2.422  0.7687  0.2639  0.0607
 2376SOL    HW111813  10.719   3.060   2.368  0.5447  0.0350 -0.4159
 2376SOL    HW211814  10.701   2.911   2.388  1.9606  0.0851  1.4600
 2377SOL     OW11815   7.965   6.140   1.562  0.0846 -0.2939  0.4258
 2377SOL    HW111816   7.950   6.228   1.596  0.9232  0.6296 -1.4272
 2377SOL    HW211817   8.057   6.122   1.581  0.9747  0.8039 -2.3251
 2378SOL     OW11818  11.317   8.068   5.131  0.0383 -0.1049 -0.2177
 2378SOL    HW111819  11.237   8.025   5.159 -1.1740  1.9417 -0.3425
 2378SOL    HW211820  11.317   8.152   5.177  2.2183 -0.1060 -0.0845
 2379SOL     OW11821   2.651   0.805   1.995 -0.0954  0.5012  0.5961
 2379SOL    HW111822   2.562   0.837   1.983  0.5012  1.4900 -1.8600
 2379SOL    HW211823   2.647   0.713   1.971  0.0277  1.2453 -2.7762
 2380SOL     OW11824   3.266   4.294   5.325  0.1878 -0.5565 -0.2372
 2380SOL    HW111825   3.279   4.355   5.252 -0.8546 -1.6011 -1.3458
 2380SOL    HW211826   3.215   4.222   5.287  1.4320 -2.1660  1.0083
 2381SOL     OW11827   9.140   6.593   9.441  0.2244  0.1973  0.0929
 2381SOL    HW111828   9.174   6.507   9.466 -1.1620 -0.3410  0.2233
 2381SOL    HW211829   9.170   6.652   9.510  3.2242  0.3657 -1.1876
 2382SOL     OW11830  10.491   7.731   6.123  0.2867  0.6238 -0.4860
 2382SOL    HW111831  10.425   7.796   6.148 -0.3086  0.9035 -2.5355
 2382SOL    HW211832  10.553   7.780   6.068  1.2694 -0.0014  0.0539
 2383SOL     OW11833   8.825   5.870   9.127 -0.1966  0.4682 -0.1772
 2383SOL    HW111834   8.792   5.826   9.048  1.0369 -0.8553  0.0082
 2383SOL    HW211835   8.809   5.963   9.110 -0.9592  0.1259 -1.5128
 2384SOL     OW11836  11.968  10.712   0.696 -0.2191  0.3215  0.2950
 2384SOL    HW111837  11.935  10.800   0.713 -0.3211  0.2062  0.6854
 2384SOL    HW211838  12.052  10.708   0.741 -0.6954 -0.1306  1.1576
 2385SOL     OW11839   5.164   3.505   4.491 -0.6317 -0.4160  0.3714
 2385SOL    HW111840   5.139   3.538   4.577 -1.1944 -0.4534  0.2234
 2385SOL    HW211841   5.260   3.504   4.493 -0.6415 -0.4516  1.0091
 2386SOL     OW11842  10.277  10.798   5.274 -0.3423 -0.4023 -0.1125
 2386SOL    HW111843  10.238  10.866   5.330 -0.5556  1.5817 -2.5051
 2386SOL    HW211844  10.366  10.828   5.257  0.1342 -1.6182  0.1403
 2387SOL     OW11845  11.743   3.234  10.019 -0.0110 -0.1548 -0.5904
 2387SOL    HW111846  11.812   3.254   9.955 -0.8435  0.6558 -1.2588
 2387SOL    HW211847  11.791   3.216  10.100  0.9572  2.1680 -0.5619
 2388SOL     OW11848   2.637   4.294   5.507 -0.6643  0.4758 -0.1877
 2388SOL    HW111849   2.666   4.361   5.445 -0.3786  0.4429 -0.0892
 2388SOL    HW211850   2.560   4.255   5.466 -1.2720  1.3539  0.0703
 2389SOL     OW11851   0.648   9.281   0.594 -0.1244 -0.2735 -0.1159
 2389SOL    HW111852   0.639   9.187   0.612  1.1877 -0.5484 -0.7790
 2389SOL    HW211853   0.596   9.323   0.662 -0.0183 -1.4511  0.7319
 2390SOL     OW11854   0.993   9.340   9.552  0.3247  0.4986 -0.4030
 2390SOL    HW111855   0.909   9.357   9.595 -0.2583 -0.6296 -1.0440
 2390SOL    HW211856   1.020   9.255   9.586  0.1698 -0.1176 -1.7523
 2391SOL     OW11857   9.957   5.667   3.850 -0.0805  0.2831  0.2453
 2391SOL    HW111858   9.865   5.649   3.871 -0.3675  1.2522 -0.1395
 2391SOL    HW211859  10.006   5.618   3.916 -0.8730 -0.0482  0.6075
 2392SOL     OW11860  10.291   7.033   1.966 -0.4467 -0.0899 -0.0065
 2392SOL    HW111861  10.256   6.947   1.992  0.1197  0.3640  2.5786
 2392SOL    HW211862  10.268   7.041   1.874 -1.6481 -2.4681 -0.0070
 2393SOL     OW11863   1.888   5.687  11.599 -0.1401  0.2074  0.0406
 2393SOL    HW111864   1.805   5.717  11.562 -0.1848  0.3093  0.2196
 2393SOL    HW211865   1.934   5.647  11.526  0.4689  1.8507 -0.5198
 2394SOL     OW11866  11.138   9.940   7.002 -0.5524 -0.0382  0.3623
 2394SOL    HW111867  11.176  10.000   7.066 -1.3055 -0.2771  1.0404
 2394SOL    HW211868  11.052   9.977   6.983  0.7618  1.7855 -2.8653
 2395SOL     OW11869   0.220   2.662   5.472 -0.0403 -0.0787  0.1740
 2395SOL    HW111870   0.179   2.725   5.531  1.3738  0.6485  0.4156
 2395SOL    HW211871   0.309   2.650   5.507  0.8119  0.2940 -1.7271
 2396SOL     OW11872   2.343   5.273   8.071 -0.0841  0.1597 -0.2198
 2396SOL    HW111873   2.274   5.339   8.073  0.2931  0.5460  0.1987
 2396SOL    HW211874   2.408   5.307   8.010  1.3273  1.4386  1.8736
 2397SOL     OW11875   7.923   8.811   2.452 -0.3175  0.1336  0.1554
 2397SOL    HW111876   7.983   8.792   2.525 -0.1660 -0.3618 -0.0928
 2397SOL    HW211877   7.871   8.731   2.443 -0.4019  0.2296 -0.2169
 2398SOL     OW11878   0.136   3.291   5.642  0.0367  0.5704  0.2663
 2398SOL    HW111879   0.198   3.360   5.617  0.6181  0.1867  0.6381
 2398SOL    HW211880   0.140   3.228   5.570 -2.4952  2.1774 -1.4368
 2399SOL     OW11881   0.929   1.039   4.526  0.1412 -0.3102  0.8646
 2399SOL    HW111882   0.983   0.961   4.513  1.7020  1.0756 -1.8208
 2399SOL    HW211883   0.980   1.110   4.489 -1.5416  1.9403  2.5635
 2400SOL     OW11884   8.269   7.372   1.861 -0.4130 -0.7282  0.3716
 2400SOL    HW111885   8.221   7.440   1.815  3.0848  1.7578 -0.0158
 2400SOL    HW211886   8.356   7.373   1.823  0.1325 -4.9794  0.9397
 2401SOL     OW11887   1.322   5.846   0.332  0.3004  0.6097 -0.4823
 2401SOL    HW111888   1.339   5.888   0.416  0.6426 -0.8770  0.2313
 2401SOL    HW211889   1.343   5.912   0.267  0.3829  1.6714  0.5929
 2402SOL     OW11890   2.573   9.044   1.728  0.8790 -0.6036  0.0774
 2402SOL    HW111891   2.481   9.033   1.754  0.5665  3.7071  1.6508
 2402SOL    HW211892   2.568   9.089   1.644  1.5901 -0.7942 -0.0712
 2403SOL     OW11893   1.851   1.649   6.537 -0.1920  0.4095 -0.0483
 2403SOL    HW111894   1.811   1.604   6.463 -0.7163 -0.2201  0.5902
 2403SOL    HW211895   1.934   1.682   6.504  0.7753 -2.0314 -0.2847
 2404SOL     OW11896   9.095  11.776   3.583  0.1715  0.0841 -0.2241
 2404SOL    HW111897   9.097  11.791   3.677  1.0256 -0.5420 -0.1341
 2404SOL    HW211898   9.058  11.856   3.546  0.3656  0.5560  0.5936
 2405SOL     OW11899   5.137   1.463  10.568 -0.0419 -0.1099  0.3249
 2405SOL    HW111900   5.111   1.553  10.552  1.8658  0.4510  0.0562
 2405SOL    HW211901   5.087   1.411  10.504 -1.9026  0.5971  1.1538
 2406SOL     OW11902  10.085   8.027   4.743 -0.0957  0.4169 -0.4044
 2406SOL    HW111903  10.024   7.990   4.807 -0.4012 -0.1880 -1.0294
 2406SOL    HW211904  10.039   8.021   4.659  1.1900 -0.9966 -1.0615
 2407SOL     OW11905   2.025   8.732   8.687 -0.6585  0.3356 -0.6682
 2407SOL    HW111906   1.991   8.750   8.774 -1.9252 -1.7157 -0.6625
 2407SOL    HW211907   2.074   8.650   8.696  0.1122  0.6655 -1.6746
 2408SOL     OW11908   2.638  10.734   7.491  0.0802 -0.8816  0.2915
 2408SOL    HW111909   2.584  10.743   7.412  1.0196  0.2444 -0.2532
 2408SOL    HW211910   2.684  10.817   7.498  0.5466 -1.2335  1.6463
 2409SOL     OW11911   6.782   4.095   1.332  0.2289 -0.2948 -0.1876
 2409SOL    HW111912   6.820   4.173   1.372  0.2376 -1.1494  1.5532
 2409SOL    HW211913   6.702   4.080   1.382 -0.6277 -0.5024 -1.5644
 2410SOL     OW11914   8.014   7.430  10.827 -0.2725  0.3174 -0.8680
 2410SOL    HW111915   7.925   7.465  10.822 -0.9557 -1.0269  0.9429
 2410SOL    HW211916   8.003   7.339  10.853  1.6645  0.3937  0.4365
 2411SOL     OW11917   1.861  11.193  11.752  0.0135 -0.2652  0.4240
 2411SOL    HW111918   1.944  11.180  11.798  0.4444 -1.3030 -0.5823
 2411SOL    HW211919   1.794  11.168  11.816  0.5776 -1.3005  0.6482
 2412SOL     OW11920  10.890   7.784   6.828 -0.1206  0.2825 -0.5547
 2412SOL    HW111921  10.813   7.731   6.806 -1.1641  1.5586 -0.1145
 2412SOL    HW211922  10.884   7.796   6.923 -0.6468  2.2096 -0.7816
 2413SOL     OW11923   3.433   1.402   3.454  0.4627 -0.1295 -0.4622
 2413SOL    HW111924   3.394   1.445   3.530  0.3707 -0.0986 -0.5268
 2413SOL    HW211925   3.413   1.460   3.381 -0.9387 -0.9963 -0.8016
 2414SOL     OW11926   9.630   8.051   6.508  0.0043  0.0298 -0.2269
 2414SOL    HW111927   9.667   8.081   6.591  0.7182  0.6402 -0.7498
 2414SOL    HW211928   9.671   8.107   6.442  0.3655 -1.2407 -1.1077
 2415SOL     OW11929   8.202   3.973   6.662 -0.1494  0.5205 -0.2192
 2415SOL    HW111930   8.130   3.910   6.668  0.5346 -0.2440  0.1266
 2415SOL    HW211931   8.214   3.987   6.568  0.3156 -0.6087 -0.3396
 2416SOL     OW11932  10.186   3.435   2.465  0.2086 -0.1571 -0.7531
 2416SOL    HW111933  10.264   3.476   2.503 -1.1099  1.3138  0.5010
 2416SOL    HW211934  10.144   3.504   2.415 -0.5054 -0.8224 -1.0928
 2417SOL     OW11935   2.783   7.696   3.170  0.0128 -0.1338  0.0674
 2417SOL    HW111936   2.873   7.710   3.199  0.2998 -1.0859 -0.3204
 2417SOL    HW211937   2.784   7.723   3.078 -0.8110  2.5613  0.7630
 2418SOL     OW11938   1.074  11.718   2.600 -0.2392 -0.1025  0.1956
 2418SOL    HW111939   1.051  11.685   2.513 -1.1969 -1.7214  1.0155
 2418SOL    HW211940   1.075  11.813   2.590  0.6896 -0.2797 -1.8107
 2419SOL     OW11941   4.065   8.716   6.344  0.5368  0.5870  0.9712
 2419SOL    HW111942   4.127   8.709   6.271 -0.1060  0.0758  0.4621
 2419SOL    HW211943   3.997   8.775   6.312  0.7850  1.2111  1.5590
 2420SOL     OW11944   5.875   5.871   1.786  0.4468 -0.0506  0.2973
 2420SOL    HW111945   5.950   5.929   1.773 -0.8352  1.1664 -2.3889
 2420SOL    HW211946   5.873   5.817   1.707 -3.1141  2.0017 -1.2557
 2421SOL     OW11947   8.117   8.069   4.530  0.0203 -0.4853 -0.2533
 2421SOL    HW111948   8.134   7.984   4.570  2.0879 -0.0046  0.0328
 2421SOL    HW211949   8.184   8.126   4.568 -1.1886  1.2285 -0.6011
 2422SOL     OW11950   8.856   9.267   8.268  0.5288  0.2717  0.3829
 2422SOL    HW111951   8.794   9.200   8.239 -2.0498  1.5164  2.6240
 2422SOL    HW211952   8.874   9.245   8.359  4.0213 -0.3678 -0.3040
 2423SOL     OW11953  10.138   8.376   4.113  0.2917 -0.1390 -0.7221
 2423SOL    HW111954  10.187   8.383   4.031 -1.7281 -0.2622 -1.9997
 2423SOL    HW211955  10.056   8.333   4.089  0.0319 -1.0782  1.5626
 2424SOL     OW11956   2.995   4.240   9.662 -0.3704 -0.3617  0.6376
 2424SOL    HW111957   2.977   4.234   9.569 -2.2047 -1.3012  1.0070
 2424SOL    HW211958   2.917   4.282   9.699 -0.2227 -1.1514  1.8958
 2425SOL     OW11959  10.787   5.425   7.892 -0.3002  0.1407 -0.1834
 2425SOL    HW111960  10.806   5.475   7.971  0.3691  1.3507 -1.0653
 2425SOL    HW211961  10.873   5.411   7.852 -0.3572 -2.5698  0.4900
 2426SOL     OW11962   5.993   5.078   5.575 -0.4928  0.7533  0.3776
 2426SOL    HW111963   6.002   4.985   5.554  0.0190  0.8838  0.0143
 2426SOL    HW211964   6.017   5.084   5.668  0.1213  0.6168  0.2334
 2427SOL     OW11965   4.730   1.651   1.134 -0.5273  0.2161 -0.1059
 2427SOL    HW111966   4.662   1.598   1.093  1.6952 -3.6437  0.7609
 2427SOL    HW211967   4.738   1.616   1.222  1.1256  2.0625  0.5468
 2428SOL     OW11968   6.265   5.138   9.517  0.8973 -0.0803  0.1436
 2428SOL    HW111969   6.283   5.067   9.579  2.6674 -0.6323 -0.9178
 2428SOL    HW211970   6.261   5.094   9.432 -0.6650  0.7653 -0.2495
 2429SOL     OW11971  10.370   9.288   7.199  1.0591 -0.5707 -0.2428
 2429SOL    HW111972  10.299   9.330   7.150 -0.5556  0.0845  2.4793
 2429SOL    HW211973  10.375   9.199   7.162  0.8138  0.2372 -2.3815
 2430SOL     OW11974   8.317   7.372   9.790 -0.1950  0.7860 -0.0043
 2430SOL    HW111975   8.369   7.395   9.867 -0.6441  1.7856  0.0124
 2430SOL    HW211976   8.370   7.400   9.715 -0.8451  2.1530  0.0219
 2431SOL     OW11977   3.573   5.317   8.852 -0.3471  0.7817 -0.3044
 2431SOL    HW111978   3.625   5.394   8.828  1.5834  0.0755  1.3061
 2431SOL    HW211979   3.525   5.295   8.772  0.3151  2.6622 -1.2905
 2432SOL     OW11980   1.698   5.487  10.686  0.7731 -0.3323 -0.4239
 2432SOL    HW111981   1.698   5.544  10.763  0.5429 -0.2008 -0.5189
 2432SOL    HW211982   1.625   5.519  10.633  0.4672 -0.8859 -0.3493
 2433SOL     OW11983  10.069   6.143   8.257 -0.1662  0.1043  0.3980
 2433SOL    HW111984  10.074   6.050   8.275  0.6075 -0.1622 -1.0270
 2433SOL    HW211985  10.016   6.149   8.177  2.0089  0.6155 -1.0898
 2434SOL     OW11986   4.413   2.136   5.351  0.0676 -0.0530  0.2046
 2434SOL    HW111987   4.427   2.191   5.274 -1.3037 -0.0419 -0.0683
 2434SOL    HW211988   4.321   2.151   5.374  0.2833 -0.5542  1.4546
 2435SOL     OW11989   6.430   2.378   8.315 -0.3632  0.3170  0.0693
 2435SOL    HW111990   6.435   2.419   8.229  0.2011  2.8259  1.2228
 2435SOL    HW211991   6.375   2.437   8.367  3.0473  1.4653  2.7180
 2436SOL     OW11992   1.300  11.604   7.534  0.3954  0.5386  0.1654
 2436SOL    HW111993   1.359  11.664   7.580  0.2257  0.8849 -0.0622
 2436SOL    HW211994   1.332  11.517   7.556  1.9707  0.7254 -1.2132
 2437SOL     OW11995   7.993  10.446   8.041  0.6489  0.2932 -0.5021
 2437SOL    HW111996   7.920  10.397   8.004  1.7671 -1.2349 -0.7881
 2437SOL    HW211997   8.002  10.412   8.130  0.9741  0.5226 -0.4455
 2438SOL     OW11998   6.213   2.921   2.653  0.3562  0.1163  0.0395
 2438SOL    HW111999   6.263   2.848   2.617  1.2302  0.0822  1.2905
 2438SOL    HW212000   6.189   2.893   2.741  1.2564  1.5742  0.7808
 2439SOL     OW12001   5.807  11.042   8.131 -0.4759 -0.1896  0.2645
 2439SOL    HW112002   5.784  11.132   8.106 -1.3848 -0.5364 -0.2346
 2439SOL    HW212003   5.902  11.040   8.129 -0.4636  0.4605 -0.8776
 2440SOL     OW12004   4.654  10.486   6.841 -0.5718 -0.2586  0.2804
 2440SOL    HW112005   4.637  10.417   6.905  0.2633 -0.2639  0.5067
 2440SOL    HW212006   4.568  10.506   6.804 -1.3247  0.6965  2.3739
 2441SOL     OW12007   8.713   0.655   6.931 -0.1315  0.4324  0.3372
 2441SOL    HW112008   8.724   0.561   6.949 -0.1918  0.1574 -1.0065
 2441SOL    HW212009   8.785   0.676   6.872 -0.8943  0.9293 -0.4222
 2442SOL     OW12010  11.663   2.813  10.871 -0.1052 -0.3869  0.4328
 2442SOL    HW112011  11.573   2.803  10.902 -0.8483  0.0293 -1.4695
 2442SOL    HW212012  11.708   2.734  10.901 -1.2829 -0.9356  0.8003
 2443SOL     OW12013   5.651   9.944   3.200 -0.3376  0.3023 -0.2163
 2443SOL    HW112014   5.689   9.897   3.274  0.1070 -1.7587 -1.6680
 2443SOL    HW212015   5.692  10.031   3.203 -0.7941  0.5114  2.2515
 2444SOL     OW12016   7.947   7.000   2.482  0.3829 -0.3032  0.4848
 2444SOL    HW112017   7.898   6.994   2.400  2.2943  1.5071 -0.8928
 2444SOL    HW212018   7.976   6.911   2.500 -0.1771 -0.7449 -0.7100
 2445SOL     OW12019   0.530   5.234   8.385  0.0402  0.0058 -0.2098
 2445SOL    HW112020   0.539   5.204   8.294  2.1929 -2.5161  0.7114
 2445SOL    HW212021   0.497   5.158   8.433 -1.6321  1.4638  1.0918
 2446SOL     OW12022   4.097   0.022   2.528 -0.2800  0.4196 -0.1006
 2446SOL    HW112023   4.136   0.074   2.599 -1.2997  1.9137 -0.5802
 2446SOL    HW212024   4.145   0.050   2.449  1.3134 -1.7195  0.0094
 2447SOL     OW12025   1.589   6.314  11.589 -0.4772  0.0934 -0.6334
 2447SOL    HW112026   1.633   6.231  11.609  0.5203  1.0729  1.6670
 2447SOL    HW212027   1.657   6.368  11.549  0.3561  1.3275  2.1741
 2448SOL     OW12028   3.785   4.251   2.461  0.1686  0.0701 -0.2083
 2448SOL    HW112029   3.795   4.161   2.430  1.9379  0.6138 -1.4198
 2448SOL    HW212030   3.697   4.276   2.435 -0.5083 -1.4313  0.5410
 2449SOL     OW12031   1.581   3.375   8.203  0.3203 -0.5976 -0.7807
 2449SOL    HW112032   1.591   3.364   8.109  0.9754  0.3167 -0.8300
 2449SOL    HW212033   1.611   3.464   8.221  1.1006 -1.0773  0.4219
 2450SOL     OW12034   1.014  11.211   1.342  0.1445  0.0628 -1.1641
 2450SOL    HW112035   1.043  11.137   1.288  0.1909 -0.0413 -0.9968
 2450SOL    HW212036   0.951  11.173   1.403 -0.0653  0.2202 -1.2810
 2451SOL     OW12037   5.546   9.414   3.391 -0.2238  0.0059  0.6200
 2451SOL    HW112038   5.516   9.497   3.429  0.9892  0.1160  1.4050
 2451SOL    HW212039   5.466   9.369   3.366 -1.0961  0.1839  2.8123
 2452SOL     OW12040  11.931  10.544   4.724 -0.2072  0.2362  0.8279
 2452SOL    HW112041  11.992  10.611   4.755 -0.5978  0.6316  0.7519
 2452SOL    HW212042  11.915  10.490   4.801 -0.2589  0.5161  1.0164
 2453SOL     OW12043   2.261  11.667   1.348  0.6718  0.2419 -0.3283
 2453SOL    HW112044   2.292  11.664   1.258  1.0486  1.9169 -0.2761
 2453SOL    HW212045   2.338  11.692   1.399  0.6829 -1.5215  0.6055
 2454SOL     OW12046   2.445   6.267   5.659  0.2319  0.3484 -0.0515
 2454SOL    HW112047   2.506   6.228   5.597  0.9163  1.7159 -0.2743
 2454SOL    HW212048   2.358   6.243   5.626  0.5955  0.8038 -1.3692
 2455SOL     OW12049   5.638   5.949   4.435  0.3515 -0.4416 -0.3469
 2455SOL    HW112050   5.611   6.031   4.393 -1.2842 -0.2184  1.0228
 2455SOL    HW212051   5.655   5.973   4.526  1.0792 -1.4199 -0.2099
 2456SOL     OW12052   0.700   4.293   1.138 -0.0309 -0.0319  0.4039
 2456SOL    HW112053   0.674   4.235   1.211 -0.0245 -1.1474 -0.4511
 2456SOL    HW212054   0.750   4.363   1.180 -0.1870 -0.5526  1.4977
 2457SOL     OW12055   0.130   9.034   0.654  0.2008  0.2509  0.3974
 2457SOL    HW112056   0.055   9.042   0.713 -0.6057  0.9703 -0.6891
 2457SOL    HW212057   0.189   8.974   0.699 -0.0097  1.3817  2.3244
 2458SOL     OW12058   2.822  11.887   2.228  0.6242 -0.4263 -0.0099
 2458SOL    HW112059   2.816  11.860   2.320 -0.4286 -3.8570 -0.9479
 2458SOL    HW212060   2.915  11.899   2.213  0.8689 -0.4919  1.3007
 2459SOL     OW12061   4.918   6.316   5.394  0.1916 -0.2189 -0.1217
 2459SOL    HW112062   4.898   6.296   5.486  0.0175  0.3933 -0.0264
 2459SOL    HW212063   4.932   6.230   5.354  2.6687 -0.4527  1.0134
 2460SOL     OW12064   1.160   2.566   8.394 -0.1167 -0.2437  0.2931
 2460SOL    HW112065   1.070   2.542   8.371  0.5892 -3.0344  0.0806
 2460SOL    HW212066   1.176   2.520   8.477  1.2826 -0.2511  0.0408
 2461SOL     OW12067   3.361   2.454   3.097 -0.1893  0.0185 -0.2553
 2461SOL    HW112068   3.266   2.450   3.098 -0.1657 -0.4667  0.0924
 2461SOL    HW212069   3.385   2.494   3.180 -0.0115 -1.8534  0.6528
 2462SOL     OW12070   7.650   2.421   0.656  0.1248  0.4002 -0.1835
 2462SOL    HW112071   7.721   2.483   0.642  0.6734 -0.6677 -2.7637
 2462SOL    HW212072   7.688   2.352   0.710  0.5342  0.6744 -0.1196
 2463SOL     OW12073   9.506   1.844   2.590  0.1386  0.2714  0.1131
 2463SOL    HW112074   9.535   1.865   2.501 -1.3880 -2.1033 -1.0731
 2463SOL    HW212075   9.537   1.916   2.644  2.9644  0.7530 -1.9726
 2464SOL     OW12076   2.783   1.956   3.600  0.3477  0.5397  0.0771
 2464SOL    HW112077   2.877   1.947   3.584  0.3581 -0.6585  0.6634
 2464SOL    HW212078   2.774   1.956   3.695 -0.2093  1.2097  0.0312
 2465SOL     OW12079   4.791   5.449   2.667  0.4965 -0.0738  0.0411
 2465SOL    HW112080   4.749   5.370   2.634  0.7178  0.0450 -0.5311
 2465SOL    HW212081   4.718   5.506   2.692  0.1792  0.9298 -2.7794
 2466SOL     OW12082   1.342  11.297   3.320  0.2424  0.6349  0.1008
 2466SOL    HW112083   1.407  11.313   3.251  1.5089 -1.3077  0.7753
 2466SOL    HW212084   1.264  11.268   3.272  1.3399 -1.4365 -0.5741
 2467SOL     OW12085   9.217   4.169   6.825  0.1822 -0.5916  0.1429
 2467SOL    HW112086   9.246   4.224   6.898  1.9487 -0.5137 -0.5559
 2467SOL    HW212087   9.298   4.132   6.789 -0.0512  2.3431 -4.1473
 2468SOL     OW12088  11.344  11.789   8.775  0.1234 -0.5630 -0.4446
 2468SOL    HW112089  11.362  11.844   8.851  0.1105  2.3443 -2.3841
 2468SOL    HW212090  11.249  11.795   8.763  0.0039 -1.7478 -0.2040
 2469SOL     OW12091   3.862  10.777  10.632 -0.5360 -0.1973  0.1198
 2469SOL    HW112092   3.826  10.794  10.719 -1.7045 -1.2539 -0.1223
 2469SOL    HW212093   3.860  10.681  10.623  1.7296 -0.2804 -0.2101
 2470SOL     OW12094   8.840   2.538   2.793  0.1813  0.4494  0.5541
 2470SOL    HW112095   8.855   2.447   2.766  0.9457  1.0535 -1.2578
 2470SOL    HW212096   8.855   2.538   2.887 -1.3181 -1.5876  0.8725
 2471SOL     OW12097   2.139  10.194  10.401  0.0791 -0.0833  0.0588
 2471SOL    HW112098   2.120  10.124  10.338  2.6356 -0.5649 -0.3134
 2471SOL    HW212099   2.235  10.195  10.406  0.0354  2.0804  1.5810
 2472SOL     OW12100   3.616   1.109   7.996  0.2797  0.5658  0.4307
 2472SOL    HW112101   3.680   1.090   7.928 -1.1042 -0.7752 -0.5572
 2472SOL    HW212102   3.595   1.201   7.983  2.0338  1.0661  0.8425
 2473SOL     OW12103   8.989   4.068   8.104  0.6395  0.2443 -0.4400
 2473SOL    HW112104   9.004   4.055   8.198  0.6346  2.3737 -0.1075
 2473SOL    HW212105   8.912   4.014   8.085  1.1803 -0.9452  0.5386
 2474SOL     OW12106   0.223   6.364   9.767 -0.3388 -0.2558 -0.2704
 2474SOL    HW112107   0.190   6.413   9.692 -1.0176  0.0991  0.2406
 2474SOL    HW212108   0.238   6.432   9.834  1.0454 -0.4540 -0.3398
 2475SOL     OW12109   8.993   8.609   3.478 -0.3682  0.1750  0.2567
 2475SOL    HW112110   8.963   8.533   3.428 -1.0808  0.4578  0.2439
 2475SOL    HW212111   8.941   8.606   3.558  0.8141 -0.3234  1.0449
 2476SOL     OW12112   7.224   7.683   7.893 -0.4624  0.1113 -0.7405
 2476SOL    HW112113   7.216   7.603   7.944  0.5987 -0.1869 -1.0191
 2476SOL    HW212114   7.142   7.690   7.844 -2.6010  1.6829  2.7329
 2477SOL     OW12115   0.960   1.234   1.310  0.4305  0.1569 -0.3479
 2477SOL    HW112116   0.907   1.228   1.230  1.0583  1.9783 -0.9574
 2477SOL    HW212117   1.050   1.245   1.278  0.9569 -1.0316  0.6526
 2478SOL     OW12118  10.814   0.541   2.143 -0.1442  0.3324  0.3430
 2478SOL    HW112119  10.720   0.528   2.161 -0.5244  0.9009 -1.0796
 2478SOL    HW212120  10.839   0.466   2.090  0.4091 -0.1899  1.3150
 2479SOL     OW12121   0.259   3.867   1.237  0.0011 -0.2116 -0.2554
 2479SOL    HW112122   0.338   3.921   1.229  0.1433 -0.5375 -1.2372
 2479SOL    HW212123   0.229   3.881   1.326  0.8311  0.3926 -0.0590
 2480SOL     OW12124   4.204   2.359   4.275 -0.2722 -0.2978 -0.1302
 2480SOL    HW112125   4.115   2.324   4.263  0.4704 -2.5154  0.3427
 2480SOL    HW212126   4.214   2.424   4.205 -2.1706 -0.1436 -0.3171
 2481SOL     OW12127   0.569   4.807   0.217  0.0616 -0.1171 -0.1503
 2481SOL    HW112128   0.627   4.739   0.250  0.8916  0.8018  0.3535
 2481SOL    HW212129   0.628   4.878   0.191 -0.8432  0.8922  0.4656
 2482SOL     OW12130  11.045   6.231   2.781  0.1400  0.4655 -0.2397
 2482SOL    HW112131  10.954   6.241   2.809  0.3355 -0.6343  0.8800
 2482SOL    HW212132  11.091   6.198   2.859  1.0864 -0.9670 -1.3383
 2483SOL     OW12133   8.295   5.492   5.995  0.1702  0.3550 -0.4177
 2483SOL    HW112134   8.246   5.537   5.927 -0.0328 -0.1326 -0.6014
 2483SOL    HW212135   8.364   5.445   5.947 -0.8512 -1.1775 -0.4765
 2484SOL     OW12136   4.807   6.188   3.385 -0.0321  0.0788  0.3006
 2484SOL    HW112137   4.838   6.208   3.296  0.1332  0.2594  0.4002
 2484SOL    HW212138   4.797   6.274   3.427  0.2551 -0.0282  0.5843
 2485SOL     OW12139   6.651   1.325   5.888  0.0478 -0.6793 -0.1254
 2485SOL    HW112140   6.651   1.291   5.978 -0.1566  0.4389  0.3242
 2485SOL    HW212141   6.574   1.382   5.884 -0.1287 -0.9788 -1.1221
 2486SOL     OW12142   6.977   9.975   6.779 -0.7087 -0.1897 -0.3365
 2486SOL    HW112143   6.937  10.025   6.851 -0.5662 -1.5633  0.7383
 2486SOL    HW212144   7.069   9.998   6.783 -0.7880  0.1403 -0.4083
 2487SOL     OW12145   6.277   8.934   5.623  0.2181  0.0480  0.3437
 2487SOL    HW112146   6.307   9.011   5.672  0.8334 -0.2891  0.5055
 2487SOL    HW212147   6.327   8.861   5.660 -1.5157 -0.7048  1.3031
 2488SOL     OW12148   0.008   1.482  10.702 -0.1767 -0.2061  0.2040
 2488SOL    HW112149   0.060   1.402  10.707 -0.0818 -0.3515 -1.9781
 2488SOL    HW212150  -0.081   1.455  10.725 -0.6153 -1.5271 -2.5449
 2489SOL     OW12151   9.759   9.284   1.388  0.0351 -0.3443  0.1235
 2489SOL    HW112152   9.742   9.222   1.317 -0.2390 -1.3447  1.0374
 2489SOL    HW212153   9.673   9.315   1.415  0.2122  1.5190 -1.1999
 2490SOL     OW12154   4.262   2.289  10.248  0.1730 -0.4890  0.2257
 2490SOL    HW112155   4.317   2.365  10.269  1.7326 -1.7600  0.8861
 2490SOL    HW212156   4.324   2.218  10.230 -1.1817 -1.0645 -2.8132
 2491SOL     OW12157   4.347  10.084   7.258 -0.3148 -0.0037  0.0438
 2491SOL    HW112158   4.264  10.039   7.273 -1.3293  1.3064 -1.3009
 2491SOL    HW212159   4.375  10.113   7.345 -2.2844  1.1993  0.3357
 2492SOL     OW12160   2.829   6.930   7.884  0.3304  0.0969 -0.2374
 2492SOL    HW112161   2.882   6.892   7.815 -0.4436 -2.2365  0.3672
 2492SOL    HW212162   2.815   7.021   7.857  0.9575 -0.4482 -2.5721
 2493SOL     OW12163   2.795   9.501   9.824 -0.1215  0.6356  0.0237
 2493SOL    HW112164   2.878   9.496   9.873  0.3159 -0.3481 -0.7827
 2493SOL    HW212165   2.777   9.410   9.799 -1.4011  0.8596  0.0904
 2494SOL     OW12166   1.472  10.620   2.183 -0.0064  0.4383  0.3726
 2494SOL    HW112167   1.568  10.624   2.183  0.0142  0.8113 -1.2671
 2494SOL    HW212168   1.446  10.684   2.118 -1.3581 -0.0121  0.4508
 2495SOL     OW12169   2.270   0.853   5.899 -0.4074  0.0425 -0.3018
 2495SOL    HW112170   2.211   0.789   5.940 -1.4578  1.5410  0.6120
 2495SOL    HW212171   2.316   0.894   5.972  0.5505  0.0979 -0.9085
 2496SOL     OW12172   8.541   0.183   6.947 -0.9042  0.0941 -0.4409
 2496SOL    HW112173   8.606   0.129   6.990 -1.6226  0.0119  0.5629
 2496SOL    HW212174   8.592   0.253   6.905  0.0716 -1.5486 -2.1238
 2497SOL     OW12175   9.995  11.519   2.719 -0.3230  0.0672  0.5168
 2497SOL    HW112176   9.933  11.590   2.703  1.2746  1.3314 -0.3788
 2497SOL    HW212177   9.959  11.444   2.670  0.0165  1.4536 -2.0399
 2498SOL     OW12178   5.500   1.551   6.356  0.6558  0.2083  0.4327
 2498SOL    HW112179   5.555   1.626   6.334 -1.9028  2.1564  0.1966
 2498SOL    HW212180   5.463   1.523   6.272 -0.6143  0.6082  0.8230
 2499SOL     OW12181   9.310   1.380   0.698  0.5739 -0.2972 -0.1276
 2499SOL    HW112182   9.374   1.451   0.702  1.0067 -0.3743 -3.4577
 2499SOL    HW212183   9.363   1.300   0.703  0.4442 -0.3852 -0.1475
 2500SOL     OW12184  10.390   7.454   9.083  0.3911  0.1578  0.4391
 2500SOL    HW112185  10.485   7.458   9.090  0.3407 -0.8655  2.2573
 2500SOL    HW212186  10.372   7.465   8.989  2.2078  1.4103  0.1810
 2501SOL     OW12187   1.062   1.166   7.625  0.2192 -0.3587  0.1182
 2501SOL    HW112188   1.033   1.104   7.692 -0.8631 -0.3767 -0.3428
 2501SOL    HW212189   1.006   1.243   7.637 -0.0027 -0.3671 -0.7477
 2502SOL     OW12190   0.883   9.685   0.040 -0.1804 -0.0364  0.6640
 2502SOL    HW112191   0.879   9.602  -0.008  0.3985  1.4316 -2.1244
 2502SOL    HW212192   0.975   9.711   0.036 -0.5322  1.2409  0.5613
 2503SOL     OW12193   0.229  11.395   6.960  0.4272 -0.5248  0.0864
 2503SOL    HW112194   0.287  11.454   6.912 -1.7614  1.8442  0.1713
 2503SOL    HW212195   0.182  11.346   6.893  0.4245 -0.3297 -0.0522
 2504SOL     OW12196   5.860   0.808  10.871 -0.0339 -0.3112  0.1053
 2504SOL    HW112197   5.862   0.900  10.843 -0.6841  0.2884  1.8981
 2504SOL    HW212198   5.773   0.777  10.848  0.6066 -0.9078 -1.6677
 2505SOL     OW12199   5.122   8.053   5.608 -0.4353 -0.2582  0.3290
 2505SOL    HW112200   5.100   7.961   5.622  1.0347 -1.0487 -2.0724
 2505SOL    HW212201   5.101   8.069   5.516  0.2918  1.5399  0.4370
 2506SOL     OW12202   6.444   5.743   2.487  0.3532 -0.0442  0.4560
 2506SOL    HW112203   6.380   5.678   2.514 -0.3559  0.4488  0.0031
 2506SOL    HW212204   6.494   5.699   2.418 -0.9232  0.2732 -0.7188
 2507SOL     OW12205   7.350   3.452   8.074  0.2393  0.0280  0.0553
 2507SOL    HW112206   7.349   3.438   8.169  0.2925  1.4990  0.2968
 2507SOL    HW212207   7.438   3.485   8.056 -0.1813  1.0030 -0.2872
 2508SOL     OW12208  11.319   1.807   2.188 -0.2030 -0.9119  0.0424
 2508SOL    HW112209  11.282   1.895   2.200 -0.8663 -1.1782  0.0090
 2508SOL    HW212210  11.242   1.750   2.185  0.2484 -1.5345  0.4173
 2509SOL     OW12211   1.315   6.330   3.414  0.1758  0.5515  0.8189
 2509SOL    HW112212   1.233   6.282   3.420  0.0947  0.5368 -0.2614
 2509SOL    HW212213   1.313   6.371   3.327 -0.3349  3.5479  2.0973
 2510SOL     OW12214   5.534  11.552   4.272  0.5737  0.5532  0.0380
 2510SOL    HW112215   5.504  11.620   4.212  1.7293  0.2571 -0.9208
 2510SOL    HW212216   5.624  11.577   4.295  0.6209 -0.0537  0.5604
 2511SOL     OW12217   9.413   5.351   5.236  0.3391 -0.6073  0.5352
 2511SOL    HW112218   9.457   5.307   5.309  2.5837 -0.5469 -0.6938
 2511SOL    HW212219   9.382   5.280   5.180 -0.6949 -0.6379  1.1119
 2512SOL     OW12220  10.336   2.153   8.923  0.1825 -0.0948 -0.6339
 2512SOL    HW112221  10.414   2.188   8.966 -0.0346  1.1263 -1.1888
 2512SOL    HW212222  10.263   2.191   8.971 -0.0642 -0.0587 -1.0351
 2513SOL     OW12223   5.162   2.880   2.084  0.3407 -0.2095 -0.0643
 2513SOL    HW112224   5.082   2.840   2.049  0.8514 -1.1057 -0.2469
 2513SOL    HW212225   5.233   2.841   2.032  1.0655 -1.0249  1.4639
 2514SOL     OW12226   3.363   9.205   7.060  0.0199 -0.2410  0.1525
 2514SOL    HW112227   3.363   9.185   7.154  0.9807 -1.5988 -0.1055
 2514SOL    HW212228   3.290   9.265   7.049  0.3354  0.5412  1.8913
 2515SOL     OW12229   3.307   8.960   5.872 -0.4857  0.2092 -0.3094
 2515SOL    HW112230   3.378   9.012   5.909  0.5695 -0.3778 -1.4295
 2515SOL    HW212231   3.261   8.924   5.948  0.5096  0.4746  0.4348
 2516SOL     OW12232   5.068  11.837   6.835 -0.4190 -0.3611 -0.8399
 2516SOL    HW112233   5.044  11.750   6.803 -1.8700 -0.8898  1.4251
 2516SOL    HW212234   4.988  11.888   6.829 -0.0794  0.2314 -0.4100
 2517SOL     OW12235   9.067   1.128   7.899 -0.3399  0.0819 -0.1695
 2517SOL    HW112236   9.119   1.169   7.968 -0.3557  0.6117 -0.4675
 2517SOL    HW212237   9.085   1.181   7.821 -0.3453 -0.4948 -0.5645
 2518SOL     OW12238   4.309   4.892   9.201 -0.0427 -0.0488  0.2630
 2518SOL    HW112239   4.329   4.817   9.145  2.4618  1.3013 -0.7957
 2518SOL    HW212240   4.291   4.964   9.140  0.2787  0.8551  1.1995
 2519SOL     OW12241   3.503   8.283  10.542  0.1616 -0.1178 -0.7475
 2519SOL    HW112242   3.537   8.263  10.455 -1.7179 -0.7381 -1.3873
 2519SOL    HW212243   3.456   8.366  10.531  0.6864  0.2771 -0.0928
 2520SOL     OW12244  11.558   1.886   4.417 -0.1409 -0.5385 -0.4909
 2520SOL    HW112245  11.617   1.947   4.372 -1.1678  1.0802  0.3045
 2520SOL    HW212246  11.611   1.850   4.488  0.4550 -0.5339 -0.9229
 2521SOL     OW12247   3.735   0.246   4.372 -0.5580 -0.4724 -0.1947
 2521SOL    HW112248   3.675   0.189   4.324 -1.1300  0.8547 -1.0886
 2521SOL    HW212249   3.742   0.325   4.319 -2.0278  1.5072  2.3454
 2522SOL     OW12250   7.021   1.033   3.982  0.5442 -0.1120 -0.3229
 2522SOL    HW112251   7.115   1.018   3.973  0.9127  2.1063 -0.8100
 2522SOL    HW212252   7.013   1.095   4.055 -0.3545  0.9529 -1.2695
 2523SOL     OW12253   9.572  11.826  10.861  0.3924  0.4983 -0.0968
 2523SOL    HW112254   9.552  11.733  10.849  1.0812  0.3187  0.1104
 2523SOL    HW212255   9.609  11.832  10.949 -3.5375  1.6382  1.6570
 2524SOL     OW12256  10.940   6.144   7.139 -0.2265  0.0296  0.4496
 2524SOL    HW112257  10.942   6.219   7.078  0.5206 -1.4484 -1.4714
 2524SOL    HW212258  10.942   6.068   7.082 -0.4723 -1.4742  2.3664
 2525SOL     OW12259   0.205   0.212   4.946 -0.3005  0.7969 -0.3894
 2525SOL    HW112260   0.277   0.153   4.921 -0.3680  0.6270 -0.1826
 2525SOL    HW212261   0.249   0.295   4.966 -0.1145  0.5664  0.1655
 2526SOL     OW12262   8.205   6.509  11.205 -0.2925 -0.0262 -0.1079
 2526SOL    HW112263   8.152   6.538  11.130  0.9898  0.6634 -0.7781
 2526SOL    HW212264   8.256   6.587  11.229  1.9251 -1.1812 -0.8125
 2527SOL     OW12265   1.802   6.553   9.580 -0.3328  0.0112 -0.0677
 2527SOL    HW112266   1.871   6.541   9.646 -0.1808  2.3963  0.3143
 2527SOL    HW212267   1.811   6.645   9.553 -1.3936 -0.4690 -2.3053
 2528SOL     OW12268   6.742   4.517   9.939 -0.5073 -0.1426  0.3199
 2528SOL    HW112269   6.784   4.431   9.949  0.2472 -0.0635 -1.7691
 2528SOL    HW212270   6.714   4.520   9.848  0.4793  2.2544  0.0286
 2529SOL     OW12271   7.460   3.222   3.508  0.1195 -0.2756 -0.0528
 2529SOL    HW112272   7.411   3.143   3.529 -1.8957  0.7343 -0.6356
 2529SOL    HW212273   7.394   3.291   3.506  1.1606  0.8131 -3.1579
 2530SOL     OW12274   7.018   1.882   1.010 -0.9499  0.6969 -0.0127
 2530SOL    HW112275   7.009   1.823   0.934  0.9898  0.6286 -0.2539
 2530SOL    HW212276   7.112   1.883   1.027 -1.2220  1.7877  1.5703
 2531SOL     OW12277   9.374   8.189   2.985 -0.0077  0.1965 -0.2288
 2531SOL    HW112278   9.399   8.240   2.907  2.7588  0.8859  0.9910
 2531SOL    HW212279   9.424   8.228   3.056 -0.4024 -2.1080  1.4276
 2532SOL     OW12280   1.930   4.870   0.325  0.2047  0.0113 -0.4086
 2532SOL    HW112281   1.964   4.783   0.345  0.0248 -0.2988 -1.3788
 2532SOL    HW212282   1.897   4.903   0.409  0.5363 -0.7352  0.0247
 2533SOL     OW12283   2.559   0.423   8.543  0.0602 -0.4487 -0.3300
 2533SOL    HW112284   2.634   0.364   8.549  0.4384 -0.2915 -2.5955
 2533SOL    HW212285   2.596   0.509   8.526 -0.5984 -0.3168 -1.1782
 2534SOL     OW12286   9.096   1.908   9.228  0.2624 -0.2242  0.0542
 2534SOL    HW112287   9.159   1.966   9.270  0.3468  0.3339 -0.8170
 2534SOL    HW212288   9.088   1.834   9.288  1.3804 -0.0794  0.4133
 2535SOL     OW12289   7.163   9.371   2.011 -0.1486 -1.0175  0.4123
 2535SOL    HW112290   7.160   9.466   2.018 -3.4239 -1.0797  1.3670
 2535SOL    HW212291   7.142   9.339   2.098  0.4709 -2.6368  0.0111
 2536SOL     OW12292  11.500  11.729   3.834  0.3787 -0.1850  0.3225
 2536SOL    HW112293  11.417  11.719   3.880 -0.1818  2.1730 -0.0501
 2536SOL    HW212294  11.559  11.768   3.898 -0.6245  3.8625 -0.8936
 2537SOL     OW12295   6.489  10.737   2.187  0.0748  0.1957  0.5203
 2537SOL    HW112296   6.575  10.695   2.182  0.7436  1.5304  0.3517
 2537SOL    HW212297   6.438  10.680   2.243  0.7779 -1.1097 -0.1112
 2538SOL     OW12298   8.904   2.847  11.003  0.3583  0.1588 -0.0824
 2538SOL    HW112299   8.879   2.761  10.969 -0.3865  0.8500 -1.3796
 2538SOL    HW212300   8.970   2.878  10.941 -0.8033  1.3224 -0.7894
 2539SOL     OW12301   4.011   2.976   4.494  0.2512 -0.4104 -0.3342
 2539SOL    HW112302   4.082   3.000   4.553  1.3324 -0.2669 -1.6425
 2539SOL    HW212303   4.044   2.997   4.406 -1.6669  0.3359 -0.9476
 2540SOL     OW12304  11.438  11.214   3.363 -0.2658 -0.4177 -0.3673
 2540SOL    HW112305  11.491  11.155   3.309 -2.1731 -2.6451  0.0032
 2540SOL    HW212306  11.366  11.241   3.304 -0.7865 -0.5410  0.2014
 2541SOL     OW12307   7.941   9.491   8.457  0.0050  0.1793  0.3224
 2541SOL    HW112308   8.018   9.483   8.399 -0.4518  0.1833 -0.2990
 2541SOL    HW212309   7.978   9.509   8.543  0.6689  1.7728 -0.2413
 2542SOL     OW12310   3.803   1.006   8.552 -0.8199  0.1365  0.1981
 2542SOL    HW112311   3.831   1.095   8.527 -0.9039 -0.4108 -2.1150
 2542SOL    HW212312   3.707   1.009   8.547 -0.7986 -0.2541 -0.6655
 2543SOL     OW12313   2.395   7.951  11.343 -0.0876 -0.2701  0.3710
 2543SOL    HW112314   2.361   8.032  11.307 -1.8933 -2.3837 -3.1384
 2543SOL    HW212315   2.323   7.915  11.395  1.0735  0.7384  2.8383
 2544SOL     OW12316  10.007   0.465   9.396 -0.2593  0.8238 -0.1659
 2544SOL    HW112317  10.100   0.481   9.379 -0.0921  0.8804  0.7905
 2544SOL    HW212318   9.979   0.411   9.322  1.4204 -2.3733  1.3597
 2545SOL     OW12319   6.185   0.082   7.450  0.3678 -0.2734 -0.4026
 2545SOL    HW112320   6.142   0.043   7.373 -2.1938  1.1344  0.2127
 2545SOL    HW212321   6.266   0.120   7.415  0.2502 -1.3859 -1.9996
 2546SOL     OW12322  10.537  11.441   8.477 -0.0499  0.0657  0.1914
 2546SOL    HW112323  10.589  11.499   8.421 -1.2101  0.9636  0.0074
 2546SOL    HW212324  10.517  11.366   8.421  0.3866  0.0839  0.0099
 2547SOL     OW12325   0.250   8.222   0.424 -0.5502  0.0128 -0.4788
 2547SOL    HW112326   0.213   8.257   0.506  0.1651 -0.1945 -0.0583
 2547SOL    HW212327   0.261   8.299   0.369 -1.6119  0.0811 -0.6252
 2548SOL     OW12328   7.022   1.851   9.662 -0.3263 -0.1388 -0.2770
 2548SOL    HW112329   7.044   1.942   9.678 -4.6435  0.6546  3.0348
 2548SOL    HW212330   7.052   1.804   9.740 -1.4762 -0.7697 -0.1845
 2549SOL     OW12331   4.317  10.891   8.272 -0.2633 -0.2654 -0.4692
 2549SOL    HW112332   4.257  10.928   8.207 -0.5809 -1.1464 -0.6820
 2549SOL    HW212333   4.261  10.839   8.330  0.2223 -0.6656 -0.3523
 2550SOL     OW12334   8.607  10.161   0.463  0.3738 -0.5994 -0.5360
 2550SOL    HW112335   8.585  10.145   0.554 -2.6665  3.0273 -0.3564
 2550SOL    HW212336   8.567  10.088   0.416  1.4082 -2.1630  0.9123
 2551SOL     OW12337   0.218  11.677   1.624  0.1078 -0.1282 -0.0901
 2551SOL    HW112338   0.311  11.688   1.642  0.1446 -0.0599 -0.3114
 2551SOL    HW212339   0.207  11.583   1.611 -0.2109 -0.3915  1.8254
 2552SOL     OW12340   4.039   9.042   7.002  0.1986 -0.4550  0.1905
 2552SOL    HW112341   3.995   9.100   6.940  1.9088 -0.2678 -0.9114
 2552SOL    HW212342   4.021   9.081   7.088 -0.2519  0.6358 -0.3730
 2553SOL     OW12343  11.148   8.849   4.246 -0.0911 -0.1967 -0.1999
 2553SOL    HW112344  11.235   8.862   4.284 -0.9515 -0.0312  1.8795
 2553SOL    HW212345  11.141   8.918   4.180  1.0955  0.2321  0.0802
 2554SOL     OW12346   2.402   9.796   8.995 -0.6204 -0.3299  0.2525
 2554SOL    HW112347   2.437   9.710   8.973  1.8831  0.6120  0.3054
 2554SOL    HW212348   2.383   9.837   8.911 -2.8616 -1.2629  0.2361
 2555SOL     OW12349   1.694   1.155   8.235  0.2922 -0.4437  0.3672
 2555SOL    HW112350   1.771   1.118   8.277 -0.4181 -1.8906  0.4867
 2555SOL    HW212351   1.653   1.209   8.302  0.6533 -0.5086  0.6405
 2556SOL     OW12352   3.162   4.593   0.490  0.2003  0.9819 -0.1719
 2556SOL    HW112353   3.254   4.596   0.516  0.0493 -0.0237  0.5418
 2556SOL    HW212354   3.156   4.518   0.432 -0.6773 -0.8358  2.0937
 2557SOL     OW12355  10.974   5.102   0.207  0.1527 -0.5222  0.2523
 2557SOL    HW112356  11.025   5.181   0.189  1.3244 -0.4709  3.1988
 2557SOL    HW212357  11.037   5.040   0.242 -1.2419 -1.7165  0.7675
 2558SOL     OW12358  10.449   2.505   9.111 -0.4117 -0.0763 -0.4585
 2558SOL    HW112359  10.388   2.472   9.045  0.3537  0.5052 -1.4868
 2558SOL    HW212360  10.421   2.594   9.128 -0.6212 -0.2321  0.0347
 2559SOL     OW12361   2.999  10.758   7.181 -0.3995 -0.2075 -0.0769
 2559SOL    HW112362   2.996  10.742   7.275 -0.3854 -0.7107 -0.1641
 2559SOL    HW212363   3.027  10.850   7.174 -0.1541 -0.2420  0.3986
 2560SOL     OW12364   6.441   1.781   1.500  0.3180  0.0379 -0.3717
 2560SOL    HW112365   6.442   1.869   1.538  0.1565  0.3942 -1.1596
 2560SOL    HW212366   6.408   1.794   1.411 -0.5547 -0.9428 -0.2126
 2561SOL     OW12367   0.929  11.280   9.132  0.2813 -0.3743 -0.4613
 2561SOL    HW112368   0.954  11.351   9.191 -0.5855 -0.3946 -0.0467
 2561SOL    HW212369   1.010  11.256   9.087  1.5228 -1.7305  2.1949
 2562SOL     OW12370   3.477  11.215   5.318 -0.3949 -0.5639  0.1698
 2562SOL    HW112371   3.464  11.172   5.233  0.2483 -0.4871  0.0257
 2562SOL    HW212372   3.409  11.178   5.374  0.2362 -1.9069  0.1007
 2563SOL     OW12373   2.679   2.416  11.531  0.1729 -0.2518 -0.1931
 2563SOL    HW112374   2.633   2.441  11.610 -1.1204  1.5976 -1.4539
 2563SOL    HW212375   2.768   2.449  11.544 -0.2223  0.6885  0.2012
 2564SOL     OW12376  10.449   3.916   8.935  0.3461  0.8679  0.1076
 2564SOL    HW112377  10.532   3.962   8.949  0.2439  0.7363  1.2608
 2564SOL    HW212378  10.394   3.979   8.890  0.6349  1.4327  0.5286
 2565SOL     OW12379   9.645  10.380   5.517 -0.1991 -0.0228  0.5533
 2565SOL    HW112380   9.739  10.388   5.502 -0.2162  0.5627  0.7396
 2565SOL    HW212381   9.625  10.290   5.492  0.1632  0.2519 -0.8291
 2566SOL     OW12382   1.817   5.900   5.442  0.0380 -0.0826  0.1774
 2566SOL    HW112383   1.874   5.944   5.379  1.5483  0.2744  1.7001
 2566SOL    HW212384   1.728   5.914   5.409  0.6733  1.5410 -0.9614
 2567SOL     OW12385   3.392  11.075   4.033 -0.0333  0.3387  0.1533
 2567SOL    HW112386   3.382  11.159   3.988 -1.2145 -0.3157 -0.8852
 2567SOL    HW212387   3.484  11.070   4.057  0.4343  1.1398 -1.3969
 2568SOL     OW12388   2.064  10.451   7.404  0.3797  0.0098 -0.2346
 2568SOL    HW112389   2.109  10.520   7.453 -1.1791 -0.7427  2.4499
 2568SOL    HW212390   2.105  10.369   7.434 -0.5198 -0.4647 -0.2514
 2569SOL     OW12391   8.642   8.064  11.163  0.5114  0.3254  0.2093
 2569SOL    HW112392   8.594   7.992  11.121  0.9932  0.3679 -0.4304
 2569SOL    HW212393   8.595   8.080  11.244  0.1009 -0.3818  0.1197
 2570SOL     OW12394   2.147  10.859   6.907  0.7151 -0.5644 -0.1588
 2570SOL    HW112395   2.111  10.848   6.819  0.7425 -0.8480 -0.1354
 2570SOL    HW212396   2.083  10.818   6.965  0.1622  0.5815  0.0650
 2571SOL     OW12397   2.207   4.274   6.590  0.3166  0.3833  0.0986
 2571SOL    HW112398   2.165   4.213   6.650  0.1103 -2.7401 -2.9333
 2571SOL    HW212399   2.144   4.345   6.580 -0.9970 -0.5798  1.1952
 2572SOL     OW12400   3.410   2.177   3.157 -0.2790  0.1453  0.0330
 2572SOL    HW112401   3.395   2.266   3.125 -0.7361  0.9029  2.1886
 2572SOL    HW212402   3.323   2.137   3.159 -0.2327  0.0486  0.1176
 2573SOL     OW12403   0.480   5.929   2.332 -0.4205 -0.1773 -0.0979
 2573SOL    HW112404   0.472   6.021   2.358  0.2919 -0.3276  0.7052
 2573SOL    HW212405   0.450   5.880   2.409  0.8675 -0.6276  0.1365
 2574SOL     OW12406   4.455   7.445  10.018  0.4600 -0.2797 -0.2799
 2574SOL    HW112407   4.507   7.380  10.065 -0.2558 -1.2873 -0.8516
 2574SOL    HW212408   4.464   7.525  10.070 -0.5181 -1.3970  1.7078
 2575SOL     OW12409   6.855  11.459   0.452 -0.4308  0.0912  0.6125
 2575SOL    HW112410   6.949  11.475   0.464  0.2244 -2.2056 -0.7441
 2575SOL    HW212411   6.847  11.440   0.358 -2.2017 -0.1094  0.7876
 2576SOL     OW12412   6.841   6.189   1.991 -0.1612  0.3161 -0.0348
 2576SOL    HW112413   6.784   6.222   2.060  0.6646  1.9808 -0.1076
 2576SOL    HW212414   6.930   6.203   2.024  0.2284 -0.1128 -0.8675
 2577SOL     OW12415   7.196   3.227   7.125 -0.1126 -0.5498 -0.0185
 2577SOL    HW112416   7.149   3.194   7.201 -1.2207 -0.2594 -0.5689
 2577SOL    HW212417   7.264   3.161   7.109  1.0308  0.0376  2.0079
 2578SOL     OW12418  11.948   8.996   4.345 -0.3485  0.1769 -0.0162
 2578SOL    HW112419  12.012   9.036   4.286 -1.2298  0.1012 -1.0578
 2578SOL    HW212420  11.992   8.919   4.380  0.6643  0.9603  0.4908
 2579SOL     OW12421   2.451   7.720   9.822  0.5161 -0.3711 -0.8032
 2579SOL    HW112422   2.473   7.709   9.914  0.3398 -2.0247 -0.9175
 2579SOL    HW212423   2.363   7.757   9.822  1.1141  1.1210 -0.3356
 2580SOL     OW12424  11.625   7.718   1.324  0.4216  0.2069 -0.1242
 2580SOL    HW112425  11.682   7.651   1.361 -1.2365 -1.2883 -0.1424
 2580SOL    HW212426  11.624   7.698   1.230 -0.2822  0.0853 -0.0936
 2581SOL     OW12427   4.631   3.099   8.723  0.2619  0.0464  0.0481
 2581SOL    HW112428   4.632   3.005   8.708  1.3235  0.0640 -0.0608
 2581SOL    HW212429   4.718   3.129   8.697  0.1534  0.9642  0.6755
 2582SOL     OW12430   6.486   9.426   8.216  0.4705  0.0465  0.5098
 2582SOL    HW112431   6.532   9.419   8.132  1.8437  0.8448  1.1546
 2582SOL    HW212432   6.394   9.437   8.192  0.8197  0.1701 -0.8808
 2583SOL     OW12433   2.374   2.424   0.311  0.2283  0.1002 -0.0257
 2583SOL    HW112434   2.371   2.517   0.335  1.2896  0.4688 -1.1970
 2583SOL    HW212435   2.282   2.397   0.307 -0.0464  0.5577  2.2418
 2584SOL     OW12436   8.718  10.871   3.960 -0.1307 -0.1641 -0.3631
 2584SOL    HW112437   8.709  10.910   3.873 -2.2606 -1.2368 -0.6898
 2584SOL    HW212438   8.634  10.827   3.975  0.5143 -0.7435  1.8787
 2585SOL     OW12439   4.564  11.242   9.979 -0.6749 -0.2785  0.9234
 2585SOL    HW112440   4.631  11.273   9.919 -1.3362 -2.9066 -1.3910
 2585SOL    HW212441   4.598  11.160  10.015 -2.4210 -1.5208 -0.0768
 2586SOL     OW12442   1.301   4.536   0.039  0.3345 -0.1467  0.0321
 2586SOL    HW112443   1.325   4.625   0.010 -2.2627  0.3282 -0.9311
 2586SOL    HW212444   1.326   4.480  -0.035 -1.7915  0.4159 -1.2062
 2587SOL     OW12445  11.210   7.428   3.299 -0.0099 -0.5399 -0.6311
 2587SOL    HW112446  11.162   7.360   3.346  0.8431  0.0232  1.1473
 2587SOL    HW212447  11.161   7.440   3.217 -2.2943 -0.7383  0.6178
 2588SOL     OW12448   6.217   1.188  10.687  0.2998  0.3111 -0.5189
 2588SOL    HW112449   6.229   1.146  10.772 -0.5077 -1.6928 -1.3133
 2588SOL    HW212450   6.302   1.180  10.643  0.2255 -0.3418 -0.5628
 2589SOL     OW12451   7.778   2.515   6.565  0.1149  0.4730  0.2829
 2589SOL    HW112452   7.815   2.594   6.527  0.4680  0.4825  0.6395
 2589SOL    HW212453   7.721   2.480   6.497  1.2992  0.0856 -0.5373
 2590SOL     OW12454   5.185   9.588   6.910  0.3285 -0.2029  0.5141
 2590SOL    HW112455   5.104   9.611   6.865  0.3389  0.4655  0.8314
 2590SOL    HW212456   5.223   9.519   6.856  0.4481  0.7280 -0.6245
 2591SOL     OW12457   7.081   4.171   5.788  0.1479  0.0856 -0.2528
 2591SOL    HW112458   7.040   4.226   5.854  2.6337  0.2251  1.3304
 2591SOL    HW212459   7.048   4.205   5.705 -1.7799  1.0235  0.8225
 2592SOL     OW12460   3.662   1.054   1.350 -0.1051  0.3683  0.5975
 2592SOL    HW112461   3.586   1.006   1.317  0.8424 -1.0164  0.3386
 2592SOL    HW212462   3.631   1.145   1.360 -1.9614 -0.2801  1.1411
 2593SOL     OW12463  10.220   1.262   9.846  0.0476  0.2112 -0.0626
 2593SOL    HW112464  10.297   1.218   9.810 -0.1755 -1.3866  1.2583
 2593SOL    HW212465  10.255   1.318   9.915  0.0473 -0.7974  0.7921
 2594SOL     OW12466   1.364   4.496   4.860 -0.5433  0.1114  0.0968
 2594SOL    HW112467   1.391   4.492   4.768  1.1862 -1.7671  0.5979
 2594SOL    HW212468   1.424   4.436   4.905 -0.0281  2.4203  2.7911
 2595SOL     OW12469  11.226   1.129   2.215  0.3886  0.7363  0.1945
 2595SOL    HW112470  11.265   1.045   2.189  0.8863  0.8585  0.5214
 2595SOL    HW212471  11.150   1.106   2.268  0.4557  0.4903  0.1833
 2596SOL     OW12472   5.879   3.305  10.557  0.3664 -0.1670 -0.0321
 2596SOL    HW112473   5.916   3.288  10.471 -1.2652  0.2707 -0.8579
 2596SOL    HW212474   5.886   3.222  10.604 -0.7598 -1.0490 -1.3806
 2597SOL     OW12475   2.524  10.835   4.490 -0.5419 -0.0973 -0.3761
 2597SOL    HW112476   2.586  10.899   4.456  0.1670 -0.6180 -0.0990
 2597SOL    HW212477   2.525  10.764   4.425  1.3631 -1.4296  0.9869
 2598SOL     OW12478   6.301  11.717   6.201 -0.4376 -0.2804 -0.2214
 2598SOL    HW112479   6.281  11.809   6.184 -0.3446 -0.4410 -1.2196
 2598SOL    HW212480   6.369  11.694   6.138  1.4035 -0.3538  1.6702
 2599SOL     OW12481  10.274   9.371  10.014 -0.0911  0.1529 -0.8384
 2599SOL    HW112482  10.362   9.355  10.048 -0.3913 -0.7726 -0.4537
 2599SOL    HW212483  10.217   9.320  10.071 -0.7428 -0.3531 -1.9184
 2600SOL     OW12484   2.305  10.906   1.855  0.1053 -0.0519 -0.2821
 2600SOL    HW112485   2.339  10.819   1.836 -0.0617  0.1314 -1.5651
 2600SOL    HW212486   2.232  10.892   1.915  1.1091 -0.6322  0.8486
 2601SOL     OW12487   4.490   7.456   5.200  0.1811 -0.5002  0.3567
 2601SOL    HW112488   4.489   7.381   5.141 -2.0717  0.1528 -0.5452
 2601SOL    HW212489   4.507   7.418   5.286  0.3968 -1.8691 -0.2555
 2602SOL     OW12490   1.681   0.027   2.406 -0.1666 -0.5717  0.4009
 2602SOL    HW112491   1.605   0.022   2.464 -0.5082 -1.6157 -0.1073
 2602SOL    HW212492   1.724   0.109   2.429 -1.5014  0.0826  0.6434
 2603SOL     OW12493   8.410  10.848  11.737 -0.1653  0.2473 -0.0141
 2603SOL    HW112494   8.339  10.806  11.787  0.5005 -1.8160 -0.7222
 2603SOL    HW212495   8.454  10.776  11.693  1.4107  1.6725 -0.8587
 2604SOL     OW12496   1.149   7.760  10.163 -0.0844  0.7506  0.2325
 2604SOL    HW112497   1.057   7.750  10.187 -0.4761  1.6642 -0.8222
 2604SOL    HW212498   1.163   7.855  10.164  0.5024  0.6881 -0.8387
 2605SOL     OW12499   7.451   4.965   5.161 -0.1428 -0.2694  0.0277
 2605SOL    HW112500   7.415   4.938   5.077  0.4689 -1.9205  0.2742
 2605SOL    HW212501   7.406   5.048   5.180 -1.2837 -0.5555 -1.2648
 2606SOL     OW12502   5.912   4.281   6.565 -0.7269 -0.2104 -0.4186
 2606SOL    HW112503   5.893   4.195   6.528  0.5644 -0.7589  0.1346
 2606SOL    HW212504   5.850   4.340   6.523 -1.1562 -1.2904 -1.3338
 2607SOL     OW12505   0.587   4.210  11.765 -0.5318  0.1376 -0.1537
 2607SOL    HW112506   0.570   4.187  11.857  0.5609 -0.1518 -0.0095
 2607SOL    HW212507   0.555   4.135  11.715 -3.0878  1.1832 -0.1971
 2608SOL     OW12508   1.737   1.327   5.217 -0.1043  0.1977  0.2161
 2608SOL    HW112509   1.829   1.304   5.207  0.1701  1.0014  0.7862
 2608SOL    HW212510   1.713   1.293   5.303  0.2521  1.7943  0.9831
 2609SOL     OW12511   9.169   9.431   9.950  0.3922 -0.7505  0.0496
 2609SOL    HW112512   9.190   9.456  10.040  3.3514  0.1946 -0.7808
 2609SOL    HW212513   9.104   9.495   9.922  1.5686  0.7840  0.6595
 2610SOL     OW12514   4.835   2.714   1.481 -0.0365  0.8427  0.1705
 2610SOL    HW112515   4.759   2.705   1.424 -0.5844  1.6196  0.7534
 2610SOL    HW212516   4.816   2.656   1.555  0.0637  0.8184  0.1763
 2611SOL     OW12517   2.934   9.061   4.380  0.2275  0.3545 -0.4173
 2611SOL    HW112518   2.943   8.965   4.387  0.8951  0.3570 -1.1277
 2611SOL    HW212519   2.842   9.077   4.401  0.5526 -0.2285  1.7756
 2612SOL     OW12520   5.705   1.138   5.298  0.3095 -0.0771  0.7514
 2612SOL    HW112521   5.698   1.087   5.378  2.3165 -1.0662  0.3595
 2612SOL    HW212522   5.796   1.167   5.295  1.0290 -2.2138 -2.3526
 2613SOL     OW12523   0.403   2.694   5.173 -0.2974 -0.0265 -0.5380
 2613SOL    HW112524   0.485   2.652   5.201 -0.2590  0.2539 -0.2271
 2613SOL    HW212525   0.399   2.775   5.223 -0.6761  0.0524 -0.6908
 2614SOL     OW12526  10.061   0.298   3.698  0.1533  0.1711 -0.1987
 2614SOL    HW112527  10.017   0.251   3.770  0.2947  0.8390  0.3426
 2614SOL    HW212528  10.051   0.241   3.622 -1.3135  0.1119 -0.0021
 2615SOL     OW12529   7.691   9.980   5.611  0.2258 -0.7507  0.6619
 2615SOL    HW112530   7.603   9.952   5.584  0.9324 -1.1904 -1.3902
 2615SOL    HW212531   7.678  10.066   5.649 -0.9711 -0.2249 -0.8332
 2616SOL     OW12532   7.341   4.198   5.833 -0.0411 -0.1260 -0.1439
 2616SOL    HW112533   7.373   4.113   5.802 -0.3498 -0.5857  0.7768
 2616SOL    HW212534   7.250   4.202   5.805  0.5264  0.8247 -2.0271
 2617SOL     OW12535   0.866   5.885   8.516 -0.4387 -0.3523 -0.0978
 2617SOL    HW112536   0.856   5.820   8.446 -0.1467 -0.0952 -0.3782
 2617SOL    HW212537   0.941   5.938   8.490 -0.1466 -0.4348  0.5529
 2618SOL     OW12538   4.327   2.823   6.598 -0.1227 -0.4358  0.6123
 2618SOL    HW112539   4.329   2.792   6.688 -0.0375 -0.6980  0.5202
 2618SOL    HW212540   4.401   2.883   6.591  1.1501 -2.0014  0.1437
 2619SOL     OW12541   0.044   9.509   3.283 -0.1552  0.1504 -0.0516
 2619SOL    HW112542  -0.047   9.538   3.269 -0.9429 -1.2676  1.8223
 2619SOL    HW212543   0.048   9.422   3.243 -0.1596 -0.5318  1.3770
 2620SOL     OW12544   6.988   1.654  10.110 -0.0830  0.0874 -0.1628
 2620SOL    HW112545   7.053   1.663  10.040  0.5668  1.7746  0.5946
 2620SOL    HW212546   6.923   1.722  10.091 -0.8937 -0.6701 -0.1353
 2621SOL     OW12547   5.546   4.605  10.611  0.4093 -0.0036 -0.0976
 2621SOL    HW112548   5.590   4.524  10.584 -1.3289 -0.6452 -1.1579
 2621SOL    HW212549   5.453   4.586  10.601 -0.0849  3.0253 -3.3346
 2622SOL     OW12550   6.419   2.312   0.425  0.3019 -0.0763 -0.1866
 2622SOL    HW112551   6.437   2.256   0.350 -2.4259  0.8190 -1.6495
 2622SOL    HW212552   6.336   2.279   0.460  0.9446  0.2498  1.7727
 2623SOL     OW12553   1.966   1.763   1.475  0.3720 -0.2195 -0.5158
 2623SOL    HW112554   1.959   1.672   1.446  1.7235 -0.5988  0.2602
 2623SOL    HW212555   1.934   1.814   1.401  0.0954 -1.3058 -1.1657
 2624SOL     OW12556   0.353   0.774  10.315  0.4582 -0.4479  0.0149
 2624SOL    HW112557   0.445   0.795  10.298  0.4341 -0.3310  0.0224
 2624SOL    HW212558   0.355   0.708  10.384  0.5128  0.2145  0.6647
 2625SOL     OW12559  11.800   1.751  10.096  0.5563  0.6829 -0.3584
 2625SOL    HW112560  11.714   1.757  10.138 -0.0628 -0.8326 -1.3197
 2625SOL    HW212561  11.790   1.799  10.014  1.3783  2.5206  0.5505
 2626SOL     OW12562   4.219   7.110  10.086  0.2889  0.6322 -0.1668
 2626SOL    HW112563   4.210   7.016  10.104 -0.4708  0.7525  0.0944
 2626SOL    HW212564   4.135   7.135  10.047  1.2242  0.7624 -2.2697
 2627SOL     OW12565   2.226   5.681   0.167 -0.4052 -0.1018  0.2813
 2627SOL    HW112566   2.138   5.695   0.202 -0.3177  0.8348  0.1469
 2627SOL    HW212567   2.270   5.628   0.233 -0.6362  0.5929  1.0110
 2628SOL     OW12568   1.402   5.793   5.116  0.0632  0.2851 -0.1075
 2628SOL    HW112569   1.399   5.819   5.024 -0.1984 -0.8591 -0.4335
 2628SOL    HW212570   1.495   5.789   5.137  0.1244  1.9986  0.1289
 2629SOL     OW12571  11.250  11.879   1.276 -0.0056  0.0328 -0.5801
 2629SOL    HW112572  11.178  11.817   1.275 -1.9325  1.9191  2.4765
 2629SOL    HW212573  11.225  11.948   1.215  0.0688 -0.1804 -0.8478
 2630SOL     OW12574   6.648   5.194   8.547 -0.3813  0.0275  0.2974
 2630SOL    HW112575   6.722   5.254   8.558  1.7625 -2.2658 -0.5725
 2630SOL    HW212576   6.667   5.147   8.466 -2.6113 -0.9287  0.2659
 2631SOL     OW12577   7.197   9.311   3.376  0.5109  0.5750 -0.4284
 2631SOL    HW112578   7.241   9.322   3.291 -0.8811 -0.7333 -1.3704
 2631SOL    HW212579   7.194   9.217   3.389  0.4990  0.7574  0.9921
 2632SOL     OW12580   1.994   6.456   8.306  0.3130 -0.2455 -0.1484
 2632SOL    HW112581   2.029   6.543   8.288 -1.6079  0.7046  0.4598
 2632SOL    HW212582   1.988   6.415   8.220  1.8899 -0.0901 -0.3774
 2633SOL     OW12583   5.153  11.848   7.116 -0.5462 -0.5420  0.6127
 2633SOL    HW112584   5.085  11.908   7.147 -0.1710  0.4089 -0.3743
 2633SOL    HW212585   5.130  11.831   7.025 -0.1449 -1.2154  0.6280
 2634SOL     OW12586   5.602   8.274   0.344  0.0452  0.3051  0.3348
 2634SOL    HW112587   5.658   8.266   0.421  1.1956  0.3162 -0.4847
 2634SOL    HW212588   5.577   8.366   0.342 -0.5060  0.1795  1.0360
 2635SOL     OW12589   2.808   7.925   9.310 -0.4380 -0.8928  0.3989
 2635SOL    HW112590   2.767   7.844   9.280  1.5718 -2.7251  2.2375
 2635SOL    HW212591   2.890   7.897   9.351  0.9454  2.2164  0.0702
 2636SOL     OW12592   9.869   7.424  10.543 -0.4857 -0.1678  0.1835
 2636SOL    HW112593   9.888   7.373  10.465 -1.3146 -0.8426  0.4156
 2636SOL    HW212594   9.941   7.404  10.603  0.3955  0.6947 -0.5408
 2637SOL     OW12595   7.036   5.690   2.493  0.2184 -1.0082 -0.6084
 2637SOL    HW112596   6.944   5.664   2.501 -0.4617  1.2463 -0.2648
 2637SOL    HW212597   7.049   5.704   2.399 -0.9122  2.0327 -0.4235
 2638SOL     OW12598  11.035   3.141   0.779 -0.1553  0.5462 -0.4502
 2638SOL    HW112599  11.006   3.096   0.700  1.3930  0.6920 -1.1395
 2638SOL    HW212600  11.110   3.194   0.751 -0.2576  1.4705  0.8896
 2639SOL     OW12601   0.608   2.079   0.925 -0.0403 -0.0943 -0.3936
 2639SOL    HW112602   0.664   2.090   0.848 -2.7253  0.0642 -2.5285
 2639SOL    HW212603   0.642   2.001   0.969  2.5216  0.6946 -0.8107
 2640SOL     OW12604   4.460   1.788   2.169  0.0542 -0.2366  0.1379
 2640SOL    HW112605   4.541   1.791   2.220 -1.2585 -1.4921  2.4777
 2640SOL    HW212606   4.412   1.867   2.195 -0.0074 -0.1286 -0.2935
 2641SOL     OW12607   6.769   8.244   6.064 -0.0634  0.5067  0.0349
 2641SOL    HW112608   6.858   8.216   6.041  0.5888  1.1796  1.5723
 2641SOL    HW212609   6.770   8.339   6.051 -1.2138  0.3019 -1.8960
 2642SOL     OW12610   5.222  10.900   0.151  0.1623  0.7179 -0.1209
 2642SOL    HW112611   5.129  10.917   0.138 -0.2036 -1.0030  0.0216
 2642SOL    HW212612   5.266  10.964   0.095 -1.0933  1.4896 -0.2750
 2643SOL     OW12613   7.043   3.928   6.123  0.5203 -0.6879 -0.2434
 2643SOL    HW112614   7.063   3.838   6.150  2.5191  0.0491  0.8584
 2643SOL    HW212615   7.126   3.974   6.127 -0.3588  1.1082 -1.3485
 2644SOL     OW12616   1.781   5.236  10.672  0.5425  0.0766  0.5915
 2644SOL    HW112617   1.868   5.225  10.711  1.0653  2.1842  0.1201
 2644SOL    HW212618   1.763   5.329  10.679  0.4733  0.5720 -3.7282
 2645SOL     OW12619   1.132   0.315   5.135 -0.8034 -0.6382 -0.1872
 2645SOL    HW112620   1.184   0.258   5.192 -1.0028 -0.8436 -0.2112
 2645SOL    HW212621   1.163   0.403   5.155 -0.5401 -0.7477 -0.1021
 2646SOL     OW12622   1.916   1.645  10.161  0.6993 -0.3904 -0.0940
 2646SOL    HW112623   1.983   1.710  10.138 -0.7250  0.7120 -1.3317
 2646SOL    HW212624   1.938   1.568  10.109  1.6678 -0.4662  0.4051
 2647SOL     OW12625   5.579   0.017   0.129  0.4573  0.6286  0.3231
 2647SOL    HW112626   5.553   0.108   0.113 -1.7176  0.2730  1.4486
 2647SOL    HW212627   5.671   0.023   0.155  1.1417  2.1937 -2.1426
 2648SOL     OW12628   2.422   3.108   4.102 -0.0490  0.5093  0.6780
 2648SOL    HW112629   2.501   3.061   4.076 -0.6576 -0.7924  1.1083
 2648SOL    HW212630   2.366   3.106   4.025 -0.4654 -0.3471  0.9900
 2649SOL     OW12631   6.337   6.935   7.814 -0.0630  0.1292 -0.1645
 2649SOL    HW112632   6.262   6.986   7.843 -1.0225 -0.8193 -0.8939
 2649SOL    HW212633   6.325   6.926   7.719  0.5052 -0.7667 -0.1680
 2650SOL     OW12634   8.050   4.657   1.420  0.1589  0.2936  0.2922
 2650SOL    HW112635   8.106   4.693   1.489 -0.1358 -0.3799  0.8899
 2650SOL    HW212636   8.109   4.601   1.369  0.1529  0.0038  0.6012
 2651SOL     OW12637   6.873   8.011   8.700 -0.0956 -0.3660  0.1700
 2651SOL    HW112638   6.874   8.059   8.782  1.3737  0.4300 -0.2847
 2651SOL    HW212639   6.805   8.054   8.648 -1.0649 -0.9054  0.9607
 2652SOL     OW12640   7.583   2.050   3.979 -0.2458 -1.0731 -0.2190
 2652SOL    HW112641   7.557   2.017   4.065  2.2977 -1.1065  0.6131
 2652SOL    HW212642   7.668   2.009   3.961  0.2108  0.4290 -1.8541
 2653SOL     OW12643   1.420   1.508   7.930  0.5144 -0.0587  0.0306
 2653SOL    HW112644   1.504   1.552   7.914  1.3622 -1.7472 -0.3366
 2653SOL    HW212645   1.417   1.497   8.025  1.4280 -1.3085 -0.0653
 2654SOL     OW12646   6.934   9.642   1.961  0.0628 -0.8380 -0.2061
 2654SOL    HW112647   6.890   9.595   1.890 -2.0108  1.1489 -0.3282
 2654SOL    HW212648   7.000   9.696   1.918 -0.6866 -0.2013 -0.5734
 2655SOL     OW12649  10.431   6.859   7.330 -0.1667  0.3587  0.0888
 2655SOL    HW112650  10.501   6.879   7.268  0.9464 -2.0995  0.4369
 2655SOL    HW212651  10.469   6.876   7.416 -0.2054 -0.2959  0.2457
 2656SOL     OW12652   3.767   5.974  10.057 -0.1323 -0.3348 -0.4997
 2656SOL    HW112653   3.761   5.879  10.043 -0.2820 -0.6121  1.2557
 2656SOL    HW212654   3.747   6.011   9.971 -0.3431 -1.8816 -1.1657
 2657SOL     OW12655  11.835   1.769   2.916  0.3077  0.0349  0.3895
 2657SOL    HW112656  11.843   1.855   2.874  0.2352 -0.6032 -0.9894
 2657SOL    HW212657  11.923   1.731   2.910  0.1652 -0.2838  0.2859
 2658SOL     OW12658   7.425  10.455   1.151 -0.4057 -0.4848  0.6291
 2658SOL    HW112659   7.383  10.540   1.134  0.1555  0.0113  1.6360
 2658SOL    HW212660   7.410  10.405   1.071 -0.4305  0.6899 -0.1287
 2659SOL     OW12661   8.219   0.449   7.907  0.0021  0.8663 -0.1209
 2659SOL    HW112662   8.204   0.431   7.814 -0.2886 -0.8216  0.2258
 2659SOL    HW212663   8.261   0.535   7.908  0.8496  0.5170 -1.8827
 2660SOL     OW12664   9.250   4.845   5.030 -0.7281 -0.3635  0.4689
 2660SOL    HW112665   9.279   4.782   4.965 -1.8938  0.6712 -1.1167
 2660SOL    HW212666   9.155   4.837   5.030 -0.7614 -0.2402  1.9736
 2661SOL     OW12667   8.950   1.310   4.029 -0.1799 -0.1746 -0.2784
 2661SOL    HW112668   9.040   1.310   3.995 -0.4119 -1.5428 -0.9481
 2661SOL    HW212669   8.937   1.399   4.062  0.9537  0.4370 -1.4099
 2662SOL     OW12670   4.768   4.398   9.000  0.1265 -0.2437  0.3993
 2662SOL    HW112671   4.764   4.374   8.907  0.4002 -0.0314  0.3284
 2662SOL    HW212672   4.862   4.398   9.020  0.0701 -0.2347  0.6608
 2663SOL     OW12673  10.040   5.629   7.542 -0.0728 -0.0570  0.1748
 2663SOL    HW112674  10.006   5.545   7.512 -0.6721 -0.0044  0.6840
 2663SOL    HW212675   9.988   5.650   7.620  1.6581 -0.3305  1.4607
 2664SOL     OW12676   6.830   3.237   4.179 -0.1904  0.0739  0.4062
 2664SOL    HW112677   6.914   3.281   4.195 -0.1335  0.3393 -0.5257
 2664SOL    HW212678   6.839   3.152   4.223  1.2397 -0.5957 -1.0361
 2665SOL     OW12679  11.081  10.330   3.409  0.1758 -0.2066  0.2987
 2665SOL    HW112680  11.031  10.411   3.397  1.0355  0.4570  1.0996
 2665SOL    HW212681  11.033  10.282   3.476  0.1197  0.0156  0.4176
 2666SOL     OW12682   8.544   4.570  10.114  0.1132 -0.1123  0.5031
 2666SOL    HW112683   8.482   4.630  10.073 -0.4215 -1.3452 -0.5889
 2666SOL    HW212684   8.502   4.542  10.195 -0.0184  0.3256  0.5852
 2667SOL     OW12685   3.148   4.845  10.784  0.2453  0.0435 -0.0428
 2667SOL    HW112686   3.186   4.890  10.859  0.4251  0.3725 -0.3314
 2667SOL    HW212687   3.053   4.852  10.797  0.2779 -0.3126  0.3970
 2668SOL     OW12688   2.636   7.086  10.000  1.0621  0.1995 -0.0306
 2668SOL    HW112689   2.654   7.174  10.033 -0.1487  0.5886 -0.3787
 2668SOL    HW212690   2.709   7.068   9.940  0.5580  1.5748 -1.1096
 2669SOL     OW12691   4.366   4.675   5.587  0.1660  0.0800  0.0855
 2669SOL    HW112692   4.421   4.724   5.648 -0.2088  1.2133 -0.4586
 2669SOL    HW212693   4.424   4.607   5.552  0.8260  0.3959  0.5359
 2670SOL     OW12694   4.350   4.585   7.435  0.6108  0.0840  0.5670
 2670SOL    HW112695   4.411   4.582   7.361  0.2509  0.5145  0.2427
 2670SOL    HW212696   4.352   4.677   7.464  0.7219 -0.0745  1.0702
 2671SOL     OW12697   5.387   7.926   3.728 -0.0926  0.5185 -0.2800
 2671SOL    HW112698   5.334   7.961   3.800  0.7557  2.7561 -0.6335
 2671SOL    HW212699   5.324   7.884   3.670 -1.0590  0.4363  0.7874
 2672SOL     OW12700   6.370   5.758   9.241  0.5589  0.0790  0.2835
 2672SOL    HW112701   6.385   5.733   9.150  2.4303 -2.4351  1.1545
 2672SOL    HW212702   6.458   5.768   9.278 -0.1631  2.6558  1.4761
 2673SOL     OW12703   3.974   2.336  11.925  0.3231 -0.5743  0.1464
 2673SOL    HW112704   4.003   2.270  11.862  1.4161 -0.7907  0.8389
 2673SOL    HW212705   4.004   2.419  11.887  1.4586 -0.7533  0.6172
 2674SOL     OW12706   4.265  11.100  11.971 -0.4194 -0.0293  0.5106
 2674SOL    HW112707   4.338  11.079  12.028  0.2247  0.1485 -0.2295
 2674SOL    HW212708   4.266  11.195  11.964  0.1987 -0.1001 -0.6567
 2675SOL     OW12709  10.117   6.785   6.805 -0.1288  0.0406 -0.0905
 2675SOL    HW112710  10.044   6.737   6.763  0.5348 -1.0394 -0.0535
 2675SOL    HW212711  10.189   6.722   6.805  0.5968  0.8604  0.5153
 2676SOL     OW12712  11.108   1.131   9.372 -0.0994  0.0913  0.2630
 2676SOL    HW112713  11.091   1.223   9.394  0.4120  0.0890  0.6835
 2676SOL    HW212714  11.198   1.131   9.339  0.1041 -0.3493  0.8092
 2677SOL     OW12715   4.162   1.377   4.503  0.2477 -0.1997 -0.1180
 2677SOL    HW112716   4.067   1.373   4.515  0.4408  0.3315  1.7619
 2677SOL    HW212717   4.196   1.309   4.561  1.0709  0.0370 -0.3186
 2678SOL     OW12718   1.282   8.215  10.290 -0.5823  0.1194 -0.3214
 2678SOL    HW112719   1.356   8.164  10.321 -0.2110  0.0212 -1.3389
 2678SOL    HW212720   1.233   8.238  10.370 -0.2815 -1.0629  0.2217
 2679SOL     OW12721   8.740   1.608   5.642 -0.5089  0.0469  0.1222
 2679SOL    HW112722   8.798   1.558   5.699 -0.3863 -0.6222 -0.5740
 2679SOL    HW212723   8.795   1.635   5.569 -0.7728  0.5116  0.0869
 2680SOL     OW12724   0.377   9.892   9.790 -0.0685  0.4544 -0.2713
 2680SOL    HW112725   0.456   9.934   9.754  0.7144  1.1462  2.0555
 2680SOL    HW212726   0.410   9.827   9.852 -1.3173  0.4003  0.3739
 2681SOL     OW12727  10.634   1.737   8.643 -0.2167 -0.1064  0.3002
 2681SOL    HW112728  10.629   1.770   8.733  1.1991 -0.1691  0.4245
 2681SOL    HW212729  10.544   1.741   8.611 -0.6373  0.5392  1.4997
 2682SOL     OW12730   5.915   6.781  11.470 -0.5773  0.6014 -0.4010
 2682SOL    HW112731   5.879   6.763  11.384  3.0597 -0.9962 -1.7865
 2682SOL    HW212732   6.001   6.820  11.453 -0.1018  1.0911  2.5149
 2683SOL     OW12733   8.676   3.684   0.200  0.3494 -0.2119  0.1593
 2683SOL    HW112734   8.645   3.744   0.132  0.5911 -1.5838 -1.2405
 2683SOL    HW212735   8.611   3.690   0.270 -0.9974 -0.1692 -1.0524
 2684SOL     OW12736   6.535   4.000  11.624 -0.2573 -0.6157 -0.4091
 2684SOL    HW112737   6.582   4.019  11.705  0.2765  0.0828 -0.8721
 2684SOL    HW212738   6.457   3.952  11.652 -0.3887  0.1476  0.5719
 2685SOL     OW12739   2.989   6.752   0.307  0.7375 -0.1973  0.4334
 2685SOL    HW112740   3.032   6.703   0.377 -0.8423 -0.8931  0.9748
 2685SOL    HW212741   2.910   6.701   0.288  0.3337  0.8231 -0.7650
 2686SOL     OW12742   5.109   5.052   2.960  0.0858 -0.7788 -0.1899
 2686SOL    HW112743   5.059   4.988   2.908 -0.4604  0.1558 -0.8584
 2686SOL    HW212744   5.117   5.128   2.902  1.9102 -0.7267  0.0843
 2687SOL     OW12745   8.219   8.092   1.256 -0.5329 -0.5909  0.6384
 2687SOL    HW112746   8.216   8.104   1.161  0.2253 -0.5600  0.6158
 2687SOL    HW212747   8.297   8.039   1.271 -2.2350 -3.2493  0.9682
 2688SOL     OW12748   2.337  11.210   6.221 -0.2486 -0.3965  0.1894
 2688SOL    HW112749   2.348  11.213   6.316 -0.6646 -2.4771  0.3544
 2688SOL    HW212750   2.328  11.302   6.195 -1.3384  0.1747  2.3119
 2689SOL     OW12751  10.002   0.310   1.975 -0.5551  0.1111  0.3255
 2689SOL    HW112752   9.934   0.375   1.955 -0.7656  0.3105  1.6425
 2689SOL    HW212753  10.077   0.361   2.004  0.4153 -0.0709 -1.6498
 2690SOL     OW12754   1.577   5.164   8.352 -0.3242 -0.2037 -0.0449
 2690SOL    HW112755   1.579   5.069   8.365 -1.2690 -0.4040 -1.1951
 2690SOL    HW212756   1.543   5.199   8.435  2.3267 -0.6158  1.3264
 2691SOL     OW12757  10.696   7.570   4.763  0.0320 -0.4858  0.0863
 2691SOL    HW112758  10.660   7.658   4.751 -0.4366 -0.5468  0.9659
 2691SOL    HW212759  10.690   7.530   4.676 -1.0163 -0.1108 -0.0315
 2692SOL     OW12760  10.457   2.236   2.066  0.4380 -0.5413  0.3731
 2692SOL    HW112761  10.452   2.236   1.970  0.6030  0.6349  0.3490
 2692SOL    HW212762  10.368   2.215   2.095 -0.0185  0.7377 -0.0484
 2693SOL     OW12763   0.590   0.491   2.038  0.3457 -0.3280  0.3972
 2693SOL    HW112764   0.616   0.443   2.117 -0.7605 -0.2398  0.8384
 2693SOL    HW212765   0.670   0.535   2.009  0.7533 -0.2907  1.5303
 2694SOL     OW12766   2.777   6.218   4.271 -0.4910 -0.0903  0.0591
 2694SOL    HW112767   2.866   6.186   4.282 -0.7678 -0.5022  1.2561
 2694SOL    HW212768   2.757   6.203   4.178  0.8587  0.5276 -0.3604
 2695SOL     OW12769   2.709   8.139   8.890 -0.1639 -0.8279  0.2360
 2695SOL    HW112770   2.638   8.141   8.826  0.4774  1.0544 -0.4685
 2695SOL    HW212771   2.788   8.124   8.838  0.1053 -1.7550  0.8840
 2696SOL     OW12772   3.421   8.804   4.012 -0.3879  0.1124  0.1450
 2696SOL    HW112773   3.506   8.761   4.001 -0.1170  1.0769 -2.1805
 2696SOL    HW212774   3.421   8.834   4.103  0.8166 -1.7996  0.8273
 2697SOL     OW12775  11.077  11.223   1.899  0.2084 -0.1553  0.8077
 2697SOL    HW112776  11.027  11.216   1.980 -0.4831  0.0784  0.4201
 2697SOL    HW212777  11.076  11.135   1.862 -1.4743  0.1700 -0.0643
 2698SOL     OW12778  11.211  10.510   3.186 -0.4061  0.0213 -0.7670
 2698SOL    HW112779  11.227  10.543   3.274 -1.6321  0.2171 -0.6039
 2698SOL    HW212780  11.291  10.461   3.164  0.1033  0.3627  0.2536
 2699SOL     OW12781   3.181   6.814   4.535  0.8780 -0.2727  0.2150
 2699SOL    HW112782   3.136   6.818   4.620  0.5353  0.6966  0.0048
 2699SOL    HW212783   3.170   6.902   4.499 -0.2837 -1.0782 -1.5021
 2700SOL     OW12784  11.329   4.816  11.874 -0.1304 -0.1090  0.4990
 2700SOL    HW112785  11.396   4.884  11.880 -0.0061 -0.0979 -0.8549
 2700SOL    HW212786  11.303   4.815  11.782 -3.0874  0.9389  1.1965
 2701SOL     OW12787   5.322   1.572   2.538  0.2688 -0.0603 -0.0134
 2701SOL    HW112788   5.360   1.500   2.487 -0.6285  0.7722 -1.9480
 2701SOL    HW212789   5.382   1.583   2.612  2.3868 -0.4791 -1.5689
 2702SOL     OW12790   8.945   0.979   8.105 -0.1869 -1.0423 -0.3617
 2702SOL    HW112791   9.000   1.042   8.058 -0.1790 -0.3267  0.5746
 2702SOL    HW212792   8.875   1.033   8.142  0.7690 -1.2745  1.9309
 2703SOL     OW12793   4.181   0.572   4.522 -0.3202 -0.4525 -0.0691
 2703SOL    HW112794   4.184   0.664   4.496 -2.5656 -0.0125  0.9778
 2703SOL    HW212795   4.168   0.525   4.440  1.1606  0.0864 -0.6573
 2704SOL     OW12796   5.834  11.643   2.481  0.2675 -0.4073  0.1000
 2704SOL    HW112797   5.830  11.550   2.504  1.9364 -0.2822  1.0863
 2704SOL    HW212798   5.791  11.649   2.396  1.0378 -2.2621 -0.4673
 2705SOL     OW12799   5.482   2.017   5.853 -0.4000  0.7116  0.1846
 2705SOL    HW112800   5.420   2.057   5.914 -0.6752  0.3340  0.1549
 2705SOL    HW212801   5.427   1.971   5.790 -0.1397  1.6158 -0.7219
 2706SOL     OW12802   0.442   9.851   1.911 -0.1430  0.2954 -0.3474
 2706SOL    HW112803   0.368   9.847   1.850  0.0792 -0.6084 -0.5739
 2706SOL    HW212804   0.402   9.840   1.997 -0.3815  0.8827 -0.3769
 2707SOL     OW12805   2.098   0.325   8.686 -0.3793 -0.3470 -0.0645
 2707SOL    HW112806   2.055   0.274   8.617 -0.1059 -1.4335  0.5480
 2707SOL    HW212807   2.116   0.410   8.645 -1.1281 -0.6239 -1.0093
 2708SOL     OW12808   4.435  11.616   7.224 -0.5965 -0.6656  0.4412
 2708SOL    HW112809   4.474  11.529   7.235  0.6750 -0.8010 -3.4763
 2708SOL    HW212810   4.510  11.675   7.221 -1.1412  0.0029 -0.7201
 2709SOL     OW12811   1.314   3.558  11.733 -0.4069 -0.0420  0.0021
 2709SOL    HW112812   1.260   3.631  11.763 -2.0603 -1.0392 -0.4437
 2709SOL    HW212813   1.253   3.486  11.723  0.8620 -0.9605 -1.4576
 2710SOL     OW12814  11.201   5.824  11.567 -0.0739  0.7466 -0.4309
 2710SOL    HW112815  11.232   5.912  11.547  0.1097  0.5359 -1.1100
 2710SOL    HW212816  11.226   5.772  11.490 -2.2205  0.5778 -1.0653
 2711SOL     OW12817   5.905  11.731  10.529 -0.8394  0.0899  0.3903
 2711SOL    HW112818   5.955  11.751  10.450  0.4640  1.3977  1.4792
 2711SOL    HW212819   5.893  11.636  10.526  0.4552 -0.0792 -0.6481
 2712SOL     OW12820   1.323   7.689   8.657  0.0550  0.1759 -0.2901
 2712SOL    HW112821   1.281   7.607   8.630  1.0007  0.0432 -1.4222
 2712SOL    HW212822   1.396   7.662   8.713  1.4481  0.1048 -2.0791
 2713SOL     OW12823   7.639   8.244  11.263  0.1254  0.0846 -0.1475
 2713SOL    HW112824   7.569   8.243  11.328  0.5462 -1.5272  0.3351
 2713SOL    HW212825   7.677   8.332  11.270 -0.8149  0.4462  0.6997
 2714SOL     OW12826   3.522   6.483   3.487  0.0842  0.1337  0.1022
 2714SOL    HW112827   3.599   6.426   3.496 -0.3257 -0.1418  2.6566
 2714SOL    HW212828   3.476   6.449   3.410  1.6349 -0.7561 -0.4779
 2715SOL     OW12829   4.200   8.390  11.310  0.4576  0.0119 -0.6149
 2715SOL    HW112830   4.172   8.394  11.401 -0.2338 -0.5900 -0.7926
 2715SOL    HW212831   4.128   8.431  11.261  0.7899  0.2654 -0.8977
 2716SOL     OW12832  10.311   8.342   0.548 -0.1833  0.3853 -0.1365
 2716SOL    HW112833  10.330   8.410   0.613 -1.6802  0.5795  0.1363
 2716SOL    HW212834  10.220   8.318   0.565  0.8470 -3.2126  1.2111
 2717SOL     OW12835   9.300   7.923   8.531  0.3709  0.1770  0.1045
 2717SOL    HW112836   9.218   7.901   8.488  0.3804 -0.1660  0.2506
 2717SOL    HW212837   9.366   7.916   8.461  0.4453 -0.7916  0.2503
 2718SOL     OW12838  11.962  10.309   2.169  0.7764 -0.2389 -0.3305
 2718SOL    HW112839  11.924  10.249   2.106  1.2262 -0.7693 -0.1024
 2718SOL    HW212840  11.889  10.366   2.195  0.5088 -0.2392 -1.0560
 2719SOL     OW12841  11.721   5.379   4.065  0.0364 -0.3666 -0.1948
 2719SOL    HW112842  11.784   5.449   4.082  0.1240 -0.4354 -0.2358
 2719SOL    HW212843  11.638   5.424   4.052  0.0092 -0.3023  0.2087
 2720SOL     OW12844   2.641   3.803  10.500 -0.3551 -0.0591  0.3816
 2720SOL    HW112845   2.550   3.804  10.471 -0.3823 -1.7102  0.3132
 2720SOL    HW212846   2.692   3.797  10.419 -0.2916 -1.0696  0.4729
 2721SOL     OW12847   1.962   4.465   9.068  0.1738  0.3545  0.3652
 2721SOL    HW112848   1.951   4.373   9.045  0.9511  0.2797  0.2692
 2721SOL    HW212849   1.920   4.473   9.153 -0.7656  0.1367 -0.0636
 2722SOL     OW12850   8.975  10.250   9.567 -0.2962  0.1369  0.2731
 2722SOL    HW112851   8.978  10.329   9.620  2.6442 -0.0912  0.6629
 2722SOL    HW212852   8.928  10.186   9.620 -0.4255  0.9045  1.0950
 2723SOL     OW12853   7.357   6.894   3.859  0.1998 -0.5866 -0.0203
 2723SOL    HW112854   7.306   6.856   3.787  2.1227 -1.1714 -1.1359
 2723SOL    HW212855   7.365   6.986   3.836 -0.7090 -0.4025  0.3837
 2724SOL     OW12856  11.195   8.179   8.100  0.2973 -0.6959  0.1692
 2724SOL    HW112857  11.266   8.125   8.135  0.4904 -0.7243 -0.2571
 2724SOL    HW212858  11.118   8.152   8.150  0.7503 -0.0246  1.2651
 2725SOL     OW12859   0.678   3.191  11.368  0.2363 -0.6263  0.0595
 2725SOL    HW112860   0.735   3.139  11.311  0.6065 -1.1035  0.8511
 2725SOL    HW212861   0.697   3.281  11.344  1.7387 -0.7481  0.6645
 2726SOL     OW12862   8.585   4.571   3.561  0.0445  0.2989 -0.2471
 2726SOL    HW112863   8.628   4.574   3.647 -0.2974 -1.1516 -0.0021
 2726SOL    HW212864   8.614   4.489   3.522 -2.6633 -0.8847  0.0494
 2727SOL     OW12865  10.104   1.190  11.932 -0.1747 -0.3083  0.2110
 2727SOL    HW112866  10.009   1.198  11.943  0.1322  0.7584  3.0896
 2727SOL    HW212867  10.138   1.182  12.021  2.3209 -3.0967 -0.8369
 2728SOL     OW12868   4.428   2.203   2.673 -0.3045 -0.3066  0.2049
 2728SOL    HW112869   4.466   2.116   2.684 -1.7823 -1.2985 -1.8470
 2728SOL    HW212870   4.466   2.236   2.592  0.2717  1.0203  0.9811
 2729SOL     OW12871   6.590   1.331   1.029  0.2570  0.1783 -0.0974
 2729SOL    HW112872   6.654   1.312   0.960  0.9166  0.4481  0.4260
 2729SOL    HW212873   6.643   1.360   1.103 -0.4710  0.2844  0.3908
 2730SOL     OW12874   2.622   7.246   8.624 -0.1438  0.3034  0.7942
 2730SOL    HW112875   2.642   7.321   8.680  0.0615  0.0362  1.0808
 2730SOL    HW212876   2.618   7.171   8.683 -2.1997  0.3486  0.7890
 2731SOL     OW12877   9.336   9.090   6.308  0.5853  0.0081  0.2347
 2731SOL    HW112878   9.392   9.045   6.244 -0.1834  0.0857 -0.5099
 2731SOL    HW212879   9.375   9.068   6.392  1.7499  0.0664 -0.2551
 2732SOL     OW12880   1.301   8.093   5.180 -0.2370  0.4117  0.3592
 2732SOL    HW112881   1.262   8.170   5.222 -1.7780  1.2821 -2.3826
 2732SOL    HW212882   1.383   8.125   5.143 -0.9615  0.8464 -0.9317
 2733SOL     OW12883   8.475   0.020   9.962  0.2055 -0.1748 -0.0256
 2733SOL    HW112884   8.550   0.059  10.008  1.0855 -0.8137 -0.8748
 2733SOL    HW212885   8.492  -0.074   9.965  0.0239 -0.2587 -1.1977
 2734SOL     OW12886   5.890   6.173   9.243 -0.3436  0.8297 -0.3876
 2734SOL    HW112887   5.811   6.212   9.207 -1.1322  0.3833  0.7642
 2734SOL    HW212888   5.859   6.093   9.286  0.7146  0.7009  0.1770
 2735SOL     OW12889   7.850  11.494   1.514  0.8671 -0.0252  0.4095
 2735SOL    HW112890   7.934  11.526   1.546  2.2304 -0.6223 -2.2599
 2735SOL    HW212891   7.872  11.424   1.453 -1.6278 -0.7028  0.1404
 2736SOL     OW12892   7.085   7.171   8.752 -0.0729  0.2190 -0.1312
 2736SOL    HW112893   7.151   7.240   8.742  1.0832 -0.8593 -0.2743
 2736SOL    HW212894   7.098   7.115   8.675 -0.8152 -0.2987  0.1099
 2737SOL     OW12895   0.622   6.524  10.888 -0.0856  0.4952  0.2751
 2737SOL    HW112896   0.534   6.498  10.860  0.2010 -0.1434 -0.0382
 2737SOL    HW212897   0.621   6.511  10.983 -0.1796  0.0271  0.2129
 2738SOL     OW12898   0.733   6.772   0.963 -0.3055 -0.0339  0.1922
 2738SOL    HW112899   0.660   6.830   0.940 -1.2846 -0.1129  2.6911
 2738SOL    HW212900   0.789   6.825   1.019 -0.6845 -1.1251  1.6853
 2739SOL     OW12901   0.844   5.014   5.161 -0.0750 -0.1215 -0.3413
 2739SOL    HW112902   0.821   4.963   5.084 -0.4266  0.2581 -0.4953
 2739SOL    HW212903   0.793   5.095   5.152 -1.1701 -0.6188  0.9657
 2740SOL     OW12904  11.864   4.033   3.818 -0.1302  0.5608 -0.1960
 2740SOL    HW112905  11.933   4.000   3.761  0.5169  0.8537  0.4136
 2740SOL    HW212906  11.909   4.081   3.887 -1.0267  2.2711 -0.7561
 2741SOL     OW12907   4.902   2.115   8.139  0.1439 -0.1187 -0.1169
 2741SOL    HW112908   4.811   2.086   8.125  0.0215  0.2343 -0.0551
 2741SOL    HW212909   4.910   2.121   8.234  0.3504 -0.5226 -0.1090
 2742SOL     OW12910   0.430   3.591   1.799 -0.3332 -0.1815 -0.7693
 2742SOL    HW112911   0.466   3.561   1.715 -0.4018 -2.2918 -0.0965
 2742SOL    HW212912   0.337   3.573   1.793 -0.4473  0.2987 -0.4886
 2743SOL     OW12913   3.340   2.488   9.486  0.5961  0.0851  0.6137
 2743SOL    HW112914   3.378   2.511   9.401 -0.5642  1.6148  0.4612
 2743SOL    HW212915   3.308   2.571   9.521  0.5196 -0.6094  2.3001
 2744SOL     OW12916  10.406   5.429   3.617 -0.0623  0.1652 -0.0525
 2744SOL    HW112917  10.462   5.403   3.544 -0.0436  1.6316 -0.5830
 2744SOL    HW212918  10.325   5.378   3.605  1.1559 -2.1578  0.8564
 2745SOL     OW12919   9.714   2.410   2.893 -0.3824  0.3898 -0.5657
 2745SOL    HW112920   9.696   2.417   2.987 -0.1177 -0.3567 -0.4525
 2745SOL    HW212921   9.806   2.437   2.884 -0.3717  0.3467 -0.5904
 2746SOL     OW12922   7.784   9.676   5.755  0.2004 -0.3525 -0.0123
 2746SOL    HW112923   7.715   9.689   5.691 -1.8072  1.4212  2.3050
 2746SOL    HW212924   7.828   9.761   5.760 -1.0648  0.2609  2.3253
 2747SOL     OW12925   1.697   7.298   3.476  0.3085 -0.4510  0.0737
 2747SOL    HW112926   1.626   7.304   3.539  0.9057 -0.8664  0.7928
 2747SOL    HW212927   1.681   7.371   3.415 -0.8497 -0.6837  0.0886
 2748SOL     OW12928  10.234   3.181  11.739  0.2921 -0.0603  0.0588
 2748SOL    HW112929  10.180   3.103  11.724 -0.1269  0.0430  0.9217
 2748SOL    HW212930  10.216   3.238  11.665  1.3238 -1.1610 -1.0771
 2749SOL     OW12931   5.195   8.701   1.972  0.1303  0.0353 -0.3389
 2749SOL    HW112932   5.142   8.746   1.906 -0.0170  0.5648  0.1264
 2749SOL    HW212933   5.136   8.691   2.047 -0.2267 -2.0717 -0.8626
 2750SOL     OW12934   3.135   2.635   8.219  0.2855  0.1926  0.0134
 2750SOL    HW112935   3.166   2.549   8.245  0.2456  0.2282  0.1766
 2750SOL    HW212936   3.066   2.618   8.155  1.6202  0.1091 -1.4875
 2751SOL     OW12937   5.711   3.761   6.534 -0.0367 -0.2030  0.3133
 2751SOL    HW112938   5.666   3.817   6.471  0.5839 -0.2539 -0.1898
 2751SOL    HW212939   5.785   3.725   6.485  0.7471  0.1518  1.2105
 2752SOL     OW12940   4.917  11.126   4.170 -0.0729 -0.2801  0.4013
 2752SOL    HW112941   4.889  11.116   4.079  1.7217  1.8936 -0.4787
 2752SOL    HW212942   4.881  11.050   4.215 -2.0083 -0.8078 -1.8661
 2753SOL     OW12943   9.373   8.033  11.488  0.0365  0.1950 -0.7657
 2753SOL    HW112944   9.412   8.007  11.404 -0.7354 -0.5613 -0.8971
 2753SOL    HW212945   9.281   8.047  11.468 -0.3198 -0.7671  0.1072
 2754SOL     OW12946   9.358   3.223   3.915  0.3868  0.3067  0.6161
 2754SOL    HW112947   9.357   3.210   3.820 -0.2390 -1.0541  0.7829
 2754SOL    HW212948   9.268   3.247   3.937  0.3534 -0.1035  0.9448
 2755SOL     OW12949   9.368   6.713   2.346 -0.1231 -0.3460  0.0719
 2755SOL    HW112950   9.429   6.758   2.403  0.2266  1.8042 -1.8381
 2755SOL    HW212951   9.411   6.631   2.324  1.2362  0.2898  0.2563
 2756SOL     OW12952   2.993   8.638  11.304 -0.5340  0.2902 -0.1718
 2756SOL    HW112953   3.022   8.691  11.230  1.4682  0.9252  0.9813
 2756SOL    HW212954   2.938   8.697  11.356 -1.3025  0.0782 -0.7208
 2757SOL     OW12955  11.727   2.938   8.171 -0.0104  0.0305  0.5991
 2757SOL    HW112956  11.659   2.953   8.105  0.2864  0.4518  0.3855
 2757SOL    HW212957  11.787   2.876   8.131  0.3726  0.5761  0.3251
 2758SOL     OW12958   0.391  11.040   8.676 -0.2012  0.7107  0.5611
 2758SOL    HW112959   0.372  10.965   8.732  0.6194  0.0067 -0.0645
 2758SOL    HW212960   0.306  11.082   8.662 -0.6979 -0.1779  0.8265
 2759SOL     OW12961   6.699  10.559   3.007  0.6566  0.0127 -0.1627
 2759SOL    HW112962   6.714  10.651   2.988  1.3177  0.1655  0.9975
 2759SOL    HW212963   6.740  10.545   3.093 -0.6836 -1.0128  0.3547
 2760SOL     OW12964   7.255   6.138   5.084  0.3019 -0.5517 -0.2485
 2760SOL    HW112965   7.188   6.152   5.151 -0.4607 -0.1368 -1.0857
 2760SOL    HW212966   7.214   6.081   5.020 -0.0113  1.3244 -1.8079
 2761SOL     OW12967   7.173   0.654   2.444 -0.4911 -0.4605  0.5889
 2761SOL    HW112968   7.153   0.746   2.426 -2.1262 -1.1093 -1.1412
 2761SOL    HW212969   7.268   0.648   2.434 -0.7218 -0.2552 -6.6737
 2762SOL     OW12970   6.830   6.485   2.193  0.6375 -0.2764  0.4884
 2762SOL    HW112971   6.777   6.425   2.245  1.3942 -1.1676  0.2525
 2762SOL    HW212972   6.919   6.476   2.227  1.2909 -1.4210 -1.3775
 2763SOL     OW12973  11.316   5.364   6.386  0.1521  0.3092  0.2583
 2763SOL    HW112974  11.258   5.409   6.447  0.3083  1.3698 -0.3416
 2763SOL    HW212975  11.321   5.423   6.310  1.3706 -0.1356 -0.0271
 2764SOL     OW12976   5.658   3.604   7.970  0.2152  0.4045  0.2795
 2764SOL    HW112977   5.619   3.570   7.889  0.8383  0.0950  0.1058
 2764SOL    HW212978   5.585   3.647   8.015 -0.1259  0.6286 -0.4697
 2765SOL     OW12979   0.409   6.543   7.084 -0.0271  0.2649  0.0723
 2765SOL    HW112980   0.341   6.498   7.035  1.7910 -1.7112 -0.8341
 2765SOL    HW212981   0.385   6.530   7.176 -0.9366 -0.2694 -0.2298
 2766SOL     OW12982   2.436   3.734   6.426 -0.4968  0.2925  1.0337
 2766SOL    HW112983   2.385   3.660   6.396  0.2467  0.4227 -0.6722
 2766SOL    HW212984   2.487   3.701   6.499  0.1270 -1.0161  0.0390
 2767SOL     OW12985   7.466   1.656  11.327  0.0761  0.2035 -0.4212
 2767SOL    HW112986   7.398   1.593  11.300 -1.4919  1.3710  0.6056
 2767SOL    HW212987   7.437   1.687  11.413  1.5451  1.3090 -0.2796
 2768SOL     OW12988   1.180   2.119   0.149  0.0935 -0.2523 -0.3456
 2768SOL    HW112989   1.268   2.137   0.184  0.4292  0.2400 -1.3782
 2768SOL    HW212990   1.152   2.039   0.192  0.7200  0.0242  0.5988
 2769SOL     OW12991   1.899   6.194  10.257  0.1199  0.2164  0.5991
 2769SOL    HW112992   1.913   6.146  10.338  0.0240 -1.1087 -0.1327
 2769SOL    HW212993   1.847   6.271  10.282  1.4878  0.7164  2.0184
 2770SOL     OW12994  11.070   7.743   1.237 -0.5475 -0.7045 -0.4371
 2770SOL    HW112995  11.152   7.706   1.206  0.3599  0.3149  0.6515
 2770SOL    HW212996  11.041   7.800   1.166 -0.1716 -0.8626 -0.7193
 2771SOL     OW12997   2.853   1.955   5.742  0.5654 -0.6665 -0.4022
 2771SOL    HW112998   2.916   1.936   5.812 -0.9710 -2.0245  0.6854
 2771SOL    HW212999   2.904   1.947   5.661  2.4369  1.1562  0.5063
 2772SOL     OW13000   0.194   3.793   6.938  0.0288 -0.4024  0.0442
 2772SOL    HW113001   0.204   3.886   6.921  0.8775 -0.4763  0.1169
 2772SOL    HW213002   0.178   3.754   6.852  0.2260 -0.2621 -0.0545
 2773SOL     OW13003   5.048   5.103  10.561 -0.4832 -0.2376  0.1302
 2773SOL    HW113004   5.017   5.104  10.470 -2.3655 -2.1145  0.6771
 2773SOL    HW213005   5.109   5.030  10.565  0.6120  0.6586  0.1009
 2774SOL     OW13006   5.614  11.417  10.267 -0.2410  0.2152 -0.0141
 2774SOL    HW113007   5.551  11.482  10.299  0.8159  0.7623  1.0392
 2774SOL    HW213008   5.578  11.333  10.295  0.9915  0.6818  3.5029
 2775SOL     OW13009   9.847  10.658   7.806 -0.4582 -0.4049  0.0707
 2775SOL    HW113010   9.929  10.697   7.777 -1.0595  0.3933 -0.5885
 2775SOL    HW213011   9.858  10.648   7.901 -0.1540  1.1093  0.2322
 2776SOL     OW13012   6.779  10.872   1.974 -0.2131 -0.0754 -0.1434
 2776SOL    HW113013   6.785  10.960   2.013 -1.0733 -0.2000  0.2981
 2776SOL    HW213014   6.847  10.822   2.019  0.1853  0.3234 -0.2905
 2777SOL     OW13015   1.255   9.182   1.162  0.3783 -0.5524 -0.5429
 2777SOL    HW113016   1.250   9.175   1.067  0.0720  0.9066 -0.6643
 2777SOL    HW213017   1.297   9.101   1.191  2.2000 -0.2106 -2.0758
 2778SOL     OW13018   4.537   1.589  11.944 -0.3841  0.5840 -0.1593
 2778SOL    HW113019   4.616   1.541  11.966 -0.5108  0.2449 -0.4319
 2778SOL    HW213020   4.466   1.533  11.976 -0.5180  0.7627 -0.1468
 2779SOL     OW13021   0.030   0.626   6.567 -0.1653  0.0483  0.1050
 2779SOL    HW113022   0.088   0.652   6.495 -0.0473 -1.1736 -0.2676
 2779SOL    HW213023   0.087   0.577   6.626 -0.4778  0.2178  0.5464
 2780SOL     OW13024   8.578   4.522   7.751 -0.1965  0.7920 -0.1154
 2780SOL    HW113025   8.522   4.449   7.778 -0.7062  1.3875  0.4571
 2780SOL    HW213026   8.610   4.496   7.665 -0.3392 -0.1278  0.0899
 2781SOL     OW13027   4.364   1.523   2.164  0.2932 -0.1963 -0.3575
 2781SOL    HW113028   4.343   1.530   2.071 -0.9163 -1.0839 -0.1807
 2781SOL    HW213029   4.385   1.613   2.191 -0.1659  0.2038 -1.3027
 2782SOL     OW13030   6.234  11.247   1.907 -0.4707  0.3100 -0.0392
 2782SOL    HW113031   6.276  11.229   1.990 -1.9915 -2.1871  0.2721
 2782SOL    HW213032   6.305  11.247   1.843  0.5412  0.9767  1.0452
 2783SOL     OW13033  10.625   8.522   7.072  0.1370 -0.6017 -0.2606
 2783SOL    HW113034  10.688   8.511   7.000 -0.4538 -1.3722 -0.6740
 2783SOL    HW213035  10.625   8.438   7.117 -0.4869 -0.5617 -0.1799
 2784SOL     OW13036   0.814   4.299   9.802  0.3625 -0.2456  0.6941
 2784SOL    HW113037   0.728   4.276   9.837  0.3868  0.6458  1.3774
 2784SOL    HW213038   0.819   4.394   9.811  1.2610 -0.2436  0.2894
 2785SOL     OW13039  10.434   6.109   2.074 -0.0577 -0.1923  0.5314
 2785SOL    HW113040  10.386   6.097   2.156 -0.5440 -1.3244  0.1031
 2785SOL    HW213041  10.366   6.105   2.006  0.0262  2.9055  0.1490
 2786SOL     OW13042   6.402   8.037   1.541 -0.2688 -0.4031  0.5341
 2786SOL    HW113043   6.366   7.950   1.525 -0.5905 -0.2590  0.4829
 2786SOL    HW213044   6.495   8.021   1.561 -0.5665 -0.8585  1.6377
 2787SOL     OW13045   8.183  10.015   9.338 -0.0214  0.3637 -0.0050
 2787SOL    HW113046   8.258  10.061   9.374  0.5595  0.8185 -1.6927
 2787SOL    HW213047   8.107  10.055   9.381  0.6035  1.3334  0.2223
 2788SOL     OW13048   0.484   8.458   2.361 -0.8070 -0.2647  0.5654
 2788SOL    HW113049   0.578   8.462   2.344 -0.9327  0.9868  0.0597
 2788SOL    HW213050   0.460   8.547   2.387 -1.5485 -0.9665  2.4713
 2789SOL     OW13051   4.984   9.836   2.164 -0.1246  0.0505  0.3135
 2789SOL    HW113052   5.053   9.877   2.112  1.3069 -1.9740  0.5170
 2789SOL    HW213053   4.992   9.742   2.147 -1.6437 -0.4152  1.7742
 2790SOL     OW13054   6.056   4.430   3.582  0.0537 -0.1406 -0.2722
 2790SOL    HW113055   6.106   4.349   3.589  1.5698  0.7165 -0.6625
 2790SOL    HW213056   6.123   4.499   3.573 -1.1615  1.2041  0.5092
 2791SOL     OW13057   6.696   9.122   9.800  0.3875  0.3648 -0.6128
 2791SOL    HW113058   6.775   9.159   9.840  0.1064  0.2991  0.0049
 2791SOL    HW213059   6.708   9.137   9.706  1.6937 -0.7217 -0.6480
 2792SOL     OW13060   2.429   4.334   6.742 -0.1364 -0.1897  0.3408
 2792SOL    HW113061   2.436   4.429   6.731  1.8567 -0.2796  0.4308
 2792SOL    HW213062   2.351   4.310   6.693 -0.0426  1.3626 -0.6381
 2793SOL     OW13063  11.852   4.431   5.549  0.0424  0.0551 -0.0713
 2793SOL    HW113064  11.834   4.514   5.506 -2.6433 -0.0816  0.6378
 2793SOL    HW213065  11.847   4.451   5.642  2.1237 -0.4069  0.1972
 2794SOL     OW13066  11.139  10.963   6.250 -0.7006 -0.1329  0.2563
 2794SOL    HW113067  11.046  10.953   6.229 -0.6173 -0.0520 -0.1724
 2794SOL    HW213068  11.183  10.900   6.193 -0.3792  0.8977 -0.6836
 2795SOL     OW13069   1.137  11.063   5.562 -0.1277  0.1473 -0.0287
 2795SOL    HW113070   1.175  10.983   5.597  0.4998  0.7684  0.7516
 2795SOL    HW213071   1.065  11.033   5.506 -1.7435 -0.8928  2.4099
 2796SOL     OW13072   9.205   0.301   1.121 -0.0432  0.1899 -0.6804
 2796SOL    HW113073   9.227   0.387   1.084 -0.2159  0.3058 -0.5125
 2796SOL    HW213074   9.159   0.256   1.050 -0.0797  0.2870 -0.7184
 2797SOL     OW13075   0.801   4.367   4.415  0.8693  0.7932 -0.2408
 2797SOL    HW113076   0.772   4.356   4.505  0.9319  1.9539 -0.0718
 2797SOL    HW213077   0.829   4.279   4.388 -0.6325  0.1029  0.3379
 2798SOL     OW13078  11.507   2.547   3.680 -0.3552 -0.1556  0.2610
 2798SOL    HW113079  11.435   2.566   3.620 -0.4478 -0.5393  0.2454
 2798SOL    HW213080  11.544   2.633   3.702  0.5671 -0.0807 -1.4367
 2799SOL     OW13081   7.178   2.730   9.344 -0.0452 -0.1921 -0.4078
 2799SOL    HW113082   7.198   2.728   9.438 -1.0420  2.2567 -0.0750
 2799SOL    HW213083   7.139   2.644   9.327 -2.0675  0.1093  2.0042
 2800SOL     OW13084   3.390   0.554   6.545  0.0622  0.0966  0.8821
 2800SOL    HW113085   3.480   0.526   6.561  0.1136  0.7115  1.7069
 2800SOL    HW213086   3.355   0.575   6.631 -0.8378 -0.0182  0.5567
 2801SOL     OW13087  10.929   3.096   9.947  0.2656  0.7308  0.2104
 2801SOL    HW113088  10.878   3.167   9.985 -1.7438  0.4690 -1.7838
 2801SOL    HW213089  10.865   3.043   9.900  1.9271 -1.5719  0.3580
 2802SOL     OW13090  11.498   4.924   7.749 -0.0410  0.1987  0.1445
 2802SOL    HW113091  11.569   4.966   7.797 -0.6119  0.8596  0.4289
 2802SOL    HW213092  11.434   4.994   7.735 -0.6171 -0.3777 -0.1420
 2803SOL     OW13093   0.976   6.191  10.208 -0.0518  0.2900  0.0708
 2803SOL    HW113094   0.961   6.284  10.228 -1.5363 -0.0151  0.5274
 2803SOL    HW213095   1.071   6.179  10.220  0.0453  1.5654  0.8122
 2804SOL     OW13096   2.839   7.002   9.817 -0.1645  0.6431  0.2481
 2804SOL    HW113097   2.891   7.039   9.745 -2.6108  0.9273 -1.4719
 2804SOL    HW213098   2.862   6.909   9.818 -0.9179  0.4117 -1.6770
 2805SOL     OW13099   8.897   2.403   2.375  0.3446  0.1879  0.1513
 2805SOL    HW113100   8.845   2.363   2.305  1.7749 -0.5446 -0.5340
 2805SOL    HW213101   8.968   2.449   2.329  0.9322  0.2521  1.0972
 2806SOL     OW13102   5.945   0.575   8.573 -0.1193  0.5187  0.1502
 2806SOL    HW113103   5.976   0.516   8.642  1.5440  1.4255  0.2295
 2806SOL    HW213104   5.906   0.517   8.507 -0.6524 -0.4509  1.2918
 2807SOL     OW13105   9.053   5.515   5.866 -0.6573 -0.6278  0.0185
 2807SOL    HW113106   8.987   5.485   5.928 -0.4707  0.7132  0.9050
 2807SOL    HW213107   9.136   5.496   5.909 -0.5266  0.3881  0.2540
 2808SOL     OW13108   1.530   8.159   1.516 -0.0813  0.1174 -0.1732
 2808SOL    HW113109   1.502   8.251   1.520  0.9795  0.5084 -1.3519
 2808SOL    HW213110   1.516   8.134   1.425 -1.4356 -1.2692  0.3755
 2809SOL     OW13111   2.281   2.161   1.237 -0.0718  0.2148  0.1525
 2809SOL    HW113112   2.368   2.124   1.251  0.7680  1.1730 -2.0235
 2809SOL    HW213113   2.279   2.241   1.290 -0.4244 -0.8229  1.7679
 2810SOL     OW13114   1.064   5.230  11.860 -0.2117  0.1076 -0.3662
 2810SOL    HW113115   0.988   5.173  11.845  0.2681 -0.2932 -1.3585
 2810SOL    HW213116   1.048   5.267  11.947 -1.4577 -0.0940 -0.4775
 2811SOL     OW13117  11.896   0.617   0.540 -0.3511 -0.4234  0.1799
 2811SOL    HW113118  11.894   0.595   0.447 -1.4096  0.8408 -0.1241
 2811SOL    HW213119  11.913   0.712   0.542  0.1253 -0.5123  1.2935
 2812SOL     OW13120   7.210   4.378   0.868 -0.8864 -0.1218  0.1743
 2812SOL    HW113121   7.190   4.398   0.776 -1.8478 -0.4043  0.3122
 2812SOL    HW213122   7.139   4.418   0.917 -0.2562  0.2184  0.8265
 2813SOL     OW13123   1.238   0.815  11.782 -0.2494  0.1477 -0.2587
 2813SOL    HW113124   1.159   0.769  11.811  1.2655 -1.4813  1.5617
 2813SOL    HW213125   1.280   0.755  11.720 -0.3524  0.9637 -1.1495
 2814SOL     OW13126   3.432   7.562   2.618 -0.5562  0.0531 -0.1252
 2814SOL    HW113127   3.526   7.550   2.602 -0.5902 -0.7975  0.2851
 2814SOL    HW213128   3.400   7.605   2.538  0.0955 -0.0348 -0.4450
 2815SOL     OW13129   8.606   3.040  10.091 -0.0243 -0.0734  0.4211
 2815SOL    HW113130   8.537   3.003  10.035  0.7425 -1.2025  0.1882
 2815SOL    HW213131   8.592   3.135  10.087 -1.0090 -0.2374 -0.3409
 2816SOL     OW13132   0.750  10.331   3.427  0.2002  0.0774  0.1605
 2816SOL    HW113133   0.696  10.273   3.373  1.0647 -0.0070 -0.6335
 2816SOL    HW213134   0.825  10.353   3.372  0.8429  0.4266  1.1429
 2817SOL     OW13135   6.756   0.741   1.483  0.2419 -0.5573  0.0377
 2817SOL    HW113136   6.743   0.836   1.483  2.7565 -0.1361  0.0465
 2817SOL    HW213137   6.710   0.711   1.562 -1.2170  0.5169 -0.3627
 2818SOL     OW13138   4.039   2.205   8.014  0.2841 -0.1969 -0.2196
 2818SOL    HW113139   4.127   2.239   8.029 -0.6062  1.8375  0.7735
 2818SOL    HW213140   4.049   2.143   7.942  2.4175  0.3895 -0.4883
 2819SOL     OW13141  11.422   8.848   4.327  0.4066 -0.1191 -0.0798
 2819SOL    HW113142  11.430   8.755   4.345  2.1458 -0.2048 -1.0488
 2819SOL    HW213143  11.511   8.883   4.337 -0.0473  1.2632 -0.5477
 2820SOL     OW13144   5.526   2.923   8.221  0.7003 -0.3208  0.1049
 2820SOL    HW113145   5.504   3.016   8.215  1.4098 -0.1493  0.1273
 2820SOL    HW213146   5.476   2.882   8.150 -0.7270 -0.1427  0.9604
 2821SOL     OW13147   0.348   0.542   4.198  0.4028 -0.2659  0.0825
 2821SOL    HW113148   0.418   0.584   4.148 -0.4704 -0.3463 -1.2688
 2821SOL    HW213149   0.379   0.453   4.214 -0.0038 -0.8011 -1.8923
 2822SOL     OW13150  10.797   9.846  11.506  0.0453 -0.8292  0.6336
 2822SOL    HW113151  10.709   9.830  11.472 -0.9503 -0.2284  2.7490
 2822SOL    HW213152  10.827   9.761  11.537  0.0780 -0.9725  0.2173
 2823SOL     OW13153  10.906   1.639  11.282  0.9639  0.4224 -0.0707
 2823SOL    HW113154  10.847   1.614  11.210  0.0564 -0.4819  0.9563
 2823SOL    HW213155  10.981   1.580  11.273 -0.1908 -1.3128  1.0470
 2824SOL     OW13156   4.944   4.965  11.824 -0.0173  0.2328  0.2072
 2824SOL    HW113157   5.032   4.928  11.817  0.0034 -0.3469  2.6251
 2824SOL    HW213158   4.959   5.059  11.837  0.2567  0.1138  0.7656
 2825SOL     OW13159   1.204   6.874  11.955  0.3183  0.4894 -0.3172
 2825SOL    HW113160   1.282   6.882  12.011  1.1418 -0.8215 -1.2216
 2825SOL    HW213161   1.227   6.922  11.876  0.4339 -0.3718 -0.8096
 2826SOL     OW13162   3.076   1.626   6.322 -0.5465 -0.5351  0.3238
 2826SOL    HW113163   3.156   1.618   6.373 -0.3114  0.3290  0.1063
 2826SOL    HW213164   3.094   1.695   6.259 -0.6896 -1.8495 -1.2319
 2827SOL     OW13165   9.479   8.894   9.706  1.1075  0.4685  0.2841
 2827SOL    HW113166   9.560   8.877   9.754  1.1783 -1.1839 -0.3552
 2827SOL    HW213167   9.460   8.987   9.723  0.5669 -0.1592  4.3551
 2828SOL     OW13168   7.855   1.941   1.847 -0.4661  0.2474  0.4325
 2828SOL    HW113169   7.849   1.959   1.753  0.4092 -0.5145  0.2096
 2828SOL    HW213170   7.873   1.847   1.852 -1.5428  0.0773  1.4145
 2829SOL     OW13171   2.118  11.059   2.141 -0.2904  0.4601 -0.4409
 2829SOL    HW113172   2.111  10.980   2.088 -3.4389  0.7009 -0.5330
 2829SOL    HW213173   2.106  11.131   2.080  1.6272  1.0505 -0.2017
 2830SOL     OW13174   8.645   9.382  10.172  0.2912 -0.2216  0.1600
 2830SOL    HW113175   8.559   9.343  10.189  0.2262 -0.3923 -0.5111
 2830SOL    HW213176   8.672   9.343  10.088  0.3857  0.9164 -0.3477
 2831SOL     OW13177   3.304   3.921   0.898  0.5260  0.1083  0.4248
 2831SOL    HW113178   3.317   4.001   0.948 -1.5520  0.9755 -0.3015
 2831SOL    HW213179   3.229   3.940   0.841  1.4872 -1.5271 -1.5323
 2832SOL     OW13180   8.555   6.145   5.468  0.7282  0.1192  0.4042
 2832SOL    HW113181   8.633   6.107   5.426 -0.3022 -0.9951 -0.5544
 2832SOL    HW213182   8.534   6.221   5.413  0.5339 -0.1901  0.0441
 2833SOL     OW13183  10.955   0.955   4.577 -0.7010  0.6976  0.2322
 2833SOL    HW113184  10.873   0.905   4.585 -0.3302  0.2083  1.1733
 2833SOL    HW213185  10.938   1.037   4.623  0.0086 -0.3081  2.4476
 2834SOL     OW13186   2.564   9.670   2.584 -0.5345  0.1232 -0.5704
 2834SOL    HW113187   2.554   9.603   2.652  1.1457 -1.0477 -1.4145
 2834SOL    HW213188   2.646   9.715   2.605 -1.7297  2.1417  0.1034
 2835SOL     OW13189   2.244   3.726   8.621 -0.0309 -0.5604  0.1084
 2835SOL    HW113190   2.309   3.727   8.691 -0.4928 -0.4858  0.5345
 2835SOL    HW213191   2.272   3.654   8.564  1.9429  1.0936 -1.1647
 2836SOL     OW13192  11.540   2.370   9.958 -0.4402 -0.3657 -0.5398
 2836SOL    HW113193  11.556   2.462   9.980 -0.8973 -0.1910 -0.9104
 2836SOL    HW213194  11.446   2.358   9.973  0.0845 -1.6437  2.6425
 2837SOL     OW13195  10.568   0.973   9.950 -0.2657  0.5172  0.0859
 2837SOL    HW113196  10.607   0.896   9.909 -0.6778 -1.0959  2.5533
 2837SOL    HW213197  10.640   1.015   9.996 -0.5830 -0.1309  1.2156
 2838SOL     OW13198   0.376  11.147   3.115 -0.3634  0.8334  0.1329
 2838SOL    HW113199   0.334  11.151   3.029 -0.1932  1.6761  0.0795
 2838SOL    HW213200   0.352  11.061   3.150 -1.3365  0.9143 -0.3045
 2839SOL     OW13201   0.206   2.595   1.953 -0.0725 -0.3006  0.3865
 2839SOL    HW113202   0.280   2.649   1.981  0.6625 -2.5685  3.3396
 2839SOL    HW213203   0.229   2.568   1.864  2.0183  0.1363  0.7405
 2840SOL     OW13204   9.877   1.104   5.085  0.6649 -0.3705 -0.6905
 2840SOL    HW113205   9.791   1.116   5.045  0.3477  0.3629  0.1905
 2840SOL    HW213206   9.901   1.014   5.065 -1.3081 -1.3286  0.9488
 2841SOL     OW13207   9.045   9.971   0.274  0.1627  0.0223 -0.4434
 2841SOL    HW113208   8.989  10.031   0.224  0.1786 -1.5048 -2.4677
 2841SOL    HW213209   9.134   9.992   0.244  0.6328  1.6179  1.8524
 2842SOL     OW13210   6.107   7.950   1.479 -0.3954  0.5656  0.1238
 2842SOL    HW113211   6.052   8.021   1.511 -0.2846  0.1029  1.3937
 2842SOL    HW213212   6.084   7.941   1.386 -1.0975  1.6086  0.1869
 2843SOL     OW13213  11.253   5.476   2.093  0.4240 -0.3688  0.4814
 2843SOL    HW113214  11.173   5.476   2.144  0.3333 -0.1126  0.3408
 2843SOL    HW213215  11.323   5.460   2.157  0.5997  2.5496  1.1612
 2844SOL     OW13216   2.019   9.461   1.133 -0.0946  0.1395  0.2210
 2844SOL    HW113217   1.934   9.491   1.165 -0.7155 -2.6706  1.5445
 2844SOL    HW213218   2.002   9.435   1.042 -0.4482  0.2877  0.2421
 2845SOL     OW13219   1.074   6.242   9.901 -0.0288 -0.0035  0.0415
 2845SOL    HW113220   1.050   6.163   9.853 -2.1094  1.0172 -0.7376
 2845SOL    HW213221   1.166   6.257   9.878  0.7960 -2.7569  1.1121
 2846SOL     OW13222   7.488  10.786   6.575 -0.1840  0.2281 -0.0151
 2846SOL    HW113223   7.483  10.845   6.500 -2.3660 -1.0273 -0.9272
 2846SOL    HW213224   7.509  10.701   6.538  0.3246 -0.1128  0.9983
 2847SOL     OW13225   4.183  11.114  10.815 -0.5527  0.5157  0.2002
 2847SOL    HW113226   4.152  11.060  10.742 -1.4382 -0.6795  1.4091
 2847SOL    HW213227   4.105  11.159  10.846 -1.0098 -1.6517  2.5614
 2848SOL     OW13228   8.097   4.914   0.737  0.0805 -0.3041  0.2520
 2848SOL    HW113229   8.128   4.872   0.818  1.1686 -1.0061 -0.5012
 2848SOL    HW213230   8.076   4.841   0.678 -0.4349  0.2038 -0.2001
 2849SOL     OW13231   7.716   5.454  10.005 -0.6875 -0.0882  0.0755
 2849SOL    HW113232   7.701   5.463  10.099  1.1888 -0.7250  0.4842
 2849SOL    HW213233   7.629   5.441   9.968 -1.5410  0.9615  1.6132
 2850SOL     OW13234   8.377   5.583   6.934 -0.0517  0.2334 -0.2843
 2850SOL    HW113235   8.443   5.584   7.003  0.5580 -2.9071 -0.7120
 2850SOL    HW213236   8.296   5.610   6.978  0.8684  1.0750  0.9577
 2851SOL     OW13237   5.659   6.086  10.268 -0.1931 -0.0052 -0.0184
 2851SOL    HW113238   5.754   6.078  10.272 -0.1060 -0.7685 -2.3489
 2851SOL    HW213239   5.626   6.004  10.306  0.0186  0.4307  1.1697
 2852SOL     OW13240   6.838   9.478   8.210  0.4046 -0.3829  0.8184
 2852SOL    HW113241   6.911   9.459   8.151 -0.3710 -2.4254  0.4232
 2852SOL    HW213242   6.760   9.466   8.156 -0.2962  3.2426  0.8309
 2853SOL     OW13243   9.126   8.674   2.182 -0.1152 -0.4179  0.4741
 2853SOL    HW113244   9.060   8.625   2.133  0.4006  0.2364 -0.9235
 2853SOL    HW213245   9.121   8.763   2.148  2.9516 -0.7758 -1.3906
 2854SOL     OW13246   8.019   6.819  11.134 -0.4862 -0.0084  0.3264
 2854SOL    HW113247   8.005   6.859  11.220  0.7981  1.5164 -0.1263
 2854SOL    HW213248   7.933   6.823  11.092 -0.6294  1.3640  0.6981
 2855SOL     OW13249   8.793   9.217   9.106 -0.9138 -0.1387  0.2104
 2855SOL    HW113250   8.888   9.201   9.102 -0.5565  1.6378  0.5815
 2855SOL    HW213251   8.786   9.306   9.141 -2.7893 -0.9552  2.0778
 2856SOL     OW13252  10.432  11.528  10.809  0.8419 -0.5370  1.0496
 2856SOL    HW113253  10.349  11.516  10.856  1.4405  1.3583  2.7441
 2856SOL    HW213254  10.406  11.547  10.719 -0.5162 -0.8906  1.3468
 2857SOL     OW13255   0.261   9.307   4.686 -0.3711 -0.4470 -0.1143
 2857SOL    HW113256   0.261   9.353   4.602 -3.0228  0.3614  0.2121
 2857SOL    HW213257   0.191   9.349   4.736  0.9185 -1.1009  2.4214
 2858SOL     OW13258   9.494   9.762   7.693 -0.2571 -0.2931  0.6807
 2858SOL    HW113259   9.405   9.760   7.657 -0.4106  0.2640  1.0164
 2858SOL    HW213260   9.481   9.755   7.787 -0.1297  2.4190  0.9676
 2859SOL     OW13261   9.098   4.478   5.693  0.3267  0.8649  0.6393
 2859SOL    HW113262   9.162   4.418   5.732  0.5149  0.3024 -0.4705
 2859SOL    HW213263   9.142   4.562   5.690  1.1739  0.4189 -0.3897
 2860SOL     OW13264   0.329   9.378   8.627 -0.3160 -0.0130  0.3383
 2860SOL    HW113265   0.265   9.396   8.559  0.1738  1.6603  0.2768
 2860SOL    HW213266   0.306   9.438   8.698 -0.0927 -0.8892  1.1715
 2861SOL     OW13267   0.060   6.597   1.503 -0.5669 -0.0053  0.5129
 2861SOL    HW113268   0.024   6.681   1.473  1.4527  0.3445 -1.1554
 2861SOL    HW213269  -0.017   6.540   1.513 -1.7001  0.8258 -2.3958
 2862SOL     OW13270   3.992   1.007   5.402  0.1157 -0.1168 -0.1776
 2862SOL    HW113271   4.051   0.949   5.451 -0.8802 -0.3283  0.7987
 2862SOL    HW213272   4.050   1.050   5.339  1.3967 -0.0795  0.9567
 2863SOL     OW13273   3.940   4.385   2.147  0.2662  0.5321  0.3435
 2863SOL    HW113274   3.987   4.312   2.188 -1.4346 -0.9346 -0.1445
 2863SOL    HW213275   3.977   4.390   2.058 -0.1279 -0.2997  0.1167
 2864SOL     OW13276  10.543   3.997   4.849  0.4004 -0.2490 -0.3565
 2864SOL    HW113277  10.607   4.024   4.914  2.0552 -1.6155 -1.3234
 2864SOL    HW213278  10.498   3.922   4.888  0.5981 -0.3577 -0.3382
 2865SOL     OW13279   5.700   2.388   1.539  0.0910 -0.0114 -0.1393
 2865SOL    HW113280   5.628   2.443   1.509 -1.0518 -0.6800  1.2782
 2865SOL    HW213281   5.682   2.302   1.500  0.8675  0.1435 -0.8623
 2866SOL     OW13282   7.576   5.307   8.973 -0.2735 -0.3490  0.1737
 2866SOL    HW113283   7.485   5.293   8.947 -0.6324 -2.1538  2.1137
 2866SOL    HW213284   7.579   5.396   9.006 -1.1678 -0.0473 -0.5374
 2867SOL     OW13285   3.953   0.359   6.799  0.2155  0.4737  0.6391
 2867SOL    HW113286   3.905   0.346   6.880 -0.2475 -1.8993  0.0673
 2867SOL    HW213287   4.043   0.332   6.820  0.0888 -0.1712  0.3889
 2868SOL     OW13288   6.106   1.433   2.043 -0.6808  0.1569 -0.0669
 2868SOL    HW113289   6.013   1.425   2.021 -0.6872  0.2585 -0.0784
 2868SOL    HW213290   6.120   1.371   2.114 -0.3984 -1.0865 -1.1556
 2869SOL     OW13291   4.541   5.148   0.006 -0.4347 -0.3009 -0.2386
 2869SOL    HW113292   4.601   5.160   0.079  0.5414 -0.6551 -0.9530
 2869SOL    HW213293   4.577   5.074  -0.043 -2.4490 -1.7133  0.2765
 2870SOL     OW13294   0.825   3.017  10.761 -1.0116 -0.1290  0.1069
 2870SOL    HW113295   0.736   2.984  10.743 -1.1225 -0.7230  1.6344
 2870SOL    HW213296   0.857   2.961  10.831 -0.0809  1.2018  0.7669
 2871SOL     OW13297   7.309   9.033   0.262  0.4385  0.1058  0.0321
 2871SOL    HW113298   7.261   9.115   0.249  1.5440  0.6744 -0.6328
 2871SOL    HW213299   7.358   9.047   0.343 -0.3425 -0.4055  0.6115
 2872SOL     OW13300   9.273   1.109   9.931  0.5500  0.2504  0.4833
 2872SOL    HW113301   9.308   1.037   9.877  1.2090  3.1988 -3.5038
 2872SOL    HW213302   9.179   1.093   9.933  0.6593 -0.6917 -0.4229
 2873SOL     OW13303   2.254  10.860  10.538 -0.0885 -0.5601  0.3267
 2873SOL    HW113304   2.325  10.816  10.586  0.0632 -1.5218 -0.7326
 2873SOL    HW213305   2.290  10.875  10.451 -0.4409  0.9597  0.4216
 2874SOL     OW13306   4.513   2.236   1.050  0.4415 -0.1851 -1.1426
 2874SOL    HW113307   4.548   2.267   1.134 -2.1033  2.3297 -0.8519
 2874SOL    HW213308   4.484   2.147   1.068 -3.6345  1.4447  2.0581
 2875SOL     OW13309   0.015   2.385   2.385  0.8154 -0.8092 -0.3537
 2875SOL    HW113310  -0.005   2.305   2.336  0.0456 -0.6480 -0.3165
 2875SOL    HW213311  -0.066   2.407   2.430  1.1217 -0.2025 -0.0813
 2876SOL     OW13312   0.880   2.926   3.223 -0.6864  0.1438 -0.2744
 2876SOL    HW113313   0.956   2.890   3.268 -1.4744 -1.2162  0.0380
 2876SOL    HW213314   0.915   2.962   3.142  0.2471 -0.8473 -0.3363
 2877SOL     OW13315   4.857   3.618   3.934 -0.0441 -0.1381  0.1063
 2877SOL    HW113316   4.838   3.657   4.019  3.0651 -0.0365  0.9000
 2877SOL    HW213317   4.846   3.689   3.872 -1.2604  0.0918  0.5671
 2878SOL     OW13318   5.795   2.039   4.855  0.4124 -0.6987 -0.2576
 2878SOL    HW113319   5.791   2.074   4.944 -0.8598  1.2623 -1.0041
 2878SOL    HW213320   5.753   1.954   4.860  0.0000 -0.4432  0.9605
 2879SOL     OW13321   9.665  10.794   0.938 -0.0547  0.2876 -0.4904
 2879SOL    HW113322   9.615  10.856   0.991 -0.2532 -0.3519  0.0873
 2879SOL    HW213323   9.753  10.831   0.935  0.1235  0.0353  0.8265
 2880SOL     OW13324  11.133   2.985   4.277 -0.3427 -0.3956  0.0986
 2880SOL    HW113325  11.062   2.976   4.214 -0.8594  1.6613  0.3122
 2880SOL    HW213326  11.212   2.988   4.223 -0.6904  0.2778 -0.3947
 2881SOL     OW13327   5.073   4.130  10.382 -0.2497  0.0710  0.6635
 2881SOL    HW113328   5.060   4.151  10.289 -1.7445  1.9779  1.2511
 2881SOL    HW213329   5.068   4.214  10.427 -3.1847 -1.0938  2.8580
 2882SOL     OW13330   9.294   1.578   8.527 -0.1172  0.4030  0.3234
 2882SOL    HW113331   9.295   1.608   8.618  0.9597 -0.1103  0.5065
 2882SOL    HW213332   9.339   1.647   8.478  0.6395 -0.0049  0.4318
 2883SOL     OW13333   8.032   6.699   3.594 -0.2723  0.1955 -0.0817
 2883SOL    HW113334   7.991   6.672   3.676  0.9204  0.0050  0.4603
 2883SOL    HW213335   8.037   6.795   3.600 -0.5076  0.2116 -0.1009
 2884SOL     OW13336  11.335  11.993   7.955 -0.0612  0.0610 -0.5706
 2884SOL    HW113337  11.355  11.965   8.044  0.2173 -2.4343 -1.3449
 2884SOL    HW213338  11.419  12.021   7.919  0.1593 -0.6126 -0.5894
 2885SOL     OW13339   2.349   5.367   6.798 -0.8020 -0.2536 -0.0730
 2885SOL    HW113340   2.366   5.310   6.872 -1.3781  2.5082  2.3923
 2885SOL    HW213341   2.253   5.377   6.796 -0.6852  1.2053  0.1241
 2886SOL     OW13342  10.470   7.100   2.367  0.0243 -0.7809 -0.1507
 2886SOL    HW113343  10.398   7.131   2.422  1.7664  0.8857  1.3056
 2886SOL    HW213344  10.536   7.169   2.372  0.3410 -0.4979 -4.3779
 2887SOL     OW13345   9.804  11.879   7.764  0.1925  0.3265 -0.0229
 2887SOL    HW113346   9.791  11.961   7.812  1.1646  2.3275 -2.8415
 2887SOL    HW213347   9.730  11.824   7.789 -1.5475  2.7914  0.6448
 2888SOL     OW13348   6.052   8.578  10.295 -0.0363 -0.5221 -0.0467
 2888SOL    HW113349   5.990   8.626  10.349 -0.0125  1.3318 -1.5596
 2888SOL    HW213350   6.016   8.583  10.207  1.3214 -1.0044 -0.6552
 2889SOL     OW13351   1.429   0.994   7.824  0.0798  0.0835 -0.4794
 2889SOL    HW113352   1.443   1.051   7.900 -0.9271 -1.1636  0.7103
 2889SOL    HW213353   1.477   1.036   7.753  1.1338  1.2641  0.8595
 2890SOL     OW13354   1.388   6.256   8.254  0.0390  0.1822  0.3677
 2890SOL    HW113355   1.413   6.348   8.257  0.0222  0.1619  1.7743
 2890SOL    HW213356   1.451   6.212   8.310 -0.6904 -0.4801  0.6878
 2891SOL     OW13357  11.280   9.017   3.006  0.5952 -0.3123  0.1227
 2891SOL    HW113358  11.273   8.922   3.007  1.9101 -0.5228  3.6083
 2891SOL    HW213359  11.206   9.048   3.058  1.0120  0.4361  0.2914
 2892SOL     OW13360  11.527   4.383   9.859 -0.4736 -0.3852 -0.0782
 2892SOL    HW113361  11.568   4.381   9.946 -1.7175  0.2236  0.5609
 2892SOL    HW213362  11.458   4.449   9.867  1.1928  1.7631 -2.3939
 2893SOL     OW13363   1.727   3.824   9.951  0.2614 -0.0552  0.7584
 2893SOL    HW113364   1.748   3.804  10.042 -1.1648  2.4168  1.7270
 2893SOL    HW213365   1.647   3.877   9.956  0.2624  0.3232 -1.9171
 2894SOL     OW13366   5.991   7.372   6.124 -0.6191 -0.6093 -0.0162
 2894SOL    HW113367   5.954   7.284   6.132 -1.6299 -0.1182  0.9834
 2894SOL    HW213368   5.987   7.391   6.031 -3.0565 -0.5430  0.0399
 2895SOL     OW13369   1.700   1.694   5.854 -0.0829  0.5179  0.0749
 2895SOL    HW113370   1.628   1.678   5.915  1.3316  0.4096  1.8043
 2895SOL    HW213371   1.754   1.614   5.860  0.2541  0.6406 -1.0911
 2896SOL     OW13372   9.618   7.529   7.643  0.0574 -0.0508 -0.8447
 2896SOL    HW113373   9.611   7.567   7.731  1.3461 -0.4057 -0.5773
 2896SOL    HW213374   9.589   7.599   7.585 -1.3531  0.0082 -0.1220
 2897SOL     OW13375   1.048   8.064   0.844  0.6634  0.5392  0.0687
 2897SOL    HW113376   1.078   8.151   0.869  1.9203  0.1157  0.0907
 2897SOL    HW213377   1.081   8.052   0.755  1.7203 -0.4464  0.5704
 2898SOL     OW13378   7.792   5.812   9.956 -0.7281 -0.2471  1.0129
 2898SOL    HW113379   7.824   5.887  10.005  1.0899  0.4889 -1.1913
 2898SOL    HW213380   7.802   5.738  10.017  0.7990  0.7208  1.9941
 2899SOL     OW13381   0.672  11.693   7.604  0.2398 -0.0801 -0.2699
 2899SOL    HW113382   0.746  11.699   7.664 -0.7105  0.3725  0.8942
 2899SOL    HW213383   0.669  11.779   7.562 -1.1401  0.8389  1.5773
 2900SOL     OW13384  11.114  11.188   9.382  0.3545 -0.3046  0.3417
 2900SOL    HW113385  11.095  11.096   9.367 -0.9843 -0.2544  1.5138
 2900SOL    HW213386  11.071  11.234   9.309  2.8538 -0.6800 -1.4915
 2901SOL     OW13387   3.290   2.873  11.904 -0.6791  0.2738 -0.8802
 2901SOL    HW113388   3.362   2.904  11.850  0.1565  1.9877  1.1015
 2901SOL    HW213389   3.321   2.790  11.941  0.2626  0.9404 -0.1390
 2902SOL     OW13390   9.779   2.923   7.195 -1.0259 -0.3811 -0.1644
 2902SOL    HW113391   9.716   2.961   7.133  0.4623  1.4208 -0.6681
 2902SOL    HW213392   9.839   2.872   7.140 -1.6124 -1.5113  0.2254
 2903SOL     OW13393   8.328   1.867  11.824  0.4472  0.5166 -0.2302
 2903SOL    HW113394   8.394   1.914  11.772  0.9282  0.9734  0.7635
 2903SOL    HW213395   8.369   1.782  11.842  0.5573  0.6096 -0.0391
 2904SOL     OW13396  10.332  10.470  11.610 -0.4449 -0.1646  0.2726
 2904SOL    HW113397  10.299  10.532  11.675 -2.1472 -1.0627  0.3180
 2904SOL    HW213398  10.410  10.433  11.651 -0.4669  0.5825  1.0331
 2905SOL     OW13399   7.816   6.989  11.404  0.0514 -0.2245 -0.0793
 2905SOL    HW113400   7.801   7.029  11.318  0.2221 -1.1765 -0.5647
 2905SOL    HW213401   7.768   7.045  11.465 -0.4380  0.2119 -0.8455
 2906SOL     OW13402  10.844   6.251   5.954  0.0099  0.1587  0.1484
 2906SOL    HW113403  10.778   6.235   5.887  0.2889 -0.0496 -0.0810
 2906SOL    HW213404  10.832   6.343   5.977  0.3598  0.4225 -0.6851
 2907SOL     OW13405   9.830   4.242   7.471  0.4094  0.0999  0.1442
 2907SOL    HW113406   9.885   4.317   7.493  0.2443  0.6309 -1.1650
 2907SOL    HW213407   9.846   4.179   7.541  0.3518  1.4510  1.4039
 2908SOL     OW13408   3.734   1.717   7.209  0.0080 -0.7243 -0.2286
 2908SOL    HW113409   3.702   1.656   7.277  2.1748 -0.0192  1.5430
 2908SOL    HW213410   3.829   1.719   7.221  0.3016  0.6976 -2.2716
 2909SOL     OW13411   9.463   1.530   4.509 -0.7484 -0.1982 -0.8042
 2909SOL    HW113412   9.545   1.481   4.497 -1.7892 -1.6426 -2.4278
 2909SOL    HW213413   9.487   1.621   4.492  0.8960 -0.3028  0.6560
 2910SOL     OW13414   8.942   8.294   1.082 -0.3975  0.4134  0.0850
 2910SOL    HW113415   8.949   8.389   1.079 -2.7535  0.6254 -1.1208
 2910SOL    HW213416   8.879   8.273   1.013  0.7569 -2.1224 -0.3056
 2911SOL     OW13417   2.238   5.738   0.503  0.1279 -0.1286  0.7485
 2911SOL    HW113418   2.148   5.741   0.534 -0.5335 -0.4135 -1.0052
 2911SOL    HW213419   2.251   5.822   0.459  1.3759  0.6966  2.5840
 2912SOL     OW13420   6.828   7.134   0.972  0.2416  0.2157 -0.1245
 2912SOL    HW113421   6.911   7.169   1.007  0.3289 -0.6023  0.5180
 2912SOL    HW213422   6.853   7.054   0.926 -0.3022 -0.6149  0.9776
 2913SOL     OW13423   9.568   8.150   5.738 -0.2351 -0.2929 -0.7510
 2913SOL    HW113424   9.626   8.111   5.804 -1.7059 -0.2003  0.6551
 2913SOL    HW213425   9.537   8.076   5.687 -0.5952 -0.6126 -0.0809
 2914SOL     OW13426   6.963   3.810   2.242  0.4283 -0.4378  0.5665
 2914SOL    HW113427   6.971   3.889   2.295  1.6460  0.0428 -0.3102
 2914SOL    HW213428   7.036   3.814   2.180 -0.8779 -1.0423 -1.0930
 2915SOL     OW13429   6.483   8.830   6.636  0.2937 -0.2158 -0.9265
 2915SOL    HW113430   6.432   8.907   6.614  1.0362  0.5757 -0.0077
 2915SOL    HW213431   6.483   8.777   6.556  0.2519  1.0108 -1.7742
 2916SOL     OW13432   7.489   9.124   9.590  0.0906 -0.1438 -0.4343
 2916SOL    HW113433   7.505   9.170   9.508 -0.9514  1.9601  0.4628
 2916SOL    HW213434   7.560   9.154   9.648 -0.9651  0.9204  0.3535
 2917SOL     OW13435   3.676  11.390  10.811 -0.1812 -0.3377 -0.4250
 2917SOL    HW113436   3.669  11.351  10.898  0.1080 -1.8758 -1.0686
 2917SOL    HW213437   3.708  11.479  10.828 -0.0618 -0.6240  1.0263
 2918SOL     OW13438   1.357   4.777   9.077  0.3724 -0.4569  0.6404
 2918SOL    HW113439   1.362   4.872   9.067 -0.6556 -0.4600 -0.0333
 2918SOL    HW213440   1.408   4.742   9.004  0.6297 -0.4244  0.8042
 2919SOL     OW13441   0.766   1.272   5.877 -0.6386 -0.1923  0.0421
 2919SOL    HW113442   0.818   1.207   5.925  0.5015  0.4950 -0.2194
 2919SOL    HW213443   0.746   1.340   5.941  0.3183  0.4017 -0.2632
 2920SOL     OW13444   3.812   4.846   4.223  0.0786 -0.3593 -0.4513
 2920SOL    HW113445   3.835   4.889   4.305  0.4330 -0.9051 -0.2650
 2920SOL    HW213446   3.792   4.756   4.248  2.4839 -1.1860 -1.2617
 2921SOL     OW13447   1.341   6.427   6.758 -0.2131 -0.3780 -0.2153
 2921SOL    HW113448   1.347   6.336   6.727  0.5458 -0.9726  1.5617
 2921SOL    HW213449   1.327   6.478   6.678  1.0075 -1.8804 -1.4667
 2922SOL     OW13450  10.166  11.452  11.417 -0.0097 -0.1611  0.1544
 2922SOL    HW113451  10.212  11.478  11.497 -0.3882  0.4537  0.1839
 2922SOL    HW213452  10.082  11.419  11.448 -0.5366  0.9622 -0.0329
 2923SOL     OW13453   8.310   0.910   8.010  0.0190  0.1899  0.0854
 2923SOL    HW113454   8.356   0.826   8.013  0.0031  0.2163  1.2519
 2923SOL    HW213455   8.218   0.888   8.026 -0.0279  0.3970  0.1057
 2924SOL     OW13456   1.618   7.929   5.602 -0.3706 -0.0822 -0.5263
 2924SOL    HW113457   1.538   7.886   5.634  0.2019 -0.7552  0.0539
 2924SOL    HW213458   1.627   8.006   5.659  0.5801 -1.2135  0.9417
 2925SOL     OW13459   9.268   0.356  11.554 -0.6385 -0.0909 -0.2618
 2925SOL    HW113460   9.208   0.337  11.482 -1.1760  0.2989  0.0760
 2925SOL    HW213461   9.340   0.293  11.543 -1.2212 -0.7163 -0.5308
 2926SOL     OW13462  10.560   9.816   6.256  0.1940  0.2563 -0.3986
 2926SOL    HW113463  10.654   9.827   6.239  0.8619 -2.1345  1.1366
 2926SOL    HW213464  10.522   9.902   6.240  2.1638  0.6926 -3.7748
 2927SOL     OW13465   1.878   4.804   1.087 -0.5523  0.0263  0.5530
 2927SOL    HW113466   1.816   4.869   1.055 -1.1620  0.1067  1.8304
 2927SOL    HW213467   1.852   4.722   1.045 -1.9224 -0.0648  1.5289
 2928SOL     OW13468   5.698   0.897   9.600 -0.0643  0.0744 -0.1784
 2928SOL    HW113469   5.778   0.917   9.553 -0.6515  0.8375 -0.8747
 2928SOL    HW213470   5.726   0.885   9.691  0.8142  0.4990 -0.3848
 2929SOL     OW13471   8.087   5.116   2.127 -0.0132  0.5092 -0.1063
 2929SOL    HW113472   8.114   5.046   2.186  0.8575 -0.2337 -1.3443
 2929SOL    HW213473   8.041   5.178   2.183 -1.7702 -1.5350  0.8875
 2930SOL     OW13474   8.606  11.146   5.673  0.0043  0.0936 -0.1881
 2930SOL    HW113475   8.570  11.175   5.589 -0.6147  0.2108  0.1159
 2930SOL    HW213476   8.653  11.222   5.707 -0.8525  0.4727  0.1829
 2931SOL     OW13477   0.569  10.118   5.122  0.2062  0.1498 -0.4705
 2931SOL    HW113478   0.554  10.188   5.185  1.6845 -1.1160  1.4094
 2931SOL    HW213479   0.544  10.038   5.168  2.0369 -0.8980 -1.1674
 2932SOL     OW13480   2.000   6.897   9.258 -0.3145  0.1446 -0.1249
 2932SOL    HW113481   1.947   6.901   9.337 -0.3118 -1.7110  0.0254
 2932SOL    HW213482   2.084   6.863   9.288  0.1418  0.7102 -0.7341
 2933SOL     OW13483  11.620   3.135   0.276 -0.7813  0.5421  0.1713
 2933SOL    HW113484  11.715   3.145   0.272 -0.4448 -2.0547 -1.2483
 2933SOL    HW213485  11.591   3.143   0.185 -1.5493 -0.9255  0.2406
 2934SOL     OW13486  10.196   8.153   4.417  0.3365  0.1742 -0.5187
 2934SOL    HW113487  10.191   8.224   4.352  1.4808  1.5509  0.8288
 2934SOL    HW213488  10.280   8.167   4.461 -0.6263 -0.4045  1.6003
 2935SOL     OW13489  11.017   1.368   0.963  0.0104 -0.4354  0.0141
 2935SOL    HW113490  10.985   1.325   1.042  0.9594  0.7298  1.0728
 2935SOL    HW213491  10.948   1.431   0.941  0.7076  0.8240  1.2655
 2936SOL     OW13492   1.872   9.077   2.549 -0.3005  0.0576  0.1169
 2936SOL    HW113493   1.891   9.163   2.586 -0.6793  0.5038 -0.7099
 2936SOL    HW213494   1.929   9.017   2.597  1.3892  1.0248 -0.6091
 2937SOL     OW13495   7.920   8.432  10.979  0.8714 -0.2142 -0.1312
 2937SOL    HW113496   7.827   8.447  10.995  1.2640  1.0470  1.1138
 2937SOL    HW213497   7.959   8.426  11.066  1.8389 -1.6578 -0.6206
 2938SOL     OW13498   3.155   3.208  10.909 -0.2737 -0.6509 -0.1146
 2938SOL    HW113499   3.080   3.164  10.949  0.2671 -0.9312  0.6241
 2938SOL    HW213500   3.173   3.282  10.967  1.5329 -1.9821  1.1366
 2939SOL     OW13501   3.576   9.405   5.350 -0.2129  0.4801 -0.1335
 2939SOL    HW113502   3.558   9.327   5.296 -0.9799  1.3288 -1.1406
 2939SOL    HW213503   3.625   9.371   5.425 -0.5307 -0.9766 -0.5516
 2940SOL     OW13504  10.333   4.952   8.916  0.8770 -0.1801 -0.4905
 2940SOL    HW113505  10.403   4.943   8.851  0.3767 -1.1303 -0.9186
 2940SOL    HW213506  10.291   4.867   8.918 -1.2299  0.7679 -1.3463
 2941SOL     OW13507   9.473   7.354   3.579  0.3952 -0.3605  0.1529
 2941SOL    HW113508   9.466   7.450   3.578  1.1667 -0.2934  0.2902
 2941SOL    HW213509   9.567   7.337   3.575  0.4155 -1.0630  2.2246
 2942SOL     OW13510   0.551   0.599   3.758 -0.3777 -0.7603  0.1963
 2942SOL    HW113511   0.511   0.676   3.799 -0.3539 -1.2013  1.0756
 2942SOL    HW213512   0.562   0.623   3.666  0.5977  0.6898  0.6526
 2943SOL     OW13513   8.097   4.226   7.628  0.6609  0.6385  0.1287
 2943SOL    HW113514   8.182   4.263   7.605  0.1437  0.5705 -2.1310
 2943SOL    HW213515   8.051   4.297   7.674  1.4715  1.0945  0.2445
 2944SOL     OW13516   4.595   1.782   1.472  0.4658 -0.2093  0.0016
 2944SOL    HW113517   4.536   1.707   1.474  2.2630 -1.7336 -0.8191
 2944SOL    HW213518   4.674   1.752   1.516  0.5717  1.8861  1.3698
 2945SOL     OW13519   4.890   1.055   7.785  0.1372  0.0374  0.3724
 2945SOL    HW113520   4.866   1.013   7.868 -0.9385 -0.1408 -0.0192
 2945SOL    HW213521   4.869   0.991   7.718 -2.3818  1.4345 -0.3211
 2946SOL     OW13522   9.471   3.132   5.604  0.1708 -0.7778  0.4684
 2946SOL    HW113523   9.545   3.106   5.549 -0.5783 -2.4697  0.2105
 2946SOL    HW213524   9.397   3.081   5.571 -1.2434  1.1503  0.4668
 2947SOL     OW13525  11.540  10.121   2.070  0.2854  0.3438 -0.0697
 2947SOL    HW113526  11.542  10.164   1.985  1.0095 -0.0538 -0.2575
 2947SOL    HW213527  11.454  10.079   2.074  0.7764 -0.8118 -1.1926
 2948SOL     OW13528   7.549   1.753   7.173 -0.0215 -0.2074  0.3549
 2948SOL    HW113529   7.605   1.817   7.218  0.5976  1.9299 -3.0675
 2948SOL    HW213530   7.599   1.671   7.177  1.8691  0.8598  0.1800
 2949SOL     OW13531   0.202   1.431  10.924  0.1202 -0.0428  0.1867
 2949SOL    HW113532   0.233   1.512  10.883 -0.0928  0.3822  0.8588
 2949SOL    HW213533   0.174   1.457  11.012 -1.2070 -0.5771 -0.0393
 2950SOL     OW13534  10.088   2.529   0.378  0.3313 -0.1668  0.2711
 2950SOL    HW113535  10.096   2.503   0.470  1.3921 -1.0346 -0.0411
 2950SOL    HW213536  10.014   2.479   0.345  2.9659 -3.9080 -0.6062
 2951SOL     OW13537   8.190   3.288  10.447 -0.0373  0.0122 -0.9479
 2951SOL    HW113538   8.243   3.309  10.370  2.4978  0.7434  0.8353
 2951SOL    HW213539   8.249   3.237  10.503 -1.0775  1.1268  1.3006
 2952SOL     OW13540   9.713  10.859   2.845  0.2933 -0.0103 -0.5924
 2952SOL    HW113541   9.708  10.857   2.750 -0.3583  1.1215 -0.6083
 2952SOL    HW213542   9.805  10.843   2.865 -0.0015 -2.9576 -1.2655
 2953SOL     OW13543   1.182   4.614   8.733  0.4259 -0.2809  0.2283
 2953SOL    HW113544   1.157   4.554   8.662  0.6550  0.9686 -0.9503
 2953SOL    HW213545   1.241   4.677   8.691  3.1487 -1.2928  2.1823
 2954SOL     OW13546   2.460   3.135   9.355  0.2383  0.3702  0.9937
 2954SOL    HW113547   2.530   3.138   9.289 -1.0595 -1.4348 -0.5694
 2954SOL    HW213548   2.480   3.058   9.408  0.1109  0.5960  1.3782
 2955SOL     OW13549   0.221   8.604   6.284  0.0779 -0.8436 -0.2520
 2955SOL    HW113550   0.234   8.688   6.240 -0.8542 -1.4919 -1.8221
 2955SOL    HW213551   0.266   8.540   6.228 -1.7645 -1.7907 -0.7307
 2956SOL     OW13552   7.423   4.661   2.923 -0.1540  0.1699 -0.6025
 2956SOL    HW113553   7.419   4.580   2.873  0.3074 -0.9777  1.1335
 2956SOL    HW213554   7.516   4.685   2.920  0.1767 -0.7744  0.9496
 2957SOL     OW13555   6.913   9.731   7.986 -0.5119  0.0251 -0.7282
 2957SOL    HW113556   6.846   9.789   7.949  0.2155  0.8869 -0.7442
 2957SOL    HW213557   6.907   9.651   7.935 -0.3966  0.7210 -1.8511
 2958SOL     OW13558  11.828   5.901  11.501 -0.0328  0.3606 -0.1610
 2958SOL    HW113559  11.915   5.897  11.542  0.3941  3.1124 -0.6410
 2958SOL    HW213560  11.842   5.861  11.415  0.3163 -0.7402  0.3825
 2959SOL     OW13561  10.600   3.720   9.845 -0.2099 -0.1641  0.4802
 2959SOL    HW113562  10.633   3.682   9.926  1.3424  2.2787  1.1055
 2959SOL    HW213563  10.663   3.692   9.779  0.7658  1.0045  0.8834
 2960SOL     OW13564   4.906  11.854   7.314  0.1693 -0.2710  0.5262
 2960SOL    HW113565   4.988  11.862   7.362  0.4591 -0.1701  0.0132
 2960SOL    HW213566   4.904  11.931   7.257 -0.3967 -0.1428  0.7095
 2961SOL     OW13567   5.684   7.921  11.968  0.2074 -0.8293 -0.4456
 2961SOL    HW113568   5.735   7.842  11.985  0.4465 -0.5009  0.4053
 2961SOL    HW213569   5.659   7.953  12.054 -3.5529 -2.3009 -0.8176
 2962SOL     OW13570   9.174   0.477   2.157 -0.0126  0.4193  0.0570
 2962SOL    HW113571   9.103   0.482   2.093  1.2147 -1.1810 -1.5174
 2962SOL    HW213572   9.135   0.511   2.238 -1.7478  2.1336 -1.3785
 2963SOL     OW13573   2.007   2.578  10.428 -0.0948  0.0151  0.0742
 2963SOL    HW113574   1.936   2.620  10.478  1.4669  0.8279  1.7151
 2963SOL    HW213575   1.965   2.552  10.346 -2.4517 -0.1178  1.2196
 2964SOL     OW13576   5.474   7.885   1.222  0.8686  0.1977 -0.4701
 2964SOL    HW113577   5.398   7.857   1.171  0.8411 -0.6039 -0.0081
 2964SOL    HW213578   5.439   7.947   1.286  0.5101 -0.5018  0.0293
 2965SOL     OW13579   2.306  10.770   0.174  0.1776 -0.2235 -0.0252
 2965SOL    HW113580   2.302  10.675   0.182  1.4629 -0.3079 -0.1688
 2965SOL    HW213581   2.276  10.803   0.259 -0.4894 -0.7516 -0.0579
 2966SOL     OW13582   0.432   9.489   7.134 -0.2869  0.0405 -0.2501
 2966SOL    HW113583   0.419   9.527   7.047  1.3370  0.4815 -0.3355
 2966SOL    HW213584   0.357   9.432   7.147 -1.7394  1.6899 -0.9940
 2967SOL     OW13585   2.367   7.274  10.505 -0.1280  0.0435 -0.0247
 2967SOL    HW113586   2.368   7.368  10.521 -0.3276 -0.4069  3.1314
 2967SOL    HW213587   2.459   7.250  10.496  0.0146  0.3392  0.6254
 2968SOL     OW13588  11.063   5.709   1.024 -0.2134  0.2669  0.5508
 2968SOL    HW113589  11.091   5.683   0.936  0.2023  2.2094  0.0465
 2968SOL    HW213590  10.968   5.719   1.017 -0.1774  0.4500  0.3005
 2969SOL     OW13591  10.894  11.421  10.172 -0.0025  0.3923  0.2798
 2969SOL    HW113592  10.967  11.389  10.118  0.4223 -1.3351  1.7650
 2969SOL    HW213593  10.932  11.431  10.259 -1.1901  0.9925  0.7458
 2970SOL     OW13594   7.455   2.562   4.415 -0.0763 -0.1767 -0.1660
 2970SOL    HW113595   7.405   2.643   4.402 -0.4724 -0.7194 -2.3342
 2970SOL    HW213596   7.450   2.516   4.331  3.2663 -0.7330 -0.2092
 2971SOL     OW13597  11.504  11.655  11.202  0.2251  0.1812  0.0483
 2971SOL    HW113598  11.566  11.685  11.135  1.6590 -0.4821  1.0408
 2971SOL    HW213599  11.477  11.568  11.172  2.4470 -1.0321  1.2502
 2972SOL     OW13600   6.382   5.770   6.199 -0.6678  0.0497  0.1314
 2972SOL    HW113601   6.347   5.752   6.286 -1.0750 -0.3852 -0.1155
 2972SOL    HW213602   6.406   5.684   6.164 -1.3889  0.1074 -0.5500
 2973SOL     OW13603   4.361   2.062   2.281 -0.2149  0.5880 -0.3464
 2973SOL    HW113604   4.390   2.143   2.238 -1.3198  1.8711  1.1844
 2973SOL    HW213605   4.270   2.078   2.304 -0.6318 -1.3429 -0.4836
 2974SOL     OW13606   9.390   5.578   9.504 -0.0313  0.0175  0.1922
 2974SOL    HW113607   9.477   5.556   9.539 -0.6555 -2.9318  0.1725
 2974SOL    HW213608   9.329   5.530   9.560 -1.5587  0.6834 -0.8316
 2975SOL     OW13609   8.950   5.948   4.956 -0.5270 -0.2102  0.5481
 2975SOL    HW113610   8.971   6.000   4.879 -1.7175  0.1764  0.4587
 2975SOL    HW213611   9.029   5.952   5.011  0.2696 -0.3576 -0.5606
 2976SOL     OW13612  11.285   8.424   1.903 -0.0584 -0.2728  0.0427
 2976SOL    HW113613  11.232   8.440   1.981  0.3638 -0.8614  0.4558
 2976SOL    HW213614  11.247   8.345   1.864  0.5792 -0.7708  0.4090
 2977SOL     OW13615   1.279   7.943   5.991  0.4789 -0.4493 -0.4531
 2977SOL    HW113616   1.250   7.966   6.079 -3.0911  0.4795 -1.7251
 2977SOL    HW213617   1.326   8.020   5.959 -0.6131  0.2893 -0.2987
 2978SOL     OW13618   2.011   7.425   1.890 -0.3891 -0.7114 -0.3030
 2978SOL    HW113619   2.075   7.354   1.900 -0.1364 -0.6345 -1.3014
 2978SOL    HW213620   2.057   7.503   1.922  0.0928 -0.6238 -1.1818
 2979SOL     OW13621  10.126   9.922   1.871  0.3540  0.3387  0.0468
 2979SOL    HW113622  10.186   9.880   1.809 -1.8803 -1.0300 -1.3378
 2979SOL    HW213623  10.106   9.853   1.935 -2.0641 -0.2905 -1.2921
 2980SOL     OW13624   3.529   7.160   6.453  0.6758  0.0426 -0.2613
 2980SOL    HW113625   3.453   7.177   6.398  0.5425 -0.0611 -0.1108
 2980SOL    HW213626   3.586   7.235   6.440  0.9765 -0.3238 -1.1019
 2981SOL     OW13627   7.391   6.281  10.986  0.4136 -0.0847  0.2057
 2981SOL    HW113628   7.359   6.217  11.050  0.9727  0.6307  1.2261
 2981SOL    HW213629   7.484   6.261  10.976  0.0427 -1.0984 -1.4913
 2982SOL     OW13630   5.919   1.544  11.286 -0.5439 -0.2358  0.0490
 2982SOL    HW113631   6.009   1.555  11.255  0.3184  2.3815  2.9888
 2982SOL    HW213632   5.920   1.460  11.332 -0.2968 -1.3067 -1.7971
 2983SOL     OW13633   9.914   7.359   8.150  0.3223 -0.1075 -0.0147
 2983SOL    HW113634   9.900   7.385   8.059  1.6151  0.9334  0.0599
 2983SOL    HW213635  10.009   7.355   8.159  0.2021 -0.3363  1.2542
 2984SOL     OW13636   1.423   2.709   6.638 -0.2098 -0.1831 -0.1659
 2984SOL    HW113637   1.350   2.760   6.603 -1.4849 -0.9611  1.2369
 2984SOL    HW213638   1.385   2.625   6.661  1.1005 -0.5766  0.7140
 2985SOL     OW13639   2.987  10.791   7.497 -0.5085  0.0986  0.3690
 2985SOL    HW113640   2.943  10.712   7.530 -2.6516  1.0284 -0.0876
 2985SOL    HW213641   3.080  10.772   7.505 -0.9521 -2.6727 -0.1640
 2986SOL     OW13642   8.947   5.131   6.281 -0.1212 -0.6400  0.2720
 2986SOL    HW113643   8.996   5.115   6.200 -0.6121  1.7817 -0.5895
 2986SOL    HW213644   8.855   5.121   6.254 -0.4077  2.1559 -0.0878
 2987SOL     OW13645   3.878   5.769   5.278  0.1934 -0.0653  0.0102
 2987SOL    HW113646   3.804   5.795   5.333  0.6180  1.0736  0.0642
 2987SOL    HW213647   3.927   5.708   5.333 -1.8212 -2.6226 -0.8056
 2988SOL     OW13648  11.310   6.754   0.047  0.5915 -0.6077  0.3488
 2988SOL    HW113649  11.247   6.682   0.035 -0.5716  0.4983 -0.5560
 2988SOL    HW213650  11.345   6.769  -0.041  0.8130 -0.0600  0.5312
 2989SOL     OW13651   1.869   3.514   0.836 -0.5831  0.6185  0.2187
 2989SOL    HW113652   1.901   3.436   0.882 -1.5842 -0.2041 -0.4420
 2989SOL    HW213653   1.806   3.480   0.773 -1.0339  1.9737 -0.0822
 2990SOL     OW13654   3.352   0.588  11.931 -0.2357  0.2026  0.7007
 2990SOL    HW113655   3.418   0.633  11.878  0.4961  1.2717  2.4344
 2990SOL    HW213656   3.399   0.561  12.010 -1.4394 -0.7306  1.1259
 2991SOL     OW13657  10.244   0.907   4.346  0.2199  0.6415 -0.2287
 2991SOL    HW113658  10.240   0.837   4.281  1.9013  0.7811 -0.5126
 2991SOL    HW213659  10.248   0.987   4.294 -0.6625  0.9063  0.0889
 2992SOL     OW13660   9.096   4.967   4.718  0.2512  0.2141  0.0874
 2992SOL    HW113661   9.037   5.000   4.787  0.7102  0.9945  0.1225
 2992SOL    HW213662   9.117   5.045   4.666 -0.8750 -0.5184 -1.5642
 2993SOL     OW13663  10.053   9.516   9.790  0.2537 -0.4896 -0.5306
 2993SOL    HW113664  10.107   9.541   9.715  0.8348 -0.7979 -0.2149
 2993SOL    HW213665   9.980   9.579   9.789  0.9059  0.2711 -0.6286
 2994SOL     OW13666   9.969   1.026   3.106 -0.6086  0.0705  0.1496
 2994SOL    HW113667   9.938   1.114   3.130  2.4208  1.1371  0.6666
 2994SOL    HW213668   9.951   1.019   3.013  0.1613  1.7751 -0.1712
 2995SOL     OW13669  10.152   6.330   7.674  0.5257  0.1173 -0.2478
 2995SOL    HW113670  10.098   6.401   7.639 -1.1676 -0.8000  0.4032
 2995SOL    HW213671  10.090   6.274   7.721  1.8429 -1.7070 -0.6066
 2996SOL     OW13672   6.636   6.889   7.501  0.4131  0.5630 -0.7126
 2996SOL    HW113673   6.543   6.911   7.503  0.2951  0.0445 -0.1438
 2996SOL    HW213674   6.679   6.968   7.468 -0.1712  1.0016 -0.4416
 2997SOL     OW13675   6.582   5.983  11.578 -0.0673  0.2717 -0.0178
 2997SOL    HW113676   6.633   5.903  11.568  0.3703  0.6026 -0.5604
 2997SOL    HW213677   6.543   5.977  11.665  0.3217 -0.3231  0.1175
 2998SOL     OW13678  10.776   9.973   0.654 -0.4094 -0.5786  0.0679
 2998SOL    HW113679  10.862   9.989   0.692 -0.9985  0.0022  1.1833
 2998SOL    HW213680  10.741  10.061   0.635 -1.2584 -0.7535  0.7787
 2999SOL     OW13681  11.481   9.404   8.417 -0.0488  0.2543 -0.4546
 2999SOL    HW113682  11.513   9.476   8.363 -1.3981  0.5708 -0.8600
 2999SOL    HW213683  11.490   9.435   8.507 -0.8947  1.0591 -0.6392
 3000SOL     OW13684   8.215  10.265   5.594  0.2955  0.1533 -0.0021
 3000SOL    HW113685   8.236  10.320   5.670  1.6003  0.5252 -0.6022
 3000SOL    HW213686   8.211  10.325   5.521  1.2086 -0.4687 -0.5830
 3001SOL     OW13687   3.047   6.610   9.361 -0.0457  0.7065 -0.0799
 3001SOL    HW113688   3.121   6.618   9.301  0.6668  1.8572  0.8991
 3001SOL    HW213689   2.970   6.621   9.306  0.3624 -2.0614 -1.3911
 3002SOL     OW13690  10.769   7.666   2.786  0.5638  0.0568 -0.0036
 3002SOL    HW113691  10.779   7.682   2.692 -1.2790  1.1450 -0.0655
 3002SOL    HW213692  10.743   7.574   2.792 -1.4719  0.5331 -0.7931
 3003SOL     OW13693   0.594   9.320   8.619 -0.2377  0.0963  1.2656
 3003SOL    HW113694   0.501   9.338   8.626 -0.5745 -0.9312  0.0141
 3003SOL    HW213695   0.599   9.224   8.613  0.7725  0.2006  0.0431
 3004SOL     OW13696   1.366  10.964   3.836  0.3286 -0.0077 -0.5258
 3004SOL    HW113697   1.451  10.940   3.800  0.4389 -0.7261  0.1836
 3004SOL    HW213698   1.338  10.887   3.886 -0.0920  0.7222  0.4046
 3005SOL     OW13699   6.540  10.788   1.911  0.2341  0.3711 -0.4318
 3005SOL    HW113700   6.498  10.777   1.996 -1.0282 -3.2370 -1.3593
 3005SOL    HW213701   6.633  10.779   1.928 -0.0299 -0.6706  0.5254
 3006SOL     OW13702   0.614   3.997   0.511 -0.1384 -0.1115  0.5941
 3006SOL    HW113703   0.601   4.075   0.458 -1.8293 -0.6259  0.1799
 3006SOL    HW213704   0.546   4.003   0.579  0.0352 -0.9763  0.8565
 3007SOL     OW13705   2.265   1.534   6.687 -0.0093 -0.0402 -0.1103
 3007SOL    HW113706   2.229   1.465   6.743 -0.3145 -0.3724 -0.7019
 3007SOL    HW213707   2.226   1.615   6.721  1.4207  0.0314  1.4561
 3008SOL     OW13708  11.111   7.815   4.898  0.1159 -0.4906  0.1978
 3008SOL    HW113709  11.195   7.860   4.901 -0.4917  0.7585 -0.6746
 3008SOL    HW213710  11.110   7.770   4.814 -0.9481  1.3681 -0.8696
 3009SOL     OW13711   7.094   3.210  10.269  0.5546 -0.2609  0.3525
 3009SOL    HW113712   7.176   3.162  10.256  1.2846  1.5852 -3.0737
 3009SOL    HW213713   7.027   3.153  10.232  0.6732 -0.6593  0.7419
 3010SOL     OW13714  10.416  10.095  11.008 -0.1245  0.0485 -0.1727
 3010SOL    HW113715  10.392  10.026  10.946 -0.6039 -0.3968  0.4872
 3010SOL    HW213716  10.345  10.094  11.073 -0.8683  2.1015 -0.8923
 3011SOL     OW13717   5.706   4.744  11.913 -0.1941 -0.5156  0.0338
 3011SOL    HW113718   5.710   4.652  11.888  1.6990 -0.4342 -0.0830
 3011SOL    HW213719   5.766   4.752  11.987 -1.8583  0.2568  1.3852
 3012SOL     OW13720   0.482   7.919   3.282  0.6562  0.1783 -0.3485
 3012SOL    HW113721   0.547   7.984   3.308  1.0476 -0.7000  0.9090
 3012SOL    HW213722   0.411   7.972   3.244  1.7579  1.1941 -1.0803
 3013SOL     OW13723   9.681   5.173   4.103  0.0387 -0.7621 -0.3156
 3013SOL    HW113724   9.746   5.126   4.156  1.2410 -0.7576 -1.7355
 3013SOL    HW213725   9.688   5.264   4.132 -0.8286 -1.0872  0.9865
 3014SOL     OW13726   6.229   1.172   8.066 -0.0708  0.2867 -0.3732
 3014SOL    HW113727   6.168   1.111   8.026 -0.5840  0.1587  0.6004
 3014SOL    HW213728   6.248   1.136   8.152  0.8438  0.6842 -0.3889
 3015SOL     OW13729   2.242  11.110   3.382 -0.5542 -0.2119 -0.3803
 3015SOL    HW113730   2.151  11.089   3.403 -0.3945 -1.9539 -1.2467
 3015SOL    HW213731   2.292  11.035   3.416  0.5103  0.4716 -0.3772
 3016SOL     OW13732   9.431   0.393   8.246 -0.2209 -0.4821 -0.5017
 3016SOL    HW113733   9.479   0.455   8.192  1.7455  0.0639  1.6883
 3016SOL    HW213734   9.370   0.447   8.296 -0.4619 -0.6732 -0.5895
 3017SOL     OW13735   2.354   1.423  10.712 -0.0527  0.3647 -0.1602
 3017SOL    HW113736   2.372   1.337  10.673  0.6435  0.6653 -0.5210
 3017SOL    HW213737   2.293   1.464  10.651 -0.4384  0.1086  0.0459
 3018SOL     OW13738   3.648   0.015   8.531 -0.0387 -0.2548  0.3732
 3018SOL    HW113739   3.625   0.107   8.545  1.1301  0.1904 -0.5378
 3018SOL    HW213740   3.743   0.012   8.544 -0.0162 -1.2650  0.0024
 3019SOL     OW13741   1.563   1.120   7.646 -0.0946 -0.2347  0.3090
 3019SOL    HW113742   1.634   1.157   7.595  0.4648  1.6642  2.3417
 3019SOL    HW213743   1.488   1.176   7.627 -0.1441 -0.1293  0.8050
 3020SOL     OW13744   5.445   4.705   3.087 -0.0469 -0.2870  0.0136
 3020SOL    HW113745   5.456   4.648   3.163 -0.2708 -2.5800 -1.5864
 3020SOL    HW213746   5.490   4.786   3.112  5.2598 -2.9258  0.4855
 3021SOL     OW13747   3.859   6.180   4.755  0.5436  0.1381 -0.2029
 3021SOL    HW113748   3.811   6.213   4.831 -1.2680 -2.2454 -0.1797
 3021SOL    HW213749   3.798   6.191   4.682  0.9401 -0.6224 -0.6597
 3022SOL     OW13750   7.784   7.221   6.267  0.6157 -0.2383 -0.4806
 3022SOL    HW113751   7.732   7.257   6.339 -0.1760  0.4240 -1.3604
 3022SOL    HW213752   7.778   7.287   6.198  1.8202 -0.6045 -0.9722
 3023SOL     OW13753   8.343   0.396  11.573  0.0717 -0.6949  0.2387
 3023SOL    HW113754   8.344   0.415  11.479 -0.2302  0.5776  0.4801
 3023SOL    HW213755   8.384   0.472  11.614 -1.6105 -0.3049  1.2854
 3024SOL     OW13756   9.658   6.944   0.862 -0.2315 -0.5184 -0.2010
 3024SOL    HW113757   9.675   6.901   0.778 -0.3445  4.1290 -2.9121
 3024SOL    HW213758   9.736   6.996   0.879 -2.3336  3.1612 -0.7114
 3025SOL     OW13759   3.097   9.861   2.777 -0.6155 -0.1724  0.2344
 3025SOL    HW113760   3.144   9.851   2.694 -1.0170  0.5712 -0.0908
 3025SOL    HW213761   3.080   9.955   2.783 -0.1455 -0.1499  1.4118
 3026SOL     OW13762   7.745   1.087   3.229  0.0401 -0.0797  1.1640
 3026SOL    HW113763   7.664   1.036   3.231  0.9063 -1.5038  1.2535
 3026SOL    HW213764   7.814   1.022   3.215  1.2590  0.9969  1.9530
 3027SOL     OW13765  10.672   9.615   4.675 -0.3048 -0.1190  0.3997
 3027SOL    HW113766  10.657   9.630   4.769 -0.4221 -0.0496  0.3696
 3027SOL    HW213767  10.702   9.524   4.670  0.4927  0.1254  0.5913
 3028SOL     OW13768   8.430   3.337   7.184 -0.2672  0.2926 -0.0637
 3028SOL    HW113769   8.351   3.390   7.188  0.6984  1.8538 -0.7564
 3028SOL    HW213770   8.486   3.381   7.120  0.5389 -1.6627 -0.7751
 3029SOL     OW13771   3.680   6.656  11.271 -0.3927  0.2582 -0.4811
 3029SOL    HW113772   3.733   6.677  11.348  0.9569  0.1362 -1.3365
 3029SOL    HW213773   3.741   6.612  11.212 -1.2528  0.8326 -1.8357
 3030SOL     OW13774  10.882   1.543   4.358  0.5072  0.3183  0.7220
 3030SOL    HW113775  10.807   1.600   4.375  1.0850  1.5479 -0.6328
 3030SOL    HW213776  10.907   1.562   4.267  1.9683 -0.6403  0.8852
 3031SOL     OW13777   1.679   4.289   9.475 -0.2382  0.3795  0.2592
 3031SOL    HW113778   1.584   4.295   9.469 -0.3511 -0.5123  0.9036
 3031SOL    HW213779   1.697   4.195   9.479  0.6634  0.5406  0.3088
 3032SOL     OW13780   7.906   9.148   2.426  0.6289  0.1218  0.3959
 3032SOL    HW113781   7.835   9.211   2.417  1.6467  1.2070 -0.4104
 3032SOL    HW213782   7.880   9.073   2.372  0.2830  0.6911 -0.2374
 3033SOL     OW13783   0.172  10.652   6.078  0.0048  0.5859 -0.1364
 3033SOL    HW113784   0.144  10.717   6.014 -0.2711 -0.6133 -1.2682
 3033SOL    HW213785   0.177  10.700   6.161 -0.9742  1.8552 -0.7904
 3034SOL     OW13786  11.166   2.538  10.558  0.7061  0.3665  0.2223
 3034SOL    HW113787  11.114   2.469  10.600 -0.4932  2.6527  2.7643
 3034SOL    HW213788  11.250   2.496  10.540 -0.2616 -2.0179  0.7538
 3035SOL     OW13789   4.698   2.547   0.064  0.4015 -0.2783 -0.0489
 3035SOL    HW113790   4.717   2.629   0.111  0.0227 -1.0337  1.4910
 3035SOL    HW213791   4.628   2.570   0.003 -0.6340  0.2783  1.2880
 3036SOL     OW13792   4.749   1.841   0.539  0.1598  0.1569  0.0141
 3036SOL    HW113793   4.769   1.901   0.467 -2.3740 -0.0110 -0.9055
 3036SOL    HW213794   4.766   1.754   0.503 -1.7117  0.0354 -0.6460
 3037SOL     OW13795   8.455   0.526   1.969 -0.7919 -0.1212 -0.0196
 3037SOL    HW113796   8.410   0.538   2.052  0.4074  0.4934  0.5627
 3037SOL    HW213797   8.459   0.614   1.931 -0.0132 -0.1570 -0.0280
 3038SOL     OW13798   1.334   2.151   8.531  0.1074 -0.2659 -0.6186
 3038SOL    HW113799   1.389   2.223   8.501  0.0564  0.2710  0.5297
 3038SOL    HW213800   1.392   2.074   8.530  0.5190  0.0413 -0.6296
 3039SOL     OW13801   1.342   4.254   6.127  0.5662  0.8030 -1.0761
 3039SOL    HW113802   1.324   4.187   6.060  3.1397 -0.2451 -0.8244
 3039SOL    HW213803   1.261   4.258   6.178 -0.4162 -0.5442 -2.4152
 3040SOL     OW13804  11.950  10.663   1.555 -0.2439  0.7978 -0.0610
 3040SOL    HW113805  11.895  10.591   1.585  0.9750 -0.5168 -0.8247
 3040SOL    HW213806  11.976  10.709   1.635 -0.2519 -0.2266  0.5481
 3041SOL     OW13807   3.267   2.634   3.615 -0.6982 -0.3148  0.9846
 3041SOL    HW113808   3.267   2.690   3.692 -1.6192  2.2743 -0.7494
 3041SOL    HW213809   3.180   2.646   3.577  0.1794 -0.3351 -1.1960
 3042SOL     OW13810  10.633   9.690   4.930 -0.2857 -0.2164 -0.0770
 3042SOL    HW113811  10.623   9.698   5.024  0.7435  1.4092 -0.0714
 3042SOL    HW213812  10.692   9.761   4.905  0.9415 -1.6870 -1.7003
 3043SOL     OW13813   4.187   4.269   8.143  0.0321 -0.0323  0.1124
 3043SOL    HW113814   4.169   4.178   8.171 -0.0658 -0.3051 -0.8191
 3043SOL    HW213815   4.218   4.312   8.223 -0.4254 -0.7448  0.6967
 3044SOL     OW13816   8.931   1.325   1.550  0.5039 -0.4394 -0.0004
 3044SOL    HW113817   8.862   1.263   1.531  0.0443  0.0656  0.0050
 3044SOL    HW213818   8.904   1.407   1.508 -0.4869  0.6775  2.6034
 3045SOL     OW13819   5.586   8.638   7.254 -0.1708  0.2991  0.2596
 3045SOL    HW113820   5.506   8.589   7.275  0.2444 -0.7996 -0.6121
 3045SOL    HW213821   5.556   8.713   7.203 -0.6239 -0.3485 -0.4453
 3046SOL     OW13822   9.317   8.332   4.308  0.5415 -0.5293 -0.3138
 3046SOL    HW113823   9.358   8.349   4.223 -1.9518 -1.5142 -1.8477
 3046SOL    HW213824   9.288   8.241   4.303  0.5455 -0.6877  1.7230
 3047SOL     OW13825  11.375   0.211   9.355 -0.0328 -0.8586 -0.1656
 3047SOL    HW113826  11.319   0.281   9.389  0.7924  0.6570 -1.7673
 3047SOL    HW213827  11.351   0.134   9.406 -1.9343  0.2699  0.7426
 3048SOL     OW13828  10.439   6.516  10.495 -0.3541  0.8581  0.1289
 3048SOL    HW113829  10.530   6.497  10.521  0.0212 -1.0698 -2.2343
 3048SOL    HW213830  10.389   6.441  10.528 -0.7799  1.0237 -0.1364
 3049SOL     OW13831   7.552   8.507   0.532 -0.1304 -0.0977  0.0686
 3049SOL    HW113832   7.593   8.501   0.618  1.5354 -1.0279 -0.7197
 3049SOL    HW213833   7.618   8.472   0.472  0.3849  4.0628 -2.1477
 3050SOL     OW13834   1.743   7.280   2.238 -0.2023  0.0344 -0.0030
 3050SOL    HW113835   1.830   7.246   2.260 -0.7906 -0.4384  1.7275
 3050SOL    HW213836   1.684   7.240   2.302 -1.2086  2.8157  1.0049
 3051SOL     OW13837   4.079   1.134   9.520  0.0303  0.0983  0.0552
 3051SOL    HW113838   4.153   1.074   9.521  0.1548  0.1507 -1.9352
 3051SOL    HW213839   4.115   1.218   9.548  0.1769 -0.3841  1.3793
 3052SOL     OW13840   7.490   2.951   4.536  0.5103  0.3971  0.3976
 3052SOL    HW113841   7.498   2.940   4.442  0.9642 -0.1002  0.4853
 3052SOL    HW213842   7.566   2.904   4.572 -0.4199 -0.6268  1.0815
 3053SOL     OW13843   8.832   7.883   0.207  0.4939 -0.3095  0.2725
 3053SOL    HW113844   8.742   7.915   0.203  1.2224  1.7763 -0.4410
 3053SOL    HW213845   8.844   7.856   0.298 -0.6129  0.0930  0.5465
 3054SOL     OW13846   1.765   1.430   5.913  0.0416 -0.6981  0.2653
 3054SOL    HW113847   1.704   1.378   5.861  0.3596  0.2207 -1.0878
 3054SOL    HW213848   1.750   1.402   6.003  0.3352 -3.2405 -0.3920
 3055SOL     OW13849   7.009   7.404   9.778 -0.3544 -0.0411  0.0532
 3055SOL    HW113850   7.073   7.340   9.746 -0.5788 -0.4430  0.4048
 3055SOL    HW213851   7.031   7.485   9.732 -0.0006 -0.3438 -0.3128
 3056SOL     OW13852   5.614   4.778   4.464  0.7662 -0.3034  0.3155
 3056SOL    HW113853   5.662   4.840   4.519  1.4852 -2.2245  1.9578
 3056SOL    HW213854   5.524   4.810   4.464  1.2972  1.2837  0.2523
 3057SOL     OW13855   8.531   2.288   0.076 -0.4497 -0.0716  0.2243
 3057SOL    HW113856   8.481   2.207   0.085  2.3292 -1.9512 -0.3025
 3057SOL    HW213857   8.539   2.302  -0.018  1.1033 -0.5544  0.2623
 3058SOL     OW13858   4.344   5.277   0.574 -0.4237 -0.0830  0.2387
 3058SOL    HW113859   4.347   5.340   0.502 -1.4192  1.1012  1.1751
 3058SOL    HW213860   4.306   5.198   0.535  2.3778 -0.7810 -1.3574
 3059SOL     OW13861   9.316   0.908   0.430 -0.1400  0.1845  0.1036
 3059SOL    HW113862   9.400   0.931   0.470  0.0207  2.9926 -1.5549
 3059SOL    HW213863   9.340   0.857   0.353  0.3531  2.8046 -1.6094
 3060SOL     OW13864   9.117   9.450   5.401  0.3018  0.2674  0.1805
 3060SOL    HW113865   9.109   9.406   5.486 -0.5762  0.1654  0.0622
 3060SOL    HW213866   9.203   9.490   5.403  0.5521 -0.2670  0.8666
 3061SOL     OW13867   0.046   2.048   3.592  0.0353 -0.4089 -0.4018
 3061SOL    HW113868   0.106   2.026   3.663  0.4374 -0.3814 -0.7268
 3061SOL    HW213869   0.035   2.142   3.598  0.9766 -0.2358 -1.0637
 3062SOL     OW13870   4.958   2.035   2.036  0.2442 -0.4993  0.5083
 3062SOL    HW113871   4.872   2.075   2.052  0.7709  0.1451  1.8728
 3062SOL    HW213872   5.020   2.092   2.082  1.3973 -1.0324 -0.3458
 3063SOL     OW13873   3.790   0.986   4.209  0.2498  0.2956 -0.3907
 3063SOL    HW113874   3.849   0.965   4.281 -0.3943  0.8128  0.3093
 3063SOL    HW213875   3.707   1.008   4.251  0.4295  2.6829 -1.1356
 3064SOL     OW13876   8.715  11.089   7.467  0.2330 -0.0741 -0.2385
 3064SOL    HW113877   8.678  11.178   7.467  0.6799  0.1154 -0.4501
 3064SOL    HW213878   8.657  11.040   7.409  0.2428  0.1908 -0.4781
 3065SOL     OW13879   9.173   8.186   4.619  0.2203  0.1035 -0.8076
 3065SOL    HW113880   9.135   8.157   4.536  0.3377 -1.9686 -0.1970
 3065SOL    HW213881   9.117   8.145   4.686  1.7360 -0.5326  0.1051
 3066SOL     OW13882   2.477   0.488   5.443 -0.2133 -0.1054 -0.3192
 3066SOL    HW113883   2.441   0.575   5.458  0.0663 -0.0157 -0.1588
 3066SOL    HW213884   2.450   0.437   5.520  1.0898  0.3127  0.4528
 3067SOL     OW13885   4.279   9.423   9.057 -0.5207 -0.1219  0.1715
 3067SOL    HW113886   4.297   9.513   9.084  0.1638 -0.0996 -0.3365
 3067SOL    HW213887   4.361   9.393   9.018 -0.9281 -0.7666 -0.2015
 3068SOL     OW13888   3.906   1.821   3.675 -0.5146  0.4221  0.1580
 3068SOL    HW113889   4.000   1.811   3.665 -0.6379  0.3832 -1.1005
 3068SOL    HW213890   3.890   1.806   3.769  0.6159 -0.3598  0.2457
 3069SOL     OW13891   1.183   2.689  10.130  0.4975 -0.0109  0.4257
 3069SOL    HW113892   1.146   2.761  10.181 -0.8786 -0.1447 -0.3376
 3069SOL    HW213893   1.123   2.679  10.056  1.9806 -0.3605 -0.7808
 3070SOL     OW13894   8.739   0.372   7.000 -0.1795 -0.2022  0.5650
 3070SOL    HW113895   8.834   0.374   6.987 -0.1153  1.4413  1.1839
 3070SOL    HW213896   8.728   0.350   7.092 -0.4110 -0.5052  0.4666
 3071SOL     OW13897   7.551   2.263   0.460 -0.2423 -0.4035  0.3283
 3071SOL    HW113898   7.586   2.320   0.528 -2.7606  1.3999  0.2764
 3071SOL    HW213899   7.584   2.300   0.378  0.6380 -0.9728  0.4067
 3072SOL     OW13900  11.338  11.700   5.209 -0.0293  0.3875 -0.3211
 3072SOL    HW113901  11.410  11.696   5.272  1.4722  0.1016 -1.9876
 3072SOL    HW213902  11.276  11.634   5.240  1.3328 -0.7512  0.1039
 3073SOL     OW13903   8.449   3.737   6.280 -0.5982 -0.4338  0.8188
 3073SOL    HW113904   8.510   3.806   6.308 -1.0748  0.6198 -0.6439
 3073SOL    HW213905   8.493   3.655   6.304  2.5733  0.1323 -2.2746
 3074SOL     OW13906   3.040  10.123   0.899 -0.2943  0.7143 -0.2676
 3074SOL    HW113907   3.060  10.140   0.991  1.5483 -1.0953 -0.2533
 3074SOL    HW213908   3.069  10.201   0.853 -0.7250  1.4134  0.6172
 3075SOL     OW13909   4.272   4.803  11.520 -0.2974 -0.1688 -0.5895
 3075SOL    HW113910   4.333   4.787  11.448  1.0513  0.5104  0.3455
 3075SOL    HW213911   4.202   4.855  11.481 -0.0688 -0.5995 -1.6047
 3076SOL     OW13912   5.056   4.406   4.271 -0.3235  0.1334  0.2175
 3076SOL    HW113913   5.066   4.401   4.366  2.0705 -2.7489 -0.0428
 3076SOL    HW213914   5.141   4.379   4.236 -0.3750  3.1352 -2.8276
 3077SOL     OW13915   0.240   1.785   6.214  0.3184 -0.0567  0.0322
 3077SOL    HW113916   0.259   1.864   6.264 -2.1713 -0.1817  1.3421
 3077SOL    HW213917   0.259   1.808   6.123  1.9312  1.2289  0.6569
 3078SOL     OW13918   9.335   9.827   8.423 -0.0706 -0.4828 -0.2171
 3078SOL    HW113919   9.361   9.829   8.515 -0.7089  1.5704 -0.0255
 3078SOL    HW213920   9.377   9.904   8.385 -0.6283 -0.7479 -1.4091
 3079SOL     OW13921   9.212   4.735   5.313  0.0886  0.1660 -0.1728
 3079SOL    HW113922   9.285   4.674   5.316  0.9654  1.1563 -0.7005
 3079SOL    HW213923   9.233   4.794   5.240 -0.5402  1.3076  0.5399
 3080SOL     OW13924   5.657   7.961   3.345 -0.1561 -1.2985  0.5137
 3080SOL    HW113925   5.591   7.991   3.283  0.0466 -0.5526  0.6475
 3080SOL    HW213926   5.669   7.869   3.325  0.7472 -0.8258 -1.3337
 3081SOL     OW13927   4.875   8.352   2.636 -0.3355 -0.0421 -0.3041
 3081SOL    HW113928   4.867   8.285   2.704  1.7325  0.0589  0.0797
 3081SOL    HW213929   4.962   8.388   2.647 -0.0852  0.2780 -2.7594
 3082SOL     OW13930   8.576   0.191   2.422 -0.1334 -0.2910 -0.4421
 3082SOL    HW113931   8.520   0.142   2.483  0.5925 -1.1103 -0.4209
 3082SOL    HW213932   8.615   0.123   2.366  0.0736  0.3603 -1.0992
 3083SOL     OW13933   9.680   0.738   6.154 -0.2121  0.0688 -0.0036
 3083SOL    HW113934   9.743   0.714   6.221 -0.0102 -1.2736 -0.6387
 3083SOL    HW213935   9.690   0.833   6.144  1.9133 -0.1341 -0.2772
 3084SOL     OW13936   7.005   7.744   2.169  0.3829 -0.3634 -0.2066
 3084SOL    HW113937   6.918   7.706   2.165 -0.2968  0.9247  1.1590
 3084SOL    HW213938   7.061   7.673   2.199 -0.2440 -1.1117 -0.7555
 3085SOL     OW13939   1.286   1.819   6.758  0.4141  0.3326  0.5019
 3085SOL    HW113940   1.213   1.759   6.773  0.1887  0.2820 -0.6796
 3085SOL    HW213941   1.260   1.900   6.802 -0.4868  0.3901 -0.1031
 3086SOL     OW13942   4.840   2.129  11.946 -0.1040 -0.0268  0.0516
 3086SOL    HW113943   4.888   2.099  11.869  0.7651  0.6917  0.2998
 3086SOL    HW213944   4.858   2.063  12.013  1.0339  0.5303  0.3156
 3087SOL     OW13945   8.553   0.610  11.359  0.0951 -0.2327 -0.0376
 3087SOL    HW113946   8.582   0.669  11.428 -0.6002 -1.9207  1.7829
 3087SOL    HW213947   8.609   0.533  11.368 -2.2401 -1.9259  1.0152
 3088SOL     OW13948   1.510   7.200   1.301  0.1047 -0.2113 -0.2508
 3088SOL    HW113949   1.583   7.249   1.338  0.3568 -0.7084 -0.0748
 3088SOL    HW213950   1.545   7.112   1.288 -0.5368 -0.5200  0.0600
 3089SOL     OW13951   9.658   6.267   2.371  0.1824 -0.0883 -0.0828
 3089SOL    HW113952   9.743   6.276   2.329  0.8896 -0.9473  1.1177
 3089SOL    HW213953   9.620   6.188   2.332 -0.5179  0.7998 -1.3050
 3090SOL     OW13954   6.679   0.496   0.540  0.8910  0.0272 -0.3370
 3090SOL    HW113955   6.638   0.420   0.580 -0.4227  2.2644  3.0629
 3090SOL    HW213956   6.643   0.499   0.452  0.2944 -2.7078 -0.2782
 3091SOL     OW13957   6.154   2.214   0.478  0.0679 -0.2979 -0.5618
 3091SOL    HW113958   6.091   2.206   0.549 -0.5422 -2.2410 -1.2517
 3091SOL    HW213959   6.104   2.252   0.405 -0.1289 -1.1431 -0.8767
 3092SOL     OW13960   2.405   1.397   5.913 -0.0247 -0.0348 -0.7254
 3092SOL    HW113961   2.360   1.379   5.995 -0.8150  0.5515 -1.0176
 3092SOL    HW213962   2.336   1.403   5.848  0.5279  0.2268 -1.3025
 3093SOL     OW13963  11.749   7.111   1.297  0.2337  0.0190  0.5575
 3093SOL    HW113964  11.719   7.198   1.325  1.1840  0.5187  0.0671
 3093SOL    HW213965  11.782   7.070   1.377 -1.2984 -0.3740  1.0248
 3094SOL     OW13966   2.345   1.999   7.998  0.0407  0.0629  0.0886
 3094SOL    HW113967   2.318   2.062   8.065  2.6493  1.3953  0.0318
 3094SOL    HW213968   2.414   1.948   8.039  1.4574  0.6713 -1.3836
 3095SOL     OW13969   6.586   0.706   7.693  0.1463 -0.0964 -0.4218
 3095SOL    HW113970   6.528   0.671   7.626 -0.9380 -0.3365  0.6018
 3095SOL    HW213971   6.537   0.780   7.730  0.6132 -0.1224  0.2579
 3096SOL     OW13972   7.086   7.829  10.502 -0.2390 -0.3961  0.4974
 3096SOL    HW113973   7.180   7.843  10.487 -0.4621  0.3360 -0.2733
 3096SOL    HW213974   7.064   7.890  10.573 -0.2547 -0.1600  0.2887
 3097SOL     OW13975   2.105  11.301   4.526  0.0019  0.0809  0.7554
 3097SOL    HW113976   2.162  11.244   4.577 -0.3383 -2.9219 -1.9199
 3097SOL    HW213977   2.145  11.302   4.439 -1.3178  2.1049  0.1161
 3098SOL     OW13978   5.229  10.415   7.775  0.5725 -0.2033  0.4516
 3098SOL    HW113979   5.171  10.344   7.747 -0.2645  1.0259 -1.1251
 3098SOL    HW213980   5.172  10.474   7.824  0.5069  0.8653 -0.8511
 3099SOL     OW13981   9.040   4.161   7.648  0.4294  0.0733 -0.5642
 3099SOL    HW113982   8.980   4.234   7.638 -0.6246 -0.5965  0.5596
 3099SOL    HW213983   9.117   4.199   7.692  0.5150  0.7756 -1.3056
 3100SOL     OW13984   4.421   3.138   2.094  0.4761 -0.5653 -0.2742
 3100SOL    HW113985   4.463   3.126   2.008  0.4576 -1.7715 -0.1412
 3100SOL    HW213986   4.445   3.226   2.121  3.1575 -1.2619 -0.1013
 3101SOL     OW13987   7.553   1.625   5.604  0.0586  0.2166 -0.1143
 3101SOL    HW113988   7.566   1.591   5.515  0.0991 -0.2117  0.0514
 3101SOL    HW213989   7.641   1.629   5.641 -0.2003 -3.1459  1.1781
 3102SOL     OW13990   1.960   4.762   7.318 -0.4894 -0.4507  0.0429
 3102SOL    HW113991   1.917   4.692   7.366  0.3306 -2.2121 -1.6539
 3102SOL    HW213992   1.969   4.728   7.229  2.8920  0.4652 -0.0843
 3103SOL     OW13993   0.448   9.475   4.888  0.4005  0.1507  0.1096
 3103SOL    HW113994   0.388   9.413   4.847 -2.0314  2.4946 -0.1105
 3103SOL    HW213995   0.433   9.465   4.982  0.5051 -0.0583  0.1038
 3104SOL     OW13996   8.145   7.852   9.613 -0.3093 -0.1255 -0.3036
 3104SOL    HW113997   8.119   7.777   9.667 -1.8112  0.4698 -0.1374
 3104SOL    HW213998   8.147   7.817   9.524  0.8620 -0.7931 -0.0382
 3105SOL     OW13999   7.284   7.724   8.255  0.0640 -0.2628  0.0950
 3105SOL    HW114000   7.251   7.664   8.188  0.4086  0.3864 -0.6824
 3105SOL    HW214001   7.303   7.669   8.330 -0.7610 -0.9521 -0.1837
 3106SOL     OW14002  10.387   5.761   9.570  0.0352  0.5594 -0.3376
 3106SOL    HW114003  10.331   5.717   9.634  3.4522 -2.1142  1.1576
 3106SOL    HW214004  10.339   5.754   9.487 -2.7244  0.4063  1.1645
 3107SOL     OW14005   8.365   6.125   8.657  0.3190 -0.2908 -0.5661
 3107SOL    HW114006   8.306   6.049   8.654  0.9205 -0.7415 -3.0548
 3107SOL    HW214007   8.438   6.097   8.712 -0.6394 -0.5517  0.6348
 3108SOL     OW14008   4.631   6.753   0.959 -0.1321 -0.0617 -0.1124
 3108SOL    HW114009   4.604   6.739   0.868  0.1181 -0.7578 -0.0916
 3108SOL    HW214010   4.549   6.756   1.008 -0.3219  1.2879 -0.4678
 3109SOL     OW14011   8.587   8.241   4.497 -0.2023 -0.0137  0.0427
 3109SOL    HW114012   8.579   8.280   4.410  0.2983  0.1451  0.0658
 3109SOL    HW214013   8.677   8.258   4.523 -0.4914  0.3925  0.8140
 3110SOL     OW14014   6.174  11.226   1.174 -0.3282 -0.4186  0.3954
 3110SOL    HW114015   6.267  11.242   1.162 -0.4649  2.4258  2.1882
 3110SOL    HW214016   6.169  11.137   1.209  1.5662 -1.0285 -0.7586
 3111SOL     OW14017  10.076  10.055   4.705 -0.2498 -0.2524  0.7208
 3111SOL    HW114018  10.087   9.962   4.723  1.3648 -0.0790  0.7582
 3111SOL    HW214019  10.012  10.059   4.634 -0.5871 -1.3594  0.9551
 3112SOL     OW14020   6.650   1.065   1.132  0.2358 -0.5855  0.7352
 3112SOL    HW114021   6.670   1.157   1.117 -0.0573 -0.2796  2.0781
 3112SOL    HW214022   6.681   1.020   1.054  0.1910  0.6767 -0.0298
 3113SOL     OW14023  11.404   1.713   3.895  0.4019  0.2837  0.1806
 3113SOL    HW114024  11.327   1.702   3.950  0.1284 -1.8680 -0.5514
 3113SOL    HW214025  11.397   1.644   3.829  1.8057  1.4572 -1.2882
 3114SOL     OW14026   3.961   5.429   2.171  0.1031 -0.2150 -0.1404
 3114SOL    HW114027   4.013   5.508   2.159  1.3394 -0.9117  0.4903
 3114SOL    HW214028   4.021   5.366   2.211 -1.3775 -0.8388  1.2320
 3115SOL     OW14029   7.308   9.262  11.009 -0.1753  0.0093 -0.3540
 3115SOL    HW114030   7.303   9.299  10.921 -1.9690 -0.6665 -0.5782
 3115SOL    HW214031   7.351   9.329  11.062  2.5388 -0.2311 -2.0429
 3116SOL     OW14032  11.203   3.132   3.362  0.2324  0.0760  0.1173
 3116SOL    HW114033  11.256   3.192   3.414  1.2277 -1.0192  0.4123
 3116SOL    HW214034  11.252   3.123   3.280 -1.5802  2.2100 -1.3222
 3117SOL     OW14035   3.549   4.235   5.717 -0.1294 -0.3184  0.3672
 3117SOL    HW114036   3.523   4.281   5.637  0.0918  0.4794  0.7496
 3117SOL    HW214037   3.502   4.280   5.787  0.5780 -0.2653  0.8180
 3118SOL     OW14038   4.499  10.418   5.845 -0.2791  0.0465 -0.1347
 3118SOL    HW114039   4.572  10.358   5.825 -1.2544 -1.5226  0.7763
 3118SOL    HW214040   4.497  10.421   5.940 -1.1228  0.4230 -0.1580
 3119SOL     OW14041  11.647   0.484   4.443 -0.1415  0.3374  0.7778
 3119SOL    HW114042  11.674   0.479   4.535 -0.7299  0.0851  0.9384
 3119SOL    HW214043  11.595   0.404   4.429 -0.9254  0.8861  0.5117
 3120SOL     OW14044  11.779   1.908   8.306  0.0894  0.0349  0.1515
 3120SOL    HW114045  11.848   1.914   8.373 -0.4166  1.3222  0.5899
 3120SOL    HW214046  11.765   1.999   8.278 -1.1422 -0.2581 -0.2301
 3121SOL     OW14047   3.916   3.122   9.597 -0.2329 -0.1020 -0.7957
 3121SOL    HW114048   3.834   3.171   9.597  1.4981  3.0529  0.9049
 3121SOL    HW214049   3.899   3.048   9.655 -2.3233 -0.5362 -1.8407
 3122SOL     OW14050   2.405   7.349   7.610 -0.5403  0.3197  0.5058
 3122SOL    HW114051   2.418   7.409   7.684 -1.0261  0.9770  0.0793
 3122SOL    HW214052   2.312   7.326   7.614 -0.7312  0.8994 -0.2822
 3123SOL     OW14053   0.034   2.763   4.918 -0.1494  0.4607 -0.1469
 3123SOL    HW114054  -0.001   2.840   4.874 -1.6734 -0.2475 -0.2377
 3123SOL    HW214055  -0.022   2.752   4.995 -0.4870 -1.0118 -0.5763
 3124SOL     OW14056   0.388   3.472   9.807 -0.6223 -0.8446  0.4789
 3124SOL    HW114057   0.443   3.546   9.832 -2.0621  0.1045  1.0009
 3124SOL    HW214058   0.449   3.404   9.782  0.8111 -0.1601  1.9149
 3125SOL     OW14059  10.885   4.535  10.891 -0.0557  0.2193 -0.2503
 3125SOL    HW114060  10.856   4.606  10.834  1.3284  0.4558 -0.7155
 3125SOL    HW214061  10.945   4.484  10.837 -0.8555 -1.1902  0.1502
 3126SOL     OW14062   1.325   1.438   1.014  0.5199  0.2253 -0.3803
 3126SOL    HW114063   1.282   1.387   0.946 -0.1601  3.0146 -2.1768
 3126SOL    HW214064   1.376   1.505   0.967  2.0382  0.7467  1.8170
 3127SOL     OW14065   9.132   0.231   5.389  0.2956 -0.3116  0.1214
 3127SOL    HW114066   9.202   0.176   5.424 -0.2762 -0.2129  1.5027
 3127SOL    HW214067   9.061   0.222   5.453 -0.6164  0.2874 -0.7898
 3128SOL     OW14068   4.880   3.434   8.158 -0.1364 -0.5734 -0.0266
 3128SOL    HW114069   4.967   3.443   8.197 -0.2428 -3.4274  1.1151
 3128SOL    HW214070   4.821   3.475   8.221  0.1653 -0.6753  0.3233
 3129SOL     OW14071   5.010   0.825   0.572 -0.1342  0.1015 -0.0642
 3129SOL    HW114072   5.055   0.896   0.526 -0.8573  1.7496  1.6505
 3129SOL    HW214073   5.077   0.786   0.628  0.5838 -1.4858 -1.9064
 3130SOL     OW14074   0.120   4.814   9.101 -0.8345 -0.1864  0.3935
 3130SOL    HW114075   0.152   4.904   9.104 -2.6100  0.5041  3.1142
 3130SOL    HW214076   0.029   4.821   9.070 -1.0752 -0.9952  0.8624
 3131SOL     OW14077   6.098  11.109   0.573 -0.1502  0.4735 -0.7251
 3131SOL    HW114078   6.190  11.130   0.591 -0.3473  1.4276 -0.8039
 3131SOL    HW214079   6.081  11.031   0.627  0.5386  0.6307 -0.2610
 3132SOL     OW14080   4.940   0.696   9.613 -0.3468  0.4840  0.0692
 3132SOL    HW114081   4.909   0.771   9.562  0.2480  0.7845  0.1366
 3132SOL    HW214082   4.921   0.620   9.558 -1.0072  0.6759  0.0245
 3133SOL     OW14083   4.550   4.402   7.499 -0.6280 -0.0686  0.1096
 3133SOL    HW114084   4.565   4.315   7.462 -0.6720  0.1143 -0.3412
 3133SOL    HW214085   4.476   4.437   7.450 -2.0898 -0.6612  1.8231
 3134SOL     OW14086   4.434   1.792   3.897  0.4080 -0.0814  0.4342
 3134SOL    HW114087   4.464   1.792   3.988 -1.8591 -2.6039  1.3137
 3134SOL    HW214088   4.442   1.700   3.869  0.3381  0.5017 -1.6726
 3135SOL     OW14089   5.672   1.188   6.313 -0.3584 -0.0865 -0.0694
 3135SOL    HW114090   5.657   1.279   6.289  0.4608  0.1348  0.2342
 3135SOL    HW214091   5.725   1.193   6.393 -0.6732 -0.8259  0.1933
 3136SOL     OW14092   0.529   7.285  10.211 -0.0941 -0.4122 -0.3073
 3136SOL    HW114093   0.484   7.228  10.148  1.6358 -1.2460 -0.8398
 3136SOL    HW214094   0.592   7.334  10.159 -0.8535  1.3187  0.3140
 3137SOL     OW14095   1.052   9.691   8.624 -0.1001 -0.2097 -0.5370
 3137SOL    HW114096   0.959   9.696   8.602 -0.6173  0.1816  1.5104
 3137SOL    HW214097   1.096   9.739   8.554 -1.3775 -0.7916 -1.7817
 3138SOL     OW14098  11.059   5.964   6.547 -0.9289 -0.1084 -0.4201
 3138SOL    HW114099  10.986   5.904   6.532 -0.9376 -0.8282  1.9928
 3138SOL    HW214100  11.019   6.050   6.555 -1.1370 -0.0358 -2.0288
 3139SOL     OW14101   9.595   2.371   9.986  0.2035  0.2443  0.2380
 3139SOL    HW114102   9.547   2.392   9.905 -0.6859 -0.0062  0.6930
 3139SOL    HW214103   9.538   2.311  10.033  2.2967 -2.6175 -0.6355
 3140SOL     OW14104  11.131   3.335   8.833  0.0695 -0.4305  0.7894
 3140SOL    HW114105  11.157   3.297   8.917  0.0019  2.0239  2.0397
 3140SOL    HW214106  11.208   3.384   8.804  0.1872 -1.4746 -0.7829
 3141SOL     OW14107   0.582   9.047   7.213 -0.2996 -0.4764 -0.1871
 3141SOL    HW114108   0.582   9.143   7.211 -0.8649 -0.4810 -0.9217
 3141SOL    HW214109   0.611   9.025   7.301 -2.8434  0.4096  0.9883
 3142SOL     OW14110   1.296   0.273   6.880  0.1711  0.4051 -0.2547
 3142SOL    HW114111   1.264   0.355   6.918  0.5426 -0.1005  1.2105
 3142SOL    HW214112   1.224   0.211   6.891 -0.4659  0.7318 -2.2058
 3143SOL     OW14113  11.702   4.526   0.999 -0.0147 -0.0647  0.1348
 3143SOL    HW114114  11.693   4.618   1.024  2.0789  0.1813  0.1672
 3143SOL    HW214115  11.684   4.525   0.905 -2.6273 -0.1144  0.5553
 3144SOL     OW14116   2.002   2.389   0.875 -0.2099 -0.0369  0.4946
 3144SOL    HW114117   1.946   2.462   0.848  0.2398  0.4483  0.8361
 3144SOL    HW214118   2.055   2.369   0.799 -0.5049 -0.1727  0.3230
 3145SOL     OW14119  10.993   1.075   6.077  0.4090 -0.0466 -0.1537
 3145SOL    HW114120  10.926   1.050   6.014 -0.0945 -0.4088  0.5025
 3145SOL    HW214121  10.959   1.155   6.117 -0.7841 -1.4224  1.7782
 3146SOL     OW14122   0.800   0.800   3.415  0.2867 -0.1965  0.0187
 3146SOL    HW114123   0.728   0.737   3.420 -0.4261  0.6474  0.6094
 3146SOL    HW214124   0.819   0.822   3.506  0.1753  0.8428 -0.2009
 3147SOL     OW14125   1.929   5.036   7.059  0.3036  0.1692  0.3630
 3147SOL    HW114126   1.995   5.047   6.991  0.0660 -0.9941 -0.0845
 3147SOL    HW214127   1.978   5.019   7.139  0.5715  0.7105  0.3110
 3148SOL     OW14128   8.433   2.034   0.032 -0.0505 -0.4195 -0.2237
 3148SOL    HW114129   8.365   2.019  -0.033 -0.4767  0.6062 -0.0393
 3148SOL    HW214130   8.448   1.949   0.072  0.3397 -1.1051 -1.7667
 3149SOL     OW14131   6.711  11.113   8.417  0.5965  0.4357 -0.0187
 3149SOL    HW114132   6.689  11.053   8.488  1.4168  0.5025  0.3036
 3149SOL    HW214133   6.662  11.193   8.437  1.4862  0.7608  0.9596
 3150SOL     OW14134   8.420   0.454   0.256 -0.6690 -0.2935  0.0672
 3150SOL    HW114135   8.515   0.460   0.244 -0.5681 -0.5900  0.7010
 3150SOL    HW214136   8.408   0.396   0.331 -1.2963  1.6134  1.5206
 3151SOL     OW14137   6.577   9.682   0.893  0.1425 -0.2359  0.3557
 3151SOL    HW114138   6.620   9.767   0.883  1.0909 -0.5825  1.2415
 3151SOL    HW214139   6.486   9.698   0.869  0.4189  0.9045 -0.0039
 3152SOL     OW14140   9.595   0.775   0.210 -0.4342  0.2630  0.0077
 3152SOL    HW114141   9.570   0.746   0.297 -0.3549  0.4822  0.1051
 3152SOL    HW214142   9.690   0.783   0.214 -0.4363  0.3297 -0.0806
 3153SOL     OW14143  11.223   3.707   7.022 -0.2035 -0.1050  0.0837
 3153SOL    HW114144  11.200   3.638   7.083 -1.2612 -1.5094 -1.7980
 3153SOL    HW214145  11.223   3.787   7.075 -2.0051 -1.1035  1.7059
 3154SOL     OW14146   2.467   0.129   1.756  0.2438  0.0827  0.1487
 3154SOL    HW114147   2.438   0.158   1.843 -1.0929 -1.7685  0.3789
 3154SOL    HW214148   2.386   0.119   1.706  0.7948 -1.2352 -0.5238
 3155SOL     OW14149   7.025   5.107   0.883 -0.3085  0.0062 -0.4531
 3155SOL    HW114150   6.965   5.132   0.813 -0.5036  0.4097 -0.1463
 3155SOL    HW214151   6.969   5.073   0.952 -0.1240 -0.2953 -0.4487
 3156SOL     OW14152   5.262   7.314   3.849 -0.3063  0.9167  0.4701
 3156SOL    HW114153   5.174   7.283   3.871  0.0936 -0.0544  0.7333
 3156SOL    HW214154   5.249   7.406   3.824 -1.5229  0.5462 -0.3703
 3157SOL     OW14155   1.116  11.157   4.282  0.3494 -0.6665  0.1908
 3157SOL    HW114156   1.101  11.230   4.222  0.0723 -1.1829 -0.3791
 3157SOL    HW214157   1.054  11.090   4.253  1.4145 -1.5685 -0.0392
 3158SOL     OW14158   7.917   6.462   1.651  0.0911  0.2660 -0.0964
 3158SOL    HW114159   7.904   6.460   1.746 -0.7360  2.4420 -0.1141
 3158SOL    HW214160   7.832   6.434   1.616  0.1396  0.2437 -0.1940
 3159SOL     OW14161   5.595   4.003   0.676 -0.5755 -0.4360 -0.1468
 3159SOL    HW114162   5.629   4.077   0.626 -1.1526  0.9471  1.4024
 3159SOL    HW214163   5.529   3.963   0.619 -0.2138  0.2001 -1.0296
 3160SOL     OW14164   0.344  10.092  10.713  0.1473  0.8794  0.2137
 3160SOL    HW114165   0.436  10.119  10.715  0.6968 -0.8086 -0.7043
 3160SOL    HW214166   0.340  10.026  10.644 -1.9603  1.5682 -0.3962
 3161SOL     OW14167  10.362  11.399   1.599 -0.0318 -0.0720 -0.3236
 3161SOL    HW114168  10.455  11.386   1.579 -0.1331  0.3267 -1.0994
 3161SOL    HW214169  10.317  11.335   1.544 -0.2159 -0.2252  0.0090
 3162SOL     OW14170   4.042   5.422  11.893  0.2667  0.2167 -0.0473
 3162SOL    HW114171   4.018   5.431  11.801  3.1912 -0.7005 -1.0208
 3162SOL    HW214172   4.132   5.388  11.891  0.8890  1.3241  3.1445
 3163SOL     OW14173   9.381   9.333   1.620  0.4681 -0.1269  0.1795
 3163SOL    HW114174   9.429   9.359   1.541  1.3443 -0.1425  0.6877
 3163SOL    HW214175   9.411   9.395   1.687  1.2720 -1.3475  0.9874
 3164SOL     OW14176  10.074   1.283   2.285 -0.2697  0.1085 -0.2726
 3164SOL    HW114177  10.091   1.275   2.191  0.1852  0.9632 -0.2716
 3164SOL    HW214178  10.100   1.198   2.321 -2.0021 -0.8303 -1.1191
 3165SOL     OW14179   6.901   3.658   5.272  0.3996 -0.2673  0.8596
 3165SOL    HW114180   6.822   3.617   5.239  1.1481 -0.5711 -0.6600
 3165SOL    HW214181   6.956   3.669   5.195  0.0348  4.1513  0.9647
 3166SOL     OW14182   9.496   7.203   9.244 -0.1403 -0.3127 -0.7040
 3166SOL    HW114183   9.562   7.272   9.236 -0.4725 -0.0710 -1.4468
 3166SOL    HW214184   9.508   7.149   9.165 -0.8011 -0.2925 -0.8223
 3167SOL     OW14185   1.786   3.725   5.147  0.4189  0.1487 -0.1755
 3167SOL    HW114186   1.779   3.649   5.089 -1.0025  1.5728 -2.0254
 3167SOL    HW214187   1.850   3.700   5.214  3.3734 -1.0946 -3.1938
 3168SOL     OW14188   0.164  10.670   8.384  0.2926  0.0438 -0.2169
 3168SOL    HW114189   0.217  10.735   8.431 -0.2431  0.5883 -0.3580
 3168SOL    HW214190   0.077  10.709   8.378  0.7270  0.8179 -3.2045
 3169SOL     OW14191   2.913   0.256   7.296  0.2669 -0.1048 -0.2486
 3169SOL    HW114192   2.822   0.248   7.322  0.5886  1.6318  1.7857
 3169SOL    HW214193   2.955   0.176   7.328  0.1855  0.9520  2.9614
 3170SOL     OW14194   0.507   8.612   6.127 -0.3767 -0.2011  0.5436
 3170SOL    HW114195   0.457   8.694   6.131  0.9060  0.5678  1.5774
 3170SOL    HW214196   0.591   8.637   6.090  0.7558 -0.6320  2.6822
 3171SOL     OW14197   7.044   8.015   9.495 -0.5494  0.7480  0.3833
 3171SOL    HW114198   7.105   8.055   9.433  0.9582 -0.7804  0.8121
 3171SOL    HW214199   6.978   7.973   9.439 -0.3053  1.0526 -0.1403
 3172SOL     OW14200   9.101   0.498   4.192  0.4674 -0.7726  0.4262
 3172SOL    HW114201   9.151   0.507   4.110 -0.3905  0.1348 -0.0182
 3172SOL    HW214202   9.046   0.421   4.178  0.2811 -0.5858  0.1194
 3173SOL     OW14203   8.599   9.969   6.110  0.7905  0.3099  0.0439
 3173SOL    HW114204   8.574  10.042   6.053 -1.1205 -0.5764 -0.3507
 3173SOL    HW214205   8.674   9.929   6.066 -0.0037  0.2643 -1.3303
 3174SOL     OW14206  10.757   9.463   2.922  0.1549 -0.2297  0.5072
 3174SOL    HW114207  10.666   9.483   2.902  0.2951  0.6625  0.7302
 3174SOL    HW214208  10.777   9.514   3.000  0.6865 -0.8512  0.7908
 3175SOL     OW14209   0.653   7.604   0.717 -0.4525  0.3932  0.1684
 3175SOL    HW114210   0.627   7.610   0.809 -2.7101 -2.0907 -0.2196
 3175SOL    HW214211   0.690   7.517   0.708 -1.1258  0.2445 -1.4689
 3176SOL     OW14212   5.803   3.559   7.365  0.4267 -0.0599  0.3041
 3176SOL    HW114213   5.851   3.514   7.295 -1.4463 -2.8133  0.6121
 3176SOL    HW214214   5.836   3.519   7.446 -0.6053 -0.1940  0.6698
 3177SOL     OW14215   3.364   9.128   4.946  0.1493 -0.2994  0.1485
 3177SOL    HW114216   3.342   9.220   4.963 -1.0364 -0.8297  1.8283
 3177SOL    HW214217   3.318   9.107   4.865  0.2787  0.5317 -0.1578
 3178SOL     OW14218   6.816   1.083   9.487 -0.5398 -0.1301  0.8227
 3178SOL    HW114219   6.884   1.150   9.498 -0.8288  0.1535  0.8970
 3178SOL    HW214220   6.845   1.010   9.542 -0.4527  0.1101  1.0966
 3179SOL     OW14221   4.284   6.701   7.345 -0.1620 -0.4034  0.1699
 3179SOL    HW114222   4.195   6.732   7.327 -0.0710 -0.0035  0.4097
 3179SOL    HW214223   4.280   6.666   7.434 -0.3245 -1.3172 -0.1833
 3180SOL     OW14224   2.914   0.192   1.074 -0.1718 -0.3326 -0.0734
 3180SOL    HW114225   2.825   0.224   1.085  0.0260  0.0214  0.5693
 3180SOL    HW214226   2.929   0.137   1.151  1.3709  2.4540  1.7764
 3181SOL     OW14227   6.076   1.440  11.640  0.0170 -0.2863 -0.3856
 3181SOL    HW114228   6.020   1.383  11.693 -0.5274  1.3384  0.8602
 3181SOL    HW214229   6.096   1.514  11.697 -0.5603  1.5397 -2.4252
 3182SOL     OW14230   6.422   6.670   2.290  0.0107 -0.5541 -0.2545
 3182SOL    HW114231   6.404   6.760   2.264  1.5852 -0.2122 -0.2437
 3182SOL    HW214232   6.514   6.656   2.268 -0.9125 -3.1926 -3.2526
 3183SOL     OW14233   3.268   4.362   4.969  0.0001  0.3127 -0.0384
 3183SOL    HW114234   3.329   4.289   4.958 -0.7872 -0.4453  0.4516
 3183SOL    HW214235   3.323   4.438   4.984  0.8270 -0.5590  1.6575
 3184SOL     OW14236   1.258   9.147   4.769  0.5354 -0.3255  0.0215
 3184SOL    HW114237   1.211   9.230   4.775  0.6210 -0.3155  0.7052
 3184SOL    HW214238   1.344   9.170   4.733  0.2230 -0.2648 -0.7011
 3185SOL     OW14239   2.505  11.279   3.561  0.0494 -0.4617  0.3150
 3185SOL    HW114240   2.450  11.225   3.618 -0.6329 -1.1740 -0.9636
 3185SOL    HW214241   2.510  11.364   3.604 -0.8612 -0.8340  1.1667
 3186SOL     OW14242   3.051  11.325   9.868  0.2708  0.3953  0.3098
 3186SOL    HW114243   3.102  11.403   9.846 -1.9072  1.1410 -2.7247
 3186SOL    HW214244   3.080  11.259   9.804 -0.8635  0.1011  0.0862
 3187SOL     OW14245  11.584  11.142   4.551  0.1438 -0.3125  0.1076
 3187SOL    HW114246  11.613  11.053   4.570  0.1209 -0.8842 -2.2847
 3187SOL    HW214247  11.523  11.132   4.478  1.2061  1.7885 -1.1283
 3188SOL     OW14248  11.286   5.888   9.881  0.1484  0.4360 -0.1843
 3188SOL    HW114249  11.239   5.919   9.804 -1.0060  1.1804  0.7934
 3188SOL    HW214250  11.219   5.845   9.934  0.4907  1.6528  1.3099
 3189SOL     OW14251   5.314  10.520   8.328 -0.3738  0.1365 -0.0985
 3189SOL    HW114252   5.377  10.493   8.262 -1.3939 -0.7409 -0.7536
 3189SOL    HW214253   5.367  10.547   8.403  0.7663 -0.4406 -0.6764
 3190SOL     OW14254   1.635   8.567   3.068 -0.3411  0.3865  0.1381
 3190SOL    HW114255   1.671   8.655   3.076  0.0130  0.1166  1.9034
 3190SOL    HW214256   1.711   8.509   3.077 -0.9320 -0.1442  2.0580
 3191SOL     OW14257  10.673   9.092   5.026 -0.2398 -0.1728  0.6162
 3191SOL    HW114258  10.734   9.050   5.087  1.5292  0.0269 -0.9325
 3191SOL    HW214259  10.669   9.031   4.952 -2.1991 -0.3181  0.7876
 3192SOL     OW14260   7.414   8.255   3.554  0.1738  0.5160 -0.3477
 3192SOL    HW114261   7.435   8.193   3.484  0.8336  1.3700 -0.9112
 3192SOL    HW214262   7.480   8.323   3.547 -0.0658  0.8776  0.7864
 3193SOL     OW14263   3.523   8.883  11.090  0.4517  0.4699 -0.2816
 3193SOL    HW114264   3.479   8.805  11.057 -1.2164  1.4908 -0.5814
 3193SOL    HW214265   3.455   8.949  11.095  1.8294  1.9492 -0.0854
 3194SOL     OW14266   7.256  11.152   7.279 -0.2720  0.1473  0.4425
 3194SOL    HW114267   7.268  11.243   7.250  0.6970  0.1711  0.8875
 3194SOL    HW214268   7.174  11.125   7.238 -0.0276  0.8733 -0.5625
 3195SOL     OW14269   2.496  11.888   0.713  0.5686  0.5900  0.2414
 3195SOL    HW114270   2.545  11.853   0.788  1.1838 -0.7562 -0.7496
 3195SOL    HW214271   2.410  11.846   0.719  0.2342  1.3177  0.7746
 3196SOL     OW14272   4.885   3.577   4.781  0.0364 -0.4127  0.1025
 3196SOL    HW114273   4.919   3.650   4.728 -1.2755  0.6621  0.6687
 3196SOL    HW214274   4.932   3.584   4.864  1.7067 -1.7751 -0.6512
 3197SOL     OW14275   6.302   1.141   4.687 -0.7177 -0.3223  0.4680
 3197SOL    HW114276   6.339   1.172   4.605 -0.1385 -0.7946  0.5454
 3197SOL    HW214277   6.240   1.073   4.661 -2.1473  0.9999  0.2828
 3198SOL     OW14278   5.963   2.915  11.960  0.2680  0.0130 -0.3696
 3198SOL    HW114279   6.055   2.900  11.935  0.6592  0.1444  0.8925
 3198SOL    HW214280   5.945   2.846  12.024 -0.2716  0.4553 -0.0442
 3199SOL     OW14281  10.617   9.610   7.617 -0.6451  0.1435  0.0885
 3199SOL    HW114282  10.543   9.605   7.678 -2.8247  0.9458 -2.2975
 3199SOL    HW214283  10.590   9.558   7.542  1.7989 -0.5396 -0.4127
 3200SOL     OW14284   6.216   3.465   8.698  0.1055  0.4015  0.1084
 3200SOL    HW114285   6.160   3.484   8.623  0.2738  0.5048  0.0092
 3200SOL    HW214286   6.239   3.550   8.734 -0.3629  0.3361  0.5660
 3201SOL     OW14287   8.049   4.076   3.951 -0.3683  0.2023 -0.0338
 3201SOL    HW114288   8.056   4.051   4.044 -1.4007  1.3584  0.3771
 3201SOL    HW214289   8.041   4.171   3.952 -3.0992  0.0705 -1.1000
 3202SOL     OW14290   2.539   2.795   6.976 -0.2454  0.0070 -0.2802
 3202SOL    HW114291   2.567   2.845   6.900  0.5416  2.6316  1.6049
 3202SOL    HW214292   2.599   2.720   6.979 -0.1019  0.0174 -2.0149
 3203SOL     OW14293   4.485   9.416   1.831  0.1463  0.2995  0.0489
 3203SOL    HW114294   4.431   9.384   1.902  1.5574  0.6970  1.3691
 3203SOL    HW214295   4.562   9.453   1.875  0.6551  1.3598 -1.6392
 3204SOL     OW14296   6.435  10.808   1.543 -0.3099  0.8902  0.3706
 3204SOL    HW114297   6.408  10.730   1.591  2.4075 -0.6387 -0.3569
 3204SOL    HW214298   6.452  10.874   1.610 -1.1853  0.3615  1.1225
 3205SOL     OW14299   2.761   3.388   0.792 -0.2099 -0.0170  0.1036
 3205SOL    HW114300   2.704   3.339   0.734 -0.0674 -1.6790  1.3098
 3205SOL    HW214301   2.719   3.383   0.878  0.9775  0.0287  0.7058
 3206SOL     OW14302   1.778  10.255   5.491 -0.0676 -0.1393  0.5641
 3206SOL    HW114303   1.844  10.196   5.528  1.9966  0.1294 -2.3872
 3206SOL    HW214304   1.808  10.343   5.515  1.6767  0.0800 -2.0753
 3207SOL     OW14305   4.026   7.813   1.089  0.2640  0.3733 -0.2252
 3207SOL    HW114306   4.002   7.876   1.157 -0.2031  0.5210 -0.5250
 3207SOL    HW214307   3.943   7.777   1.059  0.5480 -0.5688  0.1123
 3208SOL     OW14308   6.878  10.634  11.164  0.5313 -0.3744  0.0685
 3208SOL    HW114309   6.867  10.584  11.245 -4.1410 -0.7595 -0.5121
 3208SOL    HW214310   6.887  10.725  11.193  0.9793 -0.7130  1.0371
 3209SOL     OW14311   3.064   7.204   4.428  0.4624  0.1682  0.1219
 3209SOL    HW114312   3.048   7.290   4.390  0.2122  0.1611  0.2060
 3209SOL    HW214313   3.062   7.219   4.523  1.3336  0.2312  0.1370
 3210SOL     OW14314   7.903   6.262   8.185  0.6425 -0.9333  0.9456
 3210SOL    HW114315   7.976   6.289   8.130 -0.4486  1.0664  0.3834
 3210SOL    HW214316   7.890   6.169   8.164 -0.3753 -0.0715 -3.0316
 3211SOL     OW14317   5.160   2.519  10.717 -0.0567 -0.1867 -0.2069
 3211SOL    HW114318   5.083   2.571  10.693  1.9151  3.1524  0.0571
 3211SOL    HW214319   5.176   2.463  10.640 -1.7211  0.2919 -0.9508
 3212SOL     OW14320   3.448   0.841   4.768  0.6366 -0.0424  0.1668
 3212SOL    HW114321   3.404   0.919   4.734 -0.1802  0.0006  1.2810
 3212SOL    HW214322   3.395   0.814   4.843  1.1363 -1.4464  0.0344
 3213SOL     OW14323   7.108   1.648  11.759 -0.3171 -0.2283 -0.4401
 3213SOL    HW114324   7.176   1.713  11.777  0.5767 -0.9850 -0.9910
 3213SOL    HW214325   7.050   1.690  11.696 -0.5802  0.5608  0.3157
 3214SOL     OW14326  10.046   1.499   7.814 -0.2068 -0.2120  0.2350
 3214SOL    HW114327  10.046   1.592   7.791 -0.6960 -0.3399 -0.2744
 3214SOL    HW214328  10.103   1.495   7.891 -0.8078  0.6312  0.7474
 3215SOL     OW14329   0.012   6.856   5.013  0.0301 -0.5859 -0.5784
 3215SOL    HW114330   0.076   6.902   4.960  0.7795  0.1101  0.8927
 3215SOL    HW214331  -0.011   6.917   5.083 -0.0718 -1.8850  0.5636
 3216SOL     OW14332   0.343   5.784  11.681  0.1077 -0.4148  0.2246
 3216SOL    HW114333   0.414   5.827  11.729 -0.9031  2.0895 -0.3697
 3216SOL    HW214334   0.382   5.761  11.596  0.6063 -0.4342  0.4548
 3217SOL     OW14335   9.554  10.297   2.284 -0.1242  0.0977 -0.2008
 3217SOL    HW114336   9.569  10.337   2.369  0.2234  0.4614 -0.4265
 3217SOL    HW214337   9.642  10.286   2.247 -0.3115  0.6520 -0.8286
 3218SOL     OW14338   1.240   6.172   1.484 -0.0885 -0.0901  0.4043
 3218SOL    HW114339   1.273   6.261   1.497  0.6826 -0.3094 -0.0201
 3218SOL    HW214340   1.270   6.148   1.397 -2.3346  0.1242 -0.5173
 3219SOL     OW14341   9.781   6.652   5.098  0.4701  0.4505  0.6241
 3219SOL    HW114342   9.811   6.734   5.058 -0.1098  0.7432  0.7692
 3219SOL    HW214343   9.693   6.673   5.130  0.3039 -0.2469  0.6241
 3220SOL     OW14344  11.500   1.460  10.673  1.1222 -0.0427  0.2238
 3220SOL    HW114345  11.439   1.442  10.745 -0.9681  0.8113 -1.2581
 3220SOL    HW214346  11.446   1.497  10.604  3.3681  0.8808 -1.1430
 3221SOL     OW14347   3.227   6.133   9.562 -0.1412 -0.3617  0.7265
 3221SOL    HW114348   3.160   6.113   9.628 -0.2309  0.8382  1.0174
 3221SOL    HW214349   3.185   6.196   9.503  0.7943  0.6240  1.0705
 3222SOL     OW14350   4.725   6.691  10.448 -0.2556  0.0624  0.7770
 3222SOL    HW114351   4.680   6.665  10.529 -0.6727 -0.0577  0.5089
 3222SOL    HW214352   4.786   6.619  10.431 -0.4658 -0.1167  0.7618
 3223SOL     OW14353   1.189   8.712   0.302 -0.2259  0.1653 -0.4291
 3223SOL    HW114354   1.249   8.785   0.289 -0.6964  0.7754  0.6816
 3223SOL    HW214355   1.225   8.642   0.247 -0.6751  1.6999 -2.8198
 3224SOL     OW14356   3.771   2.614   6.017  0.3802  0.1014  0.1170
 3224SOL    HW114357   3.862   2.626   5.992  0.3496  0.1245  0.0145
 3224SOL    HW214358   3.721   2.650   5.943  0.2848 -0.3986 -0.0644
 3225SOL     OW14359  11.511   3.702   0.319  0.3788 -0.2305 -0.3003
 3225SOL    HW114360  11.459   3.622   0.307  0.8243 -0.5500 -0.1437
 3225SOL    HW214361  11.455   3.760   0.371  0.4793 -0.8777  0.5574
 3226SOL     OW14362   8.524  10.631  11.610  0.3443  0.5540  0.0414
 3226SOL    HW114363   8.614  10.626  11.579  0.1639  0.6553 -0.5086
 3226SOL    HW214364   8.490  10.542  11.600 -0.0780  0.8317 -1.1948
 3227SOL     OW14365   2.947   8.506   9.658  0.0313 -0.3289 -0.2204
 3227SOL    HW114366   2.981   8.497   9.746  0.4064  1.6185 -0.1247
 3227SOL    HW214367   2.870   8.562   9.668 -0.7866 -1.2609 -0.9765
 3228SOL     OW14368  11.621   6.432   2.292 -0.5855 -0.0834  0.3171
 3228SOL    HW114369  11.560   6.401   2.359  0.3677  1.0051  1.7411
 3228SOL    HW214370  11.599   6.380   2.214 -1.6114 -1.5152  1.4978
 3229SOL     OW14371   7.699   4.536   0.740 -0.3414 -1.0488  0.1650
 3229SOL    HW114372   7.789   4.505   0.735  0.0498 -0.7558  3.3262
 3229SOL    HW214373   7.695   4.609   0.678  1.6354 -0.9325  0.1105
 3230SOL     OW14374   0.099   5.342   2.288  0.1941 -0.0194  0.2411
 3230SOL    HW114375   0.153   5.271   2.322  0.5188  1.1699  2.3845
 3230SOL    HW214376   0.154   5.383   2.221  0.2884 -1.2742 -0.4896
 3231SOL     OW14377   9.867   0.845   8.486  0.7300  0.1378  0.3006
 3231SOL    HW114378   9.885   0.916   8.424  1.8263  0.7074  1.2229
 3231SOL    HW214379   9.902   0.767   8.444  1.8891  0.5979  0.3746
 3232SOL     OW14380   1.762   5.907   4.489  0.4215 -0.3016  0.0360
 3232SOL    HW114381   1.745   5.879   4.579  1.7027 -0.1733  0.3294
 3232SOL    HW214382   1.701   5.979   4.475  0.8041  0.2502  1.0994
 3233SOL     OW14383  10.494  10.310   5.390  0.6898  0.4674 -0.3512
 3233SOL    HW114384  10.431  10.284   5.323  1.9352 -1.5592 -0.8245
 3233SOL    HW214385  10.492  10.238   5.454 -1.4987  2.9522  2.6806
 3234SOL     OW14386   5.794   5.321   7.125 -0.1519 -0.2739 -0.2616
 3234SOL    HW114387   5.778   5.390   7.191 -1.7502  1.2592 -2.1084
 3234SOL    HW214388   5.888   5.304   7.130  0.1465  1.4105  0.8815
 3235SOL     OW14389  11.802   7.174   2.963  0.9060  0.3083 -0.7168
 3235SOL    HW114390  11.722   7.203   2.920  1.3316  1.1426 -0.9625
 3235SOL    HW214391  11.772   7.133   3.044  0.2258  0.5209 -0.8546
 3236SOL     OW14392   5.390   6.355   2.707  0.0188 -0.4500 -0.4813
 3236SOL    HW114393   5.431   6.422   2.762  0.3317 -0.4559 -0.7031
 3236SOL    HW214394   5.299   6.351   2.738  0.4450 -1.2080  0.7444
 3237SOL     OW14395   6.402   5.497   7.760 -0.2310 -0.0147  0.3519
 3237SOL    HW114396   6.310   5.482   7.743  0.2272 -0.7936 -1.6824
 3237SOL    HW214397   6.443   5.412   7.745  1.2189  1.0141 -2.0774
 3238SOL     OW14398   6.946  11.744   4.206 -0.1777  0.3830  0.5529
 3238SOL    HW114399   6.923  11.681   4.138 -1.1255  0.1619  1.0624
 3238SOL    HW214400   6.942  11.829   4.163  3.0428  0.0678 -0.6877
 3239SOL     OW14401   0.487  11.987   6.114  0.2701  0.7677 -0.0567
 3239SOL    HW114402   0.496  12.059   6.052  1.1556  0.4075 -0.3675
 3239SOL    HW214403   0.506  11.908   6.062 -1.5814  0.1906  0.0466
 3240SOL     OW14404   1.505   6.118   1.582  0.8806 -0.0523 -0.1424
 3240SOL    HW114405   1.410   6.109   1.573  0.9212 -0.1856 -0.4279
 3240SOL    HW214406   1.541   6.087   1.499  1.0834  1.7901 -0.7772
 3241SOL     OW14407   9.353   2.438   7.041 -0.0465  0.2945 -0.1235
 3241SOL    HW114408   9.298   2.437   6.962  0.0516 -0.9099 -0.1843
 3241SOL    HW214409   9.355   2.347   7.071  0.7828  0.5599  0.6767
 3242SOL     OW14410   2.408   1.128   8.298 -0.0959  0.6258  0.8706
 3242SOL    HW114411   2.448   1.164   8.219  0.5100 -0.1965  0.7849
 3242SOL    HW214412   2.321   1.101   8.271  0.2591 -0.0358  0.3641
 3243SOL     OW14413  10.968  11.722   5.835  0.0859  0.0321  0.3831
 3243SOL    HW114414  10.879  11.724   5.869  0.4048  1.4580  1.2085
 3243SOL    HW214415  10.960  11.678   5.750 -1.6943  1.6718 -0.3648
 3244SOL     OW14416   1.875   5.124   9.981  0.1550 -0.3414  0.7324
 3244SOL    HW114417   1.829   5.126  10.065 -0.2293  1.0678  0.5071
 3244SOL    HW214418   1.805   5.131   9.916  0.6408  2.2100  0.3872
 3245SOL     OW14419   5.966  11.817   1.180  0.0184 -0.0306  0.3526
 3245SOL    HW114420   5.974  11.912   1.170 -1.2590  0.1761  1.1718
 3245SOL    HW214421   6.052  11.784   1.154  0.3835  1.3129 -0.2760
 3246SOL     OW14422  11.084   6.315   4.258 -0.6168  0.9648  0.1425
 3246SOL    HW114423  11.022   6.268   4.203  3.0279  0.2463 -3.8762
 3246SOL    HW214424  11.045   6.402   4.269 -3.2363 -0.0791 -0.2371
 3247SOL     OW14425   7.698   7.305   8.094 -0.1049  0.5970 -0.1232
 3247SOL    HW114426   7.774   7.263   8.053 -1.1487 -2.6695  0.9606
 3247SOL    HW214427   7.730   7.334   8.179 -0.1973 -1.8173  0.8196
 3248SOL     OW14428   0.774   8.062  10.080  0.6579  0.4213 -0.2061
 3248SOL    HW114429   0.773   7.980  10.130  0.1149 -0.5976 -1.7875
 3248SOL    HW214430   0.812   8.126  10.139  0.1664 -0.7405  1.4500
 3249SOL     OW14431   8.806  11.325   1.915  0.1977  0.2092 -0.0394
 3249SOL    HW114432   8.884  11.303   1.865 -0.2058 -1.3356 -0.0307
 3249SOL    HW214433   8.824  11.295   2.004 -0.3837 -0.1126 -0.0226
 3250SOL     OW14434   4.398   5.333  10.809  0.4498  0.4472  0.1771
 3250SOL    HW114435   4.314   5.339  10.764  1.0137  0.5128 -0.8858
 3250SOL    HW214436   4.406   5.240  10.831 -0.2108  0.5530  0.9228
 3251SOL     OW14437   3.975  10.687   7.273  0.5328  0.3709  0.1068
 3251SOL    HW114438   3.969  10.760   7.212 -1.7458 -0.6599 -1.0335
 3251SOL    HW214439   3.993  10.611   7.217 -1.9828 -0.6556  0.5583
 3252SOL     OW14440   4.228   4.969  10.027 -0.0332  0.0782  0.2537
 3252SOL    HW114441   4.273   5.034   9.973 -1.2045 -0.2869 -1.2212
 3252SOL    HW214442   4.137   4.997  10.028 -0.3545 -0.9338  0.5264
 3253SOL     OW14443   6.484   3.890   8.197  0.7819 -0.4233 -0.0756
 3253SOL    HW114444   6.413   3.931   8.245  0.7479 -1.1221  0.5006
 3253SOL    HW214445   6.502   3.809   8.247  2.6819  0.2551  0.4075
 3254SOL     OW14446   4.202  11.228   3.987  0.0925 -0.2076 -0.4488
 3254SOL    HW114447   4.217  11.134   3.986  0.3582 -0.1798  0.1491
 3254SOL    HW214448   4.257  11.262   3.916 -1.3077 -0.6688 -1.7923
 3255SOL     OW14449  11.209  10.383   9.237 -0.0418  0.0550 -0.3604
 3255SOL    HW114450  11.165  10.302   9.264 -1.2321  0.0863 -2.0574
 3255SOL    HW214451  11.235  10.367   9.147  4.5878 -0.3797  0.8010
 3256SOL     OW14452   0.674   5.836  10.104  0.7129  0.1550  0.2641
 3256SOL    HW114453   0.608   5.826  10.035  1.4009 -0.5719 -0.3118
 3256SOL    HW214454   0.751   5.868  10.058  0.8448  0.7424  0.8894
 3257SOL     OW14455   0.668   4.588   9.434 -0.1100  0.7219  0.0424
 3257SOL    HW114456   0.666   4.495   9.409  0.4973  1.1763 -1.8804
 3257SOL    HW214457   0.594   4.627   9.388  0.3061  1.3901 -0.0751
 3258SOL     OW14458   0.869   7.739  10.080  0.5294  0.5028  0.0166
 3258SOL    HW114459   0.864   7.785  10.164 -0.7397  0.5445 -0.0564
 3258SOL    HW214460   0.780   7.705  10.066  0.5863  0.9113 -1.5345
 3259SOL     OW14461   2.331   9.551   9.592 -0.5004  0.3021  0.1900
 3259SOL    HW114462   2.415   9.558   9.547 -1.0021  0.3502 -0.7500
 3259SOL    HW214463   2.266   9.551   9.523 -1.2064 -1.4103  0.7926
 3260SOL     OW14464  11.527   4.243   0.348 -0.0357  0.5509  0.4330
 3260SOL    HW114465  11.551   4.168   0.293 -0.6017  0.7250 -0.0636
 3260SOL    HW214466  11.530   4.318   0.289 -1.2142  0.6632  0.4832
 3261SOL     OW14467  11.712   7.410   6.750 -0.1042  0.1866 -0.5170
 3261SOL    HW114468  11.651   7.482   6.734 -0.1086  0.6263  1.2451
 3261SOL    HW214469  11.656   7.332   6.752 -0.5669  0.5197  0.5520
 3262SOL     OW14470   0.627   9.464   3.162 -0.2144  0.0694 -0.6850
 3262SOL    HW114471   0.710   9.433   3.125  1.0747  1.3829  0.9360
 3262SOL    HW214472   0.562   9.444   3.095  1.3677 -1.1926 -1.9318
 3263SOL     OW14473   5.417   3.154  11.864  0.0947 -0.2020  0.0305
 3263SOL    HW114474   5.361   3.210  11.810  2.5751  2.0620 -0.3815
 3263SOL    HW214475   5.384   3.167  11.953 -1.0408 -0.2338 -0.3629
 3264SOL     OW14476   6.902   5.201   7.527 -0.0948  0.3138  0.2208
 3264SOL    HW114477   6.910   5.125   7.585 -0.3109 -0.4494 -0.7321
 3264SOL    HW214478   6.834   5.255   7.568  0.8231  0.5525  1.4928
 3265SOL     OW14479   6.086   5.064   5.053  0.0032  0.3604 -0.3083
 3265SOL    HW114480   6.121   5.150   5.029 -0.2381  0.8878  1.1514
 3265SOL    HW214481   6.036   5.080   5.133  0.2452 -1.2116  0.1809
 3266SOL     OW14482   9.761  11.351   7.088 -0.1136 -0.0361 -0.3912
 3266SOL    HW114483   9.668  11.367   7.072 -0.4083 -0.8858  0.4198
 3266SOL    HW214484   9.797  11.438   7.104 -0.8506  0.2590 -0.2856
 3267SOL     OW14485  11.575   0.496   0.114 -0.2887 -0.0535 -0.3607
 3267SOL    HW114486  11.608   0.438   0.183  0.0388  0.6086  0.0468
 3267SOL    HW214487  11.528   0.437   0.054 -1.9060 -0.4495  1.2121
 3268SOL     OW14488   6.062   8.114   0.530  0.0505 -0.1414 -0.4773
 3268SOL    HW114489   6.117   8.190   0.549 -0.2624  0.0704 -0.4012
 3268SOL    HW214490   6.089   8.048   0.594  0.1843 -0.0224 -0.4098
 3269SOL     OW14491   3.905   0.465  11.074 -0.6055  0.0616  0.5737
 3269SOL    HW114492   3.945   0.384  11.041 -1.1440  0.2038 -0.4523
 3269SOL    HW214493   3.862   0.439  11.155  0.4929 -0.3566  1.0484
 3270SOL     OW14494   4.076   4.815   8.794  0.6091  0.2577 -0.0641
 3270SOL    HW114495   4.130   4.881   8.839  0.4632 -0.4109  1.1167
 3270SOL    HW214496   4.003   4.866   8.757  0.7517  0.8271  0.4143
 3271SOL     OW14497  10.575  10.736   7.125  1.1018  0.2070  0.1102
 3271SOL    HW114498  10.591  10.731   7.031  3.0136  0.7575  0.3559
 3271SOL    HW214499  10.540  10.824   7.139  1.0884  0.2277 -0.0565
 3272SOL     OW14500   2.927   7.227   4.142 -0.3754 -0.3705  0.2123
 3272SOL    HW114501   2.939   7.254   4.051  1.8153  1.0085  0.8539
 3272SOL    HW214502   3.006   7.178   4.163  0.0852  1.0546  1.9448
 3273SOL     OW14503   1.660   9.884  11.266 -0.1645 -0.0656 -0.1029
 3273SOL    HW114504   1.684   9.915  11.353 -0.4337  2.3306 -0.8298
 3273SOL    HW214505   1.565   9.889  11.264 -0.2612 -1.3697 -0.1458
 3274SOL     OW14506   8.663   9.121   9.879  0.1819 -0.1458 -0.1072
 3274SOL    HW114507   8.701   9.060   9.815 -0.2329  0.1760 -0.6696
 3274SOL    HW214508   8.710   9.203   9.864  0.6170 -0.2724  0.5307
 3275SOL     OW14509   0.301   9.327   9.032  0.2709  0.5178  0.3384
 3275SOL    HW114510   0.365   9.264   9.000 -0.7228 -0.7434  0.7316
 3275SOL    HW214511   0.239   9.274   9.082 -0.7069  1.7935  0.5212
 3276SOL     OW14512   5.329   4.621   2.456 -0.2015  0.9333  0.0439
 3276SOL    HW114513   5.418   4.622   2.422 -0.6983  1.5238 -1.2881
 3276SOL    HW214514   5.289   4.545   2.414 -0.9747  1.9699 -1.1735
 3277SOL     OW14515   9.400   5.520  10.177 -0.1543  0.1215  0.3448
 3277SOL    HW114516   9.321   5.539  10.127  0.1699  0.2822 -0.1025
 3277SOL    HW214517   9.372   5.452  10.239 -0.8896  0.8424  0.8392
 3278SOL     OW14518   3.472   7.537   4.451  0.1205 -0.0855 -0.3069
 3278SOL    HW114519   3.502   7.451   4.421 -1.0562 -0.7517  0.3657
 3278SOL    HW214520   3.482   7.534   4.546  0.4454  0.6794 -0.3108
 3279SOL     OW14521   3.797   1.447   7.605  0.5813  0.6245 -0.0065
 3279SOL    HW114522   3.848   1.366   7.601 -0.2073 -0.1961  3.3877
 3279SOL    HW214523   3.855   1.509   7.649  0.1274  0.9861  0.0834
 3280SOL     OW14524   6.570   0.102  10.716 -0.2229  0.0892 -0.3686
 3280SOL    HW114525   6.499   0.110  10.651 -0.0332 -0.6515 -0.6790
 3280SOL    HW214526   6.647   0.076  10.664  0.0217 -0.1422  0.1010
 3281SOL     OW14527  10.013   0.416   2.754 -0.8761 -0.1140  0.0260
 3281SOL    HW114528  10.083   0.419   2.689 -0.1338  2.7709  0.8379
 3281SOL    HW214529   9.988   0.507   2.767 -1.5000 -0.6338  3.2510
 3282SOL     OW14530   6.013  11.517  11.708  0.1956  0.0062  0.1506
 3282SOL    HW114531   6.107  11.502  11.718  0.0485 -0.5601  0.6902
 3282SOL    HW214532   6.000  11.607  11.737  1.1138  1.4501 -3.3217
 3283SOL     OW14533   4.417   2.384   0.294 -0.1910 -0.3192 -0.1464
 3283SOL    HW114534   4.364   2.438   0.235 -0.2692 -0.3406 -0.0964
 3283SOL    HW214535   4.358   2.315   0.323  0.3690 -1.3902 -1.4887
 3284SOL     OW14536  10.153  11.648   0.318  0.2800 -0.4763 -0.1087
 3284SOL    HW114537  10.223  11.679   0.260  1.0534 -1.0711  0.4894
 3284SOL    HW214538  10.145  11.717   0.384  0.2744 -0.3918 -0.1965
 3285SOL     OW14539   1.934   3.490   5.767 -0.1291 -0.1599 -0.1861
 3285SOL    HW114540   1.910   3.577   5.737 -0.7550 -0.0455  0.6217
 3285SOL    HW214541   2.030   3.491   5.767 -0.1029 -0.0498 -1.7827
 3286SOL     OW14542   0.077   5.512   3.619 -0.0833  0.3741 -0.0767
 3286SOL    HW114543   0.077   5.422   3.589 -1.0759  0.9883 -2.0813
 3286SOL    HW214544   0.134   5.558   3.557  0.2203  1.1710  0.7689
 3287SOL     OW14545   7.278  10.716   5.518  0.1484  0.3885  0.1051
 3287SOL    HW114546   7.224  10.786   5.479  0.8529  0.5471 -0.6025
 3287SOL    HW214547   7.223  10.638   5.513 -0.7845  0.9434  1.2122
 3288SOL     OW14548   4.408   7.993   2.296  0.2361  0.2585 -0.4990
 3288SOL    HW114549   4.414   7.932   2.370 -1.9040 -1.1230 -1.3652
 3288SOL    HW214550   4.350   8.063   2.328  0.8982  0.7013 -0.2453
 3289SOL     OW14551   1.514   3.159   6.706  0.3853 -0.2776 -0.1299
 3289SOL    HW114552   1.498   3.233   6.647 -1.5231  0.0023  0.6546
 3289SOL    HW214553   1.479   3.187   6.790  0.4095 -1.7485  0.4041
 3290SOL     OW14554   0.690   8.645   6.991  0.0663  0.0998 -0.1274
 3290SOL    HW114555   0.624   8.586   6.955  0.4908  0.3079 -1.3062
 3290SOL    HW214556   0.664   8.732   6.961  0.4301  0.2855  0.0844
 3291SOL     OW14557   8.168   0.616   0.427  0.5370 -0.0073  0.0150
 3291SOL    HW114558   8.253   0.596   0.387  0.7339  0.5507  0.1517
 3291SOL    HW214559   8.144   0.535   0.472  1.0504 -0.1345  0.0724
 3292SOL     OW14560   9.832  11.333   0.482  0.0149 -0.1694 -0.4124
 3292SOL    HW114561   9.848  11.420   0.446 -3.3928  0.5276 -0.6302
 3292SOL    HW214562   9.820  11.347   0.576 -1.9416 -0.0802 -0.6335
 3293SOL     OW14563   0.378   2.921   5.711  0.6568 -0.3654  0.5279
 3293SOL    HW114564   0.468   2.915   5.681  1.2390  0.6639  1.9966
 3293SOL    HW214565   0.376   2.873   5.794 -0.6701 -2.2134 -0.4824
 3294SOL     OW14566   5.056   4.219   7.860  0.1111 -0.0046 -0.3254
 3294SOL    HW114567   4.996   4.252   7.928 -2.3008 -0.0703 -2.3018
 3294SOL    HW214568   5.143   4.228   7.900 -1.0228  1.7050  2.0585
 3295SOL     OW14569   2.814   2.693   8.854  0.2413  0.0770  0.3499
 3295SOL    HW114570   2.803   2.786   8.874  0.6132  0.0019  0.9313
 3295SOL    HW214571   2.896   2.689   8.806 -0.3050  0.1711 -0.6235
 3296SOL     OW14572   6.622  10.354   2.076 -0.0511 -0.2316 -0.0102
 3296SOL    HW114573   6.609  10.264   2.045 -0.3674 -0.1272 -0.1898
 3296SOL    HW214574   6.692  10.388   2.020  1.2298 -0.8845  1.1438
 3297SOL     OW14575   7.760   0.822   0.459  0.1790  0.3094 -0.6844
 3297SOL    HW114576   7.787   0.830   0.368  0.7348 -1.4809 -0.7178
 3297SOL    HW214577   7.675   0.778   0.455  1.2986 -2.0564 -0.3275
 3298SOL     OW14578   3.763   3.154   7.275  0.0638  0.0400  0.1094
 3298SOL    HW114579   3.797   3.236   7.240  0.0377  0.3065  0.6845
 3298SOL    HW214580   3.670   3.172   7.292 -0.2043 -0.4544 -0.7737
 3299SOL     OW14581   3.530   8.147   3.037  0.0846 -0.7227 -0.1972
 3299SOL    HW114582   3.506   8.091   3.111 -0.4828 -0.6878 -0.3563
 3299SOL    HW214583   3.625   8.137   3.031  0.3135  0.1887  1.2825
 3300SOL     OW14584   0.076   3.080  10.918 -0.4976 -0.0664  0.0636
 3300SOL    HW114585   0.133   3.015  10.877  1.7946  2.6960 -1.5247
 3300SOL    HW214586  -0.009   3.066  10.878  0.0797 -1.6444 -0.6936
 3301SOL     OW14587   9.575  10.137   7.929 -0.0039 -0.4927  0.3620
 3301SOL    HW114588   9.616  10.091   8.003  0.2125  0.2247  0.6979
 3301SOL    HW214589   9.633  10.120   7.855  0.9837  0.6065  0.8588
 3302SOL     OW14590   4.396   1.158   6.232 -0.0102  0.5830  0.0474
 3302SOL    HW114591   4.392   1.066   6.206 -1.0636  0.3776  0.8644
 3302SOL    HW214592   4.466   1.195   6.179 -1.0906 -0.1470 -1.9648
 3303SOL     OW14593   2.810   9.934   7.846 -0.0027  0.5095 -0.0322
 3303SOL    HW114594   2.904   9.922   7.837  0.2149  0.5807  1.7887
 3303SOL    HW214595   2.779   9.954   7.758  1.2096 -2.5006 -1.2633
 3304SOL     OW14596   1.597   1.153  11.885  0.3916  0.0755 -0.0845
 3304SOL    HW114597   1.628   1.133  11.974 -0.4019 -0.3922  0.0932
 3304SOL    HW214598   1.527   1.216  11.898  0.2985  0.0338 -0.3812
 3305SOL     OW14599  11.210   0.437   4.183 -0.0526 -0.2782  1.0454
 3305SOL    HW114600  11.287   0.416   4.131 -2.2371 -1.5086 -2.0340
 3305SOL    HW214601  11.183   0.524   4.152 -1.1693 -0.8674  0.2666
 3306SOL     OW14602   8.224   6.395  10.646  0.2640  0.1504  0.3771
 3306SOL    HW114603   8.175   6.328  10.695 -2.8013  0.4066 -2.0108
 3306SOL    HW214604   8.295   6.347  10.604 -0.4548 -1.1656  0.6125
 3307SOL     OW14605   1.868   6.976   9.710 -0.1297  0.2540 -0.0014
 3307SOL    HW114606   1.959   6.952   9.725 -0.7684 -2.9512 -0.3941
 3307SOL    HW214607   1.822   6.941   9.787 -1.1199  1.0965 -0.1908
 3308SOL     OW14608   1.736   2.072   8.994 -0.2194 -0.3601  0.4757
 3308SOL    HW114609   1.661   2.056   8.936 -0.4994  0.9286  0.4445
 3308SOL    HW214610   1.799   2.004   8.971 -0.7821 -0.5538 -0.5617
 3309SOL     OW14611   8.639   6.231   3.128 -0.1640 -0.0684 -0.4307
 3309SOL    HW114612   8.545   6.242   3.116 -0.0202  1.0246 -0.5815
 3309SOL    HW214613   8.668   6.186   3.049 -0.4664  0.0619 -0.6176
 3310SOL     OW14614   1.793   4.337   7.194  0.2680  0.4214 -0.1711
 3310SOL    HW114615   1.858   4.269   7.209 -0.8142 -0.8728 -1.1317
 3310SOL    HW214616   1.816   4.406   7.257  1.9827 -0.3794  0.1493
 3311SOL     OW14617   0.082   8.754   9.052  0.3540  0.0532  0.1547
 3311SOL    HW114618   0.100   8.711   8.969 -0.8161  0.8483 -0.5561
 3311SOL    HW214619   0.022   8.826   9.029 -0.2680  0.0872  1.7281
 3312SOL     OW14620   0.184   9.735  10.228  0.5559  0.4154 -0.2298
 3312SOL    HW114621   0.201   9.824  10.195 -1.7371  0.2379 -2.1692
 3312SOL    HW214622   0.263   9.686  10.206  1.2221  1.6134 -0.6010
 3313SOL     OW14623   4.595   3.369   2.151  0.4255 -0.5543  0.0359
 3313SOL    HW114624   4.652   3.296   2.126  2.4949  1.3530 -1.2199
 3313SOL    HW214625   4.612   3.382   2.244 -3.2828 -4.2646  1.5962
 3314SOL     OW14626   2.304  10.501   7.030 -0.4379 -0.4735 -0.0998
 3314SOL    HW114627   2.309  10.577   6.972 -1.3808  1.3977  2.0988
 3314SOL    HW214628   2.210  10.481   7.035 -0.3954 -0.5233  0.7977
 3315SOL     OW14629   2.871   2.468   5.833  0.1561 -0.2614 -0.1154
 3315SOL    HW114630   2.937   2.508   5.776  0.8023 -1.0878  0.0334
 3315SOL    HW214631   2.915   2.460   5.918 -0.5982  0.4156  0.3559
 3316SOL     OW14632   8.222  11.470   2.340  0.2452  0.6206 -0.0375
 3316SOL    HW114633   8.137  11.464   2.297 -0.4423 -0.9338  1.4190
 3316SOL    HW214634   8.204  11.452   2.432  1.8913  2.1868  0.6626
 3317SOL     OW14635   4.423   6.683  10.240  0.4664  0.5799 -0.1508
 3317SOL    HW114636   4.390   6.685  10.329 -0.6369  1.0041 -0.5523
 3317SOL    HW214637   4.420   6.591  10.215  3.2922  0.0408  1.1132
 3318SOL     OW14638   6.526   5.090   7.342  0.3666  0.3717  0.3239
 3318SOL    HW114639   6.490   5.027   7.404 -0.8009  1.4169  0.7290
 3318SOL    HW214640   6.500   5.056   7.256  4.9500 -3.0634 -0.0842
 3319SOL     OW14641   6.723   2.249   5.760  0.3886  0.3533  0.0015
 3319SOL    HW114642   6.779   2.259   5.837  0.1381  0.1539  0.2094
 3319SOL    HW214643   6.744   2.325   5.706 -0.9502  1.6732  1.2235
 3320SOL     OW14644   3.572   3.683   3.856  0.3023  0.4417  0.0682
 3320SOL    HW114645   3.601   3.752   3.797  1.2205  0.8217  0.9271
 3320SOL    HW214646   3.477   3.692   3.859  0.0239 -0.6525 -2.6155
 3321SOL     OW14647   5.349   4.683   2.735 -0.0887 -0.2851 -0.4221
 3321SOL    HW114648   5.335   4.664   2.642  1.7661  0.1914 -0.8531
 3321SOL    HW214649   5.281   4.634   2.780 -0.6142 -1.0756 -1.9924
 3322SOL     OW14650   7.574   0.507   7.459 -0.1317  0.3482  0.5615
 3322SOL    HW114651   7.604   0.419   7.482 -1.1549  0.0913  0.9885
 3322SOL    HW214652   7.515   0.495   7.385  0.7058  0.8379 -0.2174
 3323SOL     OW14653   8.572   3.353   6.532  0.2747 -0.3604 -0.0679
 3323SOL    HW114654   8.630   3.418   6.573 -0.3953  0.1956  0.0032
 3323SOL    HW214655   8.607   3.344   6.444  1.7804 -1.6269  0.5966
 3324SOL     OW14656   4.095  11.852   7.481 -0.6967 -0.9485  0.0269
 3324SOL    HW114657   4.190  11.837   7.474 -0.5975 -0.9779  1.2135
 3324SOL    HW214658   4.079  11.928   7.425  0.4372  0.5326  1.5747
 3325SOL     OW14659   8.619   4.351   9.202  0.2671 -0.1848  1.1779
 3325SOL    HW114660   8.600   4.393   9.118 -0.5140 -1.0822  0.8849
 3325SOL    HW214661   8.657   4.421   9.256 -0.8457  0.8510  0.6608
 3326SOL     OW14662   6.144   5.389   4.250 -0.1294 -0.1296 -0.6057
 3326SOL    HW114663   6.230   5.428   4.264 -0.7310  0.4550  2.0775
 3326SOL    HW214664   6.162   5.297   4.230  1.1451 -0.2374  0.8376
 3327SOL     OW14665   8.230   7.190   3.762 -0.2042  0.0633 -0.3493
 3327SOL    HW114666   8.157   7.250   3.749 -0.4511 -0.4112 -1.2092
 3327SOL    HW214667   8.305   7.234   3.722 -0.3732 -0.1684 -0.9291
 3328SOL     OW14668   8.470   6.545   1.996 -0.5687  0.3190  0.6270
 3328SOL    HW114669   8.411   6.475   1.969  0.5256 -0.1754 -0.5652
 3328SOL    HW214670   8.427   6.585   2.072 -1.0032 -1.9328  1.6340
 3329SOL     OW14671   9.562   2.402   6.491  0.7905  0.0948 -0.7482
 3329SOL    HW114672   9.509   2.346   6.548 -0.2373  0.9375 -0.8474
 3329SOL    HW214673   9.501   2.435   6.426  1.7100  0.1116 -1.6331
 3330SOL     OW14674  10.586  11.189  11.036  0.2507  0.0364  0.1572
 3330SOL    HW114675  10.583  11.199  11.131  2.0025  2.5091  0.0459
 3330SOL    HW214676  10.494  11.193  11.009 -0.1818  0.7967  1.6378
 3331SOL     OW14677   6.998   3.723   2.709  0.0170  0.1976  0.1321
 3331SOL    HW114678   6.973   3.652   2.650 -0.1655 -0.1682  0.6416
 3331SOL    HW214679   7.088   3.743   2.686  0.0127 -0.0795 -0.1342
 3332SOL     OW14680   7.037   8.515   8.476  0.2248 -0.4391  0.1704
 3332SOL    HW114681   7.117   8.534   8.428 -0.6443 -1.0123 -1.5890
 3332SOL    HW214682   7.003   8.601   8.502  1.2423 -0.1832  0.7036
 3333SOL     OW14683   6.015  11.852   5.993 -0.4900 -0.8766 -0.4855
 3333SOL    HW114684   6.103  11.881   5.969 -0.6575  0.0492 -0.0163
 3333SOL    HW214685   6.008  11.764   5.955  0.8900 -1.2517  0.0722
 3334SOL     OW14686  11.218  11.420   9.063 -0.0425  0.0500  0.2860
 3334SOL    HW114687  11.187  11.346   9.116 -0.3408  1.6342  2.4706
 3334SOL    HW214688  11.140  11.449   9.015 -0.2893 -0.1539  0.5603
 3335SOL     OW14689   4.027   4.709   7.242  0.1316 -0.0561 -0.0896
 3335SOL    HW114690   3.990   4.797   7.245  1.4451  0.5157 -0.0495
 3335SOL    HW214691   4.108   4.719   7.192  0.0022 -1.3616 -0.5981
 3336SOL     OW14692  11.376   8.047   5.909  0.1999 -0.1896  0.0755
 3336SOL    HW114693  11.335   7.966   5.879  0.1932  0.2187 -1.0614
 3336SOL    HW214694  11.466   8.021   5.930 -0.2059 -0.7803  1.1447
 3337SOL     OW14695   1.974  10.228   2.261 -0.5126 -0.3679  0.4013
 3337SOL    HW114696   1.930  10.202   2.180 -1.3268  3.0850 -0.4055
 3337SOL    HW214697   2.061  10.190   2.253 -0.9059 -1.0019 -1.6157
 3338SOL     OW14698   7.235   0.806   5.924  0.0244 -0.1185  0.0302
 3338SOL    HW114699   7.153   0.854   5.930  0.9788  1.4283  1.5116
 3338SOL    HW214700   7.272   0.831   5.840 -1.2978 -1.4209 -1.0153
 3339SOL     OW14701   9.286   0.024   0.295  0.3973 -0.0234 -0.3606
 3339SOL    HW114702   9.292  -0.069   0.317 -0.9367 -0.0084  0.1837
 3339SOL    HW214703   9.193   0.044   0.303  0.7062  1.4385 -0.1572
 3340SOL     OW14704  11.669   7.727   6.184 -0.4295 -0.5767 -0.3487
 3340SOL    HW114705  11.637   7.673   6.257  0.9909 -0.5293  0.3330
 3340SOL    HW214706  11.713   7.801   6.226 -0.0117 -0.2946 -1.2642
 3341SOL     OW14707   3.699  10.313   6.640  0.4100 -0.3935 -0.3890
 3341SOL    HW114708   3.683  10.296   6.733 -0.5021 -0.2479 -0.5110
 3341SOL    HW214709   3.647  10.247   6.594 -1.0287  0.9703 -0.8163
 3342SOL     OW14710   4.533   6.725   5.095  0.2656  0.1721 -0.4762
 3342SOL    HW114711   4.490   6.655   5.144  1.1316  0.7436  1.1760
 3342SOL    HW214712   4.605   6.682   5.049  0.3560 -0.1272 -0.0501
 3343SOL     OW14713   5.571   4.769   3.938 -0.5947 -0.0149  0.1736
 3343SOL    HW114714   5.520   4.712   3.880 -1.5078  0.8375  0.0955
 3343SOL    HW214715   5.577   4.852   3.891  1.3299 -0.2257 -0.0313
 3344SOL     OW14716   5.014   9.835   6.648  0.1552 -0.2771  0.4992
 3344SOL    HW114717   4.961   9.891   6.704 -0.1350 -0.9393  0.8971
 3344SOL    HW214718   4.989   9.746   6.673  1.6063 -0.6131  0.8482
 3345SOL     OW14719   3.201   7.228   0.783 -0.9396  0.0772  0.1042
 3345SOL    HW114720   3.149   7.147   0.786  1.8391 -1.8251  2.5132
 3345SOL    HW214721   3.137   7.297   0.798 -3.2183 -1.8149 -0.2073
 3346SOL     OW14722  11.503   0.641   9.395 -0.4747 -0.1199 -0.1846
 3346SOL    HW114723  11.433   0.577   9.408  0.4299 -1.1149 -0.0850
 3346SOL    HW214724  11.532   0.663   9.483 -0.6486  0.2849 -0.2267
 3347SOL     OW14725   2.421  10.593   0.920  0.6694 -0.0882  0.2875
 3347SOL    HW114726   2.471  10.513   0.935  2.0681  0.4944 -1.0041
 3347SOL    HW214727   2.481  10.663   0.944 -0.4118  0.6129  1.0397
 3348SOL     OW14728   7.355   1.631   3.472  0.1245  0.2395 -0.0530
 3348SOL    HW114729   7.342   1.725   3.483  1.8274  0.3698  1.2512
 3348SOL    HW214730   7.268   1.597   3.448 -0.7038  2.0228  0.2818
 3349SOL     OW14731   4.041   7.622  11.216  0.5245  0.1031 -0.4812
 3349SOL    HW114732   4.035   7.717  11.230 -1.7468 -0.1062  0.3474
 3349SOL    HW214733   4.135   7.604  11.212  1.1026  1.9993  2.2571
 3350SOL     OW14734   6.502   2.010   8.531  0.3450  0.0126 -0.6868
 3350SOL    HW114735   6.457   2.051   8.458  0.3531  0.6477 -0.3376
 3350SOL    HW214736   6.470   1.919   8.531  0.2425  0.0417 -1.3856
 3351SOL     OW14737  11.342  11.012   8.789  0.1095  0.5873 -0.0513
 3351SOL    HW114738  11.356  10.918   8.781 -0.3262  0.6272 -1.6351
 3351SOL    HW214739  11.300  11.023   8.874 -1.2153 -0.8331 -0.4867
 3352SOL     OW14740   4.933   2.086   8.388  0.2666 -0.5420 -0.4589
 3352SOL    HW114741   4.991   2.121   8.457 -0.6905 -0.5814  0.3929
 3352SOL    HW214742   4.854   2.059   8.435 -0.7886  0.2699 -1.6919
 3353SOL     OW14743   7.572   0.409   8.858  0.1857  0.2571 -0.4162
 3353SOL    HW114744   7.569   0.374   8.769 -1.3340  0.8588 -0.6338
 3353SOL    HW214745   7.665   0.423   8.875  0.6428 -1.4377 -1.2675
 3354SOL     OW14746   5.649   3.813   5.675 -0.1019  0.3813 -0.5476
 3354SOL    HW114747   5.642   3.776   5.763  2.1072 -1.2198 -0.9449
 3354SOL    HW214748   5.566   3.790   5.633 -1.6253  2.0360  1.3155
 3355SOL     OW14749   0.070   7.887   2.910  0.0654 -0.0900  0.0565
 3355SOL    HW114750   0.133   7.904   2.841 -0.4317 -1.7753 -0.8710
 3355SOL    HW214751  -0.008   7.855   2.864 -0.4985 -0.6423  1.3429
 3356SOL     OW14752   2.174  10.673   8.966  0.0686 -0.1158  0.3398
 3356SOL    HW114753   2.080  10.663   8.983 -0.2672  1.2994 -0.4228
 3356SOL    HW214754   2.188  10.768   8.970  1.8331 -0.4060  2.1278
 3357SOL     OW14755   9.422   6.015  10.812 -0.1959 -0.0378 -0.2818
 3357SOL    HW114756   9.461   6.101  10.791 -1.4022  0.4797 -0.4844
 3357SOL    HW214757   9.421   6.012  10.907 -0.8968  0.5350 -0.2642
 3358SOL     OW14758  11.891   9.936   2.281  0.2156 -0.4154 -0.2996
 3358SOL    HW114759  11.923  10.024   2.262 -2.9998  0.8409 -0.6033
 3358SOL    HW214760  11.906   9.887   2.201  0.5959  0.3227 -0.6887
 3359SOL     OW14761   8.932   1.288   1.215 -0.4288 -0.6396  0.5996
 3359SOL    HW114762   8.851   1.295   1.165  0.2693  1.2382 -0.3424
 3359SOL    HW214763   8.945   1.375   1.252  1.0460 -0.9791  0.9166
 3360SOL     OW14764   3.112  10.163   0.273  0.1827  0.0563 -0.2683
 3360SOL    HW114765   3.099  10.128   0.185  0.1424 -0.3011 -0.1223
 3360SOL    HW214766   3.039  10.224   0.286  0.6208  0.6898 -0.7718
 3361SOL     OW14767   9.174  11.751   3.004  0.6032  0.1793 -0.2287
 3361SOL    HW114768   9.153  11.714   2.919 -0.0936  2.3124 -1.0635
 3361SOL    HW214769   9.125  11.697   3.067 -0.0702 -0.5173 -1.3181
 3362SOL     OW14770   2.962   9.342   9.024 -0.7911  0.5900 -0.1420
 3362SOL    HW114771   3.033   9.278   9.033 -0.6254  0.6419 -1.0032
 3362SOL    HW214772   3.006   9.427   9.029 -0.5525  0.6307 -2.2168
 3363SOL     OW14773   0.266   4.195   8.784 -0.2186 -0.0912  0.1482
 3363SOL    HW114774   0.350   4.241   8.792 -0.1757 -0.0655 -0.4307
 3363SOL    HW214775   0.250   4.189   8.690 -1.1736  0.4640  0.2610
 3364SOL     OW14776   0.510   7.556   7.650  0.3284  0.4759 -0.0897
 3364SOL    HW114777   0.421   7.592   7.647  0.0129 -0.3426 -1.7979
 3364SOL    HW214778   0.538   7.554   7.559  2.1107  0.6771  0.4162
 3365SOL     OW14779   9.628  10.448  10.062 -0.2728  0.3525  0.4119
 3365SOL    HW114780   9.648  10.539  10.086 -2.1848  1.3496 -1.4151
 3365SOL    HW214781   9.578  10.414  10.135 -0.3805  1.1064  0.6959
 3366SOL     OW14782   3.450   2.266   6.391 -0.2676  0.0204  0.6808
 3366SOL    HW114783   3.468   2.265   6.485 -0.6139  0.7868  0.7582
 3366SOL    HW214784   3.536   2.271   6.350 -0.1252 -0.1142  0.9596
 3367SOL     OW14785  10.854   7.426   4.298  0.1630  0.0133  0.1702
 3367SOL    HW114786  10.874   7.423   4.204  0.2117  0.1490  0.1748
 3367SOL    HW214787  10.919   7.486   4.333  2.6048 -2.8152  0.9061
 3368SOL     OW14788   3.775   4.322  11.288  0.4228 -0.0187 -0.2054
 3368SOL    HW114789   3.793   4.263  11.215  3.9569 -1.0642  1.2851
 3368SOL    HW214790   3.794   4.409  11.253 -0.4101 -0.2164 -1.1931
 3369SOL     OW14791   6.098   0.620   2.709  0.3137  0.1260  0.6035
 3369SOL    HW114792   6.127   0.633   2.619  1.6036  0.7729  1.0761
 3369SOL    HW214793   6.110   0.527   2.725  1.6367  0.2776  0.5911
 3370SOL     OW14794   4.922   0.002  10.478  0.2089 -0.3281 -0.3382
 3370SOL    HW114795   4.940   0.057  10.554  0.0749  0.0445 -0.5729
 3370SOL    HW214796   5.007  -0.037  10.456  0.0894 -1.0879  0.5038
 3371SOL     OW14797   7.820   5.797  11.720  0.6401  0.1512 -0.3938
 3371SOL    HW114798   7.900   5.788  11.668  2.0575 -1.1873  1.8848
 3371SOL    HW214799   7.840   5.755  11.803 -1.7209  1.6914  1.0712
 3372SOL     OW14800   3.874  10.481   2.822  0.5537 -0.2194  0.7020
 3372SOL    HW114801   3.887  10.519   2.736  0.1852 -0.4074  0.5621
 3372SOL    HW214802   3.783  10.501   2.844  0.6377 -0.1907  1.0389
 3373SOL     OW14803  10.545   0.726   1.774  0.4893  0.0082 -0.1310
 3373SOL    HW114804  10.604   0.781   1.825  0.2997 -0.4619  0.6085
 3373SOL    HW214805  10.583   0.725   1.686  0.9435  0.6461  0.0490
 3374SOL     OW14806  11.157   1.845   5.575 -0.3809 -0.6912  0.1123
 3374SOL    HW114807  11.233   1.788   5.567  0.4395  0.2668  0.7465
 3374SOL    HW214808  11.093   1.794   5.626  0.4061 -0.9772  0.8352
 3375SOL     OW14809   5.207   0.245   9.037  0.3901 -0.5749 -0.1769
 3375SOL    HW114810   5.222   0.172   9.097  1.4110 -0.6689 -0.5311
 3375SOL    HW214811   5.284   0.247   8.981  0.4605  0.8719 -0.0867
 3376SOL     OW14812   1.551   6.210   7.853  0.4696  0.1604 -0.5378
 3376SOL    HW114813   1.587   6.127   7.883 -1.1959 -0.9212 -1.3572
 3376SOL    HW214814   1.627   6.260   7.823  1.4488 -1.3400 -0.6729
 3377SOL     OW14815   2.938   4.197   4.566  0.7836  0.2274 -0.1998
 3377SOL    HW114816   2.888   4.278   4.580  1.1103  0.3351  0.3958
 3377SOL    HW214817   3.029   4.224   4.574  0.9234 -0.0484 -0.8508
 3378SOL     OW14818   2.683   8.480   6.078 -0.5915 -0.5335  0.2812
 3378SOL    HW114819   2.728   8.560   6.053 -0.3943 -0.0115  2.1614
 3378SOL    HW214820   2.603   8.510   6.121 -0.9194 -1.3699  0.2725
 3379SOL     OW14821  10.671   2.694   1.375 -0.1325  0.4518  0.1961
 3379SOL    HW114822  10.647   2.652   1.457  1.4213 -2.5264 -0.7325
 3379SOL    HW214823  10.761   2.724   1.388  0.5315 -1.0240 -0.6684
 3380SOL     OW14824   8.657  11.650   1.985 -0.2843  0.3786 -0.4331
 3380SOL    HW114825   8.672  11.603   1.902  1.2671  0.3149 -0.1496
 3380SOL    HW214826   8.581  11.705   1.968 -0.5345 -0.2903 -1.6155
 3381SOL     OW14827   6.356   8.077  10.946 -0.1150  0.0177 -0.4603
 3381SOL    HW114828   6.308   7.995  10.958 -0.8695  0.2745 -1.6497
 3381SOL    HW214829   6.377   8.104  11.036  1.7165 -2.3507 -0.0720
 3382SOL     OW14830   4.962   6.203   3.894  0.0026  0.3340 -0.4207
 3382SOL    HW114831   4.961   6.177   3.986 -0.9689  0.1430 -0.4795
 3382SOL    HW214832   4.994   6.293   3.896 -1.2961  0.8060  0.2444
 3383SOL     OW14833   4.173   3.575   7.290 -0.4919 -0.1038 -0.2077
 3383SOL    HW114834   4.208   3.511   7.353 -0.8781 -1.1196 -0.9882
 3383SOL    HW214835   4.248   3.598   7.235 -0.3950 -0.0304 -0.0463
 3384SOL     OW14836  10.468   0.665  11.946 -0.1374 -0.3124  0.2190
 3384SOL    HW114837  10.464   0.571  11.930 -0.1198 -0.3557  0.4658
 3384SOL    HW214838  10.449   0.705  11.861 -0.8034 -0.5325  0.2589
 3385SOL     OW14839   8.151   0.610  10.247  0.3053  0.0215 -0.0019
 3385SOL    HW114840   8.225   0.587  10.302 -0.0221 -3.8276 -0.9012
 3385SOL    HW214841   8.074   0.587  10.300 -0.3609  3.0286  0.5347
 3386SOL     OW14842   9.528  11.425   5.375  0.3561  0.5583 -0.0876
 3386SOL    HW114843   9.561  11.514   5.370  2.5496 -0.1474  0.8103
 3386SOL    HW214844   9.550  11.386   5.290  0.3851  0.5466 -0.0746
 3387SOL     OW14845   3.555  11.796   0.136  0.1912  0.2375 -0.2338
 3387SOL    HW114846   3.515  11.839   0.212  1.1698 -0.0882  0.4897
 3387SOL    HW214847   3.488  11.735   0.105 -0.2181  0.3743  0.3664
 3388SOL     OW14848  10.915  11.303   4.883 -0.7383  0.0412 -0.3392
 3388SOL    HW114849  10.834  11.327   4.929 -0.8701  0.8824 -0.9821
 3388SOL    HW214850  10.980  11.365   4.916 -0.6975  0.2727 -0.8393
 3389SOL     OW14851   8.518  11.288   1.072 -0.2165 -0.0501 -0.4780
 3389SOL    HW114852   8.515  11.300   1.167  0.4098 -0.4439 -0.4012
 3389SOL    HW214853   8.521  11.376   1.036  0.6849  0.0928 -0.0790
 3390SOL     OW14854  10.686   1.478   2.323 -0.3715 -0.1987  0.2235
 3390SOL    HW114855  10.762   1.427   2.293 -0.8045 -0.5959 -0.2313
 3390SOL    HW214856  10.719   1.532   2.394  0.4153 -0.1265 -0.1918
 3391SOL     OW14857   0.493   1.198   3.245  0.5694  0.3689 -0.3188
 3391SOL    HW114858   0.512   1.281   3.289  0.9980  0.0528  0.1027
 3391SOL    HW214859   0.572   1.178   3.195  0.6161  0.0132 -0.1031
 3392SOL     OW14860   4.454   9.342   2.861  0.4008  0.3271 -0.1064
 3392SOL    HW114861   4.368   9.342   2.820  0.5851  0.5331 -0.5021
 3392SOL    HW214862   4.514   9.367   2.791  0.8783 -0.5484 -0.0228
 3393SOL     OW14863  10.790  11.912   1.256 -0.2989  0.4351  0.0461
 3393SOL    HW114864  10.771  11.822   1.228 -1.1982  0.7731 -0.4364
 3393SOL    HW214865  10.758  11.916   1.346 -1.2154  0.5723 -0.2799
 3394SOL     OW14866   8.800   4.776  11.691 -0.0531  0.3233  0.1915
 3394SOL    HW114867   8.843   4.804  11.610  0.4814  0.9290  0.6723
 3394SOL    HW214868   8.814   4.681  11.695 -0.0063  0.3056 -0.3791
 3395SOL     OW14869   1.698   4.828  11.834 -0.1792  0.8328 -0.8884
 3395SOL    HW114870   1.737   4.893  11.776  0.2652  1.6590  0.3095
 3395SOL    HW214871   1.747   4.748  11.816  1.9563  1.7775  0.3782
 3396SOL     OW14872   9.275   3.412   6.870 -0.0656  0.5945  0.4539
 3396SOL    HW114873   9.236   3.352   6.807  1.4469  0.5734 -0.5127
 3396SOL    HW214874   9.368   3.411   6.850  0.3522  1.2196  2.1819
 3397SOL     OW14875   6.926   5.208   5.186 -0.2793 -0.5017  0.0300
 3397SOL    HW114876   6.949   5.155   5.262  0.7233  0.9799  0.8244
 3397SOL    HW214877   6.831   5.197   5.177 -0.2964 -1.3302  1.0083
 3398SOL     OW14878   5.255  11.439   3.940 -0.0459  0.0512  0.1733
 3398SOL    HW114879   5.341  11.456   3.977  0.4331 -1.2519 -0.2769
 3398SOL    HW214880   5.219  11.367   3.993 -1.0681  0.8870  0.6551
 3399SOL     OW14881   8.749   2.150   1.402 -0.1495  0.3501 -0.1536
 3399SOL    HW114882   8.723   2.190   1.319 -0.7942 -0.7680 -0.5183
 3399SOL    HW214883   8.844   2.158   1.404 -0.1611  0.7313 -0.8311
 3400SOL     OW14884  10.157  11.724   2.112 -0.0780 -0.0417  0.0988
 3400SOL    HW114885  10.083  11.664   2.120 -1.2262  1.2730 -0.1251
 3400SOL    HW214886  10.213  11.704   2.186 -1.1688 -0.4273  0.8504
 3401SOL     OW14887   5.257   6.359  11.238 -0.4031  0.3630 -0.7537
 3401SOL    HW114888   5.207   6.280  11.218 -1.3870  1.1080 -1.3733
 3401SOL    HW214889   5.289   6.346  11.326 -2.2579  0.0876 -0.0649
 3402SOL     OW14890   6.028   9.604   3.469 -0.7263 -0.4076  0.1222
 3402SOL    HW114891   6.015   9.591   3.563  1.0634 -0.4237  0.3924
 3402SOL    HW214892   5.955   9.557   3.429 -1.6877 -0.1579  1.4987
 3403SOL     OW14893   3.471   0.931  11.940  0.0889 -0.1832 -0.0082
 3403SOL    HW114894   3.553   0.971  11.910 -0.2342 -0.2397 -0.9727
 3403SOL    HW214895   3.410   1.005  11.949  0.3235 -0.0950  1.0363
 3404SOL     OW14896   5.607  11.270   3.661 -0.7380 -0.1940 -0.1936
 3404SOL    HW114897   5.648  11.315   3.587  0.3608  0.8726  1.0223
 3404SOL    HW214898   5.625  11.177   3.646 -0.9583 -0.0449 -1.4966
 3405SOL     OW14899   8.597   1.400   4.783  0.7761  0.0527 -0.2768
 3405SOL    HW114900   8.548   1.318   4.783  1.7876 -0.5721 -0.2264
 3405SOL    HW214901   8.652   1.395   4.861 -0.2282  1.4665  0.5709
 3406SOL     OW14902   6.362   2.971   7.515  0.2120 -0.2200  0.0767
 3406SOL    HW114903   6.391   3.061   7.531  1.6033 -0.7357  0.6081
 3406SOL    HW214904   6.438   2.928   7.475 -0.4376 -1.1656 -0.1727
 3407SOL     OW14905   8.012   2.506   0.762  0.2287  0.4737  0.1687
 3407SOL    HW114906   7.944   2.538   0.702 -0.2355  1.1863  1.0588
 3407SOL    HW214907   8.094   2.522   0.715  0.0191  2.9367  0.5194
 3408SOL     OW14908   4.279   9.799   7.406 -0.1892  0.5458 -0.2352
 3408SOL    HW114909   4.212   9.864   7.382 -0.6704  1.2310  2.6198
 3408SOL    HW214910   4.338   9.846   7.465  0.5369 -1.1293  0.4198
 3409SOL     OW14911   4.908   0.928   5.562  0.2415  0.0579  0.2414
 3409SOL    HW114912   4.894   0.957   5.652 -3.8670 -1.6929  0.3696
 3409SOL    HW214913   4.906   1.008   5.510  0.9875  0.9320  1.4880
 3410SOL     OW14914   0.843   5.754   9.619 -0.5912  0.3772  0.7465
 3410SOL    HW114915   0.938   5.769   9.616 -0.4223 -0.5199  1.3998
 3410SOL    HW214916   0.806   5.839   9.596  0.3677  0.3917 -0.9484
 3411SOL     OW14917   9.821   0.587   9.547 -0.1773 -0.1067 -0.5139
 3411SOL    HW114918   9.727   0.580   9.530 -0.1890 -0.8308 -0.1858
 3411SOL    HW214919   9.861   0.570   9.461 -0.3612  1.2321 -0.8839
 3412SOL     OW14920   1.730   8.218   7.993 -0.1833  0.0581 -0.0885
 3412SOL    HW114921   1.656   8.163   7.969 -0.9229  1.0355 -0.1084
 3412SOL    HW214922   1.778   8.230   7.912 -1.1440  1.0817 -0.5266
 3413SOL     OW14923   3.508   6.070   1.859 -0.1036  0.4731  0.1765
 3413SOL    HW114924   3.567   6.076   1.934  1.3672  0.0485 -0.8949
 3413SOL    HW214925   3.532   6.145   1.804 -0.7841  0.4735 -0.1229
 3414SOL     OW14926  11.628   1.438   5.127 -0.7762 -0.1538 -0.1592
 3414SOL    HW114927  11.576   1.473   5.055  0.5096  0.3016 -0.9011
 3414SOL    HW214928  11.711   1.412   5.086 -0.6107 -1.3711  0.8843
 3415SOL     OW14929   8.311   5.353  11.606  0.9878 -1.2211  0.0333
 3415SOL    HW114930   8.234   5.309  11.568  1.0615 -3.6105  2.3300
 3415SOL    HW214931   8.278   5.438  11.636 -0.0865 -1.1207 -1.3478
 3416SOL     OW14932   6.347   2.776  10.760  0.2025  0.2465 -0.0544
 3416SOL    HW114933   6.319   2.704  10.817  0.7609 -0.0990 -0.2165
 3416SOL    HW214934   6.434   2.750  10.729  0.5606  1.1429  0.1621
 3417SOL     OW14935   6.366   3.587   6.810  0.1282  0.3387 -0.3300
 3417SOL    HW114936   6.329   3.580   6.722 -0.5319  1.7494 -0.1977
 3417SOL    HW214937   6.293   3.619   6.863  0.4113 -0.8704  0.8138
 3418SOL     OW14938   4.572   9.172   4.971  0.4624  0.5589  0.0057
 3418SOL    HW114939   4.570   9.187   4.877 -0.2456 -1.7793 -0.4326
 3418SOL    HW214940   4.664   9.158   4.991  0.5321  0.2769 -0.4957
 3419SOL     OW14941   4.327   4.790   8.942  0.2426  0.2189  0.2007
 3419SOL    HW114942   4.279   4.812   8.861  0.0015  0.8619  0.5101
 3419SOL    HW214943   4.417   4.816   8.923  0.2856 -0.0917 -0.0353
 3420SOL     OW14944   9.398   7.703   5.127  0.2005  0.2965 -0.0057
 3420SOL    HW114945   9.464   7.684   5.195  0.5396  0.5093 -0.2719
 3420SOL    HW214946   9.314   7.687   5.170  0.4383 -0.5738  0.1608
 3421SOL     OW14947   3.471   9.092   6.580  0.1128  0.4739 -0.2572
 3421SOL    HW114948   3.433   9.005   6.567  0.2503  0.2907  0.5350
 3421SOL    HW214949   3.395   9.151   6.580 -0.4645 -0.0529  2.9229
 3422SOL     OW14950   3.401  10.014   3.174 -0.2120  0.3377  0.2078
 3422SOL    HW114951   3.399   9.925   3.137 -1.9000 -0.7416  2.6521
 3422SOL    HW214952   3.332  10.014   3.240  1.8459  2.4726  2.5348
 3423SOL     OW14953   9.040   7.421   7.429 -0.0301  0.2433  0.4259
 3423SOL    HW114954   9.106   7.385   7.488 -2.1699 -0.3731  2.5418
 3423SOL    HW214955   8.980   7.469   7.485 -0.8940  1.6602 -1.5694
 3424SOL     OW14956   4.263   9.863   3.779  0.2480  0.4674 -0.1732
 3424SOL    HW114957   4.270   9.769   3.799  0.5080  0.2514 -1.2354
 3424SOL    HW214958   4.175   9.873   3.743 -0.1244  0.8137  0.7861
 3425SOL     OW14959   3.452   1.474   8.973 -0.2574  0.3757  0.3364
 3425SOL    HW114960   3.407   1.482   8.889 -0.3187 -0.5247  0.2711
 3425SOL    HW214961   3.403   1.405   9.019  0.8479 -0.3985  0.3921
 3426SOL     OW14962   6.634   7.772   8.817 -0.1392  0.1551 -0.3271
 3426SOL    HW114963   6.642   7.714   8.893  0.2452 -0.5698 -0.9080
 3426SOL    HW214964   6.680   7.852   8.844  0.1413 -0.1569  0.1460
 3427SOL     OW14965   6.922   0.525   3.895 -0.0056  0.8681 -0.1471
 3427SOL    HW114966   6.904   0.513   3.989 -0.3873 -0.8946 -0.4026
 3427SOL    HW214967   6.836   0.526   3.854  0.2069 -0.1273 -0.6388
 3428SOL     OW14968  10.061   3.812   9.440 -0.1548 -0.4330 -0.0376
 3428SOL    HW114969  10.038   3.876   9.373 -1.4271  0.4533  1.2132
 3428SOL    HW214970   9.992   3.745   9.435 -1.1170  0.4127  1.3568
 3429SOL     OW14971   7.853   6.339   3.999 -0.4651 -0.0480 -0.2295
 3429SOL    HW114972   7.926   6.377   3.951 -1.2484 -0.2946 -1.6791
 3429SOL    HW214973   7.781   6.401   3.988 -0.0782  1.0929  2.6655
 3430SOL     OW14974   6.282   9.047   9.070  0.5983 -0.6202  0.9891
 3430SOL    HW114975   6.333   8.973   9.103  0.0115 -0.6578  1.8395
 3430SOL    HW214976   6.192   9.027   9.095  0.2660 -0.1663  0.2087
 3431SOL     OW14977   2.005  10.329   1.389  0.3830 -0.1489  0.0305
 3431SOL    HW114978   1.991  10.283   1.306 -0.3742  0.3066 -0.1026
 3431SOL    HW214979   2.084  10.289   1.425  2.7327  1.8238 -2.4911
 3432SOL     OW14980  10.076   2.432   9.312 -0.5883 -0.0070  0.2255
 3432SOL    HW114981  10.126   2.511   9.292  0.3024 -0.1942  1.5308
 3432SOL    HW214982  10.112   2.365   9.253 -0.4033  0.2469  0.0513
 3433SOL     OW14983   5.988   7.597  10.471 -0.3736  0.1418  0.3949
 3433SOL    HW114984   5.896   7.594  10.444 -0.3028  0.3250  0.1331
 3433SOL    HW214985   6.011   7.505  10.488  0.2352 -0.2865 -2.3625
 3434SOL     OW14986   9.783  10.911  10.342 -0.1230 -0.0075 -0.0905
 3434SOL    HW114987   9.810  10.909  10.434 -0.1247 -0.1109 -0.0924
 3434SOL    HW214988   9.864  10.922  10.293  0.1187 -1.8723 -0.1955
 3435SOL     OW14989   8.570   5.460   9.266  0.1435 -0.2541 -0.0894
 3435SOL    HW114990   8.651   5.489   9.225  0.5274 -0.7561  0.3131
 3435SOL    HW214991   8.552   5.375   9.226 -0.0653 -0.2451 -0.0175
 3436SOL     OW14992   7.132   4.232  10.224  0.5908 -0.6792  0.5659
 3436SOL    HW114993   7.209   4.266  10.179  0.8055 -1.2501  0.4852
 3436SOL    HW214994   7.167   4.175  10.292  0.2807  0.6619  1.8743
 3437SOL     OW14995   2.614   5.091   9.644 -0.0567 -0.0737  0.9353
 3437SOL    HW114996   2.696   5.106   9.691  1.0351  1.7970 -1.3604
 3437SOL    HW214997   2.612   5.160   9.578 -2.0142 -1.9089 -1.0465
 3438SOL     OW14998  10.571   9.354   6.368 -0.4889 -0.4367 -0.4271
 3438SOL    HW114999  10.529   9.403   6.297  0.8701  1.5032  0.0024
 3438SOL    HW215000  10.500   9.328   6.425 -1.2793  1.4245 -0.4872
 3439SOL     OW15001   6.184   8.276   2.272 -0.6507 -0.0710 -0.2382
 3439SOL    HW115002   6.256   8.272   2.335  2.7661  0.6536 -3.7138
 3439SOL    HW215003   6.155   8.185   2.264 -0.9394 -0.2299  1.9924
 3440SOL     OW15004   2.575   2.939   6.735  0.4013  0.2099 -0.1810
 3440SOL    HW115005   2.656   2.906   6.695  0.6427 -0.5510  0.8835
 3440SOL    HW215006   2.528   2.981   6.663  0.2841 -2.0909 -1.5569
 3441SOL     OW15007   2.067  11.148   5.246  0.1989  0.2370  0.1221
 3441SOL    HW115008   2.004  11.089   5.204 -1.4096  1.8345  0.1846
 3441SOL    HW215009   2.141  11.092   5.268 -0.3317 -1.3282 -1.7781
 3442SOL     OW15010   2.013  11.915   4.856 -0.4415 -0.0057 -0.2828
 3442SOL    HW115011   2.039  11.991   4.804 -0.8275 -1.3157 -2.4799
 3442SOL    HW215012   1.918  11.920   4.860 -0.3562  1.0622  1.9390
 3443SOL     OW15013   8.835   7.642  10.838 -0.1022  0.4339 -0.5646
 3443SOL    HW115014   8.757   7.681  10.878  0.7596  3.8231 -1.8949
 3443SOL    HW215015   8.823   7.654  10.744  1.5316 -0.0556 -0.8660
 3444SOL     OW15016   6.684   7.592   1.231 -0.2045  0.0575 -0.1398
 3444SOL    HW115017   6.593   7.595   1.262  0.0710  1.4919  0.6387
 3444SOL    HW215018   6.684   7.525   1.162 -1.6070 -0.7290  0.5775
 3445SOL     OW15019   6.621   0.900  11.980  0.3762  0.0806 -0.0442
 3445SOL    HW115020   6.549   0.951  12.018  0.2935  0.1035 -0.2275
 3445SOL    HW215021   6.700   0.946  12.009  0.2769  1.1725 -1.3590
 3446SOL     OW15022  10.584   2.531   1.606 -0.0301  0.1999  0.5267
 3446SOL    HW115023  10.569   2.439   1.587 -1.7773  0.4141  0.7747
 3446SOL    HW215024  10.508   2.576   1.570 -0.5618  1.2614  2.8261
 3447SOL     OW15025   1.706   5.304   8.141  0.2992  0.1455  0.2761
 3447SOL    HW115026   1.674   5.251   8.213 -1.1746  0.3266 -0.2090
 3447SOL    HW215027   1.708   5.393   8.176  0.9978  0.0375  0.5266
 3448SOL     OW15028   1.661   5.974   7.503 -0.3018 -0.2420  0.8318
 3448SOL    HW115029   1.755   5.956   7.503 -0.1490  0.4977  1.3000
 3448SOL    HW215030   1.628   5.928   7.581 -0.3570 -0.6399  0.5736
 3449SOL     OW15031   4.730   2.023   8.588  0.1695  0.4863  0.0568
 3449SOL    HW115032   4.639   2.050   8.598 -0.0843  0.3940 -1.6825
 3449SOL    HW215033   4.725   1.932   8.561  0.7514  0.6667 -0.6703
 3450SOL     OW15034   0.330   6.196  11.354  0.4161 -0.2265  0.0218
 3450SOL    HW115035   0.317   6.109  11.315 -1.7011  0.3349 -0.6732
 3450SOL    HW215036   0.384   6.243  11.291  2.1352 -1.2086  0.7130
 3451SOL     OW15037   8.252   0.012   8.313  0.0954  0.0282 -0.2140
 3451SOL    HW115038   8.192  -0.019   8.381 -0.6401  1.1807 -0.3003
 3451SOL    HW215039   8.337   0.019   8.357 -0.2768  0.3295  0.4687
 3452SOL     OW15040   5.665  11.910   8.791 -0.4237 -0.0613  0.4353
 3452SOL    HW115041   5.654  11.889   8.699 -0.2474  0.3910  0.3080
 3452SOL    HW215042   5.584  11.881   8.833 -0.7798  0.3374  0.0305
 3453SOL     OW15043   0.566   3.957   8.394 -0.3228 -0.1457  0.4657
 3453SOL    HW115044   0.621   3.905   8.453 -1.7738 -1.9418  0.3252
 3453SOL    HW215045   0.544   4.035   8.444  0.8819 -0.2327  1.1762
 3454SOL     OW15046   5.609   4.621   2.816 -0.3285  0.4246 -0.1429
 3454SOL    HW115047   5.515   4.633   2.810 -0.3955 -0.2969 -0.6511
 3454SOL    HW215048   5.646   4.697   2.771 -0.6767  0.3313 -0.5825
 3455SOL     OW15049   5.745   4.933   5.440 -0.2764 -0.1970  0.2795
 3455SOL    HW115050   5.778   4.944   5.530  1.1188  0.4383 -0.2677
 3455SOL    HW215051   5.790   4.855   5.408  0.1331  0.2483 -0.2410
 3456SOL     OW15052   9.056   3.424   1.366  0.1345  0.2875 -0.6437
 3456SOL    HW115053   9.105   3.499   1.398  0.1372  0.5554 -1.2835
 3456SOL    HW215054   9.091   3.406   1.279  0.2299 -0.5423 -0.4463
 3457SOL     OW15055  10.561   4.085   4.424  0.1403  0.1841 -0.6851
 3457SOL    HW115056  10.485   4.121   4.377  0.9818  1.0503 -1.4291
 3457SOL    HW215057  10.635   4.106   4.368  1.0015 -0.1359  0.3100
 3458SOL     OW15058  10.653   4.329   7.150 -0.2285 -0.1115 -0.0080
 3458SOL    HW115059  10.632   4.245   7.189 -0.1706  0.5899  1.6010
 3458SOL    HW215060  10.685   4.307   7.062  1.2030 -1.8835  0.8935
 3459SOL     OW15061   6.894   7.127   9.519  0.2630  0.1235  0.0218
 3459SOL    HW115062   6.808   7.165   9.537  0.1791  0.5705 -1.2262
 3459SOL    HW215063   6.885   7.036   9.546 -1.2158 -0.3163 -1.6984
 3460SOL     OW15064   9.781   4.210   4.751  0.2330  0.2390  0.0546
 3460SOL    HW115065   9.736   4.138   4.707  2.2090 -1.3337  0.4649
 3460SOL    HW215066   9.870   4.207   4.716  0.4645  2.2643  0.3735
 3461SOL     OW15067  10.260  10.236   4.778  0.1495  0.3110 -0.1225
 3461SOL    HW115068  10.349  10.200   4.777 -0.5170 -1.4870 -1.0620
 3461SOL    HW215069  10.204  10.160   4.760 -1.7200  1.0772  2.0239
 3462SOL     OW15070   1.699  11.260   1.939  0.5178  0.5233  0.1636
 3462SOL    HW115071   1.617  11.210   1.945  0.5326  0.5938  1.1030
 3462SOL    HW215072   1.749  11.215   1.871  0.5001 -0.7181  0.9255
 3463SOL     OW15073   6.695   2.326   8.492 -0.3393 -0.1101  0.5933
 3463SOL    HW115074   6.626   2.357   8.434 -0.1237  1.2248  1.0134
 3463SOL    HW215075   6.715   2.401   8.548  1.4184 -0.4648  0.5126
 3464SOL     OW15076   2.716   5.830   5.339 -0.5093 -0.1869  0.4506
 3464SOL    HW115077   2.752   5.895   5.400  0.3274  0.8506 -1.0628
 3464SOL    HW215078   2.640   5.873   5.300  0.0631 -0.0724 -0.5802
 3465SOL     OW15079  11.399  10.942   9.598  0.8813  0.0258  0.2113
 3465SOL    HW115080  11.328  10.944   9.534  0.3158  2.4186  0.7903
 3465SOL    HW215081  11.467  10.887   9.558 -0.5999 -0.9500 -1.0948
 3466SOL     OW15082  11.465   8.602   8.637 -0.2236 -0.4526  0.3150
 3466SOL    HW115083  11.508   8.589   8.721 -0.0634 -0.9946  0.1485
 3466SOL    HW215084  11.493   8.689   8.609 -2.9606  1.2706  2.4193
 3467SOL     OW15085   0.842   0.727   1.600 -0.2001 -0.2699  0.6781
 3467SOL    HW115086   0.779   0.727   1.528 -0.6490  0.9992  1.0573
 3467SOL    HW215087   0.797   0.681   1.671 -0.7475  0.6952  0.9715
 3468SOL     OW15088  10.953   6.898   7.389 -0.4198 -0.1090  0.4455
 3468SOL    HW115089  10.862   6.918   7.408 -0.4526  0.4369 -0.2818
 3468SOL    HW215090  10.996   6.902   7.475 -0.5321  2.5182  0.4524
 3469SOL     OW15091   3.242  10.243   4.333  0.4238  0.2357  0.8226
 3469SOL    HW115092   3.184  10.283   4.267 -0.1113 -0.3541  0.9208
 3469SOL    HW215093   3.330  10.262   4.302  0.2175  2.4410  1.4524
 3470SOL     OW15094   0.147   8.931   7.877  0.0313  0.1156 -0.8242
 3470SOL    HW115095   0.146   8.970   7.965 -0.5790  0.7180 -1.0881
 3470SOL    HW215096   0.200   8.852   7.887  0.6729  0.6161 -0.1023
 3471SOL     OW15097   7.681   2.032   4.349 -0.0892 -0.0184 -0.0841
 3471SOL    HW115098   7.622   2.046   4.423 -0.5863  2.0328 -0.8103
 3471SOL    HW215099   7.629   1.981   4.287  0.6865 -2.7416  1.3137
 3472SOL     OW15100   5.828   1.834   9.336  0.2219  0.4753 -0.0550
 3472SOL    HW115101   5.814   1.878   9.420  1.0940  0.8624 -0.1033
 3472SOL    HW215102   5.741   1.830   9.296 -0.5852 -1.4281  1.6733
 3473SOL     OW15103   3.675   0.036   2.760 -0.1344 -0.1349  0.2538
 3473SOL    HW115104   3.614   0.110   2.752 -1.9820 -1.7144 -1.0785
 3473SOL    HW215105   3.760   0.074   2.739 -0.7435  1.9622  1.2981
 3474SOL     OW15106  10.355   6.753   9.448 -0.0988 -0.1660 -0.1682
 3474SOL    HW115107  10.372   6.721   9.359 -2.3576 -0.1062 -0.6959
 3474SOL    HW215108  10.360   6.675   9.503  2.0362 -0.0941 -0.1795
 3475SOL     OW15109   9.217   8.899   9.238 -0.5285 -0.0121 -0.1432
 3475SOL    HW115110   9.238   8.971   9.297  2.4520  0.3530 -1.4670
 3475SOL    HW215111   9.242   8.820   9.286  0.5618  0.1858 -0.3688
 3476SOL     OW15112   5.221   5.299   7.989  0.0554  0.0750 -0.3324
 3476SOL    HW115113   5.289   5.350   8.033  0.9509  0.3968 -1.9774
 3476SOL    HW215114   5.224   5.214   8.031  1.8631 -0.0777 -0.6657
 3477SOL     OW15115   4.657   2.543   8.109 -0.1476 -0.3520  0.1425
 3477SOL    HW115116   4.689   2.529   8.021  0.1753 -1.0327  0.3616
 3477SOL    HW215117   4.694   2.470   8.160  0.9680  0.8992  1.1759
 3478SOL     OW15118   8.341   8.192   2.059 -0.2069 -0.0615 -0.4165
 3478SOL    HW115119   8.379   8.262   2.007 -1.6355 -0.1816 -1.7082
 3478SOL    HW215120   8.251   8.221   2.077 -0.4992 -1.0995 -0.1000
 3479SOL     OW15121  11.055  10.530   8.484  0.0581  0.2889  0.1507
 3479SOL    HW115122  11.145  10.504   8.503  0.4403  2.6558  2.1455
 3479SOL    HW215123  11.062  10.620   8.452 -1.5107 -0.0345 -1.2406
 3480SOL     OW15124   2.798  10.525   1.040 -0.4146  0.7009 -0.5429
 3480SOL    HW115125   2.857  10.450   1.045 -0.4394  0.7344  0.4110
 3480SOL    HW215126   2.771  10.528   0.948  0.4840  0.2431 -0.8291
 3481SOL     OW15127   0.250   5.756   1.890 -0.1823 -0.2278 -0.4147
 3481SOL    HW115128   0.180   5.733   1.830 -0.7782  1.4723 -0.4377
 3481SOL    HW215129   0.300   5.823   1.843  0.6993 -0.4936  0.1140
 3482SOL     OW15130   1.222   4.529   3.862  0.1097 -0.6534 -0.7191
 3482SOL    HW115131   1.154   4.491   3.806  1.2684 -1.3832 -1.7058
 3482SOL    HW215132   1.220   4.623   3.841 -0.2434 -0.7456 -1.1261
 3483SOL     OW15133   1.062   1.461   7.811 -0.0398  0.2663  0.2859
 3483SOL    HW115134   1.043   1.390   7.872  2.9875 -0.6985  0.2707
 3483SOL    HW215135   1.080   1.536   7.866  0.8849 -0.1238  0.5351
 3484SOL     OW15136   9.037   7.582  11.036 -0.0471  0.0108  0.1084
 3484SOL    HW115137   9.090   7.529  10.977 -1.7001  0.0760 -1.5358
 3484SOL    HW215138   8.972   7.624  10.980 -0.4681  1.6828  1.7254
 3485SOL     OW15139   1.144   6.482   1.314  0.7026 -0.4091 -0.1840
 3485SOL    HW115140   1.211   6.525   1.260  0.1491 -0.0877 -0.6340
 3485SOL    HW215141   1.136   6.538   1.391 -2.7575  2.6649 -2.4472
 3486SOL     OW15142   3.506   4.886   0.309 -0.3506  0.4301 -0.2492
 3486SOL    HW115143   3.476   4.969   0.271  0.0096  0.3172 -0.7947
 3486SOL    HW215144   3.525   4.831   0.233  0.8461  0.3656  0.0757
 3487SOL     OW15145   5.062   4.984   6.846 -0.3382 -0.3208  0.4939
 3487SOL    HW115146   5.039   4.908   6.793  1.4172 -1.0281  0.7063
 3487SOL    HW215147   5.144   5.015   6.810 -0.1556  0.4253  1.5079
 3488SOL     OW15148   1.432   3.443   3.734 -0.1366  0.0687 -0.1789
 3488SOL    HW115149   1.510   3.444   3.790  0.9184  1.2962 -1.5991
 3488SOL    HW215150   1.461   3.481   3.651 -2.2703  0.6384 -0.7304
 3489SOL     OW15151   2.021   0.197   4.203  0.5641  0.0217 -0.1546
 3489SOL    HW115152   1.988   0.264   4.143 -1.2178  1.7225  2.5559
 3489SOL    HW215153   2.075   0.244   4.266  1.0290 -1.4388  0.5975
 3490SOL     OW15154   0.335   1.823   8.028  0.0532  0.0353  0.1892
 3490SOL    HW115155   0.329   1.728   8.023 -0.5115 -0.1416  2.8726
 3490SOL    HW215156   0.373   1.849   7.944 -3.5734 -2.1613 -2.4391
 3491SOL     OW15157   5.456   5.706   4.533  0.4467  0.2720 -0.2689
 3491SOL    HW115158   5.541   5.690   4.493  0.2887 -1.4239  0.0338
 3491SOL    HW215159   5.397   5.724   4.459  0.7751  0.1249 -0.5678
 3492SOL     OW15160   3.024   3.881   7.723  0.0246  0.6935 -0.0468
 3492SOL    HW115161   3.009   3.916   7.811  0.3508 -1.7698  1.0838
 3492SOL    HW215162   2.988   3.792   7.726 -1.7008  1.1516 -3.0310
 3493SOL     OW15163   0.875   3.007   4.808 -0.6136  0.6298  0.0506
 3493SOL    HW115164   0.873   3.100   4.788 -1.4831  0.4445 -0.8220
 3493SOL    HW215165   0.789   2.989   4.846 -0.1079  0.3562  1.1028
 3494SOL     OW15166   1.038   5.390   9.907 -0.3360  0.0081  0.0090
 3494SOL    HW115167   0.970   5.406   9.843  0.5944 -0.3209 -1.0974
 3494SOL    HW215168   1.104   5.457   9.890  0.6385 -1.0321 -0.4430
 3495SOL     OW15169   8.552   2.508   5.808  0.2172  0.4438  0.8623
 3495SOL    HW115170   8.592   2.552   5.734  0.2231  1.0645  1.2266
 3495SOL    HW215171   8.461   2.537   5.806  0.0043 -0.2273  0.5867
 3496SOL     OW15172   4.444   0.163  11.988  0.0619  0.0265  0.5928
 3496SOL    HW115173   4.437   0.126  12.076  0.4601  0.2120  0.7070
 3496SOL    HW215174   4.531   0.136  11.958  0.5715  1.2657  0.8698
 3497SOL     OW15175   1.578   7.413   7.353 -0.2306 -0.1076  0.5482
 3497SOL    HW115176   1.554   7.327   7.387 -0.1054  0.4229  2.0737
 3497SOL    HW215177   1.668   7.427   7.384 -0.1069  0.4205 -0.0183
 3498SOL     OW15178   6.620   4.517   5.883 -0.6065  0.2616 -0.4272
 3498SOL    HW115179   6.532   4.555   5.889  0.0813  1.8627  0.2875
 3498SOL    HW215180   6.638   4.513   5.789 -1.2125  0.5278 -0.5597
 3499SOL     OW15181   1.917   7.952   5.106  0.0857 -0.0914 -0.4896
 3499SOL    HW115182   1.918   8.047   5.096 -0.0069  0.0153  0.4499
 3499SOL    HW215183   1.908   7.918   5.017  2.4904  0.7234 -1.1286
 3500SOL     OW15184   7.380  10.901   9.035 -0.6946 -0.3843  0.0530
 3500SOL    HW115185   7.471  10.878   9.050 -0.3247 -0.0686 -1.4960
 3500SOL    HW215186   7.333  10.818   9.038 -0.2107 -0.6658 -0.0679
 3501SOL     OW15187   5.062   2.476   9.454  0.2662  0.3479 -0.4535
 3501SOL    HW115188   4.988   2.466   9.395  1.0717 -0.6198 -1.3500
 3501SOL    HW215189   5.124   2.531   9.405 -0.4343  2.4280  0.8785
 3502SOL     OW15190   3.189   0.937   7.450  0.3659  0.0780 -0.2356
 3502SOL    HW115191   3.131   1.010   7.474  0.6455  0.3665 -0.4390
 3502SOL    HW215192   3.268   0.952   7.502 -0.3418 -1.2165  1.3099
 3503SOL     OW15193   9.995  10.588   8.072 -0.4557  0.4302  0.9904
 3503SOL    HW115194  10.042  10.664   8.105  0.5053 -0.1295  0.9553
 3503SOL    HW215195   9.911  10.589   8.118  0.7748 -0.2584  3.3902
 3504SOL     OW15196   8.057   2.240   9.990 -0.6128  0.6894  0.5105
 3504SOL    HW115197   8.050   2.220   9.896  4.0786 -0.3281  0.1483
 3504SOL    HW215198   8.024   2.329   9.998 -2.0965  0.4574 -1.8535
 3505SOL     OW15199   1.625   5.563   0.407  0.3763 -0.4985 -0.0589
 3505SOL    HW115200   1.635   5.658   0.412  0.0907 -0.4647 -0.1192
 3505SOL    HW215201   1.654   5.540   0.318  2.3429 -0.7106  0.6053
 3506SOL     OW15202   0.338   3.095   0.644 -0.3313 -0.5399 -0.4796
 3506SOL    HW115203   0.392   3.016   0.635 -2.4393 -2.1589  0.3488
 3506SOL    HW215204   0.401   3.165   0.660  1.5509 -2.2112 -0.1902
 3507SOL     OW15205   4.854   8.388   7.837 -0.0442  0.8468  0.5085
 3507SOL    HW115206   4.886   8.478   7.847 -0.8538  1.1287  0.6050
 3507SOL    HW215207   4.896   8.340   7.909  0.3859  1.1373  0.4598
 3508SOL     OW15208   8.785   1.166  10.770 -0.0557 -0.4783  0.4517
 3508SOL    HW115209   8.877   1.141  10.773  0.0534 -0.2094 -0.4327
 3508SOL    HW215210   8.767   1.180  10.677 -0.7120  0.5016  0.7121
 3509SOL     OW15211   7.268   4.896   2.828 -0.5586  0.1977  0.1168
 3509SOL    HW115212   7.295   4.811   2.792 -1.0994 -0.5384  1.3791
 3509SOL    HW215213   7.300   4.894   2.918 -2.1262  0.5951  0.7022
 3510SOL     OW15214  10.452   9.698   0.839  0.3535 -0.2151 -0.2708
 3510SOL    HW115215  10.435   9.725   0.748 -2.0044 -2.5369 -0.6321
 3510SOL    HW215216  10.539   9.658   0.835  0.7588  0.7003 -1.2544
 3511SOL     OW15217   1.357   5.487   0.415 -0.4243  0.0267  0.1015
 3511SOL    HW115218   1.448   5.517   0.415 -0.7095  1.0519 -1.5896
 3511SOL    HW215219   1.319   5.527   0.494 -0.0306  1.7602 -0.5406
 3512SOL     OW15220   2.165  10.529   3.977  0.1547 -0.4072  0.0974
 3512SOL    HW115221   2.173  10.483   3.893 -0.8734  0.6669 -0.6374
 3512SOL    HW215222   2.082  10.498   4.014  0.3846 -0.5473  0.4949
 3513SOL     OW15223   1.289   3.131   5.694  0.3062 -0.5730  0.6099
 3513SOL    HW115224   1.214   3.121   5.753  0.0164 -0.7720  0.2152
 3513SOL    HW215225   1.348   3.192   5.739 -1.2502  1.6680 -0.1842
 3514SOL     OW15226   5.298   5.407   5.451  0.0176  0.1313  0.0304
 3514SOL    HW115227   5.363   5.337   5.458  0.0739  0.0130 -1.5155
 3514SOL    HW215228   5.310   5.458   5.532 -0.2101 -1.7554  1.3208
 3515SOL     OW15229   4.109   5.552   3.521 -0.4326 -0.0629 -0.2558
 3515SOL    HW115230   4.094   5.645   3.504 -0.8476  0.1405  1.0703
 3515SOL    HW215231   4.163   5.552   3.601  0.1495 -0.9460 -0.6430
 3516SOL     OW15232   9.582   9.829  10.031  0.1295 -0.8396 -0.2362
 3516SOL    HW115233   9.584   9.834   9.935  0.3472 -0.4466 -0.2098
 3516SOL    HW215234   9.528   9.751  10.049 -1.1335 -0.0926 -0.6609
 3517SOL     OW15235   1.366   4.739   8.579  0.9255 -0.2166 -0.3686
 3517SOL    HW115236   1.379   4.834   8.575 -1.3176  0.1797  0.3294
 3517SOL    HW215237   1.366   4.711   8.488  2.6318  0.2449 -0.5504
 3518SOL     OW15238   6.013   7.102  10.465 -0.0607 -0.1066 -0.1521
 3518SOL    HW115239   5.996   7.015  10.501  2.7846 -0.2907  1.0131
 3518SOL    HW215240   5.972   7.163  10.527 -1.0157 -0.5587 -0.3248
 3519SOL     OW15241   0.046   0.009   9.523 -0.3294  0.4610 -0.1373
 3519SOL    HW115242  -0.034  -0.043   9.517 -0.1488  0.2439 -0.7400
 3519SOL    HW215243   0.032   0.082   9.462 -0.0887  0.4529 -0.2022
 3520SOL     OW15244   9.560   1.633  10.412  0.4169 -0.5302 -0.4280
 3520SOL    HW115245   9.502   1.692  10.462  1.0267 -0.4601  0.2124
 3520SOL    HW215246   9.630   1.611  10.473  0.7555 -1.0919 -1.0060
 3521SOL     OW15247   9.726   9.202   0.744  0.6416 -0.0107 -0.2550
 3521SOL    HW115248   9.800   9.254   0.714  0.9781  0.0898  0.7013
 3521SOL    HW215249   9.649   9.252   0.718  0.6564 -1.7392 -4.4143
 3522SOL     OW15250   2.666   4.362   4.922  0.1382 -0.0226  0.0327
 3522SOL    HW115251   2.642   4.324   4.837  0.3741 -1.3202  0.5305
 3522SOL    HW215252   2.603   4.433   4.935 -3.3947 -3.0476  1.1513
 3523SOL     OW15253   9.669   6.573   9.632 -0.0191 -0.3626 -0.3341
 3523SOL    HW115254   9.630   6.539   9.712  2.5874 -3.7163 -0.2481
 3523SOL    HW215255   9.617   6.534   9.562  0.1411 -0.7487 -0.2409
 3524SOL     OW15256  10.301   9.248   4.555 -0.4271 -0.4225 -0.2696
 3524SOL    HW115257  10.269   9.229   4.466  2.6772  1.9178 -2.0935
 3524SOL    HW215258  10.266   9.334   4.575  0.2593 -0.1975  0.0032
 3525SOL     OW15259   8.997   6.329   6.586 -0.1920 -0.4254  0.1545
 3525SOL    HW115260   8.930   6.285   6.534  0.2284 -0.1475 -0.6321
 3525SOL    HW215261   9.074   6.333   6.529 -0.5997  2.4982 -0.3359
 3526SOL     OW15262  10.807  11.744   5.572 -0.2594  0.4749  0.4239
 3526SOL    HW115263  10.766  11.822   5.534  0.6383  0.9471  0.3959
 3526SOL    HW215264  10.855  11.705   5.500  0.4120  0.6650  0.7594
 3527SOL     OW15265   7.590   2.903   8.316 -0.0214 -0.3437 -0.5053
 3527SOL    HW115266   7.599   2.878   8.408  1.8226  0.1841 -0.5136
 3527SOL    HW215267   7.581   2.998   8.318 -2.6502 -0.5045 -0.7600
 3528SOL     OW15268  11.454   9.044   6.308 -0.2687 -0.2596  0.2895
 3528SOL    HW115269  11.380   9.098   6.283 -2.0412 -2.2830  0.8921
 3528SOL    HW215270  11.426   8.998   6.387  1.0936 -2.0857 -0.2013
 3529SOL     OW15271  11.692   9.820   3.873  0.0012 -0.5240  0.3189
 3529SOL    HW115272  11.760   9.870   3.917  0.6672 -0.3282 -0.8761
 3529SOL    HW215273  11.627   9.801   3.941  0.0222  1.4493  0.9338
 3530SOL     OW15274   9.787   6.541   8.159  0.1420 -0.5834  0.2090
 3530SOL    HW115275   9.743   6.458   8.176  0.2345 -0.6852 -0.0435
 3530SOL    HW215276   9.825   6.566   8.243 -3.0526  1.0998  1.3099
 3531SOL     OW15277   5.445  10.729   1.205  0.1490 -0.3935 -0.3571
 3531SOL    HW115278   5.499  10.807   1.217 -0.0789 -0.0134 -1.6507
 3531SOL    HW215279   5.358  10.763   1.185 -0.0963 -0.9923 -0.3353
 3532SOL     OW15280   6.724   4.508   3.787 -0.4212 -0.6722  0.3468
 3532SOL    HW115281   6.716   4.590   3.837 -3.6019  0.1753 -1.3213
 3532SOL    HW215282   6.799   4.524   3.729 -1.9267  1.8390 -1.1079
 3533SOL     OW15283   8.499   5.677   2.241 -0.0879  0.0541  0.6144
 3533SOL    HW115284   8.461   5.590   2.240 -1.2820  0.5471  0.9106
 3533SOL    HW215285   8.593   5.663   2.251 -0.0633 -1.2428 -1.0208
 3534SOL     OW15286   8.259   8.560  10.100 -0.9471  0.1620 -0.2274
 3534SOL    HW115287   8.335   8.617  10.090 -0.7098 -0.2611 -0.9332
 3534SOL    HW215288   8.246   8.554  10.195 -0.6049  0.8905 -0.1253
 3535SOL     OW15289   0.583  10.147   3.028  0.1034  1.0993 -0.6997
 3535SOL    HW115290   0.597  10.128   3.121  1.5746  0.5141 -1.0219
 3535SOL    HW215291   0.547  10.236   3.028  1.6680  1.7925  0.3733
 3536SOL     OW15292   9.807   3.629   0.592 -0.0846  0.0615 -0.2019
 3536SOL    HW115293   9.874   3.644   0.525 -0.2024 -0.5283 -0.4583
 3536SOL    HW215294   9.792   3.715   0.630  1.0946  0.1376  0.1248
 3537SOL     OW15295  10.743   1.736   7.127 -0.1752 -0.1158  0.0140
 3537SOL    HW115296  10.781   1.748   7.214  0.0612 -1.6861  0.1442
 3537SOL    HW215297  10.812   1.695   7.075 -0.4008  0.5589 -0.8563
 3538SOL     OW15298   0.469   1.845   2.366 -0.0783 -0.5762  0.2803
 3538SOL    HW115299   0.418   1.918   2.401  0.9824 -0.3222  1.4137
 3538SOL    HW215300   0.516   1.881   2.292  0.2770 -0.1443  0.7073
 3539SOL     OW15301  11.165   5.015   5.058  0.3317 -0.4657  0.0856
 3539SOL    HW115302  11.090   5.002   5.116  0.8198 -0.3578  0.7457
 3539SOL    HW215303  11.127   5.051   4.978 -0.1980  0.7546  0.8542
 3540SOL     OW15304   9.942   2.075   1.582 -0.6590 -0.7624 -0.6474
 3540SOL    HW115305   9.996   2.152   1.567 -0.2567 -0.9739 -0.2918
 3540SOL    HW215306   9.905   2.087   1.669 -2.2191 -0.0057 -1.3591
 3541SOL     OW15307   2.530  11.725  10.867  0.3056  0.2298  0.6223
 3541SOL    HW115308   2.439  11.698  10.883  0.6031 -1.1472  0.0208
 3541SOL    HW215309   2.522  11.816  10.838 -1.0849 -0.5176 -1.5262
 3542SOL     OW15310   0.040   5.006   8.158  0.5411  0.9992  0.1355
 3542SOL    HW115311  -0.044   5.052   8.151  0.1870  0.8309  2.4678
 3542SOL    HW215312   0.105   5.076   8.168  0.2408  1.1017  1.6511
 3543SOL     OW15313   2.722   5.200   4.676  0.2937 -0.2380 -0.1150
 3543SOL    HW115314   2.673   5.147   4.739  1.2665  0.9844  1.8030
 3543SOL    HW215315   2.808   5.212   4.717  1.1238  0.2638 -1.9082
 3544SOL     OW15316  11.950   6.979  10.779  0.1957 -0.3534 -0.0704
 3544SOL    HW115317  11.927   7.060  10.824 -0.4546 -0.1994 -0.6598
 3544SOL    HW215318  11.948   6.912  10.847  2.7068  0.3968  0.8595
 3545SOL     OW15319   9.849   7.441   4.649 -0.2238  0.3068 -0.6404
 3545SOL    HW115320   9.777   7.401   4.601  1.4589 -1.2376 -2.0154
 3545SOL    HW215321   9.893   7.496   4.584  1.2129 -0.6563 -0.5391
 3546SOL     OW15322   3.147   7.982   3.363  0.8246 -0.1007 -0.0911
 3546SOL    HW115323   3.078   8.046   3.380  1.3140  0.1397  1.0886
 3546SOL    HW215324   3.126   7.946   3.277 -1.3334 -0.7643  0.6603
 3547SOL     OW15325   4.528   5.732   7.140  0.1085  0.3172  0.1775
 3547SOL    HW115326   4.528   5.710   7.233  2.1545  1.5300  0.5172
 3547SOL    HW215327   4.549   5.650   7.096 -2.6921 -0.7333  0.5507
 3548SOL     OW15328  10.604   0.967  11.842  0.0303 -0.2550 -0.3202
 3548SOL    HW115329  10.577   1.059  11.848  1.0883  0.4060 -3.5700
 3548SOL    HW215330  10.529   0.922  11.804  0.2170 -0.2856 -0.6614
 3549SOL     OW15331   8.196   1.106   8.650  0.3083 -0.2860  0.6466
 3549SOL    HW115332   8.192   1.160   8.571 -0.1121  0.8477  1.4079
 3549SOL    HW215333   8.208   1.017   8.618 -0.9307 -0.0034 -0.7439
 3550SOL     OW15334   7.056   5.024  10.092  0.0492 -0.0845  0.6484
 3550SOL    HW115335   6.992   4.963  10.056 -0.2834  0.2293  0.7048
 3550SOL    HW215336   7.019   5.110  10.076  1.1872  0.1920 -0.7536
 3551SOL     OW15337   3.951   3.656  10.611 -0.5435  0.3667 -0.3737
 3551SOL    HW115338   3.980   3.577  10.566 -1.5715 -0.2241 -0.0134
 3551SOL    HW215339   3.984   3.648  10.700 -1.1964  0.0251 -0.1569
 3552SOL     OW15340   4.226   1.972   4.284 -0.0922  0.1486  0.6275
 3552SOL    HW115341   4.227   2.003   4.374 -1.2076 -1.9155  1.4260
 3552SOL    HW215342   4.219   2.051   4.231  2.6641  1.5744  2.1956
 3553SOL     OW15343   7.209   1.008  10.040 -0.3854 -0.1544 -0.3471
 3553SOL    HW115344   7.297   1.046  10.038 -0.3372 -0.1928  0.5850
 3553SOL    HW215345   7.204   0.965  10.126  0.0958 -3.5380 -1.8676
 3554SOL     OW15346  10.635   6.263   6.466 -0.2913  0.0674 -0.0689
 3554SOL    HW115347  10.713   6.254   6.413 -1.1484 -0.4376 -1.2817
 3554SOL    HW215348  10.608   6.173   6.485 -0.0656  0.2354  1.1457
 3555SOL     OW15349   7.184  11.205   5.744 -0.0241 -0.0023 -0.1354
 3555SOL    HW115350   7.155  11.214   5.835  0.4091 -0.1550  0.0219
 3555SOL    HW215351   7.197  11.111   5.732 -0.1373  0.0126 -0.3756
 3556SOL     OW15352   1.694   5.148   3.659 -0.0223 -0.0836  0.2151
 3556SOL    HW115353   1.640   5.117   3.732 -0.4439  0.3135  0.0729
 3556SOL    HW215354   1.637   5.144   3.583  0.5998 -1.0920 -0.2306
 3557SOL     OW15355   8.075   4.516   2.732 -0.0985 -0.2787 -0.0555
 3557SOL    HW115356   8.149   4.548   2.783  1.5172  0.2972 -2.5623
 3557SOL    HW215357   8.112   4.452   2.672 -2.2193 -2.2897  0.6046
 3558SOL     OW15358   9.662  10.743   1.541  0.0539 -0.0733  0.5967
 3558SOL    HW115359   9.649  10.657   1.580  1.3186  0.1717  1.6527
 3558SOL    HW215360   9.698  10.725   1.455 -1.0878 -0.6043  0.2103
 3559SOL     OW15361   6.183   1.578   7.127 -0.4160  0.0650  0.1996
 3559SOL    HW115362   6.163   1.666   7.159 -1.9172 -0.0612 -0.3482
 3559SOL    HW215363   6.271   1.586   7.089 -0.7038  1.4349 -0.2277
 3560SOL     OW15364  10.832   3.277   5.229  0.0120 -0.1731  0.1896
 3560SOL    HW115365  10.874   3.321   5.154  1.6833 -1.0795  0.5369
 3560SOL    HW215366  10.746   3.317   5.235  0.6243  1.4199 -0.9212
 3561SOL     OW15367   3.316  10.380   5.008  0.5932  0.0527  0.0195
 3561SOL    HW115368   3.328  10.325   5.084 -0.2095 -1.0950 -0.6572
 3561SOL    HW215369   3.273  10.459   5.041 -1.0735 -1.0443  0.5631
 3562SOL     OW15370   3.264   3.398   0.427 -0.2299 -0.1688  0.3452
 3562SOL    HW115371   3.326   3.351   0.370 -1.0781 -0.0269 -0.7366
 3562SOL    HW215372   3.190   3.339   0.434 -1.1611  0.8147 -0.7334
 3563SOL     OW15373  10.506   2.032  11.023 -0.0561  0.1395  0.0911
 3563SOL    HW115374  10.496   1.937  11.017  1.9803 -0.2167  1.2426
 3563SOL    HW215375  10.485   2.054  11.114  1.4123  0.4436  0.3961
 3564SOL     OW15376   7.148   4.576   7.571  0.0622 -0.2399  0.0600
 3564SOL    HW115377   7.067   4.541   7.608  0.1882 -1.0118 -0.3671
 3564SOL    HW215378   7.183   4.633   7.639 -1.4709  1.1108 -0.2210
 3565SOL     OW15379   7.431   2.942   1.186 -0.4308 -0.0214  0.2946
 3565SOL    HW115380   7.422   2.857   1.229  0.2822  0.3601  1.2614
 3565SOL    HW215381   7.457   3.002   1.257 -0.2672  0.8622 -0.4843
 3566SOL     OW15382   6.384   2.844   6.884  0.3599 -0.0831 -0.2560
 3566SOL    HW115383   6.367   2.811   6.796 -1.3272  0.5456 -0.1953
 3566SOL    HW215384   6.351   2.775   6.942 -1.5458  0.8443 -0.1423
 3567SOL     OW15385   2.603   2.070   5.504 -0.1646  0.1150  0.2326
 3567SOL    HW115386   2.597   2.161   5.475  0.6659  0.4323  1.0311
 3567SOL    HW215387   2.666   2.030   5.445 -2.5884 -0.7419 -1.9889
 3568SOL     OW15388   2.205   2.460   6.461 -0.5188  0.0242 -0.1105
 3568SOL    HW115389   2.157   2.535   6.496 -0.5475  0.8917 -1.9013
 3568SOL    HW215390   2.275   2.499   6.408  1.3598 -1.2150  1.3009
 3569SOL     OW15391   8.546  10.143   3.054  0.0865  0.4260 -0.3715
 3569SOL    HW115392   8.632  10.177   3.029 -0.1243  0.4430 -1.0912
 3569SOL    HW215393   8.522  10.084   2.982  0.3586 -1.1013  0.7312
 3570SOL     OW15394  10.246  11.245   7.426 -0.1257  0.1054  0.8475
 3570SOL    HW115395  10.211  11.311   7.486  0.1749 -0.2939  1.4714
 3570SOL    HW215396  10.332  11.278   7.401 -0.5599  0.6371  0.0409
 3571SOL     OW15397   8.520   0.260  11.133  0.6249 -0.0936  0.2953
 3571SOL    HW115398   8.549   0.169  11.121  1.2511  0.2018 -0.5577
 3571SOL    HW215399   8.475   0.260  11.218 -0.5252 -1.4683 -0.2748
 3572SOL     OW15400   4.079  11.191   3.690  0.1306 -0.2829 -0.1601
 3572SOL    HW115401   4.009  11.210   3.753 -1.5324  2.0934 -2.5118
 3572SOL    HW215402   4.150  11.249   3.716 -0.4397  0.4795 -0.2538
 3573SOL     OW15403   2.897   1.506   2.029  0.3142 -0.2679  0.2937
 3573SOL    HW115404   2.838   1.547   2.093 -1.5441 -1.8598 -0.3089
 3573SOL    HW215405   2.882   1.554   1.948 -0.4000 -0.8770  0.0629
 3574SOL     OW15406   4.487   8.477   2.450  0.2535 -0.2521  0.0564
 3574SOL    HW115407   4.459   8.568   2.440  1.7922  0.2173 -0.2292
 3574SOL    HW215408   4.425   8.440   2.513 -0.6496  0.8671 -0.1375
 3575SOL     OW15409  11.381   3.738   3.420  0.6154 -0.5012 -0.8575
 3575SOL    HW115410  11.287   3.722   3.421  0.3234  0.8408 -2.4760
 3575SOL    HW215411  11.409   3.723   3.511 -1.0533 -1.3358 -0.4410
 3576SOL     OW15412  11.642   0.299   6.323 -0.1135 -0.0824 -0.2056
 3576SOL    HW115413  11.691   0.303   6.241 -0.7428 -1.1255 -0.6462
 3576SOL    HW215414  11.689   0.359   6.381  2.5339 -2.0121 -0.1631
 3577SOL     OW15415   8.729  10.226  10.294 -0.1220 -0.4695  0.0142
 3577SOL    HW115416   8.823  10.242  10.304  0.1321 -0.9314 -1.4035
 3577SOL    HW215417   8.719  10.132  10.311 -0.6247 -0.1371  1.8527
 3578SOL     OW15418   7.811   8.439   1.464  0.4479  0.0798  0.1020
 3578SOL    HW115419   7.832   8.484   1.546 -1.1455 -1.9645  1.7498
 3578SOL    HW215420   7.737   8.382   1.486  1.4535 -2.3113 -2.1669
 3579SOL     OW15421  10.130   2.354   9.595 -0.1850 -0.3660  0.2831
 3579SOL    HW115422  10.100   2.291   9.661  0.8301 -0.8760  0.2645
 3579SOL    HW215423  10.053   2.367   9.539 -0.7164 -0.7907  0.8910
 3580SOL     OW15424   1.561   3.516   9.281 -0.3755 -0.1956  0.2441
 3580SOL    HW115425   1.638   3.523   9.226 -1.4370  0.9992 -1.1838
 3580SOL    HW215426   1.583   3.565   9.361  0.9245 -1.3424  0.6144
 3581SOL     OW15427   4.014   8.472   1.408  0.2136  0.0998  0.2781
 3581SOL    HW115428   4.074   8.535   1.367 -1.8518  1.4277 -0.8641
 3581SOL    HW215429   3.932   8.520   1.419 -1.4522 -2.3666 -0.5900
 3582SOL     OW15430   1.986   5.546   2.630  0.3662  0.5112 -0.6855
 3582SOL    HW115431   1.935   5.606   2.575 -0.0699  0.4366 -0.3698
 3582SOL    HW215432   2.077   5.562   2.605  0.3978  2.3330  0.3663
 3583SOL     OW15433   6.806   9.444   2.627  0.0151 -0.3205 -0.1120
 3583SOL    HW115434   6.784   9.472   2.715  0.7949  0.6190 -0.2015
 3583SOL    HW215435   6.755   9.502   2.570 -0.2695 -0.7367 -0.2876
 3584SOL     OW15436   9.465  10.949   4.535 -0.3110  0.2170  0.0668
 3584SOL    HW115437   9.462  11.044   4.527 -1.4858  0.3719  1.7285
 3584SOL    HW215438   9.441  10.932   4.626 -0.0975 -1.6798 -0.1824
 3585SOL     OW15439   0.088   2.543   1.599  0.1936  0.3402  0.0438
 3585SOL    HW115440   0.175   2.582   1.593  0.6175 -0.3653  1.2771
 3585SOL    HW215441   0.067   2.516   1.510  1.8062 -0.7050 -0.0454
 3586SOL     OW15442   7.059   6.468   7.491 -0.3333  0.0413 -0.2512
 3586SOL    HW115443   7.038   6.520   7.568 -0.9500 -1.0976  0.3679
 3586SOL    HW215444   7.004   6.390   7.498 -0.3844 -0.1054 -1.8300
 3587SOL     OW15445  10.746   2.915   2.021  0.3103  0.7136  0.1674
 3587SOL    HW115446  10.730   2.867   2.103  2.4986  0.8993  0.7561
 3587SOL    HW215447  10.816   2.867   1.978 -1.1360  0.3416 -1.9035
 3588SOL     OW15448   0.464   5.772   8.752 -0.1192  0.2786 -0.6669
 3588SOL    HW115449   0.402   5.760   8.681 -0.9952 -1.3019  0.3121
 3588SOL    HW215450   0.548   5.743   8.716 -0.4065  0.1722 -1.2664
 3589SOL     OW15451   7.871   1.339   6.721 -0.0528 -0.2530  0.1000
 3589SOL    HW115452   7.802   1.384   6.672 -0.3038 -0.9108 -0.1679
 3589SOL    HW215453   7.826   1.267   6.765  0.0140  0.8284  2.0294
 3590SOL     OW15454   8.897   4.091   9.613  0.4011  0.3719 -0.6533
 3590SOL    HW115455   8.898   4.180   9.650  0.9943  0.4199 -0.7787
 3590SOL    HW215456   8.816   4.053   9.646  0.3324  0.8268 -0.2783
 3591SOL     OW15457  10.696   6.895   5.462  0.5421 -0.2944  0.4805
 3591SOL    HW115458  10.657   6.867   5.379  2.4833  0.7593 -0.8600
 3591SOL    HW215459  10.755   6.823   5.486  1.2060  0.1027  0.0655
 3592SOL     OW15460   6.812   0.400   8.439  0.3927 -0.2839 -0.1316
 3592SOL    HW115461   6.846   0.406   8.528 -0.3416 -0.2028  0.1560
 3592SOL    HW215462   6.751   0.326   8.441 -0.4758  0.4031 -0.2612
 3593SOL     OW15463   7.089  10.321   4.789  0.5425  0.2236 -0.2856
 3593SOL    HW115464   7.009  10.334   4.840 -0.5152 -0.0848 -1.7827
 3593SOL    HW215465   7.146  10.394   4.813 -0.3565  0.6849  0.4889
 3594SOL     OW15466   1.590   1.452   6.662  0.3289 -0.2773  0.5827
 3594SOL    HW115467   1.494   1.461   6.662  0.2809 -0.4166  2.2205
 3594SOL    HW215468   1.620   1.518   6.599 -0.8446 -0.3577 -0.1035
 3595SOL     OW15469   2.960   8.576   3.034  0.0685  0.4916 -0.1573
 3595SOL    HW115470   3.029   8.514   3.011  1.6888  1.3997  1.8912
 3595SOL    HW215471   2.996   8.661   3.010  0.6552  1.1803  2.7849
 3596SOL     OW15472   1.648   2.473   4.128  0.1919  0.2672 -0.7992
 3596SOL    HW115473   1.568   2.522   4.146 -1.3344 -2.2087 -0.2377
 3596SOL    HW215474   1.644   2.453   4.035 -0.7849 -1.2806 -0.4582
 3597SOL     OW15475   8.178   0.983   0.635 -0.2952 -0.2416 -0.0804
 3597SOL    HW115476   8.267   0.948   0.626  0.5217  1.5544  0.5324
 3597SOL    HW215477   8.163   0.988   0.729 -0.7936  0.0695 -0.1706
 3598SOL     OW15478   1.331   2.617   7.290  0.3968  0.3435 -0.4941
 3598SOL    HW115479   1.287   2.578   7.214  0.0670  0.3387 -0.3009
 3598SOL    HW215480   1.360   2.702   7.259  1.4268 -0.1840 -1.0275
 3599SOL     OW15481   2.706   6.025   1.808  0.3295 -0.0327 -0.1985
 3599SOL    HW115482   2.624   6.034   1.857  0.2817 -0.2901 -0.2299
 3599SOL    HW215483   2.699   6.091   1.739  1.0735  1.4177  1.0512
 3600SOL     OW15484   5.253   5.677   7.602  0.5683  0.0485 -0.1150
 3600SOL    HW115485   5.164   5.652   7.579  0.7498 -0.7784  0.0187
 3600SOL    HW215486   5.282   5.609   7.663  0.5993  1.4249  1.4734
 3601SOL     OW15487   2.669   3.419   7.624  0.2540  0.1940 -0.5901
 3601SOL    HW115488   2.732   3.450   7.689  1.3978 -0.2301 -1.4725
 3601SOL    HW215489   2.596   3.385   7.676 -0.5429  3.1544  0.4537
 3602SOL     OW15490  10.511  10.852  11.503  0.0441 -0.2822 -0.1187
 3602SOL    HW115491  10.417  10.835  11.498 -0.2340 -0.1838  2.9325
 3602SOL    HW215492  10.519  10.926  11.564  2.0416  0.9862 -1.7771
 3603SOL     OW15493   6.863   1.499  11.537 -0.2333  0.4690  0.3390
 3603SOL    HW115494   6.878   1.503  11.442 -2.3219 -0.1461 -0.0777
 3603SOL    HW215495   6.790   1.438  11.547 -1.1443  1.7541  2.1964
 3604SOL     OW15496   1.021   5.049   1.447  0.7018 -0.3660  0.2687
 3604SOL    HW115497   0.941   5.038   1.395  0.2413  0.8141  0.6808
 3604SOL    HW215498   1.090   5.060   1.382  0.0487  1.6570 -0.1533
 3605SOL     OW15499   6.882  10.044   4.135 -0.1954 -0.0332 -0.7800
 3605SOL    HW115500   6.950  10.036   4.069  0.5914  0.7058 -0.0852
 3605SOL    HW215501   6.829  10.118   4.106 -0.3757 -0.2655 -1.0409
 3606SOL     OW15502   8.147   8.927   9.373  0.2875  0.1699  0.1068
 3606SOL    HW115503   8.057   8.926   9.407 -0.0215 -0.9388 -0.6900
 3606SOL    HW215504   8.198   8.968   9.443 -0.2511 -2.3935  2.2001
 3607SOL     OW15505   6.706   2.780   0.565  0.0048 -0.5129  0.1032
 3607SOL    HW115506   6.763   2.811   0.494 -1.1855  0.7520 -0.3569
 3607SOL    HW215507   6.640   2.727   0.521  0.9458 -2.2392  0.6742
 3608SOL     OW15508   3.785   5.365   2.873  0.3903 -0.6254  0.2853
 3608SOL    HW115509   3.848   5.428   2.839  1.7458 -1.8829  0.3926
 3608SOL    HW215510   3.799   5.286   2.822 -2.4958 -0.3837 -1.0625
 3609SOL     OW15511   3.206   8.851   7.105 -0.4006  0.0143  0.1572
 3609SOL    HW115512   3.162   8.782   7.155 -2.8425  1.8254  0.7144
 3609SOL    HW215513   3.136   8.889   7.052  1.3416  0.6575 -1.8223
 3610SOL     OW15514   3.426   8.426   0.478  0.6157  0.1415  0.1558
 3610SOL    HW115515   3.519   8.436   0.500  0.7509  2.8778 -1.1958
 3610SOL    HW215516   3.427   8.394   0.388  0.2232 -0.3238  0.3145
 3611SOL     OW15517  11.514   2.399  11.690  0.3005  0.2123 -0.2844
 3611SOL    HW115518  11.542   2.490  11.702  3.7445 -0.7599 -0.0356
 3611SOL    HW215519  11.486   2.372  11.778 -0.2062  0.8339 -0.2436
 3612SOL     OW15520   2.292   5.893   1.447  0.2258 -0.4694 -0.3870
 3612SOL    HW115521   2.205   5.852   1.443 -0.0467  0.0806 -0.2957
 3612SOL    HW215522   2.352   5.827   1.414 -0.2897 -0.7086 -0.8538
 3613SOL     OW15523   8.705   3.476   0.545  0.2025 -0.3234  0.4079
 3613SOL    HW115524   8.787   3.433   0.521  0.4542 -0.0042  0.6840
 3613SOL    HW215525   8.729   3.567   0.558 -0.4406  0.0219 -0.7192
 3614SOL     OW15526   6.403   9.036   2.897  0.1705 -0.2811  0.0580
 3614SOL    HW115527   6.376   9.011   2.985 -0.3279 -0.6082 -0.1840
 3614SOL    HW215528   6.328   9.083   2.861 -0.2096 -1.4082 -0.7010
 3615SOL     OW15529   1.658   1.041   1.247 -0.4435 -0.8168 -0.0769
 3615SOL    HW115530   1.743   1.002   1.266 -0.3777  0.0484  1.5743
 3615SOL    HW215531   1.595   0.980   1.285 -0.3438  0.4894  2.4232
 3616SOL     OW15532   3.929   5.191  10.648  0.5744  0.1682 -0.4515
 3616SOL    HW115533   3.857   5.140  10.611 -1.4609 -0.3306  3.6206
 3616SOL    HW215534   3.916   5.279  10.613 -0.9340 -0.3130 -1.2232
 3617SOL     OW15535   9.370   8.739   3.566  0.1980  0.0433 -0.4143
 3617SOL    HW115536   9.417   8.656   3.558  1.8898  0.8646  0.3879
 3617SOL    HW215537   9.305   8.737   3.496 -1.4804 -2.9787  1.0870
 3618SOL     OW15538   3.782   4.287   1.822  0.0709  0.3677  0.0331
 3618SOL    HW115539   3.833   4.365   1.846 -0.3963  0.2303  1.6276
 3618SOL    HW215540   3.751   4.305   1.733  0.9526  1.4705 -0.0743
 3619SOL     OW15541   8.372   5.841   9.837 -0.0669 -0.7092 -0.1492
 3619SOL    HW115542   8.329   5.757   9.822  0.2047 -1.0954  1.1547
 3619SOL    HW215543   8.307   5.906   9.810  0.1193 -1.3074 -2.2321
 3620SOL     OW15544   3.956   1.026   9.092  0.0887 -0.4103  0.9715
 3620SOL    HW115545   3.968   1.107   9.140 -0.2903 -0.2032  0.7211
 3620SOL    HW215546   4.038   0.978   9.105  0.6340  0.3606  0.4598
 3621SOL     OW15547   2.021  11.613   9.881 -0.9574  0.6265  0.0787
 3621SOL    HW115548   2.036  11.527   9.919 -1.4062  1.1359  1.4487
 3621SOL    HW215549   2.104  11.660   9.895 -0.9003  0.6015 -0.1709
 3622SOL     OW15550   6.618   6.434  10.843  0.2396  0.2981 -0.0033
 3622SOL    HW115551   6.551   6.473  10.899  1.5455  0.2847  1.6535
 3622SOL    HW215552   6.658   6.508  10.798 -1.2755  0.2485 -1.5087
 3623SOL     OW15553  10.892   1.380   7.769  0.1287 -0.1496 -0.0147
 3623SOL    HW115554  10.804   1.390   7.806 -0.8022  3.3609 -2.6845
 3623SOL    HW215555  10.938   1.460   7.795  1.8426 -0.9517 -0.4446
 3624SOL     OW15556  10.021  11.316   4.227 -0.4044  0.7593 -0.1891
 3624SOL    HW115557  10.027  11.245   4.291  0.6378  0.1820 -0.8975
 3624SOL    HW215558  10.072  11.387   4.264  2.0804 -0.3305 -1.2837
 3625SOL     OW15559   4.185   9.199  11.182  0.3172  0.5530 -0.3892
 3625SOL    HW115560   4.243   9.124  11.169 -0.4529 -0.1409  0.1511
 3625SOL    HW215561   4.107   9.179  11.130  0.8504  1.8605 -1.7873
 3626SOL     OW15562   3.801  10.483   8.075  0.1858  0.1252  0.1588
 3626SOL    HW115563   3.892  10.459   8.057  0.9554  2.2664  0.9014
 3626SOL    HW215564   3.768  10.517   7.991 -0.7505 -2.7380 -0.7582
 3627SOL     OW15565  11.480   4.732   6.349 -0.5405 -0.0848 -0.2665
 3627SOL    HW115566  11.400   4.777   6.324 -0.3781 -0.1040 -0.8353
 3627SOL    HW215567  11.528   4.721   6.267  0.3399  0.5012  0.1578
 3628SOL     OW15568   1.174   5.382   8.933  0.6501  0.4952 -0.1945
 3628SOL    HW115569   1.254   5.405   8.980 -0.6295  1.3227  1.7129
 3628SOL    HW215570   1.104   5.392   8.998 -1.4326  3.0155 -2.5574
 3629SOL     OW15571   6.824   1.259   3.472  0.0375  0.1095 -0.2612
 3629SOL    HW115572   6.904   1.285   3.426 -0.3316 -1.5079 -1.9399
 3629SOL    HW215573   6.853   1.196   3.538  0.0942 -1.1951 -1.4927
 3630SOL     OW15574   2.356   3.867  11.235 -0.0521  0.3214 -0.4483
 3630SOL    HW115575   2.445   3.877  11.202 -0.1093 -1.4707 -1.2554
 3630SOL    HW215576   2.362   3.895  11.327  2.3202 -3.3634  0.7466
 3631SOL     OW15577   0.401   0.010   8.420 -0.0509  0.2811 -0.3855
 3631SOL    HW115578   0.326   0.033   8.474 -0.0095  0.2456 -0.3124
 3631SOL    HW215579   0.452   0.091   8.413  0.2350  0.1465  0.0946
 3632SOL     OW15580   9.306  11.556  10.442  0.2980 -0.1066 -0.0012
 3632SOL    HW115581   9.372  11.518  10.500 -0.0481 -2.4810 -1.0432
 3632SOL    HW215582   9.348  11.558  10.356  0.6978  3.0760  0.1393
 3633SOL     OW15583   0.611  11.349   2.225 -0.5758  0.4942  0.6228
 3633SOL    HW115584   0.652  11.383   2.305  0.8745 -2.2545  1.1741
 3633SOL    HW215585   0.593  11.258   2.245 -2.3283  0.3233 -1.4553
 3634SOL     OW15586   8.108   1.635   1.536  0.3708 -0.4898 -0.2905
 3634SOL    HW115587   8.196   1.667   1.558  0.2565 -0.8455  0.7443
 3634SOL    HW215588   8.055   1.659   1.612 -0.3303 -0.6607 -0.7261
 3635SOL     OW15589   3.003   2.094   8.733 -0.3882  0.3732  0.1972
 3635SOL    HW115590   2.993   2.124   8.643  1.4532 -2.1235 -0.9614
 3635SOL    HW215591   2.976   2.169   8.786 -0.2359  2.4300 -2.3905
 3636SOL     OW15592  11.576  11.335   2.277  0.2440 -0.4336  0.1357
 3636SOL    HW115593  11.637  11.310   2.207 -0.2482 -1.4507  0.0511
 3636SOL    HW215594  11.512  11.393   2.235 -0.8380 -2.1015 -0.6161
 3637SOL     OW15595   0.373   6.636   0.218  0.2739 -0.2371  0.1347
 3637SOL    HW115596   0.326   6.603   0.142  1.7422 -2.1452 -0.0180
 3637SOL    HW215597   0.463   6.648   0.187  0.2383  2.1889  0.7201
 3638SOL     OW15598  11.256   7.282  11.020 -0.5793  0.3066  0.3313
 3638SOL    HW115599  11.310   7.234  10.958  0.5138 -0.1782  1.6252
 3638SOL    HW215600  11.275   7.374  11.002 -0.5867  0.1865 -0.3142
 3639SOL     OW15601  11.804   6.565   9.622  0.0193 -0.6585  0.4140
 3639SOL    HW115602  11.768   6.653   9.632  2.5576  0.7127 -1.4157
 3639SOL    HW215603  11.761   6.513   9.691 -2.4119  1.6785  0.8055
 3640SOL     OW15604   0.215   9.326  10.793  0.1897 -0.1294 -0.4427
 3640SOL    HW115605   0.221   9.261  10.723  1.0607 -2.2923  1.5059
 3640SOL    HW215606   0.171   9.281  10.865 -0.1282  1.8036  0.6642
 3641SOL     OW15607   9.343   1.513   1.961 -0.4534  0.4090  0.0431
 3641SOL    HW115608   9.287   1.436   1.950 -0.2174  0.3839 -1.0204
 3641SOL    HW215609   9.372   1.536   1.873  0.0749  1.2809  0.4224
 3642SOL     OW15610  11.893   8.732   6.498  0.2148 -0.2091 -0.3481
 3642SOL    HW115611  11.804   8.702   6.513 -0.7746  2.4390 -0.3106
 3642SOL    HW215612  11.948   8.654   6.509 -2.1235 -2.0740 -1.1098
 3643SOL     OW15613   5.360  10.053   4.641 -0.2095  0.6420  0.2556
 3643SOL    HW115614   5.304  10.097   4.578 -0.6331 -2.1101 -1.4156
 3643SOL    HW215615   5.332  10.089   4.726 -1.2799  2.6747 -0.8729
 3644SOL     OW15616  11.339   3.263   4.731  0.6571  0.5079  0.5421
 3644SOL    HW115617  11.406   3.246   4.664 -0.8431 -0.1061 -0.8662
 3644SOL    HW215618  11.335   3.183   4.782 -0.2948 -0.2130 -0.5947
 3645SOL     OW15619   1.919  10.463  11.003  0.8732  0.0441  0.1822
 3645SOL    HW115620   1.916  10.461  11.099  1.1600  1.9216  0.2568
 3645SOL    HW215621   1.996  10.515  10.982 -0.4411  1.6121 -1.0282
 3646SOL     OW15622  10.879   3.397   9.890 -0.2416  0.2064 -0.1960
 3646SOL    HW115623  10.912   3.459   9.955  1.9383 -0.0012 -1.0216
 3646SOL    HW215624  10.790   3.377   9.919 -0.6320  2.8521  0.7149
 3647SOL     OW15625   5.345   9.934   8.692  0.7161 -0.2776  0.5815
 3647SOL    HW115626   5.308   9.941   8.604  3.0360  1.7445 -0.3385
 3647SOL    HW215627   5.277   9.971   8.749 -0.0273  0.2351 -0.6036
 3648SOL     OW15628   6.469   2.294  11.291  0.2057  0.3039  0.4054
 3648SOL    HW115629   6.459   2.229  11.361  0.8385  0.9791  1.1338
 3648SOL    HW215630   6.544   2.262  11.241 -0.5752 -0.4697 -0.3088
 3649SOL     OW15631   9.835   1.230   7.044 -0.1977 -0.0977  0.1174
 3649SOL    HW115632   9.811   1.318   7.074 -0.6930 -0.3460  0.4725
 3649SOL    HW215633   9.897   1.199   7.109  0.8869  0.4265 -0.6356
 3650SOL     OW15634   9.974  11.977   0.892 -0.0961  0.2753 -0.0763
 3650SOL    HW115635   9.920  11.984   0.814 -0.3657  0.8522  0.1513
 3650SOL    HW215636   9.977  11.884   0.912 -1.4518  0.2786  0.2120
 3651SOL     OW15637   2.057   6.146   3.212  0.4009  0.1266  0.1705
 3651SOL    HW115638   1.988   6.113   3.154 -0.0052 -0.2524  0.8620
 3651SOL    HW215639   2.136   6.147   3.157 -0.3711  1.6941 -0.9877
 3652SOL     OW15640   0.712  10.683  11.394 -0.1227 -0.0573 -0.1070
 3652SOL    HW115641   0.771  10.613  11.366 -0.8463  0.0472 -2.0674
 3652SOL    HW215642   0.625  10.645  11.387 -0.5634  1.1493 -1.6645
 3653SOL     OW15643   8.948   3.841  10.648  0.4849  0.5382  0.1358
 3653SOL    HW115644   9.032   3.876  10.618  1.5479 -0.5837  1.6484
 3653SOL    HW215645   8.961   3.825  10.742 -0.7178 -1.6017 -0.0036
 3654SOL     OW15646   0.647   9.991   4.698  0.2910  0.4114  0.0509
 3654SOL    HW115647   0.591   9.914   4.706  1.1405 -0.2910 -0.6434
 3654SOL    HW215648   0.591  10.064   4.727  0.2240 -0.7104  3.1845
 3655SOL     OW15649   0.531   3.900   8.734 -0.1827  0.5096  0.1338
 3655SOL    HW115650   0.539   3.993   8.757  1.6495  0.0164  1.7212
 3655SOL    HW215651   0.608   3.881   8.682 -0.7627 -0.0443 -0.5449
 3656SOL     OW15652  10.206   3.290   9.035 -0.1051 -0.0856 -0.4073
 3656SOL    HW115653  10.289   3.245   9.054 -0.1014  0.3374  0.6099
 3656SOL    HW215654  10.230   3.383   9.032 -0.8091  0.1961  1.5499
 3657SOL     OW15655   3.032   4.808   3.613  0.4554  0.4943 -0.2558
 3657SOL    HW115656   3.005   4.860   3.537 -1.2495  0.1856  0.0894
 3657SOL    HW215657   2.985   4.725   3.602 -0.7043  0.8329  1.6744
 3658SOL     OW15658   2.573   8.563   1.234 -0.5065 -0.5905  0.4416
 3658SOL    HW115659   2.595   8.475   1.202 -0.4745  0.2634 -2.1431
 3658SOL    HW215660   2.479   8.559   1.253 -0.5147 -1.1782  0.2915
 3659SOL     OW15661   6.603   6.521   0.799  1.2171 -0.6821  0.0645
 3659SOL    HW115662   6.587   6.555   0.711 -0.3410 -1.9289 -0.1838
 3659SOL    HW215663   6.656   6.588   0.842 -1.4952  1.9798 -0.4185
 3660SOL     OW15664   6.809   1.859  10.651  0.3478 -0.9050 -0.1744
 3660SOL    HW115665   6.892   1.835  10.609  1.1216 -1.8671  1.7301
 3660SOL    HW215666   6.808   1.955  10.649  1.2730 -0.8886 -0.6531
 3661SOL     OW15667   4.751   4.808  10.616  0.1878  0.3017  0.0255
 3661SOL    HW115668   4.795   4.853  10.688  0.6383 -1.5882  1.0079
 3661SOL    HW215669   4.662   4.793  10.647  0.0026  0.6277 -0.3438
 3662SOL     OW15670   1.919   3.871  11.114 -0.0294 -0.5002 -0.2041
 3662SOL    HW115671   1.849   3.816  11.081  0.3270  0.4215 -2.6633
 3662SOL    HW215672   1.876   3.954  11.137  0.0745 -0.3079 -0.6893
 3663SOL     OW15673  11.787  10.115   4.523  0.0739 -0.2525 -0.2458
 3663SOL    HW115674  11.790  10.093   4.617  1.5677 -0.0793 -0.2290
 3663SOL    HW215675  11.854  10.182   4.512 -0.2851 -0.0643 -1.3981
 3664SOL     OW15676   1.198   0.802   8.080 -0.1225 -0.7801  0.5528
 3664SOL    HW115677   1.112   0.766   8.102 -0.3921 -0.8951 -0.6211
 3664SOL    HW215678   1.204   0.792   7.985  1.7017 -1.9457  0.7464
 3665SOL     OW15679   8.580   0.764  11.607 -0.3048  0.1016  0.5789
 3665SOL    HW115680   8.610   0.849  11.639  1.8168 -0.2381 -0.2966
 3665SOL    HW215681   8.489   0.778  11.581 -0.2988  1.8282  1.3941
 3666SOL     OW15682   4.766   9.957  11.529  0.4847  0.1507  0.0716
 3666SOL    HW115683   4.793   9.998  11.612 -0.7710 -0.3839  0.7664
 3666SOL    HW215684   4.828   9.992  11.464  1.3231  0.7915  1.1781
 3667SOL     OW15685   4.534   5.604   9.775 -0.1199  0.6032 -0.3252
 3667SOL    HW115686   4.471   5.541   9.741  1.4787 -2.0518  1.2198
 3667SOL    HW215687   4.617   5.556   9.778  1.3535  2.9958  0.4134
 3668SOL     OW15688   1.872   3.376   8.788  0.2801  0.2756 -0.6952
 3668SOL    HW115689   1.776   3.382   8.792  0.2877 -0.0067  1.0416
 3668SOL    HW215690   1.894   3.313   8.857  1.7231  0.4537 -0.9670
 3669SOL     OW15691   2.024   8.136   8.055 -0.2392  0.4313 -0.3228
 3669SOL    HW115692   2.071   8.089   8.123 -0.7125 -1.2143 -1.0947
 3669SOL    HW215693   1.966   8.196   8.103 -1.2675 -1.3610  0.7922
 3670SOL     OW15694   7.608  10.599   6.419 -0.4100 -0.0584  0.4423
 3670SOL    HW115695   7.595  10.658   6.344 -3.1624 -1.0534  0.0351
 3670SOL    HW215696   7.611  10.511   6.380  0.4570 -0.4467  1.3391
 3671SOL     OW15697   5.883  10.145   7.844  1.0071  0.3693 -0.1681
 3671SOL    HW115698   5.884  10.052   7.867 -2.4968  0.0083 -0.8961
 3671SOL    HW215699   5.829  10.186   7.911 -0.9592  1.0776 -2.0705
 3672SOL     OW15700   3.357  11.453   9.338  0.1632 -0.0389 -0.0468
 3672SOL    HW115701   3.327  11.451   9.247 -0.8987  1.4548  0.2245
 3672SOL    HW215702   3.393  11.366   9.354  0.3210 -0.3407 -1.8770
 3673SOL     OW15703   1.327  10.615   9.822  0.0994  0.2525 -0.0302
 3673SOL    HW115704   1.372  10.531   9.808  0.3906  0.6594 -1.8515
 3673SOL    HW215705   1.240  10.601   9.785 -1.1067 -0.2756  2.7532
 3674SOL     OW15706   2.836   5.145  10.801  0.1020  0.3662 -0.2981
 3674SOL    HW115707   2.929   5.144  10.825  1.1697  2.9899 -3.5750
 3674SOL    HW215708   2.821   5.059  10.762  1.3633  0.1765 -0.4183
 3675SOL     OW15709   6.183   1.161   9.656  0.6360  0.0832 -0.4609
 3675SOL    HW115710   6.171   1.226   9.586  2.2181  0.5584 -0.3190
 3675SOL    HW215711   6.277   1.157   9.669  0.5919 -2.4180 -0.5813
 3676SOL     OW15712   6.593   1.231   3.026 -0.5952  0.3508  0.0930
 3676SOL    HW115713   6.560   1.159   3.079  1.2816 -0.8317 -0.2300
 3676SOL    HW215714   6.560   1.214   2.938  1.0436 -1.0260 -0.3080
 3677SOL     OW15715   9.637   8.257   8.608 -0.2091 -0.7333  0.1536
 3677SOL    HW115716   9.557   8.209   8.631 -0.5908  0.2009  0.8551
 3677SOL    HW215717   9.605   8.330   8.554  0.4080 -1.5004 -1.2890
 3678SOL     OW15718   3.142   3.033   2.960 -0.0408  0.0337  0.4012
 3678SOL    HW115719   3.049   3.048   2.974 -0.3479 -0.8558 -0.5299
 3678SOL    HW215720   3.177   3.016   3.047 -1.4165 -2.9761  0.4923
 3679SOL     OW15721   9.858   6.865   9.193 -0.0934  0.7633 -0.0107
 3679SOL    HW115722   9.853   6.934   9.127 -0.2331  0.4105 -0.3681
 3679SOL    HW215723   9.939   6.883   9.240 -0.5992  1.7397  0.5255
 3680SOL     OW15724   6.200   1.347   2.281 -0.3867  0.1565  0.3734
 3680SOL    HW115725   6.291   1.378   2.283 -1.3627  3.3506  0.8669
 3680SOL    HW215726   6.206   1.255   2.306  2.6182  0.5219  1.4791
 3681SOL     OW15727   9.897   7.086   8.993  0.0700 -0.0572  0.2587
 3681SOL    HW115728   9.982   7.105   8.954 -0.3113  1.1549 -0.0265
 3681SOL    HW215729   9.890   7.147   9.067 -1.4070  1.3352 -0.9707
 3682SOL     OW15730   9.724   7.359  10.831  0.0859 -0.6093 -0.1999
 3682SOL    HW115731   9.797   7.393  10.779 -0.4837  0.6210 -0.2209
 3682SOL    HW215732   9.716   7.267  10.804  2.2478 -1.0654  0.5282
 3683SOL     OW15733   6.148   8.987   4.937  0.0700  0.0443 -0.4950
 3683SOL    HW115734   6.141   9.081   4.917 -1.0675  0.0694 -0.0477
 3683SOL    HW215735   6.107   8.944   4.862  0.4724 -0.1009 -0.6367
 3684SOL     OW15736   1.411   5.329   7.039  0.6297 -0.0889 -0.5689
 3684SOL    HW115737   1.406   5.408   7.092  0.0353 -0.0739 -0.6401
 3684SOL    HW215738   1.357   5.265   7.085  1.9650 -0.8041  0.0661
 3685SOL     OW15739  10.158   1.838   4.920  0.3070 -0.2637 -0.0531
 3685SOL    HW115740  10.206   1.882   4.990  0.6673 -0.3409 -0.2454
 3685SOL    HW215741  10.068   1.833   4.951 -0.1948  2.3955 -0.8723
 3686SOL     OW15742  11.801   9.024   2.930  0.6203  0.4342  0.0188
 3686SOL    HW115743  11.709   9.021   2.956  0.7252  2.9590  0.9523
 3686SOL    HW215744  11.798   9.048   2.837  0.3545 -0.6763 -0.2769
 3687SOL     OW15745  11.089   1.726   7.254  0.9622  0.1583  0.6093
 3687SOL    HW115746  11.144   1.673   7.312 -0.9809 -3.0168 -0.2286
 3687SOL    HW215747  11.003   1.726   7.295  0.4467  1.0728 -0.4129
 3688SOL     OW15748   1.662   8.976   5.830 -0.5735 -0.2007  0.3160
 3688SOL    HW115749   1.602   8.946   5.762 -2.0797  1.1273  1.0150
 3688SOL    HW215750   1.689   9.063   5.802 -1.1690  0.3369  1.3798
 3689SOL     OW15751   9.936   7.959   2.023  0.5961  0.1504  0.0061
 3689SOL    HW115752   9.870   7.946   2.091  0.6478 -0.1859 -0.0036
 3689SOL    HW215753   9.986   7.877   2.022 -1.7429 -1.4431 -2.9950
 3690SOL     OW15754  11.628   7.143   9.330 -0.0190 -0.1387 -0.2003
 3690SOL    HW115755  11.720   7.166   9.320  0.9745 -2.9415  1.4121
 3690SOL    HW215756  11.595   7.201   9.398  1.2171 -0.6206  0.8329
 3691SOL     OW15757   2.113   1.496   9.459 -0.4843 -0.1520  0.5614
 3691SOL    HW115758   2.158   1.569   9.418  0.6548 -0.5933  0.9910
 3691SOL    HW215759   2.177   1.459   9.520 -1.4962 -0.6781  1.3355
 3692SOL     OW15760   6.202   2.238   2.119  0.5143 -0.0609  0.2203
 3692SOL    HW115761   6.279   2.206   2.166  0.2290 -1.4373 -0.1931
 3692SOL    HW215762   6.131   2.180   2.146 -0.0104  0.1337 -0.6695
 3693SOL     OW15763   4.131   1.641   5.560 -0.4838 -0.4143 -0.0035
 3693SOL    HW115764   4.162   1.552   5.543 -2.3440 -0.7722 -1.9683
 3693SOL    HW215765   4.050   1.629   5.609 -0.9426  0.1402 -0.6017
 3694SOL     OW15766   5.875  10.526  10.314 -0.2159 -0.0646  0.5350
 3694SOL    HW115767   5.813  10.465  10.355 -0.6037  0.6618  1.0524
 3694SOL    HW215768   5.825  10.607  10.304  0.2430  0.1271 -0.3016
 3695SOL     OW15769   9.290  11.793   6.846 -0.1329 -0.0163 -0.1191
 3695SOL    HW115770   9.201  11.761   6.864  0.5203 -0.7951  2.0543
 3695SOL    HW215771   9.280  11.887   6.835 -1.2205 -0.0903  0.1249
 3696SOL     OW15772   2.499  11.225  10.638 -0.6820  0.1191 -0.9861
 3696SOL    HW115773   2.485  11.284  10.563  1.1747  0.8046 -0.8419
 3696SOL    HW215774   2.540  11.279  10.705  2.0371 -1.4635 -1.2038
 3697SOL     OW15775   9.887   9.498  11.947 -0.3825 -0.4813 -0.5635
 3697SOL    HW115776   9.861   9.586  11.921  2.4019  0.1795 -1.5607
 3697SOL    HW215777   9.871   9.494  12.041 -1.3897  0.7393 -0.6614
 3698SOL     OW15778   7.710   2.172  10.104 -0.0379 -0.2674 -0.3714
 3698SOL    HW115779   7.700   2.078  10.118 -2.1166 -0.2337 -1.2522
 3698SOL    HW215780   7.628   2.199  10.062 -0.3638  2.2950  1.6363
 3699SOL     OW15781   7.424   4.320   9.724 -0.5315  0.5081 -0.3107
 3699SOL    HW115782   7.440   4.415   9.723  1.7944  0.1954  0.4895
 3699SOL    HW215783   7.510   4.282   9.738 -1.4843 -1.7408 -0.1980
 3700SOL     OW15784   6.387   5.122   8.286 -0.5029  0.6109  0.3754
 3700SOL    HW115785   6.469   5.083   8.318 -0.6682  1.5311  2.0438
 3700SOL    HW215786   6.326   5.112   8.359 -1.1543  2.0704  0.0656
 3701SOL     OW15787   2.916   5.837   4.082  0.1578  0.7461  0.7314
 3701SOL    HW115788   2.845   5.871   4.026  0.2194  0.0147  0.1964
 3701SOL    HW215789   2.961   5.916   4.113 -0.8485  1.2212  1.0257
 3702SOL     OW15790   9.724   9.045   1.236 -0.2529  0.0766  0.3802
 3702SOL    HW115791   9.740   9.036   1.142 -0.1259  2.0312  0.1646
 3702SOL    HW215792   9.800   9.005   1.277  0.2823  0.2760 -0.3866
 3703SOL     OW15793   5.190   4.298   9.574 -0.0406 -0.1102  0.0974
 3703SOL    HW115794   5.117   4.236   9.572 -2.1406  2.1625 -3.0121
 3703SOL    HW215795   5.174   4.350   9.653 -0.6914 -0.7767  0.4314
 3704SOL     OW15796   9.874   3.322   6.188  0.0240  0.3793 -0.3586
 3704SOL    HW115797   9.927   3.256   6.232 -0.4923 -0.2969 -0.7304
 3704SOL    HW215798   9.803   3.341   6.249  0.6018  1.1814  0.0801
 3705SOL     OW15799   5.813   3.348   2.305 -0.0669 -0.1405  0.5774
 3705SOL    HW115800   5.779   3.419   2.250  1.4632 -0.1288 -0.4251
 3705SOL    HW215801   5.895   3.382   2.341  0.3745 -1.1661  0.5816
 3706SOL     OW15802   7.762   6.679   8.069  0.7244 -0.2416 -0.5155
 3706SOL    HW115803   7.750   6.741   8.140  1.2788  1.2740 -1.7031
 3706SOL    HW215804   7.675   6.641   8.055  0.2567  0.6684 -0.1440
 3707SOL     OW15805   7.881   5.620   2.237  0.1046 -0.1164 -0.7173
 3707SOL    HW115806   7.790   5.598   2.253  0.4470 -0.0204  1.7634
 3707SOL    HW215807   7.907   5.568   2.161 -0.8619 -3.3820  1.0536
 3708SOL     OW15808  10.678   8.626  10.340 -0.5115 -0.2174  0.6584
 3708SOL    HW115809  10.748   8.567  10.369 -0.0897 -0.3717 -0.5899
 3708SOL    HW215810  10.600   8.596  10.387  0.1922 -0.2083  1.8720
 3709SOL     OW15811  10.729   6.277   4.714 -0.7033  0.2062  0.1393
 3709SOL    HW115812  10.756   6.278   4.806 -0.0545  3.2904  0.0488
 3709SOL    HW215813  10.804   6.315   4.668 -2.1034  1.4025 -1.2483
 3710SOL     OW15814   5.620   3.786   8.393 -0.5688 -0.2427 -0.1914
 3710SOL    HW115815   5.546   3.753   8.341 -0.2779 -0.6151 -0.3747
 3710SOL    HW215816   5.580   3.846   8.456 -0.8239  0.9728 -1.4641
 3711SOL     OW15817   8.643   6.417   2.467  0.1934 -0.1864 -0.2139
 3711SOL    HW115818   8.686   6.502   2.480 -0.8138  0.5967 -1.6059
 3711SOL    HW215819   8.682   6.383   2.386  0.8676 -1.2545  0.5423
 3712SOL     OW15820   9.668   0.204   9.733  0.3753 -0.0503 -0.5073
 3712SOL    HW115821   9.639   0.222   9.644 -0.8937  0.4085 -0.0199
 3712SOL    HW215822   9.744   0.262   9.745  1.3260 -1.0111 -1.6816
 3713SOL     OW15823   8.989   5.724   0.525  0.5811  0.0900 -0.1728
 3713SOL    HW115824   9.044   5.801   0.509  1.0369 -0.3245 -0.6430
 3713SOL    HW215825   8.940   5.746   0.604  2.4610 -0.0847  1.0994
 3714SOL     OW15826   6.037   4.461   9.608 -0.0179 -0.1004  0.7499
 3714SOL    HW115827   6.065   4.468   9.517 -1.9522  0.5707  0.1467
 3714SOL    HW215828   6.116   4.437   9.656  1.1874  0.1816 -1.0010
 3715SOL     OW15829   9.369   9.413   8.249  0.2039 -0.4622  0.1306
 3715SOL    HW115830   9.290   9.432   8.197 -1.3450  2.2843  3.1280
 3715SOL    HW215831   9.422   9.493   8.243  2.3081 -1.8510 -0.9009
 3716SOL     OW15832   9.976  11.790   4.761  0.7321  0.2675 -0.0340
 3716SOL    HW115833   9.939  11.876   4.740  0.5859  0.2031 -0.0412
 3716SOL    HW215834  10.066  11.809   4.787  0.4500  0.5269  0.8147
 3717SOL     OW15835   2.884   5.221   8.625  0.0012  0.4897  0.3311
 3717SOL    HW115836   2.833   5.269   8.559 -0.0858  2.5845  1.8011
 3717SOL    HW215837   2.961   5.277   8.640  0.8203 -0.7432  0.8787
 3718SOL     OW15838   8.571   2.842   9.148 -0.8730  0.6600 -0.1425
 3718SOL    HW115839   8.541   2.835   9.057 -2.5037  1.0560  0.3246
 3718SOL    HW215840   8.490   2.842   9.200  0.0623 -2.1302  1.5316
 3719SOL     OW15841   6.505   9.260   3.627  0.2730 -0.2004 -0.3411
 3719SOL    HW115842   6.500   9.283   3.720 -0.1661 -0.5259 -0.2769
 3719SOL    HW215843   6.596   9.235   3.613 -0.0597 -2.0614  0.4769
 3720SOL     OW15844   4.880   6.028  11.357 -0.4269  0.4478 -0.1431
 3720SOL    HW115845   4.917   5.940  11.368  2.1448  1.2866 -1.2893
 3720SOL    HW215846   4.871   6.061  11.447  1.0973 -0.0544  0.2308
 3721SOL     OW15847   8.141   9.037   0.737  0.0548  0.2350  0.1484
 3721SOL    HW115848   8.210   9.071   0.794  0.7877  1.1218 -1.2119
 3721SOL    HW215849   8.128   9.106   0.672 -2.4901  0.3156  0.6268
 3722SOL     OW15850   1.293   0.491   9.460  0.3444  0.1331  0.7332
 3722SOL    HW115851   1.246   0.408   9.470  0.4488 -0.2626 -1.5767
 3722SOL    HW215852   1.240   0.541   9.398  1.7457  0.6332 -0.0959
 3723SOL     OW15853   8.114   5.712   0.292 -0.8847 -0.7388  0.2221
 3723SOL    HW115854   8.145   5.780   0.232  0.6822 -1.3880  0.2539
 3723SOL    HW215855   8.189   5.652   0.302 -1.7434 -1.6817  1.3240
 3724SOL     OW15856   5.402   3.572   5.477 -0.5231 -0.3741  0.3112
 3724SOL    HW115857   5.322   3.519   5.477  0.0317 -1.2504 -0.3444
 3724SOL    HW215858   5.462   3.524   5.534  0.1088 -0.6674 -0.5736
 3725SOL     OW15859   7.242  10.000   6.738 -0.4619  0.1418  0.1709
 3725SOL    HW115860   7.281  10.033   6.820 -1.3131 -0.4337  0.8238
 3725SOL    HW215861   7.281   9.913   6.726  0.1293  0.4702 -0.3841
 3726SOL     OW15862   7.029   5.285   2.046  0.1832 -0.0118 -0.5726
 3726SOL    HW115863   6.948   5.235   2.053 -0.1773  0.3727 -1.8043
 3726SOL    HW215864   7.045   5.293   1.952  1.1206  0.7788 -0.3662
 3727SOL     OW15865   0.421   5.683  11.408 -0.2055  0.2161 -0.5358
 3727SOL    HW115866   0.356   5.692  11.339 -0.3019 -0.6874 -0.5650
 3727SOL    HW215867   0.488   5.748  11.386 -0.7983  0.7418 -0.8307
 3728SOL     OW15868  11.432   4.344   7.864 -0.0776  0.0409  0.2589
 3728SOL    HW115869  11.409   4.392   7.784  0.1851  0.2591  0.3119
 3728SOL    HW215870  11.395   4.396   7.935 -1.7830 -1.0318  0.1917
 3729SOL     OW15871  10.448   6.530   7.756  0.5514 -0.4448  0.1458
 3729SOL    HW115872  10.482   6.443   7.735  0.1841 -0.5590  0.0121
 3729SOL    HW215873  10.393   6.553   7.681  0.5450 -0.1535  0.2404
 3730SOL     OW15874   3.405   6.432   9.912 -0.2410  0.4014  0.1155
 3730SOL    HW115875   3.372   6.416   9.824 -1.8072 -1.3418  0.9575
 3730SOL    HW215876   3.336   6.401   9.970  0.3647  2.3219  1.9995
 3731SOL     OW15877   2.664   7.327  10.220 -0.4156 -0.6741  0.2902
 3731SOL    HW115878   2.746   7.377  10.218 -1.4847  1.1260 -0.1022
 3731SOL    HW215879   2.637   7.330  10.312 -2.6594  3.3317 -0.2903
 3732SOL     OW15880   3.307   1.566   3.636  0.1364  0.1315 -0.1015
 3732SOL    HW115881   3.222   1.559   3.680  0.4140  1.0672  0.6138
 3732SOL    HW215882   3.313   1.659   3.611  1.3193  0.2683  0.6342
 3733SOL     OW15883   2.645   6.161   0.167  0.4005  0.6973  0.1266
 3733SOL    HW115884   2.724   6.194   0.125  1.2346  0.2908  1.3256
 3733SOL    HW215885   2.675   6.127   0.251 -1.1718  1.2660  0.9646
 3734SOL     OW15886   5.796  10.360   1.948 -0.5588  0.1415  0.4422
 3734SOL    HW115887   5.890  10.363   1.963 -0.2228  0.8636 -1.4861
 3734SOL    HW215888   5.784  10.283   1.892 -0.7459  1.4028 -1.3174
 3735SOL     OW15889  10.481   8.436  11.478 -0.0835 -0.4501 -0.5841
 3735SOL    HW115890  10.432   8.376  11.422  1.9395 -2.4335 -0.3825
 3735SOL    HW215891  10.515   8.503  11.418  1.1209 -1.9154 -1.6389
 3736SOL     OW15892   2.171   4.994   6.210  0.2939 -0.3774 -0.4673
 3736SOL    HW115893   2.147   4.967   6.298  0.8847  0.4485 -0.0317
 3736SOL    HW215894   2.155   4.917   6.155 -1.0244 -0.5898  0.1844
 3737SOL     OW15895   2.656   7.182   3.877 -0.3303  0.6304  0.0136
 3737SOL    HW115896   2.615   7.095   3.878  1.6151 -0.4448 -2.6501
 3737SOL    HW215897   2.673   7.201   3.969 -1.7208 -1.3524  0.7489
 3738SOL     OW15898  10.150   5.318  10.291 -0.0800  0.1060  0.5704
 3738SOL    HW115899  10.220   5.371  10.253  0.6908 -1.6389 -0.5627
 3738SOL    HW215900  10.071   5.371  10.279  0.7660  1.3521  0.2767
 3739SOL     OW15901   6.918  10.471   9.067  0.3925  0.2960 -0.5271
 3739SOL    HW115902   6.989  10.448   9.008  1.4043  1.3615  0.2269
 3739SOL    HW215903   6.925  10.566   9.077  0.3869  0.1307  1.4490
 3740SOL     OW15904   4.301   5.156   0.221 -0.1161  0.3920  0.5093
 3740SOL    HW115905   4.371   5.161   0.156  1.1166  0.5942  1.8024
 3740SOL    HW215906   4.285   5.247   0.246 -1.8276  0.4753 -0.7493
 3741SOL     OW15907   2.625   8.281   6.834 -0.5918 -0.1518 -0.0873
 3741SOL    HW115908   2.545   8.294   6.782 -1.0776 -1.6342  0.2157
 3741SOL    HW215909   2.600   8.214   6.898  1.4461 -2.2808 -1.3472
 3742SOL     OW15910   8.094   5.979   1.252  0.0176  0.7077  0.5912
 3742SOL    HW115911   8.053   5.963   1.167  1.6757 -0.6872 -0.0091
 3742SOL    HW215912   8.026   5.957   1.315 -0.3927 -1.0257 -0.3660
 3743SOL     OW15913   2.112   2.769   4.830 -0.1650 -0.2957 -0.2178
 3743SOL    HW115914   2.111   2.794   4.922  1.8671 -1.9816  0.3453
 3743SOL    HW215915   2.120   2.674   4.830  1.7733 -0.2256 -2.0432
 3744SOL     OW15916   7.103   7.437  11.508  0.0448 -0.0719  0.3880
 3744SOL    HW115917   7.136   7.517  11.549 -1.6354  1.2523 -0.7256
 3744SOL    HW215918   7.173   7.411  11.448  1.2951 -0.4112  1.9159
 3745SOL     OW15919   2.923   3.718   9.699  0.3328  0.6643  0.5579
 3745SOL    HW115920   2.918   3.807   9.734 -3.5231  1.4445 -1.4477
 3745SOL    HW215921   2.870   3.665   9.759 -1.1591  0.7417 -0.6341
 3746SOL     OW15922   1.185   1.703   9.440 -0.2727  0.3760  0.1344
 3746SOL    HW115923   1.201   1.780   9.385  0.5039  1.3658  1.6612
 3746SOL    HW215924   1.272   1.668   9.460 -0.6460 -1.4608 -1.2326
 3747SOL     OW15925   7.141   0.853   8.847 -0.2103  0.0110  0.5512
 3747SOL    HW115926   7.218   0.801   8.826  1.2244  2.2545 -0.1389
 3747SOL    HW215927   7.088   0.851   8.767  0.7946  1.1419 -0.1712
 3748SOL     OW15928  10.789   5.078  11.645  0.4883  0.0434 -0.6680
 3748SOL    HW115929  10.726   5.007  11.656  1.0986 -0.6054 -1.2440
 3748SOL    HW215930  10.835   5.084  11.729  1.1430 -0.9546 -0.9400
 3749SOL     OW15931   1.863   0.122  11.749 -0.0376 -0.2219  0.0326
 3749SOL    HW115932   1.787   0.166  11.712  0.1610  0.7825  0.7902
 3749SOL    HW215933   1.912   0.191  11.793  0.2774 -1.1799  1.2572
 3750SOL     OW15934   4.857   8.382   4.182  0.1506  0.4752  0.1408
 3750SOL    HW115935   4.792   8.450   4.200 -0.8154 -0.3833  0.0574
 3750SOL    HW215936   4.871   8.340   4.267 -1.5475 -1.1268 -0.2858
 3751SOL     OW15937   0.876   1.437   3.132  0.2019 -0.7038 -0.1190
 3751SOL    HW115938   0.853   1.511   3.188  0.1332  1.1453 -2.3878
 3751SOL    HW215939   0.970   1.425   3.146  0.3771  0.3607 -0.2416
 3752SOL     OW15940  10.758   3.492  10.489 -0.1561  0.0212  0.1446
 3752SOL    HW115941  10.771   3.404  10.526  1.2183 -0.2744 -0.9286
 3752SOL    HW215942  10.814   3.548  10.541  0.5353 -0.1149 -0.4331
 3753SOL     OW15943  10.946  10.699   5.843  0.1331  0.1969 -0.3285
 3753SOL    HW115944  10.965  10.608   5.865  0.2947  0.1657 -0.5953
 3753SOL    HW215945  11.031  10.743   5.845 -0.0662  0.5769  0.8422
 3754SOL     OW15946   5.339   3.241   5.620 -0.0367 -0.5406  0.6693
 3754SOL    HW115947   5.280   3.277   5.686 -0.2757  0.5924 -0.1382
 3754SOL    HW215948   5.403   3.190   5.670  0.1517  0.7919  1.8444
 3755SOL     OW15949  11.624   6.717   4.752  0.5190 -0.0977  0.3271
 3755SOL    HW115950  11.709   6.714   4.796  0.5428  0.8841  0.3706
 3755SOL    HW215951  11.641   6.759   4.668  0.0539  0.1981  0.3793
 3756SOL     OW15952   9.316   6.303   8.935 -0.7143 -0.1613 -0.3206
 3756SOL    HW115953   9.334   6.237   9.002 -0.2953 -1.2647 -1.4929
 3756SOL    HW215954   9.399   6.351   8.926 -0.9058  0.3014  0.2478
 3757SOL     OW15955   0.828   9.006  11.270 -0.4864  0.6248  0.0220
 3757SOL    HW115956   0.870   9.054  11.198 -1.9537  0.0169 -1.3095
 3757SOL    HW215957   0.775   8.939  11.226  0.8658 -1.7439  1.7986
 3758SOL     OW15958   8.152   0.615   9.202  0.4210  0.2397  0.0682
 3758SOL    HW115959   8.233   0.644   9.244  0.5505 -0.9847  0.7261
 3758SOL    HW215960   8.178   0.593   9.113  0.6227  0.7055  0.0077
 3759SOL     OW15961   8.657   4.784   0.897 -0.2943  0.3559  0.0241
 3759SOL    HW115962   8.718   4.823   0.960 -0.9806 -1.3841  1.8608
 3759SOL    HW215963   8.582   4.757   0.950 -1.8863  0.8014 -1.9123
 3760SOL     OW15964   1.085   1.616   3.967  0.2525 -0.4054  0.3695
 3760SOL    HW115965   1.094   1.535   3.916 -0.4653 -0.0202 -0.3817
 3760SOL    HW215966   1.012   1.662   3.927 -0.6898 -0.3222  2.0596
 3761SOL     OW15967   2.364   6.222  11.573 -0.3707  0.5376 -0.3252
 3761SOL    HW115968   2.390   6.283  11.641 -3.0988  0.6922  0.7032
 3761SOL    HW215969   2.373   6.136  11.613  2.6656  0.1674 -1.4994
 3762SOL     OW15970  10.117   5.250   2.509  0.0875  0.4326 -0.4548
 3762SOL    HW115971  10.060   5.318   2.472  0.8050  0.8201 -0.8558
 3762SOL    HW215972  10.205   5.288   2.507  0.3419 -0.0767  0.3627
 3763SOL     OW15973   7.956   2.177   6.255 -0.3149 -0.3157  0.2084
 3763SOL    HW115974   8.005   2.155   6.176 -0.5810 -0.0325 -0.0387
 3763SOL    HW215975   8.020   2.171   6.326 -0.3038 -1.5910  0.1161
 3764SOL     OW15976   1.413   1.031   7.444  0.3339 -0.3528 -0.4504
 3764SOL    HW115977   1.365   1.114   7.446  2.3245  0.9063 -1.3143
 3764SOL    HW215978   1.472   1.036   7.519 -0.0005 -1.3378 -0.1048
 3765SOL     OW15979   3.876   6.152   7.909  0.5878 -0.1678 -0.6427
 3765SOL    HW115980   3.869   6.138   7.815  1.7055 -2.0342 -0.5113
 3765SOL    HW215981   3.789   6.129   7.943  0.2552  0.2716 -1.1802
 3766SOL     OW15982  10.566   3.056   5.713 -0.2500  0.1384 -0.4509
 3766SOL    HW115983  10.474   3.082   5.712  0.0345  1.2367  0.2593
 3766SOL    HW215984  10.575   2.998   5.637 -1.4701  0.1843 -0.6540
 3767SOL     OW15985   1.385   9.658   7.450  0.0094 -0.2780 -0.0635
 3767SOL    HW115986   1.386   9.579   7.396  0.9986 -1.5584  1.7027
 3767SOL    HW215987   1.478   9.677   7.465 -0.2236 -0.4110  1.7314
 3768SOL     OW15988   5.009   9.596   2.928  0.8939 -0.5249  0.6189
 3768SOL    HW115989   5.038   9.505   2.936  2.4086 -0.0514  0.9720
 3768SOL    HW215990   4.914   9.593   2.937  0.7765 -2.2162 -0.8031
 3769SOL     OW15991   5.093   0.490   6.771  0.6660  0.2172 -0.0255
 3769SOL    HW115992   5.095   0.424   6.841  0.7146 -1.8719 -1.8519
 3769SOL    HW215993   5.007   0.479   6.730 -0.1202  2.7216  0.8053
 3770SOL     OW15994   4.398   0.294   2.596  1.1117 -0.0484 -0.7216
 3770SOL    HW115995   4.425   0.217   2.546  0.9643  0.2269 -1.2263
 3770SOL    HW215996   4.358   0.352   2.532 -1.4196 -0.7695  0.1035
 3771SOL     OW15997   9.974   3.338   7.434 -0.7123 -0.0428 -0.2618
 3771SOL    HW115998   9.888   3.379   7.424 -0.0983  1.0727 -1.1422
 3771SOL    HW215999  10.031   3.408   7.465  0.5273  0.0236 -2.4806
 3772SOL     OW16000  11.598   1.182   2.903  0.1544 -0.1031  0.0689
 3772SOL    HW116001  11.663   1.111   2.898 -0.1694 -0.4163  0.3147
 3772SOL    HW216002  11.532   1.150   2.965  0.5413  0.8429  1.0033
 3773SOL     OW16003  10.065   4.095   8.998 -0.2973  0.0556  0.3141
 3773SOL    HW116004  10.034   4.185   8.982  1.6041  1.0085  1.6158
 3773SOL    HW216005  10.036   4.047   8.921 -0.9469  1.9016 -0.6773
 3774SOL     OW16006   6.881   4.951   5.051 -0.4294  0.0232  0.3808
 3774SOL    HW116007   6.899   4.865   5.088  1.8547 -0.0479 -0.7222
 3774SOL    HW216008   6.906   4.943   4.958 -1.4941  1.4890 -0.0696
 3775SOL     OW16009   1.610   8.232   2.400 -0.2450 -0.3906  0.5573
 3775SOL    HW116010   1.539   8.288   2.432  0.2851  0.5194  0.2130
 3775SOL    HW216011   1.579   8.198   2.317  0.1645  1.0062 -0.2108
 3776SOL     OW16012  11.902   3.254   8.989 -0.2891 -0.1130  0.3716
 3776SOL    HW116013  11.943   3.234   8.905  1.1231 -0.0604  1.0083
 3776SOL    HW216014  11.945   3.194   9.051 -0.7310  0.3867  1.1779
 3777SOL     OW16015   6.668   0.759   3.941 -0.1220 -0.2584 -0.1787
 3777SOL    HW116016   6.723   0.694   3.985  1.1106  0.8538 -0.0320
 3777SOL    HW216017   6.582   0.717   3.934 -0.2227 -0.7292  2.7491
 3778SOL     OW16018   0.509  10.382   3.253 -0.2541 -0.0751 -0.2216
 3778SOL    HW116019   0.450  10.315   3.287  1.4684 -1.2824  0.5083
 3778SOL    HW216020   0.586  10.378   3.310 -0.4707  3.2438  0.4995
 3779SOL     OW16021   9.560   4.452   8.458  0.2696  0.3569  0.7266
 3779SOL    HW116022   9.654   4.451   8.440  0.2934  0.8053  0.8336
 3779SOL    HW216023   9.519   4.437   8.373  0.4669 -2.1225  0.9814
 3780SOL     OW16024   8.741   7.073   8.716 -0.0081  0.0714 -0.4092
 3780SOL    HW116025   8.757   6.992   8.764  0.1059  1.3781  1.8820
 3780SOL    HW216026   8.655   7.061   8.676 -0.0644 -1.1032  0.0213
 3781SOL     OW16027  10.501   5.680   3.638 -0.0823  0.0575  0.0066
 3781SOL    HW116028  10.469   5.593   3.615  0.2925 -0.1175  0.1334
 3781SOL    HW216029  10.519   5.722   3.554 -0.7067  0.1829 -0.0655
 3782SOL     OW16030   5.572   8.121   0.634  0.6736  0.8206  0.5035
 3782SOL    HW116031   5.497   8.073   0.667  1.2865  0.8917  2.0743
 3782SOL    HW216032   5.634   8.054   0.607  0.2892  0.7665 -0.3055
 3783SOL     OW16033   1.687  11.081   6.268  0.0122  0.1322 -0.5775
 3783SOL    HW116034   1.774  11.091   6.229  0.9385 -3.6449  0.0798
 3783SOL    HW216035   1.654  10.998   6.233 -2.0884  0.0424  1.3353
 3784SOL     OW16036   1.031  11.503   0.834  0.0800  0.0529  0.1825
 3784SOL    HW116037   0.996  11.592   0.826  0.3612  0.0799 -0.9133
 3784SOL    HW216038   1.125  11.516   0.849  0.3765 -0.0552 -1.4439
 3785SOL     OW16039   6.441   9.688   7.497 -0.2139  0.0152  0.1632
 3785SOL    HW116040   6.416   9.702   7.589 -0.3800 -0.3922  0.1826
 3785SOL    HW216041   6.365   9.645   7.458  0.2740 -0.8070  0.1077
 3786SOL     OW16042   2.451   0.573   9.306 -0.1429  0.0402 -0.5771
 3786SOL    HW116043   2.538   0.533   9.302 -0.6054 -1.0860  0.0544
 3786SOL    HW216044   2.392   0.503   9.279 -0.9555  0.4070  0.2257
 3787SOL     OW16045   2.772   3.313   3.843 -0.2545 -0.1784 -0.0235
 3787SOL    HW116046   2.684   3.349   3.833 -0.1103 -0.2387 -1.8263
 3787SOL    HW216047   2.785   3.260   3.765  1.2751 -0.4263  0.3732
 3788SOL     OW16048   0.871   2.362  11.423 -0.3890  0.4177 -0.5136
 3788SOL    HW116049   0.808   2.359  11.351 -1.3150 -1.0262  0.3148
 3788SOL    HW216050   0.946   2.313  11.390 -0.9333 -0.5096 -0.4045
 3789SOL     OW16051   0.298   7.399   6.524  0.3155  0.1408  0.5851
 3789SOL    HW116052   0.242   7.322   6.537 -0.4908  0.7846  1.0407
 3789SOL    HW216053   0.238   7.467   6.493  1.2859  0.1522 -1.4608
 3790SOL     OW16054  10.435   4.710   6.404 -0.2077 -0.2573 -0.2648
 3790SOL    HW116055  10.527   4.688   6.394 -1.1669 -3.5872 -4.1237
 3790SOL    HW216056  10.420   4.780   6.340 -0.7958 -1.5477 -1.5774
 3791SOL     OW16057   6.938   9.781   4.866 -0.2228 -0.5851 -0.4356
 3791SOL    HW116058   6.947   9.799   4.773 -1.1778 -2.5665 -0.9802
 3791SOL    HW216059   6.854   9.820   4.890 -0.8679 -1.6600 -0.8816
 3792SOL     OW16060  10.055   9.051   8.290  0.3796  0.1630 -0.3455
 3792SOL    HW116061  10.067   8.972   8.343  0.7067  0.2854 -0.2320
 3792SOL    HW216062   9.963   9.073   8.299  0.7888  1.2223  1.6359
 3793SOL     OW16063   0.412   1.189   1.796 -0.4580  0.1746  0.6939
 3793SOL    HW116064   0.380   1.138   1.721 -2.1255  0.3389  1.2596
 3793SOL    HW216065   0.414   1.126   1.868 -1.4684  0.6231  1.1330
 3794SOL     OW16066   8.987   4.117   2.228 -0.1551  0.1967 -0.2595
 3794SOL    HW116067   8.990   4.110   2.323 -0.9413  0.9444 -0.1721
 3794SOL    HW216068   9.048   4.050   2.197 -0.0647 -0.2016  0.7582
 3795SOL     OW16069   7.894  10.638   2.484 -0.3685  0.4702 -0.1580
 3795SOL    HW116070   7.837  10.618   2.409 -0.2197  0.0882 -0.1702
 3795SOL    HW216071   7.955  10.704   2.450 -1.1914  1.3503  0.0332
 3796SOL     OW16072   3.328   9.481   3.928  0.1250  0.1107  0.1401
 3796SOL    HW116073   3.422   9.475   3.910  0.3959  0.7729  1.2224
 3796SOL    HW216074   3.323   9.504   4.021 -1.0877  0.8807 -0.0921
 3797SOL     OW16075  11.683   8.117   2.383 -0.3533 -0.3872 -0.1173
 3797SOL    HW116076  11.661   8.132   2.475 -0.5876 -0.6975 -0.1206
 3797SOL    HW216077  11.615   8.057   2.352 -1.6135  1.4975 -1.1254
 3798SOL     OW16078   4.541  10.780   5.961  0.4173  0.5976  0.1699
 3798SOL    HW116079   4.580  10.820   6.039  0.7437  0.8358 -0.1088
 3798SOL    HW216080   4.480  10.715   5.995  1.5380 -0.2542  0.6292
 3799SOL     OW16081   7.890   3.733   9.649 -0.0840 -0.1538 -0.2452
 3799SOL    HW116082   7.914   3.725   9.556 -1.8158 -2.6561 -0.5949
 3799SOL    HW216083   7.973   3.728   9.696  0.8568  1.4940 -1.6502
 3800SOL     OW16084   4.140   1.518   4.064 -0.4451 -0.4146 -0.0431
 3800SOL    HW116085   4.124   1.438   4.114  1.0030 -0.9378 -0.3732
 3800SOL    HW216086   4.158   1.584   4.131 -1.2372 -0.4536  0.2166
 3801SOL     OW16087   0.984  10.877   4.076 -0.3503 -0.2038  0.4430
 3801SOL    HW116088   0.969  10.940   4.006 -0.5891 -0.0897  0.5965
 3801SOL    HW216089   1.080  10.870   4.081 -0.3336 -0.2411  0.0833
 3802SOL     OW16090   0.550   0.628   2.417 -0.1907  0.5003  0.4120
 3802SOL    HW116091   0.555   0.720   2.390  1.3762  0.4041  0.2337
 3802SOL    HW216092   0.642   0.599   2.416 -0.6084 -0.8966  1.0434
 3803SOL     OW16093  10.142   9.162   4.019 -0.4143  0.3106  0.3717
 3803SOL    HW116094  10.117   9.239   3.968  0.0834  0.9927  1.1296
 3803SOL    HW216095  10.223   9.132   3.977 -0.1068  0.7571  0.6362
 3804SOL     OW16096   6.566   0.182  10.228  0.3480  0.4180  0.0739
 3804SOL    HW116097   6.499   0.228  10.178  1.1516  1.1131 -0.3996
 3804SOL    HW216098   6.623   0.252  10.260  0.3847 -0.1034  1.1560
 3805SOL     OW16099   2.119   1.503  10.567 -0.0028 -0.3394 -0.0895
 3805SOL    HW116100   2.060   1.458  10.507 -0.6479 -0.8921  0.9494
 3805SOL    HW216101   2.074   1.585  10.588  0.7147  0.3756 -1.1755
 3806SOL     OW16102   7.803   9.727   8.406  0.1203  0.0844  0.6320
 3806SOL    HW116103   7.825   9.635   8.422  1.0895  0.3523  0.9481
 3806SOL    HW216104   7.758   9.756   8.485 -0.6008 -0.2325  0.3459
 3807SOL     OW16105   4.306  10.451   0.130 -0.7751 -0.3015 -0.0993
 3807SOL    HW116106   4.292  10.368   0.175  2.3501 -1.5062 -1.0944
 3807SOL    HW216107   4.345  10.426   0.047  0.1192  2.1767 -0.4840
 3808SOL     OW16108   5.912   4.057   7.147 -0.0429  0.5585  0.1497
 3808SOL    HW116109   5.845   3.996   7.179  0.3533  1.4536  2.8680
 3808SOL    HW216110   5.974   4.065   7.219  0.5335  3.3037 -0.5580
 3809SOL     OW16111  11.316   2.739  10.779  0.2063  0.3433  0.6261
 3809SOL    HW116112  11.351   2.827  10.765  0.5731  0.5058  2.3704
 3809SOL    HW216113  11.237   2.752  10.831 -0.4656 -0.2791 -0.2207
 3810SOL     OW16114   3.960   6.038   7.672 -0.1886  0.2564 -0.4081
 3810SOL    HW116115   3.985   6.086   7.594 -0.6634  2.1064  0.5124
 3810SOL    HW216116   4.033   6.050   7.733 -0.1375 -0.5469 -0.2999
 3811SOL     OW16117   4.727  10.466   5.378  0.8308 -0.0441 -0.0194
 3811SOL    HW116118   4.779  10.546   5.381  2.5723 -1.1244 -0.1533
 3811SOL    HW216119   4.780  10.400   5.423 -0.3600 -1.2267 -0.2723
 3812SOL     OW16120   8.493   9.321   4.313  0.1245 -0.4830 -0.6606
 3812SOL    HW116121   8.505   9.381   4.239  1.7598  1.0482  0.7712
 3812SOL    HW216122   8.533   9.239   4.283  0.3296 -0.0372 -1.6652
 3813SOL     OW16123  10.963   6.033   8.029 -0.1977 -0.7918 -0.4178
 3813SOL    HW116124  11.020   5.961   8.056 -0.3879 -0.7399  0.1367
 3813SOL    HW216125  10.875   5.995   8.028 -0.4782 -0.2694  1.1302
 3814SOL     OW16126   6.592  11.463   6.368  0.4021 -0.3213 -0.2419
 3814SOL    HW116127   6.509  11.450   6.322  1.3265 -2.1248 -1.5315
 3814SOL    HW216128   6.566  11.492   6.456 -1.5491 -0.1018 -0.8421
 3815SOL     OW16129  10.164   6.917   4.874 -0.3711  0.5042 -0.6484
 3815SOL    HW116130  10.084   6.918   4.822  0.5543 -0.5662 -2.1958
 3815SOL    HW216131  10.225   6.974   4.826  1.0082 -1.7296 -1.7216
 3816SOL     OW16132   0.852   2.089   2.804  0.2268  0.5008 -0.2733
 3816SOL    HW116133   0.919   2.063   2.868  0.7414  0.6131 -0.7590
 3816SOL    HW216134   0.775   2.037   2.828  0.6473 -0.0297 -0.0379
 3817SOL     OW16135   6.909   7.465   8.314 -0.4673 -0.4153 -0.4530
 3817SOL    HW116136   6.945   7.379   8.292  1.2648  0.0568  0.3882
 3817SOL    HW216137   6.929   7.476   8.407  0.7925  1.5425 -0.9015
 3818SOL     OW16138   2.422   1.651   2.388 -0.5735 -0.0519  0.8645
 3818SOL    HW116139   2.431   1.746   2.388 -1.4288  0.0686 -0.6840
 3818SOL    HW216140   2.366   1.632   2.464 -0.1238  0.6379  1.3764
 3819SOL     OW16141   8.067   2.425   7.723  0.0329 -0.1267 -0.3006
 3819SOL    HW116142   8.086   2.434   7.629 -0.7876 -0.2790 -0.4909
 3819SOL    HW216143   7.976   2.451   7.731 -0.1781 -1.0155  0.3092
 3820SOL     OW16144   2.271   0.219   7.432  0.4048  0.0927 -0.7063
 3820SOL    HW116145   2.260   0.255   7.520  0.6332 -0.3254 -0.5066
 3820SOL    HW216146   2.267   0.124   7.444  3.3294 -0.1170 -0.7152
 3821SOL     OW16147   5.158  11.649   6.308 -0.1998  0.1828 -0.2918
 3821SOL    HW116148   5.212  11.607   6.376 -1.9510 -0.9604  0.4767
 3821SOL    HW216149   5.190  11.739   6.305  0.5519  0.0226  1.4155
 3822SOL     OW16150   4.971   1.897   7.661  0.4974  0.0367  0.4746
 3822SOL    HW116151   4.975   1.864   7.751  0.8402  1.2034  0.9065
 3822SOL    HW216152   4.989   1.820   7.607  0.8430 -0.5775  1.4261
 3823SOL     OW16153   0.513   4.366   0.206  0.2380  0.6767 -0.5481
 3823SOL    HW116154   0.527   4.427   0.278  0.9041  0.4523 -0.4859
 3823SOL    HW216155   0.418   4.366   0.193  0.1715  1.1973 -0.0916
 3824SOL     OW16156   6.979   6.320   1.258  0.1587  1.3302 -0.5554
 3824SOL    HW116157   7.012   6.279   1.179  0.2365 -1.8824  0.9836
 3824SOL    HW216158   7.055   6.327   1.316 -0.4789  0.4944  0.4267
 3825SOL     OW16159   1.689   6.652   6.694  0.3740  0.0463 -0.2453
 3825SOL    HW116160   1.714   6.571   6.738 -1.6514 -0.4703  0.0231
 3825SOL    HW216161   1.625   6.626   6.628 -1.7823  1.5856  1.1054
 3826SOL     OW16162   4.912   2.677   0.301 -0.4996  0.3085  0.2510
 3826SOL    HW116163   4.820   2.701   0.288 -0.6105  0.1725  0.7582
 3826SOL    HW216164   4.926   2.686   0.395 -0.4870 -1.3988  0.4489
 3827SOL     OW16165   7.658  10.002   7.265  0.5036 -0.4426  0.1058
 3827SOL    HW116166   7.689  10.087   7.233 -1.2301  0.2118  0.0732
 3827SOL    HW216167   7.698   9.993   7.351  2.5882 -0.7181 -0.8193
 3828SOL     OW16168   0.958   8.357   7.377 -0.1003 -0.2167  0.5899
 3828SOL    HW116169   1.052   8.377   7.382 -0.3777  2.5573 -2.2432
 3828SOL    HW216170   0.950   8.298   7.303 -0.6753  0.4549  0.1070
 3829SOL     OW16171   2.597   1.470   1.267  0.4413  0.0294  0.4980
 3829SOL    HW116172   2.611   1.557   1.304  0.4515  0.4648 -0.5041
 3829SOL    HW216173   2.503   1.464   1.254  0.1958 -0.8648  2.3202
 3830SOL     OW16174   9.336   4.047  10.341 -0.6670  0.4123  0.2260
 3830SOL    HW116175   9.387   4.059  10.260  0.3241  0.9643  0.9080
 3830SOL    HW216176   9.246   4.069  10.316 -0.2400  1.4149 -0.5324
 3831SOL     OW16177  11.314   5.526   2.827  0.1381 -0.3503  0.4695
 3831SOL    HW116178  11.361   5.468   2.886 -0.3038 -0.1091  1.0664
 3831SOL    HW216179  11.378   5.592   2.801 -0.1108  0.5897  2.0966
 3832SOL     OW16180   4.844   5.804   5.059  0.3707  0.2024 -0.0152
 3832SOL    HW116181   4.840   5.777   5.151 -2.4664 -1.7602 -0.5985
 3832SOL    HW216182   4.847   5.900   5.062  0.9304  0.1619  2.1054
 3833SOL     OW16183   6.397   7.936  11.967 -0.5446  0.0967 -0.2642
 3833SOL    HW116184   6.386   7.988  12.046 -0.8886  0.8855 -0.8111
 3833SOL    HW216185   6.485   7.958  11.936 -0.1728 -0.6835  0.2269
 3834SOL     OW16186  11.372   0.353   4.976  0.5499  0.2573 -0.4054
 3834SOL    HW116187  11.429   0.414   5.022 -1.0948  0.7848  0.9978
 3834SOL    HW216188  11.432   0.286   4.942  2.1343  1.4881 -0.1455
 3835SOL     OW16189   0.911   7.885  11.878 -0.2747 -0.1506 -0.4584
 3835SOL    HW116190   0.982   7.924  11.931  1.2088 -0.4548 -2.1368
 3835SOL    HW216191   0.905   7.942  11.801 -1.6728 -0.3144 -0.4920
 3836SOL     OW16192   4.575   1.767   9.608  0.7093 -0.3059 -0.2003
 3836SOL    HW116193   4.633   1.796   9.537 -2.0929 -0.6847 -2.8544
 3836SOL    HW216194   4.566   1.843   9.665  0.2723  1.2679 -2.2664
 3837SOL     OW16195   7.097   9.909   6.488 -0.0190 -0.0623 -0.3550
 3837SOL    HW116196   7.115   9.903   6.581 -1.7627 -2.1472 -0.0719
 3837SOL    HW216197   7.012   9.954   6.483  0.1562  0.2143 -0.9641
 3838SOL     OW16198   5.392  11.941   7.188 -0.5107 -0.4269 -0.4859
 3838SOL    HW116199   5.390  12.036   7.175 -1.0794 -0.5140 -1.1072
 3838SOL    HW216200   5.307  11.911   7.156  0.5246 -1.4084 -2.5241
 3839SOL     OW16201  11.778   4.750   0.323  0.2203 -0.1505 -0.0512
 3839SOL    HW116202  11.823   4.685   0.269  1.5241  0.4448  0.2913
 3839SOL    HW216203  11.775   4.712   0.410 -1.6990 -1.0191 -0.4381
 3840SOL     OW16204   3.721   4.050   1.927  0.6850 -0.0716  0.2659
 3840SOL    HW116205   3.641   4.046   1.979  0.8056 -0.3442  0.4330
 3840SOL    HW216206   3.731   4.143   1.906 -0.0392 -0.1080 -0.3264
 3841SOL     OW16207  10.208  11.131   5.167  0.4772  0.2020  0.5675
 3841SOL    HW116208  10.207  11.219   5.203 -2.2473  1.4500 -2.1445
 3841SOL    HW216209  10.116  11.111   5.148  1.1550 -2.6224 -0.3539
 3842SOL     OW16210   2.814   4.351   3.065 -0.3079 -0.0391  0.1496
 3842SOL    HW116211   2.854   4.437   3.077  1.7332 -1.0222  0.8442
 3842SOL    HW216212   2.880   4.289   3.096 -1.0496 -1.9632 -1.8352
 3843SOL     OW16213   4.152   0.899   7.100 -0.3185  0.6388 -0.1854
 3843SOL    HW116214   4.106   0.816   7.116  1.5132 -0.1834  1.1258
 3843SOL    HW216215   4.083   0.959   7.074 -1.9253 -0.9209  0.2409
 3844SOL     OW16216   1.355   5.600   3.118 -0.2724  0.2111 -0.2206
 3844SOL    HW116217   1.399   5.538   3.060  0.0527 -0.5409  0.8129
 3844SOL    HW216218   1.367   5.565   3.206 -3.4063 -0.3192  0.1113
 3845SOL     OW16219   3.171  11.726   0.538  0.2433 -0.1586  0.1220
 3845SOL    HW116220   3.225  11.787   0.588  2.4061 -0.8045 -1.2821
 3845SOL    HW216221   3.082  11.740   0.571  1.3046  0.5675  2.9484
 3846SOL     OW16222  11.402   0.337   8.053 -0.2287 -0.4168  0.1550
 3846SOL    HW116223  11.441   0.265   8.003  1.4567  1.4786 -1.4497
 3846SOL    HW216224  11.308   0.320   8.050 -0.0212 -1.5459 -1.8469
 3847SOL     OW16225   6.535   5.335   2.120 -0.4956  0.0453 -0.7733
 3847SOL    HW116226   6.520   5.413   2.174 -2.2471 -0.6846 -0.1185
 3847SOL    HW216227   6.630   5.327   2.115 -0.2840  1.6544 -0.0298
 3848SOL     OW16228  11.599   5.222  10.287  0.5384  0.5519  0.6506
 3848SOL    HW116229  11.678   5.181  10.322 -0.1003  0.1596  1.6610
 3848SOL    HW216230  11.540   5.231  10.362 -0.9673 -0.5142 -0.3357
 3849SOL     OW16231   3.502  11.088   3.567  0.1422 -0.2117  0.6254
 3849SOL    HW116232   3.537  11.012   3.520  0.7745  1.1601 -1.2492
 3849SOL    HW216233   3.419  11.058   3.602  0.5141 -1.8571  0.1995
 3850SOL     OW16234   8.901   7.298   6.535  0.5352 -0.3399 -0.0721
 3850SOL    HW116235   8.939   7.346   6.461 -0.5183 -0.1715 -0.5265
 3850SOL    HW216236   8.953   7.218   6.541  1.0768 -0.0308 -0.5404
 3851SOL     OW16237   2.922   4.248   2.265 -0.1418  0.4812  0.1417
 3851SOL    HW116238   2.975   4.189   2.319 -1.4311 -0.7834  0.0710
 3851SOL    HW216239   2.976   4.326   2.256  0.5329  0.3702  2.4424
 3852SOL     OW16240   8.247   6.480   7.861  0.0400 -0.5607 -0.6417
 3852SOL    HW116241   8.342   6.491   7.850  0.7565 -1.3083  3.4074
 3852SOL    HW216242   8.213   6.570   7.864  0.7737 -0.2594 -1.0505
 3853SOL     OW16243   8.642  10.397   1.632 -0.1146 -0.2967 -0.5866
 3853SOL    HW116244   8.690  10.358   1.706 -0.9192 -0.3572 -0.0922
 3853SOL    HW216245   8.555  10.417   1.667  0.2625  2.0009 -0.7976
 3854SOL     OW16246   9.273  11.290   2.706 -0.7688  0.1262 -0.0978
 3854SOL    HW116247   9.347  11.232   2.725  0.5560  1.5243 -0.7391
 3854SOL    HW216248   9.200  11.230   2.691  0.2840 -1.3318  0.2554
 3855SOL     OW16249   0.031   0.764  10.865  0.1282 -0.1882  0.3406
 3855SOL    HW116250   0.109   0.728  10.821  0.1393 -0.9825  0.9824
 3855SOL    HW216251   0.004   0.694  10.925 -1.5588 -0.2494 -0.4444
 3856SOL     OW16252   3.586   5.387   4.769  0.2128  0.0018  0.3954
 3856SOL    HW116253   3.648   5.425   4.831 -3.0298  1.0565  3.3197
 3856SOL    HW216254   3.519   5.454   4.757 -1.9715 -2.1003 -0.1131
 3857SOL     OW16255   5.602   7.082   9.302 -0.8036 -0.2302 -0.7761
 3857SOL    HW116256   5.583   6.996   9.264  1.8090 -0.4086 -1.8643
 3857SOL    HW216257   5.690   7.103   9.271  0.0748  1.2479  2.3263
 3858SOL     OW16258  11.534   5.978   2.559 -0.3647  0.2496 -0.1538
 3858SOL    HW116259  11.498   5.983   2.470  0.0415 -0.7470 -0.3879
 3858SOL    HW216260  11.463   6.010   2.615 -2.0990 -2.5898 -0.5173
 3859SOL     OW16261   7.928   3.654  10.541 -0.3189  0.1101  0.7585
 3859SOL    HW116262   7.852   3.666  10.484  0.0802 -0.4239  0.1003
 3859SOL    HW216263   7.935   3.559  10.551  0.8610  0.1073 -0.0175
 3860SOL     OW16264  11.274   5.161   0.672  0.2284  0.4375 -0.1123
 3860SOL    HW116265  11.273   5.068   0.648  0.6852  0.4793 -0.2972
 3860SOL    HW216266  11.208   5.168   0.742  2.4548 -0.6961  2.2963
 3861SOL     OW16267   7.063   3.913   9.986 -0.4977 -0.1822  0.4269
 3861SOL    HW116268   6.995   3.979   9.969  0.6195  0.8352 -0.2769
 3861SOL    HW216269   7.131   3.933   9.922 -0.0215 -1.9054  0.3705
 3862SOL     OW16270   0.215   8.956   5.607 -1.0386  0.1867  0.2411
 3862SOL    HW116271   0.221   8.864   5.583  0.4479  0.2673  0.2301
 3862SOL    HW216272   0.149   8.992   5.548  1.1683 -0.0183 -2.5370
 3863SOL     OW16273  11.818   8.154   1.508  0.3248 -0.1030  0.0100
 3863SOL    HW116274  11.882   8.090   1.540 -0.7119 -0.7627  0.8793
 3863SOL    HW216275  11.773   8.184   1.588 -0.1890  0.6192 -0.5387
 3864SOL     OW16276  11.423   5.963   8.524 -0.0622 -0.1003  0.2042
 3864SOL    HW116277  11.407   6.051   8.557  0.2570  0.8226 -1.9221
 3864SOL    HW216278  11.354   5.949   8.459  0.0345 -1.3237  0.3467
 3865SOL     OW16279   3.964   9.930   5.001  0.7277 -0.2216 -0.1469
 3865SOL    HW116280   3.955   9.888   4.915  0.9073 -1.6945  0.5130
 3865SOL    HW216281   4.029   9.999   4.987  0.6096 -0.3025 -1.2271
 3866SOL     OW16282  11.230   8.602  11.806  0.2057 -0.1941  0.0144
 3866SOL    HW116283  11.174   8.618  11.730 -0.6677  0.5326  0.7879
 3866SOL    HW216284  11.209   8.512  11.832  3.5859 -2.1561 -3.0686
 3867SOL     OW16285   5.950   5.735   7.185 -0.4646  0.0907 -0.0523
 3867SOL    HW116286   5.913   5.647   7.177  2.6492 -1.4236  0.3913
 3867SOL    HW216287   5.959   5.749   7.279 -0.4199  0.6504 -0.1361
 3868SOL     OW16288   4.606   5.457   7.077 -0.0029  0.2152 -0.1538
 3868SOL    HW116289   4.601   5.451   6.981  0.9797 -0.8464 -0.1565
 3868SOL    HW216290   4.523   5.421   7.107 -1.3626  2.7279 -0.6221
 3869SOL     OW16291   3.220   1.890   4.893 -0.0339  0.5505 -0.2048
 3869SOL    HW116292   3.194   1.947   4.965  1.9384  1.7682 -0.3875
 3869SOL    HW216293   3.190   1.937   4.815  0.0212  0.4621 -0.2787
 3870SOL     OW16294   8.682   4.082   8.910  0.5264  0.0779  0.1407
 3870SOL    HW116295   8.729   4.004   8.939  1.0765  0.3083 -0.1096
 3870SOL    HW216296   8.702   4.148   8.976 -1.7953 -0.5870  1.6294
 3871SOL     OW16297   0.062   7.378   0.637 -0.0327  0.2013  0.8639
 3871SOL    HW116298  -0.004   7.329   0.587  0.8149 -0.2614  0.1622
 3871SOL    HW216299   0.118   7.416   0.569  1.5057 -0.9343  1.4459
 3872SOL     OW16300   4.862   8.374   5.960 -0.5147  0.0397  0.1591
 3872SOL    HW116301   4.852   8.304   5.895 -0.7079 -0.1172  0.3558
 3872SOL    HW216302   4.821   8.450   5.921 -1.2934 -0.2467  0.4024
 3873SOL     OW16303  10.910  11.746   8.179  0.1399  0.5094 -0.0740
 3873SOL    HW116304  10.976  11.798   8.224 -1.3593  2.5211 -0.0552
 3873SOL    HW216305  10.960  11.693   8.117  1.7237  2.9392 -1.0302
 3874SOL     OW16306   0.223   6.176   0.591 -0.7776  0.3550  0.6024
 3874SOL    HW116307   0.226   6.081   0.599 -0.4742  0.4925  2.6121
 3874SOL    HW216308   0.287   6.196   0.522 -0.0825 -0.8266  0.8855
 3875SOL     OW16309   0.784   4.059   4.532 -0.4639  0.2636  0.3683
 3875SOL    HW116310   0.866   4.089   4.494 -0.3481  0.3795  0.7063
 3875SOL    HW216311   0.795   4.072   4.627 -0.3674 -0.9207  0.5392
 3876SOL     OW16312   1.724   8.740   9.773 -0.2644 -0.0048  0.3208
 3876SOL    HW116313   1.691   8.777   9.691  0.2666  1.3219  0.6788
 3876SOL    HW216314   1.804   8.790   9.791 -1.3535  1.0378  2.6049
 3877SOL     OW16315   8.356   9.655   2.381  0.8923  0.4751 -0.5685
 3877SOL    HW116316   8.304   9.710   2.439  0.7964 -1.9778  1.8222
 3877SOL    HW216317   8.292   9.613   2.323  0.3597 -0.9105  0.9608
 3878SOL     OW16318   0.641   3.574  11.005 -0.3868 -0.2495 -0.1599
 3878SOL    HW116319   0.662   3.525  11.085  0.6127  0.2479 -0.0966
 3878SOL    HW216320   0.631   3.506  10.938 -2.2658 -0.7406  0.5749
 3879SOL     OW16321   3.740  11.649   4.499 -0.1110  0.4516  0.5167
 3879SOL    HW116322   3.645  11.658   4.502 -0.1619 -0.2664  1.3348
 3879SOL    HW216323   3.761  11.641   4.405 -0.9468 -0.3779  0.3931
 3880SOL     OW16324   4.083   7.771   8.739  0.1476 -0.0316  0.1681
 3880SOL    HW116325   4.086   7.685   8.779 -1.1909 -0.6108 -0.8894
 3880SOL    HW216326   4.134   7.762   8.658 -0.0858  0.1234 -0.0003
 3881SOL     OW16327   9.220   3.058   3.145 -0.1577  0.1828 -0.2265
 3881SOL    HW116328   9.234   2.991   3.212 -0.1428 -1.9388 -2.2543
 3881SOL    HW216329   9.126   3.055   3.128  0.2705 -2.2102 -3.0114
 3882SOL     OW16330   7.825  11.668   3.222  0.4087 -0.1065  0.5195
 3882SOL    HW116331   7.888  11.718   3.274  0.8579 -0.9247  0.7880
 3882SOL    HW216332   7.772  11.734   3.177  1.9104  0.6142 -0.2682
 3883SOL     OW16333   5.671   1.494   0.635  0.0902 -0.3916  0.0767
 3883SOL    HW116334   5.688   1.527   0.547 -0.4901 -1.7818 -0.5902
 3883SOL    HW216335   5.611   1.558   0.674  1.7562  1.1834  0.1547
 3884SOL     OW16336   3.039   5.264   3.285 -0.0652 -0.2467  0.1543
 3884SOL    HW116337   3.097   5.337   3.305  0.9425 -1.1972  0.8463
 3884SOL    HW216338   2.970   5.269   3.352  0.3832 -0.3200  0.6296
 3885SOL     OW16339   4.930  10.611   3.408 -0.5601  0.0276 -0.1016
 3885SOL    HW116340   4.869  10.676   3.372 -1.1860 -0.3240  0.3097
 3885SOL    HW216341   4.934  10.630   3.501 -0.3964 -0.2413 -0.0517
 3886SOL     OW16342   7.739  11.549   5.538 -0.4278 -0.1674 -0.7450
 3886SOL    HW116343   7.778  11.506   5.614  1.4518  0.7890 -1.1090
 3886SOL    HW216344   7.695  11.479   5.491 -1.1794 -0.8723  0.9270
 3887SOL     OW16345   2.502   8.338   4.160  0.1958  0.5192 -0.0621
 3887SOL    HW116346   2.561   8.398   4.205 -0.8310  0.3690  1.5716
 3887SOL    HW216347   2.496   8.263   4.220 -1.4084  0.4179 -0.3292
 3888SOL     OW16348   7.369   8.770   4.863 -0.2454  0.0891 -0.2266
 3888SOL    HW116349   7.464   8.781   4.862 -0.0062 -1.5981 -0.1456
 3888SOL    HW216350   7.334   8.856   4.841  1.2668  0.9871  0.7433
 3889SOL     OW16351   5.055   3.867   1.405  0.1754  0.4746  0.0646
 3889SOL    HW116352   5.112   3.940   1.429  0.7077  0.0988 -0.0367
 3889SOL    HW216353   5.034   3.824   1.488  0.2779  0.4422  0.0741
 3890SOL     OW16354   7.857  10.213   6.757 -0.0605  0.0945 -0.1498
 3890SOL    HW116355   7.765  10.187   6.745 -0.0009 -0.7029  0.9766
 3890SOL    HW216356   7.854  10.309   6.756 -1.0718  0.1061  0.8120
 3891SOL     OW16357  11.301   7.799   7.082  0.1866 -0.3470 -0.2311
 3891SOL    HW116358  11.290   7.712   7.121  0.3532 -0.3685 -0.2295
 3891SOL    HW216359  11.388   7.796   7.042  0.8213  0.3101  1.0377
 3892SOL     OW16360   5.226  10.528  10.655 -0.2084  0.2179  0.1226
 3892SOL    HW116361   5.264  10.533  10.743 -1.0084  1.2592  0.4247
 3892SOL    HW216362   5.132  10.520  10.669 -0.2391 -1.3280 -0.6419
 3893SOL     OW16363   3.237  11.875   3.781 -0.4463 -0.0770  0.4522
 3893SOL    HW116364   3.190  11.884   3.863  1.1629  0.4780  1.3752
 3893SOL    HW216365   3.308  11.814   3.800 -0.9436 -1.1742 -0.9858
 3894SOL     OW16366   9.610   9.095   5.477 -0.0985 -0.1377  0.0290
 3894SOL    HW116367   9.674   9.065   5.412  0.4988 -1.2615  1.0862
 3894SOL    HW216368   9.527   9.055   5.449 -0.0394  0.1419 -0.5516
 3895SOL     OW16369   4.649   2.329   6.135 -0.6346  0.5152 -0.4218
 3895SOL    HW116370   4.654   2.423   6.118  0.0846  1.1226  2.5419
 3895SOL    HW216371   4.556   2.314   6.155 -0.3137  1.3507  2.1663
 3896SOL     OW16372   9.652   6.194  10.946  0.5982  0.6847 -0.1206
 3896SOL    HW116373   9.738   6.212  10.908  1.7343  0.8450  2.3304
 3896SOL    HW216374   9.661   6.106  10.984  0.2164  1.3181  1.4840
 3897SOL     OW16375  10.767   6.707  10.299  0.6695  0.1424 -0.0126
 3897SOL    HW116376  10.812   6.697  10.383  1.1170  0.2946 -0.2330
 3897SOL    HW216377  10.684   6.748  10.321  1.1950  1.0911  0.2467
 3898SOL     OW16378   1.272   1.342  10.380  0.5325  0.1363  1.0820
 3898SOL    HW116379   1.366   1.354  10.365  0.4128  0.4376  0.5574
 3898SOL    HW216380   1.250   1.409  10.445  0.4098  0.9997  0.1735
 3899SOL     OW16381   0.305   0.715   8.256  0.6490 -0.0607  0.1831
 3899SOL    HW116382   0.350   0.731   8.174  0.3779 -1.6733 -0.3173
 3899SOL    HW216383   0.373   0.721   8.323  1.0162  0.4686 -0.2369
 3900SOL     OW16384   7.126   7.595  10.063 -0.1390  0.0624  0.0800
 3900SOL    HW116385   7.039   7.612  10.099 -0.7339  0.4220 -1.4310
 3900SOL    HW216386   7.149   7.508  10.093 -0.8341  0.1381  0.8512
 3901SOL     OW16387   2.765   9.902   5.689 -0.1078  0.1059  0.3125
 3901SOL    HW116388   2.674   9.880   5.707 -0.6851  1.9682 -0.1076
 3901SOL    HW216389   2.815   9.829   5.725 -1.6758 -0.2711  1.8506
 3902SOL     OW16390   6.550   8.722   0.177  0.4316 -0.2479 -0.7068
 3902SOL    HW116391   6.607   8.752   0.106  1.1888  1.5029  0.5677
 3902SOL    HW216392   6.534   8.630   0.157  2.1365 -0.2942 -2.1439
 3903SOL     OW16393   2.536  11.942   4.461 -0.0598  0.0417 -0.1568
 3903SOL    HW116394   2.577  11.896   4.534  1.3414  0.3862 -0.7051
 3903SOL    HW216395   2.594  12.016   4.443 -0.5043  0.1006 -1.4686
 3904SOL     OW16396   5.242  11.847  11.822 -0.0482  0.2060  0.8989
 3904SOL    HW116397   5.330  11.810  11.813 -0.3210 -0.6359  1.5869
 3904SOL    HW216398   5.230  11.900  11.743  0.9612  0.1009  0.6613
 3905SOL     OW16399   6.249  11.028  11.854  0.3527  0.2515 -0.0240
 3905SOL    HW116400   6.299  10.991  11.782 -1.9389 -0.6800 -1.2430
 3905SOL    HW216401   6.198  11.098  11.814 -1.7784 -0.9924  0.3635
 3906SOL     OW16402   3.240   8.385   1.897  0.0970 -0.9669 -0.0527
 3906SOL    HW116403   3.185   8.439   1.954 -1.1750 -0.9487 -1.2541
 3906SOL    HW216404   3.179   8.346   1.834  1.6538  0.5978 -2.7070
 3907SOL     OW16405   6.874   6.288   7.548 -0.1476  0.0546 -0.2694
 3907SOL    HW116406   6.859   6.226   7.620  1.0220  0.2307  0.1561
 3907SOL    HW216407   6.808   6.265   7.483 -0.9049 -0.4451  0.6428
 3908SOL     OW16408   5.409  10.124   5.162  0.3206 -0.1591  0.2959
 3908SOL    HW116409   5.383  10.213   5.185  1.2771 -0.0157  0.8710
 3908SOL    HW216410   5.330  10.072   5.173 -0.1301  0.5413  0.4066
 3909SOL     OW16411  11.376   6.455   5.783  0.0133 -0.4944  0.0065
 3909SOL    HW116412  11.363   6.372   5.737 -1.5390 -1.2369  1.6501
 3909SOL    HW216413  11.387   6.520   5.713 -0.5863 -1.7978 -1.3602
 3910SOL     OW16414   8.465   0.917  10.068 -0.2297 -0.3169  0.0526
 3910SOL    HW116415   8.396   0.981  10.089  0.5179  0.1724  1.1508
 3910SOL    HW216416   8.510   0.903  10.152  0.0971 -1.7281 -0.3384
 3911SOL     OW16417   0.684   2.434  10.575  0.1907 -0.0302  0.4615
 3911SOL    HW116418   0.719   2.504  10.631 -0.3390  0.7566 -0.1591
 3911SOL    HW216419   0.697   2.467  10.486 -1.4005 -0.0558  0.1956
 3912SOL     OW16420   1.698   1.680   9.261 -0.0517  0.0423  0.1309
 3912SOL    HW116421   1.728   1.616   9.326 -1.1595  0.0435  0.6665
 3912SOL    HW216422   1.779   1.720   9.227  0.6441 -1.4307 -0.0138
 3913SOL     OW16423   2.322   5.114   2.383  0.3275  0.2561 -0.0757
 3913SOL    HW116424   2.279   5.199   2.376  1.4392  0.7144 -1.7986
 3913SOL    HW216425   2.299   5.068   2.303 -1.0210 -1.4938  1.2371
 3914SOL     OW16426   7.898   1.655   0.168 -0.3533  0.1367 -0.3194
 3914SOL    HW116427   7.989   1.679   0.156  0.0417 -0.2007  1.5890
 3914SOL    HW216428   7.877   1.685   0.257 -2.3514  0.9600 -1.0170
 3915SOL     OW16429   5.321   3.385   7.008  0.1519 -0.0211 -0.0403
 3915SOL    HW116430   5.396   3.442   7.025  0.5518 -0.4114 -0.4679
 3915SOL    HW216431   5.312   3.333   7.088  0.6481 -0.3178 -0.1727
 3916SOL     OW16432   5.002  11.964  11.919  0.2201  0.4668 -0.5712
 3916SOL    HW116433   4.976  11.905  11.990  1.4294  1.9774  1.2299
 3916SOL    HW216434   5.097  11.957  11.915  0.5566  3.1495  0.5886
 3917SOL     OW16435  11.059   2.510   3.542  0.1682 -0.2951  0.7114
 3917SOL    HW116436  10.987   2.504   3.605  0.8424  2.6389  1.9393
 3917SOL    HW216437  11.054   2.429   3.492 -1.3604 -2.1046  3.5263
 3918SOL     OW16438   9.754   9.817   8.820  0.1111  0.5492 -0.5802
 3918SOL    HW116439   9.830   9.866   8.787  0.7817  0.4246  0.6957
 3918SOL    HW216440   9.773   9.726   8.798  2.1292  0.0032  2.7445
 3919SOL     OW16441  10.568   8.224   9.256  0.8387  0.3194 -0.0853
 3919SOL    HW116442  10.508   8.153   9.232  1.7577 -0.7921  0.7966
 3919SOL    HW216443  10.518   8.304   9.239  0.0969 -0.4906 -1.9454
 3920SOL     OW16444   3.136   1.547   7.242  0.0028 -0.2751  0.0897
 3920SOL    HW116445   3.147   1.624   7.299 -2.2724  0.6663 -0.6536
 3920SOL    HW216446   3.057   1.505   7.275  0.2031 -1.2701 -0.6796
 3921SOL     OW16447   0.057   9.383   3.932 -0.1777 -0.7172 -0.2936
 3921SOL    HW116448   0.093   9.468   3.905 -0.5912 -0.6755 -0.7160
 3921SOL    HW216449   0.011   9.402   4.013  2.3146 -1.1113  1.3385
 3922SOL     OW16450   2.690   3.557   0.122  0.8858 -0.3065  0.5415
 3922SOL    HW116451   2.619   3.614   0.151 -0.3043 -1.5812  0.2669
 3922SOL    HW216452   2.748   3.615   0.072  1.1411  1.1790  2.4454
 3923SOL     OW16453   7.377   5.701   1.866  0.1668  0.2683  0.1408
 3923SOL    HW116454   7.328   5.620   1.883  0.9044 -0.4095 -0.8140
 3923SOL    HW216455   7.421   5.720   1.949 -0.3444 -0.0710  0.4973
 3924SOL     OW16456   3.422   9.113   7.613  0.6784  0.7696  0.0452
 3924SOL    HW116457   3.506   9.146   7.642  0.9202 -0.4591  0.8163
 3924SOL    HW216458   3.435   9.019   7.601 -0.5487  0.5675  0.0856
 3925SOL     OW16459   9.504  10.136   8.213 -0.3491 -0.2950 -0.9426
 3925SOL    HW116460   9.454  10.212   8.183  0.6613  1.0351  0.5711
 3925SOL    HW216461   9.594  10.156   8.190 -0.0715 -1.0414 -0.5428
 3926SOL     OW16462   4.904   7.057   2.794  0.2475  0.2430  0.1908
 3926SOL    HW116463   4.953   7.133   2.827  0.0741 -0.1024  1.2681
 3926SOL    HW216464   4.944   6.982   2.838  1.7490 -0.5509 -2.3326
 3927SOL     OW16465   1.607   2.613   3.025  0.1088 -0.0478  0.8930
 3927SOL    HW116466   1.606   2.652   2.938  0.2508  0.6144  1.1796
 3927SOL    HW216467   1.700   2.606   3.046  0.0992 -0.9543  0.6709
 3928SOL     OW16468  11.444   8.372   2.196  0.1658 -0.2728 -0.2981
 3928SOL    HW116469  11.401   8.327   2.269  0.4604  0.8638  0.5948
 3928SOL    HW216470  11.538   8.368   2.217  0.2417  0.1928 -0.5367
 3929SOL     OW16471   5.453   6.491   1.411  0.3002 -0.7595 -0.1192
 3929SOL    HW116472   5.510   6.531   1.346 -1.8546  1.3107 -0.8661
 3929SOL    HW216473   5.440   6.401   1.380  0.4568 -0.2400 -1.7738
 3930SOL     OW16474   9.463   2.914   9.294 -0.0360  0.1919 -0.2103
 3930SOL    HW116475   9.552   2.902   9.326  0.4010 -2.1049 -2.0286
 3930SOL    HW216476   9.409   2.859   9.352  0.2768 -1.2867 -1.2856
 3931SOL     OW16477   7.665   5.628   7.930 -0.9746 -0.4790 -0.0753
 3931SOL    HW116478   7.621   5.545   7.944 -1.9882  0.1963  0.9570
 3931SOL    HW216479   7.757   5.610   7.949 -1.4886 -0.8864  2.4190
 3932SOL     OW16480   5.271   3.605   9.958  0.1830 -0.8121  0.2873
 3932SOL    HW116481   5.286   3.612  10.052  1.3215  0.3334  0.0542
 3932SOL    HW216482   5.176   3.607   9.948  0.0678  0.6817  1.3242
 3933SOL     OW16483   2.338   4.210  10.618  0.4165 -0.6006 -0.3489
 3933SOL    HW116484   2.273   4.144  10.595  1.0298 -0.8108 -1.5351
 3933SOL    HW216485   2.309   4.243  10.703 -1.8510  0.0612 -1.3001
 3934SOL     OW16486   1.036   4.692   5.519 -0.1157  0.1457 -0.8834
 3934SOL    HW116487   0.951   4.707   5.478 -0.9337  4.2641  1.7518
 3934SOL    HW216488   1.095   4.755   5.476 -0.1381  1.9849  1.5835
 3935SOL     OW16489   8.818   0.807   1.945  0.0375 -0.1688  0.5025
 3935SOL    HW116490   8.761   0.734   1.920 -1.8093  1.3259  0.1190
 3935SOL    HW216491   8.780   0.883   1.901  1.2713  1.2149  1.7218
 3936SOL     OW16492   3.497   5.814   1.443  0.3384  0.5736  0.0195
 3936SOL    HW116493   3.464   5.904   1.440 -0.5202  0.2339 -0.9965
 3936SOL    HW216494   3.435   5.763   1.391  1.1272 -0.5162  0.1114
 3937SOL     OW16495   4.942   3.541   3.140 -0.1038 -0.6504  0.2169
 3937SOL    HW116496   4.914   3.457   3.178  0.3858 -0.6343  0.6299
 3937SOL    HW216497   4.935   3.603   3.212 -1.2316 -0.1611 -0.3022
 3938SOL     OW16498  11.877   5.631   1.221  0.4888 -0.6542  0.3583
 3938SOL    HW116499  11.918   5.545   1.219  1.3060 -0.2776 -1.4164
 3938SOL    HW216500  11.790   5.618   1.182 -0.5612 -1.1527  2.6826
 3939SOL     OW16501   8.849   5.243   2.989 -0.3728  0.5011  0.3927
 3939SOL    HW116502   8.846   5.328   2.946  3.3378  1.0544  0.9513
 3939SOL    HW216503   8.930   5.203   2.960 -1.3771 -2.3607  1.1397
 3940SOL     OW16504   5.107   7.088   5.987  0.1483  0.4810  0.2083
 3940SOL    HW116505   5.197   7.070   6.015 -0.1575  0.2938  1.1178
 3940SOL    HW216506   5.112   7.093   5.892  0.8830 -0.9078  0.1414
 3941SOL     OW16507   5.814   5.184   7.751 -0.2730  0.5584  0.3900
 3941SOL    HW116508   5.729   5.139   7.745 -1.1189  1.5698  3.2843
 3941SOL    HW216509   5.801   5.264   7.700  0.4494 -1.1897 -2.7579
 3942SOL     OW16510   2.513   7.311   7.105 -0.4218 -0.3446  0.3104
 3942SOL    HW116511   2.570   7.283   7.177 -0.8885 -0.6209  0.5801
 3942SOL    HW216512   2.449   7.370   7.147  0.1326  0.5890 -0.1280
 3943SOL     OW16513   8.958  10.389   9.062  0.5115  0.0715  0.3549
 3943SOL    HW116514   8.901  10.373   8.987 -0.3984  0.3450  0.9803
 3943SOL    HW216515   8.929  10.327   9.129  1.1221  0.0290  0.5931
 3944SOL     OW16516   8.803   0.027  11.698  0.3453  0.0245 -0.2558
 3944SOL    HW116517   8.839  -0.043  11.753 -0.3232 -1.1012 -1.2152
 3944SOL    HW216518   8.875   0.052  11.641  1.2893  1.7294  1.5429
 3945SOL     OW16519   0.806   1.476   4.278 -0.0038 -0.2662  0.3420
 3945SOL    HW116520   0.721   1.463   4.235  1.0058 -0.4178 -1.7630
 3945SOL    HW216521   0.865   1.415   4.233  1.8847  2.0296 -0.5215
 3946SOL     OW16522   8.886   1.681   4.026  0.0584 -0.6069  0.7033
 3946SOL    HW116523   8.956   1.654   4.086  1.3273  2.9932  1.1169
 3946SOL    HW216524   8.814   1.708   4.084 -0.0401 -0.3540  0.4652
 3947SOL     OW16525   1.225   0.723   9.214  0.2258  0.1180 -0.6306
 3947SOL    HW116526   1.139   0.682   9.200  0.6602 -0.6994 -0.9682
 3947SOL    HW216527   1.248   0.760   9.128  0.6040 -0.4306 -0.7666
 3948SOL     OW16528   8.447   6.593   9.874 -0.4134  0.4973  0.0974
 3948SOL    HW116529   8.451   6.578   9.968  0.7944  1.3070  0.1954
 3948SOL    HW216530   8.513   6.661   9.857 -0.4178  0.1815 -1.3646
 3949SOL     OW16531   2.696   5.127   2.010 -0.0368 -0.4299 -0.2576
 3949SOL    HW116532   2.689   5.147   2.103  0.1110 -1.9437  0.1112
 3949SOL    HW216533   2.779   5.167   1.983 -0.3574  0.5100  0.1056
 3950SOL     OW16534   5.873  11.925   5.106  0.4437  0.1976  0.3798
 3950SOL    HW116535   5.821  11.876   5.170  0.2617 -0.4805 -0.2839
 3950SOL    HW216536   5.935  11.975   5.160  0.0878 -0.1250  1.1023
 3951SOL     OW16537   1.159   8.128   5.708 -0.0862  0.0480  0.3461
 3951SOL    HW116538   1.106   8.168   5.639  0.4055  1.2307  0.6311
 3951SOL    HW216539   1.249   8.132   5.674 -0.0345 -0.9575  0.3280
 3952SOL     OW16540   1.908   1.224  11.582 -0.0695  0.4061 -0.6532
 3952SOL    HW116541   1.832   1.273  11.612 -0.8221 -1.8494  1.5771
 3952SOL    HW216542   1.872   1.150  11.534  0.5951 -0.9240  0.7843
 3953SOL     OW16543  10.730   1.743   3.200 -0.2596 -0.3493  0.3580
 3953SOL    HW116544  10.656   1.719   3.255  0.1844 -2.6345  0.0602
 3953SOL    HW216545  10.697   1.734   3.110 -0.0945  0.2738  0.2329
 3954SOL     OW16546  10.329   5.118  10.388  0.0110  0.3101 -0.0363
 3954SOL    HW116547  10.261   5.073  10.438 -1.1553  1.6102 -0.4163
 3954SOL    HW216548  10.284   5.190  10.345  1.0722 -0.3614 -2.4810
 3955SOL     OW16549   8.830  11.166   6.037 -0.1834 -0.2145  0.1655
 3955SOL    HW116550   8.755  11.224   6.050 -1.2824 -1.4321 -0.5512
 3955SOL    HW216551   8.856  11.179   5.946 -0.7463 -1.1616 -0.1499
 3956SOL     OW16552   2.599   5.405   4.528  0.3751 -0.2899  0.5281
 3956SOL    HW116553   2.651   5.325   4.525  0.9725  0.1091  0.2181
 3956SOL    HW216554   2.652   5.467   4.578 -0.4846 -0.3671  1.5736
 3957SOL     OW16555   1.854   8.819   6.342 -0.2412  0.1175 -0.1340
 3957SOL    HW116556   1.787   8.763   6.380 -0.6046  1.0333  0.6084
 3957SOL    HW216557   1.937   8.773   6.360 -0.6234 -0.9370 -0.9229
 3958SOL     OW16558   9.456   5.802   2.422 -0.5510 -0.0569 -0.6155
 3958SOL    HW116559   9.442   5.767   2.511 -0.2157 -0.5610 -0.7600
 3958SOL    HW216560   9.408   5.885   2.422 -1.0500 -0.3368 -0.1478
 3959SOL     OW16561   2.067   1.131  10.087 -0.5377 -1.2471  0.2088
 3959SOL    HW116562   2.103   1.069  10.150 -0.5000 -0.8905  0.5420
 3959SOL    HW216563   2.103   1.104  10.003  0.9550 -0.5697  0.6003
 3960SOL     OW16564   3.288   3.081   2.732  0.1734 -1.0402 -0.2623
 3960SOL    HW116565   3.366   3.026   2.727  2.0032  1.3633  0.2243
 3960SOL    HW216566   3.236   3.042   2.803  0.4226 -3.2115 -1.1942
 3961SOL     OW16567   0.550   8.274   0.505 -0.5139  0.7585 -0.6984
 3961SOL    HW116568   0.586   8.352   0.462 -1.6087  0.1468 -2.8361
 3961SOL    HW216569   0.512   8.223   0.434 -2.1100 -0.5012  0.9839
 3962SOL     OW16570  10.142   9.781  11.839  0.0771  0.0755  0.1483
 3962SOL    HW116571  10.144   9.876  11.852  0.2523 -0.1020  1.6097
 3962SOL    HW216572  10.155   9.745  11.927 -1.8084 -1.3034 -0.0819
 3963SOL     OW16573   2.246   9.977   2.538 -0.3526 -0.0749 -0.1927
 3963SOL    HW116574   2.324   9.962   2.592 -0.8313  2.2322  1.2812
 3963SOL    HW216575   2.173   9.961   2.597 -0.8991  1.3338 -0.4432
 3964SOL     OW16576   1.359   7.795   1.694  0.4990  0.0524  0.3462
 3964SOL    HW116577   1.372   7.809   1.788 -0.1023  0.2793  0.3996
 3964SOL    HW216578   1.269   7.822   1.678  1.4208  2.7676 -0.8263
 3965SOL     OW16579   6.465   3.748   3.952  0.1675 -0.5885 -0.2026
 3965SOL    HW116580   6.443   3.694   4.028  2.3291  0.0218  0.9128
 3965SOL    HW216581   6.483   3.684   3.883  2.0868 -1.3641  0.9311
 3966SOL     OW16582   2.965   6.402  10.615 -0.1297 -0.3962  0.0482
 3966SOL    HW116583   3.059   6.383  10.620  0.0683  0.4982 -0.1115
 3966SOL    HW216584   2.937   6.362  10.532 -0.1735 -1.7792  0.7054
 3967SOL     OW16585   8.126  10.039   0.891  0.0567  0.1561 -0.2366
 3967SOL    HW116586   8.081  10.108   0.939 -0.7821 -0.7624  0.3324
 3967SOL    HW216587   8.055   9.991   0.846  0.8434  1.7209 -3.4816
 3968SOL     OW16588   0.098   7.165   7.931  0.4780 -0.2613 -0.1414
 3968SOL    HW116589   0.146   7.190   7.852  2.1743 -2.0391  0.2587
 3968SOL    HW216590   0.007   7.159   7.902  0.9717 -0.2341 -1.8261
 3969SOL     OW16591   8.415   3.347   9.682 -0.0128  0.1536 -0.3288
 3969SOL    HW116592   8.326   3.383   9.689  0.6187  1.5175  1.2109
 3969SOL    HW216593   8.403   3.253   9.690 -1.3100  0.3164 -0.0570
 3970SOL     OW16594   6.464   6.144  11.145  0.4004  0.0709 -0.3464
 3970SOL    HW116595   6.393   6.177  11.200  0.3031  1.4462 -1.2412
 3970SOL    HW216596   6.422   6.081  11.086  0.3701 -0.8416  0.6288
 3971SOL     OW16597  11.124  11.216   5.586 -0.7209 -0.3158 -0.1923
 3971SOL    HW116598  11.145  11.287   5.646 -1.0053 -0.7341  0.4018
 3971SOL    HW216599  11.146  11.137   5.634 -2.2942 -0.7180 -0.0826
 3972SOL     OW16600   1.061   5.994   9.796  0.5122 -0.4591 -0.3839
 3972SOL    HW116601   1.146   5.990   9.841  0.0453  0.2385  0.5834
 3972SOL    HW216602   1.070   5.932   9.723  1.2995 -1.6070  0.6438
 3973SOL     OW16603   1.387   5.681   1.674  0.0930  0.1994  0.0005
 3973SOL    HW116604   1.350   5.761   1.637 -0.7479 -0.1748  0.0063
 3973SOL    HW216605   1.422   5.708   1.759 -0.6393  0.4630  0.2262
 3974SOL     OW16606   2.879   0.785   6.469  0.0070  0.1705  0.3754
 3974SOL    HW116607   2.924   0.708   6.434 -1.5973 -0.4078 -0.5399
 3974SOL    HW216608   2.941   0.857   6.456  0.2700 -0.3747 -1.9364
 3975SOL     OW16609   6.330   4.725   8.538 -0.2944 -0.9010  0.3226
 3975SOL    HW116610   6.420   4.751   8.519 -1.0415  1.4770 -0.2386
 3975SOL    HW216611   6.304   4.675   8.461 -0.1004  0.1742 -0.4610
 3976SOL     OW16612   4.052  11.447   6.335 -0.4354 -0.0672  0.5095
 3976SOL    HW116613   3.963  11.480   6.324 -1.1428 -1.5130  1.4752
 3976SOL    HW216614   4.078  11.417   6.248 -1.8090 -1.6853  0.5995
 3977SOL     OW16615   2.914   8.936   1.022 -0.1986 -0.1066  0.2422
 3977SOL    HW116616   2.890   8.922   0.930  0.1916  0.9221 -0.0277
 3977SOL    HW216617   2.850   8.885   1.072 -1.1026  0.2336 -0.5594
 3978SOL     OW16618   1.316   4.206   9.706  0.7317 -0.2000 -0.3924
 3978SOL    HW116619   1.232   4.183   9.667  0.8793 -1.6612  0.0643
 3978SOL    HW216620   1.300   4.285   9.756 -0.7357 -1.2329  0.8387
 3979SOL     OW16621   8.103   7.562   9.629  0.3294  0.1470  0.3776
 3979SOL    HW116622   8.067   7.499   9.691  1.8871 -2.3766 -1.1001
 3979SOL    HW216623   8.184   7.521   9.597  1.5897  3.0463 -0.5155
 3980SOL     OW16624   8.653  10.687   1.855 -0.0412 -0.7037  0.1723
 3980SOL    HW116625   8.742  10.655   1.842 -0.3368 -0.6522 -2.3556
 3980SOL    HW216626   8.621  10.637   1.931  2.3804 -0.0646  1.7395
 3981SOL     OW16627   7.382   4.729   0.934 -0.2884 -0.4302  0.3266
 3981SOL    HW116628   7.300   4.777   0.946  0.7584  1.8329 -0.8739
 3981SOL    HW216629   7.425   4.734   1.019 -0.5289  0.1408  0.4227
 3982SOL     OW16630   9.155   5.480   3.571 -0.3010 -0.0213 -0.0162
 3982SOL    HW116631   9.204   5.536   3.510  1.3836 -0.7720  0.5787
 3982SOL    HW216632   9.151   5.395   3.527 -0.5511 -0.1222  0.2012
 3983SOL     OW16633   1.378  10.774   3.208  0.2142  0.0520  0.2646
 3983SOL    HW116634   1.320  10.815   3.272  0.8940  0.2270  0.7786
 3983SOL    HW216635   1.434  10.846   3.177 -0.3041  0.0340 -0.7558
 3984SOL     OW16636   7.876   0.344  10.130  0.2766 -0.1128 -0.3143
 3984SOL    HW116637   7.833   0.366  10.047 -1.0920  0.2850  0.4668
 3984SOL    HW216638   7.932   0.269  10.108 -1.3803 -1.1454 -1.2658
 3985SOL     OW16639   9.371  11.263   6.312  0.5188  0.6422 -0.1097
 3985SOL    HW116640   9.411  11.222   6.236  0.5636  1.4968 -0.5612
 3985SOL    HW216641   9.333  11.191   6.361  1.9162 -0.1095 -0.0810
 3986SOL     OW16642   0.464   5.256   0.827 -0.6597  0.6004 -0.5949
 3986SOL    HW116643   0.546   5.218   0.795 -0.7335  0.8794 -1.1383
 3986SOL    HW216644   0.483   5.349   0.836 -1.1504  0.8157 -1.5668
 3987SOL     OW16645  11.189   8.249   0.233  0.1818  0.0198 -0.1154
 3987SOL    HW116646  11.195   8.314   0.164 -2.4129  1.0715  0.5338
 3987SOL    HW216647  11.129   8.183   0.199 -1.5018  0.7904  1.2163
 3988SOL     OW16648  11.349   4.281   1.969 -0.1212  0.0421  0.3949
 3988SOL    HW116649  11.316   4.322   2.050  1.2069  0.0968  0.9301
 3988SOL    HW216650  11.423   4.228   1.998 -0.0359 -0.4556 -0.7108
 3989SOL     OW16651   6.909  11.581   1.898  0.2764 -0.4334 -0.1832
 3989SOL    HW116652   6.993  11.560   1.939  1.5200  0.4731 -2.1215
 3989SOL    HW216653   6.878  11.658   1.946  2.4677  1.5840 -1.7760
 3990SOL     OW16654   6.382   4.481   4.128  0.2020 -0.6202  0.2007
 3990SOL    HW116655   6.334   4.508   4.206 -1.4104 -0.6137 -0.7531
 3990SOL    HW216656   6.415   4.393   4.150  1.4227  0.1232  1.5487
 3991SOL     OW16657   0.198   6.977  11.079 -0.1897 -0.7007 -1.0485
 3991SOL    HW116658   0.120   7.019  11.043  0.2845  1.3408  0.1910
 3991SOL    HW216659   0.271   7.016  11.031  0.2572 -0.1043  0.0912
 3992SOL     OW16660   8.466   1.628   3.425 -0.1637 -0.1392 -0.0969
 3992SOL    HW116661   8.528   1.556   3.439  2.3532  2.1324  1.4388
 3992SOL    HW216662   8.462   1.637   3.330  2.4614  0.0124 -0.2818
 3993SOL     OW16663  10.101   7.887  10.934 -0.7231 -0.4736 -0.0610
 3993SOL    HW116664  10.165   7.892  10.862 -1.4102  1.4305 -0.6073
 3993SOL    HW216665  10.037   7.822  10.905 -0.0180 -1.0528 -0.3383
 3994SOL     OW16666   8.768  10.999   1.814  0.6459  0.4448  0.2009
 3994SOL    HW116667   8.702  10.929   1.824  0.8977  0.0102 -1.0208
 3994SOL    HW216668   8.776  11.036   1.902 -2.4749  1.6585  0.1005
 3995SOL     OW16669   2.202   0.811   7.540  0.4309 -0.2419 -0.2402
 3995SOL    HW116670   2.152   0.820   7.622  0.3931  1.4039 -0.3981
 3995SOL    HW216671   2.135   0.803   7.472  0.3361  1.4720 -0.3993
 3996SOL     OW16672   7.687   4.676   9.879 -0.2467 -0.4679 -0.2963
 3996SOL    HW116673   7.661   4.768   9.870  0.5568 -0.3534 -1.7132
 3996SOL    HW216674   7.644   4.647   9.960  0.7411  1.5959  1.0666
 3997SOL     OW16675   5.835   1.416   8.467 -0.0860  0.0757  0.5973
 3997SOL    HW116676   5.805   1.385   8.552  0.5995  1.3568  1.3263
 3997SOL    HW216677   5.858   1.508   8.481  0.3536  0.2211 -0.8915
 3998SOL     OW16678   3.083   1.158   9.515  0.5745 -0.3788 -0.4951
 3998SOL    HW116679   3.075   1.208   9.434 -1.7050 -1.1289 -0.8091
 3998SOL    HW216680   3.056   1.219   9.584 -1.1164 -0.7623 -0.7599
 3999SOL     OW16681   4.531  11.306   3.562  0.6629  0.1418 -0.6454
 3999SOL    HW116682   4.575  11.390   3.575  0.7983 -0.0752  0.3742
 3999SOL    HW216683   4.519  11.300   3.467 -1.6007  2.4672 -0.6247
 4000SOL     OW16684   3.124   0.861   6.407 -0.3191  0.1429 -0.4854
 4000SOL    HW116685   3.156   0.951   6.402  0.2591 -0.0931 -1.0399
 4000SOL    HW216686   3.136   0.826   6.319 -1.1296 -0.2818 -0.4371
 4001SOL     OW16687   1.709   4.173   2.369  0.3314 -0.2325  0.3110
 4001SOL    HW116688   1.661   4.247   2.406 -0.1479 -0.5364  0.3161
 4001SOL    HW216689   1.776   4.152   2.435  0.5739  0.2962  0.2338
 4002SOL     OW16690   8.263   2.910   5.081 -0.2136 -0.2625  0.6656
 4002SOL    HW116691   8.177   2.868   5.076  0.2501 -1.0816 -1.0006
 4002SOL    HW216692   8.313   2.854   5.140 -1.0422  0.7027  2.3566
 4003SOL     OW16693   6.855   2.628  11.354  0.1483 -0.3512  0.0877
 4003SOL    HW116694   6.815   2.617  11.267  0.7011 -0.5791 -0.1434
 4003SOL    HW216695   6.949   2.630  11.337  0.2487 -0.1144  0.6556
 4004SOL     OW16696   8.746   5.702  10.002  0.1544 -0.2413 -0.9102
 4004SOL    HW116697   8.725   5.659   9.920  0.0126 -2.4401  0.2105
 4004SOL    HW216698   8.681   5.772  10.010 -0.3038 -0.4862 -2.2730
 4005SOL     OW16699   2.051   2.670   9.071 -0.2430 -0.4964  0.0561
 4005SOL    HW116700   2.135   2.666   9.116  1.2827 -1.9132 -2.6730
 4005SOL    HW216701   2.059   2.747   9.014 -2.2970  1.5224  2.2705
 4006SOL     OW16702  11.606   4.781   8.282  0.2705 -0.1410 -0.4662
 4006SOL    HW116703  11.614   4.690   8.252  2.3624 -0.6653  1.4977
 4006SOL    HW216704  11.525   4.782   8.333  0.7100 -1.1690  0.2902
 4007SOL     OW16705   4.246  10.949  11.356  0.1677 -0.2226  0.3283
 4007SOL    HW116706   4.218  10.897  11.281 -0.5213  1.9253 -1.0253
 4007SOL    HW216707   4.172  11.008  11.373  1.0699  0.6359  1.4570
 4008SOL     OW16708   1.485   0.119   3.076  0.2031 -0.4047  0.3860
 4008SOL    HW116709   1.477   0.051   3.142  0.7137 -0.4350  0.4189
 4008SOL    HW216710   1.443   0.082   2.998  1.3117 -1.1476  0.1164
 4009SOL     OW16711   5.382   7.613   0.762  0.3625  0.4616  0.6042
 4009SOL    HW116712   5.365   7.565   0.844  2.1474 -0.8838  0.2540
 4009SOL    HW216713   5.346   7.701   0.778 -1.0152 -0.3047  2.1096
 4010SOL     OW16714   0.041  11.865   2.681  0.4297  0.2488  0.5359
 4010SOL    HW116715   0.039  11.840   2.774  0.4838  1.0523  0.7635
 4010SOL    HW216716   0.033  11.961   2.682  1.0730  0.3234 -0.2643
 4011SOL     OW16717  10.538   1.796   2.478  0.0466 -0.1230  0.1424
 4011SOL    HW116718  10.634   1.800   2.471 -0.0946  3.3513 -2.0196
 4011SOL    HW216719  10.515   1.868   2.537 -1.2748 -1.9276  1.9824
 4012SOL     OW16720   6.571  11.035   5.062  0.3951  0.2734  0.0272
 4012SOL    HW116721   6.650  11.001   5.105 -0.8053 -1.1215  1.1993
 4012SOL    HW216722   6.548  10.969   4.998 -0.5472  0.0427  0.5902
 4013SOL     OW16723   1.201   3.089   3.161  1.1093 -0.2763 -0.1037
 4013SOL    HW116724   1.246   3.019   3.208  1.6553 -0.3689 -0.7497
 4013SOL    HW216725   1.154   3.044   3.091  0.9303 -0.0579 -0.1246
 4014SOL     OW16726  11.447   7.543   2.993  0.1569  0.3107  0.2835
 4014SOL    HW116727  11.449   7.448   2.979  0.4528  0.3715 -0.0758
 4014SOL    HW216728  11.364   7.571   2.956  0.3013  0.2663 -0.0748
 4015SOL     OW16729  10.014   5.792   6.970 -0.4929 -0.6443 -0.2749
 4015SOL    HW116730  10.019   5.703   7.005  0.5172  0.0654  1.5342
 4015SOL    HW216731  10.002   5.847   7.047 -0.5436  0.8407 -1.2988
 4016SOL     OW16732   7.245   9.428   2.566 -0.1588 -0.0140 -0.2668
 4016SOL    HW116733   7.288   9.347   2.593 -2.1864 -0.6490  1.3302
 4016SOL    HW216734   7.314   9.494   2.572  1.0104 -1.2355  0.5609
 4017SOL     OW16735   4.896   1.522   6.512 -0.2349  0.1700 -0.3505
 4017SOL    HW116736   4.893   1.429   6.535  1.6240 -0.4311 -2.2101
 4017SOL    HW216737   4.937   1.564   6.586  0.6922 -0.8251 -0.2716
 4018SOL     OW16738   5.990   2.992   7.786 -0.2951  0.2614 -0.4022
 4018SOL    HW116739   5.980   2.920   7.848  0.4008  0.7982  0.3405
 4018SOL    HW216740   6.046   2.957   7.717 -0.3266 -0.0459 -0.2714
 4019SOL     OW16741   1.434   8.633   4.388  0.3434 -0.5751  0.2838
 4019SOL    HW116742   1.355   8.657   4.437  1.3923 -0.0933  1.8347
 4019SOL    HW216743   1.486   8.583   4.451  1.4261 -0.5801 -0.5946
 4020SOL     OW16744   6.660   4.593   8.998 -0.2298 -0.0386 -0.3529
 4020SOL    HW116745   6.628   4.546   9.075 -0.4742  1.6089  0.5863
 4020SOL    HW216746   6.582   4.606   8.944  0.0946 -2.0506 -1.4246
 4021SOL     OW16747   1.179  11.527   4.686 -0.5690  0.1991 -0.7073
 4021SOL    HW116748   1.229  11.607   4.668  0.8596 -0.6620 -0.7088
 4021SOL    HW216749   1.120  11.551   4.757 -0.9638  1.5601 -1.4660
 4022SOL     OW16750   9.624  11.237   3.449  0.4498  0.5611 -0.1762
 4022SOL    HW116751   9.656  11.324   3.425 -0.3226  0.3983 -1.9576
 4022SOL    HW216752   9.682  11.176   3.404 -0.1913  0.1973 -0.5179
 4023SOL     OW16753   4.721   2.610   5.700 -0.1120  0.4616 -0.1014
 4023SOL    HW116754   4.757   2.607   5.789 -0.6781  2.8353  0.2954
 4023SOL    HW216755   4.629   2.583   5.710 -0.2811  1.0921  0.1433
 4024SOL     OW16756   9.492   0.021   8.800  0.2728 -0.0000 -0.2819
 4024SOL    HW116757   9.544   0.060   8.730  1.2073 -1.1194 -0.2381
 4024SOL    HW216758   9.402   0.026   8.769  0.5637  0.4958 -1.0712
 4025SOL     OW16759  10.364   5.578   5.370 -0.8915 -0.3635  0.1314
 4025SOL    HW116760  10.422   5.628   5.313  1.6244 -0.5318  2.3769
 4025SOL    HW216761  10.344   5.637   5.442 -1.4167 -1.2012  0.6921
 4026SOL     OW16762  10.255   6.243  10.873  0.3379  0.0368 -0.2929
 4026SOL    HW116763  10.185   6.266  10.934  0.6082 -2.0974  0.9131
 4026SOL    HW216764  10.336   6.272  10.917  0.4855 -0.9803  0.1391
 4027SOL     OW16765  10.026   0.248   5.372  0.1781 -0.3605 -0.2047
 4027SOL    HW116766  10.058   0.199   5.448  1.1006 -1.5272 -1.2871
 4027SOL    HW216767  10.037   0.187   5.298  0.3173  1.0997 -1.4410
 4028SOL     OW16768   5.850   8.936   4.965 -0.5239  0.0830 -0.2957
 4028SOL    HW116769   5.868   9.030   4.960 -2.1358  0.3783 -0.8254
 4028SOL    HW216770   5.893   8.900   4.888  1.6858  0.0620  0.8459
 4029SOL     OW16771   2.631   9.045   3.461  0.1184  0.3779 -0.3756
 4029SOL    HW116772   2.665   9.135   3.470 -1.7914  1.0975  0.0491
 4029SOL    HW216773   2.708   8.993   3.438  1.3827  2.0258 -0.0718
 4030SOL     OW16774   5.715   4.530   6.720 -0.4821  0.3268 -0.1003
 4030SOL    HW116775   5.679   4.442   6.730 -1.3726  0.5033 -1.5015
 4030SOL    HW216776   5.656   4.573   6.659  0.1082  1.8188  0.3371
 4031SOL     OW16777   4.823   8.089   1.824 -0.4970 -0.1366 -0.5773
 4031SOL    HW116778   4.741   8.130   1.852 -0.5061 -2.0393  2.5085
 4031SOL    HW216779   4.803   7.996   1.818  1.3695 -0.6144  0.0474
 4032SOL     OW16780   1.018  11.696   2.871  0.0544 -0.1049  0.3034
 4032SOL    HW116781   1.049  11.708   2.781 -0.2427 -0.2062  0.1847
 4032SOL    HW216782   0.922  11.696   2.863  0.0233 -1.1819  0.4752
 4033SOL     OW16783   7.877   5.791   7.642  0.1604  0.1547  0.1942
 4033SOL    HW116784   7.901   5.832   7.559  0.2213 -0.0626  0.1045
 4033SOL    HW216785   7.914   5.849   7.709 -1.1831  1.1740  0.1133
 4034SOL     OW16786  11.913   4.700   3.880 -0.3061 -0.6648  0.1983
 4034SOL    HW116787  11.829   4.706   3.925 -1.9309 -0.0434 -2.7275
 4034SOL    HW216788  11.947   4.614   3.904 -1.7632 -0.9433  1.4183
 4035SOL     OW16789  11.546   3.024   0.989  0.4488 -0.5131  0.3552
 4035SOL    HW116790  11.587   3.109   0.974 -0.8140 -0.2728 -2.3380
 4035SOL    HW216791  11.618   2.967   1.014  1.9184  0.6165 -1.0592
 4036SOL     OW16792   6.962   1.264   7.101  0.4755 -0.4577  0.2061
 4036SOL    HW116793   7.045   1.222   7.077  1.5539  1.3358  0.6116
 4036SOL    HW216794   6.898   1.226   7.041  1.5887 -1.8818 -0.1273
 4037SOL     OW16795   8.183   6.905  11.714 -0.1979  0.3256  0.4818
 4037SOL    HW116796   8.155   6.815  11.731 -1.6037  0.8490  1.0721
 4037SOL    HW216797   8.102   6.956  11.713  0.5215  1.5011 -0.4479
 4038SOL     OW16798  10.860   5.003   3.255  0.2394 -0.1582  0.6331
 4038SOL    HW116799  10.828   4.997   3.165 -1.7274 -1.0419  1.3319
 4038SOL    HW216800  10.945   4.958   3.253  1.1389  1.4904 -1.1292
 4039SOL     OW16801   9.021   7.370   9.949 -0.4088 -0.0411 -0.2190
 4039SOL    HW116802   8.929   7.380   9.975 -0.0032  1.3794  0.7333
 4039SOL    HW216803   9.017   7.360   9.854 -1.4294  2.2137 -0.4779
 4040SOL     OW16804   3.163  10.937  10.151 -0.3274  0.2818  0.2663
 4040SOL    HW116805   3.080  10.918  10.195  0.0097 -0.6893  0.5197
 4040SOL    HW216806   3.203  11.006  10.204 -0.2578 -0.3688  1.0877
 4041SOL     OW16807   5.998   5.011   1.731  0.4624  0.1783  0.1636
 4041SOL    HW116808   6.032   5.091   1.690  0.0257  0.7024  0.7927
 4041SOL    HW216809   6.072   4.974   1.778  0.8595 -0.1992 -0.7441
 4042SOL     OW16810   0.902  10.045  11.882  0.0394  0.5857 -0.5689
 4042SOL    HW116811   0.946  10.129  11.873  0.9380  0.7188  3.3163
 4042SOL    HW216812   0.942  10.005  11.959 -1.2365 -2.8954 -1.5045
 4043SOL     OW16813   4.615   1.851   1.954 -0.0831  0.1160  0.0085
 4043SOL    HW116814   4.533   1.832   1.998 -1.1327  1.9512 -1.0570
 4043SOL    HW216815   4.609   1.943   1.929  1.2368 -0.3285 -2.2568
 4044SOL     OW16816  11.761   2.721   5.028  0.0229  0.0523  0.1439
 4044SOL    HW116817  11.718   2.807   5.024  0.6282  0.3046 -1.7540
 4044SOL    HW216818  11.734   2.677   4.948 -0.5847 -1.7222  1.2688
 4045SOL     OW16819   5.825   1.483   6.461 -0.2889 -0.2604 -0.1553
 4045SOL    HW116820   5.756   1.541   6.494  1.5701  0.2888  3.1711
 4045SOL    HW216821   5.810   1.400   6.505  0.8339 -0.2856  0.2014
 4046SOL     OW16822   2.899   1.431   3.936  0.2816  0.2405  0.0460
 4046SOL    HW116823   2.874   1.480   4.015 -1.8217 -1.2500  0.3796
 4046SOL    HW216824   2.816   1.404   3.898  1.3303 -2.0122 -0.7987
 4047SOL     OW16825   0.830   4.352   5.574  0.4804 -0.3764 -0.0425
 4047SOL    HW116826   0.920   4.370   5.546  0.7806  1.9390  2.0908
 4047SOL    HW216827   0.836   4.337   5.668 -1.4997  1.4704  0.4654
 4048SOL     OW16828  11.671   8.327  10.580 -0.0505  0.1555  0.1928
 4048SOL    HW116829  11.711   8.398  10.529  0.1786  0.8512  1.3049
 4048SOL    HW216830  11.745   8.278  10.615 -0.1883 -1.6996 -1.9377
 4049SOL     OW16831  11.227   3.402   2.380  0.5670 -0.2552 -0.8543
 4049SOL    HW116832  11.231   3.363   2.292  0.3274 -2.0748 -0.1131
 4049SOL    HW216833  11.267   3.336   2.437 -0.5960  0.2458  0.6083
 4050SOL     OW16834  11.680  11.810   6.680 -0.5343 -0.7657  0.3001
 4050SOL    HW116835  11.755  11.868   6.663  0.5283 -1.2834  2.7964
 4050SOL    HW216836  11.612  11.842   6.621  1.2388  0.5259 -1.1820
 4051SOL     OW16837   2.584   8.046   3.957 -0.4797 -0.2061  0.7987
 4051SOL    HW116838   2.588   8.012   3.868  0.5846  0.1352  0.7099
 4051SOL    HW216839   2.513   8.110   3.955  2.6884  3.6990 -1.2427
 4052SOL     OW16840   9.221  10.414   8.383  0.7700  0.6202 -0.7663
 4052SOL    HW116841   9.254  10.434   8.471  1.3229 -0.0518 -0.8178
 4052SOL    HW216842   9.130  10.446   8.384  0.7704  0.6215  0.0399
 4053SOL     OW16843   2.176   1.306   1.735 -0.2090 -0.3117  0.1337
 4053SOL    HW116844   2.240   1.297   1.805 -1.5152  2.4342  1.8565
 4053SOL    HW216845   2.196   1.391   1.695 -1.1499 -0.6194 -1.0453
 4054SOL     OW16846   2.361   6.872   7.647  0.3860  0.0884  0.7807
 4054SOL    HW116847   2.304   6.949   7.653  0.5272  0.2834 -0.1655
 4054SOL    HW216848   2.369   6.856   7.553 -0.0202 -1.3715  0.9681
 4055SOL     OW16849   0.304   6.397   4.358  0.0439  0.3168  0.3458
 4055SOL    HW116850   0.355   6.340   4.300 -0.4661 -0.3586  0.5551
 4055SOL    HW216851   0.363   6.416   4.431 -0.3752 -1.3996  1.1576
 4056SOL     OW16852   6.074  11.890   7.287  0.1228 -0.3688 -0.3995
 4056SOL    HW116853   5.990  11.868   7.327 -0.8986  1.8418 -1.1662
 4056SOL    HW216854   6.094  11.817   7.229 -1.2171 -0.9699 -0.1322
 4057SOL     OW16855  10.033   6.293  11.136 -0.0287  0.1129 -0.0423
 4057SOL    HW116856  10.099   6.254  11.193 -0.7508 -0.2630  0.5395
 4057SOL    HW216857  10.017   6.380  11.174  0.2646  0.2785 -0.2928
 4058SOL     OW16858   7.893   1.164   0.835  0.1639 -0.2049  0.2780
 4058SOL    HW116859   7.890   1.076   0.799 -1.5848 -0.9570  2.0449
 4058SOL    HW216860   7.921   1.151   0.926  0.5325  1.1491  0.3757
 4059SOL     OW16861   0.679   8.712   2.023 -0.5268  0.3947 -0.5984
 4059SOL    HW116862   0.627   8.779   1.981  0.0850  0.0553 -1.9366
 4059SOL    HW216863   0.749   8.760   2.069 -1.3440  0.7766  0.2846
 4060SOL     OW16864  11.639   6.067  11.842 -0.2513  0.1312 -0.1992
 4060SOL    HW116865  11.613   6.133  11.777 -0.2538 -1.0070 -1.3795
 4060SOL    HW216866  11.611   6.105  11.925  1.0332  2.2787 -0.6607
 4061SOL     OW16867  10.533  11.309   8.181  0.8251 -0.3058 -0.0867
 4061SOL    HW116868  10.479  11.388   8.178 -0.1427 -0.7763  2.2845
 4061SOL    HW216869  10.584  11.311   8.100 -0.7601  1.5915 -1.1194
 4062SOL     OW16870   8.229   5.836   3.326  0.1477  1.0550 -0.0262
 4062SOL    HW116871   8.175   5.911   3.300 -1.4918 -0.8237 -2.5101
 4062SOL    HW216872   8.301   5.837   3.263 -0.3225  0.1379 -0.5988
 4063SOL     OW16873   0.674   4.206   5.927 -0.3830 -0.0354 -0.3634
 4063SOL    HW116874   0.643   4.128   5.880 -0.0316 -0.7518  0.5478
 4063SOL    HW216875   0.722   4.171   6.002 -1.6025  1.0509  0.9889
 4064SOL     OW16876  10.305  11.822   9.605  0.4166 -0.4275 -0.1460
 4064SOL    HW116877  10.288  11.791   9.516  1.9297  2.9766 -1.8225
 4064SOL    HW216878  10.220  11.852   9.637  0.2958  0.9832 -1.6662
 4065SOL     OW16879   2.613   0.279   9.584 -0.7116 -0.3988  0.4078
 4065SOL    HW116880   2.540   0.232   9.543 -0.7018 -0.2080  0.1680
 4065SOL    HW216881   2.625   0.356   9.529  1.2492 -1.6143 -0.9900
 4066SOL     OW16882   3.767  11.759   6.147 -0.5931  0.3036  0.2537
 4066SOL    HW116883   3.760  11.782   6.055 -0.8538 -0.5688  0.0468
 4066SOL    HW216884   3.724  11.831   6.193  1.1675  1.6883 -0.1527
 4067SOL     OW16885   8.858  11.316   8.326 -0.2406 -0.0681  0.2363
 4067SOL    HW116886   8.940  11.361   8.345 -0.9110  0.8588  1.0511
 4067SOL    HW216887   8.840  11.264   8.404 -1.0372  0.7042  0.5858
 4068SOL     OW16888   9.526   9.467   9.236  0.2019 -0.1368  0.3126
 4068SOL    HW116889   9.447   9.516   9.258  0.4173  0.7053 -0.7173
 4068SOL    HW216890   9.566   9.447   9.321 -0.6918  0.1190  0.8077
 4069SOL     OW16891  10.881   4.047   5.509  0.3733 -0.2504  0.2064
 4069SOL    HW116892  10.837   4.099   5.576  1.0455 -0.4197  0.7852
 4069SOL    HW216893  10.974   4.060   5.525  0.5462 -1.1065 -0.0491
 4070SOL     OW16894   9.644   3.445   3.942 -0.1499  0.5012 -0.0058
 4070SOL    HW116895   9.555   3.455   3.974 -0.1395 -0.3382  0.3292
 4070SOL    HW216896   9.672   3.360   3.976  0.9799  0.9996  0.3628
 4071SOL     OW16897   9.129   8.934   7.934  0.0675  0.7311 -0.7442
 4071SOL    HW116898   9.183   9.010   7.912 -0.9028  1.3481 -1.0422
 4071SOL    HW216899   9.109   8.945   8.027 -0.5305  1.1574 -0.9124
 4072SOL     OW16900   6.222   3.012   4.528  0.1711 -0.5464 -0.5257
 4072SOL    HW116901   6.314   2.999   4.504  0.0355  0.7141 -1.8658
 4072SOL    HW216902   6.173   2.996   4.447 -0.9787 -2.5372  0.4586
 4073SOL     OW16903   7.981   3.555   6.055  0.3227 -0.4301 -0.3472
 4073SOL    HW116904   7.935   3.486   6.007  0.3275 -0.0620 -0.9017
 4073SOL    HW216905   7.949   3.637   6.015  1.0893 -0.1505 -0.4199
 4074SOL     OW16906  10.954   8.522   0.930  0.3219  0.4558  0.1311
 4074SOL    HW116907  11.048   8.521   0.949  0.4423 -1.3625 -0.4194
 4074SOL    HW216908  10.927   8.612   0.951  1.6496  0.3561  2.7332
 4075SOL     OW16909   9.197   8.821   2.671 -0.1857  0.0782 -0.1325
 4075SOL    HW116910   9.177   8.907   2.634  1.0306 -0.0894 -1.2059
 4075SOL    HW216911   9.250   8.777   2.605  0.5355 -0.9135  1.0588
 4076SOL     OW16912   4.442  10.142   9.292  0.1260  0.5199 -0.6222
 4076SOL    HW116913   4.492  10.105   9.365 -1.9101  0.6468  0.9230
 4076SOL    HW216914   4.395  10.067   9.255  0.3451  0.6344 -1.1391
 4077SOL     OW16915   1.833   7.488   8.316  0.2057 -0.3438  0.4780
 4077SOL    HW116916   1.818   7.526   8.403 -0.4415 -1.4049  0.8614
 4077SOL    HW216917   1.768   7.531   8.260  1.3400  1.1341  0.2531
 4078SOL     OW16918   0.365   9.684   6.149  0.2909 -0.1054 -0.2622
 4078SOL    HW116919   0.348   9.650   6.237 -0.9521  0.4831 -0.2600
 4078SOL    HW216920   0.461   9.686   6.143  0.4495 -2.5960  0.1159
 4079SOL     OW16921   9.085   9.034   3.438  0.4998 -0.2229  0.2745
 4079SOL    HW116922   9.103   8.954   3.389 -3.3939 -0.8030 -0.4980
 4079SOL    HW216923   9.055   9.096   3.372 -0.1706  0.5880  1.3180
 4080SOL     OW16924   6.224   3.920   9.261  0.6337 -0.6952  0.3707
 4080SOL    HW116925   6.205   3.999   9.312  0.8132 -0.9465  0.8268
 4080SOL    HW216926   6.263   3.953   9.180 -1.9279 -0.1165 -0.7339
 4081SOL     OW16927   8.241   6.723   1.443 -0.2444  0.2139  0.6488
 4081SOL    HW116928   8.287   6.806   1.440 -0.8630  0.5259 -1.3191
 4081SOL    HW216929   8.171   6.736   1.508 -0.3818  1.2510  0.3060
 4082SOL     OW16930   4.058   2.835   9.301 -0.0150  0.2773  0.2507
 4082SOL    HW116931   3.999   2.764   9.327 -0.0206  0.3614  0.4657
 4082SOL    HW216932   4.002   2.895   9.252  0.4989 -1.1295 -2.2443
 4083SOL     OW16933  11.278   3.833   6.283 -0.6306  0.2416  0.4756
 4083SOL    HW116934  11.209   3.898   6.270 -1.0574 -0.2188  0.4572
 4083SOL    HW216935  11.355   3.885   6.306 -1.0382  0.7389  0.7330
 4084SOL     OW16936  10.567  11.125   9.478  0.2107  0.6046  0.1681
 4084SOL    HW116937  10.636  11.088   9.423  0.3500  1.7251 -0.4597
 4084SOL    HW216938  10.497  11.060   9.477  0.6800  0.0999 -0.3960
 4085SOL     OW16939   5.683   8.267   4.658  0.0251  0.0883 -0.5062
 4085SOL    HW116940   5.699   8.174   4.638  0.0020 -0.2681  0.9733
 4085SOL    HW216941   5.592   8.282   4.630 -0.1849 -0.5201 -0.1704
 4086SOL     OW16942   9.201   0.279   9.671 -0.1460 -0.0952  0.4008
 4086SOL    HW116943   9.193   0.252   9.762 -1.6621 -1.7558 -0.1875
 4086SOL    HW216944   9.271   0.224   9.636 -0.7016 -0.6579  0.1562
 4087SOL     OW16945   6.930   3.129   2.857  0.2296 -0.3601 -0.1890
 4087SOL    HW116946   6.985   3.191   2.906 -2.3287  1.9868  0.0065
 4087SOL    HW216947   6.950   3.044   2.895  2.5870  0.5684  0.8591
 4088SOL     OW16948  11.466   3.579  10.895 -0.1232  0.0741  0.6715
 4088SOL    HW116949  11.533   3.552  10.959 -0.5059 -0.1226  0.9903
 4088SOL    HW216950  11.385   3.582  10.945 -0.2696  0.8036  0.3962
 4089SOL     OW16951   5.391   5.944   1.144  0.3759  0.4005  0.1047
 4089SOL    HW116952   5.413   5.852   1.158 -1.8828 -0.4881 -1.5709
 4089SOL    HW216953   5.438   5.968   1.064 -0.5676  0.0739 -0.5628
 4090SOL     OW16954   4.853   2.815   4.268  0.2714  0.5483 -0.1162
 4090SOL    HW116955   4.810   2.864   4.198 -0.3939  2.1617  1.3322
 4090SOL    HW216956   4.928   2.869   4.292  0.4369  0.0713  0.4546
 4091SOL     OW16957   1.505   5.079   5.020  0.8107 -0.3805 -0.1152
 4091SOL    HW116958   1.422   5.052   4.981 -1.0359  1.4706  2.2082
 4091SOL    HW216959   1.537   5.001   5.066 -0.7350 -0.5854  0.6567
 4092SOL     OW16960   8.434  11.879   6.388  0.3679 -0.1092 -0.1787
 4092SOL    HW116961   8.462  11.814   6.452  1.7291  0.6519  0.0463
 4092SOL    HW216962   8.467  11.962   6.423  2.0107  0.2179 -2.2931
 4093SOL     OW16963   5.756   1.618  10.730  0.1293 -0.0378 -1.0107
 4093SOL    HW116964   5.742   1.635  10.637 -0.4246 -1.1859 -1.1517
 4093SOL    HW216965   5.693   1.550  10.753  1.0489 -0.6196 -0.0780
 4094SOL     OW16966  11.205   1.537  10.686 -0.1840  0.6414 -0.1673
 4094SOL    HW116967  11.126   1.562  10.733 -0.9699 -1.2139 -0.4086
 4094SOL    HW216968  11.181   1.456  10.640  1.8097  0.1120 -0.3647
 4095SOL     OW16969   6.620   3.789   8.532 -0.1955 -0.0240 -0.1308
 4095SOL    HW116970   6.613   3.768   8.625  0.5702 -0.1399 -0.0918
 4095SOL    HW216971   6.682   3.862   8.529 -0.4963  0.2189 -0.5244
 4096SOL     OW16972   4.895   7.061   4.757  0.4474 -0.0731 -0.3623
 4096SOL    HW116973   4.950   6.983   4.768  1.1316  0.1754 -1.8248
 4096SOL    HW216974   4.947   7.120   4.702  0.3476  1.8382  1.4471
 4097SOL     OW16975   7.178   0.548   6.279 -0.4010  0.1507  0.3096
 4097SOL    HW116976   7.148   0.551   6.370 -0.3038 -0.9232  0.3856
 4097SOL    HW216977   7.180   0.455   6.257 -2.2272  0.4429 -1.4070
 4098SOL     OW16978   6.374  11.820   8.320 -0.2408  0.5020 -0.5442
 4098SOL    HW116979   6.456  11.869   8.310  0.1734 -0.1071 -0.2041
 4098SOL    HW216980   6.323  11.870   8.383 -1.6389  2.7979 -3.3071
 4099SOL     OW16981  10.282   8.339   7.671 -0.1445 -0.1890  0.1741
 4099SOL    HW116982  10.350   8.380   7.618  0.4645  0.1672  1.2154
 4099SOL    HW216983  10.321   8.258   7.702 -0.6320 -0.5815 -0.2068
 4100SOL     OW16984   5.791  10.821   4.537 -0.0620  0.3597  0.4703
 4100SOL    HW116985   5.838  10.834   4.619 -0.4205  2.6909  0.3947
 4100SOL    HW216986   5.788  10.908   4.498 -0.1819 -0.6393 -1.8831
 4101SOL     OW16987   9.497   4.863  11.887  0.1710  0.0618  0.6381
 4101SOL    HW116988   9.471   4.955  11.876 -0.1590 -0.3323 -3.0576
 4101SOL    HW216989   9.593   4.867  11.891  0.1597  0.5414  0.5389
 4102SOL     OW16990   4.587   6.819  11.438 -0.3441 -0.7125 -0.6163
 4102SOL    HW116991   4.618   6.898  11.393 -2.0615 -0.5153 -1.5666
 4102SOL    HW216992   4.632   6.820  11.522 -0.2745  1.2792 -0.6189
 4103SOL     OW16993   0.539   9.784  10.324 -0.2302 -0.0302 -0.5988
 4103SOL    HW116994   0.599   9.736  10.381 -0.8772 -2.4042 -1.8143
 4103SOL    HW216995   0.470   9.721  10.303 -0.8145  1.2478 -2.7778
 4104SOL     OW16996   8.414   1.230   5.019 -0.2846  0.1251  0.3056
 4104SOL    HW116997   8.505   1.204   5.032 -0.6640 -2.0109 -0.7506
 4104SOL    HW216998   8.369   1.200   5.098 -0.1152  1.0473  0.7621
 4105SOL     OW16999   9.945   1.117   0.680 -0.1190  0.1894  0.2209
 4105SOL    HW117000  10.011   1.056   0.648 -0.3142  0.6356 -1.0844
 4105SOL    HW217001   9.866   1.063   0.692 -0.6435  0.3203 -2.0754
 4106SOL     OW17002   3.514   1.113  10.908  0.3492  0.1201 -0.0843
 4106SOL    HW117003   3.588   1.156  10.953 -0.4973  1.4608  0.0852
 4106SOL    HW217004   3.461   1.186  10.876 -1.3697 -0.7931  0.5742
 4107SOL     OW17005   4.104   4.211   5.958 -0.4719  0.0990  0.3522
 4107SOL    HW117006   4.049   4.190   5.883  1.3174 -0.0484 -0.9998
 4107SOL    HW217007   4.178   4.258   5.921  0.9027 -0.7177  1.9028
 4108SOL     OW17008   7.437   8.959   3.382 -0.3774 -0.2345 -0.5343
 4108SOL    HW117009   7.477   9.022   3.322 -2.1006  0.8631 -0.6063
 4108SOL    HW217010   7.394   8.896   3.324 -0.7650 -0.0449 -0.4516
 4109SOL     OW17011   8.318   1.365   4.413 -0.1814 -0.0116 -0.1431
 4109SOL    HW117012   8.239   1.398   4.368 -0.7683 -0.2100  0.7195
 4109SOL    HW217013   8.346   1.439   4.467 -0.3879 -0.2902  0.3461
 4110SOL     OW17014   5.670  11.168   9.883 -0.1406 -0.2509  0.2565
 4110SOL    HW117015   5.601  11.173   9.817  0.6317 -0.9268 -0.6242
 4110SOL    HW217016   5.687  11.259   9.907  0.1983  0.0698 -1.1370
 4111SOL     OW17017   2.235  11.569   7.866 -0.9746  0.6470  0.6510
 4111SOL    HW117018   2.266  11.546   7.953  0.9891  0.2802 -0.0904
 4111SOL    HW217019   2.261  11.661   7.855  2.4256 -0.3367 -0.9178
 4112SOL     OW17020   7.927  10.334   9.405  0.0044  0.0581 -0.2599
 4112SOL    HW117021   7.990  10.330   9.333  0.8988 -2.2304  0.5606
 4112SOL    HW217022   7.966  10.394   9.469 -0.2037  1.1163 -1.0990
 4113SOL     OW17023   1.894   1.599   6.244 -0.4428  0.2144 -0.2190
 4113SOL    HW117024   1.941   1.601   6.160 -0.3676 -0.2015 -0.1917
 4113SOL    HW217025   1.945   1.655   6.302 -0.3236  0.2569 -0.3649
 4114SOL     OW17026   1.578   6.433   6.957 -0.6425  0.2777 -0.1413
 4114SOL    HW117027   1.507   6.420   6.894 -1.5294 -2.5019  1.2684
 4114SOL    HW217028   1.534   6.439   7.041  0.7364 -1.8290  0.8151
 4115SOL     OW17029  10.415   8.563   6.597  0.2474 -0.4578  0.0680
 4115SOL    HW117030  10.366   8.514   6.663 -0.1408  1.6104  1.4293
 4115SOL    HW217031  10.420   8.652   6.632 -1.0704  1.1098 -3.2331
 4116SOL     OW17032   3.505  11.788   4.607 -0.5246  0.0959  0.1348
 4116SOL    HW117033   3.543  11.780   4.694 -1.6965 -0.7693  0.5922
 4116SOL    HW217034   3.514  11.881   4.585  1.8825 -0.0833  0.1639
 4117SOL     OW17035  11.905   2.388  10.797 -0.0284  0.2147 -0.1015
 4117SOL    HW117036  11.949   2.308  10.768 -1.4614 -0.7262  0.2428
 4117SOL    HW217037  11.812   2.372  10.781 -0.2773  2.2234 -0.9864
 4118SOL     OW17038   3.405   1.141   6.172  0.2405 -0.7160 -0.7370
 4118SOL    HW117039   3.426   1.048   6.177  2.0896 -0.2735  1.7955
 4118SOL    HW217040   3.484   1.182   6.137  0.6226  0.1508  1.0022
 4119SOL     OW17041   0.766   1.357   1.962  0.0047  0.2145 -0.1140
 4119SOL    HW117042   0.736   1.291   2.025  0.8001  1.5678  1.7360
 4119SOL    HW217043   0.822   1.308   1.901  0.5730 -0.8341  1.2136
 4120SOL     OW17044   5.261   7.195   2.350  0.2257  0.0982 -0.2909
 4120SOL    HW117045   5.285   7.166   2.438  2.2817  1.8733 -0.1918
 4120SOL    HW217046   5.290   7.124   2.293 -0.1395 -0.5846  0.3437
 4121SOL     OW17047   7.656  11.092   8.766  0.6444  0.5071 -0.1195
 4121SOL    HW117048   7.721  11.032   8.803  0.3095  0.6892  0.7878
 4121SOL    HW217049   7.657  11.168   8.824  1.5013  1.6813 -1.6022
 4122SOL     OW17050   8.823   1.527   4.596  0.5720 -0.0580 -0.3258
 4122SOL    HW117051   8.879   1.462   4.554  0.8151 -0.4652  0.6018
 4122SOL    HW217052   8.759   1.475   4.645  0.9228  0.3995  0.6268
 4123SOL     OW17053   0.169   1.034   0.627 -0.2254  0.0221 -0.3737
 4123SOL    HW117054   0.230   0.963   0.605 -0.6622 -0.2959 -0.5921
 4123SOL    HW217055   0.139   1.066   0.542 -0.2783  0.2462 -0.2695
 4124SOL     OW17056   9.982   2.375   9.964  0.4746 -0.2458  0.1248
 4124SOL    HW117057  10.031   2.450   9.932 -1.3949  1.5068  1.0888
 4124SOL    HW217058  10.010   2.302   9.910  0.8938  1.5617 -2.2400
 4125SOL     OW17059  11.489   5.793   5.777  0.0279  0.4137  0.2580
 4125SOL    HW117060  11.517   5.844   5.853  0.6272 -2.3783  2.0652
 4125SOL    HW217061  11.544   5.715   5.778  0.0826  0.2431 -3.1345
 4126SOL     OW17062   2.767  11.278   4.625 -0.1731  0.3136 -0.3076
 4126SOL    HW117063   2.681  11.272   4.584 -1.0269  1.4437  1.2218
 4126SOL    HW217064   2.769  11.365   4.664  0.8375 -0.4381  1.4517
 4127SOL     OW17065   7.059   4.755   5.128 -0.1479  0.4262 -0.0465
 4127SOL    HW117066   7.093   4.751   5.218  1.6777 -1.0748 -0.7248
 4127SOL    HW217067   7.126   4.802   5.079 -0.3196 -0.2320 -0.9375
 4128SOL     OW17068   1.787   7.450   6.453  0.3144  0.4049 -0.0127
 4128SOL    HW117069   1.859   7.485   6.505  0.1957  0.3235  0.2042
 4128SOL    HW217070   1.709   7.463   6.506  0.2846 -0.3133  0.1298
 4129SOL     OW17071   6.889   5.727   7.921  0.0670  0.6925  0.3662
 4129SOL    HW117072   6.914   5.771   8.002 -0.1929 -0.7112  1.2372
 4129SOL    HW217073   6.971   5.692   7.887  0.0225  0.3346  0.6186
 4130SOL     OW17074   2.131   3.299   6.903  0.3057 -0.2498 -0.0650
 4130SOL    HW117075   2.052   3.339   6.940 -0.4733 -1.4393 -0.3823
 4130SOL    HW217076   2.194   3.301   6.975 -0.1022  0.4372  0.2917
 4131SOL     OW17077   4.324  10.088  10.087  0.0404  0.4364  0.1161
 4131SOL    HW117078   4.300  10.032  10.161  3.9486 -2.2846 -0.3361
 4131SOL    HW217079   4.369  10.162  10.127  0.1425  0.1435  0.5565
 4132SOL     OW17080   1.763   9.513   4.508  0.1362 -0.2052  0.1325
 4132SOL    HW117081   1.850   9.542   4.480  0.0551  0.9988  1.0345
 4132SOL    HW217082   1.706   9.531   4.434  0.0570  2.2311  0.6954
 4133SOL     OW17083   2.596   8.679   4.065 -0.5214 -0.2025 -0.0153
 4133SOL    HW117084   2.608   8.615   4.136 -1.6927 -0.6221 -0.1779
 4133SOL    HW217085   2.504   8.671   4.041 -0.5107  1.0350 -0.5451
 4134SOL     OW17086   0.080   7.894   9.836 -0.5062  0.3295  0.6035
 4134SOL    HW117087   0.094   7.971   9.781 -3.8491  1.7346  1.4598
 4134SOL    HW217088   0.046   7.929   9.919  0.0905 -1.9751  1.9169
 4135SOL     OW17089   3.104   0.387   1.072 -0.6606  0.0834  0.0685
 4135SOL    HW117090   3.042   0.314   1.070 -1.8070  1.0520 -0.3949
 4135SOL    HW217091   3.176   0.355   1.127  0.3332 -2.5497 -2.4556
 4136SOL     OW17092  11.468   1.130   5.535  0.8030  0.0498  0.2454
 4136SOL    HW117093  11.478   1.042   5.573  2.1762  0.8813  1.9443
 4136SOL    HW217094  11.542   1.139   5.475  0.0241 -0.3337 -0.8116
 4137SOL     OW17095   3.608   2.394   5.035 -0.2040  0.7208 -0.0788
 4137SOL    HW117096   3.683   2.344   5.064 -0.5601  0.8891  1.1765
 4137SOL    HW217097   3.547   2.329   5.000  0.1669  0.5048 -0.3310
 4138SOL     OW17098   4.516   9.643   0.841  0.1681  0.5066  0.7923
 4138SOL    HW117099   4.469   9.620   0.921 -0.9293 -0.9915 -0.2265
 4138SOL    HW217100   4.550   9.559   0.808  0.3391  1.0400 -0.4627
 4139SOL     OW17101  10.890   0.511   0.429 -0.4530  0.4214 -0.4230
 4139SOL    HW117102  10.882   0.606   0.433  0.1961  0.4518  2.4019
 4139SOL    HW217103  10.955   0.495   0.360  0.4175  2.1435 -0.0566
 4140SOL     OW17104   2.294   6.708   0.121  0.2826 -0.4347 -0.1842
 4140SOL    HW117105   2.240   6.779   0.086 -0.2733 -0.6547  0.2149
 4140SOL    HW217106   2.366   6.700   0.059 -0.9796 -1.2326 -1.6188
 4141SOL     OW17107   6.359   9.810   5.021 -0.1152  0.0397  0.1595
 4141SOL    HW117108   6.393   9.779   5.105  3.2742  0.8365 -0.7467
 4141SOL    HW217109   6.407   9.758   4.956  1.2095  2.8420 -1.2828
 4142SOL     OW17110   1.819   9.384   4.998  0.0888  0.1486 -0.3674
 4142SOL    HW117111   1.734   9.346   5.017 -0.8459  2.1496 -0.2560
 4142SOL    HW217112   1.836   9.360   4.906 -0.2506 -0.8496 -0.1765
 4143SOL     OW17113   6.489   0.454   2.022 -0.2563 -0.5641 -0.2056
 4143SOL    HW117114   6.546   0.529   2.042  0.8869 -1.5246  0.2770
 4143SOL    HW217115   6.410   0.469   2.074  0.8831 -0.7912  1.7178
 4144SOL     OW17116   2.670   2.200   0.613  0.6543 -0.0546 -0.4011
 4144SOL    HW117117   2.657   2.191   0.518 -2.4164 -2.6286  0.0759
 4144SOL    HW217118   2.590   2.244   0.644  0.4797 -1.3961  1.1845
 4145SOL     OW17119  10.243   0.650   3.871  0.4249  0.2472  0.3525
 4145SOL    HW117120  10.211   0.712   3.806  1.2588  1.9158  1.4379
 4145SOL    HW217121  10.296   0.588   3.821  1.4460  1.7661 -0.5320
 4146SOL     OW17122   8.031  11.881   0.881  0.1015 -0.2364 -0.1948
 4146SOL    HW117123   8.121  11.913   0.890 -0.2445  0.7123  0.0722
 4146SOL    HW217124   7.987  11.912   0.961 -0.9641  1.0924 -1.2439
 4147SOL     OW17125   5.722   9.852   5.807 -0.1225 -0.1388 -0.7264
 4147SOL    HW117126   5.634   9.887   5.823 -0.2974 -0.6622 -0.4991
 4147SOL    HW217127   5.777   9.894   5.873  0.3807  2.3082 -2.5664
 4148SOL     OW17128   8.232   3.907   6.383 -0.5603 -0.0457  0.3101
 4148SOL    HW117129   8.313   3.886   6.337 -1.0722  0.4309 -0.8239
 4148SOL    HW217130   8.178   3.828   6.373 -0.8120  0.1922 -0.2282
 4149SOL     OW17131   5.739   4.500  11.587  0.1388 -0.0744 -0.3409
 4149SOL    HW117132   5.699   4.520  11.672 -0.5393 -1.6273 -0.2550
 4149SOL    HW217133   5.665   4.495  11.527  0.2197 -2.2682 -0.3321
 4150SOL     OW17134   7.309   4.068   6.104  0.4163  0.0548  0.4222
 4150SOL    HW117135   7.314   4.106   6.016 -0.0904 -0.1978  0.2788
 4150SOL    HW217136   7.367   4.122   6.157  2.4106 -1.0366 -0.5075
 4151SOL     OW17137  10.176   5.406  11.998  0.2400 -0.2275  0.5310
 4151SOL    HW117138  10.135   5.344  11.937  3.0429 -0.2081 -1.5566
 4151SOL    HW217139  10.238   5.352  12.048 -0.5563  0.1480  1.9900
 4152SOL     OW17140   5.057   4.472   6.109 -1.0099 -0.0627 -0.1027
 4152SOL    HW117141   5.141   4.515   6.125 -0.5902 -1.2516  1.0493
 4152SOL    HW217142   5.001   4.541   6.074 -0.1574  1.2579  1.0461
 4153SOL     OW17143   8.259   9.350  11.558 -0.4366  0.3647 -0.6448
 4153SOL    HW117144   8.323   9.284  11.531 -1.2370 -0.3696 -0.7873
 4153SOL    HW217145   8.266   9.419  11.492 -0.4679 -0.1638 -1.2094
 4154SOL     OW17146   9.675   0.155   0.433 -0.4644 -0.1213 -0.2029
 4154SOL    HW117147   9.767   0.158   0.459 -0.6993 -0.8412  0.7797
 4154SOL    HW217148   9.663   0.069   0.394 -0.7047 -0.0048 -0.3916
 4155SOL     OW17149   1.027   5.814  11.691 -0.1513 -0.0078 -0.0303
 4155SOL    HW117150   1.010   5.757  11.616 -0.5744 -0.8751  0.7051
 4155SOL    HW217151   1.052   5.754  11.762  0.1097  0.7812  0.5662
 4156SOL     OW17152   0.938   7.221   1.647  0.2482  0.3307 -0.2259
 4156SOL    HW117153   0.937   7.313   1.619  0.3488  0.7315  0.9999
 4156SOL    HW217154   0.854   7.208   1.691  0.3727 -0.0685 -0.1011
 4157SOL     OW17155   9.889   5.489   2.389 -0.0972 -0.3685 -0.2673
 4157SOL    HW117156   9.858   5.575   2.418  0.0100 -0.6003  0.5702
 4157SOL    HW217157   9.829   5.427   2.432 -0.7086 -0.6969 -1.5404
 4158SOL     OW17158  10.766   9.604   9.609  0.0554 -0.2140  0.3465
 4158SOL    HW117159  10.687   9.653   9.632  1.0992  1.3735  0.6764
 4158SOL    HW217160  10.797   9.645   9.528  0.3285 -1.0836  0.0029
 4159SOL     OW17161  11.484   8.821   8.915 -0.0498  0.2919 -0.1376
 4159SOL    HW117162  11.392   8.795   8.905 -0.1750 -0.6964  2.7262
 4159SOL    HW217163  11.533   8.739   8.905  0.2977  0.3828  0.7631
 4160SOL     OW17164   3.693   3.284   9.591  0.4399  0.4976 -0.5200
 4160SOL    HW117165   3.600   3.303   9.582  0.2581  1.2658  2.0250
 4160SOL    HW217166   3.729   3.363   9.632  1.5999 -0.8671  1.2815
 4161SOL     OW17167   0.310   0.360   3.788  0.0752 -0.5620  0.0115
 4161SOL    HW117168   0.332   0.288   3.847  0.6782 -1.3332 -1.1271
 4161SOL    HW217169   0.377   0.357   3.720 -0.9748 -0.1111 -1.0852
 4162SOL     OW17170   1.696   5.021   5.499 -0.0204 -0.0140 -0.0784
 4162SOL    HW117171   1.784   4.985   5.496 -0.1727 -0.4581  0.5655
 4162SOL    HW217172   1.662   4.994   5.584 -1.0313 -0.4472 -0.6005
 4163SOL     OW17173   7.887  11.252   8.904  0.2623 -1.0369 -0.2381
 4163SOL    HW117174   7.916  11.312   8.973  1.2051 -1.5718 -0.1584
 4163SOL    HW217175   7.802  11.288   8.876 -0.1020 -0.7535  1.1253
 4164SOL     OW17176   3.141   7.185   8.504 -0.5625 -0.1019  0.2809
 4164SOL    HW117177   3.235   7.190   8.488 -0.3681 -0.5550  1.1935
 4164SOL    HW217178   3.131   7.211   8.595 -1.5335  1.6857 -0.2826
 4165SOL     OW17179   4.327  11.276   6.363  0.7400  0.1578 -0.2026
 4165SOL    HW117180   4.274  11.260   6.285  0.5342 -1.0120  0.1674
 4165SOL    HW217181   4.266  11.313   6.427  0.6053 -0.1848 -0.1332
 4166SOL     OW17182   6.491   5.185  10.953 -0.2271 -0.2795  0.1692
 4166SOL    HW117183   6.439   5.261  10.928 -0.5240 -0.1470  1.1445
 4166SOL    HW217184   6.479   5.178  11.048  0.3040 -1.1647  0.1819
 4167SOL     OW17185   0.078   3.371   7.589  0.5030 -0.2571  0.1086
 4167SOL    HW117186   0.130   3.375   7.509 -0.2496  0.4736 -0.3657
 4167SOL    HW217187  -0.009   3.400   7.562  0.0656 -0.6549  1.0567
 4168SOL     OW17188   3.551   9.014  10.346 -0.2216  0.2172  0.7586
 4168SOL    HW117189   3.470   8.995  10.393 -0.6583  0.3746  0.0683
 4168SOL    HW217190   3.545   9.107  10.325 -0.5259 -0.0846 -0.5547
 4169SOL     OW17191   5.064   8.274  11.034 -0.4632  0.4224 -0.3421
 4169SOL    HW117192   5.159   8.286  11.026 -0.1748 -0.8828  0.7411
 4169SOL    HW217193   5.052   8.239  11.122 -1.6936 -1.8123 -1.3434
 4170SOL     OW17194   6.944   3.714   9.806  0.0755  0.4879  0.3783
 4170SOL    HW117195   6.978   3.776   9.870 -0.4344 -0.7023  1.8598
 4170SOL    HW217196   6.904   3.769   9.738  2.4577  1.8501 -0.0639
 4171SOL     OW17197   4.603   3.629  10.982 -0.0446 -0.2886 -0.2745
 4171SOL    HW117198   4.565   3.674  11.058  0.9835 -1.7369  1.1601
 4171SOL    HW217199   4.549   3.551  10.972  0.8716 -0.9812  0.0753
 4172SOL     OW17200   4.226   2.824  11.898  0.4857 -0.2746 -0.4713
 4172SOL    HW117201   4.274   2.860  11.823  1.5504  0.8962  0.7359
 4172SOL    HW217202   4.288   2.826  11.970 -0.1978 -2.3413  0.2415
 4173SOL     OW17203   9.618   4.440  11.813 -0.3944  0.0011 -0.6082
 4173SOL    HW117204   9.588   4.385  11.886 -0.7290  1.4066  0.3587
 4173SOL    HW217205   9.541   4.494  11.791  0.2866  0.9678 -0.6686
 4174SOL     OW17206   4.469  11.232   4.637  0.0423 -0.2636 -0.0542
 4174SOL    HW117207   4.385  11.220   4.683 -0.0752  1.9945  0.4382
 4174SOL    HW217208   4.444  11.252   4.547 -0.0700  1.4212  0.3056
 4175SOL     OW17209   6.551   9.902   1.960  0.2077  0.3375  0.1265
 4175SOL    HW117210   6.516   9.989   1.942  0.6007  0.6051  0.6197
 4175SOL    HW217211   6.585   9.871   1.876 -0.2221  0.5246 -0.1175
 4176SOL     OW17212   9.367   1.777   5.385 -0.2250  0.1788  0.3752
 4176SOL    HW117213   9.297   1.836   5.412  1.4540  2.7303 -0.4945
 4176SOL    HW217214   9.445   1.811   5.428  1.6920  1.6240 -3.7397
 4177SOL     OW17215  10.452   7.072   3.883 -0.0421 -0.0872 -0.3751
 4177SOL    HW117216  10.449   7.149   3.827  1.2603  0.4971  0.3109
 4177SOL    HW217217  10.487   7.003   3.827 -1.4438 -0.2667 -1.0631
 4178SOL     OW17218   8.820   1.909   5.439  0.1328  0.2326  0.7015
 4178SOL    HW117219   8.825   2.001   5.464 -0.9581  0.3890  0.4006
 4178SOL    HW217220   8.726   1.889   5.438  0.2918 -0.5815 -0.3159
 4179SOL     OW17221  10.226   8.031   3.192 -0.4048 -0.1692 -0.3914
 4179SOL    HW117222  10.261   8.110   3.151 -1.5007  0.5929  0.1003
 4179SOL    HW217223  10.230   8.050   3.286  1.6781 -1.7160 -0.1040
 4180SOL     OW17224  10.457   3.845   2.784  0.2603  0.3635  0.5402
 4180SOL    HW117225  10.391   3.877   2.844 -0.2423  0.2107  0.0742
 4180SOL    HW217226  10.540   3.860   2.829 -0.0671  0.8926  0.9707
 4181SOL     OW17227   1.853   6.035   3.827 -0.5654  0.2455 -0.4159
 4181SOL    HW117228   1.843   6.023   3.733  0.5136  1.2022 -0.6741
 4181SOL    HW217229   1.941   6.003   3.847 -0.8872 -0.2064  0.3213
 4182SOL     OW17230   3.807   2.952   2.222 -0.1687 -0.3075  0.2229
 4182SOL    HW117231   3.884   2.987   2.267  0.3096  0.6153 -1.2378
 4182SOL    HW217232   3.823   2.858   2.216  0.1976 -0.3097  1.1045
 4183SOL     OW17233   8.547  11.730   3.351 -0.9909  0.2401 -0.6007
 4183SOL    HW117234   8.497  11.751   3.430  1.6791 -0.8655  1.5472
 4183SOL    HW217235   8.526  11.638   3.333  0.6549 -0.4572  0.7475
 4184SOL     OW17236   6.934   5.214  10.363  0.4471 -0.6551  0.0025
 4184SOL    HW117237   6.958   5.297  10.321 -2.4465 -0.4103 -1.4223
 4184SOL    HW217238   7.018   5.177  10.392  1.8589  2.7470  0.7978
 4185SOL     OW17239  11.833   8.672   6.131  0.0658  0.5780  0.4956
 4185SOL    HW117240  11.902   8.678   6.065  0.7519  0.2137  1.1600
 4185SOL    HW217241  11.871   8.618   6.200 -0.8553  0.4587  0.9204
 4186SOL     OW17242  11.933   8.846   3.646  0.3722 -0.2263 -1.3249
 4186SOL    HW117243  11.884   8.765   3.661  0.9333 -0.4228 -0.5104
 4186SOL    HW217244  11.873   8.915   3.675 -0.1073 -0.3430 -2.0208
 4187SOL     OW17245  11.715   8.796   6.996  0.1087 -0.1705  0.5162
 4187SOL    HW117246  11.732   8.802   7.090  1.2182 -2.5916  0.5638
 4187SOL    HW217247  11.648   8.729   6.988  0.3727 -0.3373 -0.4331
 4188SOL     OW17248   9.469   5.714   2.693 -0.7056 -0.0333  0.1809
 4188SOL    HW117249   9.445   5.784   2.754  0.0942  0.2190  0.2205
 4188SOL    HW217250   9.564   5.720   2.687 -0.7922  0.2705 -1.4706
 4189SOL     OW17251  10.418   8.539  11.089  0.2243  0.4836 -0.4123
 4189SOL    HW117252  10.512   8.533  11.072  0.0022 -0.6192 -1.3860
 4189SOL    HW217253  10.380   8.560  11.004 -0.4649  0.2958 -0.1577
 4190SOL     OW17254   9.042   0.597   2.366 -0.0842  0.1596 -0.9404
 4190SOL    HW117255   9.086   0.666   2.414  1.3171 -0.2948 -1.5321
 4190SOL    HW217256   8.993   0.643   2.298  1.6013  0.5616 -1.9332
 4191SOL     OW17257   6.916   2.352   4.415  0.7768  0.4661 -0.3264
 4191SOL    HW117258   6.839   2.347   4.473  2.6988 -0.2822  2.3329
 4191SOL    HW217259   6.894   2.422   4.353 -2.1391  0.0852  0.1244
 4192SOL     OW17260   0.677   8.218   5.111 -0.2526 -0.2294  0.0216
 4192SOL    HW117261   0.747   8.190   5.052 -1.8790 -2.2570 -1.0602
 4192SOL    HW217262   0.667   8.312   5.093  1.5155 -0.1002 -0.4747
 4193SOL     OW17263   1.393   7.702   8.203  0.3056  0.2487 -0.2438
 4193SOL    HW117264   1.322   7.642   8.225  0.0856  0.0177 -1.4930
 4193SOL    HW217265   1.352   7.788   8.201 -0.3753 -0.0643 -2.6102
 4194SOL     OW17266   8.719  10.974   0.258 -0.6840 -0.5447 -0.6002
 4194SOL    HW117267   8.768  10.924   0.322 -0.0914 -0.2396 -0.8033
 4194SOL    HW217268   8.629  10.944   0.267 -0.5216 -0.8551  0.0282
 4195SOL     OW17269   3.757   2.890   8.158 -0.0378 -0.2471  0.0573
 4195SOL    HW117270   3.804   2.809   8.140 -0.3277 -0.0150 -2.0063
 4195SOL    HW217271   3.772   2.907   8.251  1.5633 -1.6737  0.0970
 4196SOL     OW17272  10.380  11.031   4.567  0.7094  0.0360  0.3578
 4196SOL    HW117273  10.418  11.041   4.480 -0.9632  3.3509 -0.1496
 4196SOL    HW217274  10.434  11.086   4.624  0.1433  0.1026  0.8372
 4197SOL     OW17275   9.364   6.822  11.123  0.0927 -0.2780  0.2527
 4197SOL    HW117276   9.329   6.818  11.213  1.1551  1.0979  0.7560
 4197SOL    HW217277   9.459   6.818  11.134  0.3435  1.9168 -0.6136
 4198SOL     OW17278   5.966   1.847   1.475 -0.4976 -0.1827 -0.2298
 4198SOL    HW117279   6.038   1.907   1.459 -0.3251  0.8279  3.3301
 4198SOL    HW217280   5.887   1.902   1.467 -0.6823 -0.5804 -1.2479
 4199SOL     OW17281   3.674   4.562   6.551 -0.6129  0.0910  0.0815
 4199SOL    HW117282   3.675   4.472   6.517  0.5193  0.6319 -1.4440
 4199SOL    HW217283   3.582   4.586   6.552 -0.8046 -0.5158 -1.1204
 4200SOL     OW17284   7.987   8.384   8.442 -0.6538 -0.4361  0.0665
 4200SOL    HW117285   7.991   8.368   8.348 -1.0997 -0.9417  0.1316
 4200SOL    HW217286   7.906   8.343   8.471  0.2276 -1.6702  0.9284
 4201SOL     OW17287   3.678   0.736   4.791  0.4240  0.5004  0.3661
 4201SOL    HW117288   3.656   0.644   4.773  0.6977  0.7491 -1.4049
 4201SOL    HW217289   3.602   0.785   4.761  0.9305  0.9507 -0.2165
 4202SOL     OW17290   4.379   3.024   5.293 -0.3115 -0.0638 -0.0103
 4202SOL    HW117291   4.301   3.039   5.240  0.4087  1.5732 -0.6730
 4202SOL    HW217292   4.378   2.930   5.311 -1.4307 -0.3982 -1.5865
 4203SOL     OW17293   8.318   2.511   4.291  0.4105 -0.2174 -0.2341
 4203SOL    HW117294   8.247   2.552   4.341  1.5923  0.5006  0.8911
 4203SOL    HW217295   8.341   2.434   4.341  0.6584 -0.2681 -0.4262
 4204SOL     OW17296   8.478  10.315  10.167  0.3088 -0.1363  0.4335
 4204SOL    HW117297   8.554  10.285  10.217  0.0075 -1.0684  0.3536
 4204SOL    HW217298   8.404  10.306  10.227  0.1892  0.3703  0.3724
 4205SOL     OW17299   6.219   4.209   3.313 -0.1729 -0.5303 -0.3653
 4205SOL    HW117300   6.149   4.197   3.378 -1.2118  0.7214 -1.1958
 4205SOL    HW217301   6.273   4.131   3.322 -1.8213 -1.6776  0.1426
 4206SOL     OW17302   1.165   7.509  10.411  0.2765  0.6622  0.1755
 4206SOL    HW117303   1.210   7.430  10.380  0.0777  0.3342  0.6989
 4206SOL    HW217304   1.119   7.541  10.334  0.4129  0.3034 -0.0630
 4207SOL     OW17305   5.776   4.542   6.045  0.5720  0.0065 -0.0625
 4207SOL    HW117306   5.750   4.451   6.033  0.6539 -0.1782  1.0715
 4207SOL    HW217307   5.871   4.541   6.034  0.7491 -0.3082  1.3341
 4208SOL     OW17308   8.274   1.434   4.880  0.3686  0.2303 -0.4947
 4208SOL    HW117309   8.342   1.462   4.819 -0.3180  0.3862 -1.1873
 4208SOL    HW217310   8.318   1.368   4.935  1.1197  0.4388 -0.8262
 4209SOL     OW17311   8.337   7.395  10.316  0.0522 -0.0180 -0.3527
 4209SOL    HW117312   8.417   7.388  10.369 -0.6610  0.9991  0.9350
 4209SOL    HW217313   8.298   7.479  10.343 -1.2961 -0.3496 -1.1737
 4210SOL     OW17314  10.962   6.391   8.957 -0.3300  0.0985 -0.4990
 4210SOL    HW117315  10.933   6.357   8.872  2.6310 -0.3630 -1.4410
 4210SOL    HW217316  10.905   6.467   8.973 -2.3696 -1.0596 -1.8048
 4211SOL     OW17317   2.897   3.959   1.986  0.3743 -0.1105  0.1366
 4211SOL    HW117318   2.836   3.900   2.029  2.2168 -2.6625 -0.5427
 4211SOL    HW217319   2.981   3.943   2.028  0.9230  2.3244  0.1478
 4212SOL     OW17320   1.288   5.662   1.095 -0.5980  0.2224  0.3241
 4212SOL    HW117321   1.308   5.653   1.002 -0.4995 -0.1748  0.3800
 4212SOL    HW217322   1.357   5.719   1.129 -1.5523  1.7200 -0.1543
 4213SOL     OW17323   2.052   8.073  11.579 -0.4924  0.5737  0.1750
 4213SOL    HW117324   1.959   8.079  11.557 -0.2384 -0.2281 -1.2234
 4213SOL    HW217325   2.088   8.159  11.556 -0.6706  0.4861 -0.4582
 4214SOL     OW17326   9.008  10.585   5.800  0.0477 -0.2857  0.0199
 4214SOL    HW117327   8.937  10.549   5.854  0.3200 -1.5351 -0.4094
 4214SOL    HW217328   8.966  10.603   5.715  0.4821 -2.3076 -0.6782
 4215SOL     OW17329  11.736   3.076   3.793 -0.7059  1.0374 -0.0435
 4215SOL    HW117330  11.763   3.106   3.706 -0.7688 -1.0365 -0.8193
 4215SOL    HW217331  11.811   3.097   3.849 -0.1319  1.2188 -0.8483
 4216SOL     OW17332   2.807  10.994   5.294  0.1184 -0.4603 -0.5067
 4216SOL    HW117333   2.729  10.940   5.284  0.7749 -1.4221 -0.5593
 4216SOL    HW217334   2.775  11.084   5.283 -1.1608 -0.7465  0.5186
 4217SOL     OW17335   7.723   4.183   6.300  0.2180 -0.1177 -0.1099
 4217SOL    HW117336   7.653   4.144   6.351  0.5066  0.2654  0.5827
 4217SOL    HW217337   7.795   4.194   6.362  1.0471 -0.8988 -0.8993
 4218SOL     OW17338   4.352   7.977   8.664  0.1876  0.9779 -0.1648
 4218SOL    HW117339   4.336   7.892   8.624  0.5504  0.6544  0.3546
 4218SOL    HW217340   4.297   8.038   8.615  1.3777  0.7862 -1.8043
 4219SOL     OW17341  10.089   5.042   7.719 -0.0182 -0.5571  0.4699
 4219SOL    HW117342  10.054   4.954   7.702 -0.6898 -0.3128  0.5768
 4219SOL    HW217343  10.158   5.053   7.653 -0.3695 -0.9078  0.0364
 4220SOL     OW17344   0.331   4.866   6.584  0.4024 -0.5279  0.1222
 4220SOL    HW117345   0.252   4.849   6.636 -0.3699 -1.4738 -1.2831
 4220SOL    HW217346   0.401   4.875   6.649 -0.9352  1.0122  1.4504
 4221SOL     OW17347   4.009   5.296   9.942 -0.2515  0.0413  0.0705
 4221SOL    HW117348   3.946   5.354   9.986  0.4555  1.3354 -0.5837
 4221SOL    HW217349   3.957   5.219   9.918 -1.8168  1.3681 -1.0848
 4222SOL     OW17350  10.691  10.627   4.992 -0.0394  0.0504  0.0240
 4222SOL    HW117351  10.688  10.539   4.955  0.5010  0.1858 -0.3573
 4222SOL    HW217352  10.628  10.625   5.064 -0.7984 -0.3489 -0.6306
 4223SOL     OW17353   9.620   3.325   7.383  0.0478  0.2427  0.6457
 4223SOL    HW117354   9.675   3.247   7.396 -1.5629 -0.7171  2.0749
 4223SOL    HW217355   9.530   3.293   7.395 -0.7941  1.9535 -0.6690
 4224SOL     OW17356   5.557   0.717   4.793  0.5625 -0.8633 -0.0794
 4224SOL    HW117357   5.568   0.799   4.841 -0.4422 -1.2382  0.8559
 4224SOL    HW217358   5.489   0.736   4.728 -1.4486 -1.5273  1.7134
 4225SOL     OW17359   1.195   8.511   9.211  0.4568 -0.1563 -0.0316
 4225SOL    HW117360   1.220   8.433   9.260  0.1782  0.9857  2.0310
 4225SOL    HW217361   1.249   8.581   9.248  0.0496  0.8094 -1.2115
 4226SOL     OW17362   2.887  10.241   9.658  0.5539  0.5928  0.2156
 4226SOL    HW117363   2.899  10.320   9.605 -0.1190  0.1364 -0.6534
 4226SOL    HW217364   2.804  10.204   9.627  1.3319 -0.9868 -0.0952
 4227SOL     OW17365   6.373   2.734   6.627 -0.2546  0.1534 -0.0283
 4227SOL    HW117366   6.437   2.774   6.569 -0.3681  1.2178  0.5605
 4227SOL    HW217367   6.410   2.648   6.648  2.4128  1.7780  2.5531
 4228SOL     OW17368   4.597   5.058   0.618  0.3713 -0.5265 -0.3834
 4228SOL    HW117369   4.518   5.044   0.565 -0.1550 -0.5410  0.3875
 4228SOL    HW217370   4.664   5.004   0.577  0.7160  1.4547 -2.6228
 4229SOL     OW17371   2.231   7.979   3.734 -0.2345  0.9642 -0.3189
 4229SOL    HW117372   2.188   7.901   3.769  1.1980  0.0748 -0.4454
 4229SOL    HW217373   2.174   8.008   3.663 -1.8263  1.2415  1.0227
 4230SOL     OW17374   5.846   5.150   6.113  1.1624  0.2817 -0.0062
 4230SOL    HW117375   5.800   5.234   6.109  1.8447  0.8156  1.8975
 4230SOL    HW217376   5.782   5.089   6.150  1.3036  0.5157  0.6486
 4231SOL     OW17377   3.909   5.309   5.124  0.6299 -0.0324  0.0066
 4231SOL    HW117378   3.858   5.390   5.112  0.5042 -0.3168 -1.5276
 4231SOL    HW217379   3.975   5.312   5.055 -0.0053 -1.7057 -0.7217
 4232SOL     OW17380   6.756  11.424   4.530  0.4233  0.0207 -0.1359
 4232SOL    HW117381   6.791  11.420   4.619  2.9491 -3.2875 -1.0927
 4232SOL    HW217382   6.689  11.356   4.528 -0.2426  0.6693 -0.6103
 4233SOL     OW17383   1.057   9.962   7.954 -0.2549 -0.8668 -0.1310
 4233SOL    HW117384   1.133  10.020   7.963 -0.8824 -0.1819  0.9821
 4233SOL    HW217385   1.045   9.954   7.859  1.8053 -1.8225 -0.3701
 4234SOL     OW17386   2.478   6.960   3.921 -0.5228 -0.8811  0.2508
 4234SOL    HW117387   2.425   6.955   4.001 -0.7756 -0.9701  0.0768
 4234SOL    HW217388   2.428   7.016   3.862  0.2747  0.2388  0.6146
 4235SOL     OW17389   6.241   9.125   4.408  0.0698 -0.0097  0.2375
 4235SOL    HW117390   6.176   9.107   4.341  2.4300 -0.5000 -2.0860
 4235SOL    HW217391   6.284   9.206   4.380  3.2065 -1.8360 -0.7470
 4236SOL     OW17392  11.000   6.852   3.066 -0.3608 -0.1722  0.0085
 4236SOL    HW117393  10.920   6.815   3.027 -1.2254  1.0896  0.5188
 4236SOL    HW217394  11.010   6.806   3.149 -0.3669 -0.5662 -0.2065
 4237SOL     OW17395   8.525   4.546   9.028  0.1360  0.7543  0.3037
 4237SOL    HW117396   8.521   4.625   9.081 -0.7332  0.9467 -0.0325
 4237SOL    HW217397   8.436   4.535   8.993  0.5848  0.4176 -0.7924
 4238SOL     OW17398   5.672   5.882  11.006 -0.0226 -0.5208 -0.6647
 4238SOL    HW117399   5.657   5.863  11.099  0.8304 -1.2523 -0.6657
 4238SOL    HW217400   5.593   5.930  10.979 -0.7987 -1.2942  0.1474
 4239SOL     OW17401   1.067   6.109   7.993  0.1399  0.1316  0.2489
 4239SOL    HW117402   1.079   6.019   7.963  0.1011  0.9161 -2.3900
 4239SOL    HW217403   1.155   6.145   7.998  0.0474  0.5040 -0.6719
 4240SOL     OW17404  11.255   4.025   8.915  0.1523 -0.4340 -0.2207
 4240SOL    HW117405  11.265   3.987   8.828  0.1122  1.4225 -1.0751
 4240SOL    HW217406  11.338   4.070   8.932  0.5506 -1.6044  1.1642
 4241SOL     OW17407   3.455   8.514   5.687  0.0532 -0.3335 -0.5173
 4241SOL    HW117408   3.477   8.458   5.762 -0.5253 -0.4432 -0.4272
 4241SOL    HW217409   3.485   8.465   5.611  1.1349  0.0117 -0.3381
 4242SOL     OW17410   7.439  11.751   7.458 -0.0471 -0.4560 -0.4536
 4242SOL    HW117411   7.513  11.755   7.518  0.0710  1.0687 -0.6718
 4242SOL    HW217412   7.371  11.803   7.501 -0.1917  0.0844 -1.3246
 4243SOL     OW17413   3.033   6.577   2.773 -0.0966 -0.5183  0.4596
 4243SOL    HW117414   2.974   6.508   2.805 -0.5757 -0.9233 -1.2281
 4243SOL    HW217415   2.975   6.642   2.733  0.2854  1.2390  2.5514
 4244SOL     OW17416   9.274   1.887   0.958  0.4382 -0.3969  0.3784
 4244SOL    HW117417   9.366   1.865   0.944 -0.1103 -1.4278 -2.3832
 4244SOL    HW217418   9.232   1.804   0.978 -0.0806 -0.1518  0.3140
 4245SOL     OW17419   6.370   9.004   2.404  0.0735 -0.1262  0.5819
 4245SOL    HW117420   6.385   8.916   2.436  0.2055 -0.6502 -0.8244
 4245SOL    HW217421   6.352   8.993   2.310  3.7413  1.6332 -0.4988
 4246SOL     OW17422   1.409   9.701   3.620 -0.1991 -0.5543 -0.0802
 4246SOL    HW117423   1.370   9.685   3.705 -0.5424  1.8555  0.2710
 4246SOL    HW217424   1.339   9.741   3.568  0.9834  1.4444 -0.2550
 4247SOL     OW17425   6.637   4.335   1.640 -0.6594  0.0137 -0.1261
 4247SOL    HW117426   6.633   4.336   1.736 -0.7531  1.2758 -0.1291
 4247SOL    HW217427   6.608   4.247   1.616 -0.6730 -0.3100  0.9965
 4248SOL     OW17428   4.788   5.809   2.525 -0.0045 -0.3823  0.0837
 4248SOL    HW117429   4.796   5.830   2.618  2.2718  0.5239 -0.2507
 4248SOL    HW217430   4.756   5.719   2.524  2.1764 -1.2798  1.8211
 4249SOL     OW17431   4.178  10.007  10.782  0.0528 -0.3070  0.5818
 4249SOL    HW117432   4.123   9.951  10.837  0.5239 -0.1013  1.2756
 4249SOL    HW217433   4.129  10.089  10.774 -0.1415 -0.4347  0.4710
 4250SOL     OW17434   2.970   1.339  10.050 -0.3198  0.3216 -0.0701
 4250SOL    HW117435   2.970   1.298  10.136  0.0422  0.1495 -0.1526
 4250SOL    HW217436   3.047   1.304  10.006  0.4139  1.6292  0.1163
 4251SOL     OW17437   5.886   3.440   9.042 -0.0740  0.0204 -0.1538
 4251SOL    HW117438   5.965   3.484   9.074  1.1129 -1.1176 -1.3661
 4251SOL    HW217439   5.814   3.489   9.081  1.2113  0.0236  2.4238
 4252SOL     OW17440   5.124   8.344   0.294  0.2469  0.2853 -0.5295
 4252SOL    HW117441   5.060   8.409   0.323  0.0354 -0.3440  0.4503
 4252SOL    HW217442   5.203   8.366   0.345  0.5115  0.4409 -1.0009
 4253SOL     OW17443   5.880  11.471  11.471  0.5169 -0.3377  0.5290
 4253SOL    HW117444   5.827  11.547  11.446 -0.0538 -0.9953 -0.3318
 4253SOL    HW217445   5.911  11.491  11.559 -0.0844  0.6412  0.5342
 4254SOL     OW17446   0.240  11.534   7.436  0.1824 -0.3004  0.3574
 4254SOL    HW117447   0.209  11.447   7.463  0.4529 -0.4414  0.2157
 4254SOL    HW217448   0.331  11.520   7.409 -0.3563 -0.3585 -1.5666
 4255SOL     OW17449  11.434   4.243  11.268  0.1781  0.6764  0.2695
 4255SOL    HW117450  11.483   4.261  11.348  0.1499 -0.5449  0.5877
 4255SOL    HW217451  11.475   4.164  11.233 -0.9525  0.1795  0.0337
 4256SOL     OW17452   6.301   0.856   0.088  0.0272 -0.6747 -0.0786
 4256SOL    HW117453   6.324   0.831   0.178 -1.0190 -0.3225  0.2998
 4256SOL    HW217454   6.217   0.813   0.071  0.6086 -1.4254 -1.2059
 4257SOL     OW17455  11.851  11.168   4.304  0.1696  0.2111 -0.2604
 4257SOL    HW117456  11.769  11.208   4.276  1.6672  1.7439 -2.8930
 4257SOL    HW217457  11.839  11.074   4.289 -2.0172 -0.0423  2.2399
 4258SOL     OW17458   6.935  11.960   5.099 -0.1802 -0.0777 -0.6239
 4258SOL    HW117459   6.884  11.966   5.018  1.7034 -0.6017 -1.9181
 4258SOL    HW217460   7.013  12.013   5.081  0.3484 -0.3474  0.7939
 4259SOL     OW17461   0.097   4.280  10.602  0.4409 -0.4028  0.3461
 4259SOL    HW117462   0.091   4.295  10.697 -0.2812 -1.0205  0.4081
 4259SOL    HW217463   0.072   4.363  10.563 -3.3819 -1.2312  0.6803
 4260SOL     OW17464   9.264  10.482  10.805  0.1116  0.8278 -0.0962
 4260SOL    HW117465   9.222  10.531  10.733 -0.2191  2.3898  1.1102
 4260SOL    HW217466   9.253  10.390  10.780  1.5255  1.2951 -2.8897
 4261SOL     OW17467   2.052   6.494  10.765 -0.1150  0.5425 -0.0321
 4261SOL    HW117468   2.064   6.449  10.682 -3.6645 -0.4164 -0.1798
 4261SOL    HW217469   2.001   6.433  10.818 -0.3512  2.2550  1.8439
 4262SOL     OW17470   5.959   4.695   1.099  0.6198  0.0947 -0.2308
 4262SOL    HW117471   5.983   4.631   1.032  1.9986  0.6918 -0.3386
 4262SOL    HW217472   5.995   4.778   1.067 -0.2780  0.7347  0.3859
 4263SOL     OW17473  11.534   1.994   2.383  0.0542  0.1901 -0.3566
 4263SOL    HW117474  11.451   2.032   2.355 -0.4184 -0.1695  0.5155
 4263SOL    HW217475  11.599   2.036   2.328 -0.7872 -0.1570 -1.6565
 4264SOL     OW17476   2.517   5.373   0.600  1.0081 -0.1939  0.5141
 4264SOL    HW117477   2.583   5.417   0.546  1.0421 -0.2051  0.5465
 4264SOL    HW217478   2.468   5.319   0.538  0.6947  0.2108  0.4048
 4265SOL     OW17479  11.154   8.866   1.505 -0.1619 -0.4726 -0.2774
 4265SOL    HW117480  11.204   8.785   1.504  0.4816 -0.1585  1.6032
 4265SOL    HW217481  11.123   8.874   1.596  0.2224  1.5982 -0.2673
 4266SOL     OW17482   1.305   1.850   3.440  0.6742 -0.0264 -0.3875
 4266SOL    HW117483   1.250   1.789   3.390  0.8112  1.0213 -1.8773
 4266SOL    HW217484   1.307   1.929   3.387  0.4828  1.3162  1.5093
 4267SOL     OW17485   8.777   8.233   7.722  0.4054 -0.0771 -0.2602
 4267SOL    HW117486   8.726   8.247   7.802  3.7939  1.9764  1.7934
 4267SOL    HW217487   8.779   8.138   7.712 -2.8996 -0.2976  0.0251
 4268SOL     OW17488   5.765   2.567   5.016 -0.3793  0.4667  0.1895
 4268SOL    HW117489   5.728   2.617   5.089 -0.6285  1.1458 -0.3971
 4268SOL    HW217490   5.787   2.632   4.950  0.1168 -0.1150 -0.2347
 4269SOL     OW17491   0.953   9.894  10.473  0.0091 -0.3124 -0.4095
 4269SOL    HW117492   0.877   9.841  10.499 -0.0301 -0.0211  0.0931
 4269SOL    HW217493   0.923   9.984  10.482  0.2393 -0.2016 -0.7613
 4270SOL     OW17494   9.536  11.883   3.227  0.2989 -0.4223 -0.1665
 4270SOL    HW117495   9.581  11.950   3.177 -0.1095 -1.2553 -1.6926
 4270SOL    HW217496   9.485  11.932   3.292  1.0487  0.6561 -0.3706
 4271SOL     OW17497   2.359   2.282   3.186 -0.2746  0.0265 -0.1283
 4271SOL    HW117498   2.365   2.350   3.253 -0.0621  1.2484 -1.3602
 4271SOL    HW217499   2.270   2.290   3.152 -0.4463 -0.7240  0.1311
 4272SOL     OW17500   0.986   6.709   1.468 -0.0056  0.1866 -0.1317
 4272SOL    HW117501   1.025   6.758   1.395  0.2039  1.1868  0.6223
 4272SOL    HW217502   0.913   6.662   1.430 -1.0004  2.0839 -0.6860
 4273SOL     OW17503  10.848   8.368   0.152 -0.7630  0.1554 -0.4618
 4273SOL    HW117504  10.906   8.406   0.217 -1.5256 -1.2021  1.0807
 4273SOL    HW217505  10.889   8.389   0.068  0.9514  0.8266  0.4993
 4274SOL     OW17506   4.404   7.348   6.100  0.0278  0.1102 -0.5872
 4274SOL    HW117507   4.419   7.371   6.192 -0.1364  0.0546 -0.5463
 4274SOL    HW217508   4.332   7.285   6.103  2.1356 -2.4851 -0.4491
 4275SOL     OW17509  11.856   0.303   9.543 -0.1895  0.6106 -0.2755
 4275SOL    HW117510  11.798   0.282   9.470 -0.6023  0.7603  0.0096
 4275SOL    HW217511  11.932   0.344   9.502  0.8673 -1.7952 -0.9130
 4276SOL     OW17512   4.816   2.436   6.454  0.0144  0.6099 -0.2759
 4276SOL    HW117513   4.822   2.443   6.550  2.1440  1.1249 -0.4068
 4276SOL    HW217514   4.906   2.443   6.423 -0.6287  0.4760 -2.3441
 4277SOL     OW17515   9.338   7.895   1.483 -0.2880 -0.6275 -0.0206
 4277SOL    HW117516   9.325   7.939   1.567  1.0387 -2.0753  0.9939
 4277SOL    HW217517   9.403   7.948   1.438 -1.4902  0.5330 -0.4782
 4278SOL     OW17518  10.002   1.626  10.722  0.0542  0.0575 -0.0710
 4278SOL    HW117519   9.993   1.706  10.671 -1.7152  0.3016  0.5158
 4278SOL    HW217520  10.055   1.568  10.668  0.8728  1.4093 -0.7646
 4279SOL     OW17521   0.319   3.633   6.537 -0.7435 -0.2199  0.7568
 4279SOL    HW117522   0.381   3.586   6.591  0.6931 -0.5439 -1.0620
 4279SOL    HW217523   0.295   3.710   6.589  4.2988  2.1887  0.2181
 4280SOL     OW17524   8.081   1.402   6.243 -0.1770  0.4323  0.0355
 4280SOL    HW117525   8.038   1.400   6.329  1.5565  1.8527  0.9999
 4280SOL    HW217526   8.120   1.489   6.238  0.7854 -0.0611 -1.7021
 4281SOL     OW17527   0.910   1.125   8.227  0.5630  0.3764  0.1283
 4281SOL    HW117528   0.993   1.141   8.271  0.7171 -0.1722  0.0347
 4281SOL    HW217529   0.865   1.061   8.282 -0.5979  2.0235  1.1854
 4282SOL     OW17530   7.505   4.297   6.627  0.5828  0.3444 -0.0604
 4282SOL    HW117531   7.457   4.255   6.699 -0.4383 -0.0223 -0.9306
 4282SOL    HW217532   7.502   4.232   6.556  0.4312  1.2270 -0.8713
 4283SOL     OW17533   1.964   0.745   0.579 -0.5231  1.0571 -0.2677
 4283SOL    HW117534   1.875   0.748   0.613  0.2442  0.2061  2.0174
 4283SOL    HW217535   1.979   0.652   0.561  0.5697  0.8570  1.4532
 4284SOL     OW17536  10.216   3.021   1.663 -0.0592 -0.8165  0.3130
 4284SOL    HW117537  10.258   2.935   1.666  0.6790 -0.4583  0.6408
 4284SOL    HW217538  10.289   3.082   1.656 -0.5950 -0.2281 -0.1655
 4285SOL     OW17539   6.826   0.006   7.398 -0.1034  0.1955  0.4277
 4285SOL    HW117540   6.744  -0.037   7.419  0.5870 -1.4322 -0.0841
 4285SOL    HW217541   6.879  -0.004   7.477 -0.6168  1.9251  1.0474
 4286SOL     OW17542   7.103   2.935  10.595 -0.1222 -0.5620  0.2061
 4286SOL    HW117543   7.136   2.885  10.521  0.4291 -0.1024  0.1357
 4286SOL    HW217544   7.128   2.883  10.672  1.3826  0.0714  0.2006
 4287SOL     OW17545   1.241   1.648   8.348  0.1548  0.4456 -0.2773
 4287SOL    HW117546   1.173   1.595   8.307 -0.0349 -1.6010  2.3689
 4287SOL    HW217547   1.226   1.637   8.442  3.4923  0.7625  0.4076
 4288SOL     OW17548   7.331  10.379   9.603 -0.0466  0.4624 -0.5652
 4288SOL    HW117549   7.355  10.338   9.520 -0.2111 -0.1632 -0.3090
 4288SOL    HW217550   7.414  10.386   9.650 -0.1647 -0.5796 -0.1750
 4289SOL     OW17551   0.975   1.774   2.085 -0.0452  0.4215  0.0189
 4289SOL    HW117552   1.047   1.712   2.074 -1.1510 -0.7360 -1.1067
 4289SOL    HW217553   0.968   1.787   2.179  1.7545  0.7290  0.1397
 4290SOL     OW17554   2.660   5.704   0.043  0.0334 -0.1586 -0.0737
 4290SOL    HW117555   2.599   5.751  -0.013 -0.7374 -0.7287  0.2630
 4290SOL    HW217556   2.615   5.622   0.064  0.5467 -0.2125  0.8851
 4291SOL     OW17557   4.638   9.823   5.953  0.1091  0.5205 -0.0614
 4291SOL    HW117558   4.556   9.834   5.905 -1.3597  0.7623  2.3242
 4291SOL    HW217559   4.615   9.764   6.025  2.1137  0.3586  0.4939
 4292SOL     OW17560  10.391   4.621   4.363  0.5654 -0.7007 -0.4450
 4292SOL    HW117561  10.476   4.591   4.395  0.8903 -0.4986 -1.0997
 4292SOL    HW217562  10.406   4.644   4.271  0.3533  1.3898 -0.0266
 4293SOL     OW17563   3.629   9.312   7.098  1.0219  0.1703  0.4073
 4293SOL    HW117564   3.599   9.388   7.149  1.6448  0.3249  0.5558
 4293SOL    HW217565   3.548   9.268   7.072  0.6872 -0.0909  1.7805
 4294SOL     OW17566   4.837   3.971   1.670 -1.0773 -0.2112 -0.1588
 4294SOL    HW117567   4.893   3.894   1.661 -3.6689 -2.5854  2.2250
 4294SOL    HW217568   4.892   4.037   1.713  0.3713 -1.7955  0.4923
 4295SOL     OW17569   4.451   1.422   8.587 -0.7078 -0.0022  0.8516
 4295SOL    HW117570   4.435   1.479   8.661  0.4212  0.6774  0.5944
 4295SOL    HW217571   4.367   1.418   8.541 -1.7304 -1.3041  2.7212
 4296SOL     OW17572   5.832   5.414  11.593 -0.2071 -0.1159  0.3775
 4296SOL    HW117573   5.890   5.436  11.520  0.9036 -0.5661  1.0924
 4296SOL    HW217574   5.891   5.398  11.666 -1.0847 -2.3465  0.6917
 4297SOL     OW17575   7.623  11.436   4.759 -0.3857  0.0046  0.0690
 4297SOL    HW117576   7.536  11.397   4.762 -0.5719  0.3915 -0.0687
 4297SOL    HW217577   7.644  11.457   4.850 -0.9822  1.0508 -0.0066
 4298SOL     OW17578   2.045   7.979   2.555 -0.4864 -0.3460 -0.6747
 4298SOL    HW117579   1.952   7.969   2.573 -0.6322  0.1378 -1.1476
 4298SOL    HW217580   2.049   8.027   2.472  0.0925  5.1071  2.0916
 4299SOL     OW17581   9.704   9.128   6.601 -0.2862  0.7976  0.0630
 4299SOL    HW117582   9.792   9.137   6.637 -0.2027 -1.9222  0.7297
 4299SOL    HW217583   9.712   9.154   6.510  1.1698  0.7023  0.1437
 4300SOL     OW17584   0.234  10.348   1.472 -0.3168  0.3786 -0.0571
 4300SOL    HW117585   0.260  10.389   1.389 -1.1885 -0.4560 -0.7749
 4300SOL    HW217586   0.255  10.255   1.460  0.7636  0.4391  1.1803
 4301SOL     OW17587   1.468   5.219  11.078  0.4084 -0.0215 -0.0861
 4301SOL    HW117588   1.417   5.212  11.159  0.7596  1.2900  0.2712
 4301SOL    HW217589   1.408   5.189  11.010 -0.7726  1.2321  0.3540
 4302SOL     OW17590   0.902   4.704   8.168 -0.1036  0.1691  1.0360
 4302SOL    HW117591   0.821   4.746   8.140 -0.3632 -0.5189  0.7363
 4302SOL    HW217592   0.971   4.753   8.122 -0.3971  0.2937  0.7213
 4303SOL     OW17593   2.703   4.028   0.660  0.0494 -0.5666  0.0017
 4303SOL    HW117594   2.646   3.955   0.636 -0.5371 -0.4817  1.0679
 4303SOL    HW217595   2.683   4.096   0.596  0.6045 -1.3242 -1.0014
 4304SOL     OW17596   3.885   2.967   5.561  0.0534 -0.3249 -0.7877
 4304SOL    HW117597   3.819   2.929   5.620  1.0917 -2.5717 -0.9807
 4304SOL    HW217598   3.932   3.031   5.615 -1.6185  0.6213 -0.3815
 4305SOL     OW17599  10.545   6.639   9.244 -0.1650  0.1535 -0.4554
 4305SOL    HW117600  10.575   6.586   9.319  0.2037 -0.6490 -1.1563
 4305SOL    HW217601  10.497   6.577   9.189 -4.6675  1.6464  1.3447
 4306SOL     OW17602   2.645   1.446   3.593 -0.0971 -0.2926 -0.0988
 4306SOL    HW117603   2.629   1.534   3.626 -0.6036 -0.2544 -0.4382
 4306SOL    HW217604   2.643   1.391   3.671  1.3800  0.1328  0.2701
 4307SOL     OW17605   7.313   6.658   8.335 -0.6852 -0.0368  0.4262
 4307SOL    HW117606   7.288   6.573   8.297 -1.1052 -0.0476  0.7087
 4307SOL    HW217607   7.230   6.706   8.341 -0.1560  1.2414 -1.7391
 4308SOL     OW17608   1.598  11.255   7.587  0.6711 -0.1041  0.4682
 4308SOL    HW117609   1.676  11.311   7.587 -0.0482  0.9920 -1.0934
 4308SOL    HW217610   1.540  11.293   7.652  0.5356  0.4637  0.0210
 4309SOL     OW17611   3.390   5.264  10.006 -0.0914  0.1953 -0.5619
 4309SOL    HW117612   3.345   5.262   9.921  0.6779  0.1241 -0.9763
 4309SOL    HW217613   3.482   5.276   9.984  0.4142 -1.9638  0.1507
 4310SOL     OW17614   3.517   1.251   2.036  0.0232 -0.1171 -0.0573
 4310SOL    HW117615   3.455   1.322   2.052 -1.3135 -1.6204  1.7730
 4310SOL    HW217616   3.596   1.276   2.085  0.1515  0.7975 -0.6955
 4311SOL     OW17617  10.973   4.855   9.103  0.0608 -0.2509  0.1449
 4311SOL    HW117618  10.888   4.828   9.137  0.6133  1.1532  2.9107
 4311SOL    HW217619  11.010   4.774   9.066 -2.8115 -0.6671 -2.2109
 4312SOL     OW17620   6.818   1.558   2.397 -0.1191  0.1268  0.0058
 4312SOL    HW117621   6.905   1.595   2.383  0.5751 -0.4422  2.2921
 4312SOL    HW217622   6.786   1.537   2.309  1.3757  1.7965 -1.0018
 4313SOL     OW17623   7.216   6.277  11.311  0.4747  0.6801  0.2525
 4313SOL    HW117624   7.177   6.240  11.390 -1.1648  2.3848  0.3240
 4313SOL    HW217625   7.282   6.213  11.285  0.1562 -0.5690  2.2389
 4314SOL     OW17626  10.542   9.919   7.128  0.0146 -0.1155  0.2210
 4314SOL    HW117627  10.527   9.978   7.202  1.6718 -0.6411  1.0251
 4314SOL    HW217628  10.551   9.976   7.052  0.3217  0.5807  0.7701
 4315SOL     OW17629   3.748   6.979   0.292  0.3738 -0.0481 -0.3556
 4315SOL    HW117630   3.789   7.065   0.275  0.4274  0.0855  0.4434
 4315SOL    HW217631   3.670   6.999   0.343  1.1703 -0.5866  1.1063
 4316SOL     OW17632   7.027   0.346  10.098 -1.0530  0.2250 -0.5468
 4316SOL    HW117633   7.070   0.425  10.065 -0.0375  0.8753  1.9969
 4316SOL    HW217634   7.100   0.291  10.128 -1.8534  0.1350  1.3664
 4317SOL     OW17635   0.245   0.680   4.425 -0.3645 -0.1316  0.3368
 4317SOL    HW117636   0.269   0.628   4.349 -0.7831  0.7685 -0.4283
 4317SOL    HW217637   0.219   0.616   4.491 -0.5934 -0.9027 -0.4843
 4318SOL     OW17638   5.957   5.622   5.167 -0.6999 -0.5559 -0.3894
 4318SOL    HW117639   5.909   5.705   5.165  1.3367  0.8401  1.9402
 4318SOL    HW217640   5.894   5.558   5.198 -1.2710  1.1211  2.2686
 4319SOL     OW17641   1.872   0.240   4.907  0.0971 -0.1165 -0.1049
 4319SOL    HW117642   1.865   0.291   4.988 -0.4295 -0.1400 -0.1321
 4319SOL    HW217643   1.966   0.223   4.898  0.4769  2.0243 -0.8315
 4320SOL     OW17644   7.266  11.122   7.743  0.8065  0.1373 -0.4334
 4320SOL    HW117645   7.226  11.061   7.681 -1.0705 -0.7300  1.5078
 4320SOL    HW217646   7.219  11.204   7.729 -0.9328 -0.5493  0.9956
 4321SOL     OW17647   7.177   0.316   9.334  0.3095  0.3101 -0.0036
 4321SOL    HW117648   7.185   0.408   9.311 -2.3057  0.5641 -0.1500
 4321SOL    HW217649   7.165   0.271   9.250  0.2757  0.0010  0.1639
 4322SOL     OW17650   3.133   6.932  10.054 -0.4406  0.2836 -0.3052
 4322SOL    HW117651   3.112   6.869   9.985 -0.1337  1.5389 -1.6160
 4322SOL    HW217652   3.201   6.891  10.106  0.3356 -0.1521 -1.6253
 4323SOL     OW17653  10.889   6.993   6.850  0.0408 -0.3388  0.0371
 4323SOL    HW117654  10.837   7.043   6.787 -0.8284  0.6705  1.5007
 4323SOL    HW217655  10.834   6.918   6.873  0.9516 -1.5166 -1.4352
 4324SOL     OW17656  11.917   2.822   3.250  0.2676  0.5800 -0.4850
 4324SOL    HW117657  11.931   2.854   3.339  0.3214 -0.3044 -0.1744
 4324SOL    HW217658  12.005   2.805   3.217  0.1634 -1.0373  0.0180
 4325SOL     OW17659   5.068   2.437  10.465 -0.4475  0.2044  0.4790
 4325SOL    HW117660   5.002   2.499  10.434 -0.5954 -0.0600  0.2659
 4325SOL    HW217661   5.087   2.381  10.390 -0.9028 -0.5188  0.8886
 4326SOL     OW17662   1.821   4.626   6.484  0.7036 -0.1309  0.1393
 4326SOL    HW117663   1.789   4.537   6.472  1.3530 -0.6004  1.6818
 4326SOL    HW217664   1.776   4.657   6.563  0.8148  0.7412 -0.1353
 4327SOL     OW17665   0.482   9.331   3.513 -0.1545  0.0016  0.1346
 4327SOL    HW117666   0.387   9.345   3.505 -0.2541 -1.0269 -0.8232
 4327SOL    HW217667   0.521   9.398   3.457 -0.3687 -0.0937 -0.1350
 4328SOL     OW17668   7.071   5.828   1.974 -0.1457 -0.0664 -0.1090
 4328SOL    HW117669   7.006   5.791   1.914 -3.0507  4.1971 -0.0436
 4328SOL    HW217670   7.137   5.867   1.917  1.8877 -3.1797 -0.1730
 4329SOL     OW17671   1.511  10.975   3.081  0.4588  0.6545 -0.1582
 4329SOL    HW117672   1.553  10.931   3.007 -1.3631 -1.6048  0.0153
 4329SOL    HW217673   1.505  11.066   3.054 -1.2270 -0.2493 -3.4020
 4330SOL     OW17674   1.216   8.069   4.910  0.2411  0.2238  0.1329
 4330SOL    HW117675   1.146   8.004   4.911 -0.1162  0.6084  0.0775
 4330SOL    HW217676   1.235   8.085   5.002  2.2802 -2.0316  0.2333
 4331SOL     OW17677   8.774   8.849   8.309  0.2945 -0.6362  0.4233
 4331SOL    HW117678   8.730   8.928   8.278  0.5070 -1.0296 -0.9840
 4331SOL    HW217679   8.746   8.780   8.248  0.9139 -1.4145  0.9919
 4332SOL     OW17680   9.562   5.294   7.181  0.2364  0.6016  0.5727
 4332SOL    HW117681   9.521   5.331   7.103 -0.0899  0.2316  0.5705
 4332SOL    HW217682   9.549   5.200   7.173  1.0350  0.4815  0.6012
 4333SOL     OW17683   9.538   0.086   2.151  0.7584 -0.7069  0.1778
 4333SOL    HW117684   9.597   0.012   2.161  0.3524 -0.7967  2.7127
 4333SOL    HW217685   9.594   0.163   2.164  0.5254 -0.7678  1.7955
 4334SOL     OW17686   8.962   4.770   4.561 -0.4574  0.1899 -0.2445
 4334SOL    HW117687   9.009   4.836   4.612  1.1331 -0.3013 -0.9964
 4334SOL    HW217688   8.893   4.739   4.620 -0.5256  1.6951  0.5202
 4335SOL     OW17689   8.584   4.094   8.509 -0.2000  0.1893  1.3390
 4335SOL    HW117690   8.668   4.139   8.517  0.2690  0.1769 -2.1031
 4335SOL    HW217691   8.519   4.165   8.508  0.1571  0.5252  0.2358
 4336SOL     OW17692   6.911   8.954   6.924  0.6408 -0.2077 -0.0972
 4336SOL    HW117693   6.931   8.862   6.905 -0.0149 -0.3595 -0.0759
 4336SOL    HW217694   6.840   8.976   6.864  1.4568  0.5805 -0.7867
 4337SOL     OW17695   6.225   4.504   8.311 -0.5957 -0.1095  0.6551
 4337SOL    HW117696   6.239   4.587   8.265  1.3553 -1.7787 -2.0776
 4337SOL    HW217697   6.138   4.476   8.284 -0.7844  0.4687  0.6439
 4338SOL     OW17698   8.700   7.577   8.094 -0.0585  0.0066 -0.0086
 4338SOL    HW117699   8.761   7.626   8.149  1.4330 -0.5896 -1.0632
 4338SOL    HW217700   8.730   7.592   8.005 -0.2008 -1.9193 -0.4403
 4339SOL     OW17701   2.999   0.561   6.343 -0.3788 -0.2799 -0.1614
 4339SOL    HW117702   3.046   0.497   6.396 -0.3807 -2.2623 -2.4155
 4339SOL    HW217703   3.065   0.598   6.285 -0.7325  0.4668 -0.1051
 4340SOL     OW17704   3.993   7.057   3.047  0.6658  0.5572  0.4318
 4340SOL    HW117705   4.052   7.112   2.996  1.4367 -0.4510  0.2208
 4340SOL    HW217706   3.983   6.978   2.995  0.4675  0.0226  1.2666
 4341SOL     OW17707   1.906   8.218   1.840  0.1558  0.2007 -0.0468
 4341SOL    HW117708   1.813   8.206   1.823  0.4560 -1.2130 -0.8552
 4341SOL    HW217709   1.950   8.156   1.782  1.5741  0.1831  0.9736
 4342SOL     OW17710   8.155   8.543   2.984 -0.5371 -0.3413 -0.1555
 4342SOL    HW117711   8.090   8.478   3.011 -1.0081  0.4535  0.6674
 4342SOL    HW217712   8.103   8.616   2.952 -0.0441  0.2653  0.4197
 4343SOL     OW17713   4.236   5.529   0.659 -0.0041 -0.3305 -0.7043
 4343SOL    HW117714   4.297   5.457   0.645  3.0125  1.5292  1.4937
 4343SOL    HW217715   4.286   5.593   0.710 -2.9040  2.7437 -1.3307
 4344SOL     OW17716   1.404   2.271  10.536  0.1910  0.1594 -0.5868
 4344SOL    HW117717   1.353   2.256  10.456  0.0377 -0.0038 -0.4609
 4344SOL    HW217718   1.487   2.225  10.520  1.0555  1.9377 -1.5302
 4345SOL     OW17719   3.678   1.272   4.796 -0.0626 -0.2742 -0.1907
 4345SOL    HW117720   3.682   1.243   4.704  1.2978 -0.3268 -0.1334
 4345SOL    HW217721   3.589   1.248   4.824 -0.6062  0.0008 -1.5705
 4346SOL     OW17722   2.341  11.411   0.855  0.6513  0.2197  0.1190
 4346SOL    HW117723   2.383  11.327   0.873  0.7831  0.4271  0.8035
 4346SOL    HW217724   2.301  11.399   0.769 -1.5356 -1.4359  1.2559
 4347SOL     OW17725  10.881  11.916   3.419  0.0289  0.0168  0.1998
 4347SOL    HW117726  10.800  11.875   3.450 -0.5306  1.1208  0.2489
 4347SOL    HW217727  10.851  11.993   3.369  1.0244  0.0464 -0.3750
 4348SOL     OW17728  10.439   1.091   5.410 -0.0457  0.6014  0.0102
 4348SOL    HW117729  10.434   1.171   5.463  0.3237  0.4636  0.2575
 4348SOL    HW217730  10.532   1.068   5.411 -0.5060 -1.5278  2.4680
 4349SOL     OW17731   8.756   7.158   2.842  0.1545  0.1078 -0.3128
 4349SOL    HW117732   8.769   7.169   2.748 -1.3623  0.0996 -0.5570
 4349SOL    HW217733   8.695   7.228   2.866  0.4577  0.0582  0.6529
 4350SOL     OW17734   2.623   6.245   3.829 -0.1259  0.7582  0.0507
 4350SOL    HW117735   2.696   6.183   3.822 -0.0548  0.5924  1.8391
 4350SOL    HW217736   2.546   6.191   3.846 -0.0957  1.1234  1.4418
 4351SOL     OW17737   4.798   3.542   1.667  0.2634  0.7344 -0.6545
 4351SOL    HW117738   4.767   3.452   1.661 -0.4240  0.8968  0.3054
 4351SOL    HW217739   4.800   3.572   1.576 -0.6054  0.1172 -0.8869
 4352SOL     OW17740  11.007   9.303   9.211  0.1294 -0.2890  0.5344
 4352SOL    HW117741  11.011   9.343   9.298  2.5489  0.3594  0.1795
 4352SOL    HW217742  11.008   9.209   9.227 -0.1371 -0.1756  1.2217
 4353SOL     OW17743   2.491   2.140   1.900 -0.5268 -0.7011 -0.2977
 4353SOL    HW117744   2.453   2.053   1.912 -1.6425 -0.5931 -2.6103
 4353SOL    HW217745   2.582   2.123   1.876 -0.8410 -1.2816 -1.1224
 4354SOL     OW17746   2.763   7.990   4.496  1.0620 -0.5448  0.6932
 4354SOL    HW117747   2.804   7.904   4.501 -0.2928 -1.2954 -0.3590
 4354SOL    HW217748   2.770   8.014   4.404 -1.0954 -0.8712  0.3873
 4355SOL     OW17749   2.818   4.113   1.371 -0.2411 -0.3671  0.2181
 4355SOL    HW117750   2.894   4.056   1.385 -0.8418 -1.4024 -0.5585
 4355SOL    HW217751   2.856   4.200   1.358  0.8915 -1.0062 -1.0349
 4356SOL     OW17752   8.444   0.644   2.606  0.2346  0.1726 -0.2599
 4356SOL    HW117753   8.514   0.710   2.603  0.9183 -0.5032  0.3339
 4356SOL    HW217754   8.485   0.564   2.573 -0.3297 -0.1816 -0.1194
 4357SOL     OW17755   4.650   9.042   3.545 -0.2681 -0.1974  0.2439
 4357SOL    HW117756   4.703   8.997   3.479 -0.9513 -0.1716 -0.3309
 4357SOL    HW217757   4.677   9.002   3.628  0.6756 -0.1547 -0.0316
 4358SOL     OW17758   9.326   3.053  10.776  0.2277 -0.0406 -0.2827
 4358SOL    HW117759   9.408   3.019  10.741  0.7188 -0.7099  1.3873
 4358SOL    HW217760   9.349   3.137  10.815  0.5381 -0.9927  1.6944
 4359SOL     OW17761   9.592   2.668   0.625 -0.0172  0.2832  0.0255
 4359SOL    HW117762   9.519   2.612   0.653  0.4624 -0.6100 -0.4548
 4359SOL    HW217763   9.664   2.644   0.683 -0.4057  2.0102  1.2853
 4360SOL     OW17764   4.737  11.999   1.881 -0.1233 -0.3175 -0.3344
 4360SOL    HW117765   4.704  12.042   1.961  1.8385  0.3709  0.1590
 4360SOL    HW217766   4.831  12.017   1.881  0.2139 -1.8073 -1.9048
 4361SOL     OW17767   8.967   5.103  10.692 -0.1096  0.2570  0.4989
 4361SOL    HW117768   9.062   5.100  10.682 -0.2053 -1.0816 -0.2234
 4361SOL    HW217769   8.940   5.011  10.694 -1.4426  0.6224  0.1753
 4362SOL     OW17770   0.040  10.213  10.111 -0.2992 -0.2706 -0.4688
 4362SOL    HW117771   0.042  10.306  10.091 -2.0368  0.1866  1.1645
 4362SOL    HW217772   0.098  10.173  10.046 -1.6960  1.5794 -3.0206
 4363SOL     OW17773   3.009   0.002   1.256  0.0618 -0.0638 -0.0864
 4363SOL    HW117774   3.003  -0.078   1.307 -2.5257 -0.4701 -0.8576
 4363SOL    HW217775   3.014   0.072   1.321  0.6579 -0.7596  0.6253
 4364SOL     OW17776   2.998   9.812   1.435  0.4838  0.0834 -0.0262
 4364SOL    HW117777   2.970   9.895   1.474  1.2210  0.2843  0.0870
 4364SOL    HW217778   2.921   9.756   1.442  0.1116  0.6188  0.2912
 4365SOL     OW17779   6.516   9.831   0.233 -0.2985 -0.5637 -0.4656
 4365SOL    HW117780   6.456   9.809   0.161  1.5100  0.3367 -2.3485
 4365SOL    HW217781   6.596   9.782   0.214  0.5267  0.3834  0.4487
 4366SOL     OW17782   6.694   2.279   6.553 -0.2659 -0.8909  0.1309
 4366SOL    HW117783   6.758   2.290   6.483 -1.3293  0.0211 -0.7360
 4366SOL    HW217784   6.650   2.196   6.534  0.0519 -1.0871  0.2407
 4367SOL     OW17785   1.460   4.471   3.664 -0.4939 -0.4416 -0.4297
 4367SOL    HW117786   1.367   4.482   3.684 -0.1078  1.3732  0.6808
 4367SOL    HW217787   1.490   4.404   3.725 -0.5978  0.7979  1.0717
 4368SOL     OW17788   9.596   4.386   7.442  0.8460  0.1043 -0.0190
 4368SOL    HW117789   9.588   4.430   7.358  1.2407 -0.3876 -0.3175
 4368SOL    HW217790   9.680   4.339   7.437  0.9500  0.1985  0.7043
 4369SOL     OW17791   1.014   3.403  11.696 -0.4207 -0.1230 -0.1528
 4369SOL    HW117792   1.101   3.365  11.680  0.4949  1.4432  0.8078
 4369SOL    HW217793   1.000   3.392  11.790 -2.0239 -1.8214 -0.5592
 4370SOL     OW17794   8.127   1.509   2.985 -0.6612 -0.1463 -0.6667
 4370SOL    HW117795   8.089   1.567   2.919  0.1080  0.2751 -0.7461
 4370SOL    HW217796   8.066   1.515   3.060 -0.4886  0.9249 -0.5933
 4371SOL     OW17797   8.263   1.542   8.372  0.1047 -0.1182  0.5377
 4371SOL    HW117798   8.267   1.507   8.283 -1.3589 -0.9048  0.7570
 4371SOL    HW217799   8.269   1.637   8.360 -0.8794 -0.1630 -0.4706
 4372SOL     OW17800   9.383   3.460   8.098 -0.4908 -0.4725 -0.4518
 4372SOL    HW117801   9.288   3.470   8.098 -0.5119 -0.4313 -2.1395
 4372SOL    HW217802   9.398   3.370   8.127 -0.8786  0.2939  2.4137
 4373SOL     OW17803   6.329   1.942   9.827 -0.2180  0.1672  0.1314
 4373SOL    HW117804   6.396   2.009   9.838 -2.4832  2.3026  2.0909
 4373SOL    HW217805   6.327   1.927   9.732  1.1024  2.0884 -0.2730
 4374SOL     OW17806   1.186   4.387   1.799  0.2732  0.3227 -0.0372
 4374SOL    HW117807   1.219   4.341   1.722  0.1360 -0.7198  0.5101
 4374SOL    HW217808   1.235   4.469   1.802 -0.8703  1.1532 -2.1732
 4375SOL     OW17809   1.789   6.240   7.534  0.4938 -0.5926 -0.0047
 4375SOL    HW117810   1.735   6.164   7.511  0.2898  0.0254 -1.6799
 4375SOL    HW217811   1.850   6.249   7.461 -0.1591  1.4601 -0.3479
 4376SOL     OW17812   6.084   0.127   4.365  0.3022 -0.0631 -0.0875
 4376SOL    HW117813   6.180   0.130   4.366  0.4974 -2.1397 -2.2671
 4376SOL    HW217814   6.062   0.041   4.401 -0.8718  0.7952  1.4019
 4377SOL     OW17815   8.321  11.777  10.858  0.2568 -0.6965 -0.4828
 4377SOL    HW117816   8.417  11.775  10.855  0.2659  0.3058 -2.0313
 4377SOL    HW217817   8.294  11.738  10.775 -0.6361  0.2927 -0.6696
 4378SOL     OW17818   6.905   5.144   0.115 -0.1121 -0.5936  0.2318
 4378SOL    HW117819   6.975   5.193   0.071  2.3778 -2.8216  1.4586
 4378SOL    HW217820   6.877   5.079   0.050 -0.2106 -0.4949  0.1732
 4379SOL     OW17821  11.567  11.756   9.873  0.3119  0.0925 -0.3492
 4379SOL    HW117822  11.474  11.750   9.851  0.3147  0.0879 -0.3592
 4379SOL    HW217823  11.609  11.691   9.817  0.0512 -1.4685  1.1917
 4380SOL     OW17824   0.867   8.313   3.321  0.0483  0.0113 -0.1638
 4380SOL    HW117825   0.886   8.267   3.403 -1.1540 -0.3448 -0.0750
 4380SOL    HW217826   0.926   8.388   3.322 -0.4466  0.4144  1.3820
 4381SOL     OW17827   2.206   4.939   2.613  0.1517  0.5419 -0.0347
 4381SOL    HW117828   2.261   4.992   2.554  0.2275  0.8360  0.2945
 4381SOL    HW217829   2.129   4.994   2.629  0.0513  0.3902 -0.0010
 4382SOL     OW17830  11.033   0.007  11.058 -0.1795 -0.7470  0.0323
 4382SOL    HW117831  11.038   0.058  10.977 -0.2543 -0.8885 -0.0617
 4382SOL    HW217832  11.053   0.070  11.127  1.2694 -0.9129 -0.1894
 4383SOL     OW17833   5.324   3.583   8.988  0.7785 -0.9071  0.0546
 4383SOL    HW117834   5.242   3.552   9.024  0.1041  2.1374  1.3978
 4383SOL    HW217835   5.391   3.546   9.045  0.2975 -2.3455 -0.2714
 4384SOL     OW17836   9.108  11.128   8.713 -0.4408 -0.7460  0.7787
 4384SOL    HW117837   9.182  11.152   8.657 -1.2558  0.6593  0.2644
 4384SOL    HW217838   9.141  11.140   8.802 -0.2039  0.4181  0.5486
 4385SOL     OW17839   1.022  10.670   3.427 -0.3944 -0.3416  1.1147
 4385SOL    HW117840   0.932  10.688   3.454 -0.7799 -0.4973 -0.0212
 4385SOL    HW217841   1.020  10.676   3.332  0.4954 -1.6805  0.9879
 4386SOL     OW17842   1.411   4.201   7.824 -0.1869 -0.0842 -0.7718
 4386SOL    HW117843   1.358   4.281   7.821  1.1782  1.1108  2.3608
 4386SOL    HW217844   1.486   4.220   7.769 -0.0254  0.7315 -0.2963
 4387SOL     OW17845   4.087   4.462   7.409  0.1727  0.2008 -0.0614
 4387SOL    HW117846   4.047   4.537   7.365 -0.2104  0.3044  0.4499
 4387SOL    HW217847   4.174   4.492   7.435  0.6049 -0.0294 -1.1947
 4388SOL     OW17848   6.736   4.664   6.573 -0.3484 -1.1022 -0.3419
 4388SOL    HW117849   6.701   4.578   6.596 -0.1805 -1.0490  0.1259
 4388SOL    HW217850   6.718   4.673   6.480 -0.7578 -1.4630 -0.3025
 4389SOL     OW17851   0.293   4.802   2.032  0.3630 -0.2479  0.0866
 4389SOL    HW117852   0.263   4.713   2.011 -0.2819 -0.0384  0.0926
 4389SOL    HW217853   0.388   4.793   2.043  0.0741 -1.4526  2.5199
 4390SOL     OW17854   3.986   5.471  11.634  0.9422  0.0509 -0.1840
 4390SOL    HW117855   3.992   5.383  11.599  0.6023  0.5126 -1.4503
 4390SOL    HW217856   3.989   5.528  11.558 -0.3093  1.0699  0.4781
 4391SOL     OW17857   9.500  10.803   0.356  0.1518 -0.7360 -0.4882
 4391SOL    HW117858   9.431  10.862   0.327  2.3840  1.8172 -1.0184
 4391SOL    HW217859   9.453  10.727   0.391 -2.9294  1.3738  0.4022
 4392SOL     OW17860   1.566  10.412   7.602 -0.0348  0.3340 -0.5358
 4392SOL    HW117861   1.525  10.388   7.518  0.8492  1.4513 -1.3102
 4392SOL    HW217862   1.556  10.507   7.608  0.8804  0.4016  0.1046
 4393SOL     OW17863   9.523   9.487   6.809 -0.3930 -0.2078  0.4761
 4393SOL    HW117864   9.613   9.516   6.799  0.0053 -1.3415  0.6715
 4393SOL    HW217865   9.470   9.562   6.779  0.5860  0.6487  0.8545
 4394SOL     OW17866   8.273   3.922   4.121  0.2973  0.0835  0.5421
 4394SOL    HW117867   8.225   3.995   4.162 -0.6621 -0.6475  0.7724
 4394SOL    HW217868   8.222   3.901   4.043  0.4636 -0.4437  0.5692
 4395SOL     OW17869   0.742   1.832  10.872 -0.7498  0.5573  0.3758
 4395SOL    HW117870   0.810   1.766  10.859 -0.3596  0.8738  0.7745
 4395SOL    HW217871   0.661   1.782  10.884 -0.5493  0.1717  0.1109
 4396SOL     OW17872   5.693   4.771   5.774 -0.1099 -0.1087 -0.0475
 4396SOL    HW117873   5.667   4.835   5.840 -1.2278 -0.0718 -0.4981
 4396SOL    HW217874   5.786   4.756   5.790 -0.0120  1.0309  0.5689
 4397SOL     OW17875  10.785   3.594   1.306  0.1440  0.5431  0.4814
 4397SOL    HW117876  10.707   3.589   1.361 -0.3905  0.2732 -0.2929
 4397SOL    HW217877  10.779   3.518   1.248  0.7640  0.7558  0.1274
 4398SOL     OW17878   8.605   6.794   8.085 -0.0886  0.5098 -0.0351
 4398SOL    HW117879   8.608   6.823   8.176 -0.4149 -1.2762  0.5741
 4398SOL    HW217880   8.582   6.702   8.089  0.0294  0.3457 -1.9369
 4399SOL     OW17881  10.592   9.637   0.242  0.2934  0.3046 -0.1068
 4399SOL    HW117882  10.500   9.648   0.220 -0.4200 -1.4082  1.6432
 4399SOL    HW217883  10.607   9.696   0.316  1.2646  2.2373 -1.7665
 4400SOL     OW17884   1.362   7.950   3.291 -0.3945 -0.8296  0.1004
 4400SOL    HW117885   1.360   8.045   3.291 -1.8798 -0.8393 -0.4429
 4400SOL    HW217886   1.374   7.926   3.383 -2.4161 -0.1250  0.5949
 4401SOL     OW17887   6.274   5.582  11.079 -0.4487  0.2971  0.6644
 4401SOL    HW117888   6.214   5.651  11.106 -1.0202  1.0567 -2.1942
 4401SOL    HW217889   6.344   5.628  11.032  1.0132 -0.8292  1.6251
 4402SOL     OW17890   0.682   8.731   6.383 -0.2192 -0.2330 -1.0717
 4402SOL    HW117891   0.597   8.776   6.383  0.4876  1.1718 -0.6814
 4402SOL    HW217892   0.744   8.797   6.351  1.0748 -0.4679  0.7754
 4403SOL     OW17893   0.580   4.704   1.344  0.3485  0.2510  0.1558
 4403SOL    HW117894   0.532   4.786   1.331  0.7700  0.8917  2.2606
 4403SOL    HW217895   0.588   4.696   1.439  0.6378 -2.0652 -0.0184
 4404SOL     OW17896   3.567   1.211  10.561  0.0224  0.3063 -0.9548
 4404SOL    HW117897   3.562   1.121  10.591 -1.4254  0.5581 -0.3488
 4404SOL    HW217898   3.649   1.245  10.599 -0.4142 -0.1765  0.4788
 4405SOL     OW17899   2.542   2.220   2.135 -0.3629 -0.1972  0.6270
 4405SOL    HW117900   2.517   2.202   2.044 -1.0054  0.1696  0.7219
 4405SOL    HW217901   2.626   2.176   2.146 -0.0202  0.1923 -0.3003
 4406SOL     OW17902  10.450   7.724   0.950  0.3790 -0.2189  0.3059
 4406SOL    HW117903  10.462   7.726   1.045 -0.0396 -0.2388  0.3637
 4406SOL    HW217904  10.538   7.718   0.914  0.5572  0.1087  0.6851
 4407SOL     OW17905   6.358   1.911   1.236 -0.2293 -0.0169  0.6976
 4407SOL    HW117906   6.378   1.965   1.159 -0.2315 -0.5923  0.2864
 4407SOL    HW217907   6.267   1.883   1.223 -0.0890 -0.4798  0.6754
 4408SOL     OW17908   9.384  10.517  11.604  0.0249 -0.0091  0.7166
 4408SOL    HW117909   9.356  10.430  11.630  0.7962 -0.3893  0.3137
 4408SOL    HW217910   9.401  10.510  11.510 -1.0970  0.8960  0.4236
 4409SOL     OW17911   2.421   9.372   7.341 -0.0905 -0.0332  0.1253
 4409SOL    HW117912   2.372   9.290   7.344 -1.3457  0.6988  0.7818
 4409SOL    HW217913   2.418   9.399   7.249 -0.9343 -0.0162  0.1495
 4410SOL     OW17914   5.125   4.448  10.167 -0.5055  0.1060  0.3903
 4410SOL    HW117915   5.169   4.364  10.181 -0.8783 -0.5345 -1.8646
 4410SOL    HW217916   5.068   4.458  10.244 -0.3148 -1.5979  0.7940
 4411SOL     OW17917   2.163   6.340   7.728 -0.1138  0.4123  0.0240
 4411SOL    HW117918   2.242   6.291   7.705 -0.1233  0.4576 -0.1077
 4411SOL    HW217919   2.093   6.274   7.727 -0.0690  0.3615  0.1970
 4412SOL     OW17920   3.394  10.222   5.916  0.1001 -0.5768  0.1436
 4412SOL    HW117921   3.455  10.149   5.911 -1.4393 -1.8917 -0.3685
 4412SOL    HW217922   3.385  10.252   5.826  1.4122  0.8865  0.4617
 4413SOL     OW17923   3.029   5.451   7.855 -0.0841  0.2053  0.2052
 4413SOL    HW117924   2.949   5.497   7.880 -0.4944 -1.5886  2.6190
 4413SOL    HW217925   3.030   5.454   7.760 -3.8581 -0.9593 -0.0478
 4414SOL     OW17926   3.058   1.003   6.084  0.2055 -0.3769  0.5449
 4414SOL    HW117927   3.089   0.913   6.092  2.5789  0.5164  3.3190
 4414SOL    HW217928   3.117   1.043   6.020  0.4477 -0.3254  0.7980
 4415SOL     OW17929   2.295   4.569   7.678 -0.0640  0.5967 -0.4588
 4415SOL    HW117930   2.329   4.610   7.757 -1.2946  0.0333  0.3929
 4415SOL    HW217931   2.249   4.640   7.633 -0.9950  0.4995  0.3096
 4416SOL     OW17932   4.288   3.489   4.065 -0.3126 -0.0667 -0.9022
 4416SOL    HW117933   4.374   3.515   4.033  0.8819 -0.8187  1.4710
 4416SOL    HW217934   4.280   3.397   4.039  1.6300 -1.3772  2.5214
 4417SOL     OW17935  11.604   1.235   9.436  0.4036  0.3889 -0.2735
 4417SOL    HW117936  11.597   1.187   9.518  0.1074  0.2895 -0.3533
 4417SOL    HW217937  11.652   1.177   9.377 -2.5105 -1.1503 -1.3246
 4418SOL     OW17938   3.557   4.725   2.337 -0.1823  0.0918  0.8740
 4418SOL    HW117939   3.591   4.647   2.293 -1.0757  0.1138  0.1179
 4418SOL    HW217940   3.635   4.766   2.376  0.7757  0.4083 -1.2282
 4419SOL     OW17941   7.509   1.440   6.817  0.3387  0.0591  0.0392
 4419SOL    HW117942   7.462   1.430   6.734 -0.5738  0.0890  0.5442
 4419SOL    HW217943   7.484   1.528   6.848 -0.9139 -0.7007  1.3028
 4420SOL     OW17944   7.629   3.541   8.045  0.1621  0.1080 -0.4247
 4420SOL    HW117945   7.610   3.635   8.052  0.3067  0.0071  2.7273
 4420SOL    HW217946   7.716   3.532   8.086  0.8410 -1.2399 -2.0622
 4421SOL     OW17947   8.727   6.665   1.540 -0.1831  0.2688 -0.2365
 4421SOL    HW117948   8.692   6.726   1.605 -0.3864  0.7186 -0.7638
 4421SOL    HW217949   8.804   6.627   1.582  0.5269  1.6119 -0.2760
 4422SOL     OW17950  10.676   1.074   1.854 -0.2081 -0.4807  0.0357
 4422SOL    HW117951  10.760   1.121   1.860 -0.7971  0.4565  1.2290
 4422SOL    HW217952  10.701   0.982   1.852  0.8495 -0.2399  0.8651
 4423SOL     OW17953   9.909  10.364   4.739  0.3928 -0.7851  0.1262
 4423SOL    HW117954   9.942  10.329   4.822  0.7628 -0.3252  0.1781
 4423SOL    HW217955   9.986  10.370   4.683  0.4903  0.6328  0.3640
 4424SOL     OW17956   3.362   5.041   8.453  0.1024  0.1363 -0.2742
 4424SOL    HW117957   3.379   5.075   8.541  3.2853 -2.1972  0.2102
 4424SOL    HW217958   3.396   5.109   8.395  0.7763  0.4456  0.4463
 4425SOL     OW17959   3.840   9.654   0.701 -0.0699  0.4447  0.3339
 4425SOL    HW117960   3.780   9.712   0.748  0.0454  0.0736  0.9500
 4425SOL    HW217961   3.852   9.579   0.760 -0.3099 -0.2582 -0.5012
 4426SOL     OW17962   1.094   0.294   9.554  0.5208  0.2677 -0.3078
 4426SOL    HW117963   1.037   0.218   9.546  1.2287 -0.1804 -1.1728
 4426SOL    HW217964   1.082   0.322   9.645 -2.6642  1.4736 -0.9468
 4427SOL     OW17965   8.326   6.592   2.591 -0.5874 -0.0803  0.0097
 4427SOL    HW117966   8.386   6.666   2.594  1.1150 -1.3867 -0.4282
 4427SOL    HW217967   8.351   6.536   2.664 -1.3454 -0.5993 -0.1049
 4428SOL     OW17968   3.817  11.380   1.570  0.3430 -0.6239  0.0798
 4428SOL    HW117969   3.865  11.303   1.600  1.5766  0.8973  2.2842
 4428SOL    HW217970   3.725  11.356   1.583  0.6235 -2.1559 -0.4937
 4429SOL     OW17971   1.539   4.679   7.810 -0.2033  0.0762 -0.1726
 4429SOL    HW117972   1.594   4.754   7.786  0.4913 -0.4150 -0.1540
 4429SOL    HW217973   1.597   4.604   7.800 -0.3957 -0.3110  1.4233
 4430SOL     OW17974  11.943   8.085  11.486  0.0924 -0.5448 -0.4536
 4430SOL    HW117975  11.875   8.132  11.534  0.4606  2.4299 -2.5927
 4430SOL    HW217976  11.985   8.030  11.553 -1.0689  1.3826  2.0332
 4431SOL     OW17977   0.536   9.250   7.751  0.0753 -0.3838  0.0841
 4431SOL    HW117978   0.616   9.253   7.699 -0.7098 -0.6054 -1.1849
 4431SOL    HW217979   0.554   9.187   7.821  1.0953 -0.2060 -0.0105
 4432SOL     OW17980   3.006   4.560   5.237  0.4358  0.0891 -0.4707
 4432SOL    HW117981   2.925   4.520   5.268  0.5454  0.5931  0.5033
 4432SOL    HW217982   3.075   4.506   5.276  0.5776 -0.1744 -1.0759
 4433SOL     OW17983   1.831  11.765  11.109 -0.0348 -0.6850  0.1629
 4433SOL    HW117984   1.891  11.729  11.173 -1.2478  0.9145  2.3286
 4433SOL    HW217985   1.767  11.695  11.093 -0.7361 -0.5508  2.1223
 4434SOL     OW17986   3.844   1.358  11.774 -0.0775 -0.6412  0.4647
 4434SOL    HW117987   3.894   1.305  11.836 -1.3389 -2.4218  0.0348
 4434SOL    HW217988   3.856   1.313  11.690 -0.0160  0.5938 -0.1980
 4435SOL     OW17989   2.043   3.454   4.442 -0.9097 -0.2182 -0.1943
 4435SOL    HW117990   2.100   3.377   4.446  1.4449  1.3150 -1.9636
 4435SOL    HW217991   2.009   3.464   4.531 -1.4166 -3.3167  0.0663
 4436SOL     OW17992   9.519  10.351   7.110  0.3650  0.6279 -0.4628
 4436SOL    HW117993   9.531  10.440   7.075 -0.3043  0.3277 -1.5087
 4436SOL    HW217994   9.486  10.301   7.035  0.4440 -0.4331  0.2025
 4437SOL     OW17995   3.927   3.147  11.085 -0.2321 -0.1498  0.5428
 4437SOL    HW117996   3.955   3.211  11.151 -2.9520  2.7610 -0.8492
 4437SOL    HW217997   3.947   3.189  11.001 -1.0075 -1.6929 -0.4474
 4438SOL     OW17998  10.338   8.868   2.892  0.3914  0.2506 -0.1047
 4438SOL    HW117999  10.430   8.895   2.892  0.8562 -1.1355 -1.7928
 4438SOL    HW218000  10.312   8.872   2.800 -0.6754 -1.0902  0.1032
 4439SOL     OW18001   5.637   2.783   3.196 -0.6200 -0.1303 -0.0202
 4439SOL    HW118002   5.653   2.877   3.185 -0.2765 -0.2625 -0.7185
 4439SOL    HW218003   5.548   2.770   3.166 -0.4571 -0.1221 -0.5172
 4440SOL     OW18004   5.921  10.125   0.670 -0.3758  0.1938 -0.3708
 4440SOL    HW118005   5.902  10.151   0.761  0.9275  1.1853 -0.3512
 4440SOL    HW218006   5.886  10.196   0.617  0.2848  0.4036 -0.5341
 4441SOL     OW18007   8.310   0.501  10.823  0.4535  0.1103  0.0535
 4441SOL    HW118008   8.308   0.482  10.916 -1.4989  0.1835  0.0588
 4441SOL    HW218009   8.227   0.469  10.789 -0.0039  2.3549 -1.1800
 4442SOL     OW18010   3.337   5.362  10.706  0.2988 -0.1648  0.1117
 4442SOL    HW118011   3.251   5.325  10.725  1.1996 -2.0266  0.8652
 4442SOL    HW218012   3.353   5.423  10.778  0.0536 -0.6275  0.5693
 4443SOL     OW18013   0.215  11.782   0.928  0.1239  0.2437  0.3397
 4443SOL    HW118014   0.226  11.876   0.919  0.0300  0.2805  0.5950
 4443SOL    HW218015   0.225  11.765   1.021  0.9843 -0.1161  0.1868
 4444SOL     OW18016   0.454   4.469   2.274 -0.3020  0.1530  0.1047
 4444SOL    HW118017   0.494   4.500   2.356 -0.1712 -0.6341  0.3430
 4444SOL    HW218018   0.521   4.486   2.207  0.0039 -0.1498  0.3288
 4445SOL     OW18019   1.365   7.717   2.863 -0.5451 -0.3303  0.0704
 4445SOL    HW118020   1.441   7.660   2.873 -1.4966 -2.5691 -3.8092
 4445SOL    HW218021   1.403   7.803   2.843  0.9429 -0.8979  0.3048
 4446SOL     OW18022   5.341   2.480   8.178  0.5000 -0.0866 -0.1319
 4446SOL    HW118023   5.382   2.408   8.227  1.5855  1.0535  0.6919
 4446SOL    HW218024   5.397   2.492   8.102 -0.1106 -0.5801 -0.6778
 4447SOL     OW18025   4.889   6.447  10.631 -0.2431 -0.1975  0.5398
 4447SOL    HW118026   4.908   6.502  10.706 -1.7805 -1.9485  2.3301
 4447SOL    HW218027   4.895   6.505  10.555 -0.5358  2.0756  2.1891
 4448SOL     OW18028   8.582   2.194   5.679  0.2204 -1.0882 -0.2081
 4448SOL    HW118029   8.582   2.290   5.671 -0.1943 -1.1021 -0.3437
 4448SOL    HW218030   8.563   2.179   5.772 -0.3217 -1.0533 -0.3136
 4449SOL     OW18031   5.631   5.870   5.527  0.7014 -0.5800  0.2903
 4449SOL    HW118032   5.556   5.924   5.502  0.1444 -0.9587  1.1024
 4449SOL    HW218033   5.664   5.911   5.607  1.1243 -0.6505  0.1543
 4450SOL     OW18034   5.302   2.824   1.315  0.0805 -0.0461 -0.1434
 4450SOL    HW118035   5.332   2.743   1.271  1.9525  0.6602 -0.2839
 4450SOL    HW218036   5.278   2.795   1.403 -4.1729 -1.5781 -1.5663
 4451SOL     OW18037   0.683   2.047  10.706 -0.0454 -0.1885  0.2187
 4451SOL    HW118038   0.620   2.101  10.753 -0.6474 -0.6334 -0.0668
 4451SOL    HW218039   0.674   1.960  10.744 -0.8776 -0.6709 -1.0115
 4452SOL     OW18040   6.670   9.379   4.292  0.2348  0.0393 -0.0614
 4452SOL    HW118041   6.630   9.306   4.245  2.1562 -0.3595 -1.1930
 4452SOL    HW218042   6.702   9.339   4.373  0.0872 -0.0779 -0.0592
 4453SOL     OW18043   5.976  11.323   3.641  0.3867  0.1660  0.5868
 4453SOL    HW118044   5.914  11.251   3.633  0.0091  0.6973 -2.4108
 4453SOL    HW218045   6.053  11.283   3.682  0.4988 -2.2361 -1.6714
 4454SOL     OW18046   0.142  11.863   4.745 -0.2674  0.6065 -0.2131
 4454SOL    HW118047   0.188  11.782   4.766  2.3132  2.1237  0.3139
 4454SOL    HW218048   0.120  11.854   4.652 -2.9294 -1.9518  0.4944
 4455SOL     OW18049   0.986   9.126   5.553  0.4280  0.0013  0.5178
 4455SOL    HW118050   0.978   9.159   5.463 -0.5873 -2.6126 -0.4588
 4455SOL    HW218051   1.075   9.150   5.579  1.0484  0.1184 -1.5120
 4456SOL     OW18052   6.002   1.653   7.807  0.0802 -0.1256 -0.7224
 4456SOL    HW118053   5.959   1.646   7.892  0.7348  0.8645 -0.2886
 4456SOL    HW218054   5.933   1.680   7.747 -0.4154 -0.9760 -0.5427
 4457SOL     OW18055  11.519   7.764   4.929 -0.4757 -0.0986  0.3565
 4457SOL    HW118056  11.513   7.735   4.838 -1.4909 -0.9808  0.6690
 4457SOL    HW218057  11.520   7.859   4.925  1.6806 -0.1048 -0.6614
 4458SOL     OW18058   9.155   2.636   9.225  0.2210  0.6621 -0.1336
 4458SOL    HW118059   9.133   2.681   9.307  2.4992 -0.3072  1.1223
 4458SOL    HW218060   9.234   2.585   9.246 -0.0554 -0.9249 -2.5114
 4459SOL     OW18061   6.659   1.639   0.080  0.9907  0.3940 -0.2850
 4459SOL    HW118062   6.754   1.646   0.072  0.9780  0.0780 -0.7333
 4459SOL    HW218063   6.626   1.660  -0.007  0.6986 -0.3691 -0.3623
 4460SOL     OW18064  10.666  11.954   5.383  0.0909  0.0990 -0.3337
 4460SOL    HW118065  10.651  11.868   5.342  0.0907 -0.9060  1.6126
 4460SOL    HW218066  10.740  11.991   5.337  0.5423 -1.2859 -0.7711
 4461SOL     OW18067   7.842   9.792   7.523 -0.5582 -0.0836 -0.2559
 4461SOL    HW118068   7.920   9.799   7.468 -0.1635  0.2010  0.3354
 4461SOL    HW218069   7.815   9.883   7.539 -0.4417 -0.1486  0.3409
 4462SOL     OW18070   1.097   8.771   3.169 -0.9568 -0.7996  0.2145
 4462SOL    HW118071   1.152   8.839   3.209 -0.5096 -1.1033  0.1229
 4462SOL    HW218072   1.008   8.793   3.196 -0.7955 -0.2735  0.3279
 4463SOL     OW18073   4.091   6.228   5.197 -0.1705  0.7905 -0.0408
 4463SOL    HW118074   4.137   6.296   5.148 -1.0859  0.9950 -0.6394
 4463SOL    HW218075   4.122   6.239   5.287 -0.1002  1.8280 -0.1808
 4464SOL     OW18076   0.561   1.042   8.441 -0.0424  0.5210  0.0281
 4464SOL    HW118077   0.518   1.088   8.370  1.4584  2.0902  0.0869
 4464SOL    HW218078   0.527   1.083   8.521  0.4558  0.7664  0.1176
 4465SOL     OW18079   5.059   3.410   6.584  0.1487  0.1571 -0.1343
 4465SOL    HW118080   5.073   3.504   6.592 -1.3313  0.4378 -0.4720
 4465SOL    HW218081   5.146   3.374   6.563  0.4166  1.6810 -1.9390
 4466SOL     OW18082   9.860   5.943  11.802 -0.4001  0.1699  0.0869
 4466SOL    HW118083   9.947   5.981  11.810 -0.3039 -0.0671  0.1749
 4466SOL    HW218084   9.827   5.938  11.892  0.0165 -0.9483  0.1934
 4467SOL     OW18085   9.962  11.781   5.354 -0.1744  0.1821 -0.1655
 4467SOL    HW118086  10.009  11.839   5.294 -1.7738  0.7033 -0.9499
 4467SOL    HW218087   9.900  11.838   5.400 -1.6604 -0.8279 -0.8322
 4468SOL     OW18088   0.318   4.209   2.863 -0.7331 -0.2234 -0.4745
 4468SOL    HW118089   0.229   4.243   2.877 -0.9078 -0.6010 -0.6517
 4468SOL    HW218090   0.311   4.115   2.882 -0.2654 -0.1721 -0.0288
 4469SOL     OW18091   7.951  11.062   3.935  0.0400  0.3360  0.2356
 4469SOL    HW118092   7.858  11.057   3.955 -0.3215  0.3650 -1.3000
 4469SOL    HW218093   7.972  10.978   3.894  1.2202 -0.5317  2.4577
 4470SOL     OW18094   3.057   1.702   2.726 -0.0744 -0.0060 -0.3553
 4470SOL    HW118095   2.982   1.720   2.783  0.4125 -0.4247  0.4355
 4470SOL    HW218096   3.068   1.782   2.674 -1.3469 -0.0996 -0.8192
 4471SOL     OW18097   5.441   0.023   9.645 -0.1509 -0.0042  0.6659
 4471SOL    HW118098   5.365   0.081   9.637 -1.1813 -0.9216  2.8873
 4471SOL    HW218099   5.435  -0.036   9.570 -0.7550  0.8924 -0.0172
 4472SOL     OW18100   7.824  10.909   8.920  0.4476 -0.4879  0.0411
 4472SOL    HW118101   7.758  10.877   8.981  1.1623 -0.4197  0.8739
 4472SOL    HW218102   7.891  10.949   8.976  0.2514  1.2134 -0.8761
 4473SOL     OW18103   5.637   5.668   3.093 -0.4975  0.2334  0.1860
 4473SOL    HW118104   5.645   5.760   3.068  0.0076  0.0080 -0.5003
 4473SOL    HW218105   5.620   5.622   3.011 -0.7438 -0.2893  0.5261
 4474SOL     OW18106   1.556   0.840   0.463 -0.1273 -0.2546  0.4073
 4474SOL    HW118107   1.475   0.850   0.414 -0.3251 -1.4783  0.4695
 4474SOL    HW218108   1.624   0.831   0.395 -0.2911 -1.0912  0.3458
 4475SOL     OW18109   2.862  10.045   2.523  0.5602  0.5545  0.6307
 4475SOL    HW118110   2.798  10.098   2.570  1.9913  1.4828  1.6284
 4475SOL    HW218111   2.943  10.056   2.572  1.5623 -0.3857 -0.7192
 4476SOL     OW18112  12.000   3.915  10.516  0.5050 -0.0912  0.2475
 4476SOL    HW118113  11.995   3.839  10.458 -0.3382 -0.9575  1.3974
 4476SOL    HW218114  12.087   3.910  10.555  0.0723 -1.1181  1.1270
 4477SOL     OW18115  11.820   1.714   9.473  0.1924 -0.0234  0.2300
 4477SOL    HW118116  11.824   1.700   9.378 -0.1251 -0.6020  0.3033
 4477SOL    HW218117  11.773   1.797   9.483 -0.6442 -0.4477 -0.0874
 4478SOL     OW18118   2.801   8.688   1.223  0.0514  0.0648 -0.0673
 4478SOL    HW118119   2.807   8.762   1.284 -2.1606 -0.4843  0.8974
 4478SOL    HW218120   2.716   8.648   1.241  0.6836 -2.0341 -1.3783
 4479SOL     OW18121   3.860   2.272   5.108  0.1777 -0.3168 -0.1188
 4479SOL    HW118122   3.930   2.271   5.042  0.3416  1.5782 -0.0247
 4479SOL    HW218123   3.905   2.292   5.190 -0.3839  0.3906  0.0316
 4480SOL     OW18124   0.557   3.169   9.991  0.2786 -0.1640 -0.8674
 4480SOL    HW118125   0.561   3.183   9.897 -1.4424  2.0247 -0.6841
 4480SOL    HW218126   0.597   3.246  10.029 -0.0733 -0.4899  0.2034
 4481SOL     OW18127   9.764   4.862   8.662 -0.3215  0.4853  0.1087
 4481SOL    HW118128   9.811   4.836   8.583  0.9899 -1.8193  1.5402
 4481SOL    HW218129   9.779   4.956   8.668  0.6884  0.4921 -1.6466
 4482SOL     OW18130   6.745   0.969   0.261  0.0867 -0.3629  0.5228
 4482SOL    HW118131   6.804   1.043   0.247 -0.4527  0.1648  0.9664
 4482SOL    HW218132   6.675   1.004   0.316 -2.1972 -0.1314 -2.2421
 4483SOL     OW18133   7.640   3.420   4.074  0.0470 -0.4948 -0.0797
 4483SOL    HW118134   7.605   3.460   3.994 -0.1584 -1.7895 -0.6647
 4483SOL    HW218135   7.705   3.357   4.043  0.4661 -0.5161  0.8218
 4484SOL     OW18136   0.694   2.692   5.239  0.2954  0.0143  0.1082
 4484SOL    HW118137   0.702   2.633   5.164  1.4173  1.0189 -0.5923
 4484SOL    HW218138   0.744   2.770   5.214  0.5445  0.4439  1.8276
 4485SOL     OW18139   6.330   9.786   5.874  0.0069 -0.1374 -0.3811
 4485SOL    HW118140   6.259   9.822   5.820  0.0248 -0.8387 -0.8982
 4485SOL    HW218141   6.311   9.816   5.962 -0.0679  0.9793 -0.7697
 4486SOL     OW18142  10.654   1.783   4.884 -0.1788 -0.5855 -0.2659
 4486SOL    HW118143  10.658   1.822   4.971 -1.4010 -0.4411 -0.2600
 4486SOL    HW218144  10.636   1.690   4.900 -4.0759 -0.0143 -0.3383
 4487SOL     OW18145  11.939   7.366   7.328 -0.4042  0.0505 -0.4574
 4487SOL    HW118146  11.962   7.420   7.253  1.8031  0.2128  0.2534
 4487SOL    HW218147  11.930   7.278   7.293 -1.3790  0.4369 -1.2068
 4488SOL     OW18148   1.649   1.875   6.475 -0.3481  0.0981  0.1749
 4488SOL    HW118149   1.628   1.828   6.556 -2.5441  1.4267  0.4668
 4488SOL    HW218150   1.570   1.926   6.456  0.7844  1.2345 -1.8211
 4489SOL     OW18151   4.883  10.076   3.763  0.2221 -0.2442 -0.2458
 4489SOL    HW118152   4.833  10.001   3.732 -1.7496  1.0702 -0.4207
 4489SOL    HW218153   4.930  10.106   3.686 -1.7619  0.7684 -1.1408
 4490SOL     OW18154   3.461   4.108   8.136  0.3678  0.5728  0.0166
 4490SOL    HW118155   3.528   4.166   8.101  1.5116 -0.3297  0.6564
 4490SOL    HW218156   3.434   4.149   8.218  1.4346  0.0375  0.6510
 4491SOL     OW18157   6.469   7.764   6.006 -0.6655  0.3494 -0.1709
 4491SOL    HW118158   6.479   7.675   5.971  0.4658 -0.0109  0.9984
 4491SOL    HW218159   6.402   7.804   5.951 -1.6670 -1.4344 -0.3102
 4492SOL     OW18160   5.314  10.365   3.270 -0.2326  0.7351 -0.3245
 4492SOL    HW118161   5.290  10.446   3.314  1.6865  2.0341 -1.5504
 4492SOL    HW218162   5.242  10.349   3.209 -1.5648  0.4029  1.2417
 4493SOL     OW18163   4.986   1.162   7.054 -0.0115  0.5435  0.2942
 4493SOL    HW118164   4.905   1.199   7.090  0.7680  0.5012  2.2308
 4493SOL    HW218165   5.022   1.232   6.999 -0.9816  0.8459  0.0399
 4494SOL     OW18166   3.748   5.158  11.337 -0.4486 -0.0504 -0.3633
 4494SOL    HW118167   3.708   5.218  11.273 -1.5413  2.4542  2.4353
 4494SOL    HW218168   3.675   5.130  11.392  0.9984  1.5640  2.5513
 4495SOL     OW18169   8.338   1.754   2.413  0.6052 -0.0421 -0.2471
 4495SOL    HW118170   8.273   1.824   2.425  0.3038 -0.2844 -0.4748
 4495SOL    HW218171   8.419   1.792   2.448  0.1595 -0.0452  0.8485
 4496SOL     OW18172   3.132  11.489   9.487 -0.2792  0.6365  0.3856
 4496SOL    HW118173   3.216  11.481   9.441 -1.1309  0.9812 -1.2822
 4496SOL    HW218174   3.131  11.580   9.518 -0.1765  0.7279  0.1217
 4497SOL     OW18175   9.700   1.290  10.994  0.1683  0.1260  0.3477
 4497SOL    HW118176   9.646   1.313  10.918  0.9776  2.2348  0.3625
 4497SOL    HW218177   9.788   1.279  10.958  0.3621  0.0890  0.8325
 4498SOL     OW18178  10.144   1.201   0.190 -0.5209 -0.1907 -0.4047
 4498SOL    HW118179  10.137   1.295   0.171 -0.7175 -0.3542 -1.1559
 4498SOL    HW218180  10.068   1.182   0.245 -1.3733 -0.2313 -1.5740
 4499SOL     OW18181  11.070   5.816   5.327  0.4268  0.0942 -0.1014
 4499SOL    HW118182  11.108   5.875   5.263 -1.3582  1.4779  0.0508
 4499SOL    HW218183  11.022   5.873   5.387  0.4224 -1.3320  1.3281
 4500SOL     OW18184   3.007   0.702   9.868  0.0445  0.9132 -0.1954
 4500SOL    HW118185   3.020   0.751   9.787 -0.2258  2.4527  0.6407
 4500SOL    HW218186   2.917   0.722   9.894 -0.6551 -1.3972 -0.6678
 4501SOL     OW18187   0.618   3.450  11.236 -0.3542  0.3565 -0.1032
 4501SOL    HW118188   0.605   3.515  11.306  0.4886 -0.1961  0.5807
 4501SOL    HW218189   0.532   3.407  11.228 -0.5616  0.6741  0.3399
 4502SOL     OW18190   3.780   0.551   0.650 -0.1197  0.0391 -0.1129
 4502SOL    HW118191   3.823   0.634   0.630  0.1872 -0.6397 -2.5682
 4502SOL    HW218192   3.841   0.506   0.708  0.5378  0.8015 -0.1931
 4503SOL     OW18193   1.116   3.201   7.855 -0.5179  0.2806 -0.3497
 4503SOL    HW118194   1.060   3.196   7.778 -0.6111  0.3824 -0.2891
 4503SOL    HW218195   1.164   3.118   7.856 -1.9415 -0.5614  0.5797
 4504SOL     OW18196   8.280  11.140   8.549  0.5702  0.3243 -0.0093
 4504SOL    HW118197   8.361  11.189   8.558 -0.0907  1.1961  1.4151
 4504SOL    HW218198   8.212  11.198   8.582 -0.5726 -0.6284 -0.5911
 4505SOL     OW18199   8.678   1.026   0.459  0.3104  0.5409  0.2461
 4505SOL    HW118200   8.762   0.985   0.443  0.3185  0.1865  1.1006
 4505SOL    HW218201   8.698   1.104   0.510  0.1467  0.6086  0.2090
 4506SOL     OW18202   1.963   8.869   0.679 -0.2157  0.1125  0.2492
 4506SOL    HW118203   1.911   8.930   0.627 -2.1609 -1.4436  0.2683
 4506SOL    HW218204   1.932   8.882   0.769 -0.8606 -1.0633  0.2119
 4507SOL     OW18205   9.559   8.238   9.753 -0.6681  0.9815  0.3917
 4507SOL    HW118206   9.604   8.158   9.781  0.8296  1.4527 -0.5602
 4507SOL    HW218207   9.466   8.219   9.767 -0.4094 -1.2064 -0.4944
 4508SOL     OW18208   0.341   2.755   5.951  0.6404 -0.6786 -0.5373
 4508SOL    HW118209   0.255   2.714   5.939  0.3704 -0.7912  1.4956
 4508SOL    HW218210   0.394   2.688   5.994  2.1672 -1.0338 -2.8191
 4509SOL     OW18211   6.725  11.909   8.580  0.5414 -0.0444 -0.1166
 4509SOL    HW118212   6.676  11.835   8.616 -0.7677  0.7406 -0.2052
 4509SOL    HW218213   6.788  11.870   8.520  0.8398 -1.1696  0.8960
 4510SOL     OW18214   3.304   8.374   3.575  0.5036  0.4017 -0.3702
 4510SOL    HW118215   3.315   8.283   3.602  0.6601  0.8271  1.0988
 4510SOL    HW218216   3.300   8.370   3.480  2.9637 -0.8983 -0.5078
 4511SOL     OW18217   0.870   6.363   8.527 -0.1869  0.2108  0.3535
 4511SOL    HW118218   0.835   6.354   8.439 -0.0527  0.4420  0.2746
 4511SOL    HW218219   0.813   6.308   8.581  1.1967 -1.8688 -0.2339
 4512SOL     OW18220   6.878   9.782   4.333 -0.0733 -0.5083  0.5640
 4512SOL    HW118221   6.823   9.819   4.263  0.0367 -3.2528 -1.1026
 4512SOL    HW218222   6.961   9.830   4.325  0.1811 -1.2029 -1.7115
 4513SOL     OW18223   0.611   4.165   8.750  0.1012 -0.1309 -0.2874
 4513SOL    HW118224   0.633   4.233   8.814 -0.8824 -0.2378  0.1845
 4513SOL    HW218225   0.694   4.143   8.708  1.2997 -1.8411  2.6771
 4514SOL     OW18226   5.122   3.723   1.896  0.2835  0.4073 -0.2914
 4514SOL    HW118227   5.200   3.668   1.905 -0.2232 -0.3316 -0.3160
 4514SOL    HW218228   5.104   3.755   1.984  0.1176 -0.1229 -0.1289
 4515SOL     OW18229   4.030   1.807  10.070  0.2914 -0.3769  0.1217
 4515SOL    HW118230   3.997   1.806  10.160  0.8345 -2.5832  0.3722
 4515SOL    HW218231   3.953   1.825  10.016 -0.4550 -0.9960  0.9432
 4516SOL     OW18232   7.677   1.747  10.381  0.0382  0.3171  0.4185
 4516SOL    HW118233   7.600   1.793  10.348 -0.2770 -0.2582  0.3275
 4516SOL    HW218234   7.667   1.750  10.477  1.0134  2.0838  0.5058
 4517SOL     OW18235  11.722   2.320   4.122 -0.7767 -0.0697 -0.7408
 4517SOL    HW118236  11.708   2.240   4.071  0.9284 -0.4697 -0.6716
 4517SOL    HW218237  11.804   2.303   4.170 -1.6805  0.7531  1.2213
 4518SOL     OW18238   2.613   6.544   8.892  0.0917 -0.0947 -0.5115
 4518SOL    HW118239   2.567   6.622   8.921  1.2286  0.4187 -0.0295
 4518SOL    HW218240   2.547   6.475   8.895 -0.1356  0.1287  2.3567
 4519SOL     OW18241   6.182   7.968   3.674 -0.0709 -0.1658  0.1940
 4519SOL    HW118242   6.169   8.012   3.590  0.2057 -1.1059 -0.3522
 4519SOL    HW218243   6.117   8.007   3.732 -0.9733 -0.2547 -0.7396
 4520SOL     OW18244   5.667   3.365   1.011  0.2341 -0.7720 -0.2552
 4520SOL    HW118245   5.643   3.293   0.953  1.3381 -0.6339 -0.9220
 4520SOL    HW218246   5.649   3.332   1.099 -2.3097 -0.6585 -0.6691
 4521SOL     OW18247   4.498   2.107  10.145 -0.5850  0.2211  0.2257
 4521SOL    HW118248   4.500   2.089  10.239  0.8186 -0.9255  0.0048
 4521SOL    HW218249   4.423   2.058  10.113  0.3218 -1.3798  0.4145
 4522SOL     OW18250  11.156   0.704   9.275 -0.2357 -0.0530  0.1244
 4522SOL    HW118251  11.138   0.681   9.366  0.6782 -1.4939 -0.0337
 4522SOL    HW218252  11.240   0.748   9.277 -0.1875 -0.1353 -0.0288
 4523SOL     OW18253   6.507   6.483  10.460 -0.0885  0.4245  0.1310
 4523SOL    HW118254   6.542   6.488  10.371  0.2785  0.1551  0.2571
 4523SOL    HW218255   6.441   6.552  10.464 -1.6728 -0.9434 -1.0321
 4524SOL     OW18256   1.603   4.232   3.745 -0.0065  0.0685 -0.2337
 4524SOL    HW118257   1.522   4.181   3.748  0.4081 -0.6815 -1.1150
 4524SOL    HW218258   1.666   4.177   3.792 -0.4589  1.5866  2.3138
 4525SOL     OW18259   2.135   6.271   3.852  0.3514 -0.2445 -0.2454
 4525SOL    HW118260   2.136   6.338   3.785  1.8389 -0.6608 -0.6775
 4525SOL    HW218261   2.194   6.203   3.819 -1.4981 -2.0145 -0.0703
 4526SOL     OW18262   6.027   8.809   3.793  0.0318 -0.3339  0.8870
 4526SOL    HW118263   6.053   8.785   3.704 -0.5711 -0.7528  0.8150
 4526SOL    HW218264   6.098   8.865   3.825  1.5429 -2.2484  1.0663
 4527SOL     OW18265   5.779   7.993   3.040  0.5746 -0.2497  0.6712
 4527SOL    HW118266   5.701   8.003   2.987  1.8279  0.4050 -1.1500
 4527SOL    HW218267   5.764   7.913   3.091 -1.1532 -0.2489  0.1974
 4528SOL     OW18268   8.287   8.138   0.988  0.0438  0.3676  0.0742
 4528SOL    HW118269   8.367   8.087   0.993 -0.2338 -0.0360  0.4995
 4528SOL    HW218270   8.222   8.078   0.952 -0.1218  0.6275 -0.0632
 4529SOL     OW18271  11.297   0.632   9.827  0.3570 -0.3482  0.5861
 4529SOL    HW118272  11.363   0.563   9.817 -0.8793 -1.5528  0.3787
 4529SOL    HW218273  11.308   0.662   9.917  0.3137 -1.5010  0.9995
 4530SOL     OW18274   4.828   6.114   5.578  0.5077 -0.1623  0.5340
 4530SOL    HW118275   4.917   6.141   5.598  0.0244  0.1774  2.4856
 4530SOL    HW218276   4.775   6.150   5.650 -1.1962 -0.3887 -0.5305
 4531SOL     OW18277   4.701   1.368   6.372 -0.1639 -0.0836  0.4184
 4531SOL    HW118278   4.761   1.438   6.398  0.9537 -1.5159  1.9043
 4531SOL    HW218279   4.748   1.287   6.394 -0.8255 -1.3923 -2.4704
 4532SOL     OW18280  10.622   2.822   4.115  0.0319  0.6900 -0.1351
 4532SOL    HW118281  10.664   2.907   4.111  1.2693  0.0686 -0.6692
 4532SOL    HW218282  10.535   2.836   4.076  0.5431  1.5149 -1.0138
 4533SOL     OW18283   4.242   2.981   7.706  0.2259  0.0890 -0.1339
 4533SOL    HW118284   4.198   2.930   7.639  1.7025 -0.2179 -0.8968
 4533SOL    HW218285   4.268   2.917   7.772  1.4283 -0.0824 -0.7406
 4534SOL     OW18286   3.804   7.849   8.433  0.1565 -0.0690  0.1189
 4534SOL    HW118287   3.895   7.825   8.421 -0.1082 -0.2304 -1.9482
 4534SOL    HW218288   3.800   7.941   8.406  0.0450  0.5806  2.1711
 4535SOL     OW18289   3.097   1.354   4.919  0.1393 -0.0649  0.3740
 4535SOL    HW118290   3.120   1.439   4.881  0.2140 -0.5011 -0.5854
 4535SOL    HW218291   3.154   1.346   4.996  1.3005  0.0398 -0.4538
 4536SOL     OW18292   7.036   3.579   5.543 -0.4754 -0.3589 -0.1422
 4536SOL    HW118293   6.996   3.616   5.464 -1.2619 -1.4019 -0.2443
 4536SOL    HW218294   7.054   3.655   5.598 -1.1061  0.2702 -0.7831
 4537SOL     OW18295   7.515  11.306  10.909 -0.5049 -0.1414 -1.0144
 4537SOL    HW118296   7.425  11.313  10.940 -0.7121  0.0259 -1.6394
 4537SOL    HW218297   7.507  11.269  10.821 -0.0641  1.1306 -1.6125
 4538SOL     OW18298   6.475   1.831   7.001  0.1810 -0.4376 -0.2024
 4538SOL    HW118299   6.456   1.739   7.019 -0.3792 -0.4560 -0.8279
 4538SOL    HW218300   6.389   1.871   6.987  0.3576  0.3777  0.9303
 4539SOL     OW18301  10.696   9.703   4.172  0.0853  0.1420 -0.0280
 4539SOL    HW118302  10.776   9.746   4.140 -0.3376  0.1754 -1.0661
 4539SOL    HW218303  10.729   9.631   4.227  0.8053  1.3921  1.2536
 4540SOL     OW18304   3.926   4.687   3.588  0.2377  0.0118  0.4448
 4540SOL    HW118305   4.016   4.715   3.605  0.9869 -1.4703 -0.8670
 4540SOL    HW218306   3.914   4.702   3.495 -0.7149 -0.2460  0.5209
 4541SOL     OW18307  10.244   1.660   4.268  0.1296  0.3955 -0.0925
 4541SOL    HW118308  10.324   1.614   4.241  0.0015  0.1296 -0.0162
 4541SOL    HW218309  10.203   1.602   4.332 -0.2847  0.3933 -0.3564
 4542SOL     OW18310   2.439   2.728   6.428 -0.5051 -0.5745  0.6534
 4542SOL    HW118311   2.514   2.777   6.393 -1.2883  1.2819  1.4200
 4542SOL    HW218312   2.410   2.672   6.356  0.4260  0.1188 -0.2840
 4543SOL     OW18313   1.558   5.250   1.220 -0.5927 -0.2008  0.2117
 4543SOL    HW118314   1.524   5.172   1.264 -0.6976 -1.0898 -1.3550
 4543SOL    HW218315   1.631   5.278   1.274  0.4019 -2.2929  0.0585
 4544SOL     OW18316   9.326   6.782   4.566  0.3166 -1.0010  0.3745
 4544SOL    HW118317   9.319   6.687   4.554  2.4619 -1.0721 -0.8644
 4544SOL    HW218318   9.361   6.793   4.655 -0.9783 -1.2809  0.9387
 4545SOL     OW18319  10.078   2.265   3.924 -0.0747 -0.0583  0.5405
 4545SOL    HW118320  10.023   2.274   4.002 -0.6242  0.4099  0.1111
 4545SOL    HW218321  10.080   2.170   3.908 -1.6194 -0.0273 -0.0161
 4546SOL     OW18322   6.226  10.237   2.121  0.2225  0.2493 -0.3931
 4546SOL    HW118323   6.141  10.197   2.108 -0.0680  0.8748 -0.4702
 4546SOL    HW218324   6.263  10.191   2.196 -0.1510 -0.0700 -0.4016
 4547SOL     OW18325   6.357   2.731   5.010 -0.6296  0.1353  0.1360
 4547SOL    HW118326   6.442   2.770   5.032 -0.3112 -0.6788  0.3936
 4547SOL    HW218327   6.333   2.770   4.926 -1.5573  2.8157  1.5329
 4548SOL     OW18328  11.519   8.009   8.501 -0.5811 -0.4470 -0.0386
 4548SOL    HW118329  11.578   8.013   8.576  0.1771  3.1100 -0.6373
 4548SOL    HW218330  11.443   7.959   8.531  1.9351 -3.8490  1.2554
 4549SOL     OW18331   0.526   0.428   7.163 -0.2650  0.3656 -0.2836
 4549SOL    HW118332   0.526   0.497   7.096 -0.4039  1.2639  0.6120
 4549SOL    HW218333   0.541   0.347   7.114 -0.7260  0.9503 -1.4433
 4550SOL     OW18334   5.440   2.041   8.499 -0.4528 -0.3002 -0.1805
 4550SOL    HW118335   5.506   2.061   8.566  1.1378 -2.8550 -0.8417
 4550SOL    HW218336   5.364   2.010   8.548 -0.1868  0.1336  0.5119
 4551SOL     OW18337   6.263  10.314   2.611 -0.4630 -0.1606  0.6742
 4551SOL    HW118338   6.209  10.391   2.591  0.2699  0.0124 -0.7216
 4551SOL    HW218339   6.224  10.243   2.561 -0.5099 -0.4601  1.1334
 4552SOL     OW18340   7.397   9.913   6.482 -0.2972 -0.0746  0.5068
 4552SOL    HW118341   7.311   9.912   6.440 -1.1648 -0.4560  2.2085
 4552SOL    HW218342   7.424  10.005   6.479 -0.3995 -0.0666 -0.6909
 4553SOL     OW18343   6.475   3.035   2.277  0.6994  0.0202  0.4180
 4553SOL    HW118344   6.414   3.080   2.335  1.5413  1.1711  0.4482
 4553SOL    HW218345   6.434   3.039   2.191  0.8745  1.0962  0.3720
 4554SOL     OW18346   5.196   1.561   5.902  0.4232  0.2487  0.2856
 4554SOL    HW118347   5.154   1.476   5.886  0.5751  0.1545  0.3887
 4554SOL    HW218348   5.254   1.574   5.826  0.5633  0.1591  0.3764
 4555SOL     OW18349  11.074   7.427   1.396  0.4227 -0.1832 -0.0118
 4555SOL    HW118350  11.145   7.394   1.341  1.1270 -0.1217  0.8497
 4555SOL    HW218351  11.104   7.512   1.427 -0.4949  0.3398 -0.5077
 4556SOL     OW18352   4.848  11.276   4.385 -0.0723 -0.1086  0.3048
 4556SOL    HW118353   4.903  11.250   4.459 -2.8777 -3.8683  1.3917
 4556SOL    HW218354   4.895  11.245   4.308  0.8362 -0.2523  0.9088
 4557SOL     OW18355   1.574   5.563   9.925 -0.7049 -0.2455 -0.0089
 4557SOL    HW118356   1.540   5.484   9.965 -4.8731  1.3668  0.1194
 4557SOL    HW218357   1.550   5.634   9.985  1.4875  1.3290 -0.8362
 4558SOL     OW18358   6.541   8.160  11.596 -0.1769 -0.2488  0.3974
 4558SOL    HW118359   6.467   8.210  11.565  0.9262  0.6903 -0.8139
 4558SOL    HW218360   6.585   8.129  11.517  1.6781  0.6703  1.0062
 4559SOL     OW18361   6.329   2.514  10.885  0.5077  0.2973 -0.0962
 4559SOL    HW118362   6.412   2.512  10.838  0.1129  1.0520 -0.8619
 4559SOL    HW218363   6.350   2.483  10.973  0.9971 -2.5821 -1.1271
 4560SOL     OW18364  10.999   5.391   6.265  0.1668  0.3525  0.4566
 4560SOL    HW118365  11.094   5.377   6.269 -0.0578 -1.7209 -0.1846
 4560SOL    HW218366  10.970   5.334   6.195 -1.7542 -0.2781  1.6978
 4561SOL     OW18367   4.075   0.243   8.995 -0.0936  0.3125  0.1542
 4561SOL    HW118368   4.081   0.177   9.064  0.9049  0.2670  0.0381
 4561SOL    HW218369   3.998   0.217   8.944  0.4208 -0.9171 -0.0387
 4562SOL     OW18370  10.297   2.070   1.883  0.1129  0.2411  0.0246
 4562SOL    HW118371  10.310   1.986   1.838  0.3748  2.4677 -4.6004
 4562SOL    HW218372  10.203   2.071   1.903 -0.0129 -0.9056 -0.3971
 4563SOL     OW18373   2.949   2.764  11.569  0.1171  0.5704  0.1890
 4563SOL    HW118374   2.917   2.674  11.574  0.3868  0.3685 -1.3754
 4563SOL    HW218375   3.002   2.774  11.648  0.3062 -0.7231  0.2550
 4564SOL     OW18376   8.026  11.217   1.561 -0.2009 -0.5309 -0.0286
 4564SOL    HW118377   8.057  11.295   1.607 -0.3361 -0.5099  0.0287
 4564SOL    HW218378   8.008  11.248   1.472  1.6438 -0.9209 -0.5892
 4565SOL     OW18379   7.436   3.301  10.796 -0.1112 -0.1246 -0.5752
 4565SOL    HW118380   7.396   3.215  10.813 -1.3585 -0.1423 -3.1388
 4565SOL    HW218381   7.361   3.361  10.792  0.6244  0.8249 -0.3116
 4566SOL     OW18382   5.594   0.358   8.690  0.0590 -0.0683 -0.1859
 4566SOL    HW118383   5.546   0.282   8.658  0.1564 -0.8474  1.4415
 4566SOL    HW218384   5.686   0.333   8.683  0.0930 -0.0932  0.2982
 4567SOL     OW18385   4.571   8.019   0.324  0.5297 -0.3620  0.5511
 4567SOL    HW118386   4.553   8.113   0.328 -0.5625 -0.2229 -3.3208
 4567SOL    HW218387   4.662   8.010   0.351 -0.0114  1.4043  3.3315
 4568SOL     OW18388   9.691   2.596   4.251  0.0594  0.1421 -0.3021
 4568SOL    HW118389   9.621   2.639   4.203 -0.0139  1.8729  1.2473
 4568SOL    HW218390   9.690   2.637   4.338  3.1733  0.4602 -0.2929
 4569SOL     OW18391   3.422  10.826  10.138  0.0364 -0.2683 -0.1054
 4569SOL    HW118392   3.336  10.869  10.145  0.7026  1.1736 -0.4536
 4569SOL    HW218393   3.415  10.773  10.059 -1.1610 -1.7094  0.9016
 4570SOL     OW18394   5.841   2.306   2.814 -0.6890  0.4392  0.1201
 4570SOL    HW118395   5.826   2.214   2.840 -1.0837  0.0414 -1.4454
 4570SOL    HW218396   5.921   2.330   2.861  0.9573 -1.5737 -1.4364
 4571SOL     OW18397   7.258   3.120   7.717  0.4878  0.4889 -0.1313
 4571SOL    HW118398   7.245   3.139   7.810 -0.0526  0.7463 -0.2529
 4571SOL    HW218399   7.195   3.050   7.698  1.2472 -0.2153 -0.0946
 4572SOL     OW18400   9.271   7.113   7.974  0.3338  0.0926  0.0245
 4572SOL    HW118401   9.303   7.069   8.052  0.0540  1.0754  0.7091
 4572SOL    HW218402   9.303   7.203   7.982 -0.2724  0.3782 -0.6524
 4573SOL     OW18403   5.911   5.069   8.017 -0.2264  0.4096 -0.0729
 4573SOL    HW118404   5.819   5.085   8.038  0.4133  2.8503  1.3404
 4573SOL    HW218405   5.936   4.997   8.075 -1.3458 -0.6024 -0.8231
 4574SOL     OW18406   7.354   2.946   9.859  0.4425 -0.8046 -0.0771
 4574SOL    HW118407   7.266   2.914   9.882  0.3817 -1.8974 -1.6689
 4574SOL    HW218408   7.342   3.041   9.846 -0.1827 -0.7047  1.0554
 4575SOL     OW18409   7.115   6.174  11.551  0.5859 -0.0846 -0.1640
 4575SOL    HW118410   7.145   6.084  11.541  0.9315 -0.1593  1.3276
 4575SOL    HW218411   7.030   6.167  11.596  1.2005  0.3454  1.1305
 4576SOL     OW18412   8.513   1.810   0.460 -0.2623  0.1694 -0.1866
 4576SOL    HW118413   8.577   1.866   0.417 -0.0469  0.7378  0.8306
 4576SOL    HW218414   8.531   1.820   0.554 -3.9486  3.1062  0.4690
 4577SOL     OW18415   1.125   6.903   6.249 -0.0360  0.1598  0.1801
 4577SOL    HW118416   1.079   6.980   6.219  1.4517  0.8204 -0.5143
 4577SOL    HW218417   1.193   6.937   6.308  1.2077 -0.4835 -0.8145
 4578SOL     OW18418   5.687  10.171  10.915 -0.2723  0.2214  0.4398
 4578SOL    HW118419   5.771  10.130  10.896  0.0309  0.5025  1.1607
 4578SOL    HW218420   5.675  10.160  11.009 -2.1166 -1.8287  0.0350
 4579SOL     OW18421   3.207   6.518   2.980 -0.2767 -0.9051  0.1416
 4579SOL    HW118422   3.138   6.524   2.914 -0.0225 -0.8514 -0.1178
 4579SOL    HW218423   3.221   6.609   3.008 -0.9994 -1.0148  0.9074
 4580SOL     OW18424  11.187   0.091   8.447  0.6697  0.1179  0.0216
 4580SOL    HW118425  11.207   0.086   8.540  1.2199  0.0205 -0.0978
 4580SOL    HW218426  11.238   0.166   8.415 -0.1488  0.6541 -0.0462
 4581SOL     OW18427   4.041  11.014   2.002 -0.3700  0.4824 -0.2284
 4581SOL    HW118428   3.980  10.943   2.022 -0.0531  0.1528 -0.4202
 4581SOL    HW218429   4.027  11.078   2.072 -0.5741  0.1784  0.0145
 4582SOL     OW18430   8.002   9.800   2.771 -0.0020  0.1010  0.0182
 4582SOL    HW118431   8.039   9.713   2.755 -0.0067  0.2917 -1.1177
 4582SOL    HW218432   8.054   9.834   2.844  0.9798 -0.2932 -0.4697
 4583SOL     OW18433   0.800   3.697   8.912  0.2773  0.1898  0.0976
 4583SOL    HW118434   0.832   3.630   8.972  0.1116  0.1722  0.1676
 4583SOL    HW218435   0.823   3.665   8.825 -0.3870 -0.2805  0.0862
 4584SOL     OW18436   7.987   9.014   0.973  0.6815 -0.3244  0.4040
 4584SOL    HW118437   8.003   8.934   0.922 -4.0024 -1.0575 -0.3967
 4584SOL    HW218438   8.041   9.080   0.931  2.9812 -2.5350 -0.3816
 4585SOL     OW18439   9.333   6.039   2.442 -0.1570  0.4129  0.0983
 4585SOL    HW118440   9.326   6.131   2.418 -0.1105  0.7468  1.2817
 4585SOL    HW218441   9.269   6.027   2.512  0.1927 -0.3307  0.3046
 4586SOL     OW18442   8.199   2.998   1.496  0.0073  0.0352  0.5294
 4586SOL    HW118443   8.235   2.967   1.579  1.7619 -0.4859 -0.3917
 4586SOL    HW218444   8.261   2.968   1.429 -1.4513  0.2779 -1.0101
 4587SOL     OW18445   0.587   3.281   7.520 -0.6039 -0.4934  0.2528
 4587SOL    HW118446   0.643   3.345   7.474 -1.6177 -0.8720 -1.5931
 4587SOL    HW218447   0.531   3.335   7.576  0.6727 -0.0189  1.1377
 4588SOL     OW18448   8.812   7.858   9.542 -0.7408  0.0650  0.6089
 4588SOL    HW118449   8.900   7.894   9.555  0.1445 -1.8379  0.1876
 4588SOL    HW218450   8.821   7.799   9.468 -2.1695 -0.8151  1.0994
 4589SOL     OW18451  10.818   9.905   4.837 -0.4028  0.7383 -0.5348
 4589SOL    HW118452  10.815   9.995   4.806 -2.6580  0.8656 -0.1118
 4589SOL    HW218453  10.910   9.880   4.830 -0.0926  2.2503 -2.9552
 4590SOL     OW18454   9.408   5.735  11.170 -0.5861 -0.2907 -0.1564
 4590SOL    HW118455   9.472   5.805  11.176  0.8816 -1.6721  2.6498
 4590SOL    HW218456   9.361   5.739  11.254 -0.7555 -2.3145 -0.0932
 4591SOL     OW18457   8.129   0.621   5.152 -0.3729 -0.6173 -0.1302
 4591SOL    HW118458   8.105   0.623   5.245  0.2032 -0.7058  0.0283
 4591SOL    HW218459   8.135   0.528   5.131  2.1609 -0.6862  0.4914
 4592SOL     OW18460   8.936  10.377   1.471 -0.0438 -0.1522  0.0467
 4592SOL    HW118461   8.997  10.446   1.497 -0.1197 -0.6836  1.7664
 4592SOL    HW218462   8.855  10.399   1.516 -0.6309 -0.3697 -0.8886
 4593SOL     OW18463   6.725   8.965   6.719 -0.0819 -0.1208 -0.1767
 4593SOL    HW118464   6.633   8.947   6.699 -0.5571  1.9384 -0.0681
 4593SOL    HW218465   6.736   9.058   6.698  2.1967 -0.5060 -0.9454
 4594SOL     OW18466   1.799   6.844   8.352  0.2101 -0.5381 -0.6556
 4594SOL    HW118467   1.790   6.834   8.257 -0.2272 -0.4471 -0.6238
 4594SOL    HW218468   1.834   6.759   8.381 -1.7959 -1.4119 -0.6208
 4595SOL     OW18469   6.331   8.635   4.550 -0.5517  0.6692  0.2044
 4595SOL    HW118470   6.392   8.570   4.585 -2.1355 -0.8244  0.3294
 4595SOL    HW218471   6.299   8.681   4.628 -3.8219 -2.4314  0.9651
 4596SOL     OW18472   2.691  11.822   3.161 -0.2388  1.0559  0.4876
 4596SOL    HW118473   2.711  11.913   3.138  1.6348  0.2485 -1.3922
 4596SOL    HW218474   2.710  11.773   3.081  1.9808 -1.3858  2.3354
 4597SOL     OW18475   3.804   2.428   0.137 -0.0042  0.4733  0.6414
 4597SOL    HW118476   3.865   2.437   0.063  0.9069  0.4462  1.3657
 4597SOL    HW218477   3.729   2.481   0.113  0.0171  0.0067 -0.5641
 4598SOL     OW18478   4.960   8.207   3.994 -0.1006  0.3680  0.0196
 4598SOL    HW118479   4.942   8.283   4.049  0.2244  0.6391 -0.2478
 4598SOL    HW218480   4.950   8.132   4.053 -1.8934  0.4993 -0.0424
 4599SOL     OW18481  11.181   4.864   6.022 -0.0062 -0.5183  0.2062
 4599SOL    HW118482  11.094   4.835   6.049 -0.3697  0.2141 -0.1516
 4599SOL    HW218483  11.188   4.839   5.930  0.6378 -1.6406  0.5366
 4600SOL     OW18484   0.939   9.379   4.425 -0.3686 -0.2813 -0.5757
 4600SOL    HW118485   0.849   9.403   4.401 -0.7585  0.5129  1.4625
 4600SOL    HW218486   0.955   9.426   4.507  0.9174 -2.5346  0.5566
 4601SOL     OW18487   7.121   8.542   5.033  0.1246  0.1348 -0.3867
 4601SOL    HW118488   7.134   8.549   4.938 -1.1300 -0.8613 -0.6602
 4601SOL    HW218489   7.028   8.562   5.046 -0.0441 -1.0856  0.4509
 4602SOL     OW18490   6.062   5.722   0.892 -0.2641  0.3135  0.4263
 4602SOL    HW118491   5.992   5.788   0.890 -1.1293 -0.5755  0.4336
 4602SOL    HW218492   6.134   5.765   0.939 -0.9075  1.1476  0.6890
 4603SOL     OW18493  10.356   7.192   5.386  0.4327  0.2823 -0.1327
 4603SOL    HW118494  10.337   7.155   5.300  0.2949 -0.1471  0.0801
 4603SOL    HW218495  10.280   7.169   5.440 -0.2030  1.8762 -0.2879
 4604SOL     OW18496   2.061   1.642   6.024 -0.6297 -0.0862  0.1279
 4604SOL    HW118497   2.144   1.645   6.071 -0.2691 -1.3367 -0.4021
 4604SOL    HW218498   2.055   1.728   5.981  0.2280  0.1305  0.4182
 4605SOL     OW18499  10.507  11.003   9.011 -0.6250  0.3211  0.3967
 4605SOL    HW118500  10.463  11.019   9.094 -0.0333  1.1381  0.5645
 4605SOL    HW218501  10.561  11.080   8.997 -0.0740 -0.1814 -0.3338
 4606SOL     OW18502  11.220   4.386   4.401 -0.3007 -0.0533  0.2565
 4606SOL    HW118503  11.211   4.294   4.427  1.8549 -0.5611 -0.5681
 4606SOL    HW218504  11.251   4.430   4.480  0.4513 -0.4377  0.1938
 4607SOL     OW18505  11.554   1.492   9.447 -0.3449 -0.4396  0.6770
 4607SOL    HW118506  11.572   1.504   9.541 -0.5691 -0.8633  0.7771
 4607SOL    HW218507  11.582   1.402   9.429  1.0779  0.1156 -0.0023
 4608SOL     OW18508   2.291   7.580   8.592  0.2359 -0.1780  0.1389
 4608SOL    HW118509   2.228   7.512   8.616 -0.5061  0.1469 -0.8037
 4608SOL    HW218510   2.356   7.579   8.663 -0.8212 -0.5241  1.1356
 4609SOL     OW18511   5.438   3.042   9.673  0.5366  0.4974 -0.0135
 4609SOL    HW118512   5.503   3.047   9.603  0.9582 -3.4838 -0.1532
 4609SOL    HW218513   5.488   3.045   9.754  0.7149 -0.6537 -0.0718
 4610SOL     OW18514   4.290  11.275   9.894 -0.0537  0.7606 -0.1932
 4610SOL    HW118515   4.381  11.273   9.923 -0.2395  0.9943  0.4288
 4610SOL    HW218516   4.294  11.276   9.798  0.5930  0.8618 -0.1637
 4611SOL     OW18517   4.482   3.205   0.741 -0.2632 -0.3139  0.1168
 4611SOL    HW118518   4.506   3.258   0.817 -3.2682  2.0558 -0.4165
 4611SOL    HW218519   4.387   3.199   0.745 -0.3315 -2.2493 -2.1752
 4612SOL     OW18520   7.838   5.938   1.415 -0.5354  0.3620 -0.3334
 4612SOL    HW118521   7.800   5.870   1.472 -1.6920 -0.0863 -1.5813
 4612SOL    HW218522   7.880   5.999   1.476  2.4540 -2.4947  0.7828
 4613SOL     OW18523  11.681   8.123   8.755 -0.5257  0.8375  0.5930
 4613SOL    HW118524  11.611   8.175   8.795 -0.6668  2.3067 -1.4097
 4613SOL    HW218525  11.726   8.184   8.697  1.0352 -0.6448  0.1590
 4614SOL     OW18526   7.096   6.092   2.417 -0.2878 -1.0999 -0.0183
 4614SOL    HW118527   7.145   6.030   2.471  0.0861 -0.3665  0.5058
 4614SOL    HW218528   7.078   6.045   2.336  0.3294 -1.7563  0.2184
 4615SOL     OW18529  10.491   8.465   2.116  0.3010  0.6820 -0.4156
 4615SOL    HW118530  10.468   8.541   2.170  0.0640  0.8574 -0.7575
 4615SOL    HW218531  10.555   8.417   2.168  0.1687  0.9157 -0.0327
 4616SOL     OW18532   0.958   7.509  10.199  0.2965  0.2034  0.1456
 4616SOL    HW118533   0.970   7.590  10.150  0.3357 -0.5918 -1.1818
 4616SOL    HW218534   0.903   7.535  10.274  1.3333  1.6902  0.4310
 4617SOL     OW18535   9.521  11.328   9.226 -0.2206  0.2255  0.1275
 4617SOL    HW118536   9.610  11.307   9.196  0.0461  1.2362  0.1935
 4617SOL    HW218537   9.493  11.249   9.273 -0.1655 -0.9194 -1.6499
 4618SOL     OW18538  11.458   7.571   6.711 -0.6565  0.3363  0.1692
 4618SOL    HW118539  11.440   7.662   6.735  1.7277  0.5721  1.4294
 4618SOL    HW218540  11.404   7.519   6.770  0.6745  0.9848  2.0707
 4619SOL     OW18541   8.578   6.340   8.839 -0.3378 -0.2128  0.0842
 4619SOL    HW118542   8.510   6.296   8.890 -1.6631 -0.3911 -1.7257
 4619SOL    HW218543   8.573   6.431   8.866 -1.8581 -0.0814 -0.5301
 4620SOL     OW18544   8.638   1.869   2.945  0.0546  0.6265 -0.4675
 4620SOL    HW118545   8.701   1.826   3.003 -2.2419  0.3370  2.0246
 4620SOL    HW218546   8.577   1.799   2.921 -0.9558  1.4710 -0.3924
 4621SOL     OW18547   9.283   5.878   9.950  0.1083  0.2586 -0.0057
 4621SOL    HW118548   9.294   5.909   9.860 -0.9415  1.8149  0.3649
 4621SOL    HW218549   9.220   5.806   9.942  0.6498 -0.1598 -0.5989
 4622SOL     OW18550   3.065   8.797   8.119  0.5173 -0.8406  0.1805
 4622SOL    HW118551   3.151   8.791   8.162 -0.0869 -1.5987  1.3434
 4622SOL    HW218552   3.019   8.718   8.148 -0.0364 -1.2507 -1.6715
 4623SOL     OW18553  11.833  11.962   4.230 -0.0887 -0.7546 -0.0035
 4623SOL    HW118554  11.825  12.056   4.243 -0.1589 -0.7900  0.2103
 4623SOL    HW218555  11.806  11.924   4.313 -2.6573 -1.0700 -0.8913
 4624SOL     OW18556   4.586   4.488  11.106 -0.1175  0.5346  0.2517
 4624SOL    HW118557   4.646   4.535  11.164 -1.1760  3.0980 -0.5803
 4624SOL    HW218558   4.533   4.557  11.065 -0.5988 -1.2855 -2.4504
 4625SOL     OW18559   2.351   5.053   3.917 -0.2741  0.2131 -0.4668
 4625SOL    HW118560   2.384   5.135   3.952  0.7918 -0.2343 -0.3801
 4625SOL    HW218561   2.355   5.064   3.822  2.3303 -0.6350 -0.5144
 4626SOL     OW18562   1.903   5.980   0.128  0.1681 -0.2940 -0.2944
 4626SOL    HW118563   1.898   5.958   0.035 -0.1265 -1.8831  0.0668
 4626SOL    HW218564   1.995   5.964   0.152  0.5160  1.2115 -0.5456
 4627SOL     OW18565  10.669   8.988   9.773  0.1784  0.0453  0.5994
 4627SOL    HW118566  10.643   9.066   9.821  1.6282  0.3540  0.9185
 4627SOL    HW218567  10.610   8.986   9.697 -1.2273  0.3000  1.6482
 4628SOL     OW18568   6.773  10.544   3.847  0.2994 -0.6117 -0.5516
 4628SOL    HW118569   6.709  10.483   3.811  0.0407 -1.3549  1.0936
 4628SOL    HW218570   6.726  10.628   3.851 -0.4320 -1.0382  0.1717
 4629SOL     OW18571   7.693   1.984   3.528 -0.4129  0.3945  0.2814
 4629SOL    HW118572   7.654   1.990   3.441 -0.8530  1.3773  0.5315
 4629SOL    HW218573   7.624   2.013   3.588 -0.3169 -0.8373  1.0222
 4630SOL     OW18574   2.009   9.558  10.941  0.0030  0.4481 -0.4584
 4630SOL    HW118575   1.993   9.594  11.028 -0.1484  0.7538 -0.6100
 4630SOL    HW218576   2.104   9.561  10.931  0.2177 -1.5690  0.5270
 4631SOL     OW18577   3.231   3.344   1.646 -0.3323  0.1021  0.5257
 4631SOL    HW118578   3.258   3.340   1.738  0.9832 -0.4315  0.1364
 4631SOL    HW218579   3.227   3.252   1.619  2.1424  0.2783 -0.7109
 4632SOL     OW18580   5.347   6.778   7.023 -0.7139 -0.0750 -0.5834
 4632SOL    HW118581   5.375   6.815   6.940  0.6938  2.3836  0.8639
 4632SOL    HW218582   5.417   6.716   7.047  0.1796  1.0625 -0.1323
 4633SOL     OW18583   8.636   2.262   5.207  0.1380  0.1039 -0.2505
 4633SOL    HW118584   8.732   2.254   5.208  0.1984  0.8199 -0.1899
 4633SOL    HW218585   8.619   2.333   5.145 -0.4843 -1.7395 -2.3253
 4634SOL     OW18586   9.959   9.997   6.434  0.3243  0.0568 -0.0375
 4634SOL    HW118587  10.013  10.046   6.497  0.4044  0.0625 -0.1094
 4634SOL    HW218588   9.929  10.064   6.372  1.3488 -0.1411 -0.7888
 4635SOL     OW18589  11.092   2.336   9.545  0.6609  0.4248  0.3510
 4635SOL    HW118590  11.049   2.279   9.482  2.8541 -0.3611 -0.5346
 4635SOL    HW218591  11.129   2.407   9.492 -1.8906  2.7471  1.4123
 4636SOL     OW18592   2.968  10.347   5.982 -0.2864  0.3707 -0.8730
 4636SOL    HW118593   2.945  10.275   6.042  0.8814 -0.4000 -1.3062
 4636SOL    HW218594   2.919  10.328   5.902 -0.2309  0.2186 -0.8727
 4637SOL     OW18595   3.547   7.805  10.559  0.3612  0.2274  0.6896
 4637SOL    HW118596   3.609   7.844  10.497  0.7966 -0.8672  0.4059
 4637SOL    HW218597   3.481   7.872  10.572  2.0724  1.8016  1.7127
 4638SOL     OW18598  10.531   7.113   8.424 -0.8977 -0.3476  0.2917
 4638SOL    HW118599  10.566   7.078   8.507  2.8937 -0.8071 -1.2777
 4638SOL    HW218600  10.488   7.195   8.448  1.0265  0.0856  2.6516
 4639SOL     OW18601  11.040  11.573   9.578 -0.3289 -0.3960  0.0705
 4639SOL    HW118602  11.064  11.624   9.500  2.0573 -0.6562  0.5715
 4639SOL    HW218603  10.962  11.618   9.612  0.9645  2.2727 -0.1707
 4640SOL     OW18604   2.473  11.930   1.040  0.0925 -0.7424  0.3772
 4640SOL    HW118605   2.489  11.950   1.132 -0.7981  0.8419  0.2330
 4640SOL    HW218606   2.559  11.942   0.998  0.0211  1.0778  0.6396
 4641SOL     OW18607   2.013   2.034   8.786 -0.0474  0.0978  0.2740
 4641SOL    HW118608   1.919   2.040   8.768 -0.1900 -2.0581  0.0010
 4641SOL    HW218609   2.055   2.076   8.711 -0.7835  0.1030 -0.1383
 4642SOL     OW18610   8.768  10.546   6.073  0.1206 -0.4385  0.0597
 4642SOL    HW118611   8.776  10.612   6.142 -0.5305 -0.8602  0.5466
 4642SOL    HW218612   8.682  10.562   6.034 -0.5963 -1.7832  1.0221
 4643SOL     OW18613   7.308  11.567  11.849  0.2302 -0.3078  0.2222
 4643SOL    HW118614   7.343  11.478  11.853  1.1484 -0.0394 -1.0003
 4643SOL    HW218615   7.381  11.623  11.874  0.3337  0.1977 -1.1110
 4644SOL     OW18616   5.352   7.187   1.975  0.0094  0.5262 -0.2384
 4644SOL    HW118617   5.345   7.147   1.888  0.5561 -1.8407  0.7423
 4644SOL    HW218618   5.346   7.114   2.036  0.3412  2.0524  1.7262
 4645SOL     OW18619   9.754   3.576   8.372  0.0035  0.1221  0.2969
 4645SOL    HW118620   9.796   3.540   8.451  1.1408 -1.0867 -0.8110
 4645SOL    HW218621   9.775   3.513   8.303 -1.3093  0.9500 -0.9048
 4646SOL     OW18622   4.002   8.759   7.002 -0.3350  0.4283  0.1053
 4646SOL    HW118623   4.014   8.853   7.011 -0.0092  0.5833 -1.6929
 4646SOL    HW218624   3.915   8.749   6.963 -1.7406 -0.2189  3.0816
 4647SOL     OW18625   7.867   8.686   0.269 -0.1130  0.2589 -0.1727
 4647SOL    HW118626   7.935   8.641   0.319 -0.1717 -0.5090 -0.7592
 4647SOL    HW218627   7.785   8.647   0.298 -0.2431  0.6445 -0.0180
 4648SOL     OW18628   3.214   2.500   1.019 -0.0142  0.4545 -0.6528
 4648SOL    HW118629   3.266   2.577   0.995 -1.6498  1.2451 -1.8472
 4648SOL    HW218630   3.254   2.428   0.971 -0.5999  1.2328 -2.3705
 4649SOL     OW18631   6.357   4.401   1.873 -0.5682 -0.2295 -0.1890
 4649SOL    HW118632   6.329   4.480   1.826 -1.8083  0.0199  0.9290
 4649SOL    HW218633   6.441   4.426   1.913  0.0441 -0.1486 -1.4638
 4650SOL     OW18634   3.144   0.811   0.759  0.3396 -0.0474  0.0744
 4650SOL    HW118635   3.073   0.831   0.698  0.8872  0.1348 -0.5083
 4650SOL    HW218636   3.108   0.743   0.816  0.0113 -0.6121 -0.7986
 4651SOL     OW18637   1.839   4.866   4.876  0.4805  0.4596 -1.0572
 4651SOL    HW118638   1.880   4.952   4.888  0.3610  0.3297  0.4115
 4651SOL    HW218639   1.802   4.845   4.961  1.1206 -1.3672 -1.1909
 4652SOL     OW18640   4.759  10.371   3.772  0.3927  0.4647 -0.1916
 4652SOL    HW118641   4.806  10.288   3.775 -0.1114  0.2007  1.1091
 4652SOL    HW218642   4.825  10.437   3.795  0.5895  0.3227 -0.3500
 4653SOL     OW18643  11.676   7.832   6.737  0.7399 -0.2537  0.0548
 4653SOL    HW118644  11.637   7.834   6.824  0.8666 -0.2350  0.1110
 4653SOL    HW218645  11.759   7.787   6.748  0.8371 -0.0975 -0.0232
 4654SOL     OW18646   9.682   0.940  10.094  0.6001  0.3264 -0.0495
 4654SOL    HW118647   9.625   0.986  10.032 -0.4044  0.2211  0.7681
 4654SOL    HW218648   9.724   0.872  10.041  0.8363  1.1130 -0.9079
 4655SOL     OW18649   1.011   0.325   0.428  0.1723 -0.2555  0.1786
 4655SOL    HW118650   1.004   0.293   0.518  0.7766 -0.3335  0.2041
 4655SOL    HW218651   0.933   0.378   0.415 -0.3433 -0.9293  0.4697
 4656SOL     OW18652  11.906   7.757  10.062 -0.0662 -0.8603  0.5501
 4656SOL    HW118653  11.835   7.698  10.036 -0.0755 -1.5882  2.0852
 4656SOL    HW218654  11.985   7.708  10.043 -0.0031 -0.5436 -0.0233
 4657SOL     OW18655   6.607   3.061   5.209  0.3677  0.2808 -0.2329
 4657SOL    HW118656   6.654   3.091   5.287  0.2850 -0.2438  0.0204
 4657SOL    HW218657   6.530   3.016   5.243 -0.3903  1.2337 -0.6450
 4658SOL     OW18658   9.231   5.990   7.226  0.0884  0.4879 -0.2078
 4658SOL    HW118659   9.207   5.933   7.299  3.5377 -0.6762  0.2199
 4658SOL    HW218660   9.220   6.079   7.259 -0.3822 -0.0033  0.9850
 4659SOL     OW18661  11.862   5.716   6.793  0.1836  0.2423 -0.2876
 4659SOL    HW118662  11.820   5.638   6.831 -0.5352  0.0509 -1.4315
 4659SOL    HW218663  11.846   5.709   6.699  0.2813  1.6836 -0.4353
 4660SOL     OW18664   2.776   7.887   0.583  0.5465  0.5657 -0.2008
 4660SOL    HW118665   2.858   7.928   0.612  1.6690 -0.7812 -1.3427
 4660SOL    HW218666   2.796   7.851   0.497 -1.2079  0.0385 -0.4268
 4661SOL     OW18667   2.679  10.421   8.851 -0.7380 -0.4211 -0.0883
 4661SOL    HW118668   2.678  10.457   8.940 -0.5824  0.6171 -0.4821
 4661SOL    HW218669   2.714  10.333   8.860 -0.7923 -0.3447  0.8891
 4662SOL     OW18670  11.837   0.534  11.996 -0.0825  0.3467 -0.9088
 4662SOL    HW118671  11.744   0.554  12.008 -0.0499 -0.6783  1.8690
 4662SOL    HW218672  11.841   0.438  11.997  1.0723  0.3890 -0.2644
 4663SOL     OW18673   1.629   8.522   2.073 -0.3269  0.2699  0.1568
 4663SOL    HW118674   1.682   8.469   2.132 -1.6085 -0.9695  0.2344
 4663SOL    HW218675   1.539   8.500   2.096 -0.8575  0.7863 -1.3531
 4664SOL     OW18676   0.685   7.976   0.528 -0.1398 -0.1707  0.3408
 4664SOL    HW118677   0.739   8.054   0.518 -1.3570  1.1166  2.9597
 4664SOL    HW218678   0.621   7.981   0.458  2.3116 -1.1795 -2.1758
 4665SOL     OW18679   6.391   2.299   1.642  0.1116 -0.4409  0.0556
 4665SOL    HW118680   6.341   2.322   1.720  0.0302 -0.0532 -0.1032
 4665SOL    HW218681   6.430   2.382   1.614 -1.4948 -0.1133 -1.4636
 4666SOL     OW18682   1.119   2.991   9.717 -0.9755 -0.0956 -0.4003
 4666SOL    HW118683   1.046   3.052   9.703 -0.5476  0.4242 -0.4034
 4666SOL    HW218684   1.197   3.047   9.717 -0.6807 -0.4791  0.9089
 4667SOL     OW18685   4.550   5.798   3.993  0.1171  0.0512 -0.0381
 4667SOL    HW118686   4.573   5.849   4.071  0.1421 -0.6277  0.4049
 4667SOL    HW218687   4.630   5.752   3.970  0.0840  0.1786 -0.4164
 4668SOL     OW18688  10.987   2.685   6.170 -0.2733 -0.2292 -0.7091
 4668SOL    HW118689  10.951   2.678   6.258 -1.4483 -2.9939 -1.2855
 4668SOL    HW218690  10.911   2.680   6.112  0.5846 -0.1146 -1.8968
 4669SOL     OW18691   5.216   1.763   2.393  0.4050  0.1334  0.0272
 4669SOL    HW118692   5.250   1.688   2.440  0.5490  1.2271  1.7483
 4669SOL    HW218693   5.145   1.728   2.339  1.8514 -1.5614 -0.8730
 4670SOL     OW18694   3.318   8.031   2.648 -0.1258 -0.1760 -0.8225
 4670SOL    HW118695   3.378   8.073   2.709 -0.2932 -0.6113 -0.3488
 4670SOL    HW218696   3.255   8.099   2.625 -0.7992 -0.3356  0.4699
 4671SOL     OW18697   2.506   4.689   3.120  0.2024 -0.5099  0.5067
 4671SOL    HW118698   2.520   4.595   3.109 -0.9457 -0.6768  0.3737
 4671SOL    HW218699   2.464   4.716   3.038  0.1855  0.0507  0.6979
 4672SOL     OW18700   2.946  10.190   8.509 -0.3940  0.2206 -0.2719
 4672SOL    HW118701   3.022  10.132   8.513 -0.1275  0.5036 -1.0119
 4672SOL    HW218702   2.967  10.260   8.571 -0.2245  0.1017 -0.1914
 4673SOL     OW18703  10.908   2.191   2.657  0.2583  0.4753 -0.2027
 4673SOL    HW118704  10.944   2.239   2.731  0.9085  0.2894 -0.3925
 4673SOL    HW218705  10.978   2.191   2.592  0.0016 -0.1022 -0.4856
 4674SOL     OW18706   1.887   9.422   7.086  0.1169  0.1309 -0.4501
 4674SOL    HW118707   1.923   9.335   7.069  1.2891  0.1932  1.3865
 4674SOL    HW218708   1.795   9.416   7.059  0.0289 -1.8564  0.1407
 4675SOL     OW18709   1.559   9.655   9.085  0.2365 -0.2191  0.0815
 4675SOL    HW118710   1.499   9.624   9.018 -0.9933 -0.4474  1.2501
 4675SOL    HW218711   1.512   9.726   9.128  1.5386  0.8288 -0.1384
 4676SOL     OW18712  11.897   2.682   8.824  0.1503  0.1776  0.2002
 4676SOL    HW118713  11.961   2.721   8.765 -0.9005  0.6868 -0.6422
 4676SOL    HW218714  11.943   2.673   8.908  2.0631 -1.6816 -0.9803
 4677SOL     OW18715  11.872  11.390   9.361 -0.3121  0.2835  0.0951
 4677SOL    HW118716  11.897  11.442   9.284  1.2436  0.4026  0.6312
 4677SOL    HW218717  11.909  11.439   9.435 -1.4519 -0.0309  0.8973
 4678SOL     OW18718   0.659   3.033   0.941  0.2673  0.1647  0.1758
 4678SOL    HW118719   0.640   2.939   0.931 -0.2011  0.4373 -1.8707
 4678SOL    HW218720   0.744   3.045   0.898  1.3026  0.3830  2.1599
 4679SOL     OW18721   4.053   3.985   5.790  0.0012 -0.1708  0.4848
 4679SOL    HW118722   4.081   3.938   5.869 -0.3273 -0.0786  0.6584
 4679SOL    HW218723   4.100   3.942   5.719  0.3405 -0.2242  0.7354
 4680SOL     OW18724   0.870   2.195  10.964  0.7297 -0.5312 -0.3322
 4680SOL    HW118725   0.822   2.114  10.945  1.0894 -0.9243  0.3987
 4680SOL    HW218726   0.928   2.206  10.889 -0.5992  0.0466 -1.3224
 4681SOL     OW18727  10.095   2.640   7.199 -0.0835 -0.1086 -0.9786
 4681SOL    HW118728  10.095   2.558   7.247  0.2460 -0.9531 -2.3664
 4681SOL    HW218729  10.183   2.676   7.213 -0.5180  0.4970  0.3750
 4682SOL     OW18730   8.350   9.549   8.517  0.4872 -0.2915 -0.1006
 4682SOL    HW118731   8.369   9.520   8.428  0.5744 -0.4240 -0.0387
 4682SOL    HW218732   8.430   9.532   8.566  0.0846 -1.2559  0.2607
 4683SOL     OW18733   7.982   5.224   6.452  0.4402  0.8070 -0.3520
 4683SOL    HW118734   8.073   5.221   6.422  0.0317  1.8630 -1.7723
 4683SOL    HW218735   7.981   5.295   6.516  0.7879  0.1887  0.3572
 4684SOL     OW18736   7.654   7.344   2.202 -0.1757  0.1648  0.3031
 4684SOL    HW118737   7.749   7.348   2.191 -0.1171  0.6734  0.9036
 4684SOL    HW218738   7.630   7.432   2.233 -0.7492 -0.1527  0.7990
 4685SOL     OW18739   1.604  11.423   6.229  0.0534 -0.0425  0.1273
 4685SOL    HW118740   1.681  11.433   6.284 -0.1247  0.9889  0.2154
 4685SOL    HW218741   1.582  11.330   6.234 -0.0731  0.0493  1.9569
 4686SOL     OW18742   8.046  11.931   7.310  0.4395  0.1521 -0.1086
 4686SOL    HW118743   8.053  11.965   7.221 -1.1221  0.7705 -0.0266
 4686SOL    HW218744   7.954  11.906   7.319  0.6339 -0.1792  1.2346
 4687SOL     OW18745   2.342   4.835   3.281  0.5374 -0.2012 -0.1665
 4687SOL    HW118746   2.403   4.789   3.224  0.9254  1.5046 -1.2139
 4687SOL    HW218747   2.398   4.876   3.347  0.4291  0.4605 -0.4770
 4688SOL     OW18748   2.161   7.669   2.847  0.0793  0.4394  0.5692
 4688SOL    HW118749   2.142   7.763   2.848 -0.8075  0.2766 -0.3225
 4688SOL    HW218750   2.127   7.637   2.930  1.3535  1.0653  1.3811
 4689SOL     OW18751   0.889   6.679   6.530 -0.3310 -0.1148 -0.2121
 4689SOL    HW118752   0.809   6.641   6.568  0.3845 -0.1739  1.2715
 4689SOL    HW218753   0.948   6.692   6.604  2.0865 -2.5132 -1.5338
 4690SOL     OW18754   0.352   0.763   6.065  0.1791 -0.2968  0.3055
 4690SOL    HW118755   0.409   0.690   6.088 -0.1624 -1.4239 -2.0300
 4690SOL    HW218756   0.271   0.747   6.113  1.0153  0.0497  1.8651
 4691SOL     OW18757   6.654   2.373   4.586 -0.0742  0.1983 -0.1296
 4691SOL    HW118758   6.615   2.459   4.603  0.6734  0.4951  0.1149
 4691SOL    HW218759   6.700   2.351   4.666 -3.1158 -2.0675  1.2064
 4692SOL     OW18760   9.554   3.312   2.141  0.3671  0.4508 -0.3040
 4692SOL    HW118761   9.633   3.274   2.104 -0.6585 -1.8062 -0.3299
 4692SOL    HW218762   9.491   3.314   2.069 -0.7492 -1.3598  0.5298
 4693SOL     OW18763   1.442   9.352   5.572  0.4049 -0.0716  0.1142
 4693SOL    HW118764   1.423   9.446   5.568  0.4902  0.0007  1.2667
 4693SOL    HW218765   1.492   9.340   5.653  0.1103 -1.1595  0.1548
 4694SOL     OW18766   6.620  10.403  11.499 -0.0126 -0.4773  0.6033
 4694SOL    HW118767   6.669  10.480  11.471  0.0945 -0.7322  0.0644
 4694SOL    HW218768   6.567  10.379  11.422  1.1140 -1.8558  0.2172
 4695SOL     OW18769   1.930   7.071  10.821 -0.1563  0.0486  0.2590
 4695SOL    HW118770   2.000   7.097  10.761  2.0686  0.0636  2.7043
 4695SOL    HW218771   1.894   6.991  10.781 -1.2359  1.8704 -2.8264
 4696SOL     OW18772   9.891   4.487   3.874  0.1967  0.1919  0.3501
 4696SOL    HW118773   9.973   4.460   3.914  0.6018  1.5040  0.4490
 4696SOL    HW218774   9.829   4.418   3.898  0.9071 -0.0603  1.5562
 4697SOL     OW18775   0.629   4.136   1.340 -0.2753  0.4050 -0.0946
 4697SOL    HW118776   0.555   4.092   1.383 -0.9028  0.7158 -0.8305
 4697SOL    HW218777   0.686   4.164   1.412 -0.2489 -0.9107  0.4295
 4698SOL     OW18778   6.438   6.715  10.903  0.2890 -0.1221  0.1102
 4698SOL    HW118779   6.500   6.729  10.831 -0.5603  0.3778 -0.5524
 4698SOL    HW218780   6.352   6.713  10.860 -0.0925 -2.1249  0.8219
 4699SOL     OW18781   0.113   8.634   3.536 -0.2322  0.2476 -0.1177
 4699SOL    HW118782   0.071   8.628   3.450  1.1350  0.5267 -0.8451
 4699SOL    HW218783   0.095   8.723   3.565  2.8464  1.7301 -2.1488
 4700SOL     OW18784   6.698   0.202   8.581 -0.2115  0.0279  0.7746
 4700SOL    HW118785   6.768   0.205   8.645 -0.9447  0.1906  1.5921
 4700SOL    HW218786   6.686   0.108   8.562  0.7807  0.0484 -0.0173
 4701SOL     OW18787   2.715   4.881   1.175  0.1191 -0.0230 -0.5590
 4701SOL    HW118788   2.750   4.860   1.261 -1.4971 -1.1059 -0.1267
 4701SOL    HW218789   2.731   4.804   1.122 -0.4754 -0.0567 -0.7032
 4702SOL     OW18790   2.860   5.491   8.868  0.0815  1.0412 -0.3659
 4702SOL    HW118791   2.800   5.416   8.869 -0.3133  1.2766 -2.2760
 4702SOL    HW218792   2.947   5.451   8.872 -0.0808  0.3469 -2.4897
 4703SOL     OW18793   7.919   1.235   8.214 -0.0571  0.4247  0.1117
 4703SOL    HW118794   7.860   1.245   8.139 -0.5890 -0.9313  0.3176
 4703SOL    HW218795   7.860   1.226   8.289  0.4618  2.6056  0.8767
 4704SOL     OW18796   3.275  11.868  11.796 -0.0666  0.1563  0.4690
 4704SOL    HW118797   3.340  11.905  11.737  0.0521 -0.4615  0.1962
 4704SOL    HW218798   3.283  11.773  11.784 -0.7710  0.0580  0.6872
 4705SOL     OW18799   1.619   9.598   9.719  0.1744  0.1219 -0.1829
 4705SOL    HW118800   1.657   9.663   9.778  0.1942 -0.1392  0.0934
 4705SOL    HW218801   1.571   9.538   9.776  0.6865 -0.4768 -0.3697
 4706SOL     OW18802   7.600   7.797  11.614 -0.1056  0.7111  0.4304
 4706SOL    HW118803   7.552   7.731  11.564 -2.4788  1.8552  1.0473
 4706SOL    HW218804   7.665   7.746  11.664 -2.1227 -1.2712  1.2193
 4707SOL     OW18805   8.391   3.087   1.896  0.8297  0.4674 -0.1311
 4707SOL    HW118806   8.466   3.055   1.946  1.1092 -0.0211 -0.8583
 4707SOL    HW218807   8.423   3.166   1.853  0.5485  0.9653  0.5433
 4708SOL     OW18808  10.986   7.735   0.156 -0.0959 -0.1572 -0.6317
 4708SOL    HW118809  11.009   7.679   0.082 -2.2831 -0.0059 -1.4787
 4708SOL    HW218810  11.000   7.824   0.124  2.8146 -0.0909  0.5246
 4709SOL     OW18811   9.884   1.601   8.864  0.2646  0.2967 -0.2789
 4709SOL    HW118812   9.882   1.666   8.934 -2.5365 -2.0952  2.1450
 4709SOL    HW218813   9.831   1.639   8.793 -0.6688  1.0140  0.7738
 4710SOL     OW18814   3.757   8.752   3.677 -0.5210  0.1475  0.0032
 4710SOL    HW118815   3.778   8.671   3.630  1.1352  0.4584  0.1456
 4710SOL    HW218816   3.663   8.763   3.663 -0.7665 -1.7095 -0.1461
 4711SOL     OW18817   4.882   5.972   0.943 -0.3342  0.5666  0.5352
 4711SOL    HW118818   4.942   5.941   0.876 -2.5848  0.6722 -1.6588
 4711SOL    HW218819   4.935   6.031   0.997  1.7820 -0.2383 -0.5671
 4712SOL     OW18820   8.658   2.058   9.688 -0.3057 -0.3742 -0.1947
 4712SOL    HW118821   8.655   2.005   9.609 -2.0961 -2.0343  0.9080
 4712SOL    HW218822   8.671   1.996   9.759 -0.0550  0.9336  0.9516
 4713SOL     OW18823   7.818   9.611   4.821  0.0399  0.3381 -0.3123
 4713SOL    HW118824   7.898   9.589   4.773 -0.4193 -1.1410 -0.4671
 4713SOL    HW218825   7.772   9.673   4.764  0.0083 -0.5779 -1.3264
 4714SOL     OW18826   0.949   1.916   4.063  0.4982 -0.2994  0.3232
 4714SOL    HW118827   0.920   1.986   4.004  0.6573 -0.2700  0.2804
 4714SOL    HW218828   0.870   1.890   4.111 -0.0457 -1.5938 -1.1993
 4715SOL     OW18829   8.198  10.830   7.355 -0.1810  0.2320 -0.0208
 4715SOL    HW118830   8.206  10.874   7.270 -0.6945  1.9711  0.7861
 4715SOL    HW218831   8.113  10.787   7.352 -0.0889  0.0706 -0.4702
 4716SOL     OW18832   5.604   0.409   9.055 -0.1229 -0.0233 -0.1139
 4716SOL    HW118833   5.585   0.462   8.978 -0.6580  1.2305  0.8410
 4716SOL    HW218834   5.626   0.323   9.020  0.1688  0.6520 -1.6847
 4717SOL     OW18835   4.621   7.030   2.788  0.0993 -0.5437 -0.3745
 4717SOL    HW118836   4.612   7.043   2.883  0.3893  0.6047 -0.4942
 4717SOL    HW218837   4.715   7.029   2.772  0.0969  2.3756 -1.0158
 4718SOL     OW18838   0.380   0.624   5.670  0.2837 -0.0831 -0.5012
 4718SOL    HW118839   0.459   0.641   5.617  1.2741  1.2208  1.2895
 4718SOL    HW218840   0.322   0.576   5.611  0.1824  3.5006 -3.7759
 4719SOL     OW18841   8.842   5.455   6.051 -0.2111  0.0950 -0.0697
 4719SOL    HW118842   8.875   5.415   6.132  0.3368 -2.1175 -1.3000
 4719SOL    HW218843   8.823   5.545   6.075 -0.9722 -0.7129  2.7760
 4720SOL     OW18844   9.394   4.151   9.654  0.1857 -0.1245  0.2904
 4720SOL    HW118845   9.304   4.132   9.681  0.1516 -0.2346  0.1047
 4720SOL    HW218846   9.437   4.065   9.653  0.1147 -0.1597 -0.2559
 4721SOL     OW18847   4.156   9.114   0.268  0.4090 -0.1461  0.0347
 4721SOL    HW118848   4.074   9.099   0.220  0.8669  0.5958 -1.0191
 4721SOL    HW218849   4.216   9.048   0.232 -0.0405 -1.5353  1.7011
 4722SOL     OW18850   1.965   5.693   0.231  0.2728 -0.0296  0.3522
 4722SOL    HW118851   1.898   5.757   0.205  0.6609 -0.3125 -1.4743
 4722SOL    HW218852   1.917   5.627   0.281 -0.2901  1.2063  1.4960
 4723SOL     OW18853   2.980   7.466   4.324  0.4027 -0.2523  0.5019
 4723SOL    HW118854   2.951   7.400   4.260  0.3557 -0.6955  0.9681
 4723SOL    HW218855   2.989   7.546   4.274  0.1196 -0.5371 -0.0132
 4724SOL     OW18856   4.214   6.433   5.090  0.3136 -0.1417  0.5256
 4724SOL    HW118857   4.298   6.479   5.084  0.3352 -0.2257  0.1856
 4724SOL    HW218858   4.168   6.456   5.010  0.9231 -1.8886 -0.3917
 4725SOL     OW18859   8.095   1.374  10.060 -0.0956 -0.3506  0.3205
 4725SOL    HW118860   8.152   1.303  10.090  0.2031 -0.7566 -1.1034
 4725SOL    HW218861   8.009   1.353  10.097  0.2976 -0.6613  1.0871
 4726SOL     OW18862   0.220  10.370   9.717 -0.0892  0.0810 -0.4530
 4726SOL    HW118863   0.290  10.353   9.779 -0.4125 -1.0607 -0.3772
 4726SOL    HW218864   0.140  10.363   9.769 -0.2988  0.7475 -0.6703
 4727SOL     OW18865   7.435   3.843   1.643 -0.5384 -0.0360 -0.2207
 4727SOL    HW118866   7.392   3.762   1.672  0.2598 -0.4759 -0.2330
 4727SOL    HW218867   7.467   3.884   1.723 -1.9675  0.8930 -0.0890
 4728SOL     OW18868   0.787   1.052   6.071  0.3296 -0.2270  0.4433
 4728SOL    HW118869   0.724   1.000   6.122  0.8676 -0.9653  0.3685
 4728SOL    HW218870   0.807   0.996   5.995  1.1053 -0.0109  0.4884
 4729SOL     OW18871   6.791   4.834   8.996  0.6542  0.3107  0.2062
 4729SOL    HW118872   6.767   4.743   8.978  0.6721  0.6229 -1.6521
 4729SOL    HW218873   6.857   4.829   9.066  0.4040 -1.0684  0.3567
 4730SOL     OW18874   3.358   8.988   9.794  0.0181  0.6145  0.2655
 4730SOL    HW118875   3.299   9.055   9.759  0.3824  0.5077 -0.5763
 4730SOL    HW218876   3.357   9.002   9.889 -1.6135  0.4151  0.3166
 4731SOL     OW18877  10.194   1.862   1.504 -0.1305  0.1225 -0.0745
 4731SOL    HW118878  10.120   1.883   1.447 -0.8564  0.2189  0.8760
 4731SOL    HW218879  10.162   1.882   1.593  0.6112 -0.9868  0.4628
 4732SOL     OW18880   0.504  11.214   7.520  0.2004 -0.1178 -0.1189
 4732SOL    HW118881   0.497  11.296   7.568  0.5157 -0.0547 -0.1763
 4732SOL    HW218882   0.451  11.228   7.441  1.6028  0.6656 -0.9761
 4733SOL     OW18883  11.736   4.318   3.046  0.0384 -0.5137 -0.2058
 4733SOL    HW118884  11.687   4.341   3.125 -1.7206  0.2652 -1.4482
 4733SOL    HW218885  11.777   4.400   3.018  0.2495 -0.6705 -0.3597
 4734SOL     OW18886   0.669   0.051   5.346 -0.3954  0.2550 -0.4417
 4734SOL    HW118887   0.729   0.054   5.271 -1.3380  2.0620 -1.1872
 4734SOL    HW218888   0.714   0.100   5.414 -1.1459  2.0073 -1.1502
 4735SOL     OW18889   2.136   2.519   6.074  0.0586  0.0587 -0.5726
 4735SOL    HW118890   2.121   2.528   5.980 -0.4103  1.5356 -0.3831
 4735SOL    HW218891   2.056   2.478   6.107 -1.2797  2.6180 -0.3908
 4736SOL     OW18892  10.267   5.717   9.305  0.1413  0.5130  0.8952
 4736SOL    HW118893  10.180   5.682   9.286  0.9856 -2.6321  2.1380
 4736SOL    HW218894  10.326   5.665   9.250  1.4353  0.6489  2.0971
 4737SOL     OW18895   9.404   9.107  10.434 -0.2854  0.2880 -0.5276
 4737SOL    HW118896   9.396   9.200  10.414 -1.8558  0.4865  0.8211
 4737SOL    HW218897   9.315   9.073  10.427  0.3764 -1.3361 -1.8514
 4738SOL     OW18898   7.370   7.741   9.882  0.2221  0.6930 -0.3733
 4738SOL    HW118899   7.330   7.656   9.863  0.3356  0.9510 -1.9395
 4738SOL    HW218900   7.397   7.774   9.796 -0.2976  2.5539  0.1316
 4739SOL     OW18901   2.127   5.987   5.414  0.3088  0.6652  0.0562
 4739SOL    HW118902   2.057   6.001   5.350 -0.7661 -0.6778  0.8728
 4739SOL    HW218903   2.167   5.904   5.388  0.5136  0.6016  0.5619
 4740SOL     OW18904   3.322   5.104   3.276 -0.1883 -0.4181  0.3244
 4740SOL    HW118905   3.283   5.132   3.193  0.3234  0.5631  0.4059
 4740SOL    HW218906   3.309   5.009   3.278  1.1697 -0.6883 -1.6002
 4741SOL     OW18907   6.067   4.482   7.975  0.3078 -0.4109 -0.0956
 4741SOL    HW118908   6.140   4.545   7.973  1.4106 -1.5899  1.2365
 4741SOL    HW218909   5.989   4.537   7.971  0.9955  1.6563  5.5579
 4742SOL     OW18910   6.095   0.262   3.233 -0.4445 -0.2432 -0.2503
 4742SOL    HW118911   6.055   0.322   3.295 -0.7963  0.5621 -1.2383
 4742SOL    HW218912   6.031   0.254   3.162  0.5366 -0.0283 -1.1918
 4743SOL     OW18913   7.529  10.791   2.842 -0.3415 -0.2795 -0.2455
 4743SOL    HW118914   7.610  10.749   2.814 -0.3485  0.1495 -0.9161
 4743SOL    HW218915   7.520  10.868   2.785 -0.4770  0.4788  0.7649
 4744SOL     OW18916   8.827   6.315   1.523  0.6343 -0.1960  0.3274
 4744SOL    HW118917   8.814   6.283   1.612 -1.3938  0.4879  0.3189
 4744SOL    HW218918   8.741   6.348   1.496  1.4903  0.7210 -1.4496
 4745SOL     OW18919   1.053   3.448   8.806  0.7247 -0.4782 -0.0178
 4745SOL    HW118920   1.144   3.435   8.835  1.5392  0.3202 -2.0165
 4745SOL    HW218921   1.040   3.379   8.741  0.8303  0.9727 -1.6359
 4746SOL     OW18922   6.332  10.980   2.600 -0.5668  0.2111 -0.1148
 4746SOL    HW118923   6.261  11.015   2.546  0.2022  0.6008 -0.8924
 4746SOL    HW218924   6.308  11.005   2.689 -1.2970  0.5270 -0.3844
 4747SOL     OW18925   8.657   8.756   7.879 -0.0479  0.5097  0.3390
 4747SOL    HW118926   8.699   8.697   7.817 -0.3506  0.2130  0.4149
 4747SOL    HW218927   8.683   8.723   7.965 -1.1754 -0.2447  0.4129
 4748SOL     OW18928   8.536   9.580   0.928  0.1192 -0.4064  0.6889
 4748SOL    HW118929   8.466   9.645   0.920 -0.8123 -1.2895  1.4711
 4748SOL    HW218930   8.552   9.573   1.022  2.2934  0.8208  0.4837
 4749SOL     OW18931   9.733   5.119   5.936  0.3309  0.1598  0.5502
 4749SOL    HW118932   9.672   5.189   5.912 -0.1310 -0.5682 -0.4882
 4749SOL    HW218933   9.813   5.138   5.886  0.3143  0.1311  0.5127
 4750SOL     OW18934   4.309   8.090   2.035  0.2967 -0.0036  0.7647
 4750SOL    HW118935   4.303   8.068   2.128 -0.4584  0.3433  0.8063
 4750SOL    HW218936   4.242   8.157   2.022  0.1122 -0.3454 -0.1169
 4751SOL     OW18937   1.390   1.935   2.216  0.1123  0.7465  0.1140
 4751SOL    HW118938   1.388   1.983   2.133  0.9870  0.5004 -0.0580
 4751SOL    HW218939   1.476   1.956   2.253  1.9740 -3.1086 -1.4485
 4752SOL     OW18940   3.368  11.802   9.873 -0.2095  0.0738  0.3779
 4752SOL    HW118941   3.392  11.867   9.807  1.2867  0.0877  0.8812
 4752SOL    HW218942   3.334  11.853   9.947 -1.2536  0.1032 -0.1083
 4753SOL     OW18943   8.292   6.526   3.141 -0.3165  0.3465  0.7531
 4753SOL    HW118944   8.317   6.500   3.230 -2.7061  2.6053  2.2236
 4753SOL    HW218945   8.200   6.502   3.134 -0.1157  0.0096 -1.2533
 4754SOL     OW18946   4.587   1.346   3.634 -0.2126 -0.3862 -0.4379
 4754SOL    HW118947   4.664   1.371   3.583  0.9466 -0.7871  1.0481
 4754SOL    HW218948   4.535   1.293   3.574  1.4195 -1.4029 -1.0294
 4755SOL     OW18949   7.510   5.009  10.160  0.7096  0.0216  0.1402
 4755SOL    HW118950   7.460   5.030  10.238  0.7198  2.0649 -0.3498
 4755SOL    HW218951   7.601   5.015  10.187  0.7122  0.6529  0.0052
 4756SOL     OW18952   3.091   4.189   7.881  0.2059 -0.0839  0.3272
 4756SOL    HW118953   3.098   4.118   7.945  0.4203 -1.7075 -1.4137
 4756SOL    HW218954   3.179   4.195   7.843 -0.1669  0.1603 -0.5195
 4757SOL     OW18955   5.197   0.101   7.573  0.5069  0.0921 -0.0312
 4757SOL    HW118956   5.284   0.122   7.541  0.7059 -0.6304  0.0066
 4757SOL    HW218957   5.153   0.185   7.582  1.4892  0.5369  0.7736
 4758SOL     OW18958   1.707   7.367   7.648  0.3476 -0.0259 -0.1028
 4758SOL    HW118959   1.669   7.416   7.721 -0.2847 -0.5962 -0.0365
 4758SOL    HW218960   1.674   7.278   7.660 -0.3059  0.0059 -1.4622
 4759SOL     OW18961   7.859  11.590   0.736 -0.2142 -0.3898 -0.0427
 4759SOL    HW118962   7.805  11.569   0.812  0.9215 -0.5235  0.7471
 4759SOL    HW218963   7.838  11.523   0.671  0.7951 -1.9235  1.1636
 4760SOL     OW18964   5.487   2.880   6.734  0.4392  0.0569 -0.0805
 4760SOL    HW118965   5.567   2.907   6.780  0.1109 -0.1956  0.6625
 4760SOL    HW218966   5.487   2.785   6.741 -0.1700  0.0829  0.3536
 4761SOL     OW18967   6.325   9.367   4.322 -0.1118  0.2390 -0.9626
 4761SOL    HW118968   6.390   9.421   4.276 -0.8678  2.2112  0.1605
 4761SOL    HW218969   6.242   9.386   4.278 -0.1275 -1.5945 -1.8188
 4762SOL     OW18970   8.816   5.563  11.662  0.3578 -0.3779 -0.3379
 4762SOL    HW118971   8.859   5.647  11.650  1.9820 -1.1176 -0.0130
 4762SOL    HW218972   8.742   5.564  11.602  0.1962  1.3760 -0.1394
 4763SOL     OW18973   0.369  10.032   3.221 -0.0413 -0.0358 -0.5942
 4763SOL    HW118974   0.312  10.048   3.296  0.1954  2.9131 -0.9245
 4763SOL    HW218975   0.311  10.032   3.145  0.1555  1.4004 -0.7775
 4764SOL     OW18976   7.273   0.039   4.568 -0.0983 -0.5913  0.0453
 4764SOL    HW118977   7.304  -0.026   4.505  1.5552 -0.5660  0.7823
 4764SOL    HW218978   7.282   0.123   4.522 -0.3522 -0.7090 -0.2201
 4765SOL     OW18979  11.804  11.063   2.900 -0.3494  0.2108 -0.8127
 4765SOL    HW118980  11.819  11.150   2.863 -0.4744  0.4543 -0.3001
 4765SOL    HW218981  11.831  11.071   2.992 -3.4025  0.6385  0.1359
 4766SOL     OW18982   9.274   0.897   2.546 -0.0858 -0.2240  0.5408
 4766SOL    HW118983   9.341   0.830   2.559  1.0416  0.8921  0.7218
 4766SOL    HW218984   9.266   0.939   2.632 -0.9242 -0.2516  0.4777
 4767SOL     OW18985   2.057  11.813   5.541 -0.8624  0.5961 -0.0506
 4767SOL    HW118986   2.137  11.767   5.514 -1.7931 -1.6252  0.7672
 4767SOL    HW218987   2.082  11.906   5.540  2.0648 -0.0463  1.1814
 4768SOL     OW18988   3.486   6.365   4.439 -0.0558  0.0750 -0.2493
 4768SOL    HW118989   3.526   6.441   4.396 -0.1667  0.0758 -0.3513
 4768SOL    HW218990   3.436   6.402   4.512  0.8598 -0.0022  0.4296
 4769SOL     OW18991   7.316   1.138   5.021 -0.4224 -0.2105 -0.1775
 4769SOL    HW118992   7.327   1.093   5.104 -0.1736 -0.4043 -0.3129
 4769SOL    HW218993   7.394   1.115   4.970 -1.3096 -1.4179 -1.0662
 4770SOL     OW18994  10.534   4.561   1.796 -0.0136  0.1353 -0.0823
 4770SOL    HW118995  10.451   4.601   1.773  0.5765  1.2517 -0.3692
 4770SOL    HW218996  10.599   4.628   1.775  0.9212 -0.5567  0.5275
 4771SOL     OW18997  11.020  11.930   6.882  0.3979 -0.3153  0.3359
 4771SOL    HW118998  10.978  11.900   6.801  1.7185 -0.4701 -0.3065
 4771SOL    HW218999  11.013  11.855   6.941  1.3000 -0.9621 -0.3573
 4772SOL     OW19000   4.208   4.455  10.921  0.4906 -0.1610  0.0944
 4772SOL    HW119001   4.188   4.496  10.836  0.1659  0.1043  0.2943
 4772SOL    HW219002   4.192   4.362  10.907 -0.1251 -0.0520  0.0219
 4773SOL     OW19003   2.676  10.319  10.336  0.3246  0.0822  0.1431
 4773SOL    HW119004   2.758  10.322  10.287  0.4438  0.5829  0.3546
 4773SOL    HW219005   2.704  10.319  10.428  0.0985 -0.4728  0.2159
 4774SOL     OW19006   9.877   2.237   4.438 -0.4608 -0.3359 -0.4953
 4774SOL    HW119007   9.836   2.160   4.400 -0.5288  0.3581 -1.8970
 4774SOL    HW219008   9.945   2.262   4.375 -0.1642  0.5034  0.1372
 4775SOL     OW19009  10.956   2.659   1.585  0.5379  0.4949 -0.4307
 4775SOL    HW119010  11.037   2.641   1.536 -0.7427 -0.6831 -2.2160
 4775SOL    HW219011  10.939   2.752   1.570  0.6822  0.3696 -1.4536
 4776SOL     OW19012   3.301   3.784   9.159 -0.0228 -0.1288  0.0100
 4776SOL    HW119013   3.285   3.692   9.180  2.0821 -0.1063  2.0987
 4776SOL    HW219014   3.370   3.782   9.092 -1.9655 -0.0425 -2.1148
 4777SOL     OW19015  11.838  11.124   5.603  0.2719  0.0649  0.3680
 4777SOL    HW119016  11.853  11.219   5.603  1.3996 -0.0887 -0.4177
 4777SOL    HW219017  11.926  11.086   5.606 -0.1930 -0.9858  2.4577
 4778SOL     OW19018   9.913   8.613  11.796 -0.2721  0.0378 -0.1008
 4778SOL    HW119019  10.001   8.649  11.786 -0.8985  1.7073  0.0866
 4778SOL    HW219020   9.878   8.610  11.707 -1.0653  2.2603  0.0667
 4779SOL     OW19021  10.249  11.936   1.451 -0.0173 -0.4862  0.1517
 4779SOL    HW119022  10.237  11.842   1.439  1.0412 -0.5486 -0.5276
 4779SOL    HW219023  10.305  11.963   1.378  0.7634  0.4345  1.0622
 4780SOL     OW19024   4.596   1.212   0.714 -0.6421  0.4807 -0.2782
 4780SOL    HW119025   4.591   1.302   0.684  1.7789  0.6799 -0.2606
 4780SOL    HW219026   4.654   1.214   0.789 -0.6335 -1.0790 -0.1996
 4781SOL     OW19027   1.105   1.656  11.939  0.3938 -0.0105 -0.1682
 4781SOL    HW119028   1.092   1.578  11.993  1.9909  0.1071  0.4434
 4781SOL    HW219029   1.046   1.721  11.977 -0.0028 -0.5370  0.1384
 4782SOL     OW19030   5.830   4.041   8.999  0.0304  0.1015  0.1138
 4782SOL    HW119031   5.914   4.086   9.007  0.2607 -0.3647  0.3408
 4782SOL    HW219032   5.851   3.948   9.005 -0.4212 -0.0525 -0.5279
 4783SOL     OW19033   2.552   4.595   2.040  0.2426  0.0535 -0.4666
 4783SOL    HW119034   2.599   4.529   1.989  1.1534 -1.5268  2.1690
 4783SOL    HW219035   2.460   4.570   2.032  0.3497 -0.0464 -1.4597
 4784SOL     OW19036   2.516   2.954   8.829 -0.5954 -0.4154  0.2580
 4784SOL    HW119037   2.444   2.896   8.803  2.1490 -3.6428 -0.9883
 4784SOL    HW219038   2.573   2.958   8.752  1.3975  0.5709  1.6973
 4785SOL     OW19039  10.688  11.905   0.937 -0.0216 -0.2807 -0.3652
 4785SOL    HW119040  10.649  11.989   0.912 -0.9933 -0.3644  0.7626
 4785SOL    HW219041  10.709  11.915   1.029  1.0023 -0.8685 -0.5261
 4786SOL     OW19042  11.991  10.892   8.462  0.1957 -1.0909  0.2079
 4786SOL    HW119043  11.922  10.939   8.413  0.3282  0.6395  1.5885
 4786SOL    HW219044  12.070  10.943   8.445  0.5208 -1.3068  1.0570
 4787SOL     OW19045  11.963  10.856   7.353  0.6012  0.1187  0.0231
 4787SOL    HW119046  11.963  10.927   7.417 -0.0451  0.0664  0.0892
 4787SOL    HW219047  11.917  10.784   7.397 -1.6892  0.7346 -1.1682
 4788SOL     OW19048  10.915   6.227   8.441  0.2694 -0.4487  0.3935
 4788SOL    HW119049  10.995   6.256   8.485 -0.2696  1.2650  0.2867
 4788SOL    HW219050  10.923   6.259   8.351  0.4137 -2.1448 -0.2440
 4789SOL     OW19051   0.198  10.002   7.518 -0.0561 -0.4526 -0.1920
 4789SOL    HW119052   0.105  10.018   7.529 -0.4149 -2.5150  0.1731
 4789SOL    HW219053   0.216   9.922   7.568  2.1568  0.4929  0.6885
 4790SOL     OW19054  10.437  10.649   6.311 -0.0994 -0.0215  0.1305
 4790SOL    HW119055  10.427  10.577   6.374  0.2832 -0.6495 -0.5100
 4790SOL    HW219056  10.517  10.694   6.339  1.3450 -1.6467 -1.1714
 4791SOL     OW19057   5.596   3.694   7.528 -0.4032 -0.7031  0.1610
 4791SOL    HW119058   5.672   3.666   7.478  0.4039  0.6730  0.5648
 4791SOL    HW219059   5.587   3.628   7.597 -0.6580 -1.8207 -0.9045
 4792SOL     OW19060  11.948   3.252   2.703 -0.3026 -0.0117 -0.5593
 4792SOL    HW119061  11.873   3.237   2.645  0.3100  0.0492 -1.3985
 4792SOL    HW219062  11.987   3.334   2.671  1.3517 -1.1111 -1.5422
 4793SOL     OW19063  10.424   4.538  11.089 -0.3743  0.0014  0.0956
 4793SOL    HW119064  10.462   4.478  11.153  0.0760  1.2219  1.0161
 4793SOL    HW219065  10.335   4.505  11.076  0.2317 -1.5541 -0.3535
 4794SOL     OW19066   9.266  10.840   1.852  0.0698 -0.5584 -0.1292
 4794SOL    HW119067   9.175  10.867   1.865 -0.6846 -3.6156  2.0456
 4794SOL    HW219068   9.317  10.919   1.868 -2.0813  0.6888  1.0191
 4795SOL     OW19069   2.563   0.107   0.586 -0.1158  0.6902 -0.5519
 4795SOL    HW119070   2.512   0.175   0.629 -0.1002 -0.5147  1.4788
 4795SOL    HW219071   2.558   0.031   0.645  1.8030 -0.3178 -1.5794
 4796SOL     OW19072   3.591   8.949   8.814 -0.1620  0.1837 -0.1677
 4796SOL    HW119073   3.546   8.961   8.898  0.7707 -0.5400  0.4548
 4796SOL    HW219074   3.556   8.867   8.779  0.7426 -0.4687  0.3964
 4797SOL     OW19075   8.669   4.162  11.793  0.3360  0.0392  0.6207
 4797SOL    HW119076   8.695   4.144  11.883 -0.3143  1.3039  1.0898
 4797SOL    HW219077   8.640   4.253  11.795  0.3612  0.0990 -0.8826
 4798SOL     OW19078   6.601   9.111  11.980  0.3196  0.5635  0.5021
 4798SOL    HW119079   6.559   9.182  11.930  1.6153  1.1047  0.1297
 4798SOL    HW219080   6.530   9.053  12.004 -0.6590  1.5316  0.0301
 4799SOL     OW19081   6.827   0.034   4.878 -0.5175  0.5922  0.3217
 4799SOL    HW119082   6.856   0.091   4.806 -0.5247 -0.7630 -0.8021
 4799SOL    HW219083   6.742   0.069   4.903 -0.4400  1.1956 -0.2202
 4800SOL     OW19084   1.039  10.564  11.848 -0.2258  0.1378  0.0389
 4800SOL    HW119085   0.978  10.607  11.908 -1.4494 -0.5316 -0.6830
 4800SOL    HW219086   1.069  10.634  11.790  1.0676  0.8161  1.4554
 4801SOL     OW19087   8.348   9.574  11.385 -0.4238  0.2859 -0.2979
 4801SOL    HW119088   8.392   9.534  11.310  0.6586  0.7440  0.0831
 4801SOL    HW219089   8.333   9.665  11.358  0.5421  0.6253  0.2604
 4802SOL     OW19090   1.234   9.544   8.167 -0.6579  0.7599 -0.2422
 4802SOL    HW119091   1.178   9.619   8.145 -2.2255  0.0304  1.0179
 4802SOL    HW219092   1.316   9.584   8.198 -1.6791  2.0223  1.0091
 4803SOL     OW19093  11.733   7.595   5.110  0.1851  1.0069 -0.1124
 4803SOL    HW119094  11.808   7.579   5.053 -0.4539 -2.5154 -0.1738
 4803SOL    HW219095  11.754   7.549   5.191 -2.0045 -0.3999 -0.2738
 4804SOL     OW19096   3.814   6.839  10.770  0.2454 -0.3470 -0.0879
 4804SOL    HW119097   3.773   6.925  10.757  1.0204  0.3758  1.9128
 4804SOL    HW219098   3.907   6.858  10.778  0.2334 -1.0407  2.5618
 4805SOL     OW19099   8.642   0.230   3.571 -0.6041  0.1166 -0.4390
 4805SOL    HW119100   8.588   0.186   3.505  0.1110  0.5368 -1.3280
 4805SOL    HW219101   8.634   0.176   3.649  0.0578 -1.4802 -1.4273
 4806SOL     OW19102   1.989   9.096   6.020 -0.1907  0.2554 -0.0236
 4806SOL    HW119103   1.913   9.093   6.077  0.2038 -0.8346  0.4597
 4806SOL    HW219104   2.032   9.179   6.043  0.6540 -0.7216  2.2022
 4807SOL     OW19105   2.502   4.435   2.866  0.2739  0.3814 -0.3525
 4807SOL    HW119106   2.566   4.497   2.830  0.9160  0.2675  0.5497
 4807SOL    HW219107   2.531   4.421   2.956 -0.7865 -0.0133 -0.0641
 4808SOL     OW19108   1.379   7.268   2.605  0.5638 -0.2646  0.6345
 4808SOL    HW119109   1.355   7.206   2.674 -2.7682 -1.3971 -1.2670
 4808SOL    HW219110   1.323   7.344   2.621  0.1691 -0.3088 -0.4146
 4809SOL     OW19111   5.263  10.084   1.085  0.0519  0.2001  0.1088
 4809SOL    HW119112   5.187  10.142   1.080  0.4855  0.8996  1.2392
 4809SOL    HW219113   5.316  10.107   1.008 -1.0499 -0.5918 -0.9264
 4810SOL     OW19114   9.086   2.689   4.250 -0.0174  0.2099 -0.0976
 4810SOL    HW119115   9.038   2.617   4.209 -1.8562  2.0706 -1.3751
 4810SOL    HW219116   9.020   2.755   4.269  0.9687  0.1872  4.4956
 4811SOL     OW19117   5.115   3.689   3.591 -0.4187 -0.3662  0.2995
 4811SOL    HW119118   5.100   3.777   3.626  0.4655 -0.0718 -0.0469
 4811SOL    HW219119   5.209   3.686   3.573 -0.1937 -1.8128  1.4864
 4812SOL     OW19120  10.641   8.483  11.721  0.3127 -0.1617  0.2901
 4812SOL    HW119121  10.583   8.448  11.653 -0.7898 -0.2490  1.2614
 4812SOL    HW219122  10.620   8.433  11.799 -0.0790  1.4789  1.2769
 4813SOL     OW19123   5.130   9.526   5.748  0.2904 -0.0903  0.3560
 4813SOL    HW119124   5.061   9.572   5.797  0.8650  0.2084  0.8943
 4813SOL    HW219125   5.082   9.476   5.682 -0.2926  2.3348 -1.1591
 4814SOL     OW19126   3.809   7.719  10.136  0.1438 -0.2640  0.2180
 4814SOL    HW119127   3.882   7.732  10.196  0.6128  0.4216 -0.4863
 4814SOL    HW219128   3.737   7.769  10.175  0.5007  0.3342  0.1180
 4815SOL     OW19129   9.405   9.437   4.412  0.0119  0.1589 -0.5542
 4815SOL    HW119130   9.467   9.509   4.402 -0.0956  0.0326 -2.4219
 4815SOL    HW219131   9.421   9.404   4.500  0.9393  1.6486 -0.1323
 4816SOL     OW19132   2.706   9.189   4.678  0.0229  0.0924 -0.1036
 4816SOL    HW119133   2.676   9.126   4.612 -1.6833 -0.4881  1.1250
 4816SOL    HW219134   2.749   9.258   4.628 -0.0848 -0.9326 -1.6968
 4817SOL     OW19135   7.902   3.482   4.508 -0.5583  0.3792 -0.6957
 4817SOL    HW119136   7.824   3.493   4.455  0.0607 -1.1504 -2.0017
 4817SOL    HW219137   7.873   3.430   4.583 -1.2269  1.7326  0.0323
 4818SOL     OW19138   1.345   4.229  10.079 -0.1274  0.0313 -0.2083
 4818SOL    HW119139   1.406   4.287  10.034 -1.0503  0.7348 -0.5791
 4818SOL    HW219140   1.259   4.255  10.047 -0.6444 -0.7986  0.4684
 4819SOL     OW19141   0.032   7.662   5.682  0.7739  0.1025  0.0898
 4819SOL    HW119142   0.018   7.727   5.751 -1.0737  1.1315 -1.1889
 4819SOL    HW219143   0.098   7.701   5.625 -0.6637  1.1311 -0.9302
 4820SOL     OW19144   0.753  10.971   7.110  0.5389  0.0079 -0.0369
 4820SOL    HW119145   0.771  10.882   7.141  0.3377 -0.0433 -0.0651
 4820SOL    HW219146   0.767  11.027   7.186 -3.4028 -0.4414  1.2458
 4821SOL     OW19147   1.670   4.015  10.530 -0.6609 -0.7064 -0.3829
 4821SOL    HW119148   1.760   3.985  10.539 -0.0509  0.6312 -1.6883
 4821SOL    HW219149   1.628   3.946  10.477 -0.5208 -1.5016  0.5144
 4822SOL     OW19150  10.231   8.523   1.941  0.4669 -0.0878  0.4920
 4822SOL    HW119151  10.294   8.451   1.951 -1.2892 -1.7613  0.2335
 4822SOL    HW219152  10.223   8.560   2.029 -0.1208 -1.5873  1.1050
 4823SOL     OW19153   1.022  11.473   3.034  0.5532  0.2075  0.2462
 4823SOL    HW119154   1.031  11.538   2.964  0.3419  0.4194  0.4141
 4823SOL    HW219155   0.948  11.504   3.086 -1.7247 -1.8800 -1.5418
 4824SOL     OW19156   9.735   9.201   9.611  0.0317  0.4500  0.5929
 4824SOL    HW119157   9.700   9.272   9.556 -0.7925  0.5942  1.2715
 4824SOL    HW219158   9.756   9.131   9.549  0.1845  1.0203 -0.0174
 4825SOL     OW19159   2.004   9.813   7.887 -0.3003 -0.5083  0.1094
 4825SOL    HW119160   2.049   9.898   7.884  2.4403 -1.8895 -1.3189
 4825SOL    HW219161   2.073   9.750   7.907 -1.9737 -2.6049 -0.4034
 4826SOL     OW19162   1.569  10.564   3.305  0.4518  0.0672  0.4920
 4826SOL    HW119163   1.587  10.602   3.219  0.9000 -1.3264 -0.0601
 4826SOL    HW219164   1.504  10.622   3.343  0.6736  1.0469 -0.5417
 4827SOL     OW19165   1.758   9.527   0.926 -0.4808 -0.0652 -0.0036
 4827SOL    HW119166   1.741   9.557   1.015 -1.2241 -1.4132  0.3424
 4827SOL    HW219167   1.675   9.537   0.881 -1.1707 -2.7534  0.5077
 4828SOL     OW19168   2.769  11.881   1.548 -0.0754 -0.0997  0.5232
 4828SOL    HW119169   2.740  11.952   1.490 -0.8271 -1.6995 -1.1403
 4828SOL    HW219170   2.733  11.904   1.633 -0.1916  1.5723  0.0591
 4829SOL     OW19171   0.258   6.831   3.991  0.5099 -0.3216  0.1994
 4829SOL    HW119172   0.246   6.875   4.075  0.7326  0.7388 -0.3159
 4829SOL    HW219173   0.194   6.759   3.993  1.2891 -1.0234  1.7384
 4830SOL     OW19174   2.303   9.050   0.857 -0.1380  0.3859 -0.0130
 4830SOL    HW119175   2.359   9.127   0.865 -0.0743  0.3570 -0.1763
 4830SOL    HW219176   2.241   9.071   0.787 -1.3817  1.0619  1.2303
 4831SOL     OW19177   5.719   6.558  10.857  0.3735  0.4869  0.0740
 4831SOL    HW119178   5.663   6.582  10.784 -0.3413  1.0046  0.7689
 4831SOL    HW219179   5.768   6.638  10.877 -0.2463  0.6860  0.8529
 4832SOL     OW19180   7.538   5.384   7.962 -0.0579  0.5801 -0.0683
 4832SOL    HW119181   7.555   5.290   7.962 -0.3075  0.4684  2.3584
 4832SOL    HW219182   7.447   5.391   7.993 -0.6170  1.5893 -1.8153
 4833SOL     OW19183   4.896  10.688   4.239 -0.0749 -0.1775 -0.2881
 4833SOL    HW119184   4.957  10.652   4.174 -1.5159 -2.4547 -0.5148
 4833SOL    HW219185   4.940  10.674   4.323 -0.1746 -1.7330 -0.4532
 4834SOL     OW19186   3.420   7.719   8.297  0.4581  0.4023 -0.1920
 4834SOL    HW119187   3.327   7.695   8.287  0.6624  0.0024 -1.3291
 4834SOL    HW219188   3.418   7.804   8.339 -0.4412  0.4399 -0.2793
 4835SOL     OW19189   0.297   4.556   7.822 -0.2893  0.5748 -0.0579
 4835SOL    HW119190   0.289   4.576   7.729  0.4964 -1.6274 -0.6642
 4835SOL    HW219191   0.390   4.572   7.842 -0.4250  0.9032  0.3262
 4836SOL     OW19192   7.465   4.766  10.051 -0.2125 -0.2901  0.1522
 4836SOL    HW119193   7.496   4.853  10.078 -1.6103  0.3874 -0.3348
 4836SOL    HW219194   7.400   4.742  10.117  0.8255 -1.4157  0.8171
 4837SOL     OW19195   0.413   1.910   4.333 -0.5506  0.2160  0.4731
 4837SOL    HW119196   0.473   1.963   4.385 -1.5201  0.9025  0.9241
 4837SOL    HW219197   0.328   1.920   4.376 -1.6733  1.7987 -1.9020
 4838SOL     OW19198   0.563   3.673   0.980  0.1923 -0.5618 -0.4735
 4838SOL    HW119199   0.545   3.738   0.913 -0.6577  0.5185  0.7632
 4838SOL    HW219200   0.652   3.694   1.010  0.0429 -0.1640 -0.3017
 4839SOL     OW19201   3.938   5.049   8.078 -0.1593 -0.5245  0.3033
 4839SOL    HW119202   3.925   4.970   8.026 -1.8990  0.2984 -0.6059
 4839SOL    HW219203   3.953   5.118   8.013  0.2073  0.0896  1.0238
 4840SOL     OW19204   9.507   5.019   9.516 -0.6266  0.6098  0.2868
 4840SOL    HW119205   9.522   4.977   9.431 -1.0410  1.7079 -0.3463
 4840SOL    HW219206   9.483   5.109   9.494  1.4897  1.5677  1.6344
 4841SOL     OW19207   8.476   5.326   5.904 -0.0324 -0.2404 -0.6367
 4841SOL    HW119208   8.562   5.302   5.940  0.8238  0.4734 -2.0817
 4841SOL    HW219209   8.484   5.309   5.810 -1.6732 -0.6536 -0.7315
 4842SOL     OW19210  10.763   8.222   8.366 -0.5211 -0.0793  0.2245
 4842SOL    HW119211  10.793   8.301   8.412  0.0678 -0.1276 -0.0751
 4842SOL    HW219212  10.842   8.169   8.356 -0.5120  0.2056 -1.3984
 4843SOL     OW19213   1.957   7.274   2.707  0.1204 -0.1470  0.2776
 4843SOL    HW119214   2.017   7.246   2.637 -0.9809 -1.4102 -0.2009
 4843SOL    HW219215   2.003   7.252   2.788  0.8681  0.1405 -0.0596
 4844SOL     OW19216  10.500   8.533   6.005 -0.4165  0.0605 -0.0954
 4844SOL    HW119217  10.511   8.456   5.949 -1.0880 -1.2873  1.5083
 4844SOL    HW219218  10.412   8.523   6.042 -0.8030  2.0040 -0.3792
 4845SOL     OW19219   5.205   0.753   7.844  0.3427  0.1991  0.0515
 4845SOL    HW119220   5.166   0.737   7.930 -1.3196  0.5845 -0.6048
 4845SOL    HW219221   5.207   0.849   7.836  1.8682  0.2118  0.2412
 4846SOL     OW19222   1.408   1.285   6.450  0.4694 -0.2376  0.4087
 4846SOL    HW119223   1.377   1.325   6.531  1.4264  0.0450  0.6464
 4846SOL    HW219224   1.483   1.338   6.424  0.4376 -0.5893 -0.4349
 4847SOL     OW19225   6.054   2.615   4.720  0.3065 -0.0048 -0.3612
 4847SOL    HW119226   6.088   2.598   4.632 -1.8871 -2.0408 -0.9212
 4847SOL    HW219227   6.030   2.528   4.754  0.1496  0.8337  1.8613
 4848SOL     OW19228   4.811   6.531   2.335 -0.1216 -0.5162 -0.5455
 4848SOL    HW119229   4.769   6.461   2.286 -1.0276  0.3076 -0.9856
 4848SOL    HW219230   4.768   6.530   2.421  0.7395 -1.2848 -0.1023
 4849SOL     OW19231   9.193   7.544  10.302  0.3544  0.5998  0.0743
 4849SOL    HW119232   9.262   7.610  10.310  0.6017  0.2772  0.6640
 4849SOL    HW219233   9.188   7.504  10.389  0.3180 -0.2605 -0.3118
 4850SOL     OW19234   0.622   0.960   8.038 -0.3502 -0.5527  0.0775
 4850SOL    HW119235   0.657   1.041   8.001 -2.4461  0.9912  1.3197
 4850SOL    HW219236   0.543   0.986   8.085 -0.5828 -3.1872  1.3375
 4851SOL     OW19237   8.158  11.698   5.335  0.1850 -0.3018  0.3074
 4851SOL    HW119238   8.173  11.604   5.336  2.5055  0.0008  2.0946
 4851SOL    HW219239   8.077  11.710   5.386 -1.0322 -1.3720 -1.2800
 4852SOL     OW19240   5.082   5.009   2.498 -0.2195  0.3386 -0.1249
 4852SOL    HW119241   5.013   5.058   2.454 -0.9302 -0.8947 -0.4488
 4852SOL    HW219242   5.106   4.940   2.435 -1.0332 -1.2687  1.2395
 4853SOL     OW19243   2.493   1.176   1.000  0.0092  0.4206  0.0240
 4853SOL    HW119244   2.432   1.234   1.046 -0.4245  0.8282 -1.0255
 4853SOL    HW219245   2.469   1.185   0.908 -0.9305 -2.3811 -0.1189
 4854SOL     OW19246   5.496   9.070   0.555 -0.2995  0.1578  0.5259
 4854SOL    HW119247   5.547   9.136   0.507  1.3014 -1.0834  0.4458
 4854SOL    HW219248   5.556   8.997   0.566 -2.2639 -1.6329 -0.0751
 4855SOL     OW19249  11.859   5.041  10.582 -0.1227 -0.6699  0.4091
 4855SOL    HW119250  11.840   4.998  10.665 -0.2554  0.8318  1.1775
 4855SOL    HW219251  11.868   4.969  10.519  0.8508 -1.8830  1.8812
 4856SOL     OW19252   7.305  10.680   2.942 -0.0683  0.3758 -0.0175
 4856SOL    HW119253   7.345  10.671   3.029  0.5411  0.8850 -0.2360
 4856SOL    HW219254   7.376  10.712   2.887 -0.6399  0.7453 -0.5494
 4857SOL     OW19255   0.222   6.466   9.300  0.2353 -0.0561  0.7240
 4857SOL    HW119256   0.245   6.558   9.314  1.2468  0.0531 -1.3259
 4857SOL    HW219257   0.129   6.468   9.277  0.7575  0.7606 -1.5263
 4858SOL     OW19258   4.938   7.632   4.793 -0.1888  0.2111  0.5867
 4858SOL    HW119259   4.858   7.678   4.767 -1.6410 -2.4095  0.0531
 4858SOL    HW219260   4.915   7.590   4.876  0.5999 -0.6243  0.3899
 4859SOL     OW19261   0.409   3.159   5.821 -0.0356 -0.0317 -0.0218
 4859SOL    HW119262   0.362   3.083   5.787  0.8274 -0.7537  0.3647
 4859SOL    HW219263   0.488   3.165   5.767 -0.4148  1.0025 -0.4878
 4860SOL     OW19264   8.963   0.657   9.151  0.0539  0.5624 -0.5733
 4860SOL    HW119265   8.887   0.702   9.113 -0.8553 -1.0704 -0.7902
 4860SOL    HW219266   8.927   0.604   9.222  0.7326 -1.3307 -1.5715
 4861SOL     OW19267  11.244   9.315  10.238  0.4367 -0.4567 -0.0219
 4861SOL    HW119268  11.272   9.286  10.151 -1.4247  1.8064 -1.5001
 4861SOL    HW219269  11.153   9.287  10.245  0.0171  0.9319  0.4036
 4862SOL     OW19270   2.149  11.831   3.793  0.1802  0.2709 -0.1729
 4862SOL    HW119271   2.243  11.852   3.796  0.5004 -1.1194  0.2640
 4862SOL    HW219272   2.141  11.750   3.843 -1.4102  0.8547  0.5685
 4863SOL     OW19273   0.513   4.275   5.528  0.3675 -0.3993  0.4272
 4863SOL    HW119274   0.585   4.221   5.497  0.2649  0.0254 -0.5630
 4863SOL    HW219275   0.502   4.342   5.461 -1.1846 -0.6633  0.3987
 4864SOL     OW19276   9.515   9.187   8.440 -0.0234  0.3507 -0.3844
 4864SOL    HW119277   9.481   9.139   8.516 -1.6445 -0.4339 -1.5363
 4864SOL    HW219278   9.518   9.278   8.468 -1.0456  0.1406  0.4797
 4865SOL     OW19279   9.271   1.172   1.691 -0.2418 -0.1471 -0.4323
 4865SOL    HW119280   9.194   1.225   1.713 -0.7864 -0.8024 -0.7228
 4865SOL    HW219281   9.235   1.094   1.649  0.4751 -1.3171  1.0692
 4866SOL     OW19282   0.322   7.742   1.356  0.2760 -0.7203 -0.0979
 4866SOL    HW119283   0.385   7.742   1.428 -0.7753 -0.2508  0.8362
 4866SOL    HW219284   0.347   7.665   1.303  2.3996  0.1393 -0.4679
 4867SOL     OW19285   2.776   8.405   1.540 -1.0457  0.4776 -0.0925
 4867SOL    HW119286   2.769   8.346   1.465 -1.3021  0.8311 -0.3493
 4867SOL    HW219287   2.862   8.445   1.531 -0.2778 -0.8676  0.8437
 4868SOL     OW19288   0.833   7.196   1.955  0.2347 -0.1174 -0.3194
 4868SOL    HW119289   0.753   7.144   1.942  0.9635 -1.1013 -1.1353
 4868SOL    HW219290   0.803   7.287   1.955 -1.0130 -0.4934  0.5275
 4869SOL     OW19291  10.333   6.410   1.573  0.1951 -0.6748  0.1275
 4869SOL    HW119292  10.251   6.375   1.537  0.6885 -2.7354  0.8428
 4869SOL    HW219293  10.324   6.401   1.668  0.9195 -0.1214  0.2593
 4870SOL     OW19294   2.600   7.925  11.680  0.0302  0.4845 -0.5547
 4870SOL    HW119295   2.542   7.852  11.658 -0.6289  0.9378 -0.3291
 4870SOL    HW219296   2.543   7.990  11.721  0.5708  1.2332 -0.9734
 4871SOL     OW19297   4.961   4.536   5.498  0.3958 -0.3506  0.5830
 4871SOL    HW119298   5.033   4.581   5.542  1.0076  1.6296 -2.1409
 4871SOL    HW219299   5.004   4.471   5.442 -0.0842 -0.4975  0.3772
 4872SOL     OW19300   8.321  10.687   6.747  0.3244  0.3053  0.1042
 4872SOL    HW119301   8.348  10.779   6.736 -0.1783  0.4871  0.3895
 4872SOL    HW219302   8.226  10.690   6.754  0.1734 -0.3794 -1.3241
 4873SOL     OW19303  10.382   2.629   1.206  0.5128 -0.2281  0.2756
 4873SOL    HW119304  10.356   2.545   1.168 -0.3580 -0.8024  2.0110
 4873SOL    HW219305  10.299   2.677   1.215  0.7596  0.0762  0.9626
 4874SOL     OW19306   0.754   7.623  11.500 -0.0259  0.1008 -0.0907
 4874SOL    HW119307   0.818   7.621  11.572 -0.4551 -0.2996  0.2880
 4874SOL    HW219308   0.734   7.531  11.484  1.0864  0.1013 -1.6597
 4875SOL     OW19309  12.000  11.958   6.961 -0.3922  0.1168 -0.4846
 4875SOL    HW119310  12.049  11.927   6.884  0.3970  0.8834 -0.3133
 4875SOL    HW219311  12.031  12.047   6.974  1.1141 -0.6744  2.0212
 4876SOL     OW19312   2.163   6.127  10.386 -0.1055 -0.0691  0.0225
 4876SOL    HW119313   2.098   6.100  10.451 -1.3078  2.3998 -0.0567
 4876SOL    HW219314   2.164   6.055  10.322 -2.0212 -0.6372  0.5590
 4877SOL     OW19315   3.395   1.839  10.188 -0.3089  0.1545 -0.0124
 4877SOL    HW119316   3.303   1.817  10.171 -0.3698  0.6931 -0.3840
 4877SOL    HW219317   3.392   1.895  10.265 -0.3822  0.9762 -0.6053
 4878SOL     OW19318   3.279   4.651   0.117 -0.3610  0.0689  0.0211
 4878SOL    HW119319   3.199   4.600   0.101 -0.4950  0.2081  0.2380
 4878SOL    HW219320   3.266   4.688   0.204 -0.5881  1.0623 -0.4252
 4879SOL     OW19321   0.400   5.194   9.564  0.5183 -0.3226  0.2705
 4879SOL    HW119322   0.412   5.270   9.621 -0.8334  1.3342 -1.5076
 4879SOL    HW219323   0.320   5.152   9.598  0.0197  0.3461 -0.0524
 4880SOL     OW19324   5.343   1.321   0.903  0.4131 -0.5335  0.6890
 4880SOL    HW119325   5.276   1.254   0.892  0.0010  0.1312 -0.9909
 4880SOL    HW219326   5.346   1.336   0.998 -2.1629 -0.2088  0.7776
 4881SOL     OW19327   5.383   5.539   6.260  0.0091  0.3193 -0.4123
 4881SOL    HW119328   5.421   5.453   6.277 -1.3223 -0.0133  1.0931
 4881SOL    HW219329   5.341   5.529   6.174  1.0150 -0.0988 -0.8716
 4882SOL     OW19330   6.380   9.960  10.312 -0.0165  0.3054  0.3137
 4882SOL    HW119331   6.449   9.960  10.245  1.5877 -0.1799  1.8791
 4882SOL    HW219332   6.337   9.876  10.302  0.1940  0.2461 -0.1184
 4883SOL     OW19333   8.536   5.697   0.358 -0.2197 -0.0229 -0.1516
 4883SOL    HW119334   8.496   5.775   0.394  1.0543 -0.5972  2.7480
 4883SOL    HW219335   8.628   5.719   0.347  0.7529 -1.7118  3.1928
 4884SOL     OW19336   3.681   7.735  11.977  0.3002  0.1844  0.3582
 4884SOL    HW119337   3.751   7.784  11.935 -0.2060  0.1672 -0.5112
 4884SOL    HW219338   3.611   7.731  11.912 -2.0968  3.4367  2.4379
 4885SOL     OW19339   5.201   7.781   3.555  0.0654 -0.1830  0.0409
 4885SOL    HW119340   5.197   7.828   3.471 -0.8622 -2.4716 -1.2781
 4885SOL    HW219341   5.115   7.797   3.595  0.1837  0.1809  0.1567
 4886SOL     OW19342   3.736  10.706   5.360 -0.0442 -0.1994  0.2900
 4886SOL    HW119343   3.748  10.632   5.300  0.1406  0.0466  0.0247
 4886SOL    HW219344   3.652  10.744   5.336  0.3698  0.3519 -0.3032
 4887SOL     OW19345   9.575   6.942   2.411  0.4631 -0.3531  0.1245
 4887SOL    HW119346   9.492   6.978   2.444  0.9440  0.0484  0.9493
 4887SOL    HW219347   9.579   6.969   2.319  0.0555  0.3344  0.3003
 4888SOL     OW19348   2.449   2.464  11.705 -0.2746 -0.9261  0.0289
 4888SOL    HW119349   2.381   2.532  11.708  0.8434  0.5366 -2.9283
 4888SOL    HW219350   2.402   2.384  11.683 -1.1855 -0.0249 -1.5693
 4889SOL     OW19351   8.698   8.044   2.759 -0.4068  0.1331  0.1152
 4889SOL    HW119352   8.756   7.985   2.712 -0.8338  1.4123 -2.1737
 4889SOL    HW219353   8.624   8.057   2.699 -1.4537  1.1019  1.5591
 4890SOL     OW19354   4.327   8.679   8.890  0.3766 -0.0973 -0.0854
 4890SOL    HW119355   4.240   8.641   8.879  1.5204 -2.5210 -1.4413
 4890SOL    HW219356   4.348   8.716   8.804  0.5106  0.9921  0.3904
 4891SOL     OW19357   2.065  10.051   1.614  0.0251  0.1391 -0.0420
 4891SOL    HW119358   2.008  10.009   1.549  0.0424  1.6184 -1.0901
 4891SOL    HW219359   2.004  10.091   1.677 -0.2180  2.1480 -1.4355
 4892SOL     OW19360   4.499   5.320   4.306  0.0965 -0.2882 -0.0155
 4892SOL    HW119361   4.511   5.363   4.221  0.2038 -0.6666 -0.1961
 4892SOL    HW219362   4.419   5.269   4.296  0.4218 -0.7948 -0.0880
 4893SOL     OW19363   2.490   6.101   9.493 -0.7014  0.1043  0.9654
 4893SOL    HW119364   2.584   6.087   9.499 -0.8574 -1.5944 -0.0097
 4893SOL    HW219365   2.451   6.026   9.539 -1.5882  0.4246  0.7632
 4894SOL     OW19366   0.788   4.515  11.521  0.1584 -0.2847 -0.2831
 4894SOL    HW119367   0.792   4.610  11.535  0.7287 -0.4987  1.1323
 4894SOL    HW219368   0.875   4.483  11.541 -0.5439 -1.3474  1.2529
 4895SOL     OW19369   3.378   5.076  10.697 -0.2316  0.5999 -0.3633
 4895SOL    HW119370   3.405   5.139  10.764 -0.2707 -0.4094  0.6256
 4895SOL    HW219371   3.417   5.110  10.616  1.6016  0.7459  0.5183
 4896SOL     OW19372   3.960   1.851   1.905  0.2081 -0.0716  0.2595
 4896SOL    HW119373   3.889   1.896   1.951  1.4023 -0.1799  2.3557
 4896SOL    HW219374   3.985   1.911   1.835 -1.6964  0.1006 -0.3434
 4897SOL     OW19375   5.085  11.224  11.999  0.2107 -0.4627  0.8614
 4897SOL    HW119376   5.173  11.195  11.975  0.0993 -0.1871  0.0898
 4897SOL    HW219377   5.026  11.168  11.949 -0.0027  1.0569 -0.6898
 4898SOL     OW19378   1.498   1.537   7.419  0.1991 -0.7908  0.0496
 4898SOL    HW119379   1.466   1.531   7.509  1.7501  0.3518  0.7401
 4898SOL    HW219380   1.545   1.455   7.404  0.8537 -0.5460  0.6947
 4899SOL     OW19381   3.230   8.716   9.894  0.4989  0.3926  0.0085
 4899SOL    HW119382   3.264   8.646   9.838  0.1852  0.7733 -0.6831
 4899SOL    HW219383   3.305   8.773   9.910  0.4881  0.5334 -0.4268
 4900SOL     OW19384  11.817   1.730   2.175  0.0413 -0.3539 -0.0605
 4900SOL    HW119385  11.890   1.679   2.210 -0.2047 -0.9832 -0.4532
 4900SOL    HW219386  11.806   1.801   2.238 -0.3273 -1.4132  1.1119
 4901SOL     OW19387  11.216   4.140   4.493 -0.2377  0.1851  0.0993
 4901SOL    HW119388  11.183   4.054   4.467  1.1651 -0.2108 -0.4957
 4901SOL    HW219389  11.263   4.125   4.575  1.9401 -0.1299 -1.1169
 4902SOL     OW19390  11.973   7.746   7.608 -0.3600 -0.3481  0.1136
 4902SOL    HW119391  11.971   7.760   7.514 -2.0367  2.5760  0.4470
 4902SOL    HW219392  11.993   7.654   7.619  0.4057 -0.6500 -3.0746
 4903SOL     OW19393   7.088   6.528   2.322 -0.5906 -0.4116 -0.5306
 4903SOL    HW119394   7.141   6.455   2.356 -0.5198 -0.0604  0.1304
 4903SOL    HW219395   7.146   6.605   2.330 -0.9643 -0.1396 -0.4387
 4904SOL     OW19396   0.135   7.196   6.484  0.1754  0.2640 -0.3388
 4904SOL    HW119397   0.130   7.100   6.493  0.8683  0.3451  1.5464
 4904SOL    HW219398   0.088   7.215   6.403  0.9434 -1.7648 -1.3473
 4905SOL     OW19399   3.902   1.251   5.521 -0.0698  0.0989  0.1571
 4905SOL    HW119400   3.839   1.312   5.480  0.9517  0.7192 -0.5512
 4905SOL    HW219401   3.924   1.190   5.451 -0.8978 -0.9662  0.7971
 4906SOL     OW19402   9.585  10.233  11.286 -0.0348  0.1109  0.4101
 4906SOL    HW119403   9.655  10.259  11.347 -0.4769 -0.2207  1.0754
 4906SOL    HW219404   9.631  10.211  11.205  0.4680  1.7338  0.2134
 4907SOL     OW19405   8.348   7.064  11.192  0.0203  0.3078 -0.2088
 4907SOL    HW119406   8.280   7.130  11.207 -0.3161 -0.1808  0.4710
 4907SOL    HW219407   8.315   7.011  11.119 -0.2679  0.1625  0.0232
 4908SOL     OW19408   5.008   5.170   8.920 -0.4261 -0.4251  0.0187
 4908SOL    HW119409   4.983   5.236   8.985  0.7696 -0.0736  0.1457
 4908SOL    HW219410   4.926   5.125   8.899 -0.9667 -0.0355  1.1988
 4909SOL     OW19411   7.162   4.839   9.556 -0.1544  0.0770 -0.4593
 4909SOL    HW119412   7.164   4.926   9.517 -0.5771  0.4146  0.2481
 4909SOL    HW219413   7.189   4.853   9.647 -0.2499 -0.5232 -0.3335
 4910SOL     OW19414   2.717  11.248   1.501  0.0902 -0.1861 -0.4951
 4910SOL    HW119415   2.643  11.308   1.511 -0.8156 -1.4318  0.9392
 4910SOL    HW219416   2.675  11.163   1.486  1.3146 -0.5781 -1.8930
 4911SOL     OW19417   4.058   9.487   7.748  0.4724  0.3810  0.0582
 4911SOL    HW119418   3.963   9.496   7.750  0.3530 -0.2793  3.0704
 4911SOL    HW219419   4.090   9.561   7.799  1.5691  0.5133 -0.8002
 4912SOL     OW19420   2.046  10.275   7.012  0.4941  0.1318  0.4326
 4912SOL    HW119421   1.984  10.226   6.959 -0.9475  2.0499  0.2848
 4912SOL    HW219422   2.124  10.218   7.016 -0.0887 -0.9383 -1.9928
 4913SOL     OW19423   0.601   2.539   8.607 -0.0442 -0.1901  0.0100
 4913SOL    HW119424   0.589   2.465   8.667 -0.7506 -0.2566 -0.2040
 4913SOL    HW219425   0.563   2.613   8.653  1.2374  0.1847  0.4960
 4914SOL     OW19426   8.007   6.629   4.507  0.9185  0.3341  0.0004
 4914SOL    HW119427   7.983   6.661   4.420  1.8387  1.6915  0.2237
 4914SOL    HW219428   8.088   6.580   4.493  0.3621 -0.5822 -0.0924
 4915SOL     OW19429  11.145   5.058   3.854  0.7721 -0.0700  0.0508
 4915SOL    HW119430  11.195   5.062   3.772  1.0295 -1.6801  0.0939
 4915SOL    HW219431  11.056   5.079   3.828  1.0049  0.2671 -0.4978
 4916SOL     OW19432   0.814  11.728   1.370  0.0125 -0.1012 -0.2570
 4916SOL    HW119433   0.804  11.636   1.344 -1.0638 -1.3243  3.8504
 4916SOL    HW219434   0.909  11.741   1.374  0.2065 -0.4283 -2.4740
 4917SOL     OW19435   7.194   1.209  11.807  0.4135  0.0430 -0.4779
 4917SOL    HW119436   7.256   1.143  11.778 -1.0926 -1.8676  0.3901
 4917SOL    HW219437   7.109   1.164  11.807 -0.6804  1.9661  0.2153
 4918SOL     OW19438   5.782   2.792   6.581  0.2049 -0.3121 -0.3081
 4918SOL    HW119439   5.731   2.864   6.618  0.2392 -0.8196  0.7672
 4918SOL    HW219440   5.872   2.822   6.584  0.2249 -0.4197  0.1931
 4919SOL     OW19441   3.539  10.918   1.320  0.3950  0.2402  0.3771
 4919SOL    HW119442   3.544  10.928   1.225  0.6969 -0.2629  0.3353
 4919SOL    HW219443   3.629  10.935   1.350 -0.2633  3.4092  0.8948
 4920SOL     OW19444  11.973   6.857   4.702 -0.2375  0.4029  0.2822
 4920SOL    HW119445  12.064   6.881   4.686 -0.1357 -0.3858 -0.3754
 4920SOL    HW219446  11.933   6.937   4.736  0.6718  0.7844  0.4936
 4921SOL     OW19447   2.532   3.504  10.224 -0.3785 -0.6824  0.0767
 4921SOL    HW119448   2.493   3.434  10.276 -1.7808  0.1283  0.1647
 4921SOL    HW219449   2.545   3.466  10.137  0.4851 -1.5524  0.5629
 4922SOL     OW19450   7.856   8.468   0.781  0.1500  0.4458  0.2550
 4922SOL    HW119451   7.791   8.538   0.769 -0.6322 -0.3767 -0.4431
 4922SOL    HW219452   7.807   8.397   0.824  0.8020  0.1317  0.4904
 4923SOL     OW19453   9.839  11.373  10.362  0.3091 -0.3991 -0.2890
 4923SOL    HW119454   9.866  11.332  10.279  0.8142 -1.2767  0.2915
 4923SOL    HW219455   9.762  11.323  10.389  1.3308 -1.4702  0.7706
 4924SOL     OW19456   3.069   8.867   9.267  0.4119 -0.0371  0.4811
 4924SOL    HW119457   3.014   8.864   9.189  1.4936 -1.7905 -0.2787
 4924SOL    HW219458   3.051   8.784   9.313  0.2979  0.6634  1.7652
 4925SOL     OW19459   7.566  10.973   0.474 -0.2108 -0.0624  0.4392
 4925SOL    HW119460   7.550  10.880   0.492  1.9920 -0.6760 -0.4301
 4925SOL    HW219461   7.662  10.980   0.470 -0.2996  2.4130  1.2156
 4926SOL     OW19462   8.850   8.177  10.172 -0.1816  0.2243 -0.3852
 4926SOL    HW119463   8.823   8.171  10.081 -0.7976  0.1133 -0.2000
 4926SOL    HW219464   8.769   8.190  10.221  0.2268  1.1657  0.0711
 4927SOL     OW19465   1.921  10.194   1.771  0.3513  0.0483 -0.2616
 4927SOL    HW119466   1.832  10.207   1.738  0.0502  2.5943  1.2322
 4927SOL    HW219467   1.910  10.184   1.866  1.5675 -1.0403 -0.2110
 4928SOL     OW19468   6.368   3.999   4.040 -0.0768 -0.4247  0.0293
 4928SOL    HW119469   6.341   3.976   4.129 -1.4930 -0.4103 -0.3866
 4928SOL    HW219470   6.402   3.917   4.004 -2.0344 -1.1324 -0.3199
 4929SOL     OW19471   2.515   5.648   9.391  0.1702  0.4194  0.0730
 4929SOL    HW119472   2.512   5.725   9.447 -1.8605  2.5561 -2.6604
 4929SOL    HW219473   2.594   5.659   9.338 -0.0481  0.5973 -0.2236
 4930SOL     OW19474   4.454   2.414   5.154  0.2511  0.4098 -0.4918
 4930SOL    HW119475   4.501   2.362   5.090  1.1610  1.1981 -0.4850
 4930SOL    HW219476   4.368   2.428   5.115  0.3470 -0.2098 -0.9478
 4931SOL     OW19477   1.150   3.793   9.605 -0.5642 -0.0557  0.0113
 4931SOL    HW119478   1.146   3.826   9.694 -0.3773 -0.3045  0.1121
 4931SOL    HW219479   1.235   3.823   9.572 -0.4680 -0.2927  0.0453
 4932SOL     OW19480   9.555  11.823   8.971  0.1271 -0.3156  0.2606
 4932SOL    HW119481   9.520  11.885   8.907  0.3315  0.7298  1.1220
 4932SOL    HW219482   9.480  11.770   8.997  0.2551 -1.4896 -1.6183
 4933SOL     OW19483  11.278   5.645   4.909  0.0701 -0.5031 -0.2244
 4933SOL    HW119484  11.189   5.638   4.946 -0.4532 -0.9587 -1.5112
 4933SOL    HW219485  11.332   5.593   4.969 -0.2773  0.7604  1.2631
 4934SOL     OW19486   8.735   4.130   5.761 -0.1684  0.5779  0.2918
 4934SOL    HW119487   8.654   4.080   5.755  0.2817  0.0191 -2.7926
 4934SOL    HW219488   8.788   4.083   5.826 -1.7062  0.1234  1.2685
 4935SOL     OW19489  11.795   3.128  11.968  0.0407  0.0051  0.1468
 4935SOL    HW119490  11.860   3.149  12.035 -0.3229  1.7368  0.0135
 4935SOL    HW219491  11.793   3.205  11.911  0.5286 -1.5033 -2.0587
 4936SOL     OW19492  11.173   7.125   3.234  0.1678 -0.6807  0.3170
 4936SOL    HW119493  11.148   7.064   3.165  0.5906  1.8607 -2.2453
 4936SOL    HW219494  11.093   7.174   3.253  0.7559  0.7476 -0.7142
 4937SOL     OW19495   8.778   8.935  11.609 -0.0817 -0.2647  0.1790
 4937SOL    HW119496   8.870   8.949  11.628  0.4447 -2.3540 -0.6173
 4937SOL    HW219497   8.768   8.959  11.517 -0.3311 -0.0879  0.2485
 4938SOL     OW19498   6.819   3.356   0.582  0.3166 -0.5571  0.6995
 4938SOL    HW119499   6.879   3.282   0.590  0.0707 -0.6815  1.4673
 4938SOL    HW219500   6.735   3.322   0.612  0.5069  0.3967  2.4635
 4939SOL     OW19501   4.449   3.348   3.415 -0.6440 -0.1542 -0.1538
 4939SOL    HW119502   4.468   3.281   3.481  0.3559  0.0084 -0.2705
 4939SOL    HW219503   4.378   3.400   3.454 -1.5737 -1.3836 -0.1478
 4940SOL     OW19504  11.312  10.808   6.119 -0.2256  0.3338  0.3078
 4940SOL    HW119505  11.401  10.834   6.092 -0.4141  0.7869  0.1031
 4940SOL    HW219506  11.295  10.727   6.071 -0.0983  0.4954 -0.0143
 4941SOL     OW19507  11.412   2.824  11.913 -0.7618  0.0241  0.4670
 4941SOL    HW119508  11.421   2.775  11.994 -2.7277 -0.4536  0.4456
 4941SOL    HW219509  11.352   2.896  11.934  1.9481  2.4799  0.4748
 4942SOL     OW19510  10.558   9.577   8.147 -0.4873  0.1630  0.6133
 4942SOL    HW119511  10.483   9.555   8.203 -1.3141 -1.1529 -0.9105
 4942SOL    HW219512  10.519   9.594   8.061  0.9494 -0.3797 -0.1748
 4943SOL     OW19513   5.966   2.852   5.233 -0.4174  0.1253  0.1182
 4943SOL    HW119514   5.979   2.845   5.139 -2.0592  2.6889 -0.3995
 4943SOL    HW219515   5.878   2.817   5.248  0.0911 -0.9197  0.8654
 4944SOL     OW19516   0.556   6.096   5.561 -0.2554 -0.2043 -0.2685
 4944SOL    HW119517   0.641   6.140   5.561 -1.2072  1.7936  1.2839
 4944SOL    HW219518   0.534   6.087   5.468  0.7360  1.1367 -0.6724
 4945SOL     OW19519  11.287   7.504   3.627  0.2644 -0.3480  0.6387
 4945SOL    HW119520  11.293   7.504   3.722 -1.5495 -0.1614  0.7891
 4945SOL    HW219521  11.246   7.420   3.606  0.0840 -0.1203  0.0740
 4946SOL     OW19522   0.795   1.249  11.654  0.0443 -0.2758  0.2871
 4946SOL    HW119523   0.789   1.280  11.563 -0.0550  0.6142  0.5909
 4946SOL    HW219524   0.705   1.229  11.679 -0.3791  2.3305  1.1451
 4947SOL     OW19525  11.690   7.322   9.026  0.0058 -0.3303 -0.1779
 4947SOL    HW119526  11.699   7.381   8.952  1.5312  0.4825  0.6133
 4947SOL    HW219527  11.603   7.284   9.016 -0.5836  1.2219 -1.3160
 4948SOL     OW19528   1.317   9.789   9.432  0.5740 -0.0503 -0.1516
 4948SOL    HW119529   1.383   9.825   9.372 -0.0458  1.7483  0.1677
 4948SOL    HW219530   1.284   9.711   9.387  1.8354 -0.1307 -1.0105
 4949SOL     OW19531   0.567   6.194  10.982  0.0694 -1.0208 -0.2338
 4949SOL    HW119532   0.482   6.165  10.948 -0.3162 -1.3580  0.9836
 4949SOL    HW219533   0.611   6.112  11.007  0.7173 -0.8399 -0.7692
 4950SOL     OW19534   8.886   4.194   4.517 -0.1754  0.3206 -0.2297
 4950SOL    HW119535   8.846   4.149   4.592 -1.0974  1.1548 -0.2073
 4950SOL    HW219536   8.973   4.155   4.510 -0.0407  0.2685  1.3177
 4951SOL     OW19537   2.554  11.939   1.306  0.7018 -0.1103 -0.3346
 4951SOL    HW119538   2.580  12.025   1.339  0.8625 -0.0662 -0.5712
 4951SOL    HW219539   2.496  11.904   1.373 -0.1348  0.5900 -0.6722
 4952SOL     OW19540   6.662   3.875   7.014 -0.2845 -0.8170 -0.4998
 4952SOL    HW119541   6.656   3.810   6.944  1.1031  0.4161 -1.8245
 4952SOL    HW219542   6.733   3.933   6.988 -0.2452  0.1674  1.5586
 4953SOL     OW19543   0.841   4.104   9.284 -0.7438  0.8921  0.5326
 4953SOL    HW119544   0.922   4.107   9.232  0.1410 -0.1728  1.7515
 4953SOL    HW219545   0.778   4.060   9.228  0.8359 -2.3316  1.0021
 4954SOL     OW19546   1.555   8.615   8.068  0.0712  0.7578  0.2104
 4954SOL    HW119547   1.628   8.580   8.016 -0.8237 -0.6616 -0.1320
 4954SOL    HW219548   1.511   8.677   8.010  0.2174  0.6317 -0.0362
 4955SOL     OW19549   4.208   2.208  11.020 -0.0203  0.5894  0.6215
 4955SOL    HW119550   4.281   2.256  10.981  0.2291 -0.5327 -0.3497
 4955SOL    HW219551   4.131   2.236  10.970 -0.0857  0.8861  0.8785
 4956SOL     OW19552   4.153   6.663   2.299 -0.3157  0.1750 -0.0356
 4956SOL    HW119553   4.097   6.702   2.232 -0.6625  4.0815  2.2310
 4956SOL    HW219554   4.241   6.672   2.265 -0.4852  2.1262 -0.0298
 4957SOL     OW19555   1.316   6.355   7.596  0.2333 -0.2002  0.3461
 4957SOL    HW119556   1.300   6.401   7.678 -2.2685  1.1508 -0.7698
 4957SOL    HW219557   1.298   6.263   7.616 -1.5547  0.2714  1.0864
 4958SOL     OW19558   4.820   6.620   1.862 -0.3685 -0.2501  0.0474
 4958SOL    HW119559   4.883   6.678   1.904  0.2297 -1.5540  1.0023
 4958SOL    HW219560   4.831   6.636   1.768  0.7697  0.1640  0.2398
 4959SOL     OW19561  11.881   2.565   1.770 -0.0891 -0.2804  0.1863
 4959SOL    HW119562  11.857   2.474   1.786  1.1843 -0.8783 -1.1458
 4959SOL    HW219563  11.965   2.561   1.725 -0.5173  1.4985 -0.8975
 4960SOL     OW19564   1.704   8.654   1.250 -0.5520  0.3099  0.1336
 4960SOL    HW119565   1.730   8.588   1.314  0.6658  0.2751 -0.3631
 4960SOL    HW219566   1.758   8.730   1.271 -1.1790  0.7914  0.0368
 4961SOL     OW19567  11.591   4.710   5.034 -0.3369  0.6110  0.2410
 4961SOL    HW119568  11.510   4.658   5.037 -0.2702  0.5347  0.8089
 4961SOL    HW219569  11.574   4.783   5.093 -0.3656  1.1492 -0.4205
 4962SOL     OW19570   5.772   9.196   9.143  0.0251 -0.5284  0.1954
 4962SOL    HW119571   5.689   9.197   9.095 -0.0056 -0.5774  0.2475
 4962SOL    HW219572   5.751   9.152   9.226 -0.3862  1.2163  1.0789
 4963SOL     OW19573   0.225   3.180  10.481 -0.1642  0.0803  0.6424
 4963SOL    HW119574   0.262   3.117  10.542  1.5057  0.8933  0.5408
 4963SOL    HW219575   0.156   3.224  10.530 -2.8112 -3.1136  0.0932
 4964SOL     OW19576   6.079   0.640   4.168 -0.9000  0.7507  0.0980
 4964SOL    HW119577   6.063   0.573   4.234 -0.6991  0.8272  0.2242
 4964SOL    HW219578   6.174   0.652   4.168 -1.1149  3.1942  2.2181
 4965SOL     OW19579   6.027   9.571   8.610 -0.3098  1.0077  0.1861
 4965SOL    HW119580   6.016   9.563   8.705 -1.0902 -0.7524  0.0034
 4965SOL    HW219581   6.097   9.635   8.598  0.8109  0.1897  1.9963
 4966SOL     OW19582   8.532   7.574   4.736 -0.1166  0.1496  0.1320
 4966SOL    HW119583   8.608   7.547   4.788  0.1468 -0.6664 -0.6511
 4966SOL    HW219584   8.461   7.519   4.768 -0.0831  0.0261 -0.0100
 4967SOL     OW19585   5.341   2.885   2.309 -0.1863 -0.9131  0.3387
 4967SOL    HW119586   5.358   2.870   2.216  0.3733  0.5048  0.1784
 4967SOL    HW219587   5.357   2.979   2.321  1.5986 -1.3843  2.2347
 4968SOL     OW19588   0.177   6.999   3.757 -0.4683  0.0411  0.2354
 4968SOL    HW119589   0.206   6.943   3.829 -1.6478 -0.3179  0.4490
 4968SOL    HW219590   0.091   7.030   3.783 -0.6781  0.3564 -0.7802
 4969SOL     OW19591   6.636   4.147   1.916 -0.3678  0.4408 -0.6316
 4969SOL    HW119592   6.671   4.224   1.960 -0.0388 -0.0772  0.0360
 4969SOL    HW219593   6.611   4.088   1.987 -1.9994  0.5215 -1.1028
 4970SOL     OW19594   7.607   7.121  10.171  0.2528  0.1545 -0.2031
 4970SOL    HW119595   7.666   7.195  10.160 -0.0323  0.4495  0.2374
 4970SOL    HW219596   7.546   7.127  10.097  0.4911  0.1063 -0.4066
 4971SOL     OW19597   5.912   4.674  11.423 -0.1382  0.1166 -0.5132
 4971SOL    HW119598   5.862   4.607  11.470 -0.8612  1.5807  0.9322
 4971SOL    HW219599   5.848   4.717  11.366 -0.2803  1.0771  0.3182
 4972SOL     OW19600   2.734   3.195   5.443 -0.0616 -0.7710 -0.1120
 4972SOL    HW119601   2.692   3.228   5.522 -0.5749  0.4777 -0.8670
 4972SOL    HW219602   2.818   3.161   5.473  0.1901  0.5910  0.8572
 4973SOL     OW19603   4.158   9.836   9.000  0.3165 -0.6117 -0.0136
 4973SOL    HW119604   4.232   9.878   8.955 -0.2164  1.2130  0.7276
 4973SOL    HW219605   4.081   9.873   8.958 -0.1830  0.3621  1.7061
 4974SOL     OW19606   3.159   1.926  10.901  0.3919 -0.2121  0.0481
 4974SOL    HW119607   3.157   1.874  10.981  0.9443 -0.9133 -0.3725
 4974SOL    HW219608   3.103   1.878  10.840  1.4149 -0.6819 -0.5458
 4975SOL     OW19609   7.957  11.282   7.278  0.3149  0.1344 -0.2612
 4975SOL    HW119610   8.047  11.273   7.310  0.4084 -2.9676 -1.1254
 4975SOL    HW219611   7.953  11.372   7.245  2.7900  0.6732  0.6748
 4976SOL     OW19612   5.693  10.634   4.340 -0.2952 -0.3708 -0.9662
 4976SOL    HW119613   5.694  10.711   4.397  1.1519 -1.8442  1.1214
 4976SOL    HW219614   5.779  10.633   4.298  0.3188 -1.6323  0.2314
 4977SOL     OW19615   6.034   9.403   1.943  0.0964  0.4375  0.6736
 4977SOL    HW119616   6.061   9.342   2.012  0.9999  0.4282  0.3171
 4977SOL    HW219617   5.947   9.432   1.971 -0.4044 -1.0820  0.7971
 4978SOL     OW19618   4.390   7.015   0.950  0.6382  0.0414  0.1944
 4978SOL    HW119619   4.302   6.986   0.974  1.0059 -1.0585  0.2572
 4978SOL    HW219620   4.414   6.961   0.875  1.1428  0.5574 -0.0297
 4979SOL     OW19621   7.455   8.392   1.617 -0.3280  0.3862 -0.5765
 4979SOL    HW119622   7.462   8.442   1.535 -0.9910  0.2063 -0.7459
 4979SOL    HW219623   7.361   8.390   1.636 -0.0370  4.0218  2.4304
 4980SOL     OW19624   3.271  10.724  11.548 -0.0427 -0.2213 -0.2984
 4980SOL    HW119625   3.239  10.782  11.478  0.9943  0.3079 -0.3617
 4980SOL    HW219626   3.208  10.735  11.619  0.1585  1.0658 -0.2884
 4981SOL     OW19627   8.573   2.445   1.930 -0.4991 -0.2622  0.2142
 4981SOL    HW119628   8.596   2.531   1.964  1.2066  0.1939 -1.8941
 4981SOL    HW219629   8.502   2.462   1.867  0.0240 -0.3485 -0.4033
 4982SOL     OW19630   3.872   0.545   5.888  0.3918 -0.2619 -0.0312
 4982SOL    HW119631   3.909   0.553   5.800  0.6694 -2.8198 -0.2103
 4982SOL    HW219632   3.781   0.520   5.873  0.1057  0.4765  0.4301
 4983SOL     OW19633   5.371   8.830   2.156  0.3870  0.1344 -0.0097
 4983SOL    HW119634   5.306   8.796   2.094  1.4076 -1.2002 -0.3941
 4983SOL    HW219635   5.336   8.915   2.183 -1.6134 -0.6267 -0.0425
 4984SOL     OW19636   7.406   4.979  10.788 -0.4148 -1.1365 -0.0852
 4984SOL    HW119637   7.403   4.995  10.883 -1.1514 -1.0743 -0.1128
 4984SOL    HW219638   7.478   4.917  10.777  1.2373  0.6356  0.2413
 4985SOL     OW19639  11.663   6.575   3.731 -0.1628  0.5353 -0.0248
 4985SOL    HW119640  11.654   6.576   3.826  0.6904  0.9097  0.0638
 4985SOL    HW219641  11.750   6.611   3.715  1.2056 -2.7154 -0.7713
 4986SOL     OW19642   7.395   1.391   7.271  0.0541 -0.0424 -0.4124
 4986SOL    HW119643   7.379   1.337   7.194  0.1290  1.6650 -1.6630
 4986SOL    HW219644   7.486   1.418   7.263 -0.1012  0.6215 -0.0352
 4987SOL     OW19645   0.104   1.501   7.372  0.1914  0.0958 -0.2254
 4987SOL    HW119646   0.089   1.520   7.465 -0.8491  2.0971 -0.7460
 4987SOL    HW219647   0.190   1.539   7.354 -0.4228  1.4050 -0.4850
 4988SOL     OW19648   0.698   3.033   7.543 -0.2780 -0.0043 -0.0367
 4988SOL    HW119649   0.709   3.019   7.449 -0.1044 -1.6774  0.2049
 4988SOL    HW219650   0.634   3.104   7.549 -0.8412 -0.3546 -1.4099
 4989SOL     OW19651   5.810   9.588   0.762 -0.1343 -0.0060  0.5327
 4989SOL    HW119652   5.876   9.652   0.790 -0.4788 -0.0687  1.5426
 4989SOL    HW219653   5.726   9.629   0.782 -0.4574  0.4054 -1.4832
 4990SOL     OW19654   2.480   1.811   6.025 -0.3178  0.2063  0.9257
 4990SOL    HW119655   2.459   1.895   5.986  1.0722  0.0132 -0.3512
 4990SOL    HW219656   2.397   1.779   6.061 -1.8463  0.2610 -2.1875
 4991SOL     OW19657   8.834  11.644  11.348  0.0650 -0.3217 -0.0233
 4991SOL    HW119658   8.907  11.603  11.301  0.5287  0.8503 -0.3548
 4991SOL    HW219659   8.763  11.645  11.284 -0.0074 -0.7710  0.0484
 4992SOL     OW19660   3.028  11.245   5.623 -0.0513  0.2331  0.1454
 4992SOL    HW119661   2.997  11.155   5.622  2.2045 -0.6130 -0.2896
 4992SOL    HW219662   2.995  11.282   5.705  1.2736 -1.8880  1.7245
 4993SOL     OW19663   3.136   0.313   6.068  0.1232 -0.0486 -0.1471
 4993SOL    HW119664   3.098   0.397   6.096  0.3464  1.0556 -2.8544
 4993SOL    HW219665   3.078   0.281   6.000  1.0333 -1.1704 -0.4293
 4994SOL     OW19666   4.938   9.527  11.775  0.4790 -0.8545 -0.2172
 4994SOL    HW119667   4.981   9.570  11.701  1.3302  0.5598  1.0391
 4994SOL    HW219668   4.994   9.452  11.795  0.2003 -1.2885 -1.0501
 4995SOL     OW19669   4.833   4.598   1.620  0.3865  0.2208  0.3505
 4995SOL    HW119670   4.887   4.538   1.671  0.6647  2.4528  2.8755
 4995SOL    HW219671   4.782   4.647   1.685 -1.5610  1.1549 -1.7015
 4996SOL     OW19672   5.091   4.730  10.743 -0.3540 -0.4390  0.1951
 4996SOL    HW119673   5.040   4.767  10.815 -0.5775  0.5837 -0.4614
 4996SOL    HW219674   5.130   4.806  10.700  0.0272 -1.0569 -0.5722
 4997SOL     OW19675  11.915   7.908  10.664  0.4120 -0.3775  0.0975
 4997SOL    HW119676  11.862   7.984  10.642  0.9910 -0.1229 -0.4635
 4997SOL    HW219677  11.854   7.847  10.705 -0.5430 -0.4740 -1.3765
 4998SOL     OW19678   8.413   8.433  10.367  0.5094 -0.1622 -0.2149
 4998SOL    HW119679   8.352   8.489  10.415 -0.3750 -0.2684 -1.1625
 4998SOL    HW219680   8.486   8.419  10.427 -0.1516  0.4186  0.7497
 4999SOL     OW19681   8.319  10.814   9.015  0.6697 -0.5002  0.0695
 4999SOL    HW119682   8.372  10.803   9.095 -0.4803  0.3470  0.9844
 4999SOL    HW219683   8.247  10.871   9.042 -0.3479 -1.0823 -1.3258
 5000SOL     OW19684   2.768  11.102   9.456 -0.1773 -0.2017  0.5956
 5000SOL    HW119685   2.760  11.197   9.459 -0.1111 -0.1659 -0.1478
 5000SOL    HW219686   2.823  11.085   9.380 -1.2154 -0.8791 -0.0379
 5001SOL     OW19687   4.400  11.943   8.666 -0.1887  0.1754  0.0238
 5001SOL    HW119688   4.421  12.001   8.740 -0.1687 -1.3516  1.2628
 5001SOL    HW219689   4.481  11.894   8.651 -0.5826 -0.4211 -0.1575
 5002SOL     OW19690   7.619   4.513  10.651  0.2618 -0.2497 -0.2025
 5002SOL    HW119691   7.561   4.573  10.603  0.8747 -0.5343 -1.3206
 5002SOL    HW219692   7.562   4.476  10.719 -0.1467  1.5535  0.5245
 5003SOL     OW19693   6.916   8.326   9.360  0.1927 -0.5887  0.0744
 5003SOL    HW119694   6.901   8.404   9.413 -0.8741  0.4904 -1.7114
 5003SOL    HW219695   7.011   8.320   9.351  0.2830  0.5376  0.2102
 5004SOL     OW19696   9.407   7.349   4.896  0.8451 -0.0671 -0.1315
 5004SOL    HW119697   9.343   7.371   4.963 -0.7553  0.0529 -1.6175
 5004SOL    HW219698   9.438   7.433   4.863  1.9142 -0.1239  0.6770
 5005SOL     OW19699   3.693   9.748   2.033  0.1863  0.2109  0.2092
 5005SOL    HW119700   3.752   9.803   2.083 -1.0969  0.0337  2.0069
 5005SOL    HW219701   3.742   9.667   2.017  0.5677  0.2183  1.3043
 5006SOL     OW19702   8.078  11.547   3.796 -0.1845 -0.2637 -0.4149
 5006SOL    HW119703   8.094  11.453   3.802  1.6651 -0.0380 -1.0697
 5006SOL    HW219704   8.140  11.586   3.857  0.8617  0.6273 -1.9721
 5007SOL     OW19705   7.025   3.969  11.848 -0.6598  0.1424  0.6268
 5007SOL    HW119706   7.072   4.019  11.781 -0.9344  1.9525  1.7324
 5007SOL    HW219707   7.079   3.890  11.861  1.0483  1.2309  0.4569
 5008SOL     OW19708   6.485  11.781  11.337  0.0863 -0.0811  0.0966
 5008SOL    HW119709   6.539  11.761  11.414 -0.6695 -0.7526  0.4754
 5008SOL    HW219710   6.431  11.703  11.326 -0.1634  0.2155 -0.8220
 5009SOL     OW19711   0.740  10.423   2.963  0.4632  0.1474  0.0099
 5009SOL    HW119712   0.790  10.359   3.013 -0.8469 -1.1987 -0.3334
 5009SOL    HW219713   0.648  10.400   2.979 -0.0300  1.3482 -0.9010
 5010SOL     OW19714   2.982   7.360   5.342  0.3930 -0.1151  0.2731
 5010SOL    HW119715   3.057   7.416   5.323  0.0550 -0.0657 -1.0650
 5010SOL    HW219716   2.951   7.331   5.255 -0.2988 -1.2295  0.8651
 5011SOL     OW19717   3.043  11.561   8.014  0.6507  0.3380  0.6451
 5011SOL    HW119718   3.048  11.657   8.014 -0.9241  0.4858 -1.4698
 5011SOL    HW219719   3.117  11.533   7.960 -0.2026  0.5070 -0.6322
 5012SOL     OW19720   1.462   2.692  10.684  0.1064 -0.3125 -0.3829
 5012SOL    HW119721   1.504   2.777  10.699 -0.8881 -0.0603  1.2316
 5012SOL    HW219722   1.456   2.685  10.589 -0.4551  1.7937 -0.5663
 5013SOL     OW19723   1.928   2.755   1.033 -0.4218  0.3563 -0.0567
 5013SOL    HW119724   1.851   2.797   1.072 -0.9081 -0.4432 -0.1554
 5013SOL    HW219725   1.895   2.713   0.954 -0.5091 -2.4175  1.3397
 5014SOL     OW19726   4.067   1.943   3.322  0.2212 -0.6793  0.0575
 5014SOL    HW119727   4.067   1.877   3.253  0.6695 -1.0318  0.3872
 5014SOL    HW219728   4.154   1.937   3.361  0.5613  0.6706 -0.4365
 5015SOL     OW19729   2.042   6.997   2.733 -0.4224 -0.0254 -0.2504
 5015SOL    HW119730   1.953   7.010   2.701 -1.3178  0.2236  2.1190
 5015SOL    HW219731   2.041   7.036   2.821  1.8778 -0.5002  0.0327
 5016SOL     OW19732   3.256   0.524   5.076  0.2570 -0.4975 -0.6460
 5016SOL    HW119733   3.281   0.604   5.122 -0.7118 -1.3351  1.4603
 5016SOL    HW219734   3.338   0.490   5.040  0.9587  0.5166 -0.0504
 5017SOL     OW19735   4.037  10.185   6.901  0.5262  0.1706 -0.0578
 5017SOL    HW119736   3.962  10.233   6.936  1.5627  1.2255  0.7727
 5017SOL    HW219737   3.998  10.121   6.841 -0.9383  1.7480 -0.8794
 5018SOL     OW19738   1.853   8.358   8.677  0.5586  0.2315 -0.7367
 5018SOL    HW119739   1.776   8.363   8.621 -0.5294  3.5486  0.7984
 5018SOL    HW219740   1.828   8.300   8.749  0.8821 -1.5992 -2.0454
 5019SOL     OW19741   2.274   1.031   2.804 -0.5058  0.0119 -0.3839
 5019SOL    HW119742   2.272   1.113   2.754 -1.6505 -0.1708 -0.6739
 5019SOL    HW219743   2.341   0.978   2.762  0.9136  1.1325  0.3751
 5020SOL     OW19744   6.392  10.438   3.311  0.1417 -0.1016 -0.3741
 5020SOL    HW119745   6.436  10.403   3.233 -0.0055  2.1731 -1.5693
 5020SOL    HW219746   6.378  10.530   3.291 -1.7667  0.1047  1.5488
 5021SOL     OW19747   0.288   9.033   4.709  0.1286  0.0248 -0.0739
 5021SOL    HW119748   0.196   9.006   4.718  0.4189 -1.5087 -1.3761
 5021SOL    HW219749   0.287   9.126   4.731 -1.6202 -0.1120  0.5950
 5022SOL     OW19750   9.773   8.224   1.233  0.8838  0.0775  0.3999
 5022SOL    HW119751   9.736   8.232   1.321 -0.3902 -1.4349  0.0376
 5022SOL    HW219752   9.728   8.291   1.182 -0.1712 -0.6207  0.3694
 5023SOL     OW19753   7.101   0.163   5.414  0.0433 -0.4042  0.2310
 5023SOL    HW119754   7.106   0.192   5.323 -0.2217 -1.2160 -0.0547
 5023SOL    HW219755   7.183   0.115   5.428  1.7675  2.6308  1.5207
 5024SOL     OW19756   4.428  10.596   8.337  0.0976 -0.4976 -0.0882
 5024SOL    HW119757   4.402  10.654   8.409 -0.6322 -1.6516  0.6212
 5024SOL    HW219758   4.497  10.644   8.291 -0.7023  1.0562  0.2599
 5025SOL     OW19759   7.818   1.946   3.942 -0.3536  0.4793 -0.1374
 5025SOL    HW119760   7.845   1.856   3.923 -0.3709  0.2004  1.0802
 5025SOL    HW219761   7.899   1.997   3.936 -0.5913  0.6853 -2.3723
 5026SOL     OW19762   4.396   2.788   0.124  0.3516  0.4421  0.1865
 5026SOL    HW119763   4.348   2.847   0.181  1.4607  1.4516  0.1112
 5026SOL    HW219764   4.484   2.783   0.163  1.3385  1.6629 -1.7120
 5027SOL     OW19765   6.795   3.436   7.192 -0.0867 -0.0404 -0.0771
 5027SOL    HW119766   6.848   3.413   7.269  0.9689  0.9884 -0.4617
 5027SOL    HW219767   6.754   3.519   7.216  0.0724  0.1731 -0.5290
 5028SOL     OW19768  11.168  10.936   1.888  0.4956  0.2305  0.2199
 5028SOL    HW119769  11.231  10.891   1.945  0.7502 -2.1460 -1.7628
 5028SOL    HW219770  11.223  10.985   1.826  0.3803 -0.3554 -0.3612
 5029SOL     OW19771   0.579  11.227   6.640  0.1672  0.5594 -0.3802
 5029SOL    HW119772   0.664  11.248   6.601  0.2388  0.1529 -0.4479
 5029SOL    HW219773   0.594  11.231   6.734  1.1199 -2.6699 -0.2885
 5030SOL     OW19774   8.419   1.671   0.739  0.4405 -0.4803 -0.0895
 5030SOL    HW119775   8.344   1.710   0.693  1.4756 -0.4575 -1.8428
 5030SOL    HW219776   8.474   1.746   0.763 -0.0476 -0.5002  1.1700
 5031SOL     OW19777   0.747   8.225   5.676  0.1795  0.4857  0.0316
 5031SOL    HW119778   0.697   8.273   5.742  1.8776 -2.0521  3.5266
 5031SOL    HW219779   0.681   8.176   5.627 -1.0551 -0.7872  2.7622
 5032SOL     OW19780   6.728  10.881   8.754 -0.0036  0.6592 -0.8631
 5032SOL    HW119781   6.779  10.925   8.822 -0.3726  0.9200 -0.7529
 5032SOL    HW219782   6.763  10.792   8.752 -1.6065 -0.1458  1.4187
 5033SOL     OW19783   8.752   7.228   3.733  0.7043 -0.9645  0.9158
 5033SOL    HW119784   8.810   7.302   3.713  0.9436 -0.9993  1.4614
 5033SOL    HW219785   8.762   7.169   3.659 -0.6238  0.2198 -0.2759
 5034SOL     OW19786   3.179   8.694   8.692  0.1158  0.2410  0.2696
 5034SOL    HW119787   3.093   8.656   8.707  0.3503 -0.2711  0.3432
 5034SOL    HW219788   3.162   8.776   8.646 -0.2920 -1.2260 -2.4419
 5035SOL     OW19789   7.334   4.368   2.369  0.4993 -0.0632  0.4755
 5035SOL    HW119790   7.254   4.394   2.413 -0.5639 -2.7356  0.3003
 5035SOL    HW219791   7.394   4.441   2.383 -1.3022  1.1673  2.3083
 5036SOL     OW19792  11.898   0.347  10.178 -0.1027  0.1368 -0.1972
 5036SOL    HW119793  11.844   0.297  10.240 -2.9606  0.8785 -1.9195
 5036SOL    HW219794  11.914   0.286  10.106  1.1045  0.0383  0.1434
 5037SOL     OW19795   6.963   1.838   1.384 -0.5148 -0.6813 -0.2573
 5037SOL    HW119796   6.956   1.927   1.419  1.7763 -1.0818  1.4447
 5037SOL    HW219797   6.972   1.850   1.289 -0.6324  0.8509 -0.1049
 5038SOL     OW19798   2.348  11.780   7.031 -0.0003  0.5257  0.3434
 5038SOL    HW119799   2.263  11.808   6.998 -0.4153 -1.2631 -0.2313
 5038SOL    HW219800   2.337  11.774   7.126 -1.0210 -1.1251  0.1622
 5039SOL     OW19801  10.407   2.958   8.152 -0.4606  0.3419 -0.5064
 5039SOL    HW119802  10.437   3.013   8.224  0.7925 -1.8456  0.7775
 5039SOL    HW219803  10.437   3.002   8.073  1.8686  0.7625  0.5403
 5040SOL     OW19804   9.504   5.825   4.616 -0.2973 -0.8803  1.2056
 5040SOL    HW119805   9.503   5.841   4.521 -0.4322  0.5034  1.4233
 5040SOL    HW219806   9.436   5.759   4.629 -0.8789 -0.4497  0.4369
 5041SOL     OW19807  10.443   3.779   4.953 -0.1747 -0.5089  0.4050
 5041SOL    HW119808  10.437   3.758   5.046 -0.2738 -1.3915  0.2174
 5041SOL    HW219809  10.407   3.701   4.909 -0.1105 -0.1163 -0.3672
 5042SOL     OW19810   7.747   4.219   5.542  0.1163 -0.3053  0.4638
 5042SOL    HW119811   7.685   4.193   5.610 -1.2753  1.4893 -0.0410
 5042SOL    HW219812   7.789   4.298   5.577 -0.1147  0.2323 -0.4344
 5043SOL     OW19813   4.657   1.532   0.631  0.7293 -0.7558  0.3155
 5043SOL    HW119814   4.741   1.567   0.600  0.0539  2.2394  1.5228
 5043SOL    HW219815   4.607   1.518   0.550  1.0990  1.1471 -0.3116
 5044SOL     OW19816   5.377   4.313   0.728  0.0025 -0.3190  0.5268
 5044SOL    HW119817   5.429   4.299   0.807 -0.4231 -0.3486  0.8023
 5044SOL    HW219818   5.311   4.243   0.730 -0.5706  0.2183  0.6174
 5045SOL     OW19819   5.383  10.756   9.526 -0.2528 -0.1795 -0.0170
 5045SOL    HW119820   5.429  10.672   9.532 -0.9306 -0.5346  0.2361
 5045SOL    HW219821   5.411  10.804   9.604  0.2291 -0.1174 -0.2243
 5046SOL     OW19822   4.451  10.629   6.488  0.2392 -0.1330  0.1687
 5046SOL    HW119823   4.471  10.536   6.486 -0.1983 -0.2180 -0.2457
 5046SOL    HW219824   4.524  10.668   6.536  0.2404 -0.7316  0.6588
 5047SOL     OW19825   1.516  10.363   5.597  0.4689 -0.5860 -0.5534
 5047SOL    HW119826   1.574  10.370   5.521 -1.4965  1.3545 -2.0133
 5047SOL    HW219827   1.554  10.423   5.662  0.6063 -0.0249 -1.1417
 5048SOL     OW19828   8.712   8.285   4.923  0.3988 -0.4079  0.2766
 5048SOL    HW119829   8.616   8.285   4.912  0.6679  0.1764 -3.0782
 5048SOL    HW219830   8.744   8.228   4.853  2.5993  1.1213 -0.0500
 5049SOL     OW19831  10.362   9.985   6.555 -0.1213 -0.0701  0.4642
 5049SOL    HW119832  10.444   9.999   6.507 -0.1575  1.4664  0.7966
 5049SOL    HW219833  10.365   9.892   6.580  1.1885 -0.2144 -0.1205
 5050SOL     OW19834   3.381  11.293   6.307  0.3787 -0.0691  0.4908
 5050SOL    HW119835   3.355  11.209   6.345 -1.4028  0.6666  0.9962
 5050SOL    HW219836   3.307  11.318   6.252  1.7970  0.1604 -1.4069
 5051SOL     OW19837   1.372   4.236   9.200 -0.2904  0.9232 -0.1566
 5051SOL    HW119838   1.445   4.219   9.140  1.4275  1.8332  1.5939
 5051SOL    HW219839   1.389   4.324   9.234 -1.7420  0.8010  0.9484
 5052SOL     OW19840   6.387   7.585   0.097 -0.0892 -0.2287 -0.6291
 5052SOL    HW119841   6.476   7.620   0.096 -0.3693  1.0836  3.4057
 5052SOL    HW219842   6.334   7.655   0.059  0.4721 -1.0211 -3.0649
 5053SOL     OW19843   8.623   5.461   8.740 -0.2251  0.1999 -0.0598
 5053SOL    HW119844   8.691   5.448   8.806 -1.9701 -0.4205  1.6966
 5053SOL    HW219845   8.610   5.374   8.702 -0.1551  0.2890 -0.2921
 5054SOL     OW19846   5.607   7.827  10.752 -0.0764 -0.1990  0.0095
 5054SOL    HW119847   5.557   7.752  10.785  1.0579 -1.2411 -0.5824
 5054SOL    HW219848   5.696   7.794  10.742  0.6845  1.5290  0.7254
 5055SOL     OW19849  11.752  10.569  11.715  0.2033  0.4176  0.1878
 5055SOL    HW119850  11.847  10.563  11.723  0.0539 -1.6824  0.7869
 5055SOL    HW219851  11.734  10.663  11.725  2.2618  1.0074 -0.9164
 5056SOL     OW19852   3.428  11.638  10.162 -0.1856  0.6034  0.6698
 5056SOL    HW119853   3.360  11.704  10.151 -0.1195  0.7332  1.0118
 5056SOL    HW219854   3.505  11.687  10.190  0.5767  0.6893 -1.4442
 5057SOL     OW19855   7.231   1.844   4.275  0.0619  0.4377 -0.6200
 5057SOL    HW119856   7.174   1.771   4.299 -0.3668  0.7770 -0.5979
 5057SOL    HW219857   7.174   1.905   4.228 -0.5323  2.4753  2.4440
 5058SOL     OW19858   8.012   7.301  11.509 -0.5008 -0.1963  0.5022
 5058SOL    HW119859   7.945   7.253  11.558 -1.9316 -0.1945 -1.3382
 5058SOL    HW219860   7.967   7.380  11.480  1.0833  1.0441  1.3249
 5059SOL     OW19861   8.915  11.308   2.190 -0.2480  0.0024  0.3338
 5059SOL    HW119862   8.904  11.380   2.252 -0.6574 -1.1895  1.6859
 5059SOL    HW219863   9.007  11.285   2.196 -0.0184  0.6738 -0.4244
 5060SOL     OW19864   7.111   6.156   7.485 -0.6509  0.3142 -0.4238
 5060SOL    HW119865   7.024   6.196   7.494 -1.5099 -1.2545 -1.2171
 5060SOL    HW219866   7.110   6.084   7.549  0.3020  0.6602 -0.0140
 5061SOL     OW19867   6.897  11.484  11.749  0.4254  0.5185  0.7751
 5061SOL    HW119868   6.885  11.399  11.790  1.4950  0.8728  1.9054
 5061SOL    HW219869   6.808  11.513  11.728  0.1229 -1.5346 -1.1434
 5062SOL     OW19870   1.102   0.349  11.735  0.4864  0.2204 -0.0968
 5062SOL    HW119871   1.103   0.317  11.825 -0.2243  0.4433 -0.0039
 5062SOL    HW219872   1.099   0.270  11.681 -0.3624  0.1078  0.1091
 5063SOL     OW19873   3.144   1.770   7.375 -0.2579  0.4334  0.4671
 5063SOL    HW119874   3.096   1.825   7.438 -0.0391  1.5231 -0.2921
 5063SOL    HW219875   3.156   1.826   7.298  0.1533 -0.6217 -0.2627
 5064SOL     OW19876   8.754  11.868   3.257 -0.4571 -0.1769 -0.6158
 5064SOL    HW119877   8.804  11.789   3.237 -1.7877 -0.5356 -2.8821
 5064SOL    HW219878   8.666  11.836   3.280 -0.5241  0.5681  0.2050
 5065SOL     OW19879   8.554   1.181   5.859  0.5032  0.1461 -0.1959
 5065SOL    HW119880   8.594   1.197   5.945  1.7697  1.9955 -1.0883
 5065SOL    HW219881   8.531   1.268   5.826 -1.5140 -0.6524 -1.0529
 5066SOL     OW19882   3.076  11.918   4.528  0.2431  0.4536 -0.1953
 5066SOL    HW119883   3.137  11.889   4.596  1.3408  0.9748 -0.9293
 5066SOL    HW219884   3.051  12.006   4.553 -0.4223  0.1465  0.2400
 5067SOL     OW19885   4.664   7.258  10.277  0.5534 -0.1992  0.3943
 5067SOL    HW119886   4.622   7.260  10.363  0.9686 -4.2669  0.8824
 5067SOL    HW219887   4.606   7.205  10.223  2.4789 -1.6159 -0.4127
 5068SOL     OW19888   3.490   3.174   7.257 -0.2348  0.2056 -0.2664
 5068SOL    HW119889   3.529   3.223   7.185 -1.4983  2.0880  0.2669
 5068SOL    HW219890   3.427   3.116   7.215 -1.3063  1.6280 -0.6886
 5069SOL     OW19891   1.068   7.189   9.244 -0.0052  0.0714 -0.4388
 5069SOL    HW119892   1.115   7.268   9.272  0.8172 -0.5006 -0.1593
 5069SOL    HW219893   1.059   7.198   9.150 -0.6652  0.8912 -0.3075
 5070SOL     OW19894   8.637   4.986   1.913 -0.0370  0.7703  0.7410
 5070SOL    HW119895   8.623   5.045   1.987  0.0839  0.8154  0.7273
 5070SOL    HW219896   8.720   4.943   1.932 -0.2510  0.4094  0.8814
 5071SOL     OW19897   9.514  10.308   1.803 -0.7311 -0.1545  0.2033
 5071SOL    HW119898   9.563  10.374   1.853  0.3480  0.2993 -1.3674
 5071SOL    HW219899   9.578  10.271   1.743 -1.8111 -1.2132 -0.3371
 5072SOL     OW19900   6.985   2.083   2.568 -0.2237 -0.7852  0.1597
 5072SOL    HW119901   7.071   2.043   2.577  0.2331 -0.1432 -1.0513
 5072SOL    HW219902   6.992   2.166   2.615  0.2484 -0.1664 -0.9437
 5073SOL     OW19903  10.433   1.258   0.402  0.1682  0.1952 -0.0369
 5073SOL    HW119904  10.466   1.195   0.466 -0.8606 -0.4834 -0.1483
 5073SOL    HW219905  10.467   1.228   0.318  2.3366  1.6425  0.2506
 5074SOL     OW19906   7.345   3.158  11.181 -0.5680  0.4209 -0.5122
 5074SOL    HW119907   7.353   3.152  11.085  1.0188 -0.4620 -0.3555
 5074SOL    HW219908   7.430   3.192  11.209 -0.7542 -0.0476  0.6427
 5075SOL     OW19909   1.670   3.080   7.076  0.4910 -0.2881  0.1334
 5075SOL    HW119910   1.669   2.986   7.059  2.6363 -0.1140 -1.2485
 5075SOL    HW219911   1.758   3.098   7.109  0.5751  1.4140 -0.8907
 5076SOL     OW19912   2.980  11.122   8.903 -0.1161 -1.0187 -0.1917
 5076SOL    HW119913   2.940  11.209   8.903 -0.4667 -1.1801  0.0709
 5076SOL    HW219914   3.066  11.136   8.863 -0.4740 -0.6897 -0.8598
 5077SOL     OW19915  10.806   7.271   1.853  0.1107 -0.0695  0.3821
 5077SOL    HW119916  10.824   7.198   1.795  0.4201 -1.2518  1.8929
 5077SOL    HW219917  10.848   7.346   1.812 -0.8144 -0.5672 -1.5705
 5078SOL     OW19918   1.232  10.660  11.237  0.5502 -0.3263 -0.0771
 5078SOL    HW119919   1.137  10.671  11.241  0.4925 -1.0067  0.8337
 5078SOL    HW219920   1.254  10.674  11.145 -0.2069  1.4388 -0.0175
 5079SOL     OW19921   1.209   6.786   1.918  0.0861 -0.1768  0.1181
 5079SOL    HW119922   1.137   6.848   1.925  1.5330  1.6290 -0.1151
 5079SOL    HW219923   1.247   6.783   2.006  0.3919 -0.2717 -0.0165
 5080SOL     OW19924  10.252   0.824   8.636  0.3147  0.4610 -0.0146
 5080SOL    HW119925  10.251   0.765   8.561  2.7624 -0.2724  0.4290
 5080SOL    HW219926  10.162   0.825   8.668 -0.5598 -0.0655 -2.2740
 5081SOL     OW19927   3.715  10.699   4.748  0.3510  0.0788  0.5633
 5081SOL    HW119928   3.688  10.616   4.709  1.3717 -0.5587  1.1705
 5081SOL    HW219929   3.709  10.684   4.842 -0.5504  1.0735  0.6742
 5082SOL     OW19930   2.415   5.139   3.412  0.3576 -0.0332 -0.4455
 5082SOL    HW119931   2.402   5.171   3.322 -1.4305  2.0457  0.4728
 5082SOL    HW219932   2.405   5.216   3.467  2.0564 -1.1362  1.5625
 5083SOL     OW19933  10.100  10.460   7.573  0.4837  0.1767 -0.4275
 5083SOL    HW119934  10.151  10.382   7.554 -1.6206 -1.5457  0.5408
 5083SOL    HW219935  10.016  10.445   7.529  0.4129  2.4572 -1.1959
 5084SOL     OW19936   9.390   1.021   6.151 -0.1838  0.6560 -0.1013
 5084SOL    HW119937   9.385   0.926   6.161 -0.8814  0.5764 -1.0703
 5084SOL    HW219938   9.474   1.037   6.110  0.1020  0.4970  0.4120
 5085SOL     OW19939   0.389   8.342  11.946  0.0622 -0.0523  0.6468
 5085SOL    HW119940   0.295   8.326  11.939  0.3398 -1.3672 -0.6399
 5085SOL    HW219941   0.407   8.409  11.881  0.1493 -0.4824  0.2235
 5086SOL     OW19942   5.104   5.412  11.659  0.4797 -0.2236  0.1029
 5086SOL    HW119943   5.112   5.497  11.703  1.6505  0.4787 -1.3691
 5086SOL    HW219944   5.059   5.432  11.577  1.2346 -0.9432 -0.4963
 5087SOL     OW19945   0.405   8.697   2.437  0.4290  0.4277 -0.1462
 5087SOL    HW119946   0.389   8.777   2.486  0.6154  1.0062 -1.0015
 5087SOL    HW219947   0.318   8.661   2.420  0.3711  0.1730  0.6835
 5088SOL     OW19948   9.137   9.447   2.275 -0.0588  0.2401 -0.5864
 5088SOL    HW119949   9.062   9.482   2.227  0.2541  0.8857 -0.6161
 5088SOL    HW219950   9.121   9.353   2.279 -0.5376  0.2881 -1.1720
 5089SOL     OW19951   1.899   6.301   3.984 -0.2590  0.1210 -0.0871
 5089SOL    HW119952   1.856   6.303   3.898  0.4364  1.5344 -0.4250
 5089SOL    HW219953   1.991   6.283   3.964 -0.2926 -0.7334  0.4715
 5090SOL     OW19954   8.485   5.999   7.391 -0.3346  0.4079 -0.0356
 5090SOL    HW119955   8.410   5.959   7.436  0.9960 -1.7495  0.4032
 5090SOL    HW219956   8.516   6.066   7.451 -2.1011  1.6056 -0.3841
 5091SOL     OW19957  10.033   5.422   9.283 -0.5776 -0.0688 -0.9941
 5091SOL    HW119958  10.015   5.488   9.215 -1.1539 -0.0501 -0.8288
 5091SOL    HW219959   9.991   5.343   9.250 -2.5965  0.4079  0.2163
 5092SOL     OW19960  10.695   0.386   2.798  0.2440  0.3127  0.2839
 5092SOL    HW119961  10.616   0.338   2.773 -0.9012  2.0660  0.3994
 5092SOL    HW219962  10.681   0.409   2.890  1.4014 -0.2841  0.6306
 5093SOL     OW19963  10.372   6.708   5.599  0.5872  0.3153 -1.0586
 5093SOL    HW119964  10.410   6.796   5.602  1.7573 -0.1811 -0.7154
 5093SOL    HW219965  10.347   6.689   5.690  0.8003  0.1110 -1.0391
 5094SOL     OW19966   5.009   0.120   2.858  0.3572  0.1592 -0.8325
 5094SOL    HW119967   4.929   0.162   2.826  1.5084  1.1251 -2.5941
 5094SOL    HW219968   4.979   0.059   2.925 -1.5351  2.9170  1.0518
 5095SOL     OW19969   1.211   3.920   4.750 -0.0532 -0.3965 -0.3318
 5095SOL    HW119970   1.247   3.894   4.665 -0.3211  0.9806 -0.8900
 5095SOL    HW219971   1.261   3.868   4.814  0.0431 -1.5789 -1.3177
 5096SOL     OW19972   9.080   9.375   0.442 -0.4857  0.7262  0.3423
 5096SOL    HW119973   9.002   9.341   0.486  0.0410 -1.8016 -0.5041
 5096SOL    HW219974   9.076   9.338   0.354  0.9816  1.6813 -0.1694
 5097SOL     OW19975   1.835  10.737   7.462  1.0167  0.7571  0.0792
 5097SOL    HW119976   1.895  10.776   7.398  2.4668 -1.8824 -0.3253
 5097SOL    HW219977   1.773  10.687   7.409  0.8993  0.3080  0.6266
 5098SOL     OW19978  11.630   4.343   2.674 -0.2549 -0.0816 -0.0319
 5098SOL    HW119979  11.545   4.371   2.639 -0.2927 -0.1801 -0.0193
 5098SOL    HW219980  11.684   4.422   2.672 -0.2862 -0.0650 -0.2283
 5099SOL     OW19981   0.612  11.647   8.978 -0.0699  0.6241 -0.2049
 5099SOL    HW119982   0.547  11.620   8.914  0.4132  0.7744 -0.7753
 5099SOL    HW219983   0.574  11.624   9.062  0.4156 -2.1605 -0.6219
 5100SOL     OW19984   6.143  11.319   4.696  0.5825 -0.6597 -0.0088
 5100SOL    HW119985   6.106  11.308   4.783 -0.2283  0.6628 -0.1672
 5100SOL    HW219986   6.229  11.357   4.711 -0.1847  1.0854  0.1899
 5101SOL     OW19987  11.148  11.133   4.074  0.6061  0.0683  0.4060
 5101SOL    HW119988  11.169  11.040   4.062 -0.4366 -0.0567 -0.6335
 5101SOL    HW219989  11.085  11.134   4.146 -0.3110 -0.1744 -0.3753
 5102SOL     OW19990   7.682   3.357   3.581  0.9714 -0.8845 -0.0692
 5102SOL    HW119991   7.615   3.293   3.557  0.7986 -0.4481 -0.7777
 5102SOL    HW219992   7.645   3.442   3.557  1.7484 -0.6302 -0.4225
 5103SOL     OW19993   4.186   1.913   6.889 -0.1444  0.0466 -0.2420
 5103SOL    HW119994   4.237   1.939   6.812  1.3199  0.4118  0.8084
 5103SOL    HW219995   4.208   1.979   6.955  1.5498 -2.2546  1.6507
 5104SOL     OW19996   1.412   7.909  10.828  0.1083  0.1565 -0.0163
 5104SOL    HW119997   1.415   7.836  10.766 -1.7448 -0.7742  0.8725
 5104SOL    HW219998   1.333   7.957  10.805  1.0473  1.6236 -0.2710
 5105SOL     OW19999  11.533   5.693   2.757 -0.0218  0.0143  0.5880
 5105SOL    HW120000  11.594   5.722   2.689 -1.2800 -0.3869 -0.7425
 5105SOL    HW220001  11.491   5.774   2.788  1.7278  0.4095  2.1316
 5106SOL     OW20002  10.876   8.192   4.307  0.0875 -0.2854  0.4777
 5106SOL    HW120003  10.934   8.128   4.347 -0.8326 -0.9970  0.7190
 5106SOL    HW220004  10.806   8.204   4.372  0.1864  0.8726  0.3830
 5107SOL     OW20005  10.291   6.865   1.604 -0.4552 -0.2225 -0.4337
 5107SOL    HW120006  10.312   6.828   1.691  0.7256  0.0274 -0.5985
 5107SOL    HW220007  10.293   6.789   1.545 -0.8505 -0.3275 -0.3179
 5108SOL     OW20008   8.247   5.052   7.944  0.0845 -0.1370  0.4884
 5108SOL    HW120009   8.257   4.986   8.013  0.9222 -0.3981  0.1332
 5108SOL    HW220010   8.181   5.017   7.885 -0.5279  0.0191  1.0723
 5109SOL     OW20011   7.306   3.066   5.665 -0.9683 -1.0850 -0.2775
 5109SOL    HW120012   7.373   3.134   5.670 -1.6639 -0.4728  2.4320
 5109SOL    HW220013   7.312   3.033   5.575  1.6540  0.2148 -0.6798
 5110SOL     OW20014   8.290   3.649  11.508  0.1197 -0.0766 -0.1977
 5110SOL    HW120015   8.265   3.741  11.512 -0.7728 -0.1749 -2.3380
 5110SOL    HW220016   8.226   3.605  11.564 -1.5577  0.2672 -1.7427
 5111SOL     OW20017   0.536  11.849  10.003 -0.3186  0.2275 -0.5094
 5111SOL    HW120018   0.626  11.881   9.997 -0.4633  0.3007 -3.4053
 5111SOL    HW220019   0.531  11.779   9.938 -2.7110  1.1754 -1.4580
 5112SOL     OW20020   0.259   9.257   1.299  0.1833 -0.3695  0.4235
 5112SOL    HW120021   0.314   9.185   1.330 -0.1222 -0.7605  0.0707
 5112SOL    HW220022   0.293   9.278   1.212 -0.9698 -1.4498 -0.3390
 5113SOL     OW20023   5.399   9.523   4.488  0.2535 -0.1452  0.7237
 5113SOL    HW120024   5.368   9.613   4.505  0.4000 -0.0516  0.5007
 5113SOL    HW220025   5.328   9.482   4.440  0.3624 -0.0162  0.4533
 5114SOL     OW20026   4.146   0.751   2.776 -0.1361 -0.7591  0.2860
 5114SOL    HW120027   4.203   0.788   2.843 -0.0509 -0.3219 -0.0274
 5114SOL    HW220028   4.205   0.706   2.716 -0.0992 -0.1988 -0.1090
 5115SOL     OW20029   6.779  10.179   0.690 -0.2103  0.2092  0.0112
 5115SOL    HW120030   6.855  10.132   0.656 -1.0554 -1.5384  0.4086
 5115SOL    HW220031   6.704  10.132   0.654 -1.1000 -0.1622  2.1740
 5116SOL     OW20032   6.361   6.744   2.802  0.3540  0.1239 -0.0524
 5116SOL    HW120033   6.274   6.761   2.767  0.1392  0.1060  0.4788
 5116SOL    HW220034   6.352   6.665   2.855  0.7448 -0.0150 -0.1823
 5117SOL     OW20035   6.402   0.236   0.373 -0.4019  0.3431  0.3292
 5117SOL    HW120036   6.483   0.286   0.365 -1.1398  1.7330  1.1151
 5117SOL    HW220037   6.430   0.150   0.405  0.8263  0.5012 -0.2576
 5118SOL     OW20038   6.879   4.871   2.959 -0.2001  0.2418  0.5520
 5118SOL    HW120039   6.850   4.848   2.870  0.0114  0.2643  0.4788
 5118SOL    HW220040   6.868   4.790   3.009 -0.5114  0.2826  0.5552
 5119SOL     OW20041   8.443  10.964   2.909 -0.1539 -0.1477 -0.0668
 5119SOL    HW120042   8.472  11.013   2.832 -1.0187 -0.8156 -0.8402
 5119SOL    HW220043   8.411  11.031   2.969 -0.6169  0.3046 -0.8005
 5120SOL     OW20044  11.463   6.418   8.542  0.2686 -0.1292  0.2044
 5120SOL    HW120045  11.507   6.381   8.466 -0.8628  0.2366 -0.6569
 5120SOL    HW220046  11.403   6.483   8.506 -0.4336 -0.0854  1.3931
 5121SOL     OW20047   9.850   4.074   3.684 -0.0235 -0.4441 -0.6675
 5121SOL    HW120048   9.802   4.004   3.728 -0.2577 -0.2440 -0.6078
 5121SOL    HW220049   9.914   4.028   3.629  0.3647 -0.6902 -0.0147
 5122SOL     OW20050   6.307   4.358   7.227  0.2598 -0.4594 -0.2853
 5122SOL    HW120051   6.228   4.406   7.254 -1.4022 -3.1923  0.0291
 5122SOL    HW220052   6.276   4.270   7.207  2.6779 -0.7543 -3.6137
 5123SOL     OW20053   7.213  10.996   3.840 -0.6648 -0.6171 -0.2669
 5123SOL    HW120054   7.179  11.023   3.754  2.1996 -0.1527 -1.3834
 5123SOL    HW220055   7.235  10.903   3.828 -0.8162 -0.7115  0.1837
 5124SOL     OW20056  11.405   5.331   9.315 -0.0082 -0.1752  0.0427
 5124SOL    HW120057  11.480   5.277   9.289  0.2380  0.5821 -0.8791
 5124SOL    HW220058  11.408   5.333   9.410 -0.9271 -3.0554  0.2281
 5125SOL     OW20059   1.528   7.122   5.635  0.2479 -0.1209  0.0024
 5125SOL    HW120060   1.485   7.083   5.711  3.1886  0.6337  2.2339
 5125SOL    HW220061   1.502   7.214   5.637  0.2643 -0.1169  0.0136
 5126SOL     OW20062   8.128   6.031   0.204 -0.4736 -0.2147  0.4409
 5126SOL    HW120063   8.076   6.083   0.142  1.0286  0.0967 -0.6231
 5126SOL    HW220064   8.198   5.994   0.151  0.4476 -0.5499  1.8330
 5127SOL     OW20065   5.991   5.476   0.478 -0.0716  0.0421  0.0728
 5127SOL    HW120066   5.957   5.565   0.467 -0.0149 -0.0886 -1.4628
 5127SOL    HW220067   5.981   5.458   0.571 -0.9971  1.2909  0.2514
 5128SOL     OW20068   2.834   4.769   2.668 -0.4941 -0.1913 -0.1735
 5128SOL    HW120069   2.762   4.807   2.619  0.9407  1.1503 -1.3272
 5128SOL    HW220070   2.849   4.830   2.741 -0.0232 -0.0303 -0.3980
 5129SOL     OW20071   3.624  10.523   2.921 -0.0574 -0.3030 -0.1546
 5129SOL    HW120072   3.639  10.565   3.006  0.1493  0.6100 -0.6322
 5129SOL    HW220073   3.571  10.586   2.872 -0.8177 -1.1405 -0.4546
 5130SOL     OW20074   2.333   7.117   1.437  0.6332  0.1583  0.6413
 5130SOL    HW120075   2.294   7.031   1.456 -0.1985  0.6591  1.2375
 5130SOL    HW220076   2.298   7.175   1.504  0.0302  1.2943 -0.6057
 5131SOL     OW20077   3.592   8.158   6.857 -0.1147  0.1867  0.0963
 5131SOL    HW120078   3.618   8.220   6.925  2.7127 -0.1791 -0.5238
 5131SOL    HW220079   3.667   8.155   6.798 -1.7071 -0.9677 -1.9956
 5132SOL     OW20080   7.087   1.199   1.249 -0.2315 -1.2071  0.1276
 5132SOL    HW120081   7.140   1.124   1.223 -0.1937 -0.6406 -1.6039
 5132SOL    HW220082   7.136   1.239   1.321  1.1324 -1.3490 -0.6836
 5133SOL     OW20083  11.176  10.617   0.746  0.0304 -0.3460 -0.5538
 5133SOL    HW120084  11.189  10.685   0.681 -1.5793 -0.0795 -0.6474
 5133SOL    HW220085  11.166  10.536   0.695 -1.5949 -0.0819 -0.7012
 5134SOL     OW20086   7.214   0.813   4.984 -0.8570 -0.6429  0.1660
 5134SOL    HW120087   7.170   0.758   4.920 -2.1412  0.4870  0.0404
 5134SOL    HW220088   7.227   0.757   5.060 -1.6226 -1.2712 -0.1632
 5135SOL     OW20089  11.621   6.892   2.330  0.1796 -0.0816 -0.1287
 5135SOL    HW120090  11.599   6.808   2.370  0.6932  0.1583  0.6889
 5135SOL    HW220091  11.716   6.889   2.319  0.2939  0.6587  0.5551
 5136SOL     OW20092   7.112  10.850   3.068 -0.2279  0.1933  0.5030
 5136SOL    HW120093   7.137  10.769   3.024  0.4754 -0.3485  1.8565
 5136SOL    HW220094   7.134  10.919   3.006  1.1977 -0.5248  0.1870
 5137SOL     OW20095  10.062   7.829   0.669 -0.6773 -0.6692 -0.2272
 5137SOL    HW120096  10.032   7.877   0.746 -0.9981  1.1308 -1.4065
 5137SOL    HW220097  10.052   7.737   0.693 -0.6904 -0.1729  1.8876
 5138SOL     OW20098   4.667   8.714   4.690  0.7567 -0.2544  0.5727
 5138SOL    HW120099   4.667   8.673   4.776 -0.8476 -2.0754 -0.2016
 5138SOL    HW220100   4.720   8.655   4.636 -1.6262 -1.5026 -0.5773
 5139SOL     OW20101  10.284   8.859   9.215 -0.0838 -0.2794  0.1971
 5139SOL    HW120102  10.333   8.932   9.177  1.1912 -0.5137  1.3009
 5139SOL    HW220103  10.336   8.832   9.291 -2.1454 -0.2535  1.7274
 5140SOL     OW20104   0.464   3.841   4.948  0.1279  0.0783 -0.7268
 5140SOL    HW120105   0.469   3.931   4.918 -0.2927 -0.1377 -1.4471
 5140SOL    HW220106   0.392   3.802   4.899 -1.2663 -0.0147  1.2607
 5141SOL     OW20107  10.878   8.952   5.140  0.3722 -0.1205  0.3340
 5141SOL    HW120108  10.869   8.875   5.196 -0.7845 -1.5962 -1.7046
 5141SOL    HW220109  10.924   8.920   5.063  2.1748  1.9077  0.4846
 5142SOL     OW20110   0.268  10.638   4.278  0.2123  0.2718  0.3309
 5142SOL    HW120111   0.240  10.546   4.274 -0.1662  0.4147 -0.6966
 5142SOL    HW220112   0.360  10.636   4.253 -0.0416  0.2544 -0.6717
 5143SOL     OW20113   8.104  10.483   6.685 -0.4624  0.5154  0.1702
 5143SOL    HW120114   8.122  10.396   6.648 -1.1345  0.0098  1.0033
 5143SOL    HW220115   8.022  10.511   6.644 -1.3517 -0.1612  1.4107
 5144SOL     OW20116   7.524   8.172   4.800 -0.5659 -0.2849 -0.4910
 5144SOL    HW120117   7.484   8.187   4.715 -2.4926  2.0218  0.7076
 5144SOL    HW220118   7.519   8.256   4.845  1.2498 -1.1681  1.5954
 5145SOL     OW20119   9.519   6.212   7.954  0.5217  0.2212 -0.4569
 5145SOL    HW120120   9.528   6.119   7.972 -0.9521  0.3483  1.1452
 5145SOL    HW220121   9.425   6.227   7.950  0.6629  1.9145  1.0567
 5146SOL     OW20122   6.062   9.512   1.217  0.3828  0.1502  0.2115
 5146SOL    HW120123   6.060   9.447   1.288 -0.0628  1.0624  1.0522
 5146SOL    HW220124   5.975   9.553   1.219  0.6571  0.7830 -0.3076
 5147SOL     OW20125   6.291   9.034   6.406  0.1716 -0.2812 -0.0323
 5147SOL    HW120126   6.378   9.074   6.405  0.0467 -0.0099 -0.1523
 5147SOL    HW220127   6.259   9.049   6.495  0.3979 -0.7072  0.1200
 5148SOL     OW20128   1.890   0.414   5.100 -0.3378  0.3268 -0.3274
 5148SOL    HW120129   1.945   0.433   5.176  0.4220  0.9419 -1.0108
 5148SOL    HW220130   1.931   0.462   5.028  0.2904 -1.9770 -1.6323
 5149SOL     OW20131   1.348  10.158   5.691 -0.1029 -0.2204 -0.3440
 5149SOL    HW120132   1.420  10.208   5.651  1.0978 -1.6149 -0.0092
 5149SOL    HW220133   1.386  10.120   5.770 -0.5584 -2.6394 -1.1869
 5150SOL     OW20134   0.129   9.694   3.805 -0.7186  0.0023 -0.2347
 5150SOL    HW120135   0.182   9.656   3.735 -2.1307 -1.1007 -0.7393
 5150SOL    HW220136   0.071   9.756   3.761 -1.1256 -0.1630  0.0662
 5151SOL     OW20137   6.056   9.684  10.169  0.0304  0.1897 -0.2018
 5151SOL    HW120138   6.025   9.681  10.078 -2.9043  0.1014  0.7041
 5151SOL    HW220139   5.978   9.669  10.221  1.6461  0.2254  2.3855
 5152SOL     OW20140   9.321   8.417   9.362  0.1586 -0.3507 -0.7648
 5152SOL    HW120141   9.413   8.392   9.359  0.5074  0.8983 -0.6800
 5152SOL    HW220142   9.291   8.411   9.271 -0.2383 -2.6577 -0.5590
 5153SOL     OW20143   4.517  11.730   8.024 -0.1671  0.0039 -0.5348
 5153SOL    HW120144   4.464  11.756   7.949  0.5289  0.9911 -0.7025
 5153SOL    HW220145   4.574  11.661   7.991  0.4582  0.7520 -1.0488
 5154SOL     OW20146  11.349   4.440   3.603  0.2723 -0.1190 -0.7734
 5154SOL    HW120147  11.355   4.436   3.508  0.1615 -0.5180 -0.7646
 5154SOL    HW220148  11.267   4.487   3.620  0.2643 -0.0963 -0.8736
 5155SOL     OW20149   4.925   8.080  10.893  0.8505 -0.0988  0.1279
 5155SOL    HW120150   4.837   8.103  10.925  0.9353 -0.7961  0.9231
 5155SOL    HW220151   4.983   8.145  10.932  0.7696 -0.0586  0.1803
 5156SOL     OW20152   9.950   5.873   0.588 -0.2021  0.0690 -0.6078
 5156SOL    HW120153  10.021   5.934   0.570 -0.9132  0.5773 -1.8493
 5156SOL    HW220154   9.892   5.921   0.647  0.0961 -0.0545 -0.2133
 5157SOL     OW20155   1.535   4.797   8.188 -0.0469 -0.2369  0.0492
 5157SOL    HW120156   1.624   4.787   8.154  0.3589  0.3371  0.9248
 5157SOL    HW220157   1.496   4.864   8.132  0.5833  0.6217  0.6104
 5158SOL     OW20158   4.490   1.300   4.607  0.3717 -0.2312 -0.2892
 5158SOL    HW120159   4.467   1.255   4.689 -0.2795 -0.3684 -0.5396
 5158SOL    HW220160   4.547   1.371   4.635  2.2168 -1.7624  0.0175
 5159SOL     OW20161  10.215   3.921   4.822 -0.2976 -0.0120 -0.2633
 5159SOL    HW120162  10.278   3.928   4.750  1.5896  0.1588  1.2979
 5159SOL    HW220163  10.227   4.002   4.872 -1.8160  0.0372  0.0604
 5160SOL     OW20164   5.188   0.576   4.142  0.3963  0.1809  0.3697
 5160SOL    HW120165   5.236   0.493   4.138  0.6784  0.3535  0.0368
 5160SOL    HW220166   5.217   0.624   4.064  1.0564  1.0333  1.1090
 5161SOL     OW20167   2.037   1.439  11.480 -0.0857 -0.3240  0.1380
 5161SOL    HW120168   1.995   1.523  11.497  0.2571 -0.0863 -0.1988
 5161SOL    HW220169   1.977   1.375  11.518 -1.1685 -0.0552 -1.0568
 5162SOL     OW20170  11.307   0.897   8.572  0.2041  0.5249 -0.1595
 5162SOL    HW120171  11.221   0.856   8.563 -0.5504  1.0989  3.1025
 5162SOL    HW220172  11.293   0.988   8.545  0.5045  0.0445 -2.0863
 5163SOL     OW20173  11.473  10.496   8.572 -0.0215 -0.3410  0.2336
 5163SOL    HW120174  11.389  10.451   8.564  1.2261 -2.7013 -0.4686
 5163SOL    HW220175  11.452  10.578   8.616 -2.5418 -1.2905  0.9777
 5164SOL     OW20176  10.399  11.408   1.253  0.3992  0.3228 -0.0879
 5164SOL    HW120177  10.459  11.355   1.307 -1.4069 -1.0593  0.6591
 5164SOL    HW220178  10.359  11.344   1.194  1.7448  1.6831 -2.6214
 5165SOL     OW20179   2.091   6.677   5.894 -0.1500 -1.0657 -0.8296
 5165SOL    HW120180   2.121   6.588   5.876 -0.1032 -1.0281 -0.9429
 5165SOL    HW220181   1.999   6.677   5.868 -0.0207 -0.9451 -1.3169
 5166SOL     OW20182   4.904   8.570  10.506 -0.1587 -0.4630  0.5525
 5166SOL    HW120183   4.920   8.642  10.445  1.6048 -0.4373  1.0102
 5166SOL    HW220184   4.974   8.507  10.488 -0.1700 -0.8849  1.8904
 5167SOL     OW20185   9.469   7.729   0.140  0.5129 -0.5497 -0.2380
 5167SOL    HW120186   9.423   7.804   0.178 -0.0503  0.1004 -2.1167
 5167SOL    HW220187   9.403   7.686   0.086  1.0279 -2.0221  0.2501
 5168SOL     OW20188   5.421   0.781   9.495  1.1683 -0.6573 -0.0714
 5168SOL    HW120189   5.449   0.862   9.537  1.3468 -0.3711 -0.7219
 5168SOL    HW220190   5.495   0.721   9.507  1.1665 -0.6213  0.1240
 5169SOL     OW20191   7.085   3.520   6.813 -0.5253 -0.2875 -0.0502
 5169SOL    HW120192   7.045   3.525   6.900  1.7209 -0.9778  1.0862
 5169SOL    HW220193   7.158   3.460   6.823 -0.8366 -1.2467 -2.7215
 5170SOL     OW20194   7.430   6.693  11.092 -0.1754  0.5703  0.5991
 5170SOL    HW120195   7.355   6.636  11.078  0.5325 -0.0934 -0.6581
 5170SOL    HW220196   7.460   6.716  11.004  1.1053  0.8168  1.0760
 5171SOL     OW20197   3.359   5.327  11.405  0.1478  0.3209 -0.1584
 5171SOL    HW120198   3.304   5.355  11.479 -0.1053  1.2513 -0.6828
 5171SOL    HW220199   3.421   5.398  11.392  1.7394 -0.8599  0.6333
 5172SOL     OW20200   3.291  11.154  10.252 -0.0314 -0.1063  0.8277
 5172SOL    HW120201   3.263  11.242  10.227 -1.5499 -0.5706  0.8123
 5172SOL    HW220202   3.384  11.151  10.230 -0.4066  0.8411 -1.0426
 5173SOL     OW20203   9.344   9.141   9.759 -0.1331  0.0569  0.3982
 5173SOL    HW120204   9.346   9.236   9.767  0.4639  0.0241  0.7234
 5173SOL    HW220205   9.345   9.109   9.849 -2.4136 -0.2514  0.3699
 5174SOL     OW20206   9.373   3.310   4.489  1.0133 -0.4226  0.0170
 5174SOL    HW120207   9.422   3.391   4.480  0.8832 -0.3165  0.2722
 5174SOL    HW220208   9.344   3.289   4.400  0.8080 -0.0430 -0.0067
 5175SOL     OW20209   1.834   0.131   0.114 -0.1334 -0.2064 -0.0503
 5175SOL    HW120210   1.909   0.104   0.061 -0.1713  1.4712 -1.0400
 5175SOL    HW220211   1.760   0.083   0.077 -0.1518  0.9124 -1.5894
 5176SOL     OW20212   8.350   9.342   2.317  0.5260  0.3461  0.0994
 5176SOL    HW120213   8.277   9.376   2.370 -0.3785 -0.3007 -0.7128
 5176SOL    HW220214   8.427   9.387   2.352 -0.2736  1.1575  0.8770
 5177SOL     OW20215   3.848   3.870   5.529 -0.2405  0.2125  0.2181
 5177SOL    HW120216   3.788   3.830   5.465 -0.0611  0.7250 -0.2820
 5177SOL    HW220217   3.870   3.799   5.589  0.4685 -0.5981 -0.9481
 5178SOL     OW20218  10.312   4.751   1.844  0.0308 -0.1755 -0.6176
 5178SOL    HW120219  10.221   4.758   1.814 -0.3185  3.6523  0.7557
 5178SOL    HW220220  10.307   4.766   1.939  2.2142  3.5471 -0.9074
 5179SOL     OW20221   3.529   3.654   6.420  0.1568 -0.2011 -0.0152
 5179SOL    HW120222   3.591   3.727   6.429 -0.2654  0.3954 -1.6927
 5179SOL    HW220223   3.579   3.578   6.450  0.5947  0.7455  1.7967
 5180SOL     OW20224  10.364   8.573   1.100  1.0029  0.1900 -0.2388
 5180SOL    HW120225  10.357   8.497   1.042  0.7677 -0.2093  0.3004
 5180SOL    HW220226  10.275   8.605   1.109  0.9215 -0.2273  0.5197
 5181SOL     OW20227   6.371   0.691  10.917 -0.6843 -0.0453  0.0344
 5181SOL    HW120228   6.407   0.702  10.829 -2.0062  2.1065 -0.3316
 5181SOL    HW220229   6.439   0.646  10.966  0.9106  0.4988 -1.5864
 5182SOL     OW20230  10.666   8.565  10.878  0.0855 -0.3946 -0.1848
 5182SOL    HW120231  10.706   8.602  10.800 -2.1389  1.1132 -0.7133
 5182SOL    HW220232  10.618   8.488  10.847  0.7095 -0.8776  0.0396
 5183SOL     OW20233   6.079   1.984   4.571 -0.2093 -0.3226  0.4663
 5183SOL    HW120234   6.050   1.894   4.585  0.4319 -1.0268 -2.1139
 5183SOL    HW220235   6.001   2.028   4.534  0.3127 -0.7210 -1.2136
 5184SOL     OW20236   0.761   3.195   1.830  0.0742  0.0085  0.0111
 5184SOL    HW120237   0.685   3.195   1.772 -0.0390  1.8739  0.1042
 5184SOL    HW220238   0.794   3.105   1.826 -0.9118 -0.3257 -1.6329
 5185SOL     OW20239   8.304   8.170   2.763  0.0378 -0.9832 -0.0604
 5185SOL    HW120240   8.320   8.260   2.734 -1.7388 -1.2758 -2.2225
 5185SOL    HW220241   8.347   8.116   2.696 -1.1693 -1.7057 -0.2849
 5186SOL     OW20242  11.195   5.154  11.755 -0.2518  0.1065 -0.5982
 5186SOL    HW120243  11.192   5.246  11.781 -0.3757 -0.1673  0.3915
 5186SOL    HW220244  11.158   5.152  11.667 -2.2964  0.7226  0.1923
 5187SOL     OW20245   8.021  10.896   7.822 -0.3630  0.4106  0.4828
 5187SOL    HW120246   7.982  10.975   7.786 -1.3313  0.1011  0.8157
 5187SOL    HW220247   8.107  10.924   7.855 -0.2705  1.0924 -0.3058
 5188SOL     OW20248   5.208  10.540   6.177  0.0332 -0.5047  0.4439
 5188SOL    HW120249   5.236  10.494   6.256 -0.7818  2.0734  2.3667
 5188SOL    HW220250   5.290  10.574   6.140  0.4608 -2.0172 -0.1001
 5189SOL     OW20251   3.095  10.547   3.202  0.0881 -0.5455 -0.6576
 5189SOL    HW120252   3.162  10.566   3.268 -0.1981  0.5616 -0.6704
 5189SOL    HW220253   3.145  10.533   3.122  0.4070 -1.3924 -0.3195
 5190SOL     OW20254   3.937   8.634   0.846  0.9025 -0.2340 -0.0719
 5190SOL    HW120255   3.888   8.690   0.906 -0.9894 -2.4584  0.6100
 5190SOL    HW220256   3.968   8.561   0.900  1.2258 -1.0709 -1.3298
 5191SOL     OW20257   2.288  11.952   7.379 -0.2708 -0.1275  0.1650
 5191SOL    HW120258   2.305  11.859   7.363  0.7536  0.1642 -0.5985
 5191SOL    HW220259   2.240  11.981   7.302  0.2236  0.1681 -0.0408
 5192SOL     OW20260   1.018   1.909   0.255  0.8043  0.8013 -0.0157
 5192SOL    HW120261   0.947   1.974   0.253  1.8284  1.9793  0.4969
 5192SOL    HW220262   0.975   1.828   0.282 -0.8662  0.7635 -2.4281
 5193SOL     OW20263   7.376   8.077   8.126 -0.0551  0.0259  0.8947
 5193SOL    HW120264   7.306   8.041   8.072  0.3728 -0.7114  0.8146
 5193SOL    HW220265   7.335   8.147   8.175 -0.7383 -0.0931  0.5059
 5194SOL     OW20266   3.467   3.601  10.159 -0.0739  0.0094 -0.1766
 5194SOL    HW120267   3.447   3.671  10.221 -1.1378 -0.3508 -0.0793
 5194SOL    HW220268   3.562   3.599  10.154 -0.0334  1.8902 -0.7072
 5195SOL     OW20269   4.100   6.245   4.828  0.6447  0.5120  0.5802
 5195SOL    HW120270   4.089   6.330   4.871 -1.2586  1.4884 -1.6622
 5195SOL    HW220271   4.011   6.214   4.812  1.2988 -1.0228 -0.3088
 5196SOL     OW20272  10.887   4.729  10.111  0.1144 -0.5685 -0.1091
 5196SOL    HW120273  10.810   4.678  10.135  0.8714 -1.9076 -0.4802
 5196SOL    HW220274  10.954   4.706  10.175  0.0780  1.0111  0.5565
 5197SOL     OW20275  11.798   0.131   4.640  0.0558 -0.0876 -0.3485
 5197SOL    HW120276  11.743   0.061   4.603  1.3848 -1.2191 -0.2716
 5197SOL    HW220277  11.836   0.174   4.564 -1.6737  1.3777 -0.4450
 5198SOL     OW20278   9.632   7.926   8.764 -0.0819 -0.0645  0.1908
 5198SOL    HW120279   9.607   7.966   8.681 -2.5975 -0.3318  0.7571
 5198SOL    HW220280   9.728   7.929   8.764 -0.0189  0.1444 -2.5933
 5199SOL     OW20281   3.704  11.735   8.267  0.2483  0.0794 -0.0596
 5199SOL    HW120282   3.677  11.679   8.340  3.8200 -1.6163  0.1739
 5199SOL    HW220283   3.738  11.814   8.308 -3.1039  1.8714 -0.3270
 5200SOL     OW20284   2.298   8.455   8.627 -0.1923  0.3374 -0.1575
 5200SOL    HW120285   2.283   8.503   8.546 -2.5042  0.6958  0.4380
 5200SOL    HW220286   2.367   8.505   8.672 -0.6785  1.5726 -0.7467
 5201SOL     OW20287  10.699   4.749   1.697 -0.1156  0.2903  0.1335
 5201SOL    HW120288  10.781   4.798   1.693 -0.1161  0.3658  0.8847
 5201SOL    HW220289  10.661   4.758   1.609 -0.1037  1.6191  0.2389
 5202SOL     OW20290   1.640   6.579   8.542  0.0623  0.7035  0.1725
 5202SOL    HW120291   1.727   6.605   8.510 -0.3216 -0.3973 -2.0046
 5202SOL    HW220292   1.580   6.642   8.501 -0.3195  0.2652  0.0492
 5203SOL     OW20293   7.670   0.680  10.702  0.5514 -0.2960  0.2760
 5203SOL    HW120294   7.630   0.687  10.616  1.4435 -0.2452 -0.1488
 5203SOL    HW220295   7.624   0.743  10.756  0.3469  0.0563 -0.3058
 5204SOL     OW20296   8.111   5.198   3.226 -0.4998 -0.4797  0.1247
 5204SOL    HW120297   8.092   5.125   3.285 -2.5287 -0.5313 -0.5230
 5204SOL    HW220298   8.108   5.276   3.283 -0.5233 -0.7048  0.4348
 5205SOL     OW20299   1.265   6.267   4.725  0.2576  0.4784 -0.1192
 5205SOL    HW120300   1.325   6.306   4.788 -1.1762  2.4483  0.1254
 5205SOL    HW220301   1.188   6.243   4.776 -0.5354  1.2121 -0.9274
 5206SOL     OW20302   1.808   7.035   2.569  0.3086 -0.0742 -0.7824
 5206SOL    HW120303   1.851   7.074   2.493  0.7025  0.7352 -0.1483
 5206SOL    HW220304   1.725   7.001   2.534  1.0620 -0.8960 -1.8382
 5207SOL     OW20305   3.698   6.961   6.297 -0.2129 -0.5301 -0.4694
 5207SOL    HW120306   3.673   6.944   6.207  0.2092 -1.7358 -0.3719
 5207SOL    HW220307   3.667   7.050   6.314  0.9816  0.2706 -2.2536
 5208SOL     OW20308   5.516   7.857   5.724 -0.1555  0.3161 -0.4564
 5208SOL    HW120309   5.527   7.890   5.813  0.1029 -1.8701  0.3958
 5208SOL    HW220310   5.605   7.848   5.691  0.0320 -2.3716  0.5223
 5209SOL     OW20311  10.266   1.637   1.953  0.0262 -0.0284 -0.4646
 5209SOL    HW120312  10.184   1.647   2.001  0.4303 -0.7618  0.4165
 5209SOL    HW220313  10.248   1.569   1.889 -0.1734  0.1029 -0.5470
 5210SOL     OW20314   0.244   5.198   8.242 -0.2138 -0.2502  0.4872
 5210SOL    HW120315   0.284   5.184   8.328  2.1653 -2.3821 -0.8144
 5210SOL    HW220316   0.302   5.259   8.197 -0.5515 -0.3911 -0.1554
 5211SOL     OW20317   2.489   6.213   2.111 -0.4718 -0.1947  0.1607
 5211SOL    HW120318   2.490   6.309   2.119 -0.9175 -0.2589  1.0831
 5211SOL    HW220319   2.428   6.184   2.178 -0.7783 -1.1025 -0.4977
 5212SOL     OW20320   0.153   7.406   9.309  0.0580 -0.0866  0.8700
 5212SOL    HW120321   0.166   7.387   9.216 -0.5530 -0.1107  0.7842
 5212SOL    HW220322   0.075   7.462   9.311  0.0093 -0.1704  1.3746
 5213SOL     OW20323   6.405   1.728   8.560  0.3866  0.1233  0.2924
 5213SOL    HW120324   6.374   1.679   8.484  0.2191 -0.6797  0.8619
 5213SOL    HW220325   6.326   1.768   8.596  0.5950  1.2382 -0.4557
 5214SOL     OW20326  11.480   9.984   3.370  0.2353 -0.1107 -0.3485
 5214SOL    HW120327  11.403  10.040   3.377  0.3123 -0.1211  0.8504
 5214SOL    HW220328  11.515   9.980   3.460 -0.3803 -2.9444 -0.1374
 5215SOL     OW20329   4.052   7.807   4.654  0.4151 -0.2280 -0.0748
 5215SOL    HW120330   4.025   7.828   4.565 -0.6768  1.4078  0.6019
 5215SOL    HW220331   4.008   7.724   4.673 -0.8768  0.3625 -0.4162
 5216SOL     OW20332   2.314   7.417   4.567 -0.5811  0.1796  0.0679
 5216SOL    HW120333   2.304   7.414   4.662 -1.7199  1.0487  0.0015
 5216SOL    HW220334   2.256   7.347   4.535 -2.1219  1.4421 -0.0579
 5217SOL     OW20335   3.217   4.579   8.930 -0.1107  0.2538  0.1137
 5217SOL    HW120336   3.215   4.531   9.013  0.4740 -2.3482 -1.2587
 5217SOL    HW220337   3.128   4.614   8.921 -0.0973  0.8798  1.9435
 5218SOL     OW20338   9.349  11.201   3.452 -0.3690 -0.3922 -0.1308
 5218SOL    HW120339   9.441  11.221   3.469 -0.5474  0.9186 -0.5876
 5218SOL    HW220340   9.350  11.155   3.368 -0.2665  1.5279 -1.2492
 5219SOL     OW20341   3.900   1.018  10.872  0.0972  0.5141 -0.3748
 5219SOL    HW120342   3.850   0.976  10.802  0.9760  0.5866 -1.0610
 5219SOL    HW220343   3.991   1.003  10.849  0.4099  1.2386  0.3363
 5220SOL     OW20344   7.798   9.783  11.737 -0.4622  0.3070  0.0523
 5220SOL    HW120345   7.875   9.735  11.766 -0.4601 -0.7344 -1.5602
 5220SOL    HW220346   7.748   9.799  11.817  1.1660  0.5853  1.0617
 5221SOL     OW20347   5.970   2.511   5.902 -0.6212 -0.3476 -0.1563
 5221SOL    HW120348   6.044   2.558   5.941  0.0265 -1.8390  0.4714
 5221SOL    HW220349   5.948   2.563   5.824  1.2236  0.0318 -0.4858
 5222SOL     OW20350   9.629   6.561   1.617  0.6906  0.8009 -1.0264
 5222SOL    HW120351   9.599   6.573   1.707 -1.7631  0.1681 -1.6823
 5222SOL    HW220352   9.625   6.466   1.603 -2.5148  1.0384 -2.7901
 5223SOL     OW20353   0.781   5.641   5.608 -0.6064 -0.0297 -0.0434
 5223SOL    HW120354   0.783   5.736   5.600  1.7880 -0.1534 -2.1736
 5223SOL    HW220355   0.864   5.618   5.650 -0.7965 -1.2199 -0.2659
 5224SOL     OW20356   3.071   2.211  10.057 -0.3915  0.0451  0.3246
 5224SOL    HW120357   3.021   2.292  10.066 -0.1743  0.2694 -0.4508
 5224SOL    HW220358   3.134   2.215  10.129  1.3549  1.8387 -1.1809
 5225SOL     OW20359  10.413   8.359   9.571  0.2047  0.7095 -0.4092
 5225SOL    HW120360  10.495   8.385   9.529  0.4654  0.9908  0.2600
 5225SOL    HW220361  10.362   8.319   9.501  0.6725  1.0743 -0.9673
 5226SOL     OW20362   4.564   7.055   2.390 -0.3279 -0.3341 -0.2960
 5226SOL    HW120363   4.592   6.966   2.367  0.3944  0.0239 -0.8449
 5226SOL    HW220364   4.523   7.089   2.311 -0.2790 -0.0552 -0.2039
 5227SOL     OW20365   3.931  11.945   1.237 -0.3516 -0.5413 -0.1986
 5227SOL    HW120366   3.994  11.874   1.225  0.7718  0.4191 -0.2731
 5227SOL    HW220367   3.906  11.971   1.149  1.3602  0.9230 -0.3111
 5228SOL     OW20368   6.337   7.202   1.179 -0.1733  0.2738 -0.3085
 5228SOL    HW120369   6.265   7.253   1.216  0.9728  1.4936  0.3255
 5228SOL    HW220370   6.359   7.249   1.098 -0.5791 -0.5491 -0.9129
 5229SOL     OW20371   0.123   9.707   1.461  0.4728 -0.3608 -0.1919
 5229SOL    HW120372   0.144   9.698   1.368  0.0550  0.8117 -0.4261
 5229SOL    HW220373   0.109   9.801   1.473 -0.3255 -0.5937  0.8720
 5230SOL     OW20374   3.511   7.533   9.645  0.5506  0.4417  0.0375
 5230SOL    HW120375   3.558   7.577   9.715 -1.2920  0.6762  1.1802
 5230SOL    HW220376   3.419   7.538   9.670  0.0535 -1.9452 -0.9716
 5231SOL     OW20377   8.808   9.485   0.099 -0.0155  0.2770  0.4879
 5231SOL    HW120378   8.811   9.469   0.193 -0.1764 -1.5905  0.2128
 5231SOL    HW220379   8.715   9.497   0.079  0.1007  1.6655  0.6854
 5232SOL     OW20380   9.185   3.056   1.664 -0.0312  0.0644  0.2303
 5232SOL    HW120381   9.170   3.073   1.571  0.9416 -0.8522 -0.1153
 5232SOL    HW220382   9.276   3.082   1.679  0.2960 -1.2106  0.5623
 5233SOL     OW20383   0.556   0.491   9.981 -0.0020  0.1215  0.2837
 5233SOL    HW120384   0.510   0.412   9.952  1.1993 -1.2004  1.7507
 5233SOL    HW220385   0.568   0.478  10.075  1.3518  1.4691  0.3343
 5234SOL     OW20386  11.173   7.023   2.974 -0.8446 -0.3524  0.6781
 5234SOL    HW120387  11.110   7.084   2.935 -1.0410  0.6125  2.4374
 5234SOL    HW220388  11.121   6.945   2.994 -0.6065 -1.1444 -1.5125
 5235SOL     OW20389   5.561   3.267   1.639  0.5470 -0.4652 -0.0959
 5235SOL    HW120390   5.592   3.268   1.730  2.6008 -1.6554 -0.7240
 5235SOL    HW220391   5.597   3.348   1.601  0.3057 -0.3327 -0.0436
 5236SOL     OW20392   9.869   3.045   2.696 -0.3449  0.2590 -0.0634
 5236SOL    HW120393   9.905   3.133   2.712  0.2941  0.0479 -0.3006
 5236SOL    HW220394   9.878   3.032   2.602  0.0748 -0.2696  0.0433
 5237SOL     OW20395   0.402   1.532   9.615 -0.2745 -0.3745  0.3410
 5237SOL    HW120396   0.468   1.588   9.655  0.1763 -0.8809  0.3224
 5237SOL    HW220397   0.366   1.585   9.543 -0.0274 -0.0213  0.4757
 5238SOL     OW20398   7.905   6.882   7.194  0.3847 -0.0770 -0.3529
 5238SOL    HW120399   7.876   6.953   7.251  0.9705 -1.3077  1.6080
 5238SOL    HW220400   7.826   6.828   7.181  0.7285 -1.1417  1.4815
 5239SOL     OW20401  10.610   5.650   1.196  0.3630 -0.0066  0.1733
 5239SOL    HW120402  10.618   5.665   1.101 -0.3731 -2.6641 -0.3991
 5239SOL    HW220403  10.517   5.629   1.208  0.7589 -1.2468  1.2092
 5240SOL     OW20404   2.346   1.915   1.965 -0.2866 -0.4059 -0.0945
 5240SOL    HW120405   2.262   1.958   1.953 -0.2982 -0.4106 -0.0273
 5240SOL    HW220406   2.324   1.824   1.987 -0.2853 -0.1121  1.1611
 5241SOL     OW20407   9.657   2.856   5.637 -0.0720  0.8270 -0.1542
 5241SOL    HW120408   9.579   2.802   5.625 -0.3050  0.8246  1.1897
 5241SOL    HW220409   9.731   2.796   5.629 -0.2855  0.5186  0.1592
 5242SOL     OW20410   7.239   9.754   7.764 -0.2805  0.5739  0.0944
 5242SOL    HW120411   7.331   9.772   7.745 -0.6451  0.4710 -1.9719
 5242SOL    HW220412   7.194   9.837   7.749 -0.4084  1.0026  2.4399
 5243SOL     OW20413   3.242   0.953   0.398  0.2706  0.5490 -0.2697
 5243SOL    HW120414   3.175   0.987   0.457 -1.5879 -1.1983 -1.2233
 5243SOL    HW220415   3.227   1.001   0.316 -0.2882 -0.2873 -0.6750
 5244SOL     OW20416   1.910   8.468   6.255  0.3294  0.6914 -0.3147
 5244SOL    HW120417   1.868   8.425   6.329 -0.0449 -0.3493 -1.1185
 5244SOL    HW220418   1.939   8.552   6.290  1.3865 -0.3256  1.3828
 5245SOL     OW20419   6.939   4.345   5.932  0.1966 -0.0236 -0.4053
 5245SOL    HW120420   6.882   4.276   5.898  0.1701  0.8054 -2.1505
 5245SOL    HW220421   6.878   4.413   5.963  0.2191  0.4224 -1.3217
 5246SOL     OW20422  10.200   5.418   1.284 -0.2949  0.1875 -0.0947
 5246SOL    HW120423  10.133   5.378   1.338  0.8432 -0.0263  1.2346
 5246SOL    HW220424  10.276   5.361   1.294  0.3497  0.8728 -0.8756
 5247SOL     OW20425   7.491   1.276   4.757 -0.0332  0.1114  0.1064
 5247SOL    HW120426   7.540   1.259   4.837 -0.4383  0.7190  0.4916
 5247SOL    HW220427   7.442   1.195   4.741  1.2049 -0.5772 -0.3886
 5248SOL     OW20428   6.012   6.953   8.632 -0.2409 -0.4443  0.2984
 5248SOL    HW120429   6.025   7.018   8.563  0.4457 -0.2186  0.6367
 5248SOL    HW220430   6.030   6.869   8.590  0.9269 -0.2527  0.3799
 5249SOL     OW20431   4.955   4.913   4.949 -0.1316  0.5465  0.3536
 5249SOL    HW120432   4.951   4.850   4.877 -0.7388  0.6799  0.2710
 5249SOL    HW220433   4.905   4.872   5.020 -0.5249  0.9339  0.3024
 5250SOL     OW20434   2.899   8.922   2.599  0.3087  0.5519  0.6646
 5250SOL    HW120435   2.903   8.827   2.586 -0.9181  0.5486  0.1652
 5250SOL    HW220436   2.982   8.944   2.640  1.2887 -0.5094 -0.6527
 5251SOL     OW20437  10.846   7.532  10.952  0.0249 -0.0152 -0.1469
 5251SOL    HW120438  10.751   7.531  10.964 -0.3369  1.0692 -2.2986
 5251SOL    HW220439  10.871   7.441  10.940 -0.8720 -0.2431 -0.3024
 5252SOL     OW20440   3.108   8.006   4.786  0.1306  0.6050 -0.0091
 5252SOL    HW120441   3.031   7.949   4.782 -1.7429  2.9855 -0.0300
 5252SOL    HW220442   3.133   8.006   4.878 -1.5482  1.8018  0.4880
 5253SOL     OW20443  11.831   3.047   9.304 -0.1678  0.3477 -0.3049
 5253SOL    HW120444  11.854   2.957   9.326  1.5498  1.3745  2.7451
 5253SOL    HW220445  11.915   3.091   9.290 -0.8806  1.8166 -0.1731
 5254SOL     OW20446  10.677  11.864   0.493 -0.0651 -0.0464 -0.1143
 5254SOL    HW120447  10.626  11.942   0.514  0.7366  0.4251  0.0946
 5254SOL    HW220448  10.657  11.846   0.401 -0.0055  0.5869 -0.2520
 5255SOL     OW20449   3.884   5.485   2.628  0.4138 -0.7364  0.1755
 5255SOL    HW120450   3.821   5.456   2.562 -1.9726  1.6336  1.2361
 5255SOL    HW220451   3.969   5.468   2.588 -0.8342  1.4413 -4.0612
 5256SOL     OW20452   7.928   4.711  11.986  0.2316 -0.4510  0.1600
 5256SOL    HW120453   7.833   4.708  11.981  0.2926 -0.5644 -1.5190
 5256SOL    HW220454   7.954   4.623  12.013 -0.1067 -0.7861 -0.5754
 5257SOL     OW20455   1.004   7.180  11.574  0.1792 -0.1479  0.3248
 5257SOL    HW120456   0.959   7.189  11.658  0.7720  1.7245  0.4885
 5257SOL    HW220457   1.097   7.172  11.597  0.4912  1.6282 -0.1350
 5258SOL     OW20458   8.867  11.256  10.269  0.1908 -0.0507 -0.1207
 5258SOL    HW120459   8.901  11.292  10.351  0.5806  2.0343 -1.1104
 5258SOL    HW220460   8.879  11.162  10.277  2.6142  0.2827  1.1819
 5259SOL     OW20461   5.447   5.005   7.787 -0.3191 -0.4915  0.4722
 5259SOL    HW120462   5.420   4.927   7.836 -0.7902 -1.5820 -1.4165
 5259SOL    HW220463   5.538   4.987   7.762 -0.7342 -0.8950 -0.7885
 5260SOL     OW20464   7.180   3.253   2.931 -0.2127 -0.1262 -0.4977
 5260SOL    HW120465   7.204   3.290   3.016 -1.8694 -0.9555  0.3922
 5260SOL    HW220466   7.258   3.264   2.877  0.5528  1.3196  0.8224
 5261SOL     OW20467   0.812   8.285   6.974 -0.0511  0.4488  0.1405
 5261SOL    HW120468   0.822   8.190   6.960 -2.4621 -0.1081  1.6004
 5261SOL    HW220469   0.777   8.318   6.892  2.3675  0.4636 -0.9815
 5262SOL     OW20470   2.849   6.968   5.653 -0.0462 -0.3400  0.5655
 5262SOL    HW120471   2.842   7.014   5.569  2.0384  0.6491  0.8603
 5262SOL    HW220472   2.907   6.894   5.636 -1.5177 -1.5684  0.6405
 5263SOL     OW20473   9.285   3.354  11.484 -0.3393 -0.2190  0.6711
 5263SOL    HW120474   9.224   3.289  11.449 -1.3622  0.3213  1.3984
 5263SOL    HW220475   9.304   3.324  11.573 -0.4533  0.2228  0.8489
 5264SOL     OW20476   7.849   3.573   3.510 -0.1983 -0.0406  0.4206
 5264SOL    HW120477   7.823   3.497   3.561 -0.4081 -0.6346 -0.5505
 5264SOL    HW220478   7.904   3.625   3.570  0.5706 -1.3190  0.8607
 5265SOL     OW20479   7.215   3.120   4.983  0.0579  0.6599  0.1780
 5265SOL    HW120480   7.126   3.121   4.946  0.1033  0.1964  0.0529
 5265SOL    HW220481   7.246   3.031   4.968  0.1628  0.5322  1.1233
 5266SOL     OW20482   2.278   2.679   9.210 -0.1624 -0.4056 -0.1459
 5266SOL    HW120483   2.320   2.626   9.278  1.1441  0.9435  0.1780
 5266SOL    HW220484   2.352   2.714   9.160 -1.0106  0.4432 -0.8281
 5267SOL     OW20485  11.711   5.001   7.918  0.3269  0.7273  0.2878
 5267SOL    HW120486  11.728   5.032   8.007  0.0396  1.3351  0.1388
 5267SOL    HW220487  11.793   4.963   7.889  0.6644  1.2719  0.5156
 5268SOL     OW20488  11.427   4.461   0.785  0.3688 -0.7732  0.3256
 5268SOL    HW120489  11.346   4.505   0.811  0.8622  0.7363 -0.5804
 5268SOL    HW220490  11.424   4.459   0.690  2.4869  1.6312  0.0784
 5269SOL     OW20491   5.823  11.479  10.461  0.5589 -0.3944  0.1344
 5269SOL    HW120492   5.875  11.405  10.493  1.6452  0.9826  1.6628
 5269SOL    HW220493   5.750  11.438  10.414  1.7134 -2.4091 -0.0027
 5270SOL     OW20494   1.812   6.830   0.949  0.4850  0.3473  0.4590
 5270SOL    HW120495   1.837   6.749   0.903  2.7631  1.0885  0.2650
 5270SOL    HW220496   1.864   6.898   0.907  0.2408  1.5703  2.0605
 5271SOL     OW20497   4.417   7.404   4.369 -0.2030 -0.1978  0.1953
 5271SOL    HW120498   4.460   7.457   4.437  1.3518  0.1617 -1.0028
 5271SOL    HW220499   4.335   7.377   4.409  0.2743  0.6945  1.9179
 5272SOL     OW20500   8.264  11.944   4.704 -0.0679  0.2196 -0.0936
 5272SOL    HW120501   8.185  11.943   4.758  0.0780  3.5298  0.4060
 5272SOL    HW220502   8.332  11.907   4.760 -0.4525  1.2185  1.0611
 5273SOL     OW20503   6.121   9.495   4.046  0.0985 -0.0459 -0.3139
 5273SOL    HW120504   6.091   9.576   4.006  0.9117 -0.2859 -1.4455
 5273SOL    HW220505   6.083   9.496   4.134  0.3697  1.7292 -0.1863
 5274SOL     OW20506   2.904   2.446   2.595  0.4780 -0.1419  0.2418
 5274SOL    HW120507   2.931   2.363   2.554  0.5664 -1.1238  2.1866
 5274SOL    HW220508   2.986   2.489   2.619  0.4137 -0.0659  0.3246
 5275SOL     OW20509   4.358   1.662   9.846 -0.0186 -0.0421  0.1274
 5275SOL    HW120510   4.292   1.620   9.902 -0.4278  1.3290  0.7038
 5275SOL    HW220511   4.308   1.709   9.780  0.4271 -0.2046 -0.3330
 5276SOL     OW20512   7.683   6.873   8.287  1.1809  0.3309  0.3468
 5276SOL    HW120513   7.671   6.954   8.338 -1.1180 -0.2647  0.8778
 5276SOL    HW220514   7.742   6.820   8.341  2.2808  1.4130  0.2498
 5277SOL     OW20515   7.650  11.927   1.265 -0.0083  0.0148  0.1103
 5277SOL    HW120516   7.576  11.975   1.303 -0.5529 -2.0115  1.8016
 5277SOL    HW220517   7.720  11.936   1.329 -0.0725 -1.2602  0.3868
 5278SOL     OW20518   7.958   1.717  10.370  0.2320  0.3621  0.0001
 5278SOL    HW120519   7.990   1.650  10.429  1.7886  0.2591 -0.9278
 5278SOL    HW220520   7.862   1.707  10.373  0.4198 -2.9680 -1.3522
 5279SOL     OW20521   3.738   3.498   2.496  0.5930 -0.4137 -0.2990
 5279SOL    HW120522   3.803   3.429   2.508  0.7978 -0.1808 -0.0735
 5279SOL    HW220523   3.708   3.519   2.585  0.5066 -0.2341 -0.3702
 5280SOL     OW20524   5.841  11.697   9.445  0.0222 -0.2664  0.1490
 5280SOL    HW120525   5.903  11.764   9.475  2.2387 -0.9544 -2.4960
 5280SOL    HW220526   5.830  11.640   9.521  1.4853  0.6924  1.1460
 5281SOL     OW20527   2.394   8.717   1.845 -0.1052  0.2192  0.5390
 5281SOL    HW120528   2.311   8.748   1.881  0.5141  0.7823  1.5227
 5281SOL    HW220529   2.370   8.675   1.762 -1.2568  1.1450  0.3792
 5282SOL     OW20530  10.073   1.183   2.018 -0.0150 -0.5203 -0.1024
 5282SOL    HW120531  10.166   1.168   2.000  0.1033  1.0478 -0.8859
 5282SOL    HW220532  10.027   1.122   1.960  0.4871  0.7350 -1.8956
 5283SOL     OW20533   4.692  10.313   7.325 -0.2748 -0.2836 -0.3460
 5283SOL    HW120534   4.706  10.394   7.374  2.7545 -0.3593 -0.9217
 5283SOL    HW220535   4.673  10.342   7.236 -1.2045 -0.2216 -0.1415
 5284SOL     OW20536  10.613  11.024   8.067 -0.6338 -0.1684 -0.3000
 5284SOL    HW120537  10.596  11.036   8.160  0.2742  0.9927 -0.2654
 5284SOL    HW220538  10.612  11.112   8.031  1.3115 -0.3870 -0.9748
 5285SOL     OW20539   9.186   2.390  10.342 -0.3972 -0.1469 -0.1351
 5285SOL    HW120540   9.219   2.327  10.277  0.5411  1.8913 -1.7508
 5285SOL    HW220541   9.093   2.370  10.350 -0.0520 -1.9685 -0.2883
 5286SOL     OW20542  11.829   6.383   4.663 -0.3657  0.0419 -0.7164
 5286SOL    HW120543  11.900   6.396   4.600 -0.2023 -1.0019 -0.7725
 5286SOL    HW220544  11.843   6.450   4.729  0.5037  0.0400 -0.8840
 5287SOL     OW20545  10.386   9.397   7.783  0.1585 -0.7410 -0.2241
 5287SOL    HW120546  10.383   9.354   7.869 -2.2812 -0.3417 -0.0510
 5287SOL    HW220547  10.423   9.331   7.725  0.9766 -1.3514  0.9385
 5288SOL     OW20548   6.130   4.833   5.202  0.4703 -0.7104  0.3293
 5288SOL    HW120549   6.126   4.905   5.140  1.2076 -1.1903 -0.3035
 5288SOL    HW220550   6.043   4.828   5.240 -0.5296 -1.4635 -1.9063
 5289SOL     OW20551   2.661   5.682   6.379 -0.0776 -0.4410 -0.5452
 5289SOL    HW120552   2.709   5.675   6.297 -0.1740 -0.7762 -0.5771
 5289SOL    HW220553   2.728   5.699   6.445  0.2070 -1.7740 -0.4631
 5290SOL     OW20554   7.758  10.142   9.444 -0.2956  0.2273 -0.6231
 5290SOL    HW120555   7.726  10.155   9.533  0.4049 -1.5417 -0.0897
 5290SOL    HW220556   7.798  10.226   9.421  0.9235  0.2437  1.3214
 5291SOL     OW20557   7.763   4.156   5.282  0.2389 -0.2091 -0.2324
 5291SOL    HW120558   7.691   4.102   5.248 -0.4445 -0.0689  0.9409
 5291SOL    HW220559   7.742   4.169   5.374  2.1944 -0.8692  0.3716
 5292SOL     OW20560   6.811   0.897   9.909  0.1244  0.3080 -0.0850
 5292SOL    HW120561   6.851   0.819   9.869 -1.4255 -0.9472  0.7135
 5292SOL    HW220562   6.881   0.962   9.908  0.7727 -0.2623 -2.9865
 5293SOL     OW20563   1.431  10.875  11.272  0.3030 -0.3665 -0.1455
 5293SOL    HW120564   1.382  10.938  11.220  0.3347 -1.3499 -1.4152
 5293SOL    HW220565   1.377  10.797  11.273 -0.3580  0.0198  2.5308
 5294SOL     OW20566   5.970  10.908   9.200  0.3615 -0.3473  0.5617
 5294SOL    HW120567   5.878  10.886   9.180  0.1434  0.1705  0.9749
 5294SOL    HW220568   6.018  10.827   9.182 -0.0725 -0.4254 -0.3383
 5295SOL     OW20569  11.272   3.041   3.875  0.3339  0.1538 -0.3425
 5295SOL    HW120570  11.312   2.956   3.894  2.4180  1.0046 -0.6134
 5295SOL    HW220571  11.274   3.088   3.958 -0.3091  0.1407 -0.3164
 5296SOL     OW20572   4.304   6.087  10.116 -0.0228 -0.9490 -0.2245
 5296SOL    HW120573   4.341   6.028  10.051  1.2304 -1.5527  0.9758
 5296SOL    HW220574   4.221   6.117  10.078  0.4377 -1.6427 -1.8598
 5297SOL     OW20575   0.721   9.718  10.560 -0.0662  0.3330 -0.2140
 5297SOL    HW120576   0.670   9.742  10.637  2.4746  1.3694  1.2805
 5297SOL    HW220577   0.794   9.666  10.595  2.0503  2.1697 -1.6005
 5298SOL     OW20578   5.316   5.372  10.072  0.0239 -0.3700 -0.2985
 5298SOL    HW120579   5.289   5.398  10.160  0.8415  0.0523 -0.1690
 5298SOL    HW220580   5.265   5.427  10.013 -0.3577 -0.4976 -0.0902
 5299SOL     OW20581   9.094   6.145   6.076 -0.1663  0.3655 -0.9175
 5299SOL    HW120582   9.130   6.158   6.164 -1.0507  1.6505 -0.7125
 5299SOL    HW220583   9.171   6.128   6.021  0.4329 -0.0852  0.0277
 5300SOL     OW20584   6.482   4.075   9.881  0.5990  0.6623  0.2508
 5300SOL    HW120585   6.475   4.141   9.950 -2.6363 -0.5543  1.2281
 5300SOL    HW220586   6.533   4.004   9.920  1.4623  1.2601  0.2443
 5301SOL     OW20587  10.855   6.769  11.924 -0.3484 -0.2470  0.0579
 5301SOL    HW120588  10.894   6.775  12.011  0.2218  0.5491 -0.2542
 5301SOL    HW220589  10.768   6.732  11.940 -0.1739 -0.2947  0.9400
 5302SOL     OW20590   8.453   9.063  10.080 -0.2566  0.0365 -0.2241
 5302SOL    HW120591   8.447   9.083  10.174 -1.4335 -1.0074 -0.0477
 5302SOL    HW220592   8.544   9.079  10.058  0.3116 -0.7312  1.3672
 5303SOL     OW20593   3.230   5.951   9.357 -0.4964 -0.1371 -0.0991
 5303SOL    HW120594   3.154   5.899   9.386 -1.0327  0.7636  0.1711
 5303SOL    HW220595   3.236   6.021   9.422  1.3267 -0.8685  0.5763
 5304SOL     OW20596   0.086   5.021   0.723 -0.4143 -0.4240  0.4776
 5304SOL    HW120597   0.084   5.011   0.818  2.1091  0.8655  0.7483
 5304SOL    HW220598   0.130   4.942   0.692 -1.7387 -1.1126  0.2815
 5305SOL     OW20599   9.409   1.384   2.792  0.0180 -0.4110 -0.4155
 5305SOL    HW120600   9.457   1.463   2.768 -0.7193  0.1891  0.0384
 5305SOL    HW220601   9.458   1.348   2.866  0.4916 -0.5151 -0.7767
 5306SOL     OW20602  10.437   6.783   4.753 -0.0176 -0.1789 -0.2764
 5306SOL    HW120603  10.370   6.716   4.764  0.8979 -0.9472  0.8231
 5306SOL    HW220604  10.443   6.826   4.838 -0.6389  1.3661 -0.9863
 5307SOL     OW20605   9.952   9.580   0.433 -0.4512  0.5828  0.2163
 5307SOL    HW120606  10.047   9.577   0.446 -0.3965 -2.6944 -0.1890
 5307SOL    HW220607   9.919   9.628   0.509  1.4261  0.7432  0.9845
 5308SOL     OW20608   3.059  10.956   6.578  0.0615 -0.0298 -0.0377
 5308SOL    HW120609   3.008  11.034   6.603  1.0020  1.3940 -2.2971
 5308SOL    HW220610   3.078  10.913   6.662  0.3542  2.6954  1.4110
 5309SOL     OW20611  10.655   4.517   3.517  0.2278 -0.2234  0.2798
 5309SOL    HW120612  10.578   4.541   3.465  0.2657 -0.3534  0.1637
 5309SOL    HW220613  10.672   4.425   3.495  0.2279 -0.2869  0.5415
 5310SOL     OW20614   4.824   4.823   8.518  0.1933  0.2054 -0.0727
 5310SOL    HW120615   4.889   4.753   8.518  1.8542  1.6503  1.1676
 5310SOL    HW220616   4.871   4.898   8.481 -0.4772  1.5146  1.6309
 5311SOL     OW20617   1.733   8.673   1.873 -0.1641 -0.5822 -0.4714
 5311SOL    HW120618   1.683   8.612   1.926 -0.2400 -0.6143 -0.5790
 5311SOL    HW220619   1.775   8.732   1.936  2.0764 -2.3364 -0.1619
 5312SOL     OW20620  10.899   6.354   5.430 -0.5038 -0.3447 -0.4619
 5312SOL    HW120621  10.805   6.339   5.424 -0.2665 -3.6384  1.2727
 5312SOL    HW220622  10.938   6.281   5.381  1.1142 -0.0082  0.2526
 5313SOL     OW20623  10.867  11.538   1.466  0.1055  0.0827 -0.3469
 5313SOL    HW120624  10.830  11.451   1.456 -0.2779  0.2470 -0.3641
 5313SOL    HW220625  10.954  11.523   1.505 -1.0097 -0.1434  2.2636
 5314SOL     OW20626   1.291   5.820  11.362 -0.3424  0.6328 -0.0558
 5314SOL    HW120627   1.218   5.881  11.356  0.8255  1.9603 -1.8141
 5314SOL    HW220628   1.330   5.820  11.275  2.1718  0.5143  0.9848
 5315SOL     OW20629  11.337  11.718  11.423  0.0951  0.2655  0.1525
 5315SOL    HW120630  11.370  11.703  11.334 -1.0141  2.2345 -0.6375
 5315SOL    HW220631  11.295  11.635  11.447  0.6468 -0.3841 -1.0480
 5316SOL     OW20632  11.761   1.246   2.153 -0.1633 -0.3925 -0.0657
 5316SOL    HW120633  11.751   1.339   2.131  0.3438 -0.1913  0.4873
 5316SOL    HW220634  11.773   1.246   2.248  0.0217 -1.0069 -0.0858
 5317SOL     OW20635   9.019   6.253   5.272 -0.2095 -0.3443 -0.3881
 5317SOL    HW120636   9.102   6.295   5.294  0.7791 -1.3711 -1.9620
 5317SOL    HW220637   9.044   6.174   5.225 -2.0770  0.7183 -3.4312
 5318SOL     OW20638   4.820   0.345   3.677  0.1261 -0.1358  0.9107
 5318SOL    HW120639   4.783   0.273   3.625 -1.9619  0.7579  1.0672
 5318SOL    HW220640   4.888   0.383   3.621 -0.7904 -0.3815 -0.4154
 5319SOL     OW20641   8.649  11.628   4.851 -0.2873 -0.0727  0.1183
 5319SOL    HW120642   8.612  11.644   4.938 -0.3963 -1.0476  0.2529
 5319SOL    HW220643   8.697  11.709   4.831 -1.8066  0.9011  0.2807
 5320SOL     OW20644   8.987   7.660  11.672 -0.1324 -0.3253 -0.6678
 5320SOL    HW120645   8.910   7.604  11.665  0.1742 -0.7582 -0.5833
 5320SOL    HW220646   9.061   7.600  11.681  0.2306  0.0840 -0.8397
 5321SOL     OW20647   7.442   6.225   8.437 -0.4032 -0.1012 -0.6192
 5321SOL    HW120648   7.495   6.157   8.394  0.1143 -1.0608  1.4341
 5321SOL    HW220649   7.486   6.307   8.415  0.1355 -0.6062 -1.4862
 5322SOL     OW20650   4.324   8.073  11.822  0.4441 -0.4422  0.2114
 5322SOL    HW120651   4.379   8.151  11.825  0.4413 -0.4544  0.7413
 5322SOL    HW220652   4.379   8.006  11.781  0.9198 -0.5197  0.9518
 5323SOL     OW20653   4.964  10.119  10.663  0.4449  0.4064  0.2028
 5323SOL    HW120654   5.002  10.176  10.596 -0.4349  1.1995  0.3566
 5323SOL    HW220655   4.911  10.177  10.717 -1.5053 -0.7325 -0.3833
 5324SOL     OW20656  10.878   7.782   5.165 -0.0790  0.0215 -0.4584
 5324SOL    HW120657  10.845   7.702   5.124  1.3125 -1.0413  0.3773
 5324SOL    HW220658  10.838   7.782   5.252  0.1817  0.0534 -0.3387
 5325SOL     OW20659   4.816   7.809  10.315  0.1006  0.4713 -0.5771
 5325SOL    HW120660   4.771   7.820  10.398  0.5370  1.6709 -0.4807
 5325SOL    HW220661   4.905   7.842  10.331  0.8024 -1.1214 -0.9750
 5326SOL     OW20662   8.140   9.597   0.548 -0.0006 -0.2097  0.1200
 5326SOL    HW120663   8.214   9.566   0.496 -0.1798  1.1159 -0.9967
 5326SOL    HW220664   8.065   9.592   0.487 -0.0946  2.0140 -0.0287
 5327SOL     OW20665   2.381   0.007   9.640  0.0636 -0.2727  0.3068
 5327SOL    HW120666   2.427   0.008   9.724  1.0926  1.3524 -0.2237
 5327SOL    HW220667   2.428  -0.059   9.589 -0.6175 -1.3287  1.0028
 5328SOL     OW20668   9.860   9.432   7.591  0.4767 -0.2151 -0.2726
 5328SOL    HW120669   9.770   9.428   7.559  0.3739 -2.6258  0.1323
 5328SOL    HW220670   9.912   9.389   7.523  1.1376  0.0188  0.0742
 5329SOL     OW20671   0.139  11.920  11.774  0.0857 -0.4330  0.8144
 5329SOL    HW120672   0.088  11.938  11.695 -0.8665 -2.1427  0.9999
 5329SOL    HW220673   0.101  11.841  11.811  2.0753 -1.0727  1.6770
 5330SOL     OW20674   9.805   4.986  10.345 -0.0045 -0.2274 -0.1180
 5330SOL    HW120675   9.889   4.942  10.345  0.2291  0.2110 -0.1264
 5330SOL    HW220676   9.823   5.073  10.380 -0.5742 -0.3586  0.5306
 5331SOL     OW20677   1.057   8.808   8.416 -0.2022 -0.2505  0.0336
 5331SOL    HW120678   0.984   8.854   8.376 -0.7623  1.7720  3.0392
 5331SOL    HW220679   1.134   8.857   8.389 -0.6070  1.3175  1.5204
 5332SOL     OW20680  10.009  11.914   8.634  0.3865 -0.2008 -0.5381
 5332SOL    HW120681   9.954  11.839   8.658  0.7749 -0.4540 -0.4402
 5332SOL    HW220682  10.098  11.885   8.650  0.7620 -0.7250 -3.0924
 5333SOL     OW20683   9.902  11.076   1.270  0.2822 -0.0221  0.3159
 5333SOL    HW120684   9.953  11.111   1.197 -1.1476 -0.5898 -1.0109
 5333SOL    HW220685   9.919  10.982   1.268  0.7426  0.0396  1.1402
 5334SOL     OW20686   4.821  11.448  10.654  0.2871 -0.4265 -0.0918
 5334SOL    HW120687   4.792  11.401  10.732 -0.3992  0.7203  0.3608
 5334SOL    HW220688   4.743  11.494  10.623  1.0899  1.0149 -0.0799
 5335SOL     OW20689   2.929   2.324   0.582  0.0490 -0.1859  0.4250
 5335SOL    HW120690   2.894   2.376   0.509 -0.1262 -0.7041  0.1377
 5335SOL    HW220691   2.855   2.270   0.611  0.0098  0.2896  1.2387
 5336SOL     OW20692   3.654   7.945   4.182 -0.3608 -0.6308  0.6810
 5336SOL    HW120693   3.643   7.863   4.229 -1.1685  0.1665  1.9374
 5336SOL    HW220694   3.742   7.940   4.145  0.4444 -1.1711  2.5737
 5337SOL     OW20695  10.399   2.113   0.663  0.3859  0.0307 -0.0909
 5337SOL    HW120696  10.432   2.139   0.577  0.5356  0.4433  0.0872
 5337SOL    HW220697  10.366   2.024   0.650  0.4907  0.0546 -0.5520
 5338SOL     OW20698   5.138   1.167   6.629 -0.2945  0.0459  0.4306
 5338SOL    HW120699   5.064   1.224   6.645  0.6605  1.8523 -1.2528
 5338SOL    HW220700   5.182   1.204   6.553  0.8023 -2.5360 -0.3301
 5339SOL     OW20701   0.473   3.481   9.497 -0.2186  0.7536 -0.9355
 5339SOL    HW120702   0.473   3.392   9.532 -2.0943  0.5378 -1.3779
 5339SOL    HW220703   0.548   3.484   9.438 -1.6847 -1.4701 -3.0741
 5340SOL     OW20704   4.704   3.765   0.214  0.2948  0.1618  0.5079
 5340SOL    HW120705   4.623   3.790   0.170  1.0118  0.9211 -0.4007
 5340SOL    HW220706   4.682   3.683   0.258 -1.2198  0.7982  1.0197
 5341SOL     OW20707   8.638   7.309   7.898 -0.0355 -0.1835  0.2015
 5341SOL    HW120708   8.567   7.308   7.963  1.0206  1.5236  1.4519
 5341SOL    HW220709   8.625   7.228   7.849 -1.2140 -1.2992  2.1743
 5342SOL     OW20710   6.264  10.758  11.386 -0.1409  0.2579 -0.3370
 5342SOL    HW120711   6.351  10.771  11.350 -0.0085 -1.2862 -0.6566
 5342SOL    HW220712   6.213  10.833  11.355  1.2410  1.6038  0.5175
 5343SOL     OW20713   3.243   3.039   4.495 -0.2931  0.5411  0.1133
 5343SOL    HW120714   3.232   2.979   4.421  2.0359 -0.2685  0.3498
 5343SOL    HW220715   3.269   3.122   4.455  1.9220 -0.1586  0.0104
 5344SOL     OW20716   7.764  10.541  11.242 -0.0143 -0.1842 -0.1083
 5344SOL    HW120717   7.738  10.507  11.156 -1.3784 -0.0771  0.2473
 5344SOL    HW220718   7.797  10.465  11.289 -1.0381 -0.6075 -0.0693
 5345SOL     OW20719   3.098   0.879   2.473 -0.1299  0.1391 -0.5668
 5345SOL    HW120720   3.048   0.942   2.422 -0.8361 -0.3569 -0.4939
 5345SOL    HW220721   3.091   0.910   2.563  0.3395  0.4910 -0.6442
 5346SOL     OW20722   1.345   6.505   3.632  0.4532 -0.1439  0.3037
 5346SOL    HW120723   1.405   6.573   3.601 -0.4066  0.1674 -0.7260
 5346SOL    HW220724   1.310   6.466   3.552 -0.4331 -0.5654  0.8824
 5347SOL     OW20725   0.028   7.044  11.757 -0.5046  0.7189 -0.5063
 5347SOL    HW120726   0.030   7.103  11.681  1.3416  0.3393 -0.7925
 5347SOL    HW220727   0.113   7.057  11.800  0.0501 -1.8354 -0.6818
 5348SOL     OW20728  10.186   1.371   2.773 -0.7421 -0.1282 -0.0646
 5348SOL    HW120729  10.163   1.442   2.712 -0.5848 -0.9493 -1.1035
 5348SOL    HW220730  10.131   1.298   2.746 -0.3105 -0.6572  0.4748
 5349SOL     OW20731   1.020   6.442   1.588  0.0403  0.4323  0.1746
 5349SOL    HW120732   1.020   6.369   1.526  0.1596 -0.7100  1.4809
 5349SOL    HW220733   1.089   6.421   1.650  0.1344  1.7219  0.5420
 5350SOL     OW20734   1.474  11.459   4.953  0.8183 -0.3163 -0.5533
 5350SOL    HW120735   1.501  11.470   5.044  1.4889 -1.5519 -0.5709
 5350SOL    HW220736   1.433  11.542   4.929  0.8342  0.1020  0.8010
 5351SOL     OW20737   1.679  11.558   5.811  0.1328  0.1119  0.4136
 5351SOL    HW120738   1.638  11.489   5.863 -3.2474  2.0217  0.6158
 5351SOL    HW220739   1.608  11.590   5.755  1.2688  3.8443  0.8349
 5352SOL     OW20740   0.130   6.659  10.834  0.3250 -0.5636  0.1663
 5352SOL    HW120741   0.041   6.683  10.806  1.1641 -0.1195 -2.3518
 5352SOL    HW220742   0.187   6.702  10.771  2.3689 -0.7337  1.8107
 5353SOL     OW20743   9.984   3.425   7.745 -0.2788 -0.0180  0.5660
 5353SOL    HW120744   9.949   3.501   7.699  0.3850 -0.4664 -0.7338
 5353SOL    HW220745   9.908   3.367   7.756 -0.4648  0.1417  0.1345
 5354SOL     OW20746   0.769  11.649   8.001 -0.0648  0.1685 -0.2179
 5354SOL    HW120747   0.827  11.599   8.058 -0.1079 -0.1007 -0.4114
 5354SOL    HW220748   0.752  11.730   8.050 -0.8408 -0.4425  0.5514
 5355SOL     OW20749   3.619   4.069  11.875 -0.5728  0.2298  0.0269
 5355SOL    HW120750   3.641   4.001  11.938  0.6131  0.6834  0.1138
 5355SOL    HW220751   3.611   4.149  11.927 -1.7288  0.2173 -0.1073
 5356SOL     OW20752   4.443   7.862   3.071  0.5542 -0.1004 -0.2817
 5356SOL    HW120753   4.532   7.896   3.082  0.1974  1.6092 -2.1311
 5356SOL    HW220754   4.388   7.940   3.072 -0.5133 -0.7296 -2.8035
 5357SOL     OW20755   4.147   1.985   8.345 -0.1198 -0.4972 -0.0611
 5357SOL    HW120756   4.117   1.917   8.284  0.6248  0.6015 -1.7198
 5357SOL    HW220757   4.066   2.023   8.379 -0.5454 -1.3965 -0.0366
 5358SOL     OW20758   7.340   4.170   2.852  0.5870  0.5443  0.0859
 5358SOL    HW120759   7.361   4.109   2.922 -1.0130 -1.0867 -0.7632
 5358SOL    HW220760   7.389   4.137   2.776  0.3880  0.8287 -0.1699
 5359SOL     OW20761   6.367   5.587   8.634  0.2610 -0.4945 -0.2583
 5359SOL    HW120762   6.326   5.562   8.551 -0.3934 -1.6564  0.3849
 5359SOL    HW220763   6.458   5.560   8.625  0.0190 -1.3166 -0.3238
 5360SOL     OW20764   1.105   1.726   3.307  0.0606  0.2919  0.0130
 5360SOL    HW120765   1.013   1.704   3.319  0.3010 -0.3598  0.7673
 5360SOL    HW220766   1.115   1.740   3.213 -0.8037  0.3762 -0.0748
 5361SOL     OW20767  10.670   6.581   0.250 -0.1361  0.3348  0.0036
 5361SOL    HW120768  10.644   6.610   0.163  0.5997 -0.3658 -0.4563
 5361SOL    HW220769  10.656   6.658   0.306  1.5792  1.5638 -1.1475
 5362SOL     OW20770   0.780   6.385   5.457  0.5813  0.0083  0.0870
 5362SOL    HW120771   0.685   6.383   5.445  0.2503 -0.2905  2.3404
 5362SOL    HW220772   0.796   6.468   5.503  0.9515 -1.3089  2.5253
 5363SOL     OW20773   3.728   3.999   4.372  0.1020  0.4226 -0.1321
 5363SOL    HW120774   3.747   4.035   4.285  1.5787  0.4490  0.1820
 5363SOL    HW220775   3.760   4.065   4.433 -1.3676  0.6196  0.4540
 5364SOL     OW20776   6.322   7.728   3.624 -0.7583 -0.5048  0.0581
 5364SOL    HW120777   6.418   7.726   3.624 -0.7499 -2.4772  0.8143
 5364SOL    HW220778   6.300   7.809   3.670  0.5001  0.6077 -1.1830
 5365SOL     OW20779  10.246   8.475   0.096  0.2431 -0.2066 -0.2456
 5365SOL    HW120780  10.181   8.494   0.028 -1.2965 -0.1376  1.1776
 5365SOL    HW220781  10.315   8.540   0.082 -0.8180  0.8411 -0.7631
 5366SOL     OW20782   5.758   9.822  11.408  0.2762 -0.9126  0.3198
 5366SOL    HW120783   5.665   9.833  11.390  0.6318  0.5229 -0.8647
 5366SOL    HW220784   5.790   9.911  11.425  1.0510 -1.5895  2.9030
 5367SOL     OW20785   1.682   2.250   6.144 -0.2160  1.2577  0.1699
 5367SOL    HW120786   1.667   2.245   6.239  1.0306  0.7900  0.3600
 5367SOL    HW220787   1.603   2.211   6.106 -0.3269  0.5768  1.0527
 5368SOL     OW20788   2.437   4.362   4.088  0.1048  0.1750  0.0946
 5368SOL    HW120789   2.397   4.437   4.045 -2.3104 -1.0886  0.0172
 5368SOL    HW220790   2.389   4.286   4.056  0.3299 -1.1222  2.5802
 5369SOL     OW20791   1.571   5.023   9.814 -0.2293  0.2522 -0.2899
 5369SOL    HW120792   1.577   4.928   9.828 -2.1165 -0.0468 -1.2213
 5369SOL    HW220793   1.506   5.053   9.878  1.2878  1.1753  0.8906
 5370SOL     OW20794   6.803   8.578   7.736  0.2576  0.0758  0.3622
 5370SOL    HW120795   6.808   8.609   7.645  0.1426  1.1383  0.7150
 5370SOL    HW220796   6.855   8.497   7.736  2.5044  1.4388 -0.0744
 5371SOL     OW20797  11.653   1.881   1.211 -0.0702 -0.1023 -0.4121
 5371SOL    HW120798  11.669   1.859   1.119 -0.0316  0.1267 -0.4590
 5371SOL    HW220799  11.740   1.896   1.248 -0.1257  0.4507 -0.4982
 5372SOL     OW20800   2.549   9.778   5.761 -0.3121 -0.1794 -0.0182
 5372SOL    HW120801   2.522   9.856   5.809  1.3253  1.0758 -1.0277
 5372SOL    HW220802   2.586   9.720   5.827 -1.5546 -0.1157  0.7443
 5373SOL     OW20803   5.324   2.445   0.227  0.0034 -0.0571  0.6153
 5373SOL    HW120804   5.374   2.477   0.301  1.6067 -2.0198  0.4873
 5373SOL    HW220805   5.304   2.354   0.249 -0.0378 -0.4932 -1.0459
 5374SOL     OW20806   5.348   7.615   3.277  0.7753  0.1145 -0.3309
 5374SOL    HW120807   5.315   7.705   3.276 -0.0521 -0.1770 -1.4265
 5374SOL    HW220808   5.442   7.624   3.292  0.4134  1.0364  1.8408
 5375SOL     OW20809   7.746   2.671   7.223 -0.4006 -0.2606  0.7847
 5375SOL    HW120810   7.805   2.613   7.271  0.1017 -1.1578 -0.8681
 5375SOL    HW220811   7.659   2.647   7.254 -0.1061 -0.9521  1.1021
 5376SOL     OW20812   4.917  11.477   5.948 -0.0056 -0.1412  0.0926
 5376SOL    HW120813   4.872  11.561   5.956  0.7039  0.2008  0.6617
 5376SOL    HW220814   5.001  11.491   5.991  1.9425  0.1727 -3.4292
 5377SOL     OW20815   5.484   4.781   6.768  0.1565  0.3300  0.4948
 5377SOL    HW120816   5.558   4.802   6.712 -0.2236 -0.9609 -0.5579
 5377SOL    HW220817   5.512   4.806   6.856  1.3264  1.0573 -0.0623
 5378SOL     OW20818   1.555  10.874   6.151  0.2520  0.3718  0.1495
 5378SOL    HW120819   1.585  10.790   6.186  0.6341  0.0073 -1.0308
 5378SOL    HW220820   1.480  10.897   6.206  1.0989  0.0430  1.4961
 5379SOL     OW20821   4.781  11.127   1.453  0.0604 -0.2388 -0.4581
 5379SOL    HW120822   4.703  11.143   1.506  0.3533 -1.0182  0.2381
 5379SOL    HW220823   4.823  11.212   1.446  1.0194 -0.3976  2.2013
 5380SOL     OW20824  10.180   9.037  10.318  0.1783 -0.0740 -0.2901
 5380SOL    HW120825  10.251   9.028  10.255 -0.9520  0.0034 -1.6452
 5380SOL    HW220826  10.133   8.954  10.313 -1.6300  0.9470 -1.7970
 5381SOL     OW20827   3.135   6.556   7.613 -0.4777  0.3042  0.0584
 5381SOL    HW120828   3.230   6.547   7.607 -0.6657 -1.8541 -0.6851
 5381SOL    HW220829   3.112   6.619   7.545  0.4124  0.6819  0.1013
 5382SOL     OW20830   4.347   8.277   2.276 -0.2152 -0.1287  0.2795
 5382SOL    HW120831   4.354   8.349   2.213  1.1675 -0.2345  0.2833
 5382SOL    HW220832   4.411   8.299   2.344 -0.9602 -0.5380  1.1390
 5383SOL     OW20833  10.245   0.677   3.025  0.5705  0.0897 -0.0892
 5383SOL    HW120834  10.200   0.671   3.109  0.9561 -0.4324  0.0875
 5383SOL    HW220835  10.315   0.741   3.040  0.7236 -0.1035  0.0327
 5384SOL     OW20836   3.007   5.020  10.343 -0.2517 -0.3432  0.1078
 5384SOL    HW120837   3.019   5.001  10.250  2.1130  0.2611  0.2311
 5384SOL    HW220838   3.093   5.007  10.382 -0.9879  0.2603  2.0690
 5385SOL     OW20839   0.252   0.387   1.039 -0.2608 -0.2237  0.2848
 5385SOL    HW120840   0.322   0.348   0.987  0.2619  2.2098 -0.9785
 5385SOL    HW220841   0.171   0.348   1.004  0.3381 -2.1555  0.9490
 5386SOL     OW20842  10.491   6.443  11.477  0.6459  0.2629  0.0619
 5386SOL    HW120843  10.571   6.441  11.425 -0.2909  0.6942 -1.4500
 5386SOL    HW220844  10.428   6.490  11.423 -1.1151 -1.4444  0.5181
 5387SOL     OW20845   3.186   2.024   3.188  0.0930 -0.4850  0.3730
 5387SOL    HW120846   3.214   1.980   3.107  1.6938  0.0745  0.5775
 5387SOL    HW220847   3.091   2.014   3.189  0.1547 -1.6059 -0.9321
 5388SOL     OW20848   4.530   1.859   6.248 -0.0969  0.1725 -0.2046
 5388SOL    HW120849   4.618   1.864   6.209 -0.6172  0.5600 -1.3947
 5388SOL    HW220850   4.472   1.890   6.178 -1.3177 -1.3638  0.0791
 5389SOL     OW20851   6.071  10.945   8.627 -0.1228 -0.1373 -0.5659
 5389SOL    HW120852   6.062  10.981   8.539 -1.4397  0.8576 -0.0596
 5389SOL    HW220853   6.004  10.991   8.678 -0.3975 -1.7756  0.6163
 5390SOL     OW20854   3.530   2.045   4.716  0.8102 -0.4897 -0.0925
 5390SOL    HW120855   3.506   1.952   4.717  1.1419 -0.5781  1.2295
 5390SOL    HW220856   3.517   2.074   4.806  0.3330  0.8554 -0.5792
 5391SOL     OW20857  10.969   2.948  10.225 -0.3081  0.5237 -0.3880
 5391SOL    HW120858  10.935   2.859  10.223 -1.2750  0.8735 -0.0492
 5391SOL    HW220859  10.965   2.978  10.134 -0.5589  0.4323 -0.4068
 5392SOL     OW20860   8.862   9.840   9.112 -0.3591 -0.0085  0.2756
 5392SOL    HW120861   8.853   9.796   9.027 -1.2114 -2.0686  1.3675
 5392SOL    HW220862   8.949   9.880   9.108  0.5693 -1.9400 -0.7818
 5393SOL     OW20863   0.292   7.707   1.786 -0.0662  0.3939  0.0690
 5393SOL    HW120864   0.277   7.796   1.815 -0.1472  0.9879 -1.6860
 5393SOL    HW220865   0.316   7.659   1.866  1.1456  2.2321  0.8622
 5394SOL     OW20866   1.301   6.139  10.716 -0.3273 -0.0225  0.1050
 5394SOL    HW120867   1.313   6.145  10.622  0.0940 -0.3495  0.1337
 5394SOL    HW220868   1.214   6.176  10.732 -0.0392  0.8590 -0.3108
 5395SOL     OW20869   4.577   7.951   4.026  0.2427 -0.2296 -0.5057
 5395SOL    HW120870   4.519   8.026   4.012 -0.8443 -0.7204  1.0778
 5395SOL    HW220871   4.607   7.961   4.116  2.4729 -0.1411 -1.1988
 5396SOL     OW20872   1.606   7.071   3.316 -0.0551 -0.4802 -0.1144
 5396SOL    HW120873   1.602   7.155   3.361 -2.1072 -0.7751  0.3584
 5396SOL    HW220874   1.619   7.006   3.386 -0.0634 -0.6888 -0.3044
 5397SOL     OW20875   8.190   7.605   7.269  0.9894 -0.3518 -0.4471
 5397SOL    HW120876   8.282   7.631   7.280  1.1304 -0.9174 -0.2175
 5397SOL    HW220877   8.172   7.550   7.345  0.3625  0.0098 -0.3275
 5398SOL     OW20878   2.266   4.462   3.472  0.0317  0.0038  0.4279
 5398SOL    HW120879   2.189   4.414   3.502  0.0635 -1.4760 -1.6033
 5398SOL    HW220880   2.263   4.455   3.376  2.4521  0.2310  0.2600
 5399SOL     OW20881   0.469   4.476   0.479  0.0702 -0.6083  0.6814
 5399SOL    HW120882   0.519   4.556   0.466 -0.5314 -0.0988  1.4150
 5399SOL    HW220883   0.513   4.431   0.551  1.9693 -2.2594 -1.3510
 5400SOL     OW20884   6.732   4.589   7.060  0.3763 -0.1391 -0.5248
 5400SOL    HW120885   6.688   4.665   7.099  1.2147 -0.2412  0.7127
 5400SOL    HW220886   6.682   4.514   7.090  0.8068 -0.1925  0.1007
 5401SOL     OW20887   7.625   3.245  10.606  0.5729  0.2188  0.1417
 5401SOL    HW120888   7.714   3.222  10.633  0.2961  0.1266  1.0189
 5401SOL    HW220889   7.576   3.253  10.688 -1.0441 -2.9509 -0.3372
 5402SOL     OW20890   2.961  10.434   8.347  0.0304 -0.2479 -0.2185
 5402SOL    HW120891   2.983  10.390   8.429  0.4666 -1.2973 -0.8757
 5402SOL    HW220892   2.903  10.373   8.301  0.7849 -0.2397 -1.2284
 5403SOL     OW20893   4.490   2.778   8.196  0.1900 -0.2424 -0.2669
 5403SOL    HW120894   4.402   2.752   8.224 -1.0916  1.5481 -2.2850
 5403SOL    HW220895   4.536   2.695   8.182 -1.2871 -1.2392  0.4244
 5404SOL     OW20896   5.439   0.875   2.479 -0.2959 -0.2722 -0.4573
 5404SOL    HW120897   5.477   0.902   2.396  1.2299  1.6492  0.7700
 5404SOL    HW220898   5.429   0.780   2.471  0.8407 -0.2820 -2.4146
 5405SOL     OW20899   5.941   1.036   2.378 -0.3423  0.1009  0.2197
 5405SOL    HW120900   5.886   1.100   2.332 -0.4847 -1.3513 -1.7572
 5405SOL    HW220901   5.921   1.049   2.471 -4.2048 -0.4431 -0.3819
 5406SOL     OW20902   0.326   7.199  11.682 -0.4998  0.4317  0.5264
 5406SOL    HW120903   0.341   7.146  11.761  0.4924 -0.2917 -0.1242
 5406SOL    HW220904   0.397   7.263  11.683 -0.9302  0.9097  0.6121
 5407SOL     OW20905   2.115  11.245  10.198  0.5041 -0.4264 -0.0713
 5407SOL    HW120906   2.205  11.271  10.176  0.2443  0.0551 -0.5924
 5407SOL    HW220907   2.070  11.241  10.113 -0.6134  1.7905  0.3412
 5408SOL     OW20908   7.801   5.366   3.043 -0.6834  0.1766  0.0948
 5408SOL    HW120909   7.816   5.291   3.101 -0.0574  1.3032  1.4545
 5408SOL    HW220910   7.706   5.372   3.035 -0.8079 -2.7253 -2.7812
 5409SOL     OW20911   0.002   4.489   3.255  0.0531  0.1879 -0.5935
 5409SOL    HW120912  -0.003   4.418   3.319 -1.9001  0.0970 -0.7856
 5409SOL    HW220913   0.021   4.567   3.307  1.8351 -0.3708 -0.3400
 5410SOL     OW20914   1.334   5.146   5.876 -0.4299 -0.2294  0.2383
 5410SOL    HW120915   1.382   5.095   5.942 -0.7886  0.8090  1.3508
 5410SOL    HW220916   1.298   5.080   5.817  3.0303 -1.0532 -1.1993
 5411SOL     OW20917   5.256   7.327  11.239 -0.0383 -0.1635  0.4584
 5411SOL    HW120918   5.336   7.343  11.188  0.9783  0.1968  2.0894
 5411SOL    HW220919   5.284   7.266  11.308 -1.7272 -1.8352 -0.2484
 5412SOL     OW20920   1.261   5.036   3.111  0.8124  0.0108  0.6923
 5412SOL    HW120921   1.177   5.082   3.105  1.1929  0.7051  0.5314
 5412SOL    HW220922   1.292   5.055   3.200  0.8451 -0.1590  0.7169
 5413SOL     OW20923   0.035   6.224   3.065 -0.2104 -0.3117  0.2979
 5413SOL    HW120924  -0.021   6.166   3.117 -3.2328  1.6577 -0.4775
 5413SOL    HW220925   0.048   6.301   3.120 -0.4032  0.2828 -0.4726
 5414SOL     OW20926   3.094   1.697  10.574  0.8958 -0.3417  0.5129
 5414SOL    HW120927   3.035   1.662  10.508  0.4158 -1.6540  1.6012
 5414SOL    HW220928   3.117   1.784  10.542 -1.6404  0.2313  0.0582
 5415SOL     OW20929  11.819   6.702   6.531 -0.2273  0.2109 -0.2116
 5415SOL    HW120930  11.900   6.652   6.541 -0.0966 -0.0646 -2.2056
 5415SOL    HW220931  11.753   6.636   6.512 -0.7507  0.5295  0.4423
 5416SOL     OW20932   5.000   7.631   0.621 -0.0546  0.3057  0.1597
 5416SOL    HW120933   5.065   7.630   0.551 -0.2288  4.4768 -0.2970
 5416SOL    HW220934   4.925   7.585   0.584  0.9056 -0.3035 -1.1502
 5417SOL     OW20935   8.770   7.172   8.313 -0.1264 -0.2621  0.0525
 5417SOL    HW120936   8.777   7.229   8.236 -1.1743  0.3624  0.4080
 5417SOL    HW220937   8.756   7.232   8.386  1.3241 -0.8177  0.8257
 5418SOL     OW20938   0.197   0.661  10.099  0.2436 -0.2269  0.3964
 5418SOL    HW120939   0.111   0.642  10.135  0.1598  0.4669  0.5773
 5418SOL    HW220940   0.259   0.634  10.167  0.0875  1.0592  1.0766
 5419SOL     OW20941   6.737   8.896   4.294  0.0157  0.4687 -0.0724
 5419SOL    HW120942   6.764   8.929   4.209  0.5386  1.3061  0.4038
 5419SOL    HW220943   6.810   8.917   4.352 -0.8874  1.1419  0.8653
 5420SOL     OW20944  10.361   9.457   8.902 -0.1136  0.1435 -0.3414
 5420SOL    HW120945  10.381   9.399   8.829 -0.9206 -1.9108  0.9727
 5420SOL    HW220946  10.446   9.475   8.942 -0.0118 -2.1887  0.6419
 5421SOL     OW20947   7.221   5.108   1.493  0.2578  0.5458 -0.1315
 5421SOL    HW120948   7.310   5.076   1.508 -0.2452 -0.8925 -0.0670
 5421SOL    HW220949   7.217   5.127   1.399  0.5543  0.3133 -0.1919
 5422SOL     OW20950   6.197   1.200   5.933  0.2270  0.4447 -0.3180
 5422SOL    HW120951   6.275   1.206   5.878 -0.0801 -0.6805 -0.9075
 5422SOL    HW220952   6.132   1.156   5.878 -0.9220  1.5733  0.0669
 5423SOL     OW20953   4.011   8.006   5.551 -0.8803  0.3627 -0.1698
 5423SOL    HW120954   4.016   7.957   5.633  1.5848  2.6158  1.1752
 5423SOL    HW220955   4.029   7.941   5.483 -0.6249 -1.1347  1.2796
 5424SOL     OW20956  10.962   2.886   4.071  0.1868  0.4571  0.5440
 5424SOL    HW120957  10.894   2.818   4.068  0.1650  0.4884  0.2899
 5424SOL    HW220958  10.940   2.944   3.998  0.9493  0.0188 -0.0500
 5425SOL     OW20959   7.463   6.979   4.647 -0.5219  0.3257  1.0126
 5425SOL    HW120960   7.463   7.052   4.709  2.1417  1.0438  0.3089
 5425SOL    HW220961   7.512   7.012   4.571  0.6211 -2.1050  0.6022
 5426SOL     OW20962  10.588   3.596  10.722  0.0668 -0.2228  0.4909
 5426SOL    HW120963  10.506   3.600  10.672 -0.1463  0.7424  0.9086
 5426SOL    HW220964  10.649   3.653  10.674  0.0347  0.2531  1.0051
 5427SOL     OW20965   5.113   9.590   1.544 -0.0387  0.2597 -0.1092
 5427SOL    HW120966   5.197   9.589   1.590  0.5053  1.7046 -1.0245
 5427SOL    HW220967   5.127   9.647   1.469 -2.4282  2.2201  0.8155
 5428SOL     OW20968   3.868   0.117   8.829  1.0859 -0.0763 -0.2191
 5428SOL    HW120969   3.878   0.029   8.792  0.1987 -0.1247 -0.3764
 5428SOL    HW220970   3.856   0.174   8.753  0.2765 -0.0277 -0.0664
 5429SOL     OW20971   0.820   9.902   1.861  0.1394 -0.3707 -0.7404
 5429SOL    HW120972   0.787   9.922   1.774 -1.3484 -0.6634 -0.2695
 5429SOL    HW220973   0.790   9.975   1.916 -1.8334 -1.7794  0.1676
 5430SOL     OW20974   6.256   6.191   1.244 -0.2713 -0.4160 -0.0897
 5430SOL    HW120975   6.243   6.118   1.305  0.1481 -0.7075 -0.3436
 5430SOL    HW220976   6.299   6.151   1.168 -1.0884 -0.1279 -0.7274
 5431SOL     OW20977   2.293   9.065   4.066 -0.3308  0.1302  0.0305
 5431SOL    HW120978   2.377   9.062   4.113 -0.1709 -1.3979 -0.2956
 5431SOL    HW220979   2.317   9.075   3.974 -0.5219  0.1878 -0.0133
 5432SOL     OW20980   3.521   5.137   5.885  0.1345 -0.1496  0.1489
 5432SOL    HW120981   3.569   5.055   5.878 -1.1967 -0.8483 -2.0079
 5432SOL    HW220982   3.472   5.143   5.802  0.1406  2.7939  0.2542
 5433SOL     OW20983   3.199  11.331   3.069 -0.2716 -0.3367 -0.2615
 5433SOL    HW120984   3.215  11.394   3.140 -2.5976  0.1203 -0.0850
 5433SOL    HW220985   3.117  11.359   3.029 -0.5814 -2.3678 -1.1783
 5434SOL     OW20986   6.890   4.609  11.069  0.4671 -0.5403  0.2913
 5434SOL    HW120987   6.926   4.549  11.135  1.7789  0.9121  0.9442
 5434SOL    HW220988   6.944   4.687  11.075 -2.2105  1.4453  0.6569
 5435SOL     OW20989  11.336   4.840   9.978 -0.1640  0.5476  0.2165
 5435SOL    HW120990  11.269   4.886  10.029 -1.3262 -1.5934  0.7484
 5435SOL    HW220991  11.385   4.789  10.043 -0.1191 -0.3816 -0.5252
 5436SOL     OW20992  10.888  10.142   3.182  0.3706  0.7442 -0.1914
 5436SOL    HW120993  10.815  10.083   3.200 -1.1776  3.0261  1.5796
 5436SOL    HW220994  10.966  10.092   3.207 -0.8461 -0.6154  1.1204
 5437SOL     OW20995   2.832  10.238   3.761  0.3969  0.0854 -0.6307
 5437SOL    HW120996   2.783  10.320   3.768 -0.4834 -0.3578 -1.4914
 5437SOL    HW220997   2.861  10.235   3.670 -0.7912 -1.2283 -1.0025
 5438SOL     OW20998   9.676   5.117   6.247 -0.0871 -0.2894 -0.1135
 5438SOL    HW120999   9.626   5.126   6.166 -0.4473  1.8536  0.2952
 5438SOL    HW221000   9.629   5.170   6.311  1.4054 -0.1306  0.9169
 5439SOL     OW21001  11.037  10.400   4.840 -0.2649  0.3081 -0.3872
 5439SOL    HW121002  11.133  10.394   4.841 -0.2842 -0.4429 -1.4625
 5439SOL    HW221003  11.012  10.401   4.932  0.6975 -1.0676 -0.0892
 5440SOL     OW21004   3.634   4.994  10.290  0.5717  0.1425  0.2404
 5440SOL    HW121005   3.549   4.999  10.247 -1.1319 -4.6272  2.3372
 5440SOL    HW221006   3.692   4.954  10.226 -0.9445 -3.4345  0.8788
 5441SOL     OW21007   5.452   5.844   8.189  0.7720  0.4519 -0.4930
 5441SOL    HW121008   5.443   5.750   8.177 -1.5141  0.4026  0.9427
 5441SOL    HW221009   5.414   5.882   8.110  0.5444  0.1618 -0.5243
 5442SOL     OW21010  11.785   8.354   1.324 -0.1568  0.1852 -0.0752
 5442SOL    HW121011  11.842   8.317   1.257  0.4414  1.2937 -0.1994
 5442SOL    HW221012  11.779   8.286   1.391 -0.3708 -0.7450 -1.0155
 5443SOL     OW21013  11.460   2.437   7.943 -0.3664  0.1362  0.3264
 5443SOL    HW121014  11.383   2.458   7.890 -0.1623 -0.0769 -0.0611
 5443SOL    HW221015  11.531   2.486   7.901 -0.2801  0.2914  0.6521
 5444SOL     OW21016   2.774   2.371   3.630 -0.3197  0.4607 -0.8700
 5444SOL    HW121017   2.756   2.448   3.576 -2.3664 -0.6158 -1.8425
 5444SOL    HW221018   2.712   2.305   3.600  0.2250 -1.0478  1.0615
 5445SOL     OW21019   0.132   9.919   8.156  0.0605  0.1351  0.4124
 5445SOL    HW121020   0.085   9.880   8.229  3.2243  0.3817  2.7604
 5445SOL    HW221021   0.101  10.010   8.154  2.0185  1.0036  3.5480
 5446SOL     OW21022   6.105   5.602   8.759  0.4696  0.3178 -1.0749
 5446SOL    HW121023   6.095   5.534   8.826  0.9910  0.0716 -1.2402
 5446SOL    HW221024   6.183   5.575   8.710 -0.5868 -0.1605 -2.5501
 5447SOL     OW21025   2.317   8.936  10.958 -0.0893 -0.5341 -0.1515
 5447SOL    HW121026   2.325   8.861  10.899  0.3468 -0.2238 -0.4946
 5447SOL    HW221027   2.248   8.990  10.920  1.1380  0.3733 -1.1859
 5448SOL     OW21028   0.240  10.724   7.721 -1.1055  0.4680  0.5238
 5448SOL    HW121029   0.302  10.795   7.703  0.1825 -0.7351  0.0086
 5448SOL    HW221030   0.201  10.704   7.635  0.7902 -1.4176  0.0037
 5449SOL     OW21031  10.650   8.084   9.671  0.1842 -0.2165 -0.0044
 5449SOL    HW121032  10.608   8.161   9.631 -0.0501 -1.0405 -1.4289
 5449SOL    HW221033  10.580   8.020   9.677  0.7900 -0.9515 -0.6077
 5450SOL     OW21034   9.575   0.217   9.056 -0.2346 -0.0335 -0.1825
 5450SOL    HW121035   9.483   0.225   9.082  0.3474 -0.3027  2.2795
 5450SOL    HW221036   9.575   0.154   8.984 -1.8956 -1.0994  0.6866
 5451SOL     OW21037   2.435   3.623   9.301 -0.6795  0.0426 -0.3373
 5451SOL    HW121038   2.494   3.698   9.305  2.3749 -2.0994 -1.5409
 5451SOL    HW221039   2.457   3.570   9.378 -0.1636 -1.3048 -1.3551
 5452SOL     OW21040  11.123  11.490   4.741 -0.1390  0.8680 -0.5890
 5452SOL    HW121041  11.038  11.518   4.708 -0.5176  0.6511  0.1828
 5452SOL    HW221042  11.167  11.571   4.766 -1.3135  0.8575  1.8388
 5453SOL     OW21043   1.904   7.462   0.064  0.2034  0.1773  0.6947
 5453SOL    HW121044   1.819   7.438   0.028 -0.0988  2.8234 -0.6804
 5453SOL    HW221045   1.919   7.400   0.135 -1.8360 -1.7440 -0.4324
 5454SOL     OW21046   0.339  11.629   6.332  0.0529 -0.0056 -0.6637
 5454SOL    HW121047   0.343  11.721   6.309  0.2200  0.6171  1.6341
 5454SOL    HW221048   0.417  11.614   6.387  0.3066 -1.6434 -1.3935
 5455SOL     OW21049  10.107   4.762   6.104 -0.3902 -0.7548  0.0810
 5455SOL    HW121050  10.018   4.727   6.101 -0.2703 -1.0055 -1.9254
 5455SOL    HW221051  10.096   4.857   6.106 -0.7012 -0.7908  0.0222
 5456SOL     OW21052   1.711  11.988  11.934 -0.5426  0.2137  0.0596
 5456SOL    HW121053   1.721  11.893  11.925 -0.4006  0.2797 -0.5207
 5456SOL    HW221054   1.760  12.024  11.860  0.5656  0.7923  1.0487
 5457SOL     OW21055   1.387   5.410   9.088  0.3028  0.6378 -0.4649
 5457SOL    HW121056   1.360   5.357   9.163  0.0608  1.5780  0.1255
 5457SOL    HW221057   1.463   5.363   9.052 -0.5232 -0.6500 -0.5863
 5458SOL     OW21058  11.488   5.540   7.647 -0.0446  0.3924  0.3441
 5458SOL    HW121059  11.448   5.456   7.669 -0.6755  0.9906  1.5891
 5458SOL    HW221060  11.536   5.523   7.566 -0.3418 -1.1034  0.4487
 5459SOL     OW21061   2.499   3.002  11.702 -0.4442  0.0465  0.1732
 5459SOL    HW121062   2.552   3.082  11.691  0.0905 -0.4927 -1.4090
 5459SOL    HW221063   2.561   2.938  11.739 -0.8425  0.2932  1.3251
 5460SOL     OW21064   4.533   6.512   0.581  0.4910 -0.2847  0.0961
 5460SOL    HW121065   4.516   6.437   0.523  2.6927 -0.1301 -0.8370
 5460SOL    HW221066   4.548   6.585   0.521  1.8149  0.1119  0.8734
 5461SOL     OW21067  11.477   0.294  10.510  0.0740  0.3754  0.3782
 5461SOL    HW121068  11.477   0.204  10.477  2.5526  0.0955  0.9140
 5461SOL    HW221069  11.456   0.285  10.603 -0.2586  0.4227  0.3087
 5462SOL     OW21070   5.799  11.138   5.042  0.1471 -0.4182 -0.2347
 5462SOL    HW121071   5.772  11.197   4.972  3.2274  2.9188  1.1066
 5462SOL    HW221072   5.758  11.173   5.121 -0.2806 -1.8980  0.2406
 5463SOL     OW21073   3.879   9.344   9.790 -0.6062  0.1889 -0.4034
 5463SOL    HW121074   3.916   9.299   9.866 -1.4652 -0.9065 -0.6095
 5463SOL    HW221075   3.894   9.437   9.808  1.4443 -0.1459 -0.0863
 5464SOL     OW21076   7.339   8.322   1.358 -0.3077  0.1300 -0.0563
 5464SOL    HW121077   7.300   8.365   1.282  0.5315  0.9620 -0.0341
 5464SOL    HW221078   7.397   8.256   1.321 -1.1255 -0.5859 -0.0991
 5465SOL     OW21079  11.764   6.975  10.004  0.3047  0.9441  0.4349
 5465SOL    HW121080  11.710   6.956  10.080 -0.3083  0.9035 -0.0098
 5465SOL    HW221081  11.772   7.071  10.003 -0.9440  1.0544 -0.3056
 5466SOL     OW21082   3.825   5.511   9.148 -0.3763 -0.3409 -0.1773
 5466SOL    HW121083   3.800   5.441   9.207 -1.7622  0.8726  0.7257
 5466SOL    HW221084   3.906   5.547   9.186 -0.8159 -0.0930  0.5357
 5467SOL     OW21085   9.882   9.499  10.740 -0.2990  0.6317  0.3922
 5467SOL    HW121086   9.974   9.474  10.749 -0.0013  0.2195 -2.6429
 5467SOL    HW221087   9.848   9.498  10.829  2.4656  0.1784  1.5488
 5468SOL     OW21088   8.757   6.572   0.610  0.5743  0.2441 -0.0442
 5468SOL    HW121089   8.829   6.635   0.621  0.6144 -0.0862  2.1754
 5468SOL    HW221090   8.694   6.596   0.679 -0.3799 -0.8693 -0.5011
 5469SOL     OW21091   3.976   9.059   1.929  0.5409 -0.2654 -0.5964
 5469SOL    HW121092   3.987   9.148   1.895  0.9470  0.7965  2.1203
 5469SOL    HW221093   3.881   9.045   1.927  0.4171  0.4971 -0.3848
 5470SOL     OW21094   4.386   3.174   9.980 -0.4091  0.6036  0.3305
 5470SOL    HW121095   4.477   3.158  10.006 -0.5742  0.1944  0.6772
 5470SOL    HW221096   4.346   3.212  10.059 -0.6118  0.5137  0.2705
 5471SOL     OW21097   8.152   9.991   9.060 -0.2863  0.3666 -0.1780
 5471SOL    HW121098   8.160   9.997   9.155  0.5439 -0.4926 -0.1786
 5471SOL    HW221099   8.145   9.897   9.042 -0.3779  0.5152 -0.9690
 5472SOL     OW21100   3.870   8.003  11.484  0.1689  0.5195 -0.2412
 5472SOL    HW121101   3.899   7.984  11.394 -2.9153 -2.2135 -0.8374
 5472SOL    HW221102   3.897   7.926  11.534 -1.5761  0.1798  0.2265
 5473SOL     OW21103   3.249   9.366   2.699  0.2303  0.0680  0.6111
 5473SOL    HW121104   3.193   9.351   2.775 -1.6109 -0.6955 -0.7877
 5473SOL    HW221105   3.298   9.284   2.688 -0.3096 -0.2280  0.3671
 5474SOL     OW21106   6.755   0.350   2.873 -0.1978  0.4305  0.8858
 5474SOL    HW121107   6.673   0.336   2.825 -0.1447 -0.7325  1.0892
 5474SOL    HW221108   6.730   0.404   2.948 -0.5100  1.2383  0.2045
 5475SOL     OW21109   8.641   4.790   7.498  0.3190 -0.1567  0.1379
 5475SOL    HW121110   8.628   4.699   7.474 -1.8952 -0.7939  3.2995
 5475SOL    HW221111   8.710   4.788   7.564 -0.7845  0.2054  1.3428
 5476SOL     OW21112  10.008   1.613  11.415  0.3284  0.5103 -0.1935
 5476SOL    HW121113  10.063   1.615  11.493  1.9249  0.6918 -1.2971
 5476SOL    HW221114   9.921   1.588  11.449  0.7839  1.3219  1.7275
 5477SOL     OW21115   4.500   8.430   7.890 -0.3663  0.0122  0.3870
 5477SOL    HW121116   4.491   8.366   7.960 -0.3427 -0.2328  0.1703
 5477SOL    HW221117   4.422   8.417   7.836  1.5253 -2.8017 -2.0487
 5478SOL     OW21118   0.767   3.757   5.766 -0.0120  0.5089  0.2797
 5478SOL    HW121119   0.830   3.817   5.806  0.8618 -0.8933  1.0963
 5478SOL    HW221120   0.719   3.810   5.703  1.6796  1.7277 -0.0377
 5479SOL     OW21121   7.912   1.758  11.616  0.0444  0.4224  0.5179
 5479SOL    HW121122   7.839   1.773  11.556 -0.3212  0.3071  0.9209
 5479SOL    HW221123   7.959   1.841  11.619 -0.7575  0.8688  1.1463
 5480SOL     OW21124   4.237   5.968  10.352  0.2984 -0.1262  0.3774
 5480SOL    HW121125   4.278   6.015  10.280 -0.5829  1.4752  0.8715
 5480SOL    HW221126   4.274   6.009  10.431 -0.1270 -0.5852  0.8221
 5481SOL     OW21127   4.613   8.316   1.268 -0.6737  0.5016 -0.6524
 5481SOL    HW121128   4.689   8.351   1.221 -0.2373  2.5092  1.3861
 5481SOL    HW221129   4.640   8.315   1.360 -2.6307 -0.1105 -0.0425
 5482SOL     OW21130   8.407  10.987   7.592  0.3973 -0.1069  0.2667
 5482SOL    HW121131   8.317  10.973   7.623  0.6423  0.0008  1.0449
 5482SOL    HW221132   8.414  11.082   7.584  0.0684 -0.1639 -0.9730
 5483SOL     OW21133   2.725   2.866  11.806 -0.1628 -0.3289 -0.6049
 5483SOL    HW121134   2.716   2.897  11.896 -0.3889 -0.9013 -0.4228
 5483SOL    HW221135   2.814   2.891  11.780 -0.3307  0.4274 -0.4570
 5484SOL     OW21136   1.488   2.631   3.720  0.1944 -0.5320 -0.1057
 5484SOL    HW121137   1.397   2.660   3.726  0.3618 -0.2949  1.9362
 5484SOL    HW221138   1.539   2.709   3.742  1.0355 -0.2164 -2.7401
 5485SOL     OW21139   1.493   3.191   4.352  0.5297  0.4030 -0.0425
 5485SOL    HW121140   1.573   3.225   4.392  0.0929 -0.5434  1.7450
 5485SOL    HW221141   1.464   3.261   4.293  2.9736  0.5189 -1.1989
 5486SOL     OW21142   9.664   0.425   1.025  0.0509  0.3177 -0.7311
 5486SOL    HW121143   9.692   0.484   1.095 -0.2849 -0.3544 -0.0234
 5486SOL    HW221144   9.745   0.383   0.995  0.2751  1.0412 -1.1628
 5487SOL     OW21145   3.201   9.612   9.940 -0.1326 -0.3673  0.1051
 5487SOL    HW121146   3.125   9.554   9.951  0.3455 -0.8278  1.1148
 5487SOL    HW221147   3.241   9.616  10.027  0.7174  0.2729 -0.2995
 5488SOL     OW21148   2.168   4.458  11.675 -0.1808  0.3026 -0.0360
 5488SOL    HW121149   2.075   4.472  11.655  0.3731  0.6169 -2.7116
 5488SOL    HW221150   2.168   4.384  11.736 -2.2535  1.6145  1.7018
 5489SOL     OW21151   4.552   9.645   7.585 -0.1091  0.2473  0.4039
 5489SOL    HW121152   4.573   9.735   7.561 -0.5835  0.8806  2.1695
 5489SOL    HW221153   4.515   9.652   7.673  0.3879 -1.7478  0.8232
 5490SOL     OW21154   1.158   2.563   7.488  0.2717 -0.1713 -0.0961
 5490SOL    HW121155   1.220   2.592   7.421 -0.2612  0.4695 -0.3345
 5490SOL    HW221156   1.074   2.601   7.460 -0.8616 -3.2235 -1.2980
 5491SOL     OW21157   4.607   1.529   8.995 -0.0374  0.5379 -0.2866
 5491SOL    HW121158   4.663   1.605   8.978  0.5968 -0.2270 -1.7741
 5491SOL    HW221159   4.659   1.454   8.968 -1.2946 -0.3024 -0.4550
 5492SOL     OW21160   2.344   3.710   4.860  0.1678  0.0907 -0.4847
 5492SOL    HW121161   2.407   3.704   4.932 -0.2322 -0.2120 -0.1567
 5492SOL    HW221162   2.268   3.754   4.899 -0.3713 -0.8159 -0.4907
 5493SOL     OW21163   1.772   3.267  10.303  0.7647  0.2999 -0.4342
 5493SOL    HW121164   1.719   3.274  10.223  0.3408 -0.0929 -0.1945
 5493SOL    HW221165   1.785   3.173  10.316  1.4512  0.3896 -0.4373
 5494SOL     OW21166   4.391   2.612   9.476  0.0816 -0.1901 -0.4920
 5494SOL    HW121167   4.485   2.627   9.485 -0.1086  0.4681  0.5693
 5494SOL    HW221168   4.367   2.656   9.393  0.8761 -1.2759 -1.3169
 5495SOL     OW21169   9.067   6.996   0.642  0.5745 -0.2493 -0.1945
 5495SOL    HW121170   9.113   7.079   0.654 -0.2697  0.3357 -0.8524
 5495SOL    HW221171   9.129   6.940   0.595  1.5550 -0.3910  1.2029
 5496SOL     OW21172   5.469   9.399   5.072 -0.2481  0.5993 -0.4712
 5496SOL    HW121173   5.553   9.444   5.062 -0.2554  1.1387  1.4514
 5496SOL    HW221174   5.404   9.467   5.054 -0.2505  0.8160  0.2980
 5497SOL     OW21175   8.283   3.837   1.864  0.7981  0.0795 -0.0600
 5497SOL    HW121176   8.297   3.925   1.827  0.7958 -0.5309 -1.5687
 5497SOL    HW221177   8.224   3.794   1.802  0.3619 -0.8255  0.9503
 5498SOL     OW21178  10.060   4.415   3.437  0.1751  0.8016 -0.2462
 5498SOL    HW121179  10.098   4.360   3.369 -1.4693  0.3424 -0.8215
 5498SOL    HW221180  10.011   4.483   3.390 -2.6340 -0.6586  0.3616
 5499SOL     OW21181  11.673   6.296   3.856 -0.3715  0.5520  0.2000
 5499SOL    HW121182  11.619   6.369   3.885 -0.6359 -0.0065  1.1427
 5499SOL    HW221183  11.617   6.246   3.796 -0.4331  0.7257  0.1145
 5500SOL     OW21184   1.319   8.420   6.580 -0.0653 -0.1787  0.3027
 5500SOL    HW121185   1.291   8.359   6.512  1.3434 -0.7512  0.2042
 5500SOL    HW221186   1.350   8.497   6.531 -0.9063  0.2252  0.3890
 5501SOL     OW21187   8.715   9.437   1.507  0.0111  0.1070  0.3820
 5501SOL    HW121188   8.696   9.527   1.533  1.2633  0.2274  0.9913
 5501SOL    HW221189   8.755   9.446   1.420  2.9211  0.5224  1.6115
 5502SOL     OW21190   4.721   8.772   1.199 -0.4704  0.3837 -0.5607
 5502SOL    HW121191   4.792   8.708   1.197  0.3882  1.0094  3.1169
 5502SOL    HW221192   4.761   8.852   1.164 -0.2466  0.0270 -1.1444
 5503SOL     OW21193   0.490   2.057   8.685  0.1001 -0.4506  0.2475
 5503SOL    HW121194   0.521   2.141   8.718 -0.2336  0.4033 -1.4789
 5503SOL    HW221195   0.398   2.053   8.711 -0.2850  0.4203 -0.8707
 5504SOL     OW21196  11.745   2.492   8.689  0.6712  0.0519 -0.4441
 5504SOL    HW121197  11.656   2.525   8.674  0.4660  0.0269  0.6409
 5504SOL    HW221198  11.796   2.570   8.709  0.6871 -0.0255 -0.1713
 5505SOL     OW21199   7.444  11.559   8.932 -0.3487  0.0341  0.8177
 5505SOL    HW121200   7.518  11.564   8.994  1.3307 -2.2484 -0.8509
 5505SOL    HW221201   7.399  11.478   8.955 -0.9288  0.2024  0.3052
 5506SOL     OW21202   5.221   8.697  11.768 -0.0784  0.2877 -0.1050
 5506SOL    HW121203   5.206   8.791  11.783 -3.4220 -0.2046  0.4585
 5506SOL    HW221204   5.227   8.659  11.855  1.0588 -0.0661 -0.3280
 5507SOL     OW21205   2.275   9.868   7.580  0.0741 -0.8374 -0.0316
 5507SOL    HW121206   2.232   9.793   7.539  2.2390 -0.6583 -2.9754
 5507SOL    HW221207   2.208   9.937   7.580 -0.8352 -1.6819 -0.8073
 5508SOL     OW21208   3.215   6.483   7.253 -0.5768  0.1025  0.1842
 5508SOL    HW121209   3.134   6.493   7.203 -0.3545  0.3050 -0.1422
 5508SOL    HW221210   3.195   6.419   7.321 -1.4672  1.2634  1.0710
 5509SOL     OW21211   0.813   4.665  10.481  0.1310 -0.2925 -0.0006
 5509SOL    HW121212   0.734   4.697  10.437  1.0650  0.6377 -1.0579
 5509SOL    HW221213   0.852   4.604  10.419  1.0819  0.4795 -0.1847
 5510SOL     OW21214   3.173   0.885   0.113 -0.3590 -0.3808  0.0251
 5510SOL    HW121215   3.179   0.822   0.185  1.2195  0.6446  0.8499
 5510SOL    HW221216   3.256   0.877   0.067  0.3013  1.6754  0.7114
 5511SOL     OW21217   5.016  10.191  11.565  0.4162 -0.0692  0.6430
 5511SOL    HW121218   4.958  10.149  11.629 -1.8711 -1.5184 -2.1739
 5511SOL    HW221219   4.959  10.252  11.519  0.9441 -1.6883 -2.3756
 5512SOL     OW21220   6.937   7.180   4.261  0.5016 -0.2167  0.0241
 5512SOL    HW121221   7.007   7.156   4.200  0.0078 -0.7929 -0.3269
 5512SOL    HW221222   6.928   7.104   4.318  0.1581 -0.1468  0.0612
 5513SOL     OW21223   3.332   2.491  10.300 -0.5020  0.2040  0.5849
 5513SOL    HW121224   3.303   2.579  10.276 -0.6100  0.3693  1.3019
 5513SOL    HW221225   3.389   2.504  10.376  0.6251 -0.2219 -0.1661
 5514SOL     OW21226   4.517   0.241   1.551  0.2473 -0.1112  0.2772
 5514SOL    HW121227   4.546   0.150   1.538  1.3116  0.2941 -0.2573
 5514SOL    HW221228   4.597   0.292   1.558 -0.2956  0.5476  2.6850
 5515SOL     OW21229   4.338   0.903   2.920  0.6727  0.1635 -0.0984
 5515SOL    HW121230   4.396   0.929   2.991 -0.1927  1.6713  0.0803
 5515SOL    HW221231   4.376   0.943   2.842  0.6334 -0.0181 -0.2136
 5516SOL     OW21232   9.791   5.707   9.698  0.0116 -0.4624  0.4230
 5516SOL    HW121233   9.763   5.799   9.704  0.2100 -0.4437  1.1439
 5516SOL    HW221234   9.835   5.701   9.613  1.1704  0.4402  0.9331
 5517SOL     OW21235   1.891   5.305   3.792 -0.4506  0.5565  0.2137
 5517SOL    HW121236   1.969   5.313   3.737 -1.0601 -1.2234 -1.0077
 5517SOL    HW221237   1.825   5.269   3.733 -2.1201  1.7243  1.3111
 5518SOL     OW21238   4.837   3.057   3.389  0.3181  0.2288  0.8386
 5518SOL    HW121239   4.838   2.966   3.358 -1.3163  0.5695 -0.3318
 5518SOL    HW221240   4.747   3.072   3.417  0.3303  1.7580  0.1441
 5519SOL     OW21241  10.296   1.285   3.543  1.0135  0.3061  0.5540
 5519SOL    HW121242  10.269   1.375   3.562  0.0466  0.1549 -0.0142
 5519SOL    HW221243  10.214   1.237   3.534  1.4208 -0.0812 -1.7127
 5520SOL     OW21244   6.354   3.439   4.442  0.5546 -0.2631 -0.2286
 5520SOL    HW121245   6.414   3.382   4.395  3.1355 -0.9441  3.4847
 5520SOL    HW221246   6.404   3.519   4.459  0.9517 -1.0884  3.5261
 5521SOL     OW21247  10.854   4.127   0.047 -0.0353  0.3156 -0.0064
 5521SOL    HW121248  10.770   4.166   0.020 -0.1877 -1.1143 -1.7942
 5521SOL    HW221249  10.891   4.191   0.108 -1.7215  1.7054 -0.3449
 5522SOL     OW21250   4.358   1.952   3.178  0.1747  0.0874 -0.1742
 5522SOL    HW121251   4.342   1.996   3.262  1.7335 -0.6967  0.5764
 5522SOL    HW221252   4.272   1.950   3.136 -1.2776 -1.6476  2.4845
 5523SOL     OW21253   9.049   2.294   6.322  0.1761 -0.4608 -0.4975
 5523SOL    HW121254   9.016   2.379   6.353  0.5918 -0.5700  0.2650
 5523SOL    HW221255   9.053   2.304   6.227  1.3974  0.8296 -0.3490
 5524SOL     OW21256   3.671   7.680   8.129 -0.0652  0.0519  0.5238
 5524SOL    HW121257   3.672   7.769   8.095  0.1456  0.2146  0.9580
 5524SOL    HW221258   3.599   7.679   8.192 -0.6305 -0.3245 -0.1097
 5525SOL     OW21259   6.148   0.788   5.754  0.0664 -0.1983  0.1189
 5525SOL    HW121260   6.119   0.845   5.826  0.7504  1.0128 -0.5286
 5525SOL    HW221261   6.145   0.844   5.677 -2.4274 -1.9640 -1.1957
 5526SOL     OW21262  11.220   6.334   7.565  0.1569 -0.0707  0.1661
 5526SOL    HW121263  11.315   6.322   7.569  0.2246 -0.3392 -1.6238
 5526SOL    HW221264  11.207   6.404   7.500 -0.9060 -0.5492 -0.1641
 5527SOL     OW21265   3.888   7.792   6.663  0.4024  0.5792 -0.1741
 5527SOL    HW121266   3.812   7.796   6.606 -0.2770  0.7475  0.7176
 5527SOL    HW221267   3.939   7.718   6.631 -0.7353 -0.2700 -0.0662
 5528SOL     OW21268  10.233   5.742   6.660 -0.3878 -0.9673 -0.3124
 5528SOL    HW121269  10.295   5.741   6.587  0.3665 -0.5509  0.3211
 5528SOL    HW221270  10.149   5.718   6.619  0.0092 -0.6994 -1.3257
 5529SOL     OW21271   9.479   2.075   0.230  0.2810  0.0404  0.6463
 5529SOL    HW121272   9.470   2.044   0.140  0.3059  0.0599  0.6375
 5529SOL    HW221273   9.389   2.077   0.263 -0.1860  3.4541 -0.4997
 5530SOL     OW21274   5.245   6.821   3.318 -0.2193  0.1984  0.1253
 5530SOL    HW121275   5.304   6.752   3.348  2.2485  2.3106  0.3832
 5530SOL    HW221276   5.257   6.893   3.379 -1.8421  1.3300 -0.7942
 5531SOL     OW21277   9.311   5.700   6.867  0.2357 -0.3715 -0.3172
 5531SOL    HW121278   9.357   5.667   6.944  0.4280  1.2236  0.2956
 5531SOL    HW221279   9.321   5.631   6.801  1.2962 -1.1513  0.6269
 5532SOL     OW21280  10.682  11.243  10.344  0.1439  0.1592 -0.1377
 5532SOL    HW121281  10.707  11.157  10.378  0.4864 -0.0765 -0.9475
 5532SOL    HW221282  10.638  11.286  10.417  0.9592 -0.2729  0.6347
 5533SOL     OW21283   6.544   7.288   0.616 -0.0322 -0.0976 -0.0978
 5533SOL    HW121284   6.455   7.253   0.609 -0.6280  0.9233  1.5233
 5533SOL    HW221285   6.581   7.245   0.693 -0.2066  1.5471  0.9686
 5534SOL     OW21286   8.393   3.707   3.800  0.0769 -0.0189  0.3606
 5534SOL    HW121287   8.384   3.700   3.705  1.2474  1.5177  0.0853
 5534SOL    HW221288   8.339   3.782   3.824  1.3209  0.8425  0.5857
 5535SOL     OW21289   3.425  10.763  10.714  0.2786  0.2983 -0.4252
 5535SOL    HW121290   3.495  10.782  10.650  1.4047  1.1110  0.9982
 5535SOL    HW221291   3.467  10.775  10.799 -1.2863 -0.4464  0.4810
 5536SOL     OW21292  11.879   4.782   8.188  0.0872  0.3964 -0.1622
 5536SOL    HW121293  11.922   4.864   8.210 -0.4713  0.4605  0.7646
 5536SOL    HW221294  11.791   4.791   8.224 -0.1117 -0.4554 -0.4042
 5537SOL     OW21295   8.719   9.682   9.998 -0.8950  0.3987 -0.1722
 5537SOL    HW121296   8.692   9.599   9.958 -1.7914  0.7770 -0.3962
 5537SOL    HW221297   8.701   9.671  10.091  0.3076 -0.1482  0.0105
 5538SOL     OW21298   6.227  11.825   5.154  0.1639  0.7357  0.1035
 5538SOL    HW121299   6.245  11.761   5.085  0.3947  0.7780  0.1223
 5538SOL    HW221300   6.270  11.905   5.124  0.9034  0.5483  0.6455
 5539SOL     OW21301   4.762   7.354   4.997 -0.6784  0.3411 -0.0872
 5539SOL    HW121302   4.734   7.408   4.923 -2.5301  0.4956  0.6512
 5539SOL    HW221303   4.680   7.314   5.029  0.1109  0.0293  1.6631
 5540SOL     OW21304   6.023   4.195   8.582 -0.5464 -0.3211 -0.2247
 5540SOL    HW121305   5.998   4.125   8.522  0.0032  0.5280 -1.4898
 5540SOL    HW221306   5.940   4.238   8.603 -0.8395 -1.1021  0.2644
 5541SOL     OW21307   2.652   3.105   9.095  0.0194  0.0937 -0.6118
 5541SOL    HW121308   2.731   3.055   9.118 -0.5202 -0.8448 -0.7576
 5541SOL    HW221309   2.626   3.070   9.010  0.2489  1.4017 -1.2521
 5542SOL     OW21310   3.899   1.710   4.202 -0.0349  0.0400 -0.0780
 5542SOL    HW121311   3.889   1.748   4.115 -0.8086  0.0015 -0.0155
 5542SOL    HW221312   3.993   1.700   4.214  0.0775  0.1501 -0.8622
 5543SOL     OW21313   6.506   6.318   7.186 -0.5255  0.0301 -0.6899
 5543SOL    HW121314   6.548   6.393   7.144 -0.3373 -0.7148 -1.8893
 5543SOL    HW221315   6.464   6.354   7.264  1.3554  0.9971 -0.0849
 5544SOL     OW21316   1.271   7.454   8.311  0.8578  0.0988  0.2482
 5544SOL    HW121317   1.234   7.490   8.392  0.8427  0.0750  0.2519
 5544SOL    HW221318   1.352   7.410   8.339 -0.5790 -2.4500  0.7223
 5545SOL     OW21319   8.966  10.500   2.402  0.3112 -0.0477  0.1992
 5545SOL    HW121320   8.961  10.410   2.372  1.9224 -0.5703  1.3599
 5545SOL    HW221321   8.898  10.546   2.351 -0.4760 -1.8565 -0.4798
 5546SOL     OW21322   1.954   9.540   2.369  0.2916 -0.0860  0.6406
 5546SOL    HW121323   1.865   9.522   2.340 -0.2405  2.0243  0.8035
 5546SOL    HW221324   1.945   9.615   2.428  2.1992  0.3419  0.4474
 5547SOL     OW21325  10.326   8.878   1.389  0.1857  0.6841  0.1386
 5547SOL    HW121326  10.363   8.957   1.427  1.5165  0.9990 -1.6457
 5547SOL    HW221327  10.350   8.882   1.296  2.1175 -2.7433  0.2945
 5548SOL     OW21328   7.329   7.230   2.663 -0.2010  0.0125 -0.4057
 5548SOL    HW121329   7.318   7.220   2.569 -0.0273  1.4527 -0.6083
 5548SOL    HW221330   7.358   7.321   2.674 -0.5145 -0.0404  1.0570
 5549SOL     OW21331  11.190   6.790   9.286 -0.3746 -0.1058 -0.1245
 5549SOL    HW121332  11.128   6.720   9.266  0.5414 -1.8388  2.6013
 5549SOL    HW221333  11.147   6.843   9.352  0.0612  0.1786 -0.0607
 5550SOL     OW21334  11.446   9.411  11.606  0.2156 -0.0978  0.1739
 5550SOL    HW121335  11.433   9.393  11.513  1.6861  0.3095 -0.1344
 5550SOL    HW221336  11.361   9.441  11.637 -0.5710 -1.2832 -0.7859
 5551SOL     OW21337   3.338   8.119   5.665  0.1371 -0.3038  0.5638
 5551SOL    HW121338   3.270   8.176   5.702  0.4385 -0.6782  1.7333
 5551SOL    HW221339   3.289   8.055   5.614 -0.5334 -1.2926  2.3537
 5552SOL     OW21340   5.187   2.038   5.507  0.0850  0.6459  0.2509
 5552SOL    HW121341   5.143   2.095   5.444  0.2245  1.1627  0.6098
 5552SOL    HW221342   5.274   2.077   5.517 -0.0300  0.7220  0.9630
 5553SOL     OW21343   0.950   3.860   3.450  0.0866  0.1457  0.3357
 5553SOL    HW121344   0.994   3.786   3.491  0.3079 -0.7949 -1.4983
 5553SOL    HW221345   0.887   3.821   3.390  0.9300  1.4005 -1.4457
 5554SOL     OW21346   5.888   1.288   1.237  0.0880  0.0744 -0.1678
 5554SOL    HW121347   5.944   1.340   1.178  0.8467 -0.3237  0.1953
 5554SOL    HW221348   5.934   1.288   1.320 -0.5192 -0.1641  0.1762
 5555SOL     OW21349   5.843  11.727   3.781 -0.5009 -0.0317  0.2943
 5555SOL    HW121350   5.871  11.677   3.704  1.0447  0.0276  0.7925
 5555SOL    HW221351   5.763  11.772   3.753 -0.8696 -1.3002 -0.7481
 5556SOL     OW21352   4.675  11.288   7.399  0.1657 -0.1101  0.1408
 5556SOL    HW121353   4.682  11.269   7.305  2.2037 -1.2357  0.4762
 5556SOL    HW221354   4.723  11.370   7.411  0.3798 -0.2546  0.2763
 5557SOL     OW21355   4.505   0.371  10.763  0.7196  0.0796 -0.9474
 5557SOL    HW121356   4.534   0.401  10.676 -1.2393  2.8562 -0.7742
 5557SOL    HW221357   4.436   0.307  10.745  2.0286 -1.2799 -1.3550
 5558SOL     OW21358   5.433   0.658   1.934  0.1730 -0.4280 -0.0593
 5558SOL    HW121359   5.368   0.677   2.001  0.1172  1.5915 -0.6299
 5558SOL    HW221360   5.516   0.689   1.972  0.2394  0.1391 -0.6507
 5559SOL     OW21361   9.431   9.470   0.691  0.5276  0.4204  0.0346
 5559SOL    HW121362   9.411   9.502   0.603 -1.2841 -0.1922  0.1641
 5559SOL    HW221363   9.357   9.500   0.744  1.0579 -0.1377  1.1201
 5560SOL     OW21364   2.603   1.846   2.074 -0.5785  0.3158  0.4757
 5560SOL    HW121365   2.624   1.839   1.981 -0.5800  0.0884  0.4919
 5560SOL    HW221366   2.508   1.854   2.077 -0.6792 -0.7971  0.5140
 5561SOL     OW21367   3.187   9.803   1.202 -0.8768  0.6265 -0.0121
 5561SOL    HW121368   3.125   9.813   1.274 -1.4259 -0.9449 -0.2299
 5561SOL    HW221369   3.269   9.780   1.245 -1.5407 -1.7817  0.1172
 5562SOL     OW21370   5.750   3.923   9.417  0.2217  0.1978 -0.0744
 5562SOL    HW121371   5.656   3.918   9.435  0.3046  0.2308  0.3718
 5562SOL    HW221372   5.765   3.853   9.353 -0.0869  0.1280 -0.0735
 5563SOL     OW21373   4.268   0.725   9.445  0.1272  0.6108 -0.3996
 5563SOL    HW121374   4.207   0.675   9.390  0.1499 -1.3808  1.2398
 5563SOL    HW221375   4.349   0.729   9.394 -0.3939  0.4350 -1.2632
 5564SOL     OW21376   3.625   4.300   0.060 -0.0890  0.3759 -0.6303
 5564SOL    HW121377   3.674   4.246   0.122  1.3112  1.0549 -1.1098
 5564SOL    HW221378   3.686   4.368   0.033 -1.3213  1.2797 -1.2360
 5565SOL     OW21379   2.392   9.325   0.806  0.2669 -0.2455 -0.1447
 5565SOL    HW121380   2.458   9.371   0.754  0.9353  0.5582  1.3573
 5565SOL    HW221381   2.319   9.387   0.810 -0.2758 -0.7970 -1.1028
 5566SOL     OW21382   7.815  10.377   5.885  0.1389  0.5341  0.1596
 5566SOL    HW121383   7.854  10.323   5.954  0.5434  2.1975  1.3009
 5566SOL    HW221384   7.869  10.359   5.808 -0.0460 -1.0301  0.3669
 5567SOL     OW21385   6.985   0.281   4.113  0.6370 -0.2596 -0.0794
 5567SOL    HW121386   6.905   0.289   4.060  1.2311  0.8111 -0.8558
 5567SOL    HW221387   6.956   0.298   4.202 -0.0111  0.0798 -0.3427
 5568SOL     OW21388   4.689   4.345  10.705  0.6311  0.1913  0.6528
 5568SOL    HW121389   4.728   4.430  10.724  0.0476  0.0105  2.9593
 5568SOL    HW221390   4.725   4.286  10.772 -1.3426 -0.6256  1.0717
 5569SOL     OW21391   5.128  10.342   8.406  0.5184 -0.2863 -0.0797
 5569SOL    HW121392   5.169  10.428   8.397 -0.5047  0.7884  3.7527
 5569SOL    HW221393   5.196  10.281   8.377  2.0723  1.6716 -0.8675
 5570SOL     OW21394   1.126   3.469   1.915  0.1930  0.0502  1.1552
 5570SOL    HW121395   1.131   3.393   1.973  0.8159  0.0796  1.1506
 5570SOL    HW221396   1.190   3.531   1.950  0.9469 -0.1356  0.1553
 5571SOL     OW21397  11.984   5.402  11.690 -0.4262 -0.1140  0.0293
 5571SOL    HW121398  12.049   5.455  11.735  1.0147 -1.4926 -0.3454
 5571SOL    HW221399  11.976   5.323  11.744  1.7188 -2.0421 -2.2176
 5572SOL     OW21400   0.570   6.874   1.975 -0.0041 -0.3150 -0.4417
 5572SOL    HW121401   0.643   6.904   1.921  0.9261  0.0806  0.9737
 5572SOL    HW221402   0.580   6.921   2.058 -1.0204 -1.3529  0.3099
 5573SOL     OW21403   3.894   5.983   0.974 -0.8616 -0.0748 -0.2105
 5573SOL    HW121404   3.875   5.979   0.880  1.3565  0.2645 -0.7457
 5573SOL    HW221405   3.950   5.907   0.991 -0.2805  0.5051  0.5614
 5574SOL     OW21406  10.200   2.590   8.032  0.1219 -0.5544 -0.7012
 5574SOL    HW121407  10.235   2.586   7.943  0.6347 -0.1232 -0.5213
 5574SOL    HW221408  10.268   2.550   8.087 -1.2022 -3.0842 -0.7736
 5575SOL     OW21409   5.949   1.454  10.939 -0.4278  0.2608 -0.0281
 5575SOL    HW121410   6.040   1.441  10.966 -0.7473 -1.8995  0.2296
 5575SOL    HW221411   5.941   1.548  10.923  1.8546  0.4946 -0.1047
 5576SOL     OW21412   6.169   5.599   8.421  0.3451  0.5702  0.4844
 5576SOL    HW121413   6.086   5.645   8.414  0.5887  0.9295 -0.2328
 5576SOL    HW221414   6.150   5.510   8.393  0.2533  0.7309  0.0140
 5577SOL     OW21415   3.522   5.538  11.374  0.0239 -0.4997 -0.4921
 5577SOL    HW121416   3.536   5.621  11.421 -1.1071  0.5213 -1.8803
 5577SOL    HW221417   3.604   5.525  11.325  0.2726 -0.2857 -0.1396
 5578SOL     OW21418   8.186   3.737  10.381  0.0402  0.1921  0.2941
 5578SOL    HW121419   8.172   3.661  10.438  0.6986  0.3888  0.7214
 5578SOL    HW221420   8.278   3.733  10.356 -0.0942  0.4500 -0.2688
 5579SOL     OW21421   1.864   5.824   5.998 -0.4874  0.2783  0.1675
 5579SOL    HW121422   1.841   5.733   5.980  0.3503 -0.5236  2.7607
 5579SOL    HW221423   1.946   5.819   6.045  0.4815  2.5386 -1.1150
 5580SOL     OW21424   3.529   8.247   1.904 -0.0990 -0.0811 -0.3168
 5580SOL    HW121425   3.593   8.232   1.834  0.2197 -0.2193  0.0041
 5580SOL    HW221426   3.467   8.309   1.866  1.8187  2.3897  0.2881
 5581SOL     OW21427   7.122   9.615  11.790  0.2227  0.1225  0.2552
 5581SOL    HW121428   7.217   9.621  11.778  0.2422 -0.7174 -0.0471
 5581SOL    HW221429   7.108   9.537  11.843 -0.3826 -0.6655 -1.0062
 5582SOL     OW21430  11.196  11.733   6.005  0.1606 -0.5619  0.3032
 5582SOL    HW121431  11.272  11.739   5.947  0.3301 -0.5373  0.5267
 5582SOL    HW221432  11.122  11.751   5.948  0.4758  1.8093  0.5396
 5583SOL     OW21433  10.841   6.251   4.987  0.1782 -0.0994 -0.1935
 5583SOL    HW121434  10.821   6.345   4.993  1.0305  0.0709  0.2360
 5583SOL    HW221435  10.758   6.207   5.005 -0.2419  0.5717 -0.4468
 5584SOL     OW21436   7.385   1.836   5.498  0.0368  0.1919  0.1988
 5584SOL    HW121437   7.467   1.797   5.528  0.8407  0.8895 -0.9863
 5584SOL    HW221438   7.317   1.783   5.538  1.0759 -1.9429 -0.7040
 5585SOL     OW21439   1.712   9.428  11.119  0.2335 -0.2503 -0.1644
 5585SOL    HW121440   1.709   9.382  11.203  0.4274 -0.3785 -0.2270
 5585SOL    HW221441   1.745   9.515  11.141  0.1563 -0.2390 -0.0899
 5586SOL     OW21442   4.745   5.091  11.031  0.2814  0.0673 -0.1783
 5586SOL    HW121443   4.718   5.003  11.058 -0.7080  0.6754  0.9302
 5586SOL    HW221444   4.771   5.082  10.940 -1.3174 -1.0705 -0.5499
 5587SOL     OW21445  11.528   2.156   7.934  0.6338  0.5084  0.4042
 5587SOL    HW121446  11.619   2.185   7.939  1.0306 -0.7088  0.3453
 5587SOL    HW221447  11.486   2.222   7.879  2.2580 -0.7280 -2.5391
 5588SOL     OW21448   4.287   3.399   1.528  0.8035  0.0693  0.4116
 5588SOL    HW121449   4.220   3.451   1.483  0.9516  0.5989  0.7963
 5588SOL    HW221450   4.358   3.391   1.464 -0.3598 -2.1366 -0.7362
 5589SOL     OW21451   5.963  11.268  10.106 -0.2321 -0.2464 -0.0608
 5589SOL    HW121452   5.925  11.199  10.162  0.2429  1.5856  2.7479
 5589SOL    HW221453   5.889  11.326  10.086 -0.4092 -0.9201 -1.4672
 5590SOL     OW21454  11.224   5.322   7.554  0.3264  0.9822 -0.3226
 5590SOL    HW121455  11.277   5.244   7.543 -0.4362  0.2243  1.1520
 5590SOL    HW221456  11.138   5.298   7.520  0.3050  1.4694 -0.6332
 5591SOL     OW21457   0.172   0.728   8.830  0.3331  0.0763  0.0716
 5591SOL    HW121458   0.174   0.819   8.860  1.1768 -0.6041  2.3021
 5591SOL    HW221459   0.238   0.724   8.761 -0.1049  1.2693 -0.4386
 5592SOL     OW21460   7.567   1.689  11.052 -0.0717  0.4045 -0.1421
 5592SOL    HW121461   7.523   1.765  11.013 -0.3248  0.1908 -0.2826
 5592SOL    HW221462   7.528   1.682  11.139  1.0617  1.3543  0.4577
 5593SOL     OW21463   4.556   9.048   0.357 -0.5804  0.0406 -0.7076
 5593SOL    HW121464   4.490   9.017   0.296 -2.6310  1.7602  0.4866
 5593SOL    HW221465   4.631   9.070   0.303 -2.0311  0.7313 -2.5247
 5594SOL     OW21466   8.791   4.167  10.276  0.4996  0.2791 -0.1806
 5594SOL    HW121467   8.799   4.098  10.211  1.3748 -0.2292  0.4500
 5594SOL    HW221468   8.762   4.244  10.226 -2.1161 -0.9165 -0.6477
 5595SOL     OW21469  10.928   0.557   8.421  0.5951  0.4289 -0.0384
 5595SOL    HW121470  10.976   0.637   8.443 -0.0555  1.0342 -0.7431
 5595SOL    HW221471  10.958   0.492   8.485  0.4034  1.5079  1.1815
 5596SOL     OW21472   1.937   9.285  10.535 -0.7448 -0.0463 -0.2010
 5596SOL    HW121473   1.983   9.283  10.619 -2.1399  0.6713  0.6110
 5596SOL    HW221474   1.928   9.378  10.515  0.9597 -0.1999 -1.9712
 5597SOL     OW21475   3.582   4.534   1.999 -0.4083  0.2681 -0.1520
 5597SOL    HW121476   3.518   4.601   1.976 -0.9927  0.0363  0.7297
 5597SOL    HW221477   3.662   4.560   1.953 -0.4349  1.9125  0.6495
 5598SOL     OW21478   5.512   0.299   5.581  1.3622 -0.0171 -0.1288
 5598SOL    HW121479   5.467   0.383   5.582  1.2535 -0.0702  1.5077
 5598SOL    HW221480   5.541   0.289   5.490  0.0517  1.0536 -0.7025
 5599SOL     OW21481   3.314   4.740   9.453 -0.0676  0.2481  0.0786
 5599SOL    HW121482   3.321   4.692   9.536 -1.7109  0.7696  0.5551
 5599SOL    HW221483   3.354   4.681   9.388 -0.7889 -1.1597  0.8724
 5600SOL     OW21484   0.348  10.058   4.508 -0.1142 -0.5309 -0.1564
 5600SOL    HW121485   0.440  10.032   4.511 -0.3803 -1.6418 -0.8994
 5600SOL    HW221486   0.304   9.996   4.566 -0.2144  0.9888  1.4802
 5601SOL     OW21487  10.630   4.820   4.425 -0.0115 -0.4262  0.1676
 5601SOL    HW121488  10.722   4.842   4.440  0.8917 -2.0375 -2.4385
 5601SOL    HW221489  10.630   4.727   4.404 -2.0070 -0.1311 -1.5282
 5602SOL     OW21490   6.663   9.407  10.448 -0.5785 -0.9573 -0.3907
 5602SOL    HW121491   6.589   9.467  10.456  0.8955  0.8842  0.2054
 5602SOL    HW221492   6.689   9.389  10.538  1.0505  0.2243 -0.5908
 5603SOL     OW21493   6.835   9.894   1.450  0.3577 -0.3426 -0.4521
 5603SOL    HW121494   6.817   9.947   1.528 -1.6797 -2.5596  0.7353
 5603SOL    HW221495   6.789   9.938   1.379  2.3303  1.7710 -0.5349
 5604SOL     OW21496   3.071   0.285   3.426  0.2921 -0.6392  0.0132
 5604SOL    HW121497   3.132   0.308   3.356 -0.1067 -1.7447 -0.7201
 5604SOL    HW221498   3.104   0.332   3.503  0.1163  1.4932 -1.1325
 5605SOL     OW21499   2.502   8.444   6.536 -0.1602  0.1201  0.3752
 5605SOL    HW121500   2.451   8.461   6.457  0.1808  0.2583  0.1786
 5605SOL    HW221501   2.439   8.409   6.599 -0.8117  1.6969  0.6545
 5606SOL     OW21502   1.933   7.994   0.518 -0.5007  0.2783  0.3562
 5606SOL    HW121503   1.881   8.074   0.526 -0.6751  0.1571  0.4519
 5606SOL    HW221504   1.917   7.964   0.429  0.7730  1.1716 -0.1862
 5607SOL     OW21505   1.552   7.908   7.226  0.3555 -0.2087 -0.1312
 5607SOL    HW121506   1.617   7.838   7.222  0.1175 -0.5199  1.0480
 5607SOL    HW221507   1.497   7.886   7.302 -0.4626  0.6153 -0.4644
 5608SOL     OW21508   9.760   2.287  11.510 -0.2045  0.7432 -0.1004
 5608SOL    HW121509   9.696   2.356  11.492 -0.1049  1.3079  1.5143
 5608SOL    HW221510   9.806   2.317  11.588  1.9476  0.2706 -1.1245
 5609SOL     OW21511  11.713   3.729  10.255 -0.0370  0.7601  0.3892
 5609SOL    HW121512  11.802   3.714  10.289 -0.0686 -0.2844  0.0406
 5609SOL    HW221513  11.724   3.800  10.192  0.8088 -0.2651 -0.6586
 5610SOL     OW21514   7.017   1.536   7.113 -0.5073  0.4319 -0.1926
 5610SOL    HW121515   6.990   1.444   7.112  0.4601  0.1009  1.1272
 5610SOL    HW221516   7.005   1.563   7.204  1.6585  0.8338  0.0133
 5611SOL     OW21517  11.536   4.552   4.740  0.6731 -0.4480 -0.1114
 5611SOL    HW121518  11.551   4.517   4.827  0.8996 -2.9179 -1.0564
 5611SOL    HW221519  11.592   4.629   4.734  2.7009 -1.7778  1.0254
 5612SOL     OW21520   2.195   6.238   5.544 -0.0051 -0.0665 -0.0178
 5612SOL    HW121521   2.117   6.290   5.565 -0.1395  0.0029 -0.6718
 5612SOL    HW221522   2.161   6.164   5.494  0.3463 -0.0633 -0.2592
 5613SOL     OW21523   1.473   0.716   5.831  0.3772 -0.0152 -0.0999
 5613SOL    HW121524   1.569   0.714   5.834  0.3925  0.4361  2.2297
 5613SOL    HW221525   1.447   0.634   5.874 -0.2496  0.3916  0.3028
 5614SOL     OW21526   0.031  10.110   7.006 -0.8843 -0.4700 -0.2573
 5614SOL    HW121527   0.051  10.128   6.914 -1.7824  0.9315 -0.2112
 5614SOL    HW221528   0.095  10.160   7.055  0.4087 -2.2029 -0.0594
 5615SOL     OW21529   3.013   2.274   6.348 -0.0358 -0.3796  0.3717
 5615SOL    HW121530   3.001   2.294   6.440  0.7944 -0.6817  0.5515
 5615SOL    HW221531   2.964   2.193   6.334 -1.5792  0.5333  0.1373
 5616SOL     OW21532  11.267  10.241  11.148  0.3081 -0.2082  0.0255
 5616SOL    HW121533  11.195  10.254  11.209  1.2091 -0.1366  1.0947
 5616SOL    HW221534  11.328  10.312  11.167  1.5342 -1.3325  0.4288
 5617SOL     OW21535  10.655   2.179   3.985  0.0231  0.7956 -0.3648
 5617SOL    HW121536  10.656   2.146   4.074 -0.2383  0.5395 -0.4539
 5617SOL    HW221537  10.686   2.106   3.931 -1.3581  0.3867 -0.6526
 5618SOL     OW21538   3.501   8.406   4.527 -0.5666  0.1946  0.1722
 5618SOL    HW121539   3.468   8.335   4.584 -1.5181 -0.1639 -0.7925
 5618SOL    HW221540   3.526   8.475   4.588  2.2754 -1.6538  1.3037
 5619SOL     OW21541   2.573   6.516   4.579 -0.1390 -0.2134 -0.3137
 5619SOL    HW121542   2.654   6.523   4.528  1.1731  0.1744  1.6867
 5619SOL    HW221543   2.529   6.439   4.544  1.7290 -1.1977 -0.6711
 5620SOL     OW21544   0.957   7.365   3.601 -0.3511  0.1907  0.2000
 5620SOL    HW121545   0.969   7.345   3.694  0.5670  0.1907  0.0918
 5620SOL    HW221546   0.874   7.413   3.598  0.2536  1.3544  1.1963
 5621SOL     OW21547   1.917   0.043  10.423  0.0471  0.0653 -0.3464
 5621SOL    HW121548   1.884   0.131  10.403 -3.4234 -0.6780  1.4620
 5621SOL    HW221549   1.927   0.001  10.337  0.3038  1.6983 -1.1503
 5622SOL     OW21550   8.482  10.841  10.982  1.0703  0.3562  0.2232
 5622SOL    HW121551   8.450  10.886  10.903  0.3488 -0.2100  0.1868
 5622SOL    HW221552   8.445  10.892  11.054 -1.1382 -1.0683  0.1954
 5623SOL     OW21553   4.510   1.595   8.311 -0.0019 -0.1224  0.2177
 5623SOL    HW121554   4.459   1.630   8.237  0.7880  1.9245  0.5582
 5623SOL    HW221555   4.455   1.527   8.348 -1.3206  0.2119 -1.0194
 5624SOL     OW21556   2.793   1.457   4.394 -0.6421 -0.2219 -0.4112
 5624SOL    HW121557   2.796   1.501   4.309  0.2725 -2.5263 -1.6679
 5624SOL    HW221558   2.879   1.472   4.432 -1.9969  3.3868  1.6317
 5625SOL     OW21559   8.399   1.859   6.894 -0.0447 -0.2585  0.4623
 5625SOL    HW121560   8.433   1.928   6.951 -0.1694  1.0035 -0.9359
 5625SOL    HW221561   8.415   1.778   6.943  0.1025  0.7390  2.1541
 5626SOL     OW21562   4.006   7.559   6.035 -0.0909 -0.0384  0.3558
 5626SOL    HW121563   3.936   7.553   5.970  0.0719 -0.7836  0.2325
 5626SOL    HW221564   4.070   7.619   5.998  0.6864 -1.5435 -0.8472
 5627SOL     OW21565   9.189  11.307   4.284  0.0488 -0.6050  0.4150
 5627SOL    HW121566   9.131  11.238   4.252 -0.4583 -0.2223  0.4901
 5627SOL    HW221567   9.136  11.387   4.280 -0.1218 -0.5672  2.3515
 5628SOL     OW21568  10.174   6.449   7.959  0.5491 -0.1305 -0.2075
 5628SOL    HW121569  10.140   6.538   7.966 -1.0867 -0.8148  1.4161
 5628SOL    HW221570  10.196   6.439   7.866 -0.5125  1.5109 -0.6819
 5629SOL     OW21571   0.971  11.892   7.786  0.0864  0.4160  0.3324
 5629SOL    HW121572   1.042  11.866   7.845  0.5804  0.5910 -0.1791
 5629SOL    HW221573   1.008  11.881   7.698 -0.6420  0.1652  0.0532
 5630SOL     OW21574   6.131   1.030   9.069 -0.2287 -0.3699 -0.5064
 5630SOL    HW121575   6.124   0.935   9.070 -0.4734 -0.3446  0.0660
 5630SOL    HW221576   6.133   1.056   9.161 -0.5250  0.2081 -0.6583
 5631SOL     OW21577   3.103   4.877   4.804  0.6125  0.4011  0.5839
 5631SOL    HW121578   3.194   4.902   4.790  0.0539  1.0400 -2.4873
 5631SOL    HW221579   3.081   4.821   4.730 -0.5505 -2.9069  3.1309
 5632SOL     OW21580   8.668   0.046  10.832  0.0192 -0.2652 -0.7702
 5632SOL    HW121581   8.617   0.101  10.773  0.5495 -1.5133 -2.4420
 5632SOL    HW221582   8.755   0.087  10.834  0.1588 -0.5355 -1.2962
 5633SOL     OW21583   7.796   1.767   0.374  0.5821 -0.3348 -0.9322
 5633SOL    HW121584   7.720   1.733   0.421  0.0573 -0.7008 -1.9888
 5633SOL    HW221585   7.810   1.854   0.411 -2.3715  1.1251 -2.7777
 5634SOL     OW21586   7.403   5.920  11.799 -0.7015  0.3790  0.1258
 5634SOL    HW121587   7.386   6.005  11.759 -1.0412  0.4108  0.3322
 5634SOL    HW221588   7.317   5.891  11.831 -0.7529 -0.4225 -0.6915
 5635SOL     OW21589   2.397   6.295   1.040  0.2208  0.0340  0.7055
 5635SOL    HW121590   2.467   6.231   1.051  0.7914  0.6928  0.9727
 5635SOL    HW221591   2.365   6.312   1.128 -0.0130  0.0210  0.6239
 5636SOL     OW21592   9.388   3.534   8.578  0.6666  0.2789 -0.3582
 5636SOL    HW121593   9.477   3.567   8.565  1.1325 -1.0069 -0.5569
 5636SOL    HW221594   9.393   3.442   8.554 -1.3503  0.7620 -2.9943
 5637SOL     OW21595   2.201  10.302   2.753  0.0783  0.1566 -0.1619
 5637SOL    HW121596   2.128  10.243   2.768 -0.6189  0.8140 -0.8631
 5637SOL    HW221597   2.207  10.309   2.657  0.4869  0.8042 -0.0979
 5638SOL     OW21598   7.776   5.359  10.765 -0.0424 -0.3420  0.2199
 5638SOL    HW121599   7.783   5.449  10.732 -0.6501 -0.2631  0.3072
 5638SOL    HW221600   7.684   5.349  10.790 -0.5299 -1.7123 -1.8624
 5639SOL     OW21601   0.886   2.706   6.180 -0.0901  0.2567  0.6338
 5639SOL    HW121602   0.943   2.631   6.161 -1.1737 -0.2595 -0.7745
 5639SOL    HW221603   0.801   2.681   6.144 -0.5095  2.1268  0.2219
 5640SOL     OW21604   7.895   1.960   9.260  0.4292  0.3130  0.4462
 5640SOL    HW121605   7.811   1.946   9.216  1.3112 -1.6884 -0.7188
 5640SOL    HW221606   7.946   2.011   9.198  1.4797 -2.0440 -0.7631
 5641SOL     OW21607   9.069  11.969   5.598 -0.2236  0.1708 -0.4156
 5641SOL    HW121608   9.021  11.985   5.517 -0.1683 -0.5708 -0.6007
 5641SOL    HW221609   9.086  11.875   5.598 -0.6633  0.0738  0.7037
 5642SOL     OW21610   3.427   9.043   3.827 -0.6036 -0.2520 -0.5726
 5642SOL    HW121611   3.370   9.112   3.860 -0.8345 -0.0903 -1.2986
 5642SOL    HW221612   3.408   8.967   3.883 -0.8884  0.0545 -0.2520
 5643SOL     OW21613   6.919   2.142   3.043  0.0653 -0.0701  0.8733
 5643SOL    HW121614   7.006   2.162   3.009  0.4654  0.0201  1.9130
 5643SOL    HW221615   6.881   2.082   2.979  0.6726  0.3373  0.1255
 5644SOL     OW21616   9.619  10.579   6.797 -0.0867 -0.3987 -0.1417
 5644SOL    HW121617   9.599  10.641   6.867  0.6404  0.2979 -0.5422
 5644SOL    HW221618   9.702  10.609   6.760 -0.0922 -1.1792 -0.8303
 5645SOL     OW21619   5.313  10.051   7.307 -0.4853 -0.2966  0.0465
 5645SOL    HW121620   5.257  10.013   7.374  0.3144 -0.8960  0.3939
 5645SOL    HW221621   5.279  10.140   7.294 -0.5909 -0.1333  1.3164
 5646SOL     OW21622   9.077   3.859   0.465  0.0800  0.4849  0.0181
 5646SOL    HW121623   9.152   3.864   0.406  0.5926  0.1800  0.6396
 5646SOL    HW221624   9.115   3.850   0.552 -0.5751 -3.8573  0.0692
 5647SOL     OW21625  11.105   3.968  11.408 -0.3887 -0.4930  0.1112
 5647SOL    HW121626  11.015   3.974  11.375 -1.0838  1.6324  2.1359
 5647SOL    HW221627  11.150   3.911  11.346 -2.8788 -0.8303 -1.5007
 5648SOL     OW21628   3.431   9.384   6.411 -0.4496 -0.1721  0.2447
 5648SOL    HW121629   3.415   9.477   6.426  0.5519  0.0146  0.2324
 5648SOL    HW221630   3.362   9.339   6.460  0.0960  0.5341  1.7190
 5649SOL     OW21631   0.917  10.339   9.105  0.3202 -0.7874  0.0141
 5649SOL    HW121632   0.981  10.410   9.114  2.2981 -2.5450  0.5873
 5649SOL    HW221633   0.961  10.275   9.049 -1.1432 -1.8611  0.0388
 5650SOL     OW21634   8.929   9.961  10.435  0.7570  0.1290  0.2929
 5650SOL    HW121635   8.837   9.987  10.430  1.2050  1.7178 -0.5666
 5650SOL    HW221636   8.977  10.040  10.408  2.3379 -0.8601  0.1202
 5651SOL     OW21637   7.066   6.019   1.453  0.5149  0.5415 -0.1088
 5651SOL    HW121638   7.160   6.038   1.445  0.9126 -0.3220  2.0399
 5651SOL    HW221639   7.055   5.931   1.416  0.6413  0.4196  0.1471
 5652SOL     OW21640   7.293  11.791   0.624 -0.2040 -0.5841  0.0889
 5652SOL    HW121641   7.300  11.696   0.629  0.5812 -0.4653  1.8638
 5652SOL    HW221642   7.319  11.822   0.711 -0.1375  1.2702 -0.5497
 5653SOL     OW21643   0.367  10.774   9.304  0.1814 -0.3475 -1.0483
 5653SOL    HW121644   0.279  10.750   9.277  0.6917 -1.6007 -1.6676
 5653SOL    HW221645   0.365  10.870   9.312 -1.3015 -0.3833 -0.7447
 5654SOL     OW21646   2.118   2.143   7.866 -0.6232  0.2818  0.0195
 5654SOL    HW121647   2.212   2.129   7.875 -0.8811 -0.6173  1.5349
 5654SOL    HW221648   2.085   2.065   7.822 -0.6187  0.8236 -0.9897
 5655SOL     OW21649  10.922   2.049   0.753  0.0638  0.0745  0.2596
 5655SOL    HW121650  10.986   2.097   0.805  0.6344  0.7240 -0.9884
 5655SOL    HW221651  10.868   2.117   0.712  0.9658 -0.2717 -1.6360
 5656SOL     OW21652   7.335   8.146   2.575  0.0661  0.5960 -0.8026
 5656SOL    HW121653   7.306   8.180   2.660  1.6767  1.5295 -0.5808
 5656SOL    HW221654   7.385   8.218   2.537  0.8426 -0.4232 -1.7721
 5657SOL     OW21655   3.813   6.060   3.046 -0.3849  0.0977  0.4951
 5657SOL    HW121656   3.759   6.136   3.026  0.5613  0.2085 -1.9742
 5657SOL    HW221657   3.754   5.985   3.035 -0.3128  0.2701 -1.2428
 5658SOL     OW21658   8.923   1.008   6.550  0.7913 -0.5408  0.2710
 5658SOL    HW121659   8.899   0.986   6.640 -0.4184 -1.0878 -0.1636
 5658SOL    HW221660   8.850   1.061   6.518  0.2603 -1.9712 -0.9955
 5659SOL     OW21661  11.564  10.185   8.200  0.0509  0.1823  0.6771
 5659SOL    HW121662  11.489  10.237   8.231 -0.8994  0.1997 -1.4685
 5659SOL    HW221663  11.579  10.216   8.111  1.2965 -1.2703  0.3445
 5660SOL     OW21664   2.172   9.858   5.111 -0.0293 -0.1175 -0.2272
 5660SOL    HW121665   2.178   9.871   5.016 -1.9071  0.5120 -0.3142
 5660SOL    HW221666   2.148   9.944   5.146 -0.3498 -0.5641  0.6964
 5661SOL     OW21667   8.033   2.689  10.695  0.5685  0.6904 -0.1165
 5661SOL    HW121668   8.015   2.604  10.735 -3.1002  0.9570 -0.9104
 5661SOL    HW221669   8.047   2.669  10.602 -1.9961  1.0081 -0.6283
 5662SOL     OW21670   6.853  10.043   2.826  0.6694  0.2635 -0.4725
 5662SOL    HW121671   6.835   9.993   2.746 -0.1905 -0.7213  0.2918
 5662SOL    HW221672   6.868   9.975   2.893 -1.2324  0.9647  0.7576
 5663SOL     OW21673   1.795  11.018  10.474  0.3931 -0.0132 -0.1210
 5663SOL    HW121674   1.717  10.999  10.422  0.9600  0.5608 -1.2274
 5663SOL    HW221675   1.766  11.010  10.565 -1.3628  1.6525 -0.4586
 5664SOL     OW21676   4.211  11.454   6.121 -0.3992  0.6589  0.0230
 5664SOL    HW121677   4.287  11.481   6.070 -0.0519 -0.6486 -0.1861
 5664SOL    HW221678   4.137  11.497   6.078 -0.0796 -0.1984 -1.4311
 5665SOL     OW21679   1.530   4.354   0.177  0.2550  0.1217 -0.8761
 5665SOL    HW121680   1.564   4.394   0.096  1.8055 -1.9586 -1.3322
 5665SOL    HW221681   1.597   4.291   0.203 -1.1780 -0.7824  0.8807
 5666SOL     OW21682   1.212   1.762   6.474 -0.1456 -0.1564 -0.5424
 5666SOL    HW121683   1.144   1.823   6.445  1.4410  1.1089 -1.8603
 5666SOL    HW221684   1.255   1.807   6.547 -0.5255 -0.8232  0.1020
 5667SOL     OW21685   4.563   7.507   9.261 -0.6606 -0.2406 -0.4997
 5667SOL    HW121686   4.552   7.556   9.180 -0.5720 -0.7240 -0.8089
 5667SOL    HW221687   4.543   7.570   9.330  0.1940  0.4489 -0.8601
 5668SOL     OW21688   2.328   3.898   6.689  0.0888  0.0729  0.1650
 5668SOL    HW121689   2.365   3.811   6.701  0.0875  0.1935  1.0753
 5668SOL    HW221690   2.247   3.883   6.639  1.3721 -0.1795 -1.9417
 5669SOL     OW21691   6.695   6.659   0.567 -0.1025 -0.2774 -0.0360
 5669SOL    HW121692   6.715   6.751   0.584  0.7814 -0.7154  1.4739
 5669SOL    HW221693   6.670   6.656   0.474  2.5568  1.0656 -0.9111
 5670SOL     OW21694   9.935   7.106   2.822  0.3052 -0.3463 -0.1954
 5670SOL    HW121695   9.903   7.103   2.732 -0.2480 -1.2809  0.0155
 5670SOL    HW221696   9.897   7.186   2.859  1.9224  0.9713 -1.2686
 5671SOL     OW21697   5.912   8.851  10.447 -0.1559 -0.0742 -0.1823
 5671SOL    HW121698   5.891   8.935  10.407 -0.5255 -0.2311 -0.3108
 5671SOL    HW221699   5.963   8.874  10.525  0.6832  0.2252 -0.7954
 5672SOL     OW21700   8.271   0.225  10.649 -0.8502  0.2448 -0.0526
 5672SOL    HW121701   8.235   0.137  10.638 -0.7842 -0.0085  1.4914
 5672SOL    HW221702   8.200   0.283  10.622 -1.4904 -0.2761  0.4690
 5673SOL     OW21703   4.255   3.786   9.350  0.6804 -0.1544  0.2456
 5673SOL    HW121704   4.318   3.797   9.279 -0.1574  0.0292 -0.4872
 5673SOL    HW221705   4.218   3.874   9.362  0.1884 -0.3674  0.3033
 5674SOL     OW21706   3.787   3.255   4.112  0.3889  0.3041 -0.3525
 5674SOL    HW121707   3.781   3.181   4.053  0.4155  0.9871 -1.2323
 5674SOL    HW221708   3.701   3.296   4.110  0.3452  0.2555  0.2005
 5675SOL     OW21709   3.987   2.066   6.319 -0.3603 -0.2861 -0.2745
 5675SOL    HW121710   4.041   1.991   6.292 -2.8358 -2.1307 -0.4291
 5675SOL    HW221711   3.989   2.125   6.245 -0.5804 -1.5320 -1.3159
 5676SOL     OW21712   6.082   1.153   3.941  0.0801 -0.0780  0.9433
 5676SOL    HW121713   6.063   1.065   3.974  0.8193  0.2787  2.4196
 5676SOL    HW221714   6.177   1.152   3.925  0.2340  0.6572  1.7256
 5677SOL     OW21715   4.817   6.134   9.405 -1.1040 -0.6924  0.0460
 5677SOL    HW121716   4.769   6.185   9.340 -0.6473  1.0943  1.0338
 5677SOL    HW221717   4.804   6.182   9.488 -1.2318 -2.5943  1.1900
 5678SOL     OW21718  10.089   4.435   9.510  0.3450 -0.3793 -0.1251
 5678SOL    HW121719  10.066   4.381   9.434  0.4580  0.3029 -0.6476
 5678SOL    HW221720  10.184   4.449   9.502  0.1021  1.0687 -0.7772
 5679SOL     OW21721   3.593   3.472  11.288  0.0779 -0.2215 -0.7540
 5679SOL    HW121722   3.673   3.445  11.333 -0.6818 -0.1718  0.6857
 5679SOL    HW221723   3.538   3.394  11.287 -0.9714  0.4385  0.8464
 5680SOL     OW21724   9.438  10.062  11.429 -0.1410 -0.2915 -0.2200
 5680SOL    HW121725   9.498  10.116  11.376  1.8119 -1.0703  1.0878
 5680SOL    HW221726   9.492   9.991  11.462 -2.0617 -1.6249  0.2278
 5681SOL     OW21727  11.195   1.966  10.646  0.2492 -0.0296  0.2784
 5681SOL    HW121728  11.107   1.934  10.669 -0.2074  1.9603  1.5169
 5681SOL    HW221729  11.197   1.963  10.551 -2.1933  2.2607  0.0266
 5682SOL     OW21730   1.583   4.015   0.794  0.3150 -0.1481  0.4575
 5682SOL    HW121731   1.610   4.106   0.808  2.3049 -0.6077 -0.0441
 5682SOL    HW221732   1.644   3.963   0.846 -0.1066 -1.2487 -0.1059
 5683SOL     OW21733   7.576   5.047   3.371  0.4576  0.1871  0.0670
 5683SOL    HW121734   7.545   5.002   3.450  0.1349  0.0815 -0.1175
 5683SOL    HW221735   7.505   5.106   3.348  0.1424 -0.4648 -0.6814
 5684SOL     OW21736   6.596   4.635   0.965  0.0987  0.2240 -0.1117
 5684SOL    HW121737   6.541   4.610   0.891  1.0197  0.6042 -0.9419
 5684SOL    HW221738   6.666   4.689   0.927  0.8061  0.1090  0.9678
 5685SOL     OW21739   9.275   1.036   3.282 -0.8061 -0.7486  0.3966
 5685SOL    HW121740   9.247   1.048   3.191 -0.9243  0.4404  0.5659
 5685SOL    HW221741   9.264   0.943   3.298 -0.2737 -1.0728 -0.9700
 5686SOL     OW21742  10.656   9.348   6.976  0.1688 -0.4750  0.0946
 5686SOL    HW121743  10.588   9.396   7.023  1.8345  1.9498  0.2529
 5686SOL    HW221744  10.714   9.315   7.044 -0.6400 -2.2702 -0.0495
 5687SOL     OW21745   9.776   4.885   8.292 -0.3043 -0.2764  0.1956
 5687SOL    HW121746   9.806   4.835   8.367 -0.9306  0.0167  0.6449
 5687SOL    HW221747   9.749   4.819   8.228  0.6615 -0.5349  0.0332
 5688SOL     OW21748   5.351   6.285   2.276 -0.0415  0.3087  0.2207
 5688SOL    HW121749   5.415   6.309   2.343  0.0496 -2.7728  1.3991
 5688SOL    HW221750   5.378   6.199   2.246 -0.6661  1.1316 -3.1670
 5689SOL     OW21751  10.413   3.348   4.395  0.1707  0.0978 -0.2181
 5689SOL    HW121752  10.439   3.400   4.318 -0.3571  1.2252  0.3400
 5689SOL    HW221753  10.318   3.341   4.388  0.1990 -0.4551 -0.0657
 5690SOL     OW21754  10.566   8.794   7.021  0.1170 -0.7111  0.0738
 5690SOL    HW121755  10.577   8.707   7.060 -0.7322 -0.4883  0.8583
 5690SOL    HW221756  10.500   8.781   6.952  0.7388 -0.8758 -0.4973
 5691SOL     OW21757  11.072  11.937   7.978  0.8701  0.3239 -0.1298
 5691SOL    HW121758  11.018  12.009   8.011  0.5046  0.8566 -1.7752
 5691SOL    HW221759  11.160  11.973   7.972  0.8114  0.4280 -0.3571
 5692SOL     OW21760   2.652   3.683  10.766  0.0069 -0.7043 -0.1699
 5692SOL    HW121761   2.654   3.684  10.671 -0.2216  1.4969 -0.2103
 5692SOL    HW221762   2.561   3.705  10.788  0.3413  0.0070  0.5395
 5693SOL     OW21763   8.783   1.369   7.200  0.1700 -0.2611  0.3536
 5693SOL    HW121764   8.869   1.358   7.239  0.6385  0.0343 -0.5801
 5693SOL    HW221765   8.799   1.413   7.117 -0.9821  0.9332  0.7267
 5694SOL     OW21766  11.539   4.909   6.829  0.0199  0.2757 -0.3887
 5694SOL    HW121767  11.533   4.996   6.869 -0.7572 -0.4196  1.1119
 5694SOL    HW221768  11.620   4.872   6.865 -1.0681 -0.6429  1.2611
 5695SOL     OW21769   9.190  11.571   7.924  0.3770  0.6586 -0.0546
 5695SOL    HW121770   9.098  11.547   7.911  0.5901 -0.0965 -0.2539
 5695SOL    HW221771   9.205  11.554   8.017  0.8032 -1.0794 -0.3957
 5696SOL     OW21772   9.291   5.436   8.435  0.3667  0.0725  0.0822
 5696SOL    HW121773   9.323   5.523   8.411 -0.0549 -0.1513 -1.3916
 5696SOL    HW221774   9.345   5.375   8.385 -0.3668 -0.4413 -0.1141
 5697SOL     OW21775  10.199   8.187   6.033 -0.2321  0.1289  0.1662
 5697SOL    HW121776  10.135   8.122   6.064  1.0165 -0.5111  1.5588
 5697SOL    HW221777  10.283   8.155   6.066  1.3587 -0.6233 -3.9875
 5698SOL     OW21778   7.417   4.347  10.389 -0.0185  0.2719 -0.4302
 5698SOL    HW121779   7.437   4.279  10.454  0.7271  1.7612  0.9747
 5698SOL    HW221780   7.321   4.355  10.391 -0.0261  0.0758  0.2795
 5699SOL     OW21781   5.166   1.350   1.736 -0.5395  0.3780 -0.3306
 5699SOL    HW121782   5.224   1.397   1.676  1.3274 -1.8058 -0.3936
 5699SOL    HW221783   5.173   1.397   1.819 -0.1346  1.2169 -0.8271
 5700SOL     OW21784   4.170   8.654   2.126  0.1509  0.0349 -0.0187
 5700SOL    HW121785   4.252   8.643   2.077 -0.2116 -0.9051 -0.4399
 5700SOL    HW221786   4.115   8.708   2.068  0.6254  1.0440  0.4593
 5701SOL     OW21787   8.422  11.772   9.551  0.2045  0.2639  0.2681
 5701SOL    HW121788   8.517  11.774   9.557  0.2171 -1.3692  1.2744
 5701SOL    HW221789   8.400  11.843   9.491  2.0745  0.3960 -0.3214
 5702SOL     OW21790   7.295   8.657  10.707  0.3706  0.3107 -0.3659
 5702SOL    HW121791   7.390   8.672  10.700  0.6106 -1.1468 -0.7460
 5702SOL    HW221792   7.281   8.631  10.798  0.6058 -0.8907 -0.6438
 5703SOL     OW21793   1.066   9.771   0.390  0.0047 -0.4748  0.8452
 5703SOL    HW121794   1.076   9.733   0.477  1.1200 -0.4456  0.7466
 5703SOL    HW221795   1.050   9.696   0.332  0.8027 -0.6749  0.8613
 5704SOL     OW21796   1.918  10.047   2.452  0.5108 -0.2474 -0.5373
 5704SOL    HW121797   1.831  10.081   2.475  0.9481  0.4673  0.1022
 5704SOL    HW221798   1.950  10.108   2.386  0.7134 -0.2406 -0.4322
 5705SOL     OW21799   3.630   2.543   9.829  0.0005 -0.2052  0.6087
 5705SOL    HW121800   3.653   2.527   9.921  1.8903  1.1583  0.4496
 5705SOL    HW221801   3.557   2.484   9.812 -0.0460 -0.9057  2.8225
 5706SOL     OW21802   7.801   1.083   0.382  0.3795  0.2720 -0.2578
 5706SOL    HW121803   7.815   1.049   0.470 -1.2795 -0.0766 -0.0892
 5706SOL    HW221804   7.760   1.011   0.335  0.3532  0.7800 -1.0292
 5707SOL     OW21805   8.049   2.595   5.765 -0.0647 -0.4744  0.3027
 5707SOL    HW121806   8.049   2.626   5.855 -0.1984 -1.3222  0.6056
 5707SOL    HW221807   8.033   2.501   5.772 -0.0160 -0.5606 -0.6015
 5708SOL     OW21808   5.360   5.787   7.940  0.2755  0.2346 -0.1652
 5708SOL    HW121809   5.376   5.697   7.969 -1.4162 -0.0082  0.1721
 5708SOL    HW221810   5.385   5.787   7.848  1.1398 -0.3333  0.0585
 5709SOL     OW21811   5.818   4.483   2.149 -0.0004  0.0917  0.4500
 5709SOL    HW121812   5.751   4.439   2.096 -0.3268 -0.1079  1.0284
 5709SOL    HW221813   5.864   4.412   2.194  1.3093  0.1404 -0.7458
 5710SOL     OW21814   1.143   8.299  10.521  0.4666 -0.4683 -0.5492
 5710SOL    HW121815   1.199   8.249  10.581  0.1262 -0.2807 -0.0657
 5710SOL    HW221816   1.176   8.388  10.527 -0.1117 -0.2825  0.0291
 5711SOL     OW21817   9.764   4.914  11.846  0.0636 -0.2105 -0.2277
 5711SOL    HW121818   9.795   4.824  11.836 -1.8266 -0.7610 -1.8082
 5711SOL    HW221819   9.831   4.967  11.802  0.8406 -0.8945  0.0955
 5712SOL     OW21820   3.357   0.978   1.648 -0.1025  0.0931 -0.2125
 5712SOL    HW121821   3.405   0.912   1.698 -0.8666  0.8727  1.6149
 5712SOL    HW221822   3.336   0.935   1.565 -3.1996 -3.1227  1.9702
 5713SOL     OW21823   2.980   7.159   6.346  0.3915  0.0539  0.6267
 5713SOL    HW121824   2.920   7.204   6.405 -1.7753 -2.0135  0.1453
 5713SOL    HW221825   2.986   7.217   6.270 -1.4698  0.0821  0.4583
 5714SOL     OW21826   9.550   1.434   0.498 -0.4383 -0.6516  0.0682
 5714SOL    HW121827   9.537   1.361   0.436 -2.3583  0.3000 -0.7454
 5714SOL    HW221828   9.559   1.511   0.442 -2.3002  0.2466  0.9384
 5715SOL     OW21829   6.692   8.873   7.665  0.1351 -0.4602  0.0439
 5715SOL    HW121830   6.704   8.869   7.760 -1.2109  2.3965  0.4160
 5715SOL    HW221831   6.598   8.885   7.653  0.1248 -1.8499 -1.7549
 5716SOL     OW21832   6.365   0.275   3.211  0.2908  0.6098  0.0765
 5716SOL    HW121833   6.272   0.293   3.198  0.4333  1.9245  0.6402
 5716SOL    HW221834   6.395   0.344   3.271  1.9739  1.2485 -1.3883
 5717SOL     OW21835   4.951   3.257   4.210 -0.8883  0.3021 -0.1698
 5717SOL    HW121836   5.042   3.261   4.240 -0.8119 -0.7031 -0.2427
 5717SOL    HW221837   4.920   3.171   4.237 -2.7058  1.6054  2.2672
 5718SOL     OW21838   4.059   2.095   2.380  0.3634  0.2101  0.1680
 5718SOL    HW121839   4.001   2.132   2.314  0.6022  0.4200  0.0755
 5718SOL    HW221840   4.002   2.041   2.435  0.5252 -1.8374 -1.5646
 5719SOL     OW21841   9.607   2.562   5.833 -0.3924  0.4659  0.1586
 5719SOL    HW121842   9.550   2.575   5.757  0.8603  1.1277 -0.7058
 5719SOL    HW221843   9.693   2.544   5.795  0.1568  0.3451  1.4297
 5720SOL     OW21844   2.004  11.706   4.690 -0.5141  0.3176  0.3052
 5720SOL    HW121845   2.056  11.740   4.618 -2.5972  1.0119 -0.9568
 5720SOL    HW221846   2.015  11.772   4.760  0.9678 -0.0177  0.4282
 5721SOL     OW21847   1.623   5.732   7.346  0.0172 -0.1815  1.0359
 5721SOL    HW121848   1.623   5.676   7.424 -0.2534  0.1521  1.2760
 5721SOL    HW221849   1.647   5.819   7.379  0.8604 -0.2364  0.5992
 5722SOL     OW21850   6.712   5.815   2.488 -0.0774 -0.4541 -0.1760
 5722SOL    HW121851   6.628   5.804   2.533  0.6924  0.6795  1.6370
 5722SOL    HW221852   6.741   5.725   2.472 -0.4750 -0.9374  1.5126
 5723SOL     OW21853  11.016  10.138   1.741 -0.4978  0.1468 -0.1384
 5723SOL    HW121854  10.928  10.170   1.759 -0.1936  2.4202 -2.1737
 5723SOL    HW221855  11.005  10.079   1.667 -0.4359 -0.6166  0.4475
 5724SOL     OW21856   7.851   8.605   7.321  0.1288 -0.5949 -0.1868
 5724SOL    HW121857   7.810   8.522   7.345 -1.0781 -0.3582 -1.2753
 5724SOL    HW221858   7.831   8.615   7.227  1.2137  0.3873 -0.3363
 5725SOL     OW21859  11.145   7.378   2.088 -0.2078  0.0462 -0.3416
 5725SOL    HW121860  11.124   7.296   2.044  0.1346 -0.1111 -0.2190
 5725SOL    HW221861  11.171   7.438   2.018  1.1515 -0.4564 -0.2931
 5726SOL     OW21862   5.981   7.964   6.551 -0.3781  0.0006  0.1774
 5726SOL    HW121863   6.001   8.028   6.620  0.6343  1.1105 -1.1003
 5726SOL    HW221864   6.026   7.885   6.579 -2.1632 -0.4228  2.1112
 5727SOL     OW21865  11.973   9.070   3.794  0.2248  0.5678  0.3349
 5727SOL    HW121866  12.000   8.978   3.788 -0.1748  0.4910 -0.4426
 5727SOL    HW221867  11.946   9.081   3.885  0.8444  0.0766  0.5847
 5728SOL     OW21868   7.067  11.194   9.774  0.3537 -0.3177  0.1646
 5728SOL    HW121869   7.075  11.254   9.700 -0.6397 -0.6318 -0.2143
 5728SOL    HW221870   7.103  11.242   9.848 -0.1958  0.6464 -0.1829
 5729SOL     OW21871   9.799   9.282  11.091  0.4116  0.6613 -0.5741
 5729SOL    HW121872   9.724   9.262  11.146  1.0904  0.2760  0.2276
 5729SOL    HW221873   9.793   9.376  11.074  0.2110  0.7851  0.1774
 5730SOL     OW21874  11.443   5.921   1.433 -0.5512 -0.1913 -0.2343
 5730SOL    HW121875  11.426   5.831   1.404 -1.0288 -0.5409  1.0383
 5730SOL    HW221876  11.481   5.910   1.520 -0.1423  0.8380 -0.2757
 5731SOL     OW21877   7.248   6.974   7.426 -0.2141  0.3927  0.3116
 5731SOL    HW121878   7.225   7.058   7.465 -2.1417 -0.1738  0.4683
 5731SOL    HW221879   7.213   6.909   7.486 -1.9061 -0.4988 -1.5490
 5732SOL     OW21880   2.699   4.133  11.008 -0.5296  0.4485  0.1987
 5732SOL    HW121881   2.625   4.190  10.987 -0.3375  0.7689  0.3942
 5732SOL    HW221882   2.770   4.164  10.952 -0.5011  0.2315  0.1140
 5733SOL     OW21883   3.395   2.034   8.720 -0.1359  0.2904 -0.0241
 5733SOL    HW121884   3.466   2.018   8.783  0.2148 -1.6466 -0.8528
 5733SOL    HW221885   3.399   1.961   8.659 -1.2632  1.4679 -1.6076
 5734SOL     OW21886   5.442   9.807   5.903 -0.6257  0.0435  0.2534
 5734SOL    HW121887   5.432   9.735   5.841  1.4273  1.0705 -1.3847
 5734SOL    HW221888   5.477   9.765   5.982  0.5748 -0.7717 -0.6795
 5735SOL     OW21889  11.977   0.838   1.187 -0.1145 -0.0566 -0.3106
 5735SOL    HW121890  11.976   0.801   1.276 -1.4042  1.6669  0.4461
 5735SOL    HW221891  11.885   0.838   1.161  0.0907  0.8052 -1.0580
 5736SOL     OW21892   9.623  10.586   9.525 -0.8292 -0.1473  0.1055
 5736SOL    HW121893   9.633  10.545   9.611  0.0596 -1.1216 -0.4410
 5736SOL    HW221894   9.551  10.539   9.484 -1.0311  0.0923  0.1796
 5737SOL     OW21895  10.404   8.551  10.035 -0.1749 -0.8022  0.8663
 5737SOL    HW121896  10.465   8.621  10.012  0.1026 -1.1128  0.6399
 5737SOL    HW221897  10.372   8.518   9.951 -0.9768 -0.3731  0.9900
 5738SOL     OW21898   3.807   9.140   8.522  0.2288 -0.3894 -0.4120
 5738SOL    HW121899   3.791   9.148   8.616  3.2460  2.3389  0.0425
 5738SOL    HW221900   3.895   9.104   8.515  0.7222  1.0262 -2.1187
 5739SOL     OW21901   7.044   5.200   8.674 -0.6507  0.1214 -0.2033
 5739SOL    HW121902   7.082   5.285   8.694 -1.6534  0.6141 -0.3178
 5739SOL    HW221903   7.074   5.142   8.744  0.3093  0.4796 -0.3125
 5740SOL     OW21904   7.385   0.622   8.108 -0.1213 -0.3960  0.2628
 5740SOL    HW121905   7.347   0.641   8.193  1.7187  0.2647  0.9782
 5740SOL    HW221906   7.393   0.707   8.065 -0.5338 -0.6624 -0.3650
 5741SOL     OW21907   9.126   7.969   6.845  0.0819 -0.0752  0.6250
 5741SOL    HW121908   9.158   7.956   6.756  1.0145  0.5537  0.8546
 5741SOL    HW221909   9.110   8.063   6.852  0.3504 -0.0659  1.2263
 5742SOL     OW21910   0.615   8.172   7.455 -0.1407  0.0608 -0.1820
 5742SOL    HW121911   0.526   8.191   7.426 -0.3156 -0.5184 -0.0295
 5742SOL    HW221912   0.624   8.078   7.444  0.5770  0.1648 -0.5269
 5743SOL     OW21913  10.420   2.884   5.330  0.4026  0.1441  0.1714
 5743SOL    HW121914  10.400   2.801   5.288 -0.6614  0.9394 -0.9662
 5743SOL    HW221915  10.514   2.897   5.316  0.1617  0.1541 -1.5705
 5744SOL     OW21916  10.165   6.026   0.591  0.4378  0.5658  0.1567
 5744SOL    HW121917  10.218   5.960   0.635 -0.1078  0.2836  0.3979
 5744SOL    HW221918  10.226   6.069   0.530  0.5874 -0.8179 -0.7170
 5745SOL     OW21919   5.220   9.593   4.103 -0.5884 -0.0301  0.2642
 5745SOL    HW121920   5.235   9.673   4.153  0.2678  0.1589 -0.2903
 5745SOL    HW221921   5.287   9.532   4.135 -1.3813 -0.6235  0.8543
 5746SOL     OW21922   3.213   6.601   3.279  0.1750  0.0749  0.0956
 5746SOL    HW121923   3.134   6.608   3.332  0.5081 -1.8506  0.9178
 5746SOL    HW221924   3.237   6.692   3.260 -2.5330  0.7204 -0.6955
 5747SOL     OW21925   6.125   0.421  10.056 -0.2927 -0.0555 -0.3436
 5747SOL    HW121926   6.050   0.367  10.031 -0.2474  0.1515 -0.9436
 5747SOL    HW221927   6.108   0.506  10.015 -1.2176  0.9604  1.9740
 5748SOL     OW21928   6.863   6.458   1.508  0.2189 -0.0653  0.4784
 5748SOL    HW121929   6.888   6.421   1.423  1.1896  2.8043 -0.5805
 5748SOL    HW221930   6.888   6.390   1.571  0.0364 -2.0250 -1.4377
 5749SOL     OW21931   5.239  11.934   3.320  0.1398 -0.6188  0.1854
 5749SOL    HW121932   5.203  11.909   3.235  2.1836  0.3081 -1.0249
 5749SOL    HW221933   5.197  11.874   3.382 -2.8336 -0.0981 -1.1410
 5750SOL     OW21934   4.483   9.376   7.853  0.3231  0.6365  0.1029
 5750SOL    HW121935   4.552   9.388   7.919 -0.2660  0.2654  0.7940
 5750SOL    HW221936   4.503   9.292   7.813 -1.2851 -0.8640  2.2493
 5751SOL     OW21937   5.610   4.789   4.780  0.0305  0.0096 -0.7026
 5751SOL    HW121938   5.705   4.797   4.765 -0.2005 -0.1537 -2.3742
 5751SOL    HW221939   5.583   4.878   4.805  0.4975  0.2243 -0.9520
 5752SOL     OW21940   3.494   6.307   0.759 -0.3499 -0.2466 -0.6303
 5752SOL    HW121941   3.533   6.350   0.683 -1.0224  0.0404 -0.8209
 5752SOL    HW221942   3.440   6.237   0.722  1.3580 -1.8351 -0.2989
 5753SOL     OW21943   4.426   1.805   0.075  0.7350  0.1360  0.7997
 5753SOL    HW121944   4.440   1.718   0.039  1.7908 -0.1214  1.7484
 5753SOL    HW221945   4.331   1.818   0.074  0.6438 -0.5659 -0.3656
 5754SOL     OW21946   7.111   5.401   5.241 -0.1878  0.3712 -0.3071
 5754SOL    HW121947   7.083   5.430   5.328  0.5012 -2.6745  1.0723
 5754SOL    HW221948   7.036   5.354   5.206  0.5086 -1.0411  0.0199
 5755SOL     OW21949   0.009  10.220   6.247  0.4168  0.2967  0.1918
 5755SOL    HW121950   0.036  10.175   6.167  0.2812  1.4327 -0.5187
 5755SOL    HW221951  -0.055  10.285   6.217 -1.6286 -0.9640  1.5540
 5756SOL     OW21952   7.776   2.675   8.183 -0.2630  0.1027 -0.8469
 5756SOL    HW121953   7.868   2.684   8.160  0.3609 -1.6204  0.7199
 5756SOL    HW221954   7.747   2.764   8.202  0.6540  0.8446 -2.7454
 5757SOL     OW21955  11.211   7.201   4.106  0.3124  0.4577  0.1608
 5757SOL    HW121956  11.167   7.237   4.030  0.9408  0.3826 -0.2445
 5757SOL    HW221957  11.263   7.128   4.072 -0.6888 -0.6458  0.9194
 5758SOL     OW21958   8.783   8.585   9.851 -0.2792  0.4190 -0.2565
 5758SOL    HW121959   8.763   8.564   9.760 -1.8375  0.2271  0.0949
 5758SOL    HW221960   8.850   8.522   9.877 -0.1882  0.1481 -1.1235
 5759SOL     OW21961   0.196   2.466   9.445 -0.3315 -0.2491 -0.6643
 5759SOL    HW121962   0.262   2.504   9.504 -1.2752 -0.4346  0.5446
 5759SOL    HW221963   0.207   2.514   9.363 -0.8092  1.9524  0.4841
 5760SOL     OW21964   7.686   3.696  11.286 -0.2562 -0.4475 -0.0205
 5760SOL    HW121965   7.743   3.749  11.342  0.3247  0.2643 -1.2564
 5760SOL    HW221966   7.677   3.747  11.206 -1.5786 -1.1632 -0.3566
 5761SOL     OW21967   9.894  10.020  11.936 -0.7751 -0.5088 -0.6434
 5761SOL    HW121968   9.875  10.066  11.854 -0.1808  1.3649  0.2099
 5761SOL    HW221969   9.857  10.076  12.004  0.2318 -1.1498  0.4656
 5762SOL     OW21970   2.161   5.098   0.024  0.1684 -0.0464  0.5085
 5762SOL    HW121971   2.081   5.064   0.064 -0.5492  0.3308 -0.5599
 5762SOL    HW221972   2.131   5.143  -0.055  1.2746  1.4586  0.9088
 5763SOL     OW21973   7.389   0.856   7.396  0.0310  0.2461  0.1152
 5763SOL    HW121974   7.447   0.924   7.364 -0.3603  0.2312 -0.6351
 5763SOL    HW221975   7.301   0.886   7.373 -0.3003  0.4405  1.5481
 5764SOL     OW21976   5.405   9.202  11.141  0.2553  0.3723 -0.1681
 5764SOL    HW121977   5.494   9.214  11.176  0.4253  0.5625 -0.6608
 5764SOL    HW221978   5.357   9.280  11.170  0.4529  0.6324 -0.5300
 5765SOL     OW21979   0.758   6.033   7.847  0.4722  0.1767  0.4799
 5765SOL    HW121980   0.705   5.970   7.799  0.5725 -0.0006  0.6038
 5765SOL    HW221981   0.832   6.051   7.790  1.3397 -1.1118  1.1653
 5766SOL     OW21982   0.038   6.174   0.112  0.2024  0.4277 -0.3246
 5766SOL    HW121983   0.051   6.267   0.131  0.7868  0.1310  0.7776
 5766SOL    HW221984   0.083   6.161   0.028  2.0214  0.6965  0.5574
 5767SOL     OW21985  10.087   5.208  11.547 -0.4132  0.3263  0.0660
 5767SOL    HW121986  10.130   5.289  11.520 -2.6656  1.2940 -0.9024
 5767SOL    HW221987  10.116   5.143  11.483  0.6292  0.5849  0.2506
 5768SOL     OW21988   0.869   4.620   9.090  0.4639 -0.3142 -0.3352
 5768SOL    HW121989   0.785   4.667   9.082 -0.8907 -2.6856 -1.2126
 5768SOL    HW221990   0.935   4.686   9.069 -1.2459  1.4255 -0.5824
 5769SOL     OW21991   0.050   4.515   8.846  0.2736 -0.2170  1.0800
 5769SOL    HW121992   0.025   4.429   8.812 -1.0897  0.4443  0.3185
 5769SOL    HW221993   0.005   4.520   8.931 -0.9913  0.3510  0.4067
 5770SOL     OW21994   6.502   0.381   4.197  0.5362  0.1015  0.0806
 5770SOL    HW121995   6.459   0.466   4.198  0.1674 -0.0905  0.5968
 5770SOL    HW221996   6.527   0.365   4.288  0.7425 -0.2745 -0.0389
 5771SOL     OW21997   8.708   5.232   3.248  0.1202  0.2722  0.2551
 5771SOL    HW121998   8.742   5.267   3.166  1.8698 -0.4670  0.6230
 5771SOL    HW221999   8.764   5.269   3.316 -0.3937 -0.2433  0.9846
 5772SOL     OW22000  10.795   1.534   0.839 -0.4054  0.1128 -0.3350
 5772SOL    HW122001  10.746   1.574   0.910 -0.5433 -0.0669 -0.3258
 5772SOL    HW222002  10.728   1.489   0.787  0.0779 -3.3205  1.7189
 5773SOL     OW22003   4.152   8.141   8.551  0.3003  0.6062 -0.4870
 5773SOL    HW122004   4.089   8.212   8.566  0.9457  1.1748 -0.4090
 5773SOL    HW222005   4.167   8.142   8.456  0.7211  0.9413 -0.4207
 5774SOL     OW22006   2.998   2.656   6.792 -0.2213 -0.2282  0.9953
 5774SOL    HW122007   2.959   2.572   6.819  2.1136 -1.6901  0.0697
 5774SOL    HW222008   3.070   2.669   6.854 -0.7688  1.3327  1.3452
 5775SOL     OW22009  11.140   3.902   3.023 -0.1251 -0.4107 -0.1671
 5775SOL    HW122010  11.218   3.848   3.024  0.4041  0.3292  1.6415
 5775SOL    HW222011  11.164   3.981   3.071 -0.8039  1.6012 -2.8703
 5776SOL     OW22012   5.771   7.531   3.170  0.4625 -0.4337  0.0515
 5776SOL    HW122013   5.751   7.577   3.088 -1.5015  2.2762  1.8896
 5776SOL    HW222014   5.866   7.519   3.168  0.6420  0.8630 -1.9602
 5777SOL     OW22015   3.042   1.526   1.054  0.0662  0.5919 -0.2578
 5777SOL    HW122016   3.070   1.462   0.989 -1.0171  1.3181 -1.5026
 5777SOL    HW222017   3.120   1.543   1.107  0.5871 -1.0850 -0.4443
 5778SOL     OW22018   7.758   6.309   2.256 -0.3487  0.6849  0.1663
 5778SOL    HW122019   7.809   6.315   2.175  0.3688  1.7102  0.6904
 5778SOL    HW222020   7.719   6.395   2.267  0.4224  0.8860  1.4764
 5779SOL     OW22021  10.722   4.261   3.423 -0.1884  0.1069 -0.4308
 5779SOL    HW122022  10.765   4.206   3.490 -0.4991 -0.4889 -0.7114
 5779SOL    HW222023  10.672   4.199   3.370 -0.2136  0.6183 -1.0141
 5780SOL     OW22024  11.197   3.347   7.088  0.7370  0.3243  0.7446
 5780SOL    HW122025  11.288   3.373   7.075  0.4363  1.5928  1.0448
 5780SOL    HW222026  11.198   3.252   7.080  2.3885  0.1296  2.4811
 5781SOL     OW22027   2.810   8.209  11.224  0.5792  0.2177  0.0981
 5781SOL    HW122028   2.866   8.139  11.191  1.4298 -0.1058  2.0841
 5781SOL    HW222029   2.870   8.272  11.263 -0.2915  1.1398 -0.0026
 5782SOL     OW22030   7.738   0.032   2.965 -0.3238  0.2561 -0.5974
 5782SOL    HW122031   7.749  -0.059   2.936 -0.2822  0.6717 -1.9846
 5782SOL    HW222032   7.814   0.049   3.019 -0.1656 -0.4442 -0.5824
 5783SOL     OW22033   9.475   9.671   8.243 -0.5468  0.0522 -0.7670
 5783SOL    HW122034   9.409   9.717   8.294 -1.0724 -0.2861 -1.1433
 5783SOL    HW222035   9.558   9.707   8.274 -0.6956 -1.5013  1.7517
 5784SOL     OW22036   5.771   0.587   9.965  0.1784 -0.6904  0.2070
 5784SOL    HW122037   5.832   0.556  10.032 -0.4803 -0.8327  0.7449
 5784SOL    HW222038   5.701   0.523   9.964 -1.1366  0.6720  1.2358
 5785SOL     OW22039   6.616  10.351   0.163 -0.1312 -0.2353 -0.4145
 5785SOL    HW122040   6.582  10.262   0.176  0.5343 -0.7663 -1.9592
 5785SOL    HW222041   6.656  10.348   0.076  2.4304  0.7625  0.6172
 5786SOL     OW22042   5.968   7.570   1.757  0.2382 -0.2252  0.0460
 5786SOL    HW122043   5.878   7.548   1.780 -0.6572  2.0488 -0.9307
 5786SOL    HW222044   6.006   7.602   1.838 -0.8047  1.5354 -0.1012
 5787SOL     OW22045  10.038   2.775   2.030  0.2589  0.1667  0.3007
 5787SOL    HW122046  10.058   2.721   1.954 -0.0377  0.8740 -0.2816
 5787SOL    HW222047  10.093   2.853   2.020 -0.4234  0.6599  0.3595
 5788SOL     OW22048  11.244   7.949   4.326  0.4691  0.1776 -0.1724
 5788SOL    HW122049  11.259   7.994   4.244  1.2566 -0.7117 -0.5392
 5788SOL    HW222050  11.235   7.857   4.301 -1.1185  0.0984  0.5430
 5789SOL     OW22051   0.593   3.194   4.971 -0.0908  0.6510  0.0184
 5789SOL    HW122052   0.640   3.274   4.946 -2.3211  2.5839  1.6037
 5789SOL    HW222053   0.519   3.224   5.024  0.8677 -2.6750  3.7581
 5790SOL     OW22054   9.081   9.374   0.927 -0.4532 -0.2579  0.0515
 5790SOL    HW122055   9.097   9.431   0.852 -0.5797 -0.5289 -0.1866
 5790SOL    HW222056   9.084   9.432   1.003  0.7543 -0.1555 -0.0628
 5791SOL     OW22057   7.378   7.325   0.242 -0.2046 -0.3401  0.0072
 5791SOL    HW122058   7.442   7.274   0.192  0.4381 -1.1349  1.5518
 5791SOL    HW222059   7.315   7.261   0.274 -0.5416  0.1302  0.3104
 5792SOL     OW22060   3.504   9.205   9.462  0.5295  0.1174  0.1838
 5792SOL    HW122061   3.418   9.206   9.505  0.2878  1.6894 -0.2803
 5792SOL    HW222062   3.489   9.244   9.377  1.4659 -0.8548 -0.4560
 5793SOL     OW22063   7.537  10.304   7.740  0.6022 -0.4931 -0.1461
 5793SOL    HW122064   7.472  10.285   7.808  0.5014 -2.1806 -0.6790
 5793SOL    HW222065   7.621  10.297   7.785  0.5411 -1.6900 -0.1950
 5794SOL     OW22066   1.110   4.257   5.859 -0.0607 -0.0337  0.7365
 5794SOL    HW122067   1.202   4.233   5.849 -0.3819 -1.1099  0.2167
 5794SOL    HW222068   1.096   4.256   5.954  0.8116  1.5773  0.9058
 5795SOL     OW22069  10.355  11.503   8.661 -0.3193  0.0667  0.2716
 5795SOL    HW122070  10.421  11.480   8.595  0.6611  0.5729  1.0533
 5795SOL    HW222071  10.272  11.483   8.619  0.2795  0.5205 -1.1871
 5796SOL     OW22072   9.721   7.497   3.140 -0.2264  0.2770  0.1855
 5796SOL    HW122073   9.694   7.499   3.048  2.1386 -0.1564 -0.5890
 5796SOL    HW222074   9.805   7.543   3.140 -1.0422  1.9220  2.4893
 5797SOL     OW22075   4.356   1.251  10.387  0.3510 -0.1054 -0.0398
 5797SOL    HW122076   4.440   1.274  10.346 -0.0593  0.2391 -0.6890
 5797SOL    HW222077   4.304   1.214  10.316  0.1651 -0.9122  0.4962
 5798SOL     OW22078   0.833   8.007   6.967 -0.4222 -0.4002  0.2242
 5798SOL    HW122079   0.820   7.941   7.035  0.9738  0.8400  1.7570
 5798SOL    HW222080   0.927   8.006   6.950 -0.2433  1.6809  0.8275
 5799SOL     OW22081   5.957   3.561   9.836  0.1169 -0.0345  0.6433
 5799SOL    HW122082   5.963   3.496   9.765  0.2690 -1.4508  1.8996
 5799SOL    HW222083   5.886   3.619   9.810  0.7404  0.0131 -1.0739
 5800SOL     OW22084   4.714   2.291   5.454  0.2785  0.6692 -0.1422
 5800SOL    HW122085   4.649   2.246   5.508  1.8994 -1.2182  0.3628
 5800SOL    HW222086   4.666   2.364   5.413 -2.4390 -1.2974 -0.7351
 5801SOL     OW22087  11.077   0.228   9.784  0.2907  0.0552 -0.1459
 5801SOL    HW122088  11.053   0.307   9.832  2.1522  1.0615 -0.7429
 5801SOL    HW222089  11.065   0.252   9.692  2.0146  0.1118 -0.3936
 5802SOL     OW22090   1.880   7.419   5.159  0.0834 -0.2571 -0.0664
 5802SOL    HW122091   1.880   7.367   5.239  1.7810 -1.6233 -0.8868
 5802SOL    HW222092   1.922   7.501   5.184 -0.8736 -0.0202  0.8070
 5803SOL     OW22093   4.080   3.247  11.582  0.1343 -0.2245 -0.1779
 5803SOL    HW122094   4.124   3.171  11.542  0.5128  0.5145 -1.2139
 5803SOL    HW222095   3.996   3.213  11.611  0.9632 -1.4343  0.9046
 5804SOL     OW22096  10.254   3.356  10.143  0.0192 -0.1968  0.4789
 5804SOL    HW122097  10.175   3.364  10.088 -0.5709  2.1304  1.5172
 5804SOL    HW222098  10.225   3.386  10.229  1.5446 -1.4191  1.4618
 5805SOL     OW22099   0.275   1.261   1.329 -0.2250  0.0299 -0.5930
 5805SOL    HW122100   0.193   1.309   1.342 -0.3798  0.0721 -1.5878
 5805SOL    HW222101   0.249   1.177   1.292  0.0830 -0.6436  0.6607
 5806SOL     OW22102   3.116   4.175   6.098  0.1292  0.4077 -0.4623
 5806SOL    HW122103   3.071   4.153   6.016  0.1051 -0.8932 -0.1316
 5806SOL    HW222104   3.084   4.109   6.160 -1.0131  2.2505  1.0193
 5807SOL     OW22105   1.171   3.772   8.282  0.3502 -0.1806 -0.1751
 5807SOL    HW122106   1.188   3.798   8.373  0.0006 -0.3546 -0.0563
 5807SOL    HW222107   1.257   3.758   8.244  0.5626  1.4023 -0.3264
 5808SOL     OW22108  11.911   3.764   6.782 -0.9420  0.4287 -0.3274
 5808SOL    HW122109  11.871   3.841   6.822  0.3475  0.4301  1.0411
 5808SOL    HW222110  11.953   3.717   6.855  2.4809  1.0201 -1.7272
 5809SOL     OW22111   1.847  11.260   7.110 -0.3669 -0.2497  0.0013
 5809SOL    HW122112   1.892  11.344   7.122 -0.1646 -0.5757  1.7821
 5809SOL    HW222113   1.756  11.284   7.093 -0.4101  0.3547  0.9821
 5810SOL     OW22114  10.364   6.336   1.864 -0.0525 -0.2407 -0.6581
 5810SOL    HW122115  10.278   6.366   1.894  0.5183 -0.3170  1.1973
 5810SOL    HW222116  10.422   6.351   1.939  1.6445  0.1492 -1.9842
 5811SOL     OW22117   6.802   2.528   8.002  0.7604 -0.0247  0.1384
 5811SOL    HW122118   6.885   2.558   8.038  0.6384  0.1574  0.2689
 5811SOL    HW222119   6.749   2.607   7.995  0.4774 -0.1903  0.3720
 5812SOL     OW22120   9.381   0.821   4.844  0.5514 -0.5248 -0.3003
 5812SOL    HW122121   9.412   0.827   4.753  1.3689 -0.8766 -0.0531
 5812SOL    HW222122   9.286   0.830   4.837  0.7432  1.8126 -0.9720
 5813SOL     OW22123   9.045   1.276   1.792 -0.0380 -0.1152  0.1133
 5813SOL    HW122124   9.008   1.284   1.705  0.5755 -0.2618 -0.1652
 5813SOL    HW222125   9.008   1.350   1.841 -0.4828 -0.1091 -0.2277
 5814SOL     OW22126   0.053   4.225   6.623  0.3182  0.2262 -0.4600
 5814SOL    HW122127  -0.035   4.218   6.587  0.2793  0.5480 -0.4269
 5814SOL    HW222128   0.110   4.195   6.553  0.1456 -0.5244 -0.2873
 5815SOL     OW22129   0.390   2.027   3.415  0.2085 -0.6097 -0.0962
 5815SOL    HW122130   0.358   2.094   3.475  0.2876 -1.7335  1.2450
 5815SOL    HW222131   0.332   1.952   3.428 -0.4843 -0.5394 -2.2720
 5816SOL     OW22132   1.183   9.664   6.640  0.2211 -0.2861 -0.4442
 5816SOL    HW122133   1.125   9.695   6.571 -1.0200  1.7851  1.3805
 5816SOL    HW222134   1.132   9.597   6.686  0.5748 -0.7972 -0.7855
 5817SOL     OW22135   3.221   8.657   5.762  0.7333 -0.1141  0.0743
 5817SOL    HW122136   3.306   8.613   5.755 -0.0914 -1.6947 -0.5628
 5817SOL    HW222137   3.162   8.590   5.797  0.0878  1.4816  2.2773
 5818SOL     OW22138   7.002   9.820   3.246 -0.3165 -0.6733 -0.1916
 5818SOL    HW122139   7.050   9.737   3.242 -0.9440 -1.0726  0.3463
 5818SOL    HW222140   7.029   9.867   3.167 -1.8282 -2.4134 -1.8444
 5819SOL     OW22141  11.811  11.723   0.348  0.3059  0.0663  0.0498
 5819SOL    HW122142  11.732  11.671   0.332  0.6741 -0.4584 -0.1223
 5819SOL    HW222143  11.883  11.665   0.321  0.6943  0.9710 -0.9281
 5820SOL     OW22144   1.020   3.481   4.438  0.3940  0.0476  0.1942
 5820SOL    HW122145   1.064   3.493   4.354  1.2884 -1.5896  0.3887
 5820SOL    HW222146   1.050   3.555   4.491 -1.1857  1.8385 -1.2658
 5821SOL     OW22147   2.935   9.029   7.129 -0.5063  0.0402  0.3176
 5821SOL    HW122148   2.943   9.090   7.202  0.1409 -0.8259  0.9863
 5821SOL    HW222149   2.880   8.958   7.163 -1.6724  0.4676 -0.6096
 5822SOL     OW22150   7.031   5.378   7.848 -0.1110  0.5770 -0.1897
 5822SOL    HW122151   7.121   5.406   7.833  0.2663 -0.9751 -1.0436
 5822SOL    HW222152   7.025   5.363   7.942  0.6924  0.1528 -0.2039
 5823SOL     OW22153   1.671   1.274   9.845  0.0005 -0.3360  0.7473
 5823SOL    HW122154   1.633   1.194   9.881 -0.1357 -1.6529 -2.0716
 5823SOL    HW222155   1.627   1.286   9.761  1.9259  1.1977 -0.1246
 5824SOL     OW22156   8.678   5.734   8.923 -0.0553  0.3430  0.0384
 5824SOL    HW122157   8.765   5.712   8.888  0.7053 -0.1167  2.0582
 5824SOL    HW222158   8.626   5.655   8.910  0.1173  0.2780 -0.2736
 5825SOL     OW22159   6.124   9.067   2.506  0.4680  0.3499 -0.0112
 5825SOL    HW122160   6.211   9.051   2.470  0.3932 -0.7434  0.2718
 5825SOL    HW222161   6.103   9.156   2.478  1.4300  0.4156 -0.5750
 5826SOL     OW22162   7.840   7.365  10.240  0.1448  0.1412 -0.0786
 5826SOL    HW122163   7.897   7.419  10.185  0.1284 -0.1782 -0.4085
 5826SOL    HW222164   7.817   7.422  10.313  0.3774  0.4818 -0.2680
 5827SOL     OW22165   2.589   4.698   5.645 -0.2436  0.2235  0.2880
 5827SOL    HW122166   2.562   4.723   5.556  2.2549 -1.5676 -1.1230
 5827SOL    HW222167   2.674   4.741   5.657  0.2745 -0.9422  1.0648
 5828SOL     OW22168   5.902   3.378   1.801 -0.6385  0.2980 -0.1372
 5828SOL    HW122169   5.884   3.468   1.827  2.0659  0.4687  1.6571
 5828SOL    HW222170   5.911   3.381   1.706  0.1919  2.1370 -0.0478
 5829SOL     OW22171   7.651  10.036   0.757 -0.0612  0.2823 -0.0013
 5829SOL    HW122172   7.616   9.999   0.676  0.3419 -2.2433  0.8938
 5829SOL    HW222173   7.575  10.075   0.800 -0.8548 -0.9441 -0.2560
 5830SOL     OW22174   9.631  11.579   9.887  0.2464 -0.5091  0.0422
 5830SOL    HW122175   9.553  11.529   9.864 -1.0469  1.2563  0.4111
 5830SOL    HW222176   9.702  11.535   9.839 -1.0095 -1.9302 -0.6042
 5831SOL     OW22177   4.252   6.190   0.146  0.3151 -0.1770 -0.0664
 5831SOL    HW122178   4.241   6.252   0.218 -0.0990 -0.4288  0.0910
 5831SOL    HW222179   4.336   6.147   0.164  0.8097  0.6241 -0.4017
 5832SOL     OW22180   2.452  11.505   2.056 -0.0340 -0.3904 -0.5188
 5832SOL    HW122181   2.378  11.512   2.116  0.3703  0.8504 -0.1544
 5832SOL    HW222182   2.524  11.549   2.100  1.2743 -2.5124 -0.3765
 5833SOL     OW22183   6.406   6.093   7.051  0.5977 -0.4989  0.2579
 5833SOL    HW122184   6.380   6.037   7.123  0.9875  1.0961  1.7214
 5833SOL    HW222185   6.434   6.175   7.093 -0.3330  0.9552 -1.7684
 5834SOL     OW22186   8.535   5.194   0.780  0.1964  0.1113 -0.5526
 5834SOL    HW122187   8.444   5.173   0.763  0.1524  1.1661 -1.7967
 5834SOL    HW222188   8.543   5.194   0.875 -1.6958  2.2671 -0.3221
 5835SOL     OW22189   7.221   1.961   0.291 -0.0206  0.7395  0.0747
 5835SOL    HW122190   7.210   2.055   0.306 -1.6203  0.5829  0.0568
 5835SOL    HW222191   7.262   1.928   0.371 -1.9273  1.0520  1.2421
 5836SOL     OW22192   4.518   5.526   0.954 -0.0585 -0.2961 -0.1779
 5836SOL    HW122193   4.519   5.458   0.887  0.2234  0.7699 -1.2898
 5836SOL    HW222194   4.504   5.608   0.906 -0.4798  0.4315  1.1315
 5837SOL     OW22195   7.835   4.862   7.686 -0.5774  0.2905 -0.8428
 5837SOL    HW122196   7.753   4.907   7.665 -1.3415 -1.2473 -1.2860
 5837SOL    HW222197   7.854   4.810   7.609 -0.3415 -1.0305  0.0798
 5838SOL     OW22198   8.196   3.181   0.961 -0.3127 -0.3449 -0.0517
 5838SOL    HW122199   8.111   3.202   0.999 -0.5764  0.8064 -1.2535
 5838SOL    HW222200   8.227   3.262   0.921  1.4895 -0.6554  0.5805
 5839SOL     OW22201   4.588  11.001   3.805  0.1335 -0.0546 -0.2389
 5839SOL    HW122202   4.664  11.018   3.860  0.1563 -1.2690  0.1245
 5839SOL    HW222203   4.624  10.975   3.720  0.1125  0.0263 -0.2731
 5840SOL     OW22204   5.514  11.561   6.628  0.3160  0.0197  0.3390
 5840SOL    HW122205   5.462  11.546   6.707  0.7851  2.8718  1.3109
 5840SOL    HW222206   5.598  11.594   6.661  0.9017  0.2824 -1.3450
 5841SOL     OW22207  10.289   8.247   9.361  0.4208  0.5460  0.2197
 5841SOL    HW122208  10.240   8.179   9.315 -0.3619  0.6124  0.9511
 5841SOL    HW222209  10.268   8.327   9.314 -0.3085  0.6012  0.6440
 5842SOL     OW22210  11.201   8.827   5.595 -0.2418 -0.2249 -0.2680
 5842SOL    HW122211  11.242   8.911   5.616  3.0142 -1.6646 -0.2578
 5842SOL    HW222212  11.169   8.794   5.679 -0.5683  0.5209 -0.0957
 5843SOL     OW22213  10.799   2.620   4.240  0.2275  0.4795 -0.3736
 5843SOL    HW122214  10.820   2.595   4.150 -1.0469 -0.2870 -0.4932
 5843SOL    HW222215  10.728   2.684   4.230 -0.8200 -0.5760  0.0921
 5844SOL     OW22216   2.574   0.004  10.838  0.3819  0.4495  0.1069
 5844SOL    HW122217   2.567   0.100  10.839  1.7649  0.5809 -0.1585
 5844SOL    HW222218   2.668  -0.013  10.840  0.2424 -0.8680 -1.6302
 5845SOL     OW22219   9.905   7.227   6.484  0.1150  0.1936  0.0727
 5845SOL    HW122220   9.819   7.197   6.515 -0.8617  1.0297 -1.6579
 5845SOL    HW222221   9.964   7.154   6.503 -1.1540 -0.7654  0.4989
 5846SOL     OW22222   5.250   1.010   7.897  0.4980 -0.4992 -0.3751
 5846SOL    HW122223   5.221   1.094   7.862 -0.5959 -0.9990 -0.7294
 5846SOL    HW222224   5.285   1.030   7.984  0.3909  0.3388 -0.5217
 5847SOL     OW22225   9.514   2.662  11.606  0.2005 -0.3708  0.8144
 5847SOL    HW122226   9.567   2.590  11.573 -0.7527  0.0139 -1.7320
 5847SOL    HW222227   9.468   2.626  11.682  0.5840 -2.1019  0.2477
 5848SOL     OW22228   5.937   4.635   7.107 -0.1889  0.3850  0.0761
 5848SOL    HW122229   5.949   4.616   7.014  1.5816 -0.7444  0.4864
 5848SOL    HW222230   5.843   4.628   7.121 -0.3806 -0.5102 -1.4112
 5849SOL     OW22231   7.604   3.252   7.552  0.0941  0.2579  0.8600
 5849SOL    HW122232   7.588   3.338   7.590 -1.4191 -0.3212  1.6283
 5849SOL    HW222233   7.587   3.263   7.459  1.6635  1.1821  0.6527
 5850SOL     OW22234   9.136   6.014  11.948  0.3234 -0.0059 -0.3356
 5850SOL    HW122235   9.203   5.945  11.945 -0.0231 -0.3439 -0.2334
 5850SOL    HW222236   9.178   6.085  11.996 -0.3964 -1.3021  2.3971
 5851SOL     OW22237  11.334   3.465   4.184  0.2169  0.4035  0.2729
 5851SOL    HW122238  11.304   3.487   4.272 -0.4608  0.4538  0.0380
 5851SOL    HW222239  11.262   3.492   4.127 -0.6090 -2.2392 -0.0644
 5852SOL     OW22240   9.593   3.102   3.218 -0.1532  0.3233  0.3990
 5852SOL    HW122241   9.583   3.021   3.169 -0.3818 -0.5096  1.7659
 5852SOL    HW222242   9.512   3.150   3.203  0.2854  0.6722 -1.0212
 5853SOL     OW22243  10.699   6.148   9.160  0.7334 -0.1030  0.1900
 5853SOL    HW122244  10.757   6.075   9.139 -0.3743 -0.8071 -0.5078
 5853SOL    HW222245  10.690   6.196   9.077 -0.1425 -0.3482  0.1351
 5854SOL     OW22246   8.364   8.626   7.448 -0.7331 -0.0764  0.2077
 5854SOL    HW122247   8.403   8.638   7.534  1.5505 -1.6652 -0.5009
 5854SOL    HW222248   8.272   8.652   7.459 -0.3853  0.2769  2.9478
 5855SOL     OW22249   4.380   9.968   8.825 -0.0074  0.1775  0.2617
 5855SOL    HW122250   4.314   9.979   8.756 -0.9304 -0.9677  0.9412
 5855SOL    HW222251   4.421  10.054   8.831 -1.0422  0.7632 -0.5772
 5856SOL     OW22252   6.843   5.456   0.277 -0.1165  0.6207  0.2088
 5856SOL    HW122253   6.809   5.367   0.284  0.9651  0.2466  1.0756
 5856SOL    HW222254   6.782   5.509   0.328 -0.2625  0.2170  0.4566
 5857SOL     OW22255   3.457   5.836  10.667 -0.0444 -0.3909 -0.3071
 5857SOL    HW122256   3.500   5.916  10.638  1.0478 -1.2848 -1.2307
 5857SOL    HW222257   3.425   5.795  10.587 -2.5656  0.1564  0.3175
 5858SOL     OW22258  11.208   0.679   1.102  0.3764 -0.1902 -0.1443
 5858SOL    HW122259  11.150   0.653   1.031  1.1245 -1.7452 -0.2350
 5858SOL    HW222260  11.255   0.754   1.068  0.0475 -0.3331 -0.9384
 5859SOL     OW22261   6.547   8.102   1.859 -0.2970  0.3632 -0.0601
 5859SOL    HW122262   6.511   8.050   1.787  1.0526  0.8725 -1.1369
 5859SOL    HW222263   6.569   8.038   1.927  1.1318 -0.4795 -1.2726
 5860SOL     OW22264   6.126   4.199   7.956 -0.2243 -0.2567  0.2645
 5860SOL    HW122265   6.213   4.207   7.994 -0.9229  2.0099  1.6098
 5860SOL    HW222266   6.093   4.289   7.952 -1.9436 -0.8864 -1.6089
 5861SOL     OW22267   7.967   9.141   3.709 -0.1985  0.1653  0.0533
 5861SOL    HW122268   7.969   9.223   3.758 -0.1461  0.1666  0.0487
 5861SOL    HW222269   7.944   9.075   3.774 -1.3215  0.3347 -0.1551
 5862SOL     OW22270   2.427   1.023  10.032  0.4082 -0.5474 -0.4495
 5862SOL    HW122271   2.397   1.091  10.092  1.1783 -0.0824 -0.5718
 5862SOL    HW222272   2.376   0.946  10.055 -0.3543  0.0258 -0.1914
 5863SOL     OW22273   2.902   3.045   4.335  0.3326 -0.0966 -0.6425
 5863SOL    HW122274   2.922   3.107   4.404 -0.2720 -0.8700  0.2503
 5863SOL    HW222275   2.893   3.099   4.256 -0.9996  1.0564  0.2564
 5864SOL     OW22276  10.635   6.040   4.598 -0.1579 -0.4244  0.0511
 5864SOL    HW122277  10.676   6.127   4.595  0.1622 -0.5273  1.1428
 5864SOL    HW222278  10.707   5.981   4.620 -0.5489 -0.8557  0.1785
 5865SOL     OW22279   2.883   5.704   2.532  0.0623 -0.3758 -0.0354
 5865SOL    HW122280   2.972   5.713   2.497 -1.0595 -0.1879 -3.1650
 5865SOL    HW222281   2.866   5.610   2.528 -0.0288 -0.3663  0.1467
 5866SOL     OW22282   3.902   9.496   5.411  0.1510  0.0228  0.1664
 5866SOL    HW122283   3.924   9.408   5.383 -0.0828 -0.5100  1.5809
 5866SOL    HW222284   3.918   9.496   5.505 -0.2026  1.3822  0.2485
 5867SOL     OW22285   6.007  10.027   7.425  0.0647 -0.3962  0.4086
 5867SOL    HW122286   6.014   9.940   7.466  2.0435 -0.2697  0.4730
 5867SOL    HW222287   6.069  10.081   7.475 -0.2987  0.7538 -0.3510
 5868SOL     OW22288   7.215   1.332   8.311 -0.1678 -0.4384  0.3131
 5868SOL    HW122289   7.120   1.318   8.310 -0.0596 -1.8716 -3.0496
 5868SOL    HW222290   7.240   1.323   8.403 -3.1881 -0.6275  1.2153
 5869SOL     OW22291   1.758  11.446   3.959  0.3364 -0.0458  0.6334
 5869SOL    HW122292   1.852  11.452   3.975  0.5779  0.2585 -0.7568
 5869SOL    HW222293   1.721  11.522   4.005  1.0377  1.0533 -0.5595
 5870SOL     OW22294   0.426   6.346   1.588  0.2172 -0.1238 -0.1247
 5870SOL    HW122295   0.350   6.301   1.551  0.9124 -1.0683 -0.4337
 5870SOL    HW222296   0.410   6.439   1.568 -0.1928 -0.4424 -1.4094
 5871SOL     OW22297   9.474   9.218  11.609 -0.5458  0.1366 -0.3830
 5871SOL    HW122298   9.477   9.313  11.620  1.9232  0.2977 -1.6680
 5871SOL    HW222299   9.410   9.188  11.674  1.3729  2.3093  2.7946
 5872SOL     OW22300   6.482   8.412   7.061  0.2711 -0.0692 -0.5304
 5872SOL    HW122301   6.419   8.353   7.101 -0.5644  0.1629 -1.4588
 5872SOL    HW222302   6.447   8.499   7.077  1.4796  0.2024  0.8012
 5873SOL     OW22303   8.509   9.170  10.316  0.0953  0.2652  0.8685
 5873SOL    HW122304   8.425   9.185  10.359  0.4133  0.5051  1.4159
 5873SOL    HW222305   8.574   9.193  10.382  0.5920 -0.4417  0.6326
 5874SOL     OW22306   0.739   7.385   9.998  0.0914 -0.1122  0.2314
 5874SOL    HW122307   0.702   7.305   9.962 -0.0498 -0.2956  0.7770
 5874SOL    HW222308   0.810   7.356  10.055  1.1526  0.2421 -0.8727
 5875SOL     OW22309   1.373   2.763   2.748  0.2220 -0.6132 -0.2344
 5875SOL    HW122310   1.463   2.794   2.738 -0.6558  1.3019 -3.4658
 5875SOL    HW222311   1.335   2.822   2.814  0.4933  0.7334 -1.2475
 5876SOL     OW22312   9.140   9.352   5.930  0.0013 -0.4588  0.0758
 5876SOL    HW122313   9.224   9.357   5.976  0.3046  2.4384 -0.5836
 5876SOL    HW222314   9.075   9.373   5.997 -0.3062 -3.0331  0.6653
 5877SOL     OW22315   8.419   5.017  11.106 -0.1508 -0.7069 -0.2159
 5877SOL    HW122316   8.326   4.997  11.095 -0.4257 -0.5061  1.4451
 5877SOL    HW222317   8.437   4.994  11.197  0.8734  1.3982  0.1607
 5878SOL     OW22318   2.079   9.506   8.070  0.1696  0.1671 -0.4900
 5878SOL    HW122319   2.034   9.438   8.120 -1.5624  1.2676 -0.4856
 5878SOL    HW222320   2.132   9.553   8.135  1.0230 -0.8678 -0.4162
 5879SOL     OW22321   3.053  10.129   2.856 -0.3963  0.0051 -0.1196
 5879SOL    HW122322   3.145  10.128   2.883 -0.1034  1.2556 -0.9633
 5879SOL    HW222323   3.027  10.221   2.864 -0.2539  0.5718 -3.9337
 5880SOL     OW22324   1.027  10.080   3.776  0.1035 -0.0625 -0.3898
 5880SOL    HW122325   0.966  10.152   3.756 -0.1945  0.2026  1.2688
 5880SOL    HW222326   1.112  10.123   3.783 -0.1338  0.2442  0.9905
 5881SOL     OW22327   0.455  10.741   3.556  0.0179  0.7425 -0.0133
 5881SOL    HW122328   0.464  10.699   3.641 -0.5920 -0.1291 -0.3705
 5881SOL    HW222329   0.366  10.777   3.556 -0.0657  0.5396 -0.3692
 5882SOL     OW22330  10.049   5.180  11.993 -0.0231 -0.1981 -0.4449
 5882SOL    HW122331  10.008   5.155  11.910  1.2854  0.1339 -1.2161
 5882SOL    HW222332  10.104   5.105  12.015  1.5738  0.6811 -1.2111
 5883SOL     OW22333  11.778  11.704   6.003  0.8078 -0.0007  0.0669
 5883SOL    HW122334  11.869  11.676   5.991  0.9475  0.1795  0.6384
 5883SOL    HW222335  11.782  11.799   5.999  0.5639 -0.0093 -0.3957
 5884SOL     OW22336   7.783   1.372   8.862  0.5227 -0.1410  0.1448
 5884SOL    HW122337   7.809   1.394   8.772  1.7516 -1.7641  0.0530
 5884SOL    HW222338   7.688   1.385   8.863  0.3574 -0.8595 -1.6517
 5885SOL     OW22339   5.031   5.621  10.216  0.6172  0.0527 -0.2774
 5885SOL    HW122340   5.047   5.677  10.292 -2.2403  0.4486  0.1547
 5885SOL    HW222341   5.083   5.659  10.146  1.5338  1.0630  0.9130
 5886SOL     OW22342  10.723   7.614   8.835 -0.0018  0.0205 -0.3284
 5886SOL    HW122343  10.708   7.530   8.793  1.9529 -0.4899 -0.1056
 5886SOL    HW222344  10.669   7.676   8.786 -0.8232 -1.2180 -1.0270
 5887SOL     OW22345   9.255   8.718   2.412 -0.4616  0.4411  0.8556
 5887SOL    HW122346   9.344   8.751   2.397 -0.5905  0.1481 -0.6782
 5887SOL    HW222347   9.220   8.701   2.325 -1.5997 -0.6065  1.4772
 5888SOL     OW22348   9.966  10.599   1.759 -0.7590 -0.0787 -0.5747
 5888SOL    HW122349   9.972  10.534   1.828 -0.9155  0.4847 -0.0270
 5888SOL    HW222350   9.974  10.683   1.803  1.2815  0.2599 -1.4638
 5889SOL     OW22351   3.627   2.693   5.784  0.4575  0.7771  0.1374
 5889SOL    HW122352   3.593   2.726   5.701 -1.1732  0.8421  0.7927
 5889SOL    HW222353   3.603   2.600   5.784  1.7053  0.4376 -0.0605
 5890SOL     OW22354  10.423   7.492   5.314 -1.0516  0.2068  0.7829
 5890SOL    HW122355  10.472   7.504   5.396 -1.5995 -1.0077  1.3057
 5890SOL    HW222356  10.359   7.424   5.334 -1.7468  0.4823 -0.4275
 5891SOL     OW22357   8.932   2.812  11.419  0.4972  0.6589  0.2071
 5891SOL    HW122358   8.874   2.736  11.423 -1.5021  2.0643 -0.1629
 5891SOL    HW222359   8.904   2.859  11.341  1.9458  1.5688  0.2113
 5892SOL     OW22360   5.581  11.164  11.359 -0.5097 -0.3764  0.1979
 5892SOL    HW122361   5.603  11.220  11.284  1.3228 -3.2493 -1.5805
 5892SOL    HW222362   5.592  11.221  11.435 -0.4547  2.1222 -1.5493
 5893SOL     OW22363   0.296   3.803  11.955 -0.2112 -0.4952  0.0986
 5893SOL    HW122364   0.228   3.781  12.018 -0.6407 -0.8671 -0.4862
 5893SOL    HW222365   0.360   3.732  11.964 -1.2238 -1.6314 -1.2437
 5894SOL     OW22366  10.665   0.873   7.176 -0.1973  0.0538 -0.1369
 5894SOL    HW122367  10.682   0.875   7.081  0.8288  0.4740  0.0447
 5894SOL    HW222368  10.614   0.793   7.189  1.2106 -1.0136 -0.8168
 5895SOL     OW22369   7.954   6.003   1.805 -0.3360  0.4035 -0.6849
 5895SOL    HW122370   7.901   6.061   1.751  0.6635  1.8424 -0.1803
 5895SOL    HW222371   7.895   5.975   1.875 -0.5049  1.8335 -0.2294
 5896SOL     OW22372   9.631   9.566   6.031 -0.3587 -0.0697 -0.4722
 5896SOL    HW122373   9.678   9.507   6.090  0.4853  0.4177 -0.6351
 5896SOL    HW222374   9.621   9.647   6.081  2.2803  1.1236 -1.6341
 5897SOL     OW22375   9.519   4.232   6.979  0.4102  0.5844 -0.7902
 5897SOL    HW122376   9.538   4.257   7.069 -1.4523 -0.7334  0.0541
 5897SOL    HW222377   9.449   4.292   6.952  0.1934  0.2624 -0.9504
 5898SOL     OW22378   6.791   3.501  11.910  0.0573  0.6007  0.1778
 5898SOL    HW122379   6.747   3.582  11.935 -0.5410  0.6292 -0.9378
 5898SOL    HW222380   6.796   3.505  11.815 -0.7210 -1.0400  0.0383
 5899SOL     OW22381   5.686   4.489   0.528  0.2190  0.1724 -0.0112
 5899SOL    HW122382   5.685   4.450   0.616 -0.5979 -2.2666 -1.0057
 5899SOL    HW222383   5.776   4.479   0.498 -0.2677 -2.4513 -0.7973
 5900SOL     OW22384  11.912  10.258   9.706  0.1152  0.0793 -0.0870
 5900SOL    HW122385  11.848  10.224   9.643 -0.1211  2.0186 -0.9736
 5900SOL    HW222386  11.989  10.203   9.694  0.1351  0.4879 -2.2382
 5901SOL     OW22387   2.302   4.724  10.601 -0.1133  0.4684 -0.2297
 5901SOL    HW122388   2.220   4.698  10.643 -1.3370  2.5210 -1.1671
 5901SOL    HW222389   2.293   4.819  10.588  2.4478  0.7604 -0.3292
 5902SOL     OW22390   1.610   6.960   0.323  0.0565 -0.4072 -0.0122
 5902SOL    HW122391   1.628   6.947   0.416 -0.7427 -0.5429  0.1271
 5902SOL    HW222392   1.587   6.873   0.291  2.0155 -0.7256 -0.7420
 5903SOL     OW22393   2.300   5.042   9.708 -0.1045 -0.4708  0.1321
 5903SOL    HW122394   2.387   5.032   9.669 -0.8433  1.1687 -2.1564
 5903SOL    HW222395   2.313   5.022   9.801  2.7564 -0.0223 -0.0740
 5904SOL     OW22396   8.310   2.822  10.725  0.0505 -0.4441 -0.0031
 5904SOL    HW122397   8.341   2.732  10.719 -1.3865 -0.8804 -2.9305
 5904SOL    HW222398   8.215   2.814  10.730 -0.1557  0.8774 -1.0763
 5905SOL     OW22399   8.074   8.073   5.587 -0.1797 -0.1232  0.2319
 5905SOL    HW122400   8.115   8.120   5.659 -0.3864  0.5051 -0.0517
 5905SOL    HW222401   7.981   8.094   5.594 -0.0827  0.7790 -0.8018
 5906SOL     OW22402   9.002   6.746   7.739 -0.2746 -0.2485  0.7530
 5906SOL    HW122403   9.008   6.770   7.831 -2.9100  2.1807  0.4180
 5906SOL    HW222404   9.012   6.829   7.691  0.2670 -1.3313 -1.1333
 5907SOL     OW22405   5.088   2.271   9.136 -0.8952  0.0121 -0.1908
 5907SOL    HW122406   5.129   2.262   9.223 -3.5768  0.2117  1.2018
 5907SOL    HW222407   5.160   2.295   9.078  1.0199 -0.1869  1.9655
 5908SOL     OW22408  11.440  10.041   9.470 -0.5815 -0.2083  0.2380
 5908SOL    HW122409  11.425  10.102   9.542  1.3220  1.3608 -0.6004
 5908SOL    HW222410  11.423  10.093   9.391  0.7330 -0.8256 -0.4849
 5909SOL     OW22411   2.915   2.467   9.268 -0.5331 -0.0132 -0.0237
 5909SOL    HW122412   2.952   2.523   9.336  0.5824 -1.3589  0.4962
 5909SOL    HW222413   2.987   2.452   9.207 -1.2774  0.4464 -1.0577
 5910SOL     OW22414   5.903   0.251   8.606  0.0466  0.2865 -0.0344
 5910SOL    HW122415   5.946   0.170   8.577  2.2799  1.8291 -1.2535
 5910SOL    HW222416   5.855   0.281   8.528 -1.4714 -0.2191  0.6575
 5911SOL     OW22417   1.531   7.878   6.514 -0.3028 -0.2298 -0.4293
 5911SOL    HW122418   1.483   7.831   6.582 -1.1975  0.3197 -0.6613
 5911SOL    HW222419   1.466   7.894   6.446  0.1034  0.8810 -0.5788
 5912SOL     OW22420  10.775   4.919   0.233 -0.1573  0.1553  0.4927
 5912SOL    HW122421  10.834   4.994   0.224 -0.4959  0.3578 -0.1411
 5912SOL    HW222422  10.794   4.864   0.157 -2.6068  1.5498 -1.3128
 5913SOL     OW22423  10.896   4.678   8.012 -0.2276 -0.9728 -0.0428
 5913SOL    HW122424  10.985   4.644   8.004 -0.4050 -1.0334 -2.3607
 5913SOL    HW222425  10.840   4.603   7.992 -0.7203 -0.3637 -0.9843
 5914SOL     OW22426   5.435   2.743   2.563  0.5885  0.3152 -0.2488
 5914SOL    HW122427   5.510   2.717   2.509 -0.4079 -0.7951 -1.1370
 5914SOL    HW222428   5.363   2.756   2.501 -0.6348 -1.1443  0.7850
 5915SOL     OW22429  10.163   9.778   2.878 -0.5844  0.0653 -0.0572
 5915SOL    HW122430  10.186   9.734   2.960  1.9562  0.3919 -0.5147
 5915SOL    HW222431  10.127   9.862   2.906  0.1798  0.1393  0.7572
 5916SOL     OW22432   7.418   9.054   9.967  0.7172 -0.0937  0.0293
 5916SOL    HW122433   7.422   8.969   9.923  0.4921 -0.2879  0.3852
 5916SOL    HW222434   7.380   9.113   9.901 -0.3438 -0.5478  0.2091
 5917SOL     OW22435   5.799   2.266   5.593 -0.4694 -0.1858  0.4000
 5917SOL    HW122436   5.883   2.264   5.547 -0.5283  0.9982  0.1945
 5917SOL    HW222437   5.762   2.178   5.580 -0.8340  0.2723 -2.5517
 5918SOL     OW22438   7.229   9.849   7.302 -0.1225  0.6994  0.0849
 5918SOL    HW122439   7.172   9.825   7.375  0.6457  1.4842  0.9533
 5918SOL    HW222440   7.170   9.888   7.237 -0.4613  2.5947  1.4599
 5919SOL     OW22441   0.350   1.939   4.930  0.3092 -0.2237  0.6000
 5919SOL    HW122442   0.385   1.882   4.862 -0.5103 -1.9088  1.5109
 5919SOL    HW222443   0.259   1.911   4.940 -0.4874  2.0449  0.3202
 5920SOL     OW22444  11.268   8.791   7.838  0.3611  0.5334  0.2397
 5920SOL    HW122445  11.197   8.777   7.900 -1.1599  1.0256 -1.3126
 5920SOL    HW222446  11.241   8.867   7.787  1.5384  0.1365 -1.0389
 5921SOL     OW22447   3.132  11.946   4.052 -0.0732 -0.5585  0.6959
 5921SOL    HW122448   3.152  11.985   4.138  1.1364 -0.7162  0.5132
 5921SOL    HW222449   3.167  11.857   4.058  2.8709  0.3573 -0.9474
 5922SOL     OW22450  10.587  10.008   5.917  0.4777  0.1206 -0.2010
 5922SOL    HW122451  10.632  10.042   5.840 -2.0226  1.0925 -1.3692
 5922SOL    HW222452  10.558  10.087   5.964  1.0505 -0.4643  1.1984
 5923SOL     OW22453   9.050   9.450   6.771  0.1883 -0.1552 -0.2015
 5923SOL    HW122454   9.142   9.442   6.745  0.0164 -0.9381 -0.5728
 5923SOL    HW222455   9.042   9.394   6.848 -0.1747 -0.7329 -0.6617
 5924SOL     OW22456   7.362   7.711   4.619 -0.6489  0.0273 -0.2911
 5924SOL    HW122457   7.441   7.706   4.564 -1.1670 -2.3361 -0.9448
 5924SOL    HW222458   7.329   7.800   4.605  2.0491  1.2319  0.2937
 5925SOL     OW22459   3.943   9.279   2.627 -0.1339 -0.0442 -0.2762
 5925SOL    HW122460   3.894   9.330   2.691 -0.5527 -0.9305  0.1277
 5925SOL    HW222461   3.953   9.193   2.667  1.3147 -0.0399 -0.5785
 5926SOL     OW22462   6.405   5.764  11.305 -1.0645  0.0740 -0.2121
 5926SOL    HW122463   6.497   5.740  11.320 -1.2498  0.0779  1.0962
 5926SOL    HW222464   6.357   5.717  11.373 -1.9468  0.6634 -0.4120
 5927SOL     OW22465   2.694   2.936   6.016  0.2607  0.5260 -0.1481
 5927SOL    HW122466   2.670   3.027   6.033 -0.6567  0.1076  0.9165
 5927SOL    HW222467   2.732   2.938   5.928  0.6366  1.9944  0.0064
 5928SOL     OW22468   9.445   0.801   1.229  0.1694 -0.7086  0.1023
 5928SOL    HW122469   9.457   0.816   1.322 -1.4056  0.7579  0.1167
 5928SOL    HW222470   9.467   0.884   1.188 -2.1476 -0.3236 -0.5012
 5929SOL     OW22471   4.202   8.064   1.278  0.2312 -0.1748  0.6344
 5929SOL    HW122472   4.159   8.048   1.194 -0.6749 -1.9515  1.3748
 5929SOL    HW222473   4.271   7.998   1.283  0.9028  0.5330  0.8812
 5930SOL     OW22474   3.352  11.631   5.745 -0.7976 -0.3388 -0.6660
 5930SOL    HW122475   3.277  11.621   5.803 -1.9453 -1.8397 -2.3183
 5930SOL    HW222476   3.373  11.542   5.717  0.8056  0.1823 -1.2491
 5931SOL     OW22477   3.890   8.648   8.663  0.3613 -0.6746  0.1265
 5931SOL    HW122478   3.871   8.722   8.720 -2.0546 -1.9993  1.2053
 5931SOL    HW222479   3.835   8.662   8.586 -0.1860 -1.3665  0.3807
 5932SOL     OW22480   1.438   2.050   6.511 -0.3202 -0.4094  0.3906
 5932SOL    HW122481   1.454   2.063   6.604  1.7812  1.1372 -0.1033
 5932SOL    HW222482   1.344   2.064   6.501 -0.1773  2.3620  1.9078
 5933SOL     OW22483   1.381   9.550   6.323 -0.1760  0.2186 -0.9446
 5933SOL    HW122484   1.456   9.567   6.266 -0.4483  1.0406 -1.0720
 5933SOL    HW222485   1.420   9.524   6.406  0.2814  1.1931 -0.8362
 5934SOL     OW22486   0.125   0.515   8.281  0.4875 -0.1506  0.5991
 5934SOL    HW122487   0.195   0.578   8.263 -0.0552  1.0001  2.2809
 5934SOL    HW222488   0.049   0.569   8.302 -0.8317 -1.3768 -0.7458
 5935SOL     OW22489   5.510   0.117   6.918 -0.1093  0.0504 -0.1882
 5935SOL    HW122490   5.452   0.093   6.846 -0.5605  3.7019 -1.2414
 5935SOL    HW222491   5.598   0.112   6.880  0.2097 -2.9684  0.6608
 5936SOL     OW22492   0.431   4.683   1.063 -0.5309 -0.1773  0.7512
 5936SOL    HW122493   0.498   4.748   1.082 -0.8099  1.4871 -2.9798
 5936SOL    HW222494   0.480   4.606   1.034 -0.0918  0.6271 -0.8064
 5937SOL     OW22495   0.045   4.614  11.734 -0.2300 -0.1129  0.1961
 5937SOL    HW122496   0.037   4.675  11.807  2.7940  1.4661 -0.6051
 5937SOL    HW222497   0.082   4.534  11.773  1.4779  0.7598  0.4520
 5938SOL     OW22498   3.831   5.030   5.204  0.5896  0.0591 -0.0836
 5938SOL    HW122499   3.878   5.108   5.173 -1.0892 -0.0635 -3.3153
 5938SOL    HW222500   3.898   4.961   5.205  1.5615  0.9725  0.4699
 5939SOL     OW22501   0.107   7.027   2.093 -0.2625 -0.2286  0.0464
 5939SOL    HW122502   0.199   7.046   2.112 -0.0468 -2.3734  1.4185
 5939SOL    HW222503   0.065   7.025   2.178 -1.1957 -1.0814 -0.4126
 5940SOL     OW22504   5.542   2.978   1.638 -0.3059 -0.1636  0.3031
 5940SOL    HW122505   5.539   3.066   1.675  1.2991 -0.2755  0.7421
 5940SOL    HW222506   5.569   2.991   1.547 -1.3900 -0.1185 -0.0272
 5941SOL     OW22507   3.553  11.022   0.133 -0.7017  0.6597  0.2303
 5941SOL    HW122508   3.543  11.114   0.106  0.1596  0.5160 -0.6363
 5941SOL    HW222509   3.464  10.992   0.151 -1.0694  1.4446 -0.2342
 5942SOL     OW22510  10.440   0.810   9.207  0.0627  0.0170 -0.0194
 5942SOL    HW122511  10.380   0.742   9.176 -0.7096  1.1297 -1.0756
 5942SOL    HW222512  10.428   0.811   9.302  1.0105 -2.1247  0.1905
 5943SOL     OW22513   7.507   6.308  10.411 -0.5669 -0.3730 -0.0902
 5943SOL    HW122514   7.428   6.269  10.374 -0.6900  0.2031 -0.4462
 5943SOL    HW222515   7.565   6.234  10.427 -1.8764 -1.0510  1.9654
 5944SOL     OW22516   1.238   3.060   7.183  0.0831 -0.0152  0.4707
 5944SOL    HW122517   1.211   3.116   7.110 -0.1615  0.2758  0.7783
 5944SOL    HW222518   1.156   3.023   7.217  0.2963 -1.1049 -0.1529
 5945SOL     OW22519   0.713   4.216   0.853  0.4102  0.6343  0.0866
 5945SOL    HW122520   0.726   4.122   0.867  1.6923  0.7868  0.1034
 5945SOL    HW222521   0.698   4.251   0.941 -0.9190  0.3416 -0.0131
 5946SOL     OW22522   6.304  11.646   2.426  0.1152 -0.5011 -0.3717
 5946SOL    HW122523   6.332  11.696   2.503 -0.6537  0.2959 -0.5945
 5946SOL    HW222524   6.384  11.636   2.373  0.6818 -1.1837  0.5819
 5947SOL     OW22525   0.986   4.950   0.391 -0.6057  0.0191 -0.1215
 5947SOL    HW122526   0.986   4.910   0.479  1.5552 -0.6689 -0.3606
 5947SOL    HW222527   1.002   5.043   0.407 -0.0180 -0.1343  0.2242
 5948SOL     OW22528   7.289   8.791   6.808  0.0547 -0.4094  0.3489
 5948SOL    HW122529   7.286   8.827   6.896 -0.0709 -2.1638  1.0961
 5948SOL    HW222530   7.361   8.839   6.765 -0.2762  0.8847  1.1756
 5949SOL     OW22531   8.132   8.661  10.611  0.1248  0.7480 -0.2454
 5949SOL    HW122532   8.176   8.659  10.695  1.4925  1.3624 -0.9112
 5949SOL    HW222533   8.077   8.739  10.614 -1.0946 -0.1041  0.6446
 5950SOL     OW22534  10.313   4.314   9.138 -0.1541  0.6781  0.1145
 5950SOL    HW122535  10.259   4.239   9.112  0.2075  0.2558  0.5763
 5950SOL    HW222536  10.388   4.276   9.182  0.5114  1.2618 -0.4749
 5951SOL     OW22537   5.549   7.322  10.060 -0.2066 -0.5653  0.1250
 5951SOL    HW122538   5.564   7.257   9.991  0.2220  1.4615 -1.8374
 5951SOL    HW222539   5.636   7.347  10.089 -0.3643 -0.8414  0.8408
 5952SOL     OW22540   3.280   3.688   9.973 -0.4263  0.6834  0.4489
 5952SOL    HW122541   3.336   3.654  10.042 -1.4352  0.3009  1.1117
 5952SOL    HW222542   3.316   3.651   9.892  1.0634  1.5308  0.6897
 5953SOL     OW22543  11.883   6.394   5.189 -0.1649  0.3831 -0.2919
 5953SOL    HW122544  11.788   6.403   5.182 -0.5096 -0.9015  1.9015
 5953SOL    HW222545  11.900   6.380   5.282  2.0380 -1.0081 -0.8130
 5954SOL     OW22546   5.771   8.549   1.786 -0.2018 -0.0141 -0.4762
 5954SOL    HW122547   5.760   8.644   1.785  0.6898  0.1100  0.4266
 5954SOL    HW222548   5.682   8.514   1.777 -0.5543  0.8956 -0.6168
 5955SOL     OW22549   5.016   6.185  11.188  0.2428 -0.6304 -0.3879
 5955SOL    HW122550   4.971   6.135  11.255  1.3930 -0.9903  0.1297
 5955SOL    HW222551   4.995   6.140  11.106  0.1287 -1.1198 -0.0917
 5956SOL     OW22552   9.085   9.918   4.594  0.1517 -0.1335  0.3820
 5956SOL    HW122553   9.145   9.981   4.552  0.7052  0.1734  1.5999
 5956SOL    HW222554   9.103   9.835   4.550  1.4246 -0.0288  0.6611
 5957SOL     OW22555   2.500   0.217   2.883 -0.3775 -0.2254  0.1100
 5957SOL    HW122556   2.479   0.301   2.925 -1.0638 -1.6473  2.8320
 5957SOL    HW222557   2.456   0.220   2.798 -1.4438  1.6509  0.6840
 5958SOL     OW22558   0.512   1.706   9.812 -0.8005 -0.9968  0.5046
 5958SOL    HW122559   0.502   1.702   9.907  1.5332  1.0987  0.9305
 5958SOL    HW222560   0.449   1.773   9.785  3.0725  3.6976  1.6814
 5959SOL     OW22561  10.026   5.496   5.855 -0.0438  0.2335 -0.3688
 5959SOL    HW122562   9.977   5.549   5.792 -0.7564  2.2405  1.7143
 5959SOL    HW222563   9.982   5.411   5.855 -0.5007  0.4479 -1.9788
 5960SOL     OW22564   5.724   3.178   7.389  0.2412 -0.3985 -0.1555
 5960SOL    HW122565   5.693   3.107   7.446 -0.3541 -0.3960 -0.4755
 5960SOL    HW222566   5.654   3.243   7.392 -0.6511 -1.1821 -2.3212
 5961SOL     OW22567   1.636  10.402   4.124 -0.4973  0.1884  0.0327
 5961SOL    HW122568   1.651  10.326   4.180 -1.0419  0.5455  0.6783
 5961SOL    HW222569   1.577  10.369   4.056 -1.1688  0.1496  0.6165
 5962SOL     OW22570   7.587   4.563  10.335  0.3891 -0.2659  0.1518
 5962SOL    HW122571   7.545   4.483  10.367  2.6612 -1.1312  1.2242
 5962SOL    HW222572   7.556   4.631  10.395 -0.4486 -0.6064  0.1278
 5963SOL     OW22573   3.141   0.418   9.316  0.1631  0.2693  0.3748
 5963SOL    HW122574   3.136   0.513   9.330  0.3933  0.4911 -0.8680
 5963SOL    HW222575   3.050   0.391   9.303  0.2332  0.7142 -1.3757
 5964SOL     OW22576   4.571   2.988   8.979  0.0335  0.7082 -0.5131
 5964SOL    HW122577   4.542   3.066   9.026 -2.9894  0.3362 -1.5888
 5964SOL    HW222578   4.592   3.019   8.891 -0.5240  0.4150 -0.7501
 5965SOL     OW22579   8.190   5.393   0.809 -0.1089  0.1548  0.3162
 5965SOL    HW122580   8.179   5.405   0.715 -1.2519  1.0884  0.5554
 5965SOL    HW222581   8.231   5.307   0.817  1.7405  0.8488 -1.1104
 5966SOL     OW22582   4.641   3.232   6.467 -0.7190 -0.5957 -0.6937
 5966SOL    HW122583   4.643   3.323   6.497 -0.2823 -0.6142 -0.6599
 5966SOL    HW222584   4.728   3.217   6.428 -0.7432 -1.0348 -0.5878
 5967SOL     OW22585   8.246   9.708  11.107 -0.4025  0.1607 -0.2073
 5967SOL    HW122586   8.242   9.711  11.012 -0.6730 -0.7925 -0.2408
 5967SOL    HW222587   8.339   9.703  11.128 -0.3931 -1.1529 -0.4982
 5968SOL     OW22588   3.553   6.671   8.645 -0.1938 -0.4615  0.3817
 5968SOL    HW122589   3.536   6.597   8.704 -1.6292 -1.8702 -1.6439
 5968SOL    HW222590   3.466   6.705   8.624  0.4310  1.6859  1.0322
 5969SOL     OW22591   3.069   9.905   9.069  0.6249  0.2183  0.9315
 5969SOL    HW122592   3.018   9.896   8.989  0.9554 -1.4586  0.8593
 5969SOL    HW222593   3.079   9.999   9.082 -0.2965  0.5247 -0.4348
 5970SOL     OW22594   4.108   3.655   5.839 -0.2668  0.3306  0.9264
 5970SOL    HW122595   4.024   3.665   5.793  1.1757  1.8852 -1.6177
 5970SOL    HW222596   4.117   3.736   5.889 -0.5240 -0.0929  1.6688
 5971SOL     OW22597   7.074   1.329   8.903 -0.3603 -0.3548  0.3202
 5971SOL    HW122598   7.044   1.296   8.818 -0.8905 -4.1059  1.7804
 5971SOL    HW222599   7.002   1.385   8.933 -0.5519  0.3226 -1.2734
 5972SOL     OW22600   5.245   3.454   3.736  0.1092  0.2885  0.0442
 5972SOL    HW122601   5.270   3.543   3.764 -0.3952  0.3096  0.4540
 5972SOL    HW222602   5.161   3.438   3.780  1.1882 -1.2054  1.7015
 5973SOL     OW22603   2.230   8.042   2.771  0.1777 -0.1012 -0.2587
 5973SOL    HW122604   2.194   8.001   2.692 -0.2768 -0.1526 -0.0299
 5973SOL    HW222605   2.324   8.042   2.758  0.0639  0.6987 -1.2117
 5974SOL     OW22606   3.668  11.489   7.576 -0.0032 -0.0647  0.4049
 5974SOL    HW122607   3.704  11.553   7.638  1.5071  0.2697 -0.7496
 5974SOL    HW222608   3.677  11.531   7.490  0.5656 -1.6196 -0.3267
 5975SOL     OW22609   8.445   5.440   3.954  0.2041 -0.1427  0.0739
 5975SOL    HW122610   8.440   5.445   3.859 -2.1015 -0.2752  0.1488
 5975SOL    HW222611   8.468   5.528   3.982 -2.1747  0.7328 -0.4983
 5976SOL     OW22612   6.203   6.762   1.612 -0.2760 -0.2010  0.3984
 5976SOL    HW122613   6.186   6.811   1.532  0.1003 -1.1599 -0.2883
 5976SOL    HW222614   6.292   6.728   1.600 -1.2549 -2.7897 -0.1101
 5977SOL     OW22615   7.399   5.319   4.184  0.4143  0.9467  0.1658
 5977SOL    HW122616   7.360   5.273   4.109  0.2993 -0.7176  1.1957
 5977SOL    HW222617   7.340   5.392   4.200 -1.5943 -0.6904  0.7759
 5978SOL     OW22618   4.686  10.152   1.190  0.0103 -0.1259  0.5760
 5978SOL    HW122619   4.634  10.083   1.149 -1.9968  1.0137  1.0955
 5978SOL    HW222620   4.667  10.146   1.283 -0.7723  1.5251  0.5653
 5979SOL     OW22621   7.602   0.896   7.007  0.3299 -0.1916 -0.1061
 5979SOL    HW122622   7.696   0.884   7.021  0.0532 -1.9551  0.5027
 5979SOL    HW222623   7.583   0.847   6.927  0.3635  2.5833 -1.9796
 5980SOL     OW22624   2.646   7.227   7.349 -0.2122  0.8080 -0.0224
 5980SOL    HW122625   2.588   7.151   7.339  0.1890 -0.0240  3.0421
 5980SOL    HW222626   2.732   7.196   7.319 -0.7558  1.2805 -2.2403
 5981SOL     OW22627   9.498   9.352   5.434  0.2323 -0.4814  0.0833
 5981SOL    HW122628   9.560   9.281   5.419 -1.1940 -1.9684  0.9414
 5981SOL    HW222629   9.440   9.320   5.502 -2.4796  0.1828 -1.7339
 5982SOL     OW22630   9.801   5.801   9.402 -0.5875 -0.7390 -0.1405
 5982SOL    HW122631   9.880   5.856   9.399 -1.5963  0.7405 -0.9972
 5982SOL    HW222632   9.792   5.767   9.314 -0.9334 -0.8534 -0.0619
 5983SOL     OW22633   3.225   8.159   0.059 -0.3716 -0.1217 -0.5173
 5983SOL    HW122634   3.137   8.187   0.085 -0.6996 -0.0310 -1.6617
 5983SOL    HW222635   3.261   8.236   0.014 -0.3633 -0.7218 -1.5596
 5984SOL     OW22636   0.627   9.013   7.909  0.0743  0.5744  0.0843
 5984SOL    HW122637   0.701   8.957   7.935 -1.7557 -1.7610  0.5846
 5984SOL    HW222638   0.572   8.956   7.855 -1.5798  2.1015  0.0799
 5985SOL     OW22639  11.568   9.948   3.649 -0.0608 -0.2189  0.5056
 5985SOL    HW122640  11.630   9.993   3.592 -1.1092  1.0740  0.3387
 5985SOL    HW222641  11.622   9.916   3.722  1.5798 -3.1436 -1.7239
 5986SOL     OW22642   9.070   5.222   9.101 -0.1547  0.0191 -0.1687
 5986SOL    HW122643   9.020   5.268   9.169  0.1967  0.4157 -0.1774
 5986SOL    HW222644   9.137   5.173   9.149  1.1708  1.6138 -0.3062
 5987SOL     OW22645   8.898   5.243   5.905 -1.1477  0.0384 -0.2238
 5987SOL    HW122646   8.837   5.312   5.934 -1.6632 -1.2665  2.1125
 5987SOL    HW222647   8.967   5.243   5.971 -1.0440 -1.5012 -0.2828
 5988SOL     OW22648   2.817   9.908  10.574  0.2583  0.7282 -0.0849
 5988SOL    HW122649   2.775   9.973  10.630 -2.2017 -0.4776 -0.3914
 5988SOL    HW222650   2.772   9.915  10.490 -0.1283 -1.3398 -0.1097
 5989SOL     OW22651   5.720   9.491   9.555 -0.2525  0.2752  0.0666
 5989SOL    HW122652   5.656   9.461   9.619  0.8139 -1.1832  0.5137
 5989SOL    HW222653   5.716   9.587   9.559 -0.9151  0.2024  1.5799
 5990SOL     OW22654   0.614   4.372   3.217  0.0802 -0.3221 -0.6086
 5990SOL    HW122655   0.602   4.283   3.185 -2.3523 -0.5195  0.6181
 5990SOL    HW222656   0.562   4.376   3.297  0.5095  2.0733 -0.3764
 5991SOL     OW22657   8.002  10.465  10.841  0.3805 -0.0276 -0.3837
 5991SOL    HW122658   7.944  10.403  10.885 -1.3086  1.7767  0.0686
 5991SOL    HW222659   7.953  10.493  10.763  1.0084  0.8652 -0.4721
 5992SOL     OW22660  11.870   7.214  10.921  0.3745 -0.1273  0.3148
 5992SOL    HW122661  11.956   7.202  10.962 -0.0219 -1.1558  0.8911
 5992SOL    HW222662  11.869   7.306  10.895  1.0416  0.3222  1.7320
 5993SOL     OW22663   7.696   3.140   5.875  0.1731 -0.2573 -0.4511
 5993SOL    HW122664   7.765   3.073   5.873  0.4993  0.0460  0.4105
 5993SOL    HW222665   7.627   3.102   5.930  0.8137  0.5259  0.9448
 5994SOL     OW22666  10.634   1.461   0.313  0.5565  0.1353  0.1051
 5994SOL    HW122667  10.645   1.367   0.327  1.5417  0.4514  1.5799
 5994SOL    HW222668  10.540   1.472   0.299  0.7077 -1.3820 -2.9561
 5995SOL     OW22669   7.267   7.683   5.305 -0.2441  0.3776 -0.2197
 5995SOL    HW122670   7.318   7.724   5.235  0.0287  2.2367  1.0043
 5995SOL    HW222671   7.181   7.725   5.301 -1.8173 -2.6460 -2.1850
 5996SOL     OW22672   3.537   7.087   5.212 -0.3256  0.1407 -0.1512
 5996SOL    HW122673   3.496   7.172   5.199 -2.3062 -0.4432  1.7002
 5996SOL    HW222674   3.490   7.028   5.153  0.6260  0.1700 -0.9746
 5997SOL     OW22675   2.496   3.233   5.285  0.4560 -0.1261 -0.6127
 5997SOL    HW122676   2.453   3.148   5.298  1.3917 -1.1308 -3.2060
 5997SOL    HW222677   2.563   3.237   5.353  0.1319 -1.2877 -0.1977
 5998SOL     OW22678   2.599   3.527   2.638  0.6791  0.0748 -0.3703
 5998SOL    HW122679   2.649   3.599   2.600 -0.6350 -0.3920 -3.2488
 5998SOL    HW222680   2.508   3.554   2.629  0.2392 -1.1229  0.3047
 5999SOL     OW22681   5.867   8.639  10.835 -0.1323  0.0554 -0.0287
 5999SOL    HW122682   5.818   8.720  10.845  0.3389  0.2142  1.1735
 5999SOL    HW222683   5.871   8.602  10.924  0.3952 -0.8391 -0.4105
 6000SOL     OW22684   5.143   2.881  10.559  0.1762 -0.2218 -0.0432
 6000SOL    HW122685   5.062   2.931  10.546  0.4541  0.0995 -0.5745
 6000SOL    HW222686   5.121   2.819  10.628 -0.5587 -0.2077 -0.2479
 6001SOL     OW22687   2.430   6.910   8.658  0.3996  0.7536 -0.6075
 6001SOL    HW122688   2.452   6.955   8.577  1.9810 -0.0373 -0.6372
 6001SOL    HW222689   2.426   6.980   8.724  3.7028  0.9645 -0.4661
 6002SOL     OW22690   5.399   9.401   1.120  0.4667  0.3618 -0.5870
 6002SOL    HW122691   5.425   9.457   1.193  0.1864  0.7251 -0.7626
 6002SOL    HW222692   5.377   9.462   1.050 -0.6578  0.0630 -0.5080
 6003SOL     OW22693   7.818   9.908  11.110  0.3094  0.2831  0.1424
 6003SOL    HW122694   7.846   9.820  11.134  1.1976  0.9419  1.6387
 6003SOL    HW222695   7.829   9.960  11.190 -1.7504  1.4071 -0.2339
 6004SOL     OW22696  10.522  10.122   4.837 -0.7905 -0.4754 -0.6813
 6004SOL    HW122697  10.488  10.039   4.804  0.7946 -1.0532 -0.9757
 6004SOL    HW222698  10.609  10.129   4.797 -0.0499  0.3010  0.9895
 6005SOL     OW22699   4.063   9.836   3.170  0.0424 -0.0063 -0.1319
 6005SOL    HW122700   4.105   9.787   3.240 -0.6898  0.0569  0.3644
 6005SOL    HW222701   4.097   9.925   3.178  0.7559 -0.2328 -0.5263
 6006SOL     OW22702   7.720   4.679  11.643 -0.7663  0.1089  0.1907
 6006SOL    HW122703   7.709   4.704  11.735 -0.7206 -1.8027  0.7659
 6006SOL    HW222704   7.646   4.620  11.625  1.1936 -2.5527  0.2039
 6007SOL     OW22705   1.920   2.870   7.247  0.2222  0.0936  0.6948
 6007SOL    HW122706   1.845   2.919   7.281 -1.1615 -2.1568  1.1420
 6007SOL    HW222707   1.886   2.824   7.171  1.1487 -0.9711  0.8972
 6008SOL     OW22708   2.042   0.286   5.806  0.1304 -0.4708 -0.0333
 6008SOL    HW122709   2.016   0.199   5.836 -3.0952  0.2702 -0.3236
 6008SOL    HW222710   2.126   0.302   5.849 -0.6519 -2.5065  2.5075
 6009SOL     OW22711   1.299   1.784   1.948  0.4040  0.2366  0.1987
 6009SOL    HW122712   1.311   1.873   1.982  1.4751  0.0775  0.2686
 6009SOL    HW222713   1.281   1.796   1.855  0.5304  0.5295  0.2098
 6010SOL     OW22714   8.776   7.638  10.019  0.1945  0.2589 -0.1415
 6010SOL    HW122715   8.870   7.641  10.036  0.2611  0.1574 -0.4869
 6010SOL    HW222716   8.762   7.704   9.951 -0.0016  0.3485 -0.0152
 6011SOL     OW22717   5.600  11.794   3.362  0.8411  0.1274  0.0424
 6011SOL    HW122718   5.536  11.865   3.365  0.9905  0.2392  0.5719
 6011SOL    HW222719   5.604  11.770   3.269  2.0714  2.0023 -0.4574
 6012SOL     OW22720   3.988   9.889   8.517  0.2880 -0.3176 -0.1785
 6012SOL    HW122721   3.945   9.809   8.487 -1.3994  0.3890  0.2139
 6012SOL    HW222722   3.925   9.959   8.499  0.6343  0.5976  1.7748
 6013SOL     OW22723   6.299   2.134  11.733 -0.4933 -0.0410  0.9801
 6013SOL    HW122724   6.239   2.067  11.701  0.3883 -0.2427 -0.3048
 6013SOL    HW222725   6.291   2.206  11.671  2.6160 -1.1814 -0.9955
 6014SOL     OW22726   0.868   1.122  11.910 -0.6693 -0.5670 -0.1760
 6014SOL    HW122727   0.869   1.187  11.839  0.8273  0.2232  0.5468
 6014SOL    HW222728   0.826   1.045  11.870 -0.8919  0.2417 -1.5774
 6015SOL     OW22729   9.269   9.519   3.569  0.2086 -0.7486 -0.4510
 6015SOL    HW122730   9.208   9.589   3.591  0.3673 -0.7348 -0.0391
 6015SOL    HW222731   9.252   9.499   3.477  0.4951  0.1614 -0.7096
 6016SOL     OW22732   9.780   2.505   6.653  0.1097 -0.1931  0.6902
 6016SOL    HW122733   9.709   2.492   6.591  0.1570  1.7365  0.1589
 6016SOL    HW222734   9.743   2.478   6.737 -0.5812 -1.0701  0.1264
 6017SOL     OW22735  11.690   4.706  10.531  0.1519  0.0706 -0.2258
 6017SOL    HW122736  11.716   4.614  10.530  0.8154  0.2502  0.1982
 6017SOL    HW222737  11.768   4.754  10.503  0.5761  0.6689  1.8432
 6018SOL     OW22738   1.030   5.518   8.376 -0.1081  0.6411 -0.2386
 6018SOL    HW122739   1.125   5.505   8.373 -0.2196 -0.1440 -0.7885
 6018SOL    HW222740   1.011   5.531   8.469  0.4852  0.3204 -0.0643
 6019SOL     OW22741   0.800   5.272   1.612  0.4511 -0.0699 -0.2560
 6019SOL    HW122742   0.864   5.326   1.566  1.0887  0.3387  1.0595
 6019SOL    HW222743   0.749   5.333   1.664  0.6029 -0.6271  0.5758
 6020SOL     OW22744   8.673   2.544   9.229 -0.1454 -0.7715 -0.1051
 6020SOL    HW122745   8.620   2.623   9.243 -2.5421 -2.1205 -1.1062
 6020SOL    HW222746   8.620   2.489   9.172  2.3215 -2.3111 -1.0529
 6021SOL     OW22747  11.884   2.152   7.238  0.4992 -0.2810 -0.3252
 6021SOL    HW122748  11.937   2.129   7.314 -0.3192 -1.9879 -0.2242
 6021SOL    HW222749  11.800   2.108   7.252  0.4460 -0.9339 -2.3543
 6022SOL     OW22750  10.114   8.436   0.918 -0.4278 -0.5904 -0.5496
 6022SOL    HW122751  10.045   8.499   0.935  1.7956  1.7034  0.6549
 6022SOL    HW222752  10.095   8.362   0.976 -1.7586  0.0506 -0.1502
 6023SOL     OW22753   5.763   2.546   6.174 -0.4170 -0.4491  0.0978
 6023SOL    HW122754   5.758   2.569   6.081  1.1854  1.2841  0.3732
 6023SOL    HW222755   5.672   2.528   6.199 -0.8595 -1.1635 -1.8266
 6024SOL     OW22756  10.247   2.504   8.922 -0.3286 -0.2298  0.8038
 6024SOL    HW122757  10.247   2.443   8.849 -0.2233 -1.8944  2.1276
 6024SOL    HW222758  10.259   2.590   8.882 -1.9011 -0.8854 -1.2489
 6025SOL     OW22759   8.843   0.205   5.041 -0.5596  0.1777 -0.4903
 6025SOL    HW122760   8.811   0.196   5.131 -0.3956 -1.1119 -0.5391
 6025SOL    HW222761   8.867   0.297   5.033 -1.6819  0.5779  0.4115
 6026SOL     OW22762   0.527   7.943  10.893 -0.2679 -0.1018  0.1655
 6026SOL    HW122763   0.478   7.877  10.941 -0.3987 -0.1140  0.0140
 6026SOL    HW222764   0.523   7.915  10.801  0.2873 -0.2796  0.1862
 6027SOL     OW22765   1.573   4.767   2.331 -0.3319  0.6477 -0.3464
 6027SOL    HW122766   1.583   4.680   2.292 -0.3044  0.8864 -0.8946
 6027SOL    HW222767   1.498   4.805   2.284 -1.4526  0.2865  1.0785
 6028SOL     OW22768  10.561   4.921   2.736 -0.6246  0.3735 -0.0017
 6028SOL    HW122769  10.485   4.913   2.794 -0.1034  0.3825  0.6951
 6028SOL    HW222770  10.624   4.973   2.786  0.2415 -0.4900 -0.1569
 6029SOL     OW22771   8.982   2.180   8.843  0.6497 -0.1568  0.0214
 6029SOL    HW122772   9.007   2.118   8.775  1.4116  0.7570 -0.5566
 6029SOL    HW222773   8.889   2.163   8.859  0.9202 -1.6610  0.1292
 6030SOL     OW22774   1.007  10.418  11.574  0.3155  0.3535 -0.5358
 6030SOL    HW122775   0.913  10.417  11.555 -0.3619 -2.2129  2.2529
 6030SOL    HW222776   1.017  10.489  11.638 -0.0187 -0.2131  0.1641
 6031SOL     OW22777   4.141   8.797  11.187 -0.5590  0.4075 -0.0070
 6031SOL    HW122778   4.072   8.833  11.243 -1.4355  1.3628 -1.6018
 6031SOL    HW222779   4.144   8.857  11.112 -0.0713 -1.3036 -1.4186
 6032SOL     OW22780  10.021   3.588   0.425 -0.3790 -0.5691 -0.0265
 6032SOL    HW122781   9.955   3.519   0.435 -0.0353 -0.9969 -0.6068
 6032SOL    HW222782  10.090   3.547   0.373 -0.7278  0.6026 -1.4646
 6033SOL     OW22783   4.022   8.050  10.562  0.0047 -0.2411  0.4630
 6033SOL    HW122784   4.096   8.038  10.503 -0.0724  1.1002  0.0538
 6033SOL    HW222785   4.032   8.140  10.595 -2.1409  0.4653 -0.6500
 6034SOL     OW22786   4.713   1.378   1.743 -0.6175 -0.3720 -0.3595
 6034SOL    HW122787   4.783   1.387   1.678 -0.8927  0.2214 -0.5890
 6034SOL    HW222788   4.690   1.469   1.765 -2.5102 -0.4981 -1.6035
 6035SOL     OW22789  10.911   3.278   1.626 -0.0678  0.4019 -0.0011
 6035SOL    HW122790  10.960   3.221   1.566  0.6549  1.4527 -0.4374
 6035SOL    HW222791  10.826   3.290   1.583 -0.2979 -0.4968  0.1911
 6036SOL     OW22792   7.402   7.855   7.240 -0.1403 -0.0644 -0.2807
 6036SOL    HW122793   7.447   7.926   7.194 -1.3822 -1.4725 -4.1384
 6036SOL    HW222794   7.473   7.803   7.279  0.9118  1.9937  0.7118
 6037SOL     OW22795   0.383  10.438   9.208  0.1564 -0.3625 -0.5032
 6037SOL    HW122796   0.449  10.397   9.151 -0.3939 -1.2990 -0.4898
 6037SOL    HW222797   0.307  10.380   9.202 -1.1117  1.2995 -1.4508
 6038SOL     OW22798   1.190   0.179   8.934 -0.1449 -0.2850 -0.2003
 6038SOL    HW122799   1.179   0.242   8.863 -1.6081 -0.4107 -0.1235
 6038SOL    HW222800   1.149   0.099   8.902  0.7154 -0.8784  0.1313
 6039SOL     OW22801   1.272   9.007   8.610 -0.4995 -0.3367 -0.2712
 6039SOL    HW122802   1.317   9.068   8.669  0.5277 -1.1061 -0.2236
 6039SOL    HW222803   1.249   9.059   8.534 -2.7571  0.9401  1.1670
 6040SOL     OW22804  10.015   8.748   7.426  0.3787 -0.3489  0.3478
 6040SOL    HW122805  10.000   8.812   7.357 -0.8614  1.8508  2.5156
 6040SOL    HW222806   9.928   8.714   7.447  0.8266 -1.5177  0.3871
 6041SOL     OW22807   3.755   9.123   9.387  0.0646 -0.2669 -0.1153
 6041SOL    HW122808   3.753   9.202   9.334  0.5470  0.0909  0.3894
 6041SOL    HW222809   3.673   9.127   9.437 -0.1857 -0.3860 -0.5123
 6042SOL     OW22810   0.946   6.204  11.728 -0.1252  1.0382  0.1131
 6042SOL    HW122811   0.981   6.116  11.721 -1.5735  0.1344  2.7834
 6042SOL    HW222812   0.910   6.223  11.641  2.7458  0.2450 -1.3566
 6043SOL     OW22813   0.760   7.591   4.478  0.3348  0.0136 -0.1804
 6043SOL    HW122814   0.693   7.612   4.413  0.4322  2.5689  0.4639
 6043SOL    HW222815   0.807   7.673   4.492  0.4316 -0.4590  2.9916
 6044SOL     OW22816   7.408   0.476   5.330  0.5080  0.3090  0.1114
 6044SOL    HW122817   7.418   0.571   5.333 -1.1341  0.5104  0.2542
 6044SOL    HW222818   7.373   0.452   5.416  2.2999 -0.6515  0.6244
 6045SOL     OW22819   7.939   2.323   5.399 -0.4631  0.2808 -0.1289
 6045SOL    HW122820   7.894   2.382   5.460 -0.0086  1.0734 -0.5498
 6045SOL    HW222821   7.902   2.344   5.313  0.5351  0.8049 -0.4548
 6046SOL     OW22822   7.978   3.908   5.272  0.2837  0.0141  0.4469
 6046SOL    HW122823   8.018   3.845   5.332  1.0997 -0.4973 -0.6107
 6046SOL    HW222824   7.911   3.951   5.325  0.1540 -1.2693  1.3782
 6047SOL     OW22825   1.908  11.517   8.462  0.2783  0.5251 -0.2184
 6047SOL    HW122826   1.841  11.489   8.399  0.0498  0.6527 -0.0385
 6047SOL    HW222827   1.900  11.612   8.464  0.2775  0.5208  0.0078
 6048SOL     OW22828   0.466   4.552   9.789  0.0696  0.4869  0.3504
 6048SOL    HW122829   0.504   4.640   9.789  1.4653 -0.0399  2.4259
 6048SOL    HW222830   0.493   4.515   9.705  2.3559  0.9143  0.8356
 6049SOL     OW22831   2.375   6.584   1.454 -0.2966 -0.2960  0.9145
 6049SOL    HW122832   2.360   6.494   1.425 -1.7673  0.0285  0.5855
 6049SOL    HW222833   2.466   6.602   1.430 -0.4633 -1.1501 -0.5155
 6050SOL     OW22834   4.814   4.909   1.923 -0.3076 -0.2784 -0.0549
 6050SOL    HW122835   4.761   4.854   1.865  1.1853 -0.2716 -1.4876
 6050SOL    HW222836   4.787   4.998   1.901 -0.1087 -0.2989 -0.3995
 6051SOL     OW22837   6.695   6.182  11.825  0.1514 -0.4365  0.0333
 6051SOL    HW122838   6.712   6.138  11.742 -0.1042 -1.8525  0.6993
 6051SOL    HW222839   6.609   6.222  11.814  1.2191  1.6931 -1.2760
 6052SOL     OW22840  11.587   1.661   6.723 -0.3176  0.2674  0.0475
 6052SOL    HW122841  11.493   1.654   6.712 -0.2333 -0.3704 -0.2835
 6052SOL    HW222842  11.623   1.659   6.634  0.1232 -1.3146  0.2402
 6053SOL     OW22843   1.138   2.696   6.646  0.5215  0.2533 -0.6885
 6053SOL    HW122844   1.089   2.704   6.729  0.6781 -1.4572 -0.3780
 6053SOL    HW222845   1.073   2.663   6.584  0.3347  1.8006 -1.3561
 6054SOL     OW22846   4.523   0.768   0.199 -0.8918  1.1917 -0.2924
 6054SOL    HW122847   4.439   0.770   0.153 -1.3498 -0.3181  0.4191
 6054SOL    HW222848   4.570   0.694   0.160 -0.2300  1.4919 -0.0889
 6055SOL     OW22849   3.391  10.593   6.177  0.2584  0.1582 -0.2639
 6055SOL    HW122850   3.456  10.533   6.215  0.1490  0.3318  0.2053
 6055SOL    HW222851   3.338  10.537   6.119  1.4753  0.2149 -1.4815
 6056SOL     OW22852   0.275  11.522  11.325  0.0301 -0.3825 -0.7249
 6056SOL    HW122853   0.302  11.443  11.372  1.1732  0.2973 -0.1909
 6056SOL    HW222854   0.189  11.543  11.360  0.4792 -0.3935  0.4224
 6057SOL     OW22855  11.521   7.874   4.458 -0.4721 -0.4668 -0.3511
 6057SOL    HW122856  11.592   7.810   4.459 -0.2975 -0.2748  0.9674
 6057SOL    HW222857  11.452   7.834   4.511 -0.1866  0.6064  0.8702
 6058SOL     OW22858   5.561   4.439   1.281  0.4487  0.5547  0.1173
 6058SOL    HW122859   5.502   4.462   1.353 -0.2879  1.7847 -0.8414
 6058SOL    HW222860   5.599   4.355   1.307 -3.4626 -1.5417 -0.2488
 6059SOL     OW22861  10.125  11.799   9.299 -0.3838  0.2395 -0.2399
 6059SOL    HW122862  10.046  11.853   9.299 -0.3135  0.3497 -0.6619
 6059SOL    HW222863  10.193  11.856   9.261  0.3952  0.8508  1.9293
 6060SOL     OW22864   1.076   2.919   5.669 -0.3394  0.0630  1.0135
 6060SOL    HW122865   1.077   2.975   5.591 -0.2004 -0.5021  0.5955
 6060SOL    HW222866   1.071   2.979   5.743 -2.0504  0.5922  0.5237
 6061SOL     OW22867   3.755   3.549   0.064  0.1261 -0.5230  0.2503
 6061SOL    HW122868   3.698   3.488   0.110 -1.0169  1.5403  1.7333
 6061SOL    HW222869   3.810   3.588   0.132 -0.4650  1.4193 -0.3130
 6062SOL     OW22870   2.320   6.352   4.069 -0.1961  0.0007 -0.1935
 6062SOL    HW122871   2.322   6.277   4.129 -0.8841 -0.7226 -1.0336
 6062SOL    HW222872   2.240   6.339   4.018 -0.1906  1.1834 -0.5302
 6063SOL     OW22873  10.511   3.206   9.180  0.2489  0.4185  0.1050
 6063SOL    HW122874  10.537   3.296   9.199 -0.3393  0.6344 -0.0748
 6063SOL    HW222875  10.540   3.155   9.256  0.2951  0.8142  0.3529
 6064SOL     OW22876   7.650   8.527  10.387 -0.7333  0.0942 -0.3350
 6064SOL    HW122877   7.709   8.531  10.311 -2.3510  0.3050 -1.6223
 6064SOL    HW222878   7.649   8.617  10.421 -1.4504  0.4322 -1.2221
 6065SOL     OW22879   4.007   9.678   8.224  0.1253 -0.0992 -0.1121
 6065SOL    HW122880   4.078   9.639   8.276 -1.8221 -0.0756  2.8305
 6065SOL    HW222881   3.991   9.615   8.154  1.7298 -1.0815  0.3525
 6066SOL     OW22882  11.182   8.314   3.875  0.1378 -0.5764  0.4792
 6066SOL    HW122883  11.203   8.408   3.882  0.8135 -0.6897  0.0934
 6066SOL    HW222884  11.148   8.291   3.961 -0.3949  0.1098  0.4652
 6067SOL     OW22885  11.248  11.453   2.265 -0.2151 -0.1948  0.4893
 6067SOL    HW122886  11.173  11.509   2.250  0.9149  0.8792 -1.5428
 6067SOL    HW222887  11.219  11.366   2.237 -0.9686  0.0267  0.5753
 6068SOL     OW22888   4.610   9.746  11.667  0.2375 -0.3372 -0.0077
 6068SOL    HW122889   4.657   9.795  11.599 -0.0293  0.7014  0.5270
 6068SOL    HW222890   4.517   9.756  11.644  0.1753 -0.4885  0.1746
 6069SOL     OW22891  10.735   9.444   8.834  0.3510  0.5565 -0.3557
 6069SOL    HW122892  10.819   9.433   8.790 -0.7681 -1.1733 -2.2086
 6069SOL    HW222893  10.741   9.387   8.911  2.1993  3.3542  1.7532
 6070SOL     OW22894   5.630   1.303   1.428  0.1300 -0.0713 -0.3606
 6070SOL    HW122895   5.667   1.354   1.356  2.1408 -0.1653  0.5552
 6070SOL    HW222896   5.670   1.216   1.419  1.1181  0.1681  1.3631
 6071SOL     OW22897   6.106   5.638   9.123  0.1533  0.3390 -0.3446
 6071SOL    HW122898   6.121   5.728   9.152 -2.4183  0.4753  0.8723
 6071SOL    HW222899   6.185   5.614   9.076  1.3791  2.8377  0.2855
 6072SOL     OW22900   4.274   7.799   0.725 -0.0776  0.3113  0.2414
 6072SOL    HW122901   4.365   7.825   0.708  0.1090 -0.0254  0.6807
 6072SOL    HW222902   4.222   7.850   0.663  0.3466  1.0557  0.4908
 6073SOL     OW22903   9.184   9.115   5.766 -0.2479  0.6334  0.8962
 6073SOL    HW122904   9.132   9.164   5.830  0.8509  1.3655  1.2565
 6073SOL    HW222905   9.208   9.035   5.811  0.0993  0.9237  1.2362
 6074SOL     OW22906  11.565   0.472   5.132 -0.4272  0.5771  0.4062
 6074SOL    HW122907  11.560   0.561   5.099  0.5973  0.8239  0.8722
 6074SOL    HW222908  11.563   0.482   5.227  0.5889  0.1841  0.4812
 6075SOL     OW22909   5.727  10.017   4.918  0.1638 -0.1897 -0.1617
 6075SOL    HW122910   5.679   9.946   4.876 -0.3549 -1.2463  2.0864
 6075SOL    HW222911   5.688  10.097   4.884 -1.2784 -1.0164 -0.4969
 6076SOL     OW22912   5.094   8.410   5.221 -0.0184 -0.1170  0.3242
 6076SOL    HW122913   5.053   8.447   5.143 -0.1756  0.4543  0.6722
 6076SOL    HW222914   5.188   8.424   5.208 -0.1298  1.2881  0.8793
 6077SOL     OW22915   1.053   7.352   0.782 -0.4696  0.0701 -0.1310
 6077SOL    HW122916   1.095   7.346   0.868 -1.9298  0.6094  0.6491
 6077SOL    HW222917   1.124   7.378   0.723  0.6331 -0.6443  0.8394
 6078SOL     OW22918   5.887   5.806   2.371  0.1150  0.1871 -0.5145
 6078SOL    HW122919   5.864   5.876   2.310  0.4652  1.6434  0.9537
 6078SOL    HW222920   5.880   5.846   2.457  1.2833 -1.3169  0.3316
 6079SOL     OW22921   1.382   5.461   3.635  0.2293 -0.1386  0.1818
 6079SOL    HW122922   1.357   5.369   3.640 -0.7414  0.1670  1.3701
 6079SOL    HW222923   1.309   5.508   3.674  1.4439  1.0092  1.1853
 6080SOL     OW22924   5.319   2.346   2.214 -0.1223 -0.4555  0.1710
 6080SOL    HW122925   5.412   2.335   2.232 -0.0748 -0.5566 -0.1315
 6080SOL    HW222926   5.296   2.430   2.253 -0.5197 -1.6330  2.6680
 6081SOL     OW22927   8.054   7.921   0.639  0.0621 -0.4029 -0.1045
 6081SOL    HW122928   8.091   7.833   0.641 -1.6024 -1.1665 -1.1036
 6081SOL    HW222929   7.960   7.907   0.637 -0.2969  1.4592  1.3634
 6082SOL     OW22930   9.601  10.895   8.298 -0.1326 -0.1153  0.7845
 6082SOL    HW122931   9.641  10.951   8.365  0.4147  0.5247 -0.0477
 6082SOL    HW222932   9.554  10.956   8.241 -1.2498 -0.7317  1.0124
 6083SOL     OW22933   2.778   7.360   0.033  0.2480  0.2537 -0.3416
 6083SOL    HW122934   2.740   7.395   0.114  0.2413  1.4331 -0.8353
 6083SOL    HW222935   2.702   7.344  -0.023  0.2574 -0.5088 -0.1483
 6084SOL     OW22936  10.589   8.276   5.877 -0.4742 -0.0225 -0.2503
 6084SOL    HW122937  10.684   8.280   5.863 -0.4325  0.0811  0.0519
 6084SOL    HW222938  10.555   8.236   5.797 -0.0602 -1.0790  0.0850
 6085SOL     OW22939   5.314   2.629   9.027  0.1297  0.6420 -0.0966
 6085SOL    HW122940   5.260   2.647   8.950  0.0076 -0.6731 -0.3392
 6085SOL    HW222941   5.402   2.618   8.992 -0.0429 -0.6490 -0.1502
 6086SOL     OW22942  10.865   6.231   6.321 -0.2076  0.0556 -0.2892
 6086SOL    HW122943  10.909   6.146   6.326 -0.1064 -0.0025 -1.8784
 6086SOL    HW222944  10.936   6.295   6.326 -0.2150  0.0364  0.1038
 6087SOL     OW22945   6.062   5.450   0.979  0.3940 -0.0886  0.1593
 6087SOL    HW122946   6.035   5.441   1.070  1.5790 -0.0680  0.5293
 6087SOL    HW222947   6.031   5.536   0.953 -2.4572 -1.1789 -0.3791
 6088SOL     OW22948   7.543   8.441   0.843  0.4186  0.3448  0.6880
 6088SOL    HW122949   7.545   8.498   0.920 -0.4302 -0.4798  1.3429
 6088SOL    HW222950   7.592   8.363   0.869 -2.3390 -1.2507  1.5279
 6089SOL     OW22951   1.843   9.279   8.952  0.0278  0.1365 -0.7306
 6089SOL    HW122952   1.840   9.345   9.021 -2.1629 -0.1543 -0.4866
 6089SOL    HW222953   1.760   9.232   8.959 -0.0975 -0.1861 -3.2955
 6090SOL     OW22954   8.094   2.833   6.342 -0.4074  0.4595 -0.4030
 6090SOL    HW122955   8.181   2.847   6.305  0.6771 -2.7304  0.5942
 6090SOL    HW222956   8.094   2.883   6.424  0.6668  0.1696 -0.2110
 6091SOL     OW22957   2.540   2.479   0.579 -0.2375  0.4941 -0.0336
 6091SOL    HW122958   2.559   2.501   0.670 -0.3879 -0.0978  0.1426
 6091SOL    HW222959   2.507   2.390   0.582  0.7439  0.0845 -0.7825
 6092SOL     OW22960   1.502   6.619   8.972  0.5734 -0.5292  0.0081
 6092SOL    HW122961   1.556   6.646   8.897  0.0516  4.1014  1.0103
 6092SOL    HW222962   1.545   6.658   9.048 -0.8878 -2.0439  1.7067
 6093SOL     OW22963   9.886  10.804   0.156  0.2008 -0.3123  0.3017
 6093SOL    HW122964   9.802  10.837   0.125 -0.3082 -2.0333 -0.3040
 6093SOL    HW222965   9.899  10.845   0.241  0.4871  2.7446 -1.0838
 6094SOL     OW22966   4.503   3.449   9.222  0.2896  0.4259  0.4302
 6094SOL    HW122967   4.520   3.543   9.225 -0.3989  0.5705  0.1070
 6094SOL    HW222968   4.416   3.439   9.261 -0.0120  0.0295 -0.3161
 6095SOL     OW22969   9.727   8.935   2.687 -0.0296 -0.3587  0.4398
 6095SOL    HW122970   9.685   9.020   2.701 -0.3130 -0.6657  1.5520
 6095SOL    HW222971   9.750   8.935   2.595  1.8230  1.7969  0.8000
 6096SOL     OW22972   7.455   9.706   7.273  0.3971 -0.4716  0.3876
 6096SOL    HW122973   7.382   9.768   7.275  2.4426  2.0827  1.4156
 6096SOL    HW222974   7.521   9.745   7.331  1.7688 -3.7503  1.2351
 6097SOL     OW22975   9.784   1.511   7.712  0.5398  0.6702 -0.1029
 6097SOL    HW122976   9.751   1.581   7.769 -0.1274 -0.2888  0.7138
 6097SOL    HW222977   9.876   1.503   7.734  0.4535  0.8098  0.3141
 6098SOL     OW22978   4.981   6.453   4.791 -0.5447 -0.3448 -0.0809
 6098SOL    HW122979   4.929   6.495   4.723 -0.3172 -2.6376 -1.7752
 6098SOL    HW222980   5.069   6.447   4.754  0.1246  0.2774  1.3206
 6099SOL     OW22981   5.847   2.064   8.463  0.5402 -0.4040 -0.6947
 6099SOL    HW122982   5.818   2.131   8.525  0.0532 -0.7748 -0.5192
 6099SOL    HW222983   5.942   2.067   8.467  0.5237  0.3119 -0.7205
 6100SOL     OW22984   9.967   6.545   7.622 -0.3489 -0.1302  0.1872
 6100SOL    HW122985   9.892   6.539   7.563 -1.0093  0.2452  0.9639
 6100SOL    HW222986   9.935   6.594   7.697  0.8800  0.6489  0.2355
 6101SOL     OW22987   4.815   3.183   4.568 -0.1770  0.5060 -0.1744
 6101SOL    HW122988   4.785   3.096   4.541  1.6872 -0.7001  1.3341
 6101SOL    HW222989   4.907   3.170   4.590 -0.3538  2.3966  2.0588
 6102SOL     OW22990  10.933   6.717   3.935 -0.2847 -0.2627 -0.2436
 6102SOL    HW122991  10.924   6.622   3.938  0.0375 -0.3074  2.5745
 6102SOL    HW222992  11.027   6.733   3.932 -0.3442  0.0664 -3.6662
 6103SOL     OW22993  11.906  11.231   7.310  0.4438 -0.3437 -0.0682
 6103SOL    HW122994  11.979  11.253   7.252  1.4536  0.2019  1.3578
 6103SOL    HW222995  11.902  11.303   7.372  0.5176 -1.7126  1.5932
 6104SOL     OW22996   8.641   0.363   9.971  0.3765 -0.1026 -0.1510
 6104SOL    HW122997   8.618   0.340   9.881  0.1260  1.2849 -0.4731
 6104SOL    HW222998   8.560   0.400  10.007 -0.2812 -2.8846  1.4898
 6105SOL     OW22999  11.468   8.045   0.813 -0.1045  0.1100  0.5049
 6105SOL    HW123000  11.537   7.988   0.847 -0.2943 -0.5599 -0.2088
 6105SOL    HW223001  11.512   8.099   0.748 -0.6259 -1.8701 -1.6438
 6106SOL     OW23002  10.098  11.931   7.010  0.2748 -0.4480  0.2996
 6106SOL    HW123003  10.080  11.837   6.998  0.2307 -0.5167  0.8563
 6106SOL    HW223004  10.174  11.948   6.955 -1.9249  0.0401 -2.8160
 6107SOL     OW23005   3.549   8.325   5.130 -0.0744  0.1422  0.1240
 6107SOL    HW123006   3.497   8.383   5.073  0.2653  0.4771  0.1536
 6107SOL    HW223007   3.520   8.237   5.106 -1.2432  0.3482  0.6964
 6108SOL     OW23008   6.301   4.786   9.053 -0.1199 -0.0631 -1.1972
 6108SOL    HW123009   6.243   4.849   9.010 -0.8673  1.0636  1.3066
 6108SOL    HW223010   6.372   4.838   9.090  0.5221 -0.9883 -1.0783
 6109SOL     OW23011  11.355   0.339   6.975  0.1621 -0.2351 -0.0887
 6109SOL    HW123012  11.298   0.326   6.899 -1.7701 -0.9104  1.3997
 6109SOL    HW223013  11.381   0.250   7.001  0.7508 -0.0160  0.0955
 6110SOL     OW23014  11.135   6.558   5.099 -0.0128  0.6829 -0.4479
 6110SOL    HW123015  11.157   6.525   5.186  1.2728  0.3935 -0.8724
 6110SOL    HW223016  11.133   6.653   5.109  0.7683  0.6794 -0.2451
 6111SOL     OW23017   3.674   5.594   3.988  0.1856  0.1056  0.2043
 6111SOL    HW123018   3.678   5.591   4.084  1.7463  0.8863  0.1867
 6111SOL    HW223019   3.751   5.643   3.962 -0.9846  1.2154 -1.3979
 6112SOL     OW23020   9.864   5.961   7.731  0.3263 -0.2258  0.3270
 6112SOL    HW123021   9.799   5.955   7.661 -2.8544  1.9565  2.8142
 6112SOL    HW223022   9.885   5.870   7.752 -0.9373 -0.9793 -1.4385
 6113SOL     OW23023   0.241   6.681   1.788  0.5162 -0.7118 -0.1427
 6113SOL    HW123024   0.323   6.650   1.827  0.3048 -0.5077  0.4696
 6113SOL    HW223025   0.247   6.653   1.697  1.3283 -0.5818 -0.1419
 6114SOL     OW23026   9.379   6.978  11.843  0.1784  0.1510 -0.0939
 6114SOL    HW123027   9.363   6.905  11.902 -1.2801 -0.2825 -0.9821
 6114SOL    HW223028   9.295   7.024  11.838  0.5916  0.8419 -0.9325
 6115SOL     OW23029   6.047   7.700   1.969  0.0618  0.4509 -0.0653
 6115SOL    HW123030   6.096   7.770   1.925 -0.1780  0.8822  0.3401
 6115SOL    HW223031   6.072   7.708   2.061  0.4201 -0.3301 -0.0941
 6116SOL     OW23032   0.218   6.179   4.842 -0.6007 -0.0875 -0.3972
 6116SOL    HW123033   0.296   6.197   4.790  1.3576 -1.8030  1.7226
 6116SOL    HW223034   0.185   6.266   4.867  0.4059  0.6858 -1.6264
 6117SOL     OW23035   4.530   7.701   3.859  0.6687 -0.5083  0.4773
 6117SOL    HW123036   4.469   7.661   3.921  2.0765 -0.6296  1.8451
 6117SOL    HW223037   4.542   7.791   3.892 -0.4907  0.2786 -1.0979
 6118SOL     OW23038   2.397   3.186   4.348 -0.3821  0.0086  0.1054
 6118SOL    HW123039   2.373   3.138   4.269 -0.2911 -0.5161  0.3887
 6118SOL    HW223040   2.474   3.139   4.382 -0.1216  0.5253  0.2366
 6119SOL     OW23041   0.723   8.325  10.261  0.4969  0.9100 -0.2671
 6119SOL    HW123042   0.645   8.375  10.283 -1.0105 -0.4914 -2.0160
 6119SOL    HW223043   0.790   8.391  10.242 -0.8524  2.2225 -0.6759
 6120SOL     OW23044   5.805   0.381   8.402 -0.3613 -0.0180  0.2556
 6120SOL    HW123045   5.856   0.386   8.321 -0.9092 -0.7359 -0.1442
 6120SOL    HW223046   5.724   0.427   8.383 -0.6555 -0.5212  0.2580
 6121SOL     OW23047   0.712   3.916   0.859  0.2421  0.2804 -0.3172
 6121SOL    HW123048   0.797   3.873   0.861 -0.1461 -0.4617  0.5461
 6121SOL    HW223049   0.693   3.926   0.765  0.0162 -2.1256 -0.6042
 6122SOL     OW23050   5.723   7.550   1.354  1.0896  0.2139 -0.3493
 6122SOL    HW123051   5.741   7.633   1.309  1.0092 -0.2862 -1.3242
 6122SOL    HW223052   5.638   7.565   1.397  0.3132  0.1391 -1.8066
 6123SOL     OW23053   4.762  10.967  10.728 -0.5795  0.2350 -0.4981
 6123SOL    HW123054   4.747  10.874  10.743  0.3470  0.1940  0.3598
 6123SOL    HW223055   4.805  10.972  10.643  3.8055 -0.6969  1.3760
 6124SOL     OW23056   7.421   5.177   8.615 -0.4456 -0.0500 -0.4137
 6124SOL    HW123057   7.508   5.155   8.583 -0.2880 -0.5164  0.3200
 6124SOL    HW223058   7.371   5.096   8.608 -1.1362  0.4631 -1.7930
 6125SOL     OW23059   6.240   9.687  11.659  0.2153 -0.3807 -0.0688
 6125SOL    HW123060   6.270   9.598  11.681 -0.5973 -1.0584 -1.5599
 6125SOL    HW223061   6.250   9.693  11.564 -0.1086  0.9908 -0.0336
 6126SOL     OW23062   4.998   9.191   2.684 -0.2641 -0.4463 -0.3896
 6126SOL    HW123063   4.975   9.283   2.690  0.3216 -0.3190 -0.0461
 6126SOL    HW223064   5.093   9.189   2.698 -0.1317 -1.0067 -1.2630
 6127SOL     OW23065   0.639   5.911  10.358 -0.5223  0.1759  0.4421
 6127SOL    HW123066   0.657   5.880  10.269 -0.1622 -1.2221  0.9739
 6127SOL    HW223067   0.719   5.892  10.407 -1.2389 -0.4489  1.4040
 6128SOL     OW23068   6.551   0.333   5.803 -0.0357  0.0124  0.5299
 6128SOL    HW123069   6.484   0.401   5.806  0.9293  0.9508  0.9472
 6128SOL    HW223070   6.578   0.330   5.711  0.3413  0.6149  0.6184
 6129SOL     OW23071   0.856   7.000   1.277 -0.0185 -0.5138  0.1646
 6129SOL    HW123072   0.845   7.095   1.283  0.8493 -0.4674  1.2756
 6129SOL    HW223073   0.811   6.976   1.196 -1.2776  0.6761  0.4682
 6130SOL     OW23074   2.044   4.726   4.714  0.0308 -0.4539  0.4681
 6130SOL    HW123075   2.046   4.630   4.720 -1.6764 -0.5105  0.5964
 6130SOL    HW223076   1.977   4.753   4.776  0.6801  0.8761  0.6384
 6131SOL     OW23077   6.335   5.202   5.779  0.0132  0.2176  0.0497
 6131SOL    HW123078   6.325   5.109   5.801  0.6277  0.3435  0.9206
 6131SOL    HW223079   6.298   5.210   5.691  0.1474 -0.8891 -0.1238
 6132SOL     OW23080   1.388   9.449   4.526  0.1084  0.0444  0.0690
 6132SOL    HW123081   1.433   9.435   4.609 -3.1686 -0.2152  2.0091
 6132SOL    HW223082   1.418   9.378   4.469  2.0444 -0.0878  1.1924
 6133SOL     OW23083   0.972   0.896   5.114 -0.6851 -0.3077  0.1661
 6133SOL    HW123084   0.985   0.966   5.049 -3.0895 -1.5680 -1.8306
 6133SOL    HW223085   1.053   0.896   5.165  0.6657  1.8574 -1.7663
 6134SOL     OW23086   0.101   8.354   7.793  0.4282  0.1709  0.2866
 6134SOL    HW123087   0.034   8.366   7.860 -0.9954  0.3958 -1.1110
 6134SOL    HW223088   0.179   8.327   7.841  0.3808  3.2143  2.3610
 6135SOL     OW23089  11.259   2.902   9.430  0.1204  0.9321 -0.3449
 6135SOL    HW123090  11.185   2.865   9.382 -0.7173  2.2630 -0.1271
 6135SOL    HW223091  11.221   2.934   9.512  1.3081 -0.1521  0.6855
 6136SOL     OW23092  10.878  10.508   3.289 -0.7308  0.4896  0.3733
 6136SOL    HW123093  10.847  10.591   3.253  0.2611  0.1378 -1.3852
 6136SOL    HW223094  10.920  10.464   3.216  0.3536 -0.7985  1.7071
 6137SOL     OW23095   1.449   0.675   0.654 -0.1932  0.3736 -0.1339
 6137SOL    HW123096   1.482   0.743   0.596 -1.8137  1.2496 -0.0753
 6137SOL    HW223097   1.470   0.706   0.742 -1.4365  1.1188 -0.0771
 6138SOL     OW23098   0.450  11.065   0.459  0.0971 -0.2593 -0.1552
 6138SOL    HW123099   0.451  10.973   0.436 -2.2849 -0.7482  1.3628
 6138SOL    HW223100   0.418  11.109   0.380  2.8810 -0.4242 -1.4828
 6139SOL     OW23101   9.111   3.180   0.854 -0.0338  0.1293 -0.2024
 6139SOL    HW123102   9.054   3.161   0.780 -0.8949  2.2963 -0.1686
 6139SOL    HW223103   9.068   3.141   0.929 -0.4753  0.0944 -0.4739
 6140SOL     OW23104   1.765   7.794   6.597  0.3289  0.2174  0.0057
 6140SOL    HW123105   1.751   7.729   6.666  3.1315  0.3832  0.8508
 6140SOL    HW223106   1.680   7.836   6.586 -1.1071 -2.2821  0.7589
 6141SOL     OW23107  11.125   6.560   5.908  0.4421  0.7369 -0.3378
 6141SOL    HW123108  11.198   6.506   5.879 -0.5486 -2.5841  2.6373
 6141SOL    HW223109  11.048   6.522   5.865 -0.2474 -0.2386  1.6177
 6142SOL     OW23110   6.650   7.560   8.282 -0.3243  0.0875 -0.1779
 6142SOL    HW123111   6.674   7.653   8.286 -2.3610  0.6650  3.5895
 6142SOL    HW223112   6.733   7.514   8.272  0.9510  2.2757 -0.1819
 6143SOL     OW23113  10.765   7.723   9.486 -0.9251  0.1567 -0.4093
 6143SOL    HW123114  10.711   7.793   9.448 -1.6283  1.0506  2.0447
 6143SOL    HW223115  10.723   7.703   9.570  0.1531 -2.1677 -0.3368
 6144SOL     OW23116   9.561  10.764  11.427 -0.1741 -0.1309  0.2748
 6144SOL    HW123117   9.559  10.849  11.471 -0.5946 -0.1705  0.3332
 6144SOL    HW223118   9.653  10.738  11.429 -0.1636 -0.0581  0.9936
 6145SOL     OW23119   3.395   8.682   7.325 -0.1050  0.0864  0.1483
 6145SOL    HW123120   3.455   8.729   7.383 -0.7823  1.1176  0.0300
 6145SOL    HW223121   3.353   8.617   7.382 -1.2446  1.5102  1.0075
 6146SOL     OW23122   9.267   4.410   0.937  0.5669 -0.1928  0.3508
 6146SOL    HW123123   9.362   4.406   0.940  0.6319  1.0528  0.7152
 6146SOL    HW223124   9.238   4.375   1.021  0.6432 -1.5288 -0.1637
 6147SOL     OW23125   7.743   3.110   3.108  0.1774  0.3938 -0.7670
 6147SOL    HW123126   7.675   3.076   3.167 -0.5668  3.0141  0.0420
 6147SOL    HW223127   7.793   3.033   3.082 -1.6184 -1.3219  0.5445
 6148SOL     OW23128   1.730   9.506   3.495  0.0497  0.2916  0.9343
 6148SOL    HW123129   1.739   9.483   3.588 -0.3451  1.6005  1.3088
 6148SOL    HW223130   1.820   9.522   3.466  0.1239  0.4334  1.2397
 6149SOL     OW23131   9.821   7.752   9.695  0.5971  0.1715 -0.1506
 6149SOL    HW123132   9.824   7.672   9.642 -0.9858  0.0764 -0.1324
 6149SOL    HW223133   9.804   7.822   9.631 -0.3056  0.1883  0.1015
 6150SOL     OW23134   3.278   6.778   7.251  0.4509  0.1054  0.1805
 6150SOL    HW123135   3.337   6.780   7.176 -0.1974  0.2861 -0.3390
 6150SOL    HW223136   3.299   6.696   7.296  1.3997  0.3877  0.2620
 6151SOL     OW23137   0.492   1.852   7.220  0.0266 -0.4314 -0.2941
 6151SOL    HW123138   0.542   1.816   7.294  1.2292 -3.0836 -2.2399
 6151SOL    HW223139   0.556   1.904   7.171 -0.6312  0.8486  0.1430
 6152SOL     OW23140   4.377   8.760   3.623 -0.6088 -0.0415 -0.0825
 6152SOL    HW123141   4.352   8.691   3.686 -2.5292 -0.9166 -1.6748
 6152SOL    HW223142   4.352   8.842   3.666 -1.3052 -0.5855  0.5819
 6153SOL     OW23143   6.845  10.866   5.100  0.1854  0.0163  0.1760
 6153SOL    HW123144   6.810  10.783   5.068 -0.1114  0.2832 -0.2054
 6153SOL    HW223145   6.912  10.890   5.036  1.3429 -0.6635  1.0885
 6154SOL     OW23146  11.407  11.687   2.889 -0.0612 -0.0511 -0.2479
 6154SOL    HW123147  11.326  11.678   2.939 -0.6536 -1.3873 -1.3782
 6154SOL    HW223148  11.387  11.753   2.822 -1.2744 -2.4447 -2.3939
 6155SOL     OW23149   1.741  10.714   0.227 -0.0195  0.0628 -0.2159
 6155SOL    HW123150   1.823  10.732   0.182 -0.0996 -0.6557 -0.6555
 6155SOL    HW223151   1.738  10.619   0.235 -1.2256  0.0154 -1.0136
 6156SOL     OW23152   0.028  10.199   1.626 -0.5107 -0.3341  0.6541
 6156SOL    HW123153   0.005  10.254   1.700 -1.3366  0.7203 -0.3410
 6156SOL    HW223154   0.079  10.256   1.569  0.4195 -1.2343  0.5709
 6157SOL     OW23155   0.933   7.606   7.738 -0.2886 -0.0074 -0.0344
 6157SOL    HW123156   0.843   7.618   7.767 -0.1063  0.0923  0.5033
 6157SOL    HW223157   0.957   7.690   7.698  0.4900  1.0114  2.3749
 6158SOL     OW23158  11.331   8.243   6.577  0.3280 -0.3873 -0.7662
 6158SOL    HW123159  11.342   8.161   6.626  0.9851 -0.0885 -0.4108
 6158SOL    HW223160  11.239   8.265   6.590 -0.1007 -1.5485 -1.6307
 6159SOL     OW23161   2.484  11.037  11.789 -0.1223  0.0909 -0.0763
 6159SOL    HW123162   2.439  11.122  11.788  0.4620  0.4056  0.1858
 6159SOL    HW223163   2.483  11.010  11.881  0.5943  0.3029  0.0009
 6160SOL     OW23164   2.643  10.593   9.750  0.0585  0.0026 -0.2997
 6160SOL    HW123165   2.615  10.684   9.763  0.1711  0.1241 -0.8632
 6160SOL    HW223166   2.605  10.568   9.666 -1.3172 -1.0219  0.5893
 6161SOL     OW23167   0.011   1.553  11.921 -0.2586 -0.3349 -0.3184
 6161SOL    HW123168   0.075   1.487  11.947  0.4643 -0.4715 -2.2401
 6161SOL    HW223169  -0.040   1.511  11.851  0.4014  1.1701 -1.7863
 6162SOL     OW23170   4.295   1.880   8.643  0.5035 -0.3946  0.3134
 6162SOL    HW123171   4.236   1.925   8.704 -0.6505 -1.5585  0.1037
 6162SOL    HW223172   4.363   1.944   8.625 -0.5830  0.9438  0.7172
 6163SOL     OW23173   4.119   7.518   0.576  0.3218  0.3909 -0.1817
 6163SOL    HW123174   4.160   7.584   0.520 -0.5256 -0.0495 -1.3544
 6163SOL    HW223175   4.056   7.474   0.519  2.6712 -3.2964 -0.2683
 6164SOL     OW23176   7.255   4.084  10.409  0.0308 -0.2124 -0.3329
 6164SOL    HW123177   7.261   4.067  10.503 -2.3225  0.8654  0.0825
 6164SOL    HW223178   7.280   4.001  10.367  1.2502 -0.6605  1.1983
 6165SOL     OW23179   0.841  10.993   2.194 -0.3584  0.3960  0.5142
 6165SOL    HW123180   0.812  10.907   2.165 -1.8252  1.2698 -0.7763
 6165SOL    HW223181   0.803  11.002   2.282  0.3630 -0.5021  0.9397
 6166SOL     OW23182  11.407   6.542   4.479 -0.0632  0.6934 -0.0841
 6166SOL    HW123183  11.463   6.519   4.405  0.9196  0.1281  0.8104
 6166SOL    HW223184  11.458   6.518   4.557 -0.5600  2.4111  0.8192
 6167SOL     OW23185   6.847  11.305   1.819 -0.6482  0.1248 -0.0919
 6167SOL    HW123186   6.915  11.261   1.869  0.8639 -0.4453 -2.4767
 6167SOL    HW223187   6.847  11.395   1.852  1.2159  0.1082  0.0370
 6168SOL     OW23188  10.238   7.554   3.460  0.2837  0.1279 -0.1931
 6168SOL    HW123189  10.265   7.463   3.461 -0.1165  0.0100  0.3481
 6168SOL    HW223190  10.262   7.585   3.373  1.5822 -0.1358  0.0418
 6169SOL     OW23191   4.498   6.479   1.013 -0.0830 -0.6528  0.2515
 6169SOL    HW123192   4.547   6.466   1.094  0.1659 -0.2607  0.1682
 6169SOL    HW223193   4.472   6.571   1.015  1.1037 -0.2629 -0.7436
 6170SOL     OW23194   6.897   0.636   9.838 -0.1403  0.2663  0.0826
 6170SOL    HW123195   6.953   0.658   9.763 -0.0477 -0.3758 -0.0367
 6170SOL    HW223196   6.846   0.561   9.809 -0.6297  0.4622  0.4126
 6171SOL     OW23197   7.451   7.600   3.825  0.2724 -0.4632  0.8248
 6171SOL    HW123198   7.425   7.689   3.849 -1.0098 -0.5433 -0.1224
 6171SOL    HW223199   7.524   7.612   3.765  0.1382 -0.0452  0.7386
 6172SOL     OW23200  11.599   0.735   9.676  0.1500  0.9175 -0.7422
 6172SOL    HW123201  11.677   0.681   9.682  0.1749  1.0144 -0.0330
 6172SOL    HW223202  11.627   0.821   9.707 -0.0518  1.1585 -1.2147
 6173SOL     OW23203   2.001   2.981   5.909  0.2189  0.4751  0.1897
 6173SOL    HW123204   1.926   2.993   5.966 -1.3033  2.1093 -1.9844
 6173SOL    HW223205   1.974   2.911   5.849  1.2450 -0.2898  0.5887
 6174SOL     OW23206   6.320   7.217  11.285 -0.4198 -0.0078  0.2339
 6174SOL    HW123207   6.308   7.240  11.377 -0.2051  1.4785 -0.0724
 6174SOL    HW223208   6.321   7.122  11.283 -0.4424 -0.0575  1.7640
 6175SOL     OW23209   2.802   2.861   2.362 -0.4174  0.1668  0.1405
 6175SOL    HW123210   2.782   2.841   2.454  0.1128 -0.6920  0.0699
 6175SOL    HW223211   2.725   2.830   2.314 -1.1138  1.4560  0.3643
 6176SOL     OW23212   7.746   3.161   8.609 -0.1176 -0.0837  0.0120
 6176SOL    HW123213   7.761   3.254   8.626  1.2067 -0.5196  1.6020
 6176SOL    HW223214   7.674   3.137   8.668 -1.0911  0.0975 -1.0680
 6177SOL     OW23215   5.526   8.903   5.579 -0.0558  0.0559 -0.5368
 6177SOL    HW123216   5.443   8.858   5.560  0.6581 -1.6591  0.2018
 6177SOL    HW223217   5.584   8.877   5.507  0.9732 -1.9373  0.9298
 6178SOL     OW23218   2.718   0.006   3.565 -0.1578 -0.1247  0.1356
 6178SOL    HW123219   2.791   0.021   3.625  0.4669  1.4690 -0.9683
 6178SOL    HW223220   2.642   0.042   3.610  0.1478  0.2524  0.3545
 6179SOL     OW23221  11.274   3.023   0.056  0.2977 -0.0498 -0.1109
 6179SOL    HW123222  11.368   3.041   0.059  0.3016 -0.1840  1.0984
 6179SOL    HW223223  11.237   3.094   0.003  0.9523  0.5773  0.2583
 6180SOL     OW23224   1.864   2.013   7.107  0.1220  0.1035 -0.2075
 6180SOL    HW123225   1.924   2.078   7.144 -0.3007  0.7342 -0.6148
 6180SOL    HW223226   1.909   1.930   7.120  0.1947  0.3469  1.3223
 6181SOL     OW23227   2.271  11.823  10.208 -0.7407  0.4541  0.2762
 6181SOL    HW123228   2.366  11.829  10.198 -0.7975  0.0292 -0.6995
 6181SOL    HW223229   2.244  11.911  10.234 -0.2254  0.9913 -0.9322
 6182SOL     OW23230   3.778   9.964  11.333  0.6183 -0.4892 -0.1428
 6182SOL    HW123231   3.726   9.949  11.254  0.1839  2.1049 -0.4097
 6182SOL    HW223232   3.854   9.906  11.323  0.9838  0.3465 -2.8757
 6183SOL     OW23233   5.394   6.215   0.897 -0.2373 -0.3122 -0.6682
 6183SOL    HW123234   5.389   6.247   0.987  1.4676  1.1779 -1.0319
 6183SOL    HW223235   5.317   6.250   0.854 -0.1672  0.4397 -0.1908
 6184SOL     OW23236  11.127   3.125  10.417 -0.0048  0.1010 -0.7329
 6184SOL    HW123237  11.184   3.178  10.473 -2.3583 -0.1423  2.1825
 6184SOL    HW223238  11.161   3.036  10.425  0.3114  0.2379 -0.5496
 6185SOL     OW23239   6.419   7.498   8.878  0.0916 -0.4118  0.7944
 6185SOL    HW123240   6.487   7.476   8.814  0.3443  0.7097  0.6578
 6185SOL    HW223241   6.466   7.503   8.961 -0.0342 -0.7623  0.8881
 6186SOL     OW23242   2.390   7.165   3.282  0.8361  0.2139 -0.2781
 6186SOL    HW123243   2.356   7.109   3.352  0.3176 -0.4867 -1.0707
 6186SOL    HW223244   2.337   7.245   3.287  1.6556  0.7294  0.9306
 6187SOL     OW23245   7.493   0.334   4.836  0.2954  0.0794  0.0277
 6187SOL    HW123246   7.508   0.354   4.929 -0.8986  1.5861 -0.0570
 6187SOL    HW223247   7.476   0.240   4.834  1.2233 -0.1333  1.2071
 6188SOL     OW23248   8.646   3.215   0.678 -0.3994 -0.0878 -0.1685
 6188SOL    HW123249   8.624   3.160   0.602 -0.9837  1.0280 -0.8332
 6188SOL    HW223250   8.687   3.292   0.639 -1.9439  1.1327  0.5177
 6189SOL     OW23251   2.996  10.403   2.506 -0.6484  0.4507  0.3849
 6189SOL    HW123252   3.066  10.340   2.521  0.0083  1.2050  0.5518
 6189SOL    HW223253   2.916  10.358   2.534 -0.2200 -0.3807  0.2742
 6190SOL     OW23254   9.773   3.882   3.006  0.4871  0.5578 -0.1841
 6190SOL    HW123255   9.840   3.848   3.067  0.4009  0.9598  0.1413
 6190SOL    HW223256   9.753   3.808   2.949 -1.4146 -0.7224  1.9764
 6191SOL     OW23257  11.067   6.672  10.086 -0.5048  0.1040  0.3273
 6191SOL    HW123258  10.976   6.686  10.058  0.3825  0.1276 -2.9808
 6191SOL    HW223259  11.082   6.740  10.152 -2.6626  0.5754  0.4049
 6192SOL     OW23260   7.950  11.370   6.426  0.4613  0.0052  0.6440
 6192SOL    HW123261   7.860  11.394   6.446  0.9785  1.5083  1.2824
 6192SOL    HW223262   8.002  11.446   6.453  1.7730 -0.1557 -1.2489
 6193SOL     OW23263   5.835  11.743   8.334  0.2309 -0.3166 -0.5119
 6193SOL    HW123264   5.850  11.671   8.395 -2.4975 -0.1278  0.4973
 6193SOL    HW223265   5.869  11.820   8.379  2.6700 -0.7940 -1.3735
 6194SOL     OW23266   8.522   1.055   4.703 -0.0063  0.1050 -0.2435
 6194SOL    HW123267   8.544   0.969   4.669 -0.0239 -0.2098  0.5468
 6194SOL    HW223268   8.606   1.095   4.726 -0.0284  0.1416 -0.2239
 6195SOL     OW23269   2.715   9.941   3.631 -0.3948 -0.5591  0.0107
 6195SOL    HW123270   2.774   9.897   3.693 -1.1740  1.3690  2.2761
 6195SOL    HW223271   2.649   9.874   3.610 -0.2736 -1.2110  1.5350
 6196SOL     OW23272   8.367  11.263   6.907  0.2727  0.2116 -0.0568
 6196SOL    HW123273   8.462  11.250   6.914  0.1955 -0.1268  0.4012
 6196SOL    HW223274   8.356  11.357   6.900  0.5895  0.3235  0.8208
 6197SOL     OW23275  11.813   2.713   6.247  0.0488 -0.1454 -0.1314
 6197SOL    HW123276  11.740   2.767   6.215 -0.2419  0.5283  1.5805
 6197SOL    HW223277  11.857   2.768   6.312  1.6578 -0.8241 -0.5823
 6198SOL     OW23278   2.575   6.422   3.059 -0.3387  0.5184  0.1965
 6198SOL    HW123279   2.545   6.492   3.117  3.1285  2.6300 -0.3067
 6198SOL    HW223280   2.616   6.358   3.116 -1.1643  0.1540  0.4076
 6199SOL     OW23281   5.304   2.680   5.030  0.6084  0.0564  0.2482
 6199SOL    HW123282   5.286   2.586   5.025  0.1312  0.1384  0.3396
 6199SOL    HW223283   5.217   2.720   5.033  0.7991  0.5316 -0.3082
 6200SOL     OW23284   4.137   0.170  11.673  0.4631  0.3152  0.3674
 6200SOL    HW123285   4.092   0.192  11.755  2.0731  0.9998  1.1064
 6200SOL    HW223286   4.195   0.098  11.697  1.0796  0.6471 -0.1242
 6201SOL     OW23287   4.741   8.311  10.289  0.3591 -0.2152  0.2992
 6201SOL    HW123288   4.778   8.244  10.348  0.6943 -0.0106  0.3246
 6201SOL    HW223289   4.679   8.263  10.235 -1.3533 -0.0759  2.0436
 6202SOL     OW23290   6.243   4.733   4.838 -0.6955  0.6728  0.4522
 6202SOL    HW123291   6.158   4.692   4.853 -0.1901 -0.5557  0.0282
 6202SOL    HW223292   6.305   4.661   4.836  0.6127  1.6688  2.3118
 6203SOL     OW23293   1.729   2.202   9.274  0.1797 -0.1428 -0.3959
 6203SOL    HW123294   1.814   2.163   9.253 -0.3221 -1.1627 -0.5661
 6203SOL    HW223295   1.678   2.194   9.194 -1.0599 -2.2298  0.5231
 6204SOL     OW23296   5.870   1.735   5.191 -0.2662 -0.4075  0.3320
 6204SOL    HW123297   5.874   1.819   5.239  1.4566  0.6758 -1.5372
 6204SOL    HW223298   5.920   1.675   5.246  0.6842  0.4950  0.5001
 6205SOL     OW23299  11.929   8.833   8.683  0.0827 -0.1802  0.4383
 6205SOL    HW123300  12.022   8.819   8.669  0.2928  1.0220  0.5302
 6205SOL    HW223301  11.886   8.761   8.637  1.0665 -1.0245  0.8089
 6206SOL     OW23302   0.226   1.209   9.532  0.2310  0.0801 -0.2891
 6206SOL    HW123303   0.184   1.286   9.493 -0.4580 -1.2738 -2.4054
 6206SOL    HW223304   0.320   1.229   9.529  0.0960  0.6299 -1.3112
 6207SOL     OW23305   0.407   0.323   1.934  0.0315 -0.1645 -0.2387
 6207SOL    HW123306   0.353   0.378   1.878 -0.7993  0.4262  1.0850
 6207SOL    HW223307   0.459   0.384   1.986  0.4694 -0.6848 -0.0502
 6208SOL     OW23308   5.110   4.946   9.507  0.3964  0.6005  0.3125
 6208SOL    HW123309   5.089   4.900   9.426  1.4715 -0.4317  0.5911
 6208SOL    HW223310   5.027   4.986   9.534 -1.0003 -2.3384  0.7654
 6209SOL     OW23311   9.121   1.006   5.728 -0.0213  0.5305 -0.3193
 6209SOL    HW123312   9.027   1.025   5.720 -0.2885 -0.2864  0.6667
 6209SOL    HW223313   9.144   1.038   5.816  0.3114 -0.4448 -0.0383
 6210SOL     OW23314   8.361   5.297   5.321  0.3142  0.0082 -0.1059
 6210SOL    HW123315   8.310   5.319   5.400 -0.3583  0.8514 -0.7610
 6210SOL    HW223316   8.410   5.219   5.346 -0.7465 -0.4031  0.7984
 6211SOL     OW23317   6.202   6.267   8.438 -0.1481 -0.3061  0.1048
 6211SOL    HW123318   6.206   6.329   8.511  0.8812  1.5855 -1.4753
 6211SOL    HW223319   6.112   6.274   8.405  0.0876  0.7556 -0.3597
 6212SOL     OW23320   1.969   3.378  10.450 -0.2563 -0.0685  0.3761
 6212SOL    HW123321   2.001   3.293  10.482  0.1501 -0.6014 -1.3077
 6212SOL    HW223322   1.897   3.355  10.391 -0.2904  0.7702  0.0833
 6213SOL     OW23323  10.264   9.746   9.724 -0.1399  0.2213 -0.2007
 6213SOL    HW123324  10.181   9.753   9.677 -1.6852  0.9369  2.3929
 6213SOL    HW223325  10.242   9.697   9.804  1.6896  1.2778  1.0359
 6214SOL     OW23326   9.561  10.374   8.790  0.3207 -0.1511 -0.5184
 6214SOL    HW123327   9.559  10.452   8.846 -0.6150  0.8908 -1.9253
 6214SOL    HW223328   9.596  10.406   8.706  0.5297 -1.3914 -0.9280
 6215SOL     OW23329  10.572   7.887   2.327  0.1081 -0.1273  0.0657
 6215SOL    HW123330  10.622   7.967   2.310  0.7025 -0.3766  0.6079
 6215SOL    HW223331  10.578   7.875   2.421  0.2150 -0.9374 -0.0407
 6216SOL     OW23332   2.134   2.343   8.533 -0.6053  0.3573  0.5164
 6216SOL    HW123333   2.146   2.326   8.626 -1.3380  0.8435  0.7039
 6216SOL    HW223334   2.139   2.438   8.524 -0.7421  0.3285  0.0912
 6217SOL     OW23335   6.537   7.239   0.188 -0.5634 -0.2341  0.6631
 6217SOL    HW123336   6.590   7.303   0.141 -2.9633  0.9057 -0.6839
 6217SOL    HW223337   6.486   7.290   0.251 -1.4802 -0.9902  0.5637
 6218SOL     OW23338   0.479   2.388   5.853  0.2931 -0.5730  0.4806
 6218SOL    HW123339   0.555   2.417   5.904  0.3393  1.7134 -0.7390
 6218SOL    HW223340   0.452   2.306   5.894  2.4210 -0.6146  1.9576
 6219SOL     OW23341  10.052   4.959   9.609  0.1409 -0.5455  0.3270
 6219SOL    HW123342  10.089   4.871   9.620 -1.6648 -1.1660  1.8937
 6219SOL    HW223343  10.058   4.975   9.514  1.0728 -2.0703  0.0877
 6220SOL     OW23344   6.460   8.150   1.299 -0.2226 -0.7470  0.3263
 6220SOL    HW123345   6.514   8.219   1.339  1.2662 -1.5498 -0.2157
 6220SOL    HW223346   6.439   8.091   1.372 -0.6900 -0.2468  0.6063
 6221SOL     OW23347   6.766   7.729   6.577 -0.0222  0.1948 -0.1010
 6221SOL    HW123348   6.688   7.715   6.631  0.4853 -1.7632  0.2006
 6221SOL    HW223349   6.833   7.674   6.618  0.8292 -0.0721 -1.7771
 6222SOL     OW23350   1.691   6.638  10.231 -0.0609 -0.0204 -0.0119
 6222SOL    HW123351   1.616   6.697  10.219 -1.6883 -1.9968 -0.0929
 6222SOL    HW223352   1.725   6.660  10.318 -2.3588 -0.7257  1.1390
 6223SOL     OW23353  11.966  11.502   9.070 -0.0455 -0.3023  0.3345
 6223SOL    HW123354  11.903  11.482   9.001  0.0088 -1.3136  0.5623
 6223SOL    HW223355  11.938  11.588   9.104 -1.4124 -0.8055  0.5481
 6224SOL     OW23356   8.070   6.671  11.961  0.1748 -0.3251  0.2310
 6224SOL    HW123357   8.043   6.694  11.872  1.1394  1.0415  0.2643
 6224SOL    HW223358   8.130   6.598  11.950 -0.3679 -0.7157 -0.1651
 6225SOL     OW23359   2.745   3.506   8.541  0.2883  0.3645  0.2141
 6225SOL    HW123360   2.719   3.431   8.595 -0.8287 -0.2114 -1.0641
 6225SOL    HW223361   2.720   3.583   8.592  1.7087 -0.0976  1.6740
 6226SOL     OW23362   0.695   2.165   9.465 -0.3600  0.1183 -0.3133
 6226SOL    HW123363   0.700   2.215   9.546 -1.3304  1.7643 -1.2008
 6226SOL    HW223364   0.771   2.195   9.415 -1.4785  1.5753 -1.2523
 6227SOL     OW23365   5.915   6.341   8.730 -0.4172  0.3241 -0.1768
 6227SOL    HW123366   6.001   6.378   8.712 -0.6733  1.0200 -0.0178
 6227SOL    HW223367   5.932   6.256   8.769  0.1846 -1.6231 -4.2430
 6228SOL     OW23368   9.953   0.407   7.604  0.1106 -0.5599 -0.2522
 6228SOL    HW123369   9.979   0.316   7.619  1.2659 -0.1774  0.1518
 6228SOL    HW223370   9.884   0.401   7.538 -0.1087 -1.7524  0.0521
 6229SOL     OW23371   5.427   4.541  10.041  0.0492  0.3283 -0.1580
 6229SOL    HW123372   5.496   4.598  10.007  1.0090  0.8972  2.5139
 6229SOL    HW223373   5.366   4.531   9.967  1.0858  2.8210 -1.4853
 6230SOL     OW23374   1.196  10.769   2.385  0.1358 -0.0077  0.1468
 6230SOL    HW123375   1.206  10.854   2.428  0.9482  0.6278 -1.2225
 6230SOL    HW223376   1.101  10.757   2.378  0.0063  0.4419  1.0050
 6231SOL     OW23377   6.392   3.282   7.491  0.0109 -0.2129  0.0381
 6231SOL    HW123378   6.413   3.222   7.419 -2.7126 -2.3081  0.8331
 6231SOL    HW223379   6.319   3.334   7.458 -1.6759 -1.6179  1.3941
 6232SOL     OW23380   1.118   1.996   1.584  0.0979 -1.0795 -0.6558
 6232SOL    HW123381   1.181   2.032   1.521  0.6108 -2.6353 -1.1010
 6232SOL    HW223382   1.158   1.914   1.613 -1.0905 -1.4104  0.1309
 6233SOL     OW23383  10.064   5.841   0.074 -0.1240 -0.0195  0.5478
 6233SOL    HW123384  10.030   5.782   0.007 -1.0026 -0.0984  1.0580
 6233SOL    HW223385  10.083   5.784   0.149  1.3561 -0.0146  0.2086
 6234SOL     OW23386  11.341   3.771  10.602 -0.0707  0.7033 -0.0328
 6234SOL    HW123387  11.419   3.803  10.558 -0.2032  1.1995  0.0920
 6234SOL    HW223388  11.283   3.847  10.608 -0.2432  0.5316  0.5793
 6235SOL     OW23389  10.227  10.382   9.574  0.2672  0.2716  0.0244
 6235SOL    HW123390  10.238  10.296   9.616  3.2910 -1.3211 -3.4277
 6235SOL    HW223391  10.132  10.395   9.571 -0.5906 -4.3253 -1.5911
 6236SOL     OW23392   7.547   9.636   9.976 -0.7790 -0.1381 -0.6281
 6236SOL    HW123393   7.483   9.565   9.967 -0.7542 -0.1353 -0.8109
 6236SOL    HW223394   7.603   9.629   9.899 -0.3720 -0.3222 -0.3208
 6237SOL     OW23395   6.255   3.225   8.089 -0.3589 -0.4939  0.3708
 6237SOL    HW123396   6.175   3.262   8.126 -1.3197 -0.7037 -1.4300
 6237SOL    HW223397   6.235   3.133   8.074  0.5411 -0.7621  0.7342
 6238SOL     OW23398   2.383   0.779  11.904 -0.2162  0.6944  0.3329
 6238SOL    HW123399   2.466   0.776  11.951  0.2874  1.4373 -0.4916
 6238SOL    HW223400   2.322   0.820  11.966  0.6502  2.4511  0.0768
 6239SOL     OW23401   5.624   0.145   7.617 -0.0834 -0.5597 -0.0088
 6239SOL    HW123402   5.689   0.211   7.643  0.9521 -1.4426 -0.3125
 6239SOL    HW223403   5.544   0.196   7.603  0.1395  0.3762  1.7416
 6240SOL     OW23404   3.154   1.025   3.966  0.6420  0.3619  0.0378
 6240SOL    HW123405   3.139   1.114   3.934 -0.9495  0.5635  1.2179
 6240SOL    HW223406   3.183   1.037   4.056  0.0392 -0.3178  0.3294
 6241SOL     OW23407   8.975   1.980   4.421  0.1868  0.0682  0.2194
 6241SOL    HW123408   8.920   1.902   4.414 -0.8698  0.8661 -1.0213
 6241SOL    HW223409   9.063   1.946   4.434 -0.4794 -1.2700  1.5399
 6242SOL     OW23410  10.282  10.183   6.063 -0.6254  0.5648  0.0102
 6242SOL    HW123411  10.295  10.204   6.155  1.0434  0.3154 -0.1323
 6242SOL    HW223412  10.225  10.253   6.030 -1.5734  0.4383  1.2899
 6243SOL     OW23413   8.410   5.189   9.826 -0.1309 -0.2164  0.5156
 6243SOL    HW123414   8.469   5.259   9.799  2.3985 -1.5653  2.1652
 6243SOL    HW223415   8.412   5.192   9.922 -1.3877 -1.4267  0.6168
 6244SOL     OW23416   1.736   7.227   9.081  0.1010 -0.4969  0.6727
 6244SOL    HW123417   1.825   7.206   9.108  1.1892  1.8251 -0.7603
 6244SOL    HW223418   1.725   7.182   8.997  0.5090  0.3787  0.1335
 6245SOL     OW23419   7.890   4.395   1.551 -0.1913  0.5630 -0.2563
 6245SOL    HW123420   7.887   4.489   1.534  0.9382  0.8850  1.1189
 6245SOL    HW223421   7.799   4.369   1.562 -0.4974  1.5415 -0.3850
 6246SOL     OW23422   1.279   6.762  10.663  0.4966  0.5888 -0.3302
 6246SOL    HW123423   1.192   6.785  10.630  0.5049  0.3221 -0.5469
 6246SOL    HW223424   1.333   6.839  10.646  0.2882  0.7758 -0.1435
 6247SOL     OW23425   0.435  11.372   6.426  0.5499  0.0815  0.0543
 6247SOL    HW123426   0.459  11.315   6.499 -0.5443  1.1586  1.3306
 6247SOL    HW223427   0.489  11.450   6.437  0.0868  0.4217 -0.0152
 6248SOL     OW23428  11.356   1.378   1.368 -0.5874 -0.5162 -0.1969
 6248SOL    HW123429  11.273   1.386   1.321 -0.0348 -1.6119 -1.4080
 6248SOL    HW223430  11.361   1.457   1.422 -1.9971 -0.0106 -0.7819
 6249SOL     OW23431   8.313  11.915  11.416 -0.2780 -0.1433 -0.4373
 6249SOL    HW123432   8.371  11.870  11.478  1.0852  0.5194 -1.1882
 6249SOL    HW223433   8.349  11.896  11.330 -1.5800 -0.2355 -0.9918
 6250SOL     OW23434  10.057   0.802  10.169  0.2251  0.3005  0.8168
 6250SOL    HW123435  10.101   0.848  10.098  0.7795 -0.6581  0.5328
 6250SOL    HW223436  10.115   0.730  10.191 -0.5762 -0.1993  1.3412
 6251SOL     OW23437   3.960  10.950   7.379  0.0301  0.0146 -0.1877
 6251SOL    HW123438   3.973  10.856   7.387  0.1161  0.1564  2.0003
 6251SOL    HW223439   3.865  10.961   7.384 -0.0623 -0.0090 -1.5795
 6252SOL     OW23440   9.068  10.155   1.913 -0.2492  0.1923  0.1299
 6252SOL    HW123441   9.119  10.214   1.858 -2.9043  3.2602  0.6010
 6252SOL    HW223442   9.118  10.147   1.994  0.9887  0.3802 -0.6056
 6253SOL     OW23443   6.024   0.626   5.453  0.2383 -0.0951 -0.0070
 6253SOL    HW123444   6.069   0.707   5.477 -0.1630  0.7847 -2.0962
 6253SOL    HW223445   5.947   0.624   5.509  1.2756 -0.1166  1.5001
 6254SOL     OW23446   2.450  10.163   1.882  0.1984 -0.0412  0.0181
 6254SOL    HW123447   2.408  10.081   1.857 -0.4351  0.5236 -0.8896
 6254SOL    HW223448   2.446  10.217   1.802  0.4611  0.9184  0.6284
 6255SOL     OW23449   8.061   0.862   2.849  0.1538  0.4285  0.3504
 6255SOL    HW123450   8.133   0.898   2.797  0.2367  0.8237  0.7335
 6255SOL    HW223451   8.034   0.784   2.802  0.0867  0.8988 -0.4123
 6256SOL     OW23452   2.734   1.284   1.086  0.0670  0.2876 -0.1227
 6256SOL    HW123453   2.717   1.358   1.145  1.8608 -0.0929  0.9448
 6256SOL    HW223454   2.648   1.243   1.074 -0.6604  1.5163  0.6738
 6257SOL     OW23455   8.882   2.154   5.820 -0.3959  0.0478  0.4702
 6257SOL    HW123456   8.813   2.178   5.882 -1.7249 -1.0314 -0.5062
 6257SOL    HW223457   8.871   2.059   5.808  0.8847 -0.0406 -0.1780
 6258SOL     OW23458   8.430   9.900   5.751 -0.3077  0.1456 -0.4931
 6258SOL    HW123459   8.472   9.957   5.815  1.4674 -0.6467 -0.8952
 6258SOL    HW223460   8.503   9.861   5.702 -1.5650 -0.3001 -2.0991
 6259SOL     OW23461   5.230   7.436   2.034  0.3384 -0.1927 -0.3218
 6259SOL    HW123462   5.202   7.434   2.125  1.0810 -0.2259 -0.0933
 6259SOL    HW223463   5.262   7.348   2.016  3.7124  0.7021  0.5265
 6260SOL     OW23464   4.682   8.051  11.326  0.1987  0.3836 -0.0857
 6260SOL    HW123465   4.599   8.016  11.359 -0.0111  0.2859 -0.7074
 6260SOL    HW223466   4.656   8.115  11.259  0.5657  1.8546  1.1160
 6261SOL     OW23467   6.030   1.158   6.675  0.5044  0.2959  0.5681
 6261SOL    HW123468   6.025   1.194   6.764  0.7390  0.9611  0.3141
 6261SOL    HW223469   6.048   1.065   6.688  3.0245  0.8024  1.2017
 6262SOL     OW23470  10.386   3.661   2.538  0.0881 -0.1679 -0.1864
 6262SOL    HW123471  10.443   3.586   2.556 -1.3059 -1.1803  0.1873
 6262SOL    HW223472  10.410   3.726   2.604  0.7537 -0.5843 -0.0066
 6263SOL     OW23473   4.426   7.521   2.591  0.4262 -0.9283 -0.3176
 6263SOL    HW123474   4.476   7.527   2.672  0.4556 -2.2135 -0.2122
 6263SOL    HW223475   4.489   7.543   2.522  0.0563  1.5679  0.0459
 6264SOL     OW23476   9.279   9.901   6.513  0.4047  0.6632  0.2245
 6264SOL    HW123477   9.366   9.941   6.509 -0.1297  1.7803 -1.5247
 6264SOL    HW223478   9.223   9.960   6.462 -1.2744 -0.3182  0.8472
 6265SOL     OW23479   9.834   9.465   0.225 -0.2338  1.0736  0.1434
 6265SOL    HW123480   9.748   9.507   0.217 -1.2939 -0.8111  1.0588
 6265SOL    HW223481   9.873   9.505   0.303 -0.6040  1.3602  0.1854
 6266SOL     OW23482   4.657   3.323   2.721 -0.0640 -0.1937 -0.2648
 6266SOL    HW123483   4.647   3.410   2.758 -0.0161 -0.6258  0.7922
 6266SOL    HW223484   4.749   3.319   2.694  0.4581 -0.5797  1.4736
 6267SOL     OW23485  11.972   7.606   6.426 -0.2650  0.3210  0.3332
 6267SOL    HW123486  11.997   7.563   6.508 -0.6461 -2.2371 -0.7992
 6267SOL    HW223487  11.880   7.581   6.414 -0.4171  1.2670 -0.5151
 6268SOL     OW23488   9.983  11.844   9.617 -0.3854  0.1279 -0.2527
 6268SOL    HW123489   9.973  11.748   9.614  0.2705  0.0466  0.1019
 6268SOL    HW223490  10.009  11.863   9.707 -0.8418  0.6786 -0.2341
 6269SOL     OW23491   4.600   0.454  11.380  0.4678 -0.4351  0.1774
 6269SOL    HW123492   4.570   0.448  11.471  1.7258 -0.5168  0.6089
 6269SOL    HW223493   4.671   0.518  11.383 -0.3863  0.5916 -1.0098
 6270SOL     OW23494   0.491   1.741  10.850  0.1818 -0.4732  0.5850
 6270SOL    HW123495   0.458   1.721  10.938 -1.4752 -2.9928 -0.5063
 6270SOL    HW223496   0.414   1.765  10.800  1.0060  0.2263 -0.3932
 6271SOL     OW23497   0.822   2.743   9.998 -0.3521 -0.3925  0.1441
 6271SOL    HW123498   0.881   2.781   9.933 -0.8904  0.3946  0.1041
 6271SOL    HW223499   0.780   2.818  10.040 -1.6543 -0.9403 -0.1305
 6272SOL     OW23500   7.182   4.936   1.900 -0.0332 -0.1066  0.3737
 6272SOL    HW123501   7.183   4.914   1.993  0.5122 -0.4775  0.2852
 6272SOL    HW223502   7.182   4.851   1.856 -3.4107 -0.0571  0.0238
 6273SOL     OW23503   3.166  11.218   1.149  0.1784 -0.1109  0.5940
 6273SOL    HW123504   3.146  11.311   1.145  0.3908 -0.0937 -0.6742
 6273SOL    HW223505   3.107  11.182   1.215 -1.7836  0.4775 -0.7663
 6274SOL     OW23506   4.955   7.485   0.857 -0.3877 -0.0190 -0.2033
 6274SOL    HW123507   4.967   7.514   0.766  0.9066 -1.1037 -0.3933
 6274SOL    HW223508   4.968   7.391   0.854  0.2231  0.0067  1.2092
 6275SOL     OW23509   6.714   6.161  11.122 -1.0708  0.1846 -0.2517
 6275SOL    HW123510   6.620   6.146  11.108 -0.6842 -2.2130 -0.7032
 6275SOL    HW223511   6.738   6.099  11.191  0.2546  0.4752 -0.4297
 6276SOL     OW23512   6.656   2.632   6.030  0.9586 -0.2612  0.8445
 6276SOL    HW123513   6.601   2.646   6.107 -0.0274  0.7991 -0.0344
 6276SOL    HW223514   6.743   2.614   6.066  0.4196 -0.2307  2.2080
 6277SOL     OW23515   0.588   3.159   1.264 -0.4761 -0.6224  0.2596
 6277SOL    HW123516   0.638   3.185   1.187 -1.8886 -0.2478 -0.5643
 6277SOL    HW223517   0.528   3.092   1.232 -1.6373  0.1169  0.8502
 6278SOL     OW23518   2.668   0.033   5.198  0.1449  0.4204  0.3379
 6278SOL    HW123519   2.705   0.108   5.151 -0.3272  0.7155  0.4341
 6278SOL    HW223520   2.584   0.017   5.155  1.0272 -1.2152 -0.9022
 6279SOL     OW23521  11.717   9.169   5.399  0.4183 -0.1730  0.1791
 6279SOL    HW123522  11.764   9.148   5.480  1.4629 -1.1700 -0.6545
 6279SOL    HW223523  11.775   9.229   5.352 -1.1089  2.1813  1.0510
 6280SOL     OW23524   2.401   8.062   2.407 -0.0410  0.3475 -0.3047
 6280SOL    HW123525   2.455   8.126   2.452 -0.1372  0.0132  0.2981
 6280SOL    HW223526   2.455   8.033   2.333  0.5292  0.1578  0.1785
 6281SOL     OW23527   1.145   1.986   6.038 -0.0614 -0.5765  0.0431
 6281SOL    HW123528   1.178   2.075   6.025  0.1665 -0.8545 -1.4786
 6281SOL    HW223529   1.104   1.963   5.955  1.2761 -2.4707 -0.1677
 6282SOL     OW23530   8.257   3.578   5.938 -0.2401  0.4366  0.2395
 6282SOL    HW123531   8.203   3.601   6.014  1.0078 -1.1784  1.6695
 6282SOL    HW223532   8.324   3.646   5.935  0.1640  0.0842  1.0693
 6283SOL     OW23533   2.525  10.388   5.434 -0.2644  0.3398  0.3730
 6283SOL    HW123534   2.584  10.442   5.382  0.8068 -0.7361  0.4407
 6283SOL    HW223535   2.576  10.311   5.457 -1.8426 -0.8866 -0.0116
 6284SOL     OW23536   9.661   6.129   6.884  0.2147 -0.1250 -0.2448
 6284SOL    HW123537   9.706   6.074   6.948  1.7347 -0.2249 -1.3464
 6284SOL    HW223538   9.589   6.169   6.933  0.9960 -0.6174  1.3681
 6285SOL     OW23539   9.006   6.309  10.305  0.4611 -0.2546 -0.4116
 6285SOL    HW123540   9.084   6.363  10.315  1.4283 -1.5345 -0.7004
 6285SOL    HW223541   9.013   6.243  10.374 -0.7117 -0.0037 -0.0290
 6286SOL     OW23542  11.792   8.477  11.178  0.6755 -0.2396  0.2089
 6286SOL    HW123543  11.848   8.447  11.107  1.6874 -2.3437  1.7746
 6286SOL    HW223544  11.805   8.571  11.182 -0.5208  0.2345 -3.2337
 6287SOL     OW23545   0.270  10.917   7.020  0.1968  0.2356 -0.3011
 6287SOL    HW123546   0.241  10.924   7.111  0.9076  1.2045 -0.1220
 6287SOL    HW223547   0.355  10.963   7.019  1.4372 -1.9437 -0.9117
 6288SOL     OW23548  11.361   1.989   4.562 -0.3028  0.1551 -0.3589
 6288SOL    HW123549  11.423   1.966   4.493  1.7042  0.6688  1.1986
 6288SOL    HW223550  11.368   2.084   4.571 -2.2637  0.4060 -0.9564
 6289SOL     OW23551   5.282   6.972   1.521 -0.2517 -0.2605 -0.4373
 6289SOL    HW123552   5.195   7.003   1.545 -0.5687 -0.1117 -1.7176
 6289SOL    HW223553   5.338   6.996   1.595 -0.9608  1.1656 -0.3411
 6290SOL     OW23554   3.510   9.419   1.752  0.0857 -0.2894  0.2389
 6290SOL    HW123555   3.426   9.463   1.742  1.1075  1.5981 -0.4838
 6290SOL    HW223556   3.489   9.326   1.750 -1.9177  0.1402 -0.4439
 6291SOL     OW23557   9.468  11.194  11.690  0.0752 -0.0706 -0.2411
 6291SOL    HW123558   9.378  11.229  11.692  0.1122  0.1006 -1.1060
 6291SOL    HW223559   9.484  11.165  11.780  0.1986  2.5530  0.6656
 6292SOL     OW23560   4.681   3.424   7.579 -0.2701  0.0013 -0.4540
 6292SOL    HW123561   4.705   3.508   7.619  1.6681 -0.4999 -0.4686
 6292SOL    HW223562   4.712   3.358   7.640 -1.1814 -0.7290 -0.7597
 6293SOL     OW23563   0.134   2.539   2.934  0.4386  0.0768 -0.4712
 6293SOL    HW123564   0.154   2.623   2.893  0.6839  0.4522  0.3911
 6293SOL    HW223565   0.132   2.558   3.028  1.0562 -0.9817 -0.2184
 6294SOL     OW23566   1.595   0.520  10.630  0.1956  0.1062  0.1729
 6294SOL    HW123567   1.639   0.598  10.595  0.3759 -0.3263 -0.6071
 6294SOL    HW223568   1.587   0.462  10.554 -0.0436 -0.5820  0.7158
 6295SOL     OW23569   2.972   2.485   0.816  0.0124  0.0966  0.0717
 6295SOL    HW123570   2.981   2.417   0.749  0.4165 -1.1897  1.3762
 6295SOL    HW223571   3.052   2.478   0.869 -0.6943  0.4431  1.2291
 6296SOL     OW23572   8.610   9.375  11.552  0.3561 -0.0652  0.4409
 6296SOL    HW123573   8.563   9.294  11.532 -1.5868  0.2241  3.2830
 6296SOL    HW223574   8.689   9.371  11.498 -0.8300 -2.6948 -1.2635
 6297SOL     OW23575   1.590   3.112   1.291 -0.0729 -0.1338  0.0502
 6297SOL    HW123576   1.648   3.188   1.283 -1.8212  1.1360 -1.4243
 6297SOL    HW223577   1.572   3.104   1.384 -1.8974  2.9804  0.1037
 6298SOL     OW23578   9.775   5.755   3.440 -0.2754 -0.0596  0.2859
 6298SOL    HW123579   9.817   5.800   3.513 -1.3055 -0.0985  0.9226
 6298SOL    HW223580   9.741   5.673   3.478 -2.2894  0.6709  0.1995
 6299SOL     OW23581   4.501   9.678   0.540 -0.0045 -0.0679  0.2100
 6299SOL    HW123582   4.500   9.656   0.633  0.9896  1.0972  0.5270
 6299SOL    HW223583   4.439   9.617   0.500 -0.6538 -0.4150  1.6710
 6300SOL     OW23584   1.367   2.049   1.978 -0.5778  0.6593  0.8308
 6300SOL    HW123585   1.360   2.144   1.983  0.2527  0.6437  3.3075
 6300SOL    HW223586   1.418   2.033   1.898 -1.5382  2.1892 -0.1431
 6301SOL     OW23587   2.836  11.239   6.366 -0.5658 -0.7353 -0.1145
 6301SOL    HW123588   2.848  11.160   6.314  2.2645 -0.6631  0.3082
 6301SOL    HW223589   2.865  11.215   6.454 -0.3146  0.5798  0.1835
 6302SOL     OW23590   7.563   2.683  11.855  0.5599  0.3269  0.0996
 6302SOL    HW123591   7.598   2.595  11.866 -2.7106 -1.0733  0.5976
 6302SOL    HW223592   7.567   2.722  11.943  0.9932  0.2517  0.1141
 6303SOL     OW23593   9.288   9.974   7.848  0.2001  0.2065 -0.4866
 6303SOL    HW123594   9.201  10.003   7.822  0.4270  0.6747 -0.7336
 6303SOL    HW223595   9.322   9.927   7.772 -0.3206 -1.0928  0.0477
 6304SOL     OW23596  10.614   6.590   3.102 -0.2929 -0.6103 -0.1585
 6304SOL    HW123597  10.662   6.583   3.184  0.5204 -1.1849 -0.6706
 6304SOL    HW223598  10.534   6.638   3.125  1.2059  1.7883  0.4528
 6305SOL     OW23599   8.852   5.085   9.741 -0.3992 -0.1648 -0.1009
 6305SOL    HW123600   8.778   5.139   9.712 -1.8728 -1.1594  1.6365
 6305SOL    HW223601   8.832   4.997   9.709  0.2370 -0.3769  0.0740
 6306SOL     OW23602   4.223  10.716   0.793  0.4909  0.4489 -0.1850
 6306SOL    HW123603   4.300  10.682   0.748 -0.1927 -0.3211 -0.7876
 6306SOL    HW223604   4.259  10.775   0.859  1.7279 -1.2821  0.7900
 6307SOL     OW23605   6.454  11.745   0.916  0.3201 -0.4162  0.0032
 6307SOL    HW123606   6.499  11.807   0.972 -0.2728  0.4791 -0.4849
 6307SOL    HW223607   6.368  11.734   0.957  0.1075 -0.2322 -0.3905
 6308SOL     OW23608   9.959   0.778   4.711  0.8263 -0.5452 -0.0543
 6308SOL    HW123609  10.034   0.746   4.761  1.3595 -0.6300 -0.8783
 6308SOL    HW223610   9.929   0.701   4.661  0.7904 -0.2771 -0.4509
 6309SOL     OW23611   4.345   6.167   4.704  0.2426  0.2326 -0.1135
 6309SOL    HW123612   4.266   6.193   4.751  0.2164 -0.8127  0.4682
 6309SOL    HW223613   4.321   6.086   4.659  0.7310  0.3741 -0.6349
 6310SOL     OW23614   6.759   3.723  10.589 -0.1631 -0.2503  0.3303
 6310SOL    HW123615   6.720   3.671  10.659 -0.2042 -0.3311  0.2488
 6310SOL    HW223616   6.752   3.667  10.511  2.2454 -1.2655  0.7478
 6311SOL     OW23617   5.483  10.684   2.175  0.2369 -0.1538 -0.1569
 6311SOL    HW123618   5.479  10.598   2.132  0.5549 -0.1657 -0.1705
 6311SOL    HW223619   5.444  10.669   2.261  0.4850 -0.3652 -0.0792
 6312SOL     OW23620   5.522   5.197   4.522  0.9222  0.2058 -0.7999
 6312SOL    HW123621   5.570   5.249   4.457  0.4032  2.2493  0.3620
 6312SOL    HW223622   5.453   5.154   4.473  1.5390  0.3890 -1.8555
 6313SOL     OW23623   8.376  11.900   5.988  0.4017  0.0375  0.6914
 6313SOL    HW123624   8.431  11.935   5.917 -0.9415  0.8299 -0.0163
 6313SOL    HW223625   8.319  11.974   6.011 -2.5989 -1.5909 -0.8953
 6314SOL     OW23626   6.165   3.450   2.101 -0.1084  0.0157 -0.4073
 6314SOL    HW123627   6.216   3.479   2.026  0.1808 -2.2636 -1.1601
 6314SOL    HW223628   6.193   3.359   2.115 -4.4702 -1.6974 -1.3889
 6315SOL     OW23629   2.758   4.534   2.784 -0.4531 -0.5740 -0.2420
 6315SOL    HW123630   2.812   4.525   2.862  1.4908 -0.5650 -1.5290
 6315SOL    HW223631   2.790   4.612   2.740  0.3434 -1.9925 -2.3790
 6316SOL     OW23632   1.170   7.351  11.097  0.1790  0.8878  0.2803
 6316SOL    HW123633   1.106   7.338  11.168 -0.9291  0.9964 -0.6578
 6316SOL    HW223634   1.118   7.388  11.025  1.7052  3.1304  0.2169
 6317SOL     OW23635   2.532   8.236   9.794  0.2589 -0.3290 -0.2559
 6317SOL    HW123636   2.497   8.227   9.882  2.4423  1.2308  0.8993
 6317SOL    HW223637   2.456   8.232   9.736 -1.2489 -1.2511  1.6960
 6318SOL     OW23638   8.250   0.971   9.486 -0.3275 -0.5231  0.1055
 6318SOL    HW123639   8.221   1.022   9.561  1.7261 -0.8840  1.2216
 6318SOL    HW223640   8.262   0.882   9.519 -2.0027 -1.3462 -1.3496
 6319SOL     OW23641   6.171   2.959  11.678  0.1418  0.1654 -0.1499
 6319SOL    HW123642   6.091   2.999  11.710  1.6324  0.6700  3.3231
 6319SOL    HW223643   6.174   2.873  11.720 -0.3700 -1.5648 -3.3180
 6320SOL     OW23644   0.218  11.062   6.331  0.1837  0.4219  0.4123
 6320SOL    HW123645   0.266  11.006   6.270 -0.6514  1.7071 -1.5123
 6320SOL    HW223646   0.169  11.000   6.386  2.6229 -0.8422  1.2989
 6321SOL     OW23647   0.305  11.955   4.932  0.0072  0.6141 -0.5002
 6321SOL    HW123648   0.389  11.913   4.915  0.7684  1.5253  0.8068
 6321SOL    HW223649   0.253  11.937   4.854  1.3502 -0.1051 -1.2735
 6322SOL     OW23650   6.913   0.454   9.304  0.5824  0.2004  0.1233
 6322SOL    HW123651   6.923   0.493   9.217  0.1920  1.5784  0.6600
 6322SOL    HW223652   6.938   0.363   9.293  0.4344  0.3246 -1.4577
 6323SOL     OW23653   0.609   6.172   6.876  0.7616 -0.4121  0.0015
 6323SOL    HW123654   0.530   6.179   6.930  0.3445  2.2947 -0.7916
 6323SOL    HW223655   0.607   6.083   6.842 -2.8916 -0.0213 -1.2883
 6324SOL     OW23656   5.546  11.874   8.123  0.3577 -0.0654  0.2033
 6324SOL    HW123657   5.628  11.829   8.102 -1.4153 -3.7851  0.4535
 6324SOL    HW223658   5.489  11.857   8.048 -1.4678 -1.2654  1.7745
 6325SOL     OW23659   9.683   0.594  11.017  0.1325 -0.0258  0.0379
 6325SOL    HW123660   9.697   0.678  10.974 -2.8102  0.8336  0.5073
 6325SOL    HW223661   9.681   0.530  10.945 -1.6288  0.9471 -0.8480
 6326SOL     OW23662   6.154   1.034   5.311  0.7448 -0.1499 -0.3818
 6326SOL    HW123663   6.243   1.042   5.346  0.5275 -0.1182  0.1647
 6326SOL    HW223664   6.165   0.980   5.232  1.0268 -1.6094  0.6129
 6327SOL     OW23665  10.778   5.859   7.093  0.4102 -0.2469  0.3365
 6327SOL    HW123666  10.755   5.776   7.051 -0.6076 -0.5390  1.3918
 6327SOL    HW223667  10.873   5.862   7.092  0.4222 -0.0617 -2.2727
 6328SOL     OW23668   9.738   5.550   6.517  0.0648 -0.3082  0.2879
 6328SOL    HW123669   9.735   5.620   6.582  0.9843 -0.5556  0.6101
 6328SOL    HW223670   9.756   5.471   6.568  0.7727 -0.5074 -0.2582
 6329SOL     OW23671  10.629   1.076   9.399  0.1172 -0.4001 -0.5028
 6329SOL    HW123672  10.553   1.053   9.345  0.7773  0.1239 -1.6857
 6329SOL    HW223673  10.704   1.050   9.347  0.7855  0.5732 -0.0414
 6330SOL     OW23674  11.320   2.267   4.565  0.2508  0.0464 -0.2618
 6330SOL    HW123675  11.318   2.341   4.626 -0.1506 -0.3070  0.1603
 6330SOL    HW223676  11.231   2.231   4.568  0.3355 -0.2080 -0.7696
 6331SOL     OW23677  11.822   2.869   4.439  0.1507  0.7198 -0.3069
 6331SOL    HW123678  11.884   2.805   4.475 -0.1833  0.9528  0.7134
 6331SOL    HW223679  11.744   2.861   4.495  0.5174  2.8086  0.5681
 6332SOL     OW23680   0.403   1.421   0.952 -0.2372 -0.3106 -0.5077
 6332SOL    HW123681   0.473   1.369   0.913 -1.1027  0.1894 -2.9359
 6332SOL    HW223682   0.331   1.360   0.966  0.4438 -0.7187  1.4957
 6333SOL     OW23683   2.713  10.535  10.019  0.1066 -0.8399  0.4488
 6333SOL    HW123684   2.757  10.458  10.055 -1.6471 -1.5769  1.1672
 6333SOL    HW223685   2.707  10.518   9.925  1.0369 -0.8844  0.3958
 6334SOL     OW23686   9.639   6.285   7.428 -0.2853  0.4408  0.2764
 6334SOL    HW123687   9.640   6.263   7.521 -0.1462 -1.6080 -0.1609
 6334SOL    HW223688   9.720   6.333   7.413 -0.5213  1.1839  1.2753
 6335SOL     OW23689   6.475   8.643   4.939  0.3567  0.6249 -0.4017
 6335SOL    HW123690   6.542   8.710   4.957 -0.0024  0.6843  0.7615
 6335SOL    HW223691   6.413   8.686   4.881  0.3672  1.1514 -0.0226
 6336SOL     OW23692   2.143   8.628  10.152  0.1708 -0.4651  0.3381
 6336SOL    HW123693   2.127   8.652  10.243  0.8956 -0.4956  0.4807
 6336SOL    HW223694   2.207   8.557  10.157 -1.3837 -1.9658 -0.1070
 6337SOL     OW23695   0.048   1.780   5.055  0.1750  0.1509 -0.0512
 6337SOL    HW123696   0.135   1.739   5.063  0.2412  0.4243  0.7404
 6337SOL    HW223697   0.054   1.834   4.977  1.6403  2.3349  1.4651
 6338SOL     OW23698   1.998   0.070   4.567 -0.2705 -0.2878  0.1020
 6338SOL    HW123699   1.918   0.098   4.523 -0.2748 -0.7417 -0.1849
 6338SOL    HW223700   2.069   0.099   4.510 -0.1789  0.8745  0.7742
 6339SOL     OW23701  11.556   1.396   6.408  0.3246 -0.0569 -0.9654
 6339SOL    HW123702  11.520   1.323   6.459 -1.0397 -0.2749 -2.1742
 6339SOL    HW223703  11.639   1.363   6.374  0.9325 -0.1423  0.5217
 6340SOL     OW23704   1.220   5.129   0.806 -0.0853  0.1007  0.2365
 6340SOL    HW123705   1.141   5.121   0.860 -0.1867  0.8827  0.2093
 6340SOL    HW223706   1.213   5.215   0.765  2.1617  1.4501  2.4450
 6341SOL     OW23707  11.947   7.400   2.938 -0.1596 -0.1193  0.3171
 6341SOL    HW123708  11.903   7.464   2.883  1.6564  0.4382 -0.5884
 6341SOL    HW223709  11.896   7.320   2.927  0.4669 -0.2289 -2.8208
 6342SOL     OW23710  10.659   1.422   0.609  0.2651  0.5542 -0.2720
 6342SOL    HW123711  10.575   1.467   0.605  0.9410  1.8080 -0.9349
 6342SOL    HW223712  10.707   1.453   0.532  1.4888  0.1891  0.3097
 6343SOL     OW23713  10.176   4.577   9.072 -0.0216 -0.4417  0.3062
 6343SOL    HW123714  10.201   4.513   9.139  3.4748  2.6407  2.3570
 6343SOL    HW223715  10.255   4.586   9.018 -1.0812  0.7521 -1.1102
 6344SOL     OW23716   4.211   4.311   2.675  0.3632 -0.5431  0.1135
 6344SOL    HW123717   4.236   4.235   2.623  0.7831  0.5338 -1.3403
 6344SOL    HW223718   4.126   4.337   2.639  0.3544 -0.1633  0.4041
 6345SOL     OW23719  11.828   9.354   9.836  0.0263 -0.0603  0.8374
 6345SOL    HW123720  11.742   9.396   9.837 -0.9944 -2.0189  0.5093
 6345SOL    HW223721  11.890   9.427   9.832 -1.6402  1.3898 -1.0761
 6346SOL     OW23722  10.706   6.370   6.883  0.4503  0.2282  0.1303
 6346SOL    HW123723  10.775   6.305   6.892 -0.1915 -0.4691  0.1195
 6346SOL    HW223724  10.643   6.349   6.952 -0.0734  0.4348 -0.2692
 6347SOL     OW23725  11.314   8.090   4.681  1.1833  0.7525 -0.0650
 6347SOL    HW123726  11.359   8.111   4.599  0.8819 -1.9153 -1.0107
 6347SOL    HW223727  11.384   8.057   4.738  0.9881 -0.1100 -0.3066
 6348SOL     OW23728   5.536   1.545   6.953 -0.3437 -0.4359  0.4004
 6348SOL    HW123729   5.446   1.544   6.921 -0.1625  2.3185 -0.4053
 6348SOL    HW223730   5.583   1.484   6.897 -1.0217  0.7651 -1.5621
 6349SOL     OW23731   0.347   4.402   4.974 -0.4884 -0.1107 -0.4200
 6349SOL    HW123732   0.280   4.393   4.906 -1.1976  0.8970  0.1235
 6349SOL    HW223733   0.426   4.365   4.934 -1.2873 -1.0731 -1.1740
 6350SOL     OW23734   0.237  10.981   9.792 -0.3415 -0.5648 -0.0820
 6350SOL    HW123735   0.246  10.970   9.887  0.9250  1.9492  0.1551
 6350SOL    HW223736   0.303  10.922   9.755  2.8740  2.1679  0.8870
 6351SOL     OW23737   0.330  11.903   7.328 -0.5356  0.0299 -0.3305
 6351SOL    HW123738   0.388  11.966   7.284  0.0076 -0.4330 -0.2948
 6351SOL    HW223739   0.249  11.906   7.278  0.9920 -2.6811 -3.4106
 6352SOL     OW23740   3.213   0.068   7.389  0.6903  0.7033  0.0831
 6352SOL    HW123741   3.174   0.110   7.465  2.6647 -1.0593  2.2396
 6352SOL    HW223742   3.239  -0.019   7.420  0.0158 -0.7994 -3.1264
 6353SOL     OW23743   1.184   2.674   1.683  0.5813 -0.0447 -0.0130
 6353SOL    HW123744   1.234   2.727   1.621  0.1932 -0.0571 -0.3391
 6353SOL    HW223745   1.166   2.733   1.756 -0.8055  0.6142 -0.8585
 6354SOL     OW23746   2.098   8.494  11.612  0.6199 -0.0338  0.4526
 6354SOL    HW123747   2.146   8.412  11.622  0.1143 -0.1279  2.5247
 6354SOL    HW223748   2.050   8.484  11.530  0.0083 -2.1336  1.0064
 6355SOL     OW23749   3.956   2.615   1.838  0.1289 -0.2603  0.1679
 6355SOL    HW123750   4.038   2.624   1.886  0.7857 -0.8867 -0.8184
 6355SOL    HW223751   3.920   2.531   1.868 -1.8826  1.4729  3.1291
 6356SOL     OW23752  10.032  10.212   2.730 -0.3278 -0.0391 -0.1410
 6356SOL    HW123753  10.097  10.239   2.795 -0.1046  0.2643 -0.4886
 6356SOL    HW223754  10.054  10.262   2.651 -1.8886  1.2209  0.1677
 6357SOL     OW23755  10.727   0.726   9.959 -0.0326 -0.1794 -0.4372
 6357SOL    HW123756  10.678   0.644   9.959  1.4018 -1.0623 -0.6860
 6357SOL    HW223757  10.815   0.702   9.932 -0.0833  1.7628 -2.6833
 6358SOL     OW23758   8.465   6.313  11.604 -0.2960 -0.1709 -0.7549
 6358SOL    HW123759   8.511   6.382  11.652 -1.1940 -1.0469  1.4882
 6358SOL    HW223760   8.530   6.243  11.595 -1.1564 -1.6668  2.9693
 6359SOL     OW23761   0.840   8.586   1.220 -0.1116 -0.1691 -0.4512
 6359SOL    HW123762   0.873   8.541   1.298 -0.4706  1.2882  0.5905
 6359SOL    HW223763   0.760   8.629   1.250  1.2723  2.8594 -0.7850
 6360SOL     OW23764   6.799   5.093   8.057 -0.8309 -0.2584 -0.6328
 6360SOL    HW123765   6.750   5.173   8.078  0.3749  0.5058 -0.6949
 6360SOL    HW223766   6.890   5.116   8.073 -0.0205 -0.4073 -4.2989
 6361SOL     OW23767   3.774   9.393   1.786 -0.2394 -0.0031  0.3355
 6361SOL    HW123768   3.771   9.300   1.763 -1.1972  0.0190  0.3359
 6361SOL    HW223769   3.688   9.427   1.763  0.7856  1.4043 -1.6897
 6362SOL     OW23770   2.556   1.858   3.426 -0.2130 -0.1559 -0.1668
 6362SOL    HW123771   2.639   1.906   3.419 -0.9548  1.0559 -1.0982
 6362SOL    HW223772   2.561   1.814   3.511  2.1813 -1.7068 -1.0118
 6363SOL     OW23773  10.791   9.507   6.408  0.5979 -0.8030  0.1285
 6363SOL    HW123774  10.791   9.571   6.337  0.2732  0.6751  1.4098
 6363SOL    HW223775  10.713   9.454   6.392 -1.6008  1.8421  1.3216
 6364SOL     OW23776  10.861   4.466   3.215  0.1837 -0.9702  0.1563
 6364SOL    HW123777  10.819   4.398   3.266 -0.4456  0.3391  1.4443
 6364SOL    HW223778  10.885   4.534   3.278  1.3260 -0.2376 -0.9898
 6365SOL     OW23779   6.187  10.542  11.550 -0.2472  0.1459 -0.2434
 6365SOL    HW123780   6.254  10.478  11.575  0.4421  0.9021 -0.0976
 6365SOL    HW223781   6.230  10.596  11.483 -0.4384  1.1150  0.3931
 6366SOL     OW23782  11.206   4.787   7.565 -0.8747  0.2922 -0.1761
 6366SOL    HW123783  11.177   4.697   7.577  1.1632 -0.2340  1.4582
 6366SOL    HW223784  11.278   4.781   7.503  1.3234  0.2552  2.2288
 6367SOL     OW23785   2.722   0.811   6.988  0.5955  0.0350  0.5457
 6367SOL    HW123786   2.646   0.818   6.930  1.3967  1.5183 -0.3882
 6367SOL    HW223787   2.798   0.815   6.929  1.4130  0.3890  1.5915
 6368SOL     OW23788   2.488  10.167   4.929 -0.0932  0.5746  0.0338
 6368SOL    HW123789   2.478  10.127   5.016  1.4402 -0.8203 -0.3730
 6368SOL    HW223790   2.405  10.150   4.885 -0.5073  0.3760  0.8611
 6369SOL     OW23791   5.399   7.655   4.147  0.2261  0.3269  0.0559
 6369SOL    HW123792   5.304   7.660   4.149 -0.0763 -0.7593 -3.6742
 6369SOL    HW223793   5.419   7.605   4.068  3.9215  0.6962  0.5610
 6370SOL     OW23794   6.788  11.978  10.198  0.2822  0.3758 -0.1836
 6370SOL    HW123795   6.854  12.040  10.228 -0.7538  0.8376  1.2593
 6370SOL    HW223796   6.707  12.030  10.192 -0.0487 -0.2563 -1.5342
 6371SOL     OW23797   1.698   0.165   3.710 -0.3829  0.1584 -0.3726
 6371SOL    HW123798   1.768   0.128   3.656  0.8135  3.2840 -1.1934
 6371SOL    HW223799   1.618   0.127   3.675  0.7036 -2.1651 -0.5767
 6372SOL     OW23800   8.765   0.723   7.778 -0.0420 -0.2364 -0.5230
 6372SOL    HW123801   8.845   0.774   7.788 -1.2596  1.7609 -0.4612
 6372SOL    HW223802   8.729   0.750   7.693  0.6577 -3.1349 -1.8788
 6373SOL     OW23803   3.909  10.628  10.288 -0.0964  0.3742  0.2722
 6373SOL    HW123804   3.873  10.674  10.364 -0.2809  1.4324 -0.4372
 6373SOL    HW223805   3.928  10.540  10.321 -0.2555  0.7799  1.5185
 6374SOL     OW23806   8.393   3.527   2.876 -0.7210 -0.3897 -0.3541
 6374SOL    HW123807   8.482   3.493   2.879 -0.3235  0.5288 -1.2797
 6374SOL    HW223808   8.402   3.621   2.888 -1.5017 -0.2115 -1.0278
 6375SOL     OW23809   2.046   7.567   4.480  0.1702  0.0990  0.1366
 6375SOL    HW123810   2.049   7.597   4.571 -0.2147  0.8057 -0.0754
 6375SOL    HW223811   2.133   7.531   4.463  1.0793  2.1867  0.0517
 6376SOL     OW23812  11.835  11.649   5.587  0.5038 -0.6863 -0.0263
 6376SOL    HW123813  11.774  11.651   5.514  0.2371  0.3288  0.2163
 6376SOL    HW223814  11.888  11.570   5.572 -0.3076 -1.1142 -0.6785
 6377SOL     OW23815   9.777   7.750   8.190  0.7662 -0.0002 -0.2350
 6377SOL    HW123816   9.713   7.760   8.119  1.2073  1.3805 -0.4715
 6377SOL    HW223817   9.862   7.762   8.148  1.0850 -0.0629  0.3818
 6378SOL     OW23818   1.552  11.964  10.793 -0.2345  0.3092 -0.1562
 6378SOL    HW123819   1.552  11.921  10.879  0.0127 -2.9416 -1.6197
 6378SOL    HW223820   1.644  11.969  10.769 -0.2532  1.8952  0.0288
 6379SOL     OW23821  10.717   7.142   6.155  0.5620 -0.5125 -0.2455
 6379SOL    HW123822  10.764   7.068   6.116  0.3700 -0.8430  0.1357
 6379SOL    HW223823  10.781   7.183   6.213  0.5493 -0.6266 -0.1494
 6380SOL     OW23824   9.854  10.104   1.877 -0.8304  0.1178 -1.0834
 6380SOL    HW123825   9.817  10.072   1.960 -1.6710 -0.2379 -1.5746
 6380SOL    HW223826   9.938  10.143   1.901 -0.3614 -1.3184 -0.2650
 6381SOL     OW23827   3.508   1.595   5.469 -0.0156  0.3292  0.7025
 6381SOL    HW123828   3.435   1.597   5.531  0.2960 -0.0556  1.0821
 6381SOL    HW223829   3.491   1.669   5.410 -0.5863  0.3851  0.9280
 6382SOL     OW23830   3.339   0.361   8.442  0.4530  0.2394  0.4724
 6382SOL    HW123831   3.365   0.449   8.412 -0.0020  0.8353  1.7372
 6382SOL    HW223832   3.421   0.312   8.443  0.6998  0.6037 -0.3624
 6383SOL     OW23833  11.308   0.638  10.114  0.0053 -0.2444 -0.4602
 6383SOL    HW123834  11.342   0.549  10.105  1.8009  0.4554 -1.1393
 6383SOL    HW223835  11.312   0.655  10.208 -0.9907 -1.0986 -0.2497
 6384SOL     OW23836   2.202  10.375   3.194 -0.4051  0.2355  0.8614
 6384SOL    HW123837   2.269  10.441   3.212  0.0329 -0.2157  0.9068
 6384SOL    HW223838   2.226  10.338   3.109 -0.8903  0.4317  0.6380
 6385SOL     OW23839   5.548   8.537   0.306  0.2624 -0.5405 -0.0964
 6385SOL    HW123840   5.482   8.531   0.374  0.5069 -3.2966  0.0059
 6385SOL    HW223841   5.611   8.601   0.339 -0.6317 -0.3509  1.3266
 6386SOL     OW23842   8.696   7.867   4.145  0.0344  0.1339  0.2889
 6386SOL    HW123843   8.767   7.805   4.127  0.5166  1.0356 -1.1084
 6386SOL    HW223844   8.651   7.830   4.221  1.3820 -0.9838  0.5947
 6387SOL     OW23845   2.635   1.732   0.898  0.1296 -0.1449 -0.1761
 6387SOL    HW123846   2.589   1.762   0.819  1.8832  0.3541 -1.0698
 6387SOL    HW223847   2.727   1.746   0.878  0.7501 -1.9934  1.1597
 6388SOL     OW23848  11.429  10.352   2.592 -0.2287 -0.0295 -0.7228
 6388SOL    HW123849  11.390  10.414   2.654  1.5490  0.2511  0.1623
 6388SOL    HW223850  11.384  10.370   2.509 -2.2029  0.0225  0.2981
 6389SOL     OW23851   8.031   4.369   8.840  0.1954 -0.5332  0.0687
 6389SOL    HW123852   8.073   4.317   8.909 -0.0885 -1.2485 -0.2794
 6389SOL    HW223853   7.974   4.429   8.887  0.8794 -0.2165  0.5015
 6390SOL     OW23854   9.953   1.911   8.435  0.3169 -0.0489 -0.0760
 6390SOL    HW123855  10.001   1.856   8.497 -0.5989 -1.2966 -0.4530
 6390SOL    HW223856   9.878   1.859   8.409 -1.0459  1.6946  0.1655
 6391SOL     OW23857   1.414   6.094   5.964 -0.1260 -0.0636 -0.3454
 6391SOL    HW123858   1.350   6.164   5.976  1.0544  0.8507  0.8467
 6391SOL    HW223859   1.479   6.109   6.032 -0.6225 -3.2501  1.0026
 6392SOL     OW23860   8.702   2.026   0.420 -0.1492  0.4572 -0.0572
 6392SOL    HW123861   8.751   2.071   0.351  0.9520 -1.0963 -0.3618
 6392SOL    HW223862   8.756   2.036   0.498 -0.4457  0.5974  0.1284
 6393SOL     OW23863  10.128  11.973   1.701 -0.0892  0.3091  0.1592
 6393SOL    HW123864  10.212  11.944   1.736  0.9495  1.3319 -1.3736
 6393SOL    HW223865  10.140  11.974   1.606 -2.4650 -1.3396 -0.2605
 6394SOL     OW23866   0.890   2.907  11.102 -0.4218  0.7122 -0.1515
 6394SOL    HW123867   0.925   2.967  11.168  1.4882 -0.9305  0.4140
 6394SOL    HW223868   0.957   2.904  11.034 -1.6860  1.1895 -1.4882
 6395SOL     OW23869   4.619  10.188   1.842 -0.3324  0.6729  0.0194
 6395SOL    HW123870   4.608  10.280   1.816  2.9989  1.2244  0.0595
 6395SOL    HW223871   4.542  10.144   1.806 -0.1242  2.8055 -3.6271
 6396SOL     OW23872   4.659   7.447   3.730  0.3946 -0.2543 -0.1584
 6396SOL    HW123873   4.575   7.440   3.686 -0.7170 -2.7610  2.0803
 6396SOL    HW223874   4.651   7.525   3.786 -0.3306 -0.3111 -0.1843
 6397SOL     OW23875  10.271   7.011   9.518 -0.7391 -0.1635  0.1519
 6397SOL    HW123876  10.248   7.019   9.611  1.4636 -0.3065  0.7890
 6397SOL    HW223877  10.292   6.918   9.508  1.0781  0.2046  0.1109
 6398SOL     OW23878  10.622   7.161   3.194  0.4675 -0.3919 -0.0676
 6398SOL    HW123879  10.541   7.109   3.191  1.1196 -1.5262  1.1058
 6398SOL    HW223880  10.653   7.161   3.103 -0.2553 -0.9102 -0.3308
 6399SOL     OW23881   0.906   6.211   1.321  0.0526 -0.4316 -0.3031
 6399SOL    HW123882   0.965   6.163   1.263  0.9758 -0.0583  0.3027
 6399SOL    HW223883   0.834   6.150   1.336  0.8958 -1.4073 -0.0375
 6400SOL     OW23884   2.096   0.459   1.695  0.0751 -0.1801 -0.2812
 6400SOL    HW123885   2.124   0.522   1.763 -1.6907  0.1349  0.1945
 6400SOL    HW223886   2.042   0.510   1.635 -0.0008 -0.8924 -0.8350
 6401SOL     OW23887  11.884  10.470   8.833 -0.3618  0.1489  0.6207
 6401SOL    HW123888  11.973  10.465   8.796  0.1105  1.7385  1.4428
 6401SOL    HW223889  11.837  10.527   8.772 -0.7623 -0.4744  0.3341
 6402SOL     OW23890   8.709   8.618   3.355 -0.1030 -0.3227 -0.3980
 6402SOL    HW123891   8.629   8.591   3.311 -0.6841  1.3940 -0.4527
 6402SOL    HW223892   8.779   8.572   3.308 -0.7769  0.7684 -2.5768
 6403SOL     OW23893   6.135   9.286   1.443 -0.6432 -0.4091 -0.0401
 6403SOL    HW123894   6.143   9.204   1.493 -2.6019 -0.4866  0.2062
 6403SOL    HW223895   6.225   9.318   1.436 -0.1911 -0.7324  2.9604
 6404SOL     OW23896  11.776   4.956   8.468 -0.5278 -0.0058 -0.3839
 6404SOL    HW123897  11.817   4.871   8.479 -0.3918  0.2479  1.2721
 6404SOL    HW223898  11.723   4.947   8.389  0.8630 -1.0612 -1.2337
 6405SOL     OW23899   1.915  11.687   8.733 -0.0359 -0.0197  0.8050
 6405SOL    HW123900   1.850  11.628   8.771  0.1759 -0.0622  1.1144
 6405SOL    HW223901   1.874  11.722   8.654 -0.2769 -0.3537  0.7817
 6406SOL     OW23902   1.264   1.351   5.485  0.0476  0.0265  0.6886
 6406SOL    HW123903   1.261   1.288   5.413 -0.0849  0.2828  0.4711
 6406SOL    HW223904   1.241   1.299   5.562  1.8631 -0.6306  0.8257
 6407SOL     OW23905   4.327   4.290   7.321 -0.6044  0.2267 -0.4715
 6407SOL    HW123906   4.257   4.271   7.384 -0.3076  1.4843  0.2768
 6407SOL    HW223907   4.291   4.361   7.268  0.3523  1.4059  0.4043
 6408SOL     OW23908  10.630   0.908   7.887 -0.1791 -0.1680  0.2057
 6408SOL    HW123909  10.609   0.997   7.860 -0.7157 -0.5717 -0.7968
 6408SOL    HW223910  10.623   0.856   7.806  2.8577 -0.6958  0.1590
 6409SOL     OW23911  10.927   7.628  10.372  0.3099  0.2119 -0.6820
 6409SOL    HW123912  10.896   7.650  10.460  0.0314  1.1999 -1.0134
 6409SOL    HW223913  11.005   7.681  10.360  0.1103  0.4019 -1.1812
 6410SOL     OW23914  11.992   7.083   1.859  0.1707  0.0659 -0.5238
 6410SOL    HW123915  11.999   7.169   1.819  0.1810 -0.0579 -0.7904
 6410SOL    HW223916  12.030   7.094   1.946 -0.4913  0.5074 -0.2829
 6411SOL     OW23917   8.862  10.470   7.623  0.6819  0.6231 -0.2218
 6411SOL    HW123918   8.939  10.527   7.633 -1.0170  2.9491  0.6591
 6411SOL    HW223919   8.793  10.529   7.594 -0.7201 -1.4610 -1.3031
 6412SOL     OW23920   1.444   7.035   9.241 -0.6776  0.2826  0.1543
 6412SOL    HW123921   1.418   7.048   9.149 -0.7295  0.2078  0.1581
 6412SOL    HW223922   1.381   7.088   9.291 -1.0998 -0.2402  0.1898
 6413SOL     OW23923   7.049   9.224   2.220  0.1508  0.6463  0.0676
 6413SOL    HW123924   6.991   9.154   2.250  0.0364  0.2960 -0.9134
 6413SOL    HW223925   7.018   9.302   2.266  1.0285 -0.1285  2.0966
 6414SOL     OW23926   4.095  11.695   3.032  0.3506  0.4276  0.5890
 6414SOL    HW123927   4.122  11.669   3.121  2.6258  1.5728  0.3276
 6414SOL    HW223928   4.139  11.632   2.975 -1.5376 -0.6327  0.2456
 6415SOL     OW23929   0.301   9.708   3.503 -0.3604  0.0204 -0.3364
 6415SOL    HW123930   0.254   9.777   3.455 -2.8209 -0.2901  1.4402
 6415SOL    HW223931   0.305   9.635   3.441 -1.7570  0.2736 -0.7758
 6416SOL     OW23932   8.500   6.852   2.344 -0.3840  0.6382  0.0647
 6416SOL    HW123933   8.497   6.840   2.439  0.7587 -0.9568 -0.0540
 6416SOL    HW223934   8.553   6.931   2.331  0.5431  0.1498  0.7418
 6417SOL     OW23935  11.371  11.723   1.776  0.2691  0.0076  0.2402
 6417SOL    HW123936  11.310  11.688   1.711 -0.3895  0.9330  0.3409
 6417SOL    HW223937  11.457  11.712   1.737 -0.1547  1.2025 -1.1327
 6418SOL     OW23938   6.052   3.032   1.130 -0.4607 -0.1428 -0.6171
 6418SOL    HW123939   6.083   3.065   1.045  2.8150 -0.8666  0.1650
 6418SOL    HW223940   6.075   3.100   1.192 -0.1835 -0.8504  0.0638
 6419SOL     OW23941   9.415   7.638   6.549  0.0465 -0.0485 -0.2932
 6419SOL    HW123942   9.373   7.552   6.554  0.4827 -0.2750 -0.4363
 6419SOL    HW223943   9.476   7.630   6.476  0.3745  0.2566 -0.0530
 6420SOL     OW23944   8.650  11.972   1.462 -0.3887  0.1320 -0.5826
 6420SOL    HW123945   8.679  12.062   1.445  1.1974 -0.2074  0.1570
 6420SOL    HW223946   8.728  11.919   1.450 -1.0217 -1.0194  0.1808
 6421SOL     OW23947   7.022   4.024   8.634 -0.1730  0.5231 -0.2403
 6421SOL    HW123948   6.956   4.002   8.700  0.1379  0.8064  0.1654
 6421SOL    HW223949   6.995   4.109   8.601  1.0720  1.5830  1.3408
 6422SOL     OW23950   5.925   6.674   0.709 -0.3419 -0.3860 -0.1322
 6422SOL    HW123951   5.918   6.631   0.794 -1.5976 -0.4864 -0.2748
 6422SOL    HW223952   5.924   6.601   0.646  0.4532 -0.3043 -0.2595
 6423SOL     OW23953   4.813   1.712   1.617  0.0786 -0.1746 -0.3371
 6423SOL    HW123954   4.896   1.697   1.572 -0.2265  0.9935 -1.3489
 6423SOL    HW223955   4.825   1.672   1.703  0.6138 -2.7260 -1.4753
 6424SOL     OW23956  11.874   3.345   5.449  0.0437 -0.4903  0.0951
 6424SOL    HW123957  11.780   3.326   5.441 -0.2858  1.2909 -0.7484
 6424SOL    HW223958  11.902   3.297   5.527 -2.2686  1.3868  2.2619
 6425SOL     OW23959   5.783  10.665   6.635  0.2604 -0.0224  0.3128
 6425SOL    HW123960   5.708  10.605   6.637 -0.0383  0.3572  0.9078
 6425SOL    HW223961   5.771  10.721   6.712  1.1934  0.0022  0.4558
 6426SOL     OW23962   0.818  11.293   5.764 -0.0135  0.5371  0.8275
 6426SOL    HW123963   0.897  11.303   5.818  0.7641 -2.4077  0.4281
 6426SOL    HW223964   0.818  11.200   5.739 -2.1642  1.0481 -1.4553
 6427SOL     OW23965  11.505  11.040  11.792 -0.1477  0.7303  0.0521
 6427SOL    HW123966  11.469  10.985  11.722  0.1225  2.2876 -1.3761
 6427SOL    HW223967  11.491  11.130  11.761  1.7579  1.4404  1.1047
 6428SOL     OW23968  10.557   8.768   5.910  0.2400 -0.7616  0.1310
 6428SOL    HW123969  10.530   8.683   5.947 -0.5414  0.6109  3.0238
 6428SOL    HW223970  10.649   8.776   5.937 -0.3363  0.2534  1.9197
 6429SOL     OW23971   8.479   4.283   4.981 -0.1075  0.4903 -0.7068
 6429SOL    HW123972   8.554   4.326   4.938  2.3266 -0.6252  2.0568
 6429SOL    HW223973   8.509   4.193   4.996 -2.3404 -0.2118 -0.1454
 6430SOL     OW23974   4.056   5.834   2.029  0.1646 -0.1893  0.1313
 6430SOL    HW123975   4.042   5.839   1.935 -0.7203 -1.2812  0.1937
 6430SOL    HW223976   4.116   5.761   2.041 -0.2684 -0.4906  0.4696
 6431SOL     OW23977   0.225   7.371   5.458  0.0168 -0.4764  0.2368
 6431SOL    HW123978   0.158   7.431   5.425  0.9771  0.8477  0.6136
 6431SOL    HW223979   0.272   7.342   5.380  0.7060  0.7111  0.1908
 6432SOL     OW23980   2.235  10.051   7.110  0.1033  0.0265 -0.1437
 6432SOL    HW123981   2.180  10.061   7.187 -1.0276 -1.8098 -0.6573
 6432SOL    HW223982   2.218   9.962   7.079  0.7068  0.6207 -2.3726
 6433SOL     OW23983   8.897   4.103   1.298  0.2618  0.5538 -0.0888
 6433SOL    HW123984   8.980   4.062   1.323  0.6982  1.5284  0.1006
 6433SOL    HW223985   8.918   4.154   1.219 -0.2939  0.3400 -0.3825
 6434SOL     OW23986   7.283   0.642   4.335  0.3545  0.2593  0.2126
 6434SOL    HW123987   7.377   0.649   4.315 -0.0558  2.4627 -1.2833
 6434SOL    HW223988   7.254   0.565   4.286  0.7417  1.6640 -2.4070
 6435SOL     OW23989   7.180  10.932   3.326 -0.4392 -0.4167 -0.5473
 6435SOL    HW123990   7.126  10.907   3.250  2.3267 -0.9588 -2.4871
 6435SOL    HW223991   7.229  11.009   3.296 -2.3265  2.1293  2.2918
 6436SOL     OW23992   8.511   0.462   0.604 -0.0428 -0.8237  0.3465
 6436SOL    HW123993   8.553   0.548   0.603 -0.2234 -0.7397 -0.2622
 6436SOL    HW223994   8.433   0.474   0.658 -0.3249 -0.4811 -0.1326
 6437SOL     OW23995   7.020  11.822   6.519  0.1853  0.2388  0.0622
 6437SOL    HW123996   7.065  11.739   6.535  0.4555  0.0690 -1.4483
 6437SOL    HW223997   6.930  11.796   6.499  0.4850  0.2160 -1.3247
 6438SOL     OW23998   2.903   3.152   3.273  0.4148 -0.6201  0.1838
 6438SOL    HW123999   2.902   3.138   3.178  0.7932 -0.8359  0.2098
 6438SOL    HW224000   2.876   3.243   3.284  0.4483 -0.5702 -0.1360
 6439SOL     OW24001   1.601  10.606   5.018  0.8514 -0.2080  0.2140
 6439SOL    HW124002   1.563  10.523   4.986 -0.8970  0.5435  0.2213
 6439SOL    HW224003   1.690  10.583   5.044  0.1088 -2.3006  1.0957
 6440SOL     OW24004   6.368   9.203   1.762 -0.0338  0.2177  0.1617
 6440SOL    HW124005   6.298   9.158   1.715  1.2031 -1.8035  0.1079
 6440SOL    HW224006   6.432   9.134   1.781  1.9182  1.9443  0.2579
 6441SOL     OW24007   2.906   9.124   0.744 -0.0505  0.0815 -0.0163
 6441SOL    HW124008   2.903   9.144   0.651  0.0123  1.3881  0.2362
 6441SOL    HW224009   2.867   9.037   0.752 -0.5535  0.1857 -1.2014
 6442SOL     OW24010  11.857   4.576   6.031  0.2517 -0.5459  0.2701
 6442SOL    HW124011  11.937   4.563   6.082  0.6750 -1.5646 -0.6144
 6442SOL    HW224012  11.862   4.667   6.002  1.0574 -0.5723  0.2921
 6443SOL     OW24013   9.215   3.801   6.564 -0.2548 -0.4782  0.1321
 6443SOL    HW124014   9.154   3.847   6.622  0.9797  1.2146  0.1576
 6443SOL    HW224015   9.200   3.708   6.582  0.3954 -0.0415  3.5375
 6444SOL     OW24016  10.059  11.357   2.047 -0.2148  0.0481 -0.6586
 6444SOL    HW124017  10.072  11.392   1.959 -3.3172 -1.2179 -1.7471
 6444SOL    HW224018  10.012  11.427   2.094 -0.4160 -0.0874 -0.6612
 6445SOL     OW24019   3.174  11.190  11.012  0.1260 -0.3222  0.1149
 6445SOL    HW124020   3.079  11.200  11.007  0.1574  0.5305  0.8647
 6445SOL    HW224021   3.198  11.140  10.934 -0.8034  0.4456 -0.6743
 6446SOL     OW24022   0.873   1.243   2.572 -0.0059  0.0288 -0.0594
 6446SOL    HW124023   0.966   1.236   2.593  0.5600 -0.9359 -2.5643
 6446SOL    HW224024   0.860   1.334   2.548  0.1496  0.2800  0.7711
 6447SOL     OW24025  10.515   2.136   7.175  0.0636  0.2158  0.6646
 6447SOL    HW124026  10.517   2.227   7.144  1.2908  0.1569  0.5211
 6447SOL    HW224027  10.588   2.094   7.130 -0.8334 -0.9983  0.3065
 6448SOL     OW24028   7.769   9.229   3.561  0.0480 -0.3471 -0.7110
 6448SOL    HW124029   7.689   9.177   3.560 -0.7228  0.7821  0.1533
 6448SOL    HW224030   7.828   9.181   3.620 -1.5689  0.9708  2.2009
 6449SOL     OW24031  10.958   5.349  11.708 -0.0750 -0.4607  0.1224
 6449SOL    HW124032  11.041   5.377  11.747 -0.6564 -0.5798  1.5053
 6449SOL    HW224033  10.983   5.283  11.644  0.9829  0.3001 -0.2949
 6450SOL     OW24034   6.065   0.455   0.134 -0.4406 -0.6656  0.1618
 6450SOL    HW124035   5.978   0.421   0.111 -1.0761  1.3789 -0.6741
 6450SOL    HW224036   6.056   0.480   0.226 -0.4437 -1.2806  0.3352
 6451SOL     OW24037   5.391  11.719   2.510 -0.1723  0.5806  0.3000
 6451SOL    HW124038   5.380  11.750   2.600  1.1014  0.5705  0.4891
 6451SOL    HW224039   5.340  11.638   2.506 -2.5410  2.0109  0.1527
 6452SOL     OW24040   9.406   3.737   6.361 -0.0068 -0.1275  0.1214
 6452SOL    HW124041   9.362   3.654   6.342  1.5569 -0.8113 -0.7131
 6452SOL    HW224042   9.343   3.786   6.414 -0.9034 -1.9231  0.8105
 6453SOL     OW24043   6.887   9.048   1.400 -0.4995  0.6579  0.5271
 6453SOL    HW124044   6.961   9.096   1.437  0.6589  0.9213 -1.8784
 6453SOL    HW224045   6.916   8.956   1.399  0.4848  0.9253 -1.6920
 6454SOL     OW24046   7.951   0.026   2.569 -0.4505 -0.1165  0.0213
 6454SOL    HW124047   7.977   0.038   2.660  1.0912 -2.2300 -0.0733
 6454SOL    HW224048   8.031   0.037   2.519 -1.2493  0.8544 -1.1008
 6455SOL     OW24049   2.514   1.944   1.617 -0.2416 -0.1402 -0.3567
 6455SOL    HW124050   2.481   1.898   1.540  0.0247  0.8158 -1.0509
 6455SOL    HW224051   2.566   2.016   1.582  1.1608 -0.5739  0.7081
 6456SOL     OW24052   2.467   0.483   6.092  0.3622  0.3091 -1.0815
 6456SOL    HW124053   2.439   0.540   6.163  0.0256  2.0428 -2.5258
 6456SOL    HW224054   2.542   0.528   6.053  1.4708 -1.3359 -0.9454
 6457SOL     OW24055   2.187   1.313   6.819  0.3954  0.1960  0.4149
 6457SOL    HW124056   2.255   1.248   6.836  1.2158  1.3712  1.8967
 6457SOL    HW224057   2.127   1.304   6.893 -0.1307  0.3273  0.0095
 6458SOL     OW24058   8.883   9.927   8.754 -0.1633  0.2748  0.7408
 6458SOL    HW124059   8.904  10.011   8.793  0.6525  0.3400  0.2032
 6458SOL    HW224060   8.815   9.946   8.689 -1.2674  0.2177  1.8476
 6459SOL     OW24061   7.340   1.505   4.382  0.2532 -0.4891 -0.1243
 6459SOL    HW124062   7.422   1.456   4.375  0.9016  0.4086  0.8329
 6459SOL    HW224063   7.343   1.566   4.308  0.6379 -0.2041  0.1213
 6460SOL     OW24064   9.318   5.573   5.506 -0.1847  0.6054 -0.0828
 6460SOL    HW124065   9.249   5.617   5.457  1.0238  2.3139 -0.3375
 6460SOL    HW224066   9.280   5.489   5.533 -1.6409  0.6179 -1.9670
 6461SOL     OW24067   4.815   2.544   0.746 -0.3250  0.4542 -0.3307
 6461SOL    HW124068   4.762   2.612   0.787 -0.1271  0.5802 -0.2835
 6461SOL    HW224069   4.757   2.468   0.742 -1.1935  1.1541 -2.0946
 6462SOL     OW24070  11.562   9.427   6.072 -0.8023  0.3597  0.8882
 6462SOL    HW124071  11.481   9.468   6.042 -1.4971  0.3205  2.5921
 6462SOL    HW224072  11.585   9.473   6.152 -0.1793 -0.8554  1.4443
 6463SOL     OW24073   9.261   7.235   0.708  0.2288  0.4310 -0.3395
 6463SOL    HW124074   9.307   7.201   0.784  1.0704  1.6585 -0.2836
 6463SOL    HW224075   9.307   7.197   0.633  3.1332  3.5581 -0.4036
 6464SOL     OW24076   0.181   4.755   7.279 -0.5779  0.5061 -0.6501
 6464SOL    HW124077   0.140   4.725   7.360  0.7631  2.7207  0.9720
 6464SOL    HW224078   0.184   4.850   7.288  1.3894  0.6807 -2.4261
 6465SOL     OW24079   1.339  11.134   4.414  0.0206  0.1487  0.2856
 6465SOL    HW124080   1.261  11.159   4.363  1.3506  1.5999 -1.1498
 6465SOL    HW224081   1.365  11.050   4.377  0.6457  0.9234 -1.1373
 6466SOL     OW24082  10.177   7.264  11.184 -0.1308  0.6361  0.9071
 6466SOL    HW124083  10.098   7.249  11.133  0.7108 -0.4486 -0.1467
 6466SOL    HW224084  10.239   7.302  11.122  0.3167  1.0407  1.5957
 6467SOL     OW24085   0.407   2.935   5.318  0.0822  0.3931 -0.3149
 6467SOL    HW124086   0.466   2.993   5.271  2.0841 -2.2431 -1.3013
 6467SOL    HW224087   0.438   2.938   5.409 -0.2118  1.2493 -0.2329
 6468SOL     OW24088   3.920   0.566   1.512 -0.6147 -0.3498  0.8586
 6468SOL    HW124089   3.842   0.591   1.463 -0.3274 -1.6824 -0.3328
 6468SOL    HW224090   3.980   0.640   1.501  0.0817 -1.2380 -2.2787
 6469SOL     OW24091  10.160   1.520   8.702  0.4970 -0.5335 -0.0035
 6469SOL    HW124092  10.212   1.501   8.780 -0.1721 -0.5216  0.4550
 6469SOL    HW224093  10.072   1.540   8.735  0.4549  0.4934 -0.6780
 6470SOL     OW24094   4.204  11.073   5.462 -0.1027 -0.3997 -0.1047
 6470SOL    HW124095   4.133  11.016   5.431  0.7643 -0.3859 -2.3376
 6470SOL    HW224096   4.164  11.125   5.531 -2.3621 -0.2668 -1.3920
 6471SOL     OW24097  10.902   0.615  11.982 -0.4059  0.1424 -0.3080
 6471SOL    HW124098  10.961   0.573  12.045  0.1497  0.6163 -0.5040
 6471SOL    HW224099  10.914   0.565  11.901 -0.5272  0.0269 -0.2543
 6472SOL     OW24100  10.754   4.252   6.885  0.1094  0.1903  0.1214
 6472SOL    HW124101  10.844   4.220   6.888  0.4286  1.0526 -0.0890
 6472SOL    HW224102  10.729   4.244   6.793  0.5271  1.4187 -0.1192
 6473SOL     OW24103   5.850  11.802   7.385  0.3078 -0.3756 -0.1601
 6473SOL    HW124104   5.822  11.833   7.471 -0.0500 -2.4390  0.5091
 6473SOL    HW224105   5.799  11.722   7.370 -1.5866  1.2136 -3.4299
 6474SOL     OW24106  11.737  11.122   1.588 -0.2892 -0.0679 -0.5771
 6474SOL    HW124107  11.797  11.055   1.558 -1.1809 -1.6587  0.9617
 6474SOL    HW224108  11.772  11.149   1.673 -0.9487  0.0408 -0.3332
 6475SOL     OW24109  11.579   9.321   1.724  0.4831 -0.2729  0.1018
 6475SOL    HW124110  11.484   9.325   1.736  0.3151  0.1152 -1.1829
 6475SOL    HW224111  11.600   9.228   1.731 -0.2110 -0.5340 -1.0481
 6476SOL     OW24112   2.238   6.036   3.732  0.3877 -0.2493 -0.3893
 6476SOL    HW124113   2.196   5.956   3.763  1.4535 -0.3898  0.8078
 6476SOL    HW224114   2.272   6.013   3.646  0.6166 -1.0713 -0.0909
 6477SOL     OW24115   2.537   1.720   3.703  0.4209  0.0083 -0.5412
 6477SOL    HW124116   2.442   1.731   3.696  0.2721 -0.4410  0.6367
 6477SOL    HW224117   2.562   1.773   3.778  0.7434 -1.6833  0.6003
 6478SOL     OW24118   1.734   5.105   6.840 -0.1362  0.5998 -0.1781
 6478SOL    HW124119   1.802   5.158   6.881 -0.5126  1.2137 -0.3298
 6478SOL    HW224120   1.781   5.032   6.800  0.1696 -0.5401  2.1047
 6479SOL     OW24121   1.206   4.628   4.493 -0.1334  0.7715  0.3489
 6479SOL    HW124122   1.211   4.721   4.515 -0.4905  0.6352  1.0432
 6479SOL    HW224123   1.286   4.611   4.444  2.4366  0.4422  4.1975
 6480SOL     OW24124   0.996   7.828   9.810  0.0361 -0.4709 -0.9325
 6480SOL    HW124125   0.944   7.791   9.882  0.8942 -0.5444 -0.3433
 6480SOL    HW224126   0.977   7.921   9.813  1.7328 -0.1177  0.8266
 6481SOL     OW24127   9.961   3.266   2.391  0.7422 -0.6234  0.2483
 6481SOL    HW124128  10.052   3.296   2.380  0.2158  0.4615 -1.6907
 6481SOL    HW224129   9.918   3.339   2.436  0.2882  0.0032 -1.1519
 6482SOL     OW24130   5.596   1.878  10.536  0.3348 -1.0434  0.7156
 6482SOL    HW124131   5.529   1.830  10.486 -0.2461  0.5598 -0.1410
 6482SOL    HW224132   5.676   1.865  10.486 -0.0877 -0.0929 -0.2573
 6483SOL     OW24133   2.321   1.628  11.737 -0.1207 -0.0450 -0.0169
 6483SOL    HW124134   2.279   1.703  11.779 -0.8166 -0.4760  0.0683
 6483SOL    HW224135   2.270   1.552  11.766 -0.9861 -0.3045 -2.0449
 6484SOL     OW24136   9.182   2.207   9.996 -0.3007  0.4412 -0.1102
 6484SOL    HW124137   9.093   2.227   9.967 -0.1328 -0.6146 -1.4358
 6484SOL    HW224138   9.170   2.147  10.070 -0.6930 -0.5145 -0.9289
 6485SOL     OW24139   7.193   8.695   0.423  0.5529 -0.7757  0.3607
 6485SOL    HW124140   7.161   8.608   0.446  2.1295 -1.5983 -0.4150
 6485SOL    HW224141   7.120   8.754   0.444 -0.3685 -2.2102  1.3383
 6486SOL     OW24142   5.236   7.500  10.172 -0.0453  0.5832  0.1561
 6486SOL    HW124143   5.145   7.528  10.183 -0.5109 -1.1034  0.8308
 6486SOL    HW224144   5.231   7.421  10.118  1.0387  0.4752  0.1882
 6487SOL     OW24145   9.254   5.633  11.904  0.0998 -0.1239 -0.2047
 6487SOL    HW124146   9.271   5.723  11.876  2.8170 -0.4702  0.0569
 6487SOL    HW224147   9.251   5.638  12.000 -1.0233 -0.1529 -0.2260
 6488SOL     OW24148  10.291   7.226  10.780  0.2717 -0.3153  0.6470
 6488SOL    HW124149  10.343   7.179  10.845  2.7931 -1.5918 -2.0327
 6488SOL    HW224150  10.351   7.293  10.746 -1.2160  0.8277  0.1932
 6489SOL     OW24151   2.846   2.683   6.333 -0.5463 -0.2651  0.3744
 6489SOL    HW124152   2.878   2.675   6.422  0.7506  0.4831  0.0038
 6489SOL    HW224153   2.793   2.763   6.333  1.1688  0.9244  0.0374
 6490SOL     OW24154   2.859   9.655   5.768  0.3961 -0.0238  0.1794
 6490SOL    HW124155   2.923   9.627   5.833  1.9256 -2.5233 -2.1781
 6490SOL    HW224156   2.908   9.655   5.685 -1.9321  1.0165 -1.3094
 6491SOL     OW24157   4.331   4.894   0.803  0.4875  0.1699  0.3441
 6491SOL    HW124158   4.348   4.806   0.770  0.5090  0.3483 -0.1265
 6491SOL    HW224159   4.281   4.936   0.734  1.1092  0.7667  0.2478
 6492SOL     OW24160   2.156   8.605  10.429  0.7565  0.2490 -0.3503
 6492SOL    HW124161   2.146   8.533  10.492  0.1962  0.1773 -0.5114
 6492SOL    HW224162   2.075   8.655  10.437  0.5557  0.0858 -1.1993
 6493SOL     OW24163   9.978  11.624   0.026  0.2463 -0.2026  0.2046
 6493SOL    HW124164   9.990  11.656  -0.063 -1.2981  0.0054  0.0464
 6493SOL    HW224165   9.980  11.703   0.081 -2.8646  0.2352 -0.1145
 6494SOL     OW24166   3.873   2.476   6.785 -1.0593  0.0568  0.2370
 6494SOL    HW124167   3.795   2.526   6.762 -1.3793 -0.9056 -0.8534
 6494SOL    HW224168   3.885   2.415   6.712 -0.1274 -0.8011  1.0726
 6495SOL     OW24169  10.609   9.443   4.094 -0.2662  0.2731 -0.4807
 6495SOL    HW124170  10.592   9.538   4.091 -2.2628  0.0022  0.4680
 6495SOL    HW224171  10.537   9.405   4.043  1.5761 -0.6813 -2.5183
 6496SOL     OW24172   0.997  10.231   9.748 -0.0992 -0.0082 -0.7438
 6496SOL    HW124173   0.919  10.184   9.779 -0.3900  0.3659 -0.9018
 6496SOL    HW224174   1.062  10.218   9.817 -0.7408  0.8182  0.0362
 6497SOL     OW24175   0.801   6.271   5.897  0.3697  0.1835 -0.3914
 6497SOL    HW124176   0.764   6.198   5.947  1.0383  0.2861  0.2580
 6497SOL    HW224177   0.744   6.345   5.918  1.4196  0.5582  1.3119
 6498SOL     OW24178   4.575  10.219   2.827 -0.4762  0.5949 -0.4317
 6498SOL    HW124179   4.658  10.208   2.873 -0.8418  0.5554  0.2417
 6498SOL    HW224180   4.577  10.155   2.756 -1.3355 -1.8943  1.6203
 6499SOL     OW24181   5.637   5.378   3.324 -0.4287 -0.6084  0.0868
 6499SOL    HW124182   5.566   5.386   3.260 -0.7092  1.1871  0.5781
 6499SOL    HW224183   5.640   5.284   3.344  1.2926 -1.7557 -4.2846
 6500SOL     OW24184   2.311   2.197   5.719 -0.1194 -0.4664  1.1909
 6500SOL    HW124185   2.221   2.176   5.745 -0.7964  0.6830 -0.0959
 6500SOL    HW224186   2.316   2.169   5.628  0.3019  0.9353  0.7571
 6501SOL     OW24187   5.126   3.182   4.631  0.1732 -0.2446  0.6672
 6501SOL    HW124188   5.213   3.143   4.635  0.7167  0.6729 -1.2797
 6501SOL    HW224189   5.137   3.261   4.579 -1.7464  0.1461  0.7838
 6502SOL     OW24190   5.614  10.226   2.233  0.0942 -0.3955 -0.2747
 6502SOL    HW124191   5.528  10.186   2.247  0.5828 -1.4533 -0.1798
 6502SOL    HW224192   5.642  10.252   2.321  0.7411 -1.9306  0.0018
 6503SOL     OW24193   4.115   9.346  11.565 -0.0516  0.2693  0.0198
 6503SOL    HW124194   4.118   9.274  11.628 -1.2356 -0.2999 -0.5289
 6503SOL    HW224195   4.190   9.332  11.508  0.1577 -0.0884  0.3823
 6504SOL     OW24196   7.480   5.947   5.201 -0.3878  0.1973  0.0703
 6504SOL    HW124197   7.484   5.925   5.108 -0.0067 -0.5054  0.2534
 6504SOL    HW224198   7.415   6.018   5.205 -2.1822 -1.3318 -0.4430
 6505SOL     OW24199   9.912  10.415   0.936  0.0901  0.0637  0.0288
 6505SOL    HW124200   9.926  10.381   0.848  2.1258  0.5242  0.1251
 6505SOL    HW224201   9.818  10.432   0.941 -0.2379 -1.0957 -1.6227
 6506SOL     OW24202   0.461   7.771   7.184 -0.2966 -0.2894 -0.1311
 6506SOL    HW124203   0.388   7.772   7.123 -0.1958 -0.2739 -0.2522
 6506SOL    HW224204   0.447   7.693   7.237 -0.4131 -0.2743 -0.1384
 6507SOL     OW24205   4.716  11.015   7.532 -0.3222  0.0721 -0.4869
 6507SOL    HW124206   4.781  10.986   7.468  0.7979  0.4833  0.4449
 6507SOL    HW224207   4.713  11.110   7.521 -0.9272  0.0361 -0.6681
 6508SOL     OW24208   3.705   1.644   0.305 -0.1114 -0.1255 -0.2851
 6508SOL    HW124209   3.654   1.634   0.226 -0.6556 -1.7522  0.2416
 6508SOL    HW224210   3.790   1.676   0.275 -0.5722  0.0625 -1.4239
 6509SOL     OW24211   9.809   6.134   5.509  0.5544  0.1991 -0.3433
 6509SOL    HW124212   9.866   6.199   5.469  2.1095 -1.9950 -1.9720
 6509SOL    HW224213   9.864   6.092   5.575  0.0665 -0.3936 -0.3005
 6510SOL     OW24214   3.608   9.779   3.807 -0.7687  0.4070  0.5046
 6510SOL    HW124215   3.614   9.864   3.851 -2.5249  0.5090  0.6320
 6510SOL    HW224216   3.600   9.716   3.879  0.5249  0.1069  0.4106
 6511SOL     OW24217   4.522   0.399   5.128  0.3511 -0.1664  0.8705
 6511SOL    HW124218   4.536   0.327   5.189 -1.9982 -1.4006  0.0702
 6511SOL    HW224219   4.522   0.357   5.042 -0.3189  0.8965  0.3336
 6512SOL     OW24220   0.754   4.467   2.241 -0.3306  0.1588 -0.1392
 6512SOL    HW124221   0.714   4.399   2.186 -1.4016  0.2945  0.4406
 6512SOL    HW224222   0.746   4.434   2.330  1.7304 -0.2270 -0.0518
 6513SOL     OW24223   4.579   2.643   1.429  0.1975  0.2016 -0.4222
 6513SOL    HW124224   4.501   2.594   1.454  0.7279 -0.3949  0.0880
 6513SOL    HW224225   4.547   2.732   1.412 -0.7525 -0.2830 -1.2658
 6514SOL     OW24226   7.935   7.442   3.115 -0.0595 -0.6755 -0.3385
 6514SOL    HW124227   7.948   7.347   3.111  0.1775 -0.7284  1.0313
 6514SOL    HW224228   7.860   7.459   3.058  0.1226 -1.6387 -0.8776
 6515SOL     OW24229  11.965   6.719   4.006  0.6633 -0.9512 -0.1057
 6515SOL    HW124230  11.932   6.726   4.096  1.3748  1.4427  0.0342
 6515SOL    HW224231  11.891   6.746   3.952  0.7228 -0.8524 -0.1375
 6516SOL     OW24232   8.520   8.114   9.877 -0.3473 -0.5933 -0.0100
 6516SOL    HW124233   8.597   8.169   9.891 -0.0907 -0.8835 -0.2626
 6516SOL    HW224234   8.523   8.050   9.948 -1.6338  0.7898  1.3651
 6517SOL     OW24235   6.245   4.870   3.198 -0.1516 -0.5552  0.3251
 6517SOL    HW124236   6.190   4.863   3.276 -0.4463  1.4514  0.3565
 6517SOL    HW224237   6.308   4.798   3.206 -2.4395 -2.6654  0.5211
 6518SOL     OW24238  10.448   5.048   5.321 -0.1058  0.5396  0.0128
 6518SOL    HW124239  10.395   4.976   5.355  0.2385  0.0627 -0.4472
 6518SOL    HW224240  10.529   5.045   5.372  0.0743  0.3436 -0.2837
 6519SOL     OW24241   8.766   8.390   8.262 -0.1351  0.1171  0.1785
 6519SOL    HW124242   8.751   8.357   8.351  0.2178  0.4238  0.3511
 6519SOL    HW224243   8.860   8.407   8.258 -0.2147  0.5027 -0.1160
 6520SOL     OW24244   7.525   2.999   3.255  0.1646  0.2438  0.6012
 6520SOL    HW124245   7.514   3.042   3.340 -0.8754  0.2266  0.4956
 6520SOL    HW224246   7.441   3.012   3.211  1.3990  2.2285 -1.3599
 6521SOL     OW24247   7.077   1.729   9.447  0.7870 -0.1711 -0.0425
 6521SOL    HW124248   7.063   1.768   9.534 -1.3275 -1.0690  0.0872
 6521SOL    HW224249   7.019   1.778   9.389 -0.4086 -1.7667 -0.2500
 6522SOL     OW24250  10.987   3.235   4.107 -0.1773  0.3982  0.0303
 6522SOL    HW124251  11.048   3.304   4.079  0.7866 -0.7807 -0.9109
 6522SOL    HW224252  10.988   3.172   4.035 -0.0030 -1.2564  1.4282
 6523SOL     OW24253   3.619   6.159  10.200  0.3370 -0.0745  0.0781
 6523SOL    HW124254   3.533   6.121  10.181 -0.1561  1.8333 -1.8204
 6523SOL    HW224255   3.681   6.093  10.170 -0.4091 -1.3267  1.1418
 6524SOL     OW24256  10.352   3.230   1.785 -0.0696  0.4883 -0.7382
 6524SOL    HW124257  10.330   3.297   1.721 -0.6111  1.1423  0.1073
 6524SOL    HW224258  10.342   3.273   1.870 -2.8883 -1.2924 -0.0404
 6525SOL     OW24259   4.998   7.113   0.627 -0.2092  0.0237  0.0569
 6525SOL    HW124260   4.912   7.125   0.668 -2.0374 -3.2178 -2.3266
 6525SOL    HW224261   4.983   7.134   0.535  1.3222 -1.3039 -0.5389
 6526SOL     OW24262   0.691  10.710   7.214  0.1912 -0.1974  0.4328
 6526SOL    HW124263   0.599  10.731   7.230  0.4166  1.0798  0.1340
 6526SOL    HW224264   0.691  10.617   7.193 -1.2516  0.1103 -1.1561
 6527SOL     OW24265   9.416   9.170   2.216  0.2896 -0.1270  0.2004
 6527SOL    HW124266   9.327   9.186   2.186  0.3804  0.0079  0.0069
 6527SOL    HW224267   9.439   9.248   2.267  1.0514  0.7693 -1.4641
 6528SOL     OW24268   7.130  11.573   8.852 -0.0728  0.3362  0.2600
 6528SOL    HW124269   7.071  11.627   8.905  0.9132 -0.2260  1.9920
 6528SOL    HW224270   7.151  11.499   8.908 -0.5991 -1.3780 -1.7149
 6529SOL     OW24271   7.896   5.311   6.168  0.0690  0.2459 -0.2019
 6529SOL    HW124272   7.858   5.392   6.135 -0.6726 -0.2117 -0.4978
 6529SOL    HW224273   7.982   5.336   6.202  0.4341  0.9046 -1.5747
 6530SOL     OW24274   4.995  11.296   7.938  0.0658  0.1160  0.3683
 6530SOL    HW124275   4.977  11.362   7.871  2.0898 -0.2890 -0.6711
 6530SOL    HW224276   5.069  11.332   7.988  0.5259 -0.8899  0.4407
 6531SOL     OW24277  10.997   8.009   2.382 -0.1383  0.2144  0.2274
 6531SOL    HW124278  11.030   7.994   2.471 -1.4078  0.7038  0.7926
 6531SOL    HW224279  11.071   8.050   2.336  0.3428  0.4952  1.2187
 6532SOL     OW24280   1.620   9.818   2.651  0.1782 -0.0169  0.3761
 6532SOL    HW124281   1.558   9.806   2.723 -1.4449  0.8779 -0.8145
 6532SOL    HW224282   1.653   9.907   2.662  1.1408 -0.4224  0.8888
 6533SOL     OW24283   8.179   9.955   5.593  0.4867 -0.1466 -0.3680
 6533SOL    HW124284   8.261   9.925   5.633  0.4688 -0.5603 -0.6276
 6533SOL    HW224285   8.187  10.050   5.589  1.0144 -0.1943 -0.5098
 6534SOL     OW24286   6.817  10.171   3.502 -0.0694  0.4828  0.1302
 6534SOL    HW124287   6.800  10.125   3.420 -0.7116  0.3205  0.3509
 6534SOL    HW224288   6.824  10.263   3.476 -1.0750  0.5290 -0.0031
 6535SOL     OW24289  11.542   8.125  11.173  0.1283  0.0710  0.0899
 6535SOL    HW124290  11.581   8.087  11.095  1.0077  1.3200 -0.0879
 6535SOL    HW224291  11.578   8.073  11.245  1.1931  0.4363 -0.1646
 6536SOL     OW24292   7.588  11.770   0.559 -0.3298 -0.1431 -0.1809
 6536SOL    HW124293   7.613  11.810   0.642 -0.5959 -1.3650  0.5165
 6536SOL    HW224294   7.515  11.823   0.527  0.0378  0.5735  0.1625
 6537SOL     OW24295   9.269  10.427   8.683 -0.2076  0.5392 -0.3241
 6537SOL    HW124296   9.356  10.399   8.713 -1.1664 -1.5557  0.6327
 6537SOL    HW224297   9.223  10.452   8.764 -1.4838 -1.3263 -0.4176
 6538SOL     OW24298   4.062   4.506   0.941 -0.2139 -0.3134 -0.0718
 6538SOL    HW124299   4.074   4.446   1.014 -1.9718  1.4772  1.8314
 6538SOL    HW224300   4.131   4.571   0.952  0.5509 -0.9309 -1.0454
 6539SOL     OW24301  10.076   4.517   6.797  0.2262 -0.0927  0.0592
 6539SOL    HW124302  10.032   4.445   6.842 -0.8812  0.0225 -0.7776
 6539SOL    HW224303  10.169   4.495   6.799 -0.1744 -2.1110 -1.1259
 6540SOL     OW24304  10.274  10.205   7.563 -0.1464 -0.1215  0.5755
 6540SOL    HW124305  10.225  10.137   7.516  2.1394 -2.5122  1.3912
 6540SOL    HW224306  10.302  10.266   7.494 -2.3624  0.1547 -0.1712
 6541SOL     OW24307   6.172   9.232   5.119 -0.1151 -0.0793 -0.7403
 6541SOL    HW124308   6.100   9.274   5.166 -0.1196 -0.5041 -0.3661
 6541SOL    HW224309   6.153   9.249   5.027 -0.8127 -0.3834 -0.6558
 6542SOL     OW24310   5.109  10.995   8.380 -0.2916  0.3606 -0.0280
 6542SOL    HW124311   5.032  11.031   8.336  0.8815  0.8716 -1.7500
 6542SOL    HW224312   5.126  11.056   8.452 -1.6375  0.0732  0.5693
 6543SOL     OW24313   3.989   6.295   9.310 -0.5205  0.4756  0.5515
 6543SOL    HW124314   3.987   6.343   9.392 -2.0329 -0.1307  0.9036
 6543SOL    HW224315   4.064   6.237   9.317 -0.7430  0.2985  1.5958
 6544SOL     OW24316   5.242   6.101   8.863 -0.3748  0.3714 -0.1068
 6544SOL    HW124317   5.251   6.110   8.958  0.6724  1.7154 -0.3089
 6544SOL    HW224318   5.316   6.045   8.838 -0.8368 -0.2511 -0.1078
 6545SOL     OW24319   7.629   2.800  10.543  0.0400  0.2935  0.3697
 6545SOL    HW124320   7.589   2.716  10.520  0.7492 -0.4178  1.6198
 6545SOL    HW224321   7.722   2.789  10.520  0.0873  0.8577  0.2599
 6546SOL     OW24322  11.920   0.093   5.354  0.3380  0.0196  0.0963
 6546SOL    HW124323  11.972   0.098   5.274 -0.4390  0.7470 -0.3827
 6546SOL    HW224324  11.839   0.050   5.328 -0.5803  1.6531  0.0950
 6547SOL     OW24325   3.678   4.318   4.479  0.2889 -0.2913  0.0365
 6547SOL    HW124326   3.755   4.271   4.513  0.3847  1.4211  2.4622
 6547SOL    HW224327   3.606   4.256   4.491  0.8293 -0.8498  0.5055
 6548SOL     OW24328   2.304  11.501   6.162  0.0716 -0.0498  0.1025
 6548SOL    HW124329   2.306  11.545   6.077 -1.6433  0.2485  0.1729
 6548SOL    HW224330   2.322  11.570   6.225  0.7502 -0.1529  0.0312
 6549SOL     OW24331   1.838   3.145   3.121 -0.2993  0.1483  0.3068
 6549SOL    HW124332   1.756   3.171   3.079  0.2329 -0.2083 -1.0045
 6549SOL    HW224333   1.906   3.175   3.061  0.5758  0.9527  1.6507
 6550SOL     OW24334   4.852  10.046   8.865 -0.2296 -0.0363  0.2702
 6550SOL    HW124335   4.786  10.098   8.910 -0.5780  0.1770 -0.4662
 6550SOL    HW224336   4.826  10.050   8.772  0.2664 -0.7510  0.0939
 6551SOL     OW24337   2.202   8.119   6.759  0.7347 -0.3724  0.3423
 6551SOL    HW124338   2.187   8.041   6.813  1.2319  0.5624  1.8834
 6551SOL    HW224339   2.127   8.121   6.699  0.7498 -2.0662  0.2176
 6552SOL     OW24340   7.680   1.205  11.140 -0.1647  0.0040 -0.1715
 6552SOL    HW124341   7.677   1.125  11.193  1.4687  0.6389  0.9620
 6552SOL    HW224342   7.748   1.187  11.074  1.1960  0.9149  0.9409
 6553SOL     OW24343   9.033   4.085   8.369 -0.2348 -0.0594  0.7637
 6553SOL    HW124344   9.093   4.053   8.436 -1.2994  0.8359  2.2008
 6553SOL    HW224345   8.974   4.145   8.415 -0.2989  1.4939 -1.1882
 6554SOL     OW24346   0.368   0.664   2.068 -0.1174  0.0809  0.1287
 6554SOL    HW124347   0.437   0.599   2.082  0.5229  0.7871  0.3390
 6554SOL    HW224348   0.295   0.633   2.121  0.4722 -0.0262  0.9057
 6555SOL     OW24349   7.572   2.892   7.457 -0.0931 -0.1983  0.0505
 6555SOL    HW124350   7.624   2.829   7.507 -1.1686 -0.1188  1.3478
 6555SOL    HW224351   7.487   2.894   7.502 -1.3709 -0.5730 -2.1766
 6556SOL     OW24352   9.262   2.590   3.652  0.4227 -0.3569 -0.2982
 6556SOL    HW124353   9.349   2.604   3.615  0.3199  0.6483 -0.2075
 6556SOL    HW224354   9.218   2.534   3.589  0.7226  0.1636 -0.9915
 6557SOL     OW24355   4.479   1.959   4.993 -0.3197  0.1080 -0.4122
 6557SOL    HW124356   4.536   1.947   5.069  1.4263  2.8065 -1.1559
 6557SOL    HW224357   4.403   2.008   5.027 -0.9442 -1.1619  0.0761
 6558SOL     OW24358   5.365   8.481   1.906 -0.3248 -0.1815  0.4385
 6558SOL    HW124359   5.444   8.533   1.922  1.1123 -1.8877 -0.7048
 6558SOL    HW224360   5.293   8.543   1.916  1.2238  1.7660  0.1751
 6559SOL     OW24361   9.651  10.604   0.151  0.0997 -0.5202  0.1065
 6559SOL    HW124362   9.635  10.546   0.077  0.2412 -1.1896  0.5894
 6559SOL    HW224363   9.605  10.684   0.129 -1.4482 -1.3676  0.1345
 6560SOL     OW24364   9.452   8.112  10.553 -0.7502  0.6199  0.6323
 6560SOL    HW124365   9.465   8.085  10.462 -2.2436  1.0890  0.2556
 6560SOL    HW224366   9.536   8.095  10.595  0.0725  0.7080 -0.9107
 6561SOL     OW24367   2.433   5.828   6.321  0.0478 -0.2899  0.2290
 6561SOL    HW124368   2.405   5.860   6.406  1.3954  1.1318  0.1652
 6561SOL    HW224369   2.509   5.773   6.340  0.5180  0.2542 -0.0885
 6562SOL     OW24370   5.672   6.009   0.699  0.1431  1.1234 -0.1828
 6562SOL    HW124371   5.717   6.089   0.725  0.1089  0.2908  2.8061
 6562SOL    HW224372   5.719   5.939   0.746 -2.6424 -0.0367  1.0962
 6563SOL     OW24373   7.799   0.534   8.350  0.1996  0.0639  0.3367
 6563SOL    HW124374   7.803   0.496   8.262  0.4684  0.1453  0.3137
 6563SOL    HW224375   7.764   0.622   8.337 -0.6645 -0.2576  0.4172
 6564SOL     OW24376   6.645  11.613  11.778  0.5327  0.1005  0.0716
 6564SOL    HW124377   6.660  11.594  11.871  1.3653  0.4692  0.0271
 6564SOL    HW224378   6.559  11.656  11.775  0.4193 -0.0847  0.6439
 6565SOL     OW24379   6.946   4.329   6.904  0.2660  0.2448 -0.5096
 6565SOL    HW124380   7.008   4.274   6.951  2.0500  1.9787 -0.7005
 6565SOL    HW224381   6.927   4.400   6.965  0.1953  0.8839 -1.2604
 6566SOL     OW24382   4.723   1.588   5.045 -0.2930 -0.3738 -0.5812
 6566SOL    HW124383   4.802   1.618   5.090 -1.5192 -1.2484  2.3459
 6566SOL    HW224384   4.712   1.651   4.973  1.8652  1.0378  0.2174
 6567SOL     OW24385  10.007   7.104   4.071  0.1000 -0.1461  0.1338
 6567SOL    HW124386   9.949   7.062   4.008 -0.6871 -0.6985  1.1934
 6567SOL    HW224387   9.971   7.192   4.081  0.0742 -0.1406 -0.0085
 6568SOL     OW24388   9.020   7.052   1.110 -0.3647  0.3503  0.2448
 6568SOL    HW124389   9.004   6.972   1.061  1.4045  0.0761  0.0795
 6568SOL    HW224390   8.933   7.090   1.122 -0.9450  0.0373 -2.4224
 6569SOL     OW24391   6.053   8.985   3.523 -0.6942  0.6820 -0.3869
 6569SOL    HW124392   6.143   9.015   3.525 -0.4407  0.1374 -2.1303
 6569SOL    HW224393   6.000   9.064   3.536  0.0109  0.9117  1.2702
 6570SOL     OW24394   8.206  10.851   5.681  0.5312  0.6584  0.3947
 6570SOL    HW124395   8.142  10.870   5.612  1.0568 -1.2372 -0.6842
 6570SOL    HW224396   8.165  10.783   5.735  0.8733  0.8014  0.8455
 6571SOL     OW24397   8.729   5.854   3.066 -0.5970  0.7859 -0.0312
 6571SOL    HW124398   8.728   5.922   2.999 -0.1369  0.1823 -0.6579
 6571SOL    HW224399   8.817   5.858   3.103 -0.0595 -0.4512 -1.1060
 6572SOL     OW24400  11.803   8.084   6.320 -0.3309 -0.7393 -0.2593
 6572SOL    HW124401  11.829   8.051   6.406 -0.9700 -0.8782 -0.1108
 6572SOL    HW224402  11.853   8.165   6.309  1.3063 -1.7625 -0.6515
 6573SOL     OW24403   2.228  11.001   4.144  0.0085 -0.1572 -0.2965
 6573SOL    HW124404   2.159  10.994   4.078 -1.8095 -1.0209  1.5591
 6573SOL    HW224405   2.181  11.016   4.226  1.8610 -2.3567  1.3278
 6574SOL     OW24406   5.110   6.107   5.922 -0.2163  0.0800 -0.3985
 6574SOL    HW124407   5.184   6.137   5.869 -0.1613  0.5049 -0.0841
 6574SOL    HW224408   5.065   6.044   5.866 -0.0340  0.3648 -0.8734
 6575SOL     OW24409   1.551   9.201  10.836 -0.1664 -0.0045 -0.7487
 6575SOL    HW124410   1.571   9.295  10.840 -2.4114  0.5493 -0.9142
 6575SOL    HW224411   1.620   9.164  10.781  0.5015  1.6346 -1.0779
 6576SOL     OW24412   7.728   9.873   2.707 -0.6309 -0.4710 -0.3848
 6576SOL    HW124413   7.679   9.826   2.775 -1.3206 -0.5963 -0.9481
 6576SOL    HW224414   7.817   9.880   2.742 -1.0340 -0.2786  0.6528
 6577SOL     OW24415   1.598   9.564   5.086  0.4317 -0.1518  0.8968
 6577SOL    HW124416   1.672   9.582   5.027 -1.8568 -0.3940 -2.3311
 6577SOL    HW224417   1.592   9.469   5.087 -1.7006 -0.1580 -1.6658
 6578SOL     OW24418   9.083   9.093   6.241  0.1427  0.8736  0.1072
 6578SOL    HW124419   9.054   9.166   6.185  0.5140 -0.0968 -1.4170
 6578SOL    HW224420   9.177   9.106   6.252  0.1958  0.6810 -0.1015
 6579SOL     OW24421   1.184   0.080   6.091 -0.5537 -0.0974 -0.5695
 6579SOL    HW124422   1.131   0.157   6.111  0.6230  0.4752  0.4878
 6579SOL    HW224423   1.267   0.116   6.058 -0.0082 -0.8895 -0.1002
 6580SOL     OW24424   6.565  10.841   7.273 -0.6298  0.3612  0.4296
 6580SOL    HW124425   6.559  10.785   7.196  0.4238  0.4418  0.2733
 6580SOL    HW224426   6.506  10.801   7.337 -0.2441 -0.6581  0.1582
 6581SOL     OW24427  10.219   4.274  10.295 -0.0309  0.0915  0.5054
 6581SOL    HW124428  10.197   4.354  10.248 -0.5839 -1.8472 -2.9014
 6581SOL    HW224429  10.135   4.231  10.310  0.3724 -0.5979  0.8658
 6582SOL     OW24430   2.392   4.515   1.822 -0.0610  0.1939 -0.4608
 6582SOL    HW124431   2.387   4.467   1.739  0.5937 -0.8831  0.1019
 6582SOL    HW224432   2.405   4.448   1.888  0.1314  1.1002  0.4519
 6583SOL     OW24433   5.623   1.362   8.317 -0.1625 -0.0165 -0.5064
 6583SOL    HW124434   5.591   1.324   8.398 -0.0687  1.9990  0.5344
 6583SOL    HW224435   5.717   1.373   8.330 -0.0955  0.0506 -1.0024
 6584SOL     OW24436   4.055   5.073   5.556 -0.5701  0.1520  0.0285
 6584SOL    HW124437   4.115   5.126   5.503 -1.7104  2.6719  1.0848
 6584SOL    HW224438   4.112   5.026   5.617  0.4492  2.4024  0.9399
 6585SOL     OW24439  10.238   0.681   8.400 -0.1737 -0.1401 -0.0511
 6585SOL    HW124440  10.250   0.747   8.332 -2.8767  1.8276  1.1778
 6585SOL    HW224441  10.144   0.667   8.403  0.1345 -2.3721  1.3241
 6586SOL     OW24442   9.481   9.497  11.608  0.0867  0.0668  0.2811
 6586SOL    HW124443   9.449   9.583  11.637  2.1381 -0.3504  4.4839
 6586SOL    HW224444   9.558   9.516  11.554 -0.8538  0.8167 -0.8496
 6587SOL     OW24445   0.125   7.193   9.848 -0.5890 -0.5540 -0.4762
 6587SOL    HW124446   0.065   7.226   9.915 -1.0780 -0.8681 -0.7562
 6587SOL    HW224447   0.146   7.104   9.878 -1.5775 -1.0625 -1.2294
 6588SOL     OW24448   7.289   0.357  11.479 -0.3125 -0.2129 -0.0479
 6588SOL    HW124449   7.262   0.395  11.563 -0.8184 -2.1122  0.7141
 6588SOL    HW224450   7.384   0.348  11.486  0.0215  2.1005 -0.8127
 6589SOL     OW24451   6.698   3.905   3.652  0.5652 -0.4991  0.1276
 6589SOL    HW124452   6.717   3.864   3.736  0.8289  0.9582  0.8011
 6589SOL    HW224453   6.706   3.834   3.588  0.3620 -1.6213  1.3212
 6590SOL     OW24454   9.754   6.705   7.279  0.4225 -0.2072 -0.0872
 6590SOL    HW124455   9.807   6.707   7.200  0.0786 -0.6181 -0.3364
 6590SOL    HW224456   9.671   6.745   7.254  0.3481 -0.2477  0.0902
 6591SOL     OW24457   3.074   5.298   4.766 -0.0069 -0.1013 -0.3957
 6591SOL    HW124458   3.030   5.220   4.799 -0.4013  0.5106  0.5721
 6591SOL    HW224459   3.113   5.271   4.683 -0.7204 -1.1321 -0.4071
 6592SOL     OW24460   2.234   8.673   5.294  0.2852  0.4613  0.1925
 6592SOL    HW124461   2.174   8.748   5.300 -1.7676 -1.1065  0.1837
 6592SOL    HW224462   2.250   8.662   5.200  1.0265  1.1652  0.2188
 6593SOL     OW24463   5.011   8.321  10.620  0.2485 -0.5342 -0.9222
 6593SOL    HW124464   5.089   8.366  10.652 -0.1418 -0.1574 -0.5013
 6593SOL    HW224465   5.021   8.231  10.651 -0.9552  0.1940  1.7976
 6594SOL     OW24466   8.769   1.963  11.405 -0.1859 -0.3751  0.2910
 6594SOL    HW124467   8.717   1.976  11.484 -0.8078 -0.2385 -0.1426
 6594SOL    HW224468   8.810   1.877  11.418  0.9142  0.2798  1.4246
 6595SOL     OW24469   2.526   0.876   9.410 -0.0265  0.6418 -0.3156
 6595SOL    HW124470   2.503   0.791   9.375 -1.7196  1.4178 -1.2176
 6595SOL    HW224471   2.443   0.912   9.442  0.5206  2.2278 -0.5874
 6596SOL     OW24472   9.769   0.411   7.417 -0.5906 -0.3759 -0.3261
 6596SOL    HW124473   9.687   0.386   7.374 -0.3864 -0.2682 -0.7844
 6596SOL    HW224474   9.837   0.376   7.360 -0.3125  0.2195 -0.3595
 6597SOL     OW24475   0.678   0.071  10.207 -0.5328 -0.5485  0.3267
 6597SOL    HW124476   0.713   0.082  10.119 -0.7664  1.1760  0.4144
 6597SOL    HW224477   0.613   0.001  10.198 -0.4996 -0.4448 -0.8533
 6598SOL     OW24478   6.597   9.834   6.233  0.5699  0.7530  0.1483
 6598SOL    HW124479   6.672   9.840   6.174  0.4375  1.9229  0.0773
 6598SOL    HW224480   6.521   9.824   6.175  0.4685  1.6245  0.1231
 6599SOL     OW24481   5.553   4.110  10.664 -0.3331 -0.3534 -0.7914
 6599SOL    HW124482   5.492   4.165  10.615 -0.3620 -1.2452 -1.7836
 6599SOL    HW224483   5.513   4.024  10.666 -0.0164 -0.4886  0.2528
 6600SOL     OW24484   0.198  11.771   7.555 -0.2347  0.0672 -0.2507
 6600SOL    HW124485   0.179  11.678   7.559 -1.1898  0.2675  0.2906
 6600SOL    HW224486   0.253  11.782   7.478  1.0780 -1.1349  0.4659
 6601SOL     OW24487   4.954   7.182  11.892  0.9232 -0.2510 -0.0204
 6601SOL    HW124488   4.907   7.211  11.814 -0.0715 -0.9274  0.3021
 6601SOL    HW224489   4.995   7.100  11.866 -0.7668 -1.3545  0.5842
 6602SOL     OW24490  10.158   7.556   5.943 -0.0242  0.0272 -0.8753
 6602SOL    HW124491  10.142   7.584   6.033  1.2490  1.1990 -0.9904
 6602SOL    HW224492  10.129   7.464   5.942  0.3779 -0.1661  0.8588
 6603SOL     OW24493   6.358   1.624   8.221  0.5819 -0.8266 -1.4093
 6603SOL    HW124494   6.319   1.566   8.155 -1.5723  0.1553 -1.0633
 6603SOL    HW224495   6.303   1.612   8.299  1.8440 -0.4207 -0.4250
 6604SOL     OW24496   9.481   7.105  11.329 -0.2732  0.1517  0.2621
 6604SOL    HW124497   9.470   7.127  11.237 -0.8729  0.9609  0.5139
 6604SOL    HW224498   9.413   7.039  11.346 -0.0090 -0.1745  0.0799
 6605SOL     OW24499   1.975   2.813  10.090 -0.2117  0.1700 -0.5700
 6605SOL    HW124500   2.065   2.800  10.060  0.5832  0.6506  1.4160
 6605SOL    HW224501   1.940   2.725  10.101  0.1209 -0.0246 -1.0452
 6606SOL     OW24502  10.300   0.323   4.302  0.1060 -0.1233  0.4898
 6606SOL    HW124503  10.276   0.386   4.371 -2.0583 -1.3301  0.9176
 6606SOL    HW224504  10.395   0.329   4.298  0.1106  1.8730  1.7635
 6607SOL     OW24505   0.145   8.488   9.597  0.0039 -0.2075  0.2625
 6607SOL    HW124506   0.165   8.408   9.646  2.5075 -0.1052 -0.4804
 6607SOL    HW224507   0.218   8.546   9.614 -0.7888  1.1749 -0.8175
 6608SOL     OW24508  11.264   9.592   0.307  0.2915  0.5855 -0.2969
 6608SOL    HW124509  11.227   9.559   0.390  1.9658 -2.3067 -0.5306
 6608SOL    HW224510  11.188   9.604   0.250 -0.7525  0.8394  1.0862
 6609SOL     OW24511   9.176   1.616   1.708  0.4586 -0.3100 -0.3642
 6609SOL    HW124512   9.237   1.576   1.647  0.3904 -0.3995 -0.3736
 6609SOL    HW224513   9.172   1.708   1.681 -3.5262 -1.1894 -3.8724
 6610SOL     OW24514  10.311   7.883   6.749  0.0270 -0.1963 -0.1961
 6610SOL    HW124515  10.305   7.822   6.823  2.0106 -1.1755 -0.7716
 6610SOL    HW224516  10.367   7.839   6.686 -0.9458  0.9825 -1.9555
 6611SOL     OW24517   2.962   4.666   8.835  0.0478 -0.1554  0.9664
 6611SOL    HW124518   2.901   4.703   8.899  0.3661  2.4388 -0.1165
 6611SOL    HW224519   2.944   4.714   8.754  1.4723 -1.4677 -0.1720
 6612SOL     OW24520   7.040   8.791   3.115 -0.3089  0.3912 -0.5195
 6612SOL    HW124521   6.952   8.825   3.128 -0.6537  0.0304 -1.7286
 6612SOL    HW224522   7.076   8.846   3.045 -0.1005 -0.3697 -1.0162
 6613SOL     OW24523   2.384   4.580  10.201  0.4532  0.4210  0.2268
 6613SOL    HW124524   2.341   4.512  10.254 -0.3871  0.3022 -0.5863
 6613SOL    HW224525   2.405   4.648  10.264 -0.5532  0.2881  0.7341
 6614SOL     OW24526   7.376   2.817  10.755  0.3251  0.3572  0.2273
 6614SOL    HW124527   7.347   2.731  10.723 -1.3517  1.3883 -1.2138
 6614SOL    HW224528   7.467   2.824  10.728  0.7579 -1.2796  1.1169
 6615SOL     OW24529   8.627   8.762   3.956  0.0078 -0.1759  0.5930
 6615SOL    HW124530   8.699   8.737   3.898 -0.0175 -1.7051  1.1695
 6615SOL    HW224531   8.557   8.790   3.897  0.7048  0.3241 -0.0133
 6616SOL     OW24532  11.917   7.005   7.382  0.3945  0.6490  0.3322
 6616SOL    HW124533  11.989   7.007   7.445  0.1252  1.3671  0.6225
 6616SOL    HW224534  11.955   6.964   7.304  0.5319 -0.9151  1.1833
 6617SOL     OW24535   5.223  11.501   0.465  0.1831 -0.3316  0.1923
 6617SOL    HW124536   5.198  11.439   0.395 -0.5309  0.9203 -0.7150
 6617SOL    HW224537   5.284  11.561   0.423 -0.4076  0.5622  0.5643
 6618SOL     OW24538   2.177   2.613   8.527  0.5503 -0.1472 -0.0359
 6618SOL    HW124539   2.105   2.633   8.467 -0.6381 -0.7355  1.1277
 6618SOL    HW224540   2.249   2.669   8.499  0.6631 -1.6026 -3.0640
 6619SOL     OW24541   4.632   8.858   8.408 -0.2347  0.3319  0.4799
 6619SOL    HW124542   4.544   8.822   8.414 -0.4347  0.8261  0.5830
 6619SOL    HW224543   4.633   8.905   8.324  0.0226  0.0797  0.3436
 6620SOL     OW24544   8.694   6.985  11.556 -0.3189 -0.1411 -0.5825
 6620SOL    HW124545   8.653   6.913  11.509 -0.2947 -1.6343  1.5537
 6620SOL    HW224546   8.622   7.047  11.571 -0.4910 -0.0084 -1.8255
 6621SOL     OW24547   1.987   6.437   2.373 -0.3111  0.1082  0.0574
 6621SOL    HW124548   1.985   6.342   2.357 -0.8988 -0.0587  1.0406
 6621SOL    HW224549   2.066   6.467   2.329 -1.2341 -0.4787 -2.1289
 6622SOL     OW24550   7.174   0.878   1.128  0.1683  0.3521 -0.7239
 6622SOL    HW124551   7.092   0.843   1.163  0.9752  1.1690  2.3611
 6622SOL    HW224552   7.242   0.836   1.181  1.6256  1.0051 -2.0169
 6623SOL     OW24553   4.890   8.094   0.226 -0.3793  0.1448  0.3120
 6623SOL    HW124554   4.913   8.027   0.161 -0.4582 -0.6327  1.0688
 6623SOL    HW224555   4.950   8.080   0.298  0.7615  2.0214 -0.1976
 6624SOL     OW24556   0.331   8.271   7.923  0.4677 -0.3820 -0.2640
 6624SOL    HW124557   0.401   8.216   7.889  1.5801  0.5145  0.5304
 6624SOL    HW224558   0.367   8.360   7.922 -0.1070 -0.0957  1.5675
 6625SOL     OW24559   6.358   4.360   9.417  0.0594 -0.4007 -0.0738
 6625SOL    HW124560   6.307   4.331   9.492 -0.9470  0.9374 -0.2056
 6625SOL    HW224561   6.449   4.357   9.448 -0.0992 -2.3781  0.3058
 6626SOL     OW24562  10.084   7.659   6.864 -0.6416 -0.0097  0.1445
 6626SOL    HW124563  10.047   7.679   6.950 -1.0681 -3.7820  1.0232
 6626SOL    HW224564  10.150   7.592   6.881  0.6603  0.5072 -2.3291
 6627SOL     OW24565   7.464  10.077   7.634  0.0289  0.0647  0.6393
 6627SOL    HW124566   7.499  10.163   7.657 -2.1784  1.2594 -0.1939
 6627SOL    HW224567   7.370  10.090   7.631 -0.3872 -2.4955  0.7923
 6628SOL     OW24568   9.335  11.687   7.290 -0.7591  0.4871 -0.1142
 6628SOL    HW124569   9.372  11.753   7.232  1.3680 -0.0196  0.5599
 6628SOL    HW224570   9.294  11.736   7.361  1.2079  1.1677  0.6336
 6629SOL     OW24571   5.536   3.930   9.840  0.1607  0.5502 -0.3453
 6629SOL    HW124572   5.498   3.964   9.759 -1.7172 -0.2714  0.1186
 6629SOL    HW224573   5.518   3.998   9.905 -2.3710 -0.5692  0.2817
 6630SOL     OW24574   5.690   2.369   7.818 -0.2056 -0.1082 -0.3372
 6630SOL    HW124575   5.694   2.403   7.729  0.1321 -0.0323 -0.2922
 6630SOL    HW224576   5.626   2.425   7.862 -0.3721 -0.1461 -0.5309
 6631SOL     OW24577   9.029   3.554   5.825 -0.0105 -0.4696  0.9160
 6631SOL    HW124578   8.972   3.573   5.899 -1.6982 -1.8552  0.0453
 6631SOL    HW224579   8.999   3.614   5.757 -1.0066 -1.7027  0.2183
 6632SOL     OW24580  11.587   0.531   3.698 -0.0029 -0.1707 -0.0049
 6632SOL    HW124581  11.608   0.440   3.721  0.8705  0.3628  1.4657
 6632SOL    HW224582  11.497   0.543   3.726 -1.5829 -1.6653 -3.7949
 6633SOL     OW24583   2.664   3.292   8.695  0.1572  0.1984 -0.1658
 6633SOL    HW124584   2.709   3.298   8.780  1.1034 -0.7118 -0.5802
 6633SOL    HW224585   2.581   3.249   8.716 -2.0621  4.5391  1.1169
 6634SOL     OW24586   7.078   4.505   9.165  0.1187  0.0023  0.4774
 6634SOL    HW124587   7.032   4.532   9.086 -1.4073  1.2064  1.6923
 6634SOL    HW224588   7.114   4.587   9.200 -0.2374 -0.3138  1.6146
 6635SOL     OW24589  10.851   3.787   9.451 -0.1978  0.5660 -0.1266
 6635SOL    HW124590  10.921   3.726   9.474 -1.2916 -0.5763  0.2505
 6635SOL    HW224591  10.772   3.733   9.446 -1.5272  2.1485  1.8401
 6636SOL     OW24592   8.640   3.180   6.835 -0.5743  0.1088 -0.2711
 6636SOL    HW124593   8.694   3.200   6.758 -0.5052  0.2761 -0.1792
 6636SOL    HW224594   8.598   3.097   6.813  0.2238 -0.3519 -0.0697
 6637SOL     OW24595   1.929  11.694  11.370  0.2134 -0.4198  0.1139
 6637SOL    HW124596   1.851  11.748  11.382  1.2543  1.3559 -0.6574
 6637SOL    HW224597   1.983  11.715  11.446  0.6310 -0.3448 -0.2018
 6638SOL     OW24598   3.859   5.132   2.737 -0.2089  0.1030 -0.2170
 6638SOL    HW124599   3.907   5.053   2.763 -1.2669 -0.7386 -0.7279
 6638SOL    HW224600   3.767   5.104   2.732 -0.3868  0.8792 -2.2284
 6639SOL     OW24601   7.805   8.827  11.015 -0.5990 -0.0520  0.0410
 6639SOL    HW124602   7.801   8.918  11.044  0.9900 -0.2333  0.9212
 6639SOL    HW224603   7.760   8.778  11.083  0.1646 -0.1072  0.5181
 6640SOL     OW24604  10.053   8.471   4.380 -0.0846 -0.1771 -0.3453
 6640SOL    HW124605  10.081   8.460   4.289 -0.7256  0.7478 -0.6749
 6640SOL    HW224606   9.957   8.465   4.376 -0.3284  2.5880 -0.1897
 6641SOL     OW24607   0.723   0.053  11.863  0.2740  0.1078  0.3473
 6641SOL    HW124608   0.774   0.006  11.797 -0.5827  1.1584 -1.1250
 6641SOL    HW224609   0.757   0.143  11.861  1.0181 -0.0843  2.2040
 6642SOL     OW24610   7.995  10.191   7.307  0.2229  0.1040 -0.0984
 6642SOL    HW124611   7.921  10.242   7.339 -0.0346 -0.7496  0.6819
 6642SOL    HW224612   7.977  10.180   7.214  0.8093  2.3059 -0.5497
 6643SOL     OW24613   8.439   9.157   0.299 -0.3093  0.3154 -0.2309
 6643SOL    HW124614   8.398   9.238   0.267 -3.3853 -1.5399 -1.4774
 6643SOL    HW224615   8.475   9.180   0.384 -0.3531  3.1619 -0.8826
 6644SOL     OW24616   3.555   6.684   6.630  0.3007 -0.2684  0.0658
 6644SOL    HW124617   3.471   6.645   6.657 -0.0301  0.1288 -0.3742
 6644SOL    HW224618   3.599   6.705   6.712  1.1269 -2.8773  0.3713
 6645SOL     OW24619   0.601   7.825   2.273  0.3838 -0.1932  0.1540
 6645SOL    HW124620   0.582   7.868   2.356 -1.3211 -0.4643 -0.0700
 6645SOL    HW224621   0.551   7.875   2.208  0.5687 -0.8501 -0.5089
 6646SOL     OW24622   3.409   2.012   0.864  0.3314 -0.0109  0.2696
 6646SOL    HW124623   3.420   1.925   0.902  0.1675  0.3290  1.1158
 6646SOL    HW224624   3.468   2.068   0.915  0.1955  0.4302 -0.0565
 6647SOL     OW24625  11.145   3.112   2.651 -0.2428  0.1550  0.1635
 6647SOL    HW124626  11.211   3.062   2.699 -1.4560 -1.1544  0.5543
 6647SOL    HW224627  11.112   3.051   2.584 -0.7976  0.8960 -0.2574
 6648SOL     OW24628   7.621  10.360   6.271  0.5382  0.1109 -0.6650
 6648SOL    HW124629   7.564  10.364   6.194  0.4470  0.3078 -0.5883
 6648SOL    HW224630   7.632  10.267   6.288 -3.3061 -0.1057  1.9254
 6649SOL     OW24631   1.821   8.674  11.183 -0.4362  0.3399 -0.0892
 6649SOL    HW124632   1.745   8.722  11.150 -0.3294  0.5527 -0.0325
 6649SOL    HW224633   1.787   8.589  11.209 -0.6193  0.3649 -0.2466
 6650SOL     OW24634   4.439   1.512   5.991  0.2360 -0.8794  0.5698
 6650SOL    HW124635   4.424   1.554   5.907  1.6222 -2.6978 -0.6523
 6650SOL    HW224636   4.353   1.511   6.034 -0.8032 -1.2460 -1.4345
 6651SOL     OW24637   6.031   1.079   1.093  0.4156 -0.0252 -0.3627
 6651SOL    HW124638   6.003   1.169   1.109 -0.7913 -0.3259 -0.7199
 6651SOL    HW224639   6.045   1.043   1.181 -0.9252 -0.0353 -0.1241
 6652SOL     OW24640   5.201   0.146   8.059 -0.0105  0.2895  0.0439
 6652SOL    HW124641   5.237   0.098   7.985  0.7321  0.0392  0.5561
 6652SOL    HW224642   5.168   0.228   8.021  1.4938  0.7217 -0.4000
 6653SOL     OW24643   6.072   4.176   9.043 -0.2604 -0.2839 -0.4444
 6653SOL    HW124644   6.109   4.262   9.024 -0.0096 -0.7787 -2.4242
 6653SOL    HW224645   6.101   4.156   9.132 -0.2278  1.6064  0.0067
 6654SOL     OW24646  10.086  10.855   9.398  0.0980  0.1327 -0.3467
 6654SOL    HW124647   9.998  10.835   9.431  0.3451 -0.3830  0.0148
 6654SOL    HW224648  10.103  10.787   9.333  1.8411 -2.3882  2.4562
 6655SOL     OW24649   0.868   8.045   8.085 -0.0223  0.4180  0.1820
 6655SOL    HW124650   0.910   7.975   8.135 -0.9816 -1.9999 -2.1469
 6655SOL    HW224651   0.779   8.049   8.120 -0.6447 -1.1666 -1.0663
 6656SOL     OW24652   1.891   2.609   2.696  0.1016  0.2668  0.1240
 6656SOL    HW124653   1.866   2.700   2.682  0.8556  0.3458 -0.8006
 6656SOL    HW224654   1.846   2.560   2.627  0.0176 -0.0106  0.3717
 6657SOL     OW24655   1.570  11.349   3.642  0.5516  0.4780 -0.0061
 6657SOL    HW124656   1.553  11.431   3.688  0.8857  0.0812  0.8266
 6657SOL    HW224657   1.493  11.295   3.659 -0.1657  0.9838 -1.4356
 6658SOL     OW24658   0.753   1.001  10.676 -0.8982  0.3825 -0.1657
 6658SOL    HW124659   0.664   1.017  10.645 -1.9985  0.0863  2.5822
 6658SOL    HW224660   0.754   1.033  10.766  2.0281  1.0820 -0.3366
 6659SOL     OW24661   0.066   1.310   5.292  0.0831 -0.2508  0.0445
 6659SOL    HW124662   0.146   1.332   5.244  1.5410  0.2105  2.4916
 6659SOL    HW224663   0.031   1.395   5.319  0.3559 -0.5288  1.3414
 6660SOL     OW24664   9.054   2.119   7.790  0.0798  0.6745 -0.2535
 6660SOL    HW124665   9.134   2.170   7.805 -0.1676  0.9687  0.0960
 6660SOL    HW224666   9.085   2.033   7.762  0.5847  0.1307  1.7978
 6661SOL     OW24667   8.780  10.947   6.186  0.3228 -0.3497  0.1852
 6661SOL    HW124668   8.820  10.896   6.115 -1.4554 -0.8511 -0.5017
 6661SOL    HW224669   8.792  11.038   6.160 -0.8357 -0.5323 -1.1136
 6662SOL     OW24670   4.182   4.369   5.435  0.2130  0.9148  0.3540
 6662SOL    HW124671   4.162   4.454   5.474  0.5495  1.6887 -1.1021
 6662SOL    HW224672   4.105   4.315   5.454  0.5120  1.1345  2.3529
 6663SOL     OW24673   8.570   9.613   3.024 -0.1891 -0.2343 -0.5595
 6663SOL    HW124674   8.555   9.520   3.043 -1.3892 -0.0356 -0.4247
 6663SOL    HW224675   8.665   9.623   3.026  0.0782 -1.8158 -2.2503
 6664SOL     OW24676   9.945  10.862   4.710 -0.2768  0.0347  0.1129
 6664SOL    HW124677   9.909  10.862   4.621  1.3285 -1.0171 -0.5868
 6664SOL    HW224678  10.011  10.931   4.709 -0.3106  0.0750  0.5207
 6665SOL     OW24679   0.211   3.207   4.883 -0.2897  0.5274  0.1401
 6665SOL    HW124680   0.236   3.294   4.914 -2.1604  1.6522 -1.2520
 6665SOL    HW224681   0.199   3.155   4.962  1.6135  1.2742  0.9798
 6666SOL     OW24682  10.443  10.105   7.330  0.2715  0.1047 -0.0783
 6666SOL    HW124683  10.481  10.144   7.408  1.5309 -0.4135 -0.4209
 6666SOL    HW224684  10.378  10.043   7.364  0.9589 -0.2791  0.5729
 6667SOL     OW24685   9.834   1.322  10.303  0.0646 -0.6393 -0.3287
 6667SOL    HW124686   9.921   1.347  10.272 -0.3819  1.0888 -0.3242
 6667SOL    HW224687   9.780   1.318  10.223 -0.0014 -1.0354 -0.2654
 6668SOL     OW24688   4.782   0.589   2.675  0.2270  0.0876 -0.2208
 6668SOL    HW124689   4.796   0.639   2.595  2.1842 -1.3233 -0.8620
 6668SOL    HW224690   4.843   0.628   2.738  1.4237 -1.0964 -0.5882
 6669SOL     OW24691   9.630   3.575   7.348  0.2833 -0.2115  0.1908
 6669SOL    HW124692   9.618   3.482   7.365 -2.6741 -0.5202 -2.6858
 6669SOL    HW224693   9.670   3.579   7.261 -0.0187  1.1997  0.0810
 6670SOL     OW24694   8.688   1.192   1.569 -0.3006  0.4124  0.8524
 6670SOL    HW124695   8.617   1.209   1.507 -0.0794  0.0493  0.4919
 6670SOL    HW224696   8.674   1.255   1.640 -0.2847  1.1518  0.2125
 6671SOL     OW24697   1.478   2.413   7.948  0.2764 -0.3295  0.1921
 6671SOL    HW124698   1.461   2.445   7.859 -0.5773 -1.4780 -0.0829
 6671SOL    HW224699   1.477   2.492   8.002  0.7087  0.3824 -0.7936
 6672SOL     OW24700   1.231   4.558   2.707  0.3258 -0.1127  0.7677
 6672SOL    HW124701   1.193   4.475   2.735  0.5861 -0.0058  1.4531
 6672SOL    HW224702   1.191   4.624   2.765  2.8418 -0.1940  2.7507
 6673SOL     OW24703   4.660   4.332  11.564 -0.7290  0.5744 -0.2089
 6673SOL    HW124704   4.741   4.286  11.587 -1.2104 -0.4212 -0.4278
 6673SOL    HW224705   4.622   4.358  11.649  0.4327  2.1762 -0.1538
 6674SOL     OW24706   9.006   5.766  10.003  0.5753  0.4447  0.2848
 6674SOL    HW124707   8.917   5.733  10.014  0.5872  0.3344  0.0629
 6674SOL    HW224708   9.008   5.801   9.914  0.7147  0.5704  0.3359
 6675SOL     OW24709   7.000   8.000   7.186 -0.2802 -0.3154  0.2353
 6675SOL    HW124710   7.073   7.955   7.144 -0.1297  1.0773 -1.0690
 6675SOL    HW224711   6.940   8.020   7.114 -1.2976 -0.2196  1.0854
 6676SOL     OW24712   6.595   8.952  11.155 -0.3620 -0.4749  0.4124
 6676SOL    HW124713   6.685   8.968  11.182 -0.4856 -0.1626  0.6390
 6676SOL    HW224714   6.594   8.860  11.129 -0.6056 -1.2628  2.9510
 6677SOL     OW24715   4.584   8.722   7.579 -0.0727 -0.0379  0.3867
 6677SOL    HW124716   4.527   8.747   7.652  0.9157  0.4231  1.0325
 6677SOL    HW224717   4.524   8.691   7.511 -1.2347  1.8039  0.4721
 6678SOL     OW24718   3.250  11.773   0.126  0.4182  0.0326 -0.0034
 6678SOL    HW124719   3.297  11.705   0.176 -1.8292 -0.0103  2.2569
 6678SOL    HW224720   3.226  11.838   0.192  0.5691  1.9525 -1.7519
 6679SOL     OW24721   9.253  10.558   3.647 -0.0565 -0.3910  0.5934
 6679SOL    HW124722   9.286  10.482   3.599  0.4280 -0.2251  0.6655
 6679SOL    HW224723   9.237  10.624   3.579 -1.5425 -0.9140  0.3836
 6680SOL     OW24724  10.743   3.416   2.407  0.2336  0.0033  0.1913
 6680SOL    HW124725  10.743   3.381   2.318 -1.2093 -0.5406  0.3599
 6680SOL    HW224726  10.820   3.378   2.448 -0.4895 -1.8674 -0.0821
 6681SOL     OW24727   7.319   1.194   0.287 -0.3757 -0.0276  0.2454
 6681SOL    HW124728   7.286   1.277   0.254  0.1684 -0.7642 -2.3342
 6681SOL    HW224729   7.353   1.215   0.374 -2.4065  1.9127  0.6711
 6682SOL     OW24730   2.772   8.859   7.575 -0.4233  0.1538 -0.2718
 6682SOL    HW124731   2.867   8.868   7.563 -0.3613 -2.1872 -2.5026
 6682SOL    HW224732   2.734   8.933   7.529  0.2896  0.1969 -0.8023
 6683SOL     OW24733   9.144   3.957   4.034  0.3913 -1.0690 -0.0491
 6683SOL    HW124734   9.051   3.956   4.057  0.2568  0.2353 -0.4885
 6683SOL    HW224735   9.187   3.992   4.112  0.1948  0.9652 -0.7917
 6684SOL     OW24736   4.019   6.203   3.162  0.2945 -0.2185 -0.1466
 6684SOL    HW124737   4.096   6.192   3.106 -0.9057 -0.9592 -1.7181
 6684SOL    HW224738   3.947   6.166   3.111 -1.5735  2.6288  0.2580
 6685SOL     OW24739   1.980   0.504   0.339 -0.2623  0.2033 -0.0073
 6685SOL    HW124740   1.930   0.423   0.327 -2.6679  1.4769  0.7028
 6685SOL    HW224741   2.070   0.475   0.348 -0.9787 -2.3580 -0.2217
 6686SOL     OW24742   0.343   0.580   9.261  0.3249  0.0207 -0.2475
 6686SOL    HW124743   0.340   0.651   9.325  0.4988  0.3545 -0.6078
 6686SOL    HW224744   0.415   0.603   9.202 -0.2766  0.0789 -0.9771
 6687SOL     OW24745   0.339  10.797   1.976 -0.4303  0.8311  0.3327
 6687SOL    HW124746   0.321  10.854   2.050  2.0628  1.4285  0.5775
 6687SOL    HW224747   0.364  10.857   1.905 -0.2425  0.1505 -0.1910
 6688SOL     OW24748   9.644   5.110   8.005 -0.7266  0.4898 -0.3541
 6688SOL    HW124749   9.652   5.036   7.945 -1.3023  0.5015 -0.4505
 6688SOL    HW224750   9.730   5.116   8.047 -0.2131  0.6689 -1.3879
 6689SOL     OW24751   3.137   3.994   2.839  0.4480 -0.3833 -0.0564
 6689SOL    HW124752   3.228   3.968   2.821  0.5446  0.6740 -1.1928
 6689SOL    HW224753   3.085   3.943   2.779  0.4975  0.6902 -1.0440
 6690SOL     OW24754   6.605   1.040   2.266  0.0885 -0.5175  0.2419
 6690SOL    HW124755   6.627   0.988   2.344  0.3758 -2.4340 -1.0476
 6690SOL    HW224756   6.679   1.027   2.207 -0.9659 -0.6666 -1.0930
 6691SOL     OW24757   2.946   0.166   4.694  0.6300  0.1242  0.1222
 6691SOL    HW124758   2.939   0.261   4.699 -0.4569  0.2133 -1.8340
 6691SOL    HW224759   2.898   0.134   4.771 -3.0009  1.1707 -1.4925
 6692SOL     OW24760  11.957   6.977   9.022 -1.2667  0.1618 -0.1615
 6692SOL    HW124761  11.882   6.968   8.964 -0.0233 -2.1881 -1.5779
 6692SOL    HW224762  11.954   6.900   9.078 -0.5169  0.6293  0.5517
 6693SOL     OW24763   0.199   1.048   3.786 -0.1574  0.3979  0.0831
 6693SOL    HW124764   0.144   0.982   3.744 -0.6657 -0.2708  1.7375
 6693SOL    HW224765   0.240   1.094   3.713 -1.3485 -0.4117 -1.1499
 6694SOL     OW24766   7.095   7.333   1.884 -0.0204  0.1497  0.0443
 6694SOL    HW124767   7.160   7.316   1.816 -0.2955 -2.9604  0.4250
 6694SOL    HW224768   7.017   7.361   1.836  0.6261  0.7582 -0.6713
 6695SOL     OW24769  11.219   0.602   2.225  0.9977 -0.6212  0.3828
 6695SOL    HW124770  11.210   0.513   2.190  0.1699 -0.3218 -0.2125
 6695SOL    HW224771  11.134   0.620   2.266  0.7496  0.2786 -0.4692
 6696SOL     OW24772   1.598   0.212   5.494  0.3875  0.8052  0.1304
 6696SOL    HW124773   1.587   0.117   5.490  1.4553  0.5619  1.7960
 6696SOL    HW224774   1.668   0.232   5.432 -0.2162  0.6094 -0.6340
 6697SOL     OW24775   0.542   1.669  11.714  0.1451  0.4076  0.3371
 6697SOL    HW124776   0.605   1.742  11.717  1.5299 -0.7543  1.2456
 6697SOL    HW224777   0.532   1.649  11.621  1.4904  0.3358  0.1916
 6698SOL     OW24778   4.394   4.082   5.716  0.2200 -0.1011  0.0716
 6698SOL    HW124779   4.371   4.147   5.783  0.5331 -1.4020  1.4915
 6698SOL    HW224780   4.469   4.035   5.753  1.3868  0.1143 -1.8645
 6699SOL     OW24781   1.233   4.272   6.471 -1.1401  0.3568 -0.5368
 6699SOL    HW124782   1.268   4.344   6.523 -0.3483 -0.8597  0.6747
 6699SOL    HW224783   1.148   4.252   6.511 -1.0539  0.1756 -0.4443
 6700SOL     OW24784   0.523   1.161   2.638 -0.0646  0.5598 -0.2236
 6700SOL    HW124785   0.535   1.156   2.733  0.8170  2.1357 -0.2194
 6700SOL    HW224786   0.465   1.236   2.625  0.4674  0.8478 -0.9845
 6701SOL     OW24787   9.333   3.298   9.214 -0.3493  0.5038  0.5951
 6701SOL    HW124788   9.313   3.391   9.229 -0.2783  0.1123  3.8398
 6701SOL    HW224789   9.428   3.294   9.211 -0.2685  0.3861  2.2946
 6702SOL     OW24790   9.718   2.505   0.910 -0.1989 -0.1294 -0.6930
 6702SOL    HW124791   9.775   2.452   0.854  1.7550  2.6870 -1.6561
 6702SOL    HW224792   9.753   2.594   0.901 -3.2830  1.3727  0.7161
 6703SOL     OW24793   8.364   2.497   1.733 -0.0704 -0.0445  0.3982
 6703SOL    HW124794   8.277   2.532   1.751 -1.1477 -1.8671 -0.9518
 6703SOL    HW224795   8.384   2.530   1.645 -0.3836 -1.3818 -0.1985
 6704SOL     OW24796  10.310   8.726   3.431  0.4844 -0.4515  0.3310
 6704SOL    HW124797  10.341   8.812   3.403  0.0790  0.0975  1.4733
 6704SOL    HW224798  10.244   8.702   3.366 -0.8235  1.0276  1.0191
 6705SOL     OW24799   7.467   1.253   8.234 -0.0083 -0.4128  0.3106
 6705SOL    HW124800   7.372   1.247   8.223  0.0820 -0.5401 -0.4830
 6705SOL    HW224801   7.480   1.333   8.285 -0.4644  0.5350 -0.9877
 6706SOL     OW24802   5.502   8.243  10.275 -0.0045  0.1939  0.1326
 6706SOL    HW124803   5.485   8.250  10.369 -0.2778  0.1312  0.0879
 6706SOL    HW224804   5.467   8.157  10.251  1.3269 -0.3962  0.2464
 6707SOL     OW24805   4.861   0.764   5.234 -0.4730  0.0388 -0.2581
 6707SOL    HW124806   4.798   0.824   5.274  1.5206  1.9766  0.2206
 6707SOL    HW224807   4.882   0.803   5.149  0.4170 -0.2823 -0.2037
 6708SOL     OW24808   5.012  11.252   9.624 -0.0716  0.4166 -0.5421
 6708SOL    HW124809   5.007  11.323   9.688  1.4644  1.0558 -1.0701
 6708SOL    HW224810   4.931  11.258   9.575 -0.7294  0.7009  0.5471
 6709SOL     OW24811   3.119   3.177   7.168 -0.1195 -0.1454 -0.1792
 6709SOL    HW124812   3.181   3.138   7.105 -0.6166 -0.8902 -0.2167
 6709SOL    HW224813   3.174   3.234   7.223  0.1620  1.4837 -2.0225
 6710SOL     OW24814   2.554   7.783   3.408 -0.4353 -0.2634 -0.4589
 6710SOL    HW124815   2.595   7.808   3.325  1.9669 -1.5834  0.2442
 6710SOL    HW224816   2.523   7.866   3.445  1.0914  0.7382 -1.3211
 6711SOL     OW24817  10.728   6.818   6.970 -0.6310 -0.3913 -0.2076
 6711SOL    HW124818  10.718   6.745   7.031 -1.3016 -0.1781 -0.0632
 6711SOL    HW224819  10.652   6.874   6.986 -0.8364 -0.3514 -1.2528
 6712SOL     OW24820  11.892   7.283   9.995 -0.1790 -0.0406 -0.2256
 6712SOL    HW124821  11.807   7.299   9.955 -0.8473 -0.6806  0.8913
 6712SOL    HW224822  11.872   7.241  10.079  1.2616 -1.0880 -0.3622
 6713SOL     OW24823   3.585   1.368  10.984  0.0898  0.2302 -0.2970
 6713SOL    HW124824   3.680   1.382  10.982  0.6483 -2.8130 -0.3501
 6713SOL    HW224825   3.557   1.402  11.069  1.1377  1.4640 -0.4144
 6714SOL     OW24826  10.418   3.849   1.057  0.5892  0.3851 -0.4841
 6714SOL    HW124827  10.461   3.833   1.141 -0.3231 -0.6539 -0.1880
 6714SOL    HW224828  10.475   3.911   1.012  2.0655 -0.4643  0.1431
 6715SOL     OW24829   6.206   3.195   1.354 -0.1792  0.4921  0.3226
 6715SOL    HW124830   6.207   3.272   1.410  0.6053  1.0766 -0.4469
 6715SOL    HW224831   6.299   3.172   1.344 -0.2167  0.9474 -1.4077
 6716SOL     OW24832   6.281   1.455   0.219 -0.4350  0.0080  0.1589
 6716SOL    HW124833   6.246   1.367   0.231 -0.0541 -0.6693 -2.9643
 6716SOL    HW224834   6.293   1.464   0.124  0.8075  2.9427  0.4830
 6717SOL     OW24835   7.542  10.711   0.470  0.0068  0.0906  0.6994
 6717SOL    HW124836   7.539  10.672   0.383 -1.5031  0.6218  0.5022
 6717SOL    HW224837   7.634  10.701   0.497  0.2954 -0.8989 -0.5574
 6718SOL     OW24838   6.595   6.918   7.877 -0.3327 -0.2918  0.0455
 6718SOL    HW124839   6.506   6.952   7.867  0.6291  2.4042 -0.2162
 6718SOL    HW224840   6.634   6.925   7.790  0.2872 -1.0689  0.2424
 6719SOL     OW24841   8.588   7.967   9.442  0.0384 -0.0137 -0.3992
 6719SOL    HW124842   8.554   7.890   9.396  0.4550  1.4077 -3.3319
 6719SOL    HW224843   8.672   7.939   9.477 -1.4925 -1.9444  2.0839
 6720SOL     OW24844   1.438  10.180   9.929  0.5320 -0.1997  0.0257
 6720SOL    HW124845   1.356  10.222   9.904  0.9091  0.5888  0.0932
 6720SOL    HW224846   1.450  10.111   9.863  0.0998  0.0383 -0.3098
 6721SOL     OW24847   7.883   0.069   8.192 -0.9892  0.5901  0.0395
 6721SOL    HW124848   7.849   0.059   8.281 -0.0256  0.5874  0.4183
 6721SOL    HW224849   7.968   0.026   8.194 -0.1582  2.1350 -0.3828
 6722SOL     OW24850   8.609   5.157   4.104  0.0638 -0.1757  0.2716
 6722SOL    HW124851   8.641   5.139   4.192  0.3028 -1.0916  0.0074
 6722SOL    HW224852   8.525   5.200   4.117 -0.4801 -1.3942  0.9434
 6723SOL     OW24853   8.242   1.723  11.144  0.0668 -1.1649  0.2138
 6723SOL    HW124854   8.223   1.633  11.120  1.4167 -1.0896 -1.3437
 6723SOL    HW224855   8.162   1.771  11.124 -0.9589 -2.1043  1.8466
 6724SOL     OW24856   8.832   8.242   1.843  0.0514 -0.1145 -0.0076
 6724SOL    HW124857   8.751   8.239   1.792 -0.1969 -1.1417  0.4178
 6724SOL    HW224858   8.889   8.303   1.795 -1.7073  2.3178  0.8247
 6725SOL     OW24859   1.436   7.526   2.428  0.2469 -0.3013  0.2998
 6725SOL    HW124860   1.366   7.530   2.493  0.0304  1.1462  0.0083
 6725SOL    HW224861   1.401   7.573   2.352  0.9078 -1.0147 -0.4777
 6726SOL     OW24862  11.799   3.311   2.963 -0.1985 -0.0850  0.3849
 6726SOL    HW124863  11.829   3.400   2.948  0.6981 -0.3144  0.7963
 6726SOL    HW224864  11.831   3.261   2.888 -0.3445 -0.1491  0.3638
 6727SOL     OW24865   6.571   0.182   9.562  0.6510 -0.2448  0.4916
 6727SOL    HW124866   6.499   0.244   9.544  0.9224 -0.0331  0.1189
 6727SOL    HW224867   6.650   0.235   9.554  0.8823 -0.6305  0.2265
 6728SOL     OW24868   2.162   6.404   6.541 -0.2295  0.5493 -0.6293
 6728SOL    HW124869   2.168   6.432   6.450 -4.2648 -0.2583 -1.3544
 6728SOL    HW224870   2.214   6.324   6.546  0.9684  1.2171 -1.8832
 6729SOL     OW24871   1.244   0.788   7.547  0.0390  0.3688 -0.2773
 6729SOL    HW124872   1.300   0.862   7.526 -0.3321  0.3654 -1.3055
 6729SOL    HW224873   1.201   0.766   7.465 -0.4845 -0.4591  0.2064
 6730SOL     OW24874   0.450  10.431   0.956  0.4994  0.2088  0.0460
 6730SOL    HW124875   0.514  10.469   0.895  1.0040 -2.4824 -1.2606
 6730SOL    HW224876   0.374  10.412   0.901 -0.3278  0.7281  0.9885
 6731SOL     OW24877   8.820   2.486   6.662 -0.3895 -0.0673 -0.5002
 6731SOL    HW124878   8.853   2.398   6.682  1.2672  0.9412  1.5976
 6731SOL    HW224879   8.858   2.507   6.577  1.2979 -0.4643  0.1154
 6732SOL     OW24880   3.563  10.993   3.127  0.3362 -0.0555 -0.0268
 6732SOL    HW124881   3.641  11.037   3.095  0.4777 -0.5998 -0.4591
 6732SOL    HW224882   3.519  11.057   3.183 -0.9123  1.6524 -2.7552
 6733SOL     OW24883   4.022   6.008   0.064  0.2001  0.2999  0.0382
 6733SOL    HW124884   4.100   6.048   0.101  0.2549  0.0325  0.2092
 6733SOL    HW224885   3.964   5.995   0.139 -0.2030  0.9348 -0.1517
 6734SOL     OW24886   3.567   9.022   6.062 -0.6456 -0.1208 -0.5415
 6734SOL    HW124887   3.530   8.939   6.091 -1.0764 -0.4728 -2.0413
 6734SOL    HW224888   3.547   9.083   6.133 -2.9054 -0.6233 -0.6868
 6735SOL     OW24889  11.668   7.967  10.383  0.8423 -0.4232  0.6288
 6735SOL    HW124890  11.691   8.035  10.320 -0.6162 -1.3643 -1.0137
 6735SOL    HW224891  11.711   7.888  10.349 -1.1577 -1.2644 -0.0831
 6736SOL     OW24892   9.895   6.411  10.282 -0.1847  0.7604  0.7535
 6736SOL    HW124893   9.959   6.468  10.323 -0.7218  1.0454  1.1964
 6736SOL    HW224894   9.811   6.455  10.295 -0.2486  1.5991 -1.8646
 6737SOL     OW24895   5.093  10.565   3.124 -0.4418  0.3619  0.8413
 6737SOL    HW124896   5.085  10.639   3.185  1.3500  0.6449  0.7716
 6737SOL    HW224897   5.114  10.606   3.040 -0.3623 -0.1808  0.5963
 6738SOL     OW24898   8.262   3.272   5.711  0.1508  0.3680 -0.2065
 6738SOL    HW124899   8.315   3.329   5.654 -0.3003  1.4005  0.3749
 6738SOL    HW224900   8.172   3.285   5.680 -0.0120  0.3726  0.2648
 6739SOL     OW24901   7.460   6.434  10.020  0.4812 -0.4139 -0.4184
 6739SOL    HW124902   7.529   6.484  10.065  1.0998 -0.9763 -0.7148
 6739SOL    HW224903   7.458   6.350  10.067  0.7566 -0.8021 -1.0876
 6740SOL     OW24904   6.801   1.705   9.597  0.5584  0.2401 -0.8662
 6740SOL    HW124905   6.733   1.759   9.636 -0.6556 -0.5755 -1.7649
 6740SOL    HW224906   6.880   1.757   9.603  0.0714  0.8447  1.0681
 6741SOL     OW24907   6.068   5.437   5.537 -0.1191 -0.1678  0.1281
 6741SOL    HW124908   6.110   5.352   5.521 -2.3041 -1.2019 -0.4761
 6741SOL    HW224909   5.998   5.418   5.599 -1.2234  0.9903 -0.6980
 6742SOL     OW24910   3.834   2.255   0.904  0.2735 -0.5946 -0.1928
 6742SOL    HW124911   3.888   2.244   0.982  1.1351 -1.0748 -0.8382
 6742SOL    HW224912   3.744   2.245   0.935  0.5506  0.1174  0.8885
 6743SOL     OW24913   8.265   4.512   3.333 -0.2316 -0.4309 -0.1908
 6743SOL    HW124914   8.187   4.502   3.388 -0.0853  0.0023  0.1001
 6743SOL    HW224915   8.292   4.422   3.315 -0.1569 -0.5851  0.6330
 6744SOL     OW24916  11.697   9.017  11.477 -0.1895 -0.7083  0.1819
 6744SOL    HW124917  11.608   9.049  11.492 -0.1110 -0.1802 -0.3964
 6744SOL    HW224918  11.718   9.048  11.388  0.8409 -0.1703  0.6003
 6745SOL     OW24919   3.902   1.260  11.215 -0.2129  0.0321 -0.3209
 6745SOL    HW124920   3.874   1.169  11.227 -1.2953  0.2327 -1.1769
 6745SOL    HW224921   3.873   1.283  11.127  1.6128  0.6686 -0.7915
 6746SOL     OW24922   3.871   3.816   1.536  0.7292 -0.1966  0.3492
 6746SOL    HW124923   3.830   3.804   1.621  2.1038 -0.1978  1.0487
 6746SOL    HW224924   3.903   3.906   1.538  1.3215 -0.3955  0.0974
 6747SOL     OW24925   0.412   4.410   8.711  0.2658  0.1034  0.4437
 6747SOL    HW124926   0.362   4.484   8.676 -0.0406 -0.4062 -0.2261
 6747SOL    HW224927   0.490   4.449   8.749 -0.0781  0.8053  0.4374
 6748SOL     OW24928  11.290   5.952   8.803 -0.6192 -0.1984  0.0169
 6748SOL    HW124929  11.346   5.943   8.725 -0.2955 -1.1957  0.3472
 6748SOL    HW224930  11.323   5.885   8.864  1.0484  2.4027  2.1962
 6749SOL     OW24931  10.889   5.050   4.206 -0.0005  0.2143 -0.4009
 6749SOL    HW124932  10.963   4.991   4.193 -0.2021  0.0652 -0.8751
 6749SOL    HW224933  10.883   5.100   4.125  0.1605  0.8854 -0.0084
 6750SOL     OW24934   0.670  10.394  11.482  0.2012  0.2669  0.5173
 6750SOL    HW124935   0.586  10.356  11.456 -0.9196  1.8855  1.5908
 6750SOL    HW224936   0.692  10.350  11.564  1.2791 -1.3407 -0.5872
 6751SOL     OW24937  11.630   5.677   7.118 -0.4589  0.1338  0.3370
 6751SOL    HW124938  11.610   5.716   7.033 -1.1884 -0.0862  0.3978
 6751SOL    HW224939  11.605   5.585   7.109  0.2605 -0.0847  0.5248
 6752SOL     OW24940  10.740   1.696   9.482  0.1456 -0.3476 -0.1063
 6752SOL    HW124941  10.786   1.623   9.523  1.1530  0.2452 -0.1445
 6752SOL    HW224942  10.797   1.772   9.497 -0.8220  0.4110 -0.1704
 6753SOL     OW24943   1.748   4.303   5.838 -0.2313 -0.3996  0.1211
 6753SOL    HW124944   1.736   4.227   5.894 -0.4708 -0.5546 -0.1368
 6753SOL    HW224945   1.702   4.374   5.884  1.3941  0.0071  1.1990
 6754SOL     OW24946  10.924   1.736   1.638 -0.2400 -0.2319 -0.4662
 6754SOL    HW124947  10.839   1.697   1.617  0.4750 -1.0962 -1.9774
 6754SOL    HW224948  10.952   1.778   1.557  0.0624  1.4676  0.4842
 6755SOL     OW24949  11.293   8.000   7.278 -0.9597  0.1125 -0.4995
 6755SOL    HW124950  11.303   7.967   7.367 -1.2113  1.2838 -0.0130
 6755SOL    HW224951  11.290   7.922   7.224  1.0675 -0.6056  0.2998
 6756SOL     OW24952   3.578  10.101   5.528 -0.1832 -0.2115  0.0171
 6756SOL    HW124953   3.569  10.018   5.483 -0.3916  0.6552 -1.6339
 6756SOL    HW224954   3.671  10.123   5.519 -0.0080 -0.5097  0.9516
 6757SOL     OW24955   3.593  11.115   2.791 -0.0975 -0.2273 -0.2190
 6757SOL    HW124956   3.559  11.196   2.829  1.0832 -0.0721  0.5473
 6757SOL    HW224957   3.619  11.139   2.702  1.8407  0.7019  0.5445
 6758SOL     OW24958   9.026   4.988   2.925  0.1331  0.1383 -0.5958
 6758SOL    HW124959   8.946   4.952   2.963  1.4352 -3.3378 -0.8274
 6758SOL    HW224960   9.090   4.986   2.996  0.4972  1.3731 -0.8543
 6759SOL     OW24961  11.971   0.820  10.494 -0.6901  0.0483 -0.1351
 6759SOL    HW124962  12.045   0.879  10.476 -1.3910  0.8606 -0.4512
 6759SOL    HW224963  12.010   0.744  10.536  0.2205  0.8257  0.4539
 6760SOL     OW24964   5.233   4.395  11.431  0.0569 -0.3287 -0.0465
 6760SOL    HW124965   5.194   4.440  11.506  0.4376 -0.8058  0.4435
 6760SOL    HW224966   5.159   4.363  11.381 -0.2717  1.8111 -1.0278
 6761SOL     OW24967  10.606  11.380   3.556 -0.0385  0.3732  0.8149
 6761SOL    HW124968  10.564  11.409   3.475 -2.0353 -0.2386  1.5702
 6761SOL    HW224969  10.697  11.410   3.548 -0.5447  1.5972 -0.9957
 6762SOL     OW24970   3.659   3.878   6.106 -0.2937  0.3307  0.4682
 6762SOL    HW124971   3.636   3.963   6.069 -2.8777 -0.5513 -0.1897
 6762SOL    HW224972   3.741   3.893   6.152  0.1196  2.8004 -0.8988
 6763SOL     OW24973  10.693   2.023  10.578 -0.2487 -0.7755 -0.0672
 6763SOL    HW124974  10.681   1.966  10.654 -1.0264  1.1369  1.3253
 6763SOL    HW224975  10.669   1.969  10.503 -1.7045 -2.0440  1.2428
 6764SOL     OW24976   2.328   7.039   2.793 -0.4065 -0.3432 -0.0170
 6764SOL    HW124977   2.295   7.046   2.882 -0.4804 -0.0209 -0.0687
 6764SOL    HW224978   2.269   6.977   2.750 -0.0210 -0.9486  0.3192
 6765SOL     OW24979   6.716   9.878   8.497 -0.1132 -0.0924  0.2848
 6765SOL    HW124980   6.738   9.795   8.538 -1.0194 -0.2836  0.4087
 6765SOL    HW224981   6.727   9.862   8.403 -1.8172 -0.8512  0.1907
 6766SOL     OW24982   8.824   9.659   4.251  0.1913 -0.8270  0.4832
 6766SOL    HW124983   8.881   9.723   4.294 -0.0338 -0.2334 -0.0889
 6766SOL    HW224984   8.844   9.577   4.295  0.1241 -0.2827  1.5877
 6767SOL     OW24985   1.171   2.090   6.626  0.3104  0.3148 -0.4578
 6767SOL    HW124986   1.088   2.101   6.579  0.7845 -0.1165 -1.4227
 6767SOL    HW224987   1.147   2.095   6.719 -1.2208 -2.4246 -0.6105
 6768SOL     OW24988   4.910   0.453  11.370  0.0211 -0.8193 -0.6239
 6768SOL    HW124989   4.980   0.454  11.435  2.0376 -1.2935 -2.6684
 6768SOL    HW224990   4.877   0.543  11.369  0.3287 -0.6699  0.6217
 6769SOL     OW24991   6.791   9.507   9.145 -0.0021 -0.0514 -0.0364
 6769SOL    HW124992   6.718   9.460   9.106  0.5393  0.5282 -1.8228
 6769SOL    HW224993   6.835   9.442   9.201  0.0578 -1.3654 -1.5490
 6770SOL     OW24994   6.863   1.139   7.585  0.8403 -0.2035 -0.3487
 6770SOL    HW124995   6.956   1.129   7.562  1.0009 -0.5399  0.4148
 6770SOL    HW224996   6.857   1.228   7.619  0.6508  0.2094 -1.4236
 6771SOL     OW24997   0.805   9.296   7.622  0.2044 -0.1004  0.1979
 6771SOL    HW124998   0.877   9.353   7.597 -0.8207  1.1777  0.0001
 6771SOL    HW224999   0.836   9.250   7.700  1.3199  0.2194 -0.0452
 6772SOL     OW25000   1.056   4.214   3.089 -0.4736  0.1874 -0.0254
 6772SOL    HW125001   1.128   4.276   3.098 -0.3450  0.2217 -1.1654
 6772SOL    HW225002   1.075   4.146   3.154  0.1071  0.6409  0.2908
 6773SOL     OW25003   5.733  10.904   0.538  0.2326 -0.0476 -0.6340
 6773SOL    HW125004   5.739  10.952   0.621  1.0809  0.4390 -0.9638
 6773SOL    HW225005   5.639  10.901   0.519  0.0855  0.4729 -0.0310
 6774SOL     OW25006   5.243  11.203   5.769  0.2424  0.0330 -0.6344
 6774SOL    HW125007   5.288  11.219   5.852 -0.0359 -0.2181 -0.4351
 6774SOL    HW225008   5.157  11.170   5.794 -0.4725  1.5274 -0.9878
 6775SOL     OW25009   3.149  10.907   3.148  0.1706 -0.1962 -0.6313
 6775SOL    HW125010   3.197  10.986   3.174 -0.9003  1.4386 -3.1801
 6775SOL    HW225011   3.194  10.877   3.069 -0.5107 -1.1180 -0.6927
 6776SOL     OW25012   8.072   7.941   3.533 -0.0188  0.2419 -0.5463
 6776SOL    HW125013   7.979   7.961   3.542 -0.3426 -0.4580 -2.0690
 6776SOL    HW225014   8.105   8.007   3.472 -0.1101 -1.0669 -2.0530
 6777SOL     OW25015  11.839   2.316   5.735  0.1087 -0.1722  0.0450
 6777SOL    HW125016  11.746   2.320   5.710 -0.4820  1.1562  2.1749
 6777SOL    HW225017  11.839   2.279   5.823  1.4106  1.3865  0.7560
 6778SOL     OW25018   3.880   2.979   1.486 -0.1003  0.4055 -0.2773
 6778SOL    HW125019   3.930   2.992   1.566 -0.4659  3.8363 -0.4724
 6778SOL    HW225020   3.942   2.997   1.415 -0.6704  0.9883 -0.6374
 6779SOL     OW25021  10.039   7.398  11.939  0.1925  0.1896 -0.0678
 6779SOL    HW125022  10.134   7.393  11.951  0.0499 -2.5032  0.6585
 6779SOL    HW225023  10.027   7.401  11.844  1.0256 -1.8949 -0.2864
 6780SOL     OW25024   2.134   7.465   9.376 -0.7374 -0.1989 -0.2590
 6780SOL    HW125025   2.136   7.557   9.350 -3.6300  0.3527  1.0903
 6780SOL    HW225026   2.200   7.458   9.444 -1.2995  1.2178  0.4774
 6781SOL     OW25027   0.976   5.826   0.846  0.6596  0.1471 -0.4751
 6781SOL    HW125028   0.992   5.809   0.938  1.5531  0.5058 -0.5606
 6781SOL    HW225029   0.891   5.870   0.844  1.0270  0.9029  0.2559
 6782SOL     OW25030   7.401   1.757   3.847 -0.2281 -0.2470  0.1290
 6782SOL    HW125031   7.321   1.801   3.816  0.8393  1.6266 -0.1259
 6782SOL    HW225032   7.400   1.673   3.802 -0.1511  1.2617 -3.0314
 6783SOL     OW25033   4.636   5.189   9.611  0.7731  0.4175  0.2546
 6783SOL    HW125034   4.598   5.252   9.671 -0.6169 -0.7813  0.6944
 6783SOL    HW225035   4.645   5.236   9.528 -0.7873  1.0366  0.4092
 6784SOL     OW25036  11.299   4.613   9.813 -0.2643 -0.0039 -0.0338
 6784SOL    HW125037  11.209   4.582   9.801  0.1285 -2.7320  2.7859
 6784SOL    HW225038  11.292   4.683   9.878 -0.3389 -0.1636  0.1297
 6785SOL     OW25039   5.841   3.583   6.349  0.2536  0.3809  0.2767
 6785SOL    HW125040   5.890   3.543   6.277  1.7010 -1.5536  2.1982
 6785SOL    HW225041   5.751   3.588   6.318  0.5903 -1.6251 -1.1840
 6786SOL     OW25042   6.755   3.780  11.934  0.5055 -0.1707 -0.6951
 6786SOL    HW125043   6.738   3.795  12.027 -1.1582 -0.9558 -0.8405
 6786SOL    HW225044   6.821   3.845  11.911 -0.5381  1.4205  0.5750
 6787SOL     OW25045   0.875   3.491   9.051 -0.0476 -0.4110  0.0254
 6787SOL    HW125046   0.860   3.411   9.100 -0.6003 -0.6002 -0.4383
 6787SOL    HW225047   0.926   3.463   8.974 -0.1960 -0.3150 -0.1092
 6788SOL     OW25048   2.471  10.404   8.685  0.2117 -0.8085  0.2224
 6788SOL    HW125049   2.453  10.313   8.658 -0.2777 -0.5056 -0.5299
 6788SOL    HW225050   2.533  10.396   8.757 -0.0346 -1.7553  0.3472
 6789SOL     OW25051   9.274   3.511   6.573 -0.1009  0.5038  0.0717
 6789SOL    HW125052   9.248   3.419   6.584 -0.3394  0.3770 -1.3225
 6789SOL    HW225053   9.357   3.519   6.619  0.0711 -0.5067 -0.0485
 6790SOL     OW25054   2.104   4.291   1.548  0.3987 -0.5198  0.1080
 6790SOL    HW125055   2.104   4.309   1.454 -0.4463 -1.4396 -0.0837
 6790SOL    HW225056   2.105   4.196   1.555  4.1937 -0.5962  1.0819
 6791SOL     OW25057   6.208   8.610   5.214  0.3668 -0.2807 -0.2854
 6791SOL    HW125058   6.237   8.532   5.167  0.1127 -0.4336 -0.1918
 6791SOL    HW225059   6.120   8.626   5.183  0.5149  0.1295 -0.4991
 6792SOL     OW25060   0.532   8.396   9.726  0.0528 -0.0604 -0.4311
 6792SOL    HW125061   0.557   8.421   9.815 -0.4544  1.1515 -0.6080
 6792SOL    HW225062   0.443   8.363   9.735  0.3549 -0.8705 -0.3516
 6793SOL     OW25063  10.217   1.510   0.883 -0.9102 -0.1277  0.3953
 6793SOL    HW125064  10.221   1.580   0.819  0.3159  0.3362  0.9379
 6793SOL    HW225065  10.257   1.435   0.839  2.7474  0.9729  1.4711
 6794SOL     OW25066  11.093  11.592   3.822  0.0216 -0.4989  0.2579
 6794SOL    HW125067  11.004  11.595   3.789 -0.0754 -1.0924  0.4567
 6794SOL    HW225068  11.110  11.499   3.837  1.3899 -0.6334 -1.7085
 6795SOL     OW25069   3.299   9.539   4.792  0.0061  0.6725  0.0835
 6795SOL    HW125070   3.328   9.622   4.829  0.4857  0.2559  0.6734
 6795SOL    HW225071   3.374   9.480   4.804 -0.1245  0.3052 -0.8239
 6796SOL     OW25072   5.154   4.398   1.425 -0.3507 -0.0929  0.6503
 6796SOL    HW125073   5.190   4.457   1.360  0.3323  0.1407  1.2360
 6796SOL    HW225074   5.228   4.374   1.480 -0.7177 -1.0891  0.7351
 6797SOL     OW25075   0.579   8.014   8.236  0.3870  0.4693 -0.6266
 6797SOL    HW125076   0.529   7.967   8.170  1.0170  0.3678 -1.0408
 6797SOL    HW225077   0.519   8.081   8.269 -0.5429 -0.6519  0.0170
 6798SOL     OW25078   1.648   7.853   1.113  0.1223  0.5965  0.4763
 6798SOL    HW125079   1.655   7.759   1.094 -0.4530  0.5412  0.5252
 6798SOL    HW225080   1.555   7.871   1.109  0.1487  0.9694  1.4522
 6799SOL     OW25081   3.482   5.579  11.909 -0.1491 -0.6615 -0.1727
 6799SOL    HW125082   3.425   5.539  11.974 -0.5705  1.2844  0.7311
 6799SOL    HW225083   3.490   5.513  11.840 -1.3519 -1.9871  0.8950
 6800SOL     OW25084  10.038   3.119   6.262  0.1786  0.0211  0.1759
 6800SOL    HW125085  10.015   3.035   6.300 -0.0115 -0.3165 -0.6603
 6800SOL    HW225086  10.124   3.140   6.298  0.6748 -1.0143 -0.3782
 6801SOL     OW25087   4.050   2.951   1.678  1.0510  0.1638 -0.1746
 6801SOL    HW125088   4.135   2.923   1.643  0.1567 -0.7812 -1.6724
 6801SOL    HW225089   4.061   2.948   1.773  2.5542 -0.3842 -0.3413
 6802SOL     OW25090   3.902  10.077   0.233  0.0062  0.6105 -0.6537
 6802SOL    HW125091   3.839  10.010   0.260  0.5286  0.6578  0.7580
 6802SOL    HW225092   3.849  10.150   0.203 -0.6008  0.3671 -0.1828
 6803SOL     OW25093   4.183   2.953   9.527  0.1530 -0.2682 -0.5499
 6803SOL    HW125094   4.132   2.945   9.608  0.4423  1.2815 -0.1995
 6803SOL    HW225095   4.131   2.904   9.463  0.3007 -2.2070  0.6935
 6804SOL     OW25096   1.108   4.413   5.581  0.2113  0.2453 -0.0762
 6804SOL    HW125097   1.094   4.506   5.566  0.3715  0.1854 -0.6357
 6804SOL    HW225098   1.153   4.408   5.665  0.1989  0.6726 -0.0438
 6805SOL     OW25099   9.672   8.275   9.033  0.2774  0.0114  0.0795
 6805SOL    HW125100   9.673   8.198   9.089  1.5066  1.2547  1.8971
 6805SOL    HW225101   9.753   8.269   8.982  2.2576  1.6867  2.7313
 6806SOL     OW25102   3.457   0.465   0.204  0.3219 -0.4638 -0.2153
 6806SOL    HW125103   3.499   0.540   0.247 -1.2068 -0.0862  0.6875
 6806SOL    HW225104   3.528   0.402   0.192  1.4764  0.7892 -0.2375
 6807SOL     OW25105   7.257   5.358  10.894 -0.3225  0.0131 -0.0685
 6807SOL    HW125106   7.168   5.365  10.859 -0.8636 -1.1413  0.9832
 6807SOL    HW225107   7.255   5.408  10.976  0.0806  0.2386 -0.1960
 6808SOL     OW25108  10.479   6.962   6.173  0.2419 -0.2785 -0.0176
 6808SOL    HW125109  10.412   6.986   6.109  0.6229 -1.2017 -0.7909
 6808SOL    HW225110  10.546   7.030   6.165  1.1566 -1.2855 -1.9542
 6809SOL     OW25111  11.761   1.199   7.904 -0.2877 -0.5476 -0.2137
 6809SOL    HW125112  11.686   1.258   7.901  0.7571  0.7896 -2.5418
 6809SOL    HW225113  11.745   1.136   7.833 -0.2542 -1.6861  0.7495
 6810SOL     OW25114   0.094   5.327   9.370  0.0776  0.0337 -0.0052
 6810SOL    HW125115   0.101   5.333   9.465  1.9877 -1.1427 -0.0242
 6810SOL    HW225116   0.137   5.406   9.338 -0.8994  0.6188  0.0883
 6811SOL     OW25117   9.653   5.313   1.940  0.3103  0.3370  0.4884
 6811SOL    HW125118   9.686   5.284   2.025 -0.7653 -0.1227  0.7654
 6811SOL    HW225119   9.626   5.403   1.954 -0.0876  0.1876  0.7095
 6812SOL     OW25120   4.693   1.826  10.892  0.1190  0.1013 -0.5578
 6812SOL    HW125121   4.649   1.911  10.886 -0.2724 -0.1623 -1.7165
 6812SOL    HW225122   4.622   1.762  10.899  0.3236 -0.2639 -1.5911
 6813SOL     OW25123  11.432   8.889   7.366  0.1102  0.0589 -0.1504
 6813SOL    HW125124  11.442   8.936   7.449 -1.3698  0.1652  0.0004
 6813SOL    HW225125  11.350   8.841   7.376  0.5761 -0.9719 -1.0715
 6814SOL     OW25126   7.179   1.561  11.454 -0.3786  0.1986  0.6636
 6814SOL    HW125127   7.124   1.525  11.384  0.0339 -0.7621  0.8057
 6814SOL    HW225128   7.125   1.627  11.496 -0.1695  1.7611 -1.3993
 6815SOL     OW25129  11.820   0.518   6.413  0.3379 -0.6876 -0.3464
 6815SOL    HW125130  11.871   0.515   6.332  0.2429  0.1997 -0.4482
 6815SOL    HW225131  11.881   0.554   6.478  0.7617 -2.4031  0.2634
 6816SOL     OW25132   4.049   5.754   4.587  0.6597  0.5994  0.5410
 6816SOL    HW125133   4.053   5.760   4.492  0.3731  0.4279  0.5181
 6816SOL    HW225134   3.974   5.808   4.612  1.1369  1.1859  0.7226
 6817SOL     OW25135  11.911   3.233  10.240 -0.4289 -0.1969  0.1187
 6817SOL    HW125136  11.935   3.148  10.275  3.0911  0.2013 -0.9934
 6817SOL    HW225137  11.989   3.287  10.251 -1.5891  2.0548 -1.7606
 6818SOL     OW25138   6.380  10.449   0.476  0.1568  0.2521 -0.1465
 6818SOL    HW125139   6.285  10.453   0.460  0.0834  2.5244  0.4172
 6818SOL    HW225140   6.419  10.453   0.389 -0.2910  2.4907 -0.2995
 6819SOL     OW25141   6.184   2.734  11.830 -0.2780 -0.1481  0.1485
 6819SOL    HW125142   6.164   2.641  11.818 -0.9151  0.1299 -1.1406
 6819SOL    HW225143   6.239   2.737  11.909 -0.2825 -1.6015  0.2340
 6820SOL     OW25144   3.222   9.448  11.138 -0.1139 -0.7196 -0.0183
 6820SOL    HW125145   3.276   9.399  11.201  0.2777  1.3632  1.3656
 6820SOL    HW225146   3.142   9.468  11.187  0.0167  0.5690 -0.3167
 6821SOL     OW25147  11.499   3.872  10.846 -0.4394  0.3179  0.0899
 6821SOL    HW125148  11.460   3.785  10.840  0.7181 -0.3873  1.9636
 6821SOL    HW225149  11.427   3.932  10.823 -1.0220 -1.1119 -2.0574
 6822SOL     OW25150   6.416   9.726   9.387 -0.5459  0.4416  0.0303
 6822SOL    HW125151   6.420   9.640   9.345  2.1657 -0.2980  1.5435
 6822SOL    HW225152   6.452   9.786   9.322 -1.0489  0.1760 -0.4962
 6823SOL     OW25153   9.492  11.707   3.972 -0.4184  0.0869  0.4786
 6823SOL    HW125154   9.572  11.698   4.023  0.2428  0.2316 -0.5047
 6823SOL    HW225155   9.496  11.796   3.937 -0.1004 -0.4818 -1.0220
 6824SOL     OW25156  10.851  10.617   3.855  1.0427 -0.2398  0.1998
 6824SOL    HW125157  10.820  10.528   3.870 -1.5808  0.5129 -0.0895
 6824SOL    HW225158  10.830  10.634   3.763  1.3501  0.7093  0.2944
 6825SOL     OW25159   2.459   8.090   5.757  0.2120 -0.2169 -0.5227
 6825SOL    HW125160   2.370   8.110   5.729  1.1798  2.7947 -1.8337
 6825SOL    HW225161   2.470   8.139   5.839  0.5102 -1.0121 -0.0776
 6826SOL     OW25162   6.738   8.456   6.533  0.2410 -0.2952 -0.0245
 6826SOL    HW125163   6.773   8.500   6.456  0.3091  0.8271  0.6364
 6826SOL    HW225164   6.694   8.524   6.583  2.2890 -0.4403  2.1646
 6827SOL     OW25165  10.244  10.765   7.928 -0.5364  0.1511 -0.2243
 6827SOL    HW125166  10.193  10.818   7.866 -1.3915  0.9293  1.0921
 6827SOL    HW225167  10.206  10.677   7.921 -0.4373  0.1622 -0.9949
 6828SOL     OW25168  10.869   3.629   5.704  0.1865 -0.5725  0.6012
 6828SOL    HW125169  10.924   3.567   5.753  0.7116 -1.0202 -0.5221
 6828SOL    HW225170  10.786   3.583   5.691  0.4787 -0.9411  0.0095
 6829SOL     OW25171   4.116   1.557   9.937  0.2429 -0.4299  0.2235
 6829SOL    HW125172   4.103   1.485   9.999  0.5505 -0.9418 -0.2912
 6829SOL    HW225173   4.073   1.632   9.977  0.1082 -0.8505  0.8745
 6830SOL     OW25174   4.445   1.142   7.304  0.1110 -0.4236  0.6303
 6830SOL    HW125175   4.463   1.049   7.314  2.2010 -0.3010 -1.3110
 6830SOL    HW225176   4.401   1.149   7.219  0.9020  0.4568  0.2769
 6831SOL     OW25177   8.573   6.396   3.672  0.3305 -0.0296 -0.5179
 6831SOL    HW125178   8.565   6.488   3.696  1.4906 -0.1224  0.3654
 6831SOL    HW225179   8.518   6.350   3.736 -0.7617  0.0830 -1.3612
 6832SOL     OW25180   0.721   2.984   9.054 -0.1084  0.0685  0.2711
 6832SOL    HW125181   0.765   2.991   8.969 -0.9941  0.4688 -0.1658
 6832SOL    HW225182   0.753   2.902   9.091 -0.7086 -0.7910 -1.0396
 6833SOL     OW25183  10.421   2.924   2.935 -0.1492 -0.3573  0.1933
 6833SOL    HW125184  10.465   2.999   2.896 -0.4705 -0.1835  0.1633
 6833SOL    HW225185  10.340   2.960   2.971 -0.9440 -0.9290 -0.9981
 6834SOL     OW25186  11.932  11.808   5.221 -0.2281  0.3692  0.2408
 6834SOL    HW125187  12.002  11.749   5.195 -0.9623 -1.5378  2.2954
 6834SOL    HW225188  11.977  11.884   5.258  0.7178  0.0588 -0.2438
 6835SOL     OW25189   6.921   8.415   4.180 -0.2632 -0.3867 -0.5720
 6835SOL    HW125190   6.880   8.492   4.140 -1.2047 -1.3680 -1.6076
 6835SOL    HW225191   6.849   8.352   4.188  0.4907 -1.1651  0.2089
 6836SOL     OW25192   1.725  11.099   5.877 -0.7708 -0.0685  0.1205
 6836SOL    HW125193   1.712  11.194   5.871 -2.0530 -0.1383  1.5272
 6836SOL    HW225194   1.638  11.063   5.894 -0.1281 -1.3966  0.7385
 6837SOL     OW25195   0.873   5.274   0.085  0.1378 -0.2337 -0.4869
 6837SOL    HW125196   0.913   5.321   0.158 -2.9589  1.3828  0.3452
 6837SOL    HW225197   0.861   5.340   0.017  0.1603 -1.0012 -1.2507
 6838SOL     OW25198   8.843   2.022   0.013  0.3101 -0.1577  0.2654
 6838SOL    HW125199   8.779   1.951   0.020  1.7414 -1.3517  1.8211
 6838SOL    HW225200   8.814   2.072  -0.064 -1.7799 -1.3376  0.2037
 6839SOL     OW25201   4.457   9.496  11.918  0.2637 -0.3384 -0.3067
 6839SOL    HW125202   4.552   9.499  11.931  0.3397 -3.9023  1.0803
 6839SOL    HW225203   4.446   9.466  11.828  0.6470 -2.7945  0.3928
 6840SOL     OW25204   3.359   6.752   5.352  0.3286 -0.4594 -0.8571
 6840SOL    HW125205   3.287   6.810   5.378  1.9479  1.5564 -0.5949
 6840SOL    HW225206   3.358   6.755   5.256  0.7594  0.5044 -0.8399
 6841SOL     OW25207   0.645   4.255   2.072 -0.1681 -0.2626 -0.1928
 6841SOL    HW125208   0.615   4.259   1.982 -0.8187 -2.8196 -0.1615
 6841SOL    HW225209   0.699   4.176   2.076 -0.4137 -0.3883  1.7204
 6842SOL     OW25210   4.104   5.896  11.831  0.0799 -0.0189  1.1045
 6842SOL    HW125211   4.033   5.837  11.856  1.7937 -1.6270  2.4395
 6842SOL    HW225212   4.094   5.972  11.889 -0.1610 -0.5413  1.7604
 6843SOL     OW25213   2.595   4.469   7.820  0.0583  0.0475  0.1735
 6843SOL    HW125214   2.600   4.449   7.913 -3.3506  0.9907  0.6762
 6843SOL    HW225215   2.627   4.559   7.813 -2.4536  1.0648  0.9864
 6844SOL     OW25216  10.593   9.138   6.066  0.1830 -0.3417 -0.4702
 6844SOL    HW125217  10.627   9.170   6.149  1.2794  0.0799 -1.0518
 6844SOL    HW225218  10.617   9.205   6.002  0.8853 -1.4295 -1.4108
 6845SOL     OW25219   7.911   3.628  11.132 -0.0342 -0.0614  0.5608
 6845SOL    HW125220   7.974   3.557  11.148 -0.3248 -0.3720  0.3528
 6845SOL    HW225221   7.857   3.630  11.210 -0.2392 -0.3001  0.4291
 6846SOL     OW25222   0.126   9.240   0.250 -0.2733 -0.2217  0.4595
 6846SOL    HW125223   0.051   9.186   0.229 -0.2172 -1.2023  2.5220
 6846SOL    HW225224   0.091   9.310   0.306  0.2857 -0.6805  1.4269
 6847SOL     OW25225   8.050   9.786   4.111  0.0793  0.7580  0.2486
 6847SOL    HW125226   8.074   9.752   4.197  1.0082  0.2527 -0.1787
 6847SOL    HW225227   8.133   9.787   4.063 -0.1509  2.4530 -0.1719
 6848SOL     OW25228   4.904   0.088   8.269  0.4273  0.3145  0.1654
 6848SOL    HW125229   4.933   0.153   8.332  0.5434  0.9085 -0.4953
 6848SOL    HW225230   4.851   0.137   8.205 -0.3770 -0.4120  0.2458
 6849SOL     OW25231   4.668  10.886   3.568 -0.3508  0.6966 -0.5339
 6849SOL    HW125232   4.677  10.802   3.612  2.1491 -0.6525 -3.2881
 6849SOL    HW225233   4.754  10.928   3.577 -0.8091  1.8601 -1.2777
 6850SOL     OW25234   5.600   6.051   1.512  0.1364  0.5590  0.6731
 6850SOL    HW125235   5.672   6.101   1.549  0.2802  0.7799  0.0976
 6850SOL    HW225236   5.570   5.996   1.585  1.3867 -0.1142  0.7128
 6851SOL     OW25237   8.490   0.715  11.112  0.1752 -0.0440  0.1150
 6851SOL    HW125238   8.549   0.699  11.186 -0.2735  0.9652  0.6992
 6851SOL    HW225239   8.495   0.809  11.097 -2.6933  0.4218  1.4059
 6852SOL     OW25240   6.782  10.188  11.617  0.2778 -0.5526  0.4087
 6852SOL    HW125241   6.734  10.209  11.537  0.5239  0.4159  0.5058
 6852SOL    HW225242   6.828  10.269  11.639 -0.5688 -0.4936  2.0775
 6853SOL     OW25243  10.732   7.814   6.290 -0.4039  0.2886 -0.1757
 6853SOL    HW125244  10.695   7.902   6.291 -0.7220  0.1519  0.2775
 6853SOL    HW225245  10.815   7.824   6.243 -1.0074  0.5886 -1.2176
 6854SOL     OW25246  11.507   9.182   7.392 -0.6475 -0.3857 -0.3361
 6854SOL    HW125247  11.603   9.186   7.394 -0.6290 -0.7216 -0.5229
 6854SOL    HW225248  11.484   9.118   7.460 -0.8323  1.0035  0.9669
 6855SOL     OW25249  11.875   6.457   9.953 -0.2164  0.5280  0.5223
 6855SOL    HW125250  11.818   6.394   9.908  0.7910  0.0020 -0.0613
 6855SOL    HW225251  11.848   6.542   9.920  0.1015  0.1954 -0.6626
 6856SOL     OW25252   9.583   6.310   9.209  0.2778 -0.3214 -0.5628
 6856SOL    HW125253   9.615   6.224   9.234  0.4200  0.1836  1.0837
 6856SOL    HW225254   9.488   6.306   9.222  0.2818 -0.2446 -0.5003
 6857SOL     OW25255   7.855   4.145   0.846 -0.0689  0.6155 -0.2799
 6857SOL    HW125256   7.846   4.168   0.753 -0.6181 -0.6538 -0.5609
 6857SOL    HW225257   7.948   4.124   0.856  0.1344  1.4523 -0.3676
 6858SOL     OW25258   1.304   2.728   2.167  0.1176  0.4549  0.2568
 6858SOL    HW125259   1.374   2.670   2.136 -0.2046  0.5231 -0.6362
 6858SOL    HW225260   1.238   2.669   2.202  0.2569  0.3410  0.3288
 6859SOL     OW25261   6.791  11.715  10.161 -0.5129  0.7966 -0.4484
 6859SOL    HW125262   6.803  11.810  10.155 -1.0796  0.9246  0.3030
 6859SOL    HW225263   6.803  11.684  10.072  2.7243  1.1976 -0.2902
 6860SOL     OW25264   3.750   2.904  10.823  0.2637 -0.4307 -0.3349
 6860SOL    HW125265   3.842   2.888  10.799  0.8074  1.3171  0.4011
 6860SOL    HW225266   3.714   2.951  10.747  0.2213 -0.3585 -0.2697
 6861SOL     OW25267   5.194  10.982   8.835  0.0234 -0.8367 -0.5186
 6861SOL    HW125268   5.226  11.050   8.777  1.3249 -0.4603  0.5975
 6861SOL    HW225269   5.157  11.029   8.910 -0.2325 -1.3382 -0.3176
 6862SOL     OW25270   7.297   1.463   0.536  0.0533 -0.0228 -0.6683
 6862SOL    HW125271   7.247   1.486   0.615  0.4100  1.3164 -0.8186
 6862SOL    HW225272   7.236   1.479   0.464 -0.1538 -0.9077 -0.7029
 6863SOL     OW25273   7.095  11.910   0.476  0.8606 -0.0341 -0.6383
 6863SOL    HW125274   7.029  11.847   0.504  0.3965  0.5568 -0.3689
 6863SOL    HW225275   7.174  11.885   0.523  0.2691  0.5221  0.7076
 6864SOL     OW25276  11.827   0.066   0.667  0.2175 -0.7363  0.0631
 6864SOL    HW125277  11.754   0.112   0.708 -0.2135 -1.2636 -0.0988
 6864SOL    HW225278  11.797   0.044   0.579  1.3791  0.9648 -0.8071
 6865SOL     OW25279   2.707   2.085   2.489  0.4514 -0.1809  0.3058
 6865SOL    HW125280   2.677   2.176   2.479 -0.4666 -0.6235 -1.3464
 6865SOL    HW225281   2.796   2.085   2.455  0.3264  0.0514 -0.0343
 6866SOL     OW25282   7.059   0.465   6.520  0.4054 -0.1369 -0.1192
 6866SOL    HW125283   7.040   0.541   6.574  0.5187 -1.5479  2.0060
 6866SOL    HW225284   7.074   0.394   6.582 -0.8028 -2.1884 -2.0291
 6867SOL     OW25285   3.880   8.729   7.734  0.1520 -0.4719  0.6456
 6867SOL    HW125286   3.952   8.785   7.703 -0.6619  0.6095  0.6690
 6867SOL    HW225287   3.827   8.786   7.789 -1.3190 -0.9607 -0.2107
 6868SOL     OW25288   8.799  11.573   4.095 -0.4376  0.6228  0.8815
 6868SOL    HW125289   8.891  11.573   4.069 -0.6193  1.9165  0.1741
 6868SOL    HW225290   8.789  11.494   4.149  1.4382  1.2354  2.2078
 6869SOL     OW25291   3.980  11.165   4.787 -0.2624  0.6543 -0.2137
 6869SOL    HW125292   4.041  11.215   4.734 -2.0443  2.7839 -0.4133
 6869SOL    HW225293   3.907  11.145   4.728 -1.7370  2.0509  1.0291
 6870SOL     OW25294   9.113   3.673   4.254 -0.0563  0.6520 -0.0390
 6870SOL    HW125295   9.055   3.636   4.320  0.7034  2.6606  1.8823
 6870SOL    HW225296   9.174   3.603   4.232 -0.8550 -0.3120  0.7416
 6871SOL     OW25297  11.297  10.635   0.108  0.9788 -0.1107  0.2652
 6871SOL    HW125298  11.240  10.590   0.045  0.1524  1.8398 -0.4736
 6871SOL    HW225299  11.379  10.647   0.062  0.2558  1.6438 -0.6576
 6872SOL     OW25300   9.048   0.779   7.476  0.2659 -0.3994 -0.3067
 6872SOL    HW125301   8.973   0.834   7.496 -1.8778 -3.5269  1.0432
 6872SOL    HW225302   9.114   0.803   7.541 -0.7752  0.2527  0.5400
 6873SOL     OW25303   1.963   5.672   5.490 -0.6383  0.3614 -0.1735
 6873SOL    HW125304   1.991   5.679   5.581 -0.8248  0.5450 -0.1305
 6873SOL    HW225305   1.935   5.761   5.466  0.8122  0.6557 -0.8637
 6874SOL     OW25306  10.097   9.137   6.934 -0.0389 -0.1756  0.4856
 6874SOL    HW125307  10.022   9.142   6.874 -0.8593 -0.8597  1.4300
 6874SOL    HW225308  10.063   9.165   7.018  0.7706 -0.5142  0.9368
 6875SOL     OW25309   8.698   7.498   4.956 -0.1761 -0.4276  0.5786
 6875SOL    HW125310   8.610   7.533   4.973  0.1430 -0.1631  1.7691
 6875SOL    HW225311   8.739   7.493   5.043  1.1913  0.0002 -0.0150
 6876SOL     OW25312   6.626   4.642  11.572 -0.1550  0.4678  0.5492
 6876SOL    HW125313   6.584   4.637  11.486  1.3019 -1.2970 -0.1196
 6876SOL    HW225314   6.577   4.579  11.625 -0.0768  0.4241  0.5685
 6877SOL     OW25315   4.203   5.770   1.594 -0.0931 -0.4947  0.1320
 6877SOL    HW125316   4.283   5.749   1.643  1.2563 -0.7554 -2.0502
 6877SOL    HW225317   4.228   5.846   1.541 -0.6531 -1.7109 -1.9710
 6878SOL     OW25318   9.024   1.989   2.944 -0.4903  0.3624  0.8514
 6878SOL    HW125319   9.099   2.048   2.950 -0.2765  0.3098 -1.0103
 6878SOL    HW225320   8.956   2.033   2.997  1.1705 -0.2519  3.6909
 6879SOL     OW25321  11.677  10.097   1.290  0.4113 -0.6285  0.6068
 6879SOL    HW125322  11.719  10.090   1.205 -0.0078 -0.0777  0.3509
 6879SOL    HW225323  11.631  10.014   1.301 -0.7098 -0.1525 -0.3396
 6880SOL     OW25324  11.454   0.715   4.420  0.3724  0.1935 -0.0926
 6880SOL    HW125325  11.493   0.630   4.401  0.0918 -0.0359  0.3574
 6880SOL    HW225326  11.499   0.775   4.360 -0.7384 -0.5607 -1.7694
 6881SOL     OW25327   9.320  11.486   3.444  0.1189 -0.0153  0.0036
 6881SOL    HW125328   9.233  11.470   3.481 -0.1077 -0.5188 -0.7188
 6881SOL    HW225329   9.375  11.415   3.480 -0.4328 -1.3742 -1.6748
 6882SOL     OW25330   6.203   2.627   0.776 -0.0429  0.0710 -0.0039
 6882SOL    HW125331   6.164   2.683   0.843 -1.2560  1.5592 -1.8565
 6882SOL    HW225332   6.191   2.538   0.810  0.3086  0.7884  2.1756
 6883SOL     OW25333  10.152   1.086   2.466  0.4158 -0.7461 -0.1802
 6883SOL    HW125334  10.182   0.995   2.469  0.6010 -0.6693  2.8443
 6883SOL    HW225335  10.222   1.136   2.509 -0.6166  0.5095  0.1044
 6884SOL     OW25336   7.116   3.776   8.187  0.2027  0.1782 -1.1799
 6884SOL    HW125337   7.173   3.828   8.243  2.3173 -0.0408 -2.9789
 6884SOL    HW225338   7.129   3.812   8.099  1.3729 -2.9236 -2.4420
 6885SOL     OW25339  11.069  11.025   3.216 -0.0799 -0.5726  0.0581
 6885SOL    HW125340  11.142  11.003   3.274  0.3819  0.2897 -0.1708
 6885SOL    HW225341  11.084  10.972   3.138 -0.2139 -1.0848  0.3796
 6886SOL     OW25342  11.643  10.889   2.756  0.0024 -0.6690 -0.1975
 6886SOL    HW125343  11.589  10.968   2.760 -1.1391 -1.4505  0.4442
 6886SOL    HW225344  11.727  10.915   2.795 -1.3356 -0.4932  2.8204
 6887SOL     OW25345   5.849   6.630  11.958 -0.1153  0.0163 -0.1808
 6887SOL    HW125346   5.822   6.684  12.033  0.3821  0.7743 -0.5281
 6887SOL    HW225347   5.854   6.541  11.993 -3.1953 -0.2527 -0.1184
 6888SOL     OW25348   2.945   3.669   5.003 -0.1502  0.7883 -0.1724
 6888SOL    HW125349   3.025   3.629   5.038 -0.1023  2.2549  1.4994
 6888SOL    HW225350   2.879   3.600   5.011  0.6440 -0.0285 -0.4231
 6889SOL     OW25351   7.689   5.750   8.381 -0.2204 -0.5173 -0.1503
 6889SOL    HW125352   7.647   5.819   8.330  0.3659  0.0941  0.1740
 6889SOL    HW225353   7.617   5.705   8.425 -0.8723 -1.8693 -2.4418
 6890SOL     OW25354   9.826  11.797   1.486  0.4474  0.4244  0.1350
 6890SOL    HW125355   9.771  11.867   1.451 -0.4460 -0.5382 -0.4659
 6890SOL    HW225356   9.836  11.819   1.579 -1.6129  0.2556  0.4497
 6891SOL     OW25357   6.345   2.100   4.270  0.3619 -0.0682  0.1099
 6891SOL    HW125358   6.411   2.044   4.230  2.4855  1.4433  1.2912
 6891SOL    HW225359   6.390   2.182   4.287 -2.1630  1.4636 -0.0211
 6892SOL     OW25360   3.200   1.106   5.881 -0.0915  0.4225 -0.3702
 6892SOL    HW125361   3.292   1.118   5.855  0.5760  0.9040  1.9785
 6892SOL    HW225362   3.161   1.193   5.874  0.8896  1.2556  2.8046
 6893SOL     OW25363   6.344   2.850   8.396 -0.0362  0.0074 -0.5985
 6893SOL    HW125364   6.339   2.755   8.402 -0.2194 -0.0370 -1.4670
 6893SOL    HW225365   6.372   2.878   8.484  0.1753 -0.8528 -0.3887
 6894SOL     OW25366   5.089   4.538   8.101 -0.3579 -0.0179  0.4108
 6894SOL    HW125367   5.069   4.598   8.028 -0.9176 -0.8801 -0.1509
 6894SOL    HW225368   5.058   4.584   8.179  0.3209  0.9540  0.1262
 6895SOL     OW25369   2.478   8.109   7.017  0.1844  0.0486  0.4570
 6895SOL    HW125370   2.388   8.132   7.036  0.6092 -0.5890  3.9974
 6895SOL    HW225371   2.481   8.013   7.025  1.3357  0.1452  1.7348
 6896SOL     OW25372   7.355  10.950   6.766 -0.3206  0.1735  0.3229
 6896SOL    HW125373   7.351  11.035   6.723  2.0754  0.3611  0.3237
 6896SOL    HW225374   7.383  10.890   6.698  0.9253 -0.0174  0.9736
 6897SOL     OW25375   6.365   0.314  10.102 -0.4137 -0.6316  0.0117
 6897SOL    HW125376   6.284   0.362  10.085 -1.2481 -2.0816 -0.3627
 6897SOL    HW225377   6.387   0.274  10.018  0.9701  0.1086 -0.0095
 6898SOL     OW25378   6.927   1.234   1.033 -0.4140 -0.0891  0.5542
 6898SOL    HW125379   6.971   1.319   1.037  0.4537 -0.5074  0.2439
 6898SOL    HW225380   6.909   1.212   1.124 -3.1370  1.6451  0.5570
 6899SOL     OW25381  10.598  11.819  11.116  0.0025  0.2018 -0.0324
 6899SOL    HW125382  10.513  11.785  11.142 -1.6963  1.4019 -3.4286
 6899SOL    HW225383  10.598  11.910  11.146 -0.0587  0.2943 -0.3102
 6900SOL     OW25384   3.527   0.030   1.810  0.0878 -0.2620 -0.6505
 6900SOL    HW125385   3.465   0.096   1.778  0.6960  0.6851  0.0474
 6900SOL    HW225386   3.590   0.020   1.739 -0.6372 -0.9547 -1.2137
 6901SOL     OW25387   2.075   4.379   2.709 -0.4497 -0.2648  0.5687
 6901SOL    HW125388   2.169   4.382   2.688 -0.7807  0.0117 -0.9984
 6901SOL    HW225389   2.069   4.321   2.785  0.9609 -0.4998  0.5255
 6902SOL     OW25390   4.516   2.874   7.867 -0.7183 -0.6412  0.0689
 6902SOL    HW125391   4.510   2.792   7.818 -0.7196  0.2279 -1.4397
 6902SOL    HW225392   4.446   2.868   7.932 -0.2114 -2.1543  0.5295
 6903SOL     OW25393   9.462   5.098   4.243 -0.0092  0.0929  0.1892
 6903SOL    HW125394   9.518   5.103   4.166  0.1002 -0.9288  0.1917
 6903SOL    HW225395   9.408   5.021   4.229 -1.2751  0.9326  0.2999
 6904SOL     OW25396  11.977   7.847   4.736 -0.3063 -0.3278 -0.3678
 6904SOL    HW125397  12.053   7.856   4.680 -0.0253 -1.9973 -0.3129
 6904SOL    HW225398  11.917   7.792   4.686 -0.3312 -1.2756  0.6646
 6905SOL     OW25399   5.675   7.954   3.674  0.2744  0.4001 -0.2035
 6905SOL    HW125400   5.664   8.043   3.640 -0.6646  0.3592 -0.0205
 6905SOL    HW225401   5.591   7.933   3.714  0.6507 -0.3910  0.1885
 6906SOL     OW25402   5.034   7.192  10.987 -0.4805 -0.3314  0.7573
 6906SOL    HW125403   4.997   7.133  10.921 -1.0301  0.1045  0.6649
 6906SOL    HW225404   5.039   7.138  11.066 -1.7496 -0.2952  0.8930
 6907SOL     OW25405   4.446   0.848   9.980  0.6928  0.5106  0.2091
 6907SOL    HW125406   4.368   0.887   9.941 -0.1349 -0.5546  0.7430
 6907SOL    HW225407   4.482   0.793   9.911 -0.4349 -0.9071  0.6928
 6908SOL     OW25408  10.065   8.467   7.549 -0.2305 -0.1436  0.0842
 6908SOL    HW125409  10.142   8.427   7.589  1.6957 -0.0059 -3.1460
 6908SOL    HW225410  10.072   8.560   7.569  0.9704 -0.0072 -0.8400
 6909SOL     OW25411   9.562  11.258   1.554  0.0737 -0.6109  0.0347
 6909SOL    HW125412   9.637  11.278   1.498  0.7273 -2.6455  0.1009
 6909SOL    HW225413   9.575  11.313   1.631  1.8149 -1.2857  0.2657
 6910SOL     OW25414   4.351   4.457   1.427 -0.3251  0.1930 -0.1503
 6910SOL    HW125415   4.441   4.442   1.453  0.4508  2.4269 -1.2826
 6910SOL    HW225416   4.299   4.425   1.500  1.4393  0.1288  1.1405
 6911SOL     OW25417   5.237   6.577   6.061  0.0839  0.9431  0.4796
 6911SOL    HW125418   5.302   6.550   5.996  0.3853  0.5616  0.9313
 6911SOL    HW225419   5.258   6.525   6.139  0.7772  2.5818  1.4429
 6912SOL     OW25420   7.856   6.750   2.772  0.0732  0.9294 -0.0131
 6912SOL    HW125421   7.779   6.799   2.799 -0.8947 -1.7957  2.8932
 6912SOL    HW225422   7.919   6.761   2.844  1.1825  0.6460 -0.8962
 6913SOL     OW25423   8.425   6.764   8.476  0.0003 -0.2776 -0.1098
 6913SOL    HW125424   8.518   6.741   8.477  0.4189  1.2615  1.0870
 6913SOL    HW225425   8.388   6.715   8.549  0.1310 -0.0045  0.1442
 6914SOL     OW25426   0.362   4.043   1.635  0.2235 -0.2615  0.1715
 6914SOL    HW125427   0.391   3.961   1.595 -1.0024 -0.1481 -1.0197
 6914SOL    HW225428   0.361   4.106   1.562  0.9872  0.7810  1.0358
 6915SOL     OW25429   9.600  10.295   7.365 -0.0981  0.1962 -0.4112
 6915SOL    HW125430   9.619  10.202   7.361 -1.8745 -0.3580  1.8771
 6915SOL    HW225431   9.545  10.312   7.289 -0.3104 -0.7564 -0.4753
 6916SOL     OW25432   8.453   7.450   5.894  0.7109  0.2197 -0.3090
 6916SOL    HW125433   8.446   7.361   5.927 -0.4024 -0.7422 -2.8977
 6916SOL    HW225434   8.546   7.471   5.901  0.9510 -1.0330  0.5846
 6917SOL     OW25435   1.826  11.394   6.412  0.1012  0.0333  0.0244
 6917SOL    HW125436   1.891  11.325   6.396  1.5297  1.3198  0.1007
 6917SOL    HW225437   1.842  11.423   6.501  0.3110  1.2615 -0.3930
 6918SOL     OW25438   9.988  10.589   5.692  0.4386  0.1528  0.1013
 6918SOL    HW125439   9.917  10.653   5.689 -0.1651 -0.4485  1.2623
 6918SOL    HW225440  10.062  10.636   5.652 -0.3175  1.1313 -0.2174
 6919SOL     OW25441   7.925   9.964   8.386 -0.3391 -0.4207 -0.2561
 6919SOL    HW125442   7.875   9.882   8.383  0.1577 -0.7125 -1.6509
 6919SOL    HW225443   8.008   9.943   8.344  0.0012  0.6697 -0.1650
 6920SOL     OW25444   6.225   5.569   2.200 -0.0883  0.2449  0.1784
 6920SOL    HW125445   6.171   5.507   2.150 -0.1046 -0.4230  0.9990
 6920SOL    HW225446   6.190   5.564   2.289  0.2944  1.0060  0.3760
 6921SOL     OW25447   2.452   8.561   2.684 -0.4159 -0.7634 -0.2528
 6921SOL    HW125448   2.509   8.631   2.716 -1.3979  0.5643 -1.3120
 6921SOL    HW225449   2.509   8.484   2.680  1.1247  0.3373 -0.5824
 6922SOL     OW25450   9.972   5.453   6.836 -0.3193 -0.4816  0.2128
 6922SOL    HW125451  10.068   5.463   6.835 -0.3336 -0.3058  0.4973
 6922SOL    HW225452   9.953   5.400   6.759 -0.0658  0.1910 -0.3287
 6923SOL     OW25453  11.249   3.026  10.144 -0.4010 -0.2884 -0.6676
 6923SOL    HW125454  11.164   3.024  10.188  0.0548  1.4454  0.3893
 6923SOL    HW225455  11.312   3.039  10.215  0.6334 -0.2540 -1.5693
 6924SOL     OW25456  11.738   1.665   0.729 -0.2534  0.4859 -0.4290
 6924SOL    HW125457  11.725   1.605   0.655  0.9644  0.6343 -0.7920
 6924SOL    HW225458  11.792   1.615   0.790  0.4770  1.0683 -0.5770
 6925SOL     OW25459   7.753  10.280   7.390 -0.3362 -0.6656  0.4466
 6925SOL    HW125460   7.662  10.305   7.374 -0.4805  0.3850  2.6244
 6925SOL    HW225461   7.775  10.321   7.474  2.4933  0.0447 -0.5240
 6926SOL     OW25462  10.413   9.298   8.255  0.1669 -0.4574 -0.5204
 6926SOL    HW125463  10.341   9.323   8.313 -0.1754 -0.1339 -1.0712
 6926SOL    HW225464  10.449   9.219   8.295  1.9582  1.4032  1.8598
 6927SOL     OW25465   2.020   1.959   7.708  0.5081 -0.3932  0.2313
 6927SOL    HW125466   2.048   1.872   7.679  0.8569  0.0252 -0.7331
 6927SOL    HW225467   1.935   1.971   7.664  1.3928  0.5581 -1.3017
 6928SOL     OW25468   4.777  10.517  11.086  0.5567 -0.2756  0.2985
 6928SOL    HW125469   4.851  10.558  11.040  0.0321 -0.6797 -0.9520
 6928SOL    HW225470   4.738  10.589  11.136  1.4331  0.0684  0.5107
 6929SOL     OW25471   6.772  10.094  10.778  0.0064 -0.4540 -0.0317
 6929SOL    HW125472   6.731  10.094  10.864  2.6411 -1.6585  1.3496
 6929SOL    HW225473   6.729  10.022  10.731  0.5105 -1.7494  1.3936
 6930SOL     OW25474   2.405   8.204  11.814 -0.1727 -0.3730  0.1963
 6930SOL    HW125475   2.489   8.248  11.803 -1.2667  1.4149 -1.8034
 6930SOL    HW225476   2.422   8.136  11.879  2.9865 -0.6216 -0.7225
 6931SOL     OW25477   7.153   0.272   2.272  0.6707  0.1119 -0.0091
 6931SOL    HW125478   7.131   0.187   2.310 -0.8953  0.8379  0.8043
 6931SOL    HW225479   7.230   0.301   2.321  0.9476 -0.6361  0.0035
 6932SOL     OW25480   5.657   5.869   5.002 -0.3313 -0.3340  0.4063
 6932SOL    HW125481   5.703   5.796   4.960  2.0977  1.3395 -0.0288
 6932SOL    HW225482   5.703   5.882   5.085  0.0827  1.4720 -0.0814
 6933SOL     OW25483  11.892  10.589   0.960 -0.3503 -0.1620  0.0120
 6933SOL    HW125484  11.825  10.540   1.007 -1.3594  0.0476 -1.1651
 6933SOL    HW225485  11.843  10.650   0.906  0.8303  0.6289 -0.1930
 6934SOL     OW25486   8.669  11.759  11.855 -0.1733 -0.2314 -0.5916
 6934SOL    HW125487   8.686  11.665  11.844  0.4460 -0.0692 -1.0820
 6934SOL    HW225488   8.755  11.800  11.847  0.0121  0.1593  2.3452
 6935SOL     OW25489  10.467   6.930   4.114  0.2514  0.3066 -0.1162
 6935SOL    HW125490  10.526   6.855   4.105 -1.4046 -0.9444 -1.3277
 6935SOL    HW225491  10.461   6.966   4.025 -1.0132  0.1875 -0.0987
 6936SOL     OW25492   8.535   5.172  11.586 -0.6216  0.1733 -0.0401
 6936SOL    HW125493   8.527   5.092  11.535 -0.5302  1.1804 -1.6960
 6936SOL    HW225494   8.457   5.223  11.564 -0.0230  1.1097 -0.0761
 6937SOL     OW25495   7.718   4.480   1.313  0.3400  0.5506 -0.1549
 6937SOL    HW125496   7.693   4.388   1.308 -0.1076  0.4403  2.5216
 6937SOL    HW225497   7.738   4.505   1.223  3.0208 -2.8668 -0.7269
 6938SOL     OW25498  10.985   3.730   9.945 -0.3829 -0.7172  0.3471
 6938SOL    HW125499  11.058   3.792   9.941 -1.9112  1.2384  1.0853
 6938SOL    HW225500  10.978   3.708  10.038 -0.2159 -1.5737  0.1622
 6939SOL     OW25501   6.439   5.546   6.092  0.4726  0.1786  0.3136
 6939SOL    HW125502   6.495   5.483   6.138  1.7646  1.6283  0.8265
 6939SOL    HW225503   6.375   5.492   6.047  0.1189 -1.4215  2.5284
 6940SOL     OW25504   9.815   0.821  11.282 -0.2910  0.1919 -0.2391
 6940SOL    HW125505   9.899   0.778  11.267 -0.0177  0.7484 -0.3097
 6940SOL    HW225506   9.837   0.910  11.308 -0.8102 -0.0785  1.2490
 6941SOL     OW25507   8.118   6.196   0.735 -0.0503 -0.0802  0.2251
 6941SOL    HW125508   8.054   6.198   0.806 -0.9340 -1.6995 -0.4580
 6941SOL    HW225509   8.078   6.140   0.669  1.4238  0.1314 -0.8937
 6942SOL     OW25510   3.085   9.472   1.310 -0.7394  0.1671  0.2962
 6942SOL    HW125511   3.158   9.524   1.344 -1.1689  0.3703  0.9208
 6942SOL    HW225512   3.032   9.452   1.387 -1.5414  0.3298 -0.2043
 6943SOL     OW25513   9.417   6.251   4.975 -0.1165 -0.1938 -0.4472
 6943SOL    HW125514   9.392   6.335   4.935  0.2591  0.0993 -0.0802
 6943SOL    HW225515   9.391   6.185   4.911 -1.7994  0.0906 -0.0871
 6944SOL     OW25516   6.056   9.830   2.019  0.3861 -0.0245  0.7558
 6944SOL    HW125517   6.003   9.822   1.939  0.1063 -0.4880  0.9843
 6944SOL    HW225518   6.104   9.748   2.023 -0.4763 -0.4989  1.6853
 6945SOL     OW25519   3.611   3.396   5.341  0.3742  0.2050  0.3747
 6945SOL    HW125520   3.537   3.379   5.282  1.2171 -1.6645 -0.2421
 6945SOL    HW225521   3.630   3.489   5.330 -1.3691  0.5528 -0.0473
 6946SOL     OW25522   8.577   8.272   3.969 -0.5382  0.7188  0.0355
 6946SOL    HW125523   8.496   8.320   3.981 -2.6469 -2.4029 -0.4283
 6946SOL    HW225524   8.570   8.233   3.882  0.5449 -1.1220  0.6956
 6947SOL     OW25525   9.755   3.661   2.823  0.1610  0.0100 -0.5425
 6947SOL    HW125526   9.850   3.657   2.832  0.1728  0.3482 -0.5099
 6947SOL    HW225527   9.727   3.570   2.828  0.4672 -0.0770 -0.3786
 6948SOL     OW25528   2.343   2.067   0.527 -0.0434  0.4541 -0.2197
 6948SOL    HW125529   2.298   2.026   0.453 -2.6907  2.4372  0.1057
 6948SOL    HW225530   2.409   2.123   0.487 -0.3731  0.2962 -1.0121
 6949SOL     OW25531  10.609   5.644   8.331 -0.0510 -0.1905  0.4917
 6949SOL    HW125532  10.572   5.556   8.323 -1.8505  0.6605 -2.3695
 6949SOL    HW225533  10.695   5.638   8.289  0.2028 -0.7359  1.0777
 6950SOL     OW25534   5.099   9.763   7.233  0.3929 -0.2626  0.0503
 6950SOL    HW125535   5.150   9.683   7.219  0.8267 -0.0405  0.3310
 6950SOL    HW225536   5.138   9.827   7.174 -2.0622 -1.1100 -2.6848
 6951SOL     OW25537   7.419  11.129   2.226  0.4949 -0.2715 -0.1519
 6951SOL    HW125538   7.416  11.035   2.241 -0.3198 -0.3315 -0.6462
 6951SOL    HW225539   7.478  11.162   2.293  1.4136 -1.2298 -0.4648
 6952SOL     OW25540   2.941   7.359  10.106 -0.0700 -0.0190  0.2880
 6952SOL    HW125541   2.979   7.274  10.086 -0.2671  0.2429 -1.3202
 6952SOL    HW225542   2.878   7.375  10.036  0.0502  1.4953  0.4909
 6953SOL     OW25543   3.475   5.365   1.236  0.1176 -0.0720  0.4179
 6953SOL    HW125544   3.471   5.320   1.321 -1.1599 -1.1839 -0.1922
 6953SOL    HW225545   3.400   5.331   1.188  0.9612  0.3579 -1.2580
 6954SOL     OW25546   6.331   9.850   1.439  0.5524  0.0794 -0.0449
 6954SOL    HW125547   6.405   9.855   1.499 -0.6532 -0.2981  1.5498
 6954SOL    HW225548   6.297   9.761   1.450  1.1046 -0.4802 -2.3388
 6955SOL     OW25549   1.057   3.573   7.519 -0.7374 -0.7276 -0.4930
 6955SOL    HW125550   1.023   3.660   7.537  0.6015 -0.2836  0.0361
 6955SOL    HW225551   1.132   3.564   7.579 -0.7944 -2.1956 -0.6136
 6956SOL     OW25552   7.783   1.370  11.508 -0.2333  0.1691  0.8535
 6956SOL    HW125553   7.845   1.360  11.581  1.9308 -0.1835 -0.9277
 6956SOL    HW225554   7.697   1.361  11.549  0.9095 -1.6350  3.1160
 6957SOL     OW25555   5.887   9.142   0.044  0.3424 -0.1108 -0.1428
 6957SOL    HW125556   5.937   9.177   0.119  0.8838 -1.0394 -0.0523
 6957SOL    HW225557   5.857   9.056   0.074  0.5206 -0.4679 -0.9717
 6958SOL     OW25558  10.216   2.836   4.584 -0.0384  0.3394 -0.0658
 6958SOL    HW125559  10.232   2.746   4.556  0.1744  0.5242 -0.5449
 6958SOL    HW225560  10.225   2.833   4.679 -0.1071 -0.1590 -0.0678
 6959SOL     OW25561  10.599   8.954   2.843  0.2982 -0.7790  0.1992
 6959SOL    HW125562  10.667   8.943   2.777  1.5053 -0.1250  1.2906
 6959SOL    HW225563  10.645   8.940   2.926 -0.5339  1.2682  1.0504
 6960SOL     OW25564   1.917   8.383  11.954 -0.0470  0.1679  0.1664
 6960SOL    HW125565   1.924   8.443  11.880  1.2772 -0.5668 -0.3315
 6960SOL    HW225566   1.824   8.358  11.956  0.0445 -0.5015 -1.8222
 6961SOL     OW25567   7.114  10.961   8.531  0.3638  0.6602  0.1106
 6961SOL    HW125568   7.170  10.943   8.606 -1.8124 -1.8482  1.2795
 6961SOL    HW225569   7.142  10.899   8.464  1.9483  2.5405 -1.0799
 6962SOL     OW25570  11.408   0.269   9.097 -0.3288 -0.0261  0.3224
 6962SOL    HW125571  11.392   0.241   9.187 -0.7470  1.2513  0.6676
 6962SOL    HW225572  11.322   0.298   9.066  0.0406  0.6458 -0.0798
 6963SOL     OW25573   6.799   0.730  10.604  0.8321 -0.0725 -0.3387
 6963SOL    HW125574   6.770   0.771  10.523  3.0581 -0.0935 -1.2303
 6963SOL    HW225575   6.835   0.646  10.577  0.0969 -0.8273  0.9278
 6964SOL     OW25576   4.642   0.153   6.358  0.0773 -0.2697 -0.5892
 6964SOL    HW125577   4.705   0.190   6.296 -0.9979  0.6693 -1.1688
 6964SOL    HW225578   4.557   0.184   6.326 -0.4962  0.3929  1.4507
 6965SOL     OW25579   5.693   9.382   2.441  0.1527 -0.3783  0.3692
 6965SOL    HW125580   5.727   9.423   2.520 -0.4306 -0.2453  0.5549
 6965SOL    HW225581   5.622   9.439   2.412 -0.0314 -0.7435  0.0821
 6966SOL     OW25582   2.117   3.207   8.695  0.2483 -0.2053  0.2415
 6966SOL    HW125583   2.079   3.294   8.677  0.7141  0.0389  0.4338
 6966SOL    HW225584   2.045   3.159   8.736 -0.5094 -0.4263 -1.2407
 6967SOL     OW25585  10.047   4.778   7.798  0.0025  0.1998  0.2762
 6967SOL    HW125586  10.036   4.797   7.891  0.7585  1.5020  0.1160
 6967SOL    HW225587  10.137   4.748   7.790 -0.1942 -0.3352  0.0212
 6968SOL     OW25588   0.650   4.097   5.347  0.0060  0.6882 -0.3193
 6968SOL    HW125589   0.718   4.072   5.410 -0.6717 -0.6956 -0.1078
 6968SOL    HW225590   0.692   4.162   5.291  1.2618  0.4287  0.2881
 6969SOL     OW25591  10.052   2.224   7.524  0.1756 -0.0085  0.4153
 6969SOL    HW125592   9.971   2.269   7.499 -0.2632 -0.6213  0.7254
 6969SOL    HW225593  10.083   2.273   7.601 -2.0544 -2.1210  2.8615
 6970SOL     OW25594   2.843   2.155  10.357  0.4906  0.8760 -0.2051
 6970SOL    HW125595   2.794   2.231  10.388 -1.1284  0.2442 -1.0938
 6970SOL    HW225596   2.933   2.188  10.346  0.6862  1.6785  2.8897
 6971SOL     OW25597   7.673  11.382   8.834  0.2224  0.0921  0.2150
 6971SOL    HW125598   7.685  11.468   8.794  0.7455  0.2767  0.7735
 6971SOL    HW225599   7.651  11.400   8.925  1.1641 -0.3852  0.5433
 6972SOL     OW25600  11.060   0.013   5.701 -0.6445 -0.1402  0.3275
 6972SOL    HW125601  11.054   0.074   5.628 -2.2151  2.5434  2.4741
 6972SOL    HW225602  11.134   0.044   5.752 -0.3062 -1.2266  0.5294
 6973SOL     OW25603   4.897  11.420   2.015 -0.3031 -0.4632 -0.3965
 6973SOL    HW125604   4.863  11.348   1.962  0.1842 -0.7329 -0.3410
 6973SOL    HW225605   4.927  11.379   2.096 -1.6287  0.0205  0.3867
 6974SOL     OW25606   1.355  10.568   2.457  0.9832  0.0322 -0.1915
 6974SOL    HW125607   1.384  10.519   2.379 -1.5347 -0.7210 -0.7547
 6974SOL    HW225608   1.324  10.652   2.422  0.5537 -0.0060  0.0932
 6975SOL     OW25609   5.006  11.420   5.443 -0.6257 -0.3256  0.0921
 6975SOL    HW125610   5.101  11.419   5.454 -0.6263 -1.7250  0.0327
 6975SOL    HW225611   4.985  11.513   5.435  0.5675  0.1113  1.5453
 6976SOL     OW25612   8.135   9.843   7.724 -0.1509 -0.4567 -0.2093
 6976SOL    HW125613   8.132   9.883   7.638 -1.0978 -1.9751 -0.9410
 6976SOL    HW225614   8.088   9.904   7.781 -0.4304  0.0771 -0.9937
 6977SOL     OW25615  10.754   0.974   9.651  0.2643 -0.1040 -0.2638
 6977SOL    HW125616  10.709   1.023   9.582  2.3506  0.4199 -1.3207
 6977SOL    HW225617  10.820   1.035   9.684  1.0877 -1.2777  0.3252
 6978SOL     OW25618  11.671  10.731   0.876  0.2218 -0.2590  0.8482
 6978SOL    HW125619  11.599  10.792   0.889  1.1150  1.0169  0.0649
 6978SOL    HW225620  11.682  10.727   0.780  1.4421 -0.0988  0.9655
 6979SOL     OW25621   0.004  11.512   7.077 -0.1207 -0.0187  0.7584
 6979SOL    HW125622  -0.030  11.548   6.996  2.0931  2.4062  0.7557
 6979SOL    HW225623   0.070  11.448   7.050 -1.3864 -1.3458  0.7259
 6980SOL     OW25624   9.033   3.321   2.932  0.2913  0.1482  0.1155
 6980SOL    HW125625   9.040   3.243   2.878  0.7708 -0.4071  0.9586
 6980SOL    HW225626   8.977   3.295   3.006  2.1412 -0.0896  1.5186
 6981SOL     OW25627   3.516   3.588   5.987  0.0979  0.1712  0.1399
 6981SOL    HW125628   3.564   3.658   5.943 -0.7183 -0.3419 -1.6675
 6981SOL    HW225629   3.449   3.633   6.038 -0.1651  0.7368 -0.6935
 6982SOL     OW25630   3.985   6.924   8.946 -0.0541 -0.0276  0.0630
 6982SOL    HW125631   4.036   6.942   8.867  0.5025 -1.1923  0.1320
 6982SOL    HW225632   4.029   6.849   8.986 -0.0467  0.8122  1.7336
 6983SOL     OW25633   9.536   7.977  11.252 -0.1572  0.2023 -0.3801
 6983SOL    HW125634   9.586   8.056  11.228  1.2381 -0.3309  0.6171
 6983SOL    HW225635   9.603   7.911  11.270 -1.2336 -0.6079  0.8437
 6984SOL     OW25636   9.603  10.112   0.858  0.2261 -0.0727  0.3061
 6984SOL    HW125637   9.511  10.136   0.866  0.4617  1.2513 -0.7026
 6984SOL    HW225638   9.619  10.106   0.764  1.6296  1.7150  0.3741
 6985SOL     OW25639   8.904  10.890   5.682  0.0209  0.2882 -0.1447
 6985SOL    HW125640   8.810  10.890   5.699 -0.0572 -0.0464 -0.5824
 6985SOL    HW225641   8.918  10.818   5.621  0.4246  0.9505 -0.8545
 6986SOL     OW25642  10.483  10.615   0.706 -0.1939 -0.4195 -0.3096
 6986SOL    HW125643  10.446  10.540   0.752  0.2010 -0.5683 -0.2320
 6986SOL    HW225644  10.407  10.663   0.672 -0.4365 -1.0528 -0.6722
 6987SOL     OW25645   3.251   8.291   9.608 -0.3772 -0.2355  0.1619
 6987SOL    HW125646   3.279   8.377   9.577  0.7334 -0.0512  1.5772
 6987SOL    HW225647   3.214   8.249   9.531  1.3864  0.5481 -1.1875
 6988SOL     OW25648  10.174  10.287   2.932 -1.2558 -0.1658  0.0392
 6988SOL    HW125649  10.172  10.293   3.028 -0.4937  0.6467  0.0180
 6988SOL    HW225650  10.263  10.258   2.911 -0.5552  2.1247 -0.4984
 6989SOL     OW25651   9.878   3.052   9.351  0.1066 -0.0046  0.4342
 6989SOL    HW125652   9.813   3.110   9.393 -0.9840 -0.9469  0.1010
 6989SOL    HW225653   9.937   3.112   9.305 -0.0321  0.9195  1.4278
 6990SOL     OW25654   9.998   4.116   5.164 -0.3139 -0.4874 -0.0453
 6990SOL    HW125655  10.062   4.157   5.222 -0.8229 -0.2606  0.3689
 6990SOL    HW225656  10.043   4.038   5.130 -0.6291 -1.7467  2.2010
 6991SOL     OW25657   2.190   8.068   7.128  0.4574  0.0184  0.4137
 6991SOL    HW125658   2.226   8.042   7.213  2.0587  2.8689  0.7529
 6991SOL    HW225659   2.126   8.136   7.149  0.8412  0.7337 -0.6364
 6992SOL     OW25660   8.897   2.504  10.743  0.4945 -0.2303 -0.3077
 6992SOL    HW125661   8.897   2.584  10.691 -0.5113 -0.8162 -1.2452
 6992SOL    HW225662   8.989   2.477  10.745  0.9074  1.1224  0.3418
 6993SOL     OW25663   9.320   1.081   5.563 -0.1605 -0.2828 -0.8429
 6993SOL    HW125664   9.296   1.036   5.482 -2.0556 -1.2462  0.1938
 6993SOL    HW225665   9.269   1.038   5.631  1.5215  0.3617  0.9386
 6994SOL     OW25666   1.738   0.450   8.506 -0.5456  0.4903 -0.5157
 6994SOL    HW125667   1.725   0.397   8.585  0.2402  1.0046 -0.0175
 6994SOL    HW225668   1.762   0.536   8.540  3.6712 -0.2080 -1.2576
 6995SOL     OW25669  10.925   8.375   7.632  0.1350  0.2651  0.1138
 6995SOL    HW125670  10.935   8.371   7.537 -1.1182 -1.2116  0.0064
 6995SOL    HW225671  10.961   8.291   7.664 -1.0897 -0.0467  0.7476
 6996SOL     OW25672   1.563   3.278   8.553  0.3683  0.5201  0.0929
 6996SOL    HW125673   1.655   3.272   8.527  0.2766  1.6587 -0.5435
 6996SOL    HW225674   1.522   3.331   8.484 -0.4565  1.3136  1.1670
 6997SOL     OW25675   2.224   1.369   0.293 -0.0427  0.3043  0.2870
 6997SOL    HW125676   2.240   1.380   0.199 -1.1482  1.6587  0.2316
 6997SOL    HW225677   2.309   1.342   0.329  1.0824  2.3243 -0.7175
 6998SOL     OW25678   6.138  10.885   3.162 -0.5448 -0.0327  0.8570
 6998SOL    HW125679   6.171  10.849   3.079 -0.1222 -1.1585  1.4879
 6998SOL    HW225680   6.204  10.949   3.189  0.0577 -0.7176  1.0386
 6999SOL     OW25681  11.970   3.283   6.666  0.0166 -0.1459 -0.0384
 6999SOL    HW125682  11.900   3.338   6.702 -0.6576  0.1860 -1.7301
 6999SOL    HW225683  11.951   3.280   6.572  1.5138 -1.1855 -0.3377
 7000SOL     OW25684   7.939   7.991  10.418 -0.3685 -0.0903  0.6331
 7000SOL    HW125685   8.016   7.999  10.362 -1.5990  1.4466 -0.9315
 7000SOL    HW225686   7.971   8.016  10.505  1.6674 -2.8850  0.8496
 7001SOL     OW25687   6.088   3.413  11.346 -0.6166 -0.3628  0.3622
 7001SOL    HW125688   5.999   3.444  11.330 -0.4750  0.3434  0.8857
 7001SOL    HW225689   6.100   3.341  11.284 -0.6011  1.2844 -1.6676
 7002SOL     OW25690   6.587   3.289   5.728 -0.5866  0.3947  0.2003
 7002SOL    HW125691   6.589   3.200   5.692  0.7294  1.0371 -1.4081
 7002SOL    HW225692   6.679   3.313   5.738 -0.8056  2.7225 -2.4464
 7003SOL     OW25693  10.370  10.197  11.443 -0.2233  0.2332 -0.5974
 7003SOL    HW125694  10.367  10.258  11.369  2.4905 -0.6139 -1.5582
 7003SOL    HW225695  10.353  10.251  11.520  1.2341  2.0757 -1.4769
 7004SOL     OW25696   9.088   2.843   9.653  0.6409 -0.4990 -0.0128
 7004SOL    HW125697   9.122   2.910   9.712  2.5262  0.1429 -1.6991
 7004SOL    HW225698   8.997   2.832   9.679  1.0662  0.5881  2.2015
 7005SOL     OW25699   6.767   3.703   7.200  0.8390  0.1432 -0.0554
 7005SOL    HW125700   6.723   3.755   7.133  0.3065  0.8790  0.8478
 7005SOL    HW225701   6.745   3.745   7.283  2.3826 -0.0975  0.5170
 7006SOL     OW25702   1.113   4.579   4.916 -0.3133  0.2216  0.5922
 7006SOL    HW125703   1.200   4.548   4.887 -0.2119  0.0368  1.0780
 7006SOL    HW225704   1.063   4.587   4.835 -0.0585 -0.3569  0.3634
 7007SOL     OW25705  10.628   7.686   6.866  0.0807 -0.3486 -0.2883
 7007SOL    HW125706  10.551   7.660   6.916  0.3200 -0.1643  0.1816
 7007SOL    HW225707  10.693   7.619   6.886  0.5729  0.3859  0.6198
 7008SOL     OW25708   8.850   4.940  10.910 -0.0302 -0.0336  0.3703
 7008SOL    HW125709   8.759   4.960  10.933  0.0561  0.5861  0.2119
 7008SOL    HW225710   8.844   4.873  10.842 -0.4272  0.9206 -0.5692
 7009SOL     OW25711   1.891   7.723  10.994  0.3437  0.6104 -0.2992
 7009SOL    HW125712   1.952   7.650  10.999  0.7298  0.9105 -0.5371
 7009SOL    HW225713   1.804   7.683  11.006  0.7151  0.5724  3.8269
 7010SOL     OW25714   4.987   4.283   8.109 -0.0932 -0.5806 -0.1873
 7010SOL    HW125715   4.892   4.286   8.103 -0.1580 -2.3644 -1.0368
 7010SOL    HW225716   5.015   4.374   8.106 -1.8612  0.2372  3.2273
 7011SOL     OW25717   1.055   7.733   3.629 -0.1877  0.3451 -0.4831
 7011SOL    HW125718   1.055   7.749   3.535  1.2321  0.0173 -0.5465
 7011SOL    HW225719   1.088   7.814   3.667 -4.2338  2.0065  0.0877
 7012SOL     OW25720   1.693   0.921  10.106 -0.6030 -0.6397 -0.2420
 7012SOL    HW125721   1.640   0.941  10.029 -0.8437 -0.5791 -0.0637
 7012SOL    HW225722   1.755   0.854  10.076  1.2028  1.3732 -1.2324
 7013SOL     OW25723   1.076  10.237   2.132  0.2578 -0.1162  0.1809
 7013SOL    HW125724   1.108  10.280   2.211  0.0362 -1.3609  0.9868
 7013SOL    HW225725   1.125  10.155   2.128  0.6643  0.1744 -1.3050
 7014SOL     OW25726   4.431   1.882   7.688  0.0765  0.2166  0.0453
 7014SOL    HW125727   4.354   1.926   7.654 -0.7567  0.7784  2.4702
 7014SOL    HW225728   4.498   1.894   7.621 -1.4746  1.1341 -1.3841
 7015SOL     OW25729   1.839   4.784   9.149  0.4735  0.4104  0.7901
 7015SOL    HW125730   1.845   4.689   9.160  0.0191  0.4386  1.3213
 7015SOL    HW225731   1.869   4.800   9.060 -1.7253 -0.4757 -0.1793
 7016SOL     OW25732   8.218   6.814   0.729 -1.1899 -0.2363  0.2716
 7016SOL    HW125733   8.244   6.729   0.693 -2.0251  0.0344 -1.0899
 7016SOL    HW225734   8.128   6.826   0.697 -0.4785  1.9671 -1.1755
 7017SOL     OW25735   2.044  11.423   6.106  0.5357  0.5696  0.2998
 7017SOL    HW125736   2.137  11.442   6.094  0.4521  0.7616 -0.0654
 7017SOL    HW225737   2.003  11.453   6.025 -0.0014  1.4902  0.8974
 7018SOL     OW25738   1.545  10.534   6.600  0.0172 -0.1474 -0.6346
 7018SOL    HW125739   1.496  10.501   6.525 -0.9991  1.2685 -0.6310
 7018SOL    HW225740   1.533  10.468   6.668 -0.7986 -0.4417 -1.0550
 7019SOL     OW25741   9.379   0.043  10.768  0.2851 -0.6536  0.2654
 7019SOL    HW125742   9.435   0.014  10.840  2.0143 -0.4057 -0.9112
 7019SOL    HW225743   9.407  -0.009  10.693  0.3584  0.8575 -0.8186
 7020SOL     OW25744   2.247   7.377   0.924 -0.2433  0.2368 -0.1081
 7020SOL    HW125745   2.248   7.300   0.866 -1.2215  1.0486 -1.2502
 7020SOL    HW225746   2.227   7.342   1.010 -1.5764 -0.7052 -0.7687
 7021SOL     OW25747   1.074   5.370   4.640  0.1653  0.8482 -0.4426
 7021SOL    HW125748   1.049   5.426   4.714  0.8881  0.9356 -0.2508
 7021SOL    HW225749   1.154   5.411   4.606  0.5300  0.0976 -0.4948
 7022SOL     OW25750   2.910   2.497   8.160 -0.3265  0.5106  0.0533
 7022SOL    HW125751   2.981   2.448   8.119  0.7977  1.2313  1.0807
 7022SOL    HW225752   2.899   2.456   8.246 -2.4019 -0.7476 -0.7390
 7023SOL     OW25753   5.577   0.166   1.761 -0.7083 -0.2995 -0.3199
 7023SOL    HW125754   5.644   0.161   1.830  2.0242  1.4777 -2.6251
 7023SOL    HW225755   5.541   0.077   1.756  0.8972 -1.1346  1.5701
 7024SOL     OW25756   8.428   1.462   6.816 -0.4706  0.4968 -0.1042
 7024SOL    HW125757   8.518   1.441   6.791 -0.5143 -1.3106  1.0310
 7024SOL    HW225758   8.435   1.493   6.907 -1.0361 -0.4347  0.2738
 7025SOL     OW25759   7.029   0.134  11.677 -0.5049  0.5472  0.5231
 7025SOL    HW125760   7.027   0.047  11.718 -2.1940  0.5617  0.5541
 7025SOL    HW225761   7.086   0.124  11.601  0.0815 -0.3246  1.0559
 7026SOL     OW25762   3.644   9.353   0.542  0.0255 -0.2275 -0.1737
 7026SOL    HW125763   3.550   9.357   0.526  0.1633  0.8280 -0.8484
 7026SOL    HW225764   3.663   9.432   0.593  0.8630  0.8427 -2.0215
 7027SOL     OW25765   2.819   6.790   0.725  0.0147  0.5576  0.8116
 7027SOL    HW125766   2.841   6.698   0.706  0.5883  0.6357  1.0524
 7027SOL    HW225767   2.724   6.791   0.732 -0.0583  0.1292  0.0409
 7028SOL     OW25768   3.586   6.386  10.809 -0.1600  0.7558 -0.1127
 7028SOL    HW125769   3.643   6.364  10.883  1.0954 -0.1115 -1.2830
 7028SOL    HW225770   3.588   6.481  10.805 -0.4613  0.8285  1.1234
 7029SOL     OW25771   5.708   5.063   4.249 -0.5360 -0.1860 -0.8375
 7029SOL    HW125772   5.641   5.084   4.315 -0.6245 -2.1864 -0.2309
 7029SOL    HW225773   5.664   5.077   4.165 -2.0937 -2.2979 -0.4682
 7030SOL     OW25774   6.968   4.477  11.293  0.5390 -0.5244 -0.4697
 7030SOL    HW125775   7.052   4.518  11.310  0.5598 -1.4071  2.0164
 7030SOL    HW225776   6.987   4.383  11.290 -0.4119 -0.7896  0.8666
 7031SOL     OW25777   1.147   4.516   0.269 -0.0761  0.5780 -0.0766
 7031SOL    HW125778   1.180   4.588   0.323 -0.4809  1.2724 -0.7504
 7031SOL    HW225779   1.190   4.528   0.184 -0.2414  0.0978 -0.2320
 7032SOL     OW25780   3.487   1.986   1.700 -0.1048 -0.0249 -0.6993
 7032SOL    HW125781   3.422   1.949   1.640 -0.9975  0.2754  0.0407
 7032SOL    HW225782   3.438   2.053   1.748  1.1235  1.1575 -1.0534
 7033SOL     OW25783   2.109   3.665   1.292  0.4565 -0.3598  0.1093
 7033SOL    HW125784   2.151   3.720   1.225 -1.2293  1.0694  0.1498
 7033SOL    HW225785   2.179   3.608   1.323  1.4650 -0.5741 -2.3408
 7034SOL     OW25786   4.257   6.444   1.740 -0.1726 -0.2062  0.2033
 7034SOL    HW125787   4.216   6.485   1.816  0.3272  0.4498  0.1353
 7034SOL    HW225788   4.247   6.509   1.670  0.7246 -0.1398  0.1225
 7035SOL     OW25789   4.156   0.486  11.371  0.6176  0.5665 -0.2216
 7035SOL    HW125790   4.182   0.394  11.368 -0.2637  0.3272 -0.6972
 7035SOL    HW225791   4.188   0.523  11.288  0.6237  0.5986 -0.2054
 7036SOL     OW25792   1.530   2.533  10.454  0.6203  0.0457 -1.0283
 7036SOL    HW125793   1.597   2.478  10.414  0.0202 -0.6212 -1.1377
 7036SOL    HW225794   1.468   2.471  10.493  0.2222  0.6522 -0.6739
 7037SOL     OW25795   1.308   3.025   2.240  0.1512 -0.0994  0.7462
 7037SOL    HW125796   1.304   2.930   2.229  0.6894 -0.0373 -0.1736
 7037SOL    HW225797   1.221   3.049   2.272 -0.5858 -0.7209 -0.6812
 7038SOL     OW25798   5.926   2.032   7.699 -0.7486  0.0193 -0.9108
 7038SOL    HW125799   5.962   2.005   7.784  0.9964  0.5595 -1.4341
 7038SOL    HW225800   5.833   2.046   7.716 -0.1779  1.6030  1.2983
 7039SOL     OW25801   0.609   2.994   4.450  0.3689 -0.2121 -0.0319
 7039SOL    HW125802   0.697   2.972   4.418  0.6722  0.3685  0.3642
 7039SOL    HW225803   0.625   3.054   4.523 -0.1517 -3.3853  2.9496
 7040SOL     OW25804   9.475   8.626   9.132 -0.5001  0.3889  0.3445
 7040SOL    HW125805   9.545   8.610   9.195 -0.3684  0.0119  0.1047
 7040SOL    HW225806   9.492   8.564   9.061 -2.1532 -1.0136  1.1285
 7041SOL     OW25807   9.037   0.828  10.461 -0.0429  0.2938  0.4030
 7041SOL    HW125808   9.053   0.782  10.543 -2.2704  0.2426  0.8664
 7041SOL    HW225809   9.089   0.781  10.396  0.9823 -0.2649  1.5868
 7042SOL     OW25810   1.077  10.945   6.969 -0.4022 -0.8792  0.3390
 7042SOL    HW125811   1.090  11.021   6.913 -0.8304 -1.1001 -0.0632
 7042SOL    HW225812   1.013  10.891   6.922 -0.9492 -0.9535  1.1444
 7043SOL     OW25813   3.222  11.509   4.257  0.4089 -0.7058 -0.3349
 7043SOL    HW125814   3.156  11.575   4.280 -2.1856 -2.9501 -0.8915
 7043SOL    HW225815   3.268  11.547   4.181 -0.4789  0.7649 -0.1727
 7044SOL     OW25816   2.392   1.484   9.135 -0.4216  0.0796  0.1305
 7044SOL    HW125817   2.453   1.515   9.201 -0.0048  2.6117 -1.3162
 7044SOL    HW225818   2.341   1.562   9.111  0.0002 -0.4746 -3.0509
 7045SOL     OW25819   9.738   2.099  11.906 -0.3525 -0.2412 -0.0647
 7045SOL    HW125820   9.665   2.038  11.907 -1.5168  1.0209 -1.9894
 7045SOL    HW225821   9.760   2.110  11.814  0.1968  1.7737  0.2420
 7046SOL     OW25822   8.283   4.686   0.111  0.6597  0.0820 -0.2332
 7046SOL    HW125823   8.378   4.690   0.125  0.6390 -1.1990  0.4154
 7046SOL    HW225824   8.260   4.774   0.080  2.0768  0.3689 -0.5531
 7047SOL     OW25825  10.203   7.932   2.523 -0.5788 -0.2433  0.3477
 7047SOL    HW125826  10.107   7.929   2.517 -0.4895 -0.4080 -2.8756
 7047SOL    HW225827  10.227   8.013   2.478  0.8253 -0.1579  1.1977
 7048SOL     OW25828   6.799   4.237   4.740  0.3118 -0.6701  0.2466
 7048SOL    HW125829   6.723   4.233   4.796 -1.0441  0.0350 -1.4427
 7048SOL    HW225830   6.817   4.331   4.730 -0.6473 -0.6396 -1.8875
 7049SOL     OW25831   9.224   1.544   3.226 -0.3862 -1.1613  0.2457
 7049SOL    HW125832   9.288   1.488   3.271  1.3098 -0.8204 -1.5925
 7049SOL    HW225833   9.170   1.580   3.297  1.1938 -1.7819  1.8562
 7050SOL     OW25834   3.168   9.215   4.487  0.0382 -0.6836  0.2980
 7050SOL    HW125835   3.083   9.177   4.467 -0.5890 -0.0269  1.5953
 7050SOL    HW225836   3.210   9.227   4.402 -1.4704 -0.3111 -0.4211
 7051SOL     OW25837  11.383  11.633   0.463 -0.0942  0.3074  0.2176
 7051SOL    HW125838  11.444  11.559   0.456  0.6623  0.7442  1.9155
 7051SOL    HW225839  11.298  11.595   0.442  0.5073 -0.6853 -0.5168
 7052SOL     OW25840   1.594   9.496   4.736 -0.0210 -0.5242  0.2286
 7052SOL    HW125841   1.550   9.569   4.780 -0.1726 -0.0353 -0.6978
 7052SOL    HW225842   1.642   9.537   4.664  1.2829 -1.1511  0.7078
 7053SOL     OW25843   6.197   2.472   1.365 -0.7956 -0.2204  0.2502
 7053SOL    HW125844   6.173   2.560   1.336 -0.2882  0.2732  1.2841
 7053SOL    HW225845   6.273   2.449   1.312 -0.7956  0.0497  0.1329
 7054SOL     OW25846   5.402   5.960   5.146 -0.2459 -0.2956 -0.2987
 7054SOL    HW125847   5.424   5.944   5.054 -0.1417  0.9949 -0.5193
 7054SOL    HW225848   5.458   6.033   5.171 -1.8131  0.7888  0.1527
 7055SOL     OW25849   1.095   2.275  11.281  0.0306  0.1948 -0.5651
 7055SOL    HW125850   1.046   2.193  11.278  0.3469  0.0189 -0.9513
 7055SOL    HW225851   1.156   2.270  11.207  0.5257  0.4763 -0.1820
 7056SOL     OW25852   0.665   1.699   9.491  0.5621 -0.5398 -0.1582
 7056SOL    HW125853   0.707   1.613   9.483  1.6847  0.1043 -1.5215
 7056SOL    HW225854   0.670   1.719   9.584 -0.4311 -2.2798  0.3185
 7057SOL     OW25855   4.794   7.099   4.301 -0.4934 -0.8497 -0.4165
 7057SOL    HW125856   4.745   7.070   4.224 -0.1178  0.1506 -1.0444
 7057SOL    HW225857   4.812   7.018   4.349 -2.5489 -1.2711 -0.2688
 7058SOL     OW25858   4.051   5.747   1.003  0.3991 -0.2840  0.4137
 7058SOL    HW125859   3.991   5.676   1.028 -0.4514  0.2538 -0.0389
 7058SOL    HW225860   4.105   5.760   1.080 -0.0363 -0.8223  0.8239
 7059SOL     OW25861   2.178   3.565   8.375  0.5076  0.1992  0.0754
 7059SOL    HW125862   2.115   3.500   8.342 -0.8151  1.5980 -0.2978
 7059SOL    HW225863   2.144   3.649   8.343  2.4238  1.0488  0.1286
 7060SOL     OW25864   1.408   4.443  11.579 -0.3495  0.1413 -0.4673
 7060SOL    HW125865   1.420   4.536  11.598  0.4627 -0.6346  3.6970
 7060SOL    HW225866   1.497   4.407  11.583 -0.8222 -1.0428 -0.5038
 7061SOL     OW25867   6.516   2.861   3.881  0.3434  0.0139 -0.2515
 7061SOL    HW125868   6.593   2.907   3.847  1.1827 -1.1200  0.0727
 7061SOL    HW225869   6.442   2.914   3.851  1.2018  0.7445 -1.1666
 7062SOL     OW25870   3.635   4.912   9.994  0.5443  0.4882  0.1787
 7062SOL    HW125871   3.630   4.829   9.948  3.1014  0.7418 -0.7357
 7062SOL    HW225872   3.544   4.939  10.006 -0.3130 -1.9379 -0.3535
 7063SOL     OW25873   1.182   1.124   3.784  0.1626 -0.1070 -0.2855
 7063SOL    HW125874   1.145   1.147   3.699  1.9851 -0.8001 -1.3017
 7063SOL    HW225875   1.227   1.203   3.813 -0.4772  0.1364  0.0750
 7064SOL     OW25876  11.195  11.321   0.833  0.5715 -0.6637  0.5247
 7064SOL    HW125877  11.249  11.387   0.874 -0.1507  0.4885 -0.3258
 7064SOL    HW225878  11.166  11.360   0.750  0.8837 -2.3913 -0.4626
 7065SOL     OW25879   4.891   7.125  10.290  0.3531 -0.4143  0.1692
 7065SOL    HW125880   4.867   7.034  10.274  0.7111 -0.3771 -0.6535
 7065SOL    HW225881   4.808   7.172  10.291  0.2748 -0.3517 -2.1976
 7066SOL     OW25882   7.369   7.761   5.785 -0.6905 -0.0325  0.4084
 7066SOL    HW125883   7.367   7.854   5.810 -0.8230  0.2089 -0.4842
 7066SOL    HW225884   7.462   7.738   5.782 -0.4352  0.9899 -2.6208
 7067SOL     OW25885   2.927   0.363   7.543  0.2142  0.5889  0.6083
 7067SOL    HW125886   2.976   0.293   7.585  0.3091 -0.7363 -1.5808
 7067SOL    HW225887   2.943   0.351   7.450 -2.8989  1.1484 -0.0908
 7068SOL     OW25888   5.957   4.572   6.846 -0.2079 -0.0130 -0.6008
 7068SOL    HW125889   6.000   4.487   6.835 -1.7495 -1.1193  1.2210
 7068SOL    HW225890   5.873   4.563   6.802 -0.2691  0.6843 -0.6469
 7069SOL     OW25891   4.891   9.139   3.729 -0.6267  0.1107 -0.1175
 7069SOL    HW125892   4.954   9.071   3.753 -0.3071  0.8436  1.2136
 7069SOL    HW225893   4.812   9.090   3.706  0.0439 -0.7694 -0.6407
 7070SOL     OW25894  11.345  11.429  10.565  0.5942 -0.1845  0.2769
 7070SOL    HW125895  11.381  11.516  10.546 -0.3651 -0.0030 -0.8421
 7070SOL    HW225896  11.295  11.441  10.645 -0.0298  0.4671 -0.1895
 7071SOL     OW25897   3.400   6.710   1.785  0.0809  0.7128  0.2624
 7071SOL    HW125898   3.366   6.702   1.874 -0.1147 -1.6401  0.0411
 7071SOL    HW225899   3.492   6.683   1.792  0.1380  0.7728 -0.1925
 7072SOL     OW25900   5.713   5.381   9.952  0.1248  0.2387  0.8337
 7072SOL    HW125901   5.706   5.301  10.005 -2.6846 -1.4237 -1.7054
 7072SOL    HW225902   5.773   5.357   9.881 -2.7730 -0.7904 -1.4690
 7073SOL     OW25903   7.126   2.764   2.470 -0.2705 -0.8070  0.4062
 7073SOL    HW125904   7.122   2.854   2.500 -0.8090 -1.5393  2.7035
 7073SOL    HW225905   7.060   2.758   2.401  0.6273  0.8147 -0.6502
 7074SOL     OW25906   9.081   3.114   2.756 -0.0117 -0.1653  0.1012
 7074SOL    HW125907   9.150   3.132   2.691  0.4793  1.3352  1.0061
 7074SOL    HW225908   9.003   3.099   2.703  0.3041  1.3585 -0.8547
 7075SOL     OW25909   5.326   3.433  10.616  0.8051  0.0323  0.3592
 7075SOL    HW125910   5.319   3.381  10.696  0.1760 -1.5857 -0.7139
 7075SOL    HW225911   5.409   3.481  10.626  0.0612  0.9954  2.5903
 7076SOL     OW25912   9.789   0.331   8.950  0.1677  0.0515  0.4226
 7076SOL    HW125913   9.732   0.281   9.008  0.6493 -2.7710 -1.3172
 7076SOL    HW225914   9.803   0.273   8.875 -0.4070  3.4238 -2.5630
 7077SOL     OW25915   5.858  10.930   4.232 -0.0087  0.4656  0.1395
 7077SOL    HW125916   5.829  10.994   4.299 -0.5660  0.0727  0.2843
 7077SOL    HW225917   5.897  10.859   4.283 -1.0774 -0.1648  0.1065
 7078SOL     OW25918   0.823   5.916   6.378 -0.1644 -0.4901  0.0428
 7078SOL    HW125919   0.789   5.832   6.347 -0.0349 -1.2578  1.8349
 7078SOL    HW225920   0.813   5.975   6.304  0.2052 -2.2072 -1.4535
 7079SOL     OW25921   7.074   3.555   3.381 -0.5221  0.6644 -0.4032
 7079SOL    HW125922   7.136   3.619   3.415  1.0082  0.9647 -3.3854
 7079SOL    HW225923   6.998   3.607   3.354 -0.2427  0.9088 -0.7193
 7080SOL     OW25924  10.154  10.860  11.726  0.3058 -0.0229  0.4377
 7080SOL    HW125925  10.059  10.846  11.727  0.4984 -1.5729 -0.1428
 7080SOL    HW225926  10.167  10.939  11.779 -1.2964  0.1972  0.5616
 7081SOL     OW25927   0.749   3.281  11.050 -0.2998 -0.4276  0.4798
 7081SOL    HW125928   0.715   3.339  11.118  3.6059  1.8847  0.7333
 7081SOL    HW225929   0.697   3.302  10.972 -2.3013 -0.3599  1.7615
 7082SOL     OW25930   3.833   5.891   4.669 -0.3672  0.4324 -0.4444
 7082SOL    HW125931   3.858   5.975   4.708 -0.7305 -0.4108  1.7551
 7082SOL    HW225932   3.780   5.848   4.736 -0.4032 -1.4704 -1.6104
 7083SOL     OW25933   5.715   6.024   4.696 -0.9183  0.1849  0.0854
 7083SOL    HW125934   5.768   6.085   4.747 -0.8228  0.6054 -0.5029
 7083SOL    HW225935   5.642   6.001   4.754 -1.1078  1.0786  0.2174
 7084SOL     OW25936   1.948   7.784   8.314  0.4444 -0.5346  0.4957
 7084SOL    HW125937   1.927   7.710   8.257 -0.6464 -0.3046  0.5884
 7084SOL    HW225938   1.875   7.845   8.302  1.0968  0.3185  0.7786
 7085SOL     OW25939  10.456   1.640  10.254  0.8314  0.3026  0.6839
 7085SOL    HW125940  10.373   1.594  10.267  0.9579  0.5036  2.4789
 7085SOL    HW225941  10.438   1.704  10.186 -0.1205 -0.5123  0.1470
 7086SOL     OW25942   9.363   2.400   2.450  0.0904 -0.0438 -0.2679
 7086SOL    HW125943   9.334   2.486   2.478 -2.2476 -1.3170  1.5620
 7086SOL    HW225944   9.432   2.376   2.512 -0.2135 -0.0479  0.0666
 7087SOL     OW25945  11.674   5.942   5.192 -0.2953  0.2516 -0.7350
 7087SOL    HW125946  11.674   5.977   5.103  0.4125  2.7066  0.1529
 7087SOL    HW225947  11.742   5.991   5.237  1.7926 -3.2936  0.3651
 7088SOL     OW25948  10.410   8.513   8.872 -0.2038  0.2559  0.6564
 7088SOL    HW125949  10.355   8.446   8.912 -1.0533  0.2765 -0.4174
 7088SOL    HW225950  10.450   8.558   8.946 -2.3637  0.8543  1.5521
 7089SOL     OW25951  10.924  10.089  11.125  0.0684 -0.0464  0.4856
 7089SOL    HW125952  10.853  10.027  11.141 -0.9921  0.3032 -2.2856
 7089SOL    HW225953  10.988  10.070  11.194 -2.3173 -0.8874  2.6609
 7090SOL     OW25954   7.597  10.814   6.247  0.0023 -0.6793 -0.4216
 7090SOL    HW125955   7.651  10.813   6.168  0.4855 -0.4108 -0.1029
 7090SOL    HW225956   7.590  10.907   6.270  0.1500 -0.7801  0.0412
 7091SOL     OW25957   8.151   8.285   4.144 -0.0549 -0.1162 -0.0015
 7091SOL    HW125958   8.206   8.349   4.099 -0.2137 -0.7145 -1.0781
 7091SOL    HW225959   8.169   8.202   4.100 -2.7039 -0.1258 -1.2543
 7092SOL     OW25960   9.149   5.015   1.302  0.2528  0.0727  0.3382
 7092SOL    HW125961   9.086   5.037   1.370  1.9874  0.4601  1.8938
 7092SOL    HW225962   9.143   5.087   1.240 -0.6947  0.1833  0.5428
 7093SOL     OW25963   1.803   2.936   1.630  0.3374 -0.2081 -0.5096
 7093SOL    HW125964   1.854   2.962   1.707 -0.0659 -0.5043 -0.1340
 7093SOL    HW225965   1.866   2.932   1.559  0.7930 -0.3319 -0.1031
 7094SOL     OW25966  11.438   6.227   0.343 -0.0332  0.2435 -0.4620
 7094SOL    HW125967  11.420   6.321   0.334  2.6067  0.7732 -0.9548
 7094SOL    HW225968  11.465   6.199   0.256  1.6000 -0.3736  0.2050
 7095SOL     OW25969   2.500   4.102   6.244 -0.3022  0.0785  0.3056
 7095SOL    HW125970   2.470   4.182   6.202 -0.8518 -0.3651 -0.1609
 7095SOL    HW225971   2.420   4.056   6.270  0.0135  0.0501  1.2944
 7096SOL     OW25972   8.025  11.281   8.661 -0.0064  0.0032  0.7162
 7096SOL    HW125973   7.950  11.261   8.717  0.4456  0.3783  1.4700
 7096SOL    HW225974   8.044  11.374   8.679 -0.9219  0.6484 -1.3396
 7097SOL     OW25975   3.917   1.558   8.683 -0.3858  0.6145  0.5263
 7097SOL    HW125976   3.911   1.593   8.772  1.4790  0.4629  0.7400
 7097SOL    HW225977   3.925   1.464   8.695  1.0753  0.6840  0.2929
 7098SOL     OW25978   4.977  11.712   0.304 -0.2446  0.2076 -0.0903
 7098SOL    HW125979   4.992  11.658   0.226 -0.6297  1.3014 -0.9583
 7098SOL    HW225980   4.952  11.650   0.372 -1.1385 -0.6668 -1.1687
 7099SOL     OW25981   1.387   1.081  11.205 -0.0195  0.7288  0.3765
 7099SOL    HW125982   1.323   1.027  11.158 -2.2493  1.9489  1.8125
 7099SOL    HW225983   1.430   1.019  11.265 -0.5178  0.0322  0.0299
 7100SOL     OW25984   7.997  11.087  11.363 -0.1253  0.0100 -0.0581
 7100SOL    HW125985   8.030  11.150  11.300 -1.3944 -0.4710 -1.2617
 7100SOL    HW225986   7.911  11.121  11.389 -0.5097 -0.8208 -0.1780
 7101SOL     OW25987  11.942  11.822  11.320  0.5200  0.6285  0.0642
 7101SOL    HW125988  11.891  11.885  11.269  0.5263 -0.2360 -1.0536
 7101SOL    HW225989  12.022  11.810  11.269  0.6792 -0.0014  0.4563
 7102SOL     OW25990   3.593  10.709   7.932  0.5640  0.0317 -0.1301
 7102SOL    HW125991   3.560  10.792   7.898  2.5042  1.0075  0.2503
 7102SOL    HW225992   3.521  10.674   7.984 -1.7949 -0.5277 -3.4334
 7103SOL     OW25993   8.198   4.503   5.237 -0.2420  0.3892 -0.8290
 7103SOL    HW125994   8.127   4.445   5.262 -1.7010  1.8771 -1.3468
 7103SOL    HW225995   8.277   4.459   5.268 -1.3789 -1.2587 -0.1375
 7104SOL     OW25996   9.850   7.919   6.986  0.2223  0.1697  0.3865
 7104SOL    HW125997   9.935   7.893   7.020 -0.1227 -0.0430  1.0979
 7104SOL    HW225998   9.788   7.900   7.057 -0.4806 -0.0932 -0.2863
 7105SOL     OW25999   2.754   1.903  10.265 -0.0618 -0.1458 -0.3532
 7105SOL    HW126000   2.661   1.881  10.257 -0.3164 -0.9360  3.2652
 7105SOL    HW226001   2.754   1.996  10.287 -0.0259 -0.2282 -0.0028
 7106SOL     OW26002   9.954   3.608   7.196 -0.0726 -0.4286  0.3302
 7106SOL    HW126003   9.892   3.674   7.164  1.8848  0.8811 -0.9622
 7106SOL    HW226004   9.900   3.530   7.209 -2.3888  1.2216  1.4165
 7107SOL     OW26005  11.115   8.651   8.530 -0.0130  0.1949  0.8576
 7107SOL    HW126006  11.051   8.721   8.540 -0.4139 -0.0234 -0.1080
 7107SOL    HW226007  11.199   8.697   8.521 -0.1731  0.5214  1.0083
 7108SOL     OW26008   0.984   1.860   7.054  0.1655  0.6878 -0.2313
 7108SOL    HW126009   1.055   1.856   7.118 -0.8913  0.5288  0.9830
 7108SOL    HW226010   0.937   1.778   7.066 -0.6941  1.1393 -0.4175
 7109SOL     OW26011   6.412   2.923   8.661  0.3741  0.1852 -0.3707
 7109SOL    HW126012   6.475   2.993   8.679  0.0685  0.1347  0.9581
 7109SOL    HW226013   6.327   2.968   8.655  0.4159  0.1496 -1.3378
 7110SOL     OW26014  11.011  10.695   1.820  0.4980 -0.1981 -0.5790
 7110SOL    HW126015  11.097  10.666   1.789  1.8576  1.6520  1.2232
 7110SOL    HW226016  11.021  10.788   1.839 -1.1940 -0.3966  1.8817
 7111SOL     OW26017   3.376   3.372   5.033 -0.2988 -0.8174 -0.4063
 7111SOL    HW126018   3.435   3.297   5.039  0.2004 -0.4671 -0.7751
 7111SOL    HW226019   3.294   3.343   5.073 -0.9047 -2.3488 -2.5629
 7112SOL     OW26020   9.442   9.397   2.803 -0.1601 -0.1989 -0.3127
 7112SOL    HW126021   9.369   9.455   2.783  0.4571 -0.3839 -3.5742
 7112SOL    HW226022   9.519   9.454   2.805  0.2130 -0.6189 -1.7789
 7113SOL     OW26023   5.486   5.139   0.476  0.1046  0.5627 -0.3129
 7113SOL    HW126024   5.563   5.089   0.506 -0.2475 -0.3856 -0.9328
 7113SOL    HW226025   5.522   5.221   0.444  0.9248 -0.0291 -0.9644
 7114SOL     OW26026  10.949   7.758   8.896  0.5720  0.2189 -0.4455
 7114SOL    HW126027  10.862   7.722   8.912  1.1896 -1.5062 -0.8284
 7114SOL    HW226028  10.946   7.789   8.805  0.3622  0.2119 -0.4421
 7115SOL     OW26029  11.668   1.894   9.290  0.0604 -0.3676  0.0753
 7115SOL    HW126030  11.658   1.981   9.252 -0.3902 -1.6411 -3.0399
 7115SOL    HW226031  11.579   1.865   9.309 -0.0945 -1.2361 -1.7651
 7116SOL     OW26032   0.716   7.169   3.529 -0.6507  0.3311 -0.1599
 7116SOL    HW126033   0.708   7.190   3.622  3.9842 -0.0567  0.5324
 7116SOL    HW226034   0.658   7.093   3.518 -1.3639  0.3846  2.3853
 7117SOL     OW26035  11.356   5.781   7.651  0.7765  0.7903 -0.2386
 7117SOL    HW126036  11.262   5.798   7.647  0.7546  0.8487  0.3803
 7117SOL    HW226037  11.362   5.688   7.673  0.8690  0.7110 -0.5920
 7118SOL     OW26038   1.815   6.030   3.562  0.2181 -0.0600  0.7780
 7118SOL    HW126039   1.904   6.057   3.537  0.3570 -0.4758  0.8026
 7118SOL    HW226040   1.769   6.020   3.479  0.0940  0.4888  0.7806
 7119SOL     OW26041   5.415   6.338  10.580  0.1502  0.6760  0.4894
 7119SOL    HW126042   5.485   6.309  10.521  0.6021 -0.3168  1.4618
 7119SOL    HW226043   5.437   6.297  10.664 -1.1921  0.9741  1.0086
 7120SOL     OW26044  11.151   3.391   1.805 -0.3245  0.4906  0.0882
 7120SOL    HW126045  11.081   3.335   1.773  0.9183 -0.9231 -0.2770
 7120SOL    HW226046  11.115   3.433   1.883 -1.6962  0.1212 -0.3183
 7121SOL     OW26047   1.843   0.702  10.536  0.1461  0.6926 -0.2740
 7121SOL    HW126048   1.923   0.752  10.519  0.8166 -0.8937 -2.0680
 7121SOL    HW226049   1.791   0.713  10.456  0.7635 -2.2326 -1.1697
 7122SOL     OW26050   8.474   2.728   8.081  0.2592  0.6276  0.5284
 7122SOL    HW126051   8.485   2.635   8.061 -0.9855  1.0604 -2.7920
 7122SOL    HW226052   8.554   2.753   8.126  1.2446 -1.7310  0.2204
 7123SOL     OW26053   5.880   2.781   4.530  0.1289  0.3339  0.4843
 7123SOL    HW126054   5.883   2.744   4.618 -0.9125 -0.6172  0.1408
 7123SOL    HW226055   5.816   2.852   4.536 -1.7630 -1.2579 -0.0175
 7124SOL     OW26056   8.236  11.430   1.065  0.0928 -0.4387  0.1536
 7124SOL    HW126057   8.295  11.427   0.990 -0.9336  0.0546 -0.6938
 7124SOL    HW226058   8.186  11.349   1.060 -1.1622  0.3566 -0.7105
 7125SOL     OW26059   8.450   3.329   3.281  0.4322 -0.0579 -0.3758
 7125SOL    HW126060   8.521   3.389   3.302 -0.4796  0.8740  0.1228
 7125SOL    HW226061   8.434   3.282   3.362 -1.3865  1.7496  0.3977
 7126SOL     OW26062  10.725   9.724   7.388  0.0592  0.2039 -0.0298
 7126SOL    HW126063  10.777   9.804   7.396  0.5519 -0.2666  2.4418
 7126SOL    HW226064  10.713   9.695   7.479 -0.5690 -2.2133 -0.8215
 7127SOL     OW26065   5.761   2.124   6.541 -0.3518 -0.2531  0.3194
 7127SOL    HW126066   5.761   2.215   6.511 -0.6724  0.3336  1.9881
 7127SOL    HW226067   5.772   2.072   6.461 -2.0879  1.1682 -0.9321
 7128SOL     OW26068   7.517  11.317   0.758  0.1222  0.2050 -0.0425
 7128SOL    HW126069   7.478  11.249   0.705  1.2170  0.1692 -0.8421
 7128SOL    HW226070   7.523  11.279   0.846  0.8485 -0.7851 -0.5072
 7129SOL     OW26071   6.062   5.559   4.935 -0.5847 -0.0377  0.0353
 7129SOL    HW126072   6.005   5.489   4.902 -0.2616 -0.7266  0.8912
 7129SOL    HW226073   6.046   5.561   5.029 -0.5275  0.9983  0.0292
 7130SOL     OW26074   6.820   3.185   3.911 -0.2517 -0.1441 -0.1416
 7130SOL    HW126075   6.764   3.236   3.852 -1.0985 -0.2884  0.5103
 7130SOL    HW226076   6.811   3.229   3.996  1.7563  0.6808 -0.3108
 7131SOL     OW26077   9.628   0.822   4.970 -0.2830  0.1580 -0.3209
 7131SOL    HW126078   9.543   0.831   4.926 -1.0041 -1.4032  0.6706
 7131SOL    HW226079   9.679   0.765   4.912 -0.3171  0.1817 -0.3741
 7132SOL     OW26080   9.040   0.711  10.931  0.0113  0.3197  0.0146
 7132SOL    HW126081   9.071   0.801  10.932  0.4062  0.1829  0.1028
 7132SOL    HW226082   9.008   0.698  10.841 -0.4213  0.6707  0.1157
 7133SOL     OW26083  10.930   7.070   1.649  0.3835  0.2153  0.5479
 7133SOL    HW126084  11.017   7.029   1.652  0.4521 -0.0161 -2.2821
 7133SOL    HW226085  10.946   7.159   1.619 -0.3660  0.0690 -0.3310
 7134SOL     OW26086  10.075  11.995   5.206  0.0576  0.1647  0.6318
 7134SOL    HW126087  10.159  11.948   5.205  0.8292  1.4885  0.5184
 7134SOL    HW226088  10.063  12.025   5.116 -0.5920 -0.1048  0.6266
 7135SOL     OW26089   2.135  10.083   2.014 -0.2659  0.5746  0.4156
 7135SOL    HW126090   2.149  10.063   1.921 -0.9305 -0.5323  0.5294
 7135SOL    HW226091   2.215  10.053   2.057 -0.2241  0.4889  0.2782
 7136SOL     OW26092   1.969   4.382   0.915  0.0535  0.5782 -0.0271
 7136SOL    HW126093   1.897   4.445   0.909 -0.1289  0.3283 -0.5551
 7136SOL    HW226094   1.937   4.315   0.976  0.7689  1.6519  1.6012
 7137SOL     OW26095   9.448  10.480   2.098  0.0341  0.2625 -0.1617
 7137SOL    HW126096   9.531  10.486   2.050  0.0122 -0.0619 -0.2426
 7137SOL    HW226097   9.459  10.403   2.154  0.4517  1.2346  1.1167
 7138SOL     OW26098   3.613   0.445   6.694 -0.4493 -0.4133  0.4685
 7138SOL    HW126099   3.566   0.434   6.777 -2.3303 -0.0921 -0.4871
 7138SOL    HW226100   3.636   0.357   6.668 -0.7987 -0.6188  0.8246
 7139SOL     OW26101  10.570   2.741   8.241 -0.5914 -0.8187 -0.0722
 7139SOL    HW126102  10.515   2.801   8.190  1.5923 -0.3340 -2.0033
 7139SOL    HW226103  10.609   2.682   8.176  1.2029 -1.0984  1.1770
 7140SOL     OW26104  10.956   6.704   7.200  0.0145  0.4301 -0.3663
 7140SOL    HW126105  10.966   6.773   7.266 -2.2816  1.0833 -0.6245
 7140SOL    HW226106  10.881   6.732   7.148 -0.3830 -1.8066 -1.0697
 7141SOL     OW26107   9.318   2.624   8.989  0.1460 -0.2431 -0.3299
 7141SOL    HW126108   9.370   2.704   8.983  0.0469 -0.2556 -1.6951
 7141SOL    HW226109   9.254   2.642   9.057  0.2593  0.7700 -0.4728
 7142SOL     OW26110   1.793   6.442  10.859  0.2607  0.1205  0.1524
 7142SOL    HW126111   1.750   6.370  10.906  0.8245  0.6280  1.5044
 7142SOL    HW226112   1.754   6.440  10.772 -1.4522 -0.3526  0.8833
 7143SOL     OW26113   5.241   2.489   3.819  0.1257  0.4438 -0.4621
 7143SOL    HW126114   5.258   2.568   3.767 -0.1538  0.7920 -0.0282
 7143SOL    HW226115   5.168   2.447   3.774  0.2590  0.4395 -0.6801
 7144SOL     OW26116   7.372   1.029   5.279 -0.5459  0.3358  0.1711
 7144SOL    HW126117   7.410   1.116   5.293 -0.7462  0.0908  2.8467
 7144SOL    HW226118   7.283   1.036   5.313 -0.1862 -1.1579  1.5631
 7145SOL     OW26119  10.634   1.766   5.734 -0.9297  0.1652 -0.3627
 7145SOL    HW126120  10.595   1.684   5.703  1.3260 -0.9238 -0.5104
 7145SOL    HW226121  10.668   1.745   5.821  0.5839  0.6083 -0.8131
 7146SOL     OW26122  10.597   3.395   4.617 -0.0338 -0.1673 -0.2005
 7146SOL    HW126123  10.681   3.351   4.607 -0.3233 -0.7640 -0.0821
 7146SOL    HW226124  10.549   3.373   4.537 -0.6117 -1.0480  0.3760
 7147SOL     OW26125   1.579   3.622   8.241  0.3330  0.4533  0.0185
 7147SOL    HW126126   1.547   3.704   8.203  1.6943  0.6786 -0.7168
 7147SOL    HW226127   1.635   3.650   8.313  0.5082  0.1539 -0.0019
 7148SOL     OW26128  10.713   2.758   8.934 -0.4306 -0.4641 -0.0785
 7148SOL    HW126129  10.753   2.681   8.893  0.8848  0.4682 -0.6508
 7148SOL    HW226130  10.649   2.789   8.870  0.1733 -0.1844 -0.5608
 7149SOL     OW26131  11.195  10.397   0.594  0.0633 -0.0095 -0.0800
 7149SOL    HW126132  11.282  10.391   0.634 -0.2527  0.2080  0.6636
 7149SOL    HW226133  11.211  10.437   0.509  0.3007  3.9864  1.6405
 7150SOL     OW26134   5.477   5.964   9.159 -0.3266 -0.0982 -0.0908
 7150SOL    HW126135   5.402   5.977   9.218 -0.2148 -0.3817  0.1194
 7150SOL    HW226136   5.548   6.014   9.200  0.0631 -1.2066  0.6369
 7151SOL     OW26137   5.589   2.246   2.258 -0.2979  0.2049  0.5793
 7151SOL    HW126138   5.601   2.158   2.224  0.4052  0.9749 -1.3283
 7151SOL    HW226139   5.663   2.260   2.316 -0.1229 -0.2781  0.4777
 7152SOL     OW26140  10.813   8.879  10.760 -0.2368 -0.0559  0.0752
 7152SOL    HW126141  10.776   8.881  10.672 -0.7234  1.1192  0.2873
 7152SOL    HW226142  10.755   8.934  10.812 -0.2934 -1.2026  1.2814
 7153SOL     OW26143   2.998   0.958   8.628  0.1204  0.0905 -0.3743
 7153SOL    HW126144   2.930   0.944   8.694 -1.0532  1.2724 -1.2808
 7153SOL    HW226145   2.990   1.051   8.604  1.9052  0.1963 -0.6836
 7154SOL     OW26146   0.864   8.945   9.715 -0.2782 -0.1296  0.2867
 7154SOL    HW126147   0.768   8.948   9.712 -0.3012  0.1923  1.0784
 7154SOL    HW226148   0.890   8.909   9.630 -1.0801  0.3256 -0.1600
 7155SOL     OW26149   1.279   7.150  10.738  0.0528 -0.2854 -0.4227
 7155SOL    HW126150   1.265   7.128  10.830  1.5571 -0.6166 -0.2394
 7155SOL    HW226151   1.284   7.246  10.737  2.1533 -0.3147  0.2502
 7156SOL     OW26152   9.447   1.348   0.978 -0.1081 -0.3913  0.2571
 7156SOL    HW126153   9.449   1.418   0.913 -2.3138  0.2601  0.8119
 7156SOL    HW226154   9.356   1.345   1.008 -0.7411 -4.9738 -1.2979
 7157SOL     OW26155   9.224  10.588   4.445 -0.0070  0.9759 -0.0039
 7157SOL    HW126156   9.136  10.627   4.445  0.3645  1.8409  0.5388
 7157SOL    HW226157   9.263  10.616   4.527  0.8126  0.6673 -0.2747
 7158SOL     OW26158   4.270   8.848   8.651  0.8091 -0.7006  0.0707
 7158SOL    HW126159   4.177   8.851   8.628  1.0015  0.1405 -0.6734
 7158SOL    HW226160   4.291   8.937   8.678  1.7093 -0.5268 -1.1266
 7159SOL     OW26161  11.354   4.609   4.994 -0.0639  0.0656  0.1678
 7159SOL    HW126162  11.323   4.662   5.067  1.0543  1.7257 -0.4846
 7159SOL    HW226163  11.302   4.638   4.919 -0.2180 -0.5964  0.0086
 7160SOL     OW26164   4.561   9.614   9.374 -0.0895 -0.3486 -0.7922
 7160SOL    HW126165   4.584   9.532   9.417 -2.2207 -0.0993  1.0098
 7160SOL    HW226166   4.567   9.680   9.444  1.2168  1.0193 -2.1085
 7161SOL     OW26167   0.008   1.051  11.980 -0.2540  0.2370 -0.1583
 7161SOL    HW126168   0.044   1.035  11.893 -0.2901 -0.3802 -0.0647
 7161SOL    HW226169   0.085   1.053  12.038  0.1140  3.5913 -0.5551
 7162SOL     OW26170  10.969  11.546  10.968  0.1825  0.2841 -0.0785
 7162SOL    HW126171  10.945  11.635  10.992  0.8629  0.2012  0.9604
 7162SOL    HW226172  11.012  11.510  11.046  1.7940 -0.2637 -1.1769
 7163SOL     OW26173   7.754   0.830  11.588  0.2017 -0.0508  0.0855
 7163SOL    HW126174   7.704   0.749  11.578 -1.0270  0.7278 -0.3234
 7163SOL    HW226175   7.687   0.899  11.590  1.1527  0.8746  1.4869
 7164SOL     OW26176   9.569  11.152   8.487 -0.1300 -0.3072 -0.7096
 7164SOL    HW126177   9.648  11.205   8.486  0.6916 -1.5280 -1.6145
 7164SOL    HW226178   9.572  11.106   8.572  0.8124 -1.3243 -1.2722
 7165SOL     OW26179   0.762  10.867   3.394 -0.4702 -0.6129 -0.5691
 7165SOL    HW126180   0.714  10.789   3.422  0.5122 -1.1486 -0.3126
 7165SOL    HW226181   0.712  10.940   3.428 -0.4124 -1.1987  0.8291
 7166SOL     OW26182   3.775  10.334   8.823  0.0210  0.0560 -0.1605
 7166SOL    HW126183   3.758  10.241   8.841  1.0331 -0.0178  0.4673
 7166SOL    HW226184   3.798  10.371   8.907  2.1218  0.3139 -0.7921
 7167SOL     OW26185   8.802   8.362   0.594  0.2789  0.0355  0.0540
 7167SOL    HW126186   8.864   8.433   0.585 -0.5411  0.8056  0.3252
 7167SOL    HW226187   8.843   8.288   0.549  0.8673  0.8519 -0.7843
 7168SOL     OW26188   4.213   8.635   1.255 -0.0324 -0.1887  0.1325
 7168SOL    HW126189   4.299   8.625   1.213  0.3556  1.4524  0.4716
 7168SOL    HW226190   4.167   8.699   1.201 -0.3759  0.2399  0.9127
 7169SOL     OW26191   2.847   4.785  11.728  0.4002 -0.0296  0.2369
 7169SOL    HW126192   2.844   4.844  11.654  0.3126  1.5977  1.4817
 7169SOL    HW226193   2.793   4.710  11.701  1.0298  0.1325 -1.6063
 7170SOL     OW26194   9.501   6.504   9.397  0.3972  0.5047  0.0427
 7170SOL    HW126195   9.537   6.449   9.328  1.5186 -0.1926  1.1347
 7170SOL    HW226196   9.433   6.450   9.438  1.9404 -0.4039  1.5373
 7171SOL     OW26197   7.133   6.845   7.622  0.2318  0.3020 -0.0183
 7171SOL    HW126198   7.052   6.795   7.627  0.1921  0.4982  1.9166
 7171SOL    HW226199   7.117   6.923   7.676  1.1429  1.1832 -0.9640
 7172SOL     OW26200   7.030   0.979   1.485 -0.7164 -0.1477 -0.1136
 7172SOL    HW126201   6.966   0.964   1.415  0.2319 -0.6387 -0.9006
 7172SOL    HW226202   7.022   1.072   1.504 -2.5866 -0.4297  0.7499
 7173SOL     OW26203   3.267   5.024  10.398 -0.0263 -0.1411  0.5657
 7173SOL    HW126204   3.325   5.095  10.425 -1.5006  0.8408  1.2999
 7173SOL    HW226205   3.293   4.950  10.452  0.1238  0.4763  1.3657
 7174SOL     OW26206   8.121   9.717   9.058  0.4780  0.2367  0.0009
 7174SOL    HW126207   8.063   9.696   8.984  1.7641 -2.2958 -0.4096
 7174SOL    HW226208   8.082   9.671   9.132  0.7292  0.4253  0.2516
 7175SOL     OW26209   2.662   5.833   7.307  0.0014 -0.7504  0.2587
 7175SOL    HW126210   2.691   5.811   7.395 -1.2409 -0.4269  0.7798
 7175SOL    HW226211   2.647   5.749   7.264 -0.5516 -0.9243  0.7763
 7176SOL     OW26212   0.892   6.095   8.237 -0.0670 -0.0634  0.4116
 7176SOL    HW126213   0.839   6.157   8.288 -1.0486 -0.1576 -0.4565
 7176SOL    HW226214   0.908   6.140   8.154  1.2788 -0.0282  0.6665
 7177SOL     OW26215  11.146   0.170   3.515  0.1657 -0.4088  0.3849
 7177SOL    HW126216  11.122   0.097   3.572 -0.4469  0.0335  0.7118
 7177SOL    HW226217  11.069   0.184   3.460  0.8544 -1.0143 -0.7783
 7178SOL     OW26218   2.315   7.319   0.539 -0.2289  0.1394 -0.2521
 7178SOL    HW126219   2.380   7.389   0.546  0.2978 -0.2615 -1.0277
 7178SOL    HW226220   2.365   7.242   0.512 -1.0109 -0.1943 -0.7814
 7179SOL     OW26221   9.148   1.719  10.190  0.3608 -0.1397 -0.0012
 7179SOL    HW126222   9.244   1.716  10.180  0.1566 -0.5510 -2.7609
 7179SOL    HW226223   9.132   1.692  10.280  2.8412 -0.0816  0.5299
 7180SOL     OW26224   6.007   4.919  11.593  0.0824 -0.1870  0.0200
 7180SOL    HW126225   5.957   4.886  11.666 -0.6082 -1.4933 -1.0087
 7180SOL    HW226226   5.957   4.894  11.515  1.7718 -0.5956 -0.9925
 7181SOL     OW26227  10.885  11.660   0.386  0.2002  0.3331 -0.3534
 7181SOL    HW126228  10.817  11.679   0.450  0.6569 -0.9533  0.5605
 7181SOL    HW226229  10.922  11.745   0.364 -2.1925  1.1818 -1.4903
 7182SOL     OW26230   8.811   9.393  11.345 -0.1420 -0.2344  0.1600
 7182SOL    HW126231   8.833   9.485  11.358 -1.8562  0.2503 -0.2024
 7182SOL    HW226232   8.895   9.347  11.353  0.7730  1.3678  0.1156
 7183SOL     OW26233   3.861   6.290   9.072  0.6542  0.2905  0.3531
 7183SOL    HW126234   3.913   6.288   9.153  0.3450  2.0824  0.6395
 7183SOL    HW226235   3.771   6.302   9.102  0.0978 -2.0843 -0.1748
 7184SOL     OW26236   5.982   4.863   6.084  0.0469  0.2500 -0.3156
 7184SOL    HW126237   6.020   4.875   6.171  1.1124  0.7658 -0.8251
 7184SOL    HW226238   5.888   4.880   6.096  0.5474  3.2147  0.2226
 7185SOL     OW26239   9.676   1.291   3.946  0.5151 -0.6014  0.1323
 7185SOL    HW126240   9.617   1.220   3.922 -1.1747  0.1022  1.8758
 7185SOL    HW226241   9.665   1.300   4.041 -1.1204  3.3723 -0.2232
 7186SOL     OW26242   8.736   7.791   3.773 -0.0192  0.4509 -0.4381
 7186SOL    HW126243   8.827   7.815   3.761 -0.3196  1.1359 -1.4677
 7186SOL    HW226244   8.692   7.873   3.798 -0.3551  0.1283  0.0565
 7187SOL     OW26245  11.939  11.665   9.477 -0.1064 -0.0693  0.0463
 7187SOL    HW126246  11.937  11.633   9.567 -3.4017 -0.0818  0.1042
 7187SOL    HW226247  11.903  11.753   9.482  2.5524  1.1882 -0.9718
 7188SOL     OW26248  10.863   2.451   7.035 -0.0591  0.1872  0.2079
 7188SOL    HW126249  10.886   2.362   7.064  1.7665 -0.3063 -2.4117
 7188SOL    HW226250  10.921   2.508   7.084 -0.2090 -0.1999  0.8469
 7189SOL     OW26251   0.275   4.017  10.935  0.0366  0.1101  0.3040
 7189SOL    HW126252   0.292   4.106  10.905 -1.9465  0.1262 -0.9376
 7189SOL    HW226253   0.220   4.028  11.013  1.3045 -0.0400  1.2617
 7190SOL     OW26254   0.084   0.584  10.600 -0.1514  0.4166  0.6039
 7190SOL    HW126255   0.159   0.563  10.545 -1.2825  0.7166 -1.1167
 7190SOL    HW226256   0.033   0.503  10.604  0.1532  0.2582  1.6353
 7191SOL     OW26257   9.199   8.505   2.577 -0.6843 -0.1029  0.0315
 7191SOL    HW126258   9.225   8.556   2.500  0.6809 -0.4545  0.2236
 7191SOL    HW226259   9.243   8.549   2.650 -1.6467 -0.0062  0.5636
 7192SOL     OW26260   3.665   2.448   0.622 -0.4651  0.1169  0.8439
 7192SOL    HW126261   3.742   2.499   0.648 -0.5201  0.3387  0.5850
 7192SOL    HW226262   3.593   2.511   0.625 -0.4051  0.2514 -0.2108
 7193SOL     OW26263   4.703   7.474   6.100  0.8440  0.2550  0.6478
 7193SOL    HW126264   4.729   7.383   6.087  0.8245  0.5295 -1.7937
 7193SOL    HW226265   4.607   7.472   6.097  0.8377  0.3277  0.7930
 7194SOL     OW26266   7.025   7.220   8.245 -0.6284  0.1080 -0.1721
 7194SOL    HW126267   7.051   7.135   8.211 -0.2487  0.4065 -0.6566
 7194SOL    HW226268   7.098   7.247   8.301 -1.0368 -0.1682  0.4965
 7195SOL     OW26269   7.230   7.703   9.290 -0.0440 -0.0031  0.2822
 7195SOL    HW126270   7.149   7.663   9.322  0.7505 -0.2202  2.1769
 7195SOL    HW226271   7.203   7.790   9.258 -0.9115  0.3107  1.7713
 7196SOL     OW26272   3.082  11.940   8.680 -0.9584 -0.1195  0.0024
 7196SOL    HW126273   3.016  11.871   8.676 -1.0702 -0.0552  0.6077
 7196SOL    HW226274   3.100  11.962   8.588 -0.9954 -0.8742 -0.1873
 7197SOL     OW26275   1.883   7.659   9.094 -0.1197  0.1161 -0.1354
 7197SOL    HW126276   1.813   7.697   9.147  0.7606  0.6723  0.6542
 7197SOL    HW226277   1.962   7.705   9.123  0.5075 -0.1899 -1.3209
 7198SOL     OW26278   9.908  10.457  10.256  0.1312  0.4780  0.8181
 7198SOL    HW126279   9.840  10.403  10.296 -0.8877  1.3080  0.2414
 7198SOL    HW226280   9.908  10.431  10.164 -0.0864  1.1707  0.6187
 7199SOL     OW26281  10.285   2.853   8.480 -0.4756 -0.1871 -0.2249
 7199SOL    HW126282  10.198   2.862   8.442 -0.2700 -0.3653 -0.7474
 7199SOL    HW226283  10.311   2.764   8.458  0.0960  0.0717 -0.6263
 7200SOL     OW26284   0.992   4.993  10.376  0.3773 -0.0902  0.3424
 7200SOL    HW126285   1.019   4.915  10.328  0.1047  0.1028 -0.1273
 7200SOL    HW226286   1.057   5.059  10.352 -0.0904  0.1697 -0.2174
 7201SOL     OW26287  10.237   4.866   5.395  0.0272 -0.2205  0.0504
 7201SOL    HW126288  10.180   4.790   5.381  0.5691 -0.5612 -0.3576
 7201SOL    HW226289  10.197   4.937   5.345 -0.8418 -0.0492  0.9546
 7202SOL     OW26290  11.547   8.870  10.554 -0.0107  0.7040 -0.6468
 7202SOL    HW126291  11.577   8.910  10.635  1.8022  1.9299 -1.8305
 7202SOL    HW226292  11.589   8.784  10.552  0.4400  0.9168 -0.5563
 7203SOL     OW26293  10.653   5.526   4.861 -0.2491  0.0579 -0.3169
 7203SOL    HW126294  10.629   5.605   4.910 -1.1231  0.3468 -1.1554
 7203SOL    HW226295  10.588   5.522   4.791 -0.1422 -1.3527 -0.3594
 7204SOL     OW26296   4.285  10.105   6.040  0.2102  0.5474  0.3576
 7204SOL    HW126297   4.198  10.099   6.079  1.1284  1.0424  2.6486
 7204SOL    HW226298   4.277  10.174   5.974 -1.3869 -0.2050 -0.2829
 7205SOL     OW26299   2.443   4.003   7.608 -0.5869  0.0308 -0.3085
 7205SOL    HW126300   2.524   4.040   7.642  0.4412 -1.5441 -0.9004
 7205SOL    HW226301   2.374   4.049   7.654  0.6857  0.1941  1.5386
 7206SOL     OW26302  11.324   0.414   2.496 -0.0063 -0.2742  0.1726
 7206SOL    HW126303  11.378   0.399   2.419  0.8076 -1.0185  0.8724
 7206SOL    HW226304  11.339   0.338   2.552 -3.3855 -1.5773 -0.4678
 7207SOL     OW26305   8.896  11.962   7.252  0.2425  0.3995  0.5975
 7207SOL    HW126306   8.985  11.957   7.217 -0.0440 -1.2650  0.0084
 7207SOL    HW226307   8.880  11.876   7.289 -1.4423  0.3454 -0.1553
 7208SOL     OW26308   5.829   8.678  11.735 -0.3845  0.4530  0.1153
 7208SOL    HW126309   5.798   8.768  11.723  1.3603  1.0277 -0.4594
 7208SOL    HW226310   5.793   8.630  11.660 -0.2781  0.9839 -0.2830
 7209SOL     OW26311   7.836   9.345   3.852  0.5788 -0.2556  0.1638
 7209SOL    HW126312   7.748   9.310   3.844  1.0207 -1.1866 -0.8788
 7209SOL    HW226313   7.867   9.314   3.937 -0.2212  0.4084  0.7154
 7210SOL     OW26314   7.068   9.418  10.866 -0.1284  0.3542 -0.6734
 7210SOL    HW126315   7.093   9.492  10.922  2.4048 -1.4972  0.8822
 7210SOL    HW226316   7.138   9.414  10.800  1.8318 -2.6144  1.3737
 7211SOL     OW26317   4.385   4.631   4.259  0.2379  0.0688  0.4770
 7211SOL    HW126318   4.424   4.718   4.271 -1.0151  0.8135 -0.5751
 7211SOL    HW226319   4.386   4.617   4.165 -0.5138 -0.6078  0.5552
 7212SOL     OW26320   3.828   8.085   3.436  0.0049 -0.0928 -0.6804
 7212SOL    HW126321   3.755   8.136   3.471 -0.8935 -1.0336 -1.1289
 7212SOL    HW226322   3.793   7.997   3.428  1.0774 -0.4738 -1.2791
 7213SOL     OW26323   8.594   9.793   2.194  0.3183 -0.4889  0.4446
 7213SOL    HW126324   8.655   9.824   2.261 -0.1469  0.3115  0.5042
 7213SOL    HW226325   8.561   9.873   2.152  0.0336 -0.9500 -0.2363
 7214SOL     OW26326   7.129   2.241   6.520  0.3154 -0.3489 -0.0087
 7214SOL    HW126327   7.178   2.216   6.599  0.7735 -1.1736 -0.5441
 7214SOL    HW226328   7.102   2.158   6.481 -2.0713  0.0703  0.5913
 7215SOL     OW26329   3.646   3.624   9.903 -0.3492  0.3047 -0.2301
 7215SOL    HW126330   3.631   3.718   9.917  0.1837 -0.1149  5.1511
 7215SOL    HW226331   3.560   3.590   9.878 -1.1218  1.9003  0.0997
 7216SOL     OW26332   0.005   0.053   2.403  0.0903 -0.2739 -0.0004
 7216SOL    HW126333   0.077   0.077   2.461 -1.0393  2.3970  0.4324
 7216SOL    HW226334   0.045   0.042   2.317  1.1306  0.2606  0.4055
 7217SOL     OW26335   1.931  10.153  11.696  0.4348 -0.1353  0.0025
 7217SOL    HW126336   1.881  10.234  11.701 -1.3857 -1.1306 -1.1460
 7217SOL    HW226337   1.959  10.136  11.786  1.7671  2.2437  0.1309
 7218SOL     OW26338   8.744   5.309   9.473 -0.3083 -0.4480  0.1970
 7218SOL    HW126339   8.777   5.359   9.548 -0.6664  1.1456 -0.6580
 7218SOL    HW226340   8.655   5.340   9.461  0.7004  1.7559 -2.7866
 7219SOL     OW26341   0.864   7.159   7.255  0.1303 -0.4211 -0.1220
 7219SOL    HW126342   0.908   7.215   7.191 -0.9207  1.2476  0.5700
 7219SOL    HW226343   0.772   7.163   7.231 -0.0389 -1.3538  0.3400
 7220SOL     OW26344   7.586   4.088   9.078  0.3022 -0.2443  0.3125
 7220SOL    HW126345   7.574   3.993   9.078  1.1603 -0.3922  2.2543
 7220SOL    HW226346   7.681   4.100   9.069  0.0964  0.4951 -1.1556
 7221SOL     OW26347   0.674   2.476   5.016 -0.3793  0.0290 -0.5135
 7221SOL    HW126348   0.624   2.410   5.064  1.1022  1.0710  2.8045
 7221SOL    HW226349   0.733   2.425   4.960 -0.3477 -1.4246  0.7749
 7222SOL     OW26350   3.916   9.288   4.209 -0.2243  0.4121  0.0647
 7222SOL    HW126351   3.975   9.255   4.277 -0.1697  1.6608  0.6675
 7222SOL    HW226352   3.937   9.238   4.131  1.1802  0.3822  0.4408
 7223SOL     OW26353   8.572   3.108   7.581  0.1767 -0.3053 -1.0087
 7223SOL    HW126354   8.532   3.188   7.547 -1.7918 -1.1424 -0.8416
 7223SOL    HW226355   8.514   3.038   7.550  1.7314 -1.6599 -0.9993
 7224SOL     OW26356   1.004   2.518   2.912  0.1361  0.2381 -0.3855
 7224SOL    HW126357   1.069   2.525   2.842 -1.1934  0.8284 -1.6085
 7224SOL    HW226358   0.946   2.448   2.884  1.4479 -1.8600  1.7855
 7225SOL     OW26359   2.312   6.638   9.565  0.2184 -0.1297  0.2279
 7225SOL    HW126360   2.336   6.712   9.619  0.3679 -0.6739  0.9146
 7225SOL    HW226361   2.293   6.567   9.627 -0.5879 -0.4707 -0.3872
 7226SOL     OW26362   2.272   1.920   0.300 -0.4347  0.1205 -0.1162
 7226SOL    HW126363   2.316   1.918   0.215 -0.0664 -1.7504  0.0702
 7226SOL    HW226364   2.196   1.862   0.289 -1.9306  1.9535  0.0712
 7227SOL     OW26365   1.488   0.549  10.145 -0.0291  0.7092 -0.6001
 7227SOL    HW126366   1.454   0.593  10.067 -0.9141 -0.7272 -1.0741
 7227SOL    HW226367   1.412   0.502  10.180  0.7987 -0.1720  0.0543
 7228SOL     OW26368   8.428   5.892   2.407 -0.4927 -0.6765  0.5304
 7228SOL    HW126369   8.439   5.821   2.345  1.0824 -0.0982  0.1109
 7228SOL    HW226370   8.497   5.879   2.472  1.4145  1.7122 -0.8289
 7229SOL     OW26371  10.244   0.250   8.769 -0.0082 -0.3624  0.1020
 7229SOL    HW126372  10.303   0.175   8.779  0.4193 -0.1388 -0.6665
 7229SOL    HW226373  10.171   0.231   8.828  1.3433 -0.1136  1.9322
 7230SOL     OW26374   0.944   8.544   7.044  0.2534 -0.1021  0.1512
 7230SOL    HW126375   0.927   8.450   7.046  0.6061 -0.2054  3.0041
 7230SOL    HW226376   0.859   8.584   7.027 -0.1682 -0.9124  0.3335
 7231SOL     OW26377   7.438   3.458   5.784 -0.0129  0.0103  0.7639
 7231SOL    HW126378   7.498   3.530   5.768 -0.1076  0.0651  0.6622
 7231SOL    HW226379   7.466   3.422   5.869  2.1758 -1.9355 -0.6682
 7232SOL     OW26380   8.789   6.652   6.723 -0.3211  0.5708  0.2080
 7232SOL    HW126381   8.862   6.707   6.750 -0.2506  0.7269 -0.2906
 7232SOL    HW226382   8.760   6.689   6.640 -1.0965  0.6267  0.4954
 7233SOL     OW26383   5.765   2.406   4.782 -0.1607 -0.1346  0.0738
 7233SOL    HW126384   5.695   2.340   4.792  0.2660 -0.5234  0.5385
 7233SOL    HW226385   5.784   2.435   4.871 -0.1050  0.3669 -0.1017
 7234SOL     OW26386  10.303   9.213  11.727 -0.4631  0.0486 -0.0950
 7234SOL    HW126387  10.290   9.224  11.821  0.9455  0.0657  0.1093
 7234SOL    HW226388  10.299   9.302  11.692 -0.6279  0.0782 -0.0012
 7235SOL     OW26389   0.907   0.934   2.854 -0.0790  0.6385 -0.1076
 7235SOL    HW126390   0.859   0.894   2.926 -0.2665  0.3302 -0.3979
 7235SOL    HW226391   0.969   0.994   2.896  1.2525 -1.0353  0.4271
 7236SOL     OW26392   0.791   6.377   7.541 -0.3430  0.1323 -0.4336
 7236SOL    HW126393   0.775   6.471   7.540 -0.2143  0.1538 -0.5400
 7236SOL    HW226394   0.867   6.367   7.599 -1.1738 -0.0377  0.6548
 7237SOL     OW26395   3.050  11.701  10.410 -0.5136  0.9025  0.1445
 7237SOL    HW126396   3.108  11.776  10.420 -0.7657  1.2401 -0.8639
 7237SOL    HW226397   3.109  11.627  10.399 -0.2357  1.3488 -1.6690
 7238SOL     OW26398   4.691  10.795   1.158 -0.1276  0.2289  0.2320
 7238SOL    HW126399   4.742  10.768   1.234  1.9639 -0.3223 -1.2695
 7238SOL    HW226400   4.701  10.890   1.154 -2.8656  0.7585  2.3187
 7239SOL     OW26401   8.431   3.647   1.599  0.3270  0.1938  0.4168
 7239SOL    HW126402   8.344   3.617   1.625  0.5901 -0.5588  0.4410
 7239SOL    HW226403   8.478   3.568   1.574  0.5329  0.7414 -1.0516
 7240SOL     OW26404  10.785  10.390  11.482  0.0574  0.3236 -0.1386
 7240SOL    HW126405  10.753  10.311  11.437  2.2876  0.1363 -1.5468
 7240SOL    HW226406  10.797  10.362  11.573  1.1510 -1.1317 -0.6777
 7241SOL     OW26407   0.804   6.979   5.564  0.3234  0.5381 -0.0218
 7241SOL    HW126408   0.734   7.019   5.513 -2.3262 -0.4930  2.5119
 7241SOL    HW226409   0.834   7.048   5.623  1.3257  0.8896 -0.8978
 7242SOL     OW26410  10.398   1.074   3.959  0.5363  0.2902  0.3079
 7242SOL    HW126411  10.411   1.139   3.889  0.3888 -0.2288 -0.2075
 7242SOL    HW226412  10.378   0.993   3.913  0.0381  0.0308  0.9692
 7243SOL     OW26413   0.005  10.932   3.643  0.3070 -0.7814  0.3513
 7243SOL    HW126414   0.003  10.985   3.722  0.4349  0.2646 -0.3224
 7243SOL    HW226415  -0.081  10.947   3.602  1.6701  2.1496 -1.8476
 7244SOL     OW26416   6.376   0.979   5.650 -0.3277  0.9521  0.7596
 7244SOL    HW126417   6.374   0.887   5.675 -0.8873  1.2428  1.8142
 7244SOL    HW226418   6.373   0.978   5.554 -0.2005 -0.1233  0.7616
 7245SOL     OW26419  11.259   6.769   9.913 -0.1800  0.2619 -0.2441
 7245SOL    HW126420  11.329   6.764   9.978 -0.4126  0.9657  0.0681
 7245SOL    HW226421  11.179   6.746   9.961  0.1004 -3.1057 -1.1481
 7246SOL     OW26422  11.216   1.140   3.636 -0.0188  0.5812 -0.3388
 7246SOL    HW126423  11.251   1.202   3.572 -0.5256  1.8096  0.5344
 7246SOL    HW226424  11.198   1.194   3.714 -0.6251 -0.6393  0.3878
 7247SOL     OW26425  10.883   9.235   2.293  0.0185 -0.0237 -0.5407
 7247SOL    HW126426  10.970   9.264   2.266 -0.3773  1.7304 -0.0517
 7247SOL    HW226427  10.897   9.189   2.376  0.4325  0.5927 -0.2677
 7248SOL     OW26428   9.834   2.961  11.899  0.5373 -0.7499  0.3592
 7248SOL    HW126429   9.876   2.995  11.977  1.5478 -1.2851  0.0631
 7248SOL    HW226430   9.778   2.890  11.931 -0.5006  0.2455  0.8050
 7249SOL     OW26431   1.060   2.329  11.660 -0.8292 -0.1908 -0.2615
 7249SOL    HW126432   0.991   2.262  11.665 -0.2591 -1.0012 -2.3231
 7249SOL    HW226433   1.084   2.345  11.751 -0.7775 -3.0351  0.3212
 7250SOL     OW26434   9.841   6.629  11.531  0.0490  0.0324  0.3755
 7250SOL    HW126435   9.775   6.560  11.532 -1.0217  0.9402 -1.7094
 7250SOL    HW226436   9.867   6.639  11.622  0.5489 -3.3756  0.7158
 7251SOL     OW26437   6.049   9.314   0.982 -0.3181  0.3163  0.1092
 7251SOL    HW126438   6.105   9.332   1.058 -0.2953  0.5497  0.0383
 7251SOL    HW226439   5.963   9.294   1.020 -0.2005  0.0151  0.2151
 7252SOL     OW26440   0.182   0.661   7.611  0.1639  0.7696  0.1518
 7252SOL    HW126441   0.249   0.727   7.624  1.3996 -0.5313  0.5826
 7252SOL    HW226442   0.166   0.625   7.698 -0.9089  0.8690  0.0114
 7253SOL     OW26443  11.276   0.529   9.082 -0.2906 -0.3502 -0.8108
 7253SOL    HW126444  11.245   0.612   9.120  2.0309  1.0530 -1.7576
 7253SOL    HW226445  11.323   0.487   9.153 -1.0412 -0.6526 -0.4751
 7254SOL     OW26446   8.073   9.727  11.298 -0.3634  0.1007 -0.3602
 7254SOL    HW126447   7.998   9.682  11.260 -0.2921 -0.8138  0.5378
 7254SOL    HW226448   8.136   9.734  11.226  0.7233 -3.6629  0.0000
 7255SOL     OW26449  11.862   0.475   4.628  0.0545  0.1847 -0.1731
 7255SOL    HW126450  11.925   0.530   4.582 -0.7724  0.2299 -1.2953
 7255SOL    HW226451  11.891   0.385   4.610  1.9477  0.1541  2.4192
 7256SOL     OW26452   7.542   3.121   8.797  0.2425 -0.1462  0.2729
 7256SOL    HW126453   7.507   3.119   8.887 -0.3275 -1.3821  0.0449
 7256SOL    HW226454   7.475   3.077   8.745  0.4749  0.7469 -0.8183
 7257SOL     OW26455   6.760  10.329   6.981 -0.3776 -0.2958 -0.3139
 7257SOL    HW126456   6.680  10.285   7.009  0.5537 -0.7674  1.8172
 7257SOL    HW226457   6.745  10.421   7.000 -1.4144  0.0668 -2.5452
 7258SOL     OW26458  11.686   6.782  10.650 -0.2270  0.1088 -0.2883
 7258SOL    HW126459  11.660   6.731  10.573 -1.3538  0.1170  0.0666
 7258SOL    HW226460  11.764   6.830  10.622 -2.4123  2.7189 -2.6058
 7259SOL     OW26461   4.426   0.482   5.825  0.5247  0.1819  0.0196
 7259SOL    HW126462   4.514   0.487   5.787  0.5709 -1.8103 -0.2767
 7259SOL    HW226463   4.436   0.421   5.899 -0.3718  0.8861  0.7367
 7260SOL     OW26464   3.089   4.184   5.106  0.0273  0.4456  0.1961
 7260SOL    HW126465   3.039   4.141   5.037  0.5850  1.2837 -0.7537
 7260SOL    HW226466   3.124   4.263   5.065  1.8968  0.0339  0.9050
 7261SOL     OW26467   9.616   3.345   2.926 -0.0293 -0.3641 -0.2236
 7261SOL    HW126468   9.570   3.266   2.954 -2.5865  0.6252 -1.3279
 7261SOL    HW226469   9.698   3.312   2.888 -1.2138 -2.5796 -1.0978
 7262SOL     OW26470  10.098   9.853   0.932 -0.1169 -0.3032 -0.0699
 7262SOL    HW126471  10.025   9.796   0.958 -0.8067  0.3413 -0.5664
 7262SOL    HW226472  10.170   9.792   0.913 -0.7502 -0.9974 -0.3084
 7263SOL     OW26473   5.079   2.856   6.181  0.1601  0.1774 -0.0981
 7263SOL    HW126474   5.105   2.764   6.188  2.1807  0.6246 -0.9198
 7263SOL    HW226475   5.046   2.879   6.268 -3.6925 -2.1670 -0.7453
 7264SOL     OW26476   4.131   3.867   4.434  0.1369 -0.0450  0.4036
 7264SOL    HW126477   4.103   3.793   4.488 -0.6746 -0.0133  0.0375
 7264SOL    HW226478   4.220   3.886   4.464 -0.0818 -0.4072  1.3205
 7265SOL     OW26479   2.740  11.472   3.525 -0.8158 -0.3635  0.2895
 7265SOL    HW126480   2.777  11.553   3.490  0.3668 -0.6950  0.7231
 7265SOL    HW226481   2.748  11.481   3.620 -1.8233 -0.4804  0.4031
 7266SOL     OW26482   0.934   8.167   4.038  0.3909  0.3162 -0.0554
 7266SOL    HW126483   0.989   8.108   3.985  0.2030 -0.7953  0.9403
 7266SOL    HW226484   0.959   8.147   4.128 -1.9517 -0.5410  0.4505
 7267SOL     OW26485   5.721   0.558   3.943  0.3579  0.5721  0.5455
 7267SOL    HW126486   5.690   0.486   3.888  0.4883  0.6152  0.4144
 7267SOL    HW226487   5.671   0.550   4.024  0.0030  0.6356  0.3394
 7268SOL     OW26488  11.118   9.441   8.514 -0.2722 -0.0603  0.0851
 7268SOL    HW126489  11.119   9.352   8.479 -0.9511  0.0844 -0.3107
 7268SOL    HW226490  11.156   9.495   8.445 -1.6823  0.2364 -0.4897
 7269SOL     OW26491   0.037   0.550   7.835 -0.1409  0.5046 -0.0787
 7269SOL    HW126492   0.026   0.492   7.759  0.9897 -0.9667  0.8372
 7269SOL    HW226493  -0.052   0.561   7.869 -0.4930  0.1016 -0.8272
 7270SOL     OW26494   4.279   2.367   2.833  0.7054  0.0626  0.3946
 7270SOL    HW126495   4.318   2.308   2.769  2.2407 -0.3646  1.6609
 7270SOL    HW226496   4.195   2.326   2.854  0.4191 -0.0713 -0.9138
 7271SOL     OW26497   3.454   5.104   6.762  0.2072 -0.5441 -0.3024
 7271SOL    HW126498   3.409   5.030   6.804 -1.2983  0.2148 -0.5264
 7271SOL    HW226499   3.404   5.181   6.789  0.9917  0.2694 -1.1092
 7272SOL     OW26500   5.667   9.501  10.006  0.1720  0.5825  0.2262
 7272SOL    HW126501   5.754   9.523  10.041  0.2295  0.2077  0.3170
 7272SOL    HW226502   5.614   9.482  10.083  0.8586 -2.3855  0.1028
 7273SOL     OW26503   2.247   6.303   9.972 -0.0976  0.2152 -0.1443
 7273SOL    HW126504   2.313   6.234   9.967  1.7490  1.8681  0.3396
 7273SOL    HW226505   2.296   6.383   9.991 -2.1049  1.7828 -1.1312
 7274SOL     OW26506   3.473   0.879   6.158 -0.0800 -0.1897  0.0850
 7274SOL    HW126507   3.390   0.831   6.160 -0.5078  0.5177 -0.0939
 7274SOL    HW226508   3.524   0.836   6.090 -0.2292 -0.7419  0.3145
 7275SOL     OW26509   2.625  11.858   4.701  0.0680  0.3690 -0.2371
 7275SOL    HW126510   2.631  11.763   4.707  1.1089  0.4947  1.1150
 7275SOL    HW226511   2.560  11.883   4.767 -0.1262  0.6153 -0.5165
 7276SOL     OW26512   4.434   7.251   0.799 -0.1289 -0.1785  0.4676
 7276SOL    HW126513   4.413   7.180   0.860  0.6680 -0.9578 -0.1446
 7276SOL    HW226514   4.479   7.316   0.852  0.8183 -0.9789  0.6708
 7277SOL     OW26515   5.065  10.957   8.087  0.0800  0.0947  0.3162
 7277SOL    HW126516   5.015  10.962   8.006 -1.4659  1.9025  1.2926
 7277SOL    HW226517   5.019  11.016   8.147  2.0151 -0.0457  2.0494
 7278SOL     OW26518   2.883   3.712   9.414  0.7001  0.0684  0.2221
 7278SOL    HW126519   2.878   3.720   9.510 -0.2899 -1.8794  0.3785
 7278SOL    HW226520   2.963   3.760   9.391  1.0648  0.4338  2.0370
 7279SOL     OW26521   5.591   1.094   5.944 -0.2637 -0.1389  0.0686
 7279SOL    HW126522   5.666   1.151   5.964 -0.7678  0.4018  0.4498
 7279SOL    HW226523   5.566   1.057   6.028 -1.3976  0.9028  0.2163
 7280SOL     OW26524   7.438   9.663   3.146  0.4102 -0.0099 -0.4444
 7280SOL    HW126525   7.486   9.743   3.130  0.2615 -0.1957 -1.9228
 7280SOL    HW226526   7.503   9.603   3.183  1.1148  0.0484 -1.5334
 7281SOL     OW26527   4.005   2.588  11.058 -0.1168  0.1223  0.3654
 7281SOL    HW126528   4.042   2.598  11.145  0.6581  1.0719 -0.0454
 7281SOL    HW226529   3.968   2.499  11.057  1.0285 -0.3904  1.2187
 7282SOL     OW26530  10.788   9.663   9.060 -0.5929 -0.4878  0.1866
 7282SOL    HW126531  10.832   9.708   8.987 -2.3582  0.3282 -0.4357
 7282SOL    HW226532  10.759   9.580   9.023  0.8791 -1.2840  0.7612
 7283SOL     OW26533   7.884   0.861   6.995 -0.4410  0.1457 -0.1474
 7283SOL    HW126534   7.898   0.804   6.919 -1.1119 -1.7800  1.0903
 7283SOL    HW226535   7.969   0.903   7.010  0.2019 -0.8615 -0.8518
 7284SOL     OW26536  10.401   3.124   7.900 -0.0306 -0.5029  0.5237
 7284SOL    HW126537  10.473   3.157   7.846 -0.1302  1.0569  1.2997
 7284SOL    HW226538  10.347   3.201   7.918 -1.4780 -1.4920  0.6263
 7285SOL     OW26539   8.863   5.262   1.987  0.1307 -0.0069  0.4555
 7285SOL    HW126540   8.895   5.352   1.975  0.7549 -0.4232 -1.4336
 7285SOL    HW226541   8.778   5.272   2.029  0.3221  1.4520  0.5563
 7286SOL     OW26542  10.433   1.767   9.847  0.3659 -0.4821 -0.2802
 7286SOL    HW126543  10.419   1.765   9.752 -0.0457  0.8555 -0.2683
 7286SOL    HW226544  10.518   1.811   9.857 -0.9028  2.0507  0.0316
 7287SOL     OW26545   5.495   4.213   4.754  0.3241 -0.4523  0.1521
 7287SOL    HW126546   5.566   4.220   4.690  0.5535  0.3778  0.4888
 7287SOL    HW226547   5.536   4.230   4.838 -0.4176  0.9094  0.2593
 7288SOL     OW26548   3.045   2.313   3.639  0.4069  0.1679  0.7705
 7288SOL    HW126549   3.052   2.333   3.546 -1.5465 -1.5779  0.1538
 7288SOL    HW226550   2.951   2.311   3.656  0.7099 -0.1918  2.6348
 7289SOL     OW26551   0.126   7.500   8.936  0.0409  0.2331  0.2134
 7289SOL    HW126552   0.108   7.594   8.932 -0.6734  0.3236  3.2720
 7289SOL    HW226553   0.216   7.492   8.905 -0.6384  1.5592 -2.3399
 7290SOL     OW26554   3.267   7.183   6.323  0.2097  0.0123  0.0503
 7290SOL    HW126555   3.297   7.113   6.264 -0.6767  1.4780 -2.2646
 7290SOL    HW226556   3.173   7.171   6.329  0.0658  0.9496 -0.2839
 7291SOL     OW26557   5.081   6.009  10.498  0.3005  0.4239 -0.3601
 7291SOL    HW126558   5.007   6.066  10.517 -0.0625 -1.1551  4.0921
 7291SOL    HW226559   5.154   6.046  10.549  1.2182 -0.7195 -0.7870
 7292SOL     OW26560  10.290  11.140   5.983  0.1532  0.1509 -0.3012
 7292SOL    HW126561  10.237  11.106   5.910 -0.4453  0.4078  0.0017
 7292SOL    HW226562  10.349  11.202   5.942  0.6954 -0.6324 -0.7449
 7293SOL     OW26563   7.634   4.303  11.076 -0.3435  0.0385 -0.7660
 7293SOL    HW126564   7.725   4.316  11.102  0.5952 -1.1866 -3.0782
 7293SOL    HW226565   7.617   4.211  11.094 -1.5707  0.5400  0.7740
 7294SOL     OW26566   2.619   7.252   1.131  0.4965  0.6106 -0.0309
 7294SOL    HW126567   2.603   7.168   1.174 -0.5460 -0.0831 -1.7049
 7294SOL    HW226568   2.539   7.302   1.145  0.6463  0.8681 -0.0850
 7295SOL     OW26569   5.624   1.144   9.824  0.6256  0.2382  0.6437
 7295SOL    HW126570   5.689   1.209   9.800  2.0498 -1.2340  0.3021
 7295SOL    HW226571   5.667   1.091   9.891 -0.3443 -0.5579  0.6592
 7296SOL     OW26572   3.576  11.216   2.101  0.2551  0.6354 -0.2259
 7296SOL    HW126573   3.647  11.158   2.074  2.5064  2.2388  1.8365
 7296SOL    HW226574   3.528  11.166   2.168 -0.9605 -0.6233 -1.9435
 7297SOL     OW26575   3.752   6.424   1.940  0.6509  0.0873 -0.1411
 7297SOL    HW126576   3.798   6.392   2.017  2.1880 -0.5525 -1.2668
 7297SOL    HW226577   3.794   6.508   1.921  1.1040 -0.3046 -0.9361
 7298SOL     OW26578  11.885   2.696   5.895  0.2123 -0.0324  0.8286
 7298SOL    HW126579  11.867   2.692   5.989  0.4019  1.1054  0.9301
 7298SOL    HW226580  11.977   2.671   5.888 -0.0595 -1.0726  0.8300
 7299SOL     OW26581   2.849  10.718   8.431 -0.0276 -0.3854 -0.1851
 7299SOL    HW126582   2.933  10.693   8.469  0.4244 -0.5063 -1.2121
 7299SOL    HW226583   2.785  10.665   8.478  0.5379 -0.7676  0.1784
 7300SOL     OW26584   0.548   9.764   2.185  0.1849  0.7326  0.5624
 7300SOL    HW126585   0.453   9.753   2.184 -0.2072  3.3671  1.6370
 7300SOL    HW226586   0.582   9.678   2.161 -2.4538 -0.2295 -0.0757
 7301SOL     OW26587  11.384  11.973   2.267  0.0527  0.0119  0.5852
 7301SOL    HW126588  11.295  12.002   2.250  0.3372  2.1043  2.2333
 7301SOL    HW226589  11.407  11.919   2.192 -1.8357  1.2062 -0.9374
 7302SOL     OW26590   9.270   9.375  10.582  0.0395  0.2121  0.5368
 7302SOL    HW126591   9.278   9.289  10.622 -0.7763  0.7370  1.8939
 7302SOL    HW226592   9.301   9.363  10.492 -1.3665 -1.8178  0.2597
 7303SOL     OW26593   9.819   0.844  10.351 -0.4208  0.3472  0.4856
 7303SOL    HW126594   9.895   0.806  10.308 -0.4394  0.4244  0.3873
 7303SOL    HW226595   9.745   0.825  10.293 -0.6352 -0.5438  1.0235
 7304SOL     OW26596  11.237   8.701   6.354 -0.0822  0.4573 -0.4112
 7304SOL    HW126597  11.327   8.684   6.324 -0.0410  0.2285 -0.1613
 7304SOL    HW226598  11.221   8.792   6.329 -0.2507  0.1099 -1.6310
 7305SOL     OW26599   9.498  10.539   7.471 -0.1533 -0.2988 -0.2870
 7305SOL    HW126600   9.551  10.463   7.447 -0.1089 -0.6058  0.7301
 7305SOL    HW226601   9.543  10.577   7.546 -0.0132  0.9294 -0.9592
 7306SOL     OW26602   0.083   9.875   4.465 -0.2092 -0.1740 -0.2404
 7306SOL    HW126603   0.138   9.857   4.542 -1.9457  0.7083  1.2995
 7306SOL    HW226604   0.054   9.789   4.435 -1.9243 -0.4865  2.0247
 7307SOL     OW26605   5.542   1.813   2.628 -0.3352  0.2094 -0.4014
 7307SOL    HW126606   5.504   1.834   2.543 -0.3813 -1.9952 -0.9835
 7307SOL    HW226607   5.600   1.739   2.610  1.9559  1.5719  0.9909
 7308SOL     OW26608   0.559   5.028   1.716  0.2553 -0.6814  1.0304
 7308SOL    HW126609   0.648   5.016   1.750  0.7418  0.7051  0.3287
 7308SOL    HW226610   0.514   5.076   1.786  0.8913  1.0517  0.3107
 7309SOL     OW26611   6.013   9.757   0.833 -0.5150  0.4075  0.5783
 7309SOL    HW126612   6.033   9.794   0.919  1.8386  0.6133  0.0402
 7309SOL    HW226613   6.037   9.827   0.772  0.9775 -0.8471 -0.3326
 7310SOL     OW26614   2.267  11.202   5.954 -0.1472  0.0655 -0.5923
 7310SOL    HW126615   2.288  11.237   6.040  0.6251  1.9414 -1.4887
 7310SOL    HW226616   2.291  11.109   5.959  1.5066  0.5169  0.6900
 7311SOL     OW26617   5.402   4.435  10.297  0.1389  0.2571  0.2608
 7311SOL    HW126618   5.422   4.466  10.209  0.7066 -0.5399  0.0979
 7311SOL    HW226619   5.344   4.501  10.333  0.7925  1.1575 -0.3063
 7312SOL     OW26620   8.707   1.509   0.402 -0.3832 -0.0983  0.2961
 7312SOL    HW126621   8.735   1.502   0.310 -1.8861 -1.0788 -0.1301
 7312SOL    HW226622   8.612   1.501   0.398 -0.5348  0.5933  1.8968
 7313SOL     OW26623   1.813  10.487   5.092  0.3825  0.0596  0.4749
 7313SOL    HW126624   1.877  10.448   5.032  1.4786  1.1860  0.8840
 7313SOL    HW226625   1.865  10.524   5.163 -0.7022  1.1668  0.7253
 7314SOL     OW26626   5.840   8.831   2.415 -0.2361  0.1939 -0.1914
 7314SOL    HW126627   5.902   8.826   2.343 -1.8476 -1.3858 -1.5703
 7314SOL    HW226628   5.791   8.912   2.399 -0.1170  0.2062 -0.4948
 7315SOL     OW26629   2.071   4.893  11.694  0.5246  0.1111  0.3378
 7315SOL    HW126630   2.110   4.981  11.693  1.3623 -0.2391 -1.0239
 7315SOL    HW226631   2.112   4.850  11.769  0.3676  0.7656  0.8071
 7316SOL     OW26632   4.044   6.033   7.038  0.0008 -0.1858 -0.7445
 7316SOL    HW126633   4.113   6.063   6.979  0.4579  0.0620 -0.0988
 7316SOL    HW226634   4.089   5.974   7.100  0.0464  1.4034  0.8267
 7317SOL     OW26635   2.700   9.664   4.075 -0.0526  0.1024 -0.4108
 7317SOL    HW126636   2.766   9.596   4.087 -0.1754 -0.2168 -1.4321
 7317SOL    HW226637   2.654   9.668   4.159 -0.7439 -1.8430 -0.6211
 7318SOL     OW26638  11.387  10.887   9.902 -0.1247 -0.0878 -0.2963
 7318SOL    HW126639  11.445  10.856   9.973  1.1783  2.7504  0.0361
 7318SOL    HW226640  11.429  10.856   9.822  1.0616  0.5894  0.0237
 7319SOL     OW26641   4.858   0.092   9.231 -0.2860 -0.0440 -0.0514
 7319SOL    HW126642   4.816   0.131   9.155 -1.0732  0.3454  0.5687
 7319SOL    HW226643   4.866  -0.001   9.209  0.8827  0.3039 -1.2098
 7320SOL     OW26644   9.222   7.244   8.596 -0.4531  0.5384  0.0381
 7320SOL    HW126645   9.264   7.158   8.600 -0.4343  0.5780  0.9780
 7320SOL    HW226646   9.259   7.285   8.518 -0.0083 -0.0724 -0.0823
 7321SOL     OW26647   7.657   7.629   3.662 -0.0284 -0.4024  0.0642
 7321SOL    HW126648   7.744   7.661   3.689 -0.7513  0.2260  1.8169
 7321SOL    HW226649   7.644   7.665   3.574  1.3007 -0.1615 -0.0539
 7322SOL     OW26650   9.653   2.079   3.227 -0.0703  0.3529  0.4110
 7322SOL    HW126651   9.616   1.990   3.230  2.3783 -0.7037  1.3317
 7322SOL    HW226652   9.735   2.069   3.179  0.5588  2.0013  1.0987
 7323SOL     OW26653   2.502   7.651   1.921  0.0909 -0.3066 -0.1152
 7323SOL    HW126654   2.552   7.721   1.962  0.7256 -0.9411  0.2109
 7323SOL    HW226655   2.543   7.639   1.835  0.1098 -0.4120 -0.0917
 7324SOL     OW26656   4.639  10.792   6.638  0.2720 -0.1586  0.8380
 7324SOL    HW126657   4.727  10.760   6.655 -0.3046 -1.7927  0.8446
 7324SOL    HW226658   4.652  10.864   6.576  1.5446 -0.8527  0.2625
 7325SOL     OW26659   2.748  11.033   9.773 -0.0090  0.2045 -0.4092
 7325SOL    HW126660   2.747  11.104   9.837  1.5834 -2.5402  3.0089
 7325SOL    HW226661   2.681  10.971   9.804  0.7205 -1.1650 -1.4365
 7326SOL     OW26662   3.708   1.042  11.817 -0.0101 -0.2155 -0.2144
 7326SOL    HW126663   3.632   1.091  11.787 -1.7904 -2.7917 -0.1858
 7326SOL    HW226664   3.772   1.052  11.746 -0.8649  0.9344 -0.8500
 7327SOL     OW26665   8.122   6.969   0.492  0.0864  0.5403 -0.1884
 7327SOL    HW126666   8.121   6.874   0.489 -0.2605  0.5516 -0.4907
 7327SOL    HW226667   8.209   6.991   0.525 -0.5647  0.0777  1.9829
 7328SOL     OW26668   7.742   7.867   1.339 -0.5136  0.1820 -0.8992
 7328SOL    HW126669   7.754   7.947   1.389 -0.4967 -1.2562  1.5478
 7328SOL    HW226670   7.654   7.873   1.303 -0.9561  0.8084  0.2483
 7329SOL     OW26671   0.272  10.251   3.469 -0.2160  0.0470 -0.1851
 7329SOL    HW126672   0.283  10.326   3.527  0.8821  0.7873 -1.3020
 7329SOL    HW226673   0.196  10.273   3.415 -1.4112 -0.7642  1.1000
 7330SOL     OW26674   0.056   5.549   2.514 -0.6089  0.1292  0.7438
 7330SOL    HW126675   0.083   5.636   2.484 -0.0053  0.2414  1.5874
 7330SOL    HW226676   0.128   5.492   2.486 -1.0441 -0.1217  0.1162
 7331SOL     OW26677   5.940   7.254  10.671 -0.1496  0.9472 -0.6375
 7331SOL    HW126678   6.000   7.245  10.745 -1.4511  1.3318  0.4973
 7331SOL    HW226679   5.853   7.238  10.708 -0.6462 -1.4892 -2.5918
 7332SOL     OW26680   5.297   1.051   7.120 -0.2107  0.0075  0.5065
 7332SOL    HW126681   5.315   1.075   7.029 -2.4863  0.5090  0.1268
 7332SOL    HW226682   5.205   1.024   7.120  0.1486 -1.4825  2.3870
 7333SOL     OW26683  10.146   8.562   5.985 -0.3930  0.5871 -0.2735
 7333SOL    HW126684  10.172   8.631   6.047 -1.5304  1.3419 -0.6118
 7333SOL    HW226685  10.210   8.569   5.914 -0.3965  1.1852 -0.2226
 7334SOL     OW26686   4.007   1.254   7.594 -0.0202 -0.1096  0.0001
 7334SOL    HW126687   3.974   1.165   7.577 -0.9158  0.3223 -0.5940
 7334SOL    HW226688   4.093   1.240   7.634 -0.6322 -1.2674  0.9906
 7335SOL     OW26689   9.720   1.746   7.862 -0.1109  0.1651  0.3418
 7335SOL    HW126690   9.754   1.737   7.951 -2.2073 -1.3030  1.0648
 7335SOL    HW226691   9.758   1.828   7.830 -0.7706  1.7505  3.2735
 7336SOL     OW26692  10.415   1.605   0.558  0.4495  0.3359 -0.1622
 7336SOL    HW126693  10.344   1.548   0.586  0.7777  0.2312  0.4830
 7336SOL    HW226694  10.387   1.639   0.473 -0.1467 -0.0856 -0.1385
 7337SOL     OW26695  11.082   1.423   1.322  0.4486  0.5689 -0.3770
 7337SOL    HW126696  11.092   1.496   1.261  0.5977 -0.1377 -1.2034
 7337SOL    HW226697  11.022   1.363   1.279  1.8515 -0.7392 -0.6015
 7338SOL     OW26698   3.861   9.348  11.434  0.1083 -0.1804  0.5590
 7338SOL    HW126699   3.947   9.359  11.475  0.4446 -0.5347 -0.0315
 7338SOL    HW226700   3.824   9.437  11.432  1.4467  0.4149 -1.2665
 7339SOL     OW26701  11.861   4.571   9.922 -0.5057  0.0136  0.7285
 7339SOL    HW126702  11.853   4.486   9.965  0.4550 -0.1467  0.5997
 7339SOL    HW226703  11.814   4.631   9.979  1.2906 -0.0680  2.3926
 7340SOL     OW26704   9.782  10.920   8.506  0.0249 -0.1915 -0.0038
 7340SOL    HW126705   9.838  10.955   8.576  0.3967 -1.4114  0.3440
 7340SOL    HW226706   9.793  10.825   8.513 -0.7919 -0.3727 -1.0268
 7341SOL     OW26707   9.618   4.151   7.788 -0.0885 -0.3466  0.1223
 7341SOL    HW126708   9.587   4.099   7.862  2.0047 -0.4237  1.0103
 7341SOL    HW226709   9.678   4.093   7.741 -1.4782 -0.3387 -1.7486
 7342SOL     OW26710   5.365   9.839   0.111  0.2256  0.4235  0.0696
 7342SOL    HW126711   5.443   9.790   0.088  0.5695  1.5932 -1.4034
 7342SOL    HW226712   5.297   9.772   0.123  1.0290 -0.4922 -0.3529
 7343SOL     OW26713   2.469  10.342   7.593 -0.1969 -0.6402 -0.2166
 7343SOL    HW126714   2.490  10.428   7.628 -0.3479 -0.4040 -0.7014
 7343SOL    HW226715   2.451  10.357   7.500 -1.8990 -0.9188  0.0325
 7344SOL     OW26716   7.034   3.634   4.974  0.0669 -0.1501  0.2695
 7344SOL    HW126717   7.053   3.545   5.003 -0.9183  0.1488  1.9408
 7344SOL    HW226718   6.986   3.622   4.892  1.2760 -1.0810 -0.3340
 7345SOL     OW26719   7.322   3.054  10.195  0.3390  0.7348  0.1383
 7345SOL    HW126720   7.374   3.051  10.276  0.7396 -0.6404 -0.1515
 7345SOL    HW226721   7.365   2.991  10.137 -1.4870 -0.2555 -0.2031
 7346SOL     OW26722   5.876   2.746   0.730  0.6970  0.0338 -0.3208
 7346SOL    HW126723   5.802   2.754   0.670 -0.1430  2.2965  0.8994
 7346SOL    HW226724   5.914   2.660   0.710 -1.8424 -0.9348 -1.4150
 7347SOL     OW26725  11.315   6.052   7.363  0.3769 -0.2535 -0.0082
 7347SOL    HW126726  11.295   6.102   7.284 -1.1098 -1.7702 -0.6464
 7347SOL    HW226727  11.330   5.962   7.331  0.8633 -0.6673  1.3192
 7348SOL     OW26728   7.358   0.988   0.774 -0.0033 -0.2935  0.0527
 7348SOL    HW126729   7.439   0.971   0.823 -1.6662 -1.2101  2.6682
 7348SOL    HW226730   7.370   1.075   0.737  0.8638  1.1261  3.3406
 7349SOL     OW26731   9.988   4.773   8.072  0.2080 -0.3596 -0.1431
 7349SOL    HW126732  10.050   4.711   8.112 -0.4590 -0.1861  1.2319
 7349SOL    HW226733   9.909   4.722   8.057 -0.1818  0.0254  0.5439
 7350SOL     OW26734   0.276  10.592   8.908 -0.4042 -0.3397 -0.1539
 7350SOL    HW126735   0.221  10.532   8.858  0.8641 -0.8358 -1.0254
 7350SOL    HW226736   0.342  10.535   8.948 -0.9099  0.1568  1.4382
 7351SOL     OW26737   9.545   3.309   7.075 -0.3619  0.3134  0.0120
 7351SOL    HW126738   9.450   3.298   7.080 -0.3791  0.8706  2.4595
 7351SOL    HW226739   9.561   3.342   6.987 -2.4075 -0.0213 -0.5340
 7352SOL     OW26740   1.107   7.194   5.352  0.0418  0.3816 -0.0521
 7352SOL    HW126741   1.141   7.165   5.267  0.8104  1.8693 -0.2962
 7352SOL    HW226742   1.084   7.286   5.338 -1.7077  0.1070  0.8263
 7353SOL     OW26743  11.339  10.273  11.742 -0.4400 -0.1479  0.4136
 7353SOL    HW126744  11.379  10.186  11.744 -0.8113 -0.3602 -0.6758
 7353SOL    HW226745  11.403  10.327  11.694 -1.4119 -0.4904 -1.3490
 7354SOL     OW26746  10.329   9.143   6.504 -0.3383  0.5654 -0.1858
 7354SOL    HW126747  10.258   9.128   6.566  0.5142 -0.9669  0.4798
 7354SOL    HW226748  10.403   9.094   6.540  0.3708  0.1653 -2.0764
 7355SOL     OW26749   8.210  11.927   4.131 -0.1489 -0.3929  0.2027
 7355SOL    HW126750   8.291  11.922   4.181 -0.9244  1.6443  1.8071
 7355SOL    HW226751   8.141  11.938   4.197 -1.2868  1.8723 -1.2060
 7356SOL     OW26752   2.811   6.630  10.564 -0.3496  0.8405 -0.4372
 7356SOL    HW126753   2.866   6.552  10.561  1.7017  2.1423  0.9793
 7356SOL    HW226754   2.803   6.657  10.472  0.5376  0.0398 -0.7688
 7357SOL     OW26755   2.523   6.496   3.907  0.5831  0.1343 -0.6804
 7357SOL    HW126756   2.483   6.467   3.989 -1.7542  0.9680 -1.4427
 7357SOL    HW226757   2.556   6.416   3.866  0.2496 -0.5064  0.2720
 7358SOL     OW26758   3.812  10.061   7.877  0.1961 -0.1471 -0.3096
 7358SOL    HW126759   3.751  10.132   7.859  3.1521  2.2213 -2.0292
 7358SOL    HW226760   3.877  10.099   7.936  2.4254 -0.9894 -2.0768
 7359SOL     OW26761  11.831   1.664   5.559 -0.4171 -0.4195  0.5612
 7359SOL    HW126762  11.767   1.643   5.492  0.8117  1.1515 -1.2064
 7359SOL    HW226763  11.784   1.720   5.621 -0.7143  1.0537 -0.9213
 7360SOL     OW26764  11.807  11.311   6.959  0.1066 -0.2825 -0.2624
 7360SOL    HW126765  11.716  11.338   6.967  0.4943  1.4751 -1.2824
 7360SOL    HW226766  11.853  11.363   7.025  0.4821 -0.6410 -0.2363
 7361SOL     OW26767   2.212  11.708   9.582 -0.2241  0.1216  0.3346
 7361SOL    HW126768   2.151  11.773   9.615 -0.9557 -0.6628  0.5636
 7361SOL    HW226769   2.228  11.734   9.491 -0.1171  0.8891  0.5619
 7362SOL     OW26770   6.067  11.337  10.370  0.3848  0.5693 -0.8492
 7362SOL    HW126771   6.123  11.409  10.340 -0.2270  1.1740 -0.5732
 7362SOL    HW226772   6.033  11.298  10.290 -0.1002  1.2588 -0.9907
 7363SOL     OW26773   0.756   5.516   1.074 -0.2261 -0.3572  0.0483
 7363SOL    HW126774   0.845   5.525   1.039 -0.1049 -1.2685  0.0902
 7363SOL    HW226775   0.764   5.451   1.144 -0.8166  0.0043  0.4598
 7364SOL     OW26776   0.569   8.001   6.710 -0.0368  0.4303  0.2670
 7364SOL    HW126777   0.590   7.924   6.764  1.0624  1.2007  0.9701
 7364SOL    HW226778   0.653   8.045   6.697 -0.4426  0.8036 -1.2595
 7365SOL     OW26779   8.641   2.401   7.331 -0.2535 -0.2733  0.3326
 7365SOL    HW126780   8.711   2.425   7.391 -0.5995  1.6548  0.0108
 7365SOL    HW226781   8.685   2.354   7.260  0.9081  1.7327 -0.3453
 7366SOL     OW26782   6.112  10.336   1.048  0.2922  0.1125 -0.0483
 7366SOL    HW126783   6.139  10.421   1.082 -1.9924  0.9476 -0.1983
 7366SOL    HW226784   6.020  10.328   1.073  0.1473 -1.8301 -1.0174
 7367SOL     OW26785   9.130   5.222   3.471 -0.5370  0.3583  0.0534
 7367SOL    HW126786   9.191   5.171   3.524  0.7349 -2.1931 -3.5129
 7367SOL    HW226787   9.044   5.197   3.504  0.1017 -3.1927 -0.5638
 7368SOL     OW26788   3.680   9.451   8.987  0.3912 -0.4839 -0.2992
 7368SOL    HW126789   3.618   9.432   8.916  0.4909 -1.0407 -0.2416
 7368SOL    HW226790   3.694   9.545   8.981  1.2991 -0.6744 -1.7664
 7369SOL     OW26791   0.244  10.403   6.192 -0.4775 -0.3440 -0.4100
 7369SOL    HW126792   0.243  10.479   6.135 -1.9285  1.5697  1.9763
 7369SOL    HW226793   0.153  10.388   6.215 -0.0037 -1.3378  1.0227
 7370SOL     OW26794  10.940   5.755   3.367  0.5444  0.4495  0.2297
 7370SOL    HW126795  10.844   5.762   3.373  0.6860  3.2035  0.7511
 7370SOL    HW226796  10.958   5.663   3.384 -1.9764 -0.0340  0.8117
 7371SOL     OW26797  11.995   7.975   6.493  0.2623  0.2926 -0.5538
 7371SOL    HW126798  12.069   8.017   6.449  1.9174 -2.3947 -0.5878
 7371SOL    HW226799  11.987   8.022   6.576  2.2276  0.5094 -0.4312
 7372SOL     OW26800   5.533   0.241   4.360  0.4399  0.1729 -0.0337
 7372SOL    HW126801   5.445   0.208   4.374  0.2483  0.3044 -0.8933
 7372SOL    HW226802   5.585   0.200   4.429 -0.3693  0.4265  0.7390
 7373SOL     OW26803   3.717   3.426   7.369 -0.5957  0.8336 -0.3448
 7373SOL    HW126804   3.736   3.518   7.389 -0.0933  0.4471  1.0831
 7373SOL    HW226805   3.701   3.386   7.455  1.1772 -0.8423 -0.7369
 7374SOL     OW26806   5.341   2.065   6.377  0.5524 -0.0962  0.2601
 7374SOL    HW126807   5.432   2.088   6.363  1.1309 -1.3991  1.5437
 7374SOL    HW226808   5.340   1.969   6.377 -0.5764 -0.1262  1.4843
 7375SOL     OW26809  10.890  11.365   6.613 -0.3414 -0.1019  0.0107
 7375SOL    HW126810  10.969  11.378   6.560 -0.1789 -2.9985 -0.6406
 7375SOL    HW226811  10.846  11.290   6.572 -1.6848 -0.6805  2.3311
 7376SOL     OW26812   6.788   8.482   2.777 -0.8092  0.3230  0.0775
 7376SOL    HW126813   6.866   8.459   2.727  0.9941  1.3553  2.2943
 7376SOL    HW226814   6.730   8.406   2.766  0.9692 -0.9833 -0.6701
 7377SOL     OW26815   2.121   0.115   6.286 -0.5688  0.2638  0.7532
 7377SOL    HW126816   2.035   0.144   6.316 -0.6383  0.6666  0.1651
 7377SOL    HW226817   2.180   0.186   6.310 -0.5478  0.3849  0.3433
 7378SOL     OW26818  10.632  11.096   3.646 -0.0208  0.2097 -0.4699
 7378SOL    HW126819  10.540  11.075   3.632 -0.4763  0.5859  1.6148
 7378SOL    HW226820  10.634  11.192   3.652  0.2756  0.1495  0.6922
 7379SOL     OW26821  10.579   2.063   4.826  0.1313 -0.0303 -0.3458
 7379SOL    HW126822  10.601   1.971   4.838  1.0111  0.1580 -0.4227
 7379SOL    HW226823  10.485   2.064   4.812  0.3008 -1.0925 -1.8753
 7380SOL     OW26824   2.230  10.945   6.536  0.3600  0.1293  0.2440
 7380SOL    HW126825   2.237  10.853   6.561  0.2666  0.3630  1.1390
 7380SOL    HW226826   2.183  10.943   6.452 -0.6995 -0.5733  0.8315
 7381SOL     OW26827   4.151   8.953  10.973  0.0114 -0.1857 -0.2858
 7381SOL    HW126828   4.091   9.012  10.927  1.2362  1.3961  0.0313
 7381SOL    HW226829   4.235   8.965  10.928  0.3328 -1.6255 -0.1177
 7382SOL     OW26830   3.429  10.741   3.755  0.6243  0.0354 -0.5294
 7382SOL    HW126831   3.360  10.769   3.695  0.8799  2.9088  0.3826
 7382SOL    HW226832   3.507  10.789   3.728  1.7344 -1.4970 -0.1928
 7383SOL     OW26833   7.251   8.413  11.760 -0.3121  0.4110  0.0594
 7383SOL    HW126834   7.180   8.354  11.735  1.3096 -0.2820 -3.3525
 7383SOL    HW226835   7.286   8.376  11.841 -2.0198 -0.7794  0.3127
 7384SOL     OW26836   1.890  10.182   0.367 -0.5427 -0.6162  0.5788
 7384SOL    HW126837   1.887  10.258   0.424  0.0655 -1.4665  1.7908
 7384SOL    HW226838   1.815  10.128   0.394 -1.4839 -0.0898 -0.8483
 7385SOL     OW26839  11.157   2.615   1.003 -0.2300  0.0457 -0.6283
 7385SOL    HW126840  11.091   2.576   1.060 -0.0949 -0.0580 -0.5417
 7385SOL    HW226841  11.237   2.565   1.021  0.0321  0.5840 -0.2581
 7386SOL     OW26842   3.083   9.872   7.466 -0.5831 -0.0721 -0.1147
 7386SOL    HW126843   3.000   9.839   7.499 -0.3558  0.0316  0.5743
 7386SOL    HW226844   3.059   9.933   7.396 -1.0685 -0.2752 -0.1244
 7387SOL     OW26845   2.003  10.714   6.568 -0.4670  0.2266 -0.0785
 7387SOL    HW126846   1.969  10.793   6.610 -0.1860 -0.3418  1.2647
 7387SOL    HW226847   1.932  10.651   6.573 -0.7078  0.3926 -1.1950
 7388SOL     OW26848   8.769   1.023   5.469 -0.2390  0.4316  0.2869
 7388SOL    HW126849   8.796   1.011   5.559 -0.1919 -0.2012  0.1939
 7388SOL    HW226850   8.827   0.965   5.418 -2.1179 -1.4733  0.1445
 7389SOL     OW26851  11.037   1.668   3.844 -0.2270  0.1976 -0.1328
 7389SOL    HW126852  11.103   1.721   3.889 -1.1085  0.6092  0.7083
 7389SOL    HW226853  11.059   1.674   3.751  0.5539  0.8142  0.0870
 7390SOL     OW26854   2.670   4.797   0.776 -0.3625  0.0616  0.0231
 7390SOL    HW126855   2.593   4.805   0.832 -0.5649 -1.0891 -0.0577
 7390SOL    HW226856   2.681   4.702   0.765  0.0021  0.2574 -1.4236
 7391SOL     OW26857   6.751   5.556   0.520 -0.0254 -0.4283 -0.0283
 7391SOL    HW126858   6.678   5.513   0.563  0.3291 -1.5436 -0.5154
 7391SOL    HW226859   6.726   5.649   0.517 -1.0709 -0.6845  0.4737
 7392SOL     OW26860  10.303   2.335  10.337  0.4297 -0.3490 -0.6453
 7392SOL    HW126861  10.318   2.427  10.358  0.2921 -0.6649  1.0005
 7392SOL    HW226862  10.234   2.308  10.398 -0.9395 -1.0624 -2.4120
 7393SOL     OW26863   1.863   2.239   2.574 -0.1232 -0.2772 -0.1682
 7393SOL    HW126864   1.844   2.146   2.568  0.4125 -0.5875  1.9639
 7393SOL    HW226865   1.943   2.251   2.522 -0.3298 -0.9520 -0.6483
 7394SOL     OW26866   9.161   9.572   3.228  0.1017  0.0447  0.7697
 7394SOL    HW126867   9.215   9.496   3.247 -0.4266 -0.1113  1.7469
 7394SOL    HW226868   9.079   9.536   3.196  0.1988  0.2398  0.3017
 7395SOL     OW26869  10.427   8.806   6.724 -0.2566 -0.2067  0.0934
 7395SOL    HW126870  10.478   8.860   6.663  0.7932 -1.7494 -0.4668
 7395SOL    HW226871  10.369   8.868   6.768  1.3399  1.4634 -0.0295
 7396SOL     OW26872  11.949   2.357  10.237 -0.5261 -0.2562 -0.3960
 7396SOL    HW126873  12.033   2.322  10.266  0.3916  0.6628 -1.7958
 7396SOL    HW226874  11.906   2.388  10.317  0.5796 -0.5074  0.3056
 7397SOL     OW26875   7.843  10.943   6.125 -0.3956 -0.1526 -0.0562
 7397SOL    HW126876   7.902  10.959   6.199 -1.1079  1.7443  0.1666
 7397SOL    HW226877   7.841  11.026   6.078 -1.0498 -0.9095 -1.4310
 7398SOL     OW26878   3.190  11.577   1.576 -0.2705 -0.9564  0.4074
 7398SOL    HW126879   3.193  11.593   1.670 -0.5203  0.5178  0.1921
 7398SOL    HW226880   3.139  11.497   1.566 -1.2070 -0.5105  1.4649
 7399SOL     OW26881   7.701   1.582   1.808  0.4139  0.3736  0.4851
 7399SOL    HW126882   7.721   1.492   1.832  0.2916  0.2698  0.1970
 7399SOL    HW226883   7.647   1.575   1.730  0.5971  0.7040  0.3283
 7400SOL     OW26884  10.029   8.765   7.059 -0.3130  0.3067  0.4858
 7400SOL    HW126885  10.084   8.691   7.084 -0.1092  0.8397  1.6779
 7400SOL    HW226886   9.939   8.734   7.072 -0.2646 -0.0345  0.0512
 7401SOL     OW26887   3.522   7.110   3.238 -0.7976  0.4313  0.2319
 7401SOL    HW126888   3.461   7.168   3.284  2.1333  3.5245  0.6659
 7401SOL    HW226889   3.591   7.092   3.302 -0.3700 -1.5495 -0.7193
 7402SOL     OW26890   0.504   6.125   8.284 -0.4810 -0.0500 -0.0523
 7402SOL    HW126891   0.564   6.106   8.356 -1.7799  2.3510  1.8112
 7402SOL    HW226892   0.424   6.079   8.306 -1.3002  1.6712  0.8047
 7403SOL     OW26893   7.566   9.132   4.703  0.3672  0.2393  0.3337
 7403SOL    HW126894   7.541   9.086   4.783  0.1562 -0.3194 -0.0494
 7403SOL    HW226895   7.605   9.214   4.734 -1.0484  0.7052  0.9922
 7404SOL     OW26896  10.908   2.121   6.479 -0.7583 -0.1021 -0.2652
 7404SOL    HW126897  10.944   2.207   6.498 -1.2660 -0.1350  0.9039
 7404SOL    HW226898  10.983   2.062   6.482 -0.3401  0.3401 -1.4829
 7405SOL     OW26899   2.047   2.226   2.361  0.1635 -0.1969 -0.0540
 7405SOL    HW126900   2.085   2.310   2.335 -0.3876 -0.0280 -0.3242
 7405SOL    HW226901   2.000   2.195   2.283  1.2914 -1.3035 -0.3183
 7406SOL     OW26902   5.507   1.630   0.208 -0.8874 -0.1353 -0.1489
 7406SOL    HW126903   5.465   1.621   0.294 -0.3942  0.1709  0.1331
 7406SOL    HW226904   5.496   1.545   0.167  0.2054 -0.7879  0.8360
 7407SOL     OW26905   6.013  10.044   4.107 -0.2218  0.1240  0.1797
 7407SOL    HW126906   5.961  10.017   4.032  0.1163  0.2493 -0.1015
 7407SOL    HW226907   6.042   9.962   4.147  0.5001  0.0568 -0.4608
 7408SOL     OW26908  10.772   7.274   5.478  0.6321 -0.6051 -0.2383
 7408SOL    HW126909  10.769   7.283   5.383  2.5249  0.0855 -0.2675
 7408SOL    HW226910  10.813   7.189   5.493 -0.5205 -1.1406 -0.0108
 7409SOL     OW26911   3.735   9.194   8.819 -0.3885  0.0162 -0.3076
 7409SOL    HW126912   3.728   9.239   8.903  0.5878 -1.5629  0.6607
 7409SOL    HW226913   3.690   9.111   8.833 -0.9707  0.0761 -1.6491
 7410SOL     OW26914   3.237  11.257  11.904  0.6437 -0.1337 -0.2666
 7410SOL    HW126915   3.271  11.172  11.877  0.7974 -0.5367  1.1086
 7410SOL    HW226916   3.298  11.287  11.971  0.7861  1.2383 -0.9877
 7411SOL     OW26917   3.726  11.900   5.152 -0.1606  0.5388  0.5796
 7411SOL    HW126918   3.681  11.935   5.228 -0.9601 -0.8331  0.7623
 7411SOL    HW226919   3.773  11.823   5.184 -0.8035 -0.2791 -0.3699
 7412SOL     OW26920   2.082   7.854   0.711  0.4930 -0.4933 -0.5293
 7412SOL    HW126921   2.038   7.930   0.673  1.4701  0.0913 -0.5364
 7412SOL    HW226922   2.099   7.797   0.636 -1.4487 -1.3781 -0.3431
 7413SOL     OW26923   9.786   5.540   7.263  0.0512 -0.0987  0.1246
 7413SOL    HW126924   9.862   5.482   7.269  0.5834  0.5039 -0.5888
 7413SOL    HW226925   9.711   5.483   7.280  0.5792 -0.9474 -0.3289
 7414SOL     OW26926   3.808   4.301  10.478  0.3442 -0.7189  0.1261
 7414SOL    HW126927   3.769   4.278  10.562  0.3224 -1.0036  0.0389
 7414SOL    HW226928   3.886   4.245  10.471  0.6285 -0.3357  0.1854
 7415SOL     OW26929   1.390   8.370   3.961 -0.0951 -0.1949  0.2122
 7415SOL    HW126930   1.360   8.283   3.934 -1.5753 -0.2764  1.9411
 7415SOL    HW226931   1.377   8.425   3.884 -1.9887 -0.8899 -0.0004
 7416SOL     OW26932   3.613   3.469   0.486  0.0520 -0.1439  0.0094
 7416SOL    HW126933   3.672   3.404   0.525 -0.0693 -0.1254  0.2235
 7416SOL    HW226934   3.536   3.468   0.542  0.3412  0.7053  0.4470
 7417SOL     OW26935   7.600   5.589   4.606  0.1677 -0.1875 -0.3381
 7417SOL    HW126936   7.608   5.574   4.701 -0.1183  3.5198  0.4007
 7417SOL    HW226937   7.509   5.567   4.586  0.1123 -0.5922  0.3327
 7418SOL     OW26938   7.226  11.719   4.568 -0.4445 -0.3811  0.5381
 7418SOL    HW126939   7.273  11.782   4.513 -2.3152  2.2044  1.6581
 7418SOL    HW226940   7.195  11.652   4.508 -0.1954  0.9380 -1.1310
 7419SOL     OW26941  11.629   1.978   8.871 -0.7275 -0.6113  0.0715
 7419SOL    HW126942  11.683   2.052   8.844 -1.0416  0.2471  1.6738
 7419SOL    HW226943  11.667   1.903   8.826 -0.8190  0.5814 -2.1655
 7420SOL     OW26944   2.857  10.213  10.825 -0.2667  0.6054  0.0947
 7420SOL    HW126945   2.839  10.170  10.909 -1.9310  0.4553 -0.3148
 7420SOL    HW226946   2.890  10.300  10.849 -2.6548  1.3408  0.9426
 7421SOL     OW26947   0.059   6.580   6.566  0.1385 -0.3669  0.0850
 7421SOL    HW126948   0.099   6.542   6.645 -1.5892  0.5644  1.4947
 7421SOL    HW226949   0.133   6.618   6.518  1.1371  0.0185  1.8262
 7422SOL     OW26950   0.786  11.520  11.831  0.1813 -0.1950 -0.0205
 7422SOL    HW126951   0.827  11.482  11.753 -1.6821 -0.2608 -1.0117
 7422SOL    HW226952   0.798  11.454  11.899  3.2030  0.4880  0.2655
 7423SOL     OW26953   8.307   0.649   7.508  0.2962  0.2117  0.4390
 7423SOL    HW126954   8.350   0.681   7.587 -1.6176  2.1417  0.7894
 7423SOL    HW226955   8.286   0.728   7.458 -2.7456 -0.5619  0.2920
 7424SOL     OW26956  11.340   4.626   5.550 -0.0576  0.4347 -0.4663
 7424SOL    HW126957  11.406   4.579   5.600 -0.3429  1.4943  0.9482
 7424SOL    HW226958  11.284   4.557   5.512  1.9823 -0.4945 -1.9615
 7425SOL     OW26959   0.684   9.430  10.243  0.1083  0.4769 -0.3784
 7425SOL    HW126960   0.768   9.453  10.204  1.4645 -1.9948  0.8260
 7425SOL    HW226961   0.704   9.356  10.301 -2.4647  1.3605  1.8696
 7426SOL     OW26962   2.675   3.953   5.265  0.4324 -0.9420 -0.3356
 7426SOL    HW126963   2.644   3.952   5.356 -0.8446 -2.0525 -0.7510
 7426SOL    HW226964   2.733   3.878   5.259 -2.4376 -3.2958 -1.3182
 7427SOL     OW26965   2.805   9.442   6.999 -0.6168  0.2269  0.9235
 7427SOL    HW126966   2.814   9.351   6.969  2.1163  0.6787  0.0487
 7427SOL    HW226967   2.712   9.452   7.016 -1.8054 -1.5029 -3.1293
 7428SOL     OW26968   3.827   7.229   3.222 -0.0640 -0.2157 -0.0782
 7428SOL    HW126969   3.917   7.240   3.252 -0.3675 -1.4019  1.3767
 7428SOL    HW226970   3.835   7.181   3.140  0.5973 -3.0204  1.4935
 7429SOL     OW26971   5.032   0.765  11.184 -0.1622  0.0410 -0.4237
 7429SOL    HW126972   4.962   0.803  11.131 -1.7438  0.2324  1.6757
 7429SOL    HW226973   5.106   0.823  11.171 -1.0997  1.1609 -0.9169
 7430SOL     OW26974   8.925  10.134  11.476  0.1189  0.3555  0.1732
 7430SOL    HW126975   9.016  10.158  11.490  0.2375  0.6342 -0.9341
 7430SOL    HW226976   8.914  10.053  11.525  1.9646 -1.5718 -2.2792
 7431SOL     OW26977   5.600   5.820  10.401  0.1008 -0.2486 -0.6532
 7431SOL    HW126978   5.558   5.742  10.437 -0.0101 -0.6934 -1.7166
 7431SOL    HW226979   5.688   5.819  10.439  0.0394 -0.7928 -0.5120
 7432SOL     OW26980   4.168   8.055   3.247 -0.1002 -0.5209 -0.1532
 7432SOL    HW126981   4.211   8.088   3.327  0.6234 -0.8737 -0.3815
 7432SOL    HW226982   4.097   8.116   3.231  1.5967  1.3780 -0.9577
 7433SOL     OW26983  10.783   3.084   4.879 -0.0369  0.0511  0.2487
 7433SOL    HW126984  10.769   2.990   4.881  0.5490 -0.1022 -1.2652
 7433SOL    HW226985  10.744   3.112   4.796  2.0453  0.7046 -0.5848
 7434SOL     OW26986   8.190   7.989   0.217 -0.2474  0.3902 -0.3080
 7434SOL    HW126987   8.208   8.014   0.308 -1.0462  0.0634 -0.0476
 7434SOL    HW226988   8.248   8.044   0.165  0.6337  0.1755  0.4230
 7435SOL     OW26989   1.470   3.627   4.140  0.1396  0.4740 -0.3492
 7435SOL    HW126990   1.451   3.638   4.233 -2.7220 -0.1493 -0.7808
 7435SOL    HW226991   1.529   3.700   4.120  2.0618 -0.2093  2.2012
 7436SOL     OW26992   8.087   3.887   3.214  0.1590  0.1790  0.3992
 7436SOL    HW126993   8.177   3.915   3.201  0.8840 -1.8615  0.5989
 7436SOL    HW226994   8.094   3.794   3.237 -2.0213 -0.2106 -0.2586
 7437SOL     OW26995   0.400   1.592   6.318 -0.0050  0.5247 -0.1694
 7437SOL    HW126996   0.342   1.653   6.273 -0.6259  0.4546  0.5079
 7437SOL    HW226997   0.480   1.591   6.265 -0.4492  0.9702 -0.8684
 7438SOL     OW26998   7.465  11.057  11.285  0.2754  0.0238 -0.1534
 7438SOL    HW126999   7.484  11.091  11.372  3.1798 -1.3912 -0.1209
 7438SOL    HW227000   7.524  11.105  11.227 -0.8130  0.1383 -1.2222
 7439SOL     OW27001  10.773   2.649   5.982  0.0434  0.0497  0.2290
 7439SOL    HW127002  10.688   2.622   6.017  0.8856 -1.5252  1.1833
 7439SOL    HW227003  10.783   2.598   5.902 -0.5627  1.4089 -0.7438
 7440SOL     OW27004   6.231   1.991   2.845 -0.4080  0.3287  0.4798
 7440SOL    HW127005   6.307   1.945   2.809 -1.2569  0.1768 -1.2212
 7440SOL    HW227006   6.265   2.041   2.918  0.8183 -1.9593  1.5741
 7441SOL     OW27007   1.444   9.875  11.998  0.1518  0.1224 -0.6656
 7441SOL    HW127008   1.518   9.855  11.940  1.5428  0.9502  0.7685
 7441SOL    HW227009   1.483   9.889  12.084 -1.8279 -0.7892  0.4645
 7442SOL     OW27010   1.484   9.418   9.852 -0.0391  0.1162 -0.0993
 7442SOL    HW127011   1.406   9.368   9.827  0.1523 -0.1263 -0.2054
 7442SOL    HW227012   1.496   9.398   9.945  0.8037 -1.0703 -0.4463
 7443SOL     OW27013  10.852  10.272   3.666  0.0679  0.0934 -0.6784
 7443SOL    HW127014  10.890  10.317   3.741  0.7012 -0.4282 -0.6760
 7443SOL    HW227015  10.777  10.326   3.641 -0.0046  0.3995  0.1723
 7444SOL     OW27016   4.911   9.038   5.904  0.2904  0.3285  0.3200
 7444SOL    HW127017   4.819   9.011   5.916 -0.1919  1.4684 -0.6218
 7444SOL    HW227018   4.941   8.989   5.828  1.1397 -1.5647  1.7801
 7445SOL     OW27019   7.832   7.163   9.538  0.4059 -0.2643 -0.3884
 7445SOL    HW127020   7.755   7.185   9.486  0.0669  0.8607  0.5648
 7445SOL    HW227021   7.828   7.221   9.613  0.6461 -2.1266  1.1392
 7446SOL     OW27022  10.558   9.017   8.137 -0.3858  0.6894  0.2630
 7446SOL    HW127023  10.499   9.025   8.212 -0.9552 -0.4352 -0.0523
 7446SOL    HW227024  10.534   8.935   8.096  1.6830 -0.0194  0.3584
 7447SOL     OW27025   4.251  10.512  11.368  0.0730 -0.5486 -0.4375
 7447SOL    HW127026   4.228  10.565  11.444  2.1698 -1.0971  0.6441
 7447SOL    HW227027   4.167  10.484  11.332 -1.0224  1.4510  0.3947
 7448SOL     OW27028   5.592   3.073   9.430  0.0734  0.5701 -0.8792
 7448SOL    HW127029   5.597   2.978   9.419  0.4865  0.4891 -0.0257
 7448SOL    HW227030   5.580   3.107   9.341 -3.4111 -0.4758 -0.9391
 7449SOL     OW27031   7.715   9.840   0.019  0.2307 -0.5818  0.0550
 7449SOL    HW127032   7.741   9.760   0.064  1.5557 -0.8939 -1.1856
 7449SOL    HW227033   7.760   9.910   0.067  0.4043 -0.7578  0.1517
 7450SOL     OW27034   0.124   4.548   0.020  0.6394 -0.1851 -0.1890
 7450SOL    HW127035   0.157   4.458   0.017  1.6620  0.1973 -1.3318
 7450SOL    HW227036   0.186   4.594   0.076  0.0375 -0.1957  0.5092
 7451SOL     OW27037   1.359   4.234   4.083  0.2298  0.4397  0.3639
 7451SOL    HW127038   1.383   4.149   4.119  1.7442  0.3584 -0.7194
 7451SOL    HW227039   1.274   4.254   4.122 -0.0008 -1.4049  0.8945
 7452SOL     OW27040   3.822   8.882   6.216 -0.3298 -0.3046  0.3885
 7452SOL    HW127041   3.750   8.923   6.264 -0.2546  0.0114  0.2345
 7452SOL    HW227042   3.884   8.954   6.200 -1.0603 -0.0240 -1.5547
 7453SOL     OW27043   2.944  11.320   5.142 -0.0956 -0.0410 -0.8508
 7453SOL    HW127044   2.893  11.330   5.222  1.0296  0.7142 -0.2026
 7453SOL    HW227045   3.035  11.331   5.170  0.3424 -0.1084 -2.1772
 7454SOL     OW27046   9.843   8.892  10.835  0.3510  0.0909  0.3429
 7454SOL    HW127047   9.761   8.909  10.882  0.9580  2.4805  0.6729
 7454SOL    HW227048   9.885   8.978  10.829  3.4635 -1.2534  1.2961
 7455SOL     OW27049   6.623   0.098  11.462 -0.0010  0.3063 -0.0518
 7455SOL    HW127050   6.583   0.058  11.539 -0.1192  0.8912  0.1951
 7455SOL    HW227051   6.567   0.173  11.441 -0.1915 -0.0622 -0.9439
 7456SOL     OW27052   0.185   1.684   1.826  0.7102 -0.2179 -0.0430
 7456SOL    HW127053   0.223   1.597   1.812  0.4780 -0.0411 -2.0834
 7456SOL    HW227054   0.181   1.693   1.921  2.2189 -1.7808  0.2300
 7457SOL     OW27055   7.442   9.474  11.142  0.0104 -0.6528 -0.2178
 7457SOL    HW127056   7.406   9.458  11.230  0.5846  0.4582  0.2364
 7457SOL    HW227057   7.422   9.565  11.124  3.7441  0.5311  0.6848
 7458SOL     OW27058   9.716   7.656   5.034 -0.2463 -0.0545 -0.1670
 7458SOL    HW127059   9.777   7.711   4.985 -2.1106  1.5766 -0.7691
 7458SOL    HW227060   9.678   7.714   5.099 -0.7619 -1.1859  0.5810
 7459SOL     OW27061   9.645   5.665   7.058  0.3070  0.0012 -0.1458
 7459SOL    HW127062   9.703   5.633   7.126 -1.0842 -0.6784  0.7641
 7459SOL    HW227063   9.620   5.753   7.087 -0.9076 -0.5856  0.6742
 7460SOL     OW27064  10.448   5.965   8.985  0.1490 -0.0518  0.5426
 7460SOL    HW127065  10.449   5.957   9.081 -0.1647  1.0657  0.6524
 7460SOL    HW227066  10.538   5.986   8.962 -0.1232  1.5183  0.7934
 7461SOL     OW27067   9.010   3.905   6.723  0.0270 -0.3243  0.4599
 7461SOL    HW127068   8.944   3.848   6.763 -0.9633  0.1183 -0.4929
 7461SOL    HW227069   9.033   3.967   6.791  0.3714 -1.2272  1.1890
 7462SOL     OW27070   1.853  11.530   3.075 -0.2480  0.0359 -1.1050
 7462SOL    HW127071   1.887  11.595   3.013  3.1691 -0.1546  0.3682
 7462SOL    HW227072   1.853  11.448   3.026  1.1573  0.1161 -1.2637
 7463SOL     OW27073   5.108   3.157   2.048  0.1277  0.2413  0.1957
 7463SOL    HW127074   5.022   3.176   2.086  0.0890  1.5170 -0.4577
 7463SOL    HW227075   5.142   3.084   2.099 -1.1422  0.0331  0.7759
 7464SOL     OW27076   3.289   8.077  10.381 -0.3389  0.1240 -0.0561
 7464SOL    HW127077   3.208   8.060  10.333 -0.9718 -0.7967  1.3025
 7464SOL    HW227078   3.277   8.035  10.466  1.0252  1.1510  0.6872
 7465SOL     OW27079   2.562   9.883   3.088  0.8282 -0.0648  0.8175
 7465SOL    HW127080   2.583   9.940   3.015  0.5222 -0.7712  0.1610
 7465SOL    HW227081   2.572   9.794   3.053  0.2551 -0.4133  1.5030
 7466SOL     OW27082   4.466  11.285   9.326 -0.3606  0.3896  0.3263
 7466SOL    HW127083   4.465  11.252   9.236 -0.2553 -2.1699  1.1800
 7466SOL    HW227084   4.557  11.276   9.353 -0.5496  0.3303  0.9501
 7467SOL     OW27085   1.494   2.106   6.770  0.4931  0.6488 -0.0145
 7467SOL    HW127086   1.577   2.130   6.812  0.7683  1.4746 -0.9819
 7467SOL    HW227087   1.436   2.084   6.842  1.5230  0.1647  0.6885
 7468SOL     OW27088   2.528   4.696   8.133  0.1706 -0.2389  0.2174
 7468SOL    HW127089   2.474   4.700   8.054  1.9131  0.6641 -1.0142
 7468SOL    HW227090   2.595   4.763   8.119 -0.4560  1.2025  3.2624
 7469SOL     OW27091   8.957   2.752   6.039 -0.1902 -0.2124  0.1908
 7469SOL    HW127092   9.053   2.745   6.032 -0.1741 -0.6661  0.7758
 7469SOL    HW227093   8.928   2.766   5.949  0.4946  0.8534  0.1166
 7470SOL     OW27094   1.058   0.903   9.390  0.1640  0.6214  0.6770
 7470SOL    HW127095   1.052   0.837   9.459 -2.0877 -1.5354 -1.3569
 7470SOL    HW227096   1.119   0.864   9.326 -0.9526  0.5796 -0.4049
 7471SOL     OW27097   3.685   8.318   5.637  0.3195 -0.1114 -0.1057
 7471SOL    HW127098   3.759   8.358   5.682  0.0646  0.1556  0.0866
 7471SOL    HW227099   3.626   8.291   5.708 -0.7374  1.5642 -0.2738
 7472SOL     OW27100   9.471  10.406   7.901 -0.3159 -0.0543 -0.2694
 7472SOL    HW127101   9.461  10.453   7.984 -0.8680  1.0435 -0.9372
 7472SOL    HW227102   9.511  10.323   7.926  0.1890  0.5410  1.0162
 7473SOL     OW27103   2.533   2.738   1.409  0.1112 -0.5046 -0.4377
 7473SOL    HW127104   2.470   2.681   1.363  2.0427 -4.7951  1.6372
 7473SOL    HW227105   2.603   2.752   1.346  0.4579 -2.1438 -0.4702
 7474SOL     OW27106   6.452   2.560   5.475  0.3683  0.5355 -0.1289
 7474SOL    HW127107   6.484   2.609   5.400 -0.1836  0.3128 -0.5182
 7474SOL    HW227108   6.380   2.613   5.509  0.2322  0.3453 -0.1192
 7475SOL     OW27109   2.143   5.280   6.363 -0.3404 -0.0501 -0.3083
 7475SOL    HW127110   2.182   5.333   6.294  0.4124  0.2332  0.3255
 7475SOL    HW227111   2.217   5.249   6.415 -0.6955 -2.3001 -1.0462
 7476SOL     OW27112   9.489   6.626   3.443 -0.1446 -0.0955  0.0446
 7476SOL    HW127113   9.542   6.601   3.367  0.0222 -1.0975  0.4743
 7476SOL    HW227114   9.439   6.702   3.413  0.6112  0.1103 -0.7648
 7477SOL     OW27115   3.311   0.296   8.946  0.1053  0.5582  0.3615
 7477SOL    HW127116   3.346   0.377   8.910  0.3657 -0.0026 -0.6758
 7477SOL    HW227117   3.242   0.270   8.886  1.0691 -0.8055 -0.2120
 7478SOL     OW27118   5.182   7.264   9.367  0.7727 -0.4413  0.1747
 7478SOL    HW127119   5.186   7.185   9.422  2.5376 -1.4822 -1.2970
 7478SOL    HW227120   5.274   7.284   9.348  0.2762  0.7899 -1.1066
 7479SOL     OW27121   4.605   8.983   0.897 -0.2859  0.3123  0.0331
 7479SOL    HW127122   4.555   8.912   0.936 -1.3235 -0.0389 -1.8458
 7479SOL    HW227123   4.610   8.962   0.804 -2.6075  3.7490 -1.0993
 7480SOL     OW27124   1.823   8.261   7.347 -0.2529  0.4168 -0.7747
 7480SOL    HW127125   1.914   8.292   7.342 -0.0155 -0.3986 -2.1766
 7480SOL    HW227126   1.831   8.165   7.341 -1.2586  0.4023 -2.5211
 7481SOL     OW27127   1.915   9.667   5.444 -0.5286  0.0905  0.3173
 7481SOL    HW127128   1.921   9.754   5.482 -0.0132 -0.5815  1.8231
 7481SOL    HW227129   1.972   9.612   5.498 -0.4322 -1.0867 -0.9094
 7482SOL     OW27130   9.304  11.071   1.589  0.1709 -0.6441  0.8622
 7482SOL    HW127131   9.301  10.976   1.582  2.0298 -0.7856  1.5051
 7482SOL    HW227132   9.271  11.089   1.677  0.2774 -0.7120  0.9153
 7483SOL     OW27133   7.773   5.085   2.585  0.1169  0.1269 -0.6362
 7483SOL    HW127134   7.726   5.154   2.539  0.4873  1.3215  0.7441
 7483SOL    HW227135   7.725   5.073   2.667  0.4751 -0.7653 -0.5418
 7484SOL     OW27136   4.762   1.998   5.682  0.3096  0.7593  0.0136
 7484SOL    HW127137   4.831   1.941   5.648  0.0672 -0.0958  0.9045
 7484SOL    HW227138   4.687   1.983   5.624  0.0706 -0.2777  0.5596
 7485SOL     OW27139   6.686   0.395   3.369  0.1368  0.0837  0.0181
 7485SOL    HW127140   6.663   0.471   3.422  0.8030  0.2374  0.1003
 7485SOL    HW227141   6.767   0.363   3.407  0.5509  0.1107 -0.8045
 7486SOL     OW27142  10.179   6.717  10.117  0.0179 -0.5025  1.0945
 7486SOL    HW127143  10.199   6.788  10.178 -0.7759 -1.2914  2.3019
 7486SOL    HW227144  10.089   6.735  10.088 -0.5686 -1.5311  2.1877
 7487SOL     OW27145   9.350   3.726   9.767  0.0775 -0.5457 -0.4302
 7487SOL    HW127146   9.341   3.655   9.704 -0.0185 -1.2500  0.3470
 7487SOL    HW227147   9.329   3.685   9.851  1.0589  0.1433  0.1706
 7488SOL     OW27148  11.054   7.823  11.817 -0.8825  0.5571  0.5669
 7488SOL    HW127149  11.036   7.805  11.724 -0.5322  0.6939  0.4721
 7488SOL    HW227150  11.116   7.896  11.815 -0.7815  0.4784  0.9075
 7489SOL     OW27151  11.395   7.505   5.893  0.6914  0.2559  0.0063
 7489SOL    HW127152  11.465   7.563   5.863 -0.5146  1.2813 -0.9434
 7489SOL    HW227153  11.348   7.556   5.958 -0.5477  0.4918 -1.0346
 7490SOL     OW27154   3.935   6.726   0.986  0.0889 -0.2348  0.4746
 7490SOL    HW127155   3.881   6.663   0.939  0.9859 -0.2342 -0.5898
 7490SOL    HW227156   3.873   6.795   1.013 -0.3715  0.0661 -1.2363
 7491SOL     OW27157   5.559   3.447   5.852  0.4538 -0.3186 -0.3988
 7491SOL    HW127158   5.466   3.427   5.853  0.3203  0.2698 -0.8328
 7491SOL    HW227159   5.599   3.375   5.901 -0.3514  0.1076  0.9468
 7492SOL     OW27160  10.475   7.752   5.558 -0.0101 -0.1013 -0.8344
 7492SOL    HW127161  10.402   7.717   5.609 -0.3213 -0.2210 -1.3525
 7492SOL    HW227162  10.553   7.728   5.608 -0.2624 -0.9181 -0.8249
 7493SOL     OW27163   2.793   8.325   7.890  0.1717  0.3761 -0.5005
 7493SOL    HW127164   2.815   8.244   7.937 -1.7469 -0.9400 -1.6973
 7493SOL    HW227165   2.728   8.367   7.945 -0.1698  0.1579 -0.7322
 7494SOL     OW27166   6.821   2.546   7.252 -0.4847  0.4207  0.1419
 7494SOL    HW127167   6.880   2.576   7.322  1.1686  0.4344 -1.2019
 7494SOL    HW227168   6.781   2.467   7.288  1.1153 -0.1635  0.7435
 7495SOL     OW27169   1.565   9.624   0.719 -0.0244 -0.2828  0.3459
 7495SOL    HW127170   1.516   9.615   0.638 -0.0316  1.2391  0.1616
 7495SOL    HW227171   1.655   9.602   0.694  0.3227  1.9027 -0.5413
 7496SOL     OW27172  11.156   1.907   0.004  0.3355  0.2431  0.4215
 7496SOL    HW127173  11.108   1.846   0.059 -0.9557 -0.2738 -1.2073
 7496SOL    HW227174  11.230   1.856  -0.030 -0.2625 -0.2012 -0.2549
 7497SOL     OW27175   4.985   6.162   4.490  0.2926 -0.1068 -0.5543
 7497SOL    HW127176   5.039   6.083   4.499  1.0047  0.4095 -0.2676
 7497SOL    HW227177   4.897   6.134   4.518  0.9414 -0.3293  1.4446
 7498SOL     OW27178   9.149   2.304   1.207  0.7947 -0.1226 -0.5603
 7498SOL    HW127179   9.220   2.240   1.202  0.6611 -0.3875  0.7377
 7498SOL    HW227180   9.184   2.374   1.262  0.7498  0.6919 -1.5366
 7499SOL     OW27181  11.161   4.663   3.915  0.0765  0.0530  0.1547
 7499SOL    HW127182  11.221   4.709   3.974 -0.5961  1.1151  0.0328
 7499SOL    HW227183  11.183   4.696   3.828 -1.7110  1.6881  0.2626
 7500SOL     OW27184   4.172   3.195   3.584 -0.7335  0.0356 -0.3142
 7500SOL    HW127185   4.170   3.289   3.570 -1.9245 -0.0784 -1.0919
 7500SOL    HW227186   4.264   3.175   3.603 -0.3125  1.2290 -1.0014
 7501SOL     OW27187   5.172   7.960   9.878  0.5448  0.5748  0.2949
 7501SOL    HW127188   5.235   7.925   9.815 -0.4067  0.3764 -0.5660
 7501SOL    HW227189   5.177   7.900   9.952  1.4966  0.6631  0.3085
 7502SOL     OW27190   4.986   6.826  10.569  0.1777 -0.0898 -0.4616
 7502SOL    HW127191   5.014   6.773  10.495 -1.0589 -2.3867  0.6113
 7502SOL    HW227192   4.902   6.864  10.542  0.0197 -0.4429 -0.4713
 7503SOL     OW27193   6.113   4.861   3.458 -0.0149  0.0273  0.4772
 7503SOL    HW127194   6.194   4.810   3.454 -0.7654 -1.1261 -0.5474
 7503SOL    HW227195   6.064   4.824   3.531  0.2476  0.5359  0.9164
 7504SOL     OW27196   4.016   2.807   3.644 -0.5808  0.4165  0.0089
 7504SOL    HW127197   4.082   2.778   3.707 -1.3136 -0.0110  0.5841
 7504SOL    HW227198   3.961   2.868   3.693 -0.9557  0.3364 -0.3049
 7505SOL     OW27199   6.559   7.682  11.652 -0.6277  0.6068 -0.1249
 7505SOL    HW127200   6.497   7.632  11.705 -1.1899  2.4475  1.0687
 7505SOL    HW227201   6.503   7.729  11.589 -0.2607  0.7361 -0.3561
 7506SOL     OW27202   5.993  11.178   8.460 -0.1500  0.7963 -0.4408
 7506SOL    HW127203   6.012  11.147   8.371 -1.2151 -0.6193 -0.2046
 7506SOL    HW227204   5.904  11.213   8.456 -0.6586 -0.3440  0.2948
 7507SOL     OW27205   4.608   1.533   9.833 -0.0642 -0.3614 -0.0290
 7507SOL    HW127206   4.691   1.580   9.822 -0.3199 -0.1780 -1.4612
 7507SOL    HW227207   4.541   1.599   9.813 -0.5977 -0.3703  1.6033
 7508SOL     OW27208   5.091   1.161   3.610  0.5552 -0.4400  0.3045
 7508SOL    HW127209   5.071   1.070   3.632  2.2030 -0.8010  0.4365
 7508SOL    HW227210   5.060   1.212   3.684  2.0295 -1.1938  1.4894
 7509SOL     OW27211   9.813  10.156   6.224 -0.0442  0.4202 -0.4336
 7509SOL    HW127212   9.727  10.129   6.255  0.7421  0.0337  1.5511
 7509SOL    HW227213   9.821  10.117   6.137 -0.5938 -2.3915  0.6693
 7510SOL     OW27214   0.065  10.982  10.953 -0.0340  0.7125  0.2515
 7510SOL    HW127215   0.095  11.068  10.926 -1.8805  1.2838 -0.1562
 7510SOL    HW227216   0.057  10.987  11.048  0.4995  0.7494  0.2985
 7511SOL     OW27217   6.480   7.746   1.062 -0.0381  0.6887 -0.2485
 7511SOL    HW127218   6.507   7.838   1.056 -1.2150  1.1165  0.7735
 7511SOL    HW227219   6.412   7.744   1.129  0.8164 -1.1422  0.6530
 7512SOL     OW27220   6.512   3.317   5.368 -0.2353  0.3054  0.1201
 7512SOL    HW127221   6.497   3.294   5.276 -0.5212 -0.4689  0.3536
 7512SOL    HW227222   6.584   3.262   5.396 -0.8358 -0.2279  0.6485
 7513SOL     OW27223   8.954   7.798  10.363 -0.6060  0.4323 -0.3173
 7513SOL    HW127224   8.935   7.777  10.454  0.7337  1.4136  0.2121
 7513SOL    HW227225   8.908   7.881  10.347  0.4681  1.0961 -0.0314
 7514SOL     OW27226   9.185   2.105   6.773  0.1495 -0.1814  0.3242
 7514SOL    HW127227   9.230   2.055   6.705 -2.7910 -0.4088 -1.6102
 7514SOL    HW227228   9.136   2.039   6.823  0.7228  0.2122  1.4508
 7515SOL     OW27229   4.216   9.523  10.873  0.3134 -0.2838  0.4362
 7515SOL    HW127230   4.125   9.497  10.856  0.0578  0.2087  1.0006
 7515SOL    HW227231   4.266   9.480  10.804 -0.2891 -0.9439  0.3909
 7516SOL     OW27232   5.186   8.959  11.474 -0.2327 -0.5126  0.0682
 7516SOL    HW127233   5.156   8.965  11.383  0.6881  0.1175 -0.2196
 7516SOL    HW227234   5.282   8.968  11.467 -0.2838  1.6535  1.2572
 7517SOL     OW27235   5.989  11.639   3.309  0.1260  0.0724  0.1468
 7517SOL    HW127236   6.069  11.691   3.303 -0.4277  0.8273 -1.1482
 7517SOL    HW227237   5.929  11.681   3.248 -0.7908 -1.3164  0.0538
 7518SOL     OW27238  11.005   8.937  10.363 -0.1694 -0.3890  0.3350
 7518SOL    HW127239  11.093   8.905  10.344 -0.1087  0.4646 -0.8952
 7518SOL    HW227240  10.982   8.992  10.288 -1.1896  0.5517  1.3012
 7519SOL     OW27241   9.804   0.235   5.658 -0.0275  0.0209  0.0474
 7519SOL    HW127242   9.836   0.295   5.725  1.6124 -0.5955 -0.1282
 7519SOL    HW227243   9.782   0.291   5.584  0.0296  0.5297  0.4103
 7520SOL     OW27244   0.429  10.276  11.558  0.4538 -0.7661 -0.1166
 7520SOL    HW127245   0.381  10.247  11.480  0.9385  1.0555 -1.1524
 7520SOL    HW227246   0.362  10.288  11.625 -0.3223 -0.0653 -0.9918
 7521SOL     OW27247   6.411   5.404   7.376  0.4050 -0.4033  0.3984
 7521SOL    HW127248   6.403   5.308   7.369  0.6429 -0.4430  0.6517
 7521SOL    HW227249   6.339   5.430   7.433  0.8585 -0.5347  1.0505
 7522SOL     OW27250   9.722   0.016   0.743 -0.4522 -0.2779  0.5379
 7522SOL    HW127251   9.648   0.065   0.777 -0.5157 -0.3762  0.5418
 7522SOL    HW227252   9.767   0.078   0.685 -2.3156 -1.1129 -1.9944
 7523SOL     OW27253   3.172   7.027   5.231  0.2286  0.5836  0.5014
 7523SOL    HW127254   3.085   6.993   5.210  0.5731 -2.1475  2.9301
 7523SOL    HW227255   3.231   6.956   5.208  1.5350  1.3575  1.3808
 7524SOL     OW27256   9.600   2.521   2.126  0.4620  0.3783  0.2097
 7524SOL    HW127257   9.506   2.529   2.139  0.3869 -0.3646  0.1652
 7524SOL    HW227258   9.613   2.430   2.098  1.2534  0.2926  0.8093
 7525SOL     OW27259   7.366   7.840   3.943 -0.0954 -0.3029 -0.1591
 7525SOL    HW127260   7.339   7.932   3.937  2.0867  0.3366 -1.0458
 7525SOL    HW227261   7.406   7.832   4.029  1.0947  0.0269 -0.6549
 7526SOL     OW27262  11.065  11.072   6.839 -0.1628 -0.3510 -0.1955
 7526SOL    HW127263  11.106  11.077   6.753  0.4490 -0.1842  0.1005
 7526SOL    HW227264  10.979  11.112   6.827 -0.1349 -0.4475 -0.7559
 7527SOL     OW27265   0.841   2.833   2.598  0.4235  0.3070  0.4300
 7527SOL    HW127266   0.805   2.839   2.686 -1.0839  1.3559 -0.2093
 7527SOL    HW227267   0.844   2.924   2.567 -1.4634 -0.1946 -1.4673
 7528SOL     OW27268   0.650   6.365   9.984  0.1791 -0.3564  0.8304
 7528SOL    HW127269   0.620   6.289   9.933 -0.5165 -0.0662  0.7872
 7528SOL    HW227270   0.628   6.343  10.075 -0.6641  0.0738  0.7421
 7529SOL     OW27271   0.991   8.954   4.848  0.1770  0.3370  0.7293
 7529SOL    HW127272   1.027   8.918   4.929  1.3303 -0.0266  0.0797
 7529SOL    HW227273   0.958   9.041   4.873 -1.2812 -0.5236  1.9892
 7530SOL     OW27274  11.318  10.326   8.980  0.0913  0.1985 -0.2302
 7530SOL    HW127275  11.378  10.270   8.930  0.9164  0.2748  0.6377
 7530SOL    HW227276  11.240  10.272   8.993  0.5976 -0.4974 -0.0203
 7531SOL     OW27277   3.446   6.557  11.600  0.1477  0.0045 -0.4836
 7531SOL    HW127278   3.493   6.579  11.681  1.4619 -0.1717 -1.1635
 7531SOL    HW227279   3.470   6.466  11.582  2.0395  0.7984 -2.4235
 7532SOL     OW27280   4.588  11.845   0.862 -0.2970  0.1564  0.4587
 7532SOL    HW127281   4.514  11.849   0.923 -1.4524  0.7831 -0.9340
 7532SOL    HW227282   4.589  11.930   0.819  0.5362 -0.2364 -0.3430
 7533SOL     OW27283   9.140   1.831   9.737 -0.2204 -0.1029 -0.8359
 7533SOL    HW127284   9.207   1.795   9.678  0.7581  1.3654 -0.6544
 7533SOL    HW227285   9.106   1.907   9.690 -0.4973  0.1990 -0.1470
 7534SOL     OW27286   8.079   5.292  11.487  0.1426  0.2127 -0.4504
 7534SOL    HW127287   8.086   5.235  11.411  0.3374 -1.3658  0.6783
 7534SOL    HW227288   8.008   5.254  11.539 -0.7563  1.9229 -0.3583
 7535SOL     OW27289   3.038   5.940   5.213  0.2318  0.4282 -0.5377
 7535SOL    HW127290   3.066   6.007   5.151 -2.7588  1.3172 -1.0826
 7535SOL    HW227291   3.061   5.977   5.299 -0.9856  2.0388 -0.8478
 7536SOL     OW27292   0.671   5.017   1.004 -0.3728  0.6246  1.3988
 7536SOL    HW127293   0.629   4.989   0.923  0.7024 -1.1926  1.4333
 7536SOL    HW227294   0.629   5.101   1.025 -1.0808  0.8455 -0.7031
 7537SOL     OW27295   5.546   1.614   1.649 -0.5407  0.2753  0.5416
 7537SOL    HW127296   5.514   1.696   1.611 -0.2798  0.4493  0.6926
 7537SOL    HW227297   5.595   1.572   1.578  0.3968  0.8494  0.8256
 7538SOL     OW27298  10.035   4.401   7.824 -0.2673 -0.6147  0.5574
 7538SOL    HW127299   9.950   4.410   7.868 -0.0329  1.2942  0.6934
 7538SOL    HW227300  10.098   4.439   7.884  0.2836  0.5406 -0.6949
 7539SOL     OW27301  10.280   2.522   5.465 -0.1151 -0.1876 -0.5440
 7539SOL    HW127302  10.345   2.551   5.529 -0.9828  2.4297 -0.7308
 7539SOL    HW227303  10.331   2.498   5.388  0.6889  1.2257 -0.4815
 7540SOL     OW27304   6.692   2.624   8.962  0.3099 -0.5438 -0.3620
 7540SOL    HW127305   6.714   2.554   8.901 -1.1541 -1.4519  0.0990
 7540SOL    HW227306   6.602   2.649   8.938  0.1172 -0.1628  0.7091
 7541SOL     OW27307   2.871   2.124   9.249  1.1112  0.3490  0.0560
 7541SOL    HW127308   2.830   2.206   9.276  2.2408  1.3174 -1.0701
 7541SOL    HW227309   2.941   2.150   9.190  0.4617 -1.5103 -1.6517
 7542SOL     OW27310   5.335   8.097  11.048  0.1727 -0.1690 -0.1566
 7542SOL    HW127311   5.320   8.114  11.141 -0.0844  1.4402 -0.4631
 7542SOL    HW227312   5.412   8.150  11.027  1.1385 -1.6627 -0.5558
 7543SOL     OW27313   4.779  11.705   6.153  0.3166 -0.2412 -0.2899
 7543SOL    HW127314   4.708  11.767   6.139  1.0097  0.7850  0.5787
 7543SOL    HW227315   4.851  11.738   6.099  1.3449  0.9064  1.6369
 7544SOL     OW27316   0.745   6.762   6.029  0.5704 -0.0296  0.2342
 7544SOL    HW127317   0.757   6.686   6.086  0.8642 -0.6817 -0.6640
 7544SOL    HW227318   0.650   6.772   6.023  0.5110 -0.6881 -0.0805
 7545SOL     OW27319   4.253  11.716   8.800 -0.2798 -0.6957  0.5620
 7545SOL    HW127320   4.218  11.776   8.734  0.4773 -0.1765  0.6181
 7545SOL    HW227321   4.318  11.664   8.753 -0.6174 -1.1673  0.6175
 7546SOL     OW27322   1.251   4.714   8.325 -0.0268 -0.0728  0.2947
 7546SOL    HW127323   1.310   4.781   8.290 -0.2695 -0.0011  0.0154
 7546SOL    HW227324   1.273   4.635   8.276  0.6999 -0.3687  1.0679
 7547SOL     OW27325  10.579  10.362   1.584 -0.2891  0.2351 -0.1546
 7547SOL    HW127326  10.632  10.427   1.538  0.3675  1.1493  1.7668
 7547SOL    HW227327  10.643  10.300   1.618 -0.7171 -0.2134 -0.1666
 7548SOL     OW27328   3.334  10.950   0.803  0.5890 -0.4074 -0.4648
 7548SOL    HW127329   3.343  10.855   0.814  1.0243 -0.3770 -0.5120
 7548SOL    HW227330   3.311  10.982   0.890  0.5598 -0.5431 -0.4209
 7549SOL     OW27331   9.687   1.165   5.338 -0.1948  0.1825 -0.0331
 7549SOL    HW127332   9.678   1.153   5.243 -0.8396  1.7731 -0.2126
 7549SOL    HW227333   9.777   1.195   5.350 -0.7059  1.9724 -0.4145
 7550SOL     OW27334  10.784   0.117   9.119  0.1755 -0.3871  0.0047
 7550SOL    HW127335  10.848   0.094   9.052 -0.0510 -0.2361 -0.2607
 7550SOL    HW227336  10.806   0.059   9.193 -0.4215 -1.5170 -0.6772
 7551SOL     OW27337   6.005   3.242  10.325 -0.7578 -0.5712 -0.7061
 7551SOL    HW127338   6.056   3.318  10.351 -2.0141  0.3357 -0.8209
 7551SOL    HW227339   6.070   3.173  10.311  0.5819  0.9325 -2.2900
 7552SOL     OW27340   5.415   5.209   3.721  0.1184 -0.3673 -0.2169
 7552SOL    HW127341   5.322   5.189   3.714 -0.1379  0.8179 -0.4256
 7552SOL    HW227342   5.419   5.305   3.718  1.2291 -0.3428  1.0675
 7553SOL     OW27343   0.417   8.891   7.748 -0.2565  0.3440 -0.7458
 7553SOL    HW127344   0.394   8.798   7.739  2.7571 -1.2722  4.1214
 7553SOL    HW227345   0.342   8.930   7.793 -0.6363 -0.3293 -0.7790
 7554SOL     OW27346   8.045   5.817   9.787 -0.3252 -0.3355  0.0428
 7554SOL    HW127347   8.083   5.904   9.793 -0.9487 -0.1220  1.0653
 7554SOL    HW227348   8.008   5.800   9.873 -0.9223 -1.2890 -0.3770
 7555SOL     OW27349   2.353   6.694   0.807 -0.1250 -0.4112 -0.5072
 7555SOL    HW127350   2.301   6.703   0.887 -0.2821  0.8149 -0.7257
 7555SOL    HW227351   2.290   6.710   0.737  0.2458 -0.3536 -0.8282
 7556SOL     OW27352   5.049   9.221   1.886  0.2145  0.2653 -0.2845
 7556SOL    HW127353   5.047   9.174   1.803 -0.0098 -0.3690  0.0676
 7556SOL    HW227354   5.074   9.310   1.863  2.2711 -0.3765 -0.8102
 7557SOL     OW27355  10.665   3.024  11.473 -0.3063 -0.0299 -0.1238
 7557SOL    HW127356  10.747   3.067  11.449 -0.6082  0.8455  0.3973
 7557SOL    HW227357  10.645   2.967  11.399  0.3131  0.4137 -0.6381
 7558SOL     OW27358   6.167   2.419   2.504  0.1645 -0.4519  0.2810
 7558SOL    HW127359   6.146   2.326   2.510  0.3391 -0.6148 -1.1699
 7558SOL    HW227360   6.253   2.421   2.461 -1.2299  0.4173 -2.7067
 7559SOL     OW27361   9.618   2.562   1.696 -0.6741  0.0379  0.3995
 7559SOL    HW127362   9.595   2.513   1.776  2.8225 -0.1217  1.4701
 7559SOL    HW227363   9.678   2.630   1.726  0.1057  0.5008 -2.0009
 7560SOL     OW27364  11.012   7.021   4.307 -0.4900 -0.4534 -0.3805
 7560SOL    HW127365  11.106   7.028   4.322 -0.7209 -0.0244  0.9147
 7560SOL    HW227366  10.972   7.080   4.371 -1.6570 -0.8331 -0.7292
 7561SOL     OW27367   8.121   9.062   3.213 -0.5520  0.0658 -0.5607
 7561SOL    HW127368   8.081   9.117   3.281  0.3698  0.0553  0.0069
 7561SOL    HW227369   8.187   9.118   3.173 -1.6859  0.3662 -2.0782
 7562SOL     OW27370  11.996   8.640   5.893  0.3815  0.3324 -0.5344
 7562SOL    HW127371  12.080   8.644   5.846  0.2986  0.0973 -0.7088
 7562SOL    HW227372  11.933   8.614   5.825  0.1826  0.4278 -0.3856
 7563SOL     OW27373   3.489   8.878   3.597  1.2171 -0.3856 -0.2133
 7563SOL    HW127374   3.442   8.797   3.619  2.1593 -0.8439  0.1612
 7563SOL    HW227375   3.455   8.942   3.660  1.3654 -0.8147  0.3184
 7564SOL     OW27376   1.979  10.566   1.560  0.8253  0.0462  0.0182
 7564SOL    HW127377   1.888  10.588   1.541  1.3443  1.3450 -1.1692
 7564SOL    HW227378   1.991  10.480   1.519  0.0063 -0.3731  0.6395
 7565SOL     OW27379   6.119   4.323  11.157 -0.2437 -0.3897 -0.1452
 7565SOL    HW127380   6.142   4.272  11.079  1.2042  1.4792 -1.0304
 7565SOL    HW227381   6.024   4.331  11.153 -0.2708 -0.9802 -1.3122
 7566SOL     OW27382   4.537  11.278   1.269 -0.4840  0.3479 -0.2203
 7566SOL    HW127383   4.486  11.331   1.330 -1.3387 -1.4567  0.6955
 7566SOL    HW227384   4.608  11.336   1.240  0.3130  1.0900  2.9161
 7567SOL     OW27385   6.478  11.047  10.089  0.1129  0.0638  0.5786
 7567SOL    HW127386   6.560  10.999  10.097  0.1226  0.1864  1.2603
 7567SOL    HW227387   6.413  10.992  10.131 -0.3471 -0.4572 -0.7480
 7568SOL     OW27388   3.525   2.448   3.844  0.4502 -0.0703 -0.2838
 7568SOL    HW127389   3.549   2.357   3.864 -0.7787  0.1145  2.4766
 7568SOL    HW227390   3.430   2.445   3.830  0.3697  0.8005  0.0145
 7569SOL     OW27391   2.644   0.809  11.036  0.4184 -0.3973 -0.1096
 7569SOL    HW127392   2.558   0.801  11.078  1.0345 -0.4236  1.1874
 7569SOL    HW227393   2.641   0.747  10.964 -1.1866  0.6822 -1.0232
 7570SOL     OW27394   5.544   2.559  11.275  0.2062 -0.2020 -0.2429
 7570SOL    HW127395   5.615   2.624  11.271 -0.5545  0.6401 -0.4561
 7570SOL    HW227396   5.464   2.610  11.263 -0.4918 -1.0554  0.5882
 7571SOL     OW27397  11.155   0.311   8.985 -0.5345 -0.4023  0.4680
 7571SOL    HW127398  11.093   0.299   9.057  0.5889 -2.1556  1.1850
 7571SOL    HW227399  11.186   0.401   8.996 -0.7124 -0.4867  1.9025
 7572SOL     OW27400   3.208   3.227   9.898 -0.3098 -0.4045  0.1609
 7572SOL    HW127401   3.247   3.281   9.967  0.5374 -0.9245  0.1002
 7572SOL    HW227402   3.121   3.265   9.884  0.3336  1.0516 -0.0039
 7573SOL     OW27403   4.742   5.982  10.955 -0.6760  0.8400 -0.1244
 7573SOL    HW127404   4.837   5.974  10.951 -0.7373  0.0021 -0.2489
 7573SOL    HW227405   4.712   5.895  10.982 -1.4593  0.8123 -1.0195
 7574SOL     OW27406   9.054   0.359   1.757  0.2351  0.6086  0.2750
 7574SOL    HW127407   9.107   0.432   1.789  1.4313  0.2808 -0.8662
 7574SOL    HW227408   9.094   0.335   1.674  0.5363 -2.0026  1.0749
 7575SOL     OW27409   3.112   8.089   4.126 -0.4673 -0.1509 -0.0649
 7575SOL    HW127410   3.122   8.151   4.053  0.3701  0.0647  0.2156
 7575SOL    HW227411   3.026   8.109   4.163 -1.0852 -0.5384 -1.2368
 7576SOL     OW27412   3.798   2.802  11.118 -0.3786 -0.3451 -0.4521
 7576SOL    HW127413   3.786   2.758  11.202 -0.6494  0.1786 -0.2092
 7576SOL    HW227414   3.888   2.780  11.093 -0.4504 -0.8843 -0.2518
 7577SOL     OW27415   6.755  10.028   3.280  0.1650 -0.3103 -0.7344
 7577SOL    HW127416   6.678  10.037   3.223  0.9101 -1.4935 -2.0078
 7577SOL    HW227417   6.757   9.935   3.302 -0.5926  0.2489  2.0394
 7578SOL     OW27418   1.056  11.669   2.303 -0.5088  0.6333 -0.1042
 7578SOL    HW127419   1.078  11.745   2.250 -0.5173  0.1354 -0.8305
 7578SOL    HW227420   0.986  11.625   2.255 -1.3880  0.8379  0.9288
 7579SOL     OW27421   6.107   9.961   9.063  0.1334 -0.0720 -0.6419
 7579SOL    HW127422   6.088   9.924   8.976  1.2415  0.1789 -1.0111
 7579SOL    HW227423   6.193   9.925   9.086  0.6894  1.3133 -0.4817
 7580SOL     OW27424   4.601   0.596   9.127 -0.0294 -0.1887  0.0075
 7580SOL    HW127425   4.583   0.527   9.191  1.1110  0.4555  1.0741
 7580SOL    HW227426   4.581   0.678   9.174  1.3633  0.3208 -0.2167
 7581SOL     OW27427   4.783   7.665   5.884 -0.4841  0.0026 -0.1373
 7581SOL    HW127428   4.737   7.587   5.916  0.2078 -0.6442 -0.6676
 7581SOL    HW227429   4.790   7.722   5.961 -0.0880 -0.9109  0.5281
 7582SOL     OW27430  10.366   2.586   7.768  0.0081  0.2666  0.3186
 7582SOL    HW127431  10.372   2.623   7.680 -2.1180 -0.7441 -0.3139
 7582SOL    HW227432  10.448   2.612   7.811  1.0159  0.9186 -1.8772
 7583SOL     OW27433   5.102   0.421   9.780 -0.3176 -0.1955 -0.0760
 7583SOL    HW127434   5.156   0.479   9.726 -1.1727  0.7355  0.0329
 7583SOL    HW227435   5.164   0.377   9.838  0.3117  1.0413  0.2230
 7584SOL     OW27436   2.693   8.731   7.872 -0.0030 -0.1946  0.1773
 7584SOL    HW127437   2.670   8.723   7.964 -1.8288  0.6417 -0.1412
 7584SOL    HW227438   2.670   8.646   7.834  0.3399 -0.3942  0.4119
 7585SOL     OW27439  11.880  11.104   8.740  0.5354 -0.4352  0.3909
 7585SOL    HW127440  11.826  11.070   8.812  1.5378 -0.5604  1.1054
 7585SOL    HW227441  11.903  11.027   8.689  1.0506 -0.5468  0.7898
 7586SOL     OW27442   7.721   2.075   7.058 -0.3210 -0.1516  0.3037
 7586SOL    HW127443   7.653   2.142   7.049  0.4365  0.6101  0.1676
 7586SOL    HW227444   7.792   2.105   7.002  0.1105 -0.9794  0.3934
 7587SOL     OW27445   4.888   4.666   8.841 -0.0312 -0.0057  0.4793
 7587SOL    HW127446   4.906   4.699   8.930 -1.1462  2.2093 -0.0559
 7587SOL    HW227447   4.964   4.611   8.821  1.4787  1.4400  1.8758
 7588SOL     OW27448   1.235   1.195   7.140 -0.5433 -0.3665 -0.2165
 7588SOL    HW127449   1.219   1.167   7.230 -1.3443 -0.2957 -0.3244
 7588SOL    HW227450   1.314   1.249   7.145 -0.8063 -0.0319  0.5168
 7589SOL     OW27451   2.138   7.006   3.329 -0.2131 -0.3769  0.2660
 7589SOL    HW127452   2.098   6.950   3.262  0.0941  2.3315 -2.4210
 7589SOL    HW227453   2.064   7.056   3.365 -0.2637 -1.2372  1.3926
 7590SOL     OW27454   7.819  11.281  10.396 -0.9007  0.5133  0.1996
 7590SOL    HW127455   7.863  11.353  10.350 -0.3179  0.7949  1.1566
 7590SOL    HW227456   7.764  11.324  10.461 -0.9688  0.1053  0.4174
 7591SOL     OW27457   0.017   3.290   8.258 -0.5635 -0.3028 -0.6121
 7591SOL    HW127458   0.002   3.219   8.195 -1.9365  0.1060 -0.7924
 7591SOL    HW227459  -0.070   3.329   8.270 -0.2587 -0.0973  1.2112
 7592SOL     OW27460   2.232  11.373   4.906 -0.1827 -0.2816  0.0664
 7592SOL    HW127461   2.250  11.280   4.894  2.5858  0.4222 -2.3402
 7592SOL    HW227462   2.313  11.409   4.942 -1.6928  1.0631  2.4425
 7593SOL     OW27463   1.441   8.463   7.508 -0.0285 -0.0464  0.0844
 7593SOL    HW127464   1.493   8.437   7.431 -0.9770 -2.0259  0.0530
 7593SOL    HW227465   1.447   8.559   7.509  0.1066  0.0488 -2.3974
 7594SOL     OW27466   9.842   3.784  10.571 -0.3082 -0.2318  0.3815
 7594SOL    HW127467   9.898   3.808  10.646  0.3679  0.3664 -0.3026
 7594SOL    HW227468   9.882   3.828  10.496 -1.2143 -0.4983 -0.2730
 7595SOL     OW27469   0.140   0.991   8.888  0.0232 -0.4409  0.3522
 7595SOL    HW127470   0.150   1.082   8.859  0.6657 -0.7758 -0.5497
 7595SOL    HW227471   0.121   0.997   8.981  0.0846  0.6202  0.3070
 7596SOL     OW27472  11.489  11.030   9.304  0.4832 -0.2975 -0.5597
 7596SOL    HW127473  11.567  11.066   9.346 -0.4505  0.9045  0.1680
 7596SOL    HW227474  11.494  10.936   9.322  1.1611 -0.0772  0.4568
 7597SOL     OW27475   0.031   6.150   0.794 -0.1478 -0.1200 -0.1121
 7597SOL    HW127476   0.117   6.149   0.751  0.4146  1.0449  0.9162
 7597SOL    HW227477  -0.032   6.143   0.722  0.7627  1.6438 -1.1449
 7598SOL     OW27478  10.385   2.591  10.367 -0.0568 -0.1302 -0.1350
 7598SOL    HW127479  10.450   2.626  10.305  0.7860 -0.9183  0.2724
 7598SOL    HW227480  10.345   2.668  10.406 -1.6876  0.4331 -2.6990
 7599SOL     OW27481  10.121   2.361   2.050  0.1877  0.1697 -0.0657
 7599SOL    HW127482  10.093   2.273   2.027 -1.6127  0.3237  1.3089
 7599SOL    HW227483  10.070   2.383   2.128  0.4285  2.5129 -0.4905
 7600SOL     OW27484  11.438  10.242   0.462 -0.6898 -0.3783 -0.4778
 7600SOL    HW127485  11.435  10.305   0.533 -2.8485 -1.0166  0.0741
 7600SOL    HW227486  11.452  10.295   0.383 -0.5277  0.5786  0.1856
 7601SOL     OW27487   6.283   9.864   2.381  0.1650 -0.6701 -0.9102
 7601SOL    HW127488   6.212   9.906   2.333 -2.4304 -1.5898  1.8066
 7601SOL    HW227489   6.279   9.772   2.355 -0.4157 -0.9286  0.0417
 7602SOL     OW27490   8.316   8.910  11.533 -0.2215  0.1975  0.0987
 7602SOL    HW127491   8.371   8.853  11.586 -1.0613 -0.7442 -0.0355
 7602SOL    HW227492   8.304   8.988  11.587  1.1597  0.3955  0.1687
 7603SOL     OW27493   5.277   7.058  10.820  0.2971 -0.5126 -0.6717
 7603SOL    HW127494   5.269   7.126  10.887  1.1542 -0.6117 -0.4714
 7603SOL    HW227495   5.186   7.036  10.798  0.0059 -0.6864  0.6561
 7604SOL     OW27496   0.258   3.107   1.806  0.0918 -0.0534  0.5950
 7604SOL    HW127497   0.347   3.130   1.832 -0.1805  1.4541  0.2352
 7604SOL    HW227498   0.203   3.174   1.846 -0.7199  0.0075 -0.5986
 7605SOL     OW27499   1.465   7.360   1.888 -0.2446  0.1561 -0.1001
 7605SOL    HW127500   1.541   7.409   1.856 -0.1381 -0.3901 -0.7046
 7605SOL    HW227501   1.476   7.360   1.983  0.7985 -0.3510 -0.2036
 7606SOL     OW27502   1.687   6.510   2.893 -0.1504  0.4770 -0.1769
 7606SOL    HW127503   1.719   6.445   2.954  0.1651  1.3050  0.5659
 7606SOL    HW227504   1.592   6.498   2.892  0.0667 -2.6874 -3.1773
 7607SOL     OW27505   9.584   7.342   6.606  0.2264 -0.2752  0.0087
 7607SOL    HW127506   9.500   7.360   6.563 -0.4572  2.1944  2.1261
 7607SOL    HW227507   9.610   7.257   6.571 -2.4350 -0.5017 -1.8095
 7608SOL     OW27508   5.386   0.238   8.247 -0.3632 -0.1138 -0.2219
 7608SOL    HW127509   5.341   0.230   8.163 -0.1218 -2.2072 -0.2244
 7608SOL    HW227510   5.319   0.219   8.312  0.2668 -2.7278 -0.2028
 7609SOL     OW27511   1.710   8.674   4.249 -0.4087  0.1032  0.2095
 7609SOL    HW127512   1.696   8.597   4.194 -1.6658 -0.0814  0.7501
 7609SOL    HW227513   1.622   8.696   4.282  0.3376 -0.0230  2.4342
 7610SOL     OW27514   7.044   2.321   5.768 -0.4298 -0.6850 -0.1115
 7610SOL    HW127515   7.094   2.296   5.690  0.0777 -0.9712  0.2976
 7610SOL    HW227516   7.077   2.408   5.791 -0.7839 -0.4786 -0.3809
 7611SOL     OW27517   0.343   2.493   6.483  0.3823  0.5198 -0.7287
 7611SOL    HW127518   0.368   2.425   6.545  1.1376  1.1827 -0.2861
 7611SOL    HW227519   0.413   2.492   6.417  0.3054  0.7430 -0.8162
 7612SOL     OW27520   4.694  11.978   8.774 -0.2638 -0.7588  0.1821
 7612SOL    HW127521   4.708  12.041   8.703 -0.4366 -0.0417  0.7699
 7612SOL    HW227522   4.759  11.910   8.759 -0.3546 -0.6553 -0.7123
 7613SOL     OW27523  11.180   5.715   4.470  0.2499  0.6934  0.3032
 7613SOL    HW127524  11.246   5.764   4.422  1.5980 -0.8495  0.4812
 7613SOL    HW227525  11.132   5.667   4.402  1.1265 -0.2797  0.3515
 7614SOL     OW27526   9.059   4.700   3.789 -0.0442 -0.1627 -0.0505
 7614SOL    HW127527   9.067   4.640   3.863 -1.1813 -1.0893 -0.6244
 7614SOL    HW227528   8.979   4.671   3.744  1.6737 -0.9860 -2.8203
 7615SOL     OW27529   7.470   5.577   3.869 -0.0593 -0.1580 -0.2296
 7615SOL    HW127530   7.506   5.493   3.896  2.1624  1.1821  1.4148
 7615SOL    HW227531   7.415   5.604   3.942  0.1785  0.3047 -0.2160
 7616SOL     OW27532  11.340  11.570   0.938 -0.1213 -0.2912 -0.6704
 7616SOL    HW127533  11.435  11.566   0.946 -0.0018  2.3594  0.2201
 7616SOL    HW227534  11.308  11.563   1.028 -0.8067 -1.2291 -0.9672
 7617SOL     OW27535   8.256  10.574   9.143 -0.2434  0.4492  0.2882
 7617SOL    HW127536   8.194  10.603   9.209  0.4734  0.1421  1.1140
 7617SOL    HW227537   8.276  10.652   9.091 -1.1773  0.5826  0.1220
 7618SOL     OW27538   8.668   7.534   3.961  0.6185  0.2637 -0.2835
 7618SOL    HW127539   8.672   7.520   3.866 -1.8364 -0.3982 -0.3551
 7618SOL    HW227540   8.645   7.626   3.971  0.5104  0.2450 -0.3526
 7619SOL     OW27541   1.419   2.513  11.215  0.7553  0.5152 -0.2001
 7619SOL    HW127542   1.351   2.551  11.159  1.4013  0.0540 -1.3383
 7619SOL    HW227543   1.478   2.586  11.233 -0.6908  1.2488  1.9022
 7620SOL     OW27544   5.935  11.647   5.416 -0.0884 -0.8643  0.4873
 7620SOL    HW127545   5.885  11.720   5.380 -0.1833 -0.7001  0.9425
 7620SOL    HW227546   5.957  11.593   5.341 -0.0384 -0.3766  0.1481
 7621SOL     OW27547   1.103   9.556  11.448 -0.3037 -0.0238  0.2874
 7621SOL    HW127548   1.153   9.622  11.495 -2.0946  0.9038  1.0161
 7621SOL    HW227549   1.108   9.583  11.356 -0.0581  0.4529  0.4386
 7622SOL     OW27550   9.300   4.730  10.619  0.2162  0.4262  0.3213
 7622SOL    HW127551   9.253   4.648  10.631  2.0745 -0.3563  3.4305
 7622SOL    HW227552   9.355   4.715  10.543 -1.0453 -0.3793 -0.4642
 7623SOL     OW27553   4.142   2.150   6.583  0.6643 -0.3558 -0.1781
 7623SOL    HW127554   4.236   2.151   6.562  0.4264 -2.3654 -1.7314
 7623SOL    HW227555   4.115   2.059   6.568 -1.3798 -0.0303  1.0768
 7624SOL     OW27556   1.635   0.164   8.443 -0.7493 -0.3730  0.2987
 7624SOL    HW127557   1.642   0.072   8.419 -1.4216 -0.9561  2.1935
 7624SOL    HW227558   1.571   0.200   8.382  0.2154 -0.8986 -1.0718
 7625SOL     OW27559   8.428   2.571  11.875  0.1484  0.0652 -0.3332
 7625SOL    HW127560   8.424   2.523  11.792 -0.2440 -0.3436 -0.0842
 7625SOL    HW227561   8.336   2.589  11.896  0.2852  0.7600 -0.3295
 7626SOL     OW27562   4.965   0.062   6.147 -0.4057 -0.7303 -0.0173
 7626SOL    HW127563   5.001  -0.008   6.201 -0.9571 -0.9688  0.0450
 7626SOL    HW227564   5.022   0.066   6.070  1.0369  0.3108  1.0479
 7627SOL     OW27565  10.245  10.614  11.814 -0.1770  0.1005  0.2691
 7627SOL    HW127566  10.221  10.694  11.768  0.6025 -0.5398 -1.3078
 7627SOL    HW227567  10.165  10.590  11.862 -0.9182  0.9480 -0.4976
 7628SOL     OW27568   1.538   8.971   9.356  0.4926 -0.5067 -0.2511
 7628SOL    HW127569   1.614   8.941   9.405 -1.0638 -0.0430  2.6841
 7628SOL    HW227570   1.569   9.045   9.305  2.1820 -0.8753  0.1947
 7629SOL     OW27571   8.483   0.998  11.081 -0.1998  0.2199 -0.2338
 7629SOL    HW127572   8.460   1.080  11.123  1.6914  0.1499  1.0351
 7629SOL    HW227573   8.493   1.021  10.988 -0.9014  1.1311 -0.1011
 7630SOL     OW27574   9.162   8.730  11.072 -0.5287 -0.2235 -0.5040
 7630SOL    HW127575   9.218   8.659  11.103 -2.9397 -2.3351 -0.5582
 7630SOL    HW227576   9.207   8.810  11.097  2.2053 -1.7536 -0.1559
 7631SOL     OW27577   8.990   5.853   6.705 -0.8158  0.4127 -0.2475
 7631SOL    HW127578   9.078   5.882   6.683 -0.9349  0.4479 -0.7016
 7631SOL    HW227579   8.937   5.933   6.703 -0.3387  0.9095  2.9959
 7632SOL     OW27580   1.264   5.279   2.476  0.1527  0.2382  0.5125
 7632SOL    HW127581   1.293   5.240   2.394  0.0776 -1.3846  1.2091
 7632SOL    HW227582   1.250   5.204   2.534  1.9409  1.3737  2.5825
 7633SOL     OW27583   1.293   2.430   0.175 -0.1534 -0.1616 -0.1798
 7633SOL    HW127584   1.327   2.513   0.208 -0.2403  0.5781 -1.8630
 7633SOL    HW227585   1.224   2.406   0.238  0.5340  0.5146  0.8673
 7634SOL     OW27586   0.094   2.682   4.391 -0.3134  0.5946  0.2264
 7634SOL    HW127587   0.186   2.695   4.413  0.6252 -3.5922 -0.5615
 7634SOL    HW227588   0.081   2.733   4.311  1.4456  0.8956  0.0939
 7635SOL     OW27589   1.986   7.156   9.168 -0.5905 -0.6706  0.2851
 7635SOL    HW127590   1.960   7.224   9.229 -0.7372 -0.1869 -0.3118
 7635SOL    HW227591   1.983   7.075   9.219 -1.2239 -0.3425  0.7733
 7636SOL     OW27592   1.677   6.909   1.641 -0.7259  0.2598 -0.6688
 7636SOL    HW127593   1.720   6.993   1.660  1.9319 -1.1535  0.0625
 7636SOL    HW227594   1.632   6.887   1.722 -2.5762  1.5323 -1.2853
 7637SOL     OW27595   7.916   1.931  11.946 -0.3550 -0.2790  0.0289
 7637SOL    HW127596   7.829   1.915  11.911  0.2941 -1.2315 -1.2405
 7637SOL    HW227597   7.929   1.863  12.012 -0.4654 -0.3122  0.0156
 7638SOL     OW27598   3.168  11.412   5.244 -0.7821  0.0269 -0.1530
 7638SOL    HW127599   3.230  11.394   5.173  0.0004 -2.2099  0.9988
 7638SOL    HW227600   3.175  11.507   5.257  0.7811  0.1634 -1.5003
 7639SOL     OW27601   7.036  11.555   2.201  0.1471  0.2923 -0.1512
 7639SOL    HW127602   7.103  11.499   2.240  0.9616 -0.0807 -1.9910
 7639SOL    HW227603   7.083  11.635   2.176 -0.6969  1.2078  1.0513
 7640SOL     OW27604   7.262   4.870   8.091  0.0297  0.6048  0.2728
 7640SOL    HW127605   7.333   4.931   8.108 -1.4672  2.2788  0.7700
 7640SOL    HW227606   7.230   4.892   8.004 -1.5054  1.6068  1.0557
 7641SOL     OW27607  11.361   8.450   7.426 -0.4699  0.2411 -0.1110
 7641SOL    HW127608  11.350   8.434   7.520  1.3378  0.4606  0.1889
 7641SOL    HW227609  11.293   8.513   7.404 -0.9319  0.1746  1.0562
 7642SOL     OW27610  10.397  10.706   1.544 -0.2028  0.3928 -0.0336
 7642SOL    HW127611  10.441  10.637   1.495  0.6957  0.6881  0.3183
 7642SOL    HW227612  10.336  10.745   1.482 -1.0187 -0.9681 -0.1148
 7643SOL     OW27613   3.743   3.211   6.343 -0.3331 -0.0831 -0.3621
 7643SOL    HW127614   3.763   3.241   6.254 -1.4027  0.3570 -0.4778
 7643SOL    HW227615   3.667   3.154   6.331 -1.3881  1.1032  0.3999
 7644SOL     OW27616  10.791   2.542   9.513  0.3190  0.5478 -0.0857
 7644SOL    HW127617  10.743   2.486   9.451  0.4149  1.7284 -1.2751
 7644SOL    HW227618  10.725   2.603   9.545 -0.1202 -1.0451  2.2955
 7645SOL     OW27619   7.666   0.697   2.773  0.0681  0.0737  0.3768
 7645SOL    HW127620   7.746   0.669   2.818  0.0845  1.1311  1.0484
 7645SOL    HW227621   7.697   0.747   2.697  0.0355 -0.8700 -0.2728
 7646SOL     OW27622   5.312  10.062   3.275 -0.2479  0.4150 -0.0747
 7646SOL    HW127623   5.291  10.155   3.268  1.1429  0.7265 -0.3710
 7646SOL    HW227624   5.403  10.060   3.302 -1.3715 -0.8521  4.3733
 7647SOL     OW27625  10.048  10.624   5.226  0.0580 -0.2405  0.2336
 7647SOL    HW127626  10.085  10.661   5.146  1.6878 -0.2088  0.9673
 7647SOL    HW227627  10.026  10.701   5.279  0.1819 -0.2767  0.3370
 7648SOL     OW27628   5.724   2.126   6.036 -0.6676  0.0709  0.0909
 7648SOL    HW127629   5.788   2.153   5.970 -1.2978  1.2596 -0.0583
 7648SOL    HW227630   5.651   2.091   5.986 -1.0108  0.6782  0.1497
 7649SOL     OW27631  10.660   1.460   7.864  0.0313 -0.5229  0.0378
 7649SOL    HW127632  10.579   1.512   7.864 -0.4608 -1.2645  0.1212
 7649SOL    HW227633  10.690   1.463   7.955 -0.5073 -1.1445  0.2433
 7650SOL     OW27634   3.405   2.594   7.197  0.5615  0.7532 -0.0544
 7650SOL    HW127635   3.383   2.662   7.261 -0.0554  0.3635  0.1630
 7650SOL    HW227636   3.499   2.583   7.204  0.2797 -0.7433  2.2987
 7651SOL     OW27637   7.036  10.530   9.665  0.0222  0.0901 -0.6097
 7651SOL    HW127638   7.089  10.571   9.734 -1.0438  1.1025 -0.3566
 7651SOL    HW227639   7.048  10.436   9.679  1.4254  0.2840 -0.3278
 7652SOL     OW27640   5.018   1.758   4.880  0.1319  0.3529 -0.5325
 7652SOL    HW127641   4.978   1.823   4.938 -1.4305  0.5255 -1.7356
 7652SOL    HW227642   5.043   1.686   4.938  1.2259  1.6942  0.7173
 7653SOL     OW27643   3.270   4.992   7.670 -0.1528  0.2988  0.3697
 7653SOL    HW127644   3.235   4.933   7.737 -0.3481  0.9344  0.8327
 7653SOL    HW227645   3.329   5.050   7.718 -1.3519  1.6617  0.2608
 7654SOL     OW27646   3.071   8.116   4.443  0.0434 -0.3120  0.1719
 7654SOL    HW127647   3.144   8.178   4.438 -1.7211  1.8440 -1.6059
 7654SOL    HW227648   3.051   8.095   4.351 -1.0718 -1.4638  0.6442
 7655SOL     OW27649   0.263  10.064   1.363  0.3760 -0.1417  0.1928
 7655SOL    HW127650   0.223  10.054   1.277  0.2615  2.6549 -0.1786
 7655SOL    HW227651   0.346  10.018   1.358 -0.7406 -2.1904 -0.5187
 7656SOL     OW27652   7.337   6.543   2.060 -0.0457 -0.7248  0.0326
 7656SOL    HW127653   7.333   6.597   1.981 -0.1741  0.2135  0.6642
 7656SOL    HW227654   7.251   6.554   2.101  0.8394  0.8397  1.5979
 7657SOL     OW27655  11.734   2.614   5.277 -1.0624 -0.2002  0.1532
 7657SOL    HW127656  11.680   2.673   5.330 -0.6679  0.3056  0.0048
 7657SOL    HW227657  11.761   2.668   5.203 -1.3730 -0.8179 -0.4166
 7658SOL     OW27658   0.616   1.666   3.942  0.0701 -0.3014 -0.0909
 7658SOL    HW127659   0.591   1.704   4.026  0.0842  0.5566 -0.4609
 7658SOL    HW227660   0.709   1.687   3.933 -0.0750  0.1601 -0.5932
 7659SOL     OW27661  11.014   8.765   5.411 -0.0036 -0.1630 -0.1150
 7659SOL    HW127662  11.072   8.794   5.481  0.0035 -0.4726  0.0100
 7659SOL    HW227663  10.926   8.789   5.441  0.0705  0.5051 -0.4026
 7660SOL     OW27664   3.174   4.316   4.675 -0.3969  0.3624 -0.2066
 7660SOL    HW127665   3.116   4.357   4.739 -0.1289  0.4010  0.0170
 7660SOL    HW227666   3.238   4.384   4.654  0.8393 -0.3212  1.1508
 7661SOL     OW27667  10.872   9.734   7.877  0.4460  0.1403 -0.0527
 7661SOL    HW127668  10.795   9.732   7.935  0.0454  1.3293 -0.4966
 7661SOL    HW227669  10.888   9.827   7.863 -0.6930 -0.0186 -3.3903
 7662SOL     OW27670   8.997  10.031   1.269 -0.3627 -0.4116 -0.7316
 7662SOL    HW127671   8.925  10.053   1.210 -1.8459 -1.0595  0.7774
 7662SOL    HW227672   9.019   9.941   1.247 -1.6295 -1.0130  0.3774
 7663SOL     OW27673   3.005   4.986  10.073 -0.6149 -0.2371 -0.2088
 7663SOL    HW127674   3.021   5.005   9.980  0.6692 -0.9112 -0.1381
 7663SOL    HW227675   2.918   4.947  10.075 -0.6952 -0.1237 -1.1124
 7664SOL     OW27676   3.266  10.080   3.422  0.1433  0.2767 -0.2785
 7664SOL    HW127677   3.256  10.000   3.474 -3.2605 -1.2819 -2.9116
 7664SOL    HW227678   3.274  10.150   3.486  2.9551 -2.0143  2.1698
 7665SOL     OW27679   6.224   0.046   4.103 -0.0242 -0.7490 -0.3532
 7665SOL    HW127680   6.211  -0.021   4.171 -1.3475 -0.9262 -0.7672
 7665SOL    HW227681   6.199   0.003   4.022  0.3702 -0.1425 -0.8088
 7666SOL     OW27682   1.077   2.558   3.593  0.2118 -0.2393  0.2154
 7666SOL    HW127683   1.134   2.614   3.540  0.2326  0.1811  0.6807
 7666SOL    HW227684   1.042   2.616   3.660  0.5269 -0.8583  0.9329
 7667SOL     OW27685   1.388   7.574   5.318  0.1439 -0.1613  0.2806
 7667SOL    HW127686   1.362   7.659   5.354 -0.3907 -0.5797  0.8997
 7667SOL    HW227687   1.467   7.593   5.267  0.2676  0.6438  0.7481
 7668SOL     OW27688  11.543   3.748   8.902 -0.6544 -0.1731  0.4190
 7668SOL    HW127689  11.525   3.785   8.816  1.7345  0.1115 -0.0170
 7668SOL    HW227690  11.573   3.659   8.884  1.5136  0.4215  0.7182
 7669SOL     OW27691   2.219   7.008   4.943  0.4138 -0.5471 -0.0572
 7669SOL    HW127692   2.153   6.954   4.986 -0.9385  0.6220 -0.5939
 7669SOL    HW227693   2.210   6.988   4.850 -0.2796  0.7515 -0.2880
 7670SOL     OW27694   7.634  10.283   2.323  0.0555 -0.3206 -0.2565
 7670SOL    HW127695   7.715  10.233   2.311  0.6787  0.6316 -0.1779
 7670SOL    HW227696   7.568  10.218   2.345  0.7426 -1.1489 -0.5939
 7671SOL     OW27697   9.121  10.737   8.222 -0.1254  0.5106  0.0984
 7671SOL    HW127698   9.093  10.711   8.134  0.1942  0.0645  0.1254
 7671SOL    HW227699   9.090  10.668   8.279 -0.3201  0.7938  0.3395
 7672SOL     OW27700   1.001   7.368  10.888 -0.3537 -0.3661 -0.2914
 7672SOL    HW127701   1.018   7.445  10.833  1.0629  0.7803  1.6272
 7672SOL    HW227702   0.926   7.392  10.942 -0.0229 -0.3998  0.1867
 7673SOL     OW27703   5.544   9.949   0.870  0.0652  0.6409 -0.2930
 7673SOL    HW127704   5.536  10.026   0.925  1.8930 -0.2158  1.3229
 7673SOL    HW227705   5.560   9.877   0.932  3.3034 -0.2127 -1.9053
 7674SOL     OW27706   5.771   5.633   9.285  0.1215 -0.0846 -0.4208
 7674SOL    HW127707   5.688   5.670   9.254 -0.3275 -0.8840 -0.2181
 7674SOL    HW227708   5.819   5.708   9.321  0.4502  0.7917 -2.5468
 7675SOL     OW27709   0.887   2.240  10.652 -0.0626 -0.3630 -0.3837
 7675SOL    HW127710   0.849   2.321  10.619 -1.5325 -0.2741  1.3449
 7675SOL    HW227711   0.820   2.174  10.638 -0.4452 -0.4630  1.6383
 7676SOL     OW27712  10.965  11.419   4.063 -0.1719 -0.0526 -0.2086
 7676SOL    HW127713  11.004  11.363   3.997 -0.8793 -1.0187  0.1709
 7676SOL    HW227714  10.916  11.359   4.120  1.0069  0.6279  1.6320
 7677SOL     OW27715  11.045  10.895   9.367  0.1536 -0.0920 -0.0033
 7677SOL    HW127716  11.049  10.799   9.361  1.5516 -0.0694  0.1646
 7677SOL    HW227717  10.969  10.919   9.315 -0.2124 -1.2953 -0.0631
 7678SOL     OW27718  10.489   5.699   1.534  0.2513 -0.4515 -0.4326
 7678SOL    HW127719  10.457   5.663   1.452 -1.8428 -0.7904  0.4660
 7678SOL    HW227720  10.516   5.622   1.585 -1.1772 -0.5387  0.2520
 7679SOL     OW27721   5.860   4.659   9.227  0.0186 -0.1735 -0.5525
 7679SOL    HW127722   5.874   4.748   9.194 -0.0160 -0.3959 -1.1816
 7679SOL    HW227723   5.775   4.663   9.271  0.1001  0.1511 -0.4253
 7680SOL     OW27724   6.762   9.867   2.626 -0.1250 -0.0803  0.5036
 7680SOL    HW127725   6.675   9.906   2.621 -0.0510  0.1943  1.2060
 7680SOL    HW227726   6.791   9.861   2.535 -0.3070  1.1446  0.3473
 7681SOL     OW27727   2.105   4.927   0.645 -0.2553 -0.0675 -0.5281
 7681SOL    HW127728   2.093   4.949   0.738 -0.0259 -1.5966 -0.0967
 7681SOL    HW227729   2.017   4.936   0.607 -0.2532  1.0664 -0.2980
 7682SOL     OW27730   1.589   7.067   6.186 -0.2990  0.4750 -0.0942
 7682SOL    HW127731   1.510   7.107   6.151 -0.1746 -0.6267 -1.8102
 7682SOL    HW227732   1.558   6.992   6.237 -0.4060  0.8472  0.3906
 7683SOL     OW27733   5.068   1.873   6.783  0.4923  0.4316  0.0892
 7683SOL    HW127734   5.093   1.938   6.717  2.0425  1.5502  1.6998
 7683SOL    HW227735   5.033   1.925   6.856  1.1458 -0.5738  1.1410
 7684SOL     OW27736   8.938   7.536   7.662  0.5807  0.2552  0.2094
 7684SOL    HW127737   9.014   7.499   7.707  1.0605  1.7105  0.6290
 7684SOL    HW227738   8.890   7.585   7.729  0.1328  0.6660 -0.3914
 7685SOL     OW27739   3.492   4.216   4.188  0.4147  0.1612 -0.3151
 7685SOL    HW127740   3.442   4.250   4.262  2.1903  1.4693  0.3679
 7685SOL    HW227741   3.505   4.291   4.131 -0.8599 -0.8161 -1.9724
 7686SOL     OW27742   6.238   3.166   8.981 -0.0757  0.0013  0.5060
 7686SOL    HW127743   6.299   3.100   9.014 -2.0072 -1.2316  1.8741
 7686SOL    HW227744   6.234   3.150   8.887 -0.0086 -1.4566  0.7169
 7687SOL     OW27745   4.845   0.345   9.685 -0.1069 -0.5037  0.4129
 7687SOL    HW127746   4.877   0.386   9.605 -1.6663  0.8706  0.4384
 7687SOL    HW227747   4.902   0.379   9.754  0.6335 -0.9358  0.0260
 7688SOL     OW27748   8.872   7.486   3.731 -0.4225  0.0633 -0.9827
 7688SOL    HW127749   8.885   7.581   3.736 -0.7755  0.0437  0.8105
 7688SOL    HW227750   8.958   7.452   3.706  0.0718  0.7553 -0.2633
 7689SOL     OW27751   9.522  11.067   3.765 -0.2603  0.1132 -0.2407
 7689SOL    HW127752   9.451  11.128   3.785  0.1452 -0.1355  2.2347
 7689SOL    HW227753   9.477  10.985   3.744 -0.7361  0.5400 -0.9486
 7690SOL     OW27754  11.244   3.826   7.419  0.6140  0.5191  0.1613
 7690SOL    HW127755  11.254   3.731   7.412 -0.1265  0.5101 -0.9921
 7690SOL    HW227756  11.152   3.838   7.443  0.8802  0.9275  1.0045
 7691SOL     OW27757   7.925   2.550   9.612  0.3663  0.0286 -0.3041
 7691SOL    HW127758   7.863   2.489   9.573  0.2663  0.7648 -1.3345
 7691SOL    HW227759   7.873   2.597   9.677 -0.3693  1.0924 -1.6133
 7692SOL     OW27760   1.169   0.389   4.048 -0.3304  0.7300 -0.3685
 7692SOL    HW127761   1.235   0.328   4.081  0.6345  1.3194 -1.1692
 7692SOL    HW227762   1.182   0.391   3.954 -1.7177  0.6192 -0.5805
 7693SOL     OW27763   5.531   0.384   2.722  0.0088  0.2679  0.4738
 7693SOL    HW127764   5.605   0.438   2.749 -0.3334  0.8034  0.3635
 7693SOL    HW227765   5.454   0.439   2.739 -0.2757  0.2634 -0.6713
 7694SOL     OW27766   2.966   4.583   0.689  0.6962  0.4240  0.0575
 7694SOL    HW127767   3.021   4.614   0.618  0.5443  1.5233  0.3937
 7694SOL    HW227768   2.957   4.659   0.747 -1.0306  0.2341  0.0943
 7695SOL     OW27769   9.090   4.187   0.222 -0.5616  0.6641 -0.0121
 7695SOL    HW127770   9.155   4.200   0.153 -0.7132  0.9176 -0.1086
 7695SOL    HW227771   9.046   4.271   0.230 -1.6647  0.1843 -0.7514
 7696SOL     OW27772   7.483   5.121   0.827  0.3127  0.4502  0.1792
 7696SOL    HW127773   7.479   5.034   0.786  2.1712  0.8065 -0.9148
 7696SOL    HW227774   7.426   5.114   0.904 -1.0683 -1.1366 -0.9059
 7697SOL     OW27775   0.133   1.987  11.632  0.6216 -0.5191  0.0987
 7697SOL    HW127776   0.164   1.913  11.684  1.5725  0.6894  1.3077
 7697SOL    HW227777   0.046   2.006  11.666  0.5154 -0.8537  0.0196
 7698SOL     OW27778   8.032   1.686   2.789 -0.4604  0.1547 -0.3400
 7698SOL    HW127779   8.115   1.731   2.771 -0.3554 -0.8217 -2.6588
 7698SOL    HW227780   7.969   1.756   2.805  0.4828  0.9686 -0.1056
 7699SOL     OW27781   6.366   4.974  11.915 -0.2647 -0.2787  0.0532
 7699SOL    HW127782   6.447   4.933  11.885 -0.8580 -3.0163  1.8065
 7699SOL    HW227783   6.333   4.915  11.982 -3.0216  1.4598  0.3847
 7700SOL     OW27784   5.525   0.482   8.306 -0.3797  0.4046 -0.5881
 7700SOL    HW127785   5.475   0.402   8.289 -2.1199  1.7388 -2.2011
 7700SOL    HW227786   5.566   0.503   8.222  3.5632 -0.9090  0.7605
 7701SOL     OW27787  10.340   8.019   8.134 -0.0417 -0.6206  0.1378
 7701SOL    HW127788  10.379   8.104   8.157 -0.3140 -0.4084 -0.1633
 7701SOL    HW227789  10.259   8.042   8.088  0.1107 -1.0418 -0.3507
 7702SOL     OW27790   5.040   0.469   5.570 -0.3334 -0.0105 -0.8041
 7702SOL    HW127791   5.120   0.426   5.602 -0.8041 -0.0708  0.3484
 7702SOL    HW227792   5.035   0.550   5.621 -0.3854  0.5804 -1.7224
 7703SOL     OW27793   7.659   3.374   3.297 -0.4013 -0.2476  0.2834
 7703SOL    HW127794   7.747   3.345   3.276 -0.3858 -0.2107  0.2989
 7703SOL    HW227795   7.647   3.350   3.388 -0.1162  0.4723  0.5158
 7704SOL     OW27796   2.600   5.961   2.119 -0.0058  0.3661  0.4640
 7704SOL    HW127797   2.668   5.961   2.187  1.2167  1.0787 -0.7031
 7704SOL    HW227798   2.597   6.052   2.090  0.2572 -0.1252 -1.1630
 7705SOL     OW27799   5.540   4.295   6.721  0.0624 -0.1732  0.4089
 7705SOL    HW127800   5.561   4.215   6.769 -0.4152 -0.0441  0.8464
 7705SOL    HW227801   5.462   4.329   6.765 -0.4763 -0.1279 -0.5458
 7706SOL     OW27802   2.068   0.170  11.937  0.3879  0.3974  0.0430
 7706SOL    HW127803   2.111   0.148  11.854  1.6708  0.0497  0.7761
 7706SOL    HW227804   2.123   0.130  12.004 -1.3022 -0.4045  1.0214
 7707SOL     OW27805   9.381   3.998   6.674  0.2523  0.1272 -0.2853
 7707SOL    HW127806   9.332   3.925   6.637  0.5183  0.1253 -0.6451
 7707SOL    HW227807   9.473   3.970   6.670  0.3263  0.3390 -0.1093
 7708SOL     OW27808   2.163   8.594   2.236 -0.4149  0.1221 -0.1944
 7708SOL    HW127809   2.237   8.601   2.297  0.8110 -0.4576 -1.5545
 7708SOL    HW227810   2.103   8.663   2.264  0.1157 -0.0783  1.6252
 7709SOL     OW27811   4.347   2.658   0.677 -0.0139  0.3849 -0.4459
 7709SOL    HW127812   4.370   2.673   0.769 -1.6306  0.7343 -0.0744
 7709SOL    HW227813   4.355   2.563   0.666  2.2623  0.5420 -0.5646
 7710SOL     OW27814   3.374   7.662  10.910  0.1360  0.1228 -0.2000
 7710SOL    HW127815   3.299   7.668  10.851 -0.0896 -1.6326 -0.1175
 7710SOL    HW227816   3.444   7.623  10.857  0.3644 -0.1545  0.2966
 7711SOL     OW27817   8.628  11.984   4.428  0.2010 -0.2325 -0.1096
 7711SOL    HW127818   8.650  11.900   4.468 -0.6745 -0.3863  0.0734
 7711SOL    HW227819   8.614  12.043   4.502  2.6737  0.6136 -0.2359
 7712SOL     OW27820   8.000   2.583   8.444 -0.1173  0.5303 -0.0610
 7712SOL    HW127821   8.080   2.592   8.496  0.3715  0.1608 -0.7249
 7712SOL    HW227822   7.973   2.673   8.427  1.0886  0.7145 -1.1984
 7713SOL     OW27823   4.778   2.000   0.749 -0.5311 -0.1052 -0.1881
 7713SOL    HW127824   4.762   1.944   0.673  1.2388  1.4692 -1.8663
 7713SOL    HW227825   4.693   2.038   0.770 -1.5286 -2.4679  0.2726
 7714SOL     OW27826   6.148  10.535  10.676 -1.2901 -0.6455 -0.2196
 7714SOL    HW127827   6.160  10.456  10.623 -0.4030  0.3153 -1.5391
 7714SOL    HW227828   6.128  10.604  10.613  0.6245  0.7297  0.5380
 7715SOL     OW27829   6.854   8.116  11.608 -0.2145 -0.5859  0.5451
 7715SOL    HW127830   6.780   8.100  11.549  0.4207 -0.3138 -0.3639
 7715SOL    HW227831   6.921   8.055  11.578  0.5517  0.4166  0.1552
 7716SOL     OW27832  10.279   1.843  10.136 -0.1057  0.1292  0.1280
 7716SOL    HW127833  10.211   1.817  10.075 -1.1306 -0.9041  1.6340
 7716SOL    HW227834  10.233   1.857  10.219  1.4064  0.0207  1.0306
 7717SOL     OW27835   6.637  10.431   6.482 -0.3376  0.8285  0.3098
 7717SOL    HW127836   6.602  10.507   6.528 -0.8610 -0.1401  1.5710
 7717SOL    HW227837   6.646  10.364   6.549 -0.1359 -0.3113 -0.8123
 7718SOL     OW27838   9.244  11.902   4.056  0.6289  0.2432  0.0533
 7718SOL    HW127839   9.283  11.860   4.132 -1.1609 -0.1258  0.8273
 7718SOL    HW227840   9.195  11.976   4.091  0.0084  0.2325 -0.7494
 7719SOL     OW27841   8.882  10.647   2.852 -0.6505  0.4045  0.1444
 7719SOL    HW127842   8.928  10.691   2.781 -1.9588  0.6667 -0.5585
 7719SOL    HW227843   8.790  10.671   2.840 -0.9078  0.4443  1.9112
 7720SOL     OW27844   8.760   7.499   9.763  0.4065  0.4952  0.6075
 7720SOL    HW127845   8.846   7.539   9.779  0.2766 -0.3462  4.3523
 7720SOL    HW227846   8.742   7.449   9.843 -1.9126 -2.5034 -1.5835
 7721SOL     OW27847  11.787   2.152   4.473 -0.2088  0.1547 -0.1634
 7721SOL    HW127848  11.858   2.198   4.519  1.1497 -1.0276 -1.0108
 7721SOL    HW227849  11.729   2.222   4.443  0.8826  1.1934  0.0831
 7722SOL     OW27850  11.367  10.583   1.543  0.0877  0.3852 -0.0335
 7722SOL    HW127851  11.285  10.540   1.518  0.0064 -0.7821  1.9474
 7722SOL    HW227852  11.421  10.580   1.465 -0.8593 -1.1235 -0.6793
 7723SOL     OW27853   8.510   0.881   2.131  0.5073  0.1948 -0.1091
 7723SOL    HW127854   8.525   0.819   2.202  1.9002 -1.2491 -1.5767
 7723SOL    HW227855   8.575   0.950   2.143 -0.6868  1.1497  1.2113
 7724SOL     OW27856   2.286   7.286   1.190  0.2311  0.1951 -0.0114
 7724SOL    HW127857   2.246   7.360   1.235 -0.5063 -0.0582 -0.2418
 7724SOL    HW227858   2.255   7.209   1.237  0.8209  0.0127  0.0918
 7725SOL     OW27859   8.949   0.041   9.348  0.2938  0.1471 -0.1182
 7725SOL    HW127860   8.856   0.061   9.360  0.3510  0.1444  0.3297
 7725SOL    HW227861   8.950  -0.042   9.300  0.0556  1.0395 -1.7359
 7726SOL     OW27862   9.279   3.347  11.146  0.2812 -0.9795 -0.4466
 7726SOL    HW127863   9.364   3.336  11.190  0.8781  0.0790 -1.2793
 7726SOL    HW227864   9.216   3.305  11.205  1.5275 -2.9548 -0.4247
 7727SOL     OW27865   6.204   9.487   5.428 -0.2230 -0.0636  0.5724
 7727SOL    HW127866   6.140   9.454   5.365 -0.3104 -2.5500  1.8246
 7727SOL    HW227867   6.207   9.581   5.413 -1.6286 -0.3238 -1.8214
 7728SOL     OW27868   4.240   5.998   4.962 -0.2275 -0.3443  0.2443
 7728SOL    HW127869   4.281   5.964   4.882  2.3136  1.5728  0.5836
 7728SOL    HW227870   4.163   6.046   4.932  1.3284  1.3557 -1.2933
 7729SOL     OW27871  10.878   3.513   3.943  0.0688 -0.8059 -0.2839
 7729SOL    HW127872  10.845   3.424   3.931  1.8534 -1.4491 -0.7980
 7729SOL    HW227873  10.862   3.532   4.036  0.3373 -1.9769  0.0200
 7730SOL     OW27874   3.398   3.337   8.415  0.5403  0.6028  0.3073
 7730SOL    HW127875   3.345   3.271   8.458  0.2118  0.5291 -0.2030
 7730SOL    HW227876   3.488   3.307   8.427  0.3208 -1.1648 -1.8208
 7731SOL     OW27877  11.257   6.258   5.149  0.4846 -0.3164  0.5868
 7731SOL    HW127878  11.244   6.309   5.229  0.6465 -0.8101  0.9306
 7731SOL    HW227879  11.342   6.287   5.115 -0.0207  0.5998  0.0591
 7732SOL     OW27880   0.376   2.090   9.079 -0.6212  0.4971 -0.6030
 7732SOL    HW127881   0.465   2.085   9.044 -0.5452 -0.2224 -0.3321
 7732SOL    HW227882   0.350   1.999   9.092 -0.7355  0.7162  0.9749
 7733SOL     OW27883   5.037   8.155   1.684 -0.3885 -0.3236 -0.4195
 7733SOL    HW127884   4.963   8.122   1.734  0.9214 -3.5518 -0.3750
 7733SOL    HW227885   5.088   8.206   1.747 -2.0580  1.2796 -0.2637
 7734SOL     OW27886   6.359   6.720   5.310  0.2871  0.1354  0.1025
 7734SOL    HW127887   6.359   6.815   5.311 -0.6130  0.1605 -0.3996
 7734SOL    HW227888   6.451   6.695   5.308  0.5897  0.9375  2.1241
 7735SOL     OW27889   6.908   4.856  11.222 -0.6374 -0.7078 -0.6942
 7735SOL    HW127890   6.987   4.901  11.253 -1.0185  0.7464 -1.7515
 7735SOL    HW227891   6.871   4.816  11.301  2.0562 -2.9573 -0.4131
 7736SOL     OW27892   6.444   3.398  11.725 -0.5053 -0.2398 -0.3099
 7736SOL    HW127893   6.488   3.433  11.647 -1.8060 -0.3869 -1.1359
 7736SOL    HW227894   6.374   3.343  11.690 -2.3970  1.2753  0.9288
 7737SOL     OW27895   5.289   4.215   3.631 -0.3545  0.3460 -0.7648
 7737SOL    HW127896   5.328   4.257   3.707 -0.0697 -0.2976 -0.5498
 7737SOL    HW227897   5.244   4.138   3.666 -0.8231  0.4380 -1.1556
 7738SOL     OW27898   2.790   9.653   6.132  0.6873 -0.3530  0.3511
 7738SOL    HW127899   2.860   9.647   6.197  0.0942 -2.1741  0.8873
 7738SOL    HW227900   2.814   9.590   6.065 -0.3620 -0.8942  0.4695
 7739SOL     OW27901   0.365   1.285   0.651 -0.3140 -0.4967 -0.2474
 7739SOL    HW127902   0.433   1.278   0.718 -0.3120 -2.2853 -0.4027
 7739SOL    HW227903   0.386   1.216   0.588 -0.5277  0.8944 -1.9365
 7740SOL     OW27904   6.432   5.499   3.541 -0.2746  0.2521 -0.4263
 7740SOL    HW127905   6.525   5.524   3.538 -0.6512  1.6245 -1.9174
 7740SOL    HW227906   6.426   5.425   3.481 -0.0816 -0.1284  0.0148
 7741SOL     OW27907   3.170   9.797   6.914  0.6339  0.0079  0.0795
 7741SOL    HW127908   3.181   9.890   6.892 -1.2835  0.0608 -0.8765
 7741SOL    HW227909   3.184   9.793   7.009 -3.4076  2.1136  0.9637
 7742SOL     OW27910   1.068   3.101   5.863  0.3513 -0.0964 -0.0224
 7742SOL    HW127911   1.028   3.055   5.937 -0.5699  0.9852  0.1954
 7742SOL    HW227912   1.027   3.188   5.865  0.9490  0.2348 -1.2883
 7743SOL     OW27913   9.488   5.034  10.579 -0.3715  0.4975  0.1165
 7743SOL    HW127914   9.440   5.024  10.496 -0.6851 -0.8363  0.4287
 7743SOL    HW227915   9.436   4.985  10.643  0.0895  1.1549  1.0211
 7744SOL     OW27916  11.328   0.352   7.703 -0.5324 -0.7884 -0.1887
 7744SOL    HW127917  11.305   0.443   7.685 -1.5038 -1.0468 -0.3027
 7744SOL    HW227918  11.407   0.357   7.756 -1.4610  0.1709  1.1411
 7745SOL     OW27919  11.609   6.072   6.953 -0.0242  0.3028 -0.1127
 7745SOL    HW127920  11.584   6.113   7.036 -0.1801 -3.8473  2.1745
 7745SOL    HW227921  11.704   6.077   6.951 -0.0906  1.8879 -0.6197
 7746SOL     OW27922   2.685  10.296   6.825 -0.1514 -0.2170  0.1982
 7746SOL    HW127923   2.629  10.321   6.898  0.5955 -0.7688  0.9776
 7746SOL    HW227924   2.738  10.224   6.859  0.3899 -0.3057 -0.8044
 7747SOL     OW27925   8.014   2.113   7.639 -0.2378 -0.5601  0.0691
 7747SOL    HW127926   7.929   2.083   7.673  0.2068 -1.7227  0.1967
 7747SOL    HW227927   8.043   2.179   7.702 -1.4591  0.5309 -0.4683
 7748SOL     OW27928   3.735   3.554   2.186 -0.5492 -0.6900 -0.0559
 7748SOL    HW127929   3.751   3.571   2.279  0.5271  1.4170 -0.5650
 7748SOL    HW227930   3.761   3.462   2.174  0.8548 -0.5267  1.4172
 7749SOL     OW27931  10.957   5.236   9.236 -0.0808 -0.2251  0.3094
 7749SOL    HW127932  10.885   5.294   9.263  1.1254  0.5582  1.9805
 7749SOL    HW227933  10.962   5.170   9.305  2.0305  0.8709  1.2788
 7750SOL     OW27934   6.374   6.712   7.984  0.2607  0.1991 -0.4204
 7750SOL    HW127935   6.368   6.784   7.921  0.2525  2.2830  1.8135
 7750SOL    HW227936   6.452   6.732   8.037  0.9909 -2.1434 -0.4996
 7751SOL     OW27937   4.238   0.223   4.681  0.2616  0.4830 -0.7092
 7751SOL    HW127938   4.195   0.225   4.596  0.5062 -0.6102 -0.8797
 7751SOL    HW227939   4.300   0.296   4.679 -0.2446  0.9035 -1.1813
 7752SOL     OW27940   9.105   7.854   8.344  0.0044 -0.7660 -0.8624
 7752SOL    HW127941   9.046   7.781   8.360  0.9739 -1.4355 -0.2174
 7752SOL    HW227942   9.162   7.824   8.273  0.9143 -0.9680 -0.0638
 7753SOL     OW27943   9.052   6.712   9.211  0.1779  0.0265 -0.4134
 7753SOL    HW127944   9.108   6.789   9.197 -0.4375 -0.0111 -3.9146
 7753SOL    HW227945   9.098   6.661   9.277  2.5744  1.5731 -0.7436
 7754SOL     OW27946   8.964  10.508   8.401  0.1667 -0.4929 -0.2566
 7754SOL    HW127947   8.887  10.559   8.373  0.6768  0.9562  0.8750
 7754SOL    HW227948   8.935  10.463   8.481  0.1832 -0.8258 -0.4331
 7755SOL     OW27949   6.119  11.506   6.273  0.6474  0.8077 -0.0350
 7755SOL    HW127950   6.184  11.542   6.213 -0.1376  0.8547 -0.8742
 7755SOL    HW227951   6.087  11.582   6.322  1.9852  0.6386  1.1738
 7756SOL     OW27952  11.058   2.592   8.131  0.4446 -0.2041  0.2291
 7756SOL    HW127953  11.075   2.501   8.155  1.8839  0.1243  0.5647
 7756SOL    HW227954  11.112   2.643   8.191 -1.9088  1.0089  1.4390
 7757SOL     OW27955   5.128   8.492   2.563 -0.1110 -0.1066  0.0599
 7757SOL    HW127956   5.152   8.562   2.502 -1.9290  0.6579  0.1493
 7757SOL    HW227957   5.156   8.412   2.519  0.6847  0.5790 -0.7300
 7758SOL     OW27958   6.399   3.318   6.424  0.2710  0.4192  0.0762
 7758SOL    HW127959   6.387   3.275   6.339  1.1639 -1.2607  0.7704
 7758SOL    HW227960   6.458   3.261   6.473  0.2076  1.6257  1.6556
 7759SOL     OW27961   1.066   7.711   1.862 -0.4550 -0.2118 -0.1345
 7759SOL    HW127962   1.050   7.616   1.856 -0.4962 -0.1359 -2.2984
 7759SOL    HW227963   1.142   7.719   1.919 -0.4116 -1.5655  0.0415
 7760SOL     OW27964   2.123   7.403   7.644 -0.4414  0.2461 -0.3551
 7760SOL    HW127965   2.122   7.356   7.561  0.5408  1.3466 -1.0146
 7760SOL    HW227966   2.069   7.349   7.702  0.7254 -1.7917 -1.0271
 7761SOL     OW27967   4.153   3.952   0.830 -0.2780 -0.0924  0.2828
 7761SOL    HW127968   4.238   3.916   0.806 -0.8807 -0.4317 -1.5241
 7761SOL    HW227969   4.168   3.996   0.914  1.4805 -0.8042  0.3803
 7762SOL     OW27970   2.495   3.382   9.497  0.0532 -0.2617 -0.6554
 7762SOL    HW127971   2.494   3.352   9.588 -1.3780  0.8843 -0.2603
 7762SOL    HW227972   2.487   3.301   9.445 -0.4913 -0.8317  0.2832
 7763SOL     OW27973  11.207  10.827   6.896  0.1340 -0.3440 -0.4244
 7763SOL    HW127974  11.291  10.858   6.862  0.2292  0.9534  0.8963
 7763SOL    HW227975  11.151  10.905   6.896 -0.0815 -0.4477  1.6490
 7764SOL     OW27976   3.572  11.283   7.117 -0.4882 -0.2759  0.4625
 7764SOL    HW127977   3.533  11.360   7.075  0.4728 -0.2690 -0.4668
 7764SOL    HW227978   3.642  11.256   7.057  0.8118 -0.3968  1.9633
 7765SOL     OW27979   8.267   6.843  11.049 -0.1183  0.0915 -0.4335
 7765SOL    HW127980   8.315   6.807  11.124 -1.7002  0.3532  0.7355
 7765SOL    HW227981   8.175   6.830  11.070 -0.6306 -1.6908 -3.2613
 7766SOL     OW27982   8.403   7.340   3.640 -0.7080 -0.1729  0.0656
 7766SOL    HW127983   8.325   7.387   3.610 -0.6214  0.2113  0.4437
 7766SOL    HW227984   8.476   7.400   3.622 -0.1363 -1.5194 -2.7313
 7767SOL     OW27985   8.588   9.697   0.449 -0.2290  0.5707 -0.4389
 7767SOL    HW127986   8.574   9.779   0.402 -0.1599  0.0146 -1.4465
 7767SOL    HW227987   8.508   9.646   0.433  0.2721 -0.0787 -0.8994
 7768SOL     OW27988   1.776   4.587   0.941  0.1325  0.1952 -0.4317
 7768SOL    HW127989   1.706   4.537   0.983 -0.5097  1.8111  0.4869
 7768SOL    HW227990   1.734   4.626   0.864  0.1984  0.6296 -0.2483
 7769SOL     OW27991   3.296   3.799  10.846  0.6415 -0.4654 -0.2280
 7769SOL    HW127992   3.242   3.769  10.919  1.5876 -1.0138  0.2700
 7769SOL    HW227993   3.380   3.820  10.885  0.3012  2.1296 -0.6931
 7770SOL     OW27994   9.270   3.278   7.101  0.1689 -0.5921  0.5049
 7770SOL    HW127995   9.252   3.342   7.031  2.1338  0.3609  0.8006
 7770SOL    HW227996   9.268   3.193   7.057 -0.0148 -0.1158 -0.4359
 7771SOL     OW27997   4.921   2.737   8.909  0.2055  0.3243 -0.7058
 7771SOL    HW127998   4.833   2.741   8.946  0.8514  1.3054  0.8254
 7771SOL    HW227999   4.978   2.772   8.978  1.7596  0.0575 -1.7932
 7772SOL     OW28000   6.194  11.620   1.104 -0.1839 -0.2901 -0.0570
 7772SOL    HW128001   6.165  11.571   1.027  2.6805 -0.8654 -0.8773
 7772SOL    HW228002   6.226  11.554   1.164  2.7372  0.3889 -0.7311
 7773SOL     OW28003   0.217   8.091   6.345 -0.1743 -0.5908  0.2667
 7773SOL    HW128004   0.192   8.000   6.331 -1.4058 -0.3272  0.5439
 7773SOL    HW228005   0.303   8.100   6.305 -0.6521 -1.5192 -1.0279
 7774SOL     OW28006   0.334   5.390   6.953 -0.1151  0.1147  0.1396
 7774SOL    HW128007   0.389   5.355   6.883 -1.0895  1.2494 -1.2410
 7774SOL    HW228008   0.268   5.443   6.908 -3.4954 -2.5255  1.5434
 7775SOL     OW28009   7.145   1.123   6.899  0.1523 -0.2486 -0.4375
 7775SOL    HW128010   7.200   1.070   6.956  0.5555  0.7089  0.1042
 7775SOL    HW228011   7.201   1.146   6.825 -0.3961 -1.5582 -1.2873
 7776SOL     OW28012  10.729   9.353   7.841  0.1641  0.1811  0.0092
 7776SOL    HW128013  10.778   9.430   7.872 -2.0447  1.2891  0.9885
 7776SOL    HW228014  10.674   9.328   7.915 -0.6924 -1.0337 -0.9891
 7777SOL     OW28015   8.219   4.273   1.352  0.2901  0.0953  0.3945
 7777SOL    HW128016   8.284   4.302   1.415 -0.5278  0.4614  1.0972
 7777SOL    HW228017   8.204   4.350   1.296 -2.0533  1.2544  2.4061
 7778SOL     OW28018  11.515   2.396  11.265 -0.4126  0.2818 -0.1821
 7778SOL    HW128019  11.489   2.362  11.180  0.2493 -2.3368  0.5690
 7778SOL    HW228020  11.477   2.334  11.328 -1.1345  2.3060  1.4778
 7779SOL     OW28021   7.647   2.486   7.912  0.6380 -0.6811  0.1459
 7779SOL    HW128022   7.708   2.544   7.959 -0.2647  1.2369 -0.9048
 7779SOL    HW228023   7.562   2.502   7.953  0.2507 -0.7208 -0.6219
 7780SOL     OW28024   2.383   3.405   8.589  0.3581  0.1261 -0.4364
 7780SOL    HW128025   2.391   3.377   8.680 -1.6824 -1.6538 -0.7019
 7780SOL    HW228026   2.358   3.325   8.542 -0.9293  1.4413 -2.1331
 7781SOL     OW28027  10.161   7.747   1.055 -0.2167 -0.1177  0.1405
 7781SOL    HW128028  10.180   7.840   1.043 -0.8818  0.3595  2.2829
 7781SOL    HW228029  10.203   7.704   0.981  0.8214  1.8056 -0.4601
 7782SOL     OW28030  10.473   3.350   6.267 -0.1939  0.5604 -0.1838
 7782SOL    HW128031  10.452   3.270   6.219 -0.8588  1.0323 -0.7060
 7782SOL    HW228032  10.545   3.325   6.325 -1.7289 -0.9559  1.1715
 7783SOL     OW28033   2.835  10.727   3.269  0.5877 -0.1227  0.2520
 7783SOL    HW128034   2.918  10.693   3.236  1.6131  0.7613  1.8005
 7783SOL    HW228035   2.791  10.651   3.307  1.2501 -0.3919  0.5009
 7784SOL     OW28036  10.044   5.191   5.547 -0.3898 -0.0397 -0.1408
 7784SOL    HW128037  10.139   5.194   5.543 -0.3581 -0.7085 -0.0017
 7784SOL    HW228038  10.016   5.203   5.457 -0.1596 -0.1907 -0.2337
 7785SOL     OW28039   4.838   9.411   1.052 -0.1261  0.4437  0.5807
 7785SOL    HW128040   4.918   9.390   1.005 -1.5542 -0.4073 -1.6215
 7785SOL    HW228041   4.803   9.326   1.078  0.2212  0.8647  2.5645
 7786SOL     OW28042   4.406   1.606  10.134  0.3800  0.1306 -0.1148
 7786SOL    HW128043   4.456   1.525  10.137 -0.8541 -0.7200 -1.3205
 7786SOL    HW228044   4.448   1.659  10.066  0.1270 -0.2681 -0.5915
 7787SOL     OW28045   9.363   6.077   5.550 -0.3623  0.1741 -0.0859
 7787SOL    HW128046   9.402   6.009   5.606  0.2879 -0.5143 -1.3329
 7787SOL    HW228047   9.412   6.156   5.572 -0.8208  0.1692  1.0529
 7788SOL     OW28048   9.184   6.146   2.167  0.1132  0.7436 -0.0450
 7788SOL    HW128049   9.158   6.071   2.220 -2.3358  0.5094 -1.4465
 7788SOL    HW228050   9.102   6.189   2.143  1.1617  1.5051 -2.6540
 7789SOL     OW28051   1.162   5.887   7.535 -0.0903 -0.0556 -0.3603
 7789SOL    HW128052   1.182   5.797   7.512  0.4770 -0.1730  0.5302
 7789SOL    HW228053   1.140   5.929   7.452 -1.2781 -1.2258 -0.6788
 7790SOL     OW28054   1.932   5.911   5.690  0.4114  0.5748 -0.4668
 7790SOL    HW128055   1.949   6.002   5.714 -0.6804  0.5337  0.5478
 7790SOL    HW228056   1.887   5.916   5.606 -3.3412  1.3096  1.3694
 7791SOL     OW28057  11.403   1.398   6.855 -0.4776 -0.5370  0.4469
 7791SOL    HW128058  11.407   1.433   6.766  1.1660 -0.3050  0.5774
 7791SOL    HW228059  11.334   1.448   6.898  0.7400  1.4916  0.1584
 7792SOL     OW28060  10.992   6.072   2.581 -0.5868  0.2565 -0.7754
 7792SOL    HW128061  11.018   6.138   2.646  0.0991  0.0172 -0.8042
 7792SOL    HW228062  10.898   6.088   2.568 -1.0079 -0.4216  1.1098
 7793SOL     OW28063   6.483  10.735  10.157  0.0716 -0.0734 -0.3188
 7793SOL    HW128064   6.564  10.710  10.114 -1.3110 -1.8004 -2.1302
 7793SOL    HW228065   6.420  10.668  10.130 -1.3593 -0.2943  3.0946
 7794SOL     OW28066   1.262   3.712   4.944 -0.3410  0.1986  0.0532
 7794SOL    HW128067   1.186   3.693   4.999 -0.5716 -3.4899 -1.2304
 7794SOL    HW228068   1.335   3.671   4.990  0.2990  0.9665 -0.2575
 7795SOL     OW28069   8.337   8.779   8.458  0.8731 -0.0390 -0.5970
 7795SOL    HW128070   8.418   8.801   8.504 -0.3787  1.7226  0.9075
 7795SOL    HW228071   8.336   8.683   8.456  2.9269 -0.0961 -0.5690
 7796SOL     OW28072   9.435   3.029   1.084 -0.2476  0.0335 -0.0125
 7796SOL    HW128073   9.388   3.104   1.119  0.5104  0.4712  0.0857
 7796SOL    HW228074   9.406   3.023   0.993  0.2322  0.9000 -0.2303
 7797SOL     OW28075   2.513  11.634   8.647 -0.3109  0.3662 -0.7172
 7797SOL    HW128076   2.467  11.601   8.570  0.6928  1.5406 -1.8651
 7797SOL    HW228077   2.477  11.722   8.660  0.3814  0.6387 -0.5916
 7798SOL     OW28078   7.770   5.432  11.986 -0.4093  0.2479  0.4013
 7798SOL    HW128079   7.681   5.429  11.951 -0.4981  0.6221  0.5972
 7798SOL    HW228080   7.767   5.379  12.065 -0.0613 -1.1238 -0.4693
 7799SOL     OW28081   8.100   6.945   0.182  0.2796  0.5170  0.0729
 7799SOL    HW128082   8.132   6.961   0.271  0.3653 -2.3014  0.6435
 7799SOL    HW228083   8.173   6.901   0.138 -1.1697 -2.1377  0.0750
 7800SOL     OW28084   9.907   6.424   3.694 -0.1835 -0.0840 -0.1804
 7800SOL    HW128085   9.930   6.494   3.754  0.3858 -0.8040  0.4572
 7800SOL    HW228086   9.887   6.469   3.611  0.5273  0.7973  0.1096
 7801SOL     OW28087   1.003   7.587   2.179 -0.1412 -0.5083 -0.9017
 7801SOL    HW128088   1.079   7.612   2.127  0.0531 -1.0005 -0.8542
 7801SOL    HW228089   0.953   7.668   2.188  0.5812 -0.0838 -0.5882
 7802SOL     OW28090   4.875   6.951   0.885  0.1582 -0.7600  0.1493
 7802SOL    HW128091   4.946   6.904   0.841  0.0721 -0.1265 -0.6966
 7802SOL    HW228092   4.797   6.899   0.867  0.1876 -0.7150 -0.1179
 7803SOL     OW28093   7.795   9.533   4.467  0.2145  0.4111  0.2570
 7803SOL    HW128094   7.840   9.603   4.515  0.4021  0.3269  0.2037
 7803SOL    HW228095   7.857   9.507   4.399 -0.3256  1.0289 -0.4999
 7804SOL     OW28096   2.437   6.063   3.901 -0.4882 -0.4485 -0.5000
 7804SOL    HW128097   2.391   6.079   3.984 -1.4432 -1.6089 -0.7801
 7804SOL    HW228098   2.368   6.036   3.840  0.2500  0.0416 -1.5914
 7805SOL     OW28099   9.354   5.511   7.343  0.6980  0.3419 -0.0660
 7805SOL    HW128100   9.317   5.505   7.255 -2.1430 -0.8952  1.0857
 7805SOL    HW228101   9.383   5.602   7.351  1.2507  0.4232 -2.3125
 7806SOL     OW28102   6.481   8.548  11.352  0.2705  0.0847 -0.8921
 7806SOL    HW128103   6.576   8.551  11.361  0.2284  2.0019 -0.6587
 7806SOL    HW228104   6.463   8.601  11.274 -0.5850 -0.7429 -1.2776
 7807SOL     OW28105   8.739   6.306   4.191 -0.0172  0.0814 -0.4732
 7807SOL    HW128106   8.814   6.342   4.144  1.1582 -2.2536 -0.5193
 7807SOL    HW228107   8.695   6.250   4.127 -1.6730  1.1784 -0.3577
 7808SOL     OW28108   5.038   9.048  11.244  0.3474 -0.0099  0.7106
 7808SOL    HW128109   4.962   9.026  11.190 -1.5578 -1.7893  3.7929
 7808SOL    HW228110   5.018   9.135  11.279  1.2681  0.8520 -0.8026
 7809SOL     OW28111   0.821   9.754   4.805  0.5880 -0.1929 -0.2053
 7809SOL    HW128112   0.726   9.762   4.816  0.3257 -1.6284 -1.1581
 7809SOL    HW228113   0.842   9.814   4.733  0.4971  0.4953  0.3303
 7810SOL     OW28114   1.817  11.520   2.619  0.4486  0.0885 -0.0878
 7810SOL    HW128115   1.796  11.429   2.636  0.4591  0.0780 -0.1287
 7810SOL    HW228116   1.733  11.566   2.624  0.4875  0.1263  0.2459
 7811SOL     OW28117   9.781   2.091   7.245  0.0083 -0.0876  0.0730
 7811SOL    HW128118   9.840   2.023   7.214 -1.2507 -0.1580 -2.4291
 7811SOL    HW228119   9.752   2.136   7.165 -1.1380  1.7553  1.4353
 7812SOL     OW28120   0.964   3.343   3.584 -0.0482 -0.0126 -0.2379
 7812SOL    HW128121   1.040   3.286   3.594  1.4379  1.5606 -1.7653
 7812SOL    HW228122   0.996   3.417   3.531 -2.4528  1.0948 -0.2991
 7813SOL     OW28123   2.665   1.239   5.555  0.1903  0.6252  0.2500
 7813SOL    HW128124   2.646   1.327   5.521 -0.2050  0.1937 -0.7076
 7813SOL    HW228125   2.760   1.234   5.559  0.3334  0.2424 -2.1742
 7814SOL     OW28126   5.839   8.916   7.019 -0.1146  0.0259 -0.2615
 7814SOL    HW128127   5.797   8.984   7.072 -1.4034 -1.5495  0.8667
 7814SOL    HW228128   5.779   8.903   6.946  0.3560  0.4066 -0.7176
 7815SOL     OW28129  10.322   1.533   8.237 -0.0517 -0.1658  0.2380
 7815SOL    HW128130  10.281   1.463   8.185  1.2928 -1.0618  0.3133
 7815SOL    HW228131  10.375   1.486   8.302  2.7614  0.8099 -1.1705
 7816SOL     OW28132   5.453  10.705  10.591 -0.0200 -0.2278  0.5039
 7816SOL    HW128133   5.381  10.766  10.609 -0.1167 -0.7203  1.8985
 7816SOL    HW228134   5.411  10.628  10.554  0.0906  0.4839 -1.1617
 7817SOL     OW28135  10.145   2.178   7.112  0.3159 -0.1824 -0.0720
 7817SOL    HW128136  10.204   2.252   7.128  0.8634 -0.6032 -0.1211
 7817SOL    HW228137  10.194   2.101   7.143 -1.7979 -0.1793  3.9677
 7818SOL     OW28138   9.734   8.484   1.848  0.0446  0.6972  0.9815
 7818SOL    HW128139   9.785   8.546   1.796  1.1789 -0.3592  0.7591
 7818SOL    HW228140   9.685   8.538   1.909  1.0193  1.8111  0.8210
 7819SOL     OW28141   1.030  10.944   1.205 -0.3838  0.3930  0.1953
 7819SOL    HW128142   1.007  10.893   1.283  0.2399 -0.3964 -0.1332
 7819SOL    HW228143   1.095  10.891   1.160 -0.1206  1.2417 -0.4319
 7820SOL     OW28144  11.711  11.989   5.274  0.2066 -0.1731  0.4038
 7820SOL    HW128145  11.637  11.974   5.333  0.6841 -0.9315  0.8237
 7820SOL    HW228146  11.738  11.902   5.247  0.0774  0.1579 -0.8634
 7821SOL     OW28147   5.241   5.534   0.123 -0.2762  0.3952 -0.3508
 7821SOL    HW128148   5.254   5.628   0.141 -3.1963  0.9076 -0.5184
 7821SOL    HW228149   5.314   5.511   0.065  1.5446  2.0736  1.1026
 7822SOL     OW28150   7.443   9.275   4.185  0.1221  0.2582 -0.0445
 7822SOL    HW128151   7.394   9.293   4.266 -0.5016 -0.7557 -0.1719
 7822SOL    HW228152   7.375   9.260   4.119  0.6275  1.1468 -0.7847
 7823SOL     OW28153   3.800   1.205   6.082 -0.2450 -0.1075  0.3232
 7823SOL    HW128154   3.894   1.196   6.067 -0.2469  1.2656 -0.8565
 7823SOL    HW228155   3.778   1.139   6.147  1.6128 -0.1765  0.9133
 7824SOL     OW28156  10.405   9.643   7.936  0.1243  0.4913 -0.5052
 7824SOL    HW128157  10.424   9.563   7.887 -1.4680 -1.2907  1.5899
 7824SOL    HW228158  10.310   9.651   7.934  0.2514  2.5829 -0.9397
 7825SOL     OW28159   0.698   1.940   4.774 -0.0792 -0.1594  0.4724
 7825SOL    HW128160   0.611   1.899   4.772 -0.7161  1.1433  0.1125
 7825SOL    HW228161   0.712   1.960   4.866  0.0278 -0.7397  0.5868
 7826SOL     OW28162   0.371   9.901  10.517  0.6553 -0.9583  0.0103
 7826SOL    HW128163   0.428   9.868  10.447 -0.8453 -3.0090 -0.3427
 7826SOL    HW228164   0.288   9.921  10.473  0.6738  0.7885  0.7133
 7827SOL     OW28165  10.467   0.406  11.877  0.3126 -0.1253 -0.5517
 7827SOL    HW128166  10.519   0.357  11.814  2.8430  0.8196  0.6854
 7827SOL    HW228167  10.477   0.359  11.960  1.8609  1.7204  0.4057
 7828SOL     OW28168   3.500   1.358   9.614  0.2863  0.0426  0.1918
 7828SOL    HW128169   3.492   1.424   9.545  2.2603  0.4160  0.2610
 7828SOL    HW228170   3.576   1.385   9.665 -1.2549 -0.0745  2.7436
 7829SOL     OW28171   6.536  10.318   9.858  0.0377  0.3390 -0.0987
 7829SOL    HW128172   6.588  10.345   9.782 -0.3335  0.3953 -0.3384
 7829SOL    HW228173   6.455  10.284   9.820 -0.1165  0.2880  0.2719
 7830SOL     OW28174  11.322   6.783   3.201  0.7474 -0.2862 -0.1424
 7830SOL    HW128175  11.352   6.870   3.230  0.1613  0.1526 -0.8082
 7830SOL    HW228176  11.327   6.787   3.106 -1.8671 -0.0018 -0.3219
 7831SOL     OW28177   9.571   0.518   5.995 -0.7212  0.0871 -0.1288
 7831SOL    HW128178   9.628   0.580   6.041 -0.4275 -0.2246 -0.0664
 7831SOL    HW228179   9.611   0.432   6.012 -0.5882 -0.0299 -0.9896
 7832SOL     OW28180   2.184  10.025   6.297  0.1016 -0.2763 -0.0107
 7832SOL    HW128181   2.209  10.117   6.294 -0.8792  0.1059  2.0296
 7832SOL    HW228182   2.090  10.026   6.314  0.1338 -1.6599  0.3994
 7833SOL     OW28183   6.020   1.351   3.489 -0.2324  0.7435 -0.1800
 7833SOL    HW128184   6.002   1.257   3.479 -0.4360  0.9471 -2.3883
 7833SOL    HW228185   5.948   1.384   3.542 -1.7154  0.0761 -1.6885
 7834SOL     OW28186  10.506  10.139   3.510  0.3183 -0.6590 -0.9793
 7834SOL    HW128187  10.547  10.053   3.518  1.8227  0.1057 -0.1026
 7834SOL    HW228188  10.571  10.192   3.465 -0.0293  0.3880 -0.2755
 7835SOL     OW28189   5.399   5.129   5.890 -0.3659 -0.6733  0.0076
 7835SOL    HW128190   5.317   5.162   5.853 -1.0932 -2.7879 -0.3893
 7835SOL    HW228191   5.456   5.207   5.896 -1.0510  0.2141 -3.2832
 7836SOL     OW28192   2.040   7.881  10.837 -0.6778  0.3468  0.3769
 7836SOL    HW128193   2.116   7.911  10.888 -0.2220 -0.6920  0.3339
 7836SOL    HW228194   1.988   7.830  10.900 -0.7335  0.0679  0.1047
 7837SOL     OW28195   9.605   3.927   5.107  0.5780  0.3445  0.3147
 7837SOL    HW128196   9.644   3.987   5.170 -0.0437  0.1304  0.9218
 7837SOL    HW228197   9.511   3.948   5.109  0.5224  0.2075 -0.4051
 7838SOL     OW28198   5.465   5.139   8.972 -0.0649  0.8647  0.0692
 7838SOL    HW128199   5.382   5.101   8.945  0.3777 -0.3034  0.3151
 7838SOL    HW228200   5.495   5.083   9.044  1.3051  0.7990 -0.5137
 7839SOL     OW28201  11.428  11.802   5.809  0.0427  0.2319 -0.1358
 7839SOL    HW128202  11.501  11.757   5.851 -1.0249 -1.4575  0.0173
 7839SOL    HW228203  11.449  11.803   5.716  0.3880 -0.0070 -0.0598
 7840SOL     OW28204   2.843   0.427   6.786  0.3927  0.1927 -0.1453
 7840SOL    HW128205   2.828   0.360   6.853  0.8823  1.4651  1.2844
 7840SOL    HW228206   2.761   0.476   6.783  0.5404  0.4403 -0.1291
 7841SOL     OW28207   2.903   8.427   8.135  0.1210  0.1989  0.1816
 7841SOL    HW128208   2.990   8.391   8.152  0.3649  1.0213  0.7375
 7841SOL    HW228209   2.883   8.402   8.045 -0.7665 -3.4546  1.2267
 7842SOL     OW28210   0.530  10.533   9.696  0.4115 -0.5841 -0.1805
 7842SOL    HW128211   0.558  10.468   9.761  0.5251 -0.8520 -0.4941
 7842SOL    HW228212   0.490  10.481   9.627  0.5740 -0.3222 -0.4696
 7843SOL     OW28213  10.670   4.669   4.725  0.2185  0.0170  0.1387
 7843SOL    HW128214  10.686   4.598   4.786  2.0823  0.0435 -0.2739
 7843SOL    HW228215  10.737   4.735   4.746 -0.2999  0.8388 -0.6930
 7844SOL     OW28216   0.953   0.566   7.252  0.1366 -0.0837  0.6245
 7844SOL    HW128217   0.909   0.568   7.338  1.6350 -0.8690  1.4538
 7844SOL    HW228218   0.953   0.473   7.228  2.5461 -0.3335  1.3454
 7845SOL     OW28219   1.208   4.070   0.473  0.4849 -0.1299 -0.1768
 7845SOL    HW128220   1.172   4.132   0.409 -0.2929  1.2941  1.5328
 7845SOL    HW228221   1.133   4.047   0.529  0.8038 -2.5113 -0.6244
 7846SOL     OW28222   8.775   6.148   9.517  0.0032  0.2784  0.6555
 7846SOL    HW128223   8.845   6.213   9.526 -0.7322  1.1182  0.4152
 7846SOL    HW228224   8.719   6.183   9.447 -1.1494  0.0783  1.4663
 7847SOL     OW28225  10.147   2.763   1.271 -0.3597  0.5182  0.5504
 7847SOL    HW128226  10.163   2.819   1.195  1.8393 -0.4448  0.2246
 7847SOL    HW228227  10.176   2.816   1.346  1.4636  0.0130  0.2668
 7848SOL     OW28228   7.064   3.595  11.994 -0.5854 -0.8810  0.1968
 7848SOL    HW128229   6.985   3.616  12.045 -1.8866 -1.6617 -1.3913
 7848SOL    HW228230   7.108   3.679  11.982 -2.1756 -0.0922 -0.4444
 7849SOL     OW28231   2.628   3.608   4.161  0.3421 -0.0255  0.0510
 7849SOL    HW128232   2.687   3.603   4.086  1.3130 -0.3426  0.8152
 7849SOL    HW228233   2.573   3.530   4.154  1.5812 -0.9844  0.5792
 7850SOL     OW28234   4.155   1.768   7.519  0.9551  0.4846 -0.1011
 7850SOL    HW128235   4.146   1.863   7.507  2.4500  0.5865 -0.6094
 7850SOL    HW228236   4.109   1.730   7.445  0.3095  0.8146  0.1281
 7851SOL     OW28237   2.560   7.302  11.871  0.0711  0.4447  0.1606
 7851SOL    HW128238   2.616   7.225  11.864 -1.6748 -1.0034  1.3693
 7851SOL    HW228239   2.534   7.321  11.781 -1.2317 -1.7795  0.0128
 7852SOL     OW28240   6.144   0.872  10.150 -0.7054  0.1298  0.8280
 7852SOL    HW128241   6.142   0.968  10.142  0.2992  0.1203  0.3989
 7852SOL    HW228242   6.236   0.848  10.138 -1.0720 -0.9664 -0.0134
 7853SOL     OW28243   3.226   7.064   2.755 -0.0679 -0.2008  0.1541
 7853SOL    HW128244   3.273   7.119   2.818 -2.9075  3.9851 -0.9859
 7853SOL    HW228245   3.156   7.024   2.806  1.1854 -1.7593  0.7174
 7854SOL     OW28246   8.067   5.903  10.293  0.0122  0.2869  0.0853
 7854SOL    HW128247   8.162   5.893  10.286 -0.0879 -1.0016  0.4180
 7854SOL    HW228248   8.053   5.949  10.375  0.4148  2.0482 -0.7824
 7855SOL     OW28249  10.012   3.726  11.829 -0.1133  0.1887 -0.2499
 7855SOL    HW128250  10.079   3.688  11.886 -1.1362 -0.2969  0.6560
 7855SOL    HW228251   9.981   3.652  11.777 -1.9465 -0.2208  1.3520
 7856SOL     OW28252   2.240   2.403  11.962  0.6368  0.3461  0.1226
 7856SOL    HW128253   2.230   2.423  11.869 -3.5356  0.9782  0.5396
 7856SOL    HW228254   2.214   2.483  12.007  3.4230  0.3483  1.9698
 7857SOL     OW28255   6.178   2.492   4.491 -0.1949  0.0942  0.8211
 7857SOL    HW128256   6.247   2.546   4.452 -0.6145  0.7322  0.9513
 7857SOL    HW228257   6.167   2.419   4.429 -0.6919  0.9689 -0.1555
 7858SOL     OW28258  11.574   6.362   7.035  0.2162 -0.5647  0.2951
 7858SOL    HW128259  11.505   6.419   7.068  2.2025  2.8264 -0.8598
 7858SOL    HW228260  11.641   6.364   7.103  0.7121 -0.6614 -0.1818
 7859SOL     OW28261   9.638   7.881   4.068 -0.4676 -0.6946  0.5354
 7859SOL    HW128262   9.729   7.853   4.079 -0.8591 -2.5083 -0.4368
 7859SOL    HW228263   9.625   7.882   3.973 -0.6908  2.3390  0.5081
 7860SOL     OW28264   0.170   6.758   9.440  0.4225  0.0258  0.0418
 7860SOL    HW128265   0.219   6.830   9.479  1.2800  0.8026 -2.2902
 7860SOL    HW228266   0.101   6.800   9.389  0.4641 -0.8214 -0.7438
 7861SOL     OW28267   3.561   4.083   5.955 -0.0844 -0.1716  0.2205
 7861SOL    HW128268   3.475   4.053   5.985 -1.5700  2.6330 -0.7859
 7861SOL    HW228269   3.555   4.081   5.859  1.5635 -1.3183  0.1069
 7862SOL     OW28270   8.808   1.073   4.782  0.1146  0.5111 -0.5404
 7862SOL    HW128271   8.875   1.140   4.765  1.0927 -0.3206 -0.0415
 7862SOL    HW228272   8.857   0.995   4.806 -0.9770 -0.5628 -1.6117
 7863SOL     OW28273  11.935   4.717  10.869  0.0016 -0.6432 -0.6583
 7863SOL    HW128274  11.884   4.796  10.852  1.3290  0.4446  0.2934
 7863SOL    HW228275  12.011   4.724  10.812  0.3016 -1.0769 -0.3168
 7864SOL     OW28276   7.080   6.862   2.144 -0.0046  0.1210  0.4235
 7864SOL    HW128277   7.087   6.870   2.239 -0.4760 -0.7464  0.5399
 7864SOL    HW228278   7.084   6.952   2.112 -2.7118  0.7014  1.4609
 7865SOL     OW28279   4.351   8.340  11.751 -0.0975 -0.2043 -0.3051
 7865SOL    HW128280   4.333   8.425  11.711 -1.2799  0.0760  0.7404
 7865SOL    HW228281   4.439   8.318  11.723  0.9876  2.2524  0.8882
 7866SOL     OW28282   4.195   3.796   4.746  0.6479  0.0780 -0.3377
 7866SOL    HW128283   4.174   3.888   4.735  3.4547  1.0278  1.2745
 7866SOL    HW228284   4.291   3.793   4.746  0.6514 -2.7326  0.4903
 7867SOL     OW28285   4.986   5.980   3.756 -0.4399  0.0322  0.4425
 7867SOL    HW128286   4.897   5.946   3.750 -1.1311  1.8621 -0.3246
 7867SOL    HW228287   4.977   6.068   3.793  1.1366 -0.0553  1.1274
 7868SOL     OW28288  11.682  11.638   6.262  0.4444 -0.0144 -0.3762
 7868SOL    HW128289  11.710  11.659   6.172 -0.2989  1.5487 -0.2726
 7868SOL    HW228290  11.761  11.650   6.315  0.1278  2.5209 -0.3542
 7869SOL     OW28291   2.863   2.631   7.275 -0.3109 -0.2913 -0.4263
 7869SOL    HW128292   2.917   2.552   7.266  0.3858  0.1490 -0.1690
 7869SOL    HW228293   2.912   2.698   7.228 -0.5528  0.1549 -0.0393
 7870SOL     OW28294   6.896   7.083   9.248  0.3230  0.0117 -0.5076
 7870SOL    HW128295   6.887   7.054   9.338  0.7723 -0.8673 -0.7349
 7870SOL    HW228296   6.851   7.168   9.245 -1.6015 -0.9527  0.0226
 7871SOL     OW28297   5.145   2.550   9.823  0.4264  0.5986  0.3162
 7871SOL    HW128298   5.210   2.498   9.775 -0.5533  0.3268 -0.7656
 7871SOL    HW228299   5.196   2.605   9.882  1.6021  0.0184 -0.1369
 7872SOL     OW28300   7.946   2.446   2.758  0.1880 -0.7684  0.0819
 7872SOL    HW128301   7.897   2.504   2.816 -1.4755 -0.3747 -1.5985
 7872SOL    HW228302   7.878   2.406   2.702  1.6156 -1.7922 -0.9867
 7873SOL     OW28303   8.027   9.400   5.603 -0.7249 -0.1843  0.7017
 7873SOL    HW128304   7.958   9.366   5.546  1.2284  0.8180 -2.5255
 7873SOL    HW228305   8.018   9.495   5.598  0.6030 -0.0432  0.5245
 7874SOL     OW28306  10.427   7.211   9.432  0.4069 -0.2347  0.3564
 7874SOL    HW128307  10.489   7.239   9.499  1.8005 -0.9981 -0.5652
 7874SOL    HW228308  10.389   7.130   9.467 -1.2242  0.9885  1.5746
 7875SOL     OW28309   9.631   7.096  10.243 -0.0293 -0.0451 -0.2613
 7875SOL    HW128310   9.543   7.103  10.278  0.0554 -0.8217  0.1477
 7875SOL    HW228311   9.623   7.122  10.152 -0.4024  1.2787  0.1284
 7876SOL     OW28312   7.538   2.547   6.789 -0.2530 -0.0149  0.5876
 7876SOL    HW128313   7.602   2.507   6.730 -1.9300 -1.5956 -0.2800
 7876SOL    HW228314   7.493   2.472   6.829 -2.1474  0.9884  0.4481
 7877SOL     OW28315   6.279   4.883   1.889 -0.4063  0.1162 -0.2947
 7877SOL    HW128316   6.306   4.925   1.808  1.8999 -1.4685 -0.4450
 7877SOL    HW228317   6.312   4.942   1.958  1.0706 -0.4245 -0.5122
 7878SOL     OW28318  10.275  11.833   7.256  0.4370 -0.1980 -0.3008
 7878SOL    HW128319  10.357  11.857   7.213  1.0778 -3.7595 -1.4346
 7878SOL    HW228320  10.208  11.845   7.189  0.3882  0.4227 -0.1475
 7879SOL     OW28321   3.040  10.100   8.128  0.1540 -0.1513  0.2009
 7879SOL    HW128322   3.027  10.058   8.213 -0.7088  0.0502  0.1728
 7879SOL    HW228323   2.996  10.185   8.136 -0.0841 -0.2010 -0.5017
 7880SOL     OW28324  10.949   0.196   6.954 -0.7143 -0.1710  0.4119
 7880SOL    HW128325  10.964   0.104   6.933 -0.2924 -0.0099 -0.0207
 7880SOL    HW228326  11.018   0.243   6.907  0.3240  0.2151  2.2274
 7881SOL     OW28327   4.298   2.300   3.247  0.1171 -0.0313 -0.2989
 7881SOL    HW128328   4.207   2.285   3.223  0.5267 -1.1396 -1.2631
 7881SOL    HW228329   4.318   2.231   3.310  0.3215  0.1103 -0.2095
 7882SOL     OW28330   3.168   0.020   4.298  0.3657 -0.3168  0.4677
 7882SOL    HW128331   3.244  -0.039   4.293  0.6875 -0.0101  1.4540
 7882SOL    HW228332   3.111  -0.022   4.363 -0.2908 -0.5183 -0.2372
 7883SOL     OW28333  10.899   6.184   1.979 -0.6143 -0.6785 -0.0167
 7883SOL    HW128334  10.843   6.248   2.022 -0.7658  0.4984 -1.8383
 7883SOL    HW228335  10.840   6.134   1.922  0.1083  0.7659 -2.1804
 7884SOL     OW28336  11.216   8.535   2.201  0.4937 -0.3672  0.3106
 7884SOL    HW128337  11.285   8.468   2.198  1.3026  0.2206  2.8712
 7884SOL    HW228338  11.253   8.604   2.256 -0.8064  1.6584 -1.2595
 7885SOL     OW28339   6.323   8.294  10.764 -0.2352  0.2447  0.1488
 7885SOL    HW128340   6.342   8.236  10.837  0.6049 -0.0430 -0.2832
 7885SOL    HW228341   6.261   8.245  10.710  0.1725 -0.1010 -0.0150
 7886SOL     OW28342   4.105   2.850   7.501  0.7314  0.0325 -0.0711
 7886SOL    HW128343   4.030   2.801   7.535  2.0333 -1.3962  0.9108
 7886SOL    HW228344   4.151   2.787   7.446  2.2337  0.2355  0.8885
 7887SOL     OW28345   0.151  10.289   2.588  0.2389  0.2918 -0.2644
 7887SOL    HW128346   0.141  10.243   2.671 -2.0167  1.7275  0.3584
 7887SOL    HW228347   0.226  10.347   2.602  0.4281 -0.1120  0.4457
 7888SOL     OW28348   9.622   8.832   1.439 -0.2767 -0.5019  0.0257
 7888SOL    HW128349   9.638   8.845   1.532 -1.5468  0.7508  0.1162
 7888SOL    HW228350   9.706   8.851   1.397  0.3181 -1.1327  0.9081
 7889SOL     OW28351   1.208   2.383   9.683  0.0140 -0.2843  0.5447
 7889SOL    HW128352   1.237   2.293   9.694  1.3739 -0.0565 -0.7859
 7889SOL    HW228353   1.152   2.381   9.605  0.3952  0.0546  0.2490
 7890SOL     OW28354   7.678   2.762   0.130 -0.4414 -0.5627  0.3299
 7890SOL    HW128355   7.678   2.706   0.207 -1.2800 -1.2992 -0.1914
 7890SOL    HW228356   7.612   2.829   0.150 -2.4560 -2.1390 -0.6864
 7891SOL     OW28357   6.529  10.068   9.366 -0.3384  0.2577 -0.0513
 7891SOL    HW128358   6.447  10.117   9.366 -0.7296 -0.3757 -0.2355
 7891SOL    HW228359   6.513   9.995   9.305  0.7373  0.7335 -0.9449
 7892SOL     OW28360   0.034  11.396   9.886 -0.2445 -0.5510  0.0595
 7892SOL    HW128361   0.043  11.323   9.823 -1.7342 -0.2867 -0.5202
 7892SOL    HW228362  -0.054  11.384   9.922 -0.5711  1.0370 -0.1554
 7893SOL     OW28363  11.252   4.499  11.823  0.3214  0.1285  0.2900
 7893SOL    HW128364  11.299   4.419  11.845  0.1983 -0.1654 -0.4736
 7893SOL    HW228365  11.317   4.556  11.782  0.1862  0.0146 -0.0904
 7894SOL     OW28366   1.763  11.266   2.624 -0.1157  0.0039  0.3794
 7894SOL    HW128367   1.803  11.252   2.538 -0.0186 -1.2763  0.6068
 7894SOL    HW228368   1.763  11.179   2.664 -1.6425  0.2695  1.0335
 7895SOL     OW28369  11.322   3.029   4.844  0.4248 -0.5436 -0.2845
 7895SOL    HW128370  11.317   3.008   4.937 -1.1151  0.3665 -0.1294
 7895SOL    HW228371  11.237   3.003   4.809  0.1035  1.2709 -0.9390
 7896SOL     OW28372   6.161   6.844   5.778 -0.4336  0.0281 -0.0542
 7896SOL    HW128373   6.094   6.776   5.787 -2.6377  1.6917 -2.2483
 7896SOL    HW228374   6.127   6.917   5.829 -0.7721  1.1460 -1.7773
 7897SOL     OW28375   3.144   9.593   0.844  0.6397 -0.0250  0.1710
 7897SOL    HW128376   3.156   9.686   0.861  0.1890 -0.0909  0.8762
 7897SOL    HW228377   3.103   9.559   0.924 -0.2075 -0.6150 -0.4953
 7898SOL     OW28378   8.066   2.124   9.735 -0.0440  0.3077 -0.2895
 7898SOL    HW128379   8.000   2.128   9.665  0.4693  0.7199 -0.7676
 7898SOL    HW228380   8.118   2.047   9.714  0.3361  0.6354 -0.5860
 7899SOL     OW28381   8.586   7.170  11.252  0.0091 -0.5135 -0.1828
 7899SOL    HW128382   8.603   7.123  11.333 -0.4906 -0.5408 -0.0959
 7899SOL    HW228383   8.502   7.138  11.222 -0.6076  0.7104  0.1601
 7900SOL     OW28384  10.366  11.142  10.839 -0.7795  0.0920  0.1270
 7900SOL    HW128385  10.402  11.059  10.809  0.3660  0.9119 -0.8370
 7900SOL    HW228386  10.314  11.173  10.765  0.1381  1.0144 -0.1346
 7901SOL     OW28387  11.999   5.750   1.707 -0.7708  0.1591 -0.3378
 7901SOL    HW128388  12.002   5.722   1.616 -1.5921  0.0416 -0.3327
 7901SOL    HW228389  11.915   5.718   1.740 -0.5754  0.3790  0.4034
 7902SOL     OW28390   2.843   7.119   7.007  0.0449  0.2436  0.2202
 7902SOL    HW128391   2.855   7.142   7.100 -0.0069 -3.0103  1.1527
 7902SOL    HW228392   2.927   7.138   6.967  0.2705  1.1086  1.0578
 7903SOL     OW28393   5.284   4.786  11.060 -0.1391 -0.3948  0.4729
 7903SOL    HW128394   5.354   4.729  11.026 -0.0300  0.1424 -0.2106
 7903SOL    HW228395   5.297   4.870  11.016 -1.0845 -0.2196  0.5050
 7904SOL     OW28396   9.820   4.597   4.902 -0.0408 -0.1508  0.4742
 7904SOL    HW128397   9.733   4.625   4.932  0.7880  1.1072  1.9171
 7904SOL    HW228398   9.823   4.503   4.921 -0.2146  0.2574  2.8758
 7905SOL     OW28399   2.489   0.697   3.927 -0.3807 -0.3256 -0.2947
 7905SOL    HW128400   2.431   0.690   3.851 -1.3059 -1.1070  0.4669
 7905SOL    HW228401   2.558   0.633   3.911 -1.7544 -2.0861  0.5082
 7906SOL     OW28402   9.575  11.980   1.476 -0.2857 -0.2230  0.0413
 7906SOL    HW128403   9.581  11.925   1.398 -0.4603  0.1400 -0.2304
 7906SOL    HW228404   9.560  12.069   1.442  0.6360  0.0994  0.4515
 7907SOL     OW28405   7.502   8.971   6.736  0.0569  0.0997  0.3891
 7907SOL    HW128406   7.493   9.053   6.688 -0.7488  1.0830  2.1465
 7907SOL    HW228407   7.584   8.980   6.784 -0.6240  0.4202  1.5290
 7908SOL     OW28408   7.337   0.026   4.844  0.3151 -0.3310 -0.6764
 7908SOL    HW128409   7.413  -0.031   4.836 -0.5184 -1.5297 -0.3118
 7908SOL    HW228410   7.312   0.046   4.754  1.8583  1.2119 -0.8084
 7909SOL     OW28411   9.824   4.008   7.590 -0.8179  0.1877 -0.3643
 7909SOL    HW128412   9.910   3.972   7.569 -0.9570  0.5146 -1.6162
 7909SOL    HW228413   9.764   3.934   7.582 -0.5549 -0.2721  1.5089
 7910SOL     OW28414  10.025   1.279   3.642  0.0556  0.6719 -0.3433
 7910SOL    HW128415   9.989   1.198   3.607  1.0013  0.6886 -1.3822
 7910SOL    HW228416  10.011   1.272   3.737 -0.6495 -0.3045 -0.5050
 7911SOL     OW28417   5.515   6.652  10.684 -0.6093  0.8185 -0.1130
 7911SOL    HW128418   5.563   6.729  10.656  1.5146 -0.5285 -0.4322
 7911SOL    HW228419   5.475   6.617  10.604  0.1541  0.4849 -0.3630
 7912SOL     OW28420   0.288   9.731   6.961  0.3343 -0.3941 -0.4276
 7912SOL    HW128421   0.248   9.767   6.882  2.3317 -0.0109 -1.3277
 7912SOL    HW228422   0.280   9.800   7.026  0.0686 -0.0888 -0.7821
 7913SOL     OW28423   2.934  10.284   4.497  0.0231 -0.3157 -0.0329
 7913SOL    HW128424   3.016  10.239   4.515 -0.2239 -0.3789  1.0039
 7913SOL    HW228425   2.960  10.368   4.460  0.5674 -0.1483  0.7214
 7914SOL     OW28426   3.071   6.904   0.760 -0.2129  0.3518 -0.6793
 7914SOL    HW128427   3.009   6.834   0.742 -0.1297  0.1659 -0.2716
 7914SOL    HW228428   3.071   6.912   0.856  0.3556  0.3718 -0.6731
 7915SOL     OW28429   3.046   4.953   1.559  0.0118  0.5891 -0.2423
 7915SOL    HW128430   3.106   4.971   1.487 -0.6375  0.7475 -0.7582
 7915SOL    HW228431   3.084   4.878   1.604  0.6371  0.7438 -0.5038
 7916SOL     OW28432  10.884  10.110   5.912  0.2799  0.2701  0.3831
 7916SOL    HW128433  10.862  10.202   5.930  0.1371 -0.0729  2.1751
 7916SOL    HW228434  10.933  10.112   5.831 -0.3596  1.8576  0.0047
 7917SOL     OW28435   9.641   2.562   9.002  0.1405 -0.1852 -0.5241
 7917SOL    HW128436   9.614   2.640   9.050  1.3618 -1.4984  2.5725
 7917SOL    HW228437   9.709   2.593   8.942  0.6108  1.1334  0.6463
 7918SOL     OW28438  10.888  11.406   9.248  0.4309 -0.3029 -0.0578
 7918SOL    HW128439  10.959  11.349   9.218  0.6993 -0.6498  1.1642
 7918SOL    HW228440  10.853  11.361   9.326 -1.8020 -0.6634 -1.1890
 7919SOL     OW28441   7.113   3.027   6.400  0.0210 -0.3947 -0.2972
 7919SOL    HW128442   7.186   2.995   6.347  0.0988 -0.8402  0.0744
 7919SOL    HW228443   7.153   3.052   6.483  0.0583  1.2121 -0.7592
 7920SOL     OW28444  11.504   9.456  10.607 -0.0643 -0.2219  0.4172
 7920SOL    HW128445  11.577   9.417  10.560  0.3988  0.2819  0.7009
 7920SOL    HW228446  11.444   9.485  10.538  0.6383  0.5749  0.1277
 7921SOL     OW28447   3.324   8.213   8.990 -0.0827  0.3856 -0.2384
 7921SOL    HW128448   3.239   8.241   8.956 -0.6677 -0.5773  0.3779
 7921SOL    HW228449   3.363   8.163   8.919 -0.1528  0.5825 -0.4173
 7922SOL     OW28450  10.654   4.247   4.963  0.2929  0.3708 -0.3324
 7922SOL    HW128451  10.615   4.235   4.877 -2.6136 -1.6954  1.1068
 7922SOL    HW228452  10.732   4.192   4.962  0.8405  1.1028 -1.8622
 7923SOL     OW28453   3.291   9.116  10.274 -0.0416 -0.1468  0.5394
 7923SOL    HW128454   3.279   9.183  10.208  0.3685 -0.8325 -0.2437
 7923SOL    HW228455   3.263   9.158  10.356  0.8053  1.1690  0.1798
 7924SOL     OW28456   4.015  11.997  10.177 -0.0279 -0.0192 -0.0695
 7924SOL    HW128457   3.930  11.994  10.132  0.1465 -0.3647 -0.3834
 7924SOL    HW228458   4.078  12.014  10.107  0.0757  1.1420  0.2821
 7925SOL     OW28459   6.252   0.934   3.030 -0.7053  0.1468  0.3228
 7925SOL    HW128460   6.335   0.963   3.070 -0.3496  0.5892 -0.7108
 7925SOL    HW228461   6.200   0.904   3.104  0.5230 -0.5022  0.9622
 7926SOL     OW28462   8.822   4.804   1.916  0.0342  0.0277  0.1764
 7926SOL    HW128463   8.849   4.794   2.007 -0.0971  0.4301  0.2627
 7926SOL    HW228464   8.798   4.716   1.888  0.7284 -0.2113  0.3229
 7927SOL     OW28465   6.893  10.403  10.074 -0.2641  0.0066 -0.4381
 7927SOL    HW128466   6.831  10.448  10.132 -0.5167  0.8894 -1.3555
 7927SOL    HW228467   6.838  10.365  10.006  0.0729 -0.5865 -0.3844
 7928SOL     OW28468   4.110   8.300   1.986  0.3770 -1.1076  0.2511
 7928SOL    HW128469   4.028   8.338   1.955  1.2306 -0.6411 -1.5165
 7928SOL    HW228470   4.134   8.353   2.062  0.7144  0.9209 -1.1960
 7929SOL     OW28471   9.846  11.149   9.136 -0.5271  0.2976 -0.5118
 7929SOL    HW128472   9.935  11.158   9.170 -0.6464  1.0919 -0.3950
 7929SOL    HW228473   9.795  11.115   9.211 -0.3413 -0.0956 -0.5611
 7930SOL     OW28474  11.246   7.594   6.129 -0.2398  0.1350 -0.3648
 7930SOL    HW128475  11.179   7.650   6.092 -0.2735  0.5925  0.3552
 7930SOL    HW228476  11.233   7.601   6.224  1.4917  1.1118 -0.1566
 7931SOL     OW28477   9.613   6.920   4.427  0.2642 -0.1819  0.2330
 7931SOL    HW128478   9.683   6.876   4.379 -0.3809  0.0950 -1.0138
 7931SOL    HW228479   9.533   6.877   4.398 -0.5293  2.4738 -1.9550
 7932SOL     OW28480   1.257   0.605   6.150 -0.5494 -0.5522 -0.8364
 7932SOL    HW128481   1.174   0.573   6.186 -0.7206 -0.8589 -1.4959
 7932SOL    HW228482   1.260   0.697   6.176 -1.0229 -0.5784 -0.6721
 7933SOL     OW28483   5.325  11.143  11.232  0.2330  0.0063 -0.2888
 7933SOL    HW128484   5.324  11.076  11.300  0.6436  0.1178 -0.1750
 7933SOL    HW228485   5.414  11.176  11.232  0.3258 -0.2449 -1.1359
 7934SOL     OW28486  11.734  11.736   2.959 -0.6942 -0.4351  0.1297
 7934SOL    HW128487  11.686  11.746   2.877  1.0934 -1.1990 -1.0655
 7934SOL    HW228488  11.729  11.642   2.978 -0.9012 -0.2963  0.7817
 7935SOL     OW28489  10.662   7.418   7.763  0.5973 -0.8187 -0.1878
 7935SOL    HW128490  10.637   7.475   7.690  0.8984 -1.1982 -0.5930
 7935SOL    HW228491  10.600   7.345   7.758 -1.7415  0.8222  2.1105
 7936SOL     OW28492  11.058   2.678   2.120  0.1215 -0.2116 -0.0243
 7936SOL    HW128493  10.980   2.622   2.118 -0.1927  0.2477 -1.0608
 7936SOL    HW228494  11.043   2.742   2.051  0.6246  0.9710  0.9302
 7937SOL     OW28495   2.451   1.642   0.185  0.0260 -1.0141 -0.0339
 7937SOL    HW128496   2.478   1.595   0.107  0.4957 -1.1527  0.2092
 7937SOL    HW228497   2.453   1.576   0.255  1.3200 -0.5050  0.4406
 7938SOL     OW28498   4.379  11.875   9.627  0.0583 -0.3599 -0.3499
 7938SOL    HW128499   4.435  11.891   9.551 -1.3953  0.0583 -1.3633
 7938SOL    HW228500   4.311  11.942   9.622  0.6421  0.5393  2.0834
 7939SOL     OW28501   9.622  11.503   8.488  0.2913  0.6377  0.4392
 7939SOL    HW128502   9.568  11.439   8.441  2.5096 -1.0774  0.0614
 7939SOL    HW228503   9.659  11.558   8.419 -0.0310  1.0537  0.5956
 7940SOL     OW28504   7.863   4.176   0.340  0.4386  0.2193  0.0368
 7940SOL    HW128505   7.793   4.222   0.294 -0.5371 -2.0538 -0.9081
 7940SOL    HW228506   7.854   4.204   0.431 -0.8434  0.9691 -0.2999
 7941SOL     OW28507   9.533   6.316   3.039 -0.6142 -0.1700 -0.0707
 7941SOL    HW128508   9.451   6.313   2.990  0.6949  3.2633 -2.9153
 7941SOL    HW228509   9.521   6.384   3.104  0.5779  2.3390 -2.2601
 7942SOL     OW28510   7.529   3.887   6.190 -0.3496  0.4191  0.0518
 7942SOL    HW128511   7.608   3.898   6.136 -0.0916 -3.1059 -0.5233
 7942SOL    HW228512   7.457   3.888   6.127 -0.4717  0.5616  0.1928
 7943SOL     OW28513   9.422   7.867  11.724  0.4510  0.0866 -0.0521
 7943SOL    HW128514   9.419   7.947  11.671  0.4796 -0.3755 -0.7701
 7943SOL    HW228515   9.448   7.897  11.811 -0.5097  0.9894 -0.0525
 7944SOL     OW28516   1.576   0.044   3.489  0.4596  0.3530  0.0440
 7944SOL    HW128517   1.573  -0.040   3.443 -0.2493  0.7614 -0.6797
 7944SOL    HW228518   1.588   0.109   3.420  0.8473  0.8672  0.5810
 7945SOL     OW28519   7.793   2.981   2.245  0.0678 -0.3233 -0.1180
 7945SOL    HW128520   7.705   2.955   2.272  0.5475 -0.5981  1.2453
 7945SOL    HW228521   7.803   3.070   2.280  0.6573 -0.6372  0.5221
 7946SOL     OW28522   9.783   4.562   2.198  0.0562 -0.2162  0.6514
 7946SOL    HW128523   9.854   4.582   2.136  1.0720 -0.5703  1.6564
 7946SOL    HW228524   9.719   4.632   2.185  0.1240 -0.4215 -0.9488
 7947SOL     OW28525   7.777   6.234   2.823 -0.2883 -0.3182 -0.4278
 7947SOL    HW128526   7.843   6.297   2.851  0.0522 -1.0877  0.5754
 7947SOL    HW228527   7.765   6.177   2.899 -2.4774  0.1007 -0.4078
 7948SOL     OW28528   2.110  11.092   3.753  0.5795  0.1599 -0.0955
 7948SOL    HW128529   2.050  11.156   3.715  0.6701  0.2833 -0.0356
 7948SOL    HW228530   2.053  11.025   3.791  0.5027 -0.3176 -1.0375
 7949SOL     OW28531   4.603   3.756   9.246  0.1639  0.8135 -0.0153
 7949SOL    HW128532   4.694   3.785   9.241  0.1127  0.9939  0.0966
 7949SOL    HW228533   4.564   3.813   9.312  0.4111 -0.4056  1.2307
 7950SOL     OW28534   1.347   0.570   4.892  0.2624 -0.1761 -1.0048
 7950SOL    HW128535   1.266   0.520   4.895 -0.1377  0.4917  0.7588
 7950SOL    HW228536   1.416   0.503   4.895 -0.2607 -0.7042  0.6664
 7951SOL     OW28537   0.916   1.243   5.641 -0.2566 -0.4335  0.4179
 7951SOL    HW128538   1.006   1.224   5.664  0.6022  3.8676  1.5168
 7951SOL    HW228539   0.875   1.269   5.723 -2.0880 -0.7930 -0.3270
 7952SOL     OW28540  11.467   2.871   8.333 -0.4062  0.0887  0.0995
 7952SOL    HW128541  11.537   2.880   8.268  0.9773 -0.7620  1.3937
 7952SOL    HW228542  11.452   2.961   8.364 -1.5792  0.6073 -1.8264
 7953SOL     OW28543  10.437  11.578   5.450  0.7288  0.0352  0.2323
 7953SOL    HW128544  10.352  11.619   5.466  1.0304  1.0328 -0.6551
 7953SOL    HW228545  10.477  11.571   5.537 -0.8380 -1.8321  0.8937
 7954SOL     OW28546   1.052   4.740   0.879 -0.0029 -0.1188  0.0780
 7954SOL    HW128547   0.979   4.680   0.862  0.5377 -1.1698  1.3034
 7954SOL    HW228548   1.129   4.693   0.846  0.2222  0.6485 -0.5019
 7955SOL     OW28549   6.136   4.805   5.630  0.2504  0.0459 -0.0700
 7955SOL    HW128550   6.219   4.806   5.679 -0.1706  0.8964  0.6565
 7955SOL    HW228551   6.076   4.755   5.685  0.1821 -0.2821 -0.4369
 7956SOL     OW28552  11.217   8.137  10.896  0.0036 -0.1496 -0.2616
 7956SOL    HW128553  11.286   8.198  10.922 -0.2010  0.3489 -0.8560
 7956SOL    HW228554  11.136   8.180  10.926 -0.2646  0.5753 -1.9106
 7957SOL     OW28555   6.855   8.838   3.431 -0.1035  0.0784  0.0671
 7957SOL    HW128556   6.804   8.764   3.466 -2.3330  1.2246 -0.5176
 7957SOL    HW228557   6.845   8.830   3.336  2.5056 -0.7305 -0.2009
 7958SOL     OW28558   6.709   6.922   0.592 -0.2937  0.6184  0.0347
 7958SOL    HW128559   6.666   6.973   0.661 -0.3992  0.5297  0.0342
 7958SOL    HW228560   6.702   6.978   0.514 -2.3899 -0.3218 -0.5157
 7959SOL     OW28561   0.419  10.815   9.679 -0.2270  0.8434 -0.0090
 7959SOL    HW128562   0.507  10.847   9.698  0.3516 -0.9480  0.5376
 7959SOL    HW228563   0.431  10.721   9.664 -1.8725  0.7897 -1.1948
 7960SOL     OW28564   1.395   8.284   6.272 -0.2171  0.5996 -0.7911
 7960SOL    HW128565   1.385   8.261   6.364 -1.3308  0.6545 -0.8836
 7960SOL    HW228566   1.480   8.249   6.247 -0.1636  0.0707  0.1112
 7961SOL     OW28567   3.521   9.138  11.654  0.2564 -0.1995 -0.0594
 7961SOL    HW128568   3.549   9.064  11.706  3.5448  0.8107 -0.1888
 7961SOL    HW228569   3.563   9.126  11.569 -0.2382  1.1391 -0.5331
 7962SOL     OW28570  11.496  10.915   6.593 -0.0753 -0.1140 -0.1830
 7962SOL    HW128571  11.468  10.963   6.671  1.4014 -0.7879  0.8062
 7962SOL    HW228572  11.494  10.823   6.619 -1.7750 -0.5532 -1.6977
 7963SOL     OW28573   9.904   3.734  10.262 -0.0240  0.0680 -0.8826
 7963SOL    HW128574   9.845   3.807  10.279  0.8646  0.4802  0.7438
 7963SOL    HW228575   9.983   3.774  10.226  0.7185  0.0528  0.6213
 7964SOL     OW28576   6.903   6.465  11.369 -0.6527  0.6848 -0.4101
 7964SOL    HW128577   6.967   6.394  11.376 -1.4397 -0.0579 -0.5814
 7964SOL    HW228578   6.895   6.482  11.275 -0.1636  1.3018 -0.3527
 7965SOL     OW28579   1.235   7.994  11.574  0.1217 -0.4923 -0.3075
 7965SOL    HW128580   1.176   7.949  11.513 -0.0515 -2.2032  1.0463
 7965SOL    HW228581   1.316   8.005  11.525 -0.7981  0.5154 -1.6926
 7966SOL     OW28582   3.086   6.995  11.945 -0.0780  0.0436  0.1504
 7966SOL    HW128583   3.054   6.926  11.887  1.9867 -0.6445 -0.2940
 7966SOL    HW228584   3.041   6.979  12.028  0.0698 -1.6718 -0.0441
 7967SOL     OW28585   1.383   6.036   0.149 -1.0552  0.0416  0.7361
 7967SOL    HW128586   1.414   6.117   0.108 -1.8478  0.5517  1.1207
 7967SOL    HW228587   1.324   5.998   0.084 -0.3132 -0.4875  0.3576
 7968SOL     OW28588   0.300  10.035   2.495  0.6393 -0.2387  0.1167
 7968SOL    HW128589   0.388  10.014   2.463  0.7263  0.4517 -0.1094
 7968SOL    HW228590   0.257  10.079   2.422  0.2266 -0.2318  0.3544
 7969SOL     OW28591   9.317   3.517   4.193  0.0279  0.3143  0.1105
 7969SOL    HW128592   9.379   3.509   4.266 -1.2302 -0.9580  1.0988
 7969SOL    HW228593   9.372   3.528   4.116  1.5077 -0.8758  0.9432
 7970SOL     OW28594   1.522   4.139   8.992 -0.2123  0.0550 -0.2950
 7970SOL    HW128595   1.588   4.078   8.959 -0.5651  0.2310 -1.3870
 7970SOL    HW228596   1.445   4.122   8.937 -0.4466  1.1839 -0.3358
 7971SOL     OW28597   9.533  10.658   8.608 -0.4779 -0.2289 -0.3812
 7971SOL    HW128598   9.453  10.707   8.625 -0.2754  0.2510 -0.8133
 7971SOL    HW228599   9.597  10.695   8.669 -0.2517  0.2295 -0.8963
 7972SOL     OW28600  11.581   1.953   2.880 -0.1138  0.1767 -0.0661
 7972SOL    HW128601  11.632   1.985   2.954  0.4268 -0.7998  0.0023
 7972SOL    HW228602  11.498   1.924   2.918 -0.5958  1.4220 -0.1240
 7973SOL     OW28603   3.877   2.425  11.398  0.7556  0.4696 -0.3496
 7973SOL    HW128604   3.958   2.385  11.427 -0.7527 -0.9131  2.3381
 7973SOL    HW228605   3.815   2.353  11.392 -0.1910  1.3937 -2.9393
 7974SOL     OW28606   2.755   1.577   7.502 -0.1156 -0.5744  0.4047
 7974SOL    HW128607   2.678   1.520   7.500 -0.7014  0.2117 -1.7816
 7974SOL    HW228608   2.727   1.654   7.551 -0.6249 -0.4181 -0.1335
 7975SOL     OW28609  11.140   3.961   7.127  0.2056  0.1446 -0.3187
 7975SOL    HW128610  11.143   4.050   7.161  0.4300  0.3857 -0.9528
 7975SOL    HW228611  11.053   3.952   7.089  0.2891  0.2024 -0.5281
 7976SOL     OW28612   7.728  10.551   2.305  0.5301 -0.1096 -0.2042
 7976SOL    HW128613   7.717  10.460   2.332 -0.6500  0.5514  1.8041
 7976SOL    HW228614   7.643  10.577   2.271 -0.0074  0.9657  1.8070
 7977SOL     OW28615   1.439   5.255   9.575  0.0682  0.2489  0.6953
 7977SOL    HW128616   1.402   5.341   9.593 -0.6983 -0.2745  1.7460
 7977SOL    HW228617   1.367   5.194   9.590  0.6819 -0.6028  0.2845
 7978SOL     OW28618   8.837   4.828   7.679 -0.5657 -0.1368 -0.2087
 7978SOL    HW128619   8.918   4.786   7.648 -1.0463 -1.8583  0.7526
 7978SOL    HW228620   8.820   4.786   7.763 -1.3846  1.6633  0.5625
 7979SOL     OW28621  10.180   0.819   5.672  0.2266 -0.3719 -0.1726
 7979SOL    HW128622  10.230   0.814   5.590  1.4611 -1.5075  0.6149
 7979SOL    HW228623  10.243   0.849   5.737 -0.6313  0.0935  0.4577
 7980SOL     OW28624   5.606   1.348   6.777  0.2629 -0.7740  0.0776
 7980SOL    HW128625   5.582   1.421   6.720 -0.0777 -1.5510 -0.8044
 7980SOL    HW228626   5.648   1.285   6.718  1.7434 -0.7411  1.0607
 7981SOL     OW28627   2.173   8.139   9.811 -0.1395  0.3425  0.2276
 7981SOL    HW128628   2.092   8.117   9.765  0.3715 -0.7204 -0.2142
 7981SOL    HW228629   2.213   8.208   9.759 -0.0626 -0.1475 -0.3818
 7982SOL     OW28630   1.588   5.780   9.036 -0.7590 -0.4972 -0.5556
 7982SOL    HW128631   1.634   5.831   8.969 -0.0713 -0.8157 -0.3334
 7982SOL    HW228632   1.631   5.804   9.118 -1.6470 -0.0545 -0.2125
 7983SOL     OW28633   2.329   3.426   6.774 -0.1912  0.0005 -0.3297
 7983SOL    HW128634   2.245   3.396   6.808 -0.0581 -0.4776 -0.4124
 7983SOL    HW228635   2.394   3.376   6.822  0.1074  1.2320  0.5914
 7984SOL     OW28636   6.404   9.420   0.744 -0.2518 -0.3903  0.4959
 7984SOL    HW128637   6.418   9.419   0.839 -0.2864  0.3725  0.5214
 7984SOL    HW228638   6.311   9.402   0.734 -0.6956  1.5539  0.7436
 7985SOL     OW28639   5.605  11.844   8.547 -0.1194  0.4515 -0.2391
 7985SOL    HW128640   5.671  11.900   8.506 -0.5797  0.0429 -1.5949
 7985SOL    HW228641   5.586  11.778   8.481 -0.9793 -0.1743  0.6167
 7986SOL     OW28642  11.867   5.505   0.092  0.2889 -0.6590  0.0300
 7986SOL    HW128643  11.897   5.573   0.032 -3.2130  2.0124  0.9546
 7986SOL    HW228644  11.895   5.535   0.179 -0.8374 -0.5696  0.3889
 7987SOL     OW28645   1.910   2.636   3.830  0.1737  0.2931  0.1432
 7987SOL    HW128646   1.840   2.574   3.853  1.4708 -1.6929 -1.0160
 7987SOL    HW228647   1.981   2.615   3.891  0.7084  0.4807 -0.4093
 7988SOL     OW28648   2.796   3.470   6.864  0.0900  0.3831  0.0853
 7988SOL    HW128649   2.705   3.497   6.879 -0.1078  1.0213 -1.9552
 7988SOL    HW228650   2.835   3.466   6.952 -2.2923 -1.4279  1.1801
 7989SOL     OW28651   4.368   8.607   4.110  0.0360 -0.2168  0.8627
 7989SOL    HW128652   4.299   8.606   4.044  1.2799 -1.8486 -0.4945
 7989SOL    HW228653   4.408   8.694   4.102 -0.1569 -0.2144 -0.1945
 7990SOL     OW28654   0.742   0.013   5.057  0.5471 -0.0425  0.3218
 7990SOL    HW128655   0.710   0.099   5.029  0.2042 -0.1246  0.4658
 7990SOL    HW228656   0.689  -0.049   5.007  0.3433 -0.1802  0.7037
 7991SOL     OW28657   3.884   5.015   3.483  0.0870 -0.4195 -0.1911
 7991SOL    HW128658   3.963   5.001   3.535 -0.8526 -0.2828  1.3508
 7991SOL    HW228659   3.846   5.096   3.518 -0.4513 -0.1764 -1.2850
 7992SOL     OW28660  11.714   5.232   8.909  0.1603  0.3652  0.3543
 7992SOL    HW128661  11.790   5.173   8.906 -1.5317 -2.0658  1.4341
 7992SOL    HW228662  11.652   5.194   8.846  0.0924  2.7771 -1.1471
 7993SOL     OW28663   6.456   5.577  11.892  0.3101  0.4822  0.1478
 7993SOL    HW128664   6.386   5.606  11.950  1.0755 -0.1071  1.3985
 7993SOL    HW228665   6.525   5.547  11.950 -0.1330 -3.2432 -0.9836
 7994SOL     OW28666  10.771   5.016   7.537  0.2839 -0.5606 -0.1617
 7994SOL    HW128667  10.752   4.924   7.555 -0.8804 -0.1374  0.9321
 7994SOL    HW228668  10.857   5.031   7.577 -0.3251 -0.7417  1.2894
 7995SOL     OW28669   6.612   7.790   4.165  0.0074 -0.0912 -0.6311
 7995SOL    HW128670   6.650   7.872   4.135 -0.6445 -0.0016 -1.2343
 7995SOL    HW228671   6.550   7.816   4.232  0.6866 -0.2013  0.0488
 7996SOL     OW28672   0.809   1.266   6.254 -0.0890  0.9129  0.2120
 7996SOL    HW128673   0.785   1.186   6.208 -0.6284  1.4074 -0.3810
 7996SOL    HW228674   0.806   1.242   6.347 -0.8649  0.4147  0.0659
 7997SOL     OW28675   8.290   1.107   7.676  0.2566 -0.4062  0.3238
 7997SOL    HW128676   8.339   1.174   7.628  0.9148 -0.1160  1.3781
 7997SOL    HW228677   8.253   1.153   7.751  1.4535 -1.3729  1.5525
 7998SOL     OW28678   8.454   2.679   8.414  0.4646  0.3319 -0.4217
 7998SOL    HW128679   8.518   2.740   8.452  1.1835 -0.5040 -0.2536
 7998SOL    HW228680   8.499   2.643   8.337 -0.2739  0.6267 -1.0045
 7999SOL     OW28681   0.705   6.349   7.096  0.1421  0.4104  0.1864
 7999SOL    HW128682   0.659   6.413   7.041 -0.1132  0.3575  0.3343
 7999SOL    HW228683   0.727   6.278   7.036  1.2723  1.0500 -0.1848
 8000SOL     OW28684   6.419   7.189   8.100 -0.3857 -0.0427  0.3087
 8000SOL    HW128685   6.460   7.120   8.152 -1.8820 -0.2615  1.2628
 8000SOL    HW228686   6.416   7.265   8.160 -0.4284  0.2794 -0.0967
 8001SOL     OW28687   3.541   3.480   0.210  0.2715 -0.1796 -0.2416
 8001SOL    HW128688   3.570   3.506   0.298  1.3095  0.0175 -0.6236
 8001SOL    HW228689   3.567   3.389   0.201 -0.9202 -0.5682  0.0874
 8002SOL     OW28690   9.539   2.187   0.727  0.0204 -0.0907 -0.3332
 8002SOL    HW128691   9.538   2.169   0.633  0.7877 -0.8754 -0.2008
 8002SOL    HW228692   9.455   2.153   0.759  0.3747 -1.1685 -0.5099
 8003SOL     OW28693   4.382   3.901   5.148  0.3937  0.2365 -0.5166
 8003SOL    HW128694   4.310   3.852   5.109 -1.0087  1.4506  0.4124
 8003SOL    HW228695   4.394   3.862   5.234 -2.0341  2.5224  1.0354
 8004SOL     OW28696   0.266   5.261   5.017  0.3914 -0.4480 -0.3340
 8004SOL    HW128697   0.200   5.259   4.948  0.8305 -1.5431 -0.7462
 8004SOL    HW228698   0.323   5.187   4.997  0.8954 -0.3919  0.8477
 8005SOL     OW28699   7.701   8.414   2.859 -0.4931  0.5043 -0.3495
 8005SOL    HW128700   7.788   8.374   2.858  0.2722  2.0606  0.0110
 8005SOL    HW228701   7.685   8.433   2.951 -3.0693 -3.3984  0.2577
 8006SOL     OW28702   2.397  10.761   3.646  0.2612  0.9886 -0.1923
 8006SOL    HW128703   2.441  10.764   3.561 -3.7323  2.8499 -2.4812
 8006SOL    HW228704   2.380  10.853   3.668  1.1582  0.5713  2.7526
 8007SOL     OW28705   0.605   6.598  11.162  0.3183 -0.1355  0.1787
 8007SOL    HW128706   0.555   6.672  11.129 -0.7253 -0.6922  0.4755
 8007SOL    HW228707   0.669   6.637  11.222  0.4322  0.6088 -0.4113
 8008SOL     OW28708   4.877  10.066   2.298  0.1738 -0.3255 -0.1850
 8008SOL    HW128709   4.784  10.045   2.306  0.3994 -0.9139  1.1988
 8008SOL    HW228710   4.913   9.993   2.247  0.3422 -1.6327  1.7012
 8009SOL     OW28711   4.011  11.809   9.833 -0.5258 -0.8059 -0.7046
 8009SOL    HW128712   4.066  11.881   9.802  0.4067 -1.4617 -0.6189
 8009SOL    HW228713   3.927  11.821   9.788  0.4555 -1.1505 -2.7241
 8010SOL     OW28714   5.875  11.289   1.078  0.1331  0.7211  0.4654
 8010SOL    HW128715   5.927  11.321   1.152  0.1157 -2.6927  2.1476
 8010SOL    HW228716   5.938  11.240   1.024 -0.5035  0.2029  0.1782
 8011SOL     OW28717   5.318  11.069   4.678  0.5276  0.5992 -0.9113
 8011SOL    HW128718   5.335  11.030   4.764  1.3759  3.0657  0.1359
 8011SOL    HW228719   5.365  11.013   4.616  0.1576 -1.0462  0.2326
 8012SOL     OW28720   5.961   6.844   2.372 -0.1265  0.6901  0.5119
 8012SOL    HW128721   5.941   6.838   2.278 -0.6479  0.8639  0.6049
 8012SOL    HW228722   6.043   6.797   2.382 -1.7291 -2.3443  0.5023
 8013SOL     OW28723   3.301   3.890  11.179  0.3667  0.3843 -0.2751
 8013SOL    HW128724   3.207   3.900  11.193  0.4079  1.8397 -0.8210
 8013SOL    HW228725   3.322   3.804  11.215 -0.9022  0.6531  1.2187
 8014SOL     OW28726   2.705   7.108   5.822  0.6215 -0.3026  1.1122
 8014SOL    HW128727   2.757   7.042   5.775  1.0783  0.5013  0.4692
 8014SOL    HW228728   2.643   7.140   5.758 -1.4966 -2.0303  2.1593
 8015SOL     OW28729   0.066   9.684  11.082 -0.2693  0.2845 -0.7956
 8015SOL    HW128730   0.019   9.767  11.076  0.8579  0.9889 -0.2965
 8015SOL    HW228731   0.033   9.644  11.163 -1.4695 -0.2062 -1.4984
 8016SOL     OW28732   8.942   3.742   1.681 -0.2928 -0.2667 -0.1022
 8016SOL    HW128733   9.015   3.776   1.630  0.3183  1.0846  1.5826
 8016SOL    HW228734   8.864   3.779   1.640  0.1267  0.1329 -0.5489
 8017SOL     OW28735   3.010   4.890   2.482 -0.3715  0.5284  0.1672
 8017SOL    HW128736   2.958   4.854   2.553 -1.8007  1.1757 -0.4979
 8017SOL    HW228737   3.082   4.936   2.525  1.0102 -2.2168  1.0638
 8018SOL     OW28738   4.733  11.610   0.866  0.4624 -0.0105  0.0660
 8018SOL    HW128739   4.829  11.616   0.863  0.4297  2.6857  1.4861
 8018SOL    HW228740   4.704  11.700   0.876 -2.2214 -0.8204  0.1991
 8019SOL     OW28741   2.189   8.962   9.835 -0.1052 -0.4493  0.1752
 8019SOL    HW128742   2.160   9.052   9.817  1.3284  0.1093  0.5013
 8019SOL    HW228743   2.193   8.957   9.930  1.7982 -0.1588  0.1450
 8020SOL     OW28744   6.759   0.398   1.936 -0.3674  0.1780 -0.2655
 8020SOL    HW128745   6.788   0.366   2.022 -1.4337 -0.0036  0.0486
 8020SOL    HW228746   6.670   0.364   1.928 -0.2771  0.1921 -1.4543
 8021SOL     OW28747  11.871   4.576   0.134 -0.4259  0.1242  0.1191
 8021SOL    HW128748  11.876   4.645   0.068  0.6962  1.2768  1.3469
 8021SOL    HW228749  11.957   4.533   0.129 -0.5063 -0.0841  0.5101
 8022SOL     OW28750   9.088   5.233   7.846 -0.1899 -0.2397  0.4257
 8022SOL    HW128751   9.074   5.189   7.762 -1.2793  0.9520 -0.0520
 8022SOL    HW228752   9.038   5.180   7.908 -2.4158  0.8272 -0.3270
 8023SOL     OW28753   5.781   1.421   4.918 -0.2790 -0.1346  0.1046
 8023SOL    HW128754   5.848   1.429   4.850 -0.2826  1.8422  0.2638
 8023SOL    HW228755   5.700   1.450   4.875 -0.4081  0.4751  0.7337
 8024SOL     OW28756   3.718   6.447   4.154 -0.2193  0.3214 -0.8017
 8024SOL    HW128757   3.719   6.352   4.140 -0.8257 -0.3696  2.7993
 8024SOL    HW228758   3.791   6.480   4.102  2.0912 -2.5985  0.3189
 8025SOL     OW28759   0.481   7.110  11.304 -0.5853 -0.2955 -0.1127
 8025SOL    HW128760   0.468   7.037  11.245 -0.0068 -0.5450  0.0691
 8025SOL    HW228761   0.392   7.145  11.319 -0.8966 -1.1213  0.0140
 8026SOL     OW28762   4.653   5.499   8.275 -0.9589 -0.1141 -0.1956
 8026SOL    HW128763   4.606   5.477   8.356 -0.0648 -1.2634  0.0263
 8026SOL    HW228764   4.622   5.435   8.211 -0.4357 -0.2498 -0.3142
 8027SOL     OW28765  10.697   9.757   9.325  0.4866 -0.4789  0.1003
 8027SOL    HW128766  10.761   9.729   9.260 -0.0893 -0.2161 -0.5832
 8027SOL    HW228767  10.750   9.787   9.399  1.2059  1.4838 -1.1594
 8028SOL     OW28768   8.091   0.100   1.850 -0.0037  0.4463 -0.2317
 8028SOL    HW128769   8.007   0.142   1.867  0.3757  1.2978 -0.4056
 8028SOL    HW228770   8.096   0.029   1.913 -0.8542  0.3916 -0.2226
 8029SOL     OW28771  11.606   8.580   4.128  0.4529  0.5499  0.3585
 8029SOL    HW128772  11.647   8.546   4.048 -1.9341  0.6737 -1.0257
 8029SOL    HW228773  11.547   8.649   4.096 -0.4190  0.7425  2.2657
 8030SOL     OW28774  11.037   4.489   7.229  0.3359 -0.1265 -0.1636
 8030SOL    HW128775  10.963   4.550   7.224  1.4549  1.2759 -0.2895
 8030SOL    HW228776  11.058   4.485   7.322 -0.3926 -1.1813 -0.0248
 8031SOL     OW28777   7.678  10.587   9.056  0.0637 -0.5957 -0.2923
 8031SOL    HW128778   7.627  10.636   8.992  0.0404  0.4289  0.4942
 8031SOL    HW228779   7.613  10.536   9.104 -0.0315 -0.5789 -0.4042
 8032SOL     OW28780  11.874   3.680   7.871  0.0653 -0.2407 -0.5641
 8032SOL    HW128781  11.931   3.726   7.810 -0.4852 -0.2976 -1.1287
 8032SOL    HW228782  11.899   3.714   7.957 -0.0380  0.7988 -0.9327
 8033SOL     OW28783  10.016   4.018   8.057  0.2650 -0.0524 -0.1259
 8033SOL    HW128784   9.946   3.995   7.996 -0.6995  0.9777  0.5610
 8033SOL    HW228785  10.031   3.938   8.108 -2.7059  0.5078  1.9209
 8034SOL     OW28786   2.460   3.670   6.738  0.1658 -0.2673  0.0411
 8034SOL    HW128787   2.395   3.599   6.736  1.1648 -1.3706  2.7604
 8034SOL    HW228788   2.501   3.663   6.824  1.6055  2.5043 -0.3102
 8035SOL     OW28789   2.086   2.778   6.192  0.0404 -0.8084  0.0358
 8035SOL    HW128790   2.085   2.688   6.159  2.1752 -1.3033  1.1556
 8035SOL    HW228791   2.144   2.825   6.132 -0.3726 -0.3608 -0.0282
 8036SOL     OW28792   8.541  11.144   4.661  0.0534  0.2648  0.2359
 8036SOL    HW128793   8.604  11.182   4.599 -0.7404 -0.6753 -1.2271
 8036SOL    HW228794   8.462  11.197   4.649 -0.1332  0.0194  0.3735
 8037SOL     OW28795  11.850   7.939   3.801 -0.3401  0.7970 -0.2214
 8037SOL    HW128796  11.924   7.989   3.769  1.1375 -1.2750 -0.2504
 8037SOL    HW228797  11.821   7.887   3.726  0.1318 -0.5922  0.5106
 8038SOL     OW28798   0.324   3.701   3.493 -0.2626  0.0089 -0.1986
 8038SOL    HW128799   0.246   3.672   3.541  0.3028 -0.0478  0.7119
 8038SOL    HW228800   0.352   3.781   3.538  0.5902 -0.3417 -0.0839
 8039SOL     OW28801   8.215  11.283   5.658 -0.0641  0.6858  0.2453
 8039SOL    HW128802   8.262  11.346   5.712  0.8909 -0.4431  0.7771
 8039SOL    HW228803   8.267  11.273   5.579 -0.8374  1.4391 -0.3763
 8040SOL     OW28804   8.677   1.678  11.905 -0.1760  0.4886 -0.4349
 8040SOL    HW128805   8.636   1.744  11.848 -1.8811 -0.7329 -0.6896
 8040SOL    HW228806   8.634   1.596  11.881  0.7530 -0.4488  0.9971
 8041SOL     OW28807   3.764  11.188   5.398 -0.0454 -0.3495  0.4009
 8041SOL    HW128808   3.678  11.182   5.357  0.6482 -1.7152 -0.9980
 8041SOL    HW228809   3.807  11.260   5.352 -0.2442 -0.0707  0.6602
 8042SOL     OW28810   2.645   8.824   4.837 -0.0006  0.2529  0.2860
 8042SOL    HW128811   2.646   8.743   4.887 -1.3255  1.2805  2.0850
 8042SOL    HW228812   2.684   8.889   4.895 -1.0475  1.3799 -0.2234
 8043SOL     OW28813   2.008   8.821   8.314  0.3373  0.4240  0.6620
 8043SOL    HW128814   2.020   8.755   8.383 -0.2169  0.8149  1.1374
 8043SOL    HW228815   1.999   8.770   8.234 -0.7809 -0.1239  1.1181
 8044SOL     OW28816   8.555   0.974   8.567  0.0044 -0.0485 -0.3003
 8044SOL    HW128817   8.633   0.930   8.602 -0.8811 -0.4461  1.2569
 8044SOL    HW228818   8.549   1.056   8.616 -1.1903 -0.5479  0.4228
 8045SOL     OW28819   5.598   2.578   4.575 -0.4777  0.1874 -0.2052
 8045SOL    HW128820   5.631   2.642   4.638 -0.8630 -0.2421  0.4392
 8045SOL    HW228821   5.675   2.527   4.550 -0.0567  1.2391 -1.1479
 8046SOL     OW28822   2.883   1.753   0.757  0.2882  0.3584  0.0464
 8046SOL    HW128823   2.947   1.684   0.774 -0.5920  0.1421  3.2123
 8046SOL    HW228824   2.929   1.834   0.778  0.0952  0.3714  0.4207
 8047SOL     OW28825  10.880  10.917   6.224 -0.3154 -0.8258 -0.0320
 8047SOL    HW128826  10.795  10.924   6.180  0.6814 -1.2986 -2.1442
 8047SOL    HW228827  10.869  10.967   6.305 -2.5482 -0.7421 -0.3314
 8048SOL     OW28828   1.757   0.133   4.469  0.0637 -0.7402  0.6398
 8048SOL    HW128829   1.725   0.223   4.482  1.1091 -0.4376  1.2746
 8048SOL    HW228830   1.713   0.104   4.389 -0.1674  0.4071  0.3174
 8049SOL     OW28831   0.699   1.535   2.251  0.3360  0.1721  0.5298
 8049SOL    HW128832   0.702   1.578   2.165  0.7798  0.5038  0.7038
 8049SOL    HW228833   0.727   1.603   2.313  1.7752 -0.5451  0.7338
 8050SOL     OW28834   6.573   9.509   8.954 -0.4794 -0.2881 -0.0672
 8050SOL    HW128835   6.602   9.600   8.956 -2.1567  0.2708  0.4690
 8050SOL    HW228836   6.517   9.500   9.031 -0.5945 -1.6867 -0.2858
 8051SOL     OW28837  10.945  11.613   3.020 -0.2432 -0.8750 -0.6074
 8051SOL    HW128838  10.961  11.642   3.110 -0.5367  0.1789 -0.8773
 8051SOL    HW228839  10.849  11.609   3.013 -0.2100 -2.4672 -0.4256
 8052SOL     OW28840   5.038   2.889   9.113 -0.2307  0.6055  0.2700
 8052SOL    HW128841   4.960   2.904   9.167 -0.7686  1.1687 -0.6302
 8052SOL    HW228842   5.089   2.969   9.122  0.2154  0.2634  0.8034
 8053SOL     OW28843   5.935  10.482   0.718 -0.3015 -0.1524  0.3693
 8053SOL    HW128844   5.926  10.521   0.805 -1.1724  0.7581 -0.1099
 8053SOL    HW228845   5.870  10.528   0.665 -0.4818 -1.4031 -0.5222
 8054SOL     OW28846  11.114   0.604   8.045  0.0525 -0.1950 -0.4186
 8054SOL    HW128847  11.026   0.572   8.063 -0.0119 -0.0019 -0.3902
 8054SOL    HW228848  11.171   0.529   8.065  0.1624  0.5710  2.5367
 8055SOL     OW28849   6.425   4.310   3.148 -0.3793  0.1008 -0.3385
 8055SOL    HW128850   6.500   4.283   3.201 -0.0549 -1.9516 -1.7368
 8055SOL    HW228851   6.350   4.303   3.208  0.2063 -0.4108  0.3556
 8056SOL     OW28852  10.714   5.086   3.505 -0.0650 -0.4209  0.4549
 8056SOL    HW128853  10.745   5.054   3.420  1.1339  0.4930  0.5180
 8056SOL    HW228854  10.671   5.011   3.545 -2.3318 -0.4187 -1.7033
 8057SOL     OW28855   9.534  11.797   2.755 -0.2517  0.1530  0.0705
 8057SOL    HW128856   9.611  11.853   2.767 -0.4729  0.6658 -0.8122
 8057SOL    HW228857   9.511  11.770   2.843  0.0861  1.1569  0.4867
 8058SOL     OW28858   8.476   8.390   1.923 -0.0117  0.4584 -0.6732
 8058SOL    HW128859   8.438   8.457   1.866  1.2198  2.6916  0.9631
 8058SOL    HW228860   8.567   8.417   1.934 -0.3629  0.6110  2.8857
 8059SOL     OW28861   6.497   2.566   0.107 -0.3594  0.4841  0.7450
 8059SOL    HW128862   6.540   2.560   0.192 -0.7636  0.5596  0.9586
 8059SOL    HW228863   6.547   2.506   0.050 -0.6184 -0.2361  1.2596
 8060SOL     OW28864   8.395   8.889  11.219  0.3875 -0.3151 -0.1255
 8060SOL    HW128865   8.363   8.960  11.163  2.0303  0.1656 -0.4953
 8060SOL    HW228866   8.315   8.848  11.253 -0.6134  0.5498 -1.3441
 8061SOL     OW28867   9.210   7.929  10.356 -0.3654 -0.2759 -0.4886
 8061SOL    HW128868   9.167   7.879  10.286 -1.5573  1.9888 -1.4891
 8061SOL    HW228869   9.144   7.992  10.384 -0.4706 -2.0070  3.8369
 8062SOL     OW28870   8.792   1.405  11.732  0.2376 -0.5638 -0.0071
 8062SOL    HW128871   8.840   1.386  11.652  0.3947  3.6208 -1.1519
 8062SOL    HW228872   8.849   1.374  11.803  1.7203 -1.2331 -1.4383
 8063SOL     OW28873   7.462   3.493  10.538 -0.5595  0.2204  0.3525
 8063SOL    HW128874   7.374   3.463  10.562 -0.6676  1.1619  1.1636
 8063SOL    HW228875   7.518   3.417  10.555 -1.0678 -0.0767  0.7430
 8064SOL     OW28876   0.471   9.185   2.783 -0.3119 -0.3789 -0.2545
 8064SOL    HW128877   0.394   9.128   2.776 -0.4553 -0.2658  0.3456
 8064SOL    HW228878   0.542   9.126   2.809 -0.3089 -0.3995 -0.3112
 8065SOL     OW28879   6.693   1.168   8.438  0.7190  0.2402  0.0839
 8065SOL    HW128880   6.760   1.107   8.408  0.6463  0.4578 -0.5388
 8065SOL    HW228881   6.621   1.157   8.376  0.1712 -0.0015  0.7534
 8066SOL     OW28882   2.880   2.553   1.553 -0.3150  0.3456  0.1165
 8066SOL    HW128883   2.836   2.514   1.628 -0.6658  0.8861  0.2018
 8066SOL    HW228884   2.886   2.482   1.489 -0.8491  0.1236  0.3046
 8067SOL     OW28885  10.482   2.533  10.096 -0.4031  0.1264  0.0807
 8067SOL    HW128886  10.441   2.448  10.076 -1.4595  0.9041 -1.2124
 8067SOL    HW228887  10.575   2.513  10.106 -0.4320 -1.0001 -1.5155
 8068SOL     OW28888   5.662   7.735   9.386  0.4001  0.1628 -0.4060
 8068SOL    HW128889   5.646   7.788   9.464 -0.2317 -1.3246  0.5104
 8068SOL    HW228890   5.575   7.709   9.356  0.5953  1.2040 -1.9972
 8069SOL     OW28891   4.192  10.159   5.698  0.0953  0.1743 -0.2241
 8069SOL    HW128892   4.221  10.187   5.611  1.1159  2.3705  0.7402
 8069SOL    HW228893   4.097  10.162   5.694  0.0707 -1.0340 -1.6063
 8070SOL     OW28894  11.779  11.036   3.570 -0.2315  0.0372  0.0248
 8070SOL    HW128895  11.803  11.072   3.485  0.8276 -0.5469  0.0697
 8070SOL    HW228896  11.689  11.067   3.584  0.4946  2.3984 -0.0818
 8071SOL     OW28897   7.375   3.786   7.017 -0.0434  0.3008  0.1228
 8071SOL    HW128898   7.421   3.710   7.053  1.3476  0.8233 -0.4838
 8071SOL    HW228899   7.445   3.848   6.994 -1.0441  1.0763 -0.9501
 8072SOL     OW28900   2.685   6.575   0.936 -0.1585 -0.2323 -0.8208
 8072SOL    HW128901   2.629   6.538   0.868  0.9734  0.3492 -2.1275
 8072SOL    HW228902   2.718   6.499   0.984 -0.6364 -0.6903 -1.2078
 8073SOL     OW28903   6.590   4.878   6.889 -0.3117  0.4515 -0.2855
 8073SOL    HW128904   6.679   4.857   6.916 -0.4524  0.8904  0.5607
 8073SOL    HW228905   6.541   4.797   6.903 -0.8512  1.1982  2.9436
 8074SOL     OW28906  11.821   4.082   1.125  0.1559  0.5394  0.4358
 8074SOL    HW128907  11.814   4.079   1.029  2.4332 -1.4935  0.2279
 8074SOL    HW228908  11.731   4.072   1.156 -0.6249  1.1154 -1.4856
 8075SOL     OW28909   3.845   0.243   2.244  0.1856 -0.2558  0.0297
 8075SOL    HW128910   3.899   0.226   2.167 -1.0395 -1.8614 -0.5311
 8075SOL    HW228911   3.793   0.164   2.255 -2.3253  1.3243  0.3204
 8076SOL     OW28912   6.570   3.754   2.956  0.2465  0.4378 -0.0132
 8076SOL    HW128913   6.641   3.691   2.945  0.0623  0.2976 -0.4334
 8076SOL    HW228914   6.611   3.831   2.995  0.5733  0.2522  0.0051
 8077SOL     OW28915   0.406  11.901   6.344 -0.2473  0.4519 -0.3479
 8077SOL    HW128916   0.443  11.935   6.262  1.0404  0.8445  0.3689
 8077SOL    HW228917   0.482  11.886   6.400 -1.1646  1.2620  1.1876
 8078SOL     OW28918   7.943  10.229   2.590  0.0013 -0.0565  0.1419
 8078SOL    HW128919   7.885  10.218   2.665 -0.3869  0.5389 -0.0648
 8078SOL    HW228920   7.977  10.318   2.599 -0.0895  0.0366 -0.4136
 8079SOL     OW28921  11.111   4.104   1.534 -0.0152 -0.3213  0.6741
 8079SOL    HW128922  11.079   4.015   1.547 -1.5299  0.0148 -0.4035
 8079SOL    HW228923  11.034   4.160   1.545  0.8121  0.8194  0.9014
 8080SOL     OW28924   7.894  10.047   4.254 -0.3448 -0.5885  0.1540
 8080SOL    HW128925   7.944   9.979   4.300 -0.1763 -1.3166 -1.0760
 8080SOL    HW228926   7.865  10.106   4.324 -0.6519 -2.0192  1.2768
 8081SOL     OW28927   0.354   8.350   4.877 -0.1929  0.3150  0.2081
 8081SOL    HW128928   0.386   8.283   4.938 -3.2508 -0.9005  0.6677
 8081SOL    HW228929   0.421   8.356   4.809  1.9581 -0.3882  2.1688
 8082SOL     OW28930   9.567  10.922   7.281 -0.5085  0.0565  0.1300
 8082SOL    HW128931   9.644  10.933   7.224 -1.1945 -0.5614 -0.9661
 8082SOL    HW228932   9.538  11.011   7.300  1.0874  0.3371  1.4564
 8083SOL     OW28933   9.741   0.956   9.083  0.1734  0.4453 -0.3963
 8083SOL    HW128934   9.778   0.884   9.134 -1.1948  0.1699  0.2403
 8083SOL    HW228935   9.773   1.035   9.127 -0.9237  0.2122  0.8640
 8084SOL     OW28936  11.943   9.624   1.667  0.1183  0.8535  0.3660
 8084SOL    HW128937  11.854   9.628   1.633 -0.0065  0.8944  0.6923
 8084SOL    HW228938  11.997   9.659   1.596 -0.3365  2.7950  0.9130
 8085SOL     OW28939  11.863   7.484  10.288  0.2456  0.0220 -0.0488
 8085SOL    HW128940  11.914   7.465  10.209  0.6349 -1.0731  0.4374
 8085SOL    HW228941  11.812   7.404  10.303 -1.3308  0.9449 -0.2945
 8086SOL     OW28942   4.706   6.529   2.949  0.8768 -0.1499 -0.3190
 8086SOL    HW128943   4.724   6.521   3.043  2.4802 -3.0024 -0.7326
 8086SOL    HW228944   4.781   6.577   2.914 -1.0682  3.5409  0.0696
 8087SOL     OW28945   3.865  11.738  11.252  0.0417  0.2184 -0.3732
 8087SOL    HW128946   3.914  11.693  11.321  0.4205  0.5407 -0.4253
 8087SOL    HW228947   3.797  11.676  11.227  0.6466 -0.3966 -0.5508
 8088SOL     OW28948  11.471   7.924   3.033 -0.5359 -0.1312 -0.3139
 8088SOL    HW128949  11.441   7.961   3.116  0.1379 -2.5208  1.1095
 8088SOL    HW228950  11.564   7.906   3.048 -0.4544 -0.7961 -1.5084
 8089SOL     OW28951   8.955   1.586   0.527  0.2448  0.5301 -0.5020
 8089SOL    HW128952   8.923   1.650   0.590  2.7111  0.9757  0.4072
 8089SOL    HW228953   8.877   1.560   0.478 -1.4522  1.4938  1.5207
 8090SOL     OW28954   8.649  10.199   1.198 -0.3431  0.4990 -0.1305
 8090SOL    HW128955   8.679  10.161   1.115  0.8356  0.6181  0.2308
 8090SOL    HW228956   8.555  10.180   1.200 -0.1989 -0.3946 -1.0179
 8091SOL     OW28957   2.870   3.184   4.120 -0.0727  0.5672  0.4602
 8091SOL    HW128958   2.876   3.274   4.088 -1.3985  0.7930  0.7918
 8091SOL    HW228959   2.812   3.140   4.058 -0.6526  0.3481  1.1444
 8092SOL     OW28960   0.437   3.422   4.680  1.0653  0.1428  0.4994
 8092SOL    HW128961   0.513   3.445   4.627  3.4497  0.5987  3.7838
 8092SOL    HW228962   0.451   3.331   4.704  0.2909  0.0769  0.7256
 8093SOL     OW28963   7.758   3.951   2.717  0.1518  0.3159 -0.4232
 8093SOL    HW128964   7.828   4.013   2.737  1.3292 -1.6973  2.6079
 8093SOL    HW228965   7.794   3.896   2.647  0.2319  1.2901 -1.1633
 8094SOL     OW28966   1.973   2.721   5.363  0.0373 -0.4435 -0.1633
 8094SOL    HW128967   2.068   2.736   5.365  0.0942 -0.8078  0.7184
 8094SOL    HW228968   1.958   2.661   5.437 -0.7524 -1.1183 -0.8593
 8095SOL     OW28969   2.291   9.051   1.781  0.2082 -0.3835  1.0480
 8095SOL    HW128970   2.278   9.001   1.862  0.1290 -0.2541  1.1141
 8095SOL    HW228971   2.237   9.129   1.791 -1.3260 -1.2802  0.0640
 8096SOL     OW28972   7.277  10.738   9.989  0.3647  0.4869  0.6191
 8096SOL    HW128973   7.246  10.666   9.934  0.2169  0.0413  1.2644
 8096SOL    HW228974   7.300  10.696  10.072 -2.9744  1.5582  2.2637
 8097SOL     OW28975   4.418  10.665   5.353 -0.5776 -0.2465  0.4732
 8097SOL    HW128976   4.433  10.589   5.297  0.3051  0.0220  0.3219
 8097SOL    HW228977   4.425  10.632   5.442  0.2921 -0.2745  0.4104
 8098SOL     OW28978   0.220   6.642   2.248 -0.2597 -0.2799  0.4421
 8098SOL    HW128979   0.303   6.597   2.263 -0.7298 -0.8848  1.3403
 8098SOL    HW228980   0.229   6.725   2.293  0.1989  0.0643 -0.2688
 8099SOL     OW28981  10.377   8.828   0.655 -0.0413  0.2549 -0.1816
 8099SOL    HW128982  10.409   8.796   0.570 -0.9528  0.4292 -0.6120
 8099SOL    HW228983  10.315   8.898   0.631 -1.8965 -1.0816  0.5276
 8100SOL     OW28984   2.500   4.589   6.971 -0.4703  0.7285 -0.1998
 8100SOL    HW128985   2.474   4.513   7.023 -0.1872  1.3480  0.8645
 8100SOL    HW228986   2.464   4.571   6.883  0.4949 -1.1070 -0.2624
 8101SOL     OW28987   1.509   8.181   4.515  0.0557 -0.2866 -1.1364
 8101SOL    HW128988   1.455   8.125   4.571  1.5177 -0.2681  0.4010
 8101SOL    HW228989   1.516   8.134   4.432 -1.4719 -0.7542 -1.0204
 8102SOL     OW28990   3.394   8.342   8.304 -0.7025  0.3404 -0.6357
 8102SOL    HW128991   3.454   8.282   8.349 -2.3305 -0.9040 -0.0627
 8102SOL    HW228992   3.418   8.429   8.338  1.0160 -0.0557 -0.7224
 8103SOL     OW28993   5.831   1.252   5.998 -0.3443  0.4737 -0.1057
 8103SOL    HW128994   5.905   1.192   6.004 -1.7088 -1.2925 -0.0236
 8103SOL    HW228995   5.837   1.307   6.076  3.4687  3.6944 -2.3012
 8104SOL     OW28996   8.840   5.202   7.398  0.4694  0.0266  0.3810
 8104SOL    HW128997   8.813   5.291   7.419 -1.6370  0.3672 -3.0244
 8104SOL    HW228998   8.913   5.213   7.337 -0.4322 -0.5080 -0.8234
 8105SOL     OW28999   8.781  11.261   6.510 -0.2996  0.6691  0.1106
 8105SOL    HW129000   8.861  11.310   6.490  0.0064 -0.2290 -0.9215
 8105SOL    HW229001   8.812  11.179   6.548 -0.5435 -0.7899 -2.5637
 8106SOL     OW29002  10.717  11.635   1.221 -0.2165  0.3362  0.4011
 8106SOL    HW129003  10.760  11.597   1.298  1.4807  1.3171  0.0014
 8106SOL    HW229004  10.720  11.565   1.155 -3.0789 -1.0720  1.5874
 8107SOL     OW29005  10.281   7.923   2.862  0.2164 -0.7386 -0.6747
 8107SOL    HW129006  10.357   7.865   2.873 -0.2881 -1.4849 -1.0611
 8107SOL    HW229007  10.265   7.924   2.768  0.9785  1.0426 -0.8353
 8108SOL     OW29008   8.264   6.383   1.916  0.7173 -0.5259  0.1288
 8108SOL    HW129009   8.249   6.361   2.008 -0.2225  0.4538  0.2259
 8108SOL    HW229010   8.244   6.302   1.868  0.9610 -0.9646  0.7619
 8109SOL     OW29011  10.124   4.177   2.683  0.1290  0.2889 -0.0836
 8109SOL    HW129012  10.069   4.143   2.753  0.3631  1.0018  0.4611
 8109SOL    HW229013  10.109   4.271   2.684  1.2770  0.4946  0.0266
 8110SOL     OW29014   6.305   8.103   0.875  0.7502 -0.2193 -0.1517
 8110SOL    HW129015   6.286   8.010   0.860  1.3494 -0.4428  0.4455
 8110SOL    HW229016   6.400   8.110   0.863  0.5758  0.5432 -1.3328
 8111SOL     OW29017   7.706   9.368   8.553  0.0430  0.3437  0.2980
 8111SOL    HW129018   7.711   9.273   8.568 -0.1605  0.5956  2.2052
 8111SOL    HW229019   7.776   9.385   8.489  0.2120 -1.0558  0.0648
 8112SOL     OW29020  11.215   1.667   4.084  0.0539  0.3016 -0.2825
 8112SOL    HW129021  11.266   1.681   4.163  1.5406 -1.4834 -0.8505
 8112SOL    HW229022  11.171   1.583   4.099  0.7951 -0.3334 -1.5421
 8113SOL     OW29023  11.389   0.087   4.173 -0.5204  0.1131 -0.3033
 8113SOL    HW129024  11.373   0.001   4.211  1.5923  0.4625  1.6125
 8113SOL    HW229025  11.470   0.077   4.123 -1.1720  0.6197 -1.5085
 8114SOL     OW29026   8.383   7.574   3.201  0.2453 -0.6328 -0.3678
 8114SOL    HW129027   8.313   7.539   3.146 -0.8701 -0.8055  1.1010
 8114SOL    HW229028   8.358   7.665   3.216  0.4596 -0.6288 -0.0389
 8115SOL     OW29029   0.510   8.405   7.648  0.0485 -0.2503 -0.0328
 8115SOL    HW129030   0.596   8.367   7.631  0.2488  0.0864  0.2025
 8115SOL    HW229031   0.479   8.435   7.562  0.1517 -0.4073 -0.1237
 8116SOL     OW29032   2.260  10.736  11.278  0.0564  0.3587 -0.2215
 8116SOL    HW129033   2.200  10.771  11.213  0.6650  1.4475 -0.2245
 8116SOL    HW229034   2.237  10.643  11.285  0.9907 -0.2006 -3.1312
 8117SOL     OW29035   3.480   6.596   7.344  0.0319  0.0583 -0.4864
 8117SOL    HW129036   3.409   6.543   7.308  0.9045 -2.2379  0.9426
 8117SOL    HW229037   3.550   6.589   7.278 -0.0358 -0.1392 -0.5386
 8118SOL     OW29038   2.592   9.777  10.834 -0.3711  0.1704 -0.1339
 8118SOL    HW129039   2.551   9.703  10.789 -0.6845  1.0373 -1.3160
 8118SOL    HW229040   2.682   9.779  10.801 -0.7914  1.2192 -1.2956
 8119SOL     OW29041   4.700   7.542   5.491 -0.4720 -0.3867 -0.2499
 8119SOL    HW129042   4.793   7.544   5.469 -0.4439  0.7110 -0.0966
 8119SOL    HW229043   4.670   7.456   5.462  0.2664 -0.1912 -1.6556
 8120SOL     OW29044  11.966   2.900   9.086 -0.7018 -0.3261 -0.4617
 8120SOL    HW129045  11.948   2.819   9.134  0.6163 -0.8876 -0.8867
 8120SOL    HW229046  12.036   2.943   9.136 -2.1593  1.1670  0.4137
 8121SOL     OW29047   8.707   0.814   7.518 -0.3623  0.4827  0.0328
 8121SOL    HW129048   8.621   0.849   7.493  0.9838  2.4558 -2.1947
 8121SOL    HW229049   8.727   0.749   7.450  0.4471  0.9773 -0.2130
 8122SOL     OW29050   7.262   7.564   5.595  0.1474 -0.3650 -0.2019
 8122SOL    HW129051   7.295   7.633   5.653 -0.3257  0.3360 -0.7473
 8122SOL    HW229052   7.308   7.578   5.512 -1.2191  0.3940 -0.8559
 8123SOL     OW29053   9.607   8.605   2.030  0.1141  0.3411  0.3695
 8123SOL    HW129054   9.585   8.694   2.058  0.5264 -0.1481  2.3946
 8123SOL    HW229055   9.529   8.554   2.052 -0.2375  0.2132 -1.0615
 8124SOL     OW29056   4.213   2.812   1.196 -0.5368 -0.3311  0.3173
 8124SOL    HW129057   4.130   2.827   1.151 -0.5049 -0.1590  0.3131
 8124SOL    HW229058   4.204   2.725   1.235 -0.0516 -1.0726 -1.1479
 8125SOL     OW29059   8.143   3.742   2.595  0.0609  0.2395  0.0681
 8125SOL    HW129060   8.055   3.765   2.564 -0.1384  0.9425  1.1138
 8125SOL    HW229061   8.132   3.654   2.632 -0.5707  0.8987  1.5404
 8126SOL     OW29062   6.597   8.928  10.813 -0.1756 -0.1031  0.2379
 8126SOL    HW129063   6.628   8.928  10.723 -0.0029 -1.3685  0.2882
 8126SOL    HW229064   6.564   9.017  10.827 -1.7927 -0.3514 -1.6127
 8127SOL     OW29065   1.224   0.527   7.858 -0.6063  0.0722  0.3243
 8127SOL    HW129066   1.198   0.616   7.838 -2.3374 -0.6414 -0.8347
 8127SOL    HW229067   1.246   0.489   7.773 -0.7566 -0.8689  0.6939
 8128SOL     OW29068   8.835  11.845   4.773  0.2225  0.1432 -0.1712
 8128SOL    HW129069   8.847  11.940   4.767  0.1416  0.3612  2.2354
 8128SOL    HW229070   8.903  11.809   4.717  2.2815  1.6142  1.2188
 8129SOL     OW29071   7.599   2.504   1.366  0.2798 -0.1796  0.0512
 8129SOL    HW129072   7.545   2.571   1.406 -1.3803 -0.0490 -2.1907
 8129SOL    HW229073   7.634   2.546   1.287  1.1816 -1.2155 -0.1212
 8130SOL     OW29074   9.765  10.600   3.455 -0.2491  0.3343  0.0291
 8130SOL    HW129075   9.771  10.526   3.394  1.1622  0.7460 -0.3684
 8130SOL    HW229076   9.672  10.606   3.475 -0.3225 -2.2326  0.9283
 8131SOL     OW29077   0.248   1.407   4.037 -0.2656  0.5235  0.0094
 8131SOL    HW129078   0.240   1.484   4.092 -2.2121  1.2496 -1.1915
 8131SOL    HW229079   0.274   1.441   3.951  2.3230 -0.5444  0.2831
 8132SOL     OW29080   6.135   3.317  10.944  0.6695 -0.6095  0.5380
 8132SOL    HW129081   6.172   3.231  10.923 -0.1707 -0.9193  0.2709
 8132SOL    HW229082   6.042   3.300  10.956  0.4592  0.3103  0.2544
 8133SOL     OW29083   4.392   9.653   9.173 -0.3591  0.0769  0.1381
 8133SOL    HW129084   4.458   9.627   9.238  0.2271  2.2258  0.4933
 8133SOL    HW229085   4.323   9.694   9.225 -0.5369  0.5661 -0.4694
 8134SOL     OW29086   1.931   0.254   7.925 -0.0378  0.7230  0.0208
 8134SOL    HW129087   1.894   0.318   7.985 -0.5825  0.0001  0.4779
 8134SOL    HW229088   2.022   0.282   7.913  1.0824 -0.7789  3.6478
 8135SOL     OW29089   3.392   6.184   5.455  0.7311  0.3789  0.5689
 8135SOL    HW129090   3.449   6.261   5.445  0.9011  0.2218  0.3045
 8135SOL    HW229091   3.448   6.118   5.495  0.3912  0.6093  1.4351
 8136SOL     OW29092  11.442   0.996   0.935 -0.1979 -0.1774  0.2744
 8136SOL    HW129093  11.433   0.957   0.849  1.6522  3.5600 -1.8488
 8136SOL    HW229094  11.364   1.050   0.946 -0.8548 -1.2981  1.4177
 8137SOL     OW29095  11.095   9.835   9.209 -0.2755 -0.1583  0.8639
 8137SOL    HW129096  11.081   9.817   9.302 -2.2125 -0.1233  0.6100
 8137SOL    HW229097  11.008   9.854   9.174  0.4988  0.4863 -0.8342
 8138SOL     OW29098   6.660  11.790   4.418 -0.3659  0.7412  0.4257
 8138SOL    HW129099   6.746  11.828   4.437  0.2921  0.7575 -2.1783
 8138SOL    HW229100   6.679  11.713   4.364 -1.8906 -1.0061  2.2246
 8139SOL     OW29101   1.489  10.237  10.262 -0.1158  0.2397 -0.0182
 8139SOL    HW129102   1.455  10.148  10.256  1.3716 -0.5200  1.5946
 8139SOL    HW229103   1.453  10.271  10.345  0.7677  0.4335  0.3026
 8140SOL     OW29104   5.141   2.579   8.793 -0.2892  0.1777  0.2849
 8140SOL    HW129105   5.110   2.519   8.726  1.7216 -0.5193 -0.0767
 8140SOL    HW229106   5.063   2.629   8.819 -1.4750 -0.8391 -1.1964
 8141SOL     OW29107   2.572   9.944   7.047 -0.9991 -0.1768  0.7121
 8141SOL    HW129108   2.642  10.006   7.024 -0.2111 -1.3866 -0.2654
 8141SOL    HW229109   2.497  10.000   7.069  0.1836  1.1486  1.5405
 8142SOL     OW29110  11.879   9.933   5.721  0.2568  0.3963  0.2596
 8142SOL    HW129111  11.813   9.930   5.651 -1.8419 -0.1755  2.1611
 8142SOL    HW229112  11.939  10.003   5.694 -0.5312  0.2980 -2.0053
 8143SOL     OW29113   6.160  10.498   8.678  0.9290 -0.5430 -0.1897
 8143SOL    HW129114   6.222  10.543   8.735  0.7178 -1.8521  1.1547
 8143SOL    HW229115   6.171  10.538   8.592  2.9626 -0.1306  0.2319
 8144SOL     OW29116   3.660   6.863   1.768 -0.7412 -0.0892  0.2376
 8144SOL    HW129117   3.576   6.880   1.726 -0.6072 -0.2599 -0.1045
 8144SOL    HW229118   3.646   6.884   1.860 -0.7804  1.1564 -0.0413
 8145SOL     OW29119   0.389   1.405  11.632  0.6180 -0.3161  0.1251
 8145SOL    HW129120   0.431   1.416  11.547  0.8586  0.7713  0.3700
 8145SOL    HW229121   0.403   1.488  11.677 -0.9286 -0.2734  0.6049
 8146SOL     OW29122  10.649   8.343   8.811 -0.4245  0.0438  0.1223
 8146SOL    HW129123  10.576   8.401   8.831 -2.2414 -0.6298 -3.6276
 8146SOL    HW229124  10.610   8.256   8.805  1.3612 -0.8854  1.1608
 8147SOL     OW29125   5.111   0.095   3.956 -0.2055  0.2126 -0.0934
 8147SOL    HW129126   5.083   0.186   3.941  0.2148  0.2336 -0.7728
 8147SOL    HW229127   5.115   0.087   4.051 -1.4785  0.5247 -0.0031
 8148SOL     OW29128   7.088  11.873   0.888  0.9635  0.2416 -0.0325
 8148SOL    HW129129   7.011  11.917   0.924  1.1906  0.9305 -0.3606
 8148SOL    HW229130   7.159  11.937   0.900  1.3584 -0.1434 -0.2866
 8149SOL     OW29131   0.214   0.615   0.700 -0.2135  0.1588  0.5511
 8149SOL    HW129132   0.187   0.524   0.686 -1.0420  0.5638 -0.5822
 8149SOL    HW229133   0.160   0.645   0.774 -0.2581 -0.1323  0.6375
 8150SOL     OW29134   3.896   6.360   2.845  0.1802  0.5555 -0.4879
 8150SOL    HW129135   3.854   6.373   2.760  1.1039 -2.3218 -1.5011
 8150SOL    HW229136   3.985   6.331   2.823  0.9408  1.2146  1.5108
 8151SOL     OW29137   0.860   8.221   3.582 -0.2446  0.5937 -0.4643
 8151SOL    HW129138   0.809   8.144   3.608 -0.2827  0.8850  0.3347
 8151SOL    HW229139   0.799   8.295   3.591 -0.2784  0.7061 -1.4469
 8152SOL     OW29140   3.534   7.692   1.981  0.0602 -0.5678  0.5275
 8152SOL    HW129141   3.588   7.760   2.020  1.1459  0.5075 -2.5493
 8152SOL    HW229142   3.581   7.611   1.999  1.3049  0.0528  0.1994
 8153SOL     OW29143   3.675   3.136   4.805  0.2200 -0.6065 -0.3886
 8153SOL    HW129144   3.583   3.151   4.787  0.5754  1.0557 -1.0107
 8153SOL    HW229145   3.719   3.144   4.720  1.2422  1.6084  0.2651
 8154SOL     OW29146   4.248   5.714   8.064 -0.2798 -0.7925  0.0696
 8154SOL    HW129147   4.212   5.796   8.099 -0.7333 -0.7696 -0.4446
 8154SOL    HW229148   4.266   5.661   8.142 -2.2606 -1.1469  0.3279
 8155SOL     OW29149   4.583  11.054   9.644 -0.0379 -0.5506 -0.3453
 8155SOL    HW129150   4.503  11.085   9.602  0.2765 -0.3854 -0.8217
 8155SOL    HW229151   4.653  11.102   9.602  0.3525 -0.9974 -0.2180
 8156SOL     OW29152   1.227   5.907   1.561  0.4367  0.1015 -0.9741
 8156SOL    HW129153   1.199   5.992   1.527 -0.1648  0.6536  0.7901
 8156SOL    HW229154   1.149   5.851   1.552  0.1887  0.3261 -0.3019
 8157SOL     OW29155   0.251   2.961   9.562 -0.5201 -0.1955  0.0852
 8157SOL    HW129156   0.209   3.047   9.565 -1.0639 -0.3431 -2.0697
 8157SOL    HW229157   0.304   2.958   9.642 -1.3708  1.6628  0.7818
 8158SOL     OW29158   8.035  11.134   3.385 -0.4739  0.0634 -0.2862
 8158SOL    HW129159   8.048  11.136   3.290  1.9012  0.5451 -0.0267
 8158SOL    HW229160   7.940  11.139   3.397 -0.7693  1.0857 -2.5984
 8159SOL     OW29161  10.970   3.747   3.794  0.3544  1.2005 -0.2754
 8159SOL    HW129162  10.960   3.793   3.878 -0.7256  0.9440 -0.2536
 8159SOL    HW229163  10.924   3.664   3.807 -0.2046  1.3435 -1.2662
 8160SOL     OW29164   0.202   1.866   9.132  0.2105 -0.5267  0.1988
 8160SOL    HW129165   0.162   1.907   9.209  0.1802 -0.2534  0.0400
 8160SOL    HW229166   0.128   1.846   9.074  0.1314 -1.6358  0.6586
 8161SOL     OW29167   0.994   2.462   1.700 -0.0483 -0.1880 -0.1561
 8161SOL    HW129168   1.048   2.541   1.710 -1.0928  0.3710  1.5100
 8161SOL    HW229169   1.018   2.428   1.614  2.9827 -0.0036  0.4951
 8162SOL     OW29170   2.144  11.623   3.960  0.6398 -0.4155  0.0151
 8162SOL    HW129171   2.187  11.538   3.952  2.7014  0.5707 -0.0041
 8162SOL    HW229172   2.185  11.664   4.036 -2.9581 -0.8205  2.4303
 8163SOL     OW29173   8.310   7.987  11.043  0.0464  0.1172  0.2769
 8163SOL    HW129174   8.356   7.969  10.961 -1.0750  1.1444 -0.5985
 8163SOL    HW229175   8.352   7.928  11.106 -0.5682 -2.3674 -1.4818
 8164SOL     OW29176   9.488   3.940   0.160  0.0676  0.0477  0.6033
 8164SOL    HW129177   9.539   3.896   0.091 -0.5608 -0.3793  0.4040
 8164SOL    HW229178   9.550   4.002   0.199  0.5297  0.0574 -0.1215
 8165SOL     OW29179  10.866   4.037  11.283  0.0859  0.7306 -0.3123
 8165SOL    HW129180  10.779   4.013  11.254 -0.1557 -0.0086  0.9452
 8165SOL    HW229181  10.856   4.126  11.318 -0.2450  0.5057  0.1644
 8166SOL     OW29182   3.199   7.102   4.111 -0.2464 -0.3804 -0.4769
 8166SOL    HW129183   3.228   7.017   4.078  0.6839 -0.2061 -0.1301
 8166SOL    HW229184   3.217   7.163   4.040 -1.6866 -0.5929 -1.0466
 8167SOL     OW29185   9.358   1.313   8.006 -0.1538  0.0605 -0.2853
 8167SOL    HW129186   9.301   1.286   8.078 -0.0023  0.0590 -0.1644
 8167SOL    HW229187   9.302   1.367   7.950 -0.5861 -0.8760 -0.7813
 8168SOL     OW29188   9.494  11.713   3.000 -0.0352  0.0391  0.4116
 8168SOL    HW129189   9.401  11.693   3.011  0.2326 -1.9737 -0.4464
 8168SOL    HW229190   9.510  11.787   3.058 -2.6376  1.9029 -1.0580
 8169SOL     OW29191   7.710   3.597   3.089  0.0588  0.0144 -0.5176
 8169SOL    HW129192   7.753   3.680   3.067  1.2459 -0.1518  0.9795
 8169SOL    HW229193   7.670   3.613   3.174  0.8663 -1.1303  0.0948
 8170SOL     OW29194   3.523   2.017   6.099 -0.0857 -0.0522  0.4008
 8170SOL    HW129195   3.453   1.992   6.160 -0.2907 -0.6730 -0.0812
 8170SOL    HW229196   3.505   2.109   6.079 -1.9581 -0.7146 -1.2629
 8171SOL     OW29197   2.897   7.551   5.787 -0.3576  0.4808  0.0802
 8171SOL    HW129198   2.897   7.456   5.787 -1.2192  0.4576 -0.8951
 8171SOL    HW229199   2.813   7.575   5.826 -0.2360  0.8342  0.1306
 8172SOL     OW29200   9.486   3.649   5.930  0.0570  0.3312  0.6444
 8172SOL    HW129201   9.548   3.669   6.000  2.9350 -2.0942 -0.9674
 8172SOL    HW229202   9.461   3.558   5.945 -0.8585  0.3857 -0.3968
 8173SOL     OW29203   1.855   1.882   1.274  0.2958  0.5825 -0.0790
 8173SOL    HW129204   1.864   1.934   1.195  0.0177 -1.2196 -1.3637
 8173SOL    HW229205   1.761   1.865   1.280  0.4657 -0.4651 -0.1883
 8174SOL     OW29206   1.348   7.214  10.330  0.1127 -0.3413 -0.1519
 8174SOL    HW129207   1.298   7.223  10.248 -1.2682  1.9495  0.8478
 8174SOL    HW229208   1.406   7.290  10.331 -0.7536  0.3300  1.5465
 8175SOL     OW29209   8.165   0.555   5.984 -0.2122 -0.3448  0.0050
 8175SOL    HW129210   8.180   0.641   5.944  2.5172 -0.4532  0.6034
 8175SOL    HW229211   8.141   0.574   6.075  0.5674 -0.2147  0.1848
 8176SOL     OW29212   9.147   6.879   5.315  0.0601 -0.2940  0.4648
 8176SOL    HW129213   9.129   6.857   5.406 -0.2665  1.5109  0.8583
 8176SOL    HW229214   9.080   6.943   5.291  1.1393  0.4966 -0.5370
 8177SOL     OW29215   0.088  11.672   3.288  0.1305 -0.1043  0.4141
 8177SOL    HW129216   0.030  11.742   3.258  0.7898  0.4845  0.4975
 8177SOL    HW229217   0.141  11.650   3.212 -0.6382 -1.1085  0.1449
 8178SOL     OW29218   3.669   6.513   7.181 -0.4923  0.3314  0.0228
 8178SOL    HW129219   3.690   6.562   7.101 -0.8117 -0.3765 -0.5123
 8178SOL    HW229220   3.665   6.421   7.152  1.1902 -0.1544  1.2097
 8179SOL     OW29221   8.899   4.254   1.060  0.6031 -0.2164  0.2066
 8179SOL    HW129222   8.852   4.338   1.055  1.4149  0.2254 -0.2408
 8179SOL    HW229223   8.889   4.216   0.972  0.8472 -0.2538  0.1963
 8180SOL     OW29224  10.061   8.572   5.278  0.2490 -0.4425  0.2825
 8180SOL    HW129225  10.116   8.648   5.259 -1.6886  1.5658  2.0612
 8180SOL    HW229226  10.109   8.522   5.343  0.2711  0.9931  1.4242
 8181SOL     OW29227   5.929   3.607   2.190 -0.6279 -0.2226  0.1749
 8181SOL    HW129228   5.993   3.549   2.150  0.2649  1.3728 -0.7600
 8181SOL    HW229229   5.965   3.627   2.277 -1.9556 -2.6535  1.4188
 8182SOL     OW29230   3.338   4.928   4.656 -0.1013  0.0379  0.1315
 8182SOL    HW129231   3.424   4.966   4.674  0.6745 -1.9352  0.7721
 8182SOL    HW229232   3.339   4.910   4.562 -0.0797  0.5692  0.0219
 8183SOL     OW29233   2.795   4.144  11.315 -0.4273  0.1257 -0.2600
 8183SOL    HW129234   2.781   4.135  11.221 -2.6487  0.0328  0.0086
 8183SOL    HW229235   2.773   4.235  11.334  0.6296  0.3169  0.0910
 8184SOL     OW29236   0.963   2.667   9.108 -0.2201  0.1368 -0.5337
 8184SOL    HW129237   0.988   2.744   9.057  1.7174 -0.3619 -0.4311
 8184SOL    HW229238   1.034   2.656   9.171 -2.6668  0.9151  2.6195
 8185SOL     OW29239   8.429   6.424   2.791  0.0775 -0.9883  0.0443
 8185SOL    HW129240   8.447   6.512   2.825 -2.1655  0.2519 -1.7077
 8185SOL    HW229241   8.363   6.389   2.851 -0.7419 -0.4855 -0.5248
 8186SOL     OW29242   3.042   3.828   5.550 -0.5560  0.4268 -0.4202
 8186SOL    HW129243   3.016   3.736   5.548  1.9462 -0.3466 -0.8292
 8186SOL    HW229244   2.989   3.866   5.621 -1.4676 -1.3712 -0.0748
 8187SOL     OW29245   6.910   1.943  10.270 -0.0668  0.2561 -0.2303
 8187SOL    HW129246   6.833   1.901  10.308  1.0134 -1.6775 -0.0115
 8187SOL    HW229247   6.879   1.983  10.189 -1.4101  0.0772  0.1759
 8188SOL     OW29248   2.098   8.529   3.304  0.1464 -1.0411 -0.1143
 8188SOL    HW129249   2.153   8.453   3.324 -0.2229 -1.5828 -1.0728
 8188SOL    HW229250   2.084   8.571   3.389 -0.8913 -2.9163  0.7355
 8189SOL     OW29251   8.030   3.715   8.078  0.2083  0.7578  0.0822
 8189SOL    HW129252   8.120   3.691   8.055  0.0771 -0.4897  0.7616
 8189SOL    HW229253   7.997   3.762   8.002  0.2277 -1.9705 -1.7319
 8190SOL     OW29254   6.496   5.922   3.470  0.4574  0.5233  0.2138
 8190SOL    HW129255   6.487   5.873   3.388 -1.1604  1.0380  0.0473
 8190SOL    HW229256   6.567   5.984   3.454 -1.5298  2.4459 -1.8061
 8191SOL     OW29257  10.167   6.541   5.156  0.0080 -0.0854 -0.3048
 8191SOL    HW129258  10.152   6.630   5.187  1.8281  0.4167 -0.7198
 8191SOL    HW229259  10.085   6.514   5.116 -0.9047  0.9973  0.7729
 8192SOL     OW29260   2.218   3.242  11.602  0.0722  0.3155  0.1186
 8192SOL    HW129261   2.278   3.209  11.536 -0.8288  0.1529 -0.6333
 8192SOL    HW229262   2.154   3.294  11.553 -0.2268  0.7400  0.9380
 8193SOL     OW29263   4.337   9.284   7.461  0.2174  0.2678  0.0303
 8193SOL    HW129264   4.320   9.377   7.473 -3.6074 -0.2930  0.2338
 8193SOL    HW229265   4.307   9.265   7.372 -2.5183 -1.2871  1.1655
 8194SOL     OW29266   2.305   1.584   7.089 -0.3845  0.6618 -0.0394
 8194SOL    HW129267   2.257   1.664   7.066  0.7461  1.8352  1.4562
 8194SOL    HW229268   2.397   1.606   7.075 -0.0813 -0.5884 -0.1657
 8195SOL     OW29269   0.678   1.433   3.354 -0.3979  0.2678 -0.1460
 8195SOL    HW129270   0.678   1.498   3.284  0.5678  0.9945  0.4947
 8195SOL    HW229271   0.599   1.451   3.404  0.2358  1.4947  0.4776
 8196SOL     OW29272   9.171   6.299  10.064 -0.1019 -0.1140  0.4671
 8196SOL    HW129273   9.195   6.340  10.147 -0.4716 -0.5111  0.7769
 8196SOL    HW229274   9.076   6.307  10.059 -0.3676 -2.1152  1.2047
 8197SOL     OW29275  10.052   9.287   2.032  0.5865 -0.1247 -0.3123
 8197SOL    HW129276  10.014   9.294   2.120  0.6135  0.9395 -0.3706
 8197SOL    HW229277   9.977   9.266   1.976  0.3192  0.5872 -0.2311
 8198SOL     OW29278   6.475   8.113   4.542  0.2047 -0.1823  0.6849
 8198SOL    HW129279   6.399   8.168   4.560  1.1628  1.2458  0.5963
 8198SOL    HW229280   6.514   8.096   4.627  1.1152  1.1477  0.5733
 8199SOL     OW29281   6.898   0.211  11.343  0.1591  0.0714  0.2059
 8199SOL    HW129282   6.866   0.296  11.373 -1.6227 -1.1320  1.9339
 8199SOL    HW229283   6.989   0.207  11.372 -0.0677  0.9613  1.0749
 8200SOL     OW29284   8.558   7.958   1.749  0.0601  0.0679  0.1825
 8200SOL    HW129285   8.571   8.051   1.768 -0.1653  0.5874 -1.9196
 8200SOL    HW229286   8.643   7.918   1.770 -0.2134  0.4694  2.3015
 8201SOL     OW29287  11.021  10.447   4.139  0.3549  0.3382 -0.1303
 8201SOL    HW129288  10.935  10.452   4.096 -0.3669  1.2804  1.3540
 8201SOL    HW229289  11.004  10.406   4.223  1.9855 -2.8665 -1.1852
 8202SOL     OW29290   6.552   9.112   6.491  0.9881 -0.0371 -0.2110
 8202SOL    HW129291   6.646   9.116   6.470  0.6669 -1.1010 -2.1739
 8202SOL    HW229292   6.530   9.200   6.521  2.5145  0.3848 -0.2461
 8203SOL     OW29293   8.788   1.770   4.442  0.6533  0.4151 -0.1922
 8203SOL    HW129294   8.696   1.775   4.416  0.4038  0.7206  0.7215
 8203SOL    HW229295   8.801   1.678   4.464  0.1313  0.6274  1.1450
 8204SOL     OW29296   9.497   8.588   7.676  0.4436 -0.0889 -0.2203
 8204SOL    HW129297   9.516   8.657   7.739 -1.0325  1.6253 -1.5655
 8204SOL    HW229298   9.475   8.634   7.595 -0.7055 -2.1277 -1.1557
 8205SOL     OW29299   5.881   4.924   9.492  0.6285  0.1845 -0.5554
 8205SOL    HW129300   5.798   4.972   9.486  0.5500 -0.0026 -0.9507
 8205SOL    HW229301   5.912   4.918   9.402  3.1506  3.8902 -0.1978
 8206SOL     OW29302   0.514   9.678   5.789  0.5937  0.2296 -0.3959
 8206SOL    HW129303   0.529   9.754   5.847 -2.4536  1.8971 -1.5732
 8206SOL    HW229304   0.577   9.690   5.718  1.1235  0.8657  0.1666
 8207SOL     OW29305   7.182   4.816   9.887 -0.0987 -0.3997  0.2434
 8207SOL    HW129306   7.272   4.843   9.865 -0.3734 -0.4206 -0.9859
 8207SOL    HW229307   7.161   4.866   9.966  1.1526 -0.7512  0.8284
 8208SOL     OW29308  10.038   7.735   4.117 -0.0860 -0.4650 -0.5010
 8208SOL    HW129309  10.031   7.711   4.025  0.0958 -0.8570 -0.4166
 8208SOL    HW229310  10.131   7.722   4.138  0.2184  1.1780 -0.6794
 8209SOL     OW29311   0.629   4.333  11.177 -0.1217  0.6833 -0.2787
 8209SOL    HW129312   0.587   4.406  11.131 -0.2438 -0.0445 -1.3590
 8209SOL    HW229313   0.682   4.289  11.110 -0.8514 -0.8287  0.0843
 8210SOL     OW29314   0.028   6.761   1.961  0.4969 -0.5175 -0.5604
 8210SOL    HW129315   0.115   6.742   1.928 -0.0107 -0.0940 -2.2078
 8210SOL    HW229316   0.042   6.829   2.027  1.3198  0.2615 -1.5089
 8211SOL     OW29317   6.545   1.953   2.389 -0.3416 -0.0335 -0.0603
 8211SOL    HW129318   6.577   1.879   2.442 -1.1436 -0.7931 -0.5989
 8211SOL    HW229319   6.503   2.011   2.453  1.1322  0.4569  0.5035
 8212SOL     OW29320   9.945   3.635  11.459 -0.2194  0.2600  0.1037
 8212SOL    HW129321   9.896   3.716  11.444  0.7565  0.7864 -0.3652
 8212SOL    HW229322   9.903   3.571  11.401  0.5926  1.1036 -1.4974
 8213SOL     OW29323   0.586   3.438   9.259  0.1047 -0.0796  0.3895
 8213SOL    HW129324   0.561   3.345   9.255 -2.3709  0.4986  1.1056
 8213SOL    HW229325   0.560   3.474   9.174  0.9394  0.0203  0.1642
 8214SOL     OW29326   1.001   5.072   9.028  0.5807 -0.3659  0.5222
 8214SOL    HW129327   1.058   5.107   9.097  2.7375 -0.2101 -1.2254
 8214SOL    HW229328   1.035   4.985   9.010  0.0215 -0.4328 -0.2886
 8215SOL     OW29329   8.695   0.065   0.113 -0.0066  0.1834  0.2421
 8215SOL    HW129330   8.774   0.086   0.064 -0.3641  0.9296 -0.0332
 8215SOL    HW229331   8.715   0.091   0.203  0.1814  0.0444  0.2409
 8216SOL     OW29332   2.410   2.537   4.946  0.2086  0.0206  0.3690
 8216SOL    HW129333   2.476   2.486   4.993  0.0164 -1.1132 -0.5329
 8216SOL    HW229334   2.428   2.628   4.970  3.1121 -0.0503 -1.0325
 8217SOL     OW29335   5.049   7.558  10.782  0.3208 -0.5085  0.6851
 8217SOL    HW129336   5.017   7.626  10.840  1.7324  0.6916  0.1205
 8217SOL    HW229337   5.100   7.499  10.838 -0.3452 -0.7264  1.0603
 8218SOL     OW29338  10.758   6.682   6.360  0.2894 -0.9853  0.1355
 8218SOL    HW129339  10.834   6.723   6.318 -0.4470  0.2369 -0.0754
 8218SOL    HW229340  10.794   6.635   6.435  1.4876 -2.1089 -1.0884
 8219SOL     OW29341   7.353   7.530   9.704  0.3052  0.1555 -0.1347
 8219SOL    HW129342   7.262   7.551   9.686  0.1830 -0.2762 -0.0178
 8219SOL    HW229343   7.395   7.528   9.618  0.5413  1.8481 -0.0952
 8220SOL     OW29344   0.541   6.598   4.163 -0.6502  0.0951 -0.0795
 8220SOL    HW129345   0.466   6.594   4.103 -1.7208  0.8835  1.1217
 8220SOL    HW229346   0.605   6.652   4.118 -1.9155  1.6799 -0.0771
 8221SOL     OW29347   2.105   8.723   0.486  0.0265  0.0383 -0.4446
 8221SOL    HW129348   2.053   8.759   0.557 -0.3830 -1.0121 -0.1929
 8221SOL    HW229349   2.156   8.797   0.453 -0.3280  0.6920  0.4519
 8222SOL     OW29350   3.077   7.331  11.737  0.1340  0.0472 -0.2725
 8222SOL    HW129351   3.053   7.377  11.818  0.4573 -0.5188  0.1512
 8222SOL    HW229352   3.168   7.303  11.752 -0.6410 -2.4278  0.2805
 8223SOL     OW29353   2.267   6.450   5.814  0.3415  0.2407 -0.6981
 8223SOL    HW129354   2.185   6.403   5.831 -0.0461  1.2533  0.3205
 8223SOL    HW229355   2.323   6.384   5.772  0.1968 -1.5113  1.6201
 8224SOL     OW29356  10.321   1.143   1.906 -0.7546  0.0808  0.4002
 8224SOL    HW129357  10.291   1.219   1.856 -0.7133  0.2908  0.6928
 8224SOL    HW229358  10.385   1.101   1.848 -1.5628 -0.3472 -0.2048
 8225SOL     OW29359   9.210   0.883   3.696 -0.2379 -0.5455  0.9389
 8225SOL    HW129360   9.242   0.970   3.673 -0.1437 -0.6387  0.7213
 8225SOL    HW229361   9.252   0.824   3.634  1.2620 -0.9950  2.3016
 8226SOL     OW29362   3.823   2.117   2.218 -0.2350  0.1051  0.0219
 8226SOL    HW129363   3.752   2.173   2.249 -1.2940 -1.5237  0.6347
 8226SOL    HW229364   3.821   2.041   2.275  2.3532  0.2094  0.3775
 8227SOL     OW29365   2.515   9.952  11.057 -0.1293 -0.3408 -0.8252
 8227SOL    HW129366   2.561   9.879  11.016  1.4422  0.8740 -1.3098
 8227SOL    HW229367   2.525  10.024  10.995 -1.9083  0.2280 -0.5008
 8228SOL     OW29368   3.557   2.986   4.478 -0.1462 -0.0880 -0.2682
 8228SOL    HW129369   3.490   3.054   4.475 -0.5237 -0.4346  0.1369
 8228SOL    HW229370   3.627   3.024   4.532 -0.1078  0.1870 -0.5070
 8229SOL     OW29371   5.385   1.661   9.816 -0.3621 -0.2539  0.4285
 8229SOL    HW129372   5.404   1.592   9.879  1.9028 -0.7419 -0.6565
 8229SOL    HW229373   5.333   1.725   9.864  1.1977 -0.6322  2.7890
 8230SOL     OW29374   1.269  11.328   5.641 -0.0410 -0.0567 -0.6582
 8230SOL    HW129375   1.204  11.283   5.586 -0.7226 -0.5747  0.5390
 8230SOL    HW229376   1.351  11.281   5.626 -0.3344 -0.5092 -0.8437
 8231SOL     OW29377   6.363   1.583   7.450  0.2539 -0.0621  0.2340
 8231SOL    HW129378   6.394   1.514   7.509 -1.0762 -0.8971 -0.0109
 8231SOL    HW229379   6.441   1.634   7.430  1.1030 -0.9763  1.1111
 8232SOL     OW29380   8.478   1.866   6.628 -0.8276  0.0695  0.2043
 8232SOL    HW129381   8.444   1.848   6.716  0.2186  1.8916  1.0313
 8232SOL    HW229382   8.492   1.961   6.626 -0.7070  0.0621 -1.9015
 8233SOL     OW29383   7.353   1.519  11.064 -0.4975 -0.1267  0.9041
 8233SOL    HW129384   7.300   1.530  10.985 -0.4947 -0.9701  0.7760
 8233SOL    HW229385   7.439   1.556  11.041 -1.2845  2.2415  1.4623
 8234SOL     OW29386   0.098   4.373   5.862  0.4657 -0.2039 -0.7840
 8234SOL    HW129387   0.065   4.323   5.937 -1.1276  0.3095 -1.1154
 8234SOL    HW229388   0.188   4.341   5.850  0.3680 -1.0957  0.6344
 8235SOL     OW29389  10.585   6.850   9.060 -0.5091 -1.0098  0.4938
 8235SOL    HW129390  10.557   6.806   9.140 -0.6710  1.1822  1.7444
 8235SOL    HW229391  10.530   6.812   8.991 -0.6927 -2.6296  1.4875
 8236SOL     OW29392  10.724   5.876   3.714 -0.5681  0.5255  0.4008
 8236SOL    HW129393  10.728   5.925   3.633  1.0388  0.5780  0.4922
 8236SOL    HW229394  10.702   5.787   3.687  0.5734  0.4053 -0.1644
 8237SOL     OW29395   5.155   3.227  11.742  0.3553  0.3675  0.1584
 8237SOL    HW129396   5.115   3.311  11.720 -0.1590  0.1788  0.3518
 8237SOL    HW229397   5.119   3.205  11.828 -0.7131 -0.7734 -0.5424
 8238SOL     OW29398   3.159   1.962  10.490 -0.0692  0.9435  0.5259
 8238SOL    HW129399   3.160   2.054  10.517  0.2885  1.3214 -0.7325
 8238SOL    HW229400   3.251   1.935  10.494  0.0818  1.1936 -0.8871
 8239SOL     OW29401   9.494   3.431   7.691  0.1264 -0.2390  0.1659
 8239SOL    HW129402   9.413   3.380   7.692 -0.6184  0.9131  0.4278
 8239SOL    HW229403   9.486   3.487   7.614 -0.2364  1.2772  1.2581
 8240SOL     OW29404   1.989   0.973   2.471  0.1783  0.2862  0.3370
 8240SOL    HW129405   1.992   1.039   2.401  0.2925 -0.9882 -0.8957
 8240SOL    HW229406   2.065   0.917   2.455  1.4431  1.1651  2.7550
 8241SOL     OW29407   4.577  10.650   4.899 -0.0593  0.1002 -0.2804
 8241SOL    HW129408   4.501  10.609   4.940  0.5218  0.9137  1.7291
 8241SOL    HW229409   4.562  10.744   4.907  0.4521  0.2848 -1.2690
 8242SOL     OW29410  10.999   3.706   5.465  0.1378  0.0402  0.0627
 8242SOL    HW129411  10.947   3.676   5.539 -1.7165  1.2117 -0.7085
 8242SOL    HW229412  11.063   3.766   5.503  1.4261 -1.8455  1.0964
 8243SOL     OW29413  10.137   2.892   3.818 -0.0405 -0.0097  0.3631
 8243SOL    HW129414  10.155   2.963   3.757 -0.9941  2.1132  2.3761
 8243SOL    HW229415  10.057   2.851   3.787  0.2571  0.0945 -0.5545
 8244SOL     OW29416   7.364   5.346   2.430  0.3083 -0.2208 -0.5144
 8244SOL    HW129417   7.424   5.326   2.502  0.7506  0.3658 -0.7079
 8244SOL    HW229418   7.279   5.313   2.459  0.6299 -0.6411 -0.0359
 8245SOL     OW29419   0.442   4.832   2.370  0.4526 -0.2005 -0.0092
 8245SOL    HW129420   0.357   4.807   2.408  0.0384 -1.3756 -1.6241
 8245SOL    HW229421   0.506   4.804   2.436 -0.3108 -0.9677  0.4343
 8246SOL     OW29422   0.318  10.008   3.589  0.8600 -0.7417 -0.0161
 8246SOL    HW129423   0.303  10.099   3.563  2.2561 -0.6342 -0.5674
 8246SOL    HW229424   0.245   9.959   3.550  0.4185  0.0679 -0.2193
 8247SOL     OW29425   1.883   6.014   3.031  0.7475 -0.6907 -0.1617
 8247SOL    HW129426   1.957   5.953   3.037 -0.6901 -2.3979  2.4684
 8247SOL    HW229427   1.848   6.001   2.944  2.2590 -1.4090 -0.7018
 8248SOL     OW29428   0.338   3.045   4.395 -0.2101 -0.6115 -0.5483
 8248SOL    HW129429   0.284   3.091   4.459 -0.1929  1.6908 -2.0542
 8248SOL    HW229430   0.426   3.046   4.432 -0.0782  1.2839 -0.8327
 8249SOL     OW29431   5.235   6.185   2.982 -0.4041 -0.8995  0.3829
 8249SOL    HW129432   5.187   6.258   2.943  0.0513 -0.4394  0.6662
 8249SOL    HW229433   5.281   6.224   3.056  0.7065 -1.2496 -0.0989
 8250SOL     OW29434   4.974  10.896   1.077 -0.0617  0.0066  0.1710
 8250SOL    HW129435   4.909  10.860   1.016 -0.3433 -1.8899  1.5002
 8250SOL    HW229436   4.923  10.934   1.148  0.2685  0.5637  0.1117
 8251SOL     OW29437   0.671   7.059   1.018 -0.0209 -0.1563 -0.5269
 8251SOL    HW129438   0.623   7.135   0.986 -1.1624 -1.6059 -2.4047
 8251SOL    HW229439   0.758   7.067   0.977 -0.2856 -0.0956 -1.0824
 8252SOL     OW29440   3.595   1.952   9.965  0.6233  0.2072  0.3209
 8252SOL    HW129441   3.561   1.919  10.048 -0.9238 -0.9797 -0.7253
 8252SOL    HW229442   3.578   2.047   9.968  0.1208  0.0986  1.1535
 8253SOL     OW29443   9.750   8.408   6.125 -0.3418  0.3633 -0.4738
 8253SOL    HW129444   9.778   8.427   6.036 -0.3862 -0.8653 -0.7698
 8253SOL    HW229445   9.685   8.474   6.145  1.2444  2.0256 -0.5325
 8254SOL     OW29446   6.457   0.413   4.761  0.3155 -0.1377 -0.0860
 8254SOL    HW129447   6.441   0.451   4.847  1.2467  1.9698 -0.7922
 8254SOL    HW229448   6.370   0.407   4.721  0.1497  1.6476 -0.0753
 8255SOL     OW29449   1.336   6.291   9.779  0.4020  0.3376 -0.5086
 8255SOL    HW129450   1.326   6.284   9.684 -0.5709 -0.3163 -0.3762
 8255SOL    HW229451   1.430   6.284   9.794  0.4979 -0.4216 -1.3695
 8256SOL     OW29452  11.461   9.858  10.061 -0.0576  0.7239  0.3528
 8256SOL    HW129453  11.500   9.920  10.123  0.5477 -0.1167  0.8267
 8256SOL    HW229454  11.479   9.772  10.098 -0.4704  0.2371 -0.5442
 8257SOL     OW29455   9.243   9.829   4.351 -0.2236 -0.0129  0.1808
 8257SOL    HW129456   9.198   9.850   4.269  0.8752 -0.1614 -0.4917
 8257SOL    HW229457   9.334   9.854   4.334  0.0851 -0.3801  1.2423
 8258SOL     OW29458   6.535   5.953  10.399 -0.2718  0.1467 -0.0912
 8258SOL    HW129459   6.542   5.883  10.334 -0.0513 -0.3616  0.4667
 8258SOL    HW229460   6.613   6.006  10.386 -0.6797  0.5859 -0.8402
 8259SOL     OW29461   6.278   3.766  10.263  0.3261  0.2088 -0.1762
 8259SOL    HW129462   6.308   3.706  10.195 -0.0409  1.0128 -1.0741
 8259SOL    HW229463   6.286   3.853  10.224 -0.7341  0.6227  0.4726
 8260SOL     OW29464  11.682   6.628   5.850  0.6835 -0.1569 -0.4315
 8260SOL    HW129465  11.603   6.627   5.904  0.9034 -0.3330 -0.1064
 8260SOL    HW229466  11.655   6.590   5.767  1.1374 -3.1133  0.6813
 8261SOL     OW29467   9.768   8.162   5.195 -0.3814 -0.0853 -0.1386
 8261SOL    HW129468   9.802   8.229   5.255 -0.4987  1.1675 -1.4403
 8261SOL    HW229469   9.674   8.161   5.213 -0.2567 -0.5949  0.5427
 8262SOL     OW29470  10.031   8.753   1.176 -0.4325 -0.2449 -0.2226
 8262SOL    HW129471  10.057   8.812   1.106  0.7865  0.4485  0.7810
 8262SOL    HW229472   9.946   8.717   1.148  0.0977 -0.0956 -2.0948
 8263SOL     OW29473   6.888   3.986   3.137  0.6627 -0.3371 -0.1942
 8263SOL    HW129474   6.916   4.010   3.225  0.1149 -1.0256  0.1846
 8263SOL    HW229475   6.957   4.018   3.080  2.1677 -1.8425  0.6775
 8264SOL     OW29476   5.500   6.258   1.316  0.1117  0.4294 -0.2314
 8264SOL    HW129477   5.483   6.188   1.380 -2.6668  0.7549 -0.4839
 8264SOL    HW229478   5.570   6.224   1.261  0.6440 -1.0256  1.2601
 8265SOL     OW29479   9.871   9.857  10.099 -0.6613  0.0977  0.5425
 8265SOL    HW129480   9.898   9.940  10.061 -0.0433 -0.6512 -0.7295
 8265SOL    HW229481   9.791   9.834  10.051 -0.7665 -0.0991  0.8082
 8266SOL     OW29482  10.795   2.355   3.710  0.4760  0.1132  0.2797
 8266SOL    HW129483  10.730   2.424   3.720  1.8217  1.3662  0.7287
 8266SOL    HW229484  10.766   2.305   3.634 -0.3091  1.4173 -0.3080
 8267SOL     OW29485  11.327  10.144   2.726 -0.8333  0.0046  0.2436
 8267SOL    HW129486  11.366  10.200   2.659  0.7215 -0.3913  0.7840
 8267SOL    HW229487  11.345  10.190   2.808 -2.3399  0.2661  0.4477
 8268SOL     OW29488   1.735   9.446   2.229 -0.1128 -0.6682 -0.2226
 8268SOL    HW129489   1.706   9.439   2.138 -1.6763  1.0784  0.0874
 8268SOL    HW229490   1.656   9.429   2.280 -0.0130  1.4585  0.7249
 8269SOL     OW29491   2.511   6.866   1.949  0.2387 -0.2079 -0.1342
 8269SOL    HW129492   2.530   6.775   1.969  2.1359 -0.5044 -2.7406
 8269SOL    HW229493   2.569   6.916   2.006 -0.4131 -0.6202  0.9151
 8270SOL     OW29494   4.472   2.700   4.230  0.3615 -0.1346  0.1937
 8270SOL    HW129495   4.549   2.651   4.261 -0.5474 -1.2961  0.6952
 8270SOL    HW229496   4.439   2.745   4.308  0.0721 -0.2892  0.1627
 8271SOL     OW29497   1.698   6.393  11.315  0.1586  0.1875  0.0438
 8271SOL    HW129498   1.661   6.311  11.281  2.6735 -2.8542  3.8475
 8271SOL    HW229499   1.768   6.414  11.254 -1.8770  0.9716 -2.2184
 8272SOL     OW29500   3.524   8.540   3.848  0.0075  0.7591  0.0188
 8272SOL    HW129501   3.588   8.483   3.806  0.1341  0.5132  0.5384
 8272SOL    HW229502   3.576   8.597   3.905 -0.2773  0.1604  0.9010
 8273SOL     OW29503  11.406   7.770   1.997 -0.1801 -0.0862  0.9242
 8273SOL    HW129504  11.364   7.855   1.983 -0.7862 -0.6216 -0.7849
 8273SOL    HW229505  11.402   7.757   2.091  0.0223  1.8185  1.2456
 8274SOL     OW29506   9.412   1.062   1.070  0.2099 -0.2327 -0.1620
 8274SOL    HW129507   9.322   1.084   1.093  1.0366  1.6961  1.6130
 8274SOL    HW229508   9.450   1.144   1.037  1.7765 -0.5109  0.8116
 8275SOL     OW29509   8.365   2.439   2.521 -0.1725 -0.7894  0.2490
 8275SOL    HW129510   8.455   2.408   2.534 -0.4053 -0.7109  2.5367
 8275SOL    HW229511   8.368   2.531   2.551 -0.9221 -0.6677 -0.0435
 8276SOL     OW29512   2.255   6.539   7.529 -0.3891 -0.4077 -0.2448
 8276SOL    HW129513   2.259   6.610   7.593  0.9983 -1.5723  1.0234
 8276SOL    HW229514   2.200   6.472   7.570 -0.3085 -0.7543 -0.6927
 8277SOL     OW29515   1.548   2.346   9.442 -0.3429 -0.4323 -0.5593
 8277SOL    HW129516   1.574   2.437   9.430 -1.2211 -0.2774 -1.4484
 8277SOL    HW229517   1.609   2.296   9.388 -1.3044 -0.1422 -1.9855
 8278SOL     OW29518   6.966   1.151   8.681 -0.1643  0.0871 -0.8688
 8278SOL    HW129519   6.882   1.125   8.718  0.1609 -1.6311 -1.2351
 8278SOL    HW229520   7.001   1.070   8.642  1.9693  0.5865 -0.1250
 8279SOL     OW29521   4.432   0.017   0.484 -0.4553  0.7962 -0.2179
 8279SOL    HW129522   4.413  -0.076   0.474  0.0883  0.6051  0.4359
 8279SOL    HW229523   4.459   0.046   0.396  1.8519 -0.2601  0.0786
 8280SOL     OW29524   3.975   6.369   4.374 -0.3892 -0.6156  0.4912
 8280SOL    HW129525   3.999   6.332   4.289 -0.7514  0.4672 -0.1065
 8280SOL    HW229526   4.058   6.385   4.418 -0.2324 -2.8275  1.1025
 8281SOL     OW29527   1.099  11.077   2.225  0.2165 -0.8408  0.1835
 8281SOL    HW129528   1.113  11.131   2.303 -0.3359 -1.2846  0.5928
 8281SOL    HW229529   1.004  11.074   2.215  0.2744 -1.0511 -0.3278
 8282SOL     OW29530  10.994   8.343   2.431 -0.6914 -0.6301 -0.2658
 8282SOL    HW129531  10.971   8.433   2.456  1.2534 -0.3051  0.5673
 8282SOL    HW229532  11.013   8.347   2.338 -1.4590 -0.3777 -0.4167
 8283SOL     OW29533   6.451   2.552   9.818 -0.3361 -0.5603  0.7096
 8283SOL    HW129534   6.541   2.581   9.806 -0.8031  0.5092 -0.4402
 8283SOL    HW229535   6.399   2.613   9.766 -2.1073  0.9828  4.0155
 8284SOL     OW29536   5.714   8.822   1.815 -0.3914 -0.1331  0.6919
 8284SOL    HW129537   5.764   8.892   1.857  0.4282  0.2542 -0.8662
 8284SOL    HW229538   5.626   8.859   1.806 -0.4915 -0.0858  1.6910
 8285SOL     OW29539   5.916   6.909   1.788 -0.7285 -0.2172 -0.4320
 8285SOL    HW129540   5.827   6.931   1.816 -0.6793  1.2720 -1.3623
 8285SOL    HW229541   5.905   6.877   1.698 -0.3220  0.0672 -0.5858
 8286SOL     OW29542   8.202   4.823   8.971  0.0927  0.3861 -0.0399
 8286SOL    HW129543   8.121   4.813   9.020  1.2542 -1.2887  1.6655
 8286SOL    HW229544   8.249   4.893   9.017 -0.5305  1.7080 -1.3240
 8287SOL     OW29545   9.687   7.553  11.908  0.1925  0.0983  0.3047
 8287SOL    HW129546   9.646   7.618  11.965  2.7146  1.0648  1.1391
 8287SOL    HW229547   9.695   7.596  11.823  2.4229  1.2260  1.0138
 8288SOL     OW29548   3.433   2.459   3.377 -0.0062  0.6830  0.1254
 8288SOL    HW129549   3.365   2.418   3.430  1.6746  0.4358  2.2270
 8288SOL    HW229550   3.496   2.390   3.360  0.6600  1.3438 -0.1705
 8289SOL     OW29551   7.562   6.929   0.479 -0.5152 -0.1867 -0.0649
 8289SOL    HW129552   7.595   6.964   0.561 -0.1371  1.4658 -0.8708
 8289SOL    HW229553   7.636   6.937   0.418 -1.0501 -0.5567 -0.7826
 8290SOL     OW29554   6.802  10.744   9.137 -0.0512  0.7783  0.2456
 8290SOL    HW129555   6.803  10.820   9.080  2.1040  1.7212  1.4209
 8290SOL    HW229556   6.834  10.776   9.222 -2.3984 -0.7099  1.8331
 8291SOL     OW29557  10.174   5.839   1.122  0.5455 -0.7590  0.1113
 8291SOL    HW129558  10.104   5.904   1.126  1.2394  0.1185 -1.3770
 8291SOL    HW229559  10.128   5.755   1.116 -0.3542 -0.4202  1.6435
 8292SOL     OW29560  11.299  10.377   2.356 -0.0532  0.4922  0.1264
 8292SOL    HW129561  11.274  10.340   2.271  0.2763  1.2724 -0.3205
 8292SOL    HW229562  11.244  10.455   2.365 -1.9136 -0.9107  1.7873
 8293SOL     OW29563   8.494   2.088   7.015 -0.4554 -0.4486 -0.0120
 8293SOL    HW129564   8.536   2.111   6.932 -0.6996 -0.7991 -0.2365
 8293SOL    HW229565   8.456   2.170   7.046 -0.6144 -0.3755 -0.3946
 8294SOL     OW29566   5.723   7.205   2.667  0.9430 -0.3297 -0.7326
 8294SOL    HW129567   5.774   7.261   2.609  0.5122  2.7514  1.5752
 8294SOL    HW229568   5.768   7.212   2.752 -0.1742 -2.1323  0.0709
 8295SOL     OW29569   6.668   1.075   6.640  0.0430 -0.0012 -0.5536
 8295SOL    HW129570   6.762   1.058   6.649 -0.0179  0.3181  0.8932
 8295SOL    HW229571   6.626   0.996   6.673 -0.2276 -0.5392 -2.0910
 8296SOL     OW29572   8.609   8.743   7.356 -0.2574  0.1484 -0.4826
 8296SOL    HW129573   8.532   8.703   7.396 -0.4012 -0.2138 -1.1089
 8296SOL    HW229574   8.624   8.822   7.408 -0.5826 -0.1810  0.1281
 8297SOL     OW29575   0.113   0.559   1.266 -0.0133  0.0162  0.1005
 8297SOL    HW129576   0.190   0.606   1.298 -0.1736  1.0094 -0.8934
 8297SOL    HW229577   0.149   0.495   1.204  0.0782 -0.0949  0.2675
 8298SOL     OW29578   1.973   8.314   2.912  0.1399  0.5771 -0.0174
 8298SOL    HW129579   2.044   8.350   2.859  1.7137 -1.4751  0.5498
 8298SOL    HW229580   1.894   8.329   2.860  1.2208  1.3332 -1.5193
 8299SOL     OW29581   8.515   5.032   3.118  0.2123 -0.0925 -0.0635
 8299SOL    HW129582   8.484   5.053   3.029 -0.8407 -0.4292  0.2065
 8299SOL    HW229583   8.576   5.102   3.139  1.6634 -0.8099 -1.6340
 8300SOL     OW29584   7.691   3.943   3.534  0.6032  0.6304 -0.2975
 8300SOL    HW129585   7.663   4.017   3.589  1.9364 -0.3960  1.9110
 8300SOL    HW229586   7.786   3.939   3.545  0.5185 -1.7417  0.1499
 8301SOL     OW29587   6.464   7.759   5.414  0.1705  0.4440 -0.5991
 8301SOL    HW129588   6.481   7.757   5.320 -1.0888  0.5983 -0.8431
 8301SOL    HW229589   6.493   7.846   5.442  2.0697 -0.1732 -0.5168
 8302SOL     OW29590   1.290   3.470   8.935  0.1071  0.0891  0.3341
 8302SOL    HW129591   1.363   3.529   8.916 -0.3719  0.7420  0.4813
 8302SOL    HW229592   1.316   3.425   9.015  0.7868 -0.4241 -0.1695
 8303SOL     OW29593   3.464   1.560   4.811  0.0291  0.0929 -0.0393
 8303SOL    HW129594   3.553   1.576   4.779  0.1079 -0.8013 -0.3118
 8303SOL    HW229595   3.407   1.599   4.744  0.2045  1.0073  0.3272
 8304SOL     OW29596  10.182  10.591   6.915 -0.7800  0.0588  0.8687
 8304SOL    HW129597  10.243  10.523   6.888  1.0286  1.9030  0.0051
 8304SOL    HW229598  10.104  10.544   6.944 -0.1899 -2.2949 -1.0770
 8305SOL     OW29599   8.471   4.951   1.508  0.0580  0.1958 -0.1080
 8305SOL    HW129600   8.558   4.941   1.547 -0.0118  0.9986  0.2735
 8305SOL    HW229601   8.469   5.043   1.479 -1.2042  0.6092  1.2160
 8306SOL     OW29602   5.780   0.038   8.416  0.2523  0.1793 -0.0964
 8306SOL    HW129603   5.872   0.022   8.393 -0.1602 -0.8138 -1.1619
 8306SOL    HW229604   5.744   0.082   8.339 -1.4665 -4.2788 -2.1558
 8307SOL     OW29605  10.703   1.536   3.914  0.0108  0.0929 -0.0421
 8307SOL    HW129606  10.669   1.475   3.979 -0.9497 -0.0443 -0.6613
 8307SOL    HW229607  10.725   1.614   3.965 -1.2321  0.1862  0.4004
 8308SOL     OW29608   7.182   7.980   1.060 -0.9867 -0.3427 -0.1417
 8308SOL    HW129609   7.120   7.954   1.128 -1.0803  0.8582  0.2576
 8308SOL    HW229610   7.265   7.993   1.107 -0.6347 -1.1338 -0.5357
 8309SOL     OW29611   8.994   7.237   8.744  0.2521  0.3210  0.4473
 8309SOL    HW129612   9.019   7.176   8.813  0.1040 -1.1574 -0.7451
 8309SOL    HW229613   9.068   7.236   8.683 -0.3888  0.1610 -0.3458
 8310SOL     OW29614   2.024   0.117   1.806 -0.1656 -0.0336 -0.0547
 8310SOL    HW129615   1.940   0.124   1.762 -0.5382  0.0329  0.6535
 8310SOL    HW229616   2.006   0.066   1.885  0.2687  0.7754  0.5781
 8311SOL     OW29617   3.691   2.968   5.776 -0.2909 -0.4392  0.2924
 8311SOL    HW129618   3.712   3.021   5.853  2.2473  0.3534 -0.8574
 8311SOL    HW229619   3.663   2.884   5.812  1.2120 -0.2378  2.1060
 8312SOL     OW29620   3.944   8.227   3.890  0.2189 -0.1282  0.4825
 8312SOL    HW129621   3.958   8.263   3.802 -2.2843  1.5222  0.6582
 8312SOL    HW229622   4.000   8.150   3.893  0.4920 -0.1814 -2.5393
 8313SOL     OW29623   5.211   5.990   4.537  0.1773 -0.2720 -0.1389
 8313SOL    HW129624   5.231   6.034   4.619  2.5569 -0.7853 -0.3517
 8313SOL    HW229625   5.178   5.904   4.562 -3.0241  0.9649  0.2575
 8314SOL     OW29626   8.331   3.710   5.286 -0.1698 -0.2573  0.2737
 8314SOL    HW129627   8.253   3.733   5.337 -0.7995 -0.9981 -0.3170
 8314SOL    HW229628   8.367   3.793   5.257 -0.4254  0.1198  1.0299
 8315SOL     OW29629   4.276   3.961   3.489  0.5876  0.7171  0.2679
 8315SOL    HW129630   4.251   4.009   3.410  1.1114 -1.9208 -1.6507
 8315SOL    HW229631   4.362   3.994   3.512  0.7235  1.0589 -0.7070
 8316SOL     OW29632   8.344   6.085   4.252  0.0259 -0.4704  0.2632
 8316SOL    HW129633   8.389   6.012   4.211  0.0567 -0.3380  0.0596
 8316SOL    HW229634   8.281   6.114   4.187  0.8705  0.4826 -0.1623
 8317SOL     OW29635   2.404  10.711   4.700 -0.2512  0.2527  0.2062
 8317SOL    HW129636   2.447  10.776   4.645  0.5035 -1.0475 -0.7975
 8317SOL    HW229637   2.349  10.661   4.639 -1.2293  0.2656  1.0438
 8318SOL     OW29638   2.583   8.566   0.779  0.0664  0.6269  0.2566
 8318SOL    HW129639   2.522   8.538   0.710 -0.2086 -0.1992  0.8183
 8318SOL    HW229640   2.594   8.660   0.765  0.1399  0.4475 -1.0080
 8319SOL     OW29641   4.748   4.102   9.556  0.3623  0.3875 -0.7772
 8319SOL    HW129642   4.728   4.143   9.472 -1.2588  1.4011  0.0516
 8319SOL    HW229643   4.724   4.010   9.545 -1.5535  0.8639 -0.9339
 8320SOL     OW29644   7.090  11.424  10.825 -0.2592  0.0843 -0.0450
 8320SOL    HW129645   7.054  11.490  10.883  0.7797  0.6485 -0.0162
 8320SOL    HW229646   7.014  11.373  10.796 -1.1291  1.4675 -0.3101
 8321SOL     OW29647   0.467   3.315   0.280  0.2037  0.1039  0.3451
 8321SOL    HW129648   0.500   3.300   0.192 -3.1323  0.7047 -1.1778
 8321SOL    HW229649   0.470   3.410   0.292 -1.2671  0.2144 -0.0136
 8322SOL     OW29650   9.988   3.899   8.520  0.4157 -0.5058  0.3308
 8322SOL    HW129651   9.949   3.970   8.469  1.0138 -1.4328 -1.5213
 8322SOL    HW229652  10.083   3.914   8.514  0.5127 -0.8481  0.8756
 8323SOL     OW29653  11.590   7.033   5.783  0.4350  0.3176  0.6272
 8323SOL    HW129654  11.557   6.989   5.705  0.4030  0.9159  0.2923
 8323SOL    HW229655  11.552   6.984   5.856  0.8331 -0.5287  0.2811
 8324SOL     OW29656  10.388   8.226   0.083 -0.0971  0.0429  1.1838
 8324SOL    HW129657  10.333   8.303   0.074 -0.5833 -0.4871 -0.8037
 8324SOL    HW229658  10.327   8.152   0.080  0.5176 -0.4801  1.2122
 8325SOL     OW29659   5.674   2.659   1.384 -0.2613  0.0197 -0.0208
 8325SOL    HW129660   5.742   2.696   1.328 -0.5987 -1.0092 -1.1516
 8325SOL    HW229661   5.672   2.716   1.461  0.7149  1.0342 -0.7252
 8326SOL     OW29662   5.231   9.879   3.090 -0.0661  0.0657 -0.0995
 8326SOL    HW129663   5.262   9.924   3.169 -1.9723 -0.3915  0.9741
 8326SOL    HW229664   5.202   9.949   3.032  1.1250  0.3947 -0.3188
 8327SOL     OW29665   3.393   5.784   0.596 -0.2115 -0.0746 -0.2110
 8327SOL    HW129666   3.386   5.696   0.633  0.7088 -0.4271 -0.8199
 8327SOL    HW229667   3.346   5.840   0.658 -3.2674 -1.3364 -1.2284
 8328SOL     OW29668   8.440   6.098   4.974  0.4989  0.3258  0.1973
 8328SOL    HW129669   8.517   6.149   4.949  0.7130 -0.1901 -0.2095
 8328SOL    HW229670   8.476   6.018   5.014  0.1870 -0.1908 -0.5284
 8329SOL     OW29671   5.677   6.185   1.128 -0.1042  0.1787 -0.5819
 8329SOL    HW129672   5.766   6.220   1.136 -0.0974  0.7587 -2.6898
 8329SOL    HW229673   5.681   6.100   1.171  1.6323 -0.0568 -1.1050
 8330SOL     OW29674   5.542   9.447   0.577  0.0726 -0.4488  0.0106
 8330SOL    HW129675   5.464   9.399   0.604 -1.1691  1.4208 -0.0908
 8330SOL    HW229676   5.552   9.516   0.642  1.2151 -0.2078 -0.3938
 8331SOL     OW29677   6.516  11.875   8.051 -0.1805  0.5334 -0.2660
 8331SOL    HW129678   6.484  11.900   7.964  0.5439  0.6741 -0.4996
 8331SOL    HW229679   6.459  11.802   8.077  0.2232 -0.1732 -1.2932
 8332SOL     OW29680   7.819   1.656   5.703  0.0358 -0.1415 -0.2533
 8332SOL    HW129681   7.878   1.722   5.666  1.3904 -1.9218 -1.3979
 8332SOL    HW229682   7.866   1.624   5.781  0.3527 -1.1352 -0.8305
 8333SOL     OW29683   4.619  10.757   9.240 -0.0612  0.5682  0.1511
 8333SOL    HW129684   4.661  10.814   9.304 -0.8963  3.1935 -1.4753
 8333SOL    HW229685   4.559  10.703   9.292 -1.0978  2.9579  1.5993
 8334SOL     OW29686   7.948   4.071   3.544  0.4227 -0.2346  0.3355
 8334SOL    HW129687   8.041   4.054   3.530  0.4146 -0.4509  0.5436
 8334SOL    HW229688   7.946   4.127   3.622  0.4762  1.0803 -0.5698
 8335SOL     OW29689   5.816   2.516   1.774 -0.2565 -0.0963 -0.3747
 8335SOL    HW129690   5.764   2.596   1.780 -1.3183 -0.8649  1.0191
 8335SOL    HW229691   5.784   2.473   1.694 -1.7366 -0.5257  0.4286
 8336SOL     OW29692   0.916   0.063   8.677 -0.5582  0.1480 -0.0728
 8336SOL    HW129693   0.895   0.010   8.600 -3.5246 -0.0461  0.7600
 8336SOL    HW229694   0.943  -0.000   8.743  1.3964  0.2669 -0.6771
 8337SOL     OW29695   0.070  10.175  11.706 -0.0700 -0.3682 -0.5311
 8337SOL    HW129696   0.039  10.261  11.680  0.5972 -0.2818 -1.0902
 8337SOL    HW229697   0.106  10.188  11.794 -0.8349 -0.2948 -0.2212
 8338SOL     OW29698   5.083   6.554   2.243 -0.1473  0.3070  0.1178
 8338SOL    HW129699   4.989   6.563   2.257  0.0015 -0.2025  1.7437
 8338SOL    HW229700   5.121   6.568   2.330  1.3191  0.8542 -0.5703
 8339SOL     OW29701   3.979   4.307   2.945  0.1141  0.4060  0.2612
 8339SOL    HW129702   4.004   4.393   2.911 -0.0228 -0.1068 -1.2165
 8339SOL    HW229703   3.924   4.270   2.877  2.5073 -2.0345 -0.5186
 8340SOL     OW29704   7.277   5.344   8.036  0.2262  0.3124  0.5322
 8340SOL    HW129705   7.313   5.262   8.069  0.7567  1.1086  2.0506
 8340SOL    HW229706   7.226   5.378   8.110  1.4370  2.1669  0.5754
 8341SOL     OW29707   6.434   2.875  10.122 -0.1928 -0.2524 -0.1359
 8341SOL    HW129708   6.498   2.808  10.098 -0.4325 -0.3509 -0.5012
 8341SOL    HW229709   6.351   2.828  10.126 -0.2464 -0.1252  0.3425
 8342SOL     OW29710   0.884   0.331   1.452 -0.0404  0.0714 -0.3624
 8342SOL    HW129711   0.954   0.395   1.466 -1.0567  1.0783  0.1957
 8342SOL    HW229712   0.922   0.248   1.483  1.5443  0.2236 -1.7621
 8343SOL     OW29713  11.493  11.280   9.940 -0.1882  0.6835  0.2235
 8343SOL    HW129714  11.408  11.238   9.929  0.2195 -0.2529  0.5105
 8343SOL    HW229715  11.474  11.366   9.978 -1.2294  1.7607 -2.4588
 8344SOL     OW29716   4.444   3.487   4.531 -0.3958  0.0810 -0.1022
 8344SOL    HW129717   4.405   3.439   4.457 -0.9785  0.7683 -0.2569
 8344SOL    HW229718   4.369   3.514   4.584  0.0802 -1.1863  1.2418
 8345SOL     OW29719   6.431   7.389  11.110  0.7968 -0.3557  0.1168
 8345SOL    HW129720   6.373   7.334  11.163  0.0491  0.7143  0.4345
 8345SOL    HW229721   6.518   7.374  11.146  0.4073 -0.2673  1.1054
 8346SOL     OW29722  10.657   0.245   4.198  0.4286 -0.4746  0.2675
 8346SOL    HW129723  10.728   0.252   4.261 -0.1792 -1.2545  1.0518
 8346SOL    HW229724  10.627   0.155   4.204 -0.5252 -0.2057 -0.1678
 8347SOL     OW29725   8.499   1.671   8.785  0.5670  0.2000  0.1316
 8347SOL    HW129726   8.465   1.605   8.725 -0.1683  0.5710  0.1165
 8347SOL    HW229727   8.460   1.753   8.754  1.7347  0.6933 -0.0538
 8348SOL     OW29728   0.237  11.239   2.037  0.6098 -0.4924  0.0239
 8348SOL    HW129729   0.189  11.233   1.954  1.4328  0.2025 -0.5244
 8348SOL    HW229730   0.329  11.233   2.012  0.8750 -0.1785  0.8759
 8349SOL     OW29731   7.557   3.870   6.622  0.3623 -0.4772  1.0337
 8349SOL    HW129732   7.618   3.806   6.587  0.5989  0.0930  0.3810
 8349SOL    HW229733   7.597   3.898   6.705 -0.3940 -2.1138  1.9955
 8350SOL     OW29734  11.904   6.117  11.826 -0.3476  0.1953 -0.7955
 8350SOL    HW129735  11.967   6.066  11.776  0.7412  1.6988 -1.0199
 8350SOL    HW229736  11.819   6.081  11.801  0.3937 -2.2872 -0.0277
 8351SOL     OW29737   7.859   5.655   5.649  0.2144 -0.2627 -0.1262
 8351SOL    HW129738   7.936   5.706   5.672 -0.5392  0.2655  1.3330
 8351SOL    HW229739   7.853   5.588   5.716  0.0467 -1.0317 -0.8926
 8352SOL     OW29740   2.626   7.550   1.694 -0.1594 -0.1976  0.2396
 8352SOL    HW129741   2.606   7.609   1.621  1.6223 -0.1642 -0.2492
 8352SOL    HW229742   2.620   7.462   1.656  2.5595 -0.1349 -0.4778
 8353SOL     OW29743   6.690   4.619   5.129  0.1021 -1.0733 -0.4770
 8353SOL    HW129744   6.749   4.546   5.148 -1.0160 -2.0901 -0.7881
 8353SOL    HW229745   6.700   4.635   5.036  0.4679 -0.7095 -0.3779
 8354SOL     OW29746   8.846   2.745   9.686 -0.1136  0.1646 -0.5567
 8354SOL    HW129747   8.832   2.721   9.778 -0.3664 -0.8114 -0.8331
 8354SOL    HW229748   8.759   2.769   9.654  0.1715  1.6987 -0.2302
 8355SOL     OW29749   7.957   9.927   6.933 -0.1220 -0.1579  0.2775
 8355SOL    HW129750   7.864   9.934   6.910 -0.5242 -1.6926  1.2522
 8355SOL    HW229751   7.957   9.877   7.014  1.6036 -0.7453 -0.0582
 8356SOL     OW29752   8.939  10.973   9.750  0.0761  0.2630  0.0527
 8356SOL    HW129753   8.920  10.942   9.838 -0.2108 -0.1643 -0.1558
 8356SOL    HW229754   9.020  11.023   9.759  1.0413 -1.2603  0.2758
 8357SOL     OW29755   4.627   9.208   1.613 -0.3829 -0.3842 -0.1979
 8357SOL    HW129756   4.656   9.254   1.693 -1.5305 -1.9566  1.1665
 8357SOL    HW229757   4.635   9.274   1.544  2.0414  0.6110  0.9072
 8358SOL     OW29758   4.619   9.696   1.395  0.2264  0.6247 -0.3936
 8358SOL    HW129759   4.538   9.734   1.361 -0.3076  0.6794  0.8546
 8358SOL    HW229760   4.634   9.619   1.340 -0.9875  0.3034 -0.3167
 8359SOL     OW29761   8.220   1.186   2.021  0.0898  0.3967  0.6051
 8359SOL    HW129762   8.274   1.260   2.049  0.5769 -0.1053  1.0346
 8359SOL    HW229763   8.146   1.187   2.082  0.5859 -0.0297  1.2401
 8360SOL     OW29764  11.203   9.924  11.780 -0.5443  0.0792 -0.3644
 8360SOL    HW129765  11.271   9.989  11.767 -0.5519 -0.3240 -2.6993
 8360SOL    HW229766  11.217   9.860  11.711 -2.5336 -0.6714 -0.1285
 8361SOL     OW29767   2.414   8.888   2.232  0.4059  0.5966 -0.4296
 8361SOL    HW129768   2.432   8.815   2.172  2.4284 -0.4515  1.2967
 8361SOL    HW229769   2.404   8.847   2.318 -1.0518  2.1692  0.2108
 8362SOL     OW29770   5.294   8.358   2.843  0.4976 -0.2359 -0.2172
 8362SOL    HW129771   5.268   8.317   2.761  0.6770  0.5544 -0.6843
 8362SOL    HW229772   5.359   8.424   2.817 -1.9839  2.5225  0.0606
 8363SOL     OW29773   7.825   4.678   3.160 -0.3312 -0.2338 -0.4262
 8363SOL    HW129774   7.855   4.614   3.225 -0.2323 -0.5444 -0.7734
 8363SOL    HW229775   7.816   4.627   3.079 -0.8238  0.0675 -0.5632
 8364SOL     OW29776   7.489   5.289  11.248  0.1215  0.2069 -0.0190
 8364SOL    HW129777   7.449   5.370  11.280 -0.5257 -0.8086  1.9126
 8364SOL    HW229778   7.555   5.267  11.314 -0.7171 -1.5777  0.2835
 8365SOL     OW29779  10.232   5.235   9.638 -0.2197  0.1993  0.3661
 8365SOL    HW129780  10.214   5.200   9.551 -0.0939 -0.5179  0.6228
 8365SOL    HW229781  10.147   5.264   9.671 -0.8980 -2.4854  1.2735
 8366SOL     OW29782  11.096   4.786   1.006  0.2686 -0.3831 -0.3625
 8366SOL    HW129783  11.139   4.715   0.957  3.0751  0.7529  0.2440
 8366SOL    HW229784  11.132   4.779   1.094 -0.1394  1.2080 -0.0382
 8367SOL     OW29785   0.006  11.444   5.580  0.3130 -0.0826 -0.0171
 8367SOL    HW129786   0.012  11.399   5.665 -0.9114 -0.2972 -0.0178
 8367SOL    HW229787   0.089  11.425   5.537  1.5656  1.2022  1.6802
 8368SOL     OW29788   9.742   8.079   7.613 -0.5054 -0.1932  0.5752
 8368SOL    HW129789   9.833   8.052   7.605  0.1791  1.6475  1.4674
 8368SOL    HW229790   9.746   8.174   7.620 -2.4871 -0.0855  0.7904
 8369SOL     OW29791   6.415  10.822   4.624 -0.1158  0.3664 -0.3968
 8369SOL    HW129792   6.365  10.891   4.667  2.0975  2.5866 -1.1686
 8369SOL    HW229793   6.385  10.822   4.534 -1.5077 -1.1431  0.0103
 8370SOL     OW29794  11.912  11.351   3.387 -0.6457 -0.3400  0.3347
 8370SOL    HW129795  11.905  11.260   3.356 -1.0685 -0.2160  0.0674
 8370SOL    HW229796  11.838  11.396   3.348 -0.5397  0.0848  0.6159
 8371SOL     OW29797   8.225   3.038  11.415 -0.2550 -0.2593  0.1513
 8371SOL    HW129798   8.310   3.007  11.384 -0.3323  0.3360 -0.6919
 8371SOL    HW229799   8.203   2.980  11.488  1.0589 -0.1662  0.6570
 8372SOL     OW29800   3.276   5.591  10.560 -0.0247 -0.2905 -1.0427
 8372SOL    HW129801   3.322   5.543  10.628 -1.3896 -1.1562 -0.6910
 8372SOL    HW229802   3.185   5.593  10.589 -0.5283 -0.1461 -2.5303
 8373SOL     OW29803  10.288   9.655   6.044 -0.1132 -0.2979 -0.1058
 8373SOL    HW129804  10.310   9.748   6.042  1.0365 -0.5404  0.2812
 8373SOL    HW229805  10.237   9.641   5.964 -2.1248  1.0522  0.8651
 8374SOL     OW29806   2.800   5.090   6.567  0.4963  0.7135  0.5532
 8374SOL    HW129807   2.866   5.076   6.498  0.5548 -1.2613  0.9382
 8374SOL    HW229808   2.716   5.081   6.522  0.5342 -0.4002  0.6695
 8375SOL     OW29809   5.653   4.326   6.450  0.1030  0.3844  0.2571
 8375SOL    HW129810   5.596   4.280   6.389  0.3362  0.6037 -0.1276
 8375SOL    HW229811   5.626   4.295   6.536  0.3910 -0.6215 -0.0053
 8376SOL     OW29812   1.026  10.361   7.856 -0.1107 -0.1267  0.0513
 8376SOL    HW129813   1.117  10.359   7.884 -0.1652  0.0151  0.2439
 8376SOL    HW229814   1.028  10.332   7.765 -0.0706 -1.8716  0.5688
 8377SOL     OW29815   3.950   3.568   3.655 -0.0288 -0.2293  0.3235
 8377SOL    HW129816   3.927   3.566   3.747 -1.5807 -0.9456 -0.0496
 8377SOL    HW229817   4.001   3.649   3.644 -2.7608  1.7240  1.1484
 8378SOL     OW29818   7.366   3.622   2.012 -0.3788  0.0310 -0.2367
 8378SOL    HW129819   7.413   3.664   2.084 -0.8423  0.2318 -0.0498
 8378SOL    HW229820   7.420   3.546   1.990  1.3884  1.6266 -1.7288
 8379SOL     OW29821  10.483   1.651   7.757 -0.4426 -0.0782 -0.3172
 8379SOL    HW129822  10.406   1.681   7.804 -0.6015 -0.0789 -0.5764
 8379SOL    HW229823  10.449   1.616   7.674 -0.4741 -2.5794  0.6650
 8380SOL     OW29824   2.459   0.165   2.608  0.1511  0.3572  0.0865
 8380SOL    HW129825   2.489   0.102   2.542  0.6338 -0.4848  1.0899
 8380SOL    HW229826   2.540   0.198   2.648 -0.1671  0.1500  0.9085
 8381SOL     OW29827   2.715   7.709   7.342 -0.3029 -0.0980  0.1748
 8381SOL    HW129828   2.702   7.723   7.249  0.8174  1.3972  0.2013
 8381SOL    HW229829   2.673   7.625   7.360  0.2407 -0.8568 -1.8358
 8382SOL     OW29830   9.599   7.076   0.362 -0.0251  0.3690  0.3748
 8382SOL    HW129831   9.645   6.996   0.388 -2.7408 -1.8848 -1.1296
 8382SOL    HW229832   9.656   7.117   0.297  0.4659 -1.6426 -0.5453
 8383SOL     OW29833  11.299   1.152  10.112 -0.8766  0.4268  0.2384
 8383SOL    HW129834  11.236   1.212  10.071  0.9068  1.3336 -1.3395
 8383SOL    HW229835  11.245   1.082  10.148 -2.8117  1.3064 -0.7897
 8384SOL     OW29836   3.792   4.955   7.650 -0.3093 -0.1056 -0.4317
 8384SOL    HW129837   3.852   4.902   7.703 -0.1644 -0.5718 -1.0505
 8384SOL    HW229838   3.770   4.899   7.575 -0.3785  0.6023 -0.9532
 8385SOL     OW29839   9.974  11.552   5.679  0.0177  0.2490 -0.2619
 8385SOL    HW129840   9.893  11.601   5.697  0.7137  1.1552  0.5049
 8385SOL    HW229841  10.024  11.609   5.621  1.0588  0.7079  1.0469
 8386SOL     OW29842  10.967   7.508   2.480  0.2624 -0.0143 -0.1829
 8386SOL    HW129843  10.962   7.442   2.410 -2.0621 -1.0148  0.8335
 8386SOL    HW229844  11.061   7.519   2.495  0.7590 -2.3614 -1.0897
 8387SOL     OW29845  10.211   4.297   3.233  0.2507  0.1968  1.2429
 8387SOL    HW129846  10.215   4.284   3.139  1.6529 -0.3957  1.3585
 8387SOL    HW229847  10.278   4.362   3.252 -1.0809  1.5028  1.6783
 8388SOL     OW29848   8.869  11.986   9.659 -0.0515 -0.1715 -0.4370
 8388SOL    HW129849   8.856  12.080   9.652 -1.3070 -0.3939 -1.4446
 8388SOL    HW229850   8.928  11.976   9.734  0.4941  1.4240 -0.6157
 8389SOL     OW29851   7.803   4.257   1.846 -0.1353 -0.6685  0.5362
 8389SOL    HW129852   7.774   4.318   1.913 -1.0484  1.8191 -1.9356
 8389SOL    HW229853   7.839   4.312   1.777 -0.1139 -3.0017 -1.4461
 8390SOL     OW29854   8.584   9.330  11.225  0.1993 -0.9731 -0.2841
 8390SOL    HW129855   8.649   9.292  11.284 -0.2526  0.0500  0.9105
 8390SOL    HW229856   8.621   9.414  11.198 -1.8309  1.1523  2.9109
 8391SOL     OW29857  11.215   5.903  10.684 -0.0272  0.4427 -0.2014
 8391SOL    HW129858  11.215   5.884  10.590 -0.2952  1.5573 -0.4513
 8391SOL    HW229859  11.281   5.845  10.721 -0.2791 -0.3799 -0.9930
 8392SOL     OW29860   9.620   4.422   1.390 -0.1364  0.6638 -0.3504
 8392SOL    HW129861   9.547   4.430   1.328 -0.9613  1.2109  0.6474
 8392SOL    HW229862   9.675   4.353   1.354 -1.3179  0.0046 -0.9750
 8393SOL     OW29863   1.040   7.824  11.316 -0.0227  0.2925  0.4085
 8393SOL    HW129864   1.004   7.912  11.306  0.4042  0.4268  0.0460
 8393SOL    HW229865   0.983   7.782  11.381 -0.2136  0.8407  0.5960
 8394SOL     OW29866   5.986   4.032   2.171  0.9368 -0.7444  0.1084
 8394SOL    HW129867   5.994   4.126   2.186 -1.6920 -0.8306  3.0614
 8394SOL    HW229868   6.036   3.992   2.243 -2.0371 -1.4325  1.9310
 8395SOL     OW29869  10.880   3.602   8.275 -0.3022 -0.2124 -0.4457
 8395SOL    HW129870  10.806   3.548   8.301  0.3315 -0.8809  0.0025
 8395SOL    HW229871  10.926   3.550   8.210 -0.2320  0.2135 -0.7443
 8396SOL     OW29872   9.203  11.747   6.275  0.1518 -0.1834  0.0455
 8396SOL    HW129873   9.142  11.796   6.220 -1.1180 -0.7540  0.9018
 8396SOL    HW229874   9.199  11.791   6.360 -0.6568 -1.4500  0.6930
 8397SOL     OW29875   7.458  10.861  10.236  0.3569  0.1339 -0.1666
 8397SOL    HW129876   7.541  10.898  10.206 -0.3150  1.8723 -0.0105
 8397SOL    HW229877   7.391  10.912  10.190 -0.6370 -0.8821  0.1068
 8398SOL     OW29878   6.396   6.991   7.509 -0.0108  0.2149 -0.0267
 8398SOL    HW129879   6.416   7.077   7.548 -0.7797  0.7441 -0.7792
 8398SOL    HW229880   6.303   6.978   7.527  0.5146 -1.3968  1.8449
 8399SOL     OW29881   8.122   4.543  11.674  0.0557  0.3835  0.2136
 8399SOL    HW129882   8.080   4.624  11.644 -1.0965 -0.0858  0.5201
 8399SOL    HW229883   8.071   4.473  11.633 -0.0622 -0.2159  1.3589
 8400SOL     OW29884   4.278   7.967   7.838 -0.1113 -0.7054  0.0318
 8400SOL    HW129885   4.258   8.046   7.887  0.5326 -0.5935  0.1176
 8400SOL    HW229886   4.339   7.918   7.893  0.5236 -0.6325 -0.5940
 8401SOL     OW29887  10.017  10.800  11.134 -0.0188 -0.5281 -0.0582
 8401SOL    HW129888  10.063  10.852  11.069  0.5871  0.3961  1.0675
 8401SOL    HW229889   9.946  10.856  11.166 -0.3998 -1.0185 -0.0166
 8402SOL     OW29890   1.033   2.368   5.001  0.3894 -0.0760 -0.2190
 8402SOL    HW129891   1.066   2.284   4.971 -3.6827 -1.7793 -0.6346
 8402SOL    HW229892   0.970   2.346   5.070  1.4993  2.9579  1.9667
 8403SOL     OW29893   7.844  10.123   8.656 -0.4640 -0.3015 -0.1607
 8403SOL    HW129894   7.816  10.031   8.660 -0.4632 -0.5077 -3.1019
 8403SOL    HW229895   7.854  10.141   8.563  0.2388  2.5116  0.3798
 8404SOL     OW29896   7.966   0.119   7.653  0.0736  0.4712 -0.3793
 8404SOL    HW129897   7.886   0.170   7.662  0.8191  1.9989 -1.8313
 8404SOL    HW229898   8.008   0.154   7.574  2.6897  0.4475  0.9026
 8405SOL     OW29899   3.537   3.620   4.178 -0.3632  0.2798  0.0950
 8405SOL    HW129900   3.574   3.677   4.110 -1.2551 -0.8128 -1.3689
 8405SOL    HW229901   3.589   3.639   4.256  2.0731  0.1394 -1.3828
 8406SOL     OW29902  10.609   2.148   7.430 -0.4381  0.9221 -0.1275
 8406SOL    HW129903  10.585   2.238   7.452 -0.3381  1.1254 -0.8269
 8406SOL    HW229904  10.584   2.138   7.338 -0.7223  0.1390  0.0270
 8407SOL     OW29905   4.146   3.711   8.259 -0.1881  0.1785 -0.3145
 8407SOL    HW129906   4.191   3.631   8.233 -1.5140 -1.0071  0.8684
 8407SOL    HW229907   4.110   3.747   8.178  0.6208 -0.2925 -0.8827
 8408SOL     OW29908   2.364   1.597   7.410  0.5917  0.1020 -0.5310
 8408SOL    HW129909   2.392   1.573   7.322  0.0532 -1.8548 -0.2243
 8408SOL    HW229910   2.385   1.520   7.464 -0.9459  0.4402  0.6285
 8409SOL     OW29911   6.020  11.011   7.811 -0.2855 -0.1813  0.5670
 8409SOL    HW129912   6.074  10.939   7.844  0.6405  1.1418  2.1066
 8409SOL    HW229913   6.082  11.081   7.791 -0.9412 -0.3935 -2.8952
 8410SOL     OW29914  10.197   6.619   1.166 -0.3428  0.4958 -0.0704
 8410SOL    HW129915  10.134   6.671   1.216 -0.4520 -0.2571  0.5892
 8410SOL    HW229916  10.266   6.597   1.229 -2.2174 -3.5505  0.8863
 8411SOL     OW29917  10.899   0.688  10.832 -0.0854 -0.0736 -0.3073
 8411SOL    HW129918  10.890   0.733  10.916 -0.8224  0.2525 -0.5534
 8411SOL    HW229919  10.982   0.718  10.797 -0.7377  1.4137 -0.6409
 8412SOL     OW29920   0.186   0.730  11.918 -0.0711 -0.2117 -0.3464
 8412SOL    HW129921   0.144   0.699  11.999  0.8601  2.2185  1.1891
 8412SOL    HW229922   0.113   0.762  11.865 -0.7719 -2.4769 -0.8804
 8413SOL     OW29923   0.834   9.926  10.011 -0.2841  0.3460  0.3037
 8413SOL    HW129924   0.875   9.845   9.981 -0.8324  0.1467  0.0958
 8413SOL    HW229925   0.905   9.973  10.056 -0.2301 -0.7291  1.3884
 8414SOL     OW29926   7.830   4.680   7.925 -0.7685 -0.6052 -0.0239
 8414SOL    HW129927   7.839   4.741   7.852  1.0969 -1.1045 -0.2721
 8414SOL    HW229928   7.758   4.715   7.977  0.4704  2.0776  0.0663
 8415SOL     OW29929   5.008   7.574   4.514 -0.7675  0.3093  0.2190
 8415SOL    HW129930   4.978   7.607   4.599  0.4986  1.7241  0.1521
 8415SOL    HW229931   5.094   7.613   4.502 -0.3525 -0.9409 -1.1282
 8416SOL     OW29932   3.838   0.494  11.832  0.0262 -0.1630 -0.1432
 8416SOL    HW129933   3.854   0.454  11.746 -0.9849  1.1866 -0.9944
 8416SOL    HW229934   3.830   0.587  11.814 -0.1661  0.1552  1.4454
 8417SOL     OW29935   2.846   9.600   3.558 -0.4646  0.2170 -0.1476
 8417SOL    HW129936   2.829   9.604   3.464 -4.3140  0.3304  0.4000
 8417SOL    HW229937   2.768   9.638   3.599  1.0380  0.1450  3.1337
 8418SOL     OW29938   7.183   0.192   3.363 -0.4679  0.1105 -0.4174
 8418SOL    HW129939   7.160   0.208   3.272 -0.2828 -0.4970 -0.5713
 8418SOL    HW229940   7.109   0.226   3.413  0.5154  2.8788 -0.6286
 8419SOL     OW29941   5.335   4.751   0.128 -0.0789  0.3620  0.2562
 8419SOL    HW129942   5.366   4.826   0.179 -0.6547  0.5783  0.2904
 8419SOL    HW229943   5.334   4.678   0.190  2.0090 -0.0903 -0.1338
 8420SOL     OW29944  10.257   7.422   1.578 -0.4688 -0.1290 -0.6934
 8420SOL    HW129945  10.302   7.347   1.538  1.3570  0.3239  0.3616
 8420SOL    HW229946  10.207   7.383   1.650  2.4408 -0.2316  1.4791
 8421SOL     OW29947  10.776   2.252   6.748 -0.5495  0.2422 -0.0993
 8421SOL    HW129948  10.782   2.280   6.840 -0.5412  0.4238 -0.1553
 8421SOL    HW229949  10.795   2.331   6.698  0.3978 -0.0762 -0.2567
 8422SOL     OW29950  10.103   9.618   2.104 -0.1822 -0.2016 -0.1684
 8422SOL    HW129951  10.024   9.565   2.111  1.0392 -1.9710  1.0042
 8422SOL    HW229952  10.151   9.580   2.031 -0.4450  0.9679 -0.9789
 8423SOL     OW29953   3.094   8.325   0.382 -0.0252 -0.0773  0.1902
 8423SOL    HW129954   3.100   8.367   0.468  0.0352 -1.1539  0.7248
 8423SOL    HW229955   3.158   8.255   0.385 -1.3753 -1.3692 -0.0093
 8424SOL     OW29956   0.228   5.617   4.908 -0.4354 -0.1059  0.4278
 8424SOL    HW129957   0.298   5.568   4.865 -0.2326  0.8380 -0.3537
 8424SOL    HW229958   0.253   5.709   4.896 -0.9421  0.2044  1.6129
 8425SOL     OW29959   0.312   9.100  11.410  0.3513  0.1431 -0.3820
 8425SOL    HW129960   0.281   9.010  11.415 -1.2464  0.7186  0.5316
 8425SOL    HW229961   0.346   9.108  11.320 -2.4819 -0.4600 -1.6119
 8426SOL     OW29962   4.856   2.806   1.078 -0.5833 -0.1272 -0.1490
 8426SOL    HW129963   4.812   2.722   1.062  0.0648 -0.3392 -0.9023
 8426SOL    HW229964   4.908   2.791   1.157  1.2737 -1.1731 -1.5011
 8427SOL     OW29965   8.289   5.075   1.131 -0.0205  0.0182  0.2298
 8427SOL    HW129966   8.315   4.990   1.096  1.9537  0.4609  0.4682
 8427SOL    HW229967   8.205   5.060   1.173 -0.9036 -1.2497 -1.8404
 8428SOL     OW29968   0.226   9.838   4.702 -0.5201  0.6114  0.2481
 8428SOL    HW129969   0.211   9.743   4.708 -1.2734  0.6384 -0.9912
 8428SOL    HW229970   0.202   9.871   4.789 -0.3277 -0.3181  0.6722
 8429SOL     OW29971   7.522  11.637  11.328 -0.0124  0.5021  0.6434
 8429SOL    HW129972   7.454  11.600  11.272  1.2726 -0.5509 -0.2809
 8429SOL    HW229973   7.544  11.721  11.286 -0.2215  0.5013  0.5307
 8430SOL     OW29974   9.026   0.915   0.823  0.4954 -0.7747 -0.0557
 8430SOL    HW129975   9.070   0.889   0.742  1.5160 -1.0487  0.5609
 8430SOL    HW229976   9.079   0.876   0.893 -1.0181 -1.5111  0.7248
 8431SOL     OW29977   5.042   2.055   7.023  0.0691 -0.0494  0.2008
 8431SOL    HW129978   4.993   2.104   6.957 -1.7817  0.6820  2.0166
 8431SOL    HW229979   5.013   2.092   7.106  0.3141 -2.6891  1.5606
 8432SOL     OW29980   9.297   4.482   2.663 -0.0130  0.1830  0.0443
 8432SOL    HW129981   9.282   4.440   2.748  0.6416 -1.6276 -0.6841
 8432SOL    HW229982   9.267   4.417   2.599 -1.8355  2.0690 -1.1247
 8433SOL     OW29983   5.448   9.607   8.526  0.0254 -0.2232 -0.4291
 8433SOL    HW129984   5.359   9.627   8.555 -0.6045 -2.6765 -0.4659
 8433SOL    HW229985   5.440   9.524   8.479  2.3938 -0.7394 -0.0456
 8434SOL     OW29986   7.385  10.123   1.285  0.4261  0.0153  0.7210
 8434SOL    HW129987   7.318  10.191   1.276 -0.0411 -0.5363 -0.0508
 8434SOL    HW229988   7.424  10.116   1.198 -0.7701 -1.9491  0.2760
 8435SOL     OW29989   9.347   8.269   4.996 -0.1444 -0.3692 -0.3537
 8435SOL    HW129990   9.376   8.230   4.913  1.5884  0.9265 -0.4165
 8435SOL    HW229991   9.261   8.305   4.977  0.2612 -0.0168 -1.6293
 8436SOL     OW29992  10.117   4.597   2.376 -0.6463 -0.4050 -0.3238
 8436SOL    HW129993  10.186   4.581   2.311  2.0662 -1.1571  2.4765
 8436SOL    HW229994  10.059   4.521   2.369  1.0248 -1.7444 -0.2788
 8437SOL     OW29995   2.937   1.700   1.831 -0.0833  0.0056  0.1170
 8437SOL    HW129996   2.879   1.668   1.762 -1.6894  0.0017  1.4009
 8437SOL    HW229997   2.991   1.766   1.788 -1.0926  0.0606 -1.1335
 8438SOL     OW29998   6.256   1.957   8.680 -0.0030 -0.2208 -0.0048
 8438SOL    HW129999   6.241   2.014   8.756 -2.2326 -0.7487  0.0171
 8438SOL    HW230000   6.279   2.017   8.610  1.5918  0.3215  0.9385
 8439SOL     OW30001   1.339   3.154   9.722 -0.2734 -0.3047 -0.7336
 8439SOL    HW130002   1.412   3.194   9.770 -0.0010 -1.7464  0.1074
 8439SOL    HW230003   1.336   3.202   9.639  0.6217  0.8160 -0.1499
 8440SOL     OW30004  11.247   3.069  11.470 -0.7431 -0.7438  0.4728
 8440SOL    HW130005  11.261   2.977  11.492 -1.0376 -0.9732 -0.2756
 8440SOL    HW230006  11.168   3.069  11.416  0.8767 -0.4544 -2.0656
 8441SOL     OW30007   1.532   6.510   7.882  0.3250  0.6363  0.6398
 8441SOL    HW130008   1.441   6.526   7.858 -0.0401 -0.1151  1.4423
 8441SOL    HW230009   1.570   6.466   7.806 -0.2449  0.1205  0.6473
 8442SOL     OW30010   6.541   4.859   3.067  0.0863  0.4626  0.6212
 8442SOL    HW130011   6.558   4.776   3.024  1.3873  0.8033  0.4270
 8442SOL    HW230012   6.627   4.891   3.094 -0.6264  0.3564  3.3569
 8443SOL     OW30013   4.905   7.189   5.576  0.2566  0.6482 -0.4961
 8443SOL    HW130014   4.891   7.220   5.486  2.0188 -0.0875 -1.0678
 8443SOL    HW230015   4.907   7.268   5.629  0.8825  1.2299 -1.3666
 8444SOL     OW30016   9.251   6.972   7.216  0.3714  0.1649 -0.7010
 8444SOL    HW130017   9.201   6.979   7.134  1.1587 -1.2026 -1.3350
 8444SOL    HW230018   9.200   6.912   7.270 -0.9269  2.2335  0.4549
 8445SOL     OW30019   5.658   4.553   5.606  0.4453  0.1003  0.5989
 8445SOL    HW130020   5.656   4.591   5.694  2.0214 -0.1841  0.7919
 8445SOL    HW230021   5.575   4.579   5.566 -0.5004 -0.1389  2.3237
 8446SOL     OW30022   5.171   4.619   9.278 -0.1282 -0.0457 -0.5320
 8446SOL    HW130023   5.083   4.657   9.279 -0.3684 -0.5535 -1.1078
 8446SOL    HW230024   5.222   4.678   9.223 -0.4034 -0.3318 -1.1117
 8447SOL     OW30025   7.564   1.871   9.438  0.0053 -0.0500  0.2345
 8447SOL    HW130026   7.481   1.883   9.484  0.8803  2.4178  1.3642
 8447SOL    HW230027   7.544   1.887   9.346 -0.6086  1.7748  0.6461
 8448SOL     OW30028   4.572  11.537  10.506 -0.4789  0.3184 -0.1299
 8448SOL    HW130029   4.563  11.620  10.552  1.9418 -0.5945  2.2380
 8448SOL    HW230030   4.515  11.476  10.553  0.2184 -0.0668  0.2469
 8449SOL     OW30031   0.849   1.772   2.778 -0.0498  0.0767 -0.3385
 8449SOL    HW130032   0.940   1.742   2.782 -0.0128  0.1410 -0.6442
 8449SOL    HW230033   0.847   1.832   2.703 -0.5012 -0.4562 -0.7614
 8450SOL     OW30034   3.052   0.664   7.395  0.7512  0.1078  0.0574
 8450SOL    HW130035   3.016   0.645   7.481  1.9000 -1.2335  0.2876
 8450SOL    HW230036   3.098   0.747   7.405  0.5434  0.1556  0.6262
 8451SOL     OW30037   9.329   6.069   9.066  0.2336  0.2823 -0.0223
 8451SOL    HW130038   9.391   6.008   9.025  0.3555 -0.2840  0.9862
 8451SOL    HW230039   9.244   6.026   9.057  0.2644  0.1462  0.3456
 8452SOL     OW30040   8.749  10.165  10.024  0.6428 -1.0244  0.2166
 8452SOL    HW130041   8.800  10.084  10.027 -1.1915 -2.2352  0.1098
 8452SOL    HW230042   8.773  10.212  10.103  3.6204 -0.4273 -0.9094
 8453SOL     OW30043   6.124  10.104  10.344  0.3894 -0.0620  0.3669
 8453SOL    HW130044   6.203  10.062  10.310  1.6528  0.9731  1.8797
 8453SOL    HW230045   6.055  10.076  10.284  1.9124 -0.8715 -1.1140
 8454SOL     OW30046   8.875  11.011   6.576 -0.1412  0.5503  0.4947
 8454SOL    HW130047   8.929  10.972   6.645 -0.7709 -0.0090  0.6851
 8454SOL    HW230048   8.882  10.950   6.503 -0.4378  0.5199  0.4905
 8455SOL     OW30049   9.727  11.863   5.915  0.1480  0.2600  0.4800
 8455SOL    HW130050   9.690  11.790   5.964 -0.2151 -0.2006 -0.4575
 8455SOL    HW230051   9.798  11.895   5.971 -0.0507 -0.4421  1.1635
 8456SOL     OW30052   1.488   0.133   9.542 -0.5158 -0.3531  0.2385
 8456SOL    HW130053   1.506   0.226   9.534 -1.0353 -0.3446 -1.2098
 8456SOL    HW230054   1.415   0.118   9.481  1.3720 -2.1922 -1.7311
 8457SOL     OW30055  10.686   2.635   2.640 -0.1128 -0.0265 -0.2219
 8457SOL    HW130056  10.705   2.558   2.587 -1.9153 -1.6025  1.2555
 8457SOL    HW230057  10.759   2.641   2.701 -0.3217 -1.1092  0.1663
 8458SOL     OW30058   9.066   7.965   0.099 -0.9898 -0.2334  0.2898
 8458SOL    HW130059   9.047   7.933   0.011  1.6965 -1.1625 -0.0648
 8458SOL    HW230060   9.012   7.912   0.157 -0.0103 -2.3124 -0.6084
 8459SOL     OW30061   3.547   7.503   3.543  0.2388  0.1191  0.3352
 8459SOL    HW130062   3.558   7.480   3.451  0.1803  1.5032 -0.0383
 8459SOL    HW230063   3.531   7.419   3.587  1.8930 -0.7831 -0.6550
 8460SOL     OW30064   0.267   6.487   5.733  0.4122  0.4474 -0.4444
 8460SOL    HW130065   0.252   6.393   5.744  1.7377  0.3509  0.7031
 8460SOL    HW230066   0.289   6.518   5.820  0.4029  1.7622 -0.8977
 8461SOL     OW30067  11.918  11.679   6.473  0.2288  0.1984  0.6037
 8461SOL    HW130068  12.002  11.650   6.508  0.7273  1.3877  0.4717
 8461SOL    HW230069  11.893  11.752   6.530  0.0268  0.8089 -0.2436
 8462SOL     OW30070   5.074   8.022   3.027  0.3975 -0.2133 -0.0009
 8462SOL    HW130071   5.163   7.996   3.049  0.8234  0.1858 -1.1672
 8462SOL    HW230072   5.024   8.008   3.107  1.3491 -1.1672  0.4465
 8463SOL     OW30073  10.703   9.053  10.244  0.1068 -0.1441  0.4409
 8463SOL    HW130074  10.760   9.059  10.168  0.1616  0.1862  0.5086
 8463SOL    HW230075  10.664   8.966  10.238  0.3654 -0.2447  0.2162
 8464SOL     OW30076   7.664   5.174   8.209 -0.3966  0.1217  0.0642
 8464SOL    HW130077   7.613   5.149   8.131 -2.0791 -0.7557  1.3781
 8464SOL    HW230078   7.677   5.268   8.199 -1.3124  0.1727 -0.8849
 8465SOL     OW30079   5.523  10.337   4.393  0.4332  0.2360  0.1563
 8465SOL    HW130080   5.504  10.401   4.462 -1.6497  1.3540 -1.3626
 8465SOL    HW230081   5.561  10.388   4.322 -0.3508 -0.3466 -0.7094
 8466SOL     OW30082   5.394   0.401   3.847 -0.0561  0.4786 -0.5825
 8466SOL    HW130083   5.368   0.479   3.798  2.2565  1.4355 -0.4209
 8466SOL    HW230084   5.483   0.382   3.817  0.9688  0.3460  2.2204
 8467SOL     OW30085  11.946   6.727  10.557  0.2110 -0.2962 -0.3603
 8467SOL    HW130086  11.975   6.657  10.498  1.6314 -0.7496  0.8200
 8467SOL    HW230087  12.013   6.795  10.547  1.5206 -1.1367  2.0316
 8468SOL     OW30088   5.436  10.077   9.644  0.6654 -0.2590  0.2514
 8468SOL    HW130089   5.458  10.165   9.615  0.1468  0.2347  1.3013
 8468SOL    HW230090   5.519  10.039   9.672  0.7504  0.2414  0.6858
 8469SOL     OW30091   6.240   4.016  10.161  0.4590 -0.0564 -0.2066
 8469SOL    HW130092   6.158   4.052  10.197  0.0900 -1.7847  0.8069
 8469SOL    HW230093   6.234   4.033  10.067 -1.3841 -0.7136 -0.2441
 8470SOL     OW30094   0.943   6.490   5.224  0.3097 -0.3019  0.1570
 8470SOL    HW130095   0.901   6.472   5.308 -0.4562 -0.3519 -0.2259
 8470SOL    HW230096   1.036   6.477   5.240  0.1410 -0.5997  0.9226
 8471SOL     OW30097   5.492   2.082   0.144 -0.6529 -0.3360 -0.1915
 8471SOL    HW130098   5.403   2.050   0.127 -1.1798 -0.5119  2.4384
 8471SOL    HW230099   5.546   2.002   0.146 -0.2931 -0.2080 -2.0775
 8472SOL     OW30100   3.772   7.764   5.147  1.0073  0.2185  0.2282
 8472SOL    HW130101   3.788   7.709   5.224  0.2626 -0.7644 -0.3024
 8472SOL    HW230102   3.824   7.724   5.078 -0.1620 -0.3165 -0.3662
 8473SOL     OW30103   7.072   3.367   9.851  0.5773  0.1046 -0.5775
 8473SOL    HW130104   7.097   3.453   9.817 -1.4376  1.2131  0.5780
 8473SOL    HW230105   7.082   3.375   9.946  2.9559 -1.8704 -0.5606
 8474SOL     OW30106   6.359   8.308  11.467 -0.1666  0.3828 -0.7781
 8474SOL    HW130107   6.320   8.341  11.548 -2.5355 -0.0058 -1.6732
 8474SOL    HW230108   6.397   8.384  11.425  0.7887  0.6488  0.5015
 8475SOL     OW30109   4.082   1.754   3.881  0.4328  0.3147  0.2079
 8475SOL    HW130110   4.142   1.734   3.952  1.9206  2.5129 -0.3424
 8475SOL    HW230111   4.138   1.785   3.810 -1.1383 -0.2854 -1.3757
 8476SOL     OW30112   0.680   6.692   8.030 -0.0480 -0.5610  0.3465
 8476SOL    HW130113   0.634   6.709   8.112  0.6075 -2.2766  1.1090
 8476SOL    HW230114   0.611   6.675   7.966 -0.5344 -0.1634  0.7624
 8477SOL     OW30115  11.373   9.812   8.928 -0.0556  0.1145  0.2441
 8477SOL    HW130116  11.316   9.859   8.867  1.9436  1.5239 -0.6425
 8477SOL    HW230117  11.314   9.751   8.972 -2.1023  0.9504 -1.1286
 8478SOL     OW30118   0.862   9.175   5.024  0.6444  0.6166  0.1947
 8478SOL    HW130119   0.851   9.264   5.057  1.1004 -0.1481  2.5641
 8478SOL    HW230120   0.822   9.119   5.091  1.4848 -1.0268 -0.6174
 8479SOL     OW30121  10.013   5.608  11.899 -0.3397  0.3974 -0.8451
 8479SOL    HW130122  10.073   5.554  11.951  0.5858  1.6635 -0.5411
 8479SOL    HW230123   9.991   5.555  11.823 -1.6860 -1.4997  0.7772
 8480SOL     OW30124   3.566  11.655   3.040 -0.0001  0.7367  0.3631
 8480SOL    HW130125   3.647  11.686   3.000 -0.0145  0.5852  0.2154
 8480SOL    HW230126   3.498  11.672   2.975  0.1067 -0.3068 -0.0435
 8481SOL     OW30127  10.980   8.400   1.610  0.1842 -0.2989 -1.0811
 8481SOL    HW130128  10.911   8.334   1.598  0.4372 -1.0252  1.0661
 8481SOL    HW230129  10.952   8.474   1.556 -1.0044 -1.4998 -2.1767
 8482SOL     OW30130   6.430   5.275   2.483  0.2968  0.2586 -0.4547
 8482SOL    HW130131   6.489   5.335   2.529 -0.0240  0.2859 -0.0677
 8482SOL    HW230132   6.439   5.192   2.530  0.3806  0.1357 -0.6880
 8483SOL     OW30133  11.189   6.476   4.825  0.2422  0.1032  0.0348
 8483SOL    HW130134  11.155   6.491   4.914  0.8654 -0.3280  0.3595
 8483SOL    HW230135  11.243   6.553   4.807  1.2303 -0.4282  0.6000
 8484SOL     OW30136   6.981   0.506  10.459 -0.1526  0.8216  0.5967
 8484SOL    HW130137   7.032   0.427  10.477  0.5559  1.2989  0.7443
 8484SOL    HW230138   6.893   0.485  10.490 -0.1693 -0.1821 -0.0761
 8485SOL     OW30139   9.308   4.407   6.215  0.3536 -0.3273 -0.1566
 8485SOL    HW130140   9.376   4.361   6.166 -0.2528 -0.8365 -0.5314
 8485SOL    HW230141   9.231   4.350   6.209 -0.0285  0.1055  0.4995
 8486SOL     OW30142   8.607   1.690  10.704  0.4392 -0.0005  0.4089
 8486SOL    HW130143   8.529   1.684  10.759  1.0761  1.2198  1.5117
 8486SOL    HW230144   8.673   1.637  10.750  0.5234 -0.2958 -0.0434
 8487SOL     OW30145   1.338   7.081   4.213 -0.2220 -0.2233 -0.1517
 8487SOL    HW130146   1.296   7.165   4.233  0.3171 -0.3162  1.5497
 8487SOL    HW230147   1.357   7.085   4.119  0.6122  1.9554  0.0622
 8488SOL     OW30148   6.926   3.694   6.601 -0.5161 -0.2131 -0.1026
 8488SOL    HW130149   6.949   3.622   6.659 -0.1777 -0.3562 -0.4038
 8488SOL    HW230150   7.003   3.751   6.601 -1.3554  0.9929  1.3589
 8489SOL     OW30151   2.239   9.928  10.818 -0.4784 -0.0474  0.1326
 8489SOL    HW130152   2.316   9.876  10.842 -1.3955 -2.0574 -1.0005
 8489SOL    HW230153   2.226   9.910  10.725 -1.6208  1.2215  0.0142
 8490SOL     OW30154   0.928   8.583   5.024  0.1960 -0.2762 -0.2826
 8490SOL    HW130155   0.996   8.589   5.091 -0.3050  1.0058  0.1598
 8490SOL    HW230156   0.974   8.553   4.946  0.9351 -1.0780  0.4435
 8491SOL     OW30157   2.434   3.208   2.709 -0.3335 -0.3274 -0.0966
 8491SOL    HW130158   2.411   3.291   2.751  1.5857  0.8710 -1.2838
 8491SOL    HW230159   2.465   3.153   2.781 -1.4232  0.0212  0.6707
 8492SOL     OW30160   0.654   2.374   2.612  0.5952  0.0234  0.3195
 8492SOL    HW130161   0.592   2.311   2.647  1.3791 -1.1834 -0.3878
 8492SOL    HW230162   0.600   2.434   2.560 -0.1757  0.0356  1.1110
 8493SOL     OW30163  11.462   6.381   0.662 -0.1738 -0.1103  0.5927
 8493SOL    HW130164  11.468   6.311   0.727 -1.3143 -2.6214 -1.8195
 8493SOL    HW230165  11.520   6.353   0.591 -1.8181  0.5557 -1.0971
 8494SOL     OW30166  11.093   1.228   8.796  0.7292 -0.0348  0.1391
 8494SOL    HW130167  11.096   1.132   8.799 -1.0813 -0.1108  0.5563
 8494SOL    HW230168  11.185   1.254   8.793  1.2654 -1.7775  0.0792
 8495SOL     OW30169   4.189   6.757  11.025 -0.0778  0.2559 -0.1729
 8495SOL    HW130170   4.266   6.740  11.079  0.4353  0.9874 -0.6674
 8495SOL    HW230171   4.117   6.761  11.088 -0.1518 -2.7971  0.1188
 8496SOL     OW30172   3.315   8.786   4.459 -0.3137  0.2065 -0.2437
 8496SOL    HW130173   3.244   8.827   4.410  0.3108 -1.9230 -3.2155
 8496SOL    HW230174   3.393   8.803   4.406  0.4953 -1.8424  0.1925
 8497SOL     OW30175  10.018  11.956   0.174  0.3914 -0.1562 -0.1720
 8497SOL    HW130176   9.936  11.987   0.212  0.0364 -1.1873 -0.0933
 8497SOL    HW230177  10.082  11.964   0.245  1.0777  3.2804 -0.9606
 8498SOL     OW30178   2.811  10.113   7.009  0.2459 -0.4282 -0.2692
 8498SOL    HW130179   2.872  10.084   6.942 -0.0684 -1.1176 -0.2741
 8498SOL    HW230180   2.827  10.053   7.083  0.6003  0.3289  0.2814
 8499SOL     OW30181   7.185  11.499   2.669 -0.1583 -0.1124  0.4284
 8499SOL    HW130182   7.176  11.518   2.762  2.0696 -1.3943  0.9686
 8499SOL    HW230183   7.119  11.432   2.652 -0.9837  0.5516  0.9087
 8500SOL     OW30184  10.430   0.490  10.918  0.1465  1.0969  0.3272
 8500SOL    HW130185  10.509   0.526  10.878  1.3069 -0.6062  0.9771
 8500SOL    HW230186  10.426   0.400  10.886 -1.9489  1.3366 -0.2501
 8501SOL     OW30187   4.049   3.643   9.617 -0.4795  0.2388 -0.3027
 8501SOL    HW130188   4.030   3.668   9.526  2.2860 -1.7060 -1.5722
 8501SOL    HW230189   3.966   3.610   9.651 -1.6271  1.1620 -2.0588
 8502SOL     OW30190   1.956   2.296  10.090  0.4693  0.5748 -0.1051
 8502SOL    HW130191   1.863   2.288  10.071  0.4367  0.9622 -0.1279
 8502SOL    HW230192   1.991   2.208  10.079 -0.0545  0.2431  0.7920
 8503SOL     OW30193   9.303   7.705  10.527 -0.1868 -0.4891  0.1774
 8503SOL    HW130194   9.223   7.697  10.579 -0.3202 -2.6509 -0.2500
 8503SOL    HW230195   9.290   7.784  10.475 -1.7282 -0.3970  0.6532
 8504SOL     OW30196   8.160  10.966   0.234  0.0927 -0.2658  1.0641
 8504SOL    HW130197   8.188  10.891   0.286  1.7169 -0.2006  0.3386
 8504SOL    HW230198   8.240  11.017   0.221 -0.7471  0.9434  0.4953
 8505SOL     OW30199   3.954   4.269   1.465  0.2268 -0.4678  0.3953
 8505SOL    HW130200   3.964   4.179   1.431  0.7171  0.2456 -1.5124
 8505SOL    HW230201   4.042   4.292   1.496  0.5353 -0.0909 -0.6958
 8506SOL     OW30202   6.943   7.832   6.194 -0.0993  0.1279 -0.3096
 8506SOL    HW130203   6.850   7.841   6.173  0.1628  2.3889 -0.8362
 8506SOL    HW230204   6.958   7.898   6.262  1.1360 -0.1836 -0.2589
 8507SOL     OW30205   9.209  10.856   9.155  0.2444 -0.3750  0.3629
 8507SOL    HW130206   9.131  10.802   9.143 -0.5657  0.8996 -0.2890
 8507SOL    HW230207   9.176  10.946   9.155  1.6596  0.1677  0.5914
 8508SOL     OW30208  10.551  11.435   9.800 -0.2610  1.2496 -0.1175
 8508SOL    HW130209  10.597  11.361   9.761  0.6918  0.9002  1.5677
 8508SOL    HW230210  10.516  11.484   9.725  2.7859  1.5091 -1.5133
 8509SOL     OW30211  10.955   7.799   0.413 -0.7248  0.2982  0.2427
 8509SOL    HW130212  10.861   7.787   0.407 -0.8724  0.2491  2.0779
 8509SOL    HW230213  10.989   7.769   0.329 -2.4633  1.9710 -1.1354
 8510SOL     OW30214  10.055   8.821   0.693  0.3423  0.6707 -0.4664
 8510SOL    HW130215  10.057   8.757   0.623  0.1856  1.0254 -0.7999
 8510SOL    HW230216  10.103   8.896   0.658 -0.4728  1.1766 -0.5208
 8511SOL     OW30217   4.738   4.274   3.820 -0.6210  0.1363  0.0086
 8511SOL    HW130218   4.797   4.319   3.880  0.2245  1.8985 -2.0269
 8511SOL    HW230219   4.663   4.249   3.875  0.0413  1.7734  1.7593
 8512SOL     OW30220   9.108   8.817   8.790 -0.6496  0.4758 -0.0342
 8512SOL    HW130221   9.107   8.723   8.806  0.1698  0.3207 -0.7938
 8512SOL    HW230222   9.167   8.852   8.857 -0.9902  0.4542  0.2763
 8513SOL     OW30223   3.747   6.324   2.398  0.4586 -0.0929 -0.1534
 8513SOL    HW130224   3.802   6.254   2.434  0.1823  0.5323  1.6104
 8513SOL    HW230225   3.808   6.393   2.374  0.5927 -0.1029  0.1472
 8514SOL     OW30226  11.147   4.138   5.273 -0.3185  0.0630 -0.3803
 8514SOL    HW130227  11.211   4.071   5.247  1.1150  0.8649  0.9034
 8514SOL    HW230228  11.180   4.219   5.234 -2.3849 -0.0088 -2.4548
 8515SOL     OW30229   8.499  11.494   3.890 -0.0724 -0.3400  0.4491
 8515SOL    HW130230   8.563  11.424   3.903  0.3061 -0.1136 -0.1744
 8515SOL    HW230231   8.438  11.459   3.825 -1.4345 -1.1121  2.0665
 8516SOL     OW30232   4.654   1.328  10.878 -0.0406  0.4758  0.3086
 8516SOL    HW130233   4.741   1.365  10.866  0.2598 -0.5885 -0.9659
 8516SOL    HW230234   4.659   1.280  10.960  1.0339 -0.8010 -0.4794
 8517SOL     OW30235   6.612   2.161   1.248 -0.2220  0.4898  0.2883
 8517SOL    HW130236   6.592   2.075   1.285  0.9811  0.6689  1.4048
 8517SOL    HW230237   6.707   2.162   1.237 -0.3171  1.3185 -0.6707
 8518SOL     OW30238   3.260   1.352   0.406  0.6399 -0.0320 -0.4043
 8518SOL    HW130239   3.205   1.425   0.435 -0.7206 -1.1666  0.0421
 8518SOL    HW230240   3.349   1.378   0.428 -0.0901  0.0901  3.0191
 8519SOL     OW30241   1.213   2.816   8.346 -0.2927 -0.1311  0.2730
 8519SOL    HW130242   1.200   2.722   8.349  1.9124 -0.5009 -0.0255
 8519SOL    HW230243   1.241   2.840   8.434 -2.5794  0.6091  0.8743
 8520SOL     OW30244   3.962   8.060   2.035 -0.0587  0.0510 -0.9386
 8520SOL    HW130245   4.005   8.115   1.969  1.0850 -0.1276 -0.3830
 8520SOL    HW230246   3.925   8.122   2.098  4.5157  0.4781  1.8410
 8521SOL     OW30247   6.790   0.515   7.648  0.0553 -0.3698 -0.3135
 8521SOL    HW130248   6.805   0.487   7.738 -0.1851  0.1316 -0.1131
 8521SOL    HW230249   6.731   0.591   7.656 -1.0751 -1.1536 -0.9572
 8522SOL     OW30250  11.622   6.661   9.309 -0.9264  0.3264  0.3760
 8522SOL    HW130251  11.618   6.735   9.369  3.0200  1.7355 -0.8426
 8522SOL    HW230252  11.613   6.700   9.222 -2.0137 -1.1257 -0.2147
 8523SOL     OW30253   3.194  11.992   8.425 -0.1805 -0.4352  0.1835
 8523SOL    HW130254   3.203  11.977   8.331 -1.4956 -0.3881  0.0401
 8523SOL    HW230255   3.263  11.939   8.464 -0.7491 -1.8611 -0.6969
 8524SOL     OW30256   7.901   1.265   7.109 -0.3849 -0.0163  0.3257
 8524SOL    HW130257   7.969   1.317   7.067 -0.0651 -0.0110  0.8446
 8524SOL    HW230258   7.833   1.256   7.042 -0.2307  0.6569  0.0733
 8525SOL     OW30259  10.579  10.796   5.549  0.2263 -0.6413  0.2945
 8525SOL    HW130260  10.662  10.843   5.558 -0.5945  1.0835 -0.5111
 8525SOL    HW230261  10.528  10.824   5.625 -0.5463  0.4518 -0.5860
 8526SOL     OW30262   6.380   9.342   9.497  0.3084 -0.0176 -0.0033
 8526SOL    HW130263   6.356   9.363   9.407  0.0598  0.7121  0.2232
 8526SOL    HW230264   6.450   9.404   9.519  0.7910 -0.5939  0.1094
 8527SOL     OW30265   2.405   6.852   0.430  0.1942 -0.5846  0.2428
 8527SOL    HW130266   2.326   6.871   0.379  1.6663  2.3215 -1.1476
 8527SOL    HW230267   2.412   6.756   0.427 -2.2086 -0.8117 -1.1634
 8528SOL     OW30268   8.744   0.549  10.156 -0.0583  0.2683 -0.0412
 8528SOL    HW130269   8.770   0.624  10.102  2.3052 -0.8408 -0.6052
 8528SOL    HW230270   8.674   0.506  10.106 -0.8958  1.6387 -0.0804
 8529SOL     OW30271   4.836   8.893   4.326 -0.6714  0.0873 -0.0192
 8529SOL    HW130272   4.916   8.855   4.290  1.4578  1.3810  2.8359
 8529SOL    HW230273   4.804   8.952   4.258  0.5216 -0.8363 -1.4310
 8530SOL     OW30274  10.059  11.230   3.705 -0.0539 -0.2373  0.7436
 8530SOL    HW130275  10.116  11.293   3.660  1.6528 -1.9888  0.3380
 8530SOL    HW230276  10.062  11.256   3.797  0.5051  0.3502  0.5641
 8531SOL     OW30277   8.478   0.994   4.400 -0.0841 -0.3356  0.3803
 8531SOL    HW130278   8.505   0.928   4.335 -0.8755  0.1309 -0.4382
 8531SOL    HW230279   8.490   0.950   4.484 -0.4096 -1.4766 -0.1431
 8532SOL     OW30280   6.504   8.462   8.094  0.3948  0.6171 -0.5369
 8532SOL    HW130281   6.553   8.519   8.035 -0.5628 -0.1135 -2.0903
 8532SOL    HW230282   6.570   8.403   8.130  0.9253  0.7900 -1.2096
 8533SOL     OW30283   4.130   4.406   6.276  0.3997 -1.2519 -0.1954
 8533SOL    HW130284   4.142   4.315   6.303  1.9851 -0.5813  1.5362
 8533SOL    HW230285   4.040   4.410   6.243 -0.0234 -3.2077  0.6177
 8534SOL     OW30286   9.957  10.421   8.396  0.6657 -0.3492  0.5501
 8534SOL    HW130287   9.940  10.329   8.379  1.1909 -0.5649  1.1528
 8534SOL    HW230288  10.046  10.423   8.433  2.2529  0.7419 -2.8460
 8535SOL     OW30289   5.016   8.525  11.595 -0.3263  0.3358  0.0237
 8535SOL    HW130290   5.060   8.559  11.673 -0.5707 -1.0644  0.8083
 8535SOL    HW230291   4.935   8.486  11.628 -1.6954  1.9565 -1.2755
 8536SOL     OW30292   0.694   9.107   4.802 -0.2606 -0.2991  0.0297
 8536SOL    HW130293   0.630   9.035   4.808  0.8906 -1.4118 -0.6006
 8536SOL    HW230294   0.732   9.113   4.890 -1.5471  0.7155  0.5549
 8537SOL     OW30295   7.852   2.432  10.043 -0.5947 -0.3440  0.0668
 8537SOL    HW130296   7.775   2.376  10.057  0.1172 -1.5889 -0.8327
 8537SOL    HW230297   7.819   2.505   9.990 -1.3241 -0.3813  0.4438
 8538SOL     OW30298   3.688   1.549   1.870 -0.3675 -0.3300 -0.3145
 8538SOL    HW130299   3.753   1.527   1.937  0.0268 -0.4074 -0.7133
 8538SOL    HW230300   3.697   1.644   1.859  0.1328 -0.4238 -0.8148
 8539SOL     OW30301   0.650   3.268   2.611  0.2500 -0.3917 -0.4749
 8539SOL    HW130302   0.592   3.194   2.625  1.7099 -1.3402  0.9180
 8539SOL    HW230303   0.626   3.331   2.679  1.9727 -1.5621  1.3194
 8540SOL     OW30304   5.466   7.999   3.171  0.3748 -0.2263  0.2166
 8540SOL    HW130305   5.428   8.032   3.090 -0.5170  0.0175  0.7196
 8540SOL    HW230306   5.479   7.905   3.156  0.3547 -0.1528 -0.2536
 8541SOL     OW30307   0.096   6.252   3.385  0.1596 -0.0295  0.6062
 8541SOL    HW130308   0.002   6.255   3.366  0.3366 -0.0842 -0.2969
 8541SOL    HW230309   0.123   6.344   3.389  0.4622  0.0033 -1.2266
 8542SOL     OW30310   5.322  10.061  11.957 -0.4875 -0.5119 -0.0113
 8542SOL    HW130311   5.384  10.035  11.889 -0.1451 -0.4055  0.2512
 8542SOL    HW230312   5.313   9.984  12.012  2.0640  0.4258  1.9187
 8543SOL     OW30313   1.198   0.491   6.997  0.1139  0.5304 -0.0369
 8543SOL    HW130314   1.124   0.476   7.056  0.4892 -0.6751  0.1607
 8543SOL    HW230315   1.164   0.549   6.929 -0.8601  0.3991  0.3287
 8544SOL     OW30316   5.829   5.214  10.854  0.0541  0.2945  0.0455
 8544SOL    HW130317   5.829   5.304  10.820 -0.7907 -0.7848 -3.1209
 8544SOL    HW230318   5.918   5.202  10.887  2.0282  0.7004 -4.4326
 8545SOL     OW30319   9.590   7.064   5.783 -0.2036 -0.3443  0.2964
 8545SOL    HW130320   9.672   7.020   5.804  0.0655  0.1533  0.3148
 8545SOL    HW230321   9.522   7.002   5.809  0.1557 -1.8364 -1.9999
 8546SOL     OW30322   4.638   5.783   8.595  0.0321  0.0068 -0.4713
 8546SOL    HW130323   4.702   5.784   8.666 -1.6141 -1.0370  1.1193
 8546SOL    HW230324   4.670   5.717   8.534  1.1984  0.5384 -0.4522
 8547SOL     OW30325   0.153  11.562   6.564  0.0250  0.5264  0.2452
 8547SOL    HW130326   0.218  11.561   6.634 -0.8832  1.2488  1.1205
 8547SOL    HW230327   0.205  11.561   6.484  1.1069  0.8168  0.9195
 8548SOL     OW30328  11.620   6.760  11.092  0.3999  0.2792 -0.2410
 8548SOL    HW130329  11.572   6.774  11.174  0.5288 -1.4805  0.1948
 8548SOL    HW230330  11.560   6.790  11.024 -1.6817 -2.3726  0.2406
 8549SOL     OW30331   8.117   4.295   0.312 -0.0974 -0.1925  0.4262
 8549SOL    HW130332   8.031   4.254   0.309 -0.0302 -0.2726 -1.1827
 8549SOL    HW230333   8.129   4.333   0.225  1.0169  0.8184  0.9926
 8550SOL     OW30334   3.065  10.211   9.072  0.6883  0.2830  0.3380
 8550SOL    HW130335   3.103  10.234   9.157 -0.9238  2.2434  0.6039
 8550SOL    HW230336   2.973  10.191   9.092 -0.2772  2.7886 -1.0914
 8551SOL     OW30337   6.521   9.220  11.063 -0.7989  0.4200 -0.3633
 8551SOL    HW130338   6.511   9.283  11.135 -0.0007 -0.5700  0.6455
 8551SOL    HW230339   6.515   9.134  11.104  0.3939 -0.1795 -1.3548
 8552SOL     OW30340   0.049   5.707   7.272 -0.2647 -0.3914  0.0278
 8552SOL    HW130341   0.108   5.749   7.334  0.0304 -0.4037 -0.2452
 8552SOL    HW230342  -0.026   5.767   7.267 -0.1962 -0.2860  0.2349
 8553SOL     OW30343   3.569   9.850   6.783  0.5800 -0.8672 -0.1334
 8553SOL    HW130344   3.637   9.790   6.813  1.1802 -0.6678 -1.0803
 8553SOL    HW230345   3.561   9.915   6.854  0.2900 -1.7452  0.6593
 8554SOL     OW30346   4.975   4.371   9.795 -0.3185 -0.5703  0.1035
 8554SOL    HW130347   5.056   4.409   9.830 -0.9679  1.2056 -0.2371
 8554SOL    HW230348   4.934   4.328   9.871  0.4328 -0.6053  0.4990
 8555SOL     OW30349  10.016   1.181   7.522 -0.2815 -0.5989  0.5857
 8555SOL    HW130350   9.960   1.110   7.492 -0.4092  0.1403 -1.0413
 8555SOL    HW230351   9.971   1.261   7.496  0.8467  0.0394  0.4957
 8556SOL     OW30352   1.221  10.791   5.385  0.2816 -0.3117 -0.6757
 8556SOL    HW130353   1.277  10.755   5.316  1.6491 -0.1156  0.2829
 8556SOL    HW230354   1.135  10.753   5.368  0.7345 -0.8071 -2.0728
 8557SOL     OW30355   3.526   9.206   5.171 -0.5694  0.6496  0.5234
 8557SOL    HW130356   3.463   9.177   5.105 -2.2029 -0.2965  2.3663
 8557SOL    HW230357   3.578   9.128   5.191  1.5584  1.5130 -1.2398
 8558SOL     OW30358   0.447   2.614  11.882  0.1437 -0.2613  0.2163
 8558SOL    HW130359   0.411   2.682  11.938  0.3472 -0.2238  0.3043
 8558SOL    HW230360   0.391   2.614  11.805 -1.2156 -1.5110  1.1672
 8559SOL     OW30361   7.352   5.602   9.580  0.3469  0.2455  0.1860
 8559SOL    HW130362   7.364   5.604   9.674 -0.1241 -0.7595  0.2900
 8559SOL    HW230363   7.401   5.524   9.551 -0.6752 -0.2889 -0.1867
 8560SOL     OW30364   4.883   4.950   3.361 -0.7825  0.1967 -0.3028
 8560SOL    HW130365   4.876   4.864   3.402 -1.9482 -0.4915 -1.8503
 8560SOL    HW230366   4.975   4.974   3.371 -0.4264 -1.2458  0.1261
 8561SOL     OW30367  10.595   5.001   5.558 -0.2959  0.1809 -0.4877
 8561SOL    HW130368  10.688   4.978   5.565 -0.2494  0.8356  2.6713
 8561SOL    HW230369  10.550   4.917   5.547  0.5928 -0.1544 -1.9417
 8562SOL     OW30370   6.832   5.447   8.282  0.6407 -0.3549  0.6772
 8562SOL    HW130371   6.826   5.419   8.374 -1.3552 -1.2069  0.3551
 8562SOL    HW230372   6.760   5.509   8.272  1.5171  0.5582 -0.0702
 8563SOL     OW30373   1.860   8.225   5.640  0.2454  0.5092 -0.4548
 8563SOL    HW130374   1.908   8.308   5.650  0.5531  0.3281 -0.4332
 8563SOL    HW230375   1.772   8.252   5.612 -0.6157  1.0697  2.3745
 8564SOL     OW30376  11.427   3.490  10.637  0.0045  0.0267 -0.8024
 8564SOL    HW130377  11.446   3.523  10.725  0.7785 -1.0815 -0.5297
 8564SOL    HW230378  11.397   3.567  10.588 -0.6000  0.6281  0.4678
 8565SOL     OW30379   0.047  11.988   3.806 -0.0033 -0.1530  0.2171
 8565SOL    HW130380   0.064  11.895   3.791  0.4218  0.1169 -1.0346
 8565SOL    HW230381   0.033  11.994   3.901 -1.7606 -1.7572  0.1272
 8566SOL     OW30382   5.587   4.706   9.341  0.1972  0.3710  0.6630
 8566SOL    HW130383   5.528   4.632   9.353  0.2379  0.0091 -1.1024
 8566SOL    HW230384   5.575   4.760   9.420  0.6231 -1.7777  2.2994
 8567SOL     OW30385  11.577   6.786   4.314 -0.2218  0.4017  0.2572
 8567SOL    HW130386  11.626   6.819   4.389  1.9089 -0.1893 -0.8220
 8567SOL    HW230387  11.577   6.691   4.324 -0.8285  0.3684  0.0290
 8568SOL     OW30388   3.968   7.790   6.313 -0.0717  0.3296  0.3386
 8568SOL    HW130389   3.940   7.793   6.222  0.6815  2.8896  0.1083
 8568SOL    HW230390   3.942   7.703   6.343 -0.1474 -0.6697 -2.3443
 8569SOL     OW30391   2.230  11.402   5.543  0.2836  0.3850 -0.0738
 8569SOL    HW130392   2.209  11.326   5.597  0.5417  0.7328  0.5305
 8569SOL    HW230393   2.163  11.404   5.475  0.7458 -0.8582 -0.5937
 8570SOL     OW30394   6.662   9.822   5.414 -0.0223  0.2250  0.1685
 8570SOL    HW130395   6.740   9.875   5.429 -1.0969  1.6076  1.3087
 8570SOL    HW230396   6.652   9.771   5.495  0.6359 -1.3023 -0.6640
 8571SOL     OW30397   5.292  11.592   9.131  0.2324  0.2317 -0.5062
 8571SOL    HW130398   5.262  11.672   9.174  0.9004  0.6455 -0.7829
 8571SOL    HW230399   5.287  11.525   9.199 -1.7511  0.1555 -0.6647
 8572SOL     OW30400   6.031   9.892   5.634  0.2405  0.0026 -0.0977
 8572SOL    HW130401   6.074   9.944   5.702 -0.3247 -0.3462  0.5293
 8572SOL    HW230402   5.964   9.950   5.598 -1.5629 -0.8214  1.7807
 8573SOL     OW30403  10.232   3.226   7.541 -0.5693 -0.1177 -0.4963
 8573SOL    HW130404  10.157   3.253   7.487 -0.0567  0.5884 -0.8772
 8573SOL    HW230405  10.303   3.213   7.478 -0.4793 -1.1999 -0.1795
 8574SOL     OW30406   4.513   5.759  10.550  0.2335  0.0212 -0.3263
 8574SOL    HW130407   4.487   5.710  10.628 -0.0081  0.0923 -0.3614
 8574SOL    HW230408   4.485   5.705  10.476 -0.3942  0.3964 -0.3677
 8575SOL     OW30409   1.958   0.931  10.988  0.3844  0.5462  0.0516
 8575SOL    HW130410   2.040   0.906  11.031  1.0235  0.4940 -1.1728
 8575SOL    HW230411   1.984   0.981  10.911 -0.6544 -0.7088 -1.1789
 8576SOL     OW30412  11.399   6.055   0.560  0.0747 -0.5889 -0.2155
 8576SOL    HW130413  11.481   6.053   0.609 -0.4390  1.0884  0.7975
 8576SOL    HW230414  11.417   6.113   0.486 -0.7242  1.6437  1.2077
 8577SOL     OW30415   7.530   9.757   2.854 -0.4665  0.5083 -0.1528
 8577SOL    HW130416   7.515   9.663   2.864  0.3858  0.3685 -0.1501
 8577SOL    HW230417   7.530   9.791   2.944  3.9865 -0.2618  0.3297
 8578SOL     OW30418   8.879   3.106   4.589  0.1897  0.2751 -0.1573
 8578SOL    HW130419   8.798   3.055   4.597 -1.4160  2.6519 -0.3381
 8578SOL    HW230420   8.947   3.040   4.580 -1.8044 -1.8349 -0.9406
 8579SOL     OW30421   0.324   0.278   0.482 -0.1602  0.0043  0.1040
 8579SOL    HW130422   0.300   0.278   0.389  0.2488  1.1809 -0.0174
 8579SOL    HW230423   0.402   0.223   0.487  1.2700  1.8581 -0.6771
 8580SOL     OW30424   2.702   9.171  11.055  0.2851 -0.3159 -0.2869
 8580SOL    HW130425   2.727   9.084  11.086  0.8256  0.4454  1.5943
 8580SOL    HW230426   2.607   9.166  11.045  0.0778 -0.6825  1.4747
 8581SOL     OW30427   7.995  10.904   5.497 -0.3449 -0.2196  0.1769
 8581SOL    HW130428   7.904  10.878   5.486  0.1026 -1.2705 -1.3170
 8581SOL    HW230429   8.036  10.883   5.413  1.6283 -1.2426  1.3527
 8582SOL     OW30430   5.446   9.114   2.114 -0.5622  0.5225  0.5108
 8582SOL    HW130431   5.381   9.163   2.165 -1.2601  0.1117  0.0392
 8582SOL    HW230432   5.403   9.099   2.030 -0.2299 -0.5990  0.5291
 8583SOL     OW30433   2.732   4.283  11.704 -0.1006  0.1776 -0.4909
 8583SOL    HW130434   2.760   4.201  11.743 -2.6454 -1.3045 -1.5448
 8583SOL    HW230435   2.669   4.258  11.636 -0.6057  2.9782 -1.2083
 8584SOL     OW30436   7.325   3.625   2.352  0.6685  0.0424 -0.1363
 8584SOL    HW130437   7.417   3.601   2.340  0.4168 -0.5180 -1.0852
 8584SOL    HW230438   7.321   3.718   2.332  0.9763 -0.0138 -0.4693
 8585SOL     OW30439   0.713  10.964   0.550 -0.3652  0.1363  0.6759
 8585SOL    HW130440   0.637  10.923   0.508 -0.3078  1.0285 -0.3311
 8585SOL    HW230441   0.699  11.058   0.540  1.1359  0.3153 -0.0248
 8586SOL     OW30442   7.185   5.810   9.426  0.4046  0.2328  0.0134
 8586SOL    HW130443   7.110   5.758   9.455  0.2972  0.6154  0.4327
 8586SOL    HW230444   7.259   5.773   9.475  0.2988  0.5797  0.4461
 8587SOL     OW30445   0.445   4.134   0.342 -0.1484  0.8211  0.2795
 8587SOL    HW130446   0.480   4.185   0.268  4.2619 -3.9660 -1.5321
 8587SOL    HW230447   0.367   4.091   0.306 -1.6229  3.0296  0.6145
 8588SOL     OW30448   6.062   2.775   7.969  0.1247 -0.6331  0.5465
 8588SOL    HW130449   6.112   2.793   8.048  2.4144  0.7548 -1.1022
 8588SOL    HW230450   6.083   2.684   7.947  0.8170 -0.4970  0.6348
 8589SOL     OW30451   2.820   3.655   0.843 -0.0956 -0.5411  0.7164
 8589SOL    HW130452   2.886   3.672   0.775  0.0199 -0.5124  0.8340
 8589SOL    HW230453   2.764   3.587   0.806  0.6945 -1.4080  1.0682
 8590SOL     OW30454   9.243   3.175   1.189  0.0155 -0.1816 -0.0313
 8590SOL    HW130455   9.271   3.267   1.180 -0.7049 -0.0701 -1.4799
 8590SOL    HW230456   9.167   3.168   1.132 -0.5275 -1.4585  0.8119
 8591SOL     OW30457   8.038   9.575   4.673 -0.0457 -0.3708  0.9108
 8591SOL    HW130458   8.111   9.634   4.653  0.5940 -1.1108  0.9893
 8591SOL    HW230459   8.051   9.502   4.612 -2.9964  1.2282 -1.9422
 8592SOL     OW30460  10.945   2.739  11.999 -0.4783  0.1126 -0.2590
 8592SOL    HW130461  10.992   2.659  11.974 -1.7569 -1.0657  0.8890
 8592SOL    HW230462  10.953   2.742  12.094 -1.7752  0.4744 -0.1464
 8593SOL     OW30463   1.093   0.064   5.486 -0.4766  0.1905 -0.4398
 8593SOL    HW130464   1.045   0.018   5.417 -2.1220  1.3767 -0.1447
 8593SOL    HW230465   1.039   0.055   5.564  0.9892 -0.4860  0.5494
 8594SOL     OW30466   5.884  10.559   7.778  0.5930 -0.1646 -0.4186
 8594SOL    HW130467   5.902  10.601   7.862 -0.9841  0.7807 -0.5186
 8594SOL    HW230468   5.960  10.502   7.763  1.3802  0.4159  1.1425
 8595SOL     OW30469   8.076   3.345   0.411 -0.2326 -0.5151 -0.2401
 8595SOL    HW130470   8.127   3.273   0.447 -1.4450 -0.7521  1.1174
 8595SOL    HW230471   8.115   3.424   0.448  1.8945 -0.2812 -2.7086
 8596SOL     OW30472   4.027   1.259  11.969 -0.1039 -0.2509  0.0784
 8596SOL    HW130473   4.094   1.287  11.907 -1.1725  0.3684 -0.8485
 8596SOL    HW230474   4.056   1.292  12.053 -1.1448  3.6244 -0.8887
 8597SOL     OW30475   6.487   3.571   5.045  0.6633  0.1190  0.5009
 8597SOL    HW130476   6.486   3.478   5.067  2.1807  0.3702  1.8317
 8597SOL    HW230477   6.431   3.612   5.111 -0.0489  0.1721 -0.1179
 8598SOL     OW30478   4.510   9.495   6.024 -0.0993  0.8308 -0.5117
 8598SOL    HW130479   4.493   9.578   5.979 -0.5387  0.8931 -0.2434
 8598SOL    HW230480   4.444   9.492   6.094 -0.6000 -0.1216 -1.0117
 8599SOL     OW30481  11.509   8.411   9.522  0.6751  0.1202  0.0801
 8599SOL    HW130482  11.470   8.369   9.446  1.4670  0.7167 -0.6750
 8599SOL    HW230483  11.440   8.412   9.588  0.3212 -1.4055 -0.2406
 8600SOL     OW30484   8.133  10.732   9.641  0.6612 -0.2717  0.1701
 8600SOL    HW130485   8.125  10.646   9.683 -0.1759 -0.8864 -1.1622
 8600SOL    HW230486   8.067  10.786   9.684  0.7347 -0.4921  0.5626
 8601SOL     OW30487   4.200   1.378   7.880 -0.4860  0.2651 -0.1283
 8601SOL    HW130488   4.141   1.448   7.908  0.3785  1.6520 -1.5908
 8601SOL    HW230489   4.271   1.423   7.834  1.2598 -1.4078  0.7603
 8602SOL     OW30490   5.782   6.366  10.627 -0.4533  0.4413 -0.2738
 8602SOL    HW130491   5.843   6.307  10.671 -1.1980 -0.0910  0.0714
 8602SOL    HW230492   5.770   6.439  10.688  0.8103  1.2049 -0.8878
 8603SOL     OW30493   1.743   7.952   4.360  0.2040 -0.0708  0.0710
 8603SOL    HW130494   1.798   7.992   4.427  2.0711 -0.0916 -1.3812
 8603SOL    HW230495   1.792   7.875   4.331  0.4161  0.9778 -2.6315
 8604SOL     OW30496   1.514  11.039   5.629  0.0589 -0.3098 -0.4905
 8604SOL    HW130497   1.453  10.967   5.615  0.7119 -0.8287 -0.7030
 8604SOL    HW230498   1.493  11.071   5.717  1.0383 -2.0195  0.4035
 8605SOL     OW30499   6.601   7.312   9.947  0.0646 -0.0970  0.0280
 8605SOL    HW130500   6.549   7.285  10.022 -3.1373  2.9409 -0.8381
 8605SOL    HW230501   6.604   7.235   9.890  0.5580 -1.7274  2.1713
 8606SOL     OW30502   3.980   1.455   9.412 -0.1244 -0.2628 -0.0041
 8606SOL    HW130503   3.983   1.541   9.372  0.5109 -0.9935 -1.6146
 8606SOL    HW230504   4.005   1.469   9.503 -1.0615  1.3789  0.0264
 8607SOL     OW30505   2.479  11.536   8.369  0.0916  0.1601 -0.1790
 8607SOL    HW130506   2.451  11.557   8.280  1.0560 -1.8871 -1.0391
 8607SOL    HW230507   2.435  11.453   8.389  0.5336  0.1699  0.9374
 8608SOL     OW30508   9.916   5.609   0.656  0.7121 -0.5718  0.0306
 8608SOL    HW130509   9.909   5.677   0.588  0.9466 -0.0776  0.4871
 8608SOL    HW230510   9.912   5.658   0.738 -1.8246 -1.3156  0.4655
 8609SOL     OW30511   9.527   4.269   1.943 -0.2718 -0.7999 -0.3111
 8609SOL    HW130512   9.447   4.260   1.892 -0.4991  0.0855 -0.1227
 8609SOL    HW230513   9.589   4.313   1.884 -0.8028  1.0032  0.4152
 8610SOL     OW30514   0.995   7.872   0.374 -0.3215 -0.3853 -0.5303
 8610SOL    HW130515   1.000   7.795   0.317 -0.0951  0.1140 -1.2064
 8610SOL    HW230516   0.948   7.937   0.322  1.0519  0.5366 -0.6899
 8611SOL     OW30517   0.371   0.828  10.663  0.1379  0.3292 -0.8251
 8611SOL    HW130518   0.396   0.753  10.610  0.3083 -0.4719  0.3385
 8611SOL    HW230519   0.382   0.798  10.754 -1.1945  1.2776 -0.3137
 8612SOL     OW30520   3.997   9.086   6.116  0.5582 -0.9532  0.0489
 8612SOL    HW130521   4.084   9.076   6.076  0.2443 -0.1987 -0.8385
 8612SOL    HW230522   3.947   9.137   6.053  0.0550  0.3279  1.4202
 8613SOL     OW30523  11.195   7.254   9.280 -1.1652 -0.2736 -0.2510
 8613SOL    HW130524  11.150   7.253   9.196 -1.6381  0.3483 -0.0173
 8613SOL    HW230525  11.133   7.216   9.342 -1.1962  0.1506 -0.0123
 8614SOL     OW30526  10.261   6.898   7.697  0.2507 -0.0614 -0.2700
 8614SOL    HW130527  10.170   6.925   7.700  0.4638  0.5711  1.2834
 8614SOL    HW230528  10.311   6.979   7.700  0.8900 -0.3954 -1.2459
 8615SOL     OW30529  10.165  10.703   7.465  0.4496  0.1943  0.3777
 8615SOL    HW130530  10.144  10.617   7.501  1.7714  0.4358  1.8692
 8615SOL    HW230531  10.226  10.685   7.394  0.8167 -0.1080  0.7653
 8616SOL     OW30532   1.825   2.022   5.256 -0.2631  0.2882  0.0736
 8616SOL    HW130533   1.780   1.947   5.218  1.3662 -1.6941  1.7628
 8616SOL    HW230534   1.820   2.090   5.189 -3.3489 -0.6733 -0.8290
 8617SOL     OW30535   2.162   2.745   0.667 -0.6152 -0.2920 -0.1440
 8617SOL    HW130536   2.219   2.749   0.744 -1.5775 -0.4797  0.5982
 8617SOL    HW230537   2.221   2.758   0.593  0.2520  0.4582  0.6513
 8618SOL     OW30538   3.706   1.956   7.372  0.1312 -0.3382  0.0462
 8618SOL    HW130539   3.652   1.935   7.448 -0.1463  0.2569  0.0137
 8618SOL    HW230540   3.693   1.882   7.313 -1.0793  0.0491 -0.1976
 8619SOL     OW30541  11.094   3.639  11.368  0.4129 -0.3529 -0.0784
 8619SOL    HW130542  11.107   3.625  11.462  1.2837 -0.8745 -0.2625
 8619SOL    HW230543  11.174   3.682  11.339 -0.2117  0.5894 -0.4327
 8620SOL     OW30544  11.741   3.687   0.037 -0.6256 -0.3919  0.3769
 8620SOL    HW130545  11.777   3.735  -0.038 -0.8538  0.2860  0.6892
 8620SOL    HW230546  11.647   3.704   0.033 -0.6107 -0.1276  0.9577
 8621SOL     OW30547   0.323   2.621   4.665  0.0352  0.2000 -0.0959
 8621SOL    HW130548   0.303   2.664   4.582  0.3895 -2.6084 -1.7442
 8621SOL    HW230549   0.238   2.610   4.708 -0.4745 -0.6093 -1.2874
 8622SOL     OW30550   1.275  10.428   5.474 -0.1324  0.3335  0.0077
 8622SOL    HW130551   1.328  10.392   5.404 -0.2563  2.4245 -1.2351
 8622SOL    HW230552   1.325  10.409   5.554 -0.0456 -2.1752 -0.5674
 8623SOL     OW30553   4.854   6.157   7.854 -0.0543  0.0034  0.0193
 8623SOL    HW130554   4.836   6.082   7.911 -1.2431  0.6597  0.5443
 8623SOL    HW230555   4.950   6.161   7.849  0.0442 -1.3691  0.1983
 8624SOL     OW30556   6.648   2.832   3.014 -0.0493  0.2232  0.0427
 8624SOL    HW130557   6.642   2.905   2.953 -3.1802  1.8892  2.0993
 8624SOL    HW230558   6.598   2.762   2.973  0.3266  0.2911 -0.5462
 8625SOL     OW30559   1.654   5.981   1.261 -0.1192  0.3739  0.4891
 8625SOL    HW130560   1.711   6.014   1.191  0.8890 -2.2774 -0.0966
 8625SOL    HW230561   1.711   5.977   1.338  0.8469 -2.7129 -0.2048
 8626SOL     OW30562   1.046   8.473   0.669  0.1507 -0.9884  0.0991
 8626SOL    HW130563   1.053   8.451   0.762  0.0034 -1.3540  0.0252
 8626SOL    HW230564   0.994   8.402   0.632  1.1967 -1.4642 -0.4814
 8627SOL     OW30565   0.152   8.112   0.109 -0.1734 -0.0805  0.2155
 8627SOL    HW130566   0.162   8.119   0.014  1.1313 -0.2295  0.3320
 8627SOL    HW230567   0.057   8.114   0.122 -0.6374 -3.4789 -1.4018
 8628SOL     OW30568   7.235   2.551   2.640  0.1273 -0.1048  0.1459
 8628SOL    HW130569   7.308   2.530   2.583  2.3173  1.0639  2.3079
 8628SOL    HW230570   7.190   2.624   2.596 -0.3076 -1.3671 -1.5951
 8629SOL     OW30571   5.268   2.112   4.681 -0.0925 -0.2552  0.5050
 8629SOL    HW130572   5.257   2.018   4.669  1.3810 -0.1578 -2.5926
 8629SOL    HW230573   5.307   2.143   4.599 -0.3638  3.0542  1.4542
 8630SOL     OW30574   0.611  11.479   5.552 -0.4540  0.1279 -0.3087
 8630SOL    HW130575   0.645  11.505   5.638 -3.3438 -0.2747  1.0912
 8630SOL    HW230576   0.586  11.561   5.510  3.5096  0.6419 -2.1688
 8631SOL     OW30577   8.434  10.447   9.762  0.2947 -0.7167  0.4168
 8631SOL    HW130578   8.376  10.502   9.709  1.4557  1.1450  0.9803
 8631SOL    HW230579   8.394  10.448   9.849  0.9122  0.2354  0.7075
 8632SOL     OW30580  11.683   3.893   8.216 -0.0679  0.4213 -0.0304
 8632SOL    HW130581  11.626   3.818   8.203  0.3638  0.2420 -0.9711
 8632SOL    HW230582  11.682   3.940   8.133 -0.1853  1.3632  0.4866
 8633SOL     OW30583   7.465   7.999   5.918  0.3761 -0.3828 -0.1819
 8633SOL    HW130584   7.538   7.943   5.890  1.9576  0.8728  1.1944
 8633SOL    HW230585   7.452   8.060   5.845  1.6482  0.2343  0.0797
 8634SOL     OW30586   2.546  11.307   6.978  0.6787 -0.2352 -0.0493
 8634SOL    HW130587   2.472  11.349   7.022 -0.0774 -1.6654  0.0860
 8634SOL    HW230588   2.563  11.362   6.902 -1.0314 -0.3063 -0.5170
 8635SOL     OW30589  10.203   4.304   2.966  0.3025  0.3023 -0.0229
 8635SOL    HW130590  10.283   4.354   2.950  0.2590  1.6416  3.2728
 8635SOL    HW230591  10.140   4.339   2.902  1.0148  2.7084  0.5108
 8636SOL     OW30592   7.358  11.870   4.392  0.5501 -0.2190 -0.1523
 8636SOL    HW130593   7.398  11.928   4.327  1.8335 -0.5507  0.3223
 8636SOL    HW230594   7.426  11.806   4.413  0.5858  0.5285  2.3429
 8637SOL     OW30595   5.195   6.471  10.701 -0.0134 -0.4313  0.0569
 8637SOL    HW130596   5.126   6.408  10.680 -0.3445 -0.1361  0.2275
 8637SOL    HW230597   5.275   6.433  10.665 -0.4034 -0.3982 -0.8866
 8638SOL     OW30598   6.581   1.457   8.251 -0.1440 -0.2196  0.2334
 8638SOL    HW130599   6.528   1.527   8.214  0.5363  0.6474  0.8547
 8638SOL    HW230600   6.576   1.470   8.346 -0.5955 -1.4578  0.3992
 8639SOL     OW30601   6.934   8.139   2.902  0.2068 -0.3563  0.0421
 8639SOL    HW130602   7.022   8.159   2.933 -0.6643  1.9696  1.2768
 8639SOL    HW230603   6.882   8.129   2.982 -1.4386  2.5918 -0.4760
 8640SOL     OW30604   6.255   4.787   9.431 -0.2178 -0.1371 -0.3611
 8640SOL    HW130605   6.254   4.864   9.374 -0.0557  0.7550  0.8076
 8640SOL    HW230606   6.348   4.768   9.444 -0.2568 -0.4483 -0.5162
 8641SOL     OW30607   0.411   1.113   2.072  0.6455 -0.0988  0.5167
 8641SOL    HW130608   0.447   1.164   2.144  0.1446  1.3747 -0.2202
 8641SOL    HW230609   0.324   1.152   2.057 -0.5019 -2.3134  1.0283
 8642SOL     OW30610  11.476   5.592   0.195  0.2905  0.3166 -0.0890
 8642SOL    HW130611  11.527   5.672   0.209  1.0608 -0.1439 -0.2620
 8642SOL    HW230612  11.537   5.530   0.157 -0.1325 -0.5854  0.6578
 8643SOL     OW30613   1.885   0.243   9.324 -0.1298 -0.3161  0.2620
 8643SOL    HW130614   1.875   0.214   9.415  0.1355 -2.0227 -0.2160
 8643SOL    HW230615   1.796   0.248   9.290 -0.1652 -0.9065  0.2638
 8644SOL     OW30616   1.913  10.446  11.667  0.3372 -0.0884  0.3223
 8644SOL    HW130617   2.008  10.436  11.660  0.2817 -0.0850 -0.5322
 8644SOL    HW230618   1.890  10.512  11.602 -0.0122  1.5447  1.9901
 8645SOL     OW30619   7.587   4.217   1.634  0.0305  0.6950 -0.2913
 8645SOL    HW130620   7.602   4.137   1.584 -1.0691  0.0320  0.3891
 8645SOL    HW230621   7.656   4.218   1.700  1.0715  1.2185 -1.3483
 8646SOL     OW30622  10.231   7.579   4.241  0.2389  0.0424 -0.3536
 8646SOL    HW130623  10.238   7.613   4.330  1.4323 -1.7611  0.2900
 8646SOL    HW230624  10.224   7.484   4.252 -2.7654 -0.0786 -2.0628
 8647SOL     OW30625   9.362  11.493   1.141 -0.7972 -0.2554  0.3451
 8647SOL    HW130626   9.443  11.450   1.168  0.1406  0.5828 -0.9739
 8647SOL    HW230627   9.356  11.570   1.197  0.3128  0.6454 -0.7027
 8648SOL     OW30628   4.531   4.356   2.295 -0.1852 -0.2163 -0.0732
 8648SOL    HW130629   4.467   4.303   2.248  1.0295 -2.7335  0.9090
 8648SOL    HW230630   4.616   4.319   2.269  0.6000 -0.6304  2.7674
 8649SOL     OW30631   9.564   3.833   9.364 -0.7316 -0.2378 -0.6725
 8649SOL    HW130632   9.571   3.907   9.303  0.9645 -1.1501 -1.6601
 8649SOL    HW230633   9.531   3.872   9.445 -0.5351  1.4713 -1.3714
 8650SOL     OW30634   1.134   3.285   1.365  0.4383 -0.7274  0.6150
 8650SOL    HW130635   1.079   3.331   1.303  0.3061 -1.6286  0.0427
 8650SOL    HW230636   1.077   3.267   1.439  0.6235  0.4391  1.0649
 8651SOL     OW30637   6.078   2.751   6.560  0.0173  0.6522  0.3249
 8651SOL    HW130638   6.168   2.780   6.577 -0.3563  1.3160  1.2445
 8651SOL    HW230639   6.060   2.685   6.627 -0.8609  2.0153  1.5079
 8652SOL     OW30640   9.726  11.506   8.931  0.0552  0.2285 -0.4661
 8652SOL    HW130641   9.674  11.427   8.915 -0.3925  0.1093  1.3855
 8652SOL    HW230642   9.669  11.578   8.905 -0.6078  0.0502  0.4779
 8653SOL     OW30643   1.644   7.148  11.698 -0.4310 -0.0720  0.0880
 8653SOL    HW130644   1.696   7.162  11.619  1.0338  0.3404  1.0710
 8653SOL    HW230645   1.626   7.054  11.699 -2.3180  0.1839 -1.7850
 8654SOL     OW30646   5.792   3.828   0.689  0.2940  0.3956 -0.5151
 8654SOL    HW130647   5.732   3.779   0.744  0.5727  0.6195 -0.0042
 8654SOL    HW230648   5.746   3.909   0.668  0.1672  0.2870 -0.6617
 8655SOL     OW30649   9.414   6.046  11.090 -0.0186  0.3398  0.2121
 8655SOL    HW130650   9.361   6.098  11.150  0.8131  0.6153  0.7330
 8655SOL    HW230651   9.485   6.012  11.145  0.9260  0.8334 -0.6731
 8656SOL     OW30652   3.642   3.620   2.723 -0.2025  0.5378 -0.0145
 8656SOL    HW130653   3.616   3.575   2.804  1.8905  0.3791  0.6284
 8656SOL    HW230654   3.673   3.706   2.753  0.6458  0.4538 -0.6281
 8657SOL     OW30655   9.298   6.724   1.350 -0.1497 -0.1022 -0.1584
 8657SOL    HW130656   9.248   6.751   1.426  2.1831  1.3948  0.9715
 8657SOL    HW230657   9.252   6.762   1.275  0.4328  3.2255  1.0200
 8658SOL     OW30658   2.884   1.751   7.150 -0.2271  0.6002  0.0107
 8658SOL    HW130659   2.951   1.805   7.108  0.1825  0.3199  0.3012
 8658SOL    HW230660   2.853   1.803   7.223 -0.6619  0.9240 -0.3937
 8659SOL     OW30661   0.937   9.700  11.634  0.3471 -0.3496 -0.0850
 8659SOL    HW130662   1.022   9.702  11.677  1.3702  1.1813 -2.0144
 8659SOL    HW230663   0.904   9.790  11.640 -0.5159 -0.6169 -0.5519
 8660SOL     OW30664   6.037   8.777   2.192  0.3188  0.0026 -0.6950
 8660SOL    HW130665   6.064   8.692   2.225 -0.2559 -0.1798 -0.6936
 8660SOL    HW230666   6.117   8.813   2.152  0.9072  0.0317  0.4537
 8661SOL     OW30667   8.036   2.395   9.254  0.1722  0.3428  0.7793
 8661SOL    HW130668   8.073   2.404   9.342  0.3140  1.9601  0.5815
 8661SOL    HW230669   8.072   2.469   9.205  0.3749 -0.7321 -0.7567
 8662SOL     OW30670  10.646   5.807   5.900  0.2683 -0.6133  0.0268
 8662SOL    HW130671  10.697   5.739   5.856 -1.1192 -1.5657 -0.1653
 8662SOL    HW230672  10.664   5.887   5.850  0.0957 -1.3181 -1.1974
 8663SOL     OW30673   7.726   3.755   0.035  0.0520  0.1411  0.3890
 8663SOL    HW130674   7.714   3.813   0.111 -0.2550  0.2605  0.2526
 8663SOL    HW230675   7.817   3.726   0.041  0.3441  0.9826  0.2195
 8664SOL     OW30676   7.624   5.195   1.129  0.2403  0.3770  0.1866
 8664SOL    HW130677   7.566   5.132   1.086  0.4101  0.5020 -0.2376
 8664SOL    HW230678   7.712   5.158   1.117  0.1812 -0.2305  1.5463
 8665SOL     OW30679   1.748  10.034   7.119 -0.5301  0.2005 -0.5375
 8665SOL    HW130680   1.802  10.041   7.041 -0.3768  1.9721 -0.3181
 8665SOL    HW230681   1.660  10.057   7.089 -0.7480 -0.4868 -0.4477
 8666SOL     OW30682   9.496   1.063   8.956  0.1347  0.1595 -0.2720
 8666SOL    HW130683   9.581   1.041   8.994  0.5565  0.9632 -0.7251
 8666SOL    HW230684   9.516   1.126   8.886 -0.9785  1.6778  0.7095
 8667SOL     OW30685   7.366   7.357   4.911 -0.1852 -0.1573  0.1395
 8667SOL    HW130686   7.328   7.419   4.848  2.0090  2.6026  1.3150
 8667SOL    HW230687   7.320   7.376   4.993  0.2693 -0.3142  0.4333
 8668SOL     OW30688  11.820   5.362   9.977  0.2949  0.5007  0.3321
 8668SOL    HW130689  11.862   5.420   9.914  0.5033 -0.1750 -0.1699
 8668SOL    HW230690  11.878   5.286   9.982 -1.0158 -0.6320 -0.6586
 8669SOL     OW30691   9.376   6.856  11.406  0.0605  0.2768 -0.3220
 8669SOL    HW130692   9.327   6.861  11.489  0.0309  0.7107 -0.3667
 8669SOL    HW230693   9.466   6.836  11.432 -0.4980 -2.8828 -0.3236
 8670SOL     OW30694   0.715   3.787   7.820 -0.4882  0.2155 -0.2134
 8670SOL    HW130695   0.703   3.699   7.783 -0.4981 -0.7374  1.9016
 8670SOL    HW230696   0.637   3.801   7.873 -0.3248  1.3815 -0.2671
 8671SOL     OW30697   5.625   2.507   3.636  0.6115  0.2546 -0.0439
 8671SOL    HW130698   5.559   2.568   3.602  0.2393 -0.2009 -0.1556
 8671SOL    HW230699   5.663   2.553   3.711  0.5413  0.7417 -0.3009
 8672SOL     OW30700   3.242   8.095   9.880 -0.4785 -0.2984  1.3638
 8672SOL    HW130701   3.261   8.002   9.867 -1.3532 -0.3314  0.1421
 8672SOL    HW230702   3.157   8.098   9.923 -0.6628 -0.0661  0.9949
 8673SOL     OW30703  11.617   1.874   6.329 -0.4033 -0.1452  0.2727
 8673SOL    HW130704  11.587   1.961   6.304 -0.6923  0.4311  2.3949
 8673SOL    HW230705  11.547   1.815   6.300 -0.4828  0.3844 -0.6495
 8674SOL     OW30706   6.656   6.227   5.945  0.0283 -0.2500  0.0840
 8674SOL    HW130707   6.594   6.260   6.011  1.4416 -0.5953  1.6417
 8674SOL    HW230708   6.711   6.303   5.925 -0.8050  0.0360 -1.2442
 8675SOL     OW30709   6.618   8.153  10.879  0.0698  0.2374  0.3128
 8675SOL    HW130710   6.642   8.242  10.907  0.7357  0.0032  0.5203
 8675SOL    HW230711   6.523   8.154  10.875  0.0859  1.1191 -0.2053
 8676SOL     OW30712   0.389   7.560   9.404  0.0879  0.0287  0.2114
 8676SOL    HW130713   0.422   7.539   9.317 -0.2337 -1.2086  0.3659
 8676SOL    HW230714   0.324   7.493   9.422  0.2167  0.2053  1.4478
 8677SOL     OW30715   7.420   5.665   9.999  0.3629  0.0765  0.6004
 8677SOL    HW130716   7.410   5.575   9.970 -1.2742  0.3355  0.2438
 8677SOL    HW230717   7.366   5.672  10.078 -1.3922  1.2704 -0.6311
 8678SOL     OW30718   6.250  10.481   0.786 -0.6858  0.9360  0.0590
 8678SOL    HW130719   6.160  10.459   0.762 -0.8618 -1.4673  2.4442
 8678SOL    HW230720   6.241  10.556   0.845 -1.0279  1.2133 -0.3366
 8679SOL     OW30721   6.201   7.291   9.942  0.1265  0.7741 -0.1384
 8679SOL    HW130722   6.245   7.256  10.019 -0.5817  0.6254  0.2034
 8679SOL    HW230723   6.242   7.244   9.868 -0.5991 -0.5784  0.2899
 8680SOL     OW30724  10.955  11.687   5.031 -0.7981  0.2373 -0.4687
 8680SOL    HW130725  10.971  11.734   4.948  0.9651 -1.7665 -1.3683
 8680SOL    HW230726  11.042  11.659   5.059 -1.4211  0.4435  1.8687
 8681SOL     OW30727   5.743  11.414   1.835  0.4869  0.1369 -0.0095
 8681SOL    HW130728   5.659  11.459   1.846  0.6669 -0.1519  3.8119
 8681SOL    HW230729   5.728  11.354   1.762 -2.9742 -0.5608  1.0878
 8682SOL     OW30730   5.384   2.010   2.080  0.2170  0.1413  0.6119
 8682SOL    HW130731   5.471   2.050   2.078  0.5903 -0.6318 -1.1252
 8682SOL    HW230732   5.400   1.920   2.108  0.0168 -0.0656  0.0708
 8683SOL     OW30733   5.473   8.629   2.495 -0.1452 -0.4374 -0.1834
 8683SOL    HW130734   5.480   8.697   2.562 -0.6739  0.4063 -0.9629
 8683SOL    HW230735   5.393   8.650   2.447  0.2490 -0.9911 -1.1154
 8684SOL     OW30736  10.530   2.230   9.956 -0.1524 -0.0290  0.0175
 8684SOL    HW130737  10.459   2.258  10.013  0.2970  0.8145  0.1840
 8684SOL    HW230738  10.529   2.135   9.962 -1.4569 -0.0444 -0.2335
 8685SOL     OW30739   7.578   9.133   3.928  0.8061  0.1596 -0.4228
 8685SOL    HW130740   7.638   9.059   3.935 -0.7993 -1.0787  1.2940
 8685SOL    HW230741   7.618   9.203   3.980  1.4853 -0.1146 -0.5804
 8686SOL     OW30742   0.670   4.347  10.351 -0.0097 -0.3651 -0.1890
 8686SOL    HW130743   0.705   4.429  10.316 -0.1437 -0.2263  0.0015
 8686SOL    HW230744   0.645   4.297  10.273 -0.1445 -0.1293 -0.2978
 8687SOL     OW30745   5.259  10.030  11.626 -0.2146 -0.1396  0.3270
 8687SOL    HW130746   5.340  10.015  11.578 -0.1898  0.5007  0.1595
 8687SOL    HW230747   5.195  10.057  11.560 -0.5173 -0.4526  0.4839
 8688SOL     OW30748   8.485   5.196   1.375 -0.0687  0.0496  0.1268
 8688SOL    HW130749   8.551   5.264   1.366 -1.7117  1.7611  0.2973
 8688SOL    HW230750   8.428   5.208   1.298 -1.1394 -0.2495  0.8505
 8689SOL     OW30751   8.553   1.096   2.957  0.2459 -0.1057 -0.1764
 8689SOL    HW130752   8.590   1.180   2.985  1.5072 -1.2180  1.7616
 8689SOL    HW230753   8.616   1.062   2.893  1.2903 -0.8040  1.1633
 8690SOL     OW30754   4.756  10.495   0.739  0.3379  0.8678  0.4617
 8690SOL    HW130755   4.768  10.499   0.644 -3.7546 -0.3723 -0.3049
 8690SOL    HW230756   4.694  10.423   0.752 -2.3081  3.3855  3.6430
 8691SOL     OW30757   5.402   4.117   5.635  0.8500 -0.3278 -0.2809
 8691SOL    HW130758   5.396   4.082   5.546 -0.1408 -0.1832 -0.2784
 8691SOL    HW230759   5.471   4.184   5.629  0.2284  0.2658 -1.1518
 8692SOL     OW30760   5.464  11.817  10.172 -0.5373  0.0946  0.5342
 8692SOL    HW130761   5.433  11.906  10.191  0.1460  0.5447 -0.3596
 8692SOL    HW230762   5.409  11.790  10.098  2.0667  1.5005 -2.1200
 8693SOL     OW30763   5.850   4.583   0.218 -0.8513 -0.2788  0.4112
 8693SOL    HW130764   5.796   4.507   0.197 -2.1564  0.5393  0.6929
 8693SOL    HW230765   5.905   4.554   0.291 -1.7570 -0.7732  0.9029
 8694SOL     OW30766  10.567   9.026   6.579 -0.3316 -0.1166 -0.2902
 8694SOL    HW130767  10.641   9.065   6.625 -0.7529 -0.2636  0.5422
 8694SOL    HW230768  10.606   8.963   6.519  0.3096  0.9875 -1.0623
 8695SOL     OW30769   4.940   8.880   0.029 -0.5963 -0.4439  0.5244
 8695SOL    HW130770   4.980   8.961  -0.003 -0.3665 -0.7166  0.1100
 8695SOL    HW230771   5.003   8.846   0.092 -0.7297 -0.2631  0.7592
 8696SOL     OW30772   8.983   4.262   9.993  0.0769 -0.5834  0.7018
 8696SOL    HW130773   8.906   4.300  10.036  0.1817 -0.0219  0.3961
 8696SOL    HW230774   9.055   4.281  10.053  0.1310 -0.2832  0.5453
 8697SOL     OW30775   7.409   5.969   8.701  0.2520 -0.2674 -0.5107
 8697SOL    HW130776   7.447   6.038   8.756  2.3188 -1.9717  0.3491
 8697SOL    HW230777   7.444   5.888   8.738  0.1839 -1.6139 -3.1896
 8698SOL     OW30778   8.473   4.967   4.457 -0.6340 -0.5331 -0.0473
 8698SOL    HW130779   8.566   4.989   4.455 -1.2028  2.2322 -1.2840
 8698SOL    HW230780   8.452   4.957   4.550  0.8232 -0.9592  0.2593
 8699SOL     OW30781   9.963  10.398   2.231 -0.1948  0.4319 -0.1073
 8699SOL    HW130782   9.892  10.457   2.256 -0.5105  0.2572 -0.5667
 8699SOL    HW230783   9.967  10.333   2.301 -0.9033  0.0898 -0.3624
 8700SOL     OW30784   0.622   1.175  11.226 -0.5714  0.3254 -0.2671
 8700SOL    HW130785   0.713   1.147  11.231  0.0510  2.1467 -0.5167
 8700SOL    HW230786   0.609   1.199  11.134 -1.1322  0.6083 -0.1244
 8701SOL     OW30787   0.315  10.885   8.447 -0.1786 -0.1804  0.5651
 8701SOL    HW130788   0.384  10.918   8.390 -0.3838  0.7666  0.8380
 8701SOL    HW230789   0.334  10.924   8.533 -1.3877  0.6147  0.4995
 8702SOL     OW30790   7.376   0.624  10.151  0.5953  0.1436 -0.3883
 8702SOL    HW130791   7.377   0.582  10.237 -0.8835  0.9487  0.0616
 8702SOL    HW230792   7.416   0.710  10.167  0.4702  0.2291 -0.5309
 8703SOL     OW30793   0.071   3.476   3.993  0.7074 -0.1719  0.0477
 8703SOL    HW130794   0.071   3.486   4.088  0.8689 -2.5598  0.3666
 8703SOL    HW230795   0.089   3.564   3.959  1.6915  0.5328  2.2379
 8704SOL     OW30796   1.087   5.829   1.179  0.0728 -0.1474 -0.4427
 8704SOL    HW130797   1.156   5.769   1.151  1.7087  0.7881  1.3286
 8704SOL    HW230798   1.051   5.789   1.258 -0.9740 -0.2851 -0.9732
 8705SOL     OW30799   3.494   7.089   4.865  0.0085 -0.4537  0.1179
 8705SOL    HW130800   3.441   7.009   4.872  0.0818 -0.3964  1.4981
 8705SOL    HW230801   3.446   7.155   4.915  1.4880 -0.4714  1.6557
 8706SOL     OW30802   0.207   2.495   3.298  0.1075 -0.1498  0.6142
 8706SOL    HW130803   0.219   2.418   3.242  0.5881  0.5131 -0.2201
 8706SOL    HW230804   0.235   2.466   3.385  0.7683 -0.7737  0.2062
 8707SOL     OW30805   5.528   5.919  10.753 -0.5402 -0.4400  0.6475
 8707SOL    HW130806   5.611   5.896  10.709 -1.3247  0.1005 -1.2024
 8707SOL    HW230807   5.486   5.834  10.770 -0.6600 -0.6510 -0.5867
 8708SOL     OW30808   4.307   4.713  10.019  0.0118  0.0777 -0.5968
 8708SOL    HW130809   4.400   4.725  10.037 -0.1004  0.7829 -0.4630
 8708SOL    HW230810   4.269   4.800  10.028 -1.4661 -0.7845  3.7889
 8709SOL     OW30811   2.166   4.251  11.890 -0.0306  0.3016  0.0966
 8709SOL    HW130812   2.089   4.277  11.940  1.4593 -0.9831  3.3236
 8709SOL    HW230813   2.144   4.165  11.855  0.0565 -0.3103  1.4755
 8710SOL     OW30814   8.383   4.130  11.504  0.1511  0.1946 -0.1026
 8710SOL    HW130815   8.292   4.103  11.489 -0.2984  1.3011  0.5275
 8710SOL    HW230816   8.398   4.200  11.440 -0.5740  2.3584  1.9609
 8711SOL     OW30817   8.666   6.087   7.199  0.1820  0.0417 -0.2961
 8711SOL    HW130818   8.736   6.027   7.224 -0.3252 -0.7333 -0.6635
 8711SOL    HW230819   8.600   6.077   7.267  0.8511  1.5577  0.6200
 8712SOL     OW30820   9.488   7.693   4.167 -0.1864  0.4111 -0.6329
 8712SOL    HW130821   9.530   7.778   4.156 -0.5517  0.7281  0.3351
 8712SOL    HW230822   9.508   7.667   4.256  0.1073 -0.6339 -0.9851
 8713SOL     OW30823  11.769   1.464   9.940 -0.3327 -0.1178  0.1186
 8713SOL    HW130824  11.722   1.443  10.020 -1.0813 -0.4149 -0.3897
 8713SOL    HW230825  11.824   1.539   9.963 -1.1851  0.3452  0.6828
 8714SOL     OW30826   1.312  10.097   3.262 -0.2261  0.5208  0.2529
 8714SOL    HW130827   1.308  10.051   3.178 -1.1229  0.0380  0.5567
 8714SOL    HW230828   1.347  10.183   3.239 -0.4387  0.3906 -0.6183
 8715SOL     OW30829   1.715  11.081   5.465  0.1514  0.4610 -0.0810
 8715SOL    HW130830   1.642  11.073   5.527 -0.9277 -1.1904 -1.4569
 8715SOL    HW230831   1.794  11.071   5.519 -0.7663 -2.0122  0.9393
 8716SOL     OW30832   5.976   4.402   5.680 -0.2265  0.4675  0.2537
 8716SOL    HW130833   6.009   4.345   5.750  1.1577  0.8936 -0.0187
 8716SOL    HW230834   6.054   4.428   5.631 -1.1334  0.2978 -1.3776
 8717SOL     OW30835   4.130   7.757   0.067 -0.3731  0.2715  0.1288
 8717SOL    HW130836   4.074   7.803   0.005  0.6022  0.8039 -0.3839
 8717SOL    HW230837   4.217   7.794   0.053 -0.3251  1.2915  2.6737
 8718SOL     OW30838   9.125   1.902   1.717  0.3618 -0.1981  0.3776
 8718SOL    HW130839   9.041   1.871   1.684  0.2256 -1.0844  1.4648
 8718SOL    HW230840   9.103   1.970   1.781  0.6768  2.6578 -2.3069
 8719SOL     OW30841   7.164   1.125   8.117 -0.3242 -0.1532 -0.2551
 8719SOL    HW130842   7.199   1.198   8.167  1.5690  0.3863 -2.2189
 8719SOL    HW230843   7.161   1.156   8.026 -0.4030 -2.1626 -1.0134
 8720SOL     OW30844  11.326   1.793   0.534  0.1562 -0.5500 -0.1164
 8720SOL    HW130845  11.247   1.765   0.581 -0.7260 -0.0907 -1.2829
 8720SOL    HW230846  11.359   1.713   0.493  1.1708 -1.0468  1.5286
 8721SOL     OW30847   9.848   7.167   1.563  0.5634 -0.5515  0.2893
 8721SOL    HW130848   9.929   7.117   1.574  0.4744 -0.4679  1.4039
 8721SOL    HW230849   9.792   7.111   1.509  1.0869 -0.9173  0.1201
 8722SOL     OW30850  11.548   4.107   3.370  0.0911  0.1454  1.2000
 8722SOL    HW130851  11.617   4.106   3.437  0.7068  2.2389  0.6751
 8722SOL    HW230852  11.543   4.017   3.340 -0.1508 -0.8556  3.9902
 8723SOL     OW30853   8.330   8.017   5.149 -0.4252 -0.1568  0.5725
 8723SOL    HW130854   8.241   8.042   5.174 -1.3483 -1.2253 -1.4274
 8723SOL    HW230855   8.330   7.921   5.152  0.6197 -0.1741  0.4515
 8724SOL     OW30856   8.484   1.130  10.750  0.2163 -0.1569 -0.7580
 8724SOL    HW130857   8.496   1.092  10.663  1.9511 -1.2022 -0.1153
 8724SOL    HW230858   8.567   1.174  10.769 -1.0009  2.2145 -0.5894
 8725SOL     OW30859   4.246   0.840   4.409 -0.6221 -0.3812 -0.6500
 8725SOL    HW130860   4.244   0.923   4.362 -1.3693  0.0038  0.0344
 8725SOL    HW230861   4.336   0.832   4.441 -0.9309  1.0353  0.7476
 8726SOL     OW30862  11.213   4.854   0.627 -0.2867 -0.9005  0.8142
 8726SOL    HW130863  11.293   4.807   0.605  0.3202  0.0350  0.9688
 8726SOL    HW230864  11.142   4.794   0.604  0.3647 -0.7492 -1.9249
 8727SOL     OW30865   9.292  10.010  11.712 -0.4901  0.0217 -0.2418
 8727SOL    HW130866   9.334  10.078  11.659  0.3719 -0.7168 -0.5339
 8727SOL    HW230867   9.227  10.057  11.764  0.3276  1.1165 -0.1818
 8728SOL     OW30868   0.817  11.038   5.654 -0.0529 -0.0431  0.1300
 8728SOL    HW130869   0.881  10.973   5.683  0.0405  0.1154  0.2800
 8728SOL    HW230870   0.827  11.042   5.559 -1.2109 -1.4758 -0.0909
 8729SOL     OW30871   4.781   4.651   0.210  0.1338 -0.2769 -0.1734
 8729SOL    HW130872   4.874   4.663   0.189  0.3029 -0.5882  0.3582
 8729SOL    HW230873   4.757   4.731   0.257  0.0196 -0.0157 -0.6705
 8730SOL     OW30874   7.191   6.257   9.926 -0.1002 -0.4143 -0.5032
 8730SOL    HW130875   7.169   6.209   9.846 -0.1973  0.6660 -1.1449
 8730SOL    HW230876   7.224   6.341   9.895  0.4960 -0.2265  0.5848
 8731SOL     OW30877  10.957   1.563   7.037 -0.3011  0.1339 -0.2150
 8731SOL    HW130878  11.035   1.618   7.044 -1.4605  1.7662  0.2238
 8731SOL    HW230879  10.969   1.496   7.105  0.3654  0.8055  0.3474
 8732SOL     OW30880  10.525   0.841   8.614 -0.6551  0.5572 -0.3100
 8732SOL    HW130881  10.476   0.923   8.620  0.1276  1.0407 -0.3853
 8732SOL    HW230882  10.462   0.774   8.638 -1.3812  1.1569 -0.4937
 8733SOL     OW30883   9.393   3.965   0.929 -0.3531  0.2051 -0.1711
 8733SOL    HW130884   9.341   3.976   0.849 -0.9382  0.8260  0.2730
 8733SOL    HW230885   9.474   3.924   0.900 -0.3943  0.7769 -1.1412
 8734SOL     OW30886   4.267  11.364   6.641  0.1189 -0.5015 -0.5793
 8734SOL    HW130887   4.297  11.278   6.668 -0.7514 -1.0376 -1.2833
 8734SOL    HW230888   4.175  11.367   6.665  0.1788  0.2970 -0.4144
 8735SOL     OW30889   2.465  10.531   5.979  0.2402  0.0963 -0.1597
 8735SOL    HW130890   2.465  10.439   6.007 -3.1924 -0.9757 -3.0111
 8735SOL    HW230891   2.539  10.537   5.919  1.6766 -0.1746  1.4917
 8736SOL     OW30892   3.065  11.119   7.392  0.0678 -0.3685  0.0952
 8736SOL    HW130893   2.971  11.138   7.398  0.1498  0.7625 -1.6380
 8736SOL    HW230894   3.103  11.164   7.468 -0.5014  1.4876 -0.6535
 8737SOL     OW30895  10.467   7.796   8.145 -0.6017 -0.3957  0.2932
 8737SOL    HW130896  10.438   7.884   8.169 -0.2310 -0.2575  0.2437
 8737SOL    HW230897  10.498   7.805   8.055  2.0002  0.0567  1.1332
 8738SOL     OW30898   7.786   4.100  10.857  0.4353 -0.5703  0.5577
 8738SOL    HW130899   7.702   4.138  10.830 -1.1108 -1.3106  3.8454
 8738SOL    HW230900   7.787   4.013  10.818 -1.1635 -1.1825  1.7827
 8739SOL     OW30901   8.618  10.884   7.729 -0.2251  0.2648  0.1340
 8739SOL    HW130902   8.549  10.914   7.671 -0.2133 -0.5288 -0.3046
 8739SOL    HW230903   8.687  10.950   7.721 -0.1621  0.0944 -0.8784
 8740SOL     OW30904   2.939   3.557   8.994  0.2875 -0.2815 -0.6536
 8740SOL    HW130905   3.002   3.599   8.934 -0.6644 -0.9437 -2.1885
 8740SOL    HW230906   2.936   3.614   9.070 -0.2646  1.9683 -2.2732
 8741SOL     OW30907   9.499   5.170  10.159  0.3551  0.6174  0.3071
 8741SOL    HW130908   9.431   5.220  10.205  0.1973  0.7617 -0.0823
 8741SOL    HW230909   9.581   5.203  10.195  0.2049 -0.2444  1.4911
 8742SOL     OW30910   7.066   9.595   7.632 -0.3851 -0.2220 -0.0440
 8742SOL    HW130911   6.987   9.586   7.684  0.1000 -0.1154  0.7220
 8742SOL    HW230912   7.136   9.610   7.696  0.6280 -2.5223 -0.5037
 8743SOL     OW30913   6.646   0.040   8.209 -0.5579  0.4479 -1.0626
 8743SOL    HW130914   6.618  -0.034   8.155 -3.7670  0.4230  0.3601
 8743SOL    HW230915   6.616   0.117   8.160 -0.5025  0.6057 -0.8462
 8744SOL     OW30916   4.276   1.418   8.892 -0.4424  0.4359 -0.2565
 8744SOL    HW130917   4.188   1.379   8.898 -0.1735  0.0183  1.4976
 8744SOL    HW230918   4.262   1.511   8.910 -0.4548  0.2422  0.8105
 8745SOL     OW30919   9.670   9.097   5.741 -0.0133 -0.5968  0.7233
 8745SOL    HW130920   9.734   9.165   5.719  0.8868 -1.4055  0.7944
 8745SOL    HW230921   9.624   9.080   5.659  1.7388 -1.9401 -0.0277
 8746SOL     OW30922   8.009   4.771  11.345  0.1607 -0.3931 -0.3400
 8746SOL    HW130923   7.955   4.698  11.313 -0.0903 -1.1437  1.6655
 8746SOL    HW230924   7.976   4.788  11.433  1.9356  0.4322  0.1999
 8747SOL     OW30925   4.651  11.888   7.571  0.2492 -0.1271  0.3544
 8747SOL    HW130926   4.711  11.956   7.542  0.3014 -0.7886 -1.1658
 8747SOL    HW230927   4.581  11.887   7.506  0.1670 -1.3954  0.4246
 8748SOL     OW30928  11.765  11.007   6.389  0.3535 -0.0588  0.3164
 8748SOL    HW130929  11.723  10.921   6.397  0.5787 -0.0741  1.5223
 8748SOL    HW230930  11.708  11.065   6.439  1.5224 -0.0054  1.6534
 8749SOL     OW30931   3.975   1.634   6.155  0.2005  0.1208  0.1012
 8749SOL    HW130932   3.911   1.565   6.174  2.0601 -2.1749 -1.3953
 8749SOL    HW230933   3.921   1.710   6.131 -1.9421 -0.6267  2.1654
 8750SOL     OW30934  10.244   6.293   9.128 -0.0932  0.0496  0.3136
 8750SOL    HW130935  10.317   6.351   9.105  0.8262 -0.7437  1.1325
 8750SOL    HW230936  10.263   6.212   9.080 -0.1183 -0.3529  0.9723
 8751SOL     OW30937   6.111   3.660   4.031 -0.3700 -0.0093 -0.0907
 8751SOL    HW130938   6.197   3.629   4.059  0.1548  0.3108 -1.2714
 8751SOL    HW230939   6.096   3.616   3.947 -0.3604  1.5992 -0.9811
 8752SOL     OW30940   2.499   6.842   4.347 -0.7552  0.1610  0.5188
 8752SOL    HW130941   2.469   6.931   4.328 -0.6712  0.1373  0.2738
 8752SOL    HW230942   2.592   6.852   4.367 -0.7753  0.1449  0.6231
 8753SOL     OW30943  11.980   6.238   5.914 -0.1578 -0.1895  0.4001
 8753SOL    HW130944  11.977   6.333   5.906  0.1283 -0.1076  1.1571
 8753SOL    HW230945  12.072   6.215   5.898 -0.5049 -0.5061 -1.3131
 8754SOL     OW30946  10.071   5.330   7.769 -0.2563 -0.1369  0.0361
 8754SOL    HW130947  10.017   5.360   7.696 -4.8603 -2.6055  2.0119
 8754SOL    HW230948  10.083   5.236   7.753 -0.5584 -0.5410  1.9196
 8755SOL     OW30949   9.904   5.087   8.135 -0.2045  0.5353  0.3907
 8755SOL    HW130950   9.849   5.020   8.175 -1.2155  0.0747 -1.5921
 8755SOL    HW230951   9.991   5.049   8.131 -0.6140 -0.3929 -0.0377
 8756SOL     OW30952   0.600   9.428  11.734 -0.2505  0.0223 -0.4215
 8756SOL    HW130953   0.637   9.482  11.664 -0.2468  2.8600  1.6074
 8756SOL    HW230954   0.521   9.390  11.695  0.1187  0.9204 -2.1769
 8757SOL     OW30955   0.423   2.923   1.540  0.3145 -0.2303 -0.4321
 8757SOL    HW130956   0.418   2.909   1.445 -0.1330 -1.4014 -0.2473
 8757SOL    HW230957   0.337   2.897   1.572  0.6560 -0.3836  0.3633
 8758SOL     OW30958   2.983   4.639   7.275 -0.6491  0.1340  0.0204
 8758SOL    HW130959   2.986   4.687   7.357  1.6342 -0.9344  0.6539
 8758SOL    HW230960   2.890   4.637   7.251 -1.2103  1.6153  1.8457
 8759SOL     OW30961   4.272   2.917   3.524  0.7604  0.2130 -0.4480
 8759SOL    HW130962   4.226   2.977   3.465  3.0080  0.7302 -1.7762
 8759SOL    HW230963   4.221   2.920   3.605  0.5350  3.6974 -0.5598
 8760SOL     OW30964  11.597   6.766   8.492 -0.4374 -0.0806 -0.2524
 8760SOL    HW130965  11.583   6.858   8.473  0.1677  0.0300 -0.2009
 8760SOL    HW230966  11.612   6.763   8.587  0.9527 -0.0274 -0.4441
 8761SOL     OW30967   6.356  11.897   7.809 -0.6555  0.2941 -1.0692
 8761SOL    HW130968   6.371  11.989   7.788  0.7788 -0.1832 -2.3316
 8761SOL    HW230969   6.333  11.856   7.726 -0.8393 -0.5726 -0.6087
 8762SOL     OW30970   1.407   5.274   3.933 -0.5992 -0.0080 -0.1674
 8762SOL    HW130971   1.426   5.363   3.902 -2.6589 -0.4371 -3.1158
 8762SOL    HW230972   1.350   5.286   4.009 -0.8705  1.2047 -0.5336
 8763SOL     OW30973   8.831   0.744  11.116  0.1061  0.3805 -0.0378
 8763SOL    HW130974   8.923   0.726  11.095  0.3893 -0.3099  1.6109
 8763SOL    HW230975   8.793   0.776  11.034  2.1880  2.2141 -0.3838
 8764SOL     OW30976   1.522   0.330   5.751  0.5698 -0.2054  0.1658
 8764SOL    HW130977   1.595   0.274   5.778 -0.0998 -1.1768  0.0466
 8764SOL    HW230978   1.457   0.268   5.717 -0.2889  0.6356  0.2465
 8765SOL     OW30979   8.259  11.641   2.071  0.0702  0.0392 -0.3546
 8765SOL    HW130980   8.323  11.677   2.010 -0.6319  1.0221 -0.5307
 8765SOL    HW230981   8.299  11.559   2.102  1.1962  0.3976 -0.8044
 8766SOL     OW30982   4.868   1.456   3.555  0.1251 -0.0690 -0.1979
 8766SOL    HW130983   4.921   1.420   3.626  0.4201 -0.7244 -0.7443
 8766SOL    HW230984   4.887   1.400   3.479  0.1669  0.8983 -0.9202
 8767SOL     OW30985   3.184   9.580   6.760  0.1612  0.3702 -0.3901
 8767SOL    HW130986   3.241   9.575   6.684 -0.1694 -0.9614 -0.5722
 8767SOL    HW230987   3.202   9.666   6.798 -0.7237  1.7152 -2.7707
 8768SOL     OW30988   1.127   1.259   5.916 -0.4797  0.0044  0.3416
 8768SOL    HW130989   1.128   1.214   6.000 -0.6857 -0.9997 -0.1866
 8768SOL    HW230990   1.091   1.346   5.936 -1.9952 -0.7540  1.0233
 8769SOL     OW30991   4.326  11.262  11.618 -0.1862  0.2004  0.0524
 8769SOL    HW130992   4.386  11.188  11.630  0.4350  0.9185  1.5255
 8769SOL    HW230993   4.327  11.277  11.523  1.3972 -0.2739 -0.0340
 8770SOL     OW30994  11.994   1.842   7.966 -0.2468 -0.1578 -0.8299
 8770SOL    HW130995  12.052   1.888   8.027 -0.0213 -0.3218 -0.9148
 8770SOL    HW230996  11.955   1.772   8.019  1.4067 -1.5171 -1.2912
 8771SOL     OW30997   8.469   7.604   5.024  0.5394 -0.3365  0.5928
 8771SOL    HW130998   8.396   7.565   4.977  1.4443  0.5914 -1.6809
 8771SOL    HW230999   8.428   7.650   5.098 -0.8307 -2.5625  1.3119
 8772SOL     OW31000   6.691  11.532   8.175  0.2916  0.4393  0.0167
 8772SOL    HW131001   6.729  11.456   8.132  0.5508  1.1446 -1.0427
 8772SOL    HW231002   6.760  11.564   8.233  0.1851 -0.1224  0.4557
 8773SOL     OW31003   5.373   6.270   4.499  0.2390 -0.3891  0.2093
 8773SOL    HW131004   5.346   6.179   4.509  0.6519 -0.3779  1.6795
 8773SOL    HW231005   5.465   6.266   4.473 -0.2916 -0.3932 -1.7659
 8774SOL     OW31006   8.448   9.826   1.756  0.7022  0.6105  0.0863
 8774SOL    HW131007   8.437   9.873   1.673 -0.5481  0.4077  0.1116
 8774SOL    HW231008   8.431   9.892   1.823 -0.9198  0.1930  0.1237
 8775SOL     OW31009   1.968   6.601   0.855  0.7035 -0.2449 -0.2352
 8775SOL    HW131010   2.062   6.583   0.859  0.8525  0.2110 -1.3156
 8775SOL    HW231011   1.930   6.544   0.922  1.9079  0.7384  1.3532
 8776SOL     OW31012   4.164   0.971  11.481 -0.5099  0.2054 -0.2753
 8776SOL    HW131013   4.132   0.995  11.394  0.5305 -0.3669 -0.8534
 8776SOL    HW231014   4.229   1.038  11.502 -0.4506  0.1052 -0.1362
 8777SOL     OW31015   0.125  11.667   4.360  0.2804 -0.0663 -0.4293
 8777SOL    HW131016   0.152  11.601   4.424  0.1688  1.9228  1.8140
 8777SOL    HW231017   0.193  11.663   4.293  0.8169 -1.7469  0.1388
 8778SOL     OW31018   4.197   6.358   0.365 -0.4817  0.2512 -0.4820
 8778SOL    HW131019   4.203   6.315   0.450  1.5325 -1.0228 -1.1756
 8778SOL    HW231020   4.244   6.440   0.376 -0.7382  0.3598 -0.2081
 8779SOL     OW31021   0.107   9.953   1.824 -0.6272  0.1408  0.1260
 8779SOL    HW131022   0.118   9.983   1.914  0.2869  0.7374 -0.1689
 8779SOL    HW231023   0.016   9.972   1.803 -0.4798  1.2878  0.4692
 8780SOL     OW31024   1.452   5.900   4.865 -0.1046 -0.0238 -0.1962
 8780SOL    HW131025   1.429   5.987   4.833 -0.9655 -0.8910 -2.0774
 8780SOL    HW231026   1.547   5.897   4.864 -0.0485  1.0673  0.4539
 8781SOL     OW31027   2.779   2.733   2.605  0.4191 -0.1937 -0.1573
 8781SOL    HW131028   2.825   2.650   2.597 -2.9995 -2.4613  1.0510
 8781SOL    HW231029   2.686   2.708   2.612 -0.6904  3.6249  1.8072
 8782SOL     OW31030   5.282   8.897   5.238  0.4864 -0.6644 -1.2243
 8782SOL    HW131031   5.263   8.900   5.332 -0.0959 -1.0617 -1.3214
 8782SOL    HW231032   5.326   8.979   5.220 -2.4990  1.0523 -1.2687
 8783SOL     OW31033   8.946   2.290   2.654  0.5709 -0.2407  0.0086
 8783SOL    HW131034   8.950   2.312   2.561  2.0251 -1.1761 -0.1675
 8783SOL    HW231035   8.861   2.247   2.664 -0.8925  2.3348 -0.2723
 8784SOL     OW31036   1.270  11.883  11.977  0.2221  0.3345 -0.3629
 8784SOL    HW131037   1.186  11.914  12.011 -0.6402  0.2704 -2.3044
 8784SOL    HW231038   1.320  11.964  11.961 -0.8322  0.6302 -2.4613
 8785SOL     OW31039   6.858   1.691   1.574 -0.2680  0.6542  0.1070
 8785SOL    HW131040   6.856   1.756   1.644 -0.6595  1.7250 -0.8535
 8785SOL    HW231041   6.879   1.742   1.495  1.7502 -0.7366 -0.3398
 8786SOL     OW31042  11.218   4.655   2.200 -0.2652  0.5331 -0.0438
 8786SOL    HW131043  11.283   4.725   2.210 -1.0596  1.3341 -0.2846
 8786SOL    HW231044  11.183   4.667   2.112 -0.6086  0.0055  0.0165
 8787SOL     OW31045   0.829   5.302   1.258  0.4310  0.0648 -0.0246
 8787SOL    HW131046   0.858   5.351   1.336  0.1950  0.1272  0.0274
 8787SOL    HW231047   0.909   5.265   1.221  0.5275 -0.0957  0.3385
 8788SOL     OW31048   6.410  10.097   2.291 -0.1920 -0.0036  0.3232
 8788SOL    HW131049   6.496  10.109   2.250 -0.5825  0.4175 -0.4047
 8788SOL    HW231050   6.413  10.009   2.328 -0.2454 -0.9347 -1.7074
 8789SOL     OW31051   1.869   6.344   2.017 -0.3093 -0.5219  0.0937
 8789SOL    HW131052   1.891   6.252   2.003  0.5173  0.0101 -2.6486
 8789SOL    HW231053   1.864   6.382   1.929 -2.4673  1.6748  1.0355
 8790SOL     OW31054   1.042  11.580   6.483  0.1002 -0.3856  0.2739
 8790SOL    HW131055   0.967  11.538   6.525  0.9771 -0.1361  2.1551
 8790SOL    HW231056   1.016  11.672   6.477  0.1601 -0.3392  0.7111
 8791SOL     OW31057  10.171   0.983   1.550 -0.2006  0.3689  0.2217
 8791SOL    HW131058  10.250   0.969   1.603 -1.0602 -0.6415  1.2872
 8791SOL    HW231059  10.203   0.983   1.459  0.5335 -4.8985  0.1876
 8792SOL     OW31060  10.199   1.492   1.735  0.0130 -0.0149 -0.1398
 8792SOL    HW131061  10.215   1.398   1.729  0.7143  0.1435 -0.9679
 8792SOL    HW231062  10.120   1.506   1.683 -1.0317 -0.3422  1.2813
 8793SOL     OW31063   1.174  11.772   5.651 -0.0769 -0.2943  0.0974
 8793SOL    HW131064   1.249  11.789   5.594 -0.6220  0.3326 -0.4447
 8793SOL    HW231065   1.100  11.759   5.591 -0.3236 -1.3479  0.6052
 8794SOL     OW31066   5.689   5.944   6.623  0.2139 -0.7075  0.9870
 8794SOL    HW131067   5.637   5.944   6.703  0.0991 -0.9277  0.9129
 8794SOL    HW231068   5.773   5.905   6.648  1.6860  2.6495  1.9617
 8795SOL     OW31069  10.560   7.505   8.371  0.0333  0.6208  0.4424
 8795SOL    HW131070  10.616   7.583   8.372  0.8658  0.0278  1.5547
 8795SOL    HW231071  10.582   7.461   8.289  1.1962  0.4059  0.8582
 8796SOL     OW31072   9.701   4.391   2.875  0.7625 -0.1254  0.4596
 8796SOL    HW131073   9.624   4.412   2.927  0.2383  0.3061 -0.4505
 8796SOL    HW231074   9.682   4.305   2.839  0.5265  0.1357 -0.0583
 8797SOL     OW31075   5.240  11.078   1.383  0.1096  0.3503  0.0524
 8797SOL    HW131076   5.207  11.002   1.334 -0.9561 -0.4959  1.9656
 8797SOL    HW231077   5.324  11.049   1.417  0.0509  0.2981  0.1539
 8798SOL     OW31078  11.349  10.280   1.155  0.1492  0.0887 -0.0818
 8798SOL    HW131079  11.319  10.320   1.237  1.3599  0.6636  0.1189
 8798SOL    HW231080  11.285  10.211   1.136 -0.3131  0.1401  1.1948
 8799SOL     OW31081  10.455   6.461   9.048  0.0825  0.4115  0.2670
 8799SOL    HW131082  10.427   6.510   8.971  1.8237  1.2858  0.1469
 8799SOL    HW231083  10.512   6.392   9.013  0.0545  0.1677  0.6927
 8800SOL     OW31084   5.149   7.085  10.346 -0.4838 -0.0825  0.0125
 8800SOL    HW131085   5.210   7.101  10.273  0.1836  0.2338  0.6339
 8800SOL    HW231086   5.062   7.101  10.308 -0.2687 -1.4183 -1.1333
 8801SOL     OW31087   5.906   6.141   9.629 -0.4203  0.1297 -0.2057
 8801SOL    HW131088   5.990   6.095   9.628 -1.4061 -1.8833 -2.7915
 8801SOL    HW231089   5.873   6.129   9.718  2.3112  1.6924  1.1217
 8802SOL     OW31090   4.542  11.354  10.998  0.2021 -0.1220 -0.5104
 8802SOL    HW131091   4.464  11.315  11.038  0.6563 -1.6574 -1.0340
 8802SOL    HW231092   4.554  11.437  11.044 -0.7855 -0.6278  0.7177
 8803SOL     OW31093   3.541   8.425   7.390  0.0544 -0.2377 -0.5447
 8803SOL    HW131094   3.602   8.355   7.368  1.6826  1.1429 -0.6190
 8803SOL    HW231095   3.595   8.503   7.396 -1.8969  1.3111 -1.8495
 8804SOL     OW31096   1.610  10.688   7.285 -0.5717 -0.2319 -0.0184
 8804SOL    HW131097   1.547  10.760   7.288 -0.5036 -0.0349 -2.1389
 8804SOL    HW231098   1.560  10.613   7.252 -0.5165 -1.0740  1.6879
 8805SOL     OW31099  11.015   5.193   2.416  0.1609 -0.1091  0.0310
 8805SOL    HW131100  10.921   5.209   2.428  0.4674  1.1687  0.7987
 8805SOL    HW231101  11.023   5.098   2.422 -1.0206 -0.2055  0.4257
 8806SOL     OW31102   1.114   3.332   3.281 -0.5885 -0.3318  0.8021
 8806SOL    HW131103   1.147   3.300   3.365 -0.9157 -0.9243  0.7115
 8806SOL    HW231104   1.099   3.253   3.229  0.9376  0.0629 -0.3368
 8807SOL     OW31105   4.602   6.814  10.090 -0.1650 -0.4801 -0.1894
 8807SOL    HW131106   4.527   6.841  10.038 -0.6280  0.4585  0.9255
 8807SOL    HW231107   4.566   6.758  10.158  0.1633 -0.1670  0.2471
 8808SOL     OW31108   0.941   8.398   6.717  0.1176 -0.6780  0.0451
 8808SOL    HW131109   0.853   8.432   6.733 -0.0540 -0.7822 -0.6453
 8808SOL    HW231110   0.997   8.475   6.716  0.1368 -0.6642  1.1057
 8809SOL     OW31111  11.225   8.820   7.098  0.1745  0.0943 -0.1744
 8809SOL    HW131112  11.280   8.897   7.108  1.1547 -0.7465  1.3128
 8809SOL    HW231113  11.281   8.755   7.055  0.4492 -0.7960  1.4264
 8810SOL     OW31114   6.283   6.500  11.048  0.3558 -0.5886  0.1417
 8810SOL    HW131115   6.266   6.420  11.097 -1.1033 -1.2753 -1.3931
 8810SOL    HW231116   6.370   6.527  11.075  0.2746 -1.8571  1.8102
 8811SOL     OW31117  10.688   4.363   2.676 -0.0789 -0.1691 -0.0670
 8811SOL    HW131118  10.613   4.319   2.635  0.8429 -0.2077 -1.8203
 8811SOL    HW231119  10.658   4.452   2.693 -0.6643 -0.3132 -0.3254
 8812SOL     OW31120   1.968   3.093   9.278 -0.1917  0.3452 -0.0649
 8812SOL    HW131121   1.947   3.001   9.294 -1.6523  0.7364  0.4680
 8812SOL    HW231122   2.061   3.100   9.299 -0.7898 -0.2677  3.5712
 8813SOL     OW31123   2.896   6.438   7.642  0.0452 -0.0694  0.3736
 8813SOL    HW131124   2.913   6.344   7.644 -0.8381 -0.2573 -0.3343
 8813SOL    HW231125   2.982   6.478   7.637  0.6304 -0.7063  3.2609
 8814SOL     OW31126   9.372   5.797   8.213  0.4123 -0.2887 -0.2509
 8814SOL    HW131127   9.316   5.859   8.259  0.3100 -0.1590 -0.5481
 8814SOL    HW231128   9.312   5.741   8.165  0.5470  0.2868 -1.1284
 8815SOL     OW31129   2.976   9.947  10.247 -0.2075  0.2575  0.4125
 8815SOL    HW131130   2.992  10.036  10.279 -2.4731  0.0080  2.5222
 8815SOL    HW231131   3.056   9.899  10.269  0.7871  1.5920 -0.1743
 8816SOL     OW31132   7.717   8.378   0.347 -0.2938  0.4164 -0.6561
 8816SOL    HW131133   7.778   8.305   0.358 -1.8180 -0.5928  2.1242
 8816SOL    HW231134   7.672   8.359   0.265  1.1541 -0.2972 -1.3306
 8817SOL     OW31135  10.497   8.211   2.637 -0.1540 -0.0802  0.1678
 8817SOL    HW131136  10.468   8.208   2.728 -0.8237  0.1075 -0.0359
 8817SOL    HW231137  10.576   8.157   2.635 -1.2011 -1.6812  0.4860
 8818SOL     OW31138   6.729   8.169   6.494  0.3144 -0.4587  0.1687
 8818SOL    HW131139   6.652   8.141   6.544 -1.2603  1.9431 -0.6920
 8818SOL    HW231140   6.755   8.252   6.535  1.4359 -0.4245 -0.5688
 8819SOL     OW31141   5.685   5.242   0.201  0.3356 -0.5781 -0.0190
 8819SOL    HW131142   5.679   5.327   0.159  1.0659 -0.9135 -0.8280
 8819SOL    HW231143   5.710   5.261   0.291 -0.7473  0.1194  0.1458
 8820SOL     OW31144   0.034   3.498   0.793 -0.4112  0.0526 -0.3619
 8820SOL    HW131145   0.003   3.543   0.871  1.4325  0.6069  0.0959
 8820SOL    HW231146   0.015   3.406   0.809 -0.8227  0.2559  0.3528
 8821SOL     OW31147  11.572   3.169   2.907  0.1509  0.0146 -0.3418
 8821SOL    HW131148  11.658   3.210   2.918  0.7374 -0.9039 -1.3436
 8821SOL    HW231149  11.552   3.131   2.993  0.4839  0.7142  0.0517
 8822SOL     OW31150   8.904   8.655   8.531 -0.1004 -0.3746  0.1143
 8822SOL    HW131151   8.995   8.630   8.546  0.3319  0.5646 -0.7709
 8822SOL    HW231152   8.903   8.688   8.440 -1.7483 -2.2514 -0.6123
 8823SOL     OW31153   5.675  11.206   1.231  0.6092  0.2614 -0.3338
 8823SOL    HW131154   5.750  11.231   1.178  0.2205  2.4026  0.0480
 8823SOL    HW231155   5.701  11.122   1.271  2.0044  0.0120 -1.6731
 8824SOL     OW31156  10.340  11.942   6.864  0.4043  0.7120  0.3055
 8824SOL    HW131157  10.370  12.028   6.838 -0.5569  0.5454 -1.5445
 8824SOL    HW231158  10.411  11.883   6.840  1.4469  1.0132  2.3922
 8825SOL     OW31159   4.299  10.818   3.772  0.3203 -0.1658 -0.1106
 8825SOL    HW131160   4.286  10.778   3.687 -0.4927  0.8919 -0.5014
 8825SOL    HW231161   4.368  10.883   3.758  0.4513 -0.2495  0.1335
 8826SOL     OW31162   9.854  11.334   2.572 -0.5730  0.3619  0.6580
 8826SOL    HW131163   9.900  11.294   2.498 -1.1461  2.0990 -0.7002
 8826SOL    HW231164   9.794  11.265   2.601 -1.2898  0.0269 -1.3940
 8827SOL     OW31165   4.629   5.020   3.436  0.5463 -0.3108 -0.1528
 8827SOL    HW131166   4.717   5.006   3.403  0.4641 -0.2622 -0.3969
 8827SOL    HW231167   4.614   4.947   3.497  0.5466 -0.6421 -0.5414
 8828SOL     OW31168   1.757  11.457   1.682 -0.3051  0.5344  0.5349
 8828SOL    HW131169   1.767  11.542   1.725  0.5803  0.7449 -0.0427
 8828SOL    HW231170   1.704  11.405   1.742 -0.5716  1.3867  1.0539
 8829SOL     OW31171   2.299   3.167   3.878 -0.1221 -0.4744 -0.4099
 8829SOL    HW131172   2.203   3.164   3.884 -0.0948 -1.7486 -0.3290
 8829SOL    HW231173   2.320   3.260   3.885 -1.3648 -0.1536 -0.6395
 8830SOL     OW31174   3.480   7.262   3.721 -0.0406  0.4149 -0.0667
 8830SOL    HW131175   3.391   7.228   3.719 -0.4533  1.3821  0.9553
 8830SOL    HW231176   3.519   7.224   3.799  0.7743 -0.7552 -1.0156
 8831SOL     OW31177   2.592   0.263   9.865 -0.0235 -0.3549 -0.2204
 8831SOL    HW131178   2.599   0.259   9.769 -0.8675 -0.1718 -0.2959
 8831SOL    HW231179   2.647   0.337   9.889  0.0327 -0.2735 -0.5868
 8832SOL     OW31180   3.497   7.058   5.501  0.3174  0.2064 -0.4597
 8832SOL    HW131181   3.469   7.094   5.417 -3.9192 -0.3818  0.5029
 8832SOL    HW231182   3.487   6.963   5.491  1.5629 -0.0126  0.1739
 8833SOL     OW31183   5.987   3.701  10.319  0.3505 -0.2099  0.3722
 8833SOL    HW131184   5.916   3.764  10.307  0.9404  0.3440 -0.2412
 8833SOL    HW231185   6.066   3.748  10.293  0.7073 -1.4458 -0.8634
 8834SOL     OW31186   3.212   8.564   7.534  0.1827  0.1746  0.9155
 8834SOL    HW131187   3.118   8.557   7.518  0.1343 -1.4448  1.7814
 8834SOL    HW231188   3.220   8.621   7.611  0.0265  1.5906 -0.0742
 8835SOL     OW31189   1.405  11.687   7.922  0.2415 -0.0724 -0.3340
 8835SOL    HW131190   1.403  11.737   7.840 -0.2542  1.4160  0.5471
 8835SOL    HW231191   1.496  11.657   7.929 -0.5101 -3.8794 -3.4521
 8836SOL     OW31192  11.408   3.831  10.080  0.3691  0.3332 -0.1706
 8836SOL    HW131193  11.444   3.750  10.117  0.5542 -0.0398 -1.1396
 8836SOL    HW231194  11.481   3.870  10.032  0.1929  0.9250  0.0381
 8837SOL     OW31195   8.264  10.556   5.723  0.7408  0.0927 -0.2919
 8837SOL    HW131196   8.190  10.553   5.784  0.4741 -0.2159 -0.6242
 8837SOL    HW231197   8.341  10.545   5.779  0.4808 -0.5350 -0.0452
 8838SOL     OW31198  10.458   0.075  10.516 -0.2542  0.1658  0.0375
 8838SOL    HW131199  10.522   0.072  10.587 -0.2840 -1.3192  0.0237
 8838SOL    HW231200  10.509   0.060  10.437 -0.7390 -2.5567  0.1494
 8839SOL     OW31201  11.452   1.513   3.690 -0.5942  0.1410  0.3041
 8839SOL    HW131202  11.508   1.478   3.620 -2.4283 -1.0660 -0.6583
 8839SOL    HW231203  11.418   1.435   3.734 -1.2610  0.8383  1.0584
 8840SOL     OW31204   9.295   3.360   3.512  0.4649  0.2924  0.3346
 8840SOL    HW131205   9.296   3.342   3.418 -0.9947  2.6253 -0.2130
 8840SOL    HW231206   9.326   3.278   3.552 -1.9940 -1.9890 -1.9744
 8841SOL     OW31207   7.210   3.591   5.248  0.0386 -0.1521  0.3739
 8841SOL    HW131208   7.200   3.545   5.331 -1.1671 -2.8948 -1.1672
 8841SOL    HW231209   7.154   3.543   5.187 -0.1441  2.5450 -1.7596
 8842SOL     OW31210   5.871   2.199   2.531  0.4596  0.3725  0.3528
 8842SOL    HW131211   5.885   2.227   2.622 -0.6442 -0.1198  0.6868
 8842SOL    HW231212   5.920   2.117   2.524 -0.1221 -0.0258  0.7683
 8843SOL     OW31213   6.250   5.328   6.182  0.4740  0.1203 -0.5587
 8843SOL    HW131214   6.168   5.297   6.219  0.5775 -0.0529 -0.4717
 8843SOL    HW231215   6.317   5.296   6.243  0.7508 -1.1033 -1.4598
 8844SOL     OW31216   1.949   9.669   4.134 -0.3885 -0.3311  0.4125
 8844SOL    HW131217   1.996   9.642   4.056 -0.2145  1.5080 -0.1623
 8844SOL    HW231218   1.874   9.718   4.101  0.2684  1.4110  1.3671
 8845SOL     OW31219  10.111  11.517   7.892  0.1074 -0.6916  0.5570
 8845SOL    HW131220  10.079  11.607   7.904 -0.8047 -1.1316  1.6194
 8845SOL    HW231221  10.105  11.478   7.979 -0.2863 -2.0212 -0.0454
 8846SOL     OW31222   0.042  11.750   8.486  0.1245 -0.2571  0.4547
 8846SOL    HW131223   0.092  11.832   8.478  0.7598 -0.3699  2.6207
 8846SOL    HW231224   0.105  11.682   8.463 -0.0185 -0.2191 -0.0574
 8847SOL     OW31225   2.737   1.000  10.131 -0.1382 -0.0905 -0.0561
 8847SOL    HW131226   2.646   1.028  10.116  1.0146  3.7546 -1.0379
 8847SOL    HW231227   2.753   1.023  10.223  0.7510  2.7229 -0.8111
 8848SOL     OW31228   8.584   5.915  11.867  0.1988 -0.1964  0.1470
 8848SOL    HW131229   8.606   5.956  11.783  0.0181 -0.2816  0.0555
 8848SOL    HW231230   8.668   5.888  11.903  0.6095  2.3418  1.3115
 8849SOL     OW31231   4.198  11.881  11.320 -0.1058  0.0161  0.5260
 8849SOL    HW131232   4.198  11.861  11.414 -1.3810 -0.2661  0.4809
 8849SOL    HW231233   4.110  11.858  11.290  0.2358  0.2369 -0.7188
 8850SOL     OW31234   6.500   5.819   5.498 -0.1543 -0.4155 -0.4568
 8850SOL    HW131235   6.467   5.775   5.420 -0.5984 -0.5547 -0.1924
 8850SOL    HW231236   6.436   5.888   5.516  1.0646  1.0663 -1.4856
 8851SOL     OW31237   6.904   8.516   4.581 -0.0902  0.1232 -0.0082
 8851SOL    HW131238   6.997   8.536   4.597  0.4475 -1.1263 -1.3491
 8851SOL    HW231239   6.895   8.517   4.486 -1.2707 -0.5572  0.0756
 8852SOL     OW31240   3.688   5.864   7.204 -0.4754 -0.4243  0.0751
 8852SOL    HW131241   3.744   5.787   7.210  0.2437  0.1176  0.5312
 8852SOL    HW231242   3.609   5.840   7.251  0.4107 -0.3248  1.6871
 8853SOL     OW31243   5.768   1.067   2.628 -0.8929 -0.7454 -0.1689
 8853SOL    HW131244   5.734   1.009   2.697 -1.2338 -0.1234  0.1945
 8853SOL    HW231245   5.728   1.152   2.647  0.1831 -0.2073 -0.2620
 8854SOL     OW31246   3.228   3.618   0.827 -0.2646  0.4983 -0.9380
 8854SOL    HW131247   3.255   3.700   0.870  1.8671  0.0149 -1.2369
 8854SOL    HW231248   3.250   3.631   0.735  0.7233 -0.6252 -0.8836
 8855SOL     OW31249   5.186   2.785   0.737  0.0519 -0.0816  0.4686
 8855SOL    HW131250   5.115   2.846   0.759  0.6517  0.7089  0.2769
 8855SOL    HW231251   5.147   2.698   0.746 -1.0809  0.3420 -0.0981
 8856SOL     OW31252   1.444   1.219   2.301  0.0108  0.0302  0.2637
 8856SOL    HW131253   1.355   1.221   2.339 -0.9005 -0.5767 -1.7260
 8856SOL    HW231254   1.492   1.159   2.357 -1.7863 -2.2494 -0.4815
 8857SOL     OW31255   1.961   4.665  11.614  0.0998 -0.1941  0.0305
 8857SOL    HW131256   2.008   4.736  11.657  0.3995 -1.1722  1.3793
 8857SOL    HW231257   1.882   4.706  11.579  0.7787  0.9961 -0.1553
 8858SOL     OW31258   1.007  11.358   3.848  0.0916  0.8649  0.1608
 8858SOL    HW131259   1.081  11.415   3.868 -0.0056  1.1056 -0.1643
 8858SOL    HW231260   0.965  11.398   3.772  0.7976 -0.3393 -0.9057
 8859SOL     OW31261   5.021   9.478   2.658 -0.6261  0.1731 -0.1242
 8859SOL    HW131262   5.039   9.540   2.729 -1.6877 -0.3478  0.6326
 8859SOL    HW231263   4.962   9.524   2.599 -0.5621  0.2452 -0.1329
 8860SOL     OW31264   1.304   7.101   2.822 -0.0080 -0.0354 -0.4633
 8860SOL    HW131265   1.389   7.065   2.847  0.2718  0.6076 -0.4797
 8860SOL    HW231266   1.242   7.058   2.881  0.4234  0.1106  0.1057
 8861SOL     OW31267  10.848   2.361   5.868 -0.4470 -0.3444  0.3100
 8861SOL    HW131268  10.826   2.317   5.950  2.7578 -0.1589  1.4147
 8861SOL    HW231269  10.938   2.334   5.850  0.1545  2.3453 -1.2717
 8862SOL     OW31270   4.646   2.735   8.996 -0.0332  0.0726  0.3172
 8862SOL    HW131271   4.610   2.823   8.981  0.2776 -0.3024 -3.6849
 8862SOL    HW231272   4.569   2.679   9.008 -0.2742  0.6418  1.6269
 8863SOL     OW31273   0.583   6.465   6.514  1.1544  0.2757 -0.0915
 8863SOL    HW131274   0.516   6.517   6.558  0.8354  2.0522 -2.4691
 8863SOL    HW231275   0.647   6.446   6.582 -0.6623  0.4213  1.7452
 8864SOL     OW31276  11.106   0.749   4.491  0.1357 -0.5426  0.3219
 8864SOL    HW131277  11.173   0.794   4.439 -0.7092 -1.6539 -1.8353
 8864SOL    HW231278  11.050   0.820   4.524  0.9501  0.2223  0.1112
 8865SOL     OW31279   5.848   4.224   7.872 -0.4667  0.0394  0.1040
 8865SOL    HW131280   5.939   4.223   7.900  0.1537  0.4218 -1.7725
 8865SOL    HW231281   5.840   4.150   7.811 -1.3260  0.2291 -0.0325
 8866SOL     OW31282   3.319   8.641   9.613 -0.1092 -0.1806  0.2168
 8866SOL    HW131283   3.225   8.655   9.607  0.0494  0.4311 -1.1632
 8866SOL    HW231284   3.357   8.728   9.601  0.6815 -0.7114 -1.3869
 8867SOL     OW31285   6.694   6.825   1.288 -0.0617  0.2589  0.2855
 8867SOL    HW131286   6.766   6.803   1.229 -0.4867  1.1813 -0.6102
 8867SOL    HW231287   6.720   6.790   1.373  1.0315 -0.1934 -0.2273
 8868SOL     OW31288   8.398   6.102   9.598  0.5417  0.5449 -0.4751
 8868SOL    HW131289   8.460   6.047   9.550 -0.6146 -0.1330 -1.2414
 8868SOL    HW231290   8.322   6.109   9.540 -0.5969  0.3373  0.9268
 8869SOL     OW31291   4.056   2.638   1.588  0.5683  0.2343 -0.5944
 8869SOL    HW131292   4.015   2.606   1.668 -2.0131  2.6891 -0.7885
 8869SOL    HW231293   4.095   2.722   1.613 -0.2938  1.0433 -1.8770
 8870SOL     OW31294   7.357   8.219   2.026  0.2053  0.4500  0.6665
 8870SOL    HW131295   7.408   8.238   1.947 -2.2499  1.2137 -0.8495
 8870SOL    HW231296   7.422   8.189   2.089  2.5504  1.6429 -1.0005
 8871SOL     OW31297   0.857  11.277  11.627 -0.2349 -1.0563  0.0275
 8871SOL    HW131298   0.843  11.261  11.533  1.0844  0.3443 -0.4670
 8871SOL    HW231299   0.828  11.197  11.670 -2.1709 -1.2326 -1.4486
 8872SOL     OW31300   3.782   0.042   4.538  0.1483  0.0053 -0.4893
 8872SOL    HW131301   3.689   0.018   4.537  0.3923 -1.2018  1.1279
 8872SOL    HW231302   3.788   0.119   4.481 -2.7604  3.3038  3.0817
 8873SOL     OW31303  10.939   2.884   8.167 -0.0611 -0.7924 -0.4671
 8873SOL    HW131304  10.888   2.893   8.248  0.0718  0.0726 -0.4632
 8873SOL    HW231305  10.935   2.791   8.146 -0.9209 -0.8747 -0.0024
 8874SOL     OW31306   9.832   5.196   1.771  0.1242 -0.7738 -0.5815
 8874SOL    HW131307   9.760   5.219   1.831  0.7110 -1.5039  0.4346
 8874SOL    HW231308   9.807   5.235   1.688 -0.1814  1.2275  0.3996
 8875SOL     OW31309   6.655   8.635  10.052 -0.1048  0.2447 -0.3579
 8875SOL    HW131310   6.744   8.621  10.083  0.4316  0.0885 -1.8837
 8875SOL    HW231311   6.639   8.728  10.067 -0.3055 -0.0314  1.3839
 8876SOL     OW31312   7.617   2.281   2.224  0.7805 -0.4532 -0.3542
 8876SOL    HW131313   7.605   2.376   2.213  1.3748 -0.3991 -0.5531
 8876SOL    HW231314   7.559   2.242   2.159 -0.4129 -0.2582  0.5631
 8877SOL     OW31315   3.033   3.490   0.968 -0.4305 -0.0949  0.3697
 8877SOL    HW131316   2.970   3.516   0.901 -0.2016 -0.4453  0.0161
 8877SOL    HW231317   3.116   3.530   0.942  0.1650 -1.9382 -0.7303
 8878SOL     OW31318   2.895  10.492  10.328  0.4105 -0.5671  0.1944
 8878SOL    HW131319   2.855  10.579  10.331  0.1748 -0.7058  1.9827
 8878SOL    HW231320   2.954  10.496  10.253  0.0495  0.9759 -0.0412
 8879SOL     OW31321   5.440   9.529  10.875  0.2400 -0.0442  0.4963
 8879SOL    HW131322   5.488   9.609  10.850  0.8400 -0.8270 -0.9908
 8879SOL    HW231323   5.503   9.480  10.929 -0.3416  0.7293  1.9235
 8880SOL     OW31324   7.485  10.844   0.058  0.7616  0.1783  0.3367
 8880SOL    HW131325   7.475  10.756   0.094  1.1240  0.8868  2.3146
 8880SOL    HW231326   7.482  10.902   0.134 -0.8907  2.0211 -1.0280
 8881SOL     OW31327   3.244   4.539   3.280  0.8050  0.5740  0.1284
 8881SOL    HW131328   3.205   4.470   3.226  0.2455  0.9612  0.0381
 8881SOL    HW231329   3.338   4.518   3.280  0.9117  0.8984 -1.5011
 8882SOL     OW31330  11.734   0.912  10.533  0.3186  0.1618  0.0117
 8882SOL    HW131331  11.684   0.863  10.467 -0.3401  0.0887  0.5508
 8882SOL    HW231332  11.823   0.878  10.525 -0.4394 -2.5290  1.5808
 8883SOL     OW31333  11.411   9.014   6.946  0.4613  0.1434  0.1237
 8883SOL    HW131334  11.403   9.107   6.925  0.4860  0.4612  1.4532
 8883SOL    HW231335  11.327   8.976   6.921  0.2415  0.6302  0.1209
 8884SOL     OW31336   0.227   4.387   9.132  0.0873 -0.1822  0.5613
 8884SOL    HW131337   0.291   4.430   9.076 -0.3025  0.3935  0.5522
 8884SOL    HW231338   0.176   4.332   9.073 -3.6758  4.1080 -0.7567
 8885SOL     OW31339   2.022   4.421   4.697  0.6949  0.0548 -0.1654
 8885SOL    HW131340   1.927   4.428   4.688  0.4861 -0.2209  1.4353
 8885SOL    HW231341   2.049   4.363   4.627 -0.3471 -0.0513 -0.4953
 8886SOL     OW31342   7.759   5.988   0.754  0.0162  0.4270 -0.4214
 8886SOL    HW131343   7.732   6.073   0.786 -0.4940  0.5769 -1.2163
 8886SOL    HW231344   7.765   5.999   0.659  0.1282 -0.3694 -0.5163
 8887SOL     OW31345  11.785  10.169   9.163 -0.4763  0.0313 -0.1848
 8887SOL    HW131346  11.861  10.178   9.220 -1.4610  0.3252  1.1055
 8887SOL    HW231347  11.822  10.149   9.077  1.0211 -0.8633  0.6360
 8888SOL     OW31348   3.194   2.389   6.842 -0.1425 -0.3589 -0.0788
 8888SOL    HW131349   3.252   2.465   6.834  0.9458 -1.0376  0.9257
 8888SOL    HW231350   3.208   2.358   6.932 -1.0773 -1.3402 -0.2570
 8889SOL     OW31351  10.308   4.500   9.963  0.6091 -0.1696 -0.6650
 8889SOL    HW131352  10.219   4.469   9.944  1.1124 -1.2380 -1.3974
 8889SOL    HW231353  10.356   4.420   9.985  0.9395  0.6026  1.6946
 8890SOL     OW31354   0.236   2.175   2.739  0.1841 -0.3137  0.0111
 8890SOL    HW131355   0.189   2.252   2.706 -0.3216 -1.2346 -1.5705
 8890SOL    HW231356   0.328   2.199   2.735  0.1370 -0.2880 -1.9828
 8891SOL     OW31357   4.878   1.285   5.917  0.0492  0.0992 -0.1430
 8891SOL    HW131358   4.876   1.374   5.953  1.4182 -0.5413  1.6633
 8891SOL    HW231359   4.923   1.233   5.983 -1.9933 -2.2813 -0.4812
 8892SOL     OW31360   3.325   0.696   8.126 -0.1850 -0.4664  0.0767
 8892SOL    HW131361   3.322   0.789   8.149  0.5224 -0.2269 -0.7091
 8892SOL    HW231362   3.375   0.694   8.044  0.8770 -1.6531  0.7174
 8893SOL     OW31363  11.418   2.333   8.484 -0.1670  0.3345 -0.6445
 8893SOL    HW131364  11.428   2.395   8.412  1.5743  0.5642 -0.2545
 8893SOL    HW231365  11.440   2.248   8.446 -0.5706  0.2609 -0.7091
 8894SOL     OW31366   8.517   0.045   0.517 -0.1689 -0.0951  0.1222
 8894SOL    HW131367   8.575   0.037   0.593 -1.0063 -0.6657  0.7113
 8894SOL    HW231368   8.495  -0.045   0.494  1.9106 -0.1194 -2.2733
 8895SOL     OW31369  10.808   4.764  10.749  0.7666 -0.2048  0.5489
 8895SOL    HW131370  10.862   4.836  10.781 -1.2906  0.2725  3.3704
 8895SOL    HW231371  10.721   4.781  10.787 -0.4679 -2.7898 -0.8628
 8896SOL     OW31372  10.658   7.311   2.450  0.5120 -0.1472 -0.4296
 8896SOL    HW131373  10.608   7.376   2.500  2.1630  0.9581 -0.1245
 8896SOL    HW231374  10.702   7.363   2.382 -0.9455 -1.4782 -2.5004
 8897SOL     OW31375   7.030   6.069   9.111 -0.3829  0.0025 -0.0709
 8897SOL    HW131376   7.065   6.061   9.200 -1.8383  1.2274  0.6573
 8897SOL    HW231377   6.956   6.130   9.120 -1.4475 -0.9515 -1.8739
 8898SOL     OW31378   7.994   2.901   2.749  0.7393 -0.0856  0.1317
 8898SOL    HW131379   8.008   2.807   2.756 -1.5129 -0.4696  0.4030
 8898SOL    HW231380   7.930   2.910   2.678  1.8458  1.3647 -0.7349
 8899SOL     OW31381   7.179   1.760   7.851  0.1870 -0.4007  0.3816
 8899SOL    HW131382   7.180   1.702   7.928  0.8528 -1.2329 -0.2408
 8899SOL    HW231383   7.266   1.800   7.850  0.5157 -1.1094 -0.4591
 8900SOL     OW31384   1.324   6.867  11.712  0.1646  0.2454 -0.8283
 8900SOL    HW131385   1.329   6.773  11.731 -1.2807  0.1057 -0.9732
 8900SOL    HW231386   1.408   6.888  11.671  0.1796 -1.1907 -1.6132
 8901SOL     OW31387  11.342   5.047   8.896 -0.5467 -0.2388 -0.0127
 8901SOL    HW131388  11.340   4.985   8.969  0.5313  1.8025  1.8800
 8901SOL    HW231389  11.427   5.032   8.855 -1.1921 -1.4538 -0.9744
 8902SOL     OW31390   2.713   5.572  11.344  0.7873  1.2227 -0.8266
 8902SOL    HW131391   2.656   5.622  11.402  0.4127  0.7975 -0.8216
 8902SOL    HW231392   2.653   5.527  11.285  1.1472  1.3049 -1.2610
 8903SOL     OW31393   9.377   3.396   5.917 -0.1519 -0.2070 -0.4906
 8903SOL    HW131394   9.408   3.330   5.980 -0.0929  0.4693  0.2044
 8903SOL    HW231395   9.284   3.375   5.904 -0.7793  0.9694  1.5784
 8904SOL     OW31396   5.826   0.850   9.857  0.2905  0.0768 -0.0742
 8904SOL    HW131397   5.831   0.779   9.921 -0.4617  1.1496  1.2274
 8904SOL    HW231398   5.908   0.898   9.867  0.4992 -0.1891 -0.4664
 8905SOL     OW31399   1.955   0.578   4.875  0.2975 -0.2224 -0.0714
 8905SOL    HW131400   1.893   0.622   4.817 -0.4153 -0.2259  0.6739
 8905SOL    HW231401   2.039   0.621   4.858  0.4389 -1.1981 -2.1786
 8906SOL     OW31402   5.610   2.485   0.887 -0.1637  0.0316  0.8290
 8906SOL    HW131403   5.645   2.455   0.971 -0.1889 -0.8925  0.5175
 8906SOL    HW231404   5.527   2.437   0.878  0.0366 -0.1777  0.0928
 8907SOL     OW31405   2.482   7.085   2.248  0.2388 -0.5207 -0.0830
 8907SOL    HW131406   2.564   7.037   2.237  1.4324  1.7803 -2.0162
 8907SOL    HW231407   2.500   7.147   2.319 -0.4462 -1.1614  0.6696
 8908SOL     OW31408  10.281   1.251   1.633 -0.0527 -0.4363  0.2911
 8908SOL    HW131409  10.320   1.289   1.554 -1.2258 -0.6524 -0.4184
 8908SOL    HW231410  10.305   1.159   1.629 -0.7894 -0.6179 -0.2704
 8909SOL     OW31411   7.615   3.022   4.029  0.0337 -0.2606 -0.0498
 8909SOL    HW131412   7.564   3.014   3.949  2.9780 -0.5549 -2.0696
 8909SOL    HW231413   7.647   2.934   4.047  1.0355  0.1345  0.2198
 8910SOL     OW31414   2.149   0.689   4.621 -0.2023  0.6910 -0.0558
 8910SOL    HW131415   2.073   0.741   4.595 -0.7426 -0.5011 -0.9634
 8910SOL    HW231416   2.171   0.638   4.543  1.3998  0.8312  0.2600
 8911SOL     OW31417  11.850   9.017   7.263  0.2999 -0.3804 -0.6076
 8911SOL    HW131418  11.760   8.985   7.256 -0.4841  1.8445 -1.5692
 8911SOL    HW231419  11.900   8.962   7.202 -0.3978 -1.5375 -0.1742
 8912SOL     OW31420   3.135   8.814   7.720  0.4982 -0.3323  0.4303
 8912SOL    HW131421   3.095   8.865   7.649  1.4340  0.3825  0.4027
 8912SOL    HW231422   3.061   8.791   7.776 -0.1365 -0.1515 -0.3094
 8913SOL     OW31423  10.613   7.963   6.894  0.0229  0.2154 -0.4297
 8913SOL    HW131424  10.631   7.870   6.879  0.7677  0.4950 -1.3783
 8913SOL    HW231425  10.605   7.971   6.989  1.6502 -0.5376 -0.1938
 8914SOL     OW31426   0.037  11.129   9.135  0.1173 -0.3814  0.1706
 8914SOL    HW131427   0.101  11.200   9.145  2.0860 -1.8758 -1.0331
 8914SOL    HW231428  -0.007  11.148   9.053  1.3170 -0.9975 -0.6441
 8915SOL     OW31429   0.181  10.073   9.905  0.4075 -0.4174  0.7183
 8915SOL    HW131430   0.249  10.010   9.880 -2.1104 -2.6427 -1.0943
 8915SOL    HW231431   0.119  10.071   9.833 -1.5809  1.5619  2.2451
 8916SOL     OW31432   4.364  11.956  11.806 -0.6555  0.3292 -0.2219
 8916SOL    HW131433   4.337  12.026  11.866 -0.2985  0.2322  0.0537
 8916SOL    HW231434   4.413  11.895  11.861 -0.8368 -0.0637 -0.4931
 8917SOL     OW31435   4.599  11.998   1.651  0.0756  0.1118 -0.0066
 8917SOL    HW131436   4.630  11.920   1.606 -0.8573 -1.8725  2.5605
 8917SOL    HW231437   4.637  11.993   1.738 -0.2543  2.3980  0.3317
 8918SOL     OW31438   2.293   6.305  10.584 -0.5086 -0.4609  0.0640
 8918SOL    HW131439   2.277   6.247  10.510 -1.3685 -0.2702  0.0926
 8918SOL    HW231440   2.365   6.264  10.632  2.6954  1.2427 -2.8513
 8919SOL     OW31441  10.011   4.277   0.174  0.2733 -0.2871  0.2049
 8919SOL    HW131442   9.930   4.248   0.133 -0.8811 -0.7996  2.6784
 8919SOL    HW231443  10.026   4.365   0.139 -1.1278 -0.3242 -0.5449
 8920SOL     OW31444   2.727   0.218   2.124 -0.3466  0.0147 -0.0491
 8920SOL    HW131445   2.807   0.230   2.072 -0.5702  3.1621  0.1485
 8920SOL    HW231446   2.730   0.288   2.189 -1.4198 -2.1496  2.5083
 8921SOL     OW31447   2.255   9.348   7.821 -0.0709 -0.6876  0.7575
 8921SOL    HW131448   2.195   9.406   7.869  1.0342  0.6707  0.5724
 8921SOL    HW231449   2.263   9.387   7.734 -2.1570 -3.2039 -0.6870
 8922SOL     OW31450   9.293   0.542   5.966 -0.5319  0.7843  0.0863
 8922SOL    HW131451   9.379   0.500   5.962 -0.4597  0.9630 -0.2477
 8922SOL    HW231452   9.253   0.523   5.880 -1.2179 -0.1268  0.5787
 8923SOL     OW31453   1.932   1.585   7.098  0.0800  0.3697  0.5119
 8923SOL    HW131454   2.005   1.646   7.087 -0.4819  1.1062  0.7479
 8923SOL    HW231455   1.918   1.582   7.193 -0.1189  0.1362  0.4772
 8924SOL     OW31456   2.652   5.926   4.274  0.4805  0.3874  0.4798
 8924SOL    HW131457   2.570   5.924   4.324  1.3269 -1.0185  1.8993
 8924SOL    HW231458   2.717   5.890   4.334  1.4941 -1.7139 -1.7411
 8925SOL     OW31459   8.145   7.255   4.230 -0.0683 -0.6014  0.4218
 8925SOL    HW131460   8.106   7.305   4.159 -1.4916  0.1314  1.6658
 8925SOL    HW231461   8.239   7.254   4.210 -0.0690  1.9735 -0.0380
 8926SOL     OW31462   4.265  10.928   4.044  0.7387  0.4870 -0.3077
 8926SOL    HW131463   4.292  10.885   3.962 -0.5395  2.9205 -2.1623
 8926SOL    HW231464   4.347  10.945   4.090  1.6413  0.1628 -1.7071
 8927SOL     OW31465   9.684   1.312   6.241 -0.0515 -0.0522  0.0203
 8927SOL    HW131466   9.626   1.260   6.297  0.1754 -0.2471  0.0805
 8927SOL    HW231467   9.737   1.364   6.302 -1.1999  1.2771 -0.0759
 8928SOL     OW31468   2.829  10.080   0.304 -1.0293  0.0841 -0.4511
 8928SOL    HW131469   2.835  10.014   0.235 -0.4063  0.3844 -0.6982
 8928SOL    HW231470   2.760  10.048   0.363 -1.0068 -0.5814 -0.7779
 8929SOL     OW31471   0.970   2.093   8.885 -0.0318  0.2082 -0.1309
 8929SOL    HW131472   0.896   2.154   8.881  0.1925  0.4846 -0.1092
 8929SOL    HW231473   0.967   2.056   8.973  0.4445  0.9643  0.2103
 8930SOL     OW31474   3.150   8.792   5.373  0.0279  0.1594  0.3298
 8930SOL    HW131475   3.222   8.818   5.315  0.6843  0.3529  1.2006
 8930SOL    HW231476   3.169   8.836   5.456 -2.1790  1.8440  0.0273
 8931SOL     OW31477  11.213   1.817   6.034  0.6053  0.3975 -0.3593
 8931SOL    HW131478  11.232   1.727   6.008  0.9106  0.1053  0.7878
 8931SOL    HW231479  11.121   1.830   6.013  1.0899  0.5982 -2.6278
 8932SOL     OW31480   7.003  11.968   1.953 -0.6264 -0.6248 -0.4044
 8932SOL    HW131481   6.965  12.028   1.889 -0.2859 -1.0422 -1.0051
 8932SOL    HW231482   7.097  11.984   1.947 -0.6451 -0.0989  0.5673
 8933SOL     OW31483   9.037   2.969   8.330 -0.5243 -0.1833  0.6645
 8933SOL    HW131484   8.962   2.919   8.299 -1.2708 -0.3502  2.6095
 8933SOL    HW231485   9.089   2.905   8.380  1.6012 -0.3850 -1.5994
 8934SOL     OW31486   0.759   2.307  11.648 -0.1130  0.4674 -0.0976
 8934SOL    HW131487   0.799   2.328  11.563 -1.3263 -0.8457 -1.0342
 8934SOL    HW231488   0.698   2.378  11.664  1.4756  1.7295  0.6455
 8935SOL     OW31489  10.206  11.960   3.091  1.0400 -0.4926  0.4971
 8935SOL    HW131490  10.239  12.025   3.030 -0.9308 -1.2190 -1.4755
 8935SOL    HW231491  10.262  11.883   3.077  2.7360  0.3644  2.1247
 8936SOL     OW31492   8.083  11.335  11.780 -0.3542 -0.0780 -0.0331
 8936SOL    HW131493   7.991  11.309  11.767 -0.7390  0.6180  1.1383
 8936SOL    HW231494   8.081  11.431  11.778  0.4347 -0.0632 -0.4730
 8937SOL     OW31495   7.496   7.966   5.379  0.2927 -0.0604  0.1515
 8937SOL    HW131496   7.467   8.023   5.450  1.0912  0.9137 -0.2734
 8937SOL    HW231497   7.428   7.976   5.312  0.1380 -0.0563  0.3068
 8938SOL     OW31498   8.132   1.368   8.104  0.5429  0.2947 -0.4271
 8938SOL    HW131499   8.053   1.325   8.138 -0.1254  1.0645 -0.9831
 8938SOL    HW231500   8.100   1.448   8.063  1.1435 -1.1639 -4.0523
 8939SOL     OW31501   0.158   5.009   7.357  0.6407  0.4474  0.4288
 8939SOL    HW131502   0.228   5.063   7.392  0.0497  0.4361  1.6964
 8939SOL    HW231503   0.090   5.011   7.425 -0.9814  1.2016 -1.1354
 8940SOL     OW31504  11.636   5.657   1.064 -0.1748 -0.4593 -0.3630
 8940SOL    HW131505  11.547   5.632   1.091 -0.0826  0.0657  0.4880
 8940SOL    HW231506  11.623   5.714   0.988 -0.4488 -1.9521 -1.4743
 8941SOL     OW31507   6.558   7.512   4.568 -0.7159 -0.4369  0.0795
 8941SOL    HW131508   6.493   7.492   4.501  0.0001 -0.5624 -0.5986
 8941SOL    HW231509   6.546   7.605   4.587 -0.7803 -0.3458 -0.3923
 8942SOL     OW31510   8.077   5.413   2.894  0.0523  0.0135 -0.0889
 8942SOL    HW131511   7.991   5.438   2.929 -0.7687 -1.2195 -1.1286
 8942SOL    HW231512   8.099   5.482   2.832  0.0153  0.5393  0.4701
 8943SOL     OW31513   5.910   1.666   8.559  0.7173 -0.8920 -0.8262
 8943SOL    HW131514   5.946   1.707   8.637 -2.6123  0.3873  0.2024
 8943SOL    HW231515   5.949   1.714   8.486  0.5912  0.8560  0.2147
 8944SOL     OW31516   6.094  11.110  11.014 -0.0715  0.3873 -0.2705
 8944SOL    HW131517   6.069  11.199  10.989 -0.9928  0.0934 -0.4444
 8944SOL    HW231518   6.012  11.068  11.040  0.4528 -0.2079  0.4693
 8945SOL     OW31519   2.776  10.266   4.158  0.0628 -0.1005 -0.0862
 8945SOL    HW131520   2.724  10.228   4.086 -1.3223 -0.5204  1.0962
 8945SOL    HW231521   2.720  10.335   4.194  0.8959  0.3453  0.3736
 8946SOL     OW31522   4.218   4.480   3.167 -0.4809  0.0381  0.3160
 8946SOL    HW131523   4.312   4.497   3.173 -0.3997 -0.7184  1.5651
 8946SOL    HW231524   4.179   4.566   3.149  0.6257 -0.0208 -3.2477
 8947SOL     OW31525   3.067   6.432   1.886  0.5202 -0.1373  0.5446
 8947SOL    HW131526   3.158   6.457   1.874  0.8128 -1.4936 -0.3875
 8947SOL    HW231527   3.065   6.338   1.866 -1.2011  0.0007 -0.2001
 8948SOL     OW31528   8.728   4.202   0.046  0.3583  0.0470  0.4605
 8948SOL    HW131529   8.643   4.162   0.062  0.0570  0.5396  0.0970
 8948SOL    HW231530   8.790   4.143   0.089 -0.0287 -1.0514 -0.4566
 8949SOL     OW31531   4.125   8.323   7.133 -0.7635 -0.6844  0.3405
 8949SOL    HW131532   4.070   8.400   7.148  0.4215  0.1416  0.6939
 8949SOL    HW231533   4.200   8.336   7.191  0.0028 -1.5457 -0.4109
 8950SOL     OW31534   9.659   5.066   0.109 -0.0858 -0.5293  0.8409
 8950SOL    HW131535   9.599   5.132   0.075 -0.2518 -0.5028  1.1797
 8950SOL    HW231536   9.670   5.004   0.037  1.2451  0.6378 -0.0274
 8951SOL     OW31537   1.688   0.753   9.261 -0.1507  0.0621  0.5404
 8951SOL    HW131538   1.619   0.802   9.306 -0.8431 -0.1447 -0.2701
 8951SOL    HW231539   1.659   0.662   9.265 -0.5850  0.1080 -0.8941
 8952SOL     OW31540  10.833  11.361   9.502 -0.2782 -0.0889 -0.1956
 8952SOL    HW131541  10.823  11.318   9.587  0.1719  0.2391  0.0316
 8952SOL    HW231542  10.902  11.427   9.517 -0.2474  0.0198 -0.7931
 8953SOL     OW31543   8.560   7.174   6.849 -0.1564  0.5899  0.0132
 8953SOL    HW131544   8.537   7.081   6.854 -0.4919  0.5214 -2.0926
 8953SOL    HW231545   8.648   7.178   6.886 -0.8373 -0.2146  1.9034
 8954SOL     OW31546   0.320  11.829   2.855  0.1081  1.1225 -0.2779
 8954SOL    HW131547   0.373  11.849   2.778 -0.3221 -0.5623 -1.0552
 8954SOL    HW231548   0.284  11.914   2.881  1.4777  1.9712 -0.9841
 8955SOL     OW31549   3.931   7.159   4.603  0.1106  0.0872 -0.0302
 8955SOL    HW131550   3.866   7.220   4.568 -0.4784 -0.2761  0.4059
 8955SOL    HW231551   3.889   7.122   4.681  0.6266 -0.5552 -0.0501
 8956SOL     OW31552   1.948   8.889   6.642  0.4624 -0.4647 -0.0556
 8956SOL    HW131553   2.028   8.847   6.673  0.8162 -0.2905 -0.7272
 8956SOL    HW231554   1.884   8.818   6.636  0.5253 -0.5839  0.5857
 8957SOL     OW31555   3.452   5.501   6.870 -0.0341  0.0598  0.4815
 8957SOL    HW131556   3.528   5.478   6.924 -1.6799 -2.5576  1.8788
 8957SOL    HW231557   3.393   5.426   6.879 -1.9988  1.1702 -2.0638
 8958SOL     OW31558   4.786   7.192   2.104  0.6871  0.1020  0.4863
 8958SOL    HW131559   4.861   7.215   2.159  2.0824 -0.1036 -1.1926
 8958SOL    HW231560   4.732   7.270   2.101  1.4268  0.6357  0.8722
 8959SOL     OW31561   6.557   8.345   7.792 -0.0666 -0.3005  0.3594
 8959SOL    HW131562   6.644   8.329   7.828  0.4026  0.8410 -0.1975
 8959SOL    HW231563   6.562   8.434   7.756 -1.5379 -0.1224  0.5261
 8960SOL     OW31564   2.219   9.443   6.280  0.2708 -0.5109 -0.0735
 8960SOL    HW131565   2.191   9.434   6.372  0.0265  1.3222  0.0709
 8960SOL    HW231566   2.310   9.473   6.286  1.1099 -2.7421 -0.5089
 8961SOL     OW31567   9.835  11.992   5.473 -0.2153  0.1577 -0.5126
 8961SOL    HW131568   9.806  12.044   5.399 -0.6812 -0.1863 -0.5784
 8961SOL    HW231569   9.842  12.054   5.546  0.2276  0.4921 -0.8309
 8962SOL     OW31570   3.335   7.977   4.617  0.0026  0.4788  0.3349
 8962SOL    HW131571   3.268   7.953   4.680  0.2051  0.9747  0.7524
 8962SOL    HW231572   3.386   7.897   4.605  0.5650  0.6209  1.5625
 8963SOL     OW31573   9.795   7.535   9.535 -0.3399  0.2388  0.2921
 8963SOL    HW131574   9.739   7.563   9.463 -0.9436 -1.0428  0.2389
 8963SOL    HW231575   9.878   7.509   9.493  0.0622  1.4620  0.2974
 8964SOL     OW31576   3.253   4.713   2.708 -0.3605 -0.5884  0.0623
 8964SOL    HW131577   3.227   4.705   2.800 -0.2838  2.2281  0.4278
 8964SOL    HW231578   3.306   4.636   2.691 -1.9951 -2.2148  1.7661
 8965SOL     OW31579  10.094   4.475   4.333  0.0867 -0.1974 -0.0017
 8965SOL    HW131580  10.180   4.512   4.355 -0.0784  0.5921 -0.6641
 8965SOL    HW231581  10.049   4.545   4.286 -0.3666 -1.1147 -0.9669
 8966SOL     OW31582   3.648   2.496  10.173  0.1744  0.3629  0.1839
 8966SOL    HW131583   3.625   2.584  10.143  0.3702  0.6565  0.8754
 8966SOL    HW231584   3.581   2.439  10.136 -0.5981  0.9541  0.6627
 8967SOL     OW31585   6.616   3.727   6.808 -0.0705  0.1852 -1.0315
 8967SOL    HW131586   6.602   3.763   6.721 -0.4684 -0.0027 -1.0492
 8967SOL    HW231587   6.550   3.658   6.816  1.3048 -1.2246 -1.3834
 8968SOL     OW31588   3.084   7.720  10.781  0.0157 -0.3511 -0.1090
 8968SOL    HW131589   3.072   7.813  10.800  1.9460 -0.4747  2.2083
 8968SOL    HW231590   2.995   7.686  10.772 -0.7813  1.4957  0.1875
 8969SOL     OW31591   3.757   1.585  11.174  0.1555 -0.1429 -0.4866
 8969SOL    HW131592   3.839   1.588  11.125  0.1377 -0.6316 -0.5472
 8969SOL    HW231593   3.783   1.600  11.265  0.3551 -0.6301 -0.4604
 8970SOL     OW31594   6.076  11.530   6.570  0.2431 -0.4357 -0.1751
 8970SOL    HW131595   6.070  11.512   6.664  0.1870 -1.8659 -0.4338
 8970SOL    HW231596   6.170  11.531   6.552  0.2478 -0.3417 -0.1502
 8971SOL     OW31597   9.644   4.433  11.187 -0.6800  0.2698  0.4729
 8971SOL    HW131598   9.703   4.383  11.244  0.6376  0.4978 -0.6429
 8971SOL    HW231599   9.557   4.397  11.205 -0.1360 -0.5083  1.7029
 8972SOL     OW31600   5.557   8.647   2.075 -0.1478 -0.0682 -0.0357
 8972SOL    HW131601   5.497   8.714   2.108  0.8372 -0.0612  1.9284
 8972SOL    HW231602   5.586   8.680   1.990 -1.9809  0.4884 -0.4884
 8973SOL     OW31603   6.890   7.150   2.386 -0.8655 -0.1444  0.3649
 8973SOL    HW131604   6.827   7.220   2.406 -1.1009 -0.6918  1.6526
 8973SOL    HW231605   6.975   7.194   2.387 -0.8483 -0.1086  2.7988
 8974SOL     OW31606   4.108  11.129   8.367 -0.4753 -0.0981  0.2305
 8974SOL    HW131607   4.079  11.048   8.410 -0.2458 -0.3173 -0.0228
 8974SOL    HW231608   4.203  11.130   8.381 -0.6696  1.0051  1.7235
 8975SOL     OW31609   4.470   1.810   0.622  0.3400 -0.2789 -0.3143
 8975SOL    HW131610   4.505   1.881   0.568  1.2987 -0.2401  0.3272
 8975SOL    HW231611   4.548   1.760   0.647 -0.0501 -0.1094  1.2968
 8976SOL     OW31612  11.065  11.152   2.551 -0.3196 -0.6431 -0.1414
 8976SOL    HW131613  11.118  11.161   2.472 -0.8603 -1.7553 -0.6519
 8976SOL    HW231614  11.075  11.236   2.596  2.5987 -1.1147  0.2646
 8977SOL     OW31615   4.609   6.672   8.276  0.2558 -0.2045 -0.2581
 8977SOL    HW131616   4.606   6.669   8.181 -0.8368  0.4999 -0.2619
 8977SOL    HW231617   4.520   6.653   8.304 -0.1370  2.3492  0.5102
 8978SOL     OW31618   5.676  11.937   9.152  0.0173  0.1933  0.2847
 8978SOL    HW131619   5.764  11.914   9.121 -0.0807  0.3728 -0.1256
 8978SOL    HW231620   5.656  11.869   9.217 -0.2840 -0.9487 -0.9573
 8979SOL     OW31621   2.393   9.619   3.294  0.4085  0.2030  0.2829
 8979SOL    HW131622   2.350   9.620   3.208  1.2026  1.0259 -0.1246
 8979SOL    HW231623   2.397   9.526   3.317 -1.2255  0.0743  0.1742
 8980SOL     OW31624   6.027   1.242   1.735 -0.1190 -0.2008 -0.7022
 8980SOL    HW131625   6.102   1.209   1.785 -0.5058  0.2488  0.1925
 8980SOL    HW231626   5.951   1.210   1.783 -0.5026 -0.0362 -1.1945
 8981SOL     OW31627   9.614   3.679   6.165  0.3995 -0.1354 -0.4537
 8981SOL    HW131628   9.571   3.719   6.240 -0.2589 -0.2465 -0.7589
 8981SOL    HW231629   9.601   3.585   6.177  0.1482 -0.1473 -0.7801
 8982SOL     OW31630   0.635   3.918   0.029 -0.3114 -0.1106 -0.0296
 8982SOL    HW131631   0.580   3.840   0.020 -1.5882  0.8560 -0.9610
 8982SOL    HW231632   0.724   3.886   0.016 -0.7714 -1.4804  0.0397
 8983SOL     OW31633   4.858   0.640   7.146 -0.2853 -0.0190  0.6110
 8983SOL    HW131634   4.841   0.691   7.226  1.0441  2.2734 -0.4814
 8983SOL    HW231635   4.789   0.667   7.085  1.4395  1.9641 -0.5789
 8984SOL     OW31636   0.914   3.346   2.416  0.4007  0.1649  0.0661
 8984SOL    HW131637   0.885   3.265   2.374  0.0625  0.1925  0.2412
 8984SOL    HW231638   1.005   3.329   2.441  0.4615 -0.0113 -0.2682
 8985SOL     OW31639   6.805  10.479  10.549  0.2922 -0.0945  0.1999
 8985SOL    HW131640   6.817  10.384  10.555 -1.0767 -0.1745  2.6084
 8985SOL    HW231641   6.894  10.514  10.545  0.9620 -1.3586  2.4091
 8986SOL     OW31642  10.465   2.405   3.010 -0.0115  0.7005  0.4176
 8986SOL    HW131643  10.396   2.353   3.051 -0.1315 -0.0864 -0.7535
 8986SOL    HW231644  10.536   2.344   2.996 -0.3714  0.6821 -1.5046
 8987SOL     OW31645  11.246   9.063   8.969 -0.3761  0.2188 -0.6337
 8987SOL    HW131646  11.318   9.039   9.027 -0.9611 -0.9732 -0.3650
 8987SOL    HW231647  11.205   9.139   9.012 -2.1915 -1.9692  1.8422
 8988SOL     OW31648   3.722   6.926   5.090  0.2681 -0.2462  0.7217
 8988SOL    HW131649   3.660   6.991   5.122 -0.2972  0.3888 -1.4778
 8988SOL    HW231650   3.675   6.842   5.099 -0.3991  0.0738  0.3259
 8989SOL     OW31651   2.518   2.651   8.186  0.0013  0.2231  0.6093
 8989SOL    HW131652   2.562   2.567   8.203 -0.5443 -0.0397  0.7287
 8989SOL    HW231653   2.576   2.716   8.225  0.1813 -0.1366  0.9558
 8990SOL     OW31654   9.110   5.111  10.238 -0.3157 -0.6133 -0.1435
 8990SOL    HW131655   9.068   5.110  10.152 -0.0405 -1.0563 -0.2817
 8990SOL    HW231656   9.053   5.164  10.293  0.0535  0.5864 -0.8732
 8991SOL     OW31657   1.430   3.169   5.958 -0.1658  0.4340 -0.3617
 8991SOL    HW131658   1.513   3.127   5.982 -0.5606 -0.5457 -0.6723
 8991SOL    HW231659   1.452   3.262   5.947  0.3661  0.6770  2.1786
 8992SOL     OW31660   8.007   1.752   2.079 -0.0229  0.3976  0.3626
 8992SOL    HW131661   8.075   1.761   2.013 -0.5544  0.1721 -0.2199
 8992SOL    HW231662   7.986   1.842   2.104  0.6272  0.4624  0.6969
 8993SOL     OW31663   3.985   9.459  10.227  0.2351 -0.3534  0.1631
 8993SOL    HW131664   3.901   9.466  10.271 -0.7622 -0.8249 -1.5404
 8993SOL    HW231665   4.024   9.378  10.262  1.2421  1.1919  2.8780
 8994SOL     OW31666   1.324   7.583  11.084  0.4259 -0.2026 -0.6926
 8994SOL    HW131667   1.285   7.496  11.088 -1.0830  0.4844  1.7678
 8994SOL    HW231668   1.256   7.639  11.046  0.1325  0.4368  0.6995
 8995SOL     OW31669   0.467   4.336   7.491  0.1041  0.7761 -0.1515
 8995SOL    HW131670   0.427   4.343   7.578 -2.6249  0.8378 -1.3138
 8995SOL    HW231671   0.510   4.251   7.491  1.3948  1.3756  1.6971
 8996SOL     OW31672  11.850  10.611   3.097 -0.5296  0.3977 -0.0605
 8996SOL    HW131673  11.787  10.576   3.033 -1.5168  0.7383  0.6942
 8996SOL    HW231674  11.930  10.626   3.046 -0.4050 -1.8698 -0.6488
 8997SOL     OW31675  11.799  11.118   9.627 -0.1318  0.0480  0.0494
 8997SOL    HW131676  11.780  11.140   9.536  1.6069  1.7875  0.0245
 8997SOL    HW231677  11.774  11.197   9.676  1.0678  0.0161  0.7512
 8998SOL     OW31678   6.423   6.302   6.068 -0.6095  0.1248 -0.3657
 8998SOL    HW131679   6.378   6.387   6.063 -0.3149  0.2617 -0.7103
 8998SOL    HW231680   6.378   6.247   6.004 -1.5147 -0.3240  0.6205
 8999SOL     OW31681   4.651  11.909  10.385 -0.2300  0.6520 -0.1389
 8999SOL    HW131682   4.602  11.828  10.375  0.1430  0.0284  2.4544
 8999SOL    HW231683   4.661  11.920  10.479  1.5872  2.6001 -0.4760
 9000SOL     OW31684  10.365   7.505  11.854  0.2228  0.2059 -0.9280
 9000SOL    HW131685  10.401   7.505  11.765 -0.9548 -0.1465 -1.4332
 9000SOL    HW231686  10.400   7.425  11.894 -0.8529 -0.7489 -1.8034
 9001SOL     OW31687   9.587   4.309   9.800 -0.0428 -0.4139  0.2674
 9001SOL    HW131688   9.537   4.239   9.757 -0.4267  0.1563 -0.2442
 9001SOL    HW231689   9.528   4.385   9.798  0.4240 -0.0337  0.6711
 9002SOL     OW31690  11.422   8.772   4.035  0.5439 -0.2715 -0.1893
 9002SOL    HW131691  11.404   8.816   4.117  0.4069 -2.3571  0.9777
 9002SOL    HW231692  11.451   8.841   3.976 -2.5073  1.8719  0.5488
 9003SOL     OW31693  11.381   8.339   3.242 -0.1203 -0.2220  0.2744
 9003SOL    HW131694  11.444   8.346   3.313  0.8466 -0.5109 -0.5251
 9003SOL    HW231695  11.428   8.370   3.165 -0.5666 -1.5356 -0.5670
 9004SOL     OW31696   4.118   3.823   7.341 -0.5648  0.1882 -0.2253
 9004SOL    HW131697   4.185   3.829   7.410 -1.0754 -1.3987  0.4456
 9004SOL    HW231698   4.120   3.732   7.314 -2.2091  0.2005 -0.4648
 9005SOL     OW31699   5.280  11.892   0.491  0.3937 -0.2097  0.3503
 9005SOL    HW131700   5.283  11.961   0.425 -2.4145 -0.1547  0.1950
 9005SOL    HW231701   5.272  11.811   0.440  1.5770 -0.5031  0.5914
 9006SOL     OW31702   8.971   6.574  11.041 -0.1704 -0.3135 -0.4677
 9006SOL    HW131703   8.992   6.658  11.000 -1.2237  0.6934  0.9825
 9006SOL    HW231704   8.899   6.539  10.988 -0.5152  0.2532 -0.3739
 9007SOL     OW31705   7.025   4.821   2.292 -0.3929 -0.1195  0.4076
 9007SOL    HW131706   7.094   4.887   2.292  0.1753 -0.7155  0.3362
 9007SOL    HW231707   6.992   4.821   2.382 -0.5937  0.4536  0.3434
 9008SOL     OW31708   2.890   0.805   4.220  0.1036  0.1397 -0.4517
 9008SOL    HW131709   2.852   0.892   4.209 -1.5148 -0.5551 -0.7603
 9008SOL    HW231710   2.971   0.807   4.170 -0.0957  1.3499 -0.7552
 9009SOL     OW31711   4.338   1.616   7.683  0.2827  0.3044 -0.2931
 9009SOL    HW131712   4.271   1.652   7.625  2.0615  0.0591 -2.6204
 9009SOL    HW231713   4.404   1.685   7.690  0.5504 -0.0314  0.7171
 9010SOL     OW31714   8.297   5.435   0.049 -0.0286  0.3486 -0.1084
 9010SOL    HW131715   8.308   5.348   0.012  1.2865  0.6364 -0.4684
 9010SOL    HW231716   8.269   5.489  -0.025 -0.4926  0.3065  0.0345
 9011SOL     OW31717   6.023  11.725  11.882  0.3479  0.1415 -0.0325
 9011SOL    HW131718   6.024  11.646  11.937  2.2872  0.4488  0.4751
 9011SOL    HW231719   5.972  11.788  11.933  1.4780  0.1793  1.1310
 9012SOL     OW31720   3.315   5.498   8.200 -0.1153  0.4961  0.0983
 9012SOL    HW131721   3.371   5.510   8.123  0.9059 -0.7721  0.6146
 9012SOL    HW231722   3.365   5.536   8.272  0.3336 -1.0855  0.6504
 9013SOL     OW31723   6.141   0.939   7.943  0.7348  0.6021 -0.4616
 9013SOL    HW131724   6.082   0.948   7.868 -1.4836  2.7038  1.3624
 9013SOL    HW231725   6.176   0.850   7.936 -2.1559 -0.5270 -2.0335
 9014SOL     OW31726   6.289   7.542  11.768 -0.0798  0.1551  0.2633
 9014SOL    HW131727   6.236   7.479  11.817 -0.0505  0.4642  0.6912
 9014SOL    HW231728   6.308   7.612  11.830  1.3153 -0.2170  0.2955
 9015SOL     OW31729   2.731   5.948   3.151 -0.5274  0.0743 -0.6724
 9015SOL    HW131730   2.802   5.956   3.088  0.8358 -1.9791  0.4950
 9015SOL    HW231731   2.653   5.932   3.098  0.2777  0.0891 -1.8948
 9016SOL     OW31732   1.769   5.773  10.510 -0.2174 -0.3075  0.0739
 9016SOL    HW131733   1.683   5.784  10.549 -0.1282  0.1125  0.1498
 9016SOL    HW231734   1.784   5.678  10.512 -1.3007 -0.5350 -1.3027
 9017SOL     OW31735   7.799   2.049   7.804 -0.0903 -0.1141  0.3961
 9017SOL    HW131736   7.806   2.044   7.899 -0.0482  0.5514  0.4337
 9017SOL    HW231737   7.758   2.134   7.787  0.5506  0.0892 -0.2085
 9018SOL     OW31738   7.111   6.244   0.404 -0.5996 -0.2569 -0.3107
 9018SOL    HW131739   7.044   6.278   0.344 -0.0073  1.2436 -0.1665
 9018SOL    HW231740   7.084   6.276   0.490 -0.5984 -1.0896  0.0088
 9019SOL     OW31741  11.527   9.966   2.811  0.2145  0.2741 -0.7859
 9019SOL    HW131742  11.575  10.036   2.766  0.4456  1.0871  0.6511
 9019SOL    HW231743  11.435   9.992   2.804  0.1431 -0.1984 -1.7437
 9020SOL     OW31744  11.130   8.165   5.859 -0.2708 -0.2935  0.2530
 9020SOL    HW131745  11.111   8.106   5.786 -0.5420  1.2182 -0.9456
 9020SOL    HW231746  11.224   8.157   5.873 -0.4790 -1.9535  1.0038
 9021SOL     OW31747  11.166   2.249   8.610  0.0538  0.5927 -0.1186
 9021SOL    HW131748  11.198   2.171   8.657 -0.6827 -1.7670 -3.2274
 9021SOL    HW231749  11.243   2.283   8.565  0.9403  3.3233  2.9919
 9022SOL     OW31750   1.527   7.967   6.935  0.6471 -0.0814 -0.4051
 9022SOL    HW131751   1.507   7.963   7.028 -0.2655  0.1489 -0.5870
 9022SOL    HW231752   1.610   7.920   6.926  0.6591 -0.2362  0.4945
 9023SOL     OW31753   9.274   5.279   2.637 -0.0106  0.7268 -0.1943
 9023SOL    HW131754   9.255   5.352   2.579  2.0325  0.6386 -1.0293
 9023SOL    HW231755   9.357   5.243   2.606 -0.0913 -0.8773  1.2602
 9024SOL     OW31756   8.407   7.982   7.581  0.0596 -0.0797  0.1600
 9024SOL    HW131757   8.333   7.922   7.574 -0.4810  0.7012 -1.3004
 9024SOL    HW231758   8.471   7.949   7.518  1.7499 -1.7229  2.5763
 9025SOL     OW31759  10.059   9.763   9.550 -0.6398 -0.6391 -0.3157
 9025SOL    HW131760  10.103   9.696   9.498  0.0948  1.0313 -1.9802
 9025SOL    HW231761   9.971   9.769   9.511 -0.7270 -0.6830 -0.1246
 9026SOL     OW31762   6.001   3.698   0.240  0.0390  0.3667 -0.1380
 9026SOL    HW131763   6.055   3.754   0.184 -0.0815 -1.3586 -2.1004
 9026SOL    HW231764   6.058   3.623   0.259 -0.5066  0.1538  0.6888
 9027SOL     OW31765   8.632  10.693   2.519  0.6528 -0.2087 -0.3327
 9027SOL    HW131766   8.579  10.761   2.478 -0.0944 -0.5710  0.0223
 9027SOL    HW231767   8.628  10.619   2.459 -0.1595 -0.6211  0.2282
 9028SOL     OW31768   6.464  10.269  10.414 -0.2788 -0.4560 -0.5752
 9028SOL    HW131769   6.428  10.252  10.327  1.4578 -1.5307 -1.1135
 9028SOL    HW231770   6.418  10.209  10.472 -0.2017 -0.9729 -1.0494
 9029SOL     OW31771   5.007   9.617   8.868  0.6042 -0.5263  0.1264
 9029SOL    HW131772   4.938   9.670   8.910  0.8029 -1.3805  1.5969
 9029SOL    HW231773   4.959   9.561   8.807  0.1844  0.0372 -0.0757
 9030SOL     OW31774   0.912   3.713  10.463  0.7451  0.4410  0.3749
 9030SOL    HW131775   0.895   3.625  10.495 -2.3003  0.9226  0.4196
 9030SOL    HW231776   0.976   3.702  10.392 -0.2290 -1.9058 -0.2071
 9031SOL     OW31777   9.346   7.204   3.804 -0.1120  0.0709 -0.3061
 9031SOL    HW131778   9.412   7.141   3.832 -0.3688  0.0129  0.1867
 9031SOL    HW231779   9.393   7.265   3.748  0.3013 -0.1191 -0.1729
 9032SOL     OW31780  10.577   1.704   2.940  0.4930 -0.3564 -0.4056
 9032SOL    HW131781  10.609   1.680   2.853  1.5118  0.3888 -0.2539
 9032SOL    HW231782  10.492   1.660   2.947 -0.2831  0.6847 -2.3337
 9033SOL     OW31783  11.859   7.648   8.653  0.4264 -0.1787  0.4170
 9033SOL    HW131784  11.851   7.730   8.702 -0.3868 -0.1814  0.3008
 9033SOL    HW231785  11.909   7.672   8.575  0.0457  0.2566  0.2985
 9034SOL     OW31786   0.137   4.685   2.440 -0.0366 -0.1348 -0.5485
 9034SOL    HW131787   0.169   4.615   2.383  0.3511  0.5571 -1.1911
 9034SOL    HW231788   0.069   4.729   2.389  1.0078  1.1290 -0.9025
 9035SOL     OW31789   1.571  11.027  10.060  0.8746 -0.4511  0.6945
 9035SOL    HW131790   1.494  11.066  10.103  0.4028 -0.8746  0.2450
 9035SOL    HW231791   1.587  10.947  10.109  0.3778 -0.8999  0.1298
 9036SOL     OW31792   3.120   5.137   6.641 -0.3863 -0.2544  0.4646
 9036SOL    HW131793   3.080   5.097   6.563 -3.6019  1.2643  1.1444
 9036SOL    HW231794   3.061   5.114   6.712  0.7105  1.0471  1.8585
 9037SOL     OW31795   4.149   8.693  10.834 -0.0211  0.0062  0.1697
 9037SOL    HW131796   4.111   8.611  10.865  0.3929 -0.0645  0.5001
 9037SOL    HW231797   4.160   8.746  10.913  0.1657  0.1938  0.0199
 9038SOL     OW31798   7.119   8.859   5.894 -0.2151  0.2355 -0.5263
 9038SOL    HW131799   7.112   8.952   5.874 -0.5615  0.2136 -0.5053
 9038SOL    HW231800   7.213   8.844   5.908  0.2055  0.0336 -3.1083
 9039SOL     OW31801   9.788   8.768   8.930 -0.6798 -0.1831  0.3885
 9039SOL    HW131802   9.783   8.676   8.904 -0.0465 -0.5219  1.4164
 9039SOL    HW231803   9.701   8.803   8.909 -1.4188 -1.3799  1.2740
 9040SOL     OW31804   9.758   6.751   2.305  0.1462 -0.5295 -0.5840
 9040SOL    HW131805   9.716   6.816   2.361  0.5152 -0.6402 -0.1677
 9040SOL    HW231806   9.783   6.799   2.227  0.9173 -0.0259 -0.0433
 9041SOL     OW31807   3.295   6.139   0.506  0.6178 -0.2009  0.1719
 9041SOL    HW131808   3.312   6.135   0.600 -1.4435 -0.3646  0.5943
 9041SOL    HW231809   3.299   6.048   0.477 -1.2652 -0.5067  0.6758
 9042SOL     OW31810   3.442   6.947   1.588 -0.2035  0.3780 -0.5070
 9042SOL    HW131811   3.356   6.906   1.601  0.7234 -1.4720  0.1518
 9042SOL    HW231812   3.425   7.041   1.599 -2.1467  0.0752 -0.4883
 9043SOL     OW31813   8.288   9.341  10.968  0.3587  0.1352  0.2224
 9043SOL    HW131814   8.210   9.356  11.020 -0.4805  1.3396 -1.3105
 9043SOL    HW231815   8.308   9.248  10.981  0.0883  0.3258  2.4664
 9044SOL     OW31816   3.813   8.676   1.396  0.0260  0.2780 -0.3551
 9044SOL    HW131817   3.866   8.731   1.453 -0.5934 -0.1868  0.7049
 9044SOL    HW231818   3.740   8.733   1.368  0.7052  0.7183 -1.2873
 9045SOL     OW31819   9.994   4.008   6.650  0.3193 -0.4543 -0.2709
 9045SOL    HW131820   9.919   3.951   6.635  0.7452 -0.8328 -1.0191
 9045SOL    HW231821   9.963   4.096   6.626  0.3741 -0.7416 -1.4571
 9046SOL     OW31822   4.145  11.085  10.024 -0.3128 -0.2079  0.4684
 9046SOL    HW131823   4.217  11.140   9.995 -1.7871  1.4738 -0.1727
 9046SOL    HW231824   4.115  11.040   9.945 -1.2411  0.6548  0.3183
 9047SOL     OW31825   2.742   3.683   3.897  0.4623  0.1752  0.3430
 9047SOL    HW131826   2.686   3.749   3.856  1.3059  0.8688  0.2759
 9047SOL    HW231827   2.745   3.611   3.835 -1.0071 -0.2262  0.7086
 9048SOL     OW31828   9.807  10.144   0.437  0.2497  0.3377  0.2456
 9048SOL    HW131829   9.862  10.071   0.408 -0.9372 -0.8518  0.9314
 9048SOL    HW231830   9.858  10.186   0.507  0.4339 -0.5435  0.6482
 9049SOL     OW31831   3.435   8.705   8.792  0.2088  0.2853 -0.1087
 9049SOL    HW131832   3.435   8.628   8.850 -0.0565  0.4849  0.1582
 9049SOL    HW231833   3.358   8.692   8.736 -1.2097  1.4954  1.4721
 9050SOL     OW31834  11.371   1.880   6.545 -0.0494  0.1418  0.0562
 9050SOL    HW131835  11.371   1.802   6.599  0.4503 -0.4919 -0.8404
 9050SOL    HW231836  11.393   1.849   6.457 -0.5085  1.1905 -0.4529
 9051SOL     OW31837   6.829   9.708   8.703  0.6181  0.2436  0.1204
 9051SOL    HW131838   6.864   9.720   8.792  2.5906 -0.2591 -0.5419
 9051SOL    HW231839   6.886   9.760   8.647  0.9054 -1.3115 -1.1214
 9052SOL     OW31840  10.693   1.250   7.155  0.0582 -0.3115 -0.8363
 9052SOL    HW131841  10.772   1.272   7.204 -0.9495  2.1061 -0.1511
 9052SOL    HW231842  10.640   1.200   7.217 -0.6221  1.5571  0.1840
 9053SOL     OW31843   7.028   3.912  11.334  0.4359 -0.0511  0.6537
 9053SOL    HW131844   7.116   3.904  11.369  0.0753  0.4375  1.7576
 9053SOL    HW231845   6.990   3.825  11.340  1.2008 -0.5258 -0.9202
 9054SOL     OW31846   1.282   8.680   5.482  0.8357  0.1397 -0.4891
 9054SOL    HW131847   1.249   8.590   5.478 -1.4784  0.9547 -0.7026
 9054SOL    HW231848   1.371   8.671   5.517  0.1209 -2.0987  0.9262
 9055SOL     OW31849   4.025   9.887  10.951  0.3763 -0.1336  0.0453
 9055SOL    HW131850   3.996   9.944  11.021 -2.0935 -1.5031  0.2476
 9055SOL    HW231851   3.945   9.859  10.907  1.7210 -0.7436 -2.2117
 9056SOL     OW31852   5.832   6.069   7.096  0.4212  0.1980 -0.2435
 9056SOL    HW131853   5.769   6.094   7.028  0.7482 -1.1105 -1.0748
 9056SOL    HW231854   5.869   6.152   7.127  0.7622  0.8200 -2.1669
 9057SOL     OW31855   8.962  11.823   6.146  0.3086  0.4248  0.7903
 9057SOL    HW131856   8.875  11.783   6.144 -0.1660  1.3845  1.3341
 9057SOL    HW231857   8.950  11.902   6.198  1.4100  0.8242  0.4523
 9058SOL     OW31858  10.990  10.672  11.533  0.0275 -0.1726  0.1212
 9058SOL    HW131859  10.969  10.584  11.502 -1.1278  0.7275 -1.8391
 9058SOL    HW231860  10.905  10.715  11.545  0.5658  1.1811 -0.5969
 9059SOL     OW31861   6.097   2.653   8.879  0.7531  0.5505 -0.0473
 9059SOL    HW131862   6.039   2.728   8.867  0.7487  0.4051 -0.9947
 9059SOL    HW231863   6.043   2.589   8.926  0.3929  0.7090 -0.2373
 9060SOL     OW31864   0.396   6.822   9.948 -0.5845  0.5143  0.4374
 9060SOL    HW131865   0.481   6.814   9.991  0.5908  1.3369 -1.5863
 9060SOL    HW231866   0.411   6.792   9.858 -2.0043  2.2042 -0.4389
 9061SOL     OW31867  11.449  10.400   3.481 -0.1024 -0.8404 -0.1578
 9061SOL    HW131868  11.462  10.334   3.550 -0.0350 -1.6210 -0.9050
 9061SOL    HW231869  11.359  10.429   3.492  0.0329 -0.6500  0.5180
 9062SOL     OW31870   5.269   8.719   4.615 -0.2673  0.3814 -0.0222
 9062SOL    HW131871   5.281   8.705   4.521 -0.0147  0.7339 -0.0460
 9062SOL    HW231872   5.191   8.668   4.637 -1.4296  1.7686 -0.7749
 9063SOL     OW31873   9.831   7.069   2.531 -0.3291  0.6546 -0.2669
 9063SOL    HW131874   9.739   7.084   2.507 -1.0708 -0.8634  1.3333
 9063SOL    HW231875   9.881   7.108   2.460 -2.2174  1.3974 -1.2768
 9064SOL     OW31876   0.158   3.300  11.970  0.1117 -0.1436 -0.0743
 9064SOL    HW131877   0.155   3.208  11.995  0.8337  0.0852  0.8923
 9064SOL    HW231878   0.113   3.346  12.041 -0.5629  0.2302 -0.7214
 9065SOL     OW31879  11.742   8.196   3.894 -0.2506  0.0516  0.0442
 9065SOL    HW131880  11.790   8.123   3.854  1.5385  1.7547 -1.1368
 9065SOL    HW231881  11.652   8.186   3.861 -0.8871 -3.2240  2.3126
 9066SOL     OW31882   6.714  10.994   9.682 -0.3413 -0.0254  0.3754
 9066SOL    HW131883   6.646  11.034   9.737  0.4465 -0.9466  2.0979
 9066SOL    HW231884   6.693  11.022   9.593 -3.9086 -1.5533  0.5850
 9067SOL     OW31885  11.889   6.296   9.062  0.7358 -0.0042  0.4489
 9067SOL    HW131886  11.794   6.296   9.061  0.6971  0.9081  1.7508
 9067SOL    HW231887  11.913   6.204   9.047 -0.2868 -0.0465 -1.1461
 9068SOL     OW31888  10.192   0.708  11.156  0.1091  0.1325 -0.0063
 9068SOL    HW131889  10.235   0.626  11.181 -1.9281 -0.6969  1.0819
 9068SOL    HW231890  10.101   0.682  11.140 -0.4913  2.1259 -0.0181
 9069SOL     OW31891   0.967  10.998   3.262 -0.0493  0.5168  0.0697
 9069SOL    HW131892   0.952  10.952   3.180  0.7691 -0.8562  0.6619
 9069SOL    HW231893   0.910  10.955   3.326 -1.0149  1.8569  0.1763
 9070SOL     OW31894   9.955   5.313   8.674 -0.3151  0.6483 -0.9668
 9070SOL    HW131895  10.039   5.267   8.675 -0.9635 -0.5720 -1.2086
 9070SOL    HW231896   9.978   5.405   8.686  1.1297  0.4492 -1.9652
 9071SOL     OW31897   6.220  11.027   3.565  0.1135 -0.1498  0.0293
 9071SOL    HW131898   6.146  11.062   3.613 -0.3092 -0.6335 -0.2528
 9071SOL    HW231899   6.229  10.937   3.597  1.7081  0.4366  1.3616
 9072SOL     OW31900  11.492   8.277  10.820  0.2091 -0.0225 -0.0262
 9072SOL    HW131901  11.530   8.362  10.798  0.6435  0.2686  1.6765
 9072SOL    HW231902  11.509   8.267  10.914 -1.4870 -1.1489  0.2065
 9073SOL     OW31903  10.307   2.769   9.455 -0.1834 -0.0135 -0.7651
 9073SOL    HW131904  10.346   2.731   9.533  1.6679  0.1359 -1.5668
 9073SOL    HW231905  10.310   2.864   9.470 -2.1082 -0.0321 -0.0072
 9074SOL     OW31906   8.680   1.108   5.036  0.0584 -0.1006 -0.0283
 9074SOL    HW131907   8.728   1.110   4.953  0.1088  0.4125  0.0136
 9074SOL    HW231908   8.620   1.033   5.027  0.1541 -0.1238 -0.4764
 9075SOL     OW31909   3.055   5.574  11.143 -0.1285 -0.0650 -0.0640
 9075SOL    HW131910   3.081   5.498  11.196  0.5518 -0.1771 -0.5502
 9075SOL    HW231911   3.072   5.649  11.200 -0.0728 -0.2327  0.1421
 9076SOL     OW31912   3.626  10.291   7.771  0.5337  0.1066 -0.0308
 9076SOL    HW131913   3.578  10.330   7.844  2.9754  0.1628  1.6706
 9076SOL    HW231914   3.710  10.337   7.770  0.5499  0.1664 -2.9989
 9077SOL     OW31915  11.761   7.552   9.934 -0.0806 -0.0179  0.0873
 9077SOL    HW131916  11.717   7.549   9.848 -0.7221  3.8108  0.0777
 9077SOL    HW231917  11.696   7.517   9.995 -0.3156 -1.0909 -0.7438
 9078SOL     OW31918   7.280   8.436   6.259  0.7583 -0.7528 -0.2147
 9078SOL    HW131919   7.347   8.368   6.249  0.7168 -0.8127 -0.0892
 9078SOL    HW231920   7.198   8.387   6.263  0.7677 -0.7257  0.3676
 9079SOL     OW31921   1.076   1.538   0.783  0.0516  0.2549  0.2240
 9079SOL    HW131922   0.983   1.536   0.806  0.2447 -0.5653  1.0114
 9079SOL    HW231923   1.081   1.594   0.706 -1.0964  0.3037  0.1718
 9080SOL     OW31924  11.418   0.076   7.066 -0.0768  0.3503  0.2324
 9080SOL    HW131925  11.369   0.022   7.128 -1.0791  0.5421 -0.3711
 9080SOL    HW231926  11.491   0.021   7.039 -1.7383 -1.2453 -1.3286
 9081SOL     OW31927  10.296   3.851  10.781  0.2154 -0.2277  0.4628
 9081SOL    HW131928  10.311   3.786  10.713  0.5055  1.9394 -1.6854
 9081SOL    HW231929  10.340   3.930  10.749 -1.7195  1.5883  1.9957
 9082SOL     OW31930   5.149  11.237   4.090 -0.7579  0.7523 -0.4776
 9082SOL    HW131931   5.061  11.198   4.092 -0.3193 -0.2796 -0.8701
 9082SOL    HW231932   5.180  11.231   4.180 -0.6607  0.0981 -0.5507
 9083SOL     OW31933   6.356  11.765   9.518 -0.1790 -0.4100 -0.1655
 9083SOL    HW131934   6.301  11.843   9.512  0.8998  0.4365  0.4822
 9083SOL    HW231935   6.443  11.799   9.541  0.5144 -1.7364 -0.7134
 9084SOL     OW31936  11.489   0.591   6.874  0.0842 -0.1959  0.0482
 9084SOL    HW131937  11.474   0.568   6.782  1.4510 -0.5878 -0.1079
 9084SOL    HW231938  11.473   0.510   6.922  0.3271 -0.2507  0.0381
 9085SOL     OW31939   1.670   7.175   4.396 -0.5544 -0.7200  0.0279
 9085SOL    HW131940   1.698   7.199   4.308 -1.7983 -0.2461 -0.2690
 9085SOL    HW231941   1.601   7.109   4.382 -0.6567 -0.7503  0.6467
 9086SOL     OW31942   5.230   5.779   9.070 -0.4022 -0.1792 -0.0699
 9086SOL    HW131943   5.247   5.720   9.144 -0.7564  0.5246  0.5908
 9086SOL    HW231944   5.289   5.853   9.086  0.1386 -0.4136 -0.9643
 9087SOL     OW31945   1.994   4.043   9.817  0.1324  0.8770 -0.1163
 9087SOL    HW131946   2.074   4.074   9.775 -1.0482  0.4896 -2.8913
 9087SOL    HW231947   1.964   4.117   9.870  1.4472  1.6066 -0.3579
 9088SOL     OW31948   5.157   0.958   3.848 -0.4936 -0.0769 -0.0482
 9088SOL    HW131949   5.113   1.017   3.909  0.6423  2.2098 -1.3264
 9088SOL    HW231950   5.089   0.934   3.785 -1.0072 -0.2843  0.5719
 9089SOL     OW31951   0.581   5.487   7.100 -0.4334 -0.2821 -0.0668
 9089SOL    HW131952   0.603   5.536   7.021 -1.7008 -0.5688 -0.6121
 9089SOL    HW231953   0.517   5.423   7.072  1.1060 -2.2372  0.6514
 9090SOL     OW31954   4.014   1.660   2.324 -0.2772 -0.3892 -0.3541
 9090SOL    HW131955   4.042   1.650   2.233 -0.7493  0.1122 -0.5623
 9090SOL    HW231956   3.991   1.572   2.352 -2.4005 -0.2549 -1.4745
 9091SOL     OW31957   1.547   2.743   1.027  0.0118  0.3839 -0.3294
 9091SOL    HW131958   1.604   2.808   1.067 -2.2123  1.8237  0.6781
 9091SOL    HW231959   1.496   2.708   1.100  0.5355 -1.9315 -0.9811
 9092SOL     OW31960   7.208   8.843   1.300 -0.7192 -0.0776  0.7572
 9092SOL    HW131961   7.287   8.871   1.253 -0.2624  1.2660  2.2369
 9092SOL    HW231962   7.238   8.771   1.355 -0.5381  0.3658  1.2442
 9093SOL     OW31963  10.848   3.176   2.292  0.0935 -0.0861 -0.2872
 9093SOL    HW131964  10.924   3.209   2.341  0.0660 -1.0634  0.4301
 9093SOL    HW231965  10.884   3.153   2.206  0.0621  2.0182 -0.9176
 9094SOL     OW31966   7.562   0.413  10.726  0.1356  0.4891  0.0350
 9094SOL    HW131967   7.481   0.416  10.776  0.3410  0.3906  0.3731
 9094SOL    HW231968   7.584   0.505  10.710 -0.4667  0.5122 -0.7568
 9095SOL     OW31969  10.375   0.501   2.860  0.4740  0.2860  0.5063
 9095SOL    HW131970  10.381   0.531   2.769  0.5074 -1.0648  0.0335
 9095SOL    HW231971  10.293   0.539   2.892 -1.0083 -1.4019 -1.0069
 9096SOL     OW31972   3.726   5.268   9.260 -0.7224 -0.6009  0.0742
 9096SOL    HW131973   3.706   5.267   9.354  0.7675 -0.9496  0.4093
 9096SOL    HW231974   3.726   5.175   9.235  1.7033 -0.7477  0.4022
 9097SOL     OW31975   6.618  11.354   8.492 -0.4085  0.4917 -0.0875
 9097SOL    HW131976   6.690  11.396   8.538  1.1357  0.1786 -2.0709
 9097SOL    HW231977   6.568  11.427   8.454 -0.6117  0.6709  0.5077
 9098SOL     OW31978   8.112   4.342   7.216 -0.0872  0.4377  0.0353
 9098SOL    HW131979   8.198   4.310   7.189 -0.4767  1.0338 -2.0292
 9098SOL    HW231980   8.066   4.264   7.247  0.1601 -0.4500 -1.7246
 9099SOL     OW31981   2.641   4.541  10.489  0.0361  0.1851 -0.2261
 9099SOL    HW131982   2.575   4.593  10.443  0.3925  0.6802 -0.1746
 9099SOL    HW231983   2.724   4.582  10.467  0.2183  0.4329  0.8500
 9100SOL     OW31984  11.842  10.487   7.558  0.1400 -0.4046 -0.4586
 9100SOL    HW131985  11.894  10.441   7.492  0.1908 -0.3413 -0.4620
 9100SOL    HW231986  11.775  10.534   7.507  0.2498 -0.2638 -0.4736
 9101SOL     OW31987   2.574  10.700   0.149  0.5122 -0.5158  0.4759
 9101SOL    HW131988   2.593  10.661   0.234  0.5588  0.5225  0.9602
 9101SOL    HW231989   2.481  10.719   0.152  0.2397 -1.6769 -0.2283
 9102SOL     OW31990  11.665   5.389  11.719 -0.1521  0.2909  0.0425
 9102SOL    HW131991  11.758   5.368  11.714 -0.5769 -2.3588  1.8037
 9102SOL    HW231992  11.624   5.332  11.654 -0.5951  1.3985 -0.6810
 9103SOL     OW31993  10.601   6.702   4.042  0.4333 -0.0540  0.2157
 9103SOL    HW131994  10.627   6.720   3.952 -0.8618  2.7266  0.3061
 9103SOL    HW231995  10.508   6.679   4.037  0.3611  0.0741  0.8294
 9104SOL     OW31996   3.647   7.327  11.497 -0.1804  0.4909 -0.6381
 9104SOL    HW131997   3.553   7.308  11.488  0.0203 -1.1817  0.4165
 9104SOL    HW231998   3.669   7.297  11.585  1.5730 -0.0843 -1.2353
 9105SOL     OW31999   2.639   8.624   1.643  0.0283  0.6165 -0.4501
 9105SOL    HW132000   2.689   8.556   1.597  0.0144 -0.7832  1.4489
 9105SOL    HW232001   2.551   8.617   1.607  0.1047 -0.1771 -0.5094
 9106SOL     OW32002   1.800   3.500   7.702 -0.2241 -0.5709 -0.0041
 9106SOL    HW132003   1.791   3.517   7.795  1.5275  2.0824 -0.2488
 9106SOL    HW232004   1.734   3.555   7.661  1.1255  0.7731 -0.4562
 9107SOL     OW32005   7.367   9.973   0.065  0.5145 -0.0767  0.2468
 9107SOL    HW132006   7.297  10.030   0.033  0.4089  0.5219  1.4918
 9107SOL    HW232007   7.398   9.927  -0.013  0.0450  1.0756 -0.6474
 9108SOL     OW32008   6.096   7.885  11.703  0.4147  0.0309 -0.6905
 9108SOL    HW132009   6.146   7.965  11.720  0.0140  0.3405 -0.9354
 9108SOL    HW232010   6.005   7.915  11.697  0.2419 -0.4694 -0.6217
 9109SOL     OW32011   0.397   8.856   9.816  0.3715  0.2030 -0.0381
 9109SOL    HW132012   0.481   8.823   9.848  0.0886  1.1708  1.8317
 9109SOL    HW232013   0.408   8.951   9.813  0.3552  0.1794 -2.9099
 9110SOL     OW32014   1.212   4.061   8.207  0.1059 -0.4414 -0.0089
 9110SOL    HW132015   1.242   4.022   8.125 -0.4821 -0.8478 -0.0442
 9110SOL    HW232016   1.286   4.053   8.267  0.1982 -1.0685 -0.2035
 9111SOL     OW32017   6.840   9.275   8.440 -0.2470 -0.2644 -0.2003
 9111SOL    HW132018   6.744   9.283   8.441 -0.2431 -0.0806 -0.6580
 9111SOL    HW232019   6.869   9.355   8.395  0.1256 -0.2734  0.0277
 9112SOL     OW32020   6.592   9.097   7.869 -0.3530  0.4869  0.0466
 9112SOL    HW132021   6.557   9.117   7.956  0.9880  1.3583  0.4187
 9112SOL    HW232022   6.553   9.162   7.812 -1.5807 -0.3587 -0.1084
 9113SOL     OW32023  11.282   9.267   6.213 -0.0690 -0.1576 -0.3989
 9113SOL    HW132024  11.217   9.288   6.280  0.0562  2.9821 -1.1117
 9113SOL    HW232025  11.346   9.338   6.219  0.5488 -0.3890 -3.0681
 9114SOL     OW32026   7.924  10.802   7.195 -0.5630  0.3639  0.1885
 9114SOL    HW132027   7.880  10.887   7.198 -0.7167  0.3711 -1.3764
 9114SOL    HW232028   7.969  10.801   7.111 -0.0964 -0.8831  0.4312
 9115SOL     OW32029   2.482   6.255   4.838  0.6574 -0.1223  0.0299
 9115SOL    HW132030   2.530   6.314   4.896  1.6405 -0.1663 -0.7180
 9115SOL    HW232031   2.548   6.196   4.803 -0.1126 -0.8645 -0.2193
 9116SOL     OW32032   1.482   9.545   0.336  0.1709 -0.4882 -0.0461
 9116SOL    HW132033   1.536   9.619   0.308 -1.3858  0.7552  0.1152
 9116SOL    HW232034   1.435   9.577   0.413 -1.4696 -1.1991 -0.7002
 9117SOL     OW32035   8.449   4.747  10.583 -0.0579  0.7876  0.1591
 9117SOL    HW132036   8.487   4.701  10.659 -1.8899  0.3727  0.8964
 9117SOL    HW232037   8.459   4.685  10.511 -0.5024  0.1467  0.6359
 9118SOL     OW32038   7.570  11.720   5.257 -0.1114  0.6616  0.3626
 9118SOL    HW132039   7.544  11.631   5.281 -0.3085  0.8740  0.9739
 9118SOL    HW232040   7.505  11.747   5.192 -0.6318  0.7000  0.8855
 9119SOL     OW32041   7.952   5.337   5.093 -0.2827 -0.0611  0.1950
 9119SOL    HW132042   7.933   5.256   5.141 -0.9689  0.1329  0.2581
 9119SOL    HW232043   8.046   5.350   5.104  0.2418 -1.9265 -1.4577
 9120SOL     OW32044   2.601   4.129   9.463  0.1401 -0.3217  0.2743
 9120SOL    HW132045   2.559   4.214   9.454  1.0934  0.0037 -1.3774
 9120SOL    HW232046   2.694   4.147   9.455  0.4982 -1.2980  1.8358
 9121SOL     OW32047   6.255   0.744  11.674  0.7137 -0.3025 -0.1244
 9121SOL    HW132048   6.225   0.834  11.664  2.5608  0.1483 -2.2551
 9121SOL    HW232049   6.195   0.693  11.619  0.3551 -0.2200  0.1885
 9122SOL     OW32050  10.233   2.304   7.740  0.2936  0.2824 -0.0759
 9122SOL    HW132051  10.279   2.387   7.753 -0.2846  0.7142 -0.7129
 9122SOL    HW232052  10.284   2.241   7.790  0.1041  1.2232  1.3824
 9123SOL     OW32053   8.860   7.854   2.996  0.1282  0.1698 -0.0151
 9123SOL    HW132054   8.937   7.886   3.042 -1.8047 -0.0731  3.7228
 9123SOL    HW232055   8.788   7.905   3.031 -1.7019 -0.8348 -2.0622
 9124SOL     OW32056   3.813   2.249   6.959  0.2827 -0.0446  0.4042
 9124SOL    HW132057   3.844   2.327   6.913  0.6692 -0.0808  0.5986
 9124SOL    HW232058   3.879   2.182   6.940 -1.1305 -0.9698 -1.5467
 9125SOL     OW32059   9.828   1.873   2.014  0.2610 -0.0444  0.4823
 9125SOL    HW132060   9.870   1.958   2.004  0.0460 -0.0485 -0.5453
 9125SOL    HW232061   9.749   1.879   1.960  0.1678 -0.8365  0.5231
 9126SOL     OW32062   6.579   2.459   4.141  0.6730  0.1861  0.1593
 9126SOL    HW132063   6.642   2.496   4.203  0.8696 -0.0511  0.1027
 9126SOL    HW232064   6.526   2.399   4.193  1.5077 -0.8046 -0.0984
 9127SOL     OW32065   4.047   8.551  10.450 -0.2561 -0.8679  0.1413
 9127SOL    HW132066   4.096   8.577  10.372 -0.7324 -0.5757 -0.0670
 9127SOL    HW232067   4.104   8.575  10.523  0.3655 -1.5244 -0.1277
 9128SOL     OW32068   7.427   2.653   2.791  0.4728  0.7296  0.7265
 9128SOL    HW132069   7.489   2.583   2.811  2.1927  1.5207 -1.4522
 9128SOL    HW232070   7.346   2.607   2.770  2.1452 -0.9904 -2.9300
 9129SOL     OW32071   1.643   6.124  11.062 -0.2747  0.3503 -0.4949
 9129SOL    HW132072   1.631   6.120  10.967 -0.8264 -0.3448 -0.4042
 9129SOL    HW232073   1.560   6.157  11.095 -0.6739 -0.9449 -0.1417
 9130SOL     OW32074   3.262   3.085   0.915 -0.5382  0.0381 -0.0105
 9130SOL    HW132075   3.255   3.021   0.845  0.0340 -1.4120  1.2025
 9130SOL    HW232076   3.172   3.114   0.930 -0.7775 -0.2958 -0.7383
 9131SOL     OW32077   1.675   8.636   7.215  0.1880  0.0876  0.0553
 9131SOL    HW132078   1.633   8.560   7.256  0.1210  0.0155 -0.1454
 9131SOL    HW232079   1.629   8.647   7.131 -0.0194  0.5458  0.2257
 9132SOL     OW32080   9.108   2.661  10.397  0.1683 -0.8825 -0.7883
 9132SOL    HW132081   9.019   2.651  10.365 -0.8997 -0.3289  1.7436
 9132SOL    HW232082   9.145   2.573  10.393 -1.0629 -1.4357 -0.3694
 9133SOL     OW32083   0.385   5.578  10.567  1.2038 -0.0962  0.0425
 9133SOL    HW132084   0.381   5.668  10.538 -0.7319 -0.2912 -0.3993
 9133SOL    HW232085   0.448   5.536  10.508  1.5746  0.7836 -0.1987
 9134SOL     OW32086   1.216   7.590   5.626 -0.4623  0.1181  0.1561
 9134SOL    HW132087   1.211   7.526   5.555 -0.2470  0.0073  0.2386
 9134SOL    HW232088   1.203   7.538   5.705  1.3477 -0.1037  0.3448
 9135SOL     OW32089   3.626   1.519   8.681 -0.3602 -0.2510 -0.2576
 9135SOL    HW132090   3.617   1.427   8.704 -1.7070 -0.0291  0.1968
 9135SOL    HW232091   3.711   1.545   8.718 -0.0507 -1.2498 -0.2372
 9136SOL     OW32092  11.757   0.211   7.700  0.5706 -0.0784  0.2492
 9136SOL    HW132093  11.834   0.156   7.714  0.9551 -0.0712 -1.6695
 9136SOL    HW232094  11.791   0.295   7.669 -0.1598  0.3585  0.5773
 9137SOL     OW32095   7.294   7.336   9.964 -0.5192 -0.4053 -0.4347
 9137SOL    HW132096   7.246   7.292   9.894  0.5690 -2.7944  0.1903
 9137SOL    HW232097   7.355   7.269   9.996  1.0808  1.5377  0.8090
 9138SOL     OW32098   0.693   5.040   9.157  0.0765 -0.6208  0.7084
 9138SOL    HW132099   0.774   5.006   9.195  0.8473 -0.0385 -0.3480
 9138SOL    HW232100   0.692   5.132   9.182 -1.5000 -1.1105  2.7171
 9139SOL     OW32101   6.864   3.910   9.592 -0.4861 -0.2461  0.0891
 9139SOL    HW132102   6.820   3.935   9.511 -1.4844 -0.8868  0.4144
 9139SOL    HW232103   6.920   3.985   9.612 -1.1421  0.4469 -0.5470
 9140SOL     OW32104   0.512   1.974   9.371 -0.0742  0.1083  0.4148
 9140SOL    HW132105   0.558   1.943   9.293  0.2038 -0.4175  0.7795
 9140SOL    HW232106   0.560   2.051   9.399 -0.3074  0.4321 -0.0555
 9141SOL     OW32107   2.149  11.816   2.853 -0.1214  0.1828 -0.2724
 9141SOL    HW132108   2.232  11.829   2.807 -1.1593  0.9412 -2.0350
 9141SOL    HW232109   2.115  11.904   2.868 -0.8497 -0.1349 -0.0053
 9142SOL     OW32110  10.829   9.822   1.509  0.4864 -0.3026 -0.5260
 9142SOL    HW132111  10.761   9.850   1.570 -0.1412  0.4320 -1.5338
 9142SOL    HW232112  10.863   9.904   1.472  0.3454 -0.7608 -1.6927
 9143SOL     OW32113  10.597   7.928   4.195  0.4283 -0.0881 -0.2986
 9143SOL    HW132114  10.615   8.016   4.161  2.1272 -0.2123  0.2263
 9143SOL    HW232115  10.552   7.944   4.278  0.3739  0.2816 -0.3952
 9144SOL     OW32116   0.774   4.479   5.875  0.1080 -0.5851  0.9826
 9144SOL    HW132117   0.762   4.390   5.908 -0.1221 -0.6395  0.7532
 9144SOL    HW232118   0.687   4.506   5.847  0.1176 -0.1787  1.3186
 9145SOL     OW32119   6.288   1.579   2.974  0.4808 -0.3968  0.0018
 9145SOL    HW132120   6.284   1.662   3.020  0.9724 -0.3852  0.0332
 9145SOL    HW232121   6.301   1.514   3.043 -1.2234 -0.6654  0.1189
 9146SOL     OW32122   9.262   8.680   1.330  0.4650 -0.3394  0.6321
 9146SOL    HW132123   9.279   8.671   1.236 -1.2285 -0.5128  0.3041
 9146SOL    HW232124   9.298   8.601   1.369  1.1177 -0.2989  0.1304
 9147SOL     OW32125   2.880   0.296   5.672 -0.3165  0.1846 -0.5007
 9147SOL    HW132126   2.793   0.256   5.666  0.1734 -0.9665  0.0059
 9147SOL    HW232127   2.916   0.288   5.584 -0.7908  0.8517 -0.7665
 9148SOL     OW32128   3.976   2.905   6.739  0.5155  0.3092  0.0291
 9148SOL    HW132129   3.926   2.962   6.798  0.2140  0.8363 -0.7138
 9148SOL    HW232130   4.009   2.835   6.795 -1.0349 -0.0466  0.5655
 9149SOL     OW32131   4.401  10.671   1.802 -0.2127 -0.0050  0.1067
 9149SOL    HW132132   4.328  10.642   1.747 -1.1364  0.8036  0.8763
 9149SOL    HW232133   4.443  10.589   1.831 -1.3350 -0.5106  0.3413
 9150SOL     OW32134   7.335   5.168   6.069 -0.5052 -0.0794 -0.0095
 9150SOL    HW132135   7.251   5.144   6.108 -0.3525  1.1396  1.1548
 9150SOL    HW232136   7.399   5.116   6.119 -0.4942 -0.4223 -0.3727
 9151SOL     OW32137   2.001   4.213   7.302 -0.2724 -0.2268  0.0455
 9151SOL    HW132138   1.995   4.232   7.396  1.1254 -0.9739  0.3214
 9151SOL    HW232139   2.055   4.134   7.298 -1.6255 -1.1437 -1.3164
 9152SOL     OW32140   1.834   4.384   5.576  0.0933  0.7699  0.1418
 9152SOL    HW132141   1.809   4.349   5.661  1.8486 -0.8785  0.0277
 9152SOL    HW232142   1.774   4.343   5.514  0.5290 -0.1263  0.3009
 9153SOL     OW32143   4.388   7.416   8.973  0.0951  0.3492  0.1801
 9153SOL    HW132144   4.318   7.412   8.908  0.5404  0.7961 -0.3433
 9153SOL    HW232145   4.405   7.324   8.995 -1.2382  0.2610  0.9748
 9154SOL     OW32146   9.054   9.413   3.771 -0.4726 -0.0100  0.5465
 9154SOL    HW132147   9.031   9.378   3.685 -2.5971 -1.2912  1.5548
 9154SOL    HW232148   9.044   9.508   3.761 -2.2186 -0.2323 -0.2741
 9155SOL     OW32149  10.288   9.479  11.723 -0.1321 -0.3612  0.3213
 9155SOL    HW132150  10.366   9.533  11.743  0.7905 -1.4939 -0.1137
 9155SOL    HW232151  10.260   9.509  11.637 -0.2970  0.1788  0.5553
 9156SOL     OW32152  11.894   6.686   7.371 -0.5063  0.3219  0.6421
 9156SOL    HW132153  11.965   6.676   7.306  0.7701  0.0098  2.0317
 9156SOL    HW232154  11.814   6.669   7.321  0.5805 -2.4979 -0.3455
 9157SOL     OW32155   2.611   1.068   6.240  0.0214  0.4699 -0.1185
 9157SOL    HW132156   2.614   1.157   6.206 -0.2140  1.3065  1.8990
 9157SOL    HW232157   2.699   1.051   6.274 -0.3730  0.6169  1.0365
 9158SOL     OW32158   7.339   9.647   4.332  0.0762  0.5640 -0.2208
 9158SOL    HW132159   7.276   9.678   4.267 -0.5257  0.4971  0.3343
 9158SOL    HW232160   7.336   9.712   4.402 -1.0377 -0.6151  0.8566
 9159SOL     OW32161   9.603   3.077   1.832 -0.2244 -0.3367  0.7702
 9159SOL    HW132162   9.545   3.108   1.763  1.0590  1.5263  0.4603
 9159SOL    HW232163   9.649   3.002   1.793 -0.2981  0.0281 -0.0305
 9160SOL     OW32164   6.900   2.273   7.928  0.7085 -0.1151  0.0295
 9160SOL    HW132165   6.885   2.357   7.971  1.2708  0.4325 -0.8081
 9160SOL    HW232166   6.854   2.209   7.982  0.8455  0.6405  1.0601
 9161SOL     OW32167   1.882   6.869   0.304  0.1113 -0.0920 -0.0724
 9161SOL    HW132168   1.856   6.804   0.239  0.2627  1.9105 -2.2492
 9161SOL    HW232169   1.806   6.927   0.312  0.6724  0.5986  0.3781
 9162SOL     OW32170   5.295   2.472   1.861  0.5401  0.7008  0.5214
 9162SOL    HW132171   5.353   2.400   1.836 -1.7554 -1.5413  1.3014
 9162SOL    HW232172   5.245   2.492   1.782 -0.9004 -0.6837  1.0342
 9163SOL     OW32173   7.386   2.947   6.722  0.5073  0.0462  0.1942
 9163SOL    HW132174   7.291   2.957   6.731  0.4252 -0.1862 -0.3741
 9163SOL    HW232175   7.409   2.999   6.645  0.5325 -1.4428 -0.8649
 9164SOL     OW32176  10.377  11.433   4.228  0.1392 -0.0150 -0.4069
 9164SOL    HW132177  10.299  11.463   4.274  0.1995  0.9103 -0.8725
 9164SOL    HW232178  10.450  11.459   4.285  0.1123 -0.9465  0.0640
 9165SOL     OW32179   7.203  11.961   0.083 -0.1690  0.3256 -0.1975
 9165SOL    HW132180   7.110  11.958   0.063 -0.1819 -1.2439 -0.0865
 9165SOL    HW232181   7.235  12.043   0.045 -1.1772 -0.1244 -2.0941
 9166SOL     OW32182   8.750  11.390   9.435 -0.1006  0.0350 -0.2545
 9166SOL    HW132183   8.772  11.332   9.362 -2.1379  0.2222 -1.0908
 9166SOL    HW232184   8.733  11.331   9.509  0.4745 -0.2488 -0.3455
 9167SOL     OW32185   1.829   6.896   6.474 -0.0840 -0.0023 -0.0888
 9167SOL    HW132186   1.907   6.858   6.513 -0.5453  0.5101  1.3925
 9167SOL    HW232187   1.786   6.822   6.430 -0.2061 -0.8995  1.4809
 9168SOL     OW32188   2.695   4.170   2.871 -0.1474 -0.8332  0.5806
 9168SOL    HW132189   2.745   4.241   2.911 -1.8490  0.5844  0.2802
 9168SOL    HW232190   2.748   4.145   2.794  1.1789 -0.9172  1.4850
 9169SOL     OW32191   8.904   9.239   7.788  0.1979 -0.1404 -0.4496
 9169SOL    HW132192   8.874   9.328   7.805  0.0021 -0.2687 -0.1066
 9169SOL    HW232193   8.999   9.244   7.800  0.2919  0.2042 -1.2672
 9170SOL     OW32194   6.808   5.976  11.307  0.5010 -0.8956  0.1053
 9170SOL    HW132195   6.813   5.900  11.366  1.6378 -1.1349 -0.2898
 9170SOL    HW232196   6.828   5.941  11.221 -0.6195 -0.4386 -0.3675
 9171SOL     OW32197   3.054   2.776   7.601 -0.1770 -0.0337  0.4536
 9171SOL    HW132198   3.042   2.681   7.609 -0.2103 -0.2315 -1.3681
 9171SOL    HW232199   2.970   2.808   7.568  0.3161  0.3735 -0.4506
 9172SOL     OW32200   2.696   4.518   0.234 -0.0933  0.1206 -0.0449
 9172SOL    HW132201   2.684   4.458   0.161  0.3538  0.0470 -0.0580
 9172SOL    HW232202   2.709   4.461   0.310  0.2826  0.1998 -0.0487
 9173SOL     OW32203   4.866   0.838   3.877  0.9575  0.4725  0.0109
 9173SOL    HW132204   4.848   0.906   3.942  0.7372  1.0646 -0.6539
 9173SOL    HW232205   4.811   0.764   3.904  2.9671 -0.3658  2.1198
 9174SOL     OW32206   9.704   3.688   0.893 -0.1119 -0.3913 -0.0878
 9174SOL    HW132207   9.668   3.607   0.858  0.0025 -0.1722 -0.7275
 9174SOL    HW232208   9.678   3.755   0.830 -2.1545  0.4735  1.5509
 9175SOL     OW32209   5.867   0.084   2.723 -0.0709 -0.0189 -0.8722
 9175SOL    HW132210   5.937   0.118   2.778 -1.0025  2.6097 -1.1705
 9175SOL    HW232211   5.885  -0.010   2.716  0.5537 -0.3963  3.2166
 9176SOL     OW32212  11.333   0.211   2.666 -0.0057 -0.3634  0.6011
 9176SOL    HW132213  11.343   0.140   2.730  0.0897  0.0987  1.1047
 9176SOL    HW232214  11.258   0.261   2.698 -0.9177 -0.9982 -0.4851
 9177SOL     OW32215   4.294   0.012   3.115 -0.0912 -0.1908  0.4031
 9177SOL    HW132216   4.223   0.058   3.071  0.9340  0.9466 -0.1544
 9177SOL    HW232217   4.264   0.002   3.205 -1.2204 -0.3375  0.0211
 9178SOL     OW32218   1.903   4.563   8.324 -0.2384 -0.0503 -0.2753
 9178SOL    HW132219   1.855   4.560   8.407 -1.0329 -0.5516 -0.7376
 9178SOL    HW232220   1.992   4.588   8.348 -0.0134 -1.8671  0.9267
 9179SOL     OW32221   6.402  10.563  11.939  0.2913  0.0297 -0.0974
 9179SOL    HW132222   6.493  10.586  11.920  0.7796 -1.0526  0.8200
 9179SOL    HW232223   6.395  10.471  11.913 -0.7843  0.3347 -0.9461
 9180SOL     OW32224   3.891   3.237   3.473  0.5332 -0.0970  0.2826
 9180SOL    HW132225   3.948   3.281   3.410  0.9765  0.4396  1.0464
 9180SOL    HW232226   3.832   3.184   3.419  0.6770  0.6172 -0.5923
 9181SOL     OW32227   3.733   0.232   5.881  0.1651 -0.2815  0.4008
 9181SOL    HW132228   3.820   0.249   5.916  1.0865  0.2669 -1.9634
 9181SOL    HW232229   3.702   0.318   5.851 -1.2225 -0.4696  1.1956
 9182SOL     OW32230   9.435   2.461   6.047  0.8551 -0.4220  0.3854
 9182SOL    HW132231   9.444   2.368   6.069  1.0637 -0.8231 -1.2861
 9182SOL    HW232232   9.504   2.477   5.983 -0.4612  0.3568 -0.9069
 9183SOL     OW32233   7.122   5.393   2.575 -0.5939 -0.3740  0.2532
 9183SOL    HW132234   7.109   5.432   2.488  0.9696 -0.2317  0.0638
 9183SOL    HW232235   7.104   5.465   2.636  0.8605  0.2947 -0.0560
 9184SOL     OW32236   8.250   9.795   3.936  0.1542  0.0198  0.1321
 9184SOL    HW132237   8.226   9.842   3.856  1.6287 -2.3513 -1.8368
 9184SOL    HW232238   8.334   9.756   3.916 -0.2222 -2.0604  2.2461
 9185SOL     OW32239   2.389   9.581   6.670  0.4834 -0.4116  0.6474
 9185SOL    HW132240   2.416   9.552   6.583 -0.6791 -0.5462  0.3214
 9185SOL    HW232241   2.453   9.648   6.694  0.2044  0.3932 -0.7504
 9186SOL     OW32242   5.717   4.340  10.565  0.2056 -0.6643 -0.2746
 9186SOL    HW132243   5.716   4.315  10.472  1.5732 -1.4114 -0.1112
 9186SOL    HW232244   5.685   4.262  10.610  3.5250 -1.9315  0.1596
 9187SOL     OW32245   6.005   7.370   0.706 -0.4856  0.7517  0.4030
 9187SOL    HW132246   5.987   7.292   0.653 -1.2407  1.0574  0.2108
 9187SOL    HW232247   5.992   7.341   0.796 -2.8434  1.1815  0.2432
 9188SOL     OW32248   7.448   6.557   0.464  0.0639 -0.3450 -0.8447
 9188SOL    HW132249   7.380   6.530   0.402 -0.3711  0.8919 -0.9373
 9188SOL    HW232250   7.523   6.582   0.409  0.5227 -1.4587 -0.7532
 9189SOL     OW32251   5.385   5.880   3.156 -0.4485 -0.0539 -0.2003
 9189SOL    HW132252   5.404   5.792   3.187 -1.0869 -0.5157 -1.0680
 9189SOL    HW232253   5.304   5.870   3.105 -0.6781  1.0793 -0.0755
 9190SOL     OW32254   0.294  10.295   0.247 -0.3943 -0.2628  0.2739
 9190SOL    HW132255   0.373  10.243   0.265  0.9317  1.6729  0.3922
 9190SOL    HW232256   0.285  10.293   0.152  0.7289  0.7409  0.1261
 9191SOL     OW32257   8.747   9.373   4.572 -0.0076  0.4841 -0.0986
 9191SOL    HW132258   8.665   9.417   4.549  0.4616  0.3675 -2.2892
 9191SOL    HW232259   8.795   9.368   4.489  1.9409 -0.0407  0.9880
 9192SOL     OW32260   7.009  10.631   0.570  0.8931 -0.2319  0.6407
 9192SOL    HW132261   7.061  10.699   0.527  0.7947 -0.0814  0.7585
 9192SOL    HW232262   6.932  10.620   0.515  1.6687 -1.3874 -0.2483
 9193SOL     OW32263   2.133   9.792  10.588 -0.1979 -0.0437 -0.1064
 9193SOL    HW132264   2.113   9.707  10.549 -1.4956  0.3977 -0.4744
 9193SOL    HW232265   2.052   9.843  10.576  0.5417  1.2252  0.1356
 9194SOL     OW32266   5.492   9.783   3.037  0.0919  0.1428  0.1007
 9194SOL    HW132267   5.417   9.838   3.015  0.0831  0.0390 -0.1347
 9194SOL    HW232268   5.545   9.836   3.096 -0.6348 -0.1256  1.0191
 9195SOL     OW32269   3.398   6.010   9.733  0.6781  0.0057  0.9895
 9195SOL    HW132270   3.343   5.933   9.745  2.8553 -1.9402 -0.7203
 9195SOL    HW232271   3.355   6.059   9.663  0.4148 -0.8260  0.5519
 9196SOL     OW32272   6.023  11.971  11.514  0.1375 -0.0210 -0.2453
 9196SOL    HW132273   6.091  11.951  11.450  0.2547 -0.8101  0.1122
 9196SOL    HW232274   6.023  12.067  11.521  1.5392 -0.0218  0.0975
 9197SOL     OW32275   5.133   3.736   3.990  1.0014  0.6050  0.1860
 9197SOL    HW132276   5.216   3.748   4.037  1.3142 -1.5080  0.2575
 9197SOL    HW232277   5.071   3.710   4.058  0.5370  1.1029 -0.0412
 9198SOL     OW32278   3.447   6.330  10.610 -0.8712 -0.1688 -0.1422
 9198SOL    HW132279   3.378   6.284  10.659 -0.7106 -0.7164 -0.4213
 9198SOL    HW232280   3.509   6.357  10.677 -0.1338 -1.8041 -0.1020
 9199SOL     OW32281   2.051  11.529   6.572  0.4330  0.2869  0.6519
 9199SOL    HW132282   2.004  11.470   6.631  0.2045  1.4263  1.6463
 9199SOL    HW232283   2.110  11.578   6.629 -0.5444  2.1645  0.1458
 9200SOL     OW32284   1.151   1.121   5.675 -0.1941 -0.1831 -0.0181
 9200SOL    HW132285   1.200   1.155   5.749  3.1462  0.8522 -2.4518
 9200SOL    HW232286   1.191   1.035   5.657  1.5309  1.0247 -2.5488
 9201SOL     OW32287   5.468   7.896   4.452 -0.6488 -0.0584 -0.2244
 9201SOL    HW132288   5.528   7.943   4.393 -1.3781  0.2702 -0.7222
 9201SOL    HW232289   5.516   7.887   4.534 -1.3123  3.7428  0.7788
 9202SOL     OW32290   3.135  11.478  11.779  0.1544  0.0276  0.1660
 9202SOL    HW132291   3.063  11.513  11.831 -1.7152 -1.8582 -0.9953
 9202SOL    HW232292   3.168  11.405  11.830  1.1782  0.7760  0.6104
 9203SOL     OW32293   1.470  11.400  11.983 -0.7859  0.0396 -0.3863
 9203SOL    HW132294   1.389  11.373  11.939 -1.8504  3.5836 -0.8640
 9203SOL    HW232295   1.448  11.395  12.076 -1.6056  1.0027 -0.5103
 9204SOL     OW32296   7.882   7.740   0.855  0.2630 -0.5344 -0.0861
 9204SOL    HW132297   7.922   7.670   0.804  2.6363  0.0064  0.8735
 9204SOL    HW232298   7.865   7.809   0.791 -0.0677 -1.1622 -0.6877
 9205SOL     OW32299   8.829  11.603   3.142 -0.0813  0.4198  0.2175
 9205SOL    HW132300   8.919  11.575   3.127 -0.1063 -0.0574  0.9196
 9205SOL    HW232301   8.799  11.549   3.215 -1.0341  0.3640 -0.2030
 9206SOL     OW32302   6.383   7.435   9.633  0.7910 -0.3837  0.0528
 9206SOL    HW132303   6.352   7.482   9.710  0.9502  0.6466 -0.4981
 9206SOL    HW232304   6.325   7.465   9.562  2.7828  1.3805 -0.9511
 9207SOL     OW32305   6.902   1.615   8.575 -0.3808 -0.1608  0.1031
 9207SOL    HW132306   6.809   1.610   8.596 -0.1468 -1.6614  0.9046
 9207SOL    HW232307   6.920   1.535   8.525  0.4342  0.2418 -0.2688
 9208SOL     OW32308   8.005   8.860   5.391 -0.1814 -0.0018 -0.1717
 9208SOL    HW132309   8.048   8.796   5.334 -0.3749 -0.3574  0.0729
 9208SOL    HW232310   7.913   8.832   5.393  0.0769 -0.9170  1.5017
 9209SOL     OW32311   3.179   6.510   6.223  0.3601  0.4255  0.0480
 9209SOL    HW132312   3.158   6.495   6.315 -0.8232  0.9070 -0.1122
 9209SOL    HW232313   3.094   6.509   6.179  0.8071  1.2033 -0.8830
 9210SOL     OW32314   6.662   7.543   1.580  0.3920 -0.0897 -0.7804
 9210SOL    HW132315   6.614   7.566   1.501 -1.0883 -0.1680  0.0669
 9210SOL    HW232316   6.679   7.449   1.572  0.3849 -0.0662 -1.0702
 9211SOL     OW32317   0.193   3.837  10.080  0.0013 -0.2013  0.1385
 9211SOL    HW132318   0.109   3.846  10.035 -0.4480 -0.1918  0.9521
 9211SOL    HW232319   0.182   3.760  10.136 -0.5098  1.4293  2.4192
 9212SOL     OW32320   3.323   3.934   9.808 -0.4112  0.4589  0.5562
 9212SOL    HW132321   3.404   3.930   9.859 -1.1135  0.0826  1.6888
 9212SOL    HW232322   3.253   3.923   9.873 -1.3740  0.7344 -0.3975
 9213SOL     OW32323   5.888   9.035   0.444 -0.0483  0.2550  0.2409
 9213SOL    HW132324   5.969   9.083   0.459  0.6443 -0.4691 -0.9929
 9213SOL    HW232325   5.905   8.983   0.365 -0.8238 -1.7911  1.3200
 9214SOL     OW32326  11.050   6.440   1.633  0.1660  0.5491  1.0029
 9214SOL    HW132327  11.022   6.349   1.623 -0.8349  0.5595  3.1048
 9214SOL    HW232328  11.021   6.483   1.552  0.1834 -0.8777  0.2079
 9215SOL     OW32329   1.139   9.726  11.936  0.0209  0.1841  0.0427
 9215SOL    HW132330   1.186   9.703  12.016 -1.0830 -1.1763  0.3288
 9215SOL    HW232331   1.162   9.818  11.921  1.8351 -0.1058  0.7826
 9216SOL     OW32332   5.695   5.419   3.605 -0.1577 -0.1060 -0.3366
 9216SOL    HW132333   5.636   5.493   3.621  0.3093  0.2699 -0.3254
 9216SOL    HW232334   5.707   5.417   3.510 -0.6608 -0.5552 -0.3927
 9217SOL     OW32335   2.192   6.344   1.962 -0.1269 -0.1305  0.1896
 9217SOL    HW132336   2.121   6.341   1.899 -0.3847 -0.9746  0.5048
 9217SOL    HW232337   2.211   6.252   1.981 -0.2845  0.1036  1.5901
 9218SOL     OW32338   1.767   8.977  11.915 -0.3362  0.2600 -0.5013
 9218SOL    HW132339   1.775   9.064  11.953  0.5174  0.9370 -2.1370
 9218SOL    HW232340   1.760   8.918  11.991  1.1296  1.5308  0.6920
 9219SOL     OW32341   7.244   8.259   5.871  0.4192 -0.1917  0.2047
 9219SOL    HW132342   7.259   8.352   5.890 -1.1050  0.3072 -0.8002
 9219SOL    HW232343   7.277   8.248   5.782  0.8964 -0.7029  0.4422
 9220SOL     OW32344   9.893   0.731   9.199  0.6802  0.3335 -0.1538
 9220SOL    HW132345   9.975   0.683   9.184  1.2253  0.8250  1.1644
 9220SOL    HW232346   9.825   0.664   9.200  1.4220 -0.4298  1.5909
 9221SOL     OW32347   4.136   9.630   5.275 -0.1908 -0.0249 -0.3698
 9221SOL    HW132348   4.050   9.589   5.282  0.2212 -0.7367  0.8366
 9221SOL    HW232349   4.198   9.556   5.276  0.4594  0.5110 -0.3777
 9222SOL     OW32350   9.784   4.643  11.721  0.0216  0.2908 -0.2506
 9222SOL    HW132351   9.832   4.627  11.639  0.5239 -0.7349  0.2223
 9222SOL    HW232352   9.732   4.564  11.734  0.4198  0.1796  0.7376
 9223SOL     OW32353  11.857   3.410  11.661 -0.1941  0.0172  0.1089
 9223SOL    HW132354  11.879   3.499  11.690  3.6280 -1.2870  1.9665
 9223SOL    HW232355  11.807   3.372  11.733 -0.2519  0.1287  0.1269
 9224SOL     OW32356   2.977   3.136   6.098  0.0135  0.4704 -0.1886
 9224SOL    HW132357   3.031   3.189   6.157 -1.5248 -0.5384  2.3235
 9224SOL    HW232358   3.004   3.046   6.116 -0.1070  0.1576 -1.4897
 9225SOL     OW32359  11.724   9.568  10.265  0.0882 -0.0052  0.2308
 9225SOL    HW132360  11.746   9.496  10.324 -0.5671  0.1748  0.7090
 9225SOL    HW232361  11.797   9.571  10.202  0.4929 -0.5925  0.6613
 9226SOL     OW32362   3.116   2.388  10.847  0.2065 -0.1126  0.8260
 9226SOL    HW132363   3.073   2.398  10.762  0.3910  2.1128  0.9263
 9226SOL    HW232364   3.148   2.298  10.848  1.8823  0.3062 -2.2734
 9227SOL     OW32365   7.042   8.214  11.220 -0.0657  0.0003  0.4525
 9227SOL    HW132366   7.038   8.119  11.208  0.5810  0.0428 -0.1592
 9227SOL    HW232367   7.134   8.236  11.209 -0.0878  0.6150  1.3561
 9228SOL     OW32368  10.693   4.981   6.063 -0.3443 -0.2236 -0.4951
 9228SOL    HW132369  10.775   5.029   6.051 -0.5326  0.2398  0.0259
 9228SOL    HW232370  10.625   5.044   6.040 -0.6086 -0.1252  0.5167
 9229SOL     OW32371   0.532   4.624  11.357  0.0466  0.2742 -0.1431
 9229SOL    HW132372   0.518   4.701  11.412  1.5622  0.2493  0.3399
 9229SOL    HW232373   0.615   4.588  11.389 -0.1668 -1.0164 -0.9916
 9230SOL     OW32374   5.082   8.547   4.053 -0.5206  0.8802 -0.5042
 9230SOL    HW132375   5.067   8.557   3.959 -1.3263  1.0309 -0.3686
 9230SOL    HW232376   5.008   8.494   4.083 -0.5807  1.3180  0.1343
 9231SOL     OW32377   1.635   4.155   3.155  1.0590 -0.2563  0.0711
 9231SOL    HW132378   1.545   4.124   3.146  0.2911  1.5867  0.7999
 9231SOL    HW232379   1.689   4.076   3.148 -0.6538 -1.5093  0.4192
 9232SOL     OW32380   7.484   7.211   9.741 -0.0255  0.4682  0.3793
 9232SOL    HW132381   7.501   7.303   9.763  0.8262  0.3669  0.1637
 9232SOL    HW232382   7.559   7.164   9.778  0.0894 -0.0104 -0.4506
 9233SOL     OW32383   4.284   3.646   6.128 -0.1255  0.5079  0.1548
 9233SOL    HW132384   4.364   3.652   6.181 -0.0192 -3.4978  0.8098
 9233SOL    HW232385   4.240   3.567   6.161 -2.3138  0.3159 -2.8368
 9234SOL     OW32386   8.819   0.895   5.693  0.4450 -0.2932  0.0827
 9234SOL    HW132387   8.724   0.893   5.705  0.4332  1.3285  0.5120
 9234SOL    HW232388   8.852   0.820   5.743 -0.5999 -0.7842  0.0403
 9235SOL     OW32389   9.396   3.757   2.026  0.2397 -0.0931 -0.4334
 9235SOL    HW132390   9.488   3.738   2.006  0.3979 -0.5899  0.7042
 9235SOL    HW232391   9.395   3.850   2.048  0.5023 -0.1320 -0.2534
 9236SOL     OW32392   5.148   5.794  10.373 -0.1150  0.3724 -0.1407
 9236SOL    HW132393   5.235   5.812  10.339 -0.4318  0.3963 -0.9580
 9236SOL    HW232394   5.118   5.878  10.409 -0.1893  0.6231 -0.7664
 9237SOL     OW32395   1.199   2.935  10.696 -0.4404  0.2289 -0.1681
 9237SOL    HW132396   1.283   2.897  10.720 -0.9913 -0.3390  0.9281
 9237SOL    HW232397   1.196   2.927  10.601  0.8334  0.4717 -0.2508
 9238SOL     OW32398   1.108   8.910  10.907  0.5445  0.3064 -0.3220
 9238SOL    HW132399   1.151   8.885  10.825  2.7275 -2.2762  1.4089
 9238SOL    HW232400   1.094   8.827  10.953  1.2015  1.7244  2.7208
 9239SOL     OW32401   3.898   7.932   7.886 -0.1278  0.0220  0.4169
 9239SOL    HW132402   3.828   7.939   7.950 -0.6922  0.4640 -0.2360
 9239SOL    HW232403   3.910   8.021   7.854  0.0694 -0.2125 -0.1709
 9240SOL     OW32404   1.247   3.518   7.737 -0.1715  0.5283 -0.2497
 9240SOL    HW132405   1.246   3.536   7.831  3.1251  0.5987 -0.1005
 9240SOL    HW232406   1.231   3.424   7.730  2.1910 -0.0092  0.6899
 9241SOL     OW32407  10.448   4.698   6.899 -0.2974 -0.0144  0.1722
 9241SOL    HW132408  10.418   4.610   6.876 -0.6750  0.3396 -0.7414
 9241SOL    HW232409  10.505   4.724   6.827 -1.3705  1.0568 -0.3183
 9242SOL     OW32410   4.518   8.649   0.083  0.2547 -0.5434 -0.1152
 9242SOL    HW132411   4.551   8.652  -0.006 -0.0818  1.9110 -0.2343
 9242SOL    HW232412   4.586   8.689   0.136 -0.7744  0.8077  0.2406
 9243SOL     OW32413   6.061   8.299   1.974  0.3118  0.5660  0.7723
 9243SOL    HW132414   6.082   8.340   2.058 -0.7005  1.0638  0.8046
 9243SOL    HW232415   6.050   8.206   1.994  0.2986  0.6479  1.1533
 9244SOL     OW32416   7.464  10.469  11.832 -0.1877 -0.2187 -0.4952
 9244SOL    HW132417   7.411  10.535  11.878  1.0111 -0.5601  1.5072
 9244SOL    HW232418   7.409  10.391  11.830  0.3347 -0.7892  2.2027
 9245SOL     OW32419   5.353   2.766   0.051  0.0617  0.2785 -0.2072
 9245SOL    HW132420   5.278   2.771   0.110  0.6066 -2.0584  0.7806
 9245SOL    HW232421   5.428   2.756   0.109  0.6076 -2.1092 -1.2335
 9246SOL     OW32422  11.049   8.179   4.651  0.1270  0.0047 -0.0900
 9246SOL    HW132423  11.134   8.135   4.651 -0.5455 -1.3591  0.7488
 9246SOL    HW232424  11.063   8.260   4.601  1.6474 -0.7012 -0.8474
 9247SOL     OW32425   8.989   2.488   0.969  0.2351 -0.1230  0.2139
 9247SOL    HW132426   8.979   2.563   0.910 -0.0219 -0.7690 -0.5822
 9247SOL    HW232427   8.971   2.523   1.056  0.6743  0.8597 -0.0828
 9248SOL     OW32428   6.143  10.382   4.634  0.9019 -0.4867 -0.0657
 9248SOL    HW132429   6.094  10.445   4.688  3.4848  0.9770  0.7847
 9248SOL    HW232430   6.173  10.316   4.697  0.4392 -1.0896 -0.4786
 9249SOL     OW32431   0.438   4.809   5.768  0.1019  0.0569  0.3439
 9249SOL    HW132432   0.491   4.876   5.811  1.3032 -1.4372  1.3442
 9249SOL    HW232433   0.371   4.786   5.832 -0.2623  0.2454  0.0327
 9250SOL     OW32434   0.612   4.591   7.554 -0.0147 -0.7827  0.0052
 9250SOL    HW132435   0.694   4.551   7.584  0.3215 -0.4915 -0.5173
 9250SOL    HW232436   0.561   4.517   7.520  0.7240 -0.7563 -1.2272
 9251SOL     OW32437   2.597   3.243  11.623  0.2803 -0.4027  0.3682
 9251SOL    HW132438   2.624   3.334  11.613  1.7421 -1.0007 -1.7340
 9251SOL    HW232439   2.547   3.224  11.544 -0.7606 -1.2191  1.1854
 9252SOL     OW32440  10.483   3.297   0.361 -0.6791 -0.0410 -0.4198
 9252SOL    HW132441  10.544   3.271   0.292 -1.0264  1.3617 -1.2891
 9252SOL    HW232442  10.489   3.227   0.426  1.2112 -0.3536 -0.8854
 9253SOL     OW32443   4.607   0.533   9.544 -0.1379  0.2279 -0.3542
 9253SOL    HW132444   4.572   0.491   9.465 -0.9651  0.2533 -0.0101
 9253SOL    HW232445   4.649   0.461   9.591 -0.1028  0.1057 -0.5682
 9254SOL     OW32446   5.351   4.595   3.668 -0.1622  0.3305  0.2177
 9254SOL    HW132447   5.356   4.681   3.626  0.8315  0.2259  0.0907
 9254SOL    HW232448   5.443   4.572   3.685 -0.3770 -0.9331 -0.2246
 9255SOL     OW32449   4.514   8.511  10.706 -0.6361  0.2689  0.0770
 9255SOL    HW132450   4.584   8.576  10.698 -0.6978  0.4345  0.8605
 9255SOL    HW232451   4.519   8.480  10.796  0.9341 -2.5639 -0.8424
 9256SOL     OW32452   4.816  11.063   3.943  0.0818 -1.1428  0.3809
 9256SOL    HW132453   4.831  11.133   3.879 -0.0913 -1.0048  0.4915
 9256SOL    HW232454   4.897  11.011   3.940  0.7266 -0.2257  1.1889
 9257SOL     OW32455   0.525   2.311   3.806 -0.3365 -0.2897  0.1428
 9257SOL    HW132456   0.606   2.273   3.770 -0.5080  0.8729 -1.5791
 9257SOL    HW232457   0.552   2.396   3.839 -1.0141  0.5889 -1.4621
 9258SOL     OW32458  10.672  10.486   4.221 -0.0466 -0.1327  0.5406
 9258SOL    HW132459  10.604  10.419   4.212  0.1384 -0.5184  1.9227
 9258SOL    HW232460  10.751  10.437   4.244  0.4195  0.4446  0.2092
 9259SOL     OW32461   1.213   7.324   0.991  0.0880  0.0961  0.1853
 9259SOL    HW132462   1.223   7.277   1.074 -0.2362  0.1294  0.2443
 9259SOL    HW232463   1.286   7.385   0.990 -0.7514  1.1855  1.1851
 9260SOL     OW32464  11.397   1.672   2.432 -0.0154 -0.1625  0.0176
 9260SOL    HW132465  11.490   1.649   2.443 -0.1974 -0.6803  0.5118
 9260SOL    HW232466  11.397   1.736   2.361  0.4887 -1.7788 -1.5111
 9261SOL     OW32467   5.382   1.834   8.288 -0.0529  0.3212 -0.1099
 9261SOL    HW132468   5.323   1.894   8.333 -1.1761  0.0979 -1.2258
 9261SOL    HW232469   5.411   1.773   8.356 -0.0568  1.2239  0.7211
 9262SOL     OW32470   6.378   2.042   1.656  0.6243  0.2399 -0.3803
 9262SOL    HW132471   6.451   2.029   1.717  1.8118 -1.5126 -2.0594
 9262SOL    HW232472   6.382   2.134   1.633  0.6699  0.7542  1.4980
 9263SOL     OW32473   2.528  10.821   9.802  0.2146  0.0316 -0.1416
 9263SOL    HW132474   2.484  10.888   9.855  0.3609  0.7217 -0.8745
 9263SOL    HW232475   2.475  10.814   9.723  0.6352 -0.1483 -0.4131
 9264SOL     OW32476   3.075   0.761  11.820  0.5779 -0.0459 -0.5456
 9264SOL    HW132477   3.090   0.855  11.831 -0.0036 -0.1198  1.1608
 9264SOL    HW232478   3.104   0.722  11.902 -2.2538 -0.9488  0.1286
 9265SOL     OW32479   8.015  11.742   5.124 -0.7523  0.2411  0.0102
 9265SOL    HW132480   7.955  11.667   5.131  0.4065 -0.7836 -0.6361
 9265SOL    HW232481   8.062  11.742   5.208  0.4274 -0.8339 -0.6162
 9266SOL     OW32482   8.242   2.397  11.712 -0.2714 -0.2560 -0.0649
 9266SOL    HW132483   8.233   2.315  11.664  0.1117 -0.5413  0.3476
 9266SOL    HW232484   8.192   2.382  11.793 -0.8810  0.2068 -0.3467
 9267SOL     OW32485   2.465  10.642   7.198  0.3924  0.0257 -0.1514
 9267SOL    HW132486   2.556  10.636   7.168  0.1240  1.9080 -1.5784
 9267SOL    HW232487   2.414  10.611   7.123 -0.1627  0.5561  0.0013
 9268SOL     OW32488   8.698   8.250   0.068  0.0216  0.3407 -0.2121
 9268SOL    HW132489   8.788   8.231   0.095 -0.0008  2.6600  1.9120
 9268SOL    HW232490   8.646   8.234   0.147 -1.7992 -2.4545 -1.7918
 9269SOL     OW32491   7.117   4.319   4.451 -0.2329  0.3812  0.2968
 9269SOL    HW132492   7.161   4.404   4.445  0.2009  0.1087 -0.4422
 9269SOL    HW232493   7.106   4.305   4.545 -2.0168  2.1051  0.3897
 9270SOL     OW32494  11.135   4.155   9.114 -0.1192 -0.1311  0.2131
 9270SOL    HW132495  11.200   4.112   9.059 -1.9851 -0.4811 -1.8247
 9270SOL    HW232496  11.093   4.083   9.161 -1.6378 -0.3564 -1.4216
 9271SOL     OW32497   5.194   6.394  10.389 -0.0572 -0.0798 -0.1540
 9271SOL    HW132498   5.209   6.310  10.347  2.3071  0.2239 -0.0348
 9271SOL    HW232499   5.281   6.426  10.412 -1.0090  1.5275  1.5467
 9272SOL     OW32500   6.497   5.574   2.250  0.0490 -0.6234 -0.0854
 9272SOL    HW132501   6.411   5.557   2.213  0.7045 -0.6466 -1.6737
 9272SOL    HW232502   6.543   5.624   2.183  2.3334 -3.2307 -0.6334
 9273SOL     OW32503  10.659   9.418   5.484  0.9695  0.7167 -0.7331
 9273SOL    HW132504  10.738   9.366   5.465  0.9688  0.4198  0.0355
 9273SOL    HW232505  10.681   9.467   5.563  0.8362  1.6261 -1.2511
 9274SOL     OW32506   4.277   4.431   9.545  0.2899  0.1027  0.1687
 9274SOL    HW132507   4.334   4.506   9.531  1.3826 -0.8496 -0.7260
 9274SOL    HW232508   4.288   4.377   9.467 -1.5900 -0.3061  0.1289
 9275SOL     OW32509   5.603   6.108   9.343 -0.5543 -0.0528 -0.6184
 9275SOL    HW132510   5.623   6.201   9.351 -2.1678  0.3900 -1.4774
 9275SOL    HW232511   5.642   6.069   9.422  0.4706  1.2607 -0.4304
 9276SOL     OW32512   1.290   1.160   2.814  0.1155 -0.0319 -0.5006
 9276SOL    HW132513   1.231   1.181   2.742  0.0792 -0.0115 -0.4651
 9276SOL    HW232514   1.233   1.149   2.890 -0.0176 -1.8513 -0.8377
 9277SOL     OW32515   2.664   4.735   7.863  0.2833  0.5057  0.2227
 9277SOL    HW132516   2.751   4.771   7.883  1.2542 -0.4379 -1.9280
 9277SOL    HW232517   2.625   4.800   7.805 -0.1176  0.5484  0.5425
 9278SOL     OW32518   3.287   9.408   5.915  0.1508 -0.4002  0.2288
 9278SOL    HW132519   3.360   9.466   5.892 -0.6223  0.4467 -0.1590
 9278SOL    HW232520   3.310   9.373   6.001 -0.6609  2.7569  1.8998
 9279SOL     OW32521   6.671  11.799   5.091 -0.3794 -0.5109  0.0030
 9279SOL    HW132522   6.740  11.774   5.030  0.0283 -0.2460  0.3522
 9279SOL    HW232523   6.625  11.870   5.046  0.7774  0.6272  0.5681
 9280SOL     OW32524   4.694   4.793  11.188  0.2865  0.2112  0.0738
 9280SOL    HW132525   4.762   4.828  11.245  1.6850 -1.0798 -0.7426
 9280SOL    HW232526   4.633   4.749  11.248  0.5840  0.6827  0.7370
 9281SOL     OW32527   3.495   2.393   7.679 -0.5280  0.2459  0.2746
 9281SOL    HW132528   3.569   2.395   7.618 -1.4155  0.8628 -0.8291
 9281SOL    HW232529   3.513   2.464   7.741  1.3574 -1.6157  2.0072
 9282SOL     OW32530   8.354   3.454   5.512  0.2870 -0.3641 -0.0251
 9282SOL    HW132531   8.365   3.526   5.450 -0.0681  0.4416  0.8209
 9282SOL    HW232532   8.360   3.375   5.458  1.1184  0.2729 -0.9113
 9283SOL     OW32533   1.873   6.037   1.092 -0.1305 -0.0810 -0.0846
 9283SOL    HW132534   1.895   5.966   1.032  0.7949 -0.6186  0.8602
 9283SOL    HW232535   1.938   6.031   1.161  0.7829  2.4987 -0.6196
 9284SOL     OW32536  10.029   8.362  11.626 -0.6520 -0.1908  0.1681
 9284SOL    HW132537  10.053   8.369  11.533 -1.4792  0.8421  0.0103
 9284SOL    HW232538   9.953   8.419  11.635 -0.5232 -0.2048  1.5110
 9285SOL     OW32539  10.171   0.422   2.548 -0.2239  0.5177 -0.2046
 9285SOL    HW132540  10.209   0.334   2.538 -0.3253  0.4805 -0.2600
 9285SOL    HW232541  10.114   0.432   2.472 -0.4959  0.4894 -0.0026
 9286SOL     OW32542   8.362   2.829   7.767 -0.0489  0.0757  0.1619
 9286SOL    HW132543   8.312   2.749   7.782  1.1784 -0.3751  2.1648
 9286SOL    HW232544   8.410   2.813   7.686 -0.4472 -0.8896  0.1085
 9287SOL     OW32545  10.259   8.486   2.442 -0.1466  0.4800  0.3928
 9287SOL    HW132546  10.245   8.574   2.408 -0.6152  0.1391 -0.3199
 9287SOL    HW232547  10.249   8.429   2.366 -2.7996 -0.4485  1.3285
 9288SOL     OW32548   5.081  10.302   3.070 -0.4008  0.1850 -0.0662
 9288SOL    HW132549   5.041  10.254   3.143 -1.2638  0.0879 -0.5902
 9288SOL    HW232550   5.087  10.392   3.102 -1.6617  0.3397 -0.1901
 9289SOL     OW32551   3.385   8.356   8.730  0.7454  0.3429  0.3338
 9289SOL    HW132552   3.472   8.381   8.701  1.7543 -1.0472  1.9628
 9289SOL    HW232553   3.399   8.284   8.791 -1.5773 -0.1466  0.4164
 9290SOL     OW32554   9.384   2.522   6.321 -0.2828 -0.0375  0.2021
 9290SOL    HW132555   9.298   2.558   6.339 -1.0277 -1.8568  0.4750
 9290SOL    HW232556   9.372   2.468   6.243  0.8954  0.6123 -0.4615
 9291SOL     OW32557  11.293   0.889   1.462  0.1058  0.1479  0.1905
 9291SOL    HW132558  11.270   0.803   1.428  1.0225  0.0744 -0.2475
 9291SOL    HW232559  11.264   0.887   1.553  1.0705 -0.9885  0.4830
 9292SOL     OW32560   1.034   0.305   6.194  0.1157  0.0727  0.0593
 9292SOL    HW132561   1.014   0.396   6.216 -0.8953 -0.1351  0.0425
 9292SOL    HW232562   1.061   0.265   6.277  1.5378  0.6147 -0.1095
 9293SOL     OW32563  11.823  11.873  10.821  0.0645  0.0639  0.3979
 9293SOL    HW132564  11.889  11.867  10.751  1.1956 -0.2385  1.4470
 9293SOL    HW232565  11.862  11.825  10.894 -1.4747 -0.3714  0.9578
 9294SOL     OW32566   6.947   5.007   0.358 -0.0380 -0.0846  0.0279
 9294SOL    HW132567   6.949   5.046   0.271  0.2101 -2.5331 -1.1324
 9294SOL    HW232568   6.950   4.913   0.343 -0.7519 -0.6178  2.6755
 9295SOL     OW32569   6.433   7.096   5.083 -0.2039  0.1676  0.2936
 9295SOL    HW132570   6.487   7.172   5.061 -0.6858  0.7042  0.9557
 9295SOL    HW232571   6.367   7.093   5.014  1.0281 -0.8701 -0.8872
 9296SOL     OW32572   0.975   9.296   0.075  0.0703  0.1366 -0.1395
 9296SOL    HW132573   0.906   9.335   0.021 -0.8460  0.5504  1.2819
 9296SOL    HW232574   0.931   9.226   0.123  0.7075  0.2132  0.5678
 9297SOL     OW32575   8.266   6.940   3.647 -0.1762 -0.0377  0.6449
 9297SOL    HW132576   8.229   6.997   3.715 -2.0673 -1.2984  0.7266
 9297SOL    HW232577   8.327   6.996   3.600  0.5181  1.1297  2.8021
 9298SOL     OW32578   9.862   4.268  10.497  0.1428  0.0254  0.3387
 9298SOL    HW132579   9.789   4.252  10.437  1.5503 -0.2726 -1.3891
 9298SOL    HW232580   9.862   4.191  10.555 -0.5379 -0.2625 -0.0297
 9299SOL     OW32581   7.344   1.857   5.884  0.4543  0.3450  0.6015
 9299SOL    HW132582   7.428   1.828   5.919  1.0205  1.4949  0.2068
 9299SOL    HW232583   7.294   1.883   5.962  0.6630  0.2151  0.7815
 9300SOL     OW32584   7.142   0.307  11.891  0.4296 -0.3994 -0.7726
 9300SOL    HW132585   7.086   0.260  11.831  0.5680 -1.2394 -0.2593
 9300SOL    HW232586   7.210   0.244  11.916  0.8181  0.1715 -0.3450
 9301SOL     OW32587  11.914   6.447   7.935  0.2301 -0.1960  0.2186
 9301SOL    HW132588  11.848   6.516   7.932  0.0882 -0.3450 -0.2770
 9301SOL    HW232589  11.870   6.371   7.895  0.5932 -0.3883  0.1827
 9302SOL     OW32590   0.873  11.838   5.869 -0.6600  0.4423 -0.2156
 9302SOL    HW132591   0.924  11.823   5.790 -0.5711 -0.3393 -0.0188
 9302SOL    HW232592   0.930  11.812   5.941 -1.4118 -0.7137 -0.0085
 9303SOL     OW32593   4.310  10.192   2.060  0.1299  0.3850 -0.0761
 9303SOL    HW132594   4.226  10.214   2.020  0.5009  1.1779 -0.4439
 9303SOL    HW232595   4.288  10.161   2.148 -0.3809  3.6259  1.0796
 9304SOL     OW32596  10.392   1.138   0.937 -0.2907  0.0892  0.1287
 9304SOL    HW132597  10.424   1.076   0.872 -0.1164  0.5657 -0.2506
 9304SOL    HW232598  10.300   1.152   0.912 -0.0132  0.8764 -0.5152
 9305SOL     OW32599   8.275   9.475   4.011 -0.3807  0.0364 -0.1130
 9305SOL    HW132600   8.288   9.428   3.928  1.0284  0.6427 -0.2658
 9305SOL    HW232601   8.253   9.564   3.985  1.4588  0.5965  0.1156
 9306SOL     OW32602   8.112   2.627   1.746  0.2918  0.0483 -1.0115
 9306SOL    HW132603   8.092   2.534   1.743 -1.5052  0.4010 -1.2988
 9306SOL    HW232604   8.067   2.659   1.824  1.1471  0.6379 -0.7448
 9307SOL     OW32605   5.922  10.798   8.920 -0.3032 -0.0914  0.0090
 9307SOL    HW132606   5.850  10.814   8.859 -0.7938  0.7168  0.7953
 9307SOL    HW232607   5.947  10.707   8.903 -1.2603 -0.2654 -0.5260
 9308SOL     OW32608   8.455   3.182   3.568  0.1426  0.5978 -0.0441
 9308SOL    HW132609   8.417   3.269   3.558 -2.2615 -0.1771  1.5215
 9308SOL    HW232610   8.446   3.162   3.661  0.8594 -1.2435 -0.3244
 9309SOL     OW32611  10.053  10.517   2.841  0.4182  0.3609 -0.4902
 9309SOL    HW132612  10.067  10.501   2.748  1.5834  1.7377 -0.5958
 9309SOL    HW232613  10.126  10.472   2.885 -0.6866 -1.1482 -0.1189
 9310SOL     OW32614   9.909   1.878  11.304  0.0944 -0.4648 -0.2815
 9310SOL    HW132615   9.949   1.825  11.373 -3.2178 -2.6048  0.1883
 9310SOL    HW232616   9.920   1.827  11.224  0.8504  0.3608 -0.7244
 9311SOL     OW32617  11.163   4.986   9.298  0.0380 -0.2830  0.8319
 9311SOL    HW132618  11.104   4.984   9.222  2.4709 -2.0221 -1.1643
 9311SOL    HW232619  11.210   5.068   9.290  0.7734 -0.7707  0.0127
 9312SOL     OW32620  10.652   1.129  10.663 -0.0438 -0.4908 -0.3283
 9312SOL    HW132621  10.635   1.069  10.736  1.2769 -0.2937  0.1655
 9312SOL    HW232622  10.744   1.115  10.641 -0.2595 -0.1021 -1.5722
 9313SOL     OW32623   2.095   1.230   9.328  0.3600  0.0240  1.4279
 9313SOL    HW132624   2.042   1.161   9.369 -0.7069  0.5253  0.9551
 9313SOL    HW232625   2.058   1.312   9.363 -0.1884  0.4379 -0.0463
 9314SOL     OW32626  10.229   9.144   2.200  0.2312 -0.1330  0.1390
 9314SOL    HW132627  10.278   9.069   2.167 -0.3476 -0.7466  0.6485
 9314SOL    HW232628  10.171   9.168   2.128  0.1121 -0.4459  0.1314
 9315SOL     OW32629   7.334  10.147   0.693  0.7242 -0.8657  0.7421
 9315SOL    HW132630   7.362  10.070   0.644 -0.6456 -0.3599 -0.9445
 9315SOL    HW232631   7.334  10.218   0.628  1.3553  0.4313  2.1080
 9316SOL     OW32632   7.619   1.547   3.376  0.2377 -0.5346  0.1067
 9316SOL    HW132633   7.592   1.476   3.318  1.0369  0.2133 -1.2057
 9316SOL    HW232634   7.619   1.625   3.321  0.5508  0.2857  1.2286
 9317SOL     OW32635   2.962   4.850   4.298 -0.2478  0.2085  0.2257
 9317SOL    HW132636   2.889   4.795   4.266 -2.1056  1.5483  1.9335
 9317SOL    HW232637   2.995   4.803   4.374  0.9187 -0.5153 -0.6811
 9318SOL     OW32638  10.836  10.347   8.431  0.9079 -0.3933  0.1998
 9318SOL    HW132639  10.907  10.409   8.449 -0.2819  1.0551  0.1053
 9318SOL    HW232640  10.777  10.395   8.373  0.4459 -1.9978 -0.6998
 9319SOL     OW32641   9.023   7.993   2.486 -0.3675 -0.5179  0.2628
 9319SOL    HW132642   8.948   7.979   2.429 -1.0866 -0.0334  1.0664
 9319SOL    HW232643   9.005   7.938   2.562  1.1691 -2.1195 -0.4610
 9320SOL     OW32644   9.743   5.794   4.862 -0.3072 -0.0408  0.5239
 9320SOL    HW132645   9.651   5.776   4.881  0.2475 -0.8965  2.6552
 9320SOL    HW232646   9.753   5.888   4.878 -0.7474 -0.0021  0.5632
 9321SOL     OW32647   5.687   9.605   5.937  0.2927  0.2231 -0.1132
 9321SOL    HW132648   5.698   9.635   6.028  1.4484 -0.7715  0.1069
 9321SOL    HW232649   5.698   9.684   5.884 -0.3101  0.8008  0.6034
 9322SOL     OW32650   8.123   4.241   2.094  0.8211 -0.4065  0.2557
 9322SOL    HW132651   8.166   4.287   2.022 -1.2337 -0.9592 -1.3980
 9322SOL    HW232652   8.122   4.149   2.067 -0.1956 -0.5875  0.8534
 9323SOL     OW32653   8.644   0.452   2.490  0.1078 -0.0736 -0.6959
 9323SOL    HW132654   8.651   0.367   2.447 -1.2818 -1.5409  1.7454
 9323SOL    HW232655   8.735   0.483   2.496  0.5810 -1.0997 -2.1229
 9324SOL     OW32656   9.057   5.152   8.197 -0.2414  0.2878  0.4344
 9324SOL    HW132657   9.010   5.144   8.114 -1.9722 -0.1540  1.3932
 9324SOL    HW232658   9.145   5.119   8.179 -0.1852  1.3630 -1.5051
 9325SOL     OW32659   2.323   1.853   0.855  0.3373  0.0039  0.0444
 9325SOL    HW132660   2.290   1.773   0.814  1.9763 -1.4514  1.4345
 9325SOL    HW232661   2.400   1.876   0.804 -0.1404  0.7369 -0.3622
 9326SOL     OW32662   2.960   6.736  11.367  0.2810  0.3474 -0.1061
 9326SOL    HW132663   3.031   6.683  11.332  0.4285  1.4029 -1.4943
 9326SOL    HW232664   2.943   6.700  11.454  0.7311 -1.6079 -0.7815
 9327SOL     OW32665   3.599   2.157   5.795 -0.4270 -0.2936 -0.7622
 9327SOL    HW132666   3.530   2.101   5.760  0.4798 -0.6493 -2.0196
 9327SOL    HW232667   3.679   2.127   5.753  0.5701 -0.0678  0.8729
 9328SOL     OW32668   9.957   8.797   0.176 -0.1545 -0.1934 -0.0953
 9328SOL    HW132669  10.033   8.844   0.139 -0.8531 -0.5333 -2.1042
 9328SOL    HW232670   9.893   8.865   0.193 -0.8624 -0.2513 -2.2401
 9329SOL     OW32671   9.375  10.421  11.349  0.1073  0.4360 -0.3077
 9329SOL    HW132672   9.318  10.402  11.275  0.3356  0.1844 -0.4233
 9329SOL    HW232673   9.459  10.381  11.325 -0.1452 -0.6867  0.5937
 9330SOL     OW32674   5.462  11.887   4.721  0.2507 -0.0076  0.0628
 9330SOL    HW132675   5.473  11.826   4.794 -2.4609 -2.6381 -1.5104
 9330SOL    HW232676   5.380  11.933   4.742  2.4961  3.7623  1.4863
 9331SOL     OW32677   3.468   1.715   7.485 -0.2606 -0.3426 -0.3053
 9331SOL    HW132678   3.536   1.649   7.481 -1.2743 -1.3617 -1.6862
 9331SOL    HW232679   3.392   1.669   7.521 -0.3168  0.7228  1.0273
 9332SOL     OW32680   9.357   4.340   8.625 -0.3197  0.4796 -0.2716
 9332SOL    HW132681   9.437   4.386   8.597  1.7986 -2.1702  0.9646
 9332SOL    HW232682   9.358   4.347   8.720 -0.1686 -1.6096 -0.0700
 9333SOL     OW32683   0.432   3.430   5.485  0.1503 -0.1699 -0.5838
 9333SOL    HW132684   0.352   3.480   5.499 -0.3979 -1.3760  1.0138
 9333SOL    HW232685   0.492   3.460   5.554  0.3544 -0.6363 -0.5510
 9334SOL     OW32686   8.843   8.158   6.984 -0.3177 -0.4755 -0.3253
 9334SOL    HW132687   8.819   8.100   6.911 -1.9099 -0.4637  0.1575
 9334SOL    HW232688   8.937   8.172   6.973 -0.5988  0.0234 -2.7442
 9335SOL     OW32689   3.727   9.623   5.274  0.0793  0.0734 -0.2838
 9335SOL    HW132690   3.671   9.548   5.292 -0.0997  0.6522  1.8324
 9335SOL    HW232691   3.803   9.612   5.331  1.0451  0.4709 -1.4504
 9336SOL     OW32692  10.277   1.412   4.519 -0.7859  0.3490  0.4872
 9336SOL    HW132693  10.219   1.338   4.500  0.3779 -0.5008  0.1296
 9336SOL    HW232694  10.242   1.449   4.601 -1.7870 -0.1707  0.3101
 9337SOL     OW32695  11.548  11.955   3.654 -0.4240 -0.2566  0.7173
 9337SOL    HW132696  11.521  11.917   3.570 -0.5938  0.7828  0.2906
 9337SOL    HW232697  11.506  11.900   3.720 -1.0030 -0.5545  0.1072
 9338SOL     OW32698   3.407   3.719   6.661 -0.2189  0.7465  0.3910
 9338SOL    HW132699   3.392   3.812   6.641 -0.2272  0.5898 -0.3548
 9338SOL    HW232700   3.417   3.677   6.576  0.3612  0.1506  0.7393
 9339SOL     OW32701   3.156   8.649   1.316 -0.3296 -0.4824  0.2430
 9339SOL    HW132702   3.247   8.654   1.344 -0.6221  0.5673  1.0371
 9339SOL    HW232703   3.141   8.555   1.303 -0.1083 -1.0680  3.4422
 9340SOL     OW32704   4.956   1.499   6.142 -0.1587  0.3704  0.2159
 9340SOL    HW132705   4.868   1.537   6.149  0.6919  2.6488 -0.3195
 9340SOL    HW232706   5.006   1.542   6.212  0.3685 -1.5352  1.0780
 9341SOL     OW32707   0.150   0.459  11.623 -0.2841  0.0709 -0.0362
 9341SOL    HW132708   0.226   0.495  11.670 -0.8167 -0.5479  1.3520
 9341SOL    HW232709   0.074   0.496  11.668 -0.8340  0.8481 -1.5464
 9342SOL     OW32710  10.518  10.897   1.052  0.4559  0.3871 -0.2052
 9342SOL    HW132711  10.584  10.882   0.984  2.2202 -0.9337  1.6857
 9342SOL    HW232712  10.442  10.848   1.022  1.8730 -1.9083 -0.3484
 9343SOL     OW32713   2.920  11.957  10.477 -0.6643  0.9195  0.2206
 9343SOL    HW132714   2.923  11.961  10.573  0.7819  0.1367  0.2323
 9343SOL    HW232715   2.926  11.863  10.457 -1.6143  1.0205 -0.6416
 9344SOL     OW32716   1.539   0.130   0.441 -0.2743 -0.1411 -0.2873
 9344SOL    HW132717   1.613   0.188   0.424  0.0078 -0.0885  1.0306
 9344SOL    HW232718   1.569   0.043   0.414  0.2593 -0.1115  0.2000
 9345SOL     OW32719   3.471   2.640   2.263 -0.2558  0.1996  0.3608
 9345SOL    HW132720   3.530   2.579   2.307 -0.4721  0.3710  0.8911
 9345SOL    HW232721   3.483   2.723   2.308 -1.3366  0.0985  0.8711
 9346SOL     OW32722   8.443   5.171  10.082 -0.0006  0.7623  0.0084
 9346SOL    HW132723   8.527   5.125  10.092 -0.7590 -0.6621  0.1330
 9346SOL    HW232724   8.467   5.261  10.062  1.5675  0.6079  0.9997
 9347SOL     OW32725   1.650   6.494   0.469  0.3402  0.1612  0.2692
 9347SOL    HW132726   1.645   6.423   0.405 -0.9504 -0.7610  1.3425
 9347SOL    HW232727   1.728   6.474   0.521 -0.2550 -0.7219  0.8381
 9348SOL     OW32728   6.378  11.363   1.418  0.0103 -0.1304 -0.0336
 9348SOL    HW132729   6.392  11.343   1.325 -0.8489  0.4814 -0.3024
 9348SOL    HW232730   6.464  11.351   1.458  0.6584  0.7323 -1.1198
 9349SOL     OW32731   6.829   4.972   6.186  0.1683 -0.1696 -0.0055
 9349SOL    HW132732   6.748   4.941   6.146  1.0435 -2.8695  0.1758
 9349SOL    HW232733   6.812   4.970   6.280  0.1148  0.3340  0.0020
 9350SOL     OW32734   3.893   0.539   5.621 -0.0961  0.5950 -0.2392
 9350SOL    HW132735   3.883   0.552   5.526  1.5767 -0.0780 -0.5305
 9350SOL    HW232736   3.941   0.457   5.629  0.0648  0.8117  1.2000
 9351SOL     OW32737   5.948   6.379   1.393 -0.3571  0.1290 -0.5179
 9351SOL    HW132738   5.951   6.310   1.327 -1.4395 -0.3054 -0.1383
 9351SOL    HW232739   5.885   6.442   1.360 -1.9918 -0.7771  0.6937
 9352SOL     OW32740   3.350   4.212   3.852 -0.0339  0.2608 -0.1676
 9352SOL    HW132741   3.286   4.277   3.823  1.0238  1.3776 -0.0744
 9352SOL    HW232742   3.430   4.262   3.867  0.7752 -1.0488  0.0531
 9353SOL     OW32743   4.969   1.273   3.370 -0.4215 -0.5812 -0.0217
 9353SOL    HW132744   4.938   1.288   3.281  0.3727 -0.9322 -0.3677
 9353SOL    HW232745   4.936   1.186   3.393  3.1595 -2.6254 -1.7494
 9354SOL     OW32746   3.962   7.629   8.200 -0.3679  0.2223 -0.4058
 9354SOL    HW132747   3.867   7.624   8.196 -0.4360  1.4113 -0.6540
 9354SOL    HW232748   3.990   7.648   8.111  0.2328 -1.5096 -0.6292
 9355SOL     OW32749   2.226   2.408   7.866 -0.4810  0.7300  0.0987
 9355SOL    HW132750   2.235   2.446   7.778  0.4142 -2.0485 -1.1170
 9355SOL    HW232751   2.160   2.340   7.856  1.4935 -1.4152  0.8505
 9356SOL     OW32752   3.864   4.351   7.826 -0.4812  0.3365  0.0292
 9356SOL    HW132753   3.954   4.319   7.832 -1.6433 -3.2598  0.5895
 9356SOL    HW232754   3.846   4.387   7.913  0.1220  0.2034  0.2135
 9357SOL     OW32755   9.781  10.634   9.264 -0.0894 -0.8088 -0.1871
 9357SOL    HW132756   9.824  10.714   9.293 -0.3570 -0.0033 -1.8815
 9357SOL    HW232757   9.704  10.626   9.321  0.3733 -0.3126  0.5158
 9358SOL     OW32758   4.822  11.587   9.103  0.2286 -0.0082 -0.4870
 9358SOL    HW132759   4.821  11.528   9.027 -1.1792 -0.0851 -0.4410
 9358SOL    HW232760   4.730  11.592   9.130  0.8823 -1.5767  2.4493
 9359SOL     OW32761   7.181   3.950   9.746 -0.5122 -0.1177 -0.6753
 9359SOL    HW132762   7.118   4.013   9.710 -1.0377  1.0651  2.0160
 9359SOL    HW232763   7.265   3.976   9.709 -1.0096  0.9495 -1.0952
 9360SOL     OW32764   0.556   4.076   7.501  0.6435 -0.0113 -0.0675
 9360SOL    HW132765   0.623   4.075   7.569  0.2871  1.2798  0.3278
 9360SOL    HW232766   0.524   3.985   7.497  0.0148  0.0490  2.1467
 9361SOL     OW32767   9.653   7.830   7.376  1.2479  0.0305  0.0259
 9361SOL    HW132768   9.626   7.892   7.444  0.1667 -0.7157  0.2953
 9361SOL    HW232769   9.626   7.873   7.294  2.8145  1.0612  0.0115
 9362SOL     OW32770  10.145   1.899   2.329  0.3066  0.2995  0.0369
 9362SOL    HW132771  10.085   1.960   2.286  0.2696  0.7271  0.6775
 9362SOL    HW232772  10.128   1.911   2.422 -0.6971 -1.7280  0.1621
 9363SOL     OW32773   1.324   6.847   5.528  0.0634  0.2297  0.3876
 9363SOL    HW132774   1.242   6.887   5.500  0.5671  1.0692  0.0647
 9363SOL    HW232775   1.349   6.897   5.606 -0.4497 -0.9657  1.3593
 9364SOL     OW32776   7.444   4.704  10.514 -0.4319 -0.2089 -0.2904
 9364SOL    HW132777   7.420   4.792  10.544 -1.2951 -0.8948  1.1397
 9364SOL    HW232778   7.364   4.652  10.526  0.1127 -1.2213 -0.9587
 9365SOL     OW32779   7.514   3.002   2.315 -0.3649 -0.1154 -0.7603
 9365SOL    HW132780   7.490   2.915   2.347 -1.4193  0.3956 -0.1071
 9365SOL    HW232781   7.433   3.037   2.278 -0.4955  1.3732  0.8367
 9366SOL     OW32782   0.452   0.316   3.397  0.5903 -0.4061 -0.2160
 9366SOL    HW132783   0.382   0.275   3.448 -1.1905  0.6325 -1.6845
 9366SOL    HW232784   0.503   0.242   3.363  0.2856 -1.1925  0.9604
 9367SOL     OW32785   0.563   7.922   2.538  0.3486 -0.1790 -0.7098
 9367SOL    HW132786   0.641   7.917   2.594  0.5610 -1.0066 -1.0623
 9367SOL    HW232787   0.529   8.010   2.553  0.1439 -0.5128  1.0627
 9368SOL     OW32788  10.550   1.356   6.117  0.4275 -0.0928 -0.0896
 9368SOL    HW132789  10.574   1.281   6.063 -2.1176 -0.7561 -0.4278
 9368SOL    HW232790  10.547   1.321   6.206  1.8475  0.3222  0.1587
 9369SOL     OW32791   8.716  10.004   9.250  0.0422 -0.2036 -0.5888
 9369SOL    HW132792   8.763   9.939   9.199 -0.6742  0.7824 -2.6100
 9369SOL    HW232793   8.675   9.955   9.321  2.3161 -1.3891 -0.0012
 9370SOL     OW32794   0.005  10.090   9.293 -0.3814 -0.0229  0.0924
 9370SOL    HW132795  -0.058  10.050   9.352  1.2481 -0.2998  1.7378
 9370SOL    HW232796   0.085  10.040   9.306  0.7511  1.5897 -0.3621
 9371SOL     OW32797   6.728   0.297   4.001 -0.1232  0.3603  0.0356
 9371SOL    HW132798   6.644   0.272   4.040  0.2050 -0.3625  0.2852
 9371SOL    HW232799   6.704   0.364   3.936 -1.1930 -1.4434 -1.5167
 9372SOL     OW32800   5.085   2.506   2.050 -0.3490 -0.2890 -0.6731
 9372SOL    HW132801   5.148   2.462   1.993  0.0938 -1.4246  0.6317
 9372SOL    HW232802   5.038   2.566   1.993  2.1124  0.8437 -1.6551
 9373SOL     OW32803   7.036   1.721   4.661  0.2821 -0.0880  0.1590
 9373SOL    HW132804   6.964   1.734   4.599  1.7186  1.5804 -1.2441
 9373SOL    HW232805   7.007   1.765   4.741 -0.8980 -0.8274  0.1657
 9374SOL     OW32806   0.791  11.383   7.777  0.1919 -0.2683 -0.1593
 9374SOL    HW132807   0.797  11.380   7.873 -1.7285 -0.2469  0.0153
 9374SOL    HW232808   0.840  11.461   7.752  0.3565 -0.0328  0.8595
 9375SOL     OW32809   6.167   0.262   1.975 -0.1331 -0.3635  0.6566
 9375SOL    HW132810   6.118   0.303   1.903 -0.0513 -0.8926  0.2964
 9375SOL    HW232811   6.252   0.240   1.937  0.3594  0.4524  1.2514
 9376SOL     OW32812  11.265   5.611  10.317 -0.0240  0.2513 -0.2016
 9376SOL    HW132813  11.265   5.598  10.222 -2.3166  2.8970 -0.7151
 9376SOL    HW232814  11.239   5.526  10.353  2.0740 -1.1486 -1.7928
 9377SOL     OW32815   9.075  11.538   5.176  0.5029 -0.6078  0.0564
 9377SOL    HW132816   9.093  11.466   5.116  1.5609 -0.0499 -0.3319
 9377SOL    HW232817   9.112  11.509   5.260  0.8939 -0.5399 -0.0896
 9378SOL     OW32818  10.939   8.519   9.397 -0.2210 -0.0420  0.5102
 9378SOL    HW132819  10.964   8.533   9.488 -1.1127  1.0055  0.6095
 9378SOL    HW232820  10.938   8.424   9.387  1.4054 -0.1591  1.1371
 9379SOL     OW32821   3.916   0.751   7.668 -0.1491  0.5488  0.4959
 9379SOL    HW132822   3.999   0.703   7.666  0.3020  1.2449  1.7625
 9379SOL    HW232823   3.907   0.779   7.759 -1.5130  0.9529  0.2463
 9380SOL     OW32824   3.248   5.489   4.087 -0.3625  0.6167 -0.2962
 9380SOL    HW132825   3.317   5.453   4.032 -0.5507 -0.6571  0.2535
 9380SOL    HW232826   3.278   5.475   4.177 -1.7343 -0.9380 -0.0123
 9381SOL     OW32827   7.397   8.947   1.084 -0.3361  0.0975  0.0054
 9381SOL    HW132828   7.381   8.941   0.990 -1.0712  2.0117 -0.0281
 9381SOL    HW232829   7.393   9.040   1.104  0.8594 -0.1665  1.7706
 9382SOL     OW32830   4.075   2.944   1.952 -0.0420  0.2821 -0.3681
 9382SOL    HW132831   4.114   2.874   2.004  0.8940  0.6619 -0.5437
 9382SOL    HW232832   4.055   3.013   2.016  1.0956  0.7426 -0.4832
 9383SOL     OW32833   8.928   2.837   3.697 -0.0361  0.3412 -0.2474
 9383SOL    HW132834   8.873   2.915   3.688  0.4435  0.4239 -4.4616
 9383SOL    HW232835   8.866   2.764   3.699 -0.4060  0.6686  1.0884
 9384SOL     OW32836   5.773   9.223   4.672  0.1458  0.2265 -0.4233
 9384SOL    HW132837   5.804   9.239   4.761 -0.7812  0.7886 -0.1926
 9384SOL    HW232838   5.852   9.225   4.618  0.7107 -0.1187  0.3859
 9385SOL     OW32839   6.539   9.229   4.092 -0.5131  0.3509 -0.1357
 9385SOL    HW132840   6.443   9.224   4.095 -0.5664  1.0332 -0.6319
 9385SOL    HW232841   6.558   9.298   4.028  0.3034  1.1166  0.9092
 9386SOL     OW32842   3.287   0.953   8.253 -0.0956 -0.1081 -0.3617
 9386SOL    HW132843   3.309   0.993   8.337  2.3344  0.9551 -1.3982
 9386SOL    HW232844   3.191   0.947   8.253 -0.1762  0.2032  2.2818
 9387SOL     OW32845   5.604   6.676   3.578 -0.0155  0.2447 -0.4614
 9387SOL    HW132846   5.626   6.588   3.608 -1.5608 -0.0721 -0.1789
 9387SOL    HW232847   5.659   6.734   3.631  3.3267 -0.5694 -2.7122
 9388SOL     OW32848   3.908   9.570  11.060 -0.4167  0.0317 -0.0287
 9388SOL    HW132849   3.922   9.515  10.983  0.6736  0.8593 -0.4416
 9388SOL    HW232850   3.882   9.655  11.024  0.4387  0.5236  0.4864
 9389SOL     OW32851   1.710   4.717   1.302 -0.0823 -0.1556  0.4302
 9389SOL    HW132852   1.785   4.755   1.255  0.1468 -1.8019 -0.6167
 9389SOL    HW232853   1.739   4.628   1.324 -1.2808 -0.3857  1.1474
 9390SOL     OW32854   0.414   1.159   9.815 -0.6874  0.0366 -0.1818
 9390SOL    HW132855   0.408   1.079   9.763 -1.5455  1.0054 -1.6523
 9390SOL    HW232856   0.327   1.169   9.854 -0.4243 -0.0133  0.4334
 9391SOL     OW32857   5.156   0.973   9.702  0.5097  0.5258 -0.0545
 9391SOL    HW132858   5.080   1.027   9.723  0.0504 -0.5467  1.2330
 9391SOL    HW232859   5.137   0.936   9.616 -1.0241 -0.6539  0.7368
 9392SOL     OW32860   2.519   8.156   7.650 -0.2959 -0.1147  0.3501
 9392SOL    HW132861   2.495   8.231   7.705 -0.4353 -0.2265  0.4396
 9392SOL    HW232862   2.492   8.079   7.700 -0.1100 -0.2283  0.2787
 9393SOL     OW32863   9.092   5.576   8.140  0.4314 -0.1987 -0.4258
 9393SOL    HW132864   9.033   5.502   8.153  0.5210 -0.7679 -2.8463
 9393SOL    HW232865   9.179   5.537   8.141  0.6997  0.3588  1.1932
 9394SOL     OW32866   5.395   9.839  10.884 -0.2736 -0.3638  0.3893
 9394SOL    HW132867   5.437   9.883  10.810  0.2047 -1.2336  0.1349
 9394SOL    HW232868   5.305   9.872  10.883 -0.2681 -0.3463 -0.5644
 9395SOL     OW32869   2.124   0.822   4.055 -0.5349 -0.1770  0.2433
 9395SOL    HW132870   2.104   0.892   3.992  1.4279  1.0956  0.9361
 9395SOL    HW232871   2.040   0.801   4.095 -1.4368  0.6306 -1.1469
 9396SOL     OW32872   4.678   1.764   6.811 -0.4655 -0.8437  0.1000
 9396SOL    HW132873   4.715   1.829   6.871 -0.5972 -0.2860 -0.4186
 9396SOL    HW232874   4.670   1.810   6.728 -0.4846 -1.5537 -0.2942
 9397SOL     OW32875  10.846   0.839   2.547 -0.3604 -0.0997  0.1585
 9397SOL    HW132876  10.775   0.856   2.486 -0.0493 -0.9000 -0.4303
 9397SOL    HW232877  10.866   0.746   2.537  1.1481  0.2250 -0.1074
 9398SOL     OW32878   5.684   4.255   2.662  0.2097 -0.3799  0.0721
 9398SOL    HW132879   5.631   4.259   2.741 -1.6954 -1.6585 -1.0410
 9398SOL    HW232880   5.732   4.338   2.660 -0.7838  0.2785  1.8009
 9399SOL     OW32881   3.832   0.271   6.285  0.1115 -0.0797 -0.0584
 9399SOL    HW132882   3.868   0.247   6.371 -0.3950 -0.5551  0.0240
 9399SOL    HW232883   3.819   0.366   6.290 -0.4452 -0.1878  0.5866
 9400SOL     OW32884   1.497   6.560   5.157  0.2185  0.2681  0.0383
 9400SOL    HW132885   1.516   6.633   5.216 -1.7733  1.5159 -0.7550
 9400SOL    HW232886   1.583   6.521   5.139  1.6774  3.6576 -1.1129
 9401SOL     OW32887   2.472   3.648   3.742  0.1491 -0.0156 -0.2249
 9401SOL    HW132888   2.391   3.624   3.697 -0.3728  2.1006 -0.5657
 9401SOL    HW232889   2.450   3.730   3.787  1.4123 -0.7055  1.7446
 9402SOL     OW32890   5.988   0.529   3.920  0.1661  0.4630 -0.6650
 9402SOL    HW132891   5.896   0.508   3.931  0.5565 -1.1424 -0.1778
 9402SOL    HW232892   6.018   0.554   4.007  0.7283 -1.4860 -0.2435
 9403SOL     OW32893   9.587   9.262   7.759  0.2292  0.0317  0.5260
 9403SOL    HW132894   9.669   9.237   7.802  0.8725 -0.4040 -0.9243
 9403SOL    HW232895   9.609   9.269   7.666 -1.3799 -0.0655  0.1127
 9404SOL     OW32896  10.239   3.429   4.880 -0.2164 -0.3019  0.2166
 9404SOL    HW132897  10.231   3.343   4.841  1.1424 -0.0007 -0.8311
 9404SOL    HW232898  10.275   3.413   4.968 -2.2253 -0.9068  0.9895
 9405SOL     OW32899  11.414   3.402   2.764 -0.3779 -0.0009  0.0299
 9405SOL    HW132900  11.472   3.458   2.712 -1.0642 -2.2615 -3.5277
 9405SOL    HW232901  11.474   3.349   2.818  0.5455  0.8493 -0.1288
 9406SOL     OW32902  11.938   6.367   1.548  0.0951  0.0766 -0.4265
 9406SOL    HW132903  12.031   6.352   1.531  0.5113 -0.5384  2.0308
 9406SOL    HW232904  11.898   6.369   1.461  2.1254 -1.5436 -1.4891
 9407SOL     OW32905   7.339  10.257   0.312  0.1634  0.1171 -0.1070
 9407SOL    HW132906   7.294  10.172   0.320  0.0264  0.0471 -1.4815
 9407SOL    HW232907   7.334  10.294   0.400  0.6606 -1.5146  0.6500
 9408SOL     OW32908   8.997   6.742   2.402 -0.4472 -0.0195 -0.4081
 9408SOL    HW132909   9.044   6.739   2.319  0.2598  0.5956 -0.0368
 9408SOL    HW232910   9.002   6.652   2.435  0.9236  0.1432 -0.1315
 9409SOL     OW32911   6.862   2.605   0.067  0.6621  0.0204  0.0761
 9409SOL    HW132912   6.831   2.678   0.120 -0.1573 -0.0216 -0.3341
 9409SOL    HW232913   6.826   2.621  -0.020  0.5071 -0.8511 -0.0311
 9410SOL     OW32914   4.056  10.000   0.012  0.3974 -0.0288 -0.3354
 9410SOL    HW132915   3.994  10.009   0.084 -0.1444  0.1340 -0.8065
 9410SOL    HW232916   4.098  10.086   0.004  1.0914 -0.2956  0.3348
 9411SOL     OW32917   4.273   7.734   0.990 -0.1142  0.2069 -0.1922
 9411SOL    HW132918   4.263   7.769   0.902 -1.8595  0.6336  0.1273
 9411SOL    HW232919   4.188   7.750   1.032 -0.5136 -2.9681  0.5058
 9412SOL     OW32920   4.569  11.447   6.704  0.0135 -0.1625 -0.9711
 9412SOL    HW132921   4.523  11.388   6.764 -0.4485 -0.8912 -2.0086
 9412SOL    HW232922   4.503  11.512   6.679  0.6092  1.0369  0.4218
 9413SOL     OW32923   1.968   9.907   8.256 -0.1693 -0.1146 -0.4970
 9413SOL    HW132924   2.007   9.962   8.325  2.8236 -1.1043 -1.2684
 9413SOL    HW232925   1.984   9.956   8.175 -2.2099  0.2689 -0.7163
 9414SOL     OW32926   9.558   8.215   1.460 -0.2207 -0.3382  0.4684
 9414SOL    HW132927   9.551   8.287   1.522 -0.7291 -1.0496  1.2621
 9414SOL    HW232928   9.609   8.148   1.507  0.7080 -0.3014 -0.4523
 9415SOL     OW32929   8.253   2.333   1.980 -0.3152  0.0791  0.0580
 9415SOL    HW132930   8.197   2.260   1.954  0.5738 -0.6801  0.2042
 9415SOL    HW232931   8.309   2.347   1.903 -0.1118  0.2390  0.2373
 9416SOL     OW32932   7.140   4.582   0.160  0.3831 -0.0534  0.2233
 9416SOL    HW132933   7.056   4.538   0.148 -0.2418  1.3943 -1.1356
 9416SOL    HW232934   7.116   4.671   0.188  1.5220 -0.0225  1.1826
 9417SOL     OW32935  11.105   6.074   3.904 -0.4960 -0.0400 -0.1418
 9417SOL    HW132936  11.175   6.048   3.964 -1.5188  0.7255  1.4508
 9417SOL    HW232937  11.033   6.016   3.925 -0.3848 -0.8327 -1.7803
 9418SOL     OW32938  10.257   1.882   3.956 -0.3426  0.2831  0.2646
 9418SOL    HW132939  10.292   1.965   3.990 -1.6265  0.9319  0.0526
 9418SOL    HW232940  10.256   1.893   3.861  0.8428 -0.5592  0.1268
 9419SOL     OW32941   2.869   6.727   2.623 -0.1108 -0.2895  0.1450
 9419SOL    HW132942   2.784   6.764   2.645  1.1534  1.8716  1.7755
 9419SOL    HW232943   2.875   6.737   2.528 -1.4856 -0.0453  0.0618
 9420SOL     OW32944   2.066   1.780   9.788 -0.2613  0.7075 -0.2561
 9420SOL    HW132945   2.075   1.782   9.884  1.8929  0.3908 -0.3987
 9420SOL    HW232946   2.047   1.689   9.768  1.3817  0.3087 -0.2085
 9421SOL     OW32947   1.181   4.380   9.935  0.2049  0.0976  0.0537
 9421SOL    HW132948   1.179   4.445   9.865 -0.5734  0.1799  0.1478
 9421SOL    HW232949   1.091   4.376   9.967  0.4093 -0.4530  0.5789
 9422SOL     OW32950   2.017   9.045   0.150  0.2565  0.4956 -0.5431
 9422SOL    HW132951   1.947   8.997   0.194  0.3799  1.0517  0.2675
 9422SOL    HW232952   2.048   9.109   0.214  2.3774 -0.5632 -0.4054
 9423SOL     OW32953   7.419   6.497  11.626  0.3457 -0.0800 -0.1884
 9423SOL    HW132954   7.514   6.495  11.632  0.2816 -1.6648  1.0349
 9423SOL    HW232955   7.391   6.542  11.705  0.0681  0.8104 -0.7778
 9424SOL     OW32956   1.741  11.292   4.259 -0.1631  0.0556 -0.0280
 9424SOL    HW132957   1.661  11.325   4.219 -0.1480 -0.2990 -0.3582
 9424SOL    HW232958   1.721  11.289   4.353 -0.6320 -0.2818 -0.1320
 9425SOL     OW32959   1.826  11.255   1.434 -0.0727  0.1322  0.3303
 9425SOL    HW132960   1.882  11.182   1.410 -2.6286 -1.3566 -1.5393
 9425SOL    HW232961   1.875  11.302   1.502  2.1233 -2.6710  0.8292
 9426SOL     OW32962   3.921  11.313   0.161 -0.3786  0.6613  0.6672
 9426SOL    HW132963   3.898  11.229   0.121 -0.9286  0.5722  1.1605
 9426SOL    HW232964   3.972  11.358   0.094  2.0656 -1.0289  1.2552
 9427SOL     OW32965   7.266   5.342   8.933 -0.0242 -0.4409  0.0419
 9427SOL    HW132966   7.214   5.401   8.987  0.2839  1.2077 -1.3817
 9427SOL    HW232967   7.215   5.260   8.932 -0.3833 -0.2902  2.1618
 9428SOL     OW32968   1.565   7.134   5.153 -0.7589  0.2037  0.5018
 9428SOL    HW132969   1.504   7.067   5.122 -0.6242 -0.6588  1.9937
 9428SOL    HW232970   1.614   7.091   5.223  1.6551  0.8238 -0.6985
 9429SOL     OW32971   3.183   9.528  11.739 -0.3861 -0.0899  0.5551
 9429SOL    HW132972   3.140   9.448  11.709  0.5788 -0.2404 -0.4513
 9429SOL    HW232973   3.276   9.507  11.740 -0.0553  1.2328 -0.4154
 9430SOL     OW32974   2.659   0.667   8.802 -0.0205  0.0567 -0.2405
 9430SOL    HW132975   2.666   0.759   8.829  1.1523 -0.7203  2.4514
 9430SOL    HW232976   2.575   0.638   8.838 -0.0455 -0.1239 -0.4405
 9431SOL     OW32977   9.935   8.326   3.057  0.2739  0.1369 -0.3205
 9431SOL    HW132978   9.912   8.419   3.048  3.7459  1.0582 -0.8848
 9431SOL    HW232979  10.029   8.323   3.043  0.3277 -3.4910 -0.0219
 9432SOL     OW32980   3.223   2.525   0.662 -0.1946 -0.2169  0.0718
 9432SOL    HW132981   3.228   2.455   0.727 -0.9063  0.1802  0.5586
 9432SOL    HW232982   3.152   2.499   0.604 -0.1780 -0.1007 -0.0000
 9433SOL     OW32983   9.365   2.237   3.501 -0.0256  0.1389  0.0947
 9433SOL    HW132984   9.438   2.253   3.441 -1.3275  0.3577 -1.5054
 9433SOL    HW232985   9.329   2.152   3.474 -1.2331  0.6872 -0.0897
 9434SOL     OW32986  10.127   6.070  10.016  0.3013  0.2588 -0.2045
 9434SOL    HW132987  10.162   6.143   9.965 -2.1041  0.7887 -1.2251
 9434SOL    HW232988  10.125   5.997   9.954 -1.2482  0.5102 -0.5012
 9435SOL     OW32989   1.579   6.556   0.079  0.1763 -0.5455  0.0580
 9435SOL    HW132990   1.521   6.618   0.123  0.1764  0.7221 -1.6441
 9435SOL    HW232991   1.542   6.547  -0.009 -0.5512 -3.9654  0.5727
 9436SOL     OW32992   3.474   2.907   0.615 -0.2236  0.7191  0.5684
 9436SOL    HW132993   3.457   2.991   0.572 -0.4240  0.8104  0.8257
 9436SOL    HW232994   3.552   2.922   0.668 -2.0095  1.6682  3.0918
 9437SOL     OW32995   1.178   8.309   7.919  0.1975 -0.5613  0.0953
 9437SOL    HW132996   1.163   8.398   7.953  1.4360 -0.2069 -0.2277
 9437SOL    HW232997   1.209   8.260   7.995  0.0819 -0.5543  0.1464
 9438SOL     OW32998   7.991  11.207   4.521  0.5034  0.4090 -0.1152
 9438SOL    HW132999   7.896  11.206   4.514  0.5889  1.0955 -1.5961
 9438SOL    HW233000   8.012  11.130   4.573 -0.8451  0.1672  0.1006
 9439SOL     OW33001   5.064   5.895   3.475 -0.2182 -0.1000  0.1950
 9439SOL    HW133002   5.052   5.961   3.544 -1.3311 -1.0141  0.9170
 9439SOL    HW233003   5.158   5.892   3.460 -0.0415  0.7320  1.0631
 9440SOL     OW33004   6.143   6.081   5.646 -0.3975 -0.4497 -0.3483
 9440SOL    HW133005   6.144   6.002   5.592  1.3889  0.0944 -1.1769
 9440SOL    HW233006   6.211   6.137   5.608 -0.2002  0.6304  1.4943
 9441SOL     OW33007  10.816   6.265   1.315  0.4975  0.0240 -0.0684
 9441SOL    HW133008  10.740   6.249   1.370  0.4205  3.3298  1.0030
 9441SOL    HW233009  10.816   6.193   1.252 -1.3182 -2.1036  2.1739
 9442SOL     OW33010   4.949  10.638   5.569 -0.3730  0.1267  0.0325
 9442SOL    HW133011   4.885  10.670   5.505  0.2164  0.6667 -0.3026
 9442SOL    HW233012   4.982  10.718   5.610  0.5779 -0.0925 -0.2806
 9443SOL     OW33013   8.877   2.167  11.067 -0.1435  0.1931 -0.6143
 9443SOL    HW133014   8.912   2.165  11.155  0.1103  1.2623 -0.6837
 9443SOL    HW233015   8.837   2.081  11.055  0.5174 -0.2440  0.2494
 9444SOL     OW33016   8.598   9.956  11.521 -0.0216 -0.7121 -0.0025
 9444SOL    HW133017   8.588  10.048  11.545  0.0629 -0.0025 -2.4236
 9444SOL    HW233018   8.552   9.908  11.589  1.2754  0.9852  2.1783
 9445SOL     OW33019   2.948   0.219   1.785 -0.5363  0.5097 -0.1156
 9445SOL    HW133020   2.950   0.140   1.840 -0.5043  0.2545 -0.4738
 9445SOL    HW233021   3.037   0.253   1.789 -0.6449  0.7414  0.3436
 9446SOL     OW33022   1.643   8.696   0.318 -0.1354 -0.6533 -0.1769
 9446SOL    HW133023   1.569   8.751   0.345 -1.4778 -2.0039 -0.9736
 9446SOL    HW233024   1.645   8.705   0.223  1.2977  0.0169 -0.1174
 9447SOL     OW33025   0.360   8.023  11.213 -0.0380  0.2188  0.4711
 9447SOL    HW133026   0.353   7.928  11.216 -0.1937  0.2193  0.1015
 9447SOL    HW233027   0.358   8.050  11.305  1.4428 -0.2304  0.6587
 9448SOL     OW33028   3.903   7.229   5.216 -0.2019  0.0711  0.0484
 9448SOL    HW133029   3.901   7.260   5.125 -0.6824 -1.3869 -0.4719
 9448SOL    HW233030   3.991   7.195   5.227 -0.1220  0.3113  0.1511
 9449SOL     OW33031   1.679   4.435  11.268  0.1895 -0.3663 -0.5396
 9449SOL    HW133032   1.612   4.503  11.275  1.7528  1.4852 -2.4344
 9449SOL    HW233033   1.649   4.378  11.197  0.3174  0.1063 -0.9757
 9450SOL     OW33034   8.526   3.165   1.457  0.5656  0.1036 -0.0026
 9450SOL    HW133035   8.439   3.141   1.425  0.5515 -1.4266  1.0872
 9450SOL    HW233036   8.581   3.090   1.434  1.0921  0.0703  1.3077
 9451SOL     OW33037   1.020   9.489   7.592 -0.2906  0.1678  0.1173
 9451SOL    HW133038   1.102   9.520   7.630 -0.5936  1.8349 -0.4976
 9451SOL    HW233039   1.024   9.517   7.500 -0.6385 -1.6109 -0.4795
 9452SOL     OW33040  11.632   6.629   7.252  0.2813  0.2416  0.1385
 9452SOL    HW133041  11.580   6.697   7.296 -0.3108 -0.1860  0.1104
 9452SOL    HW233042  11.571   6.557   7.238  0.9354 -0.3529  0.2725
 9453SOL     OW33043   5.644   2.667   5.927  0.4760 -0.2040 -0.1702
 9453SOL    HW133044   5.568   2.670   5.985  0.4770  1.4323 -0.2114
 9453SOL    HW233045   5.632   2.587   5.875 -1.5309  0.3128 -0.5812
 9454SOL     OW33046   4.890  10.901   7.366 -0.2485  0.0231 -0.1843
 9454SOL    HW133047   4.934  10.821   7.393 -1.5980 -0.7261 -0.1542
 9454SOL    HW233048   4.898  10.901   7.270  0.8907  0.5456 -0.1075
 9455SOL     OW33049   8.624  11.774   2.454  1.0748 -0.0724 -0.3704
 9455SOL    HW133050   8.559  11.719   2.410  0.1908  1.0068 -0.4627
 9455SOL    HW233051   8.700  11.773   2.396  1.0490 -1.0950 -0.4170
 9456SOL     OW33052   2.238   1.276   7.820  0.2473  0.7951  0.4293
 9456SOL    HW133053   2.295   1.308   7.890 -0.5680 -0.7820  1.8826
 9456SOL    HW233054   2.150   1.304   7.845 -0.1773 -0.5793  0.5626
 9457SOL     OW33055   4.335   6.199   1.759 -0.0434 -0.4435 -0.2304
 9457SOL    HW133056   4.254   6.170   1.717 -0.0917 -0.8662  0.1446
 9457SOL    HW233057   4.330   6.294   1.758 -0.6623 -0.4663  0.0053
 9458SOL     OW33058   0.936  10.844   0.668 -0.1017 -0.3559 -0.1307
 9458SOL    HW133059   0.973  10.932   0.662 -0.2847 -0.3761 -2.8185
 9458SOL    HW233060   0.853  10.850   0.621 -0.6832 -1.6918  0.6802
 9459SOL     OW33061   2.596   0.888   5.816  0.3348  0.5018 -0.4418
 9459SOL    HW133062   2.526   0.894   5.881 -0.1453  0.9039 -0.9870
 9459SOL    HW233063   2.659   0.956   5.840  0.4980  0.1972 -0.0027
 9460SOL     OW33064   4.491   7.716   3.576  0.3216 -0.1195  0.3561
 9460SOL    HW133065   4.502   7.743   3.667 -1.8480 -0.8025  0.8763
 9460SOL    HW233066   4.481   7.621   3.579 -0.3024 -0.1035 -0.5153
 9461SOL     OW33067   2.921   0.913   5.426 -0.5604  0.1400 -0.8500
 9461SOL    HW133068   2.959   0.846   5.483 -0.6092  0.2968 -0.6342
 9461SOL    HW233069   2.947   0.887   5.338 -1.0912 -0.4960 -0.8229
 9462SOL     OW33070   0.122   4.084   7.309  0.0985  0.4662 -0.0025
 9462SOL    HW133071   0.040   4.100   7.263  0.7646  0.6538 -1.1735
 9462SOL    HW233072   0.148   4.169   7.343  0.8694  0.8825 -1.5092
 9463SOL     OW33073   2.313   4.256   8.904 -0.0002  0.0403 -0.0534
 9463SOL    HW133074   2.354   4.177   8.870 -0.8134 -0.9326  1.1339
 9463SOL    HW233075   2.259   4.289   8.832  0.4509 -0.4093 -0.6002
 9464SOL     OW33076   2.625   6.678   3.556 -0.5806  0.2192 -0.2225
 9464SOL    HW133077   2.658   6.734   3.486 -1.6331  0.0844 -0.8354
 9464SOL    HW233078   2.688   6.605   3.560 -0.2383  0.4873 -0.6782
 9465SOL     OW33079   1.131   5.881   4.364 -0.0034 -0.1816 -0.4607
 9465SOL    HW133080   1.123   5.901   4.457 -0.1379  0.0097 -0.5133
 9465SOL    HW233081   1.041   5.875   4.332  0.0344 -0.7756 -0.4662
 9466SOL     OW33082   7.770   2.232   0.823  0.0308 -0.4293 -0.3779
 9466SOL    HW133083   7.857   2.273   0.818  0.2931 -0.7677  1.0014
 9466SOL    HW233084   7.784   2.155   0.878 -1.1279 -0.5313 -0.2158
 9467SOL     OW33085  10.796   7.997   1.064  0.5424 -0.2884 -0.2849
 9467SOL    HW133086  10.787   7.999   1.159  1.6355  1.1015 -0.1808
 9467SOL    HW233087  10.779   8.087   1.036  0.4060 -0.6395 -1.3975
 9468SOL     OW33088   7.575   5.248   6.251 -0.3081  0.4333 -0.7461
 9468SOL    HW133089   7.525   5.303   6.311 -1.4130 -0.4491 -0.8317
 9468SOL    HW233090   7.645   5.305   6.218 -1.2621  1.6981 -0.6320
 9469SOL     OW33091   1.962   9.109  11.774 -0.7093  0.8586  0.4369
 9469SOL    HW133092   1.901   9.161  11.826  0.3214  0.5799  2.0050
 9469SOL    HW233093   1.969   9.026  11.821  0.1789  0.5491 -0.2079
 9470SOL     OW33094  11.746   2.828   2.113  0.3397  0.1194 -0.3326
 9470SOL    HW133095  11.769   2.912   2.074 -1.5130  0.3414 -1.0437
 9470SOL    HW233096  11.651   2.828   2.115  0.3211 -0.8706  2.1060
 9471SOL     OW33097   3.648   2.683   8.404  0.7293 -0.7731  0.1130
 9471SOL    HW133098   3.692   2.655   8.324  2.3799 -0.4281  0.8604
 9471SOL    HW233099   3.588   2.611   8.425  1.1947 -1.4269 -0.7455
 9472SOL     OW33100   3.035  10.960   6.083 -0.0910 -0.1332 -0.1059
 9472SOL    HW133101   2.954  10.959   6.033  0.4746  0.5094 -1.0762
 9472SOL    HW233102   3.008  10.945   6.173 -1.3530  0.6355 -0.3279
 9473SOL     OW33103   2.589   3.118   7.130 -0.2812 -0.2208 -0.2938
 9473SOL    HW133104   2.588   3.068   7.211  0.6460  0.1671 -0.0277
 9473SOL    HW233105   2.676   3.159   7.128 -0.4050  0.0229 -1.3262
 9474SOL     OW33106   0.323   0.144   3.948  0.7113  0.0255 -0.2125
 9474SOL    HW133107   0.360   0.094   4.021 -0.2378  0.3810  0.5267
 9474SOL    HW233108   0.283   0.078   3.891  1.2762 -0.2323 -0.3259
 9475SOL     OW33109   2.024   6.414  10.474 -0.0930 -0.4087  0.0933
 9475SOL    HW133110   1.958   6.474  10.442 -0.4092 -1.2844 -0.9819
 9475SOL    HW233111   2.067   6.381  10.394 -0.6695 -2.3970  0.5311
 9476SOL     OW33112   0.981  10.190  10.384 -0.0853 -0.7477  0.1373
 9476SOL    HW133113   1.052  10.205  10.446  0.2496 -0.9422 -0.1966
 9476SOL    HW233114   0.904  10.229  10.426  0.8017  2.2886 -0.8517
 9477SOL     OW33115   6.935   8.776   8.508 -0.1175  0.1446 -0.3041
 9477SOL    HW133116   6.866   8.780   8.574  1.4742  0.9688  1.3940
 9477SOL    HW233117   6.958   8.867   8.491  0.1878 -0.0951 -1.2931
 9478SOL     OW33118   8.128   2.600   5.210  0.4013  0.1193  0.4183
 9478SOL    HW133119   8.077   2.523   5.185  0.5982  0.7117 -1.9934
 9478SOL    HW233120   8.206   2.596   5.155  1.3030  1.0880  1.5757
 9479SOL     OW33121   9.886   6.003   1.521 -0.1402 -0.5370  0.5214
 9479SOL    HW133122   9.916   5.912   1.514 -0.6435 -0.6332 -0.6023
 9479SOL    HW233123   9.844   6.021   1.437 -0.8730  0.4423  1.0739
 9480SOL     OW33124   6.567   3.274   4.359 -0.5089  0.3453 -0.8420
 9480SOL    HW133125   6.503   3.204   4.374 -2.2547  1.8133 -1.0870
 9480SOL    HW233126   6.619   3.244   4.285 -0.2701 -1.2880 -0.0663
 9481SOL     OW33127   0.838   9.675   7.750  0.0677 -0.4401 -0.6501
 9481SOL    HW133128   0.868   9.639   7.667 -1.3289  0.0962 -1.4111
 9481SOL    HW233129   0.769   9.737   7.727  1.5662  1.8770  0.7048
 9482SOL     OW33130   2.493   0.521  10.342 -0.3543 -0.2867  0.1015
 9482SOL    HW133131   2.584   0.550  10.346  0.2118 -2.0683  1.9345
 9482SOL    HW233132   2.446   0.594  10.301  1.9938  0.3647 -1.5991
 9483SOL     OW33133   2.970   7.110  10.589  0.1838 -0.3531  0.4572
 9483SOL    HW133134   3.006   7.161  10.516  0.3576 -1.4568 -0.2539
 9483SOL    HW233135   2.885   7.079  10.557  0.0558 -0.4627  0.9000
 9484SOL     OW33136  11.154   9.180   4.250 -0.3673 -0.2961 -0.2077
 9484SOL    HW133137  11.211   9.182   4.173  1.2325 -1.3802  0.8859
 9484SOL    HW233138  11.169   9.263   4.295 -0.0393 -0.3647 -0.1936
 9485SOL     OW33139   4.685  10.688   3.737  0.5087  0.4903  0.7272
 9485SOL    HW133140   4.657  10.719   3.823  1.0832  3.0219  0.0857
 9485SOL    HW233141   4.767  10.642   3.754  0.5957  0.9198  1.5572
 9486SOL     OW33142   6.457   1.377   4.454 -0.1009  0.0877  0.0979
 9486SOL    HW133143   6.544   1.395   4.487 -0.4021 -0.0170  0.9688
 9486SOL    HW233144   6.403   1.450   4.486 -0.5279 -0.3436  0.3763
 9487SOL     OW33145   4.954   4.040  11.088 -0.1087  0.2898 -0.2746
 9487SOL    HW133146   5.045   4.028  11.114 -0.6565  0.8345  2.1782
 9487SOL    HW233147   4.935   4.131  11.108 -1.0766  0.2986 -1.1715
 9488SOL     OW33148   6.474   3.299   3.920  0.2377  0.1308  0.4709
 9488SOL    HW133149   6.449   3.384   3.954 -1.2774 -0.5178  1.0626
 9488SOL    HW233150   6.454   3.238   3.990  0.7887 -0.7881 -0.1419
 9489SOL     OW33151   2.591  11.645  10.613  0.0239  0.3838  0.5080
 9489SOL    HW133152   2.660  11.701  10.648  0.1251 -0.6724  2.1111
 9489SOL    HW233153   2.517  11.704  10.599  0.5072  1.1327  1.0115
 9490SOL     OW33154   7.134   6.430   4.522 -0.1448  0.0190  0.1656
 9490SOL    HW133155   7.134   6.334   4.514  0.3282  0.0133  0.1730
 9490SOL    HW233156   7.067   6.449   4.588  0.8240 -0.4239  1.3268
 9491SOL     OW33157   7.878   9.448   4.208  0.1665 -0.1258  0.5019
 9491SOL    HW133158   7.865   9.542   4.201  0.1475  0.1217  3.0282
 9491SOL    HW233159   7.969   9.435   4.182 -0.0156  0.4759 -0.4945
 9492SOL     OW33160   5.479   8.479  10.640 -0.3527 -0.2223  0.1087
 9492SOL    HW133161   5.504   8.387  10.631 -0.6133 -0.2139 -0.8170
 9492SOL    HW233162   5.554   8.528  10.606 -1.1409 -0.1753 -1.7007
 9493SOL     OW33163  10.862   9.395   6.662  0.0958 -0.4587 -0.3394
 9493SOL    HW133164  10.856   9.424   6.571  2.2051 -2.5883 -1.2507
 9493SOL    HW233165  10.771   9.383   6.689 -0.6154  1.0189 -1.8452
 9494SOL     OW33166   1.535   4.771   1.489  0.0090  0.6275 -0.5781
 9494SOL    HW133167   1.573   4.769   1.577 -1.6117 -0.2010  0.1294
 9494SOL    HW233168   1.611   4.770   1.430  1.1229  1.3684  0.7868
 9495SOL     OW33169   1.373   0.245  10.998 -0.6572  0.1943 -0.2001
 9495SOL    HW133170   1.368   0.160  11.041 -0.7616  0.6287  0.6720
 9495SOL    HW233171   1.456   0.282  11.028  0.3909 -0.4076 -2.1549
 9496SOL     OW33172   6.569   0.525   6.400  0.7680 -0.4882  0.5665
 9496SOL    HW133173   6.483   0.529   6.441  0.6882 -0.9478  0.4484
 9496SOL    HW233174   6.555   0.559   6.312  1.1328  1.4267  1.2014
 9497SOL     OW33175   1.671   1.763   4.828  0.0483  0.3611 -0.8334
 9497SOL    HW133176   1.760   1.761   4.794  0.1263 -3.1754 -0.7414
 9497SOL    HW233177   1.615   1.761   4.751  0.1245 -0.6631 -0.8718
 9498SOL     OW33178   0.169   6.013   4.275 -0.1875 -0.7486 -0.3101
 9498SOL    HW133179   0.225   5.992   4.350 -1.1059  0.3056  0.7143
 9498SOL    HW233180   0.170   6.109   4.270  0.4277 -0.8134 -2.1204
 9499SOL     OW33181   9.563   1.652   3.544 -0.0332  0.0874  0.4125
 9499SOL    HW133182   9.542   1.586   3.610 -0.9823 -0.3668 -0.3309
 9499SOL    HW233183   9.647   1.689   3.573  0.1261 -0.8971  1.2508
 9500SOL     OW33184   1.823   1.244   0.566  0.5031 -0.0832  0.3240
 9500SOL    HW133185   1.891   1.211   0.508 -0.6166 -3.4348  0.7378
 9500SOL    HW233186   1.746   1.254   0.511  0.2927 -0.1092  0.6095
 9501SOL     OW33187   4.229  10.571   1.594 -0.3246  0.4987 -0.7470
 9501SOL    HW133188   4.288  10.563   1.518  0.1182 -0.7856 -0.2943
 9501SOL    HW233189   4.142  10.558   1.558 -0.1411  0.1803 -1.0811
 9502SOL     OW33190   8.058  10.520   3.320  0.1542  0.2135 -0.1942
 9502SOL    HW133191   8.124  10.582   3.288 -0.1965 -0.2775 -2.0048
 9502SOL    HW233192   7.988  10.524   3.255 -0.1027 -1.6895 -0.0912
 9503SOL     OW33193   3.137   8.232   7.628  0.4822  0.0201 -0.6556
 9503SOL    HW133194   3.140   8.212   7.722  1.4535 -0.9028 -0.8792
 9503SOL    HW233195   3.150   8.148   7.585  1.5661  0.6567 -1.6156
 9504SOL     OW33196   9.730   6.604  10.954  0.1359 -0.8837  0.4570
 9504SOL    HW133197   9.692   6.679  10.907  0.8974 -0.2863  0.7680
 9504SOL    HW233198   9.708   6.620  11.046  1.1513 -0.5064  0.6473
 9505SOL     OW33199   2.157   8.007   4.011  0.3745 -0.4925 -0.0661
 9505SOL    HW133200   2.198   7.921   4.002  0.5536 -0.5311  1.0119
 9505SOL    HW233201   2.229   8.069   4.000  0.3986 -0.5042  0.0285
 9506SOL     OW33202   3.002   5.911  10.709 -0.0329 -0.4648 -0.4897
 9506SOL    HW133203   3.063   5.977  10.741  0.0118 -0.5287 -0.4427
 9506SOL    HW233204   3.041   5.827  10.736 -0.5894 -0.4725  0.3200
 9507SOL     OW33205   8.440   3.799   8.313  0.0596 -0.2807  0.1997
 9507SOL    HW133206   8.409   3.889   8.323 -0.8784 -0.7627  2.1601
 9507SOL    HW233207   8.389   3.765   8.239  1.2392  1.0923 -1.2953
 9508SOL     OW33208   3.629   8.917  11.380 -0.0675 -0.8069  0.0983
 9508SOL    HW133209   3.563   8.901  11.312 -0.7362  0.0190  0.5342
 9508SOL    HW233210   3.581   8.906  11.462 -0.1100  1.4371  0.4204
 9509SOL     OW33211   1.971   5.905   1.792 -0.0397 -0.0529  0.2428
 9509SOL    HW133212   1.937   5.914   1.703 -0.1527 -0.2044  0.2690
 9509SOL    HW233213   2.066   5.913   1.783  0.0968 -1.6329 -0.1225
 9510SOL     OW33214   2.246   7.298   4.825 -0.4234  0.1112  0.1299
 9510SOL    HW133215   2.201   7.227   4.779 -1.8011  1.9797 -1.5431
 9510SOL    HW233216   2.237   7.276   4.917 -2.4224 -0.9840 -0.2681
 9511SOL     OW33217   8.113  10.183   6.663 -0.1472  0.2164 -0.6144
 9511SOL    HW133218   8.027  10.206   6.697 -0.2902 -0.6742 -0.3718
 9511SOL    HW233219   8.158  10.141   6.736 -0.1893 -1.0264 -1.2830
 9512SOL     OW33220   4.435   1.629   8.759 -0.2704 -0.2448  0.1729
 9512SOL    HW133221   4.377   1.704   8.774 -0.3922 -0.2644 -0.1902
 9512SOL    HW233222   4.462   1.601   8.847  2.1524  2.0526  0.2821
 9513SOL     OW33223   0.626   6.364   3.998  0.2906 -0.3591  0.5306
 9513SOL    HW133224   0.691   6.296   4.015  2.4913  1.5550  0.2713
 9513SOL    HW233225   0.645   6.432   4.063 -1.3926  0.3472  0.3494
 9514SOL     OW33226  11.787   5.476  10.588 -0.1339 -0.3557 -0.4726
 9514SOL    HW133227  11.847   5.449  10.518 -0.5469 -0.3927 -0.8128
 9514SOL    HW233228  11.707   5.426  10.572 -0.5489  0.3063 -0.5081
 9515SOL     OW33229   5.152   0.303   4.534 -0.7917  0.3861 -0.2147
 9515SOL    HW133230   5.196   0.231   4.489 -0.5767 -0.8916  1.9472
 9515SOL    HW233231   5.186   0.382   4.491  0.1493 -0.7310 -1.5973
 9516SOL     OW33232   2.442   6.769   9.779  0.1800  0.1330 -0.3594
 9516SOL    HW133233   2.372   6.755   9.842  1.1697  2.2089  1.3226
 9516SOL    HW233234   2.518   6.724   9.816  0.6066  0.8321 -0.3560
 9517SOL     OW33235   7.287   0.417   2.899 -1.1190 -0.0392 -0.8064
 9517SOL    HW133236   7.229   0.445   2.970 -0.5071  0.9612 -0.6821
 9517SOL    HW233237   7.374   0.415   2.939 -0.9817 -1.0161 -1.1269
 9518SOL     OW33238   8.971  10.482   5.140 -0.1773 -0.5859  0.4129
 9518SOL    HW133239   8.951  10.405   5.193  0.6544  0.0433  1.6932
 9518SOL    HW233240   9.065  10.495   5.152 -0.6067  1.6952  1.7413
 9519SOL     OW33241   1.354  11.896   5.163 -0.5723  0.2396  0.8599
 9519SOL    HW133242   1.430  11.851   5.127 -1.0325  0.7288 -0.7732
 9519SOL    HW233243   1.321  11.950   5.092 -3.0798 -0.7600  1.1458
 9520SOL     OW33244   6.153   2.380   0.884  0.2040 -0.2969  0.6691
 9520SOL    HW133245   6.113   2.396   0.969 -0.4594  1.0720  0.1158
 9520SOL    HW233246   6.109   2.302   0.851 -0.7258  0.1459  0.8516
 9521SOL     OW33247   4.511   8.412   4.795 -0.2318  0.1469 -0.2444
 9521SOL    HW133248   4.572   8.462   4.848 -0.4866  0.6625 -0.4248
 9521SOL    HW233249   4.464   8.357   4.857 -1.3126  1.5482  0.2555
 9522SOL     OW33250   9.656   5.700   6.276  0.5392  0.4234 -0.1971
 9522SOL    HW133251   9.659   5.650   6.357  0.3737 -0.1188 -0.5208
 9522SOL    HW233252   9.727   5.666   6.223  0.5235  0.6382 -0.3597
 9523SOL     OW33253  10.340   9.660   6.731  0.7326 -0.4991 -0.0154
 9523SOL    HW133254  10.434   9.650   6.717  0.9599  1.0958  0.2319
 9523SOL    HW233255  10.303   9.662   6.642  1.1081  0.3598 -0.1569
 9524SOL     OW33256   5.210   7.321  10.497 -0.0979  0.1683 -0.0529
 9524SOL    HW133257   5.299   7.351  10.478 -0.0556 -0.4155 -0.7845
 9524SOL    HW233258   5.209   7.229  10.473 -0.7975  0.0661  0.3176
 9525SOL     OW33259   2.575   1.566  11.635 -0.2134 -0.2787  0.0227
 9525SOL    HW133260   2.575   1.544  11.542  0.5508  1.6947 -0.5027
 9525SOL    HW233261   2.484   1.588  11.655 -0.6610 -2.0995  0.1472
 9526SOL     OW33262   6.624   3.813   5.148 -0.2404  0.1226  0.3472
 9526SOL    HW133263   6.564   3.867   5.199  0.9609  1.1575  0.7026
 9526SOL    HW233264   6.573   3.734   5.127 -1.2981  0.4025  1.7201
 9527SOL     OW33265   6.249   0.184  11.081  0.3961  0.5448 -0.6142
 9527SOL    HW133266   6.228   0.105  11.032  0.3212  0.2808 -0.1618
 9527SOL    HW233267   6.322   0.223  11.034  0.8025 -0.0916 -0.5269
 9528SOL     OW33268   0.156   8.712   8.292  0.3780 -0.2963 -0.4930
 9528SOL    HW133269   0.218   8.752   8.232  0.6928  0.3719  0.2569
 9528SOL    HW233270   0.071   8.744   8.264  0.5396  0.1339 -0.4996
 9529SOL     OW33271  10.903   0.224   3.365 -0.7356  0.3988 -0.0889
 9529SOL    HW133272  10.843   0.252   3.296  0.3626  0.2014 -1.1650
 9529SOL    HW233273  10.871   0.268   3.444 -1.0559  1.9816 -1.0495
 9530SOL     OW33274   9.605   8.603   5.749  0.7049 -0.5191  0.1070
 9530SOL    HW133275   9.546   8.656   5.696  0.7138 -1.2059 -0.6141
 9530SOL    HW233276   9.551   8.532   5.783  0.5586  0.2412  1.5539
 9531SOL     OW33277  11.394   7.118   3.737 -0.4443 -0.1357  0.0476
 9531SOL    HW133278  11.407   7.072   3.820  0.7960  0.3737  0.1586
 9531SOL    HW233279  11.406   7.050   3.670  0.6532 -0.1428  0.2345
 9532SOL     OW33280   1.514   5.594   7.892  0.2159 -0.0233  0.0430
 9532SOL    HW133281   1.473   5.665   7.941  1.7126  0.5513  0.5108
 9532SOL    HW233282   1.519   5.626   7.802 -1.3959 -0.5852 -0.2950
 9533SOL     OW33283   5.988   8.378   5.068 -0.2824 -0.5390  0.3701
 9533SOL    HW133284   5.975   8.463   5.025 -1.1232  0.9827  3.3329
 9533SOL    HW233285   5.985   8.314   4.997 -1.2703  1.7653 -1.8148
 9534SOL     OW33286   6.457   6.670   1.533 -0.3744 -0.3507 -0.7760
 9534SOL    HW133287   6.503   6.660   1.449  0.3480 -0.0768 -0.4210
 9534SOL    HW233288   6.494   6.602   1.589  0.5745  0.7121 -0.0785
 9535SOL     OW33289   2.722   2.955   0.057 -0.2841  0.0875  0.0992
 9535SOL    HW133290   2.755   2.916   0.138  0.4196 -0.7634 -0.5727
 9535SOL    HW233291   2.634   2.984   0.079  0.1147  0.4154  1.3302
 9536SOL     OW33292   0.966   3.778   0.876 -0.3029 -0.4377 -0.2937
 9536SOL    HW133293   1.041   3.719   0.885  0.5048  0.3044 -1.6880
 9536SOL    HW233294   0.985   3.827   0.795 -1.1774  1.3655  0.5442
 9537SOL     OW33295   2.697   5.407   8.500 -1.1931 -0.2363  0.5917
 9537SOL    HW133296   2.740   5.491   8.486  0.9118 -1.5653 -1.8312
 9537SOL    HW233297   2.646   5.393   8.420 -2.5345 -0.7468  1.5025
 9538SOL     OW33298   3.911  11.000   4.078 -0.1191 -0.1912  0.6999
 9538SOL    HW133299   3.933  10.980   3.987 -0.2449 -1.0570  0.8487
 9538SOL    HW233300   3.958  10.934   4.129 -0.9135 -0.3962  1.1910
 9539SOL     OW33301  11.854   9.599   6.805  0.4494  0.0234  0.2219
 9539SOL    HW133302  11.869   9.635   6.892 -0.9130  1.6453 -0.1600
 9539SOL    HW233303  11.771   9.550   6.813 -0.4224  1.3406 -0.4431
 9540SOL     OW33304  10.600  10.131  10.552  0.7378 -0.7465 -0.4689
 9540SOL    HW133305  10.693  10.116  10.566  0.5452 -0.2212  1.8560
 9540SOL    HW233306  10.580  10.208  10.606 -0.6640  0.4122 -2.4896
 9541SOL     OW33307   1.774   3.844   9.694 -0.1364  0.3645  0.3089
 9541SOL    HW133308   1.856   3.888   9.716  0.2580 -0.9243  1.6045
 9541SOL    HW233309   1.730   3.832   9.778 -1.2158  0.2044 -0.2634
 9542SOL     OW33310  11.627  11.158   0.021  0.1455  0.0789  0.0921
 9542SOL    HW133311  11.587  11.092  -0.036 -0.8925  1.4168 -0.8112
 9542SOL    HW233312  11.600  11.133   0.110 -2.0699  0.4467 -0.4191
 9543SOL     OW33313   7.104   3.233   5.421 -0.1536  0.5663 -0.0105
 9543SOL    HW133314   7.135   3.291   5.490 -1.0495  0.3970  0.5539
 9543SOL    HW233315   7.177   3.174   5.405 -0.5358 -0.5678  2.0954
 9544SOL     OW33316   9.693   9.489   6.345 -0.2137  0.1073  0.0194
 9544SOL    HW133317   9.783   9.455   6.341  0.0854  0.9308 -0.7544
 9544SOL    HW233318   9.701   9.574   6.388 -0.5380  0.4114 -0.5008
 9545SOL     OW33319   7.747   0.322   3.113 -0.0268  0.5957  0.7302
 9545SOL    HW133320   7.757   0.311   3.207  0.0714 -0.1628  0.6343
 9545SOL    HW233321   7.793   0.247   3.074 -0.1097  0.8694  0.0800
 9546SOL     OW33322   9.894   3.316   2.925 -0.4289 -0.3204  0.5524
 9546SOL    HW133323   9.959   3.331   2.856  0.8987 -0.4818  1.7351
 9546SOL    HW233324   9.926   3.367   2.999 -1.9426  0.0067  1.0138
 9547SOL     OW33325   1.058   4.698  11.761  0.4527 -0.3645  0.2773
 9547SOL    HW133326   0.965   4.720  11.754  0.6217  0.8620  1.4920
 9547SOL    HW233327   1.102   4.782  11.775  1.2131 -1.2410  4.4600
 9548SOL     OW33328   7.457   6.597   0.110  0.1182  0.0599 -0.2980
 9548SOL    HW133329   7.428   6.662   0.174 -0.6501 -1.1561  0.6396
 9548SOL    HW233330   7.495   6.527   0.163  1.5379  0.0160 -1.3214
 9549SOL     OW33331   9.933  10.855   5.370  0.0986  0.2862 -0.4734
 9549SOL    HW133332   9.939  10.884   5.461  1.0511  0.5943 -0.6255
 9549SOL    HW233333   9.839  10.855   5.351 -0.2643 -1.2239  0.9719
 9550SOL     OW33334   3.117   7.795   1.984  0.0860  0.2068  0.1598
 9550SOL    HW133335   3.180   7.729   1.954 -0.3715 -0.2479  0.1752
 9550SOL    HW233336   3.130   7.798   2.079  0.7115  0.7840  0.0669
 9551SOL     OW33337   1.806   6.794   5.215 -0.0460 -0.0164 -0.3415
 9551SOL    HW133338   1.882   6.847   5.193  0.3678 -0.2875  0.4018
 9551SOL    HW233339   1.793   6.808   5.309 -0.8153 -0.0948 -0.4293
 9552SOL     OW33340   1.884   9.964   6.331  0.7700  0.3333 -0.2480
 9552SOL    HW133341   1.804   9.990   6.377 -0.2627 -2.3404 -0.3546
 9552SOL    HW233342   1.916   9.888   6.380  0.5639 -1.5691 -2.8554
 9553SOL     OW33343   7.945   9.223   3.344  0.3532 -0.3042  0.1083
 9553SOL    HW133344   7.925   9.302   3.295  1.2298 -0.2555 -0.1965
 9553SOL    HW233345   7.884   9.223   3.417 -0.2142  0.2105 -0.3626
 9554SOL     OW33346   7.086   6.933   4.355 -0.2435  0.5124  0.6733
 9554SOL    HW133347   7.173   6.953   4.319 -0.3390  2.0800  1.2363
 9554SOL    HW233348   7.102   6.906   4.445 -0.2825  0.0604  0.5457
 9555SOL     OW33349  11.668   7.910   4.201 -0.2109  0.4345  0.2970
 9555SOL    HW133350  11.648   7.822   4.231 -1.3082 -0.6213 -3.0973
 9555SOL    HW233351  11.603   7.966   4.244 -1.3791 -0.8897  0.3099
 9556SOL     OW33352   4.811   5.932  10.327 -0.1174 -0.2390  0.4334
 9556SOL    HW133353   4.738   5.994  10.331 -0.5646 -0.4105 -2.4001
 9556SOL    HW233354   4.888   5.984  10.349 -0.7109  0.8872 -0.0560
 9557SOL     OW33355   2.243   0.997   7.935 -0.0602  0.1846  0.7806
 9557SOL    HW133356   2.248   1.081   7.890 -1.1416  0.1026  0.4898
 9557SOL    HW233357   2.238   1.020   8.028 -0.4249  0.4402  0.6981
 9558SOL     OW33358  10.727   4.327  11.699 -0.0507 -0.2957 -0.2882
 9558SOL    HW133359  10.675   4.326  11.779 -1.3320  0.2166 -1.0913
 9558SOL    HW233360  10.794   4.394  11.715 -0.7435  0.3228  0.1104
 9559SOL     OW33361  11.788   1.184   8.271  0.4181 -0.3767  0.1905
 9559SOL    HW133362  11.765   1.277   8.272  0.9191 -0.2157  2.8122
 9559SOL    HW233363  11.850   1.175   8.198 -0.6023  1.0442 -0.9117
 9560SOL     OW33364   7.400   2.736   2.362 -0.2278 -0.1906 -0.0966
 9560SOL    HW133365   7.307   2.718   2.344 -0.3860  0.9738 -0.4970
 9560SOL    HW233366   7.407   2.729   2.457 -0.4762 -1.3754 -0.1438
 9561SOL     OW33367   0.931   5.581   8.773  0.0151 -0.0686  0.8289
 9561SOL    HW133368   0.841   5.588   8.742  0.5203  0.2235 -0.6673
 9561SOL    HW233369   0.950   5.487   8.771  0.6593  0.0413 -1.7867
 9562SOL     OW33370   8.924   2.836   4.914  0.2893  0.4154 -0.2903
 9562SOL    HW133371   8.980   2.785   4.856  1.7914 -0.7210  2.0171
 9562SOL    HW233372   8.985   2.881   4.973 -1.1614  1.6372  0.3572
 9563SOL     OW33373   1.636   7.806   8.803  0.0885  0.6756 -0.6852
 9563SOL    HW133374   1.721   7.838   8.834  0.3690 -0.4688 -0.2216
 9563SOL    HW233375   1.643   7.809   8.708 -0.2481  2.8421 -0.6946
 9564SOL     OW33376   6.304   6.980   0.120  0.1259 -0.3412 -0.0311
 9564SOL    HW133377   6.320   7.042   0.192 -1.2447  0.6048 -0.4977
 9564SOL    HW233378   6.392   6.954   0.092  0.7446  1.0084  0.5179
 9565SOL     OW33379  10.338   7.234   1.310 -0.1002 -0.4588 -0.0100
 9565SOL    HW133380  10.424   7.195   1.325 -0.5599 -1.6050 -0.2125
 9565SOL    HW233381  10.355   7.311   1.257  0.9221  0.0694  1.0548
 9566SOL     OW33382   1.121   0.237   6.471 -0.1282 -0.5273 -0.0012
 9566SOL    HW133383   1.118   0.321   6.517 -0.0911  0.8382 -2.3004
 9566SOL    HW233384   1.065   0.179   6.522  1.9082  0.0219  3.1426
 9567SOL     OW33385   7.985   2.259   4.130  0.2555  0.7473 -0.2626
 9567SOL    HW133386   8.009   2.330   4.070 -1.3692  0.3559 -1.4477
 9567SOL    HW233387   7.896   2.280   4.159  0.4589  0.1404  0.8472
 9568SOL     OW33388   0.211   4.577  10.401 -0.5336  0.4287 -0.0263
 9568SOL    HW133389   0.257   4.509  10.351 -1.4454 -0.5310  0.4249
 9568SOL    HW233390   0.244   4.659  10.364  0.8073 -0.2356 -0.3767
 9569SOL     OW33391   0.327   5.235   4.439 -0.0674  0.0773  0.6578
 9569SOL    HW133392   0.384   5.208   4.510 -0.4898 -0.1509  0.9134
 9569SOL    HW233393   0.263   5.293   4.480 -0.8812 -0.7951  0.6480
 9570SOL     OW33394  10.544   0.065   5.814 -0.2544 -0.5580  0.6069
 9570SOL    HW133395  10.490   0.037   5.888 -0.1779  0.0927  0.9161
 9570SOL    HW233396  10.633   0.038   5.837 -0.1669 -0.0027  0.9457
 9571SOL     OW33397   9.584   8.468   8.421 -0.2221  0.1640 -0.2293
 9571SOL    HW133398   9.496   8.469   8.385 -0.6203 -1.1666  0.6607
 9571SOL    HW233399   9.641   8.480   8.345 -1.1191 -0.3177 -0.9967
 9572SOL     OW33400  10.789   9.783   4.486 -0.9167 -0.5534  1.0931
 9572SOL    HW133401  10.749   9.723   4.549  0.4348 -1.5235  1.0492
 9572SOL    HW233402  10.849   9.729   4.435  0.7079  0.9035  1.3680
 9573SOL     OW33403   4.036   8.494   5.621 -0.1576 -0.0045  0.4216
 9573SOL    HW133404   3.956   8.519   5.574 -0.2433  0.3227  0.7351
 9573SOL    HW233405   4.016   8.408   5.657 -0.5429  0.2752  0.8866
 9574SOL     OW33406   1.817   9.183   2.289  0.6021 -0.0004 -0.3879
 9574SOL    HW133407   1.853   9.168   2.377 -1.4986  0.3565  0.6181
 9574SOL    HW233408   1.818   9.278   2.278 -0.0967  0.0328 -0.2698
 9575SOL     OW33409   8.918   5.679   9.527  0.3999 -0.1196  0.1750
 9575SOL    HW133410   8.856   5.747   9.552 -0.6773 -1.8910  2.7476
 9575SOL    HW233411   9.002   5.724   9.518  0.0002  1.3952  3.0599
 9576SOL     OW33412  10.064  10.845   6.928  0.2589 -0.6129  0.2667
 9576SOL    HW133413  10.011  10.855   6.849  0.8413 -0.6710 -0.1381
 9576SOL    HW233414  10.134  10.785   6.902 -0.0719 -1.3706  1.0929
 9577SOL     OW33415   6.660   4.374   3.337  0.5198  0.2999  0.0221
 9577SOL    HW133416   6.592   4.386   3.404  0.0456 -0.0316 -0.3978
 9577SOL    HW233417   6.739   4.354   3.387  0.4533  1.2813  0.5465
 9578SOL     OW33418   9.926  11.967   6.797 -0.5262  0.6044 -0.5112
 9578SOL    HW133419   9.971  11.911   6.860  0.0996  1.0511 -0.5603
 9578SOL    HW233420   9.941  11.924   6.712 -0.5426  0.5313 -0.4776
 9579SOL     OW33421   8.111   2.692  10.375 -0.4239  0.5537  0.6642
 9579SOL    HW133422   8.191   2.726  10.417 -0.2220  2.2481 -0.9551
 9579SOL    HW233423   8.065   2.770  10.345 -1.0033 -0.5303 -1.4332
 9580SOL     OW33424   7.779   6.092   0.091 -0.1712 -0.3435 -0.0329
 9580SOL    HW133425   7.751   6.078   0.000  0.5134 -0.0315 -0.2979
 9580SOL    HW233426   7.844   6.162   0.086 -1.4934  1.0238  0.9397
 9581SOL     OW33427  11.485   9.195  11.120 -0.0843  0.3017  0.0276
 9581SOL    HW133428  11.392   9.190  11.097  0.0642  3.0609 -1.6765
 9581SOL    HW233429  11.527   9.232  11.043  1.9849  1.5380  1.6290
 9582SOL     OW33430   5.035   9.046  10.013 -0.4281 -0.1192 -0.2655
 9582SOL    HW133431   5.059   9.132   9.978  0.6608  0.9917  2.9027
 9582SOL    HW233432   4.950   9.059  10.054 -0.6336 -0.7813 -0.4643
 9583SOL     OW33433   4.584  10.416   1.703 -0.4396 -0.4057 -0.1355
 9583SOL    HW133434   4.562  10.463   1.622 -0.3197  0.3401  0.2517
 9583SOL    HW233435   4.661  10.461   1.736  0.1262 -1.3622 -0.1299
 9584SOL     OW33436   6.353   0.377   9.537 -0.5262 -0.1318 -0.2569
 9584SOL    HW133437   6.271   0.420   9.562  0.5305  1.4158  0.7185
 9584SOL    HW233438   6.412   0.448   9.516  0.7472 -1.1990 -0.4047
 9585SOL     OW33439   2.376   6.538   4.360  0.1026  0.4910 -0.3212
 9585SOL    HW133440   2.441   6.601   4.392  1.1095  0.5275 -2.2837
 9585SOL    HW233441   2.343   6.576   4.279 -1.7204  0.0192  0.1646
 9586SOL     OW33442   7.920   3.110   6.574  0.2708  0.3165  0.0041
 9586SOL    HW133443   8.015   3.095   6.578  0.0334 -1.6477 -0.7516
 9586SOL    HW233444   7.884   3.053   6.642 -0.4005  0.6238 -0.0879
 9587SOL     OW33445   6.110   4.581   5.419 -0.1119 -0.1083 -0.1864
 9587SOL    HW133446   6.122   4.649   5.485 -1.8431 -0.4487  0.5446
 9587SOL    HW233447   6.196   4.541   5.409  0.8248  1.8347 -0.2608
 9588SOL     OW33448   6.860   8.242   0.719 -0.7470 -0.3939  0.6529
 9588SOL    HW133449   6.851   8.313   0.655 -1.9141  0.5571  1.8193
 9588SOL    HW233450   6.811   8.169   0.680  1.1210 -0.9127 -0.9272
 9589SOL     OW33451  10.908   0.737   9.619  0.0276  0.4137 -0.4725
 9589SOL    HW133452  10.842   0.805   9.639 -0.4757 -0.0160 -0.6509
 9589SOL    HW233453  10.989   0.786   9.608 -0.2499  0.9528 -0.1961
 9590SOL     OW33454   5.811   3.978   5.566  0.1990  0.2272  0.2869
 9590SOL    HW133455   5.743   3.920   5.600 -0.0994 -1.1048 -2.3275
 9590SOL    HW233456   5.893   3.933   5.587 -0.0280 -1.3130 -1.7228
 9591SOL     OW33457  11.035   9.248  11.323  0.9540  0.3725  0.4172
 9591SOL    HW133458  11.010   9.332  11.363 -1.1185  0.1211 -0.2271
 9591SOL    HW233459  11.085   9.272  11.245  2.1973  0.9257  1.3435
 9592SOL     OW33460  11.697   2.017   4.215  0.8471  0.1412  0.2645
 9592SOL    HW133461  11.647   1.974   4.146  1.5258 -3.3492  1.7536
 9592SOL    HW233462  11.633   2.074   4.258 -0.6513 -0.7577 -0.6676
 9593SOL     OW33463   8.518   6.826   4.414 -0.0111  0.4412  0.6729
 9593SOL    HW133464   8.521   6.733   4.391 -0.7888  0.4672  0.4393
 9593SOL    HW233465   8.424   6.846   4.421  0.1601  1.1149  1.1011
 9594SOL     OW33466   5.032  11.588  11.001 -0.1440 -0.5916  0.0874
 9594SOL    HW133467   5.029  11.649  11.075  0.2833  0.9628 -1.1131
 9594SOL    HW233468   5.080  11.512  11.033  1.2954  0.6578  0.9957
 9595SOL     OW33469   6.782  11.820   1.450 -0.5299  0.0693 -0.5611
 9595SOL    HW133470   6.721  11.893   1.442  0.8973  1.2505 -1.2347
 9595SOL    HW233471   6.854  11.855   1.503 -1.2183 -1.8616  1.8691
 9596SOL     OW33472   9.169   5.927   2.667  0.1440 -0.6745 -0.4326
 9596SOL    HW133473   9.162   5.833   2.687  0.3150 -0.6789 -0.3957
 9596SOL    HW233474   9.120   5.969   2.737 -1.6677 -0.8357 -1.5399
 9597SOL     OW33475   9.390   7.364   2.730 -0.3741  0.2963  0.1522
 9597SOL    HW133476   9.311   7.340   2.779 -0.5587  0.5873  0.0006
 9597SOL    HW233477   9.359   7.426   2.664 -0.5906 -1.8874 -1.9420
 9598SOL     OW33478   6.621   2.289   3.423 -0.1789 -0.4771  0.4868
 9598SOL    HW133479   6.564   2.364   3.405  2.0973  1.4603  0.8632
 9598SOL    HW233480   6.636   2.291   3.517 -0.3901 -1.6749  0.5647
 9599SOL     OW33481   9.567   9.674   3.249 -0.6661 -0.3377  0.1599
 9599SOL    HW133482   9.548   9.658   3.156 -0.5279 -0.0585  0.0834
 9599SOL    HW233483   9.528   9.599   3.294 -1.1067 -0.2588 -0.0847
 9600SOL     OW33484   4.769  11.763   3.876  0.1360 -0.0225  0.0599
 9600SOL    HW133485   4.822  11.842   3.869 -1.5663  1.0228 -1.9492
 9600SOL    HW233486   4.753  11.754   3.970 -0.4145  2.5740  0.2845
 9601SOL     OW33487   9.661   1.396   8.125 -0.3518  0.1412 -0.2833
 9601SOL    HW133488   9.572   1.404   8.089  0.2072  0.5810 -1.6148
 9601SOL    HW233489   9.695   1.315   8.089  0.4880  0.9632 -1.4068
 9602SOL     OW33490   6.010   0.194   7.060 -0.1365  0.4583 -0.2371
 9602SOL    HW133491   6.018   0.208   7.154  0.2627  1.5111 -0.4160
 9602SOL    HW233492   6.030   0.101   7.048  2.5645  0.8446  0.4449
 9603SOL     OW33493   5.326   5.154   8.409  0.3439 -0.0256 -0.3799
 9603SOL    HW133494   5.277   5.229   8.375  0.8079  0.2406 -0.4816
 9603SOL    HW233495   5.331   5.093   8.336 -1.6575 -1.0126  0.2509
 9604SOL     OW33496   2.753   0.378   2.789  0.1310  0.1999  0.1166
 9604SOL    HW133497   2.793   0.364   2.875  0.3148  4.5439  0.9689
 9604SOL    HW233498   2.659   0.388   2.808  0.2067  1.4237 -0.1215
 9605SOL     OW33499   7.949   1.758   3.063  0.4286  0.7128 -0.2874
 9605SOL    HW133500   7.920   1.726   3.148  0.4497  0.9345 -0.1957
 9605SOL    HW233501   8.043   1.769   3.073  0.4530  0.5934 -0.3879
 9606SOL     OW33502   6.527   9.050   0.431  0.0877 -0.2497  0.4608
 9606SOL    HW133503   6.608   9.020   0.390  0.9686  0.3531  1.7164
 9606SOL    HW233504   6.546   9.138   0.461 -1.2649  0.1641  0.1926
 9607SOL     OW33505   9.872   1.401   7.474 -0.3119  0.3227 -0.5540
 9607SOL    HW133506   9.910   1.482   7.441  0.5741 -0.0715 -0.5169
 9607SOL    HW233507   9.848   1.421   7.565  0.0517  0.4983 -0.4950
 9608SOL     OW33508   7.694   5.762   0.413  0.1753  0.1573  0.0993
 9608SOL    HW133509   7.711   5.848   0.452 -0.1442 -0.0775  0.7587
 9608SOL    HW233510   7.719   5.773   0.321  0.8983  0.7213  0.3508
 9609SOL     OW33511   1.421   2.367   1.641 -0.8049 -0.5416 -0.0452
 9609SOL    HW133512   1.454   2.452   1.672  0.8464 -1.1458 -0.0587
 9609SOL    HW233513   1.453   2.304   1.706  0.4128 -1.4900 -1.4958
 9610SOL     OW33514   1.671   6.586   9.902  0.5139 -0.4708  0.0546
 9610SOL    HW133515   1.667   6.653   9.833 -2.9169  0.3931  0.9397
 9610SOL    HW233516   1.685   6.636   9.983 -0.6829 -0.9333  0.5618
 9611SOL     OW33517  10.080   8.330   8.153  0.5635 -0.7409 -0.1250
 9611SOL    HW133518  10.146   8.362   8.091  2.0591 -0.1418  1.6825
 9611SOL    HW233519  10.072   8.399   8.218 -1.3014 -1.1579  0.1445
 9612SOL     OW33520   9.570   6.193   9.966 -0.7797 -0.0733  0.2915
 9612SOL    HW133521   9.664   6.175   9.963 -0.5000  1.1271  1.0174
 9612SOL    HW233522   9.549   6.192  10.060 -1.6604 -1.0977  0.0966
 9613SOL     OW33523   0.426   9.045   1.357 -0.1152 -0.0187  0.2771
 9613SOL    HW133524   0.416   8.990   1.436 -1.4095  0.3172  0.3756
 9613SOL    HW233525   0.507   9.094   1.372  1.1469 -1.9536  0.1440
 9614SOL     OW33526  10.311   9.206  11.169  0.2209 -0.1289 -0.6525
 9614SOL    HW133527  10.252   9.278  11.146 -1.5297 -2.0831 -2.8081
 9614SOL    HW233528  10.257   9.145  11.218  1.0547 -0.9779 -0.7638
 9615SOL     OW33529  11.719   0.173  10.298  0.3261  0.0155  0.5673
 9615SOL    HW133530  11.641   0.124  10.325  0.3676 -0.9150 -0.8703
 9615SOL    HW233531  11.787   0.148  10.360  0.0225 -0.8370  0.5695
 9616SOL     OW33532   1.127  10.483  10.981 -0.2160 -0.5178 -0.1867
 9616SOL    HW133533   1.191  10.447  11.042 -1.2328 -2.4079 -0.1383
 9616SOL    HW233534   1.151  10.575  10.971  1.7174 -0.8726  0.7848
 9617SOL     OW33535   6.328   0.141  10.611 -0.4191  0.3569 -0.3804
 9617SOL    HW133536   6.297   0.143  10.701  0.0381  0.6948 -0.2287
 9617SOL    HW233537   6.250   0.118  10.560 -0.1343 -2.4755  0.3201
 9618SOL     OW33538   5.928   7.142   1.329  0.0652 -0.2720  0.0847
 9618SOL    HW133539   5.979   7.214   1.291 -0.6407  0.4909  0.5469
 9618SOL    HW233540   5.851   7.135   1.273 -0.9830  0.8652  1.3144
 9619SOL     OW33541   9.395   5.984   7.570  0.4196  0.1912 -0.0006
 9619SOL    HW133542   9.376   6.015   7.658  2.6785  0.4385  0.4542
 9619SOL    HW233543   9.317   6.007   7.519 -0.3855  1.2321  1.6278
 9620SOL     OW33544   0.986  10.644   7.820  0.6580  0.0237 -0.7359
 9620SOL    HW133545   0.997  10.549   7.830  2.3028 -0.1808 -3.3895
 9620SOL    HW233546   0.938  10.654   7.738 -1.3347  1.5064  0.5333
 9621SOL     OW33547   6.091   2.571   0.295 -0.0704  0.0870  0.2548
 9621SOL    HW133548   6.079   2.476   0.296  1.1020 -0.0754  0.4704
 9621SOL    HW233549   6.172   2.586   0.345 -0.4379  1.2293  0.5413
 9622SOL     OW33550   7.020   6.082   2.848 -0.7777  0.4347  0.0774
 9622SOL    HW133551   6.947   6.039   2.804 -0.9976  0.7705  0.1115
 9622SOL    HW233552   7.020   6.172   2.814  0.0388  0.2572 -0.4345
 9623SOL     OW33553   1.764   4.330   3.542 -0.7915 -0.5884 -0.2058
 9623SOL    HW133554   1.701   4.347   3.612 -0.0285 -1.3934  0.6967
 9623SOL    HW233555   1.713   4.342   3.462 -1.5158  0.9929  0.4464
 9624SOL     OW33556   9.432   8.664   6.778 -0.2812 -0.2489  0.3849
 9624SOL    HW133557   9.482   8.584   6.791  1.5212  0.7167 -0.1403
 9624SOL    HW233558   9.383   8.649   6.697  1.8897 -0.0371 -1.0780
 9625SOL     OW33559   9.116   1.528  10.787 -0.4174  0.5151  0.0672
 9625SOL    HW133560   9.116   1.473  10.709 -0.5626 -0.6118  0.8262
 9625SOL    HW233561   9.088   1.469  10.857  0.6151  1.2410  1.1339
 9626SOL     OW33562   9.327   3.516   2.632 -0.1113 -0.2360 -0.1491
 9626SOL    HW133563   9.393   3.573   2.672  0.3068 -0.3356 -0.6734
 9626SOL    HW233564   9.244   3.548   2.666  0.0744  0.9680 -0.7727
 9627SOL     OW33565  10.226   7.475   4.659 -0.4768 -0.2255 -0.1043
 9627SOL    HW133566  10.278   7.541   4.613 -1.0751  1.2470  1.2117
 9627SOL    HW233567  10.186   7.423   4.590 -0.1701  0.9564 -1.2209
 9628SOL     OW33568   6.286   9.423   6.211 -0.0533  0.0608  0.0444
 9628SOL    HW133569   6.231   9.485   6.259 -0.5463 -0.4131  0.1119
 9628SOL    HW233570   6.375   9.441   6.240  0.0287  1.8110 -1.1146
 9629SOL     OW33571   8.510  11.919  11.983  0.5272 -0.1027  0.1982
 9629SOL    HW133572   8.578  11.943  12.046  1.0311  2.3974 -1.1572
 9629SOL    HW233573   8.555  11.865  11.918  1.0002  0.6824 -0.1414
 9630SOL     OW33574   6.582   1.429  11.281  0.0057 -0.0994  0.3605
 9630SOL    HW133575   6.555   1.348  11.322 -1.6267  0.6958  0.9365
 9630SOL    HW233576   6.678   1.426  11.282 -0.0153 -1.2026  1.9803
 9631SOL     OW33577   5.451  10.515   8.983 -0.2108  0.9391  0.3449
 9631SOL    HW133578   5.455  10.420   8.993  0.5784  0.9225 -0.0549
 9631SOL    HW233579   5.405  10.529   8.901 -0.5655  0.9097  0.5384
 9632SOL     OW33580   7.315   0.437   0.608  0.4718 -0.5082  0.2876
 9632SOL    HW133581   7.394   0.457   0.659  0.7330 -0.8648  0.0218
 9632SOL    HW233582   7.268   0.521   0.603  0.1445 -0.5822  1.6177
 9633SOL     OW33583   9.216   9.844   7.293  0.0122 -0.3938 -0.1518
 9633SOL    HW133584   9.213   9.752   7.267 -0.1342 -0.7865  1.1894
 9633SOL    HW233585   9.174   9.891   7.221  1.6907 -1.1636 -1.7046
 9634SOL     OW33586   9.238   0.629   8.323  0.6283  0.4875 -0.4290
 9634SOL    HW133587   9.279   0.652   8.406  0.2243  0.1687 -0.1444
 9634SOL    HW233588   9.195   0.709   8.295 -1.8686 -0.1945  1.1863
 9635SOL     OW33589  11.388   9.846   3.107 -0.1692 -0.1961  0.3684
 9635SOL    HW133590  11.363   9.758   3.080  0.3651 -0.1486 -0.3120
 9635SOL    HW233591  11.450   9.833   3.178  1.0396 -0.4336 -0.6877
 9636SOL     OW33592   2.912   0.093   0.539 -0.5391  0.1638  0.2902
 9636SOL    HW133593   2.857   0.015   0.545  0.9389 -0.8561  1.2215
 9636SOL    HW233594   2.933   0.115   0.629  0.6293  0.4747 -0.0374
 9637SOL     OW33595   6.714   7.535  10.641 -0.4448  0.5563 -0.4266
 9637SOL    HW133596   6.711   7.588  10.721  0.0380  1.0090 -0.7059
 9637SOL    HW233597   6.763   7.589  10.578 -1.7776  0.6944 -1.3928
 9638SOL     OW33598   1.192   0.770   2.746 -0.2708  0.3909  0.6005
 9638SOL    HW133599   1.102   0.775   2.713  0.1727 -1.9892 -1.1984
 9638SOL    HW233600   1.238   0.839   2.698 -0.7053  0.2314 -0.0737
 9639SOL     OW33601   5.497   8.687   3.181 -0.0151  0.0310 -0.2068
 9639SOL    HW133602   5.507   8.659   3.272  1.9455 -1.6141 -0.8591
 9639SOL    HW233603   5.422   8.746   3.183  1.0794  1.5509  2.7876
 9640SOL     OW33604   3.980   3.584   7.915 -0.3126  0.6051  0.1676
 9640SOL    HW133605   4.057   3.546   7.957  0.0455 -1.2538 -1.9853
 9640SOL    HW233606   3.990   3.678   7.927  1.4614  0.3110  1.3124
 9641SOL     OW33607   6.088   5.031   0.832  0.3008  0.3033  0.6810
 9641SOL    HW133608   6.072   4.977   0.910  1.4592  0.1746  0.8560
 9641SOL    HW233609   6.154   5.095   0.861  0.1388  0.7704  0.0258
 9642SOL     OW33610   4.502  11.381  10.726 -0.1613 -0.1706 -0.7881
 9642SOL    HW133611   4.510  11.288  10.704 -1.2582 -0.1986 -1.1395
 9642SOL    HW233612   4.491  11.382  10.821  0.7132 -0.3327 -0.6798
 9643SOL     OW33613   8.893   4.215   6.467 -0.0888  0.1318 -0.1978
 9643SOL    HW133614   8.810   4.246   6.431  0.4592  0.4757 -1.1924
 9643SOL    HW233615   8.913   4.135   6.418 -0.2092 -0.4017  0.5895
 9644SOL     OW33616  11.700   5.072   7.531  0.1697 -0.1683 -0.5535
 9644SOL    HW133617  11.772   5.102   7.585 -0.6633 -2.2236  1.9023
 9644SOL    HW233618  11.734   4.995   7.485  0.3224  0.4835 -1.5605
 9645SOL     OW33619  10.604  10.437   7.437 -0.4747 -0.0166  0.6451
 9645SOL    HW133620  10.608  10.485   7.520  0.1153 -2.3123  2.0043
 9645SOL    HW233621  10.511  10.441   7.412 -0.8874 -0.2793  2.0336
 9646SOL     OW33622   8.075   8.120   8.063  0.8007  0.1671 -0.6421
 9646SOL    HW133623   8.157   8.159   8.094  1.5734 -2.1237  0.4207
 9646SOL    HW233624   8.012   8.137   8.133  0.6916  0.8517 -0.8996
 9647SOL     OW33625   9.598  11.908   1.730 -0.2497 -0.1105  0.0501
 9647SOL    HW133626   9.660  11.963   1.779 -0.9891  0.9419 -0.1660
 9647SOL    HW233627   9.597  11.946   1.642  0.6308 -1.6311 -0.6594
 9648SOL     OW33628   4.024  10.033  11.177  1.1620 -0.5070 -0.1082
 9648SOL    HW133629   4.119  10.037  11.170  1.3543 -0.7929  1.7980
 9648SOL    HW233630   3.999  10.115  11.220  0.6510 -0.7873  0.1474
 9649SOL     OW33631   1.579   8.234   9.327  0.2548 -0.0539 -0.0542
 9649SOL    HW133632   1.499   8.182   9.334 -0.2614  0.8465  1.0652
 9649SOL    HW233633   1.555   8.307   9.270  0.3418  0.1213  0.1361
 9650SOL     OW33634   9.096   2.516   2.259 -0.2336 -0.0483  0.1894
 9650SOL    HW133635   9.098   2.548   2.169  1.4685 -1.6553 -0.4043
 9650SOL    HW233636   9.158   2.573   2.306 -1.2621  0.9110  0.4408
 9651SOL     OW33637  11.820  10.120   2.037  0.2377 -0.3812  0.2489
 9651SOL    HW133638  11.727  10.117   2.061 -0.4098  0.6857 -1.8852
 9651SOL    HW233639  11.833  10.043   1.981  0.5798 -0.3865  0.3326
 9652SOL     OW33640   1.400   8.266   3.134  0.1201  0.2368 -0.1592
 9652SOL    HW133641   1.356   8.343   3.169  0.3559  0.1161  0.4196
 9652SOL    HW233642   1.493   8.290   3.133  0.2816 -0.2931  0.7329
 9653SOL     OW33643  10.913   5.683   6.801  0.1576  0.1731 -0.3923
 9653SOL    HW133644  10.834   5.670   6.749  1.4015 -0.7073 -2.1763
 9653SOL    HW233645  10.951   5.764   6.768 -0.2418  0.8817  0.8287
 9654SOL     OW33646   5.354   6.990   5.219 -0.4377  0.0056 -0.0434
 9654SOL    HW133647   5.298   6.928   5.265  0.2257  0.0526  0.8519
 9654SOL    HW233648   5.294   7.057   5.186 -0.8546  0.4434  1.5208
 9655SOL     OW33649   6.678  10.245   9.526  0.0789 -0.4823 -0.8546
 9655SOL    HW133650   6.612  10.198   9.473  0.7957 -0.5579 -1.6999
 9655SOL    HW233651   6.713  10.311   9.467 -0.9140  1.1630  0.3235
 9656SOL     OW33652   5.782   1.065   5.612  0.1135 -0.0528  0.1915
 9656SOL    HW133653   5.699   1.063   5.660  0.3856 -0.5554  0.6587
 9656SOL    HW233654   5.799   1.158   5.598 -0.8391  0.0394 -0.4681
 9657SOL     OW33655  10.403  10.047   0.720  0.0976 -0.6932 -0.1260
 9657SOL    HW133656  10.478  10.107   0.723 -0.6192  0.2646 -0.9138
 9657SOL    HW233657  10.344  10.085   0.656 -0.3373 -2.3224 -0.7368
 9658SOL     OW33658   3.178   6.139   7.678  0.0677  0.5041 -0.3135
 9658SOL    HW133659   3.226   6.127   7.760  5.3679  0.5870 -2.9745
 9658SOL    HW233660   3.180   6.053   7.636 -1.4964  0.7434 -0.9490
 9659SOL     OW33661   9.218   9.486   3.977  0.2940 -0.2666  0.3878
 9659SOL    HW133662   9.160   9.454   3.908 -0.4044  3.2605 -0.8595
 9659SOL    HW233663   9.299   9.436   3.966 -0.1094 -0.4401 -2.4266
 9660SOL     OW33664   8.692   8.246   7.359 -0.0060 -0.2222  0.2820
 9660SOL    HW133665   8.651   8.288   7.435  1.3947  0.9919  0.4029
 9660SOL    HW233666   8.783   8.235   7.384 -0.0039 -2.0193 -0.3371
 9661SOL     OW33667   7.528   8.462   8.332  0.1720 -0.6072 -0.6290
 9661SOL    HW133668   7.565   8.472   8.244 -0.3324 -1.2007 -0.9133
 9661SOL    HW233669   7.449   8.515   8.331 -0.0187 -0.8900 -0.6472
 9662SOL     OW33670   5.723   9.784   4.340 -0.9619 -0.1823  0.2090
 9662SOL    HW133671   5.817   9.798   4.326 -1.0737 -1.0283 -1.6619
 9662SOL    HW233672   5.683   9.867   4.319 -0.6837  0.0556  0.5959
 9663SOL     OW33673   7.694   7.648   0.469  0.0480  0.2594 -0.2599
 9663SOL    HW133674   7.722   7.563   0.503 -0.3768 -0.1533 -0.9154
 9663SOL    HW233675   7.721   7.647   0.377 -1.8278 -0.0331 -0.8342
 9664SOL     OW33676   4.654  10.799   0.543  0.3665  0.1971 -0.1773
 9664SOL    HW133677   4.601  10.777   0.466 -1.5241  1.5423  0.6421
 9664SOL    HW233678   4.698  10.881   0.520 -1.1299  1.2529  0.4951
 9665SOL     OW33679   3.870   3.827   5.075 -0.3276 -0.4927 -0.2457
 9665SOL    HW133680   3.931   3.762   5.040  2.0623  0.7861  1.2280
 9665SOL    HW233681   3.892   3.907   5.028  1.4365  0.7308  2.4376
 9666SOL     OW33682   8.708   1.954   9.431  0.5560  0.2941  0.0722
 9666SOL    HW133683   8.742   1.867   9.411  0.4077  0.3776 -0.5848
 9666SOL    HW233684   8.651   1.975   9.357 -1.0406  0.1107  1.2003
 9667SOL     OW33685   1.317  10.842   7.495  0.2311 -0.4590  0.3277
 9667SOL    HW133686   1.299  10.812   7.406  1.1140 -2.3435  0.7424
 9667SOL    HW233687   1.331  10.937   7.485  0.8927 -0.7046 -1.6320
 9668SOL     OW33688  11.308   4.603   9.121 -0.3945  0.3306 -0.2497
 9668SOL    HW133689  11.318   4.553   9.202  1.6856 -0.7877 -1.1063
 9668SOL    HW233690  11.214   4.620   9.115 -0.7230 -0.3733  1.8950
 9669SOL     OW33691   7.597   7.739   8.621 -0.1489 -0.1219  0.3393
 9669SOL    HW133692   7.669   7.724   8.561 -0.0686  1.6357 -0.0811
 9669SOL    HW233693   7.639   7.753   8.706 -0.0777 -0.3239  0.3364
 9670SOL     OW33694   1.258   7.803   9.754 -0.1964 -0.0408  0.4815
 9670SOL    HW133695   1.176   7.852   9.768 -0.3596 -0.5313  1.3227
 9670SOL    HW233696   1.313   7.827   9.828  0.1856 -0.2015  0.2526
 9671SOL     OW33697   1.457   7.786   4.687 -0.4088 -0.4437  0.9167
 9671SOL    HW133698   1.513   7.751   4.617 -1.0304 -0.2700  0.3148
 9671SOL    HW233699   1.475   7.730   4.762 -0.3014 -1.1290  0.3927
 9672SOL     OW33700   1.690   3.995   9.455 -0.1973  0.3695  0.1930
 9672SOL    HW133701   1.727   3.935   9.519 -0.3473  0.8050  0.6965
 9672SOL    HW233702   1.634   3.940   9.400 -0.5341  0.0912  0.8054
 9673SOL     OW33703   8.125  11.754  11.938 -0.4114 -0.3643 -0.0275
 9673SOL    HW133704   8.160  11.844  11.938  1.8685 -1.1681 -1.0627
 9673SOL    HW233705   8.108  11.736  12.031 -1.0600  1.1535  0.1948
 9674SOL     OW33706   9.260   4.517   6.486  0.2010  0.0937 -0.7735
 9674SOL    HW133707   9.209   4.444   6.520 -0.6334  0.6512 -0.7783
 9674SOL    HW233708   9.287   4.490   6.398  0.9033 -0.6663 -0.3281
 9675SOL     OW33709   3.585  10.091   1.302  0.0228 -0.1288  0.2908
 9675SOL    HW133710   3.648  10.060   1.367  0.7734  1.2346  0.2579
 9675SOL    HW233711   3.630  10.083   1.218 -0.2941 -0.2623  0.1321
 9676SOL     OW33712   0.083   7.262   6.845 -0.2982  0.2582  0.2809
 9676SOL    HW133713   0.155   7.207   6.814 -0.8759 -0.7996  0.7594
 9676SOL    HW233714   0.029   7.203   6.898 -0.8785  1.3258  0.9028
 9677SOL     OW33715   9.970   8.377   0.267  0.3954 -0.6104 -0.3926
 9677SOL    HW133716   9.874   8.381   0.270  0.4553  1.0359  0.7640
 9677SOL    HW233717   9.995   8.442   0.201  0.7400 -0.8057 -0.4577
 9678SOL     OW33718   7.730   0.956  11.283  0.0315 -0.0464 -0.0572
 9678SOL    HW133719   7.695   0.868  11.297  0.4392 -0.1345  0.4103
 9678SOL    HW233720   7.793   0.968  11.353 -0.6051  0.9323  0.3540
 9679SOL     OW33721  11.501  10.247   5.783  0.0800 -0.0373 -0.3828
 9679SOL    HW133722  11.547  10.195   5.849 -1.0513 -0.2229  0.2903
 9679SOL    HW233723  11.565  10.260   5.713  1.1813 -0.1712  0.5794
 9680SOL     OW33724   1.281  11.448   2.860  0.1982  0.0218  0.1046
 9680SOL    HW133725   1.221  11.456   2.934  2.2424  0.4709  1.8148
 9680SOL    HW233726   1.315  11.359   2.867 -0.9826 -0.6066 -1.5015
 9681SOL     OW33727   1.275   3.912  10.207  0.1218  0.0079  0.0720
 9681SOL    HW133728   1.354   3.860  10.192  0.1204  0.5880 -2.2337
 9681SOL    HW233729   1.303   3.984  10.263  1.0928 -0.1306 -0.2267
 9682SOL     OW33730   3.213   6.620  11.300 -0.4416 -0.0400  1.2156
 9682SOL    HW133731   3.273   6.655  11.366  0.2914  0.3403  0.3768
 9682SOL    HW233732   3.269   6.567  11.243 -0.5853  1.4999 -0.4463
 9683SOL     OW33733   1.733   6.816   8.897  0.2671 -0.2006  0.1891
 9683SOL    HW133734   1.763   6.728   8.877 -0.7969 -0.2396 -1.3606
 9683SOL    HW233735   1.686   6.807   8.980 -1.8177 -1.5965 -1.0558
 9684SOL     OW33736   9.022   8.401   8.275  0.3318  0.1529 -0.3152
 9684SOL    HW133737   9.077   8.323   8.271  0.2215  0.1281 -2.0304
 9684SOL    HW233738   9.083   8.472   8.297  0.3682 -0.4146  1.6577
 9685SOL     OW33739   4.728  11.412  10.332  0.3230 -0.1877 -0.1678
 9685SOL    HW133740   4.678  11.466  10.393 -1.2905  1.4070 -2.7091
 9685SOL    HW233741   4.676  11.332  10.322 -1.2451  0.9787 -1.9224
 9686SOL     OW33742   0.451   7.435   8.025  0.1450  0.5307 -0.0553
 9686SOL    HW133743   0.511   7.477   8.088  0.1749  0.5351 -0.0867
 9686SOL    HW233744   0.371   7.487   8.030  0.6365  1.4255 -1.0863
 9687SOL     OW33745  11.768  11.966   2.495 -0.3883  0.0962 -0.5981
 9687SOL    HW133746  11.692  12.020   2.474 -0.1985  0.8474  0.5150
 9687SOL    HW233747  11.843  12.015   2.460 -0.2030  0.6840  0.5305
 9688SOL     OW33748   6.613   3.722   8.799 -0.0934 -0.1478 -0.2554
 9688SOL    HW133749   6.644   3.681   8.880  0.1109  0.2428 -0.1301
 9688SOL    HW233750   6.527   3.758   8.822  0.6448  1.3787  0.2771
 9689SOL     OW33751  11.232   9.141   8.240 -0.0608 -0.2475  0.1256
 9689SOL    HW133752  11.279   9.187   8.310 -0.7710 -0.3384  0.6805
 9689SOL    HW233753  11.159   9.200   8.218 -1.2706 -1.2894  1.1875
 9690SOL     OW33754   9.604   1.186   5.598 -0.1954  0.1079  0.0191
 9690SOL    HW133755   9.648   1.191   5.513 -0.2343 -1.5615 -0.1328
 9690SOL    HW233756   9.518   1.150   5.578 -0.5133  0.4881  0.6824
 9691SOL     OW33757   9.997   1.189   2.687 -0.0662 -0.7830  0.2018
 9691SOL    HW133758  10.048   1.149   2.616 -0.4312 -1.5510  0.3641
 9691SOL    HW233759   9.927   1.237   2.642  0.7386  0.2164 -0.0186
 9692SOL     OW33760  11.777  11.358   4.784 -0.3251 -0.4959 -0.2077
 9692SOL    HW133761  11.688  11.326   4.769 -0.0003 -0.3829 -2.8175
 9692SOL    HW233762  11.769  11.454   4.778 -0.2114 -0.4047  0.8837
 9693SOL     OW33763   7.109   9.226   9.356 -0.5052  0.2530  0.1576
 9693SOL    HW133764   7.159   9.203   9.277 -2.4214 -0.6001 -0.8838
 9693SOL    HW233765   7.115   9.149   9.412  0.4073  0.6488  0.6088
 9694SOL     OW33766   1.803   6.333   8.505 -0.0636  0.2603 -0.1135
 9694SOL    HW133767   1.746   6.316   8.429  0.6076  0.1291 -0.5947
 9694SOL    HW233768   1.860   6.404   8.477 -0.7757  1.2245  0.7986
 9695SOL     OW33769   8.926   1.236  11.950 -0.1450 -0.2421 -0.2687
 9695SOL    HW133770   9.015   1.272  11.952 -0.1818  0.1377 -2.4750
 9695SOL    HW233771   8.934   1.157  11.896 -1.2170  0.0599 -0.8945
 9696SOL     OW33772   5.441  10.088  11.343 -0.9665  0.1908 -0.1373
 9696SOL    HW133773   5.397  10.025  11.286 -1.2769  0.4383 -0.1742
 9696SOL    HW233774   5.395  10.170  11.329 -0.5748  0.4240 -0.0735
 9697SOL     OW33775   1.609   8.552   2.610  0.2431  0.2566 -0.1767
 9697SOL    HW133776   1.600   8.580   2.519 -1.1280  2.3315  0.5044
 9697SOL    HW233777   1.520   8.550   2.643  0.7599  0.1047  1.2723
 9698SOL     OW33778   4.469   9.624   2.349 -0.0694 -0.1360  0.0085
 9698SOL    HW133779   4.544   9.672   2.382 -1.0785  1.9007 -0.5162
 9698SOL    HW233780   4.394   9.679   2.369 -1.6081 -2.5119  1.3279
 9699SOL     OW33781   2.905   6.750   1.043  0.0031  0.0436  0.1154
 9699SOL    HW133782   2.955   6.672   1.068 -1.2173 -0.8608 -0.2278
 9699SOL    HW233783   2.832   6.717   0.992 -0.3180  1.4589 -0.3815
 9700SOL     OW33784   2.508  10.060  10.636  0.0646  0.2944  0.1712
 9700SOL    HW133785   2.506  10.073  10.731 -0.5884  1.3348  0.0321
 9700SOL    HW233786   2.492   9.966  10.624 -3.7737  0.6627  0.9993
 9701SOL     OW33787   8.680   7.725   8.579 -0.2647  0.6863 -0.1240
 9701SOL    HW133788   8.640   7.810   8.597  0.1390  0.7625  0.4546
 9701SOL    HW233789   8.758   7.723   8.635 -0.3214 -0.1000 -0.0586
 9702SOL     OW33790   7.644   4.061   4.849 -0.4386 -0.2614 -0.6521
 9702SOL    HW133791   7.683   4.114   4.780 -0.6325 -2.4958 -2.6000
 9702SOL    HW233792   7.707   4.063   4.921  1.8909 -1.3443 -2.5611
 9703SOL     OW33793   8.948   7.931   3.880  0.6200  0.0073  0.7893
 9703SOL    HW133794   8.943   7.894   3.968  1.0360  1.1757  1.3123
 9703SOL    HW233795   9.004   7.870   3.832 -0.0263 -0.9159  1.1703
 9704SOL     OW33796  11.812   4.355  10.060  0.1412  0.0627 -0.1132
 9704SOL    HW133797  11.843   4.273  10.023  0.4004 -0.1700  0.5951
 9704SOL    HW233798  11.782   4.331  10.148 -0.2631  0.6342 -0.0894
 9705SOL     OW33799   5.498   9.696   2.194  0.0025 -0.4565 -0.3680
 9705SOL    HW133800   5.445   9.671   2.118  0.0133  1.3411 -1.0185
 9705SOL    HW233801   5.586   9.709   2.158 -0.1930  1.3529 -0.2924
 9706SOL     OW33802   9.487   5.248   0.014  0.3399 -0.0873 -0.3460
 9706SOL    HW133803   9.437   5.280   0.089 -0.9002 -1.7028 -0.4393
 9706SOL    HW233804   9.421   5.227  -0.052  1.3897  0.8953 -1.7672
 9707SOL     OW33805   5.323  10.520   8.731  0.6451 -0.2433  0.1589
 9707SOL    HW133806   5.236  10.492   8.760  1.5911 -0.5346  2.9964
 9707SOL    HW233807   5.360  10.443   8.688 -0.6276  0.0362 -1.5425
 9708SOL     OW33808  10.096  11.600   4.002  0.1679  0.4022 -0.7982
 9708SOL    HW133809  10.032  11.618   4.072  0.1124 -1.8222 -0.2220
 9708SOL    HW233810  10.171  11.655   4.025  0.3936 -0.7169  1.3996
 9709SOL     OW33811  10.685   6.595   3.783 -0.4819  0.0911 -0.4893
 9709SOL    HW133812  10.763   6.589   3.728  0.5306 -0.9067  0.9985
 9709SOL    HW233813  10.630   6.660   3.738  0.1306 -0.9048 -2.8221
 9710SOL     OW33814   8.147   3.070   7.307 -0.0812  0.0814 -0.0325
 9710SOL    HW133815   8.188   3.154   7.288  0.2728  0.0354  0.4820
 9710SOL    HW233816   8.169   3.053   7.399  1.9817 -1.7166 -0.7669
 9711SOL     OW33817   4.051   8.370   2.587 -0.2885 -0.3675  0.4288
 9711SOL    HW133818   4.039   8.460   2.617 -1.2160 -0.0163 -0.8909
 9711SOL    HW233819   3.978   8.356   2.526  0.8422 -1.4223 -0.7206
 9712SOL     OW33820   1.958   3.770   8.609  0.3995  0.4978 -0.0437
 9712SOL    HW133821   2.048   3.774   8.576  0.3612 -0.4639 -0.3129
 9712SOL    HW233822   1.965   3.713   8.686 -0.1604 -0.5839 -0.7693
 9713SOL     OW33823   2.122   8.066   3.488 -0.3900 -0.2722  0.1570
 9713SOL    HW133824   2.084   7.986   3.451  0.7855 -1.1322  0.7245
 9713SOL    HW233825   2.175   8.102   3.418  0.1866 -0.7626  0.3353
 9714SOL     OW33826   4.390   7.470  11.613 -0.7066 -0.2627 -0.0054
 9714SOL    HW133827   4.362   7.436  11.698  1.9509 -0.1201  1.0254
 9714SOL    HW233828   4.330   7.543  11.596 -1.3201 -0.3000  1.7350
 9715SOL     OW33829   2.649   4.340   8.974 -0.0688 -0.1607 -0.1698
 9715SOL    HW133830   2.597   4.368   8.898 -0.6213 -0.0707  0.2380
 9715SOL    HW233831   2.643   4.245   8.973 -1.7566 -0.0959  0.9129
 9716SOL     OW33832   4.793   2.119   6.218  0.4395  0.8547 -0.0821
 9716SOL    HW133833   4.746   2.167   6.149 -0.4755  0.6166  0.3710
 9716SOL    HW233834   4.792   2.178   6.293  1.4218  1.1041 -0.2469
 9717SOL     OW33835   7.548   1.266   3.921  0.0577  0.3716  0.4832
 9717SOL    HW133836   7.580   1.264   4.011  1.3887  0.5941  0.0475
 9717SOL    HW233837   7.457   1.238   3.927  0.3457 -0.3724  1.8031
 9718SOL     OW33838   4.346   1.204   3.851 -0.3303  0.2588  0.0916
 9718SOL    HW133839   4.251   1.211   3.843 -0.4481 -0.9639  0.2509
 9718SOL    HW233840   4.377   1.190   3.762 -0.0214  3.0909 -0.3408
 9719SOL     OW33841   4.668   1.274   5.470  0.1099 -0.2467  0.2064
 9719SOL    HW133842   4.697   1.322   5.548  1.8532 -1.5265  0.3865
 9719SOL    HW233843   4.613   1.337   5.423 -1.8975  0.2372  2.9403
 9720SOL     OW33844   4.476   3.771  11.185 -0.1316  0.0554 -0.0892
 9720SOL    HW133845   4.384   3.796  11.173 -0.9768 -2.0502  1.3964
 9720SOL    HW233846   4.491   3.778  11.279  1.3496  0.6303 -0.3323
 9721SOL     OW33847  10.365   6.225  11.550  0.2975 -0.3506 -0.5977
 9721SOL    HW133848  10.372   6.167  11.474  0.7883 -0.9479 -0.0997
 9721SOL    HW233849  10.417   6.302  11.525 -1.1209  0.3346 -1.6420
 9722SOL     OW33850   7.488   7.469   0.748 -0.0702 -0.4073 -0.2384
 9722SOL    HW133851   7.584   7.469   0.752 -0.0111 -3.0517  0.1861
 9722SOL    HW233852   7.460   7.441   0.836 -1.1305 -1.2974 -0.8278
 9723SOL     OW33853   4.531   6.645   7.257  0.4304 -0.3814  0.1629
 9723SOL    HW133854   4.528   6.581   7.186 -0.6094  1.2686 -1.3674
 9723SOL    HW233855   4.440   6.653   7.286  0.2688  1.4416 -0.7053
 9724SOL     OW33856   7.759   6.885   7.684 -0.2765 -0.1439 -0.0720
 9724SOL    HW133857   7.723   6.929   7.761 -1.4510 -1.0303 -0.0820
 9724SOL    HW233858   7.829   6.829   7.719 -0.0233  0.3186  0.1769
 9725SOL     OW33859   2.658  10.073  10.076  0.2726  0.0425 -0.1078
 9725SOL    HW133860   2.711  10.154  10.076  0.3667 -0.0139 -0.5532
 9725SOL    HW233861   2.713  10.009  10.120 -0.4837  0.6365  1.8010
 9726SOL     OW33862   9.238   4.505   1.634 -0.6355  0.7430 -0.0206
 9726SOL    HW133863   9.302   4.570   1.605 -0.3194  0.8072  0.7973
 9726SOL    HW233864   9.225   4.448   1.558  0.8451  0.3742 -0.0154
 9727SOL     OW33865   6.771   2.550   1.398  0.4686  0.4198 -0.3684
 9727SOL    HW133866   6.724   2.524   1.318 -0.4558  0.2107  0.2223
 9727SOL    HW233867   6.841   2.485   1.407  0.2570  0.1370 -0.7346
 9728SOL     OW33868   4.997   4.864   9.250  0.1426  0.2190 -0.2126
 9728SOL    HW133869   4.959   4.931   9.193  0.8622 -1.4757 -2.8375
 9728SOL    HW233870   4.931   4.795   9.254  0.3551  0.0491  0.5390
 9729SOL     OW33871   0.993   4.760   3.099 -0.0632 -1.1268 -0.1558
 9729SOL    HW133872   0.956   4.830   3.152 -0.1803 -1.5586  0.3522
 9729SOL    HW233873   1.078   4.742   3.139  0.5954 -0.2987 -1.1739
 9730SOL     OW33874  11.945   9.142  10.665 -0.3469  0.0935 -0.0085
 9730SOL    HW133875  11.960   9.085  10.740  2.6949  2.5011  1.4660
 9730SOL    HW233876  12.003   9.108  10.597 -1.1919 -0.5750 -0.4191
 9731SOL     OW33877   3.995  10.121   3.552 -0.3550  0.2128 -0.0374
 9731SOL    HW133878   4.002  10.126   3.457  0.3386  0.3090  0.0190
 9731SOL    HW233879   4.068  10.173   3.585 -0.4002 -0.0818  0.5479
 9732SOL     OW33880   5.848   0.093   4.159 -0.2970 -0.4299  0.4401
 9732SOL    HW133881   5.809   0.179   4.145  0.7412 -0.0528 -0.2524
 9732SOL    HW233882   5.919   0.108   4.221  3.6944  0.4472 -3.7625
 9733SOL     OW33883   2.367   9.943   6.606  0.1547  0.4257 -0.1741
 9733SOL    HW133884   2.411  10.026   6.624 -1.7801  0.8126  3.9267
 9733SOL    HW233885   2.415   9.878   6.657 -0.3668 -0.3313 -0.6206
 9734SOL     OW33886   4.953   2.620   5.437 -0.1895 -0.3341 -0.3891
 9734SOL    HW133887   4.960   2.640   5.344  1.3204  0.4495 -0.1412
 9734SOL    HW233888   4.904   2.694   5.474  2.2425  1.2086 -0.0520
 9735SOL     OW33889   5.847   8.516  11.068 -0.0874 -0.0078  1.0981
 9735SOL    HW133890   5.785   8.550  11.132 -1.9991 -0.9688 -0.1727
 9735SOL    HW233891   5.908   8.463  11.120 -1.8321 -1.0986  2.1176
 9736SOL     OW33892   5.583   3.695  10.252 -0.1655 -0.0480 -0.0298
 9736SOL    HW133893   5.650   3.702  10.320 -1.6118 -0.6422  1.5527
 9736SOL    HW233894   5.584   3.603  10.226  0.0786  0.0824 -0.4789
 9737SOL     OW33895   0.700   5.591   4.882  0.5998 -0.3143 -0.1484
 9737SOL    HW133896   0.713   5.682   4.907 -0.1651  0.4080 -2.1948
 9737SOL    HW233897   0.612   5.570   4.914  0.8292 -0.4116  0.4444
 9738SOL     OW33898  11.158   9.173   3.220  0.0666 -0.1265 -0.1509
 9738SOL    HW133899  11.156   9.268   3.232 -0.6568 -0.2756  0.9991
 9738SOL    HW233900  11.224   9.142   3.281 -0.6837 -0.4871  0.4975
 9739SOL     OW33901   7.984  10.530   7.290  0.0206 -0.5057  0.1498
 9739SOL    HW133902   8.055  10.474   7.323  1.9574  1.6115 -0.1672
 9739SOL    HW233903   8.025  10.583   7.222 -1.9354  0.7074 -0.1609
 9740SOL     OW33904   3.170   0.655  10.075 -0.2165  0.3730  0.4792
 9740SOL    HW133905   3.112   0.683  10.003 -0.3577  0.0231  0.4575
 9740SOL    HW233906   3.252   0.632  10.031  1.0536  3.7627  0.7509
 9741SOL     OW33907  11.721   9.434   1.492  0.2068 -0.1233  0.8575
 9741SOL    HW133908  11.697   9.404   1.579 -0.7657 -0.0941  0.6137
 9741SOL    HW233909  11.640   9.470   1.456  0.0355 -2.1084 -0.8968
 9742SOL     OW33910  11.759   4.814  10.040 -0.5337  0.1119 -0.3050
 9742SOL    HW133911  11.697   4.874  10.080  0.1076  0.1092  0.7380
 9742SOL    HW233912  11.756   4.834   9.946 -1.0511  1.0758 -0.0869
 9743SOL     OW33913   5.774   8.663   5.211 -0.7504  0.1774  0.2683
 9743SOL    HW133914   5.748   8.661   5.119 -0.1888  2.4665  0.0001
 9743SOL    HW233915   5.842   8.730   5.215 -1.4739  0.8686  2.5220
 9744SOL     OW33916   7.343   5.561  11.361  0.0971  0.1985  0.0814
 9744SOL    HW133917   7.277   5.498  11.336 -0.7157  0.2258  2.0042
 9744SOL    HW233918   7.294   5.641  11.382  0.9237  0.8323 -0.3128
 9745SOL     OW33919   5.484   5.499   6.897  0.0192  0.3111 -0.0238
 9745SOL    HW133920   5.500   5.407   6.875 -1.2571 -0.0403  0.3873
 9745SOL    HW233921   5.570   5.535   6.916  0.5659 -0.7425 -0.4217
 9746SOL     OW33922   3.833   8.199   2.471  0.1310 -0.3026 -0.3233
 9746SOL    HW133923   3.794   8.243   2.547 -0.4065 -0.3685 -0.5526
 9746SOL    HW233924   3.772   8.217   2.399  1.0470  0.4539 -0.9419
 9747SOL     OW33925   0.121   0.353   0.651 -0.4057  0.4123  0.2639
 9747SOL    HW133926   0.101   0.263   0.676  0.2990  0.3024  0.4377
 9747SOL    HW233927   0.184   0.344   0.579 -1.2968  0.7480 -0.5728
 9748SOL     OW33928   8.025   6.011   7.802  0.3563 -0.6783  0.2276
 9748SOL    HW133929   8.061   6.086   7.755  1.9347 -1.0458  0.8039
 9748SOL    HW233930   7.943   6.044   7.839 -0.7202 -0.2328 -2.3190
 9749SOL     OW33931   5.287   9.421   4.755  0.3576 -0.1172 -0.3166
 9749SOL    HW133932   5.368   9.373   4.772  0.7728  1.0063  1.1634
 9749SOL    HW233933   5.299   9.458   4.668  1.1786 -0.4792 -0.3684
 9750SOL     OW33934   7.073   6.350  11.936 -0.4371  0.0948 -0.3234
 9750SOL    HW133935   7.075   6.417  12.004 -0.3554 -1.6570  1.4708
 9750SOL    HW233936   6.996   6.297  11.957 -0.2213 -0.6891 -1.4076
 9751SOL     OW33937   0.494   3.226   3.546  0.0338 -0.2342  0.3198
 9751SOL    HW133938   0.503   3.130   3.547  2.6048 -0.0569  1.4147
 9751SOL    HW233939   0.519   3.251   3.457 -1.7251 -0.5960 -0.3223
 9752SOL     OW33940   2.126   0.999  10.369  0.0117  0.3749 -0.2679
 9752SOL    HW133941   2.081   0.919  10.343  1.7672 -1.4327  1.8967
 9752SOL    HW233942   2.133   0.993  10.464  1.8256  2.1903 -0.2212
 9753SOL     OW33943  10.550   1.337   7.483  0.2855  0.0224 -0.0353
 9753SOL    HW133944  10.535   1.243   7.494 -0.3252 -0.2552 -2.5937
 9753SOL    HW233945  10.644   1.344   7.467  0.2938 -0.1951 -0.0907
 9754SOL     OW33946   8.922   1.764   2.457  0.1925 -0.1235  0.4510
 9754SOL    HW133947   8.961   1.678   2.469 -2.9954 -1.8251 -0.1795
 9754SOL    HW233948   8.868   1.777   2.536 -1.5161 -0.0504 -0.6740
 9755SOL     OW33949   6.597   6.219   9.841  0.3869 -0.1673 -0.2413
 9755SOL    HW133950   6.642   6.197   9.923 -2.5055  0.5617  1.7228
 9755SOL    HW233951   6.587   6.314   9.843  0.9375 -0.0412 -1.8886
 9756SOL     OW33952   3.754  11.704   9.875 -0.0622  0.1703  0.3784
 9756SOL    HW133953   3.761  11.613   9.906  1.2614  0.0784 -0.1300
 9756SOL    HW233954   3.725  11.696   9.784  1.6119  0.1524 -0.1843
 9757SOL     OW33955  10.301   2.325   8.323  0.1333  0.2936  0.0418
 9757SOL    HW133956  10.208   2.330   8.347  0.1865  0.7574  0.1426
 9757SOL    HW233957  10.328   2.237   8.351  0.4987  1.1952  2.7811
 9758SOL     OW33958   1.456   5.376   5.416  0.3609 -0.5672 -0.1700
 9758SOL    HW133959   1.414   5.408   5.496 -0.8770 -1.5193 -0.4005
 9758SOL    HW233960   1.536   5.333   5.446  0.8824  0.7042  0.3491
 9759SOL     OW33961  10.142   9.719   8.591  0.2723 -0.4496 -0.1708
 9759SOL    HW133962  10.141   9.639   8.538 -0.6195 -0.5986  0.0568
 9759SOL    HW233963  10.123   9.690   8.680 -1.5259  0.1408 -0.3067
 9760SOL     OW33964   2.245   5.814  10.946 -0.0555  0.3084 -0.1174
 9760SOL    HW133965   2.227   5.843  11.035  1.7944  0.0061  0.3996
 9760SOL    HW233966   2.241   5.719  10.950 -3.0610  0.3066 -1.1173
 9761SOL     OW33967   2.095  11.996   3.193 -0.0413  0.2227 -0.3825
 9761SOL    HW133968   2.039  12.063   3.231 -1.0164  0.3187 -1.9098
 9761SOL    HW233969   2.035  11.926   3.166  0.6361 -0.0346 -1.3199
 9762SOL     OW33970   7.446   9.045  11.262 -0.2167  0.5466  0.9307
 9762SOL    HW133971   7.370   9.102  11.271 -0.2948  0.6680 -0.3514
 9762SOL    HW233972   7.423   8.966  11.311 -1.4044  0.3496  0.0828
 9763SOL     OW33973   8.528   4.863   7.222 -0.3002 -0.7440  0.2025
 9763SOL    HW133974   8.502   4.900   7.307 -0.4440 -1.7806  0.6265
 9763SOL    HW233975   8.620   4.889   7.212 -0.3886 -0.2954  0.4906
 9764SOL     OW33976   1.572   9.241   1.718  0.3776  0.3329  0.2523
 9764SOL    HW133977   1.630   9.168   1.741 -0.9167 -0.9269 -0.3080
 9764SOL    HW233978   1.490   9.223   1.764 -0.2704  0.9291 -0.6181
 9765SOL     OW33979   5.968   3.235   4.950 -0.0421  0.1643 -0.3299
 9765SOL    HW133980   6.005   3.322   4.966  0.1902 -0.0492  0.3145
 9765SOL    HW233981   6.011   3.206   4.870  2.2558 -0.6279  1.0773
 9766SOL     OW33982   5.572   8.353   1.714 -0.2439  0.2493 -0.0735
 9766SOL    HW133983   5.543   8.262   1.721  0.1172  0.0765 -0.7248
 9766SOL    HW233984   5.510   8.394   1.653  0.1866  0.1778 -0.5634
 9767SOL     OW33985   9.902  11.985   7.237 -0.0056 -0.4442 -0.1624
 9767SOL    HW133986   9.975  12.039   7.267 -0.4473  0.5187 -0.7832
 9767SOL    HW233987   9.940  11.930   7.168  0.0209  0.4385 -0.8623
 9768SOL     OW33988   3.390   4.401   5.878  0.3841  0.0249  0.4174
 9768SOL    HW133989   3.372   4.428   5.967 -1.0114 -0.5844  0.3566
 9768SOL    HW233990   3.303   4.393   5.838  0.9950  2.8635 -1.8159
 9769SOL     OW33991   2.786   2.161  11.349  0.2161 -0.0167  0.1861
 9769SOL    HW133992   2.697   2.168  11.316  0.4225  0.6779 -0.2447
 9769SOL    HW233993   2.802   2.067  11.354 -0.1293 -0.1531 -0.8868
 9770SOL     OW33994   1.928   9.532   6.648  0.0802 -0.2117 -0.0717
 9770SOL    HW133995   1.866   9.461   6.665 -1.0912  0.8449  0.1813
 9770SOL    HW233996   1.956   9.561   6.735  1.4931 -1.1376 -0.1929
 9771SOL     OW33997   9.112   7.989   0.479  0.3136  0.2650  0.3145
 9771SOL    HW133998   9.195   7.975   0.524  2.2217  1.2958 -2.6143
 9771SOL    HW233999   9.096   7.907   0.432 -0.6257 -0.0869  1.1920
 9772SOL     OW34000   8.536   4.953   3.524 -0.5937  0.4235  0.0379
 9772SOL    HW134001   8.543   4.984   3.614  1.2003 -2.1533  0.9057
 9772SOL    HW234002   8.458   4.897   3.525  0.6176 -1.3696  0.6917
 9773SOL     OW34003   5.279   4.461   0.503 -1.1216 -0.0906 -0.0225
 9773SOL    HW134004   5.302   4.413   0.582 -1.1772  0.4286  0.3139
 9773SOL    HW234005   5.206   4.517   0.529 -1.6113 -0.4330 -0.6250
 9774SOL     OW34006   6.286   3.207  10.617 -0.5756 -0.0960  0.1112
 9774SOL    HW134007   6.214   3.194  10.554 -1.6054  0.1865  1.1967
 9774SOL    HW234008   6.273   3.138  10.682  0.5758 -0.4814 -0.0535
 9775SOL     OW34009   3.928  11.475  11.366 -0.3576  0.1955  0.2028
 9775SOL    HW134010   3.879  11.397  11.392 -1.7869 -0.1359 -2.9891
 9775SOL    HW234011   4.016  11.443  11.345 -0.8072 -0.5292 -0.6565
 9776SOL     OW34012   3.145   4.394   1.950  0.2736 -0.7467  0.0531
 9776SOL    HW134013   3.061   4.382   1.907 -0.9164  0.1068  1.9699
 9776SOL    HW234014   3.192   4.457   1.896 -0.9057 -0.1769 -0.3357
 9777SOL     OW34015   7.222  10.210   3.544  0.4177  0.2756  0.5286
 9777SOL    HW134016   7.160  10.139   3.522 -2.5655  2.3857  1.4558
 9777SOL    HW234017   7.285  10.169   3.603 -0.2365 -1.9558 -0.1896
 9778SOL     OW34018   7.081   1.806   8.255  0.3103 -0.0718 -0.2034
 9778SOL    HW134019   7.045   1.729   8.211  0.7486  0.4079 -1.4350
 9778SOL    HW234020   7.014   1.830   8.319  0.1821 -1.4961  0.2506
 9779SOL     OW34021   3.133   9.603   7.442 -0.7577  0.1703  0.0908
 9779SOL    HW134022   3.108   9.694   7.427 -3.0161 -0.1779  1.2840
 9779SOL    HW234023   3.110   9.587   7.534 -0.0530 -1.4975  0.0060
 9780SOL     OW34024  10.561   3.539   5.776  0.6880 -0.3905 -1.0062
 9780SOL    HW134025  10.588   3.583   5.695  1.3911  0.3067 -0.4170
 9780SOL    HW234026  10.483   3.587   5.804  0.0595 -1.0534 -1.6092
 9781SOL     OW34027   1.138   8.945  11.339  0.0828 -1.1179  0.2375
 9781SOL    HW134028   1.166   8.949  11.247 -0.4974  0.3195  0.0908
 9781SOL    HW234029   1.078   8.871  11.342  0.9882 -1.9068 -0.2683
 9782SOL     OW34030   0.137   6.222   2.612 -0.3406  0.0715  0.3738
 9782SOL    HW134031   0.187   6.284   2.559  0.8475 -1.9013 -0.9188
 9782SOL    HW234032   0.189   6.213   2.692  0.9046 -1.1722 -0.5260
 9783SOL     OW34033   5.558   1.189  10.525  0.7253 -0.3404 -0.5212
 9783SOL    HW134034   5.496   1.234  10.583  1.6451 -0.4190  0.5609
 9783SOL    HW234035   5.508   1.114  10.491 -0.1389  0.2667 -0.6258
 9784SOL     OW34036   6.966   9.794   0.836  0.1926  0.5110  0.2924
 9784SOL    HW134037   7.049   9.818   0.876  0.3286  0.3976  0.0787
 9784SOL    HW234038   6.989   9.734   0.765 -0.0489  0.6779  0.0696
 9785SOL     OW34039   6.442   9.376   1.016  0.7790  0.2423  0.7277
 9785SOL    HW134040   6.520   9.422   1.046  0.2152  0.5729  1.7355
 9785SOL    HW234041   6.371   9.439   1.026  0.2053 -0.4190  0.9054
 9786SOL     OW34042   6.574   7.129  11.806 -0.1119  0.5413  0.2941
 9786SOL    HW134043   6.566   7.047  11.758  0.2329  0.1865  0.8307
 9786SOL    HW234044   6.664   7.158  11.789  0.8213 -0.7746  2.5473
 9787SOL     OW34045   3.164   1.694   1.332  0.0699 -0.2191 -0.0700
 9787SOL    HW134046   3.228   1.693   1.261  0.7030 -0.4207  0.4947
 9787SOL    HW234047   3.197   1.631   1.396  0.8445  1.7064  1.5488
 9788SOL     OW34048   7.405  10.981   5.964 -0.3536  0.2111  0.1045
 9788SOL    HW134049   7.493  10.966   6.001 -0.0103 -0.3018 -0.8900
 9788SOL    HW234050   7.366  10.894   5.960 -0.9696  0.4574  0.6648
 9789SOL     OW34051  11.840   4.498   4.465 -0.3763  0.2442 -0.2640
 9789SOL    HW134052  11.863   4.408   4.489 -0.9578 -0.1066 -0.9904
 9789SOL    HW234053  11.802   4.491   4.377 -1.6387  1.0204  0.1866
 9790SOL     OW34054  10.526   7.486   2.235 -0.1252  0.1063  0.4821
 9790SOL    HW134055  10.540   7.415   2.173  0.2993 -1.0191  1.8201
 9790SOL    HW234056  10.545   7.566   2.186  1.4475 -0.8216 -0.4741
 9791SOL     OW34057   6.266   9.207   7.069 -0.1122 -0.2605 -0.4311
 9791SOL    HW134058   6.282   9.217   6.975  0.9851 -1.3243 -0.3666
 9791SOL    HW234059   6.352   9.212   7.109 -0.5624  0.0462  0.5240
 9792SOL     OW34060  10.936   5.240   3.768 -0.2469 -0.1600 -0.3107
 9792SOL    HW134061  10.953   5.213   3.677 -0.9838 -1.8463  0.0051
 9792SOL    HW234062  10.998   5.311   3.784  0.3030 -0.2220 -1.9419
 9793SOL     OW34063   2.504   9.411   4.008 -0.0366  0.0571  0.4299
 9793SOL    HW134064   2.439   9.480   4.020  0.7516  0.8712  0.1339
 9793SOL    HW234065   2.524   9.380   4.096 -0.7062 -0.0980  0.5331
 9794SOL     OW34066   5.993   1.008   5.864 -0.0602 -0.0739  0.0937
 9794SOL    HW134067   5.965   0.939   5.923  0.0537 -0.3637 -0.1836
 9794SOL    HW234068   5.925   1.012   5.796 -0.1342  0.1771  0.1805
 9795SOL     OW34069   9.869   2.947   5.946  0.2998  0.5923  0.3043
 9795SOL    HW134070   9.952   2.964   5.991  0.0529  1.1546  0.5575
 9795SOL    HW234071   9.877   2.858   5.913  1.3103  0.8978 -0.3188
 9796SOL     OW34072  11.998   0.117   7.719  0.0769  0.3905 -0.3537
 9796SOL    HW134073  12.061   0.150   7.783  1.5631  1.1047 -2.0851
 9796SOL    HW234074  12.051   0.098   7.642 -1.6490 -0.4344 -1.3858
 9797SOL     OW34075   5.311  10.230   5.901 -1.0648 -0.3214  0.0807
 9797SOL    HW134076   5.374  10.198   5.837 -0.7125 -0.2515  0.3903
 9797SOL    HW234077   5.364  10.269   5.971 -1.4928  1.4771 -0.5486
 9798SOL     OW34078   0.483  11.324   3.413 -0.3044  0.9864 -0.0811
 9798SOL    HW134079   0.445  11.287   3.493 -0.9395 -0.4870 -1.0250
 9798SOL    HW234080   0.408  11.339   3.356  0.1645  1.8220 -0.4980
 9799SOL     OW34081   9.944  10.503   7.042  0.1877  0.6141  0.2752
 9799SOL    HW134082   9.873  10.552   7.085  0.6502  1.6176 -0.0742
 9799SOL    HW234083   9.899  10.438   6.988 -0.4336  0.3818  1.0537
 9800SOL     OW34084   0.262   2.305  11.202 -0.1252  0.2762  0.2497
 9800SOL    HW134085   0.341   2.292  11.255  0.1116  0.9718  0.0719
 9800SOL    HW234086   0.249   2.400  11.201 -0.4868  0.2250 -0.4174
 9801SOL     OW34087  11.159   2.755   7.521 -0.2306 -0.8889  0.6339
 9801SOL    HW134088  11.215   2.760   7.598  1.8427  0.2752 -0.8740
 9801SOL    HW234089  11.219   2.741   7.448 -1.9036  0.3852 -1.0756
 9802SOL     OW34090  10.544   4.738   5.783  0.0609 -0.4000 -0.4948
 9802SOL    HW134091  10.528   4.726   5.690 -0.8782  0.9812 -0.5286
 9802SOL    HW234092  10.464   4.776   5.818  0.9806  0.6729  0.5582
 9803SOL     OW34093   6.465   8.783   9.442 -0.1802  0.4395 -0.2938
 9803SOL    HW134094   6.463   8.879   9.440 -0.7941  0.4411 -2.2075
 9803SOL    HW234095   6.454   8.760   9.534  0.3690  2.2032  0.2453
 9804SOL     OW34096   2.234   9.917   2.900  0.4997 -0.2322  0.1094
 9804SOL    HW134097   2.306   9.919   2.836  1.3917 -2.2863  0.9658
 9804SOL    HW234098   2.159   9.954   2.853  1.2640 -1.1798 -1.9731
 9805SOL     OW34099   6.919   1.801   9.042 -0.2297  0.5893 -0.3616
 9805SOL    HW134100   6.961   1.838   8.964 -1.5498 -0.0543 -1.4130
 9805SOL    HW234101   6.964   1.718   9.056 -0.7050  0.1922 -1.1137
 9806SOL     OW34102   3.769   4.849  11.445  0.2063 -0.1227 -0.3534
 9806SOL    HW134103   3.681   4.882  11.459 -0.0500 -0.7767 -0.3576
 9806SOL    HW234104   3.764   4.757  11.471  1.2531  0.1928  1.0564
 9807SOL     OW34105   5.100   1.953   1.807  0.3350 -0.6263  0.9372
 9807SOL    HW134106   5.019   1.976   1.761  1.2175 -2.0557 -1.4735
 9807SOL    HW234107   5.084   1.981   1.898 -2.6663 -0.4643  0.4629
 9808SOL     OW34108  10.373   4.089  10.407 -0.1516  0.3008 -0.3353
 9808SOL    HW134109  10.384   4.018  10.344 -2.2979  0.8707 -1.4276
 9808SOL    HW234110  10.335   4.161  10.357 -1.2366  1.0426  1.4471
 9809SOL     OW34111   2.995  10.688   0.533  0.0775 -0.5098 -0.1149
 9809SOL    HW134112   2.978  10.596   0.515 -0.6795 -0.3348 -0.3303
 9809SOL    HW234113   3.071  10.709   0.479 -1.5894 -0.2301 -2.5219
 9810SOL     OW34114  11.857   9.825   2.026 -0.3962 -0.4515  0.4933
 9810SOL    HW134115  11.872   9.807   1.934  0.3140 -1.4457  0.7808
 9810SOL    HW234116  11.793   9.760   2.054 -0.0291 -0.6672  0.8641
 9811SOL     OW34117   6.113   6.661  10.902  0.0162 -0.4588  0.1792
 9811SOL    HW134118   6.159   6.604  10.964  0.8097  0.2487  0.2647
 9811SOL    HW234119   6.161   6.650  10.820  1.2310  1.2603  0.5800
 9812SOL     OW34120   9.719   5.425   3.140 -0.7619 -0.3038  0.5608
 9812SOL    HW134121   9.692   5.390   3.225  0.4611 -2.3668  0.1627
 9812SOL    HW234122   9.637   5.440   3.093 -1.3988 -1.9706  1.0554
 9813SOL     OW34123   5.726   4.191   5.992  0.2321 -0.0134 -0.6495
 9813SOL    HW134124   5.673   4.116   6.019 -0.8234  0.8154 -0.3477
 9813SOL    HW234125   5.667   4.266   6.001  1.3594  0.8937 -0.6344
 9814SOL     OW34126   4.301   3.324  10.412  0.1825 -0.5770 -0.7831
 9814SOL    HW134127   4.330   3.410  10.444 -1.4471 -0.7284  1.3079
 9814SOL    HW234128   4.327   3.263  10.480  0.9884 -1.7431 -2.0782
 9815SOL     OW34129   3.279  10.039   1.643 -0.1146  0.3853  0.4263
 9815SOL    HW134130   3.248  10.130   1.645 -1.5083 -0.0626 -0.1387
 9815SOL    HW234131   3.234   9.997   1.717  2.4631  0.7024  2.3235
 9816SOL     OW34132  11.660   3.982   7.327 -0.0574  0.8405 -0.0514
 9816SOL    HW134133  11.583   3.994   7.382  0.0319  1.3440 -0.0292
 9816SOL    HW234134  11.700   4.069   7.322  0.0740  0.7503 -0.6999
 9817SOL     OW34135   8.383   9.528   5.383  0.8051 -0.2014  0.5788
 9817SOL    HW134136   8.377   9.577   5.465  2.1861 -0.2486  0.7428
 9817SOL    HW234137   8.341   9.584   5.318  1.0192  0.5193  1.0515
 9818SOL     OW34138   6.604  10.041   6.392  0.4813  0.2921 -0.0167
 9818SOL    HW134139   6.523  10.037   6.444  0.0956 -0.0089 -0.6331
 9818SOL    HW234140   6.605   9.958   6.344  1.1144  0.3354 -0.0814
 9819SOL     OW34141  11.605   9.142   3.330  0.2548 -0.0394  0.2360
 9819SOL    HW134142  11.662   9.185   3.394  1.6975 -0.0593 -0.9711
 9819SOL    HW234143  11.575   9.213   3.273 -1.5740  0.0863  1.2717
 9820SOL     OW34144   8.061  10.401   5.013 -0.7271 -0.0088 -0.6792
 9820SOL    HW134145   8.016  10.455   5.078 -0.6700 -0.4561 -0.2626
 9820SOL    HW234146   8.071  10.458   4.937  2.0773  1.6247  0.7600
 9821SOL     OW34147  11.147   7.523   0.288 -0.4070  0.1859  0.1007
 9821SOL    HW134148  11.188   7.447   0.246 -0.4798  0.5375 -0.6270
 9821SOL    HW234149  11.081   7.552   0.225  0.5724  1.7071 -0.2791
 9822SOL     OW34150   4.305   9.489   0.459  0.0172 -0.2523  0.1120
 9822SOL    HW134151   4.383   9.439   0.484  0.1325 -0.4500 -0.6066
 9822SOL    HW234152   4.303   9.483   0.363 -1.1357 -0.6395  0.1464
 9823SOL     OW34153   3.664   8.463   1.505  0.1838 -0.0865  0.7253
 9823SOL    HW134154   3.581   8.506   1.526  0.8340  0.6754  1.8089
 9823SOL    HW234155   3.714   8.529   1.457 -0.0533 -0.7613 -0.5176
 9824SOL     OW34156   2.205   4.927  11.078  0.2770  0.2701  0.4775
 9824SOL    HW134157   2.127   4.982  11.066  0.9116  0.9442 -0.8985
 9824SOL    HW234158   2.222   4.929  11.172 -2.4261 -1.4507  1.1340
 9825SOL     OW34159  10.458   3.957   7.562  1.0030  0.2129 -0.0747
 9825SOL    HW134160  10.506   4.029   7.522  2.7495  1.1784  3.3841
 9825SOL    HW234161  10.396   3.999   7.621 -0.7213 -1.1445 -0.8367
 9826SOL     OW34162  10.465   2.456   0.927 -0.6336  0.1856  0.4233
 9826SOL    HW134163  10.528   2.389   0.899 -1.1073  0.4989 -1.5782
 9826SOL    HW234164  10.519   2.524   0.968  0.1562 -0.2427  0.1169
 9827SOL     OW34165  10.583   0.027   6.386 -0.4490  0.5437 -0.3306
 9827SOL    HW134166  10.504   0.062   6.345 -0.1594  1.1533 -0.3756
 9827SOL    HW234167  10.584  -0.065   6.360 -0.1159  0.9731 -1.9403
 9828SOL     OW34168   2.856   9.391   4.576 -0.0740  0.5863 -0.1787
 9828SOL    HW134169   2.949   9.405   4.595 -0.1193  1.2478 -0.4584
 9828SOL    HW234170   2.836   9.451   4.505 -0.5505 -0.0618 -0.6065
 9829SOL     OW34171   9.581   2.723  11.001  0.2945 -0.2478 -0.3753
 9829SOL    HW134172   9.550   2.664  11.070  2.1188 -1.8649 -0.8461
 9829SOL    HW234173   9.600   2.666  10.927  1.2261  1.0670 -1.1955
 9830SOL     OW34174   5.353   7.482  10.715 -0.1417 -0.0060 -0.2136
 9830SOL    HW134175   5.278   7.536  10.691 -0.3124 -0.0375  0.2408
 9830SOL    HW234176   5.316   7.394  10.725  0.4410 -0.6262 -2.7902
 9831SOL     OW34177   2.366   8.712  10.832  0.4369  0.3162 -0.8339
 9831SOL    HW134178   2.361   8.627  10.876  0.2324  0.6510 -0.1939
 9831SOL    HW234179   2.366   8.691  10.739 -0.7817 -0.3484 -0.7065
 9832SOL     OW34180   7.856   1.238  10.121 -0.5988  0.3791 -0.2074
 9832SOL    HW134181   7.876   1.148  10.146 -3.4541 -0.8327 -1.8676
 9832SOL    HW234182   7.807   1.273  10.195  0.0068  0.3915  0.1942
 9833SOL     OW34183   5.585   3.497   9.824 -0.4790  0.0818  0.2309
 9833SOL    HW134184   5.620   3.568   9.771 -1.1499  0.5467  0.3983
 9833SOL    HW234185   5.661   3.443   9.845 -0.2015 -0.1454 -1.2380
 9834SOL     OW34186   2.821  10.010   4.334 -0.2064 -0.0440  0.5603
 9834SOL    HW134187   2.782  10.051   4.257 -0.8202  0.7197  1.2466
 9834SOL    HW234188   2.766  10.040   4.407  0.9400  0.0436  1.4166
 9835SOL     OW34189   7.209  11.951   8.560  0.6614 -0.5021  0.2096
 9835SOL    HW134190   7.235  11.925   8.649  0.0738 -0.8143  0.2957
 9835SOL    HW234191   7.182  11.869   8.518  0.0942 -0.2347  0.0333
 9836SOL     OW34192   6.472   0.913   9.192 -0.1150 -0.2042  0.6487
 9836SOL    HW134193   6.461   0.842   9.129  2.5891  0.2685 -0.4812
 9836SOL    HW234194   6.548   0.887   9.245  0.1011  1.2292  1.0873
 9837SOL     OW34195  10.061   4.179   4.651 -0.2667 -0.2306  0.5458
 9837SOL    HW134196  10.116   4.208   4.723 -1.9179 -1.0632  2.2492
 9837SOL    HW234197  10.110   4.108   4.610  0.6824  0.2242  0.8711
 9838SOL     OW34198  10.437   9.029   5.829  0.2435 -0.6657 -0.2140
 9838SOL    HW134199  10.475   8.942   5.842  2.0705 -0.1021 -1.4715
 9838SOL    HW234200  10.465   9.078   5.906  0.6747 -0.7182 -0.3340
 9839SOL     OW34201   6.636   9.539   0.564  0.5263  0.0316  0.0063
 9839SOL    HW134202   6.580   9.613   0.539 -0.6361 -0.9140 -0.2911
 9839SOL    HW234203   6.594   9.501   0.641  0.4975 -0.9700 -0.4852
 9840SOL     OW34204   7.691   8.316   3.474  0.7502  0.1199 -0.1863
 9840SOL    HW134205   7.764   8.372   3.499  1.3273  0.1261 -1.7270
 9840SOL    HW234206   7.719   8.228   3.500  1.4470  0.0854 -0.9896
 9841SOL     OW34207   9.976   0.911   9.427  0.4342 -0.3446  0.4058
 9841SOL    HW134208   9.970   0.824   9.387 -0.9374  0.0048 -0.1985
 9841SOL    HW234209  10.029   0.962   9.365  2.0454 -0.9654  1.2132
 9842SOL     OW34210   9.163   3.096   8.115 -0.2577  0.5167  0.3248
 9842SOL    HW134211   9.202   3.015   8.083 -1.6643  0.9513 -2.8020
 9842SOL    HW234212   9.101   3.067   8.183  1.1739 -0.6923  1.1923
 9843SOL     OW34213   3.322   2.147   2.596 -0.3097 -0.4773  0.1759
 9843SOL    HW134214   3.400   2.158   2.651 -1.1654 -1.4176  1.6692
 9843SOL    HW234215   3.348   2.083   2.530  0.4186 -0.1599  0.1376
 9844SOL     OW34216   1.550   1.861   5.605  0.9426 -0.4131 -0.3557
 9844SOL    HW134217   1.608   1.810   5.662  0.7192  0.2120  0.4473
 9844SOL    HW234218   1.464   1.855   5.646  0.6930 -0.2999 -0.8548
 9845SOL     OW34219   4.852   6.294   9.951 -0.7585 -0.2549 -0.0177
 9845SOL    HW134220   4.873   6.203   9.930 -1.2387 -0.5078  0.5805
 9845SOL    HW234221   4.937   6.333   9.974 -0.8782 -1.2844  2.4588
 9846SOL     OW34222  10.058   7.882  10.250  0.0296  0.0046 -0.0539
 9846SOL    HW134223  10.111   7.959  10.225  1.2680 -1.0698 -0.8719
 9846SOL    HW234224   9.968   7.909  10.232  0.3104  1.7209  0.9123
 9847SOL     OW34225   1.728   4.726   3.740 -0.3953 -0.4679 -0.5734
 9847SOL    HW134226   1.687   4.774   3.812 -0.3962 -0.4959 -0.5555
 9847SOL    HW234227   1.773   4.793   3.688 -1.5302 -0.2440 -1.3165
 9848SOL     OW34228  11.100   6.949   0.440 -0.0851 -1.1096 -0.4172
 9848SOL    HW134229  11.195   6.961   0.432 -0.0708 -1.9264 -1.7741
 9848SOL    HW234230  11.090   6.865   0.485 -0.1294 -1.8592 -1.7681
 9849SOL     OW34231   0.040   5.705   7.755  0.3549 -0.3801  0.3079
 9849SOL    HW134232   0.053   5.655   7.835  2.2082 -0.5189 -0.0444
 9849SOL    HW234233  -0.008   5.645   7.697 -0.1451 -0.6238  0.9638
 9850SOL     OW34234   7.308   6.575   4.372 -0.3475  0.3517 -0.1516
 9850SOL    HW134235   7.247   6.540   4.438  0.3959 -0.2473  0.2384
 9850SOL    HW234236   7.292   6.669   4.372 -1.8074  0.1235 -0.6109
 9851SOL     OW34237   7.091  10.686   3.437 -0.0691 -0.4988 -0.6464
 9851SOL    HW134238   7.092  10.625   3.363 -0.5797  0.4293 -1.4499
 9851SOL    HW234239   7.140  10.762   3.405  1.3569 -0.8164  0.6543
 9852SOL     OW34240   6.397   7.001   5.586 -0.2186 -0.4791 -0.0176
 9852SOL    HW134241   6.441   6.974   5.505  0.1227  0.6698 -0.2230
 9852SOL    HW234242   6.304   7.004   5.563 -0.2120 -0.9696 -0.1259
 9853SOL     OW34243   8.050   2.324   5.731 -0.3706  0.7976 -0.3871
 9853SOL    HW134244   8.014   2.245   5.771  0.4894  0.5296 -0.1229
 9853SOL    HW234245   8.039   2.311   5.637  0.4813 -0.0049 -0.3901
 9854SOL     OW34246   6.581   3.816   5.653  0.2225 -0.0418 -0.5911
 9854SOL    HW134247   6.555   3.732   5.691  0.9773 -0.1525 -0.2994
 9854SOL    HW234248   6.515   3.878   5.683 -1.0340 -0.7513 -1.7908
 9855SOL     OW34249  11.011   8.110   8.474 -0.5474 -0.3510  0.1302
 9855SOL    HW134250  11.038   8.192   8.516 -1.0352  1.3028 -2.5533
 9855SOL    HW234251  10.997   8.049   8.547 -0.7954  2.1143  2.2878
 9856SOL     OW34252   4.057   6.989   1.613 -0.2039 -0.0871  0.0447
 9856SOL    HW134253   3.996   7.041   1.666  1.6484 -0.5231  2.7981
 9856SOL    HW234254   4.119   7.052   1.577 -1.1652  0.1477 -1.2896
 9857SOL     OW34255   4.662   7.258   4.461 -0.3823 -0.3822  0.5516
 9857SOL    HW134256   4.689   7.181   4.412 -0.9860 -0.6945  0.7019
 9857SOL    HW234257   4.569   7.268   4.443 -0.0928  0.9836 -0.3779
 9858SOL     OW34258  10.382  11.151   9.202 -0.2477 -0.3157  0.3407
 9858SOL    HW134259  10.441  11.162   9.276  0.0354 -1.0914  0.2355
 9858SOL    HW234260  10.379  11.237   9.161  1.4786 -0.4523 -0.1397
 9859SOL     OW34261  11.459   7.065   1.261  0.3269 -0.4958 -0.2501
 9859SOL    HW134262  11.554   7.062   1.247 -0.0413 -0.5545 -3.5146
 9859SOL    HW234263  11.443   7.000   1.330  2.7565  0.8517  1.7850
 9860SOL     OW34264   6.155   0.795   8.390  0.3291 -0.4752 -0.2339
 9860SOL    HW134265   6.144   0.830   8.479  2.4316 -1.9910  0.7118
 9860SOL    HW234266   6.246   0.815   8.368  0.7882 -2.8331 -0.7300
 9861SOL     OW34267  11.189   0.106   4.630  0.1945  0.2277  0.0004
 9861SOL    HW134268  11.145   0.101   4.545  0.0630 -0.6611  0.1202
 9861SOL    HW234269  11.184   0.199   4.654 -0.5625  0.3295 -0.5358
 9862SOL     OW34270   4.779  11.834   5.654  0.2391 -0.1858 -0.2297
 9862SOL    HW134271   4.830  11.903   5.610 -0.4019  0.4819  0.0521
 9862SOL    HW234272   4.837  11.803   5.724 -0.4352  1.9966  1.4241
 9863SOL     OW34273   4.137   0.739   1.509  0.0903 -0.6504  0.6483
 9863SOL    HW134274   4.151   0.774   1.597  0.9528 -0.0773  0.3009
 9863SOL    HW234275   4.219   0.758   1.463 -0.8478  0.3174 -0.6854
 9864SOL     OW34276   4.372   3.824   0.747 -0.6795  0.1860  0.9773
 9864SOL    HW134277   4.464   3.849   0.738 -0.6534 -0.0907  0.4516
 9864SOL    HW234278   4.372   3.730   0.731 -1.5699  0.7059 -2.9851
 9865SOL     OW34279  10.026   1.889  10.312  0.4177  0.0229  0.3756
 9865SOL    HW134280  10.079   1.962  10.343  0.2987  0.1545  0.2701
 9865SOL    HW234281   9.967   1.869  10.384  1.5818 -1.0835  1.0750
 9866SOL     OW34282   6.076   4.163   9.956  0.2696  0.5041  0.2581
 9866SOL    HW134283   6.018   4.091   9.930  0.1006  0.5969  0.3796
 9866SOL    HW234284   6.026   4.212  10.021  1.3973 -0.8427  2.2427
 9867SOL     OW34285   2.905   1.510  11.318 -0.4395 -0.5378 -0.1484
 9867SOL    HW134286   2.960   1.518  11.240  1.8441 -0.9129  1.3139
 9867SOL    HW234287   2.931   1.584  11.373 -1.8040 -0.4310  0.3897
 9868SOL     OW34288   9.728   6.337  11.762 -0.1493  0.0105 -0.2141
 9868SOL    HW134289   9.791   6.273  11.730  1.9640  0.7388  2.1905
 9868SOL    HW234290   9.676   6.360  11.684 -0.6856 -4.0934 -1.2983
 9869SOL     OW34291   8.720   7.243   2.008  0.3062  0.1622 -0.0649
 9869SOL    HW134292   8.779   7.271   2.078  0.0293 -0.5637  0.4729
 9869SOL    HW234293   8.691   7.324   1.967  2.5364  0.5250 -1.0814
 9870SOL     OW34294   9.988   4.399   2.794 -0.5874 -0.0941 -0.0357
 9870SOL    HW134295  10.023   4.478   2.753  1.9812 -0.2451  1.6387
 9870SOL    HW234296   9.899   4.423   2.821  0.1527  2.2789  0.4965
 9871SOL     OW34297   1.390   3.599   7.492 -0.3034 -0.2484  0.1186
 9871SOL    HW134298   1.363   3.550   7.570  2.5301  0.0036  1.3617
 9871SOL    HW234299   1.483   3.578   7.482 -0.0590  1.5184 -1.8763
 9872SOL     OW34300   6.329   0.039   0.740  0.7160  1.1420  0.2739
 9872SOL    HW134301   6.365  -0.029   0.682 -2.9979 -1.8249  1.0364
 9872SOL    HW234302   6.326   0.118   0.685 -1.4103 -1.1546 -3.3862
 9873SOL     OW34303  11.180   5.395   3.771 -0.3794 -0.7311 -0.0118
 9873SOL    HW134304  11.194   5.407   3.677 -0.0456 -0.7826  0.0287
 9873SOL    HW234305  11.268   5.378   3.806 -0.7287 -2.5847  0.0513
 9874SOL     OW34306   5.918   3.445  11.699 -0.3628  0.7168  0.1231
 9874SOL    HW134307   5.929   3.399  11.783 -0.4624  0.7394  0.1482
 9874SOL    HW234308   5.912   3.376  11.634  1.1134  0.7043 -0.0399
 9875SOL     OW34309   6.366   3.315   5.583  0.3943  0.2733  0.1867
 9875SOL    HW134310   6.413   3.327   5.501 -1.0864  0.4901 -0.6612
 9875SOL    HW234311   6.435   3.306   5.649  1.6231 -0.6533 -1.1598
 9876SOL     OW34312   2.047   2.655   6.583 -0.1177  0.3608  0.3272
 9876SOL    HW134313   2.001   2.629   6.503 -0.0091 -0.3995  0.5102
 9876SOL    HW234314   1.982   2.644   6.653 -0.6231  2.2264  0.2127
 9877SOL     OW34315   6.933  10.883   3.942 -0.1852  0.3290 -0.0985
 9877SOL    HW134316   6.968  10.821   3.878 -1.7395 -1.3436  0.5638
 9877SOL    HW234317   6.860  10.926   3.896 -0.9252 -0.4459  0.3189
 9878SOL     OW34318  11.621  10.801  10.672 -0.3862 -0.6470 -0.0829
 9878SOL    HW134319  11.696  10.818  10.729 -0.7089 -0.9767  0.4504
 9878SOL    HW234320  11.595  10.711  10.694 -0.3007 -0.9020 -0.9956
 9879SOL     OW34321   5.974  10.030   6.757  0.1960  0.0570 -0.0932
 9879SOL    HW134322   5.915  10.002   6.826  0.9490 -0.3652  0.3913
 9879SOL    HW234323   6.043   9.964   6.756 -0.8082 -1.0649 -2.5845
 9880SOL     OW34324   8.401   1.499   5.165  0.0844  0.4237  0.0877
 9880SOL    HW134325   8.467   1.458   5.110  0.0994 -1.3340  1.3434
 9880SOL    HW234326   8.375   1.431   5.227 -2.1775  1.3720  0.2855
 9881SOL     OW34327   2.606   2.405   8.369  0.9430  0.2761 -1.0776
 9881SOL    HW134328   2.571   2.415   8.457 -0.5210  0.3834 -1.6404
 9881SOL    HW234329   2.684   2.351   8.380 -1.2625 -2.9749 -0.0849
 9882SOL     OW34330   2.532   9.664   3.845 -0.7404 -0.2589 -0.3989
 9882SOL    HW134331   2.518   9.757   3.865  0.0745 -0.1908 -0.1071
 9882SOL    HW234332   2.568   9.627   3.926  1.1844 -0.3112 -1.2178
 9883SOL     OW34333  11.775   9.563   3.156  0.3133 -0.2309 -0.6823
 9883SOL    HW134334  11.785   9.499   3.086 -0.9321  0.3405 -1.4123
 9883SOL    HW234335  11.697   9.535   3.203 -0.0069  0.5263 -0.7594
 9884SOL     OW34336   9.270   3.566   9.277  0.3828  0.2769 -0.2780
 9884SOL    HW134337   9.215   3.575   9.199 -0.9944  0.6789  0.7111
 9884SOL    HW234338   9.218   3.603   9.348  2.1422  1.1676  0.6312
 9885SOL     OW34339   0.356   6.475   0.863  0.1693  1.0361  0.0842
 9885SOL    HW134340   0.307   6.400   0.895 -0.9195  2.3074  1.5440
 9885SOL    HW234341   0.326   6.486   0.772 -1.4896  1.1147  0.5984
 9886SOL     OW34342   4.406  11.623   1.994 -0.2742  0.1050 -0.1088
 9886SOL    HW134343   4.446  11.546   1.954 -0.0378  0.2778 -0.2100
 9886SOL    HW234344   4.478  11.666   2.040 -0.8284 -0.8473  1.7161
 9887SOL     OW34345   9.239   4.729   8.321  0.4827  0.1129  0.4435
 9887SOL    HW134346   9.222   4.721   8.227  0.8700  0.4183  0.3409
 9887SOL    HW234347   9.334   4.745   8.326  0.1173  2.6829  0.6992
 9888SOL     OW34348   8.772  11.743  10.638 -0.3203 -0.5429 -0.4193
 9888SOL    HW134349   8.812  11.723  10.722  0.1023 -3.1267 -1.1419
 9888SOL    HW234350   8.835  11.798  10.593  0.0628 -0.2792  0.4308
 9889SOL     OW34351   5.744   5.156   8.779 -0.6640  0.1131  0.0304
 9889SOL    HW134352   5.652   5.139   8.801 -0.9839  0.7828 -0.7358
 9889SOL    HW234353   5.749   5.139   8.685  0.3006 -1.1321  0.2876
 9890SOL     OW34354   0.108  10.404   4.076 -0.7329  0.1295 -0.3970
 9890SOL    HW134355   0.154  10.396   4.159  0.6333  1.4293 -0.9785
 9890SOL    HW234356   0.029  10.453   4.097 -0.3513  0.5325  0.1250
 9891SOL     OW34357   2.942   8.375  11.984 -0.4548  0.0879  0.1338
 9891SOL    HW134358   2.857   8.403  12.018 -1.0299 -2.8396  1.4598
 9891SOL    HW234359   2.960   8.292  12.029  2.5407 -0.0400 -1.0250
 9892SOL     OW34360  10.732   1.332  11.398  0.3425 -0.1730 -0.9674
 9892SOL    HW134361  10.808   1.318  11.342  0.1645 -3.4164 -0.5918
 9892SOL    HW234362  10.767   1.329  11.487 -0.0585 -0.2064 -0.8097
 9893SOL     OW34363   6.504  10.231   4.637 -0.3446  0.3240  0.1477
 9893SOL    HW134364   6.450  10.275   4.571 -1.0885  0.4773  0.8540
 9893SOL    HW234365   6.489  10.280   4.717 -1.7337 -1.6045  1.1363
 9894SOL     OW34366   9.445   2.473   7.889  0.5499 -0.1358  0.3121
 9894SOL    HW134367   9.407   2.451   7.974 -1.0255  1.7671  0.1579
 9894SOL    HW234368   9.404   2.411   7.828  0.3899 -0.3878  0.6700
 9895SOL     OW34369   4.072   1.181   3.788  0.1108 -0.4607  0.0097
 9895SOL    HW134370   3.986   1.141   3.804 -0.0316  0.0798  0.6112
 9895SOL    HW234371   4.066   1.215   3.699 -1.2024  1.8227  0.9038
 9896SOL     OW34372   7.890   2.177   6.588 -0.5449  0.0789 -0.4203
 9896SOL    HW134373   7.971   2.195   6.541 -0.2314 -0.7552 -0.2136
 9896SOL    HW234374   7.821   2.211   6.531 -0.0158  1.3999 -0.2927
 9897SOL     OW34375   8.073   6.981  11.358  0.1014 -0.2821 -0.4112
 9897SOL    HW134376   7.984   6.995  11.388  0.3995  1.4873 -0.2336
 9897SOL    HW234377   8.093   7.058  11.305  1.1857 -1.1325 -1.3085
 9898SOL     OW34378   3.971   0.991   4.430 -0.2198  0.1281  0.6269
 9898SOL    HW134379   3.952   0.947   4.513  1.1130 -1.2675  0.2426
 9898SOL    HW234380   4.067   0.987   4.422 -0.3291  0.1731 -1.0150
 9899SOL     OW34381   9.888   0.420   5.875  0.2020 -0.4152  0.7089
 9899SOL    HW134382   9.871   0.497   5.820 -0.3412 -1.4775 -0.6616
 9899SOL    HW234383   9.930   0.456   5.953  0.9225  1.1623 -0.3430
 9900SOL     OW34384   3.595   3.671   7.146 -0.3580  0.1286 -0.2439
 9900SOL    HW134385   3.545   3.682   7.066 -2.1250 -5.0412 -0.2164
 9900SOL    HW234386   3.529   3.668   7.216  0.3045 -2.1840  0.3901
 9901SOL     OW34387   6.474  10.759   7.957  0.0944 -0.0586  0.3430
 9901SOL    HW134388   6.393  10.777   7.910  0.9803 -1.3419 -1.8391
 9901SOL    HW234389   6.476  10.663   7.965  0.1543  0.0761  2.8067
 9902SOL     OW34390   4.360   1.471   1.242 -0.1819 -0.1042 -0.3351
 9902SOL    HW134391   4.351   1.378   1.262  0.6090  0.1355  1.2626
 9902SOL    HW234392   4.388   1.473   1.150 -1.7102 -1.3532 -0.8655
 9903SOL     OW34393   3.824  11.779   7.492 -0.5341 -0.4908  0.1421
 9903SOL    HW134394   3.795  11.711   7.431 -2.3122  1.6265 -1.5238
 9903SOL    HW234395   3.919  11.773   7.491 -0.6069 -2.0405 -1.0397
 9904SOL     OW34396   7.279   7.771  11.863  0.3270  0.4456  0.3515
 9904SOL    HW134397   7.218   7.740  11.930  0.7547 -0.3677  0.3713
 9904SOL    HW234398   7.349   7.813  11.913 -0.2089  1.4146  0.3286
 9905SOL     OW34399   0.074   6.527   9.604 -0.3315  0.5928 -0.4250
 9905SOL    HW134400   0.090   6.602   9.546  2.0036  1.7777  1.5532
 9905SOL    HW234401  -0.021   6.515   9.603 -0.5340  1.6884 -3.0117
 9906SOL     OW34402   0.320  11.723   1.176 -0.1639 -0.4288  0.1359
 9906SOL    HW134403   0.230  11.700   1.199 -0.3551  1.0940  0.9697
 9906SOL    HW234404   0.341  11.800   1.229  1.3544 -0.2574 -0.6423
 9907SOL     OW34405   5.583   7.294   6.252  0.7233 -0.2406  0.8862
 9907SOL    HW134406   5.651   7.231   6.229 -0.4745 -1.1174 -0.3585
 9907SOL    HW234407   5.513   7.279   6.189 -0.4746  0.9172  1.8742
 9908SOL     OW34408   4.218   7.720  10.141 -0.6549 -0.1157 -0.2517
 9908SOL    HW134409   4.189   7.806  10.110 -0.1943  0.8036  1.6909
 9908SOL    HW234410   4.311   7.732  10.161 -0.4922 -1.1855 -0.3126
 9909SOL     OW34411   7.963   0.866   7.342 -0.3105 -0.0876  0.5882
 9909SOL    HW134412   7.956   0.837   7.251 -1.1540  1.0511  0.2747
 9909SOL    HW234413   7.877   0.847   7.380  0.0678 -0.6550  1.1940
 9910SOL     OW34414   5.331   2.914  11.826  0.1912 -0.0693 -0.2490
 9910SOL    HW134415   5.352   2.871  11.908  1.5843  0.9324 -0.0465
 9910SOL    HW234416   5.367   3.002  11.835 -0.8859  0.5215 -1.3901
 9911SOL     OW34417   5.712   3.933   1.455  0.3401 -0.0795  0.4735
 9911SOL    HW134418   5.643   3.954   1.518  0.5848 -1.6784  1.3335
 9911SOL    HW234419   5.666   3.891   1.382  0.1525  1.0082 -0.0465
 9912SOL     OW34420   3.102   3.675  10.272 -0.2237 -0.2413  0.1025
 9912SOL    HW134421   3.047   3.721  10.335 -0.1586  0.0085 -0.0200
 9912SOL    HW234422   3.153   3.614  10.325 -0.3061 -0.1654  0.2699
 9913SOL     OW34423  10.364   8.847   4.418  0.3830 -0.4529  0.1102
 9913SOL    HW134424  10.333   8.813   4.334 -0.9820  0.6940  0.1152
 9913SOL    HW234425  10.459   8.855   4.407  0.2927 -0.8015 -1.1285
 9914SOL     OW34426   5.436   9.820   8.293 -0.5526 -0.4781  0.2874
 9914SOL    HW134427   5.448   9.740   8.242  1.4337 -0.2332  0.2929
 9914SOL    HW234428   5.518   9.829   8.342 -0.1390  2.2697 -0.7498
 9915SOL     OW34429  11.047   0.140   1.813  0.4873 -0.3318 -0.1379
 9915SOL    HW134430  11.072   0.078   1.745  0.0900  0.3256 -0.8950
 9915SOL    HW234431  11.002   0.210   1.767  0.6852  0.3927  0.7346
 9916SOL     OW34432  10.335   5.024   1.733  1.1108  0.2063  0.0089
 9916SOL    HW134433  10.315   4.930   1.734 -0.5359  0.5258  0.7209
 9916SOL    HW234434  10.358   5.043   1.642 -1.5688 -0.3587 -0.9068
 9917SOL     OW34435   6.178   0.424   9.264  0.1202  0.1381 -0.0509
 9917SOL    HW134436   6.198   0.516   9.249  0.1828  0.0649 -0.4095
 9917SOL    HW234437   6.148   0.421   9.355  1.1688  0.3390  0.3184
 9918SOL     OW34438   4.313   8.343   5.146  0.0124 -0.0775  0.0326
 9918SOL    HW134439   4.301   8.438   5.140 -0.1152 -0.0458  0.6754
 9918SOL    HW234440   4.331   8.315   5.056  3.2947  0.9820  0.2531
 9919SOL     OW34441   0.764  10.585   0.590  0.7076 -0.0103  0.1229
 9919SOL    HW134442   0.714  10.520   0.542  0.9505 -0.3743  0.3559
 9919SOL    HW234443   0.700  10.632   0.643  0.7652 -1.3191  1.3879
 9920SOL     OW34444  10.785   7.269   0.827 -0.4607  0.3448  0.2131
 9920SOL    HW134445  10.743   7.325   0.892 -1.4171 -1.2584  1.0315
 9920SOL    HW234446  10.756   7.304   0.743 -1.8456  0.4979  0.7236
 9921SOL     OW34447   2.878   5.899   7.614 -0.6631 -0.6792 -0.4537
 9921SOL    HW134448   2.912   5.857   7.535 -0.7015 -1.5797 -0.0064
 9921SOL    HW234449   2.924   5.856   7.686 -0.8423 -0.0748  0.0304
 9922SOL     OW34450   3.460   5.498   5.824 -0.0046 -0.1267  0.1646
 9922SOL    HW134451   3.378   5.460   5.854 -0.9606  1.7977  0.1237
 9922SOL    HW234452   3.527   5.460   5.882 -1.1738 -0.1458  1.5549
 9923SOL     OW34453   3.483   2.669   4.413  0.0954 -0.4284  0.0941
 9923SOL    HW134454   3.492   2.741   4.475 -0.4925  0.9552 -1.3793
 9923SOL    HW234455   3.398   2.682   4.373 -0.1054 -2.0670 -0.0778
 9924SOL     OW34456  10.540   9.275   9.285  0.4838  0.6600  0.0682
 9924SOL    HW134457  10.466   9.320   9.326 -0.5311  0.1286 -1.1190
 9924SOL    HW234458  10.602   9.259   9.357 -1.7295 -1.3455  1.6843
 9925SOL     OW34459   5.828   2.472   7.352 -0.2197  0.3474 -0.0983
 9925SOL    HW134460   5.899   2.481   7.289  0.1835 -0.4259  0.2430
 9925SOL    HW234461   5.762   2.534   7.321  0.0279  0.0880 -1.2000
 9926SOL     OW34462   1.292   3.878   4.488 -0.2324  0.0564  0.6755
 9926SOL    HW134463   1.371   3.932   4.487  0.4505 -0.8984 -0.4482
 9926SOL    HW234464   1.322   3.791   4.460 -1.7834 -0.1838 -0.3932
 9927SOL     OW34465   3.053   8.972  11.276  0.4428  0.1273  0.0613
 9927SOL    HW134466   3.071   8.941  11.187 -0.9387 -1.5833  0.3149
 9927SOL    HW234467   3.138   8.970  11.320  0.6837 -2.0013 -0.3829
 9928SOL     OW34468   4.756   9.005   2.469  0.1997  0.4341  0.4837
 9928SOL    HW134469   4.792   8.974   2.552 -1.6586  0.7369  1.4601
 9928SOL    HW234470   4.661   9.003   2.482 -0.1754 -0.1159 -1.8710
 9929SOL     OW34471   8.250   5.377   5.059 -0.2250 -0.4331 -0.8663
 9929SOL    HW134472   8.294   5.345   5.138  0.5116  1.3384 -0.5067
 9929SOL    HW234473   8.310   5.355   4.987  0.9386  1.1975 -0.4712
 9930SOL     OW34474   4.639   4.985   0.894  0.3451  0.3684  0.2044
 9930SOL    HW134475   4.646   4.890   0.889  0.5416  0.3857  0.1240
 9930SOL    HW234476   4.620   5.013   0.804 -1.7000  0.2584  0.5514
 9931SOL     OW34477   5.462  11.312   6.807  0.6621  0.2458 -0.0519
 9931SOL    HW134478   5.437  11.305   6.715  1.1949  0.4675 -0.2170
 9931SOL    HW234479   5.431  11.230   6.847  0.6360  0.0469 -0.4765
 9932SOL     OW34480   4.510   1.897   3.499  0.6586 -0.8154 -0.2726
 9932SOL    HW134481   4.606   1.893   3.489  0.5152  0.4035 -2.8543
 9932SOL    HW234482   4.481   1.809   3.477  1.1138 -0.9376 -0.4039
 9933SOL     OW34483   4.869   7.749   5.093  0.0997  0.3971 -0.0103
 9933SOL    HW134484   4.896   7.804   5.166  0.0017  1.0810 -0.4821
 9933SOL    HW234485   4.781   7.719   5.116 -0.1123  0.9814 -0.0514
 9934SOL     OW34486   0.326  10.155   5.807  0.0048 -0.4488  0.4148
 9934SOL    HW134487   0.405  10.164   5.862 -0.1367 -0.1464  0.5711
 9934SOL    HW234488   0.340  10.074   5.758 -0.5263 -1.5429  1.9877
 9935SOL     OW34489   6.130   7.585   4.625  0.6574  0.5002 -0.0508
 9935SOL    HW134490   6.124   7.659   4.564 -2.3271  0.9618  0.6554
 9935SOL    HW234491   6.192   7.614   4.691  1.3722  1.3701 -1.0708
 9936SOL     OW34492   5.068   4.392  10.444 -0.0635 -0.4354 -0.2165
 9936SOL    HW134493   4.987   4.437  10.470  0.4090  0.6062 -0.5436
 9936SOL    HW234494   5.125   4.401  10.520  0.0249 -0.5192 -0.2730
 9937SOL     OW34495   1.544   8.781   0.748  0.0284  0.3096  0.3317
 9937SOL    HW134496   1.494   8.796   0.828  0.1184 -2.5069  1.0408
 9937SOL    HW234497   1.482   8.742   0.687  0.5122  0.1543 -0.0717
 9938SOL     OW34498   8.937  10.980   1.101  0.2407 -0.2917 -0.0877
 9938SOL    HW134499   8.959  10.993   1.193  0.8470 -2.9533  0.2137
 9938SOL    HW234500   8.843  11.000   1.097 -0.0080 -0.9961  1.3372
 9939SOL     OW34501   2.374  10.333  10.972  0.5475  0.5999 -0.0440
 9939SOL    HW134502   2.391  10.426  10.988 -1.1876  0.7066  1.4794
 9939SOL    HW234503   2.374  10.294  11.059  0.1161 -0.6246 -0.5820
 9940SOL     OW34504   6.171   9.063  11.825  0.0785  0.2407  0.8510
 9940SOL    HW134505   6.120   9.123  11.770  0.2522  1.1165  1.6134
 9940SOL    HW234506   6.112   8.990  11.842  0.6159 -1.0147 -1.9888
 9941SOL     OW34507   8.986  10.664  10.617  0.2212  0.2334 -0.1643
 9941SOL    HW134508   9.011  10.627  10.532  2.7759  1.6360 -0.1185
 9941SOL    HW234509   9.036  10.745  10.623 -3.2530  2.5725  0.7730
 9942SOL     OW34510   3.055   7.089   3.230 -0.4485 -0.1090  0.3994
 9942SOL    HW134511   3.054   7.044   3.315 -0.0045 -0.3800  0.2638
 9942SOL    HW234512   3.038   7.021   3.166  1.0635 -0.2650  0.1235
 9943SOL     OW34513   3.973   6.245   8.829 -0.2062  0.3218  0.4010
 9943SOL    HW134514   3.966   6.161   8.784 -0.0551  0.3345  0.3535
 9943SOL    HW234515   3.914   6.237   8.903  0.4001 -0.1221  0.8493
 9944SOL     OW34516   7.758   5.688   1.911 -0.6614 -0.8086 -0.3059
 9944SOL    HW134517   7.816   5.724   1.843  1.2707  0.6766  1.9798
 9944SOL    HW234518   7.802   5.609   1.940  0.6000  0.5388  1.7225
 9945SOL     OW34519  10.617   3.257   7.720 -0.1678 -0.0304 -0.8474
 9945SOL    HW134520  10.671   3.313   7.665 -0.5953  0.0840 -1.1498
 9945SOL    HW234521  10.580   3.192   7.660 -0.1778 -0.2574 -0.6018
 9946SOL     OW34522  11.586  10.534  10.698  0.2895  0.3324  0.4047
 9946SOL    HW134523  11.584  10.498  10.610 -0.1368  1.3521 -0.0148
 9946SOL    HW234524  11.675  10.518  10.729  0.0874 -1.1815  0.3009
 9947SOL     OW34525   4.662   7.801   2.233  0.3399 -0.3280  0.6204
 9947SOL    HW134526   4.685   7.718   2.190  0.2672 -0.6221  1.1362
 9947SOL    HW234527   4.581   7.781   2.280  0.5115 -0.0574  1.0282
 9948SOL     OW34528   2.138   3.327   2.453  0.1843  0.3907  0.2672
 9948SOL    HW134529   2.221   3.292   2.422 -0.9244  0.1710 -2.7981
 9948SOL    HW234530   2.119   3.400   2.394 -2.3694 -0.3832  0.0167
 9949SOL     OW34531  11.290   5.401  11.392  0.0001  0.7982  0.7757
 9949SOL    HW134532  11.363   5.368  11.340  1.3841  1.9121  1.9313
 9949SOL    HW234533  11.304   5.365  11.480 -1.7322 -0.2290  0.6792
 9950SOL     OW34534  11.659   7.914  11.670 -0.3049 -0.0904  0.0695
 9950SOL    HW134535  11.587   7.883  11.725 -0.2061 -1.3711 -0.4788
 9950SOL    HW234536  11.737   7.874  11.709 -0.0265  0.3661 -0.0153
 9951SOL     OW34537  11.561   5.205   8.355 -0.0387 -0.5375  0.0553
 9951SOL    HW134538  11.493   5.141   8.375  0.0994 -0.2282  1.6488
 9951SOL    HW234539  11.533   5.284   8.401 -0.0229  0.4552 -1.5951
 9952SOL     OW34540   9.276  11.747   0.663  0.0406  0.1816  0.4881
 9952SOL    HW134541   9.257  11.821   0.722 -1.8059  0.7106 -0.6621
 9952SOL    HW234542   9.350  11.702   0.703  0.8037  2.2793  1.5840
 9953SOL     OW34543   2.754   6.035   5.536  0.5560 -0.4337  0.1498
 9953SOL    HW134544   2.727   6.115   5.489 -0.8387 -1.0070 -0.0757
 9953SOL    HW234545   2.697   6.033   5.613  1.3348 -0.6609  0.7284
 9954SOL     OW34546   7.097   1.129   4.240 -0.1465  0.2546 -0.5110
 9954SOL    HW134547   7.040   1.099   4.311  0.2192  1.5595  0.3727
 9954SOL    HW234548   7.175   1.162   4.284  2.0651 -2.8405 -1.7312
 9955SOL     OW34549   3.330   4.486   1.775 -0.2708 -0.1856  0.0571
 9955SOL    HW134550   3.336   4.404   1.726  0.0718 -0.5006  0.6015
 9955SOL    HW234551   3.405   4.537   1.745 -0.8528  0.2002 -0.7551
 9956SOL     OW34552   8.533  10.254   5.176  0.0274  0.1979  0.9819
 9956SOL    HW134553   8.593  10.325   5.155 -0.9549  0.6392 -0.5088
 9956SOL    HW234554   8.446  10.292   5.167 -0.6530 -1.6638 -2.3072
 9957SOL     OW34555   8.783   8.430   3.645 -0.4173 -0.2081 -0.0090
 9957SOL    HW134556   8.851   8.384   3.595  0.9656  0.5802  1.0588
 9957SOL    HW234557   8.706   8.429   3.588  0.7647 -0.3165 -1.6796
 9958SOL     OW34558   3.702   7.865   4.888  0.4717  0.2892  0.6378
 9958SOL    HW134559   3.724   7.958   4.889 -0.8157  0.6542  3.4261
 9958SOL    HW234560   3.782   7.821   4.914  1.1376  0.5520 -0.8654
 9959SOL     OW34561   8.562  11.105   3.551  0.2831 -0.3417  0.1902
 9959SOL    HW134562   8.625  11.068   3.613 -1.9114 -0.0425  2.7782
 9959SOL    HW234563   8.573  11.200   3.559  0.5197 -0.3052 -0.4976
 9960SOL     OW34564  11.124   3.162   0.257 -0.0682 -0.0018 -0.0367
 9960SOL    HW134565  11.038   3.144   0.218 -0.6387 -1.0445  1.6008
 9960SOL    HW234566  11.184   3.102   0.213 -0.3433  0.0677 -0.5201
 9961SOL     OW34567   2.378   3.826   7.396 -0.1513  0.3253  0.2770
 9961SOL    HW134568   2.434   3.771   7.451  0.8061  0.5327 -0.4779
 9961SOL    HW234569   2.364   3.906   7.447  1.8094  1.0682 -0.2826
 9962SOL     OW34570  10.848   7.150   4.499  0.0028  0.3374 -0.2429
 9962SOL    HW134571  10.763   7.194   4.507  0.1431  0.6325 -0.3605
 9962SOL    HW234572  10.835   7.066   4.542  0.9900  2.1485  4.1498
 9963SOL     OW34573   5.057   2.552   7.249 -0.4898  0.3529 -0.3630
 9963SOL    HW134574   5.035   2.570   7.158  0.0854 -3.8669 -1.5685
 9963SOL    HW234575   4.972   2.533   7.290 -0.4939 -1.7174 -1.2006
 9964SOL     OW34576   3.145  10.174   5.629  0.1194  0.2717 -0.0375
 9964SOL    HW134577   3.229  10.218   5.642 -0.8206  2.2325 -0.3467
 9964SOL    HW234578   3.109  10.212   5.549 -2.1470  1.2847  1.3734
 9965SOL     OW34579   3.901   4.298   7.266  0.9187  0.2222 -0.2041
 9965SOL    HW134580   3.970   4.337   7.319 -1.0610  3.9722 -0.0486
 9965SOL    HW234581   3.854   4.241   7.326  2.2202 -0.2637  0.3874
 9966SOL     OW34582   3.495   6.968  11.665  0.2798  0.5806 -0.2187
 9966SOL    HW134583   3.438   6.922  11.604  0.7717 -1.1329  0.5450
 9966SOL    HW234584   3.516   6.902  11.732  2.8193  1.2438 -0.2725
 9967SOL     OW34585   7.435   2.501   3.281  0.5807  0.1870  0.4462
 9967SOL    HW134586   7.411   2.578   3.230  0.6443 -0.7374 -1.0613
 9967SOL    HW234587   7.464   2.437   3.216  0.4120 -1.1615  1.6219
 9968SOL     OW34588   0.146   8.282   1.665  0.1846  0.2496  0.1322
 9968SOL    HW134589   0.158   8.300   1.572  0.5668 -0.2753  0.0719
 9968SOL    HW234590   0.204   8.344   1.709 -0.9186  1.3318  0.0841
 9969SOL     OW34591  11.503   1.916  10.057 -0.0064  0.3547 -0.0223
 9969SOL    HW134592  11.440   1.978  10.020 -1.3129  0.4333  2.1343
 9969SOL    HW234593  11.503   1.843   9.997 -1.4344  0.7955 -0.6023
 9970SOL     OW34594   8.584  10.420   9.312  0.0482 -0.7829 -0.2565
 9970SOL    HW134595   8.499  10.462   9.309  0.4718  0.0821 -0.3213
 9970SOL    HW234596   8.605  10.415   9.405  0.6666  0.5524 -0.3003
 9971SOL     OW34597  10.392  11.253   6.640  0.1394 -0.3949  0.3202
 9971SOL    HW134598  10.348  11.295   6.566  0.0181 -0.1899  0.5073
 9971SOL    HW234599  10.457  11.195   6.600 -0.8450 -1.3129  0.0120
 9972SOL     OW34600   0.142  11.283   7.779  0.3831  0.1128 -0.2731
 9972SOL    HW134601   0.101  11.197   7.781  2.5656 -1.1127  3.5117
 9972SOL    HW234602   0.146  11.306   7.687 -2.7321 -2.5337 -1.2596
 9973SOL     OW34603   1.303   1.538   1.498 -0.0433 -0.2364  0.0629
 9973SOL    HW134604   1.211   1.513   1.500  0.1214 -0.8787 -0.0525
 9973SOL    HW234605   1.325   1.543   1.405  0.1353 -0.4808  0.0888
 9974SOL     OW34606   1.701   0.615   2.233  0.2692 -0.2262 -0.1524
 9974SOL    HW134607   1.664   0.538   2.276 -0.2343 -1.4614 -2.5724
 9974SOL    HW234608   1.795   0.596   2.227  0.0488 -1.0676 -1.3999
 9975SOL     OW34609  10.294  11.273   4.863 -0.2565  0.1615 -0.5302
 9975SOL    HW134610  10.352  11.341   4.828  0.2222  0.0122 -0.0315
 9975SOL    HW234611  10.352  11.212   4.908 -1.0404  1.9076  3.2324
 9976SOL     OW34612  11.228   0.878   7.412  0.0209 -0.2500 -0.1292
 9976SOL    HW134613  11.156   0.859   7.473  0.2541 -2.5879 -0.4785
 9976SOL    HW234614  11.227   0.804   7.351  0.5255  1.4492 -2.2853
 9977SOL     OW34615   3.231   9.900   4.025  0.7644  0.2868  0.2920
 9977SOL    HW134616   3.178   9.840   3.972  1.8565  1.0753 -1.7644
 9977SOL    HW234617   3.166   9.955   4.070 -0.2087 -1.3658  1.0181
 9978SOL     OW34618   5.572  11.644   6.384 -1.1418  0.4060  0.1090
 9978SOL    HW134619   5.530  11.608   6.462 -1.9666  2.0126  0.4501
 9978SOL    HW234620   5.580  11.738   6.401 -3.5127  1.2629 -2.5842
 9979SOL     OW34621   9.615   0.085   3.072  0.5688  0.2391 -0.4184
 9979SOL    HW134622   9.666   0.149   3.121 -1.1907  1.1546  0.3116
 9979SOL    HW234623   9.566   0.138   3.008  1.8739 -0.7988 -2.3933
 9980SOL     OW34624   0.846   1.757  10.544  0.0346 -0.1459  0.0198
 9980SOL    HW134625   0.908   1.711  10.488  0.9888  2.4896 -1.2469
 9980SOL    HW234626   0.767   1.704  10.541  0.8421 -1.3470 -1.8796
 9981SOL     OW34627  10.491   7.408  10.673 -0.0844  0.4529 -0.3953
 9981SOL    HW134628  10.468   7.492  10.634  1.0538  0.5641 -0.8640
 9981SOL    HW234629  10.582   7.393  10.646  0.4547  0.1061  1.4591
 9982SOL     OW34630   8.568   1.099   9.069  0.2233 -0.1303  0.0147
 9982SOL    HW134631   8.548   1.007   9.051 -0.8414 -0.1130  0.9808
 9982SOL    HW234632   8.497   1.147   9.026 -0.3899  0.0970  1.2251
 9983SOL     OW34633   3.302   5.211   6.064  0.0273 -0.2772 -0.1671
 9983SOL    HW134634   3.319   5.139   6.125  0.0400 -0.8099 -0.7903
 9983SOL    HW234635   3.368   5.201   5.995  0.0856  0.3875 -0.2165
 9984SOL     OW34636   8.433   7.723   1.946 -0.3921  0.3716  0.2368
 9984SOL    HW134637   8.376   7.782   1.897 -0.2043  0.1627 -0.2333
 9984SOL    HW234638   8.379   7.694   2.020 -1.2910 -0.6799 -0.7811
 9985SOL     OW34639   0.220   0.114   2.536  0.2412 -0.2685  0.0664
 9985SOL    HW134640   0.255   0.044   2.590  0.0027 -0.3468  0.1206
 9985SOL    HW234641   0.229   0.193   2.589 -2.1479 -0.6781  1.2050
 9986SOL     OW34642   7.654   1.238   6.939  0.3619 -0.2904 -0.0917
 9986SOL    HW134643   7.619   1.149   6.934  0.4127 -0.3862  0.9259
 9986SOL    HW234644   7.577   1.294   6.928  0.1876 -0.4795  0.1238
 9987SOL     OW34645  11.514   7.398   5.137 -0.3170 -0.7437  0.4469
 9987SOL    HW134646  11.437   7.340   5.139 -1.6886  0.9954  0.0153
 9987SOL    HW234647  11.581   7.349   5.184 -1.3419 -2.7772 -0.0893
 9988SOL     OW34648   2.055   9.880  11.315 -0.9653  0.3580  0.1089
 9988SOL    HW134649   2.109   9.847  11.243  1.2709 -0.6309  2.0710
 9988SOL    HW234650   2.026   9.802  11.361 -0.1380  0.9442  1.7229
 9989SOL     OW34651  10.572   9.382   9.566  0.4994  0.0415  0.0100
 9989SOL    HW134652  10.482   9.352   9.551  0.6105 -0.6273  0.6030
 9989SOL    HW234653  10.563   9.464   9.615  0.1950  0.6867 -1.1163
 9990SOL     OW34654   6.200   7.879   1.868  0.2434  0.8670 -0.7668
 9990SOL    HW134655   6.172   7.958   1.823  0.1875  1.1434 -0.2566
 9990SOL    HW234656   6.241   7.826   1.800  0.8474  1.6075 -0.9904
 9991SOL     OW34657   7.956   9.761   3.858  0.2721  0.0252  0.3035
 9991SOL    HW134658   8.002   9.773   3.942  1.4168  0.6305 -0.3799
 9991SOL    HW234659   7.977   9.671   3.833 -4.1997 -2.1046  3.0062
 9992SOL     OW34660   5.301   7.092   0.431 -0.0621 -0.3523 -0.4270
 9992SOL    HW134661   5.366   7.055   0.490  0.2914 -1.1452 -1.2739
 9992SOL    HW234662   5.273   7.173   0.472  0.3009 -0.7992  0.7244
 9993SOL     OW34663  11.059   8.713  10.714  0.5198 -0.1518  0.1677
 9993SOL    HW134664  11.128   8.773  10.741 -0.9412  2.5849 -1.6755
 9993SOL    HW234665  10.978   8.762  10.729 -0.6755 -1.0822 -2.5921
 9994SOL     OW34666   4.797   4.095   0.817 -0.6671 -0.4302 -0.1358
 9994SOL    HW134667   4.856   4.123   0.746 -0.8786 -1.6638 -0.8262
 9994SOL    HW234668   4.854   4.085   0.893 -0.6514  2.3455  0.3401
 9995SOL     OW34669   5.970   0.589   5.767 -0.4455 -0.4377 -0.6522
 9995SOL    HW134670   6.020   0.670   5.756  1.8472 -1.6910 -0.2645
 9995SOL    HW234671   5.897   0.596   5.706 -0.5928  2.1080 -0.2563
 9996SOL     OW34672   9.451   3.194   0.848 -0.1145  0.0829 -0.1652
 9996SOL    HW134673   9.379   3.257   0.847 -0.0929  0.1027 -0.4464
 9996SOL    HW234674   9.430   3.131   0.779 -0.6666 -0.8276  0.8021
 9997SOL     OW34675   8.029   0.651   2.679 -0.5373 -0.4338 -0.3375
 9997SOL    HW134676   7.971   0.575   2.683 -0.4663 -0.4605  0.2875
 9997SOL    HW234677   8.008   0.693   2.595  0.1427 -1.7008 -1.1785
 9998SOL     OW34678   4.366   2.718   2.854 -0.1752 -0.2141 -0.3247
 9998SOL    HW134679   4.421   2.731   2.776 -0.3257 -0.3907 -0.4619
 9998SOL    HW234680   4.419   2.751   2.926 -0.5621  1.2462 -0.6731
 9999SOL     OW34681   4.304   8.514   5.538 -0.0106  0.1704  0.4049
 9999SOL    HW134682   4.333   8.515   5.629  0.5697  1.6092  0.2197
 9999SOL    HW234683   4.208   8.513   5.544 -0.0329 -2.5696  1.0074
10000SOL     OW34684  11.254   8.193  10.102 -0.1662 -0.4916 -0.0247
10000SOL    HW134685  11.322   8.206  10.168  1.1890  0.5076 -1.5285
10000SOL    HW234686  11.293   8.134  10.038 -0.5209  0.4282 -1.1292
10001SOL     OW34687   1.849   6.957   4.055 -0.1813 -0.0706 -0.9273
10001SOL    HW134688   1.789   6.883   4.063  0.6454 -0.7375 -0.7584
10001SOL    HW234689   1.936   6.920   4.071  0.1959  1.0428 -0.2032
10002SOL     OW34690   2.552   5.267   4.905 -0.1601 -0.0384  0.1859
10002SOL    HW134691   2.574   5.358   4.891 -0.5451  0.1472  0.7429
10002SOL    HW234692   2.502   5.242   4.827  0.9035 -0.1124 -0.4947
10003SOL     OW34693   0.671  10.137   7.065 -0.0447 -0.1439  0.4906
10003SOL    HW134694   0.623  10.056   7.049 -0.5738  0.2817 -0.1046
10003SOL    HW234695   0.676  10.144   7.160 -0.6143 -0.5139  0.5486
10004SOL     OW34696   2.072   8.456   0.405 -0.1323  0.2227 -0.9500
10004SOL    HW134697   1.992   8.460   0.352 -0.6344  2.3537 -0.1274
10004SOL    HW234698   2.082   8.545   0.440  1.4194 -0.5425  0.6957
10005SOL     OW34699   1.366  10.542   7.148 -0.2644  0.4200 -0.0048
10005SOL    HW134700   1.292  10.571   7.201 -0.6907  1.3343 -1.0526
10005SOL    HW234701   1.332  10.542   7.058  0.7399 -0.0592 -0.4030
10006SOL     OW34702  10.850   9.996   3.618  0.5124  0.2553  0.6825
10006SOL    HW134703  10.941   9.987   3.589  1.0280  2.9768  1.1569
10006SOL    HW234704  10.841  10.089   3.639 -1.6673 -0.3827  3.0928
10007SOL     OW34705   5.421  10.209  10.862  0.4058  0.1724 -0.9255
10007SOL    HW134706   5.394  10.200  10.770 -0.8453  1.1121 -0.6773
10007SOL    HW234707   5.513  10.184  10.862 -0.0430 -1.7814 -2.0921
10008SOL     OW34708   5.284   3.273   6.496 -0.6337  0.5027  0.0554
10008SOL    HW134709   5.309   3.191   6.453 -1.1437  1.2703 -1.8275
10008SOL    HW234710   5.362   3.298   6.546 -0.0266 -0.4867 -0.3658
10009SOL     OW34711  11.602   7.178   4.815 -0.1465 -0.3575 -0.7162
10009SOL    HW134712  11.514   7.210   4.834  0.0121 -0.4727  0.2892
10009SOL    HW234713  11.640   7.246   4.759 -0.2956  0.5395  0.2362
10010SOL     OW34714   8.036   3.829  10.940  0.8069 -0.2539  0.3247
10010SOL    HW134715   7.992   3.767  10.998  1.4163 -0.2811  0.7655
10010SOL    HW234716   7.968   3.860  10.881 -0.2799  1.1852  2.2237
10011SOL     OW34717   8.012   8.384  10.403 -0.1812 -0.4030  0.2421
10011SOL    HW134718   8.077   8.451  10.381  0.5871 -1.7266 -1.8601
10011SOL    HW234719   8.053   8.333  10.473  0.3314 -0.1760  0.1171
10012SOL     OW34720  10.317   7.968   5.396 -0.1265  0.5302  0.2630
10012SOL    HW134721  10.233   7.933   5.428 -0.3903 -1.1343 -1.9743
10012SOL    HW234722  10.379   7.896   5.409 -0.0481  0.1302 -1.9542
10013SOL     OW34723   3.965  11.952   5.883  0.5813  0.1234 -0.0028
10013SOL    HW134724   4.008  11.930   5.965  1.3387 -0.7989 -0.6208
10013SOL    HW234725   3.964  12.048   5.880  2.2170  0.1655  0.2222
10014SOL     OW34726  11.644  11.375   5.174 -0.5646  0.0336 -0.5282
10014SOL    HW134727  11.599  11.359   5.256 -2.6014 -0.4693 -1.6865
10014SOL    HW234728  11.729  11.412   5.200  0.2477 -3.1152  1.9256
10015SOL     OW34729   1.206   5.741   5.591 -0.1200  0.1899 -0.9344
10015SOL    HW134730   1.225   5.764   5.683  0.5602  0.8909 -1.2359
10015SOL    HW234731   1.126   5.789   5.571  0.0848  0.5560 -0.8954
10016SOL     OW34732   7.662  11.218  11.158  0.0827 -0.2592  0.1523
10016SOL    HW134733   7.599  11.246  11.091  1.1984  0.2922 -0.7057
10016SOL    HW234734   7.739  11.189  11.109  1.5410  1.6252  1.1822
10017SOL     OW34735   0.729   2.100  11.852 -0.0823 -0.3407  0.3052
10017SOL    HW134736   0.687   2.165  11.796  0.2944 -0.5468 -0.2174
10017SOL    HW234737   0.811   2.141  11.880  0.2816 -0.6842 -0.2382
10018SOL     OW34738   8.042   9.129  10.900 -0.2576  0.2176  0.1886
10018SOL    HW134739   8.109   9.173  10.953 -1.7407  1.7454  0.9159
10018SOL    HW234740   7.968   9.118  10.960 -0.8258 -1.0413 -0.7062
10019SOL     OW34741   0.491   7.793   6.010  0.4721  0.3277  0.1819
10019SOL    HW134742   0.487   7.705   5.971 -0.8155 -0.5443  2.0979
10019SOL    HW234743   0.435   7.847   5.954 -0.6799 -0.6817  0.3136
10020SOL     OW34744  10.759   1.920   1.157  0.0524  0.0201  0.0046
10020SOL    HW134745  10.759   1.902   1.063 -1.7463  0.3591 -0.0888
10020SOL    HW234746  10.742   1.835   1.198  1.5482 -0.2633  0.0860
10021SOL     OW34747  11.779   7.947   7.661  0.8004  0.3375 -0.0624
10021SOL    HW134748  11.850   7.910   7.713 -0.8725 -0.6820  1.6377
10021SOL    HW234749  11.781   7.898   7.579  0.8662 -1.0756  0.7523
10022SOL     OW34750   3.769   2.883   8.737  0.4757  0.5323  0.2102
10022SOL    HW134751   3.826   2.817   8.777  0.2858  0.7398  0.8412
10022SOL    HW234752   3.821   2.963   8.738  0.6497  0.4335 -0.4163
10023SOL     OW34753  11.975   7.792   7.350  0.1460  0.3258  0.5927
10023SOL    HW134754  11.973   7.741   7.269  2.0320 -2.1534  1.9393
10023SOL    HW234755  12.041   7.860   7.335  0.0673  0.2481 -0.1305
10024SOL     OW34756   8.181   7.824   4.630  0.0304 -0.6035  0.2744
10024SOL    HW134757   8.171   7.732   4.653  1.4297 -1.1224 -1.0682
10024SOL    HW234758   8.273   7.843   4.645 -0.1860  0.5081  0.2673
10025SOL     OW34759   0.168   6.148   1.923 -0.0093  0.0534  0.2364
10025SOL    HW134760   0.262   6.159   1.915 -0.4021  2.8517 -2.4293
10025SOL    HW234761   0.146   6.077   1.863  0.4225 -1.1197  1.4298
10026SOL     OW34762  10.178   4.580   6.358 -0.2652  0.0994  0.0382
10026SOL    HW134763  10.269   4.603   6.378 -0.1051  0.0107 -0.5713
10026SOL    HW234764  10.177   4.565   6.263 -0.5447 -1.4994  0.2564
10027SOL     OW34765   4.255   1.029   7.573 -0.0395 -0.2305  0.0648
10027SOL    HW134766   4.294   1.087   7.507  0.4726  0.5660  1.0467
10027SOL    HW234767   4.238   0.948   7.525  1.2398 -0.0166 -0.8182
10028SOL     OW34768   5.573   6.960   2.627 -0.2481  0.0026  0.2918
10028SOL    HW134769   5.602   7.051   2.622 -2.4080  0.7481  0.0065
10028SOL    HW234770   5.621   6.916   2.557  0.4101  1.0598  0.0443
10029SOL     OW34771   5.138   4.822   3.823 -0.1863  0.4750 -0.1813
10029SOL    HW134772   5.054   4.777   3.826 -0.5137  1.1243  0.6483
10029SOL    HW234773   5.138   4.879   3.900  1.5544 -0.4749  0.5744
10030SOL     OW34774  11.908   8.075   8.512 -0.4337  0.2589 -0.1076
10030SOL    HW134775  11.866   8.152   8.549 -0.5109  0.1174  0.0983
10030SOL    HW234776  11.905   8.009   8.582  1.1843  0.6199  0.3328
10031SOL     OW34777  11.775   4.236   7.293  0.1869  0.4390  0.5866
10031SOL    HW134778  11.826   4.211   7.216 -0.6724 -1.0323  0.4408
10031SOL    HW234779  11.718   4.307   7.263 -2.9671 -2.6006 -1.4242
10032SOL     OW34780   2.308   6.191   9.217 -0.5549  0.3289  0.5067
10032SOL    HW134781   2.372   6.120   9.214  0.3778  1.0838  1.5371
10032SOL    HW234782   2.265   6.181   9.302 -1.3784  0.2052  0.0877
10033SOL     OW34783   1.913   8.344  11.382 -0.5033  0.3627 -0.0811
10033SOL    HW134784   1.898   8.269  11.324  1.2342 -0.6367  0.6891
10033SOL    HW234785   1.879   8.317  11.467  3.2486 -1.1042  1.1396
10034SOL     OW34786   3.281   1.947   7.826 -0.2172 -0.2819 -0.1767
10034SOL    HW134787   3.345   1.877   7.816 -0.7420 -0.8427  0.3019
10034SOL    HW234788   3.332   2.028   7.818  0.3137 -0.7110 -1.2168
10035SOL     OW34789   2.174  10.192   7.488 -0.1298 -0.3724  0.3859
10035SOL    HW134790   2.270  10.195   7.493 -0.0516  1.4819 -1.2858
10035SOL    HW234791   2.146  10.225   7.573  0.7159 -0.1090  0.5798
10036SOL     OW34792  11.828   9.886   3.359  0.3838  0.2194 -0.3671
10036SOL    HW134793  11.843   9.847   3.273 -1.9666 -0.8544 -0.3678
10036SOL    HW234794  11.831   9.813   3.420  0.1186  0.6818  0.2100
10037SOL     OW34795   4.819   8.885   7.524  0.5161 -0.1227  0.1785
10037SOL    HW134796   4.886   8.842   7.577  0.6772  0.2031  0.2426
10037SOL    HW234797   4.737   8.845   7.551  0.7437 -1.0083 -0.3704
10038SOL     OW34798   0.925  10.975   4.957  0.0487  0.4374 -0.4930
10038SOL    HW134799   0.921  11.010   4.868 -3.7835  0.4490 -0.5020
10038SOL    HW234800   0.973  11.040   5.007  0.5940  1.3779 -2.1613
10039SOL     OW34801   0.168   1.478   0.681 -0.3611 -0.1530 -0.0213
10039SOL    HW134802   0.243   1.419   0.691  0.0425  0.6364  2.8429
10039SOL    HW234803   0.202   1.550   0.627  0.8111 -0.1154  0.7089
10040SOL     OW34804   0.583   5.869   4.040  0.1222 -0.1452  0.4751
10040SOL    HW134805   0.517   5.862   4.109  0.1939  0.0773  0.5679
10040SOL    HW234806   0.534   5.899   3.963  0.0347 -0.4375  0.4158
10041SOL     OW34807   5.109  11.335   0.256 -0.3282 -0.6158 -0.0003
10041SOL    HW134808   5.125  11.288   0.175  0.9249  0.8984 -0.6740
10041SOL    HW234809   5.056  11.410   0.230 -0.0258 -0.1894  0.5986
10042SOL     OW34810   5.638   1.909  11.215 -0.0386  0.2551 -1.1487
10042SOL    HW134811   5.708   1.964  11.182  1.2226 -0.6549 -0.0978
10042SOL    HW234812   5.671   1.874  11.298 -1.1298 -1.3849 -1.3413
10043SOL     OW34813   5.258   9.993   5.761 -0.2605 -0.5202 -0.3253
10043SOL    HW134814   5.256  10.076   5.808  0.4851 -1.2545  1.0659
10043SOL    HW234815   5.305   9.934   5.820  0.1989 -1.6361 -1.7641
10044SOL     OW34816   4.472   7.569   5.945 -0.2082 -0.2272 -0.0958
10044SOL    HW134817   4.512   7.521   5.873  0.4674 -0.2752  0.3032
10044SOL    HW234818   4.419   7.504   5.991 -1.3671 -0.0003 -1.0580
10045SOL     OW34819  11.832  11.482   8.780  0.3519 -0.3752  0.2442
10045SOL    HW134820  11.746  11.461   8.816  1.2467 -2.8190  1.1351
10045SOL    HW234821  11.813  11.514   8.691 -1.4094 -3.1709 -0.5192
10046SOL     OW34822   1.613   4.289   5.405  0.1650 -0.1550  0.4297
10046SOL    HW134823   1.614   4.240   5.323 -1.0474 -0.7649  0.7545
10046SOL    HW234824   1.551   4.361   5.389  1.2404  0.7724  0.2589
10047SOL     OW34825   1.147   8.460   4.082  0.1904  0.0911 -0.6145
10047SOL    HW134826   1.068   8.483   4.033  0.4397 -2.5464 -2.4809
10047SOL    HW234827   1.208   8.430   4.015  1.8795 -0.2796  1.0310
10048SOL     OW34828   1.438   2.281  10.798 -0.0847 -0.3137 -0.2536
10048SOL    HW134829   1.432   2.255  10.706  0.3860 -0.9577 -0.1124
10048SOL    HW234830   1.480   2.367  10.796 -0.6119 -0.0629 -0.6698
10049SOL     OW34831   2.059   7.082   0.992 -0.3210 -0.6723 -0.0323
10049SOL    HW134832   2.147   7.119   0.985 -0.4428 -0.6554 -2.0558
10049SOL    HW234833   2.046   7.036   0.909 -2.3690 -0.3463  0.0601
10050SOL     OW34834   8.860   2.790   6.397  0.2830 -0.1929 -0.4284
10050SOL    HW134835   8.925   2.853   6.426 -0.5215  0.1548  0.7063
10050SOL    HW234836   8.776   2.835   6.407 -0.2855 -1.2999  0.0185
10051SOL     OW34837   0.734   4.920   3.048  0.0777  0.5184 -0.3491
10051SOL    HW134838   0.756   4.950   3.136  0.4381 -1.7522  0.4019
10051SOL    HW234839   0.805   4.860   3.024 -2.4305 -2.9267  0.0014
10052SOL     OW34840   9.687  10.872   2.549 -0.3827 -0.1964 -0.7307
10052SOL    HW134841   9.673  10.966   2.539 -0.5470 -0.0912  0.3733
10052SOL    HW234842   9.599  10.836   2.565 -0.3214 -0.5397 -1.1438
10053SOL     OW34843   8.152   6.342   8.089  0.0872 -0.1008  0.1198
10053SOL    HW134844   8.178   6.398   8.163 -1.2125 -0.0834  0.6003
10053SOL    HW234845   8.175   6.393   8.011  0.8179  0.1980  0.5234
10054SOL     OW34846  11.233   3.324   3.784 -0.2895  0.4377 -0.7924
10054SOL    HW134847  11.249   3.231   3.804  0.8487  1.0080  1.1894
10054SOL    HW234848  11.271   3.336   3.697 -2.3820 -1.4041 -2.0754
10055SOL     OW34849   3.919   5.806   8.240 -0.2268 -0.1011  0.1985
10055SOL    HW134850   3.970   5.887   8.235  0.9738 -0.8958 -0.9253
10055SOL    HW234851   3.917   5.773   8.151 -0.4043 -1.4858  0.6933
10056SOL     OW34852   1.085   4.096   3.512  0.2406 -0.0483 -0.3381
10056SOL    HW134853   1.176   4.066   3.514  0.2617  0.0079 -0.4239
10056SOL    HW234854   1.033   4.016   3.517  0.2690  0.0257  1.8930
10057SOL     OW34855   6.169   9.301   3.390 -0.0421 -0.7432 -0.3218
10057SOL    HW134856   6.134   9.369   3.446 -0.7972  0.1894 -1.8592
10057SOL    HW234857   6.106   9.293   3.319  2.3572  0.4183 -2.7634
10058SOL     OW34858   1.503   6.788   5.319 -0.2737  0.5101  0.1714
10058SOL    HW134859   1.566   6.861   5.317 -0.9726  1.2235  2.0764
10058SOL    HW234860   1.454   6.801   5.400 -1.9421 -0.8320 -0.5627
10059SOL     OW34861  11.197   7.272  10.405  0.3087 -0.3547 -0.3072
10059SOL    HW134862  11.261   7.213  10.445 -0.2806 -0.5490  0.3604
10059SOL    HW234863  11.187   7.343  10.468  0.7992  0.3253 -0.9753
10060SOL     OW34864   0.429   0.314  10.913 -0.4227 -0.9725  0.1024
10060SOL    HW134865   0.464   0.331  11.001  1.4266 -1.7694 -0.4299
10060SOL    HW234866   0.483   0.368  10.855 -1.8567 -0.1735 -0.5620
10061SOL     OW34867   4.175   0.490   9.956 -0.4495 -0.3394 -0.1325
10061SOL    HW134868   4.110   0.423   9.934 -0.5867 -0.2987  0.1392
10061SOL    HW234869   4.207   0.520   9.871  0.2728 -1.3839 -0.2480
10062SOL     OW34870   9.091   8.100   1.821  0.4506 -0.0197 -0.1847
10062SOL    HW134871   9.003   8.126   1.849  0.5636  0.0438  0.1266
10062SOL    HW234872   9.089   8.106   1.726  0.5142  1.3259 -0.1242
10063SOL     OW34873   2.152  10.257   4.386 -0.6923 -0.1439 -0.1257
10063SOL    HW134874   2.221  10.293   4.330 -0.3250  0.1653  0.5187
10063SOL    HW234875   2.071  10.290   4.347 -0.6582 -2.1360 -2.1074
10064SOL     OW34876  11.803  11.296   8.183  0.1545 -0.7206  0.2342
10064SOL    HW134877  11.871  11.359   8.206  0.7492 -1.6171  0.9491
10064SOL    HW234878  11.722  11.338   8.212  0.6378 -0.6944  1.6161
10065SOL     OW34879   1.577   1.382   4.789 -0.6366  0.4424 -0.1825
10065SOL    HW134880   1.608   1.456   4.737 -1.4893 -0.5329 -2.1915
10065SOL    HW234881   1.506   1.418   4.842 -0.0236  1.3772  0.0241
10066SOL     OW34882  10.626   7.939   2.724 -0.2386  0.3803  0.2929
10066SOL    HW134883  10.685   7.953   2.798  2.1954  1.0637 -1.6305
10066SOL    HW234884  10.659   7.859   2.683 -0.8088  0.6560 -0.7169
10067SOL     OW34885   9.719   1.696   6.491  0.5948 -0.0687 -0.2406
10067SOL    HW134886   9.764   1.755   6.552  1.5361 -2.3884  1.4739
10067SOL    HW234887   9.768   1.704   6.409  0.0886  2.1720 -0.3963
10068SOL     OW34888  10.687   4.656   5.028 -0.4701 -0.3087 -0.3733
10068SOL    HW134889  10.623   4.585   5.039 -0.6519 -0.2984 -1.2476
10068SOL    HW234890  10.647   4.731   5.071  0.6773 -1.2092  2.5284
10069SOL     OW34891   1.746   1.235   9.287  0.7736  0.5894  0.1027
10069SOL    HW134892   1.792   1.233   9.371  0.1350  0.4919  0.4517
10069SOL    HW234893   1.691   1.157   9.287  1.0698  0.3690 -0.5842
10070SOL     OW34894   6.055   5.322   7.982  1.1188 -0.0210 -0.6065
10070SOL    HW134895   6.106   5.402   7.971  0.0339  0.7458 -0.2871
10070SOL    HW234896   6.063   5.301   8.075  0.4432  0.3934 -0.4514
10071SOL     OW34897   0.034   7.734  10.907  0.3901 -0.0878 -0.0464
10071SOL    HW134898  -0.047   7.759  10.951  0.8675  0.7064  0.3984
10071SOL    HW234899   0.100   7.793  10.942  0.6741  1.0541 -2.3195
10072SOL     OW34900   1.535   5.869  10.679  0.2422 -0.3484 -0.5085
10072SOL    HW134901   1.586   5.858  10.759 -0.4871  0.8610  0.1520
10072SOL    HW234902   1.461   5.809  10.690  0.1991 -0.2623 -0.3149
10073SOL     OW34903  11.518   3.209   1.810 -0.1590  0.5343  0.1075
10073SOL    HW134904  11.541   3.230   1.720 -0.1203 -1.1987 -0.3176
10073SOL    HW234905  11.602   3.206   1.856 -0.2503  2.5058  0.4991
10074SOL     OW34906   1.076   0.590   2.175  0.0936 -0.7117 -0.2125
10074SOL    HW134907   1.122   0.641   2.108  1.9922 -1.8598  0.1314
10074SOL    HW234908   1.081   0.644   2.254  1.4120 -1.0636 -0.0379
10075SOL     OW34909  10.051   2.994   5.363 -0.2976 -0.1914  0.2955
10075SOL    HW134910  10.058   2.909   5.406 -0.7917  0.2898  1.3559
10075SOL    HW234911  10.137   3.036   5.377 -0.0768 -0.4803 -0.1715
10076SOL     OW34912   6.128   8.176   5.601  0.0808  0.0122 -0.1148
10076SOL    HW134913   6.207   8.124   5.586  0.0876  0.0314 -0.1450
10076SOL    HW234914   6.072   8.119   5.655 -0.3761 -0.4556 -1.0672
10077SOL     OW34915   6.431   5.918   8.899 -0.2958 -0.3550 -0.0957
10077SOL    HW134916   6.339   5.901   8.923 -0.7702  0.4695 -1.2623
10077SOL    HW234917   6.436   5.898   8.806  0.9504 -1.2439  0.1335
10078SOL     OW34918   2.134   9.520  10.180 -0.0980  0.0016 -0.0339
10078SOL    HW134919   2.100   9.558  10.098  0.1542 -1.4535 -0.8410
10078SOL    HW234920   2.220   9.560  10.191  0.1763 -0.3428 -0.8819
10079SOL     OW34921  11.358   2.372   5.012  0.4634 -0.2035 -0.0435
10079SOL    HW134922  11.273   2.417   5.018 -0.0947 -1.3244  0.5964
10079SOL    HW234923  11.338   2.288   4.972  1.4343 -0.1207 -0.7537
10080SOL     OW34924   9.982   5.212   5.826 -0.2364 -0.7134 -0.1174
10080SOL    HW134925  10.052   5.170   5.876 -0.7872  0.1582  1.4709
10080SOL    HW234926  10.001   5.191   5.734  1.7665 -0.9793  0.3186
10081SOL     OW34927   3.916   1.221   4.170 -0.2300  0.3283 -0.1578
10081SOL    HW134928   3.876   1.244   4.086  0.6648 -0.7617 -0.9127
10081SOL    HW234929   3.876   1.138   4.194 -0.2944  0.5083  0.3680
10082SOL     OW34930  10.824   5.461  11.512 -0.3025 -0.5051 -0.3752
10082SOL    HW134931  10.823   5.557  11.518  1.6797 -0.4892  0.3076
10082SOL    HW234932  10.847   5.432  11.601  0.1608 -1.5676 -0.8270
10083SOL     OW34933   5.709  11.206  11.857 -0.5062  0.1404  0.4486
10083SOL    HW134934   5.674  11.212  11.946 -0.6910  0.1397  0.3756
10083SOL    HW234935   5.757  11.124  11.856 -0.3110  0.2515  0.6169
10084SOL     OW34936  11.691   6.231  11.317  0.0494  0.2967 -0.2344
10084SOL    HW134937  11.755   6.193  11.258 -0.5644 -1.0916 -0.0509
10084SOL    HW234938  11.692   6.173  11.393 -2.6479 -0.8338 -0.9513
10085SOL     OW34939   7.030   2.829   8.330  0.2013 -0.6782 -0.3991
10085SOL    HW134940   7.123   2.821   8.348 -0.2515 -4.7618  1.3703
10085SOL    HW234941   6.994   2.875   8.406  0.5323 -0.9882 -0.0556
10086SOL     OW34942   2.375   7.724   1.116  0.3717  0.4693 -0.2824
10086SOL    HW134943   2.388   7.638   1.156  1.7585  0.4326 -0.7771
10086SOL    HW234944   2.312   7.708   1.045 -1.0021  0.2793  0.9337
10087SOL     OW34945   6.291   1.167   4.366 -0.5250  0.2010  0.1775
10087SOL    HW134946   6.353   1.238   4.383  0.0202  0.2937 -1.8979
10087SOL    HW234947   6.210   1.211   4.343 -0.0365  0.2128 -1.6471
10088SOL     OW34948   0.576   2.207   7.401 -0.1439  0.1528  0.2653
10088SOL    HW134949   0.580   2.125   7.450 -1.0235  0.7005  1.2911
10088SOL    HW234950   0.661   2.214   7.358  0.3874 -0.6885  1.1481
10089SOL     OW34951   3.816  10.390   2.309 -0.1642 -0.1520 -0.0039
10089SOL    HW134952   3.762  10.395   2.230  0.1602  0.0395 -0.2138
10089SOL    HW234953   3.900  10.428   2.284 -0.2207  0.3724  0.5736
10090SOL     OW34954   3.199  11.047   2.630 -0.4126 -0.4175 -0.3790
10090SOL    HW134955   3.203  11.099   2.710 -0.4627 -1.7494  0.5223
10090SOL    HW234956   3.200  11.112   2.559  1.5126  0.7401  0.6136
10091SOL     OW34957   2.596   4.898   5.104  0.1251 -0.4495  0.1484
10091SOL    HW134958   2.656   4.973   5.100  0.7272 -0.9581 -0.6342
10091SOL    HW234959   2.510   4.936   5.085  0.0723  0.3942  1.9120
10092SOL     OW34960   1.406   9.299   9.524 -0.8517 -0.2221  0.2695
10092SOL    HW134961   1.384   9.229   9.462  2.2967 -1.3907  0.3175
10092SOL    HW234962   1.374   9.379   9.482 -3.3246 -1.4603 -0.4318
10093SOL     OW34963   9.928   6.114   8.028 -0.3646  0.2277 -0.3233
10093SOL    HW134964   9.982   6.036   8.014  2.3215  1.2846  2.6907
10093SOL    HW234965   9.953   6.173   7.957 -1.1920 -0.9949 -1.6748
10094SOL     OW34966   2.679   1.285   5.859 -0.2728 -0.1413  0.3299
10094SOL    HW134967   2.606   1.307   5.917  0.4670  2.6937  0.3418
10094SOL    HW234968   2.640   1.277   5.772 -1.0729 -2.3557  0.8212
10095SOL     OW34969   1.734   2.906   9.459 -0.6617  0.1095 -0.5121
10095SOL    HW134970   1.745   2.869   9.372 -2.8017 -1.6887 -0.1010
10095SOL    HW234971   1.673   2.979   9.447  0.9392  1.4660 -0.8137
10096SOL     OW34972   9.663   5.365  10.324  0.6739 -0.4907  0.5668
10096SOL    HW134973   9.618   5.355  10.408 -0.6839  0.5371  0.0033
10096SOL    HW234974   9.638   5.453  10.295 -0.6198 -1.5720 -1.8771
10097SOL     OW34975   4.639   6.419   0.794 -0.1780  0.8406  0.1248
10097SOL    HW134976   4.599   6.472   0.725 -0.7808  0.0615 -0.1439
10097SOL    HW234977   4.587   6.438   0.872 -0.4630  0.5662  0.0033
10098SOL     OW34978  11.934   3.429   9.315  0.0673 -0.0395  0.1452
10098SOL    HW134979  11.894   3.516   9.308  1.2182  0.6212  1.1815
10098SOL    HW234980  12.028   3.446   9.317  0.4224 -1.4931 -1.6327
10099SOL     OW34981   6.489   8.694  11.809 -0.0943 -0.2242  0.6635
10099SOL    HW134982   6.466   8.614  11.857  0.3059  0.2869  1.7372
10099SOL    HW234983   6.422   8.758  11.834 -0.9929 -0.4803 -0.9678
10100SOL     OW34984  11.524   7.730   0.424 -0.2412  0.6143  0.0550
10100SOL    HW134985  11.613   7.696   0.415 -0.4987  0.4521 -3.1358
10100SOL    HW234986  11.533   7.807   0.480  1.3478 -1.1222  2.3471
10101SOL     OW34987   7.446  11.900   9.668  0.3554  0.4083 -0.0905
10101SOL    HW134988   7.351  11.915   9.665  0.1260 -0.9002 -2.7526
10101SOL    HW234989   7.458  11.835   9.737 -0.6659  0.7171  0.3943
10102SOL     OW34990   6.465   1.882  10.057  0.1354  0.2288  0.4947
10102SOL    HW134991   6.485   1.788  10.060  2.2290  0.6401  0.8084
10102SOL    HW234992   6.402   1.890   9.985 -0.2897 -1.4368  0.6270
10103SOL     OW34993  11.149   3.753   5.062 -0.2954 -0.1076 -0.1703
10103SOL    HW134994  11.216   3.806   5.019 -0.3322  0.0986  0.0220
10103SOL    HW234995  11.197   3.695   5.120 -0.3763  1.5010  1.5769
10104SOL     OW34996  11.108  10.049   4.756 -0.5145 -0.1926 -0.1869
10104SOL    HW134997  11.148  10.109   4.694 -1.5462 -0.5949 -1.2657
10104SOL    HW234998  11.074   9.978   4.702 -0.2651 -1.2221  0.9637
10105SOL     OW34999   4.057   7.249   8.889  0.2541 -0.0212 -0.2933
10105SOL    HW135000   4.061   7.170   8.834 -0.3006 -0.0761 -0.2635
10105SOL    HW235001   4.111   7.313   8.842  0.6777 -0.4030 -0.3375
10106SOL     OW35002   5.958   6.491   2.693  0.2786 -0.3291  0.0272
10106SOL    HW135003   5.957   6.568   2.749  0.4586  0.4064 -0.9509
10106SOL    HW235004   6.050   6.475   2.675  0.2207 -0.5119 -0.1121
10107SOL     OW35005  10.390   4.315   4.547  0.2540 -0.1308 -0.3634
10107SOL    HW135006  10.472   4.363   4.534 -0.4866  2.4454  3.0811
10107SOL    HW235007  10.415   4.237   4.595  0.7363  0.6397  0.6692
10108SOL     OW35008   8.350  10.705   8.768 -0.6148  0.1406  0.5187
10108SOL    HW135009   8.363  10.745   8.854 -0.9777  1.2594  0.0701
10108SOL    HW235010   8.255  10.694   8.761 -0.5869  0.0567  0.2680
10109SOL     OW35011   4.302   0.716   5.766  0.6186  0.2114  0.1467
10109SOL    HW135012   4.239   0.669   5.712  0.5111 -1.6417  1.7802
10109SOL    HW235013   4.368   0.651   5.788  2.7468  1.8820 -0.8321
10110SOL     OW35014  10.143   8.035   9.244  0.4448  0.0923 -0.5667
10110SOL    HW135015  10.086   8.024   9.168  0.3836  0.2092 -0.5381
10110SOL    HW235016  10.110   7.972   9.308 -0.4929  1.0791 -0.0536
10111SOL     OW35017   6.578   1.741  11.520  0.1064  0.0333 -0.2763
10111SOL    HW135018   6.580   1.654  11.560 -0.8134  0.4151  0.6510
10111SOL    HW235019   6.587   1.802  11.593 -1.7833  0.7588 -0.5951
10112SOL     OW35020  11.538   3.860  10.425  0.0162 -0.0184  0.0656
10112SOL    HW135021  11.518   3.927  10.359 -1.4700  0.5180  1.0009
10112SOL    HW235022  11.619   3.820  10.394  0.5331  1.6716 -0.9397
10113SOL     OW35023   6.187   2.723  10.122 -0.3994  0.3253 -0.7882
10113SOL    HW135024   6.174   2.733  10.027 -3.2093 -2.3154 -0.8640
10113SOL    HW235025   6.100   2.741  10.159  0.3909  0.2479  1.1862
10114SOL     OW35026  11.426   0.491   8.270 -0.3099 -0.1739 -0.3085
10114SOL    HW135027  11.419   0.584   8.248 -1.3832 -0.3098 -0.5787
10114SOL    HW235028  11.412   0.446   8.187 -2.4923 -0.6364  0.2397
10115SOL     OW35029   7.693   4.966   9.888  0.1828  0.0119  0.1848
10115SOL    HW135030   7.728   4.984   9.801 -1.0011  1.6188 -0.0033
10115SOL    HW235031   7.726   5.037   9.942  0.2231 -0.5119  0.8647
10116SOL     OW35032   3.676   3.129   8.011  0.4321 -0.5209  0.0891
10116SOL    HW135033   3.692   3.047   8.057 -1.4979 -1.0099 -0.0252
10116SOL    HW235034   3.760   3.149   7.968  1.3818 -1.6019  1.3595
10117SOL     OW35035  11.098  11.428   2.916  0.0887 -0.3092  0.4510
10117SOL    HW135036  11.025  11.479   2.951  1.0274  0.9799  0.6206
10117SOL    HW235037  11.064  11.339   2.907 -1.4970  0.2713  0.4859
10118SOL     OW35038   5.207   1.918   8.616  0.1322  0.0967 -0.3797
10118SOL    HW135039   5.211   1.861   8.693 -0.4372 -1.0453 -1.1599
10118SOL    HW235040   5.152   1.992   8.644 -0.5213 -0.5728  0.1500
10119SOL     OW35041   2.419  11.591   2.957  0.4309 -0.0039 -0.2316
10119SOL    HW135042   2.354  11.618   3.023  1.3806  0.7684  0.4096
10119SOL    HW235043   2.367  11.553   2.887 -0.5658 -2.1704  1.5598
10120SOL     OW35044   2.379   1.367   7.564 -0.2177 -0.0959 -0.0001
10120SOL    HW135045   2.470   1.336   7.564 -0.3677 -0.5392 -0.6996
10120SOL    HW235046   2.339   1.321   7.638 -0.3311 -1.2682 -0.7772
10121SOL     OW35047   6.926  10.391   5.860  0.2843 -0.0506  0.1183
10121SOL    HW135048   6.923  10.298   5.837  1.2426  0.1907 -1.1118
10121SOL    HW235049   6.996  10.427   5.805 -1.1112  1.7288 -0.6044
10122SOL     OW35050   7.826   2.376  11.322 -0.2858 -0.3342  0.4411
10122SOL    HW135051   7.809   2.470  11.315  0.5022 -0.2528 -0.8222
10122SOL    HW235052   7.913   2.370  11.363  0.5820 -0.3932 -1.2829
10123SOL     OW35053   2.171   9.244  11.867 -0.7514 -0.0088  0.4264
10123SOL    HW135054   2.093   9.208  11.826 -0.2036 -1.6577  0.7685
10123SOL    HW235055   2.144   9.264  11.957 -0.5214 -1.6341  0.8831
10124SOL     OW35056   9.046   3.898   2.435 -0.1769  0.3794  0.7885
10124SOL    HW135057   9.127   3.940   2.463 -0.3219  0.4908  1.0392
10124SOL    HW235058   9.062   3.875   2.343 -0.4143  1.7459  0.3895
10125SOL     OW35059   4.636   0.989   3.698  0.2599  0.4242 -0.2552
10125SOL    HW135060   4.616   0.996   3.791 -1.1544 -0.1611 -0.4946
10125SOL    HW235061   4.640   0.895   3.681 -3.1520  0.3714 -1.4665
10126SOL     OW35062  11.850   0.259   4.188 -0.2819  0.4554 -0.4016
10126SOL    HW135063  11.900   0.340   4.179 -0.2084  0.3647 -0.8641
10126SOL    HW235064  11.770   0.276   4.138  0.0063  0.0239 -1.0164
10127SOL     OW35065  11.305   0.535   4.584  0.3067 -0.4098  0.3960
10127SOL    HW135066  11.388   0.566   4.619  0.9153  0.8456 -1.9959
10127SOL    HW235067  11.264   0.612   4.546 -1.4600 -1.2309  0.5255
10128SOL     OW35068  11.290   2.889   1.567 -0.3986  0.3332 -0.2466
10128SOL    HW135069  11.244   2.894   1.483 -0.0165  0.4551 -0.4490
10128SOL    HW235070  11.324   2.978   1.581  0.1155  0.1466 -0.2900
10129SOL     OW35071   1.974  11.511   8.166  0.0668  0.0240  0.1655
10129SOL    HW135072   1.912  11.489   8.097 -0.0676 -3.0776  1.1350
10129SOL    HW235073   1.982  11.431   8.218  2.1136  1.4432  2.2453
10130SOL     OW35074   8.298  11.507   0.523  0.2845  0.3713 -0.5781
10130SOL    HW135075   8.257  11.455   0.454  1.0978  1.0471 -1.5964
10130SOL    HW235076   8.383  11.532   0.487  0.3957  1.4123  0.3491
10131SOL     OW35077   7.655   7.119   0.697 -1.2214 -0.0907 -0.4114
10131SOL    HW135078   7.590   7.168   0.646 -3.0040 -0.5077  1.3531
10131SOL    HW235079   7.654   7.160   0.784  1.5156  0.4107 -0.5073
10132SOL     OW35080   4.620   0.325   3.365 -0.0389 -0.1415  0.0445
10132SOL    HW135081   4.663   0.259   3.419 -0.1235 -1.3728 -1.3160
10132SOL    HW235082   4.557   0.275   3.312 -1.2725  1.2606  0.1151
10133SOL     OW35083   2.845  10.304   8.103  0.2254 -0.7751 -0.7599
10133SOL    HW135084   2.762  10.300   8.150  0.0390  2.0746 -0.6415
10133SOL    HW235085   2.819  10.306   8.010  0.1720 -0.5160 -0.7426
10134SOL     OW35086   3.859   4.181   7.556  0.0473 -0.1053  0.2112
10134SOL    HW135087   3.834   4.196   7.647 -0.9004 -0.6133  0.0462
10134SOL    HW235088   3.776   4.167   7.510  0.4118  1.2686 -0.9520
10135SOL     OW35089   1.174   7.873   4.626  0.3370 -0.1419  0.8589
10135SOL    HW135090   1.173   7.957   4.580 -0.6741 -1.5232 -1.8949
10135SOL    HW235091   1.258   7.834   4.601 -0.3000 -0.9841 -0.0376
10136SOL     OW35092   8.374   1.410   2.090  0.2413 -0.4901 -0.1235
10136SOL    HW135093   8.328   1.488   2.122 -0.6359 -1.8286  2.1344
10136SOL    HW235094   8.467   1.435   2.090 -0.1310  1.0503 -1.0984
10137SOL     OW35095  11.592   4.404   0.144 -0.3792 -0.2695 -0.1808
10137SOL    HW135096  11.673   4.442   0.180 -0.9020  0.4707  0.2575
10137SOL    HW235097  11.621   4.352   0.070  0.8454 -2.4332  1.6813
10138SOL     OW35098   5.624   4.764  10.343  0.0352 -0.0083  0.3334
10138SOL    HW135099   5.656   4.721  10.263 -1.8707 -0.6381 -0.1621
10138SOL    HW235100   5.661   4.713  10.414 -1.0410 -1.6680 -0.2352
10139SOL     OW35101   5.834   9.209   4.329 -0.1234 -0.0556 -0.0473
10139SOL    HW135102   5.773   9.256   4.385  0.7917 -0.8285  1.6678
10139SOL    HW235103   5.791   9.207   4.243 -2.6181 -0.8074  1.1375
10140SOL     OW35104   7.903   2.788   5.350  0.0141 -0.0579 -0.2105
10140SOL    HW135105   7.983   2.836   5.370  0.0934 -0.7646  1.3278
10140SOL    HW235106   7.930   2.696   5.345 -0.7773 -0.3799  0.9889
10141SOL     OW35107   1.839   4.175   2.856  0.2167  0.2435 -0.2700
10141SOL    HW135108   1.772   4.114   2.824  0.3463  0.6276 -1.3113
10141SOL    HW235109   1.803   4.262   2.838  0.9568  0.4543 -0.8036
10142SOL     OW35110   2.987   4.380   4.229 -0.4352  0.5376  0.2082
10142SOL    HW135111   3.029   4.315   4.174 -1.0125  0.5445 -0.2552
10142SOL    HW235112   2.896   4.382   4.199 -0.8476  0.3051  1.3720
10143SOL     OW35113   4.908   2.844   2.422  0.7631  0.5151 -0.1548
10143SOL    HW135114   4.924   2.749   2.422  0.3112  0.4375  0.4342
10143SOL    HW235115   4.932   2.873   2.509  0.4389  0.8660 -0.1797
10144SOL     OW35116   0.977   6.918   9.099  0.4931 -0.2881  0.2934
10144SOL    HW135117   0.949   6.843   9.046 -0.8661  0.1937  0.2704
10144SOL    HW235118   0.960   6.890   9.189  1.4257 -0.5681  0.3835
10145SOL     OW35119   0.785   6.085   0.617 -0.2158 -0.3022  0.2775
10145SOL    HW135120   0.831   6.044   0.544  0.3563 -0.1744  0.5665
10145SOL    HW235121   0.813   6.176   0.615 -2.6809  0.5430 -1.3453
10146SOL     OW35122  11.467   4.902  10.869  0.1258  0.2849 -0.0948
10146SOL    HW135123  11.381   4.867  10.893  0.1123 -0.9039 -1.7273
10146SOL    HW235124  11.470   4.896  10.773  1.2603  2.1700 -0.2343
10147SOL     OW35125  11.053   4.486   9.861  0.3566  0.8254 -0.8195
10147SOL    HW135126  10.968   4.529   9.874  0.7496  1.7921 -1.3690
10147SOL    HW235127  11.033   4.392   9.868 -0.4138  1.0777  1.0171
10148SOL     OW35128   8.716   8.632   8.129  0.4775 -0.0075 -0.5146
10148SOL    HW135129   8.807   8.627   8.098  0.3187  0.1375 -1.0093
10148SOL    HW235130   8.702   8.549   8.174  0.9895  0.1463 -0.0600
10149SOL     OW35131   6.822   5.770   5.282  0.3984  0.5588  0.0550
10149SOL    HW135132   6.909   5.732   5.266  0.3410  0.2410  0.4710
10149SOL    HW235133   6.830   5.814   5.366 -0.5020 -1.6125  1.3676
10150SOL     OW35134   5.783   6.452   9.773  0.2848  0.3139 -0.4590
10150SOL    HW135135   5.708   6.512   9.773  0.3433  0.4211 -1.8356
10150SOL    HW235136   5.774   6.402   9.855 -1.1023  0.5596 -0.4372
10151SOL     OW35137   0.741   0.223   1.036 -0.4821  0.2620 -0.4343
10151SOL    HW135138   0.794   0.149   1.065  1.5627  2.0559  0.7108
10151SOL    HW235139   0.686   0.244   1.112  2.7170  3.0633  1.3803
10152SOL     OW35140  10.833   6.467   3.955  0.4936  0.2070 -0.0297
10152SOL    HW135141  10.760   6.500   3.903  0.2280  0.4239  0.4748
10152SOL    HW235142  10.801   6.468   4.045  0.9888 -0.0529  0.1548
10153SOL     OW35143   4.159   4.853   1.509  0.2003  0.2674  0.5107
10153SOL    HW135144   4.067   4.858   1.485  0.2982  0.7479  0.2336
10153SOL    HW235145   4.163   4.890   1.597  0.3077  1.4303  0.0395
10154SOL     OW35146  10.568  11.735   5.268  0.4032 -0.2019 -0.2853
10154SOL    HW135147  10.523  11.698   5.344  2.9689 -1.3512  0.7748
10154SOL    HW235148  10.574  11.662   5.206  0.9927 -0.1163 -0.3292
10155SOL     OW35149  10.620   1.851   0.054  0.6178 -0.4214 -0.2726
10155SOL    HW135150  10.654   1.762   0.040 -0.0071 -0.4327 -2.0640
10155SOL    HW235151  10.687   1.895   0.104  1.4525 -1.5877 -0.3181
10156SOL     OW35152   6.090  10.520   0.482 -0.2828 -0.5033 -0.0642
10156SOL    HW135153   6.081  10.614   0.462  0.1140 -0.5812 -0.6551
10156SOL    HW235154   6.034  10.506   0.558  0.0772  0.3351  0.3795
10157SOL     OW35155   1.492   4.823   0.146 -0.3044  0.0740  0.3679
10157SOL    HW135156   1.584   4.850   0.155 -0.2606 -0.2915  1.0497
10157SOL    HW235157   1.487   4.786   0.057 -0.1375  1.3802 -0.2117
10158SOL     OW35158   3.556   6.888  10.398 -0.2004  0.4911 -0.5932
10158SOL    HW135159   3.608   6.833  10.340  0.7196  0.7415 -0.0368
10158SOL    HW235160   3.471   6.844  10.403  0.4785 -0.8516 -0.2146
10159SOL     OW35161   5.813   6.110   6.027 -0.5353  0.3742 -0.9737
10159SOL    HW135162   5.879   6.094   5.960  1.7220  1.8193  0.7765
10159SOL    HW235163   5.800   6.025   6.070  0.1306  0.0726 -1.3602
10160SOL     OW35164   3.138   8.418   3.789  0.0613 -0.1331 -0.0615
10160SOL    HW135165   3.212   8.381   3.740  0.0630 -0.4110  0.1476
10160SOL    HW235166   3.094   8.342   3.827 -1.4381 -0.1592 -1.6984
10161SOL     OW35167  11.895   2.408   8.462  1.0216  0.0541 -0.7537
10161SOL    HW135168  11.838   2.447   8.528  1.8704  1.6739 -0.9186
10161SOL    HW235169  11.835   2.366   8.400  0.1963 -1.2331  0.8404
10162SOL     OW35170  11.480   3.827   2.027  0.0805  0.0439 -0.0484
10162SOL    HW135171  11.465   3.815   1.934 -2.9961 -1.9114  0.5497
10162SOL    HW235172  11.404   3.876   2.058  0.3251 -0.5751  1.6426
10163SOL     OW35173   0.218   0.951  10.168 -0.1476 -0.1180 -0.6451
10163SOL    HW135174   0.281   0.897  10.216  0.8443 -0.2336 -2.0346
10163SOL    HW235175   0.195   0.898  10.092 -2.3453 -0.2969  0.0576
10164SOL     OW35176   8.406   9.903  11.333 -0.1558  0.6225 -0.2469
10164SOL    HW135177   8.414   9.908  11.238  1.2453 -1.6928 -0.3310
10164SOL    HW235178   8.492   9.930  11.366  1.0154 -2.9297  0.0282
10165SOL     OW35179   8.215   6.926   8.978 -0.3546 -0.0669 -0.8328
10165SOL    HW135180   8.269   6.862   9.023 -0.0161  0.6487 -0.1928
10165SOL    HW235181   8.274   6.969   8.916  0.8161  2.9396  2.0270
10166SOL     OW35182  11.407   6.952   8.115  0.1841 -0.0182 -0.1946
10166SOL    HW135183  11.409   6.857   8.130 -1.1856 -0.0996 -0.4287
10166SOL    HW235184  11.377   6.961   8.024 -0.8452  0.6638  0.2089
10167SOL     OW35185   6.366  10.905  11.630  0.8247 -0.8400 -0.0507
10167SOL    HW135186   6.367  10.979  11.569  0.6189 -0.6920  0.1246
10167SOL    HW235187   6.329  10.832  11.579  2.5655 -1.2774 -0.7379
10168SOL     OW35188  10.553   0.132   1.810 -0.1594 -0.0957 -0.3484
10168SOL    HW135189  10.638   0.114   1.769 -1.0469 -1.0204 -1.9207
10168SOL    HW235190  10.494   0.149   1.736 -1.3792  0.3737  0.6888
10169SOL     OW35191   1.230   7.186   1.236  0.3822  0.0767 -0.0998
10169SOL    HW135192   1.180   7.181   1.318  1.1549 -1.3307  0.3435
10169SOL    HW235193   1.319   7.161   1.262  1.2322  2.0846 -0.9374
10170SOL     OW35194  11.073   0.643   4.908 -0.0885  0.2975  0.1167
10170SOL    HW135195  11.024   0.577   4.859  1.4549  0.6839 -2.1361
10170SOL    HW235196  11.110   0.597   4.983 -0.0944 -1.0960 -0.7146
10171SOL     OW35197   0.680   4.027  11.076  0.2553  0.0484 -0.1450
10171SOL    HW135198   0.671   3.934  11.057  0.9500 -0.5170  2.0061
10171SOL    HW235199   0.660   4.035  11.169  2.0119  1.7496  0.1637
10172SOL     OW35200   9.728   9.054   3.317  0.1479  0.0863 -0.3725
10172SOL    HW135201   9.732   9.143   3.283  1.9213 -0.0253 -0.5424
10172SOL    HW235202   9.636   9.030   3.310 -0.4888  2.1355  0.3206
10173SOL     OW35203   3.313   4.192   4.426 -0.6071  0.0565 -0.0312
10173SOL    HW135204   3.243   4.137   4.392 -1.1026  1.6347 -1.7741
10173SOL    HW235205   3.292   4.206   4.518 -0.8137 -2.0616  0.2732
10174SOL     OW35206   9.320   9.305  11.380  0.4590 -0.3974  0.0316
10174SOL    HW135207   9.229   9.279  11.371 -0.0867  1.0812  0.8308
10174SOL    HW235208   9.350   9.262  11.461  0.2648 -0.3617  0.1220
10175SOL     OW35209   8.020   7.714   4.263  0.1611 -0.1271  0.0594
10175SOL    HW135210   8.113   7.689   4.267  0.2599  0.3849  2.2098
10175SOL    HW235211   8.020   7.800   4.221  0.4469 -0.9304 -1.6427
10176SOL     OW35212   5.634   7.690   6.315  0.4417 -0.1718  0.2879
10176SOL    HW135213   5.554   7.715   6.269  0.1486  1.9794  1.8247
10176SOL    HW235214   5.686   7.644   6.249 -1.4896 -0.5008 -1.1023
10177SOL     OW35215  11.362   2.526   9.186 -0.0259 -0.3132  0.0210
10177SOL    HW135216  11.351   2.580   9.107 -0.3290  0.2908  0.4589
10177SOL    HW235217  11.452   2.496   9.183  0.0411 -0.0741 -0.4250
10178SOL     OW35218   2.407  10.254   7.098 -0.2251  0.3011  0.3030
10178SOL    HW135219   2.352  10.311   7.045 -0.6581 -1.5855 -1.4320
10178SOL    HW235220   2.348  10.184   7.126  0.9154 -0.9692 -0.3382
10179SOL     OW35221   4.303  10.265   6.861  0.0883  0.6633  0.5505
10179SOL    HW135222   4.216  10.226   6.868  0.6007 -0.8460 -0.7912
10179SOL    HW235223   4.359  10.208   6.914  0.4996  0.7785  0.2498
10180SOL     OW35224   3.609   1.118   7.191 -0.3737  0.1726  0.7682
10180SOL    HW135225   3.609   1.092   7.099 -1.1034  1.1089  0.4859
10180SOL    HW235226   3.518   1.142   7.209  0.1421  1.9916  1.1403
10181SOL     OW35227   3.980   0.399   0.775 -0.3303  0.1341 -0.0381
10181SOL    HW135228   4.072   0.414   0.797 -0.4407 -0.4743  0.8832
10181SOL    HW235229   3.982   0.362   0.687  0.2814  0.4136 -0.1466
10182SOL     OW35230   2.166   1.940   8.991  0.3880  0.2908  0.0820
10182SOL    HW135231   2.108   1.949   8.916  1.1929 -1.7881 -0.8842
10182SOL    HW235232   2.181   2.029   9.022 -3.4810  0.8968  0.5968
10183SOL     OW35233  10.660   8.886   4.458  0.2434  0.4380  0.2194
10183SOL    HW135234  10.746   8.853   4.434  0.1854  0.5517 -0.1463
10183SOL    HW235235  10.642   8.846   4.543 -0.0721 -0.9568 -0.4757
10184SOL     OW35236  10.218   0.745   0.459  0.2068  0.4136  0.1228
10184SOL    HW135237  10.242   0.653   0.473 -0.4025  0.3184  0.5409
10184SOL    HW235238  10.288   0.779   0.403  1.2054  0.0686  1.1148
10185SOL     OW35239  11.953   8.087  10.964  0.6542  0.4172 -0.0768
10185SOL    HW135240  12.046   8.068  10.950  0.4760 -0.6493  0.0921
10185SOL    HW235241  11.947   8.115  11.055  0.6597 -0.6399  0.2608
10186SOL     OW35242   3.140   0.956   9.224 -0.1029  0.0586  0.5563
10186SOL    HW135243   3.200   1.020   9.261 -0.0398 -0.0563  0.6527
10186SOL    HW235244   3.121   0.989   9.136 -2.2936  1.7570  1.5615
10187SOL     OW35245   3.638  10.154   2.162  0.2401 -0.0873 -0.4640
10187SOL    HW135246   3.669  10.235   2.123 -0.9215  1.4338  1.5544
10187SOL    HW235247   3.704  10.089   2.138  2.1218  1.8104 -0.7660
10188SOL     OW35248  11.392   1.620   1.499  0.1199  0.0404  0.1500
10188SOL    HW135249  11.410   1.614   1.593  0.5336  0.8116  0.1290
10188SOL    HW235250  11.348   1.705   1.488 -0.1580 -0.1561 -0.3224
10189SOL     OW35251   5.582   0.906   5.012  0.5496  0.0935  0.1385
10189SOL    HW135252   5.544   0.929   5.097  1.2744 -0.0059  0.4978
10189SOL    HW235253   5.674   0.886   5.031  0.0861 -2.6861 -0.2341
10190SOL     OW35254   6.588   8.443   0.490 -0.1655 -0.2164 -0.0971
10190SOL    HW135255   6.572   8.412   0.579 -0.6234  0.9898  0.2658
10190SOL    HW235256   6.584   8.539   0.497  2.4611  0.0315 -0.9067
10191SOL     OW35257   3.721   1.016   4.980  0.9285  1.0558  0.7671
10191SOL    HW135258   3.721   0.934   4.929 -0.5499  0.5347  1.5349
10191SOL    HW235259   3.801   1.061   4.953 -0.7598  1.9086 -3.7966
10192SOL     OW35260  10.170   2.130   1.204  0.0919 -0.5679 -0.0978
10192SOL    HW135261  10.168   2.150   1.110  0.0788  0.3361  0.0837
10192SOL    HW235262  10.078   2.121   1.229  0.0087  0.6158  0.0996
10193SOL     OW35263   0.828  11.915   2.581 -0.3522  0.0235 -0.2306
10193SOL    HW135264   0.846  11.899   2.674  0.8516 -0.6704 -0.5742
10193SOL    HW235265   0.868  12.000   2.563 -1.8867  0.8947  0.2160
10194SOL     OW35266   8.722   0.990   1.761 -0.2674 -0.3136  0.3903
10194SOL    HW135267   8.701   0.986   1.668 -0.0958 -1.4935  0.3821
10194SOL    HW235268   8.652   1.041   1.800 -1.9846 -2.2641  0.0328
10195SOL     OW35269   2.878   4.226   1.907 -0.0138 -0.4782  0.2460
10195SOL    HW135270   2.801   4.192   1.861 -0.8385  0.0558  1.1824
10195SOL    HW235271   2.896   4.161   1.975  0.4795 -0.6976 -0.0955
10196SOL     OW35272  11.234   5.715   5.804  0.3945 -0.3533 -0.0034
10196SOL    HW135273  11.321   5.747   5.781  0.2295 -0.3544 -0.6546
10196SOL    HW235274  11.193   5.693   5.720 -2.0977  4.3543 -0.3976
10197SOL     OW35275   9.540   5.423   2.756 -0.0403  0.6211 -0.3624
10197SOL    HW135276   9.505   5.510   2.774  1.3364  1.1598 -0.2127
10197SOL    HW235277   9.514   5.371   2.832 -0.4680  1.0050 -0.2398
10198SOL     OW35278   1.233  10.109   1.398 -0.3372  0.0603 -0.2903
10198SOL    HW135279   1.195  10.179   1.450  0.4006 -0.3547  0.8328
10198SOL    HW235280   1.280  10.055   1.461 -1.4543 -1.8600 -1.0037
10199SOL     OW35281   7.600   4.194   9.364 -0.1729  0.0292 -0.0774
10199SOL    HW135282   7.560   4.181   9.278  0.3377 -1.4450 -0.1309
10199SOL    HW235283   7.580   4.284   9.387 -1.4800  0.0403 -1.1421
10200SOL     OW35284   6.086   0.755   3.773  0.1707 -0.9006  0.1447
10200SOL    HW135285   6.067   0.662   3.772 -1.8738 -0.5249 -0.3018
10200SOL    HW235286   6.001   0.798   3.773  0.9977  0.9984 -2.1819
10201SOL     OW35287   9.240   4.352   7.432  0.3822 -0.1764 -0.0469
10201SOL    HW135288   9.192   4.423   7.475 -0.0308 -1.4929  1.7338
10201SOL    HW235289   9.305   4.324   7.496 -0.0102 -1.9662 -0.3834
10202SOL     OW35290   0.141   9.101   9.586  0.3131 -0.4216 -0.2585
10202SOL    HW135291   0.088   9.181   9.579  1.6519  0.4563 -0.8936
10202SOL    HW235292   0.215   9.118   9.528  2.1689 -0.8930  1.8673
10203SOL     OW35293   2.827   0.153   8.026 -0.0526  0.2421 -0.4774
10203SOL    HW135294   2.841   0.127   8.117  2.0039  0.5770 -0.6587
10203SOL    HW235295   2.844   0.247   8.025  0.6661  0.1173 -1.3275
10204SOL     OW35296  11.563   0.710   5.008  0.6080 -0.2563 -0.1655
10204SOL    HW135297  11.619   0.777   5.046  0.6634 -0.3318 -0.1116
10204SOL    HW235298  11.474   0.746   5.013  0.8552  0.7373 -2.1429
10205SOL     OW35299   6.737   6.220   1.309 -0.5236  0.2928  0.0267
10205SOL    HW135300   6.826   6.242   1.280 -0.7818  0.9258 -0.2808
10205SOL    HW235301   6.698   6.174   1.235 -0.5964  0.3818  0.0107
10206SOL     OW35302   9.406   5.699   6.112 -0.4036 -0.3329  0.4536
10206SOL    HW135303   9.490   5.704   6.156 -0.1256 -0.0519 -0.0946
10206SOL    HW235304   9.342   5.729   6.177  0.2447  2.4073 -0.0318
10207SOL     OW35305   3.165   7.966   1.051  0.7049 -0.6525  0.7038
10207SOL    HW135306   3.206   7.929   1.129 -0.4443 -2.6002  0.4473
10207SOL    HW235307   3.114   7.894   1.014 -0.1401  0.7001 -0.9131
10208SOL     OW35308   5.148   7.383   5.973 -0.3165 -0.2060  0.1141
10208SOL    HW135309   5.212   7.323   6.012 -1.2906 -0.7990  0.8619
10208SOL    HW235310   5.149   7.361   5.879 -0.2462 -1.0193  0.2924
10209SOL     OW35311  11.759   5.092   4.987  0.0688 -0.0405 -0.0660
10209SOL    HW135312  11.753   5.186   4.969 -0.1548 -0.3450 -1.7006
10209SOL    HW235313  11.669   5.067   5.008 -0.1481 -0.1509 -1.0846
10210SOL     OW35314   8.453   1.982   5.601  0.1673 -0.1015  0.0382
10210SOL    HW135315   8.509   2.059   5.618 -1.3905  1.0726  0.0749
10210SOL    HW235316   8.489   1.944   5.521  1.5084  0.1445  0.5016
10211SOL     OW35317   5.751   0.780   3.204  0.1040 -0.0161 -0.0562
10211SOL    HW135318   5.843   0.755   3.207  0.2346  0.1436 -1.7213
10211SOL    HW235319   5.746   0.859   3.257  0.3664 -1.4880  2.3193
10212SOL     OW35320  10.055   7.305   6.023 -0.5508 -0.1172  0.0312
10212SOL    HW135321  10.005   7.259   5.955 -0.5249 -1.4674  0.8924
10212SOL    HW235322   9.996   7.310   6.098 -0.9820  2.3606 -0.3801
10213SOL     OW35323   4.938   1.297   7.679  0.9117  0.6955 -0.1081
10213SOL    HW135324   4.958   1.349   7.757 -1.3291  1.1707  0.2173
10213SOL    HW235325   4.916   1.210   7.713  1.1047  0.5633 -0.3206
10214SOL     OW35326   1.476   4.213   6.543 -0.1471 -0.6756 -0.1051
10214SOL    HW135327   1.390   4.217   6.499 -0.1083  1.1111 -0.0641
10214SOL    HW235328   1.455   4.197   6.635 -0.4458 -0.2859 -0.1018
10215SOL     OW35329  11.451  11.265   1.553  0.0130 -0.6288  0.4244
10215SOL    HW135330  11.471  11.242   1.463 -0.7898 -0.1751  0.1154
10215SOL    HW235331  11.521  11.325   1.579  0.4993 -1.1252  0.2590
10216SOL     OW35332   7.647   5.424   4.298  0.0260  0.2888 -0.2020
10216SOL    HW135333   7.659   5.367   4.374  0.7502 -1.3074 -1.4301
10216SOL    HW235334   7.553   5.432   4.289 -0.1062 -0.9014 -0.0867
10217SOL     OW35335   5.408  11.475   1.791  0.3100 -0.4128 -0.2213
10217SOL    HW135336   5.319  11.504   1.811 -0.2292  0.3608 -3.2891
10217SOL    HW235337   5.415  11.482   1.696  3.5362 -0.8491 -0.1274
10218SOL     OW35338   2.434   7.660   3.799  0.1584  0.5779  0.0685
10218SOL    HW135339   2.396   7.634   3.716 -0.1605 -1.5441  0.8177
10218SOL    HW235340   2.523   7.688   3.777 -0.2141  0.9246 -1.0668
10219SOL     OW35341   6.698   2.156   7.073 -0.2559 -0.6022 -0.0133
10219SOL    HW135342   6.768   2.114   7.023  1.6391  0.6915  1.4258
10219SOL    HW235343   6.679   2.237   7.025 -0.8255 -0.9631 -0.4157
10220SOL     OW35344   3.555   3.286   3.725  0.3353  0.1518 -0.6272
10220SOL    HW135345   3.594   3.346   3.661  1.5282 -0.1586 -0.2166
10220SOL    HW235346   3.624   3.222   3.743 -0.5826 -0.7687 -0.3119
10221SOL     OW35347   1.719   5.916   8.207  0.9020  0.3204  0.1256
10221SOL    HW135348   1.686   5.833   8.242  1.3414 -0.2162 -0.6958
10221SOL    HW235349   1.755   5.962   8.283  2.5422 -1.1488  0.2813
10222SOL     OW35350  10.466   2.507   0.660  0.1396 -0.0438  0.1182
10222SOL    HW135351  10.417   2.490   0.741 -1.0197  0.8545 -0.3506
10222SOL    HW235352  10.501   2.422   0.635  0.1043 -0.4286  1.3017
10223SOL     OW35353   6.094   1.399   4.294  0.0938  0.0344 -0.4909
10223SOL    HW135354   6.060   1.475   4.343  0.8491  1.4405 -2.0399
10223SOL    HW235355   6.080   1.421   4.202  1.6700 -1.0364 -1.0392
10224SOL     OW35356   8.580   5.235   4.988  0.1243 -0.9707 -0.0475
10224SOL    HW135357   8.549   5.263   4.902  0.6888 -1.2887 -0.3592
10224SOL    HW235358   8.617   5.314   5.027 -1.3260 -0.5002  0.4665
10225SOL     OW35359  10.564  10.165   8.024 -0.8049  0.4201 -0.1070
10225SOL    HW135360  10.515  10.190   7.946 -0.0398 -0.0268 -0.7396
10225SOL    HW235361  10.567  10.070   8.021 -0.1095  0.4324  0.0549
10226SOL     OW35362  10.830   0.120   2.795 -0.6815 -0.3655 -0.8449
10226SOL    HW135363  10.789   0.206   2.799 -1.5154 -0.7385 -1.1846
10226SOL    HW235364  10.913   0.131   2.841 -0.6679  0.6782 -1.0855
10227SOL     OW35365   3.127   8.878   1.679 -0.1333 -0.5578  0.3410
10227SOL    HW135366   3.076   8.817   1.733 -0.0431 -1.5645 -0.6618
10227SOL    HW235367   3.144   8.952   1.736 -0.6303 -1.2830  1.4720
10228SOL     OW35368  10.378   1.117  10.894 -0.1975  0.0706  0.0786
10228SOL    HW135369  10.326   1.047  10.934 -1.4405  0.2170 -1.2112
10228SOL    HW235370  10.425   1.075  10.823 -1.5335  0.6128 -1.1982
10229SOL     OW35371   6.584  11.672   4.113  0.3200  1.1088 -0.6376
10229SOL    HW135372   6.500  11.635   4.086  1.6823 -1.1662 -2.1295
10229SOL    HW235373   6.619  11.608   4.175  1.3638  1.4958 -0.8097
10230SOL     OW35374  10.822   5.786   1.984 -0.7488  0.1992  0.7819
10230SOL    HW135375  10.807   5.855   1.919 -0.9251 -1.0050 -0.5004
10230SOL    HW235376  10.775   5.816   2.061 -0.2373  1.8465  0.5038
10231SOL     OW35377   4.455   4.764  10.731  0.6730  0.5999 -0.8188
10231SOL    HW135378   4.367   4.760  10.767  1.0442  0.7806  0.1457
10231SOL    HW235379   4.466   4.680  10.687  1.3135 -1.1083  2.2583
10232SOL     OW35380   9.461   8.806   0.053 -0.4546 -0.1697 -0.4836
10232SOL    HW135381   9.402   8.747   0.006 -0.4990 -0.6293  0.1492
10232SOL    HW235382   9.545   8.798   0.007 -0.1778 -1.5083  0.2228
10233SOL     OW35383   6.080   0.891   4.059 -0.0177 -0.3886 -0.2998
10233SOL    HW135384   6.019   0.840   4.006  1.2205 -1.6877 -0.5317
10233SOL    HW235385   6.088   0.843   4.141 -0.9585  0.9482  0.6194
10234SOL     OW35386   9.074   8.368   2.839  0.0899  0.3769 -0.4302
10234SOL    HW135387   9.060   8.339   2.929 -1.1841  1.6492 -0.1771
10234SOL    HW235388   9.139   8.307   2.803 -0.5221 -1.0874  0.8614
10235SOL     OW35389   4.333  11.679   4.272  0.0655  0.0474  0.6729
10235SOL    HW135390   4.372  11.607   4.321  1.6745 -0.0721 -0.6832
10235SOL    HW235391   4.392  11.753   4.286  0.5297  0.0248 -0.9994
10236SOL     OW35392   7.470   0.065   0.681  0.2139  0.3991 -0.2456
10236SOL    HW135393   7.545   0.122   0.695  1.2268 -0.5692 -1.5012
10236SOL    HW235394   7.408   0.089   0.750  2.6894 -0.5423  2.4703
10237SOL     OW35395   0.694   8.888   4.411  0.0967 -0.1598  0.0186
10237SOL    HW135396   0.726   8.973   4.381  0.2112  0.1421  0.9481
10237SOL    HW235397   0.599   8.897   4.414  0.1302  0.0807  0.5007
10238SOL     OW35398   5.432   1.224   4.459  0.0255  0.3954 -0.1141
10238SOL    HW135399   5.483   1.150   4.493 -0.3151  0.3650  0.3524
10238SOL    HW235400   5.407   1.273   4.538  0.5873  1.2397 -0.4442
10239SOL     OW35401   1.181   8.832  10.153 -0.4062  0.5119  0.3192
10239SOL    HW135402   1.246   8.785  10.101  0.3717  0.6525  1.1409
10239SOL    HW235403   1.121   8.869  10.089  0.5487  0.7001 -0.4883
10240SOL     OW35404   1.597   8.215   6.841  0.1170  0.0193  0.5140
10240SOL    HW135405   1.603   8.193   6.748 -0.7091  0.4343  0.3605
10240SOL    HW235406   1.552   8.141   6.881 -2.7904  1.3656 -0.0261
10241SOL     OW35407   3.303   1.552   2.740 -0.3560  0.3411 -0.0581
10241SOL    HW135408   3.291   1.492   2.814  0.6162 -0.6796 -0.6943
10241SOL    HW235409   3.228   1.610   2.744 -0.4619  0.1545  1.5934
10242SOL     OW35410   9.651   9.279   2.498  0.8901  0.0203 -0.4469
10242SOL    HW135411   9.737   9.322   2.503 -0.5618  3.2331 -0.6096
10242SOL    HW235412   9.626   9.266   2.589  0.5431  1.3978 -0.3247
10243SOL     OW35413   2.398   7.719   7.159  0.2159  0.0827 -0.3530
10243SOL    HW135414   2.346   7.764   7.092 -1.1916 -1.2783 -0.2374
10243SOL    HW235415   2.356   7.633   7.167  1.2235 -0.2889  1.2765
10244SOL     OW35416   0.643   0.560   1.718  0.5531  0.3610 -0.6717
10244SOL    HW135417   0.559   0.578   1.760  1.0542 -0.0803  0.5778
10244SOL    HW235418   0.626   0.486   1.660  0.1204  0.1446 -0.2706
10245SOL     OW35419   0.815   0.872   2.108 -0.0045  0.4952  0.0593
10245SOL    HW135420   0.728   0.836   2.089 -0.2279  0.5142  1.0014
10245SOL    HW235421   0.869   0.843   2.034 -0.8343  0.6085 -0.6158
10246SOL     OW35422   8.773   0.240   2.065 -0.5607 -0.1894 -0.8165
10246SOL    HW135423   8.850   0.288   2.094 -0.0984 -0.6026 -1.3371
10246SOL    HW235424   8.806   0.177   2.000 -1.2955 -0.5285 -0.8800
10247SOL     OW35425   6.908   4.738   2.068  0.2525 -0.5195  0.7209
10247SOL    HW135426   6.959   4.776   2.140  0.7282 -1.4609  0.9025
10247SOL    HW235427   6.836   4.799   2.054  0.1213 -0.3542  2.0396
10248SOL     OW35428   0.174   9.824   9.005 -0.3478  0.1975 -0.3009
10248SOL    HW135429   0.129   9.906   9.026  0.5653  1.4062 -2.7755
10248SOL    HW235430   0.239   9.848   8.939 -0.4269 -2.6126 -1.5312
10249SOL     OW35431   3.151   1.141  11.128  0.1351  0.2563 -0.3320
10249SOL    HW135432   3.167   1.160  11.035  2.5269  1.6625  0.2798
10249SOL    HW235433   3.127   1.225  11.166  1.5462  0.2082  0.7321
10250SOL     OW35434   9.459   5.614   4.370 -0.2233 -0.2550  0.5437
10250SOL    HW135435   9.427   5.688   4.318  2.4118  0.6005 -0.0537
10250SOL    HW235436   9.447   5.538   4.313  0.1566  0.2776 -0.2772
10251SOL     OW35437   5.439   6.975   5.542  0.4089 -0.3537  0.3282
10251SOL    HW135438   5.355   7.009   5.511  1.4639  0.6203 -1.5845
10251SOL    HW235439   5.415   6.918   5.616 -1.9429 -0.3080 -0.3119
10252SOL     OW35440   4.432   6.340  11.280  0.8212 -0.1521  0.4175
10252SOL    HW135441   4.424   6.266  11.341 -1.3251 -0.5593 -0.2782
10252SOL    HW235442   4.450   6.415  11.336  0.5585 -0.7856  1.3904
10253SOL     OW35443   8.512   1.255   7.029 -0.4087 -0.5114 -0.0345
10253SOL    HW135444   8.466   1.186   7.077 -1.5487 -0.1586 -0.5901
10253SOL    HW235445   8.447   1.324   7.018  0.6264  0.5521  0.2670
10254SOL     OW35446   2.361   1.221   1.459 -0.0421  0.4227  0.2968
10254SOL    HW135447   2.303   1.248   1.387  0.9897  0.4767 -0.5454
10254SOL    HW235448   2.394   1.303   1.495  0.8357  0.3881 -0.3702
10255SOL     OW35449   9.199   9.845  10.134  0.3954 -0.0929  0.0401
10255SOL    HW135450   9.183   9.761  10.178  0.5710 -0.6979 -1.0211
10255SOL    HW235451   9.223   9.821  10.045  0.6778  1.0886 -0.2148
10256SOL     OW35452   5.184   4.250   6.809 -0.3403  0.2675 -0.2355
10256SOL    HW135453   5.181   4.218   6.718 -0.5947 -0.2319 -0.0564
10256SOL    HW235454   5.119   4.320   6.812 -2.9155 -1.9732  0.3889
10257SOL     OW35455   8.567   2.876   0.205 -0.6277  0.4316  0.2687
10257SOL    HW135456   8.582   2.935   0.130  1.2239  0.9167  0.9576
10257SOL    HW235457   8.559   2.789   0.166 -0.3865  0.7635 -0.5466
10258SOL     OW35458   1.251  11.751   1.932  0.3590  0.6217  0.2916
10258SOL    HW135459   1.217  11.813   1.997 -0.5473 -0.7020  1.1357
10258SOL    HW235460   1.299  11.687   1.983  0.9407  0.3942 -0.5230
10259SOL     OW35461  10.516   8.507   6.342 -0.2983 -0.1870  0.1180
10259SOL    HW135462  10.448   8.457   6.297  0.8559 -1.1658 -0.6105
10259SOL    HW235463  10.475   8.534   6.425 -1.6553 -0.4695 -0.4364
10260SOL     OW35464   4.393  10.727  10.064 -0.3083  0.1530  0.3542
10260SOL    HW135465   4.304  10.705  10.092  0.0363 -1.1553  0.4745
10260SOL    HW235466   4.426  10.784  10.132 -0.3499 -1.0107  1.3852
10261SOL     OW35467   2.453   1.800   8.494 -0.2252 -0.1120  0.1708
10261SOL    HW135468   2.435   1.764   8.581 -0.7024  0.0891  0.1584
10261SOL    HW235469   2.534   1.849   8.505 -0.2409 -0.1522  0.4863
10262SOL     OW35470  11.878   1.721   3.495  0.1890 -0.2783  0.2006
10262SOL    HW135471  11.875   1.635   3.453  0.5459 -1.2832  2.1193
10262SOL    HW235472  11.836   1.707   3.580  2.9249  0.6484  1.8166
10263SOL     OW35473  11.626   7.286   1.036  0.4799 -0.0411 -1.1699
10263SOL    HW135474  11.696   7.229   1.005 -0.7608 -0.6417 -3.0596
10263SOL    HW235475  11.576   7.231   1.097  1.1707  0.1344 -0.4302
10264SOL     OW35476   2.065   4.289   9.948  0.1308  0.4267  0.2069
10264SOL    HW135477   2.062   4.292  10.043  0.9735  1.5595  0.2153
10264SOL    HW235478   1.984   4.331   9.919 -0.0360  0.2496  0.4196
10265SOL     OW35479   2.501   5.301   8.734 -0.2975  0.3831 -0.3503
10265SOL    HW135480   2.573   5.263   8.683 -1.1860 -1.0996 -0.5806
10265SOL    HW235481   2.474   5.378   8.684 -1.7535 -1.5409 -2.7372
10266SOL     OW35482   5.534   6.181  11.079 -0.4098  0.1131  0.6451
10266SOL    HW135483   5.450   6.176  11.125  0.2254 -1.1732  1.7360
10266SOL    HW235484   5.597   6.201  11.148  0.5089 -1.3916  0.2712
10267SOL     OW35485   4.633   5.171   4.691 -0.2358 -0.0305  0.1258
10267SOL    HW135486   4.607   5.099   4.747  1.4515  1.1051  2.5563
10267SOL    HW235487   4.723   5.150   4.665 -0.1829  0.5758 -0.2100
10268SOL     OW35488   8.413   3.783   1.328  0.4518  0.2804 -0.3405
10268SOL    HW135489   8.321   3.769   1.306  0.6131 -0.5104 -0.5258
10268SOL    HW235490   8.425   3.735   1.410  0.6668  0.4849 -0.2520
10269SOL     OW35491   9.129   7.299   5.495 -0.2996  0.1425  0.1659
10269SOL    HW135492   9.160   7.210   5.513  0.7092  0.9416  3.0834
10269SOL    HW235493   9.205   7.344   5.459 -0.5852  0.0519 -0.5718
10270SOL     OW35494   4.608   7.634   0.780 -0.1375 -0.0021  0.0468
10270SOL    HW135495   4.545   7.705   0.772  0.0397  0.3402  1.3910
10270SOL    HW235496   4.661   7.639   0.700  0.6596  2.1890  0.6344
10271SOL     OW35497   3.062   6.801   5.475 -0.3685  0.1029 -0.3885
10271SOL    HW135498   2.997   6.731   5.477  1.3492 -1.5884 -0.0765
10271SOL    HW235499   3.059   6.834   5.385 -1.6145  0.0297 -0.3835
10272SOL     OW35500   1.675  10.125   6.098 -0.2847  0.1680 -0.7083
10272SOL    HW135501   1.592  10.083   6.119 -0.1218  0.9554  1.8205
10272SOL    HW235502   1.649  10.204   6.050 -1.2777  1.5752  1.9196
10273SOL     OW35503   6.869   7.676  10.476  0.2819  0.5422  0.1672
10273SOL    HW135504   6.955   7.717  10.479  0.7889 -0.3261 -1.3514
10273SOL    HW235505   6.822   7.725  10.408  0.8964 -1.2871 -1.6771
10274SOL     OW35506   3.886   8.606   9.075 -0.1189 -0.0036  0.2411
10274SOL    HW135507   3.892   8.701   9.063 -1.8402 -0.1365 -2.3212
10274SOL    HW235508   3.838   8.596   9.158 -1.6514  1.4225 -0.4138
10275SOL     OW35509  10.562  10.828   5.259 -0.1492 -0.4949 -0.2821
10275SOL    HW135510  10.568  10.836   5.354 -2.1012  2.0885 -0.2499
10275SOL    HW235511  10.645  10.861   5.227  1.2968 -3.1248  0.4630
10276SOL     OW35512   8.735   3.075   3.907 -0.0322 -0.1678  0.4000
10276SOL    HW135513   8.770   3.164   3.915 -0.0863  0.0345 -1.2566
10276SOL    HW235514   8.795   3.021   3.959  0.7112  0.6626  0.4327
10277SOL     OW35515   9.748   7.933   2.195 -0.2485 -0.4857 -0.0806
10277SOL    HW135516   9.666   7.934   2.145 -0.1256 -1.7720 -0.3646
10277SOL    HW235517   9.743   7.852   2.246 -0.3044  0.7335  1.9245
10278SOL     OW35518   3.160   2.226  10.540 -0.4375 -0.5184 -0.2371
10278SOL    HW135519   3.090   2.280  10.577  0.5027  1.3515 -1.0932
10278SOL    HW235520   3.224   2.219  10.611 -0.9130 -1.2579  0.1473
10279SOL     OW35521   5.348   3.421   1.014  0.3928 -0.0207  0.7110
10279SOL    HW135522   5.273   3.479   0.999  1.4920  0.9671 -1.3237
10279SOL    HW235523   5.416   3.453   0.955  1.6095 -2.4214  0.6808
10280SOL     OW35524   9.226   2.487   1.379 -0.2573 -0.0471  0.5641
10280SOL    HW135525   9.270   2.424   1.436  0.4790 -0.4974 -0.4790
10280SOL    HW235526   9.290   2.556   1.364 -0.7665  0.5371  1.0079
10281SOL     OW35527   8.774  11.924   5.675  0.5792  0.3345 -0.1307
10281SOL    HW135528   8.789  11.860   5.745  1.9894  1.7837  0.9972
10281SOL    HW235529   8.816  11.886   5.598  1.4360 -0.0734  0.5238
10282SOL     OW35530   3.367  11.409   4.993  0.2756  0.0255 -0.0342
10282SOL    HW135531   3.455  11.377   4.976  0.9717  2.5966 -1.8850
10282SOL    HW235532   3.373  11.504   4.980 -2.5425  0.4099  0.8258
10283SOL     OW35533   5.287   3.541   0.020 -0.6298 -0.5461 -0.7199
10283SOL    HW135534   5.239   3.589  -0.048 -0.4328 -1.1806 -1.3157
10283SOL    HW235535   5.252   3.452   0.015 -1.9061 -0.2310  1.2124
10284SOL     OW35536   2.323   5.712   9.835  0.4049  0.0554  0.5591
10284SOL    HW135537   2.288   5.751   9.915 -0.3131 -0.1758  0.3567
10284SOL    HW235538   2.364   5.630   9.864  1.1650  0.5239  0.8545
10285SOL     OW35539  11.956   0.624  11.131  0.0145 -0.2391 -0.5333
10285SOL    HW135540  11.962   0.613  11.226 -3.4200  0.2051 -0.1556
10285SOL    HW235541  11.897   0.698  11.119 -1.5722 -1.7670 -2.9679
10286SOL     OW35542   3.217   7.875   7.674 -0.0585  0.9594 -0.2870
10286SOL    HW135543   3.203   7.913   7.587 -0.5511  1.3154 -0.0520
10286SOL    HW235544   3.226   7.781   7.657 -0.4297  0.9909 -0.6931
10287SOL     OW35545   8.138   4.886  10.115  0.1699  0.8765  0.1647
10287SOL    HW135546   8.121   4.947  10.043 -0.0003 -1.0430 -1.5134
10287SOL    HW235547   8.087   4.808  10.093  0.9370 -0.1626  1.8495
10288SOL     OW35548   6.075   2.619   1.693 -0.2701 -0.2720  0.2032
10288SOL    HW135549   5.985   2.589   1.709 -0.5093 -0.8518 -1.9028
10288SOL    HW235550   6.130   2.554   1.736 -0.8501 -2.1907 -1.7654
10289SOL     OW35551   2.234   3.815   9.598 -0.6147 -0.1620  0.1646
10289SOL    HW135552   2.217   3.765   9.518  0.2949 -0.8202  0.3675
10289SOL    HW235553   2.198   3.761   9.668 -0.9781  0.1878  0.2535
10290SOL     OW35554   2.123   3.129  10.322  0.0871  0.1452 -0.2852
10290SOL    HW135555   2.054   3.070  10.292  2.2836 -1.5118 -2.4980
10290SOL    HW235556   2.096   3.216  10.290 -0.3518 -0.6849 -2.3019
10291SOL     OW35557   3.765   8.613   9.338  0.0205 -0.3978  0.1618
10291SOL    HW135558   3.795   8.699   9.370 -0.1780 -0.3488  0.2177
10291SOL    HW235559   3.698   8.586   9.401 -0.0025 -0.5383  0.0768
10292SOL     OW35560   6.982   9.393  11.568 -0.1493 -0.0236 -0.2024
10292SOL    HW135561   7.033   9.406  11.648  2.2529 -2.0984 -1.2439
10292SOL    HW235562   7.015   9.458  11.507 -2.6389  2.1994  0.6107
10293SOL     OW35563  10.253   5.251   9.272  0.7244  0.2918  0.6295
10293SOL    HW135564  10.187   5.320   9.284  0.6949  0.3109  0.3669
10293SOL    HW235565  10.336   5.297   9.274  0.7116  0.3164  0.5982
10294SOL     OW35566  10.619   3.762   3.833 -0.1881  0.0698 -0.1796
10294SOL    HW135567  10.600   3.846   3.873  1.0701  0.4276 -0.2715
10294SOL    HW235568  10.704   3.774   3.791 -0.3230 -1.0322 -0.8178
10295SOL     OW35569   0.189   2.971   3.542  0.0723 -0.0475  0.2849
10295SOL    HW135570   0.111   2.916   3.534  0.6938 -1.0249  0.7771
10295SOL    HW235571   0.233   2.961   3.457 -1.6134  2.5979 -1.0418
10296SOL     OW35572   0.990  10.854  10.737 -0.5453  0.2980 -0.2199
10296SOL    HW135573   1.059  10.852  10.804  0.6209 -0.7266 -1.4021
10296SOL    HW235574   0.922  10.911  10.774  0.8209  1.1389  1.0842
10297SOL     OW35575   2.482  11.311   8.810 -0.0514  0.0474  0.6891
10297SOL    HW135576   2.402  11.339   8.853  0.3419  0.9719  0.8453
10297SOL    HW235577   2.456  11.291   8.720 -0.3170  1.1268  0.5191
10298SOL     OW35578   2.303   8.898   2.667  0.0337  0.2211  0.3972
10298SOL    HW135579   2.371   8.920   2.730  1.0696  0.0452 -0.6292
10298SOL    HW235580   2.266   8.983   2.641 -0.5587  0.2835  1.3671
10299SOL     OW35581   0.511   5.401   4.652 -0.1519  0.5809 -0.2212
10299SOL    HW135582   0.561   5.422   4.574 -0.0633 -0.2553 -0.3916
10299SOL    HW235583   0.534   5.311   4.673  0.4364  1.0318  1.2319
10300SOL     OW35584   0.750   2.665   2.386 -0.0133  0.8911 -0.4758
10300SOL    HW135585   0.668   2.628   2.418  1.4628 -1.7532  0.5697
10300SOL    HW235586   0.791   2.704   2.463  0.0280  1.6121 -0.8556
10301SOL     OW35587  10.502   5.702   2.742 -0.3959 -0.0607 -0.5046
10301SOL    HW135588  10.545   5.770   2.795 -0.9483  0.1137 -0.2734
10301SOL    HW235589  10.409   5.720   2.751 -0.5234 -0.4793 -0.9494
10302SOL     OW35590   2.809   2.055   0.849  0.3289 -0.1397  0.2886
10302SOL    HW135591   2.735   2.075   0.906  1.3482  3.0448  0.6844
10302SOL    HW235592   2.777   2.068   0.760  0.2733  0.8558  0.4444
10303SOL     OW35593  11.853   4.184   6.236 -0.1711  0.4637 -0.3521
10303SOL    HW135594  11.885   4.097   6.211  0.7252  0.5867  0.3062
10303SOL    HW235595  11.928   4.242   6.223 -0.3676  0.9145  0.4403
10304SOL     OW35596   5.266   2.015   0.687 -0.0768  0.2748  0.2897
10304SOL    HW135597   5.219   1.932   0.675 -1.6532  0.6684  2.9042
10304SOL    HW235598   5.221   2.077   0.630 -0.3193 -0.1996 -0.0370
10305SOL     OW35599   3.671   0.116   3.972  0.1977 -0.5741  0.1271
10305SOL    HW135600   3.615   0.177   3.926 -0.9725 -0.3929  1.7031
10305SOL    HW235601   3.635   0.029   3.950 -0.2400 -0.4994  0.5354
10306SOL     OW35602   0.165   0.368   6.810  0.3932 -0.1399  0.4471
10306SOL    HW135603   0.204   0.298   6.757 -0.7821  0.4769 -1.3433
10306SOL    HW235604   0.103   0.323   6.868 -0.4499 -0.6146 -0.7841
10307SOL     OW35605   1.833   8.890   8.572 -0.4898  0.0418  0.4879
10307SOL    HW135606   1.892   8.833   8.621  0.1946 -0.6198 -1.0097
10307SOL    HW235607   1.782   8.829   8.517  1.6962  0.8575 -2.7062
10308SOL     OW35608  10.593   5.992   5.710 -0.2727 -0.0067 -0.1628
10308SOL    HW135609  10.518   5.937   5.688 -0.6611  0.7602 -0.8106
10308SOL    HW235610  10.645   5.996   5.630 -0.2713  0.6029 -0.1384
10309SOL     OW35611   5.793   1.138   3.295  0.4804  0.3269  0.2720
10309SOL    HW135612   5.817   1.228   3.275 -1.1568  0.5044 -1.1477
10309SOL    HW235613   5.726   1.116   3.230  0.6350 -1.8241  0.7612
10310SOL     OW35614   2.920   3.820   2.276 -0.3525  0.2096 -0.0646
10310SOL    HW135615   2.850   3.795   2.217 -1.3160  1.4381  0.5102
10310SOL    HW235616   2.928   3.915   2.265  0.1053  0.3204  1.0623
10311SOL     OW35617   7.739  10.663   0.958  0.1587  0.5118 -0.3648
10311SOL    HW135618   7.674  10.720   0.998  1.1281  0.4838  1.3281
10311SOL    HW235619   7.689  10.604   0.902 -1.2515  0.6483  0.7121
10312SOL     OW35620   8.175   0.442   9.977 -0.1068  0.0571 -0.3054
10312SOL    HW135621   8.119   0.464   9.902  0.3385 -1.6206 -1.1634
10312SOL    HW235622   8.120   0.387  10.032  0.1554 -0.2146 -0.3142
10313SOL     OW35623   4.460  10.540   5.609 -0.5673 -0.2745 -0.1127
10313SOL    HW135624   4.471  10.489   5.690 -2.0685  0.5829  0.6686
10313SOL    HW235625   4.511  10.619   5.623 -2.3874  0.7906  0.8779
10314SOL     OW35626   6.234   9.055   6.672  0.2745  0.5736 -0.2768
10314SOL    HW135627   6.198   9.009   6.747  0.6971  1.0706  0.2395
10314SOL    HW235628   6.274   9.134   6.709  1.0278  0.5219 -0.9533
10315SOL     OW35629  11.985  10.891   1.860  0.3519 -0.0811  0.0182
10315SOL    HW135630  12.047  10.930   1.799 -0.4000  2.3109  0.6622
10315SOL    HW235631  11.999  10.938   1.943 -0.3412 -1.5144  0.9968
10316SOL     OW35632   8.957   3.269   3.727  0.6371  0.5489 -0.6079
10316SOL    HW135633   8.999   3.239   3.808 -0.7518  0.1418  0.0055
10316SOL    HW235634   8.890   3.331   3.757 -0.0174  0.2572 -1.4246
10317SOL     OW35635   0.784   0.021   8.331 -0.0073  0.4179 -0.5967
10317SOL    HW135636   0.833  -0.060   8.342 -1.9686 -1.3520 -3.3939
10317SOL    HW235637   0.839   0.088   8.370  1.8309 -2.1776  1.6692
10318SOL     OW35638   4.105   7.037   9.263 -0.3159  0.0553 -1.0020
10318SOL    HW135639   4.135   7.128   9.256  0.2987 -0.1551 -1.1296
10318SOL    HW235640   4.015   7.044   9.296  0.0853  0.6702 -0.0028
10319SOL     OW35641   1.854   8.666   2.503  0.0510  0.1780  0.4891
10319SOL    HW135642   1.866   8.721   2.580  2.6542 -1.4870  1.3998
10319SOL    HW235643   1.812   8.587   2.536 -0.2113  0.0617 -0.1050
10320SOL     OW35644   7.230   0.706   8.337  0.3330  0.1422  0.5205
10320SOL    HW135645   7.139   0.703   8.307  0.6321 -0.6536 -0.3730
10320SOL    HW235646   7.257   0.797   8.322 -0.8400  0.8647  2.5099
10321SOL     OW35647   8.305   8.504   9.148  0.6104  0.0390  0.6258
10321SOL    HW135648   8.343   8.584   9.113  0.6969  0.0207  0.6774
10321SOL    HW235649   8.256   8.533   9.225 -1.1719  0.3519 -0.5818
10322SOL     OW35650   6.273   1.604   3.744  0.5371 -0.0643  0.0504
10322SOL    HW135651   6.314   1.519   3.760  0.2906 -0.4197 -1.0579
10322SOL    HW235652   6.225   1.592   3.662  0.5692  1.1752 -0.1743
10323SOL     OW35653   4.030   4.237  11.114 -0.1142  0.5963  0.3824
10323SOL    HW135654   4.054   4.216  11.024 -1.2574 -0.2493  0.2608
10323SOL    HW235655   3.943   4.199  11.126  0.7016 -0.8425  2.3702
10324SOL     OW35656  10.689   2.460   3.973 -0.9532 -0.0412 -0.0958
10324SOL    HW135657  10.770   2.511   3.962 -1.1047 -0.1946 -2.2994
10324SOL    HW235658  10.719   2.371   3.991 -0.6366  0.0637 -0.0885
10325SOL     OW35659   6.767   0.117   7.675  0.0224 -0.3667  0.4907
10325SOL    HW135660   6.842   0.166   7.708  0.8233 -0.5818 -0.9377
10325SOL    HW235661   6.765   0.037   7.728 -0.4027  0.4918  1.8359
10326SOL     OW35662   1.531   1.035   2.868 -0.1168 -0.0217  0.3651
10326SOL    HW135663   1.452   1.076   2.834  0.3634  0.2795 -0.3857
10326SOL    HW235664   1.598   1.102   2.861  0.5503 -0.7516 -0.3879
10327SOL     OW35665   6.726   1.019   8.780 -0.2278  0.3172  0.8207
10327SOL    HW135666   6.656   0.954   8.778 -0.3141  0.3471  1.8790
10327SOL    HW235667   6.687   1.095   8.823 -0.3020  1.3145 -0.9234
10328SOL     OW35668   2.982   5.265   0.080 -0.3585  0.0770  0.1913
10328SOL    HW135669   2.971   5.236   0.171  0.0665 -1.0790 -0.1151
10328SOL    HW235670   3.025   5.192   0.037 -2.6561 -0.3677 -1.5235
10329SOL     OW35671  11.524   9.567  11.224 -0.5535  0.0399  0.5895
10329SOL    HW135672  11.512   9.608  11.138  2.5382 -0.4651 -0.1889
10329SOL    HW235673  11.461   9.611  11.281  0.3922  3.6535 -0.9021
10330SOL     OW35674   8.115  10.245   2.175 -0.5368  0.0947 -0.2834
10330SOL    HW135675   8.080  10.180   2.113 -0.5591 -0.4160  0.2513
10330SOL    HW235676   8.054  10.318   2.170 -1.7735 -0.8126  0.6811
10331SOL     OW35677  10.090   2.595   6.320  0.2597 -0.9628  0.0534
10331SOL    HW135678  10.149   2.520   6.329 -0.4735 -1.6962 -0.9508
10331SOL    HW235679  10.022   2.565   6.260 -0.8998  0.0048  0.8195
10332SOL     OW35680   1.034   9.127   4.438  0.3964 -0.2207 -0.4841
10332SOL    HW135681   1.006   9.218   4.441 -2.7089 -1.0966  0.4341
10332SOL    HW235682   1.029   9.103   4.346  1.5679  0.5759 -0.7787
10333SOL     OW35683  11.328   0.436   1.105 -0.1401  0.3184 -0.1680
10333SOL    HW135684  11.274   0.403   1.033 -0.5380 -0.7368  0.6056
10333SOL    HW235685  11.282   0.515   1.135 -0.7892 -0.0864 -0.0835
10334SOL     OW35686  11.089   5.215   5.815 -0.0136  0.6165  0.3593
10334SOL    HW135687  11.153   5.275   5.854  0.6706  0.9486 -1.1932
10334SOL    HW235688  11.142   5.143   5.781 -0.4481  0.8215 -0.8064
10335SOL     OW35689   9.823   9.755   7.307 -0.2384  0.1947  0.2371
10335SOL    HW135690   9.798   9.831   7.359  0.8236  0.6014  0.1913
10335SOL    HW235691   9.815   9.681   7.367  0.4927  0.5961  0.8462
10336SOL     OW35692   2.331   4.404   9.854 -1.0157  0.1449 -0.1959
10336SOL    HW135693   2.370   4.486   9.885 -0.6594 -0.3157  0.6316
10336SOL    HW235694   2.239   4.410   9.879 -0.8709  0.0650  0.3940
10337SOL     OW35695   2.362   9.523   1.011 -0.1286 -0.0970 -0.8017
10337SOL    HW135696   2.315   9.543   0.930 -1.6260  0.4066  0.1620
10337SOL    HW235697   2.305   9.554   1.081  0.8998 -0.9781  0.4845
10338SOL     OW35698   1.888   9.484   8.787 -0.4369  0.3649  0.6284
10338SOL    HW135699   1.883   9.421   8.859 -0.6254 -0.6676 -0.2555
10338SOL    HW235700   1.957   9.545   8.813  0.7750 -1.0423  0.8794
10339SOL     OW35701   7.417   4.251   3.191 -0.2052 -0.0327  0.7226
10339SOL    HW135702   7.508   4.258   3.219 -0.4988  0.3080  1.6455
10339SOL    HW235703   7.409   4.162   3.158  0.5273  0.0218  0.3834
10340SOL     OW35704   7.302   9.545   2.295 -0.1345 -0.4520  0.7736
10340SOL    HW135705   7.240   9.616   2.278  2.9097  2.4030  0.5094
10340SOL    HW235706   7.291   9.525   2.388  0.4689  2.1437  1.4802
10341SOL     OW35707   2.932   9.034  10.410 -0.4609  0.4091  0.1744
10341SOL    HW135708   2.899   9.030  10.320 -0.3124  2.5072 -0.0261
10341SOL    HW235709   2.868   8.984  10.460 -1.7706  1.0313 -0.7974
10342SOL     OW35710   2.008   0.960   1.365 -0.3592 -0.0807  0.4078
10342SOL    HW135711   2.033   1.047   1.394  1.7161  0.1669 -1.8121
10342SOL    HW235712   2.034   0.957   1.273 -2.3064 -2.3439 -0.1696
10343SOL     OW35713   1.295   5.199  10.600 -0.1616  0.4965  0.0588
10343SOL    HW135714   1.285   5.287  10.562 -0.9020  0.9416  1.2509
10343SOL    HW235715   1.388   5.180  10.590  0.1050  1.6351  0.2500
10344SOL     OW35716   8.714   1.356   9.059 -0.0812  0.3008 -0.0689
10344SOL    HW135717   8.672   1.393   9.137  0.0260  2.7500 -1.0863
10344SOL    HW235718   8.669   1.272   9.045 -2.0216  1.0878  1.0418
10345SOL     OW35719   5.287   3.232   7.646  0.4233  0.0464  0.7238
10345SOL    HW135720   5.382   3.240   7.643  0.2895  2.7317  1.0759
10345SOL    HW235721   5.263   3.189   7.564  1.8993 -0.1867  0.3987
10346SOL     OW35722  11.852   1.802  10.793 -0.0145  0.8275  0.0043
10346SOL    HW135723  11.829   1.785  10.884 -1.5419  1.6101 -0.1961
10346SOL    HW235724  11.856   1.716  10.752  0.9463  0.4494  0.8437
10347SOL     OW35725   6.996   9.160  11.441 -0.0133  0.4555 -0.5593
10347SOL    HW135726   6.955   9.086  11.486 -0.2316  0.3186 -0.9744
10347SOL    HW235727   6.974   9.236  11.495  0.6004  0.1641  0.1162
10348SOL     OW35728   7.066   1.317   2.840 -0.0065  0.0024  0.2156
10348SOL    HW135729   7.081   1.257   2.913  0.8919  0.2805  0.2632
10348SOL    HW235730   7.102   1.272   2.764  0.8919  0.5769  0.2908
10349SOL     OW35731   5.869   0.371   5.006 -0.4050  0.3239 -0.3421
10349SOL    HW135732   5.878   0.427   4.929 -0.8452  0.8843  0.0048
10349SOL    HW235733   5.802   0.308   4.983 -1.1111  0.9899 -0.1373
10350SOL     OW35734   9.457   1.645   8.137 -0.3734  0.0760 -0.4060
10350SOL    HW135735   9.490   1.728   8.172  0.2377 -0.7569  1.1107
10350SOL    HW235736   9.532   1.586   8.141 -0.9675 -0.7182 -0.8429
10351SOL     OW35737  11.629   8.043  10.696 -0.0123 -0.0748  0.0098
10351SOL    HW135738  11.563   8.112  10.693  0.9531  0.8604 -0.4238
10351SOL    HW235739  11.641   8.018  10.604  1.2150  0.7423 -0.0710
10352SOL     OW35740   4.499  10.716   3.946  0.0886 -0.0331  0.5276
10352SOL    HW135741   4.468  10.728   3.857 -1.2024  0.5142  1.0340
10352SOL    HW235742   4.438  10.654   3.985  0.3054  0.1688  1.2007
10353SOL     OW35743   5.189   4.505   7.798 -0.2504 -0.0928 -0.2846
10353SOL    HW135744   5.149   4.420   7.820 -0.0565 -0.2292 -0.4593
10353SOL    HW235745   5.114   4.565   7.792 -0.1907  0.4732  2.9355
10354SOL     OW35746   1.619   9.715   1.888 -0.0278  0.5340 -0.4521
10354SOL    HW135747   1.535   9.759   1.873 -0.8926 -1.0753 -0.6012
10354SOL    HW235748   1.630   9.716   1.983 -0.6385  0.0684 -0.3660
10355SOL     OW35749   1.675   8.968  11.131 -0.5521  0.0521  0.3019
10355SOL    HW135750   1.654   8.887  11.177 -0.1121  0.3178  0.9915
10355SOL    HW235751   1.701   8.940  11.044 -0.5060 -0.5417  0.4999
10356SOL     OW35752   3.962  11.086   7.685 -0.1955  0.8429  0.1210
10356SOL    HW135753   3.971  11.111   7.593  1.1947  0.9218  0.2631
10356SOL    HW235754   3.989  11.163   7.734 -0.5468  0.6672  0.6013
10357SOL     OW35755   9.325   2.552   2.010 -0.3962 -1.0909  0.0506
10357SOL    HW135756   9.347   2.573   1.919 -0.4550 -0.1769  0.2333
10357SOL    HW235757   9.258   2.484   2.004 -0.1852 -1.2504 -0.5785
10358SOL     OW35758   5.264   1.016   2.631 -0.2735  0.0189  0.1250
10358SOL    HW135759   5.308   1.088   2.675 -1.6029  0.7460  0.3392
10358SOL    HW235760   5.334   0.960   2.600  0.7928  1.2010  0.3088
10359SOL     OW35761   7.698   0.068  10.678 -0.5486 -0.1066  0.5709
10359SOL    HW135762   7.789   0.044  10.692 -0.3117  0.4903  0.0790
10359SOL    HW235763   7.672   0.112  10.759 -0.7529 -1.2597  1.1649
10360SOL     OW35764  10.747   7.274   5.218  1.0343 -0.3240 -0.4342
10360SOL    HW135765  10.676   7.210   5.219 -0.1623  0.9346  2.0316
10360SOL    HW235766  10.719   7.341   5.156 -0.0374  0.2372  0.6317
10361SOL     OW35767   6.100   3.316   3.393  0.3826 -0.3624  0.0494
10361SOL    HW135768   6.103   3.231   3.349  0.4185 -1.3809  1.9230
10361SOL    HW235769   6.007   3.333   3.408  0.4386 -0.9229  1.1689
10362SOL     OW35770   7.593   8.289   9.783  0.1232  0.0327  0.0931
10362SOL    HW135771   7.515   8.258   9.829 -0.2341  0.2830 -0.3411
10362SOL    HW235772   7.624   8.363   9.836 -0.0592  0.0721  0.1452
10363SOL     OW35773   9.467   7.965   7.687  0.0466  0.0385 -0.0955
10363SOL    HW135774   9.489   8.053   7.715 -0.5843 -0.1543  1.0581
10363SOL    HW235775   9.543   7.912   7.711  1.1254  0.4899 -2.2328
10364SOL     OW35776  11.852   9.341   2.994  0.4468 -0.3164  0.5092
10364SOL    HW135777  11.911   9.388   2.935  0.4917 -1.5661 -0.4930
10364SOL    HW235778  11.853   9.251   2.961 -0.7306 -0.7116  1.4998
10365SOL     OW35779   6.731   0.965   3.220 -0.1873 -0.3849  0.0946
10365SOL    HW135780   6.798   0.964   3.288 -1.2493 -1.6012  1.1781
10365SOL    HW235781   6.771   0.919   3.146  0.2088 -1.0159  0.6962
10366SOL     OW35782   6.896   4.208  11.502 -0.2467 -0.4794 -0.1026
10366SOL    HW135783   6.941   4.150  11.563 -0.9889 -2.0475 -0.9872
10366SOL    HW235784   6.966   4.250  11.452  0.3256  0.0078  1.0865
10367SOL     OW35785   0.128  11.772   1.863 -0.5125  0.1152 -0.0926
10367SOL    HW135786   0.201  11.764   1.924 -0.7317 -1.4227  0.0097
10367SOL    HW235787   0.162  11.737   1.781 -1.2959 -1.2319  0.1263
10368SOL     OW35788   0.431   5.679   3.307 -0.0007 -0.0145 -0.2995
10368SOL    HW135789   0.428   5.589   3.276  0.1006 -0.8678  1.9883
10368SOL    HW235790   0.351   5.690   3.358 -0.0141  1.2021 -0.5435
10369SOL     OW35791   8.170   7.135   4.478  0.5330  0.0366 -0.0059
10369SOL    HW135792   8.232   7.154   4.548 -2.0081  2.5249  1.7958
10369SOL    HW235793   8.184   7.204   4.413  0.2843  0.0584 -0.0388
10370SOL     OW35794   3.788   5.335   9.557 -0.3337  0.1502  0.1196
10370SOL    HW135795   3.724   5.322   9.627  1.2092  0.0016  1.5538
10370SOL    HW235796   3.769   5.423   9.524 -0.1780  0.8094  1.7142
10371SOL     OW35797   2.426   5.579   3.357  0.2640  0.4152  0.2667
10371SOL    HW135798   2.500   5.536   3.314  0.6873  2.4408 -1.1701
10371SOL    HW235799   2.466   5.637   3.422 -0.1513  0.6593  0.3058
10372SOL     OW35800   3.840   8.209   0.727  0.5268  0.5927  0.0296
10372SOL    HW135801   3.830   8.148   0.799  0.3919  0.6800  0.0848
10372SOL    HW235802   3.758   8.258   0.725  0.0953 -0.1401 -0.8570
10373SOL     OW35803  10.528   2.977   8.511 -0.4514 -0.4926  0.9034
10373SOL    HW135804  10.544   3.060   8.467  0.5845  0.2374  2.5383
10373SOL    HW235805  10.446   2.944   8.473 -0.2539  0.6719 -0.6137
10374SOL     OW35806   5.112   7.562   3.746 -0.2264 -0.0399 -0.1757
10374SOL    HW135807   5.126   7.656   3.758 -2.0439  0.3050 -0.3898
10374SOL    HW235808   5.091   7.552   3.653 -3.9869  0.0239  0.4967
10375SOL     OW35809   8.625  11.521  10.572 -0.5241 -0.6888  0.2456
10375SOL    HW135810   8.678  11.584  10.621 -0.2230  0.3431 -1.3166
10375SOL    HW235811   8.537  11.559  10.572 -0.6119 -0.8931  0.3245
10376SOL     OW35812   4.265   9.311  10.160  0.0811 -0.7637 -0.0122
10376SOL    HW135813   4.297   9.221  10.167  1.1045 -0.4348 -0.3080
10376SOL    HW235814   4.330   9.363  10.207  0.4907  0.0278 -1.4194
10377SOL     OW35815   4.403   4.411  11.479 -0.5549 -0.1437 -0.1165
10377SOL    HW135816   4.393   4.476  11.549 -1.8007 -0.4005 -0.0296
10377SOL    HW235817   4.497   4.392  11.477 -0.1573  1.6505 -0.1517
10378SOL     OW35818   8.402   9.498   8.263  0.4231  0.0172 -0.1627
10378SOL    HW135819   8.367   9.427   8.209  1.8090  1.5421 -3.4017
10378SOL    HW235820   8.497   9.485   8.260  0.6254  1.2636  0.2113
10379SOL     OW35821   0.959   5.448   8.096  0.0998 -0.2348  0.6208
10379SOL    HW135822   0.875   5.494   8.093  0.2190 -0.0421  0.2438
10379SOL    HW235823   0.973   5.431   8.190 -0.7627 -1.0216  0.6165
10380SOL     OW35824   3.778  11.543   6.999  0.4902 -0.0620  0.2795
10380SOL    HW135825   3.799  11.456   7.033  1.7691  0.2642  0.3702
10380SOL    HW235826   3.689  11.534   6.964  0.8586 -1.5858 -0.3434
10381SOL     OW35827   1.812   5.804   6.858  0.0313 -0.4088  0.0713
10381SOL    HW135828   1.897   5.771   6.828 -0.3302 -0.6682 -0.6864
10381SOL    HW235829   1.786   5.867   6.792  0.7701  1.5606  1.5646
10382SOL     OW35830   5.275   5.717   0.421 -0.0879  0.1493 -0.1596
10382SOL    HW135831   5.327   5.640   0.442 -0.0377  0.3632  0.5484
10382SOL    HW235832   5.275   5.769   0.502  0.0026  0.9621 -0.6652
10383SOL     OW35833   5.451   6.707   2.156  0.2339  0.4845  0.3563
10383SOL    HW135834   5.444   6.643   2.226 -0.9595  0.1951 -0.0032
10383SOL    HW235835   5.369   6.755   2.159 -0.1057  0.0562 -1.2206
10384SOL     OW35836   8.020   3.962  10.015  0.2862  0.6477  0.3044
10384SOL    HW135837   8.030   4.028   9.946  2.3213 -2.2900 -2.5033
10384SOL    HW235838   7.992   3.884   9.969 -2.6096 -0.4815  3.5635
10385SOL     OW35839   8.566   0.085   5.796  0.2301 -0.4220  0.4453
10385SOL    HW135840   8.650   0.043   5.779 -0.3549 -1.2267 -0.6494
10385SOL    HW235841   8.515   0.069   5.716 -0.9351  0.1031  1.0528
10386SOL     OW35842   1.736  10.994   0.628  0.0395 -0.2144 -0.7880
10386SOL    HW135843   1.682  10.986   0.707  1.7339 -0.9509  0.3546
10386SOL    HW235844   1.794  10.917   0.631  0.8418  0.3069 -2.1858
10387SOL     OW35845   3.919   9.626   7.350 -0.1645  0.5664 -0.4387
10387SOL    HW135846   3.934   9.681   7.428 -3.1666  1.0396 -0.0617
10387SOL    HW235847   3.922   9.688   7.277  1.0530  0.4048 -0.5308
10388SOL     OW35848   6.080   9.344   7.209 -0.5869 -0.0371 -0.1436
10388SOL    HW135849   6.128   9.285   7.152  1.0139  1.5913 -0.5817
10388SOL    HW235850   6.126   9.339   7.293 -0.5711  0.4015 -0.1220
10389SOL     OW35851  11.818   7.296   5.771  0.3564  0.4636  0.0213
10389SOL    HW135852  11.879   7.228   5.799 -0.9267 -0.9385 -0.4791
10389SOL    HW235853  11.744   7.289   5.830 -0.3692  0.5334 -0.8580
10390SOL     OW35854   6.839   5.805   1.106 -0.2610  0.3430 -0.2408
10390SOL    HW135855   6.860   5.730   1.162 -1.2068  0.6750  0.5887
10390SOL    HW235856   6.921   5.855   1.102  0.0711 -0.1568  0.1114
10391SOL     OW35857   2.151   3.859  10.742 -1.1401 -0.1068 -0.0999
10391SOL    HW135858   2.135   3.925  10.674  0.6582  1.6771  1.1057
10391SOL    HW235859   2.179   3.910  10.818  0.5173 -2.2746  0.8269
10392SOL     OW35860   3.406   2.051   5.260  0.1404  0.1976 -0.1499
10392SOL    HW135861   3.469   2.116   5.290 -1.5416  1.3450  1.0309
10392SOL    HW235862   3.328   2.066   5.314 -0.0686 -3.3283  0.7823
10393SOL     OW35863   2.732   8.099   0.288 -0.0094 -0.1755 -0.4046
10393SOL    HW135864   2.709   8.022   0.339 -0.1699 -0.8065 -1.4028
10393SOL    HW235865   2.669   8.100   0.216  0.4251  0.4995 -0.7891
10394SOL     OW35866  11.378   1.193   6.448 -0.0996  0.4184 -0.0019
10394SOL    HW135867  11.338   1.156   6.369  2.0126 -0.8513 -0.5517
10394SOL    HW235868  11.415   1.117   6.494 -1.7649  1.0272  2.5835
10395SOL     OW35869   8.062   3.626  10.136  0.2572 -0.0823 -0.1117
10395SOL    HW135870   7.970   3.641  10.114  0.3014  1.0856  0.4258
10395SOL    HW235871   8.064   3.626  10.232  0.8371  0.1160 -0.1192
10396SOL     OW35872  11.171   5.955   9.619  0.5623 -0.4321  0.1138
10396SOL    HW135873  11.083   5.972   9.585  0.3751 -0.3048  0.6555
10396SOL    HW235874  11.229   5.984   9.550  0.1701 -1.4240 -0.6677
10397SOL     OW35875   4.908  11.905  11.615 -0.3650 -0.2225 -0.2815
10397SOL    HW135876   4.955  11.885  11.695 -0.0098  2.0696  0.1684
10397SOL    HW235877   4.817  11.915  11.642 -0.6070 -1.5318 -0.5727
10398SOL     OW35878   2.829  11.548   4.714 -0.0198 -0.4062  0.3407
10398SOL    HW135879   2.754  11.569   4.771  1.6430  0.0960  2.4774
10398SOL    HW235880   2.894  11.614   4.734  0.9708 -0.7071 -1.6279
10399SOL     OW35881   7.819   2.401   4.634 -0.0646 -0.0240 -0.7319
10399SOL    HW135882   7.883   2.334   4.612 -0.2247 -0.9854  1.4980
10399SOL    HW235883   7.801   2.445   4.551  2.4396 -0.6173 -1.6727
10400SOL     OW35884   7.873   6.345   1.317  0.2241 -0.3882 -0.3434
10400SOL    HW135885   7.874   6.250   1.302  0.9337 -0.5758  0.8064
10400SOL    HW235886   7.804   6.358   1.382  0.4227 -0.1675 -0.1780
10401SOL     OW35887  10.393   3.314   5.601 -0.4619  0.5507 -0.5690
10401SOL    HW135888  10.298   3.326   5.598 -0.7136 -0.5052  1.3981
10401SOL    HW235889  10.423   3.380   5.664  0.2708  1.5201 -1.8876
10402SOL     OW35890   0.533   5.911   4.853  0.3472  0.6837  0.7580
10402SOL    HW135891   0.482   5.852   4.797  1.4880 -1.4628  1.8619
10402SOL    HW235892   0.607   5.937   4.798  0.7303 -0.2961  0.7840
10403SOL     OW35893  10.250  10.032   8.314 -0.3141 -0.8167  0.0749
10403SOL    HW135894  10.331  10.082   8.309 -0.7760 -0.0567 -0.1611
10403SOL    HW235895  10.260   9.961   8.251  1.0003 -2.0250  1.5809
10404SOL     OW35896   3.455   3.517   9.229  0.2425  0.2253 -0.1015
10404SOL    HW135897   3.438   3.478   9.143  3.8914 -1.0673 -0.4043
10404SOL    HW235898   3.539   3.562   9.219  0.2493  0.9677  2.5376
10405SOL     OW35899   5.642   7.868   5.948  0.3706  0.2310 -0.3184
10405SOL    HW135900   5.682   7.783   5.970 -0.1667  0.1084  0.1848
10405SOL    HW235901   5.713   7.917   5.907  1.2805  0.2942  1.2457
10406SOL     OW35902   3.368   2.223   1.887 -0.6025  0.2145 -0.2564
10406SOL    HW135903   3.395   2.307   1.926  0.7686 -0.8961  1.2971
10406SOL    HW235904   3.273   2.221   1.899 -0.5063  1.0192  0.7750
10407SOL     OW35905   1.324   5.002   7.414  0.2868 -0.2203  0.2654
10407SOL    HW135906   1.394   4.959   7.462  1.0978 -0.4638 -1.0823
10407SOL    HW235907   1.333   4.970   7.324 -1.5890 -0.3018  0.0554
10408SOL     OW35908   9.757   7.349   0.931 -0.0578 -0.0071  0.0976
10408SOL    HW135909   9.825   7.380   0.992 -0.5540 -4.1160  3.1610
10408SOL    HW235910   9.803   7.288   0.873 -0.7207 -1.1716  0.7798
10409SOL     OW35911   2.096   0.542   8.162  0.1829 -0.0676 -0.0670
10409SOL    HW135912   2.100   0.599   8.239 -0.5850  0.8507 -0.6652
10409SOL    HW235913   2.002   0.523   8.152  0.1711  0.5051 -1.2257
10410SOL     OW35914   0.655   0.460   8.688  0.5998  0.2292  0.1116
10410SOL    HW135915   0.665   0.491   8.598  2.2741 -0.6002 -0.0352
10410SOL    HW235916   0.721   0.509   8.737 -0.6224  1.0198  1.0008
10411SOL     OW35917   1.654   0.229   8.706 -0.2438 -0.2681 -0.1238
10411SOL    HW135918   1.662   0.186   8.621  3.5693  1.5316 -0.9116
10411SOL    HW235919   1.679   0.162   8.769  1.2807 -0.4911 -0.9139
10412SOL     OW35920   1.691   4.713   4.699 -0.3980 -0.7723  0.3132
10412SOL    HW135921   1.722   4.681   4.615 -0.4611  1.2311 -0.5326
10412SOL    HW235922   1.761   4.768   4.732 -0.0051 -2.2123  2.0483
10413SOL     OW35923   7.577   3.400   8.476  0.1755  0.1741  0.4449
10413SOL    HW135924   7.641   3.385   8.546  0.9697  0.4401 -0.1983
10413SOL    HW235925   7.598   3.488   8.443 -0.6223  0.3232  0.3119
10414SOL     OW35926   7.350   4.364   1.260 -0.0448  0.0981 -0.3011
10414SOL    HW135927   7.426   4.381   1.203 -0.3593  0.5951 -0.5836
10414SOL    HW235928   7.295   4.306   1.209  0.0175 -0.0450 -0.2056
10415SOL     OW35929  10.691  10.333   9.180 -0.3557 -0.0117  0.5328
10415SOL    HW135930  10.610  10.347   9.130  1.6510  2.2737 -2.4520
10415SOL    HW235931  10.684  10.394   9.254 -1.0725  0.6860 -0.0877
10416SOL     OW35932   9.054   7.315   3.211  0.2133  0.4611 -0.2667
10416SOL    HW135933   9.138   7.328   3.255  1.4248 -0.6083 -2.1325
10416SOL    HW235934   9.037   7.221   3.219 -0.1895  0.4729 -0.9242
10417SOL     OW35935   1.968   5.945  10.775 -0.4166 -0.4184  0.6094
10417SOL    HW135936   2.060   5.923  10.785 -0.5469 -1.3824 -0.0849
10417SOL    HW235937   1.942   5.982  10.860  0.5316 -0.4112  0.9012
10418SOL     OW35938   8.203   6.450   4.413 -0.0249  0.2998 -0.2604
10418SOL    HW135939   8.196   6.440   4.318 -1.4981 -0.7196 -0.0797
10418SOL    HW235940   8.277   6.395   4.438 -0.3562 -0.3667 -0.7099
10419SOL     OW35941   6.366   1.231   4.037 -0.1943 -0.0760  0.6260
10419SOL    HW135942   6.361   1.152   4.091  2.2626 -0.3664  0.5574
10419SOL    HW235943   6.377   1.198   3.947  0.0898  0.3351  0.5048
10420SOL     OW35944   0.813   1.500   4.645 -0.2476 -0.3995 -1.0384
10420SOL    HW135945   0.778   1.564   4.583  0.6861 -0.8344 -2.0696
10420SOL    HW235946   0.877   1.549   4.696 -0.9768 -0.0519 -0.4429
10421SOL     OW35947  11.337   5.826   4.223  0.2420 -0.2477  0.3906
10421SOL    HW135948  11.288   5.907   4.209 -0.2439 -0.4213  1.0751
10421SOL    HW235949  11.297   5.763   4.162 -0.3383 -0.3687  0.8967
10422SOL     OW35950   7.749   3.085  11.921  0.0993 -0.3017 -0.2808
10422SOL    HW135951   7.830   3.136  11.909 -0.2044  0.2687  0.0388
10422SOL    HW235952   7.736   3.085  12.016 -0.1547 -0.5885 -0.3168
10423SOL     OW35953   2.801   4.375   1.182  0.1925  0.0278 -0.2595
10423SOL    HW135954   2.830   4.313   1.116  0.5318  0.0416 -0.1260
10423SOL    HW235955   2.861   4.362   1.256 -1.0903 -1.0130  0.6308
10424SOL     OW35956   4.823   4.609   2.200 -0.3837 -0.3567 -0.5670
10424SOL    HW135957   4.738   4.653   2.198 -0.2855  0.0550  1.8782
10424SOL    HW235958   4.802   4.516   2.202 -0.7059 -0.3168 -1.5558
10425SOL     OW35959   2.289   7.540   6.121 -0.1418  0.0612  0.0111
10425SOL    HW135960   2.349   7.614   6.128 -0.8082  0.6499 -0.2992
10425SOL    HW235961   2.209   7.570   6.163 -0.1817 -0.7607  0.5382
10426SOL     OW35962   6.095   5.250   7.666  0.6125 -0.1204  0.4704
10426SOL    HW135963   6.144   5.186   7.615  0.4714  0.1310  0.0125
10426SOL    HW235964   6.079   5.323   7.606 -2.4848 -1.2238 -0.2329
10427SOL     OW35965   3.872   1.794   1.556 -0.0706 -0.4251  0.4318
10427SOL    HW135966   3.915   1.878   1.570 -0.0223 -0.7529  2.4750
10427SOL    HW235967   3.845   1.765   1.643 -1.3576 -1.8665 -0.3957
10428SOL     OW35968   2.004   7.175  10.008  0.0009  0.2489 -0.0307
10428SOL    HW135969   1.957   7.094   9.985 -0.5856  0.6292 -0.2069
10428SOL    HW235970   1.972   7.198  10.095  0.6048 -0.0198  0.2661
10429SOL     OW35971   6.081   9.470   2.888  0.1277 -1.1442 -0.6065
10429SOL    HW135972   6.140   9.477   2.963  0.5754 -0.5379 -1.0045
10429SOL    HW235973   6.139   9.459   2.812 -0.1995  0.5616 -1.1393
10430SOL     OW35974   9.271   1.096   9.113  0.4231 -0.3223  0.2520
10430SOL    HW135975   9.256   1.010   9.152  0.8976  0.3537  2.0298
10430SOL    HW235976   9.362   1.093   9.083  0.3536 -0.5300  0.0620
10431SOL     OW35977  10.922   1.959   4.200 -0.0758  0.1954  0.6298
10431SOL    HW135978  10.950   1.960   4.291  1.3973  4.6248  0.3595
10431SOL    HW235979  10.836   2.002   4.201 -0.2196 -0.0555 -0.0704
10432SOL     OW35980   8.222   6.006  11.817  0.1566 -0.0349 -0.8217
10432SOL    HW135981   8.239   6.020  11.724  0.4537 -0.0148 -0.7658
10432SOL    HW235982   8.127   5.993  11.823  0.2686 -1.1329 -1.2669
10433SOL     OW35983   7.438   8.631   1.862 -0.3138  0.4614  0.4398
10433SOL    HW135984   7.427   8.694   1.791  2.2869  0.1393 -0.3414
10433SOL    HW235985   7.496   8.675   1.924  0.8805 -0.8270  0.2733
10434SOL     OW35986   1.443   0.824  10.856  0.3647 -0.3557  0.4338
10434SOL    HW135987   1.434   0.733  10.828  1.2948  0.5119 -3.3750
10434SOL    HW235988   1.535   0.844  10.839 -0.4288  2.0010 -1.6828
10435SOL     OW35989   4.086   5.837   3.425 -0.5854 -0.1464 -0.5292
10435SOL    HW135990   4.000   5.873   3.403 -0.1755  2.0718  1.1622
10435SOL    HW235991   4.093   5.759   3.370 -3.5444 -0.2764 -0.9259
10436SOL     OW35992   9.201   8.766  10.312  0.0929 -0.2934 -0.4165
10436SOL    HW135993   9.267   8.794  10.376  1.4159 -1.7635 -1.0418
10436SOL    HW235994   9.167   8.684  10.347 -0.5424 -0.1522 -0.6872
10437SOL     OW35995   0.840   7.513   2.898  0.0260 -0.5705 -0.4007
10437SOL    HW135996   0.870   7.546   2.983 -1.3958  0.0150 -0.1040
10437SOL    HW235997   0.843   7.417   2.907  0.5990 -0.5164  0.0418
10438SOL     OW35998   5.488  11.542   2.063  0.1325  0.1114 -0.1666
10438SOL    HW135999   5.407  11.591   2.080 -1.7807 -2.6652 -0.6044
10438SOL    HW236000   5.495  11.542   1.967  0.4390 -0.0116 -0.1441
10439SOL     OW36001   1.374   3.441   8.378 -0.3295  0.4030  0.1863
10439SOL    HW136002   1.323   3.360   8.386 -3.1194  1.9899 -0.4678
10439SOL    HW236003   1.410   3.438   8.289 -2.7037  1.0703 -0.8496
10440SOL     OW36004   2.248   1.498  10.235  0.1612  0.2085 -0.2054
10440SOL    HW136005   2.341   1.476  10.231 -0.0099 -0.4296 -0.7633
10440SOL    HW236006   2.213   1.442  10.305 -0.2707 -1.3727 -1.6138
10441SOL     OW36007  11.447   2.632   2.749  0.2877  0.2054  0.1175
10441SOL    HW136008  11.396   2.601   2.674  1.1634 -0.6282 -0.1473
10441SOL    HW236009  11.538   2.614   2.725  0.5784 -0.1803  1.4320
10442SOL     OW36010   5.307   6.787   1.266 -0.6074  0.0305 -0.4687
10442SOL    HW136011   5.324   6.835   1.347 -2.6297 -0.9730  0.6113
10442SOL    HW236012   5.382   6.728   1.257  0.4508  1.3100 -0.2475
10443SOL     OW36013   2.428  11.495   3.802 -0.1505  0.3405 -0.0159
10443SOL    HW136014   2.341  11.462   3.826  0.9157 -1.2613  1.9557
10443SOL    HW236015   2.482  11.479   3.880  2.0001  0.9945 -1.2923
10444SOL     OW36016   7.461  11.303   0.379 -0.0301  0.4935 -0.0147
10444SOL    HW136017   7.518  11.372   0.411  1.9121 -0.7186 -0.7304
10444SOL    HW236018   7.436  11.254   0.458  2.3854 -0.7441  0.0532
10445SOL     OW36019   0.748   2.264   3.343 -0.4488 -0.1973 -0.7073
10445SOL    HW136020   0.768   2.351   3.376  0.6108 -0.3411 -0.9404
10445SOL    HW236021   0.665   2.275   3.296 -0.1316  0.7675 -1.0710
10446SOL     OW36022   0.936   5.326   7.089  0.1120  0.0884 -0.1246
10446SOL    HW136023   1.003   5.331   7.157 -2.1187 -1.6084  2.4108
10446SOL    HW236024   0.980   5.357   7.010  3.8633 -0.9100  1.3363
10447SOL     OW36025   1.975   9.345   2.591  0.6178 -0.3551  0.2002
10447SOL    HW136026   1.983   9.431   2.550 -1.5202  1.4647  3.1824
10447SOL    HW236027   2.053   9.338   2.645  0.3555  0.1796  0.6632
10448SOL     OW36028   7.866   4.131   5.870 -0.1795  0.5693 -0.1957
10448SOL    HW136029   7.866   4.207   5.928 -0.4317 -0.9103  1.8564
10448SOL    HW236030   7.940   4.146   5.811  2.2970  0.6042  2.7065
10449SOL     OW36031  11.087   5.975   6.979 -0.3175 -0.9488  0.1409
10449SOL    HW136032  11.119   5.898   7.026  0.9030 -0.2367  0.5126
10449SOL    HW236033  11.164   6.009   6.933 -1.0480 -0.4658 -0.7528
10450SOL     OW36034   1.133   4.097   7.656 -0.5978 -0.1066  0.4269
10450SOL    HW136035   1.213   4.050   7.679 -0.7083 -2.1073 -2.7096
10450SOL    HW236036   1.111   4.147   7.735  3.0580 -0.3545  1.7999
10451SOL     OW36037   5.498   5.297   6.238  0.4528  0.2473  0.7833
10451SOL    HW136038   5.502   5.202   6.243  0.1400  0.1502 -0.5313
10451SOL    HW236039   5.567   5.321   6.177  0.9192  0.9188  1.5587
10452SOL     OW36040   1.694   5.731   8.504 -0.2423  0.1084  0.1775
10452SOL    HW136041   1.745   5.758   8.579  0.0405 -0.3442  0.1510
10452SOL    HW236042   1.708   5.636   8.498 -0.7312  0.0483 -0.0892
10453SOL     OW36043   8.812   5.186   5.253 -0.8886 -0.4519  0.0027
10453SOL    HW136044   8.735   5.229   5.215  0.0254 -0.7374 -2.3129
10453SOL    HW236045   8.842   5.247   5.321 -2.4030  0.2551  0.0869
10454SOL     OW36046   8.615   5.983   3.502 -0.1937 -0.2015  0.5652
10454SOL    HW136047   8.559   6.060   3.513 -0.3531 -0.4738  1.8409
10454SOL    HW236048   8.666   6.002   3.424 -2.1292  0.0107 -0.7367
10455SOL     OW36049   3.357   2.702   9.876  1.0079 -0.1320 -0.1159
10455SOL    HW136050   3.379   2.641   9.946 -3.5590 -1.8730  0.1163
10455SOL    HW236051   3.291   2.759   9.914  1.8784  2.0716 -1.7192
10456SOL     OW36052   3.116   4.529   6.436 -0.7049 -0.5507 -0.3718
10456SOL    HW136053   3.165   4.477   6.500  0.0086 -0.6108 -0.9502
10456SOL    HW236054   3.072   4.464   6.381 -0.9790 -0.5058 -0.2100
10457SOL     OW36055   7.818   5.958  11.348 -0.1956 -0.0357  0.0914
10457SOL    HW136056   7.833   5.865  11.337 -0.1187 -0.2918  1.9707
10457SOL    HW236057   7.763   5.965  11.426 -0.0216  1.4920  0.1246
10458SOL     OW36058   0.971   1.776   7.446  0.0412  0.2993 -0.5739
10458SOL    HW136059   1.032   1.716   7.489 -2.3885 -0.9469  1.4178
10458SOL    HW236060   0.950   1.734   7.363  0.3894 -0.2790 -0.3756
10459SOL     OW36061   6.445   3.753   2.036  0.2030 -0.3352  0.4318
10459SOL    HW136062   6.539   3.757   2.054  0.0155  0.3189  1.3751
10459SOL    HW236063   6.432   3.670   1.991  1.2145 -0.4893  0.4144
10460SOL     OW36064   4.512   3.964   4.077  0.0329 -0.4203 -0.3557
10460SOL    HW136065   4.557   4.021   4.140 -0.2462  0.8125 -1.2267
10460SOL    HW236066   4.481   3.891   4.129 -3.0760  2.0691  1.6850
10461SOL     OW36067   9.053   1.106   0.213 -0.2574  0.4215  0.0511
10461SOL    HW136068   9.094   1.145   0.135  0.2330 -0.6119 -0.2222
10461SOL    HW236069   9.125   1.067   0.261 -0.6169  0.7104  0.8340
10462SOL     OW36070   9.401   3.742   2.873  0.4310  0.3466  0.0811
10462SOL    HW136071   9.309   3.767   2.877  0.5289  0.8127 -0.4760
10462SOL    HW236072   9.408   3.666   2.930 -0.2248  0.5374  0.4173
10463SOL     OW36073   2.417  10.431   7.348 -0.0190 -0.2642 -0.4762
10463SOL    HW136074   2.436  10.520   7.319 -0.3324 -0.1081 -0.2139
10463SOL    HW236075   2.393  10.384   7.268 -1.3487  0.2901 -0.4281
10464SOL     OW36076   9.474   7.948   2.043 -0.2244 -0.1349  0.0486
10464SOL    HW136077   9.434   8.029   2.012 -0.2037 -0.3192 -0.4755
10464SOL    HW236078   9.506   7.905   1.963 -0.6746 -0.8948  0.2646
10465SOL     OW36079   1.750  10.427   1.306 -0.0413 -0.4222 -0.2337
10465SOL    HW136080   1.727  10.337   1.282  1.0424 -0.6190 -0.6228
10465SOL    HW236081   1.841  10.420   1.337 -0.8772  0.0631  2.6344
10466SOL     OW36082   0.379   6.767   6.910 -0.0074 -0.5063 -0.2995
10466SOL    HW136083   0.295   6.806   6.937 -0.2565 -0.3479 -1.2637
10466SOL    HW236084   0.406   6.715   6.986 -1.2417 -0.9794 -0.1527
10467SOL     OW36085   4.732  10.881   7.947 -0.0308 -0.6964  0.4222
10467SOL    HW136086   4.659  10.936   7.921  0.0772  0.1130  1.7708
10467SOL    HW236087   4.809  10.924   7.909 -0.0740 -0.6306  0.4087
10468SOL     OW36088   0.664   3.281   5.775 -0.1712 -0.2352  0.1770
10468SOL    HW136089   0.656   3.248   5.865 -1.2687 -0.3936  0.0383
10468SOL    HW236090   0.718   3.216   5.730  3.0484  1.3596  1.4277
10469SOL     OW36091   7.770   2.239   4.940  0.4087  0.2996 -0.0069
10469SOL    HW136092   7.805   2.161   4.897 -1.2985 -0.9234  0.6823
10469SOL    HW236093   7.707   2.275   4.877 -1.7991 -1.2673  1.1774
10470SOL     OW36094   3.614  10.248   6.919 -0.3982 -0.2596 -0.4146
10470SOL    HW136095   3.545  10.315   6.925  0.1783  0.2764  0.4586
10470SOL    HW236096   3.575  10.171   6.960 -0.9485 -0.3866 -1.1332
10471SOL     OW36097  11.045   3.112   3.013  0.2285 -0.2155  0.0859
10471SOL    HW136098  11.129   3.069   3.031  0.0188 -0.0636  1.6146
10471SOL    HW236099  11.064   3.205   3.027 -0.1128 -0.1523  0.1313
10472SOL     OW36100   2.927   7.772   4.476 -0.1315  0.0060  0.4654
10472SOL    HW136101   3.016   7.787   4.509 -0.4319  1.6648  0.5545
10472SOL    HW236102   2.938   7.760   4.382  0.1950  0.1347  0.4866
10473SOL     OW36103   0.314   1.522   3.131 -0.2220 -0.3108 -0.5613
10473SOL    HW136104   0.314   1.611   3.097 -0.2225  0.7562  2.0041
10473SOL    HW236105   0.384   1.478   3.084  0.8968  1.5615 -0.7295
10474SOL     OW36106   2.692   3.183  10.243 -0.0866  0.3137 -0.3228
10474SOL    HW136107   2.751   3.258  10.244 -0.6284  0.7907 -1.9752
10474SOL    HW236108   2.691   3.154  10.152 -0.6578 -1.1040  0.0991
10475SOL     OW36109   4.531   2.953   9.360 -0.0440  0.1426  0.0201
10475SOL    HW136110   4.604   2.946   9.298 -0.1304  1.6821 -0.2927
10475SOL    HW236111   4.468   2.888   9.329  0.4170  0.0652 -0.8086
10476SOL     OW36112   3.195   7.052  10.358  0.7552  0.2014  0.1374
10476SOL    HW136113   3.261   7.121  10.370 -0.4612  1.7727 -1.6125
10476SOL    HW236114   3.194   7.036  10.264 -0.2675 -0.9118  0.3194
10477SOL     OW36115   7.237   1.009  11.038  0.1171 -0.1601 -0.1536
10477SOL    HW136116   7.300   1.042  11.103 -1.3246 -1.5380  2.0762
10477SOL    HW236117   7.154   1.047  11.063 -1.0458 -3.0152  0.7533
10478SOL     OW36118   3.742   3.563   0.992  0.3106 -0.4509 -0.2851
10478SOL    HW136119   3.770   3.642   0.946  2.5408 -1.4847 -0.8330
10478SOL    HW236120   3.730   3.498   0.922 -0.2359 -0.9439  0.2608
10479SOL     OW36121   9.733   5.117   5.329 -0.7797 -0.0216  0.2121
10479SOL    HW136122   9.689   5.066   5.397 -1.8350  0.3396 -0.1734
10479SOL    HW236123   9.690   5.090   5.247  1.6429 -1.7377 -0.5904
10480SOL     OW36124   0.117   7.249  10.300 -0.6447 -0.2327 -0.6342
10480SOL    HW136125   0.028   7.214  10.288 -0.0387 -1.7054 -0.9884
10480SOL    HW236126   0.107   7.317  10.366 -1.7055 -1.8725  0.9973
10481SOL     OW36127   4.148   3.629   8.745 -0.2529  0.3317  0.0940
10481SOL    HW136128   4.207   3.619   8.671 -1.7427 -0.0444 -1.1097
10481SOL    HW236129   4.180   3.568   8.811  0.1088 -0.6037 -0.9227
10482SOL     OW36130   0.404   1.494   8.774 -0.4665 -0.1034 -0.3156
10482SOL    HW136131   0.361   1.510   8.858 -0.6489  0.2131 -0.4700
10482SOL    HW236132   0.479   1.553   8.774 -1.4175  1.1275 -1.0974
10483SOL     OW36133   5.975   6.205   6.697  0.6303 -0.2021 -0.3060
10483SOL    HW136134   5.942   6.269   6.760 -0.6192 -0.6863 -0.4270
10483SOL    HW236135   6.052   6.166   6.739  0.6079  0.4283  0.3323
10484SOL     OW36136  11.449   5.217   0.099  0.1933 -0.3696  0.1127
10484SOL    HW136137  11.414   5.254   0.180  2.1321 -1.2595  1.4593
10484SOL    HW236138  11.514   5.281   0.069  0.7992 -0.8745  0.3151
10485SOL     OW36139   6.567   7.907  10.725 -0.3839  0.1073 -0.0345
10485SOL    HW136140   6.584   7.904  10.631  1.0860 -0.3494  0.2134
10485SOL    HW236141   6.597   7.994  10.752 -0.6656  0.1822  0.0454
10486SOL     OW36142   0.589   7.292   0.345  0.0890 -0.3648 -0.1784
10486SOL    HW136143   0.675   7.316   0.312 -1.1164  1.7130 -2.1603
10486SOL    HW236144   0.585   7.327   0.433  0.7416  0.9956 -0.6639
10487SOL     OW36145   3.121   3.288   6.565 -0.1169  0.1841 -0.4142
10487SOL    HW136146   3.215   3.300   6.552 -0.2350 -0.2856 -1.8866
10487SOL    HW236147   3.080   3.346   6.500 -0.8051 -0.8867 -0.9567
10488SOL     OW36148   1.133   3.191   0.922 -0.6768 -0.1824  0.4015
10488SOL    HW136149   1.116   3.098   0.911 -0.7757  0.0115 -1.5245
10488SOL    HW236150   1.055   3.234   0.886  0.2018  0.6242 -0.6421
10489SOL     OW36151   8.350   5.762  10.125  0.4218 -0.7002  0.2571
10489SOL    HW136152   8.304   5.702  10.066 -0.7614  0.3818  0.0109
10489SOL    HW236153   8.409   5.811  10.068 -0.7080  0.3322 -0.0680
10490SOL     OW36154   4.763  11.881   9.684 -0.3258 -0.2493 -0.0728
10490SOL    HW136155   4.787  11.960   9.731  1.7999 -0.3187 -0.9277
10490SOL    HW236156   4.713  11.829   9.747 -0.7424  1.2382  0.8675
10491SOL     OW36157   2.683   8.382   0.085 -0.5346  0.6708  0.8047
10491SOL    HW136158   2.650   8.464   0.050 -0.1846 -0.1869 -1.7603
10491SOL    HW236159   2.661   8.316   0.019  1.2309 -0.8997  1.6639
10492SOL     OW36160   2.717   9.251   9.022  0.1360  0.5935  0.1937
10492SOL    HW136161   2.804   9.286   9.041  0.5169 -0.2589  0.0568
10492SOL    HW236162   2.719   9.232   8.929 -0.4603  1.2732  0.0350
10493SOL     OW36163   2.464   5.482   7.718  0.2492 -0.3783 -0.4635
10493SOL    HW136164   2.415   5.558   7.749 -3.9534 -2.5089 -1.1743
10493SOL    HW236165   2.515   5.515   7.644 -1.9093  1.6821 -1.1700
10494SOL     OW36166   6.285   0.861   4.866 -0.0761  0.0708 -0.4166
10494SOL    HW136167   6.377   0.863   4.842  0.0601 -0.4717  0.0393
10494SOL    HW236168   6.240   0.905   4.793  0.7324  2.3035  0.3364
10495SOL     OW36169  10.160  11.725   0.923  0.3025 -0.2323  0.3520
10495SOL    HW136170  10.233  11.740   0.863  0.1204 -0.6011  0.0401
10495SOL    HW236171  10.201  11.692   1.003  0.4928 -0.2518  0.2472
10496SOL     OW36172   6.915  11.396   8.292 -0.4178  0.6469  0.4633
10496SOL    HW136173   6.995  11.359   8.331 -1.2721 -1.5308  0.3029
10496SOL    HW236174   6.909  11.355   8.206  0.3309  3.8157 -1.2680
10497SOL     OW36175   1.451   8.074   1.269  0.4753 -0.0419 -0.0505
10497SOL    HW136176   1.441   8.017   1.193 -0.0439 -2.5870  1.8181
10497SOL    HW236177   1.435   8.162   1.234  0.4852 -1.0581 -2.9048
10498SOL     OW36178   1.621   9.463  10.855 -0.0401  1.2927 -0.2812
10498SOL    HW136179   1.534   9.484  10.891  0.6050  1.6074  1.1869
10498SOL    HW236180   1.680   9.471  10.930  1.3783  1.8025 -1.4116
10499SOL     OW36181   8.120   0.719   2.190  0.2348 -0.2061  0.1284
10499SOL    HW136182   8.168   0.781   2.136 -1.4013  1.1712  0.1455
10499SOL    HW236183   8.141   0.633   2.154 -0.3874  0.6241 -2.4051
10500SOL     OW36184   7.868   8.094   2.179 -0.0850  0.3281  0.4902
10500SOL    HW136185   7.825   8.014   2.209  0.9493 -0.9760 -1.2932
10500SOL    HW236186   7.918   8.066   2.102 -0.9390  3.0293 -1.1644
10501SOL     OW36187   4.592   8.679   5.397 -0.6926 -0.7978  0.1027
10501SOL    HW136188   4.514   8.706   5.445 -0.2249  0.8267 -0.0042
10501SOL    HW236189   4.562   8.668   5.307 -0.8192 -0.1945  0.0657
10502SOL     OW36190   3.664   0.728   0.021  0.2566 -0.0081 -0.9833
10502SOL    HW136191   3.718   0.740  -0.057 -0.5908  3.0428 -1.2352
10502SOL    HW236192   3.581   0.770  -0.000 -0.4726 -0.2744  1.0950
10503SOL     OW36193   6.775   4.737   8.278 -0.3857  0.2128 -0.7981
10503SOL    HW136194   6.809   4.650   8.257 -1.5079 -0.3851 -0.2229
10503SOL    HW236195   6.764   4.736   8.373 -2.1281  0.3137 -0.9684
10504SOL     OW36196   8.010   3.367   0.150  0.3555 -0.1725 -0.2143
10504SOL    HW136197   8.007   3.363   0.245  0.7561 -0.0412 -0.1900
10504SOL    HW236198   8.099   3.399   0.131  0.2866 -0.2223 -0.6291
10505SOL     OW36199   2.132   2.305   3.493  0.2831  0.2510 -0.0117
10505SOL    HW136200   2.080   2.229   3.519 -0.2463  0.5804 -0.0782
10505SOL    HW236201   2.068   2.376   3.487  0.8749  0.8423  0.6564
10506SOL     OW36202   8.869   1.145   4.372  0.1662 -0.5895  0.1074
10506SOL    HW136203   8.855   1.160   4.465  1.2189 -0.9794  0.3429
10506SOL    HW236204   8.825   1.062   4.353  0.9712 -1.1331  0.5426
10507SOL     OW36205   5.606   3.633   1.025 -0.1918  0.7001  0.0086
10507SOL    HW136206   5.519   3.635   1.064  0.0597  0.0729  0.6102
10507SOL    HW236207   5.620   3.541   1.002  0.6543  0.6473  0.6999
10508SOL     OW36208   6.221  10.978   6.742 -0.2769 -0.1623  0.5458
10508SOL    HW136209   6.285  10.993   6.672  0.1611 -1.9908  0.5255
10508SOL    HW236210   6.138  10.965   6.696 -0.6624  1.9099  0.5596
10509SOL     OW36211  11.421   2.653   0.134  0.1863 -0.5274  0.4874
10509SOL    HW136212  11.388   2.671   0.222  0.8728 -1.9771  1.0767
10509SOL    HW236213  11.419   2.558   0.127 -0.7919 -0.4057 -1.4542
10510SOL     OW36214  11.286   1.431   0.215 -0.1833 -0.0052 -0.2109
10510SOL    HW136215  11.247   1.344   0.208  0.3800 -0.2170 -0.7899
10510SOL    HW236216  11.212   1.490   0.227 -0.4936 -0.7076  1.7992
10511SOL     OW36217   0.079   9.309   1.536  0.4903  0.1798 -0.2724
10511SOL    HW136218   0.127   9.292   1.454 -1.9168  0.3662 -1.8056
10511SOL    HW236219   0.012   9.372   1.512 -0.5768 -0.1023  1.7680
10512SOL     OW36220   5.852   3.687   1.813 -0.4363  0.3707  0.0122
10512SOL    HW136221   5.839   3.739   1.892  0.3856  0.8010 -0.1277
10512SOL    HW236222   5.906   3.743   1.756 -0.7976 -0.0333 -0.7465
10513SOL     OW36223   8.839  10.506   4.889  0.6140 -0.2555 -0.8877
10513SOL    HW136224   8.815  10.416   4.868  2.3058 -0.2788 -3.1166
10513SOL    HW236225   8.896  10.498   4.966 -1.7968 -0.7030  0.9460
10514SOL     OW36226   7.244  10.507   9.837  0.6057 -0.5473  0.5314
10514SOL    HW136227   7.231  10.424   9.883  1.8449 -0.7432  0.5728
10514SOL    HW236228   7.288  10.483   9.755 -0.7031 -0.1003 -0.3395
10515SOL     OW36229   5.658  10.798   2.886 -0.1685 -0.0965 -0.0381
10515SOL    HW136230   5.596  10.851   2.935 -1.2032 -1.4586  0.2015
10515SOL    HW236231   5.604  10.735   2.839  1.0468 -2.2483  1.2600
10516SOL     OW36232   7.601   2.937  11.101 -0.0839  0.6726 -0.0737
10516SOL    HW136233   7.607   2.900  11.012 -0.8934  0.1629  0.0809
10516SOL    HW236234   7.614   3.031  11.088 -1.1205  0.7246 -0.8530
10517SOL     OW36235   6.844  11.358   2.175  0.1898 -0.0606  0.7616
10517SOL    HW136236   6.907  11.430   2.183  0.5616 -0.3967  0.8719
10517SOL    HW236237   6.772  11.395   2.124  1.1365 -0.0975 -0.6542
10518SOL     OW36238  10.203   2.259   0.083 -0.0217  0.3546  0.1297
10518SOL    HW136239  10.174   2.302   0.002 -2.3399  0.8062  1.1121
10518SOL    HW236240  10.239   2.331   0.136  1.0577  0.1402 -0.3013
10519SOL     OW36241   1.850   8.141   4.532  0.3694  0.2145 -0.6409
10519SOL    HW136242   1.945   8.128   4.543  0.5558  0.6962 -1.6146
10519SOL    HW236243   1.814   8.120   4.618  1.4057  0.4789 -0.1162
10520SOL     OW36244  11.925   7.559   3.169  0.7181  0.0967  0.7021
10520SOL    HW136245  12.016   7.586   3.179  0.9208 -0.4476  0.3324
10520SOL    HW236246  11.928   7.486   3.108  0.0565 -0.0622  0.8527
10521SOL     OW36247   4.580   7.002   0.330 -0.2131 -0.0558  0.0091
10521SOL    HW136248   4.495   7.047   0.335  0.2681  0.9003 -0.2196
10521SOL    HW236249   4.632   7.057   0.271  0.6286 -0.5358  0.2998
10522SOL     OW36250   9.510   1.551   8.835  0.0732  0.0666  0.1429
10522SOL    HW136251   9.553   1.595   8.762 -2.0127  0.2709 -1.0265
10522SOL    HW236252   9.516   1.613   8.907 -0.3286  1.0869 -0.6701
10523SOL     OW36253   0.731   1.359   3.636  0.7253 -0.5501 -0.8575
10523SOL    HW136254   0.748   1.361   3.542 -0.9354 -0.7703 -1.1938
10523SOL    HW236255   0.645   1.401   3.645  0.4500 -1.3611  0.4588
10524SOL     OW36256   5.478  10.871   9.751  0.1265 -0.0688 -0.1853
10524SOL    HW136257   5.523  10.953   9.736  0.9912 -0.3668  0.6708
10524SOL    HW236258   5.511  10.840   9.836 -3.2485  0.7738  1.6622
10525SOL     OW36259   2.055   9.568   9.723  0.2484  0.4632  0.4720
10525SOL    HW136260   2.003   9.489   9.706  1.1861 -0.1054  0.1824
10525SOL    HW236261   2.109   9.578   9.644  0.5802  1.0481  0.7699
10526SOL     OW36262   3.650   1.392   3.564 -0.6778 -0.3982  0.5582
10526SOL    HW136263   3.565   1.396   3.520 -0.0966 -0.0913 -0.5592
10526SOL    HW236264   3.684   1.482   3.559 -0.9685 -0.1371  2.4220
10527SOL     OW36265   8.667   7.105   2.328 -0.4723  0.7029 -0.4100
10527SOL    HW136266   8.717   7.148   2.258 -0.1348  0.2548 -0.4500
10527SOL    HW236267   8.709   7.136   2.408  1.4948 -1.5187 -0.4697
10528SOL     OW36268   4.752   5.416   1.886 -0.0976 -0.2472  0.3696
10528SOL    HW136269   4.690   5.353   1.850 -1.5010  1.0741  0.3694
10528SOL    HW236270   4.707   5.500   1.882  1.3284  0.6224  1.2900
10529SOL     OW36271   1.630   1.686   2.572 -0.4126  0.2598  0.0846
10529SOL    HW136272   1.583   1.746   2.513 -0.6115 -0.7088 -0.7687
10529SOL    HW236273   1.592   1.703   2.658 -2.1407 -0.2457 -0.5224
10530SOL     OW36274   1.724   0.856   0.686  0.1212 -0.0508  0.0033
10530SOL    HW136275   1.771   0.937   0.705 -0.5449  0.0323  1.3913
10530SOL    HW236276   1.695   0.866   0.595 -0.5891  1.5981  0.3823
10531SOL     OW36277   5.311   5.766   9.781 -0.2089  0.2736 -0.4927
10531SOL    HW136278   5.398   5.802   9.794 -0.2014  0.8281 -1.9041
10531SOL    HW236279   5.317   5.718   9.698 -1.2246  0.2889 -0.5880
10532SOL     OW36280  10.336   7.409   3.808 -0.2317  0.1589 -0.0685
10532SOL    HW136281  10.258   7.359   3.832  0.5709 -0.9693  0.2908
10532SOL    HW236282  10.393   7.402   3.884 -0.2461  1.9988  0.1472
10533SOL     OW36283   1.617  10.068   7.468  0.0152  0.1864  0.0553
10533SOL    HW136284   1.679  10.009   7.511  0.7715  0.4493 -0.6527
10533SOL    HW236285   1.671  10.134   7.426 -0.7041  0.0754 -1.0982
10534SOL     OW36286  11.983   0.881   7.722  0.5404  0.7647  0.0997
10534SOL    HW136287  11.956   0.819   7.655  0.7769 -1.2882  1.8203
10534SOL    HW236288  12.067   0.916   7.691  0.0364  0.8236 -1.2444
10535SOL     OW36289   5.853   6.706   1.311  0.0850  0.9053  0.0549
10535SOL    HW136290   5.839   6.694   1.405  1.0596  2.0060  0.3672
10535SOL    HW236291   5.947   6.697   1.299 -0.0617  0.5416 -0.8595
10536SOL     OW36292   7.651   0.507   9.404 -0.1990 -0.3158  0.1905
10536SOL    HW136293   7.602   0.589   9.408 -1.0396 -0.8293  0.6269
10536SOL    HW236294   7.736   0.529   9.444  0.0378  0.6333 -0.7837
10537SOL     OW36295   7.253   7.304   2.973  0.1472 -0.2018 -0.8250
10537SOL    HW136296   7.216   7.352   2.900 -0.9741 -0.6639 -0.5965
10537SOL    HW236297   7.195   7.228   2.983  1.3182 -1.0952 -0.5912
10538SOL     OW36298   7.227  11.417   1.930 -0.0816 -0.0754 -0.5726
10538SOL    HW136299   7.251  11.436   1.839  0.8620 -1.7272 -0.7140
10538SOL    HW236300   7.276  11.337   1.951 -1.2374 -0.4132  0.9993
10539SOL     OW36301   5.926   5.548  10.058 -0.3849 -0.0166 -0.3998
10539SOL    HW136302   5.867   5.483  10.098  0.3574 -1.1472 -1.0983
10539SOL    HW236303   6.014   5.514  10.074  0.0183  0.7682 -0.8781
10540SOL     OW36304   6.717   4.154   0.918  0.3595 -0.4541 -0.0057
10540SOL    HW136305   6.679   4.216   0.856 -1.9021 -1.3940  0.3404
10540SOL    HW236306   6.684   4.183   1.004  2.6876  0.2801  0.7076
10541SOL     OW36307  10.475   4.716   4.109  0.0017  0.4275 -0.5242
10541SOL    HW136308  10.459   4.698   4.017  0.4304  0.9110 -0.6897
10541SOL    HW236309  10.440   4.804   4.123  0.5299  0.6131 -0.3761
10542SOL     OW36310   0.498  10.332   6.635 -0.0458  0.3636  0.1332
10542SOL    HW136311   0.431  10.398   6.614  0.7659  0.9848 -0.5471
10542SOL    HW236312   0.578  10.382   6.647  0.5931 -0.4961 -0.4255
10543SOL     OW36313   3.820   9.241  10.543 -0.2893  0.0667  0.2271
10543SOL    HW136314   3.896   9.252  10.486 -2.2346 -1.0048 -2.8259
10543SOL    HW236315   3.837   9.300  10.617  3.6945 -0.5649  0.0263
10544SOL     OW36316   9.159   1.188   8.158 -0.3295 -0.3785 -0.0289
10544SOL    HW136317   9.087   1.235   8.200 -0.1116  0.3770 -0.4740
10544SOL    HW236318   9.220   1.169   8.230  0.1721  1.1443  0.0035
10545SOL     OW36319   4.445   3.176   3.632  0.1748 -0.1230 -0.1929
10545SOL    HW136320   4.442   3.242   3.702  0.7088  0.1254 -0.4006
10545SOL    HW236321   4.470   3.095   3.676 -0.7562 -0.2599  0.1124
10546SOL     OW36322   8.310   8.229  10.226  0.2714  0.3058  0.0190
10546SOL    HW136323   8.271   8.271  10.149  1.6181  0.1410 -0.7979
10546SOL    HW236324   8.332   8.301  10.284 -2.7194  0.3282  1.3187
10547SOL     OW36325   1.103   4.929   4.260 -0.3479 -0.1071  0.0129
10547SOL    HW136326   1.040   4.919   4.332  1.2757 -3.3729  1.2144
10547SOL    HW236327   1.189   4.929   4.303  0.6832 -2.0758 -1.8249
10548SOL     OW36328   4.905   8.969   5.322  0.3055  0.6448  0.2784
10548SOL    HW136329   4.837   8.907   5.349  0.9523  0.7171  2.1745
10548SOL    HW236330   4.981   8.914   5.304  0.6456  0.8135  1.1821
10549SOL     OW36331   7.172  10.609  11.852 -0.4954  0.0451  0.3304
10549SOL    HW136332   7.094  10.607  11.908 -1.1044 -1.4908 -0.5294
10549SOL    HW236333   7.150  10.554  11.777  0.4193  1.7926 -1.3044
10550SOL     OW36334   4.958   0.308   8.940 -0.4133 -0.1891 -0.5152
10550SOL    HW136335   5.036   0.311   8.994 -0.2158 -2.0624 -0.6374
10550SOL    HW236336   4.986   0.344   8.856 -0.1327  0.6546 -0.0705
10551SOL     OW36337   3.293   1.504  10.633  0.3937  0.3632  0.1342
10551SOL    HW136338   3.287   1.439  10.564 -1.3248 -0.7957  1.3003
10551SOL    HW236339   3.240   1.578  10.602  1.7811  0.9699 -0.8865
10552SOL     OW36340   2.209   7.563   5.647  0.1995  0.4439  0.5300
10552SOL    HW136341   2.142   7.503   5.681  1.8831 -2.1037 -0.3174
10552SOL    HW236342   2.229   7.529   5.560  2.5859  1.0535  0.7810
10553SOL     OW36343   3.688   9.248   6.668  0.1117  0.3728 -0.3281
10553SOL    HW136344   3.602   9.209   6.652 -0.1568  0.6290  0.4660
10553SOL    HW236345   3.675   9.342   6.658  0.2170  0.4401  0.1291
10554SOL     OW36346   3.558   8.915  11.937  0.0184 -0.0779  0.0194
10554SOL    HW136347   3.598   8.900  11.852 -0.7396 -0.1901 -0.3266
10554SOL    HW236348   3.465   8.899  11.923 -0.0873 -0.3107  0.9219
10555SOL     OW36349   1.024   1.927  10.335 -0.5338  0.2107  0.2335
10555SOL    HW136350   0.957   1.863  10.361 -0.5544  0.8816  1.9146
10555SOL    HW236351   0.986   2.012  10.358 -0.8022  0.9588 -2.6082
10556SOL     OW36352   8.848  10.933  10.680  0.1839  0.0433  0.0068
10556SOL    HW136353   8.801  10.918  10.598  2.1476  1.1923 -1.3944
10556SOL    HW236354   8.888  10.849  10.701 -1.5933 -0.6758  0.6840
10557SOL     OW36355   8.691  10.556   0.710 -0.6453  0.0851 -0.2565
10557SOL    HW136356   8.610  10.602   0.688  0.2412  1.1030 -1.5499
10557SOL    HW236357   8.698  10.564   0.805 -0.6509  2.5358 -0.3797
10558SOL     OW36358   1.533   8.916   4.426  0.2963  0.0674  0.1625
10558SOL    HW136359   1.510   8.830   4.389 -1.8841  0.6774 -0.0479
10558SOL    HW236360   1.482   8.921   4.507  0.8468  0.9396  0.4580
10559SOL     OW36361   7.887   0.222  11.683 -0.1717  0.0511  0.2499
10559SOL    HW136362   7.894   0.130  11.707  0.5579 -0.3466 -1.3306
10559SOL    HW236363   7.976   0.257  11.695 -0.7007  0.8790  2.0008
10560SOL     OW36364   0.058   4.119   1.030 -0.7131 -0.5910  0.0353
10560SOL    HW136365   0.114   4.046   1.005  1.5717  0.7700  0.8813
10560SOL    HW236366  -0.015   4.079   1.076 -0.4368 -2.4359 -1.0423
10561SOL     OW36367   4.659  11.609   4.827 -0.7375 -0.1181 -0.5743
10561SOL    HW136368   4.582  11.652   4.867 -0.0072  0.7839 -0.0885
10561SOL    HW236369   4.720  11.681   4.810 -0.4868 -0.6626 -2.1206
10562SOL     OW36370   7.642   1.578   9.833  0.1634  0.5240 -0.1390
10562SOL    HW136371   7.686   1.629   9.901  0.1848  0.3567 -0.0263
10562SOL    HW236372   7.674   1.489   9.846 -0.7487  0.2592  0.3997
10563SOL     OW36373   2.631   9.144   5.630 -0.5834  0.2567 -0.2901
10563SOL    HW136374   2.703   9.186   5.677 -0.1836  0.6291 -1.2170
10563SOL    HW236375   2.674   9.080   5.573 -0.8940  1.0823 -1.4925
10564SOL     OW36376   0.009  10.193   0.346 -0.0303 -0.6082 -0.5980
10564SOL    HW136377   0.088  10.227   0.304 -0.8807  1.6070 -0.5270
10564SOL    HW236378   0.041  10.137   0.416  1.5217  1.1049  0.1365
10565SOL     OW36379   5.646   2.493   0.401  0.1393  0.1427  0.2596
10565SOL    HW136380   5.633   2.583   0.372 -1.3093 -0.3504 -0.7791
10565SOL    HW236381   5.599   2.488   0.485  1.0411  0.5846  0.8015
10566SOL     OW36382   5.176   3.403   2.232 -0.4396 -0.2656 -0.1548
10566SOL    HW136383   5.157   3.396   2.139 -0.1321  2.1721 -0.4827
10566SOL    HW236384   5.097   3.443   2.270  0.1513  0.5570  0.2514
10567SOL     OW36385   7.641   2.216  11.729 -0.6746 -0.6936 -0.0875
10567SOL    HW136386   7.656   2.156  11.656 -2.5439 -0.7639 -0.4566
10567SOL    HW236387   7.573   2.174  11.782 -2.9020  1.5471 -0.9788
10568SOL     OW36388   2.017   9.582   1.449 -0.4737 -0.5018 -0.1191
10568SOL    HW136389   1.995   9.673   1.466 -1.0082 -0.8468  1.2107
10568SOL    HW236390   2.110   9.583   1.428  0.2277  0.1000  2.5846
10569SOL     OW36391   3.832   0.382   0.399  0.2554 -0.0983  0.4606
10569SOL    HW136392   3.840   0.436   0.320  2.5949  0.2119  0.8333
10569SOL    HW236393   3.808   0.444   0.468 -2.5242 -0.4797 -0.0483
10570SOL     OW36394  11.836   0.268   2.264 -0.1800  0.8085 -0.6972
10570SOL    HW136395  11.864   0.181   2.235 -1.5914  0.4054 -0.9072
10570SOL    HW236396  11.780   0.252   2.339 -0.9109  1.4947 -1.0740
10571SOL     OW36397   0.865   1.786   6.595 -0.6888 -0.0804 -0.1461
10571SOL    HW136398   0.779   1.749   6.615 -0.3800 -1.7132 -1.5924
10571SOL    HW236399   0.858   1.878   6.619 -2.5863 -0.3497  0.4871
10572SOL     OW36400   9.660   1.572   8.464 -0.0273  0.4690 -0.2256
10572SOL    HW136401   9.733   1.510   8.455 -0.4879 -0.3016  0.9859
10572SOL    HW236402   9.683   1.625   8.540 -0.7600  0.1683  0.2102
10573SOL     OW36403   7.658   3.831   0.508 -0.2695  0.9995  0.5435
10573SOL    HW136404   7.667   3.925   0.500 -3.2879  1.3308 -0.0135
10573SOL    HW236405   7.618   3.818   0.595 -0.4422  0.3026  0.3674
10574SOL     OW36406   6.795   0.836  11.468  1.1074 -0.5368 -0.5634
10574SOL    HW136407   6.829   0.915  11.427  0.4285 -0.0926 -0.2871
10574SOL    HW236408   6.863   0.808  11.529  1.5789 -0.4746 -1.0557
10575SOL     OW36409   4.947   8.193   6.458  0.1217 -0.6340 -0.9389
10575SOL    HW136410   4.978   8.162   6.543 -0.3470  0.1513 -0.4622
10575SOL    HW236411   4.903   8.276   6.478  0.4920 -0.1631 -2.0288
10576SOL     OW36412   7.741   0.555   3.256 -0.1976  0.4823 -0.5116
10576SOL    HW136413   7.786   0.518   3.180 -1.4855  0.9747 -1.5695
10576SOL    HW236414   7.672   0.610   3.218 -1.1668  0.3924  1.0224
10577SOL     OW36415   2.340   0.721   3.046 -0.3744  0.0513  0.7500
10577SOL    HW136416   2.272   0.723   2.980 -0.6407 -0.4338  1.0018
10577SOL    HW236417   2.382   0.807   3.041 -0.1096 -0.1245 -0.3349
10578SOL     OW36418   5.828   5.259   5.451  0.7023  0.4179 -0.1331
10578SOL    HW136419   5.746   5.237   5.495 -0.0144  2.0683 -0.5669
10578SOL    HW236420   5.896   5.231   5.512 -0.2233  0.8291  1.1385
10579SOL     OW36421   3.592   2.246   2.276  0.6884 -0.6109 -0.2471
10579SOL    HW136422   3.610   2.339   2.290 -0.1936 -0.4996  0.2249
10579SOL    HW236423   3.497   2.239   2.281  0.8109 -1.9527  2.7118
10580SOL     OW36424   6.262   9.201   1.185 -0.1220 -0.1815 -0.4371
10580SOL    HW136425   6.296   9.148   1.257 -0.1080  2.4825  1.6576
10580SOL    HW236426   6.340   9.222   1.133  0.4102  0.4832  0.6052
10581SOL     OW36427   0.769  11.431  11.321  0.0111 -0.2342  0.3969
10581SOL    HW136428   0.806  11.419  11.233  1.0596  0.0864  0.7722
10581SOL    HW236429   0.719  11.351  11.337  1.8325 -1.4435  0.4423
10582SOL     OW36430   0.938   9.849  11.120 -0.0737  0.0161 -0.2655
10582SOL    HW136431   0.897   9.799  11.050  1.6623  0.4731 -1.7035
10582SOL    HW236432   0.912   9.805  11.201 -1.9847 -0.6461 -1.1900
10583SOL     OW36433   4.098   7.297   9.174  0.0884 -0.4622 -0.0772
10583SOL    HW136434   4.080   7.267   9.084 -0.3376  0.0273 -0.1620
10583SOL    HW236435   4.172   7.357   9.164  0.9091 -1.4239  0.0863
10584SOL     OW36436   5.037  11.074   1.545  0.6797 -0.0680  0.1439
10584SOL    HW136437   5.108  11.092   1.484  1.4592 -2.4573  0.2375
10584SOL    HW236438   4.958  11.075   1.492  1.4598 -3.3119 -1.2881
10585SOL     OW36439  10.856   4.444   4.392 -0.3316  0.0581 -0.2024
10585SOL    HW136440  10.919   4.402   4.450 -2.2512 -2.9279 -0.0513
10585SOL    HW236441  10.903   4.518   4.354  2.7383 -1.1315  0.9878
10586SOL     OW36442  10.024   9.200   9.256  0.3220  0.3438 -0.6509
10586SOL    HW136443   9.931   9.193   9.232  0.7320  0.1826 -2.2703
10586SOL    HW236444  10.062   9.255   9.188  1.5059  0.0280 -0.2603
10587SOL     OW36445   9.222   5.678   3.957 -0.4710 -0.2735  0.6782
10587SOL    HW136446   9.175   5.598   3.983 -2.5119  0.7145  0.2212
10587SOL    HW236447   9.153   5.740   3.934  1.0961  1.1467 -0.4405
10588SOL     OW36448   1.686   3.381   9.561 -0.0919  0.4995 -0.0760
10588SOL    HW136449   1.692   3.476   9.554 -1.4024  0.6302  0.2516
10588SOL    HW236450   1.749   3.348   9.496 -0.4594  1.5889 -1.0282
10589SOL     OW36451   8.908   1.464   2.107  0.2570 -0.7670 -0.0932
10589SOL    HW136452   8.903   1.496   2.017 -2.4299  0.3224  0.3442
10589SOL    HW236453   8.974   1.519   2.149 -0.4628  0.6488 -0.7323
10590SOL     OW36454   2.733   7.016   2.149  0.1675 -0.5031 -0.0037
10590SOL    HW136455   2.807   6.967   2.114  0.7419  0.4828 -0.2113
10590SOL    HW236456   2.754   7.028   2.242  0.0753 -0.5769  0.0263
10591SOL     OW36457   9.850   1.942   8.750 -0.3661  0.4719 -0.2641
10591SOL    HW136458   9.811   2.008   8.692  1.1086  1.9363  0.3242
10591SOL    HW236459   9.944   1.950   8.735 -0.1045 -0.9116  0.4862
10592SOL     OW36460   3.074   7.858   8.155  0.3709 -0.3663  0.3139
10592SOL    HW136461   3.128   7.783   8.180  0.4960 -0.1217  0.7745
10592SOL    HW236462   3.005   7.862   8.221 -1.2445 -1.7084 -1.1963
10593SOL     OW36463   8.423   9.540   3.745 -0.1307 -0.2482 -0.4476
10593SOL    HW136464   8.432   9.567   3.654 -0.3727  0.1051 -0.3673
10593SOL    HW236465   8.452   9.616   3.795 -0.5541 -0.2328 -0.2244
10594SOL     OW36466   1.995  11.956   1.232  0.1582  0.1809 -0.3137
10594SOL    HW136467   1.932  11.887   1.211  0.1773  0.6032 -1.8293
10594SOL    HW236468   2.050  11.964   1.154 -0.6620  2.7984 -0.6993
10595SOL     OW36469   2.614   3.038   7.467  0.2245 -0.3037  0.1726
10595SOL    HW136470   2.535   3.088   7.447 -0.2677  0.7126  3.8498
10595SOL    HW236471   2.581   2.950   7.488  0.3724 -0.5094 -0.4324
10596SOL     OW36472   5.125   9.032   0.705 -0.0514  0.1621 -0.3028
10596SOL    HW136473   5.046   9.052   0.756 -1.1979 -1.7297 -1.2421
10596SOL    HW236474   5.092   9.003   0.620  1.7459  0.9141 -1.3125
10597SOL     OW36475   9.339   8.172   1.332  0.0610 -0.0270 -0.1604
10597SOL    HW136476   9.429   8.182   1.362  0.3739 -1.3096 -0.5692
10597SOL    HW236477   9.311   8.260   1.309  1.2729  0.3790 -0.1653
10598SOL     OW36478   5.460   3.860  10.652  0.0384 -0.5457  0.3043
10598SOL    HW136479   5.448   3.810  10.733 -0.1617  0.3096  0.8107
10598SOL    HW236480   5.371   3.880  10.623  0.0501  2.4385  1.9613
10599SOL     OW36481   3.040   7.200   4.733 -0.5848  0.2734  0.3894
10599SOL    HW136482   2.971   7.266   4.740 -0.4500  0.7209 -1.6860
10599SOL    HW236483   3.106   7.226   4.797  0.5058  3.5552 -1.8409
10600SOL     OW36484  10.326   1.911   5.137 -0.1291 -0.2078 -0.4386
10600SOL    HW136485  10.380   1.986   5.162  2.0323 -1.7596 -0.1975
10600SOL    HW236486  10.272   1.894   5.215  2.3246 -1.3628  1.1194
10601SOL     OW36487   5.655   2.694  10.257 -0.3145 -0.1590  0.6428
10601SOL    HW136488   5.619   2.656  10.177 -0.4514 -0.8588  1.0311
10601SOL    HW236489   5.625   2.636  10.327 -0.0356  0.3380  1.1851
10602SOL     OW36490   7.009   2.992   1.302  0.2938 -0.3175 -0.2886
10602SOL    HW136491   7.023   2.904   1.339 -0.7057  0.3443  1.8220
10602SOL    HW236492   6.979   2.975   1.213  1.4008 -2.0678 -0.3880
10603SOL     OW36493   0.021   9.126  11.890  0.2302 -0.0273 -0.1068
10603SOL    HW136494   0.116   9.142  11.888  0.0124  1.6599  1.0729
10603SOL    HW236495   0.013   9.032  11.906  1.7474  0.1375  2.0143
10604SOL     OW36496   6.430   9.995   6.625 -0.9485  0.3288 -0.1768
10604SOL    HW136497   6.379  10.072   6.598 -1.7818 -0.0451  0.2867
10604SOL    HW236498   6.364   9.935   6.661 -0.3357 -0.6963 -0.7503
10605SOL     OW36499   9.611   7.650  10.717 -0.1494  0.4640  0.1445
10605SOL    HW136500   9.521   7.675  10.740 -0.0301  0.5463  0.5322
10605SOL    HW236501   9.648   7.618  10.799 -0.5436 -1.7632 -0.4642
10606SOL     OW36502   1.490   3.227   7.741 -0.0626  0.0098  0.4733
10606SOL    HW136503   1.446   3.170   7.804  0.5849 -0.8426  0.1713
10606SOL    HW236504   1.482   3.181   7.657  0.3508  0.4322  0.1989
10607SOL     OW36505   2.625   8.772   2.756 -1.0316  0.1879 -0.3462
10607SOL    HW136506   2.568   8.841   2.790 -0.8346  0.5876 -0.8127
10607SOL    HW236507   2.709   8.787   2.799 -1.9554 -2.1777  2.6692
10608SOL     OW36508   1.081   0.686   2.428 -0.4930 -0.4123 -0.5323
10608SOL    HW136509   1.130   0.620   2.477  0.5262  0.5349 -0.2575
10608SOL    HW236510   1.038   0.739   2.495 -0.5894 -0.2439 -0.7248
10609SOL     OW36511   1.584   1.601   0.563  0.0039  0.1567  0.0772
10609SOL    HW136512   1.579   1.684   0.515  0.7784  0.5944  0.7294
10609SOL    HW236513   1.674   1.571   0.549  1.1830  1.6396  3.3533
10610SOL     OW36514   2.207   6.070   2.103  0.4505 -0.5549  0.0791
10610SOL    HW136515   2.242   6.052   2.190  0.0117  0.0806  0.3905
10610SOL    HW236516   2.243   6.000   2.048  3.3232  0.7928  0.0866
10611SOL     OW36517   2.262   9.255   0.422 -0.0726 -0.3271 -0.3619
10611SOL    HW136518   2.212   9.289   0.349 -2.7214 -1.6840  0.7062
10611SOL    HW236519   2.275   9.331   0.479 -1.1222  0.0068 -0.5570
10612SOL     OW36520   4.648   8.535   4.248 -0.3821  0.8995 -0.1121
10612SOL    HW136521   4.609   8.522   4.334  0.0763  0.4611  0.0403
10612SOL    HW236522   4.582   8.582   4.197 -1.2461 -0.1240  0.0262
10613SOL     OW36523  11.062   3.704   9.180 -0.3178  0.0162 -0.4354
10613SOL    HW136524  11.130   3.770   9.189 -0.7078  0.4569 -0.6679
10613SOL    HW236525  11.047   3.673   9.269 -0.8907  1.0222 -0.1679
10614SOL     OW36526  10.476   1.791   0.869  0.1031  0.0424  0.0413
10614SOL    HW136527  10.411   1.777   0.937  0.4646 -0.5852  0.2709
10614SOL    HW236528  10.426   1.810   0.790 -0.3271  0.4271  0.4092
10615SOL     OW36529   4.723   7.912   3.055  0.2326 -0.1167  0.4106
10615SOL    HW136530   4.772   7.860   2.991 -0.2192 -0.7361  0.5501
10615SOL    HW236531   4.786   7.975   3.090  0.4620  0.2993 -0.7136
10616SOL     OW36532   3.542   4.240   7.114 -0.5950 -0.3265 -0.0410
10616SOL    HW136533   3.586   4.156   7.101  0.2837  0.1294 -0.0838
10616SOL    HW236534   3.472   4.220   7.176  0.1783 -0.9184  0.6686
10617SOL     OW36535   9.718   6.670   3.757 -0.5528  0.4154 -0.0118
10617SOL    HW136536   9.626   6.692   3.770 -0.9593 -1.0791 -0.1487
10617SOL    HW236537   9.723   6.577   3.778  0.8501  0.3866 -0.3933
10618SOL     OW36538   0.328   0.047   4.576 -0.5089 -0.2664  0.8705
10618SOL    HW136539   0.367   0.135   4.569  0.5063 -0.7926 -0.5611
10618SOL    HW236540   0.261   0.056   4.643 -0.1020  1.4941  1.0934
10619SOL     OW36541   2.790  10.784   1.563  0.4821 -0.2251 -0.3826
10619SOL    HW136542   2.879  10.817   1.553  0.5783 -0.2693  0.2747
10619SOL    HW236543   2.738  10.863   1.582  0.3563 -0.1840 -0.8705
10620SOL     OW36544   3.065  11.025   7.135 -0.0655  0.0009 -0.3102
10620SOL    HW136545   3.140  11.081   7.116 -0.0163 -0.3807 -1.2991
10620SOL    HW236546   3.035  11.054   7.221  0.8313  0.5738 -0.1755
10621SOL     OW36547  11.391   3.689   5.211  0.2506 -0.2450 -0.1014
10621SOL    HW136548  11.439   3.640   5.144 -0.3792 -1.0699  0.0420
10621SOL    HW236549  11.448   3.687   5.288  1.1451  1.0148 -0.6804
10622SOL     OW36550   5.519  11.443   3.835 -0.0982 -0.2430 -0.2050
10622SOL    HW136551   5.595  11.475   3.884 -0.6168 -0.6097  0.8839
10622SOL    HW236552   5.556  11.396   3.761  0.8891 -2.9134  1.8284
10623SOL     OW36553   9.115  10.613   3.873  0.6048  0.3797 -0.2078
10623SOL    HW136554   9.183  10.582   3.813 -0.5911 -0.3148 -1.2775
10623SOL    HW236555   9.063  10.675   3.821 -0.5530 -0.3581  0.0155
10624SOL     OW36556   3.042   1.321   9.271 -0.2152 -0.0442 -0.1666
10624SOL    HW136557   2.963   1.347   9.318  0.4296 -1.4842  1.8235
10624SOL    HW236558   3.010   1.285   9.189 -1.5874 -0.0819  0.3617
10625SOL     OW36559   2.247   5.634   8.476  0.1709 -0.1380  0.0478
10625SOL    HW136560   2.232   5.545   8.445  1.1898  0.3306 -2.0583
10625SOL    HW236561   2.212   5.690   8.407  1.8721  1.0239  0.0399
10626SOL     OW36562   3.139   5.376   7.281  0.1921 -0.0604 -0.5614
10626SOL    HW136563   3.122   5.436   7.353 -0.4593  0.0288 -0.7795
10626SOL    HW236564   3.138   5.289   7.321  0.2859  0.0151 -0.3916
10627SOL     OW36565   4.110   2.049   7.782  0.3312 -0.2271  0.1014
10627SOL    HW136566   4.054   2.072   7.708  1.3405  1.1284 -0.2836
10627SOL    HW236567   4.182   2.112   7.778 -0.3287  0.9011  3.0940
10628SOL     OW36568   5.045   1.799   2.622 -0.2138  0.0701 -0.1958
10628SOL    HW136569   5.126   1.795   2.570  0.2781  1.1253  0.4739
10628SOL    HW236570   5.040   1.712   2.662  0.9223  0.1751  0.2330
10629SOL     OW36571   8.856   2.301   7.806  0.3322 -0.3526 -0.3314
10629SOL    HW136572   8.824   2.276   7.892  2.2857  0.0111  0.5687
10629SOL    HW236573   8.921   2.235   7.784 -0.1177 -0.4180 -1.5207
10630SOL     OW36574   1.360   6.848   4.587  0.1971  0.0012 -0.4275
10630SOL    HW136575   1.439   6.808   4.550  0.0813 -1.3555  0.7269
10630SOL    HW236576   1.378   6.942   4.585  1.5079 -0.2372 -0.9073
10631SOL     OW36577  11.048  11.954   0.654  0.0172  0.2107  0.1785
10631SOL    HW136578  11.061  11.862   0.676  1.8885  0.5495  0.6859
10631SOL    HW236579  11.136  11.986   0.632 -0.3713  2.1554  1.1897
10632SOL     OW36580   7.047   1.647   4.364 -0.4588  0.0106 -0.1826
10632SOL    HW136581   7.035   1.559   4.329  0.6719 -0.6393  1.0003
10632SOL    HW236582   6.971   1.661   4.421 -2.0974  0.9176 -2.4397
10633SOL     OW36583   7.019   8.850   8.179  0.1901  0.2138 -0.2206
10633SOL    HW136584   7.055   8.937   8.195 -2.0686  1.1606  0.0233
10633SOL    HW236585   7.051   8.798   8.253  2.5802  0.4209 -0.9995
10634SOL     OW36586   0.719   3.497   7.480 -0.0400 -0.3614 -0.2512
10634SOL    HW136587   0.728   3.580   7.434  0.6674  0.9047  2.0527
10634SOL    HW236588   0.793   3.445   7.449 -0.3075 -0.0511 -1.4739
10635SOL     OW36589   8.950   6.623   1.791 -0.1215  0.4395  0.2975
10635SOL    HW136590   8.962   6.701   1.846  0.1052  0.3402  0.3903
10635SOL    HW236591   9.028   6.570   1.808 -0.8882 -0.4292  1.2429
10636SOL     OW36592   4.782   3.384   9.935  0.5802  0.1693 -0.3067
10636SOL    HW136593   4.686   3.382   9.936  0.5804 -0.9023  1.6727
10636SOL    HW236594   4.809   3.295   9.955  2.0187  0.4746 -0.7435
10637SOL     OW36595   7.015   0.327   3.737  0.4272  0.1332  0.5418
10637SOL    HW136596   6.978   0.399   3.788  1.2094  1.4900 -0.7357
10637SOL    HW236597   7.079   0.287   3.795 -0.4764  0.0187  1.4972
10638SOL     OW36598  11.154   0.707  11.719 -0.1898  0.3115  0.1653
10638SOL    HW136599  11.187   0.623  11.751  0.4840  0.6201  0.2944
10638SOL    HW236600  11.150   0.697  11.624  0.9354  0.4909  0.0835
10639SOL     OW36601   2.964   6.884   6.317  0.1669 -0.0008 -0.1194
10639SOL    HW136602   2.921   6.855   6.237 -1.3848  0.4575  0.5094
10639SOL    HW236603   2.962   6.980   6.312 -2.2678  0.1500  1.5461
10640SOL     OW36604   5.249   1.202  11.785  0.0638 -0.3064  0.0572
10640SOL    HW136605   5.244   1.163  11.873  0.5243  0.1912  0.3119
10640SOL    HW236606   5.256   1.296  11.802 -0.5235 -0.1512 -0.5340
10641SOL     OW36607   9.370   1.068   4.105 -0.2819  0.1191 -0.0211
10641SOL    HW136608   9.353   1.151   4.149 -0.4367  0.1637 -0.1658
10641SOL    HW236609   9.382   1.091   4.013  1.2983  0.1869  0.1712
10642SOL     OW36610   8.389  11.644   7.567  0.0860 -0.1135  0.3183
10642SOL    HW136611   8.403  11.733   7.536  0.8360 -0.2821  0.1427
10642SOL    HW236612   8.330  11.605   7.503 -0.4674  0.3364  0.5491
10643SOL     OW36613   3.449   6.969   8.796 -0.3924  1.1293  0.3944
10643SOL    HW136614   3.424   7.008   8.880  2.3850  1.0318  1.3601
10643SOL    HW236615   3.544   6.967   8.798 -0.2919 -2.0147 -1.3196
10644SOL     OW36616   5.323   2.528   4.698  0.3329 -0.3952  0.1076
10644SOL    HW136617   5.362   2.589   4.761  2.0325 -2.3526  1.0549
10644SOL    HW236618   5.360   2.553   4.613 -0.0243  0.6745  0.2524
10645SOL     OW36619   9.302   0.268  10.500  0.0204  0.0408 -0.1525
10645SOL    HW136620   9.312   0.191  10.556 -0.1089  1.1898  1.5150
10645SOL    HW236621   9.346   0.243  10.418  0.2077 -1.7008  0.4230
10646SOL     OW36622   3.190   3.499   2.669 -0.2863 -0.9767 -0.0926
10646SOL    HW136623   3.120   3.503   2.604 -0.2078 -1.6717 -0.2285
10646SOL    HW236624   3.264   3.461   2.621  0.8140  1.5209 -0.5038
10647SOL     OW36625   4.368   2.748   5.316 -0.2161  0.2402  0.5240
10647SOL    HW136626   4.307   2.735   5.244 -1.3252 -0.8501  1.6261
10647SOL    HW236627   4.347   2.679   5.379  1.8078  0.1434  1.1770
10648SOL     OW36628   4.958   0.615   1.072  0.1779 -0.1893  0.2990
10648SOL    HW136629   5.050   0.605   1.049 -0.2518 -1.5777 -0.9878
10648SOL    HW236630   4.954   0.591   1.165  0.7775 -2.7525 -0.2522
10649SOL     OW36631  11.753   5.946   1.481  0.2223 -0.0682 -0.3429
10649SOL    HW136632  11.775   5.853   1.491 -0.6642 -0.1806  0.7136
10649SOL    HW236633  11.695   5.948   1.405 -1.8248 -0.7799  1.1144
10650SOL     OW36634   4.108   4.389   4.097 -0.4136 -0.9809  0.1484
10650SOL    HW136635   4.150   4.304   4.108  2.5939  0.6202  2.3360
10650SOL    HW236636   4.172   4.441   4.049 -1.6553  0.4278 -0.0460
10651SOL     OW36637   4.186   2.172   5.881 -0.0615 -0.3742 -0.6313
10651SOL    HW136638   4.194   2.264   5.907  0.9556 -0.6918  0.2424
10651SOL    HW236639   4.249   2.163   5.809  0.1485 -0.4865 -0.4339
10652SOL     OW36640   5.731   4.078   0.196 -0.0195 -0.4266 -0.2957
10652SOL    HW136641   5.761   3.993   0.163  1.9693  0.3308 -0.5881
10652SOL    HW236642   5.651   4.059   0.244  0.3676 -2.4583 -0.3888
10653SOL     OW36643  11.023   0.261   9.202  0.3830  0.5680 -0.3228
10653SOL    HW136644  10.933   0.253   9.170  0.0687  2.2120  0.0529
10653SOL    HW236645  11.030   0.194   9.270 -0.1707 -0.3556 -1.1532
10654SOL     OW36646   4.510   1.566   0.985  0.3376 -0.3521 -0.7172
10654SOL    HW136647   4.442   1.633   0.996  1.0716  0.1823  0.7079
10654SOL    HW236648   4.512   1.550   0.890  0.0747  1.5724 -1.0936
10655SOL     OW36649   7.027   8.514   6.545 -0.4667  1.0202  0.1403
10655SOL    HW136650   6.989   8.599   6.565  0.1373  1.6209 -1.1328
10655SOL    HW236651   7.029   8.468   6.629 -1.9565  1.7736  0.6158
10656SOL     OW36652   0.680   0.370   1.263 -0.3281  0.6148 -0.0562
10656SOL    HW136653   0.670   0.461   1.235 -2.1447  1.7577  3.6848
10656SOL    HW236654   0.764   0.369   1.310 -0.5625  0.5330  0.3690
10657SOL     OW36655   6.652   5.053   5.156  0.5137 -0.2331  0.6750
10657SOL    HW136656   6.729   5.024   5.107  0.5263 -1.2634  1.2671
10657SOL    HW236657   6.640   4.986   5.223  0.5428  1.1769  2.1491
10658SOL     OW36658  11.315   9.509  10.425  0.0243  0.0917  0.0339
10658SOL    HW136659  11.241   9.559  10.460 -0.0756 -1.6275  2.4897
10658SOL    HW236660  11.278   9.425  10.399  1.0198 -0.6089  0.8233
10659SOL     OW36661   6.221   8.998   3.871 -0.2894  0.1297 -0.0792
10659SOL    HW136662   6.250   9.003   3.962  1.5969  0.9886 -0.6720
10659SOL    HW236663   6.161   9.072   3.861 -2.0345 -1.0810  0.9139
10660SOL     OW36664   6.093   7.733   3.446 -0.5443 -0.3737 -0.2619
10660SOL    HW136665   6.157   7.749   3.515  0.6961 -1.4538 -1.1087
10660SOL    HW236666   6.099   7.809   3.389 -0.2775 -0.3014 -0.1396
10661SOL     OW36667   6.723   4.747   7.437  0.1419  0.3190  0.4728
10661SOL    HW136668   6.679   4.681   7.491 -1.1623  0.9621  0.2307
10661SOL    HW236669   6.730   4.824   7.493  0.9485  0.2310  0.4974
10662SOL     OW36670   1.984   3.389   6.483  0.6851  0.6170  0.3153
10662SOL    HW136671   1.939   3.361   6.404  0.4655 -2.1966  1.3270
10662SOL    HW236672   1.917   3.435   6.534 -0.1996 -0.7001  0.3825
10663SOL     OW36673   3.321   7.717   0.698  0.2469 -0.4753  0.1243
10663SOL    HW136674   3.386   7.647   0.698 -1.0856 -1.7923 -0.9602
10663SOL    HW236675   3.332   7.761   0.614  0.5869  0.1611  0.4929
10664SOL     OW36676   4.348   4.126   0.959  0.0551  0.2314  0.1976
10664SOL    HW136677   4.326   4.197   0.900  1.4008  0.3800 -0.1515
10664SOL    HW236678   4.439   4.105   0.940  0.2529 -0.3312  1.5795
10665SOL     OW36679   3.403   9.114   0.754  0.0377  0.2657 -0.3602
10665SOL    HW136680   3.331   9.083   0.699  0.0472  1.2292 -0.9382
10665SOL    HW236681   3.455   9.035   0.772 -0.0737 -0.1086 -1.5743
10666SOL     OW36682   8.900   9.943  11.668  0.7654  0.3521  0.2097
10666SOL    HW136683   8.949   9.958  11.749 -0.3556  0.3402  0.9161
10666SOL    HW236684   8.810   9.929  11.697  0.5284 -0.7331 -0.9642
10667SOL     OW36685   5.290   0.420   4.762 -0.0649  0.0044  0.2252
10667SOL    HW136686   5.225   0.395   4.697 -0.1270  1.2299 -0.2175
10667SOL    HW236687   5.254   0.498   4.804  1.2307  0.9152 -0.2581
10668SOL     OW36688   2.013   8.017   2.022  0.0421 -0.0765  0.1727
10668SOL    HW136689   1.997   7.984   2.111 -0.4987  0.5930  0.3309
10668SOL    HW236690   1.931   8.060   1.997  0.1271 -0.4315 -0.7334
10669SOL     OW36691   6.075   2.351   8.509 -0.1343 -0.3920  0.4486
10669SOL    HW136692   5.983   2.335   8.531 -0.6778  1.6048 -0.1182
10669SOL    HW236693   6.081   2.328   8.416 -0.5599  1.1652  0.0054
10670SOL     OW36694   5.860   5.905   9.306  0.7923  0.5587 -0.4318
10670SOL    HW136695   5.839   5.898   9.213  1.3195 -4.0006 -0.4531
10670SOL    HW236696   5.950   5.872   9.313  0.1713 -0.9654  1.7796
10671SOL     OW36697   9.150   5.680   4.689 -0.2051  0.1544  0.1618
10671SOL    HW136698   9.147   5.774   4.702  0.2857  0.3444 -0.9740
10671SOL    HW236699   9.235   5.654   4.724 -1.0413 -0.1582  2.0708
10672SOL     OW36700   7.442   6.653   1.241  0.1832  0.1947 -0.2951
10672SOL    HW136701   7.348   6.649   1.223  0.0740  0.6061  0.1781
10672SOL    HW236702   7.470   6.736   1.203  0.2648  0.2980 -0.0091
10673SOL     OW36703   9.306   7.480   7.549 -0.1717 -0.0065 -0.1157
10673SOL    HW136704   9.337   7.570   7.551 -1.0520  0.3101 -0.2601
10673SOL    HW236705   9.375   7.431   7.503  0.4780  0.5174  0.2934
10674SOL     OW36706   6.140   8.161   7.057  0.4559 -0.3391 -0.1228
10674SOL    HW136707   6.222   8.207   7.074 -0.2972  1.2631 -0.5975
10674SOL    HW236708   6.076   8.231   7.041 -0.7340 -1.5594 -0.9625
10675SOL     OW36709   1.056   7.213   8.239 -0.1241 -0.3131  0.4475
10675SOL    HW136710   1.122   7.282   8.237  0.0964 -0.5055 -2.3477
10675SOL    HW236711   1.103   7.134   8.265  0.7615 -0.3910 -1.2698
10676SOL     OW36712   4.607   0.478   8.568 -0.1840  0.0433 -0.4816
10676SOL    HW136713   4.588   0.555   8.621  0.2068 -1.3482  1.8017
10676SOL    HW236714   4.701   0.481   8.552  0.5984 -1.8294  2.9387
10677SOL     OW36715   7.217  10.834   0.165 -0.6360  0.0456  0.1343
10677SOL    HW136716   7.291  10.896   0.165  0.6538 -1.4109  1.0608
10677SOL    HW236717   7.248  10.760   0.113 -0.9030 -1.1631  1.6260
10678SOL     OW36718   1.231   1.599   2.217  0.0672 -0.5154  0.2601
10678SOL    HW136719   1.231   1.684   2.260 -1.1382  0.4205 -1.4755
10678SOL    HW236720   1.308   1.600   2.160 -0.2170 -0.3767 -0.1262
10679SOL     OW36721   8.714   0.960   2.798 -0.5187  0.2281  0.1604
10679SOL    HW136722   8.650   0.932   2.732 -0.4705  1.8749 -0.6299
10679SOL    HW236723   8.788   0.900   2.786 -1.6040 -1.2471  0.6076
10680SOL     OW36724   0.286   1.478   4.469  0.6655  0.1771 -0.0357
10680SOL    HW136725   0.271   1.478   4.563 -0.0543 -0.4814 -0.1489
10680SOL    HW236726   0.379   1.457   4.460  0.7176  0.1563  0.5157
10681SOL     OW36727   2.670   8.614   7.608 -0.6749 -0.3708  0.6192
10681SOL    HW136728   2.685   8.708   7.597 -0.7548 -0.3903  0.3524
10681SOL    HW236729   2.758   8.575   7.607 -0.7055 -0.4231 -0.3870
10682SOL     OW36730   0.650   6.804  10.050 -0.0351  0.3974 -0.3174
10682SOL    HW136731   0.664   6.873  10.115 -2.1675  2.2389 -1.6360
10682SOL    HW236732   0.733   6.798  10.003  1.5680 -0.9894  2.4219
10683SOL     OW36733   3.130   7.669   0.975 -0.1263  0.3718 -0.0700
10683SOL    HW136734   3.181   7.624   0.909  3.8760  2.4045  1.2742
10683SOL    HW236735   3.043   7.679   0.937  1.1052 -1.2075 -3.6543
10684SOL     OW36736  11.423   6.575   5.513  0.0698 -0.3306  0.2532
10684SOL    HW136737  11.502   6.543   5.468 -1.1207 -0.5394 -1.8210
10684SOL    HW236738  11.431   6.670   5.510  0.7946 -0.3549  1.1161
10685SOL     OW36739   4.122   9.075   1.511 -0.5625  0.4782 -0.1589
10685SOL    HW136740   4.213   9.056   1.535 -0.1536  0.0124 -1.9003
10685SOL    HW236741   4.125   9.085   1.416 -2.7463 -2.1095 -0.6104
10686SOL     OW36742   3.030   7.830   5.257 -0.4978  0.1405 -0.1826
10686SOL    HW136743   2.957   7.773   5.234 -0.0780 -1.1978  1.5555
10686SOL    HW236744   3.091   7.823   5.184 -0.4714 -1.6637 -0.0182
10687SOL     OW36745   5.944   7.786  10.264 -0.4239 -0.3856  0.0824
10687SOL    HW136746   5.993   7.838  10.329 -0.8552  0.0250  0.0899
10687SOL    HW236747   5.889   7.728  10.317  0.0495 -0.8467  0.0745
10688SOL     OW36748   0.939   7.534   4.918 -0.0649 -0.3261  0.0115
10688SOL    HW136749   0.943   7.502   4.828  0.6009 -2.4980  0.7565
10688SOL    HW236750   0.888   7.469   4.965  0.8188 -0.0018  1.4978
10689SOL     OW36751  11.725   5.209   5.952 -0.7396 -0.3522 -0.2303
10689SOL    HW136752  11.790   5.147   5.985 -1.2472 -1.3715 -1.0920
10689SOL    HW236753  11.773   5.265   5.892 -0.4325 -0.3913 -0.0241
10690SOL     OW36754   8.418   0.662   7.979 -0.4219  0.3083 -0.3133
10690SOL    HW136755   8.504   0.685   8.013 -0.4749  0.3019 -0.1722
10690SOL    HW236756   8.401   0.575   8.016 -0.4299  0.2521 -0.4499
10691SOL     OW36757   7.290  10.259   9.346 -1.2837  0.3555 -0.6539
10691SOL    HW136758   7.308  10.193   9.279 -2.1529  0.3687 -0.9207
10691SOL    HW236759   7.195  10.260   9.353 -1.2608  1.2706 -0.3400
10692SOL     OW36760   2.854   7.730   1.923 -0.0681 -0.3020  0.4396
10692SOL    HW136761   2.943   7.757   1.947  0.2996 -1.0707 -0.0351
10692SOL    HW236762   2.829   7.667   1.991 -0.3803  0.1490  0.7499
10693SOL     OW36763   5.472   9.656   3.494 -0.1986 -0.2102  0.1231
10693SOL    HW136764   5.506   9.710   3.423 -1.2049 -1.9041 -1.7316
10693SOL    HW236765   5.414   9.715   3.542 -0.3873  0.6801 -1.1430
10694SOL     OW36766   3.182   8.411   2.940  0.1561 -0.5517 -0.0949
10694SOL    HW136767   3.159   8.367   3.022  0.4312 -0.9040 -0.2041
10694SOL    HW236768   3.276   8.424   2.946  0.3027 -1.2938 -0.6948
10695SOL     OW36769   4.437   6.988   9.588  0.3738 -0.7132 -0.0094
10695SOL    HW136770   4.351   7.030   9.578 -0.4114 -2.4009 -0.8100
10695SOL    HW236771   4.421   6.915   9.648  1.7676  0.2311  1.5958
10696SOL     OW36772   2.036  10.573   0.350  0.2231 -0.4307 -0.3072
10696SOL    HW136773   2.003  10.602   0.265 -1.4959 -1.8103 -0.1750
10696SOL    HW236774   2.121  10.616   0.359  0.0537  0.4344 -2.3248
10697SOL     OW36775   3.875   9.011   6.654 -0.2145 -0.2185  0.1177
10697SOL    HW136776   3.941   9.049   6.597 -0.2119 -1.2078 -0.5794
10697SOL    HW236777   3.814   9.082   6.673  0.7379  0.5612  0.3195
10698SOL     OW36778   9.332   2.563   1.712  0.5670  0.5268  0.2248
10698SOL    HW136779   9.364   2.642   1.669 -0.8924 -0.2422 -2.5715
10698SOL    HW236780   9.248   2.545   1.669  0.7775 -2.4664  0.8385
10699SOL     OW36781   1.953   2.075  10.512  0.3123  0.2961  0.0402
10699SOL    HW136782   1.901   2.143  10.557  1.7907  1.2175  0.4173
10699SOL    HW236783   1.911   2.066  10.427  0.0431  1.6450  0.0043
10700SOL     OW36784  11.189   9.147   1.443  0.4597 -0.1678 -0.0268
10700SOL    HW136785  11.135   9.077   1.480  0.8999 -0.4973 -0.0055
10700SOL    HW236786  11.233   9.107   1.369  0.5178  0.1595 -0.1691
10701SOL     OW36787   5.320   2.552   6.969 -0.2753  0.5803  0.1778
10701SOL    HW136788   5.369   2.574   6.889 -1.0030 -2.4112 -1.2429
10701SOL    HW236789   5.228   2.566   6.946 -0.5600 -1.2257  0.1039
10702SOL     OW36790   5.308   8.934   4.256 -0.7228 -0.1959 -0.0977
10702SOL    HW136791   5.385   8.968   4.211  0.4538  0.5004  2.3098
10702SOL    HW236792   5.262   9.012   4.287 -1.6175 -0.6612 -0.2217
10703SOL     OW36793  11.754   9.087   2.032  0.0274 -0.1714  0.0340
10703SOL    HW136794  11.707   9.083   1.948  1.6952  0.4780 -0.9744
10703SOL    HW236795  11.834   9.038   2.017  0.7303  0.6450  0.9906
10704SOL     OW36796   8.849   3.494   1.714  0.1860  0.1188  0.2393
10704SOL    HW136797   8.811   3.546   1.785 -0.6541  0.3658 -0.3830
10704SOL    HW236798   8.905   3.555   1.666  2.5972 -0.5520  1.9723
10705SOL     OW36799  10.420   1.158   8.937  0.0627 -0.1243  0.8178
10705SOL    HW136800  10.394   1.150   8.845  0.0894  0.4167  0.7573
10705SOL    HW236801  10.452   1.071   8.961 -0.5246 -0.4337  0.5009
10706SOL     OW36802   4.962  11.817  10.839 -0.1319 -0.2112  0.0884
10706SOL    HW136803   4.950  11.886  10.905  0.7778  0.0018  0.0510
10706SOL    HW236804   4.945  11.735  10.886  0.9096 -0.0891  0.7150
10707SOL     OW36805  10.795  12.001   5.885  0.0922 -0.0294  0.4620
10707SOL    HW136806  10.802  11.930   5.949  2.7851  0.5139  0.8942
10707SOL    HW236807  10.861  11.980   5.819 -1.8931 -0.0108 -1.6318
10708SOL     OW36808   2.868   2.193   5.275 -0.6853  0.2794  0.4335
10708SOL    HW136809   2.867   2.177   5.180 -2.2696 -0.6752  0.5782
10708SOL    HW236810   2.880   2.107   5.313 -0.6756  0.5824  1.1188
10709SOL     OW36811   8.879   1.876  10.248 -0.6838  0.0633  0.5304
10709SOL    HW136812   8.810   1.939  10.269 -0.8873  0.1130 -0.2470
10709SOL    HW236813   8.896   1.831  10.331 -0.9123  0.7662  0.9711
10710SOL     OW36814   5.950   4.458   1.847 -0.0830 -0.2670  0.5357
10710SOL    HW136815   5.958   4.553   1.847  1.1004 -0.3513  0.4227
10710SOL    HW236816   5.993   4.430   1.928 -0.5974 -0.7038  0.6692
10711SOL     OW36817   4.921   0.277   3.128 -0.3274 -0.1442 -0.6943
10711SOL    HW136818   4.896   0.258   3.038  0.1933  1.1247 -1.1233
10711SOL    HW236819   5.012   0.307   3.122  0.1772 -1.3544  0.4216
10712SOL     OW36820   5.233   3.215   3.942  0.0233  0.8916  0.0398
10712SOL    HW136821   5.291   3.291   3.947 -1.6266  2.1554  0.8307
10712SOL    HW236822   5.175   3.224   4.017 -4.5079  2.5694 -3.1909
10713SOL     OW36823   7.123   2.662   1.599  0.0323 -0.3882 -0.0179
10713SOL    HW136824   7.209   2.620   1.602  0.3571  0.1473 -1.2530
10713SOL    HW236825   7.135   2.745   1.645  0.3009 -0.1281 -0.5439
10714SOL     OW36826   0.219   5.850   2.186 -0.0093  0.4155 -0.4081
10714SOL    HW136827   0.246   5.802   2.108 -1.0043 -0.2538 -0.3536
10714SOL    HW236828   0.261   5.804   2.259 -2.2561 -1.4662 -0.1899
10715SOL     OW36829   4.416   6.300   7.141 -0.2137 -0.2063 -0.2367
10715SOL    HW136830   4.506   6.275   7.124 -0.8440 -0.9209 -3.2412
10715SOL    HW236831   4.386   6.240   7.209  0.9447 -1.5559 -0.8561
10716SOL     OW36832   7.713   8.983   8.178 -0.1325  0.1066  0.1161
10716SOL    HW136833   7.794   8.933   8.179  0.4022  0.9270 -0.7260
10716SOL    HW236834   7.654   8.934   8.235  0.7492 -0.8332  0.2488
10717SOL     OW36835   9.552   5.193   2.379 -0.6758  0.5506  0.6136
10717SOL    HW136836   9.605   5.231   2.449 -0.8026  1.0138  0.4582
10717SOL    HW236837   9.520   5.268   2.329  1.2778  0.1665 -1.3397
10718SOL     OW36838   6.747   5.212   5.952  0.0961 -0.1541 -0.1133
10718SOL    HW136839   6.790   5.173   5.876  0.1758  1.3668 -0.8783
10718SOL    HW236840   6.785   5.164   6.027  0.8127 -0.9439 -0.9462
10719SOL     OW36841   2.301  11.930   7.959  0.0414 -0.3386 -0.1195
10719SOL    HW136842   2.396  11.923   7.952  0.1453 -4.2686  1.9742
10719SOL    HW236843   2.269  11.920   7.869  1.6012 -0.3286 -0.6917
10720SOL     OW36844   6.294   6.449   1.340 -0.3540 -0.1172  0.3580
10720SOL    HW136845   6.279   6.374   1.283 -0.5414  0.5296 -0.4645
10720SOL    HW236846   6.386   6.443   1.364 -0.1074 -0.0431 -0.5415
10721SOL     OW36847   8.111  10.629   9.367 -0.2099 -0.1990 -0.3216
10721SOL    HW136848   8.095  10.676   9.449 -2.8094 -1.1146 -0.2165
10721SOL    HW236849   8.039  10.656   9.310 -2.7976 -4.8687  0.2049
10722SOL     OW36850  11.468   0.953   7.878 -0.1026 -0.3279  0.1107
10722SOL    HW136851  11.481   0.923   7.788  0.4548  0.0970  0.0389
10722SOL    HW236852  11.373   0.956   7.890 -0.1707 -1.5210 -0.0677
10723SOL     OW36853  10.007   8.198   0.047  0.1432 -0.2767 -0.1019
10723SOL    HW136854  10.018   8.269   0.109  1.2121 -1.2577  0.8780
10723SOL    HW236855  10.055   8.124   0.085  0.4366 -1.0552 -1.8558
10724SOL     OW36856   2.280   9.201   8.455 -0.7622  0.4878 -0.5295
10724SOL    HW136857   2.296   9.200   8.361  1.8506  0.0939 -0.1404
10724SOL    HW236858   2.218   9.129   8.468 -1.7940  1.0558 -2.0057
10725SOL     OW36859   0.497   7.556   0.958  0.2033 -0.3764 -0.5207
10725SOL    HW136860   0.433   7.487   0.974  0.7553 -0.8546 -0.3293
10725SOL    HW236861   0.561   7.545   1.029  0.6423 -0.0832 -0.8695
10726SOL     OW36862  11.510  11.609   4.107  0.1033  0.3376 -0.4902
10726SOL    HW136863  11.566  11.686   4.097  0.4035  0.2125  0.1707
10726SOL    HW236864  11.509  11.592   4.201 -0.9161  0.2374 -0.5073
10727SOL     OW36865   2.456   3.170  10.922 -0.0570  0.0123 -0.6976
10727SOL    HW136866   2.436   3.264  10.920  1.6901  0.4165 -1.5785
10727SOL    HW236867   2.508   3.156  10.843 -0.4892 -1.7707 -0.6973
10728SOL     OW36868   2.974   0.535   2.786  0.0472 -0.2709  0.0496
10728SOL    HW136869   2.906   0.468   2.794 -0.3783  0.3377  3.8283
10728SOL    HW236870   2.947   0.588   2.711 -2.3100 -1.4661 -0.0586
10729SOL     OW36871   9.266   5.366   0.661 -0.6988 -0.6811 -0.4223
10729SOL    HW136872   9.249   5.282   0.704  0.8156 -2.7803 -3.5085
10729SOL    HW236873   9.192   5.379   0.602 -1.4015  0.7234  0.7140
10730SOL     OW36874   7.424  11.027   0.238  0.2790 -0.1731 -1.3270
10730SOL    HW136875   7.480  10.991   0.307 -0.2010 -1.6804 -1.6868
10730SOL    HW236876   7.435  11.122   0.246  1.8246 -0.3767 -0.5150
10731SOL     OW36877   2.968   9.036   2.324 -0.2383 -0.0518 -0.0186
10731SOL    HW136878   2.893   8.987   2.356  0.0404  0.0135  0.7641
10731SOL    HW236879   2.936   9.080   2.245 -0.7288 -0.8064 -0.2505
10732SOL     OW36880   7.441   7.744   5.112  0.0325 -0.4222  0.4608
10732SOL    HW136881   7.500   7.813   5.144  1.1389 -0.7127 -0.8457
10732SOL    HW236882   7.496   7.690   5.056 -1.0452 -1.8580  0.7346
10733SOL     OW36883   0.884   0.457   0.923 -0.0466  0.2465  0.4997
10733SOL    HW136884   0.866   0.465   0.829  1.1622  0.8574  0.3033
10733SOL    HW236885   0.828   0.384   0.951  0.7041 -0.9804 -0.9984
10734SOL     OW36886   6.823   4.127   4.260 -0.1086  0.8548  0.0403
10734SOL    HW136887   6.900   4.163   4.216 -0.0920  4.9612  2.8612
10734SOL    HW236888   6.859   4.080   4.336 -0.3175  0.3249 -0.1886
10735SOL     OW36889   0.586   7.281   9.644 -0.2767  0.0529  0.8751
10735SOL    HW136890   0.492   7.269   9.634  0.0931 -2.1379 -0.7407
10735SOL    HW236891   0.622   7.262   9.558  1.6363  1.3373  1.3353
10736SOL     OW36892   1.542   5.782   0.654  0.6251  0.3267  0.1596
10736SOL    HW136893   1.506   5.860   0.612  2.6988  0.9291 -0.5988
10736SOL    HW236894   1.635   5.784   0.633  0.9290 -1.7642  1.0839
10737SOL     OW36895   3.739   2.245  10.076  0.0570  0.2121 -0.1948
10737SOL    HW136896   3.767   2.331  10.110  2.1849 -1.4531  2.7007
10737SOL    HW236897   3.665   2.220  10.131 -2.1377  1.0339 -2.5521
10738SOL     OW36898   7.501   3.590   9.803  0.2885  0.1235  0.4324
10738SOL    HW136899   7.537   3.672   9.836  0.4050 -0.3069  1.4094
10738SOL    HW236900   7.479   3.609   9.712 -0.4422  1.4823  0.8585
10739SOL     OW36901  11.956   6.924   3.492 -0.2137 -0.1411 -0.1188
10739SOL    HW136902  11.932   6.893   3.405 -1.3732  1.7061 -0.5221
10739SOL    HW236903  12.049   6.946   3.485  0.2151 -1.9141 -0.2640
10740SOL     OW36904   1.275  11.491   7.024 -0.1659 -1.1235  0.2137
10740SOL    HW136905   1.277  11.400   7.053  0.3777 -0.6719  1.6312
10740SOL    HW236906   1.343  11.496   6.957  0.2995 -1.5878  0.6452
10741SOL     OW36907   0.008   3.366   4.775 -0.0114 -0.2972  0.0443
10741SOL    HW136908   0.078   3.320   4.821 -0.2332 -0.4777  0.2050
10741SOL    HW236909  -0.054   3.390   4.844  1.0617  2.0427  0.2819
10742SOL     OW36910   9.721   8.614   0.339  0.3637  0.0522  0.2960
10742SOL    HW136911   9.799   8.665   0.320  0.3622 -0.2522 -0.5583
10742SOL    HW236912   9.650   8.679   0.342  0.4067  0.1341 -0.4846
10743SOL     OW36913   5.517   1.609  11.301  0.6014 -0.5567  0.1963
10743SOL    HW136914   5.564   1.665  11.239 -0.8111  1.8134  1.1317
10743SOL    HW236915   5.583   1.585  11.367  0.9187  1.3309  0.6091
10744SOL     OW36916   6.863   2.994   4.843 -0.1116 -0.2322 -0.1036
10744SOL    HW136917   6.907   2.970   4.925  1.1739 -0.3512 -0.7973
10744SOL    HW236918   6.876   3.089   4.836  0.8051 -0.3909 -0.7250
10745SOL     OW36919   9.034   0.695   4.377  0.4431  0.5258 -0.0392
10745SOL    HW136920   8.946   0.700   4.340  0.9377 -0.8869 -1.5113
10745SOL    HW236921   9.078   0.627   4.327  1.4052 -1.0572  2.7067
10746SOL     OW36922   6.636   9.361   3.868 -0.3738 -0.1849  0.0755
10746SOL    HW136923   6.678   9.439   3.904  0.5757 -0.2375 -0.8740
10746SOL    HW236924   6.696   9.330   3.801 -2.4393  0.4307 -2.2092
10747SOL     OW36925   0.862  11.768   1.986 -0.7072  0.5733  0.3887
10747SOL    HW136926   0.844  11.682   2.022  0.1356 -0.1738 -0.9094
10747SOL    HW236927   0.929  11.805   2.044 -0.1131 -0.1887  0.1994
10748SOL     OW36928   7.153   7.552   2.300 -0.3525 -0.6571  0.3846
10748SOL    HW136929   7.148   7.457   2.290  2.3186 -1.1044  2.0843
10748SOL    HW236930   7.192   7.564   2.387  2.3602  1.8350 -0.9845
10749SOL     OW36931   5.637  11.130   6.617 -0.4096  0.0739 -0.3866
10749SOL    HW136932   5.729  11.157   6.614 -0.9137  2.3547  1.7203
10749SOL    HW236933   5.630  11.073   6.693 -0.6591 -0.5331 -0.8539
10750SOL     OW36934   2.157  10.190  10.807  0.0052 -0.3574 -0.3097
10750SOL    HW136935   2.203  10.238  10.876  0.8804 -0.1731 -1.0050
10750SOL    HW236936   2.193  10.101  10.810  1.0927  0.0114 -1.4272
10751SOL     OW36937   6.896   9.501   4.392 -0.5293 -0.3448  0.4506
10751SOL    HW136938   6.817   9.478   4.344 -2.4675  0.9564  2.7645
10751SOL    HW236939   6.895   9.597   4.395 -0.9904 -0.3241  3.6064
10752SOL     OW36940   7.033   3.412   6.383  0.2762  0.0297  0.5357
10752SOL    HW136941   7.103   3.474   6.363 -1.5120  1.3870 -2.2150
10752SOL    HW236942   6.954   3.466   6.389 -0.9100 -1.6831  1.1816
10753SOL     OW36943   4.335   4.033   8.029  0.0314 -0.4980  0.7872
10753SOL    HW136944   4.381   3.962   8.073 -0.0032 -0.7296  0.4515
10753SOL    HW236945   4.295   4.084   8.099  2.5052  0.9356  1.2978
10754SOL     OW36946   2.111   9.685   0.208  0.6240 -0.2754  0.2160
10754SOL    HW136947   2.175   9.682   0.137 -0.1936 -1.8518 -0.5226
10754SOL    HW236948   2.100   9.593   0.233  0.4463  0.2057  1.9945
10755SOL     OW36949   5.283   1.694   3.469  0.1746  0.2751  0.4300
10755SOL    HW136950   5.204   1.735   3.434 -0.7334 -2.7955 -1.6089
10755SOL    HW236951   5.355   1.733   3.419 -0.4285  0.7321 -0.0953
10756SOL     OW36952   6.673  10.940   7.655  0.0865  0.5085  0.2088
10756SOL    HW136953   6.740  10.926   7.723  0.7252  0.5748 -0.3989
10756SOL    HW236954   6.630  10.855   7.646  0.2036  0.4179  0.4799
10757SOL     OW36955   2.033   7.899  10.048  0.1854 -0.5375 -0.2936
10757SOL    HW136956   2.114   7.942  10.020  0.9525 -1.7559 -0.0144
10757SOL    HW236957   2.062   7.827  10.104 -1.1479 -0.4164  0.5915
10758SOL     OW36958   9.603   7.016   5.316 -0.1546  0.1584  0.1964
10758SOL    HW136959   9.535   7.070   5.276 -3.1418 -1.6984  2.3951
10758SOL    HW236960   9.632   7.067   5.392  1.1268  1.0058 -0.8101
10759SOL     OW36961   3.814   0.134  11.528 -0.1271 -0.2583  0.4407
10759SOL    HW136962   3.797   0.111  11.620 -1.2395  2.5190  1.0441
10759SOL    HW236963   3.887   0.196  11.533 -0.5236  0.3061 -0.4881
10760SOL     OW36964   5.417   5.220   2.774 -0.1516  0.4014 -0.2419
10760SOL    HW136965   5.419   5.216   2.870  1.0124  0.6629 -0.2393
10760SOL    HW236966   5.332   5.183   2.751  0.5688 -2.1317  0.7938
10761SOL     OW36967   7.793  11.277   0.733 -0.0226  0.2764  0.3604
10761SOL    HW136968   7.699  11.290   0.747  0.3038  2.4175  0.9235
10761SOL    HW236969   7.805  11.287   0.639 -0.2807  0.7092  0.3688
10762SOL     OW36970  10.740   3.522   8.054  0.0427 -0.0835  0.2427
10762SOL    HW136971  10.674   3.481   7.998 -1.0641  0.5627  1.0227
10762SOL    HW236972  10.775   3.594   8.001 -0.3890  0.0079  0.0760
10763SOL     OW36973   8.420   2.247   4.341 -0.1217 -0.0550 -0.2560
10763SOL    HW136974   8.445   2.245   4.434  1.2968 -2.7693 -0.5894
10763SOL    HW236975   8.503   2.237   4.294 -0.8759  0.7565 -1.8358
10764SOL     OW36976  11.665   4.890   9.796  0.3529  0.2221  0.1165
10764SOL    HW136977  11.583   4.846   9.772 -1.3858  3.0258  0.4168
10764SOL    HW236978  11.700   4.922   9.713  0.9615 -0.6486  0.0307
10765SOL     OW36979   3.614   0.870   5.174  0.7033 -0.3651  0.6555
10765SOL    HW136980   3.634   0.900   5.085 -0.8560 -0.4997  0.2143
10765SOL    HW236981   3.623   0.775   5.169 -3.7769 -0.9719 -0.7712
10766SOL     OW36982   9.801   9.044   8.341  0.2855 -0.3186  0.5653
10766SOL    HW136983   9.736   9.113   8.338  0.8046  0.1651  0.0564
10766SOL    HW236984   9.774   8.988   8.413  0.4213  0.9891  1.6756
10767SOL     OW36985   5.431   0.136   8.644 -0.1429 -0.2760  0.0890
10767SOL    HW136986   5.361   0.189   8.605  0.6966 -0.0009 -1.1413
10767SOL    HW236987   5.439   0.061   8.585 -0.2074 -0.9210  0.8977
10768SOL     OW36988   5.689   1.976   7.254 -0.0211 -0.6739  0.2066
10768SOL    HW136989   5.761   1.916   7.272 -0.1925 -0.7880  0.5197
10768SOL    HW236990   5.703   2.049   7.314  1.1660  0.4428 -1.3525
10769SOL     OW36991   0.921  11.307   5.509 -0.0724 -0.3346  0.1528
10769SOL    HW136992   0.876  11.331   5.590 -0.8480  0.3174 -0.4627
10769SOL    HW236993   0.914  11.212   5.505 -0.1283 -0.3607  0.7928
10770SOL     OW36994   5.898   6.126  10.377  0.1384 -0.3024 -0.0147
10770SOL    HW136995   5.942   6.096  10.297 -0.2320 -1.0284  0.0507
10770SOL    HW236996   5.915   6.220  10.380  0.0153 -0.2423 -1.0344
10771SOL     OW36997  11.581  10.678   9.795  0.2332 -0.1375 -0.4335
10771SOL    HW136998  11.501  10.628   9.812 -0.5448  1.3670  0.5319
10771SOL    HW236999  11.648  10.637   9.850 -0.4491 -0.0130  0.5166
10772SOL     OW37000   3.769   2.195   1.771 -0.2545 -0.4789 -0.4428
10772SOL    HW137001   3.750   2.130   1.840 -1.2001 -0.1026 -0.3341
10772SOL    HW237002   3.781   2.277   1.818  0.5774 -0.4906 -0.6146
10773SOL     OW37003   6.857   6.295   9.254  0.2063  0.6767 -0.6671
10773SOL    HW137004   6.870   6.314   9.161  0.2959 -1.2847 -1.1036
10773SOL    HW237005   6.909   6.361   9.300 -0.9591  2.5820 -1.9286
10774SOL     OW37006   8.023   6.726   2.550  0.2420  0.0333 -0.3596
10774SOL    HW137007   8.074   6.645   2.559  0.5603  0.3635  1.2115
10774SOL    HW237008   7.968   6.728   2.628 -0.4923  0.8388 -0.8851
10775SOL     OW37009   0.823   9.166   6.945 -0.4085 -0.6401 -0.3616
10775SOL    HW137010   0.898   9.126   6.989 -0.3405  0.2106  0.3199
10775SOL    HW237011   0.766   9.194   7.016 -0.9666 -0.5138 -0.8554
10776SOL     OW37012   0.915   6.219   2.019 -0.1889 -0.2249  0.1041
10776SOL    HW137013   0.825   6.249   2.029 -0.0777 -0.0732  0.6871
10776SOL    HW237014   0.907   6.127   1.993 -0.5148  0.0030 -0.6567
10777SOL     OW37015   3.704   7.457   2.017  0.4034 -0.4113 -0.4033
10777SOL    HW137016   3.660   7.394   1.960  0.8404  0.1738 -1.4258
10777SOL    HW237017   3.787   7.475   1.972  1.3054 -0.8322  1.0389
10778SOL     OW37018   8.177   2.557   0.133 -0.0439 -0.4603 -0.2949
10778SOL    HW137019   8.254   2.611   0.114 -0.5846  0.0262 -1.1913
10778SOL    HW237020   8.209   2.490   0.193  0.6352  0.8798  0.8891
10779SOL     OW37021   9.012   8.206   8.895 -0.2268 -0.0036 -0.1969
10779SOL    HW137022   8.945   8.143   8.867  0.3108 -0.4990 -0.3820
10779SOL    HW237023   8.962   8.284   8.919 -0.8742 -0.3625 -0.3391
10780SOL     OW37024   4.135   0.830   9.041  0.4691 -0.8198 -0.1997
10780SOL    HW137025   4.074   0.759   9.023 -0.1030 -1.0199  2.2424
10780SOL    HW237026   4.218   0.800   9.006 -0.4784 -1.1585 -2.2923
10781SOL     OW37027   1.783   9.628   2.752  0.3826 -0.1641  0.7218
10781SOL    HW137028   1.753   9.706   2.705  0.1805 -1.0980 -0.7509
10781SOL    HW237029   1.877   9.641   2.761  0.8125 -0.8711 -1.8497
10782SOL     OW37030   8.655   3.389   9.852  0.4011 -0.2887  0.0692
10782SOL    HW137031   8.577   3.343   9.822 -1.2714  1.0790  2.0785
10782SOL    HW237032   8.658   3.375   9.946  3.1125 -0.9918 -0.0293
10783SOL     OW37033   0.257   6.503  11.985  0.0193 -0.7641  0.5138
10783SOL    HW137034   0.248   6.565  11.912 -0.8498 -0.8812  0.5089
10783SOL    HW237035   0.276   6.419  11.943  0.3436 -0.6717  0.4715
10784SOL     OW37036   4.251   7.061  11.548 -0.0017  0.0673  0.4086
10784SOL    HW137037   4.236   7.010  11.628 -1.0382  0.0044  0.1953
10784SOL    HW237038   4.345   7.057  11.533  0.0127 -1.2145  0.7742
10785SOL     OW37039   0.516  10.816   0.408 -0.0283  0.0554  0.4666
10785SOL    HW137040   0.511  10.747   0.342 -2.3403  0.5868  0.0136
10785SOL    HW237041   0.509  10.770   0.492  1.4227 -0.4890  0.3149
10786SOL     OW37042   4.140   0.519   8.456 -0.1673 -0.5226 -0.0987
10786SOL    HW137043   4.170   0.584   8.393  2.0096 -1.8550 -0.5559
10786SOL    HW237044   4.123   0.568   8.536 -0.5994  0.8617 -1.0168
10787SOL     OW37045   2.757   9.904   1.915  0.2334 -0.0795 -0.5684
10787SOL    HW137046   2.809   9.953   1.978  0.8507 -1.0764 -0.2844
10787SOL    HW237047   2.679   9.876   1.963  0.7950 -1.0019 -0.1841
10788SOL     OW37048   3.647  11.375   3.109 -0.0659 -0.1493 -0.0131
10788SOL    HW137049   3.564  11.337   3.138 -0.4372 -0.7333 -1.7609
10788SOL    HW237050   3.631  11.470   3.110 -1.3046 -0.2962 -1.7906
10789SOL     OW37051   9.424   9.181   3.609  0.0763 -0.1344  0.0539
10789SOL    HW137052   9.439   9.275   3.617 -0.1365 -0.0771 -0.1986
10789SOL    HW237053   9.512   9.143   3.605  0.3992  0.5024 -5.1493
10790SOL     OW37054   7.842   3.807   7.873 -0.2186  0.6980  0.5244
10790SOL    HW137055   7.751   3.837   7.863  0.3822  2.6620  0.4814
10790SOL    HW237056   7.893   3.865   7.816  1.3180  1.1365  2.2494
10791SOL     OW37057   4.225  10.443   7.394  0.1686 -0.3496  0.0530
10791SOL    HW137058   4.259  10.448   7.483 -1.3467 -0.7198  0.6696
10791SOL    HW237059   4.171  10.365   7.393 -0.8407  0.3336 -0.8265
10792SOL     OW37060   0.033  10.318   1.191 -0.2374  0.5004 -0.2187
10792SOL    HW137061   0.021  10.298   1.284  0.3356  2.4662  0.3253
10792SOL    HW237062   0.074  10.405   1.190 -0.6012  0.6998 -2.3235
10793SOL     OW37063   6.409   8.125   7.209  0.4191  0.3129 -0.2800
10793SOL    HW137064   6.400   8.030   7.219 -0.3990  0.5592  1.7620
10793SOL    HW237065   6.480   8.149   7.268  1.3971  0.8624 -1.6369
10794SOL     OW37066   0.646   3.561   8.394  0.1697 -0.1018  0.0783
10794SOL    HW137067   0.709   3.600   8.333 -1.1708 -0.2106 -1.4246
10794SOL    HW237068   0.635   3.471   8.362 -1.0851  0.0556  0.0474
10795SOL     OW37069   8.072   2.111   8.587 -0.5758 -0.4419  0.3965
10795SOL    HW137070   8.143   2.101   8.523 -2.7345 -0.5965 -2.1627
10795SOL    HW237071   8.004   2.050   8.557 -2.4400  0.8596  1.7628
10796SOL     OW37072   1.252   3.100   4.979 -0.2421  0.0144 -0.1411
10796SOL    HW137073   1.202   3.026   4.946  1.3774 -0.0528 -2.7705
10796SOL    HW237074   1.210   3.177   4.940 -0.9433  0.3801  1.2723
10797SOL     OW37075   3.102   9.760   6.100  0.0279 -0.5340 -0.5688
10797SOL    HW137076   3.055   9.728   6.177  1.8540 -1.2411  0.2974
10797SOL    HW237077   3.089   9.692   6.034 -0.4049 -0.5816 -0.4347
10798SOL     OW37078   8.299  11.335  10.712  0.2264 -0.0338 -0.4853
10798SOL    HW137079   8.368  11.353  10.776  1.1868 -1.8930 -0.9477
10798SOL    HW237080   8.341  11.348  10.627 -0.4200  0.2261 -0.7715
10799SOL     OW37081   1.322   7.859   0.428 -0.1538  0.4301 -0.0176
10799SOL    HW137082   1.332   7.764   0.425 -2.0517  0.1202  1.7087
10799SOL    HW237083   1.405   7.890   0.465 -0.2660 -0.7811  1.3611
10800SOL     OW37084   4.620  10.148   1.448  0.3599 -0.1730  0.5047
10800SOL    HW137085   4.659  10.069   1.485 -1.5105 -1.2919  0.2601
10800SOL    HW237086   4.539  10.160   1.498 -0.7218 -0.0027 -1.1762
10801SOL     OW37087  11.511   0.246   1.372 -0.0460  0.0563 -0.0589
10801SOL    HW137088  11.582   0.217   1.429  0.6152  1.8743  0.1142
10801SOL    HW237089  11.438   0.187   1.392  0.6276 -0.2555  1.6036
10802SOL     OW37090   7.531   3.279   7.293 -0.0728  0.1835 -0.1013
10802SOL    HW137091   7.550   3.189   7.267 -0.4462 -0.4414  1.6624
10802SOL    HW237092   7.437   3.280   7.311 -0.2898  1.2320 -1.1693
10803SOL     OW37093   7.534   4.074  11.170 -0.0677 -0.4713  0.6562
10803SOL    HW137094   7.513   4.113  11.254 -0.0708 -0.3995  0.6218
10803SOL    HW237095   7.454   4.029  11.143  0.4918 -2.1400  1.5996
10804SOL     OW37096   0.717   4.567   1.746 -0.1469  0.6293 -0.0667
10804SOL    HW137097   0.773   4.642   1.768 -0.9727  0.6364  2.3110
10804SOL    HW237098   0.772   4.491   1.765  0.3801  0.6021 -1.6038
10805SOL     OW37099   0.505   1.389   3.000  0.1783  0.1081 -0.7154
10805SOL    HW137100   0.556   1.439   2.936  1.4811  1.4752  1.2685
10805SOL    HW237101   0.555   1.309   3.014 -0.7059 -0.7559 -2.1634
10806SOL     OW37102   0.352   5.405   3.279  0.2259 -0.1135  0.3747
10806SOL    HW137103   0.402   5.326   3.262  0.3557 -0.3121  1.5886
10806SOL    HW237104   0.270   5.393   3.231  0.0135 -1.2428  0.9734
10807SOL     OW37105   0.538   3.439   1.600 -0.5295 -0.3130 -0.2725
10807SOL    HW137106   0.525   3.507   1.534 -1.4078 -0.9420 -0.7535
10807SOL    HW237107   0.492   3.363   1.566 -2.4861 -0.1743  1.8087
10808SOL     OW37108   3.596  11.168   9.152 -0.5663  0.0762  0.0184
10808SOL    HW137109   3.660  11.163   9.223  0.3636 -1.3832 -0.8609
10808SOL    HW237110   3.645  11.205   9.079 -1.7805  2.5366  0.3515
10809SOL     OW37111   0.235   1.914  10.029 -0.2078  0.3222  0.1630
10809SOL    HW137112   0.275   1.978  10.088  0.9689  1.6582 -1.9726
10809SOL    HW237113   0.177   1.862  10.086  1.4433  0.9892  2.6086
10810SOL     OW37114   9.468   4.972   8.248  0.3171 -0.1265 -0.6446
10810SOL    HW137115   9.527   4.919   8.194 -1.9900 -3.0801 -0.4858
10810SOL    HW237116   9.478   4.937   8.337 -1.5410 -0.6694 -0.6058
10811SOL     OW37117   2.322   2.971   7.881 -0.0471 -0.2425 -0.3757
10811SOL    HW137118   2.241   2.922   7.870 -0.0107 -0.4322  0.1787
10811SOL    HW237119   2.385   2.927   7.824 -0.4985  0.3183 -1.3396
10812SOL     OW37120   7.420   6.103   4.584  0.5115 -0.4020  0.7637
10812SOL    HW137121   7.407   6.124   4.677  0.0355 -1.7256  1.0248
10812SOL    HW237122   7.483   6.167   4.553  1.4002 -0.5237  2.2467
10813SOL     OW37123   1.078   3.733   7.917  0.1775 -0.4691 -0.0332
10813SOL    HW137124   1.157   3.746   7.970 -0.7642  1.0002  1.1173
10813SOL    HW237125   1.054   3.642   7.930 -1.2628  0.2681  4.0903
10814SOL     OW37126   7.038   7.632   4.339 -0.3178  0.1015  0.0109
10814SOL    HW137127   6.977   7.670   4.276 -2.0916  1.2103  2.2570
10814SOL    HW237128   6.993   7.554   4.371 -0.6739  0.9657  1.7385
10815SOL     OW37129   7.107   2.846   9.951  0.8962  0.7123  0.0403
10815SOL    HW137130   7.023   2.884   9.978 -0.3531 -0.7144 -1.5912
10815SOL    HW237131   7.122   2.775  10.014  1.1319  1.2532  0.6048
10816SOL     OW37132   1.935   2.127   9.536 -0.2018 -0.1571  0.5638
10816SOL    HW137133   2.028   2.148   9.539 -0.5337  1.4722  0.5950
10816SOL    HW237134   1.921   2.092   9.448  0.3156  0.2695  0.3041
10817SOL     OW37135   5.151   3.471   8.261 -0.0845  0.8691  0.2251
10817SOL    HW137136   5.153   3.561   8.293  0.4545  1.3592 -1.1070
10817SOL    HW237137   5.243   3.449   8.245 -0.2091  0.0743  0.5278
10818SOL     OW37138   2.320   7.100   5.388  0.0904  0.3646  0.3576
10818SOL    HW137139   2.313   7.007   5.366 -0.1909  0.1761  1.1933
10818SOL    HW237140   2.406   7.108   5.430 -0.5082  0.1535  1.6985
10819SOL     OW37141   3.063   4.463   0.114  0.0083  0.0755  0.1433
10819SOL    HW137142   3.111   4.405   0.055 -0.8838 -0.2896 -0.2408
10819SOL    HW237143   2.978   4.475   0.072  0.0321  1.3471  0.4121
10820SOL     OW37144   6.437   8.647   2.946  0.0247  0.3983 -0.1131
10820SOL    HW137145   6.490   8.666   3.023  2.5719 -1.6299 -1.2061
10820SOL    HW237146   6.456   8.718   2.885 -0.3755  0.9121  0.3566
10821SOL     OW37147  10.005   9.637   7.688 -0.6094  0.2121  0.3649
10821SOL    HW137148   9.957   9.564   7.649 -2.1171  1.5545 -0.4103
10821SOL    HW237149   9.947   9.669   7.757  0.1433  0.5428  0.8542
10822SOL     OW37150   3.150   6.338   0.403  0.2970  0.0849 -0.3704
10822SOL    HW137151   3.073   6.295   0.441 -0.5327  0.4647 -1.5616
10822SOL    HW237152   3.224   6.285   0.433 -0.4091 -0.2729  0.8267
10823SOL     OW37153   4.096   9.713   4.348 -0.0399 -0.1664 -0.6533
10823SOL    HW137154   4.011   9.668   4.349 -1.2608  1.9444  1.3068
10823SOL    HW237155   4.076   9.801   4.317  1.6004  0.1406 -0.9150
10824SOL     OW37156  10.702   5.153   8.493 -0.7211  0.2386  0.0990
10824SOL    HW137157  10.609   5.132   8.482 -0.5157  0.0908 -1.6177
10824SOL    HW237158  10.717   5.227   8.436  0.0171  0.9315  1.1535
10825SOL     OW37159   2.879   7.308   1.113 -0.4009 -0.2958 -0.4425
10825SOL    HW137160   2.784   7.306   1.126 -0.4631 -0.0598 -0.8592
10825SOL    HW237161   2.905   7.395   1.144 -0.5209  0.1928 -1.6834
10826SOL     OW37162   0.794   2.895   3.886 -0.6096 -0.0067 -0.3225
10826SOL    HW137163   0.708   2.900   3.845  0.2827  1.5948 -2.1545
10826SOL    HW237164   0.777   2.910   3.979 -2.2240  1.1284 -0.7565
10827SOL     OW37165   0.439  11.588   8.147  0.2334 -0.0661 -0.0055
10827SOL    HW137166   0.459  11.669   8.193 -0.8355 -0.5897  1.4602
10827SOL    HW237167   0.345  11.576   8.160 -0.2148 -0.0306 -2.7306
10828SOL     OW37168   6.989   0.106   0.288  0.0715  0.2009 -0.0671
10828SOL    HW137169   7.013   0.016   0.312 -0.2004  0.3423  0.7742
10828SOL    HW237170   7.059   0.160   0.325  0.2733  0.3392 -0.6333
10829SOL     OW37171   2.217   1.568   4.042 -0.1515 -0.0223 -0.7636
10829SOL    HW137172   2.293   1.544   4.096  0.8981  1.9505 -1.2389
10829SOL    HW237173   2.168   1.629   4.097 -0.1623  0.4328 -1.2722
10830SOL     OW37174   5.497   5.227   1.523 -0.4940 -0.3258 -0.4330
10830SOL    HW137175   5.505   5.285   1.598 -1.3417  1.2179 -1.4719
10830SOL    HW237176   5.470   5.143   1.560 -0.2861  0.2325  1.0333
10831SOL     OW37177   9.243  10.352   5.379 -0.5870 -0.3635  0.2535
10831SOL    HW137178   9.184  10.325   5.449 -0.3548  0.0911  0.6287
10831SOL    HW237179   9.331  10.345   5.417 -0.3774 -1.2547 -0.3724
10832SOL     OW37180   1.558   5.966   5.360  0.6748  0.9225 -0.3115
10832SOL    HW137181   1.514   5.886   5.388  0.5201  2.0755  3.1638
10832SOL    HW237182   1.519   5.985   5.274 -2.0236 -0.7354  0.4129
10833SOL     OW37183   6.040   2.607  10.860 -0.1549  0.0150  0.4871
10833SOL    HW137184   5.974   2.537  10.862  0.9888 -1.1516 -0.7040
10833SOL    HW237185   6.124   2.561  10.866  0.6935  1.1172 -1.8192
10834SOL     OW37186  11.265   9.602   2.332 -0.1282  0.0852 -0.4178
10834SOL    HW137187  11.318   9.536   2.286 -0.2471  1.7136 -3.0849
10834SOL    HW237188  11.329   9.668   2.360 -0.1633 -0.5110  1.1942
10835SOL     OW37189   5.412   9.216  10.449  0.8922 -0.3279 -0.6216
10835SOL    HW137190   5.334   9.263  10.420 -0.6020 -0.7897  2.2945
10835SOL    HW237191   5.459   9.279  10.505  0.4223 -1.2680  0.9020
10836SOL     OW37192  11.326  10.807   0.557 -0.0421  0.1579  0.2448
10836SOL    HW137193  11.390  10.870   0.590 -0.2386 -0.5075  2.0292
10836SOL    HW237194  11.373  10.758   0.489  0.9169  0.5452  0.6128
10837SOL     OW37195  10.306   7.942   0.378 -0.1292 -0.1559  0.0159
10837SOL    HW137196  10.376   8.006   0.390  0.2543 -0.5571 -0.0486
10837SOL    HW237197  10.351   7.858   0.375 -0.6937 -0.5164  0.9552
10838SOL     OW37198   9.687   4.448   9.093  0.2930  0.2233  0.0250
10838SOL    HW137199   9.674   4.400   9.175  0.4086 -2.2941 -1.3380
10838SOL    HW237200   9.606   4.497   9.081 -1.0346 -1.8285  0.1410
10839SOL     OW37201  10.408   3.601   3.067 -0.3987  0.3320  0.3621
10839SOL    HW137202  10.489   3.603   3.017 -0.1516  0.1085  0.7489
10839SOL    HW237203  10.426   3.655   3.144 -0.2689 -0.5400  0.9591
10840SOL     OW37204   2.985   8.845   6.729  0.2404  0.3617 -0.1488
10840SOL    HW137205   2.926   8.776   6.698  1.5385 -0.7449 -0.2798
10840SOL    HW237206   2.938   8.885   6.802 -1.2194  0.4218 -1.0690
10841SOL     OW37207   3.585   2.374   9.276  0.0334  0.1096 -0.0716
10841SOL    HW137208   3.574   2.322   9.196 -0.1669 -0.6012  0.4036
10841SOL    HW237209   3.524   2.447   9.267 -1.8281 -1.2952  0.5033
10842SOL     OW37210  10.701   1.683  11.488  0.0295 -0.0256  0.4581
10842SOL    HW137211  10.794   1.665  11.472 -0.3293 -1.8393  0.1719
10842SOL    HW237212  10.656   1.645  11.413 -0.9574  0.8165  0.6053
10843SOL     OW37213   5.547  10.736   9.979 -0.5436  0.0984  0.0030
10843SOL    HW137214   5.597  10.666   9.938  1.7612  1.7158 -0.1332
10843SOL    HW237215   5.521  10.701  10.064  1.8864 -0.4802  0.5857
10844SOL     OW37216  10.004   3.316   8.843  0.4174 -0.5330  0.5319
10844SOL    HW137217  10.084   3.273   8.871  0.7444 -0.1299  0.2243
10844SOL    HW237218   9.964   3.254   8.782  0.8373 -0.4411  0.1609
10845SOL     OW37219   2.325   1.993   5.483  0.2871 -0.3039 -0.2560
10845SOL    HW137220   2.321   2.003   5.387 -0.2843 -0.9010 -0.3003
10845SOL    HW237221   2.415   1.968   5.501  0.2378 -0.8240 -0.7085
10846SOL     OW37222   7.178   8.715   6.308 -0.6567 -0.5648 -0.2494
10846SOL    HW137223   7.210   8.630   6.338 -1.8502 -1.1661 -0.6052
10846SOL    HW237224   7.101   8.694   6.255 -1.2873  0.7705  0.0920
10847SOL     OW37225   2.441   0.598   4.769 -0.2795 -0.2140 -0.4793
10847SOL    HW137226   2.407   0.539   4.703 -1.2258  0.6375 -0.7903
10847SOL    HW237227   2.364   0.620   4.823  0.4636 -0.8888  0.9184
10848SOL     OW37228  10.178   4.614   5.816  0.7233 -0.0971 -0.7965
10848SOL    HW137229  10.224   4.543   5.771  1.3345  0.1647 -0.5944
10848SOL    HW237230  10.086   4.602   5.791  0.4497 -2.2301  0.9206
10849SOL     OW37231   8.921   8.560  10.191  0.2123 -0.8495 -0.0072
10849SOL    HW137232   8.934   8.651  10.218  1.0375 -0.8725 -0.3053
10849SOL    HW237233   8.826   8.546  10.199  0.3076 -0.5917  1.9726
10850SOL     OW37234   8.987   5.309   2.272  0.8437  0.3031 -0.2905
10850SOL    HW137235   8.972   5.386   2.217  0.2833 -0.0486 -0.6491
10850SOL    HW237236   9.038   5.250   2.217 -0.0702 -0.2218 -0.6092
10851SOL     OW37237   3.435  10.546   0.546 -0.7812 -0.3448 -0.5568
10851SOL    HW137238   3.528  10.564   0.559 -0.7278 -0.6577 -0.4877
10851SOL    HW237239   3.433  10.459   0.505 -1.0209 -0.1116 -1.0416
10852SOL     OW37240  11.876   2.740   2.508 -0.5165 -0.2954 -0.1833
10852SOL    HW137241  11.854   2.648   2.514 -0.4552 -0.3908 -1.2584
10852SOL    HW237242  11.804   2.780   2.459  0.7499 -0.3027 -2.1873
10853SOL     OW37243  10.163   2.789   4.861  0.4381 -0.3311 -0.3485
10853SOL    HW137244  10.168   2.700   4.895 -1.6682  0.2168  1.6920
10853SOL    HW237245  10.155   2.844   4.939  1.2317  1.6178 -1.5606
10854SOL     OW37246   3.199   8.483  10.285 -0.1736 -0.0815  0.2846
10854SOL    HW137247   3.195   8.578  10.275  1.2590 -0.0316 -0.0869
10854SOL    HW237248   3.272   8.457  10.229 -0.0653 -1.3168  0.9754
10855SOL     OW37249   3.492   8.215   0.671  0.1477  0.1483 -0.2325
10855SOL    HW137250   3.487   8.144   0.735  1.4925  0.7463  0.6008
10855SOL    HW237251   3.516   8.172   0.589 -3.5217 -0.8943 -0.9380
10856SOL     OW37252   4.663   7.933  10.665  0.1893  0.3811 -0.3541
10856SOL    HW137253   4.580   7.886  10.676  0.6029 -0.1730  0.6256
10856SOL    HW237254   4.728   7.874  10.703  0.8190  1.4695  0.3147
10857SOL     OW37255   9.888   3.636   7.595 -0.2430  0.1031 -0.3033
10857SOL    HW137256   9.946   3.648   7.520 -0.9787  1.0880 -0.7311
10857SOL    HW237257   9.802   3.665   7.565 -0.8511 -0.8014  0.4950
10858SOL     OW37258   3.653   3.236   0.146 -0.3646 -0.1069  0.2084
10858SOL    HW137259   3.683   3.214   0.058 -1.2355 -0.3181 -0.0437
10858SOL    HW237260   3.727   3.215   0.203  0.2121  0.0537 -0.4757
10859SOL     OW37261   0.543  11.089   2.241  0.2486 -0.0458  0.2782
10859SOL    HW137262   0.549  10.995   2.220  0.8052 -0.0221  0.3134
10859SOL    HW237263   0.523  11.131   2.158 -0.9526 -0.2792  0.4250
10860SOL     OW37264  10.699   1.001   3.675 -0.1194 -0.1887 -1.1726
10860SOL    HW137265  10.763   1.061   3.711 -0.4501 -0.5151 -0.0062
10860SOL    HW237266  10.697   1.021   3.581  0.0554  1.3494 -0.8723
10861SOL     OW37267   6.958  10.985  10.820  0.2671 -0.3687  0.3499
10861SOL    HW137268   7.052  11.003  10.826  0.7360 -2.4307  0.1140
10861SOL    HW237269   6.924  10.999  10.908  1.0944 -1.0070  0.7791
10862SOL     OW37270  11.932   5.281   5.159  0.0436  0.0015  0.0633
10862SOL    HW137271  11.980   5.226   5.098 -0.2693  0.0302 -0.2105
10862SOL    HW237272  11.855   5.311   5.110  0.6803  1.4498 -0.1210
10863SOL     OW37273   3.479   0.700  10.524 -0.0318 -0.2891  0.1465
10863SOL    HW137274   3.397   0.741  10.495 -0.1098  0.8948  1.8933
10863SOL    HW237275   3.522   0.673  10.443 -1.3904  0.5441 -0.9019
10864SOL     OW37276  11.661   5.335   1.894 -0.4948 -0.0138 -0.3542
10864SOL    HW137277  11.667   5.409   1.955  0.1179  0.1602 -0.6081
10864SOL    HW237278  11.653   5.258   1.950  0.8815  0.0653 -0.0054
10865SOL     OW37279   2.098   4.135   9.046  0.0218 -0.6684  0.4480
10865SOL    HW137280   2.094   4.054   8.996  4.0371 -0.8939  0.1638
10865SOL    HW237281   2.160   4.190   8.998 -0.7388  1.6482  1.9244
10866SOL     OW37282   7.009   3.089   3.689 -0.2518 -0.3023  0.0426
10866SOL    HW137283   6.938   3.150   3.710 -1.2650 -0.9719 -1.2801
10866SOL    HW237284   6.983   3.006   3.729  0.7882 -0.0897  1.2444
10867SOL     OW37285   6.687   1.349   4.193  0.2060 -0.0459  0.2281
10867SOL    HW137286   6.664   1.361   4.101  0.9630 -0.3975 -0.0151
10867SOL    HW237287   6.641   1.271   4.220  0.4119 -0.2535 -0.0125
10868SOL     OW37288   7.002  10.261   9.717  0.0406 -0.3348 -0.3732
10868SOL    HW137289   7.028  10.208   9.642  2.7857 -0.9529  0.8818
10868SOL    HW237290   7.075  10.254   9.778 -1.7584  0.6961  2.0954
10869SOL     OW37291   5.179   7.318   5.292 -1.0079  0.0485  0.1437
10869SOL    HW137292   5.189   7.402   5.245 -0.3265 -0.0499  0.0996
10869SOL    HW237293   5.185   7.252   5.223  0.7052 -0.1338  0.4125
10870SOL     OW37294   2.817  10.009   8.662 -0.9973 -0.2442  0.0197
10870SOL    HW137295   2.848  10.081   8.608  0.4744 -0.1569  0.9303
10870SOL    HW237296   2.727   9.993   8.632 -0.5002  0.3099 -1.8787
10871SOL     OW37297   9.460   7.536   0.526 -0.8396  0.4730 -0.4690
10871SOL    HW137298   9.451   7.571   0.614  0.8447  0.6402 -0.3276
10871SOL    HW237299   9.383   7.479   0.514 -0.6252 -0.2800  1.4454
10872SOL     OW37300   6.352   2.086   2.259  0.1042  0.0626 -0.3906
10872SOL    HW137301   6.419   2.043   2.312 -0.3506  0.9124  0.9276
10872SOL    HW237302   6.269   2.055   2.295 -0.2190  0.2568 -0.9486
10873SOL     OW37303   3.897  11.743   8.969 -0.4988 -0.2564  0.1505
10873SOL    HW137304   3.887  11.814   9.032 -0.1567  0.4958 -0.6267
10873SOL    HW237305   3.818  11.747   8.916 -0.1196  0.0572 -0.3983
10874SOL     OW37306   3.938   3.467  11.121 -0.2414  0.1259 -0.1868
10874SOL    HW137307   3.998   3.420  11.179 -0.6771  1.6251  1.5217
10874SOL    HW237308   3.965   3.438  11.033  2.6556  0.3497  0.5089
10875SOL     OW37309   8.811   5.240   4.337  0.3579  0.0414  0.0204
10875SOL    HW137310   8.899   5.276   4.328 -0.0917  1.4507  0.8641
10875SOL    HW237311   8.754   5.306   4.297 -0.2655 -1.3573 -1.5202
10876SOL     OW37312  11.056   1.879  11.534  0.2618  0.3122 -0.5666
10876SOL    HW137313  11.036   1.811  11.470  0.1903 -0.2411  0.0300
10876SOL    HW237314  11.116   1.938  11.489 -0.5940  0.5009 -1.4843
10877SOL     OW37315   6.081   8.713   3.422  0.1792 -0.1914 -0.3002
10877SOL    HW137316   6.026   8.711   3.343 -0.3293  0.3540  0.0262
10877SOL    HW237317   6.094   8.807   3.438  1.4296 -0.3088 -0.5170
10878SOL     OW37318   6.806   4.772   3.277  0.1460 -0.4053 -0.0104
10878SOL    HW137319   6.890   4.761   3.323  1.9398  2.0960 -2.3560
10878SOL    HW237320   6.822   4.733   3.191 -0.3756  1.7275 -1.1379
10879SOL     OW37321   9.871   4.932   2.301  0.0353  0.3148  0.6928
10879SOL    HW137322   9.819   4.878   2.242  0.2621 -1.1248  1.7581
10879SOL    HW237323   9.856   4.895   2.388  0.0400  2.1129  1.5084
10880SOL     OW37324   8.139   1.351   0.848  0.7425 -0.0040  0.1263
10880SOL    HW137325   8.099   1.277   0.802 -1.5504 -0.7121  2.8979
10880SOL    HW237326   8.135   1.423   0.786  0.2038 -1.4517 -1.6165
10881SOL     OW37327   6.426  10.740   5.700  0.5714  0.0496 -0.2554
10881SOL    HW137328   6.491  10.810   5.709 -0.8859  1.1607  3.0764
10881SOL    HW237329   6.342  10.786   5.692 -0.2348 -1.3081  0.1139
10882SOL     OW37330   2.427   7.561   8.361  0.1207  0.1190 -0.2014
10882SOL    HW137331   2.384   7.567   8.446 -1.5512 -2.0042 -0.8013
10882SOL    HW237332   2.388   7.484   8.320  0.6535  1.2208 -3.0139
10883SOL     OW37333   5.902   5.210   1.123 -0.1374 -0.5836 -0.2677
10883SOL    HW137334   5.817   5.216   1.167 -0.5291  2.2124 -1.2215
10883SOL    HW237335   5.889   5.142   1.056 -1.5575 -0.3898 -0.2358
10884SOL     OW37336   3.165   2.316   9.628  0.0553  0.1043 -0.2371
10884SOL    HW137337   3.228   2.369   9.578  0.3779  0.0686  0.1241
10884SOL    HW237338   3.164   2.356   9.715  1.1638 -1.1468  0.3905
10885SOL     OW37339   4.077   7.992  11.737  0.3031 -0.3138 -0.1342
10885SOL    HW137340   4.156   8.018  11.785 -0.7216  1.0417  0.9318
10885SOL    HW237341   4.046   8.074  11.696 -0.5178 -0.8200 -0.5559
10886SOL     OW37342   1.363  10.943   6.323 -0.5386  0.4312 -0.9037
10886SOL    HW137343   1.353  11.034   6.350  0.6205  0.3529 -0.1626
10886SOL    HW237344   1.361  10.893   6.405  1.9796  0.0867 -0.9887
10887SOL     OW37345   8.649  10.012   3.781  0.2233 -0.2199 -0.0664
10887SOL    HW137346   8.721  10.074   3.775  0.6978 -0.6250  1.0221
10887SOL    HW237347   8.576  10.063   3.817 -0.7990  0.7429 -3.1725
10888SOL     OW37348   3.517   6.098   1.502 -0.7102  0.1466 -0.4762
10888SOL    HW137349   3.431   6.101   1.545  0.7976  0.1633  2.8266
10888SOL    HW237350   3.535   6.189   1.479 -1.3691  0.2111 -0.7756
10889SOL     OW37351   1.190   5.557  10.177 -0.3506  0.4928 -0.4525
10889SOL    HW137352   1.148   5.554  10.262  1.8629 -1.2862  0.7059
10889SOL    HW237353   1.139   5.620  10.127 -2.5721  0.5625  1.6994
10890SOL     OW37354  11.538  10.122   8.876  0.5952 -0.2838  0.3265
10890SOL    HW137355  11.481  10.092   8.805  1.1010 -1.5265  0.4118
10890SOL    HW237356  11.626  10.122   8.838  0.6941  0.5022  0.5290
10891SOL     OW37357  10.459   0.280   0.127 -0.1106 -0.1228 -0.2234
10891SOL    HW137358  10.533   0.312   0.178  0.5897  0.5836 -1.5996
10891SOL    HW237359  10.471   0.185   0.124  0.2958 -0.0890  0.2305
10892SOL     OW37360   5.983   1.936   5.841 -0.3044 -0.2897  0.5519
10892SOL    HW137361   5.937   2.016   5.863 -0.3635 -0.3109  0.5052
10892SOL    HW237362   6.068   1.965   5.806 -0.0801 -0.2647  1.1068
10893SOL     OW37363   9.286  11.009   5.820 -0.6544 -0.1323  0.4587
10893SOL    HW137364   9.339  11.067   5.765 -0.4907  0.3177  1.0797
10893SOL    HW237365   9.344  10.935   5.839 -0.5773 -0.0996  0.3553
10894SOL     OW37366   1.794   8.988   2.881 -0.2126 -0.1915  0.0508
10894SOL    HW137367   1.822   8.897   2.886 -1.8150 -0.8975 -2.1112
10894SOL    HW237368   1.875   9.039   2.874  0.6679 -1.6291 -0.5686
10895SOL     OW37369   8.407  11.673   9.903  0.5515 -1.0250  0.6185
10895SOL    HW137370   8.416  11.577   9.899 -1.2022 -1.1817 -0.4213
10895SOL    HW237371   8.347  11.695   9.832  3.0625  1.2012 -1.0327
10896SOL     OW37372   3.808   4.506   8.309  0.0709  0.1014  0.0835
10896SOL    HW137373   3.832   4.501   8.216  0.1025 -0.0910  0.1031
10896SOL    HW237374   3.891   4.528   8.353 -0.1790  1.4283 -0.0634
10897SOL     OW37375   0.746   0.808   3.989 -1.0774  0.4129  0.5412
10897SOL    HW137376   0.798   0.727   3.980 -1.3696  0.2931 -0.1188
10897SOL    HW237377   0.812   0.877   3.995 -0.7635  0.4861 -2.2423
10898SOL     OW37378   0.480   5.446   4.964 -0.3339  0.5016  0.3292
10898SOL    HW137379   0.395   5.402   4.969  0.1797 -0.7489 -1.1579
10898SOL    HW237380   0.540   5.378   4.934  0.9431  1.6926  0.1167
10899SOL     OW37381   2.723  11.727   7.546 -0.1775  0.5233 -0.3044
10899SOL    HW137382   2.642  11.778   7.549  0.0792  0.8920  0.6369
10899SOL    HW237383   2.783  11.773   7.605  1.7077  1.8932 -3.0392
10900SOL     OW37384   6.591   3.395   8.809 -0.5901 -0.3953 -0.2034
10900SOL    HW137385   6.685   3.401   8.792 -0.2568  0.5032  1.6615
10900SOL    HW237386   6.569   3.303   8.791  0.4712 -0.4559 -1.3212
10901SOL     OW37387   8.809   9.988   1.067 -0.5325 -0.0700 -0.3241
10901SOL    HW137388   8.726   9.949   1.094 -0.5481  0.5605  0.6090
10901SOL    HW237389   8.868   9.913   1.056 -0.6678 -0.4202  1.0518
10902SOL     OW37390   8.174   5.022   1.595 -0.0895  0.0562 -0.2529
10902SOL    HW137391   8.147   4.999   1.684  0.3501 -1.8228 -0.5588
10902SOL    HW237392   8.269   5.013   1.596  0.0120  1.0186 -0.6605
10903SOL     OW37393   0.786   3.851   2.342  0.0175 -0.9343  0.8511
10903SOL    HW137394   0.854   3.821   2.401 -0.5304  0.2026  2.1129
10903SOL    HW237395   0.740   3.920   2.390  0.5992  1.2718 -1.4899
10904SOL     OW37396   2.551   1.076   0.324  0.2914 -0.4370 -0.1775
10904SOL    HW137397   2.522   1.161   0.357  0.3282 -0.6942  0.5462
10904SOL    HW237398   2.498   1.012   0.373 -2.8625 -0.8079 -3.6703
10905SOL     OW37399  10.921   0.742   5.386  0.5996  0.4167  0.0283
10905SOL    HW137400  10.939   0.650   5.404  0.8672  0.3797 -0.4012
10905SOL    HW237401  10.918   0.748   5.290  0.8630  0.8995  0.0437
10906SOL     OW37402   2.084   6.075   6.074  0.1814  0.3000 -0.5815
10906SOL    HW137403   2.167   6.120   6.087 -0.1004  1.4309 -2.3402
10906SOL    HW237404   2.076   6.017   6.150  2.6768 -0.0405 -0.4898
10907SOL     OW37405   8.087   6.812   2.274 -0.4827  0.0831  0.1119
10907SOL    HW137406   8.069   6.761   2.353 -2.9104  1.6619  0.6780
10907SOL    HW237407   8.017   6.790   2.213 -1.1562  2.0738  0.0765
10908SOL     OW37408   5.017   3.142  10.506 -0.2428 -0.3026 -0.3312
10908SOL    HW137409   4.995   3.191  10.586 -1.7616  0.0199 -0.8964
10908SOL    HW237410   5.091   3.189  10.468 -0.4316  0.4078  0.1539
10909SOL     OW37411   7.260   9.713   8.755 -0.1142 -1.0210  0.4446
10909SOL    HW137412   7.221   9.627   8.738  0.7469 -1.1525 -1.0146
10909SOL    HW237413   7.318   9.729   8.680  0.4408  0.4326  1.1377
10910SOL     OW37414   4.924   0.076   8.609 -0.3744 -0.3538 -0.5110
10910SOL    HW137415   4.958   0.164   8.594 -0.4140 -0.5732 -1.9620
10910SOL    HW237416   4.993   0.018   8.578 -2.2140 -0.8129 -4.2036
10911SOL     OW37417   2.682   5.481   3.245  0.3782  0.3393 -0.2196
10911SOL    HW137418   2.721   5.409   3.294 -0.8424  0.3160  0.7607
10911SOL    HW237419   2.734   5.558   3.268  0.0886  0.2419  0.7738
10912SOL     OW37420   1.134  11.614   3.917 -0.3842  0.5076  0.1077
10912SOL    HW137421   1.187  11.681   3.875  0.1427  0.3341  0.4883
10912SOL    HW237422   1.147  11.627   4.010 -1.5271  0.8749  0.2335
10913SOL     OW37423  10.912   5.053   5.198 -0.1677  0.4459  0.0127
10913SOL    HW137424  10.932   5.142   5.170 -0.0272  0.6707  0.8029
10913SOL    HW237425  10.822   5.038   5.169 -0.2818  0.9420  0.1005
10914SOL     OW37426  10.907   9.049   1.069 -0.5233  0.2033 -0.1392
10914SOL    HW137427  10.942   9.121   1.122  1.2669 -0.2254 -0.6935
10914SOL    HW237428  10.899   9.086   0.981  0.2166 -0.1914 -0.3829
10915SOL     OW37429   8.498   1.028   7.839  0.6758 -0.3287 -0.1334
10915SOL    HW137430   8.453   0.995   7.917  0.6262 -1.1888 -0.5152
10915SOL    HW237431   8.430   1.074   7.790  0.3784 -0.9959 -0.3523
10916SOL     OW37432   4.505  11.426   6.237  0.4559 -0.3059 -0.2215
10916SOL    HW137433   4.426  11.394   6.279  1.5401 -3.2329 -0.1852
10916SOL    HW237434   4.559  11.460   6.309  1.5871 -3.7222  0.7490
10917SOL     OW37435   5.875   9.428   3.938  0.0907 -0.2499  0.8024
10917SOL    HW137436   5.937   9.441   4.010 -1.4989  0.2118  2.1443
10917SOL    HW237437   5.802   9.380   3.977 -1.3999  1.1350 -0.1617
10918SOL     OW37438   8.897   5.526   3.184  0.3335  0.1214 -0.6458
10918SOL    HW137439   8.978   5.476   3.172 -1.2114 -2.2399 -2.2368
10918SOL    HW237440   8.894   5.584   3.108 -0.4058 -1.3350 -1.7928
10919SOL     OW37441   2.782   1.466   0.500  0.2028  0.0670  0.3679
10919SOL    HW137442   2.768   1.449   0.594 -0.7882  0.3108  0.2757
10919SOL    HW237443   2.755   1.557   0.489 -0.7377 -0.2886 -0.3546
10920SOL     OW37444   3.910   8.258  10.994 -0.1162 -0.1467 -0.5287
10920SOL    HW137445   3.862   8.283  11.073  1.9058 -1.0296  1.0867
10920SOL    HW237446   3.988   8.312  10.995 -0.1961  0.0507 -2.1385
10921SOL     OW37447   4.192   1.147   5.584  0.2109 -0.2279  0.0910
10921SOL    HW137448   4.207   1.063   5.541  1.9903  0.0067  0.2039
10921SOL    HW237449   4.246   1.144   5.663 -2.3798 -0.3537  2.0235
10922SOL     OW37450   9.161   0.731   5.151 -0.5032  0.1704 -0.4490
10922SOL    HW137451   9.242   0.719   5.102  0.1747  1.4599  0.3098
10922SOL    HW237452   9.149   0.649   5.198  0.1232 -0.1850 -0.9048
10923SOL     OW37453   5.009   9.181  10.452  0.1256  0.2076  0.0887
10923SOL    HW137454   5.019   9.270  10.417 -1.3643 -0.0380 -1.0661
10923SOL    HW237455   5.077   9.173  10.518  0.1222  2.3060  0.4024
10924SOL     OW37456  11.868   5.930   9.430  0.5371  0.2404  0.1849
10924SOL    HW137457  11.915   5.908   9.349  2.9652 -0.1150  1.5945
10924SOL    HW237458  11.899   6.017   9.453  0.7044 -0.0841  1.2637
10925SOL     OW37459   2.640   7.292  11.347 -0.0758  0.0629  0.4457
10925SOL    HW137460   2.699   7.345  11.401  0.7203 -0.5470  0.1963
10925SOL    HW237461   2.671   7.202  11.359  0.2892 -0.0648 -1.2288
10926SOL     OW37462   2.694   3.769   2.090  0.1413 -0.1312 -0.2341
10926SOL    HW137463   2.655   3.790   2.005  1.2977 -1.6637 -1.1926
10926SOL    HW237464   2.687   3.674   2.097  0.9746 -0.1324  0.9371
10927SOL     OW37465   9.364   7.398  10.999  0.6055  0.5041  0.1175
10927SOL    HW137466   9.375   7.303  11.003  1.1984  0.5383 -0.4320
10927SOL    HW237467   9.421   7.432  11.067  2.0789  0.5538 -1.0788
10928SOL     OW37468   7.851   5.608   2.926  0.5155 -0.0914  0.1503
10928SOL    HW137469   7.862   5.594   2.832  0.0502  2.0090 -0.2639
10928SOL    HW237470   7.835   5.521   2.962  2.4266 -1.1849 -1.4419
10929SOL     OW37471   3.630   9.094   5.788  0.5147  0.5156  0.1722
10929SOL    HW137472   3.598   9.084   5.878  0.5073 -1.7264 -0.0355
10929SOL    HW237473   3.558   9.065   5.733  0.9710  0.6929 -0.5266
10930SOL     OW37474   6.157   6.116   4.969 -0.2042 -0.5015 -0.3447
10930SOL    HW137475   6.249   6.138   4.985 -0.7590  1.0760  0.8609
10930SOL    HW237476   6.140   6.040   5.024  0.2044 -0.4161 -0.1020
10931SOL     OW37477   4.988  11.947  11.361 -0.2669 -0.0357 -0.4137
10931SOL    HW137478   4.951  11.918  11.444 -1.9750 -2.5414 -1.9087
10931SOL    HW237479   4.945  12.031  11.343  0.9681  1.1210  1.6654
10932SOL     OW37480   6.846   1.222   3.153 -0.2768 -0.0459 -0.2900
10932SOL    HW137481   6.828   1.133   3.183 -1.1274  0.2710  0.1886
10932SOL    HW237482   6.766   1.248   3.107  0.3236  0.1386 -1.2527
10933SOL     OW37483   3.897   6.061   4.042  0.2494  0.3358 -0.3647
10933SOL    HW137484   3.804   6.046   4.062  1.1571 -3.3980  1.9426
10933SOL    HW237485   3.937   6.076   4.128  2.1207 -0.7505 -1.0039
10934SOL     OW37486   5.506  10.641  10.222  0.1095  0.3156 -0.4565
10934SOL    HW137487   5.566  10.674  10.289  0.2244 -0.0886 -0.3593
10934SOL    HW237488   5.421  10.677  10.246 -0.2549 -1.4032  1.0600
10935SOL     OW37489   0.474   6.064   5.305  0.0127  0.2254  0.2161
10935SOL    HW137490   0.510   6.080   5.218  0.2062  3.2018  0.7282
10935SOL    HW237491   0.431   5.979   5.298  0.0307  0.3488 -2.7885
10936SOL     OW37492   8.840   2.483   6.102  0.2132 -0.2716 -0.3397
10936SOL    HW137493   8.748   2.467   6.079  0.8418 -0.8214 -2.6764
10936SOL    HW237494   8.858   2.571   6.069  1.0792 -0.9881 -1.8660
10937SOL     OW37495   9.874  11.570   9.561  0.1609  0.0850  0.1175
10937SOL    HW137496   9.793  11.580   9.512  0.5107 -1.1997 -0.7761
10937SOL    HW237497   9.943  11.570   9.494  0.6739 -1.3747  0.6182
10938SOL     OW37498   3.247  10.231   8.640  0.2092 -0.9714  0.1766
10938SOL    HW137499   3.221  10.218   8.731  1.5159 -0.8474  0.5896
10938SOL    HW237500   3.203  10.161   8.592  0.1327 -1.5151  1.0208
10939SOL     OW37501   1.199   3.017  11.480 -0.5041 -0.7183 -0.4276
10939SOL    HW137502   1.248   3.015  11.562 -0.8728  0.4586 -0.1579
10939SOL    HW237503   1.196   2.926  11.452 -0.5870 -1.1818  0.9906
10940SOL     OW37504   5.375   6.668  10.944 -0.4677 -0.2006 -0.3704
10940SOL    HW137505   5.442   6.639  10.881 -2.6341 -1.7834 -2.1155
10940SOL    HW237506   5.317   6.724  10.892 -0.0948  1.9055  1.3395
10941SOL     OW37507   3.231   4.872   9.920 -0.2839  0.2480 -0.5963
10941SOL    HW137508   3.266   4.908  10.002 -1.3655 -0.3231  0.1276
10941SOL    HW237509   3.272   4.786   9.912 -1.1579 -0.2392  0.0286
10942SOL     OW37510   6.900   4.514   7.662 -0.4666  0.2270  0.1051
10942SOL    HW137511   6.818   4.515   7.613 -0.2777 -2.0468 -0.3932
10942SOL    HW237512   6.875   4.535   7.752 -1.8505 -1.5473  0.2027
10943SOL     OW37513   4.074   1.197   6.030  0.4723 -0.3078  0.1123
10943SOL    HW137514   4.114   1.152   5.956 -0.8576 -1.0573 -0.1954
10943SOL    HW237515   4.104   1.288   6.022  0.6408 -0.4549 -1.1436
10944SOL     OW37516  11.180   9.355   4.870  0.0162  1.1430 -0.1372
10944SOL    HW137517  11.235   9.278   4.880 -3.0459 -0.9574  2.9007
10944SOL    HW237518  11.212   9.417   4.936  0.2765  1.0035 -0.1330
10945SOL     OW37519   1.388   1.039   6.539 -0.1366  0.4817  0.1683
10945SOL    HW137520   1.410   1.129   6.518  2.4664 -0.3521 -1.1532
10945SOL    HW237521   1.350   1.003   6.459 -2.1914  0.6345  1.0211
10946SOL     OW37522  11.678   3.813   4.329  0.2315  0.0920  0.1036
10946SOL    HW137523  11.585   3.836   4.323  0.4017  1.3779  1.6337
10946SOL    HW237524  11.722   3.878   4.274  0.2345 -0.6166 -0.7510
10947SOL     OW37525   4.705   6.462   0.149  0.3546  0.5426 -0.1852
10947SOL    HW137526   4.662   6.482   0.232  0.4618  3.1546 -0.6644
10947SOL    HW237527   4.798   6.453   0.172  0.2999  0.6009  0.0599
10948SOL     OW37528   2.653  10.810   8.225  0.3797  0.1539  0.0639
10948SOL    HW137529   2.637  10.729   8.177  0.7494 -0.3612  0.7777
10948SOL    HW237530   2.727  10.790   8.282 -0.4819  0.4983  1.3714
10949SOL     OW37531   9.962   3.230   1.063  0.6591  0.6924 -0.2697
10949SOL    HW137532   9.887   3.187   1.021  1.2259 -2.0728  1.2934
10949SOL    HW237533   9.976   3.309   1.010 -1.5275 -0.1578 -2.3605
10950SOL     OW37534   0.681   5.364   1.831  0.0333 -0.0999 -0.2297
10950SOL    HW137535   0.650   5.452   1.812  0.3445  0.1415  0.3668
10950SOL    HW237536   0.606   5.321   1.873  0.2367  0.2217  0.4626
10951SOL     OW37537   2.196   8.412   2.767  0.5500  0.2865  0.3502
10951SOL    HW137538   2.238   8.497   2.754 -0.3074  0.5805 -0.6213
10951SOL    HW237539   2.190   8.374   2.679  0.6952 -0.6720  0.7426
10952SOL     OW37540   0.671   3.524   0.617 -0.1646  0.0498 -0.1110
10952SOL    HW137541   0.721   3.525   0.535 -1.3215 -1.4685 -0.8787
10952SOL    HW237542   0.636   3.613   0.625  3.1234  1.4190  0.8276
10953SOL     OW37543   0.352   2.820   0.030 -0.4694 -0.2372  0.5928
10953SOL    HW137544   0.296   2.870  -0.029 -2.4516 -1.0920  1.6420
10953SOL    HW237545   0.293   2.760   0.074  1.4209 -1.7328  1.2485
10954SOL     OW37546   7.800   4.590   0.351  0.6226  0.0303  0.5439
10954SOL    HW137547   7.768   4.539   0.277  2.4748 -0.9534  0.3601
10954SOL    HW237548   7.862   4.652   0.312  0.7858  0.2594  1.1516
10955SOL     OW37549   0.549   3.357   3.021 -0.0503 -0.0904  0.5404
10955SOL    HW137550   0.610   3.388   3.088 -0.1475  3.3973 -0.7734
10955SOL    HW237551   0.464   3.391   3.049 -0.6149 -1.1126  0.1053
10956SOL     OW37552  10.409   0.732   4.656  0.3348 -0.4855 -0.2064
10956SOL    HW137553  10.495   0.698   4.679 -0.4258 -1.2487  1.7746
10956SOL    HW237554  10.415   0.826   4.676  0.7335 -0.5249 -0.1217
10957SOL     OW37555  10.071   8.912   0.970 -0.6650 -0.5740 -0.0232
10957SOL    HW137556  10.070   8.871   0.883  3.7419 -0.3940 -0.3739
10957SOL    HW237557  10.107   8.999   0.955 -1.2406  0.0211  1.8396
10958SOL     OW37558   1.767   1.629   8.590 -0.0573  0.2137  0.1087
10958SOL    HW137559   1.738   1.660   8.504 -0.0514 -1.4288 -0.5266
10958SOL    HW237560   1.699   1.568   8.618 -0.0897  0.7725  1.3159
10959SOL     OW37561   3.378   4.091  10.360 -0.4529 -0.5771 -0.7293
10959SOL    HW137562   3.318   4.037  10.411  0.9481 -2.2470 -0.7644
10959SOL    HW237563   3.456   4.037  10.349 -0.5430 -0.2206 -4.4151
10960SOL     OW37564   8.301  11.058  11.086  0.2256 -0.5203 -0.3906
10960SOL    HW137565   8.228  11.054  11.024  0.2469  0.8440 -0.5326
10960SOL    HW237566   8.314  11.152  11.102  1.4490 -0.7740  0.2269
10961SOL     OW37567  10.621   3.324   7.065  0.0222 -0.0162  0.3226
10961SOL    HW137568  10.656   3.387   7.001  0.5220 -1.7600 -1.2137
10961SOL    HW237569  10.670   3.341   7.145  0.1894  1.4961 -0.0740
10962SOL     OW37570   8.319   5.332   0.442  0.2980 -0.1403 -0.4882
10962SOL    HW137571   8.358   5.368   0.521 -1.7102  1.2281 -0.0292
10962SOL    HW237572   8.316   5.405   0.381 -0.6584 -0.4436 -0.8292
10963SOL     OW37573   9.198  11.064   3.644  0.6687 -0.5205  0.4228
10963SOL    HW137574   9.152  11.128   3.698  1.2445  0.4845 -0.2414
10963SOL    HW237575   9.232  11.114   3.570  0.1131 -1.8065 -0.7664
10964SOL     OW37576   6.272   4.680  11.247  0.3436 -0.2491 -0.7872
10964SOL    HW137577   6.298   4.714  11.161  2.4762 -1.7183 -0.8033
10964SOL    HW237578   6.204   4.616  11.228  0.3551 -0.1122 -1.3147
10965SOL     OW37579  11.971   2.069   9.037  0.2248 -0.3432  0.2183
10965SOL    HW137580  11.888   2.082   9.084 -0.2268  0.4013 -0.7512
10965SOL    HW237581  12.026   2.141   9.066  0.3028 -0.4604  0.3625
10966SOL     OW37582   4.284  11.460   4.856 -0.5870 -0.0692  0.5212
10966SOL    HW137583   4.218  11.521   4.824 -0.8165 -1.1529 -1.1943
10966SOL    HW237584   4.366  11.511   4.857 -0.3653 -0.1779 -2.7848
10967SOL     OW37585   4.938  10.363   9.478 -0.0883 -0.0736 -0.0300
10967SOL    HW137586   4.875  10.291   9.480  1.2287 -1.2693  0.6183
10967SOL    HW237587   4.931  10.402   9.565  0.0844 -0.2416  0.0614
10968SOL     OW37588   5.583   7.934  11.579 -0.3692  0.4149  0.6509
10968SOL    HW137589   5.673   7.921  11.609  0.8476  4.3357 -0.7029
10968SOL    HW237590   5.540   7.981  11.650 -0.8823  0.0076  0.6177
10969SOL     OW37591   8.680   5.380   2.391  0.0356  0.2647  0.1625
10969SOL    HW137592   8.733   5.307   2.358  0.1725 -0.2820  1.5261
10969SOL    HW237593   8.596   5.371   2.347 -0.2849 -1.3252  1.0335
10970SOL     OW37594   8.920  10.811   6.383  0.1511  0.1477  0.1710
10970SOL    HW137595   8.961  10.754   6.318  1.6503  1.7749 -0.3785
10970SOL    HW237596   8.865  10.871   6.331 -2.2138 -1.3268  0.8162
10971SOL     OW37597   2.963   9.318   4.929  0.0679 -0.0037  0.6986
10971SOL    HW137598   2.988   9.334   4.838  0.6645  0.0846  0.8789
10971SOL    HW237599   2.906   9.392   4.951  0.0292  0.0437  0.4371
10972SOL     OW37600   1.550   6.195  11.953 -0.3366  0.1820  0.2743
10972SOL    HW137601   1.486   6.266  11.955 -1.3308 -0.6919  0.3236
10972SOL    HW237602   1.635   6.238  11.960 -0.6698  1.6576 -2.9035
10973SOL     OW37603   5.594  11.035   8.324  0.0207  0.0234  0.1896
10973SOL    HW137604   5.680  11.047   8.284 -0.1186  0.3236 -0.0193
10973SOL    HW237605   5.533  11.072   8.261 -0.3555 -1.0813 -0.1167
10974SOL     OW37606   3.606   6.770   5.506 -0.0035 -0.5243 -0.2765
10974SOL    HW137607   3.677   6.706   5.496  1.2816  1.0744 -2.0161
10974SOL    HW237608   3.541   6.744   5.440  0.3405 -0.2694 -0.7191
10975SOL     OW37609   2.923   4.839   5.101 -0.4756  0.1815  0.0122
10975SOL    HW137610   2.860   4.868   5.034  0.1273 -1.0689 -1.1674
10975SOL    HW237611   2.947   4.750   5.073  0.6509  0.0592  1.2860
10976SOL     OW37612  11.042   5.425   0.175 -0.8318 -0.0816 -0.2221
10976SOL    HW137613  10.992   5.506   0.165 -0.9045 -0.1396 -0.3231
10976SOL    HW237614  11.083   5.433   0.262 -1.7356 -0.4364  0.2522
10977SOL     OW37615  10.084   9.888   7.179 -0.8268 -0.2496 -0.5884
10977SOL    HW137616  10.117   9.857   7.095  0.0050 -1.3168  0.1017
10977SOL    HW237617  10.014   9.949   7.156 -0.6821 -0.5863 -2.0469
10978SOL     OW37618   5.264   3.236  10.407 -0.2632  0.1828 -0.9573
10978SOL    HW137619   5.323   3.310  10.414 -0.9547  0.7221 -0.7088
10978SOL    HW237620   5.290   3.177  10.478 -1.2501  1.3163  0.4169
10979SOL     OW37621   9.715  11.189   7.308 -0.2659 -0.3120  0.0570
10979SOL    HW137622   9.792  11.132   7.305 -0.7147 -0.9060 -0.7315
10979SOL    HW237623   9.732  11.256   7.243 -1.2848 -1.6438 -1.6770
10980SOL     OW37624   5.127   0.950   9.432 -0.0984 -0.4552  0.5118
10980SOL    HW137625   5.116   1.010   9.357 -1.1439 -0.4319  0.6597
10980SOL    HW237626   5.084   0.869   9.404  0.6636 -0.8935  0.5953
10981SOL     OW37627   5.420   4.484   9.381 -0.0104 -0.0555 -0.1336
10981SOL    HW137628   5.464   4.402   9.359 -0.1053  0.0189 -0.6088
10981SOL    HW237629   5.335   4.478   9.338  0.4482  0.8108 -1.2334
10982SOL     OW37630   2.356   7.421   9.579 -0.7909  0.4198  0.2431
10982SOL    HW137631   2.317   7.334   9.582  2.3855 -1.1783 -0.3770
10982SOL    HW237632   2.313   7.470   9.649 -2.1399 -1.8667  1.0996
10983SOL     OW37633   0.122   4.616   8.341  0.6462 -0.2452 -0.0584
10983SOL    HW137634   0.172   4.644   8.265  1.5547 -0.5906  0.4036
10983SOL    HW237635   0.031   4.612   8.310  1.1882 -1.9557 -1.5707
10984SOL     OW37636   5.205   7.161   3.437  0.4414 -0.4018  0.0976
10984SOL    HW137637   5.117   7.125   3.429  0.7547 -1.2303  0.2784
10984SOL    HW237638   5.192   7.255   3.445 -0.3771 -0.4259 -0.7698
10985SOL     OW37639   9.752   3.190   3.760 -0.2919  0.4315 -0.2228
10985SOL    HW137640   9.694   3.215   3.833  0.2605  1.0598  0.0065
10985SOL    HW237641   9.707   3.116   3.719  0.2535 -1.1683  1.8737
10986SOL     OW37642   3.448   3.766  10.382 -0.4523  0.9589  0.4766
10986SOL    HW137643   3.450   3.746  10.475  1.4992  2.2225  0.7632
10986SOL    HW237644   3.370   3.821  10.371 -2.0334 -1.0590  0.8579
10987SOL     OW37645   5.019   5.654   4.006  0.4650 -0.8785 -0.6818
10987SOL    HW137646   4.992   5.655   4.098 -3.8925 -0.2698 -1.7675
10987SOL    HW237647   5.074   5.576   3.998  1.3898 -0.6747  2.4901
10988SOL     OW37648  10.500   6.431  10.837  0.1548  0.1663 -0.0734
10988SOL    HW137649  10.422   6.482  10.855 -0.1417 -0.5602  0.7321
10988SOL    HW237650  10.539   6.474  10.760 -0.3988  1.2241  0.2140
10989SOL     OW37651   7.960   0.990  10.187  0.0446 -0.3580 -0.0476
10989SOL    HW137652   8.051   0.962  10.195  0.2763  0.3696 -0.0839
10989SOL    HW237653   7.918   0.955  10.266 -0.0066 -1.9832 -0.7539
10990SOL     OW37654   0.059   7.402   5.912 -0.1045  0.9408 -0.0328
10990SOL    HW137655   0.056   7.308   5.893 -0.4752  0.3756  2.5013
10990SOL    HW237656   0.024   7.444   5.833 -2.8504 -1.2252 -0.1029
10991SOL     OW37657   7.984  10.910  11.826  0.5158  0.0906  0.3710
10991SOL    HW137658   8.068  10.916  11.782  0.5998  1.0810  0.6463
10991SOL    HW237659   7.932  10.981  11.788 -0.1156 -0.3622  0.3715
10992SOL     OW37660   1.210   2.832  11.892 -0.0362  0.7482  0.1483
10992SOL    HW137661   1.165   2.916  11.904 -1.3784  0.0029  0.4685
10992SOL    HW237662   1.228   2.802  11.981 -3.4597 -1.3076  0.3323
10993SOL     OW37663   7.519   0.861  10.148 -0.3733  0.5899  0.0187
10993SOL    HW137664   7.584   0.881  10.080  0.7302  0.2360  0.9482
10993SOL    HW237665   7.481   0.946  10.170 -1.7718  0.5706 -1.9951
10994SOL     OW37666   6.112   3.470  10.404 -0.0025 -0.0121 -0.7676
10994SOL    HW137667   6.195   3.485  10.450 -0.0639 -0.6007 -0.4513
10994SOL    HW237668   6.088   3.556  10.369  1.1659  0.0043 -1.5922
10995SOL     OW37669  10.213  10.449   5.948  0.3719  0.4243 -0.0041
10995SOL    HW137670  10.252  10.444   5.860  3.1783 -3.2106  1.2008
10995SOL    HW237671  10.277  10.496   6.000  0.3567 -0.3603  0.7525
10996SOL     OW37672   8.811   1.278   9.742  0.5686  0.2118 -0.1469
10996SOL    HW137673   8.813   1.247   9.833  0.8869  1.5575  0.3299
10996SOL    HW237674   8.735   1.235   9.704 -0.9073  1.2817  1.4198
10997SOL     OW37675   4.407   3.763   9.588 -0.1153 -0.2621  0.5062
10997SOL    HW137676   4.333   3.788   9.533  1.3335  2.5576 -0.3797
10997SOL    HW237677   4.403   3.667   9.592 -2.5879 -0.3252 -1.1669
10998SOL     OW37678   3.089   4.456   2.207  0.1382  0.2392 -0.3859
10998SOL    HW137679   3.152   4.516   2.245 -0.9697  2.2862 -1.6179
10998SOL    HW237680   3.134   4.418   2.131  0.6285 -0.0443  0.0423
10999SOL     OW37681   5.259   3.321   7.309 -0.1582  0.3013  0.2350
10999SOL    HW137682   5.189   3.381   7.335 -0.5797 -0.4081  0.7848
10999SOL    HW237683   5.225   3.235   7.332  0.6245 -0.1047 -0.1294
11000SOL     OW37684  11.781  11.645   4.795 -0.5729 -0.3034  0.0224
11000SOL    HW137685  11.716  11.698   4.749  0.1765  1.6609  1.1421
11000SOL    HW237686  11.847  11.707   4.825  0.0165 -1.7586  1.9718
11001SOL     OW37687   1.393   7.845  11.899 -0.3627  0.0551  0.2160
11001SOL    HW137688   1.433   7.883  11.821 -0.4635 -0.0140  0.1311
11001SOL    HW237689   1.423   7.754  11.900 -1.4431 -0.3295 -0.4883
11002SOL     OW37690   2.718  10.063   7.352  0.2442 -0.3741  0.5853
11002SOL    HW137691   2.639  10.015   7.378  0.9968 -1.1500  1.5452
11002SOL    HW237692   2.767  10.001   7.297  0.6138 -0.2428  0.7629
11003SOL     OW37693  10.869   3.077   0.179 -0.0913  0.3300  0.2463
11003SOL    HW137694  10.810   3.055   0.107  1.1565 -1.2563 -0.3532
11003SOL    HW237695  10.840   3.021   0.251  1.2754 -1.2720 -0.3813
11004SOL     OW37696   9.291   9.243   2.981  0.6480 -0.1908 -0.1934
11004SOL    HW137697   9.345   9.165   2.990  1.4531  0.0071 -2.5691
11004SOL    HW237698   9.337   9.296   2.915 -1.3729  0.9214 -0.7841
11005SOL     OW37699   2.492   6.496  11.211  0.5274  0.5126 -0.0932
11005SOL    HW137700   2.572   6.548  11.208  0.2254  1.1222  1.5446
11005SOL    HW237701   2.456   6.511  11.298 -0.3238 -1.3479 -0.0677
11006SOL     OW37702  10.037   3.126   1.832  0.1448 -0.2994  0.1786
11006SOL    HW137703  10.099   3.108   1.761 -0.2707 -0.9891 -0.0170
11006SOL    HW237704  10.065   3.068   1.903 -0.1495 -0.4599  0.1630
11007SOL     OW37705   6.189   0.629   8.810 -0.1269 -0.7260  0.7369
11007SOL    HW137706   6.149   0.543   8.824 -1.3521 -0.2861  0.0832
11007SOL    HW237707   6.191   0.669   8.897  2.4244 -2.1966  1.4408
11008SOL     OW37708   5.414   2.641   9.554 -0.7271  0.1213 -0.0817
11008SOL    HW137709   5.450   2.659   9.641 -0.2014  0.7155 -0.4067
11008SOL    HW237710   5.329   2.685   9.553 -1.5847 -1.4584  0.7639
11009SOL     OW37711   8.768   7.175   4.741 -0.2607 -0.8146  0.5898
11009SOL    HW137712   8.757   7.183   4.646 -2.5054  0.9248  0.8952
11009SOL    HW237713   8.717   7.098   4.765 -1.3544 -0.1349  0.5459
11010SOL     OW37714   3.976   4.062   6.918 -0.3625 -0.4442  0.1452
11010SOL    HW137715   3.986   4.157   6.926  1.8130 -0.5622 -0.5320
11010SOL    HW237716   4.042   4.026   6.978  1.4559 -1.4317 -2.2381
11011SOL     OW37717   7.490   4.007   5.163  0.0776 -0.3368  0.1471
11011SOL    HW137718   7.430   3.981   5.234 -1.5358 -0.4457 -1.1767
11011SOL    HW237719   7.477   3.940   5.096  0.1229  0.7912 -1.0261
11012SOL     OW37720  11.420   5.297   6.623  0.3159  0.1357 -0.2522
11012SOL    HW137721  11.412   5.309   6.529 -2.2136  0.1457 -0.1163
11012SOL    HW237722  11.463   5.377   6.654  1.5485 -0.0496 -1.4008
11013SOL     OW37723   8.162   0.301   6.495 -0.3712 -0.3359 -0.2868
11013SOL    HW137724   8.153   0.393   6.469  1.1763 -0.7724 -2.7643
11013SOL    HW237725   8.255   0.282   6.483 -0.5349 -2.0721  0.8268
11014SOL     OW37726   7.420  10.927   1.521 -0.4587 -0.2275  0.2809
11014SOL    HW137727   7.391  11.007   1.563 -1.9976  0.3482 -1.7462
11014SOL    HW237728   7.499  10.902   1.570  0.4524  2.8421  0.5888
11015SOL     OW37729   9.270   3.709   8.101  0.1309  0.1962  0.4625
11015SOL    HW137730   9.331   3.635   8.100 -0.5989 -0.4289  1.0908
11015SOL    HW237731   9.220   3.697   8.181 -1.8400 -0.1325 -0.7674
11016SOL     OW37732   7.887   1.990   2.285  0.1440  0.1133  0.0660
11016SOL    HW137733   7.888   1.954   2.374  0.3079 -0.7009 -0.2530
11016SOL    HW237734   7.871   2.083   2.297  0.1045  0.0036  0.9479
11017SOL     OW37735  10.552   0.251   8.955  0.6512  0.0132 -0.3279
11017SOL    HW137736  10.527   0.225   8.867 -0.3489 -0.5201  0.0898
11017SOL    HW237737  10.630   0.200   8.975 -0.5576 -1.8054  0.0087
11018SOL     OW37738   8.663  10.486   5.114 -0.0771  0.3150 -0.3002
11018SOL    HW137739   8.577  10.521   5.091 -0.6482 -1.2036 -0.6323
11018SOL    HW237740   8.712  10.486   5.032 -0.4222 -0.5516 -0.5174
11019SOL     OW37741   9.573   4.001   1.759 -0.0275  0.1812  0.4966
11019SOL    HW137742   9.602   4.066   1.823  3.5771  1.3067 -1.9593
11019SOL    HW237743   9.545   4.053   1.683 -0.0289 -1.1063 -0.4141
11020SOL     OW37744   4.614  10.448   4.619  0.1040  0.4019  0.4233
11020SOL    HW137745   4.644  10.516   4.679  1.5079  0.4192 -0.2442
11020SOL    HW237746   4.623  10.488   4.532 -1.0543  0.0723  0.1319
11021SOL     OW37747   1.748  10.790   9.157 -0.8928 -0.1396  0.3640
11021SOL    HW137748   1.674  10.845   9.184 -0.4913  0.5730  0.0515
11021SOL    HW237749   1.810  10.852   9.117  0.2377 -0.5943  1.3600
11022SOL     OW37750  10.052   7.817   8.441 -0.3474  0.0872  0.2694
11022SOL    HW137751  10.017   7.897   8.400 -0.0590  0.6378  1.0717
11022SOL    HW237752  10.135   7.803   8.397 -0.6854 -0.1318 -0.3107
11023SOL     OW37753   7.571   5.165   7.335  0.0360 -0.0313 -0.0359
11023SOL    HW137754   7.543   5.196   7.421 -0.1428 -0.1303 -0.0573
11023SOL    HW237755   7.656   5.206   7.321 -0.3622  0.7525 -0.2188
11024SOL     OW37756   2.851   0.554   3.539  0.3015 -0.0014 -0.0681
11024SOL    HW137757   2.889   0.483   3.590  0.0202 -0.1672 -0.0872
11024SOL    HW237758   2.922   0.584   3.482  0.6772  0.3188  0.5567
11025SOL     OW37759  11.025  11.851   1.629  0.2106  0.1408  0.3420
11025SOL    HW137760  11.097  11.811   1.581 -1.0721 -0.1621 -1.4139
11025SOL    HW237761  11.024  11.806   1.713  0.7837 -1.2882 -0.3940
11026SOL     OW37762  10.147   9.653   3.153 -0.2591  0.0487 -0.1681
11026SOL    HW137763  10.163   9.739   3.193  0.6936 -0.6341  1.0031
11026SOL    HW237764  10.054   9.638   3.166 -0.7629  1.4919 -1.6660
11027SOL     OW37765  10.670  10.345   1.940 -0.2781  0.0537  0.3324
11027SOL    HW137766  10.670  10.381   2.029 -0.0501  1.7184 -0.3156
11027SOL    HW237767  10.753  10.373   1.902 -0.8962  0.4095 -0.8078
11028SOL     OW37768  10.400   1.002   1.674 -0.3509 -0.0486  0.0913
11028SOL    HW137769  10.426   0.914   1.701 -0.4507 -0.1775 -0.2204
11028SOL    HW237770  10.460   1.025   1.603 -0.3117  0.1424  0.1855
11029SOL     OW37771   4.595   3.976   5.846  0.4661 -0.0598 -0.2009
11029SOL    HW137772   4.566   3.922   5.919  1.5812 -0.3571  0.0506
11029SOL    HW237773   4.620   4.059   5.887  2.6304 -0.7677  0.0392
11030SOL     OW37774  11.396   1.625   1.766  0.6856  0.2566  0.1940
11030SOL    HW137775  11.427   1.676   1.840  1.6109 -0.6293  0.4501
11030SOL    HW237776  11.357   1.546   1.805 -2.5230  1.5438 -0.0761
11031SOL     OW37777   1.713  10.320   7.156 -0.3287  0.0003  0.4638
11031SOL    HW137778   1.732  10.226   7.152  0.5660  0.1663  0.5498
11031SOL    HW237779   1.794  10.359   7.189 -0.4524  0.8793 -0.2441
11032SOL     OW37780   0.698   6.492   1.009  0.1522 -0.0226  0.3435
11032SOL    HW137781   0.777   6.502   1.062 -0.1153 -0.4001  0.8289
11032SOL    HW237782   0.692   6.573   0.959  1.5934 -0.5328 -0.7302
11033SOL     OW37783   2.180   3.461   7.740 -0.4996  0.4270  0.1956
11033SOL    HW137784   2.091   3.481   7.710 -1.0965  0.0675  1.6079
11033SOL    HW237785   2.180   3.365   7.751  0.1307  0.4005  0.0041
11034SOL     OW37786   0.612   7.068   6.794 -0.6127  0.5513 -0.1263
11034SOL    HW137787   0.566   7.131   6.850  1.7902  1.7335  0.6665
11034SOL    HW237788   0.613   7.109   6.708 -0.4715  0.8715  0.0220
11035SOL     OW37789   4.767   6.732   1.605  0.4361  0.0765 -0.2773
11035SOL    HW137790   4.820   6.780   1.541 -1.5887  0.1635 -2.0061
11035SOL    HW237791   4.740   6.798   1.668  1.2446  0.2887 -0.1356
11036SOL     OW37792   4.065   0.184   4.467 -0.6924 -0.2427  0.0346
11036SOL    HW137793   3.998   0.121   4.442  0.3865 -0.9925 -1.1532
11036SOL    HW237794   4.103   0.212   4.383  1.2840 -0.7993  0.6866
11037SOL     OW37795   6.099   3.483  10.057  1.1379 -0.4093  0.3769
11037SOL    HW137796   6.052   3.487  10.140  0.5180  0.5360  0.0002
11037SOL    HW237797   6.035   3.512   9.992  1.5157 -1.4498 -0.4775
11038SOL     OW37798  11.817   3.785  10.777 -0.1281  0.2799 -0.2568
11038SOL    HW137799  11.757   3.802  10.850 -1.1204 -0.6989 -0.8159
11038SOL    HW237800  11.839   3.872  10.743  0.1860  0.7343  1.0664
11039SOL     OW37801   9.885   3.015   2.445  0.2173 -0.2893 -0.5162
11039SOL    HW137802   9.861   2.985   2.358  0.5101  0.8583 -1.0049
11039SOL    HW237803   9.896   3.110   2.437  1.0948 -0.2707  0.5649
11040SOL     OW37804   0.455   3.098   2.722 -0.3108 -0.2750 -0.6161
11040SOL    HW137805   0.476   3.006   2.736 -0.6939 -0.2861 -0.0306
11040SOL    HW237806   0.369   3.109   2.764  0.9831  0.9937  1.9228
11041SOL     OW37807   9.012   7.401   9.239  0.3725 -0.6060 -0.6552
11041SOL    HW137808   9.077   7.468   9.218 -0.6210  0.7121  0.3069
11041SOL    HW237809   9.050   7.353   9.313  0.6670 -0.4833 -0.7243
11042SOL     OW37810  11.321   0.574   6.412  0.1627 -0.5216  0.3106
11042SOL    HW137811  11.362   0.502   6.460 -0.7649 -1.3755 -0.1448
11042SOL    HW237812  11.231   0.575   6.443  0.4430  1.2578  1.2150
11043SOL     OW37813  10.857   2.136   0.001  0.4342  0.1527 -0.5165
11043SOL    HW137814  10.904   2.112  -0.078 -0.8428 -0.8725 -0.9932
11043SOL    HW237815  10.886   2.073   0.067  1.7615  1.2220 -0.0383
11044SOL     OW37816   0.454   6.950   0.800  0.2012  0.2829  0.2214
11044SOL    HW137817   0.526   6.920   0.745 -0.6116 -0.3709 -0.5072
11044SOL    HW237818   0.449   6.886   0.872 -0.6587 -0.6001 -0.5960
11045SOL     OW37819   5.028   2.684   8.286 -0.0337  0.0956  0.3000
11045SOL    HW137820   5.103   2.725   8.330 -0.4626  0.3112  0.8334
11045SOL    HW237821   4.952   2.728   8.322 -0.3679  1.0310 -1.4286
11046SOL     OW37822   2.127   0.686   6.255 -0.0450 -0.4910  0.1218
11046SOL    HW137823   2.083   0.709   6.174  2.1946  0.6151 -0.8603
11046SOL    HW237824   2.071   0.722   6.324 -0.3652  1.4494 -1.0929
11047SOL     OW37825  11.976   0.311   4.432 -0.4095 -0.2544 -0.5988
11047SOL    HW137826  11.889   0.329   4.396 -0.1303 -1.3323 -1.8999
11047SOL    HW237827  12.029   0.287   4.356  0.6725 -0.9330  0.3313
11048SOL     OW37828   0.992  11.419   9.864  0.2238 -0.3706  0.4081
11048SOL    HW137829   0.900  11.409   9.886  0.5245 -1.0327  1.4191
11048SOL    HW237830   0.992  11.466   9.780 -1.0385 -1.2009 -0.0694
11049SOL     OW37831   9.275   1.249   3.479  0.0154 -0.1450 -0.0227
11049SOL    HW137832   9.260   1.166   3.433  2.8003 -0.6975 -0.0958
11049SOL    HW237833   9.295   1.223   3.569  0.4921  0.4543  0.0524
11050SOL     OW37834   6.652   0.987   1.395 -0.3455 -0.3022  0.0094
11050SOL    HW137835   6.658   1.009   1.302  0.2659 -0.2890  0.0427
11050SOL    HW237836   6.620   1.067   1.436 -0.7061 -0.3361 -0.1986
11051SOL     OW37837  11.394   3.498   9.951 -0.3722  0.0894 -0.3045
11051SOL    HW137838  11.401   3.508  10.046 -1.2532 -0.8804 -0.1199
11051SOL    HW237839  11.484   3.481   9.922 -0.3944 -1.9790  0.6741
11052SOL     OW37840  11.202   4.432   5.423  0.1896 -0.4615  0.6962
11052SOL    HW137841  11.252   4.351   5.433  1.4974 -0.0317 -1.5337
11052SOL    HW237842  11.116   4.403   5.390  0.5962 -0.9756  0.0539
11053SOL     OW37843   2.215   6.573   1.790  0.1811 -0.1047  0.0608
11053SOL    HW137844   2.276   6.647   1.795  1.0023 -0.7314 -0.4431
11053SOL    HW237845   2.238   6.517   1.863  1.3760 -1.1877 -1.0971
11054SOL     OW37846   2.715   0.010  11.388 -0.1867 -0.3570 -0.3712
11054SOL    HW137847   2.787  -0.048  11.413 -1.4057 -1.2403  1.2790
11054SOL    HW237848   2.735   0.093  11.431  0.6843 -0.0669 -1.3117
11055SOL     OW37849   4.150   5.047   7.453 -0.5738 -0.4378 -0.5162
11055SOL    HW137850   4.062   5.021   7.426 -0.5457 -0.2050 -0.8289
11055SOL    HW237851   4.138   5.084   7.541 -1.4967  3.6132 -2.1385
11056SOL     OW37852   8.859   3.178  10.528 -0.4733 -0.6873 -0.0064
11056SOL    HW137853   8.805   3.159  10.451  0.1192  0.6353 -0.7936
11056SOL    HW237854   8.938   3.125  10.515 -1.1646 -1.9497  0.7054
11057SOL     OW37855   3.627   7.606   8.448 -0.2404  0.5584 -0.5249
11057SOL    HW137856   3.696   7.671   8.429 -0.8021  1.1653 -0.5391
11057SOL    HW237857   3.547   7.648   8.417 -0.8018  0.4106  0.7109
11058SOL     OW37858  11.360   2.712   0.728 -0.5080 -0.1664 -0.3219
11058SOL    HW137859  11.370   2.791   0.781 -0.9828 -0.4509  0.1993
11058SOL    HW237860  11.298   2.736   0.660 -0.1626  0.1000 -0.5410
11059SOL     OW37861  11.597   0.886   6.334 -0.0073 -0.1190  0.3186
11059SOL    HW137862  11.642   0.874   6.251  1.0795  0.9796  0.7235
11059SOL    HW237863  11.505   0.870   6.314  0.1654  0.6209 -1.2188
11060SOL     OW37864  11.553   9.317  11.352  0.9827  0.3784  0.4342
11060SOL    HW137865  11.552   9.395  11.296  0.0797  0.0927  0.0205
11060SOL    HW237866  11.501   9.253  11.303  1.9070 -0.5669  0.6599
11061SOL     OW37867   7.095   6.752  11.625  0.3265 -0.0807 -0.1861
11061SOL    HW137868   7.050   6.729  11.544 -0.7620 -0.2069  0.4283
11061SOL    HW237869   7.092   6.671  11.677  1.2421 -0.0767 -0.1195
11062SOL     OW37870   8.821  11.372  11.113 -0.1439 -0.0535 -0.3367
11062SOL    HW137871   8.834  11.386  11.019 -1.4361 -0.8131 -0.6550
11062SOL    HW237872   8.892  11.421  11.154 -0.0460  1.0131 -1.6772
11063SOL     OW37873   1.824   5.821   0.967  0.7973 -0.3622  0.7453
11063SOL    HW137874   1.770   5.755   1.011  1.2082 -1.6618 -0.6274
11063SOL    HW237875   1.818   5.800   0.874 -0.8163  2.8746 -0.0550
11064SOL     OW37876  10.928   0.055   2.197 -0.2450  0.6488 -0.1489
11064SOL    HW137877  10.978   0.083   2.273 -0.9454  1.5860 -0.0129
11064SOL    HW237878  10.858   0.001   2.233  0.4656 -0.4048 -0.3104
11065SOL     OW37879   5.659   0.173   9.729  0.1086  0.0576  0.4627
11065SOL    HW137880   5.587   0.110   9.726 -1.6037  1.8156  1.9123
11065SOL    HW237881   5.625   0.250   9.684  1.9335  0.2175 -0.7410
11066SOL     OW37882   5.614   0.671   6.378  0.2805 -0.0426  0.1628
11066SOL    HW137883   5.542   0.628   6.423  1.4365 -1.6779  0.5457
11066SOL    HW237884   5.618   0.630   6.292  1.0376 -0.3109  0.3179
11067SOL     OW37885   3.471   5.762   5.734 -0.0053 -0.5556 -0.3744
11067SOL    HW137886   3.420   5.741   5.656 -0.2261 -0.2859 -0.3013
11067SOL    HW237887   3.494   5.677   5.771  0.9155 -0.7189 -1.2601
11068SOL     OW37888   6.518   9.600   3.686  0.2848  0.3031  0.3963
11068SOL    HW137889   6.555   9.688   3.691  1.0644  0.0399 -0.3236
11068SOL    HW237890   6.562   9.551   3.756 -0.3813  0.5565  1.0010
11069SOL     OW37891  10.661   4.303   0.016  0.4285 -0.4443  0.0267
11069SOL    HW137892  10.638   4.396   0.011  1.7498 -0.1618 -1.9742
11069SOL    HW237893  10.596   4.266   0.075 -0.2925  1.6965  0.6788
11070SOL     OW37894  10.108   5.096  10.089 -0.5212 -0.5027  0.0153
11070SOL    HW137895  10.082   5.150  10.164  0.5144 -1.9950  1.5332
11070SOL    HW237896  10.175   5.147  10.045 -0.2113 -0.1393  0.8824
11071SOL     OW37897   9.973  10.826   0.942  0.6907  0.2673 -0.4073
11071SOL    HW137898  10.040  10.890   0.968  2.1480 -0.6007 -1.8690
11071SOL    HW237899  10.011  10.741   0.965 -0.8424 -0.1647  0.6826
11072SOL     OW37900   7.127   6.828   0.731 -0.0344  0.1963  0.4722
11072SOL    HW137901   7.129   6.793   0.820  0.0995  0.5984  0.6327
11072SOL    HW237902   7.210   6.799   0.692 -0.8053 -1.3681 -0.0802
11073SOL     OW37903   7.708   8.031   1.588 -0.7051 -0.1081 -0.2531
11073SOL    HW137904   7.775   8.080   1.636 -0.6864  0.2306 -0.6149
11073SOL    HW237905   7.674   7.968   1.651 -1.6047  1.1926  0.5940
11074SOL     OW37906   7.463   5.118   0.160  0.2152  0.5360 -0.4160
11074SOL    HW137907   7.445   5.114   0.254  0.3657 -2.2686 -0.4079
11074SOL    HW237908   7.555   5.093   0.153  0.6412  2.2470 -1.2467
11075SOL     OW37909   4.538   7.947   3.437 -0.4737  0.4228  0.7657
11075SOL    HW137910   4.622   7.983   3.466  0.4297  1.1148 -2.3096
11075SOL    HW237911   4.535   7.860   3.476  0.8557  1.0243  2.3211
11076SOL     OW37912  11.756   0.445  10.715  0.1575  0.0606  0.0458
11076SOL    HW137913  11.820   0.398  10.770  1.1382  0.6663 -0.5471
11076SOL    HW237914  11.765   0.536  10.742 -0.4593  0.1537 -0.0590
11077SOL     OW37915   6.262  11.968   6.139  0.2308  0.0617  0.1452
11077SOL    HW137916   6.177  12.013   6.144 -0.5868 -0.7171 -3.7052
11077SOL    HW237917   6.325  12.038   6.121  0.0135  0.3341  0.4112
11078SOL     OW37918   9.784   3.313   3.217 -0.1838 -0.0078 -0.8015
11078SOL    HW137919   9.726   3.252   3.262 -2.8505  2.3476 -0.7806
11078SOL    HW237920   9.756   3.310   3.126  0.2310  0.5622 -0.9533
11079SOL     OW37921   2.034   9.170   2.814 -0.0418 -0.2249  0.4827
11079SOL    HW137922   2.085   9.243   2.850 -1.0725  0.7869 -0.0497
11079SOL    HW237923   2.085   9.139   2.739  1.3001 -1.2719  1.7598
11080SOL     OW37924   6.528   2.515   9.176 -0.2063  0.5072 -0.4430
11080SOL    HW137925   6.583   2.440   9.198  0.1572  0.5719 -1.0861
11080SOL    HW237926   6.564   2.546   9.092 -0.3814  1.3675 -0.2057
11081SOL     OW37927   0.113   4.049   7.693  0.0653  0.0756  0.4629
11081SOL    HW137928   0.190   4.097   7.664  0.6535  0.7872  2.9366
11081SOL    HW237929   0.075   4.104   7.761 -2.5516 -0.3491 -0.5315
11082SOL     OW37930   2.791   6.332  11.309 -0.1497  0.1775 -0.0431
11082SOL    HW137931   2.697   6.339  11.328 -0.1990 -1.0995  0.2871
11082SOL    HW237932   2.831   6.315  11.394  0.4545  1.1682 -0.1163
11083SOL     OW37933   2.072   0.827  11.584  0.2943  0.1377 -0.1514
11083SOL    HW137934   2.106   0.752  11.632  0.9449  1.1197  1.0027
11083SOL    HW237935   2.148   0.862  11.537  0.8996  2.0109  1.9994
11084SOL     OW37936   2.920  10.606   1.416  0.0815  0.1371 -0.1449
11084SOL    HW137937   2.855  10.647   1.473  1.2063  1.7477  0.0416
11084SOL    HW237938   2.931  10.668   1.344  0.7000 -0.5812 -0.6849
11085SOL     OW37939   2.111   8.715   6.347 -0.4302 -0.0589 -0.3185
11085SOL    HW137940   2.199   8.710   6.385 -1.0187 -2.1034  0.9222
11085SOL    HW237941   2.124   8.759   6.263  1.2947  2.3962  1.0940
11086SOL     OW37942   8.518   6.386   1.662 -0.1857  0.1587  0.1772
11086SOL    HW137943   8.551   6.476   1.665 -0.2009  0.1734 -0.0639
11086SOL    HW237944   8.427   6.393   1.690  0.2306  0.0034  1.6712
11087SOL     OW37945  10.934   3.476   6.124 -0.1852  0.1143 -0.0307
11087SOL    HW137946  11.007   3.428   6.163  0.7887  0.5863 -1.2136
11087SOL    HW237947  10.920   3.550   6.183 -1.3911 -1.2897  1.5524
11088SOL     OW37948   1.942   9.529   3.890  0.1571  0.5720  0.8421
11088SOL    HW137949   1.846   9.535   3.888  0.1859  0.8663 -0.8113
11088SOL    HW237950   1.972   9.611   3.850  0.9642 -1.4733 -3.2439
11089SOL     OW37951  10.441   4.746  10.235  0.4982 -0.4695  0.6445
11089SOL    HW137952  10.455   4.777  10.324  1.5020 -0.5965  0.5370
11089SOL    HW237953  10.355   4.781  10.211  1.1115  1.3242  0.9229
11090SOL     OW37954   8.330   4.195   2.282 -0.4779 -0.5349  0.4467
11090SOL    HW137955   8.298   4.175   2.370  0.1273 -1.4486  0.4665
11090SOL    HW237956   8.251   4.218   2.233 -0.7480  0.7153  1.3998
11091SOL     OW37957  11.144   2.260   6.847  0.1066  0.2036  0.7516
11091SOL    HW137958  11.151   2.330   6.783 -0.4147  0.6159  1.1421
11091SOL    HW237959  11.222   2.206   6.832 -0.5030 -0.2707 -0.8976
11092SOL     OW37960   4.538   3.990  11.697 -0.5411  0.4586  0.2962
11092SOL    HW137961   4.631   3.995  11.673 -0.5091 -0.5930  0.1442
11092SOL    HW237962   4.529   4.051  11.770  0.5973 -0.4533  1.2547
11093SOL     OW37963  10.336   0.453   3.518  0.1592  0.0979 -0.2030
11093SOL    HW137964  10.363   0.423   3.605  1.2791 -0.3046 -0.6705
11093SOL    HW237965  10.367   0.385   3.458 -3.2930 -1.2377 -0.6950
11094SOL     OW37966   6.681   0.075   1.192 -0.1691  0.3125  0.4977
11094SOL    HW137967   6.654   0.053   1.281  1.6169 -2.3804  0.4951
11094SOL    HW237968   6.602   0.064   1.139 -0.4980 -1.4524  1.2915
11095SOL     OW37969   1.088   9.103   9.650 -0.6979  0.0932 -0.1116
11095SOL    HW137970   1.145   9.055   9.590 -0.8000  1.5022 -1.3762
11095SOL    HW237971   1.018   9.041   9.671 -0.9256 -0.2882 -1.8439
11096SOL     OW37972  11.472   6.243  10.538  0.3581  0.6626  0.1371
11096SOL    HW137973  11.440   6.286  10.617 -1.2518 -1.2824  0.6583
11096SOL    HW237974  11.425   6.286  10.466 -0.0411  0.8168  0.4891
11097SOL     OW37975   0.955   4.592   9.456 -0.6937  0.1430  0.2325
11097SOL    HW137976   0.980   4.511   9.413 -0.4471  0.5310 -0.3654
11097SOL    HW237977   0.860   4.598   9.446 -0.4327  1.3193 -2.2500
11098SOL     OW37978   1.885  10.992   5.091 -0.2173 -0.1713 -0.3899
11098SOL    HW137979   1.797  11.015   5.120  0.5736  0.3661  1.7781
11098SOL    HW237980   1.903  11.051   5.018 -1.7373 -0.4947 -1.0662
11099SOL     OW37981  11.880   2.042   9.954 -0.6763 -0.2646  0.4642
11099SOL    HW137982  11.862   2.031  10.047 -2.7277 -3.1336 -0.1313
11099SOL    HW237983  11.816   2.107   9.925 -0.8226 -0.2243  0.8691
11100SOL     OW37984   7.680  10.682   1.354 -0.0135 -0.2040 -0.9028
11100SOL    HW137985   7.713  10.735   1.282  1.2239  0.8979  0.4136
11100SOL    HW237986   7.705  10.730   1.433 -1.4945 -1.2570  0.2818
11101SOL     OW37987   4.404   8.541   0.807  0.2781  0.6369  0.5521
11101SOL    HW137988   4.359   8.472   0.854  1.8641 -0.2380  0.8502
11101SOL    HW237989   4.493   8.542   0.843  1.2913  0.5514 -1.7030
11102SOL     OW37990   6.853  11.919   8.847 -0.3470  0.4086 -0.1656
11102SOL    HW137991   6.816  11.949   8.764 -0.8848 -0.7196 -0.3606
11102SOL    HW237992   6.884  11.998   8.890 -0.2874  1.0372 -1.3348
11103SOL     OW37993   6.647   3.364   1.252  0.8260  0.1985  0.6946
11103SOL    HW137994   6.568   3.388   1.301 -1.7665 -1.4173 -2.3947
11103SOL    HW237995   6.663   3.439   1.194  0.4878 -0.1873  0.0959
11104SOL     OW37996   7.874   7.928   4.687  0.2296  0.0380 -0.8575
11104SOL    HW137997   7.956   7.947   4.642  0.8624 -0.1818  0.1917
11104SOL    HW237998   7.855   7.837   4.664  0.7937 -0.2198 -0.3018
11105SOL     OW37999  11.531   2.769   9.383  0.7923 -0.3059  0.1942
11105SOL    HW138000  11.565   2.827   9.451  0.5169 -0.6552  0.6348
11105SOL    HW238001  11.436   2.769   9.396  0.4932  1.3912 -1.6003
11106SOL     OW38002   2.982   3.172   4.547 -0.3992 -0.0814  0.3698
11106SOL    HW138003   3.071   3.182   4.578  0.0388  1.3211 -1.1961
11106SOL    HW238004   2.928   3.212   4.614  0.1425 -0.6942  1.1970
11107SOL     OW38005   9.226   0.045   8.712 -0.0150 -0.1051 -0.1997
11107SOL    HW138006   9.132   0.036   8.722 -0.5031  2.2526 -1.8613
11107SOL    HW238007   9.237   0.098   8.633  2.6895  0.2238  0.2921
11108SOL     OW38008   7.365   9.490   1.153 -0.6283 -0.7690 -0.9107
11108SOL    HW138009   7.326   9.559   1.207  0.7538  1.1119 -2.1955
11108SOL    HW238010   7.319   9.496   1.070  0.1513 -0.7281 -1.3498
11109SOL     OW38011  11.112   8.225   4.101 -0.6603 -0.0743 -0.5472
11109SOL    HW138012  11.039   8.165   4.086 -0.9210  0.1296 -0.1204
11109SOL    HW238013  11.075   8.295   4.155  0.1707 -0.7108  0.9243
11110SOL     OW38014   0.832   8.851   3.209  0.1934  0.4218  0.4683
11110SOL    HW138015   0.840   8.919   3.277 -1.3757  1.0924  0.0159
11110SOL    HW238016   0.738   8.833   3.204  0.3911 -0.3371 -0.8295
11111SOL     OW38017   8.654   9.011   3.157  0.3094  0.4186 -0.2486
11111SOL    HW138018   8.592   8.942   3.132 -0.3455  1.0155 -0.2969
11111SOL    HW238019   8.727   8.964   3.197 -0.8820 -0.2076  1.2820
11112SOL     OW38020   9.041   5.548   7.347  0.3137  0.2009 -0.8076
11112SOL    HW138021   9.080   5.504   7.423  0.1543  0.2545 -0.6937
11112SOL    HW238022   9.104   5.534   7.276  0.7104  0.5940 -0.5330
11113SOL     OW38023   8.590  10.928   3.181 -1.0374 -0.8533 -0.2720
11113SOL    HW138024   8.649  10.858   3.155 -2.2075 -1.7732 -0.5655
11113SOL    HW238025   8.526  10.933   3.109 -1.3390  0.0847  0.0469
11114SOL     OW38026   9.281   6.314   2.447  0.1326 -0.0483  0.4899
11114SOL    HW138027   9.311   6.368   2.374 -0.8643  0.1116  0.1737
11114SOL    HW238028   9.186   6.326   2.448 -0.0039 -1.0088  1.0456
11115SOL     OW38029   8.179   1.959   2.485  0.0159 -0.1123 -0.3241
11115SOL    HW138030   8.179   2.043   2.438  1.3115  1.0608  1.6187
11115SOL    HW238031   8.097   1.959   2.534 -0.6311 -0.6479 -1.3735
11116SOL     OW38032   0.735   3.715   7.292  0.5282  0.3751 -0.0224
11116SOL    HW138033   0.763   3.804   7.271  0.5211  0.0394 -1.6226
11116SOL    HW238034   0.665   3.697   7.230  0.6420 -0.7938  0.1654
11117SOL     OW38035   8.532   7.672   9.424  0.4079 -0.4427 -0.1491
11117SOL    HW138036   8.556   7.670   9.517  1.3032 -1.3205 -0.3804
11117SOL    HW238037   8.480   7.592   9.412 -0.8528  0.3532 -0.1249
11118SOL     OW38038   0.099   2.559   6.383 -0.2744  0.1761 -0.1941
11118SOL    HW138039   0.179   2.522   6.422  0.1950 -0.5794 -1.7961
11118SOL    HW238040   0.126   2.644   6.350 -0.8069  1.0584  1.5163
11119SOL     OW38041   9.276  11.375   1.459  0.5080 -0.0821 -0.1386
11119SOL    HW138042   9.271  11.462   1.419  0.0659  0.6711  1.4551
11119SOL    HW238043   9.187  11.341   1.452  0.8400 -0.7494 -1.4220
11120SOL     OW38044  11.429   0.421   0.474  0.0016 -0.0654  0.0405
11120SOL    HW138045  11.507   0.402   0.422  0.8367 -2.3574  1.9327
11120SOL    HW238046  11.358   0.372   0.430  0.0904  0.2670 -0.4763
11121SOL     OW38047   6.333  11.703   6.474 -0.6979 -0.2571 -0.0977
11121SOL    HW138048   6.340  11.707   6.378  0.3320  0.3504 -0.0116
11121SOL    HW238049   6.305  11.791   6.500  1.3309  0.3461  0.2948
11122SOL     OW38050   9.509  10.437   4.939  0.4266  0.1969  0.3024
11122SOL    HW138051   9.585  10.393   4.901  0.7395  0.7845  0.2210
11122SOL    HW238052   9.534  10.530   4.941 -0.3470  0.4193  0.1331
11123SOL     OW38053  11.354   7.175   8.275  0.0363 -0.2762  0.1046
11123SOL    HW138054  11.289   7.229   8.230  0.2303  0.3380  0.5418
11123SOL    HW238055  11.356   7.093   8.226  0.5622  0.5253 -1.2875
11124SOL     OW38056   1.801   5.853  11.879 -0.0887  1.0043  0.4088
11124SOL    HW138057   1.814   5.862  11.785  0.0811  0.5173  0.3864
11124SOL    HW238058   1.713   5.889  11.894  0.2349  1.9266  0.2021
11125SOL     OW38059   4.605   8.626   0.570  0.0042  0.1274  0.4805
11125SOL    HW138060   4.581   8.687   0.499 -0.6277 -0.8874 -0.2013
11125SOL    HW238061   4.552   8.548   0.554 -2.2233  0.7954  3.5859
11126SOL     OW38062   6.375   4.536  10.112  0.9326  0.0337 -0.0137
11126SOL    HW138063   6.411   4.619  10.082  1.0599  0.5423  1.4348
11126SOL    HW238064   6.387   4.538  10.207 -2.0524 -0.1573  0.4770
11127SOL     OW38065   9.377   0.644   0.688  0.0528 -0.2591 -0.1294
11127SOL    HW138066   9.419   0.726   0.714 -2.1448  1.4775 -1.6644
11127SOL    HW238067   9.298   0.640   0.741  0.3142 -1.6149  0.1910
11128SOL     OW38068   8.211   1.309   6.993  0.5327  0.3522  0.2010
11128SOL    HW138069   8.143   1.349   6.939  0.5643  0.5504  0.3072
11128SOL    HW238070   8.246   1.239   6.939 -0.8057 -0.7773  0.7134
11129SOL     OW38071   9.232   7.689  11.975  0.1760 -0.0003  0.3043
11129SOL    HW138072   9.187   7.748  11.914  1.2236 -0.2215 -0.7144
11129SOL    HW238073   9.308   7.658  11.926  0.8938 -0.4090  1.6395
11130SOL     OW38074   1.985   0.797   6.453 -0.2328  0.6037  0.2442
11130SOL    HW138075   1.950   0.881   6.423  0.0483  0.6877  0.1404
11130SOL    HW238076   1.948   0.785   6.540 -1.3724  0.1757 -0.2790
11131SOL     OW38077   6.405   4.983   2.862 -0.2606 -0.4496 -0.4252
11131SOL    HW138078   6.421   4.905   2.915  1.2433 -1.4369 -2.2142
11131SOL    HW238079   6.317   4.972   2.828 -1.5790  0.5897  2.3672
11132SOL     OW38080   2.339   0.516   1.545  0.2698 -0.1176 -0.2091
11132SOL    HW138081   2.394   0.586   1.580  0.7447 -0.5246 -0.1253
11132SOL    HW238082   2.259   0.520   1.597  0.5290 -0.0066  0.1845
11133SOL     OW38083   5.687   4.236   3.003 -0.2908 -0.3332  0.2988
11133SOL    HW138084   5.725   4.213   3.087 -0.4059  0.3612  0.5526
11133SOL    HW238085   5.762   4.259   2.948 -0.3117  1.3412  0.8931
11134SOL     OW38086   7.425   8.284   7.595 -0.3778 -0.6268  0.0133
11134SOL    HW138087   7.463   8.306   7.680  1.2535  0.2654 -0.8974
11134SOL    HW238088   7.350   8.343   7.587 -0.5626 -0.7343  0.8235
11135SOL     OW38089   2.077   4.656   8.678 -0.2376 -0.2751  0.1957
11135SOL    HW138090   2.171   4.674   8.671 -0.2501  0.2919  1.3130
11135SOL    HW238091   2.035   4.727   8.630 -0.1086 -0.4027 -0.1109
11136SOL     OW38092   1.373   1.523   2.534 -0.0477 -0.0672 -0.4420
11136SOL    HW138093   1.390   1.429   2.529  1.1416 -0.0220  1.8197
11136SOL    HW238094   1.459   1.563   2.542 -0.6179  1.0871  0.1488
11137SOL     OW38095   6.033   7.733  11.063  0.0070  0.2063  0.3617
11137SOL    HW138096   5.999   7.785  10.990 -0.6372 -0.1052  0.4320
11137SOL    HW238097   6.007   7.643  11.042 -0.2125  0.1182  0.9937
11138SOL     OW38098   4.403  10.569  11.155  0.1754 -0.0438 -0.2782
11138SOL    HW138099   4.373  10.490  11.110  0.1761  0.0528 -0.4535
11138SOL    HW238100   4.343  10.580  11.228  2.2246 -2.1842  1.9170
11139SOL     OW38101   4.186   7.791  11.592  0.4710 -0.1084  0.3731
11139SOL    HW138102   4.137   7.850  11.650 -1.3126 -0.2631 -0.8984
11139SOL    HW238103   4.157   7.704  11.617 -0.7192 -0.1490 -1.0569
11140SOL     OW38104  10.859   6.904   8.428 -0.2572  0.5120 -0.0568
11140SOL    HW138105  10.911   6.923   8.350 -0.0201  0.0437 -0.0159
11140SOL    HW238106  10.807   6.828   8.405  0.1426  0.0947  0.3851
11141SOL     OW38107   0.513  10.632   6.013  0.5073 -0.3207  0.1746
11141SOL    HW138108   0.457  10.605   5.940  0.3039 -1.9395  0.8901
11141SOL    HW238109   0.537  10.722   5.992 -0.9077 -0.1874 -1.0460
11142SOL     OW38110   9.628   6.872   6.913  0.1745 -0.1190  0.5721
11142SOL    HW138111   9.716   6.901   6.888  0.0259 -1.4182 -1.7146
11142SOL    HW238112   9.640   6.779   6.935 -0.6400 -0.3320  0.1384
11143SOL     OW38113   5.923   4.343   1.147  0.2500  0.1259  0.1395
11143SOL    HW138114   5.895   4.258   1.113  2.0283 -0.2387 -0.5431
11143SOL    HW238115   5.876   4.353   1.230 -1.2999 -0.7127 -0.5967
11144SOL     OW38116   0.378   0.480   6.248 -0.3357 -0.0744  0.5600
11144SOL    HW138117   0.398   0.396   6.290 -1.3617 -0.2076  0.8104
11144SOL    HW238118   0.283   0.487   6.254 -0.3169  0.7893 -0.0809
11145SOL     OW38119   8.327   7.072   8.338 -0.2705 -0.1235 -0.5472
11145SOL    HW138120   8.283   7.002   8.387 -0.7557  0.6237  0.1179
11145SOL    HW238121   8.270   7.148   8.348  0.4482  0.4809 -0.9018
11146SOL     OW38122   1.239   9.708   2.386 -0.0590  0.3187  0.2932
11146SOL    HW138123   1.199   9.645   2.446  0.2537 -0.3915 -0.2319
11146SOL    HW238124   1.332   9.708   2.410 -0.0923  0.7464  0.4330
11147SOL     OW38125   3.980   9.376   2.184  0.1218  0.2068  0.0056
11147SOL    HW138126   4.016   9.390   2.272 -0.6439 -2.4911  0.8489
11147SOL    HW238127   3.921   9.301   2.194 -1.3219  0.9009 -2.4940
11148SOL     OW38128   4.677   6.361   1.188 -0.2085  0.3558 -0.2784
11148SOL    HW138129   4.638   6.287   1.142 -0.1278  0.5156 -0.6053
11148SOL    HW238130   4.736   6.320   1.253  0.6461  0.1370 -1.1703
11149SOL     OW38131   7.439   2.453   4.174 -0.2376 -0.6202  0.1688
11149SOL    HW138132   7.477   2.441   4.087  0.9528  1.8540  0.2576
11149SOL    HW238133   7.387   2.374   4.189  1.5936 -2.2892 -1.6980
11150SOL     OW38134   5.306  10.548   1.884  0.5372  0.1635  0.2070
11150SOL    HW138135   5.329  10.539   1.976 -0.0783  1.1116  0.4684
11150SOL    HW238136   5.366  10.488   1.838  1.1076 -0.0286  1.1732
11151SOL     OW38137   2.087   8.428  10.628  0.6546  0.3616  0.0546
11151SOL    HW138138   2.061   8.353  10.574 -0.1022 -0.7225  1.8256
11151SOL    HW238139   2.011   8.445  10.684  1.6618  0.9361  1.3104
11152SOL     OW38140   4.651   3.658   4.500  0.2933  0.1116  0.1360
11152SOL    HW138141   4.587   3.590   4.521  1.1972 -0.7013  0.3703
11152SOL    HW238142   4.733   3.625   4.537  0.8595  1.0999 -0.2022
11153SOL     OW38143   4.152  11.716   6.654  0.0831  0.6070 -0.4954
11153SOL    HW138144   4.218  11.702   6.586  0.4596 -1.7648  0.2523
11153SOL    HW238145   4.083  11.653   6.633 -0.1865  0.4424  0.7967
11154SOL     OW38146   3.326   9.003   1.144  0.3429  0.2682 -0.1674
11154SOL    HW138147   3.399   8.966   1.095  0.0603 -0.6001  0.0528
11154SOL    HW238148   3.321   8.951   1.224 -0.0351  0.8169  0.1761
11155SOL     OW38149   3.540   3.037   1.796  0.6019 -0.2827  0.6258
11155SOL    HW138150   3.489   2.958   1.777  0.6225  0.1721 -1.6691
11155SOL    HW238151   3.630   3.005   1.809  0.6174 -0.6803 -0.3189
11156SOL     OW38152   6.225  11.984  10.344 -0.5168  0.3253 -0.6647
11156SOL    HW138153   6.179  11.913  10.388 -0.4861  1.2220  0.8881
11156SOL    HW238154   6.163  12.015  10.278 -1.7039  0.7508  0.6147
11157SOL     OW38155  11.805   1.808   5.190 -0.4082 -0.5298 -0.3168
11157SOL    HW138156  11.893   1.788   5.158  0.1168  0.6807  0.2998
11157SOL    HW238157  11.808   1.901   5.210 -2.0002 -0.3651 -0.7781
11158SOL     OW38158   4.260   4.928   7.830  0.1166 -0.6171 -0.4081
11158SOL    HW138159   4.255   4.975   7.913  2.2284 -1.4919  0.2921
11158SOL    HW238160   4.171   4.929   7.796 -0.5055  1.0700  1.1263
11159SOL     OW38161   1.359   8.749   8.247 -0.2148  0.0472 -0.0531
11159SOL    HW138162   1.434   8.794   8.207 -1.0194  1.8234  0.3391
11159SOL    HW238163   1.377   8.752   8.341  1.3047 -3.4516 -0.0953
11160SOL     OW38164   9.209   9.071   3.708 -0.0171  0.0768 -0.2983
11160SOL    HW138165   9.300   9.097   3.695 -0.0109  0.6892  0.8234
11160SOL    HW238166   9.170   9.076   3.620  0.9001  0.2861 -0.7067
11161SOL     OW38167   6.388   4.489  10.420 -0.2548  0.0906 -0.2656
11161SOL    HW138168   6.325   4.433  10.466  0.7367 -1.4476 -0.7433
11161SOL    HW238169   6.464   4.434  10.406  0.4835  1.3478 -1.4055
11162SOL     OW38170   1.122   3.632   0.611 -0.0411 -0.0757 -0.1134
11162SOL    HW138171   1.049   3.638   0.550 -0.0537 -0.5348 -0.1484
11162SOL    HW238172   1.199   3.616   0.556  0.2789  1.5558 -0.1730
11163SOL     OW38173  11.868  11.229  11.913  0.2986 -0.5482  0.6367
11163SOL    HW138174  11.863  11.194  11.824 -0.5728 -1.9777  1.2249
11163SOL    HW238175  11.784  11.208  11.953 -0.4185  2.4617  1.0081
11164SOL     OW38176   9.222   1.254  11.998  0.0320  0.0820 -0.0430
11164SOL    HW138177   9.299   1.198  11.989 -0.2076 -0.1383 -0.6917
11164SOL    HW238178   9.254   1.342  11.976  0.2930  0.1366  0.5202
11165SOL     OW38179   2.913  11.051   0.455 -0.3253 -0.0598  0.8630
11165SOL    HW138180   2.868  10.971   0.479  1.6080 -1.5461 -0.1788
11165SOL    HW238181   2.947  11.035   0.367  0.5107  1.7353  0.7998
11166SOL     OW38182   5.918   0.848   7.769  0.0635 -0.6823 -0.0488
11166SOL    HW138183   5.874   0.828   7.851 -0.7017 -1.7495 -0.6971
11166SOL    HW238184   5.865   0.918   7.729  0.6081  0.0535  0.4814
11167SOL     OW38185  10.808   2.270   1.486 -0.2310  0.6169 -0.5474
11167SOL    HW138186  10.717   2.262   1.459  0.1895  2.5000 -2.8132
11167SOL    HW238187  10.806   2.328   1.562 -0.8536  1.6533 -1.3344
11168SOL     OW38188   6.290   7.674   6.210 -0.3782  0.1249 -0.2205
11168SOL    HW138189   6.329   7.619   6.277  1.9289  2.3362  0.3934
11168SOL    HW238190   6.362   7.698   6.152 -1.8117  0.4026 -2.0158
11169SOL     OW38191   4.182   8.539   0.301 -0.0655 -0.2475  0.1383
11169SOL    HW138192   4.212   8.492   0.223 -0.4600 -2.8427  1.4319
11169SOL    HW238193   4.114   8.482   0.339 -0.6210  1.4291  1.8014
11170SOL     OW38194   2.813   1.936  11.895 -0.0346 -0.1622  0.2844
11170SOL    HW138195   2.743   1.893  11.944 -0.0675 -0.2715  0.1416
11170SOL    HW238196   2.822   1.885  11.815 -0.8914  0.8009 -0.4474
11171SOL     OW38197  11.042   9.773   4.758 -0.7777 -0.1446  0.0810
11171SOL    HW138198  11.017   9.686   4.789  1.8524  0.2459  4.0886
11171SOL    HW238199  11.077   9.759   4.671 -0.1950 -3.1932  0.6928
11172SOL     OW38200   0.561   9.083   3.407  0.5149 -0.0564 -0.1872
11172SOL    HW138201   0.505   9.149   3.447  0.4709  0.5883 -1.2717
11172SOL    HW238202   0.505   9.005   3.402 -0.8948  1.0019 -2.6780
11173SOL     OW38203   5.045   5.524   3.684 -0.5507  0.2407  0.2842
11173SOL    HW138204   5.101   5.598   3.709 -3.0513  1.8370  1.5130
11173SOL    HW238205   4.996   5.555   3.608 -0.3817 -0.8461 -0.2958
11174SOL     OW38206  10.877   0.951   8.732  0.8826 -0.5989 -0.2685
11174SOL    HW138207  10.961   0.957   8.777  0.5297  1.1760  0.2119
11174SOL    HW238208  10.815   0.992   8.792 -0.0954 -0.7139 -1.1794
11175SOL     OW38209  11.029   1.600   7.836  0.6592  0.1552 -0.0067
11175SOL    HW138210  10.994   1.678   7.793  0.2892  0.2403  0.4492
11175SOL    HW238211  11.123   1.604   7.818  0.6819  0.8444  0.2295
11176SOL     OW38212  10.366   1.927  11.956 -0.1895 -0.2410 -0.4596
11176SOL    HW138213  10.323   1.932  12.041  0.6559 -0.0464 -0.0238
11176SOL    HW238214  10.455   1.898  11.976 -0.1290 -0.6922 -1.3329
11177SOL     OW38215   5.952   3.115   6.603  0.3341 -0.0858 -0.0015
11177SOL    HW138216   5.936   3.080   6.690 -0.3674  2.0495  0.7821
11177SOL    HW238217   6.029   3.171   6.614 -0.8570  1.6534 -0.3087
11178SOL     OW38218   9.274   2.523   5.807  0.4824  0.3359 -0.0245
11178SOL    HW138219   9.301   2.498   5.896 -1.1585 -1.3993  0.0610
11178SOL    HW238220   9.264   2.618   5.811  1.6778  0.4487  1.2643
11179SOL     OW38221   8.098   1.112   5.494  0.4367  0.2127  0.0090
11179SOL    HW138222   8.172   1.115   5.554  0.7817  2.0189 -0.4584
11179SOL    HW238223   8.022   1.134   5.549  0.7364  1.7488 -0.1468
11180SOL     OW38224   3.402   1.340   3.916  0.0589 -0.3055  0.3159
11180SOL    HW138225   3.455   1.416   3.892  0.1599 -0.5101 -0.1239
11180SOL    HW238226   3.412   1.332   4.011  1.1728 -0.6067  0.1841
11181SOL     OW38227   6.524   9.141   7.083  0.2353  0.8964  0.3528
11181SOL    HW138228   6.556   9.064   7.036  0.7409  1.9768 -1.1798
11181SOL    HW238229   6.601   9.174   7.130 -0.1247  0.1541  1.4886
11182SOL     OW38230   4.541   3.455   8.892 -0.3548 -0.1685 -1.0538
11182SOL    HW138231   4.452   3.435   8.918  0.0479 -0.0161  0.5434
11182SOL    HW238232   4.558   3.542   8.927  1.6708 -1.6984  2.2974
11183SOL     OW38233   6.478   2.308  10.092  0.0346 -0.1985 -0.1617
11183SOL    HW138234   6.481   2.244  10.020 -2.1884 -0.9367  0.3084
11183SOL    HW238235   6.534   2.271  10.160 -0.9562 -1.5227 -0.0295
11184SOL     OW38236   9.152   3.425   2.007 -0.0615  0.0167 -0.1693
11184SOL    HW138237   9.165   3.501   1.950  1.9788  0.9726  1.4663
11184SOL    HW238238   9.067   3.389   1.979 -0.6449  2.3007 -1.6334
11185SOL     OW38239   3.874   3.934   6.692 -0.3595  0.4733  0.0879
11185SOL    HW138240   3.930   3.958   6.765  1.0542 -0.3428 -0.6927
11185SOL    HW238241   3.895   3.998   6.623  0.4283 -0.4745 -0.5747
11186SOL     OW38242  10.556  11.774   8.482 -0.3682  0.3237  0.5151
11186SOL    HW138243  10.516  11.743   8.401  1.6355  0.4874 -0.6275
11186SOL    HW238244  10.637  11.816   8.453  1.0203 -0.6757  2.6935
11187SOL     OW38245   1.919   1.475   8.418 -0.3312 -0.2910 -0.1092
11187SOL    HW138246   1.909   1.540   8.487 -1.8133 -1.4181  0.7918
11187SOL    HW238247   1.966   1.403   8.460  0.6191 -0.1407 -0.8818
11188SOL     OW38248   7.876   0.786   6.119  0.3924  0.5624 -0.6840
11188SOL    HW138249   7.810   0.821   6.060 -0.9203  0.3200  0.5890
11188SOL    HW238250   7.865   0.691   6.114  1.5367  0.4560 -1.4371
11189SOL     OW38251   2.026   9.022   6.418  0.2155  0.4067  0.3937
11189SOL    HW138252   1.958   8.974   6.372  0.9807 -0.3473  0.0286
11189SOL    HW238253   2.015   8.998   6.510 -0.2094  0.5452  0.3821
11190SOL     OW38254   6.483   6.074   5.787  0.1191 -0.4754 -0.0799
11190SOL    HW138255   6.536   6.109   5.859 -0.7514 -1.6511  1.1878
11190SOL    HW238256   6.443   5.996   5.823 -1.3828 -0.3879 -1.4615
11191SOL     OW38257   7.976   2.487   1.466 -0.0659 -0.1031 -0.0249
11191SOL    HW138258   7.961   2.568   1.514  1.1407 -0.3195  0.7342
11191SOL    HW238259   7.968   2.417   1.531  2.1469 -0.3647  0.0485
11192SOL     OW38260   0.265   9.729   5.236  0.2678 -0.2473  0.0784
11192SOL    HW138261   0.213   9.787   5.291  0.9541  2.4017 -1.8648
11192SOL    HW238262   0.338   9.702   5.291  1.1533  2.6424  0.4692
11193SOL     OW38263   8.480   2.061   7.861  0.0928 -0.1100  0.7298
11193SOL    HW138264   8.545   1.991   7.869  0.6302  0.2571 -0.2009
11193SOL    HW238265   8.523   2.127   7.806 -0.1597  1.2466  2.0963
11194SOL     OW38266  11.362   6.494  10.230 -0.2940 -0.5403 -0.5019
11194SOL    HW138267  11.329   6.427  10.290  0.3389  0.3685  0.9266
11194SOL    HW238268  11.456   6.478  10.226 -0.3284 -0.5664 -1.2339
11195SOL     OW38269   1.511   2.718   7.897  0.4428  0.2432 -0.2078
11195SOL    HW138270   1.469   2.746   7.816 -0.0989  1.8017  0.5736
11195SOL    HW238271   1.477   2.777   7.964  0.0745 -1.6452  1.3727
11196SOL     OW38272   5.799  10.985   1.587 -0.0037 -0.3729  0.0698
11196SOL    HW138273   5.763  11.000   1.500 -0.9067  0.8073  0.6129
11196SOL    HW238274   5.804  11.072   1.626  3.4528 -0.4363  0.0738
11197SOL     OW38275   2.319   0.590   3.284 -0.0099 -0.1754  0.2076
11197SOL    HW138276   2.318   0.644   3.205 -0.2245 -1.5967 -0.8065
11197SOL    HW238277   2.282   0.646   3.352 -2.0405  0.3502 -1.2140
11198SOL     OW38278   3.686  10.805   2.523  0.2332 -0.1617 -0.2502
11198SOL    HW138279   3.686  10.716   2.487  1.2740 -0.3963  0.2762
11198SOL    HW238280   3.609  10.808   2.581 -0.5917 -0.2586 -1.3142
11199SOL     OW38281   5.669   9.586   8.817  0.1673 -0.3959 -0.1998
11199SOL    HW138282   5.591   9.618   8.863  1.6136  0.3053  1.9115
11199SOL    HW238283   5.686   9.652   8.750 -0.3828  0.0570  0.0943
11200SOL     OW38284   3.571  10.998   5.123 -0.0621  0.2679  0.1899
11200SOL    HW138285   3.507  11.026   5.057  1.1163  0.4198 -0.9142
11200SOL    HW238286   3.621  10.928   5.081  0.1634 -0.2143  1.2327
11201SOL     OW38287  11.666  10.091   0.560  0.0856  0.0604  0.3115
11201SOL    HW138288  11.714  10.158   0.511 -1.0393 -0.4952 -1.6592
11201SOL    HW238289  11.574  10.113   0.548 -0.2402 -0.4640  1.6877
11202SOL     OW38290   2.390   3.686   0.839 -0.0685 -0.6679 -0.4035
11202SOL    HW138291   2.413   3.601   0.802  2.5993 -0.5396  0.7777
11202SOL    HW238292   2.445   3.694   0.917  0.1456  2.3694 -0.7790
11203SOL     OW38293   0.835   0.285   4.399 -0.1076 -0.3340  0.3855
11203SOL    HW138294   0.931   0.292   4.402 -0.1137  0.5444 -0.7371
11203SOL    HW238295   0.804   0.345   4.467  0.1323 -0.7058  0.8288
11204SOL     OW38296  11.752  11.305   2.483  0.2316 -0.0293  0.3775
11204SOL    HW138297  11.704  11.323   2.403  0.0775  0.8802  0.6555
11204SOL    HW238298  11.704  11.352   2.551 -0.2236 -1.6125  1.1944
11205SOL     OW38299  10.565   2.874   6.863 -0.0248  0.2139  0.6368
11205SOL    HW138300  10.508   2.950   6.875 -0.0203  0.2560  0.3819
11205SOL    HW238301  10.521   2.821   6.796  0.2875  0.2944  0.3715
11206SOL     OW38302   4.958   1.728   5.874  0.1563  0.3702  0.3679
11206SOL    HW138303   4.968   1.769   5.789 -0.7266 -0.9919 -0.4387
11206SOL    HW238304   5.048   1.715   5.905  0.4634  1.7339  0.0904
11207SOL     OW38305  11.211   2.543   8.936  0.2381 -0.3350 -0.7241
11207SOL    HW138306  11.304   2.523   8.925  0.4834  0.9691 -1.0812
11207SOL    HW238307  11.181   2.566   8.849  0.2162  1.8145 -0.2013
11208SOL     OW38308   0.792   6.353   6.743  0.1012  0.2089 -0.3104
11208SOL    HW138309   0.737   6.284   6.780  1.4494 -0.4917  0.4389
11208SOL    HW238310   0.877   6.312   6.729  0.7404  1.5335 -0.5027
11209SOL     OW38311   1.611   2.867   9.134  0.5595  0.3312 -0.2758
11209SOL    HW138312   1.666   2.802   9.088  0.4501  0.8199 -1.1328
11209SOL    HW238313   1.541   2.816   9.173  1.7775 -0.3521  1.1096
11210SOL     OW38314   4.390   5.911   9.878  0.0202  0.2264 -0.3335
11210SOL    HW138315   4.405   5.876   9.790  0.1090 -0.6059 -0.0053
11210SOL    HW238316   4.334   5.845   9.920  0.0894  0.5497  0.2707
11211SOL     OW38317   3.822   0.191   0.151 -0.4694  0.2032 -0.0203
11211SOL    HW138318   3.837   0.241   0.231  0.0436  0.6529 -0.3946
11211SOL    HW238319   3.729   0.203   0.132 -1.2978 -2.0983  1.9855
11212SOL     OW38320   3.298   5.611   7.616  0.4463  0.2187 -0.3332
11212SOL    HW138321   3.344   5.539   7.661 -1.8766 -0.6694  0.8192
11212SOL    HW238322   3.217   5.571   7.585  0.0723  1.8785 -1.5891
11213SOL     OW38323   7.274   9.780   0.996  0.2778 -0.3452  0.3918
11213SOL    HW138324   7.225   9.861   1.015 -0.3797 -0.6517  0.0467
11213SOL    HW238325   7.365   9.802   1.016 -0.1304 -0.1183  2.1838
11214SOL     OW38326   5.536   6.217  10.055 -0.5436 -0.3360 -0.2634
11214SOL    HW138327   5.573   6.149  10.111 -2.6493 -0.4683  1.0786
11214SOL    HW238328   5.501   6.170   9.979  0.4416 -0.3975 -0.6945
11215SOL     OW38329   2.234   4.565  11.938  0.4847  0.0941  0.0357
11215SOL    HW138330   2.263   4.655  11.952  0.8689  0.0443 -0.4248
11215SOL    HW238331   2.258   4.545  11.847 -2.5741  0.6557 -1.0235
11216SOL     OW38332   9.899   1.829   2.559  0.3880  0.1992 -0.4450
11216SOL    HW138333   9.873   1.867   2.475  0.5184 -2.4794 -1.8133
11216SOL    HW238334   9.984   1.868   2.577  0.7944  0.1655 -2.0654
11217SOL     OW38335  11.735   5.148   8.137  0.1946 -0.1150 -0.4457
11217SOL    HW138336  11.677   5.166   8.211  1.0379 -0.5917  0.3454
11217SOL    HW238337  11.740   5.231   8.090 -1.0736 -0.0491 -0.5054
11218SOL     OW38338   3.420   9.316   8.193  0.0836 -0.2853  0.1816
11218SOL    HW138339   3.405   9.402   8.233  0.6069  0.1564 -0.5506
11218SOL    HW238340   3.334   9.289   8.160  0.4809  1.6010 -2.7670
11219SOL     OW38341   8.198   5.792   3.885  0.0017 -0.2849  0.2362
11219SOL    HW138342   8.282   5.754   3.862 -1.1353 -3.2708  0.6254
11219SOL    HW238343   8.142   5.777   3.809 -0.5820  0.4377  0.5011
11220SOL     OW38344   7.886   7.689   3.873  0.3432 -0.1057  0.1763
11220SOL    HW138345   7.862   7.781   3.885  1.7730  0.4029 -0.5828
11220SOL    HW238346   7.975   7.693   3.836  0.4403 -1.7949  0.1865
11221SOL     OW38347   2.984   0.187   1.425  0.8363  0.3619  0.5274
11221SOL    HW138348   2.918   0.255   1.408 -0.8858 -1.3313  0.0073
11221SOL    HW238349   2.968   0.160   1.515  1.4205  0.5357  0.6865
11222SOL     OW38350   4.132   3.000   8.557  0.3180 -0.4893 -0.0728
11222SOL    HW138351   4.210   2.948   8.579  2.3795  1.8635 -1.3148
11222SOL    HW238352   4.127   3.066   8.625 -0.3563 -0.3676 -0.2369
11223SOL     OW38353   4.418   1.208   8.115  0.4361  0.2410 -0.0473
11223SOL    HW138354   4.364   1.129   8.114  2.0287 -1.0588  2.8569
11223SOL    HW238355   4.508   1.175   8.117  1.3246  2.2740 -2.1312
11224SOL     OW38356   2.456  10.682   8.962 -0.3936  0.4823  0.3863
11224SOL    HW138357   2.460  10.724   8.876  0.6101 -0.0702  0.1455
11224SOL    HW238358   2.369  10.641   8.965  0.0479 -0.6415 -0.9467
11225SOL     OW38359   6.320   4.627   1.727 -0.0068  0.0288 -0.2797
11225SOL    HW138360   6.315   4.700   1.788 -0.6556 -1.4341  1.5242
11225SOL    HW238361   6.400   4.643   1.676  0.5977  1.2836  1.0041
11226SOL     OW38362   9.826  10.483   4.301 -0.1136  0.2410  0.2939
11226SOL    HW138363   9.782  10.464   4.383 -0.0415 -2.4213 -0.1962
11226SOL    HW238364   9.846  10.576   4.305  0.8905  0.0067  3.7981
11227SOL     OW38365   7.633  11.690   6.983  0.0265  0.2284  0.3397
11227SOL    HW138366   7.566  11.670   7.048  0.0411 -0.4937  0.1459
11227SOL    HW238367   7.587  11.684   6.899  0.5905 -1.5560  0.1161
11228SOL     OW38368   2.456   4.524   0.590 -0.5082 -0.1871 -0.5845
11228SOL    HW138369   2.532   4.547   0.644 -0.6733 -1.7542  0.3759
11228SOL    HW238370   2.385   4.579   0.624 -0.0794  0.4679 -0.7298
11229SOL     OW38371   8.677   4.451   4.810 -0.1562  0.0931 -0.3726
11229SOL    HW138372   8.765   4.424   4.835  0.0609 -0.1161 -1.3396
11229SOL    HW238373   8.663   4.412   4.724 -0.5887  1.4329 -0.9362
11230SOL     OW38374   9.031   5.847   3.805  0.2439 -0.3392 -0.1116
11230SOL    HW138375   9.046   5.827   3.713  0.6613  0.6123 -0.2647
11230SOL    HW238376   8.982   5.772   3.839  0.9493 -1.1619 -0.8602
11231SOL     OW38377   6.831   6.964   1.666 -0.1402 -0.1386  0.1811
11231SOL    HW138378   6.743   6.956   1.629 -0.8900 -0.3321  1.8819
11231SOL    HW238379   6.848   7.058   1.667 -0.7952 -0.0166  0.8103
11232SOL     OW38380   0.853   3.140   5.599 -0.0978 -0.0007 -0.1860
11232SOL    HW138381   0.889   3.228   5.591 -0.7805  0.2412 -0.5932
11232SOL    HW238382   0.907   3.086   5.541  0.6845  0.0272  0.4927
11233SOL     OW38383   5.015   5.174   7.606  0.0126 -0.0047  0.3751
11233SOL    HW138384   5.101   5.133   7.598 -1.2995 -2.9946  0.3305
11233SOL    HW238385   5.004   5.221   7.524  1.9048  1.1790  0.7311
11234SOL     OW38386   3.373  11.763   9.087 -0.0478 -0.0830  0.1240
11234SOL    HW138387   3.410  11.845   9.119 -0.2650  0.6274 -1.3788
11234SOL    HW238388   3.309  11.789   9.020  1.1159 -1.5011 -1.6403
11235SOL     OW38389   2.327   7.290   2.142  1.4210  0.0244  0.4799
11235SOL    HW138390   2.410   7.282   2.188  1.0744  0.7139  1.2550
11235SOL    HW238391   2.350   7.324   2.055  1.8890  0.9807  0.9642
11236SOL     OW38392   1.486   7.441   4.167 -0.0570  0.6892 -0.5194
11236SOL    HW138393   1.439   7.396   4.237 -2.2946  2.1122 -1.0157
11236SOL    HW238394   1.568   7.393   4.159 -0.6657 -0.8462  1.5860
11237SOL     OW38395   6.885   8.869   9.712  0.1621 -0.2588 -0.3765
11237SOL    HW138396   6.859   8.879   9.620  1.5602 -0.8013 -0.8577
11237SOL    HW238397   6.806   8.836   9.755 -0.7069  0.6159 -1.2455
11238SOL     OW38398   4.822  11.239   9.132 -0.2552  0.1784  0.5318
11238SOL    HW138399   4.765  11.171   9.096  1.2232 -1.2560  0.8299
11238SOL    HW238400   4.790  11.252   9.221  0.8885 -1.8359  1.2768
11239SOL     OW38401  10.692  10.627   8.016  0.4739 -0.0461 -0.2857
11239SOL    HW138402  10.730  10.675   8.090  1.0028 -1.9314  0.7348
11239SOL    HW238403  10.737  10.662   7.939  0.4971  1.3974  0.3484
11240SOL     OW38404   9.491   3.124   2.400 -0.6918  0.3898  0.0883
11240SOL    HW138405   9.553   3.083   2.340 -2.8513 -2.3868 -0.4733
11240SOL    HW238406   9.468   3.207   2.358  0.2190 -0.0422 -1.3298
11241SOL     OW38407  10.056   1.595   9.949 -0.1586  0.2480  0.1299
11241SOL    HW138408   9.985   1.654   9.976 -0.0069  1.0683 -1.1898
11241SOL    HW238409  10.071   1.616   9.857  1.0151 -0.7349  0.0734
11242SOL     OW38410   5.007   6.596   7.929  0.2358  0.0376  0.1624
11242SOL    HW138411   4.990   6.690   7.916 -0.1787 -0.1514 -0.7946
11242SOL    HW238412   5.071   6.574   7.861 -2.3228 -1.0971 -2.0929
11243SOL     OW38413   0.685  10.201   9.124  0.1135 -0.4514  0.4523
11243SOL    HW138414   0.637  10.209   9.041  0.2759 -1.3763  0.2607
11243SOL    HW238415   0.760  10.260   9.114  0.4854 -1.0342 -0.3282
11244SOL     OW38416  11.570   2.566   7.694 -0.5445 -0.2386  0.1272
11244SOL    HW138417  11.531   2.647   7.661 -2.0228 -1.6057 -1.6438
11244SOL    HW238418  11.575   2.509   7.618 -1.4736 -2.5688  1.7089
11245SOL     OW38419   1.114   3.510   2.262 -0.0758  0.3009  0.1703
11245SOL    HW138420   1.116   3.433   2.319 -0.6393 -0.2857 -0.5778
11245SOL    HW238421   1.198   3.553   2.277  0.1742 -0.3628  0.7379
11246SOL     OW38422   1.065   9.536   1.899 -0.3113  0.8583  0.1721
11246SOL    HW138423   0.980   9.581   1.897 -1.1216 -0.6431 -1.0539
11246SOL    HW238424   1.096   9.548   1.989 -2.8909 -0.4891  1.3439
11247SOL     OW38425   5.519   3.352   7.407  0.1266 -0.3526  0.3500
11247SOL    HW138426   5.442   3.295   7.412  1.0624 -1.6810  0.0107
11247SOL    HW238427   5.483   3.441   7.408 -1.3277 -0.9143  1.6701
11248SOL     OW38428  10.347   5.625   1.291  0.1454 -0.0182 -0.2101
11248SOL    HW138429  10.280   5.560   1.272  0.2540 -0.3338  0.4407
11248SOL    HW238430  10.307   5.708   1.267 -0.2850 -0.2560 -0.3265
11249SOL     OW38431   6.140   9.935  10.106  0.0515 -0.5301 -1.0578
11249SOL    HW138432   6.152   9.895  10.020 -4.4513 -0.9790 -1.7509
11249SOL    HW238433   6.126   9.861  10.165 -1.3626 -0.1979 -0.9343
11250SOL     OW38434   7.310   2.549   4.647 -0.0125 -0.1950 -0.1220
11250SOL    HW138435   7.227   2.510   4.619  0.1792 -0.0492 -0.9267
11250SOL    HW238436   7.368   2.536   4.573  1.1372 -1.6035  0.9809
11251SOL     OW38437   2.766   3.335   7.393 -0.1549  0.2066  0.4331
11251SOL    HW138438   2.724   3.252   7.372  0.3425 -0.0416  0.4068
11251SOL    HW238439   2.732   3.358   7.480  0.9094 -0.8275  1.1455
11252SOL     OW38440   6.752   9.717  11.370 -0.3055  0.4745 -0.4576
11252SOL    HW138441   6.802   9.663  11.309 -1.4447 -0.3663 -0.6737
11252SOL    HW238442   6.717   9.788  11.316 -0.1305  0.5372 -0.4899
11253SOL     OW38443  10.272  11.777   8.720  0.8323 -0.0608  0.2624
11253SOL    HW138444  10.228  11.803   8.801  0.2366 -0.1493 -0.0322
11253SOL    HW238445  10.261  11.682   8.716 -1.2423  0.1687 -1.1150
11254SOL     OW38446   8.791   8.885   4.142 -0.1197  0.6055  0.4135
11254SOL    HW138447   8.710   8.871   4.092 -1.1886 -2.0161  2.6451
11254SOL    HW238448   8.850   8.817   4.111  0.6964  1.4846 -0.0300
11255SOL     OW38449   8.993   2.941   8.691 -0.6194  0.5652  0.3249
11255SOL    HW138450   9.068   2.998   8.671 -1.4967  1.4092 -0.7346
11255SOL    HW238451   9.013   2.859   8.646  0.7048 -0.0521  1.9435
11256SOL     OW38452   9.823   2.829   9.817  0.4797 -0.4468 -0.3536
11256SOL    HW138453   9.890   2.827   9.886  0.8438 -0.5966 -0.7050
11256SOL    HW238454   9.750   2.778   9.852  0.1642  0.5029  0.4141
11257SOL     OW38455   3.250   4.019   5.479  0.2320 -0.3718  0.0800
11257SOL    HW138456   3.194   3.945   5.501  0.4746 -0.7495 -0.5468
11257SOL    HW238457   3.332   4.003   5.526 -0.6541  0.9297  2.1966
11258SOL     OW38458  10.660   2.037   5.288  0.3615 -0.0999  0.2749
11258SOL    HW138459  10.693   1.970   5.228  0.4260 -0.6703  0.9300
11258SOL    HW238460  10.641   1.989   5.369 -3.6059 -0.1871 -0.4769
11259SOL     OW38461   7.613  10.053   2.053  0.6452 -0.1385 -0.2476
11259SOL    HW138462   7.691  10.090   2.095  0.8162 -0.4070 -0.3212
11259SOL    HW238463   7.648  10.004   1.979  0.2836  1.0484 -1.2360
11260SOL     OW38464  11.568  11.576   5.915 -0.1710  0.7245  0.1901
11260SOL    HW138465  11.649  11.624   5.932  0.1475 -0.2574  1.6068
11260SOL    HW238466  11.534  11.555   6.002 -0.5016 -1.2718 -0.3769
11261SOL     OW38467   6.355   4.751   8.221 -0.1302  0.4293 -0.8165
11261SOL    HW138468   6.319   4.820   8.166 -0.4507 -2.1099 -4.0949
11261SOL    HW238469   6.434   4.723   8.175  0.7254 -0.5556  1.1338
11262SOL     OW38470  11.150   4.136   2.224 -0.1874 -0.1369 -0.4353
11262SOL    HW138471  11.186   4.223   2.240 -3.8668  1.4814  0.1946
11262SOL    HW238472  11.101   4.115   2.303 -1.3676 -1.6636 -1.5031
11263SOL     OW38473   6.231  11.986  11.335  0.8610 -0.1498 -0.4487
11263SOL    HW138474   6.324  11.963  11.334  0.7265 -0.7284  0.0097
11263SOL    HW238475   6.229  12.081  11.351  1.3496 -0.2836  0.4636
11264SOL     OW38476   5.096   5.811   0.819  0.0136  0.0605 -0.3118
11264SOL    HW138477   5.103   5.790   0.912  0.0945  0.1014 -0.3084
11264SOL    HW238478   5.086   5.726   0.775  1.5481 -0.0896 -0.4093
11265SOL     OW38479  11.776   0.805   5.594 -0.3673  0.0880  0.1675
11265SOL    HW138480  11.798   0.860   5.518 -0.2682 -0.8725 -0.5121
11265SOL    HW238481  11.838   0.733   5.590 -0.5829 -0.1453  0.9820
11266SOL     OW38482   7.195   8.479   0.750  0.1914  0.3819  0.8720
11266SOL    HW138483   7.156   8.392   0.744 -0.3247  0.6460  0.2194
11266SOL    HW238484   7.121   8.539   0.739  0.8184  0.8947 -0.8027
11267SOL     OW38485   8.418   1.252  11.786  0.3660  0.1715 -0.7018
11267SOL    HW138486   8.474   1.196  11.840  1.4776  0.3218 -1.6669
11267SOL    HW238487   8.358   1.293  11.849  0.9194 -0.4727  0.2797
11268SOL     OW38488   4.872  10.045   6.747 -0.1434 -0.7329  0.3610
11268SOL    HW138489   4.833   9.998   6.821  0.1120 -0.9872  0.3375
11268SOL    HW238490   4.835  10.133   6.752 -0.7207 -0.9663  0.3411
11269SOL     OW38491   3.244   2.836  10.461  0.1458  0.1128 -0.1238
11269SOL    HW138492   3.168   2.837  10.519  0.1391 -0.8979 -0.0866
11269SOL    HW238493   3.318   2.816  10.519  0.4990  1.4018 -0.1066
11270SOL     OW38494   5.250   7.792  11.093  0.4494  0.5096 -0.2212
11270SOL    HW138495   5.273   7.880  11.124  0.2783  1.0063 -1.4391
11270SOL    HW238496   5.310   7.776  11.020  1.0473 -0.7516  0.5109
11271SOL     OW38497   2.074   9.676   8.825 -0.4721 -1.1787 -0.4556
11271SOL    HW138498   2.125   9.721   8.758  0.9297 -0.0436  1.3015
11271SOL    HW238499   2.019   9.745   8.863 -0.1823 -1.4889  0.5423
11272SOL     OW38500   5.890   3.032   7.114  0.3511 -0.3260 -0.0012
11272SOL    HW138501   5.819   3.097   7.113 -0.0645 -0.7713 -1.1827
11272SOL    HW238502   5.860   2.965   7.176 -0.4320 -0.6700 -0.7299
11273SOL     OW38503  11.631   8.893   1.137  0.0124  0.0801  0.0015
11273SOL    HW138504  11.655   8.957   1.204  2.0724 -0.2454 -0.3537
11273SOL    HW238505  11.710   8.882   1.085 -1.2767 -0.3179 -1.9849
11274SOL     OW38506   1.981   1.299   5.084  0.2232 -0.1698  0.4310
11274SOL    HW138507   2.041   1.225   5.082 -0.8438 -1.0453  0.0084
11274SOL    HW238508   1.919   1.283   5.013 -0.3707  0.8272  0.6962
11275SOL     OW38509  10.170   9.806   6.940  0.1957 -0.1927 -0.1625
11275SOL    HW138510  10.093   9.802   6.883 -1.8324  0.5565  2.3127
11275SOL    HW238511  10.230   9.740   6.905 -2.1263 -1.7421 -1.4532
11276SOL     OW38512   9.140  10.596   1.511 -0.3628  0.6336  0.1402
11276SOL    HW138513   9.197  10.534   1.465 -2.3519 -2.4071  1.4986
11276SOL    HW238514   9.193  10.675   1.519  2.1879 -0.6856 -2.0797
11277SOL     OW38515   0.360   8.493   7.467 -0.7802  0.7275 -0.4819
11277SOL    HW138516   0.408   8.575   7.478  0.5347  0.2511 -2.2081
11277SOL    HW238517   0.296   8.512   7.398  1.2564 -0.2784 -2.8216
11278SOL     OW38518   8.767   2.716   7.743  0.4008 -1.0090 -0.4759
11278SOL    HW138519   8.741   2.653   7.810 -2.2012 -2.0964 -2.3547
11278SOL    HW238520   8.717   2.795   7.764  1.1413 -0.6551 -0.0091
11279SOL     OW38521  11.031   9.798   0.554  0.5247 -0.8961  0.0032
11279SOL    HW138522  11.098   9.823   0.491  1.0235 -0.1760  0.8025
11279SOL    HW238523  10.949   9.831   0.515  0.7140 -1.1358 -0.6187
11280SOL     OW38524   6.658   5.341   9.824  0.0130 -0.4467 -0.1791
11280SOL    HW138525   6.735   5.332   9.881  2.4212 -0.0680 -3.1548
11280SOL    HW238526   6.628   5.252   9.811  1.9576 -0.9887 -1.4324
11281SOL     OW38527   8.240   1.444   7.249  0.5986 -0.9660  0.1240
11281SOL    HW138528   8.185   1.427   7.173  1.5063 -0.3959 -0.6780
11281SOL    HW238529   8.179   1.441   7.323 -0.6420  0.2655 -0.7841
11282SOL     OW38530   2.992   6.685   5.226 -0.3637 -0.0545  0.3774
11282SOL    HW138531   3.013   6.692   5.133  1.9162 -0.7486  0.7742
11282SOL    HW238532   2.935   6.760   5.243 -0.7002  0.1836 -1.5200
11283SOL     OW38533   5.195   8.967   5.523 -0.3473 -0.2883 -0.1710
11283SOL    HW138534   5.111   8.945   5.563 -0.9446  0.2309 -1.1073
11283SOL    HW238535   5.201   9.063   5.531 -1.7664  0.2275 -3.6634
11284SOL     OW38536   3.736   2.046   5.587  0.0002  0.0135  0.9197
11284SOL    HW138537   3.780   1.983   5.645 -1.4218  0.4331  2.5649
11284SOL    HW238538   3.792   2.052   5.510  0.9297 -2.1537  1.3528
11285SOL     OW38539   8.909   8.669   6.981 -0.2288 -0.6511  0.2204
11285SOL    HW138540   8.911   8.614   7.059  0.1109  0.1584  0.7994
11285SOL    HW238541   8.826   8.718   6.988  0.1774  0.0121  0.5036
11286SOL     OW38542  10.348   0.826   5.424 -0.0715 -0.1211 -0.3242
11286SOL    HW138543  10.312   0.824   5.336 -0.9862  0.2746  0.0322
11286SOL    HW238544  10.376   0.917   5.436 -1.1997  0.1666  0.2724
11287SOL     OW38545  10.711  10.530   1.422  0.4922 -0.1261  0.0745
11287SOL    HW138546  10.707  10.626   1.421  0.2853 -0.1221  0.8712
11287SOL    HW238547  10.701  10.506   1.330 -0.5024  0.5867 -0.0325
11288SOL     OW38548  10.127   8.963   3.292  0.2890 -0.6277  0.2835
11288SOL    HW138549  10.216   8.934   3.315 -0.1845 -1.6628  0.8939
11288SOL    HW238550  10.111   8.924   3.206  0.1387 -1.1166  0.5274
11289SOL     OW38551  11.118  11.301   7.291  0.1264  0.1381 -0.4904
11289SOL    HW138552  11.151  11.356   7.362 -1.6425  0.8114 -0.1349
11289SOL    HW238553  11.158  11.336   7.212 -0.5664  1.6429 -0.2082
11290SOL     OW38554   9.629   9.956   8.350  0.1760 -0.7767 -0.0962
11290SOL    HW138555   9.593  10.021   8.290 -1.4292 -1.6647 -0.1817
11290SOL    HW238556   9.652  10.005   8.429 -0.8345 -0.0636 -0.2222
11291SOL     OW38557   2.255   9.962   6.017  0.2588  0.1502  0.4661
11291SOL    HW138558   2.212   9.876   6.023  0.0606  0.1519 -0.7428
11291SOL    HW238559   2.243  10.000   6.104 -0.3590 -0.7159  0.7823
11292SOL     OW38560   7.691   1.644   1.263 -0.3048 -0.1653 -0.5649
11292SOL    HW138561   7.780   1.640   1.229 -0.4750 -0.0879 -1.0149
11292SOL    HW238562   7.700   1.687   1.349  0.2316 -1.1350 -0.1217
11293SOL     OW38563   0.540   1.362   8.374 -0.0963 -0.0227 -0.4429
11293SOL    HW138564   0.465   1.376   8.432 -0.2146 -1.0588 -0.3240
11293SOL    HW238565   0.502   1.350   8.287 -0.1076 -0.9912 -0.3093
11294SOL     OW38566   1.624   8.420   0.543 -0.9118  0.4623  0.2076
11294SOL    HW138567   1.665   8.506   0.545 -0.2449  0.1630  2.7317
11294SOL    HW238568   1.583   8.410   0.629 -4.1402 -0.3299 -1.2505
11295SOL     OW38569   3.716   1.258   0.592 -0.1250 -0.0613 -0.5374
11295SOL    HW138570   3.739   1.243   0.501  1.0186 -0.7850 -0.1541
11295SOL    HW238571   3.733   1.351   0.607  0.1488 -0.0479 -0.9370
11296SOL     OW38572   0.407   4.076   3.321  0.6728  0.1950  0.0844
11296SOL    HW138573   0.320   4.107   3.295 -0.0230 -2.0209 -0.4432
11296SOL    HW238574   0.447   4.046   3.240  1.4323  0.0196  0.5139
11297SOL     OW38575   3.298   4.673   5.741  0.4988 -0.3324 -0.3663
11297SOL    HW138576   3.317   4.582   5.764 -1.5885 -0.7361 -0.1107
11297SOL    HW238577   3.362   4.694   5.673  0.4026 -2.3075 -1.1390
11298SOL     OW38578   3.175   7.787  11.591 -0.5880  0.1529 -0.1707
11298SOL    HW138579   3.232   7.710  11.584 -0.9991 -0.0274 -2.7261
11298SOL    HW238580   3.103   7.759  11.647 -0.3131 -1.0454 -0.3962
11299SOL     OW38581  11.973   7.598   0.049  0.2409  0.0041 -0.6805
11299SOL    HW138582  12.022   7.596  -0.033  0.5834  0.0914 -0.4802
11299SOL    HW238583  11.885   7.569   0.026  0.2042  0.4904 -1.1694
11300SOL     OW38584   8.773   8.044   1.180 -0.2970  0.0941  0.0784
11300SOL    HW138585   8.788   7.966   1.233  0.8410 -1.3285 -2.1898
11300SOL    HW238586   8.860   8.080   1.166 -0.3451 -0.5409 -2.1601
11301SOL     OW38587   9.494   7.310   1.078  0.0146 -0.0126  0.6136
11301SOL    HW138588   9.572   7.326   1.025 -0.9130  1.9500 -0.2734
11301SOL    HW238589   9.437   7.258   1.022  0.6020 -1.3538  1.2217
11302SOL     OW38590   9.060  10.985  10.875  0.0902 -0.2411 -0.2965
11302SOL    HW138591   9.091  11.058  10.821  0.5331 -0.8135 -0.8323
11302SOL    HW238592   8.993  11.023  10.931  1.9879  1.1502  1.1709
11303SOL     OW38593   5.869   9.015   5.394  0.2591  0.3553  0.4532
11303SOL    HW138594   5.853   9.097   5.348 -0.8146  0.1739  0.4757
11303SOL    HW238595   5.801   8.956   5.362  1.6963 -0.9114 -0.4341
11304SOL     OW38596   6.103   0.969   4.616  0.2235 -0.1193 -0.0491
11304SOL    HW138597   6.040   1.016   4.671  0.6296  0.2500  0.1099
11304SOL    HW238598   6.063   0.966   4.530 -1.0515 -1.9031  0.5525
11305SOL     OW38599  10.513   4.334   5.801  0.2761 -0.2669  0.4083
11305SOL    HW138600  10.574   4.405   5.821 -0.2312  0.4560 -0.5163
11305SOL    HW238601  10.426   4.375   5.804  0.0658 -0.4617 -1.6188
11306SOL     OW38602   5.426   1.407   6.579  0.0088 -0.4469 -0.2566
11306SOL    HW138603   5.484   1.461   6.524  2.4533 -1.1530  1.4746
11306SOL    HW238604   5.366   1.367   6.516  1.0585  0.7182 -2.1344
11307SOL     OW38605   8.153   5.668   2.766 -0.0565 -0.3381  0.5438
11307SOL    HW138606   8.171   5.737   2.701 -1.6290  0.2410  0.6894
11307SOL    HW238607   8.232   5.666   2.821  0.1498  1.1300  0.3427
11308SOL     OW38608   3.900   5.345   3.587  0.3819 -0.0054 -0.6676
11308SOL    HW138609   3.920   5.359   3.494  0.9458  0.4424 -0.4819
11308SOL    HW238610   3.806   5.360   3.593  0.4684  0.7295 -1.0279
11309SOL     OW38611   7.367  11.745   5.067  0.2358 -0.3882 -0.7264
11309SOL    HW138612   7.282  11.788   5.070  0.5173  0.1092  0.8637
11309SOL    HW238613   7.347  11.652   5.081  0.0468 -0.1120  0.9667
11310SOL     OW38614  10.935   2.949   8.922  0.0320 -0.2348 -1.3192
11310SOL    HW138615  10.912   2.984   9.008  2.5434 -0.0624 -0.6339
11310SOL    HW238616  10.877   2.874   8.910 -1.7651  0.9221 -0.4364
11311SOL     OW38617   2.702   2.565   6.919  0.1993 -0.0547 -0.4147
11311SOL    HW138618   2.763   2.494   6.935 -1.5982 -1.3839  0.8538
11311SOL    HW238619   2.686   2.562   6.824  0.8191 -0.7400 -0.5079
11312SOL     OW38620   7.912   0.840   1.908  0.1644  0.5042  0.2233
11312SOL    HW138621   7.975   0.908   1.934  1.2828  0.1325 -1.3718
11312SOL    HW238622   7.858   0.882   1.841 -1.1097  0.7151  1.3482
11313SOL     OW38623  10.835   1.042  10.218  0.0855  0.4177  0.2702
11313SOL    HW138624  10.777   1.109  10.181 -0.1929 -0.4797 -0.9563
11313SOL    HW238625  10.856   1.076  10.305 -1.2460  1.3956  0.2577
11314SOL     OW38626   6.489   8.801   2.734 -0.1411  0.5499 -0.4628
11314SOL    HW138627   6.452   8.885   2.760 -0.3773  0.2886  0.0590
11314SOL    HW238628   6.529   8.817   2.649  1.0620  1.5629  0.2494
11315SOL     OW38629   5.715   7.349   0.472 -0.1409  0.1667 -0.2014
11315SOL    HW138630   5.698   7.428   0.524 -0.4866  0.0441 -0.1188
11315SOL    HW238631   5.732   7.381   0.384  0.5548  0.3843  0.0093
11316SOL     OW38632  11.196   9.897   5.630  0.1344 -0.2785 -0.8529
11316SOL    HW138633  11.205   9.861   5.718  1.4141  0.8720 -0.4795
11316SOL    HW238634  11.130   9.841   5.588 -0.8335 -0.5868  0.9516
11317SOL     OW38635   1.399   0.599   5.596  0.1945  0.1290 -0.2237
11317SOL    HW138636   1.438   0.642   5.672  2.4911  0.7918 -1.6790
11317SOL    HW238637   1.306   0.622   5.600  0.7748  2.6471  0.7841
11318SOL     OW38638   4.957   4.832  10.961 -0.0030 -0.1405  0.5235
11318SOL    HW138639   4.870   4.800  10.933 -0.8970  1.5650  1.2293
11318SOL    HW238640   4.956   4.823  11.056  2.6414 -4.9405  0.3962
11319SOL     OW38641   7.663   6.770   3.332  0.1460 -0.1584  0.4144
11319SOL    HW138642   7.672   6.850   3.281 -0.7402 -0.9990 -1.1455
11319SOL    HW238643   7.660   6.799   3.423  2.1452  1.3677  0.0648
11320SOL     OW38644   6.974   2.860   2.931  0.1155 -0.3422 -0.3818
11320SOL    HW138645   6.929   2.810   2.863  1.7155 -1.5100 -0.6453
11320SOL    HW238646   6.959   2.811   3.011 -0.7641  0.3837 -0.0886
11321SOL     OW38647   3.104   3.760  11.405 -0.2730 -0.5734  0.7657
11321SOL    HW138648   3.165   3.745  11.477 -0.4094  0.8835  1.2100
11321SOL    HW238649   3.045   3.829  11.436 -0.9754 -0.6306 -0.3569
11322SOL     OW38650  11.284   9.436   7.330 -0.1233  0.3051  0.2181
11322SOL    HW138651  11.344   9.361   7.330  0.3354  0.6593  0.3979
11322SOL    HW238652  11.342   9.512   7.343 -0.7657  0.5152  2.2600
11323SOL     OW38653   9.613   1.562  11.942  0.1168 -0.6174 -0.2030
11323SOL    HW138654   9.601   1.627  12.011  1.7383  0.4827 -0.8858
11323SOL    HW238655   9.624   1.614  11.862  2.0381 -1.6608 -0.6892
11324SOL     OW38656   6.782   9.048  10.305 -0.5836  0.1672  0.2578
11324SOL    HW138657   6.763   9.123  10.249 -0.4415  1.0958  1.4043
11324SOL    HW238658   6.714   9.051  10.372 -0.1305 -0.2741  0.7472
11325SOL     OW38659   1.653   8.469   3.421  0.4371  0.5309  0.3596
11325SOL    HW138660   1.720   8.460   3.488  2.1632  1.2404 -1.1788
11325SOL    HW238661   1.685   8.416   3.348 -1.1548  0.1387 -0.1000
11326SOL     OW38662   2.837   4.902  10.686 -0.7367  0.3005 -0.3393
11326SOL    HW138663   2.787   4.848  10.747 -0.2083  0.9495  0.7045
11326SOL    HW238664   2.817   4.866  10.600 -0.9930 -1.0501  0.2651
11327SOL     OW38665   6.931   7.287  10.755  0.1238  0.6446 -0.2017
11327SOL    HW138666   6.931   7.198  10.788 -1.6931  0.2743 -1.0947
11327SOL    HW238667   6.868   7.333  10.810  0.4512  1.1802 -0.2652
11328SOL     OW38668   5.261   1.937   0.096  0.1896 -0.7838 -0.3153
11328SOL    HW138669   5.274   1.882   0.018 -1.4744 -1.5557 -0.0991
11328SOL    HW238670   5.277   1.878   0.170  0.5087 -0.3923 -0.0712
11329SOL     OW38671   2.843  11.019   7.589 -0.5138  0.1644  0.0861
11329SOL    HW138672   2.846  11.082   7.517  0.6930 -0.1074 -0.1371
11329SOL    HW238673   2.912  10.956   7.568 -1.4875 -1.0735  0.4569
11330SOL     OW38674   5.926   8.025   3.771  0.1281 -0.4779  0.2175
11330SOL    HW138675   5.844   7.989   3.739  0.7693 -1.2840 -0.5809
11330SOL    HW238676   5.909   8.048   3.862 -0.8514 -1.0330  0.1872
11331SOL     OW38677   5.500   7.452   2.293  0.3364 -0.1263 -0.5578
11331SOL    HW138678   5.430   7.387   2.298 -0.3328  0.6389  0.0216
11331SOL    HW238679   5.520   7.458   2.199  0.7389 -1.5048 -0.5839
11332SOL     OW38680   7.161   8.238   1.514  0.3324 -0.4014 -0.2265
11332SOL    HW138681   7.234   8.279   1.467  0.3690  0.9508  0.9300
11332SOL    HW238682   7.198   8.157   1.549  0.2898 -1.4798 -2.4842
11333SOL     OW38683   0.548   7.372  11.811 -1.0762  0.5772  0.3773
11333SOL    HW138684   0.525   7.321  11.889 -0.4802  0.0087  0.1843
11333SOL    HW238685   0.548   7.463  11.841  1.9488  0.2133  1.7881
11334SOL     OW38686   8.606   6.948   5.920  0.2410 -0.4541 -0.0993
11334SOL    HW138687   8.548   6.910   5.987 -0.5619  0.1506 -0.4334
11334SOL    HW238688   8.630   7.034   5.955  0.1991 -0.3294 -0.3748
11335SOL     OW38689   2.705   3.690  10.257  0.0252 -0.3651 -0.0439
11335SOL    HW138690   2.761   3.674  10.181 -0.1879  1.1163 -0.5261
11335SOL    HW238691   2.654   3.610  10.266  1.0690 -1.1175 -0.5762
11336SOL     OW38692   8.343   2.305   9.445  0.3681  0.4662  0.1824
11336SOL    HW138693   8.366   2.387   9.400  0.2462 -0.3259 -1.3886
11336SOL    HW238694   8.352   2.326   9.538  2.1290  1.7515 -0.2173
11337SOL     OW38695   5.335  11.635   6.816 -0.1127 -0.4813  0.0040
11337SOL    HW138696   5.252  11.596   6.788 -0.0291 -0.2523 -0.5811
11337SOL    HW238697   5.356  11.590   6.898  0.3190 -2.1457 -0.9751
11338SOL     OW38698   6.938   0.703   6.318 -0.0770  0.0877  0.1486
11338SOL    HW138699   6.931   0.657   6.402  3.0229 -0.2793  0.3224
11338SOL    HW238700   6.948   0.633   6.253 -2.6350  0.3565 -0.6734
11339SOL     OW38701   2.014   1.324   7.468  0.0760 -0.0515 -1.0423
11339SOL    HW138702   2.040   1.337   7.559 -0.8933 -0.9310 -0.6363
11339SOL    HW238703   2.054   1.241   7.443  0.7615  0.4262 -1.5963
11340SOL     OW38704   0.488   1.846   7.801 -0.1021  0.1460  0.1304
11340SOL    HW138705   0.478   1.930   7.755 -0.7304  0.1314  0.2311
11340SOL    HW238706   0.451   1.782   7.740 -0.6236  0.0833  0.5095
11341SOL     OW38707   0.797   6.037   6.140 -0.1958  0.2144  0.3095
11341SOL    HW138708   0.729   5.976   6.114 -0.6628  0.7319  0.2875
11341SOL    HW238709   0.864   6.030   6.072 -0.4320  0.0208  0.0980
11342SOL     OW38710   2.890   6.537   0.673  0.5699 -0.8357  0.6185
11342SOL    HW138711   2.969   6.533   0.619 -0.3444 -1.3783 -0.7432
11342SOL    HW238712   2.878   6.447   0.705 -0.1572 -1.0531 -0.2139
11343SOL     OW38713   7.221   4.941  11.941 -0.4875  0.3015  0.2063
11343SOL    HW138714   7.211   5.032  11.967  1.0574  1.1018 -1.7651
11343SOL    HW238715   7.211   4.891  12.022 -0.8129  2.2601  1.4140
11344SOL     OW38716   9.853   3.248  10.468 -0.1211 -0.2417 -0.1454
11344SOL    HW138717   9.843   3.342  10.454 -0.1746 -0.4137 -1.3839
11344SOL    HW238718   9.918   3.240  10.537  0.7684  0.6869 -0.8534
11345SOL     OW38719   8.411  10.384   3.113  0.0616  0.8247 -0.0955
11345SOL    HW138720   8.446  10.419   3.195 -0.6221 -0.6989  0.8793
11345SOL    HW238721   8.450  10.297   3.105 -2.7004 -0.6015  0.5890
11346SOL     OW38722   1.186   2.701   6.077  0.2928 -0.2945 -0.3469
11346SOL    HW138723   1.185   2.771   6.011 -1.6863 -0.3847 -0.4817
11346SOL    HW238724   1.268   2.714   6.124  0.7502  1.0987 -1.4357
11347SOL     OW38725   8.915   7.000  11.064  0.0985  0.5942  0.1515
11347SOL    HW138726   8.977   7.060  11.106  1.3206  0.8255 -1.8471
11347SOL    HW238727   8.856   7.056  11.015 -0.6952  0.2835  0.7297
11348SOL     OW38728   4.820  10.276   5.175 -0.2956  0.0830 -0.3603
11348SOL    HW138729   4.778  10.316   5.251 -0.4089  0.5085 -0.6441
11348SOL    HW238730   4.904  10.321   5.168 -0.1712 -0.1453 -0.3261
11349SOL     OW38731   6.484   9.349  11.578  0.0506  0.4195 -0.1632
11349SOL    HW138732   6.525   9.395  11.504  0.3269  0.6030  0.1003
11349SOL    HW238733   6.502   9.257  11.562  1.0715  0.5341  0.2410
11350SOL     OW38734   4.616   9.163  11.262  0.1857 -0.2965  0.1929
11350SOL    HW138735   4.593   9.116  11.343  2.9853 -0.2889  1.0732
11350SOL    HW238736   4.704   9.197  11.277 -0.4117  2.4258 -1.7123
11351SOL     OW38737   5.784   2.715   1.024 -0.0845  0.2416  0.5417
11351SOL    HW138738   5.774   2.710   0.929 -0.5565  2.9825  0.3654
11351SOL    HW238739   5.741   2.636   1.057 -0.8778 -0.2139 -1.4596
11352SOL     OW38740  10.236   2.723   3.415 -0.8882 -0.4127  0.4265
11352SOL    HW138741  10.267   2.672   3.340 -1.8064  1.6850 -1.5066
11352SOL    HW238742  10.146   2.694   3.428 -0.3709 -1.6084  1.5441
11353SOL     OW38743   1.446   0.814   3.164 -0.3980  0.4575 -0.2360
11353SOL    HW138744   1.368   0.808   3.220  0.0796  0.0772  0.4045
11353SOL    HW238745   1.458   0.726   3.130  0.5398  0.1744  0.7722
11354SOL     OW38746   8.214  10.138   6.927 -0.3590  0.2044 -0.4141
11354SOL    HW138747   8.133  10.113   6.971 -0.1457  1.1962  0.6074
11354SOL    HW238748   8.222  10.232   6.944  1.6253 -0.0835  0.6154
11355SOL     OW38749  10.208   5.939   4.673  0.8418  0.7303  0.1585
11355SOL    HW138750  10.157   6.018   4.692 -0.8220 -0.0372 -0.8797
11355SOL    HW238751  10.244   5.954   4.586  0.8985  0.5301  0.1478
11356SOL     OW38752   7.762   0.417   7.923  0.2565 -0.0934  0.2237
11356SOL    HW138753   7.750   0.500   7.877 -0.8122  0.0088  0.6712
11356SOL    HW238754   7.694   0.416   7.990  1.9657 -0.1014  2.0401
11357SOL     OW38755   3.216  10.560  10.393 -0.1578 -0.0642  0.3372
11357SOL    HW138756   3.291  10.618  10.404 -0.6710  0.5365  0.7359
11357SOL    HW238757   3.152  10.592  10.457 -1.6484  0.9206 -1.5596
11358SOL     OW38758   9.083   1.259   7.644  0.2160 -0.2221  0.2425
11358SOL    HW138759   9.082   1.189   7.579 -0.7776  0.0556 -0.0567
11358SOL    HW238760   9.056   1.337   7.596  2.2949  0.6073  0.3334
11359SOL     OW38761   9.263   6.203   0.798  0.0746 -0.1546 -0.3211
11359SOL    HW138762   9.358   6.202   0.792  0.1805 -1.7983  0.7930
11359SOL    HW238763   9.244   6.196   0.892 -1.0934 -1.5525 -0.6086
11360SOL     OW38764   0.659   1.479   0.005  0.1854  0.0578  0.5303
11360SOL    HW138765   0.684   1.567   0.034 -0.8946  0.2576  0.9191
11360SOL    HW238766   0.712   1.464  -0.073 -0.7943  1.7707 -0.5427
11361SOL     OW38767   6.820   7.655   2.558 -0.6908  0.3138  0.3912
11361SOL    HW138768   6.790   7.567   2.534  0.8015  0.1110 -0.9240
11361SOL    HW238769   6.813   7.658   2.654 -0.2765 -1.4399  0.5051
11362SOL     OW38770  10.953   2.233  11.025 -0.3717  0.0290 -0.2702
11362SOL    HW138771  10.920   2.192  11.105  2.0414  1.1778  1.4369
11362SOL    HW238772  10.992   2.160  10.976 -0.5030 -0.4640  0.3349
11363SOL     OW38773   9.063   1.489   9.069 -0.2634 -0.4287  0.7100
11363SOL    HW138774   9.125   1.560   9.053 -1.0076  0.1491  0.3320
11363SOL    HW238775   9.028   1.509   9.156 -0.0162 -0.6883  0.8716
11364SOL     OW38776   8.678   3.598   4.357  0.4158 -0.0819  0.3948
11364SOL    HW138777   8.720   3.567   4.438  0.3249 -0.5385  0.2720
11364SOL    HW238778   8.585   3.575   4.368  0.4061 -0.1643  0.1546
11365SOL     OW38779   6.627   3.229   6.551 -0.4803  0.0680  0.0990
11365SOL    HW138780   6.596   3.241   6.641 -0.0166 -2.5269  0.6590
11365SOL    HW238781   6.719   3.204   6.561 -0.0006  1.1889 -1.2162
11366SOL     OW38782   6.418  11.022   5.337  0.1729 -0.1625 -0.5030
11366SOL    HW138783   6.396  11.082   5.265  0.4760 -0.3023 -0.7118
11366SOL    HW238784   6.389  10.936   5.305 -1.4963  0.0514  0.3286
11367SOL     OW38785   1.735   1.102   5.901  0.2059 -0.1548  0.6298
11367SOL    HW138786   1.696   1.063   5.979  0.8325  1.4062  1.7846
11367SOL    HW238787   1.819   1.056   5.891  0.3185 -0.0666  1.1444
11368SOL     OW38788   5.911  10.012   2.511  0.3327  0.4815 -0.0966
11368SOL    HW138789   5.825   9.976   2.491  1.3948 -1.0988 -2.2998
11368SOL    HW238790   5.955   9.943   2.561  1.6802 -0.6225 -2.6046
11369SOL     OW38791  11.207   5.729   2.336 -0.5153  0.2574 -0.2804
11369SOL    HW138792  11.127   5.681   2.318  0.3757 -2.5064  2.2626
11369SOL    HW238793  11.277   5.667   2.319  1.1601  2.4218 -1.9364
11370SOL     OW38794   9.005   1.005   8.964 -0.0693  0.1235 -0.0150
11370SOL    HW138795   9.004   1.067   8.891  2.4610 -0.1370 -0.3662
11370SOL    HW238796   9.097   1.000   8.990 -0.3352 -2.6831  0.6993
11371SOL     OW38797   2.109   0.521   4.395 -0.0086  0.1941  0.1354
11371SOL    HW138798   2.079   0.504   4.306 -0.7755  1.4750  0.1185
11371SOL    HW238799   2.042   0.482   4.451 -0.2284  0.5638  0.1314
11372SOL     OW38800   8.951   0.159   8.672 -0.1785  0.0114  0.0088
11372SOL    HW138801   8.964   0.252   8.691  0.2237 -0.2418  1.0069
11372SOL    HW238802   8.889   0.158   8.598 -0.2728  1.0621  0.0623
11373SOL     OW38803   6.774  10.966  10.332  0.0560 -0.6617 -0.0975
11373SOL    HW138804   6.684  10.942  10.355 -0.6096  0.4664 -1.3988
11373SOL    HW238805   6.793  10.914  10.254 -0.3131  0.7709 -1.1657
11374SOL     OW38806   8.713   6.177   4.927 -0.4295  0.1026  0.3272
11374SOL    HW138807   8.795   6.142   4.890 -1.3824 -3.2421  1.0171
11374SOL    HW238808   8.726   6.173   5.022 -1.7526 -1.6812  0.4843
11375SOL     OW38809   9.710  10.730   1.858 -0.2117 -0.6415 -0.5605
11375SOL    HW138810   9.746  10.811   1.824  0.4423 -0.5778  0.2510
11375SOL    HW238811   9.626  10.719   1.812 -0.4472  0.6463 -0.4582
11376SOL     OW38812   5.840   4.852   6.430 -0.6117 -0.2011  0.3734
11376SOL    HW138813   5.762   4.871   6.377  0.4333  0.0309 -1.1567
11376SOL    HW238814   5.912   4.853   6.367  0.8489  1.0740  1.9558
11377SOL     OW38815   8.103  11.106  10.317 -0.0297  0.3683  0.3742
11377SOL    HW138816   8.118  11.187  10.267 -0.9671 -0.1063 -0.7356
11377SOL    HW238817   8.149  11.119  10.400  0.4860  1.7190 -0.1049
11378SOL     OW38818   1.836   8.858   1.326 -0.0310  0.1017  0.0851
11378SOL    HW138819   1.919   8.903   1.340  0.0958  0.6020 -1.9917
11378SOL    HW238820   1.778   8.891   1.395  0.8173  1.5179  0.1397
11379SOL     OW38821   5.724   2.817  11.559 -0.4387  0.9673 -0.0580
11379SOL    HW138822   5.765   2.758  11.622  2.0767 -1.1390 -3.3020
11379SOL    HW238823   5.636   2.781  11.546 -0.2544  0.2046  0.7180
11380SOL     OW38824   1.626   8.448   4.100 -0.2538 -0.3642 -0.2885
11380SOL    HW138825   1.532   8.462   4.105 -0.0712  1.0856 -0.2651
11380SOL    HW238826   1.643   8.375   4.159 -1.2004  0.2928  0.8422
11381SOL     OW38827  11.053   2.404  11.708  0.7522  0.0170 -0.8985
11381SOL    HW138828  11.100   2.331  11.667  2.2447 -1.6851  3.3059
11381SOL    HW238829  10.964   2.372  11.720  1.0870 -0.6759 -0.1784
11382SOL     OW38830   2.160   2.063   7.492 -0.0699 -0.0877  0.2481
11382SOL    HW138831   2.139   2.035   7.581  0.3514  0.4552  0.5267
11382SOL    HW238832   2.243   2.020   7.473 -0.9029 -1.4362 -0.4768
11383SOL     OW38833   9.279   0.016   2.033 -0.8545 -0.2249  0.0133
11383SOL    HW138834   9.305  -0.067   1.993  1.5773  1.5027 -2.4123
11383SOL    HW238835   9.355   0.040   2.087 -2.2518 -0.3208  2.1278
11384SOL     OW38836   1.977   9.840   7.186 -0.6638  0.6559 -0.1219
11384SOL    HW138837   1.897   9.802   7.222 -0.5387 -0.0529 -0.5667
11384SOL    HW238838   1.982   9.927   7.225 -0.6200  0.0015  1.4522
11385SOL     OW38839  11.515   0.861   5.565 -0.4565 -0.1832  0.0321
11385SOL    HW138840  11.489   0.823   5.481  0.8371 -0.0618 -0.4353
11385SOL    HW238841  11.607   0.837   5.576 -0.6128 -0.2169  1.4360
11386SOL     OW38842   9.956   1.012   3.581  0.5195 -0.2734  0.5930
11386SOL    HW138843  10.013   1.043   3.510  0.6814  2.1590  1.6890
11386SOL    HW238844  10.017   0.977   3.647  0.6221  0.5048  0.9190
11387SOL     OW38845   2.064  11.232   2.710  0.1048 -0.4720 -0.1084
11387SOL    HW138846   2.060  11.219   2.615 -1.6752 -0.4998 -0.0625
11387SOL    HW238847   1.973  11.227   2.739  0.5773 -0.0948  1.5644
11388SOL     OW38848   2.600   0.507   2.244 -0.0907  0.2399 -0.1845
11388SOL    HW138849   2.515   0.504   2.200 -0.1949  0.5422 -0.0114
11388SOL    HW238850   2.587   0.460   2.326 -0.1925  0.5925  0.0048
11389SOL     OW38851  10.268   3.459   6.130 -0.1176  0.6573 -0.1057
11389SOL    HW138852  10.235   3.396   6.066 -2.0630  0.6063  0.8579
11389SOL    HW238853  10.346   3.418   6.167 -1.3577 -1.2413  0.5257
11390SOL     OW38854   8.158  10.102   6.120 -0.7342  0.3617  0.0821
11390SOL    HW138855   8.221  10.166   6.085  0.5810 -0.8654  0.1370
11390SOL    HW238856   8.208  10.022   6.131 -1.8639 -0.1507  1.9143
11391SOL     OW38857   3.422  11.977   1.477 -0.2136  0.5877 -0.0714
11391SOL    HW138858   3.496  11.992   1.419 -1.8267  1.4624 -2.0145
11391SOL    HW238859   3.391  11.889   1.456  0.2243  0.2301  0.7246
11392SOL     OW38860  10.953   9.646   6.784 -0.1051  0.0665  0.3771
11392SOL    HW138861  10.894   9.705   6.737  0.4904  1.1626  0.9693
11392SOL    HW238862  10.929   9.559   6.753 -2.0058  0.4740  0.5520
11393SOL     OW38863  10.903  10.579   7.040  0.3546 -0.4687 -0.2201
11393SOL    HW138864  10.918  10.601   6.948  1.8751 -1.4875 -0.2562
11393SOL    HW238865  10.991  10.563   7.075 -0.2927 -1.2395  1.1103
11394SOL     OW38866   5.286  10.915   5.265 -0.2994 -0.1049  0.2257
11394SOL    HW138867   5.337  10.957   5.333 -0.9967  0.1169  0.6209
11394SOL    HW238868   5.341  10.844   5.233  1.1241  1.4086 -0.8188
11395SOL     OW38869   1.229   7.155   7.007 -0.2760  0.0105 -0.3112
11395SOL    HW138870   1.250   7.145   6.914  0.0669  0.8551 -0.3350
11395SOL    HW238871   1.191   7.243   7.013 -0.5592 -0.1511  0.3077
11396SOL     OW38872   4.247   3.198   9.018  0.0124  0.5341  0.0909
11396SOL    HW138873   4.179   3.133   9.036 -2.1391  2.6265  0.0607
11396SOL    HW238874   4.311   3.185   9.087 -0.3142 -1.5911  0.0668
11397SOL     OW38875   9.797   6.090   3.952 -1.1345 -0.2600  0.3335
11397SOL    HW138876   9.703   6.070   3.943 -0.9320 -1.3834  0.4974
11397SOL    HW238877   9.808   6.111   4.044 -0.9987 -1.5239  0.6226
11398SOL     OW38878   3.411   7.266   0.328  0.6153  0.7094  0.3097
11398SOL    HW138879   3.370   7.309   0.253 -1.5397 -0.3132  0.8195
11398SOL    HW238880   3.407   7.331   0.398 -1.7508  0.1433  0.8082
11399SOL     OW38881   6.200  11.731   4.012 -0.1894 -0.4547 -0.2083
11399SOL    HW138882   6.180  11.764   3.924 -0.8444  0.2662  0.1975
11399SOL    HW238883   6.143  11.782   4.070  0.6311 -0.5280  0.6887
11400SOL     OW38884   2.097   6.418   3.015 -0.7389 -0.5425 -0.3056
11400SOL    HW138885   2.172   6.367   2.985 -0.9352 -0.2097 -1.3985
11400SOL    HW238886   2.096   6.495   2.959  0.2281  1.2809  2.0278
11401SOL     OW38887   1.428   2.602   4.309  0.4461  0.4043  0.7655
11401SOL    HW138888   1.380   2.594   4.227  0.2970  0.3301  0.8583
11401SOL    HW238889   1.365   2.575   4.376  0.4500  0.8255  0.9395
11402SOL     OW38890   1.606   3.100   1.880  0.0774 -0.3859 -0.4827
11402SOL    HW138891   1.547   3.042   1.833 -0.7940  0.9398 -1.0852
11402SOL    HW238892   1.591   3.081   1.972 -0.9621 -0.3794 -0.6460
11403SOL     OW38893   9.299   0.424   3.551 -0.2038 -0.2753 -0.2548
11403SOL    HW138894   9.368   0.478   3.591  0.6317 -0.6972 -1.0804
11403SOL    HW238895   9.311   0.338   3.590 -1.0089 -0.0836  0.4431
11404SOL     OW38896   4.706   2.689   6.367  0.1708 -0.0294 -0.0092
11404SOL    HW138897   4.714   2.749   6.442 -2.1525  0.2858  0.0459
11404SOL    HW238898   4.699   2.602   6.406  1.1656 -0.1021  0.0213
11405SOL     OW38899  11.535   9.344   3.720 -1.0215 -0.2339  0.6177
11405SOL    HW138900  11.598   9.374   3.785 -0.3878  0.6410 -0.3652
11405SOL    HW238901  11.576   9.364   3.636 -2.6720  0.5567 -0.0475
11406SOL     OW38902  10.961   6.054   9.873  0.4365 -0.7116 -0.1292
11406SOL    HW138903  11.014   6.005   9.936  1.5363 -2.2450 -2.1279
11406SOL    HW238904  10.930   5.988   9.810 -0.4263  0.7558 -1.3204
11407SOL     OW38905  10.922   4.979   1.679  0.3191 -0.0072  0.9745
11407SOL    HW138906  11.006   4.947   1.711  0.6243 -0.5327 -0.2956
11407SOL    HW238907  10.939   5.007   1.589 -1.3713 -2.6750 -0.3094
11408SOL     OW38908   9.454   9.149  10.745 -0.2182 -0.1290  0.1908
11408SOL    HW138909   9.519   9.211  10.776 -0.8740  0.5296  0.2592
11408SOL    HW238910   9.477   9.134  10.653 -0.7790  1.1495 -0.1690
11409SOL     OW38911   0.196   7.829   5.538 -0.4474 -0.0357  1.0374
11409SOL    HW138912   0.197   7.828   5.442  0.7184  0.6999  1.0257
11409SOL    HW238913   0.288   7.841   5.563 -0.8980  1.3225  2.2039
11410SOL     OW38914   0.387   8.876   8.513 -0.6514  0.2406 -0.6723
11410SOL    HW138915   0.449   8.822   8.464 -1.1913  1.3103 -2.6190
11410SOL    HW238916   0.440   8.948   8.547  0.1570 -1.5379  2.2759
11411SOL     OW38917   4.636  11.436   8.463 -0.3186  0.1912  0.2980
11411SOL    HW138918   4.631  11.532   8.465  0.3625  0.2228  1.1582
11411SOL    HW238919   4.662  11.412   8.552 -0.3388 -0.7843  0.0450
11412SOL     OW38920   2.866   5.146   5.907  0.4677 -0.4487 -0.2326
11412SOL    HW138921   2.845   5.235   5.933 -0.3835 -1.1533  1.6790
11412SOL    HW238922   2.784   5.111   5.872  0.9189 -0.3600 -1.4183
11413SOL     OW38923   3.867   0.335   4.587  0.1541 -0.1140  0.1523
11413SOL    HW138924   3.829   0.298   4.507  2.1182 -0.8682 -0.5125
11413SOL    HW238925   3.952   0.291   4.595  1.2479  2.0117  1.0951
11414SOL     OW38926   4.325   9.416   2.273  0.0380 -0.1717  1.0399
11414SOL    HW138927   4.374   9.498   2.283 -1.3658  0.7705  0.4732
11414SOL    HW238928   4.245   9.431   2.323 -0.7590 -0.7456 -0.0468
11415SOL     OW38929   9.604   5.744   0.054  0.3892  0.1495 -0.7032
11415SOL    HW138930   9.658   5.822   0.065 -2.3288  2.4754 -2.1872
11415SOL    HW238931   9.589   5.712   0.142  2.2898  0.7669 -0.1201
11416SOL     OW38932   5.424  10.546  10.871  0.0598  0.2568  0.2044
11416SOL    HW138933   5.482  10.577  10.801 -1.0720  1.4910 -0.2331
11416SOL    HW238934   5.456  10.458  10.891  0.8514  0.1420 -1.3839
11417SOL     OW38935  10.014   1.212   9.427  0.8048  0.5454 -0.0223
11417SOL    HW138936  10.049   1.288   9.473  0.6643  0.9696 -0.6107
11417SOL    HW238937  10.002   1.146   9.496 -0.1751  1.4317  0.6915
11418SOL     OW38938   4.413   6.006   9.218  0.7679 -0.4843 -0.1962
11418SOL    HW138939   4.360   6.057   9.157  1.6104  0.4249 -0.1846
11418SOL    HW238940   4.448   5.934   9.165  0.8617 -0.1436 -0.6012
11419SOL     OW38941   8.185  10.467   8.637 -0.1888  0.2821  0.2577
11419SOL    HW138942   8.151  10.539   8.690  0.1121  0.2616  0.4825
11419SOL    HW238943   8.149  10.388   8.677 -2.3608  0.3914 -1.3216
11420SOL     OW38944   5.170   2.237   7.939  0.1243 -0.0349 -0.7003
11420SOL    HW138945   5.172   2.269   7.849 -1.3169 -0.3676 -0.8849
11420SOL    HW238946   5.141   2.312   7.991 -0.7746 -0.3114 -0.7800
11421SOL     OW38947   8.620   2.810   2.873 -0.3113  0.0937  0.3211
11421SOL    HW138948   8.608   2.898   2.839 -1.8236 -0.4052 -0.5153
11421SOL    HW238949   8.700   2.815   2.926  1.0907  1.3562 -1.7779
11422SOL     OW38950   7.315   9.609   8.006  0.9840 -0.4005 -0.2888
11422SOL    HW138951   7.290   9.654   7.925 -0.3138  1.6243  1.1364
11422SOL    HW238952   7.379   9.667   8.047  0.6457 -0.7151  0.7264
11423SOL     OW38953   2.708   6.298   7.932 -0.2247 -0.1307 -0.1766
11423SOL    HW138954   2.620   6.288   7.968  0.1544  0.2744  0.9131
11423SOL    HW238955   2.750   6.213   7.946 -0.2236 -0.1131 -0.0751
11424SOL     OW38956   3.610   3.307   1.807  0.1006  0.0674 -0.5595
11424SOL    HW138957   3.597   3.219   1.771  1.8724 -0.8758  0.9430
11424SOL    HW238958   3.699   3.305   1.842  0.6165  2.8456 -1.4821
11425SOL     OW38959   4.447   2.116   4.092  0.2550  0.3743 -0.3544
11425SOL    HW138960   4.451   2.026   4.123  0.0921  0.6098  0.3684
11425SOL    HW238961   4.539   2.144   4.086  0.2872  0.3367 -0.0457
11426SOL     OW38962  10.478   2.103   8.433  0.4059  0.1221 -0.8696
11426SOL    HW138963  10.462   2.156   8.511 -0.9192  2.0353 -2.3278
11426SOL    HW238964  10.567   2.124   8.407  0.0916  1.2346 -1.0991
11427SOL     OW38965   3.056   1.538   0.495 -0.8065  0.2331  0.0188
11427SOL    HW138966   3.055   1.575   0.406 -1.2856  2.9770  1.0803
11427SOL    HW238967   2.964   1.526   0.517 -0.6780 -1.0255 -0.0169
11428SOL     OW38968   9.096   6.990   4.939  0.0682 -0.0538 -1.0501
11428SOL    HW138969   9.068   7.012   5.027 -0.1751  0.9171 -1.3608
11428SOL    HW238970   9.192   6.996   4.942  0.0230  0.7224 -1.0381
11429SOL     OW38971  10.875   2.811   8.645  0.0442  0.0736 -0.1265
11429SOL    HW138972  10.892   2.767   8.562  0.2795  0.3871 -0.2475
11429SOL    HW238973  10.875   2.904   8.623 -1.3566  0.1161 -0.0461
11430SOL     OW38974   6.091   5.551   6.704  0.3951 -0.1814  0.6750
11430SOL    HW138975   6.086   5.532   6.611 -0.3238  1.9124  0.2292
11430SOL    HW238976   6.071   5.468   6.747  3.4372 -1.9200 -0.9482
11431SOL     OW38977  10.658  11.481   3.282  0.2720 -0.2233  0.4419
11431SOL    HW138978  10.661  11.543   3.209 -0.5333  0.6648  1.1317
11431SOL    HW238979  10.570  11.443   3.278  0.8148 -1.4718 -0.0744
11432SOL     OW38980   0.668  11.688   9.358 -0.0354 -0.2355  0.5144
11432SOL    HW138981   0.582  11.696   9.316 -0.0452 -1.1809  0.3296
11432SOL    HW238982   0.722  11.754   9.315 -0.3766 -0.3619 -0.1233
11433SOL     OW38983   7.402   3.807   1.066  0.3141  0.2633  0.3125
11433SOL    HW138984   7.333   3.843   1.121  0.5370  0.9815  0.1308
11433SOL    HW238985   7.360   3.792   0.981  0.8402  2.6633 -0.4492
11434SOL     OW38986   0.535  11.387  11.651  0.3209 -0.1482  0.2511
11434SOL    HW138987   0.594  11.369  11.577 -0.2902 -2.1370  0.1831
11434SOL    HW238988   0.559  11.475  11.680  1.6289  0.0686 -1.3331
11435SOL     OW38989  11.025   7.781   6.003 -0.2856 -0.2111 -0.2620
11435SOL    HW138990  10.990   7.833   6.075 -1.3008 -1.7892  0.4186
11435SOL    HW238991  10.977   7.698   6.007  0.7983 -0.9504 -1.7385
11436SOL     OW38992   6.090  11.120  10.606  0.3944 -0.1024  0.4542
11436SOL    HW138993   6.148  11.136  10.681  0.4495 -0.3853  0.4724
11436SOL    HW238994   6.084  11.205  10.562 -0.1316  0.2096  1.1244
11437SOL     OW38995   1.467   8.936   3.525 -0.4659  0.4094 -0.0403
11437SOL    HW138996   1.419   8.989   3.589  2.3425  1.8130  1.0781
11437SOL    HW238997   1.508   8.867   3.576  0.6292  0.6687 -0.5416
11438SOL     OW38998   4.650  11.642   4.123 -0.8780  0.2456  0.2248
11438SOL    HW138999   4.606  11.597   4.051 -0.4501  0.3620 -0.1185
11438SOL    HW239000   4.674  11.573   4.184 -0.3497  0.0202 -0.2305
11439SOL     OW39001   1.834  11.807   5.937  0.1730 -0.5590 -0.4914
11439SOL    HW139002   1.845  11.843   5.849 -1.6225  0.1314 -0.4600
11439SOL    HW239003   1.747  11.768   5.936  0.2457 -0.7841  0.9156
11440SOL     OW39004   7.535   7.533  11.054  0.1449  0.3914 -0.0162
11440SOL    HW139005   7.607   7.594  11.071  0.6088  0.8514 -3.1126
11440SOL    HW239006   7.471   7.584  11.004 -0.8276 -0.9115 -0.1503
11441SOL     OW39007   5.903   0.335   3.039 -0.1452  0.1412 -0.4191
11441SOL    HW139008   5.866   0.423   3.043 -0.1302  0.1451 -0.3706
11441SOL    HW239009   5.830   0.279   3.010 -0.2338  0.1213 -0.1598
11442SOL     OW39010   7.775  11.914   7.332  0.3975 -0.7829 -0.0528
11442SOL    HW139011   7.760  11.944   7.242  1.2735  1.0655  0.3691
11442SOL    HW239012   7.697  11.943   7.380  0.7969 -0.0479  0.1586
11443SOL     OW39013   4.469   4.804   7.714  0.2173 -0.9485  0.5352
11443SOL    HW139014   4.391   4.844   7.752  0.5624  0.6500 -0.3366
11443SOL    HW239015   4.477   4.720   7.758 -1.5331 -0.7950  1.2159
11444SOL     OW39016   6.702   1.932   5.783 -0.6344 -0.1771 -0.1208
11444SOL    HW139017   6.642   1.990   5.736 -1.4146 -0.4875  0.4794
11444SOL    HW239018   6.718   1.976   5.867  2.1553  1.2624 -1.2742
11445SOL     OW39019   6.132  10.331   7.117  0.2571  0.6986  0.3645
11445SOL    HW139020   6.106  10.337   7.025  1.0448 -1.2570 -0.0414
11445SOL    HW239021   6.197  10.400   7.129  1.1299  0.1336 -0.9312
11446SOL     OW39022   8.495   3.642   6.794  0.2293 -0.2114 -0.0332
11446SOL    HW139023   8.553   3.609   6.726  0.9286  0.2749  0.3137
11446SOL    HW239024   8.418   3.673   6.746  1.0938  0.9704 -0.7123
11447SOL     OW39025   1.700   3.300   2.934 -0.1081 -0.1034 -0.1469
11447SOL    HW139026   1.669   3.359   3.003 -4.2667  1.6530 -3.1024
11447SOL    HW239027   1.790   3.329   2.917  0.4589  0.5459  3.1703
11448SOL     OW39028   2.494  11.736   3.685 -0.2878  0.4424  0.3056
11448SOL    HW139029   2.589  11.733   3.692 -0.4225 -1.1397  2.5449
11448SOL    HW239030   2.465  11.649   3.712 -2.3967  0.9887  0.0170
11449SOL     OW39031   9.616   8.667  10.561  0.1090 -0.2879 -0.4276
11449SOL    HW139032   9.665   8.590  10.532 -0.0549 -0.2923 -0.7005
11449SOL    HW239033   9.657   8.692  10.644 -0.3024 -1.1073  0.0369
11450SOL     OW39034   0.841   4.811   5.349 -0.1179  0.0898 -0.2859
11450SOL    HW139035   0.789   4.747   5.300 -1.0802  0.7723 -0.1955
11450SOL    HW239036   0.832   4.892   5.299  0.0872  0.4409  0.2411
11451SOL     OW39037   0.726   5.333   7.311 -0.4219 -0.0512 -0.4006
11451SOL    HW139038   0.801   5.318   7.254 -0.0938 -0.4373  0.1272
11451SOL    HW239039   0.680   5.407   7.271  1.1583  1.3140  0.1724
11452SOL     OW39040   5.183   3.070   7.437 -0.1667  0.1531 -0.2029
11452SOL    HW139041   5.116   3.004   7.452 -1.0894  1.3357  1.1674
11452SOL    HW239042   5.240   3.032   7.369 -0.5136 -2.0933  0.6888
11453SOL     OW39043   1.722   6.270   5.251  0.0108  0.6278  0.1376
11453SOL    HW139044   1.746   6.360   5.231 -1.1778  0.7858 -0.6915
11453SOL    HW239045   1.628   6.265   5.232 -0.1302 -0.5614  0.9889
11454SOL     OW39046   2.866   9.261  11.954 -0.0011 -0.4827 -0.3318
11454SOL    HW139047   2.771   9.256  11.961 -0.0060  0.3070  0.3532
11454SOL    HW239048   2.897   9.172  11.973 -0.5515 -0.5109  0.4575
11455SOL     OW39049   2.230  10.366  10.573  0.4454 -0.2611  0.0514
11455SOL    HW139050   2.197  10.319  10.497  0.1763 -0.2816  0.1776
11455SOL    HW239051   2.222  10.304  10.645  2.5805 -0.9488 -0.2576
11456SOL     OW39052   9.492  10.940   8.920 -0.0181  0.0415 -0.0481
11456SOL    HW139053   9.442  11.018   8.946  2.4174  1.3774  0.9551
11456SOL    HW239054   9.486  10.881   8.995 -0.6786 -0.1591 -0.2471
11457SOL     OW39055   1.790   5.810   0.573 -0.1892 -0.3640 -0.1216
11457SOL    HW139056   1.865   5.751   0.583  0.5046  0.4933 -0.1142
11457SOL    HW239057   1.812   5.864   0.497 -0.5662  0.2285  0.1797
11458SOL     OW39058   4.763   1.326  10.465 -0.2912 -0.4106 -0.3215
11458SOL    HW139059   4.857   1.324  10.448  0.4292 -1.8030  2.9594
11458SOL    HW239060   4.735   1.234  10.454 -0.5109 -0.6510  1.8417
11459SOL     OW39061   3.267   2.384   3.802 -0.1420 -0.0021  0.0254
11459SOL    HW139062   3.183   2.340   3.784  0.6684 -0.9276 -1.7232
11459SOL    HW239063   3.272   2.452   3.735  0.1071  0.6279  0.6852
11460SOL     OW39064   2.802   3.328  11.291  0.6229 -0.0074 -0.0953
11460SOL    HW139065   2.808   3.251  11.347  1.3538  1.1359  1.4541
11460SOL    HW239066   2.842   3.398  11.342 -2.4106  2.0610 -0.2897
11461SOL     OW39067  10.803   5.617  10.163 -0.4974  0.5132 -0.0113
11461SOL    HW139068  10.768   5.630  10.251 -1.9973 -0.8589 -0.3519
11461SOL    HW239069  10.738   5.655  10.105 -1.3737 -1.7775 -0.6514
11462SOL     OW39070   2.545   9.108   9.949  0.1021 -0.0456  0.6395
11462SOL    HW139071   2.466   9.162   9.946 -0.3883 -0.7730 -1.8741
11462SOL    HW239072   2.516   9.021   9.921  1.4047 -0.9050  1.8171
11463SOL     OW39073   1.345   4.724  11.569 -0.5205 -0.1868 -0.2261
11463SOL    HW139074   1.328   4.816  11.550  1.8356  0.3380 -0.0358
11463SOL    HW239075   1.330   4.716  11.663  1.4135  0.5905  0.1957
11464SOL     OW39076   3.862   2.615   9.701  0.4034 -0.2067  1.1904
11464SOL    HW139077   3.838   2.708   9.704 -1.2183 -0.5827  0.9178
11464SOL    HW239078   3.790   2.571   9.745  0.2063 -1.4869 -0.3184
11465SOL     OW39079   6.919   1.380   4.351 -0.1142 -0.1075 -0.3295
11465SOL    HW139080   6.846   1.381   4.289 -0.0274  0.0888 -0.4288
11465SOL    HW239081   6.879   1.361   4.436 -0.5014  1.6759 -0.0916
11466SOL     OW39082   5.701   7.585  11.683  0.0468 -0.0371  0.6963
11466SOL    HW139083   5.719   7.576  11.589 -0.2275  2.4063  0.3502
11466SOL    HW239084   5.765   7.528  11.725  2.6693  1.5489 -0.8675
11467SOL     OW39085   9.283   2.438   5.255  0.2206  0.2422 -0.0717
11467SOL    HW139086   9.254   2.465   5.341 -0.2187  1.1112 -0.4802
11467SOL    HW239087   9.277   2.342   5.256  0.3033  0.2404  0.8750
11468SOL     OW39088  11.103   5.318   7.940  0.4173 -0.4531 -0.3752
11468SOL    HW139089  11.111   5.381   7.869 -0.4957 -1.1288 -1.0931
11468SOL    HW239090  11.123   5.369   8.019  3.3718 -0.1117 -1.2146
11469SOL     OW39091   1.413   1.739  10.283  0.5438  0.2330 -0.0721
11469SOL    HW139092   1.414   1.829  10.252  0.4366  0.4026  0.4113
11469SOL    HW239093   1.433   1.745  10.376 -1.2191 -0.0639  0.3750
11470SOL     OW39094  10.358   8.064  10.486 -0.0932  0.2112 -0.1720
11470SOL    HW139095  10.436   8.030  10.529  0.1276 -0.0207 -0.7415
11470SOL    HW239096  10.390   8.132  10.428 -0.4617  0.9591  0.4807
11471SOL     OW39097   9.492   9.431   8.524 -0.5699  0.4179 -0.3016
11471SOL    HW139098   9.525   9.521   8.523 -0.0868  0.2530  0.1294
11471SOL    HW239099   9.501   9.404   8.616 -0.8036 -0.0327 -0.4118
11472SOL     OW39100   1.584  11.140   1.511 -0.0129 -0.4966  0.4210
11472SOL    HW139101   1.592  11.061   1.457 -2.0565  0.4202 -1.3852
11472SOL    HW239102   1.663  11.191   1.491 -0.3001 -0.5921 -1.0564
11473SOL     OW39103   3.848   8.343  10.464  0.3387 -0.4311  0.3877
11473SOL    HW139104   3.801   8.372  10.542  1.9161 -1.7751  1.9013
11473SOL    HW239105   3.922   8.403  10.457 -0.6257  0.6729 -1.0610
11474SOL     OW39106   4.102   3.802   3.878 -0.1873  0.1584 -0.3490
11474SOL    HW139107   4.133   3.761   3.959 -1.6990 -0.1348  0.1095
11474SOL    HW239108   4.142   3.889   3.878  1.9381 -0.7501 -0.6309
11475SOL     OW39109  11.323   2.400   3.270 -0.1934  0.1400  0.0029
11475SOL    HW139110  11.269   2.396   3.349 -0.1428 -0.2000  0.0210
11475SOL    HW239111  11.392   2.335   3.285 -0.1900  0.0685 -0.3234
11476SOL     OW39112  10.231   9.240   5.219 -0.8883 -0.4802 -1.2112
11476SOL    HW139113  10.211   9.147   5.203 -0.5458 -0.9389  0.8201
11476SOL    HW239114  10.315   9.239   5.264 -1.5600  0.7017  0.1444
11477SOL     OW39115   5.583   4.924   7.048 -0.5301 -0.4221 -0.5439
11477SOL    HW139116   5.622   4.837   7.041 -0.2841 -0.4305  0.7309
11477SOL    HW239117   5.491   4.907   7.070 -1.0817 -0.3829 -2.6274
11478SOL     OW39118   7.487   9.739   1.764 -0.5740  0.5645  0.2748
11478SOL    HW139119   7.509   9.818   1.812  0.2720  1.2271 -1.1402
11478SOL    HW239120   7.562   9.724   1.706 -1.5017 -0.2353 -0.7723
11479SOL     OW39121   5.899   5.765  10.345 -0.4115 -0.4061  0.5724
11479SOL    HW139122   5.870   5.761  10.254 -1.4522 -1.4927  0.9141
11479SOL    HW239123   5.971   5.702  10.350 -0.3504 -0.3425  0.4933
11480SOL     OW39124   0.032   1.907   0.229 -0.3649 -0.0150  0.2682
11480SOL    HW139125   0.084   1.918   0.150 -0.2566 -1.5076  0.1032
11480SOL    HW239126   0.078   1.957   0.296 -0.7918  1.7681 -0.7317
11481SOL     OW39127   0.483  10.121   2.706 -0.2861 -0.2499  0.1220
11481SOL    HW139128   0.434  10.091   2.629 -1.8398 -2.0258  1.6845
11481SOL    HW239129   0.416  10.135   2.772  0.8489  2.7614  0.7899
11482SOL     OW39130   3.905   1.325   4.505 -0.1852  0.3217 -0.0031
11482SOL    HW139131   3.869   1.389   4.443 -1.2354  1.8891  2.1116
11482SOL    HW239132   3.837   1.258   4.512  0.3545 -0.3921 -1.2208
11483SOL     OW39133   2.915  11.734   0.774 -0.4156  0.1954 -0.1471
11483SOL    HW139134   2.964  11.801   0.822 -0.6320 -0.6775  1.3849
11483SOL    HW239135   2.876  11.780   0.700 -1.8672  2.1452  1.7182
11484SOL     OW39136   8.784   3.354   3.948  0.1174 -0.0576 -0.0195
11484SOL    HW139137   8.710   3.415   3.950 -0.9685 -1.2992 -0.6740
11484SOL    HW239138   8.824   3.362   4.035  1.8991  3.7242 -0.9571
11485SOL     OW39139  11.500   4.297   0.987 -0.0399 -0.4903  0.0807
11485SOL    HW139140  11.544   4.358   1.045  1.1439 -0.4946 -0.7732
11485SOL    HW239141  11.481   4.348   0.908 -0.4512 -0.8180 -0.0368
11486SOL     OW39142   6.828   8.403  11.646 -0.9265  0.1498  0.7396
11486SOL    HW139143   6.788   8.446  11.571  0.5436  0.7155  0.2354
11486SOL    HW239144   6.821   8.310  11.628  0.1281  0.2773 -0.5476
11487SOL     OW39145   2.592   6.073   5.779  0.1930 -0.0678 -0.2923
11487SOL    HW139146   2.508   6.028   5.777  0.3679 -0.4539 -3.6674
11487SOL    HW239147   2.571   6.166   5.777 -0.1127 -0.0893  0.9653
11488SOL     OW39148   4.015   4.831   5.226  0.0352  0.2390  0.2706
11488SOL    HW139149   3.968   4.747   5.217 -0.1261  0.4455 -1.0492
11488SOL    HW239150   4.084   4.826   5.160  0.6258  0.7597  0.8482
11489SOL     OW39151   6.095   4.068   0.644  0.3049  0.3068 -0.8298
11489SOL    HW139152   6.079   4.153   0.685 -0.3502 -1.1454  2.1777
11489SOL    HW239153   6.043   4.071   0.563  0.5141  2.8179 -0.9534
11490SOL     OW39154   6.516  10.322   1.792  0.3514  0.6594  0.0009
11490SOL    HW139155   6.499  10.410   1.826  0.0047  0.4572  0.3673
11490SOL    HW239156   6.452  10.267   1.837 -0.2295  0.4022 -1.0861
11491SOL     OW39157   8.756   0.809   0.839 -0.1070 -0.1702  0.0411
11491SOL    HW139158   8.710   0.823   0.922  1.9796 -0.0309  1.2297
11491SOL    HW239159   8.824   0.876   0.837 -1.7500  1.6628 -3.1501
11492SOL     OW39160   9.019  11.395   6.449  0.3908  0.6371  0.2034
11492SOL    HW139161   8.994  11.451   6.376  2.5356  2.1358  0.5357
11492SOL    HW239162   9.063  11.321   6.408 -0.4536  0.2883 -0.1077
11493SOL     OW39163   9.267   0.931   6.761 -0.1392 -0.4299  0.9777
11493SOL    HW139164   9.264   0.917   6.855 -0.4195  2.0844  1.4260
11493SOL    HW239165   9.301   1.020   6.751 -0.1472 -0.6086 -1.3057
11494SOL     OW39166   4.253   9.763  10.981 -1.0279 -0.1482  0.1332
11494SOL    HW139167   4.238   9.672  10.957  0.1686  0.4160 -3.3786
11494SOL    HW239168   4.172   9.808  10.958 -0.3783  0.1623 -1.7386
11495SOL     OW39169   8.049   6.719   0.436  0.0199 -0.2370  0.0492
11495SOL    HW139170   7.980   6.744   0.375 -0.1511 -0.2930  0.2204
11495SOL    HW239171   8.009   6.654   0.493  0.4317 -0.8325 -0.3266
11496SOL     OW39172   2.816   4.393   6.069  0.3875 -0.1009 -0.0062
11496SOL    HW139173   2.728   4.428   6.054  0.5151  0.6737  0.9351
11496SOL    HW239174   2.803   4.319   6.127  0.4215  0.5697  0.8767
11497SOL     OW39175   5.792   5.832   0.884  0.6518  0.1336 -0.7459
11497SOL    HW139176   5.797   5.745   0.844  0.6360 -0.7225  1.0043
11497SOL    HW239177   5.779   5.815   0.977 -0.9989  2.0248 -0.5510
11498SOL     OW39178   1.623   3.728  11.681  0.7176 -0.8574 -0.1087
11498SOL    HW139179   1.594   3.748  11.591  0.9761 -0.7468 -0.1698
11498SOL    HW239180   1.618   3.633  11.687 -0.7629 -0.7774  0.2651
11499SOL     OW39181  11.417   6.874   1.444 -0.3479  0.5722  0.6897
11499SOL    HW139182  11.343   6.844   1.497  0.7989 -1.5563  1.1895
11499SOL    HW239183  11.463   6.936   1.501 -0.0494 -0.4444  1.5954
11500SOL     OW39184   6.732   1.479   7.080  0.3980 -0.7039 -0.3616
11500SOL    HW139185   6.800   1.515   7.137  0.6094  0.6097 -1.3678
11500SOL    HW239186   6.690   1.410   7.132  0.3287  0.6630  1.5172
11501SOL     OW39187   2.320   4.114   9.806  0.5773 -0.2092 -0.8639
11501SOL    HW139188   2.302   4.095   9.714  1.0655  0.7209 -1.1602
11501SOL    HW239189   2.283   4.201   9.821 -2.7107 -1.7200  0.8013
11502SOL     OW39190   5.391   1.185  10.104  0.6259 -0.0433  0.1751
11502SOL    HW139191   5.337   1.224  10.035  0.4838  0.9559  0.8388
11502SOL    HW239192   5.351   1.099  10.120 -0.2463  0.3285  0.0525
11503SOL     OW39193   2.869   4.397   0.498  0.6893  0.3304 -0.5349
11503SOL    HW139194   2.897   4.478   0.541  1.2249 -1.3485  2.6446
11503SOL    HW239195   2.944   4.371   0.445  1.2945  0.9217  0.0123
11504SOL     OW39196   9.867   2.905   1.109  0.3187 -0.0606  0.6744
11504SOL    HW139197   9.923   2.955   1.167  2.1904  0.2965 -1.2954
11504SOL    HW239198   9.924   2.835   1.076 -1.0396 -0.9970  0.2509
11505SOL     OW39199   5.980  10.870   3.991  0.0383  0.4106 -0.3399
11505SOL    HW139200   6.066  10.842   4.021 -0.3031 -1.5820 -1.0905
11505SOL    HW239201   5.932  10.891   4.072  1.5538  2.7739  0.0369
11506SOL     OW39202   8.799   8.980   1.932  0.0452 -0.0443  0.0170
11506SOL    HW139203   8.738   8.907   1.935  0.7992 -0.6633  1.2314
11506SOL    HW239204   8.825   8.993   2.024  0.4452  1.3089 -0.2592
11507SOL     OW39205   7.146   1.432  11.975  0.0822  0.3248 -0.2379
11507SOL    HW139206   7.164   1.356  11.921  1.3092  0.3780  0.0603
11507SOL    HW239207   7.113   1.498  11.913  0.6984  0.1246 -0.7917
11508SOL     OW39208   5.539  11.665   1.334 -0.4989 -0.0104  0.6535
11508SOL    HW139209   5.600  11.735   1.310 -0.7346  0.0846  0.3327
11508SOL    HW239210   5.587  11.584   1.320 -0.8761 -0.0007 -0.8899
11509SOL     OW39211   4.062   3.949   1.992  0.1599  0.4815  0.8734
11509SOL    HW139212   3.993   3.892   2.026  0.2342  0.2021  0.5499
11509SOL    HW239213   4.141   3.895   1.991  0.0854  0.3815 -0.0727
11510SOL     OW39214   3.261   5.308   6.810 -0.3454  0.0893 -0.1174
11510SOL    HW139215   3.212   5.264   6.741 -1.2649  0.8539  0.0332
11510SOL    HW239216   3.198   5.319   6.881 -0.2936  2.0680 -0.3317
11511SOL     OW39217  10.881   2.197  10.670 -0.4746  0.4417 -0.2188
11511SOL    HW139218  10.829   2.153  10.602 -0.6806 -0.0288  0.2322
11511SOL    HW239219  10.844   2.165  10.752 -1.3889  2.3162  0.1695
11512SOL     OW39220   1.359  10.022   3.808 -0.1933  0.3321  0.0380
11512SOL    HW139221   1.294  10.030   3.878  0.2342  0.8483  0.3858
11512SOL    HW239222   1.308  10.019   3.728 -0.6310  1.3662  0.2674
11513SOL     OW39223   7.529   1.326  10.902 -0.6653  0.7585  0.1091
11513SOL    HW139224   7.440   1.336  10.937 -0.5185  0.1304  0.6762
11513SOL    HW239225   7.583   1.310  10.979 -0.3496 -0.7175 -0.4024
11514SOL     OW39226   7.409  11.617   9.836  0.0188 -0.2048  0.4198
11514SOL    HW139227   7.484  11.644   9.782 -1.0517 -0.1339 -1.0970
11514SOL    HW239228   7.418  11.669   9.916 -0.1624  2.3026 -1.0753
11515SOL     OW39229   3.909   9.437   4.776 -0.1342  0.1413  0.2989
11515SOL    HW139230   3.864   9.377   4.835  0.7575 -0.7259  0.1365
11515SOL    HW239231   3.844   9.457   4.708 -0.8668  0.4273  1.0695
11516SOL     OW39232   3.910   9.392   0.810 -0.4436  0.4575 -0.1529
11516SOL    HW139233   3.954   9.374   0.727 -0.7631 -1.4078  0.0370
11516SOL    HW239234   3.862   9.312   0.829  0.1853  0.5640  2.1720
11517SOL     OW39235   8.854  10.120   2.748 -0.0599  0.1596  0.5826
11517SOL    HW139236   8.816  10.177   2.815 -1.8937 -1.1639  0.7342
11517SOL    HW239237   8.842  10.032   2.781 -0.7341 -0.5243 -1.3324
11518SOL     OW39238   7.487   0.918   1.505 -0.1244 -0.2653 -0.2151
11518SOL    HW139239   7.554   0.961   1.558 -0.2655 -0.8534  0.4551
11518SOL    HW239240   7.421   0.890   1.568 -1.4068  0.9841 -0.9292
11519SOL     OW39241   7.843   5.927   3.261  0.3315 -0.1428  0.2492
11519SOL    HW139242   7.906   5.896   3.196 -0.2959  0.0677 -0.4762
11519SOL    HW239243   7.777   5.858   3.264  0.8598 -0.6251  1.4138
11520SOL     OW39244   6.147   3.852   8.295  0.5045  0.0231  0.6752
11520SOL    HW139245   6.213   3.917   8.316 -0.5795  0.9429  1.3755
11520SOL    HW239246   6.098   3.841   8.377 -1.4415  0.8684 -0.3135
11521SOL     OW39247   3.779   5.567   0.530 -0.3752 -0.0536 -0.2142
11521SOL    HW139248   3.816   5.595   0.446  0.6896  1.2156  0.6275
11521SOL    HW239249   3.847   5.512   0.569  0.4903  1.8482  1.1040
11522SOL     OW39250   8.373  11.978   9.359 -0.6086 -0.1268 -0.3395
11522SOL    HW139251   8.303  12.040   9.377  0.6398  1.0059  0.8694
11522SOL    HW239252   8.340  11.924   9.288 -1.4552  2.4536 -2.0327
11523SOL     OW39253   5.093   8.794   1.630 -0.5314  0.2564  0.1695
11523SOL    HW139254   5.018   8.735   1.629 -1.8201  1.8142  0.6437
11523SOL    HW239255   5.056   8.880   1.648  1.3414  1.1436  0.0592
11524SOL     OW39256   4.483   7.588   1.602  0.1644 -0.0228  0.5303
11524SOL    HW139257   4.453   7.678   1.594 -0.6980 -0.3165  0.3317
11524SOL    HW239258   4.472   7.567   1.695 -0.1440 -0.0946  0.4779
11525SOL     OW39259   0.506  11.933   2.691  0.0602 -0.3476 -0.2845
11525SOL    HW139260   0.489  12.026   2.703 -1.2220 -0.5767 -0.1688
11525SOL    HW239261   0.550  11.928   2.606 -1.4889  0.2256 -1.1682
11526SOL     OW39262   1.672   2.506   3.573  0.3496 -0.0640  0.0623
11526SOL    HW139263   1.644   2.414   3.578 -0.5507  0.1703 -0.4900
11526SOL    HW239264   1.600   2.555   3.612  1.3733  0.3351  1.5338
11527SOL     OW39265   7.746  10.156   8.290 -0.3889 -0.1563 -0.2139
11527SOL    HW139266   7.786  10.078   8.326 -2.6404 -0.6485  1.4266
11527SOL    HW239267   7.738  10.138   8.196  1.2865 -0.8284 -0.2594
11528SOL     OW39268   7.248   6.416   8.236  0.1017 -0.6434 -0.5480
11528SOL    HW139269   7.322   6.356   8.244 -0.5441 -1.2702  1.5479
11528SOL    HW239270   7.194   6.397   8.313 -1.7575  0.4445 -1.5193
11529SOL     OW39271   1.019   3.056   6.914 -0.0689 -0.2682 -0.5283
11529SOL    HW139272   0.975   3.029   6.834  2.2421 -3.0946 -1.0254
11529SOL    HW239273   1.110   3.068   6.888  0.1947  1.8479  1.1216
11530SOL     OW39274  10.945   9.104   4.751  0.4824  0.9416 -0.3414
11530SOL    HW139275  10.964   9.198   4.762 -1.0073  1.1986  0.2944
11530SOL    HW239276  10.850   9.098   4.761  0.3355 -0.4173 -2.1268
11531SOL     OW39277   2.769  10.891  10.938 -0.4267  0.5500 -0.3923
11531SOL    HW139278   2.752  10.797  10.928 -1.5333  0.5924  0.7493
11531SOL    HW239279   2.840  10.909  10.877  1.0945 -1.3974  0.6518
11532SOL     OW39280  11.846  10.514   9.774 -0.5155 -0.2868 -0.3904
11532SOL    HW139281  11.922  10.572   9.775 -0.5466 -0.2467  0.5477
11532SOL    HW239282  11.882  10.428   9.753 -0.1051 -0.3925  0.6897
11533SOL     OW39283   4.818   4.168   1.892 -0.6938  0.1124  0.1458
11533SOL    HW139284   4.739   4.119   1.868 -0.2515 -0.1341 -0.8262
11533SOL    HW239285   4.844   4.213   1.812  0.3132 -0.0236  0.3845
11534SOL     OW39286   8.601   7.023   4.565 -0.4642  0.0491  0.5876
11534SOL    HW139287   8.596   6.953   4.500 -1.0244  1.0174 -0.4593
11534SOL    HW239288   8.615   6.978   4.649  0.6915 -1.2029 -0.2444
11535SOL     OW39289  10.495   6.767   6.329 -0.3200  0.2975 -0.6376
11535SOL    HW139290  10.494   6.839   6.265 -0.5895  0.4714 -0.4375
11535SOL    HW239291  10.588   6.742   6.335 -0.2720  0.3874 -0.9746
11536SOL     OW39292  10.077   4.944   5.176  0.5406 -0.1714 -0.2393
11536SOL    HW139293  10.026   5.024   5.186  2.2134  1.0504 -0.9229
11536SOL    HW239294  10.012   4.874   5.174 -0.9619  1.1335  0.6080
11537SOL     OW39295   4.229   8.346  10.915  0.2172  0.1295  0.5024
11537SOL    HW139296   4.303   8.344  10.975  0.9508  0.3932 -0.3768
11537SOL    HW239297   4.267   8.365  10.830 -0.9405  1.0360  0.1536
11538SOL     OW39298   8.301  10.402   2.601 -0.1512 -0.0536 -0.0584
11538SOL    HW139299   8.321  10.417   2.508  0.7489 -1.5580 -0.1295
11538SOL    HW239300   8.209  10.428   2.609 -0.0775  0.6860 -1.2166
11539SOL     OW39301   9.220   8.596   7.053 -0.1685 -0.0139 -0.2554
11539SOL    HW139302   9.150   8.647   7.096 -0.9224 -1.0552 -0.2144
11539SOL    HW239303   9.187   8.581   6.965  0.2457 -0.0602 -0.4022
11540SOL     OW39304   1.079   7.803   4.895  0.4502  0.0796  0.4880
11540SOL    HW139305   1.104   7.802   4.803 -0.1864 -1.1547  0.3019
11540SOL    HW239306   1.040   7.717   4.910  0.2166  0.3946  1.8215
11541SOL     OW39307   2.906   0.085   4.014  0.2865  0.5870  0.2134
11541SOL    HW139308   2.972   0.016   4.018 -1.5285 -1.2704  0.4547
11541SOL    HW239309   2.844   0.062   4.083 -0.5885  2.2854  0.0459
11542SOL     OW39310   2.692   7.302   4.597  0.4608  0.5696 -0.2823
11542SOL    HW139311   2.612   7.286   4.648 -1.1025  4.4787 -1.1736
11542SOL    HW239312   2.682   7.244   4.521 -0.6294 -0.2794  0.4606
11543SOL     OW39313   1.951   5.410   8.299 -0.3337 -0.0973 -0.0533
11543SOL    HW139314   1.965   5.354   8.223  0.2064 -1.9604  1.3422
11543SOL    HW239315   2.037   5.417   8.340 -0.3983  1.7620 -0.1319
11544SOL     OW39316   3.212   4.813   5.470  0.1922 -0.4827  0.1824
11544SOL    HW139317   3.241   4.871   5.400 -0.5413 -1.3511 -0.8881
11544SOL    HW239318   3.288   4.757   5.488  0.7781  0.5402  0.9619
11545SOL     OW39319  11.134  10.986   4.969  0.3285  0.0150  0.1217
11545SOL    HW139320  11.075  11.004   5.042 -0.9243 -1.2481 -0.5122
11545SOL    HW239321  11.151  10.892   4.975  0.2121 -0.1183 -1.1759
11546SOL     OW39322   3.922  10.766   8.043 -0.0161 -0.0973 -0.4574
11546SOL    HW139323   3.838  10.754   8.087 -0.4538  0.4616 -1.1149
11546SOL    HW239324   3.900  10.807   7.960  1.1131  3.0495  0.6290
11547SOL     OW39325  10.277   3.981   1.591  0.2235  0.6025 -0.0708
11547SOL    HW139326  10.261   3.948   1.679 -0.6329  0.9272 -0.0911
11547SOL    HW239327  10.209   3.940   1.537  1.8557 -1.0420 -0.9543
11548SOL     OW39328   5.287   5.995   2.730 -0.2690  0.4422  0.1774
11548SOL    HW139329   5.301   5.903   2.752 -1.8778  0.3054  0.7370
11548SOL    HW239330   5.257   6.036   2.811  0.4589  1.4867 -0.0484
11549SOL     OW39331   2.657   9.831  11.373 -0.3832 -0.6929  0.1270
11549SOL    HW139332   2.651   9.750  11.425  0.5336 -0.7554  0.1521
11549SOL    HW239333   2.576   9.832  11.322  0.1818 -2.3658 -0.9152
11550SOL     OW39334   8.507   1.301  11.088 -0.0021 -0.6820 -0.3023
11550SOL    HW139335   8.444   1.280  11.157 -1.3262 -0.5793 -1.4482
11550SOL    HW239336   8.467   1.373  11.040  1.7925  0.5584 -0.0218
11551SOL     OW39337   0.377   6.960   4.625  0.2088 -0.1405  0.2259
11551SOL    HW139338   0.389   6.881   4.572 -0.5329  0.8880 -1.5698
11551SOL    HW239339   0.457   6.966   4.677 -0.2785 -2.7913  1.4761
11552SOL     OW39340   0.705   0.896  11.130  0.7042 -0.3451  0.8570
11552SOL    HW139341   0.762   0.832  11.087  0.0747 -0.4338  0.1501
11552SOL    HW239342   0.683   0.855  11.214 -1.1196 -1.8863 -0.2936
11553SOL     OW39343   6.499  11.533   5.307  0.5602 -0.2608  0.3027
11553SOL    HW139344   6.481  11.593   5.380  2.5263 -1.5962  1.9742
11553SOL    HW239345   6.594  11.536   5.296  0.4671 -1.4284 -1.0655
11554SOL     OW39346   2.183   6.748  10.153  0.0590  0.2637  0.0769
11554SOL    HW139347   2.213   6.807  10.083 -1.6263  4.2166  2.3082
11554SOL    HW239348   2.100   6.714  10.122  0.2995  0.3099 -0.6377
11555SOL     OW39349  10.042   3.895   0.815 -0.4514 -0.0922  0.0699
11555SOL    HW139350  10.100   3.969   0.799  2.6148 -2.1501  0.7690
11555SOL    HW239351  10.010   3.870   0.728 -1.5396  1.9595 -0.1662
11556SOL     OW39352  11.580   7.918   5.451  0.4552 -0.0163  0.0155
11556SOL    HW139353  11.552   7.858   5.520  0.6725  3.1258  3.1933
11556SOL    HW239354  11.674   7.902   5.442  0.3225 -0.8266  0.0609
11557SOL     OW39355  11.953   7.555   4.973  0.1702 -0.6105  0.3885
11557SOL    HW139356  12.031   7.571   5.027  0.5354 -2.1588  0.3713
11557SOL    HW239357  11.985   7.557   4.883  0.2996 -1.6978  0.3990
11558SOL     OW39358   4.695  11.526   1.172  0.5670 -0.2052 -0.2034
11558SOL    HW139359   4.676  11.588   1.243  1.1975 -0.2797  0.0369
11558SOL    HW239360   4.789  11.537   1.155  0.5985 -0.7963 -0.4390
11559SOL     OW39361   5.514  10.844   0.153 -0.2383  0.5776  0.8168
11559SOL    HW139362   5.568  10.911   0.194 -0.8722  1.6655 -0.0741
11559SOL    HW239363   5.424  10.875   0.164 -0.5632 -0.2934  0.6939
11560SOL     OW39364   9.639   9.318   8.176 -0.0688  0.0067  0.2589
11560SOL    HW139365   9.697   9.368   8.234  2.0895 -0.9919 -0.9448
11560SOL    HW239366   9.557   9.311   8.226  1.0519  0.8065  2.3664
11561SOL     OW39367   8.146   9.378   4.219 -0.6295  0.2897 -0.2789
11561SOL    HW139368   8.137   9.298   4.167  1.1868 -1.0428  1.3232
11561SOL    HW239369   8.188   9.440   4.160  0.8867 -1.0084 -0.6170
11562SOL     OW39370   7.598   5.236   4.538 -0.3028  0.1072  0.0575
11562SOL    HW139371   7.551   5.160   4.573  0.0546  0.3348  1.0484
11562SOL    HW239372   7.593   5.301   4.608 -0.9493  1.1470 -0.9304
11563SOL     OW39373   6.492  11.424   9.729 -0.4297 -0.1796 -0.4107
11563SOL    HW139374   6.424  11.394   9.668 -1.7626 -1.0805  1.4215
11563SOL    HW239375   6.500  11.353   9.792 -1.7787  2.0940  2.5911
11564SOL     OW39376   6.325  11.477   0.002  0.4414  0.4283 -0.0631
11564SOL    HW139377   6.337  11.570   0.019  0.1547  0.6235 -0.8672
11564SOL    HW239378   6.275  11.445   0.077  0.8345  0.8483  0.3836
11565SOL     OW39379   3.793   1.984   3.249  0.1146 -0.1043 -0.4915
11565SOL    HW139380   3.792   2.038   3.328 -2.9589 -2.2401  1.1625
11565SOL    HW239381   3.869   1.926   3.259 -0.4240 -0.5683  1.1427
11566SOL     OW39382  11.292   4.376   3.908  0.2330 -0.8507 -0.0303
11566SOL    HW139383  11.356   4.429   3.957  0.4326 -0.1395 -1.0262
11566SOL    HW239384  11.315   4.390   3.816 -0.7029 -1.4334 -0.3626
11567SOL     OW39385   7.955  11.387   8.005 -0.4652  0.1865  0.2407
11567SOL    HW139386   7.924  11.363   7.918  1.0628  1.3485 -0.6528
11567SOL    HW239387   7.972  11.303   8.048  1.2149 -0.4423 -1.5003
11568SOL     OW39388   1.380   1.490   3.630  0.2884  0.3592 -0.2092
11568SOL    HW139389   1.338   1.467   3.547 -1.5753  2.1485  0.1436
11568SOL    HW239390   1.467   1.450   3.626  0.2610  0.4274 -3.0315
11569SOL     OW39391   8.856   5.815   1.141 -0.3159 -0.2914  0.3686
11569SOL    HW139392   8.810   5.892   1.106  0.6217  1.2034  2.2600
11569SOL    HW239393   8.930   5.803   1.081 -0.7706 -0.0943 -0.2524
11570SOL     OW39394   7.485   6.196   3.084 -0.3280  0.2925 -0.4991
11570SOL    HW139395   7.570   6.160   3.061 -1.2684 -1.2181 -1.7973
11570SOL    HW239396   7.434   6.192   3.003 -1.5107  1.5694  0.1343
11571SOL     OW39397   6.670  10.734   0.244 -0.2196  0.1554 -0.1001
11571SOL    HW139398   6.681  10.811   0.189 -1.5173  0.5969  0.2430
11571SOL    HW239399   6.614  10.675   0.192 -0.5539  0.1198  0.3002
11572SOL     OW39400  11.032   9.410   1.875  0.2577  0.3580 -0.2063
11572SOL    HW139401  11.112   9.462   1.880  0.4077  0.0685  0.4727
11572SOL    HW239402  11.019   9.396   1.781  1.2157  0.0881 -0.3151
11573SOL     OW39403   5.777   6.661   6.844 -0.1775  0.1794 -0.3674
11573SOL    HW139404   5.697   6.626   6.803  0.0725  1.6238 -2.2123
11573SOL    HW239405   5.843   6.593   6.828 -0.7719 -0.5549  0.2270
11574SOL     OW39406   3.844   4.284   5.093 -0.7973 -0.5374  0.2129
11574SOL    HW139407   3.783   4.268   5.165 -1.2655  1.2470  0.2679
11574SOL    HW239408   3.862   4.378   5.097 -0.3776 -0.4899 -1.6532
11575SOL     OW39409   9.056   2.968   6.476  0.6635 -0.9703  0.1761
11575SOL    HW139410   9.112   2.943   6.403  0.8509  2.4226 -1.0164
11575SOL    HW239411   9.115   3.014   6.536 -0.2502  0.0391  0.3316
11576SOL     OW39412   8.748  11.153   7.896  0.1409  0.0682 -0.1092
11576SOL    HW139413   8.807  11.081   7.917 -0.4903 -0.4958 -0.2260
11576SOL    HW239414   8.684  11.153   7.967  1.2386  1.7823  0.9674
11577SOL     OW39415  11.713   8.217  11.725 -0.1101 -0.2352  0.3281
11577SOL    HW139416  11.635   8.249  11.681  0.4937  0.0657 -0.5587
11577SOL    HW239417  11.712   8.123  11.712 -0.3499 -0.2374  0.3637
11578SOL     OW39418   1.882   1.053   3.373  0.0791 -0.0978 -0.5913
11578SOL    HW139419   1.817   0.983   3.376 -0.7784  0.4928 -2.9886
11578SOL    HW239420   1.879   1.085   3.283  0.9642  2.5414  0.2195
11579SOL     OW39421   6.582   8.099   2.593 -0.5738  0.2296  0.9939
11579SOL    HW139422   6.618   8.155   2.662  0.7900 -0.0674  0.5531
11579SOL    HW239423   6.658   8.074   2.541 -1.5410  0.2532 -0.4820
11580SOL     OW39424   9.950  11.522   5.248  0.1850 -0.1462  0.7369
11580SOL    HW139425   9.917  11.587   5.310  1.3260  0.9601  0.2275
11580SOL    HW239426   9.972  11.573   5.170  3.1768 -0.7636  1.0683
11581SOL     OW39427   8.472   3.428  10.865 -0.1085 -0.0576 -0.0003
11581SOL    HW139428   8.505   3.352  10.913  0.2804  2.1979  3.7145
11581SOL    HW239429   8.381   3.436  10.895 -0.4335  0.4164 -1.0929
11582SOL     OW39430   0.771   3.715   3.290  0.1129 -0.4158  0.3185
11582SOL    HW139431   0.703   3.737   3.226 -1.2046 -0.8190  1.5285
11582SOL    HW239432   0.814   3.638   3.254 -0.7507 -0.7599 -0.0055
11583SOL     OW39433  11.680   3.765   1.704 -0.4720  0.1124 -0.6139
11583SOL    HW139434  11.686   3.843   1.759 -3.2604 -0.1843  0.2343
11583SOL    HW239435  11.667   3.799   1.616  2.3108  0.5577 -0.9604
11584SOL     OW39436   0.050   9.887   0.804 -0.5803 -0.2365  1.0318
11584SOL    HW139437   0.144   9.878   0.821 -0.1591 -3.2890 -1.7936
11584SOL    HW239438   0.011   9.810   0.844 -1.8116  0.6341  1.5614
11585SOL     OW39439   7.126   1.069   4.819 -0.0328  0.0629  0.5128
11585SOL    HW139440   7.198   1.087   4.880  1.6630 -3.1892 -0.3159
11585SOL    HW239441   7.058   1.030   4.874 -0.1916  0.8636  0.9062
11586SOL     OW39442   9.254   1.128   9.470  0.0016 -0.2750  0.0835
11586SOL    HW139443   9.171   1.113   9.425 -0.6108  0.0977  1.0518
11586SOL    HW239444   9.298   1.195   9.417 -1.4088  1.3435  0.8621
11587SOL     OW39445   0.596   0.124   4.758  0.4266  0.1384 -0.5400
11587SOL    HW139446   0.595   0.198   4.819 -0.9939 -0.5698  0.3780
11587SOL    HW239447   0.543   0.153   4.684  0.7200  0.3907 -0.6545
11588SOL     OW39448  11.782   0.661   2.959  0.3078  0.3072  0.2085
11588SOL    HW139449  11.715   0.616   2.907  1.2677 -1.2886  0.2675
11588SOL    HW239450  11.792   0.606   3.037  3.4395 -1.0196 -0.9582
11589SOL     OW39451  11.761   1.041   3.785  0.7703  0.1713 -0.2957
11589SOL    HW139452  11.774   1.068   3.694  0.4830 -0.0514 -0.4052
11589SOL    HW239453  11.798   1.113   3.837 -0.3061  0.9499 -0.5739
11590SOL     OW39454   5.025  10.544   2.208  0.4214 -0.0943  0.1132
11590SOL    HW139455   4.946  10.495   2.187  0.2292 -0.2629  1.1601
11590SOL    HW239456   5.092  10.477   2.219  0.2697 -0.1164  1.0580
11591SOL     OW39457   0.736   2.536   1.784 -0.1052 -0.6476  0.1344
11591SOL    HW139458   0.830   2.525   1.768  0.3167  0.6196  1.5148
11591SOL    HW239459   0.713   2.617   1.738 -0.3249 -0.5133  0.4755
11592SOL     OW39460   4.339   9.543   3.180  0.6133  0.1491 -0.8667
11592SOL    HW139461   4.333   9.559   3.274  2.0786 -0.4887 -0.6349
11592SOL    HW239462   4.422   9.497   3.169  0.9996  1.1707 -2.5953
11593SOL     OW39463  10.335  11.521  10.004 -0.1448  0.3739  0.0945
11593SOL    HW139464  10.305  11.434   9.980  0.9812 -0.3006  1.0499
11593SOL    HW239465  10.267  11.555  10.063 -0.8392  0.3681 -0.6919
11594SOL     OW39466  10.444   4.740   1.255 -0.2694  0.3240 -0.1266
11594SOL    HW139467  10.419   4.783   1.173 -0.0840  1.8717  0.6006
11594SOL    HW239468  10.367   4.687   1.278 -0.8733  0.9759 -0.5784
11595SOL     OW39469   8.440   5.636  10.792  0.0489  0.1589  0.2406
11595SOL    HW139470   8.432   5.724  10.829  1.1728 -0.4188  2.0105
11595SOL    HW239471   8.502   5.645  10.720 -0.1841  0.8769  0.1232
11596SOL     OW39472   2.611   5.470   7.407 -0.1157 -0.2590 -0.4226
11596SOL    HW139473   2.661   5.511   7.478 -1.2634 -0.6540  0.6340
11596SOL    HW239474   2.596   5.380   7.436 -0.7854 -0.3632 -1.0624
11597SOL     OW39475   2.448   6.868  11.382  0.2695 -0.7070  0.5449
11597SOL    HW139476   2.484   6.852  11.469 -1.6116  1.0008  1.7260
11597SOL    HW239477   2.520   6.910  11.334  1.6101 -2.4337  0.9255
11598SOL     OW39478   1.980   9.107   3.873  0.0241  0.1970 -0.3888
11598SOL    HW139479   1.906   9.166   3.860 -1.6172 -1.7052 -0.1262
11598SOL    HW239480   2.032   9.116   3.793 -1.0341  0.8143 -1.0293
11599SOL     OW39481   3.181   8.124   9.362  0.5116  0.0978 -0.1575
11599SOL    HW139482   3.102   8.173   9.383  1.2150  0.6130  1.4672
11599SOL    HW239483   3.153   8.032   9.361  0.1336  0.1299  1.9376
11600SOL     OW39484  11.257  11.024   9.116 -0.7840  0.6154 -0.1710
11600SOL    HW139485  11.318  11.022   9.190  0.7682  0.3270 -1.3866
11600SOL    HW239486  11.223  10.935   9.111  1.2065 -0.1607 -1.3774
11601SOL     OW39487   9.352   8.206   7.033  0.4487 -0.2636  0.5231
11601SOL    HW139488   9.434   8.241   7.066  0.2718 -0.4106  1.1243
11601SOL    HW239489   9.372   8.115   7.009  0.4190 -0.3498  0.8271
11602SOL     OW39490   7.683   4.051   1.449  0.0197  0.4665  0.4829
11602SOL    HW139491   7.683   4.111   1.374  0.1016 -1.9084 -1.5161
11602SOL    HW239492   7.761   3.998   1.439 -1.4123 -1.8161  0.5746
11603SOL     OW39493   9.958   3.079   0.098  0.1697  0.0499  0.2065
11603SOL    HW139494   9.934   3.077   0.191 -0.2337 -0.4946  0.0956
11603SOL    HW239495  10.000   3.164   0.086 -0.3576  0.3971  0.7469
11604SOL     OW39496   2.337   6.040   8.797 -0.3244  0.3555  0.8266
11604SOL    HW139497   2.273   6.074   8.859 -0.6686  0.1823  0.5631
11604SOL    HW239498   2.289   6.030   8.715  0.4156  1.8114  0.1643
11605SOL     OW39499   4.482   7.626   9.509 -0.0564  0.2059 -0.0728
11605SOL    HW139500   4.486   7.593   9.598 -0.2785  0.4393  0.0245
11605SOL    HW239501   4.510   7.718   9.516 -0.2645  0.2805 -0.2119
11606SOL     OW39502   9.041   4.364   9.741  0.7793 -0.1484  0.1574
11606SOL    HW139503   8.991   4.335   9.818  3.7829 -1.7789  1.6837
11606SOL    HW239504   9.093   4.438   9.773 -0.0673  1.0597 -1.1743
11607SOL     OW39505   0.627   2.308   2.991 -0.2713 -0.2437 -0.4514
11607SOL    HW139506   0.721   2.322   2.983 -0.6133  1.4860 -1.9439
11607SOL    HW239507   0.598   2.373   3.056 -0.3866 -1.1260  0.4061
11608SOL     OW39508   0.585  10.836   2.152 -0.4313  0.3982  0.0419
11608SOL    HW139509   0.507  10.797   2.113 -0.8503  0.7394  0.5231
11608SOL    HW239510   0.651  10.767   2.149 -0.7207  0.1390 -0.4580
11609SOL     OW39511   7.164  10.621  11.040  0.2832 -0.2384  0.1771
11609SOL    HW139512   7.101  10.549  11.037  0.9028 -0.7943  0.3163
11609SOL    HW239513   7.112  10.697  11.066 -0.4816 -0.5125 -0.5080
11610SOL     OW39514   6.532   7.027   1.865  0.2755 -0.4619  0.1401
11610SOL    HW139515   6.606   7.069   1.908  0.0841  0.6372 -0.5518
11610SOL    HW239516   6.559   7.018   1.774 -1.5432  2.8790 -0.8787
11611SOL     OW39517   8.218   0.891  10.214  0.2989 -0.0636  0.1398
11611SOL    HW139518   8.205   0.912  10.306  1.5860  2.2198 -0.1454
11611SOL    HW239519   8.193   0.799  10.207  0.2987 -0.3311  2.7837
11612SOL     OW39520   6.268  11.986   9.873  0.2165 -0.4084  0.3612
11612SOL    HW139521   6.319  12.059   9.838 -0.5845  0.4723  0.9907
11612SOL    HW239522   6.318  11.957   9.950 -0.5823  0.9487  1.4271
11613SOL     OW39523   2.380   2.639   2.877 -0.1594 -0.5810 -0.5812
11613SOL    HW139524   2.462   2.619   2.922 -0.3345  0.8609  0.4403
11613SOL    HW239525   2.325   2.562   2.892 -0.3907  0.0213  2.1422
11614SOL     OW39526  11.277   1.271   0.885  0.6413  0.7964  0.2140
11614SOL    HW139527  11.200   1.324   0.907 -0.0358  0.3997 -1.1431
11614SOL    HW239528  11.344   1.301   0.947 -0.5704  1.1743  1.4074
11615SOL     OW39529   6.300   7.745   4.788 -0.3089 -0.2283  0.2223
11615SOL    HW139530   6.339   7.689   4.855  0.0212 -1.5570 -1.0043
11615SOL    HW239531   6.369   7.755   4.722 -0.7936  0.5855 -0.1777
11616SOL     OW39532   7.352   3.999   3.111  0.4721  0.1114 -0.2958
11616SOL    HW139533   7.258   3.983   3.101  0.0803  2.2895 -0.6514
11616SOL    HW239534   7.390   3.912   3.126 -1.6886 -0.7365  0.7211
11617SOL     OW39535  10.958   1.363   6.653  0.1375  0.2060  0.4956
11617SOL    HW139536  10.894   1.423   6.692  0.1836  0.0364  0.8324
11617SOL    HW239537  10.976   1.299   6.722 -0.5301 -0.6813 -0.1273
11618SOL     OW39538  11.031   7.496  11.562 -0.8344  0.5420  0.3356
11618SOL    HW139539  10.985   7.579  11.549 -0.6022  0.8516  1.4077
11618SOL    HW239540  11.094   7.514  11.632  1.1187  0.1974 -1.2390
11619SOL     OW39541   4.045   3.010   9.047  0.0567 -0.5840  0.1488
11619SOL    HW139542   4.014   2.922   9.025 -1.1109  0.1034 -1.1151
11619SOL    HW239543   3.969   3.067   9.031  1.4383  0.9437 -1.3761
11620SOL     OW39544  11.788   6.288   7.567 -0.1568  0.2280 -0.3074
11620SOL    HW139545  11.858   6.354   7.567 -0.0639  0.1300 -0.1204
11620SOL    HW239546  11.791   6.250   7.654 -0.2503  0.0174 -0.3947
11621SOL     OW39547   6.484   4.340   7.417 -0.1982 -0.4456 -0.0600
11621SOL    HW139548   6.425   4.380   7.353 -0.5504  0.2868  0.7065
11621SOL    HW239549   6.430   4.277   7.464  0.0324 -0.9031 -0.3976
11622SOL     OW39550   8.715   4.957   6.362  0.2611  0.0849 -0.2675
11622SOL    HW139551   8.645   5.021   6.350 -2.1125 -1.8274  2.2147
11622SOL    HW239552   8.702   4.893   6.291  1.2244  1.0734 -1.3818
11623SOL     OW39553  10.408   9.908   3.840 -0.2666  0.0407 -0.6580
11623SOL    HW139554  10.355   9.875   3.767  0.2699 -0.3463 -0.8736
11623SOL    HW239555  10.436   9.995   3.811 -0.2572 -0.0138 -0.8140
11624SOL     OW39556   3.528   1.645   3.040  0.0611 -0.1622  0.1564
11624SOL    HW139557   3.539   1.550   3.031 -0.4107 -0.2383  0.3589
11624SOL    HW239558   3.550   1.680   2.953 -1.0069 -0.5688 -0.2926
11625SOL     OW39559   2.672   0.636   5.940 -0.2938 -0.2658 -0.1055
11625SOL    HW139560   2.650   0.722   5.904 -0.0629 -0.3966 -0.5614
11625SOL    HW239561   2.725   0.655   6.017  0.4996 -0.0156 -0.7052
11626SOL     OW39562   4.376   5.038   1.036 -0.6141 -0.9311  0.4190
11626SOL    HW139563   4.356   5.013   0.946  0.3351 -1.8670  0.4567
11626SOL    HW239564   4.471   5.040   1.040 -0.5995  1.8604  0.6618
11627SOL     OW39565  11.724   3.164   7.550  0.0822  0.6522  0.2141
11627SOL    HW139566  11.718   3.221   7.474 -0.1665  1.5682  0.9033
11627SOL    HW239567  11.815   3.171   7.579 -0.4211  2.3603  1.5227
11628SOL     OW39568  10.980   0.750   2.948  0.5623 -0.0721 -0.1122
11628SOL    HW139569  11.045   0.701   2.898  0.1807 -0.1066 -0.5875
11628SOL    HW239570  10.914   0.775   2.883  1.0309  1.5749  0.0129
11629SOL     OW39571  10.259   1.971   3.700  0.5452  0.2006  0.2003
11629SOL    HW139572  10.291   1.926   3.621  2.3659  1.3101  0.2392
11629SOL    HW239573  10.275   2.064   3.682 -2.8167  0.8955  0.2541
11630SOL     OW39574   8.169  11.886   7.018  0.1165 -0.3594  0.5157
11630SOL    HW139575   8.159  11.868   6.924 -1.6375 -0.2523  0.6539
11630SOL    HW239576   8.238  11.952   7.022  2.0975 -2.2041 -0.4776
11631SOL     OW39577   2.599   3.928   4.959 -0.0007  0.0030  0.0634
11631SOL    HW139578   2.616   3.913   5.052 -0.3244 -0.7562  0.0086
11631SOL    HW239579   2.686   3.938   4.920  0.1223  0.6590  0.4969
11632SOL     OW39580   0.671   9.163  11.424 -0.0867 -0.4173  0.0713
11632SOL    HW139581   0.740   9.136  11.364  1.2692 -0.3082  1.4983
11632SOL    HW239582   0.683   9.257  11.434 -0.8297 -0.2980 -0.1213
11633SOL     OW39583   5.690   1.044   1.444 -0.3339 -0.0966  0.1415
11633SOL    HW139584   5.681   1.053   1.349  0.7250  0.2039  0.0489
11633SOL    HW239585   5.776   1.004   1.456  0.0458  0.9159  1.0076
11634SOL     OW39586   1.812   2.143   6.827  0.6980 -0.0179 -0.0991
11634SOL    HW139587   1.873   2.130   6.900  0.1516 -0.7158  0.2431
11634SOL    HW239588   1.828   2.233   6.798  0.6332  0.4088  1.1481
11635SOL     OW39589   9.123  11.588   9.398  0.5252 -0.8113  0.4952
11635SOL    HW139590   9.084  11.556   9.317  0.1362  0.8771 -0.0371
11635SOL    HW239591   9.050  11.589   9.460  0.2203  0.1868  0.1466
11636SOL     OW39592   7.064   6.753   9.886  0.4591 -0.5259  0.2688
11636SOL    HW139593   7.070   6.679   9.825 -0.1393 -0.2947 -0.0846
11636SOL    HW239594   7.018   6.718   9.962  0.8596 -0.7113  0.4324
11637SOL     OW39595  11.288  10.598   5.889 -0.0696  0.4871  0.8288
11637SOL    HW139596  11.255  10.677   5.847  0.5388 -0.0145 -0.6392
11637SOL    HW239597  11.270  10.528   5.827  1.6722 -0.1434  0.9716
11638SOL     OW39598   4.050  11.496   0.002  0.1612  0.2859 -0.6742
11638SOL    HW139599   4.026  11.465  -0.085  2.4707  1.8621 -1.9892
11638SOL    HW239600   4.080  11.586  -0.012  2.3368 -0.0127  1.4015
11639SOL     OW39601   7.476   5.735   1.562 -0.0836  0.1992  0.2722
11639SOL    HW139602   7.568   5.714   1.546  0.7287  1.8646  2.2871
11639SOL    HW239603   7.454   5.686   1.641 -1.0996 -0.5540 -0.4561
11640SOL     OW39604   9.897  10.074   1.406  0.0293 -0.0828  0.3730
11640SOL    HW139605   9.895  10.170   1.405 -0.5051 -0.0825  0.8245
11640SOL    HW239606   9.971  10.051   1.351 -0.4907  0.5742 -0.6338
11641SOL     OW39607   4.371   4.293   0.728 -0.0313 -0.3580 -0.4101
11641SOL    HW139608   4.377   4.340   0.645  1.2644 -1.1088 -0.7740
11641SOL    HW239609   4.385   4.360   0.795  4.6192 -0.4488 -0.9510
11642SOL     OW39610   8.875   3.420   9.667  0.3219  0.1762  0.7556
11642SOL    HW139611   8.817   3.412   9.742 -0.1882  0.8000  0.4328
11642SOL    HW239612   8.819   3.451   9.596  0.9427  0.2881  0.3011
11643SOL     OW39613   3.841   4.900  10.555 -0.2237 -0.2334  0.1983
11643SOL    HW139614   3.791   4.881  10.476 -0.3296 -1.3079  0.5000
11643SOL    HW239615   3.913   4.837  10.554  0.8312  0.9287  0.0562
11644SOL     OW39616   1.921   4.511  11.067 -0.2034 -0.0355 -0.2302
11644SOL    HW139617   1.917   4.420  11.038 -1.5589  0.7131 -2.6806
11644SOL    HW239618   1.835   4.547  11.046  0.1334  1.7053  1.1460
11645SOL     OW39619   7.736   2.753   7.611  0.0497  0.3601  0.4907
11645SOL    HW139620   7.803   2.819   7.593  1.3046 -1.2141 -0.9621
11645SOL    HW239621   7.724   2.755   7.706  0.2439  2.4410  0.5168
11646SOL     OW39622   8.407  11.533   6.977  0.1832  0.8197  0.2794
11646SOL    HW139623   8.469  11.590   6.931  0.5309 -0.5897 -1.0833
11646SOL    HW239624   8.439  11.530   7.067  1.2393  1.2870 -0.0682
11647SOL     OW39625   0.426   0.993   7.478  0.2241 -0.0270 -0.1877
11647SOL    HW139626   0.492   1.007   7.545 -0.0875 -1.6515  0.5097
11647SOL    HW239627   0.469   0.940   7.411 -0.4999 -1.7311  0.6185
11648SOL     OW39628   3.884   4.486   9.028  0.3915  0.0160 -0.0797
11648SOL    HW139629   3.934   4.506   9.107 -1.0084  0.9081  0.6007
11648SOL    HW239630   3.851   4.571   8.998 -1.0583 -0.6055 -0.2851
11649SOL     OW39631   1.852   8.477  10.372 -0.5076 -0.0937  0.2739
11649SOL    HW139632   1.924   8.432  10.418  0.4662 -0.9870 -1.9673
11649SOL    HW239633   1.870   8.570  10.385  1.3511 -0.2851 -0.5869
11650SOL     OW39634   6.942   0.949   8.028  0.0785  0.1412 -0.3154
11650SOL    HW139635   6.889   1.009   8.081  0.5737  2.5774 -2.3321
11650SOL    HW239636   7.032   0.967   8.055  0.2132  0.1664 -0.7671
11651SOL     OW39637   2.182   1.360   7.194  0.6024  0.1081 -0.4095
11651SOL    HW139638   2.206   1.452   7.183  0.0598  0.7326  2.6605
11651SOL    HW239639   2.103   1.350   7.141  0.0707  1.7446 -0.0157
11652SOL     OW39640   0.102   8.152   5.629 -0.3179  0.1710  0.2076
11652SOL    HW139641   0.187   8.192   5.647 -0.2530 -0.3227  1.0272
11652SOL    HW239642   0.122   8.065   5.597 -0.5199 -0.1864  1.0256
11653SOL     OW39643   8.813   2.963   6.133 -0.4274  0.1082 -0.1609
11653SOL    HW139644   8.857   2.882   6.107  0.5783 -0.0018  1.7102
11653SOL    HW239645   8.809   3.015   6.053 -2.8450 -2.4739 -1.9450
11654SOL     OW39646   1.398   4.049   8.405  0.1191 -0.3389  0.3957
11654SOL    HW139647   1.451   4.124   8.431 -1.1843  1.3383 -1.5589
11654SOL    HW239648   1.458   3.993   8.356  0.7711  0.0493  0.7287
11655SOL     OW39649   1.223   0.807   7.811 -0.3713 -0.7203 -0.1154
11655SOL    HW139650   1.227   0.807   7.715 -3.5187  0.9019 -0.3912
11655SOL    HW239651   1.290   0.870   7.837  1.8743 -2.5832 -1.0103
11656SOL     OW39652   1.495   7.623   4.894 -0.3210  0.5632 -0.1462
11656SOL    HW139653   1.533   7.585   4.973 -1.6670  1.6073  1.0482
11656SOL    HW239654   1.411   7.579   4.884 -0.4685  0.9429 -0.6185
11657SOL     OW39655   9.352  11.616   6.056 -0.5416  0.1433  0.1604
11657SOL    HW139656   9.318  11.635   6.143 -0.0409 -1.2976  0.6942
11657SOL    HW239657   9.329  11.693   6.004 -1.9196  0.5122  1.2506
11658SOL     OW39658   4.160  11.908   3.836  0.0186 -0.1825 -0.1202
11658SOL    HW139659   4.151  11.959   3.756  1.0637 -1.3885 -1.0510
11658SOL    HW239660   4.180  11.972   3.903 -0.6225  0.8277 -0.8617
11659SOL     OW39661   7.751   6.037   0.498  0.2582  0.3705 -0.2116
11659SOL    HW139662   7.695   6.097   0.450 -0.0601  0.3138  0.0842
11659SOL    HW239663   7.834   6.085   0.509  0.7103 -0.0293 -1.7405
11660SOL     OW39664   6.096   9.427   9.959  0.2471  0.1931  0.2888
11660SOL    HW139665   6.189   9.438   9.939  0.7053  0.1942  2.2427
11660SOL    HW239666   6.068   9.513   9.990 -0.0120 -0.1834  1.1194
11661SOL     OW39667   6.431   8.737   5.292  0.1184 -0.4454 -0.3359
11661SOL    HW139668   6.480   8.659   5.318  1.0278  0.0748 -0.4284
11661SOL    HW239669   6.354   8.704   5.247  1.6678 -1.3003 -2.5227
11662SOL     OW39670   0.855   2.735   2.971 -0.1021  0.4685 -0.0800
11662SOL    HW139671   0.916   2.667   2.944 -0.1166 -0.3009  1.6622
11662SOL    HW239672   0.768   2.694   2.962 -0.2104  0.7366 -0.2899
11663SOL     OW39673   1.082   3.761   6.958  0.1833 -0.4464 -0.0647
11663SOL    HW139674   1.080   3.779   7.052 -0.3729  1.2657 -0.3709
11663SOL    HW239675   1.176   3.757   6.937  0.3436  0.7446  0.3172
11664SOL     OW39676   6.602   4.267   9.294  0.2728  0.4316 -0.2900
11664SOL    HW139677   6.609   4.244   9.201  1.6464 -0.9903  0.1279
11664SOL    HW239678   6.680   4.319   9.312 -0.2000  1.0510 -0.0117
11665SOL     OW39679   3.480   9.391   5.652  0.2319  0.2150  0.0562
11665SOL    HW139680   3.399   9.362   5.610 -0.2000  0.4320  0.7218
11665SOL    HW239681   3.548   9.335   5.614 -0.3649 -0.6268  0.1885
11666SOL     OW39682   0.965   3.678   5.420 -0.0711  0.0424  0.1539
11666SOL    HW139683   0.953   3.598   5.471  1.9515  0.4282  1.3438
11666SOL    HW239684   0.977   3.647   5.330 -1.1240 -0.8457  0.3010
11667SOL     OW39685   0.607  11.803   5.950 -0.6757  0.4556 -0.0073
11667SOL    HW139686   0.696  11.823   5.919 -0.7353 -0.1867 -0.6180
11667SOL    HW239687   0.554  11.798   5.871 -1.2361  0.7074  0.3456
11668SOL     OW39688   1.961   6.678   2.167  0.3086  0.2098 -0.0136
11668SOL    HW139689   2.056   6.688   2.157  0.3119  0.7478  0.5417
11668SOL    HW239690   1.950   6.590   2.202  0.5362 -0.2087 -0.9505
11669SOL     OW39691  11.647   6.751   0.828  0.0564 -0.3587  0.7209
11669SOL    HW139692  11.635   6.716   0.739  0.6370  0.3022  0.3760
11669SOL    HW239693  11.741   6.760   0.838 -0.0618  0.7714  0.9351
11670SOL     OW39694  10.520   4.462   5.037  0.0017  0.3089  0.3841
11670SOL    HW139695  10.572   4.385   5.016  1.2197  1.3834 -0.6555
11670SOL    HW239696  10.434   4.444   4.998 -0.0287 -0.9005  0.9637
11671SOL     OW39697   3.636  11.429  10.131  0.2921 -0.2322  0.1528
11671SOL    HW139698   3.703  11.459  10.193  0.4621 -1.9565  0.8696
11671SOL    HW239699   3.565  11.492  10.140  1.0818  0.5986  0.7406
11672SOL     OW39700   5.316   0.608   6.385  0.3570 -0.0662  0.0075
11672SOL    HW139701   5.257   0.673   6.426 -0.2377 -0.0380 -0.8654
11672SOL    HW239702   5.292   0.609   6.293  0.7224 -1.1448 -0.1115
11673SOL     OW39703  10.349   7.521   5.727 -0.3199  0.6639  0.0513
11673SOL    HW139704  10.299   7.545   5.805  1.6613 -0.0105  1.6301
11673SOL    HW239705  10.292   7.461   5.679 -1.2525  0.3323  1.4939
11674SOL     OW39706  11.433   3.432   0.302  0.0038 -0.0015 -0.4171
11674SOL    HW139707  11.520   3.398   0.324  0.4463  0.8343 -0.8334
11674SOL    HW239708  11.408   3.387   0.222 -0.8217 -1.7100  0.7487
11675SOL     OW39709   9.307   6.803   3.317  0.1699 -0.1847 -0.3790
11675SOL    HW139710   9.326   6.808   3.223  0.2545  1.1793 -0.3108
11675SOL    HW239711   9.344   6.883   3.353  0.9368 -1.1115  0.9911
11676SOL     OW39712   3.647   5.835   3.005 -0.5907  0.2605 -0.0189
11676SOL    HW139713   3.647   5.800   2.916 -1.0556  1.0753 -0.3550
11676SOL    HW239714   3.662   5.759   3.061 -1.3499 -0.4412 -0.7336
11677SOL     OW39715   9.102   0.994   8.549 -0.9437 -0.5400  0.8219
11677SOL    HW139716   9.135   1.031   8.468 -3.4206 -1.2489 -0.6143
11677SOL    HW239717   9.138   1.050   8.618  2.1006 -0.5550 -0.5905
11678SOL     OW39718   3.257  10.465  11.071 -0.2261  0.3974 -0.2454
11678SOL    HW139719   3.341  10.489  11.110  0.3347 -2.4577  0.5673
11678SOL    HW239720   3.201  10.443  11.145 -0.5571 -0.9594 -0.8619
11679SOL     OW39721   2.869   8.477   2.154  0.5907 -0.3474 -0.3095
11679SOL    HW139722   2.860   8.492   2.060 -2.5273 -0.0279 -0.0930
11679SOL    HW239723   2.868   8.565   2.193 -1.7943 -0.4900  0.1254
11680SOL     OW39724   2.563  10.452   8.268 -0.2298 -0.1043  0.2157
11680SOL    HW139725   2.632  10.397   8.305 -0.2192 -0.6607 -0.5934
11680SOL    HW239726   2.608  10.507   8.205 -0.7516 -1.8795 -1.8363
11681SOL     OW39727  11.462   7.708   5.567  0.9248  0.1358  0.0028
11681SOL    HW139728  11.367   7.704   5.561  0.8345  1.5061  0.2245
11681SOL    HW239729  11.490   7.617   5.564 -0.3780 -0.2770 -0.2559
11682SOL     OW39730   3.486   7.549   4.710 -0.0663  0.2518 -0.5041
11682SOL    HW139731   3.500   7.524   4.801  0.2027 -1.3603 -0.9525
11682SOL    HW239732   3.524   7.637   4.703  0.0768  0.3194  0.8857
11683SOL     OW39733   4.577   6.480  10.952 -0.3710 -0.6285 -0.0415
11683SOL    HW139734   4.645   6.511  11.012 -0.8801  1.2890 -0.3859
11683SOL    HW239735   4.624   6.424  10.890  0.8397  0.3582 -0.0528
11684SOL     OW39736   6.963   5.117   3.340  0.2256 -0.4058 -0.3810
11684SOL    HW139737   6.985   5.210   3.337 -0.8062 -0.1717 -1.7350
11684SOL    HW239738   6.877   5.111   3.299  0.3399 -1.9801 -0.4626
11685SOL     OW39739   9.294   3.258  10.541 -0.1216  0.2215 -0.2433
11685SOL    HW139740   9.331   3.224  10.622 -1.1296  1.0738  0.5974
11685SOL    HW239741   9.288   3.181  10.483  1.0760 -0.2951  0.2878
11686SOL     OW39742   9.674   8.985   2.381 -0.1301 -0.1057  0.6160
11686SOL    HW139743   9.667   9.049   2.310  0.3518 -1.4730 -0.7465
11686SOL    HW239744   9.635   8.905   2.344 -0.9440 -0.5498  2.3341
11687SOL     OW39745   5.230   6.435   7.110  0.1038  0.0853 -0.2768
11687SOL    HW139746   5.174   6.512   7.121 -0.1071 -0.1672  0.4235
11687SOL    HW239747   5.318   6.471   7.098 -0.3498  0.5704 -2.9077
11688SOL     OW39748   0.896   9.523   1.233  0.5499 -0.7451  0.2252
11688SOL    HW139749   0.874   9.501   1.324  1.3430 -1.0050  0.3618
11688SOL    HW239750   0.976   9.474   1.215 -0.2402 -1.6719 -1.0134
11689SOL     OW39751   5.349   5.001   5.659  0.4909 -0.0915 -0.2732
11689SOL    HW139752   5.257   5.020   5.676  0.7212  0.3283  0.5753
11689SOL    HW239753   5.392   5.011   5.745  1.1430 -1.3909 -0.4274
11690SOL     OW39754   5.449   4.156   6.326 -0.5476 -0.3666  0.3510
11690SOL    HW139755   5.418   4.107   6.249 -0.5584  0.2764 -0.0663
11690SOL    HW239756   5.410   4.243   6.316 -0.8090 -0.3672  1.2588
11691SOL     OW39757   5.923   0.178   7.937 -0.1821 -0.2721 -0.2994
11691SOL    HW139758   5.883   0.097   7.905 -0.7123 -1.2516  2.5109
11691SOL    HW239759   5.850   0.226   7.977  0.5924  0.2259  0.5577
11692SOL     OW39760   6.706   4.530   8.492  0.1941 -0.1863 -0.2176
11692SOL    HW139761   6.699   4.481   8.574 -2.1333 -0.9153 -0.7668
11692SOL    HW239762   6.766   4.478   8.438 -0.9341 -1.6124 -0.1807
11693SOL     OW39763   3.668   2.202  11.269 -0.4906 -0.0764 -0.3022
11693SOL    HW139764   3.732   2.141  11.233 -0.7409 -0.5769  0.0809
11693SOL    HW239765   3.668   2.276  11.209  1.1105  0.3540  0.1835
11694SOL     OW39766   0.669   4.589  10.188 -0.0318 -0.7085 -0.3554
11694SOL    HW139767   0.578   4.619  10.197 -0.5831 -1.6732 -2.2095
11694SOL    HW239768   0.715   4.665  10.153 -0.3169 -0.4777 -0.2398
11695SOL     OW39769  10.641   7.869  10.985  0.2224 -0.0100  0.5939
11695SOL    HW139770  10.735   7.863  10.966  0.3689 -0.6385  1.4315
11695SOL    HW239771  10.605   7.787  10.951 -0.4509  1.1943 -1.8207
11696SOL     OW39772   3.294   2.529   7.491 -0.3671  0.1709 -0.6436
11696SOL    HW139773   3.363   2.542   7.555  1.3264  1.3949 -2.5891
11696SOL    HW239774   3.225   2.483   7.539  1.3615 -0.2260  1.6421
11697SOL     OW39775   7.569   3.576   0.884  0.5190  0.4545 -0.2259
11697SOL    HW139776   7.620   3.656   0.894 -0.7368  1.4083 -1.0632
11697SOL    HW239777   7.516   3.571   0.963  0.6438  0.4129 -0.1446
11698SOL     OW39778  11.597  10.554   3.726  0.6780  0.1722 -0.3448
11698SOL    HW139779  11.581  10.648   3.735  0.2688 -0.0408  1.4862
11698SOL    HW239780  11.651  10.531   3.801 -0.2443 -1.2582 -0.0738
11699SOL     OW39781   5.210   0.814   2.920  0.2026  0.1935  0.3845
11699SOL    HW139782   5.173   0.746   2.863  0.4593  0.8138 -0.5538
11699SOL    HW239783   5.191   0.784   3.009  2.7386 -2.4979  0.1393
11700SOL     OW39784   7.141   2.644   0.084 -0.0124  0.7101 -0.4306
11700SOL    HW139785   7.136   2.738   0.105 -1.2967  0.9512 -1.6229
11700SOL    HW239786   7.051   2.613   0.095  0.5811 -0.6293  0.8980
11701SOL     OW39787   2.107  11.952   9.663  0.6200  0.5310 -0.8178
11701SOL    HW139788   2.202  11.943   9.671  0.4041 -0.5008  1.0065
11701SOL    HW239789   2.079  11.988   9.748 -0.4386  2.8187 -2.0290
11702SOL     OW39790   6.891   1.409   7.599 -0.4939 -0.1760 -0.1741
11702SOL    HW139791   6.956   1.477   7.618  0.7102 -1.7575  1.7637
11702SOL    HW239792   6.859   1.431   7.511 -1.0239  3.4896  0.7712
11703SOL     OW39793  10.181   5.644   9.701 -0.2455 -0.2425  0.3433
11703SOL    HW139794  10.196   5.599   9.784 -1.7540 -1.9601 -0.2519
11703SOL    HW239795  10.101   5.604   9.666 -0.8140  1.8843 -0.9700
11704SOL     OW39796   6.585   1.582   5.085 -0.7581 -0.0824 -0.1491
11704SOL    HW139797   6.545   1.560   5.000 -1.4981 -0.4111  0.2759
11704SOL    HW239798   6.624   1.669   5.071 -2.2499  0.5806 -0.3737
11705SOL     OW39799  10.138   4.890   5.796  0.3826 -0.0576  0.0688
11705SOL    HW139800  10.163   4.801   5.819 -0.3489  0.0140  1.2112
11705SOL    HW239801  10.218   4.941   5.808  0.8004 -0.5382 -0.5678
11706SOL     OW39802   0.255   7.714   0.603  0.0998  0.0517 -0.2744
11706SOL    HW139803   0.284   7.716   0.694  3.7112 -3.5555 -1.0379
11706SOL    HW239804   0.273   7.802   0.570  0.1582  1.0000  2.0955
11707SOL     OW39805   5.519   2.847   5.661 -0.8182  0.2583 -0.2220
11707SOL    HW139806   5.501   2.861   5.568  0.5125 -0.2418 -0.5773
11707SOL    HW239807   5.614   2.845   5.667 -0.8646 -2.0657  0.7870
11708SOL     OW39808   3.833   4.195   2.743 -0.2128  0.3670 -0.1753
11708SOL    HW139809   3.823   4.227   2.653 -1.0358 -0.0891 -0.2596
11708SOL    HW239810   3.869   4.107   2.732 -1.6968 -0.2730 -0.1501
11709SOL     OW39811   9.804   2.144   9.984  0.4224 -0.2618  0.4988
11709SOL    HW139812   9.843   2.119  10.068  0.8749  0.2860  0.4602
11709SOL    HW239813   9.778   2.235   9.996 -0.6137 -0.5371  0.4271
11710SOL     OW39814   6.529   5.114   3.316  0.1663  0.0070 -0.3968
11710SOL    HW139815   6.458   5.125   3.253  0.4271 -0.5396 -0.8014
11710SOL    HW239816   6.608   5.131   3.265  0.3000  1.3319  0.2244
11711SOL     OW39817  10.558   1.711   7.387 -0.1977 -0.4683 -0.3218
11711SOL    HW139818  10.646   1.682   7.414  0.2402  0.9350 -0.1636
11711SOL    HW239819  10.565   1.724   7.292  0.1852  0.9731 -0.1144
11712SOL     OW39820   2.429   9.062   7.619 -0.1805 -0.4200  0.0671
11712SOL    HW139821   2.511   9.111   7.615 -1.0941  1.1073 -0.8604
11712SOL    HW239822   2.393   9.066   7.530 -0.8197 -1.9031  0.2134
11713SOL     OW39823   1.160   9.413   4.760  0.2352 -0.1899 -0.1577
11713SOL    HW139824   1.220   9.453   4.697 -0.4363  2.1478  0.5882
11713SOL    HW239825   1.075   9.453   4.741  0.0731  0.8186  2.3975
11714SOL     OW39826   5.253   5.034   7.331 -0.9474 -0.0015  0.1632
11714SOL    HW139827   5.310   5.090   7.280 -1.6801  1.4428  0.8676
11714SOL    HW239828   5.308   5.001   7.402 -0.7328  0.6271  0.2963
11715SOL     OW39829   8.535   1.948   6.379 -0.9502 -0.3389 -0.5931
11715SOL    HW139830   8.504   1.917   6.464 -3.5332 -1.8967 -1.9538
11715SOL    HW239831   8.611   1.892   6.359 -0.6306 -0.2856  0.4434
11716SOL     OW39832   1.344   9.103   3.713  0.4492 -0.4720  0.2608
11716SOL    HW139833   1.369   9.119   3.804 -0.2207 -0.6098  0.4713
11716SOL    HW239834   1.408   9.153   3.662  0.3342  0.2744  0.8307
11717SOL     OW39835   7.399   9.776   3.485  0.5196 -0.7314  0.0477
11717SOL    HW139836   7.412   9.804   3.394  1.5281 -2.6572 -0.4628
11717SOL    HW239837   7.311   9.805   3.507 -0.0941 -0.9965 -1.8622
11718SOL     OW39838   4.595  11.314   0.637 -0.7538  0.1607 -0.6653
11718SOL    HW139839   4.585  11.236   0.583 -0.6515 -0.9374  0.8337
11718SOL    HW239840   4.588  11.387   0.576  1.6697 -1.0353 -2.5730
11719SOL     OW39841   1.149   4.758   3.584  0.0588  0.0287 -0.3319
11719SOL    HW139842   1.139   4.842   3.539 -0.6457  0.3975  0.4742
11719SOL    HW239843   1.097   4.697   3.533 -2.4728  0.8802  1.0539
11720SOL     OW39844   4.178   9.984   4.588 -0.5201 -0.0287 -0.7590
11720SOL    HW139845   4.167   9.962   4.680  1.0821  0.2710 -0.4694
11720SOL    HW239846   4.169  10.079   4.584  1.3826  0.1993 -0.5518
11721SOL     OW39847   1.873  10.539   5.545  0.2648  0.3504 -0.5009
11721SOL    HW139848   1.968  10.549   5.550  0.6195 -1.1691 -2.6766
11721SOL    HW239849   1.853  10.547   5.451 -1.4928 -1.1795 -0.3105
11722SOL     OW39850   6.531   2.864  11.837 -0.2266  0.4250 -0.0822
11722SOL    HW139851   6.459   2.837  11.894  0.2820 -1.1104 -0.1035
11722SOL    HW239852   6.593   2.909  11.895 -2.0421  3.6400 -0.4106
11723SOL     OW39853   7.274   7.441   4.665 -0.1442 -0.1028  0.4796
11723SOL    HW139854   7.279   7.382   4.590 -0.0352  0.7629 -0.2104
11723SOL    HW239855   7.324   7.518   4.638  1.8544 -0.6805  2.3081
11724SOL     OW39856   2.253   1.295   2.725 -0.1641 -0.7003 -0.3109
11724SOL    HW139857   2.269   1.338   2.642  3.6219 -1.3312 -0.1087
11724SOL    HW239858   2.251   1.366   2.789 -2.7893 -0.2411 -0.7959
11725SOL     OW39859   4.195   8.205   7.957  0.4019 -0.5564 -0.2240
11725SOL    HW139860   4.208   8.250   7.873  1.0093 -1.4409 -0.6132
11725SOL    HW239861   4.104   8.226   7.980  0.2100 -0.3289 -1.1153
11726SOL     OW39862  11.377  11.920   7.304  0.0390  0.3983  0.3313
11726SOL    HW139863  11.411  11.975   7.375  1.6145  1.6247 -1.2893
11726SOL    HW239864  11.400  11.831   7.330  2.2676  0.9694  0.5530
11727SOL     OW39865   0.872   5.029   1.702 -0.0392 -0.6068  0.1540
11727SOL    HW139866   0.847   5.113   1.664  2.1186 -0.3130 -0.7561
11727SOL    HW239867   0.912   4.981   1.630 -0.2883 -2.0241  0.9207
11728SOL     OW39868   7.587   1.364   2.313 -0.1961  0.4036 -0.3470
11728SOL    HW139869   7.528   1.418   2.260 -0.8035 -0.9780 -1.1246
11728SOL    HW239870   7.580   1.401   2.401  0.2892  2.3012 -1.0556
11729SOL     OW39871   8.550   2.619   0.101  0.0178  0.0559  0.0899
11729SOL    HW139872   8.519   2.566   0.029  0.2057 -0.1403  0.1520
11729SOL    HW239873   8.646   2.619   0.092 -0.0068  0.8352 -0.2286
11730SOL     OW39874  10.120   2.957   6.048  0.7616  0.4896 -0.1641
11730SOL    HW139875  10.093   3.017   6.117  0.7138  1.2519 -0.8330
11730SOL    HW239876  10.157   3.013   5.980  0.9001 -0.2548 -0.7186
11731SOL     OW39877  10.513   2.643   6.052 -0.2371  0.0580 -0.5425
11731SOL    HW139878  10.468   2.696   5.986  0.4452 -0.1369 -1.1714
11731SOL    HW239879  10.452   2.571   6.071  0.4191 -1.0949 -2.5518
11732SOL     OW39880   9.870   6.975   6.775  0.2448  0.2437  0.0468
11732SOL    HW139881   9.965   6.987   6.771  0.2182  0.1248 -1.1519
11732SOL    HW239882   9.857   6.881   6.768  0.0003  0.3405 -0.9151
11733SOL     OW39883   2.601   1.093   1.437 -0.0311  0.4967  0.2715
11733SOL    HW139884   2.519   1.142   1.429  0.0900  0.3743 -2.7102
11733SOL    HW239885   2.668   1.161   1.448 -0.2909  0.7335  0.3932
11734SOL     OW39886  11.827  11.415   1.102  0.1061 -0.0346 -0.6314
11734SOL    HW139887  11.871  11.348   1.050 -0.6430 -0.1075 -1.1906
11734SOL    HW239888  11.823  11.492   1.046  1.1903  0.5768  0.1021
11735SOL     OW39889  10.826   5.708   9.354 -0.4911 -0.4703  0.7249
11735SOL    HW139890  10.772   5.678   9.281 -3.1437  0.4274  2.1787
11735SOL    HW239891  10.765   5.715   9.427  2.1698 -2.0138  3.2931
11736SOL     OW39892   6.908   6.480   0.701 -0.1222  0.6786  0.1186
11736SOL    HW139893   6.875   6.391   0.689  0.1643  0.5600  0.2003
11736SOL    HW239894   6.848   6.535   0.651  0.7520  0.2666 -1.4526
11737SOL     OW39895   1.291   8.003   7.630  0.3369 -0.1921 -0.6051
11737SOL    HW139896   1.259   8.078   7.681  2.0497 -0.4772  0.9772
11737SOL    HW239897   1.293   8.036   7.540 -1.4924  0.7648 -0.3516
11738SOL     OW39898   5.035   8.296   9.629  0.4887  0.4339  0.2201
11738SOL    HW139899   4.983   8.290   9.549 -0.9520  2.8940  0.8703
11738SOL    HW239900   4.981   8.349   9.688  1.6794 -0.9575  2.7040
11739SOL     OW39901   7.899   0.943   6.587 -0.1801 -0.2984 -0.0127
11739SOL    HW139902   7.872   0.858   6.623 -0.2615 -0.8403 -1.2708
11739SOL    HW239903   7.973   0.922   6.530 -1.0523  0.2410 -1.4043
11740SOL     OW39904   3.916   7.246   1.488  0.2539  0.1866  0.2103
11740SOL    HW139905   3.863   7.217   1.562  0.9336 -0.3760  0.4859
11740SOL    HW239906   3.855   7.244   1.414 -0.7632  1.9537  0.9382
11741SOL     OW39907   0.814   1.188   7.471 -0.2161 -0.1155  0.2824
11741SOL    HW139908   0.816   1.248   7.546 -1.4081 -0.7534  0.8533
11741SOL    HW239909   0.757   1.116   7.499  0.2781 -0.9629 -0.8038
11742SOL     OW39910   5.149  11.664   9.759 -0.5615  0.0034  0.2245
11742SOL    HW139911   5.100  11.725   9.704 -1.0784  0.1191  0.8122
11742SOL    HW239912   5.084  11.626   9.818 -0.2835 -1.2616 -0.2427
11743SOL     OW39913   3.199   2.773   7.985 -0.3853 -0.6509  0.1783
11743SOL    HW139914   3.289   2.793   8.010 -0.3485 -1.1298  0.4419
11743SOL    HW239915   3.167   2.714   8.054 -1.1755  0.1809  0.5392
11744SOL     OW39916   1.486   2.480   5.091  0.3044  0.0014 -0.2432
11744SOL    HW139917   1.495   2.508   5.182  1.1219  0.1823 -0.3785
11744SOL    HW239918   1.535   2.397   5.087 -1.5526 -1.1645  0.0045
11745SOL     OW39919  11.160  11.534  11.802 -0.3232 -0.3204 -0.4486
11745SOL    HW139920  11.179  11.468  11.868  1.4001 -0.8306 -1.3977
11745SOL    HW239921  11.066  11.550  11.810 -0.1117  0.0413  2.4576
11746SOL     OW39922   7.724   3.796   7.569  0.8487  0.1256  0.6321
11746SOL    HW139923   7.667   3.823   7.642  0.6081 -0.9129  0.8376
11746SOL    HW239924   7.667   3.744   7.513  1.0873  0.7621 -0.2174
11747SOL     OW39925   5.994   3.176   7.456  0.2874 -0.1594  0.0697
11747SOL    HW139926   5.903   3.165   7.428 -0.1501  0.4528  1.1990
11747SOL    HW239927   6.019   3.090   7.490 -0.5403  0.1523  1.5685
11748SOL     OW39928   8.539   0.971   6.163 -0.0836  0.0701  0.0317
11748SOL    HW139929   8.521   0.909   6.092  1.1559  0.0415 -0.2795
11748SOL    HW239930   8.550   0.916   6.240  2.1088 -0.2541 -0.4454
11749SOL     OW39931  11.493   5.308   3.428  0.0034 -0.7178 -0.6529
11749SOL    HW139932  11.427   5.248   3.393 -0.7900 -0.7788  0.8534
11749SOL    HW239933  11.484   5.388   3.377 -1.4458 -0.6302 -0.2961
11750SOL     OW39934   2.073   9.237   1.753 -0.8056 -0.2557 -0.1672
11750SOL    HW139935   2.063   9.312   1.811  0.0938  0.7209 -1.2124
11750SOL    HW239936   2.004   9.247   1.688 -1.0330 -0.6515  0.0087
11751SOL     OW39937   6.337  11.054  10.423  0.2909  0.6445 -0.0065
11751SOL    HW139938   6.264  11.080  10.481 -0.5730  0.4664 -0.9766
11751SOL    HW239939   6.294  11.027  10.342  1.3667 -0.8454 -0.1185
11752SOL     OW39940   8.971   3.550   4.458  0.1182  0.5930 -0.0664
11752SOL    HW139941   9.006   3.462   4.444 -0.5972  0.3354 -0.2829
11752SOL    HW239942   8.991   3.569   4.550 -0.1240  0.0140  0.1159
11753SOL     OW39943   3.482  10.290   0.433 -0.3834  0.1711  0.1285
11753SOL    HW139944   3.452  10.240   0.358  2.7086  0.6633 -1.6126
11753SOL    HW239945   3.476  10.230   0.507  1.9498 -2.4482 -1.6219
11754SOL     OW39946   6.115  11.824  11.144  0.5083 -0.2279  0.4965
11754SOL    HW139947   6.114  11.742  11.194  0.5423 -0.6808 -0.2421
11754SOL    HW239948   6.143  11.890  11.208 -0.3310 -0.6421  1.3180
11755SOL     OW39949   1.133  11.179  11.376 -0.3596 -0.2507 -0.5509
11755SOL    HW139950   1.092  11.128  11.306 -1.9521  1.5178 -0.9776
11755SOL    HW239951   1.214  11.213  11.337  0.5408 -2.0395 -0.3726
11756SOL     OW39952   5.219  10.809   9.805  0.0720  0.2213  0.1619
11756SOL    HW139953   5.311  10.834   9.802  0.2298 -0.0754  1.6503
11756SOL    HW239954   5.173  10.889   9.830  0.0109  0.1845  0.1677
11757SOL     OW39955   4.761   8.091  10.464 -0.1453 -0.7067 -0.0563
11757SOL    HW139956   4.845   8.058  10.430 -0.3953  0.1592 -1.6355
11757SOL    HW239957   4.753   8.052  10.551  1.8880 -0.8307  0.1317
11758SOL     OW39958   2.941   5.755   9.202 -0.7427  0.3468  0.3124
11758SOL    HW139959   2.969   5.837   9.163 -1.4828  0.4999  0.1010
11758SOL    HW239960   2.991   5.749   9.284 -1.1437  1.3174  0.6487
11759SOL     OW39961   6.939   2.492   1.702 -0.1385  0.1533 -0.0322
11759SOL    HW139962   7.020   2.542   1.686 -1.8056  3.0497 -0.1669
11759SOL    HW239963   6.921   2.449   1.619  1.3890 -0.8492  0.0991
11760SOL     OW39964   2.304   1.369   6.156 -0.1367  0.1351  0.0117
11760SOL    HW139965   2.249   1.291   6.156  2.7484 -2.0810  1.0525
11760SOL    HW239966   2.309   1.394   6.248  0.2728  0.5505 -0.1214
11761SOL     OW39967   6.481  10.502   3.557  0.0607 -0.4247 -0.1982
11761SOL    HW139968   6.465  10.483   3.465 -0.4442 -0.0629 -0.1942
11761SOL    HW239969   6.520  10.590   3.557 -0.4423 -0.1945 -0.0432
11762SOL     OW39970   8.855   8.078   4.130  0.4472  0.8664 -0.3731
11762SOL    HW139971   8.877   8.062   4.039  1.6720 -1.5313  0.2638
11762SOL    HW239972   8.777   8.026   4.146  1.1983 -0.0946  0.3207
11763SOL     OW39973   6.657   9.906   4.944  0.1525  0.9215  0.2242
11763SOL    HW139974   6.580   9.880   4.993 -0.5526  0.6951 -0.9666
11763SOL    HW239975   6.631   9.899   4.852  1.0048  2.6084 -0.1898
11764SOL     OW39976   5.911   3.970   2.971 -0.3306  0.0429 -0.0937
11764SOL    HW139977   5.916   3.947   2.878  3.8516 -1.3227  0.2531
11764SOL    HW239978   5.947   3.894   3.016  1.0288  1.9715  2.3169
11765SOL     OW39979   1.881   6.824   6.789  0.1668 -0.1175  0.4501
11765SOL    HW139980   1.957   6.812   6.731 -1.6992 -1.4005 -1.9281
11765SOL    HW239981   1.814   6.765   6.753 -1.4861 -0.1957  3.3706
11766SOL     OW39982  11.930   5.818  11.222  0.3932 -0.5014  0.0407
11766SOL    HW139983  11.879   5.827  11.142 -1.1083 -1.9940  0.7732
11766SOL    HW239984  11.980   5.737  11.209  0.0961 -0.7856  0.6148
11767SOL     OW39985   1.688   9.358  11.407 -0.5030 -0.9018  0.1477
11767SOL    HW139986   1.754   9.369  11.476  1.3851  0.1688 -1.7155
11767SOL    HW239987   1.622   9.424  11.426  0.8657  0.5560  0.0058
11768SOL     OW39988   4.677   9.958   8.274  0.4761  0.0528  0.3559
11768SOL    HW139989   4.645   9.916   8.354 -1.5679 -0.4774 -0.6495
11768SOL    HW239990   4.636  10.045   8.275  0.7118  0.1668  0.0665
11769SOL     OW39991   5.009   4.742   4.199  0.0963 -0.2311 -0.7930
11769SOL    HW139992   4.933   4.739   4.140  0.4646  1.2425 -1.3872
11769SOL    HW239993   5.071   4.801   4.155  0.9550 -0.1867  0.4322
11770SOL     OW39994   9.253  11.463   2.929 -0.0426 -0.2787 -0.0468
11770SOL    HW139995   9.247  11.382   2.878  1.0727 -0.3173 -0.1558
11770SOL    HW239996   9.292  11.436   3.012  0.2573  0.1223 -0.0535
11771SOL     OW39997   3.249   8.109   7.869 -0.3040 -0.0342  0.1147
11771SOL    HW139998   3.249   8.015   7.853  0.5855  0.0316 -0.3304
11771SOL    HW239999   3.310   8.121   7.942  0.6915  0.3335 -0.7595
11772SOL     OW40000  11.296   7.625   0.531  0.0451  0.0272 -0.0440
11772SOL    HW140001  11.258   7.610   0.444 -0.0778 -0.2222  0.0525
11772SOL    HW240002  11.391   7.632   0.515 -0.1702  2.8963 -0.6034
11773SOL     OW40003   3.548   7.375   1.012  0.0502 -0.1627  0.0712
11773SOL    HW140004   3.567   7.453   1.064 -1.3440  0.2795 -0.0266
11773SOL    HW240005   3.455   7.359   1.027 -0.0207 -0.9400 -1.0779
11774SOL     OW40006   9.092   6.819   6.366 -0.0350  0.5230 -0.6686
11774SOL    HW140007   9.160   6.842   6.303 -1.0059  1.7824 -1.3085
11774SOL    HW240008   9.112   6.872   6.443  1.7576 -1.7873  0.5493
11775SOL     OW40009  11.888   5.442  11.233  0.1344 -0.7173 -0.6452
11775SOL    HW140010  11.971   5.404  11.263  0.3678  1.0060  1.0580
11775SOL    HW240011  11.913   5.506  11.168  0.4221  1.2595  1.2945
11776SOL     OW40012   7.360   2.232   4.798  0.2246  0.0998 -0.0893
11776SOL    HW140013   7.407   2.162   4.844  0.3676  0.1618 -0.1388
11776SOL    HW240014   7.429   2.283   4.755 -0.0089 -2.3526 -3.8831
11777SOL     OW40015   4.756   9.452  10.088  0.0516  0.1343  0.1691
11777SOL    HW140016   4.762   9.535  10.136 -0.6110  0.1730  0.1895
11777SOL    HW240017   4.845   9.416  10.092  0.3625  0.8709  0.1088
11778SOL     OW40018   7.976   5.135   0.632  0.3727 -0.0030 -0.1722
11778SOL    HW140019   8.013   5.054   0.668 -2.6230 -0.3598  2.4750
11778SOL    HW240020   7.983   5.198   0.703 -1.2207  0.7650 -0.6533
11779SOL     OW40021   8.858  10.470   9.757 -0.3499  0.2993  0.0212
11779SOL    HW140022   8.836  10.551   9.710  0.7214 -0.3396 -1.7145
11779SOL    HW240023   8.788  10.458   9.821 -1.5309  1.5983 -0.9765
11780SOL     OW40024   9.870   3.128   8.714  0.5435  0.1349  0.1991
11780SOL    HW140025   9.922   3.145   8.635  1.6568 -1.1381  0.6134
11780SOL    HW240026   9.781   3.116   8.682  1.2209 -1.9784 -1.1250
11781SOL     OW40027   2.281   7.351  11.156  0.7627  0.9458  0.1325
11781SOL    HW140028   2.221   7.302  11.100  0.3364  0.2112  1.2006
11781SOL    HW240029   2.365   7.305  11.146  0.2506 -0.3777  1.5169
11782SOL     OW40030   4.104  10.410   8.302  0.2374 -0.5752 -0.5148
11782SOL    HW140031   4.027  10.353   8.310 -0.8572  0.6375 -1.9728
11782SOL    HW240032   4.103  10.440   8.212  1.4408  0.8750 -0.0840
11783SOL     OW40033   5.437   1.744   1.413  0.3662 -0.3015  0.3996
11783SOL    HW140034   5.362   1.800   1.393 -0.3076 -0.2202  2.7821
11783SOL    HW240035   5.427   1.668   1.356  0.6581  1.4040 -2.0698
11784SOL     OW40036   4.409   5.722   8.289 -0.0960  0.1997 -0.6692
11784SOL    HW140037   4.430   5.635   8.323 -0.6939  0.6048  0.8069
11784SOL    HW240038   4.453   5.726   8.204  1.3742 -0.9096 -0.0044
11785SOL     OW40039   8.204   2.917   1.792 -0.2079  0.1639 -0.6222
11785SOL    HW140040   8.269   2.982   1.817 -1.1339  0.6843  0.5404
11785SOL    HW240041   8.216   2.845   1.854 -0.6285  0.2056 -0.4850
11786SOL     OW40042   6.870   9.577   9.553 -0.0813  0.8157  0.1499
11786SOL    HW140043   6.915   9.554   9.634  0.4390 -0.7184 -0.5293
11786SOL    HW240044   6.923   9.648   9.515 -0.1273  1.2888  0.9603
11787SOL     OW40045   6.063   6.608   2.106  0.0505  0.3026  0.5518
11787SOL    HW140046   6.020   6.553   2.041 -0.3525 -0.6590  1.6000
11787SOL    HW240047   6.153   6.616   2.075 -0.3319  0.5464 -0.5403
11788SOL     OW40048   3.288  11.923   0.759  0.2912 -0.3559 -0.6180
11788SOL    HW140049   3.315  11.988   0.824 -0.9726 -0.0809 -0.3462
11788SOL    HW240050   3.243  11.974   0.692 -4.8789 -1.1694  1.7274
11789SOL     OW40051  10.502   4.622  10.845 -0.3037  0.3243  0.6413
11789SOL    HW140052  10.473   4.617  10.936 -0.8959  1.9413  0.5632
11789SOL    HW240053  10.428   4.660  10.798  0.3513  0.4252 -0.3361
11790SOL     OW40054   4.528   2.116   0.779 -0.3214  0.0225  0.0834
11790SOL    HW140055   4.466   2.045   0.764 -1.2770  0.9472 -0.4565
11790SOL    HW240056   4.521   2.135   0.872 -0.1355 -0.5132  0.2103
11791SOL     OW40057   8.386  10.267   2.095 -0.6331  0.4640  0.1110
11791SOL    HW140058   8.422  10.206   2.159  0.4805  1.2265  0.2283
11791SOL    HW240059   8.291  10.255   2.102 -0.4438 -0.9661  0.3987
11792SOL     OW40060   8.486   2.241   2.367 -0.0218 -0.5765 -0.4614
11792SOL    HW140061   8.521   2.319   2.325 -0.2444  1.1709  2.3654
11792SOL    HW240062   8.551   2.173   2.349  0.4229  0.3216 -2.5531
11793SOL     OW40063   0.521   6.720   7.810  0.1068  0.3499  0.1053
11793SOL    HW140064   0.481   6.804   7.786 -0.4235  0.1803  0.3618
11793SOL    HW240065   0.466   6.655   7.767  0.0855  0.1080  0.4911
11794SOL     OW40066  11.119  10.171  11.951 -0.2071  0.4076 -0.2694
11794SOL    HW140067  11.194  10.172  12.010 -0.1410  0.4585 -0.3542
11794SOL    HW240068  11.094  10.079  11.945 -1.9315  0.6441  2.0079
11795SOL     OW40069   5.799   1.441  10.188 -0.0220  0.0213  0.3029
11795SOL    HW140070   5.770   1.372  10.129 -3.9385  2.9337 -1.6595
11795SOL    HW240071   5.729   1.447  10.254  1.1060  1.0033  1.4593
11796SOL     OW40072   1.126   6.929  10.090 -0.0835  0.1604 -0.0127
11796SOL    HW140073   1.171   6.862  10.039 -0.0227 -0.7258  1.1585
11796SOL    HW240074   1.134   6.899  10.181 -1.8897  0.6662  0.3495
11797SOL     OW40075   9.735   5.270  10.811 -0.0138  0.1134 -0.2530
11797SOL    HW140076   9.684   5.307  10.739 -1.8579 -0.8559  0.4976
11797SOL    HW240077   9.788   5.201  10.770 -1.2274 -0.5931 -0.6787
11798SOL     OW40078   7.153   3.827   1.190 -0.1862 -0.0445 -0.4446
11798SOL    HW140079   7.159   3.860   1.279  0.2850  2.3539 -1.3028
11798SOL    HW240080   7.067   3.856   1.159 -0.7937 -1.7551 -0.4893
11799SOL     OW40081   4.879   6.078   1.834 -0.4500  0.3793  0.1790
11799SOL    HW140082   4.846   6.160   1.869 -1.5518 -1.0927  2.8924
11799SOL    HW240083   4.814   6.051   1.770  0.0030  1.6429 -0.8561
11800SOL     OW40084   5.837   2.494  10.095 -0.2311 -0.2677  0.5663
11800SOL    HW140085   5.851   2.509  10.001 -1.4786  0.3124  0.4544
11800SOL    HW240086   5.844   2.582  10.133  1.1889 -0.6138  1.1665
11801SOL     OW40087   4.358  10.282   4.950 -0.3934  0.2108  0.4242
11801SOL    HW140088   4.322  10.318   4.869 -1.0001  1.4490  1.2100
11801SOL    HW240089   4.451  10.304   4.946  0.1867 -2.1523 -1.1647
11802SOL     OW40090   9.751   0.848   9.658 -0.0657 -0.0560  0.7052
11802SOL    HW140091   9.756   0.753   9.649  0.6239 -0.0170  0.5874
11802SOL    HW240092   9.814   0.881   9.594  1.7325  0.3772  2.5743
11803SOL     OW40093   1.636   5.617   9.378 -0.3463 -0.0845 -0.2017
11803SOL    HW140094   1.541   5.620   9.365 -0.2145 -0.0432 -1.2392
11803SOL    HW240095   1.648   5.572   9.462 -1.3065  0.6894  0.3696
11804SOL     OW40096  11.432   6.650   6.001 -0.8410 -0.2166 -0.2474
11804SOL    HW140097  11.411   6.633   6.093  0.8589  0.6083  0.3267
11804SOL    HW240098  11.400   6.573   5.954  0.6501 -1.9122  1.3912
11805SOL     OW40099   7.023   1.404   4.856 -0.3012 -0.1457 -0.2430
11805SOL    HW140100   7.052   1.313   4.858  0.1745  0.0120  0.0389
11805SOL    HW240101   7.061   1.440   4.777 -0.7002 -0.2581 -0.4893
11806SOL     OW40102   6.546   0.929  11.495 -0.4177  0.1746 -0.2214
11806SOL    HW140103   6.495   0.848  11.496 -0.8097  0.4238  1.0394
11806SOL    HW240104   6.636   0.902  11.512 -0.5129 -0.0143 -0.0255
11807SOL     OW40105   0.461   7.273   1.170  0.0783 -0.3444 -0.0757
11807SOL    HW140106   0.455   7.235   1.083  3.8305 -0.3543 -0.5021
11807SOL    HW240107   0.529   7.222   1.214 -1.6560 -0.3214  2.9103
11808SOL     OW40108  11.252   9.868   4.462  0.6523  0.0520  0.5187
11808SOL    HW140109  11.163   9.903   4.455  0.8031  0.4080  0.3992
11808SOL    HW240110  11.304   9.941   4.494  0.9215 -0.1314  0.4961
11809SOL     OW40111   8.773   2.613   2.188 -0.0575  0.4454 -0.1517
11809SOL    HW140112   8.810   2.606   2.276 -1.9775 -0.3939  0.6253
11809SOL    HW240113   8.829   2.677   2.144 -0.5170  2.8432  2.4608
11810SOL     OW40114   2.105   5.899   6.284 -0.2290 -0.0821 -0.1429
11810SOL    HW140115   2.134   5.808   6.280 -0.0395  0.0071 -0.8769
11810SOL    HW240116   2.175   5.944   6.332  0.6371  0.0385 -1.4709
11811SOL     OW40117   1.766   7.516   9.885  0.7699 -0.0785  0.3704
11811SOL    HW140118   1.775   7.477   9.972  2.7205 -0.9390 -0.1471
11811SOL    HW240119   1.672   7.522   9.871  0.4068 -1.0955  2.0367
11812SOL     OW40120  10.928   3.951   0.284  0.4861 -0.2838 -0.5035
11812SOL    HW140121  11.016   3.931   0.253  0.8282 -1.8232  1.2661
11812SOL    HW240122  10.894   3.867   0.316 -0.0812  0.9553  2.4567
11813SOL     OW40123   6.075   9.098   8.465  0.8118 -0.1054  0.0389
11813SOL    HW140124   6.140   9.043   8.421  2.0702  0.5055  1.0613
11813SOL    HW240125   6.125   9.172   8.499 -0.5715  0.8145  0.1604
11814SOL     OW40126   5.911  11.991  10.967 -0.6542 -0.7874  0.1492
11814SOL    HW140127   5.995  11.957  10.998 -0.2527  0.1412  0.0962
11814SOL    HW240128   5.906  11.960  10.876 -0.5218 -1.1086  0.2482
11815SOL     OW40129   2.163  11.681   0.277  0.2599 -0.2754  0.2950
11815SOL    HW140130   2.136  11.590   0.283 -0.7674 -0.1357 -1.4820
11815SOL    HW240131   2.212  11.686   0.195  1.5539  0.4934  1.0820
11816SOL     OW40132   6.758   0.358   8.910 -0.2199 -0.2206 -0.3481
11816SOL    HW140133   6.675   0.394   8.941  0.5560  0.7238  0.6966
11816SOL    HW240134   6.744   0.263   8.911 -1.5758 -0.0558 -1.0679
11817SOL     OW40135   7.139   0.884   3.242 -0.0690 -0.2489 -0.0160
11817SOL    HW140136   7.192   0.962   3.258  0.9271 -0.5077 -1.8072
11817SOL    HW240137   7.174   0.819   3.303  0.2223  0.2060  0.3149
11818SOL     OW40138   8.626   9.355   7.575  0.5877  0.4075 -0.3567
11818SOL    HW140139   8.651   9.447   7.578 -1.6398  1.0473  1.6085
11818SOL    HW240140   8.574   9.342   7.654 -1.5737 -1.8083 -2.0043
11819SOL     OW40141   7.640   0.561   9.681  0.3847 -0.3357  0.2529
11819SOL    HW140142   7.611   0.639   9.729 -0.6435  0.2081 -1.1844
11819SOL    HW240143   7.560   0.525   9.643  0.6857 -2.7246  1.7085
11820SOL     OW40144   6.181   1.887   2.394  0.5902 -0.3544 -0.4082
11820SOL    HW140145   6.151   1.808   2.349  0.1652 -0.5502  0.2025
11820SOL    HW240146   6.215   1.854   2.478 -0.3302  0.1947  0.1853
11821SOL     OW40147   0.917   3.030   1.271 -0.2171  0.0895  0.1404
11821SOL    HW140148   0.960   3.099   1.321  0.8347  0.3241 -1.0256
11821SOL    HW240149   0.986   2.996   1.213 -0.6770 -1.9892  0.7155
11822SOL     OW40150   9.522   5.614  10.703  0.1437  0.9349 -0.4026
11822SOL    HW140151   9.444   5.628  10.757 -0.7443  0.9785 -1.6413
11822SOL    HW240152   9.534   5.519  10.702  1.8796  1.0473  2.1480
11823SOL     OW40153   7.769   0.959   3.973 -0.5934 -0.3416  0.1685
11823SOL    HW140154   7.766   0.864   3.964 -0.6090 -0.3156 -0.1150
11823SOL    HW240155   7.836   0.975   4.040 -0.7975 -0.5631  0.4298
11824SOL     OW40156   4.062   5.804   0.511  0.0558  0.1673  0.2941
11824SOL    HW140157   4.140   5.784   0.564 -0.3841 -0.2767  0.7914
11824SOL    HW240158   4.049   5.725   0.458  0.4712  0.5942 -0.4746
11825SOL     OW40159   1.038   4.750   5.791 -0.5794 -0.8908 -0.6982
11825SOL    HW140160   1.018   4.720   5.702  1.6385 -2.2353 -0.8183
11825SOL    HW240161   1.125   4.788   5.784 -1.6317  1.9474  0.3412
11826SOL     OW40162   1.254   0.991   0.050 -0.1653  0.2612  0.0161
11826SOL    HW140163   1.336   0.955   0.015  0.8816  2.4005  0.0971
11826SOL    HW240164   1.282   1.064   0.106 -2.1204  0.7163  0.4795
11827SOL     OW40165  11.250   8.843  11.978  0.1476 -0.6218 -0.0223
11827SOL    HW140166  11.284   8.794  12.053  0.8780 -0.9413 -0.5446
11827SOL    HW240167  11.249   8.779  11.907  2.3666  0.3824 -1.0623
11828SOL     OW40168   4.904   3.169   0.513  0.5274 -0.3631  0.1877
11828SOL    HW140169   4.840   3.134   0.451  1.1524  0.1121 -0.7474
11828SOL    HW240170   4.986   3.171   0.464  1.4672 -1.7605  1.6327
11829SOL     OW40171  10.645   3.556   1.923  0.0264 -0.3081 -0.1151
11829SOL    HW140172  10.685   3.587   2.004  1.1690  0.4145 -0.9185
11829SOL    HW240173  10.701   3.483   1.896 -0.0599 -0.2286 -0.5098
11830SOL     OW40174   2.298  11.041   5.412  0.2336  0.1993 -0.6605
11830SOL    HW140175   2.228  10.975   5.410 -1.1529  1.6079 -0.1890
11830SOL    HW240176   2.255  11.121   5.442  2.1919  0.9769  0.2317
11831SOL     OW40177   0.216   7.252   7.716  0.1055 -0.0140  0.0106
11831SOL    HW140178   0.236   7.233   7.624 -1.4617  0.0075 -0.3618
11831SOL    HW240179   0.302   7.258   7.758  0.8597  0.0649 -1.4638
11832SOL     OW40180   7.467   4.413   0.667  0.4127  0.0313 -0.1312
11832SOL    HW140181   7.460   4.329   0.713  0.6035  0.4704  0.7078
11832SOL    HW240182   7.551   4.449   0.694  0.2954  0.5400 -0.4266
11833SOL     OW40183   8.177   4.171   6.347  0.0863  0.3151  0.4216
11833SOL    HW140184   8.177   4.076   6.338 -0.5941  0.3578 -0.1458
11833SOL    HW240185   8.103   4.190   6.405  0.0874  0.5103  0.3631
11834SOL     OW40186   2.837  11.289  11.646  0.5234 -0.1999  0.2200
11834SOL    HW140187   2.847  11.202  11.607  1.0477 -0.7206  1.4434
11834SOL    HW240188   2.883  11.348  11.587 -1.5734 -0.3864 -1.7395
11835SOL     OW40189   2.022   2.648  11.912  0.0357 -0.4745  0.1727
11835SOL    HW140190   1.960   2.637  11.840  0.6079 -2.8224 -0.0412
11835SOL    HW240191   2.018   2.742  11.933 -1.6764 -0.1065 -1.5016
11836SOL     OW40192   4.465   4.897   2.954  0.3962 -0.5605  0.0352
11836SOL    HW140193   4.511   4.930   3.031 -1.4039  0.1020  0.8885
11836SOL    HW240194   4.379   4.939   2.958  0.1652 -0.6870 -2.2260
11837SOL     OW40195  11.714  11.964   7.012 -0.3085 -0.8236 -0.1620
11837SOL    HW140196  11.809  11.957   7.012 -0.2927 -0.5876 -0.6960
11837SOL    HW240197  11.690  11.967   7.105  0.2716  0.0976 -0.0334
11838SOL     OW40198   5.802   1.180   0.976 -0.1470 -0.0783  0.9382
11838SOL    HW140199   5.798   1.247   1.044 -2.9824  0.0886  0.7179
11838SOL    HW240200   5.749   1.215   0.904  1.4478 -0.9404 -0.7625
11839SOL     OW40201   8.425   3.268   8.869  0.4025  0.0957  0.1766
11839SOL    HW140202   8.339   3.299   8.841  0.0900 -1.3904 -0.5874
11839SOL    HW240203   8.458   3.338   8.925 -0.1584  1.8862 -1.6154
11840SOL     OW40204   8.499   7.536   1.680 -0.1486  0.0223 -0.4453
11840SOL    HW140205   8.527   7.447   1.658  0.7933  0.1545  0.1268
11840SOL    HW240206   8.561   7.593   1.633  1.0842  0.3163  1.3974
11841SOL     OW40207   1.798   2.561   6.114 -0.3069 -0.0188  0.6019
11841SOL    HW140208   1.790   2.597   6.025  1.0138  0.3674  0.6296
11841SOL    HW240209   1.812   2.467   6.100  0.8390  0.1830  0.3651
11842SOL     OW40210  11.587   6.458   6.778  0.4623 -0.5435  0.4147
11842SOL    HW140211  11.492   6.464   6.767  0.4484  2.1645  1.3905
11842SOL    HW240212  11.598   6.399   6.853 -0.5443  0.2745  1.2419
11843SOL     OW40213   8.312   8.773   2.386 -0.6739 -0.0618  0.1790
11843SOL    HW140214   8.383   8.718   2.353 -1.6537 -1.2359 -0.0891
11843SOL    HW240215   8.349   8.821   2.459  0.1306 -1.3942  0.6768
11844SOL     OW40216   6.629  11.195   4.517 -0.0165 -0.0288  0.1298
11844SOL    HW140217   6.700  11.173   4.456 -1.9009 -0.4709 -2.0491
11844SOL    HW240218   6.555  11.142   4.488 -1.8821  1.9795  0.9308
11845SOL     OW40219   8.869   7.311   6.060 -0.5883 -0.0624  0.8117
11845SOL    HW140220   8.905   7.225   6.081 -0.4504 -0.0725  0.5378
11845SOL    HW240221   8.922   7.372   6.110  0.3531 -0.0083 -0.2027
11846SOL     OW40222   7.903  11.451   0.224 -0.0378  0.0746  0.3018
11846SOL    HW140223   7.845  11.427   0.151 -1.8301 -0.6219  1.8686
11846SOL    HW240224   7.908  11.546   0.220 -1.8325  0.2119  0.4689
11847SOL     OW40225   8.620   6.280   6.247 -0.1131  0.0150  0.4084
11847SOL    HW140226   8.611   6.357   6.304 -0.4319  1.4367 -1.4516
11847SOL    HW240227   8.570   6.303   6.169 -0.6617 -2.3501  0.0002
11848SOL     OW40228   2.355   2.105  10.960 -0.3463 -0.1324  0.3111
11848SOL    HW140229   2.337   2.186  10.913  0.2439 -0.6078 -0.7509
11848SOL    HW240230   2.450   2.094  10.955 -0.5759 -1.8258 -1.1690
11849SOL     OW40231   6.993   9.587   7.370 -0.0005 -0.2849 -0.2156
11849SOL    HW140232   7.035   9.607   7.454  0.3403  0.4962 -0.5657
11849SOL    HW240233   6.927   9.522   7.392  0.3288 -0.3570  0.6043
11850SOL     OW40234   9.020   4.982   5.253  0.0678  0.0322  1.0199
11850SOL    HW140235   8.992   4.898   5.216  1.3860 -0.2305  0.5484
11850SOL    HW240236   8.950   5.043   5.230 -0.1347 -0.5889 -0.0868
11851SOL     OW40237   5.621   7.916   0.969  0.1375  0.1749 -0.2085
11851SOL    HW140238   5.594   7.969   1.044 -1.6341 -0.1743 -0.5415
11851SOL    HW240239   5.555   7.934   0.902  2.5031  1.6861 -2.3114
11852SOL     OW40240  11.620   9.812   1.776 -0.4214 -0.1370  0.0389
11852SOL    HW140241  11.532   9.813   1.738 -0.0982 -0.5292 -0.7453
11852SOL    HW240242  11.633   9.721   1.804  0.1192 -0.3216 -0.7850
11853SOL     OW40243  11.418   1.240   0.626 -0.1373 -0.3297  0.6344
11853SOL    HW140244  11.428   1.315   0.569 -0.3244 -1.9578 -1.6805
11853SOL    HW240245  11.360   1.270   0.697  0.7616  1.9790  0.4494
11854SOL     OW40246   8.955   7.353   4.011  0.0408 -0.6641 -0.5676
11854SOL    HW140247   9.031   7.390   3.965  0.5715  0.0297  0.8091
11854SOL    HW240248   8.879   7.391   3.967  0.5259 -0.0979 -0.9328
11855SOL     OW40249  10.387   4.409   1.135  0.2974 -0.3532  0.1634
11855SOL    HW140250  10.467   4.437   1.180  0.7493 -1.9216  0.4004
11855SOL    HW240251  10.380   4.316   1.153  0.0286 -0.8971 -2.3405
11856SOL     OW40252   6.283   0.781   9.837  0.1404  0.0204  0.7621
11856SOL    HW140253   6.226   0.857   9.840  0.0478  0.1487 -2.1640
11856SOL    HW240254   6.371   0.818   9.828  0.0357 -0.1451 -1.3662
11857SOL     OW40255   2.332  11.320   9.089 -1.0127 -0.0063  0.7452
11857SOL    HW140256   2.294  11.303   9.175 -2.1363  0.1538  0.2881
11857SOL    HW240257   2.279  11.390   9.052  0.2857  0.8612  0.4356
11858SOL     OW40258   3.465  10.842   6.100 -0.1864  0.5325  0.2495
11858SOL    HW140259   3.448  10.751   6.127  0.7758  0.2479 -0.0607
11858SOL    HW240260   3.397  10.861   6.036 -0.7447  0.2251  0.7448
11859SOL     OW40261   7.977   7.836   9.179  0.4328  0.6761 -0.0900
11859SOL    HW140262   7.909   7.817   9.243 -0.4089  2.0735 -0.5150
11859SOL    HW240263   7.989   7.753   9.131  0.1444 -0.0089  0.9902
11860SOL     OW40264   1.075   4.196   5.378 -0.4316 -0.4823 -0.0234
11860SOL    HW140265   1.101   4.207   5.470 -0.3178  0.4907 -0.1552
11860SOL    HW240266   0.995   4.145   5.382 -1.0334  0.4839  0.7025
11861SOL     OW40267   4.904   0.637   9.876 -0.9574  0.2481  0.0038
11861SOL    HW140268   4.904   0.689   9.796 -0.0597  4.4914  2.4608
11861SOL    HW240269   4.989   0.594   9.877 -0.9418  0.2140 -1.1882
11862SOL     OW40270   5.431   7.100   1.707 -0.4044 -0.4039 -0.0617
11862SOL    HW140271   5.526   7.109   1.717 -0.0948 -1.7627 -1.3245
11862SOL    HW240272   5.406   7.173   1.650 -0.1331 -0.0096  0.3179
11863SOL     OW40273   4.114   8.728   8.303 -0.3486 -0.2479  0.2940
11863SOL    HW140274   4.086   8.637   8.308 -0.3473 -0.2747 -0.1678
11863SOL    HW240275   4.139   8.741   8.212  1.2134 -0.2335  0.6948
11864SOL     OW40276   0.271   3.116   4.640  0.4650  0.4307  0.4427
11864SOL    HW140277   0.359   3.092   4.669 -0.3190 -1.5945  1.3470
11864SOL    HW240278   0.230   3.155   4.717  0.7161  1.9465 -0.1515
11865SOL     OW40279  10.488  11.480   0.338  0.2600  0.2293  0.3099
11865SOL    HW140280  10.579  11.452   0.327  0.3105  0.6083 -0.2573
11865SOL    HW240281  10.484  11.512   0.428  0.2195 -1.4813  0.9600
11866SOL     OW40282  10.347   9.922   6.021  0.3817 -0.0878  0.3518
11866SOL    HW140283  10.430   9.928   5.974 -1.3578 -0.3066 -3.0844
11866SOL    HW240284  10.320  10.013   6.035  0.7510 -0.0245  0.6785
11867SOL     OW40285   3.670   2.679   3.345 -0.1951 -0.1976  0.0168
11867SOL    HW140286   3.615   2.614   3.390  0.0945 -0.6126 -0.2267
11867SOL    HW240287   3.658   2.759   3.396 -0.7229 -0.3832  0.1975
11868SOL     OW40288   6.870  10.986   0.921 -0.0518 -0.1492  0.2898
11868SOL    HW140289   6.806  10.948   0.861  1.3726 -0.1979 -1.2578
11868SOL    HW240290   6.919  10.911   0.954  1.5158  0.1114 -1.3080
11869SOL     OW40291   7.769   1.453   9.466  0.2933  0.2623 -0.6970
11869SOL    HW140292   7.714   1.519   9.425  1.6786  1.3863 -0.8287
11869SOL    HW240293   7.768   1.475   9.559 -0.2809 -0.3392 -0.5538
11870SOL     OW40294  10.942  11.935   0.382  0.1805 -0.8734 -0.1860
11870SOL    HW140295  10.847  11.949   0.386  0.3680  1.3326 -1.5694
11870SOL    HW240296  10.974  11.964   0.468 -0.2784 -0.2566 -0.2167
11871SOL     OW40297   3.015   4.167  10.103  0.1862  0.1127 -0.0849
11871SOL    HW140298   2.958   4.244  10.104 -0.0142  0.0244  2.5104
11871SOL    HW240299   3.102   4.202  10.120  0.0713 -0.2012  1.2612
11872SOL     OW40300  10.362   3.677   9.489 -0.1333 -0.0981  0.2969
11872SOL    HW140301  10.288   3.713   9.538  0.3441  0.7236  0.4274
11872SOL    HW240302  10.438   3.695   9.544  0.4356  0.9947 -0.8110
11873SOL     OW40303   0.535   5.686   9.803  0.4409  0.1936  0.2618
11873SOL    HW140304   0.609   5.725   9.757 -0.7043  1.5013 -0.5434
11873SOL    HW240305   0.471   5.756   9.810  0.6727  0.2190  4.2769
11874SOL     OW40306   9.885   4.218   5.506  0.6472 -0.3768 -0.4867
11874SOL    HW140307   9.837   4.232   5.587  0.4937  1.6523 -0.8940
11874SOL    HW240308   9.920   4.129   5.515  1.7159  0.1972  2.3828
11875SOL     OW40309   1.717   2.268   3.037  0.1762  0.1215  0.1843
11875SOL    HW140310   1.783   2.318   3.086 -0.1714  0.5871  0.1855
11875SOL    HW240311   1.714   2.310   2.951  0.8516 -0.7527 -0.2790
11876SOL     OW40312   8.805   5.736   4.933 -0.6078 -0.1024  0.8912
11876SOL    HW140313   8.888   5.694   4.957 -1.2573 -0.5458  2.4192
11876SOL    HW240314   8.826   5.829   4.930  0.0747 -0.2528  0.6853
11877SOL     OW40315   0.016   4.190   0.033 -0.2149 -0.0553 -0.1064
11877SOL    HW140316   0.084   4.237   0.082  1.5834 -1.9427 -0.6323
11877SOL    HW240317   0.007   4.239  -0.048 -0.1695  0.7435  0.3580
11878SOL     OW40318  11.393   4.814   8.441 -0.0365  0.2711  0.4814
11878SOL    HW140319  11.300   4.811   8.416  0.5317  1.8988 -2.2684
11878SOL    HW240320  11.407   4.903   8.473  0.6405  0.1454  0.5533
11879SOL     OW40321   0.084   4.265   0.293 -0.3347  0.0762 -0.2000
11879SOL    HW140322  -0.001   4.254   0.334  0.2725  0.2778  1.1589
11879SOL    HW240323   0.130   4.183   0.310  0.2138  0.4682  0.2435
11880SOL     OW40324  11.887   9.398   2.522  0.0483  0.0340 -0.1433
11880SOL    HW140325  11.847   9.479   2.552 -0.5848 -0.1023 -0.5840
11880SOL    HW240326  11.928   9.421   2.439 -1.2187 -0.3623 -0.9062
11881SOL     OW40327   3.702   8.537   2.192  0.4132 -0.0428  0.6552
11881SOL    HW140328   3.773   8.502   2.245  0.5247 -0.8989 -0.0363
11881SOL    HW240329   3.623   8.499   2.229  0.0734  2.3076  2.5750
11882SOL     OW40330   7.816   3.415   1.751  0.4748 -0.0666 -0.1273
11882SOL    HW140331   7.734   3.368   1.736  0.6579 -0.4697  0.0950
11882SOL    HW240332   7.845   3.441   1.663 -0.3487  0.8895 -0.1277
11883SOL     OW40333   6.169   9.122   0.753  0.3888 -0.1203  0.0621
11883SOL    HW140334   6.264   9.133   0.754  0.2429  1.3398 -0.8476
11883SOL    HW240335   6.143   9.135   0.844  1.0123 -0.1643  0.2532
11884SOL     OW40336   6.351   2.857   0.289  0.4038  0.7774  0.5338
11884SOL    HW140337   6.403   2.919   0.340 -0.0265  1.0464  0.6556
11884SOL    HW240338   6.312   2.800   0.355  0.8947  0.2932  0.4151
11885SOL     OW40339   9.000   2.340   7.238  0.6843 -0.0211  0.0993
11885SOL    HW140340   9.044   2.421   7.214 -0.1121  0.6089  0.7098
11885SOL    HW240341   9.005   2.338   7.334  1.0601 -0.9116  0.0757
11886SOL     OW40342   1.677   7.503   3.220  0.0854  0.1698  0.4147
11886SOL    HW140343   1.616   7.576   3.228  0.8286  0.8799 -0.2677
11886SOL    HW240344   1.665   7.471   3.131 -0.9433 -1.2071  1.0077
11887SOL     OW40345   5.334   6.782  10.293  0.6935 -0.9910 -0.0470
11887SOL    HW140346   5.399   6.716  10.316  0.9454 -0.3428  1.2098
11887SOL    HW240347   5.250   6.743  10.318  0.8634 -0.7752  0.9281
11888SOL     OW40348   6.268  11.262   4.076  0.3689  0.1212 -0.0509
11888SOL    HW140349   6.232  11.253   4.164  1.7887 -0.7142  0.4679
11888SOL    HW240350   6.217  11.333   4.037 -0.8458 -0.0546  1.1388
11889SOL     OW40351   8.122   3.300   6.709  0.0067  0.1657 -0.4309
11889SOL    HW140352   8.212   3.283   6.735 -0.0837 -0.8985 -0.7852
11889SOL    HW240353   8.080   3.335   6.788  0.1617 -1.4334  0.3995
11890SOL     OW40354   5.653  10.767  11.943  0.6187  0.6085  0.4242
11890SOL    HW140355   5.608  10.794  12.023  3.4171  2.2612  1.5866
11890SOL    HW240356   5.707  10.842  11.919  3.0333 -1.3268 -0.6073
11891SOL     OW40357   8.259   4.781   2.061 -0.4265 -0.1614 -0.1040
11891SOL    HW140358   8.172   4.798   2.095 -0.2898 -0.4766  0.4170
11891SOL    HW240359   8.307   4.743   2.135  0.3516  0.6215 -0.1852
11892SOL     OW40360   7.113   4.630   0.664  0.6925  0.4683 -0.1710
11892SOL    HW140361   7.028   4.586   0.672  0.7109  0.0766 -1.8574
11892SOL    HW240362   7.096   4.720   0.692 -0.1129  0.2318  0.1410
11893SOL     OW40363   9.800   6.756  10.603  0.4138 -0.0409 -0.4488
11893SOL    HW140364   9.726   6.704  10.633  0.9817 -1.0078 -0.6846
11893SOL    HW240365   9.767   6.802  10.525  0.4664 -1.6269 -1.4610
11894SOL     OW40366   2.052   1.153   4.774 -0.0919  0.2958 -0.2276
11894SOL    HW140367   2.085   1.125   4.860  1.0550  1.4171 -0.2864
11894SOL    HW240368   2.087   1.241   4.762  0.8695 -0.3173 -2.4225
11895SOL     OW40369  10.181  11.664  10.199  0.1183  0.0433  0.0214
11895SOL    HW140370  10.088  11.660  10.224 -0.1417  0.4880 -0.8370
11895SOL    HW240371  10.226  11.693  10.279 -0.6654  1.2310  0.0534
11896SOL     OW40372   8.644   9.812   4.111  0.1618  0.1744  0.0681
11896SOL    HW140373   8.641   9.901   4.146 -0.0989  1.2242 -2.4161
11896SOL    HW240374   8.705   9.766   4.169 -0.1676  1.7638  1.7914
11897SOL     OW40375   6.598  10.141   2.791  0.1905 -0.3304  0.0357
11897SOL    HW140376   6.546  10.082   2.845  1.9442 -0.8229  1.2913
11897SOL    HW240377   6.689  10.120   2.813  1.0237 -0.4341 -3.0074
11898SOL     OW40378  11.967   8.450   2.426 -0.5853 -0.4806  0.5899
11898SOL    HW140379  11.894   8.489   2.379 -0.9882  0.3513  1.8451
11898SOL    HW240380  11.926   8.398   2.495  0.0065 -0.7329  0.7610
11899SOL     OW40381   8.861   7.379   2.225  0.2634 -0.4355 -0.2911
11899SOL    HW140382   8.918   7.426   2.164  1.8369  0.4363  1.7200
11899SOL    HW240383   8.789   7.440   2.243  0.5190 -0.1396 -0.2584
11900SOL     OW40384   0.106   6.112   5.173 -0.5023  0.2159 -0.2702
11900SOL    HW140385   0.147   6.184   5.125  2.3292 -0.1811  1.3122
11900SOL    HW240386   0.039   6.153   5.227  0.7425  1.6497  0.2509
11901SOL     OW40387   4.479  11.253   8.281 -0.5091  0.2760  0.3610
11901SOL    HW140388   4.402  11.306   8.263 -0.5987  0.7215  1.9419
11901SOL    HW240389   4.532  11.306   8.341  0.0783 -0.8304  0.8531
11902SOL     OW40390   2.654   9.666   8.011  0.0124 -0.0109  0.1803
11902SOL    HW140391   2.733   9.643   7.963 -1.3171 -0.7892 -1.7575
11902SOL    HW240392   2.604   9.584   8.016 -0.4409  0.3242  1.9046
11903SOL     OW40393   6.350   5.595   9.006 -0.4830 -0.2098 -0.0248
11903SOL    HW140394   6.434   5.610   8.963 -0.0824  0.6997  1.0286
11903SOL    HW240395   6.359   5.508   9.046 -0.5786 -0.7241 -1.0871
11904SOL     OW40396   9.427   0.901   0.845 -0.0096  0.3386  0.3336
11904SOL    HW140397   9.492   0.844   0.886 -3.0006 -2.8487  1.1371
11904SOL    HW240398   9.390   0.951   0.917 -0.1420  0.3318  0.2694
11905SOL     OW40399   8.244   7.617   1.726  0.1536 -0.0500 -0.0308
11905SOL    HW140400   8.243   7.712   1.715 -1.0508 -0.2812 -2.4353
11905SOL    HW240401   8.337   7.596   1.740  0.4386  1.4465  0.5267
11906SOL     OW40402   4.807   0.294   2.875  0.2343  0.8373 -0.1750
11906SOL    HW140403   4.813   0.378   2.828  1.0036  1.5242  1.0810
11906SOL    HW240404   4.718   0.292   2.909 -0.0243  0.7919 -0.8599
11907SOL     OW40405   8.115   1.929   1.540 -0.0642 -0.5143 -0.1508
11907SOL    HW140406   8.180   1.892   1.481 -0.8417 -1.5314 -0.3930
11907SOL    HW240407   8.165   1.963   1.614  0.7433 -1.1242 -0.4185
11908SOL     OW40408   8.092   8.827  11.065  0.4441 -0.2348 -0.3516
11908SOL    HW140409   7.998   8.844  11.063  0.3514 -0.6619  0.3592
11908SOL    HW240410   8.120   8.856  11.152  0.8416 -0.7784 -0.2994
11909SOL     OW40411   2.346   5.054   7.845 -0.5112 -0.3373  0.3686
11909SOL    HW140412   2.341   5.117   7.916 -0.4768 -0.7055  0.7027
11909SOL    HW240413   2.423   5.080   7.795 -1.5452  1.0134 -0.5968
11910SOL     OW40414   8.030   8.381   8.182 -0.7065  0.0047  0.0910
11910SOL    HW140415   8.024   8.465   8.137  1.7045 -1.3720 -3.2032
11910SOL    HW240416   8.124   8.366   8.193 -1.1105 -1.7128  1.8170
11911SOL     OW40417   1.062   7.693   6.052 -0.5909  0.7247 -0.4009
11911SOL    HW140418   1.000   7.659   5.987  0.6338 -0.6784 -0.8682
11911SOL    HW240419   1.036   7.785   6.062 -3.2408  0.0332  0.0184
11912SOL     OW40420   5.676   6.180   8.363 -0.9975  0.6623  0.6726
11912SOL    HW140421   5.628   6.217   8.289 -3.0334 -0.0686  1.5544
11912SOL    HW240422   5.653   6.087   8.362  2.5090 -0.3508 -0.3760
11913SOL     OW40423   5.678  10.964  10.985  0.4625  0.0316  0.2258
11913SOL    HW140424   5.584  10.960  10.968 -0.0942 -0.2730  2.9777
11913SOL    HW240425   5.716  10.907  10.917 -1.3585 -0.2972 -0.5959
11914SOL     OW40426   2.410   5.023   0.846 -0.0331 -0.1842  0.1613
11914SOL    HW140427   2.427   5.003   0.754 -1.9964 -1.6163  0.0390
11914SOL    HW240428   2.458   5.104   0.862  1.1844 -0.4295 -1.8244
11915SOL     OW40429   2.199   2.424   2.901  0.5003 -0.1347 -0.0643
11915SOL    HW140430   2.161   2.385   2.822  1.1671 -0.7005 -0.1207
11915SOL    HW240431   2.147   2.388   2.972  0.2117 -0.0131 -0.2126
11916SOL     OW40432   8.778   3.230   1.669  0.7774 -0.2136  0.6141
11916SOL    HW140433   8.684   3.245   1.659  0.5495 -2.2782 -1.2181
11916SOL    HW240434   8.817   3.317   1.663 -0.8505  0.4633 -1.5211
11917SOL     OW40435   4.833   2.565   4.124  0.1355 -0.2966  0.5406
11917SOL    HW140436   4.918   2.593   4.158 -0.3533  1.1490  0.6447
11917SOL    HW240437   4.816   2.623   4.050 -0.6198 -0.7514  0.3459
11918SOL     OW40438  11.853   0.267   1.953  0.5866 -0.4912 -0.2107
11918SOL    HW140439  11.881   0.183   1.990  1.7863  0.0089  0.0837
11918SOL    HW240440  11.905   0.332   2.001 -0.6381  0.4614 -0.1322
11919SOL     OW40441  10.905   3.758   0.813  0.0311 -0.5795  0.0541
11919SOL    HW140442  10.999   3.758   0.795  0.0938 -0.3488  0.3634
11919SOL    HW240443  10.897   3.710   0.895 -0.0602 -0.1398  0.3062
11920SOL     OW40444   4.874   2.881   0.789 -0.2814  0.2334 -0.1936
11920SOL    HW140445   4.901   2.822   0.859  1.7006  3.0750  1.6071
11920SOL    HW240446   4.788   2.913   0.816 -0.6492 -0.5593 -0.3853
11921SOL     OW40447   4.570   0.981  10.983 -0.7076  0.5530  1.1883
11921SOL    HW140448   4.501   0.915  10.986 -1.8811  1.6819  0.1211
11921SOL    HW240449   4.569   1.013  10.893 -0.0091  1.8750  1.6289
11922SOL     OW40450   0.238   8.672   0.455 -0.0467  0.5491  0.6522
11922SOL    HW140451   0.182   8.749   0.448 -0.0529  0.5175  0.3668
11922SOL    HW240452   0.192   8.603   0.407  1.1713  1.0478 -1.3074
11923SOL     OW40453   5.139   3.672   6.664 -0.0830  0.4101  0.3955
11923SOL    HW140454   5.187   3.683   6.746  1.2124  1.9588 -0.5251
11923SOL    HW240455   5.085   3.751   6.658  0.1185  0.4894 -0.4186
11924SOL     OW40456   7.531   9.425   8.249 -0.8399  0.2283 -0.4096
11924SOL    HW140457   7.606   9.366   8.249 -2.3159 -1.7740 -1.5523
11924SOL    HW240458   7.486   9.407   8.332  0.2701  1.9560  0.6165
11925SOL     OW40459   9.623  10.844  11.745  0.6143  0.5218 -0.3042
11925SOL    HW140460   9.540  10.797  11.744  1.8413 -1.7852 -0.6910
11925SOL    HW240461   9.622  10.897  11.665 -0.6676  0.9504 -0.0302
11926SOL     OW40462  10.296   3.130   2.765 -0.0083  0.3309 -0.3278
11926SOL    HW140463  10.355   3.176   2.825  1.2941 -0.7582 -0.7371
11926SOL    HW240464  10.353   3.096   2.697 -1.1301 -0.7186 -0.7656
11927SOL     OW40465  11.122   9.426   7.099  0.3032  0.2036  0.1096
11927SOL    HW140466  11.186   9.443   7.168  0.7209  0.9519 -0.4354
11927SOL    HW240467  11.122   9.507   7.047 -0.3829 -0.1525 -0.4550
11928SOL     OW40468   4.632   6.924   0.612 -0.1239  0.2582 -0.5876
11928SOL    HW140469   4.634   6.962   0.525 -0.2393 -0.5251 -0.9471
11928SOL    HW240470   4.641   6.998   0.672  0.9777  0.6965 -1.2755
11929SOL     OW40471   8.673   6.734   3.046 -0.0124 -0.1969 -0.3418
11929SOL    HW140472   8.767   6.744   3.058 -0.2361  0.5106  1.0865
11929SOL    HW240473   8.641   6.705   3.132 -1.2144  0.6511 -0.4846
11930SOL     OW40474   9.295   8.422   3.474  0.8464  0.3784 -0.0364
11930SOL    HW140475   9.207   8.388   3.485  0.0132  2.3169 -0.2588
11930SOL    HW240476   9.350   8.367   3.530 -0.2998 -1.5575 -0.7470
11931SOL     OW40477   3.479   5.761   6.748 -0.3968  0.4260  0.3655
11931SOL    HW140478   3.455   5.787   6.659  0.7559 -1.3033 -0.5201
11931SOL    HW240479   3.450   5.670   6.755  0.6729  0.1317  1.3008
11932SOL     OW40480   7.283   4.265   8.417 -0.7409 -0.1141 -0.4338
11932SOL    HW140481   7.347   4.334   8.400  0.1860 -0.8699 -0.1107
11932SOL    HW240482   7.234   4.257   8.335 -1.4185  1.4602 -0.2237
11933SOL     OW40483  10.057   1.827   1.757 -0.3141  0.2991 -0.3019
11933SOL    HW140484  10.002   1.897   1.791  0.1116  0.8221 -0.6783
11933SOL    HW240485  10.098   1.789   1.834 -1.0975 -0.0156 -0.0290
11934SOL     OW40486   0.888   6.945   6.896  0.6749  0.5930  0.0623
11934SOL    HW140487   0.864   7.037   6.892  2.0666  0.9517 -2.6010
11934SOL    HW240488   0.843   6.905   6.821 -0.8827 -1.2187  1.8554
11935SOL     OW40489   0.077   9.260  11.558  0.2164  0.9005 -0.1368
11935SOL    HW140490   0.075   9.168  11.533 -1.9817  0.6403  0.7149
11935SOL    HW240491   0.156   9.270  11.611  0.0948 -0.6978  0.3929
11936SOL     OW40492   1.338   1.906   0.788  0.6880 -0.4859 -0.1868
11936SOL    HW140493   1.355   1.999   0.805 -0.1976 -0.3460 -0.0259
11936SOL    HW240494   1.254   1.905   0.742  0.4719 -1.2436  0.2157
11937SOL     OW40495   2.210   9.568   0.803 -0.1935  0.4769  0.1030
11937SOL    HW140496   2.126   9.522   0.811 -0.6285  0.8188 -1.9348
11937SOL    HW240497   2.190   9.659   0.826  0.1700  0.1405  1.8968
11938SOL     OW40498   8.930   8.328   4.206 -0.1455  0.4614  0.4822
11938SOL    HW140499   8.917   8.235   4.188  0.0043  0.2230  1.5792
11938SOL    HW240500   8.923   8.336   4.301  1.8722  1.2346  0.6201
11939SOL     OW40501   5.956   0.703   3.023 -0.0403 -0.2285  0.1017
11939SOL    HW140502   5.948   0.673   2.933 -1.0165 -0.6252  0.3028
11939SOL    HW240503   5.926   0.794   3.021  0.7413  0.0315 -0.1109
11940SOL     OW40504   5.895   6.873  11.201 -0.6342  0.0275 -0.2339
11940SOL    HW140505   5.943   6.955  11.198 -0.3979 -0.1305 -1.2087
11940SOL    HW240506   5.860   6.862  11.112 -1.2720 -0.5630  0.0783
11941SOL     OW40507   2.659   9.006   7.849 -0.1531  0.5081  0.6583
11941SOL    HW140508   2.669   8.911   7.842 -1.3829  0.4417 -0.5215
11941SOL    HW240509   2.677   9.038   7.761 -0.4850  1.2930  0.8698
11942SOL     OW40510   3.592   8.214   3.517 -0.0915  0.6546 -0.1163
11942SOL    HW140511   3.607   8.242   3.608  2.1521 -3.0061  0.8349
11942SOL    HW240512   3.516   8.157   3.522 -0.3894  0.9955 -0.7073
11943SOL     OW40513   4.881  11.955  10.170 -0.2754 -0.0713 -0.3446
11943SOL    HW140514   4.907  11.977  10.080  1.1196 -3.6244 -1.0046
11943SOL    HW240515   4.815  11.887  10.160 -0.8318  0.1694  1.3689
11944SOL     OW40516   9.702   9.092   3.606 -0.1585  0.5199  0.2253
11944SOL    HW140517   9.722   9.043   3.527 -1.0643 -0.4048  0.5411
11944SOL    HW240518   9.749   9.047   3.676 -2.0593 -0.7899  0.7359
11945SOL     OW40519   3.381  11.758   3.345 -0.1766 -0.2408  0.4434
11945SOL    HW140520   3.313  11.748   3.411  0.1021  1.3125  1.0141
11945SOL    HW240521   3.458  11.717   3.384 -0.3089 -0.3340  0.6065
11946SOL     OW40522   2.031   0.821   7.140 -0.5833 -0.0559 -0.0770
11946SOL    HW140523   1.970   0.753   7.170 -0.3937 -0.7469 -1.2183
11946SOL    HW240524   2.113   0.775   7.124  0.0663  0.7574  0.8132
11947SOL     OW40525   2.714   0.176  10.388  0.3087  0.3114 -0.0008
11947SOL    HW140526   2.762   0.247  10.346 -0.1525  0.3145 -0.5374
11947SOL    HW240527   2.775   0.103  10.390  0.6726  0.6191  0.2474
11948SOL     OW40528   3.999   6.249   8.526  0.1080 -0.4564 -0.6142
11948SOL    HW140529   4.004   6.265   8.621  0.9223 -1.2208 -0.5122
11948SOL    HW240530   3.906   6.253   8.506 -0.1997 -1.5489  0.4575
11949SOL     OW40531  11.897   6.589   4.799  0.2393 -0.0495  0.3820
11949SOL    HW140532  11.925   6.676   4.770  0.6398 -0.2418  0.1823
11949SOL    HW240533  11.926   6.583   4.890 -2.1659  1.0630  1.3113
11950SOL     OW40534   8.346   1.289   6.075 -0.0699 -0.3714 -0.1752
11950SOL    HW140535   8.261   1.331   6.089 -0.9854 -1.8826 -0.9121
11950SOL    HW240536   8.384   1.283   6.163 -1.1885 -0.5868  0.3214
11951SOL     OW40537  10.830  11.615   2.385  0.2894  0.2483  0.0270
11951SOL    HW140538  10.804  11.699   2.349 -0.4131  0.5420  1.1446
11951SOL    HW240539  10.811  11.622   2.479  0.5658 -1.0168  0.2044
11952SOL     OW40540   4.719   7.817   1.289 -0.3073 -0.0592 -0.1353
11952SOL    HW140541   4.727   7.857   1.376 -0.5341 -1.8117  0.7363
11952SOL    HW240542   4.625   7.816   1.272 -0.2083  1.1076 -0.8295
11953SOL     OW40543   7.580  11.876  10.514  0.3442 -0.7835 -0.5210
11953SOL    HW140544   7.637  11.943  10.552  0.6993 -0.3971 -1.6838
11953SOL    HW240545   7.494  11.918  10.511 -0.3840 -1.8105  2.4283
11954SOL     OW40546   5.489   1.565   1.900  0.6985 -0.0742 -0.0406
11954SOL    HW140547   5.489   1.584   1.806  0.2378  1.3944  0.2265
11954SOL    HW240548   5.396   1.571   1.925  0.7638 -0.9277  0.4305
11955SOL     OW40549   3.887   0.022   6.934 -0.2625  0.4789  0.4016
11955SOL    HW140550   3.795   0.008   6.956 -0.3044  0.4134  0.1845
11955SOL    HW240551   3.927  -0.064   6.942  0.2497  0.8489  2.6522
11956SOL     OW40552   0.699   5.427   4.092  0.1694  0.7775  0.0507
11956SOL    HW140553   0.652   5.370   4.031  0.4865  0.4496  0.1095
11956SOL    HW240554   0.687   5.515   4.056 -1.2943  0.8254  0.5799
11957SOL     OW40555   7.008   7.249   0.552 -0.0201 -0.3794 -0.1586
11957SOL    HW140556   6.930   7.219   0.598 -0.4785  0.9025 -0.0627
11957SOL    HW240557   7.022   7.339   0.583  1.4158 -0.5291 -0.2738
11958SOL     OW40558   3.450  11.995  11.080  0.0780 -0.5305 -0.1866
11958SOL    HW140559   3.534  12.041  11.073 -0.0403 -0.2092  0.4393
11958SOL    HW240560   3.411  12.004  10.993  0.2980  0.0891 -0.2312
11959SOL     OW40561  10.464   4.833   5.118 -0.3457  0.5087  0.0669
11959SOL    HW140562  10.408   4.846   5.195  1.1654 -0.6946  1.4302
11959SOL    HW240563  10.403   4.812   5.048 -1.6267 -0.7877  1.5033
11960SOL     OW40564   8.060   7.110   8.132  0.3458 -0.2188  0.4043
11960SOL    HW140565   8.130   7.175   8.126  0.6398 -0.5526  0.1760
11960SOL    HW240566   8.104   7.030   8.158  0.0363 -0.4148  0.3280
11961SOL     OW40567   0.212   8.221   2.168 -0.1990 -0.2378  0.3959
11961SOL    HW140568   0.222   8.290   2.235 -0.4103  1.4591 -1.2305
11961SOL    HW240569   0.120   8.226   2.142 -0.2065 -1.1322  0.2160
11962SOL     OW40570   2.678   2.682   4.757 -0.5237  0.1137 -0.0612
11962SOL    HW140571   2.648   2.703   4.845 -3.3490 -1.5400 -0.4791
11962SOL    HW240572   2.647   2.754   4.702  0.1894  0.5657  0.1293
11963SOL     OW40573   3.668  10.449   4.690  0.2049 -0.5489 -0.5397
11963SOL    HW140574   3.670  10.375   4.630  0.9016 -1.1376  0.1933
11963SOL    HW240575   3.705  10.416   4.772  0.1126  0.4834 -0.0521
11964SOL     OW40576  10.482   4.516   5.390 -0.1345 -0.8185 -0.1627
11964SOL    HW140577  10.398   4.473   5.406 -0.3017 -0.1925  0.6806
11964SOL    HW240578  10.470   4.559   5.305 -0.6526 -0.7805 -0.0775
11965SOL     OW40579   1.193   9.101   1.703  0.0427 -0.2095 -0.5323
11965SOL    HW140580   1.204   9.008   1.718  0.3044 -0.2487 -0.9441
11965SOL    HW240581   1.186   9.139   1.791  2.4132 -0.3170 -0.2221
11966SOL     OW40582   1.870   7.402   1.278  0.1790 -0.1632 -0.0167
11966SOL    HW140583   1.871   7.497   1.281  1.2870 -0.1781  0.4694
11966SOL    HW240584   1.853   7.381   1.186 -3.8822  0.4459  0.4100
11967SOL     OW40585   9.349   5.804   4.212 -0.0753  0.0726  0.0007
11967SOL    HW140586   9.287   5.779   4.144 -0.4284  1.0344 -0.0514
11967SOL    HW240587   9.432   5.815   4.166 -0.2059  0.2447 -0.1961
11968SOL     OW40588   4.412   1.162   4.831 -0.0773 -0.1859  0.1804
11968SOL    HW140589   4.396   1.248   4.872 -0.6293  0.7510 -1.8599
11968SOL    HW240590   4.488   1.127   4.878  0.2446  1.4711  0.9914
11969SOL     OW40591   4.452   8.570  11.439 -0.2680 -0.3823 -0.0001
11969SOL    HW140592   4.516   8.501  11.454  2.4614  0.8331 -4.1716
11969SOL    HW240593   4.409   8.546  11.357 -2.8343  0.5735  0.9565
11970SOL     OW40594   2.396  10.880   2.120 -0.2284  0.2812 -0.5423
11970SOL    HW140595   2.302  10.862   2.120  0.0942 -2.0085  1.6877
11970SOL    HW240596   2.437  10.794   2.122  1.8575  1.2189  0.4572
11971SOL     OW40597   4.579   2.388   1.275  0.0732 -0.4699 -0.1583
11971SOL    HW140598   4.598   2.472   1.233  1.3142 -1.4118 -1.5788
11971SOL    HW240599   4.633   2.388   1.354  0.7693 -0.2921 -0.6281
11972SOL     OW40600   7.711   3.854   5.596  0.0755  0.9123 -0.3685
11972SOL    HW140601   7.690   3.849   5.503  0.5111  2.3771 -0.5728
11972SOL    HW240602   7.655   3.923   5.630  0.5174  0.9644  0.2818
11973SOL     OW40603   8.357   8.272   7.538  0.7667 -0.8250 -0.0196
11973SOL    HW140604   8.423   8.334   7.569  2.5489 -2.0634 -1.1555
11973SOL    HW240605   8.372   8.193   7.591  0.3323 -1.1860 -0.4294
11974SOL     OW40606   6.186   6.723   9.228 -0.0668 -0.3654  0.0216
11974SOL    HW140607   6.125   6.706   9.300 -1.7390 -0.6349 -1.4063
11974SOL    HW240608   6.233   6.640   9.217  0.0809 -0.3761  0.6636
11975SOL     OW40609   4.310   3.357   4.910  0.0932  0.0740  0.4824
11975SOL    HW140610   4.283   3.433   4.858  0.9004  0.2942  0.3757
11975SOL    HW240611   4.349   3.297   4.847 -0.3038 -0.3216  0.6084
11976SOL     OW40612   5.193   8.256   2.398  0.1961  0.1402  0.2177
11976SOL    HW140613   5.273   8.222   2.358 -0.2896 -0.0368 -0.6224
11976SOL    HW240614   5.123   8.201   2.363 -0.2761  0.1094  1.1650
11977SOL     OW40615  10.477   6.167   0.638 -0.1013  0.0719  0.1790
11977SOL    HW140616  10.447   6.144   0.726 -1.5300 -0.3113 -0.3801
11977SOL    HW240617  10.442   6.255   0.622 -0.0043  0.0660 -0.0741
11978SOL     OW40618   1.325   7.329   4.447  0.5938  0.1653  0.0108
11978SOL    HW140619   1.358   7.411   4.485 -1.6846  0.9742  0.3617
11978SOL    HW240620   1.365   7.261   4.501  0.6178  1.1522  1.2928
11979SOL     OW40621   4.052   5.526   4.072  0.5862  0.3603  0.4083
11979SOL    HW140622   3.989   5.460   4.044  1.4233 -0.3570  0.1591
11979SOL    HW240623   4.022   5.607   4.030  1.5295 -0.5789 -2.3134
11980SOL     OW40624   1.232   8.356   4.354 -0.3912  0.0725  0.0930
11980SOL    HW140625   1.310   8.410   4.363 -1.8504  2.0875  1.9889
11980SOL    HW240626   1.217   8.350   4.260  0.2856  2.4484 -0.2463
11981SOL     OW40627   8.217  11.545   7.345 -0.3519  0.2442 -0.1287
11981SOL    HW140628   8.261  11.583   7.269 -1.4790  0.0063 -0.9209
11981SOL    HW240629   8.146  11.606   7.365 -0.0770  0.2972  0.7364
11982SOL     OW40630  10.164  11.189  11.053  0.2128 -0.7740 -0.2482
11982SOL    HW140631  10.247  11.205  11.008 -0.1406  2.1623 -0.0440
11982SOL    HW240632  10.189  11.150  11.137  1.2245 -1.6590 -0.9465
11983SOL     OW40633   6.097   5.550   7.802 -0.4878 -0.1706 -0.4024
11983SOL    HW140634   6.021   5.609   7.806 -0.3945 -0.0768 -0.0681
11983SOL    HW240635   6.103   5.526   7.709 -3.5045 -3.4978  0.0376
11984SOL     OW40636   5.342   9.728   1.658  0.1289  0.2431 -0.1261
11984SOL    HW140637   5.428   9.710   1.697  0.6432  1.9217 -0.4415
11984SOL    HW240638   5.323   9.818   1.682 -0.4489  0.6813 -2.0566
11985SOL     OW40639   5.108   9.191   4.822 -0.3519 -0.7680 -0.4473
11985SOL    HW140640   5.200   9.166   4.833  0.1311  1.4452  1.2544
11985SOL    HW240641   5.112   9.277   4.780 -1.5797 -0.1684  0.6012
11986SOL     OW40642   1.818   5.393   3.031  0.0678  0.0869  0.3767
11986SOL    HW140643   1.781   5.464   2.978  3.8447 -0.5233 -3.6996
11986SOL    HW240644   1.800   5.313   2.980  3.5198 -0.6075  0.0061
11987SOL     OW40645  11.836   6.147   7.784  0.1218  1.1996  0.1424
11987SOL    HW140646  11.910   6.093   7.759 -0.8819  1.1397 -3.1028
11987SOL    HW240647  11.777   6.087   7.830 -0.0887 -0.0429 -1.6587
11988SOL     OW40648  11.199   2.904   8.795  0.4379  0.3945 -0.1926
11988SOL    HW140649  11.118   2.919   8.844 -1.0938 -1.3569 -2.0318
11988SOL    HW240650  11.208   2.982   8.740 -1.9572 -0.7326 -2.4185
11989SOL     OW40651   5.945   3.432   7.564  0.3678 -0.0188  0.3433
11989SOL    HW140652   5.961   3.355   7.509 -0.1270  0.1944 -0.1040
11989SOL    HW240653   5.926   3.396   7.651 -1.3416 -0.4853 -0.1936
11990SOL     OW40654   4.944  11.139   0.945  0.1643 -0.0759  0.2114
11990SOL    HW140655   5.010  11.188   0.994  1.2418 -1.7053  0.4699
11990SOL    HW240656   4.952  11.049   0.976 -1.8637 -0.4270 -0.1210
11991SOL     OW40657   3.031   2.726  11.824 -0.6477  0.2566  0.1588
11991SOL    HW140658   2.994   2.693  11.906  0.0489 -2.1757 -0.4122
11991SOL    HW240659   3.105   2.667  11.806 -0.2760  1.2376 -1.7857
11992SOL     OW40660   6.565   1.884  10.796  0.0846  0.3865 -0.4860
11992SOL    HW140661   6.581   1.977  10.813 -1.1976  1.1929 -3.1525
11992SOL    HW240662   6.645   1.854  10.752  0.6006  0.1044  0.5943
11993SOL     OW40663   8.326   2.881   1.261 -0.4875 -0.3977  1.0026
11993SOL    HW140664   8.244   2.842   1.233 -0.8836  0.1004  1.4385
11993SOL    HW240665   8.393   2.818   1.236 -1.1155 -1.3779  1.7381
11994SOL     OW40666   4.707  10.234   8.996  0.0161  0.5217 -0.0611
11994SOL    HW140667   4.614  10.244   8.975 -1.1028 -0.7473  3.5233
11994SOL    HW240668   4.726  10.305   9.056  1.7417  1.3343 -1.4598
11995SOL     OW40669   9.483  11.757   5.601 -0.0620  0.8020  0.6429
11995SOL    HW140670   9.458  11.807   5.523 -0.0598  1.8660  1.3067
11995SOL    HW240671   9.406  11.759   5.657  0.0803  0.4081  0.8557
11996SOL     OW40672   9.279  10.633  10.566 -0.6818  0.4595 -0.6665
11996SOL    HW140673   9.273  10.701  10.633 -1.2185 -0.3809  0.1736
11996SOL    HW240674   9.372  10.617  10.554 -0.5637 -0.9473  1.5702
11997SOL     OW40675   3.405   5.066   2.031 -0.9659  0.3016  0.3334
11997SOL    HW140676   3.394   5.029   2.118 -0.4882  0.6116  0.5263
11997SOL    HW240677   3.330   5.125   2.020 -1.7657 -0.7480 -0.0018
11998SOL     OW40678   3.894   8.762   4.767 -0.4397 -0.9065  0.0635
11998SOL    HW140679   3.817   8.791   4.718  0.0966  1.3644  0.4486
11998SOL    HW240680   3.952   8.724   4.701 -0.1638  1.1791 -0.9667
11999SOL     OW40681   5.719   3.387   5.629  0.4325 -0.2999 -0.0674
11999SOL    HW140682   5.669   3.412   5.707 -0.0085 -0.0285 -0.4298
11999SOL    HW240683   5.733   3.293   5.639 -1.5671 -0.7309 -0.7140
12000SOL     OW40684   4.887   8.277   4.836 -0.1406  0.2373  0.4759
12000SOL    HW140685   4.887   8.367   4.870  1.2072 -0.0410  1.3273
12000SOL    HW240686   4.970   8.270   4.788  0.2429 -0.8234  1.2553
12001SOL     OW40687   0.300   5.134   2.780  0.0937  0.2036 -0.0574
12001SOL    HW140688   0.287   5.087   2.697  0.9339  0.9823 -0.6554
12001SOL    HW240689   0.364   5.081   2.828 -0.1548 -0.0827 -0.0409
12002SOL     OW40690   3.067   5.735   2.334 -0.1044 -0.1550 -0.2313
12002SOL    HW140691   3.033   5.713   2.247  1.0107 -0.4246 -0.6185
12002SOL    HW240692   3.162   5.737   2.323  0.0115  1.0001  0.7155
12003SOL     OW40693   4.015   0.195   2.035 -0.4276 -0.2631  0.0427
12003SOL    HW140694   4.098   0.151   2.014 -0.0862  0.5572 -0.3617
12003SOL    HW240695   3.957   0.170   1.963 -0.1910  0.0596 -0.2631
12004SOL     OW40696   1.102   7.927   0.606 -0.2122  0.5202  0.1762
12004SOL    HW140697   1.192   7.929   0.575  0.2672  0.1878  1.4616
12004SOL    HW240698   1.049   7.928   0.527  0.9280  0.0249 -0.6252
12005SOL     OW40699   0.640   8.881  10.838  0.2239  0.5217 -0.3825
12005SOL    HW140700   0.675   8.969  10.850  1.1915  0.2825 -1.3427
12005SOL    HW240701   0.696   8.825  10.892 -1.1619  0.6187  1.2368
12006SOL     OW40702   0.438   3.653   2.982  0.2594  0.1246 -0.4536
12006SOL    HW140703   0.386   3.591   3.033  0.7968 -0.7253 -0.8926
12006SOL    HW240704   0.402   3.647   2.893 -0.0668  0.8898 -0.3720
12007SOL     OW40705   3.136   8.859   4.242 -0.5165 -0.1469 -0.2051
12007SOL    HW140706   3.125   8.928   4.177 -2.0965  0.0530  0.2418
12007SOL    HW240707   3.093   8.782   4.204  1.2417 -0.9363 -0.7087
12008SOL     OW40708   8.362   0.728   3.283  0.3367 -0.2884 -0.5024
12008SOL    HW140709   8.346   0.814   3.245  0.5806  0.6042  1.3134
12008SOL    HW240710   8.454   0.730   3.310  0.1052 -0.7538  0.3826
12009SOL     OW40711   8.509   7.860  10.057  0.0751 -0.1664 -0.0356
12009SOL    HW140712   8.440   7.847   9.992  0.7542  0.3115 -0.8657
12009SOL    HW240713   8.521   7.774  10.097  0.3383 -0.7052 -1.2495
12010SOL     OW40714   8.727   2.110   3.406 -0.2732 -0.1671 -0.2900
12010SOL    HW140715   8.776   2.164   3.468  0.4612  0.1700 -1.1350
12010SOL    HW240716   8.647   2.086   3.453  0.5963 -0.5481  1.0488
12011SOL     OW40717   0.528   9.777   9.457  0.1043  0.1597  0.1806
12011SOL    HW140718   0.452   9.728   9.488  0.2232  0.4438  0.9506
12011SOL    HW240719   0.549   9.739   9.372 -0.9270  0.1055 -0.0622
12012SOL     OW40720   3.077   8.786   4.899  0.1628 -0.0471  0.4645
12012SOL    HW140721   3.154   8.753   4.851  0.1781  0.5357  0.0806
12012SOL    HW240722   3.077   8.880   4.882  0.6904  0.3305  2.3735
12013SOL     OW40723   8.695   8.253   8.035 -0.4757  0.3280  0.3534
12013SOL    HW140724   8.769   8.194   8.052 -1.1841 -0.3883  1.0533
12013SOL    HW240725   8.698   8.316   8.107  0.3662  1.2520 -0.4732
12014SOL     OW40726  10.393   5.352   3.955 -0.0322  0.0177  0.3152
12014SOL    HW140727  10.419   5.381   3.868 -0.4205 -0.9194 -0.1259
12014SOL    HW240728  10.299   5.335   3.948 -0.6102  2.3172  1.5944
12015SOL     OW40729   2.592  10.232   9.617 -0.5653  0.0544  0.6417
12015SOL    HW140730   2.556  10.321   9.613  1.0288  0.6890 -1.0827
12015SOL    HW240731   2.570  10.193   9.533  1.0954 -0.1595  0.2610
12016SOL     OW40732   2.304   0.677   8.693 -0.0028 -0.2885 -0.1440
12016SOL    HW140733   2.314   0.605   8.631  0.9744  0.3214 -0.7488
12016SOL    HW240734   2.281   0.752   8.638 -1.0491 -0.1418  0.4785
12017SOL     OW40735   3.934   4.567  11.084  0.7632 -0.1106 -0.1488
12017SOL    HW140736   3.908   4.645  11.036  0.7812  0.1549  0.2696
12017SOL    HW240737   3.881   4.497  11.046  0.3684  0.1991 -0.1746
12018SOL     OW40738   7.158   3.752   9.533 -0.0336 -0.5810  0.0459
12018SOL    HW140739   7.147   3.808   9.610  0.3380  0.8517 -0.9132
12018SOL    HW240740   7.199   3.809   9.468  1.0889 -2.1939 -0.7116
12019SOL     OW40741  11.415   4.618  10.470 -0.3828  0.5295 -0.3630
12019SOL    HW140742  11.384   4.621  10.561  0.5374 -1.5827  0.0819
12019SOL    HW240743  11.504   4.651  10.473  0.5760 -1.9193  0.0199
12020SOL     OW40744   1.640   8.115   1.757 -0.5386  0.0937 -0.1075
12020SOL    HW140745   1.606   8.123   1.668 -0.5723 -0.6455 -0.1636
12020SOL    HW240746   1.594   8.040   1.794  0.8859 -0.8224 -0.1239
12021SOL     OW40747   4.386   7.743   8.830  0.5735  0.3084  0.4592
12021SOL    HW140748   4.363   7.710   8.743  0.3296 -0.2985  0.7528
12021SOL    HW240749   4.345   7.829   8.834 -0.4864 -0.1797  0.4449
12022SOL     OW40750   1.830   7.673  11.706 -0.5849 -0.0948  0.7133
12022SOL    HW140751   1.807   7.585  11.735 -0.9237 -0.5510 -0.8826
12022SOL    HW240752   1.850   7.664  11.613  1.1784  1.1954  0.9233
12023SOL     OW40753  10.361  10.293   2.406 -0.6131 -0.2026 -0.1691
12023SOL    HW140754  10.407  10.211   2.385 -3.0837 -1.7519  0.0278
12023SOL    HW240755  10.424  10.342   2.459  1.1682 -1.7023 -0.7505
12024SOL     OW40756   6.361  10.995   2.206  0.1991  0.0460 -0.7182
12024SOL    HW140757   6.448  11.034   2.211 -0.2954  1.2537 -1.1194
12024SOL    HW240758   6.377  10.901   2.206  1.4186  0.2260  0.5071
12025SOL     OW40759   1.908   7.636   3.503 -0.0098  0.2636  0.0156
12025SOL    HW140760   1.834   7.607   3.557  0.9881  0.1020  1.3445
12025SOL    HW240761   1.909   7.576   3.429 -2.4541  1.5217 -1.1611
12026SOL     OW40762  11.399   9.527   8.003  0.0382 -0.1973  0.5105
12026SOL    HW140763  11.461   9.585   7.958  0.2450  0.5358  1.6990
12026SOL    HW240764  11.419   9.440   7.969  1.5832  0.0473  0.7143
12027SOL     OW40765   7.563   3.634  10.766  0.5092  0.3420  0.4459
12027SOL    HW140766   7.511   3.576  10.710 -0.4472  1.0702  0.5543
12027SOL    HW240767   7.644   3.585  10.782 -0.2140 -0.9042  0.4469
12028SOL     OW40768   3.681  11.792   0.412 -0.4099 -0.2611 -0.0376
12028SOL    HW140769   3.600  11.784   0.464 -1.0069  2.8973 -0.2677
12028SOL    HW240770   3.663  11.864   0.352  2.5815  0.5189 -0.1341
12029SOL     OW40771   5.854   9.375  10.171 -0.0531 -0.0714  0.5955
12029SOL    HW140772   5.919   9.343  10.233  2.5001  1.1041 -1.2582
12029SOL    HW240773   5.821   9.457  10.209  1.6875  0.7827  0.3591
12030SOL     OW40774   2.143   1.699   4.435  0.0041 -0.1566 -0.3071
12030SOL    HW140775   2.134   1.727   4.344  0.6480 -0.3758 -0.4447
12030SOL    HW240776   2.140   1.780   4.485  0.0025 -0.0042 -0.5504
12031SOL     OW40777   9.463   7.739  11.498 -0.2461  0.2545  0.1022
12031SOL    HW140778   9.387   7.778  11.454 -0.5719  0.9539  1.2464
12031SOL    HW240779   9.461   7.775  11.587  1.8012  0.7888 -0.0237
12032SOL     OW40780   4.409  10.119   0.228  0.0845  0.0675  0.6859
12032SOL    HW140781   4.329  10.173   0.234 -1.5422 -2.3053  2.8677
12032SOL    HW240782   4.389  10.054   0.161  1.2594  0.9244 -0.5444
12033SOL     OW40783   0.194   5.535   0.701  0.1916  0.5234 -0.5098
12033SOL    HW140784   0.263   5.557   0.764 -0.1205  0.7583 -0.2513
12033SOL    HW240785   0.209   5.443   0.680  0.1531  0.3799  0.0867
12034SOL     OW40786   2.941   6.321   1.394 -0.0176  0.4822 -0.0403
12034SOL    HW140787   2.898   6.374   1.461  1.0092 -0.0024  1.0363
12034SOL    HW240788   3.015   6.281   1.439 -0.0264 -0.8675 -1.1472
12035SOL     OW40789  11.050   2.624   9.961 -0.4246 -0.7691  0.4416
12035SOL    HW140790  11.124   2.681   9.938 -0.8021  0.5242  2.2240
12035SOL    HW240791  11.003   2.613   9.878  1.4577 -1.2315 -0.6274
12036SOL     OW40792   8.167   0.579   5.661  0.4174 -0.3783 -1.1125
12036SOL    HW140793   8.167   0.484   5.678  2.8234 -0.2091  0.1888
12036SOL    HW240794   8.083   0.609   5.696 -0.3342 -1.9937 -1.4318
12037SOL     OW40795   6.715  10.292   6.692  0.2741  0.7266  0.1363
12037SOL    HW140796   6.771  10.286   6.769 -1.4570  1.9124  1.5738
12037SOL    HW240797   6.626  10.283   6.726 -0.4839 -0.4747 -1.9744
12038SOL     OW40798   9.257   8.738  10.783  0.4618  0.6334 -0.0441
12038SOL    HW140799   9.214   8.729  10.867  1.4363  0.8131  0.4877
12038SOL    HW240800   9.312   8.660  10.776 -1.2629 -0.5486 -1.5343
12039SOL     OW40801   1.496   7.150   1.696  0.4369  0.1040 -0.1437
12039SOL    HW140802   1.409   7.110   1.704  0.2505  0.2913 -1.1261
12039SOL    HW240803   1.493   7.226   1.754 -0.3677  0.6244 -0.8468
12040SOL     OW40804   6.856   6.950  11.506 -0.3206  0.0766  0.4924
12040SOL    HW140805   6.772   6.990  11.527 -0.7105  0.8705 -2.2200
12040SOL    HW240806   6.835   6.878  11.447  0.9056  0.8175 -0.9193
12041SOL     OW40807   7.061   9.163  11.040 -0.2391 -0.7704  0.0443
12041SOL    HW140808   7.000   9.230  11.010 -0.7322 -1.9358 -1.7040
12041SOL    HW240809   7.147   9.199  11.021 -0.5171 -1.2838 -2.6130
12042SOL     OW40810  10.764   0.359   6.139 -0.2071  0.4465 -0.8141
12042SOL    HW140811  10.759   0.303   6.216 -0.1562 -1.3076 -2.0393
12042SOL    HW240812  10.834   0.421   6.159  0.0619 -0.2023  0.3749
12043SOL     OW40813  11.701   7.896   8.293  0.1938  0.1347  0.2207
12043SOL    HW140814  11.662   7.946   8.220  0.0637 -0.5905 -0.2213
12043SOL    HW240815  11.701   7.958   8.366  1.3271  1.2378 -0.6654
12044SOL     OW40816   9.042  11.168   4.102  0.3883 -0.4258  0.6417
12044SOL    HW140817   8.958  11.121   4.107  0.5466 -0.5741  3.2894
12044SOL    HW240818   9.040  11.211   4.017 -1.8162 -1.4525  0.0958
12045SOL     OW40819   2.205   3.668   2.448 -0.7359  0.0560  0.1135
12045SOL    HW140820   2.126   3.653   2.499 -1.1378  0.6271 -0.3410
12045SOL    HW240821   2.273   3.687   2.514 -1.8611  3.8833  0.4119
12046SOL     OW40822   1.152   6.029   8.321 -0.2086  0.0272 -0.1141
12046SOL    HW140823   1.059   6.036   8.298 -0.3227  2.1112  0.7321
12046SOL    HW240824   1.188   6.115   8.300  1.1311 -0.1551  1.2665
12047SOL     OW40825   0.305   8.106   3.164  0.1018 -0.5364 -0.2399
12047SOL    HW140826   0.222   8.145   3.137 -0.9095 -2.1285  0.4362
12047SOL    HW240827   0.301   8.016   3.130  0.9281 -1.0651  1.0115
12048SOL     OW40828   9.094   4.199   6.170  0.5097 -0.0576  0.6640
12048SOL    HW140829   9.070   4.135   6.104 -0.6848  1.2288 -0.2100
12048SOL    HW240830   9.089   4.152   6.253 -0.2862 -1.0954  0.0402
12049SOL     OW40831  10.051   8.112   5.211 -0.1992  0.4638  0.2536
12049SOL    HW140832  10.103   8.153   5.280  2.8170  0.2199 -1.6962
12049SOL    HW240833   9.971   8.164   5.207  0.2786  1.5420  2.7025
12050SOL     OW40834   2.096   3.638   9.736 -0.1309 -0.2206 -0.4568
12050SOL    HW140835   2.089   3.669   9.826  1.0218  0.4436 -0.5740
12050SOL    HW240836   2.010   3.654   9.698 -0.9797 -1.5300  0.8170
12051SOL     OW40837  10.583   8.179   4.054  0.0139  0.3391 -0.6875
12051SOL    HW140838  10.591   8.224   3.970 -3.5523  1.3615 -0.6369
12051SOL    HW240839  10.611   8.243   4.119 -0.2953  0.7197 -0.9244
12052SOL     OW40840   5.655   8.888   3.356 -0.4873  0.2567  0.2353
12052SOL    HW140841   5.723   8.867   3.293 -1.6541 -0.2087 -0.9106
12052SOL    HW240842   5.678   8.839   3.435 -0.5927 -1.5522 -0.8206
12053SOL     OW40843   0.676   0.342   2.282  0.0488 -0.3279  0.0363
12053SOL    HW140844   0.737   0.281   2.324 -0.7911 -1.3556 -0.2024
12053SOL    HW240845   0.698   0.427   2.319  1.8335 -0.6144 -0.2749
12054SOL     OW40846  11.534   0.624   4.718  0.1344  0.6180 -0.0405
12054SOL    HW140847  11.523   0.649   4.810 -1.1196 -1.4467  0.4202
12054SOL    HW240848  11.555   0.531   4.720  0.0069  0.5065 -1.8612
12055SOL     OW40849   8.947   9.375   9.330 -0.4562 -0.2371 -0.4867
12055SOL    HW140850   8.959   9.281   9.320 -0.0876 -0.0451 -2.0679
12055SOL    HW240851   9.020   9.415   9.283 -0.0410  0.8575  0.9867
12056SOL     OW40852   6.203   7.116   4.923 -0.0955  0.5070  0.2366
12056SOL    HW140853   6.166   7.052   4.984  0.6826 -1.4131 -1.2036
12056SOL    HW240854   6.136   7.128   4.857  1.6176 -3.1935 -2.5337
12057SOL     OW40855   9.089   7.981   7.887  0.5733 -0.5928  0.4322
12057SOL    HW140856   9.157   8.036   7.927  1.5400 -2.2651  1.1639
12057SOL    HW240857   9.137   7.908   7.847 -0.7924 -1.9259  1.1414
12058SOL     OW40858   2.554   4.740   8.446  0.2844  0.1717  0.1057
12058SOL    HW140859   2.630   4.697   8.486  0.4173  0.3459  0.0400
12058SOL    HW240860   2.563   4.723   8.352  0.4813  0.5741  0.0521
12059SOL     OW40861   7.925   3.032   1.439 -0.0400  0.1126 -0.6478
12059SOL    HW140862   7.896   3.004   1.525 -0.9605  0.9084 -0.6740
12059SOL    HW240863   8.020   3.031   1.444 -0.0776  0.7965  0.6045
12060SOL     OW40864   2.864   3.127   2.405  0.6126  0.6167 -0.2231
12060SOL    HW140865   2.847   3.033   2.403  0.4768  0.6438 -0.3865
12060SOL    HW240866   2.874   3.148   2.498  1.8292  0.2335 -0.2464
12061SOL     OW40867   7.414  10.599   0.165 -0.7840 -0.0473 -0.3070
12061SOL    HW140868   7.329  10.556   0.168 -0.8939  0.2020  1.8830
12061SOL    HW240869   7.475  10.533   0.199 -0.1046 -0.1345 -1.6087
12062SOL     OW40870   3.226   6.546   8.767 -0.1989 -0.0245  0.2110
12062SOL    HW140871   3.306   6.499   8.745  0.0855  0.1466  0.8613
12062SOL    HW240872   3.159   6.478   8.776 -0.0776 -0.1877 -0.0941
12063SOL     OW40873   7.256   1.561   2.786 -0.4783 -0.5675  0.1130
12063SOL    HW140874   7.233   1.523   2.701  2.5275 -2.1537 -0.1143
12063SOL    HW240875   7.315   1.634   2.764 -2.0674  1.0003  0.7943
12064SOL     OW40876   1.215   3.378   6.629 -0.1236  0.0848  0.0739
12064SOL    HW140877   1.225   3.361   6.722 -1.3860  1.9345  0.5963
12064SOL    HW240878   1.120   3.381   6.615  0.0155 -1.3503 -1.5395
12065SOL     OW40879   8.709   6.853  11.309  0.2717 -0.7462 -0.4677
12065SOL    HW140880   8.798   6.863  11.277  0.6613  0.8841  0.9932
12065SOL    HW240881   8.689   6.760  11.295  2.4438 -1.3072 -0.1468
12066SOL     OW40882   3.598   0.369  11.804  0.2687  0.2669 -0.2436
12066SOL    HW140883   3.612   0.358  11.710  1.1269  1.7412 -0.3323
12066SOL    HW240884   3.673   0.421  11.833 -1.0081  1.5813  0.8528
12067SOL     OW40885  11.198   5.967   5.153  0.4820 -0.1901 -0.0562
12067SOL    HW140886  11.218   6.053   5.115 -0.3543  1.1185  2.2558
12067SOL    HW240887  11.283   5.932   5.179  0.9291 -0.5441 -1.8331
12068SOL     OW40888   0.201   5.512  10.761 -0.6281  0.5584 -0.1411
12068SOL    HW140889   0.271   5.524  10.697  0.4821  2.0993  1.2774
12068SOL    HW240890   0.175   5.420  10.751  3.2435 -0.8305  0.8498
12069SOL     OW40891   9.516   8.440   8.070  0.6191 -0.7959 -0.4185
12069SOL    HW140892   9.489   8.373   8.007  1.2558 -0.0493 -1.5114
12069SOL    HW240893   9.586   8.489   8.026 -0.8895  1.6333 -0.3217
12070SOL     OW40894   2.729  11.834   1.967 -0.1279 -0.0056 -0.2792
12070SOL    HW140895   2.755  11.748   1.934 -1.8509 -0.5822 -0.2341
12070SOL    HW240896   2.715  11.820   2.061 -0.0674  0.4241 -0.2023
12071SOL     OW40897   9.040   3.121   7.728 -0.4273 -0.0264 -0.2028
12071SOL    HW140898   9.010   3.036   7.759 -0.0527  0.2811  1.0380
12071SOL    HW240899   8.997   3.132   7.643 -1.4760 -0.8979  0.1953
12072SOL     OW40900  10.385  11.191   5.586 -0.5646 -0.2736 -0.3224
12072SOL    HW140901  10.360  11.281   5.609 -0.9730 -0.2371 -0.9054
12072SOL    HW240902  10.458  11.201   5.525  0.1943 -0.3653  0.5504
12073SOL     OW40903   2.606   6.899   0.088 -0.3359  0.0242 -0.2311
12073SOL    HW140904   2.646   6.841   0.153 -2.3092 -1.2603 -0.0746
12073SOL    HW240905   2.558   6.840   0.029 -1.0254  1.3760 -1.0822
12074SOL     OW40906  10.414   4.487   8.948 -0.0148 -0.3713 -0.4734
12074SOL    HW140907  10.507   4.485   8.968 -0.2471 -2.0609  0.6700
12074SOL    HW240908  10.376   4.420   9.004 -1.8123 -0.2748 -1.4868
12075SOL     OW40909   3.730   8.509   7.802 -0.1714 -0.1897  0.0568
12075SOL    HW140910   3.748   8.593   7.761 -0.2793 -0.6207 -0.8927
12075SOL    HW240911   3.791   8.448   7.761 -0.9696 -0.8338 -0.2131
12076SOL     OW40912   3.452   2.261  11.859  0.6453  0.3837  0.2115
12076SOL    HW140913   3.487   2.323  11.796 -1.2632 -1.0017 -2.4177
12076SOL    HW240914   3.390   2.209  11.809 -1.6212 -0.3308  3.4419
12077SOL     OW40915   5.110  10.976   2.803 -0.2255 -0.2552  0.5165
12077SOL    HW140916   5.129  11.050   2.745  0.6835 -1.3371 -0.6231
12077SOL    HW240917   5.196  10.940   2.825 -0.6786 -1.8082 -0.0979
12078SOL     OW40918   9.810   1.928   6.879 -0.3003 -0.2210  0.1314
12078SOL    HW140919   9.785   1.949   6.969 -2.5922 -2.8151  0.1945
12078SOL    HW240920   9.801   1.834   6.872  3.2546 -0.6107 -1.9128
12079SOL     OW40921   0.590   9.899   7.419 -0.2871 -0.0223 -0.3872
12079SOL    HW140922   0.681   9.881   7.394 -0.1481  0.2411 -0.0778
12079SOL    HW240923   0.541   9.823   7.388 -0.1821  0.4602 -1.7842
12080SOL     OW40924  11.391  11.309   0.261  0.1679 -0.1075 -0.1606
12080SOL    HW140925  11.445  11.334   0.336 -1.9028  0.4819  1.2035
12080SOL    HW240926  11.377  11.215   0.272 -1.3439  0.2240  1.0876
12081SOL     OW40927   2.681   3.210  10.769  0.3862 -0.3898 -0.7569
12081SOL    HW140928   2.696   3.302  10.788  0.8908 -0.9701  2.1292
12081SOL    HW240929   2.767   3.176  10.742  0.8781 -0.5594  0.9396
12082SOL     OW40930   1.635   4.510   1.647  0.4138 -0.2519  0.6308
12082SOL    HW140931   1.710   4.450   1.638  0.5680  0.1070 -0.6587
12082SOL    HW240932   1.675   4.596   1.657  0.1934 -0.0056 -0.4745
12083SOL     OW40933   0.030  10.888  10.182 -0.4952 -0.1185 -0.3109
12083SOL    HW140934   0.085  10.890  10.260  0.3522  1.8261 -0.8983
12083SOL    HW240935  -0.047  10.940  10.206  0.5457  1.9740 -1.2392
12084SOL     OW40936   2.155   5.539   6.930  0.0399  0.0249 -0.0992
12084SOL    HW140937   2.115   5.467   6.979 -0.9678  0.6421 -0.0005
12084SOL    HW240938   2.186   5.600   6.997 -2.0929  1.2825 -0.1703
12085SOL     OW40939   6.553  10.515   5.489  0.1537  0.3576 -0.0286
12085SOL    HW140940   6.533  10.549   5.576  1.2516 -1.1631  0.8742
12085SOL    HW240941   6.510  10.429   5.487  2.1132 -0.6748 -0.0207
12086SOL     OW40942   1.442  11.703   0.494 -0.0390  0.2195 -0.3484
12086SOL    HW140943   1.434  11.789   0.453  1.1726  0.5528  0.0812
12086SOL    HW240944   1.431  11.721   0.588  2.2019  0.2582 -0.0331
12087SOL     OW40945   0.718  11.664  11.486  0.2327  0.5774  0.5057
12087SOL    HW140946   0.701  11.582  11.440 -1.3795  0.5218  1.1133
12087SOL    HW240947   0.661  11.728  11.442  1.6309  1.4479 -0.1094
12088SOL     OW40948   3.338   3.176   6.787 -1.1201  0.2226  0.1638
12088SOL    HW140949   3.327   3.081   6.793  1.1798 -0.1250 -0.1784
12088SOL    HW240950   3.378   3.190   6.701  1.4799  1.0924  1.3915
12089SOL     OW40951   2.978   9.948  11.020  0.4024 -0.6990 -0.4222
12089SOL    HW140952   2.985   9.994  11.104  2.2104  2.0767 -1.9285
12089SOL    HW240953   3.047   9.882  11.022  0.7330 -0.3419  0.1197
12090SOL     OW40954   8.164   0.495   1.159 -0.0890 -0.0525  0.5199
12090SOL    HW140955   8.106   0.475   1.233  0.5455 -1.6066  0.6230
12090SOL    HW240956   8.154   0.590   1.147 -0.7649  0.1184  2.1212
12091SOL     OW40957   9.151   0.160   4.158 -0.4231 -0.1268  0.6110
12091SOL    HW140958   9.158   0.191   4.248  0.4034  2.0581 -0.1211
12091SOL    HW240959   9.064   0.189   4.129 -1.0762 -1.6457  0.9327
12092SOL     OW40960  11.249   9.539   9.566  0.2135  0.1641  0.2872
12092SOL    HW140961  11.270   9.590   9.487 -0.9479 -0.1792 -0.2727
12092SOL    HW240962  11.236   9.605   9.634  0.1374  0.5378 -0.0811
12093SOL     OW40963   7.028   9.099   0.569 -1.1007  0.0884  0.3917
12093SOL    HW140964   7.050   9.187   0.537 -0.2243 -0.2443  0.0731
12093SOL    HW240965   7.083   9.087   0.647 -2.9933  0.7706  1.9334
12094SOL     OW40966   4.275   3.880   8.832 -0.0663  0.5806  0.0921
12094SOL    HW140967   4.229   3.807   8.790  1.2638  1.1628 -2.5281
12094SOL    HW240968   4.206   3.926   8.881 -1.2821 -1.3222  0.2943
12095SOL     OW40969   6.062   1.292   6.140 -0.0757 -0.5479 -0.0485
12095SOL    HW140970   6.042   1.378   6.103  0.1638 -1.2586 -1.9370
12095SOL    HW240971   6.125   1.253   6.080  1.1899 -1.3860  1.7130
12096SOL     OW40972   0.340  11.995  11.099  1.1031  0.5154  0.0045
12096SOL    HW140973   0.435  12.000  11.088  1.0085  2.1004 -0.3189
12096SOL    HW240974   0.305  12.030  11.018  0.2882  3.1694  1.4062
12097SOL     OW40975   7.467   9.856  11.849  0.9883  0.1394  0.3623
12097SOL    HW140976   7.448   9.778  11.796  1.4837  0.2516  0.0020
12097SOL    HW240977   7.539   9.829  11.906  0.9874  0.2555  0.4193
12098SOL     OW40978  11.978   1.448   3.571 -0.2520  0.0769 -0.4374
12098SOL    HW140979  11.984   1.353   3.578  0.9638  0.2414  2.0347
12098SOL    HW240980  12.068   1.477   3.559 -0.3793  0.9641  0.5383
12099SOL     OW40981   9.203   1.488   7.847 -0.2518 -0.1794  0.2358
12099SOL    HW140982   9.211   1.581   7.865 -1.0492  0.0973 -0.7259
12099SOL    HW240983   9.109   1.473   7.836 -0.2111 -1.2718  1.2246
12100SOL     OW40984   8.162  11.913   6.344 -0.1420 -0.0611 -0.2919
12100SOL    HW140985   8.119  11.929   6.260 -0.0350 -0.1550 -0.3650
12100SOL    HW240986   8.255  11.903   6.321  0.2392  2.0878  0.0529
12101SOL     OW40987   3.130   4.114   2.424 -0.2533  0.4655  0.6760
12101SOL    HW140988   3.122   4.164   2.505 -0.3703 -0.0716  1.0026
12101SOL    HW240989   3.120   4.023   2.451 -0.0619  0.2636  0.0896
12102SOL     OW40990   0.943  10.645  10.320  0.6861 -0.5924  0.0285
12102SOL    HW140991   0.968  10.629  10.411 -0.3860  0.5391  0.5580
12102SOL    HW240992   0.956  10.562  10.276  0.5051 -1.3770  1.3944
12103SOL     OW40993   4.372   0.779   3.738 -0.4767 -0.0183  0.1860
12103SOL    HW140994   4.448   0.767   3.794 -0.0096 -1.0814 -0.6292
12103SOL    HW240995   4.308   0.715   3.770 -0.1005 -0.8316 -0.6434
12104SOL     OW40996   3.174  10.580   0.942 -0.2626  0.8498 -0.0658
12104SOL    HW140997   3.095  10.624   0.910 -0.6318  0.9555  0.9577
12104SOL    HW240998   3.243  10.609   0.883 -1.0937  0.2807 -1.3476
12105SOL     OW40999   9.147   2.201   3.122  0.1078  0.1889  0.2524
12105SOL    HW141000   9.107   2.196   3.209  1.6139  0.2636  0.9743
12105SOL    HW241001   9.228   2.150   3.130 -1.0401 -2.2135 -1.8983
12106SOL     OW41002   2.682   2.887   0.335 -0.4876 -0.1652  0.1158
12106SOL    HW141003   2.765   2.915   0.371  0.4805 -1.1913 -1.2102
12106SOL    HW241004   2.680   2.792   0.350 -0.2992 -0.5344 -1.9319
12107SOL     OW41005   7.415   6.468   3.392  0.7481 -0.3978  0.1494
12107SOL    HW141006   7.510   6.454   3.396  0.7534 -0.0918  1.5856
12107SOL    HW241007   7.378   6.396   3.442 -0.0047 -2.1468 -2.7166
12108SOL     OW41008   6.409   3.931   2.549  0.1736  0.1100 -0.1331
12108SOL    HW141009   6.491   3.980   2.559  1.0117 -1.2961  0.1754
12108SOL    HW241010   6.384   3.909   2.639 -1.0210  1.2453 -0.1662
12109SOL     OW41011   9.161   8.871   0.005 -0.0909 -0.3556  0.0480
12109SOL    HW141012   9.185   8.779  -0.006 -2.4030 -1.2136  1.3733
12109SOL    HW241013   9.127   8.898  -0.080  1.6440 -0.3283 -0.6736
12110SOL     OW41014   6.810   0.212   2.155 -0.5567  0.3574 -0.3346
12110SOL    HW141015   6.793   0.122   2.180  0.6593  0.5693  1.3768
12110SOL    HW241016   6.872   0.245   2.219 -0.4902  2.2440 -1.2669
12111SOL     OW41017   5.299   4.220   1.053 -0.3335  0.2312  0.3813
12111SOL    HW141018   5.221   4.175   1.020  0.4846 -0.0179 -1.2949
12111SOL    HW241019   5.331   4.163   1.123 -0.5783 -0.6503 -0.2074
12112SOL     OW41020  11.298   9.998   0.520  0.5874 -0.6209 -0.2694
12112SOL    HW141021  11.359   9.925   0.504  2.0302  0.4505  0.1715
12112SOL    HW241022  11.350  10.077   0.503 -0.7543  0.3313 -0.0752
12113SOL     OW41023   5.142   2.107   4.060 -0.4615  0.0779  0.5394
12113SOL    HW141024   5.093   2.087   4.140  0.2871  0.2603  1.0475
12113SOL    HW241025   5.075   2.140   4.000 -1.0922 -0.4019  0.9555
12114SOL     OW41026  11.078   7.228   0.349 -0.1101  0.5703 -0.1886
12114SOL    HW141027  11.155   7.250   0.401  1.7489  0.7358 -2.8345
12114SOL    HW241028  11.070   7.133   0.355  0.9052  0.4470 -0.6399
12115SOL     OW41029   0.802   7.836   2.768  0.0558 -0.6128  0.6577
12115SOL    HW141030   0.854   7.895   2.714  1.0282 -1.9116  0.1147
12115SOL    HW241031   0.811   7.870   2.857 -0.8469  1.0437  0.1654
12116SOL     OW41032   0.586   0.494   5.456 -0.2940 -0.1360  0.0997
12116SOL    HW141033   0.519   0.474   5.392  0.1818  0.5953 -0.6462
12116SOL    HW241034   0.622   0.578   5.427  0.9717 -0.5419  0.4578
12117SOL     OW41035   0.770   6.356   2.665  0.2155 -0.2072  0.3917
12117SOL    HW141036   0.732   6.394   2.744 -0.1931  2.6276 -1.0401
12117SOL    HW241037   0.755   6.262   2.673  0.4661 -0.0600  3.7770
12118SOL     OW41038   9.801   1.130  11.220  0.1198 -0.0740 -0.1734
12118SOL    HW141039   9.867   1.189  11.259  0.2711 -0.8646  0.8110
12118SOL    HW241040   9.752   1.186  11.160  1.8927  0.4680 -1.2079
12119SOL     OW41041   1.119   8.426   8.761  0.0899 -0.4907 -0.2359
12119SOL    HW141042   1.168   8.495   8.717  0.8048 -0.9167 -0.1191
12119SOL    HW241043   1.180   8.390   8.826 -0.8051 -0.1624  0.8123
12120SOL     OW41044   6.345   9.034  10.081 -0.7338 -0.7162 -0.2455
12120SOL    HW141045   6.315   9.124  10.096 -2.4593 -1.0269 -1.4406
12120SOL    HW241046   6.266   8.981  10.095 -0.0231 -1.9108 -0.6719
12121SOL     OW41047   8.404  11.729   8.499 -0.4740  0.1529  0.9769
12121SOL    HW141048   8.445  11.813   8.481 -2.9887  1.2443 -0.0985
12121SOL    HW241049   8.467  11.683   8.555  2.6692  1.1949 -1.3864
12122SOL     OW41050   9.031   9.520  10.652 -0.3290  0.5065  0.0677
12122SOL    HW141051   9.064   9.522  10.742  0.3646  1.2034 -0.1838
12122SOL    HW241052   9.103   9.482  10.601  0.4594  2.6910 -0.6001
12123SOL     OW41053   2.753   2.684  11.335 -0.0799 -1.1720 -0.3942
12123SOL    HW141054   2.683   2.628  11.367 -0.7120  0.3533  1.0675
12123SOL    HW241055   2.714   2.733  11.262 -0.3279 -0.8639 -0.0613
12124SOL     OW41056   6.225   0.082   2.160 -0.2345  0.3925  0.2728
12124SOL    HW141057   6.146   0.032   2.182  0.0511 -0.3075 -0.2733
12124SOL    HW241058   6.194   0.149   2.099 -0.2585 -0.4690 -0.6811
12125SOL     OW41059   7.888   1.322   6.054  0.0264 -0.0585  0.4243
12125SOL    HW141060   7.958   1.349   6.114 -0.1516 -0.5531  0.8590
12125SOL    HW241061   7.871   1.231   6.077 -2.6674  0.7923  2.1971
12126SOL     OW41062   1.470  10.420   1.185 -0.0772  0.8089  0.2412
12126SOL    HW141063   1.466  10.343   1.241 -1.8939  1.5324  1.1924
12126SOL    HW241064   1.422  10.488   1.234  2.2903  2.8686 -0.0785
12127SOL     OW41065   8.595   0.294   2.740 -0.0759 -0.5664 -0.1959
12127SOL    HW141066   8.629   0.332   2.659 -0.1938  1.2052  0.5289
12127SOL    HW241067   8.531   0.229   2.711 -0.0245 -0.0539 -1.5377
12128SOL     OW41068   7.714   0.278   7.484 -0.2312  0.1830 -0.1801
12128SOL    HW141069   7.773   0.297   7.411 -0.4301  1.9125  0.0779
12128SOL    HW241070   7.666   0.200   7.455  1.2478 -0.5069 -0.9284
12129SOL     OW41071   8.296   0.350   4.852 -0.1348 -0.1224  0.0196
12129SOL    HW141072   8.314   0.415   4.921  2.0869  0.6191 -1.1724
12129SOL    HW241073   8.341   0.271   4.881  2.0859  0.6133 -1.1512
12130SOL     OW41074   0.349   4.681   6.931  0.2001  0.2786 -0.5873
12130SOL    HW141075   0.369   4.715   7.018  1.5979  1.0024 -1.1612
12130SOL    HW241076   0.435   4.663   6.892 -0.3825  0.5349 -2.0373
12131SOL     OW41077   3.461   0.598   1.981  0.0791  0.3279 -0.4424
12131SOL    HW141078   3.392   0.533   1.994  0.5709 -0.1471 -0.1225
12131SOL    HW241079   3.500   0.608   2.068  1.6400 -0.8405 -0.9631
12132SOL     OW41080   2.862   7.227   8.847 -0.3096  0.2311  0.0869
12132SOL    HW141081   2.781   7.273   8.868 -1.1304 -1.4646  0.8744
12132SOL    HW241082   2.890   7.188   8.930  2.6128  2.5896  0.3929
12133SOL     OW41083  10.744   7.769   5.379  0.1178  0.0801  0.1668
12133SOL    HW141084  10.656   7.773   5.416 -0.1139 -0.8935 -0.2371
12133SOL    HW241085  10.781   7.688   5.415  0.3723 -0.1827 -0.6746
12134SOL     OW41086   3.814   4.475  11.943  0.5747  0.1231  0.6576
12134SOL    HW141087   3.828   4.439  11.855 -1.2094 -2.1848  1.2123
12134SOL    HW241088   3.765   4.556  11.927 -0.6942 -0.8061 -0.5227
12135SOL     OW41089   9.635   6.804   8.167  0.2658  0.2368  0.2779
12135SOL    HW141090   9.561   6.774   8.220  0.3757  2.2772  1.6779
12135SOL    HW241091   9.681   6.723   8.143 -1.5184 -0.9582  0.6735
12136SOL     OW41092   1.592   7.606   6.004  0.1107 -0.1077 -0.0321
12136SOL    HW141093   1.624   7.690   6.038  2.8660 -1.2686  0.5119
12136SOL    HW241094   1.514   7.629   5.954 -1.4224  2.2809  3.1007
12137SOL     OW41095  11.215   7.079   9.939  0.7279  0.5076  1.0450
12137SOL    HW141096  11.250   7.116  10.021  0.3863  1.4920  0.7693
12137SOL    HW241097  11.277   7.011   9.915  1.0251  0.4420  1.9444
12138SOL     OW41098   1.280   7.079   3.620 -0.3623 -0.0769  0.2077
12138SOL    HW141099   1.293   7.156   3.565 -0.7471  0.1382  0.4103
12138SOL    HW241100   1.196   7.043   3.592 -0.4682 -0.0770  0.5172
12139SOL     OW41101  11.958  11.880  11.576  0.1719 -0.1585 -0.1701
12139SOL    HW141102  11.867  11.871  11.606  0.8054 -1.3457  1.5023
12139SOL    HW241103  11.954  11.860  11.482 -1.1406 -1.1867  0.0770
12140SOL     OW41104   0.607   9.649   0.315 -0.7313  0.0883 -0.2801
12140SOL    HW141105   0.594   9.578   0.252 -2.5562  1.1585 -1.1648
12140SOL    HW241106   0.526   9.650   0.367 -0.6124  1.3437 -0.0957
12141SOL     OW41107   4.638  10.344   4.972 -0.2256 -0.4849 -0.6931
12141SOL    HW141108   4.703  10.322   5.037  0.1073  0.2366 -0.7738
12141SOL    HW241109   4.688  10.363   4.893 -0.5420 -0.0469 -0.7901
12142SOL     OW41110   6.852   3.058   0.875 -0.2346 -0.1334 -0.3825
12142SOL    HW141111   6.759   3.038   0.862 -0.5363 -0.4695  1.8310
12142SOL    HW241112   6.854   3.108   0.957  1.5659 -0.4483 -0.1925
12143SOL     OW41113   5.308   0.158   9.319 -0.1853  0.4811  0.5699
12143SOL    HW141114   5.365   0.213   9.373 -0.2110  0.8847  0.1919
12143SOL    HW241115   5.355   0.074   9.313  0.2579  0.7310  0.4580
12144SOL     OW41116   3.111   3.860   9.359  0.3112  0.0403 -0.0412
12144SOL    HW141117   3.164   3.877   9.437  1.7647 -1.9940 -0.5189
12144SOL    HW241118   3.173   3.832   9.292 -1.1421 -0.4346 -1.2727
12145SOL     OW41119   2.042   3.775   7.438  0.1753 -0.2541  0.2196
12145SOL    HW141120   1.989   3.785   7.517 -1.8409 -3.0535 -0.6234
12145SOL    HW241121   2.089   3.692   7.451 -0.7570 -1.1515 -1.7655
12146SOL     OW41122   5.893   1.105   0.668 -0.3149 -0.7059 -0.3481
12146SOL    HW141123   5.907   1.030   0.609  4.4856  0.8013 -1.5748
12146SOL    HW241124   5.888   1.181   0.610 -0.9656  0.3231  1.0099
12147SOL     OW41125   4.991   0.392   5.136  0.0781 -0.5885  0.4382
12147SOL    HW141126   4.934   0.406   5.060  1.9076  1.9713 -0.5987
12147SOL    HW241127   4.937   0.417   5.211 -1.4313 -2.2058 -0.0434
12148SOL     OW41128   5.523   1.532   4.850 -0.1287 -0.0928  0.2253
12148SOL    HW141129   5.469   1.602   4.887 -0.6956 -1.4485  2.1439
12148SOL    HW241130   5.480   1.510   4.767  0.0095  1.7054 -0.3752
12149SOL     OW41131   8.194  10.794   3.682 -0.4028  0.0323  0.1383
12149SOL    HW141132   8.114  10.771   3.729 -1.4429  2.7513 -0.1320
12149SOL    HW241133   8.261  10.800   3.749 -0.5777 -1.4643  0.4790
12150SOL     OW41134   9.324  11.328   1.746 -0.1679 -0.0825  0.2582
12150SOL    HW141135   9.309  11.356   1.656  0.1426 -0.7806 -0.0240
12150SOL    HW241136   9.303  11.404   1.799  1.0498  0.8226 -0.5000
12151SOL     OW41137   0.755   2.013   5.026  0.2369 -0.0509  0.1480
12151SOL    HW141138   0.769   2.104   5.051  1.9327  0.0421 -0.9818
12151SOL    HW241139   0.841   1.972   5.037 -0.8314 -2.0097  2.3862
12152SOL     OW41140  10.708  10.700   9.482  0.2701 -0.3023 -0.6522
12152SOL    HW141141  10.763  10.779   9.481  0.3105 -0.3181  0.0036
12152SOL    HW241142  10.683  10.688   9.391  2.6341 -1.2060 -1.2549
12153SOL     OW41143   0.076   0.230   1.700  0.0568 -0.0553  0.0976
12153SOL    HW141144   0.078   0.304   1.760  0.2889  0.6740 -0.7873
12153SOL    HW241145   0.022   0.164   1.744  0.9368  0.1080  1.4863
12154SOL     OW41146   9.430   5.341   4.868  0.1916 -0.4781 -0.0459
12154SOL    HW141147   9.335   5.329   4.863 -0.1443  1.7894 -0.2799
12154SOL    HW241148   9.465   5.287   4.797 -0.9361 -1.1509 -0.1155
12155SOL     OW41149   2.190   2.394   0.678 -0.2431  0.1680  0.0624
12155SOL    HW141150   2.187   2.420   0.586  0.9851  0.1508 -0.0014
12155SOL    HW241151   2.272   2.345   0.686 -0.8929 -0.8046  0.9188
12156SOL     OW41152   3.103   1.042  11.873 -0.1610  0.0420 -0.1952
12156SOL    HW141153   3.071   1.060  11.962 -2.1942 -0.8498 -0.6925
12156SOL    HW241154   3.139   1.125  11.844  1.7279  0.0554  1.8851
12157SOL     OW41155   3.076   7.999  10.784 -0.2726  0.4165  0.1020
12157SOL    HW141156   3.083   8.019  10.877  1.0932 -0.5706  0.2407
12157SOL    HW241157   3.117   8.074  10.740  0.9082 -0.0473  0.3998
12158SOL     OW41158   8.289   7.683   4.231 -0.0923 -0.2021 -0.1304
12158SOL    HW141159   8.285   7.775   4.255 -0.9898 -0.3373  0.2748
12158SOL    HW241160   8.367   7.649   4.276 -1.2234 -0.2433  1.9321
12159SOL     OW41161   6.642   9.933   9.621  0.0598  0.1122 -0.2362
12159SOL    HW141162   6.639  10.009   9.680 -0.8015 -0.4986  0.5246
12159SOL    HW241163   6.687   9.966   9.543 -1.0396  1.6578 -0.2699
12160SOL     OW41164  11.638   3.741   7.513  0.3882  0.0518 -0.4995
12160SOL    HW141165  11.612   3.747   7.605  1.1506 -1.0223 -0.1952
12160SOL    HW241166  11.709   3.805   7.505  2.2007 -1.7466  0.3893
12161SOL     OW41167  10.632   6.954   3.497 -0.2076 -0.2871  0.4563
12161SOL    HW141168  10.704   6.920   3.443 -2.2166 -0.1280 -2.5930
12161SOL    HW241169  10.636   7.049   3.484 -0.5244 -0.2206  0.8648
12162SOL     OW41170  10.595   6.320   2.393  0.0726 -1.0299  0.2843
12162SOL    HW141171  10.608   6.375   2.470 -2.2850 -1.6657  1.1940
12162SOL    HW241172  10.610   6.231   2.423 -1.3303 -1.3284  0.1781
12163SOL     OW41173   6.683  11.501   5.015 -0.9192  0.3106  0.2301
12163SOL    HW141174   6.659  11.590   5.041 -1.6142  0.0056  0.6513
12163SOL    HW241175   6.612  11.446   5.047  0.3890 -0.6530  1.6147
12164SOL     OW41176   9.107  10.243  11.790 -0.2168 -0.1667  0.1935
12164SOL    HW141177   9.130  10.224  11.699 -0.0631  0.9918 -0.0257
12164SOL    HW241178   9.080  10.335  11.789  0.9916  0.2335  1.5410
12165SOL     OW41179   3.708   2.049   1.558 -0.1221  0.4592  0.1323
12165SOL    HW141180   3.710   2.106   1.636  1.6525 -0.6070  0.9285
12165SOL    HW241181   3.626   2.000   1.567  0.6185 -0.5507  2.0747
12166SOL     OW41182  10.179   0.851   2.796 -0.3422  0.6125 -0.1674
12166SOL    HW141183  10.172   0.812   2.883  0.8010 -0.0085 -0.3235
12166SOL    HW241184  10.202   0.943   2.813 -0.1880  0.5112  0.1951
12167SOL     OW41185   8.080  10.118   3.460  0.2962  0.5072 -0.3224
12167SOL    HW141186   8.154  10.137   3.401  0.9213  0.2417  0.3599
12167SOL    HW241187   8.072  10.197   3.514  1.0197 -0.0154  0.5666
12168SOL     OW41188   0.797  11.443   4.960 -0.3896  0.0376  0.0048
12168SOL    HW141189   0.743  11.415   4.887  0.1596 -0.7800 -0.1090
12168SOL    HW241190   0.877  11.391   4.951  0.3194  1.0535  0.2954
12169SOL     OW41191  11.016   5.563   4.976 -0.6750  0.5048 -1.0037
12169SOL    HW141192  10.961   5.598   5.046 -0.9528 -0.3241 -0.8038
12169SOL    HW241193  10.996   5.619   4.900 -0.2033  1.5480 -0.3842
12170SOL     OW41194   0.553   7.037   7.776 -0.4565 -0.1258  0.0211
12170SOL    HW141195   0.623   7.005   7.833 -1.7174 -1.1915  1.0284
12170SOL    HW241196   0.539   7.127   7.804 -0.0607 -0.1775  0.3952
12171SOL     OW41197   4.734   9.088   1.322 -0.0432 -0.0568 -0.2386
12171SOL    HW141198   4.692   9.028   1.384  1.2794 -0.9706 -0.1846
12171SOL    HW241199   4.801   9.133   1.374  2.2052 -1.9966 -1.2421
12172SOL     OW41200   2.249   8.278  11.577  0.2974 -0.1164  0.2563
12172SOL    HW141201   2.318   8.326  11.532  0.8324  0.5129  1.7219
12172SOL    HW241202   2.293   8.233  11.649 -0.3960 -1.8612 -0.3525
12173SOL     OW41203   6.698  10.646  11.790 -0.0993  0.0766 -0.2678
12173SOL    HW141204   6.740  10.571  11.832 -0.8038  0.2185  0.7239
12173SOL    HW241205   6.714  10.633  11.697  1.0240 -0.5434 -0.0039
12174SOL     OW41206   8.115   3.609   3.313 -0.1757  0.4213 -0.0645
12174SOL    HW141207   8.128   3.520   3.281  0.7131  0.3197  0.5393
12174SOL    HW241208   8.031   3.606   3.359  1.1476 -0.8896  2.4868
12175SOL     OW41209   8.956   5.384   5.420 -0.4337 -0.5579  0.0362
12175SOL    HW141210   9.029   5.416   5.369 -0.4761 -1.2081 -0.4411
12175SOL    HW241211   8.991   5.374   5.509 -0.7792  2.1057  0.5662
12176SOL     OW41212  11.225   8.014   6.925  0.3528 -0.0577  0.2031
12176SOL    HW141213  11.200   7.957   6.998  1.2235  1.1116  1.4560
12176SOL    HW241214  11.308   8.054   6.953  1.6030 -0.8285 -2.1343
12177SOL     OW41215  10.844   3.539   2.780  0.1722 -0.1352 -0.3489
12177SOL    HW141216  10.923   3.485   2.774  0.5013  0.1202  1.3046
12177SOL    HW241217  10.865   3.605   2.846 -0.2288  2.0381 -2.2537
12178SOL     OW41218   5.420  10.540   3.530  0.0034  0.3626 -0.3986
12178SOL    HW141219   5.454  10.461   3.488  1.4790 -0.1578  1.6316
12178SOL    HW241220   5.461  10.612   3.482  0.3669 -0.1473 -0.8723
12179SOL     OW41221   3.446  11.067  11.796 -0.4344 -0.1866 -0.0206
12179SOL    HW141222   3.392  11.079  11.718 -0.5295 -0.0464  0.0656
12179SOL    HW241223   3.465  10.974  11.798 -0.2935 -0.1673 -0.3048
12180SOL     OW41224   9.302   7.557   2.543  0.2685  0.4272 -0.3896
12180SOL    HW141225   9.318   7.652   2.545 -0.2923  0.5479  2.4027
12180SOL    HW241226   9.247   7.544   2.466  0.1212  2.4167 -0.6823
12181SOL     OW41227   0.404  10.279   5.317  0.4839  0.2178 -0.2854
12181SOL    HW141228   0.379  10.333   5.242 -0.8868 -0.7868 -0.5856
12181SOL    HW241229   0.349  10.311   5.389 -1.8347 -1.9643 -0.9352
12182SOL     OW41230   4.271   1.530  11.067  0.0591  0.3677  0.1485
12182SOL    HW141231   4.332   1.551  11.137 -0.5137  1.5439  0.3135
12182SOL    HW241232   4.268   1.434  11.065  1.1836  0.3097  0.7491
12183SOL     OW41233  11.053   2.326   8.287 -0.2176 -0.3000  0.0994
12183SOL    HW141234  11.134   2.275   8.286 -0.5814 -0.8713 -1.0244
12183SOL    HW241235  11.002   2.288   8.359  1.4272  1.6039  2.4446
12184SOL     OW41236   0.101   2.041   2.131 -0.2005 -0.1277  0.3878
12184SOL    HW141237   0.068   2.077   2.214 -3.1421 -0.7574 -0.3705
12184SOL    HW241238   0.043   2.079   2.065  2.0515  0.3408 -1.4487
12185SOL     OW41239   3.313   9.904   5.787 -0.0980 -0.5376  0.9593
12185SOL    HW141240   3.307   9.818   5.828  0.2102 -0.1121  1.9342
12185SOL    HW241241   3.407   9.918   5.773  0.0058  0.2931  2.3021
12186SOL     OW41242  10.409   2.937  10.310  0.0216  0.6441 -0.4008
12186SOL    HW141243  10.430   2.901  10.396 -0.5562  1.8874  0.2826
12186SOL    HW241244  10.483   2.911  10.255  1.4093  1.5065  0.9711
12187SOL     OW41245   5.466   9.739  11.453 -0.3044 -0.2142  0.6653
12187SOL    HW141246   5.486   9.650  11.424  2.0977  0.8263 -1.2708
12187SOL    HW241247   5.406   9.772  11.387  1.1843  0.5185 -0.3750
12188SOL     OW41248   4.420   0.033   8.341 -0.0855  0.2496 -0.5407
12188SOL    HW141249   4.499   0.049   8.393 -1.0281 -1.0432  1.4405
12188SOL    HW241250   4.374   0.117   8.342 -0.4540  0.0945  1.5219
12189SOL     OW41251   6.498   1.228   1.556  0.0227 -0.1286 -0.2027
12189SOL    HW141252   6.545   1.254   1.635 -1.0168  0.5013  0.2382
12189SOL    HW241253   6.501   1.305   1.500  1.5113 -0.8585 -1.1813
12190SOL     OW41254   1.667   8.871   7.746  0.1190  0.8436 -0.1254
12190SOL    HW141255   1.684   8.933   7.675  0.3143  1.9408  0.8582
12190SOL    HW241256   1.697   8.915   7.825 -0.6470 -0.1085  0.7336
12191SOL     OW41257  11.881   5.760   8.818 -0.5896  0.1298  0.2172
12191SOL    HW141258  11.934   5.683   8.839 -3.3201 -2.4890 -1.6565
12191SOL    HW241259  11.906   5.825   8.884  1.3256 -2.6026  2.4233
12192SOL     OW41260   1.123   1.212  10.210  0.0308 -0.3783 -0.8067
12192SOL    HW141261   1.104   1.131  10.257  1.9830 -1.5571 -1.9374
12192SOL    HW241262   1.163   1.269  10.276 -0.4610 -0.6812 -0.2372
12193SOL     OW41263  11.171   3.814   1.290 -0.7126  0.0625  0.1282
12193SOL    HW141264  11.130   3.768   1.363  2.0359 -3.3623 -0.1810
12193SOL    HW241265  11.141   3.766   1.212 -1.5618  2.0049 -0.8046
12194SOL     OW41266   9.435   4.467   7.916 -0.2834  0.1468 -0.2498
12194SOL    HW141267   9.432   4.373   7.901 -0.9542  0.3581 -1.5945
12194SOL    HW241268   9.451   4.505   7.830 -2.8167  1.3911 -0.2764
12195SOL     OW41269  10.421   0.443   9.815  0.2176 -0.2113  0.4950
12195SOL    HW141270  10.469   0.468   9.736 -0.4234  0.2997  0.2546
12195SOL    HW241271  10.411   0.348   9.808  1.9405 -0.4521  0.9941
12196SOL     OW41272   7.642   9.204   2.611  0.1160  0.1174 -0.1160
12196SOL    HW141273   7.692   9.276   2.572  0.2377  1.0614  1.6829
12196SOL    HW241274   7.685   9.125   2.578  0.7843  0.8803 -1.1388
12197SOL     OW41275   9.221   5.014   1.929 -0.3207  0.4007 -0.6459
12197SOL    HW141276   9.299   5.069   1.934 -0.7268  0.9334  0.0708
12197SOL    HW241277   9.254   4.925   1.937  0.2261  0.6224 -0.4010
12198SOL     OW41278   5.469   0.745   7.238 -0.5395  0.2654 -0.2587
12198SOL    HW141279   5.383   0.711   7.213  0.1292 -1.0085 -0.9192
12198SOL    HW241280   5.513   0.670   7.278 -0.8365  1.6801  3.0965
12199SOL     OW41281   9.326   4.178   9.319  0.4242  0.1763 -0.0606
12199SOL    HW141282   9.333   4.210   9.408  1.7774 -0.9685  0.2806
12199SOL    HW241283   9.406   4.127   9.305 -0.6189 -1.2279 -1.2798
12200SOL     OW41284   3.613   6.651  10.707 -0.2662  0.1422  0.0101
12200SOL    HW141285   3.668   6.723  10.735  1.7886 -1.4461  0.3018
12200SOL    HW241286   3.541   6.692  10.659  0.6767  2.3599  0.3967
12201SOL     OW41287   8.638  10.387  11.861  0.4605  0.4238  0.2312
12201SOL    HW141288   8.591  10.312  11.897 -3.4799  1.5140 -1.9559
12201SOL    HW241289   8.656  10.363  11.770  1.4719  1.2078  0.2036
12202SOL     OW41290   8.773   1.073   0.175  0.1156 -0.3219 -0.3161
12202SOL    HW141291   8.862   1.081   0.142  0.7454 -0.0825  1.3566
12202SOL    HW241292   8.752   1.159   0.211 -0.8597 -0.3377 -0.7895
12203SOL     OW41293   0.729   2.578  11.126 -0.3872  0.3904 -0.4136
12203SOL    HW141294   0.670   2.634  11.076 -0.8995  0.0847 -0.1619
12203SOL    HW241295   0.756   2.632  11.201 -1.7717 -0.0676  0.4380
12204SOL     OW41296   0.727   6.276  11.878  0.1284  0.5913 -0.1854
12204SOL    HW141297   0.768   6.352  11.921  0.0229  0.6193 -0.1324
12204SOL    HW241298   0.781   6.261  11.800 -0.9279  1.8926 -1.2158
12205SOL     OW41299   1.143   7.720   0.192 -0.4371 -0.4252  0.5846
12205SOL    HW141300   1.159   7.633   0.228  1.7343 -0.1924  0.2884
12205SOL    HW241301   1.108   7.703   0.105 -1.0166 -0.9811  0.9113
12206SOL     OW41302   2.950   2.807   6.097 -0.1472  0.6403  0.7288
12206SOL    HW141303   2.861   2.836   6.077  0.1764  0.7665 -0.5702
12206SOL    HW241304   2.938   2.736   6.160 -1.2059  0.2438  0.1079
12207SOL     OW41305   9.093  10.725  11.872  0.5723  0.3658  0.1246
12207SOL    HW141306   9.074  10.704  11.963 -3.2077  0.7911 -0.4174
12207SOL    HW241307   9.112  10.819  11.873  1.5405  0.1814  0.5451
12208SOL     OW41308   5.537   0.122   2.621 -0.3084 -0.1181 -0.3404
12208SOL    HW141309   5.485   0.051   2.657 -0.2715 -0.6422 -1.2998
12208SOL    HW241310   5.508   0.200   2.669 -1.4464 -0.5171 -0.3577
12209SOL     OW41311   8.560   6.448   7.444 -0.2744  0.0265  0.4231
12209SOL    HW141312   8.601   6.425   7.361  0.2506 -1.7048  1.1226
12209SOL    HW241313   8.554   6.365   7.492 -3.9119  0.2678  0.6927
12210SOL     OW41314   9.699   4.037  11.794 -0.2840  0.5711 -0.6866
12210SOL    HW141315   9.704   4.126  11.759 -0.7155  0.6725 -0.4988
12210SOL    HW241316   9.618   4.002  11.757 -0.3165  0.3955 -0.4496
12211SOL     OW41317   3.437   0.582   9.965  0.7910  0.4094  0.4666
12211SOL    HW141318   3.529   0.555   9.965  1.0030  1.0953 -0.2317
12211SOL    HW241319   3.439   0.673   9.935 -0.3083 -0.2517 -1.7726
12212SOL     OW41320   5.678   5.822   0.482 -0.1866  0.1007  0.5315
12212SOL    HW141321   5.640   5.837   0.396  1.5265 -0.6337 -0.4024
12212SOL    HW241322   5.641   5.891   0.537  0.1719  1.7983 -1.2570
12213SOL     OW41323   0.862  11.314   8.026 -0.9852 -0.4498 -0.5959
12213SOL    HW141324   0.808  11.353   8.094  2.0691  1.6820  0.8449
12213SOL    HW241325   0.884  11.227   8.060 -0.7335  0.0120  0.4556
12214SOL     OW41326   6.813  11.221   5.072 -0.0019 -0.0841  0.2302
12214SOL    HW141327   6.821  11.302   5.022 -0.0018 -1.1178 -1.5220
12214SOL    HW241328   6.724  11.189   5.053  0.1497 -0.7165  0.5419
12215SOL     OW41329   7.513   0.931   3.818 -0.4577 -0.3260 -0.8780
12215SOL    HW141330   7.531   0.934   3.724 -0.8470 -0.6966 -0.9670
12215SOL    HW241331   7.588   0.975   3.858 -0.2652 -0.2087 -1.3576
12216SOL     OW41332  10.571   8.179   8.151  0.0752 -0.1181 -0.3926
12216SOL    HW141333  10.622   8.108   8.112  0.3623 -0.4213  0.5190
12216SOL    HW241334  10.616   8.198   8.233 -1.3410 -0.4634  0.4850
12217SOL     OW41335   6.829  11.739   3.380  0.0882 -0.1587  0.2705
12217SOL    HW141336   6.865  11.824   3.354 -1.3735  0.9249  1.6177
12217SOL    HW241337   6.847  11.733   3.474 -2.0677 -0.1565  0.7205
12218SOL     OW41338   3.075   6.576   1.171  0.2440  0.2918  0.4600
12218SOL    HW141339   3.099   6.488   1.141  0.8485  0.7126 -0.3357
12218SOL    HW241340   3.157   6.612   1.206  0.1510  0.7850  0.1691
12219SOL     OW41341   3.073   0.567  10.575 -0.5457  0.1071  0.4825
12219SOL    HW141342   3.114   0.607  10.652  0.5593  0.4082 -0.2320
12219SOL    HW241343   3.138   0.579  10.505 -2.4325  1.9002 -1.0879
12220SOL     OW41344  11.013   8.817   0.830  0.1531  0.1445 -0.3037
12220SOL    HW141345  11.051   8.741   0.785  2.5512  1.3212 -0.4231
12220SOL    HW241346  10.969   8.866   0.760 -0.5452 -0.6081 -0.4039
12221SOL     OW41347   8.707   9.652   7.943  0.5334 -0.5194  0.2689
12221SOL    HW141348   8.694   9.588   8.013 -2.4484 -1.0294 -0.6251
12221SOL    HW241349   8.677   9.735   7.981  0.8384 -0.3707  0.1969
12222SOL     OW41350   8.098   0.639   6.894 -0.2093  0.0216  0.3599
12222SOL    HW141351   8.113   0.578   6.966 -1.3917  0.2816  0.8653
12222SOL    HW241352   8.152   0.715   6.915 -0.9290  0.3017  1.2673
12223SOL     OW41353   2.640   1.654  10.546 -0.5032  0.0757  0.5149
12223SOL    HW141354   2.638   1.739  10.590 -1.3362  0.9527 -1.1393
12223SOL    HW241355   2.554   1.645  10.506 -0.3321 -1.4410  0.4123
12224SOL     OW41356   3.572   8.079   0.448 -0.3138  0.1792  0.0115
12224SOL    HW141357   3.562   8.035   0.363  0.6424  1.9417 -1.0756
12224SOL    HW241358   3.658   8.121   0.443  1.1033 -1.9914  3.0144
12225SOL     OW41359   8.060   5.889   9.509  0.2590 -0.2258  0.7087
12225SOL    HW141360   8.026   5.857   9.593  0.1296 -2.1641 -0.0266
12225SOL    HW241361   8.128   5.825   9.486 -1.5360 -1.3391 -1.9341
12226SOL     OW41362   7.863   3.736   4.844  0.0543  0.3468 -0.1379
12226SOL    HW141363   7.918   3.814   4.828  0.1526  0.7699  1.9933
12226SOL    HW241364   7.904   3.693   4.918 -0.3208 -1.4915 -0.9548
12227SOL     OW41365   8.045   4.403   2.315  0.6795  0.1221 -0.1925
12227SOL    HW141366   7.967   4.458   2.308  1.1020  0.7966  0.2109
12227SOL    HW241367   8.043   4.348   2.237  0.0713  0.4898 -0.4448
12228SOL     OW41368   6.128   6.224   9.865  0.4324  0.1929  0.2035
12228SOL    HW141369   6.065   6.152   9.862  0.5648  0.0656  0.4507
12228SOL    HW241370   6.159   6.233   9.775  2.4385 -1.8510  0.5929
12229SOL     OW41371   8.003  10.249   0.349  0.0447 -0.9324  0.3553
12229SOL    HW141372   8.010  10.275   0.257  1.4611 -1.0816  0.3938
12229SOL    HW241373   8.089  10.212   0.370 -0.5492 -1.7248  1.4938
12230SOL     OW41374   2.986   3.052   0.059 -0.0117  0.7592 -0.5587
12230SOL    HW141375   2.904   3.003   0.047  1.1589 -2.1735  1.8189
12230SOL    HW241376   2.958   3.139   0.087 -2.4353 -0.5887  1.7188
12231SOL     OW41377  10.599   9.918   9.947  0.3542 -0.3917  0.4390
12231SOL    HW141378  10.519   9.940   9.996 -1.5929 -1.6397 -1.9264
12231SOL    HW241379  10.644  10.002   9.936 -2.1016  0.9104 -0.5042
12232SOL     OW41380   7.197  11.519   5.079  0.0080 -0.4072 -0.0171
12232SOL    HW141381   7.196  11.513   4.984  0.9452  3.9403 -0.5494
12232SOL    HW241382   7.105  11.529   5.104 -0.1096  1.0750 -0.8852
12233SOL     OW41383  11.338   9.187   8.505 -0.2862  0.0296  0.0859
12233SOL    HW141384  11.395   9.256   8.471  2.5787 -2.3379 -0.3498
12233SOL    HW241385  11.337   9.201   8.600  1.0694  0.1731  0.1038
12234SOL     OW41386   7.737   3.267   6.711  0.1518  0.1441  0.5167
12234SOL    HW141387   7.781   3.219   6.641 -1.9045  2.2997 -2.4691
12234SOL    HW241388   7.791   3.344   6.725 -0.1153  0.3574  0.3703
12235SOL     OW41389   8.821   8.598   1.516 -0.5177  0.0901  0.0821
12235SOL    HW141390   8.778   8.665   1.569  0.5380  1.3386 -0.5808
12235SOL    HW241391   8.750   8.549   1.475 -1.3300 -0.0140  1.5260
12236SOL     OW41392   5.426   5.207  10.509  0.1369 -0.2301 -0.5207
12236SOL    HW141393   5.522   5.203  10.501  0.3077  0.9019  0.6120
12236SOL    HW241394   5.408   5.170  10.595 -0.4953 -0.7214 -0.8537
12237SOL     OW41395  10.444   3.174   3.794 -0.2678  0.7446 -0.3169
12237SOL    HW141396  10.517   3.236   3.791 -0.4789  0.9759 -0.7895
12237SOL    HW241397  10.394   3.192   3.714 -0.0901 -0.3359 -0.6792
12238SOL     OW41398   9.114   8.921  10.611 -0.0632 -0.9239 -0.0641
12238SOL    HW141399   9.102   8.990  10.676  0.1377  1.4784 -2.4246
12238SOL    HW241400   9.190   8.872  10.642  0.5005  0.6219  1.1233
12239SOL     OW41401   7.700   1.737  12.000  0.0978 -0.3773 -0.8659
12239SOL    HW141402   7.640   1.788  12.055  1.5975  1.4408 -0.8220
12239SOL    HW241403   7.760   1.696  12.062  0.8713  0.4600 -1.0408
12240SOL     OW41404   2.095   6.563   6.211  0.3137  0.1363 -0.6615
12240SOL    HW141405   2.036   6.638   6.214 -1.7639 -1.3988 -0.8585
12240SOL    HW241406   2.171   6.593   6.161 -1.2232  1.6025 -2.2187
12241SOL     OW41407  10.421   4.795   2.144  0.1205 -0.2056  0.2197
12241SOL    HW141408  10.508   4.813   2.109 -0.7258  1.6665 -1.1009
12241SOL    HW241409  10.388   4.881   2.170 -1.2448 -0.9114  0.9133
12242SOL     OW41410   8.602   0.815   6.408  0.3265  0.1896  0.0489
12242SOL    HW141411   8.665   0.752   6.376  0.1992  0.6674 -1.1992
12242SOL    HW241412   8.528   0.762   6.438 -0.1012 -0.2617 -1.6853
12243SOL     OW41413   3.714   7.283   1.325  0.1825  0.2707 -0.1838
12243SOL    HW141414   3.638   7.249   1.278  0.1249  1.0496 -0.6775
12243SOL    HW241415   3.691   7.375   1.343  0.8594  0.4128 -0.0314
12244SOL     OW41416   1.459  10.899   7.825 -0.4764 -0.7361 -0.4797
12244SOL    HW141417   1.424  10.939   7.745 -0.7541 -0.2912 -0.1436
12244SOL    HW241418   1.466  10.806   7.804 -0.7762 -0.6600 -0.9448
12245SOL     OW41419  10.119   0.733   0.089  0.6815  0.4036 -0.3083
12245SOL    HW141420  10.155   0.646   0.105 -0.4085  0.0142  0.1458
12245SOL    HW241421  10.066   0.723   0.010 -0.6767  0.2395  0.5755
12246SOL     OW41422   0.928   2.822  10.440 -0.1460  0.3407 -0.2731
12246SOL    HW141423   0.866   2.807  10.512 -0.6666  0.6135 -0.6563
12246SOL    HW241424   0.933   2.738  10.394  0.5570  0.0282  0.3591
12247SOL     OW41425   5.824   3.820   2.057  0.6062  0.2395 -0.5931
12247SOL    HW141426   5.876   3.897   2.078 -0.5961  0.8533  0.2341
12247SOL    HW241427   5.862   3.750   2.110  1.7618  0.2267 -1.4176
12248SOL     OW41428   0.467   5.357  11.394  0.1148  0.0607 -0.4763
12248SOL    HW141429   0.550   5.309  11.402  0.2118 -0.4634 -3.4704
12248SOL    HW241430   0.494   5.448  11.380  0.2410 -0.1522 -1.7257
12249SOL     OW41431  11.188   3.872   8.410 -0.2944  0.8612 -0.4938
12249SOL    HW141432  11.152   3.886   8.322 -0.7521  0.2531 -0.4102
12249SOL    HW241433  11.120   3.823   8.456  1.1506 -1.4792 -0.7153
12250SOL     OW41434  11.240   9.408   4.366 -0.4160  0.5778 -0.2329
12250SOL    HW141435  11.327   9.441   4.346  0.6528 -1.2969  1.0398
12250SOL    HW241436  11.215   9.455   4.446 -0.6723  1.2396 -0.6914
12251SOL     OW41437   3.707   4.086   3.409  0.1680 -0.1453 -0.0422
12251SOL    HW141438   3.792   4.043   3.416  0.1802  0.1851  3.1064
12251SOL    HW241439   3.726   4.179   3.417 -0.5048 -0.1328  2.0735
12252SOL     OW41440   2.278   2.815   8.743 -0.4203  0.4156 -0.0994
12252SOL    HW141441   2.284   2.894   8.690  1.7130 -0.4083 -1.2277
12252SOL    HW241442   2.291   2.743   8.681 -1.1152 -0.7715  1.0724
12253SOL     OW41443   1.449   4.684  11.861  0.6877  0.0514  0.6473
12253SOL    HW141444   1.502   4.615  11.820  0.1072 -0.5500  0.8974
12253SOL    HW241445   1.494   4.765  11.836  0.8837 -0.3526 -0.4035
12254SOL     OW41446   4.315   2.404   1.812 -0.5042  0.1194  0.1392
12254SOL    HW141447   4.245   2.465   1.834 -0.1145  0.8333 -0.5825
12254SOL    HW241448   4.395   2.456   1.813 -0.2134 -0.2817 -0.8537
12255SOL     OW41449   8.484  10.745   4.097 -0.1824  0.2804 -0.1321
12255SOL    HW141450   8.391  10.725   4.094 -0.1348  0.1550 -0.8995
12255SOL    HW241451   8.499  10.776   4.187 -1.1869  1.3993 -0.3245
12256SOL     OW41452   4.785   3.244   4.001 -0.3597  0.5951  0.2643
12256SOL    HW141453   4.812   3.227   3.910 -1.2038 -0.8239  0.2444
12256SOL    HW241454   4.866   3.264   4.047  0.7372 -2.6604  0.0233
12257SOL     OW41455   3.525   5.999   5.610  0.1946 -0.5502 -0.0873
12257SOL    HW141456   3.569   6.051   5.678 -0.4071  0.2353 -0.2809
12257SOL    HW241457   3.496   5.920   5.656 -0.0587 -0.1043  0.5437
12258SOL     OW41458   2.299  11.143   4.643 -0.7661  0.3246 -0.5307
12258SOL    HW141459   2.296  11.110   4.733 -0.3123  1.4115 -0.1095
12258SOL    HW241460   2.392  11.144   4.621 -0.7652  1.2957 -0.5304
12259SOL     OW41461   0.569   8.240  10.885 -0.4345  0.6530 -0.3207
12259SOL    HW141462   0.656   8.230  10.846 -0.2894  0.5281  0.0250
12259SOL    HW241463   0.544   8.152  10.912 -1.0929  0.5340 -1.2851
12260SOL     OW41464   0.579   0.528   4.035  0.1208 -0.7434  0.1219
12260SOL    HW141465   0.622   0.445   4.012  1.4425  0.1819 -0.8661
12260SOL    HW241466   0.567   0.572   3.951 -2.4667 -0.7741  0.3959
12261SOL     OW41467  11.472  10.278   0.891  0.0221  0.4989 -0.1255
12261SOL    HW141468  11.517  10.343   0.946  0.8352 -0.0640 -0.1006
12261SOL    HW241469  11.432  10.217   0.953  1.6265 -0.6047 -0.1076
12262SOL     OW41470  10.958   4.956  11.093  0.0959  0.5968  0.0851
12262SOL    HW141471  11.035   4.990  11.138  0.7163 -1.0074  0.3331
12262SOL    HW241472  10.934   4.878  11.144 -1.8036  1.1535  0.1145
12263SOL     OW41473   6.537   0.577   1.155 -0.4036 -0.8419 -0.1914
12263SOL    HW141474   6.515   0.652   1.209 -0.1502 -1.4642  0.8003
12263SOL    HW241475   6.520   0.501   1.211  0.7006 -1.4671 -0.6743
12264SOL     OW41476   5.644   9.035   2.626 -0.1694  0.1020  0.2769
12264SOL    HW141477   5.717   9.055   2.568 -1.1089  1.4886 -0.4919
12264SOL    HW241478   5.568   9.029   2.568 -0.6075 -1.8768  0.9844
12265SOL     OW41479   0.456   7.894   5.609 -0.0567  0.4764  0.4401
12265SOL    HW141480   0.487   7.940   5.687  1.3234  0.2048  0.0862
12265SOL    HW241481   0.528   7.902   5.546 -0.7438 -0.1553 -0.4626
12266SOL     OW41482  10.391   6.008   4.455  0.0334 -0.4448  0.9354
12266SOL    HW141483  10.468   6.024   4.509  0.0717 -0.1170  0.7872
12266SOL    HW241484  10.421   5.947   4.388  0.4421  0.4668  0.2687
12267SOL     OW41485   5.570   9.636   1.778  0.0388 -0.6378 -0.2386
12267SOL    HW141486   5.589   9.553   1.734 -0.3692 -2.6954  3.1677
12267SOL    HW241487   5.656   9.676   1.793  0.2689 -0.6510 -1.4206
12268SOL     OW41488   0.339   8.888   5.848  0.4367 -0.7811 -0.4416
12268SOL    HW141489   0.428   8.923   5.854 -0.2987  1.6317 -1.9039
12268SOL    HW241490   0.303   8.928   5.768 -2.8149  0.4891  1.4444
12269SOL     OW41491   7.870   0.646   1.691  0.0007  0.0473  0.6381
12269SOL    HW141492   7.941   0.690   1.738  1.3253 -0.4692 -0.8151
12269SOL    HW241493   7.907   0.563   1.662 -1.0831 -0.0807 -0.4753
12270SOL     OW41494   9.246   7.664  11.175 -0.1131  0.0189  0.1470
12270SOL    HW141495   9.164   7.636  11.134  0.4971 -0.3864 -0.8531
12270SOL    HW241496   9.308   7.594  11.153  0.5528  0.4197  0.7067
12271SOL     OW41497   6.907   6.953   0.801 -0.2647 -0.0532 -0.0173
12271SOL    HW141498   6.845   6.907   0.744 -0.9550  0.2748  0.4420
12271SOL    HW241499   6.991   6.946   0.757 -1.0803  1.8013 -2.0458
12272SOL     OW41500   5.668   2.598  10.653 -0.4127  0.0646 -0.1594
12272SOL    HW141501   5.653   2.536  10.581 -1.0152 -1.2338  1.0247
12272SOL    HW241502   5.656   2.545  10.732  5.3411 -0.0190  1.1234
12273SOL     OW41503   8.973   6.802  10.434 -0.2026 -0.2490  0.6058
12273SOL    HW141504   8.973   6.717  10.389  1.3408  0.3181 -0.5881
12273SOL    HW241505   8.920   6.858  10.378  0.0864 -0.0357  0.5448
12274SOL     OW41506   5.917   6.937   5.421 -0.3635 -0.1946  0.6823
12274SOL    HW141507   6.004   6.918   5.458 -0.0590  0.4293  0.3091
12274SOL    HW241508   5.858   6.934   5.496  0.4251  2.3280  1.5212
12275SOL     OW41509   3.552   6.361   8.257 -0.1005 -0.1093 -0.2067
12275SOL    HW141510   3.573   6.387   8.167  0.4941 -0.2760 -0.1203
12275SOL    HW241511   3.462   6.330   8.253 -0.4921  1.0280 -0.5135
12276SOL     OW41512   6.614   4.614  11.007  0.0163  0.5920 -0.7614
12276SOL    HW141513   6.600   4.585  10.917  0.3397  3.6991 -1.9292
12276SOL    HW241514   6.708   4.604  11.021 -0.3328 -2.2027  0.2180
12277SOL     OW41515   7.189  11.467   3.987  0.2873  0.1317  0.3135
12277SOL    HW141516   7.231  11.543   4.028 -0.5498  0.5574  0.3909
12277SOL    HW241517   7.097  11.492   3.978 -0.0246 -0.9394  0.4736
12278SOL     OW41518   3.753   8.437   8.241 -0.1137  0.3362  0.0834
12278SOL    HW141519   3.833   8.460   8.194  1.3096  1.0218  2.6197
12278SOL    HW241520   3.772   8.351   8.280 -1.3751 -0.3713 -0.7912
12279SOL     OW41521   8.898   8.261  10.601  0.6489 -0.0727  0.1769
12279SOL    HW141522   8.921   8.331  10.662 -0.0671  0.6530 -0.3675
12279SOL    HW241523   8.970   8.260  10.537  0.8075 -0.0348  0.3558
12280SOL     OW41524   8.198   3.499   1.531  0.7182 -0.3322 -0.0033
12280SOL    HW141525   8.166   3.423   1.580 -0.6700 -0.6411 -1.3290
12280SOL    HW241526   8.245   3.462   1.457 -0.0971  0.0673 -0.7420
12281SOL     OW41527   5.355   2.000   7.780  0.0069  0.4458 -0.3050
12281SOL    HW141528   5.294   2.050   7.726 -0.3502  0.3802  0.0331
12281SOL    HW241529   5.433   2.055   7.786 -0.9784  1.7465  1.4368
12282SOL     OW41530   5.134  11.787  11.208  0.0486  0.6894 -0.6210
12282SOL    HW141531   5.198  11.731  11.252  1.6822  2.1477 -1.0535
12282SOL    HW241532   5.099  11.842  11.279  0.3262  0.8682 -0.6233
12283SOL     OW41533  11.379   0.710   1.735 -0.5490  0.4452 -0.0154
12283SOL    HW141534  11.410   0.620   1.728  0.5328  0.4589  3.1515
12283SOL    HW241535  11.430   0.759   1.670  1.6214 -0.6242  0.7893
12284SOL     OW41536   1.586   3.446   0.389  0.2643  0.1027  0.2216
12284SOL    HW141537   1.660   3.484   0.341 -0.9585  1.0229 -0.9903
12284SOL    HW241538   1.575   3.359   0.353 -1.4160  1.2079 -2.1641
12285SOL     OW41539  11.815   3.275   1.179  0.2396 -0.8360 -0.0772
12285SOL    HW141540  11.801   3.313   1.093 -2.9668 -0.1513  0.6232
12285SOL    HW241541  11.856   3.190   1.162 -0.0927 -0.6013 -2.2555
12286SOL     OW41542   2.739   6.137  11.790  0.0131 -0.0394  0.0122
12286SOL    HW141543   2.790   6.180  11.860 -0.6460 -0.7376  0.9516
12286SOL    HW241544   2.651   6.172  11.800  0.4500  1.8614 -2.2007
12287SOL     OW41545   9.195  11.637  10.760 -0.3076 -0.2468 -1.4155
12287SOL    HW141546   9.238  11.622  10.676  0.4684  0.3725 -1.1350
12287SOL    HW241547   9.142  11.715  10.747  0.4850  0.3595 -1.0944
12288SOL     OW41548   8.393   3.358   2.512 -0.3873 -0.2041  0.3303
12288SOL    HW141549   8.483   3.383   2.491 -0.0306 -1.6226  0.0994
12288SOL    HW241550   8.339   3.406   2.449 -0.0846  2.8151  2.1538
12289SOL     OW41551  11.982   9.244   6.497  0.2352  0.4725  0.2260
12289SOL    HW141552  11.983   9.338   6.511  0.4099  0.6304 -0.7457
12289SOL    HW241553  11.920   9.231   6.425 -1.0984 -0.3465  1.4635
12290SOL     OW41554   3.778  11.145   6.333  0.1914  0.8248 -0.1325
12290SOL    HW141555   3.707  11.088   6.303 -1.4095  2.9732 -0.6752
12290SOL    HW241556   3.858  11.099   6.309 -1.0325 -0.8506 -1.1596
12291SOL     OW41557   8.753   9.877   1.854 -0.4195 -0.0327  0.0281
12291SOL    HW141558   8.678   9.921   1.895 -1.5574 -0.9342 -1.0286
12291SOL    HW241559   8.733   9.784   1.861  0.9282 -0.3195  0.2940
12292SOL     OW41560   1.075   4.876   9.828 -0.0916  0.1270  0.3925
12292SOL    HW141561   1.128   4.847   9.902  1.8106 -0.6992 -1.1938
12292SOL    HW241562   1.138   4.912   9.766 -1.6184  0.7949 -0.8600
12293SOL     OW41563   8.292  10.711   3.270 -0.7114  0.4028  0.5562
12293SOL    HW141564   8.337  10.687   3.351  0.3779  2.0665  0.4958
12293SOL    HW241565   8.227  10.776   3.297 -2.5671 -1.3086  0.5028
12294SOL     OW41566   9.378   2.919   4.210 -0.4612 -0.0991 -0.2461
12294SOL    HW141567   9.356   2.835   4.252 -0.7437 -0.4693 -1.1073
12294SOL    HW241568   9.342   2.911   4.122 -0.6679  1.0228 -0.2726
12295SOL     OW41569  10.252   7.311   0.087 -0.3821 -0.0403 -0.1803
12295SOL    HW141570  10.224   7.378   0.151 -0.2120  0.7878 -0.9505
12295SOL    HW241571  10.305   7.250   0.139  2.0446  2.0814  0.0265
12296SOL     OW41572   7.452   5.836   3.284  0.1895 -0.2222 -0.1756
12296SOL    HW141573   7.454   5.920   3.238  1.8672 -0.4296 -0.5654
12296SOL    HW241574   7.360   5.810   3.284 -0.3708  1.6495  0.0365
12297SOL     OW41575   0.665  11.190  11.389  0.1949  0.0366  0.3944
12297SOL    HW141576   0.607  11.180  11.464  0.1034 -0.8212  0.2182
12297SOL    HW241577   0.644  11.116  11.332 -0.9775  1.5773 -1.3203
12298SOL     OW41578  11.658  10.813   0.623  0.1215 -0.2374 -0.1348
12298SOL    HW141579  11.734  10.863   0.593  0.1037 -0.7717 -1.0893
12298SOL    HW241580  11.615  10.784   0.543 -0.3395 -1.0724  0.4049
12299SOL     OW41581   2.684   4.924   4.810 -0.0207  0.9696  0.1694
12299SOL    HW141582   2.730   4.840   4.819  0.2664  1.2090  0.9711
12299SOL    HW241583   2.647   4.921   4.722  0.5166  0.2630 -0.0427
12300SOL     OW41584   2.555   1.974   4.994 -0.2137 -0.4997  0.2527
12300SOL    HW141585   2.497   2.032   4.944 -0.4927 -0.2192  0.8844
12300SOL    HW241586   2.642   1.990   4.958 -0.4306 -0.3868 -0.2176
12301SOL     OW41587   5.912  11.452   6.804 -0.1257 -0.4149 -0.1855
12301SOL    HW141588   5.993  11.442   6.853 -1.1223  2.2717  2.2609
12301SOL    HW241589   5.843  11.440   6.868 -1.6578 -0.9529 -1.8493
12302SOL     OW41590   3.764   6.141   5.274 -0.1267  0.0671 -0.7112
12302SOL    HW141591   3.703   6.210   5.299  0.5034 -0.3036  2.2234
12302SOL    HW241592   3.842   6.187   5.244 -0.2155  0.6426 -0.0780
12303SOL     OW41593   7.225   5.907   2.572  0.1677 -0.2514 -0.0408
12303SOL    HW141594   7.203   5.929   2.663  0.8832 -1.0089  0.3419
12303SOL    HW241595   7.180   5.824   2.556 -1.8249  0.9916 -1.1754
12304SOL     OW41596  10.836   1.428   5.867  0.1453 -0.4450 -0.2603
12304SOL    HW141597  10.765   1.385   5.916  0.2564  0.8234  1.0766
12304SOL    HW241598  10.812   1.416   5.775 -1.3443 -0.8031  0.1422
12305SOL     OW41599   3.974   4.890  10.958  0.1029 -0.5347 -0.3882
12305SOL    HW141600   3.940   4.909  11.045 -0.3380  1.3431 -0.9270
12305SOL    HW241601   4.003   4.974  10.924  1.8629 -1.4909 -1.4194
12306SOL     OW41602  11.460   1.380   8.503  0.2077  0.3124  0.3032
12306SOL    HW141603  11.477   1.385   8.409 -1.9230  1.8076 -0.0923
12306SOL    HW241604  11.535   1.334   8.539  1.5147  0.4766 -2.0157
12307SOL     OW41605  10.191   3.465   1.312 -0.1216  0.1109  0.6340
12307SOL    HW141606  10.219   3.552   1.283 -1.5426  0.0246 -1.1735
12307SOL    HW241607  10.106   3.480   1.354 -1.3191 -0.5684 -1.4171
12308SOL     OW41608   3.309   1.064   2.380  0.0102 -0.7423  0.1462
12308SOL    HW141609   3.381   1.034   2.435 -1.2970  0.3129  2.5488
12308SOL    HW241610   3.231   1.020   2.415 -0.8804 -0.0051 -0.8252
12309SOL     OW41611   3.944   3.645   3.090 -0.1444  0.4032 -0.7605
12309SOL    HW141612   3.961   3.653   2.997 -1.2369  2.1772 -0.8554
12309SOL    HW241613   3.848   3.638   3.096 -0.4385  3.7907  0.3302
12310SOL     OW41614   8.316   9.903   2.145  0.2970 -0.5242  0.5481
12310SOL    HW141615   8.344   9.826   2.193  0.3308 -0.3662  0.7848
12310SOL    HW241616   8.282   9.869   2.062  1.0186 -0.7302  0.3352
12311SOL     OW41617  11.887   8.095   5.068 -0.0647  0.0464  0.4940
12311SOL    HW141618  11.809   8.143   5.042  0.1991  0.6604  0.8287
12311SOL    HW241619  11.854   8.010   5.097 -0.5607  0.1233  0.1753
12312SOL     OW41620   2.703   7.599   8.527  0.6889 -0.6047 -0.4908
12312SOL    HW141621   2.762   7.533   8.563 -1.5148 -1.5889  1.6070
12312SOL    HW241622   2.615   7.563   8.539 -0.4238  0.9839 -3.0532
12313SOL     OW41623   1.139   3.958  11.699 -0.6687  0.5091  0.1193
12313SOL    HW141624   1.179   4.041  11.675  0.2136  0.2383  0.5757
12313SOL    HW241625   1.048   3.966  11.672 -0.0340  0.6556 -2.1882
12314SOL     OW41626  10.319   8.174   2.416 -0.1243  0.2608  0.2090
12314SOL    HW141627  10.326   8.257   2.370 -0.6060  0.9597  1.3616
12314SOL    HW241628  10.390   8.177   2.481 -0.3229 -0.1059  0.4432
12315SOL     OW41629   6.183   4.248  10.690 -0.7547  0.2726  0.1665
12315SOL    HW141630   6.122   4.321  10.683 -0.3934  0.5099 -0.6929
12315SOL    HW241631   6.153   4.185  10.624  1.1475  1.3296 -1.8308
12316SOL     OW41632   2.371   3.074  11.166  0.5424  0.5753  0.4306
12316SOL    HW141633   2.285   3.116  11.169  1.1108  1.9479 -1.0449
12316SOL    HW241634   2.404   3.092  11.078  1.5658 -1.5543  0.3060
12317SOL     OW41635   1.302   2.702   5.204 -0.0627 -0.3771 -0.5145
12317SOL    HW141636   1.321   2.611   5.229  3.5100  0.0636 -1.0854
12317SOL    HW241637   1.258   2.695   5.119 -1.5404 -1.5469  0.2961
12318SOL     OW41638   0.796   4.654   4.398 -0.2009  0.8811 -0.4132
12318SOL    HW141639   0.786   4.562   4.377 -0.7552  0.6185  0.8853
12318SOL    HW241640   0.710   4.692   4.380 -1.3772  0.2350  3.1160
12319SOL     OW41641   0.195   7.586   2.493 -0.2511  0.3928 -1.1512
12319SOL    HW141642   0.263   7.648   2.520 -0.7044  1.2113 -1.8646
12319SOL    HW241643   0.221   7.503   2.535 -0.8415  1.5377  1.7158
12320SOL     OW41644   6.635   7.702   0.329  0.4224  0.2326  0.0526
12320SOL    HW141645   6.609   7.646   0.402 -1.1375  2.2920  1.1996
12320SOL    HW241646   6.700   7.651   0.281  0.1387 -1.9346  1.8154
12321SOL     OW41647   1.825   3.957   3.042 -0.2380  0.8449  0.0046
12321SOL    HW141648   1.826   4.033   2.984  1.1309  0.7132 -0.1620
12321SOL    HW241649   1.915   3.927   3.044 -0.8505 -1.1285 -0.3777
12322SOL     OW41650  11.053   9.408   1.426  0.0029 -0.2092 -0.0274
12322SOL    HW141651  11.130   9.460   1.403  0.2086 -0.6871 -0.4320
12322SOL    HW241652  11.089   9.328   1.465 -0.3316  0.5905  2.0496
12323SOL     OW41653   9.439   4.264   5.353 -0.0983  0.1095 -0.5085
12323SOL    HW141654   9.502   4.198   5.324  0.1731  0.4076 -0.5933
12323SOL    HW241655   9.395   4.224   5.428 -0.2305 -0.3397 -0.8208
12324SOL     OW41656   9.738   5.081  11.322 -0.3105  0.0462 -0.2629
12324SOL    HW141657   9.723   5.097  11.228 -0.4192 -0.7297 -0.3779
12324SOL    HW241658   9.783   4.996  11.325  2.6305  1.4646  0.1711
12325SOL     OW41659   1.754   5.489  10.411 -0.1786 -0.0026  0.2411
12325SOL    HW141660   1.673   5.438  10.409  0.3396 -0.8644 -1.2389
12325SOL    HW241661   1.803   5.458  10.334  0.3915  2.3941 -0.4515
12326SOL     OW41662  10.407   1.945   7.506  0.2505 -0.8563 -0.1472
12326SOL    HW141663  10.465   2.017   7.531  0.2827 -1.3073  1.1097
12326SOL    HW241664  10.466   1.876   7.475  0.2242 -0.4020 -1.2801
12327SOL     OW41665   5.528   2.858  11.083  0.0864 -0.3315 -0.0716
12327SOL    HW141666   5.622   2.849  11.097  0.3461  2.2896  0.4553
12327SOL    HW241667   5.488   2.804  11.150  1.2701  0.4162  1.2857
12328SOL     OW41668   9.475   4.600  11.437  0.0739 -0.1521  0.5566
12328SOL    HW141669   9.526   4.638  11.366  1.1924  0.7935  1.7988
12328SOL    HW241670   9.491   4.658  11.512 -1.0713 -1.0851  1.5786
12329SOL     OW41671   4.296   7.559   2.210 -0.1613 -0.4707  0.2447
12329SOL    HW141672   4.271   7.625   2.274 -1.9770 -0.6139 -0.2721
12329SOL    HW241673   4.214   7.530   2.171  0.8098 -0.9610 -1.5841
12330SOL     OW41674   4.109   8.265   0.385  0.1131 -0.0443 -0.0647
12330SOL    HW141675   4.131   8.267   0.478 -1.2169 -1.6360  0.3405
12330SOL    HW241676   4.155   8.188   0.352 -0.0465  0.0685 -0.5528
12331SOL     OW41677   4.684   2.443   3.010 -0.2188 -0.0226 -0.0557
12331SOL    HW141678   4.593   2.413   3.010 -0.3633  0.3114 -1.5983
12331SOL    HW241679   4.736   2.363   3.023 -0.7158 -0.1111  1.6706
12332SOL     OW41680   0.765   5.648  11.483 -0.1481  0.5006  0.2560
12332SOL    HW141681   0.736   5.622  11.396 -0.1916  0.4710  0.2792
12332SOL    HW241682   0.856   5.617  11.488 -0.4043 -0.2304  0.5185
12333SOL     OW41683   1.825   4.112   9.264 -0.4156 -0.1349  0.1930
12333SOL    HW141684   1.770   4.058   9.321 -1.7805  0.9956 -0.0006
12333SOL    HW241685   1.805   4.202   9.290 -1.1288  0.4327 -2.0869
12334SOL     OW41686   9.945   8.265  10.878  0.9602 -0.0495  0.3973
12334SOL    HW141687   9.907   8.209  10.945 -0.4107 -0.3182 -0.5807
12334SOL    HW241688   9.984   8.204  10.816  2.4820  0.2068  1.0435
12335SOL     OW41689   7.852   8.433   9.018  0.0949  0.2712  0.0008
12335SOL    HW141690   7.851   8.448   9.113  0.0704  1.4614 -0.1809
12335SOL    HW241691   7.880   8.516   8.980  2.2269 -0.8035 -0.9479
12336SOL     OW41692   3.747   9.926   2.615 -0.7209 -0.2200  0.0678
12336SOL    HW141693   3.746   9.978   2.695  0.4096 -0.5158  0.2869
12336SOL    HW241694   3.677   9.964   2.561 -1.1865  0.2740  0.9998
12337SOL     OW41695   9.023   0.093   0.338 -0.1691  0.4991  0.3134
12337SOL    HW141696   8.974   0.012   0.356  2.7186 -1.3272  0.5271
12337SOL    HW241697   9.013   0.145   0.418 -2.5101  0.6814 -0.0292
12338SOL     OW41698   1.324   2.910   4.009  0.2023  0.2908 -0.2378
12338SOL    HW141699   1.255   2.939   4.068 -0.0403 -2.4671  0.9983
12338SOL    HW241700   1.406   2.929   4.056  0.1384  0.3946 -0.1677
12339SOL     OW41701   3.024  10.664   6.377 -0.4590  0.1462  0.4867
12339SOL    HW141702   3.116  10.687   6.362 -0.4766 -0.9980 -1.8305
12339SOL    HW241703   2.994  10.728   6.442  2.2020 -0.0846  2.0936
12340SOL     OW41704  10.659   2.760   5.596  0.2276  0.0416  0.2412
12340SOL    HW141705  10.743   2.768   5.550  0.4181 -0.6584  0.4601
12340SOL    HW241706  10.650   2.667   5.614 -0.5361  0.1288  0.3480
12341SOL     OW41707   0.315   6.097   1.184  0.2241 -0.5658 -0.2853
12341SOL    HW141708   0.237   6.149   1.164 -0.4979 -2.2338 -2.1473
12341SOL    HW241709   0.386   6.161   1.187 -1.1883  1.0439  1.7446
12342SOL     OW41710   7.138   1.852   3.854  0.3915 -0.4771  0.1563
12342SOL    HW141711   7.158   1.888   3.940 -0.4584 -0.9216  0.5490
12342SOL    HW241712   7.080   1.916   3.813  0.7476 -0.2939 -0.0695
12343SOL     OW41713   8.285  11.311   6.484  0.0875  0.2702  0.2258
12343SOL    HW141714   8.233  11.240   6.521 -0.0253  0.2312 -0.0030
12343SOL    HW241715   8.226  11.386   6.483  0.3871  0.5185  0.9938
12344SOL     OW41716   6.346   7.792  11.523  0.0146  0.0579 -0.4058
12344SOL    HW141717   6.266   7.775  11.573  0.4772  1.2064  0.7848
12344SOL    HW241718   6.315   7.819  11.437 -0.8864  0.4600  0.0342
12345SOL     OW41719   2.283  11.792   9.328  0.1278 -0.1179 -0.1284
12345SOL    HW141720   2.369  11.817   9.362 -0.4881  0.7939  0.8119
12345SOL    HW241721   2.276  11.837   9.244  0.3691  0.1773  0.0100
12346SOL     OW41722  10.210  10.301   8.404  0.5147 -0.5935  0.5806
12346SOL    HW141723  10.197  10.354   8.326 -0.3509  1.0320  1.7641
12346SOL    HW241724  10.247  10.218   8.372  0.7246  0.2429 -1.4541
12347SOL     OW41725   1.879  11.343   5.564  0.7432  0.1620 -0.0160
12347SOL    HW141726   1.851  11.300   5.484  1.9684  0.6592 -0.7439
12347SOL    HW241727   1.908  11.430   5.536 -1.4156  1.4214  1.3731
12348SOL     OW41728   0.117   0.705   9.155 -0.2154  0.4207  0.1119
12348SOL    HW141729   0.199   0.655   9.154  0.1672  0.9992 -1.6746
12348SOL    HW241730   0.057   0.651   9.206  1.3778  0.2085  1.8952
12349SOL     OW41731   1.749  11.421   9.343 -0.1517 -0.1673  0.6721
12349SOL    HW141732   1.716  11.505   9.311  0.8479 -0.0172 -0.0139
12349SOL    HW241733   1.831  11.408   9.295 -0.0156 -1.2702  1.1819
12350SOL     OW41734  11.868  11.304   2.840  0.1466  0.4633 -0.3500
12350SOL    HW141735  11.960  11.296   2.812 -0.0306 -0.3667 -0.7241
12350SOL    HW241736  11.833  11.376   2.787  0.4683  0.5050 -0.5117
12351SOL     OW41737   0.221   4.040   4.074  0.0162 -0.0797 -0.2588
12351SOL    HW141738   0.177   3.956   4.061  2.0981 -1.4085  0.7224
12351SOL    HW241739   0.154   4.106   4.054 -2.3165 -1.9387  0.9129
12352SOL     OW41740   7.511   6.404  11.876 -0.8522 -0.8290 -0.3769
12352SOL    HW141741   7.514   6.451  11.959 -0.2750 -0.4375 -0.6160
12352SOL    HW241742   7.588   6.433  11.828 -1.4732 -0.6262 -1.2884
12353SOL     OW41743   0.952   4.271  10.730 -0.3898 -0.9521 -0.3125
12353SOL    HW141744   0.914   4.351  10.766 -1.0760 -1.3415 -0.1572
12353SOL    HW241745   0.968   4.216  10.807 -0.9051 -1.3814 -0.5110
12354SOL     OW41746   5.204   6.630   2.525 -0.1268 -0.3618  0.3214
12354SOL    HW141747   5.147   6.568   2.570 -1.7056  1.3743  0.8366
12354SOL    HW241748   5.212   6.704   2.585 -0.1536  0.9083 -1.1584
12355SOL     OW41749  11.487   9.389  10.880 -0.2668 -0.1942  0.1677
12355SOL    HW141750  11.419   9.456  10.896  1.0225  1.1235  0.3322
12355SOL    HW241751  11.525   9.413  10.796  1.2916  0.2814  0.9607
12356SOL     OW41752   6.201   7.664  10.321 -0.5925 -0.3232  0.3342
12356SOL    HW141753   6.129   7.639  10.379 -1.6831 -0.3182 -0.9776
12356SOL    HW241754   6.176   7.630  10.235  0.9974 -0.3436 -0.1568
12357SOL     OW41755   5.729   7.294   3.785  0.6289  0.8081  0.4077
12357SOL    HW141756   5.766   7.376   3.818  1.2937  0.5917  0.2129
12357SOL    HW241757   5.772   7.279   3.701  0.5621  0.2289  0.4683
12358SOL     OW41758   8.408   5.893  10.899  0.1244  0.2804 -0.6284
12358SOL    HW141759   8.395   5.963  10.834  1.5353  1.0870 -0.0879
12358SOL    HW241760   8.491   5.915  10.942  0.1792 -1.2853  0.1426
12359SOL     OW41761   2.546   9.452   0.634  0.4771  0.2195  0.1285
12359SOL    HW141762   2.584   9.518   0.693 -2.0840  0.7752  1.3039
12359SOL    HW241763   2.612   9.440   0.566  1.3196  3.6175  0.1531
12360SOL     OW41764   0.705   9.759   9.048 -0.2400 -0.2859 -0.4975
12360SOL    HW141765   0.772   9.797   9.105  0.3155  0.9994 -1.9144
12360SOL    HW241766   0.732   9.785   8.959 -1.9058 -0.8647 -1.2170
12361SOL     OW41767  11.276   4.379   2.210 -0.4861 -0.3366  0.0349
12361SOL    HW141768  11.354   4.370   2.264  0.6767 -0.0558 -1.5315
12361SOL    HW241769  11.250   4.470   2.220  1.0825  0.3440 -1.5873
12362SOL     OW41770   9.482   5.928   1.411  0.4179 -0.2452 -0.1724
12362SOL    HW141771   9.495   5.890   1.324  0.3048 -0.6277 -0.0271
12362SOL    HW241772   9.403   5.981   1.403  0.0526 -0.7793 -0.1465
12363SOL     OW41773  11.587   6.052   4.916  0.6971  0.2029 -0.1296
12363SOL    HW141774  11.503   6.009   4.899  0.8602 -0.0947 -0.1949
12363SOL    HW241775  11.631   6.052   4.831  0.4811  0.9855 -0.2519
12364SOL     OW41776   8.968   7.114   5.768  0.0824  0.2544  0.6077
12364SOL    HW141777   8.952   7.150   5.855  0.6484 -1.2148  1.3606
12364SOL    HW241778   9.062   7.129   5.753 -0.4742  2.7320 -0.8552
12365SOL     OW41779   2.853   8.318   2.536  0.5878  0.4376  0.0222
12365SOL    HW141780   2.887   8.386   2.478  0.7836 -0.3488 -0.8213
12365SOL    HW241781   2.759   8.313   2.514  0.7159 -0.0503 -0.4445
12366SOL     OW41782   7.480   0.508   2.646 -0.3010  0.0255  0.5741
12366SOL    HW141783   7.550   0.558   2.687 -1.2622  1.2305  0.8426
12366SOL    HW241784   7.422   0.484   2.719 -0.0765 -1.1241  0.3862
12367SOL     OW41785   3.838  10.298  11.137 -0.2605  0.1081  0.0663
12367SOL    HW141786   3.768  10.262  11.082 -0.9323  0.5430  0.6080
12367SOL    HW241787   3.897  10.341  11.075 -0.5160 -0.2020 -0.3995
12368SOL     OW41788   2.184   6.260  10.942 -0.0599  0.2824  0.1132
12368SOL    HW141789   2.165   6.298  10.856  1.0095  1.7195  0.4755
12368SOL    HW241790   2.216   6.333  10.994 -0.5309 -0.6035  1.7054
12369SOL     OW41791   0.875   4.676   6.012 -0.2496  0.1693  0.4712
12369SOL    HW141792   0.841   4.600   5.964  1.0942 -0.4379  0.4465
12369SOL    HW241793   0.953   4.702   5.963  0.7022  0.0243  1.8597
12370SOL     OW41794  11.887   5.956  10.598  0.2562  0.1896  0.5368
12370SOL    HW141795  11.965   5.953  10.655  1.0239  1.4663 -0.4117
12370SOL    HW241796  11.851   6.044  10.610  0.1227  0.2944 -0.5487
12371SOL     OW41797   6.853   4.277   2.454  0.2043  0.5064 -0.3380
12371SOL    HW141798   6.772   4.315   2.420 -0.3220 -1.1673 -1.0492
12371SOL    HW241799   6.849   4.294   2.549 -0.7518  0.8305 -0.4269
12372SOL     OW41800   8.515   4.042   5.486 -0.3062 -0.4012 -0.3861
12372SOL    HW141801   8.524   4.094   5.406 -0.3515 -0.2947 -0.3212
12372SOL    HW241802   8.605   4.014   5.506 -0.1883  0.1760 -0.0694
12373SOL     OW41803   3.268  11.707   6.417 -0.8350  0.2308  0.0066
12373SOL    HW141804   3.234  11.736   6.502  1.6772  2.3838  0.4003
12373SOL    HW241805   3.207  11.744   6.353 -1.1890  1.0149  0.7695
12374SOL     OW41806   8.597   7.497   0.222 -0.5165  0.0590  0.4449
12374SOL    HW141807   8.558   7.432   0.280 -1.2742  0.2878  0.1992
12374SOL    HW241808   8.579   7.465   0.134 -0.2425  0.2292  0.3230
12375SOL     OW41809   4.656   6.009   1.686  0.3600  0.0137  0.3011
12375SOL    HW141810   4.645   5.941   1.619  1.1285 -1.4894  1.6235
12375SOL    HW241811   4.618   6.087   1.647  1.6072 -0.5387 -2.2555
12376SOL     OW41812   5.678   9.220   0.438 -0.0743  0.2581  0.1385
12376SOL    HW141813   5.684   9.181   0.350 -0.6604  0.9254 -0.2061
12376SOL    HW241814   5.756   9.188   0.483  0.5769  0.4160 -0.8375
12377SOL     OW41815  10.731   5.891   8.087 -0.1941 -0.0961 -0.3050
12377SOL    HW141816  10.748   5.797   8.095  0.1833 -0.0384 -0.4286
12377SOL    HW241817  10.722   5.922   8.177 -1.7384 -0.5004 -0.2798
12378SOL     OW41818   2.429   6.047   9.965 -0.6660 -0.0533  0.1417
12378SOL    HW141819   2.477   5.981   9.916 -1.1839  0.4450 -1.0687
12378SOL    HW241820   2.399   6.001  10.044 -0.1154 -0.9599 -0.1644
12379SOL     OW41821   1.502   4.537   2.692 -0.0312  0.3098  0.8101
12379SOL    HW141822   1.533   4.616   2.736  0.1117  1.7458 -1.6916
12379SOL    HW241823   1.407   4.545   2.693 -0.0957 -0.3669  1.9991
12380SOL     OW41824   4.701   1.956   7.661  0.6454 -0.0208 -0.5370
12380SOL    HW141825   4.762   1.910   7.718  0.9400 -0.1954 -0.9924
12380SOL    HW241826   4.727   2.048   7.666 -0.9101  0.3806  1.6095
12381SOL     OW41827   6.292   4.491  10.996 -0.9292  0.1965  0.1654
12381SOL    HW141828   6.252   4.410  11.029 -1.6210  0.1150 -0.8268
12381SOL    HW241829   6.363   4.461  10.939 -1.1398  0.2854 -0.1460
12382SOL     OW41830   2.136   8.792   9.637  0.2804 -0.0822  0.0613
12382SOL    HW141831   2.153   8.842   9.717  0.1137 -0.1068  0.1128
12382SOL    HW241832   2.091   8.854   9.579 -0.5289 -0.3530  0.3733
12383SOL     OW41833   4.656   0.100   7.295  0.5285  0.2022 -0.4460
12383SOL    HW141834   4.649   0.059   7.209 -0.4095 -0.1201 -0.2193
12383SOL    HW241835   4.623   0.034   7.356  1.9395  0.1053  0.2680
12384SOL     OW41836   3.177   9.870   5.552 -0.2252  0.2695  0.0585
12384SOL    HW141837   3.203   9.946   5.604  1.7799 -0.0703 -0.3634
12384SOL    HW241838   3.200   9.795   5.606  0.5639 -0.0645 -0.7154
12385SOL     OW41839   0.360   2.268   4.536  0.2916 -0.1181  1.0397
12385SOL    HW141840   0.354   2.267   4.632  0.7302  0.8376  1.0913
12385SOL    HW241841   0.435   2.212   4.517  0.5572  0.1419  1.2986
12386SOL     OW41842  11.458   1.049   7.090 -0.3478  0.7536  0.3901
12386SOL    HW141843  11.511   1.078   7.164 -0.5160 -1.1150  1.3054
12386SOL    HW241844  11.518   0.999   7.035 -0.1486  2.3886 -0.9543
12387SOL     OW41845   2.088   1.137   0.402  0.3181  0.2705 -0.1032
12387SOL    HW141846   2.121   1.153   0.490  0.9835  0.5787 -0.4028
12387SOL    HW241847   2.128   1.205   0.348 -2.2396  1.8463 -0.1872
12388SOL     OW41848   9.631   2.130   6.569 -0.3026  0.1241 -0.3857
12388SOL    HW141849   9.559   2.079   6.533 -0.2095  0.0273 -0.4345
12388SOL    HW241850   9.633   2.209   6.515 -0.8630  0.4777  0.1017
12389SOL     OW41851   0.705  10.745  10.045 -0.0999  0.2210  0.4054
12389SOL    HW141852   0.669  10.828  10.076  1.7367  1.5410 -0.7864
12389SOL    HW241853   0.767  10.719  10.113 -0.4093 -0.0053  0.6058
12390SOL     OW41854   6.215  11.603   4.609 -0.7197 -0.2435  0.5758
12390SOL    HW141855   6.288  11.543   4.625 -0.1265  0.3028 -0.0457
12390SOL    HW241856   6.175  11.572   4.529 -1.4366 -0.7863  1.1309
12391SOL     OW41857  10.540   6.660   8.613 -0.3356  0.6550 -0.7336
12391SOL    HW141858  10.629   6.684   8.639 -0.5338  0.3707  0.2264
12391SOL    HW241859  10.506   6.738   8.569 -0.9987  2.2748  2.3668
12392SOL     OW41860   7.709   9.499  11.325  0.1557 -0.1748  0.0389
12392SOL    HW141861   7.633   9.554  11.306  0.4744  0.6531  1.0967
12392SOL    HW241862   7.687   9.457  11.408 -0.2340 -1.9620 -0.9138
12393SOL     OW41863   3.852  10.819   2.043  0.0169  0.4280  0.3445
12393SOL    HW141864   3.881  10.761   2.114  1.2436  1.1266  0.4581
12393SOL    HW241865   3.835  10.761   1.969 -0.3401 -0.2161  0.9277
12394SOL     OW41866   8.723   7.103   0.543  0.1567 -0.1211 -0.1100
12394SOL    HW141867   8.675   7.021   0.549  0.2916 -0.2830 -1.1025
12394SOL    HW241868   8.787   7.089   0.474  0.3731  0.7187 -0.0942
12395SOL     OW41869  11.689   0.919   1.213 -0.2289  0.6393  0.6187
12395SOL    HW141870  11.600   0.924   1.178 -0.7624 -0.4573  1.7724
12395SOL    HW241871  11.681   0.867   1.292  1.2950  1.3432  1.2755
12396SOL     OW41872   6.466   2.030  10.278 -0.1323  0.2269  0.1532
12396SOL    HW141873   6.547   2.081  10.271 -0.9468  1.6934  0.8365
12396SOL    HW241874   6.452   1.995  10.191  1.2233 -0.0445  0.0167
12397SOL     OW41875   8.764   1.686   8.241 -0.2327 -0.3079  0.0161
12397SOL    HW141876   8.795   1.628   8.171  1.1267 -0.9789  1.1377
12397SOL    HW241877   8.733   1.626   8.309 -1.2213  0.3392  0.1587
12398SOL     OW41878   1.968   8.961   9.467 -0.0270 -0.0015 -0.2019
12398SOL    HW141879   2.024   8.914   9.405 -2.7419 -1.9345 -1.4257
12398SOL    HW241880   1.999   9.051   9.464  1.3917 -0.4689 -2.7068
12399SOL     OW41881   8.758   7.152   1.207 -0.0162 -0.0775  0.8284
12399SOL    HW141882   8.713   7.068   1.198 -0.8422  0.4764 -0.6661
12399SOL    HW241883   8.706   7.201   1.270  0.1395 -0.4735  1.2672
12400SOL     OW41884  10.119   0.029   2.761  0.3840 -0.4995 -0.8302
12400SOL    HW141885  10.164   0.101   2.806  1.5212  0.4612 -3.2706
12400SOL    HW241886  10.145  -0.049   2.809 -0.5066  0.6228  1.6231
12401SOL     OW41887   2.775   9.819   2.650  0.0254  0.2158  0.5279
12401SOL    HW141888   2.764   9.857   2.737  1.4209  0.4742  0.6181
12401SOL    HW241889   2.818   9.888   2.599  0.5870 -0.4540  0.0665
12402SOL     OW41890   8.850   2.800   3.256  0.5140  0.0126  0.3923
12402SOL    HW141891   8.919   2.737   3.276  0.7213  0.4701  1.1843
12402SOL    HW241892   8.776   2.747   3.224  0.0054 -0.8503  2.8066
12403SOL     OW41893   0.436   6.560  10.286  0.0985 -0.0778 -0.0415
12403SOL    HW141894   0.409   6.470  10.265 -1.1663  0.2341  0.1689
12403SOL    HW241895   0.461   6.556  10.378 -1.7876  0.1355  0.5378
12404SOL     OW41896   4.574   2.031   0.160  0.1398 -0.2296 -0.0520
12404SOL    HW141897   4.576   2.111   0.107 -0.4257 -0.6014 -0.6444
12404SOL    HW241898   4.528   1.967   0.106  2.8552 -1.7848 -0.6963
12405SOL     OW41899   7.701   6.503   3.301  0.0132  0.5622  0.3614
12405SOL    HW141900   7.785   6.471   3.269  0.4067  1.6910  0.2500
12405SOL    HW241901   7.722   6.580   3.354 -0.7387 -0.4672  2.2970
12406SOL     OW41902   3.573   3.837   8.554  0.0211 -0.1417 -0.4665
12406SOL    HW141903   3.564   3.802   8.465  0.8683 -0.4357 -0.4458
12406SOL    HW241904   3.637   3.907   8.545  1.3764 -1.2528  0.1857
12407SOL     OW41905   3.552   8.797   1.128  0.2944 -0.9250  0.8455
12407SOL    HW141906   3.482   8.742   1.093 -0.3916 -0.6818  1.7892
12407SOL    HW241907   3.632   8.747   1.113 -0.4101 -2.7821  2.7988
12408SOL     OW41908   9.591   4.009   3.491 -0.2448 -0.0404  0.4508
12408SOL    HW141909   9.553   3.923   3.474 -0.8823  0.4299 -0.6728
12408SOL    HW241910   9.663   4.017   3.428 -1.5039  1.0288 -0.9506
12409SOL     OW41911   1.524   2.427   1.236 -0.5200 -0.1592 -0.2210
12409SOL    HW141912   1.573   2.460   1.311  1.0494 -1.0098 -0.8156
12409SOL    HW241913   1.457   2.493   1.220  0.5296  1.1501  0.5526
12410SOL     OW41914  11.604   0.794   2.197 -0.0697 -0.7600 -0.3315
12410SOL    HW141915  11.591   0.720   2.138  0.7565 -0.2995 -1.1367
12410SOL    HW241916  11.668   0.849   2.151 -1.0409  0.7013  0.0156
12411SOL     OW41917  11.856   4.047  10.702  0.7327 -0.4760  0.0439
12411SOL    HW141918  11.875   4.011  10.616 -0.6345 -0.4823 -0.2892
12411SOL    HW241919  11.936   4.093  10.728  2.0082 -2.4939 -0.1391
12412SOL     OW41920   2.739   0.483   9.948 -0.5297 -0.6241  0.0678
12412SOL    HW141921   2.828   0.476   9.983 -0.6092 -1.1381  0.1706
12412SOL    HW241922   2.695   0.546  10.005 -1.2928 -2.9444  2.2087
12413SOL     OW41923   7.073   5.786   7.556 -0.2446  0.1617  0.5986
12413SOL    HW141924   7.049   5.872   7.592  0.2100  0.0747  1.1158
12413SOL    HW241925   7.158   5.800   7.514  0.8232 -0.4845  2.4626
12414SOL     OW41926   9.114   0.685   8.889  0.2697  0.0605 -0.0833
12414SOL    HW141927   9.066   0.743   8.949 -0.6027 -1.6938  0.9998
12414SOL    HW241928   9.206   0.707   8.903 -0.0455  1.1905  0.2815
12415SOL     OW41929   3.721   5.222  10.402  0.3043  0.4377 -0.5064
12415SOL    HW141930   3.809   5.197  10.372 -0.5411 -0.6230 -2.2015
12415SOL    HW241931   3.666   5.146  10.384 -1.2119  1.5103 -0.6093
12416SOL     OW41932   4.328   4.757  11.944 -0.4933 -0.5614  0.2879
12416SOL    HW141933   4.362   4.758  12.033  0.7222 -1.8395 -0.1233
12416SOL    HW241934   4.387   4.815  11.895 -0.4370 -0.7811  0.0903
12417SOL     OW41935   6.686   6.556   8.262  0.2593  0.3501  0.3916
12417SOL    HW141936   6.614   6.607   8.298 -0.9153 -1.2057  0.3736
12417SOL    HW241937   6.707   6.599   8.179  1.6359  2.7655  1.8561
12418SOL     OW41938   9.238   7.255  10.132  0.5505  0.4491 -0.3716
12418SOL    HW141939   9.208   7.322  10.070 -0.0698  1.7968  1.3134
12418SOL    HW241940   9.278   7.305  10.203 -1.5469 -0.7951  1.8176
12419SOL     OW41941   3.078   4.805   6.355 -0.4645  0.4725 -0.1844
12419SOL    HW141942   3.059   4.724   6.402 -0.1075  1.4470  1.7309
12419SOL    HW241943   3.003   4.817   6.297 -0.0904 -1.6838 -1.2231
12420SOL     OW41944   5.029   6.923  11.806 -0.0035 -0.1692  0.4584
12420SOL    HW141945   5.067   6.963  11.728  0.5701 -1.5294  0.0067
12420SOL    HW241946   5.074   6.839  11.814 -1.6263 -1.0337  0.9720
12421SOL     OW41947   6.841  11.023   4.424  0.3301  0.0685 -0.0763
12421SOL    HW141948   6.897  10.978   4.487  1.0854 -1.2099 -1.5961
12421SOL    HW241949   6.820  10.956   4.358  1.4551  1.8913 -2.4133
12422SOL     OW41950   3.748   7.865   2.868 -0.5567  0.1205  0.5821
12422SOL    HW141951   3.658   7.839   2.886  0.0805 -1.6640  1.4445
12422SOL    HW241952   3.765   7.831   2.780 -0.0807 -1.5448  1.2728
12423SOL     OW41953   8.712   3.096   1.906  0.3490  0.4961 -0.2265
12423SOL    HW141954   8.757   3.119   1.987 -2.1087  1.2441  1.0249
12423SOL    HW241955   8.747   3.159   1.842  0.7444  1.3527  0.7886
12424SOL     OW41956  10.681   4.982   5.069  0.1550  0.0941 -0.3264
12424SOL    HW141957  10.655   5.029   4.989  1.0821 -1.3119 -1.5139
12424SOL    HW241958  10.598   4.954   5.107 -0.2939  0.1211 -1.2347
12425SOL     OW41959  10.665   5.893   7.817 -0.4238 -0.2768  0.4924
12425SOL    HW141960  10.752   5.870   7.785 -0.5120  1.7510 -1.5299
12425SOL    HW241961  10.674   5.896   7.912  1.4832 -0.9528  0.3792
12426SOL     OW41962   7.472   1.683   2.659  0.1569  0.8794  0.0895
12426SOL    HW141963   7.539   1.729   2.708  0.8536  0.3665 -0.3641
12426SOL    HW241964   7.496   1.696   2.567  0.5065 -0.5418 -0.0517
12427SOL     OW41965  10.654   1.214  10.146 -0.3126 -0.0013 -0.4046
12427SOL    HW141966  10.635   1.288  10.087  0.2677 -0.7346 -1.5483
12427SOL    HW241967  10.578   1.210  10.204 -0.3354  1.5212 -0.2744
12428SOL     OW41968   6.569   2.210  11.636 -0.2511  0.1917  0.3764
12428SOL    HW141969   6.515   2.281  11.670 -0.6079 -0.9753  2.4184
12428SOL    HW241970   6.511   2.134  11.635  0.2452 -0.2256 -1.3532
12429SOL     OW41971  11.585   1.826   4.059 -0.5042 -0.1577  0.3343
12429SOL    HW141972  11.526   1.801   3.988  1.6915 -0.7767 -1.3729
12429SOL    HW241973  11.648   1.755   4.065  0.4937  0.7660  1.6460
12430SOL     OW41974   0.060   4.055   6.411 -0.5819 -0.5550 -0.2027
12430SOL    HW141975   0.121   4.120   6.375 -1.5154 -0.0172 -0.8809
12430SOL    HW241976   0.076   3.976   6.359 -0.1734 -0.5535 -0.0849
12431SOL     OW41977  10.644   3.195  10.286 -0.4047  0.2337 -0.1851
12431SOL    HW141978  10.564   3.161  10.246 -1.0671 -0.1275  1.3966
12431SOL    HW241979  10.622   3.209  10.378  1.6585 -0.9443  0.5541
12432SOL     OW41980   8.806   4.316   2.158  0.3222  0.4125  0.0413
12432SOL    HW141981   8.732   4.306   2.218  0.4298  0.4540  0.1802
12432SOL    HW241982   8.860   4.239   2.174 -0.5958 -0.5794 -1.3370
12433SOL     OW41983   1.010   5.668   5.102 -0.1992  0.4245 -0.1712
12433SOL    HW141984   0.975   5.580   5.088  1.0935 -0.0827 -0.3271
12433SOL    HW241985   1.003   5.710   5.017  2.1870 -0.6629 -0.9905
12434SOL     OW41986  11.919   6.702   2.406  0.0969  0.5070  0.0568
12434SOL    HW141987  11.946   6.621   2.363  3.0799  2.0940 -1.3191
12434SOL    HW241988  11.832   6.682   2.441  0.1746 -2.8582 -1.2906
12435SOL     OW41989   7.156   0.651   5.228 -0.4006 -0.5852  0.2511
12435SOL    HW141990   7.075   0.630   5.275  0.1803 -1.1501  1.0405
12435SOL    HW241991   7.212   0.693   5.294  1.6527 -4.1973  1.0938
12436SOL     OW41992   1.729   0.623   6.500  0.0046  0.2406 -0.3863
12436SOL    HW141993   1.640   0.637   6.468  0.6720  1.3147 -1.8929
12436SOL    HW241994   1.760   0.544   6.454  0.7033  1.3606 -1.9294
12437SOL     OW41995   7.497  10.758   2.189 -0.0964  0.3676 -0.2140
12437SOL    HW141996   7.412  10.750   2.147  0.0660 -0.0287 -0.4773
12437SOL    HW241997   7.480  10.803   2.271 -0.6934 -0.4832  0.1425
12438SOL     OW41998   8.018   1.633   5.926 -0.2460  0.0567  0.3409
12438SOL    HW141999   8.110   1.648   5.946 -0.1187 -0.3884  0.1144
12438SOL    HW242000   7.970   1.687   5.989  0.1691  1.4542 -0.5051
12439SOL     OW42001   8.382   2.672   2.904  0.0535 -0.2717 -0.2063
12439SOL    HW142002   8.317   2.676   2.833 -0.5095  1.2924  0.3641
12439SOL    HW242003   8.448   2.737   2.880 -1.1162  1.6956  1.5737
12440SOL     OW42004  10.118   9.383   9.083  0.1536 -0.1191 -0.3146
12440SOL    HW142005  10.126   9.463   9.135 -1.6921  1.5818 -2.4106
12440SOL    HW242006  10.181   9.394   9.012 -0.3427 -0.3659 -0.7997
12441SOL     OW42007   7.387   2.972   6.329  0.0332 -0.6854  0.0549
12441SOL    HW142008   7.448   2.923   6.273  1.1256 -2.1170  2.3524
12441SOL    HW242009   7.407   3.064   6.311  2.2021 -1.1237  0.0016
12442SOL     OW42010   0.167   6.977   9.999  0.4970  0.2851 -0.2542
12442SOL    HW142011   0.241   6.916  10.009  1.4684  1.3166 -0.8538
12442SOL    HW242012   0.096   6.937  10.049  1.1303 -1.2784 -0.5322
12443SOL     OW42013   8.645   7.567   5.475  0.5627  0.1783  0.4223
12443SOL    HW142014   8.685   7.578   5.562  0.5163  2.3804  0.2214
12443SOL    HW242015   8.692   7.629   5.419  0.0422 -0.6371 -0.9599
12444SOL     OW42016   4.935   3.142   9.998  0.1917  0.1171  0.4713
12444SOL    HW142017   4.975   3.179  10.077 -0.7937  0.2050  0.9555
12444SOL    HW242018   4.908   3.054  10.024  0.0506  0.0711  0.1754
12445SOL     OW42019  11.238   3.133   8.650 -0.8850  0.4248  0.3702
12445SOL    HW142020  11.291   3.183   8.712 -2.6570  0.5226  1.9221
12445SOL    HW242021  11.264   3.165   8.564  1.5343  0.4319  1.0418
12446SOL     OW42022   4.602   5.331   3.427 -0.7359  0.0045  0.1602
12446SOL    HW142023   4.679   5.280   3.451 -0.2934  1.3038  1.5899
12446SOL    HW242024   4.612   5.345   3.332  1.0866  0.6273  0.4101
12447SOL     OW42025  11.946   8.463   3.690 -0.2629 -0.1505  0.3658
12447SOL    HW142026  11.920   8.411   3.613 -1.0685 -1.4540  1.4679
12447SOL    HW242027  11.985   8.542   3.653  0.0726 -1.0784 -1.3866
12448SOL     OW42028  10.569   5.950   2.840  0.2301  0.5748  0.2293
12448SOL    HW142029  10.516   5.961   2.919  0.6405  2.1283  0.3071
12448SOL    HW242030  10.643   6.008   2.852  0.8509  0.0385 -0.8459
12449SOL     OW42031   4.772   0.599   7.636 -0.2913 -0.1087  0.3618
12449SOL    HW142032   4.860   0.594   7.597 -0.4255 -0.9554  0.1459
12449SOL    HW242033   4.775   0.538   7.709 -0.9781 -0.8492 -0.2114
12450SOL     OW42034   9.546   1.098   9.268  0.0483  0.4064  0.0958
12450SOL    HW142035   9.501   1.163   9.215 -0.1353 -1.2879 -1.9668
12450SOL    HW242036   9.636   1.130   9.275 -0.4539  1.7661  0.7475
12451SOL     OW42037  11.461   3.557   3.242 -0.6020 -0.3733 -0.4610
12451SOL    HW142038  11.451   3.590   3.152  0.3241 -0.1475 -0.4907
12451SOL    HW242039  11.426   3.627   3.297 -1.6785 -0.7380 -0.6550
12452SOL     OW42040   8.047  11.055   4.228 -0.0533  0.1555  0.3177
12452SOL    HW142041   8.033  11.113   4.152 -2.3971  0.9971  1.2846
12452SOL    HW242042   7.990  10.980   4.211  2.7943 -1.8881 -0.8103
12453SOL     OW42043   6.991   0.604   0.301  0.6701  0.3492 -0.2833
12453SOL    HW142044   6.916   0.620   0.244  0.2452 -0.9797 -0.1396
12453SOL    HW242045   7.043   0.539   0.253  0.1402 -1.0471  0.9461
12454SOL     OW42046  10.880  10.006   8.671  0.3127 -0.1327  0.3884
12454SOL    HW142047  10.861  10.099   8.685 -1.7529 -0.5471  0.6317
12454SOL    HW242048  10.939  10.005   8.596 -1.4230  1.2828 -1.0889
12455SOL     OW42049   8.220   0.884   5.181  0.4423  0.0932 -0.4475
12455SOL    HW142050   8.309   0.909   5.158  0.5937  1.1776  1.0936
12455SOL    HW242051   8.226   0.791   5.203  1.4472  0.3902  0.6599
12456SOL     OW42052   9.524   1.654   7.527 -0.1458 -0.4218 -0.2619
12456SOL    HW142053   9.571   1.572   7.538 -0.5194 -0.7414 -0.9724
12456SOL    HW242054   9.493   1.676   7.615 -1.6135 -2.0025 -0.3199
12457SOL     OW42055  11.035  11.295   8.226  0.7988  0.3570 -0.0140
12457SOL    HW142056  11.021  11.202   8.244 -0.5206  0.6366  0.5635
12457SOL    HW242057  11.109  11.320   8.281 -0.0129  0.0430  1.2839
12458SOL     OW42058   9.450   7.041   6.785 -0.0469 -0.2498 -0.5206
12458SOL    HW142059   9.521   6.988   6.823 -1.8003 -1.6414  1.0120
12458SOL    HW242060   9.469   7.041   6.691  1.7887 -0.8424 -0.2063
12459SOL     OW42061   9.732   5.438   4.148  0.1421  0.3161  0.7476
12459SOL    HW142062   9.751   5.516   4.200 -0.7354  0.8728  0.2518
12459SOL    HW242063   9.681   5.470   4.074  1.4006 -0.4535 -0.5041
12460SOL     OW42064   7.109  10.899   1.522  0.3492  0.4979 -0.5599
12460SOL    HW142065   7.059  10.838   1.467  0.8404  0.5241 -1.0399
12460SOL    HW242066   7.199  10.866   1.519  0.4323  0.6496  0.0267
12461SOL     OW42067   2.666   5.685  10.379 -0.0403 -0.2179 -0.3393
12461SOL    HW142068   2.758   5.705  10.362 -0.3903  0.5407 -1.4546
12461SOL    HW242069   2.634   5.762  10.427  0.0893 -0.8306  0.7562
12462SOL     OW42070   1.133   3.132   4.701  0.1511 -0.2699  0.1069
12462SOL    HW142071   1.124   3.043   4.735 -0.9840 -0.1136  0.2306
12462SOL    HW242072   1.185   3.122   4.621  2.1688 -0.7427  1.3808
12463SOL     OW42073   2.263   3.986   5.443  0.0198  0.0450 -0.0296
12463SOL    HW142074   2.200   3.987   5.371  1.1084 -2.8247 -1.1959
12463SOL    HW242075   2.321   4.060   5.426 -0.9314  0.6123 -0.9334
12464SOL     OW42076   4.362   9.898   1.556 -0.4539  0.1515 -0.3978
12464SOL    HW142077   4.419   9.887   1.480  1.3622  0.3264  0.8768
12464SOL    HW242078   4.371   9.816   1.606  0.1064  0.8612  0.7138
12465SOL     OW42079   6.146   8.870   8.216  0.2076  0.5871 -0.6190
12465SOL    HW142080   6.177   8.956   8.244 -2.1167  0.6363  2.2315
12465SOL    HW242081   6.098   8.887   8.135  1.3268  1.6153 -1.0967
12466SOL     OW42082   4.423   3.159   1.652  0.6784 -0.3844  0.1873
12466SOL    HW142083   4.375   3.228   1.608 -0.2273 -1.4353 -0.5200
12466SOL    HW242084   4.473   3.116   1.583  1.4484 -0.2784  0.6627
12467SOL     OW42085  11.979   7.756   8.944 -0.2213 -0.2486  0.1854
12467SOL    HW142086  11.920   7.803   8.886 -0.7273 -0.4935  0.4964
12467SOL    HW242087  11.927   7.683   8.978  0.1609 -0.2804  0.7179
12468SOL     OW42088   1.070   3.775   2.861  0.0697 -0.7791 -0.1522
12468SOL    HW142089   1.077   3.687   2.826 -0.1097 -0.4445 -1.0668
12468SOL    HW242090   1.152   3.818   2.834 -0.3072 -0.3565 -0.6479
12469SOL     OW42091   8.106   6.729   4.199  0.1332  0.2389  0.0344
12469SOL    HW142092   8.157   6.654   4.230 -1.0214 -1.2784 -1.5302
12469SOL    HW242093   8.074   6.702   4.113 -2.1797  1.6446  0.3736
12470SOL     OW42094   7.198   0.612   0.972  0.0988 -0.1089 -0.4016
12470SOL    HW142095   7.155   0.568   1.046  3.2180  0.1820  1.8025
12470SOL    HW242096   7.273   0.656   1.012  1.5287  0.7062 -3.7027
12471SOL     OW42097   6.972   5.439  10.200 -0.1552 -0.1270 -0.7076
12471SOL    HW142098   6.949   5.377  10.131 -0.0218  0.9746 -1.7880
12471SOL    HW242099   6.960   5.525  10.160  0.0234  0.5519  0.6237
12472SOL     OW42100   4.677   5.086   1.170  0.4793 -0.0160 -0.3608
12472SOL    HW142101   4.678   5.125   1.083 -1.2101 -0.1911 -0.4913
12472SOL    HW242102   4.706   5.156   1.228 -0.2727  0.7104 -0.8482
12473SOL     OW42103   2.149   4.281   4.879 -0.4379  0.4550 -1.0545
12473SOL    HW142104   2.141   4.360   4.825  0.9645 -0.3222 -2.4786
12473SOL    HW242105   2.062   4.240   4.873 -0.6291  0.9453 -1.8278
12474SOL     OW42106   8.076   4.012   9.753  0.4699 -0.7883  0.5690
12474SOL    HW142107   7.991   4.003   9.709 -0.1265  0.5082  1.3594
12474SOL    HW242108   8.125   4.074   9.699  0.5002 -0.7191  0.6752
12475SOL     OW42109  10.580  11.206   4.871 -0.3509 -0.3008 -0.0203
12475SOL    HW142110  10.575  11.239   4.781 -2.5532 -0.4105  0.0213
12475SOL    HW242111  10.599  11.113   4.860  0.1697 -0.1639 -0.3310
12476SOL     OW42112   7.560  10.284   1.579  0.0274  0.0852 -0.6844
12476SOL    HW142113   7.580  10.354   1.516 -1.7140  1.3976  0.1317
12476SOL    HW242114   7.522  10.329   1.654 -2.4991 -1.8298 -0.6913
12477SOL     OW42115   1.562   1.017   9.881 -0.0156  0.3757  0.4568
12477SOL    HW142116   1.474   0.981   9.894  0.0546  0.1997  0.4484
12477SOL    HW242117   1.579   1.006   9.788 -0.1232  0.7323  0.3937
12478SOL     OW42118  11.036   4.025   4.224 -0.1754 -0.2102  0.4124
12478SOL    HW142119  11.111   4.046   4.169 -1.1815  1.3110 -0.4533
12478SOL    HW242120  11.073   3.982   4.301  1.5649  0.5072  0.0056
12479SOL     OW42121   3.846  10.084   3.807 -0.1437 -0.3747 -0.1134
12479SOL    HW142122   3.896  10.151   3.852  1.7114 -0.9123 -1.2427
12479SOL    HW242123   3.876  10.089   3.716 -2.8258 -0.1584 -1.0635
12480SOL     OW42124   0.185   7.722   3.312 -0.3261 -0.0030  0.2280
12480SOL    HW142125   0.205   7.768   3.230  1.6949  0.4205  0.8879
12480SOL    HW242126   0.208   7.631   3.294 -2.6411 -0.5181 -0.5174
12481SOL     OW42127   4.559   5.312   2.893  0.0986  0.2742  0.2035
12481SOL    HW142128   4.621   5.242   2.873  0.1152  0.7816 -1.6671
12481SOL    HW242129   4.507   5.322   2.814 -2.2891  0.0204  1.6271
12482SOL     OW42130   5.445   6.985  10.525 -0.0986 -0.3395  0.1692
12482SOL    HW142131   5.398   6.920  10.473  0.0752 -0.3049 -0.0309
12482SOL    HW242132   5.376   7.033  10.571 -0.1973 -1.1389  0.8864
12483SOL     OW42133   9.905  10.324   5.709  0.1679  0.5562 -0.1703
12483SOL    HW142134   9.955  10.296   5.633  1.1664  0.0793  0.6426
12483SOL    HW242135   9.920  10.419   5.715  2.8904  0.1204  1.3613
12484SOL     OW42136   2.386   7.881   7.735 -0.0919 -0.1608  0.2787
12484SOL    HW142137   2.320   7.817   7.763 -0.3525  0.3042  0.7535
12484SOL    HW242138   2.413   7.851   7.648  0.1175 -1.1642  0.6749
12485SOL     OW42139   9.707   1.393   4.498 -0.4070  0.6690 -0.1499
12485SOL    HW142140   9.731   1.336   4.572 -0.2507  0.7704 -0.1240
12485SOL    HW242141   9.789   1.430   4.468 -0.6600  2.2816  0.9659
12486SOL     OW42142  10.789   6.234   4.413  0.0026  0.1088  0.6337
12486SOL    HW142143  10.763   6.164   4.353  0.6736  1.1576 -0.9312
12486SOL    HW242144  10.775   6.315   4.364  3.0710  0.8861  0.8676
12487SOL     OW42145   1.703   0.498   5.490 -0.9984 -0.6248  0.0011
12487SOL    HW142146   1.747   0.425   5.447  0.2224  0.0793  0.0208
12487SOL    HW242147   1.747   0.576   5.458 -0.0105 -0.0592  2.4724
12488SOL     OW42148   8.165   3.000   3.449  0.1011  0.2385  0.0442
12488SOL    HW142149   8.195   2.995   3.358 -1.4150 -0.6816 -0.4366
12488SOL    HW242150   8.236   2.960   3.499 -0.5800 -2.7621 -1.1457
12489SOL     OW42151   0.107   5.590   7.997 -0.2582  0.1591 -0.0486
12489SOL    HW142152   0.149   5.617   8.079 -1.3674  0.5056  0.4217
12489SOL    HW242153   0.031   5.538   8.025  1.2462 -2.7646 -0.8954
12490SOL     OW42154   2.195   8.193   8.986 -0.6588  0.2511 -0.1861
12490SOL    HW142155   2.265   8.254   9.010 -1.2128  0.9538 -0.3497
12490SOL    HW242156   2.154   8.232   8.909 -0.8219 -0.4906 -0.4833
12491SOL     OW42157   0.468   6.621   1.913  0.8431  0.1776  0.4940
12491SOL    HW142158   0.498   6.693   1.967  0.4091 -0.0025  0.9836
12491SOL    HW242159   0.414   6.568   1.971  2.1889 -1.2472  0.5121
12492SOL     OW42160   0.143   0.390   7.406  0.5340 -0.9574 -0.0679
12492SOL    HW142161   0.183   0.381   7.319  1.8791 -1.7467  0.5993
12492SOL    HW242162   0.202   0.343   7.465  0.9742  1.6240  1.6866
12493SOL     OW42163   5.496   6.707   1.880  0.4775  1.1325 -0.3319
12493SOL    HW142164   5.498   6.801   1.862 -1.3188  1.0514 -1.1053
12493SOL    HW242165   5.508   6.700   1.975  0.0426  2.1720 -0.1895
12494SOL     OW42166   2.065   3.776  11.983 -0.0933  0.4769 -0.2560
12494SOL    HW142167   2.123   3.770  12.058 -0.1813 -1.6667 -0.2881
12494SOL    HW242168   1.977   3.782  12.020 -0.2079 -1.4403 -0.1215
12495SOL     OW42169   2.044   3.795   7.973  0.2539  0.2676 -0.3094
12495SOL    HW142170   2.062   3.887   7.994 -1.1679  0.0359  2.3099
12495SOL    HW242171   2.119   3.748   8.009 -0.2184  0.2273  0.6613
12496SOL     OW42172   9.642   6.614   6.914 -0.2735  0.2205  0.3680
12496SOL    HW142173   9.686   6.558   6.979 -0.1584 -2.4540 -1.8254
12496SOL    HW242174   9.604   6.552   6.852 -1.9928  2.6252 -1.1133
12497SOL     OW42175   8.132   5.082   9.208  0.3013 -0.0641  0.3389
12497SOL    HW142176   8.108   4.990   9.206 -2.8096  0.6160  0.9947
12497SOL    HW242177   8.118   5.113   9.119 -1.2188  0.2543  0.6472
12498SOL     OW42178   0.958  11.305   7.133 -0.1978  0.2668 -0.3229
12498SOL    HW142179   0.873  11.275   7.164  1.0490 -2.0075  1.1641
12498SOL    HW242180   1.006  11.326   7.213  1.0030  0.4315 -1.0647
12499SOL     OW42181   5.785  11.401   7.048 -0.1327 -0.9079 -0.4401
12499SOL    HW142182   5.843  11.446   7.110  0.3943 -1.6253 -0.4043
12499SOL    HW242183   5.696  11.422   7.079  0.0962  0.1619 -0.4724
12500SOL     OW42184   1.643  11.927   5.483  0.3089  0.1948  0.1742
12500SOL    HW142185   1.553  11.897   5.495 -0.2353  1.1114 -1.2890
12500SOL    HW242186   1.680  11.869   5.417  0.4686  0.4042  0.0751
12501SOL     OW42187   6.441   2.925   1.672  0.2576  0.0981  0.0514
12501SOL    HW142188   6.519   2.869   1.667 -0.7419 -1.2687 -1.6181
12501SOL    HW242189   6.376   2.879   1.619 -0.6618  2.8592 -1.3828
12502SOL     OW42190   1.982   1.618   1.921  0.3110 -0.3321 -0.4167
12502SOL    HW142191   1.919   1.638   1.852  2.1146 -2.2843 -2.7805
12502SOL    HW242192   2.004   1.526   1.907  1.8140 -0.4026  1.9152
12503SOL     OW42193  10.601   2.854  10.125  0.1518 -0.5059 -0.7722
12503SOL    HW142194  10.689   2.816  10.130 -0.0036 -0.9217 -1.1016
12503SOL    HW242195  10.580   2.853  10.031  0.2325  0.6110 -0.8249
12504SOL     OW42196   6.742   8.808   1.778 -0.5883 -0.1124  0.2448
12504SOL    HW142197   6.718   8.855   1.858  0.9230  1.9250 -0.4231
12504SOL    HW242198   6.707   8.862   1.707  0.2236 -0.5960 -0.5327
12505SOL     OW42199   1.749   9.743   8.341  0.5337  0.5716  1.1767
12505SOL    HW142200   1.717   9.741   8.250  0.4676 -3.8164  1.0531
12505SOL    HW242201   1.823   9.803   8.339  1.4515 -0.4488 -2.2068
12506SOL     OW42202   3.160   4.070   5.749 -0.0771  0.4447 -0.0853
12506SOL    HW142203   3.074   4.027   5.753 -0.8927  2.0783  0.9682
12506SOL    HW242204   3.140   4.160   5.724  1.5496  0.3663 -1.9070
12507SOL     OW42205   4.568   6.952   4.879 -0.0152 -0.6878  0.4788
12507SOL    HW142206   4.478   6.955   4.912 -0.0295  2.1206  0.3757
12507SOL    HW242207   4.616   6.905   4.947 -1.4176 -1.7077  0.8153
12508SOL     OW42208  11.243   6.925   2.016  0.0432 -0.1954  0.0023
12508SOL    HW142209  11.201   6.839   2.014  2.1721 -1.2945 -1.2530
12508SOL    HW242210  11.335   6.906   2.037  0.4499  1.8495  0.2906
12509SOL     OW42211  10.960  10.539   9.639  0.0476 -0.1286 -0.3151
12509SOL    HW142212  11.030  10.556   9.576  0.3906  0.0797  0.1224
12509SOL    HW242213  10.879  10.552   9.589  0.3147 -0.5050 -0.8580
12510SOL     OW42214  11.672  10.948  11.494  0.0475  0.0671  0.0464
12510SOL    HW142215  11.593  10.921  11.540 -2.7879  1.8028 -3.3544
12510SOL    HW242216  11.702  10.869  11.449 -0.5007 -0.3244  0.3625
12511SOL     OW42217  11.130   8.541  10.263 -0.0696 -0.2463  0.1297
12511SOL    HW142218  11.138   8.475  10.332  0.5421 -1.1699 -0.8053
12511SOL    HW242219  11.220   8.567  10.244 -0.2046 -0.2946 -0.5925
12512SOL     OW42220  11.624   1.687  10.452  0.1507  0.1937  0.3327
12512SOL    HW142221  11.584   1.661  10.535  0.6290 -0.3281  0.4089
12512SOL    HW242222  11.714   1.655  10.458 -0.1774 -1.0553 -0.9333
12513SOL     OW42223   1.342   2.973  11.703 -0.2608 -0.0829 -0.4954
12513SOL    HW142224   1.302   2.907  11.760  2.6235 -1.6291 -0.0444
12513SOL    HW242225   1.360   3.046  11.761  0.4222 -0.6586  0.0372
12514SOL     OW42226   7.034   3.607   1.954 -0.0748  0.5305  0.0415
12514SOL    HW142227   6.999   3.535   1.900 -1.3700  1.4393 -0.3776
12514SOL    HW242228   7.066   3.564   2.033  1.2428 -0.7663 -1.1256
12515SOL     OW42229   2.796   0.920   6.702  0.5024 -0.0394  0.0225
12515SOL    HW142230   2.738   0.986   6.666 -0.8450 -0.6580  0.9620
12515SOL    HW242231   2.829   0.871   6.626  1.0894  1.3245 -0.6314
12516SOL     OW42232   7.817   5.013  11.158 -0.2800  0.3888 -0.4190
12516SOL    HW142233   7.747   5.067  11.122  0.0605 -0.3364 -2.2504
12516SOL    HW242234   7.865   4.982  11.082  2.4109  1.2918  0.7989
12517SOL     OW42235  11.038   8.153   0.671  0.0953  0.3092 -0.1769
12517SOL    HW142236  11.101   8.091   0.635  0.0791  0.4632 -0.4754
12517SOL    HW242237  10.991   8.104   0.738 -2.0028 -0.9402 -2.4012
12518SOL     OW42238   5.027   8.103   2.200 -0.3910 -0.2960 -0.3672
12518SOL    HW142239   4.932   8.104   2.210 -0.4385  0.9066 -0.7217
12518SOL    HW242240   5.058   8.037   2.262 -1.6091 -2.4036 -1.8840
12519SOL     OW42241   3.796   9.897   3.018  0.3328 -0.5996 -0.6010
12519SOL    HW142242   3.735   9.843   3.068  0.5835  0.4833  0.9431
12519SOL    HW242243   3.879   9.888   3.065  0.2619  1.4951  0.0166
12520SOL     OW42244   1.470   3.703   6.644 -0.0453  0.0994 -0.1776
12520SOL    HW142245   1.427   3.776   6.599  0.3831  0.2026 -0.4230
12520SOL    HW242246   1.464   3.630   6.582 -0.8494 -0.2014  0.2363
12521SOL     OW42247   1.038   2.219   0.543 -0.3936  0.7600 -0.2103
12521SOL    HW142248   1.127   2.253   0.552 -0.4038  1.0461 -1.0913
12521SOL    HW242249   1.035   2.144   0.601  0.5064  0.5917 -0.3698
12522SOL     OW42250   1.351  10.314   4.425 -0.4433 -0.5860 -0.2796
12522SOL    HW142251   1.285  10.258   4.466 -1.1238  1.6231  1.8984
12522SOL    HW242252   1.374  10.378   4.493  1.8386  0.4920 -1.9299
12523SOL     OW42253   5.439   0.657   3.745  0.1027 -0.4340 -0.2231
12523SOL    HW142254   5.491   0.736   3.759 -0.4570 -0.1896  0.5352
12523SOL    HW242255   5.448   0.639   3.651  1.6503 -0.4825 -0.0952
12524SOL     OW42256   2.018   9.611   6.933  0.1352 -0.8056  0.4192
12524SOL    HW142257   1.986   9.556   7.005 -0.0987  1.5101  2.2039
12524SOL    HW242258   2.113   9.616   6.947  0.2151 -1.0949 -0.0020
12525SOL     OW42259   6.097   0.949   1.749  0.6693  0.2313  0.4055
12525SOL    HW142260   6.082   0.983   1.838 -0.2784 -0.2571  0.4418
12525SOL    HW242261   6.192   0.945   1.741  0.8050 -1.1732  1.9838
12526SOL     OW42262   5.085  11.265  11.621 -0.4035  0.1338 -0.2849
12526SOL    HW142263   5.038  11.348  11.630  0.7234  0.6527  1.4921
12526SOL    HW242264   5.168  11.280  11.665  0.8620 -1.1975 -2.0984
12527SOL     OW42265   4.279   5.397  10.399 -0.3643 -0.4057  0.6785
12527SOL    HW142266   4.336   5.473  10.383 -1.5484  0.6253  1.1967
12527SOL    HW242267   4.195   5.421  10.359 -2.1729  0.5456  4.5495
12528SOL     OW42268   7.663   4.312   6.070  0.8147  0.0266  0.1002
12528SOL    HW142269   7.652   4.273   6.156 -1.0454 -0.5133 -0.3469
12528SOL    HW242270   7.758   4.316   6.057  1.1145 -2.7668  0.8865
12529SOL     OW42271   5.619   6.292   0.493 -0.1910 -0.2868  0.2839
12529SOL    HW142272   5.651   6.340   0.416 -1.1668  0.7428  0.4883
12529SOL    HW242273   5.697   6.281   0.548  0.4900 -0.9032 -0.7750
12530SOL     OW42274   8.966  10.406   0.947  0.3727 -0.2790 -0.1760
12530SOL    HW142275   8.931  10.408   1.036  2.4297  1.4319  0.6912
12530SOL    HW242276   8.895  10.440   0.892 -0.5373 -0.2636  0.9736
12531SOL     OW42277   2.213   8.191  10.786 -0.5331 -0.1820 -0.1366
12531SOL    HW142278   2.119   8.170  10.784 -0.4471 -0.6760  0.6008
12531SOL    HW242279   2.252   8.134  10.720 -0.3553 -2.1881  1.5799
12532SOL     OW42280  10.782  11.474   5.068  0.0010  0.0390 -0.4597
12532SOL    HW142281  10.834  11.554   5.063 -0.1544  0.2447  0.8858
12532SOL    HW242282  10.691  11.504   5.071 -0.0699 -0.1960 -0.1686
12533SOL     OW42283   9.058  11.777   5.243 -0.2197 -0.3322 -0.2287
12533SOL    HW142284   9.067  11.684   5.219  0.1755 -0.5433  0.7114
12533SOL    HW242285   8.997  11.812   5.178  2.0338 -0.4723 -2.5904
12534SOL     OW42286   6.585   2.792  10.964 -0.6399  0.3940  0.1313
12534SOL    HW142287   6.547   2.865  11.013  0.8728  0.6818  0.9420
12534SOL    HW242288   6.669   2.825  10.933 -0.3888 -0.6788 -0.3899
12535SOL     OW42289   0.726  11.649   2.761  0.7375  0.0755 -0.0669
12535SOL    HW142290   0.725  11.743   2.781 -0.0342 -0.1115  0.8684
12535SOL    HW242291   0.709  11.645   2.667  4.0755  0.9827 -0.8436
12536SOL     OW42292  10.804  11.039   8.989  0.3700 -0.3895  0.1436
12536SOL    HW142293  10.743  11.107   8.962 -2.0436 -1.9632  1.2489
12536SOL    HW242294  10.859  11.024   8.912 -0.4242  1.3258 -0.8107
12537SOL     OW42295   4.055  10.896   8.482  0.1607 -0.0309 -0.3566
12537SOL    HW142296   4.089  10.808   8.463  2.4890  0.9155 -0.8862
12537SOL    HW242297   3.979  10.881   8.538  0.4697 -2.3714 -0.4720
12538SOL     OW42298   3.924   6.247   9.748  0.3041 -0.5191 -0.1688
12538SOL    HW142299   3.852   6.210   9.698  0.2079 -0.7736  0.1555
12538SOL    HW242300   3.884   6.283   9.827  0.4713 -0.2276 -0.2114
12539SOL     OW42301   4.013   3.522   7.567 -0.1118  0.2282 -0.0297
12539SOL    HW142302   4.013   3.489   7.657  0.8589  0.1516 -0.0508
12539SOL    HW242303   4.084   3.475   7.524  0.4171  1.3732 -0.4318
12540SOL     OW42304  11.103   8.566   0.699  0.3534  0.0311 -0.1706
12540SOL    HW142305  11.155   8.512   0.640  2.0958  0.3258  1.0174
12540SOL    HW242306  11.019   8.519   0.706  0.4123 -0.4450 -2.1472
12541SOL     OW42307   8.325   0.216  10.113 -0.3554 -0.0740  0.2274
12541SOL    HW142308   8.328   0.307  10.084 -0.1517 -0.5355 -1.2769
12541SOL    HW242309   8.405   0.177  10.077 -0.7827 -1.0072  0.2624
12542SOL     OW42310   4.062   3.168   8.361  0.3555 -0.1600  0.1151
12542SOL    HW142311   4.095   3.107   8.427 -1.2611  0.0281  1.1506
12542SOL    HW242312   3.970   3.182   8.385  0.8414  3.2905  0.4301
12543SOL     OW42313   4.852   0.965   1.717 -0.1205  0.3974  0.0856
12543SOL    HW142314   4.901   1.035   1.760 -2.0534  1.4862  0.6626
12543SOL    HW242315   4.904   0.943   1.641  1.4984  1.1269  0.9177
12544SOL     OW42316   8.013  10.693  11.012 -0.2220  0.7761  0.6377
12544SOL    HW142317   8.039  10.687  11.104  0.0445 -0.0329  0.5205
12544SOL    HW242318   8.023  10.604  10.979 -0.5172  1.0189 -0.1244
12545SOL     OW42319  10.069   6.127   7.045 -0.0150 -0.1305 -0.4133
12545SOL    HW142320   9.988   6.103   7.089  0.5601  1.0983  1.3813
12545SOL    HW242321  10.119   6.176   7.109  2.5583 -1.5475 -1.1550
12546SOL     OW42322   4.242   2.133   9.907 -0.2531  0.3916 -0.3962
12546SOL    HW142323   4.153   2.163   9.923 -0.5401 -0.4126 -0.4418
12546SOL    HW242324   4.262   2.076   9.982 -0.6216 -1.2459 -1.4900
12547SOL     OW42325   4.118   2.497   8.865 -0.6709  0.4475 -0.2407
12547SOL    HW142326   4.080   2.445   8.935  0.7551 -0.4450 -0.0908
12547SOL    HW242327   4.093   2.452   8.784 -2.0786  1.3210 -0.3232
12548SOL     OW42328   2.507   0.950   4.759  0.3493  0.8929 -0.1346
12548SOL    HW142329   2.489   1.043   4.769 -1.1654  0.7383 -1.0192
12548SOL    HW242330   2.498   0.934   4.665  4.1415  0.4827 -0.5648
12549SOL     OW42331   0.142   1.520   2.160  0.1200 -0.2541  0.2648
12549SOL    HW142332   0.149   1.596   2.102  2.1765 -1.6784 -1.4942
12549SOL    HW242333   0.169   1.553   2.245  2.0579  0.8204 -0.6889
12550SOL     OW42334   0.773   5.560  10.037  0.3047 -0.3701 -0.1231
12550SOL    HW142335   0.680   5.545  10.023  0.3303  0.0280 -0.7566
12550SOL    HW242336   0.816   5.500   9.975  0.4544  0.0144 -0.3929
12551SOL     OW42337  10.511   5.120  11.782  0.3221  0.2305  0.3588
12551SOL    HW142338  10.430   5.110  11.832  0.3215 -0.9146  0.1475
12551SOL    HW242339  10.578   5.138  11.848 -0.5317  4.4175  0.3479
12552SOL     OW42340   2.908   4.578   3.560 -0.0948 -0.3380  0.3985
12552SOL    HW142341   2.823   4.564   3.518 -0.6894 -0.4642  1.5878
12552SOL    HW242342   2.944   4.490   3.569 -1.0172 -0.5940  2.1889
12553SOL     OW42343   3.414   5.707   9.011 -0.1621 -0.5177 -0.3971
12553SOL    HW142344   3.424   5.768   9.084  0.2813 -0.3399 -0.5994
12553SOL    HW242345   3.502   5.671   8.998 -0.1620 -0.2978 -1.0566
12554SOL     OW42346   5.263   0.585   2.747  0.6316 -0.0034  0.0643
12554SOL    HW142347   5.300   0.608   2.662 -0.9797 -0.4044 -0.7927
12554SOL    HW242348   5.325   0.620   2.811  0.1841  3.4606 -1.1787
12555SOL     OW42349   9.651  11.905   0.347  0.5762 -0.3384  0.2514
12555SOL    HW142350   9.699  11.874   0.270 -1.5315 -1.5320 -0.6713
12555SOL    HW242351   9.636  11.826   0.399 -1.9778 -0.4133 -0.4518
12556SOL     OW42352   4.474   3.337   8.133 -0.2485 -0.2839  0.1159
12556SOL    HW142353   4.436   3.258   8.172  0.8030 -0.5265  0.6749
12556SOL    HW242354   4.497   3.392   8.207  3.0063 -1.3193  0.0159
12557SOL     OW42355   0.442   6.353   3.199  0.0435  0.0417  0.0868
12557SOL    HW142356   0.386   6.391   3.130  1.7795  0.2384 -1.2837
12557SOL    HW242357   0.403   6.267   3.216 -0.8843  0.3101 -0.5668
12558SOL     OW42358   9.126   0.039  11.551  0.4184  0.1868 -0.0387
12558SOL    HW142359   9.137  -0.048  11.589  0.2860 -0.7336 -1.9711
12558SOL    HW242360   9.133   0.024  11.457 -0.5463  2.1292 -0.4525
12559SOL     OW42361  10.942   9.009  10.071  0.2915  0.2612  0.2650
12559SOL    HW142362  10.976   9.078  10.013  1.2103  1.2246  1.8350
12559SOL    HW242363  10.993   8.931  10.048 -0.0208  0.3746 -0.8396
12560SOL     OW42364   8.853   4.704   3.565 -0.0171 -0.3683  0.0850
12560SOL    HW142365   8.793   4.732   3.635 -0.4002 -1.1985  0.0949
12560SOL    HW242366   8.838   4.768   3.494  0.4564  0.5466  0.7864
12561SOL     OW42367   7.678   9.274   8.972 -0.2987 -0.2073 -0.5116
12561SOL    HW142368   7.692   9.327   8.893  0.1321 -0.5094 -0.6421
12561SOL    HW242369   7.622   9.327   9.027  0.0745  0.3601 -0.6721
12562SOL     OW42370   2.827   4.081   7.321 -0.5468  0.0704 -0.2396
12562SOL    HW142371   2.873   4.035   7.251  1.5358  1.4795  0.1005
12562SOL    HW242372   2.826   4.019   7.394 -1.4507 -0.8800 -1.0300
12563SOL     OW42373   9.179   4.151  11.125  0.0993 -0.0168 -0.3449
12563SOL    HW142374   9.091   4.172  11.094 -0.6930  1.0433  2.3182
12563SOL    HW242375   9.211   4.084  11.064 -2.3951 -0.2055 -1.5756
12564SOL     OW42376   2.056   2.929   3.060  0.0732  0.1111 -0.0309
12564SOL    HW142377   2.051   3.006   3.003 -1.2072 -0.9305 -1.3974
12564SOL    HW242378   2.055   2.965   3.148 -3.4604  1.6542 -0.5417
12565SOL     OW42379   2.759   6.199   8.671  0.4159  0.1204 -0.3667
12565SOL    HW142380   2.738   6.170   8.582  0.0662  1.0226 -0.5960
12565SOL    HW242381   2.799   6.285   8.659 -1.1502  1.0119  0.4196
12566SOL     OW42382   8.277   6.074  10.127 -0.5305 -0.0816 -0.4504
12566SOL    HW142383   8.257   5.988  10.089 -0.3811 -0.0457 -0.6131
12566SOL    HW242384   8.350   6.107  10.074  0.2292 -0.3895  0.3881
12567SOL     OW42385   2.466   5.941  10.276  0.2730  0.1159 -0.2325
12567SOL    HW142386   2.443   5.928  10.368  1.1824  0.2152  0.0176
12567SOL    HW242387   2.389   5.910  10.227 -0.7022  1.1522  0.5818
12568SOL     OW42388   6.466   3.934   6.277  0.0437 -0.3697  0.4200
12568SOL    HW142389   6.408   3.963   6.347  0.5330  1.0222  0.2855
12568SOL    HW242390   6.523   3.869   6.318 -0.1359 -0.0896  1.1316
12569SOL     OW42391   2.252  10.482   7.839 -0.3814 -0.3172 -0.2425
12569SOL    HW142392   2.311  10.408   7.855  1.4089  1.4513  2.1847
12569SOL    HW242393   2.309  10.559   7.845 -2.4279  1.3569 -1.1162
12570SOL     OW42394   3.321  11.491  10.875 -0.2030  0.3568 -0.5442
12570SOL    HW142395   3.239  11.471  10.918  1.1562 -1.0651  1.5748
12570SOL    HW242396   3.379  11.522  10.945  2.1708 -2.1807 -1.1905
12571SOL     OW42397  10.385   8.184   2.899  0.3529 -0.4679 -0.0516
12571SOL    HW142398  10.454   8.201   2.963 -0.1617 -0.1521  0.4287
12571SOL    HW242399  10.363   8.092   2.911 -0.0562 -0.2940  0.5369
12572SOL     OW42400   7.808   6.821  10.521 -0.1299 -0.0050 -0.2415
12572SOL    HW142401   7.814   6.726  10.509  1.6478 -0.3761  2.5949
12572SOL    HW242402   7.861   6.857  10.449 -0.1535 -1.1955 -0.8912
12573SOL     OW42403   5.198   1.754  10.753  0.4525 -0.4773 -0.3775
12573SOL    HW142404   5.141   1.827  10.775  1.1866  0.4407 -1.3883
12573SOL    HW242405   5.176   1.733  10.662  1.5788 -0.2017 -0.7350
12574SOL     OW42406   0.781   6.499   1.437  0.2102  0.3482 -0.0584
12574SOL    HW142407   0.797   6.421   1.384  1.8388  0.8990 -0.4363
12574SOL    HW242408   0.721   6.552   1.385 -1.6065 -0.9794  0.5756
12575SOL     OW42409   0.388   0.258   1.260  0.2957  0.2340 -0.0352
12575SOL    HW142410   0.313   0.296   1.215  0.3555 -1.1494 -1.3809
12575SOL    HW242411   0.461   0.316   1.238 -0.2024  1.1213  0.6034
12576SOL     OW42412   4.356   2.576   3.280 -0.8640 -0.2404  0.6950
12576SOL    HW142413   4.302   2.596   3.202  0.3725 -0.2554 -0.1929
12576SOL    HW242414   4.370   2.482   3.275  1.9370  0.1539 -0.9660
12577SOL     OW42415   3.707   6.616   5.137 -0.5778  0.2921  0.3647
12577SOL    HW142416   3.789   6.648   5.175 -0.6904  0.4698  0.4628
12577SOL    HW242417   3.669   6.560   5.205  0.6843 -1.8805 -0.6211
12578SOL     OW42418   7.766   6.869  11.014  0.1204 -0.4765  0.3919
12578SOL    HW142419   7.722   6.950  11.040 -0.7373 -1.2294  1.3668
12578SOL    HW242420   7.779   6.878  10.920  0.6096  1.0526  0.5693
12579SOL     OW42421   7.855  11.835   0.514 -0.0848  0.0264 -0.0614
12579SOL    HW142422   7.897  11.836   0.429 -0.0110 -0.9545 -0.0456
12579SOL    HW242423   7.762  11.818   0.495 -0.2085  0.6004  0.0071
12580SOL     OW42424   4.366   5.884   8.644 -0.6181 -0.2765 -0.1165
12580SOL    HW142425   4.360   5.861   8.736 -0.4391 -1.7599 -0.4510
12580SOL    HW242426   4.456   5.862   8.619 -0.1447  1.6757 -0.2685
12581SOL     OW42427   3.716   9.204   2.218 -0.2731 -0.0448 -0.6135
12581SOL    HW142428   3.643   9.259   2.189  0.4619  0.4339 -1.6132
12581SOL    HW242429   3.713   9.210   2.314 -1.9429 -0.5862 -0.6011
12582SOL     OW42430   8.383  10.391   7.309  0.0270 -0.4483 -0.6154
12582SOL    HW142431   8.437  10.464   7.278  1.2575 -0.7572  0.7249
12582SOL    HW242432   8.317  10.432   7.365  0.3543 -0.2967 -0.3370
12583SOL     OW42433   2.960   2.958   6.933 -0.1965  0.1923  0.4452
12583SOL    HW142434   2.971   3.036   6.878  1.2429 -1.0324 -1.0999
12583SOL    HW242435   3.013   2.891   6.891 -1.6392 -1.7477  1.5410
12584SOL     OW42436   6.832   5.389   8.562  0.3151 -0.2807  0.1376
12584SOL    HW142437   6.915   5.358   8.599  0.8948  0.0449 -0.8666
12584SOL    HW242438   6.825   5.480   8.592  0.1802 -0.3852  0.4357
12585SOL     OW42439   3.464   9.927   2.764  0.0482  0.1796 -0.3585
12585SOL    HW142440   3.553   9.906   2.792  1.2473  2.7658 -1.8782
12585SOL    HW242441   3.453   9.877   2.683  0.8172  1.1307 -1.0769
12586SOL     OW42442  10.532   5.238   5.682  0.0134 -0.3728  0.3363
12586SOL    HW142443  10.601   5.284   5.634  1.3173 -0.5605  1.9581
12586SOL    HW242444  10.531   5.150   5.645 -0.2102 -0.0197 -0.5199
12587SOL     OW42445   8.572   3.437   6.990 -0.1663  0.4466 -0.2205
12587SOL    HW142446   8.645   3.388   6.954 -2.7118 -2.8609 -1.3646
12587SOL    HW242447   8.529   3.477   6.914 -1.2427 -0.2235  0.0092
12588SOL     OW42448   2.389   9.369   2.620  0.2340 -0.4684  0.4372
12588SOL    HW142449   2.327   9.441   2.608 -1.3493 -1.9328 -0.5895
12588SOL    HW242450   2.446   9.374   2.543  1.3349  0.7660  1.2887
12589SOL     OW42451   7.576   7.204   3.714 -0.0280  0.7197  0.5630
12589SOL    HW142452   7.626   7.240   3.641 -1.5349 -0.3521 -1.0480
12589SOL    HW242453   7.614   7.247   3.791  2.7182  0.6527 -0.6363
12590SOL     OW42454   8.875   2.882  10.156 -0.3326 -0.4189 -0.4281
12590SOL    HW142455   8.951   2.922  10.197 -0.3297 -0.3616 -0.4905
12590SOL    HW242456   8.807   2.949  10.159 -1.2313 -1.3387  2.0265
12591SOL     OW42457   7.176   9.579   6.365 -0.3025 -0.0403 -0.1387
12591SOL    HW142458   7.233   9.560   6.290  0.6094 -0.3008  0.6052
12591SOL    HW242459   7.093   9.538   6.342  1.0754 -3.6783  0.6375
12592SOL     OW42460   2.440   0.892   0.524 -0.2885 -0.3533 -0.7990
12592SOL    HW142461   2.412   0.908   0.614 -0.4038  0.3152 -0.9462
12592SOL    HW242462   2.366   0.846   0.484  0.2401 -1.7340 -0.2354
12593SOL     OW42463   9.540   3.220   9.689 -0.0285 -0.2106 -0.2732
12593SOL    HW142464   9.595   3.209   9.766 -0.6956 -2.3252 -0.0366
12593SOL    HW242465   9.458   3.176   9.711 -0.4235 -0.4334 -2.0136
12594SOL     OW42466  10.522   3.341   9.621  0.1367  0.3572  0.0405
12594SOL    HW142467  10.616   3.326   9.632  0.3791  0.7128 -1.2585
12594SOL    HW242468  10.485   3.335   9.709  1.6774  2.2784  0.8735
12595SOL     OW42469   7.257  11.001   4.344  0.4276  0.3691  0.2327
12595SOL    HW142470   7.200  11.016   4.269  1.0006 -1.7335 -0.6850
12595SOL    HW242471   7.303  11.084   4.357 -1.9167  1.7352  0.2566
12596SOL     OW42472   9.867   8.369   5.357 -0.5253  0.2360  0.2969
12596SOL    HW142473   9.922   8.443   5.331 -1.4840  0.9972  0.3635
12596SOL    HW242474   9.838   8.391   5.446  0.2030 -0.8468  0.8274
12597SOL     OW42475   6.638   1.534   7.915 -0.2283  0.1648 -0.3895
12597SOL    HW142476   6.583   1.569   7.844  1.0177  0.4890 -1.2187
12597SOL    HW242477   6.705   1.601   7.929 -0.0001 -0.2515  0.5699
12598SOL     OW42478   3.748   0.607   2.131 -0.0014 -0.1540 -0.6837
12598SOL    HW142479   3.831   0.587   2.087 -0.7753  0.9380 -2.7851
12598SOL    HW242480   3.753   0.561   2.215  2.1616 -1.1843 -1.3145
12599SOL     OW42481  11.774   7.553   9.491 -0.6415 -0.0883  0.2851
12599SOL    HW142482  11.713   7.488   9.455  0.8374 -0.9149 -0.8744
12599SOL    HW242483  11.843   7.560   9.425  1.7524 -0.9449  2.5111
12600SOL     OW42484   6.453   2.385   5.074 -0.3366 -0.2891 -0.1721
12600SOL    HW142485   6.368   2.425   5.095 -2.8443 -3.6722 -2.6351
12600SOL    HW242486   6.464   2.399   4.980  0.7792 -1.6689 -0.2839
12601SOL     OW42487  11.306   6.673  10.711  0.1716  0.1175 -0.6365
12601SOL    HW142488  11.243   6.602  10.706 -0.5787  0.7420 -0.1990
12601SOL    HW242489  11.259   6.745  10.752  1.1274  0.6421 -0.4155
12602SOL     OW42490   8.561   7.274   9.297 -0.7632 -0.5986 -0.1826
12602SOL    HW142491   8.475   7.245   9.267 -1.9137  1.8385  0.4840
12602SOL    HW242492   8.590   7.336   9.230 -0.0736 -0.4998  0.1990
12603SOL     OW42493   0.712  10.500   6.624  0.2231 -0.4588  0.0791
12603SOL    HW142494   0.707  10.545   6.540  0.5327  0.3620  0.4883
12603SOL    HW242495   0.672  10.561   6.686 -0.1634 -1.1295  0.5049
12604SOL     OW42496   8.449   6.500   4.672 -0.0163 -0.6537  0.1645
12604SOL    HW142497   8.503   6.424   4.698 -0.3186 -1.1361 -0.5690
12604SOL    HW242498   8.449   6.497   4.576 -0.3182  0.0818  0.1353
12605SOL     OW42499   6.218   2.632   7.699  0.2898 -0.1134 -0.6879
12605SOL    HW142500   6.203   2.582   7.780 -1.6033 -0.0760 -0.9775
12605SOL    HW242501   6.313   2.641   7.695  0.5552 -1.6863  0.5910
12606SOL     OW42502   9.783  11.916  10.714  0.1946 -0.0585 -0.2642
12606SOL    HW142503   9.710  11.880  10.765 -0.1952  1.1445  0.0519
12606SOL    HW242504   9.742  11.979  10.655  0.7452 -0.8331 -1.4985
12607SOL     OW42505   6.502   6.705  10.250 -0.2621 -0.1095 -0.0193
12607SOL    HW142506   6.591   6.742  10.250 -0.4094  0.3630 -1.9196
12607SOL    HW242507   6.504   6.640  10.180 -1.4657  0.0734 -0.2426
12608SOL     OW42508   4.765  10.297   4.105 -0.4467 -0.1984 -0.6138
12608SOL    HW142509   4.694  10.268   4.162 -0.0049 -0.6657 -0.2867
12608SOL    HW242510   4.767  10.392   4.114  1.2750 -0.3946  2.2030
12609SOL     OW42511   9.795   0.544   2.997  0.8682 -0.4771  0.9313
12609SOL    HW142512   9.847   0.586   2.929 -1.4585 -1.3453 -1.5475
12609SOL    HW242513   9.780   0.614   3.062 -0.0950  1.6291 -1.4048
12610SOL     OW42514   3.584   3.258   7.019 -0.1514  0.3701  0.0182
12610SOL    HW142515   3.607   3.174   6.980  2.3511  0.5081  1.0448
12610SOL    HW242516   3.659   3.315   7.001 -0.4664  1.4807  1.9105
12611SOL     OW42517   7.425   3.219   2.015 -0.2012 -0.0333  0.2913
12611SOL    HW142518   7.468   3.134   2.027 -0.3832  0.0356  1.4962
12611SOL    HW242519   7.487   3.269   1.962 -1.0766 -1.6381 -2.4673
12612SOL     OW42520  10.366   0.950   3.295 -0.1409  0.0545  0.4531
12612SOL    HW142521  10.421   1.017   3.255 -1.0651 -0.2518 -1.4393
12612SOL    HW242522  10.428   0.887   3.331  0.7418  0.5803 -0.0950
12613SOL     OW42523   6.003   1.686   4.967 -0.1925 -0.1938 -0.3228
12613SOL    HW142524   6.041   1.771   4.948 -1.3790  0.0250 -1.9277
12613SOL    HW242525   5.922   1.706   5.014 -0.7586 -0.3701 -1.1899
12614SOL     OW42526   1.122   6.107   3.098 -0.5461  0.0783  0.0685
12614SOL    HW142527   1.205   6.098   3.051 -0.9502 -0.5464 -0.5633
12614SOL    HW242528   1.060   6.133   3.030 -0.9550  0.0951  0.4485
12615SOL     OW42529   8.906   3.778   8.530  0.2025  0.0512  0.1887
12615SOL    HW142530   8.911   3.854   8.589  1.7596 -0.2925  0.5481
12615SOL    HW242531   8.819   3.784   8.491  0.2513  1.9955  0.2521
12616SOL     OW42532   0.268   7.359   7.182 -0.3623  0.7040  0.1336
12616SOL    HW142533   0.248   7.417   7.109 -0.5248 -0.5606 -0.8629
12616SOL    HW242534   0.301   7.279   7.141 -2.1304 -0.7171  1.3249
12617SOL     OW42535   9.080  10.086   6.387  1.0691  0.0062 -0.0292
12617SOL    HW142536   9.064  10.136   6.466 -0.4668 -1.8732  0.9402
12617SOL    HW242537   9.122  10.148   6.327 -0.8011  2.4473  1.0194
12618SOL     OW42538   8.499  11.083   4.082  0.9652 -0.1553  0.4189
12618SOL    HW142539   8.509  11.040   4.168 -0.7769  1.0077  1.2559
12618SOL    HW242540   8.469  11.171   4.103 -0.4371 -0.1571 -1.4301
12619SOL     OW42541   3.831   1.995   3.904 -0.4957 -0.4262 -0.3207
12619SOL    HW142542   3.920   1.961   3.916 -0.1774  0.6549  0.4703
12619SOL    HW242543   3.842   2.070   3.846 -1.0242 -0.8123 -0.9367
12620SOL     OW42544   8.958   4.557  10.022  0.4363  0.0467  0.2486
12620SOL    HW142545   8.872   4.536  10.058 -0.3839  0.2903 -1.4712
12620SOL    HW242546   9.004   4.601  10.093 -1.8351  2.3458  0.4367
12621SOL     OW42547   6.655   9.519   7.620  0.4178 -0.1540  0.5166
12621SOL    HW142548   6.649   9.428   7.590  0.0108  0.2084 -0.5905
12621SOL    HW242549   6.564   9.543   7.639 -0.2274  1.3072 -3.4399
12622SOL     OW42550   4.923   7.890   5.318  0.2504  0.0356  0.1133
12622SOL    HW142551   5.008   7.850   5.335  0.6837  0.9783  0.2763
12622SOL    HW242552   4.941   7.984   5.318 -0.7896  0.2479  0.1064
12623SOL     OW42553   1.658   2.612   8.080 -0.1272  0.6880  0.1305
12623SOL    HW142554   1.710   2.540   8.045  0.8063  0.1774  2.3934
12623SOL    HW242555   1.598   2.635   8.009  0.8193 -1.0438 -1.3127
12624SOL     OW42556   7.569   5.379   1.456 -0.2081  0.5212  0.7174
12624SOL    HW142557   7.660   5.401   1.436  0.5430 -3.5464 -1.3922
12624SOL    HW242558   7.570   5.350   1.547  0.1382  2.2629  1.3027
12625SOL     OW42559   2.906  11.187  10.983  0.1192 -0.2588 -0.1732
12625SOL    HW142560   2.838  11.241  11.022 -0.1089 -0.2097 -0.6350
12625SOL    HW242561   2.890  11.099  11.016 -0.6504 -0.4001 -0.9011
12626SOL     OW42562   5.726   9.106  10.641 -0.0664  0.8955 -0.1888
12626SOL    HW142563   5.712   9.135  10.551 -0.4038  0.3749 -0.3015
12626SOL    HW242564   5.639   9.106  10.680 -0.3925 -1.8281 -0.7422
12627SOL     OW42565   2.201   9.029   7.150 -0.7361 -0.1300 -1.0341
12627SOL    HW142566   2.129   8.973   7.122  0.1619 -0.9295 -1.8531
12627SOL    HW242567   2.192   9.108   7.096 -1.5655  0.2068 -0.4173
12628SOL     OW42568   8.054   1.211  10.565  0.1535 -0.4215 -0.6503
12628SOL    HW142569   8.066   1.122  10.534 -2.6680 -0.9978 -0.3704
12628SOL    HW242570   8.117   1.221  10.636 -1.3539 -3.2922  1.3025
12629SOL     OW42571   9.931  11.270   2.969  0.2352  0.3690  0.3181
12629SOL    HW142572   9.993  11.293   3.038  1.1059 -0.0545 -0.3016
12629SOL    HW242573   9.859  11.332   2.980  1.1622  1.4467  0.5217
12630SOL     OW42574  11.452   3.859   9.440  0.0892 -0.1674  0.2461
12630SOL    HW142575  11.432   3.857   9.534 -0.4937 -1.2955  0.1133
12630SOL    HW242576  11.527   3.800   9.430  0.8291  0.7726  0.1363
12631SOL     OW42577  11.785  10.850   5.662 -0.4362  0.4168 -0.2095
12631SOL    HW142578  11.781  10.945   5.676  1.4900  0.3493  1.3071
12631SOL    HW242579  11.703  10.817   5.699  0.1788  1.2694  2.1386
12632SOL     OW42580   7.776   0.024   7.933  0.3293  0.2159 -0.4441
12632SOL    HW142581   7.865  -0.008   7.923 -0.5513 -2.6550 -0.1219
12632SOL    HW242582   7.773   0.062   8.020  1.2751  0.5617 -0.5573
12633SOL     OW42583   5.837   4.401   7.634 -0.3835 -0.4257  0.6009
12633SOL    HW142584   5.851   4.443   7.718 -1.8164  0.8472  0.2561
12633SOL    HW242585   5.772   4.332   7.653 -0.2380 -0.5545  0.6373
12634SOL     OW42586   8.362   4.842   3.877 -0.4377  0.0495 -0.0872
12634SOL    HW142587   8.347   4.807   3.789  1.5611  0.5797 -0.6784
12634SOL    HW242588   8.342   4.769   3.936 -1.3028 -0.4641 -0.9925
12635SOL     OW42589   1.099   9.449   3.481  0.3567  0.0160  0.2969
12635SOL    HW142590   1.193   9.440   3.500  0.1552  0.3185  1.5262
12635SOL    HW242591   1.078   9.538   3.507 -0.2488  0.0037 -0.1248
12636SOL     OW42592   6.047   9.204   8.220 -0.2713  0.1035 -0.2205
12636SOL    HW142593   5.962   9.221   8.180 -0.6732  0.0472  0.6035
12636SOL    HW242594   6.028   9.151   8.297  0.5256 -0.0230 -0.1003
12637SOL     OW42595   7.530   0.868  10.844 -0.5692 -0.3631 -0.3333
12637SOL    HW142596   7.472   0.839  10.915 -0.0108 -2.0087 -0.5018
12637SOL    HW242597   7.488   0.946  10.808  0.4433  2.2087  3.4786
12638SOL     OW42598   2.310   2.222   5.067  0.3038 -0.1694  0.0345
12638SOL    HW142599   2.227   2.262   5.040 -0.1677  0.1898  1.8922
12638SOL    HW242600   2.284   2.147   5.120  1.1874 -0.7953 -0.3968
12639SOL     OW42601   7.116  10.874   0.427 -0.0524 -0.1310 -0.2949
12639SOL    HW142602   7.153  10.866   0.339  1.5898  2.7648  0.0000
12639SOL    HW242603   7.117  10.968   0.444 -0.5839 -0.5921  2.7208
12640SOL     OW42604   3.391   5.946   0.981 -0.1896  0.1687  0.1991
12640SOL    HW142605   3.316   5.986   1.026 -0.4609  1.4700 -1.3302
12640SOL    HW242606   3.361   5.857   0.961 -0.9708  0.3664  0.4213
12641SOL     OW42607   9.260   1.863   1.315  0.7873 -0.0795 -0.6516
12641SOL    HW142608   9.288   1.883   1.404  0.4049  0.3117 -0.6110
12641SOL    HW242609   9.317   1.792   1.287  3.1943  1.9683 -1.3032
12642SOL     OW42610   6.632   0.243   6.835  0.6711 -0.2970 -0.1737
12642SOL    HW142611   6.617   0.204   6.921  1.0011 -1.1596 -0.5008
12642SOL    HW242612   6.548   0.284   6.812  1.2822  2.2203  1.6704
12643SOL     OW42613   7.220   3.083   3.273  0.3231 -0.2581  0.7799
12643SOL    HW142614   7.186   3.007   3.226  3.0402 -1.1427  0.0613
12643SOL    HW242615   7.219   3.154   3.209  0.9547 -0.6126  0.3633
12644SOL     OW42616   2.124  11.061   7.095 -0.4554 -0.0783 -0.1006
12644SOL    HW142617   2.184  11.009   7.148 -2.0214 -1.9956 -0.0882
12644SOL    HW242618   2.136  11.027   7.006  0.8769  1.9008 -0.7526
12645SOL     OW42619   2.233  11.364   1.644  0.2612 -0.0871 -0.7171
12645SOL    HW142620   2.246  11.422   1.719  0.5808  1.2313 -1.7559
12645SOL    HW242621   2.321  11.345   1.613  0.1466 -0.9294 -0.5531
12646SOL     OW42622   2.326   1.793   2.955  0.0076 -0.4479 -0.4277
12646SOL    HW142623   2.360   1.827   3.037  0.7368 -1.4712 -0.2886
12646SOL    HW242624   2.398   1.741   2.919 -0.5638 -0.6246 -1.3437
12647SOL     OW42625   5.867  11.567   3.562 -0.5910 -0.0429 -0.3114
12647SOL    HW142626   5.903  11.593   3.478  0.8245  0.5569  0.4428
12647SOL    HW242627   5.913  11.487   3.585 -1.2938 -0.4526 -0.3033
12648SOL     OW42628   9.768  11.211   1.834 -0.2766 -0.0957  0.0559
12648SOL    HW142629   9.823  11.262   1.775  0.5583  0.4601  1.2709
12648SOL    HW242630   9.780  11.120   1.807  2.2915 -0.1309  1.0866
12649SOL     OW42631  10.801   7.402   4.031 -0.2348 -0.3157 -0.3585
12649SOL    HW142632  10.809   7.307   4.042 -1.6452 -0.3040  1.2311
12649SOL    HW242633  10.751   7.413   3.950  0.2140 -0.9155 -0.7200
12650SOL     OW42634  10.210   0.238  10.336 -0.6355 -0.1581  0.0175
12650SOL    HW142635  10.260   0.203  10.263 -0.4744 -0.5192  0.2999
12650SOL    HW242636  10.121   0.206  10.322 -0.4905 -0.6835  0.2727
12651SOL     OW42637   0.079  11.960   4.106  0.0124  0.5873  0.5918
12651SOL    HW142638  -0.011  11.956   4.139  0.0130 -0.8297  0.4576
12651SOL    HW242639   0.103  11.869   4.089  2.1157  0.7578  2.2766
12652SOL     OW42640   3.443   3.257   2.152 -0.0880  0.2573  0.0857
12652SOL    HW142641   3.412   3.210   2.230 -0.4074 -2.6799 -1.6582
12652SOL    HW242642   3.516   3.204   2.120 -0.2743  1.1163 -1.8619
12653SOL     OW42643  10.233   2.977   1.964  0.6147 -0.2512  0.7924
12653SOL    HW142644  10.286   2.938   2.033  2.1127  1.1733  0.4975
12653SOL    HW242645  10.296   2.998   1.895 -0.9257 -2.4524 -1.4834
12654SOL     OW42646   7.449   1.114   9.485  0.4087 -0.0358  0.2556
12654SOL    HW142647   7.422   1.055   9.414 -0.8788 -0.2779  0.9228
12654SOL    HW242648   7.539   1.138   9.462  1.9813 -4.1643  1.1737
12655SOL     OW42649   1.769   2.093   5.522  0.0084 -0.2447 -0.1395
12655SOL    HW142650   1.767   2.068   5.429 -2.0220  0.2116 -0.2518
12655SOL    HW242651   1.863   2.093   5.544  0.7552  1.7051 -2.7393
12656SOL     OW42652   8.715  11.725   0.512 -1.0510 -0.4713  0.0825
12656SOL    HW142653   8.742  11.707   0.603  2.2127  0.1691 -0.6285
12656SOL    HW242654   8.643  11.787   0.521 -1.4055 -1.0922  2.2497
12657SOL     OW42655  10.918   5.806   7.735  0.2466 -0.3521  0.4355
12657SOL    HW142656  10.950   5.746   7.667 -0.0388  0.4247 -0.4080
12657SOL    HW242657  10.985   5.874   7.741 -0.4541  0.4191 -0.1978
12658SOL     OW42658   6.622   7.456   0.451  0.0445  0.2403  0.3041
12658SOL    HW142659   6.580   7.402   0.517  0.0370 -0.3865 -0.2017
12658SOL    HW242660   6.714   7.461   0.480  0.5790 -1.9336 -0.7856
12659SOL     OW42661   6.562   2.565  10.748  0.2970 -0.6591 -0.1596
12659SOL    HW142662   6.605   2.650  10.741  1.2362 -0.9610  1.3704
12659SOL    HW242663   6.632   2.501  10.732 -0.1151 -1.1570 -0.0282
12660SOL     OW42664   4.851   9.830   3.534 -0.2496  0.0731 -0.2798
12660SOL    HW142665   4.857   9.822   3.438  0.9307  0.4530 -0.2541
12660SOL    HW242666   4.941   9.818   3.564 -0.6569 -0.2973  0.8092
12661SOL     OW42667   7.444   4.504   7.789 -0.1741  0.0122 -0.6954
12661SOL    HW142668   7.433   4.582   7.734  3.2298  1.7888  0.9201
12661SOL    HW242669   7.512   4.453   7.745  0.9728  0.3412  0.6353
12662SOL     OW42670   6.085   1.624   5.363  0.3314  0.0091  0.5100
12662SOL    HW142671   6.143   1.635   5.288 -0.9128 -1.0966 -0.6718
12662SOL    HW242672   6.127   1.674   5.433  1.1662  1.7363 -1.1080
12663SOL     OW42673   3.377  10.319   1.871 -0.9833  0.0971  0.2200
12663SOL    HW142674   3.309  10.337   1.806 -0.0666  1.5767 -0.3865
12663SOL    HW242675   3.385  10.401   1.921  2.2727  1.0564 -1.5781
12664SOL     OW42676   3.740  10.567   9.951  0.3160  0.3867 -0.0509
12664SOL    HW142677   3.681  10.512  10.002 -0.0873  0.7825 -0.0921
12664SOL    HW242678   3.827  10.534   9.973  0.1555  0.5915  0.9407
12665SOL     OW42679   5.681   4.554   7.262  0.5798  0.5642 -0.2458
12665SOL    HW142680   5.699   4.473   7.215  0.5524  0.0748  0.5633
12665SOL    HW242681   5.595   4.540   7.302  0.4355  1.1117 -0.3592
12666SOL     OW42682   8.989   7.306   9.685  0.3910 -0.2292 -0.2101
12666SOL    HW142683   9.071   7.329   9.642  1.4738 -0.7506  1.4816
12666SOL    HW242684   8.921   7.344   9.630  1.7585  0.1644 -1.6844
12667SOL     OW42685   3.295  10.615   8.707  0.4577 -0.5228  0.0272
12667SOL    HW142686   3.299  10.678   8.779 -0.1509  1.6025 -1.6736
12667SOL    HW242687   3.358  10.548   8.730  0.7231  0.3982  2.2325
12668SOL     OW42688   4.880  11.017   8.622  0.4545 -0.1839  0.0517
12668SOL    HW142689   4.937  10.942   8.641  0.6495 -0.2952 -0.9044
12668SOL    HW242690   4.938  11.081   8.581  0.4526  0.8181  1.5470
12669SOL     OW42691   2.913   2.430  11.905  0.7124  0.5842 -0.3276
12669SOL    HW142692   2.889   2.345  11.941  0.8522  1.2709  1.4914
12669SOL    HW242693   2.833   2.460  11.861 -0.5767  1.0483  2.1398
12670SOL     OW42694   3.782   7.862   0.570 -0.0760  0.2792 -0.3315
12670SOL    HW142695   3.744   7.790   0.520  0.6156 -0.4044  0.0982
12670SOL    HW242696   3.752   7.941   0.525 -0.7807 -0.2763 -0.8606
12671SOL     OW42697   6.907   4.921   5.483  0.6111  0.7049 -0.0560
12671SOL    HW142698   6.980   4.861   5.496  0.4440  0.7964  1.5965
12671SOL    HW242699   6.843   4.870   5.433  0.8445 -0.2088  0.5371
12672SOL     OW42700  10.990   5.135  10.568  0.5722 -0.2354  0.3321
12672SOL    HW142701  11.076   5.153  10.530 -0.1643  1.3968 -0.6701
12672SOL    HW242702  10.935   5.114  10.492 -0.2857  0.3727  0.7777
12673SOL     OW42703   7.398   1.544   8.097 -0.4868  0.4221  0.3572
12673SOL    HW142704   7.389   1.639   8.087 -0.8060  0.4609  0.9994
12673SOL    HW242705   7.385   1.528   8.190 -0.0198 -0.2110  0.3207
12674SOL     OW42706   1.609   8.885   7.318 -0.4468  0.6350 -0.7594
12674SOL    HW142707   1.634   8.798   7.287 -1.1999 -0.1286  0.7108
12674SOL    HW242708   1.556   8.921   7.247  0.1962  0.0771 -1.5480
12675SOL     OW42709   1.587   4.756   9.885 -0.4136 -0.0702 -0.3248
12675SOL    HW142710   1.505   4.726   9.845  0.4199 -1.3498 -1.1488
12675SOL    HW242711   1.655   4.723   9.827  0.6878  1.3354  0.1139
12676SOL     OW42712   5.879   8.984   7.725 -0.2651  0.2496  0.0956
12676SOL    HW142713   5.816   8.995   7.653  0.4278  0.2384 -0.5258
12676SOL    HW242714   5.956   9.033   7.696  0.4122 -0.6451  0.3506
12677SOL     OW42715   9.239   9.637   5.612  0.2460  0.2457  0.4628
12677SOL    HW142716   9.238   9.661   5.520 -1.0394 -0.4582  0.2695
12677SOL    HW242717   9.332   9.637   5.636  0.5197  1.6857 -0.4747
12678SOL     OW42718  11.650   7.251   5.993 -0.4115  0.2238 -0.1752
12678SOL    HW142719  11.561   7.218   6.004  0.0112 -0.0717  3.5059
12678SOL    HW242720  11.650   7.335   6.038  0.8381  0.9711 -1.4797
12679SOL     OW42721  11.451   4.012   6.359 -0.3776  0.4215 -0.0738
12679SOL    HW142722  11.463   4.076   6.429  0.6799  0.5690 -0.3825
12679SOL    HW242723  11.444   4.064   6.279  1.5816  0.1355 -0.4652
12680SOL     OW42724   1.108   2.885   4.911  0.2688 -0.2010 -0.2943
12680SOL    HW142725   1.091   2.791   4.903  0.8025 -0.1798 -2.1011
12680SOL    HW242726   1.021   2.925   4.908  0.0636 -0.6037  0.1018
12681SOL     OW42727   9.080   7.842   7.557 -0.3195 -0.6333 -0.5161
12681SOL    HW142728   9.084   7.795   7.474  0.6055 -1.1656 -0.1910
12681SOL    HW242729   9.079   7.773   7.624 -1.3009 -0.2167 -0.0848
12682SOL     OW42730   6.324   5.435   1.812  0.5731  0.4597  0.4434
12682SOL    HW142731   6.271   5.499   1.861 -1.1547 -0.3016 -0.3443
12682SOL    HW242732   6.276   5.353   1.822  1.5401 -0.2269 -0.4626
12683SOL     OW42733  11.184   6.642   7.666 -0.2811  0.2416 -0.0130
12683SOL    HW142734  11.203   6.554   7.698 -0.3872  0.6062  1.0948
12683SOL    HW242735  11.089   6.646   7.664 -0.2847  0.6185  0.7764
12684SOL     OW42736   2.892   2.896   4.609 -0.0999  0.1720  0.2353
12684SOL    HW142737   2.960   2.928   4.551 -0.4195 -1.5355 -1.1966
12684SOL    HW242738   2.930   2.817   4.650  0.0310  1.1959  2.2267
12685SOL     OW42739   7.897  10.742   8.693  0.5217  0.2421 -0.3328
12685SOL    HW142740   7.957  10.795   8.640  1.9286  0.5452  1.4781
12685SOL    HW242741   7.863  10.803   8.759 -0.6286 -0.2982 -0.3992
12686SOL     OW42742   3.923   0.993   7.524  0.1398  0.1631 -0.3130
12686SOL    HW142743   3.980   0.965   7.452 -0.0990 -1.3531  0.0441
12686SOL    HW242744   3.900   0.911   7.569 -0.3695  1.0024  0.9950
12687SOL     OW42745   9.749   3.094   7.435  0.1428  0.7136 -0.3353
12687SOL    HW142746   9.722   3.010   7.399 -0.4093  0.9363 -0.4570
12687SOL    HW242747   9.807   3.072   7.508  1.0341  0.2624 -1.1720
12688SOL     OW42748  11.478   8.324   6.028  0.3109  0.0318 -0.2097
12688SOL    HW142749  11.562   8.294   5.996  0.7078 -0.7405  1.4320
12688SOL    HW242750  11.416   8.255   6.004  0.3134  0.1828 -0.6469
12689SOL     OW42751   4.865   4.624   9.290 -0.2525 -0.4867 -0.1120
12689SOL    HW142752   4.807   4.566   9.240  0.7163 -1.4461 -0.1401
12689SOL    HW242753   4.819   4.638   9.372 -0.0161 -2.2062  0.3543
12690SOL     OW42754   4.531  10.318   0.596 -0.4032  0.5081 -0.8731
12690SOL    HW142755   4.614  10.298   0.553 -0.0907 -2.7494  0.9638
12690SOL    HW242756   4.472  10.249   0.568 -0.7685 -0.5728  2.2102
12691SOL     OW42757   7.370   3.002   5.405  0.8180 -0.0927  0.2286
12691SOL    HW142758   7.393   3.086   5.366  2.9095  0.3727  2.2368
12691SOL    HW242759   7.431   2.939   5.365 -2.2061 -1.3180 -3.0219
12692SOL     OW42760   0.659   0.264   5.033 -0.4505 -0.5354  0.1615
12692SOL    HW142761   0.742   0.308   5.054 -0.3482 -0.6309 -0.0403
12692SOL    HW242762   0.597   0.297   5.098  0.1739 -1.8074  1.4749
12693SOL     OW42763   2.961   6.856   3.143  0.0345  0.4797 -0.1360
12693SOL    HW142764   2.892   6.800   3.106 -0.9277  1.6298 -0.1361
12693SOL    HW242765   2.981   6.816   3.228 -0.8506  0.2968 -0.0004
12694SOL     OW42766   1.851   5.097   3.060  0.4918 -0.2542 -0.3062
12694SOL    HW142767   1.760   5.069   3.050 -0.0327  1.5509 -1.0822
12694SOL    HW242768   1.872   5.081   3.152 -0.9282  0.1789  0.1136
12695SOL     OW42769  11.755   8.231   8.100  0.3791  0.6367  0.1508
12695SOL    HW142770  11.695   8.262   8.167  1.0133 -2.0010  2.0875
12695SOL    HW242771  11.839   8.224   8.144  0.6367 -2.0083 -0.5891
12696SOL     OW42772   9.638  11.464   6.787  0.3358 -0.6541  0.2233
12696SOL    HW142773   9.595  11.421   6.861  0.3661 -1.6811 -0.3314
12696SOL    HW242774   9.575  11.529   6.757 -1.8103 -3.3952 -1.7855
12697SOL     OW42775   7.508   0.666  11.886  0.0178 -0.0345 -0.0520
12697SOL    HW142776   7.577   0.604  11.863  0.2923 -0.2516  1.2822
12697SOL    HW242777   7.428   0.614  11.883  0.1934 -0.3548  0.6192
12698SOL     OW42778   5.770   4.806   2.332  0.2000  0.1461  0.0032
12698SOL    HW142779   5.759   4.895   2.365 -0.9354  0.8948 -2.2324
12698SOL    HW242780   5.852   4.775   2.373  0.9556  2.4289  0.3240
12699SOL     OW42781  10.616   0.780   6.623 -0.4123 -0.3848  0.1762
12699SOL    HW142782  10.531   0.781   6.580  0.0929  0.5678 -0.8623
12699SOL    HW242783  10.625   0.692   6.659 -2.1926 -0.2404  1.0618
12700SOL     OW42784   1.153   1.677   7.926  0.0482 -0.7560 -0.8107
12700SOL    HW142785   1.185   1.766   7.910 -0.6345 -0.2302  0.6782
12700SOL    HW242786   1.232   1.622   7.918  0.4934 -0.0282 -1.6292
12701SOL     OW42787   6.978   5.357   1.609 -0.3305  0.1409 -0.1468
12701SOL    HW142788   7.043   5.329   1.674  0.2966  0.9343 -0.4078
12701SOL    HW242789   6.936   5.433   1.650  0.3947  0.9369 -0.8400
12702SOL     OW42790   5.882   1.995   6.767  0.6004 -0.4726 -0.4702
12702SOL    HW142791   5.820   2.019   6.836  1.5976 -0.2496  0.3722
12702SOL    HW242792   5.846   2.035   6.688 -0.2600 -0.2333  0.0280
12703SOL     OW42793   4.928  11.850   9.134 -0.3034 -0.2082 -0.8252
12703SOL    HW142794   4.918  11.755   9.136  0.8906 -0.3447 -0.4341
12703SOL    HW242795   4.938  11.871   9.041 -1.1413 -0.3831 -0.9650
12704SOL     OW42796   2.102   0.364   9.091 -0.0036 -0.3552  0.5985
12704SOL    HW142797   2.049   0.418   9.150 -2.0221 -0.1168 -1.3093
12704SOL    HW242798   2.042   0.298   9.057  0.8406 -0.0415 -1.7238
12705SOL     OW42799   0.170   3.162   1.241  0.0828 -0.3361  0.4175
12705SOL    HW142800   0.083   3.123   1.243 -0.5784  1.0555  2.2923
12705SOL    HW242801   0.153   3.256   1.228  1.5003 -0.3452 -2.0478
12706SOL     OW42802   5.483   3.345   4.140 -0.1989 -0.1778  0.3729
12706SOL    HW142803   5.572   3.362   4.171  0.1959 -0.2036 -0.6947
12706SOL    HW242804   5.485   3.371   4.047 -1.1901 -0.5699  0.2343
12707SOL     OW42805   3.236   0.287   9.627 -0.5043 -0.2759 -0.2885
12707SOL    HW142806   3.175   0.252   9.563 -1.4756 -1.1220  1.0569
12707SOL    HW242807   3.181   0.321   9.697  0.5373 -0.7870  0.8146
12708SOL     OW42808   2.844  11.059   9.164 -0.5891 -0.5178  0.3539
12708SOL    HW142809   2.897  11.103   9.097 -1.3591 -0.7846 -0.4516
12708SOL    HW242810   2.754  11.077   9.139 -0.8949 -0.0384  1.7413
12709SOL     OW42811  10.887   6.446   0.135  0.0589  0.5634  0.2001
12709SOL    HW142812  10.970   6.466   0.179  0.9663  1.2797 -1.7401
12709SOL    HW242813  10.824   6.506   0.175  0.7830  0.9837  0.7351
12710SOL     OW42814   3.210  10.235   2.574  0.6180 -0.5135 -0.0090
12710SOL    HW142815   3.292  10.273   2.543  0.0717  0.8286  0.1195
12710SOL    HW242816   3.220  10.227   2.668  0.2605  0.5864  0.1392
12711SOL     OW42817  11.388   6.487   0.359 -0.1778 -0.3776 -0.3540
12711SOL    HW142818  11.456   6.511   0.296 -0.2846  1.2029  0.0915
12711SOL    HW242819  11.422   6.517   0.443 -0.6015 -1.2994  0.1489
12712SOL     OW42820   6.916   1.504   9.020 -0.1609  0.2922 -0.6507
12712SOL    HW142821   6.827   1.484   9.048 -0.0037 -0.3817 -0.6259
12712SOL    HW242822   6.969   1.491   9.099  0.0221  0.2598 -0.7791
12713SOL     OW42823   3.962   7.611   4.175  0.0937 -0.1739 -0.0336
12713SOL    HW142824   3.885   7.555   4.166  0.5398 -1.1946  1.9412
12713SOL    HW242825   4.022   7.580   4.107  1.4977 -4.2221  2.7288
12714SOL     OW42826   2.755   9.225   1.009 -0.0930  0.2588 -0.6693
12714SOL    HW142827   2.805   9.200   0.932  0.5899  0.9468 -0.4503
12714SOL    HW242828   2.692   9.290   0.978 -1.6987 -1.4437 -1.1876
12715SOL     OW42829   1.387  11.355   2.366 -0.2012  0.1367  0.4747
12715SOL    HW142830   1.355  11.280   2.416  0.7632 -0.1963  0.6217
12715SOL    HW242831   1.354  11.340   2.277  1.5325 -1.5023  0.0384
12716SOL     OW42832   4.774   8.357  10.737  0.4339  0.3947 -0.3813
12716SOL    HW142833   4.778   8.422  10.808  2.3513 -0.8227  0.7260
12716SOL    HW242834   4.860   8.362  10.695  0.1272 -0.4697 -1.1400
12717SOL     OW42835   2.709   7.018  11.864  0.2344  0.2563  0.8284
12717SOL    HW142836   2.801   7.006  11.842  0.0732  1.7781 -0.9219
12717SOL    HW242837   2.697   6.969  11.945  2.3064 -0.8820  0.5108
12718SOL     OW42838   5.947   9.830   1.398  0.5072  0.2018  0.4482
12718SOL    HW142839   5.884   9.877   1.452  0.2690 -0.5823  0.8817
12718SOL    HW242840   6.003   9.785   1.462 -0.0123 -1.0460  0.0582
12719SOL     OW42841  10.379   4.254   7.057 -0.8147 -0.1155 -0.0894
12719SOL    HW142842  10.401   4.310   7.131  0.8145  1.0182 -1.3459
12719SOL    HW242843  10.375   4.165   7.093 -1.3696  0.5473  1.5572
12720SOL     OW42844   4.088   4.765  10.340  1.2254 -0.2277  0.1536
12720SOL    HW142845   4.141   4.841  10.363  0.9827  0.1977 -0.6614
12720SOL    HW242846   4.031   4.796  10.269 -0.7773 -0.3948  1.6073
12721SOL     OW42847   4.510   6.079  10.848  0.0532  0.2658  0.3248
12721SOL    HW142848   4.585   6.024  10.869  1.0446  2.0744  1.8419
12721SOL    HW242849   4.468   6.097  10.932  0.0610  2.1855 -0.0336
12722SOL     OW42850  11.429   3.797   1.361  0.2326 -0.6332 -0.0712
12722SOL    HW142851  11.342   3.798   1.319  0.5849 -0.0722 -0.8235
12722SOL    HW242852  11.412   3.766   1.450 -0.5375 -1.9034 -0.6295
12723SOL     OW42853   4.980   6.740   3.286 -0.1855  0.1216 -0.1583
12723SOL    HW142854   5.066   6.765   3.319 -0.3805 -1.1546  1.4655
12723SOL    HW242855   4.943   6.821   3.250  1.6091  0.7151 -0.7565
12724SOL     OW42856   7.043   8.705   6.895  0.3960 -0.1401 -0.1542
12724SOL    HW142857   7.120   8.738   6.849  0.4471  2.1355  1.4315
12724SOL    HW242858   7.072   8.692   6.985 -1.3302  2.0708  0.8136
12725SOL     OW42859   5.460   1.460   5.194  0.0151 -0.0028  0.2555
12725SOL    HW142860   5.555   1.471   5.201  0.2945 -1.1415 -1.2674
12725SOL    HW242861   5.431   1.536   5.143  0.0178  0.5945  1.1192
12726SOL     OW42862   6.644   3.356  11.436 -0.1713 -0.1423  0.1530
12726SOL    HW142863   6.695   3.297  11.382 -0.6927 -0.3100 -0.1686
12726SOL    HW242864   6.559   3.362  11.392 -0.3159  0.3997  0.4848
12727SOL     OW42865   4.854   6.160   7.584  0.4694  0.4938 -0.2714
12727SOL    HW142866   4.837   6.156   7.678 -2.3157 -1.0700 -0.7297
12727SOL    HW242867   4.774   6.127   7.543  2.2213 -0.6347 -3.1692
12728SOL     OW42868  10.931   9.880   1.127 -0.2457  0.1391  0.1819
12728SOL    HW142869  10.938   9.922   1.212  0.0727  1.2304 -0.3611
12728SOL    HW242870  10.844   9.904   1.095 -0.3507 -0.2383  0.1778
12729SOL     OW42871   6.994  10.187   6.959 -0.2472 -0.2992 -0.6844
12729SOL    HW142872   7.018  10.253   6.894 -0.6589 -0.8442 -1.4055
12729SOL    HW242873   6.903  10.208   6.982 -0.0528 -0.0119 -0.1534
12730SOL     OW42874   7.193   1.975   2.722  0.1576 -0.2111 -0.2491
12730SOL    HW142875   7.256   2.047   2.714  0.4853 -0.3193  1.0677
12730SOL    HW242876   7.225   1.923   2.796 -1.9148  0.2084  1.0229
12731SOL     OW42877   6.184   3.561   1.719 -0.0715 -0.1578 -0.0488
12731SOL    HW142878   6.150   3.650   1.713  2.7794  0.9957 -1.1797
12731SOL    HW242879   6.231   3.559   1.802 -0.6113 -0.8253  0.2472
12732SOL     OW42880   9.430   2.495   0.745 -0.3317 -0.4122 -0.2883
12732SOL    HW142881   9.352   2.467   0.792  0.2705 -2.2484 -0.2940
12732SOL    HW242882   9.503   2.470   0.802  0.2880  0.9437 -0.4393
12733SOL     OW42883   9.989   9.302   6.351 -0.1365  0.3260  0.0371
12733SOL    HW142884   9.910   9.253   6.327  0.7955 -0.1918 -2.2298
12733SOL    HW242885  10.060   9.257   6.306  1.5055  0.7527  2.0574
12734SOL     OW42886   8.747   7.493  11.898  0.6016 -0.2517  0.0986
12734SOL    HW142887   8.659   7.487  11.935 -0.5955  1.3613 -2.2190
12734SOL    HW242888   8.783   7.573  11.934  0.7879 -0.4764  0.4099
12735SOL     OW42889   9.500   2.511   5.059 -0.3207  0.3337  0.3605
12735SOL    HW142890   9.432   2.494   4.994 -0.6657  0.4729  0.6870
12735SOL    HW242891   9.476   2.457   5.134 -0.2484  0.6254  0.5966
12736SOL     OW42892  11.546   2.835   7.616 -0.4676  0.6004  0.1720
12736SOL    HW142893  11.623   2.844   7.560 -1.0541 -2.3910 -1.3692
12736SOL    HW242894  11.558   2.901   7.685  2.9980  0.8596 -0.4779
12737SOL     OW42895  11.528   6.632   3.274  0.0187  0.3533  0.3403
12737SOL    HW142896  11.447   6.680   3.259  0.0336  0.4449  0.5458
12737SOL    HW242897  11.502   6.540   3.273 -0.2760  0.4069  1.4347
12738SOL     OW42898   9.132   1.093  10.512  0.3929  0.0927 -0.0189
12738SOL    HW142899   9.086   1.010  10.525  0.3788  0.2877  1.3166
12738SOL    HW242900   9.211   1.085  10.564  0.1042  1.1411  0.6066
12739SOL     OW42901   5.362   5.555   9.594 -0.4008  0.4351  0.3153
12739SOL    HW142902   5.453   5.566   9.621 -0.2519 -1.0427  0.4945
12739SOL    HW242903   5.333   5.475   9.638 -1.9042  1.0704  0.5368
12740SOL     OW42904   0.155   2.393   5.442 -0.0413  0.0524 -0.6701
12740SOL    HW142905   0.166   2.488   5.450  0.9559 -0.0828 -0.2978
12740SOL    HW242906   0.175   2.374   5.351 -0.2491  0.1920 -0.7474
12741SOL     OW42907   2.044   5.422   2.226  0.2197  0.1304  0.4489
12741SOL    HW142908   2.114   5.430   2.160 -0.3673  2.0607  0.0065
12741SOL    HW242909   1.986   5.355   2.190  1.0823 -0.4905  0.1497
12742SOL     OW42910   8.685   8.033   3.447 -0.3835  0.1390 -0.2923
12742SOL    HW142911   8.719   8.080   3.524 -2.0023  1.4254 -0.2999
12742SOL    HW242912   8.700   8.093   3.374 -2.1784  0.5699 -0.3574
12743SOL     OW42913  10.516   7.633  10.892  0.5051 -0.3947  0.6596
12743SOL    HW142914  10.521   7.549  10.937 -1.5185 -0.2888  1.1770
12743SOL    HW242915  10.457   7.618  10.819  0.7512  0.3785  0.2889
12744SOL     OW42916   6.121   1.584  10.581  0.2933 -0.0679  0.0774
12744SOL    HW142917   6.168   1.586  10.498 -0.3753  0.5245 -0.2995
12744SOL    HW242918   6.076   1.499  10.581  1.1151 -0.5144  0.3109
12745SOL     OW42919   6.746   5.003   6.464  0.1453  0.5098 -0.5066
12745SOL    HW142920   6.797   4.946   6.522 -2.6754 -1.6531  0.0412
12745SOL    HW242921   6.739   5.086   6.511  1.4608  0.2141  0.2589
12746SOL     OW42922   9.766  11.302  11.067 -0.2204 -0.0906 -0.1645
12746SOL    HW142923   9.846  11.345  11.100 -0.4018  0.5667 -0.5509
12746SOL    HW242924   9.787  11.281  10.976 -0.5303  0.1965 -0.3024
12747SOL     OW42925  11.371   5.085   2.821 -0.2116  0.3205  1.1898
12747SOL    HW142926  11.377   5.076   2.726  1.0810  0.1058  1.2784
12747SOL    HW242927  11.292   5.036   2.845  1.0004 -2.0904  0.5346
12748SOL     OW42928   0.996   0.251  10.177  0.3102 -0.1728  0.4035
12748SOL    HW142929   1.018   0.228  10.267 -0.1008 -0.5825  0.3987
12748SOL    HW242930   1.016   0.173  10.126  0.1954 -0.0640  0.1895
12749SOL     OW42931   0.860   9.962   9.150  0.4718  0.0990 -0.1010
12749SOL    HW142932   0.949   9.957   9.116  1.0004  2.4602  0.7250
12749SOL    HW242933   0.816  10.025   9.094 -0.4291 -0.3993  0.0305
12750SOL     OW42934  10.908   2.923   4.492  0.5843  0.0250  0.4345
12750SOL    HW142935  10.932   2.859   4.424  0.7342  1.1236 -0.5807
12750SOL    HW242936  10.872   2.997   4.443 -2.9579 -0.6371  1.7266
12751SOL     OW42937   3.263   1.707   9.129 -0.0193 -0.4597 -0.2137
12751SOL    HW142938   3.288   1.792   9.167 -1.3242  0.1311 -0.6299
12751SOL    HW242939   3.268   1.721   9.035  0.7128 -1.1615 -0.2888
12752SOL     OW42940   3.839   5.228   8.700 -0.0441  0.4581 -0.5091
12752SOL    HW142941   3.873   5.317   8.709 -0.9715  1.0728 -2.4953
12752SOL    HW242942   3.747   5.241   8.676 -0.4181 -1.0627  0.0330
12753SOL     OW42943   1.867   1.574   7.915 -0.6183  0.2493 -0.4051
12753SOL    HW142944   1.788   1.605   7.958  1.2132  3.9620  0.7396
12753SOL    HW242945   1.859   1.605   7.824 -1.1504 -0.8035 -0.7248
12754SOL     OW42946   9.917   0.702   2.798 -0.3500  0.0925  0.3299
12754SOL    HW142947   9.884   0.710   2.708  3.4159 -1.2603 -1.3891
12754SOL    HW242948   9.942   0.791   2.822  0.6729  0.1640 -0.9062
12755SOL     OW42949   9.670   8.943   7.167 -0.0866  0.2300  0.5663
12755SOL    HW142950   9.704   8.862   7.205  0.6014  0.7792  1.1566
12755SOL    HW242951   9.587   8.958   7.212  0.8184  0.9854  2.0691
12756SOL     OW42952   5.977   7.420   4.481  0.2087  0.5793  0.5140
12756SOL    HW142953   5.958   7.442   4.390 -0.7651  0.3958  0.6593
12756SOL    HW242954   5.998   7.503   4.523  0.2767  0.7162  0.2055
12757SOL     OW42955   8.771   3.910   7.998  0.3333 -0.1538 -0.1985
12757SOL    HW142956   8.772   3.997   7.957 -0.0673  0.5390  1.2032
12757SOL    HW242957   8.679   3.887   8.002  0.3596 -0.1668  0.3911
12758SOL     OW42958   8.770  11.917   3.577  0.2125  0.2153  0.0094
12758SOL    HW142959   8.746  11.858   3.505  1.3255 -0.2750  0.0292
12758SOL    HW242960   8.777  12.003   3.535 -0.3836  0.1644 -0.2164
12759SOL     OW42961   3.276  11.195   7.039  0.1503 -0.4322  0.3543
12759SOL    HW142962   3.357  11.226   7.081  0.6926  0.1366 -1.0723
12759SOL    HW242963   3.305  11.129   6.977 -0.3558  0.4862 -0.8888
12760SOL     OW42964   5.982   2.419   9.027 -0.7431 -0.6136  0.1527
12760SOL    HW142965   5.943   2.401   9.113 -0.6196 -1.0288  0.1231
12760SOL    HW242966   6.075   2.401   9.039 -0.7487 -0.8072 -0.1107
12761SOL     OW42967   6.250   2.401   9.046  0.1312 -0.3766 -0.0058
12761SOL    HW142968   6.313   2.415   8.975 -0.0509  1.3249  0.1078
12761SOL    HW242969   6.278   2.320   9.088  2.8172  0.7552  0.5999
12762SOL     OW42970   4.389   2.499   6.167 -0.3026  0.0150 -0.1770
12762SOL    HW142971   4.383   2.550   6.248 -0.2793  0.4156 -0.4258
12762SOL    HW242972   4.480   2.507   6.140 -0.3688  0.0875 -0.3772
12763SOL     OW42973   4.348   4.443   8.006 -0.2215 -0.2700 -0.1867
12763SOL    HW142974   4.423   4.459   8.062 -1.0597 -0.1988  0.9437
12763SOL    HW242975   4.294   4.380   8.054 -1.4327  0.5261 -0.4600
12764SOL     OW42976  10.541   5.449  11.894  0.0222 -0.4609 -0.4207
12764SOL    HW142977  10.518   5.486  11.809  0.1097  0.0461 -0.2276
12764SOL    HW242978  10.636   5.441  11.893 -0.0670 -1.6338 -0.8433
12765SOL     OW42979   2.508  10.814   3.342 -0.6823 -0.1770 -0.2874
12765SOL    HW142980   2.443  10.750   3.315 -0.1553 -0.1877 -1.6018
12765SOL    HW242981   2.526  10.866   3.263  1.6522 -0.8527 -0.2863
12766SOL     OW42982   5.609   8.258   3.286 -0.7060 -0.1855  0.5854
12766SOL    HW142983   5.642   8.168   3.284  0.8578  0.3618 -0.8776
12766SOL    HW242984   5.546   8.263   3.214  0.4359  0.2691 -0.4281
12767SOL     OW42985   1.050   8.024   3.487  0.1216 -0.1446  0.0853
12767SOL    HW142986   1.064   8.050   3.396  2.1734  1.3569  0.7439
12767SOL    HW242987   0.986   8.088   3.520  2.2002  1.7663  0.6359
12768SOL     OW42988   2.940   7.261   3.874 -0.6089  0.3432 -0.3988
12768SOL    HW142989   2.884   7.339   3.867  0.1579  0.9182 -0.3301
12768SOL    HW242990   3.013   7.278   3.814 -0.6568 -0.5347 -0.7241
12769SOL     OW42991   6.870   0.135   0.050 -0.2305 -0.2100  0.2854
12769SOL    HW142992   6.908   0.148   0.137  1.9624 -0.3420 -0.5774
12769SOL    HW242993   6.867   0.223   0.012 -1.5939 -0.0924  0.6098
12770SOL     OW42994   0.995  10.830   5.730  0.5324  0.0889  0.5601
12770SOL    HW142995   1.081  10.828   5.772  0.2789 -0.5003  1.0688
12770SOL    HW242996   0.943  10.765   5.778 -0.3838  0.8627  0.6612
12771SOL     OW42997   4.508   1.183   1.111 -0.0074 -0.3824  0.2707
12771SOL    HW142998   4.583   1.180   1.053 -0.2940  1.0058 -0.1948
12771SOL    HW242999   4.436   1.214   1.056 -0.2616  1.0687  1.3527
12772SOL     OW43000   2.190  10.051   4.543 -0.6088  0.3712  0.3346
12772SOL    HW143001   2.193   9.965   4.501  3.2385  0.1229  0.6898
12772SOL    HW243002   2.181  10.113   4.471  0.5156 -0.2566 -0.3825
12773SOL     OW43003  11.485   4.717  11.283  0.2327  0.4527 -0.0157
12773SOL    HW143004  11.504   4.729  11.376  0.5209 -2.2052  0.3512
12773SOL    HW243005  11.569   4.691  11.244 -0.4895 -1.6224 -0.3266
12774SOL     OW43006   4.082   8.603   2.719 -0.3206  0.0726  0.0467
12774SOL    HW143007   4.023   8.677   2.706 -0.6263  0.1225  1.5854
12774SOL    HW243008   4.107   8.608   2.811 -1.4677 -2.5345  0.5989
12775SOL     OW43009  11.523   2.892   3.864  0.0743 -0.0040 -0.1041
12775SOL    HW143010  11.601   2.945   3.883 -0.6996  1.3817 -0.5896
12775SOL    HW243011  11.468   2.951   3.812 -2.1759 -0.2037  1.9309
12776SOL     OW43012   6.426  11.688   9.791 -0.1091  0.0246  0.5017
12776SOL    HW143013   6.438  11.594   9.779  1.8640  0.4384 -1.1384
12776SOL    HW243014   6.412  11.722   9.702 -2.1213  1.1659  1.1847
12777SOL     OW43015   5.557   7.647   2.485  0.1109 -0.1331  0.3957
12777SOL    HW143016   5.625   7.708   2.456  0.8681 -0.3976  1.5233
12777SOL    HW243017   5.543   7.589   2.411  0.5203  0.4338 -0.1381
12778SOL     OW43018   1.259   0.268   1.235 -0.4860 -0.2582  0.5568
12778SOL    HW143019   1.171   0.297   1.209 -1.1332 -0.2024  2.6509
12778SOL    HW243020   1.310   0.349   1.239  0.0554 -0.3899 -1.7516
12779SOL     OW43021   6.404   6.985   5.323 -0.2865  0.7307  0.3321
12779SOL    HW143022   6.333   7.049   5.323 -0.3787  0.6801 -1.8115
12779SOL    HW243023   6.435   6.983   5.233  1.8646  0.0891  1.0321
12780SOL     OW43024   4.747  10.466   9.108  0.9390  0.0012 -0.0177
12780SOL    HW143025   4.737  10.545   9.160  1.0912  0.4486 -0.6548
12780SOL    HW243026   4.784  10.496   9.025  0.1807 -0.6143 -0.6013
12781SOL     OW43027  10.948   4.215   0.674  0.3300 -0.2681 -0.4434
12781SOL    HW143028  11.000   4.253   0.745  0.9487  0.2141 -1.1346
12781SOL    HW243029  10.990   4.131   0.656  0.6786 -0.0223 -0.7868
12782SOL     OW43030   4.257   6.221   9.423  0.4464  0.3766  0.1780
12782SOL    HW143031   4.291   6.298   9.467  0.8591 -1.5225  3.4939
12782SOL    HW243032   4.330   6.159   9.422  0.0108 -0.2028 -1.9854
12783SOL     OW43033   9.343   7.323   9.745 -0.3586  0.0499 -0.1499
12783SOL    HW143034   9.287   7.390   9.705 -1.0848 -1.0884 -1.1543
12783SOL    HW243035   9.406   7.301   9.676  0.3075  0.1865  0.4115
12784SOL     OW43036   5.265   2.279   6.165 -0.4446 -0.7417  0.0916
12784SOL    HW143037   5.329   2.350   6.167 -0.4481 -0.7508  0.8321
12784SOL    HW243038   5.299   2.214   6.227  0.2119 -1.9727 -1.4891
12785SOL     OW43039   4.307   6.678   8.572 -0.1627  0.1425 -0.6537
12785SOL    HW143040   4.356   6.706   8.650  1.1439 -2.4926 -0.4401
12785SOL    HW243041   4.217   6.707   8.590  0.0795 -0.4106  1.8837
12786SOL     OW43042   1.279   4.552   5.785 -0.4351 -0.1314  0.1099
12786SOL    HW143043   1.307   4.461   5.775 -1.8464 -0.7552  1.3099
12786SOL    HW243044   1.250   4.557   5.876  0.3501  1.7556  0.2878
12787SOL     OW43045   7.969   4.508   0.719  0.0633  0.5192  0.1469
12787SOL    HW143046   7.988   4.552   0.636 -1.7935 -0.1837 -0.7127
12787SOL    HW243047   8.055   4.494   0.759  0.9303  1.7921 -1.1655
12788SOL     OW43048   0.635   8.609   4.077 -0.0925 -0.3711 -0.3399
12788SOL    HW143049   0.718   8.608   4.124 -0.3686 -2.6711  0.2391
12788SOL    HW243050   0.573   8.570   4.137 -1.0142 -1.0671 -1.6831
12789SOL     OW43051   4.372   9.255   0.032  0.0330  0.5283 -0.7525
12789SOL    HW143052   4.393   9.332  -0.021 -0.5568  1.0662 -0.2179
12789SOL    HW243053   4.280   9.237   0.013  0.0088  0.3099 -0.4361
12790SOL     OW43054   0.116   9.606   5.048 -0.0975 -0.2190 -0.1414
12790SOL    HW143055   0.187   9.636   5.104 -0.9023 -0.4721  1.0634
12790SOL    HW243056   0.036   9.636   5.092 -0.8945 -2.8945  0.4053
12791SOL     OW43057   3.056  10.349   6.874 -0.9957 -0.2920 -0.2326
12791SOL    HW143058   3.010  10.420   6.919  3.0179  1.6788  1.2346
12791SOL    HW243059   3.086  10.389   6.792  0.2218 -0.6403  0.0233
12792SOL     OW43060   3.194   9.791   4.651  0.4130 -0.0148  1.1252
12792SOL    HW143061   3.163   9.718   4.705 -2.0316  1.0883  1.3322
12792SOL    HW243062   3.117   9.821   4.604  2.0854  0.1968 -1.7359
12793SOL     OW43063   9.677  10.851   7.609  0.4149  0.6683 -0.1985
12793SOL    HW143064   9.628  10.806   7.541 -0.7760 -1.2725  1.8094
12793SOL    HW243065   9.630  10.933   7.623 -1.2896 -0.3879  0.4977
12794SOL     OW43066   0.436   4.655   5.049 -0.3400  0.0177 -0.4063
12794SOL    HW143067   0.403   4.565   5.047 -0.7213  0.1693 -1.2630
12794SOL    HW243068   0.436   4.678   5.142  2.2983 -1.7797  0.1788
12795SOL     OW43069   5.678   5.309   1.743 -0.1855 -0.2817 -0.0268
12795SOL    HW143070   5.668   5.221   1.780  1.7566 -0.2310  0.7566
12795SOL    HW243071   5.771   5.328   1.752 -0.5830  1.9282 -0.0710
12796SOL     OW43072   9.574   2.370  10.303 -0.4548  0.4287  0.0817
12796SOL    HW143073   9.528   2.348  10.223  0.5965  0.4720 -0.5533
12796SOL    HW243074   9.616   2.289  10.330  0.6634  0.8186 -0.4151
12797SOL     OW43075   5.607  11.633  11.688  0.1696 -0.2291  0.4285
12797SOL    HW143076   5.629  11.605  11.777  1.0195  0.0184  0.3051
12797SOL    HW243077   5.675  11.696  11.665  0.0366 -0.3944 -0.4496
12798SOL     OW43078   4.392   2.395  10.899  0.5009 -0.1766  0.3771
12798SOL    HW143079   4.331   2.462  10.928  0.3608  0.1203 -0.5833
12798SOL    HW243080   4.387   2.396  10.804  0.3148 -1.7198  0.3373
12799SOL     OW43081   1.351  10.956   9.027 -0.6205 -0.3016  0.5722
12799SOL    HW143082   1.394  10.954   8.941 -0.0329 -1.2423  0.8712
12799SOL    HW243083   1.268  10.911   9.013 -1.0611  0.5910  0.2355
12800SOL     OW43084   6.189   2.914   8.175 -0.3812  0.2423  0.3308
12800SOL    HW143085   6.238   2.912   8.257 -1.3672 -0.9342  0.9354
12800SOL    HW243086   6.103   2.950   8.200 -0.2515  1.1223 -0.4587
12801SOL     OW43087  10.333   2.478   2.280  0.4329  0.4047  0.2674
12801SOL    HW143088  10.342   2.402   2.339  0.6973  0.1954 -0.0433
12801SOL    HW243089  10.265   2.531   2.322 -1.6856 -1.2617 -0.8182
12802SOL     OW43090   6.301   9.043   3.197 -0.1636 -0.7320  0.0103
12802SOL    HW143091   6.313   8.982   3.270  1.0414  0.4191  0.8384
12802SOL    HW243092   6.350   9.121   3.224  2.0217 -0.9374 -2.8417
12803SOL     OW43093   0.889   1.540   1.157 -0.3910 -0.2165  0.3022
12803SOL    HW143094   0.953   1.475   1.188  2.2950 -0.1201 -4.1301
12803SOL    HW243095   0.923   1.624   1.187  0.4500 -0.3360 -0.2871
12804SOL     OW43096   9.601   0.793   7.890 -0.2418 -0.2008 -0.0511
12804SOL    HW143097   9.690   0.824   7.904  0.1970 -2.0648  1.7779
12804SOL    HW243098   9.604   0.747   7.807  1.5465 -3.3511  1.5760
12805SOL     OW43099   1.344   0.047   4.942 -0.0750  0.1609  0.2460
12805SOL    HW143100   1.421   0.094   4.972 -1.4255  0.3525  3.8645
12805SOL    HW243101   1.289   0.114   4.902  1.5316  0.0022 -2.4740
12806SOL     OW43102   0.265   6.377   8.409  0.2894 -0.0633 -0.2066
12806SOL    HW143103   0.360   6.383   8.401  0.2003  0.6989 -0.8026
12806SOL    HW243104   0.246   6.419   8.493  0.5879 -1.5372  0.6436
12807SOL     OW43105   8.129  11.785   8.974 -0.0328 -0.8776  0.2657
12807SOL    HW143106   8.162  11.713   8.921 -3.0974 -2.1695 -0.0601
12807SOL    HW243107   8.049  11.813   8.930  1.1318  3.0241  0.2172
12808SOL     OW43108   5.316   6.840   0.300 -0.7067 -0.1775  0.3374
12808SOL    HW143109   5.309   6.927   0.340  0.8471 -0.3880  1.1507
12808SOL    HW243110   5.309   6.780   0.374 -0.5576 -0.6876 -0.0602
12809SOL     OW43111   9.923   4.552   8.790 -0.0558  0.1665 -0.3966
12809SOL    HW143112   9.897   4.639   8.818 -0.3455 -0.1224  0.2515
12809SOL    HW243113   9.903   4.549   8.697 -1.5207  0.2596 -0.1034
12810SOL     OW43114   3.470   9.206  10.630  0.2901  0.0805  0.0617
12810SOL    HW143115   3.547   9.237  10.582 -0.8371 -0.6553 -2.3895
12810SOL    HW243116   3.487   9.229  10.721  3.2594  0.1806 -0.4474
12811SOL     OW43117  10.893   9.314   3.861 -0.1729 -0.5107 -0.2173
12811SOL    HW143118  10.957   9.355   3.804  0.1173 -2.5329 -1.4630
12811SOL    HW243119  10.866   9.383   3.922  0.6159  1.3220 -1.8473
12812SOL     OW43120   9.249   9.785   2.162  0.0370 -0.7801  0.9884
12812SOL    HW143121   9.166   9.746   2.189 -0.8096 -0.8457 -1.4036
12812SOL    HW243122   9.268   9.742   2.078  1.7660  0.2580  0.8176
12813SOL     OW43123   5.124   9.801   9.329  0.4159 -0.6949 -0.1880
12813SOL    HW143124   5.065   9.830   9.259  1.3223  1.2727 -0.2148
12813SOL    HW243125   5.208   9.844   9.309  0.7805 -0.3134  1.9282
12814SOL     OW43126   5.297  10.754   3.350 -0.6753 -0.5396  0.0526
12814SOL    HW143127   5.222  10.701   3.376 -1.9539  0.8803 -0.5514
12814SOL    HW243128   5.318  10.807   3.427 -1.0409 -0.1297 -0.1238
12815SOL     OW43129   9.645   6.041  10.401 -0.7990 -0.5186  0.3927
12815SOL    HW143130   9.588   5.965  10.397 -1.0699 -0.3306  0.6487
12815SOL    HW243131   9.704   6.023  10.474  0.7878 -1.6152 -1.0690
12816SOL     OW43132   6.526  10.855  11.879  0.3580 -0.2175 -0.6776
12816SOL    HW143133   6.504  10.926  11.818 -0.3474 -1.5598 -2.0245
12816SOL    HW243134   6.557  10.784  11.823  0.7525 -1.1081  0.6315
12817SOL     OW43135   3.966   7.796  10.809 -0.1483  0.6814 -0.1802
12817SOL    HW143136   4.055   7.765  10.794 -0.4719 -0.7346  0.6716
12817SOL    HW243137   3.974   7.892  10.812  1.1625  0.6200 -1.1383
12818SOL     OW43138   4.579   3.955   0.980  0.0182  0.2125  0.0104
12818SOL    HW143139   4.525   3.876   0.971 -0.9894  0.9380 -0.5438
12818SOL    HW243140   4.632   3.956   0.900 -0.0651  0.1641 -0.0465
12819SOL     OW43141   8.114  10.643   5.966  0.4124  0.0707  0.6989
12819SOL    HW143142   8.167  10.676   6.039  0.8013  1.0662 -0.0106
12819SOL    HW243143   8.025  10.640   6.001  0.6726  0.0252  1.3824
12820SOL     OW43144   4.497   6.548   2.328 -0.3023 -0.1199 -0.4082
12820SOL    HW143145   4.563   6.519   2.265 -0.4414  1.2259 -1.2066
12820SOL    HW243146   4.520   6.502   2.409  1.1742 -0.2324 -0.8600
12821SOL     OW43147   6.650   6.442  11.528 -0.0595  0.1610  0.9851
12821SOL    HW143148   6.720   6.448  11.463  1.2793  0.7270  2.4128
12821SOL    HW243149   6.597   6.368  11.499  1.9260 -1.1771  0.5770
12822SOL     OW43150   8.523   5.498   4.443  0.0530  0.2001 -0.9550
12822SOL    HW143151   8.582   5.506   4.368 -1.3808  0.9917 -2.0625
12822SOL    HW243152   8.485   5.586   4.453  1.7120  0.7105  2.0636
12823SOL     OW43153   3.879   2.333   9.117 -0.3384 -0.5085  0.8792
12823SOL    HW143154   3.865   2.422   9.083 -0.8441 -0.6001  0.8329
12823SOL    HW243155   3.822   2.329   9.194  0.1162 -0.6039  1.2113
12824SOL     OW43156  10.387   3.653   3.972  0.5682  0.3019 -0.0602
12824SOL    HW143157  10.376   3.708   4.050 -0.2830  0.5492 -0.3443
12824SOL    HW243158  10.442   3.706   3.914 -0.6493  1.1022 -0.5348
12825SOL     OW43159   6.259   2.745   1.545  0.2528 -0.2306  0.6214
12825SOL    HW143160   6.217   2.765   1.461  1.2785  0.1078  0.1795
12825SOL    HW243161   6.190   2.701   1.595 -0.5764  0.1303 -0.1531
12826SOL     OW43162  10.348  10.109  10.444  0.2673  0.5050  0.4882
12826SOL    HW143163  10.288  10.162  10.497 -0.1180 -1.5788  2.2957
12826SOL    HW243164  10.426  10.099  10.499  0.3003 -0.8113  0.2499
12827SOL     OW43165  10.387   0.442   7.365  0.8846 -0.3052  0.2672
12827SOL    HW143166  10.435   0.360   7.371  2.5609  0.6121  0.2167
12827SOL    HW243167  10.365   0.464   7.455  0.4652 -0.7935  0.2826
12828SOL     OW43168   7.006   4.535   8.336 -0.5001  0.3207  0.2334
12828SOL    HW143169   7.038   4.559   8.423 -0.0864 -0.8588  0.4146
12828SOL    HW243170   7.082   4.546   8.279  0.0363 -1.6221  0.5152
12829SOL     OW43171   0.328   0.343   9.655  0.6480 -0.3307 -0.1642
12829SOL    HW143172   0.244   0.298   9.667 -0.5094  1.6185 -0.5848
12829SOL    HW243173   0.338   0.351   9.561 -0.6510  2.7638 -0.1550
12830SOL     OW43174   5.160   9.352   2.983  0.1189  0.1578  0.5148
12830SOL    HW143175   5.246   9.393   2.994  0.6119 -0.3145 -1.3197
12830SOL    HW243176   5.180   9.259   2.970 -0.6880  0.0375  0.1124
12831SOL     OW43177   4.132   1.024   2.133 -0.3715  0.0297  0.6665
12831SOL    HW143178   4.093   1.097   2.085  1.2318 -0.0424 -0.8497
12831SOL    HW243179   4.079   0.948   2.108 -0.3075  0.2083 -0.0286
12832SOL     OW43180   8.296   3.746   7.207 -0.2163  0.0753  0.7296
12832SOL    HW143181   8.312   3.834   7.174  1.1773 -0.8297 -1.2079
12832SOL    HW243182   8.382   3.707   7.216 -0.8465 -1.8022 -0.6547
12833SOL     OW43183   9.443   8.824   4.318  0.2510 -0.0816  0.1910
12833SOL    HW143184   9.464   8.856   4.230 -0.1302  2.4805  0.9513
12833SOL    HW243185   9.348   8.814   4.318 -0.1411  2.7573  1.0704
12834SOL     OW43186   0.688   7.209   9.378 -0.9457 -0.0762  0.4917
12834SOL    HW143187   0.764   7.153   9.394 -1.5498 -0.6286  1.5582
12834SOL    HW243188   0.703   7.246   9.291  0.8945  0.4156  0.9829
12835SOL     OW43189   6.337  10.011   0.929  0.6493  0.2828 -0.2557
12835SOL    HW143190   6.326   9.938   0.868  0.6137 -0.5050  0.6652
12835SOL    HW243191   6.277  10.078   0.897 -0.1739 -0.5284 -0.4779
12836SOL     OW43192  11.094  10.797   2.913  0.2632 -0.1809  0.3345
12836SOL    HW143193  11.109  10.876   2.861  0.7537 -0.9649 -0.7479
12836SOL    HW243194  11.181  10.768   2.939 -0.0236  0.9412  2.8069
12837SOL     OW43195   0.113   3.790   6.394  0.7126 -0.6372  0.1177
12837SOL    HW143196   0.102   3.719   6.331  1.9223 -0.9143  0.1859
12837SOL    HW243197   0.120   3.746   6.479 -0.8593 -0.2723  0.4640
12838SOL     OW43198   0.763   1.143   7.190 -0.6978  0.0267  0.3957
12838SOL    HW143199   0.668   1.142   7.199 -0.8005  2.9834  0.5970
12838SOL    HW243200   0.796   1.136   7.279 -0.3226 -5.8969  0.2409
12839SOL     OW43201   3.104   5.416   7.009  0.1358 -0.1794 -0.1789
12839SOL    HW143202   3.114   5.397   7.102 -0.0550 -0.9208 -0.3089
12839SOL    HW243203   3.070   5.506   7.007  1.5856  0.4065  0.4159
12840SOL     OW43204   8.071   4.985   3.393  0.0706  0.2342 -0.1642
12840SOL    HW143205   8.119   4.905   3.369  0.7898 -0.1935  2.4413
12840SOL    HW243206   7.984   4.955   3.417  0.0517  0.3525 -0.0837
12841SOL     OW43207   2.208   7.665   0.898  0.7383 -0.6348 -0.4142
12841SOL    HW143208   2.231   7.573   0.886  0.4696 -0.5239 -1.9354
12841SOL    HW243209   2.197   7.699   0.809 -0.6394  0.4967  0.1578
12842SOL     OW43210   4.427  10.997  11.766 -0.7093  0.2571  0.3401
12842SOL    HW143211   4.355  11.021  11.824 -1.4495 -0.3080 -0.3402
12842SOL    HW243212   4.504  10.994  11.824 -1.4335 -0.3240  1.2990
12843SOL     OW43213   9.427   9.773  11.685 -0.1238  0.5869 -0.0114
12843SOL    HW143214   9.359   9.841  11.691  1.8493  2.6434  0.9211
12843SOL    HW243215   9.467   9.773  11.772  0.7155 -0.9533 -0.3740
12844SOL     OW43216   8.163  10.905   9.234 -0.0020  0.5802 -0.5001
12844SOL    HW143217   8.096  10.963   9.197  1.0081  1.4393 -1.0441
12844SOL    HW243218   8.165  10.926   9.327 -0.2164  0.8385 -0.5548
12845SOL     OW43219   6.630   0.737   0.655 -0.6929  0.0998  0.0674
12845SOL    HW143220   6.667   0.806   0.600  0.3637 -1.1806 -0.9132
12845SOL    HW243221   6.654   0.656   0.610 -3.6703 -0.8850  0.0165
12846SOL     OW43222   3.199   2.014   9.593  0.2275 -0.1808  0.2843
12846SOL    HW143223   3.127   2.071   9.567  1.8396  1.5274 -0.6760
12846SOL    HW243224   3.216   2.037   9.684 -1.1101 -1.3941  0.8760
12847SOL     OW43225   1.822   9.972   3.818  0.0681  0.4900  0.0702
12847SOL    HW143226   1.822  10.060   3.783  0.7575  0.6053  0.3338
12847SOL    HW243227   1.758   9.924   3.765 -0.0341  1.0496 -0.3151
12848SOL     OW43228   2.136   7.490   3.026  0.3026 -0.0227  0.2763
12848SOL    HW143229   2.152   7.468   3.118  3.4897 -0.7257 -0.3338
12848SOL    HW243230   2.147   7.407   2.979 -2.1136  0.1489 -0.7386
12849SOL     OW43231   5.113  10.247   1.707  0.1573  0.0224  0.1471
12849SOL    HW143232   5.095  10.331   1.749 -0.7403 -0.3322  0.5051
12849SOL    HW243233   5.036  10.194   1.727  1.0144 -1.1218  0.5367
12850SOL     OW43234   6.443   8.674   7.113 -0.1029  0.1692 -0.7605
12850SOL    HW143235   6.469   8.750   7.166 -0.8920  0.5312 -0.8820
12850SOL    HW243236   6.420   8.712   7.028  0.0450 -0.2812 -1.0028
12851SOL     OW43237   8.766  11.047   4.803  0.0164  0.2226 -0.1802
12851SOL    HW143238   8.766  10.951   4.806  0.2063  0.1912 -1.0476
12851SOL    HW243239   8.700  11.069   4.737  0.1978  0.6823 -0.2124
12852SOL     OW43240   0.346   8.465   2.655 -0.0150  0.2364  0.4630
12852SOL    HW143241   0.333   8.556   2.683  1.5526  0.3595  0.8932
12852SOL    HW243242   0.405   8.428   2.721  0.8658 -0.5295 -0.7054
12853SOL     OW43243   8.061   9.904   4.439  0.7205 -0.1272  0.0917
12853SOL    HW143244   8.103   9.818   4.446  0.0433 -0.4231  0.6439
12853SOL    HW243245   8.126   9.965   4.473  1.2121 -0.4152 -0.3146
12854SOL     OW43246   6.667  11.217  10.870  0.0896 -0.1192 -0.1525
12854SOL    HW143247   6.708  11.272  10.803  0.5993 -0.3867 -0.0611
12854SOL    HW243248   6.620  11.279  10.926  0.5651  0.2115 -0.1196
12855SOL     OW43249   1.690  10.196  11.928  0.2254 -0.3425 -0.3632
12855SOL    HW143250   1.769  10.239  11.959 -1.2457  0.4692  2.5940
12855SOL    HW243251   1.630  10.267  11.906 -1.6792 -0.6873  3.0966
12856SOL     OW43252   6.499   9.580   6.995  0.1369 -0.3308  0.3609
12856SOL    HW143253   6.485   9.501   7.046  0.8424 -1.0759 -0.5662
12856SOL    HW243254   6.567   9.628   7.043 -1.0331  0.2685  1.4949
12857SOL     OW43255   8.250   8.131   9.394  0.3965 -0.5881  0.6985
12857SOL    HW143256   8.284   8.123   9.483 -0.8657  0.6500  1.3356
12857SOL    HW243257   8.161   8.095   9.399 -0.2536  0.8932  0.3534
12858SOL     OW43258  11.681   1.130   1.828 -0.2010  0.1823  0.7839
12858SOL    HW143259  11.692   1.210   1.778 -0.0784  0.3671  1.1077
12858SOL    HW243260  11.646   1.158   1.912 -0.9951 -0.1782  0.5933
12859SOL     OW43261  11.028  11.678   9.320  0.2553 -0.2043 -0.2698
12859SOL    HW143262  10.986  11.597   9.291  2.2181 -1.0763 -0.8323
12859SOL    HW243263  11.004  11.743   9.254 -3.1266  0.3478  1.2946
12860SOL     OW43264   0.857   3.002   8.797  0.2059  0.7933 -0.0968
12860SOL    HW143265   0.832   3.087   8.761  2.3722  0.3059 -3.1833
12860SOL    HW243266   0.882   2.950   8.720  2.1552 -1.5181  1.9323
12861SOL     OW43267   6.418   8.426   3.116 -0.1800 -0.1653 -0.1928
12861SOL    HW143268   6.423   8.502   3.058  0.2017  0.3263  0.4636
12861SOL    HW243269   6.329   8.393   3.105 -0.4713  0.6111 -0.2044
12862SOL     OW43270   5.528   1.849  11.659 -0.0686 -0.4190 -0.0989
12862SOL    HW143271   5.596   1.855  11.592  0.5502  0.8934  0.6004
12862SOL    HW243272   5.523   1.938  11.696 -0.6665 -1.0016  1.3061
12863SOL     OW43273  10.826  10.407   7.297 -0.1817 -0.0665  0.4180
12863SOL    HW143274  10.865  10.427   7.382 -1.5001  1.7366  0.6861
12863SOL    HW243275  10.732  10.396   7.316 -0.2592 -1.3315 -0.5747
12864SOL     OW43276  10.861   9.305   4.980 -0.0139  0.0155 -0.3747
12864SOL    HW143277  10.793   9.241   5.000 -0.7374  0.9886  0.4360
12864SOL    HW243278  10.915   9.307   5.060 -0.5342  1.0470 -0.0361
12865SOL     OW43279   3.448   3.147   0.520 -0.0364 -0.0322 -0.1469
12865SOL    HW143280   3.353   3.142   0.503  0.1099  0.3264 -1.1302
12865SOL    HW243281   3.488   3.145   0.433  0.9964 -2.4185  0.3219
12866SOL     OW43282   5.307  10.907   7.971 -0.3988 -0.3134 -0.0282
12866SOL    HW143283   5.296  10.820   7.933 -2.8013 -0.3007  0.4810
12866SOL    HW243284   5.221  10.928   8.009  0.6698  1.4586  1.6095
12867SOL     OW43285  11.381  11.106   7.067 -0.2469 -0.0197  0.1038
12867SOL    HW143286  11.444  11.165   7.107 -1.3706  1.3540 -0.0591
12867SOL    HW243287  11.334  11.160   7.004 -0.9257 -1.2473 -0.4891
12868SOL     OW43288   0.262   2.468   5.195  0.7602 -0.1002 -0.1213
12868SOL    HW143289   0.304   2.552   5.181  0.4025  0.0856 -0.0778
12868SOL    HW243290   0.172   2.480   5.166  1.0483 -0.8615 -1.4513
12869SOL     OW43291   5.673   3.238   5.995 -0.4695  0.2457 -0.0738
12869SOL    HW143292   5.764   3.219   5.970 -0.6697 -0.6990 -0.0892
12869SOL    HW243293   5.675   3.241   6.091  0.0096  2.4580 -0.0878
12870SOL     OW43294  11.216   3.297   8.407 -0.3316 -0.5192 -0.1204
12870SOL    HW143295  11.212   3.244   8.328 -2.2610 -0.2910 -0.2163
12870SOL    HW243296  11.126   3.300   8.439  0.3382 -0.2830  1.8798
12871SOL     OW43297   2.519   5.769   5.801  0.4135 -0.3455 -0.2009
12871SOL    HW143298   2.463   5.827   5.749 -0.6702 -1.8567 -0.8153
12871SOL    HW243299   2.469   5.754   5.881 -0.0701 -1.6378 -0.7149
12872SOL     OW43300  11.898   2.869   7.655 -0.2263  0.4521 -0.0828
12872SOL    HW143301  11.915   2.954   7.697  1.8411  0.1644 -0.2148
12872SOL    HW243302  11.909   2.886   7.562  2.4486 -0.3394  0.0100
12873SOL     OW43303   4.910   6.900   2.435  0.3985  0.3593  0.5758
12873SOL    HW143304   4.942   6.901   2.345  0.5527  1.3557  0.6287
12873SOL    HW243305   4.821   6.936   2.429  0.3058  0.1645  0.7847
12874SOL     OW43306   9.277  10.765   6.694 -0.2638 -0.6636  0.3056
12874SOL    HW143307   9.190  10.763   6.654 -0.4146 -1.3789  0.6558
12874SOL    HW243308   9.260  10.757   6.788  0.1256  0.3431  0.4741
12875SOL     OW43309   3.245  11.392   5.910 -0.4054 -0.3461 -0.3380
12875SOL    HW143310   3.305  11.450   5.958 -0.7691  1.0553 -1.4883
12875SOL    HW243311   3.296  11.314   5.891  0.2663 -0.2149  0.8231
12876SOL     OW43312   5.486   0.617   7.641 -0.1085 -0.4708 -0.1434
12876SOL    HW143313   5.559   0.598   7.583  0.1931 -1.5723  0.5943
12876SOL    HW243314   5.416   0.646   7.582 -0.2079 -2.7368 -1.2057
12877SOL     OW43315   1.497  10.275   0.902 -0.4422  0.3129  0.0119
12877SOL    HW143316   1.510  10.287   0.996 -1.3803  2.3326 -0.0578
12877SOL    HW243317   1.547  10.346   0.862 -3.6556  2.3810 -0.6984
12878SOL     OW43318   5.517   4.362   7.621 -0.2728 -0.3777 -0.3289
12878SOL    HW143319   5.489   4.275   7.649  1.0605 -0.8045 -0.2544
12878SOL    HW243320   5.450   4.391   7.559 -0.8161 -1.3894 -0.2183
12879SOL     OW43321  10.975   6.915  11.386 -0.0429 -0.0919  0.5038
12879SOL    HW143322  10.928   6.912  11.470 -0.1960  0.4692  0.4411
12879SOL    HW243323  10.936   6.988  11.339  1.5502  1.0580  0.8554
12880SOL     OW43324   6.636   8.331   6.853  0.0983  1.0386  1.0017
12880SOL    HW143325   6.643   8.400   6.788  1.8513  0.3544  0.4169
12880SOL    HW243326   6.575   8.366   6.918 -2.0126  1.5945 -1.1407
12881SOL     OW43327   6.632   9.626   5.592  0.2927 -0.0312 -0.0167
12881SOL    HW143328   6.552   9.581   5.565 -0.3391  0.5672  0.8241
12881SOL    HW243329   6.630   9.624   5.688  1.7665 -0.8499  0.0321
12882SOL     OW43330   1.024   0.605  11.419  0.2853  0.5536  0.7013
12882SOL    HW143331   1.085   0.677  11.412  1.4757 -0.5415 -1.2073
12882SOL    HW243332   1.072   0.535  11.463 -0.4974  0.5566  1.5930
12883SOL     OW43333  10.320   5.922   0.316 -0.2193 -0.2530 -0.1722
12883SOL    HW143334  10.255   5.993   0.319 -1.7054 -1.4791 -1.5551
12883SOL    HW243335  10.270   5.843   0.336  0.9296 -1.2100 -0.9646
12884SOL     OW43336   8.103   5.619   2.385  0.0779  0.0444  0.1517
12884SOL    HW143337   8.132   5.531   2.359 -1.4944 -0.6033  0.5190
12884SOL    HW243338   8.038   5.644   2.320  1.8271  1.7658 -1.0381
12885SOL     OW43339   5.163   5.518   7.846  0.7733 -0.2289  0.3015
12885SOL    HW143340   5.159   5.435   7.893  0.6398 -0.5190 -0.2142
12885SOL    HW243341   5.256   5.538   7.840  0.7591  0.3292  1.5712
12886SOL     OW43342   1.953   3.870   6.035 -0.3438  0.7080  0.1905
12886SOL    HW143343   1.888   3.801   6.024 -0.2332  0.6155  0.1125
12886SOL    HW243344   2.037   3.824   6.035 -0.1786  0.9586 -1.1622
12887SOL     OW43345   8.646   7.068   0.143  0.2831  0.5102  0.0809
12887SOL    HW143346   8.712   7.041   0.207 -0.0092  0.8551  0.5353
12887SOL    HW243347   8.692   7.127   0.084  0.4726  0.4446  0.1624
12888SOL     OW43348  11.088   1.261   2.531 -0.0134 -0.6507  0.7239
12888SOL    HW143349  11.178   1.276   2.559 -0.7073  0.2127  2.6510
12888SOL    HW243350  11.075   1.323   2.458  0.0402  1.5572  2.4808
12889SOL     OW43351   5.114   0.814   2.538 -0.0027 -0.3815  0.2457
12889SOL    HW143352   5.151   0.886   2.589  1.4050 -1.6809  1.1404
12889SOL    HW243353   5.149   0.735   2.580 -1.4595 -1.5855 -0.7384
12890SOL     OW43354   8.067   5.320   1.528  0.6047 -0.1431  0.3581
12890SOL    HW143355   8.116   5.261   1.470  0.7914 -1.6906  2.0314
12890SOL    HW243356   8.111   5.314   1.612 -0.4141  1.1038  1.0193
12891SOL     OW43357   6.559   6.212   9.201  0.2580  0.0314  0.6659
12891SOL    HW143358   6.638   6.235   9.250  0.8180  0.7590 -0.5554
12891SOL    HW243359   6.589   6.150   9.134  0.0980  1.4691 -0.7751
12892SOL     OW43360   9.067   5.680   4.969 -0.1963 -0.2722  0.3542
12892SOL    HW143361   9.116   5.758   4.942 -2.7201  0.8192 -1.5411
12892SOL    HW243362   9.070   5.623   4.892 -1.0957 -0.5565  0.5183
12893SOL     OW43363   6.610   4.328  11.257  0.1055 -0.2227 -0.2717
12893SOL    HW143364   6.597   4.423  11.261  0.8372 -0.1318  0.1448
12893SOL    HW243365   6.698   4.317  11.221 -0.1395 -0.7579 -0.7296
12894SOL     OW43366   8.900   3.108   7.491  0.2082 -0.5764  0.1604
12894SOL    HW143367   8.808   3.108   7.518  0.5631 -0.5587  1.4479
12894SOL    HW243368   8.902   3.162   7.412 -0.7504  0.2169  0.6538
12895SOL     OW43369  10.022   4.906   0.653 -0.0158 -0.0899 -0.5248
12895SOL    HW143370  10.018   4.826   0.601  0.5833  0.3729 -1.3116
12895SOL    HW243371   9.991   4.974   0.593  0.2039  0.3768 -0.1120
12896SOL     OW43372   9.784   3.188   2.002  0.1966 -0.3083 -0.6254
12896SOL    HW143373   9.711   3.167   1.943  1.6073  0.3011 -2.7092
12896SOL    HW243374   9.861   3.153   1.957  1.3959  0.5790  0.6688
12897SOL     OW43375   7.985   5.565   1.358  0.4033 -0.7620  0.3046
12897SOL    HW143376   7.911   5.529   1.310  0.1088 -0.1216  0.2605
12897SOL    HW243377   8.024   5.490   1.403 -1.6134 -0.8241  2.1288
12898SOL     OW43378   3.979   6.221   3.428 -0.0373  1.0235  0.4735
12898SOL    HW143379   4.034   6.294   3.459  0.5189  0.5743  0.5522
12898SOL    HW243380   4.010   6.202   3.340  0.4489  0.2736  0.7960
12899SOL     OW43381   7.416   4.197   0.339  0.1085 -0.4723 -0.6867
12899SOL    HW143382   7.369   4.278   0.316  1.5500  0.5836 -0.0236
12899SOL    HW243383   7.496   4.200   0.286 -0.2282 -1.9348 -1.3268
12900SOL     OW43384  11.795   2.458   2.524  0.3000  0.0487 -0.2377
12900SOL    HW143385  11.756   2.443   2.610  0.6386  2.4002  0.3921
12900SOL    HW243386  11.719   2.469   2.465  0.0633 -0.3149 -0.0053
12901SOL     OW43387   7.471   2.587   0.882  0.0249 -0.1505 -0.0925
12901SOL    HW143388   7.482   2.682   0.888 -2.9594  0.2924 -0.1867
12901SOL    HW243389   7.496   2.554   0.968  1.1170  0.6951 -0.0687
12902SOL     OW43390  10.969   5.432   3.322  0.3985 -0.3697  0.0191
12902SOL    HW143391  10.975   5.446   3.227  0.9699 -2.3349 -0.2911
12902SOL    HW243392  10.883   5.467   3.346  0.8949  1.6263 -0.8953
12903SOL     OW43393   8.836   2.289   1.937  0.1559 -0.0121 -0.1307
12903SOL    HW143394   8.765   2.349   1.913 -0.6293 -0.4864  0.9359
12903SOL    HW243395   8.843   2.230   1.861 -1.6032 -0.8612  0.3061
12904SOL     OW43396   1.492   5.552   8.307  0.3430 -0.7441 -0.2813
12904SOL    HW143397   1.432   5.621   8.334 -0.7517 -2.0441  0.7280
12904SOL    HW243398   1.556   5.546   8.378  0.2621 -0.9654 -0.2270
12905SOL     OW43399  10.090  11.376   0.126  0.3488 -0.4849 -0.7408
12905SOL    HW143400  10.040  11.454   0.103 -0.2792 -0.6883 -0.0909
12905SOL    HW243401  10.144  11.404   0.201  1.0971 -0.3149 -1.3271
12906SOL     OW43402   1.434   3.608   2.242  0.7880 -0.1304 -0.2170
12906SOL    HW143403   1.493   3.604   2.167 -0.0344 -4.9451 -0.9239
12906SOL    HW243404   1.418   3.517   2.265 -3.0751  0.9931  2.6155
12907SOL     OW43405  11.319   5.398   1.656 -0.4547  0.8124  0.2086
12907SOL    HW143406  11.376   5.374   1.583 -0.7916  0.4920  0.0451
12907SOL    HW243407  11.282   5.483   1.631 -0.2237  0.9150  0.2136
12908SOL     OW43408   1.425   7.461   6.170 -0.0464  0.0493  0.2004
12908SOL    HW143409   1.430   7.369   6.146 -1.5738  0.4507 -1.9042
12908SOL    HW243410   1.485   7.505   6.110 -0.6838  0.6160 -0.0377
12909SOL     OW43411  10.288   2.335  10.063 -0.3619  0.5377  0.3379
12909SOL    HW143412  10.222   2.363  10.000 -0.1702  0.3728  0.0589
12909SOL    HW243413  10.250   2.354  10.148 -1.5438 -1.2302  0.2431
12910SOL     OW43414  10.063   0.154   1.217 -0.2261  0.1701 -0.1501
12910SOL    HW143415  10.148   0.124   1.249 -0.0779  1.7390  1.0642
12910SOL    HW243416  10.008   0.160   1.295 -1.0293  0.4847 -0.7238
12911SOL     OW43417   7.875   9.107   9.478  0.2448  0.2752  0.6886
12911SOL    HW143418   7.833   9.114   9.393 -0.9881  0.3212  1.2752
12911SOL    HW243419   7.952   9.163   9.472 -1.3982  2.6547  0.5125
12912SOL     OW43420  10.482   1.185   4.995 -0.0869  0.0311  0.2943
12912SOL    HW143421  10.489   1.210   4.902 -0.7396 -2.9755 -0.6693
12912SOL    HW243422  10.388   1.177   5.010  0.0515 -0.3168  0.9736
12913SOL     OW43423   0.955   1.688   6.191 -0.2527  1.2127  0.5782
12913SOL    HW143424   0.978   1.595   6.188  0.9987  1.5072  0.6101
12913SOL    HW243425   0.933   1.711   6.101 -0.3696  0.9433  0.5372
12914SOL     OW43426   7.112   5.125   5.484 -0.5093 -0.3041  0.2150
12914SOL    HW143427   7.034   5.070   5.472 -0.2214 -0.6646 -0.0174
12914SOL    HW243428   7.185   5.065   5.475 -0.1365  0.3280 -1.4126
12915SOL     OW43429   2.999   3.897   0.063 -0.0661  0.1694  0.6572
12915SOL    HW143430   3.033   3.830   0.003  0.4983  0.8397  0.2104
12915SOL    HW243431   3.060   3.896   0.136  1.2639  1.6877 -0.3513
12916SOL     OW43432   6.151  11.768   1.715  0.9222 -0.0363  0.0217
12916SOL    HW143433   6.091  11.824   1.764 -2.3578 -1.3686 -2.1324
12916SOL    HW243434   6.161  11.811   1.630  0.1606 -1.4846 -0.8560
12917SOL     OW43435   9.894   4.792   0.115 -1.2123  0.1147  0.4133
12917SOL    HW143436   9.873   4.810   0.207 -1.0659 -0.1467  0.5004
12917SOL    HW243437   9.853   4.706   0.099 -1.5724  0.3401  0.1215
12918SOL     OW43438   2.126   2.019   0.789  0.3302  0.5549 -0.0307
12918SOL    HW143439   2.196   1.954   0.789 -0.5766 -0.5541  2.3052
12918SOL    HW243440   2.110   2.038   0.697  1.4230 -1.6546 -0.7408
12919SOL     OW43441   2.316   5.510   4.530  0.1933  0.1717 -0.5458
12919SOL    HW143442   2.265   5.434   4.558 -0.1291  0.1897 -1.0549
12919SOL    HW243443   2.407   5.483   4.538  0.0782 -0.3074 -0.8154
12920SOL     OW43444   6.364   1.516   1.917 -0.6678  0.3069 -0.1344
12920SOL    HW143445   6.393   1.600   1.952  1.4128 -0.5654  0.4507
12920SOL    HW243446   6.273   1.508   1.946 -0.8835  2.2798 -0.1140
12921SOL     OW43447   0.021   7.961   6.977  0.4650 -0.0771 -0.4607
12921SOL    HW143448  -0.018   7.874   6.971  1.7712 -0.5974 -2.1738
12921SOL    HW243449  -0.052   8.018   7.001 -0.5861 -1.5085 -0.0947
12922SOL     OW43450   7.044   1.026   1.854 -0.0189 -0.3669  0.1416
12922SOL    HW143451   7.029   0.932   1.864 -2.9053  0.0317  0.2829
12922SOL    HW243452   7.027   1.043   1.761  2.5815 -0.2240 -0.3953
12923SOL     OW43453   7.762   3.072   5.070 -0.2750 -0.0754 -0.3638
12923SOL    HW143454   7.794   3.162   5.061 -1.5310  0.5117  0.6736
12923SOL    HW243455   7.685   3.068   5.013  0.3586 -0.8244 -1.1973
12924SOL     OW43456   1.761   0.868   1.478  0.4245 -0.4883 -0.5425
12924SOL    HW143457   1.838   0.911   1.440  0.3890 -0.1423 -0.2381
12924SOL    HW243458   1.794   0.826   1.557  0.1180  0.5489  0.1657
12925SOL     OW43459  11.249   4.943   1.983  0.9094  0.1810 -0.1946
12925SOL    HW143460  11.156   4.953   1.965  0.9168 -1.0687 -1.0575
12925SOL    HW243461  11.276   5.027   2.021 -0.6895  0.3306  0.6729
12926SOL     OW43462   4.107   7.236  10.756 -0.1425  0.1393  0.0143
12926SOL    HW143463   4.086   7.236  10.663  1.2412 -0.1938 -0.3224
12926SOL    HW243464   4.202   7.225  10.759  0.0171  1.5205  1.4354
12927SOL     OW43465   1.499   3.842  10.415  0.4826 -0.0167  0.3072
12927SOL    HW143466   1.564   3.777  10.388  1.6678  1.3530 -0.2660
12927SOL    HW243467   1.453   3.801  10.488 -1.8825 -3.3296 -2.6867
12928SOL     OW43468   5.939   6.072   7.523  0.5051 -0.0805  0.0007
12928SOL    HW143469   5.970   6.102   7.438 -0.9089  0.9197 -0.2207
12928SOL    HW243470   5.942   5.977   7.519  0.9517 -0.0297 -0.9762
12929SOL     OW43471  10.538   4.465   9.370  0.4015 -0.5678  0.1572
12929SOL    HW143472  10.552   4.379   9.330 -0.7848 -0.6436 -0.1364
12929SOL    HW243473  10.567   4.527   9.304 -0.6451 -0.7129 -0.4548
12930SOL     OW43474   2.603   9.661   0.076  0.2606  0.2209 -0.1256
12930SOL    HW143475   2.613   9.637  -0.016  1.2725 -0.8564  0.2438
12930SOL    HW243476   2.558   9.746   0.073 -1.0908 -0.4817 -1.5597
12931SOL     OW43477  10.929   3.221   3.291 -0.1209  0.1580  0.1418
12931SOL    HW143478  10.882   3.141   3.265 -0.8534  0.8549 -0.7322
12931SOL    HW243479  11.016   3.190   3.315 -0.7745 -1.0772  1.0833
12932SOL     OW43480   2.197   9.042   2.321  0.1632 -0.0765 -0.3181
12932SOL    HW143481   2.217   9.130   2.291  0.7605 -0.1316 -0.0766
12932SOL    HW243482   2.267   8.988   2.285  0.1937 -0.3427  0.1376
12933SOL     OW43483   4.530   0.042   2.585 -0.3042  0.2534  0.4015
12933SOL    HW143484   4.536   0.025   2.678  0.4971 -1.6902  0.0384
12933SOL    HW243485   4.494  -0.038   2.547 -0.7957  1.0647 -0.9522
12934SOL     OW43486   7.216   6.566   7.830  0.0270 -0.5058 -0.0184
12934SOL    HW143487   7.294   6.614   7.801 -0.4895  1.6578  1.8957
12934SOL    HW243488   7.157   6.634   7.864 -2.2504 -2.1873 -0.3479
12935SOL     OW43489  10.105   7.765   2.088  0.0227 -0.1476 -0.2916
12935SOL    HW143490  10.159   7.694   2.053  0.5636  0.5527 -0.9112
12935SOL    HW243491  10.165   7.818   2.141 -0.1568  0.3805 -0.6076
12936SOL     OW43492   7.422   8.721  11.596 -0.3630 -0.4372 -0.0989
12936SOL    HW143493   7.407   8.737  11.689  2.4403 -1.3479  0.6067
12936SOL    HW243494   7.441   8.627  11.591  0.2472 -0.2692 -1.4556
12937SOL     OW43495   2.254   7.899   4.595 -0.1321  0.7381 -0.2967
12937SOL    HW143496   2.257   7.910   4.500 -2.0727  0.1000 -0.4593
12937SOL    HW243497   2.346   7.902   4.622  0.5313 -0.0640 -2.2934
12938SOL     OW43498   3.857   4.651   7.678 -0.4031 -0.8472  0.1742
12938SOL    HW143499   3.806   4.657   7.597 -0.2660 -0.3281  0.1212
12938SOL    HW243500   3.874   4.557   7.689 -1.4383 -1.0305  0.2453
12939SOL     OW43501   4.105  10.940   9.072 -0.4798 -0.7727 -0.1330
12939SOL    HW143502   4.023  10.904   9.106  0.5071 -1.9245  1.1646
12939SOL    HW243503   4.107  11.030   9.104 -1.4955 -0.5361 -0.6894
12940SOL     OW43504   0.898   1.778   5.933  0.1644  0.3655  0.9430
12940SOL    HW143505   0.851   1.746   5.855  1.4511 -1.4535  0.8539
12940SOL    HW243506   0.913   1.871   5.915 -2.4821  0.8100  0.5619
12941SOL     OW43507   4.702   0.256   1.291  0.3697  0.4710  0.1161
12941SOL    HW143508   4.730   0.323   1.228  2.1346  0.2745  0.6527
12941SOL    HW243509   4.687   0.178   1.238  1.0404  0.5311 -0.1716
12942SOL     OW43510   6.300   1.816   3.134  0.0739 -0.0417 -0.2708
12942SOL    HW143511   6.314   1.833   3.227 -2.1006  0.3784  0.0415
12942SOL    HW243512   6.290   1.902   3.095 -0.9453 -0.2452 -0.5091
12943SOL     OW43513   9.993   0.809   8.721 -0.7297  0.0119  0.0160
12943SOL    HW143514   9.939   0.740   8.759  0.4240 -0.9735 -0.0754
12943SOL    HW243515   9.954   0.827   8.636 -2.3029  1.0086  0.8993
12944SOL     OW43516   7.104   4.191   4.692 -0.1714 -0.3605 -0.1422
12944SOL    HW143517   7.106   4.103   4.655 -0.6688  0.5374 -2.4885
12944SOL    HW243518   7.013   4.205   4.717 -0.2783 -0.1687 -0.6458
12945SOL     OW43519   7.738   5.672   8.986 -0.1636 -0.2140  0.2946
12945SOL    HW143520   7.761   5.753   8.940  1.8847 -1.2008 -0.5328
12945SOL    HW243521   7.647   5.654   8.960  0.0733  0.6739 -1.2420
12946SOL     OW43522   7.428  10.716   5.937  0.0317 -0.0635 -0.7337
12946SOL    HW143523   7.496  10.650   5.953  0.9311  0.7375 -1.0991
12946SOL    HW243524   7.349  10.666   5.917  0.2702 -1.0352  0.6231
12947SOL     OW43525   1.996   1.742   0.871 -0.2485 -0.1695  0.2395
12947SOL    HW143526   1.959   1.794   0.800 -2.6167 -2.6928 -0.5824
12947SOL    HW243527   2.054   1.679   0.827  0.4828  0.0439  0.8822
12948SOL     OW43528   2.659   5.506   0.375  0.6309 -0.1296 -0.3993
12948SOL    HW143529   2.643   5.592   0.413 -0.5955 -0.3820 -0.3001
12948SOL    HW243530   2.720   5.522   0.302  0.1178  0.8737 -0.6210
12949SOL     OW43531   1.408   0.494   6.440  0.0234  0.5706 -0.1669
12949SOL    HW143532   1.392   0.566   6.501  2.2989 -0.2202  1.5118
12949SOL    HW243533   1.446   0.536   6.363  0.7194  1.2568  0.5289
12950SOL     OW43534   1.630  10.975   7.540  0.3783 -0.2528 -0.4613
12950SOL    HW143535   1.640  11.071   7.539 -0.1566 -0.1891 -0.0304
12950SOL    HW243536   1.658  10.948   7.452 -0.4667  0.4079 -0.9618
12951SOL     OW43537  11.848   6.755   3.699 -0.0747 -0.0261  0.2119
12951SOL    HW143538  11.806   6.806   3.768 -0.5907  1.9801 -1.4568
12951SOL    HW243539  11.899   6.820   3.649  0.2882 -1.3771 -1.2538
12952SOL     OW43540   0.903   7.460   1.477 -0.2380 -0.0440 -0.2409
12952SOL    HW143541   0.974   7.516   1.446 -0.0101  0.0419  0.4425
12952SOL    HW243542   0.889   7.485   1.568  0.2692 -1.4974  0.2650
12953SOL     OW43543   9.253   1.718   8.760  0.3212  0.1167 -0.2916
12953SOL    HW143544   9.281   1.705   8.850  1.0089  1.0360 -0.3509
12953SOL    HW243545   9.162   1.688   8.757  0.6436 -0.9820  0.4235
12954SOL     OW43546   2.882   4.151   0.038 -0.4506 -0.5717  0.2593
12954SOL    HW143547   2.974   4.172   0.024 -0.2060  0.4217  2.7266
12954SOL    HW243548   2.882   4.059   0.067  0.0427 -0.0484  2.0557
12955SOL     OW43549   9.811   7.861  11.326 -0.2482 -0.0437  0.1342
12955SOL    HW143550   9.789   7.876  11.418 -0.3103 -0.6537  0.2274
12955SOL    HW243551   9.906   7.854  11.325 -0.2467 -0.0285  0.1548
12956SOL     OW43552  10.458   8.002   4.439 -0.0793 -0.0890  0.3527
12956SOL    HW143553  10.484   7.992   4.531  1.3787 -1.4008 -0.1475
12956SOL    HW243554  10.385   7.941   4.428 -0.8166  0.6918  0.8245
12957SOL     OW43555   1.548  10.432   3.025 -0.1096 -0.3305 -0.4689
12957SOL    HW143556   1.522  10.351   3.068 -0.2159  0.2459  0.5884
12957SOL    HW243557   1.643  10.438   3.041 -0.4947  0.9852  1.6777
12958SOL     OW43558   7.069   8.930   0.095 -0.4873 -0.2470  0.2534
12958SOL    HW143559   7.161   8.948   0.115 -0.1751 -1.0161 -0.4452
12958SOL    HW243560   7.071   8.872   0.019 -1.5449 -0.5146  0.4071
12959SOL     OW43561  10.588  11.585   0.006 -0.2606 -0.0181  0.4019
12959SOL    HW143562  10.553  11.499  -0.018 -0.3612 -0.2443  1.3409
12959SOL    HW243563  10.667  11.566   0.055  1.3028  0.4915 -1.7691
12960SOL     OW43564   5.800   1.076  10.840 -0.7854  0.0932  0.1511
12960SOL    HW143565   5.847   1.099  10.760 -0.1785  0.5086  0.6222
12960SOL    HW243566   5.787   1.160  10.885 -0.0312 -0.2680  1.0775
12961SOL     OW43567   2.853  10.163   3.513 -0.2576  0.2434  0.7867
12961SOL    HW143568   2.817  10.160   3.425 -1.1859 -0.3365  1.1637
12961SOL    HW243569   2.826  10.079   3.552  2.4731 -0.7377  0.7455
12962SOL     OW43570  11.921  10.475   8.399 -0.5519 -0.2360 -0.3770
12962SOL    HW143571  11.932  10.544   8.465  0.1836 -1.5114  0.9027
12962SOL    HW243572  11.829  10.479   8.376 -0.9246  0.0127  1.0238
12963SOL     OW43573   7.298  11.576   6.067  0.3834  0.0263 -0.6001
12963SOL    HW143574   7.326  11.512   6.002  0.8663  0.9114 -1.2814
12963SOL    HW243575   7.375  11.631   6.081  1.3293 -1.9200  2.9965
12964SOL     OW43576   9.698   3.902   1.363  0.4919  0.4234  0.3791
12964SOL    HW143577   9.771   3.910   1.423  1.4043 -0.3751 -0.5879
12964SOL    HW243578   9.726   3.836   1.300 -0.3709  1.3245 -1.0036
12965SOL     OW43579   3.775   5.996  11.856  0.2574  0.0329  0.2889
12965SOL    HW143580   3.849   5.997  11.917  0.1781  0.0927  0.3835
12965SOL    HW243581   3.698   5.989  11.912  0.2426 -1.1433  0.1525
12966SOL     OW43582  11.157   8.394   0.472  0.0016  0.2226  0.0731
12966SOL    HW143583  11.202   8.367   0.392  0.7481  1.4479  0.0419
12966SOL    HW243584  11.199   8.343   0.541 -0.6195 -0.8122 -0.2936
12967SOL     OW43585  11.075   0.980   0.738 -0.1531 -0.1950  0.1425
12967SOL    HW143586  11.023   0.912   0.696 -1.4747  0.5558  0.5001
12967SOL    HW243587  11.151   0.933   0.773 -0.1879 -1.1968 -1.0527
12968SOL     OW43588   8.819   3.794   6.916  0.5934 -0.5800 -0.1680
12968SOL    HW143589   8.888   3.828   6.974  1.7020 -0.9364 -1.2369
12968SOL    HW243590   8.842   3.702   6.903 -0.6733 -0.9704  0.2647
12969SOL     OW43591   9.767   5.964   6.337 -0.4694  0.6286  0.0304
12969SOL    HW143592   9.693   6.024   6.324  0.3600  1.6398 -0.1198
12969SOL    HW243593   9.733   5.879   6.310 -2.2950  0.6133  2.0760
12970SOL     OW43594   6.505   8.157   2.271  0.0330  0.1606 -0.0751
12970SOL    HW143595   6.422   8.128   2.233  0.2546 -0.3050 -0.2092
12970SOL    HW243596   6.479   8.207   2.349 -0.3465 -0.9274  0.5113
12971SOL     OW43597  10.021   3.722   2.837 -0.1436 -0.2369  0.3495
12971SOL    HW143598  10.105   3.681   2.816  0.0486  0.4508 -0.2884
12971SOL    HW243599  10.019   3.725   2.932  1.3654  1.3185  0.3802
12972SOL     OW43600   4.302  11.369   0.021  0.2143  0.3725 -0.0943
12972SOL    HW143601   4.222  11.420   0.008  0.0077  0.2522  0.6537
12972SOL    HW243602   4.327  11.387   0.111 -0.9654 -2.3745  0.9080
12973SOL     OW43603   2.365   6.299   0.214 -0.2879 -0.2300 -0.5121
12973SOL    HW143604   2.314   6.227   0.250  0.9960 -0.0988  1.7308
12973SOL    HW243605   2.447   6.298   0.264  0.3924  1.8287 -1.4837
12974SOL     OW43606   8.406   4.671   9.227 -0.0823 -0.5367 -0.2838
12974SOL    HW143607   8.332   4.642   9.174 -0.7021  1.0623 -0.3658
12974SOL    HW243608   8.421   4.600   9.289 -0.9638 -1.3611 -0.9902
12975SOL     OW43609   6.491  10.685   0.623  0.1479 -0.1773  0.3900
12975SOL    HW143610   6.411  10.736   0.611 -1.8749 -2.8655  1.3486
12975SOL    HW243611   6.537  10.692   0.540 -1.6649  0.5402 -0.6060
12976SOL     OW43612   8.938   6.618   0.973  0.6181 -0.0193 -0.0570
12976SOL    HW143613   8.842   6.625   0.971  0.6499  0.3102 -0.6052
12976SOL    HW243614   8.968   6.708   0.980  0.8619 -0.2155  2.6876
12977SOL     OW43615   3.966   9.838  10.315  0.1536  0.1354  0.4716
12977SOL    HW143616   3.957   9.842  10.411  1.3594 -1.9309  0.7268
12977SOL    HW243617   4.058   9.819  10.301 -0.1272 -0.1777 -1.0875
12978SOL     OW43618   5.688   2.730   5.306 -0.2807  0.2226 -0.2231
12978SOL    HW143619   5.726   2.785   5.375  2.6610 -0.8616 -0.8370
12978SOL    HW243620   5.681   2.644   5.347  0.7671 -0.2466 -0.9865
12979SOL     OW43621   3.272   7.396   2.745  0.3965  0.0887  0.0217
12979SOL    HW143622   3.329   7.470   2.726  0.3632  0.4391  1.1753
12979SOL    HW243623   3.261   7.352   2.661  1.7960  0.4048 -0.3601
12980SOL     OW43624   6.894   6.185   2.574  0.3323 -0.8549 -0.2598
12980SOL    HW143625   6.965   6.157   2.517  0.3786 -1.5610  0.1348
12980SOL    HW243626   6.864   6.104   2.616 -0.2308 -0.4585  0.1077
12981SOL     OW43627   5.953  10.463   5.371  0.2871 -0.0215 -0.3071
12981SOL    HW143628   6.002  10.388   5.404  0.9979  0.4673 -0.2314
12981SOL    HW243629   5.865  10.429   5.355 -0.4975 -0.0185  3.2444
12982SOL     OW43630   6.477   0.581   6.671  0.2405  0.2867  0.4441
12982SOL    HW143631   6.553   0.631   6.641 -0.5657  0.5485 -1.2873
12982SOL    HW243632   6.498   0.557   6.761  2.6249 -0.1003 -0.1414
12983SOL     OW43633  11.057   1.443   6.371 -0.3894 -0.4095  0.2265
12983SOL    HW143634  11.151   1.447   6.354 -0.2369 -1.7980  0.6590
12983SOL    HW243635  11.050   1.434   6.466 -1.0165  0.9685  0.3295
12984SOL     OW43636  10.430   6.118   6.871  0.7382  0.2347  0.5368
12984SOL    HW143637  10.451   6.133   6.963  1.2959  1.2090  0.2644
12984SOL    HW243638  10.380   6.036   6.871  1.5491 -0.2925  1.5993
12985SOL     OW43639   1.388   4.804   2.155  0.1238  0.2631 -0.6172
12985SOL    HW143640   1.329   4.879   2.155 -0.2181 -0.0025 -0.2863
12985SOL    HW243641   1.331   4.728   2.146  0.5523  0.0955 -2.2010
12986SOL     OW43642   5.435   3.890   2.739  0.0759 -0.3382  0.0151
12986SOL    HW143643   5.357   3.929   2.699 -0.2291 -0.8958  0.0695
12986SOL    HW243644   5.491   3.867   2.665 -0.0269 -0.3942 -0.0454
12987SOL     OW43645  11.071   1.421   9.383 -0.2438  0.3663  0.0383
12987SOL    HW143646  11.149   1.421   9.327 -1.1654 -0.0953 -1.2894
12987SOL    HW243647  11.035   1.509   9.373 -0.1777  0.4196  0.2584
12988SOL     OW43648   3.917   0.133   3.854 -0.3765 -0.5997 -0.4413
12988SOL    HW143649   3.994   0.086   3.888 -0.3597 -0.5985 -0.4782
12988SOL    HW243650   3.846   0.109   3.914 -0.2946 -0.4160 -0.2676
12989SOL     OW43651   3.939   7.829   1.828 -0.3659 -0.2135  0.1036
12989SOL    HW143652   4.014   7.888   1.838 -2.1114  1.9117  2.0886
12989SOL    HW243653   3.916   7.835   1.735  0.2174  1.3874  0.0241
12990SOL     OW43654   0.370   3.956   2.333  0.5599 -0.0893  0.2928
12990SOL    HW143655   0.383   4.048   2.310 -1.3092  0.3678  0.8467
12990SOL    HW243656   0.276   3.949   2.353  0.6474 -2.1245  0.2574
12991SOL     OW43657  11.694   7.986   1.287 -0.0942  0.1435  0.1278
12991SOL    HW143658  11.715   7.900   1.322 -0.2678  0.3806  0.8246
12991SOL    HW243659  11.713   8.047   1.358 -1.1719  0.5645  0.0799
12992SOL     OW43660   6.067   2.897   0.563  0.6062 -0.0875  0.0618
12992SOL    HW143661   5.996   2.897   0.627  2.0548  1.4491  1.8325
12992SOL    HW243662   6.035   2.952   0.492  0.2747  1.2864  1.2184
12993SOL     OW43663   5.316   4.976   6.700 -0.3582  0.0708 -0.1508
12993SOL    HW143664   5.318   4.984   6.605  1.9478 -0.1794 -0.1708
12993SOL    HW243665   5.376   4.904   6.719  0.2084  0.9347  1.5554
12994SOL     OW43666   6.546  10.132   8.930 -0.7967  0.2658  0.5493
12994SOL    HW143667   6.625  10.158   8.977 -0.3931  1.1546 -0.6019
12994SOL    HW243668   6.574  10.118   8.840 -1.5516 -1.5083  0.5605
12995SOL     OW43669   1.533   9.621   5.854 -0.9827  0.1762  0.4404
12995SOL    HW143670   1.626   9.642   5.846 -0.3732 -2.1976  0.6026
12995SOL    HW243671   1.500   9.626   5.764 -0.1658 -1.0911  0.0453
12996SOL     OW43672   0.405  10.315   7.172 -0.5044  0.0940  0.4508
12996SOL    HW143673   0.431  10.364   7.250 -1.6181  0.7478  0.4309
12996SOL    HW243674   0.331  10.261   7.201 -0.8943  0.3046 -0.1299
12997SOL     OW43675   4.788   4.739   8.065  0.3829 -0.1881 -0.6972
12997SOL    HW143676   4.826   4.681   8.000  1.4757  1.5824 -1.7192
12997SOL    HW243677   4.694   4.737   8.047  0.3691 -1.7159 -0.5870
12998SOL     OW43678  11.884  11.016   2.506 -0.1350 -0.0745  0.1478
12998SOL    HW143679  11.860  11.090   2.562  2.4016  1.1347 -0.2300
12998SOL    HW243680  11.812  11.009   2.444 -1.7099  0.3105  1.8277
12999SOL     OW43681   2.211   4.604   1.447 -0.6837  0.4983 -0.4823
12999SOL    HW143682   2.284   4.612   1.509 -2.3019 -0.0477  1.6063
12999SOL    HW243683   2.235   4.529   1.392  0.0730 -0.0274  0.5264
13000SOL     OW43684  11.984   7.459   6.676 -0.4670  1.0232 -0.0585
13000SOL    HW143685  12.024   7.380   6.713 -0.3236  1.3418  0.4898
13000SOL    HW243686  11.892   7.437   6.668 -0.1057  0.0432 -1.9691
13001SOL     OW43687   7.373   1.716   6.298 -0.0862 -0.3357  0.6544
13001SOL    HW143688   7.296   1.723   6.355 -0.9504  0.4694 -0.5651
13001SOL    HW243689   7.412   1.803   6.301 -1.0605  0.1998 -1.2108
13002SOL     OW43690   6.686   4.890  10.262  0.6431  0.3957  0.0863
13002SOL    HW143691   6.623   4.841  10.314  0.0629  1.9609  0.9256
13002SOL    HW243692   6.738   4.823  10.218 -0.8819 -0.9500  0.2311
13003SOL     OW43693   2.249  10.518   1.154  0.1836  0.0370  0.1268
13003SOL    HW143694   2.287  10.583   1.096  0.7839  0.7283  1.2681
13003SOL    HW243695   2.228  10.444   1.097  3.4164 -0.4884 -0.5845
13004SOL     OW43696   0.505   9.025   0.420 -0.3547  0.0075 -0.2151
13004SOL    HW143697   0.479   8.937   0.448  1.0677 -0.5778 -0.6404
13004SOL    HW243698   0.465   9.083   0.484 -0.0842 -1.0469  0.9533
13005SOL     OW43699   5.271  10.384   6.399 -0.1475 -0.1472 -0.2918
13005SOL    HW143700   5.230  10.309   6.356  0.6417 -1.7674  1.5975
13005SOL    HW243701   5.242  10.378   6.490  1.4736  0.6836  0.3259
13006SOL     OW43702   0.208   6.919   7.857 -0.4006  0.2624  0.2711
13006SOL    HW143703   0.170   7.000   7.891  2.1145  1.7835 -0.3153
13006SOL    HW243704   0.278   6.899   7.919 -1.1747 -1.7099  0.5815
13007SOL     OW43705   5.886   9.888   3.850 -0.1346 -0.7071 -0.2006
13007SOL    HW143706   5.791   9.883   3.849 -0.2667  1.1141 -0.3443
13007SOL    HW243707   5.913   9.864   3.762 -0.6289  0.8422 -0.7965
13008SOL     OW43708   4.169   5.509   2.613  0.0304  0.3090 -0.4054
13008SOL    HW143709   4.153   5.576   2.680 -0.4489 -1.3119  1.2027
13008SOL    HW243710   4.237   5.546   2.558  1.0049  1.4479  1.4382
13009SOL     OW43711   2.744   7.850   6.151 -0.0773 -0.0376 -0.3722
13009SOL    HW143712   2.720   7.942   6.149 -1.2913 -0.3338 -0.6272
13009SOL    HW243713   2.794   7.836   6.070 -0.0930  0.3414 -0.4466
13010SOL     OW43714   1.576  10.597  11.184 -0.0069 -0.7680  0.1830
13010SOL    HW143715   1.500  10.543  11.207  0.0517 -2.0389 -2.2604
13010SOL    HW243716   1.649  10.555  11.229 -0.1767 -1.9963 -0.6347
13011SOL     OW43717   8.239   6.457   1.596  0.0466 -0.2796 -0.0131
13011SOL    HW143718   8.154   6.447   1.640 -0.1942 -0.2781 -0.4709
13011SOL    HW243719   8.232   6.540   1.548  0.6557  0.2048  0.7072
13012SOL     OW43720   8.284  10.411   9.996  0.2042  0.2226  0.5554
13012SOL    HW143721   8.352  10.368  10.047  0.7023  1.6558  1.1600
13012SOL    HW243722   8.210  10.351   9.998  0.7728 -0.4667  1.6019
13013SOL     OW43723   8.044   6.483  10.264 -0.7705  0.8171 -0.3815
13013SOL    HW143724   8.100   6.417  10.303 -3.2107 -1.2454 -0.1156
13013SOL    HW243725   8.050   6.467  10.169 -0.6837  0.7843 -0.3701
13014SOL     OW43726   6.541   5.096   6.713  0.2500 -0.1599 -0.0926
13014SOL    HW143727   6.446   5.099   6.717  0.1799  1.2806 -1.7115
13014SOL    HW243728   6.563   5.004   6.731 -1.2847 -0.1862  2.0254
13015SOL     OW43729  11.301   7.891   0.318 -0.3298  0.1582  0.7992
13015SOL    HW143730  11.373   7.839   0.353  0.7545  1.1306  0.1073
13015SOL    HW243731  11.242   7.905   0.392  0.2497 -0.5512  1.4030
13016SOL     OW43732   2.940  10.411   5.162  0.4131  0.4301  0.0491
13016SOL    HW143733   3.005  10.466   5.118 -0.3154  1.0558 -0.2589
13016SOL    HW243734   2.978  10.396   5.249  0.6277  1.4240  0.1442
13017SOL     OW43735   1.259   2.692   3.042  0.4475 -0.0941  0.2016
13017SOL    HW143736   1.296   2.640   2.971  0.7203  0.8445 -0.3613
13017SOL    HW243737   1.197   2.634   3.085  0.1695 -0.6299 -0.9053
13018SOL     OW43738  11.185   4.751   4.685 -0.5269 -0.0893  0.2590
13018SOL    HW143739  11.132   4.702   4.749 -0.7892 -2.7535 -1.8001
13018SOL    HW243740  11.128   4.822   4.657 -1.4191 -0.4725  1.0312
13019SOL     OW43741   0.919   6.689   8.923 -0.3144 -0.0894 -0.3592
13019SOL    HW143742   0.980   6.661   8.855 -0.7889 -0.3312 -0.6966
13019SOL    HW243743   0.835   6.651   8.896 -0.8704  1.2376 -0.5590
13020SOL     OW43744   3.040   5.992   6.949  0.4842  0.1582 -0.2512
13020SOL    HW143745   3.112   5.949   6.902  0.0877 -0.0240 -0.6961
13020SOL    HW243746   3.080   6.070   6.987  0.4629  1.1547 -2.2054
13021SOL     OW43747   1.582   1.190   7.983  0.1077  0.2760 -0.6008
13021SOL    HW143748   1.621   1.168   8.067  0.3101  1.7527 -0.2747
13021SOL    HW243749   1.533   1.271   8.000  1.1774  1.3219 -2.1552
13022SOL     OW43750   7.155   2.231   7.823 -0.4410  0.7450 -0.3190
13022SOL    HW143751   7.139   2.163   7.757 -1.0066 -1.5738  2.0347
13022SOL    HW243752   7.069   2.252   7.857 -0.1504  1.9172 -0.2458
13023SOL     OW43753   1.238   6.144  11.454  0.5402  0.3287  0.0909
13023SOL    HW143754   1.159   6.145  11.399  1.7721 -2.2683 -1.9471
13023SOL    HW243755   1.268   6.235  11.453 -0.4302  0.7102 -2.2515
13024SOL     OW43756   0.193   3.659  11.479 -0.5684 -0.4290  0.1209
13024SOL    HW143757   0.139   3.711  11.538 -3.8376 -1.2795 -1.8497
13024SOL    HW243758   0.171   3.568  11.498  0.8157 -0.8835 -0.2511
13025SOL     OW43759   2.628   9.455   2.785 -0.6048 -0.2757 -0.2711
13025SOL    HW143760   2.588   9.403   2.716  1.1640 -3.4055  0.8835
13025SOL    HW243761   2.712   9.412   2.803 -0.3574  1.2080  2.8497
13026SOL     OW43762   1.635   1.966   8.092 -0.2582 -0.1525  0.4301
13026SOL    HW143763   1.627   1.959   8.187 -2.7239  1.0310  0.3919
13026SOL    HW243764   1.582   2.043   8.070 -0.3752 -0.8673 -1.9814
13027SOL     OW43765   1.748   9.459   5.357 -0.2251 -0.3241  0.0831
13027SOL    HW143766   1.826   9.426   5.313 -0.0516 -0.1176  0.2351
13027SOL    HW243767   1.775   9.543   5.395 -0.6411 -0.0374 -0.2417
13028SOL     OW43768   3.194   9.060   2.937 -0.3203 -0.3422  0.7661
13028SOL    HW143769   3.180   9.013   2.855 -1.1416  1.3116 -0.0765
13028SOL    HW243770   3.259   9.127   2.915  0.8813 -1.0558  1.9625
13029SOL     OW43771   0.883   3.951   8.993 -0.2698  0.0106  0.9113
13029SOL    HW143772   0.871   3.857   9.006  1.0401 -0.2550  0.4100
13029SOL    HW243773   0.797   3.989   9.009 -1.3563 -1.4991 -0.9383
13030SOL     OW43774   2.749   6.132   2.809 -0.5483  0.0579  0.5540
13030SOL    HW143775   2.680   6.065   2.806  0.7841 -1.3220 -0.5342
13030SOL    HW243776   2.795   6.124   2.726  0.7969  1.1198  1.1459
13031SOL     OW43777  10.923   1.085   4.317 -0.6970 -0.3237  0.0740
13031SOL    HW143778  10.913   1.051   4.406 -0.4150 -1.3603 -0.2702
13031SOL    HW243779  10.962   1.012   4.268 -0.4225  0.3843 -0.7919
13032SOL     OW43780   2.408   3.232   1.218  0.1986 -0.5182  0.1097
13032SOL    HW143781   2.456   3.180   1.282  1.7948  0.7432  0.0051
13032SOL    HW243782   2.392   3.315   1.263  0.1778 -0.0894 -0.6750
13033SOL     OW43783   4.644   6.784   2.313 -0.7002  0.3326  0.2409
13033SOL    HW143784   4.723   6.731   2.303  0.0156  1.7004 -2.5534
13033SOL    HW243785   4.573   6.725   2.288 -0.2095 -0.0863 -0.2158
13034SOL     OW43786   0.309  10.141   0.821 -0.2446  0.4550 -0.2297
13034SOL    HW143787   0.339  10.053   0.800  0.5979  0.9047 -0.9626
13034SOL    HW243788   0.230  10.127   0.873  0.3528 -0.7420  0.4089
13035SOL     OW43789   6.356   2.998   1.092 -0.6813 -0.3539  0.9722
13035SOL    HW143790   6.262   3.004   1.108 -0.6868  1.2107  0.4544
13035SOL    HW243791   6.394   3.068   1.145 -0.0075  0.3315 -0.3864
13036SOL     OW43792   2.642   8.808   1.953 -0.3046  0.3006  0.6237
13036SOL    HW143793   2.569   8.808   1.892 -0.8143 -0.5826  1.2074
13036SOL    HW243794   2.713   8.853   1.906 -0.6963 -0.3031 -0.5839
13037SOL     OW43795   5.816   1.489   6.187  0.2651  0.2609 -0.3071
13037SOL    HW143796   5.831   1.481   6.281 -1.2709 -0.6976 -0.1049
13037SOL    HW243797   5.903   1.492   6.149  0.9370 -1.3119  1.0070
13038SOL     OW43798   5.364   8.924   8.142 -0.7142  0.0725  0.0274
13038SOL    HW143799   5.405   8.949   8.059 -0.0389 -0.8687  0.0563
13038SOL    HW243800   5.289   8.870   8.117 -1.5312  1.1958 -0.0044
13039SOL     OW43801  11.505  11.098   3.607 -0.2214  0.4577 -0.4091
13039SOL    HW143802  11.440  11.093   3.677  0.7165  1.7734  0.6154
13039SOL    HW243803  11.456  11.131   3.532 -0.8482  1.0091  0.2194
13040SOL     OW43804   5.602   2.077   8.271  0.2831 -0.2163  0.5120
13040SOL    HW143805   5.524   2.095   8.218 -0.2724 -1.5221  0.8319
13040SOL    HW243806   5.574   2.008   8.332  1.1212  0.7339  2.0236
13041SOL     OW43807   5.296   5.655   9.321 -0.8070  0.1839  0.1740
13041SOL    HW143808   5.248   5.733   9.350 -1.5206 -0.3795  0.5532
13041SOL    HW243809   5.326   5.614   9.402 -0.8593 -0.1926  0.0050
13042SOL     OW43810  11.371   3.672   2.499  0.6038  0.0806  0.0150
13042SOL    HW143811  11.392   3.679   2.406 -0.6880  0.9357 -0.2471
13042SOL    HW243812  11.314   3.594   2.504  1.4314 -0.5168  0.2498
13043SOL     OW43813   0.675   9.359  10.903  0.3734 -0.4162  0.5273
13043SOL    HW143814   0.586   9.395  10.896  0.9732  1.3127  1.2130
13043SOL    HW243815   0.666   9.284  10.961 -0.9068 -1.3633 -0.8062
13044SOL     OW43816   5.982   4.793   2.511  0.1586  0.5732 -0.0471
13044SOL    HW143817   6.056   4.738   2.536  0.8603  1.3291 -0.4204
13044SOL    HW243818   6.022   4.874   2.478 -0.8403  1.2048  0.2470
13045SOL     OW43819   5.613   6.340  11.342 -0.3249 -0.4143 -0.0443
13045SOL    HW143820   5.651   6.410  11.288 -0.3492 -0.6475 -0.3694
13045SOL    HW243821   5.547   6.384  11.395 -1.4058 -0.4208 -1.3328
13046SOL     OW43822   0.278   3.589  10.132  0.2009 -0.5026 -0.2496
13046SOL    HW143823   0.330   3.589  10.213 -0.0755  2.3671  0.0083
13046SOL    HW243824   0.343   3.600  10.062  0.4053 -2.6614 -0.4833
13047SOL     OW43825   0.883  10.727   0.108 -0.9162  0.5318 -0.3036
13047SOL    HW143826   0.866  10.717   0.202 -1.7128  2.5984 -0.1616
13047SOL    HW243827   0.936  10.807   0.102 -0.2585  0.0201 -1.5675
13048SOL     OW43828   3.448   2.844  10.890  0.0353  0.9813 -0.2388
13048SOL    HW143829   3.433   2.932  10.856 -1.1374  0.6537 -0.6356
13048SOL    HW243830   3.362   2.814  10.918  0.2674 -0.3383 -0.8562
13049SOL     OW43831  11.001   4.454  11.487 -0.3450 -0.0786  0.1980
13049SOL    HW143832  10.922   4.492  11.527  0.1616  0.2029  0.9601
13049SOL    HW243833  11.054   4.426  11.561 -0.3175 -1.5149 -0.3340
13050SOL     OW43834   1.115   9.282   8.914 -0.4662 -0.1144  0.1205
13050SOL    HW143835   1.145   9.264   9.003 -0.0688  0.5095  0.1190
13050SOL    HW243836   1.108   9.378   8.911 -1.7551 -0.1967 -0.1028
13051SOL     OW43837  10.899   6.597   8.161  0.6631 -1.0166 -0.2778
13051SOL    HW143838  10.835   6.539   8.120  0.1710 -0.8269  0.2061
13051SOL    HW243839  10.880   6.591   8.255 -0.8103  1.5105 -0.3202
13052SOL     OW43840   2.844   9.067   8.571  0.1081 -0.8466  0.5561
13052SOL    HW143841   2.772   9.075   8.508 -0.1168  3.1769  1.0890
13052SOL    HW243842   2.921   9.097   8.523  0.4842 -0.5504  1.3330
13053SOL     OW43843  11.533   9.852   5.871 -0.6001  0.3221  0.2407
13053SOL    HW143844  11.565   9.933   5.833  3.1456 -1.2778 -0.4689
13053SOL    HW243845  11.578   9.845   5.955  0.1509 -1.4908 -0.2445
13054SOL     OW43846   7.333   8.538   3.336 -0.4604 -0.4504 -0.2222
13054SOL    HW143847   7.392   8.473   3.300 -0.5591  0.3179 -1.8480
13054SOL    HW243848   7.245   8.502   3.322 -0.6231  0.7087 -2.7333
13055SOL     OW43849   3.689   4.116   7.347  0.2313 -0.3146 -0.0009
13055SOL    HW143850   3.744   4.042   7.324  1.7650  0.7041  0.2496
13055SOL    HW243851   3.696   4.176   7.272 -0.0794  0.0812  0.2805
13056SOL     OW43852   0.727   4.400   6.274 -0.2762 -0.1581  0.2332
13056SOL    HW143853   0.815   4.433   6.257 -0.3620  0.4446  0.9229
13056SOL    HW243854   0.736   4.305   6.271  0.1524 -0.1037 -0.8842
13057SOL     OW43855   9.581   1.136   4.581  0.3311  0.3636 -0.2187
13057SOL    HW143856   9.633   1.165   4.506  0.2288 -1.0912 -0.8972
13057SOL    HW243857   9.637   1.072   4.625  0.3648  1.1616  0.9337
13058SOL     OW43858   1.875   0.175   6.415  0.3140  0.2566 -0.4241
13058SOL    HW143859   1.905   0.201   6.502  0.7896  0.0595 -0.5262
13058SOL    HW243860   1.821   0.098   6.431 -1.3245  1.4206 -0.0929
13059SOL     OW43861  10.968   4.711   4.310 -0.3715  0.2384  0.5466
13059SOL    HW143862  10.960   4.780   4.376 -1.4042  0.7002 -0.0357
13059SOL    HW243863  10.884   4.710   4.266 -0.0180 -0.7100 -0.1480
13060SOL     OW43864  10.985   2.920   7.913 -0.6219  0.6749  0.2654
13060SOL    HW143865  10.918   2.989   7.905 -0.3171  1.3143  2.4146
13060SOL    HW243866  10.990   2.904   8.008  2.1591  0.5658  0.1704
13061SOL     OW43867   5.622   7.086   3.924  0.2465 -0.0812 -0.3872
13061SOL    HW143868   5.628   7.169   3.877  0.4692 -0.8162 -1.7075
13061SOL    HW243869   5.542   7.093   3.977 -0.2864  0.5778 -1.2690
13062SOL     OW43870   2.900   7.689   0.835 -0.0394  0.0120  0.4671
13062SOL    HW143871   2.814   7.678   0.794  1.0827 -1.6466 -1.6812
13062SOL    HW243872   2.941   7.761   0.785  0.0752  0.3413  1.0299
13063SOL     OW43873   0.686   5.470   5.330  0.5341 -0.0146  0.2898
13063SOL    HW143874   0.601   5.514   5.337  1.2758  1.7231 -0.9657
13063SOL    HW243875   0.699   5.431   5.417 -0.8616  0.9603  0.9837
13064SOL     OW43876   5.760   4.778   8.482  0.0295 -0.6993  0.2175
13064SOL    HW143877   5.697   4.727   8.432  1.3574  0.0659 -2.4328
13064SOL    HW243878   5.757   4.866   8.444  1.7698 -0.3143  0.8368
13065SOL     OW43879  10.752   0.311   3.146 -0.2198  0.2772 -0.4599
13065SOL    HW143880  10.678   0.252   3.153 -1.3184  1.6575  0.0463
13065SOL    HW243881  10.714   0.394   3.117  1.0908  1.0677 -0.0071
13066SOL     OW43882   7.586   6.406   9.714 -0.0612  0.3196 -0.1083
13066SOL    HW143883   7.646   6.359   9.773  0.2408  1.8519  0.8783
13066SOL    HW243884   7.507   6.420   9.766 -0.1041  0.9697 -0.3307
13067SOL     OW43885  11.279  10.230   0.147  0.1229 -0.2784  0.1581
13067SOL    HW143886  11.361  10.197   0.184 -0.0413 -0.8874 -0.0101
13067SOL    HW243887  11.278  10.323   0.170  0.1234 -0.5881  1.4824
13068SOL     OW43888   1.106   2.750   3.358 -0.3102  0.1935  0.3897
13068SOL    HW143889   1.179   2.691   3.341 -0.2215  0.2347  0.6271
13068SOL    HW243890   1.146   2.830   3.390 -0.3517  0.8012 -1.0058
13069SOL     OW43891  10.728   3.879   5.759 -0.1022  0.5844  0.1591
13069SOL    HW143892  10.820   3.859   5.777 -0.1056 -0.8813 -1.2813
13069SOL    HW243893  10.717   3.969   5.789  1.5136  0.4302  1.3406
13070SOL     OW43894   9.776   4.722   4.667  0.3552 -0.1927  0.3988
13070SOL    HW143895   9.805   4.694   4.754  1.2030 -0.8615 -0.0771
13070SOL    HW243896   9.694   4.677   4.653 -0.2622  0.6339  1.2113
13071SOL     OW43897   2.630   8.272   2.961  0.0926  0.0099 -0.2275
13071SOL    HW143898   2.580   8.312   3.032  0.5330 -0.4579  0.3508
13071SOL    HW243899   2.674   8.345   2.918 -1.8576  0.5699 -1.3873
13072SOL     OW43900   4.904   3.684   3.372 -0.6790 -0.6254  0.5612
13072SOL    HW143901   4.950   3.629   3.436 -1.4342 -1.4161  0.4347
13072SOL    HW243902   4.817   3.696   3.409 -0.5792  0.3602  0.5032
13073SOL     OW43903   5.758   1.444   2.983 -0.5598  0.9064  0.1276
13073SOL    HW143904   5.829   1.451   2.919  1.3740 -1.5700  1.7863
13073SOL    HW243905   5.802   1.417   3.064 -3.2844  0.5453  1.5973
13074SOL     OW43906   8.735   0.161   0.383 -0.8903 -0.1709 -0.2763
13074SOL    HW143907   8.654   0.116   0.405 -1.8624  1.1841 -0.9163
13074SOL    HW243908   8.787   0.159   0.463 -2.3721  0.5989  0.7434
13075SOL     OW43909   4.723   2.093   4.692 -0.2972 -0.1769 -0.4714
13075SOL    HW143910   4.643   2.106   4.640 -0.8314 -1.3078  0.0407
13075SOL    HW243911   4.728   1.998   4.704  0.6485 -0.0401  0.2572
13076SOL     OW43912   1.643   5.131   8.755 -0.1855 -0.1478 -0.0325
13076SOL    HW143913   1.668   5.039   8.744 -2.7041 -1.0290  0.9978
13076SOL    HW243914   1.565   5.142   8.701 -1.4404  0.6321  1.8356
13077SOL     OW43915   5.225   5.018   0.609 -0.5372  0.3908 -0.0552
13077SOL    HW143916   5.243   5.018   0.703 -0.9684 -2.5546  0.1089
13077SOL    HW243917   5.298   5.066   0.571 -0.2508  1.4664  1.7421
13078SOL     OW43918   0.420   8.685   8.145 -0.1013 -0.9325  0.1468
13078SOL    HW143919   0.424   8.605   8.091  1.4727  0.2632 -1.6301
13078SOL    HW243920   0.478   8.746   8.101 -0.4278  0.8675  2.0796
13079SOL     OW43921   4.636   2.486  11.651  0.0924  0.3319  0.5073
13079SOL    HW143922   4.578   2.548  11.696 -0.0751  1.2000 -0.8386
13079SOL    HW243923   4.576   2.429  11.602  0.2779 -0.5061  1.2353
13080SOL     OW43924   0.640   5.524   2.357 -0.4179  0.0356  0.0372
13080SOL    HW143925   0.717   5.578   2.341  0.2353 -1.2795 -1.5387
13080SOL    HW243926   0.666   5.465   2.427 -0.2122  0.0275 -0.0457
13081SOL     OW43927   0.829   9.761   6.831 -0.0556 -0.5776 -0.3210
13081SOL    HW143928   0.738   9.791   6.838 -0.0503 -0.5253 -0.4804
13081SOL    HW243929   0.827   9.672   6.866  0.3215  0.3180  2.1919
13082SOL     OW43930   1.767   5.452   2.269  0.0385  0.0494 -0.4844
13082SOL    HW143931   1.858   5.465   2.296 -0.1850 -0.4064  0.5439
13082SOL    HW243932   1.771   5.389   2.197  0.5554  0.3359 -0.7121
13083SOL     OW43933   1.059   5.451  11.064 -1.0696  0.1485 -0.4952
13083SOL    HW143934   1.000   5.442  10.989 -0.7367  0.8077 -0.8387
13083SOL    HW243935   1.124   5.383  11.052 -0.7656  0.5288 -1.0404
13084SOL     OW43936   2.607  11.338  11.768  0.5090  0.0859 -0.5708
13084SOL    HW143937   2.689  11.322  11.722  0.4679 -2.7845  0.1791
13084SOL    HW243938   2.632  11.356  11.858  0.3142 -0.9597 -0.3054
13085SOL     OW43939   3.773   5.010   3.807 -0.1475 -0.0075  0.1379
13085SOL    HW143940   3.733   4.924   3.815  0.0183 -0.1113 -0.1414
13085SOL    HW243941   3.743   5.043   3.722  1.7681 -0.8247 -0.9077
13086SOL     OW43942  10.912  11.233   0.932 -0.2052  0.1050 -0.3094
13086SOL    HW143943  10.860  11.261   0.856  0.4841  0.9154 -0.5041
13086SOL    HW243944  11.003  11.233   0.901  0.0492  0.0583  0.4051
13087SOL     OW43945  11.363   1.725   4.314  0.2647  0.1270  0.1611
13087SOL    HW143946  11.414   1.805   4.320  2.2448 -0.9804 -0.9849
13087SOL    HW243947  11.385   1.675   4.393  0.8751 -0.2964 -0.2707
13088SOL     OW43948   8.275  10.326   9.547  0.2468 -0.1602  0.8034
13088SOL    HW143949   8.305  10.392   9.485 -2.5592  0.0124 -0.4728
13088SOL    HW243950   8.345  10.260   9.546  1.4655  1.0645 -0.5567
13089SOL     OW43951  10.308   7.997  11.093 -0.2773 -0.7939 -0.8620
13089SOL    HW143952  10.239   7.982  11.029 -0.2455  0.5781 -1.2604
13089SOL    HW243953  10.325   8.091  11.088 -0.6959 -0.5136  1.5951
13090SOL     OW43954  11.516   1.353   1.615 -0.7318  0.3166 -0.6429
13090SOL    HW143955  11.445   1.377   1.674  0.2062  0.8906  0.3070
13090SOL    HW243956  11.596   1.381   1.662  0.0941 -0.0675 -1.7777
13091SOL     OW43957   0.524   2.889   0.243  0.9570  0.2864 -0.1682
13091SOL    HW143958   0.500   2.848   0.161  0.4987  1.1643 -0.4869
13091SOL    HW243959   0.457   2.957   0.257  0.1730 -0.7991  1.6697
13092SOL     OW43960   7.679   7.269   2.677  0.2019  0.0537  0.1872
13092SOL    HW143961   7.682   7.208   2.603  0.5710  0.1962  0.0802
13092SOL    HW243962   7.625   7.342   2.646 -0.8128 -0.5189  0.5558
13093SOL     OW43963   8.979   4.894   9.317  0.2699  0.3217  0.0642
13093SOL    HW143964   9.005   4.829   9.383  0.2963 -0.0166 -0.2722
13093SOL    HW243965   8.884   4.900   9.325  0.5319  2.7473  2.3894
13094SOL     OW43966  11.561   4.828   9.398  0.6444 -0.3150 -0.1407
13094SOL    HW143967  11.549   4.913   9.439 -1.1755  0.7448 -2.5992
13094SOL    HW243968  11.476   4.785   9.407  0.7236 -0.7330 -1.2390
13095SOL     OW43969   4.682   3.449   3.342  0.1578  0.1366  0.2304
13095SOL    HW143970   4.632   3.373   3.373  0.4059 -0.0145  0.2675
13095SOL    HW243971   4.630   3.525   3.367  0.3567  0.0211  1.0380
13096SOL     OW43972   1.859   8.331   2.458 -0.0970 -0.1272  0.3171
13096SOL    HW143973   1.780   8.287   2.428  0.3908 -0.6989 -0.1562
13096SOL    HW243974   1.882   8.392   2.388  0.5404 -0.8212 -0.0975
13097SOL     OW43975   1.347   9.653   2.920  0.3515 -0.6818  0.0266
13097SOL    HW143976   1.344   9.637   3.014 -1.0459  0.7117  0.2604
13097SOL    HW243977   1.401   9.732   2.912 -0.1113 -0.3927 -0.2666
13098SOL     OW43978   8.811   7.783   0.477 -0.0516  0.2179  0.0590
13098SOL    HW143979   8.802   7.736   0.561 -0.7158  1.4306  0.6873
13098SOL    HW243980   8.822   7.713   0.412 -0.3585 -0.7867  1.0474
13099SOL     OW43981   3.670   7.230   1.857 -0.0708  0.6378 -0.2657
13099SOL    HW143982   3.703   7.169   1.791 -1.3552 -1.2769  0.7632
13099SOL    HW243983   3.745   7.244   1.915  0.0107 -0.8006  0.0339
13100SOL     OW43984   8.553   7.807  11.147 -0.0845 -0.0964  0.1299
13100SOL    HW143985   8.552   7.756  11.066  1.4203 -1.1791  0.7542
13100SOL    HW243986   8.596   7.750  11.211  0.1708  1.3329  1.2793
13101SOL     OW43987   7.576   7.695   4.435 -0.3422  0.3922  0.1879
13101SOL    HW143988   7.650   7.756   4.437 -0.0805  0.0665  0.6765
13101SOL    HW243989   7.612   7.615   4.397 -0.4337  0.2271  0.4429
13102SOL     OW43990   6.612   5.596   8.350  0.1400  0.1460 -0.0557
13102SOL    HW143991   6.549   5.667   8.340 -0.7900 -0.6112  0.3207
13102SOL    HW243992   6.559   5.516   8.352  1.0890 -0.4916  0.4872
13103SOL     OW43993   3.047  11.488   0.776  0.2635 -0.9857  0.1442
13103SOL    HW143994   3.006  11.574   0.785 -2.4784 -2.1707  0.1650
13103SOL    HW243995   3.127  11.493   0.827  0.2054  1.5376  0.1070
13104SOL     OW43996   0.459   2.703  10.536 -0.3255  0.1526 -0.2147
13104SOL    HW143997   0.369   2.700  10.504 -0.4996 -0.3413  0.3124
13104SOL    HW243998   0.452   2.680  10.629  0.2751  0.6894 -0.0280
13105SOL     OW43999   4.823   2.622  11.542  0.5393 -0.4761 -0.3824
13105SOL    HW144000   4.875   2.646  11.619  0.5299  1.9306 -1.0212
13105SOL    HW244001   4.759   2.559  11.575  2.7785 -2.3260  0.7537
13106SOL     OW44002  11.711   3.603   5.654  0.2580  0.7431  0.2323
13106SOL    HW144003  11.779   3.613   5.589  0.1306  0.7985  0.1069
13106SOL    HW244004  11.630   3.595   5.604  0.2354  0.1011  0.3589
13107SOL     OW44005  10.939   0.345  10.218  0.5221 -0.3817  0.2269
13107SOL    HW144006  10.896   0.392  10.290 -2.7804 -2.8227  0.0856
13107SOL    HW244007  10.982   0.270  10.261  0.8761 -0.3658 -0.0918
13108SOL     OW44008   4.157   1.279   8.531 -0.1930  0.2945  0.3867
13108SOL    HW144009   4.192   1.299   8.444 -0.4087  0.4577  0.3373
13108SOL    HW244010   4.098   1.351   8.551 -0.4947  0.0248  0.4764
13109SOL     OW44011   3.312   4.797   3.394  0.2737  0.6776  0.0493
13109SOL    HW144012   3.237   4.823   3.447  1.8459  1.0875  2.2393
13109SOL    HW244013   3.301   4.703   3.381  0.2436  0.3620  1.9605
13110SOL     OW44014   9.424   9.038   3.080 -0.0803  0.2237 -0.1016
13110SOL    HW144015   9.496   8.978   3.062 -0.0490  0.0512  0.5665
13110SOL    HW244016   9.432   9.057   3.174  0.1700  1.6069 -0.3743
13111SOL     OW44017   5.652   4.858  10.653  0.1446  0.0817  0.1042
13111SOL    HW144018   5.608   4.776  10.633  1.4285  0.1753 -3.9691
13111SOL    HW244019   5.697   4.841  10.736 -0.1608 -3.1345 -0.2638
13112SOL     OW44020   4.411   6.171   1.294  0.4189  0.2641  0.2641
13112SOL    HW144021   4.385   6.118   1.369 -0.7584  1.3021  0.6326
13112SOL    HW244022   4.426   6.108   1.224 -0.5410 -0.5883  0.7962
13113SOL     OW44023   2.147   1.853   2.466 -0.2597  1.0355 -0.1488
13113SOL    HW144024   2.079   1.895   2.413 -0.6373  0.1407 -0.3884
13113SOL    HW244025   2.163   1.769   2.422 -0.2554  0.4723  0.9062
13114SOL     OW44026   9.427  11.864  10.581 -0.1710  0.0520 -0.1779
13114SOL    HW144027   9.514  11.837  10.611 -1.2125 -1.4303  1.7931
13114SOL    HW244028   9.429  11.854  10.486  1.3081 -1.5415 -0.0118
13115SOL     OW44029   9.017  11.524   0.530  0.0213  0.4586  0.0214
13115SOL    HW144030   8.971  11.517   0.446 -0.0959  0.2382  0.1022
13115SOL    HW244031   9.011  11.617   0.553  1.5199  0.8450 -1.0312
13116SOL     OW44032   3.297   7.600   7.542 -0.0229 -0.4142  0.1828
13116SOL    HW144033   3.318   7.574   7.452  1.4132  0.9256  0.0883
13116SOL    HW244034   3.346   7.539   7.597  2.7037  1.4313 -0.0301
13117SOL     OW44035  10.970   5.697   0.755  0.0762 -0.6686  0.0419
13117SOL    HW144036  11.019   5.756   0.699 -0.1871 -1.2207 -0.7891
13117SOL    HW244037  10.923   5.639   0.695 -1.4915 -0.2439  0.8017
13118SOL     OW44038   7.333   3.018   2.710  0.1517  0.4359  0.0966
13118SOL    HW144039   7.345   3.107   2.745  1.1349  1.1015 -1.8019
13118SOL    HW244040   7.249   3.022   2.665 -0.5175 -0.0579  1.2688
13119SOL     OW44041  10.825   3.342   0.495 -0.1323 -0.2534  0.0147
13119SOL    HW144042  10.776   3.421   0.470  0.8209 -0.3489 -2.3848
13119SOL    HW244043  10.759   3.285   0.533 -1.6661  0.2009 -1.7918
13120SOL     OW44044  11.488   8.630   2.089  0.6032  0.2441  0.0924
13120SOL    HW144045  11.521   8.659   2.175 -0.1626 -0.0413  0.4916
13120SOL    HW244046  11.462   8.539   2.103 -0.9091  0.6353 -0.0401
13121SOL     OW44047   5.324   8.414  11.019 -0.0587  0.4831 -0.0343
13121SOL    HW144048   5.415   8.442  11.005 -0.6021  1.5537 -1.5970
13121SOL    HW244049   5.296   8.463  11.097 -0.3063  2.7673 -1.4729
13122SOL     OW44050   3.869  10.262   0.773  0.2186  0.3293 -0.1123
13122SOL    HW144051   3.905  10.349   0.755 -1.4583  0.8515 -1.1588
13122SOL    HW244052   3.781  10.279   0.806 -1.2454 -0.9676 -2.9770
13123SOL     OW44053   9.642   6.371   7.775 -0.1641 -0.2483  0.1836
13123SOL    HW144054   9.636   6.461   7.807  0.9242 -0.1240  0.0627
13123SOL    HW244055   9.605   6.318   7.846 -1.8213  0.3477 -0.1840
13124SOL     OW44056   0.022  10.869   5.054 -0.2119  0.2207  0.1868
13124SOL    HW144057   0.051  10.896   5.141 -0.7708 -0.1031  0.4750
13124SOL    HW244058  -0.065  10.908   5.044 -0.3823 -0.2023 -0.0033
13125SOL     OW44059   3.859   2.645   8.589  0.2515  0.2374 -0.0698
13125SOL    HW144060   3.838   2.653   8.682 -0.7765 -0.3812 -0.2314
13125SOL    HW244061   3.776   2.662   8.544  0.2970 -1.3064 -0.7959
13126SOL     OW44062   6.825   3.631   2.935 -0.0811  0.1589  0.1970
13126SOL    HW144063   6.870   3.704   2.893  0.4010 -1.3557 -2.0832
13126SOL    HW244064   6.884   3.605   3.006 -0.3568  2.0401  1.1758
13127SOL     OW44065   2.332  11.204   0.231  0.0634  0.4354 -0.1298
13127SOL    HW144066   2.292  11.289   0.216 -2.4111 -0.4912  0.6718
13127SOL    HW244067   2.341  11.197   0.326 -1.2480 -0.7577 -0.0524
13128SOL     OW44068   8.165  10.377   4.405  0.4477  0.0200  0.0298
13128SOL    HW144069   8.230  10.350   4.340 -1.1785 -0.5535 -1.4106
13128SOL    HW244070   8.184  10.322   4.482  1.3506 -0.4655 -0.5164
13129SOL     OW44071   0.146  11.955   6.436 -0.1885 -0.4593  0.4503
13129SOL    HW144072   0.081  11.988   6.374  0.2235  1.6041  1.0431
13129SOL    HW244073   0.229  11.955   6.387  0.5917  3.3214  1.4571
13130SOL     OW44074   0.910  10.815   3.781 -0.4712 -0.6383  0.0907
13130SOL    HW144075   0.928  10.852   3.695  1.6939  1.1952  1.1872
13130SOL    HW244076   0.835  10.866   3.813  0.3740  0.5644  0.2572
13131SOL     OW44077   4.997   8.917  10.696 -0.7324 -0.2471  0.2817
13131SOL    HW144078   5.049   8.997  10.698  0.2020 -0.8561  0.5511
13131SOL    HW244079   5.045   8.858  10.637 -1.5884 -0.4994 -0.1881
13132SOL     OW44080  10.200   9.478   5.357  0.0961  0.2499 -0.7240
13132SOL    HW144081  10.211   9.409   5.291  0.3400 -0.7421  0.3208
13132SOL    HW244082  10.149   9.437   5.426 -0.4638  1.3835 -0.4452
13133SOL     OW44083   5.421  11.546   8.087  0.2655  0.2969 -0.6668
13133SOL    HW144084   5.425  11.613   8.020 -1.8167  0.0184 -1.1401
13133SOL    HW244085   5.443  11.591   8.168  2.2093  0.7663 -1.4107
13134SOL     OW44086   6.952  11.824   4.478  0.4190 -0.3277  0.8484
13134SOL    HW144087   6.970  11.818   4.384 -0.5715  1.5632  0.4971
13134SOL    HW244088   7.028  11.782   4.519  0.1164 -2.6539 -0.7887
13135SOL     OW44089   2.882   1.658   2.950  0.4916 -0.1884  0.2009
13135SOL    HW144090   2.884   1.753   2.965  2.2797 -0.2415  0.5168
13135SOL    HW244091   2.950   1.623   3.008 -1.1373 -1.8641  1.2144
13136SOL     OW44092   6.238   2.058   5.776 -0.0654  0.2500  0.1634
13136SOL    HW144093   6.316   2.051   5.722  0.5883  0.1714  1.1011
13136SOL    HW244094   6.250   2.138   5.827  0.0610 -0.4914  1.3213
13137SOL     OW44095   3.408  10.164   9.218  1.0578  0.1496  0.0409
13137SOL    HW144096   3.440  10.079   9.246  0.3038 -0.6501 -1.4226
13137SOL    HW244097   3.456  10.227   9.273  0.6583 -1.2299  2.0668
13138SOL     OW44098   8.900  11.542   6.244  0.3245  0.3849 -0.3358
13138SOL    HW144099   8.966  11.560   6.177  0.7410 -0.1296 -0.0719
13138SOL    HW244100   8.839  11.482   6.202  0.8452 -0.3172 -0.1206
13139SOL     OW44101   1.937   4.870   8.571  0.0380 -0.1753 -0.0326
13139SOL    HW144102   1.976   4.945   8.615 -0.8776  0.1787  0.1871
13139SOL    HW244103   1.910   4.904   8.485 -1.7486  0.1629  0.6270
13140SOL     OW44104   1.469   8.855   6.312  0.1698  0.0957  0.1737
13140SOL    HW144105   1.387   8.893   6.281  0.4035  0.8417  0.4506
13140SOL    HW244106   1.517   8.835   6.232  0.7461  1.9612  0.0072
13141SOL     OW44107   7.902   2.005   7.413  0.1059 -0.0129 -0.0095
13141SOL    HW144108   7.968   1.941   7.442 -0.6661 -1.4494 -1.2835
13141SOL    HW244109   7.938   2.089   7.441 -0.1230 -1.0668  4.2566
13142SOL     OW44110  10.177   1.682   6.415  0.8727 -0.4867  0.3728
13142SOL    HW144111  10.235   1.672   6.491  1.9033  1.4420 -0.0700
13142SOL    HW244112  10.121   1.757   6.438  1.2215  0.1456 -0.7369
13143SOL     OW44113   7.037  10.478  11.357 -0.1185 -0.4100  0.9561
13143SOL    HW144114   7.020  10.500  11.449  1.6733 -1.1472  1.4988
13143SOL    HW244115   7.121  10.519  11.338 -0.6154  0.0014 -0.4871
13144SOL     OW44116   8.884   9.468   6.565 -0.3661 -0.1585  0.3469
13144SOL    HW144117   8.946   9.437   6.631  0.6062  1.5896  0.3115
13144SOL    HW244118   8.903   9.561   6.556 -1.4455 -0.0582 -1.3858
13145SOL     OW44119   9.520   3.464   1.366 -0.0903  0.0370 -0.4644
13145SOL    HW144120   9.537   3.447   1.459 -1.3550  0.6843 -0.0871
13145SOL    HW244121   9.570   3.543   1.347  0.3019 -0.1902 -0.3729
13146SOL     OW44122   8.769   3.441  10.648  0.3585 -0.1812 -0.2770
13146SOL    HW144123   8.829   3.369  10.669  1.9725  1.0214 -0.6200
13146SOL    HW244124   8.758   3.489  10.730 -0.9036 -0.9060  0.0091
13147SOL     OW44125   0.498  11.665   0.983  0.3885  0.6247  0.0265
13147SOL    HW144126   0.558  11.739   0.993  0.1686  0.6043  1.8794
13147SOL    HW244127   0.420  11.691   1.032  0.0452 -0.5346  0.1144
13148SOL     OW44128   4.884   8.888   2.672  0.0149  0.3046  0.4480
13148SOL    HW144129   4.937   8.960   2.707  1.3263 -0.8378  0.9010
13148SOL    HW244130   4.934   8.809   2.694 -1.8295 -0.8262  0.7837
13149SOL     OW44131   1.656   3.028   7.622  0.5554 -0.3283 -0.0024
13149SOL    HW144132   1.689   3.118   7.619  0.2064 -0.0315  2.7373
13149SOL    HW244133   1.653   3.001   7.530 -0.7824  2.9698 -1.0897
13150SOL     OW44134   0.267   5.751   0.207 -0.0748  0.0343 -0.0488
13150SOL    HW144135   0.212   5.824   0.237  0.8111  0.5428  0.3765
13150SOL    HW244136   0.298   5.710   0.287  1.6032  0.8663 -0.2257
13151SOL     OW44137   1.468   3.244   4.694 -0.0065 -0.0449 -0.1561
13151SOL    HW144138   1.423   3.160   4.681  2.1459 -1.3606  0.2917
13151SOL    HW244139   1.436   3.299   4.623 -0.1953 -1.8533 -1.5658
13152SOL     OW44140   2.367   6.490   7.060 -0.4803  0.5192  0.1161
13152SOL    HW144141   2.295   6.440   7.022 -0.0575  0.7277 -0.9884
13152SOL    HW244142   2.376   6.455   7.149 -1.0812 -0.4162 -0.1783
13153SOL     OW44143   1.630   0.765   7.015 -0.0963 -0.3458 -0.0842
13153SOL    HW144144   1.576   0.691   6.987 -0.8499 -0.2200  0.9634
13153SOL    HW244145   1.674   0.795   6.935 -2.2533  0.0892 -1.1722
13154SOL     OW44146   6.585   0.833   0.897  0.4705  0.5781  0.4765
13154SOL    HW144147   6.668   0.880   0.903  0.1811  1.2348 -0.5301
13154SOL    HW244148   6.585   0.794   0.810 -0.5586  1.1242  0.2163
13155SOL     OW44149   0.002   4.822   1.330  0.3124 -0.1609  0.2374
13155SOL    HW144150  -0.031   4.854   1.413  1.5899  1.0589  0.3208
13155SOL    HW244151  -0.005   4.727   1.336 -0.3572 -0.0561  1.4040
13156SOL     OW44152   2.550   0.941  10.488 -0.0500  0.4153 -0.0511
13156SOL    HW144153   2.520   0.912  10.574  0.3861 -0.2024 -0.0957
13156SOL    HW244154   2.645   0.924  10.489 -0.1550 -0.3447 -0.9219
13157SOL     OW44155   1.778   7.571  10.452  0.4839  0.0984  0.5538
13157SOL    HW144156   1.831   7.599  10.527 -1.0998  1.1541  1.3301
13157SOL    HW244157   1.810   7.483  10.431  2.7822  0.8259  0.7235
13158SOL     OW44158   9.806   7.235  11.421 -0.1082 -0.5483  0.1901
13158SOL    HW144159   9.722   7.236  11.466  0.5352  0.4264  1.4382
13158SOL    HW244160   9.868   7.205  11.487  0.9744  1.5899  0.2252
13159SOL     OW44161   5.405   9.614   5.687 -0.3641 -0.3027 -0.4468
13159SOL    HW144162   5.313   9.589   5.684 -0.7251  0.8064  0.5495
13159SOL    HW244163   5.416   9.675   5.614 -0.5944  0.1159 -0.1310
13160SOL     OW44164   0.381   8.238   1.828  0.1356  0.1953  0.2720
13160SOL    HW144165   0.387   8.169   1.763 -0.2748  1.3800 -1.0912
13160SOL    HW244166   0.460   8.290   1.815 -0.6714  1.3126 -0.3546
13161SOL     OW44167   4.475   8.722  10.462 -0.0367 -0.1730  0.3006
13161SOL    HW144168   4.391   8.697  10.502  0.2515 -1.5948  0.0788
13161SOL    HW244169   4.526   8.640  10.461  0.4807  0.1280 -1.6949
13162SOL     OW44170   4.494   1.710  10.428  0.2436  0.2112  0.3867
13162SOL    HW144171   4.524   1.621  10.410 -0.9882  0.1674 -1.7442
13162SOL    HW244172   4.486   1.713  10.524  2.3174 -1.2500  0.6770
13163SOL     OW44173   0.759   0.977   9.070 -0.3365 -0.3121 -0.7192
13163SOL    HW144174   0.726   0.981   8.980 -0.5975  0.3083 -0.5993
13163SOL    HW244175   0.685   1.003   9.124 -0.0382 -0.2085 -0.3537
13164SOL     OW44176  10.728   1.568   7.590 -0.1610 -0.1973  0.0576
13164SOL    HW144177  10.649   1.589   7.639  1.1456  1.7461  1.4626
13164SOL    HW244178  10.748   1.478   7.613 -2.8167 -1.3637 -1.6582
13165SOL     OW44179   6.369   2.689   2.604 -0.0027 -0.1739  0.1494
13165SOL    HW144180   6.455   2.650   2.589  0.7937  1.7709 -0.5586
13165SOL    HW244181   6.319   2.669   2.525 -0.0084 -0.7773  0.3022
13166SOL     OW44182   6.069   3.492   4.421  0.1066 -0.1778 -0.2768
13166SOL    HW144183   6.158   3.466   4.445  0.6242  1.1935 -0.6401
13166SOL    HW244184   6.064   3.585   4.443 -0.8373  0.0546 -1.3751
13167SOL     OW44185   6.025  10.485   2.237 -1.1748  0.1940  0.4510
13167SOL    HW144186   5.990  10.398   2.254 -0.6990 -0.4259 -1.5239
13167SOL    HW244187   6.055  10.482   2.146  2.7328  1.0967  1.5349
13168SOL     OW44188   4.594   1.004   4.209  0.3933  0.0163  0.1328
13168SOL    HW144189   4.681   1.045   4.208  0.0357  0.9617 -2.5680
13168SOL    HW244190   4.553   1.036   4.289  1.7354  1.3725  0.3326
13169SOL     OW44191  11.835   7.835   7.945 -0.4128  0.1365 -0.6931
13169SOL    HW144192  11.779   7.912   7.958  1.2823  1.4892 -1.1280
13169SOL    HW244193  11.819   7.780   8.021 -2.0169  0.6654 -0.6096
13170SOL     OW44194   3.969   0.040   5.126  0.2974 -0.2171 -0.4367
13170SOL    HW144195   3.956   0.102   5.054 -0.0727 -1.0342 -1.0859
13170SOL    HW244196   3.881   0.019   5.157  0.4846  1.3866  1.3864
13171SOL     OW44197   1.089   1.658   6.874 -0.1054  0.2270 -0.3206
13171SOL    HW144198   1.042   1.576   6.887 -0.9175  0.8072  0.6947
13171SOL    HW244199   1.021   1.725   6.887  1.1091  1.1276  1.9513
13172SOL     OW44200  11.966   2.828   7.054  0.7959  0.0942  0.2914
13172SOL    HW144201  11.969   2.834   6.958 -2.7712 -2.0614 -0.1403
13172SOL    HW244202  12.040   2.773   7.076  1.4515  0.2884 -1.2778
13173SOL     OW44203   1.358   9.035   7.509 -0.3031  0.5598 -0.3397
13173SOL    HW144204   1.380   9.000   7.422 -2.3557 -1.1817 -0.2368
13173SOL    HW244205   1.388   9.126   7.506  3.6852 -0.5841 -1.2623
13174SOL     OW44206  10.538   7.595   7.562 -0.5238  0.0450 -0.2115
13174SOL    HW144207  10.554   7.688   7.580  0.0164  0.6800 -3.3418
13174SOL    HW244208  10.443   7.585   7.568 -0.4338  0.2624  2.1553
13175SOL     OW44209  10.644   8.235   6.940  0.0008 -0.2963  0.0820
13175SOL    HW144210  10.634   8.145   6.907 -1.4406  0.0513 -0.4795
13175SOL    HW244211  10.689   8.281   6.869  2.2672 -0.9090  1.0159
13176SOL     OW44212   7.451   1.630   9.207 -0.2718 -0.4243 -0.3761
13176SOL    HW144213   7.410   1.582   9.134  0.3414 -0.1182 -0.9331
13176SOL    HW244214   7.401   1.711   9.214 -0.3285 -0.4525 -0.4553
13177SOL     OW44215   7.090   9.500   8.682  0.1813 -0.3430 -0.3382
13177SOL    HW144216   7.007   9.548   8.685  0.2207 -0.3153  0.6882
13177SOL    HW244217   7.069   9.414   8.717  0.6703 -0.1891  0.3604
13178SOL     OW44218   8.405   1.734   1.931 -0.4348  0.5205 -0.0126
13178SOL    HW144219   8.491   1.772   1.946 -1.0783  1.9314  0.2341
13178SOL    HW244220   8.377   1.701   2.016  0.5004 -1.4126 -0.3950
13179SOL     OW44221   2.551   8.462   2.326  0.7275 -0.6080  0.4949
13179SOL    HW144222   2.521   8.480   2.237  0.3721 -0.8100  0.5665
13179SOL    HW244223   2.614   8.531   2.346  0.8687 -0.6095  0.0578
13180SOL     OW44224   3.921   9.952  10.042 -0.5347  0.2329 -0.2108
13180SOL    HW144225   3.916   9.923  10.133 -0.5476 -0.8467 -0.5380
13180SOL    HW244226   3.878   9.883   9.992 -1.7266  1.4487 -0.9229
13181SOL     OW44227   5.868   4.891   3.719 -0.2238  0.0338 -0.2685
13181SOL    HW144228   5.779   4.896   3.752 -0.6097  2.2646 -1.4218
13181SOL    HW244229   5.858   4.882   3.624  0.7671 -0.1040 -0.3697
13182SOL     OW44230   7.523  11.003   6.414 -0.0861  0.2369  0.3139
13182SOL    HW144231   7.475  11.086   6.415  0.3454  0.5672 -1.5245
13182SOL    HW244232   7.610  11.026   6.448  0.0034  0.5288 -0.0988
13183SOL     OW44233   6.400   2.213  10.517  1.0349  0.4059 -0.1943
13183SOL    HW144234   6.481   2.221  10.567  1.2053  1.1265 -0.5739
13183SOL    HW244235   6.376   2.303  10.495  0.2203  0.1886 -0.2274
13184SOL     OW44236   2.334  11.705   4.422  0.0278 -0.3590  0.2397
13184SOL    HW144237   2.249  11.748   4.426 -0.7648 -1.8929  0.8018
13184SOL    HW244238   2.397  11.776   4.414 -1.3317  0.7898 -0.6234
13185SOL     OW44239  10.806   8.189  11.864 -0.0292  0.0381  0.0775
13185SOL    HW144240  10.760   8.125  11.810  0.1927 -0.2034  0.1702
13185SOL    HW244241  10.736   8.235  11.911 -0.1802 -0.2954  0.1841
13186SOL     OW44242   7.393   5.134   4.717  0.4056  0.1560  0.0154
13186SOL    HW144243   7.417   5.222   4.745  2.3315  0.2645 -1.7902
13186SOL    HW244244   7.335   5.148   4.642  0.3356 -0.1416  0.0122
13187SOL     OW44245   8.437   0.636   6.541 -0.2908 -0.1959  0.2866
13187SOL    HW144246   8.358   0.582   6.540 -0.1134 -0.4519 -0.0866
13187SOL    HW244247   8.507   0.577   6.570 -0.3561  0.2049  1.2834
13188SOL     OW44248   4.352   9.856   0.879  0.0952 -0.0358 -0.4772
13188SOL    HW144249   4.303   9.791   0.829 -0.2504 -1.2226  1.3070
13188SOL    HW244250   4.443   9.827   0.873  0.4233  1.1828 -2.3273
13189SOL     OW44251   9.567  10.071   6.284  0.5164 -0.8106 -0.7017
13189SOL    HW144252   9.492  10.115   6.243  0.6367  0.1451  0.0704
13189SOL    HW244253   9.547  10.071   6.377  3.5028  3.8797  0.3005
13190SOL     OW44254   4.118   0.445   2.976  0.6336 -0.4610  0.0425
13190SOL    HW144255   4.091   0.456   2.885 -0.9829 -1.1592  0.4031
13190SOL    HW244256   4.192   0.506   2.986  0.1736  0.4098 -1.4355
13191SOL     OW44257   8.361   8.174   3.059 -0.0906 -0.4691  0.1550
13191SOL    HW144258   8.279   8.126   3.074  0.2453 -0.9761  0.4154
13191SOL    HW244259   8.355   8.203   2.968 -0.6817 -0.2585  0.2556
13192SOL     OW44260   3.034   3.040   8.688  0.1054 -0.3018 -0.2737
13192SOL    HW144261   3.009   3.092   8.612  0.2175 -1.0618 -0.8352
13192SOL    HW244262   3.076   3.103   8.747  0.0027  0.2935 -0.8264
13193SOL     OW44263   1.489   2.525   6.949  0.3308 -0.6314 -0.1293
13193SOL    HW144264   1.547   2.469   7.001  0.4363 -0.1588  0.2746
13193SOL    HW244265   1.410   2.534   7.003  1.5983  2.3964  1.5005
13194SOL     OW44266   8.721   3.519   2.154  0.2192 -0.2062  0.1866
13194SOL    HW144267   8.730   3.549   2.064 -0.4566  1.4033  0.6323
13194SOL    HW244268   8.708   3.598   2.206  0.1705 -1.1264  1.6618
13195SOL     OW44269   8.445   9.142   3.389 -0.3449  0.0714  0.0498
13195SOL    HW144270   8.405   9.086   3.323 -1.0573  1.2866 -0.5810
13195SOL    HW244271   8.539   9.130   3.376 -0.4819 -0.2302 -0.7286
13196SOL     OW44272   9.729   3.296  10.957 -0.3682 -0.0929  0.1505
13196SOL    HW144273   9.723   3.211  10.999 -1.4572  0.2523  0.7381
13196SOL    HW244274   9.695   3.282  10.868  0.7420 -0.5476 -0.2182
13197SOL     OW44275   7.945   6.933   4.280  0.1910 -0.0602  0.0317
13197SOL    HW144276   8.006   6.869   4.243 -0.7137 -0.0488 -1.5484
13197SOL    HW244277   7.995   7.015   4.280  0.3167 -0.1184 -0.9417
13198SOL     OW44278   4.006   2.193   6.101  0.1239  0.1752  0.1224
13198SOL    HW144279   4.074   2.155   6.046 -0.1461  0.0042 -0.0907
13198SOL    HW244280   3.926   2.190   6.048 -0.3124 -0.7126  0.7932
13199SOL     OW44281   5.256   4.642   4.002 -0.3995 -0.2853 -0.2363
13199SOL    HW144282   5.251   4.698   3.924 -1.1280 -1.0923 -0.7897
13199SOL    HW244283   5.166   4.614   4.017  0.0637 -1.9998 -0.4991
13200SOL     OW44284   7.704  11.158   6.569 -0.0902  0.3653  0.1765
13200SOL    HW144285   7.713  11.242   6.525 -0.9762  0.1869 -0.3896
13200SOL    HW244286   7.782  11.150   6.623 -0.0959  1.6424  0.4005
13201SOL     OW44287   6.491  10.915   6.149  0.7079  0.1064 -0.7701
13201SOL    HW144288   6.571  10.926   6.201 -1.1353  1.1939  2.0717
13201SOL    HW244289   6.504  10.833   6.101  2.8120 -0.6345  0.9472
13202SOL     OW44290  10.806   3.115   7.901 -0.2659 -0.2049 -0.8572
13202SOL    HW144291  10.742   3.145   7.838 -0.3593 -0.0728 -0.7010
13202SOL    HW244292  10.787   3.165   7.981  0.4754  0.3562 -1.0153
13203SOL     OW44293   0.742   2.610   8.944  0.4901  0.6364  0.0048
13203SOL    HW144294   0.688   2.586   9.019  0.0558 -1.4136 -0.8718
13203SOL    HW244295   0.832   2.605   8.976  0.3770 -1.4494  0.1501
13204SOL     OW44296  11.462   1.364   4.057 -0.0287  0.6662  0.3895
13204SOL    HW144297  11.480   1.277   4.020 -0.9872  0.4226  0.4837
13204SOL    HW244298  11.370   1.379   4.039  0.3588  2.1318 -0.5743
13205SOL     OW44299  10.333   2.787   1.661  0.4908 -0.1225  0.9259
13205SOL    HW144300  10.357   2.733   1.585  2.0503  3.5403 -1.4705
13205SOL    HW244301  10.411   2.786   1.716  1.2364  0.9956 -0.0453
13206SOL     OW44302  11.481   5.303  11.203 -0.4404  0.0360 -0.5010
13206SOL    HW144303  11.502   5.364  11.131 -1.5184 -0.9413 -1.7021
13206SOL    HW244304  11.489   5.216  11.163  0.2561 -0.6031  0.9583
13207SOL     OW44305  10.572   9.871   8.012  0.2858 -0.1286 -0.0809
13207SOL    HW144306  10.615   9.882   7.927 -0.9796  1.5548 -0.5549
13207SOL    HW244307  10.513   9.797   7.999 -1.4176  1.3706 -1.3807
13208SOL     OW44308   0.564   7.559   4.048 -0.0221 -0.0564  0.5572
13208SOL    HW144309   0.635   7.613   4.013  0.0817 -1.4263 -1.5566
13208SOL    HW244310   0.486   7.612   4.039  0.4045  0.6165  0.7525
13209SOL     OW44311  11.733   9.044   6.363 -0.5181 -0.3794 -0.4819
13209SOL    HW144312  11.638   9.034   6.358 -0.2891 -3.8179 -0.8834
13209SOL    HW244313  11.755   9.021   6.453  0.0908 -3.4211 -1.2882
13210SOL     OW44314   5.971   3.710   4.689  0.3700  0.1957 -0.1890
13210SOL    HW144315   5.956   3.658   4.768  0.6903  0.4890  0.0686
13210SOL    HW244316   5.898   3.772   4.688 -0.9606 -1.3202 -1.4022
13211SOL     OW44317   1.500  11.242   7.282 -0.1841  0.8504  0.4635
13211SOL    HW144318   1.573  11.181   7.274 -0.9649  0.0176 -0.5165
13211SOL    HW244319   1.534  11.312   7.339  1.5902  0.8248 -0.4739
13212SOL     OW44320   3.714   7.823  10.891 -0.3041  0.6165 -0.5672
13212SOL    HW144321   3.721   7.878  10.813  0.0683 -0.1521 -1.0946
13212SOL    HW244322   3.795   7.771  10.891 -1.4843 -1.3230 -1.1842
13213SOL     OW44323   8.625   5.151   8.653  0.9161  0.0186 -0.2751
13213SOL    HW144324   8.700   5.093   8.643  0.0233 -0.9714 -1.6591
13213SOL    HW244325   8.561   5.119   8.589 -1.3046 -0.1372  1.8491
13214SOL     OW44326   6.238   2.122   8.889  0.3514  0.3856  0.1004
13214SOL    HW144327   6.226   2.119   8.984 -2.0375  1.1605 -0.1082
13214SOL    HW244328   6.221   2.213   8.866  3.7126  0.9230 -0.8535
13215SOL     OW44329   0.032   3.856   4.831  0.4130 -0.0863 -0.2475
13215SOL    HW144330   0.073   3.942   4.837  0.9626 -0.3146 -0.6492
13215SOL    HW244331   0.024   3.827   4.922  0.9321  0.0632 -0.1504
13216SOL     OW44332   7.484   5.381  11.928  0.1035  0.1139 -0.4067
13216SOL    HW144333   7.439   5.404  12.009  1.0601  0.8921 -0.0662
13216SOL    HW244334   7.426   5.320  11.884 -0.3998 -0.3933  0.9109
13217SOL     OW44335   4.675   2.765   7.125 -0.0911 -0.5793  0.2024
13217SOL    HW144336   4.726   2.773   7.045  1.1180 -2.1168  0.7566
13217SOL    HW244337   4.733   2.799   7.194 -0.8680  0.1328  0.5356
13218SOL     OW44338   4.193  10.604   6.416 -0.1835  0.1561  0.4869
13218SOL    HW144339   4.287  10.587   6.430 -0.1172  0.3413  0.2739
13218SOL    HW244340   4.159  10.622   6.504  0.1770  1.0317  0.4600
13219SOL     OW44341   8.863   6.799   9.645 -0.3928  0.0187 -0.1530
13219SOL    HW144342   8.801   6.747   9.696  0.7674 -0.6876  0.5767
13219SOL    HW244343   8.866   6.884   9.689 -0.5985 -0.0568  0.0074
13220SOL     OW44344   5.382   0.517   5.462  0.1150 -0.5125 -0.2397
13220SOL    HW144345   5.449   0.498   5.396  0.4249 -0.6529  0.1085
13220SOL    HW244346   5.303   0.535   5.412  0.6742  0.7497 -0.7132
13221SOL     OW44347   6.074   7.896   3.214  0.4827  0.2559 -0.0425
13221SOL    HW144348   6.122   7.974   3.242  0.2526  0.6160 -0.6161
13221SOL    HW244349   5.992   7.930   3.178 -0.5015 -0.3864  1.4728
13222SOL     OW44350  10.125   9.395  10.485  0.2336  0.6500 -0.1959
13222SOL    HW144351  10.060   9.331  10.516  0.3378  0.9495  0.6708
13222SOL    HW244352  10.208   9.363  10.519  0.5172  0.4188 -1.0700
13223SOL     OW44353   6.672   0.295   7.504  0.5945  0.2936 -0.1577
13223SOL    HW144354   6.731   0.348   7.558 -0.4112 -0.6074  1.9001
13223SOL    HW244355   6.702   0.205   7.516 -0.3166 -0.0309 -0.2202
13224SOL     OW44356   1.277   6.183   2.693 -0.2438 -0.1076 -0.3527
13224SOL    HW144357   1.248   6.254   2.750  1.2041  2.2235 -2.3040
13224SOL    HW244358   1.355   6.218   2.649  0.0476 -2.6120 -2.0485
13225SOL     OW44359   8.933   8.152   5.077  0.0183  0.5059  0.4288
13225SOL    HW144360   8.852   8.184   5.037  0.5265 -0.0244 -1.1036
13225SOL    HW244361   9.000   8.214   5.049  0.1991  0.8659  1.5816
13226SOL     OW44362  10.507  11.803  11.892 -0.4038  0.4169  0.3769
13226SOL    HW144363  10.543  11.718  11.919  1.4525  0.9928 -0.0993
13226SOL    HW244364  10.581  11.847  11.849 -2.0890  1.1750 -1.9301
13227SOL     OW44365   3.204   2.963   5.100  0.1708  0.2412 -0.6162
13227SOL    HW144366   3.236   2.976   5.010 -1.7964 -1.6728 -1.7102
13227SOL    HW244367   3.122   3.013   5.103  0.2297  0.2976  0.1198
13228SOL     OW44368   6.445  11.462  10.779  0.3556 -0.1377  0.0444
13228SOL    HW144369   6.478  11.458  10.688  2.2019 -0.3015  0.6672
13228SOL    HW244370   6.455  11.554  10.804 -1.4614  0.1946 -0.3304
13229SOL     OW44371   6.749   2.602  11.083 -0.3819  0.5157 -0.0894
13229SOL    HW144372   6.816   2.583  11.018  1.1103  1.0789  1.2118
13229SOL    HW244373   6.710   2.684  11.055  0.3583  0.8345 -0.2073
13230SOL     OW44374   9.922   7.973   3.736 -0.0877 -0.9481  0.4380
13230SOL    HW144375  10.004   7.982   3.784  0.0276  1.3914 -0.0940
13230SOL    HW244376   9.945   7.995   3.646 -1.2610 -0.5192  0.2318
13231SOL     OW44377   7.886   2.981   1.982 -0.6529 -0.0176  0.7061
13231SOL    HW144378   7.927   3.066   1.964  0.0572 -0.6450 -0.7907
13231SOL    HW244379   7.866   2.984   2.076  1.2417  1.0218  1.1394
13232SOL     OW44380   1.578   1.359  10.303 -0.3218 -0.1347 -0.3972
13232SOL    HW144381   1.666   1.321  10.305  0.2433  1.1591  1.7884
13232SOL    HW244382   1.568   1.389  10.212  1.1377 -1.0318 -0.8954
13233SOL     OW44383   1.117   8.785   2.057  0.4168  0.5856 -0.2560
13233SOL    HW144384   1.203   8.810   2.093  1.2048 -0.4212 -1.3802
13233SOL    HW244385   1.137   8.737   1.977 -1.2567  1.6079 -1.3485
13234SOL     OW44386   4.470   2.547   5.779  0.0909 -0.0779 -0.0249
13234SOL    HW144387   4.437   2.575   5.864  0.2081 -0.8702  0.2908
13234SOL    HW244388   4.511   2.462   5.796  1.0970  0.2588 -0.6568
13235SOL     OW44389   5.564   9.411   6.316 -0.2310 -0.1594 -0.1810
13235SOL    HW144390   5.606   9.351   6.254  1.5450  2.3066 -1.5107
13235SOL    HW244391   5.636   9.451   6.364 -1.3297  1.1959  0.4127
13236SOL     OW44392   1.381   1.376  11.594  0.1518 -0.6535 -1.0291
13236SOL    HW144393   1.369   1.379  11.688  0.6716 -0.7304 -0.9579
13236SOL    HW244394   1.297   1.405  11.558  0.5455  1.2021 -0.5380
13237SOL     OW44395   3.498  10.480   9.727  0.1384  0.4564 -0.3832
13237SOL    HW144396   3.572  10.540   9.719 -0.9851  2.1692  1.1787
13237SOL    HW244397   3.538  10.395   9.747  1.8036  0.4608 -3.2077
13238SOL     OW44398   5.912   6.541   0.956  0.2854 -0.0174 -0.5402
13238SOL    HW144399   5.826   6.503   0.974 -0.2973  0.8447 -1.4267
13238SOL    HW244400   5.925   6.604   1.027  1.5118 -2.1534  1.2742
13239SOL     OW44401   8.069  11.080   7.506 -0.0129 -0.4547 -0.2143
13239SOL    HW144402   8.077  11.013   7.438 -1.5693  0.1666 -1.0611
13239SOL    HW244403   8.131  11.148   7.481 -1.1124  0.1266 -1.5000
13240SOL     OW44404   3.057   8.086   2.189 -0.3925 -0.2153 -0.2125
13240SOL    HW144405   2.993   8.036   2.241 -0.5597 -0.9262 -1.0776
13240SOL    HW244406   3.138   8.035   2.195 -0.6718 -0.8444 -1.4345
13241SOL     OW44407   4.982   3.090   5.796 -0.1231  0.2614  0.3456
13241SOL    HW144408   5.066   3.066   5.836  0.0242 -2.0880 -1.1465
13241SOL    HW244409   4.917   3.061   5.859  0.1687  0.0290  0.5462
13242SOL     OW44410   4.426   1.305   6.464  0.3174 -0.2065 -0.7289
13242SOL    HW144411   4.513   1.340   6.450  1.3364 -1.5938  1.5878
13242SOL    HW244412   4.419   1.231   6.403  1.1028 -0.5851 -0.3763
13243SOL     OW44413   5.079   4.830   7.913  0.1797 -0.4744 -0.1922
13243SOL    HW144414   5.014   4.767   7.882  1.3054 -1.4685 -0.5832
13243SOL    HW244415   5.050   4.852   8.002 -0.6595 -0.9409 -0.3415
13244SOL     OW44416   3.173   0.254   4.015  0.2034  0.6421 -0.0354
13244SOL    HW144417   3.104   0.238   4.080  1.0774  0.5573  0.8897
13244SOL    HW244418   3.138   0.324   3.960 -0.2515  1.2340  0.9759
13245SOL     OW44419   7.600   4.354   8.680 -0.6994  0.2971 -0.1738
13245SOL    HW144420   7.550   4.352   8.762  0.9978 -1.2739  0.9070
13245SOL    HW244421   7.553   4.293   8.622 -1.1866  0.4149  0.0942
13246SOL     OW44422   6.310   1.500   6.320 -0.3132  0.1225  0.6198
13246SOL    HW144423   6.329   1.494   6.414 -0.7609 -0.5920  0.6653
13246SOL    HW244424   6.220   1.531   6.315 -1.7331 -3.5480  0.5177
13247SOL     OW44425   7.114   0.412   0.157 -0.7801  0.0090  0.5930
13247SOL    HW144426   7.075   0.389   0.072 -1.5457 -0.2390  1.0001
13247SOL    HW244427   7.183   0.347   0.169  1.0429  1.5488 -0.9740
13248SOL     OW44428   9.606   0.740   0.969  0.3183  0.0288  0.0153
13248SOL    HW144429   9.574   0.700   1.050  1.7528  0.9909  1.1113
13248SOL    HW244430   9.671   0.678   0.936  1.8952  0.9311  1.2431
13249SOL     OW44431   8.781   5.716   4.353  0.5090  0.2181  0.2720
13249SOL    HW144432   8.765   5.621   4.354 -1.3534  0.5052  1.3051
13249SOL    HW244433   8.747   5.747   4.437  0.9486  1.8451 -0.1176
13250SOL     OW44434   5.796   9.227   1.003 -0.2955 -0.2263  0.4303
13250SOL    HW144435   5.706   9.194   0.998 -0.1252 -0.7215  0.5763
13250SOL    HW244436   5.824   9.233   0.912 -0.8488  1.0002  0.3139
13251SOL     OW44437   0.879  11.088   2.523 -1.0745 -0.1791  0.0820
13251SOL    HW144438   0.786  11.109   2.529 -1.4788 -0.9241 -2.2626
13251SOL    HW244439   0.919  11.170   2.492 -1.3356 -0.4668 -1.0637
13252SOL     OW44440   3.701   0.267   1.185  0.2923  0.0788  0.3721
13252SOL    HW144441   3.720   0.274   1.278  1.6471 -0.9333  0.1995
13252SOL    HW244442   3.683   0.174   1.171 -2.0017  0.5129 -0.0340
13253SOL     OW44443   6.059  10.396   1.953  0.0868 -0.2160 -0.6998
13253SOL    HW144444   6.123  10.331   1.922  0.4229  0.2916 -1.0972
13253SOL    HW244445   6.072  10.471   1.895 -0.8888 -0.1096 -0.7860
13254SOL     OW44446   5.560  11.117   2.678 -0.3216 -0.0283 -0.4821
13254SOL    HW144447   5.644  11.084   2.646 -0.6703 -0.5033 -0.9299
13254SOL    HW244448   5.578  11.207   2.706  0.5783 -0.4835  0.4716
13255SOL     OW44449   8.279   4.024   8.551 -0.5762 -0.2816  0.5003
13255SOL    HW144450   8.368   3.992   8.566  0.1449  0.1474 -2.2546
13255SOL    HW244451   8.223   3.957   8.590  0.9118 -0.7726  1.9280
13256SOL     OW44452   1.630   0.783   1.816 -0.3519 -0.6027 -0.8966
13256SOL    HW144453   1.602   0.791   1.907 -0.5014 -0.6653 -0.9360
13256SOL    HW244454   1.611   0.692   1.793 -0.3698 -0.5716 -1.0085
13257SOL     OW44455   3.361   1.267  10.419 -0.0558  0.4807  0.3509
13257SOL    HW144456   3.331   1.186  10.378  0.2031  0.4092  0.3031
13257SOL    HW244457   3.423   1.239  10.486  0.7489  0.6847 -0.2846
13258SOL     OW44458   9.796  11.181   7.891  0.8571 -0.1390  0.1102
13258SOL    HW144459   9.806  11.122   7.816  0.1148  0.3085 -0.3538
13258SOL    HW244460   9.745  11.131   7.955 -1.9993  0.8109 -1.2822
13259SOL     OW44461   5.251   3.040   4.896 -0.2285  0.4658 -0.1975
13259SOL    HW144462   5.156   3.034   4.911 -0.6168  2.4896 -1.5002
13259SOL    HW244463   5.288   3.062   4.981 -0.7916 -1.0553  0.4927
13260SOL     OW44464  10.332   9.953   9.537 -0.2789 -0.5338 -0.1444
13260SOL    HW144465  10.373   9.908   9.463 -1.5603 -2.7098  0.3765
13260SOL    HW244466  10.281   9.885   9.581  1.0140  0.4674  3.1923
13261SOL     OW44467   0.109   7.424   3.829  0.2501  0.0521  0.2411
13261SOL    HW144468   0.135   7.508   3.792 -0.3507  0.0054 -0.2924
13261SOL    HW244469   0.018   7.435   3.855 -0.4017 -0.9455 -1.4500
13262SOL     OW44470   4.774   5.469   8.694  0.9111  0.1701  0.4030
13262SOL    HW144471   4.772   5.375   8.676  2.4025  0.1815  0.0635
13262SOL    HW244472   4.824   5.477   8.775 -1.0069  0.5488  1.6311
13263SOL     OW44473   0.605   8.661   4.785  0.0661 -0.3004  0.6458
13263SOL    HW144474   0.565   8.730   4.837 -0.3926  1.5604 -1.9613
13263SOL    HW244475   0.680   8.703   4.743  0.9077 -1.9414  0.4105
13264SOL     OW44476   6.351  10.678   2.913 -0.0942 -0.5583 -0.5698
13264SOL    HW144477   6.363  10.656   3.005 -1.8633  3.7041  0.9693
13264SOL    HW244478   6.256  10.680   2.901 -0.0623  2.4237 -1.2910
13265SOL     OW44479   4.054   2.289   7.483 -0.1708  0.1230  0.0462
13265SOL    HW144480   4.028   2.381   7.485  0.2616  0.2473 -0.1205
13265SOL    HW244481   4.090   2.272   7.570  1.6340  0.6608 -0.5520
13266SOL     OW44482   6.474   3.399   9.352 -0.5049  0.3649 -0.1716
13266SOL    HW144483   6.552   3.452   9.369 -0.8406  0.9929 -0.5544
13266SOL    HW244484   6.467   3.398   9.257 -0.6416 -0.1696 -0.1574
13267SOL     OW44485   2.312   9.712   2.444 -0.0755 -0.7205  0.4679
13267SOL    HW144486   2.286   9.804   2.453 -1.3468 -1.1643  1.8187
13267SOL    HW244487   2.400   9.708   2.482 -0.0672 -0.0796  0.5242
13268SOL     OW44488   0.564   6.822   7.330  0.6638  0.7328 -0.3197
13268SOL    HW144489   0.591   6.872   7.406 -0.9826  2.7104 -0.9545
13268SOL    HW244490   0.644   6.810   7.279  1.5099  0.6274  1.0006
13269SOL     OW44491   5.111   4.041   4.384 -0.2909  0.1832 -0.1559
13269SOL    HW144492   5.174   4.054   4.455  0.2518 -0.2872 -0.5493
13269SOL    HW244493   5.036   4.096   4.409 -0.1599 -0.0699  0.8407
13270SOL     OW44494   5.135  11.370   1.643  0.1424 -0.5851  0.2961
13270SOL    HW144495   5.105  11.438   1.704 -0.5516  1.4750 -2.1652
13270SOL    HW244496   5.100  11.289   1.679 -2.1372  0.8166  1.4881
13271SOL     OW44497  10.821  11.269   7.272 -0.0012 -0.0292  0.1040
13271SOL    HW144498  10.778  11.354   7.284 -1.2041 -0.5035 -0.7336
13271SOL    HW244499  10.910  11.284   7.304 -0.9017  0.8043  2.5128
13272SOL     OW44500   3.262   9.525   1.816 -0.1955 -0.3179 -0.3722
13272SOL    HW144501   3.255   9.604   1.869  0.4627 -0.4976 -0.0181
13272SOL    HW244502   3.214   9.546   1.735 -1.1742 -0.0340  0.2602
13273SOL     OW44503   2.666  10.685   2.499 -0.4444  0.2335  0.2428
13273SOL    HW144504   2.737  10.639   2.542  0.7976  0.2209 -1.7185
13273SOL    HW244505   2.601  10.617   2.479  0.0480 -0.1633 -0.0110
13274SOL     OW44506   1.986   5.829   9.068  0.4357 -0.5955 -0.4282
13274SOL    HW144507   1.901   5.832   9.026  1.8070  0.8249 -3.4233
13274SOL    HW244508   1.991   5.911   9.119 -0.4400 -1.3201  0.8660
13275SOL     OW44509   3.293   5.058   0.011 -0.5081 -0.2779 -0.1908
13275SOL    HW144510   3.227   4.988   0.013  0.3522 -1.2707 -2.5140
13275SOL    HW244511   3.275   5.106  -0.069  1.0096 -0.0123 -0.4150
13276SOL     OW44512   8.312   1.813   8.635  0.4249 -0.1907  0.0988
13276SOL    HW144513   8.248   1.755   8.677 -1.0881  0.8790 -0.6459
13276SOL    HW244514   8.278   1.827   8.547  0.9261  1.5481  0.1402
13277SOL     OW44515   0.287   9.045  11.096  0.3622 -0.2655 -0.3211
13277SOL    HW144516   0.196   9.074  11.083  0.4217  0.6502  1.1114
13277SOL    HW244517   0.320   9.030  11.007 -0.6514  1.0697 -0.9579
13278SOL     OW44518   3.360   2.895   6.865 -0.0160 -0.7761  0.1123
13278SOL    HW144519   3.285   2.836   6.871 -0.7099  0.1095  0.4644
13278SOL    HW244520   3.394   2.881   6.777 -1.1847 -0.5257 -0.4059
13279SOL     OW44521   4.816   4.216   6.449  0.3393  0.1315  0.3625
13279SOL    HW144522   4.858   4.136   6.481 -1.0125 -0.7803 -0.0607
13279SOL    HW244523   4.877   4.252   6.385  1.1101 -0.3767  0.7971
13280SOL     OW44524   4.016   0.842   1.945 -0.5536  0.4303  0.5764
13280SOL    HW144525   4.088   0.863   1.885 -0.8126  1.0812  0.4873
13280SOL    HW244526   3.969   0.771   1.902 -0.7640  0.9252 -0.0256
13281SOL     OW44527   9.517  11.887   2.491  0.3012 -0.5772 -0.0209
13281SOL    HW144528   9.543  11.974   2.521  0.5817  0.2878 -2.5265
13281SOL    HW244529   9.526  11.831   2.568  2.4984  1.1265  1.0596
13282SOL     OW44530   7.488  10.129  10.433 -0.2915 -0.5120 -0.3863
13282SOL    HW144531   7.402  10.102  10.398 -0.1149  0.5919 -1.7638
13282SOL    HW244532   7.493  10.222  10.414  1.2845 -0.5940 -0.4540
13283SOL     OW44533   7.410   5.561   5.556 -0.6713 -0.1700  0.0346
13283SOL    HW144534   7.350   5.487   5.549  0.1487 -0.7897 -0.5626
13283SOL    HW244535   7.417   5.595   5.467  0.1309 -0.3192  0.0350
13284SOL     OW44536   1.463   8.158   7.194 -0.1254  0.1466 -0.5737
13284SOL    HW144537   1.516   8.079   7.194  1.3562  1.0858  0.4047
13284SOL    HW244538   1.384   8.135   7.244 -0.3173 -1.0429 -1.3883
13285SOL     OW44539   5.841   2.354  10.763 -0.0627  0.2052 -0.6087
13285SOL    HW144540   5.801   2.292  10.701 -0.8599  0.0207  0.0666
13285SOL    HW244541   5.766   2.390  10.811  0.6498 -1.4846  1.9651
13286SOL     OW44542   8.545   0.541   8.560 -0.7462 -0.1160  0.6138
13286SOL    HW144543   8.586   0.602   8.498 -1.6497  0.9353  1.0303
13286SOL    HW244544   8.602   0.464   8.558  2.1562  1.7905  2.2604
13287SOL     OW44545  11.364   4.033   2.522  0.1575  0.1170 -0.5498
13287SOL    HW144546  11.287   3.986   2.491  0.8122 -2.5424  1.5189
13287SOL    HW244547  11.352   4.123   2.489 -2.8223 -0.6467 -1.8839
13288SOL     OW44548   2.197   3.799   5.727 -0.0552  0.0689  0.5439
13288SOL    HW144549   2.210   3.885   5.767  0.5343  0.4908 -0.5249
13288SOL    HW244550   2.102   3.788   5.726 -0.1127 -0.6677  3.4683
13289SOL     OW44551   0.152   4.693   4.265 -0.3124  0.0735 -0.2971
13289SOL    HW144552   0.184   4.724   4.180  0.9961 -2.7482 -0.9507
13289SOL    HW244553   0.232   4.680   4.317 -0.8819 -0.9053  0.3554
13290SOL     OW44554  11.899   6.752   0.876  0.1483  0.1545  0.4680
13290SOL    HW144555  11.945   6.809   0.814  0.7479 -0.5661  0.2468
13290SOL    HW244556  11.967   6.720   0.935  0.2714 -2.3223 -0.9226
13291SOL     OW44557   2.241   2.686  10.332 -0.5031 -0.3046 -0.6326
13291SOL    HW144558   2.169   2.655  10.387 -0.0654  0.0387  0.1591
13291SOL    HW244559   2.313   2.624  10.348 -0.1240  0.2271 -0.2082
13292SOL     OW44560   9.786   8.738  10.121  0.0957 -0.3693 -0.4329
13292SOL    HW144561   9.816   8.825  10.148  0.3221 -0.8318  0.8946
13292SOL    HW244562   9.852   8.707  10.059  1.9058 -0.9558  1.6711
13293SOL     OW44563   0.072   4.150   8.159  0.8069  0.2536 -0.3388
13293SOL    HW144564   0.137   4.207   8.200  1.0007  0.0741 -0.3958
13293SOL    HW244565   0.116   4.066   8.148  0.2336 -0.1923  0.5948
13294SOL     OW44566   5.400  10.482   7.181 -0.0041  0.2521  0.4154
13294SOL    HW144567   5.375  10.417   7.247  1.7276  0.4226  1.2869
13294SOL    HW244568   5.437  10.555   7.231  1.5652  0.2977 -0.7441
13295SOL     OW44569   9.496   4.437   3.062  0.2288 -0.2518 -0.0020
13295SOL    HW144570   9.535   4.373   3.121  1.7753  0.1405 -0.5263
13295SOL    HW244571   9.538   4.520   3.086 -0.7729  0.3167 -0.1866
13296SOL     OW44572   0.732  10.261   2.700 -0.4330 -0.4814 -0.0801
13296SOL    HW144573   0.647  10.218   2.708 -0.0812 -1.1975 -0.1821
13296SOL    HW244574   0.725  10.339   2.756 -0.6596 -1.3130  1.0687
13297SOL     OW44575   8.595  11.960  11.557  0.0232 -0.8015  0.7254
13297SOL    HW144576   8.609  11.867  11.572  0.6204 -0.5634  1.7341
13297SOL    HW244577   8.665  12.003  11.606  1.1349  0.1161 -1.4978
13298SOL     OW44578   3.446   3.715   6.923  0.0947  0.1799 -0.3835
13298SOL    HW144579   3.455   3.733   6.829 -1.4548 -0.2857 -0.6429
13298SOL    HW244580   3.416   3.624   6.927 -2.0060  0.8676  0.4581
13299SOL     OW44581  11.144   0.595   6.112 -0.5116  0.3318  0.5063
13299SOL    HW144582  11.133   0.690   6.121 -0.3280  0.3859  0.1825
13299SOL    HW244583  11.239   0.581   6.118 -0.1394  0.5788 -2.9692
13300SOL     OW44584  10.790   3.711   5.289 -0.5030  0.1050 -0.3071
13300SOL    HW144585  10.808   3.708   5.196  0.2006 -1.8544 -0.1543
13300SOL    HW244586  10.876   3.715   5.331 -0.8181  1.2519  0.2807
13301SOL     OW44587   8.876   4.494   1.392  0.3063 -0.4637  0.0194
13301SOL    HW144588   8.948   4.553   1.412  0.8461 -1.1277  0.0829
13301SOL    HW244589   8.803   4.551   1.369  0.3584  0.2624  1.5870
13302SOL     OW44590   6.475   1.766   0.234  0.2522 -0.2959  0.2605
13302SOL    HW144591   6.541   1.711   0.192  0.1732  1.2209 -1.9632
13302SOL    HW244592   6.503   1.856   0.217  0.2078  0.4570  3.5296
13303SOL     OW44593   9.227  10.412   7.140 -0.4557 -0.4174 -0.0997
13303SOL    HW144594   9.320  10.406   7.158 -0.5219 -1.1939 -0.0061
13303SOL    HW244595   9.192  10.463   7.212 -0.4188 -1.8748  0.9888
13304SOL     OW44596   1.411  10.872   7.215  0.2561 -0.6593 -0.1518
13304SOL    HW144597   1.428  10.871   7.120  0.6553 -1.8424 -0.0816
13304SOL    HW244598   1.330  10.923   7.224  2.8098  4.0130 -0.6317
13305SOL     OW44599   3.357   5.748   2.259  0.3464  0.2527 -0.1710
13305SOL    HW144600   3.311   5.796   2.191  1.1116 -0.2646 -1.0734
13305SOL    HW244601   3.418   5.812   2.296 -0.5098  0.7115  0.4778
13306SOL     OW44602  10.550  10.900   4.007  0.2223  0.6338  0.4591
13306SOL    HW144603  10.544  10.994   4.022  1.5349  0.7573  0.3645
13306SOL    HW244604  10.584  10.891   3.919 -2.2505 -0.0126 -0.5204
13307SOL     OW44605   1.051   7.854   7.401 -0.5991  0.8719 -0.1952
13307SOL    HW144606   1.061   7.936   7.448  0.1318 -0.4631  2.1452
13307SOL    HW244607   0.959   7.832   7.409 -0.8738  1.5986 -1.1484
13308SOL     OW44608   0.971   3.787   7.673 -0.8195 -0.2831  0.2063
13308SOL    HW144609   1.041   3.789   7.739 -0.0470 -1.2759 -0.5568
13308SOL    HW244610   0.893   3.816   7.721  0.0663  0.7222  1.1119
13309SOL     OW44611   2.947  10.389   8.722  0.3819 -0.0170 -0.3868
13309SOL    HW144612   2.961  10.472   8.766  0.8083 -0.2506 -0.0826
13309SOL    HW244613   2.852  10.375   8.726  0.3976  0.0504  0.2981
13310SOL     OW44614   2.980   7.799   1.653  0.1270  0.3054 -0.3222
13310SOL    HW144615   2.995   7.893   1.662  0.0637  0.4505 -1.5820
13310SOL    HW244616   2.952   7.771   1.740  0.3691  1.4068  0.1267
13311SOL     OW44617  11.023   6.574   6.167  0.4975 -0.0729 -0.4168
13311SOL    HW144618  11.069   6.546   6.089 -0.0462  0.3213 -0.8878
13311SOL    HW244619  10.930   6.558   6.148  0.3183  0.5049 -0.0574
13312SOL     OW44620   2.444   7.140   4.396  0.8503  0.9812  0.2526
13312SOL    HW144621   2.363   7.187   4.381 -0.4927 -1.1562  0.3663
13312SOL    HW244622   2.468   7.161   4.487  0.2819  1.4271  0.3009
13313SOL     OW44623   0.284   2.932   3.007 -0.0902  0.1776 -0.4329
13313SOL    HW144624   0.259   2.862   3.068 -0.9111 -0.9247 -1.9530
13313SOL    HW244625   0.243   2.906   2.924  0.6250  1.8488 -1.3419
13314SOL     OW44626   9.732   8.670   9.555 -0.2017  0.7514 -0.7186
13314SOL    HW144627   9.785   8.612   9.609  1.6358  0.4861 -2.7010
13314SOL    HW244628   9.735   8.755   9.600 -0.0480  0.1787  0.3876
13315SOL     OW44629   8.546   0.342   5.681 -0.0358 -0.1467 -0.1524
13315SOL    HW144630   8.473   0.323   5.621 -1.3910 -0.5946  1.5650
13315SOL    HW244631   8.568   0.257   5.720  1.1292  0.0649 -0.2978
13316SOL     OW44632   0.380   6.523   7.736 -0.2318  0.5324  0.1198
13316SOL    HW144633   0.314   6.488   7.797 -1.4879  0.3844 -1.2708
13316SOL    HW244634   0.386   6.457   7.667 -0.6639  1.7887 -1.1638
13317SOL     OW44635   5.716   5.455   6.574 -0.4903 -0.2949  0.5377
13317SOL    HW144636   5.754   5.475   6.659 -1.5155  1.2938  0.6526
13317SOL    HW244637   5.690   5.363   6.580  1.3403 -0.8143  1.1812
13318SOL     OW44638   6.864   4.698  11.780  0.2058 -0.0324  0.3170
13318SOL    HW144639   6.875   4.608  11.810  0.9934  0.0151  0.1913
13318SOL    HW244640   6.895   4.697  11.689  1.2538  0.5776  0.6413
13319SOL     OW44641   2.738  10.168   8.863 -0.3023  0.1786  0.0804
13319SOL    HW144642   2.767  10.108   8.794  1.6708  0.8358  0.2854
13319SOL    HW244643   2.772  10.130   8.944  0.1185  1.0719  0.3245
13320SOL     OW44644  10.313   6.636  10.711  0.3632  0.3629 -0.4298
13320SOL    HW144645  10.218   6.622  10.709  0.2660  0.6396  1.0009
13320SOL    HW244646  10.344   6.603  10.627 -0.8815 -0.6358 -0.5298
13321SOL     OW44647   4.488   9.715   3.438 -0.8357 -0.2014 -0.2010
13321SOL    HW144648   4.461   9.693   3.528 -1.3686  2.2944  0.3320
13321SOL    HW244649   4.582   9.733   3.445 -0.9574  0.3999 -0.0286
13322SOL     OW44650   9.698   7.840  10.259 -0.0794  0.6630 -0.0278
13322SOL    HW144651   9.637   7.910  10.282 -0.8258 -0.1107  0.3996
13322SOL    HW244652   9.701   7.784  10.337  1.2477  0.7375 -0.0156
13323SOL     OW44653   5.584   1.889   9.550 -0.4754 -0.1406 -0.0197
13323SOL    HW144654   5.603   1.810   9.599 -0.3803  0.2659  0.6054
13323SOL    HW244655   5.574   1.859   9.459 -2.3125 -1.1412  0.4619
13324SOL     OW44656   0.885   1.150   9.725  0.9969  0.0930  0.0886
13324SOL    HW144657   0.814   1.210   9.749  1.5190  0.7500  0.0119
13324SOL    HW244658   0.921   1.122   9.809  0.5760 -0.3408  0.1315
13325SOL     OW44659   4.443   7.162   9.047  0.2196 -0.2320  0.1440
13325SOL    HW144660   4.474   7.193   9.133  1.3540 -1.1413  0.0828
13325SOL    HW244661   4.373   7.101   9.068 -2.1668  2.3434  0.2638
13326SOL     OW44662   6.144   9.841   8.591 -0.2720 -0.8432  0.1414
13326SOL    HW144663   6.193   9.917   8.622 -0.4618 -0.7667  0.2548
13326SOL    HW244664   6.133   9.857   8.497 -0.7379 -0.4913  0.2533
13327SOL     OW44665   5.802   4.044   7.493  0.0392  0.1698 -0.1101
13327SOL    HW144666   5.894   4.060   7.470 -0.0105  0.8300  0.1294
13327SOL    HW244667   5.807   3.988   7.571  0.2465  0.6633  0.2342
13328SOL     OW44668   1.952   1.065   9.144  0.0746 -0.2756 -0.0699
13328SOL    HW144669   1.997   1.143   9.175 -0.1617 -1.1772  2.8512
13328SOL    HW244670   1.871   1.097   9.105  0.5290  0.9924 -0.0121
13329SOL     OW44671   2.434  10.996   3.966 -0.0560  0.0225  0.5325
13329SOL    HW144672   2.381  11.010   4.045 -1.0832  0.2084 -0.1771
13329SOL    HW244673   2.398  10.917   3.926 -1.8474  1.7597 -1.5452
13330SOL     OW44674   5.497  10.390   3.787  0.2812 -0.3441 -0.2486
13330SOL    HW144675   5.460  10.450   3.722 -0.8128  0.2202  0.8665
13330SOL    HW244676   5.583  10.427   3.807  0.2133  0.0355 -0.6398
13331SOL     OW44677   2.395   4.478  11.176 -0.0923 -0.8478  0.3500
13331SOL    HW144678   2.407   4.530  11.255  0.6819 -0.9171  0.2808
13331SOL    HW244679   2.328   4.525  11.127  0.5238  0.0350  0.3323
13332SOL     OW44680  10.325   3.471   3.366  0.0524  0.3576  0.5343
13332SOL    HW144681  10.347   3.383   3.399  0.7133 -0.1093 -1.0310
13332SOL    HW244682  10.410   3.515   3.358 -0.1631  0.7200  0.1964
13333SOL     OW44683   2.828   9.861   5.262 -1.1089 -0.0934 -0.3069
13333SOL    HW144684   2.735   9.861   5.285 -1.2090  1.5136 -0.5905
13333SOL    HW244685   2.845   9.949   5.229  0.0065 -1.0003 -2.3974
13334SOL     OW44686   1.560  10.559  10.223  0.5309 -0.2236  0.2344
13334SOL    HW144687   1.468  10.549  10.248 -0.4549  1.4541 -2.3191
13334SOL    HW244688   1.595  10.624  10.283 -1.5410  3.1328 -1.8965
13335SOL     OW44689   2.924   6.169   2.560 -0.1133 -0.0660 -0.3224
13335SOL    HW144690   2.898   6.133   2.476 -3.4051  0.4058  0.3782
13335SOL    HW244691   3.005   6.123   2.582  0.7248 -0.3411 -3.5865
13336SOL     OW44692   4.349   6.514   5.470  0.5062  0.3481 -0.6095
13336SOL    HW144693   4.418   6.455   5.502 -0.4489 -1.1110 -1.1223
13336SOL    HW244694   4.270   6.460   5.471 -0.5633  1.8622 -0.4327
13337SOL     OW44695   9.512   5.923   6.665 -0.1317  0.2789  0.0767
13337SOL    HW144696   9.597   5.884   6.647 -0.4922 -0.3391 -0.3305
13337SOL    HW244697   9.517   5.951   6.757 -0.4354 -2.3279  0.9903
13338SOL     OW44698   0.940  11.851   6.308  0.0842  0.4614 -0.0335
13338SOL    HW144699   1.016  11.908   6.321 -0.8184  2.0285 -1.2265
13338SOL    HW244700   0.949  11.820   6.217 -0.1945 -0.1503  0.1429
13339SOL     OW44701   9.767   3.417   4.210 -0.0026  0.3850  0.4252
13339SOL    HW144702   9.712   3.448   4.137 -1.2501  0.4565  1.3578
13339SOL    HW244703   9.797   3.331   4.182 -3.2029 -1.0855  1.1247
13340SOL     OW44704   0.746   8.759   0.451 -0.4095 -0.9199  0.1709
13340SOL    HW144705   0.678   8.816   0.414  0.4809  2.7746  3.5968
13340SOL    HW244706   0.827   8.788   0.410 -0.1934 -1.1727  0.4149
13341SOL     OW44707   9.303   5.789   0.312  0.1752 -0.5611 -0.2978
13341SOL    HW144708   9.364   5.715   0.315  0.4462 -0.3728 -1.0176
13341SOL    HW244709   9.360   5.866   0.301 -0.1629 -0.3264 -0.4010
13342SOL     OW44710  11.562   2.676  11.758 -0.7315  0.6380 -0.4233
13342SOL    HW144711  11.497   2.718  11.815  0.4013  0.7271  0.8450
13342SOL    HW244712  11.575   2.739  11.686 -2.1052  0.5649 -0.7670
13343SOL     OW44713   6.159   2.168  10.322  0.4653  0.2545 -0.1108
13343SOL    HW144714   6.127   2.137  10.238 -0.0456 -2.1502  0.9029
13343SOL    HW244715   6.170   2.263  10.310 -1.9717  0.3799 -2.1163
13344SOL     OW44716  10.741   5.121   2.446  0.4127  0.1174 -0.2929
13344SOL    HW144717  10.696   5.184   2.501  0.0087 -1.4881  1.3206
13344SOL    HW244718  10.704   5.135   2.359 -0.8629  0.9967  0.3571
13345SOL     OW44719   9.258   9.076   1.595 -0.2538  0.0708  0.4099
13345SOL    HW144720   9.312   9.027   1.533 -0.9178 -0.4354  0.2211
13345SOL    HW244721   9.299   9.162   1.601  1.1849 -0.6334  1.0762
13346SOL     OW44722  11.582  10.833   5.046 -0.5837 -0.0725 -0.6862
13346SOL    HW144723  11.499  10.796   5.017 -1.2772  0.7336  0.1960
13346SOL    HW244724  11.581  10.923   5.015 -0.5062  0.2475  0.1892
13347SOL     OW44725   5.359   2.232   8.331  0.4159 -0.1273  0.5774
13347SOL    HW144726   5.326   2.163   8.274 -2.3001  0.6442  1.0861
13347SOL    HW244727   5.401   2.186   8.404 -0.2325 -1.1935  0.2896
13348SOL     OW44728   0.306   1.214   4.233 -0.0339 -0.4345 -0.3968
13348SOL    HW144729   0.311   1.255   4.147  0.6425 -2.3335 -1.3317
13348SOL    HW244730   0.324   1.121   4.216 -1.4954 -1.1466  1.5787
13349SOL     OW44731   8.103   8.723  11.850 -0.4094 -0.6804 -0.2068
13349SOL    HW144732   8.197   8.739  11.840 -0.4809 -0.9597 -1.4959
13349SOL    HW244733   8.098   8.636  11.891 -0.0740  1.2163  4.4579
13350SOL     OW44734  10.921   4.641   7.689 -0.2021  0.0206  0.8066
13350SOL    HW144735  10.952   4.649   7.779  1.2618 -0.8207  0.4080
13350SOL    HW244736  10.877   4.556   7.687  0.7617 -0.4835  0.4703
13351SOL     OW44737   0.058   6.996   8.626 -0.0687 -0.0026 -0.2078
13351SOL    HW144738   0.088   6.940   8.698 -0.4795  0.9809  0.7512
13351SOL    HW244739   0.105   7.078   8.638 -0.0893  0.1562 -1.1260
13352SOL     OW44740   0.696  10.025  10.316 -0.5814  0.7949  0.5177
13352SOL    HW144741   0.641   9.953  10.348 -4.0310  2.4220 -1.1787
13352SOL    HW244742   0.761   9.981  10.261 -1.3294 -1.1756  1.0876
13353SOL     OW44743   3.899   0.524   7.897 -0.3249 -0.0734 -0.1832
13353SOL    HW144744   3.915   0.440   7.854 -0.9612  0.6781 -2.0032
13353SOL    HW244745   3.984   0.551   7.929  0.3611 -0.3349 -1.6908
13354SOL     OW44746   7.576   5.344   5.964 -0.4315 -0.0056  0.3698
13354SOL    HW144747   7.647   5.282   5.949 -0.2661 -0.0977  1.4652
13354SOL    HW244748   7.518   5.300   6.027 -1.7763 -0.1746 -0.9303
13355SOL     OW44749  10.720   6.667   4.466  0.4838 -0.4816  0.2014
13355SOL    HW144750  10.789   6.620   4.513  0.2102  0.3477  1.4891
13355SOL    HW244751  10.762   6.697   4.385  1.1161 -1.5056  0.1294
13356SOL     OW44752   6.988   8.675   0.175 -0.0707  0.4031  0.1652
13356SOL    HW144753   7.004   8.769   0.173 -1.1676  0.6003  0.0489
13356SOL    HW244754   7.015   8.647   0.262  0.7693  0.7246  0.0094
13357SOL     OW44755   9.202   4.584   8.052  0.1664 -0.3645 -0.6445
13357SOL    HW144756   9.179   4.497   8.086 -0.8627  0.9900  2.5617
13357SOL    HW244757   9.284   4.571   8.005 -0.6483 -3.2561 -1.4849
13358SOL     OW44758   1.982   1.028  11.277 -0.7109  0.4771 -0.4933
13358SOL    HW144759   1.907   1.038  11.334 -0.6008  3.5913 -0.7491
13358SOL    HW244760   1.958   1.073  11.196  1.4670  1.8840 -0.4566
13359SOL     OW44761   7.181   4.685  11.864  0.0134 -0.1329 -0.1025
13359SOL    HW144762   7.208   4.776  11.877 -2.5763  0.5413  1.2129
13359SOL    HW244763   7.178   4.648  11.952  0.4383 -1.3256 -0.5691
13360SOL     OW44764   5.603   0.546   5.072  0.6721 -0.1820  0.4018
13360SOL    HW144765   5.548   0.601   5.016 -0.0817 -1.0926  0.2104
13360SOL    HW244766   5.676   0.602   5.097 -0.6668  1.3193  1.2095
13361SOL     OW44767   1.746   9.118  10.639 -0.0053 -0.4545  0.3550
13361SOL    HW144768   1.814   9.161  10.587 -0.4107 -0.1411  0.0691
13361SOL    HW244769   1.726   9.037  10.592 -0.2989 -0.2210  0.0696
13362SOL     OW44770   5.199  11.880   1.080 -0.0421 -0.8086  0.2955
13362SOL    HW144771   5.245  11.839   1.006  1.8570 -1.0915  1.5553
13362SOL    HW244772   5.106  11.864   1.063  0.1268  0.8996 -3.0426
13363SOL     OW44773   6.564   6.934   1.564 -0.0036 -0.2448 -0.8229
13363SOL    HW144774   6.527   6.850   1.538 -0.9045 -0.2961  0.5602
13363SOL    HW244775   6.490   6.995   1.562  0.4793  0.3523 -1.0249
13364SOL     OW44776   4.281  11.300   2.115 -0.4249  0.1409  0.3196
13364SOL    HW144777   4.376  11.309   2.121 -0.4821  1.0753  0.0245
13364SOL    HW244778   4.261  11.317   2.023 -0.9529  0.7764  0.5470
13365SOL     OW44779   0.125   2.796   1.389  0.1232 -0.0002 -0.1531
13365SOL    HW144780   0.058   2.855   1.354  1.9656  1.3793 -1.6100
13365SOL    HW244781   0.103   2.710   1.353 -2.1123 -0.1064  1.2916
13366SOL     OW44782   1.320   5.523  10.731 -0.2849  0.1806  0.2030
13366SOL    HW144783   1.358   5.539  10.645 -0.9196 -2.2385 -0.6341
13366SOL    HW244784   1.239   5.573  10.732 -0.3479  0.1036 -0.6906
13367SOL     OW44785   8.684   1.715   9.753 -0.3246  0.3373 -0.4533
13367SOL    HW144786   8.694   1.637   9.808  0.7597  0.6963 -0.1197
13367SOL    HW244787   8.613   1.693   9.693 -0.3930 -0.7011 -0.0136
13368SOL     OW44788  11.251  11.395   7.874  0.0119 -0.0478  0.2739
13368SOL    HW144789  11.219  11.304   7.871  0.3007 -0.1444  0.0763
13368SOL    HW244790  11.345  11.386   7.888  0.1712  0.1990 -0.5687
13369SOL     OW44791   7.991   3.381   2.510  0.2700  0.3893  0.0572
13369SOL    HW144792   8.063   3.440   2.491  1.8525 -1.0331  1.3505
13369SOL    HW244793   8.018   3.334   2.589 -2.5270  0.5061  1.2155
13370SOL     OW44794   3.962   4.437   4.334 -0.0086  0.4291  0.2055
13370SOL    HW144795   4.013   4.434   4.253  1.2211  0.3290  0.9575
13370SOL    HW244796   3.953   4.346   4.360 -0.2334  0.4746  0.2911
13371SOL     OW44797   0.844   7.968   6.573 -0.2467 -0.2383  0.3110
13371SOL    HW144798   0.934   7.937   6.587 -0.7123 -1.8173  0.0463
13371SOL    HW244799   0.845   8.005   6.484  0.5944  1.6499  1.0545
13372SOL     OW44800   9.348   1.467  11.656  0.0534 -0.4212  0.2000
13372SOL    HW144801   9.256   1.480  11.679 -0.0198  0.4270 -0.5073
13372SOL    HW244802   9.348   1.461  11.560  0.7379 -0.3836  0.1948
13373SOL     OW44803   6.778   0.796   5.480  0.0200 -0.4480 -0.5176
13373SOL    HW144804   6.710   0.776   5.545 -0.0274  2.0399  0.3436
13373SOL    HW244805   6.852   0.826   5.532  0.2345  0.9168 -1.5460
13374SOL     OW44806   9.390   9.671   9.579  0.3505  0.3542 -0.1877
13374SOL    HW144807   9.370   9.654   9.487 -0.8347 -1.1692  0.2836
13374SOL    HW244808   9.340   9.750   9.600 -0.8306 -0.2840 -0.4499
13375SOL     OW44809   8.969   0.520   4.796  0.1499 -0.1364 -0.1595
13375SOL    HW144810   9.063   0.506   4.813  0.3616  2.1559  1.1445
13375SOL    HW244811   8.927   0.506   4.881  0.1312  3.8840  0.7241
13376SOL     OW44812  11.316   8.289   5.297 -0.4722  0.5176 -0.2547
13376SOL    HW144813  11.338   8.382   5.298 -0.4659  0.5169 -0.2776
13376SOL    HW244814  11.228   8.284   5.335 -0.2753  0.4807  0.1948
13377SOL     OW44815   0.647   0.761   6.794  0.5350 -0.3859  0.3015
13377SOL    HW144816   0.723   0.789   6.743  0.0710 -1.2016 -0.8938
13377SOL    HW244817   0.620   0.679   6.753 -1.5431  0.3400  0.1022
13378SOL     OW44818   4.370   6.996   2.121  0.0294 -0.3550  0.3293
13378SOL    HW144819   4.358   7.091   2.124  0.0870 -0.3556  0.6471
13378SOL    HW244820   4.462   6.985   2.098 -0.0987 -0.3381 -0.1988
13379SOL     OW44821   2.854   9.197   6.738  0.0252  0.2746 -0.4618
13379SOL    HW144822   2.936   9.213   6.692  0.5208  1.1823  0.6860
13379SOL    HW244823   2.786   9.218   6.673  0.7006  2.2300 -0.6006
13380SOL     OW44824   7.941   8.474  10.706 -0.6468  0.6123  0.2483
13380SOL    HW144825   8.030   8.476  10.671 -1.3337 -0.8848 -1.7984
13380SOL    HW244826   7.951   8.453  10.799  1.1157  0.0381 -0.0446
13381SOL     OW44827   9.137  11.595   7.138 -0.1951 -0.1252 -0.2955
13381SOL    HW144828   9.165  11.505   7.119  0.2545  0.1001 -0.7438
13381SOL    HW244829   9.206  11.630   7.194  0.2448  0.3192 -1.1041
13382SOL     OW44830   6.643   1.733   3.495 -0.2333 -0.5426 -0.6304
13382SOL    HW144831   6.678   1.658   3.543 -1.0172 -0.7512 -0.3670
13382SOL    HW244832   6.633   1.801   3.563  2.1281  0.4316 -1.1580
13383SOL     OW44833   0.650   4.412  10.000  0.1682  0.0193  1.2221
13383SOL    HW144834   0.590   4.447   9.934 -0.1692 -0.4328  1.2804
13383SOL    HW244835   0.657   4.481  10.065  1.6328  1.0562  0.0276
13384SOL     OW44836   6.484   8.238   8.563 -0.5346 -0.7658  0.0031
13384SOL    HW144837   6.505   8.182   8.637  0.5787  0.3768  0.5760
13384SOL    HW244838   6.559   8.229   8.504  0.6764  1.6648  1.0579
13385SOL     OW44839   7.676   8.101   4.194 -0.3787  0.0471  0.3623
13385SOL    HW144840   7.610   8.089   4.263  0.0823 -0.5626  0.7011
13385SOL    HW244841   7.625   8.129   4.118 -0.8988  0.7220  0.9401
13386SOL     OW44842   9.284   9.354   6.692  0.3303 -0.2161  0.8313
13386SOL    HW144843   9.366   9.365   6.741 -0.0289 -0.2262  1.4390
13386SOL    HW244844   9.280   9.260   6.674 -1.3003 -0.8890  3.9637
13387SOL     OW44845   6.852   8.735   5.714 -0.0810  0.4743  0.6833
13387SOL    HW144846   6.868   8.647   5.750 -1.3344  0.0542  0.2593
13387SOL    HW244847   6.887   8.795   5.781  2.2455 -0.3235  0.2812
13388SOL     OW44848   4.451  10.430   1.974 -0.1127 -0.0475  0.4684
13388SOL    HW144849   4.429  10.339   1.992  0.4036 -0.2400  0.1591
13388SOL    HW244850   4.416  10.479   2.048 -1.1485 -0.3897  0.2206
13389SOL     OW44851   7.779   9.393   9.322 -0.1799 -0.8623 -0.0680
13389SOL    HW144852   7.864   9.421   9.289  0.2945 -1.3606  0.7221
13389SOL    HW244853   7.725   9.473   9.319  0.0555 -0.7189 -1.3148
13390SOL     OW44854   6.987   8.842   4.643 -0.2483  0.3571  0.2709
13390SOL    HW144855   6.972   8.831   4.737 -1.0062  0.9480  0.2238
13390SOL    HW244856   6.912   8.892   4.612 -0.6827 -0.9667 -0.9012
13391SOL     OW44857   6.992  11.570   9.259 -0.0164  0.1333 -0.3672
13391SOL    HW144858   7.008  11.603   9.171  0.5667 -0.5197 -0.5094
13391SOL    HW244859   6.913  11.616   9.288  0.4089  1.1680 -0.8078
13392SOL     OW44860   1.220  10.604   3.950 -0.1232  0.7518 -0.7567
13392SOL    HW144861   1.140  10.632   3.906 -0.5538  1.2228  0.2817
13392SOL    HW244862   1.194  10.524   3.997  0.0302  0.8748 -0.4637
13393SOL     OW44863   5.255   9.631   2.301 -0.0839 -0.1722 -0.2503
13393SOL    HW144864   5.199   9.586   2.237  1.9097 -2.5999 -0.4615
13393SOL    HW244865   5.336   9.647   2.253  1.8323 -2.9192  1.7665
13394SOL     OW44866   5.618   2.185   7.424  0.5186  0.3936  0.0507
13394SOL    HW144867   5.657   2.272   7.432 -2.0710  1.5331  1.1300
13394SOL    HW244868   5.525   2.201   7.409  0.1523 -2.2146 -1.0537
13395SOL     OW44869   2.787  11.673   9.641 -0.5586  0.1191  0.0496
13395SOL    HW144870   2.844  11.720   9.702 -1.1955 -0.3481  1.0420
13395SOL    HW244871   2.810  11.708   9.555  0.8527  0.3084  0.4682
13396SOL     OW44872   9.359   1.106  10.653  0.0586 -0.3032 -0.4238
13396SOL    HW144873   9.402   1.024  10.678  1.8350  0.9116  0.7852
13396SOL    HW244874   9.431   1.168  10.640 -1.2746  1.7327  1.2477
13397SOL     OW44875   9.955   9.157   4.739 -0.3243 -0.0634  0.7637
13397SOL    HW144876   9.933   9.090   4.674 -1.4065  1.2449 -0.3006
13397SOL    HW244877   9.974   9.235   4.687 -0.4431  0.8245  2.0059
13398SOL     OW44878   4.052  11.147   4.382  0.0441  0.4243 -0.5014
13398SOL    HW144879   3.968  11.101   4.379 -0.4627  1.3749 -1.4304
13398SOL    HW244880   4.116  11.079   4.403 -0.9653 -0.2895  0.3757
13399SOL     OW44881   1.698   9.897  10.398 -0.0905  0.0371 -0.5585
13399SOL    HW144882   1.757   9.832  10.360  2.3865  1.3547  0.8071
13399SOL    HW244883   1.729   9.981  10.364  0.9950  1.0864  2.6789
13400SOL     OW44884   0.445   3.739   9.017  0.2102  0.4563  0.1281
13400SOL    HW144885   0.513   3.697   8.964  0.2429 -0.2694  0.7150
13400SOL    HW244886   0.433   3.825   8.978  0.2739 -0.0373 -1.0180
13401SOL     OW44887   2.582   8.344   0.408 -0.3136 -0.3808  0.1930
13401SOL    HW144888   2.510   8.351   0.345 -0.9974 -2.7637  0.5990
13401SOL    HW244889   2.645   8.286   0.366 -0.0189 -0.6778  1.0232
13402SOL     OW44890   8.900   5.664   3.431  0.0733  0.4314 -0.0738
13402SOL    HW144891   8.818   5.709   3.446 -0.2838 -0.1968 -0.1085
13402SOL    HW244892   8.893   5.629   3.342 -0.6627 -1.7208  0.7549
13403SOL     OW44893   9.718   3.006   2.222 -0.1580  0.3231 -0.6666
13403SOL    HW144894   9.751   3.058   2.150 -0.3832  0.3588 -0.7456
13403SOL    HW244895   9.721   2.916   2.190 -1.5674  0.4559 -1.2515
13404SOL     OW44896   0.478  10.588   7.783 -0.7355  0.1768  0.1770
13404SOL    HW144897   0.398  10.589   7.731  0.0478  2.2088 -1.1412
13404SOL    HW244898   0.451  10.556   7.869 -2.8514  0.3499 -0.3721
13405SOL     OW44899  11.154   2.773   5.486 -0.3715  0.1001  0.2302
13405SOL    HW144900  11.198   2.754   5.403  0.2994 -0.6621  0.7479
13405SOL    HW244901  11.182   2.862   5.508 -1.0284  0.5392 -0.6433
13406SOL     OW44902  10.057   9.475   3.992  0.1102  0.4710  0.4351
13406SOL    HW144903  10.047   9.474   3.897  0.7545 -0.8529  0.3495
13406SOL    HW244904  10.099   9.559   4.011 -0.9949  1.2225 -0.3170
13407SOL     OW44905   4.480  10.957  11.478  0.5204  0.6883 -0.0996
13407SOL    HW144906   4.402  10.942  11.424  1.7303 -0.9946 -1.5061
13407SOL    HW244907   4.461  10.912  11.560  0.7831 -1.6096 -1.2178
13408SOL     OW44908   3.902   5.482  10.909  0.9389 -0.4253 -0.2494
13408SOL    HW144909   3.914   5.505  11.001  2.2902 -0.0668 -0.4958
13408SOL    HW244910   3.903   5.386  10.907 -0.3691 -0.4725  0.2436
13409SOL     OW44911   1.034   5.887   0.446  0.2218 -0.2811 -0.1233
13409SOL    HW144912   1.046   5.981   0.459  0.1012 -0.2630 -0.1329
13409SOL    HW244913   1.121   5.853   0.427  0.6489 -0.5227  2.0714
13410SOL     OW44914   9.824   9.080   6.995  0.3759  0.6786  0.2395
13410SOL    HW144915   9.855   9.025   6.923  1.9096  1.9115 -0.0764
13410SOL    HW244916   9.791   9.018   7.060 -1.3516 -0.4581 -1.6175
13411SOL     OW44917   0.468   7.689   1.574  1.2133 -0.6127 -0.1826
13411SOL    HW144918   0.406   7.678   1.646 -0.6270 -0.0985 -1.6306
13411SOL    HW244919   0.541   7.738   1.613  1.5711 -2.6397  1.9693
13412SOL     OW44920   5.955   9.953   9.696 -0.3021  0.1398  0.5105
13412SOL    HW144921   5.936   9.980   9.606  1.3647  1.7571  0.5793
13412SOL    HW244922   5.993   9.866   9.688  1.6270  1.0255 -0.6005
13413SOL     OW44923   0.631  10.361   0.507 -0.2867 -0.7496  0.2794
13413SOL    HW144924   0.538  10.357   0.529 -0.4985  3.0699  0.7183
13413SOL    HW244925   0.675  10.321   0.582 -1.5230  0.3162  1.6358
13414SOL     OW44926  11.616  10.294   6.186  0.1084  0.5548 -0.1973
13414SOL    HW144927  11.544  10.353   6.165  1.5357  1.5090 -2.8794
13414SOL    HW244928  11.645  10.321   6.273  0.2598  3.4158 -1.0341
13415SOL     OW44929   0.120   7.436  11.217 -0.7894 -0.0315  0.4937
13415SOL    HW144930   0.204   7.391  11.225 -1.4323 -1.4178 -0.1029
13415SOL    HW244931   0.141   7.529  11.220  0.7540 -0.3600  0.3675
13416SOL     OW44932  10.782   9.430   9.868  0.2207  0.5768  0.0882
13416SOL    HW144933  10.838   9.490   9.917  0.9582  1.5434 -1.8186
13416SOL    HW244934  10.788   9.460   9.777 -2.8553  0.2985 -0.3432
13417SOL     OW44935   8.065   2.682   3.678 -0.4271 -0.1527  0.4126
13417SOL    HW144936   7.992   2.653   3.623  0.2068 -0.5720 -0.2219
13417SOL    HW244937   8.025   2.741   3.741 -1.3948 -0.7207  0.3554
13418SOL     OW44938   5.496   5.896   1.684  0.0063  0.1593  0.1292
13418SOL    HW144939   5.507   5.813   1.639  2.5691  0.9495 -0.8835
13418SOL    HW244940   5.544   5.886   1.766  1.6469  1.0755 -0.6769
13419SOL     OW44941   3.683  10.185   4.156 -0.4681 -0.0450  0.6429
13419SOL    HW144942   3.769  10.176   4.197  0.5807 -1.3624 -1.6252
13419SOL    HW244943   3.676  10.278   4.134  1.2549 -0.2085 -0.7878
13420SOL     OW44944   5.597  11.732   9.334 -0.0539  0.6687  0.5841
13420SOL    HW144945   5.671  11.727   9.394 -0.5628 -0.6754  1.1344
13420SOL    HW244946   5.579  11.642   9.309  1.4424  1.2811 -3.3138
13421SOL     OW44947   0.780   5.820  10.676  0.4652 -0.8900  0.3993
13421SOL    HW144948   0.858   5.862  10.712 -0.6917  1.1438  0.6423
13421SOL    HW244949   0.709   5.881  10.694 -1.0449 -2.2395 -0.6941
13422SOL     OW44950  10.544   2.698   7.090  0.1478 -0.2935 -0.4272
13422SOL    HW144951  10.460   2.725   7.126  1.5494 -1.4532  4.3509
13422SOL    HW244952  10.582   2.778   7.055 -0.5521  1.5774  2.7672
13423SOL     OW44953   6.030   7.375   9.129  0.2202 -0.6250  0.2399
13423SOL    HW144954   5.963   7.431   9.170 -0.5386  0.0040 -1.7294
13423SOL    HW244955   6.017   7.289   9.169 -1.5409 -0.4284  0.1929
13424SOL     OW44956   6.594   3.511   8.084 -0.3267  0.3537  0.6100
13424SOL    HW144957   6.552   3.554   8.159 -0.1621  1.3977  0.1206
13424SOL    HW244958   6.674   3.474   8.121 -1.5152 -1.4731  1.5063
13425SOL     OW44959   0.285   5.305   5.449  0.0618 -0.2361 -0.1015
13425SOL    HW144960   0.193   5.301   5.424  0.1874 -1.4609 -0.4135
13425SOL    HW244961   0.317   5.216   5.437  1.7441  0.5163 -1.7350
13426SOL     OW44962   8.785   4.457   0.140 -0.3966  0.4162 -0.1502
13426SOL    HW144963   8.769   4.452   0.234  0.6199  0.3969  0.0281
13426SOL    HW244964   8.756   4.373   0.105  1.4813 -0.5278  0.4992
13427SOL     OW44965   0.703   9.323   6.060 -0.2443  0.6099 -0.1575
13427SOL    HW144966   0.691   9.413   6.090  0.0169  0.3819  0.6644
13427SOL    HW244967   0.614   9.291   6.043 -0.6316  0.1117  2.3335
13428SOL     OW44968   3.376   3.959   3.076 -0.3318  0.5242  0.3582
13428SOL    HW144969   3.382   4.051   3.051 -0.0625  0.6143  0.7368
13428SOL    HW244970   3.466   3.927   3.071 -0.4940  0.1471 -0.2553
13429SOL     OW44971   7.220  10.555   1.397 -0.0522 -0.3834  0.4770
13429SOL    HW144972   7.227  10.595   1.310 -1.6959 -1.1016 -0.0259
13429SOL    HW244973   7.308  10.521   1.414  0.5134  0.5030 -0.5297
13430SOL     OW44974   8.290  10.187   0.474 -0.1353 -0.4438 -0.0182
13430SOL    HW144975   8.283  10.102   0.515 -1.2919 -1.0917 -1.4474
13430SOL    HW244976   8.332  10.243   0.539  0.1089 -1.9523  1.1526
13431SOL     OW44977   5.010   9.103   8.801 -0.1118  0.9650  0.6571
13431SOL    HW144978   5.077   9.048   8.841  1.5439  1.2034 -1.6302
13431SOL    HW244979   5.056   9.183   8.776 -1.9994  2.5645  1.9594
13432SOL     OW44980   0.595   6.683   0.079  0.2745 -0.6191  0.1098
13432SOL    HW144981   0.584   6.688  -0.016 -0.7811  1.4511  0.2847
13432SOL    HW244982   0.667   6.742   0.098  0.8055 -1.3991  0.5703
13433SOL     OW44983   9.798   6.788   4.305 -0.2343 -0.4260  0.2193
13433SOL    HW144984   9.869   6.852   4.318 -2.5623  2.1009  1.3954
13433SOL    HW244985   9.789   6.782   4.210 -0.3245  1.4824  0.0680
13434SOL     OW44986   0.680   9.066  10.001 -0.8079 -0.1182 -0.5944
13434SOL    HW144987   0.666   8.987   9.949  1.4992 -0.6474 -0.4929
13434SOL    HW244988   0.682   9.036  10.091 -2.9151  0.5425 -0.2612
13435SOL     OW44989   0.280  10.324  11.828 -0.1940 -0.3000 -0.0758
13435SOL    HW144990   0.330  10.250  11.865  0.0718 -0.1107 -0.0515
13435SOL    HW244991   0.346  10.392  11.815 -0.6301  0.3225  0.9180
13436SOL     OW44992  11.065   3.700   1.076 -0.2216 -0.3824 -0.4151
13436SOL    HW144993  10.972   3.678   1.082 -0.0334 -0.9490  3.6413
13436SOL    HW244994  11.105   3.622   1.039 -0.9662 -2.2796  2.3994
13437SOL     OW44995   5.059   5.314  10.753  0.1162  0.4068  0.6220
13437SOL    HW144996   5.000   5.371  10.704 -1.2966 -1.3473  0.1696
13437SOL    HW244997   5.070   5.237  10.698  0.4693 -0.5599  1.9803
13438SOL     OW44998   5.440   9.274   3.911  0.9104  0.2757  0.5852
13438SOL    HW144999   5.464   9.181   3.913 -0.7293 -0.2062 -0.0034
13438SOL    HW245000   5.493   9.311   3.840  1.1541 -0.3511  0.4304
13439SOL     OW45001  10.509   2.107   0.942 -0.2882 -0.1835  0.2312
13439SOL    HW145002  10.545   2.019   0.926 -1.6325 -0.7295  0.0686
13439SOL    HW245003  10.481   2.136   0.855  2.6767  1.6443 -0.2674
13440SOL     OW45004  11.418   1.727   5.768 -0.1827 -0.0734 -0.0386
13440SOL    HW145005  11.364   1.701   5.694  0.7265 -0.2534 -0.6655
13440SOL    HW245006  11.380   1.682   5.843 -1.1052  0.0993 -0.3981
13441SOL     OW45007  10.512   5.184   6.805 -0.2523 -0.0045  0.2197
13441SOL    HW145008  10.520   5.118   6.736 -0.0163  0.4026 -0.1421
13441SOL    HW245009  10.499   5.132   6.885  0.2034 -0.5008 -0.0196
13442SOL     OW45010  11.278   0.088   1.647 -0.1762  0.0653  0.1586
13442SOL    HW145011  11.346   0.132   1.698  0.8582 -1.4239  0.1257
13442SOL    HW245012  11.256   0.010   1.698 -0.8053 -0.2333 -0.5453
13443SOL     OW45013   2.738   6.974  10.510 -0.0884  0.4101  0.1984
13443SOL    HW145014   2.791   6.965  10.430  1.1019  0.1984  0.9800
13443SOL    HW245015   2.701   6.886  10.523 -0.5259  0.5186 -0.2682
13444SOL     OW45016  11.356   0.693   0.464  0.1997 -0.2845 -0.0514
13444SOL    HW145017  11.385   0.602   0.469 -1.4947 -0.8186  0.3691
13444SOL    HW245018  11.413   0.732   0.396  1.4708 -1.4162  0.3172
13445SOL     OW45019   3.519   8.131   9.795 -0.5222 -0.2177 -0.1434
13445SOL    HW145020   3.568   8.200   9.751  0.1971  1.0507  2.4650
13445SOL    HW245021   3.428   8.148   9.774 -0.2416  0.5998 -0.7320
13446SOL     OW45022   0.821   0.051   4.572  0.4557 -0.1094  0.3943
13446SOL    HW145023   0.750   0.062   4.636  0.8280 -3.0541  1.4758
13446SOL    HW245024   0.800   0.113   4.502 -1.6115  1.1191  1.9788
13447SOL     OW45025  10.658   5.770   9.554  0.2188  0.1041 -0.2490
13447SOL    HW145026  10.562   5.760   9.553  0.3290 -1.5314  1.0223
13447SOL    HW245027  10.688   5.701   9.613  2.2479  0.2303 -1.0763
13448SOL     OW45028   7.280   0.940   2.589 -0.6103 -0.0891 -0.2916
13448SOL    HW145029   7.323   0.879   2.649 -0.0127  1.2467  0.6825
13448SOL    HW245030   7.250   1.012   2.645 -2.1884  0.0565 -1.2678
13449SOL     OW45031   2.660   6.400   7.339  0.2162  0.4435  0.5292
13449SOL    HW145032   2.654   6.317   7.387 -1.4910  1.4381  2.1717
13449SOL    HW245033   2.665   6.373   7.247 -0.2410 -1.4794  1.0109
13450SOL     OW45034   9.380  10.575   2.663  0.3720 -0.1813 -0.5547
13450SOL    HW145035   9.350  10.631   2.734  0.7304 -0.9260  0.1967
13450SOL    HW245036   9.355  10.486   2.689  1.7962 -0.6392 -0.6428
13451SOL     OW45037   2.879   5.560   1.095 -0.2097  0.1692 -0.3998
13451SOL    HW145038   2.849   5.607   1.173 -1.2319 -0.6108 -0.3107
13451SOL    HW245039   2.828   5.599   1.023 -0.0505  0.1458 -0.5250
13452SOL     OW45040   6.317   6.522   8.183  0.0990 -0.4917  0.3929
13452SOL    HW145041   6.376   6.538   8.109  1.5524  0.7301  1.7465
13452SOL    HW245042   6.273   6.440   8.160  2.6467 -1.7189 -0.5348
13453SOL     OW45043  10.613   7.080   7.211 -0.0689 -0.4778  0.3046
13453SOL    HW145044  10.551   7.067   7.139  1.1625  0.3736 -0.9549
13453SOL    HW245045  10.576   7.153   7.260  0.3702  0.6443 -0.9787
13454SOL     OW45046   2.885   2.149   7.685 -0.4261  0.0230 -0.2114
13454SOL    HW145047   2.818   2.210   7.653  0.1844  2.1307  2.2283
13454SOL    HW245048   2.838   2.090   7.744 -0.2602  1.2839  1.2313
13455SOL     OW45049   9.544   4.413   2.187  0.0196  0.2293 -0.8258
13455SOL    HW145050   9.633   4.383   2.204  0.0217  0.2991 -0.7182
13455SOL    HW245051   9.521   4.371   2.104 -0.9100 -2.1392  0.5306
13456SOL     OW45052   4.161   1.485   3.807  0.1466  0.3893  0.0183
13456SOL    HW145053   4.134   1.500   3.897 -0.5856  1.5316 -0.3625
13456SOL    HW245054   4.079   1.472   3.759  0.5319 -0.3113 -0.4741
13457SOL     OW45055   7.619   8.910   0.854 -0.3146 -0.3547 -0.4257
13457SOL    HW145056   7.639   8.917   0.948  1.9225 -2.8456 -0.5844
13457SOL    HW245057   7.529   8.941   0.846 -1.0251 -1.2159  2.7725
13458SOL     OW45058   2.612   3.876  11.149  0.1012 -0.1201 -0.3577
13458SOL    HW145059   2.652   3.946  11.097 -0.9337  0.3290 -0.5603
13458SOL    HW245060   2.687   3.823  11.179  0.7522 -0.1207 -1.9001
13459SOL     OW45061  10.951   3.360   0.894 -0.1201  0.0200  0.3697
13459SOL    HW145062  10.979   3.288   0.837  0.4794  0.7285 -0.2496
13459SOL    HW245063  10.869   3.391   0.856  0.1809  0.3659 -0.0057
13460SOL     OW45064   3.659   6.038   9.802 -0.2020  0.4679  0.4265
13460SOL    HW145065   3.565   6.056   9.798 -0.4549 -0.5803  1.1667
13460SOL    HW245066   3.686   6.030   9.711 -1.1460 -0.6854  0.2258
13461SOL     OW45067   2.769   3.854   6.441 -0.5489 -0.4076  0.0165
13461SOL    HW145068   2.821   3.862   6.521 -2.3112  0.8896  1.0982
13461SOL    HW245069   2.685   3.894   6.462 -1.1838 -0.2776 -2.4098
13462SOL     OW45070   3.012   3.676  10.668 -0.3269  0.2602  0.4760
13462SOL    HW145071   3.067   3.597  10.670  0.1329  0.5594  0.1069
13462SOL    HW245072   3.039   3.725  10.745 -0.5404  0.1023  0.6505
13463SOL     OW45073   2.281   6.836   4.535  0.3406 -0.4587 -0.6009
13463SOL    HW145074   2.343   6.831   4.462 -1.2131 -3.3920 -1.8888
13463SOL    HW245075   2.316   6.776   4.600 -0.3570 -1.0061 -0.7166
13464SOL     OW45076  10.997   9.196   5.198 -0.0249 -0.0622  0.1577
13464SOL    HW145077  10.957   9.110   5.188  1.0255 -0.3921 -1.6987
13464SOL    HW245078  11.083   9.178   5.237 -0.7493  0.4256  2.0800
13465SOL     OW45079   3.156   4.951   8.319  0.3097  0.1112 -0.4600
13465SOL    HW145080   3.225   4.987   8.374  0.6850 -0.0147 -0.8345
13465SOL    HW245081   3.189   4.864   8.293 -0.5286 -0.4620  0.3418
13466SOL     OW45082   0.888  10.113   8.487 -0.6623  0.4349  0.3717
13466SOL    HW145083   0.908  10.031   8.442 -0.0639  0.7833 -0.0082
13466SOL    HW245084   0.908  10.181   8.423  0.2396  0.9417  1.1619
13467SOL     OW45085   0.553   2.547  11.391  0.2115  0.0315  0.1341
13467SOL    HW145086   0.570   2.575  11.481  0.0775 -1.0468  0.5126
13467SOL    HW245087   0.630   2.577  11.342  0.0843  1.0063  0.5130
13468SOL     OW45088   9.032   9.254   4.947  0.5018 -0.0795  0.3922
13468SOL    HW145089   9.007   9.245   5.038  0.7455  0.6509  0.5350
13468SOL    HW245090   8.958   9.219   4.898  1.2789 -2.6191  0.8847
13469SOL     OW45091   8.192   7.446   3.427 -0.6098  0.2258  0.3417
13469SOL    HW145092   8.109   7.449   3.380  0.3911  0.2485 -1.5238
13469SOL    HW245093   8.235   7.529   3.406  1.1266 -0.9858 -1.2382
13470SOL     OW45094   8.660   0.315   4.825  0.2451  0.0625  0.1014
13470SOL    HW145095   8.751   0.286   4.816  0.3068  0.0243  0.8015
13470SOL    HW245096   8.653   0.342   4.916 -0.5229 -0.1767  0.1159
13471SOL     OW45097   6.379   7.851   7.217  0.2559 -0.4514  0.3269
13471SOL    HW145098   6.458   7.814   7.256  0.3070 -1.7163 -0.9031
13471SOL    HW245099   6.324   7.775   7.196  0.4408  0.0816 -2.4691
13472SOL     OW45100  10.654   1.577   5.219 -0.0260 -0.4091 -0.4553
13472SOL    HW145101  10.565   1.586   5.186 -0.1759  0.7103  0.2026
13472SOL    HW245102  10.688   1.499   5.175 -1.4063 -1.0061 -0.5330
13473SOL     OW45103  10.812   8.968   4.112 -0.0430 -0.4487  0.1696
13473SOL    HW145104  10.779   9.026   4.181  0.4188 -0.5782  0.5049
13473SOL    HW245105  10.813   8.881   4.152 -1.1785 -0.7867 -0.4765
13474SOL     OW45106   5.672   0.897  11.711 -0.0182  0.1056 -0.6770
13474SOL    HW145107   5.672   0.814  11.663  0.9628 -0.3840  0.1368
13474SOL    HW245108   5.585   0.933  11.694 -0.3357 -0.9018 -1.3554
13475SOL     OW45109  10.941   8.398   5.553 -0.4723  0.2085  0.0462
13475SOL    HW145110  10.922   8.320   5.606  2.3345 -1.8901 -1.7491
13475SOL    HW245111  11.016   8.439   5.597 -0.1183  0.2431 -0.5792
13476SOL     OW45112   3.614   3.508  11.664 -0.3229  0.0179 -0.2677
13476SOL    HW145113   3.668   3.503  11.585 -2.0318  2.1458 -1.6866
13476SOL    HW245114   3.610   3.601  11.685 -2.5448 -0.1774  0.3914
13477SOL     OW45115   0.354   6.402   2.601  0.3339  0.3765 -0.2959
13477SOL    HW145116   0.387   6.316   2.574 -0.1207  0.7987 -2.4401
13477SOL    HW245117   0.400   6.422   2.682  1.0979 -1.4966 -0.2190
13478SOL     OW45118   7.886   0.124   0.556 -0.4323  0.0112 -0.4263
13478SOL    HW145119   7.805   0.082   0.587 -0.7543  1.1399  0.3106
13478SOL    HW245120   7.955   0.061   0.577 -0.6754  0.5154  2.2987
13479SOL     OW45121   8.889   7.449   0.990  0.0663  0.7123  0.3434
13479SOL    HW145122   8.938   7.413   0.916 -0.7848 -0.8912  0.5143
13479SOL    HW245123   8.919   7.539   0.997  1.9836  0.1764 -0.4002
13480SOL     OW45124   5.295   8.658   4.349 -0.5248  0.5253  0.4219
13480SOL    HW145125   5.349   8.596   4.300  0.0500 -0.1487  1.8347
13480SOL    HW245126   5.285   8.734   4.291  0.9635  0.1836 -0.3103
13481SOL     OW45127  10.250   5.329   8.951 -0.6070 -0.6548 -0.4840
13481SOL    HW145128  10.340   5.300   8.970 -0.3778  0.5919  0.4595
13481SOL    HW245129  10.195   5.257   8.981  0.0431 -1.1879 -0.5291
13482SOL     OW45130   8.987   9.191   1.858  0.4156 -0.0208  0.0282
13482SOL    HW145131   9.022   9.187   1.769  1.5758 -2.1424  0.5329
13482SOL    HW245132   8.902   9.147   1.853  0.2244  0.3578 -0.1190
13483SOL     OW45133   1.895  10.082   9.861 -0.0403  0.0917  0.5902
13483SOL    HW145134   1.908  10.132   9.780  1.1726 -0.2341  0.5664
13483SOL    HW245135   1.924   9.993   9.838 -3.1914 -0.9814  0.2864
13484SOL     OW45136   4.434   4.898   2.667  0.8156  0.3774 -0.2252
13484SOL    HW145137   4.455   4.904   2.760 -1.5551  1.2692  0.3332
13484SOL    HW245138   4.476   4.817   2.638  0.7835 -0.4658  1.8784
13485SOL     OW45139   6.633   7.441   2.833 -0.2923  0.0322 -0.0714
13485SOL    HW145140   6.655   7.396   2.752 -0.1549 -1.3848  0.7361
13485SOL    HW245141   6.684   7.522   2.830 -1.2234  0.6117 -1.9577
13486SOL     OW45142  10.708   5.881  11.393 -0.1224 -1.1422 -0.5228
13486SOL    HW145143  10.718   5.962  11.442  0.6669  0.1943 -2.7647
13486SOL    HW245144  10.728   5.812  11.457  2.1253  0.5292  0.7110
13487SOL     OW45145   4.336   6.148   8.192  0.0945 -0.5206 -0.5056
13487SOL    HW145146   4.272   6.141   8.121  0.4116  3.6609 -1.4615
13487SOL    HW245147   4.310   6.227   8.239  3.3731  0.2434  0.2513
13488SOL     OW45148   1.378   2.755   9.206  0.0172  0.2043 -0.1847
13488SOL    HW145149   1.309   2.688   9.202  0.6509 -0.4444 -0.4455
13488SOL    HW245150   1.346   2.818   9.270 -0.2469 -0.7574  0.6673
13489SOL     OW45151   0.732   5.655   3.977  0.3781  0.2453 -0.0940
13489SOL    HW145152   0.701   5.737   4.016  2.0673  1.5602 -1.3476
13489SOL    HW245153   0.691   5.652   3.891  0.7236  0.0596 -0.2564
13490SOL     OW45154   1.228  10.115   4.053 -1.0464 -0.0495 -0.5443
13490SOL    HW145155   1.197  10.205   4.061 -1.1877  0.0920 -2.3789
13490SOL    HW245156   1.155  10.062   4.084 -0.8560  0.4309  0.8320
13491SOL     OW45157   2.431  11.719  11.477 -0.0578 -0.7613 -0.2892
13491SOL    HW145158   2.394  11.803  11.503 -1.0691 -1.6529  1.3412
13491SOL    HW245159   2.523  11.722  11.505  0.7426  0.7908 -2.7573
13492SOL     OW45160   8.402   3.465   3.593 -0.0640  0.4548 -0.3698
13492SOL    HW145161   8.309   3.446   3.600  0.2818 -0.8710  1.0594
13492SOL    HW245162   8.408   3.560   3.601 -1.3351  0.6410 -1.2813
13493SOL     OW45163  10.585   4.753   1.465  0.6408  0.0985  0.4510
13493SOL    HW145164  10.658   4.797   1.421 -0.5345  1.0441 -0.6372
13493SOL    HW245165  10.521   4.737   1.396  0.5914 -2.5059  0.9992
13494SOL     OW45166   1.257   7.029   1.688 -0.4564 -0.1685  0.1209
13494SOL    HW145167   1.170   7.042   1.723 -0.0524  1.3345  0.6156
13494SOL    HW245168   1.264   6.934   1.676 -1.9468 -0.3542  0.5613
13495SOL     OW45169   4.554   7.565  10.422  0.1867 -0.1273 -0.3215
13495SOL    HW145170   4.615   7.586  10.492 -1.0726 -0.4605  0.9395
13495SOL    HW245171   4.532   7.473  10.436 -1.7146  0.3570  0.2153
13496SOL     OW45172   6.911  10.983   5.694  0.2584  0.0203 -0.2984
13496SOL    HW145173   6.916  10.986   5.598 -0.5317 -0.0293 -0.3541
13496SOL    HW245174   6.839  11.044   5.715  0.5037  0.1143  0.2690
13497SOL     OW45175  11.264   6.805   3.605  0.2761 -0.3942  0.4848
13497SOL    HW145176  11.185   6.754   3.622 -0.7576  0.8240 -0.5321
13497SOL    HW245177  11.240   6.865   3.535  1.4590  1.4508  1.5676
13498SOL     OW45178   4.381   2.446   4.497  0.2190  0.5229 -0.0360
13498SOL    HW145179   4.344   2.383   4.435 -0.4671 -0.7683  1.6150
13498SOL    HW245180   4.476   2.434   4.489  0.1021 -1.0954  0.5609
13499SOL     OW45181  11.127   9.007   7.721 -0.2141 -0.3483 -0.3535
13499SOL    HW145182  11.094   9.061   7.792  1.8996  2.4967 -1.3386
13499SOL    HW245183  11.061   9.014   7.652 -0.4298  0.1186 -0.1008
13500SOL     OW45184   8.842   9.048  10.455 -0.5853  0.2748 -0.7052
13500SOL    HW145185   8.878   9.097  10.529  0.6583 -1.2209 -0.2649
13500SOL    HW245186   8.868   8.957  10.472 -2.7005 -0.5391 -1.5470
13501SOL     OW45187   3.871   0.049  11.263  0.1694 -0.4051  0.5314
13501SOL    HW145188   3.859   0.089  11.349 -1.4614 -0.7966  0.5114
13501SOL    HW245189   3.833  -0.038  11.270 -0.5455 -0.2240 -0.7513
13502SOL     OW45190   3.536  11.502   1.378  0.0830 -0.2338  0.0309
13502SOL    HW145191   3.625  11.518   1.348  0.3047  0.3121  0.9214
13502SOL    HW245192   3.537  11.411   1.409  0.2548 -0.3149 -0.2172
13503SOL     OW45193   6.865   1.589   4.130  0.3152 -0.1031 -0.3706
13503SOL    HW145194   6.892   1.640   4.054  1.2493 -0.8010 -0.5233
13503SOL    HW245195   6.799   1.643   4.173  0.6910  0.8597 -0.9762
13504SOL     OW45196  11.905  10.546   9.098  0.5786 -0.0611  0.4138
13504SOL    HW145197  11.904  10.516   9.007 -0.2565 -1.0004  0.7153
13504SOL    HW245198  11.858  10.629   9.096  0.9676  0.1565 -0.0750
13505SOL     OW45199   1.821  11.495   7.452  0.3123  0.0297 -0.0960
13505SOL    HW145200   1.839  11.478   7.544  0.0648 -0.4200 -0.1252
13505SOL    HW245201   1.877  11.433   7.405 -0.6278 -0.7637 -0.2082
13506SOL     OW45202  10.778  11.061  11.407  0.2819 -0.3674  0.0809
13506SOL    HW145203  10.847  11.127  11.413 -1.0054  0.9228  1.4993
13506SOL    HW245204  10.786  11.011  11.488  0.4527 -1.1618 -0.4187
13507SOL     OW45205   2.484   4.739  10.384 -0.4329 -0.3573 -0.4897
13507SOL    HW145206   2.520   4.820  10.348 -1.5586  0.0466 -0.7414
13507SOL    HW245207   2.420   4.767  10.449 -0.6096 -1.0448 -0.3560
13508SOL     OW45208   7.053   7.484   5.100 -0.5600  0.2155  0.3235
13508SOL    HW145209   7.062   7.577   5.122 -1.5655  0.3183  0.3546
13508SOL    HW245210   7.109   7.439   5.162  0.5875  0.8618 -0.2229
13509SOL     OW45211   0.537   5.890   5.958 -0.5811 -0.3715  0.0466
13509SOL    HW145212   0.480   5.853   6.026  1.4091 -1.6508  1.1329
13509SOL    HW245213   0.562   5.814   5.905  2.0157 -0.3720  1.1190
13510SOL     OW45214   4.350   3.082   8.253 -0.4178  0.3207  0.2680
13510SOL    HW145215   4.312   3.095   8.340  0.6514 -0.3959  0.8665
13510SOL    HW245216   4.365   2.988   8.247 -1.1114  0.2700 -0.9815
13511SOL     OW45217   2.415   9.887   4.183  0.6352  0.5517  0.3801
13511SOL    HW145218   2.457   9.973   4.185  1.1570  0.2824  1.8438
13511SOL    HW245219   2.455   9.838   4.254 -0.3005 -0.6151  0.1455
13512SOL     OW45220   1.063  11.248   8.341  0.3047 -0.0585 -0.2645
13512SOL    HW145221   1.036  11.259   8.432  0.0092  1.4492 -0.5037
13512SOL    HW245222   1.143  11.301   8.333 -0.2733  0.7059 -1.1353
13513SOL     OW45223   7.251   5.387  10.159  0.2904 -0.2280 -0.1412
13513SOL    HW145224   7.158   5.374  10.141  0.3630  0.0145 -0.6886
13513SOL    HW245225   7.262   5.355  10.249 -0.5474  0.8001  0.3400
13514SOL     OW45226   1.525   9.180   4.714  0.4677 -0.2934  0.5508
13514SOL    HW145227   1.553   9.218   4.631  0.5804  0.3053  0.8536
13514SOL    HW245228   1.583   9.219   4.779  1.9474 -2.5165  0.6796
13515SOL     OW45229   2.732  11.226   5.789  0.9858  0.3318 -0.5093
13515SOL    HW145230   2.798  11.286   5.826 -1.4138  2.8250  0.0407
13515SOL    HW245231   2.662  11.226   5.853  0.1408 -1.7610 -1.3647
13516SOL     OW45232   2.519   9.941   1.485 -0.4354  0.4340  0.3633
13516SOL    HW145233   2.582   9.871   1.469 -0.7803  0.6670 -2.4790
13516SOL    HW245234   2.489   9.926   1.575  0.8645 -1.9401  0.4847
13517SOL     OW45235  10.967   8.439   1.229 -0.0560  0.5355  0.5090
13517SOL    HW145236  10.953   8.533   1.243 -0.7188  0.3889  0.8775
13517SOL    HW245237  10.882   8.406   1.200  0.1450  0.0279  0.4829
13518SOL     OW45238  10.864   4.853   4.881 -1.0641  0.0295 -0.2434
13518SOL    HW145239  10.856   4.924   4.817 -1.5490 -0.3061 -0.5630
13518SOL    HW245240  10.820   4.886   4.959  0.4946  0.8758  0.3038
13519SOL     OW45241   0.129   7.927   1.404 -0.4332  0.5798  0.2915
13519SOL    HW145242   0.057   7.890   1.353 -0.2575 -1.8470  1.6748
13519SOL    HW245243   0.204   7.870   1.385  0.9975  2.6142 -0.5409
13520SOL     OW45244   4.872   6.250   2.595 -0.0447  0.4818 -0.2136
13520SOL    HW145245   4.929   6.226   2.522  1.0447 -0.6480  0.9723
13520SOL    HW245246   4.790   6.203   2.578  0.1807  0.2736 -0.7344
13521SOL     OW45247   2.260   7.099   5.977  0.4925  0.0715 -0.7072
13521SOL    HW145248   2.197   7.169   5.986  0.7481  0.3065 -0.7251
13521SOL    HW245249   2.345   7.143   5.978  0.6697 -0.2748 -0.3170
13522SOL     OW45250  11.708   9.827   0.509 -0.4989  0.8621 -0.0141
13522SOL    HW145251  11.714   9.769   0.585 -0.3757  1.3611  0.3600
13522SOL    HW245252  11.698   9.914   0.546  0.9972  1.2898 -0.5519
13523SOL     OW45253   8.257   0.281  10.347 -0.3856 -0.4627  0.2252
13523SOL    HW145254   8.269   0.237  10.263 -0.8318 -0.7673  0.3177
13523SOL    HW245255   8.345   0.280  10.387 -0.3178 -0.9757  0.0802
13524SOL     OW45256   2.858   8.288   4.940 -0.9005  0.9734  0.6540
13524SOL    HW145257   2.870   8.244   4.856  0.4584 -1.2343  1.8991
13524SOL    HW245258   2.895   8.375   4.927  1.9070 -0.2587 -0.3161
13525SOL     OW45259   5.456  11.831   2.769  0.1256 -0.3390  0.3447
13525SOL    HW145260   5.545  11.797   2.772  0.1749 -0.1708  1.2225
13525SOL    HW245261   5.434  11.847   2.861 -0.7187 -0.1470  0.1176
13526SOL     OW45262  10.229   6.018   7.480 -0.2698 -0.5404  0.1617
13526SOL    HW145263  10.272   6.086   7.532  0.0591 -1.4478  1.0984
13526SOL    HW245264  10.140   6.052   7.467  0.0823  0.3708  0.0296
13527SOL     OW45265  10.909   2.641   7.860 -0.3875  0.1474 -0.0138
13527SOL    HW145266  10.908   2.735   7.843  4.1082  0.2598 -0.8775
13527SOL    HW245267  10.916   2.634   7.955 -0.6788  0.6778  0.0504
13528SOL     OW45268   6.911   3.190   6.565 -0.0799  0.1468 -0.3328
13528SOL    HW145269   6.926   3.280   6.536  0.1099  0.1090 -0.3513
13528SOL    HW245270   6.977   3.139   6.519 -0.6057 -0.0950 -0.8294
13529SOL     OW45271   6.836   4.514   0.772 -0.4665  0.1795  0.3435
13529SOL    HW145272   6.786   4.448   0.725  0.9763 -0.8758  0.2266
13529SOL    HW245273   6.830   4.488   0.864  0.7717 -0.6315  0.2210
13530SOL     OW45274  11.349  11.142   4.391  0.1874  0.4883  0.1154
13530SOL    HW145275  11.255  11.159   4.395 -0.5753 -3.1237  1.3436
13530SOL    HW245276  11.356  11.047   4.385  3.7727  0.3673  2.6500
13531SOL     OW45277   8.155   7.266  11.200  0.1628 -0.0639  0.4339
13531SOL    HW145278   8.217   7.327  11.160 -1.9691  1.2669 -1.0762
13531SOL    HW245279   8.071   7.313  11.199 -1.3185 -2.5278  0.4928
13532SOL     OW45280   3.985   5.244  11.443 -0.2526  0.5440 -0.3327
13532SOL    HW145281   3.890   5.250  11.441 -0.2045  1.4225 -0.2818
13532SOL    HW245282   4.003   5.154  11.470 -1.0609  0.1343 -1.1304
13533SOL     OW45283   0.116   3.455   1.215  0.0204  0.0609  0.0919
13533SOL    HW145284   0.193   3.512   1.209 -1.0983  1.5377 -1.4308
13533SOL    HW245285   0.064   3.494   1.286 -1.0849  1.4873 -1.4198
13534SOL     OW45286   4.841   5.695  10.776  0.6830  0.0943  0.3495
13534SOL    HW145287   4.749   5.697  10.804  1.0762  2.4460  1.7720
13534SOL    HW245288   4.850   5.771  10.719  1.6461 -0.4353 -0.2266
13535SOL     OW45289   8.106  11.074   6.546  0.6264  0.0168  0.7059
13535SOL    HW145290   8.023  11.064   6.593  0.3452 -2.0505 -0.0964
13535SOL    HW245291   8.081  11.066   6.454  1.7061 -0.5781  0.4543
13536SOL     OW45292   6.780   0.358  10.283 -0.1379 -0.0879  1.1971
13536SOL    HW145293   6.867   0.333  10.253 -0.5539 -0.4428  0.2476
13536SOL    HW245294   6.752   0.425  10.221 -0.1338  0.7959  2.1162
13537SOL     OW45295  11.887   0.073  10.489 -0.1730 -0.3100  0.3607
13537SOL    HW145296  11.816   0.070  10.553 -1.1126 -1.5758 -0.6911
13537SOL    HW245297  11.940  -0.004  10.508 -1.0796 -1.3199 -1.0261
13538SOL     OW45298   7.829   5.328   7.397  0.3868 -0.6323 -0.3282
13538SOL    HW145299   7.823   5.302   7.489  0.2080  1.6528  0.3759
13538SOL    HW245300   7.791   5.416   7.395 -2.8629 -1.8826 -3.2332
13539SOL     OW45301   4.886   2.403  11.880  0.6457  0.2894  0.3312
13539SOL    HW145302   4.841   2.320  11.893 -0.1373  0.6225 -0.2188
13539SOL    HW245303   4.843   2.464  11.939  1.6297  0.1845  1.2015
13540SOL     OW45304   9.709  10.806   3.760 -0.0722  0.0534  0.6009
13540SOL    HW145305   9.750  10.721   3.776 -0.5146 -0.0372  1.2869
13540SOL    HW245306   9.655  10.792   3.682 -1.1818 -0.6812  1.4587
13541SOL     OW45307   8.971   7.238   5.017  0.2330  0.4263  0.6300
13541SOL    HW145308   8.990   7.249   4.924 -0.3962 -0.1326  0.4243
13541SOL    HW245309   8.894   7.180   5.019 -1.6258  2.7488  1.3813
13542SOL     OW45310   4.329   1.413   4.872  0.2322  0.3212 -0.0695
13542SOL    HW145311   4.234   1.417   4.862  0.1742 -0.6319 -0.0257
13542SOL    HW245312   4.363   1.434   4.785 -0.0389  0.0152 -0.2515
13543SOL     OW45313   5.298  10.940  11.683 -0.3972 -0.2944 -0.0565
13543SOL    HW145314   5.355  10.865  11.701 -0.7103 -0.5041  0.0706
13543SOL    HW245315   5.211  10.910  11.707 -0.5103  0.1510  0.1095
13544SOL     OW45316   0.535   1.472   2.514  0.7183  0.0559 -0.1563
13544SOL    HW145317   0.579   1.440   2.435 -1.5628  1.6603 -2.2209
13544SOL    HW245318   0.560   1.564   2.519  0.9783 -0.0708  1.1459
13545SOL     OW45319   6.121   7.344   1.264  0.0796  0.6723 -0.4099
13545SOL    HW145320   6.050   7.391   1.219 -1.4303 -1.4987 -0.4441
13545SOL    HW245321   6.129   7.388   1.348 -2.5693 -0.0373  0.3045
13546SOL     OW45322   1.440   3.648   4.432 -0.2594 -0.4838 -0.4364
13546SOL    HW145323   1.532   3.633   4.450 -0.3173 -0.2213  0.1011
13546SOL    HW245324   1.397   3.644   4.518 -0.8506 -1.2768 -0.7526
13547SOL     OW45325   7.823  10.448   7.096  0.4919 -0.0490 -0.3221
13547SOL    HW145326   7.879  10.483   7.165  1.4568 -1.0214 -0.5977
13547SOL    HW245327   7.734  10.459   7.130  0.5732  3.7475 -0.8777
13548SOL     OW45328   8.437  11.724   5.686  0.0364 -0.4973  0.4859
13548SOL    HW145329   8.398  11.807   5.660  0.4997 -0.2215  0.6596
13548SOL    HW245330   8.477  11.690   5.606 -2.6497 -2.0078 -0.3481
13549SOL     OW45331   7.861   4.566   2.920  0.1453  0.0551  0.3268
13549SOL    HW145332   7.868   4.480   2.961  0.0196  0.0035  0.2437
13549SOL    HW245333   7.934   4.571   2.859  1.3923  0.8463  1.8289
13550SOL     OW45334   8.786  11.329   4.255  0.2534 -0.3106  0.4364
13550SOL    HW145335   8.693  11.343   4.241  0.6839  1.4872 -1.1102
13550SOL    HW245336   8.803  11.241   4.221 -1.3100 -1.9446  3.4795
13551SOL     OW45337   5.309   3.536   1.901 -0.1264  0.0172 -0.1546
13551SOL    HW145338   5.339   3.553   1.812 -0.1227  0.3912 -0.0841
13551SOL    HW245339   5.384   3.496   1.944 -0.4089 -0.9775 -0.5582
13552SOL     OW45340   4.215  11.996  10.961  0.0242  0.5412 -0.5125
13552SOL    HW145341   4.223  12.083  11.000 -0.5581  0.4435 -0.1677
13552SOL    HW245342   4.124  11.992  10.932 -0.4289 -0.5723  0.9552
13553SOL     OW45343   5.087   8.405   5.752  0.1051 -0.1398 -0.0928
13553SOL    HW145344   5.035   8.391   5.673 -0.3349 -1.1435  0.3496
13553SOL    HW245345   5.066   8.494   5.779 -2.0012 -0.7463  0.4752
13554SOL     OW45346  11.016   6.320   3.827 -0.3540  0.9647  0.3983
13554SOL    HW145347  11.045   6.235   3.860  0.8007  0.1246 -2.4654
13554SOL    HW245348  10.969   6.360   3.900 -0.9163 -2.1223  1.8607
13555SOL     OW45349   1.513   7.599   0.434 -0.0775  0.1439 -0.7120
13555SOL    HW145350   1.567   7.538   0.484 -3.1671 -0.3499  2.4669
13555SOL    HW245351   1.550   7.685   0.454  1.0054 -0.3183 -0.6624
13556SOL     OW45352   1.588  10.282   2.005 -0.6570  0.3831  0.2913
13556SOL    HW145353   1.626  10.361   1.966 -0.6036 -0.4393 -1.4315
13556SOL    HW245354   1.494  10.288   1.985 -0.3900 -0.8597 -1.5675
13557SOL     OW45355   4.158  10.689  11.538 -0.5876 -0.7578  0.0481
13557SOL    HW145356   4.126  10.681  11.627  2.5022  1.0081  1.4568
13557SOL    HW245357   4.138  10.779  11.513  1.3513 -0.2462  0.2154
13558SOL     OW45358   3.994   5.942  10.584 -0.0834  0.0152 -0.0098
13558SOL    HW145359   3.979   5.883  10.658 -0.4621 -0.3623 -0.3838
13558SOL    HW245360   4.084   5.925  10.558  0.6898  1.4670  1.5191
13559SOL     OW45361   3.002   0.326   4.425 -0.4633 -0.4598 -0.2679
13559SOL    HW145362   3.076   0.293   4.475 -0.1467 -0.1995 -0.5611
13559SOL    HW245363   2.940   0.357   4.492  0.1955  0.4028 -0.0485
13560SOL     OW45364   8.311   5.543   0.288 -0.3776 -0.1000 -0.4816
13560SOL    HW145365   8.385   5.603   0.275  2.7194 -3.3321  0.5130
13560SOL    HW245366   8.310   5.488   0.210  0.4352 -2.0591  0.7931
13561SOL     OW45367   9.304   0.452   4.686 -0.4072 -0.0210  0.1409
13561SOL    HW145368   9.394   0.482   4.696 -0.3158 -0.4041  0.4483
13561SOL    HW245369   9.289   0.454   4.591 -0.1111  0.1424  0.0971
13562SOL     OW45370  11.169   3.740   0.732 -0.3780  0.5729  0.0996
13562SOL    HW145371  11.172   3.666   0.791 -0.7233  0.8645  0.4875
13562SOL    HW245372  11.217   3.711   0.654 -1.6243 -0.5072 -0.2827
13563SOL     OW45373   0.980   1.228   7.955  0.0469 -0.2596  0.2328
13563SOL    HW145374   0.943   1.183   8.031  1.0569 -0.7378  0.4517
13563SOL    HW245375   1.011   1.158   7.897  0.4241  0.1236 -0.0366
13564SOL     OW45376   3.805   5.320   7.691 -0.7559 -0.4926  0.4776
13564SOL    HW145377   3.779   5.410   7.670 -0.6122 -0.4957  0.2815
13564SOL    HW245378   3.801   5.274   7.607  2.6701  0.1752 -0.1834
13565SOL     OW45379   9.761   5.686   9.160 -0.5454  0.4283 -0.3616
13565SOL    HW145380   9.854   5.672   9.141 -0.5559  1.0383 -0.8872
13565SOL    HW245381   9.716   5.649   9.085 -0.7058  0.5591 -0.3302
13566SOL     OW45382   9.337   6.055   3.870 -0.4181  0.3099 -0.4178
13566SOL    HW145383   9.401   6.100   3.815 -0.8697  1.1095 -0.2936
13566SOL    HW245384   9.360   5.962   3.861 -0.7372  0.3621 -2.2966
13567SOL     OW45385   6.906   9.948   5.415  0.4479 -0.1666 -0.0445
13567SOL    HW145386   6.921   9.979   5.326 -1.8415  2.0617  0.2297
13567SOL    HW245387   6.954  10.010   5.470 -0.7901  0.4558  0.3621
13568SOL     OW45388   4.341   2.863   8.733 -0.1067  0.2736  0.3418
13568SOL    HW145389   4.373   2.775   8.755  0.3663  0.3842  0.1094
13568SOL    HW245390   4.373   2.919   8.804  0.5205  0.4459 -0.0716
13569SOL     OW45391  10.620   0.424   3.975  0.0964 -0.2356  0.0249
13569SOL    HW145392  10.600   0.391   3.888 -0.5328  1.1522 -0.3837
13569SOL    HW245393  10.632   0.346   4.029  0.0748 -1.1042 -1.2022
13570SOL     OW45394   2.571   7.768   1.475  0.5299 -0.1294  0.0812
13570SOL    HW145395   2.570   7.844   1.533  1.3185  0.3180 -0.4778
13570SOL    HW245396   2.610   7.800   1.394 -0.5298 -0.7567 -0.7029
13571SOL     OW45397   3.553   5.111   7.732 -0.1011 -0.3694 -0.9499
13571SOL    HW145398   3.636   5.064   7.718  3.4013  4.5007  0.5882
13571SOL    HW245399   3.542   5.112   7.827 -2.5199 -1.5821 -1.1593
13572SOL     OW45400   7.383  11.191   6.609  0.1667 -0.6192 -0.0954
13572SOL    HW145401   7.450  11.206   6.543 -0.5334  0.2687 -0.6217
13572SOL    HW245402   7.385  11.269   6.664  0.0121 -0.8849  0.2973
13573SOL     OW45403  10.893  10.946   0.655  0.3274 -0.0095  0.1989
13573SOL    HW145404  10.972  10.951   0.600  0.2838  0.6767  0.1984
13573SOL    HW245405  10.864  11.036   0.664 -0.3897 -0.2493  0.3128
13574SOL     OW45406   8.088   7.487   0.996  0.2438  0.3142 -0.6115
13574SOL    HW145407   8.078   7.548   1.069 -0.8018 -0.5892  0.0283
13574SOL    HW245408   8.159   7.429   1.023 -1.6868 -1.5179  0.8284
13575SOL     OW45409   5.787   8.508   2.745  0.3726 -0.2257  0.1617
13575SOL    HW145410   5.758   8.490   2.834  0.9786  0.2460  0.4590
13575SOL    HW245411   5.870   8.554   2.755  0.4799 -0.2215 -0.6486
13576SOL     OW45412   3.720  11.013   1.505 -0.4298  0.0907 -0.5282
13576SOL    HW145413   3.813  10.991   1.514 -0.1635  1.3253 -0.1065
13576SOL    HW245414   3.680  10.982   1.586  0.2342  2.4584  0.8077
13577SOL     OW45415  10.258   7.437  11.411  0.6851  0.0673 -0.1493
13577SOL    HW145416  10.177   7.478  11.441  0.5642  1.0316 -1.6922
13577SOL    HW245417  10.231   7.381  11.338  1.6030  1.8529 -1.9358
13578SOL     OW45418   7.652  11.214   6.990  0.2184  0.2647  0.3604
13578SOL    HW145419   7.693  11.217   6.903 -0.1883  1.5217  0.1861
13578SOL    HW245420   7.562  11.186   6.973 -1.0222  3.9887 -0.1872
13579SOL     OW45421   2.944  10.664   7.844  0.3973  0.6058  0.5807
13579SOL    HW145422   2.934  10.660   7.749  0.7125 -0.4382  0.5826
13579SOL    HW245423   2.960  10.574   7.870 -0.6338  0.7271  1.7344
13580SOL     OW45424   2.931   4.729   2.026 -0.6044  0.3434  0.2852
13580SOL    HW145425   3.004   4.780   2.062 -0.4420  0.8283 -0.7117
13580SOL    HW245426   2.864   4.733   2.094  0.4033 -0.3715  1.3542
13581SOL     OW45427   2.470   9.916   3.872  0.7472  0.5600 -0.1962
13581SOL    HW145428   2.431   9.924   3.785  1.4347  1.0334 -0.4595
13581SOL    HW245429   2.402   9.948   3.932  0.6102  1.0705 -0.6243
13582SOL     OW45430  11.058   4.664   1.844  0.1989  0.4784 -0.0112
13582SOL    HW145431  11.117   4.591   1.823  1.6166  1.9460 -1.4087
13582SOL    HW245432  11.088   4.736   1.788 -0.7510  2.3420  1.7539
13583SOL     OW45433  10.271   7.302   7.728  0.3873  0.5774 -0.3131
13583SOL    HW145434  10.308   7.376   7.776  2.2253 -0.5090  0.0451
13583SOL    HW245435  10.214   7.258   7.791 -1.0755  1.8928 -0.6647
13584SOL     OW45436  11.315   4.374   1.573 -0.0327  0.4076  0.0881
13584SOL    HW145437  11.321   4.414   1.487  1.0140 -1.5359 -0.8062
13584SOL    HW245438  11.271   4.290   1.558 -0.5453  0.3781  1.5746
13585SOL     OW45439  11.062   1.851  10.231 -0.2754  0.2548  0.1437
13585SOL    HW145440  11.137   1.887  10.279  1.8858 -1.8624 -1.3780
13585SOL    HW245441  11.068   1.757  10.246 -1.1878 -0.1880 -1.9752
13586SOL     OW45442   3.080   5.197   9.453  0.4013  0.3589 -0.3495
13586SOL    HW145443   3.058   5.180   9.544  0.7306 -1.5545 -0.5928
13586SOL    HW245444   2.997   5.224   9.413  0.3115  1.4797  0.5391
13587SOL     OW45445   2.085   6.460   3.285 -0.4544  0.2912  0.2258
13587SOL    HW145446   2.133   6.382   3.314 -0.7110 -0.0429 -0.2389
13587SOL    HW245447   2.077   6.449   3.191 -1.4481  0.3406  0.2979
13588SOL     OW45448   7.071  11.093   5.100 -0.1115  0.0707 -0.1279
13588SOL    HW145449   7.008  11.149   5.056 -1.7170 -2.7098 -1.7042
13588SOL    HW245450   7.018  11.037   5.158  0.9264 -1.7699 -0.8501
13589SOL     OW45451  10.761   0.556   9.469  0.2883  0.5848  0.9138
13589SOL    HW145452  10.770   0.601   9.385  2.2063  1.4614  1.5170
13589SOL    HW245453  10.808   0.613   9.531 -0.5293 -0.3608  2.4525
13590SOL     OW45454   7.510  10.103   2.928 -0.3205  0.3496 -0.2024
13590SOL    HW145455   7.530  10.190   2.961 -2.2721  0.7251  0.1043
13590SOL    HW245456   7.429  10.114   2.878 -1.6806 -1.5577  1.3796
13591SOL     OW45457  10.436   9.873   4.769 -0.3187 -0.6570  0.4525
13591SOL    HW145458  10.507   9.809   4.781  0.7342  0.4094  0.1381
13591SOL    HW245459  10.357   9.826   4.795  0.4256 -2.0665  0.2830
13592SOL     OW45460   5.317   1.651   5.022  0.2555 -0.1863 -0.0558
13592SOL    HW145461   5.328   1.721   5.086  1.1187 -0.3082 -0.0586
13592SOL    HW245462   5.235   1.609   5.046  0.4888 -0.1316  0.8773
13593SOL     OW45463   0.365  10.548   2.089  0.5582 -0.5149  0.1022
13593SOL    HW145464   0.334  10.631   2.052 -0.3724 -0.0976  1.7178
13593SOL    HW245465   0.319  10.481   2.038  2.1052 -0.1403 -1.9256
13594SOL     OW45466   3.436   5.408   7.764  0.3162 -0.9275  0.0971
13594SOL    HW145467   3.494   5.359   7.707  1.3868 -1.9324  1.9556
13594SOL    HW245468   3.377   5.342   7.801  0.5730 -0.5600  1.2104
13595SOL     OW45469   6.643   2.406   0.620  0.2682 -0.3410  0.0559
13595SOL    HW145470   6.687   2.358   0.550 -2.1640 -1.8117 -0.5703
13595SOL    HW245471   6.589   2.471   0.574  0.4185  0.2596  0.7047
13596SOL     OW45472   9.208   2.877   3.368  0.1071 -0.0258 -0.0944
13596SOL    HW145473   9.208   2.908   3.458  0.5649  0.1021 -0.1364
13596SOL    HW245474   9.169   2.789   3.373  2.2868 -1.0487  0.6019
13597SOL     OW45475   3.961   8.255   5.732  0.0641 -0.2677 -0.1228
13597SOL    HW145476   3.932   8.171   5.697 -0.3728 -0.0459 -0.2975
13597SOL    HW245477   4.007   8.233   5.813 -0.2985 -0.6491 -0.0187
13598SOL     OW45478   0.013   2.456   7.418  0.3764  0.3046 -0.4026
13598SOL    HW145479   0.012   2.441   7.323  0.2238 -0.2851 -0.3131
13598SOL    HW245480   0.062   2.537   7.429 -0.1968  0.7496 -1.0330
13599SOL     OW45481  11.553   9.815   9.157  0.6531  0.1567 -0.4968
13599SOL    HW145482  11.566   9.909   9.163  0.4666  0.1182  0.8107
13599SOL    HW245483  11.476   9.805   9.101  0.1819  0.8268  0.0109
13600SOL     OW45484   1.586  11.538   5.531 -0.2548 -0.3606  0.7439
13600SOL    HW145485   1.651  11.565   5.466 -1.9056  2.6056  0.1252
13600SOL    HW245486   1.543  11.462   5.493  0.6970 -0.3884 -0.3092
13601SOL     OW45487   8.515   6.447   0.139  0.2893  0.5776  0.5107
13601SOL    HW145488   8.523   6.356   0.111 -2.9827  0.1061  0.7707
13601SOL    HW245489   8.448   6.484   0.082 -0.4343  2.0008  2.1945
13602SOL     OW45490   8.544   1.923   3.501 -0.0412 -0.0381  0.1672
13602SOL    HW145491   8.515   1.833   3.510  0.1975 -0.0786  0.5716
13602SOL    HW245492   8.464   1.974   3.487 -0.0153 -0.5785 -2.4251
13603SOL     OW45493   5.597   3.557  11.514  0.2290  0.0833  0.1905
13603SOL    HW145494   5.564   3.492  11.453  1.9197  0.3787 -1.1030
13603SOL    HW245495   5.630   3.507  11.588  0.8909 -0.5180 -0.4920
13604SOL     OW45496   6.324   6.689   0.026  0.0668  0.0638  0.5097
13604SOL    HW145497   6.278   6.773   0.032 -0.0274  0.3290 -2.5945
13604SOL    HW245498   6.375   6.694  -0.054  1.0282 -2.4065  0.8654
13605SOL     OW45499   9.341  11.713  11.279  0.1337 -0.5827 -0.1684
13605SOL    HW145500   9.430  11.689  11.254  0.5091  0.3025  0.2759
13605SOL    HW245501   9.288  11.689  11.204  0.7015 -1.3724 -0.3325
13606SOL     OW45502   5.961   7.840   1.694 -0.2146 -0.5645  0.5252
13606SOL    HW145503   5.960   7.745   1.704 -0.0214 -0.5137  1.0641
13606SOL    HW245504   6.042   7.857   1.645 -0.6275 -0.7333 -0.2264
13607SOL     OW45505   6.573  11.520   0.467 -0.1651  0.5419  0.3614
13607SOL    HW145506   6.556  11.567   0.549 -1.0113  1.2705 -0.2178
13607SOL    HW245507   6.659  11.480   0.480  0.6652  2.3641  0.8388
13608SOL     OW45508   7.456  10.682   8.243  0.4511 -0.0550 -0.1853
13608SOL    HW145509   7.540  10.724   8.224 -0.5345  1.2759 -1.9774
13608SOL    HW245510   7.468  10.591   8.214  0.6517  0.6659 -2.6620
13609SOL     OW45511  10.369   5.377   2.693 -0.2915  0.2031  0.0179
13609SOL    HW145512  10.372   5.468   2.661 -0.0470  0.6677  1.3017
13609SOL    HW245513  10.310   5.380   2.768 -1.7605 -1.0888 -1.0346
13610SOL     OW45514   8.112   9.538   2.675 -0.1990 -1.1336  0.5590
13610SOL    HW145515   8.184   9.527   2.738  0.3406  0.4686  0.2927
13610SOL    HW245516   8.076   9.451   2.663  0.4676 -1.6689  2.1806
13611SOL     OW45517   2.231   5.897   1.124  0.2017 -0.5735  0.1242
13611SOL    HW145518   2.264   5.808   1.107 -2.2685 -1.7607  1.0622
13611SOL    HW245519   2.218   5.934   1.037  0.3667 -1.4960 -0.3108
13612SOL     OW45520   9.606   0.713  11.509  0.1120  0.1342 -0.0116
13612SOL    HW145521   9.528   0.742  11.556 -0.0920 -1.0410  0.4057
13612SOL    HW245522   9.650   0.794  11.483 -1.9944  0.8835 -1.5692
13613SOL     OW45523  10.878   6.575   6.570  0.9381 -0.4873 -0.3620
13613SOL    HW145524  10.852   6.581   6.662 -0.5502 -2.2781 -0.6161
13613SOL    HW245525  10.961   6.622   6.566 -0.3278  2.1900  1.2915
13614SOL     OW45526   3.987   4.989   2.106 -0.2758 -0.5403 -0.1933
13614SOL    HW145527   4.045   4.918   2.134  2.1010  2.0947  2.3264
13614SOL    HW245528   4.026   5.021   2.025 -0.0595 -0.7778 -0.1835
13615SOL     OW45529  10.089   9.675  10.942  0.4610  0.3702 -0.6452
13615SOL    HW145530  10.175   9.667  10.982 -0.5892 -0.9378  1.5414
13615SOL    HW245531  10.079   9.768  10.925  1.4568  0.8498  1.1238
13616SOL     OW45532   9.043   6.892   3.552 -0.0801  0.4122 -0.7456
13616SOL    HW145533   8.980   6.851   3.492  0.9656  1.2773 -2.5146
13616SOL    HW245534   9.031   6.845   3.635 -2.4025 -0.0450 -1.2702
13617SOL     OW45535   0.463   9.806   2.877 -0.7968  0.0789  0.1058
13617SOL    HW145536   0.541   9.860   2.886  0.3400 -1.2316 -1.4316
13617SOL    HW245537   0.434   9.789   2.966  1.6847 -0.8334  0.8009
13618SOL     OW45538   4.441   9.579   5.618  0.0724 -0.5906  0.0102
13618SOL    HW145539   4.455   9.624   5.534 -2.6376  1.3591  0.4634
13618SOL    HW245540   4.403   9.495   5.593  1.9890 -1.2781 -0.7535
13619SOL     OW45541   9.582   7.611   6.346 -0.0312 -0.2365 -0.1172
13619SOL    HW145542   9.569   7.641   6.255 -0.1302  0.0156 -0.0217
13619SOL    HW245543   9.652   7.667   6.379 -0.5686  0.2502  0.2271
13620SOL     OW45544   4.614   4.759   6.425 -0.0322 -0.0737  0.4007
13620SOL    HW145545   4.596   4.683   6.371  1.7615  0.6652 -1.3705
13620SOL    HW245546   4.534   4.812   6.421 -0.5584 -0.8984 -0.0278
13621SOL     OW45547   0.499   2.008   5.147  0.3861 -0.3117 -0.8303
13621SOL    HW145548   0.445   2.007   5.068  1.3721  0.8885 -1.5609
13621SOL    HW245549   0.589   2.003   5.114  1.0100  3.3053 -0.0397
13622SOL     OW45550   9.082   7.713   7.287  0.1328 -0.1833 -0.4725
13622SOL    HW145551   9.087   7.618   7.300 -2.0275 -0.1185  1.4427
13622SOL    HW245552   9.074   7.724   7.193 -1.1162 -2.0169 -0.6283
13623SOL     OW45553   2.375   1.282   9.379 -0.0449  0.4660 -0.2966
13623SOL    HW145554   2.393   1.367   9.419  0.2466 -0.4469  1.6301
13623SOL    HW245555   2.282   1.284   9.358  0.2305  1.7167 -1.4794
13624SOL     OW45556  11.361  11.867   9.203  0.7289  0.1828 -0.5202
13624SOL    HW145557  11.354  11.777   9.170  0.2525 -0.0935  0.3204
13624SOL    HW245558  11.362  11.858   9.298  1.2547  1.0343 -0.4359
13625SOL     OW45559  10.575  11.253   1.383  0.2609  0.0494 -0.0611
13625SOL    HW145560  10.664  11.271   1.352  1.5155  0.2762  3.2372
13625SOL    HW245561  10.579  11.163   1.417 -0.2515  0.6234  1.6102
13626SOL     OW45562   9.144   9.336   7.053 -0.0608 -0.6754 -0.1992
13626SOL    HW145563   9.090   9.323   7.130  0.1885  0.1764  0.1358
13626SOL    HW245564   9.231   9.305   7.078  0.0740 -0.1919 -0.0548
13627SOL     OW45565   2.669   2.473   0.832 -0.5257 -0.5915  0.2941
13627SOL    HW145566   2.635   2.479   0.921 -0.2217  1.4667  0.3223
13627SOL    HW245567   2.763   2.483   0.841 -0.3037 -2.0778 -0.1458
13628SOL     OW45568   6.323   2.584   8.475  0.4361 -0.6018 -0.0652
13628SOL    HW145569   6.414   2.568   8.502  0.2305  0.1539  1.1623
13628SOL    HW245570   6.270   2.553   8.549 -0.2448 -0.0483 -0.3096
13629SOL     OW45571  10.836   5.773   1.554 -0.6026  0.1964  0.4220
13629SOL    HW145572  10.893   5.821   1.614 -0.2739 -1.1416  1.2211
13629SOL    HW245573  10.748   5.805   1.574 -0.1840  2.5506 -1.0709
13630SOL     OW45574   1.343   7.693   5.912 -0.4278  0.1118  0.3402
13630SOL    HW145575   1.324   7.778   5.952 -1.7847  0.0775 -0.2190
13630SOL    HW245576   1.262   7.643   5.919  0.7347 -1.7229  2.0102
13631SOL     OW45577   5.463   4.220   2.874  1.0003 -0.4546 -0.1276
13631SOL    HW145578   5.539   4.247   2.927  0.7505 -0.0742  0.0370
13631SOL    HW245579   5.418   4.155   2.929  1.2435 -0.7333 -0.2547
13632SOL     OW45580   2.624   1.078   5.289  0.2807  0.6496 -0.2616
13632SOL    HW145581   2.596   1.031   5.367  1.3916 -1.9260 -1.3206
13632SOL    HW245582   2.682   1.147   5.323 -1.0630  1.0814  1.3003
13633SOL     OW45583  10.934   6.272  10.114  1.2682  0.2229  0.5138
13633SOL    HW145584  10.960   6.181  10.106  1.0839 -0.0143  2.1728
13633SOL    HW245585  10.967   6.314  10.035 -0.3107 -1.6429 -1.2535
13634SOL     OW45586   4.401   1.796   6.717 -0.7445 -0.1008  0.2905
13634SOL    HW145587   4.448   1.784   6.634 -0.0803  2.7091  0.1746
13634SOL    HW245588   4.469   1.786   6.784 -0.9757 -0.7868  0.4355
13635SOL     OW45589   6.126  10.254   5.455 -0.1116  0.1350  0.1974
13635SOL    HW145590   6.067  10.179   5.455  0.4330 -0.3057  1.0504
13635SOL    HW245591   6.211  10.219   5.482  0.5298  0.7800 -0.9067
13636SOL     OW45592   6.834   9.756   0.393  0.6955 -0.0846  0.5659
13636SOL    HW145593   6.775   9.690   0.430  0.0226 -0.4589 -1.0723
13636SOL    HW245594   6.813   9.757   0.299  2.2989  0.8162  0.1734
13637SOL     OW45595   8.686   7.995   7.104 -0.0080  0.2204  0.6831
13637SOL    HW145596   8.736   8.066   7.063 -0.7516 -0.7204 -2.0745
13637SOL    HW245597   8.702   7.919   7.048  0.1713 -1.6665  3.1258
13638SOL     OW45598   0.667   4.684  10.859 -0.2984  0.3096  0.0502
13638SOL    HW145599   0.596   4.724  10.810 -0.9298  1.3264  1.6900
13638SOL    HW245600   0.625   4.617  10.912  0.0513  0.4679  0.5402
13639SOL     OW45601   2.238   4.910   4.144  0.5886 -0.8157 -0.4794
13639SOL    HW145602   2.243   4.972   4.071 -2.8743  1.5152  1.0205
13639SOL    HW245603   2.197   4.959   4.215  1.0248 -3.8358  2.0966
13640SOL     OW45604   7.329  11.191   2.649  0.1023  0.4691  0.1531
13640SOL    HW145605   7.355  11.280   2.627 -1.2893  1.0216  0.5736
13640SOL    HW245606   7.238  11.185   2.617  0.1816 -0.7972  0.1353
13641SOL     OW45607  11.739   5.328   3.554  0.4183 -0.4159 -0.0001
13641SOL    HW145608  11.733   5.418   3.587  0.6976  0.6639 -2.6428
13641SOL    HW245609  11.648   5.299   3.546  0.3185 -0.2861  0.6126
13642SOL     OW45610   6.226   6.101   7.814 -0.2475 -0.1867  0.2246
13642SOL    HW145611   6.136   6.068   7.809  0.3517 -1.8795  0.0855
13642SOL    HW245612   6.245   6.132   7.726 -1.0622  1.2851  0.5314
13643SOL     OW45613   7.465  10.249   3.844 -0.5306  0.0388  0.2368
13643SOL    HW145614   7.445  10.209   3.929 -0.8786 -0.5976 -0.1378
13643SOL    HW245615   7.441  10.341   3.855  1.1088  0.3734  1.3874
13644SOL     OW45616   9.083   3.392   0.203  0.0093 -0.3375  0.3444
13644SOL    HW145617   9.030   3.472   0.213  0.4167 -0.0448  0.1869
13644SOL    HW245618   9.148   3.398   0.272  1.5869  0.6966 -1.1553
13645SOL     OW45619   0.138   8.157   7.617  0.5171  0.0956 -0.0768
13645SOL    HW145620   0.065   8.097   7.635  0.5498  0.1342  0.1817
13645SOL    HW245621   0.125   8.230   7.678  2.1039 -1.0009  1.6775
13646SOL     OW45622   8.086  10.616   8.847  0.4161 -0.3504  0.1001
13646SOL    HW145623   8.051  10.588   8.931  1.0597 -1.1673  0.1056
13646SOL    HW245624   8.009  10.639   8.795 -0.0400 -0.7875  0.5736
13647SOL     OW45625   7.459   1.686  11.587  0.6450 -0.5155 -0.1224
13647SOL    HW145626   7.394   1.622  11.617 -0.4768  0.8703  0.4893
13647SOL    HW245627   7.534   1.672  11.645 -0.5358  0.4008  1.7276
13648SOL     OW45628   7.745   9.903   1.863  0.5276  0.1616  0.6632
13648SOL    HW145629   7.787   9.977   1.820 -0.6795  1.1714  1.1737
13648SOL    HW245630   7.779   9.826   1.817  1.3172  1.0516 -0.2901
13649SOL     OW45631   4.022   3.297   2.458  0.0515 -0.4177  0.2840
13649SOL    HW145632   3.971   3.288   2.378 -1.3296 -0.0758  1.1016
13649SOL    HW245633   4.074   3.217   2.463  0.3130 -0.3489 -1.0509
13650SOL     OW45634   1.844   9.326   0.339 -0.2216 -0.1908 -0.5469
13650SOL    HW145635   1.779   9.381   0.295 -1.0265  0.3214  1.1817
13650SOL    HW245636   1.922   9.331   0.283 -0.3578  2.4833 -0.6377
13651SOL     OW45637   5.493   3.788  11.894 -1.2329  0.6925  0.4185
13651SOL    HW145638   5.491   3.870  11.943 -0.2855  0.3910  0.9893
13651SOL    HW245639   5.427   3.733  11.936  0.0400  0.1861  1.8630
13652SOL     OW45640   7.939   7.141  10.902 -0.5186 -0.1560  0.0145
13652SOL    HW145641   7.889   7.094  10.835 -0.0109 -1.0198  0.2396
13652SOL    HW245642   8.027   7.105  10.896 -0.3801  0.0162  0.9142
13653SOL     OW45643  10.320   6.495  10.096  0.1980 -0.2794  0.1083
13653SOL    HW145644  10.242   6.552  10.102 -0.4914 -1.1149 -0.6763
13653SOL    HW245645  10.387   6.552  10.059 -0.5183  0.0052 -0.7951
13654SOL     OW45646   6.268   5.191  10.212 -0.0574  0.4577 -0.0866
13654SOL    HW145647   6.329   5.256  10.247  0.8105 -0.8649  0.9656
13654SOL    HW245648   6.324   5.118  10.185 -1.1769 -0.8704  1.0619
13655SOL     OW45649   6.610   9.874   4.189 -0.1959  0.4387 -0.1012
13655SOL    HW145650   6.561   9.828   4.121  0.2329  0.9926 -0.8082
13655SOL    HW245651   6.636   9.957   4.148  0.5545  0.5417  0.5452
13656SOL     OW45652   2.202  11.678   3.141 -0.1218  0.2616  0.8345
13656SOL    HW145653   2.134  11.685   3.074  0.5523  0.7328  0.1971
13656SOL    HW245654   2.219  11.768   3.168 -0.9531  0.0313  2.2320
13657SOL     OW45655   1.002   2.669   9.402  0.3921  0.4762 -0.2147
13657SOL    HW145656   0.945   2.730   9.356 -1.8056 -0.9005  0.5625
13657SOL    HW245657   1.061   2.724   9.453 -1.2630  1.9556  0.1611
13658SOL     OW45658  10.039   8.041   7.626 -0.2236 -0.1419 -0.4972
13658SOL    HW145659  10.088   7.961   7.606  0.0488 -0.0599 -0.1614
13658SOL    HW245660  10.056   8.098   7.551 -0.4925 -0.4291 -0.7820
13659SOL     OW45661   0.031   1.911   3.138  0.2681 -0.2395 -0.0733
13659SOL    HW145662   0.114   1.863   3.133 -0.6472 -1.8472 -0.3921
13659SOL    HW245663  -0.031   1.849   3.176 -0.9832  0.6462 -0.5933
13660SOL     OW45664   9.223   9.601   7.622  0.2901 -1.1408 -0.3561
13660SOL    HW145665   9.283   9.578   7.693 -0.1947 -2.2084 -0.2734
13660SOL    HW245666   9.154   9.652   7.665  1.3975  0.6275 -0.5505
13661SOL     OW45667   5.253   5.998  10.808  0.5949  0.3052  0.5725
13661SOL    HW145668   5.330   6.053  10.824 -0.2446  2.2274 -1.5400
13661SOL    HW245669   5.288   5.917  10.770  1.6308  0.7324  0.5948
13662SOL     OW45670   9.517   3.209   0.495 -0.6630 -0.3705  0.0085
13662SOL    HW145671   9.508   3.276   0.428 -1.8193 -1.4153 -0.9313
13662SOL    HW245672   9.586   3.241   0.553  0.4879  0.4613 -1.7740
13663SOL     OW45673  10.815   6.475   7.902 -0.5985 -0.2170 -0.2213
13663SOL    HW145674  10.755   6.418   7.855 -0.2868 -1.8187  1.2486
13663SOL    HW245675  10.893   6.480   7.846 -0.8771 -0.7055 -0.6502
13664SOL     OW45676   7.329  11.544   7.981  0.0158 -0.3459 -0.1941
13664SOL    HW145677   7.362  11.632   7.962  0.4092 -0.8393 -1.8740
13664SOL    HW245678   7.272  11.556   8.057 -0.2189  1.4224 -0.6175
13665SOL     OW45679   1.006   4.538   4.680 -0.4909 -0.2394  0.3586
13665SOL    HW145680   0.996   4.444   4.667  0.3263 -0.3820  0.6730
13665SOL    HW245681   1.072   4.564   4.615 -0.5535  0.0776  0.4194
13666SOL     OW45682   7.173   1.592   5.166 -0.3491  0.1812 -0.0530
13666SOL    HW145683   7.248   1.568   5.111  0.5640  2.6905 -0.0298
13666SOL    HW245684   7.196   1.560   5.253 -0.0654 -0.4510 -0.3481
13667SOL     OW45685   4.620   0.163   0.947  0.1899 -0.2527 -0.3614
13667SOL    HW145686   4.656   0.251   0.945  3.2522 -1.3780 -2.0150
13667SOL    HW245687   4.605   0.141   0.855 -1.9958 -0.9725  0.1106
13668SOL     OW45688   6.130   2.241   6.797 -0.2015 -0.4013  0.0429
13668SOL    HW145689   6.048   2.199   6.824 -0.7777  0.6819 -0.0039
13668SOL    HW245690   6.105   2.297   6.723  0.0545  1.9653  1.6745
13669SOL     OW45691   1.651   9.943  11.738  0.4551 -0.1905 -0.7004
13669SOL    HW145692   1.688   9.864  11.779 -2.9577 -2.2131 -1.1290
13669SOL    HW245693   1.656  10.009  11.807  2.7764 -0.9178 -0.0718
13670SOL     OW45694   2.424  10.482   5.060  0.1348  0.1596 -0.0831
13670SOL    HW145695   2.518  10.496   5.060  0.1735 -0.0546  0.3807
13670SOL    HW245696   2.413  10.388   5.042  0.0052  0.2140 -0.2930
13671SOL     OW45697   0.274   3.491   6.311  0.0375 -0.3885  0.0987
13671SOL    HW145698   0.288   3.544   6.390 -0.4626  0.4003 -0.3257
13671SOL    HW245699   0.282   3.554   6.239  0.3189 -1.0655 -0.4729
13672SOL     OW45700   4.335   3.563   0.206 -0.2515 -0.3633  0.1690
13672SOL    HW145701   4.273   3.634   0.220  0.9059  0.5045  1.1387
13672SOL    HW245702   4.411   3.606   0.166  0.2269 -1.1676  0.1938
13673SOL     OW45703   9.123   6.035   3.372  0.4044  1.0722  0.3180
13673SOL    HW145704   9.218   6.050   3.367  0.8049 -0.7618  1.4560
13673SOL    HW245705   9.114   5.964   3.435 -1.8484  2.1006  1.2501
13674SOL     OW45706   3.864   1.558   5.655 -0.3177 -0.3047 -0.5799
13674SOL    HW145707   3.873   1.476   5.703 -1.7556 -0.0570  0.1751
13674SOL    HW245708   3.840   1.531   5.566  1.9642 -0.7489 -1.1345
13675SOL     OW45709   1.526   5.079   9.207  0.0537 -0.5517  0.3479
13675SOL    HW145710   1.547   5.022   9.281  0.3743  1.2834  1.7195
13675SOL    HW245711   1.612   5.105   9.172 -0.0766 -0.1750  0.3093
13676SOL     OW45712   8.610   3.138   5.268  0.4515  0.6210 -0.6067
13676SOL    HW145713   8.583   3.046   5.261 -1.0819  1.0978 -1.5781
13676SOL    HW245714   8.644   3.159   5.181  1.8844  0.6934 -0.0607
13677SOL     OW45715   2.724   4.390   8.023  0.3981  0.8253 -0.1642
13677SOL    HW145716   2.799   4.385   7.963 -0.0014  0.9305 -0.6799
13677SOL    HW245717   2.754   4.449   8.093  0.9216  0.5838 -0.1783
13678SOL     OW45718   1.722   5.299   5.490  0.0167  0.1660  0.2580
13678SOL    HW145719   1.727   5.204   5.487 -0.5574  0.1564 -1.6945
13678SOL    HW245720   1.806   5.329   5.455  0.4553  0.4057  1.4711
13679SOL     OW45721  10.300   2.078   5.766 -0.2890 -0.1387 -0.1534
13679SOL    HW145722  10.391   2.103   5.784 -0.3531  1.0336 -1.3334
13679SOL    HW245723  10.299   2.056   5.673 -0.7685 -2.3538  0.3134
13680SOL     OW45724   2.181   8.803   6.770  0.2968  0.1607  0.3899
13680SOL    HW145725   2.194   8.797   6.864  0.2319 -0.8709  0.3426
13680SOL    HW245726   2.263   8.840   6.737  1.2534 -1.6290  0.6288
13681SOL     OW45727   8.086   3.042   2.981  0.6247 -0.2654  0.5001
13681SOL    HW145728   8.129   3.122   2.952  0.5968 -0.3685  0.1659
13681SOL    HW245729   8.046   3.006   2.901 -0.6654  0.1908  0.9104
13682SOL     OW45730   3.117   7.564   8.919  0.3127  0.3356 -0.0980
13682SOL    HW145731   3.188   7.603   8.970  0.5182 -0.8396  0.5437
13682SOL    HW245732   3.037   7.599   8.959  0.5069  1.6025 -0.7760
13683SOL     OW45733  11.737   8.120   0.357  0.4129 -0.8009 -0.2348
13683SOL    HW145734  11.734   8.081   0.270  1.6019  2.3398 -1.8474
13683SOL    HW245735  11.831   8.130   0.375  0.2434  2.0677 -0.4380
13684SOL     OW45736   7.046   8.128   4.399 -0.2381 -0.6155 -0.1306
13684SOL    HW145737   7.022   8.217   4.423  0.7252  0.6351 -3.2472
13684SOL    HW245738   6.970   8.094   4.353 -0.0637 -0.8046 -0.2833
13685SOL     OW45739   6.249   0.879   6.898 -0.2735 -0.3440 -0.2239
13685SOL    HW145740   6.233   0.947   6.964 -2.5242  1.2015 -2.1835
13685SOL    HW245741   6.326   0.910   6.850  0.5015 -0.7442  0.7267
13686SOL     OW45742  11.702   9.479   4.151 -0.2116 -0.3328  0.7246
13686SOL    HW145743  11.695   9.575   4.157 -1.0526 -0.2737 -0.8267
13686SOL    HW245744  11.644   9.447   4.221  0.5507  0.2647  1.6609
13687SOL     OW45745   9.284   6.262   3.490 -0.4135  0.3155  0.5932
13687SOL    HW145746   9.245   6.197   3.549 -0.1891 -1.3686 -1.0269
13687SOL    HW245747   9.211   6.320   3.468 -0.9780 -0.2217  0.9760
13688SOL     OW45748   2.459   8.436   3.745 -0.0251  0.0870 -0.1159
13688SOL    HW145749   2.400   8.431   3.670 -0.6298 -0.1469  0.3743
13688SOL    HW245750   2.525   8.500   3.718 -0.8808  0.8693 -0.4002
13689SOL     OW45751   8.794   3.856  11.498  0.0074 -0.4919  0.1295
13689SOL    HW145752   8.867   3.898  11.543  0.1151 -1.0838  0.5263
13689SOL    HW245753   8.721   3.917  11.508  0.4146  0.0551 -0.1812
13690SOL     OW45754   6.816   7.763   7.175  0.0653  0.4539  0.2446
13690SOL    HW145755   6.898   7.716   7.186  1.1795  1.8830 -1.3530
13690SOL    HW245756   6.823   7.839   7.233 -1.7188 -1.1544  2.8049
13691SOL     OW45757   6.609   9.503   9.510  0.2857  0.0176  0.2308
13691SOL    HW145758   6.598   9.483   9.417  1.2262 -2.8090  0.6357
13691SOL    HW245759   6.697   9.542   9.516 -0.7874  2.7397 -0.3133
13692SOL     OW45760   9.749   2.446   9.524  0.0015 -0.3959  0.1977
13692SOL    HW145761   9.668   2.419   9.567  0.3530 -1.1386  0.4134
13692SOL    HW245762   9.785   2.514   9.581 -1.0979  0.8680 -0.5620
13693SOL     OW45763  10.103   2.878   4.093 -0.3239  0.2526 -0.0334
13693SOL    HW145764  10.109   2.786   4.068  2.4224  0.3923 -0.2301
13693SOL    HW245765  10.130   2.926   4.015  0.4872  1.0760  0.7198
13694SOL     OW45766   1.976   3.028   1.808 -0.1835  0.5460 -0.0887
13694SOL    HW145767   1.983   3.045   1.902 -1.0695 -0.0593  0.1019
13694SOL    HW245768   2.003   3.110   1.767  0.5348  0.7171  0.6742
13695SOL     OW45769   7.263   8.928   6.169 -0.4192 -0.8562  0.1702
13695SOL    HW145770   7.315   8.878   6.105  2.5936  0.3458  1.4749
13695SOL    HW245771   7.234   8.863   6.233 -1.0554 -1.6439 -0.8896
13696SOL     OW45772   0.478   2.044   8.159  0.1088 -0.5659 -0.3146
13696SOL    HW145773   0.406   2.107   8.160 -0.5904 -1.2936  2.5196
13696SOL    HW245774   0.436   1.960   8.142  0.2257 -1.0123  1.4814
13697SOL     OW45775  10.087   3.815   9.717  0.0656 -0.1835 -0.1222
13697SOL    HW145776  10.060   3.898   9.756  0.3941  0.1519 -0.6050
13697SOL    HW245777  10.063   3.823   9.624  1.0603 -0.2067 -0.3909
13698SOL     OW45778   6.736   5.957   2.257 -0.3287 -0.0810  0.8771
13698SOL    HW145779   6.821   5.984   2.222 -0.7049  0.2730  0.2118
13698SOL    HW245780   6.757   5.905   2.335  0.4682  0.8125  1.2743
13699SOL     OW45781   9.095   2.930   1.937 -0.1317  0.2445  0.2294
13699SOL    HW145782   9.144   2.967   1.863  0.0265  0.2897  0.3554
13699SOL    HW245783   9.137   2.968   2.014 -0.3348  0.2434  0.3406
13700SOL     OW45784   7.814   7.286   6.910 -0.1523 -0.4103 -0.1699
13700SOL    HW145785   7.892   7.297   6.856 -0.5961 -1.9144 -1.2033
13700SOL    HW245786   7.818   7.356   6.975  0.6369  1.1891 -1.8833
13701SOL     OW45787   3.992   2.199   0.684 -0.0163  0.3111  0.0836
13701SOL    HW145788   4.000   2.288   0.648  0.1654  0.0957 -0.4134
13701SOL    HW245789   3.921   2.205   0.747 -1.3991  0.3465 -1.4218
13702SOL     OW45790   5.639   6.331  10.369  0.5249  0.0902 -0.2315
13702SOL    HW145791   5.651   6.246  10.327 -0.1699  0.2395 -0.7537
13702SOL    HW245792   5.726   6.355  10.400  1.0368 -0.0579 -1.5001
13703SOL     OW45793   6.035  10.803   7.598  0.4489  0.5200  0.2453
13703SOL    HW145794   6.051  10.888   7.557 -1.2887  0.0028 -1.6596
13703SOL    HW245795   6.057  10.739   7.531 -1.0948 -0.4240  0.5837
13704SOL     OW45796   2.871   2.949   7.185 -0.2060 -0.0202 -0.0323
13704SOL    HW145797   2.854   3.043   7.183  0.7895  0.1820  0.4248
13704SOL    HW245798   2.917   2.932   7.102  0.2585  0.0312  0.2131
13705SOL     OW45799  10.976   5.603   7.244 -0.1446  1.0215  0.4307
13705SOL    HW145800  10.892   5.578   7.282  0.2612  0.7188  1.1386
13705SOL    HW245801  10.988   5.543   7.170 -0.4485  0.9313  0.4536
13706SOL     OW45802   1.287   2.936   3.439 -0.3331  0.3346 -0.1241
13706SOL    HW145803   1.356   2.875   3.464 -1.5607 -0.4854  1.4502
13706SOL    HW245804   1.231   2.942   3.516 -1.9671  1.0366 -1.3031
13707SOL     OW45805   9.646   8.406   0.201 -0.1507 -0.2678  0.0451
13707SOL    HW145806   9.602   8.364   0.275 -3.2668  1.6536 -0.5489
13707SOL    HW245807   9.682   8.487   0.237 -1.8226  0.7563 -0.4750
13708SOL     OW45808   4.329  10.455   2.935  0.0757 -0.5746  0.1587
13708SOL    HW145809   4.252  10.495   2.975 -0.1242  0.3203 -1.0547
13708SOL    HW245810   4.367  10.402   3.004  1.0439  2.6211  2.3168
13709SOL     OW45811   2.889   2.321   1.421  0.0679 -0.3037  0.0621
13709SOL    HW145812   2.911   2.280   1.337 -1.0901 -0.6670 -0.0813
13709SOL    HW245813   2.933   2.266   1.486 -0.1827 -0.8588 -0.2263
13710SOL     OW45814   3.347  10.344   6.801  0.4918  0.0090  0.4564
13710SOL    HW145815   3.261  10.350   6.842  0.3759  0.5963  0.1309
13710SOL    HW245816   3.349  10.257   6.761  0.5767 -0.5495  1.6284
13711SOL     OW45817   1.708   0.515   7.432  0.4583  0.1764 -0.5027
13711SOL    HW145818   1.649   0.447   7.463 -0.8258  1.7149  0.5444
13711SOL    HW245819   1.791   0.469   7.416 -0.4852 -1.6884 -0.2467
13712SOL     OW45820   4.405   5.013   0.435  0.0941 -0.0156 -0.1782
13712SOL    HW145821   4.339   4.945   0.450 -0.0443  0.0133 -0.6524
13712SOL    HW245822   4.382   5.052   0.351 -0.5616  1.4845  0.6607
13713SOL     OW45823   3.342   0.690   2.571  0.9988 -0.4559  0.0171
13713SOL    HW145824   3.430   0.653   2.581  1.9875  1.6324 -0.3615
13713SOL    HW245825   3.344   0.733   2.485  0.4132  1.5696  0.9552
13714SOL     OW45826  10.213   6.650   7.576  0.1604 -0.3559  0.3393
13714SOL    HW145827  10.120   6.632   7.586  0.0770  0.8484  2.4083
13714SOL    HW245828  10.226   6.733   7.621  2.5130 -1.3218  1.6278
13715SOL     OW45829  10.255   9.858   5.311 -0.2917 -0.6963 -0.3295
13715SOL    HW145830  10.277   9.780   5.362  0.6460  0.2600  0.8038
13715SOL    HW245831  10.332   9.914   5.318 -0.2573 -0.3607 -2.5604
13716SOL     OW45832   7.046   9.497   4.627 -0.2553 -0.0862 -0.4130
13716SOL    HW145833   6.969   9.484   4.571  1.9280 -1.0998 -3.4274
13716SOL    HW245834   7.055   9.592   4.633 -1.2875  0.0476 -0.6608
13717SOL     OW45835   9.661   1.648   1.665 -0.8556  0.0099  0.2029
13717SOL    HW145836   9.748   1.617   1.692 -0.6525 -0.1787 -0.6421
13717SOL    HW245837   9.663   1.645   1.569 -1.5513  0.6897  0.1593
13718SOL     OW45838  11.493   5.491   5.975 -0.0811 -0.1609 -0.0646
13718SOL    HW145839  11.542   5.513   5.896 -0.0783 -1.0049 -0.3121
13718SOL    HW245840  11.560   5.455   6.034 -0.3081 -0.8406 -0.2127
13719SOL     OW45841   1.212   5.467   1.605  0.2250  0.6932  0.1562
13719SOL    HW145842   1.259   5.536   1.652  0.2201 -0.6720  2.2693
13719SOL    HW245843   1.280   5.416   1.562  0.4068  0.6409  0.5074
13720SOL     OW45844   1.778   3.575   3.599  0.5133  0.0985 -0.0516
13720SOL    HW145845   1.692   3.580   3.556  0.4210 -1.8695 -0.1999
13720SOL    HW245846   1.759   3.589   3.692  0.0568 -0.0230 -0.1211
13721SOL     OW45847   9.512   2.851   9.014  0.5059 -0.1235 -0.7628
13721SOL    HW145848   9.503   2.930   8.961 -2.1382  0.0668 -0.1399
13721SOL    HW245849   9.526   2.883   9.103  0.2388 -0.3720 -0.6301
13722SOL     OW45850   4.073   0.681   8.657 -0.2719 -0.0536  0.0244
13722SOL    HW145851   4.153   0.713   8.699  0.1779 -0.0852 -0.7935
13722SOL    HW245852   4.036   0.620   8.720  0.1459  0.2479  0.5721
13723SOL     OW45853  11.024   5.670   8.501  0.2947 -0.3252  0.0926
13723SOL    HW145854  11.095   5.733   8.507 -0.5780  0.8091 -0.8424
13723SOL    HW245855  11.026   5.639   8.410  0.3008 -1.1533  0.3628
13724SOL     OW45856  11.337   7.981   1.823  0.3324 -0.0603  0.1198
13724SOL    HW145857  11.338   8.054   1.885 -0.3353  1.6364 -1.7537
13724SOL    HW245858  11.254   7.990   1.777  0.5623 -1.6015 -0.6343
13725SOL     OW45859  11.719  10.737   7.841 -0.7329  0.1556 -0.1161
13725SOL    HW145860  11.715  10.791   7.762  1.1248  0.3344 -0.1391
13725SOL    HW245861  11.811  10.712   7.848 -0.7013  0.6529  2.3159
13726SOL     OW45862   0.446   0.250   6.354  0.0969  0.3177  0.6425
13726SOL    HW145863   0.486   0.189   6.293 -1.2550  1.0179 -1.0405
13726SOL    HW245864   0.387   0.197   6.408 -1.4921  0.1499 -1.1777
13727SOL     OW45865   6.578   7.654   7.611 -0.2583 -0.1604 -0.1095
13727SOL    HW145866   6.652   7.596   7.590 -0.1248  0.1085 -0.3897
13727SOL    HW245867   6.608   7.741   7.585 -0.2625  0.1161  0.8004
13728SOL     OW45868   2.706   8.595   9.285 -0.3597  0.3972  0.1397
13728SOL    HW145869   2.791   8.618   9.323 -0.2418  0.1230  0.0427
13728SOL    HW245870   2.671   8.527   9.344 -0.8353  1.0204  0.5898
13729SOL     OW45871   0.683   3.279   4.128  0.0084 -0.0795  0.2042
13729SOL    HW145872   0.674   3.294   4.033 -0.6037  2.3830  0.5744
13729SOL    HW245873   0.619   3.210   4.148  0.6676 -1.1649 -1.2629
13730SOL     OW45874   8.323   7.870   2.913  0.6230  0.0787 -0.3797
13730SOL    HW145875   8.308   7.953   2.868  0.2748  0.1755 -0.0883
13730SOL    HW245876   8.415   7.851   2.896  0.7873  0.6766 -0.2026
13731SOL     OW45877   5.194   8.945   3.648  1.3122 -0.3144 -0.0250
13731SOL    HW145878   5.161   9.028   3.613  0.1766 -0.5983  0.3492
13731SOL    HW245879   5.236   8.902   3.574  1.0696  0.1735 -0.4478
13732SOL     OW45880   4.485   2.178   4.360  0.2619 -0.0509  0.0719
13732SOL    HW145881   4.543   2.225   4.301  0.7003 -2.0053 -1.1364
13732SOL    HW245882   4.413   2.148   4.305 -0.4079 -0.1232  0.9659
13733SOL     OW45883   1.579   3.030   8.825  0.4072  0.0753  0.2304
13733SOL    HW145884   1.518   2.978   8.877  0.7223  0.6676  1.2270
13733SOL    HW245885   1.571   3.119   8.860 -0.2150  0.7616 -1.5078
13734SOL     OW45886   7.115   4.605   1.490 -0.2444  0.0994  0.5880
13734SOL    HW145887   7.041   4.544   1.492  0.7103 -1.1440 -0.4048
13734SOL    HW245888   7.107   4.649   1.405  0.7816 -0.9169 -0.0756
13735SOL     OW45889   6.780   2.796   4.320 -0.2201 -0.2450 -0.2701
13735SOL    HW145890   6.790   2.886   4.350 -0.2281 -0.3050 -0.0849
13735SOL    HW245891   6.730   2.753   4.390  1.3346 -0.8495  0.4996
13736SOL     OW45892  10.210   5.580   0.559  0.1326 -0.5729  0.6392
13736SOL    HW145893  10.236   5.525   0.633  1.8575  1.2592  1.4851
13736SOL    HW245894  10.186   5.664   0.598 -1.2130 -0.2912 -0.7171
13737SOL     OW45895   4.327   4.429   8.356  0.6585  0.0568  0.6045
13737SOL    HW145896   4.325   4.520   8.324 -1.1306 -0.1718 -0.0992
13737SOL    HW245897   4.309   4.436   8.450 -2.1287  0.3754  0.1460
13738SOL     OW45898   2.646   2.615   0.139 -0.5840  0.3015 -0.1049
13738SOL    HW145899   2.617   2.524   0.145 -0.6849  0.4217  1.7017
13738SOL    HW245900   2.565   2.666   0.133 -0.5178  0.2748 -1.9841
13739SOL     OW45901   7.446   6.100   1.252 -0.0436 -0.1796  0.1068
13739SOL    HW145902   7.436   6.045   1.175  0.8459 -1.9627  1.1955
13739SOL    HW245903   7.448   6.190   1.218  0.9597 -0.9353 -1.9824
13740SOL     OW45904   3.278   5.690  11.614 -0.2093 -0.1568 -0.2072
13740SOL    HW145905   3.233   5.762  11.569 -2.1966 -0.9778  0.3568
13740SOL    HW245906   3.247   5.697  11.705  1.4909 -0.2747  0.4234
13741SOL     OW45907   2.751   5.327   3.984 -0.3186 -0.3668  0.5018
13741SOL    HW145908   2.770   5.276   3.905  1.1949  1.7183 -0.5643
13741SOL    HW245909   2.832   5.376   4.002 -1.2797  0.7210  2.2018
13742SOL     OW45910   5.729   4.239  10.286 -0.2718  0.0126  0.0739
13742SOL    HW145911   5.712   4.284  10.203 -0.8036  2.8802  1.5920
13742SOL    HW245912   5.673   4.161  10.283  0.1338 -0.2623 -2.4295
13743SOL     OW45913   5.015   5.346   1.815  0.4094 -0.7276 -0.4080
13743SOL    HW145914   5.017   5.278   1.747  1.4389 -1.8456  0.7012
13743SOL    HW245915   4.922   5.353   1.837  0.4192 -3.3159  0.8921
13744SOL     OW45916   5.870   6.479   3.316 -0.6564  0.0903 -0.1669
13744SOL    HW145917   5.848   6.391   3.347  1.3457 -0.8944 -1.3279
13744SOL    HW245918   5.894   6.467   3.224 -0.9001  1.9627 -0.5147
13745SOL     OW45919   7.370   2.158   7.296 -0.1876  0.5231  0.7049
13745SOL    HW145920   7.439   2.201   7.247  0.6068  0.8651  2.0724
13745SOL    HW245921   7.331   2.096   7.234  0.5360  1.1808 -0.4331
13746SOL     OW45922   5.757   0.320   5.756  0.0286 -0.1149 -0.0473
13746SOL    HW145923   5.682   0.367   5.792  0.4839 -0.0799  0.8800
13746SOL    HW245924   5.752   0.335   5.661 -1.2251 -0.2587 -0.0155
13747SOL     OW45925   3.866   3.804  10.195  0.4569  0.2015 -0.1272
13747SOL    HW145926   3.810   3.727  10.185 -1.7383  1.3311  2.2100
13747SOL    HW245927   3.947   3.770  10.232 -0.2580 -1.0860  0.3248
13748SOL     OW45928   5.188  11.828   9.234  0.5022  0.3290  0.7095
13748SOL    HW145929   5.220  11.861   9.150  0.4119 -2.2375 -0.4333
13748SOL    HW245930   5.095  11.848   9.234  0.4567  0.1436  0.0745
13749SOL     OW45931   8.522   5.932   1.333  0.3727 -0.3544 -0.3205
13749SOL    HW145932   8.457   5.998   1.357  0.9205 -0.1554  0.6789
13749SOL    HW245933   8.558   5.962   1.250 -1.1336 -0.7164 -1.1349
13750SOL     OW45934   9.973   4.012   5.676 -0.0610 -0.2480  1.1282
13750SOL    HW145935   9.943   4.065   5.749 -0.4297  0.3960  0.5187
13750SOL    HW245936   9.906   3.944   5.667  0.1500 -0.5238  1.5848
13751SOL     OW45937   7.177   9.894   2.311 -0.2721  0.3968  0.2496
13751SOL    HW145938   7.263   9.913   2.274  0.5349  1.0254  2.3241
13751SOL    HW245939   7.141   9.980   2.333 -0.5374  0.0348  1.2835
13752SOL     OW45940   8.413   6.661   2.930  0.3214 -0.1079 -0.7075
13752SOL    HW145941   8.382   6.616   3.009  0.3975  2.0079  0.5908
13752SOL    HW245942   8.506   6.675   2.946  0.4018  0.0849 -1.3258
13753SOL     OW45943   7.194   5.647  10.554 -0.5353  0.4648 -0.4849
13753SOL    HW145944   7.243   5.714  10.602 -0.5060  1.0051 -1.2516
13753SOL    HW245945   7.138   5.606  10.621 -0.6241  1.3160 -0.0182
13754SOL     OW45946   3.381   5.327   0.884 -0.2962  0.2327 -0.3778
13754SOL    HW145947   3.322   5.311   0.957 -0.1281  0.2801 -0.2312
13754SOL    HW245948   3.451   5.263   0.895 -1.5616 -1.5381 -1.9384
13755SOL     OW45949   2.002   1.176   2.036 -0.3994 -0.3382 -0.0365
13755SOL    HW145950   2.039   1.203   1.952  1.8398  1.1683  1.3297
13755SOL    HW245951   1.940   1.245   2.059 -0.2277 -0.2023  0.0218
13756SOL     OW45952   3.918   2.885   8.408  0.2134  0.2850 -0.1764
13756SOL    HW145953   3.999   2.921   8.445  1.4045 -0.9327 -1.5026
13756SOL    HW245954   3.906   2.802   8.453 -1.3476  1.2602  1.3189
13757SOL     OW45955   9.589   7.110  10.630 -0.0384  0.5493  0.3783
13757SOL    HW145956   9.578   7.197  10.592 -1.2691  0.5321  0.6589
13757SOL    HW245957   9.616   7.055  10.557  0.4938  1.1083  0.1486
13758SOL     OW45958   6.920   0.974   3.430  0.0907  0.4588  0.3482
13758SOL    HW145959   6.952   0.954   3.518 -0.5659  0.9234  0.7029
13758SOL    HW245960   6.978   0.925   3.372 -0.2988 -0.9642  1.1010
13759SOL     OW45961   4.019   0.531   8.876 -0.3908  0.5465 -0.2530
13759SOL    HW145962   4.045   0.496   8.961 -0.2412  0.3341 -0.3881
13759SOL    HW245963   3.924   0.520   8.874 -0.2591 -0.6478 -0.6502
13760SOL     OW45964   2.019   4.867  10.250  0.1038  0.4019 -0.3323
13760SOL    HW145965   2.102   4.914  10.257  0.4853 -0.3668  0.5058
13760SOL    HW245966   1.953   4.932  10.276  0.7685  0.0610  2.5472
13761SOL     OW45967   0.185   2.402   3.568  0.4527 -0.2421 -0.1888
13761SOL    HW145968   0.245   2.338   3.605 -0.2369 -0.9276 -0.2261
13761SOL    HW245969   0.099   2.378   3.603  0.2771  1.0931  0.3543
13762SOL     OW45970   4.088   0.864   6.087 -0.1966 -0.0412  0.3618
13762SOL    HW145971   4.028   0.904   6.024  1.0170 -1.0484 -1.4944
13762SOL    HW245972   4.115   0.782   6.046  1.4614 -0.2191  1.7193
13763SOL     OW45973  10.552   3.299  11.046  0.4014 -0.4022  0.4549
13763SOL    HW145974  10.475   3.356  11.058 -0.2348 -0.7766 -1.5065
13763SOL    HW245975  10.611   3.351  10.992  1.6165 -0.0979  1.9925
13764SOL     OW45976   6.643   3.879   7.619  0.0886 -0.5954  0.5484
13764SOL    HW145977   6.610   3.954   7.669 -1.1192  0.1894 -1.2947
13764SOL    HW245978   6.680   3.918   7.540  0.2157 -1.8857 -0.0517
13765SOL     OW45979   4.564   6.686   9.516  0.2093 -0.2190  0.1074
13765SOL    HW145980   4.519   6.641   9.587  1.2603 -0.8035  0.4345
13765SOL    HW245981   4.653   6.700   9.549  1.0098 -1.3589 -1.4012
13766SOL     OW45982   6.194   3.852  10.971 -0.6077  0.5061 -0.8108
13766SOL    HW145983   6.170   3.834  11.062  0.8043  2.4345  0.0237
13766SOL    HW245984   6.160   3.778  10.921 -1.2611 -0.6877  1.3113
13767SOL     OW45985   5.532   1.332   3.032  0.2215 -0.1552 -0.0727
13767SOL    HW145986   5.541   1.243   3.066  0.1282  0.6349  2.2236
13767SOL    HW245987   5.621   1.359   3.010  0.1407 -1.1087 -1.7179
13768SOL     OW45988   5.771   9.136   2.415  0.2342 -0.6181  0.4218
13768SOL    HW145989   5.839   9.144   2.349  1.2514 -0.3056  1.4729
13768SOL    HW245990   5.736   9.225   2.424 -0.3568 -0.7847 -0.1414
13769SOL     OW45991   9.323   1.330   4.242  0.2171  0.1012 -0.1256
13769SOL    HW145992   9.287   1.286   4.319  3.3628 -0.4451  1.1801
13769SOL    HW245993   9.337   1.420   4.272  1.4324 -0.1096 -0.0196
13770SOL     OW45994   0.059   0.095   2.141 -0.3289  0.4088 -0.3324
13770SOL    HW145995   0.059   0.049   2.058 -0.7607  0.6452 -0.4640
13770SOL    HW245996   0.139   0.149   2.139  1.2379 -1.7123  0.6139
13771SOL     OW45997   1.227   0.650   9.721 -0.1443 -0.1094  0.2437
13771SOL    HW145998   1.150   0.600   9.695  0.4132 -0.1129 -1.5198
13771SOL    HW245999   1.202   0.742   9.708  0.7058 -0.1601 -2.1554
13772SOL     OW46000   1.817   7.673  11.410  0.0305  0.0601  0.3388
13772SOL    HW146001   1.739   7.727  11.417  2.0606  3.1664  0.6698
13772SOL    HW246002   1.878   7.726  11.358  1.5767 -2.7211 -0.9093
13773SOL     OW46003   1.631   6.312   9.835 -0.4899  0.6763 -0.0338
13773SOL    HW146004   1.692   6.240   9.856 -0.3076  0.2873 -1.7829
13773SOL    HW246005   1.682   6.391   9.853  0.8397  0.3698 -2.0546
13774SOL     OW46006   8.475   2.779   4.862 -0.3948 -0.4139 -0.3688
13774SOL    HW146007   8.400   2.801   4.807 -0.6211 -0.0760  0.0655
13774SOL    HW246008   8.520   2.709   4.815 -0.3706  0.1260 -1.1666
13775SOL     OW46009   9.548   4.055   9.184  0.0032 -0.0201  0.0165
13775SOL    HW146010   9.493   4.019   9.113  0.7553 -0.2601 -0.4530
13775SOL    HW246011   9.636   4.056   9.148  1.1402 -3.6367  2.1119
13776SOL     OW46012   9.434  11.218   4.571 -0.4905  0.4891  0.0404
13776SOL    HW146013   9.512  11.243   4.620 -0.8559 -1.7036  1.8818
13776SOL    HW246014   9.413  11.296   4.519  2.9016  1.1402 -0.5795
13777SOL     OW46015   8.309   7.650   2.232 -0.2294 -0.1279 -0.3679
13777SOL    HW146016   8.359   7.598   2.295 -1.6628 -0.2254  0.7215
13777SOL    HW246017   8.225   7.605   2.224  0.0991 -0.4855 -2.8680
13778SOL     OW46018   0.770   2.737   0.087 -0.0882 -0.0169  0.4121
13778SOL    HW146019   0.687   2.714   0.130  0.3999 -1.4184  0.6489
13778SOL    HW246020   0.828   2.664   0.106  0.7835  0.2909 -0.9166
13779SOL     OW46021   0.999   0.622   8.211 -0.1313  0.0657 -0.0695
13779SOL    HW146022   1.068   0.569   8.172  1.1533  0.9982  0.8629
13779SOL    HW246023   0.918   0.581   8.181  0.7215  0.7647 -3.8052
13780SOL     OW46024   2.256   5.885   7.945 -0.3192  0.3244  0.3646
13780SOL    HW146025   2.208   5.818   7.898  0.2165 -0.1433  0.4660
13780SOL    HW246026   2.225   5.879   8.035  1.1920 -1.2351  0.8485
13781SOL     OW46027   1.152   0.726   6.444  0.9222 -0.0358 -0.3974
13781SOL    HW146028   1.085   0.795   6.449 -0.2246 -1.1857  0.6883
13781SOL    HW246029   1.217   0.761   6.383 -0.0351  1.6571 -0.5135
13782SOL     OW46030   7.515   0.555   0.810 -0.0362 -0.0421  0.0570
13782SOL    HW146031   7.472   0.627   0.855  0.9025 -0.8917  2.4802
13782SOL    HW246032   7.593   0.593   0.771  0.6912  0.2325  1.7018
13783SOL     OW46033  10.369   2.604   8.440  1.0867  0.3029  0.7244
13783SOL    HW146034  10.370   2.592   8.345 -1.0018 -2.0035  0.9221
13783SOL    HW246035  10.411   2.526   8.475  1.3008  0.8572  1.7617
13784SOL     OW46036   1.944   4.166   7.923  0.3860 -0.1265 -0.5284
13784SOL    HW146037   1.952   4.252   7.964  1.5840  0.0483 -1.0834
13784SOL    HW246038   1.955   4.182   7.829 -1.3071 -0.6481 -0.8439
13785SOL     OW46039  10.314  10.203   5.747  0.6451 -0.2717 -0.0528
13785SOL    HW146040  10.287  10.293   5.729  0.9604 -0.4235 -1.3418
13785SOL    HW246041  10.287  10.188   5.838  0.9694  1.2597  0.3185
13786SOL     OW46042   4.229   5.735   9.452 -0.4876 -0.1895  0.1604
13786SOL    HW146043   4.293   5.797   9.416 -0.4990  0.0874  0.5971
13786SOL    HW246044   4.182   5.787   9.518 -1.6789 -0.1656 -0.6816
13787SOL     OW46045   2.985   9.488  11.275 -0.3405  0.3617  0.2670
13787SOL    HW146046   2.950   9.574  11.300  0.6932  0.6860  0.6760
13787SOL    HW246047   2.909   9.436  11.251 -1.1817  0.7423  1.9951
13788SOL     OW46048   9.945   9.345   0.584  0.2162 -0.2641  0.6442
13788SOL    HW146049   9.948   9.415   0.518  1.9161  1.8406  2.7582
13788SOL    HW246050   9.961   9.265   0.535  1.3229  1.1837 -1.5285
13789SOL     OW46051   3.652   1.824  11.075  0.1700 -0.2015  0.1618
13789SOL    HW146052   3.657   1.747  11.132  1.4636  0.5653  1.1413
13789SOL    HW246053   3.689   1.794  10.992 -2.4129 -1.5427 -0.6045
13790SOL     OW46054   0.607  10.035   8.624 -0.1626 -0.2470  0.0239
13790SOL    HW146055   0.632  10.063   8.536  0.3268 -2.4917 -0.6325
13790SOL    HW246056   0.598  10.116   8.674  0.9174  1.0281 -1.7258
13791SOL     OW46057   4.106  10.556   3.081  0.0554  0.4103  0.3640
13791SOL    HW146058   4.067  10.633   3.040 -1.5678 -0.2380  0.5900
13791SOL    HW246059   4.134  10.586   3.168 -0.2086  0.8383  0.3016
13792SOL     OW46060   7.917   3.218   6.303 -0.1117 -0.0132 -0.6589
13792SOL    HW146061   7.920   3.194   6.396 -0.7249 -0.7221 -0.8088
13792SOL    HW246062   7.841   3.171   6.269  0.1336  0.2056 -1.5324
13793SOL     OW46063   4.665  10.818   4.134 -0.0229  0.1933  0.0184
13793SOL    HW146064   4.750  10.776   4.144  0.1489  0.3910 -0.5711
13793SOL    HW246065   4.622  10.768   4.064  0.2206  1.0382 -0.7569
13794SOL     OW46066   0.148  11.996   5.184  0.0462 -0.2556 -0.3171
13794SOL    HW146067   0.211  12.031   5.247  0.0099  0.8644 -0.8780
13794SOL    HW246068   0.197  11.992   5.102 -0.1871 -0.8069 -0.4343
13795SOL     OW46069   8.104   6.380   0.398  0.8007 -0.0119 -0.0056
13795SOL    HW146070   8.042   6.326   0.447 -0.6176  0.5901 -1.0620
13795SOL    HW246071   8.190   6.347   0.424  0.0329 -1.4165  0.9050
13796SOL     OW46072  11.093  10.380  11.635 -0.0511  0.2361  0.1997
13796SOL    HW146073  11.165  10.324  11.663 -0.7359 -0.4367  0.6380
13796SOL    HW246074  11.131  10.435  11.567  0.2958 -1.7100 -1.2644
13797SOL     OW46075   7.972   5.306   2.295 -0.6068 -0.0131 -0.2953
13797SOL    HW146076   7.963   5.382   2.238  1.1840  0.7856  0.3942
13797SOL    HW246077   7.912   5.323   2.368 -3.0553 -1.1338 -1.9416
13798SOL     OW46078   3.086   2.488   3.103  0.4022  0.1198 -0.0375
13798SOL    HW146079   3.064   2.573   3.142  0.7953 -0.3039  1.1701
13798SOL    HW246080   3.003   2.451   3.076  0.1505  0.5767  0.1008
13799SOL     OW46081   3.620   5.165   0.910  0.1447  0.2395  0.5627
13799SOL    HW146082   3.668   5.189   0.990  1.2258  1.5674 -0.4420
13799SOL    HW246083   3.684   5.176   0.840 -1.2505  0.7128 -0.6728
13800SOL     OW46084   3.353   1.528   0.805  0.0478 -0.0434 -0.3027
13800SOL    HW146085   3.427   1.484   0.847  0.1286  0.4453  0.0858
13800SOL    HW246086   3.278   1.471   0.822  0.3234 -0.5097 -0.6387
13801SOL     OW46087   4.063   4.718   5.509  0.1593  0.4316 -1.0551
13801SOL    HW146088   4.059   4.767   5.427  0.0477  0.0925 -1.2543
13801SOL    HW246089   4.156   4.719   5.533  0.2211  0.3495 -1.2942
13802SOL     OW46090   4.825  10.685   8.338  0.3597  0.0941 -0.1769
13802SOL    HW146091   4.752  10.731   8.297  0.2390 -0.8181 -1.0279
13802SOL    HW246092   4.903  10.721   8.295  0.3251  0.1861 -0.1620
13803SOL     OW46093   2.467  11.673   5.814 -0.2711  0.3414 -0.4066
13803SOL    HW146094   2.418  11.593   5.833 -0.4485  0.3323 -0.8832
13803SOL    HW246095   2.494  11.663   5.723 -0.1579  0.7528 -0.4206
13804SOL     OW46096   2.422   6.144   1.847 -0.2158 -0.1750  0.2111
13804SOL    HW146097   2.438   6.181   1.934 -0.1312 -0.7092  0.4294
13804SOL    HW246098   2.432   6.218   1.787  1.5909 -0.1528  0.4778
13805SOL     OW46099   6.882   3.545  10.875  0.2146 -0.3354  0.5886
13805SOL    HW146100   6.900   3.636  10.900  0.4930 -0.5699  1.2553
13805SOL    HW246101   6.949   3.494  10.920  0.7905 -0.7741 -0.7010
13806SOL     OW46102   2.354  11.745   5.213 -0.2827  0.1554 -0.1632
13806SOL    HW146103   2.366  11.676   5.279  1.3926  0.0237 -0.5530
13806SOL    HW246104   2.363  11.827   5.263  1.2856  0.0567 -0.2331
13807SOL     OW46105  10.471   3.247   8.647  0.2172  0.3312 -0.0037
13807SOL    HW146106  10.470   3.196   8.728  0.0551 -0.3592 -0.4226
13807SOL    HW246107  10.520   3.326   8.668  0.3121  0.0855  0.7220
13808SOL     OW46108   3.533  10.516   3.896 -0.9722 -0.6389 -0.4877
13808SOL    HW146109   3.502  10.463   3.823 -0.7150 -1.6809  0.1328
13808SOL    HW246110   3.534  10.606   3.862 -2.1140 -0.9249 -1.3348
13809SOL     OW46111   3.253   8.273   4.315 -0.1717 -0.8461 -0.1788
13809SOL    HW146112   3.202   8.325   4.253  0.9050 -0.7821 -1.0243
13809SOL    HW246113   3.341   8.270   4.278  0.0778 -2.2616  0.4700
13810SOL     OW46114  10.473  11.409   9.527 -0.3399  0.0526 -0.5346
13810SOL    HW146115  10.506  11.322   9.549 -0.2034 -0.2128 -1.6947
13810SOL    HW246116  10.378  11.398   9.523 -0.2320 -0.5582 -2.5823
13811SOL     OW46117   6.371   5.675  10.454 -0.2945 -0.2223 -0.3400
13811SOL    HW146118   6.429   5.688  10.379 -0.9011 -1.6516 -1.1016
13811SOL    HW246119   6.387   5.751  10.510  0.1313  0.9171 -1.9304
13812SOL     OW46120   9.048  11.712   5.756  0.3423  0.3152  0.2101
13812SOL    HW146121   9.087  11.678   5.675  0.9183  1.6578 -0.1003
13812SOL    HW246122   8.994  11.640   5.788  1.0084 -0.6559 -0.7588
13813SOL     OW46123  11.275   5.294   5.546 -0.3965 -0.1681 -0.1868
13813SOL    HW146124  11.186   5.329   5.555 -0.5796 -0.3244 -1.2548
13813SOL    HW246125  11.275   5.251   5.461  1.0757  0.9293 -0.7779
13814SOL     OW46126   4.698   4.021  11.207 -0.1206  0.6294 -0.2802
13814SOL    HW146127   4.626   3.960  11.194  0.5313 -0.3704  0.5627
13814SOL    HW246128   4.769   3.986  11.153  1.0054 -0.7595  1.9134
13815SOL     OW46129   5.473   2.118   0.417 -0.0924 -0.1578  0.1741
13815SOL    HW146130   5.518   2.135   0.334  2.8289 -0.2812  1.6098
13815SOL    HW246131   5.465   2.023   0.421  0.0577 -0.1729  0.1455
13816SOL     OW46132   5.440   1.032  11.650  0.0399  0.0312  0.3464
13816SOL    HW146133   5.378   1.093  11.689 -1.8834 -1.5585 -0.0634
13816SOL    HW246134   5.392   0.989  11.579  1.7291 -1.0018 -0.2595
13817SOL     OW46135   1.523   1.289   9.597 -0.0452 -0.0010 -0.1168
13817SOL    HW146136   1.589   1.348   9.561 -1.1775  1.6203  0.3494
13817SOL    HW246137   1.442   1.315   9.553 -0.4412 -1.8421 -0.5728
13818SOL     OW46138   9.478   5.580   0.255  0.0775  0.2651  0.4067
13818SOL    HW146139   9.559   5.549   0.296  0.0591  1.2053  1.1827
13818SOL    HW246140   9.431   5.501   0.231  0.9201 -0.2942  0.5727
13819SOL     OW46141   2.880   9.503   9.298  0.4651  0.2219 -0.5128
13819SOL    HW146142   2.939   9.576   9.282 -0.8202  0.9180 -2.4599
13819SOL    HW246143   2.902   9.439   9.229  1.6962 -1.3927  1.2564
13820SOL     OW46144   0.725   2.161   7.708  0.1232  0.9923 -0.3242
13820SOL    HW146145   0.662   2.105   7.663  1.2315  0.9905 -1.9314
13820SOL    HW246146   0.699   2.156   7.800 -1.6976  0.3347 -0.8280
13821SOL     OW46147   7.679   4.062   4.328 -0.3406  0.7932  0.2093
13821SOL    HW146148   7.653   3.986   4.276  0.4746  0.2116  0.6316
13821SOL    HW246149   7.699   4.026   4.414 -0.0915  1.5057  0.4533
13822SOL     OW46150   9.248   5.871   6.620  0.2390  0.7994  0.2403
13822SOL    HW146151   9.293   5.799   6.664 -0.2268  1.0563  1.1652
13822SOL    HW246152   9.315   5.911   6.564  0.5487 -0.2202 -0.1421
13823SOL     OW46153   5.618  11.324   7.662  0.4905  0.2053 -0.4694
13823SOL    HW146154   5.687  11.278   7.710  0.6609 -0.4173 -1.3010
13823SOL    HW246155   5.570  11.372   7.730  0.1332 -1.4024  0.4456
13824SOL     OW46156   1.586   3.581   1.342 -0.1384 -0.5312  0.0528
13824SOL    HW146157   1.587   3.565   1.436 -2.6948 -0.9788  0.0814
13824SOL    HW246158   1.495   3.566   1.316  0.0161  1.6844 -2.1286
13825SOL     OW46159   2.461   2.398   9.038 -0.0068 -0.5896  0.5100
13825SOL    HW146160   2.410   2.470   9.001  1.9403 -0.5706 -2.4888
13825SOL    HW246161   2.480   2.425   9.128 -0.2745  2.1595 -0.1871
13826SOL     OW46162   6.452   9.463   1.855 -0.2162  0.3981  0.1333
13826SOL    HW146163   6.478   9.514   1.778 -3.4095  1.9887 -0.0685
13826SOL    HW246164   6.416   9.382   1.820  2.4405 -0.9391  0.3068
13827SOL     OW46165  10.494  10.514   7.871  0.0611 -0.0416 -0.5455
13827SOL    HW146166  10.561  10.538   7.935 -1.0184 -0.6607  0.8654
13827SOL    HW246167  10.413  10.550   7.908 -0.9317 -2.2592 -0.4512
13828SOL     OW46168   9.032   3.995  11.554  0.4086  0.1712 -0.3224
13828SOL    HW146169   9.121   3.990  11.517  0.9482  1.8900  0.6414
13828SOL    HW246170   8.980   4.036  11.485  1.0273  1.7564  0.1014
13829SOL     OW46171  10.279   6.008   5.868 -0.4806 -0.6639 -0.4061
13829SOL    HW146172  10.207   5.947   5.851  1.2396 -2.5709 -1.3444
13829SOL    HW246173  10.288   6.059   5.788 -1.3634  0.2694  0.0657
13830SOL     OW46174   7.651   1.728   4.838 -0.3904 -0.6198  0.1213
13830SOL    HW146175   7.577   1.689   4.790 -0.0786  0.1937 -1.0619
13830SOL    HW246176   7.728   1.685   4.802 -0.1445  0.0718 -0.1844
13831SOL     OW46177   1.753   4.098   5.996 -0.2058 -0.0599 -0.3253
13831SOL    HW146178   1.828   4.045   6.022  0.3240 -0.0973 -1.7980
13831SOL    HW246179   1.686   4.080   6.062 -0.1021 -2.7176 -0.8194
13832SOL     OW46180   1.341  10.302   6.800 -0.3523 -0.9402  0.1276
13832SOL    HW146181   1.379  10.243   6.736  0.6677  1.3924 -1.5631
13832SOL    HW246182   1.416  10.342   6.844 -0.8284  1.6009 -1.2161
13833SOL     OW46183   5.194   1.563   9.654 -0.2240  0.3692 -0.1688
13833SOL    HW146184   5.175   1.503   9.726  1.6538  0.2111  0.2484
13833SOL    HW246185   5.276   1.606   9.680  0.6294  0.1291 -2.3122
13834SOL     OW46186  11.703   4.763   1.330 -0.3072  0.0429 -0.6769
13834SOL    HW146187  11.663   4.799   1.409  0.8654  0.6992 -0.3470
13834SOL    HW246188  11.783   4.814   1.319  1.3964 -2.3602 -0.2707
13835SOL     OW46189   9.027  11.235  11.505  0.0967 -0.0459 -0.2464
13835SOL    HW146190   8.953  11.245  11.565  1.0410 -1.1249  1.1858
13835SOL    HW246191   9.002  11.161  11.449 -0.6275  0.7193 -0.9647
13836SOL     OW46192   1.735   7.164   1.971  0.1541 -0.2980 -0.5306
13836SOL    HW146193   1.731   7.207   2.056 -0.1786  1.3027 -1.3212
13836SOL    HW246194   1.645   7.135   1.956  0.1151 -0.1724 -0.5408
13837SOL     OW46195   1.639   7.255  10.098 -0.2335 -0.0141  0.3595
13837SOL    HW146196   1.550   7.243  10.066 -0.5047  1.6540  0.3898
13837SOL    HW246197   1.663   7.171  10.137 -1.4262 -0.7745 -0.5107
13838SOL     OW46198   9.543   7.305   7.790  0.3637 -0.1209 -0.2167
13838SOL    HW146199   9.554   7.380   7.732  0.7869 -0.9719 -1.2589
13838SOL    HW246200   9.478   7.334   7.854 -0.2775  0.7687 -1.2384
13839SOL     OW46201   0.569   7.716   6.783  0.6070  0.0355  0.1557
13839SOL    HW146202   0.494   7.657   6.774  0.4954  0.0015  1.1722
13839SOL    HW246203   0.645   7.661   6.762  0.3050  0.3337 -1.8897
13840SOL     OW46204   5.606   3.107   0.947  0.0031 -0.5823 -0.2731
13840SOL    HW146205   5.522   3.109   0.901  0.3345  1.5237 -0.8583
13840SOL    HW246206   5.597   3.034   1.009 -1.6022 -1.4850 -1.4961
13841SOL     OW46207  10.549   7.455   2.699 -0.1166 -0.1237 -0.0895
13841SOL    HW146208  10.476   7.454   2.638  0.4927 -0.4344 -0.8309
13841SOL    HW246209  10.532   7.531   2.755  0.3510  1.4494 -1.9519
13842SOL     OW46210   6.094   4.853   6.316  0.0473  0.3592 -0.1378
13842SOL    HW146211   6.122   4.762   6.307 -0.0480  0.4562 -1.9254
13842SOL    HW246212   6.138   4.884   6.395 -0.6764 -1.4747  1.0527
13843SOL     OW46213  10.022  11.327   4.864  0.2101  0.1392 -0.3414
13843SOL    HW146214   9.991  11.399   4.809 -1.7230 -0.4485 -0.1124
13843SOL    HW246215  10.116  11.341   4.873 -0.0654  2.4278 -0.5984
13844SOL     OW46216   4.092   7.360   9.626 -0.1486  0.3671 -0.4817
13844SOL    HW146217   4.026   7.347   9.693 -0.2824  0.7601 -0.5329
13844SOL    HW246218   4.110   7.273   9.591  0.3807  0.0787  0.4896
13845SOL     OW46219   5.981   4.411   9.321  0.6673  0.0245  0.0674
13845SOL    HW146220   5.904   4.466   9.313  0.5929  0.4005  2.7039
13845SOL    HW246221   6.051   4.460   9.278  0.1104  1.1548  0.4206
13846SOL     OW46222   6.060   0.071   8.461 -0.1090  0.1826 -0.0926
13846SOL    HW146223   6.108  -0.005   8.494  0.4802 -0.5655 -2.4728
13846SOL    HW246224   6.128   0.132   8.434 -0.4028 -0.4962 -2.6258
13847SOL     OW46225   8.895   3.232   6.263  0.3760 -0.0929  0.0460
13847SOL    HW146226   8.806   3.266   6.255 -0.3485 -1.5940  1.2149
13847SOL    HW246227   8.884   3.137   6.256  2.0913 -0.2339 -1.3585
13848SOL     OW46228   5.654   4.231   4.553 -0.0391 -0.2328 -0.2469
13848SOL    HW146229   5.646   4.321   4.522  1.4418 -0.4084 -1.2214
13848SOL    HW246230   5.696   4.184   4.481 -1.0904 -1.7993  0.1053
13849SOL     OW46231   6.712   3.900   9.259  0.0722 -0.2162  0.3653
13849SOL    HW146232   6.766   3.850   9.198 -1.0888  0.8657 -1.6381
13849SOL    HW246233   6.637   3.843   9.277  0.6244 -0.7136  1.1989
13850SOL     OW46234  10.963   3.675   1.511  0.0285  0.0076  0.0811
13850SOL    HW146235  10.903   3.739   1.550 -0.2901 -0.8174  0.9657
13850SOL    HW246236  10.919   3.645   1.432 -0.1991  0.2484  0.1165
13851SOL     OW46237   9.627   2.079   1.643 -0.3968  0.5644 -0.5464
13851SOL    HW146238   9.658   2.033   1.721  0.2194  0.0932 -1.0652
13851SOL    HW246239   9.703   2.126   1.610 -0.8543  1.4224 -0.4151
13852SOL     OW46240   6.582   4.617   1.624 -0.0110 -0.4018  0.7010
13852SOL    HW146241   6.647   4.654   1.564  0.9957 -1.2826  1.2056
13852SOL    HW246242   6.623   4.538   1.658 -0.1790  0.4587  3.1647
13853SOL     OW46243   5.514   3.421   5.243 -0.4808  0.0416 -0.1339
13853SOL    HW146244   5.435   3.469   5.266 -0.1007  0.1108  1.1095
13853SOL    HW246245   5.502   3.334   5.282  0.2143  0.1739  0.3861
13854SOL     OW46246  10.288   3.412   3.839  0.0334 -0.3520  0.2186
13854SOL    HW146247  10.317   3.500   3.861 -0.1388  0.2966 -1.9270
13854SOL    HW246248  10.366   3.357   3.852  0.0702  0.0389  1.8015
13855SOL     OW46249  10.948   8.520  11.617  0.3391  0.0565  0.3867
13855SOL    HW146250  10.863   8.563  11.603  0.1891  0.0983  1.3195
13855SOL    HW246251  10.984   8.509  11.529 -0.1323  1.0554  0.0415
13856SOL     OW46252   0.012   1.245   4.271  0.3625 -0.1718  0.1959
13856SOL    HW146253   0.104   1.239   4.247  0.4848 -0.7927  0.7877
13856SOL    HW246254  -0.036   1.217   4.193  0.7022 -0.5879  0.1345
13857SOL     OW46255   6.419   9.634   8.641 -1.0173 -0.0988  0.2424
13857SOL    HW146256   6.447   9.643   8.550  0.8795  1.1537  0.8740
13857SOL    HW246257   6.465   9.555   8.672  2.2477  1.9941  1.2984
13858SOL     OW46258   6.556   2.053   9.421  0.0609  0.1113 -0.3604
13858SOL    HW146259   6.522   1.995   9.353  1.6117  0.8591 -1.8386
13858SOL    HW246260   6.484   2.113   9.439 -0.6219 -0.5644 -0.7824
13859SOL     OW46261   2.295   1.526   8.650  0.1473  0.4654 -0.2417
13859SOL    HW146262   2.282   1.456   8.714  1.1773  1.3774  1.0129
13859SOL    HW246263   2.252   1.602   8.689 -0.7073  0.6483 -1.4617
13860SOL     OW46264  10.006   1.813   1.152  0.3516 -0.4807 -0.5094
13860SOL    HW146265  10.002   1.843   1.243 -1.4210 -0.6643 -0.5035
13860SOL    HW246266  10.031   1.721   1.158 -0.3736 -0.6595 -0.1599
13861SOL     OW46267   7.327  10.324   0.912 -0.0159 -0.2420  0.9919
13861SOL    HW146268   7.317  10.254   0.848 -2.1350  0.1979  0.7600
13861SOL    HW246269   7.266  10.392   0.883  2.4133  2.0308  0.8282
13862SOL     OW46270   3.394   0.503   1.346  0.0256  0.1877 -0.1930
13862SOL    HW146271   3.330   0.432   1.350 -0.7974  0.9655  2.5690
13862SOL    HW246272   3.417   0.519   1.437  2.2532  1.6770 -0.9499
13863SOL     OW46273   8.072  11.223   9.635  0.2617  0.0207 -0.1951
13863SOL    HW146274   8.137  11.279   9.677  0.0865  0.6326 -0.7249
13863SOL    HW246275   7.997  11.225   9.694  1.0318 -1.4221  0.8755
13864SOL     OW46276   0.668   6.686   1.627  0.3280  0.7314  0.5139
13864SOL    HW146277   0.581   6.691   1.666  0.2616  1.5340  0.2785
13864SOL    HW246278   0.660   6.732   1.544  0.9228  0.6150  0.3861
13865SOL     OW46279   4.112   4.912   6.922  0.3938 -0.3687  0.2679
13865SOL    HW146280   4.122   4.864   6.840  0.2925  0.3974 -0.1954
13865SOL    HW246281   4.019   4.936   6.925  0.6039  0.5176  0.0805
13866SOL     OW46282   2.787   6.658   1.716  0.3189 -0.3115  0.0024
13866SOL    HW146283   2.731   6.707   1.656 -1.7960 -0.8704  1.3970
13866SOL    HW246284   2.827   6.725   1.772 -0.4542  0.0042  0.1869
13867SOL     OW46285   6.088   3.698  10.720  0.1461  0.1483 -0.2376
13867SOL    HW146286   6.130   3.773  10.678  0.9730  0.2631  0.7624
13867SOL    HW246287   6.156   3.631  10.723  0.3257  0.3651  1.4621
13868SOL     OW46288   6.130   8.952   6.921 -0.1260 -0.1372 -0.3164
13868SOL    HW146289   6.162   9.014   6.986  1.4923 -2.1293  0.9317
13868SOL    HW246290   6.039   8.935   6.947 -0.2145  0.7894  0.0215
13869SOL     OW46291   2.168   4.196   5.721 -0.6535  0.2302  0.0761
13869SOL    HW146292   2.101   4.259   5.747 -1.3423 -0.4308 -0.0650
13869SOL    HW246293   2.129   4.149   5.647  0.4656  0.6818 -0.8306
13870SOL     OW46294   6.173  10.185   0.803  0.6665 -0.3101 -0.1588
13870SOL    HW146295   6.099  10.160   0.748 -0.2983  0.1529  0.8932
13870SOL    HW246296   6.136  10.247   0.866  1.7319 -0.8268  1.0094
13871SOL     OW46297   9.048   0.220   2.232 -0.0348 -0.6176 -0.3578
13871SOL    HW146298   9.125   0.265   2.195 -1.7302  0.6926 -2.5568
13871SOL    HW246299   9.073   0.128   2.235  1.9819 -0.1043 -0.0090
13872SOL     OW46300  10.014  11.589   3.008 -0.6224 -0.1838 -0.3405
13872SOL    HW146301   9.928  11.552   3.028 -0.1474 -1.6189 -0.8397
13872SOL    HW246302  10.025  11.576   2.914  0.2699 -0.3099 -0.2307
13873SOL     OW46303   9.629   9.194   2.781  0.4588 -0.4912  0.0968
13873SOL    HW146304   9.549   9.246   2.787 -0.6094 -2.0145 -0.3373
13873SOL    HW246305   9.688   9.234   2.845 -1.0969 -0.0621  1.3384
13874SOL     OW46306   7.949   8.887   3.482  0.4793 -0.2955  0.1289
13874SOL    HW146307   7.859   8.885   3.517  0.6845 -0.1924  0.6735
13874SOL    HW246308   7.955   8.973   3.439 -0.2521 -1.0107 -1.4839
13875SOL     OW46309   7.921   6.739   1.171 -0.0364 -0.2650 -0.3844
13875SOL    HW146310   7.994   6.764   1.114 -0.7842  1.1375 -0.7731
13875SOL    HW246311   7.960   6.732   1.258  0.3126  2.1090 -0.2807
13876SOL     OW46312   0.174   8.652   4.753  0.4420  0.2991  0.8561
13876SOL    HW146313   0.095   8.599   4.736  0.3683  0.5943  0.2565
13876SOL    HW246314   0.215   8.610   4.828  0.2990 -0.5239  0.4888
13877SOL     OW46315   3.414   7.542  11.923 -0.5278  0.2153  0.0311
13877SOL    HW146316   3.435   7.495  11.842 -2.3731  1.4186 -1.2255
13877SOL    HW246317   3.406   7.634  11.896  1.8779  1.2101  2.2058
13878SOL     OW46318  10.598   4.170   5.387 -0.4398 -0.4520  0.1175
13878SOL    HW146319  10.656   4.124   5.327 -2.2627 -1.1067 -1.2277
13878SOL    HW246320  10.580   4.106   5.456 -0.1126 -0.4728  0.1862
13879SOL     OW46321   1.010  11.615  11.598 -0.0057  0.5826  0.4331
13879SOL    HW146322   0.915  11.610  11.590  0.1291  1.2980 -2.8658
13879SOL    HW246323   1.040  11.526  11.577  0.0844  0.2676  1.8136
13880SOL     OW46324   3.947   2.753   2.639 -0.6176 -0.0753  0.0404
13880SOL    HW146325   3.981   2.719   2.556  0.6199 -0.1637  0.5705
13880SOL    HW246326   4.021   2.800   2.678 -0.7603 -1.2136  1.7496
13881SOL     OW46327   7.944   7.357   7.754  0.8032 -0.5724  0.1074
13881SOL    HW146328   7.998   7.426   7.793  0.1765  0.0868 -0.1649
13881SOL    HW246329   7.927   7.297   7.826 -0.0504  0.4543  0.7906
13882SOL     OW46330   2.068   0.044  11.202 -0.1406 -0.3637  0.2508
13882SOL    HW146331   2.155   0.028  11.166  0.2349  1.4096  0.2492
13882SOL    HW246332   2.008   0.022  11.132  0.3987 -0.2187 -0.2669
13883SOL     OW46333   7.187   1.286   4.432  0.6769  0.0642  0.0154
13883SOL    HW146334   7.100   1.318   4.409  0.9393  0.6050 -0.2533
13883SOL    HW246335   7.244   1.362   4.422  0.9446  0.1199  1.7311
13884SOL     OW46336  10.487  11.929   3.028 -0.2120  0.0528  0.4791
13884SOL    HW146337  10.572  11.946   2.987 -0.3539  0.4289  0.3342
13884SOL    HW246338  10.451  11.854   2.981 -0.7873  1.0512 -0.7319
13885SOL     OW46339   3.680   1.078  10.049  0.2107 -0.3406 -0.1818
13885SOL    HW146340   3.695   1.112   9.961 -0.5906 -2.0143 -1.0189
13885SOL    HW246341   3.608   1.131  10.083  0.0102 -0.1746 -0.8481
13886SOL     OW46342   9.444   9.147   8.064  0.1815 -0.0753  0.1114
13886SOL    HW146343   9.413   9.119   7.978  0.6632  0.2652 -0.1820
13886SOL    HW246344   9.499   9.223   8.045 -0.3301  0.4729  0.7997
13887SOL     OW46345   7.692   0.993   1.781  0.2085 -0.3415 -0.2071
13887SOL    HW146346   7.598   1.008   1.776  0.2090 -0.7770 -2.9149
13887SOL    HW246347   7.731   1.080   1.770  0.1369 -0.2934 -0.0819
13888SOL     OW46348   8.239   3.002   5.789 -0.3050 -0.0183  0.1705
13888SOL    HW146349   8.262   3.086   5.750  0.1116 -0.2994 -0.2044
13888SOL    HW246350   8.227   3.021   5.882 -1.1782  0.6342 -0.0670
13889SOL     OW46351  11.492   0.050  10.033 -0.2832 -0.1506 -0.3141
13889SOL    HW146352  11.504  -0.031   9.983  0.4784 -0.7516  0.7741
13889SOL    HW246353  11.581   0.073  10.062 -0.5954  0.6514  0.0259
13890SOL     OW46354   3.809   1.571   2.878  0.2786  0.7652 -0.0139
13890SOL    HW146355   3.729   1.619   2.858 -1.3977 -1.4922  0.9003
13890SOL    HW246356   3.803   1.491   2.827 -0.3289 -1.5298  3.3530
13891SOL     OW46357  10.689   0.426   8.085 -0.3288  0.0244 -0.1267
13891SOL    HW146358  10.725   0.513   8.106 -1.7019  0.3682  0.9532
13891SOL    HW246359  10.698   0.376   8.166 -3.3264  0.5263  0.6320
13892SOL     OW46360   5.130   5.382   3.924 -0.1344  0.1449  0.2881
13892SOL    HW146361   5.065   5.336   3.977 -0.6856 -0.1790 -0.6595
13892SOL    HW246362   5.098   5.376   3.835  0.6348  0.9448 -0.0621
13893SOL     OW46363   4.904   2.593   2.427 -0.1782  0.4817  0.0708
13893SOL    HW146364   4.924   2.555   2.513  1.7709  0.7784 -0.2030
13893SOL    HW246365   4.975   2.563   2.370 -0.6565  1.4552 -1.0910
13894SOL     OW46366   5.707   8.085   2.529 -0.1303 -0.3228 -1.0683
13894SOL    HW146367   5.637   8.111   2.589  0.6787  0.7360 -0.5456
13894SOL    HW246368   5.737   8.167   2.490  2.3177 -0.4152  0.4208
13895SOL     OW46369   6.208   6.557   7.798 -0.6709 -0.1513 -0.0088
13895SOL    HW146370   6.285   6.512   7.763 -1.2907 -0.5891 -0.8456
13895SOL    HW246371   6.231   6.577   7.889 -0.0325 -1.3482  0.1081
13896SOL     OW46372   2.057  10.808   9.295  0.0163  0.0036 -0.0095
13896SOL    HW146373   2.009  10.887   9.319  0.7287  0.8952 -1.3630
13896SOL    HW246374   2.078  10.767   9.378  0.2113  1.6055  0.7789
13897SOL     OW46375   1.375   8.775   6.732  0.1935  0.5910 -0.2843
13897SOL    HW146376   1.339   8.854   6.691  1.4323  0.2962 -2.0894
13897SOL    HW246377   1.421   8.731   6.661  0.1807 -1.3837  0.8659
13898SOL     OW46378   7.648   9.727   1.541 -0.2421 -0.1914 -0.0090
13898SOL    HW146379   7.656   9.643   1.495 -0.6778  0.4999 -1.4223
13898SOL    HW246380   7.736   9.746   1.573  0.1453 -0.5791 -0.8128
13899SOL     OW46381  10.364   2.635  11.719 -0.3563 -0.0587  0.2949
13899SOL    HW146382  10.355   2.566  11.654 -0.6352  1.1446 -1.0047
13899SOL    HW246383  10.280   2.681  11.718  0.4475  1.4754 -0.3074
13900SOL     OW46384  10.408   1.956   2.296 -0.1543 -0.2817 -0.2360
13900SOL    HW146385  10.467   1.907   2.354 -0.0679 -0.9053 -0.8412
13900SOL    HW246386  10.320   1.930   2.323 -0.3324  2.3576  2.2148
13901SOL     OW46387   0.236  11.380   3.310  0.4896  0.4756  0.0613
13901SOL    HW146388   0.212  11.361   3.220 -0.1470  1.1663  0.0719
13901SOL    HW246389   0.178  11.325   3.363  0.9069  0.0222  0.0524
13902SOL     OW46390   4.742  10.837  10.312  0.7728  0.1300  0.4156
13902SOL    HW146391   4.662  10.790  10.289  0.4224  1.7308 -1.9308
13902SOL    HW246392   4.729  10.865  10.403 -1.1308 -0.0116  0.2121
13903SOL     OW46393   4.204   0.441   9.116 -0.0701 -0.2505 -0.0557
13903SOL    HW146394   4.276   0.420   9.056 -0.1709 -0.5757 -0.0613
13903SOL    HW246395   4.134   0.381   9.092 -0.3263  0.0311 -0.0134
13904SOL     OW46396   9.617  10.717   4.734  0.0283 -0.2943  0.4607
13904SOL    HW146397   9.522  10.705   4.730 -0.0122 -0.5122  1.6246
13904SOL    HW246398   9.642  10.675   4.816  1.1416 -0.2960  0.1236
13905SOL     OW46399   7.285   9.209   9.741 -0.1833 -0.2377  0.0743
13905SOL    HW146400   7.266   9.292   9.697 -1.1863  0.7083  2.1303
13905SOL    HW246401   7.351   9.167   9.686  1.6443  2.6906 -0.2203
13906SOL     OW46402   5.566   4.213   5.040  0.3097  0.3106 -0.0684
13906SOL    HW146403   5.550   4.119   5.037 -0.8283  0.5081 -0.7964
13906SOL    HW246404   5.641   4.223   5.099  0.4445 -1.0407  0.0190
13907SOL     OW46405   4.858   1.833   7.326  0.3206  0.6929 -0.6315
13907SOL    HW146406   4.788   1.779   7.288  0.6925  0.3676 -0.8573
13907SOL    HW246407   4.912   1.771   7.375 -0.7169  1.2427  1.3143
13908SOL     OW46408   8.617   2.019   2.225 -0.0686 -0.2045 -0.3529
13908SOL    HW146409   8.637   1.932   2.260 -0.8923 -0.7472 -1.1781
13908SOL    HW246410   8.574   2.001   2.141 -2.8256  0.9074  0.7146
13909SOL     OW46411   7.934   9.309  11.294 -0.2184 -0.2532 -0.2044
13909SOL    HW146412   7.965   9.325  11.383  0.8730 -0.5526 -0.5236
13909SOL    HW246413   7.861   9.371  11.283  0.3398  0.5508  0.5172
13910SOL     OW46414   0.516   6.563   2.189  0.1935  0.8023 -0.0060
13910SOL    HW146415   0.592   6.571   2.131  0.8767 -1.0127  0.5610
13910SOL    HW246416   0.541   6.609   2.269  1.1237 -0.5509  0.5270
13911SOL     OW46417   3.031   2.751  11.286 -0.7456 -0.0294  0.2583
13911SOL    HW146418   2.984   2.775  11.367 -2.6896 -0.2377 -0.7474
13911SOL    HW246419   3.090   2.825  11.271 -1.3677  0.6816  1.1224
13912SOL     OW46420   7.932   7.176   3.340  0.0788 -0.2553 -0.7755
13912SOL    HW146421   7.914   7.174   3.246  2.3129  0.7391 -1.2863
13912SOL    HW246422   8.021   7.210   3.346 -0.7223  1.6439  1.8171
13913SOL     OW46423   5.798   5.711  11.333 -0.1324 -0.6382 -0.6551
13913SOL    HW146424   5.884   5.684  11.300 -0.4007 -2.2149 -0.1144
13913SOL    HW246425   5.736   5.683  11.265 -0.4340 -1.5723 -0.0065
13914SOL     OW46426   1.934  10.745   7.029 -0.5030 -0.4529  0.1165
13914SOL    HW146427   1.945  10.658   7.066 -1.9581 -1.3649 -1.4489
13914SOL    HW246428   1.843  10.747   6.998  0.1911  0.7172 -2.0880
13915SOL     OW46429   5.065   2.918  11.733 -0.8109 -0.0746 -0.2166
13915SOL    HW146430   5.022   2.999  11.759  0.3992  0.6663 -0.4817
13915SOL    HW246431   5.157   2.929  11.759 -0.2103 -0.5519 -2.0151
13916SOL     OW46432   1.644   4.607   7.442 -0.3520  0.0388  0.1821
13916SOL    HW146433   1.650   4.621   7.347 -4.4723 -1.9143 -0.6072
13916SOL    HW246434   1.716   4.547   7.462 -0.4268 -0.9538 -2.1520
13917SOL     OW46435  11.885   4.162   7.060  0.0899  0.1309 -0.1937
13917SOL    HW146436  11.833   4.132   6.985 -0.6604  1.5272 -0.2691
13917SOL    HW246437  11.975   4.164   7.027 -0.3198  1.5333 -1.3765
13918SOL     OW46438   0.295   1.050   2.409 -0.2491 -0.0573 -0.0716
13918SOL    HW146439   0.387   1.037   2.387 -0.3595  1.9196 -2.0985
13918SOL    HW246440   0.290   1.035   2.503  2.0825 -0.4224  0.0552
13919SOL     OW46441   3.740   7.258   5.458 -0.0311 -0.4225 -0.0083
13919SOL    HW146442   3.676   7.193   5.429 -0.8027  0.1543  0.3367
13919SOL    HW246443   3.800   7.267   5.384 -1.9597  1.0427 -1.5176
13920SOL     OW46444   3.569   3.235  11.701 -0.6026 -0.2456  0.0415
13920SOL    HW146445   3.586   3.322  11.665 -0.9942 -0.3074 -0.3011
13920SOL    HW246446   3.477   3.236  11.726 -1.1275 -1.1173 -1.6245
13921SOL     OW46447   8.688  11.836   9.521  0.5786 -0.2384  0.3097
13921SOL    HW146448   8.680  11.860   9.428  1.4488 -0.3830  0.1841
13921SOL    HW246449   8.741  11.906   9.559 -1.1227  0.6909  1.0859
13922SOL     OW46450   5.697   3.739   2.776  0.1700 -0.4234 -0.1452
13922SOL    HW146451   5.745   3.796   2.717  0.9912  0.3993  1.2643
13922SOL    HW246452   5.625   3.793   2.809  1.1123 -0.0573  1.4123
13923SOL     OW46453   5.743   7.949   0.551  0.4483 -0.0522 -0.4044
13923SOL    HW146454   5.772   7.965   0.461 -0.6342 -0.6527 -0.8784
13923SOL    HW246455   5.695   7.867   0.546  1.0389 -0.4915  0.8841
13924SOL     OW46456   7.873   7.618  10.443 -0.1203 -0.0529 -0.3945
13924SOL    HW146457   7.906   7.643  10.356 -0.9643  0.5512 -0.5519
13924SOL    HW246458   7.910   7.683  10.503  1.8890 -1.4767 -0.0066
13925SOL     OW46459  10.970   1.323   0.694 -0.1434  0.7764  0.4844
13925SOL    HW146460  11.018   1.314   0.776 -0.6832  2.8209  1.0754
13925SOL    HW246461  10.878   1.308   0.718 -0.2134  0.5375  0.0856
13926SOL     OW46462   4.043  11.567   1.462  0.6724  0.2448 -0.0648
13926SOL    HW146463   4.083  11.563   1.550  0.1136 -1.5386  0.1522
13926SOL    HW246464   3.957  11.528   1.474 -0.8402  3.1220 -0.7439
13927SOL     OW46465   6.403   4.774   7.638  0.0596 -0.2404 -0.5790
13927SOL    HW146466   6.430   4.814   7.721 -0.9734  1.0084 -0.8123
13927SOL    HW246467   6.389   4.848   7.579 -1.9019 -0.9217 -1.0525
13928SOL     OW46468   4.911   3.268   4.818  0.2343  0.0298 -0.0368
13928SOL    HW146469   4.829   3.231   4.787  0.7885 -0.6494 -0.7223
13928SOL    HW246470   4.977   3.238   4.755  1.0533  0.3276  0.6532
13929SOL     OW46471   0.923   3.549  10.126  0.3186  0.4874 -0.5538
13929SOL    HW146472   0.993   3.607  10.157  1.4726 -0.3271 -1.5567
13929SOL    HW246473   0.931   3.470  10.179 -0.5098  0.7602  0.0100
13930SOL     OW46474   5.351  11.047   7.637  0.2940 -0.0742  0.2012
13930SOL    HW146475   5.413  11.034   7.708 -0.2449  2.3766  1.2429
13930SOL    HW246476   5.331  11.141   7.640 -1.6068 -0.3451 -1.6262
13931SOL     OW46477  11.947   3.104   3.372  0.0672 -0.6838  0.3781
13931SOL    HW146478  11.908   3.062   3.449  1.6817 -1.5713  0.7658
13931SOL    HW246479  11.878   3.103   3.306 -1.1228 -0.5600  1.5670
13932SOL     OW46480  11.279   9.437   1.129  0.2777  0.0201 -0.1651
13932SOL    HW146481  11.210   9.428   1.064  1.9702 -0.5500 -1.9638
13932SOL    HW246482  11.310   9.527   1.120  0.7566 -0.1653 -0.4350
13933SOL     OW46483  10.387   6.366   0.001  0.1676 -0.1621  0.3198
13933SOL    HW146484  10.460   6.383  -0.059  0.1403 -0.7384  0.1176
13933SOL    HW246485  10.357   6.453   0.027  0.0578  0.1037 -0.6528
13934SOL     OW46486   8.705   6.080   3.961 -0.4372 -0.8393  0.0390
13934SOL    HW146487   8.628   6.037   3.999 -2.3512  0.8315 -1.6778
13934SOL    HW246488   8.709   6.049   3.871  0.9608 -0.9302  0.1097
13935SOL     OW46489   9.088   7.564   5.566  0.3191 -0.5789  0.0340
13935SOL    HW146490   9.089   7.469   5.554  0.7566 -0.8250  1.8072
13935SOL    HW246491   9.081   7.599   5.477  1.4334 -2.2389 -0.7659
13936SOL     OW46492   8.634   7.125  10.596  0.5709 -0.1372 -0.3878
13936SOL    HW146493   8.625   7.057  10.663 -1.8099 -0.2485 -0.7498
13936SOL    HW246494   8.550   7.126  10.551  1.7550  0.6456 -2.7500
13937SOL     OW46495  10.827  10.968   9.238  0.9462 -0.1994  0.1484
13937SOL    HW146496  10.815  11.004   9.150  1.0044 -0.0816  0.1871
13937SOL    HW246497  10.776  10.888   9.239 -1.9949  1.5513  1.1188
13938SOL     OW46498   1.156   8.533   8.422 -0.0984 -0.4041 -0.1325
13938SOL    HW146499   1.162   8.506   8.331  1.0150 -0.7787  0.0377
13938SOL    HW246500   1.144   8.628   8.418 -0.0769 -0.4207 -0.6684
13939SOL     OW46501   8.012   8.046   1.965  0.0865  0.6667 -0.1920
13939SOL    HW146502   8.011   8.029   1.871 -0.1334  0.0552 -0.0779
13939SOL    HW246503   8.003   8.142   1.972  0.0157  0.7029 -0.7861
13940SOL     OW46504   7.313   0.732   0.592  0.1398  0.8033 -0.4040
13940SOL    HW146505   7.292   0.776   0.675 -0.2476 -2.4631  1.4216
13940SOL    HW246506   7.244   0.760   0.532 -1.1301  1.2623  1.1916
13941SOL     OW46507   6.704   0.883   8.222 -0.2833 -0.5522 -0.5028
13941SOL    HW146508   6.684   0.796   8.256 -0.7591 -0.0763  0.4541
13941SOL    HW246509   6.642   0.896   8.150 -1.0948 -0.4915  0.1928
13942SOL     OW46510   1.912   2.580   1.965 -0.1113  0.5184  0.0528
13942SOL    HW146511   1.985   2.640   1.948  0.8177  0.2382  2.7092
13942SOL    HW246512   1.864   2.619   2.038 -1.4659 -0.3330 -0.3256
13943SOL     OW46513   6.147   2.526  11.384  0.6844 -0.3488 -0.9527
13943SOL    HW146514   6.148   2.509  11.478 -1.4481 -2.4496 -1.2011
13943SOL    HW246515   6.105   2.612  11.375  0.4665 -0.3555 -0.0063
13944SOL     OW46516   2.206   0.495   6.874 -0.0236  0.2205  0.2827
13944SOL    HW146517   2.226   0.416   6.825 -0.3576 -0.2668  0.9112
13944SOL    HW246518   2.257   0.564   6.832  1.4167 -0.6025  0.6487
13945SOL     OW46519   2.168   1.848   4.917  0.0713 -0.2000 -0.6416
13945SOL    HW146520   2.161   1.803   5.001  0.5383 -0.3232 -0.6624
13945SOL    HW246521   2.085   1.895   4.907  0.1836  0.1634  0.0822
13946SOL     OW46522   9.571  11.033   2.989  0.3170 -0.5276 -0.6140
13946SOL    HW146523   9.646  11.060   3.041 -0.5748  0.1766  0.3596
13946SOL    HW246524   9.592  10.945   2.958  1.6353 -0.2380 -0.5764
13947SOL     OW46525   5.422   9.143   9.536  0.1949  0.1450 -0.2090
13947SOL    HW146526   5.508   9.121   9.571 -0.2060 -1.5227 -0.1458
13947SOL    HW246527   5.361   9.100   9.597 -0.7438  2.1707  0.3522
13948SOL     OW46528   9.909   8.559   2.942  0.3728 -0.3209  0.2864
13948SOL    HW146529   9.883   8.586   2.854 -1.8111 -0.5141  0.8053
13948SOL    HW246530  10.000   8.588   2.951  0.7972 -0.6791 -2.1631
13949SOL     OW46531   1.286   8.841   3.741  0.8099 -0.6505 -0.0869
13949SOL    HW146532   1.245   8.822   3.825 -0.6111 -0.6858 -0.7642
13949SOL    HW246533   1.314   8.932   3.748 -3.0173  0.7963 -0.9236
13950SOL     OW46534  10.750   1.830   5.134  0.2611  0.2571  0.3648
13950SOL    HW146535  10.743   1.753   5.191  0.9209  1.0062  1.5004
13950SOL    HW246536  10.836   1.821   5.092 -0.0147 -0.0380 -0.1496
13951SOL     OW46537   3.977  10.647   1.407  0.1343 -0.3232 -0.6100
13951SOL    HW146538   3.991  10.719   1.346  2.7724 -0.3580 -0.1417
13951SOL    HW246539   4.013  10.570   1.363 -0.2603 -0.8414 -0.0509
13952SOL     OW46540   1.071   3.980   6.648  0.3024 -0.3688  0.1698
13952SOL    HW146541   0.992   3.966   6.595 -1.4969  0.9809  2.3132
13952SOL    HW246542   1.094   3.892   6.679 -0.7794 -0.7037  0.0787
13953SOL     OW46543   0.478   3.339   0.678  0.0623  0.2922  0.5857
13953SOL    HW146544   0.560   3.387   0.671 -0.5764  1.4307  0.5395
13953SOL    HW246545   0.449   3.355   0.768  0.7966 -1.6795  1.2196
13954SOL     OW46546   7.550   5.930  10.467  0.3311 -0.4712 -0.3328
13954SOL    HW146547   7.505   5.848  10.488 -1.5231  0.3923 -0.7174
13954SOL    HW246548   7.562   5.926  10.372  0.9760 -0.6280 -0.2518
13955SOL     OW46549   7.515   1.996   1.674 -0.2995  0.3941  0.0290
13955SOL    HW146550   7.544   2.059   1.740 -0.0453  1.2905 -0.9189
13955SOL    HW246551   7.457   2.046   1.616  2.3225  0.6486 -2.5790
13956SOL     OW46552  10.092   0.136   7.860  0.3912  0.6146  0.5387
13956SOL    HW146553  10.159   0.189   7.902  1.8173 -2.1235  1.9139
13956SOL    HW246554  10.072   0.067   7.922 -0.7470 -1.0006 -1.4810
13957SOL     OW46555   0.324   2.180   3.639  0.4665  0.3847 -0.5019
13957SOL    HW146556   0.308   2.092   3.675 -2.7475  0.9580 -0.2852
13957SOL    HW246557   0.375   2.225   3.707  1.1944 -0.9310 -0.1356
13958SOL     OW46558   4.840   5.052  10.715  0.0757  0.2177  0.4047
13958SOL    HW146559   4.919   5.053  10.662  0.5003 -0.8996  0.9638
13958SOL    HW246560   4.774   5.098  10.662  0.7322 -0.0314 -0.6593
13959SOL     OW46561   3.921   2.724   4.468  0.4351  0.1621  0.0399
13959SOL    HW146562   3.946   2.816   4.470 -1.2709  0.6816 -0.3500
13959SOL    HW246563   3.846   2.719   4.527  0.1407 -0.8535 -0.4086
13960SOL     OW46564   4.815   4.557  10.759  0.0491  0.0462  0.0672
13960SOL    HW146565   4.886   4.508  10.801  0.8177  0.4105 -0.7550
13960SOL    HW246566   4.787   4.620  10.825  0.7845  0.1688  0.2688
13961SOL     OW46567   5.557   9.888   4.727  0.5911  0.4022 -0.0284
13961SOL    HW146568   5.520   9.811   4.770  0.2403  0.3675 -0.3857
13961SOL    HW246569   5.481   9.944   4.708  0.6833  0.2375 -0.9500
13962SOL     OW46570   1.513   6.927   2.974 -0.5471 -0.0406  0.1707
13962SOL    HW146571   1.538   6.850   3.024 -0.2552 -1.6435 -2.3068
13962SOL    HW246572   1.595   6.964   2.943 -0.7108  1.0786  0.9993
13963SOL     OW46573   1.040  11.951   0.087 -0.3564  0.0222  0.2711
13963SOL    HW146574   1.007  12.038   0.110 -0.0224  0.6264 -1.3930
13963SOL    HW246575   0.978  11.918   0.022  0.1779 -0.4833  0.0026
13964SOL     OW46576   4.649   4.065   3.198 -0.0907  0.2431  0.0103
13964SOL    HW146577   4.703   4.070   3.277 -1.3365  0.0600  0.8988
13964SOL    HW246578   4.563   4.098   3.226 -0.4069  0.6694 -1.4047
13965SOL     OW46579   2.144   5.096   8.151 -0.6747 -0.2765 -0.1167
13965SOL    HW146580   2.069   5.142   8.116 -0.7329  0.4627  0.9306
13965SOL    HW246581   2.219   5.152   8.131 -0.8869  0.9603  2.2337
13966SOL     OW46582  10.393  11.711   0.194  0.1607 -0.3038  0.2837
13966SOL    HW146583  10.419  11.649   0.262  0.8943  1.3089  1.5533
13966SOL    HW246584  10.438  11.681   0.115 -1.3652 -2.7015  0.2330
13967SOL     OW46585   1.959   1.114   2.701 -0.2467  0.0155 -0.2211
13967SOL    HW146586   2.048   1.098   2.730 -0.4378 -2.8129 -0.9037
13967SOL    HW246587   1.943   1.047   2.634 -2.7472  0.6676 -0.3898
13968SOL     OW46588  11.872   6.073   3.233 -0.7940 -0.0068 -0.4659
13968SOL    HW146589  11.795   6.028   3.199 -0.4804 -0.6824 -0.2889
13968SOL    HW246590  11.898   6.022   3.309 -0.0263  0.0812 -0.6629
13969SOL     OW46591   1.927   5.378   8.972  0.3703  0.2319 -0.2279
13969SOL    HW146592   2.008   5.429   8.962 -0.0896  0.7124 -1.7493
13969SOL    HW246593   1.905   5.386   9.065  2.2449 -0.1889  0.2956
13970SOL     OW46594   2.592  10.897  11.276 -0.2805  0.3059 -0.2947
13970SOL    HW146595   2.661  10.964  11.278  0.2960 -0.2970  0.7251
13970SOL    HW246596   2.522  10.934  11.329 -0.2416  0.3834 -0.2974
13971SOL     OW46597   9.839   8.113   4.943  0.1008 -0.6317 -0.3267
13971SOL    HW146598   9.761   8.106   4.887  0.3485 -1.1418 -0.6188
13971SOL    HW246599   9.805   8.138   5.029 -0.1940  1.2278 -0.9466
13972SOL     OW46600   8.524   2.795   5.134  0.0321 -0.2859 -0.5286
13972SOL    HW146601   8.495   2.796   5.043 -0.1242  0.5809 -0.4815
13972SOL    HW246602   8.616   2.820   5.131 -0.0078 -0.1202 -0.4464
13973SOL     OW46603   0.862   3.819   1.353  0.1559  0.1791 -0.0920
13973SOL    HW146604   0.824   3.864   1.277 -0.4588  0.3888  0.3294
13973SOL    HW246605   0.893   3.890   1.410 -2.0357  0.1744  1.2132
13974SOL     OW46606   2.147   7.714  10.228 -0.3717 -0.4527  0.5718
13974SOL    HW146607   2.237   7.744  10.239 -0.5309  0.9660 -1.4606
13974SOL    HW246608   2.151   7.651  10.156 -1.0541  0.0544  0.0676
13975SOL     OW46609   7.594   9.551   2.323 -0.6602  0.5254  0.4018
13975SOL    HW146610   7.654   9.612   2.368  0.1755 -0.0119  0.0350
13975SOL    HW246611   7.507   9.585   2.343 -0.2248  3.0722 -1.4209
13976SOL     OW46612   4.583   0.178   5.278 -0.4329  0.0005  0.0023
13976SOL    HW146613   4.651   0.183   5.346 -0.1621 -1.2807 -0.1574
13976SOL    HW246614   4.508   0.141   5.323 -0.9353  1.0979  0.0925
13977SOL     OW46615   4.487   4.523   7.778  0.4539 -0.4773 -0.4632
13977SOL    HW146616   4.472   4.455   7.712  0.8775 -1.2293  0.1929
13977SOL    HW246617   4.438   4.493   7.855  0.9801 -0.2595 -0.0350
13978SOL     OW46618   8.015   0.366   9.257 -0.1064  0.0340 -0.1517
13978SOL    HW146619   8.035   0.330   9.344 -0.6839  0.5934  0.2283
13978SOL    HW246620   8.069   0.445   9.250 -0.6508  0.4329  0.0434
13979SOL     OW46621   4.633   3.529   0.050 -0.0110 -0.1776  0.2152
13979SOL    HW146622   4.705   3.556  -0.007 -0.5164 -0.8090 -0.7539
13979SOL    HW246623   4.566   3.495  -0.010 -0.4237 -1.1879  1.2084
13980SOL     OW46624   6.801   9.974   7.866  0.4124  0.1006 -0.3606
13980SOL    HW146625   6.814  10.059   7.909  0.0990  0.0250 -0.1077
13980SOL    HW246626   6.876   9.965   7.807  0.5972  0.4235 -0.1797
13981SOL     OW46627   6.215   1.760  10.792 -0.1523  0.1886 -0.5176
13981SOL    HW146628   6.305   1.744  10.819 -0.2254  0.9079  0.1675
13981SOL    HW246629   6.193   1.684  10.737  0.0534 -1.2674  1.2946
13982SOL     OW46630   4.449   8.788   0.969  0.5005  0.2362  0.1275
13982SOL    HW146631   4.459   8.725   1.040  0.6455 -0.6164 -0.6249
13982SOL    HW246632   4.409   8.738   0.898  0.8685  0.9218 -0.5803
13983SOL     OW46633   3.702   5.655   3.226 -0.4588  0.1693 -0.1388
13983SOL    HW146634   3.652   5.670   3.306  1.1182 -1.1451  1.1571
13983SOL    HW246635   3.793   5.674   3.250  0.3900 -2.4514 -0.8985
13984SOL     OW46636   9.450   2.367   0.101 -0.2810  0.1218  0.2350
13984SOL    HW146637   9.421   2.438   0.159  1.2496 -0.4229  1.7291
13984SOL    HW246638   9.460   2.291   0.158 -1.2869 -1.1814 -1.2316
13985SOL     OW46639   4.252  10.540  10.396 -0.4696 -0.0561  0.5921
13985SOL    HW146640   4.178  10.484  10.421 -0.9390  0.0783 -0.4401
13985SOL    HW246641   4.230  10.626  10.430  0.0805 -0.3855  1.8600
13986SOL     OW46642   8.957   2.622   1.690  0.2369 -0.5792 -0.2382
13986SOL    HW146643   8.997   2.689   1.635  0.2893 -0.6207 -0.2512
13986SOL    HW246644   8.914   2.563   1.629  2.4436 -2.0934 -0.4714
13987SOL     OW46645   5.128   1.207   8.243  0.3441  0.2366  0.2426
13987SOL    HW146646   5.092   1.199   8.154 -1.8466  1.8393  0.9046
13987SOL    HW246647   5.189   1.281   8.238 -1.0322  1.4188  0.3883
13988SOL     OW46648   5.200   3.303   4.293 -0.0727 -0.1031 -0.3506
13988SOL    HW146649   5.183   3.369   4.360 -2.8922  0.8909 -1.8877
13988SOL    HW246650   5.285   3.327   4.257  0.4551  0.6864  1.2985
13989SOL     OW46651   0.206   3.171   2.807 -0.2957  0.1017 -0.1421
13989SOL    HW146652   0.138   3.224   2.765 -0.6044  0.1833  0.4402
13989SOL    HW246653   0.179   3.167   2.899 -0.1781 -0.9235 -0.1475
13990SOL     OW46654   4.175   6.250  11.433  0.0974 -0.4271  0.0970
13990SOL    HW146655   4.205   6.159  11.430 -1.1363 -0.8669  0.2932
13990SOL    HW246656   4.146   6.262  11.523 -0.0692  0.0583 -0.0209
13991SOL     OW46657   5.667   0.605   9.615  0.4623 -0.1295  0.0117
13991SOL    HW146658   5.676   0.660   9.538  1.7022 -1.8183 -1.1306
13991SOL    HW246659   5.677   0.665   9.689 -1.6621  1.6796 -1.0663
13992SOL     OW46660   1.242   0.950   6.752  0.1159  0.5228  0.0836
13992SOL    HW146661   1.286   0.944   6.836  2.3563 -1.8525 -1.0923
13992SOL    HW246662   1.311   0.981   6.692 -1.0649  0.9243 -1.1061
13993SOL     OW46663   1.248  11.388  10.690 -0.4894  0.5680  0.0137
13993SOL    HW146664   1.299  11.352  10.763  0.2015  0.8631 -0.3165
13993SOL    HW246665   1.313  11.428  10.633 -1.1307  1.2900 -0.2222
13994SOL     OW46666   7.861   2.233   1.264  0.2163  1.1424  0.2347
13994SOL    HW146667   7.819   2.249   1.179 -0.1223  1.8468  0.5304
13994SOL    HW246668   7.860   2.318   1.308 -2.4887  0.2229  2.2460
13995SOL     OW46669  10.624   5.953   9.369  0.2690  0.4755 -0.1539
13995SOL    HW146670  10.666   5.905   9.440  0.2083  0.0625 -0.3925
13995SOL    HW246671  10.681   6.028   9.353 -0.0948  0.9717  0.8153
13996SOL     OW46672   2.489   3.847   0.643  0.3132  0.1316 -0.2080
13996SOL    HW146673   2.475   3.767   0.592  0.7010 -0.8328  1.1461
13996SOL    HW246674   2.447   3.830   0.727 -0.6184  1.8266 -0.2751
13997SOL     OW46675   7.749   2.097  10.684 -0.0749 -0.2947  0.4988
13997SOL    HW146676   7.681   2.157  10.657  1.3214  1.3078  0.3881
13997SOL    HW246677   7.773   2.049  10.605 -0.1397  0.0845  0.2519
13998SOL     OW46678  10.555   4.214   7.473 -0.0976  0.5352  0.7071
13998SOL    HW146679  10.627   4.170   7.426 -0.3601  1.2541 -0.4114
13998SOL    HW246680  10.490   4.232   7.405 -1.2705  0.0558  1.6727
13999SOL     OW46681   0.332   5.921   4.470 -0.4491 -0.3742 -0.2373
13999SOL    HW146682   0.378   5.966   4.540 -0.4969 -0.5997 -0.0585
13999SOL    HW246683   0.324   5.831   4.501 -0.7230 -0.4094 -0.4071
14000SOL     OW46684  11.564   1.914   6.831 -0.1112  0.7841 -0.0081
14000SOL    HW146685  11.644   1.966   6.831  0.1009  0.4830  0.9003
14000SOL    HW246686  11.594   1.825   6.810 -0.3218  0.8129 -0.4481
14001SOL     OW46687   5.488   1.047   0.128  0.2091 -0.4535  0.2378
14001SOL    HW146688   5.581   1.069   0.123  0.0709  0.2163  0.4702
14001SOL    HW246689   5.480   0.965   0.079  0.8104 -0.1623 -0.3630
14002SOL     OW46690   6.214  10.763  11.027 -0.3072 -0.0470  0.4348
14002SOL    HW146691   6.198  10.815  10.948  0.8470 -0.4052 -0.0672
14002SOL    HW246692   6.149  10.693  11.023 -0.9030  0.5038  0.3336
14003SOL     OW46693  11.491   6.499   1.179 -0.0161 -0.2491 -0.3465
14003SOL    HW146694  11.585   6.481   1.183 -0.0854 -0.5374  0.0590
14003SOL    HW246695  11.482   6.588   1.212  0.0325 -0.5290  0.4566
14004SOL     OW46696   9.652   7.102   8.389  0.0090 -0.1297 -0.4177
14004SOL    HW146697   9.746   7.086   8.385  0.0624  0.1189 -0.2184
14004SOL    HW246698   9.637   7.176   8.330 -0.3512 -1.3768 -1.9368
14005SOL     OW46699   5.677   7.844   3.957  0.0423  0.4384 -0.4966
14005SOL    HW146700   5.642   7.762   3.922  0.5318  0.0304 -0.0555
14005SOL    HW246701   5.606   7.879   4.012  0.4627 -0.6299  0.7913
14006SOL     OW46702   8.342   4.443   9.663  0.3948  0.4098  0.0636
14006SOL    HW146703   8.263   4.497   9.666 -0.4148 -0.6949 -0.6812
14006SOL    HW246704   8.348   4.405   9.751  1.2259  2.0012  0.7460
14007SOL     OW46705   5.402   7.189   6.010 -0.1705  0.3827  0.2923
14007SOL    HW146706   5.461   7.252   5.967 -1.2854  0.6794 -0.8586
14007SOL    HW246707   5.425   7.104   5.972 -1.3885  0.6928 -1.2140
14008SOL     OW46708  10.088  10.591   1.025  0.1612 -0.2271 -0.8018
14008SOL    HW146709  10.029  10.522   0.996  0.4057  0.2585 -2.6009
14008SOL    HW246710  10.113  10.566   1.114 -0.7643 -1.7444 -0.9330
14009SOL     OW46711   5.743   3.388   4.507 -0.5869  0.1328  0.5616
14009SOL    HW146712   5.839   3.380   4.507 -0.5474  0.5848  0.8373
14009SOL    HW246713   5.715   3.335   4.582 -0.6032 -0.5521  0.0756
14010SOL     OW46714   6.731  10.510  10.246 -0.8495 -0.2713 -0.1261
14010SOL    HW146715   6.649  10.463  10.263  0.0839 -1.7339  0.5869
14010SOL    HW246716   6.744  10.565  10.323 -0.9854 -0.3154 -0.0705
14011SOL     OW46717   9.044   4.496   5.997  0.5123 -0.0934  0.0250
14011SOL    HW146718   9.126   4.467   5.959  0.1338  0.1681 -1.0198
14011SOL    HW246719   9.061   4.585   6.027  1.0615 -0.6003  1.3077
14012SOL     OW46720   8.270   2.686   1.530  0.2994 -0.4895 -0.0151
14012SOL    HW146721   8.206   2.689   1.602  0.5187  0.5787  0.1538
14012SOL    HW246722   8.221   2.649   1.457 -1.4797  2.8996 -0.7582
14013SOL     OW46723   3.659  10.736   0.843  0.0694 -0.6116 -0.2273
14013SOL    HW146724   3.666  10.701   0.754 -0.2620  1.1310 -0.9819
14013SOL    HW246725   3.746  10.773   0.862 -0.2882  0.3630 -0.4399
14014SOL     OW46726   3.305   3.637   1.988  0.6895 -0.0959 -0.4029
14014SOL    HW146727   3.313   3.550   1.950  2.2038 -0.1815  0.0520
14014SOL    HW246728   3.368   3.638   2.060 -1.3634  0.4023  1.4693
14015SOL     OW46729   6.858   3.321   8.768 -0.0148 -0.3930 -0.2603
14015SOL    HW146730   6.925   3.376   8.727 -1.1937 -0.4196 -2.4296
14015SOL    HW246731   6.906   3.254   8.815  1.4650  0.0624 -1.0605
14016SOL     OW46732   3.324   2.017   6.283  0.1355 -0.1496  0.8868
14016SOL    HW146733   3.308   1.958   6.356 -1.6130  0.5070  1.0727
14016SOL    HW246734   3.330   2.104   6.323  0.8238  0.0320  0.4115
14017SOL     OW46735   9.949   7.199  11.014 -0.1491  0.0204 -0.3030
14017SOL    HW146736   9.901   7.263  10.962 -0.0196 -0.0517 -0.5118
14017SOL    HW246737   9.881   7.142  11.051 -0.1790 -0.8016 -1.5428
14018SOL     OW46738   0.920   7.015  10.348  0.5633 -0.6545  0.0004
14018SOL    HW146739   0.929   7.028  10.253  0.3870 -1.5300 -0.1418
14018SOL    HW246740   1.008   7.032  10.383  0.7411 -0.7894 -0.3730
14019SOL     OW46741  11.423   2.203   2.867 -0.0392  0.0634  0.2054
14019SOL    HW146742  11.441   2.290   2.902 -0.9512 -0.4122  1.9524
14019SOL    HW246743  11.497   2.150   2.894  0.2850  0.1731 -0.4486
14020SOL     OW46744   1.656  11.607  11.892  0.3500  0.4356 -0.0635
14020SOL    HW146745   1.592  11.535  11.900  0.5171  0.3203  0.2516
14020SOL    HW246746   1.625  11.673  11.954  0.2454  0.5987 -0.2905
14021SOL     OW46747   2.094   5.632   1.880 -0.1180 -0.4576  0.3452
14021SOL    HW146748   2.126   5.587   1.802  1.7943  0.1318  0.7213
14021SOL    HW246749   2.055   5.713   1.846  0.4768 -0.3237 -0.0466
14022SOL     OW46750   8.652   8.608   0.090 -0.2042  0.1872 -0.2597
14022SOL    HW146751   8.709   8.591   0.015  1.1014  0.6847  0.5774
14022SOL    HW246752   8.645   8.523   0.135 -1.3845 -0.2279 -1.1683
14023SOL     OW46753   5.933   1.910   7.408  0.3314  0.1388  0.2917
14023SOL    HW146754   5.981   1.838   7.449  2.6052  1.9356  1.0093
14023SOL    HW246755   5.961   1.988   7.455 -1.6524  1.5910 -0.7797
14024SOL     OW46756  11.313   0.840   6.300  0.1720 -0.1248  0.1434
14024SOL    HW146757  11.220   0.831   6.281 -0.3165  0.3944  2.0308
14024SOL    HW246758  11.331   0.774   6.367  1.0598  0.0369  0.0789
14025SOL     OW46759   0.916   2.485   8.361  0.2411  0.4449  0.2255
14025SOL    HW146760   0.893   2.454   8.449 -1.8413 -1.4515 -0.8938
14025SOL    HW246761   0.842   2.540   8.334 -0.5660 -1.3130 -1.3711
14026SOL     OW46762   7.182   7.677   3.293 -0.3365  0.6976  0.1794
14026SOL    HW146763   7.259   7.728   3.271 -1.4490  2.6400  0.5520
14026SOL    HW246764   7.166   7.623   3.216  1.3198  0.2997  0.0800
14027SOL     OW46765   5.462  11.317   8.309  0.7318 -0.4848  0.6908
14027SOL    HW146766   5.521  11.391   8.292 -0.2517  0.5017  1.3710
14027SOL    HW246767   5.461  11.267   8.228  0.7040  0.7870 -0.1193
14028SOL     OW46768   3.156   0.508   4.778  0.3140 -0.6582 -0.2567
14028SOL    HW146769   3.076   0.528   4.828 -0.0320  0.5385 -1.2420
14028SOL    HW246770   3.224   0.497   4.845  0.0186  1.6139  0.5024
14029SOL     OW46771  10.672   8.412   7.805  0.4854 -0.2361  0.2634
14029SOL    HW146772  10.681   8.425   7.710 -2.5887 -1.0511 -0.2599
14029SOL    HW246773  10.697   8.321   7.819  1.5575  0.0626  0.3754
14030SOL     OW46774   0.179   4.200   8.513  0.0265 -0.0653 -0.0638
14030SOL    HW146775   0.214   4.247   8.437  0.8522  0.9908  0.9340
14030SOL    HW246776   0.213   4.111   8.504  1.2533  0.3995 -0.2300
14031SOL     OW46777   8.789   0.177   0.937  0.1111  0.5339 -0.0084
14031SOL    HW146778   8.745   0.256   0.970 -0.3570  0.0318  0.5936
14031SOL    HW246779   8.759   0.107   0.995  0.1237 -0.1877 -0.8528
14032SOL     OW46780   5.925   0.465  11.656 -0.4488  0.4751 -0.3011
14032SOL    HW146781   5.930   0.376  11.621 -2.5740  0.4263 -0.6568
14032SOL    HW246782   5.979   0.517  11.597  0.3787 -0.4772 -0.4197
14033SOL     OW46783   0.040  10.855   0.280  0.1074 -0.2735  0.1198
14033SOL    HW146784  -0.036  10.798   0.272  1.4185 -2.2834  1.2227
14033SOL    HW246785   0.045  10.900   0.196 -1.7843 -0.7319 -0.2812
14034SOL     OW46786   6.123   1.685   7.410  0.5379  0.4519 -0.1027
14034SOL    HW146787   6.206   1.637   7.415  2.3921  3.5444  1.6457
14034SOL    HW246788   6.058   1.625   7.447  2.0785 -1.7804 -0.8224
14035SOL     OW46789   7.135   8.798   2.312  0.2531 -0.3432  0.1602
14035SOL    HW146790   7.156   8.716   2.266  0.9641  0.7920 -1.6785
14035SOL    HW246791   7.042   8.791   2.332  0.3540 -1.6931  0.2519
14036SOL     OW46792   3.252   6.136   1.598  0.6311 -0.9553 -0.1701
14036SOL    HW146793   3.196   6.061   1.621  1.9142 -1.6308  0.8912
14036SOL    HW246794   3.267   6.181   1.681 -1.1896  1.3126 -0.9770
14037SOL     OW46795   3.774   8.884  10.977 -0.5183 -0.0509  0.3907
14037SOL    HW146796   3.749   8.860  10.888  0.3835 -2.8075  0.8003
14037SOL    HW246797   3.691   8.885  11.026 -0.8026 -0.3259 -0.0858
14038SOL     OW46798   1.335   5.918   3.330 -0.2699 -0.1975 -0.3313
14038SOL    HW146799   1.341   5.890   3.422  1.0204  0.3068 -0.2336
14038SOL    HW246800   1.247   5.895   3.303 -0.2681 -1.4798  0.6772
14039SOL     OW46801   9.045   7.553   2.432 -0.2575  0.3130  0.3140
14039SOL    HW146802   8.997   7.608   2.370 -0.9705  0.1544  0.7069
14039SOL    HW246803   8.983   7.538   2.504  0.4165  0.1732  0.8828
14040SOL     OW46804   7.547   3.290   4.449  0.4416  0.3026 -0.2519
14040SOL    HW146805   7.596   3.367   4.422  0.3652  0.0228 -1.2123
14040SOL    HW246806   7.549   3.232   4.373 -2.3057  0.7229 -0.7130
14041SOL     OW46807  10.788   0.292   7.657  0.5647 -0.0820  0.2737
14041SOL    HW146808  10.853   0.340   7.606  1.3224 -0.7155  0.6130
14041SOL    HW246809  10.711   0.287   7.600  0.4573  1.5146  0.2426
14042SOL     OW46810   5.918   0.238   2.130  0.1821 -0.0550  0.4538
14042SOL    HW146811   6.010   0.235   2.105  0.2290 -0.4722  0.6583
14042SOL    HW246812   5.916   0.201   2.218 -0.2476 -0.5548  0.2416
14043SOL     OW46813  11.313   9.761   4.978 -0.3692 -0.2852  0.3985
14043SOL    HW146814  11.393   9.762   4.926 -0.8026 -0.2670 -0.2741
14043SOL    HW246815  11.324   9.833   5.040  0.0084 -0.1035  0.1214
14044SOL     OW46816   0.702   9.985   2.842  0.0281 -0.0560 -0.6248
14044SOL    HW146817   0.680  10.048   2.911  2.3270 -0.3784  0.5240
14044SOL    HW246818   0.680  10.030   2.761  0.2329  1.6679  0.2121
14045SOL     OW46819   7.698   6.323   9.064  0.2025 -0.1180  0.3070
14045SOL    HW146820   7.787   6.289   9.068  0.3248  0.2068  0.4235
14045SOL    HW246821   7.699   6.384   8.990 -0.5952 -1.9754 -1.3300
14046SOL     OW46822  11.676   1.947   7.364  0.2920 -0.1480  0.0209
14046SOL    HW146823  11.644   1.992   7.286 -1.0634 -2.5708 -0.9400
14046SOL    HW246824  11.620   1.979   7.435 -0.5218 -0.1660 -0.5931
14047SOL     OW46825  10.146   5.727   6.262 -0.2308  0.2319 -0.1643
14047SOL    HW146826  10.174   5.731   6.171 -1.4050 -0.2962 -0.5686
14047SOL    HW246827  10.108   5.813   6.279  0.5062  0.5244  0.0039
14048SOL     OW46828   0.374   0.959   3.204  0.4910 -0.3400 -0.4822
14048SOL    HW146829   0.285   0.957   3.240  0.2518  1.1386 -0.9116
14048SOL    HW246830   0.407   1.046   3.228  1.6689 -0.7147 -0.6941
14049SOL     OW46831   4.333   0.951   0.348 -0.1744 -0.0205  0.1080
14049SOL    HW146832   4.304   0.916   0.432  0.8106 -0.3598  0.3297
14049SOL    HW246833   4.398   0.887   0.317 -0.0954  0.4024 -0.6272
14050SOL     OW46834   1.602   3.703   6.328  0.4530 -0.2028  0.3153
14050SOL    HW146835   1.529   3.741   6.281  0.9973  0.6754  0.1543
14050SOL    HW246836   1.590   3.732   6.419  1.0751  0.7121  0.1220
14051SOL     OW46837   1.661   4.399   2.532 -0.1109  0.1429 -0.0518
14051SOL    HW146838   1.626   4.450   2.605  0.0893  1.0242 -0.5513
14051SOL    HW246839   1.638   4.451   2.454 -0.3960 -0.8205 -0.6231
14052SOL     OW46840   8.007   6.324  11.639 -0.5294  0.0429  0.0217
14052SOL    HW146841   8.013   6.377  11.560  0.3249  0.4980  0.3864
14052SOL    HW246842   8.070   6.253  11.625 -0.5633 -0.0214  0.1909
14053SOL     OW46843   7.757   9.061   7.927  0.5579  0.0772 -0.3691
14053SOL    HW146844   7.744   9.155   7.911 -1.3890 -0.1352 -0.3383
14053SOL    HW246845   7.711   9.044   8.009  1.5356 -0.7720  0.0129
14054SOL     OW46846  11.888   1.926   1.341  0.0052  0.2413  0.2174
14054SOL    HW146847  11.959   1.862   1.344 -0.1876  0.0379  2.4307
14054SOL    HW246848  11.932   2.010   1.358 -0.3972 -0.1321  3.9585
14055SOL     OW46849   4.951   2.679  11.771 -0.3671  0.2574  0.2707
14055SOL    HW146850   4.995   2.760  11.746  1.8322 -0.2184  2.2197
14055SOL    HW246851   4.868   2.708  11.809 -0.2141  1.4836 -0.2885
14056SOL     OW46852   2.347   0.990   0.840  0.1128  0.2225  0.0806
14056SOL    HW146853   2.336   0.897   0.817  0.3223 -0.0915  1.1609
14056SOL    HW246854   2.287   1.004   0.913  1.1809  0.5149  0.9412
14057SOL     OW46855   7.963   1.049  11.488 -0.4456 -0.0801 -0.3985
14057SOL    HW146856   7.899   1.034  11.557 -0.7085  1.0089 -0.3910
14057SOL    HW246857   8.047   1.056  11.534 -0.4477 -0.5600 -0.3171
14058SOL     OW46858   0.319   2.989  11.445 -0.2555  0.2085  0.0304
14058SOL    HW146859   0.289   2.912  11.398 -1.1743  0.2613  0.4987
14058SOL    HW246860   0.411   2.999  11.419 -0.6852  0.1641 -1.6347
14059SOL     OW46861  10.193  10.239   4.155  0.8903 -0.0243 -0.2315
14059SOL    HW146862  10.205  10.304   4.225 -1.4916  1.6644 -1.2752
14059SOL    HW246863  10.143  10.168   4.196 -0.9268  1.1794 -0.2552
14060SOL     OW46864  10.642  10.480   8.297 -0.0752  0.0839 -0.1836
14060SOL    HW146865  10.559  10.432   8.289 -0.3837  0.4648  0.5720
14060SOL    HW246866  10.636  10.549   8.230  0.0885 -0.5232 -0.8326
14061SOL     OW46867   1.814   7.218   8.299 -0.1113 -0.1288 -0.0584
14061SOL    HW146868   1.818   7.307   8.333  1.2804 -0.3779  0.4890
14061SOL    HW246869   1.755   7.172   8.359 -0.4572  0.2975 -0.0663
14062SOL     OW46870  10.340   2.976   3.298  0.3262 -0.5076  0.2386
14062SOL    HW146871  10.295   3.006   3.219  0.3041 -0.1351  0.3895
14062SOL    HW246872  10.271   2.934   3.350  0.5540 -1.7596 -0.4250
14063SOL     OW46873  11.718   5.983   4.384 -0.1049  0.2697  0.1736
14063SOL    HW146874  11.672   5.920   4.328  0.5476  0.7750 -0.9535
14063SOL    HW246875  11.770   5.928   4.443 -0.6397 -0.2713  0.1499
14064SOL     OW46876  10.953   3.307   4.957  0.3994  0.0197 -1.1442
14064SOL    HW146877  10.879   3.247   4.943 -0.1845  0.7115 -1.0751
14064SOL    HW246878  10.993   3.315   4.871  0.7450 -0.7910 -1.0743
14065SOL     OW46879  10.896  11.538   0.135 -0.1026 -0.1039 -0.3432
14065SOL    HW146880  10.969  11.599   0.129  0.4230 -0.4286  1.8468
14065SOL    HW246881  10.862  11.549   0.224 -2.1387 -0.6443 -0.9872
14066SOL     OW46882  11.741   4.542  11.288 -0.1077  0.1145 -0.2505
14066SOL    HW146883  11.805   4.573  11.353  0.4205 -1.6862  0.1470
14066SOL    HW246884  11.795   4.515  11.213 -0.2615 -2.2240  0.4103
14067SOL     OW46885   9.936   7.107   2.270  0.5494  0.1531  0.1395
14067SOL    HW146886   9.937   7.102   2.174 -1.6627  1.1897  0.0056
14067SOL    HW246887   9.980   7.189   2.290  2.2308 -0.6943  0.1508
14068SOL     OW46888  10.260   5.742  11.827 -0.6711 -0.2740 -0.2443
14068SOL    HW146889  10.249   5.836  11.812 -0.7925 -0.0924  0.8736
14068SOL    HW246890  10.181   5.717  11.876  0.6098 -0.3691  1.9093
14069SOL     OW46891   2.047   2.162   7.221  0.1653  0.0672  0.5440
14069SOL    HW146892   2.137   2.187   7.202  0.6816 -1.7960  0.3122
14069SOL    HW246893   2.046   2.144   7.315 -0.4704  1.8470  0.9268
14070SOL     OW46894   5.140   2.773   2.989 -0.0825  0.2200  0.3229
14070SOL    HW146895   5.126   2.867   2.977 -0.4549  0.1294  0.0390
14070SOL    HW246896   5.176   2.743   2.905 -1.0942 -0.1055 -0.0002
14071SOL     OW46897   3.035  11.171  11.402  0.8023  0.8250  0.7494
14071SOL    HW146898   2.977  11.124  11.462  0.0208 -0.2664 -0.7931
14071SOL    HW246899   3.008  11.263  11.409 -0.9987  0.3670  0.2294
14072SOL     OW46900   7.997   4.493   6.343  0.0083  0.5346  0.6660
14072SOL    HW146901   7.943   4.536   6.277 -0.0288 -1.1483 -0.4788
14072SOL    HW246902   8.080   4.476   6.299  0.3348  0.2509  1.3757
14073SOL     OW46903   6.336   0.275   8.803 -0.3658  0.0388  0.8792
14073SOL    HW146904   6.330   0.180   8.796  0.6201  0.0334  0.0291
14073SOL    HW246905   6.382   0.303   8.725 -1.6162  1.3420  0.5629
14074SOL     OW46906  10.663   8.958   3.297  0.2740  0.2411  0.8879
14074SOL    HW146907  10.697   8.996   3.216 -0.6684 -0.2115  0.2693
14074SOL    HW246908  10.738   8.913   3.336  0.3095 -1.0686 -0.6332
14075SOL     OW46909   0.642   2.679   6.057 -0.1149  0.2002  0.1257
14075SOL    HW146910   0.650   2.585   6.043  1.2751  0.5352 -1.8319
14075SOL    HW246911   0.626   2.715   5.970  0.5367  1.8749  0.6553
14076SOL     OW46912  10.903   7.413   7.865 -0.4515 -0.5454  0.2820
14076SOL    HW146913  10.814   7.415   7.832 -0.1939 -1.0491 -0.4671
14076SOL    HW246914  10.934   7.503   7.857 -0.8819 -0.3769  0.5143
14077SOL     OW46915   9.843  11.378   8.086  0.3690 -0.1645  0.3433
14077SOL    HW146916   9.926  11.391   8.133  2.2592 -0.8289 -2.5738
14077SOL    HW246917   9.856  11.299   8.035 -2.2739 -0.5102  0.0734
14078SOL     OW46918   7.053   1.406   2.538 -0.0451 -0.2385  0.0511
14078SOL    HW146919   7.050   1.313   2.514 -0.5472 -1.1904  3.2705
14078SOL    HW246920   6.965   1.425   2.572  0.9306  0.4016  2.4410
14079SOL     OW46921   5.133   8.221   0.066 -0.4415  0.4540  0.3778
14079SOL    HW146922   5.116   8.267   0.148 -2.0004 -0.9270  0.8880
14079SOL    HW246923   5.228   8.205   0.067  0.0055  2.6772  0.6358
14080SOL     OW46924   5.049   1.949   1.160 -0.4336  0.1239  0.1718
14080SOL    HW146925   5.060   1.881   1.093  0.6016 -0.2333  0.6898
14080SOL    HW246926   4.960   1.982   1.146 -1.0493 -1.4888  0.0452
14081SOL     OW46927   4.591   7.713   5.167 -0.4147  0.0300  0.0499
14081SOL    HW146928   4.559   7.623   5.176  1.8539 -1.1242 -2.1828
14081SOL    HW246929   4.549   7.745   5.087  0.1080  0.3368 -0.1017
14082SOL     OW46930   5.027   9.378   4.028 -0.2128 -0.3964 -0.4104
14082SOL    HW146931   5.073   9.461   4.037 -1.9952  0.5772  0.3024
14082SOL    HW246932   5.019   9.366   3.933  1.0778 -0.3713 -0.5361
14083SOL     OW46933   3.868   1.238  10.718 -0.6668 -0.0121  0.6863
14083SOL    HW146934   3.864   1.145  10.740  0.9690 -0.5733 -1.0655
14083SOL    HW246935   3.878   1.240  10.623 -2.9806  2.0736  0.3774
14084SOL     OW46936   1.935   1.153   4.459  0.4198 -0.6559 -0.5518
14084SOL    HW146937   1.859   1.096   4.457 -0.8162  0.8360  1.0814
14084SOL    HW246938   1.938   1.187   4.548  1.0762  1.7906 -1.4266
14085SOL     OW46939   0.571   1.228   5.709 -0.5654 -0.2194 -0.1302
14085SOL    HW146940   0.631   1.261   5.776 -1.8337 -1.6328  1.8042
14085SOL    HW246941   0.627   1.210   5.633  0.8642  1.7561  0.3834
14086SOL     OW46942   5.846  11.210   2.914  0.5532 -0.0525 -0.6152
14086SOL    HW146943   5.846  11.118   2.886  1.6887 -0.0453 -0.6693
14086SOL    HW246944   5.771  11.248   2.868 -0.9298 -1.3003  0.6652
14087SOL     OW46945  11.402   5.778   9.004  0.1431 -0.2348  0.5061
14087SOL    HW146946  11.447   5.840   9.061 -0.5256  3.5468 -2.6593
14087SOL    HW246947  11.468   5.712   8.984  1.5030  0.3707  2.6484
14088SOL     OW46948   1.406   2.461   3.140 -0.3637  0.0807  0.0387
14088SOL    HW146949   1.478   2.512   3.103  0.1022  1.9025  3.1095
14088SOL    HW246950   1.365   2.419   3.065  2.1865  1.2004 -2.1311
14089SOL     OW46951   5.683   5.775   3.339 -0.7177 -0.3033  0.7666
14089SOL    HW146952   5.750   5.753   3.275  0.0925  1.3046  1.0061
14089SOL    HW246953   5.601   5.748   3.298 -0.1659  0.2142 -0.7399
14090SOL     OW46954   4.504   9.602   4.569  0.5064 -0.0939  0.4017
14090SOL    HW146955   4.557   9.628   4.645  1.4106 -1.3252  0.2312
14090SOL    HW246956   4.459   9.682   4.542  2.3418  1.0235  0.5115
14091SOL     OW46957   9.514   0.908   6.948 -0.5334  0.2966  0.0176
14091SOL    HW146958   9.543   0.996   6.924  0.8878  0.5123  2.2337
14091SOL    HW246959   9.430   0.921   6.992 -1.4036  0.2748 -1.5990
14092SOL     OW46960   7.691   2.458  11.846  0.0093 -0.0960  0.1498
14092SOL    HW146961   7.690   2.375  11.797  2.0692  0.0358 -0.1871
14092SOL    HW246962   7.698   2.432  11.937  1.4001 -0.3081 -0.0048
14093SOL     OW46963   3.517   9.516   7.726 -0.2984  0.0823 -0.5323
14093SOL    HW146964   3.540   9.469   7.807 -2.0643 -1.9146 -1.1048
14093SOL    HW246965   3.601   9.546   7.691  0.8175 -1.7076  0.4644
14094SOL     OW46966  10.158  10.542  11.035  0.3490 -0.0358  0.5255
14094SOL    HW146967  10.253  10.554  11.025  0.3826 -0.1446  0.7170
14094SOL    HW246968  10.122  10.630  11.032  0.6371  0.1723  2.3762
14095SOL     OW46969   3.756  10.128   4.890 -0.0902  0.5366  0.8775
14095SOL    HW146970   3.670  10.123   4.849 -0.3801  0.0642  1.5192
14095SOL    HW246971   3.817  10.105   4.821 -0.5495 -0.0220  0.6514
14096SOL     OW46972   6.739   7.020   2.210  0.3071 -0.2927  0.0857
14096SOL    HW146973   6.781   7.061   2.286  0.8100 -0.9368  0.1594
14096SOL    HW246974   6.745   7.086   2.141 -0.5981  0.5008  0.7206
14097SOL     OW46975   9.483   0.846   3.467 -0.0872 -0.7458  0.1565
14097SOL    HW146976   9.541   0.878   3.536 -0.7741 -0.7219  0.7389
14097SOL    HW246977   9.430   0.779   3.510 -0.5344 -0.7205 -0.3423
14098SOL     OW46978   8.924   3.543   9.977  0.0489  0.0745  0.6816
14098SOL    HW146979   8.891   3.554  10.066  0.9584 -0.6062  1.1309
14098SOL    HW246980   9.018   3.558   9.985 -0.0091  1.0848 -0.3848
14099SOL     OW46981   1.838   8.068  10.340 -0.6939 -0.2553 -0.0680
14099SOL    HW146982   1.883   7.984  10.349 -1.3551 -0.5562  0.5160
14099SOL    HW246983   1.835   8.084  10.246 -2.2669 -1.8432 -0.3297
14100SOL     OW46984   1.221   6.414   3.171  0.5368  0.0245 -0.5126
14100SOL    HW146985   1.147   6.448   3.221  1.5777  1.0403  0.4291
14100SOL    HW246986   1.182   6.369   3.097 -0.9999  1.1582 -0.4437
14101SOL     OW46987   0.374   0.663   9.885 -0.9903  0.2133 -0.2566
14101SOL    HW146988   0.298   0.679   9.942 -0.4719 -1.3619  0.9509
14101SOL    HW246989   0.441   0.628   9.943  0.2512  0.4125 -1.5194
14102SOL     OW46990   0.631   2.278   8.467 -0.4693  0.1449 -0.1784
14102SOL    HW146991   0.586   2.353   8.428 -1.4471 -1.8299 -3.0715
14102SOL    HW246992   0.586   2.264   8.550 -1.6908  1.4229 -0.5842
14103SOL     OW46993  10.971   4.857  11.539  0.2411  0.6645 -0.4224
14103SOL    HW146994  11.031   4.811  11.598 -0.3181  0.5317  0.0520
14103SOL    HW246995  10.987   4.950  11.555 -1.4319  0.6740  1.5757
14104SOL     OW46996   3.913  11.991   8.563 -0.0596 -0.3276 -0.1570
14104SOL    HW146997   3.957  12.075   8.576  1.5820 -1.0064 -1.0175
14104SOL    HW246998   3.984  11.926   8.569 -0.8804 -1.4384 -1.9239
14105SOL     OW46999   2.794  10.872   7.965 -0.7973  0.0600 -0.2678
14105SOL    HW147000   2.790  10.835   8.054 -0.0276  0.3897 -0.0881
14105SOL    HW247001   2.845  10.808   7.916  0.5654  0.8689  0.0513
14106SOL     OW47002   6.168   4.535   0.544 -0.4600 -0.2594  0.0014
14106SOL    HW147003   6.136   4.617   0.581 -3.1351 -1.7076  1.2111
14106SOL    HW247004   6.202   4.558   0.458 -0.8021  2.1275  0.4564
14107SOL     OW47005   2.405   5.387   3.574 -0.4640 -0.4430  0.2194
14107SOL    HW147006   2.403   5.457   3.508 -0.9811  0.2264  0.9294
14107SOL    HW247007   2.460   5.421   3.644 -0.1925 -1.0171  0.2875
14108SOL     OW47008   2.789   5.497   1.983  0.0040 -0.9646  0.4794
14108SOL    HW147009   2.851   5.431   2.015 -0.8312 -1.8031  0.3760
14108SOL    HW247010   2.747   5.457   1.907 -1.0352 -0.6098  0.8496
14109SOL     OW47011   2.100  10.633   3.562  0.4021  0.3037  0.3994
14109SOL    HW147012   2.012  10.669   3.563  1.2529  2.6212  2.4109
14109SOL    HW247013   2.151  10.696   3.511  1.4916  0.8651  2.0930
14110SOL     OW47014  10.895   4.944   8.091  0.2171  0.2274 -0.4459
14110SOL    HW147015  10.949   5.000   8.035 -0.7099  1.9690  0.3181
14110SOL    HW247016  10.905   4.856   8.054  2.6094  0.6721 -1.0170
14111SOL     OW47017   6.513   2.463   5.837 -0.1074 -0.6449  0.0412
14111SOL    HW147018   6.520   2.389   5.776 -0.4146 -1.1260  0.5754
14111SOL    HW247019   6.579   2.444   5.904 -0.4315 -0.6187  0.3691
14112SOL     OW47020   6.420  10.784   7.018 -0.1630 -0.2887 -0.2350
14112SOL    HW147021   6.450  10.871   6.992  0.6678 -0.6694 -0.5867
14112SOL    HW247022   6.445  10.727   6.946 -0.1166 -0.9370  0.2817
14113SOL     OW47023   6.073   4.033   6.940 -0.1157 -0.4759  0.8406
14113SOL    HW147024   6.012   4.031   7.013 -0.1242  0.4507  0.8774
14113SOL    HW247025   6.041   3.966   6.879 -0.4241 -0.8699  1.4347
14114SOL     OW47026   4.569  11.503   0.422 -0.3682  0.8635  0.7269
14114SOL    HW147027   4.484  11.547   0.426 -1.8609 -1.4736 -1.4936
14114SOL    HW247028   4.568  11.457   0.337  2.5544 -0.3624  1.2334
14115SOL     OW47029   5.020  10.648  11.085 -0.1492 -1.2504  0.2705
14115SOL    HW147030   5.115  10.645  11.082 -0.0943 -0.1283  0.5464
14115SOL    HW247031   4.998  10.660  11.177 -0.3620  2.3644 -0.1190
14116SOL     OW47032   8.911   1.490   5.837 -0.2275  0.0481  0.4129
14116SOL    HW147033   9.002   1.504   5.814  0.2448 -1.0033  1.4997
14116SOL    HW247034   8.894   1.553   5.908  0.1993 -0.9287  1.4096
14117SOL     OW47035  10.569   3.622  11.140 -0.4504 -0.3765 -0.0407
14117SOL    HW147036  10.636   3.591  11.079 -0.1514 -1.4668  0.8130
14117SOL    HW247037  10.491   3.573  11.116 -0.7096  0.2133 -0.4291
14118SOL     OW47038   9.775   9.354   3.637 -0.3657 -0.4144  0.6168
14118SOL    HW147039   9.690   9.393   3.616 -0.5357 -0.2292  1.6315
14118SOL    HW247040   9.762   9.260   3.623 -0.9507 -0.4669  1.4365
14119SOL     OW47041   9.033   6.657   7.071 -0.1643  0.7997  0.4429
14119SOL    HW147042   9.000   6.720   7.007  0.6220  0.9914  0.2136
14119SOL    HW247043   9.128   6.663   7.063 -0.0735  0.1747  1.0008
14120SOL     OW47044  11.713   3.440   8.964 -0.6477 -0.3248 -0.0281
14120SOL    HW147045  11.771   3.366   8.982 -0.1540  0.2599  0.8590
14120SOL    HW247046  11.630   3.417   9.005 -0.1759  0.0624  1.1741
14121SOL     OW47047   1.697   5.198   9.598  0.0660  0.4565 -0.4578
14121SOL    HW147048   1.627   5.253   9.561  0.9997  0.8595 -1.6952
14121SOL    HW247049   1.652   5.141   9.660 -1.3833  0.6693 -1.2606
14122SOL     OW47050   4.124  10.123   4.905  0.4932 -0.2281  0.1477
14122SOL    HW147051   4.204  10.166   4.933  0.7808 -0.4908 -0.2523
14122SOL    HW247052   4.071  10.192   4.867  1.0637 -0.2601 -0.7353
14123SOL     OW47053   5.539   4.992  11.320 -0.7017 -0.7837  0.1942
14123SOL    HW147054   5.591   5.071  11.333  1.1011 -1.9766  0.6423
14123SOL    HW247055   5.515   4.994  11.227  0.3832 -0.3162 -0.0922
14124SOL     OW47056   8.248   9.874   8.679  0.1027  0.1933  0.2131
14124SOL    HW147057   8.341   9.866   8.701  0.3420  0.1673 -0.7377
14124SOL    HW247058   8.248   9.908   8.589 -0.7072 -3.4058 -1.3377
14125SOL     OW47059  10.040   0.827   1.967  0.0100  0.0738  0.0373
14125SOL    HW147060  10.063   0.889   1.897 -2.6166  0.8602 -0.2457
14125SOL    HW247061   9.944   0.828   1.968 -0.0434 -1.8235  2.0082
14126SOL     OW47062  10.920   6.568   9.743  0.0315 -0.0727 -0.0714
14126SOL    HW147063  10.880   6.483   9.731 -3.2378  1.1266  1.1526
14126SOL    HW247064  10.862   6.629   9.698  1.5261  1.6559  0.1985
14127SOL     OW47065   7.880   7.783   7.443 -0.3530 -0.5837  0.0652
14127SOL    HW147066   7.902   7.818   7.529  2.4678 -0.9619 -0.4041
14127SOL    HW247067   7.893   7.688   7.451  0.6153 -0.5589 -0.9065
14128SOL     OW47068   1.860   2.281   8.229 -0.3892  0.0536 -0.2270
14128SOL    HW147069   1.929   2.215   8.233  0.6749  1.1301  3.5669
14128SOL    HW247070   1.782   2.236   8.261 -0.3601 -0.0995 -0.3738
14129SOL     OW47071   1.967   1.301   5.478 -0.1860 -0.1504 -0.2788
14129SOL    HW147072   1.997   1.369   5.539  0.0666  0.7639 -1.4063
14129SOL    HW247073   1.872   1.303   5.486 -0.1398 -0.4406  0.4987
14130SOL     OW47074   0.975  11.314   2.422 -0.1440  0.6861 -0.1223
14130SOL    HW147075   1.018  11.365   2.490  0.4265  0.6829 -0.4755
14130SOL    HW247076   0.881  11.327   2.438 -0.0154  0.8766  0.5120
14131SOL     OW47077   5.854   3.402   2.702  0.2682  0.8048 -0.5729
14131SOL    HW147078   5.783   3.444   2.751 -0.9707  0.4876 -2.0137
14131SOL    HW247079   5.868   3.460   2.627  1.2433  0.6172 -0.5514
14132SOL     OW47080  10.074  10.013   1.206  0.8201 -0.4347  0.1650
14132SOL    HW147081  10.109  10.100   1.187 -0.8564  0.1606 -0.4471
14132SOL    HW247082  10.047   9.979   1.121 -2.4341  0.2876  0.7506
14133SOL     OW47083   7.230   4.377   4.069 -0.3052 -0.5891  0.0973
14133SOL    HW147084   7.287   4.448   4.100 -0.1334  0.1543 -1.8035
14133SOL    HW247085   7.262   4.299   4.115  0.0975  0.3785  1.5310
14134SOL     OW47086  10.366   3.668  10.106 -0.4111 -0.0595 -0.5901
14134SOL    HW147087  10.398   3.613  10.177 -1.1771  1.7088  1.2105
14134SOL    HW247088  10.415   3.639  10.029  0.9988 -1.5294  0.7948
14135SOL     OW47089   1.280   0.928   4.838  0.2088  0.1637 -0.6066
14135SOL    HW147090   1.281   0.875   4.918 -1.2505 -0.8649 -1.2127
14135SOL    HW247091   1.192   0.966   4.836 -0.1031 -0.5443 -2.1333
14136SOL     OW47092   8.337   2.571   5.048  0.0413  0.2543 -0.0069
14136SOL    HW147093   8.373   2.487   5.020 -1.3440 -0.9819  1.6554
14136SOL    HW247094   8.394   2.637   5.008  0.4874 -1.4171 -2.3181
14137SOL     OW47095   3.640   2.581   8.800 -0.2279 -0.0992 -0.1393
14137SOL    HW147096   3.582   2.507   8.783  0.6542 -1.1550  1.2342
14137SOL    HW247097   3.581   2.654   8.819 -1.1245 -1.0641  0.9222
14138SOL     OW47098   6.596   7.574   9.127 -0.0547  0.2816 -0.3832
14138SOL    HW147099   6.649   7.494   9.130  0.0608  0.1530 -3.1533
14138SOL    HW247100   6.657   7.641   9.098 -0.6296  0.9510 -0.0591
14139SOL     OW47101   8.255   4.236   5.399 -0.3242  0.0535 -0.2603
14139SOL    HW147102   8.183   4.266   5.343 -0.6506  0.4804  0.3715
14139SOL    HW247103   8.228   4.149   5.429 -0.6599  0.2764  0.0993
14140SOL     OW47104   9.371   4.849   3.671 -0.2066  0.1840 -0.2604
14140SOL    HW147105   9.359   4.823   3.762 -0.0440 -1.8699 -0.7927
14140SOL    HW247106   9.446   4.798   3.640  1.4257  2.7546 -0.8571
14141SOL     OW47107   3.208  11.379   6.582 -0.6130  0.7862  0.3322
14141SOL    HW147108   3.117  11.385   6.611 -0.7509  0.0897  0.0605
14141SOL    HW247109   3.207  11.417   6.493 -0.3762  2.0011  0.8214
14142SOL     OW47110   1.321   0.029   0.693 -0.7544 -0.3520  0.3541
14142SOL    HW147111   1.319   0.067   0.605  1.3902  0.8304  0.7604
14142SOL    HW247112   1.293   0.100   0.750  1.2765  0.0614  0.9173
14143SOL     OW47113   8.998   8.676  11.702  0.4310 -0.5235 -0.1110
14143SOL    HW147114   9.018   8.769  11.706 -1.6118 -0.0115 -0.9483
14143SOL    HW247115   9.034   8.647  11.618 -1.0542  0.0894 -0.9889
14144SOL     OW47116   5.532   2.840   0.530 -0.2345 -0.2788  0.5963
14144SOL    HW147117   5.525   2.935   0.536 -0.0124 -0.2645  0.6090
14144SOL    HW247118   5.562   2.812   0.616  0.2635 -0.3097  0.4144
14145SOL     OW47119   6.495  10.693   5.990  0.4019 -0.4602  0.3391
14145SOL    HW147120   6.531  10.605   5.984  0.2415 -0.4547 -1.0410
14145SOL    HW247121   6.473  10.716   5.900 -0.0277  0.7975  0.7444
14146SOL     OW47122   5.399   9.725   3.890  0.4278 -0.1711  0.0508
14146SOL    HW147123   5.363   9.665   3.955 -2.9496  1.5584 -0.0569
14146SOL    HW247124   5.457   9.782   3.941 -0.9254  0.1570  1.3088
14147SOL     OW47125   5.736   1.798   8.355 -0.4991 -0.5075 -0.0900
14147SOL    HW147126   5.773   1.886   8.363  0.6471 -0.8736 -1.0197
14147SOL    HW247127   5.683   1.787   8.434  2.7665 -0.5595  2.3107
14148SOL     OW47128   7.712   6.061   3.029 -0.1353 -0.1227 -0.8250
14148SOL    HW147129   7.750   6.016   3.104 -1.2998  0.5944  0.2267
14148SOL    HW247130   7.682   5.991   2.971  0.1138 -0.6820 -0.2856
14149SOL     OW47131   6.410   0.851   8.331 -0.3040  0.3482  0.4063
14149SOL    HW147132   6.453   0.934   8.310  0.4167 -0.2008 -0.2965
14149SOL    HW247133   6.481   0.790   8.347 -0.8320 -0.2657  0.4368
14150SOL     OW47134   8.007   2.235   2.942  0.3347 -0.1392  0.1052
14150SOL    HW147135   8.102   2.245   2.933  0.4967 -2.1419 -0.9862
14150SOL    HW247136   7.971   2.303   2.884  1.1317 -0.2555 -0.5564
14151SOL     OW47137   5.573   2.817   9.412 -0.3571 -0.1560  0.3991
14151SOL    HW147138   5.540   2.735   9.449 -0.2331 -0.2089  0.3900
14151SOL    HW247139   5.632   2.790   9.342 -0.3159 -0.0586  0.3961
14152SOL     OW47140   7.770   5.045   0.220 -1.0112  0.4586 -0.4605
14152SOL    HW147141   7.729   4.966   0.253  0.5849 -0.2407 -0.0418
14152SOL    HW247142   7.821   5.016   0.144 -1.3789  1.3142 -1.0568
14153SOL     OW47143   7.266   3.091   2.208 -0.1428  0.2652  0.0071
14153SOL    HW147144   7.274   3.135   2.123 -1.3272  0.5545  0.0366
14153SOL    HW247145   7.172   3.084   2.224 -0.0823 -2.9504 -0.3264
14154SOL     OW47146  11.495   8.260   8.890 -0.1821  0.2959  0.1305
14154SOL    HW147147  11.409   8.298   8.908 -0.6770 -0.4639 -0.5594
14154SOL    HW247148  11.550   8.291   8.962 -1.7603 -1.6616  2.3257
14155SOL     OW47149   6.517   3.769   6.539 -0.5404 -0.2144  0.1118
14155SOL    HW147150   6.596   3.822   6.528  0.2478 -1.4417 -0.3005
14155SOL    HW247151   6.520   3.706   6.468 -2.1141 -0.0398 -0.1398
14156SOL     OW47152  11.454  10.182   3.688 -0.4692 -0.0395  0.0899
14156SOL    HW147153  11.466  10.087   3.682 -1.3108 -0.0928 -1.3065
14156SOL    HW247154  11.536  10.214   3.726 -1.0663 -1.5114  2.8260
14157SOL     OW47155   8.129   1.285   8.446  0.7632  0.4685  0.4252
14157SOL    HW147156   8.094   1.248   8.365  3.7303  1.1708 -1.3607
14157SOL    HW247157   8.094   1.374   8.449  0.0794  0.2062  0.2928
14158SOL     OW47158   8.176   2.612   9.113 -0.4713 -0.1192 -1.0377
14158SOL    HW147159   8.147   2.564   9.036  0.2373  2.1842 -2.8482
14158SOL    HW247160   8.161   2.704   9.092  0.5969  0.6517  1.2055
14159SOL     OW47161   6.345   7.156   0.386 -0.0605 -0.1972  0.8851
14159SOL    HW147162   6.317   7.149   0.477 -1.6328  1.4596  0.5867
14159SOL    HW247163   6.344   7.250   0.367 -2.9323 -0.6035 -1.7306
14160SOL     OW47164   7.884   9.862   0.864  0.0221 -0.2952  0.4141
14160SOL    HW147165   7.805   9.909   0.836  0.8738 -0.3473 -2.4918
14160SOL    HW247166   7.889   9.786   0.805  2.2921 -0.2205  0.4102
14161SOL     OW47167   6.143   3.749   6.464  0.5437  0.2626  0.1115
14161SOL    HW147168   6.129   3.655   6.451 -0.2859  0.2357  1.0791
14161SOL    HW247169   6.145   3.785   6.375  3.6928 -1.0028 -0.4571
14162SOL     OW47170   5.974   4.968   4.498  0.2034  0.9197 -0.2554
14162SOL    HW147171   5.890   4.991   4.458  0.2906 -1.1759 -1.8330
14162SOL    HW247172   6.039   5.015   4.445  0.2151 -0.5892 -1.6660
14163SOL     OW47173  11.795   5.872  11.004  0.0494  0.4035 -0.6069
14163SOL    HW147174  11.800   5.816  10.926  1.6329  1.4903 -1.3524
14163SOL    HW247175  11.781   5.960  10.968 -0.2297  0.7838  0.4152
14164SOL     OW47176  11.244   2.889  10.492  0.4681 -0.3628 -0.3604
14164SOL    HW147177  11.317   2.833  10.465  1.5728  0.2123  1.2169
14164SOL    HW247178  11.250   2.890  10.588 -0.1505  1.5782 -0.2974
14165SOL     OW47179   3.257   8.613   9.047 -0.0891  0.0597 -0.5570
14165SOL    HW147180   3.175   8.564   9.047  0.0750 -0.2528  0.9042
14165SOL    HW247181   3.269   8.639   9.138  0.4456  1.8013 -1.0986
14166SOL     OW47182   1.857   3.871   0.167 -0.3493  0.7240  0.6346
14166SOL    HW147183   1.799   3.876   0.243 -1.5264 -0.0091 -0.1770
14166SOL    HW247184   1.803   3.901   0.094 -0.1355 -1.1144 -0.3449
14167SOL     OW47185   9.197   2.610   7.238  0.1923  0.8083 -0.0903
14167SOL    HW147186   9.292   2.603   7.245  0.2434  0.5481 -0.8919
14167SOL    HW247187   9.181   2.634   7.147 -0.5448 -0.1719 -0.2438
14168SOL     OW47188  11.463   0.946   7.589 -0.0304  0.2656  0.2471
14168SOL    HW147189  11.385   0.919   7.540 -1.1815  2.4498  0.7304
14168SOL    HW247190  11.521   0.870   7.585 -1.1834 -0.6105 -2.1634
14169SOL     OW47191   0.750   1.953   8.607 -0.0141  0.3622 -0.1592
14169SOL    HW147192   0.658   1.957   8.633 -0.6799 -2.7236 -1.5952
14169SOL    HW247193   0.749   1.953   8.512  1.5865  1.3067 -0.2108
14170SOL     OW47194   9.992   3.260   0.631 -0.1252  0.3386  0.5207
14170SOL    HW147195  10.020   3.342   0.671  0.1131 -0.6536  2.5235
14170SOL    HW247196  10.072   3.225   0.591 -0.6548  2.0293 -2.3397
14171SOL     OW47197   0.220  11.737   5.438 -0.2196 -0.1032 -0.0661
14171SOL    HW147198   0.263  11.662   5.396  0.0558 -0.3605  0.6615
14171SOL    HW247199   0.234  11.809   5.377 -0.1515 -0.5517 -0.5953
14172SOL     OW47200  10.072  10.844   9.865  0.1845  0.1331  0.2686
14172SOL    HW147201  10.119  10.763   9.844 -0.5328 -0.3234  0.3819
14172SOL    HW247202   9.992  10.839   9.813  0.0591  0.6904  0.4069
14173SOL     OW47203   2.661   3.087   9.984 -0.4075 -0.0717 -0.2996
14173SOL    HW147204   2.637   3.077   9.892 -0.0354  0.9761 -0.5268
14173SOL    HW247205   2.581   3.116  10.027 -0.5730 -0.5289 -0.2921
14174SOL     OW47206   3.840   2.035  11.173 -0.7643 -0.4294  0.3655
14174SOL    HW147207   3.779   1.963  11.159 -1.2178 -0.5309  2.4781
14174SOL    HW247208   3.924   1.993  11.190 -1.3741 -0.6319  3.3052
14175SOL     OW47209   9.177   0.493  11.045  0.4809 -0.0755 -0.1844
14175SOL    HW147210   9.226   0.549  11.106  2.7701 -0.9224 -1.1290
14175SOL    HW247211   9.114   0.552  11.004  1.6172  1.4342  0.1322
14176SOL     OW47212  11.087   5.042   1.445  0.4022 -0.2985 -0.4344
14176SOL    HW147213  11.066   5.124   1.402  0.1290 -0.5038 -0.7004
14176SOL    HW247214  11.134   4.991   1.379 -1.1345 -1.1245 -0.9572
14177SOL     OW47215   7.569  11.720   1.104  0.0958 -0.3493 -0.0394
14177SOL    HW147216   7.580  11.796   1.160 -3.2159  1.3425 -1.4192
14177SOL    HW247217   7.532  11.653   1.161  1.5102 -0.4524  0.8164
14178SOL     OW47218   6.923  10.121   0.281 -0.3976 -0.0986 -0.1477
14178SOL    HW147219   6.871  10.052   0.240 -0.1406 -0.6521  0.4454
14178SOL    HW247220   6.993  10.074   0.328 -1.6648  0.3790  2.3933
14179SOL     OW47221   4.627   2.952   3.674 -0.2530  0.2464  0.5818
14179SOL    HW147222   4.710   3.000   3.682 -0.8180  1.2336  0.6932
14179SOL    HW247223   4.619   2.935   3.580  1.7357 -2.9436  0.8557
14180SOL     OW47224   2.965   1.042   2.322 -0.0164  0.1800 -0.3143
14180SOL    HW147225   3.001   1.124   2.288 -1.8176  1.0219 -0.2994
14180SOL    HW247226   2.895   1.019   2.261 -0.7483 -0.3358  0.6955
14181SOL     OW47227   4.696   6.198   3.024  0.3946 -0.6314  0.1701
14181SOL    HW147228   4.739   6.168   2.944 -1.0945 -0.4548 -0.7463
14181SOL    HW247229   4.765   6.240   3.075  1.8392 -2.6488 -0.0138
14182SOL     OW47230   7.059   0.422   8.296 -0.1800  0.2697 -0.4879
14182SOL    HW147231   6.984   0.449   8.349 -0.5890 -1.4273 -0.1247
14182SOL    HW247232   7.129   0.407   8.360  0.4212  1.5860 -0.8013
14183SOL     OW47233   1.910   7.036   1.539  0.2761 -0.5509 -0.1954
14183SOL    HW147234   1.878   6.945   1.537  0.4958 -0.6304 -0.0888
14183SOL    HW247235   1.951   7.045   1.624 -2.2881  0.5361  1.0256
14184SOL     OW47236   7.825   6.675  11.448  0.0597  0.0128  0.1973
14184SOL    HW147237   7.844   6.766  11.472  2.0997 -0.2284 -0.3188
14184SOL    HW247238   7.737   6.678  11.411  0.6109  2.0541 -1.1348
14185SOL     OW47239   2.812  10.539   2.753  0.3913  0.2232 -0.1968
14185SOL    HW147240   2.827  10.460   2.701  1.9781  0.0793  0.4226
14185SOL    HW247241   2.748  10.512   2.818  1.8660 -0.9916  0.8370
14186SOL     OW47242   7.820   2.871   9.614  0.7932 -0.1583 -0.2804
14186SOL    HW147243   7.751   2.822   9.658  1.1957 -1.1779 -0.7517
14186SOL    HW247244   7.832   2.826   9.530  2.5853 -0.5021  0.1217
14187SOL     OW47245  10.850   8.485   3.727 -0.3525  0.0761 -0.2684
14187SOL    HW147246  10.839   8.554   3.792  1.0083  0.3390 -0.2776
14187SOL    HW247247  10.805   8.409   3.763  0.1272  0.3088  0.8424
14188SOL     OW47248   9.196   6.358   7.034  0.1265 -0.4415  0.2184
14188SOL    HW147249   9.200   6.404   6.951  0.3361  0.1903  0.5741
14188SOL    HW247250   9.118   6.303   7.028  0.1342 -0.3895 -0.3825
14189SOL     OW47251   1.106   3.709   6.619  0.3078 -0.3564  0.5695
14189SOL    HW147252   1.196   3.675   6.618  0.6174  0.4558 -0.2038
14189SOL    HW247253   1.056   3.641   6.665  1.3602 -0.6887  1.2855
14190SOL     OW47254   4.815   3.211   9.626  0.7393  0.4047 -0.2189
14190SOL    HW147255   4.850   3.268   9.694  3.1343  0.4273 -1.3717
14190SOL    HW247256   4.837   3.123   9.655 -1.9362  0.0174  0.9872
14191SOL     OW47257   4.664   7.593   3.180 -0.2428 -0.3601  0.4892
14191SOL    HW147258   4.702   7.625   3.099 -0.3907  0.0963  0.5974
14191SOL    HW247259   4.595   7.656   3.201  0.6151  0.2424  1.6361
14192SOL     OW47260   4.625   1.386   3.370 -0.1147 -0.3056  0.1561
14192SOL    HW147261   4.587   1.303   3.399  0.6166 -0.1077  1.8105
14192SOL    HW247262   4.687   1.362   3.302  0.3618 -1.1754  0.8730
14193SOL     OW47263   8.337   1.123   5.611  0.5796 -0.5209  0.0820
14193SOL    HW147264   8.365   1.214   5.623  1.0515 -0.8653  1.8534
14193SOL    HW247265   8.397   1.088   5.546  2.1022 -0.2736  1.3034
14194SOL     OW47266   1.901   3.289  11.738 -0.1345 -0.3092 -0.4300
14194SOL    HW147267   1.908   3.316  11.646  0.1169  0.7800 -0.1033
14194SOL    HW247268   1.901   3.371  11.787  1.0827 -0.9314  0.6467
14195SOL     OW47269   4.124   4.296  11.368  0.6152 -0.0189 -0.0660
14195SOL    HW147270   4.074   4.376  11.386  1.4249  0.3794  0.5158
14195SOL    HW247271   4.104   4.275  11.277  0.0017  0.5681 -0.0727
14196SOL     OW47272   8.610  10.338   9.567 -0.4536  0.5469 -1.1319
14196SOL    HW147273   8.637  10.260   9.616 -1.4690  0.5093 -0.5954
14196SOL    HW247274   8.561  10.391   9.631  0.9186  2.0386 -1.2534
14197SOL     OW47275   9.436   8.823  11.352 -0.7415  0.6102 -0.3817
14197SOL    HW147276   9.490   8.901  11.363 -1.8955  1.5416 -1.0976
14197SOL    HW247277   9.495   8.759  11.310  0.9144  0.2145  2.2750
14198SOL     OW47278   2.414   4.004   8.261 -0.0965  0.3140  0.7318
14198SOL    HW147279   2.373   4.083   8.223 -0.3466 -0.6303 -1.1034
14198SOL    HW247280   2.503   4.004   8.226  0.6709  0.9363  2.5640
14199SOL     OW47281   9.611   3.119   9.940 -0.1343  0.3481 -0.5656
14199SOL    HW147282   9.605   3.094  10.032 -0.0355 -0.7571 -0.8441
14199SOL    HW247283   9.533   3.079   9.900  1.1875 -1.5041 -1.4513
14200SOL     OW47284  10.229   0.823   2.541 -0.7600  0.2686  0.2774
14200SOL    HW147285  10.293   0.753   2.527 -0.0844  0.8995  0.1088
14200SOL    HW247286  10.220   0.829   2.636  0.1232  0.7616  0.3456
14201SOL     OW47287  10.774   4.691   3.742 -0.8950 -0.3749  0.2883
14201SOL    HW147288  10.829   4.665   3.668  0.1600 -1.5311  1.4189
14201SOL    HW247289  10.835   4.729   3.805 -1.7710  0.5580  0.6000
14202SOL     OW47290   7.953   5.272   0.906 -0.9912 -0.2112 -0.3099
14202SOL    HW147291   8.008   5.337   0.863 -1.1339  0.2732  0.2215
14202SOL    HW247292   7.868   5.280   0.864 -0.4933 -1.4718 -1.6467
14203SOL     OW47293   4.511   8.283   0.332 -0.4099  0.2698 -0.0184
14203SOL    HW147294   4.508   8.321   0.420  1.0313 -0.7281  0.4879
14203SOL    HW247295   4.453   8.339   0.280 -1.0030  1.0924  1.4694
14204SOL     OW47296   2.044   1.282   8.584 -0.0276  1.0333  0.5227
14204SOL    HW147297   2.062   1.309   8.674  0.5909  0.6265  0.5247
14204SOL    HW247298   2.121   1.231   8.558 -0.6078  0.3525  0.0888
14205SOL     OW47299   7.566   5.870   7.941 -0.1280 -0.1383  0.0232
14205SOL    HW147300   7.559   5.899   8.032 -0.9803 -1.1363  0.2879
14205SOL    HW247301   7.610   5.785   7.946 -0.2802 -0.2498 -0.4879
14206SOL     OW47302   1.032   7.430   7.365  0.2028  0.6600 -0.6823
14206SOL    HW147303   0.993   7.376   7.297  0.5941  1.0966 -1.2652
14206SOL    HW247304   1.016   7.382   7.446  1.8009 -1.0916 -1.3317
14207SOL     OW47305   1.932   6.884   4.518 -0.0922  0.3490  0.1910
14207SOL    HW147306   1.886   6.819   4.571 -0.2128 -1.1791 -1.6438
14207SOL    HW247307   2.016   6.844   4.498  0.2286  1.1843 -0.1790
14208SOL     OW47308  10.617   3.483   8.671  0.2321  0.1509 -0.3892
14208SOL    HW147309  10.606   3.579   8.673 -0.1671  0.1348 -1.3066
14208SOL    HW247310  10.691   3.466   8.730  1.0055  1.1298 -1.0396
14209SOL     OW47311   0.919   6.774   7.725 -0.1900  0.2686  0.2494
14209SOL    HW147312   0.867   6.735   7.655 -1.4694  0.3025  1.1447
14209SOL    HW247313   0.854   6.809   7.786  0.8593 -0.7928  2.0398
14210SOL     OW47314   7.459   6.875   7.966 -0.0603  0.7507  0.1376
14210SOL    HW147315   7.431   6.875   8.057  0.4221 -0.2369  0.2963
14210SOL    HW247316   7.398   6.934   7.922 -0.9306  0.4310  0.9015
14211SOL     OW47317   3.107  10.404   8.122 -0.1134 -1.0774  0.4017
14211SOL    HW147318   3.041  10.376   8.059  0.1603  0.4465 -0.6389
14211SOL    HW247319   3.056  10.444   8.193 -0.3738 -0.8963  0.1222
14212SOL     OW47320   8.211   6.724   1.902  0.0840 -0.3572  0.3091
14212SOL    HW147321   8.257   6.703   1.821  1.3306  0.1408  0.8679
14212SOL    HW247322   8.279   6.723   1.970 -1.0117 -1.2976  1.4606
14213SOL     OW47323   1.684   6.471   7.283 -0.6244  0.1185  0.0643
14213SOL    HW147324   1.598   6.496   7.248 -0.4314  0.6619 -0.0350
14213SOL    HW247325   1.692   6.378   7.263 -0.9633  0.1844 -0.4024
14214SOL     OW47326   5.446   1.600   4.098  0.0822 -0.2810  0.0519
14214SOL    HW147327   5.454   1.625   4.006  2.0555  0.2943  0.3336
14214SOL    HW247328   5.535   1.610   4.133 -0.3046 -1.9681  1.6508
14215SOL     OW47329   8.073   3.184   9.285  0.3884  0.1285 -0.1996
14215SOL    HW147330   8.058   3.233   9.366 -0.1090 -0.7258  0.2373
14215SOL    HW247331   8.011   3.222   9.223 -1.9410 -1.6097  0.8664
14216SOL     OW47332   5.629   5.920   8.372  0.1437  0.7907  0.1562
14216SOL    HW147333   5.568   5.908   8.299  1.6871 -0.8559 -0.9802
14216SOL    HW247334   5.579   5.897   8.450 -0.5240 -1.3169 -0.8120
14217SOL     OW47335  11.144   6.549   2.811  0.0153 -0.5058  0.5641
14217SOL    HW147336  11.199   6.618   2.848 -0.3860  0.1891 -0.0949
14217SOL    HW247337  11.055   6.571   2.838  0.0778 -1.8994  2.0417
14218SOL     OW47338   7.741   2.567   8.993 -0.2410  0.2067 -0.3978
14218SOL    HW147339   7.758   2.589   9.085  0.6638  0.8306 -0.7115
14218SOL    HW247340   7.826   2.575   8.950 -0.6251 -0.2707 -1.2583
14219SOL     OW47341  11.885   0.519   7.268 -0.0394 -0.1742 -0.3167
14219SOL    HW147342  11.851   0.483   7.350 -0.1427 -2.1314 -1.1625
14219SOL    HW247343  11.812   0.567   7.230 -0.3794 -0.3307  0.1428
14220SOL     OW47344  10.075   0.805   6.001  0.2970 -0.2283 -0.0378
14220SOL    HW147345  10.107   0.729   5.953  0.5114 -0.6359  0.7448
14220SOL    HW247346   9.983   0.814   5.973  0.2483 -0.8206 -0.0758
14221SOL     OW47347   9.610   3.991   5.904  0.8495 -0.2195  0.4437
14221SOL    HW147348   9.579   3.979   5.814 -0.7444  2.1543  0.5695
14221SOL    HW247349   9.654   3.909   5.926 -0.1785 -1.4951 -1.9079
14222SOL     OW47350   8.731   5.946   1.535  0.6098 -0.3856 -0.6483
14222SOL    HW147351   8.664   5.951   1.467  0.4813 -0.3414 -0.5184
14222SOL    HW247352   8.734   6.034   1.572  0.3508 -0.5295 -0.2804
14223SOL     OW47353   7.267   1.252   4.036  0.3151 -0.5227  0.4426
14223SOL    HW147354   7.189   1.304   4.057  0.6694  0.6833 -1.0968
14223SOL    HW247355   7.243   1.204   3.957  2.1438  2.4595 -2.1413
14224SOL     OW47356   2.274   0.305   6.387  0.6549  0.0757 -0.1729
14224SOL    HW147357   2.229   0.378   6.430  2.6160  1.7635 -0.8461
14224SOL    HW247358   2.367   0.323   6.399  1.2148 -1.5643 -1.5973
14225SOL     OW47359   2.538  11.648   2.523  0.1123 -0.0050 -0.7555
14225SOL    HW147360   2.516  11.564   2.563  0.6691  0.2921  0.2110
14225SOL    HW247361   2.453  11.687   2.502 -0.2638  0.1953  0.9585
14226SOL     OW47362  11.223   2.784   4.006  0.2737 -0.2215 -0.3298
14226SOL    HW147363  11.143   2.797   4.057 -0.1190 -0.3378 -0.9195
14226SOL    HW247364  11.196   2.734   3.929  1.0610 -1.0271 -0.1087
14227SOL     OW47365   0.215   6.753   9.119 -0.1940  0.0100  0.2466
14227SOL    HW147366   0.199   6.747   9.214 -2.4593 -0.6241 -0.1324
14227SOL    HW247367   0.230   6.846   9.104 -1.8709  0.4369  0.9712
14228SOL     OW47368   9.186  11.417   0.168 -0.2667  0.0621  0.6691
14228SOL    HW147369   9.243  11.353   0.211  0.2629  1.9815  3.0439
14228SOL    HW247370   9.247  11.471   0.116 -0.4628 -0.1655  0.1924
14229SOL     OW47371   1.103   0.904   9.695 -0.1772 -0.6110  0.1107
14229SOL    HW147372   1.136   0.979   9.744 -0.9882 -0.7586  0.9036
14229SOL    HW247373   1.008   0.915   9.694 -0.1842 -0.3355 -1.9138
14230SOL     OW47374   0.288   3.993   6.122 -0.2786 -0.2869 -0.1325
14230SOL    HW147375   0.305   3.909   6.079  0.9295  0.5738 -1.4126
14230SOL    HW247376   0.363   4.006   6.181  0.5139  0.7114 -1.3081
14231SOL     OW47377   9.731   7.697   6.854  0.6377 -0.1863  0.1367
14231SOL    HW147378   9.785   7.758   6.905 -2.4615  3.6219 -0.6329
14231SOL    HW247379   9.685   7.645   6.920 -0.5478  2.0752  1.1862
14232SOL     OW47380  10.327   0.384   3.802 -0.7738 -0.3241  0.3504
14232SOL    HW147381  10.315   0.386   3.897  0.6138  0.4922  0.5331
14232SOL    HW247382  10.243   0.352   3.768 -1.7472  0.5959  1.7609
14233SOL     OW47383   3.507   7.920  10.242  0.6218 -0.5261 -0.1338
14233SOL    HW147384   3.430   7.956  10.287  0.6846  0.5123 -0.8294
14233SOL    HW247385   3.581   7.948  10.295  0.5681 -0.9859  0.1880
14234SOL     OW47386   9.340   4.078   2.364  0.4742 -0.2651  0.1390
14234SOL    HW147387   9.282   4.153   2.370  0.9760  0.0869  0.8727
14234SOL    HW247388   9.350   4.061   2.271 -0.2281  0.1161 -0.0055
14235SOL     OW47389   8.996   1.600   0.064  0.2422 -0.2238 -0.1532
14235SOL    HW147390   8.918   1.653   0.050 -0.0936 -0.9676 -1.2275
14235SOL    HW247391   8.963   1.511   0.074  1.0036 -0.7638 -2.0336
14236SOL     OW47392   4.961  10.358   5.716  0.7062 -0.5889 -0.1980
14236SOL    HW147393   4.973  10.397   5.803  3.6521  0.2386 -0.8316
14236SOL    HW247394   4.968  10.432   5.656 -3.3947 -0.8096 -1.2186
14237SOL     OW47395   2.852   7.232  11.052 -0.0547  0.3451 -0.1054
14237SOL    HW147396   2.888   7.166  10.993  0.9994  1.3740 -0.6306
14237SOL    HW247397   2.908   7.228  11.129 -1.1026 -0.6156  0.6517
14238SOL     OW47398   1.766   4.593   8.550 -1.1255  0.6703  0.0367
14238SOL    HW147399   1.783   4.687   8.549 -0.8694  0.6958  2.0764
14238SOL    HW247400   1.779   4.567   8.641  0.8382 -1.7341 -0.8009
14239SOL     OW47401   1.227   9.781   6.236  0.1261  0.5283 -0.1879
14239SOL    HW147402   1.155   9.770   6.298 -0.8715 -0.8788 -1.5045
14239SOL    HW247403   1.288   9.710   6.257 -0.4350 -0.2373 -1.0489
14240SOL     OW47404   9.122   4.291   6.574  0.3486 -0.2085  0.2467
14240SOL    HW147405   9.097   4.304   6.665 -0.4976 -1.1419  0.1700
14240SOL    HW247406   9.040   4.268   6.530  0.7574  0.1713 -0.7346
14241SOL     OW47407   1.704   6.386  10.310 -0.1562  0.3362 -0.1934
14241SOL    HW147408   1.626   6.362  10.259 -0.8496  0.4685  0.7655
14241SOL    HW247409   1.716   6.479  10.293 -0.4062  0.3870 -0.1067
14242SOL     OW47410  10.385   1.541   7.510 -0.0734 -0.0709  0.0579
14242SOL    HW147411  10.458   1.591   7.474 -0.7314  0.7933 -0.1002
14242SOL    HW247412  10.426   1.461   7.544  1.0135  0.5839  0.3674
14243SOL     OW47413   5.549   0.779   9.016  0.7008 -0.3560  0.6891
14243SOL    HW147414   5.523   0.834   8.942 -3.7103 -1.1024  1.4187
14243SOL    HW247415   5.559   0.692   8.978  0.4086 -0.3683  0.6357
14244SOL     OW47416   9.371   1.136   7.721 -0.6014 -0.1316  0.2691
14244SOL    HW147417   9.315   1.204   7.682 -2.2286 -1.1824  0.6718
14244SOL    HW247418   9.457   1.176   7.726 -1.3974  1.7259  0.0017
14245SOL     OW47419   8.596   6.590   3.259  0.3999 -0.4132 -0.1229
14245SOL    HW147420   8.672   6.553   3.302  0.9511 -0.8183 -1.4194
14245SOL    HW247421   8.521   6.547   3.300  0.7962  0.4601  1.6166
14246SOL     OW47422  11.576   3.377   2.422 -0.2642 -0.1036  0.0814
14246SOL    HW147423  11.639   3.316   2.383 -0.0162  0.2835 -0.1296
14246SOL    HW247424  11.575   3.452   2.362 -0.1815  0.3190  0.6001
14247SOL     OW47425   2.827   3.887   3.177 -0.4040 -0.1033  0.3914
14247SOL    HW147426   2.835   3.793   3.194  0.9807  0.1356  1.2488
14247SOL    HW247427   2.769   3.919   3.246 -0.1768 -0.1940  0.6269
14248SOL     OW47428  10.419   3.075   8.907  0.0111  0.1806  0.8111
14248SOL    HW147429  10.330   3.051   8.933 -0.1747  1.4760  1.4848
14248SOL    HW247430  10.464   3.091   8.990  0.3696  1.1878  0.4375
14249SOL     OW47431   6.434   7.761   2.226 -0.3189  0.1926 -0.0285
14249SOL    HW147432   6.482   7.774   2.309 -2.1809 -0.6284  1.2397
14249SOL    HW247433   6.500   7.777   2.158  0.9842  2.1110  1.5643
14250SOL     OW47434  11.570   1.512   4.317 -0.4755 -0.4460  0.3305
14250SOL    HW147435  11.539   1.442   4.260 -0.6355  0.3139 -0.5408
14250SOL    HW247436  11.531   1.591   4.281  0.3908  0.2004  0.7780
14251SOL     OW47437   3.607  10.452   5.602 -0.4406  0.3125 -0.3127
14251SOL    HW147438   3.643  10.453   5.513 -1.8870 -0.5636 -0.9492
14251SOL    HW247439   3.576  10.541   5.616  0.4885  0.6605 -0.3616
14252SOL     OW47440   1.414   5.653   9.220  0.0795 -0.3717 -0.2099
14252SOL    HW147441   1.400   5.565   9.184 -1.0422 -0.1324 -0.3925
14252SOL    HW247442   1.468   5.698   9.154  1.1650 -1.0866  0.1575
14253SOL     OW47443   8.460  11.430   2.032  0.0483 -0.1488 -0.4049
14253SOL    HW147444   8.540  11.469   1.998  0.1455  2.0524  2.0470
14253SOL    HW247445   8.478  11.412   2.124 -2.4577  1.1977  0.4661
14254SOL     OW47446  10.493   9.727  10.214 -0.0391  0.3643 -0.0060
14254SOL    HW147447  10.561   9.745  10.279  0.3931  1.0892 -0.6536
14254SOL    HW247448  10.474   9.812  10.174 -2.2319  0.4233  1.0262
14255SOL     OW47449   5.855   8.251   5.533 -0.0996  0.1169 -0.0032
14255SOL    HW147450   5.868   8.298   5.451  2.1567  0.6125  0.5737
14255SOL    HW247451   5.942   8.222   5.558 -1.0336 -1.9809  1.1053
14256SOL     OW47452   7.885   7.301   0.960  0.4135 -0.1209 -0.4411
14256SOL    HW147453   7.861   7.248   1.036  0.4595 -0.4386 -0.6469
14256SOL    HW247454   7.951   7.362   0.993  0.4734 -0.2959 -0.2387
14257SOL     OW47455   8.583   8.533   1.345 -0.2015 -0.3721 -0.0434
14257SOL    HW147456   8.561   8.444   1.375  0.7025 -1.4325 -2.3209
14257SOL    HW247457   8.567   8.531   1.251  0.6222  1.6561 -0.2683
14258SOL     OW47458   1.293   2.216   9.354 -0.0372  0.2863 -0.5008
14258SOL    HW147459   1.228   2.240   9.421 -0.1268  1.2528 -0.9137
14258SOL    HW247460   1.370   2.267   9.378  0.5290 -0.7507 -0.0965
14259SOL     OW47461   1.208   1.708   3.033 -0.2752  0.1374 -0.1166
14259SOL    HW147462   1.302   1.692   3.025 -0.0957 -1.0645  2.9807
14259SOL    HW247463   1.201   1.802   3.045  0.6616  0.1171  0.7062
14260SOL     OW47464   1.503   5.139   3.469  0.2617  0.0708 -0.3446
14260SOL    HW147465   1.426   5.152   3.525  0.3205 -1.0711  0.0294
14260SOL    HW247466   1.484   5.059   3.420  0.1825  1.1042 -2.0501
14261SOL     OW47467  11.471   9.777   4.030 -0.3502 -0.3487 -0.0665
14261SOL    HW147468  11.419   9.857   4.023 -1.9009 -1.4346 -1.8803
14261SOL    HW247469  11.435   9.731   4.106 -2.6166 -1.3879 -1.6643
14262SOL     OW47470   6.044   8.738  11.443  0.0589 -0.2050  0.5850
14262SOL    HW147471   6.033   8.745  11.538  2.1620 -0.6395  0.9039
14262SOL    HW247472   6.134   8.707  11.431 -0.0933  0.0251 -1.5681
14263SOL     OW47473   1.520   1.116   4.670  0.4513  0.1043 -0.1114
14263SOL    HW147474   1.561   1.038   4.709 -1.3573 -0.3079  1.1193
14263SOL    HW247475   1.563   1.190   4.714  0.8186 -0.2603  0.1545
14264SOL     OW47476  11.086   4.154   1.916  0.3795  0.0377 -0.4799
14264SOL    HW147477  11.168   4.192   1.949 -0.8843  1.0931  1.6585
14264SOL    HW247478  11.066   4.084   1.977 -0.9987  0.7010 -0.1402
14265SOL     OW47479  11.411  10.956   7.973  0.0373 -0.5301 -0.1350
14265SOL    HW147480  11.317  10.944   7.987 -0.0754  1.0427  0.6484
14265SOL    HW247481  11.420  11.048   7.949  1.5393 -0.1969  1.5532
14266SOL     OW47482   8.545  11.909   1.720 -0.1612 -0.6111  0.3117
14266SOL    HW147483   8.575  11.936   1.634  2.8284 -0.2439  1.3529
14266SOL    HW247484   8.511  11.989   1.760 -0.9760 -0.6560 -0.2615
14267SOL     OW47485   9.781   5.035   1.207 -0.3452 -0.0333  0.2080
14267SOL    HW147486   9.755   5.041   1.298 -1.0553  2.3140 -0.0933
14267SOL    HW247487   9.707   4.995   1.163  0.6301 -2.7290  0.8315
14268SOL     OW47488   3.941   6.779   9.380 -0.2232  0.1339  0.0322
14268SOL    HW147489   3.869   6.800   9.439 -0.1261  1.8267 -0.4091
14268SOL    HW247490   3.938   6.848   9.313  2.2858  0.7214  0.4291
14269SOL     OW47491   5.895  11.916  10.723 -0.0268  0.2494  0.1667
14269SOL    HW147492   5.928  11.996  10.682 -0.2282 -0.2819 -1.0843
14269SOL    HW247493   5.891  11.853  10.651  1.2755 -1.2492  1.3717
14270SOL     OW47494  11.962   6.750  10.186  0.4331 -0.4613  0.4575
14270SOL    HW147495  11.909   6.727  10.109  1.0264 -0.3569  0.0190
14270SOL    HW247496  12.052   6.750  10.155  0.7542 -1.2217  1.3416
14271SOL     OW47497   4.804   2.212   4.433  0.3950 -0.4033 -0.4843
14271SOL    HW147498   4.851   2.173   4.360 -0.5413 -1.6069 -0.4742
14271SOL    HW247499   4.814   2.149   4.505 -0.1862 -0.0843 -0.1158
14272SOL     OW47500   1.805   9.135  11.295  0.2428  0.0812  0.0414
14272SOL    HW147501   1.746   9.209  11.308 -0.6400 -0.8565  1.6570
14272SOL    HW247502   1.762   9.082  11.228 -0.5676 -0.3656  0.8855
14273SOL     OW47503   6.599   5.739   4.932  0.0658  0.6046 -0.2456
14273SOL    HW147504   6.694   5.735   4.933  0.0466 -0.8042  1.7791
14273SOL    HW247505   6.571   5.648   4.930 -1.2671  0.9924 -0.9284
14274SOL     OW47506   8.093  10.617   9.934 -0.0699  0.0152 -0.1295
14274SOL    HW147507   8.134  10.699   9.964 -0.7467  0.5867 -0.7208
14274SOL    HW247508   8.165  10.555   9.928  0.4777  0.6046  0.2303
14275SOL     OW47509   0.261   1.969   1.483  0.3254  0.1938  0.0590
14275SOL    HW147510   0.309   1.967   1.566 -0.7526  0.3862  0.7050
14275SOL    HW247511   0.312   1.914   1.424  0.9157 -0.2363  0.9587
14276SOL     OW47512   0.739   1.179  10.213  0.3745 -0.0614 -0.0235
14276SOL    HW147513   0.729   1.220  10.299 -0.3254  0.5752 -0.3924
14276SOL    HW247514   0.712   1.088  10.226 -3.5689  0.8954 -0.3392
14277SOL     OW47515  10.028  11.759  11.181 -0.2185 -0.0765  0.1178
14277SOL    HW147516  10.119  11.788  11.173 -0.3989  0.3888 -0.2938
14277SOL    HW247517   9.977  11.828  11.139 -0.6968 -0.7861 -0.5020
14278SOL     OW47518   5.480   3.176   8.113 -0.1501 -0.0012  0.0040
14278SOL    HW147519   5.417   3.206   8.048  0.4133 -0.4173 -0.7512
14278SOL    HW247520   5.470   3.236   8.187  0.1441  1.3101 -1.0015
14279SOL     OW47521   0.500   0.270   5.771 -0.0605  0.8666  0.0784
14279SOL    HW147522   0.562   0.334   5.737  0.5101  0.9521  1.2391
14279SOL    HW247523   0.467   0.310   5.852 -0.7005  0.2755  0.1169
14280SOL     OW47524   7.144   6.146   4.513 -0.0524 -0.5918  0.0848
14280SOL    HW147525   7.126   6.128   4.420 -0.1903  2.4239 -0.5768
14280SOL    HW247526   7.224   6.097   4.531 -1.9666 -4.3191 -0.4352
14281SOL     OW47527   3.416   5.111   4.377  0.3302  0.0467 -0.1171
14281SOL    HW147528   3.458   5.098   4.462  0.7251  0.5880 -0.2191
14281SOL    HW247529   3.360   5.035   4.366  1.0259 -0.5251  0.1911
14282SOL     OW47530   3.254   1.457   6.751  0.1068  0.4075 -0.1769
14282SOL    HW147531   3.271   1.518   6.822  2.6075 -2.6273  2.1158
14282SOL    HW247532   3.192   1.394   6.787 -0.5520  0.1898 -1.6086
14283SOL     OW47533   2.227   9.982   1.400 -0.4999 -0.0415  0.2492
14283SOL    HW147534   2.314   9.969   1.437 -1.4728 -0.7998  2.4215
14283SOL    HW247535   2.175  10.017   1.472 -1.8503  1.0552 -1.1977
14284SOL     OW47536   7.995   0.959   3.615  0.3878  0.0220  0.2579
14284SOL    HW147537   7.929   1.025   3.593 -0.1563 -0.3602  0.7189
14284SOL    HW247538   7.946   0.876   3.613  0.9557 -0.3132  0.1719
14285SOL     OW47539   2.399   2.627   3.878 -0.3714 -0.0548  0.0504
14285SOL    HW147540   2.376   2.671   3.960 -0.5800 -1.8092  0.9671
14285SOL    HW247541   2.317   2.622   3.830 -1.0905 -2.2565  1.3600
14286SOL     OW47542  11.995   7.158  11.523 -0.1369  0.7121 -0.0051
14286SOL    HW147543  11.914   7.111  11.506 -0.7783  0.0480  3.8981
14286SOL    HW247544  11.969   7.248  11.539  0.3080  1.1096 -1.3722
14287SOL     OW47545   2.923  10.500   3.553 -0.0085  0.0575  0.1367
14287SOL    HW147546   2.861  10.572   3.565  1.1776  1.0520  0.5964
14287SOL    HW247547   2.870  10.427   3.520 -1.2053  1.2138 -0.5907
14288SOL     OW47548   3.713   4.209  10.757 -0.2694  1.0493 -0.1280
14288SOL    HW147549   3.746   4.120  10.766  0.5087  1.3042 -0.3817
14288SOL    HW247550   3.622   4.198  10.732  0.0269  0.3142 -0.9474
14289SOL     OW47551   9.641   4.426   4.397 -0.6441  0.2008 -0.1597
14289SOL    HW147552   9.707   4.370   4.438 -0.6121 -0.3298 -0.9293
14289SOL    HW247553   9.603   4.475   4.470 -1.8709 -2.0187  0.7899
14290SOL     OW47554   3.905   4.722   0.896 -0.8088 -0.0691  0.0685
14290SOL    HW147555   3.956   4.642   0.911  0.3206  0.4133 -1.1005
14290SOL    HW247556   3.834   4.695   0.837 -1.0617 -0.4184  0.5216
14291SOL     OW47557   8.347   6.940   1.088 -0.1133 -0.2062  0.0988
14291SOL    HW147558   8.279   7.001   1.117 -0.2516 -0.3446  0.0680
14291SOL    HW247559   8.299   6.860   1.067 -0.0338 -0.0695 -0.6364
14292SOL     OW47560   9.589   4.017   7.303 -0.1339  0.1159  0.5819
14292SOL    HW147561   9.659   4.064   7.347 -0.0716  1.5477 -0.9536
14292SOL    HW247562   9.517   4.079   7.299 -0.9836 -0.8216  0.7741
14293SOL     OW47563  10.654   2.262   7.970  0.2345 -0.2038 -0.1413
14293SOL    HW147564  10.710   2.231   7.898 -0.1242  1.6536 -1.3094
14293SOL    HW247565  10.565   2.255   7.935  0.0456  0.5416  0.1698
14294SOL     OW47566   4.581   8.542   8.459 -0.1550 -0.0503  0.0687
14294SOL    HW147567   4.514   8.606   8.435 -1.8087 -1.7357 -0.0464
14294SOL    HW247568   4.626   8.581   8.535 -0.7530  1.4399 -0.3111
14295SOL     OW47569   6.140   7.845   2.231 -0.3535 -0.6523 -0.1436
14295SOL    HW147570   6.235   7.854   2.240 -0.3169 -1.1552  0.0054
14295SOL    HW247571   6.110   7.930   2.199  0.3100 -0.8785 -1.4596
14296SOL     OW47572   9.178   0.525   5.294  0.5467 -0.1711 -0.3668
14296SOL    HW147573   9.112   0.476   5.342  0.4885 -0.0875 -0.3598
14296SOL    HW247574   9.250   0.464   5.281  0.7742 -0.0448  0.2691
14297SOL     OW47575   4.811  10.772   5.366 -0.9155  0.0852 -0.7607
14297SOL    HW147576   4.889  10.826   5.379 -0.2615 -0.4140 -2.3507
14297SOL    HW247577   4.739  10.835   5.362 -0.4233  0.6674 -0.5337
14298SOL     OW47578   3.159   2.979  11.682  0.5286  0.5588 -0.2215
14298SOL    HW147579   3.160   2.932  11.765  0.2566  1.9546  0.5975
14298SOL    HW247580   3.072   3.017  11.677  0.2632 -0.1597 -1.5486
14299SOL     OW47581  10.411   1.214  10.586  0.5216 -0.2000  0.2103
14299SOL    HW147582  10.497   1.175  10.604 -0.3436 -1.5397  1.7402
14299SOL    HW247583  10.367   1.149  10.532 -1.2359 -1.9689  3.4506
14300SOL     OW47584   0.214   3.853   6.647  0.4785  0.1933  0.3627
14300SOL    HW147585   0.245   3.915   6.713 -0.0612  0.3446  0.4762
14300SOL    HW247586   0.142   3.898   6.603  1.1906  0.3101 -0.7159
14301SOL     OW47587   6.263   7.848   5.864 -0.0277  0.4696 -0.2828
14301SOL    HW147588   6.267   7.840   5.769 -4.2534 -0.4002 -0.5733
14301SOL    HW247589   6.254   7.942   5.879  0.1401  0.5668 -0.7562
14302SOL     OW47590   1.278   7.270   8.687  0.3488  0.2472  0.7803
14302SOL    HW147591   1.351   7.254   8.628  0.8609  0.5818  1.3185
14302SOL    HW247592   1.313   7.252   8.774 -0.4065 -0.2794  0.9932
14303SOL     OW47593   7.286   6.388   3.780  0.5423  0.0339  0.2191
14303SOL    HW147594   7.206   6.396   3.728  0.8320 -0.9809 -0.4306
14303SOL    HW247595   7.281   6.458   3.845 -0.4486  0.5224 -0.3707
14304SOL     OW47596   2.126   7.158   3.874 -0.1969 -0.4781 -0.0858
14304SOL    HW147597   2.192   7.090   3.856 -1.0697 -1.3534 -0.0883
14304SOL    HW247598   2.088   7.178   3.789  0.5984  0.6107 -0.2011
14305SOL     OW47599   2.120  10.071  11.507 -0.2555  0.2865 -0.6491
14305SOL    HW147600   2.048  10.104  11.561  0.4396  2.3289 -0.8941
14305SOL    HW247601   2.077  10.024  11.436 -1.2311 -1.0350  0.7400
14306SOL     OW47602   3.499   4.696   5.557  0.3535  0.1374  0.2213
14306SOL    HW147603   3.533   4.778   5.519  1.2029 -0.1567  0.3241
14306SOL    HW247604   3.574   4.636   5.556 -0.3853 -0.7960 -0.2828
14307SOL     OW47605   5.340   5.066   5.164  0.0009 -0.2295 -0.2262
14307SOL    HW147606   5.279   5.129   5.202 -0.5337  0.2076 -1.7535
14307SOL    HW247607   5.352   5.000   5.233 -1.4957  0.1449  0.4337
14308SOL     OW47608   3.056   6.356  11.221 -0.3616  0.4220 -0.2848
14308SOL    HW147609   3.053   6.361  11.317 -3.2181  0.3587 -0.2689
14308SOL    HW247610   3.133   6.406  11.197 -0.0529  1.1916  2.0198
14309SOL     OW47611   1.865   1.370  10.738  0.2211 -0.3706  0.2879
14309SOL    HW147612   1.771   1.367  10.755  0.1522 -1.6703 -0.1664
14309SOL    HW247613   1.873   1.365  10.643  0.7331  0.8809  0.2506
14310SOL     OW47614   9.537   8.259   9.458 -0.3603  0.3449  0.0397
14310SOL    HW147615   9.529   8.278   9.552  0.1048  0.2687  0.1001
14310SOL    HW247616   9.627   8.228   9.448 -0.5137  0.0258 -0.3769
14311SOL     OW47617   9.468   9.603   7.097 -0.0512 -0.2130  0.4276
14311SOL    HW147618   9.476   9.557   7.013  0.3112 -1.0386  0.8977
14311SOL    HW247619   9.515   9.547   7.159 -0.2953  0.3987  1.1765
14312SOL     OW47620  10.807   6.429   7.597 -0.3630  0.5399 -0.4588
14312SOL    HW147621  10.863   6.366   7.641 -2.5872 -1.1081  0.2342
14312SOL    HW247622  10.734   6.377   7.563 -0.3023  2.2037 -3.4660
14313SOL     OW47623   5.388   9.174   1.246  0.7352 -0.0597 -0.2005
14313SOL    HW147624   5.480   9.173   1.272  0.4126 -0.7791  0.9888
14313SOL    HW247625   5.381   9.250   1.187  1.7278  1.0478  1.0258
14314SOL     OW47626   6.247   5.232   5.507  0.2843  0.1989 -0.5473
14314SOL    HW147627   6.241   5.138   5.487 -1.1266 -0.0051  0.6761
14314SOL    HW247628   6.307   5.266   5.441  0.5847 -1.5061 -1.2183
14315SOL     OW47629   9.665   5.031   2.708  0.0206  0.3358  0.1407
14315SOL    HW147630   9.664   5.084   2.788  0.3438  0.6489 -0.0580
14315SOL    HW247631   9.757   5.023   2.686 -0.1311  1.6653 -1.1190
14316SOL     OW47632  10.390  11.388   6.893  0.1834  0.3252 -0.0686
14316SOL    HW147633  10.348  11.329   6.955  3.4518 -0.4199  1.6652
14316SOL    HW247634  10.419  11.332   6.822 -1.0592  0.7469 -0.9595
14317SOL     OW47635  10.897   5.224   6.076 -0.0277  0.0303  0.5096
14317SOL    HW147636  10.942   5.181   6.004  0.1319  0.2388  0.4873
14317SOL    HW247637  10.862   5.304   6.039  0.5513  0.4263  0.8059
14318SOL     OW47638  10.786   5.867   7.474  0.1851 -0.5770  0.2889
14318SOL    HW147639  10.876   5.897   7.467  0.8437 -2.3502  0.4491
14318SOL    HW247640  10.771   5.859   7.568 -1.1217  2.2805  0.4205
14319SOL     OW47641   8.205   4.882   2.981 -0.0766  0.2795 -0.5090
14319SOL    HW147642   8.153   4.963   2.983  1.1331  1.0677  1.1409
14319SOL    HW247643   8.283   4.903   3.032 -0.9448 -2.7060  2.3618
14320SOL     OW47644  11.984   3.714   8.562 -0.6674 -0.6351 -0.3574
14320SOL    HW147645  12.041   3.769   8.616 -0.8153 -0.0758 -0.7516
14320SOL    HW247646  11.920   3.678   8.623 -1.5765  0.9550 -0.3028
14321SOL     OW47647   7.324   0.496   1.615  0.1231 -0.1276  0.8365
14321SOL    HW147648   7.283   0.581   1.600 -0.6819 -0.5259  0.7025
14321SOL    HW247649   7.324   0.486   1.710 -1.1595 -0.6016  0.8195
14322SOL     OW47650   7.228   4.638   8.209  0.7752 -0.3660 -0.3414
14322SOL    HW147651   7.237   4.729   8.178 -3.0656  0.0545 -0.6511
14322SOL    HW247652   7.198   4.590   8.132 -1.7027 -0.8424  0.8278
14323SOL     OW47653  11.267   8.255   9.047 -0.0113 -0.2282  0.6215
14323SOL    HW147654  11.279   8.334   9.100 -1.2487 -1.2685  2.5462
14323SOL    HW247655  11.179   8.225   9.068 -0.7243 -0.5039 -2.3792
14324SOL     OW47656   0.831  11.486  10.366  0.3114 -0.1663  0.2842
14324SOL    HW147657   0.908  11.458  10.415  1.7541  1.2966 -1.0536
14324SOL    HW247658   0.819  11.419  10.299  0.5211 -0.2980  0.3781
14325SOL     OW47659   7.627   6.534   4.015  0.1966 -0.0742 -0.6187
14325SOL    HW147660   7.601   6.503   3.928 -2.8452  1.3053 -0.3300
14325SOL    HW247661   7.684   6.609   3.999 -1.5511  1.1287 -1.5517
14326SOL     OW47662   3.365   3.304   4.760 -0.1972  0.1242 -0.0310
14326SOL    HW147663   3.311   3.358   4.703 -2.1082 -1.3492  0.2825
14326SOL    HW247664   3.349   3.339   4.848  0.8753  0.8810 -0.1228
14327SOL     OW47665   4.185   4.645   6.748 -0.0348  0.7049  0.1901
14327SOL    HW147666   4.250   4.675   6.684  0.0109  1.7382  0.7118
14327SOL    HW247667   4.108   4.625   6.695  0.2075  0.9446 -0.2627
14328SOL     OW47668   8.582   6.934   2.864 -0.3833  0.5943  0.2525
14328SOL    HW147669   8.598   6.871   2.934  1.6165  0.7218 -0.0331
14328SOL    HW247670   8.664   6.983   2.857 -1.4630  2.4198 -0.3552
14329SOL     OW47671  10.869  11.900   6.654 -0.0616  0.0111 -0.2166
14329SOL    HW147672  10.848  11.829   6.593  1.2423 -0.3697 -0.2377
14329SOL    HW247673  10.789  11.909   6.707 -0.1861 -1.6335 -0.0595
14330SOL     OW47674   0.051   8.668   3.279 -0.2343 -0.2624 -0.2835
14330SOL    HW147675   0.089   8.663   3.191  2.7173  4.2313  0.4019
14330SOL    HW247676  -0.022   8.729   3.270 -0.4095 -0.3835  0.2787
14331SOL     OW47677   9.649   0.469   1.495 -0.2306 -0.2963 -0.3857
14331SOL    HW147678   9.663   0.380   1.529 -0.9383 -0.9045 -1.6372
14331SOL    HW247679   9.556   0.485   1.506  0.2801  1.4543  2.4546
14332SOL     OW47680   9.198   6.029   5.036 -0.6069 -0.2297  0.0322
14332SOL    HW147681   9.251   6.018   5.115 -1.3308 -2.8434  0.2369
14332SOL    HW247682   9.183   6.123   5.031  3.5930  0.6508  0.2098
14333SOL     OW47683   4.166   7.273   4.506 -1.0513 -0.1696 -0.2051
14333SOL    HW147684   4.128   7.299   4.423 -0.8985  0.1888 -0.1675
14333SOL    HW247685   4.093   7.234   4.555 -1.4116  0.6444 -0.0740
14334SOL     OW47686   5.190   1.147  10.573 -0.0998  0.3402 -0.5358
14334SOL    HW147687   5.231   1.073  10.530 -2.2363 -0.0538 -2.0946
14334SOL    HW247688   5.258   1.183  10.629  1.3183 -2.1488 -0.5075
14335SOL     OW47689   4.119   0.074   0.333  0.5771 -0.4443  0.0688
14335SOL    HW147690   4.080   0.114   0.410  1.1951  0.1622  0.0741
14335SOL    HW247691   4.084  -0.016   0.332 -1.5277  0.3269 -0.4571
14336SOL     OW47692   3.952  10.014   0.731 -0.5124  0.0707  0.5820
14336SOL    HW147693   4.029  10.030   0.785 -1.7298 -0.4166  2.5471
14336SOL    HW247694   3.900  10.095   0.738 -0.0588  0.5463 -1.0410
14337SOL     OW47695   6.990  10.200   9.415  0.1402 -0.4540 -0.9376
14337SOL    HW147696   6.921  10.263   9.393  1.4438  0.3998 -2.8820
14337SOL    HW247697   6.961  10.118   9.376  1.1200  0.4105 -3.7966
14338SOL     OW47698   3.130   1.233   6.200 -0.1130  0.8198 -0.1581
14338SOL    HW147699   3.222   1.207   6.199 -0.2997  0.1447 -0.0168
14338SOL    HW247700   3.085   1.162   6.154 -0.2654  2.3169 -2.5116
14339SOL     OW47701   5.535   6.104   6.048  0.0288  0.0633  0.1166
14339SOL    HW147702   5.494   6.137   5.968 -0.9304 -0.2372  0.4697
14339SOL    HW247703   5.629   6.106   6.030 -0.1056  1.1680 -0.5674
14340SOL     OW47704   6.830   4.626   3.026  0.3036  0.1524 -0.1557
14340SOL    HW147705   6.748   4.631   2.976 -1.7916  0.9092  3.0198
14340SOL    HW247706   6.840   4.532   3.044 -0.9643  0.2049  0.9802
14341SOL     OW47707   7.953   3.846   6.732  0.4112  0.1087  0.6326
14341SOL    HW147708   7.960   3.775   6.795 -1.0607  0.2925  1.0557
14341SOL    HW247709   7.883   3.901   6.767  3.6481  3.7032  2.1836
14342SOL     OW47710   7.633   9.978  10.262  0.2631  0.2398 -0.3519
14342SOL    HW147711   7.551   9.966  10.214 -0.6137 -1.5638  1.4299
14342SOL    HW247712   7.609  10.029  10.339  0.7254 -0.5289  0.3195
14343SOL     OW47713   0.091   0.876   9.801  0.0872  0.2954  0.2498
14343SOL    HW147714   0.044   0.853   9.721  0.6166  1.2291 -0.3521
14343SOL    HW247715   0.022   0.904   9.861 -0.4519 -1.6642  0.6172
14344SOL     OW47716   3.687   5.682   0.075 -0.4919 -0.1067 -0.2313
14344SOL    HW147717   3.611   5.640   0.035  0.8464 -0.7774 -2.1892
14344SOL    HW247718   3.670   5.776   0.064 -1.2054 -0.2393 -0.3156
14345SOL     OW47719   7.475  10.107   8.771 -0.6397 -0.2109  0.0575
14345SOL    HW147720   7.515  10.029   8.733 -0.3801  0.3866 -0.9437
14345SOL    HW247721   7.549  10.158   8.804 -0.7917 -0.2767  0.5107
14346SOL     OW47722   8.519   4.323  11.004 -0.1963 -0.0051  0.2036
14346SOL    HW147723   8.428   4.348  11.018  0.0818  0.7250  0.7358
14346SOL    HW247724   8.548   4.290  11.089 -0.3562 -1.5486 -0.3090
14347SOL     OW47725   4.016   0.098   7.735  0.0892 -0.0225 -0.3262
14347SOL    HW147726   4.093   0.084   7.680 -0.6058  1.1463 -1.6447
14347SOL    HW247727   4.052   0.118   7.821  1.1868 -2.3546 -0.1609
14348SOL     OW47728   9.582   1.022   9.560 -0.2131 -0.0006 -0.2104
14348SOL    HW147729   9.631   0.942   9.580 -1.4330 -0.7283 -0.0227
14348SOL    HW247730   9.540   1.004   9.476  0.0436  0.7217 -0.5019
14349SOL     OW47731  11.961  10.741   5.479 -0.0630  0.0378  0.9807
14349SOL    HW147732  11.901  10.769   5.548  0.1612  0.7887  0.8786
14349SOL    HW247733  11.986  10.822   5.434  1.0019 -0.2647  1.0049
14350SOL     OW47734   7.558   8.746  10.803  0.0825 -0.0114 -0.0885
14350SOL    HW147735   7.544   8.817  10.866 -0.3746  0.5610 -0.8122
14350SOL    HW247736   7.604   8.788  10.730  1.6233 -0.9130  0.3350
14351SOL     OW47737  11.503   3.657   7.269 -0.0290 -0.0490  0.6466
14351SOL    HW147738  11.483   3.734   7.216 -0.0733 -0.3761  0.1805
14351SOL    HW247739  11.511   3.691   7.358  0.3324  0.5498  0.3913
14352SOL     OW47740   0.011   1.516  11.397 -0.6687  0.2441 -0.0914
14352SOL    HW147741   0.043   1.465  11.471  0.4720 -0.8381 -1.2840
14352SOL    HW247742  -0.051   1.458  11.353  0.5464 -0.1147 -1.3907
14353SOL     OW47743   7.954   1.364  11.738 -0.4790 -0.1032  0.4142
14353SOL    HW147744   7.930   1.398  11.824  0.0386  0.5476  0.3068
14353SOL    HW247745   8.010   1.431  11.700  1.9727 -1.7791  0.8605
14354SOL     OW47746   8.142   6.622   8.929  0.0136  0.0898 -0.3020
14354SOL    HW147747   8.157   6.527   8.923  1.1191  0.3451 -2.6909
14354SOL    HW247748   8.152   6.641   9.022 -0.0380 -2.1029  0.2262
14355SOL     OW47749   3.654   1.253   5.157  0.0596 -0.2175  0.0310
14355SOL    HW147750   3.669   1.173   5.106  1.2136  0.0075 -0.0162
14355SOL    HW247751   3.596   1.226   5.228 -0.1555 -0.9270 -0.4081
14356SOL     OW47752   5.349   1.467   8.078 -0.4946  0.4164 -0.0030
14356SOL    HW147753   5.313   1.457   8.166  1.2439 -0.1363  0.7038
14356SOL    HW247754   5.428   1.521   8.090 -0.2822  0.4284 -1.2435
14357SOL     OW47755   9.312   1.549   2.366 -0.0937  0.1533  0.4683
14357SOL    HW147756   9.406   1.532   2.366  0.0004  0.6097  1.0530
14357SOL    HW247757   9.301   1.620   2.430 -0.5508  1.7320 -1.2788
14358SOL     OW47758   7.318   1.484   1.131 -0.2390 -0.0805  0.2090
14358SOL    HW147759   7.226   1.457   1.129 -0.2648  0.0493 -1.8650
14358SOL    HW247760   7.365   1.405   1.160 -0.7208 -1.2098 -1.9081
14359SOL     OW47761   1.273   0.270   8.445  0.0901  0.0651 -0.4004
14359SOL    HW147762   1.331   0.234   8.379 -0.5317 -1.9244  0.0758
14359SOL    HW247763   1.307   0.238   8.528 -1.3755 -0.7419 -0.0792
14360SOL     OW47764  10.279  11.621   3.782  0.3318  0.2100  0.3585
14360SOL    HW147765  10.213  11.605   3.850  0.1210 -0.5823 -0.0276
14360SOL    HW247766  10.359  11.580   3.817 -0.2286 -1.8978 -0.6650
14361SOL     OW47767   9.016  10.870   1.956 -0.1879  0.0944 -0.1950
14361SOL    HW147768   9.067  10.832   2.027  0.1880  0.8141 -0.0670
14361SOL    HW247769   8.970  10.944   1.997 -0.5352  0.0721 -0.5404
14362SOL     OW47770  10.256   7.018   8.371  0.6234 -0.1627  0.0237
14362SOL    HW147771  10.279   7.084   8.436  1.5152 -0.0646 -0.3656
14362SOL    HW247772  10.254   7.066   8.288 -0.2568 -0.3305 -0.0581
14363SOL     OW47773   2.810   9.461   3.804 -0.1835  0.5574  0.6110
14363SOL    HW147774   2.828   9.536   3.747  1.1395 -0.3606 -0.2502
14363SOL    HW247775   2.765   9.398   3.747  1.4128 -0.4857  0.4405
14364SOL     OW47776  10.452   4.848   8.466  0.2270  0.3144  0.5715
14364SOL    HW147777  10.484   4.773   8.415 -2.9319 -0.8823  0.1467
14364SOL    HW247778  10.474   4.924   8.411 -1.4206 -0.7974 -1.8233
14365SOL     OW47779   8.944   9.904   4.286 -0.6694 -0.3706  0.0316
14365SOL    HW147780   8.982   9.866   4.207 -1.3760 -0.3671 -0.3204
14365SOL    HW247781   8.982   9.991   4.292 -2.9462  0.8890 -2.0886
14366SOL     OW47782   5.590   0.632   8.090  0.3718 -0.0056 -0.2886
14366SOL    HW147783   5.659   0.691   8.059  0.3690 -0.4539 -1.1690
14366SOL    HW247784   5.530   0.688   8.140  1.7517  0.2726  1.1522
14367SOL     OW47785   1.990   2.897   6.409 -0.2072  0.0297 -0.1376
14367SOL    HW147786   2.036   2.838   6.469 -0.2104  0.6265  0.4515
14367SOL    HW247787   2.037   2.887   6.326  0.2090 -0.3049  0.1355
14368SOL     OW47788   0.520   7.142  11.967  0.4207 -0.1966 -0.0074
14368SOL    HW147789   0.609   7.136  11.932  0.2660  1.0984 -0.6722
14368SOL    HW247790   0.531   7.164  12.059  0.7926 -0.9808  0.1437
14369SOL     OW47791  10.387   2.816   2.123  0.5909  0.5881 -0.4730
14369SOL    HW147792  10.359   2.807   2.214  0.4899  0.9272 -0.4716
14369SOL    HW247793  10.359   2.734   2.081  0.4508  0.5228 -0.2506
14370SOL     OW47794  11.588   4.785   0.799  0.4112 -0.4845 -0.2046
14370SOL    HW147795  11.683   4.789   0.809  0.4820  1.6995 -1.2350
14370SOL    HW247796  11.554   4.812   0.885  0.7058 -0.8360  0.0280
14371SOL     OW47797   4.234   8.246  10.619 -0.0737  0.2084 -0.8524
14371SOL    HW147798   4.215   8.308  10.549 -0.3678  0.6573 -0.3888
14371SOL    HW247799   4.323   8.216  10.603 -0.4549 -0.4109 -1.9460
14372SOL     OW47800  10.993   0.441   1.763  0.4432  0.0226  0.2572
14372SOL    HW147801  11.064   0.432   1.699  0.6035  0.6237  0.3535
14372SOL    HW247802  10.917   0.467   1.711  0.3750 -0.2637  0.2071
14373SOL     OW47803   9.105  11.091  10.097  0.4728  0.0071  0.2732
14373SOL    HW147804   9.183  11.127  10.056  0.7770  0.3137  1.1009
14373SOL    HW247805   9.049  11.064  10.023  1.0724  0.3838 -0.3281
14374SOL     OW47806   8.288   2.304   6.683 -0.6069 -0.4811  0.5099
14374SOL    HW147807   8.270   2.224   6.733  2.2239 -0.5797  1.5771
14374SOL    HW247808   8.305   2.371   6.749  1.3408 -0.1271 -0.2693
14375SOL     OW47809   1.511   5.193   1.630  0.4144  0.1008 -0.3990
14375SOL    HW147810   1.446   5.214   1.564  1.0350  2.1214 -0.4587
14375SOL    HW247811   1.461   5.165   1.706 -0.5583  1.7446 -0.4001
14376SOL     OW47812   8.321   1.725   1.677  0.1925  0.0161 -0.6055
14376SOL    HW147813   8.288   1.814   1.686  1.3649  0.4910 -0.8148
14376SOL    HW247814   8.354   1.703   1.764 -1.4411 -0.8047 -0.1497
14377SOL     OW47815  10.667  11.613   2.989  0.2724  0.0374  0.0325
14377SOL    HW147816  10.620  11.678   2.938  1.9517 -0.1598 -1.8874
14377SOL    HW247817  10.606  11.540   2.997 -0.9374  1.0852  0.5710
14378SOL     OW47818  11.829   6.606   1.871  0.0415 -0.0966  0.6327
14378SOL    HW147819  11.904   6.656   1.904  0.8656 -0.6184 -0.3676
14378SOL    HW247820  11.851   6.515   1.892 -0.2598 -0.2637  0.2227
14379SOL     OW47821   0.570   9.177   1.606 -0.0159  0.4481  0.9063
14379SOL    HW147822   0.607   9.206   1.522 -0.8504 -1.5821 -0.2272
14379SOL    HW247823   0.646   9.154   1.659  0.4988 -1.2583 -0.4753
14380SOL     OW47824   1.946   5.284   4.450 -0.1529  0.2329 -0.0891
14380SOL    HW147825   1.903   5.355   4.402 -0.2003  0.3820  0.1689
14380SOL    HW247826   1.896   5.206   4.428 -0.6654  0.4354  0.3451
14381SOL     OW47827   7.614   3.021   1.943  0.1071  0.3127 -0.1862
14381SOL    HW147828   7.643   3.054   1.858  0.0335  1.2816  0.1554
14381SOL    HW247829   7.695   3.000   1.989  0.1299 -0.9521 -0.7679
14382SOL     OW47830   5.271   3.863   0.273 -0.2489  0.2348  0.5807
14382SOL    HW147831   5.225   3.886   0.353 -1.3522  2.7666 -0.6906
14382SOL    HW247832   5.306   3.775   0.290 -0.6962  0.5522  3.6705
14383SOL     OW47833   4.118  10.065   9.878  0.1867  0.2260  0.0282
14383SOL    HW147834   4.035  10.053   9.924 -0.4287  0.7658 -0.9133
14383SOL    HW247835   4.179  10.095   9.946 -0.0461 -1.3794  0.9847
14384SOL     OW47836   8.210   5.504   2.129 -0.1771  0.6472 -0.1296
14384SOL    HW147837   8.147   5.457   2.074  0.6875  0.3767 -0.9285
14384SOL    HW247838   8.277   5.535   2.067  1.6618 -0.9986  0.9156
14385SOL     OW47839  11.478   8.016   3.323  0.6733 -0.7038  0.0343
14385SOL    HW147840  11.491   7.994   3.415  1.3050 -1.0227 -0.1246
14385SOL    HW247841  11.564   8.001   3.283  0.0917 -1.7942 -0.8556
14386SOL     OW47842   9.745   7.388   5.185  0.0704 -0.4148  0.1315
14386SOL    HW147843   9.660   7.365   5.147  1.0063 -0.4006 -2.1821
14386SOL    HW247844   9.764   7.475   5.149  0.7232 -0.0848  1.2419
14387SOL     OW47845   7.251   4.095   4.397  0.1758  0.0135  0.8115
14387SOL    HW147846   7.189   4.165   4.415  1.5413  1.3242  0.6637
14387SOL    HW247847   7.319   4.106   4.464  1.4667  0.1775 -0.4683
14388SOL     OW47848   2.796  11.750  11.028  0.4427 -0.8501  0.6148
14388SOL    HW147849   2.726  11.745  10.963 -0.0854  0.0900  1.1011
14388SOL    HW247850   2.802  11.843  11.050  0.3567 -1.1850  2.1839
14389SOL     OW47851   2.802   1.806   5.145  0.2188  0.3514 -0.4588
14389SOL    HW147852   2.807   1.890   5.099  0.2209 -0.5605 -2.2124
14389SOL    HW247853   2.757   1.748   5.084  2.2026 -1.5410 -0.2599
14390SOL     OW47854  10.279  10.732   8.418 -0.0469 -0.5689  0.1427
14390SOL    HW147855  10.192  10.751   8.383  0.3624  1.5487  0.1456
14390SOL    HW247856  10.268  10.742   8.513  0.8212  3.0185 -0.0046
14391SOL     OW47857   7.152   8.205   0.733 -0.4315  0.1101  0.6108
14391SOL    HW147858   7.157   8.114   0.765  0.1034 -0.3086 -0.6310
14391SOL    HW247859   7.059   8.220   0.721 -0.7932  0.6815  3.4055
14392SOL     OW47860  10.886   4.925   4.460  0.1183 -0.0087  0.2700
14392SOL    HW147861  10.891   4.985   4.386 -0.0583  1.0854  1.1149
14392SOL    HW247862  10.926   4.973   4.533  0.7187 -1.2286  0.7962
14393SOL     OW47863   4.903   9.312   0.744 -0.0745 -1.1300 -0.0542
14393SOL    HW147864   4.969   9.295   0.810  1.5314 -0.6993 -1.4804
14393SOL    HW247865   4.906   9.407   0.731 -0.4591 -1.1926 -0.6622
14394SOL     OW47866   1.117   8.571   9.504  0.0728  0.5281  0.1888
14394SOL    HW147867   1.106   8.557   9.598  0.8762  1.7251  0.4831
14394SOL    HW247868   1.150   8.487   9.471 -2.5576 -0.7316  0.5128
14395SOL     OW47869   5.754   1.965   2.359 -0.6903 -0.6620 -0.4816
14395SOL    HW147870   5.664   1.933   2.374 -0.8495  0.1326  0.3002
14395SOL    HW247871   5.759   2.046   2.408  0.1799 -0.2197 -1.2841
14396SOL     OW47872   4.804   3.008  11.222  0.3986 -0.1549 -0.2881
14396SOL    HW147873   4.887   3.007  11.270 -0.7714 -0.6086  1.8673
14396SOL    HW247874   4.761   2.926  11.246 -1.6007  1.0329  0.4667
14397SOL     OW47875   4.916   5.384   2.895  0.1811  0.2101  0.3688
14397SOL    HW147876   4.878   5.400   2.809  1.0626 -0.9588 -0.2664
14397SOL    HW247877   4.870   5.307   2.928 -0.0904  0.5981  0.9169
14398SOL     OW47878   1.179   1.845  10.114 -1.0772 -0.2317  0.0542
14398SOL    HW147879   1.136   1.886  10.189  2.2103  0.8316  1.5673
14398SOL    HW247880   1.169   1.751  10.129 -2.2112 -0.0240  0.7138
14399SOL     OW47881   9.020   5.732   6.445  0.0786  0.0660  0.5606
14399SOL    HW147882   8.979   5.741   6.531  0.7154 -0.0328  0.8778
14399SOL    HW247883   9.093   5.673   6.459 -0.7013 -1.1726 -0.3645
14400SOL     OW47884   3.784   7.685   1.029  0.0993  0.5114 -0.0649
14400SOL    HW147885   3.720   7.645   1.087  0.7273  1.4109  1.2938
14400SOL    HW247886   3.841   7.613   1.003 -0.5896 -0.0216 -0.1235
14401SOL     OW47887   5.195   5.538   9.875 -0.4076  0.2636  0.0964
14401SOL    HW147888   5.131   5.559   9.807 -0.0331 -1.9344 -1.0317
14401SOL    HW247889   5.232   5.623   9.900 -3.3599  1.5463  0.4371
14402SOL     OW47890  10.271  10.464   5.669 -0.1518  0.0646 -0.0794
14402SOL    HW147891  10.177  10.483   5.668 -0.6336 -2.0316 -1.0867
14402SOL    HW247892  10.299  10.474   5.578 -0.1437 -2.3154 -0.4049
14403SOL     OW47893  11.602   9.769  11.799  0.3622  0.0910  0.1670
14403SOL    HW147894  11.670   9.833  11.779  0.0477  0.9219  1.6022
14403SOL    HW247895  11.637   9.719  11.873  0.0859 -0.6004 -0.1525
14404SOL     OW47896  10.387   3.743  11.981  0.2892 -0.2690  0.8375
14404SOL    HW147897  10.356   3.719  11.893  0.3755  0.2811  0.6546
14404SOL    HW247898  10.432   3.665  12.012  0.0383 -0.5575  0.4938
14405SOL     OW47899   5.998   3.671   9.559 -0.2769 -0.1933  0.3896
14405SOL    HW147900   5.968   3.582   9.577 -0.6300  0.2658  2.4112
14405SOL    HW247901   6.082   3.677   9.604  1.1868 -0.3284 -2.1380
14406SOL     OW47902   4.295   0.397  11.955  0.3215  0.6356  0.1156
14406SOL    HW147903   4.289   0.417  11.862  0.1176 -1.3697 -0.3296
14406SOL    HW247904   4.348   0.318  11.960 -3.2171 -1.9098  1.2890
14407SOL     OW47905  11.563   4.336   5.269 -0.4477  0.4989 -0.5704
14407SOL    HW147906  11.518   4.283   5.334  0.8231 -0.3122 -0.3088
14407SOL    HW247907  11.566   4.424   5.307 -1.0992  0.3793 -0.2440
14408SOL     OW47908   9.812   7.284   1.835 -0.4841 -0.0052 -0.4952
14408SOL    HW147909   9.720   7.307   1.827 -1.7781 -3.6279  1.6405
14408SOL    HW247910   9.826   7.221   1.764 -0.5705 -1.6583  0.8964
14409SOL     OW47911   5.529   5.711   9.203 -0.6709  0.0137 -0.5142
14409SOL    HW147912   5.444   5.681   9.237 -0.5421 -1.2049 -1.1762
14409SOL    HW247913   5.521   5.806   9.198 -1.7397 -0.0284  0.1135
14410SOL     OW47914   6.696   2.661   6.885 -0.1900 -0.3601  0.4096
14410SOL    HW147915   6.646   2.615   6.952  1.6918 -4.6601 -0.8196
14410SOL    HW247916   6.785   2.667   6.921  0.1507  0.1704 -0.4911
14411SOL     OW47917   7.862  11.661   1.260 -0.5763  0.2355 -0.7822
14411SOL    HW147918   7.946  11.616   1.274 -0.9554 -0.5777 -1.0735
14411SOL    HW247919   7.803  11.621   1.323 -0.4965  1.5376  0.1452
14412SOL     OW47920  10.033   8.132   7.160  0.5641  0.1610 -0.1942
14412SOL    HW147921   9.975   8.185   7.106 -0.0010 -0.9467 -0.7167
14412SOL    HW247922  10.103   8.105   7.101  1.4761  1.2491  0.3613
14413SOL     OW47923   5.007   2.798   1.309  0.6249 -0.6454  0.6313
14413SOL    HW147924   4.965   2.755   1.383  1.1814  0.1992  1.4504
14413SOL    HW247925   5.101   2.785   1.323  0.7066 -2.2830 -1.0389
14414SOL     OW47926   4.169   3.000   4.251 -0.5196 -0.4866  0.5026
14414SOL    HW147927   4.172   3.086   4.210  2.6865  0.7643  2.9031
14414SOL    HW247928   4.181   2.938   4.179  2.0401  1.4154 -0.8844
14415SOL     OW47929   8.366   5.555   8.786  0.3265  0.5217  0.3284
14415SOL    HW147930   8.333   5.476   8.829 -1.1871  1.8689  1.7663
14415SOL    HW247931   8.454   5.531   8.756 -0.0637 -1.6627  0.7621
14416SOL     OW47932   0.085   2.042   5.375  0.4150  0.1395 -0.0805
14416SOL    HW147933   0.023   2.071   5.441  0.1112 -0.2391 -0.1901
14416SOL    HW247934   0.087   1.946   5.385  1.0906  0.1581  0.0181
14417SOL     OW47935   8.043  11.445   3.285 -0.2093 -0.3742 -0.3182
14417SOL    HW147936   7.999  11.429   3.369  1.6628 -0.0060  0.7971
14417SOL    HW247937   7.972  11.469   3.225 -1.6331 -0.8538  1.0950
14418SOL     OW47938   4.374   7.962  11.426  0.3800  0.7549  0.4386
14418SOL    HW147939   4.288   7.928  11.451  0.3155  1.4714  1.2675
14418SOL    HW247940   4.426   7.955  11.506  2.2087 -2.8630 -0.8566
14419SOL     OW47941   1.702   0.814   3.302 -0.1783  0.0574  0.2236
14419SOL    HW147942   1.657   0.766   3.372  1.4448  0.3861  1.5525
14419SOL    HW247943   1.633   0.834   3.239 -1.9025  0.5202  2.1330
14420SOL     OW47944   1.945   9.730   6.467  0.5766 -0.0365  0.2367
14420SOL    HW147945   1.997   9.700   6.392  1.3386  0.0888  0.7097
14420SOL    HW247946   1.921   9.649   6.513 -2.1759 -0.3795 -1.5639
14421SOL     OW47947  10.779   1.701  10.518  0.7204  0.3537 -0.2069
14421SOL    HW147948  10.702   1.755  10.500  1.8299  2.0754 -0.0333
14421SOL    HW247949  10.798   1.659  10.435 -1.1858 -1.2167  0.0847
14422SOL     OW47950  10.946   7.846   8.629 -0.8454  0.1319 -0.2501
14422SOL    HW147951  10.861   7.890   8.629 -1.0547 -0.1719 -2.2436
14422SOL    HW247952  10.935   7.774   8.566  0.4594 -0.7994  0.5358
14423SOL     OW47953   9.423   4.478   0.494 -0.3458  1.2084  1.0853
14423SOL    HW147954   9.481   4.502   0.566 -1.5085  1.8644  1.8126
14423SOL    HW247955   9.343   4.527   0.509 -0.9083  0.7383 -0.2156
14424SOL     OW47956   4.947   1.910   0.102 -0.0078  0.1780  0.1175
14424SOL    HW147957   5.020   1.886   0.160  0.0165  0.4416  0.1992
14424SOL    HW247958   4.944   1.840   0.037 -0.2213 -0.2818  0.6106
14425SOL     OW47959   4.835   4.297  10.035  0.2241 -0.3427  0.2283
14425SOL    HW147960   4.767   4.296   9.967  0.3353  0.4277  0.1013
14425SOL    HW247961   4.786   4.300  10.117  0.0890  1.2352  0.1182
14426SOL     OW47962   6.571   2.581  10.363  0.1101  0.7420 -0.0772
14426SOL    HW147963   6.558   2.580  10.268  1.2340  1.1757 -0.2478
14426SOL    HW247964   6.575   2.673  10.386  0.3048  0.6370  0.3242
14427SOL     OW47965   4.893   2.318   4.762 -0.0270 -0.0635  0.0827
14427SOL    HW147966   4.831   2.267   4.710 -0.2609  0.5342 -0.2420
14427SOL    HW247967   4.947   2.363   4.696  0.4424 -0.2111  0.3629
14428SOL     OW47968   1.163   9.824   1.601 -0.4977 -0.0325  0.1242
14428SOL    HW147969   1.125   9.907   1.629  2.6460  0.7326  2.7838
14428SOL    HW247970   1.095   9.759   1.617 -1.9936  1.6492  0.8917
14429SOL     OW47971  11.840   3.558   4.922  0.2214 -0.2186 -0.3726
14429SOL    HW147972  11.817   3.498   4.993 -1.2877  1.1990  0.3999
14429SOL    HW247973  11.895   3.624   4.962 -1.0317  0.8582 -0.3745
14430SOL     OW47974   8.664   4.929   1.178  0.0164  0.9427  0.2319
14430SOL    HW147975   8.689   5.020   1.165 -0.4471  1.0158 -0.1904
14430SOL    HW247976   8.578   4.921   1.137 -0.4298  0.5714  1.2103
14431SOL     OW47977   0.552   9.742   4.802 -0.1089 -0.4586 -0.4483
14431SOL    HW147978   0.474   9.759   4.855 -1.0947  0.4122 -2.0880
14431SOL    HW247979   0.558   9.647   4.797 -1.0739 -0.5322 -0.2872
14432SOL     OW47980   6.576   7.237   6.221 -0.0516  0.1809 -0.2327
14432SOL    HW147981   6.588   7.158   6.272 -0.3764 -0.5323 -1.2264
14432SOL    HW247982   6.555   7.305   6.285 -2.1115 -1.0286  0.4591
14433SOL     OW47983   5.417  11.700   1.033  0.1321  0.1761  0.1043
14433SOL    HW147984   5.429  11.728   0.942  0.1957  0.8048  0.3033
14433SOL    HW247985   5.493  11.645   1.052  1.4765  2.0869  0.5577
14434SOL     OW47986   7.157   1.668   6.476 -0.1584  0.0352 -0.2906
14434SOL    HW147987   7.077   1.700   6.516 -0.3460 -1.5551  0.7160
14434SOL    HW247988   7.127   1.609   6.406  0.1530  0.6040 -0.9139
14435SOL     OW47989   0.072  11.818   2.255 -0.5604  0.2777  0.3148
14435SOL    HW147990  -0.021  11.840   2.244 -0.3770  1.5953  1.1324
14435SOL    HW247991   0.117  11.868   2.187 -0.3751  0.3507  0.4897
14436SOL     OW47992  11.042  11.966   1.118  0.1796  0.4460 -0.0781
14436SOL    HW147993  11.035  11.887   1.063 -1.3582  1.2290 -1.0722
14436SOL    HW247994  10.965  11.962   1.175  0.5065  0.8606  0.4024
14437SOL     OW47995   9.097   7.647   4.373  0.6936  0.0084  0.2210
14437SOL    HW147996   9.071   7.560   4.341  1.7086  0.0649 -0.8414
14437SOL    HW247997   9.036   7.666   4.444  1.4760 -2.2902  1.6036
14438SOL     OW47998   7.764   2.137  11.441  0.2924  0.4384 -0.5656
14438SOL    HW147999   7.764   2.211  11.380  1.5690 -0.3060 -1.5128
14438SOL    HW248000   7.794   2.062  11.389 -1.4321 -0.8841  0.2398
14439SOL     OW48001   5.382   3.021  10.559  0.2586 -0.0599 -0.0911
14439SOL    HW148002   5.295   2.981  10.568  0.0596 -0.0128 -1.5000
14439SOL    HW248003   5.435   2.980  10.627 -0.8635 -0.0992  0.7836
14440SOL     OW48004   2.658  10.405   2.951  0.1034  0.3207  0.0481
14440SOL    HW148005   2.650  10.319   2.910 -0.6173  1.7874 -3.1668
14440SOL    HW248006   2.575  10.418   2.997 -0.9575  0.3892 -1.8142
14441SOL     OW48007   4.558   4.677   2.102 -0.9695 -0.1600 -0.1759
14441SOL    HW148008   4.503   4.619   2.050 -0.3066  0.2293 -1.3537
14441SOL    HW248009   4.515   4.681   2.187 -1.6241 -1.4898 -0.4204
14442SOL     OW48010   8.341   6.607   2.234 -0.0221  0.4663 -0.2522
14442SOL    HW148011   8.269   6.550   2.262  0.7537 -0.4656 -0.0883
14442SOL    HW248012   8.376   6.643   2.315 -0.3576  1.0008 -0.3396
14443SOL     OW48013   1.282   0.950   3.957  0.1978  0.2521  0.6742
14443SOL    HW148014   1.372   0.980   3.965 -0.0716  1.4310 -0.3565
14443SOL    HW248015   1.235   1.025   3.919 -0.9384 -0.7781 -0.0414
14444SOL     OW48016   3.436  10.937   5.556  0.1483  0.2275  0.1166
14444SOL    HW148017   3.477  10.973   5.635  0.6975  0.8533 -0.4354
14444SOL    HW248018   3.364  10.997   5.537  0.2740  0.3122 -0.0904
14445SOL     OW48019   7.824  10.756   7.937 -0.0108 -0.1497 -0.7699
14445SOL    HW148020   7.852  10.762   8.029 -0.7772  0.7687 -0.5738
14445SOL    HW248021   7.892  10.802   7.888 -1.2983  2.5310 -0.2421
14446SOL     OW48022  10.754   4.969  10.395 -0.0280 -0.3129 -0.2812
14446SOL    HW148023  10.700   5.017  10.332 -0.7899  0.6110  1.0241
14446SOL    HW248024  10.714   4.987  10.480  1.7082 -0.4744  0.6217
14447SOL     OW48025   0.283   5.448   7.851 -0.6371  0.5943 -0.1433
14447SOL    HW148026   0.207   5.488   7.891 -1.5321 -2.8227  1.9475
14447SOL    HW248027   0.247   5.386   7.787  0.4324  0.0922 -0.2894
14448SOL     OW48028   8.461   9.670   3.476 -0.7158  0.6385  0.7806
14448SOL    HW148029   8.406   9.598   3.445 -1.3338  1.0537  0.8892
14448SOL    HW248030   8.412   9.749   3.453 -0.2813  1.0109  1.1089
14449SOL     OW48031   0.335   2.285   2.003 -0.3678 -0.0289 -0.3896
14449SOL    HW148032   0.400   2.312   1.939 -1.9462  1.1103 -1.5839
14449SOL    HW248033   0.292   2.366   2.030 -1.2271 -0.7314  0.4544
14450SOL     OW48034   6.153  10.868  10.767  0.7947 -0.5561 -0.0059
14450SOL    HW148035   6.108  10.949  10.746 -1.0235 -0.7547  2.6463
14450SOL    HW248036   6.171  10.827  10.682 -2.0902  0.5955 -1.2854
14451SOL     OW48037   8.997  10.680   9.084  0.2275  0.5067 -0.4665
14451SOL    HW148038   9.042  10.599   9.108 -0.6420  0.1676  0.0650
14451SOL    HW248039   8.929  10.653   9.023  0.5933  0.9903 -1.1057
14452SOL     OW48040  11.443   6.839  11.809 -0.4140 -0.0390 -0.0008
14452SOL    HW148041  11.527   6.807  11.843  0.2474  0.1858 -1.3425
14452SOL    HW248042  11.412   6.768  11.752 -1.4697 -0.3912  0.9734
14453SOL     OW48043   9.160   3.021   1.388 -0.0560  0.4358  0.1155
14453SOL    HW148044   9.217   3.076   1.334 -0.3291  1.3519  0.7198
14453SOL    HW248045   9.071   3.052   1.368 -0.1079  1.5601  1.8411
14454SOL     OW48046   7.804   9.358   5.462  0.3769  0.1596  0.2482
14454SOL    HW148047   7.787   9.266   5.481 -1.6493  0.0424 -1.6567
14454SOL    HW248048   7.734   9.405   5.507  0.5203  0.6223 -0.0021
14455SOL     OW48049   3.081   2.631   6.531  0.1173  0.2750  0.5264
14455SOL    HW148050   3.175   2.616   6.535 -0.0633 -0.8816  0.9221
14455SOL    HW248051   3.057   2.655   6.621 -0.1065 -0.4269  0.6600
14456SOL     OW48052   2.499   7.571  11.923  0.2750 -0.4948  0.3501
14456SOL    HW148053   2.489   7.594  11.830 -0.3170 -0.9298  0.3010
14456SOL    HW248054   2.513   7.477  11.923  0.9396 -0.4006  0.6681
14457SOL     OW48055   0.314   3.602   4.823 -0.1777  0.6562 -0.7698
14457SOL    HW148056   0.362   3.533   4.777  0.1394 -0.0032  0.4912
14457SOL    HW248057   0.251   3.556   4.877  0.2238  1.3219  0.3103
14458SOL     OW48058   4.764  10.702   2.485  0.6730 -0.1387  0.1208
14458SOL    HW148059   4.782  10.759   2.411  0.1736  1.9625  1.5279
14458SOL    HW248060   4.814  10.739   2.557  0.2103 -1.4063  1.1452
14459SOL     OW48061   8.391   9.786   8.372 -0.1233 -0.3145 -0.0151
14459SOL    HW148062   8.363   9.724   8.439  2.2219  0.9489  2.3264
14459SOL    HW248063   8.393   9.871   8.416 -3.0334  1.5824 -3.0488
14460SOL     OW48064   5.934   1.171   7.843 -0.6582  0.4711 -0.1780
14460SOL    HW148065   5.963   1.231   7.775  1.5371  1.0286  1.1535
14460SOL    HW248066   5.850   1.138   7.812 -1.6555  3.7164 -1.2636
14461SOL     OW48067   6.949  10.209   1.410  0.2656  0.0886 -0.4467
14461SOL    HW148068   6.877  10.147   1.411  1.2946 -1.3553  3.2748
14461SOL    HW248069   6.910  10.292   1.382 -2.5161 -0.9357  0.1498
14462SOL     OW48070   2.564   6.415  11.469  0.3653 -0.0794  0.0627
14462SOL    HW148071   2.516   6.497  11.466  0.7572  0.1753  0.6084
14462SOL    HW248072   2.545   6.379  11.555  1.5669  0.2919  0.5081
14463SOL     OW48073   7.490   4.922   3.599  0.4924  0.6128  0.1973
14463SOL    HW148074   7.407   4.874   3.601  1.0924 -0.5809 -1.3911
14463SOL    HW248075   7.545   4.876   3.663  1.0865 -0.9658 -1.3595
14464SOL     OW48076   8.320   2.357  10.141  0.1027  0.4743  0.0013
14464SOL    HW148077   8.250   2.397  10.090  0.8186  3.6356  1.2509
14464SOL    HW248078   8.395   2.415  10.128  1.6871 -1.2628  0.8927
14465SOL     OW48079  10.717   0.311   0.231 -0.3238 -0.0042 -0.4806
14465SOL    HW148080  10.778   0.258   0.181 -0.7644 -0.6094 -0.3806
14465SOL    HW248081  10.751   0.401   0.223  1.0166 -0.4205  0.1999
14466SOL     OW48082   7.841   3.995   3.803 -0.0821  0.5758  0.4356
14466SOL    HW148083   7.818   3.910   3.765  0.5319  1.4845 -2.2626
14466SOL    HW248084   7.911   3.975   3.865  1.5897 -0.7812 -1.6926
14467SOL     OW48085   6.879  10.104   6.462 -0.3423 -0.5262  0.3875
14467SOL    HW148086   6.787  10.078   6.456 -0.5600  0.4765 -1.2465
14467SOL    HW248087   6.878  10.181   6.519 -0.6656  0.0655 -0.4046
14468SOL     OW48088   0.124   3.791   0.710 -0.0939  0.0505  0.2871
14468SOL    HW148089   0.149   3.788   0.618  0.1335 -1.6700  0.3793
14468SOL    HW248090   0.061   3.720   0.720  0.0622  0.0649  1.5132
14469SOL     OW48091   6.778   9.150  10.701 -0.0724  0.5374 -0.0040
14469SOL    HW148092   6.726   9.101  10.639 -0.2058 -0.4724  0.8727
14469SOL    HW248093   6.841   9.087  10.735 -1.2416  0.4992  2.2912
14470SOL     OW48094   6.456   5.019   0.674 -0.2686  0.0479 -0.0093
14470SOL    HW148095   6.444   4.927   0.651  0.6890 -0.3743  1.0527
14470SOL    HW248096   6.506   5.056   0.602  0.2500 -0.5363  0.0463
14471SOL     OW48097   1.029   9.231   8.028  0.0290  0.2529  0.1205
14471SOL    HW148098   1.014   9.309   7.975 -0.8859  1.4621  2.0661
14471SOL    HW248099   1.105   9.253   8.082 -0.7613  0.1550  1.2931
14472SOL     OW48100   9.737   1.586  10.211 -0.3471 -0.3425  0.2261
14472SOL    HW148101   9.670   1.604  10.277 -0.0488  2.5370 -0.1167
14472SOL    HW248102   9.703   1.511  10.163 -2.6499  0.1268  0.9767
14473SOL     OW48103  10.225   8.629   4.540  0.0345 -0.0214 -0.0718
14473SOL    HW148104  10.148   8.583   4.507 -0.4908  1.0748 -0.4196
14473SOL    HW248105  10.267   8.665   4.461 -0.3461  1.2680  0.2848
14474SOL     OW48106   1.846   9.816   9.013 -0.5036  0.2684  0.7754
14474SOL    HW148107   1.822   9.723   9.009 -2.3864  0.7300  0.5414
14474SOL    HW248108   1.841   9.837   9.107 -0.7275  0.2837  0.7614
14475SOL     OW48109   2.044   3.543   0.421  0.2996 -0.5801  0.5040
14475SOL    HW148110   2.099   3.608   0.465  0.0547 -0.0658  0.0595
14475SOL    HW248111   2.080   3.537   0.332 -0.8679  0.4006 -0.0635
14476SOL     OW48112   0.739   6.690  10.471 -0.3689  0.2435 -0.6654
14476SOL    HW148113   0.704   6.651  10.391  0.1901 -0.2942 -0.6586
14476SOL    HW248114   0.833   6.695  10.457 -0.0851 -1.1442  0.4703
14477SOL     OW48115   1.559   2.406   9.730 -0.3312  0.0809  0.4269
14477SOL    HW148116   1.522   2.356   9.657 -0.4825 -1.0048  1.2130
14477SOL    HW248117   1.618   2.344   9.772 -1.1819  0.2741  1.9585
14478SOL     OW48118   6.356   0.943   4.102  0.6047 -0.1784  0.3733
14478SOL    HW148119   6.263   0.921   4.108  0.4294  0.0780 -0.9667
14478SOL    HW248120   6.401   0.861   4.122  0.1013 -0.2191  1.3703
14479SOL     OW48121   8.535   2.373   3.256  0.2043  0.6629 -0.1797
14479SOL    HW148122   8.534   2.277   3.254  1.3074  0.6465 -1.9333
14479SOL    HW248123   8.627   2.396   3.264 -0.0133  1.5831 -0.1978
14480SOL     OW48124   4.252   9.446   0.775  0.1508 -0.0303 -0.0172
14480SOL    HW148125   4.225   9.399   0.697  1.5805 -0.5187 -0.2466
14480SOL    HW248126   4.222   9.536   0.762 -1.4493 -0.5707 -0.1667
14481SOL     OW48127   6.640   4.677   6.331  0.3510 -0.3311 -0.0992
14481SOL    HW148128   6.700   4.696   6.259  0.7744 -2.5767 -0.4189
14481SOL    HW248129   6.560   4.645   6.289  0.5732 -1.5842  0.3785
14482SOL     OW48130   5.339   5.232   6.448  0.0409  0.2901 -0.4526
14482SOL    HW148131   5.350   5.139   6.465  0.1772  0.4137  0.1756
14482SOL    HW248132   5.421   5.259   6.405 -0.4442 -0.0972 -1.6628
14483SOL     OW48133  10.072   4.380   1.125  0.1426 -0.0792 -0.1454
14483SOL    HW148134  10.052   4.405   1.035 -0.3200  0.9748  0.2375
14483SOL    HW248135  10.128   4.450   1.158 -0.5677  0.0986  0.7100
14484SOL     OW48136   8.951   1.177   3.000  0.1103  0.4503 -0.8763
14484SOL    HW148137   8.906   1.211   2.923 -0.6866  0.4606 -0.4166
14484SOL    HW248138   9.004   1.251   3.032  0.1654  0.5518 -1.1987
14485SOL     OW48139   2.070   7.476   9.012  0.0002  0.2716  0.1115
14485SOL    HW148140   2.026   7.391   9.008  1.0425 -0.2502 -0.8423
14485SOL    HW248141   2.008   7.534   9.057 -1.2321 -0.6813 -0.3285
14486SOL     OW48142  11.015   6.920   9.055  0.4862  0.6497  0.7726
14486SOL    HW148143  11.062   6.884   9.130  1.6692  0.2390 -0.1254
14486SOL    HW248144  10.930   6.947   9.090  0.7538 -0.1510  2.1076
14487SOL     OW48145   1.795   2.529   0.082 -0.2657 -0.3297 -0.1906
14487SOL    HW148146   1.850   2.570   0.015 -0.7584 -0.3523 -0.6203
14487SOL    HW248147   1.732   2.476   0.032 -1.0516  0.1643  0.2582
14488SOL     OW48148   6.015   0.615   1.917  0.2824  0.3983  0.3549
14488SOL    HW148149   5.945   0.572   1.966 -1.2775 -0.0910 -2.1297
14488SOL    HW248150   6.058   0.544   1.869  1.1709  0.9575  0.3004
14489SOL     OW48151   8.877   5.406   8.101  0.5129  0.0423  0.4046
14489SOL    HW148152   8.816   5.468   8.062  0.5942  0.9589  1.6903
14489SOL    HW248153   8.906   5.352   8.027 -2.9769 -1.4972 -0.0760
14490SOL     OW48154   3.485   4.939   8.931  0.1885 -0.2607 -0.2974
14490SOL    HW148155   3.445   4.869   8.983 -0.0794  1.3241  1.7434
14490SOL    HW248156   3.557   4.971   8.985  1.1436  0.1935 -1.7881
14491SOL     OW48157  11.164  10.205   4.283 -0.4266 -0.2999 -0.0512
14491SOL    HW148158  11.245  10.165   4.315 -0.3507  0.7700  1.1346
14491SOL    HW248159  11.097  10.140   4.302  0.1441 -1.3374 -1.3266
14492SOL     OW48160   2.078  10.621   4.675 -0.2422  0.7792 -0.5313
14492SOL    HW148161   2.028  10.667   4.608  0.4914  0.6696 -1.1648
14492SOL    HW248162   2.141  10.568   4.626  0.7826  1.2355  0.2463
14493SOL     OW48163   3.549   5.023  11.483  0.1905  0.3830  0.5083
14493SOL    HW148164   3.542   5.003  11.576  1.5361 -1.2870  0.2917
14493SOL    HW248165   3.458   5.022  11.452 -0.1130 -2.2255  1.2300
14494SOL     OW48166   7.571  10.479   4.555  0.2680 -0.4379 -0.8874
14494SOL    HW148167   7.641  10.418   4.576 -0.9194 -1.7313 -0.5638
14494SOL    HW248168   7.507  10.427   4.507 -0.3473  0.7813 -1.4273
14495SOL     OW48169   4.525   9.103   6.195 -0.6807 -0.1814  0.3135
14495SOL    HW148170   4.486   9.121   6.110  3.4971  0.6025 -1.6892
14495SOL    HW248171   4.549   9.011   6.192 -0.3974 -0.1181  0.6088
14496SOL     OW48172   6.360   3.818   2.814  0.4897 -0.1764 -0.0542
14496SOL    HW148173   6.288   3.782   2.866  0.8162 -0.3336  0.2974
14496SOL    HW248174   6.438   3.799   2.866  0.6961  0.7976  0.0049
14497SOL     OW48175   2.524   2.094   3.966 -0.3345  0.2419  0.0561
14497SOL    HW148176   2.563   2.069   4.050 -0.7344  1.3582  0.6002
14497SOL    HW248177   2.557   2.183   3.950  0.3134 -0.2180 -1.3397
14498SOL     OW48178   7.226   3.157   9.278 -0.4082  0.2110  0.1360
14498SOL    HW148179   7.153   3.213   9.253 -1.4337 -0.9486  0.4097
14498SOL    HW248180   7.191   3.103   9.349  0.3320 -1.1530 -0.4871
14499SOL     OW48181  10.686   3.909  11.514  0.2555 -0.0038 -0.4269
14499SOL    HW148182  10.607   3.916  11.569  0.4730 -1.6003  0.1316
14499SOL    HW248183  10.747   3.972  11.552  0.3391 -0.9609  1.1023
14500SOL     OW48184   0.968   4.492   5.302 -0.1862  0.3899 -0.0563
14500SOL    HW148185   0.982   4.422   5.365 -1.1577 -1.4847 -1.7888
14500SOL    HW248186   1.056   4.513   5.269  0.3284  1.4158  1.8402
14501SOL     OW48187  11.857   8.856   3.174 -0.3814  0.1907  0.1291
14501SOL    HW148188  11.917   8.914   3.221 -0.4201 -0.0533  0.4871
14501SOL    HW248189  11.795   8.915   3.131  0.2809  0.4541 -0.4785
14502SOL     OW48190   6.103  11.523  10.856 -0.2526 -0.5727 -0.2707
14502SOL    HW148191   6.030  11.474  10.819 -0.5370 -0.2610 -0.1247
14502SOL    HW248192   6.141  11.570  10.781  2.1646 -3.5842 -1.1617
14503SOL     OW48193   3.035   4.217   1.658 -0.0627 -0.3593 -0.1679
14503SOL    HW148194   3.116   4.170   1.679  0.3362 -0.4423 -1.7223
14503SOL    HW248195   2.980   4.206   1.735  1.3941 -0.3176  0.9217
14504SOL     OW48196   9.872   1.488   5.406  0.2205  0.4383 -0.3454
14504SOL    HW148197   9.901   1.408   5.362  0.5375  1.7868 -2.7622
14504SOL    HW248198   9.780   1.496   5.383 -0.5212 -0.5059  2.0361
14505SOL     OW48199   1.788   0.216   9.644 -0.1912 -0.0061 -0.3414
14505SOL    HW148200   1.724   0.241   9.711 -0.3024 -0.4098 -0.2923
14505SOL    HW248201   1.744   0.146   9.595  0.2652 -0.3800 -0.2226
14506SOL     OW48202   0.216  11.016   7.584  0.2430  0.0533  0.0536
14506SOL    HW148203   0.122  11.014   7.603  0.0922  0.3520 -0.6170
14506SOL    HW248204   0.258  11.002   7.668 -0.4216 -1.9327  0.1107
14507SOL     OW48205   8.248   1.989   7.959 -0.6035 -0.1119 -0.0717
14507SOL    HW148206   8.211   2.077   7.965 -0.2042  0.0559 -0.0311
14507SOL    HW248207   8.327   1.999   7.906 -1.6102 -0.7970 -1.7918
14508SOL     OW48208  10.227   2.581   0.890  0.4858  1.0618 -0.1033
14508SOL    HW148209  10.312   2.543   0.911  0.4226  0.3245 -1.1059
14508SOL    HW248210  10.165   2.533   0.945  0.4262 -0.2399 -1.2301
14509SOL     OW48211   6.950  11.500   3.239 -1.0031 -0.3057 -0.2751
14509SOL    HW148212   6.994  11.547   3.168 -1.4522 -1.2594 -1.2067
14509SOL    HW248213   6.877  11.556   3.263  0.8470  1.5111  1.5748
14510SOL     OW48214   5.818   2.409  11.605  1.3719 -0.4752  0.4040
14510SOL    HW148215   5.848   2.318  11.607  2.6870 -0.1337 -1.2346
14510SOL    HW248216   5.793   2.423  11.514  1.4518  0.8746  0.5791
14511SOL     OW48217  10.807   5.963  10.725 -0.2147 -0.4588 -0.0997
14511SOL    HW148218  10.749   6.034  10.695  2.0459  2.4808  1.9032
14511SOL    HW248219  10.772   5.939  10.811 -0.0335 -0.6518 -0.0797
14512SOL     OW48220   5.251   1.987   0.947  0.0115 -0.0255 -0.1489
14512SOL    HW148221   5.281   1.983   0.856  1.1385 -1.0883  0.2407
14512SOL    HW248222   5.168   2.035   0.943  0.0931  0.0343 -1.7172
14513SOL     OW48223   8.705   2.688   3.634  0.5213 -0.3076 -0.5061
14513SOL    HW148224   8.711   2.762   3.574  0.7627 -0.8634 -1.1847
14513SOL    HW248225   8.674   2.615   3.580 -2.0370 -0.1664  0.6154
14514SOL     OW48226   5.740   5.214   3.786 -0.3976  0.5246 -0.1030
14514SOL    HW148227   5.799   5.255   3.849  0.5135 -0.7920 -0.0710
14514SOL    HW248228   5.737   5.275   3.712  0.2903  1.0242  0.2781
14515SOL     OW48229   3.173   4.223   6.669  0.0879 -0.0037  0.0386
14515SOL    HW148230   3.098   4.168   6.644  0.1146  0.1707 -0.4486
14515SOL    HW248231   3.193   4.197   6.758  0.8234 -1.5938 -0.5548
14516SOL     OW48232   4.252  10.386   6.237  0.0607 -0.0730 -0.1771
14516SOL    HW148233   4.230  10.409   6.147  0.7697  2.0817  0.1442
14516SOL    HW248234   4.184  10.429   6.289  0.5196 -0.0305  0.3890
14517SOL     OW48235   3.920   5.615   0.256  0.1684  0.0604  0.3191
14517SOL    HW148236   3.861   5.664   0.199  0.4107  0.6585  0.5713
14517SOL    HW248237   3.907   5.523   0.231 -1.1850  0.1355  0.6655
14518SOL     OW48238  11.464   1.088   1.229  0.1293 -0.2639 -0.1926
14518SOL    HW148239  11.461   1.170   1.181 -1.5081 -0.3771 -0.3200
14518SOL    HW248240  11.389   1.038   1.198  0.5409 -1.4252  0.5781
14519SOL     OW48241   8.534  11.343   9.732 -0.0363  0.6906 -0.3808
14519SOL    HW148242   8.627  11.355   9.749 -0.2025 -0.8380  2.2656
14519SOL    HW248243   8.529  11.264   9.678  0.2263  1.4708 -1.5673
14520SOL     OW48244  10.562   6.878   3.733  0.4143 -0.4867  0.4756
14520SOL    HW148245  10.653   6.878   3.763  0.3764  1.4347  0.7512
14520SOL    HW248246  10.569   6.897   3.639  0.4051 -3.7697 -0.2897
14521SOL     OW48247   4.394   6.717   1.081  0.5113  0.2762  0.3493
14521SOL    HW148248   4.309   6.703   1.039  1.2753 -2.8040 -0.4197
14521SOL    HW248249   4.374   6.739   1.172 -1.0813  0.9299 -0.1318
14522SOL     OW48250  10.075   6.561   9.760  0.1247  0.3344  0.1264
14522SOL    HW148251  10.037   6.556   9.673 -0.7008  2.0858  0.3268
14522SOL    HW248252  10.005   6.535   9.819  0.1765  0.6630  0.3391
14523SOL     OW48253  10.876  11.111   5.754 -0.4993  0.0767 -0.1679
14523SOL    HW148254  10.794  11.154   5.780  0.7860  3.6521 -1.4502
14523SOL    HW248255  10.933  11.119   5.830 -0.3891  0.3029 -0.2737
14524SOL     OW48256   2.504   9.350   5.758 -0.3193 -0.2067 -0.0925
14524SOL    HW148257   2.553   9.411   5.703 -2.0857  1.5293  0.1486
14524SOL    HW248258   2.507   9.267   5.710  2.3844 -0.0677 -0.2905
14525SOL     OW48259   9.371   1.672   3.032 -0.5441  0.4527 -0.0959
14525SOL    HW148260   9.322   1.639   3.107 -0.6937  1.3081  0.1867
14525SOL    HW248261   9.453   1.622   3.033 -1.4617 -1.1122 -0.6792
14526SOL     OW48262   9.166   1.727   9.413  0.3453 -0.1589 -0.1693
14526SOL    HW148263   9.262   1.725   9.409  0.3424 -0.7970 -0.0328
14526SOL    HW248264   9.141   1.637   9.431 -0.2653  0.0874  0.2426
14527SOL     OW48265   8.448   0.591   5.806  0.1908  0.1475 -0.4194
14527SOL    HW148266   8.496   0.521   5.763  1.0995  1.0134 -0.8481
14527SOL    HW248267   8.356   0.572   5.788  0.5286  0.6441 -3.0445
14528SOL     OW48268   3.436   0.069   7.121  0.2307  0.0235 -0.1685
14528SOL    HW148269   3.355   0.020   7.110  0.0625  0.4816 -1.0741
14528SOL    HW248270   3.473   0.037   7.203 -0.9633 -0.0453  0.3529
14529SOL     OW48271   6.101   7.959   6.880  0.2259  0.1929  0.0422
14529SOL    HW148272   6.108   8.025   6.949 -2.1307  1.0730 -0.4620
14529SOL    HW248273   6.189   7.955   6.842  0.8447  1.8012  1.1848
14530SOL     OW48274   8.567  11.991   8.141 -0.1763 -0.1555 -0.4567
14530SOL    HW148275   8.657  11.994   8.109 -0.0369 -2.2743 -0.3752
14530SOL    HW248276   8.514  12.019   8.067  0.3411 -2.3938 -1.7590
14531SOL     OW48277   0.153  11.167  11.798 -0.0098 -0.1083 -0.7447
14531SOL    HW148278   0.092  11.180  11.725 -2.5512  1.1864  1.4193
14531SOL    HW248279   0.119  11.090  11.844 -1.0509  1.4652  1.3136
14532SOL     OW48280   9.263  10.027   0.983  0.1815 -0.1541 -0.5482
14532SOL    HW148281   9.304   9.995   0.902  1.2354  0.5668 -0.3138
14532SOL    HW248282   9.195  10.087   0.953 -0.8016 -1.4219 -0.9427
14533SOL     OW48283   1.964  10.769   1.011  0.2699 -0.4660 -0.8707
14533SOL    HW148284   2.048  10.724   1.002  0.2159 -0.3541 -2.2042
14533SOL    HW248285   1.913  10.739   0.935 -0.3673  0.5489 -0.8602
14534SOL     OW48286   2.691   7.787   3.731  0.5383 -0.2005  0.3158
14534SOL    HW148287   2.759   7.756   3.671  0.3443  0.4152 -0.2342
14534SOL    HW248288   2.628   7.832   3.675  0.8133  1.1950  1.0843
14535SOL     OW48289   7.798   9.487  10.476  0.0331 -0.6060  0.2777
14535SOL    HW148290   7.724   9.496  10.536 -0.4997  0.0191 -0.4598
14535SOL    HW248291   7.766   9.521  10.393  0.7474 -1.5034 -0.3859
14536SOL     OW48292   5.280   6.952   4.520 -0.1019 -0.0692 -0.5174
14536SOL    HW148293   5.331   7.020   4.565  0.4878 -0.1119 -1.1173
14536SOL    HW248294   5.189   6.980   4.533 -0.0752 -0.8321  1.9269
14537SOL     OW48295   9.940   4.221   0.736 -0.1448 -0.0381 -0.3094
14537SOL    HW148296   9.960   4.204   0.644 -0.7574 -0.1572 -0.4286
14537SOL    HW248297   9.980   4.306   0.754 -2.9892  1.7786 -1.7414
14538SOL     OW48298   9.708   0.923   1.673  0.1014 -0.2691  0.3121
14538SOL    HW148299   9.783   0.976   1.699  0.0081 -0.1960  0.4314
14538SOL    HW248300   9.719   0.841   1.720  1.4893 -1.2689 -1.6165
14539SOL     OW48301   4.178   2.550   1.271 -0.5158 -0.2208 -0.0215
14539SOL    HW148302   4.216   2.510   1.193  1.1850 -0.7318  1.0232
14539SOL    HW248303   4.086   2.522   1.269 -0.1950 -1.3272 -1.1240
14540SOL     OW48304  11.114  10.896  11.990  0.1465 -0.1486 -0.2920
14540SOL    HW148305  11.177  10.962  12.018  0.7905 -1.3399  1.2204
14540SOL    HW248306  11.164  10.835  11.936  0.4809 -1.3487  1.2831
14541SOL     OW48307   0.107   8.616   7.675  0.2115 -0.3730 -0.2410
14541SOL    HW148308   0.116   8.692   7.732 -1.1469  0.2948 -0.8650
14541SOL    HW248309   0.141   8.543   7.727  1.5949  0.6505  0.3356
14542SOL     OW48310   3.050   0.529   8.163 -0.8534 -0.1105 -0.7494
14542SOL    HW148311   3.080   0.617   8.142  2.9080 -1.5156 -2.3870
14542SOL    HW248312   3.131   0.479   8.175 -2.7961 -3.3279  0.2676
14543SOL     OW48313   6.060   8.468   3.510 -0.2872  0.2675  0.1521
14543SOL    HW148314   6.052   8.428   3.424 -0.7977  0.7839 -0.0464
14543SOL    HW248315   6.090   8.557   3.492  0.2292  0.1818  0.5501
14544SOL     OW48316   1.679   3.010   5.615  0.0185 -0.5028  0.0627
14544SOL    HW148317   1.715   3.010   5.527  0.0568  1.1222  0.0415
14544SOL    HW248318   1.681   3.102   5.642  2.7795 -1.2427  2.9265
14545SOL     OW48319   2.597   0.309   4.812  0.5721  0.0260 -0.1831
14545SOL    HW148320   2.647   0.364   4.873  0.0115 -1.0746  1.3416
14545SOL    HW248321   2.635   0.327   4.726  0.6831  2.4489  0.3076
14546SOL     OW48322   8.447  11.352   5.219 -0.3887 -0.1763 -0.3891
14546SOL    HW148323   8.444  11.307   5.135  0.8061 -0.0723 -0.5028
14546SOL    HW248324   8.530  11.400   5.218 -1.2173  1.3438  0.0755
14547SOL     OW48325   3.570   7.946   5.252 -0.6923  0.3373  0.8825
14547SOL    HW148326   3.611   7.968   5.335 -0.1521 -0.0801  0.7354
14547SOL    HW248327   3.634   7.891   5.208 -0.5779  1.2833 -0.1953
14548SOL     OW48328  10.875   2.382   4.315 -0.4404 -0.1035 -0.3978
14548SOL    HW148329  10.826   2.461   4.291 -0.3856  0.1683  0.3684
14548SOL    HW248330  10.846   2.362   4.404  0.6891 -0.0502  0.0041
14549SOL     OW48331   4.492   0.618   4.882 -0.2977 -0.0314 -1.3103
14549SOL    HW148332   4.470   0.572   4.801 -1.8304  2.0881 -2.1870
14549SOL    HW248333   4.562   0.679   4.856  0.4642 -0.5958 -0.6008
14550SOL     OW48334   4.074   3.239   5.999  0.8539 -0.3743 -0.2345
14550SOL    HW148335   4.063   3.204   5.911 -2.6298 -1.1006  0.3778
14550SOL    HW248336   4.075   3.162   6.056  1.9116  0.1521  0.5002
14551SOL     OW48337   1.721   3.347   1.239  0.0826 -0.1602  0.9968
14551SOL    HW148338   1.678   3.426   1.270 -2.5056 -0.6894 -0.8616
14551SOL    HW248339   1.803   3.378   1.200 -0.8623  1.6178  0.3190
14552SOL     OW48340   3.868   3.685  11.636 -0.6251 -0.0896  0.0170
14552SOL    HW148341   3.898   3.756  11.694  1.6539 -2.2861  1.7938
14552SOL    HW248342   3.851   3.613  11.696 -0.8966 -1.6498 -1.8710
14553SOL     OW48343   5.623  11.853   3.659  0.5197 -0.2110  0.2566
14553SOL    HW148344   5.626  11.762   3.631 -0.7976 -0.2946  0.3217
14553SOL    HW248345   5.551  11.892   3.607  0.3317  0.4999  1.0223
14554SOL     OW48346  11.638   7.898   0.085  0.0646 -0.4535  0.2210
14554SOL    HW148347  11.574   7.901   0.013 -2.2693  3.1097  2.1557
14554SOL    HW248348  11.610   7.824   0.139 -0.6781 -0.6528 -0.4101
14555SOL     OW48349   1.643   0.011   7.199 -0.2346  0.0357  0.1923
14555SOL    HW148350   1.727   0.055   7.189  0.0888 -0.9713 -2.3740
14555SOL    HW248351   1.593   0.037   7.122 -2.5021  0.9401  1.8559
14556SOL     OW48352   5.961  10.430   0.236  0.0926  0.2639 -0.3029
14556SOL    HW148353   5.993  10.488   0.305 -2.0783 -0.5739  1.5445
14556SOL    HW248354   5.939  10.488   0.164  0.5342  1.4192  0.4617
14557SOL     OW48355   9.071   1.565   4.178 -0.0417  0.1561  0.2530
14557SOL    HW148356   9.020   1.518   4.244  0.0403 -0.1670  0.0863
14557SOL    HW248357   9.154   1.585   4.222  0.1081 -0.2757  0.1673
14558SOL     OW48358   7.423   2.250   5.307 -0.5355  0.0823 -0.5464
14558SOL    HW148359   7.377   2.168   5.290 -1.2263  0.2882  0.2942
14558SOL    HW248360   7.514   2.223   5.323 -0.7955 -0.5447 -0.0768
14559SOL     OW48361   3.303   3.032  10.295 -0.4940  0.2532  0.6975
14559SOL    HW148362   3.214   3.059  10.270 -0.3710 -0.5594 -0.6675
14559SOL    HW248363   3.290   2.950  10.342 -0.5690  0.9061  1.8708
14560SOL     OW48364   7.732   3.973   6.035 -0.2824 -0.0186 -0.3282
14560SOL    HW148365   7.768   4.037   5.974  0.9208  0.5146  0.8873
14560SOL    HW248366   7.718   4.022   6.116 -0.3840 -1.0431  0.2990
14561SOL     OW48367   3.439   0.936   1.226  0.4996 -0.4463 -0.5463
14561SOL    HW148368   3.394   0.888   1.296  1.6057  0.5923  0.9406
14561SOL    HW248369   3.378   0.934   1.153 -1.2079 -0.5921  0.8085
14562SOL     OW48370   1.852   4.153   4.060 -0.5118 -0.3230 -0.8206
14562SOL    HW148371   1.917   4.148   3.991 -1.5641 -0.2765 -1.8487
14562SOL    HW248372   1.841   4.063   4.090 -0.5260 -0.4481 -1.1912
14563SOL     OW48373   9.673  11.933   6.913  0.0622 -0.0728 -1.1906
14563SOL    HW148374   9.626  11.947   6.831  1.4281 -1.0401 -2.1713
14563SOL    HW248375   9.765  11.941   6.891  0.5076 -1.2732  0.0476
14564SOL     OW48376  10.805   0.779   6.306  0.6157  0.4897 -1.0815
14564SOL    HW148377  10.796   0.857   6.361  0.0908  0.2857 -0.8696
14564SOL    HW248378  10.725   0.778   6.253 -0.0207 -0.6090 -0.1546
14565SOL     OW48379   4.868   4.794   3.789 -0.3105  0.0952 -0.0776
14565SOL    HW148380   4.806   4.852   3.834 -1.9785 -0.7373 -1.2041
14565SOL    HW248381   4.881   4.721   3.850  1.6453  1.4744  1.2602
14566SOL     OW48382   5.357   4.977   2.506  0.0304 -0.3603  0.8651
14566SOL    HW148383   5.264   4.998   2.516  0.1735  1.1897 -0.4986
14566SOL    HW248384   5.394   4.988   2.594 -1.1215 -1.4333  1.5183
14567SOL     OW48385  10.063   8.262   1.705  0.1028 -0.5104 -0.2612
14567SOL    HW148386  10.102   8.212   1.633 -0.4226  0.1487 -1.0081
14567SOL    HW248387   9.977   8.223   1.718 -0.9741  1.2107 -1.9372
14568SOL     OW48388   5.925   3.182   0.584 -0.0791  0.0930 -0.0172
14568SOL    HW148389   5.948   3.130   0.508 -0.8851  1.4888 -1.2658
14568SOL    HW248390   5.937   3.123   0.659  2.8472 -0.6565 -0.9835
14569SOL     OW48391   2.841   8.241   5.579 -0.0216 -0.1473  0.1661
14569SOL    HW148392   2.772   8.288   5.534 -0.7091 -0.1364  1.1950
14569SOL    HW248393   2.901   8.214   5.510 -1.3272 -0.6307 -0.8070
14570SOL     OW48394  11.789   6.901   0.250  0.2645  0.4589  0.4834
14570SOL    HW148395  11.813   6.884   0.159  0.1485 -0.7004  0.6476
14570SOL    HW248396  11.696   6.881   0.254  0.3394  0.1869  0.9234
14571SOL     OW48397   7.498   9.663   0.709 -0.1478 -0.1486 -0.4059
14571SOL    HW148398   7.555   9.587   0.718  1.1287  0.7509 -0.6420
14571SOL    HW248399   7.471   9.683   0.798  0.1300 -0.4111 -0.2589
14572SOL     OW48400   8.513   5.673   6.052  0.0222  0.1373 -0.1577
14572SOL    HW148401   8.555   5.677   6.138  0.4563  3.7186 -0.3910
14572SOL    HW248402   8.434   5.620   6.066 -0.4670  1.4253  2.7405
14573SOL     OW48403   2.761   6.718   9.514  0.1409  0.1509  0.0682
14573SOL    HW148404   2.729   6.765   9.437 -1.0739  2.6470  1.9472
14573SOL    HW248405   2.846   6.759   9.533 -0.4538  0.9646  1.1177
14574SOL     OW48406   1.988   8.562   7.121 -0.1504 -0.1278 -0.1798
14574SOL    HW148407   2.030   8.638   7.082  0.9702 -1.9331 -2.7414
14574SOL    HW248408   1.896   8.570   7.097 -0.5933  1.6397  1.7954
14575SOL     OW48409   4.288   4.008   2.849  0.0273 -0.4076 -0.6759
14575SOL    HW148410   4.376   3.994   2.882  1.4232  0.7367 -3.5705
14575SOL    HW248411   4.266   4.097   2.877  0.2415 -0.3166 -0.7900
14576SOL     OW48412   9.961   5.240   5.280  0.2064 -0.4225 -0.2809
14576SOL    HW148413   9.950   5.334   5.298  0.7802  0.0959 -2.3800
14576SOL    HW248414   9.871   5.206   5.274 -0.3435  1.1369 -4.5713
14577SOL     OW48415   7.353   9.251   6.075  0.4569 -0.2974  0.0222
14577SOL    HW148416   7.287   9.289   6.017  0.7254  0.9236  0.4865
14577SOL    HW248417   7.378   9.323   6.133  1.2343 -1.1062  0.7138
14578SOL     OW48418   7.269   2.820  10.412  0.3419 -0.1529 -0.3749
14578SOL    HW148419   7.323   2.892  10.444 -1.3882  1.4110 -0.8082
14578SOL    HW248420   7.278   2.824  10.317  1.2109 -1.3428 -0.3660
14579SOL     OW48421   4.622   2.009   9.755 -0.4026  0.1671  0.1345
14579SOL    HW148422   4.666   2.060   9.823 -0.9395  1.0241 -0.1487
14579SOL    HW248423   4.670   2.030   9.675 -0.1311 -0.3944  0.1447
14580SOL     OW48424   0.499  11.463   1.185  0.0929 -0.5684 -0.1581
14580SOL    HW148425   0.472  11.419   1.105 -1.0952 -0.5312  0.1994
14580SOL    HW248426   0.490  11.557   1.166 -1.3742 -0.5823  0.3923
14581SOL     OW48427   6.041   8.336   3.256 -0.0204 -0.2314 -0.3775
14581SOL    HW148428   6.098   8.346   3.180 -0.1947  0.7225 -0.3990
14581SOL    HW248429   5.953   8.348   3.222 -0.0250  1.5691  0.1691
14582SOL     OW48430   6.696   5.351   7.665  0.2807  0.0687 -0.3441
14582SOL    HW148431   6.724   5.370   7.754  1.6732 -1.2208 -0.4696
14582SOL    HW248432   6.639   5.274   7.673 -1.5489  1.3557 -0.3447
14583SOL     OW48433   6.125   6.867   9.970 -0.0504 -0.2766  0.0233
14583SOL    HW148434   6.054   6.818   9.929 -1.0270  1.7382 -0.8195
14583SOL    HW248435   6.117   6.955   9.934  2.3089  0.2607  0.6330
14584SOL     OW48436   4.594  10.754   5.686 -0.0116  0.2500  0.3640
14584SOL    HW148437   4.620  10.764   5.777 -0.5501 -1.1576  0.6920
14584SOL    HW248438   4.598  10.843   5.650  0.9102  0.7162  1.5516
14585SOL     OW48439   6.232  11.295   9.696 -0.2703  0.5364 -0.3729
14585SOL    HW148440   6.217  11.251   9.779 -0.3884 -1.0615 -1.1981
14585SOL    HW248441   6.189  11.380   9.705 -1.0791  0.0138  0.8577
14586SOL     OW48442   4.795   7.975   3.849 -0.0861 -0.1240  0.2796
14586SOL    HW148443   4.788   8.016   3.762 -0.8419 -0.0856  0.3476
14586SOL    HW248444   4.705   7.977   3.883  0.3054  0.4578  1.3370
14587SOL     OW48445   0.290   9.060   1.050 -0.6101 -0.1279  0.0159
14587SOL    HW148446   0.333   9.033   1.131 -1.0764  0.7042  0.5512
14587SOL    HW248447   0.327   9.146   1.031 -0.1706 -0.5041 -0.9113
14588SOL     OW48448  11.173   6.840   5.482 -0.0224  0.2898 -0.6332
14588SOL    HW148449  11.206   6.887   5.558  0.7901 -0.8126 -0.2946
14588SOL    HW248450  11.172   6.748   5.508  1.5999 -0.2965 -2.3587
14589SOL     OW48451   3.012   0.656   0.953 -0.0292 -0.0028  0.4115
14589SOL    HW148452   2.935   0.604   0.978 -0.8661  1.8007  1.8190
14589SOL    HW248453   3.074   0.642   1.024 -0.4839  1.2984  1.0980
14590SOL     OW48454   5.213   9.112   0.415  0.0324  0.2550  0.0506
14590SOL    HW148455   5.198   9.070   0.330 -1.7765  0.6267  0.1456
14590SOL    HW248456   5.301   9.086   0.439 -0.4041 -2.0930 -0.6704
14591SOL     OW48457   5.986   2.635   6.782  0.1250 -0.7226 -0.3212
14591SOL    HW148458   5.957   2.720   6.814 -0.1152 -1.3419  1.1864
14591SOL    HW248459   5.909   2.579   6.788  0.1804 -0.9882 -1.6592
14592SOL     OW48460   3.795  10.752   5.635  0.0541  0.4265 -1.0852
14592SOL    HW148461   3.773  10.743   5.542  2.6240 -1.0473 -1.6357
14592SOL    HW248462   3.887  10.778   5.635  0.4561 -0.8033  1.0413
14593SOL     OW48463   8.703  10.090   5.040 -0.1090 -0.4061 -0.2673
14593SOL    HW148464   8.733  10.148   4.971  1.4767 -0.3639  0.4137
14593SOL    HW248465   8.634  10.139   5.085  0.9019  0.7866  0.0200
14594SOL     OW48466   3.746   2.024   5.123 -0.6487  0.4074 -0.1823
14594SOL    HW148467   3.763   2.008   5.216  0.5983  1.8549 -0.1218
14594SOL    HW248468   3.779   2.113   5.108  0.1835 -0.1927 -2.2485
14595SOL     OW48469   2.083   1.059   7.487  0.3961 -0.0450 -0.0815
14595SOL    HW148470   2.156   1.011   7.525 -0.4893  0.1828  2.0724
14595SOL    HW248471   2.010   0.998   7.491  0.4205 -0.2779 -2.2278
14596SOL     OW48472   2.886  11.927  10.039 -0.3085 -0.2228 -0.2305
14596SOL    HW148473   2.945  11.986  10.086  0.3385  0.4796 -1.8443
14596SOL    HW248474   2.915  11.840  10.064 -0.6531  0.0948  1.4383
14597SOL     OW48475  11.127   5.748   9.273  0.1601 -0.6374 -0.0561
14597SOL    HW148476  11.202   5.739   9.332 -1.5492 -1.1412  2.1749
14597SOL    HW248477  11.075   5.669   9.289 -1.8270  0.6175 -0.0249
14598SOL     OW48478   8.460   8.695   3.532  0.0647 -0.1518  0.8260
14598SOL    HW148479   8.533   8.641   3.505 -0.8545 -0.9117 -0.2353
14598SOL    HW248480   8.387   8.667   3.477 -1.3721 -0.3055  2.6967
14599SOL     OW48481   9.856   1.969   3.105 -0.1935 -0.5004  0.0216
14599SOL    HW148482   9.882   1.899   3.165  1.2123 -1.0857 -1.2150
14599SOL    HW248483   9.874   1.935   3.018  1.4350  1.6740 -0.6042
14600SOL     OW48484   8.281   0.458   0.766 -0.3697  0.3258  0.5595
14600SOL    HW148485   8.298   0.523   0.834  3.1904 -1.7416  1.9129
14600SOL    HW248486   8.248   0.382   0.813  0.1419 -0.4442 -0.3013
14601SOL     OW48487   7.640  10.216   5.081  0.1097 -0.2220 -0.1710
14601SOL    HW148488   7.618  10.128   5.110  0.8691 -0.3125  0.1620
14601SOL    HW248489   7.706  10.203   5.013 -0.3182  0.0649 -0.6493
14602SOL     OW48490  11.935   0.958   1.803  0.5890  0.5415 -0.2293
14602SOL    HW148491  12.010   0.918   1.846 -0.0946 -0.6218 -0.0802
14602SOL    HW248492  11.970   0.995   1.722  1.1120 -1.1194 -0.7953
14603SOL     OW48493   9.822   1.339  10.587  0.1034  0.2081 -0.2133
14603SOL    HW148494   9.894   1.286  10.620 -0.3569 -0.0007  0.4794
14603SOL    HW248495   9.829   1.333  10.492  2.8290  2.6445 -0.3125
14604SOL     OW48496  11.311   1.785   9.689  0.3701 -0.6275 -0.3322
14604SOL    HW148497  11.223   1.825   9.691  0.7737  0.4818 -1.8963
14604SOL    HW248498  11.313   1.737   9.606  1.0119 -1.2411  0.0278
14605SOL     OW48499  10.097   7.245   3.823 -0.8254  0.1108 -0.2074
14605SOL    HW148500  10.058   7.191   3.754 -1.1635  1.4534 -1.1056
14605SOL    HW248501  10.034   7.244   3.894 -0.2105 -1.7806  0.3750
14606SOL     OW48502   8.380   1.464   8.601 -0.4964 -0.4027  0.3089
14606SOL    HW148503   8.420   1.379   8.582 -0.7708 -0.1176 -1.7869
14606SOL    HW248504   8.347   1.495   8.517 -3.4728  0.2459  1.5730
14607SOL     OW48505   9.855   1.782  11.058 -0.7676 -0.7825 -0.5843
14607SOL    HW148506   9.918   1.762  10.988  0.1670 -1.0032  0.3037
14607SOL    HW248507   9.775   1.737  11.031 -0.5607 -0.5110 -1.7300
14608SOL     OW48508   6.792   4.332   3.079 -0.8692 -0.2651  0.0797
14608SOL    HW148509   6.884   4.331   3.107 -0.0786  0.5018 -2.2737
14608SOL    HW248510   6.743   4.304   3.157  1.0832  2.1515  2.3391
14609SOL     OW48511  11.615   9.480   6.757 -0.4028  0.0479  0.0901
14609SOL    HW148512  11.619   9.513   6.667  2.3153  0.3084  0.2402
14609SOL    HW248513  11.614   9.385   6.747  1.7990  0.0235 -0.2419
14610SOL     OW48514   9.940   1.343   3.912 -0.1674 -1.0816 -0.1572
14610SOL    HW148515   9.858   1.293   3.919 -0.1386 -1.1006  0.0339
14610SOL    HW248516   9.912   1.432   3.889 -0.4111 -0.4831  2.1947
14611SOL     OW48517   5.507   9.166   9.072 -0.6907 -0.1140  0.0881
14611SOL    HW148518   5.452   9.226   9.123 -0.9655  0.7338 -1.1460
14611SOL    HW248519   5.493   9.080   9.112 -1.2075  0.4583  1.1664
14612SOL     OW48520   6.070   0.401  11.021 -0.4669  0.1274  0.5388
14612SOL    HW148521   6.106   0.313  11.037  1.8534  1.0069  0.5458
14612SOL    HW248522   6.078   0.412  10.926  0.5914  0.8175  0.6869
14613SOL     OW48523   6.802   4.656  10.195  0.2241 -0.0213  0.2682
14613SOL    HW148524   6.761   4.587  10.142 -2.3693  1.1285  0.6483
14613SOL    HW248525   6.828   4.612  10.276 -0.4093 -0.7762  0.0747
14614SOL     OW48526  10.811   2.864   9.537  0.3977 -0.7050  0.2475
14614SOL    HW148527  10.786   2.914   9.459  0.8365 -1.5836 -0.4724
14614SOL    HW248528  10.856   2.787   9.502  1.7855 -0.4539  1.4113
14615SOL     OW48529   3.728   8.464   3.650 -0.4934 -0.2231 -0.4559
14615SOL    HW148530   3.785   8.391   3.623 -1.9843 -1.4478 -0.4130
14615SOL    HW248531   3.669   8.476   3.576  0.1694  1.4557 -0.7590
14616SOL     OW48532  11.548   9.461   0.855  0.7343  0.2911  0.2249
14616SOL    HW148533  11.525   9.368   0.857 -0.9296  0.6699 -0.0689
14616SOL    HW248534  11.566   9.483   0.947  2.3400 -0.5592  0.1615
14617SOL     OW48535  11.416   2.827   7.143  0.9633  0.7117  0.0332
14617SOL    HW148536  11.507   2.851   7.161  1.5184  1.6238 -3.4114
14617SOL    HW248537  11.419   2.776   7.062 -1.5810  0.5815 -0.0667
14618SOL     OW48538   5.672   8.525  11.540 -0.1932 -0.3835  0.4721
14618SOL    HW148539   5.602   8.590  11.534  0.6618  0.5775  0.7372
14618SOL    HW248540   5.642   8.463  11.606 -0.8701 -0.0778  0.4597
14619SOL     OW48541   2.874   2.956   5.801  0.0765  0.3901  0.0029
14619SOL    HW148542   2.955   2.919   5.836  0.5786  2.4345  1.1661
14619SOL    HW248543   2.870   2.924   5.710  2.7367  1.0612 -0.4303
14620SOL     OW48544   7.008   2.870   4.180 -0.3962  0.5819  0.2045
14620SOL    HW148545   6.965   2.895   4.098 -0.0797  0.3483 -0.0340
14620SOL    HW248546   6.936   2.847   4.238 -0.7404  2.4863  0.5941
14621SOL     OW48547   8.471  11.743   8.235 -0.1574  0.1882 -0.3281
14621SOL    HW148548   8.424  11.754   8.318 -0.9008  0.7005 -0.8061
14621SOL    HW248549   8.508  11.830   8.216  1.3513 -0.2964  0.2389
14622SOL     OW48550   5.564   3.883  11.348 -0.1041 -0.0453  0.5174
14622SOL    HW148551   5.610   3.966  11.362  0.1754  0.2727 -1.7839
14622SOL    HW248552   5.632   3.822  11.319 -0.5363 -0.6872  0.8345
14623SOL     OW48553   2.196   9.920   4.812 -0.0493  0.1568  0.0051
14623SOL    HW148554   2.161   9.870   4.738  1.1359 -2.6753  1.1883
14623SOL    HW248555   2.195  10.011   4.783 -0.7256 -0.7160 -3.0149
14624SOL     OW48556   4.117   5.141   7.702 -0.6382  0.5058  0.1636
14624SOL    HW148557   4.175   5.205   7.742  0.2599 -0.3472  0.2579
14624SOL    HW248558   4.029   5.170   7.726 -0.2511  1.6517  0.2577
14625SOL     OW48559   8.435   0.396   6.733  0.1430 -0.0265  0.3516
14625SOL    HW148560   8.344   0.420   6.750  0.3721  1.3922 -0.3071
14625SOL    HW248561   8.430   0.333   6.662 -0.3042  0.2938  0.0959
14626SOL     OW48562   1.071   2.773   6.982 -0.4579  0.0078 -0.1493
14626SOL    HW148563   1.036   2.771   7.071  1.0844 -0.5858  0.4809
14626SOL    HW248564   1.100   2.863   6.969  1.7755 -0.4672  1.0133
14627SOL     OW48565   5.692  11.417   3.318 -0.0842  0.0560 -0.7387
14627SOL    HW148566   5.667  11.401   3.228  0.1799  0.7562 -0.9422
14627SOL    HW248567   5.787  11.407   3.319  0.0432  1.0786 -0.7805
14628SOL     OW48568   6.706  11.823   9.841 -0.7182 -0.1793 -0.1009
14628SOL    HW148569   6.727  11.742   9.888 -1.0005 -0.4577 -0.4404
14628SOL    HW248570   6.642  11.867   9.897  1.1683  0.9943  1.2569
14629SOL     OW48571   8.610  11.018   4.334  0.6823 -0.7223 -0.2110
14629SOL    HW148572   8.555  11.071   4.391  1.1581  0.9306 -1.2275
14629SOL    HW248573   8.612  10.932   4.376  0.1620  0.1366  1.6850
14630SOL     OW48574   9.436   8.451  11.541 -0.6604  0.2694 -0.1886
14630SOL    HW148575   9.513   8.399  11.520 -0.5075  1.0390 -1.6762
14630SOL    HW248576   9.470   8.522  11.597 -0.4998 -0.0414  0.1098
14631SOL     OW48577   3.456   1.094   5.732 -0.5025 -0.4458  0.6031
14631SOL    HW148578   3.524   1.045   5.687 -0.9279 -1.8678  1.4252
14631SOL    HW248579   3.396   1.122   5.663  0.5831  0.3164 -0.0547
14632SOL     OW48580   6.350  10.516   1.966  0.3867 -0.2232 -0.3636
14632SOL    HW148581   6.373  10.463   2.042 -0.6055  1.1227  0.9248
14632SOL    HW248582   6.355  10.606   1.997 -0.6972  0.3339 -1.6987
14633SOL     OW48583   9.605   5.939   0.938 -0.4806 -0.2271 -0.1052
14633SOL    HW148584   9.552   5.910   0.863 -1.3305  1.1288 -0.0775
14633SOL    HW248585   9.634   6.027   0.913  1.3582 -0.7457  0.1102
14634SOL     OW48586   0.115  10.511   3.536 -0.6312 -0.5570 -0.4382
14634SOL    HW148587   0.152  10.566   3.606 -0.4361  0.1021 -1.0408
14634SOL    HW248588   0.062  10.571   3.484 -0.4696 -0.9518 -1.0734
14635SOL     OW48589   7.369   7.713  10.262  0.1117  0.0613  0.6169
14635SOL    HW148590   7.329   7.649  10.321 -0.5534  0.8219  1.0174
14635SOL    HW248591   7.323   7.701  10.179 -0.1231  0.1190  0.7372
14636SOL     OW48592   3.012   4.564   4.410 -0.3994 -0.2731  0.7904
14636SOL    HW148593   2.987   4.507   4.337  2.4364 -0.9665  0.2534
14636SOL    HW248594   2.952   4.541   4.481 -2.0948 -0.8102 -0.7380
14637SOL     OW48595  11.373   7.070   9.211 -0.6062 -0.4901  0.3522
14637SOL    HW148596  11.454   7.075   9.263 -1.3461 -0.7566  1.5629
14637SOL    HW248597  11.317   7.138   9.248 -0.9366 -0.2763 -0.5139
14638SOL     OW48598   4.924   3.390   5.716 -0.1615 -0.3144 -0.2355
14638SOL    HW148599   4.979   3.316   5.743  0.0555  0.3349  1.1991
14638SOL    HW248600   4.851   3.349   5.668  1.3344 -1.2141 -1.8637
14639SOL     OW48601  11.625  10.911   2.278  0.0921  0.4133 -0.8220
14639SOL    HW148602  11.612  10.986   2.220  0.6602  0.8554 -0.3872
14639SOL    HW248603  11.542  10.901   2.324  0.2398  1.2333 -0.3552
14640SOL     OW48604  11.704   0.551   9.224 -0.1273  0.5950  0.5561
14640SOL    HW148605  11.698   0.462   9.258 -0.5203  0.0798 -0.7967
14640SOL    HW248606  11.635   0.599   9.270 -0.7439 -0.1127  0.3951
14641SOL     OW48607  11.846   8.068   0.095 -0.2718  0.2965 -0.6370
14641SOL    HW148608  11.763   8.020   0.088 -0.3692  0.4729 -0.6934
14641SOL    HW248609  11.911   8.000   0.114 -0.6463  0.3128  0.8873
14642SOL     OW48610   5.003   6.490   2.651  0.2554 -0.7557  0.9444
14642SOL    HW148611   4.945   6.416   2.634  0.1673 -0.2132 -1.3582
14642SOL    HW248612   4.950   6.567   2.633  1.2842 -0.2167  0.1487
14643SOL     OW48613   0.644   7.067  11.647  0.1498 -0.3182 -0.3205
14643SOL    HW148614   0.648   7.143  11.588 -3.1171  0.0942 -0.2062
14643SOL    HW248615   0.598   7.000  11.596 -3.0571  0.1548  1.6725
14644SOL     OW48616   0.327   3.476   5.923  0.3502 -0.2846 -0.1791
14644SOL    HW148617   0.393   3.428   5.873  1.3525  0.4699  0.3972
14644SOL    HW248618   0.258   3.494   5.859  1.8523  1.1489 -1.5043
14645SOL     OW48619   4.192   4.784   9.414 -0.6142  0.1494  0.1335
14645SOL    HW148620   4.239   4.836   9.349  0.2887  1.0859  1.4950
14645SOL    HW248621   4.252   4.713   9.437 -2.1588 -2.1842 -2.3554
14646SOL     OW48622   1.475  10.654   5.483  0.3312  0.4269 -0.1377
14646SOL    HW148623   1.390  10.637   5.523  0.8984  0.3029  1.0557
14646SOL    HW248624   1.526  10.697   5.552  1.1095  0.8598 -0.9615
14647SOL     OW48625   1.776   7.860   0.308 -0.0413 -0.3929  0.3329
14647SOL    HW148626   1.827   7.782   0.329  1.0610  0.2492  0.1185
14647SOL    HW248627   1.744   7.844   0.219 -1.9394 -1.6637  1.1679
14648SOL     OW48628  11.761   2.699   3.055 -0.5319 -0.4374 -0.0924
14648SOL    HW148629  11.819   2.730   3.124  0.2068 -2.1511  0.1145
14648SOL    HW248630  11.677   2.682   3.099 -0.3892 -0.4735  0.1632
14649SOL     OW48631   1.311   0.032   2.871  0.1806 -0.8277  0.6829
14649SOL    HW148632   1.252   0.008   2.941 -1.9251  2.4925  0.2811
14649SOL    HW248633   1.256   0.035   2.793  1.0308  1.3509  0.0830
14650SOL     OW48634   9.364   2.506  10.547  0.1759 -0.1517 -0.1734
14650SOL    HW148635   9.420   2.583  10.545 -2.1958  1.7115 -1.8570
14650SOL    HW248636   9.370   2.470  10.458 -0.7403 -0.2967 -0.1920
14651SOL     OW48637   3.275   4.789   8.622  0.3050  0.0258 -0.1965
14651SOL    HW148638   3.258   4.744   8.539 -0.7972  2.3898 -1.3485
14651SOL    HW248639   3.328   4.865   8.598  1.2104 -0.0011  1.5180
14652SOL     OW48640   9.821   5.127   3.581 -0.1529 -0.3833  0.1531
14652SOL    HW148641   9.769   5.052   3.551  0.2607 -0.6500  0.1016
14652SOL    HW248642   9.800   5.134   3.674 -1.4244  0.4326 -0.1700
14653SOL     OW48643  10.602  10.510   9.968  0.0094  0.2850 -0.0137
14653SOL    HW148644  10.561  10.509  10.055 -0.0275 -0.7049 -0.0376
14653SOL    HW248645  10.622  10.419   9.950  0.8229  0.5860 -0.6768
14654SOL     OW48646   5.808  11.593   4.344  0.2925  0.0342  0.0361
14654SOL    HW148647   5.890  11.575   4.299  0.7439  2.4166 -0.2469
14654SOL    HW248648   5.831  11.657   4.411 -0.8264 -1.5916  2.0662
14655SOL     OW48649   6.186  10.579   1.104 -0.4016 -0.1456 -0.3725
14655SOL    HW148650   6.199  10.552   1.194  1.1302 -3.8619 -1.5480
14655SOL    HW248651   6.268  10.621   1.079 -1.6329  3.1226  0.4615
14656SOL     OW48652   5.814   1.428   3.696  0.5978  0.0602  0.2243
14656SOL    HW148653   5.737   1.403   3.645 -1.1693 -0.0938  2.7890
14656SOL    HW248654   5.815   1.524   3.692  0.3045  0.0603  0.1462
14657SOL     OW48655   0.695   1.724   0.626  0.3157  0.0299  0.1369
14657SOL    HW148656   0.754   1.715   0.701 -1.9033  1.7718  2.2489
14657SOL    HW248657   0.607   1.709   0.662 -1.0032  2.5819 -1.7044
14658SOL     OW48658   1.668   2.948   6.737 -0.4905 -0.4587 -0.3438
14658SOL    HW148659   1.597   3.011   6.746  0.1615  0.0950  0.9780
14658SOL    HW248660   1.741   2.998   6.703 -0.0514 -0.5457  0.4552
14659SOL     OW48661   5.368   8.662  11.534  1.0057 -0.2782  0.2031
14659SOL    HW148662   5.300   8.623  11.479  0.6465 -0.1239  0.5301
14659SOL    HW248663   5.323   8.685  11.615  1.7988 -1.6418  1.0581
14660SOL     OW48664   2.138   0.511   7.675  0.1576 -0.0802  0.0877
14660SOL    HW148665   2.191   0.529   7.598 -1.5741 -1.0564 -1.3985
14660SOL    HW248666   2.146   0.591   7.728  0.2375  1.2487 -1.8089
14661SOL     OW48667   2.474   3.115   0.125  0.0067 -0.4702 -0.3473
14661SOL    HW148668   2.390   3.076   0.148 -0.7877  1.0541 -0.5409
14661SOL    HW248669   2.457   3.161   0.042  1.0013 -0.0554 -0.3366
14662SOL     OW48670   8.208   7.151   3.377  0.2050 -0.0515  0.7785
14662SOL    HW148671   8.200   7.241   3.406 -0.3028  0.5920 -1.1739
14662SOL    HW248672   8.297   7.126   3.399 -0.0195  0.5127  2.3987
14663SOL     OW48673  10.616   8.348  11.969 -0.7620 -0.3781 -0.1657
14663SOL    HW148674  10.661   8.416  12.019  1.8396 -0.9035 -1.6552
14663SOL    HW248675  10.586   8.286  12.035  0.9171 -0.1048  0.9158
14664SOL     OW48676   3.461  11.860   7.603  0.2685  0.4479  0.2750
14664SOL    HW148677   3.516  11.809   7.543  0.8348  0.8676  0.4328
14664SOL    HW248678   3.372  11.829   7.586  0.5217 -0.0386 -0.1820
14665SOL     OW48679   4.569   3.752   8.799 -0.4298 -0.5306 -0.1162
14665SOL    HW148680   4.573   3.776   8.706  0.1401 -1.4103 -0.3286
14665SOL    HW248681   4.485   3.787   8.829  0.5275  2.1761 -0.2582
14666SOL     OW48682   0.644   9.473   7.451  0.1865  0.5219  0.2000
14666SOL    HW148683   0.550   9.462   7.463  0.1145  1.1854  0.2742
14666SOL    HW248684   0.683   9.432   7.528 -0.0325  0.1007  0.0893
14667SOL     OW48685  10.309   1.876   8.931 -0.4268  0.0763 -0.0173
14667SOL    HW148686  10.391   1.830   8.953 -0.0473 -0.1341 -1.7271
14667SOL    HW248687  10.334   1.969   8.931 -1.2040  0.4341  3.4815
14668SOL     OW48688  10.098   8.651   3.253 -0.0949  0.7291 -0.0270
14668SOL    HW148689  10.138   8.606   3.178 -2.7289 -1.1025 -0.4709
14668SOL    HW248690  10.031   8.707   3.214  0.8518  2.5110  0.7939
14669SOL     OW48691   3.149   1.369   5.832 -0.0473 -0.5645 -0.4418
14669SOL    HW148692   3.193   1.359   5.748  0.4731  3.3099 -0.7986
14669SOL    HW248693   3.076   1.428   5.814  0.3695  0.7796  1.8376
14670SOL     OW48694   1.304   9.079   7.806  0.6723 -0.0778  0.1005
14670SOL    HW148695   1.342   9.164   7.784  0.7829  0.0388  0.7269
14670SOL    HW248696   1.296   9.034   7.722 -1.6596  1.4764 -0.6076
14671SOL     OW48697   9.852  10.211   3.768  0.2265  0.2149 -0.3475
14671SOL    HW148698   9.938  10.168   3.772 -0.5114 -1.3450 -0.5300
14671SOL    HW248699   9.822  10.214   3.859 -1.2554 -3.0583 -0.5604
14672SOL     OW48700   7.376  11.157   0.589  0.5152  0.3537  0.3800
14672SOL    HW148701   7.315  11.100   0.637 -2.5577  2.0079 -1.2218
14672SOL    HW248702   7.418  11.098   0.526 -1.0957 -0.5663  0.0872
14673SOL     OW48703   2.157   8.919   3.389 -0.4197 -0.1095  0.9147
14673SOL    HW148704   2.222   8.970   3.341 -0.9794 -0.7764 -0.6150
14673SOL    HW248705   2.209   8.862   3.447  0.3273 -0.1152  0.2535
14674SOL     OW48706   1.442   6.989   8.818 -0.9512  0.2384  0.5975
14674SOL    HW148707   1.380   6.965   8.887 -2.4407  0.0325 -0.7784
14674SOL    HW248708   1.410   6.945   8.740  1.3915 -0.5357 -0.0161
14675SOL     OW48709   4.670   4.701   1.820 -0.2892 -0.3734  0.0611
14675SOL    HW148710   4.622   4.681   1.901 -1.3385  0.4583 -0.3244
14675SOL    HW248711   4.603   4.736   1.761  0.3295 -1.5754 -1.4182
14676SOL     OW48712  11.635   4.227  10.657  0.1961 -0.2311 -0.0171
14676SOL    HW148713  11.699   4.168  10.698  0.0704 -0.5689 -0.2950
14676SOL    HW248714  11.668   4.315  10.675  0.8503 -0.4047 -0.3161
14677SOL     OW48715  11.693   8.915   4.385 -0.5678 -0.6045  0.1057
14677SOL    HW148716  11.766   8.952   4.335 -1.5396 -0.1258 -1.0157
14677SOL    HW248717  11.731   8.892   4.469  0.0291  3.5150  1.1700
14678SOL     OW48718   3.325   2.234   2.304 -0.5468 -0.4989  0.2455
14678SOL    HW148719   3.271   2.238   2.383  0.2991  0.6319  0.7962
14678SOL    HW248720   3.304   2.314   2.256  1.1857  0.3976  0.8766
14679SOL     OW48721   8.184   5.606  10.921 -0.3517  0.1672 -0.0521
14679SOL    HW148722   8.187   5.537  10.987  0.2921  1.3175  1.1832
14679SOL    HW248723   8.274   5.612  10.889  0.0122  1.5331  1.0999
14680SOL     OW48724   0.730   1.160   2.825 -0.3393  0.1053 -0.1831
14680SOL    HW148725   0.774   1.077   2.807  3.4555  1.5875  1.1572
14680SOL    HW248726   0.758   1.218   2.755  0.0757  1.1784  0.8278
14681SOL     OW48727   0.906   6.489  10.850 -0.6389  0.7013  0.4608
14681SOL    HW148728   0.813   6.472  10.864 -0.5212 -0.0446  0.4101
14681SOL    HW248729   0.929   6.555  10.916 -1.2493  1.0482  0.3277
14682SOL     OW48730   1.813   2.386   5.454  0.3732 -0.1260 -0.0092
14682SOL    HW148731   1.745   2.328   5.489  0.4940  0.2586  0.8779
14682SOL    HW248732   1.838   2.345   5.371 -0.8480 -0.3413 -0.2864
14683SOL     OW48733   4.969   6.247   2.079 -0.2322 -0.3154 -0.0375
14683SOL    HW148734   5.052   6.293   2.068 -0.1523  0.0691  1.8314
14683SOL    HW248735   4.904   6.305   2.038  0.0475  0.8700  1.1277
14684SOL     OW48736   9.559   9.229   6.078  0.2098  0.1410 -0.0760
14684SOL    HW148737   9.647   9.237   6.042 -0.9019  1.5956 -2.7702
14684SOL    HW248738   9.547   9.135   6.089  1.4302 -0.2333 -1.5474
14685SOL     OW48739   6.742   7.555   2.216 -0.2612 -0.4961 -0.0022
14685SOL    HW148740   6.750   7.486   2.282  1.0569  1.3486  1.8494
14685SOL    HW248741   6.732   7.636   2.266 -1.5210  0.7459 -2.1097
14686SOL     OW48742   7.161   5.403  11.215  0.0540 -0.1163 -0.0148
14686SOL    HW148743   7.113   5.320  11.225 -1.8815  0.9984  0.5543
14686SOL    HW248744   7.099   5.461  11.172  0.8145  1.4673  0.9323
14687SOL     OW48745   3.672   8.887   9.600  0.1574  0.0874 -0.3668
14687SOL    HW148746   3.636   8.874   9.512  1.3935  0.5924 -0.9758
14687SOL    HW248747   3.671   8.982   9.612  0.9875  0.0891 -0.2776
14688SOL     OW48748   7.122   5.450   3.864 -0.0957  0.2904 -0.3840
14688SOL    HW148749   7.067   5.449   3.942  0.1646  1.4501 -0.1726
14688SOL    HW248750   7.211   5.439   3.898 -0.0216  0.3332 -0.5651
14689SOL     OW48751   0.309   0.127   5.337  0.0596 -0.1561 -0.0829
14689SOL    HW148752   0.396   0.092   5.359  1.0288  2.0081 -0.1557
14689SOL    HW248753   0.279   0.168   5.418  0.9694  2.5865 -0.9950
14690SOL     OW48754   2.596   1.350  10.072 -0.0454 -0.1742  0.0516
14690SOL    HW148755   2.664   1.337  10.006 -0.9191 -1.3200 -0.6430
14690SOL    HW248756   2.526   1.396  10.027 -0.5311 -0.7061  0.2644
14691SOL     OW48757   3.372   0.877   9.497 -0.1655  0.5239  0.5232
14691SOL    HW148758   3.405   0.876   9.407  0.5923 -0.9309  0.7895
14691SOL    HW248759   3.364   0.970   9.518 -1.6180  0.9223 -1.4629
14692SOL     OW48760  10.568   9.795  10.716 -0.3176  0.5257 -0.4320
14692SOL    HW148761  10.640   9.732  10.721 -0.3801  0.4632 -0.3096
14692SOL    HW248762  10.503   9.753  10.659 -1.0526 -0.2214  0.8911
14693SOL     OW48763   0.653   8.363   2.808  0.1698  0.0418  0.0524
14693SOL    HW148764   0.622   8.295   2.868  1.5859 -1.4286 -0.8118
14693SOL    HW248765   0.680   8.435   2.865  1.2985 -1.2361  1.1946
14694SOL     OW48766   8.473   2.405   6.303 -0.0604  0.1223  0.4361
14694SOL    HW148767   8.512   2.446   6.226  1.1526 -0.0634  0.9222
14694SOL    HW248768   8.427   2.477   6.348  0.9935  0.6967  0.6276
14695SOL     OW48769   4.189   4.115   9.887 -0.3527  0.5077  0.6200
14695SOL    HW148770   4.265   4.139   9.834  0.3342 -0.1129  1.3048
14695SOL    HW248771   4.201   4.021   9.904 -1.6984  0.2139  0.0629
14696SOL     OW48772   1.075   5.629  10.706  0.1126 -0.1279 -0.4668
14696SOL    HW148773   1.061   5.709  10.756 -1.0707  1.6710 -3.4174
14696SOL    HW248774   0.998   5.575  10.724 -0.0273  0.2288  0.0386
14697SOL     OW48775   2.032  10.941   7.566  0.2052  0.0046  0.1152
14697SOL    HW148776   2.119  10.981   7.560  0.7396 -0.9382  1.1489
14697SOL    HW248777   1.971  11.013   7.550  1.1694  0.7831 -0.1462
14698SOL     OW48778   7.274  11.536   7.435 -0.2490  0.4711 -0.2035
14698SOL    HW148779   7.192  11.559   7.478  0.4140  1.0288  0.7951
14698SOL    HW248780   7.322  11.618   7.429  0.5846  0.0042 -0.0240
14699SOL     OW48781   0.499  10.679   3.121 -0.0595  0.1242  0.9643
14699SOL    HW148782   0.474  10.602   3.171  0.1614 -1.6421 -1.4755
14699SOL    HW248783   0.595  10.680   3.123 -0.0067 -0.6232 -0.2969
14700SOL     OW48784   7.902   1.065   2.777  1.0778 -0.2641 -0.7344
14700SOL    HW148785   7.964   1.001   2.812  1.3738 -0.2337 -1.1983
14700SOL    HW248786   7.945   1.149   2.786  1.4093 -0.3138 -1.6961
14701SOL     OW48787   3.888   4.971  11.205 -0.5967 -0.4780 -0.1631
14701SOL    HW148788   3.827   4.914  11.251 -2.4927  0.0536 -1.8695
14701SOL    HW248789   3.877   5.057  11.246  1.1347 -0.9291  1.3803
14702SOL     OW48790   8.524   0.912   3.754  0.2644 -0.5155  0.7114
14702SOL    HW148791   8.583   0.894   3.680  1.0954  0.8379  1.0254
14702SOL    HW248792   8.496   1.003   3.741 -0.3403 -0.5700  1.5517
14703SOL     OW48793   6.262  10.198  10.092  0.0972 -0.6917  0.0164
14703SOL    HW148794   6.355  10.185  10.073 -0.1914  0.0068 -2.1452
14703SOL    HW248795   6.229  10.110  10.112  0.9299 -1.1952 -0.7317
14704SOL     OW48796   8.664  11.731   8.922  0.1284 -0.1601 -0.4079
14704SOL    HW148797   8.747  11.769   8.949  0.4558 -1.1189 -0.0082
14704SOL    HW248798   8.597  11.789   8.959  0.6156  0.3808 -0.3798
14705SOL     OW48799   3.408   3.687   8.064 -0.0007  0.4955  0.0727
14705SOL    HW148800   3.334   3.700   8.124  1.1122  1.1703  1.3474
14705SOL    HW248801   3.373   3.630   7.996 -1.5919  0.4865  0.8406
14706SOL     OW48802   2.869  10.481   5.607  0.2516 -0.3122 -0.3027
14706SOL    HW148803   2.826  10.567   5.615  1.2085  0.2942 -1.3388
14706SOL    HW248804   2.815  10.422   5.659 -1.9800  0.3456 -1.7436
14707SOL     OW48805   5.695   0.094   5.003  0.4306 -0.2669 -0.6994
14707SOL    HW148806   5.700   0.082   4.908 -1.5532 -0.5479 -0.8037
14707SOL    HW248807   5.750   0.024   5.039  2.3453  0.6874 -1.6256
14708SOL     OW48808   0.382   4.242   5.762 -0.5787 -0.4016 -0.3096
14708SOL    HW148809   0.446   4.183   5.801 -0.9873 -0.3735  0.4232
14708SOL    HW248810   0.422   4.270   5.680  1.3476  1.3555  1.1205
14709SOL     OW48811   3.276   1.680   8.473 -0.3984 -0.0008  0.3093
14709SOL    HW148812   3.208   1.731   8.428 -0.4255 -1.0953 -0.9529
14709SOL    HW248813   3.294   1.608   8.414  0.0931 -1.1128  1.7701
14710SOL     OW48814  11.598   1.601   6.180 -0.0186 -0.1229  0.5415
14710SOL    HW148815  11.525   1.658   6.204 -0.9798 -1.2668  0.4177
14710SOL    HW248816  11.559   1.534   6.124  1.3912  0.0194 -0.6550
14711SOL     OW48817   1.313   3.697   1.952  0.0326  0.0550  0.2236
14711SOL    HW148818   1.387   3.727   2.005 -0.5653  0.8561  0.6415
14711SOL    HW248819   1.238   3.745   1.988 -1.0447 -2.1322  1.0779
14712SOL     OW48820  11.835   1.281   0.277  0.0640 -0.0633 -0.6162
14712SOL    HW148821  11.779   1.321   0.211 -1.3255 -1.2875 -0.2417
14712SOL    HW248822  11.838   1.189   0.254  1.0458 -0.2017  0.0031
14713SOL     OW48823   7.282   4.341  10.806 -0.1110 -0.1204  0.1788
14713SOL    HW148824   7.271   4.250  10.778  0.7280  0.2530 -1.4617
14713SOL    HW248825   7.200   4.362  10.851 -0.5626 -1.4954  0.0414
14714SOL     OW48826   4.445   8.844   3.076  0.1563 -0.2365 -0.4283
14714SOL    HW148827   4.480   8.932   3.092 -3.0044  0.9491  0.8085
14714SOL    HW248828   4.425   8.810   3.163  0.1822 -1.6713 -0.9685
14715SOL     OW48829   9.929   8.891   4.063 -0.8420  0.1466  0.2470
14715SOL    HW148830   9.925   8.977   4.104 -0.3938  0.8198 -1.0989
14715SOL    HW248831   9.929   8.908   3.969 -2.3422 -1.3909 -0.0821
14716SOL     OW48832   5.387  11.969   3.021 -0.7067 -0.5791 -0.2253
14716SOL    HW148833   5.313  11.915   3.050 -0.9054 -0.1547  0.0806
14716SOL    HW248834   5.438  11.984   3.100 -1.6934  1.2725  0.1200
14717SOL     OW48835   5.665   8.875   8.534 -0.2156  0.1149 -0.3911
14717SOL    HW148836   5.596   8.858   8.470 -0.4412 -0.2946 -0.0453
14717SOL    HW248837   5.711   8.952   8.501 -0.0779 -0.3319 -1.2488
14718SOL     OW48838   9.617   5.042   7.197  0.1289 -0.9646 -1.1024
14718SOL    HW148839   9.676   5.038   7.122  2.2950 -1.2130  0.5132
14718SOL    HW248840   9.645   4.970   7.253 -1.5487 -0.8957 -0.1191
14719SOL     OW48841   8.057  11.195   1.053  0.2487 -0.1492 -0.4594
14719SOL    HW148842   8.145  11.167   1.029  0.1893 -1.3425  0.5779
14719SOL    HW248843   8.012  11.208   0.970  1.3877  0.4706 -1.0045
14720SOL     OW48844   0.901   6.079   9.189  0.0672  0.0306 -0.0650
14720SOL    HW148845   0.914   6.110   9.099 -0.4795  1.1690  0.2315
14720SOL    HW248846   0.930   6.152   9.244 -1.1334 -0.0182  0.6634
14721SOL     OW48847   0.093   6.689   7.750 -0.2029  0.1038  0.5292
14721SOL    HW148848   0.127   6.611   7.793 -2.6328 -1.4770 -0.2472
14721SOL    HW248849   0.144   6.761   7.788  1.0186 -1.6676  2.4628
14722SOL     OW48850   6.643   1.853   7.648  0.6573  0.7723 -0.2861
14722SOL    HW148851   6.657   1.948   7.651  0.8775  0.7677 -0.9210
14722SOL    HW248852   6.701   1.818   7.715 -1.2474  1.2583  1.7307
14723SOL     OW48853  11.979   8.430   9.950  0.3387 -0.7482 -0.2746
14723SOL    HW148854  12.021   8.517   9.945  2.9278 -1.9202 -0.8693
14723SOL    HW248855  11.946   8.415   9.862 -0.4722 -0.2193 -0.0678
14724SOL     OW48856   8.887   6.327  11.671  0.2437  0.1595  0.4188
14724SOL    HW148857   8.886   6.233  11.686 -0.6091  0.0933 -0.0041
14724SOL    HW248858   8.804   6.359  11.709  0.3111  0.6681  0.1491
14725SOL     OW48859   1.889   1.779   4.696 -0.7804 -0.3317  0.1700
14725SOL    HW148860   1.958   1.717   4.670 -0.4495 -0.8950  2.2140
14725SOL    HW248861   1.918   1.863   4.661  1.9163 -0.2025  2.3601
14726SOL     OW48862   6.137   8.158  10.621  0.5920  0.0533  0.5112
14726SOL    HW148863   6.103   8.212  10.550  0.0074  0.1670  0.8681
14726SOL    HW248864   6.060   8.116  10.659  1.0363 -1.0957  0.2060
14727SOL     OW48865   1.686   2.728  10.263 -0.6124 -0.4413  0.0355
14727SOL    HW148866   1.616   2.677  10.304 -0.2389 -0.6393  0.4292
14727SOL    HW248867   1.759   2.723  10.324 -0.0116 -0.8239 -0.6947
14728SOL     OW48868   8.314   4.135   8.250  0.4052  0.1681 -0.2388
14728SOL    HW148869   8.252   4.063   8.239  2.5878 -2.4560  2.8716
14728SOL    HW248870   8.302   4.164   8.340  1.8786  1.3508 -0.3869
14729SOL     OW48871   6.347   3.937   5.854 -0.2805 -0.5523 -0.1563
14729SOL    HW148872   6.326   4.015   5.906 -2.4992  0.4326 -2.3448
14729SOL    HW248873   6.299   3.866   5.896 -0.9169 -0.0622 -0.0460
14730SOL     OW48874  11.574   5.016  11.277 -0.2584  0.1716 -0.0668
14730SOL    HW148875  11.505   4.951  11.269 -1.9873  1.8711  0.4531
14730SOL    HW248876  11.621   4.992  11.357  0.6089 -1.7229 -1.0856
14731SOL     OW48877   7.055   9.520  11.284  0.4983 -0.0164  0.1256
14731SOL    HW148878   6.966   9.519  11.250  0.4140  1.7713  0.1698
14731SOL    HW248879   7.089   9.606  11.259  1.0372  0.6987  2.9636
14732SOL     OW48880  11.193   1.121   7.795 -0.1761  0.4228  0.4934
14732SOL    HW148881  11.103   1.093   7.814 -0.0120 -1.3654 -1.1168
14732SOL    HW248882  11.187   1.163   7.709  0.5327  0.3908  0.4276
14733SOL     OW48883   8.686   9.945   4.392 -0.2072 -0.1622 -0.1010
14733SOL    HW148884   8.780   9.926   4.393  0.1802  1.0162 -3.1609
14733SOL    HW248885   8.680  10.034   4.427 -0.4473 -0.8768  1.7599
14734SOL     OW48886   0.251  10.178  11.338 -0.1940 -0.1848 -0.0322
14734SOL    HW148887   0.278  10.116  11.270  0.2332  0.6306 -0.6283
14734SOL    HW248888   0.158  10.191  11.323  0.1853  1.1883 -1.5079
14735SOL     OW48889   7.337   3.053  10.864 -0.0229 -0.0950 -0.2519
14735SOL    HW148890   7.357   2.971  10.820  0.6264  0.0631 -0.2661
14735SOL    HW248891   7.244   3.068  10.846 -0.3628 -1.2370  0.4571
14736SOL     OW48892   7.687  11.723   7.576 -0.1923 -0.0989  0.6117
14736SOL    HW148893   7.766  11.674   7.552  0.4483  0.3812  1.6682
14736SOL    HW248894   7.717  11.787   7.641 -0.7337  2.5109 -1.5112
14737SOL     OW48895   0.794  10.278   1.238 -0.3996  0.2136 -0.2874
14737SOL    HW148896   0.874  10.301   1.285 -0.7605  1.0959 -0.0940
14737SOL    HW248897   0.739  10.235   1.304  0.4538 -1.7190 -0.7562
14738SOL     OW48898   2.040   4.570   9.475 -0.4012 -0.0824  0.1079
14738SOL    HW148899   2.097   4.497   9.498 -0.4021 -0.3666 -0.7736
14738SOL    HW248900   2.067   4.641   9.533 -1.2603 -1.1502  1.9193
14739SOL     OW48901   9.738   8.668   7.451  0.3930 -0.0454  0.1252
14739SOL    HW148902   9.654   8.700   7.417  1.8708  1.8960 -2.0251
14739SOL    HW248903   9.749   8.582   7.411 -0.7114 -0.4845  0.7285
14740SOL     OW48904   5.098   2.922   7.771  0.2962 -0.9220  0.3885
14740SOL    HW148905   5.112   2.829   7.788  0.6069 -1.2116 -1.2952
14740SOL    HW248906   5.059   2.956   7.852  0.1412 -2.5148  1.0088
14741SOL     OW48907   8.191   1.338   8.784 -0.2435 -0.0506  0.4657
14741SOL    HW148908   8.181   1.250   8.747 -2.3128  1.0985 -1.9980
14741SOL    HW248909   8.242   1.386   8.719 -2.8528  1.6859 -0.4298
14742SOL     OW48910   1.480  10.825   5.109 -0.1963  0.4560  0.5214
14742SOL    HW148911   1.415  10.765   5.145 -1.0900  0.6706 -0.6557
14742SOL    HW248912   1.557  10.770   5.092 -1.1458 -0.4794 -0.9386
14743SOL     OW48913   7.547   8.586  11.968  0.1927 -0.0007  0.5102
14743SOL    HW148914   7.516   8.656  11.911 -0.4810  0.7258  1.7237
14743SOL    HW248915   7.640   8.578  11.949 -0.0044  0.2548 -0.6319
14744SOL     OW48916   0.911   7.712   2.510 -0.4306 -0.0370 -0.0622
14744SOL    HW148917   0.858   7.679   2.438 -0.2219 -0.0348 -0.2181
14744SOL    HW248918   0.967   7.779   2.470 -0.6139  0.2664  0.1840
14745SOL     OW48919   0.515   4.483  11.683  0.0066  0.0792 -0.2766
14745SOL    HW148920   0.516   4.543  11.758  1.4126  0.2842 -0.4165
14745SOL    HW248921   0.454   4.523  11.621  0.2605  0.9123 -0.0042
14746SOL     OW48922   0.121   4.332   7.572 -0.4920 -0.3370 -0.0795
14746SOL    HW148923   0.189   4.303   7.633 -1.2661 -2.0452  0.0266
14746SOL    HW248924   0.161   4.322   7.485  0.5541  1.9461  0.0848
14747SOL     OW48925   5.425  10.855   5.506 -0.8022  0.0390 -0.1602
14747SOL    HW148926   5.495  10.919   5.502 -0.0353 -0.7756 -0.1597
14747SOL    HW248927   5.406  10.846   5.600  0.5497 -1.2460  0.0266
14748SOL     OW48928   0.814   3.913   3.881 -0.0781 -0.5545 -0.0480
14748SOL    HW148929   0.840   3.834   3.834 -0.7297  0.1968 -1.7762
14748SOL    HW248930   0.829   3.984   3.819  0.4580  0.7000  1.4512
14749SOL     OW48931   1.476   6.724   8.398 -0.6036  0.1399  0.1550
14749SOL    HW148932   1.516   6.792   8.343 -0.9874  1.0126  0.9285
14749SOL    HW248933   1.445   6.658   8.336  0.0787  0.5001 -0.5908
14750SOL     OW48934   0.892   3.132   8.327  0.1752 -0.5746 -0.4694
14750SOL    HW148935   0.884   3.078   8.405  2.7120 -0.7995 -0.2946
14750SOL    HW248936   0.947   3.082   8.268 -0.3450  0.3133 -1.7601
14751SOL     OW48937   4.331   7.433   8.457 -0.1314  0.0791  0.6907
14751SOL    HW148938   4.376   7.429   8.372  0.9328 -0.7974  1.2620
14751SOL    HW248939   4.310   7.525   8.469  0.1297  0.2837 -0.3071
14752SOL     OW48940   6.782   7.607   5.456 -0.1142  0.5506 -0.4816
14752SOL    HW148941   6.840   7.531   5.466  1.3014  1.7964  1.1995
14752SOL    HW248942   6.719   7.598   5.528  0.2415  1.1219 -0.0968
14753SOL     OW48943  10.812   4.553  10.523  0.1051  0.5100  0.1574
14753SOL    HW148944  10.774   4.638  10.500  1.8285  1.3454  0.1705
14753SOL    HW248945  10.805   4.549  10.619 -1.4921 -0.1569  0.0371
14754SOL     OW48946   1.232   2.808   1.917  0.5142  0.3316  0.2696
14754SOL    HW148947   1.167   2.873   1.943  0.9818  0.5714  0.8741
14754SOL    HW248948   1.253   2.762   1.998  0.4192 -0.3723 -0.0935
14755SOL     OW48949   7.190   5.763  11.435 -0.1451 -0.0057  0.6984
14755SOL    HW148950   7.125   5.750  11.504 -0.5218 -1.0367  0.1598
14755SOL    HW248951   7.163   5.844  11.392 -1.1150 -0.4583  0.4378
14756SOL     OW48952   2.346   1.746   9.025  0.1771  0.0149  0.0510
14756SOL    HW148953   2.281   1.814   9.010  0.9635  0.7179 -0.2193
14756SOL    HW248954   2.357   1.703   8.940 -0.8682 -0.9718  0.3872
14757SOL     OW48955   1.810   7.502   5.545 -0.2927 -0.0541  1.0330
14757SOL    HW148956   1.767   7.475   5.626  0.1992  0.1410  1.3665
14757SOL    HW248957   1.837   7.593   5.561  1.0735 -0.4605  1.1921
14758SOL     OW48958   3.486   9.903   9.318  0.3619 -0.0674  0.1847
14758SOL    HW148959   3.561   9.846   9.339 -0.8424 -1.0248  2.2102
14758SOL    HW248960   3.446   9.862   9.241  0.0329 -1.5336  1.0841
14759SOL     OW48961   8.950   5.487   0.217 -0.2362  0.0247 -0.5429
14759SOL    HW148962   8.958   5.410   0.161  0.3401  0.4165 -1.0109
14759SOL    HW248963   8.862   5.480   0.255  0.6827 -2.1663  1.3926
14760SOL     OW48964   9.125   7.468   3.589  0.1077 -0.2975 -0.6358
14760SOL    HW148965   9.168   7.405   3.531  2.8332  3.1088 -2.6782
14760SOL    HW248966   9.089   7.534   3.530 -0.0863  1.5862  1.4611
14761SOL     OW48967   9.511   7.780   1.819 -0.0964 -0.3648 -1.0821
14761SOL    HW148968   9.457   7.828   1.756  0.1862 -2.7775 -3.3625
14761SOL    HW248969   9.574   7.732   1.765  0.8802 -1.7522  1.1282
14762SOL     OW48970  10.455  10.432   9.021 -0.6088  0.0325 -0.3250
14762SOL    HW148971  10.401  10.378   9.078  0.2281 -0.0403  0.4299
14762SOL    HW248972  10.425  10.413   8.933  0.3553 -2.4936 -0.1894
14763SOL     OW48973   3.763   5.740  10.322  0.7394 -0.4663  0.3326
14763SOL    HW148974   3.846   5.705  10.354  0.9509 -2.6579 -2.2102
14763SOL    HW248975   3.713   5.663  10.295 -0.7666  0.9664 -1.2626
14764SOL     OW48976   0.641  10.937  11.275  0.2890  0.2018 -0.2269
14764SOL    HW148977   0.657  10.843  11.265 -0.1880  0.2699 -1.9622
14764SOL    HW248978   0.550  10.948  11.248 -0.6128  0.8050  2.6800
14765SOL     OW48979   4.748   4.041   9.965  0.5246 -0.3001 -0.3548
14765SOL    HW148980   4.675   4.080   9.916  0.4133  0.0160  0.0570
14765SOL    HW248981   4.775   3.966   9.912  0.1940 -0.1540 -0.7364
14766SOL     OW48982   6.753   2.461   7.703  0.2639  0.2619  0.6023
14766SOL    HW148983   6.783   2.371   7.689  1.8181  0.5112  1.8924
14766SOL    HW248984   6.784   2.482   7.791  0.2856  2.1994  0.1726
14767SOL     OW48985   6.922   6.734   1.178 -0.0303  0.0610 -0.1033
14767SOL    HW148986   6.907   6.640   1.166 -0.7702  0.2979 -1.1333
14767SOL    HW248987   6.997   6.754   1.123  1.8473 -0.3806  2.1093
14768SOL     OW48988   9.050  11.293  11.953 -0.0450  0.1163 -0.0708
14768SOL    HW148989   9.043  11.372  12.006 -1.4920  0.8562 -1.3006
14768SOL    HW248990   9.028  11.221  12.013  0.1085  0.7510  0.7577
14769SOL     OW48991   7.684   4.448  10.108 -0.3103 -0.0793  0.7491
14769SOL    HW148992   7.712   4.375  10.163 -1.1858 -0.6033  0.5105
14769SOL    HW248993   7.650   4.513  10.170 -0.1901 -0.1666  0.9071
14770SOL     OW48994  10.922   8.661   6.311  0.4490 -0.0146  0.5744
14770SOL    HW148995  11.012   8.628   6.315  1.1142  1.3900 -1.4579
14770SOL    HW248996  10.880   8.610   6.242 -0.5209 -0.9536  1.7847
14771SOL     OW48997  10.948  10.408   5.621 -0.2037  0.2114 -0.3123
14771SOL    HW148998  10.863  10.453   5.616  0.6368  1.8630 -0.1490
14771SOL    HW248999  10.944  10.342   5.551 -0.8399  1.6491 -1.6907
14772SOL     OW49000   5.548  11.747   7.305 -0.1738  0.3686 -0.4721
14772SOL    HW149001   5.623  11.761   7.247 -0.4458 -2.6422 -1.7408
14772SOL    HW249002   5.483  11.810   7.275  0.6413  0.6662 -1.7022
14773SOL     OW49003   1.719  10.790   2.509  0.3447  0.2878 -0.5800
14773SOL    HW149004   1.657  10.863   2.519 -0.5264 -0.2201 -1.9167
14773SOL    HW249005   1.695  10.750   2.426 -1.7551 -3.9010  1.7168
14774SOL     OW49006   0.460   7.405   4.537  0.0501  0.1419  0.4185
14774SOL    HW149007   0.510   7.329   4.566  1.4246  0.3566 -1.1779
14774SOL    HW249008   0.441   7.455   4.617  1.2360 -0.6488  1.2150
14775SOL     OW49009   4.110   0.308   6.169 -0.1393 -0.2012  0.0918
14775SOL    HW149010   4.044   0.262   6.221 -0.8363 -0.0928 -0.6671
14775SOL    HW249011   4.095   0.401   6.189 -0.6471 -0.1359 -0.5575
14776SOL     OW49012   5.901   8.083  10.715 -0.5683 -0.0256 -0.1370
14776SOL    HW149013   5.913   8.173  10.744 -1.5166 -0.0530  0.3929
14776SOL    HW249014   5.895   8.032  10.795 -0.5618 -0.4866 -0.4237
14777SOL     OW49015   4.927  10.111   4.035 -0.1314  0.0983  0.1354
14777SOL    HW149016   4.866  10.180   4.057  0.6533  1.0504 -0.5862
14777SOL    HW249017   4.912  10.094   3.942  0.8821  0.5469 -0.1227
14778SOL     OW49018   2.591  11.175   9.149  0.2286 -0.3214 -0.1358
14778SOL    HW149019   2.604  11.233   9.224  0.0714  0.6323 -0.8287
14778SOL    HW249020   2.523  11.218   9.097  0.8991 -0.5566 -1.2341
14779SOL     OW49021   4.222   3.942   5.576 -0.0511 -0.2044  0.1237
14779SOL    HW149022   4.275   3.864   5.589 -0.0648 -0.0023  1.4900
14779SOL    HW249023   4.267   4.011   5.624 -1.0160  0.1971  0.4868
14780SOL     OW49024  11.925   9.086   1.028  0.1729  0.5618 -0.1176
14780SOL    HW149025  12.000   9.140   1.054 -1.7067  2.6219  1.4074
14780SOL    HW249026  11.925   9.013   1.090  0.8974  0.5529 -0.1205
14781SOL     OW49027   9.943   0.119   3.869  0.3622 -0.4905 -1.2815
14781SOL    HW149028   9.857   0.085   3.844  0.5054 -0.9483 -1.1668
14781SOL    HW249029   9.928   0.167   3.950 -0.2698  1.7651 -2.6491
14782SOL     OW49030  11.959   2.291   5.977 -0.0178 -0.3175  0.5806
14782SOL    HW149031  11.983   2.211   6.024  1.4219  0.3081  0.9869
14782SOL    HW249032  11.967   2.361   6.042 -1.2939  0.1662  0.2415
14783SOL     OW49033   5.579   5.065   3.475 -0.5182 -0.0991  0.0927
14783SOL    HW149034   5.510   5.114   3.519 -0.4560 -0.2359  0.3432
14783SOL    HW249035   5.613   5.006   3.542  0.2789  0.4157  0.1439
14784SOL     OW49036   1.698   8.967   9.589 -0.3003 -0.1509 -0.1033
14784SOL    HW149037   1.781   8.948   9.546 -0.0213 -0.7367  0.6617
14784SOL    HW249038   1.690   9.062   9.587 -0.1803 -0.1622 -1.2204
14785SOL     OW49039   5.741  11.544   0.732  0.4727  0.2352 -0.4338
14785SOL    HW149040   5.799  11.511   0.663  0.1320  1.8243 -1.5362
14785SOL    HW249041   5.708  11.465   0.775  1.8032 -0.7618 -1.1494
14786SOL     OW49042   0.861   8.651  10.604 -0.1925  0.2759  0.0314
14786SOL    HW149043   0.947   8.624  10.636  0.7241  1.8389 -0.9607
14786SOL    HW249044   0.872   8.744  10.582 -1.1127 -0.3063 -3.4500
14787SOL     OW49045   1.735   5.582   1.373  0.2534  0.4683  0.3699
14787SOL    HW149046   1.649   5.592   1.414  0.2398  0.5131  0.3315
14787SOL    HW249047   1.716   5.552   1.284  0.3273 -0.6485  0.7157
14788SOL     OW49048   2.492   9.151   3.868  0.1414 -0.0523 -0.0417
14788SOL    HW149049   2.464   9.215   3.933 -1.7576  0.5571 -1.3900
14788SOL    HW249050   2.529   9.203   3.797  0.0679 -0.5485 -0.4535
14789SOL     OW49051   7.809   3.241   2.333  0.2236 -0.0669  0.2683
14789SOL    HW149052   7.866   3.280   2.399  0.3096  0.1863  0.0471
14789SOL    HW249053   7.720   3.256   2.366  0.2721 -0.1232  0.4261
14790SOL     OW49054   4.712  10.593   9.624  0.0384  0.0630 -0.6547
14790SOL    HW149055   4.674  10.643   9.697  0.6477  0.8190 -0.8411
14790SOL    HW249056   4.711  10.502   9.654 -1.3178  0.1438 -0.4017
14791SOL     OW49057   0.962  10.713   5.059 -1.1711 -0.4471  0.4544
14791SOL    HW149058   0.943  10.794   5.013 -0.7631 -0.9318 -0.6015
14791SOL    HW249059   0.905  10.715   5.136 -2.0920  0.2442 -0.2191
14792SOL     OW49060   1.721   0.157   5.863  0.2336 -0.1791  0.5534
14792SOL    HW149061   1.786   0.139   5.930  0.5970  1.7666  0.7909
14792SOL    HW249062   1.720   0.079   5.808  0.0435 -1.7588  2.6792
14793SOL     OW49063   8.629   1.117  11.902  0.0976  0.2312 -0.0835
14793SOL    HW149064   8.675   1.126  11.985  0.3570  0.5055 -0.2554
14793SOL    HW249065   8.697   1.096  11.839  0.0596  1.0663 -0.4220
14794SOL     OW49066   5.647   2.557   8.442  0.2177  0.1696  0.1024
14794SOL    HW149067   5.555   2.560   8.467 -0.2871 -1.5809 -1.3554
14794SOL    HW249068   5.650   2.600   8.357  0.5649 -0.6472 -0.3033
14795SOL     OW49069   2.524   4.589   7.449 -0.4228 -0.3811  0.6763
14795SOL    HW149070   2.568   4.613   7.530  0.3932  0.8652 -0.1070
14795SOL    HW249071   2.476   4.509   7.471  0.6075 -0.6498  2.0996
14796SOL     OW49072  10.054   8.639  11.308  0.3370 -0.6243 -0.7776
14796SOL    HW149073  10.062   8.553  11.267  0.9901 -0.1954 -1.6001
14796SOL    HW249074  10.144   8.671  11.313 -0.0784  1.1716 -3.1134
14797SOL     OW49075   5.430   1.452  10.600 -0.2558  0.4843 -0.2431
14797SOL    HW149076   5.458   1.451  10.691  0.3186  0.9281 -0.4064
14797SOL    HW249077   5.335   1.461  10.604 -0.8633 -3.8851  0.4055
14798SOL     OW49078  10.661   3.172   1.966  0.1630  0.0165  0.0084
14798SOL    HW149079  10.675   3.078   1.970 -2.0187 -0.5012 -2.1982
14798SOL    HW249080  10.594   3.190   2.032  0.4658  0.0123  0.3203
14799SOL     OW49081  11.756   4.292   8.246 -0.3268 -0.4862  0.6738
14799SOL    HW149082  11.831   4.338   8.209  0.1626 -0.6797  1.3949
14799SOL    HW249083  11.793   4.239   8.317 -1.0490 -1.0942  0.6117
14800SOL     OW49084   5.677   1.639   6.666 -0.2440 -0.4107  0.1492
14800SOL    HW149085   5.637   1.726   6.666  1.4230  0.4266 -1.0842
14800SOL    HW249086   5.741   1.643   6.737 -0.3323 -0.7147  0.2443
14801SOL     OW49087   9.981   4.026   3.950  0.3889 -0.3747 -0.0658
14801SOL    HW149088   9.896   4.051   3.913  1.0223  2.5390  0.2376
14801SOL    HW249089   9.963   3.945   3.997 -2.1914  0.0530 -0.1653
14802SOL     OW49090  10.496   1.284   4.747  0.4141 -0.1148 -0.2814
14802SOL    HW149091  10.567   1.245   4.696  0.8066 -0.0197  0.1843
14802SOL    HW249092  10.444   1.332   4.682  1.2523  0.5035 -0.5118
14803SOL     OW49093   5.753   0.391   5.427 -0.5688 -0.2461 -0.2438
14803SOL    HW149094   5.689   0.386   5.357  0.5770 -1.5200 -1.2514
14803SOL    HW249095   5.815   0.458   5.399  0.7624 -1.8478 -1.2502
14804SOL     OW49096   1.996   8.503   8.957  0.2803  0.1155 -0.2583
14804SOL    HW149097   2.087   8.533   8.957 -0.1236  1.4404 -1.1257
14804SOL    HW249098   1.995   8.429   8.896  0.7456  0.2079 -0.3820
14805SOL     OW49099   3.094   3.303   8.794  0.4140 -0.4052 -0.4351
14805SOL    HW149100   3.137   3.318   8.878 -1.1361 -0.5577  0.4175
14805SOL    HW249101   3.005   3.335   8.807  0.5694  1.0746 -2.5387
14806SOL     OW49102   0.543   4.585   7.937  0.3469  0.0703  0.9954
14806SOL    HW149103   0.557   4.543   8.022  0.0346 -2.8097 -0.2514
14806SOL    HW249104   0.628   4.579   7.893  0.4287  1.2690  0.9458
14807SOL     OW49105   9.243   8.431   1.145  0.1468 -0.1959  0.1098
14807SOL    HW149106   9.160   8.473   1.123  0.5197  0.4716 -0.0563
14807SOL    HW249107   9.310   8.487   1.105  0.5793 -2.3462 -2.4372
14808SOL     OW49108   1.010   4.332   4.995 -0.1679  0.2451  0.1931
14808SOL    HW149109   1.072   4.406   4.995  1.1881 -0.7233 -3.0205
14808SOL    HW249110   1.065   4.255   5.011 -1.2450 -0.3059  1.3998
14809SOL     OW49111   2.594   4.271   7.398  0.2943  0.2921  0.7040
14809SOL    HW149112   2.627   4.236   7.481  0.2878 -2.1332 -0.2548
14809SOL    HW249113   2.501   4.251   7.400 -0.2730  2.6767  1.2272
14810SOL     OW49114   1.133   4.948   6.224 -0.4987 -0.0021  0.0222
14810SOL    HW149115   1.121   5.016   6.290 -1.5578  1.7496 -1.8520
14810SOL    HW249116   1.076   4.974   6.151 -1.7976 -3.4605 -0.4345
14811SOL     OW49117   8.515   1.841   7.626  0.4703  0.0857  0.0377
14811SOL    HW149118   8.485   1.877   7.542  2.1016 -1.3826 -1.2611
14811SOL    HW249119   8.595   1.890   7.645 -0.1463  0.7425  1.0325
14812SOL     OW49120   4.420   5.985   2.582 -0.2818 -0.0503  0.6248
14812SOL    HW149121   4.348   5.927   2.557 -0.0458 -0.0410 -0.1001
14812SOL    HW249122   4.380   6.049   2.641 -0.7260 -0.4365  0.7475
14813SOL     OW49123   7.719   4.555   5.828  0.3571  0.3541  0.4250
14813SOL    HW149124   7.755   4.497   5.761 -3.1240  1.4338 -2.6859
14813SOL    HW249125   7.656   4.501   5.875  0.3140  0.4966  0.5318
14814SOL     OW49126   0.630   0.417   9.373 -0.4613 -0.7793  0.2662
14814SOL    HW149127   0.617   0.506   9.407  0.7392 -1.1719  1.8374
14814SOL    HW249128   0.556   0.367   9.407  0.1713 -0.9290  1.4417
14815SOL     OW49129   8.452   6.458   5.073  0.2396 -0.6669  0.3167
14815SOL    HW149130   8.367   6.503   5.072  0.7487  0.3797  1.1227
14815SOL    HW249131   8.438   6.377   5.025 -0.7078  0.4053 -1.2993
14816SOL     OW49132   4.578   2.871   4.986 -0.0838 -0.1736  0.1126
14816SOL    HW149133   4.595   2.778   4.996 -0.5142 -0.2005  0.6506
14816SOL    HW249134   4.486   2.876   4.960  0.1358  0.0666 -0.6479
14817SOL     OW49135   7.309   3.631  11.206  0.2679  0.0391 -0.3389
14817SOL    HW149136   7.373   3.576  11.251  0.7206  1.0377  0.2663
14817SOL    HW249137   7.255   3.569  11.156  0.6577 -0.9564  0.4435
14818SOL     OW49138   1.481  11.766   4.002  0.1471  0.7040 -0.2794
14818SOL    HW149139   1.499  11.792   4.093  0.1379  0.8192 -0.3103
14818SOL    HW249140   1.396  11.804   3.983  0.4120  1.1763 -0.5298
14819SOL     OW49141   4.340   5.226   4.566  0.1154  0.2592  0.2915
14819SOL    HW149142   4.295   5.192   4.489 -0.6577 -0.2366  0.9505
14819SOL    HW249143   4.389   5.151   4.600 -1.1119 -0.0763  1.3995
14820SOL     OW49144   4.031  11.074  11.773 -0.0693  0.2887  0.3064
14820SOL    HW149145   3.972  11.038  11.839 -1.0419  3.1068  1.1087
14820SOL    HW249146   4.118  11.070  11.814 -0.2878 -0.3093  0.7222
14821SOL     OW49147   6.457  11.760   0.329 -0.6511 -0.5006 -0.1636
14821SOL    HW149148   6.532  11.793   0.281 -0.8748 -0.7588 -0.7005
14821SOL    HW249149   6.488  11.679   0.369 -0.2745  0.0424  0.6742
14822SOL     OW49150   3.044   0.759   8.009  0.0574  0.1747 -0.0440
14822SOL    HW149151   3.060   0.804   8.092  0.0357 -0.4999  0.3337
14822SOL    HW249152   3.108   0.798   7.948  1.6272 -0.8895  0.8700
14823SOL     OW49153   7.809   8.905   9.846 -0.2932 -0.2466 -0.1998
14823SOL    HW149154   7.845   8.825   9.885  1.1275 -0.5800 -2.0569
14823SOL    HW249155   7.859   8.976   9.887  1.1808 -0.5881 -1.3568
14824SOL     OW49156  11.448   3.948   8.416 -0.1797 -0.8015 -0.0166
14824SOL    HW149157  11.356   3.924   8.405 -0.4489  0.3954 -0.6004
14824SOL    HW249158  11.486   3.934   8.329 -0.1867  0.1750 -0.1858
14825SOL     OW49159  10.507   3.772   1.829  0.4004  0.1814 -0.3878
14825SOL    HW149160  10.545   3.688   1.855 -0.2724 -0.2080 -0.6593
14825SOL    HW249161  10.574   3.836   1.854  0.2606 -0.2733  1.2643
14826SOL     OW49162   2.234   2.940   6.034  0.1147 -0.2194  0.4563
14826SOL    HW149163   2.296   3.013   6.040  1.2529 -0.9012 -1.8426
14826SOL    HW249164   2.159   2.977   5.986 -0.3753  0.0402  1.3954
14827SOL     OW49165   3.212   6.239  11.457 -0.2158 -0.9134 -0.0320
14827SOL    HW149166   3.278   6.295  11.499 -0.8912  1.4302 -1.8323
14827SOL    HW249167   3.262   6.182  11.399  0.4101 -1.3910  0.9439
14828SOL     OW49168   7.508   7.467   3.364  0.1637 -0.6824 -0.0010
14828SOL    HW149169   7.472   7.475   3.275 -0.8051 -1.3927  0.3029
14828SOL    HW249170   7.597   7.501   3.357 -0.3933  0.6620 -0.9100
14829SOL     OW49171   4.549  11.502   3.887 -0.3387  1.2318 -0.0141
14829SOL    HW149172   4.589  11.502   3.800 -1.5173 -0.5533 -0.6115
14829SOL    HW249173   4.455  11.497   3.870 -0.5236 -0.7369  1.3309
14830SOL     OW49174  10.605   3.376   3.353 -0.6984 -0.0663 -0.3257
14830SOL    HW149175  10.547   3.307   3.384  0.0120 -0.2214  0.6968
14830SOL    HW249176  10.639   3.344   3.270 -1.3612 -0.3729 -0.4832
14831SOL     OW49177   8.516   4.003   1.695  0.1924  0.3664  0.0794
14831SOL    HW149178   8.445   4.046   1.742  0.6266  0.6816  0.4619
14831SOL    HW249179   8.473   3.946   1.631 -0.3970  0.8665  0.0272
14832SOL     OW49180   9.118   9.555   0.737  0.2329  0.1141  0.3373
14832SOL    HW149181   9.051   9.617   0.765  0.5353  0.4055  0.4271
14832SOL    HW249182   9.150   9.589   0.654  1.8308  1.2342  1.3494
14833SOL     OW49183  10.133   0.955   9.187  0.2041  0.0685  0.1371
14833SOL    HW149184  10.128   0.872   9.140 -0.8524  0.6937 -0.8751
14833SOL    HW249185  10.110   1.022   9.123  2.2844  1.3065  0.5742
14834SOL     OW49186  11.721   4.520  10.784  0.5957  0.4520  0.0092
14834SOL    HW149187  11.638   4.483  10.815 -1.1168  1.4181 -2.9755
14834SOL    HW249188  11.743   4.585  10.851 -0.0940 -0.9721  1.7273
14835SOL     OW49189  10.978   3.325   2.504  0.0438  0.3880 -0.2515
14835SOL    HW149190  11.052   3.382   2.483 -0.2005  0.8482  0.1189
14835SOL    HW249191  11.016   3.253   2.555  0.5787 -0.5310 -1.8614
14836SOL     OW49192   2.855   3.213   7.168 -0.6137 -0.3207 -0.4122
14836SOL    HW149193   2.949   3.197   7.158 -0.8052 -1.9090 -0.0498
14836SOL    HW249194   2.849   3.285   7.231  0.3623  0.8854 -1.6375
14837SOL     OW49195   1.024   5.921   5.155 -0.4420 -0.0668  0.7031
14837SOL    HW149196   1.023   5.825   5.155 -0.3714 -0.0716  0.2135
14837SOL    HW249197   0.996   5.945   5.067 -1.0521  0.3760  1.0079
14838SOL     OW49198  11.796   0.128   1.534  1.0093  0.0435 -0.0282
14838SOL    HW149199  11.865   0.106   1.472  1.1141 -0.1997  0.1755
14838SOL    HW249200  11.818   0.216   1.565  0.4463  0.5637 -1.0411
14839SOL     OW49201   0.093   3.414  11.554 -0.1001  0.1110 -0.3469
14839SOL    HW149202   0.144   3.334  11.568  0.7793  0.8993  1.3147
14839SOL    HW249203   0.008   3.394  11.592 -0.1292 -0.2870 -0.6167
14840SOL     OW49204   4.859   3.983   3.038 -0.5717  0.0598  0.5711
14840SOL    HW149205   4.928   3.964   3.102 -1.6812 -2.5957  1.1170
14840SOL    HW249206   4.783   4.006   3.092 -0.6139  1.2683  0.0292
14841SOL     OW49207   7.102  10.493   4.151 -0.5150  1.0760 -0.7816
14841SOL    HW149208   7.023  10.453   4.187  0.0834 -0.0453 -0.6784
14841SOL    HW249209   7.086  10.497   4.057 -1.4778  2.6699 -0.5908
14842SOL     OW49210   4.791   2.326  10.180  0.0254 -0.0296  0.0895
14842SOL    HW149211   4.886   2.316  10.182 -0.0049 -0.2019  0.9497
14842SOL    HW249212   4.777   2.421  10.176  0.2338 -0.0140 -0.2695
14843SOL     OW49213   1.926   5.701   1.528 -0.1377 -0.8006 -0.0400
14843SOL    HW149214   1.852   5.653   1.491 -0.1563 -0.7064 -0.1246
14843SOL    HW249215   2.003   5.649   1.506 -0.0394 -0.2396 -1.0818
14844SOL     OW49216   2.113   7.245  10.991  0.2585  0.2326 -0.0363
14844SOL    HW149217   2.147   7.157  10.977 -0.3668 -0.0408  0.1479
14844SOL    HW249218   2.019   7.233  11.002  0.0264  1.0219 -0.9658
14845SOL     OW49219   1.558  11.581   9.070 -0.6491 -0.0118 -0.2971
14845SOL    HW149220   1.638  11.538   9.038 -0.4438  0.7070 -0.7957
14845SOL    HW249221   1.588  11.633   9.145 -1.2870 -2.3875  1.7522
14846SOL     OW49222  10.936   0.187   0.786 -0.1468  0.2723  0.1787
14846SOL    HW149223  10.944   0.114   0.725 -0.3353 -0.1433  0.6502
14846SOL    HW249224  11.024   0.197   0.823 -0.1457  0.2210  0.1900
14847SOL     OW49225   5.105   7.813   1.839 -0.0206 -0.2776  0.1246
14847SOL    HW149226   5.189   7.779   1.870 -0.2229 -0.3367  0.6268
14847SOL    HW249227   5.041   7.750   1.871 -0.4848  0.9665  1.7707
14848SOL     OW49228   0.029   6.941   0.764 -0.4780  0.4333  0.4313
14848SOL    HW149229   0.010   6.911   0.675  1.0170 -0.1945  0.2897
14848SOL    HW249230   0.090   7.013   0.752 -1.1783  1.1277  0.9242
14849SOL     OW49231   4.368   8.302  10.031 -0.4099  0.3474  0.2503
14849SOL    HW149232   4.458   8.276  10.015 -0.6426  0.4324 -1.3464
14849SOL    HW249233   4.342   8.253  10.109  0.3448 -1.3325 -0.5047
14850SOL     OW49234   3.120   7.961   5.949  0.0536 -0.2655  0.4420
14850SOL    HW149235   3.190   7.957   5.884 -1.3719  0.4558 -1.2253
14850SOL    HW249236   3.046   7.916   5.908 -0.4628 -1.1177  2.1996
14851SOL     OW49237   0.758   3.594  11.962 -0.1702  0.7396 -0.5743
14851SOL    HW149238   0.829   3.530  11.963 -1.1713 -0.4449  1.2682
14851SOL    HW249239   0.802   3.679  11.970  1.0486 -0.0270  1.8303
14852SOL     OW49240   7.996   0.786   4.448 -0.0678  0.5710  0.0929
14852SOL    HW149241   7.930   0.853   4.464 -0.8190 -0.1506  0.0752
14852SOL    HW249242   8.016   0.751   4.535 -1.2145 -0.5996 -0.0836
14853SOL     OW49243  11.289   1.139   6.864 -0.1844 -0.0632 -0.4336
14853SOL    HW149244  11.342   1.098   6.933  0.8165  0.0805 -1.0945
14853SOL    HW249245  11.336   1.220   6.843  0.6124 -1.0047 -2.5941
14854SOL     OW49246  11.390   7.752   1.676  0.0638  0.1286 -0.5941
14854SOL    HW149247  11.389   7.833   1.726  0.2490  0.5992 -1.3422
14854SOL    HW249248  11.383   7.779   1.584  0.4842 -0.6781 -0.8777
14855SOL     OW49249   0.498   4.656   9.228 -1.0280 -0.2115  0.1062
14855SOL    HW149250   0.568   4.704   9.185  1.9778 -3.1738  1.2789
14855SOL    HW249251   0.450   4.613   9.157 -2.1920  2.3087 -0.7459
14856SOL     OW49252   2.158   5.871   9.304 -0.7723  0.0169 -0.3321
14856SOL    HW149253   2.095   5.808   9.270 -2.1401  1.1318  0.0500
14856SOL    HW249254   2.213   5.893   9.229  0.5351 -2.4700 -0.2152
14857SOL     OW49255   9.958   8.971   8.852  0.4394 -0.4102  0.2628
14857SOL    HW149256   9.900   8.896   8.861 -0.1494  0.0132  0.0925
14857SOL    HW249257   9.932   9.031   8.922  0.0070  0.2017 -0.4014
14858SOL     OW49258   7.440   3.381  11.524  0.8677 -0.4598  0.2497
14858SOL    HW149259   7.535   3.380  11.535  0.8465  0.1881  0.5767
14858SOL    HW249260   7.405   3.367  11.613  0.6644 -0.1731  0.2171
14859SOL     OW49261   6.827   2.169  11.340 -0.9722 -0.6124  0.4584
14859SOL    HW149262   6.879   2.089  11.352  1.6557  0.8276 -0.5862
14859SOL    HW249263   6.831   2.213  11.424 -0.4596 -0.4758  0.3606
14860SOL     OW49264   0.999   2.972   7.243 -0.1572  0.1617 -0.2022
14860SOL    HW149265   0.935   2.928   7.298 -0.1636 -0.7402 -0.9091
14860SOL    HW249266   0.946   3.016   7.175 -0.2856  2.6993  1.4040
14861SOL     OW49267   5.117  11.812   5.008 -0.3299 -0.0910 -1.0397
14861SOL    HW149268   5.141  11.724   5.035 -0.2732 -0.0429 -0.9311
14861SOL    HW249269   5.083  11.853   5.088 -2.2519 -0.6673 -1.5188
14862SOL     OW49270  10.227   3.868   0.140  0.3195 -0.4724 -0.1608
14862SOL    HW149271  10.291   3.829   0.081  2.0881  0.2178  1.2022
14862SOL    HW249272  10.218   3.958   0.108  1.8649  0.1402  0.9685
14863SOL     OW49273   9.481   9.543   4.898  0.4899  0.0188  0.3474
14863SOL    HW149274   9.531   9.571   4.975  0.9070 -0.4963  0.2686
14863SOL    HW249275   9.502   9.607   4.831  0.1956  0.4188  0.6323
14864SOL     OW49276   6.374   7.515   4.957  0.0711  0.5814 -0.0777
14864SOL    HW149277   6.346   7.465   4.881 -1.2561  1.6634 -0.3306
14864SOL    HW249278   6.429   7.454   5.007 -1.8883 -1.3017 -0.1008
14865SOL     OW49279   0.072   5.704  10.568  0.1823 -0.0854  0.1202
14865SOL    HW149280   0.079   5.794  10.600  1.3701 -0.5356  1.2349
14865SOL    HW249281   0.108   5.650  10.639 -0.3374 -1.4298 -0.5931
14866SOL     OW49282   2.887  11.115  10.008  0.1187 -0.5060 -0.4128
14866SOL    HW149283   2.936  11.182   9.961 -2.1062 -0.2723 -2.5822
14866SOL    HW249284   2.862  11.158  10.090  1.4836  0.1437 -0.3004
14867SOL     OW49285   0.704   8.618   6.628  0.1720  0.0304 -0.1212
14867SOL    HW149286   0.708   8.648   6.537 -0.2113  0.9953  0.1730
14867SOL    HW249287   0.675   8.694   6.678 -1.3219 -0.9407  0.5816
14868SOL     OW49288   6.209   2.496   3.873  0.0921 -0.0337  0.2797
14868SOL    HW149289   6.185   2.508   3.965  1.5687  0.3338  0.6422
14868SOL    HW249290   6.295   2.536   3.865  0.7214 -1.5002 -0.8853
14869SOL     OW49291   4.610   9.886   4.497  0.1963 -0.0873 -0.0273
14869SOL    HW149292   4.527   9.901   4.451 -2.3739 -4.7405  2.2817
14869SOL    HW249293   4.588   9.901   4.589  1.6659 -2.0879  0.7004
14870SOL     OW49294  10.968  10.974   3.605  0.2243 -0.0142  0.1794
14870SOL    HW149295  10.931  10.974   3.693  0.1120 -1.4948  0.1564
14870SOL    HW249296  11.008  11.060   3.596 -2.1047  1.1908  0.6492
14871SOL     OW49297   8.918   2.392  10.403 -0.0669  0.2669  0.0401
14871SOL    HW149298   8.900   2.483  10.377  0.1014  0.5270  0.7894
14871SOL    HW249299   8.852   2.373  10.469 -1.1971 -0.7645 -1.3208
14872SOL     OW49300   5.742   5.580   2.536 -0.7462 -0.4145  0.0096
14872SOL    HW149301   5.694   5.559   2.456  0.1423  1.1337 -0.9847
14872SOL    HW249302   5.676   5.580   2.605 -1.8615 -0.0465 -1.0239
14873SOL     OW49303   7.632  11.840   3.116  0.2465  0.0849 -0.1746
14873SOL    HW149304   7.622  11.923   3.069 -0.3080  0.0560 -0.1236
14873SOL    HW249305   7.547  11.797   3.106  0.9220 -1.0375 -1.2350
14874SOL     OW49306   3.204   3.481  10.736  0.4597 -0.2426  0.0754
14874SOL    HW149307   3.292   3.516  10.724  1.2121 -2.3502 -1.2018
14874SOL    HW249308   3.177   3.454  10.648 -0.0282 -2.7213  0.9016
14875SOL     OW49309   3.067   0.189   2.791 -0.5094 -0.0883  0.0223
14875SOL    HW149310   3.089   0.234   2.873  2.1474 -1.4424  0.1727
14875SOL    HW249311   2.977   0.160   2.803 -0.3974  0.2855  2.2333
14876SOL     OW49312   9.795   0.640   7.021 -0.5040 -1.0021 -0.0333
14876SOL    HW149313   9.731   0.592   6.968 -0.9501 -0.4600  0.0126
14876SOL    HW249314   9.766   0.731   7.018  1.5143 -0.3050 -1.9338
14877SOL     OW49315   8.516   9.987  10.087  0.0665 -0.0554 -0.2987
14877SOL    HW149316   8.551  10.003  10.000  0.4895  1.2486  0.0862
14877SOL    HW249317   8.543  10.064  10.138 -1.9939  0.2566  0.4210
14878SOL     OW49318  11.407   6.390  10.745 -0.0450 -0.7224 -0.0370
14878SOL    HW149319  11.403   6.486  10.739  1.3978 -0.6747 -0.8755
14878SOL    HW249320  11.434   6.373  10.835 -0.0978 -0.3242  0.0574
14879SOL     OW49321   7.869   7.514   8.880 -0.4260 -0.1511 -0.0089
14879SOL    HW149322   7.898   7.482   8.965 -1.5198 -0.8038  0.1317
14879SOL    HW249323   7.857   7.435   8.827 -0.9766  0.1650 -0.3665
14880SOL     OW49324   7.996  11.184   5.766  0.4524 -0.8388  0.1856
14880SOL    HW149325   8.083  11.200   5.729 -0.2059  1.6834 -0.4681
14880SOL    HW249326   7.939  11.178   5.690 -0.8047  3.6740  0.4338
14881SOL     OW49327   3.197  10.438   7.184  0.4183 -0.5000  0.2651
14881SOL    HW149328   3.278  10.474   7.219  1.5921 -1.0316 -1.6949
14881SOL    HW249329   3.147  10.514   7.153  0.3722 -0.2075  1.0385
14882SOL     OW49330  10.426   9.413  10.682 -0.3056 -0.4014 -0.0448
14882SOL    HW149331  10.355   9.476  10.667 -0.6948 -0.8513 -0.1156
14882SOL    HW249332  10.490   9.433  10.614 -0.1737  0.2782  0.2747
14883SOL     OW49333  10.939   0.713   1.558 -0.3064 -0.0296 -1.0118
14883SOL    HW149334  10.989   0.695   1.479 -0.8781 -0.6171 -1.2543
14883SOL    HW249335  11.004   0.738   1.623  0.0596  1.7993 -2.0183
14884SOL     OW49336   7.166   5.991   7.910  0.1163  0.0954 -0.7399
14884SOL    HW149337   7.118   5.933   7.968 -2.3787  1.5729 -1.1936
14884SOL    HW249338   7.230   6.034   7.967 -2.2234  1.4695  1.0473
14885SOL     OW49339   1.300   4.606   1.113 -0.3867  0.0938 -0.0611
14885SOL    HW149340   1.314   4.600   1.019  0.2851 -0.9689  0.0881
14885SOL    HW249341   1.215   4.563   1.127 -1.4591  2.0308 -0.3891
14886SOL     OW49342   2.266   9.443   5.358  0.0423  0.1621 -0.0371
14886SOL    HW149343   2.310   9.366   5.392 -0.5073  0.4685  1.4390
14886SOL    HW249344   2.307   9.459   5.273 -0.7102 -2.4929 -1.0103
14887SOL     OW49345   0.155   4.939  10.691  0.1825 -0.1487 -0.1975
14887SOL    HW149346   0.131   5.005  10.626  2.4421  0.7595 -0.1790
14887SOL    HW249347   0.223   4.887  10.649 -0.5061 -1.5509  0.3515
14888SOL     OW49348   4.657   1.192  11.118 -0.0739  0.1592  0.4886
14888SOL    HW149349   4.728   1.182  11.181  0.2270 -3.8871 -0.2195
14888SOL    HW249350   4.605   1.112  11.126 -1.3777  0.5040 -2.7334
14889SOL     OW49351   9.370  10.222   0.266  0.0174  0.3175  0.5402
14889SOL    HW149352   9.462  10.249   0.264  0.5353 -1.3816 -0.9493
14889SOL    HW249353   9.330  10.266   0.191  0.5586 -1.7933 -1.0931
14890SOL     OW49354  10.400   8.404   8.214  0.7941 -0.6056 -0.0688
14890SOL    HW149355  10.441   8.437   8.134  0.8260 -0.9260 -0.1873
14890SOL    HW249356  10.431   8.314   8.221  1.6294 -0.2602  0.8727
14891SOL     OW49357  11.922   8.183   8.983  0.3362 -0.1989  0.2589
14891SOL    HW149358  11.853   8.206   8.920  0.1340 -1.0937  0.1407
14891SOL    HW249359  11.887   8.108   9.031  1.2528 -0.7161  0.1459
14892SOL     OW49360   8.275   3.755   3.518  0.0263 -0.4767  0.4044
14892SOL    HW149361   8.308   3.839   3.485 -0.0246 -0.3380  0.7013
14892SOL    HW249362   8.246   3.708   3.440  0.2326 -0.2942  0.2181
14893SOL     OW49363  10.396   4.025   7.180 -0.0942  0.5413  0.2519
14893SOL    HW149364  10.459   3.958   7.207 -0.2961  1.4064  3.1578
14893SOL    HW249365  10.311   3.985   7.194 -0.1979  0.8796  0.6240
14894SOL     OW49366   9.791   1.167   9.271 -0.0426 -0.4036  0.2125
14894SOL    HW149367   9.862   1.164   9.335 -0.8243  1.8356  1.2950
14894SOL    HW249368   9.786   1.259   9.246 -0.3010 -1.0921 -2.5206
14895SOL     OW49369   9.453  11.055   2.487 -0.4367  0.5082  0.3211
14895SOL    HW149370   9.526  11.101   2.446 -0.7234  2.1648  1.5652
14895SOL    HW249371   9.441  10.976   2.434  2.0538  0.3350 -0.0893
14896SOL     OW49372   2.484   9.564  11.548  0.2385  0.3832 -0.0597
14896SOL    HW149373   2.507   9.472  11.561  2.0023  0.9905  1.6270
14896SOL    HW249374   2.568   9.610  11.545 -0.6095  2.0188 -0.1924
14897SOL     OW49375   0.012   3.540  10.208 -0.4364  0.0933 -0.2928
14897SOL    HW149376   0.101   3.505  10.208 -0.7901 -0.8426  0.3842
14897SOL    HW249377  -0.010   3.550  10.300 -0.9627  0.5159 -0.4618
14898SOL     OW49378   6.732  11.273   0.648  0.0612  0.0285  0.0923
14898SOL    HW149379   6.768  11.322   0.574  0.4550 -0.3169  0.0548
14898SOL    HW249380   6.804  11.216   0.676  0.9577  2.1366  2.5230
14899SOL     OW49381  10.760   2.525   8.368  0.1169 -0.3508 -0.2258
14899SOL    HW149382  10.698   2.547   8.438 -0.3456 -1.0271 -0.4123
14899SOL    HW249383  10.774   2.431   8.377 -0.4486 -0.5742 -1.4206
14900SOL     OW49384   1.962   0.721   3.327  0.0737  0.3609 -0.2207
14900SOL    HW149385   1.873   0.755   3.322  0.1011  1.3541  3.4278
14900SOL    HW249386   1.955   0.643   3.381  1.1765 -0.8216 -1.7038
14901SOL     OW49387   0.448   3.769   0.414  0.2267 -0.1663  0.0651
14901SOL    HW149388   0.513   3.835   0.439  1.1580 -0.7531 -0.7671
14901SOL    HW249389   0.498   3.703   0.367 -0.9337 -0.7869 -0.3163
14902SOL     OW49390   1.944   6.342   8.053 -0.2528  0.0563 -0.3297
14902SOL    HW149391   1.978   6.255   8.073 -2.4892 -1.3566 -2.0869
14902SOL    HW249392   1.987   6.367   7.971 -0.0997  0.2952 -0.1753
14903SOL     OW49393   6.950   6.381   2.752 -0.1122 -0.2250 -0.0558
14903SOL    HW149394   6.915   6.329   2.679  0.4248 -0.7352  0.0471
14903SOL    HW249395   6.923   6.470   2.732  1.0717 -0.1647 -1.5283
14904SOL     OW49396   4.841   4.393   4.108  0.3206 -1.1011  0.3437
14904SOL    HW149397   4.925   4.399   4.153  0.7087 -0.8709 -0.3904
14904SOL    HW249398   4.778   4.432   4.169  0.4351 -2.8466  1.6337
14905SOL     OW49399   0.614   8.201   0.771  0.1701  0.0189 -0.1586
14905SOL    HW149400   0.597   8.225   0.680  0.4979 -0.3659 -0.3232
14905SOL    HW249401   0.660   8.117   0.766 -2.2222 -1.4369  0.4331
14906SOL     OW49402  10.374   1.527   6.012 -0.0644  0.5278  0.1595
14906SOL    HW149403  10.413   1.608   5.979 -0.7511  0.3742 -1.0950
14906SOL    HW249404  10.442   1.487   6.066  0.9290  1.0561 -0.6744
14907SOL     OW49405   5.943   6.113   7.786 -0.2134 -0.5479 -0.2533
14907SOL    HW149406   5.923   6.100   7.693 -0.9239 -1.9126  0.0556
14907SOL    HW249407   5.967   6.205   7.793 -2.1072  0.0942 -1.4574
14908SOL     OW49408   8.258   1.628   3.604  0.3252  0.3576 -0.6083
14908SOL    HW149409   8.334   1.632   3.546  0.7735 -0.7581 -0.1049
14908SOL    HW249410   8.237   1.535   3.611 -0.1100  0.5258  0.5304
14909SOL     OW49411   7.409  11.739  10.714 -0.6347 -0.5304  0.2602
14909SOL    HW149412   7.496  11.778  10.722 -1.0027  0.1444  1.0732
14909SOL    HW249413   7.355  11.787  10.777 -2.0391  0.3447 -1.5054
14910SOL     OW49414   3.709   8.822   5.693 -0.0443 -0.3418 -0.2098
14910SOL    HW149415   3.623   8.863   5.683  0.0899 -0.2913 -1.3457
14910SOL    HW249416   3.740   8.851   5.779 -0.8000  0.3321 -0.1517
14911SOL     OW49417  10.377  10.752   3.036 -0.4514 -0.5514  0.0914
14911SOL    HW149418  10.324  10.832   3.027 -1.2673 -1.1160 -0.2458
14911SOL    HW249419  10.464  10.784   3.061 -0.2980  0.5520 -1.7031
14912SOL     OW49420   5.692   7.736   2.015 -0.7985  0.2426 -0.1423
14912SOL    HW149421   5.756   7.801   1.989 -0.3862 -0.3772 -0.7037
14912SOL    HW249422   5.666   7.693   1.933 -1.5203  0.1144  0.1424
14913SOL     OW49423  11.045   2.133   5.585  0.1176 -0.0339 -0.3965
14913SOL    HW149424  11.029   2.191   5.659 -0.4697 -0.3513 -0.2708
14913SOL    HW249425  10.995   2.054   5.605  0.6565 -0.4636 -0.7185
14914SOL     OW49426   4.728   2.615   9.894  0.1483 -0.0895  0.4220
14914SOL    HW149427   4.759   2.699   9.928  2.4461  0.3492 -2.3562
14914SOL    HW249428   4.664   2.639   9.826  2.4651 -0.3030 -1.9957
14915SOL     OW49429   9.928   8.343   9.259  0.0125  0.6108  0.1608
14915SOL    HW149430   9.959   8.367   9.172 -0.2250  1.5756  0.3346
14915SOL    HW249431  10.008   8.332   9.311  0.2498 -1.6481 -0.5652
14916SOL     OW49432  10.931   9.633   5.294 -0.3967 -0.4430  0.6706
14916SOL    HW149433  11.018   9.609   5.261  0.0741 -1.8763  2.7484
14916SOL    HW249434  10.870   9.590   5.234  0.2100  1.6109 -1.5749
14917SOL     OW49435  11.964   4.301   9.406 -0.3807 -0.1992  0.4696
14917SOL    HW149436  11.914   4.356   9.467 -1.1427 -1.3286  0.8895
14917SOL    HW249437  12.002   4.364   9.344  1.5519  1.1295  2.8175
14918SOL     OW49438   7.770   6.539   0.840 -0.0103 -0.5726 -0.4519
14918SOL    HW149439   7.795   6.506   0.927  0.5674 -0.0345 -0.4097
14918SOL    HW249440   7.680   6.571   0.852  0.0293 -0.5938 -0.0821
14919SOL     OW49441   0.250   2.639   8.357 -0.3915 -0.2602  0.4828
14919SOL    HW149442   0.268   2.694   8.433  0.3596  1.3603 -0.8052
14919SOL    HW249443   0.234   2.701   8.286  1.2835 -1.6939 -1.2251
14920SOL     OW49444   5.823  11.753   0.507 -0.1914  0.1777 -0.0662
14920SOL    HW149445   5.770  11.674   0.493 -1.9342  1.0667  1.1914
14920SOL    HW249446   5.769  11.809   0.562  2.0975  1.1448  1.3353
14921SOL     OW49447   8.514   8.730   7.645 -0.3671 -0.3115  0.2991
14921SOL    HW149448   8.600   8.691   7.631 -0.1698 -0.2668  1.2682
14921SOL    HW249449   8.515   8.757   7.737 -1.3615 -0.1776  0.2859
14922SOL     OW49450   0.546  11.795   3.050  0.3817  0.0612  0.4449
14922SOL    HW149451   0.575  11.879   3.085 -0.1954  0.2549  0.4599
14922SOL    HW249452   0.484  11.817   2.981  0.9680 -0.3355 -0.2170
14923SOL     OW49453   6.234  10.455   1.345 -0.9395 -0.6710  0.1350
14923SOL    HW149454   6.179  10.487   1.417  1.5028  3.2114  0.5834
14923SOL    HW249455   6.322  10.448   1.383 -0.0883 -1.1856 -1.8045
14924SOL     OW49456  11.696   3.052   8.757  0.0390 -0.0905  0.2863
14924SOL    HW149457  11.691   3.056   8.852  0.9457  0.1584  0.3416
14924SOL    HW249458  11.684   2.960   8.735 -0.7820 -0.0616  0.5900
14925SOL     OW49459   0.177   5.844  11.945 -0.3212 -0.4589 -0.1519
14925SOL    HW149460   0.196   5.937  11.943 -1.2118 -0.2769 -0.7055
14925SOL    HW249461   0.193   5.818  12.035 -1.6530  0.5929  0.4313
14926SOL     OW49462   9.857   9.599   4.243  0.2214  0.1143  0.5642
14926SOL    HW149463   9.888   9.680   4.201  2.3796 -0.2717  1.2865
14926SOL    HW249464   9.856   9.534   4.173 -2.6235  0.9356 -0.2875
14927SOL     OW49465   2.624   5.422   0.024  0.1109 -0.4300  0.2836
14927SOL    HW149466   2.709   5.443  -0.014 -0.4087  0.3624 -0.4849
14927SOL    HW249467   2.573   5.386  -0.049 -0.6052  0.2459  0.4409
14928SOL     OW49468  10.742   4.352   3.762 -0.4205 -0.0648  0.2429
14928SOL    HW149469  10.649   4.338   3.746  0.0628 -1.5306 -1.5589
14928SOL    HW249470  10.761   4.436   3.721 -1.0845  0.6036  1.2766
14929SOL     OW49471   8.091   2.360  11.393 -0.0147  0.3123 -0.1232
14929SOL    HW149472   8.127   2.331  11.309 -0.3420  1.2195 -0.5873
14929SOL    HW249473   8.109   2.287  11.452  1.7021  0.3296 -0.5645
14930SOL     OW49474   0.995   7.712   9.075  0.3154 -0.0155  0.1151
14930SOL    HW149475   1.052   7.635   9.080  1.3149  0.7637  1.1531
14930SOL    HW249476   1.051   7.781   9.040 -0.3018  0.4960  0.1238
14931SOL     OW49477   8.757   0.934   4.207  0.1046 -0.0716 -0.6168
14931SOL    HW149478   8.683   0.935   4.147 -1.0035 -1.2100  0.6567
14931SOL    HW249479   8.796   0.847   4.196  1.2523  0.4872 -1.2246
14932SOL     OW49480   8.860   0.825   6.164 -0.3759  0.2249  0.7763
14932SOL    HW149481   8.908   0.859   6.239 -0.9247  1.7172  0.4812
14932SOL    HW249482   8.843   0.901   6.109 -2.2847 -0.3843  0.4367
14933SOL     OW49483  10.532  11.387   7.437  0.2601  0.3239 -0.2356
14933SOL    HW149484  10.463  11.446   7.405  0.0934  0.7373  0.8367
14933SOL    HW249485  10.606  11.444   7.455  1.1887 -0.2162 -2.1043
14934SOL     OW49486   2.436  11.117   7.381 -0.4374  0.0172  0.0218
14934SOL    HW149487   2.433  11.060   7.458 -0.9163 -0.2632 -0.2043
14934SOL    HW249488   2.416  11.060   7.307  0.8827  0.1027 -0.4299
14935SOL     OW49489   3.428  11.223   7.327  0.1185 -0.1086  0.3056
14935SOL    HW149490   3.380  11.294   7.370 -0.2199  0.6960 -1.3074
14935SOL    HW249491   3.494  11.268   7.274 -0.2159 -0.9697 -0.8842
14936SOL     OW49492   0.039   6.296   4.234 -0.3267 -0.1806 -0.5609
14936SOL    HW149493   0.122   6.326   4.271 -0.9504 -0.9383  1.5934
14936SOL    HW249494   0.034   6.340   4.149  1.4852  1.1906 -0.0332
14937SOL     OW49495   1.487   7.444  10.313  0.2371 -0.4379  0.0576
14937SOL    HW149496   1.553   7.417  10.249 -0.9319 -0.6654 -1.1175
14937SOL    HW249497   1.428   7.501  10.263 -0.6488 -0.5266  0.9711
14938SOL     OW49498   1.899   3.350   9.390 -0.1753 -0.5275  0.5221
14938SOL    HW149499   1.940   3.425   9.346 -1.7457  0.2225  0.2300
14938SOL    HW249500   1.934   3.273   9.346  0.1106  0.1264 -0.4217
14939SOL     OW49501   9.192   5.377   3.828 -0.0291 -0.5149 -0.0975
14939SOL    HW149502   9.163   5.421   3.748 -0.1767 -1.7987 -0.7753
14939SOL    HW249503   9.125   5.311   3.845 -0.1932 -0.0148  1.3110
14940SOL     OW49504   1.599   8.818   6.065 -0.3345 -0.5274 -0.2742
14940SOL    HW149505   1.622   8.850   5.978  0.3352  1.5323  0.5944
14940SOL    HW249506   1.619   8.724   6.062 -1.1688 -0.6969 -2.5732
14941SOL     OW49507  10.726   0.995   8.486 -0.0220  0.3274 -0.3976
14941SOL    HW149508  10.767   1.057   8.546 -0.1390  1.0000 -1.0080
14941SOL    HW249509  10.677   0.935   8.543  1.6876 -0.4359  0.3419
14942SOL     OW49510   1.196   5.174   0.428  0.0361  0.2142  0.8945
14942SOL    HW149511   1.258   5.105   0.405 -0.4114  0.6239 -1.9219
14942SOL    HW249512   1.247   5.237   0.477  0.7593 -1.4631  2.4060
14943SOL     OW49513  10.923   7.224   9.410  0.4189 -0.4535 -0.2083
14943SOL    HW149514  10.891   7.273   9.334  0.9198 -1.4688 -1.1029
14943SOL    HW249515  10.848   7.171   9.438 -0.2298  1.0154  0.9726
14944SOL     OW49516   8.426  10.841   7.014  0.0601 -0.2600  0.0314
14944SOL    HW149517   8.385  10.792   6.942  1.9746  0.4880 -1.6712
14944SOL    HW249518   8.472  10.775   7.065 -0.3494 -0.6599 -0.1107
14945SOL     OW49519   0.852  10.893  11.478 -0.0592  0.3818  0.1465
14945SOL    HW149520   0.816  10.963  11.424  0.7059  1.6314  1.1979
14945SOL    HW249521   0.798  10.817  11.457 -3.1902  2.0438  1.4145
14946SOL     OW49522   7.020   8.861   9.131 -0.9579 -0.5642 -0.9215
14946SOL    HW149523   7.006   8.803   9.056 -1.9385 -0.0870 -1.1322
14946SOL    HW249524   7.049   8.803   9.201 -1.3921 -1.2390 -1.2819
14947SOL     OW49525   4.344  11.758   7.813  0.2672 -0.0550  0.1145
14947SOL    HW149526   4.324  11.746   7.720  0.4016 -1.8691  0.2882
14947SOL    HW249527   4.328  11.851   7.829 -0.8262  0.0671 -1.4690
14948SOL     OW49528   3.371   8.402   4.057  0.1557 -0.3361  0.6481
14948SOL    HW149529   3.431   8.337   4.094  1.0430 -0.1091 -0.3341
14948SOL    HW249530   3.420   8.440   3.984 -1.0651  0.0986  0.0334
14949SOL     OW49531   8.499   0.903   5.079  0.1696  0.0265 -0.2632
14949SOL    HW149532   8.459   0.937   4.999  0.3750 -0.1404 -0.4385
14949SOL    HW249533   8.561   0.836   5.048 -0.2429 -0.5173  0.0857
14950SOL     OW49534  10.325   2.845   7.166 -0.1133  0.2394 -0.6575
14950SOL    HW149535  10.277   2.883   7.239 -0.1456  1.8827 -1.4802
14950SOL    HW249536  10.318   2.910   7.096 -1.3235 -1.8644 -2.6524
14951SOL     OW49537   1.342   6.811   7.994  0.2366 -0.1065 -0.6441
14951SOL    HW149538   1.278   6.762   7.942 -0.2068 -0.3183  0.0898
14951SOL    HW249539   1.305   6.899   8.001  0.0313 -0.2236 -0.2369
14952SOL     OW49540   7.174   2.811   7.062  0.0997  0.1066  0.1643
14952SOL    HW149541   7.168   2.752   7.137 -1.5250  0.0137 -0.0069
14952SOL    HW249542   7.215   2.890   7.096  0.6514 -0.4527  0.8184
14953SOL     OW49543   2.975  11.383   5.853 -0.0017  0.2833  0.3167
14953SOL    HW149544   2.936  11.468   5.871  0.6193  0.9037 -1.1731
14953SOL    HW249545   3.068  11.394   5.872  0.3082  0.3504 -1.1420
14954SOL     OW49546   9.771   9.063   7.872  0.4787 -0.2482  0.2366
14954SOL    HW149547   9.739   9.014   7.948  1.4416  0.1473  0.9212
14954SOL    HW249548   9.745   9.010   7.797 -0.7951 -0.4768  0.8116
14955SOL     OW49549   0.879  11.510   3.644 -0.5965 -0.2911  0.2321
14955SOL    HW149550   0.904  11.603   3.641 -1.1301 -0.1597 -1.2503
14955SOL    HW249551   0.937  11.468   3.581 -2.6251 -0.3187 -1.7366
14956SOL     OW49552  11.290   8.468   9.214 -0.2257 -0.0450 -0.2157
14956SOL    HW149553  11.268   8.520   9.137  0.2567  1.1645  0.4260
14956SOL    HW249554  11.324   8.532   9.277  0.4306 -1.1497  0.5970
14957SOL     OW49555   3.422   2.162   7.816  0.0378  0.3393  0.4503
14957SOL    HW149556   3.485   2.161   7.888  1.2067  0.9683 -0.5153
14957SOL    HW249557   3.447   2.238   7.763  1.3668 -1.9105 -2.4535
14958SOL     OW49558   6.085   0.277   7.632  0.1884 -0.2720 -0.6524
14958SOL    HW149559   6.060   0.363   7.599 -1.0523 -0.7590 -1.0062
14958SOL    HW249560   6.134   0.236   7.560 -0.5204 -0.4408 -1.0386
14959SOL     OW49561   0.230   0.617   9.585  0.2204 -0.5303 -0.3519
14959SOL    HW149562   0.219   0.522   9.583 -0.3766 -0.4675 -0.2167
14959SOL    HW249563   0.310   0.632   9.635 -0.9022 -0.8747  1.6654
14960SOL     OW49564   3.028   0.724   5.867 -0.1403  0.1512  0.3255
14960SOL    HW149565   2.971   0.646   5.870  0.3389 -0.2234 -0.1509
14960SOL    HW249566   3.095   0.706   5.933 -0.0393  0.1692  0.2268
14961SOL     OW49567   4.516   7.426   2.293 -0.3304  0.2317 -0.7103
14961SOL    HW149568   4.590   7.458   2.242 -0.5347  0.8633 -0.6101
14961SOL    HW249569   4.441   7.477   2.262 -0.7211 -0.3540 -0.7658
14962SOL     OW49570  11.390   0.173   5.593  0.1520  0.2964  0.9819
14962SOL    HW149571  11.468   0.210   5.635 -0.9808  0.2171  3.3405
14962SOL    HW249572  11.325   0.168   5.664 -2.2852  1.1334 -1.0575
14963SOL     OW49573   5.786   2.729   9.670  0.1884  0.3536 -0.1575
14963SOL    HW149574   5.747   2.799   9.618  0.6754 -0.5926 -1.8823
14963SOL    HW249575   5.879   2.731   9.647  0.2361 -0.7311 -0.0881
14964SOL     OW49576  10.834   2.647   9.167 -0.2383  0.0920  0.0199
14964SOL    HW149577  10.765   2.599   9.212 -0.6290 -1.5031 -2.1370
14964SOL    HW249578  10.788   2.704   9.105  0.2822 -1.6337 -2.0765
14965SOL     OW49579   6.316   9.729   9.043  0.1260 -0.1061  0.4716
14965SOL    HW149580   6.331   9.639   9.070 -0.0877 -0.0527  0.7718
14965SOL    HW249581   6.271   9.721   8.959  1.0276 -0.2685 -0.0038
14966SOL     OW49582   4.805   3.957   8.436 -0.3228  0.1607  0.4294
14966SOL    HW149583   4.861   4.009   8.494 -2.1403  1.1302  1.3870
14966SOL    HW249584   4.764   4.021   8.378 -1.5819 -0.3192  0.7592
14967SOL     OW49585   9.522   9.950   1.480 -0.2939 -0.2264 -0.5972
14967SOL    HW149586   9.513  10.038   1.516 -0.5710 -1.0639  1.5172
14967SOL    HW249587   9.485   9.957   1.391 -0.5921  1.6955 -0.3746
14968SOL     OW49588   5.128  10.559   1.409  0.0022  0.6314 -0.3682
14968SOL    HW149589   5.222  10.544   1.393 -0.2971 -0.1138 -1.6364
14968SOL    HW249590   5.095  10.472   1.432 -0.5595  0.6748 -0.9980
14969SOL     OW49591   3.840   3.972  10.859  0.6426  0.0309  0.1749
14969SOL    HW149592   3.795   3.905  10.807  0.1859  1.1727 -0.9476
14969SOL    HW249593   3.897   3.922  10.918 -0.1362 -1.3566 -0.2042
14970SOL     OW49594   6.503   5.350   1.227  0.6323 -0.9924 -0.2023
14970SOL    HW149595   6.551   5.365   1.309  0.3698 -1.1194 -0.0243
14970SOL    HW249596   6.450   5.272   1.245 -0.0981 -0.5053 -0.1922
14971SOL     OW49597   2.540   8.214   6.300 -0.1416 -0.2833 -0.9493
14971SOL    HW149598   2.539   8.140   6.240 -0.6619  0.4128 -1.8226
14971SOL    HW249599   2.447   8.230   6.320 -0.0095 -0.1395 -0.4187
14972SOL     OW49600   8.442   5.456   6.585  0.1483  0.2725 -0.3081
14972SOL    HW149601   8.513   5.394   6.602 -0.4311  0.4483  3.9008
14972SOL    HW249602   8.453   5.524   6.651 -1.4157  2.7359 -2.4029
14973SOL     OW49603   0.879   8.541  10.235 -0.5210 -0.6402 -0.3639
14973SOL    HW149604   0.866   8.630  10.266 -2.7567  0.0440 -2.9262
14973SOL    HW249605   0.974   8.529  10.237 -0.0347  2.3151 -1.2067
14974SOL     OW49606   2.978   4.593   9.820 -0.3677  0.9558 -0.1937
14974SOL    HW149607   3.031   4.526   9.864 -1.1628 -0.6408 -1.5509
14974SOL    HW249608   2.890   4.580   9.853 -0.6220  0.9864 -0.8385
14975SOL     OW49609  10.700   9.150   7.639  0.1532  0.0901 -0.5140
14975SOL    HW149610  10.792   9.125   7.634  0.0435 -0.5397  0.3590
14975SOL    HW249611  10.700   9.231   7.691  0.1247 -0.5313  0.4733
14976SOL     OW49612   3.853   1.325  11.491 -0.2440 -0.7952  0.4043
14976SOL    HW149613   3.854   1.340  11.396 -0.1879  0.7230  0.6251
14976SOL    HW249614   3.784   1.382  11.524  0.2599 -0.7249  1.3637
14977SOL     OW49615   8.777   7.327   5.471 -0.6642  0.0654 -0.4303
14977SOL    HW149616   8.715   7.398   5.485  0.2997  1.0787 -1.0662
14977SOL    HW249617   8.793   7.327   5.377  0.2321 -0.2105 -0.2917
14978SOL     OW49618  11.410   1.040   1.737  0.1928 -0.0683 -0.0783
14978SOL    HW149619  11.457   1.007   1.813 -0.4555  0.3814  0.5234
14978SOL    HW249620  11.479   1.061   1.673  0.7239 -0.6298  0.2982
14979SOL     OW49621   1.355   8.337   6.833  0.1699  0.4388 -0.4660
14979SOL    HW149622   1.351   8.366   6.742  0.7838  1.1998 -0.2658
14979SOL    HW249623   1.435   8.285   6.838  0.0823  0.3113 -0.3788
14980SOL     OW49624   4.414   3.761  11.817  0.0205 -0.3004  0.3695
14980SOL    HW149625   4.443   3.844  11.779 -0.3241  0.1578  1.0851
14980SOL    HW249626   4.406   3.702  11.742  0.2601  0.3141 -0.1486
14981SOL     OW49627   7.105   4.373   2.964 -0.4131 -0.5360  0.0704
14981SOL    HW149628   7.094   4.443   2.900  0.5554 -0.0484  0.4232
14981SOL    HW249629   7.144   4.415   3.040 -1.3631 -1.1476  0.9345
14982SOL     OW49630   2.977   6.753  11.036  0.3781  0.3203  0.3770
14982SOL    HW149631   2.941   6.795  10.959  0.0159 -1.1560 -0.2796
14982SOL    HW249632   2.974   6.821  11.104 -0.0904  1.3662 -0.6625
14983SOL     OW49633   1.337   0.554  10.442 -0.1425  0.3815 -0.4962
14983SOL    HW149634   1.244   0.542  10.421 -0.2288  0.7522 -0.3255
14983SOL    HW249635   1.348   0.648  10.452  0.4502  0.4278 -1.4174
14984SOL     OW49636   3.320  10.620   4.207  0.0926  0.1229 -0.2245
14984SOL    HW149637   3.278  10.535   4.195 -1.2482  0.8810 -1.2470
14984SOL    HW249638   3.315  10.662   4.121  0.6530  1.2602  0.2775
14985SOL     OW49639  11.668   7.233   8.198 -0.6583 -0.2474  0.2920
14985SOL    HW149640  11.698   7.293   8.266 -0.2969  0.5509 -0.5378
14985SOL    HW249641  11.599   7.281   8.153  0.1443 -0.1245 -0.8572
14986SOL     OW49642   0.957   8.335  11.615  0.5454  0.5876 -0.7930
14986SOL    HW149643   0.901   8.330  11.538 -0.1788 -0.3252 -0.2210
14986SOL    HW249644   0.930   8.416  11.660  0.1573  0.5025 -0.8726
14987SOL     OW49645   9.517  10.241   5.134  0.3424  0.3353  0.3119
14987SOL    HW149646   9.495  10.313   5.075 -1.0676  1.1533  1.7511
14987SOL    HW249647   9.595  10.201   5.095  0.7842  2.2311 -0.8890
14988SOL     OW49648   6.815   3.994   5.245  0.4909 -0.3732 -0.1080
14988SOL    HW149649   6.763   3.919   5.217 -0.6541  0.3037  0.1452
14988SOL    HW249650   6.894   3.989   5.192 -0.0131 -1.1888 -0.8192
14989SOL     OW49651   7.236   6.357  10.761  0.2225 -0.5099 -0.0935
14989SOL    HW149652   7.283   6.338  10.842  0.6716 -1.9757 -0.6734
14989SOL    HW249653   7.303   6.347  10.692  0.1107  1.6827 -0.6121
14990SOL     OW49654  10.430  11.535   6.049  0.0770  0.3857 -0.6280
14990SOL    HW149655  10.492  11.608   6.053  0.9269 -0.3412  0.0254
14990SOL    HW249656  10.354  11.566   6.098  1.3015  0.0839  1.6325
14991SOL     OW49657   9.271   8.345  10.592  0.5637  0.7429 -0.1617
14991SOL    HW149658   9.312   8.297  10.520  0.4135 -0.2113  0.3687
14991SOL    HW249659   9.190   8.379  10.554 -0.1703 -0.8590 -0.1374
14992SOL     OW49660   0.384   5.888   3.786  0.2777 -0.2432 -0.2275
14992SOL    HW149661   0.424   5.824   3.727  0.3235  0.0172 -0.4815
14992SOL    HW249662   0.310   5.923   3.737 -0.6462 -1.1707  0.4801
14993SOL     OW49663   9.656   4.717  11.237 -0.2828  0.2101  0.1922
14993SOL    HW149664   9.712   4.639  11.232  0.5414  0.7886  0.0950
14993SOL    HW249665   9.718   4.790  11.235 -0.7652  0.8570  3.3492
14994SOL     OW49666   6.910   3.671   0.233 -0.1946 -0.3230  0.3268
14994SOL    HW149667   6.870   3.590   0.264 -2.2652  0.7908  0.6965
14994SOL    HW249668   6.843   3.738   0.245  1.7902  1.6797  0.9720
14995SOL     OW49669   0.009   8.618   5.053  0.8699  1.0697  0.9233
14995SOL    HW149670   0.002   8.710   5.028 -0.8635  1.0296  1.1353
14995SOL    HW249671  -0.055   8.607   5.124  0.9357 -0.3166  0.8063
14996SOL     OW49672   2.784  11.718   3.418 -0.1722  0.1669 -0.4159
14996SOL    HW149673   2.736  11.748   3.341  0.4152  0.7683 -0.5594
14996SOL    HW249674   2.767  11.784   3.485 -2.2942 -1.3484  0.6434
14997SOL     OW49675   9.269   6.794   3.028 -0.5711  0.3554  0.0875
14997SOL    HW149676   9.197   6.823   2.973  1.7053  0.7613 -2.9582
14997SOL    HW249677   9.322   6.872   3.042  0.3598 -0.3267  0.4866
14998SOL     OW49678   1.656   5.223  11.354 -0.2001 -0.1252  0.5755
14998SOL    HW149679   1.675   5.231  11.260 -0.5379  0.3933  0.5488
14998SOL    HW249680   1.726   5.273  11.396 -1.4297  1.7684  0.4776
14999SOL     OW49681   8.289   5.459   8.534 -0.4507  0.2223 -0.2118
14999SOL    HW149682   8.249   5.377   8.563  0.1292  0.4093  1.2035
14999SOL    HW249683   8.328   5.495   8.613  1.0784  0.8569 -1.2223
15000SOL     OW49684   6.631   8.234   9.289  0.4310  0.1456 -0.1017
15000SOL    HW149685   6.722   8.245   9.318  0.5189 -0.7111 -0.0322
15000SOL    HW249686   6.596   8.323   9.286  1.5071  0.5663 -0.8936
15001SOL     OW49687   6.636   3.134   4.613  0.3055  0.0286  0.0109
15001SOL    HW149688   6.628   3.228   4.629  0.8075 -0.0163  0.5715
15001SOL    HW249689   6.601   3.093   4.693 -1.7486 -0.3161 -0.9970
15002SOL     OW49690  10.829  10.781  10.633 -0.0029 -0.0209 -0.1762
15002SOL    HW149691  10.905  10.744  10.588 -0.9125 -0.5877 -1.2998
15002SOL    HW249692  10.772  10.706  10.651  0.0985  0.2642  1.5160
15003SOL     OW49693   3.391   2.704   0.981 -0.5916  0.6217  0.1338
15003SOL    HW149694   3.484   2.697   0.960 -0.5047 -0.1528  0.7632
15003SOL    HW249695   3.356   2.761   0.912  0.4586  1.4415  0.2566
15004SOL     OW49696   3.460   0.354   3.006 -0.3568 -0.6772  0.0720
15004SOL    HW149697   3.538   0.304   3.030  0.7521  1.4075  1.0636
15004SOL    HW249698   3.394   0.331   3.072 -0.2456 -1.6008 -0.1217
15005SOL     OW49699   7.175   8.759   5.551  0.2066 -0.0115 -0.3957
15005SOL    HW149700   7.127   8.841   5.545 -0.0683 -0.1604 -0.2508
15005SOL    HW249701   7.113   8.698   5.591  0.4875 -0.2281 -0.2900
15006SOL     OW49702   4.312   2.066   3.449  0.5896 -0.1902 -0.3424
15006SOL    HW149703   4.389   2.013   3.465  2.1774  2.0926  0.0012
15006SOL    HW249704   4.309   2.128   3.522 -1.9177 -0.5448 -0.0470
15007SOL     OW49705   3.725   6.320   3.462 -0.6399  0.2397  0.1598
15007SOL    HW149706   3.745   6.381   3.390 -0.6057  1.6357  1.2998
15007SOL    HW249707   3.809   6.279   3.482 -0.7658 -0.6275 -0.9804
15008SOL     OW49708   4.837  11.230   3.251  0.1157 -0.1532 -0.7905
15008SOL    HW149709   4.897  11.156   3.241  1.7398  0.5423  2.4242
15008SOL    HW249710   4.895  11.306   3.262 -1.3996  0.9080  0.1810
15009SOL     OW49711  11.746   6.986   8.834 -0.1097  0.4367 -0.3673
15009SOL    HW149712  11.723   7.032   8.753  0.4954  0.9845 -0.2325
15009SOL    HW249713  11.699   6.903   8.828 -1.7921  1.3445 -0.2851
15010SOL     OW49714   4.964   4.232   6.220 -0.3914 -0.7451 -0.3774
15010SOL    HW149715   5.002   4.307   6.175  0.3614 -0.3012  0.9307
15010SOL    HW249716   4.994   4.156   6.171  0.3601 -0.2746 -0.6593
15011SOL     OW49717   8.774   3.436   7.242  0.0015  0.3323 -0.2121
15011SOL    HW149718   8.807   3.513   7.195  1.8747 -1.8924 -2.9460
15011SOL    HW249719   8.841   3.369   7.226 -2.1671 -2.2585  0.8246
15012SOL     OW49720   7.463   3.527   3.543  0.0355  0.5027 -0.4111
15012SOL    HW149721   7.500   3.586   3.477  0.4307  0.3864 -0.2956
15012SOL    HW249722   7.369   3.525   3.523 -0.3540  2.8495  0.8973
15013SOL     OW49723  11.582   3.167   9.532 -0.4012  0.3514  0.3030
15013SOL    HW149724  11.609   3.105   9.599 -2.2003 -0.0647  0.7082
15013SOL    HW249725  11.548   3.242   9.581  0.5265  1.0977 -0.1744
15014SOL     OW49726   7.759   3.188   2.835  0.0492  0.6511 -0.1385
15014SOL    HW149727   7.849   3.201   2.805  0.7229 -3.3982 -0.5523
15014SOL    HW249728   7.767   3.154   2.924 -0.9416 -0.5543 -0.4704
15015SOL     OW49729  10.058   9.143   1.228 -0.3091  0.3702 -0.1802
15015SOL    HW149730  10.085   9.218   1.176 -0.9328 -0.2685 -1.5104
15015SOL    HW249731  10.075   9.067   1.171 -0.7848 -0.3844  0.6503
15016SOL     OW49732   7.480   3.169   4.673 -0.1870 -0.0668 -0.1885
15016SOL    HW149733   7.449   3.083   4.643  1.6483 -1.2155  1.0144
15016SOL    HW249734   7.523   3.207   4.597 -0.5456 -0.4528 -0.5874
15017SOL     OW49735   0.637  10.821  10.551 -0.7362 -0.1679 -0.6285
15017SOL    HW149736   0.590  10.777  10.622 -0.8876  0.1017 -0.5583
15017SOL    HW249737   0.649  10.754  10.485 -0.4579 -0.4621 -0.2819
15018SOL     OW49738  11.053   8.289  11.048 -0.2673  0.4377 -0.0651
15018SOL    HW149739  11.001   8.360  11.012 -0.2513  0.4776 -0.0097
15018SOL    HW249740  11.119   8.332  11.102 -0.7715  0.3498  0.6494
15019SOL     OW49741   5.293   1.616   7.254 -0.4967  0.1511 -0.7967
15019SOL    HW149742   5.378   1.643   7.288 -0.3724 -1.1531  0.0264
15019SOL    HW249743   5.231   1.633   7.325 -0.6077 -0.5614 -0.7076
15020SOL     OW49744   9.054   5.740   7.005  0.0272 -0.6424  0.3341
15020SOL    HW149745   9.034   5.833   7.016 -0.4999 -0.7944  0.7303
15020SOL    HW249746   9.132   5.738   6.950 -0.3000  0.0157 -0.1675
15021SOL     OW49747   8.006   4.972   8.325 -0.0761  0.3465  0.2352
15021SOL    HW149748   8.005   4.923   8.243 -0.1136 -1.3698  1.2313
15021SOL    HW249749   8.079   5.033   8.315  0.9945 -0.9908 -0.4338
15022SOL     OW49750   8.951   7.890  10.701 -0.1343  0.2753 -0.2850
15022SOL    HW149751   8.873   7.941  10.677  0.6557  1.7963  0.2014
15022SOL    HW249752   9.024   7.939  10.663  0.5450 -1.9999 -2.1620
15023SOL     OW49753   5.438  11.418   4.897 -0.4588  0.2250 -0.2644
15023SOL    HW149754   5.421  11.341   4.951 -0.0194  0.2169 -0.1376
15023SOL    HW249755   5.533  11.418   4.884 -0.4970  0.5470 -0.5594
15024SOL     OW49756   0.661   0.728   5.852  0.0472  0.0235  0.3087
15024SOL    HW149757   0.577   0.774   5.845 -0.3250 -0.5655  0.8442
15024SOL    HW249758   0.711   0.759   5.777 -0.0460  1.6002  0.8517
15025SOL     OW49759  10.849   1.730   7.391 -0.8448  0.3091 -0.4170
15025SOL    HW149760  10.822   1.657   7.447  1.5116 -0.0297  0.3852
15025SOL    HW249761  10.843   1.807   7.448  0.0261  0.2045 -0.1793
15026SOL     OW49762   0.482   4.206   2.300 -0.1971 -0.2181 -0.4671
15026SOL    HW149763   0.538   4.221   2.224  1.6877 -1.1348  0.6618
15026SOL    HW249764   0.444   4.292   2.320  1.1754  0.5374 -1.0156
15027SOL     OW49765   8.032   0.768   8.788 -0.8998  0.3603  0.0687
15027SOL    HW149766   8.087   0.810   8.855 -1.1896  2.8628 -1.1537
15027SOL    HW249767   8.094   0.719   8.735  0.1477  2.4479 -0.7739
15028SOL     OW49768   1.826   7.323   8.709 -0.7310 -0.0005 -0.6649
15028SOL    HW149769   1.811   7.392   8.773 -1.1217  0.2008 -0.9656
15028SOL    HW249770   1.793   7.244   8.750  1.4984 -0.4128  0.4895
15029SOL     OW49771  11.934   2.101  10.835 -0.0569  0.2139  0.3035
15029SOL    HW149772  11.869   2.116  10.904  1.3101 -1.5628  2.1107
15029SOL    HW249773  11.960   2.010  10.847  0.3408 -0.1447 -2.5518
15030SOL     OW49774   8.916   5.244   0.094 -0.1852 -0.2972  0.1395
15030SOL    HW149775   8.904   5.219   0.002 -0.1167  0.0179  0.0398
15030SOL    HW249776   8.828   5.240   0.132 -1.1040  3.7243 -1.0340
15031SOL     OW49777  11.780   9.740   0.248  0.3472 -0.1356  0.0533
15031SOL    HW149778  11.809   9.831   0.249 -1.9762  0.6600  1.2567
15031SOL    HW249779  11.764   9.719   0.340  0.7647 -1.7616 -0.2136
15032SOL     OW49780   2.225   2.719   0.929  0.7775  0.1521  0.1016
15032SOL    HW149781   2.222   2.793   0.989  0.3596  0.4434 -0.2750
15032SOL    HW249782   2.136   2.685   0.928  0.5809  0.6496 -0.9647
15033SOL     OW49783   8.832   9.978   0.542 -0.8173 -0.0496 -0.3041
15033SOL    HW149784   8.758   9.970   0.602 -0.0350  2.4720  1.1423
15033SOL    HW249785   8.797  10.025   0.466 -1.1745 -0.7507 -0.5750
15034SOL     OW49786  10.411   5.280   0.073 -0.3189  0.1588  0.2718
15034SOL    HW149787  10.439   5.335  -0.000  0.8839 -1.2417 -0.3506
15034SOL    HW249788  10.445   5.193   0.053 -1.2681 -0.6016  1.7631
15035SOL     OW49789   8.434   2.897   3.493  0.2591 -0.3967 -0.4456
15035SOL    HW149790   8.488   2.942   3.558 -0.9004  0.1843  0.1485
15035SOL    HW249791   8.480   2.910   3.411  0.1123  1.7100 -0.2545
15036SOL     OW49792   2.665   5.304  10.963  0.6682 -0.0577 -0.5288
15036SOL    HW149793   2.704   5.254  10.891  2.2586 -0.1638  0.3659
15036SOL    HW249794   2.594   5.249  10.995  1.2335 -0.9176 -0.7306
15037SOL     OW49795   0.794   8.567  10.840  0.0505 -0.0155  0.0874
15037SOL    HW149796   0.814   8.475  10.828  1.6694  0.1844  1.0608
15037SOL    HW249797   0.808   8.606  10.754  1.7793 -0.2726  0.2327
15038SOL     OW49798  11.910   2.616   9.112 -0.2116 -0.8234  0.3164
15038SOL    HW149799  11.830   2.665   9.131 -0.8081 -1.4855 -0.3609
15038SOL    HW249800  11.878   2.531   9.080  0.7744 -1.3068  0.5798
15039SOL     OW49801   4.927   0.582  10.318  0.0077  0.1435 -1.3006
15039SOL    HW149802   4.864   0.652  10.336 -0.5674 -0.2771 -1.6582
15039SOL    HW249803   4.874   0.507  10.292  0.6344 -0.3421 -1.2204
15040SOL     OW49804   1.276   0.317   3.142  0.3806 -0.1528  0.3085
15040SOL    HW149805   1.225   0.356   3.070  1.3248  1.2397  0.3650
15040SOL    HW249806   1.331   0.251   3.099  0.2434 -0.0025 -0.1023
15041SOL     OW49807   5.960   2.777   6.318 -0.3918 -0.6328  0.8167
15041SOL    HW149808   6.025   2.785   6.388  2.7987 -1.1469 -1.8534
15041SOL    HW249809   5.940   2.684   6.313 -1.7759 -0.4395  1.8683
15042SOL     OW49810   9.030  11.624   1.818 -0.4878 -0.0230 -1.0060
15042SOL    HW149811   9.006  11.697   1.875  0.6299  0.0095 -0.5332
15042SOL    HW249812   9.102  11.581   1.865 -0.6146 -0.9601 -1.6458
15043SOL     OW49813   2.474   9.612   6.425 -0.2313  0.0852  0.1382
15043SOL    HW149814   2.411   9.683   6.413 -0.6304 -0.2199  0.3952
15043SOL    HW249815   2.490   9.579   6.337  1.3115  1.6278 -0.2152
15044SOL     OW49816   1.945   0.877   3.081  0.3182  0.8724 -0.6645
15044SOL    HW149817   1.899   0.958   3.060 -0.7651 -0.3533 -3.5607
15044SOL    HW249818   1.901   0.844   3.159 -0.2110  2.2939 -0.3277
15045SOL     OW49819  10.358   6.831  10.925 -0.0079  0.2968  0.5184
15045SOL    HW149820  10.303   6.883  10.983  0.0403  1.0060 -0.0530
15045SOL    HW249821  10.309   6.825  10.844  0.1572 -0.2336  0.4544
15046SOL     OW49822   1.197   4.620   3.223 -0.5370  0.2271 -0.2107
15046SOL    HW149823   1.150   4.634   3.306  0.0290 -0.3775  0.2295
15046SOL    HW249824   1.165   4.536   3.192  0.3883 -0.3039  0.2097
15047SOL     OW49825  11.775   4.901   6.945  0.5510 -0.3542  0.4071
15047SOL    HW149826  11.838   4.956   6.897 -0.9143  0.2090 -0.9689
15047SOL    HW249827  11.762   4.947   7.028 -0.4328  1.2773 -0.6080
15048SOL     OW49828   0.395  10.819   8.849 -0.3747  0.5481 -0.5880
15048SOL    HW149829   0.356  10.733   8.865 -0.3137  0.1078 -2.6143
15048SOL    HW249830   0.387  10.865   8.933  0.4770 -1.7484  0.8295
15049SOL     OW49831   1.034  10.456   5.026 -0.1497 -0.5915  0.0821
15049SOL    HW149832   1.024  10.550   5.039  1.2744 -0.5624  1.1206
15049SOL    HW249833   1.097  10.448   4.954 -1.0763 -0.7785 -0.7364
15050SOL     OW49834   9.732   8.192   7.980 -0.3679 -0.7160  0.6822
15050SOL    HW149835   9.659   8.221   7.925  0.3680  0.7153  0.4143
15050SOL    HW249836   9.755   8.270   8.031  2.4018 -0.4147 -0.8328
15051SOL     OW49837   3.078   3.534   1.541  0.9732 -0.0859  0.5215
15051SOL    HW149838   3.149   3.471   1.547  1.3734  0.4441  1.5686
15051SOL    HW249839   3.110   3.612   1.587  0.3061  0.7145 -0.3262
15052SOL     OW49840   7.460   3.443   3.821  0.0301  0.2134  0.3014
15052SOL    HW149841   7.481   3.426   3.730  2.6508 -1.3952  1.0907
15052SOL    HW249842   7.398   3.374   3.845  2.4732 -1.9756  0.7042
15053SOL     OW49843   4.621  11.047  11.251  0.0285  0.7482 -0.2882
15053SOL    HW149844   4.578  11.010  11.328  0.9376  1.3924  0.5600
15053SOL    HW249845   4.578  11.005  11.177 -0.9462  0.1918  0.5623
15054SOL     OW49846  10.116   9.586   5.832 -0.4842 -0.5104 -0.5157
15054SOL    HW149847  10.112   9.637   5.751 -0.6234  2.1196  1.0647
15054SOL    HW249848  10.025   9.564   5.852 -0.4541 -1.1099 -1.0032
15055SOL     OW49849   7.362  10.007   3.724 -0.5105 -0.2298 -0.0571
15055SOL    HW149850   7.389  10.068   3.793  0.5721  0.2189 -0.8395
15055SOL    HW249851   7.440   9.955   3.707 -1.5297 -2.1468  0.8584
15056SOL     OW49852   1.152   7.955  10.831  0.3684 -0.0506 -0.2248
15056SOL    HW149853   1.068   7.909  10.821  0.0970  0.5855 -0.8939
15056SOL    HW249854   1.173   7.945  10.924 -2.1882  2.6769  0.8200
15057SOL     OW49855   1.108  10.170  11.472  0.1262 -0.1730  0.7408
15057SOL    HW149856   1.202  10.187  11.479  0.1227 -0.2051  0.8609
15057SOL    HW249857   1.067  10.245  11.514  0.0615  0.5304 -0.5224
15058SOL     OW49858   7.334   5.730   1.138 -0.0969 -0.0891  0.2988
15058SOL    HW149859   7.404   5.777   1.094  0.6058 -2.5389 -1.3734
15058SOL    HW249860   7.254   5.757   1.093  0.4791 -1.6035 -1.7556
15059SOL     OW49861   8.741   8.285   1.511  0.1735  0.1827  0.0064
15059SOL    HW149862   8.680   8.273   1.584  1.6049 -0.7987  1.1046
15059SOL    HW249863   8.700   8.240   1.437  0.3379 -2.0138  1.1742
15060SOL     OW49864   8.222   6.876   2.678  0.0264  0.2161 -0.5856
15060SOL    HW149865   8.162   6.842   2.744 -1.7978  2.5302 -0.9195
15060SOL    HW249866   8.173   6.870   2.596  0.8948  0.6227 -1.1503
15061SOL     OW49867   7.378   6.238   3.539 -0.5057 -0.5360 -0.1165
15061SOL    HW149868   7.329   6.250   3.621 -1.1531  1.1530 -0.6961
15061SOL    HW249869   7.461   6.200   3.565 -0.6713  0.0498  1.3531
15062SOL     OW49870   0.748   0.236   3.267  0.0721 -0.1272 -0.7236
15062SOL    HW149871   0.761   0.309   3.206  0.3296  1.8185  1.5069
15062SOL    HW249872   0.806   0.256   3.340 -1.9903 -1.0105  1.2729
15063SOL     OW49873   7.999   6.294   9.808  0.2540  0.8250 -0.2132
15063SOL    HW149874   7.905   6.275   9.813  0.0544  1.2267 -1.8764
15063SOL    HW249875   8.009   6.377   9.855 -0.2555  0.9159 -0.2561
15064SOL     OW49876   2.608   2.803   5.330  0.0347  0.0862  0.4325
15064SOL    HW149877   2.559   2.722   5.316 -1.6500  0.7158  2.2107
15064SOL    HW249878   2.649   2.792   5.416 -0.6738  1.2790  0.9586
15065SOL     OW49879   8.168   1.531  11.599  0.0452 -0.0834  0.2780
15065SOL    HW149880   8.111   1.601  11.567 -0.6898  0.3031  2.2967
15065SOL    HW249881   8.257   1.565  11.586 -0.2825  0.8816  0.4436
15066SOL     OW49882   1.483   8.641   1.701  0.3958  0.2357  0.0426
15066SOL    HW149883   1.566   8.670   1.741  0.2523  0.7516 -0.0253
15066SOL    HW249884   1.481   8.685   1.617  0.5611 -0.6308 -0.4254
15067SOL     OW49885   0.163   4.791   6.780  0.2311  0.2587  0.0174
15067SOL    HW149886   0.234   4.736   6.812  0.6272  0.6144 -0.2328
15067SOL    HW249887   0.097   4.789   6.849 -1.2471 -3.1731 -1.3086
15068SOL     OW49888  11.467   1.062   4.963  0.0741 -0.4185  0.0204
15068SOL    HW149889  11.405   1.039   4.895  0.3094  0.6006 -0.5533
15068SOL    HW249890  11.491   1.153   4.945  1.4330 -0.6580  0.4533
15069SOL     OW49891   4.782   0.949   7.998  0.0906  0.1730  0.1084
15069SOL    HW149892   4.848   0.960   8.066 -0.1136 -0.0475  0.3431
15069SOL    HW249893   4.705   0.996   8.030  0.1278  0.4194 -0.1590
15070SOL     OW49894   1.284   8.544  10.485  0.1308 -0.3680 -0.2406
15070SOL    HW149895   1.249   8.627  10.518 -0.5179 -0.9151  0.4646
15070SOL    HW249896   1.379   8.558  10.484 -0.0015  0.5654 -0.6360
15071SOL     OW49897   2.294   4.936   2.167  0.2286  0.0626  0.2128
15071SOL    HW149898   2.201   4.935   2.145 -0.1321  2.0476  1.3769
15071SOL    HW249899   2.335   4.989   2.098  0.6137 -1.1887 -0.5561
15072SOL     OW49900   4.239   3.352   7.489 -0.0218  0.3935  0.6474
15072SOL    HW149901   4.320   3.336   7.441 -1.4713 -0.8403 -1.5444
15072SOL    HW249902   4.182   3.278   7.467 -1.4094  0.6887  2.9327
15073SOL     OW49903   3.488   2.496  11.673  0.1823  0.7260 -0.0941
15073SOL    HW149904   3.584   2.499  11.678  0.1100  1.3889  1.5878
15073SOL    HW249905   3.463   2.580  11.636  0.2829 -0.1029 -2.1683
15074SOL     OW49906   5.707  11.804   5.308 -0.1395  0.0846 -0.3736
15074SOL    HW149907   5.659  11.730   5.344 -0.5021 -0.0610 -1.1378
15074SOL    HW249908   5.681  11.878   5.363  1.9236 -0.6867  1.8417
15075SOL     OW49909  11.721   6.173  10.614  0.0665 -0.0762  0.1769
15075SOL    HW149910  11.756   6.262  10.612 -2.4835  1.0328  0.7847
15075SOL    HW249911  11.630   6.182  10.587  0.1534 -2.7962 -1.3915
15076SOL     OW49912   3.667   1.766   0.002  0.1428 -0.7043 -0.1893
15076SOL    HW149913   3.718   1.847  -0.004 -3.5945  1.9824  0.3516
15076SOL    HW249914   3.691   1.717  -0.076  1.3655  1.7433 -1.4871
15077SOL     OW49915   9.682   9.918   7.570 -0.0542 -0.0126 -0.5903
15077SOL    HW149916   9.609   9.868   7.607  0.2023  0.0311 -0.0064
15077SOL    HW249917   9.729   9.951   7.647 -0.9955  2.3016 -0.9046
15078SOL     OW49918   2.219   8.552   9.602  0.3217  0.3276 -0.4766
15078SOL    HW149919   2.137   8.502   9.604 -0.7017  1.9377  0.3261
15078SOL    HW249920   2.192   8.642   9.619  2.5204  0.5750  2.3516
15079SOL     OW49921   3.610   1.695   9.029  0.3746 -0.4593 -0.1166
15079SOL    HW149922   3.551   1.621   9.021  1.1169 -1.0381 -0.3048
15079SOL    HW249923   3.601   1.723   9.120 -0.8682  0.0532 -0.3674
15080SOL     OW49924   2.715   8.860  11.054  0.5147 -0.3260  0.1465
15080SOL    HW149925   2.762   8.778  11.040  1.8533 -0.1703  3.1256
15080SOL    HW249926   2.641   8.836  11.110 -1.7729 -0.1290 -2.5191
15081SOL     OW49927   9.960   6.715   7.057 -0.1023 -0.6456  0.0522
15081SOL    HW149928  10.048   6.682   7.072  0.7686  0.7887 -1.4508
15081SOL    HW249929   9.957   6.730   6.962 -2.5085 -2.0803 -0.1681
15082SOL     OW49930   8.568   6.959  11.035 -0.1348  0.1626 -0.0221
15082SOL    HW149931   8.530   6.952  11.122 -0.8494  1.5027 -0.2010
15082SOL    HW249932   8.657   6.993  11.051  0.0991 -0.5487  0.2324
15083SOL     OW49933   0.648   6.749  10.723  0.2263 -0.0492 -0.1999
15083SOL    HW149934   0.662   6.667  10.770  2.4165  0.1567 -0.4151
15083SOL    HW249935   0.657   6.725  10.630 -0.1671  0.2583 -0.3214
15084SOL     OW49936  11.460   3.186   4.499 -0.3641 -0.2491  0.2561
15084SOL    HW149937  11.495   3.152   4.416  0.0525 -0.2035  0.4072
15084SOL    HW249938  11.366   3.173   4.493 -0.2217 -1.3729  0.2781
15085SOL     OW49939   2.410   8.287   2.070 -0.1421 -0.0272  0.2812
15085SOL    HW149940   2.321   8.286   2.104  0.3252 -0.5103  1.5555
15085SOL    HW249941   2.440   8.377   2.086 -0.8601  0.5687 -1.4862
15086SOL     OW49942   6.232   4.139   4.645  0.1052 -0.6047 -0.1434
15086SOL    HW149943   6.185   4.165   4.725  0.5367 -0.5269  0.0894
15086SOL    HW249944   6.324   4.134   4.672  0.3376 -0.0010 -0.7724
15087SOL     OW49945   7.222   0.708   9.757 -0.5526 -0.3037 -0.0026
15087SOL    HW149946   7.200   0.654   9.833 -0.6598 -1.8974 -1.1383
15087SOL    HW249947   7.300   0.757   9.785 -2.1159  1.1925  2.0511
15088SOL     OW49948   4.718   3.407   4.287 -0.7763 -0.4707  0.1295
15088SOL    HW149949   4.755   3.427   4.373 -1.4771  0.4235  0.2286
15088SOL    HW249950   4.784   3.350   4.246  0.5527  0.7962  0.4397
15089SOL     OW49951   9.256   1.913  11.182 -0.3636 -0.2981  0.2716
15089SOL    HW149952   9.263   1.948  11.093  2.5454 -0.4862  0.3209
15089SOL    HW249953   9.178   1.858  11.180 -0.4557 -0.1849 -2.1271
15090SOL     OW49954   1.039   4.324   9.398  0.4804  0.2090  0.1382
15090SOL    HW149955   1.047   4.248   9.340  2.0005  0.4510 -0.0330
15090SOL    HW249956   1.037   4.286   9.486  2.1540 -0.0559  0.1110
15091SOL     OW49957   0.046   4.681   6.407 -0.2905  0.1679  0.2645
15091SOL    HW149958   0.008   4.757   6.451  0.7170  1.0286 -0.2862
15091SOL    HW249959   0.056   4.615   6.476 -1.3181  0.4749  0.7191
15092SOL     OW49960  11.208   9.324   5.849  0.4324  0.0296  0.3544
15092SOL    HW149961  11.207   9.258   5.917  0.4484 -0.8596 -0.4886
15092SOL    HW249962  11.291   9.370   5.861  0.3850 -0.0516  0.9907
15093SOL     OW49963  11.522   4.616   4.379 -0.0343  0.1038 -0.3913
15093SOL    HW149964  11.538   4.564   4.300 -1.8515  0.3884 -0.9903
15093SOL    HW249965  11.522   4.553   4.450 -0.3952 -0.4567 -0.8838
15094SOL     OW49966  11.833  10.666   6.405 -0.0477  0.1148  0.2052
15094SOL    HW149967  11.832  10.709   6.491 -2.0222 -0.8982  0.7572
15094SOL    HW249968  11.756  10.701   6.360 -0.5655 -1.3203 -0.0861
15095SOL     OW49969   5.260  10.374   5.675 -0.1301  0.5512  0.3315
15095SOL    HW149970   5.171  10.358   5.643  0.8404 -1.3251 -1.6628
15095SOL    HW249971   5.255  10.358   5.769 -1.8029  0.0877  0.1911
15096SOL     OW49972   8.493   3.266   6.037  0.0506  0.0848 -0.2110
15096SOL    HW149973   8.397   3.265   6.043  0.0490  0.4878 -0.1047
15096SOL    HW249974   8.511   3.285   5.945  0.0328 -0.4352 -0.3226
15097SOL     OW49975   2.199   9.603   8.320  0.3371  0.4697 -0.2631
15097SOL    HW149976   2.105   9.607   8.336  0.4164  1.6227 -0.0295
15097SOL    HW249977   2.234   9.557   8.397 -0.0758 -0.4190 -0.5916
15098SOL     OW49978   8.057   9.880   3.331  0.2926 -0.2425  0.1784
15098SOL    HW149979   8.007   9.822   3.388 -1.4704  0.4555 -0.5846
15098SOL    HW249980   8.051   9.966   3.373 -0.1285  0.0656 -0.4963
15099SOL     OW49981   7.673   5.841   2.880  0.3857 -0.0696 -0.4494
15099SOL    HW149982   7.745   5.778   2.881  1.2562  0.8079 -2.5079
15099SOL    HW249983   7.665   5.868   2.789  0.1901  2.9580  0.3558
15100SOL     OW49984   2.251   7.329   1.644  0.4415 -0.4292  0.5245
15100SOL    HW149985   2.302   7.408   1.663 -1.5791  1.1912 -0.4075
15100SOL    HW249986   2.240   7.287   1.729  1.5038  0.3000  1.0543
15101SOL     OW49987  10.314   2.441   6.356  0.3041  0.5354 -0.0550
15101SOL    HW149988  10.399   2.464   6.392 -1.3532  2.5284  3.0699
15101SOL    HW249989  10.284   2.367   6.408 -1.0938  1.8654  1.1516
15102SOL     OW49990  10.229  11.745   5.901 -0.0978  0.4822  0.4915
15102SOL    HW149991  10.242  11.775   5.811  0.7606 -2.3874 -0.4433
15102SOL    HW249992  10.270  11.813   5.955 -0.0439  1.9448 -1.2910
15103SOL     OW49993   5.174   7.763   4.797  0.2201 -0.3926 -0.2805
15103SOL    HW149994   5.227   7.684   4.793  0.6944 -0.0578 -0.6149
15103SOL    HW249995   5.086   7.734   4.774  0.6582 -0.5768 -1.8319
15104SOL     OW49996   5.036  10.733  10.260  0.2400  0.0168 -0.3019
15104SOL    HW149997   5.039  10.666  10.191 -0.6980  0.3445 -0.6786
15104SOL    HW249998   4.943  10.737  10.285  0.3566  0.8788  0.0090
15105SOL     OW49999  11.989   8.893   4.969  0.1408  0.2316 -0.7836
15105SOL    HW150000  11.942   8.975   4.984 -0.4603 -0.2669  0.1270
15105SOL    HW250001  12.061   8.895   5.032 -0.2696 -0.2405 -0.2960
15106SOL     OW50002   5.348   8.922   3.180  0.3684  0.4546 -0.0261
15106SOL    HW150003   5.335   8.901   3.088 -0.7343  2.1479 -0.3160
15106SOL    HW250004   5.389   9.009   3.180  2.1477 -0.3399  1.0832
15107SOL     OW50005  10.735   2.245   2.004  0.2636  0.1144 -0.3471
15107SOL    HW150006  10.749   2.221   1.912  1.7830  0.8583 -0.3299
15107SOL    HW250007  10.641   2.261   2.010  0.4654  2.8268 -2.4813
15108SOL     OW50008  11.863   4.842  10.366  0.3335  0.3656  0.0815
15108SOL    HW150009  11.885   4.757  10.329 -0.2490  0.0666  0.4060
15108SOL    HW250010  11.888   4.905  10.298  1.4338 -0.0052  0.1364
15109SOL     OW50011   1.824   2.795   6.988 -0.3193  0.4093  0.3642
15109SOL    HW150012   1.783   2.747   6.916  1.1924 -0.8392  0.2744
15109SOL    HW250013   1.875   2.863   6.945  0.2570 -0.0777  0.2685
15110SOL     OW50014  10.208  11.424   5.238  0.5932  0.1934 -0.0544
15110SOL    HW150015  10.239  11.498   5.289  0.8113  0.9376 -1.2186
15110SOL    HW250016  10.113  11.437   5.233  0.0970 -1.5691  2.7044
15111SOL     OW50017   0.029  11.413   4.932 -0.1418  0.0325 -0.0510
15111SOL    HW150018  -0.051  11.409   4.881 -1.0049  1.5204  1.1217
15111SOL    HW250019   0.088  11.352   4.888 -1.0048  0.8332 -2.4878
15112SOL     OW50020   5.996   4.829  10.684  0.6040  0.6572  0.0253
15112SOL    HW150021   5.917   4.852  10.734  0.4109  2.3118 -0.9617
15112SOL    HW250022   6.040   4.764  10.737 -2.1642 -1.4554 -0.0419
15113SOL     OW50023   8.697   5.821   4.613 -0.4122  0.3567  0.1443
15113SOL    HW150024   8.747   5.902   4.622 -1.8033  1.0465  2.2906
15113SOL    HW250025   8.611   5.840   4.650 -0.5103 -2.3473  1.5832
15114SOL     OW50026   9.543   7.954   2.994  0.3712 -0.3036  0.0570
15114SOL    HW150027   9.637   7.968   2.982  0.4554 -1.4427 -0.8178
15114SOL    HW250028   9.513   8.032   3.040  1.6379  0.3536 -0.1700
15115SOL     OW50029   3.733   0.937   5.418  0.0644 -0.3546  0.1236
15115SOL    HW150030   3.709   0.883   5.342  1.0231 -1.9637  0.9051
15115SOL    HW250031   3.825   0.959   5.404 -0.5998  2.2149 -0.7826
15116SOL     OW50032   2.893   5.466   9.537 -0.5328 -0.2512  0.1256
15116SOL    HW150033   2.835   5.401   9.497 -2.2337  1.3234 -0.1286
15116SOL    HW250034   2.843   5.499   9.612  0.4651  0.4729  0.4945
15117SOL     OW50035   4.997   2.375   2.882  0.8750  0.1551 -0.2143
15117SOL    HW150036   4.925   2.312   2.887  0.4452  0.6294 -0.3305
15117SOL    HW250037   4.956   2.459   2.899  1.6441  0.2900  1.1362
15118SOL     OW50038   1.894   7.655   1.268  0.4222  0.0151  0.2485
15118SOL    HW150039   1.878   7.736   1.316  1.3286 -0.0828  0.7364
15118SOL    HW250040   1.906   7.683   1.178 -1.1683  0.2166  0.0699
15119SOL     OW50041   6.951   3.881  10.448  0.2980  0.0751 -0.0159
15119SOL    HW150042   7.005   3.937  10.506  0.3952 -0.4234  0.3786
15119SOL    HW250043   6.883   3.846  10.505  0.0068  0.0873 -0.3510
15120SOL     OW50044   4.451   6.772   4.236  0.1089  0.4956 -0.3738
15120SOL    HW150045   4.360   6.742   4.240  0.5237 -0.7027  0.7990
15120SOL    HW250046   4.498   6.699   4.196  0.9154  0.1158  1.2022
15121SOL     OW50047   3.550   7.287  10.207  0.1619  0.9357  0.2278
15121SOL    HW150048   3.494   7.309  10.132  0.3683 -0.2273 -0.2772
15121SOL    HW250049   3.490   7.290  10.282 -0.0113  2.2647  0.0670
15122SOL     OW50050  10.486   2.194   3.522  0.1744  0.0460 -0.3485
15122SOL    HW150051  10.402   2.237   3.503 -0.1459  0.3425  1.5232
15122SOL    HW250052  10.549   2.240   3.466 -0.7234  0.5819 -0.9605
15123SOL     OW50053   0.980   8.263   8.592  0.4979 -0.4758  0.0229
15123SOL    HW150054   1.012   8.335   8.646 -2.1135  2.0262 -1.4356
15123SOL    HW250055   0.971   8.190   8.652  0.1097  1.4136  2.4298
15124SOL     OW50056   5.620   9.950  10.711 -0.2465 -0.6885  0.0420
15124SOL    HW150057   5.604   9.980  10.621  1.0654 -0.4055 -0.1192
15124SOL    HW250058   5.648  10.029  10.757  0.7449 -1.1661  0.2655
15125SOL     OW50059  10.159   5.800   7.266 -0.9335 -0.7746 -1.2057
15125SOL    HW150060  10.241   5.845   7.249 -1.4673  0.1276 -1.4552
15125SOL    HW250061  10.144   5.813   7.360 -0.9174 -0.7226 -1.2106
15126SOL     OW50062   6.339   2.008   0.877  0.1438 -0.0658 -0.1844
15126SOL    HW150063   6.248   1.988   0.855 -0.5309  1.9627  0.5523
15126SOL    HW250064   6.364   2.077   0.815  0.2749  1.2566  1.2617
15127SOL     OW50065   0.097  10.171   6.755 -0.1529 -0.1116 -0.3720
15127SOL    HW150066   0.184  10.205   6.775  0.4749 -1.6079 -0.4008
15127SOL    HW250067   0.099  10.154   6.660  0.1489 -1.7530 -0.0940
15128SOL     OW50068   8.042   7.376   6.781  0.2923  0.1876  0.5776
15128SOL    HW150069   8.125   7.394   6.735  0.2710 -0.7765  0.1224
15128SOL    HW250070   8.068   7.360   6.871  0.7084 -0.7782  0.3058
15129SOL     OW50071   1.654   3.421  10.486  0.2491 -0.0174  0.0767
15129SOL    HW150072   1.664   3.507  10.446 -0.1553  0.3062  0.6567
15129SOL    HW250073   1.706   3.362  10.431 -0.0183  0.4759 -0.7144
15130SOL     OW50074   0.309   9.368   0.081  0.3449  0.3641 -0.3153
15130SOL    HW150075   0.291   9.346  -0.011  0.7509  0.9419 -0.5380
15130SOL    HW250076   0.260   9.302   0.131  0.6233 -0.3431 -0.9513
15131SOL     OW50077   9.805   3.572   0.065 -0.3021  0.0727 -0.0041
15131SOL    HW150078   9.896   3.582   0.038 -0.7653 -0.3992 -1.8605
15131SOL    HW250079   9.759   3.644   0.021 -1.5567 -2.3815 -3.1153
15132SOL     OW50080  10.329  10.987   8.224  0.1432  0.3102  0.1273
15132SOL    HW150081  10.302  10.901   8.193 -0.1194  0.3165  0.3356
15132SOL    HW250082  10.248  11.037   8.233  0.4452  1.3591 -2.2143
15133SOL     OW50083   7.009   1.587   2.869  0.1294 -0.4397 -0.6583
15133SOL    HW150084   7.028   1.497   2.843  2.1066 -0.0930 -0.6171
15133SOL    HW250085   7.083   1.638   2.834 -0.3374  0.9723  0.3233
15134SOL     OW50086   0.533  11.464   7.674  0.2699  0.1491 -0.4466
15134SOL    HW150087   0.609  11.414   7.706 -0.0633 -1.0126 -1.3832
15134SOL    HW250088   0.571  11.544   7.637  1.0473 -0.3701 -0.8217
15135SOL     OW50089   0.431   5.165   3.176  0.7895 -0.5430  0.2322
15135SOL    HW150090   0.471   5.193   3.094  0.4873  0.2832  0.3536
15135SOL    HW250091   0.372   5.094   3.151  0.0754  0.2483 -0.4148
15136SOL     OW50092   4.462   2.003   0.403  0.5438  0.1939 -0.2352
15136SOL    HW150093   4.508   2.021   0.321  1.5187  2.5128  0.7125
15136SOL    HW250094   4.394   2.070   0.408  0.6687  0.2674  0.9413
15137SOL     OW50095   1.431  10.322  11.815  0.1460  0.3598  0.4552
15137SOL    HW150096   1.499  10.369  11.766 -1.2351  0.8320 -1.1158
15137SOL    HW250097   1.353  10.331  11.761 -1.8688  2.0590  3.3794
15138SOL     OW50098  11.368   1.066   0.039 -0.1402 -0.1647 -0.1820
15138SOL    HW150099  11.449   1.087   0.085  0.4316 -0.2974 -1.0944
15138SOL    HW250100  11.395   1.004  -0.029 -0.8736  0.3690 -0.9848
15139SOL     OW50101   0.307   0.164   6.620  0.2415  0.5865 -0.5855
15139SOL    HW150102   0.399   0.165   6.647  0.2650 -0.3524 -0.5756
15139SOL    HW250103   0.290   0.072   6.600 -1.3452  0.3221  1.6718
15140SOL     OW50104  11.314   8.902   4.617 -0.1119  0.0861  0.1016
15140SOL    HW150105  11.249   8.956   4.573  0.3493  0.1157 -0.5516
15140SOL    HW250106  11.339   8.836   4.552 -1.5982 -1.7433  1.2806
15141SOL     OW50107   9.565   1.275   2.987  0.4586  0.5138  0.1301
15141SOL    HW150108   9.650   1.316   2.980  1.4272 -0.4137  3.9951
15141SOL    HW250109   9.583   1.186   3.017 -1.8325  0.2747  1.0618
15142SOL     OW50110   8.948   3.323   9.032  0.7511 -0.2665  0.1540
15142SOL    HW150111   9.001   3.257   8.988 -1.1638 -1.7210 -0.0877
15142SOL    HW250112   8.899   3.275   9.099  0.2381  1.1305  0.8276
15143SOL     OW50113   7.348   4.139   2.209  0.2044  0.1350  0.4051
15143SOL    HW150114   7.348   4.233   2.227 -0.6573  0.2250 -0.0483
15143SOL    HW250115   7.272   4.125   2.154  1.5666 -0.4956 -1.4050
15144SOL     OW50116  10.881   4.159   3.656  0.1742 -0.4434 -0.1381
15144SOL    HW150117  10.833   4.232   3.695  2.2401  1.0991 -0.3411
15144SOL    HW250118  10.933   4.124   3.728 -0.4494 -1.4617 -0.1599
15145SOL     OW50119   2.719   7.624   9.636 -0.0696  0.4698 -0.1278
15145SOL    HW150120   2.809   7.594   9.648 -0.6560 -1.0565  0.8384
15145SOL    HW250121   2.665   7.548   9.661 -1.6266  1.4790 -0.2649
15146SOL     OW50122   4.167   4.538   8.884 -0.1540 -0.0256 -0.0249
15146SOL    HW150123   4.110   4.585   8.823 -2.6359  1.1549  2.9742
15146SOL    HW250124   4.226   4.606   8.918  2.0387 -0.9106 -1.8361
15147SOL     OW50125  10.993   7.087   3.575 -0.1762 -0.6253  0.6041
15147SOL    HW150126  10.940   7.153   3.619  0.5902 -0.9958  2.1661
15147SOL    HW250127  11.067   7.136   3.538 -1.4682 -0.1291 -1.4585
15148SOL     OW50128   0.455  10.306   9.875  0.2377 -0.0285 -0.1964
15148SOL    HW150129   0.474  10.250   9.799  2.3459 -0.2646  0.4234
15148SOL    HW250130   0.504  10.265   9.946 -0.1149  1.2821  0.8302
15149SOL     OW50131   8.351   4.219   0.705 -0.1493  0.3127  0.0146
15149SOL    HW150132   8.407   4.243   0.779  0.7180 -1.1834 -0.1110
15149SOL    HW250133   8.275   4.176   0.745 -0.7388  1.4146  0.1247
15150SOL     OW50134   6.393   6.166   5.541  0.4972 -0.4715 -1.2029
15150SOL    HW150135   6.466   6.166   5.479  0.6834 -1.1143 -1.0001
15150SOL    HW250136   6.433   6.142   5.625  0.3374  0.9024 -0.7085
15151SOL     OW50137   9.364   4.879   0.252  0.6353  0.5607 -0.3771
15151SOL    HW150138   9.275   4.884   0.288  0.3416  0.8920 -1.1238
15151SOL    HW250139   9.378   4.965   0.213  0.8513  0.1302 -1.2529
15152SOL     OW50140   4.517   4.531   6.328 -0.3191 -0.0819  0.3111
15152SOL    HW150141   4.488   4.470   6.396 -0.1231 -0.3329  0.1688
15152SOL    HW250142   4.567   4.477   6.267 -0.4450  0.1537 -0.0026
15153SOL     OW50143   1.184   1.968   3.925 -0.5204  0.2186  0.1053
15153SOL    HW150144   1.131   1.926   3.993 -1.0431  1.5188  0.5157
15153SOL    HW250145   1.247   1.900   3.899 -2.1463 -1.2440 -0.1604
15154SOL     OW50146   2.289   6.934   9.925  0.0791  0.1778 -0.2872
15154SOL    HW150147   2.362   6.995   9.920 -0.3527  0.8780  1.3318
15154SOL    HW250148   2.222   6.970   9.867  0.0006  1.0070  0.3136
15155SOL     OW50149  11.884   5.098   9.928  0.2065  0.3589 -0.6104
15155SOL    HW150150  11.910   5.015   9.889 -0.9973 -1.1824  1.6559
15155SOL    HW250151  11.829   5.140   9.861 -1.5497 -2.0328 -0.7944
15156SOL     OW50152   4.880   5.397  10.222 -0.2155 -0.6898 -0.1211
15156SOL    HW150153   4.935   5.475  10.230 -2.8737  1.4388 -0.9639
15156SOL    HW250154   4.887   5.372  10.130 -1.5623  0.4444 -0.5864
15157SOL     OW50155   8.125   5.534   3.189 -0.0359 -0.0034  0.4124
15157SOL    HW150156   8.166   5.479   3.123 -1.1297  0.7789 -0.9643
15157SOL    HW250157   8.194   5.551   3.253  1.5188  0.5174 -1.3425
15158SOL     OW50158   0.148   0.915   8.392 -0.1929  0.0754 -0.5636
15158SOL    HW150159   0.120   0.824   8.402  2.0574 -0.4573  2.0390
15158SOL    HW250160   0.221   0.911   8.331 -0.2158  0.1460 -0.5954
15159SOL     OW50161   1.755   2.079   3.993  0.3729 -0.1014  0.3082
15159SOL    HW150162   1.739   1.985   4.000  1.0160 -0.2632 -0.2893
15159SOL    HW250163   1.673   2.115   3.959  1.0172 -0.8566 -2.3187
15160SOL     OW50164   5.268  10.458   2.896  0.3411  0.3621  0.6613
15160SOL    HW150165   5.258  10.372   2.937 -1.5805 -0.5530 -1.4878
15160SOL    HW250166   5.179  10.483   2.871  1.0216  2.4063  0.1085
15161SOL     OW50167   0.694   4.462   5.349 -0.3141  0.0316  0.1927
15161SOL    HW150168   0.727   4.432   5.433  2.5008 -0.6268 -1.0351
15161SOL    HW250169   0.772   4.485   5.299 -1.7533 -0.9402 -2.7405
15162SOL     OW50170   5.173   1.308   5.767 -0.5912 -0.2445  0.5409
15162SOL    HW150171   5.266   1.290   5.771 -0.5843 -0.7480 -1.0065
15162SOL    HW250172   5.132   1.237   5.816 -0.0982  1.4553  3.6450
15163SOL     OW50173   1.369  11.320   7.723  0.2008 -0.2032  0.3975
15163SOL    HW150174   1.320  11.390   7.767  0.2802  1.3250 -1.8213
15163SOL    HW250175   1.321  11.240   7.746 -1.9118  0.9615  0.3111
15164SOL     OW50176   9.404   7.155  10.381  0.3226 -0.3389  0.3664
15164SOL    HW150177   9.427   7.232  10.433  1.0948  1.8061 -2.8951
15164SOL    HW250178   9.312   7.138  10.403 -0.1764  2.1559  0.4549
15165SOL     OW50179   3.547  10.446   7.260  0.1656 -0.3173 -0.7351
15165SOL    HW150180   3.623  10.406   7.301  0.1956  0.3563 -0.1258
15165SOL    HW250181   3.555  10.539   7.279 -1.0078 -0.2785 -0.3388
15166SOL     OW50182   3.521   3.063   6.341  0.2601 -0.3249 -0.0419
15166SOL    HW150183   3.515   2.980   6.389 -1.9307  0.1293  0.5517
15166SOL    HW250184   3.489   3.041   6.253  1.7206 -0.5453 -0.5519
15167SOL     OW50185   1.203   6.379   7.354 -0.0729  0.2272  0.0156
15167SOL    HW150186   1.144   6.448   7.385  1.3406  1.8302 -0.7091
15167SOL    HW250187   1.261   6.362   7.427  1.1711  1.6609 -0.5831
15168SOL     OW50188  10.911   1.801   6.368  0.2962 -0.4933  0.1132
15168SOL    HW150189  10.987   1.840   6.410 -0.4574  0.3736  0.6920
15168SOL    HW250190  10.838   1.819   6.427 -0.1135 -2.7217  0.3987
15169SOL     OW50191   2.811   1.247   1.715 -0.2542 -0.0527  0.7383
15169SOL    HW150192   2.821   1.280   1.625 -1.4213 -0.7878  0.3058
15169SOL    HW250193   2.718   1.225   1.721 -0.2529  0.2736  2.2407
15170SOL     OW50194   9.604  11.011  11.516 -0.2324  0.1703  0.1348
15170SOL    HW150195   9.676  11.056  11.471  1.2410  0.1176  2.2682
15170SOL    HW250196   9.550  11.082  11.552  1.5328  0.3844  2.6384
15171SOL     OW50197   9.890   2.031   7.495  0.1357  0.5935 -0.2533
15171SOL    HW150198   9.837   2.045   7.416  1.1921 -3.1682 -1.8493
15171SOL    HW250199   9.963   2.092   7.486 -0.5682  1.3007 -1.3928
15172SOL     OW50200   3.747   4.608   4.302 -0.5585  0.0729 -0.3998
15172SOL    HW150201   3.674   4.546   4.305 -1.2099  0.8432  0.3482
15172SOL    HW250202   3.824   4.555   4.324 -1.1036 -0.4677  0.2705
15173SOL     OW50203   9.026   7.027   4.493  0.3942 -0.3906 -0.4660
15173SOL    HW150204   9.120   7.041   4.506  0.0737  0.4764  1.2718
15173SOL    HW250205   9.001   6.966   4.562 -0.6170  0.7353  0.1956
15174SOL     OW50206   2.742   7.599   2.463  0.0832 -0.4332 -0.2489
15174SOL    HW150207   2.809   7.538   2.431 -0.3478 -1.1258  0.1545
15174SOL    HW250208   2.660   7.563   2.430 -0.1662 -0.0049 -0.0984
15175SOL     OW50209   4.285   9.283   7.197  0.7361  0.2203 -0.6436
15175SOL    HW150210   4.344   9.211   7.175  1.6783  0.8604 -0.2979
15175SOL    HW250211   4.309   9.353   7.137  3.3816  2.0176  2.2003
15176SOL     OW50212   0.026   1.460   2.855 -0.0931  0.1031  0.1958
15176SOL    HW150213  -0.022   1.382   2.884  0.7597 -0.8017 -0.7102
15176SOL    HW250214   0.051   1.440   2.765 -1.1279  2.0712 -0.5901
15177SOL     OW50215   2.636   4.282   0.849  0.3546  0.0170 -0.4020
15177SOL    HW150216   2.570   4.307   0.914  1.2689  1.0233  0.1788
15177SOL    HW250217   2.629   4.187   0.843 -0.4585  0.0110  0.3858
15178SOL     OW50218   1.500   1.903   9.615  0.4054 -0.4357 -0.3784
15178SOL    HW150219   1.457   1.832   9.568  0.0812 -0.0134 -0.7240
15178SOL    HW250220   1.588   1.907   9.578  0.4215 -0.6500 -0.3626
15179SOL     OW50221   0.027   5.737   9.268  0.6173  0.0633  0.2707
15179SOL    HW150222   0.035   5.817   9.216 -1.1905 -1.0529 -1.9230
15179SOL    HW250223   0.099   5.682   9.238  0.4600 -0.0140  0.0302
15180SOL     OW50224   4.780  10.146   9.558  0.1894 -0.3484 -0.1360
15180SOL    HW150225   4.707  10.095   9.524  1.0490 -1.1483 -0.8146
15180SOL    HW250226   4.752  10.170   9.647 -0.6965 -1.0424 -0.2071
15181SOL     OW50227  10.015   7.634   9.357  0.2374  0.1086  0.0327
15181SOL    HW150228  10.101   7.597   9.335 -0.7079 -1.6446 -0.9356
15181SOL    HW250229   9.957   7.602   9.288 -1.4535  0.1810  1.3553
15182SOL     OW50230   7.933   3.450   0.733  0.2269  0.3764  0.0241
15182SOL    HW150231   7.914   3.460   0.826 -0.3782  1.4440 -0.2010
15182SOL    HW250232   7.851   3.471   0.689  0.2222 -1.0800 -0.7269
15183SOL     OW50233   1.864  10.192  10.793  0.2972  0.1114 -0.5447
15183SOL    HW150234   1.956  10.168  10.794  0.4371 -0.0122 -4.0103
15183SOL    HW250235   1.834  10.170  10.704 -2.1203  3.4863 -0.7599
15184SOL     OW50236   5.324   4.865   3.563  0.4523 -0.0398 -0.3687
15184SOL    HW150237   5.278   4.925   3.506  1.2485  1.3867  0.4430
15184SOL    HW250238   5.263   4.850   3.636  0.7346  0.8348  0.0665
15185SOL     OW50239   8.134   7.925   0.971 -0.5593 -0.1379  0.7193
15185SOL    HW150240   8.065   7.882   0.922  0.7053 -0.5089 -0.8220
15185SOL    HW250241   8.129   7.886   1.059 -1.9097 -0.5653  0.4755
15186SOL     OW50242   6.186   1.863   6.986  0.3686 -0.4932 -0.4658
15186SOL    HW150243   6.097   1.833   7.003  0.2616  0.1984  0.2632
15186SOL    HW250244   6.207   1.827   6.900 -0.4985 -0.9227 -0.5128
15187SOL     OW50245   6.922   0.587  11.250 -0.4515  0.7952 -0.0976
15187SOL    HW150246   6.845   0.590  11.307 -0.3317  2.1864  0.0156
15187SOL    HW250247   6.996   0.584  11.311 -0.3786 -1.9799 -0.1795
15188SOL     OW50248  10.171   9.065   7.655 -0.0243 -0.2561  0.5255
15188SOL    HW150249  10.188   9.089   7.564 -1.0489 -2.0813 -0.2085
15188SOL    HW250250  10.103   9.127   7.683  1.3354  1.2713  0.5793
15189SOL     OW50251   1.002   5.562   0.928 -0.6224 -0.2041  0.3103
15189SOL    HW150252   1.013   5.651   0.893 -0.6411 -0.4035 -0.2118
15189SOL    HW250253   1.037   5.505   0.860 -0.9007 -0.6157  0.5072
15190SOL     OW50254   9.944   6.967   5.430  0.4039  0.9877  0.6555
15190SOL    HW150255   9.881   6.920   5.485  0.0474  1.1943  0.4194
15190SOL    HW250256   9.905   7.052   5.415 -0.5822  0.1682 -1.8134
15191SOL     OW50257   7.324  10.418  10.500 -0.7651  0.1973 -0.0281
15191SOL    HW150258   7.350  10.455  10.585  1.5655  0.6503 -0.8363
15191SOL    HW250259   7.393  10.448  10.441 -2.0597 -0.5490 -1.9799
15192SOL     OW50260   0.085   7.850   8.685  0.3019  0.2968 -0.2492
15192SOL    HW150261   0.131   7.911   8.744  1.8991  0.5583 -1.6951
15192SOL    HW250262   0.085   7.767   8.733 -1.4381  1.2409  1.5285
15193SOL     OW50263   8.383   3.490   5.078  0.1338  0.1567  0.3754
15193SOL    HW150264   8.288   3.491   5.064 -0.3471 -0.5939  2.9617
15193SOL    HW250265   8.399   3.564   5.136  1.0570 -0.0254  0.3656
15194SOL     OW50266   7.271   4.166   1.060 -0.3929 -0.1725 -0.1870
15194SOL    HW150267   7.271   4.242   1.003  0.9117  0.3336  0.4416
15194SOL    HW250268   7.230   4.097   1.008 -0.8485  0.7384 -1.0635
15195SOL     OW50269   6.289   4.471   2.951 -0.1620 -0.2613  0.4714
15195SOL    HW150270   6.273   4.425   2.868  1.1238  1.0862 -0.5751
15195SOL    HW250271   6.346   4.412   3.000  3.6174  1.0588 -1.8845
15196SOL     OW50272   6.132   9.318   9.271 -0.4349 -0.0308  0.4952
15196SOL    HW150273   6.189   9.394   9.265 -3.1667  2.1547 -0.3247
15196SOL    HW250274   6.075   9.324   9.194 -0.4873 -3.2664  0.1082
15197SOL     OW50275   4.151   5.835   3.779  0.3744 -0.0493  0.1452
15197SOL    HW150276   4.214   5.883   3.832  0.6361 -0.1105 -0.1110
15197SOL    HW250277   4.199   5.759   3.747  0.5997  0.6313 -1.2057
15198SOL     OW50278   6.349  10.113   1.880  0.0227 -0.5989 -0.5222
15198SOL    HW150279   6.367  10.146   1.968  1.0370  0.7889 -1.2100
15198SOL    HW250280   6.262  10.146   1.860  0.5106  0.6147 -0.7034
15199SOL     OW50281   9.014   1.360  10.997  0.0860  0.3525  0.0895
15199SOL    HW150282   8.943   1.299  11.013  0.4474 -1.2224 -3.3696
15199SOL    HW250283   9.093   1.315  11.028 -0.1237  1.4524  2.4762
15200SOL     OW50284   2.952   3.483  11.468  0.3037 -0.2176  0.2307
15200SOL    HW150285   2.951   3.550  11.537  0.5631 -0.8706  0.8910
15200SOL    HW250286   3.031   3.432  11.487  1.0388  0.3233 -1.2766
15201SOL     OW50287   9.059  11.977   6.391  0.3718  0.2516 -0.0834
15201SOL    HW150288   9.019  12.013   6.471 -0.6689  0.4878 -0.6956
15201SOL    HW250289   9.101  12.053   6.350  1.4997 -0.0035  0.5767
15202SOL     OW50290  11.320   3.221  10.609 -0.4453  0.4187  0.4892
15202SOL    HW150291  11.391   3.273  10.572 -1.4492  1.4384 -0.0965
15202SOL    HW250292  11.257   3.287  10.639 -2.6356 -0.3703 -1.9750
15203SOL     OW50293   0.811   0.607   9.960  0.2750  0.2991  0.2328
15203SOL    HW150294   0.813   0.564  10.046 -0.3235 -1.0968 -0.4137
15203SOL    HW250295   0.722   0.593   9.928  0.1546  1.8025 -0.1583
15204SOL     OW50296   0.497   5.921  11.865 -0.5030  0.0346 -0.1971
15204SOL    HW150297   0.497   5.867  11.944 -1.7245  0.5835  0.1940
15204SOL    HW250298   0.528   6.007  11.894  3.0232 -0.7396 -1.1074
15205SOL     OW50299   2.135   4.382  11.319 -0.1792  0.3196 -0.2454
15205SOL    HW150300   2.171   4.322  11.254  0.4428  0.0100  0.3763
15205SOL    HW250301   2.163   4.469  11.290  0.7408  0.1199 -0.0006
15206SOL     OW50302   5.539   5.690   8.918  0.2132 -0.3087  0.1194
15206SOL    HW150303   5.554   5.596   8.902 -0.1817 -0.4256  0.4157
15206SOL    HW250304   5.531   5.697   9.013  0.9226  0.1345  0.1570
15207SOL     OW50305   9.734   4.108   9.631  0.1675  0.2951  0.2941
15207SOL    HW150306   9.759   4.132   9.542 -0.0740  2.8035  0.8365
15207SOL    HW250307   9.812   4.128   9.684  0.4412 -1.5122  0.6500
15208SOL     OW50308   9.654   7.895   3.784 -0.0347  0.7644 -0.3205
15208SOL    HW150309   9.641   7.882   3.690  0.4416 -2.2701 -0.0783
15208SOL    HW250310   9.749   7.902   3.794 -0.1059  1.4131 -0.1009
15209SOL     OW50311   7.110   2.598   0.744  0.5419 -0.0767 -0.1747
15209SOL    HW150312   7.017   2.601   0.770  0.2127  2.5567 -1.3633
15209SOL    HW250313   7.143   2.686   0.763  2.8153 -0.9355  0.1352
15210SOL     OW50314   8.806  10.537   3.835 -0.0490  0.0132  0.2165
15210SOL    HW150315   8.778  10.629   3.844 -0.2482  0.1117 -1.1568
15210SOL    HW250316   8.829  10.528   3.742  1.8276 -0.8327  0.7187
15211SOL     OW50317   2.049  10.969  11.430 -0.5570 -0.1464  0.6826
15211SOL    HW150318   2.134  10.984  11.389 -1.5905  0.6648 -1.2876
15211SOL    HW250319   2.061  10.999  11.520  0.3761  3.2034 -0.3945
15212SOL     OW50320   9.327   0.113   6.895 -0.3149  0.5714 -0.0180
15212SOL    HW150321   9.289   0.201   6.897  1.9874  1.6232  0.9174
15212SOL    HW250322   9.355   0.097   6.985 -0.3048 -0.9577 -0.2672
15213SOL     OW50323   4.146   0.638   7.942  0.8201  0.0094  0.2403
15213SOL    HW150324   4.221   0.657   7.886  1.1985 -0.2770  0.6532
15213SOL    HW250325   4.138   0.715   7.998 -1.1002  1.4808 -1.8408
15214SOL     OW50326   3.577   8.409   5.411 -0.0793  0.6256  0.4630
15214SOL    HW150327   3.627   8.380   5.487  1.4330  1.0273 -0.3337
15214SOL    HW250328   3.609   8.356   5.338 -1.4606  0.2830  0.0638
15215SOL     OW50329   4.186  11.475   2.394 -0.9574  0.3497 -0.2675
15215SOL    HW150330   4.214  11.562   2.365 -1.5610  0.2685 -1.1342
15215SOL    HW250331   4.182  11.482   2.489  0.3997  0.8313 -0.2317
15216SOL     OW50332   3.410   1.962   9.395  0.0729  0.0221 -0.2419
15216SOL    HW150333   3.340   1.984   9.457  0.8408  1.0695  0.2829
15216SOL    HW250334   3.379   1.997   9.311  0.0306  0.6431  0.0218
15217SOL     OW50335  10.304  11.028   9.738  0.0316 -0.5469 -0.8849
15217SOL    HW150336  10.248  11.075   9.677  0.0758 -1.0119 -1.2918
15217SOL    HW250337  10.349  10.963   9.685  0.5323 -0.5535 -0.4594
15218SOL     OW50338   4.950   8.940   5.633  0.1578  0.8695  0.1099
15218SOL    HW150339   4.871   8.886   5.630  0.2384  0.6133  1.5949
15218SOL    HW250340   4.918   9.030   5.635 -0.0523  0.8085 -0.4665
15219SOL     OW50341   8.816   6.500   7.489  0.4298 -0.7297  0.1184
15219SOL    HW150342   8.721   6.499   7.481  0.3018 -0.9170  1.4124
15219SOL    HW250343   8.848   6.504   7.399 -0.8023  0.5297 -0.2927
15220SOL     OW50344   1.795   3.079   7.872 -0.2506 -0.4416  0.3310
15220SOL    HW150345   1.737   3.067   7.796 -0.9964 -2.2525  1.1232
15220SOL    HW250346   1.878   3.106   7.834 -0.9573 -0.0558 -1.0300
15221SOL     OW50347   2.311  10.487   0.171  0.0599  0.1976 -0.3160
15221SOL    HW150348   2.367  10.426   0.122  1.3413  0.3664  0.8551
15221SOL    HW250349   2.255  10.431   0.225 -1.1857  0.0177 -1.7530
15222SOL     OW50350  11.425  10.729   1.971  0.1079  0.1880  0.1885
15222SOL    HW150351  11.384  10.697   1.890 -0.3693  0.9578  0.1169
15222SOL    HW250352  11.513  10.753   1.945 -0.0595  0.4769 -0.1227
15223SOL     OW50353   2.827   5.693   6.148 -0.2485  0.0192 -0.5346
15223SOL    HW150354   2.781   5.741   6.080 -0.1376  0.3276 -0.3910
15223SOL    HW250355   2.920   5.703   6.127 -0.2002  0.3375 -0.1946
15224SOL     OW50356   1.739   8.024  11.557 -0.0081 -0.3529 -0.3175
15224SOL    HW150357   1.700   8.111  11.562  2.9694  1.1077 -0.4250
15224SOL    HW250358   1.776   8.019  11.469  1.6172 -0.8911  0.3666
15225SOL     OW50359   7.606  10.988  10.627  0.3726  0.0348  0.5832
15225SOL    HW150360   7.598  11.050  10.554  2.6252  0.1154  0.3285
15225SOL    HW250361   7.640  11.040  10.699  2.1057 -0.8175  0.4279
15226SOL     OW50362   7.351   4.895   3.956 -0.0935  0.1588  0.3848
15226SOL    HW150363   7.310   4.842   4.024 -0.7860 -0.2754 -0.3532
15226SOL    HW250364   7.332   4.849   3.874  0.5857  0.7536 -0.1264
15227SOL     OW50365   4.388   4.090   2.577 -0.0771  0.0529  0.3270
15227SOL    HW150366   4.390   4.055   2.666 -0.8958  0.0466  0.3526
15227SOL    HW250367   4.359   4.016   2.523 -0.1729  0.2207  0.1468
15228SOL     OW50368   1.670   8.252   3.746 -0.0792 -0.0017 -0.3847
15228SOL    HW150369   1.715   8.183   3.698 -0.9435 -1.6028  1.0039
15228SOL    HW250370   1.579   8.223   3.750  0.2998 -1.3515  4.2777
15229SOL     OW50371   9.271  10.951   7.719 -0.3540  0.3620  0.0790
15229SOL    HW150372   9.355  10.997   7.720 -0.1897  0.0611  0.3269
15229SOL    HW250373   9.235  10.964   7.807 -1.6986  2.5269 -0.7100
15230SOL     OW50374   1.431   9.981   6.137  0.9101 -0.6549  0.5762
15230SOL    HW150375   1.365   9.919   6.167 -0.7573  0.7362  0.0087
15230SOL    HW250376   1.429   9.973   6.041 -1.9255  2.5385  0.1571
15231SOL     OW50377   4.270  11.869   8.096  0.3621  0.0083 -0.1247
15231SOL    HW150378   4.221  11.949   8.114  0.0141 -0.2363  0.0139
15231SOL    HW250379   4.207  11.799   8.108  0.8706 -0.3452  0.5382
15232SOL     OW50380   5.575   0.773  10.044  0.2712 -0.0766  0.1770
15232SOL    HW150381   5.609   0.852  10.004  0.3258 -0.7270 -1.1252
15232SOL    HW250382   5.644   0.708  10.030  0.7105 -0.0986  2.2215
15233SOL     OW50383   2.976   0.221  11.538 -0.0810  0.4634 -0.4028
15233SOL    HW150384   3.049   0.177  11.581  0.1414 -0.4000 -1.6084
15233SOL    HW250385   2.941   0.280  11.604  0.6167 -0.3790  0.7495
15234SOL     OW50386  10.270   9.651   1.054 -0.4820  0.0606 -0.1299
15234SOL    HW150387  10.329   9.636   0.980 -0.1480 -0.8867  0.3157
15234SOL    HW250388  10.319   9.709   1.112 -1.0282  1.4216 -0.9627
15235SOL     OW50389   9.829   2.475  10.158  0.3037  0.1346 -0.2441
15235SOL    HW150390   9.886   2.443  10.088  1.5528  2.3865 -0.3606
15235SOL    HW250391   9.742   2.477  10.119  0.4581 -1.4724 -0.7212
15236SOL     OW50392   5.522   6.776   8.891  0.2786 -0.0542  0.1886
15236SOL    HW150393   5.587   6.792   8.823  0.2965  2.4158  0.7026
15236SOL    HW250394   5.538   6.844   8.957 -2.6226  0.4998  0.4624
15237SOL     OW50395   8.831   0.174   6.246  0.3545 -0.0446 -0.0327
15237SOL    HW150396   8.815   0.107   6.312  0.1886  0.4019  0.3846
15237SOL    HW250397   8.820   0.257   6.293 -0.6508  0.2898 -0.8271
15238SOL     OW50398   5.406   8.008  10.176  0.1107 -0.3801  0.0717
15238SOL    HW150399   5.342   7.939  10.159 -0.8060  0.2535  0.8223
15238SOL    HW250400   5.479   7.963  10.219 -0.6105 -0.8354  0.8394
15239SOL     OW50401   1.646  10.814   9.438  0.3303  0.2474 -0.3681
15239SOL    HW150402   1.617  10.895   9.395  2.6300  1.6932  0.6092
15239SOL    HW250403   1.576  10.793   9.500  0.0362  1.9298 -0.0896
15240SOL     OW50404   4.082   4.049   4.691 -0.8226 -0.0399  0.5056
15240SOL    HW150405   4.131   4.125   4.658 -1.1194  0.0907  0.3634
15240SOL    HW250406   4.028   4.083   4.762 -2.0909  0.2070 -0.5356
15241SOL     OW50407  10.567   1.185   2.412 -0.8026  0.2132  0.2794
15241SOL    HW150408  10.584   1.261   2.357 -0.6077  0.5501  0.8074
15241SOL    HW250409  10.651   1.166   2.455 -0.4472 -1.1798 -0.9291
15242SOL     OW50410   5.862   9.192   7.176 -0.7600  0.0636 -0.6755
15242SOL    HW150411   5.932   9.258   7.178  1.0168 -1.7116  1.2043
15242SOL    HW250412   5.781   9.242   7.183  0.3356  2.1612 -1.9294
15243SOL     OW50413   1.497   0.240   6.425  0.2068  0.2333 -0.0662
15243SOL    HW150414   1.416   0.198   6.396  0.1293  1.3382 -1.5492
15243SOL    HW250415   1.470   0.325   6.459  0.7493  0.7163 -0.8120
15244SOL     OW50416  11.328   8.018   9.896 -0.6837 -0.5105  0.1394
15244SOL    HW150417  11.255   7.962   9.869 -2.0594  1.4839 -0.5141
15244SOL    HW250418  11.378   7.963   9.956 -1.0341 -2.9650 -1.6348
15245SOL     OW50419   2.839  11.508  10.809 -0.5015  0.3717  0.0469
15245SOL    HW150420   2.918  11.507  10.862  1.1838  0.0437 -2.3383
15245SOL    HW250421   2.831  11.599  10.779 -0.7639  0.3005 -0.1056
15246SOL     OW50422   1.214   2.564   7.030 -0.2994 -0.0345 -0.2046
15246SOL    HW150423   1.206   2.510   6.952 -1.6823  0.0971 -0.1789
15246SOL    HW250424   1.185   2.651   7.003  1.9372  0.7606 -0.2562
15247SOL     OW50425   9.112   1.397   3.028  0.1070 -0.0475  0.0165
15247SOL    HW150426   9.067   1.458   2.970 -1.2579  0.0710  1.1517
15247SOL    HW250427   9.164   1.453   3.087  0.7174 -0.1203 -0.4406
15248SOL     OW50428   3.865   8.140   1.045  0.1657 -0.5839  0.2498
15248SOL    HW150429   3.802   8.211   1.057  1.4004  0.7807 -0.8923
15248SOL    HW250430   3.856   8.087   1.124 -3.3072 -1.2590 -0.4638
15249SOL     OW50431  11.349   2.722   6.839 -0.5878  0.1263 -0.6102
15249SOL    HW150432  11.267   2.695   6.881 -1.3012  3.7671  0.6665
15249SOL    HW250433  11.339   2.816   6.824  3.0064  0.5539 -1.2631
15250SOL     OW50434   8.879   5.089   7.662  0.0211  0.4319  0.2416
15250SOL    HW150435   8.873   5.093   7.566  3.6952  0.6542 -0.1042
15250SOL    HW250436   8.867   4.996   7.682 -1.4543  0.4734 -0.3114
15251SOL     OW50437   4.875   7.404   1.736 -0.4241 -0.2239 -0.1139
15251SOL    HW150438   4.840   7.316   1.723  0.2361 -0.6719  0.9661
15251SOL    HW250439   4.968   7.396   1.713 -0.3778  0.2007 -0.0727
15252SOL     OW50440   4.546  11.791  11.946  0.1807 -0.1459  0.3556
15252SOL    HW150441   4.634  11.818  11.973  0.7263 -1.9060  0.4659
15252SOL    HW250442   4.558  11.702  11.912 -1.3183  0.1397 -1.0343
15253SOL     OW50443   9.063   6.285   8.646 -0.2690 -0.5172 -0.3061
15253SOL    HW150444   9.142   6.257   8.599  3.4350 -1.2811  5.4077
15253SOL    HW250445   9.065   6.380   8.642 -0.2526 -0.5521 -1.7547
15254SOL     OW50446   5.907   5.923  10.892  0.4061 -0.4429  0.4458
15254SOL    HW150447   5.819   5.924  10.929  0.4522 -0.0794  0.5442
15254SOL    HW250448   5.904   5.986  10.820  0.2129 -1.4056 -0.4226
15255SOL     OW50449   7.504   1.816   5.051  0.3203  0.1588  0.8447
15255SOL    HW150450   7.475   1.744   5.108 -1.0015  1.7246  2.2843
15255SOL    HW250451   7.552   1.773   4.980  0.5666 -2.0315  2.2331
15256SOL     OW50452   5.648   6.560   5.508  0.2456 -0.3211 -0.4123
15256SOL    HW150453   5.640   6.489   5.572 -1.4033  0.9399  0.8897
15256SOL    HW250454   5.628   6.519   5.424 -1.9864 -1.1952  0.4592
15257SOL     OW50455   0.574   8.689   7.506  0.2526  0.5453  0.0309
15257SOL    HW150456   0.626   8.674   7.585  1.9928  2.7507 -0.6053
15257SOL    HW250457   0.620   8.641   7.437  1.0719  1.8754 -0.3820
15258SOL     OW50458   6.857   5.762   4.959  0.4324  0.1648 -0.0611
15258SOL    HW150459   6.925   5.700   4.934  0.4016 -0.1907  0.7307
15258SOL    HW250460   6.892   5.809   5.034  0.0829  0.4696 -0.0820
15259SOL     OW50461   7.518  10.931   7.164 -0.5854 -0.4240  0.0796
15259SOL    HW150462   7.477  10.944   7.249  1.2047 -0.7108  1.0308
15259SOL    HW250463   7.483  11.001   7.110 -2.2731 -0.6412  0.8281
15260SOL     OW50464   3.150   8.406   8.557 -0.0089  0.4403 -0.3397
15260SOL    HW150465   3.159   8.501   8.561 -1.0565  0.5023  1.6488
15260SOL    HW250466   3.219   8.372   8.613 -0.7691  0.1423  0.4452
15261SOL     OW50467   3.208   6.477   9.110  0.1665 -0.1083 -0.0064
15261SOL    HW150468   3.236   6.387   9.129 -0.2231 -0.0140  1.0793
15261SOL    HW250469   3.226   6.488   9.017  0.3886 -1.2510 -0.1186
15262SOL     OW50470  11.340   9.185   9.288  0.2002 -0.2633  0.8206
15262SOL    HW150471  11.260   9.139   9.317 -0.5675  1.1855  1.0786
15262SOL    HW250472  11.382   9.123   9.229 -1.7026 -0.6688 -0.1984
15263SOL     OW50473  10.554   7.402  11.036 -0.2526 -0.2640 -0.0905
15263SOL    HW150474  10.568   7.385  11.129  0.6382  0.2162 -0.1225
15263SOL    HW250475  10.537   7.316  10.997 -1.0670 -0.4169  0.5745
15264SOL     OW50476   8.662  10.732   7.945 -0.5715  0.4663 -0.1778
15264SOL    HW150477   8.664  10.766   7.855  1.3441  0.6940 -0.1041
15264SOL    HW250478   8.644  10.808   7.999 -2.1721  0.2518 -0.3621
15265SOL     OW50479  11.595   6.486   0.083 -0.0237  0.3741  0.2051
15265SOL    HW150480  11.647   6.412   0.052 -1.4643 -2.1707  3.2574
15265SOL    HW250481  11.512   6.479   0.035 -0.4804 -0.6112  1.0969
15266SOL     OW50482   1.851  11.378   0.172 -0.0418 -0.1141 -0.4457
15266SOL    HW150483   1.832  11.435   0.248  2.3724 -0.3274  0.3840
15266SOL    HW250484   1.790  11.305   0.182  0.1197 -0.0657  1.2343
15267SOL     OW50485   0.334  11.413   8.996  0.2306  0.1340  0.0756
15267SOL    HW150486   0.309  11.405   9.087 -1.0229  0.5588 -0.2173
15267SOL    HW250487   0.264  11.463   8.955 -0.0842 -1.4448 -1.4677
15268SOL     OW50488   1.398   2.850  10.018  0.1596  0.9468  0.0426
15268SOL    HW150489   1.370   2.927  10.068 -0.8646  1.4690 -1.2946
15268SOL    HW250490   1.336   2.782  10.043  0.3638  0.8675  0.3477
15269SOL     OW50491   0.073   8.087   6.735 -0.0809  0.5112 -0.0688
15269SOL    HW150492   0.061   8.182   6.743  2.0463  0.7016  1.7114
15269SOL    HW250493   0.055   8.053   6.823 -0.3250 -0.6959 -0.5625
15270SOL     OW50494  10.794   0.236   8.582 -0.2753 -0.4600 -0.7807
15270SOL    HW150495  10.708   0.272   8.605  0.2040 -1.4294  3.2017
15270SOL    HW250496  10.856   0.303   8.611  0.4077 -0.7777 -1.4632
15271SOL     OW50497   3.543  10.695   5.664  1.0502  0.3637  0.6268
15271SOL    HW150498   3.492  10.772   5.640 -0.4947 -1.2282 -1.6303
15271SOL    HW250499   3.633  10.727   5.671  0.5231  2.2982 -0.6336
15272SOL     OW50500   1.182   9.122   8.386  0.1197  0.1466 -0.0754
15272SOL    HW150501   1.119   9.194   8.387  2.8842  2.8160  1.5091
15272SOL    HW250502   1.252   9.152   8.327  1.2546 -1.3454  0.4427
15273SOL     OW50503   9.248   3.860   4.408  0.7706 -0.5891  0.3308
15273SOL    HW150504   9.226   3.792   4.344  0.5564  0.6545 -0.9572
15273SOL    HW250505   9.321   3.907   4.368  1.0957 -0.2246  1.3333
15274SOL     OW50506   2.970  10.921   0.967  0.0068  0.0353 -0.7022
15274SOL    HW150507   2.981  10.851   0.903 -0.6778  0.0917 -0.8839
15274SOL    HW250508   3.013  10.997   0.927  0.5286 -0.2036 -0.6139
15275SOL     OW50509   9.828   4.138   9.393  0.2760 -0.3708  0.4152
15275SOL    HW150510   9.904   4.180   9.353 -1.6249  1.4750 -1.5474
15275SOL    HW250511   9.815   4.058   9.343 -0.0516  0.1997 -0.4499
15276SOL     OW50512   5.680   9.861   7.404  0.1293  0.1383 -0.2739
15276SOL    HW150513   5.746   9.839   7.469  0.5385 -2.8609 -1.4981
15276SOL    HW250514   5.597   9.854   7.451  0.4955 -0.4512  0.3118
15277SOL     OW50515   0.942   2.319   7.415  0.5581  0.9173 -0.1758
15277SOL    HW150516   0.942   2.225   7.433 -1.3039  0.4824 -2.1006
15277SOL    HW250517   0.937   2.360   7.502 -1.2950 -0.8467  0.6173
15278SOL     OW50518  10.675   8.630   0.204  0.0732  0.0374 -0.1511
15278SOL    HW150519  10.760   8.666   0.181  0.6753 -0.7161  0.7940
15278SOL    HW250520  10.688   8.589   0.290 -1.0919 -0.5831 -0.2348
15279SOL     OW50521  10.327   7.652   1.674 -0.0044  0.4733  0.1032
15279SOL    HW150522  10.396   7.686   1.618  1.0636  2.1556  2.3090
15279SOL    HW250523  10.315   7.562   1.645  1.1501  0.9770 -2.1411
15280SOL     OW50524   0.400   9.579  10.249  0.7704  0.1939  0.2882
15280SOL    HW150525   0.462   9.535  10.192 -1.3236  0.0941 -2.0898
15280SOL    HW250526   0.368   9.511  10.308  0.2938 -0.6240 -0.8813
15281SOL     OW50527  10.819   4.436   4.789  0.3339 -0.0551 -0.0526
15281SOL    HW150528  10.834   4.413   4.881  3.1208 -0.1564 -0.4519
15281SOL    HW250529  10.882   4.383   4.740 -0.9535  0.1327 -2.0408
15282SOL     OW50530   7.213  11.106   6.371 -0.4641 -0.4357  0.4191
15282SOL    HW150531   7.249  11.166   6.436 -0.3236 -1.2055  1.0615
15282SOL    HW250532   7.206  11.022   6.416 -0.1847 -1.0327 -0.6115
15283SOL     OW50533   0.802   4.596   7.812 -0.0543  0.4374  0.2342
15283SOL    HW150534   0.840   4.550   7.737  0.4784 -0.6810  1.1469
15283SOL    HW250535   0.821   4.688   7.796  0.7082  0.1491 -0.6404
15284SOL     OW50536   4.881   9.852   2.932  0.4061  0.0184  0.0160
15284SOL    HW150537   4.888   9.906   2.853  0.7770 -0.3789 -0.2265
15284SOL    HW250538   4.964   9.805   2.936 -0.6232 -2.0365 -0.8766
15285SOL     OW50539   4.767   2.063   9.267 -0.2188 -0.6058 -0.0227
15285SOL    HW150540   4.715   2.091   9.191 -0.8506 -0.6497  0.3847
15285SOL    HW250541   4.857   2.062   9.235 -0.2721  1.0475 -0.2984
15286SOL     OW50542   0.132   2.417   8.686 -0.3137 -0.3358 -0.1088
15286SOL    HW150543   0.056   2.453   8.640  0.4775  0.8203 -0.5590
15286SOL    HW250544   0.135   2.325   8.659 -1.2721 -0.2804 -0.4484
15287SOL     OW50545   1.323   0.681   1.514  0.9815 -0.2645  0.3184
15287SOL    HW150546   1.329   0.776   1.501 -0.7289 -0.0569  0.8002
15287SOL    HW250547   1.404   0.658   1.560  0.1629  1.4588  2.8388
15288SOL     OW50548   0.096   6.863   5.335 -0.3458 -0.5135  0.2965
15288SOL    HW150549   0.053   6.786   5.296 -0.9154  0.9540 -2.2159
15288SOL    HW250550   0.026   6.928   5.343  0.5007  0.4050  0.4740
15289SOL     OW50551   8.311  10.022   1.353 -0.0667  0.4577  0.6045
15289SOL    HW150552   8.306   9.963   1.278 -0.3336 -0.3481  1.2310
15289SOL    HW250553   8.330  10.108   1.316  2.3584 -0.3563 -0.1946
15290SOL     OW50554   5.848   9.287   9.870 -0.0561 -0.1069  0.0859
15290SOL    HW150555   5.925   9.323   9.914  1.3894 -2.1589 -0.5924
15290SOL    HW250556   5.775   9.307   9.928  1.2965  0.1126  1.7967
15291SOL     OW50557   3.998   0.321   9.833 -0.0879  0.0182 -0.5935
15291SOL    HW150558   3.902   0.314   9.839 -0.0773  0.8429  1.3098
15291SOL    HW250559   4.029   0.235   9.862 -0.2459  0.2607  0.3204
15292SOL     OW50560   7.485   5.742   0.057  0.2242 -0.1719 -0.2106
15292SOL    HW150561   7.431   5.774   0.130  0.4165 -2.5766  1.0610
15292SOL    HW250562   7.432   5.760  -0.021  0.6293  3.8043  0.2146
15293SOL     OW50563   1.331   6.468   6.045 -0.2206  0.7846  0.6562
15293SOL    HW150564   1.343   6.422   5.962 -0.5492  0.1420  0.9609
15293SOL    HW250565   1.243   6.507   6.038 -0.9174 -0.6001  1.3206
15294SOL     OW50566  11.634   3.485   4.752  0.0361  0.1828 -0.2115
15294SOL    HW150567  11.658   3.465   4.662 -0.9228 -2.2645 -0.0166
15294SOL    HW250568  11.716   3.481   4.801  0.3166 -0.3952 -0.7162
15295SOL     OW50569   8.287   6.143   1.305 -0.8894  0.4894  0.8196
15295SOL    HW150570   8.210   6.087   1.310 -0.3693 -0.2306  0.9828
15295SOL    HW250571   8.329   6.118   1.222 -0.1256 -0.0769  1.3652
15296SOL     OW50572   8.604   6.531   4.336  0.4946  0.1846  0.1800
15296SOL    HW150573   8.612   6.440   4.305 -0.4894 -0.0639  0.6328
15296SOL    HW250574   8.695   6.559   4.349  0.8186 -0.6671 -0.1565
15297SOL     OW50575   5.556   7.216   5.441 -0.2528 -0.1703  0.2362
15297SOL    HW150576   5.576   7.268   5.363 -0.7318 -0.0465  0.1920
15297SOL    HW250577   5.562   7.125   5.412 -2.3149 -0.1342 -0.4598
15298SOL     OW50578   2.659  11.471   8.035 -0.1498 -0.2258  0.1490
15298SOL    HW150579   2.720  11.399   8.051  0.0508 -0.0486  0.1998
15298SOL    HW250580   2.629  11.458   7.945  1.4324  0.7391 -0.5788
15299SOL     OW50581   6.814  10.530   2.735 -0.1979 -0.0990 -0.0324
15299SOL    HW150582   6.758  10.507   2.809 -0.8230  0.5491 -0.2967
15299SOL    HW250583   6.868  10.452   2.721 -0.9258 -0.6776  0.3275
15300SOL     OW50584   6.798  11.014  11.465  0.4086  0.4854  0.4740
15300SOL    HW150585   6.747  10.956  11.409 -0.8484  1.4511  0.5615
15300SOL    HW250586   6.889  11.001  11.437  0.2497 -1.8099  0.7819
15301SOL     OW50587   8.150   1.071   9.708 -0.5344  0.2494  0.3313
15301SOL    HW150588   8.177   1.163   9.710 -1.7869  0.6417  0.0039
15301SOL    HW250589   8.060   1.073   9.674 -1.1393 -0.9584  1.7641
15302SOL     OW50590   2.192  11.526   8.559  0.2482  0.1583  0.0262
15302SOL    HW150591   2.223  11.437   8.573 -0.0650 -0.0260 -0.4391
15302SOL    HW250592   2.100  11.516   8.535  0.4505  0.5455 -0.9616
15303SOL     OW50593   4.756   5.660   3.899 -0.0009 -0.1880  0.0634
15303SOL    HW150594   4.841   5.703   3.909 -1.1273  1.8903  1.5542
15303SOL    HW250595   4.773   5.568   3.916  1.7396  0.3753  1.6470
15304SOL     OW50596   7.096   7.894   9.070 -0.1165  0.1034  0.0329
15304SOL    HW150597   7.140   7.971   9.105 -0.5288  0.6921 -0.7237
15304SOL    HW250598   7.012   7.891   9.117 -0.2404  0.3102 -0.1738
15305SOL     OW50599  11.293   2.273   3.514  0.2796 -0.0762 -0.1402
15305SOL    HW150600  11.251   2.277   3.600  0.0765  0.1753 -0.2531
15305SOL    HW250601  11.357   2.202   3.523 -1.2847 -1.6098 -0.4662
15306SOL     OW50602   5.087  11.487  10.097  0.1305 -0.5996 -0.0440
15306SOL    HW150603   5.059  11.420  10.160  0.9402  1.1112  2.2318
15306SOL    HW250604   5.068  11.570  10.140  0.3152  0.6736 -2.2794
15307SOL     OW50605   7.929   9.685   6.758 -0.0135  0.8712  0.3266
15307SOL    HW150606   7.958   9.693   6.849  0.5414 -0.2651  0.2653
15307SOL    HW250607   7.941   9.772   6.721  1.1712  0.9890  0.9421
15308SOL     OW50608   7.302  10.601   6.863 -0.0270 -0.3804 -0.1803
15308SOL    HW150609   7.341  10.663   6.801 -0.4043 -0.7731 -0.8250
15308SOL    HW250610   7.288  10.651   6.943  3.6327 -0.6423  0.8146
15309SOL     OW50611   1.893   3.883  11.650 -0.2505  0.5333  0.2699
15309SOL    HW150612   1.916   3.880  11.557 -0.4792  1.7632  0.1631
15309SOL    HW250613   1.800   3.858  11.652 -1.0180  3.1045 -0.1591
15310SOL     OW50614   9.498   1.949  11.887  0.6297 -0.5067  0.1298
15310SOL    HW150615   9.442   2.026  11.872  0.7712  0.3778  3.4117
15310SOL    HW250616   9.443   1.875  11.860 -0.3757  0.5843 -0.9928
15311SOL     OW50617   0.693   4.856   5.912 -0.0839  0.4735  0.2722
15311SOL    HW150618   0.736   4.927   5.864  0.1362  0.0492 -0.1619
15311SOL    HW250619   0.764   4.798   5.938 -0.1202  1.0496  1.7236
15312SOL     OW50620   5.319  11.725   9.970  0.2067  0.5076  0.4314
15312SOL    HW150621   5.265  11.706  10.047 -0.1915  0.3372  0.1087
15312SOL    HW250622   5.270  11.690   9.896  0.7818  0.3023  0.1398
15313SOL     OW50623   1.209   8.795  11.752 -0.1209  0.6832 -0.3652
15313SOL    HW150624   1.187   8.868  11.694 -2.3110 -0.4606 -1.1145
15313SOL    HW250625   1.148   8.803  11.825  0.2641  0.1496  0.0249
15314SOL     OW50626  10.966  10.076   4.090  0.3405  0.1525  0.2114
15314SOL    HW150627  11.040  10.094   4.032 -0.8695 -0.0418 -1.4787
15314SOL    HW250628  10.915  10.010   4.043 -0.4757 -0.3219  1.7196
15315SOL     OW50629   2.981   8.612   4.626  0.6607 -0.3548 -0.1795
15315SOL    HW150630   2.994   8.696   4.669  0.0200  1.7409 -3.7169
15315SOL    HW250631   3.067   8.590   4.588  0.3860 -0.2978 -0.8517
15316SOL     OW50632  11.201   7.577   1.891  0.2276 -0.2367 -0.0428
15316SOL    HW150633  11.276   7.634   1.906  0.9421 -0.9001 -0.9582
15316SOL    HW250634  11.197   7.567   1.796 -1.4658  0.3494 -0.0856
15317SOL     OW50635   4.147  11.578   2.071 -0.5775  0.2120  0.4968
15317SOL    HW150636   4.217  11.572   2.006 -0.9943 -0.5878  0.1117
15317SOL    HW250637   4.156  11.499   2.124 -0.8860  0.3458  0.7548
15318SOL     OW50638   6.574   9.868  10.719 -0.5477  0.2524 -0.5629
15318SOL    HW150639   6.545   9.781  10.746  0.6721  0.3842  1.3034
15318SOL    HW250640   6.653   9.852  10.668  0.3932  0.2837  0.8263
15319SOL     OW50641   5.078   6.526  11.083 -0.4684 -0.6856  0.2677
15319SOL    HW150642   5.101   6.454  11.142  0.9093 -0.3626  0.1542
15319SOL    HW250643   5.162   6.556  11.048 -0.9952  1.0605  0.4131
15320SOL     OW50644   9.949   9.365   3.410 -0.1896 -0.1182 -0.2939
15320SOL    HW150645   9.894   9.316   3.350  0.2263  1.1886 -1.8147
15320SOL    HW250646   9.888   9.404   3.473 -0.9491  0.6618 -1.4764
15321SOL     OW50647   7.340   6.053   0.599 -0.3868  0.0883  0.5155
15321SOL    HW150648   7.343   6.149   0.602 -0.0174  0.0963  0.0392
15321SOL    HW250649   7.410   6.029   0.538 -0.6754 -0.4715  0.4015
15322SOL     OW50650   4.924   8.459   7.527  0.2338 -0.1537 -0.1332
15322SOL    HW150651   5.000   8.452   7.469  1.2936 -0.9115  1.2856
15322SOL    HW250652   4.952   8.520   7.595 -0.7885  0.2869 -0.0977
15323SOL     OW50653   7.072   9.567   3.752 -0.0238 -0.6585 -0.2415
15323SOL    HW150654   7.036   9.546   3.838  1.1801  1.7584  0.9226
15323SOL    HW250655   7.162   9.536   3.755  0.3767  0.4636 -0.1609
15324SOL     OW50656   7.530   6.560   8.006  0.4207 -0.2141  0.2810
15324SOL    HW150657   7.490   6.578   7.921 -2.6950  1.6115  1.9523
15324SOL    HW250658   7.467   6.504   8.051  1.8345 -0.8479  1.5925
15325SOL     OW50659  10.713   7.692   0.148 -0.3749 -0.4614  0.3776
15325SOL    HW150660  10.690   7.676   0.240 -0.2424 -1.3942  0.2603
15325SOL    HW250661  10.796   7.739   0.152  0.4073 -1.8146  0.7370
15326SOL     OW50662   6.368  11.008   3.223 -0.0941 -0.1689  0.5063
15326SOL    HW150663   6.441  10.981   3.168 -0.1584  1.3168 -0.3392
15326SOL    HW250664   6.402  11.000   3.312  0.1790 -2.0931  0.2924
15327SOL     OW50665   5.137   4.947   4.058 -0.3025  0.0286  0.3529
15327SOL    HW150666   5.220   4.975   4.098  0.3992 -0.2682 -0.8387
15327SOL    HW250667   5.078   5.020   4.073  1.5748  2.5610 -3.0116
15328SOL     OW50668   0.673  11.989   7.605 -0.0347  0.6663 -0.7589
15328SOL    HW150669   0.706  11.987   7.695 -1.1161  1.3599 -0.3194
15328SOL    HW250670   0.587  12.032   7.612 -0.8955 -0.7692 -1.8862
15329SOL     OW50671   2.203  11.541   2.173  0.3712 -0.0429  0.1097
15329SOL    HW150672   2.159  11.491   2.105  0.0850 -0.8291  0.8554
15329SOL    HW250673   2.164  11.629   2.167 -0.3783 -0.3776 -0.0832
15330SOL     OW50674  11.852   9.031   0.753  0.1920 -0.0112 -0.6443
15330SOL    HW150675  11.868   9.041   0.847  0.2309 -0.2387 -0.6251
15330SOL    HW250676  11.835   8.937   0.742  2.6033 -0.4609 -1.2138
15331SOL     OW50677   3.636   6.342   1.508  0.1912  0.4802  0.1707
15331SOL    HW150678   3.596   6.333   1.595  0.3343  0.5703  0.2456
15331SOL    HW250679   3.708   6.403   1.521  0.1753  0.5399 -0.0255
15332SOL     OW50680   2.469   1.535   4.154  0.8179  0.2567  0.8524
15332SOL    HW150681   2.481   1.465   4.218  2.4199 -0.3751 -0.0751
15332SOL    HW250682   2.530   1.603   4.180 -0.3012  1.0825  1.3956
15333SOL     OW50683   1.379   7.025   7.770  0.1163 -0.0844  0.2694
15333SOL    HW150684   1.374   6.934   7.743 -1.1516  0.2478 -0.7366
15333SOL    HW250685   1.364   7.024   7.865 -3.1466 -0.7162 -0.1420
15334SOL     OW50686   0.760  11.308   6.269  0.0154  0.0581  0.0926
15334SOL    HW150687   0.806  11.255   6.204 -2.0858 -0.8239 -0.7584
15334SOL    HW250688   0.694  11.357   6.219 -0.3570  0.8795  1.3187
15335SOL     OW50689  11.699   9.188   8.470  0.5753 -0.0580 -0.3763
15335SOL    HW150690  11.654   9.162   8.551  0.0586 -3.5248 -1.6061
15335SOL    HW250691  11.652   9.266   8.441  0.4997  1.0466  2.3641
15336SOL     OW50692  11.895   0.734   5.047 -0.3302 -0.2677  0.1992
15336SOL    HW150693  11.884   0.693   4.962 -1.2845 -0.6178  0.4761
15336SOL    HW250694  11.842   0.814   5.042  0.8050  0.4946 -0.0327
15337SOL     OW50695   9.509   9.874   4.270  0.8527  0.2528  1.1611
15337SOL    HW150696   9.537   9.960   4.302  1.5976  0.7146 -0.5798
15337SOL    HW250697   9.555   9.864   4.187 -1.3965 -0.5666 -0.0812
15338SOL     OW50698   6.404   6.891  10.044  0.1586 -0.0813  0.5574
15338SOL    HW150699   6.435   6.831  10.111  1.9548 -1.1689 -1.1640
15338SOL    HW250700   6.327   6.848  10.007  0.2595 -0.3575  0.6701
15339SOL     OW50701   0.075  10.846   4.188  0.6390  0.0355 -0.2901
15339SOL    HW150702   0.150  10.794   4.215  0.8772  0.1625 -0.7011
15339SOL    HW250703   0.044  10.887   4.269  2.0475  1.3256 -0.3591
15340SOL     OW50704   6.980   4.769  10.436 -0.1896 -0.1924  0.1431
15340SOL    HW150705   7.012   4.678  10.438  0.2298 -0.0647 -0.4009
15340SOL    HW250706   6.901   4.768  10.491 -0.4721 -0.9972 -0.2549
15341SOL     OW50707   7.861   1.969   1.558  0.0410  0.3556 -0.2067
15341SOL    HW150708   7.953   1.951   1.538  0.1416 -0.8954  1.1398
15341SOL    HW250709   7.813   1.900   1.511 -0.1321  0.5311 -0.2851
15342SOL     OW50710   6.472   5.653  10.853  0.1253  0.3989  0.1347
15342SOL    HW150711   6.420   5.730  10.833  1.6523  1.6287  0.6160
15342SOL    HW250712   6.459   5.594  10.779 -2.8556  0.0830  0.7960
15343SOL     OW50713   9.076   0.899   3.080  0.5153 -0.4683  0.1209
15343SOL    HW150714   9.061   0.983   3.037  0.9359 -0.0882  0.7061
15343SOL    HW250715   9.027   0.836   3.026  0.1621  0.1485 -0.2976
15344SOL     OW50716   0.025   2.457   0.197 -0.0103 -0.0874 -0.4481
15344SOL    HW150717   0.059   2.369   0.180  1.4991  0.3376  0.1375
15344SOL    HW250718  -0.024   2.449   0.278  0.2159 -0.3824 -0.3374
15345SOL     OW50719   1.397  10.614   0.357  0.2077  0.1376 -0.0193
15345SOL    HW150720   1.419  10.605   0.264 -1.7154 -1.2886 -0.3828
15345SOL    HW250721   1.305  10.642   0.357  0.2790  0.4299  1.4620
15346SOL     OW50722   4.774   6.347  11.217  0.4962  0.4223 -0.4531
15346SOL    HW150723   4.816   6.263  11.236  0.2953  0.5712  0.7304
15346SOL    HW250724   4.684   6.325  11.195  0.1061  0.3862  1.0551
15347SOL     OW50725  10.239   5.348  11.366 -0.0526 -0.4144 -0.3401
15347SOL    HW150726  10.276   5.371  11.282  0.8685 -0.6543 -0.0075
15347SOL    HW250727  10.312   5.312  11.416 -0.4188  0.3593  0.7997
15348SOL     OW50728   4.202   4.006   8.310  0.0182 -0.0691  0.3555
15348SOL    HW150729   4.262   4.010   8.383  1.1877  1.4448 -0.6341
15348SOL    HW250730   4.153   3.924   8.323  0.5152 -0.0580  2.5253
15349SOL     OW50731  10.761   5.082   6.981  0.2793  0.2118 -0.2709
15349SOL    HW150732  10.732   5.006   7.032  0.0173  0.4752 -0.0238
15349SOL    HW250733  10.765   5.050   6.891 -1.1939  0.2706 -0.3781
15350SOL     OW50734   7.154   4.302   3.345  0.3175  0.2706  0.3979
15350SOL    HW150735   7.137   4.208   3.338 -1.6355  0.6330 -0.6845
15350SOL    HW250736   7.240   4.315   3.306  0.2241 -0.9922 -0.2768
15351SOL     OW50737   5.438  10.531  11.526 -0.4228  0.2864 -0.5047
15351SOL    HW150738   5.375  10.600  11.506 -0.7627 -0.5651 -2.5593
15351SOL    HW250739   5.520  10.562  11.489 -0.1698  0.3360  0.0858
15352SOL     OW50740   3.278  11.022   6.353  0.0026 -0.4449 -0.1201
15352SOL    HW150741   3.292  10.928   6.338  0.0753 -0.3727 -0.5013
15352SOL    HW250742   3.225  11.025   6.433  0.1677 -0.8026  0.0074
15353SOL     OW50743  10.038   5.032   1.832 -0.0747  0.0636 -0.7324
15353SOL    HW150744   9.962   5.089   1.837 -2.2325 -2.7037  1.3913
15353SOL    HW250745  10.102   5.072   1.892 -0.9451  1.0295 -0.4273
15354SOL     OW50746   4.278   3.821  10.900  0.0518 -0.5558 -0.0567
15354SOL    HW150747   4.267   3.856  10.989 -0.0431 -0.0833 -0.2486
15354SOL    HW250748   4.225   3.741  10.899 -0.0798 -0.4767  0.2610
15355SOL     OW50749  11.293  10.969   7.570  0.5356  0.6053  0.1917
15355SOL    HW150750  11.222  10.911   7.542  1.2025 -0.8000  1.3051
15355SOL    HW250751  11.254  11.025   7.637  0.7326 -0.9523  1.6543
15356SOL     OW50752   9.893   7.878   9.387 -0.1778 -0.1316 -0.6995
15356SOL    HW150753   9.799   7.870   9.401 -0.3729  0.9893 -1.2440
15356SOL    HW250754   9.924   7.788   9.373 -1.3206 -0.4152 -1.4919
15357SOL     OW50755   8.186   8.686   4.171  0.4209 -0.2710 -0.1357
15357SOL    HW150756   8.114   8.690   4.234 -0.1589 -0.3618 -0.7781
15357SOL    HW250757   8.145   8.705   4.087  1.0738 -0.7544 -0.5709
15358SOL     OW50758   2.712  10.238   8.371  0.0746  0.0033  0.3631
15358SOL    HW150759   2.801  10.225   8.401  1.0870  0.8764 -2.0174
15358SOL    HW250760   2.667  10.156   8.393  1.7380 -0.8730  0.6684
15359SOL     OW50761  11.534  10.758   9.409 -0.2918  0.2156  0.3555
15359SOL    HW150762  11.605  10.703   9.441 -0.8221 -0.1984  0.8570
15359SOL    HW250763  11.472  10.697   9.369 -0.1230  0.6269 -0.5500
15360SOL     OW50764   5.413   1.025   2.965  0.1620  0.4803 -0.6293
15360SOL    HW150765   5.408   1.070   2.880  0.3611 -0.2618 -1.0367
15360SOL    HW250766   5.342   0.961   2.962  0.0686  0.5587 -0.1624
15361SOL     OW50767   4.075   4.972   3.686  0.2493  0.0519  0.1484
15361SOL    HW150768   4.030   4.918   3.751  1.8120 -1.9417 -0.3311
15361SOL    HW250769   4.071   5.061   3.723 -2.7439 -0.2161  0.7775
15362SOL     OW50770   8.708   2.124   0.916  0.7312  0.2300 -0.1343
15362SOL    HW150771   8.700   2.193   0.850  0.5055  0.5259  0.1997
15362SOL    HW250772   8.783   2.151   0.970  1.8064 -0.7241 -1.1064
15363SOL     OW50773   2.257   5.858   4.739 -0.0516  0.4806 -0.3896
15363SOL    HW150774   2.332   5.802   4.720 -0.3454  0.1008 -0.4356
15363SOL    HW250775   2.278   5.941   4.695 -0.6553 -0.3301 -2.3156
15364SOL     OW50776   5.052   7.851   0.748 -0.2704 -0.1980 -0.5759
15364SOL    HW150777   5.045   7.763   0.710 -0.4318 -0.5748  0.3062
15364SOL    HW250778   5.144   7.858   0.776 -0.0593  0.2164 -1.3454
15365SOL     OW50779   9.321   7.512   3.065  0.2232 -0.0873 -0.0105
15365SOL    HW150780   9.231   7.506   3.032 -0.7627  1.5230  2.1950
15365SOL    HW250781   9.357   7.590   3.023  0.4811 -0.5025 -0.5788
15366SOL     OW50782   4.532   4.546   8.999 -0.6817 -0.2623 -0.4403
15366SOL    HW150783   4.604   4.486   9.013 -0.3397  0.4796  1.1616
15366SOL    HW250784   4.561   4.602   8.927  0.6142  0.3941  0.5507
15367SOL     OW50785   1.132  11.251  11.050 -0.6419  1.2875 -0.1051
15367SOL    HW150786   1.108  11.298  11.130 -1.8120  0.9013 -0.2117
15367SOL    HW250787   1.086  11.298  10.980 -1.1862  0.4753 -0.3057
15368SOL     OW50788   7.895   3.651   6.948  0.0317 -0.1280 -0.5481
15368SOL    HW150789   7.907   3.564   6.986 -0.8813 -0.2273 -0.4767
15368SOL    HW250790   7.804   3.673   6.966  0.8050  1.7913  1.3724
15369SOL     OW50791   1.941   8.724   2.881 -0.2910 -0.0861 -0.0463
15369SOL    HW150792   1.993   8.785   2.934  1.2293 -2.6966  1.6599
15369SOL    HW250793   1.949   8.640   2.926 -2.5419 -1.5411 -2.1198
15370SOL     OW50794   2.261   2.966   6.852  0.4068 -0.3750  0.0769
15370SOL    HW150795   2.339   3.021   6.858  0.2995 -0.0295 -1.3120
15370SOL    HW250796   2.278   2.908   6.778 -0.1157 -1.1985  0.5891
15371SOL     OW50797   2.647   4.449   8.390  0.5805 -0.2905  0.5363
15371SOL    HW150798   2.709   4.389   8.430  0.0619 -1.6671 -0.6179
15371SOL    HW250799   2.562   4.406   8.399  0.3908 -0.4988 -1.6087
15372SOL     OW50800  10.365   0.230   4.691 -0.7519  0.4653 -0.7562
15372SOL    HW150801  10.405   0.145   4.673 -1.6814  0.1458 -1.3781
15372SOL    HW250802  10.425   0.294   4.652  0.2829  0.1524  0.2841
15373SOL     OW50803   4.999   7.492   3.988 -0.2566 -0.1500  0.1441
15373SOL    HW150804   4.912   7.461   3.962  0.0046 -1.6090  0.9139
15373SOL    HW250805   5.053   7.481   3.911 -0.7430  0.8268 -0.3617
15374SOL     OW50806  10.746   3.542   4.185  0.8725  0.1200  0.0375
15374SOL    HW150807  10.742   3.572   4.275  1.7802 -0.8344  0.4212
15374SOL    HW250808  10.686   3.467   4.182 -0.0231  0.8497 -0.4478
15375SOL     OW50809   1.359   1.747   5.122 -0.2215  0.1430  0.1047
15375SOL    HW150810   1.420   1.761   5.050 -1.1557 -1.5594 -1.0786
15375SOL    HW250811   1.415   1.746   5.200  1.2236 -0.7427 -0.8828
15376SOL     OW50812  10.504   8.526   2.980 -0.0761 -0.6595 -0.3413
15376SOL    HW150813  10.573   8.536   3.045  1.7634  2.6607 -2.5210
15376SOL    HW250814  10.546   8.482   2.906 -0.9194 -0.6195 -0.8570
15377SOL     OW50815  10.162   2.217   0.941  0.0848 -0.0811 -0.0723
15377SOL    HW150816  10.123   2.296   0.979 -1.0229 -0.2679 -0.8006
15377SOL    HW250817  10.180   2.240   0.850 -0.9710 -0.9034 -0.5044
15378SOL     OW50818   7.158   8.491  10.518 -0.2056  0.5671 -0.1010
15378SOL    HW150819   7.223   8.450  10.463 -0.0772  1.4531 -0.6387
15378SOL    HW250820   7.208   8.548  10.577 -0.4632  1.1060 -0.3884
15379SOL     OW50821   5.247   8.769   8.770  0.4146  0.2850  0.1535
15379SOL    HW150822   5.202   8.783   8.853  2.0340  0.2580  1.0768
15379SOL    HW250823   5.326   8.822   8.776  0.8945 -0.2524 -1.0897
15380SOL     OW50824  11.086   3.647   0.286 -0.5079 -0.3416  0.0136
15380SOL    HW150825  11.009   3.658   0.342 -0.2246  0.0917  0.3256
15380SOL    HW250826  11.120   3.561   0.310 -0.7347 -0.4146  0.0783
15381SOL     OW50827   7.764   9.071   2.202  0.3990  0.0556 -0.2425
15381SOL    HW150828   7.851   9.061   2.163  0.0229 -1.3602 -0.7903
15381SOL    HW250829   7.732   9.154   2.167  0.9852 -0.0833 -1.1410
15382SOL     OW50830  10.744   1.794   8.390 -0.0414  0.5223  0.3977
15382SOL    HW150831  10.680   1.844   8.339 -0.7800 -0.7288  0.0558
15382SOL    HW250832  10.714   1.801   8.480 -0.6912 -0.0756  0.2354
15383SOL     OW50833   6.342   0.406   5.124  0.7785  0.6619 -0.0025
15383SOL    HW150834   6.399   0.467   5.078  0.6086  1.5370  0.9105
15383SOL    HW250835   6.260   0.453   5.134  1.0145  0.7689  1.7606
15384SOL     OW50836   3.007  11.644   0.002  0.3718 -0.0335 -0.0327
15384SOL    HW150837   3.068  11.649   0.075  0.6204 -0.5780 -0.1923
15384SOL    HW250838   2.983  11.735  -0.017 -0.5174  0.0642  1.3924
15385SOL     OW50839   8.109   3.827   7.409  0.3625 -0.3713  0.3503
15385SOL    HW150840   8.169   3.784   7.348 -0.0830  0.0815 -0.4178
15385SOL    HW250841   8.066   3.755   7.454  0.6428 -0.7135  0.0790
15386SOL     OW50842   5.118   4.540   8.655 -0.3778  0.2151 -0.3701
15386SOL    HW150843   5.097   4.569   8.566  0.4245 -1.7152 -1.2387
15386SOL    HW250844   5.209   4.568   8.668 -0.6171  0.8433  0.0260
15387SOL     OW50845   9.288   2.143   8.240  0.3455  0.6462  0.2616
15387SOL    HW150846   9.312   2.221   8.190 -0.2487  0.5025 -0.2710
15387SOL    HW250847   9.223   2.175   8.303 -1.8156  0.2043 -1.5927
15388SOL     OW50848   6.539  10.834   2.482 -0.3729  0.0616 -0.5059
15388SOL    HW150849   6.535  10.748   2.524  1.8727  0.6158  0.9962
15388SOL    HW250850   6.469  10.884   2.523  0.6259  0.0285  1.3222
15389SOL     OW50851   2.696   4.657   6.450 -0.2062 -0.1441  0.3381
15389SOL    HW150852   2.676   4.723   6.517  2.4848  1.9857 -0.7372
15389SOL    HW250853   2.756   4.596   6.493  1.3617  1.1090  0.0265
15390SOL     OW50854  10.051   0.382   0.165  0.1902 -0.0332 -0.0490
15390SOL    HW150855  10.137   0.424   0.159  0.1023  0.0149 -1.1695
15390SOL    HW250856  10.044   0.329   0.086 -0.9150  0.1651 -0.1038
15391SOL     OW50857   4.402  11.326   2.637  0.2313  0.1173  0.0979
15391SOL    HW150858   4.353  11.256   2.681 -0.7873  1.0582  0.5112
15391SOL    HW250859   4.355  11.406   2.660  2.3092  1.1511  1.0246
15392SOL     OW50860   4.266   5.360   9.815  0.6495 -0.0864  0.4997
15392SOL    HW150861   4.285   5.430   9.878  1.7841  1.1647 -1.1324
15392SOL    HW250862   4.171   5.347   9.821  0.6028  0.6718  1.7635
15393SOL     OW50863   0.398  11.908   6.924 -0.6159 -0.7668 -0.2427
15393SOL    HW150864   0.365  11.845   6.987  1.6871 -0.6401  1.1996
15393SOL    HW250865   0.465  11.957   6.971 -0.5186  1.0418 -2.0785
15394SOL     OW50866   8.169   5.384   6.187 -0.1915  0.7966 -0.1752
15394SOL    HW150867   8.216   5.436   6.122  1.6350 -1.7837 -1.0689
15394SOL    HW250868   8.181   5.432   6.270  2.6020  1.1388 -0.6891
15395SOL     OW50869   2.795   0.951   2.147 -0.4063 -0.1858 -0.4660
15395SOL    HW150870   2.744   0.910   2.077 -1.7944 -0.8175  0.8676
15395SOL    HW250871   2.739   1.022   2.179 -0.0371 -0.2638  0.3844
15396SOL     OW50872   2.677   3.444   2.915 -0.3355 -0.4296 -0.3175
15396SOL    HW150873   2.651   3.412   2.829 -0.1770  1.0753 -0.9458
15396SOL    HW250874   2.600   3.490   2.948 -0.7331 -1.7888  0.7993
15397SOL     OW50875   5.698   0.044   4.720  0.1201  0.4466 -0.0689
15397SOL    HW150876   5.622  -0.010   4.700 -0.8051  0.9931  1.6882
15397SOL    HW250877   5.774  -0.012   4.704 -0.8100 -1.7383  2.4691
15398SOL     OW50878   3.977   9.741   9.452 -0.1276  0.3493 -0.0223
15398SOL    HW150879   3.965   9.830   9.487 -0.5406  0.4337 -0.3783
15398SOL    HW250880   3.986   9.686   9.530  1.7702  0.9078  0.2305
15399SOL     OW50881   0.409   4.857  11.453 -0.0926 -0.2978  0.1969
15399SOL    HW150882   0.320   4.885  11.435 -0.0721  0.4806  1.2023
15399SOL    HW250883   0.464   4.930  11.424  0.2436 -0.8756 -0.6528
15400SOL     OW50884   6.086  10.690   2.795  0.1671  0.6855 -0.3770
15400SOL    HW150885   6.003  10.672   2.839  0.8538 -1.1146  0.2998
15400SOL    HW250886   6.062  10.732   2.713 -1.6133 -1.6780 -1.1907
15401SOL     OW50887   9.370   6.506   6.160 -0.5925  0.4032 -0.3261
15401SOL    HW150888   9.311   6.506   6.236 -0.7213  1.6392 -0.4149
15401SOL    HW250889   9.458   6.502   6.198 -0.6251  1.8423 -0.0669
15402SOL     OW50890   8.482   3.322   7.460  0.2058  0.0314  0.6417
15402SOL    HW150891   8.487   3.341   7.366  0.7083 -1.8583  0.2498
15402SOL    HW250892   8.389   3.325   7.480  0.1562  1.3131  0.2922
15403SOL     OW50893   5.225   3.484   1.533  0.2776  0.1781  0.0002
15403SOL    HW150894   5.176   3.516   1.457  1.4351 -1.7365 -1.6612
15403SOL    HW250895   5.276   3.410   1.499  2.2901  0.4221  2.2147
15404SOL     OW50896   0.667   1.874   6.072  0.0142  0.0650 -0.7090
15404SOL    HW150897   0.694   1.956   6.031  0.8790  0.5134  0.7201
15404SOL    HW250898   0.736   1.812   6.049  0.2613  0.1973 -0.3327
15405SOL     OW50899   9.908  11.995   2.563  0.2023 -0.9477 -0.4026
15405SOL    HW150900   9.951  12.012   2.478 -0.9228  0.9092 -0.6683
15405SOL    HW250901   9.956  12.050   2.625 -0.7603 -0.0447 -0.4202
15406SOL     OW50902   1.738  10.304  10.170 -0.5833 -0.6211 -0.1008
15406SOL    HW150903   1.719  10.394  10.145  1.0279  0.3531  1.9078
15406SOL    HW250904   1.652  10.266  10.189 -1.2288  0.7995 -0.0160
15407SOL     OW50905   0.223   2.849   1.723  0.3991  0.0617  0.2770
15407SOL    HW150906   0.240   2.933   1.766 -1.3012 -0.1633  1.4850
15407SOL    HW250907   0.143   2.817   1.764  0.9888 -2.1538 -0.1688
15408SOL     OW50908   1.527   0.638   3.437 -0.0881  0.5882  0.1188
15408SOL    HW150909   1.483   0.559   3.406  1.4001  0.6622 -2.4882
15408SOL    HW250910   1.485   0.658   3.521 -2.9580 -0.9351 -0.8143
15409SOL     OW50911  10.613   8.824  10.158  0.1461  0.4069 -0.2064
15409SOL    HW150912  10.606   8.781  10.073 -3.9227  1.2456 -0.5079
15409SOL    HW250913  10.623   8.753  10.220 -2.1673 -0.7797 -1.0536
15410SOL     OW50914   2.670  10.951   8.678 -0.0024  0.6723 -0.2509
15410SOL    HW150915   2.731  11.024   8.667  0.7602  0.0602 -0.1866
15410SOL    HW250916   2.726  10.876   8.699 -0.5446 -0.4553 -2.5117
15411SOL     OW50917   7.667   3.108   9.594 -0.0263  0.7059  0.0215
15411SOL    HW150918   7.732   3.048   9.632  0.1328  0.9181  0.0892
15411SOL    HW250919   7.644   3.167   9.666 -0.5087  0.4554  0.0764
15412SOL     OW50920  10.301   6.901   4.325 -0.4093  0.3327 -0.3281
15412SOL    HW150921  10.340   6.907   4.238 -0.4161 -0.9016 -0.4323
15412SOL    HW250922  10.213   6.937   4.315 -0.1629  0.8382 -0.6691
15413SOL     OW50923   9.427   2.203  10.136 -0.5357  0.1217 -0.0703
15413SOL    HW150924   9.459   2.113  10.130 -1.1812 -0.0663 -0.8945
15413SOL    HW250925   9.344   2.202  10.090 -0.3253  1.2540 -0.5117
15414SOL     OW50926   7.412   8.362  10.400 -0.2745  0.1476  0.0945
15414SOL    HW150927   7.496   8.404  10.419 -0.7574  0.3997  1.7921
15414SOL    HW250928   7.433   8.269  10.394  0.3372  0.3258 -0.9311
15415SOL     OW50929   6.954   8.440  11.031 -0.0927  0.1163 -0.6241
15415SOL    HW150930   6.986   8.368  11.086 -1.5548 -0.7787 -0.8771
15415SOL    HW250931   6.999   8.429  10.948  0.7634  0.3778 -0.2095
15416SOL     OW50932   6.091   8.337   4.088 -0.0893 -0.3347  0.4362
15416SOL    HW150933   6.055   8.406   4.033 -0.8632 -0.4914  0.7291
15416SOL    HW250934   6.176   8.370   4.116  1.1642 -0.9810 -2.2679
15417SOL     OW50935   4.299  10.670   2.496  0.0115 -0.2780  0.6020
15417SOL    HW150936   4.333  10.760   2.495  0.1234 -0.3146 -1.1449
15417SOL    HW250937   4.345  10.628   2.568  2.1779  0.2620 -0.4002
15418SOL     OW50938  11.772  11.529   0.879 -0.0888 -0.0424 -0.0479
15418SOL    HW150939  11.710  11.601   0.862 -0.8421 -1.1103 -2.0507
15418SOL    HW250940  11.827  11.525   0.802 -0.6569 -2.1850 -0.4021
15419SOL     OW50941   3.236   7.845   1.282  0.1160 -0.1608  0.3796
15419SOL    HW150942   3.320   7.802   1.296  0.2418  0.1195  0.4899
15419SOL    HW250943   3.182   7.817   1.355  0.0923 -0.3982  0.2703
15420SOL     OW50944  11.774   8.943  10.304 -0.4385 -0.2467 -0.0096
15420SOL    HW150945  11.779   8.913  10.213 -0.5915 -1.2664  0.3074
15420SOL    HW250946  11.702   8.893  10.343  1.9244 -2.6623  1.6605
15421SOL     OW50947   7.152  11.984   3.603  0.4585  0.5086  0.3257
15421SOL    HW150948   7.114  11.922   3.665  0.8779  0.0207  0.0990
15421SOL    HW250949   7.188  12.054   3.659 -2.3126  1.9250  0.4890
15422SOL     OW50950   5.221   8.135  11.323 -0.3350  0.4271 -0.0838
15422SOL    HW150951   5.283   8.195  11.365  1.4492 -2.4058  1.6324
15422SOL    HW250952   5.136   8.178  11.335  0.6929  2.0884  2.1037
15423SOL     OW50953   2.359   8.777  10.357 -0.1204  0.1589 -0.7120
15423SOL    HW150954   2.442   8.738  10.328 -0.0250 -1.1375  1.1679
15423SOL    HW250955   2.302   8.702  10.373 -0.7578  0.9051  0.6053
15424SOL     OW50956   1.135   1.222  11.893 -0.4398  0.3469  0.7441
15424SOL    HW150957   1.186   1.178  11.962 -0.6632 -0.8494  0.1652
15424SOL    HW250958   1.056   1.169  11.885 -1.3559  1.6419  0.9564
15425SOL     OW50959   6.738   4.893   4.688 -0.2018 -0.0103  0.6427
15425SOL    HW150960   6.750   4.915   4.595 -0.0970 -1.3386  0.3234
15425SOL    HW250961   6.814   4.932   4.732  1.3285 -1.8103 -0.2640
15426SOL     OW50962   6.733   5.764  11.535  0.2132 -0.1108  0.1587
15426SOL    HW150963   6.685   5.720  11.466  0.0714 -1.3545  1.0224
15426SOL    HW250964   6.736   5.701  11.607  1.9741  0.4363  0.6135
15427SOL     OW50965   0.524  11.192   1.980 -0.6832  0.3461  0.1732
15427SOL    HW150966   0.545  11.279   1.948 -1.2299  0.1275 -0.8320
15427SOL    HW250967   0.520  11.138   1.902 -0.2925 -0.6051  0.7865
15428SOL     OW50968   5.894   4.446   0.884  0.0477  0.4462 -0.3560
15428SOL    HW150969   5.908   4.420   0.975  0.0364 -0.5464 -0.6315
15428SOL    HW250970   5.800   4.438   0.871 -0.0074  1.0199 -0.3305
15429SOL     OW50971   7.027   7.799   9.868  0.4439  0.3909  0.0335
15429SOL    HW150972   7.093   7.806   9.799 -0.2887  1.4005 -0.5893
15429SOL    HW250973   7.056   7.724   9.921  1.5771  0.2405 -0.7544
15430SOL     OW50974   9.660  11.170  10.358  0.7102  0.4287  0.2774
15430SOL    HW150975   9.689  11.091  10.312  0.1299 -0.7581  1.8681
15430SOL    HW250976   9.565  11.164  10.357  0.6720  0.9848  0.6352
15431SOL     OW50977   2.747  10.596   9.040  0.0866  0.4377 -0.3568
15431SOL    HW150978   2.665  10.640   9.016 -0.0487  1.1743  1.3552
15431SOL    HW250979   2.796  10.661   9.089  0.7670 -0.6928  0.5075
15432SOL     OW50980   2.026   2.780   2.162 -0.0166  0.3288 -0.5599
15432SOL    HW150981   1.980   2.864   2.168  0.4395  0.5949 -0.6950
15432SOL    HW250982   2.072   2.784   2.078 -1.4806 -0.8336 -1.4625
15433SOL     OW50983  10.797  10.337   6.337  0.0411 -0.2422  0.0221
15433SOL    HW150984  10.798  10.357   6.243  0.4085 -0.7225 -0.0855
15433SOL    HW250985  10.889  10.344   6.363 -0.0092 -0.4749  0.2646
15434SOL     OW50986   1.267   7.043   6.749 -0.3855  0.4900  0.3181
15434SOL    HW150987   1.358   7.019   6.765 -0.3153  0.7240  0.2835
15434SOL    HW250988   1.231   6.972   6.696  0.1889  1.1114 -0.9257
15435SOL     OW50989   3.164  11.393   3.519 -0.2226 -1.1036 -0.1820
15435SOL    HW150990   3.156  11.444   3.600  0.3050 -0.6036 -0.4346
15435SOL    HW250991   3.099  11.431   3.461  2.6918  2.0474 -1.7624
15436SOL     OW50992   1.920   6.046  11.020  0.1067 -0.0104  0.3431
15436SOL    HW150993   1.870   6.127  11.009 -1.2650 -0.6344  1.6332
15436SOL    HW250994   1.995   6.071  11.074  0.2226  0.5750 -0.0809
15437SOL     OW50995   4.646   4.254   4.695 -0.6146  0.3892  0.5431
15437SOL    HW150996   4.709   4.210   4.752 -0.6861 -3.2992 -1.9013
15437SOL    HW250997   4.562   4.212   4.714 -1.1632  1.0057 -0.4005
15438SOL     OW50998   0.538   2.933   3.577  0.1346 -0.1002  0.7905
15438SOL    HW150999   0.510   2.890   3.658 -0.8842 -1.0020  0.0017
15438SOL    HW251000   0.571   2.861   3.523  1.8785  0.6352  0.7938
15439SOL     OW51001  10.104   4.134   0.520  0.0989  0.4597  0.0406
15439SOL    HW151002  10.113   4.044   0.551 -1.6666  0.2593  0.0373
15439SOL    HW251003  10.075   4.127   0.430 -0.0318  1.0338  0.0305
15440SOL     OW51004   4.386   6.370   8.682  0.4009  0.3282  0.3392
15440SOL    HW151005   4.385   6.425   8.604  1.5009  0.1702  0.2087
15440SOL    HW251006   4.325   6.413   8.742 -0.0806  0.7151 -0.4133
15441SOL     OW51007   4.641   1.861  11.625  0.2566  0.1981  0.1512
15441SOL    HW151008   4.689   1.821  11.553 -0.2730  0.6114 -0.4298
15441SOL    HW251009   4.683   1.824  11.704  1.5425  0.5590 -0.3344
15442SOL     OW51010   1.182   9.539   9.427 -0.3572  0.2007 -0.0352
15442SOL    HW151011   1.116   9.478   9.456  1.0893 -1.4755 -0.1111
15442SOL    HW251012   1.136   9.623   9.420 -1.9329 -0.4254  1.9783
15443SOL     OW51013   2.289   5.268   9.241 -0.6283 -0.1810 -0.3219
15443SOL    HW151014   2.249   5.343   9.285 -1.5893 -0.4744 -0.6553
15443SOL    HW251015   2.279   5.287   9.148 -0.1687 -0.3565 -0.4059
15444SOL     OW51016   5.253   9.176   7.900 -0.1422 -0.4807 -0.5661
15444SOL    HW151017   5.190   9.225   7.847 -0.9610 -0.6145  0.2747
15444SOL    HW251018   5.271   9.097   7.849  2.1148  1.1649 -2.5371
15445SOL     OW51019   5.132  11.558   8.906  0.9084 -0.5155 -0.5426
15445SOL    HW151020   5.179  11.634   8.873  0.3916  0.6536  1.3006
15445SOL    HW251021   5.154  11.554   8.999  0.4530 -2.2823 -0.4725
15446SOL     OW51022   1.769   3.658   8.454  0.6039  0.2082 -0.6664
15446SOL    HW151023   1.713   3.631   8.526  3.0625 -0.4715  1.1552
15446SOL    HW251024   1.828   3.723   8.492  1.5676  0.3169 -2.2441
15447SOL     OW51025   9.261  11.637   1.380 -0.2461 -0.4507  0.1457
15447SOL    HW151026   9.211  11.682   1.449  0.4339  0.0650  0.3136
15447SOL    HW251027   9.302  11.708   1.331 -1.0684 -0.7964 -1.0756
15448SOL     OW51028   7.225   6.532   9.269 -0.1352 -0.5636 -0.3279
15448SOL    HW151029   7.236   6.559   9.178 -0.3701 -0.0260 -0.2005
15448SOL    HW251030   7.304   6.481   9.289 -0.5143 -1.4891 -1.1137
15449SOL     OW51031   2.967   5.842   8.160  0.2442  0.1016 -0.0405
15449SOL    HW151032   2.915   5.873   8.234 -1.2303  0.3348 -1.1407
15449SOL    HW251033   3.051   5.818   8.199 -0.0347  1.4246  1.5142
15450SOL     OW51034   2.266   6.798   9.315 -0.2707  0.2949 -0.0233
15450SOL    HW151035   2.243   6.864   9.380  0.1686  1.9642 -1.4914
15450SOL    HW251036   2.361   6.792   9.318 -0.3375 -0.8760  0.6167
15451SOL     OW51037   0.183   6.693  11.115 -0.1137 -0.1014 -0.2760
15451SOL    HW151038   0.217   6.782  11.121  0.5403 -0.2959 -0.8678
15451SOL    HW251039   0.153   6.685  11.025 -1.2851 -0.1028  0.1031
15452SOL     OW51040  11.221   9.814   0.035  0.6632 -0.7437 -0.2747
15452SOL    HW151041  11.243   9.868  -0.041  2.0378 -0.1850  0.4761
15452SOL    HW251042  11.206   9.727  -0.001  2.2764 -0.7222 -1.1110
15453SOL     OW51043   3.820   8.669   4.334 -0.6500 -0.1386  0.3402
15453SOL    HW151044   3.808   8.764   4.329 -0.7829 -0.2060 -0.8053
15453SOL    HW251045   3.734   8.633   4.311 -0.5736 -0.5418  0.6685
15454SOL     OW51046   0.336   0.367   7.788 -0.4215  0.4863  0.6162
15454SOL    HW151047   0.303   0.435   7.847  0.8098  0.2995  1.5537
15454SOL    HW251048   0.415   0.333   7.831 -0.3902 -0.7793 -0.3614
15455SOL     OW51049   5.579   0.910   1.673 -0.3492  0.3434 -0.0280
15455SOL    HW151050   5.660   0.890   1.719 -0.3318 -0.5486 -0.4252
15455SOL    HW251051   5.605   0.972   1.605 -0.0672  0.3552  0.0883
15456SOL     OW51052   8.030   2.145   8.856 -0.2688  0.0972 -0.0240
15456SOL    HW151053   8.055   2.131   8.765 -1.7059 -0.4869 -0.3541
15456SOL    HW251054   8.010   2.057   8.889 -1.1932  0.4582  0.4019
15457SOL     OW51055   2.127   7.228  10.681 -0.2515 -0.2374  0.3956
15457SOL    HW151056   2.121   7.310  10.730  0.1077  1.2813 -1.9348
15457SOL    HW251057   2.219   7.222  10.655 -0.7069 -0.0522 -1.4516
15458SOL     OW51058   6.584   2.017   6.808 -0.9655 -0.6368 -0.3639
15458SOL    HW151059   6.577   1.948   6.873  1.4780 -0.8607 -0.2253
15458SOL    HW251060   6.620   2.092   6.855  0.4325 -0.6663 -1.3036
15459SOL     OW51061   2.243   3.015   8.313  0.4170  0.1875 -0.6759
15459SOL    HW151062   2.297   2.945   8.276  1.6099  0.1605  0.9929
15459SOL    HW251063   2.154   2.981   8.311  0.8260 -0.9000 -0.9754
15460SOL     OW51064   4.206   5.472  10.637  0.7343  0.5696  0.2374
15460SOL    HW151065   4.232   5.459  10.546 -0.5562  1.9953 -0.3948
15460SOL    HW251066   4.130   5.530  10.631  2.5071  3.3542  2.3820
15461SOL     OW51067   5.563   3.087   9.168 -0.1807 -0.4899  0.4894
15461SOL    HW151068   5.539   3.174   9.135  1.2131  0.2649  1.3653
15461SOL    HW251069   5.539   3.027   9.098 -1.8019  0.5067  0.1363
15462SOL     OW51070   2.322   2.605   1.248  0.0017  0.0445  0.6561
15462SOL    HW151071   2.306   2.543   1.177 -0.0843  1.5652 -0.7123
15462SOL    HW251072   2.239   2.653   1.255 -0.7133 -1.3902  3.2052
15463SOL     OW51073   1.060   1.473   8.242  0.5010  0.3784  0.1559
15463SOL    HW151074   0.965   1.463   8.238  0.5198  0.0409  0.5672
15463SOL    HW251075   1.091   1.394   8.286  0.8617  1.0718  1.1779
15464SOL     OW51076   9.989   3.191   8.488  0.1770  0.0998  0.0932
15464SOL    HW151077   9.971   3.146   8.406 -1.0311  1.7461 -0.5950
15464SOL    HW251078  10.081   3.171   8.507 -0.1156 -2.0457 -0.5125
15465SOL     OW51079   6.089   3.660   1.160  0.1618  0.1125  0.5210
15465SOL    HW151080   6.099   3.682   1.068  0.8882 -2.5065 -0.1008
15465SOL    HW251081   5.999   3.628   1.168  0.5884 -1.1904  0.3275
15466SOL     OW51082   3.737   7.712  11.220  0.1667 -0.0958 -0.0840
15466SOL    HW151083   3.767   7.803  11.224 -1.9734  0.6453  2.8147
15466SOL    HW251084   3.653   7.716  11.174  1.2647 -1.1228 -2.3360
15467SOL     OW51085  11.744   4.974   3.220  0.0003 -0.5377  0.4955
15467SOL    HW151086  11.715   4.922   3.295  0.4179 -0.5060  0.6763
15467SOL    HW251087  11.784   4.910   3.161 -0.3408 -0.5652  0.2924
15468SOL     OW51088   9.262   5.582  10.999 -0.5535  0.1531  0.0829
15468SOL    HW151089   9.256   5.644  10.927  2.3600  0.7469  0.2031
15468SOL    HW251090   9.324   5.622  11.060 -0.6700 -1.6583  1.4888
15469SOL     OW51091   2.311   5.643  10.299  0.1014  0.0074  0.0825
15469SOL    HW151092   2.247   5.701  10.258  0.7008  1.0228  0.5469
15469SOL    HW251093   2.356   5.601  10.226 -0.7953 -0.4079 -0.2535
15470SOL     OW51094   2.501   3.771   1.320 -0.2766  0.0364  0.2190
15470SOL    HW151095   2.447   3.842   1.285 -2.2044 -0.7362  1.4187
15470SOL    HW251096   2.590   3.795   1.297 -1.1694  0.7092 -3.1068
15471SOL     OW51097   9.303   6.669   6.983  0.2284  0.0294 -0.0166
15471SOL    HW151098   9.314   6.595   6.923 -0.9454  0.9116 -1.4238
15471SOL    HW251099   9.377   6.727   6.964  1.3540 -0.9192  1.3506
15472SOL     OW51100   5.490   5.042   4.820 -0.3510  0.0602  0.0727
15472SOL    HW151101   5.407   4.994   4.822  0.8506 -2.0985  1.9152
15472SOL    HW251102   5.490   5.094   4.901 -0.6897  1.6198 -0.8711
15473SOL     OW51103   7.989   2.545   8.842 -0.0894  0.1170  0.1668
15473SOL    HW151104   7.947   2.484   8.781 -0.8883  0.3552  0.4724
15473SOL    HW251105   8.067   2.498   8.872 -0.0120 -0.2407 -0.5743
15474SOL     OW51106   3.167   4.380   0.351 -0.4261 -0.5852 -0.0059
15474SOL    HW151107   3.131   4.396   0.264 -1.4696 -0.2566  0.4653
15474SOL    HW251108   3.176   4.285   0.356 -0.6629 -0.6296 -0.3532
15475SOL     OW51109   1.915  11.059   1.729  0.3613 -0.6742 -0.1756
15475SOL    HW151110   1.958  11.099   1.805 -0.1701  3.4238 -1.7815
15475SOL    HW251111   1.971  11.081   1.655 -2.0398  0.7559 -1.7058
15476SOL     OW51112   1.574  11.988   2.177 -0.4199  0.4194 -0.0428
15476SOL    HW151113   1.621  11.996   2.260 -0.4459  0.3272 -0.0186
15476SOL    HW251114   1.517  11.911   2.189 -1.3477  1.1442  0.3053
15477SOL     OW51115  10.119   6.208   6.084 -0.2678 -0.3567  0.6315
15477SOL    HW151116  10.191   6.259   6.121 -0.9044 -0.5924  2.2699
15477SOL    HW251117  10.152   6.176   6.000  1.8020 -1.1131  1.6904
15478SOL     OW51118   7.176   8.136   9.177  0.2276  0.0300  0.0419
15478SOL    HW151119   7.253   8.095   9.216 -2.3186 -3.6311  1.8215
15478SOL    HW251120   7.155   8.208   9.236  1.8962  0.7575 -0.1898
15479SOL     OW51121   9.836   5.975  11.349 -0.0501 -0.0739 -0.0371
15479SOL    HW151122   9.911   5.940  11.398 -1.0888  0.4218  2.0316
15479SOL    HW251123   9.851   6.069  11.347 -0.1832 -0.0608 -0.3844
15480SOL     OW51124   7.817   5.374   7.682  0.0069  0.6871 -0.8392
15480SOL    HW151125   7.902   5.412   7.663  0.0085  1.3703  0.4534
15480SOL    HW251126   7.802   5.392   7.775 -1.2071 -0.0860 -0.8595
15481SOL     OW51127   4.864   0.421   0.298 -0.0632 -0.1271  0.6119
15481SOL    HW151128   4.882   0.515   0.295 -0.9248  0.0204 -0.8396
15481SOL    HW251129   4.815   0.408   0.380 -0.8051  0.8544  0.3375
15482SOL     OW51130  11.501  10.891   4.359 -0.5546  0.1965 -0.1647
15482SOL    HW151131  11.531  10.946   4.286  0.8583  0.9403  0.9156
15482SOL    HW251132  11.573  10.895   4.423 -1.5714 -0.7583  1.0936
15483SOL     OW51133  11.184  11.122   9.641 -0.2410 -0.0050 -0.2248
15483SOL    HW151134  11.255  11.058   9.648  0.1454  0.4662  0.2927
15483SOL    HW251135  11.159  11.121   9.548  0.5700 -0.0450 -0.4490
15484SOL     OW51136   3.937   9.062   8.238  0.1548  0.1901 -0.2832
15484SOL    HW151137   3.981   9.108   8.166  0.6923 -0.6413 -0.5001
15484SOL    HW251138   3.845   9.085   8.229  0.2800  0.4348 -0.9854
15485SOL     OW51139   5.499   0.395   5.896 -0.3959  0.0719  0.1725
15485SOL    HW151140   5.456   0.480   5.883  0.5716  0.3808 -1.1776
15485SOL    HW251141   5.434   0.331   5.867 -0.3959  0.4769 -0.7623
15486SOL     OW51142   3.447  11.254   4.614 -0.1391  0.0926  0.4986
15486SOL    HW151143   3.398  11.172   4.610  0.0091  0.0251 -0.1532
15486SOL    HW251144   3.487  11.254   4.701  0.1560 -0.7007  0.3768
15487SOL     OW51145   1.966  11.644   6.331 -0.3378  0.0324 -0.1804
15487SOL    HW151146   1.963  11.565   6.277 -1.1548 -0.9119  1.1991
15487SOL    HW251147   1.989  11.613   6.418 -1.2632  1.2283  0.5244
15488SOL     OW51148  10.125   4.591   4.782  0.1641 -0.4046 -0.0606
15488SOL    HW151149  10.030   4.588   4.798 -0.1635 -0.5355 -1.8281
15488SOL    HW251150  10.133   4.618   4.691  1.8020 -1.5518 -0.3048
15489SOL     OW51151   5.247   4.767   6.390  0.0895  0.3200 -0.0590
15489SOL    HW151152   5.255   4.674   6.413 -0.1281  0.4602  0.5866
15489SOL    HW251153   5.229   4.766   6.296  1.2298 -0.2463 -0.2808
15490SOL     OW51154  11.215   6.321  10.367 -0.2979  0.3044 -0.4310
15490SOL    HW151155  11.190   6.240  10.323  0.1206 -1.0893  1.7378
15490SOL    HW251156  11.144   6.382  10.346  0.5143  0.2190 -4.0341
15491SOL     OW51157   8.058   3.806   0.652  0.1229  0.0243  0.0960
15491SOL    HW151158   8.107   3.725   0.639  0.1184  0.0818 -0.2909
15491SOL    HW251159   8.042   3.839   0.564 -2.6754 -1.2046  0.0780
15492SOL     OW51160  11.058   0.841   6.231 -0.1901 -0.0700  0.3956
15492SOL    HW151161  10.974   0.806   6.259  0.3993 -0.6748  1.4770
15492SOL    HW251162  11.036   0.912   6.171 -1.4576 -0.4507  0.3921
15493SOL     OW51163   5.335   0.575   0.504 -0.1709  0.3173 -0.1979
15493SOL    HW151164   5.354   0.482   0.510  1.3619  0.6714  0.9775
15493SOL    HW251165   5.296   0.597   0.589  0.1676  0.8841 -0.1802
15494SOL     OW51166   4.339  11.018   5.189 -0.5439 -0.2748  0.5211
15494SOL    HW151167   4.277  11.029   5.262  0.7246  2.2490  1.3306
15494SOL    HW251168   4.331  11.099   5.139  1.4975 -0.2307  0.1936
15495SOL     OW51169   3.738  10.613   6.033  0.1534  0.2222  0.1208
15495SOL    HW151170   3.717  10.534   5.984  2.0210 -0.2599  0.0062
15495SOL    HW251171   3.714  10.685   5.974 -1.3497 -0.2322  0.1390
15496SOL     OW51172   1.748   5.258  11.098 -0.9448  0.2130 -0.6707
15496SOL    HW151173   1.663   5.275  11.057 -1.0345  0.7248 -0.2906
15496SOL    HW251174   1.808   5.321  11.058 -1.1224  0.9887  0.2452
15497SOL     OW51175   4.074  11.607   4.751 -0.1340 -0.0430  0.3668
15497SOL    HW151176   4.084  11.694   4.711 -0.6844 -0.4801 -0.7753
15497SOL    HW251177   4.031  11.555   4.683  0.7775 -1.3893  0.7977
15498SOL     OW51178  10.867   6.276   8.723  0.2526 -0.8171  0.7729
15498SOL    HW151179  10.783   6.294   8.681 -0.0506  0.5830  1.9016
15498SOL    HW251180  10.918   6.231   8.656 -1.9043 -3.1609  0.5143
15499SOL     OW51181   4.669   2.396   4.552  0.5286  0.6380 -0.0390
15499SOL    HW151182   4.715   2.329   4.501 -0.0331  0.1277  0.1119
15499SOL    HW251183   4.700   2.479   4.516 -1.2732  0.3373 -2.5670
15500SOL     OW51184   7.950   1.373   1.421 -0.1733 -0.3606 -0.0685
15500SOL    HW151185   8.045   1.369   1.408  0.0261 -0.5900  1.2364
15500SOL    HW251186   7.939   1.432   1.496 -1.1284  0.2928 -0.7044
15501SOL     OW51187   5.755  11.093   4.494 -0.0822 -0.0068  0.7695
15501SOL    HW151188   5.680  11.151   4.509  0.9814  0.9525  2.6532
15501SOL    HW251189   5.822  11.123   4.555  2.1464 -0.3814 -1.3330
15502SOL     OW51190  10.698   8.544   1.726 -0.5971  0.3409 -0.1642
15502SOL    HW151191  10.727   8.556   1.635  0.4447 -1.5620 -0.1342
15502SOL    HW251192  10.615   8.497   1.719  0.4932 -1.6874 -0.1581
15503SOL     OW51193   5.737   0.945   1.154  0.0784 -0.2962  0.3777
15503SOL    HW151194   5.758   1.028   1.112 -0.3211  0.5729  1.7962
15503SOL    HW251195   5.822   0.906   1.175  0.2783  0.3814  0.8550
15504SOL     OW51196   9.486  10.705   1.266  0.2881  0.0565  0.1179
15504SOL    HW151197   9.463  10.672   1.179  2.1142 -1.7910  0.2759
15504SOL    HW251198   9.579  10.689   1.274  0.6678  2.4612  1.5208
15505SOL     OW51199  10.654   8.963   7.227 -0.4112 -0.1434 -0.4512
15505SOL    HW151200  10.605   8.970   7.310 -0.2960  1.8854 -0.5042
15505SOL    HW251201  10.605   8.898   7.176 -1.9105  0.3481  0.2846
15506SOL     OW51202   9.466  10.875  10.469  0.4920 -0.5195  0.4729
15506SOL    HW151203   9.478  10.883  10.375 -0.3556  0.6939  0.4457
15506SOL    HW251204   9.513  10.795  10.493 -0.3688 -1.5567 -1.1580
15507SOL     OW51205   6.395  11.068   6.512  0.5796 -0.2439  0.2410
15507SOL    HW151206   6.455  11.007   6.469  1.6488 -0.2318  1.6728
15507SOL    HW251207   6.407  11.151   6.465  1.5450 -0.2945  0.3785
15508SOL     OW51208   9.182   2.771   5.774  0.0796  0.3288 -0.8000
15508SOL    HW151209   9.182   2.828   5.851 -0.0411 -1.7001  0.7741
15508SOL    HW251210   9.090   2.764   5.748 -0.3300 -1.5139  0.9149
15509SOL     OW51211   1.616   2.918   7.372 -0.5363  0.1751  0.1618
15509SOL    HW151212   1.527   2.895   7.345 -0.7495 -0.1544  1.1097
15509SOL    HW251213   1.671   2.846   7.340 -0.7430 -0.0634  0.3427
15510SOL     OW51214   1.673   9.007   0.802 -0.6463 -0.3923  0.1682
15510SOL    HW151215   1.735   9.006   0.874  0.8435 -0.0040 -1.0475
15510SOL    HW251216   1.645   8.916   0.793  0.0110 -0.6408  0.5280
15511SOL     OW51217   6.282   9.235   6.018 -0.5954  0.7102  0.1922
15511SOL    HW151218   6.314   9.310   5.967  0.0814  0.1034 -0.2886
15511SOL    HW251219   6.262   9.271   6.104  1.1623  1.1756  0.4479
15512SOL     OW51220   2.936   5.276   0.717 -0.2058 -0.0586  0.1865
15512SOL    HW151221   3.030   5.288   0.728 -0.2242 -0.9203  1.5155
15512SOL    HW251222   2.910   5.343   0.653  1.2215  0.4798  0.1446
15513SOL     OW51223  10.642   5.441   7.668 -0.2922  0.1317  0.2991
15513SOL    HW151224  10.620   5.534   7.662 -1.0485 -0.0377  0.4041
15513SOL    HW251225  10.705   5.437   7.740 -0.3556  0.5473  0.3857
15514SOL     OW51226   1.289   5.871   5.365  0.7026  0.0123  0.2594
15514SOL    HW151227   1.314   5.824   5.285  1.0345 -1.9470  1.4575
15514SOL    HW251228   1.281   5.803   5.432 -0.3961  1.4910  1.7283
15515SOL     OW51229   2.481   0.116   4.961  0.3987  0.2934  0.0892
15515SOL    HW151230   2.519   0.168   4.889  0.7387  1.3508  1.0021
15515SOL    HW251231   2.403   0.166   4.987 -1.3274 -1.5152 -1.3344
15516SOL     OW51232   3.835   0.074   0.677  0.7949 -0.0057  0.3614
15516SOL    HW151233   3.743   0.100   0.672  1.5595  2.8957 -0.1229
15516SOL    HW251234   3.851   0.061   0.771 -0.0646 -0.5079  0.4492
15517SOL     OW51235   9.939   1.460   6.706  0.2943  0.2168 -0.7784
15517SOL    HW151236   9.976   1.381   6.746 -1.6851 -0.7952 -0.8162
15517SOL    HW251237   9.955   1.449   6.613  0.6159  0.1917 -0.7216
15518SOL     OW51238   1.247   2.219  10.310  1.0583  0.2293  0.1394
15518SOL    HW151239   1.283   2.135  10.337 -0.3599  0.0092  1.5331
15518SOL    HW251240   1.157   2.218  10.342  1.4570  2.9323  1.6846
15519SOL     OW51241   4.173   7.743   3.849  0.4266 -0.3014 -0.0374
15519SOL    HW151242   4.082   7.715   3.834  0.6546 -0.8017 -0.5094
15519SOL    HW251243   4.213   7.670   3.895  0.3104  0.3602  1.1433
15520SOL     OW51244  10.204   0.545   5.955 -0.0991  0.1739 -0.0363
15520SOL    HW151245  10.176   0.509   6.039  1.2124 -1.3630 -0.2027
15520SOL    HW251246  10.180   0.478   5.891  1.8354 -0.2068 -0.4373
15521SOL     OW51247   1.848   1.073   0.800  0.2758  0.3637 -0.5822
15521SOL    HW151248   1.834   1.121   0.718  0.0999  0.2377 -0.6262
15521SOL    HW251249   1.899   1.134   0.855  0.4395  0.4290 -0.8027
15522SOL     OW51250   0.687   4.867   7.392 -0.2137  0.3315 -0.0708
15522SOL    HW151251   0.643   4.788   7.363  0.5189 -0.8543  1.8566
15522SOL    HW251252   0.776   4.839   7.412 -0.1080  1.5016  1.2378
15523SOL     OW51253   5.414  11.937   1.772  0.1557 -0.3055 -0.5460
15523SOL    HW151254   5.423  11.897   1.858 -1.0622 -0.5696 -0.5304
15523SOL    HW251255   5.408  11.863   1.711 -1.1611 -0.1578 -0.6154
15524SOL     OW51256   4.806   4.228   0.318  0.2054 -0.8826 -0.9377
15524SOL    HW151257   4.863   4.237   0.242 -1.3309 -1.4870 -2.2246
15524SOL    HW251258   4.833   4.146   0.359  0.7507 -0.7804 -1.0862
15525SOL     OW51259   5.181   6.687  11.869 -0.5426 -0.4201  0.2294
15525SOL    HW151260   5.203   6.654  11.782 -1.6562 -0.0562 -0.2124
15525SOL    HW251261   5.245   6.755  11.887 -1.5593  0.9751 -1.2315
15526SOL     OW51262   4.626   0.927  11.347  0.2609 -0.0829 -0.3991
15526SOL    HW151263   4.573   0.912  11.269  1.5913 -1.0027 -1.1414
15526SOL    HW251264   4.568   0.903  11.420 -2.2155  3.8837 -0.7302
15527SOL     OW51265   8.637   2.019  10.717  0.6905 -0.8109  0.2600
15527SOL    HW151266   8.655   2.093  10.775  0.8750 -1.3685  0.9288
15527SOL    HW251267   8.545   1.999  10.730 -0.1045  1.0229 -1.9712
15528SOL     OW51268   5.569   7.147   5.744  0.1187  0.1634 -0.1309
15528SOL    HW151269   5.553   7.242   5.748  1.2427  0.3113  2.0779
15528SOL    HW251270   5.551   7.124   5.652  2.1896  2.9405 -1.3936
15529SOL     OW51271   7.938   3.322  10.924  0.1355 -0.0654  0.0753
15529SOL    HW151272   8.022   3.366  10.912 -0.5330  1.0707 -0.7071
15529SOL    HW251273   7.949   3.269  11.003  1.6038 -0.0120 -0.0694
15530SOL     OW51274  11.644   1.122  10.733 -0.4470  0.3002  0.0434
15530SOL    HW151275  11.685   1.058  10.675 -0.5148 -1.1451  1.5079
15530SOL    HW251276  11.553   1.092  10.742 -0.3537  0.2983  1.1388
15531SOL     OW51277   3.248   6.080   1.169  0.0957 -0.5415  0.3740
15531SOL    HW151278   3.287   6.148   1.224  1.4062  0.6125 -1.8627
15531SOL    HW251279   3.153   6.095   1.177  0.3216  0.9511  0.6576
15532SOL     OW51280   2.179   0.971   3.263  0.3623 -0.3829  0.7172
15532SOL    HW151281   2.145   1.057   3.286  0.3958  0.4631 -2.0747
15532SOL    HW251282   2.106   0.926   3.221  1.0541 -0.7477 -0.1230
15533SOL     OW51283   5.815   4.805   4.147  0.4032 -0.0567 -0.6550
15533SOL    HW151284   5.769   4.802   4.063  0.1602 -2.1637 -0.5049
15533SOL    HW251285   5.803   4.895   4.177 -1.5976  0.1066 -1.7296
15534SOL     OW51286   4.413   1.313  11.376 -0.2474 -0.6065  0.0939
15534SOL    HW151287   4.372   1.400  11.375  1.6430  0.3379  0.2709
15534SOL    HW251288   4.398   1.278  11.288 -0.2147  0.3125 -0.2864
15535SOL     OW51289  10.951   8.982   5.947 -0.3710 -0.2627  0.2983
15535SOL    HW151290  10.911   8.992   6.033  0.0874 -2.2727  0.7928
15535SOL    HW251291  11.041   9.014   5.959 -0.0698 -1.2631  0.8000
15536SOL     OW51292   2.470  11.517   4.578  0.4501  0.1611  0.1394
15536SOL    HW151293   2.467  11.544   4.670  0.2996 -0.5751  0.3567
15536SOL    HW251294   2.407  11.574   4.534 -0.0001  0.0389  0.6195
15537SOL     OW51295   3.753  10.476  10.626  0.1425 -0.3901  0.1707
15537SOL    HW151296   3.710  10.406  10.676 -1.4480 -0.9962 -1.9046
15537SOL    HW251297   3.803  10.430  10.559 -0.6308  0.4061 -0.9906
15538SOL     OW51298   8.808  11.177   5.187  0.0530 -0.3426  0.2835
15538SOL    HW151299   8.777  11.261   5.220 -0.0322 -0.6403  0.9950
15538SOL    HW251300   8.818  11.189   5.093 -1.2923  0.0563  0.1749
15539SOL     OW51301   3.642   3.915   3.116  0.7959 -0.0389 -0.1461
15539SOL    HW151302   3.711   3.980   3.104  0.2766  0.4912 -0.3115
15539SOL    HW251303   3.668   3.866   3.195  1.8858 -0.5341 -0.7861
15540SOL     OW51304   0.608   9.022   8.588  0.3827  0.0192  0.1084
15540SOL    HW151305   0.663   8.999   8.663  0.4987  0.4801  0.1687
15540SOL    HW251306   0.669   9.024   8.514  0.0753 -1.5818 -0.2303
15541SOL     OW51307  10.113   4.263   6.456 -0.1194 -0.7432  0.4125
15541SOL    HW151308  10.073   4.334   6.505  0.5868  0.0131 -0.0890
15541SOL    HW251309  10.184   4.304   6.406  1.5505 -2.0716  1.5637
15542SOL     OW51310   1.759   0.361  11.364  0.1952  0.1045 -0.0943
15542SOL    HW151311   1.800   0.427  11.420  0.8826 -0.5422  0.1878
15542SOL    HW251312   1.808   0.281  11.382 -1.0345 -0.6329  0.0379
15543SOL     OW51313   8.801   1.836   5.823 -0.1931 -0.8787  0.6332
15543SOL    HW151314   8.807   1.781   5.901 -0.4649 -2.3960 -0.3486
15543SOL    HW251315   8.707   1.839   5.803 -0.2064  0.1719  0.8054
15544SOL     OW51316   8.517  11.389   6.371  0.1004  0.1746 -0.1614
15544SOL    HW151317   8.588  11.330   6.398 -0.7929 -1.3988 -1.1387
15544SOL    HW251318   8.438  11.351   6.411 -0.7780 -0.4362 -2.3701
15545SOL     OW51319   6.149   5.241   1.916  0.2680  0.4539 -0.6421
15545SOL    HW151320   6.113   5.298   1.984 -2.2366 -1.4829 -0.1989
15545SOL    HW251321   6.225   5.200   1.957 -1.0392 -0.4765  0.9594
15546SOL     OW51322   9.810   8.721  11.275  0.4899 -0.2127 -0.3190
15546SOL    HW151323   9.896   8.679  11.279  0.2282 -0.6451  1.3947
15546SOL    HW251324   9.822   8.796  11.216  1.9749 -0.4102 -0.2899
15547SOL     OW51325   8.794  10.876  10.378 -0.1970  0.4207 -0.4941
15547SOL    HW151326   8.800  10.805  10.314  0.6600  0.5521 -0.5722
15547SOL    HW251327   8.879  10.920  10.374 -0.9798  1.9754 -1.0347
15548SOL     OW51328  10.109  11.861   9.860 -0.3220  0.5430 -0.9077
15548SOL    HW151329  10.117  11.768   9.840  0.2404  0.5879 -0.9066
15548SOL    HW251330  10.178  11.879   9.923  1.8074  1.6349 -3.3421
15549SOL     OW51331   1.070  10.481   1.115 -0.4763  0.4350  0.3015
15549SOL    HW151332   1.098  10.393   1.142  2.2929  1.2624  0.4280
15549SOL    HW251333   1.028  10.467   1.030 -0.2812 -1.0433  0.4118
15550SOL     OW51334   1.268  10.596   1.268  0.2745  0.4685  0.7327
15550SOL    HW151335   1.225  10.579   1.352  0.1982 -1.8092  0.2952
15550SOL    HW251336   1.199  10.583   1.203  0.9075 -0.2514  0.1899
15551SOL     OW51337   6.480   0.607   8.003  0.8069 -0.1019  0.4220
15551SOL    HW151338   6.569   0.601   7.968  0.7860 -0.3312  0.4040
15551SOL    HW251339   6.452   0.696   7.984  0.8296 -0.1978 -0.0684
15552SOL     OW51340   8.829   1.626   9.219  0.0976  0.3265  0.4703
15552SOL    HW151341   8.742   1.588   9.230  0.4959 -1.0561 -0.8299
15552SOL    HW251342   8.852   1.658   9.307 -2.2677  2.0473  0.5398
15553SOL     OW51343   8.268   6.810   9.806 -0.2902 -0.1264  0.0286
15553SOL    HW151344   8.308   6.735   9.849 -1.0066 -0.0395  0.8939
15553SOL    HW251345   8.320   6.825   9.727  1.2481 -0.1158  1.0148
15554SOL     OW51346   6.596   9.384   5.995  0.2102 -0.3819  0.2346
15554SOL    HW151347   6.558   9.369   5.908  1.1617 -0.7668 -0.1235
15554SOL    HW251348   6.689   9.361   5.985  0.2416 -0.8387  1.4683
15555SOL     OW51349   8.836  11.069  11.008 -0.2793  0.0265  0.1700
15555SOL    HW151350   8.764  11.089  10.947 -0.5001 -1.1784  0.0208
15555SOL    HW251351   8.792  11.046  11.090 -0.0116  0.5354  0.4634
15556SOL     OW51352   0.524   1.032   6.437  0.0491 -0.0576 -0.0641
15556SOL    HW151353   0.597   1.088   6.463 -0.0993 -0.4288  1.1932
15556SOL    HW251354   0.446   1.081   6.466 -0.2078  0.2381 -1.2055
15557SOL     OW51355   5.103  10.353   3.794 -0.2816  0.3352  0.8883
15557SOL    HW151356   5.141  10.294   3.860  0.9494 -0.1612 -0.2284
15557SOL    HW251357   5.092  10.299   3.716 -1.4411  0.9958  0.5655
15558SOL     OW51358   9.476  11.485   4.732 -0.3392 -0.4086 -0.1366
15558SOL    HW151359   9.514  11.437   4.806 -0.3812  0.8769  0.7543
15558SOL    HW251360   9.544  11.548   4.707 -0.4630 -0.5954 -0.9684
15559SOL     OW51361   1.186   1.292   0.827  0.1327  0.3609 -0.4219
15559SOL    HW151362   1.146   1.217   0.783 -0.3740  0.2658  0.1841
15559SOL    HW251363   1.141   1.369   0.792 -0.9139  0.2302  0.5590
15560SOL     OW51364   9.678  10.471   9.800  0.2914  0.2834  0.7209
15560SOL    HW151365   9.761  10.424   9.804 -1.2753 -2.6971  0.8418
15560SOL    HW251366   9.660  10.497   9.890  2.3700  3.6427  0.3385
15561SOL     OW51367   3.898   1.410   8.245  0.5335 -0.4597  0.3611
15561SOL    HW151368   3.822   1.411   8.187  1.0221  1.4245 -0.3182
15561SOL    HW251369   3.942   1.493   8.229  1.3644 -0.3981  2.5710
15562SOL     OW51370   9.242   5.241   2.112  0.0732  0.2514  0.1017
15562SOL    HW151371   9.216   5.150   2.125 -2.1502  0.8470  0.2080
15562SOL    HW251372   9.307   5.257   2.180  0.6421 -1.2984 -0.0357
15563SOL     OW51373   0.499   2.082  10.977 -0.7274 -0.4202 -0.9776
15563SOL    HW151374   0.407   2.064  10.996 -0.5004 -2.6445 -1.7036
15563SOL    HW251375   0.498   2.158  10.920 -2.1034 -0.3887 -0.9338
15564SOL     OW51376   6.755  11.022   8.997 -0.7037 -0.4104  0.1678
15564SOL    HW151377   6.687  11.076   8.955  0.0497  0.5158  0.1182
15564SOL    HW251378   6.834  11.076   8.993  0.1330 -1.6265 -0.1091
15565SOL     OW51379   4.769   9.331   6.727 -0.4649 -0.3097  0.4554
15565SOL    HW151380   4.777   9.334   6.822  0.4624  0.6772  0.3607
15565SOL    HW251381   4.827   9.260   6.699  2.0572  1.6203  0.4027
15566SOL     OW51382   7.500  10.099   6.236  0.2118 -0.0808  0.6616
15566SOL    HW151383   7.460  10.019   6.202  2.3543 -0.9066 -0.0879
15566SOL    HW251384   7.459  10.111   6.322 -0.7749 -1.4802  0.4311
15567SOL     OW51385  11.436   5.760   1.747 -0.8190 -0.2686 -0.3630
15567SOL    HW151386  11.506   5.710   1.790 -0.2483  0.0574 -0.8844
15567SOL    HW251387  11.356   5.714   1.769 -0.2996 -1.4583 -0.8918
15568SOL     OW51388   4.890   0.879   4.959 -0.0942  0.1735  0.1136
15568SOL    HW151389   4.835   0.814   4.917 -2.4750  2.5372 -0.6748
15568SOL    HW251390   4.954   0.903   4.892 -1.0535  0.6932 -0.6431
15569SOL     OW51391   4.529   3.382   2.447 -0.3061 -0.8656 -0.0540
15569SOL    HW151392   4.446   3.361   2.490 -0.1662 -2.7175 -0.5866
15569SOL    HW251393   4.596   3.359   2.511 -0.1893  0.8110  0.4465
15570SOL     OW51394   2.686   9.694   2.273 -0.1599 -0.1094 -0.2134
15570SOL    HW151395   2.703   9.654   2.359  1.6650  1.8767  0.4373
15570SOL    HW251396   2.683   9.788   2.291 -0.5169  0.3059 -2.2295
15571SOL     OW51397   0.787   9.593   9.260 -0.3547  0.1428  0.4658
15571SOL    HW151398   0.728   9.619   9.189 -0.4884 -0.6901  0.2595
15571SOL    HW251399   0.760   9.504   9.282 -0.8107  0.6657  2.0900
15572SOL     OW51400   3.813   0.871   2.514 -0.8578  0.1432 -0.3136
15572SOL    HW151401   3.828   0.787   2.470 -0.2844  0.6965 -1.2223
15572SOL    HW251402   3.815   0.850   2.607  0.5306 -0.6762 -0.4890
15573SOL     OW51403  10.454  11.484   0.861 -0.8566 -0.0137 -0.1193
15573SOL    HW151404  10.473  11.577   0.843 -3.4871  0.7673  0.7575
15573SOL    HW251405  10.520  11.458   0.925 -0.4693  1.4646  0.1256
15574SOL     OW51406   4.167  11.732   5.889  0.2686 -0.1646  0.2130
15574SOL    HW151407   4.175  11.790   5.965  0.7731  0.2123 -0.1193
15574SOL    HW251408   4.110  11.661   5.918  1.8756 -0.9754  1.5247
15575SOL     OW51409   9.001   9.292  11.098 -0.3213 -0.0680 -0.0100
15575SOL    HW151410   9.005   9.245  11.181 -1.7351  1.0875  0.7869
15575SOL    HW251411   9.063   9.364  11.109 -0.0402 -0.2786 -0.2121
15576SOL     OW51412   2.107   7.403   8.717 -0.1091 -0.1726 -0.0259
15576SOL    HW151413   2.015   7.387   8.695 -0.5854  1.3695  0.7155
15576SOL    HW251414   2.104   7.446   8.803  1.3886 -1.2931  0.6303
15577SOL     OW51415   3.694  12.001  11.729 -0.3874 -0.2279  0.2781
15577SOL    HW151416   3.701  11.969  11.819  0.8956 -1.1222 -0.1242
15577SOL    HW251417   3.605  12.037  11.724 -0.8827 -1.1888  1.5726
15578SOL     OW51418   4.250   8.257   2.935 -0.0479 -0.2227 -0.4357
15578SOL    HW151419   4.281   8.305   2.858 -2.2878  1.2061 -0.5185
15578SOL    HW251420   4.231   8.324   3.000 -1.0194 -1.1804  0.3059
15579SOL     OW51421   2.564   8.816   9.076  0.5406  0.0063  0.2021
15579SOL    HW151422   2.523   8.884   9.022 -0.4062 -0.2654  0.5588
15579SOL    HW251423   2.494   8.754   9.094  1.0421 -0.3300  1.0749
15580SOL     OW51424  11.130   2.269  10.623  0.4798  0.2282 -0.7789
15580SOL    HW151425  11.135   2.230  10.536 -0.1408 -0.2551 -0.6039
15580SOL    HW251426  11.039   2.256  10.650  0.4375  1.1905 -0.4314
15581SOL     OW51427   7.360   2.269   3.733  0.2446 -0.2233  0.3427
15581SOL    HW151428   7.335   2.285   3.642 -0.1232  0.8549  0.6150
15581SOL    HW251429   7.279   2.278   3.782  0.7392  1.0932  0.9809
15582SOL     OW51430   1.947   1.996  11.446  0.2774  0.1573  0.4175
15582SOL    HW151431   1.940   2.063  11.379  0.6186  0.9954  1.2050
15582SOL    HW251432   2.032   1.953  11.429 -1.0712 -1.9224 -1.7210
15583SOL     OW51433   8.512   6.991   8.594  0.3531  0.4335  0.3813
15583SOL    HW151434   8.488   6.907   8.554 -0.2000 -0.1282  1.8194
15583SOL    HW251435   8.492   7.056   8.527  0.3250 -0.5324 -0.5807
15584SOL     OW51436   9.658  11.830   0.944  0.0420  0.0250  0.4554
15584SOL    HW151437   9.629  11.754   0.893 -1.6390 -0.6055  2.2560
15584SOL    HW251438   9.679  11.896   0.877  1.6630 -1.9685 -1.1779
15585SOL     OW51439   4.905   7.840   2.848  0.2343  0.1568 -0.3212
15585SOL    HW151440   4.857   7.868   2.770  1.7240 -0.1080 -1.3725
15585SOL    HW251441   4.986   7.891   2.846  0.5455 -0.2713  0.7515
15586SOL     OW51442   7.338   8.222   3.142  0.5466  0.3799  0.0199
15586SOL    HW151443   7.336   8.146   3.200  1.4740 -0.4599 -1.0304
15586SOL    HW251444   7.411   8.274   3.174  1.5632 -0.4778 -0.8551
15587SOL     OW51445   1.097   2.309   8.194 -0.1001 -0.4122 -0.0322
15587SOL    HW151446   1.059   2.364   8.263 -0.1016  1.3440 -1.3608
15587SOL    HW251447   1.191   2.326   8.200 -0.1788  0.4681 -1.0077
15588SOL     OW51448   5.019   4.216   0.155 -0.5354 -0.4195  0.8400
15588SOL    HW151449   4.953   4.178   0.097 -0.0899 -1.2739  0.8835
15588SOL    HW251450   5.100   4.171   0.133  0.3948  1.6348 -0.2566
15589SOL     OW51451   7.387   3.692   5.608  0.3090  0.1532 -0.0361
15589SOL    HW151452   7.361   3.752   5.538  0.0674 -0.7262 -0.7082
15589SOL    HW251453   7.460   3.642   5.572 -1.6745 -2.3799 -0.8180
15590SOL     OW51454   3.265   3.707   1.319  0.6526  0.5990  0.5560
15590SOL    HW151455   3.260   3.637   1.255 -0.2268 -0.1487  1.4184
15590SOL    HW251456   3.293   3.665   1.400  1.2392  1.4371  0.8064
15591SOL     OW51457  10.065   5.679   4.131  0.1516 -0.2808 -0.5911
15591SOL    HW151458   9.995   5.739   4.154 -0.4941 -1.5562  0.9864
15591SOL    HW251459  10.136   5.700   4.191 -0.6767 -2.0839  1.1290
15592SOL     OW51460   0.544   5.814   0.124  0.2610 -0.0866 -0.4375
15592SOL    HW151461   0.601   5.858   0.187  1.1230  0.2292 -1.4178
15592SOL    HW251462   0.463   5.798   0.173  1.6060 -1.7988  1.4315
15593SOL     OW51463   8.111   3.645  10.756  0.2632 -0.2064 -0.1930
15593SOL    HW151464   8.092   3.736  10.778 -0.6007 -0.3860 -0.1681
15593SOL    HW251465   8.037   3.616  10.703 -0.1160 -1.2685  0.8608
15594SOL     OW51466   0.146  10.862  11.629  0.5995  0.8420  0.0303
15594SOL    HW151467   0.238  10.877  11.648  0.5370  0.0362  1.0351
15594SOL    HW251468   0.144  10.844  11.535  1.6286 -0.1803  0.1715
15595SOL     OW51469   9.847  11.116   6.084 -0.2976  0.1572  0.3708
15595SOL    HW151470   9.881  11.201   6.056 -0.3841  0.2799  0.6343
15595SOL    HW251471   9.766  11.105   6.034  0.1046 -0.1159 -0.2252
15596SOL     OW51472  10.679   9.273   1.297 -0.0518  0.2811 -0.5757
15596SOL    HW151473  10.764   9.274   1.253  2.1864  2.5053  3.2477
15596SOL    HW251474  10.694   9.225   1.379 -2.5002  0.7350  0.2454
15597SOL     OW51475   4.733   7.334   2.461 -0.0202 -0.1894  0.4562
15597SOL    HW151476   4.768   7.245   2.465 -0.6236 -0.3952  1.7849
15597SOL    HW251477   4.655   7.326   2.406  0.8221 -0.1390 -0.7775
15598SOL     OW51478   2.834   6.604   4.715  0.6213 -0.6381 -0.6974
15598SOL    HW151479   2.871   6.691   4.727  1.0036 -0.8226 -0.5119
15598SOL    HW251480   2.740   6.618   4.712  0.7459  0.0375 -2.8095
15599SOL     OW51481  11.124   1.957   7.132  0.4704  0.2366  0.1475
15599SOL    HW151482  11.123   1.868   7.166 -0.0570  0.1772 -0.0149
15599SOL    HW251483  11.162   1.948   7.044  1.5493  0.3488  0.5856
15600SOL     OW51484   3.240   2.272   5.005 -0.1479 -0.3754 -0.3170
15600SOL    HW151485   3.306   2.273   4.936 -0.8108 -1.0507 -0.9778
15600SOL    HW251486   3.217   2.179   5.014 -0.8238 -0.1722  0.0873
15601SOL     OW51487   1.031   9.457   7.890  0.2813 -0.3793  0.4271
15601SOL    HW151488   1.038   9.485   7.799  2.2717 -0.6246  0.4470
15601SOL    HW251489   0.985   9.529   7.934 -2.7141 -1.2024 -1.0901
15602SOL     OW51490   7.984   8.779   1.579 -0.2780 -0.6473  0.2744
15602SOL    HW151491   8.027   8.864   1.589 -0.7606 -0.2673 -0.7859
15602SOL    HW251492   8.002   8.733   1.662  2.2517 -0.5636 -0.1639
15603SOL     OW51493   6.510   8.195  10.330 -0.7815  0.5121 -0.2253
15603SOL    HW151494   6.502   8.104  10.303 -2.0564  1.1198 -2.0908
15603SOL    HW251495   6.543   8.191  10.420 -1.0916 -1.7738 -0.1717
15604SOL     OW51496   9.318   2.882   8.034 -0.4067  0.2150  0.1652
15604SOL    HW151497   9.313   2.794   8.071 -0.8204 -0.2206 -0.8798
15604SOL    HW251498   9.356   2.869   7.947  1.3457  1.3028  0.7136
15605SOL     OW51499   1.949   9.339   9.581 -0.1222 -0.3397 -0.3927
15605SOL    HW151500   1.864   9.298   9.598  0.4610 -0.3150  3.6024
15605SOL    HW251501   2.003   9.269   9.546 -0.7728 -1.4260  0.6892
15606SOL     OW51502   9.903   2.160   0.140 -0.0365  0.2825  0.1183
15606SOL    HW151503   9.842   2.157   0.066 -1.4355  0.9933  1.1987
15606SOL    HW251504   9.978   2.108   0.110 -0.3652  0.8757 -1.9399
15607SOL     OW51505  10.820   5.585   8.695 -0.3900  0.4394  0.4370
15607SOL    HW151506  10.836   5.494   8.719 -0.7628  0.4138  0.5924
15607SOL    HW251507  10.900   5.612   8.649 -0.9460 -0.4941 -1.1726
15608SOL     OW51508   5.784   6.805  11.720 -0.8989 -0.2782 -0.3008
15608SOL    HW151509   5.846   6.789  11.649  1.2854  0.2241  1.3812
15608SOL    HW251510   5.800   6.735  11.783  0.3802  1.6040  1.6486
15609SOL     OW51511   5.647   2.597   2.495 -0.3423 -0.3117  0.3040
15609SOL    HW151512   5.723   2.544   2.520  0.0312  0.9360  2.0076
15609SOL    HW251513   5.679   2.654   2.425  0.0636 -0.3284  0.4770
15610SOL     OW51514   5.063   0.675   9.331 -0.6477  0.1045  0.8053
15610SOL    HW151515   5.133   0.614   9.306 -0.4567  0.4557  0.4712
15610SOL    HW251516   5.000   0.670   9.258 -0.3366  0.7558  0.4855
15611SOL     OW51517   6.097  10.921   5.020 -0.1619 -0.1851  0.1614
15611SOL    HW151518   6.023  10.881   5.067  0.3638 -0.1243  1.0528
15611SOL    HW251519   6.172  10.865   5.041 -0.0553 -0.5936 -1.2248
15612SOL     OW51520   1.299   4.951   0.294 -0.4682 -0.4289  0.0859
15612SOL    HW151521   1.222   4.915   0.250  0.3842 -2.1559 -0.1092
15612SOL    HW251522   1.373   4.904   0.254  0.6683  0.9241  0.4991
15613SOL     OW51523   8.126   7.619   1.254 -0.2649 -0.1353 -0.3646
15613SOL    HW151524   8.046   7.662   1.223  0.2907  0.7437 -0.6060
15613SOL    HW251525   8.101   7.527   1.263 -1.0172 -0.0551 -1.4261
15614SOL     OW51526   4.915   8.257   9.995 -0.1561  0.1530  0.3448
15614SOL    HW151527   4.976   8.297   9.934 -1.0454  1.2316  0.1403
15614SOL    HW251528   4.936   8.295  10.080  0.2959 -0.4547  0.5146
15615SOL     OW51529   2.902   1.404   7.306 -0.3132  0.4124  0.1894
15615SOL    HW151530   2.859   1.386   7.223  1.0147  0.5901 -0.5458
15615SOL    HW251531   2.851   1.476   7.344 -0.0944  1.2607 -1.1016
15616SOL     OW51532   2.842   9.286  10.494  0.0080  0.5139  0.3748
15616SOL    HW151533   2.769   9.256  10.547 -2.3117  0.0363 -2.7865
15616SOL    HW251534   2.901   9.211  10.488 -1.3927 -0.5505 -0.4289
15617SOL     OW51535   9.250   7.038   2.732  0.1275 -0.2264 -0.2130
15617SOL    HW151536   9.219   7.117   2.777  0.5512 -0.4288  0.4547
15617SOL    HW251537   9.171   6.999   2.696 -0.0518  0.6538 -0.8105
15618SOL     OW51538   9.567   9.167  11.195  0.0782  0.0237  0.1404
15618SOL    HW151539   9.473   9.184  11.185 -0.6653 -2.4449  1.9824
15618SOL    HW251540   9.574   9.117  11.277  3.3147  2.2906  1.4674
15619SOL     OW51541  10.632  10.462   7.065 -0.1286  0.3613  0.3228
15619SOL    HW151542  10.589  10.546   7.079  0.0046  0.2741  1.2798
15619SOL    HW251543  10.725  10.480   7.083  0.0752  0.2613 -0.5586
15620SOL     OW51544   9.074   0.197  11.778  0.3736 -0.6773 -0.2370
15620SOL    HW151545   9.107   0.147  11.703 -0.0747  0.0512 -0.9447
15620SOL    HW251546   9.016   0.262  11.739  0.5186  0.0383  0.7113
15621SOL     OW51547   3.291   7.309   1.840 -0.3703  0.5752  0.4572
15621SOL    HW151548   3.198   7.320   1.822 -0.2799  1.7803  0.6392
15621SOL    HW251549   3.305   7.214   1.837 -1.4075  0.4259 -0.5035
15622SOL     OW51550   0.856   2.401   7.679  0.5221  0.4067 -0.0389
15622SOL    HW151551   0.819   2.313   7.679  2.3114 -0.3798 -1.4311
15622SOL    HW251552   0.896   2.410   7.766  1.9525 -0.9064 -0.5174
15623SOL     OW51553   6.875  11.429   6.309  0.1314 -0.1123 -0.2857
15623SOL    HW151554   6.783  11.453   6.307 -0.2468 -1.4565 -0.0171
15623SOL    HW251555   6.922  11.512   6.305 -1.0798  0.5674 -0.8758
15624SOL     OW51556   1.445   6.113  10.087 -0.2292  0.3482 -0.7274
15624SOL    HW151557   1.524   6.095  10.139 -1.7591 -0.2223  1.5468
15624SOL    HW251558   1.442   6.208  10.080 -0.7452  0.5723  1.6411
15625SOL     OW51559   4.138   6.096   7.378 -0.5759 -0.0522  0.7189
15625SOL    HW151560   4.095   6.177   7.406  1.3536  1.4539 -0.4680
15625SOL    HW251561   4.183   6.065   7.457  1.7900  2.1551  0.3384
15626SOL     OW51562  10.805   2.616   6.836  0.4731 -0.1778 -0.3138
15626SOL    HW151563  10.819   2.555   6.908  1.7543  0.4620  0.0017
15626SOL    HW251564  10.763   2.691   6.876  1.0793  0.1292 -0.2377
15627SOL     OW51565   2.369   1.594  10.939 -0.0943  0.3601 -0.4076
15627SOL    HW151566   2.367   1.563  10.848 -1.3739 -0.6536 -0.0622
15627SOL    HW251567   2.311   1.671  10.939  0.3926  0.7337 -0.5628
15628SOL     OW51568  11.777   0.733  10.755  0.6649  0.2511 -0.3096
15628SOL    HW151569  11.756   0.789  10.680  0.6156 -0.2084 -0.6482
15628SOL    HW251570  11.868   0.755  10.777 -0.0214  1.9628  0.9054
15629SOL     OW51571   6.538  10.996   1.753  0.4972 -0.2968  0.5726
15629SOL    HW151572   6.546  10.926   1.817 -0.0747 -1.5441 -0.6616
15629SOL    HW251573   6.628  11.014   1.725  0.7487  0.2484  1.6742
15630SOL     OW51574   8.192   4.521   8.021  0.9991 -0.5267  0.3640
15630SOL    HW151575   8.253   4.570   7.966 -1.2752  2.1772  0.0365
15630SOL    HW251576   8.118   4.501   7.963  1.0595 -2.8933  0.9871
15631SOL     OW51577  10.942   3.894  10.873  0.9243 -0.4960 -0.1764
15631SOL    HW151578  10.987   3.934  10.948 -0.1716 -0.8033  0.6696
15631SOL    HW251579  10.849   3.907  10.891  0.6458  0.0515 -1.8567
15632SOL     OW51580   4.789   1.250   9.520 -0.3309  0.7788 -0.2210
15632SOL    HW151581   4.813   1.335   9.557 -1.9640  0.8396  0.8395
15632SOL    HW251582   4.747   1.272   9.437 -1.4737  1.1091  0.4195
15633SOL     OW51583   3.422   3.967   7.037  0.5500  0.6645  0.6589
15633SOL    HW151584   3.415   3.941   7.129 -0.0585 -0.1660  0.4025
15633SOL    HW251585   3.443   3.885   6.991 -0.4608  0.7949 -0.0801
15634SOL     OW51586   7.829  11.915   1.490 -0.9352  0.0139  0.0650
15634SOL    HW151587   7.826  11.859   1.568 -0.4528  1.8639  1.4902
15634SOL    HW251588   7.914  11.897   1.451 -1.3355 -1.2093 -0.2711
15635SOL     OW51589   6.332   2.099   3.080  0.2521  0.0166  0.4853
15635SOL    HW151590   6.298   2.154   3.150 -1.7305 -0.1762 -0.2722
15635SOL    HW251591   6.427   2.114   3.082  0.2202  0.2509  2.9710
15636SOL     OW51592   7.401   9.637   9.397 -0.1627  0.3384  0.0473
15636SOL    HW151593   7.374   9.715   9.445 -1.1401  0.7390 -1.0863
15636SOL    HW251594   7.495   9.649   9.381 -0.5049  1.8581 -1.0701
15637SOL     OW51595   3.120   6.617  10.856 -0.5411  0.3638 -0.6362
15637SOL    HW151596   3.064   6.666  10.917  0.0398 -0.7737  0.8706
15637SOL    HW251597   3.118   6.669  10.775 -2.3019  1.2949 -0.0519
15638SOL     OW51598   9.335   4.807   8.996 -0.4508  0.0150  0.0600
15638SOL    HW151599   9.285   4.832   9.074 -0.1361 -1.5212  0.7847
15638SOL    HW251600   9.269   4.804   8.926 -1.0782 -0.3457  0.6484
15639SOL     OW51601   1.274   2.350   2.905  0.3720  0.0502 -0.2312
15639SOL    HW151602   1.313   2.396   2.831  2.2441 -0.3366  0.4649
15639SOL    HW251603   1.249   2.264   2.870  1.2868 -0.1459 -0.4377
15640SOL     OW51604   3.310   2.869   2.127  0.3126 -0.2052 -0.2200
15640SOL    HW151605   3.245   2.821   2.177  0.6538 -0.9411 -0.4646
15640SOL    HW251606   3.264   2.895   2.047 -0.6157  2.0826  0.9686
15641SOL     OW51607   0.383   9.906   8.850  0.4725  0.4580 -0.2930
15641SOL    HW151608   0.411   9.876   8.764  1.3433  0.1211  0.0883
15641SOL    HW251609   0.419   9.995   8.857 -0.2338  0.7702 -0.5624
15642SOL     OW51610   6.498   8.863   4.441 -0.0137 -0.5247  0.2386
15642SOL    HW151611   6.559   8.872   4.368  2.5595 -1.0781  2.1714
15642SOL    HW251612   6.467   8.772   4.436 -0.3475 -0.3765 -0.4882
15643SOL     OW51613   6.078  10.510   2.533  0.4123 -0.0107 -0.3939
15643SOL    HW151614   6.057  10.468   2.449 -0.0160  0.4649 -0.5315
15643SOL    HW251615   6.078  10.604   2.513 -0.4170  0.1481  0.2891
15644SOL     OW51616  10.231   4.370   8.317  0.1422  0.1445 -0.0082
15644SOL    HW151617  10.236   4.295   8.259  0.8805  0.0089  0.2158
15644SOL    HW251618  10.278   4.343   8.396  0.3881  0.8198  0.0894
15645SOL     OW51619  10.106  11.018   7.870 -0.6972  0.3429  0.4586
15645SOL    HW151620  10.019  11.031   7.831 -0.5226  1.7098  0.4657
15645SOL    HW251621  10.088  10.974   7.953 -1.4357  1.0572  0.6915
15646SOL     OW51622   2.296   9.552   8.569 -0.1498  0.4401  0.2893
15646SOL    HW151623   2.214   9.514   8.601  0.6400 -1.4508  0.2103
15646SOL    HW251624   2.363   9.489   8.594  1.2195  1.6222 -0.2328
15647SOL     OW51625   5.564   4.674   2.050  0.7114  0.0804  0.3765
15647SOL    HW151626   5.552   4.580   2.041  1.5413  0.0011 -0.0452
15647SOL    HW251627   5.592   4.685   2.141  0.1737 -0.0288  0.5561
15648SOL     OW51628  10.696  10.635   5.960 -0.6951  0.1698  0.6825
15648SOL    HW151629  10.760  10.652   5.891 -0.0612 -1.0715  0.9389
15648SOL    HW251630  10.666  10.722   5.986  0.9746  0.8047  0.6356
15649SOL     OW51631   5.839   0.655   7.382  0.1425 -0.3932  0.0264
15649SOL    HW151632   5.808   0.746   7.390  1.5926  0.2970 -1.5600
15649SOL    HW251633   5.896   0.656   7.305  0.2150 -2.6719 -0.0093
15650SOL     OW51634   0.196   5.610   6.372  0.0901 -0.0476  0.3882
15650SOL    HW151635   0.278   5.562   6.365  0.7309  1.2310 -1.6486
15650SOL    HW251636   0.128   5.545   6.351  0.8534 -0.3322 -1.3275
15651SOL     OW51637   1.903   6.525   1.286  0.2644 -0.3597  0.0189
15651SOL    HW151638   1.811   6.511   1.305 -0.0684 -0.9363 -1.7738
15651SOL    HW251639   1.949   6.505   1.368 -1.1112 -1.1043  0.6266
15652SOL     OW51640  10.968   0.777   7.904 -0.1265  0.0559  0.1323
15652SOL    HW151641  10.886   0.770   7.953  0.6420 -0.9284  1.3338
15652SOL    HW251642  11.028   0.716   7.948  1.0683  0.2929 -1.0974
15653SOL     OW51643   3.535   9.107   8.450  0.6749 -0.0118  0.5246
15653SOL    HW151644   3.626   9.126   8.471  0.6231 -0.4352  1.1567
15653SOL    HW251645   3.523   9.143   8.362  1.0563  1.2807  0.9841
15654SOL     OW51646   8.982   7.079   9.068  0.6568 -0.0783 -0.2288
15654SOL    HW151647   9.043   7.040   9.005  0.3699  0.3666 -0.7882
15654SOL    HW251648   9.033   7.086   9.149  0.7462 -1.5039 -0.1432
15655SOL     OW51649   3.943   4.037   9.562  0.1030 -0.8631 -0.0822
15655SOL    HW151650   3.942   4.114   9.505 -1.1026 -1.8019 -1.3879
15655SOL    HW251651   3.926   4.072   9.650  1.8774  0.5941 -0.2782
15656SOL     OW51652   4.257   0.164   6.607 -0.2313 -0.9783  0.4866
15656SOL    HW151653   4.234   0.144   6.517  0.0755  0.3248  0.0847
15656SOL    HW251654   4.179   0.207   6.643  0.1578 -0.1382  0.3563
15657SOL     OW51655   5.192   8.415   6.043 -0.0479  0.2259 -0.0165
15657SOL    HW151656   5.122   8.449   5.988 -0.2856  1.1187  0.8118
15657SOL    HW251657   5.148   8.353   6.102  0.2822 -1.0894 -1.1102
15658SOL     OW51658   8.629   5.052   0.071 -0.0358  0.3262 -0.7779
15658SOL    HW151659   8.657   5.014  -0.013  0.0448  1.0209 -1.0716
15658SOL    HW251660   8.634   5.147   0.057 -1.1336  0.4586 -0.3578
15659SOL     OW51661   9.793   3.390   8.178 -0.6980 -0.1596 -0.7620
15659SOL    HW151662   9.754   3.305   8.197 -0.8587 -0.0136 -0.4379
15659SOL    HW251663   9.887   3.372   8.170 -0.6625 -0.2726 -0.1288
15660SOL     OW51664   3.178   6.406   2.313  0.3734  0.7018  0.3319
15660SOL    HW151665   3.227   6.369   2.386  1.4567  1.2880 -0.0649
15660SOL    HW251666   3.212   6.361   2.236  0.6444  1.4517  0.0035
15661SOL     OW51667   1.692  10.719   5.292 -0.4755  0.2608  0.3656
15661SOL    HW151668   1.676  10.642   5.237 -1.0730  1.5612 -1.3773
15661SOL    HW251669   1.624  10.716   5.358 -1.0961 -0.1963 -0.2811
15662SOL     OW51670   0.787  10.464  11.211  0.1987  0.2066  0.1430
15662SOL    HW151671   0.874  10.436  11.182  0.6363 -0.1598  1.6885
15662SOL    HW251672   0.770  10.412  11.290 -2.0015 -0.6880 -0.8125
15663SOL     OW51673   5.357   7.538   5.146  0.5156 -0.0223 -0.1258
15663SOL    HW151674   5.440   7.584   5.157  1.2580 -1.2619 -0.3936
15663SOL    HW251675   5.378   7.464   5.089 -0.5565 -0.9581  0.6611
15664SOL     OW51676   5.227   3.354   8.568  0.0247 -0.6369 -0.7711
15664SOL    HW151677   5.185   3.309   8.495 -2.2129 -0.6526  0.4421
15664SOL    HW251678   5.243   3.443   8.536 -2.3145 -0.1923 -0.8852
15665SOL     OW51679   7.989  11.678   9.811 -0.1431 -0.7081  0.2861
15665SOL    HW151680   7.954  11.613   9.871 -1.1850  0.5931  1.1505
15665SOL    HW251681   7.990  11.635   9.725 -2.9289 -1.1807  0.4114
15666SOL     OW51682   9.779  11.709  11.327 -0.0486  0.0622 -0.4529
15666SOL    HW151683   9.813  11.647  11.391 -0.4539 -2.2256 -2.3047
15666SOL    HW251684   9.856  11.752  11.291  0.2865  0.2364  0.4559
15667SOL     OW51685   7.965   9.023   9.042  0.3687  0.0389  0.3575
15667SOL    HW151686   7.890   9.033   9.100  0.7422  0.6804  0.7429
15667SOL    HW251687   7.936   9.063   8.960  0.1872  0.0206  0.4108
15668SOL     OW51688   0.647   9.084   9.218 -0.5453 -0.5443 -0.4820
15668SOL    HW151689   0.582   9.133   9.168 -0.8892 -0.6859 -0.1822
15668SOL    HW251690   0.727   9.135   9.211 -0.5339 -0.6741 -1.3512
15669SOL     OW51691   8.836   5.886   1.824  0.1453  0.5630 -0.4936
15669SOL    HW151692   8.901   5.944   1.865 -0.9423  1.2075  0.3687
15669SOL    HW251693   8.873   5.867   1.738  1.7072  0.5175  0.1489
15670SOL     OW51694  10.013   7.880   2.918 -0.2006 -0.1302  0.3764
15670SOL    HW151695  10.075   7.952   2.902 -0.5576  0.1666  0.3309
15670SOL    HW251696  10.069   7.802   2.922  0.2744  0.2270  1.1045
15671SOL     OW51697   3.014   4.952   3.365  0.2670 -0.1200 -0.2000
15671SOL    HW151698   3.023   4.881   3.302 -1.2876 -0.0603 -0.5215
15671SOL    HW251699   3.004   5.031   3.311 -1.0206 -0.0633  0.0922
15672SOL     OW51700  10.244   4.339  11.966  0.5147  0.1916  0.3386
15672SOL    HW151701  10.310   4.365  11.902  0.1931 -1.3395 -0.6754
15672SOL    HW251702  10.178   4.408  11.962  0.4832  0.1078 -1.0375
15673SOL     OW51703  11.359   8.559   5.694 -0.1355  0.4846 -0.2487
15673SOL    HW151704  11.412   8.479   5.694  0.1898  0.6672 -2.1405
15673SOL    HW251705  11.400   8.614   5.761 -0.4213 -0.9168  1.1551
15674SOL     OW51706  10.853   5.506   0.563 -0.2993 -0.0811 -0.7972
15674SOL    HW151707  10.794   5.573   0.530 -1.8792 -1.2826 -0.5657
15674SOL    HW251708  10.864   5.445   0.489 -1.5131 -1.2413 -0.0701
15675SOL     OW51709  10.983   1.164   8.540  0.2246 -0.2598 -0.1777
15675SOL    HW151710  10.978   1.135   8.631 -1.5756 -1.4741 -0.6018
15675SOL    HW251711  11.076   1.161   8.519  0.5162 -1.5880  1.1377
15676SOL     OW51712   2.272   2.073   2.601  0.2731  0.4936 -0.9349
15676SOL    HW151713   2.310   2.103   2.518  0.3820 -3.0497 -2.3214
15676SOL    HW251714   2.227   1.992   2.579  0.8574 -0.9654  2.6049
15677SOL     OW51715  10.840   4.079   5.973 -0.3532 -0.0964 -0.5906
15677SOL    HW151716  10.873   4.025   6.044  0.3462 -0.9104 -1.5128
15677SOL    HW251717  10.808   4.159   6.016 -1.3250 -1.1817  0.7705
15678SOL     OW51718  10.026   5.925  11.530 -0.3692  0.0537 -0.0374
15678SOL    HW151719  10.102   5.868  11.516 -0.3641  0.0490  0.0095
15678SOL    HW251720   9.955   5.865  11.550 -0.1686  0.1030  0.8781
15679SOL     OW51721  10.670   6.098   1.462 -0.3901  0.9839  0.0152
15679SOL    HW151722  10.647   6.018   1.415  1.4138  0.3961  0.0391
15679SOL    HW251723  10.649   6.079   1.553  3.4395 -1.0449  0.6839
15680SOL     OW51724   6.703   5.780   9.133  0.0282  0.2651  0.1928
15680SOL    HW151725   6.705   5.712   9.066  0.5363  1.1675 -0.7419
15680SOL    HW251726   6.732   5.859   9.088 -0.6162  1.1267  1.2278
15681SOL     OW51727  10.098   2.918   2.812 -0.2042  0.2925 -0.0359
15681SOL    HW151728  10.166   2.985   2.805  0.6561 -0.5636 -0.1303
15681SOL    HW251729  10.030   2.945   2.751  0.0895  1.1167 -0.0078
15682SOL     OW51730   3.435  10.913   9.065  0.2239 -0.3526 -0.1088
15682SOL    HW151731   3.508  10.906   9.003 -0.6150 -0.5151 -1.1145
15682SOL    HW251732   3.446  11.000   9.105  0.4397  0.0128 -0.9356
15683SOL     OW51733   2.538   9.902   5.315  0.1690 -0.1236 -0.3643
15683SOL    HW151734   2.521   9.851   5.236 -1.1407 -0.8793  0.3613
15683SOL    HW251735   2.500   9.850   5.386  1.3105  0.5262  0.7805
15684SOL     OW51736   1.249   3.302   3.518  0.1894 -0.2136  0.4899
15684SOL    HW151737   1.272   3.386   3.478 -0.1516 -0.7611 -0.9274
15684SOL    HW251738   1.325   3.280   3.572  0.4567  0.8003  0.5556
15685SOL     OW51739   7.415   2.953   3.805 -0.6235 -0.1747 -1.0115
15685SOL    HW151740   7.480   2.897   3.763 -0.0825 -0.1131 -0.2579
15685SOL    HW251741   7.415   3.033   3.752  1.0800  0.4742 -0.1024
15686SOL     OW51742   3.930   0.257   2.767 -0.4005 -0.3538  0.1920
15686SOL    HW151743   4.011   0.288   2.726  0.0413 -1.9771 -0.2237
15686SOL    HW251744   3.865   0.324   2.743  0.9510  1.4330  1.2552
15687SOL     OW51745   5.373   0.083   4.126  0.4030  0.2367 -0.0437
15687SOL    HW151746   5.406   0.039   4.048  0.9049 -1.4479  1.0534
15687SOL    HW251747   5.433   0.156   4.140 -0.7404  1.6603 -2.1984
15688SOL     OW51748   9.154   2.612   6.461  0.9015 -0.8597  0.1378
15688SOL    HW151749   9.127   2.616   6.553  0.3579  0.5113 -0.0474
15688SOL    HW251750   9.072   2.612   6.412  1.1900 -0.3225 -0.3642
15689SOL     OW51751  11.090   0.987  10.166 -0.3064  0.0779  0.2174
15689SOL    HW151752  11.085   0.903  10.120  0.4583  0.3917 -0.4693
15689SOL    HW251753  10.999   1.010  10.184 -0.6227 -0.1051 -1.0759
15690SOL     OW51754   8.188   1.927   9.602 -0.3017 -0.4715 -0.1690
15690SOL    HW151755   8.204   1.965   9.515  1.3495 -1.0028 -0.1336
15690SOL    HW251756   8.125   1.857   9.586  1.6410 -2.0566 -1.3877
15691SOL     OW51757   9.535   0.631   8.129 -0.2382 -0.5131 -0.0058
15691SOL    HW151758   9.538   0.703   8.192  0.4602 -0.2754 -0.2963
15691SOL    HW251759   9.551   0.673   8.044  0.0099 -0.9876 -0.1970
15692SOL     OW51760   3.056  10.122   3.872  0.4025 -0.0143 -0.0981
15692SOL    HW151761   2.987  10.180   3.842  0.5579 -0.4585 -1.3488
15692SOL    HW251762   3.022  10.084   3.953 -0.5874  0.1865 -0.4110
15693SOL     OW51763   2.578   3.112   8.346 -0.2524 -0.0332 -0.9359
15693SOL    HW151764   2.539   3.076   8.266  0.8511  1.0645 -2.0085
15693SOL    HW251765   2.555   3.205   8.344  0.7951  0.2426 -0.6045
15694SOL     OW51766   9.722   8.875   9.836  0.6146  0.0785 -0.1816
15694SOL    HW151767   9.753   8.955   9.878 -0.3283  0.2622  0.1805
15694SOL    HW251768   9.793   8.812   9.849  0.7982  0.4571  0.7370
15695SOL     OW51769   4.711   1.631   3.786 -0.2868  0.6684  0.2352
15695SOL    HW151770   4.777   1.583   3.737  1.4288  4.8064 -1.9821
15695SOL    HW251771   4.628   1.588   3.764  1.2242 -2.9829  0.9420
15696SOL     OW51772  11.228   4.315   2.542  0.1155 -0.1267 -0.0917
15696SOL    HW151773  11.202   4.234   2.585  0.1500 -0.5125 -0.7870
15696SOL    HW251774  11.171   4.382   2.580 -0.9061 -0.7167 -0.5404
15697SOL     OW51775  11.676  10.948   8.552  0.0787 -0.2309  0.2237
15697SOL    HW151776  11.700  10.981   8.465 -1.1846 -0.8132 -0.3765
15697SOL    HW251777  11.677  11.025   8.608  0.6537  0.2004 -0.3575
15698SOL     OW51778   1.228   9.489   8.607  0.9019 -0.1741  0.0585
15698SOL    HW151779   1.195   9.456   8.524  0.6129  0.1228  0.0515
15698SOL    HW251780   1.192   9.578   8.613  0.3950 -0.4262  0.8031
15699SOL     OW51781   0.503  11.713   7.906  0.1005 -0.3032  0.1201
15699SOL    HW151782   0.596  11.691   7.895  1.2171  3.6334 -0.0587
15699SOL    HW251783   0.481  11.678   7.992  1.5777 -1.7870 -0.0507
15700SOL     OW51784  11.005   1.044   1.340 -0.0658 -0.4904  0.6762
15700SOL    HW151785  11.085   1.069   1.386 -0.2622 -0.7401  1.1523
15700SOL    HW251786  10.941   1.028   1.409 -1.0991  1.5624  0.2820
15701SOL     OW51787   3.082   2.033   0.846  0.5246  0.3717  0.1866
15701SOL    HW151788   2.995   2.071   0.857 -0.6055 -2.0433  0.3631
15701SOL    HW251789   3.094   2.027   0.751  0.9885  1.6879  0.1513
15702SOL     OW51790   5.453   4.054   0.239  0.2704  0.5407  0.1768
15702SOL    HW151791   5.427   4.098   0.158  1.3880 -2.5540 -2.0753
15702SOL    HW251792   5.375   4.006   0.266  0.4194  0.1160 -0.1408
15703SOL     OW51793  10.372   2.517   2.021 -0.2992 -0.1881 -0.4166
15703SOL    HW151794  10.394   2.492   2.111 -3.3117 -0.4315  0.3563
15703SOL    HW251795  10.286   2.479   2.006 -0.7806  1.5792 -2.6880
15704SOL     OW51796   1.077   0.650   4.111 -0.4346 -0.0940  0.1061
15704SOL    HW151797   1.092   0.570   4.061  0.0174 -0.5545  0.9691
15704SOL    HW251798   1.066   0.621   4.201 -3.3415  0.4858  0.0646
15705SOL     OW51799   5.800  11.096   2.531 -0.2286 -0.1845  0.5455
15705SOL    HW151800   5.796  11.109   2.436 -0.9902 -0.2681  0.5650
15705SOL    HW251801   5.882  11.139   2.557 -0.6527  0.9802  0.0292
15706SOL     OW51802   3.551  11.339  11.586 -0.7953 -0.1363 -0.3920
15706SOL    HW151803   3.570  11.412  11.646  1.6828  0.7671 -2.1174
15706SOL    HW251804   3.457  11.325  11.596 -1.6384  3.9507 -0.6010
15707SOL     OW51805   7.886   9.890   3.077  0.3034  0.0380 -0.1186
15707SOL    HW151806   7.933   9.931   3.150  0.6609 -0.6728  0.0555
15707SOL    HW251807   7.913   9.939   3.000  2.3069 -1.1201 -0.2119
15708SOL     OW51808   2.241   9.466   7.559 -0.1848  0.0007 -0.2090
15708SOL    HW151809   2.300   9.460   7.484  0.2682  1.0818  0.0451
15708SOL    HW251810   2.167   9.410   7.535  0.7141 -1.0159 -0.7265
15709SOL     OW51811   6.279   2.061   7.127  0.4985  0.2893  0.2650
15709SOL    HW151812   6.230   2.038   7.205  1.3724  1.3189  1.1557
15709SOL    HW251813   6.255   1.994   7.062 -1.6668  0.4852  0.7899
15710SOL     OW51814   5.848   5.673   1.558  0.1125 -0.1022 -0.1022
15710SOL    HW151815   5.872   5.582   1.575  0.3946 -0.0753 -0.3474
15710SOL    HW251816   5.856   5.682   1.463 -0.5099  0.0113 -0.1471
15711SOL     OW51817   9.346   2.703   7.772  0.0776  0.0814  0.1454
15711SOL    HW151818   9.251   2.707   7.761  0.0680 -0.3881 -0.0156
15711SOL    HW251819   9.363   2.611   7.794  0.4638  0.2325  0.4892
15712SOL     OW51820   4.748   4.885   7.797  0.1417  0.3313  0.6040
15712SOL    HW151821   4.774   4.977   7.795 -0.5947  0.5481 -1.2340
15712SOL    HW251822   4.653   4.887   7.786  0.2786 -0.6564 -1.0829
15713SOL     OW51823   7.925   4.200   2.529 -0.2539 -0.1130 -0.2118
15713SOL    HW151824   7.881   4.285   2.525 -0.7296 -0.3215  0.3509
15713SOL    HW251825   7.869   4.142   2.478  1.0513  0.2948 -2.2114
15714SOL     OW51826  10.163  10.360   8.137  0.4001 -0.4789 -0.1377
15714SOL    HW151827  10.092  10.416   8.105  0.8943  0.1093 -0.2226
15714SOL    HW251828  10.240  10.417   8.138  0.8033 -1.0201  0.2684
15715SOL     OW51829  10.418   3.336   6.699  0.7907  0.0394  0.4829
15715SOL    HW151830  10.412   3.381   6.615  4.0948  1.2258  0.7219
15715SOL    HW251831  10.334   3.353   6.742 -0.5820  0.2528 -2.1222
15716SOL     OW51832  11.303   7.277   6.423 -0.3252  0.7444  0.1621
15716SOL    HW151833  11.398   7.279   6.434  0.0323 -0.8369 -1.9724
15716SOL    HW251834  11.274   7.208   6.482 -0.0688  0.8162  0.3773
15717SOL     OW51835   1.292   6.800   2.215  0.7070  0.0829 -0.0140
15717SOL    HW151836   1.378   6.811   2.256  1.1478  0.6517 -1.0628
15717SOL    HW251837   1.251   6.886   2.222 -0.3137 -0.4752  1.5813
15718SOL     OW51838   0.747   7.786   8.258  0.6961 -0.0841  0.0843
15718SOL    HW151839   0.770   7.770   8.349 -1.2660 -1.7033  0.3640
15718SOL    HW251840   0.686   7.860   8.261 -1.1492 -1.5560  0.4022
15719SOL     OW51841   7.458  11.079   7.426  0.6189 -0.0789 -0.7743
15719SOL    HW151842   7.379  11.071   7.373  0.2303 -1.3581 -0.0479
15719SOL    HW251843   7.519  11.128   7.371 -1.2382  2.5415 -0.6781
15720SOL     OW51844  11.421   0.384   4.032  0.3220 -0.3584  0.4146
15720SOL    HW151845  11.440   0.291   4.039  0.6004 -0.3949 -0.6494
15720SOL    HW251846  11.498   0.427   4.071  0.4668 -0.5693  0.3626
15721SOL     OW51847  11.282   9.177  11.487  0.1767  0.1000  0.3947
15721SOL    HW151848  11.307   9.096  11.444 -1.4616  0.1121 -0.6685
15721SOL    HW251849  11.228   9.223  11.423  0.8292  1.9183  1.0795
15722SOL     OW51850  11.175   5.418  11.825 -1.0180 -0.1451  0.0624
15722SOL    HW151851  11.196   5.420  11.918 -0.0069 -0.3218 -0.1400
15722SOL    HW251852  11.206   5.502  11.791 -0.2680 -0.5535 -0.3115
15723SOL     OW51853   8.658   4.995  11.801  0.4141  0.3246  0.2046
15723SOL    HW151854   8.731   4.938  11.777 -0.0372 -0.1185 -0.1346
15723SOL    HW251855   8.671   5.074  11.748  0.4193  0.0791 -0.1648
15724SOL     OW51856   3.326   4.174  10.808 -0.7941 -0.1380 -0.1975
15724SOL    HW151857   3.310   4.256  10.761  1.4514  1.4738  1.6051
15724SOL    HW251858   3.402   4.136  10.764 -0.6856 -0.2665  0.0965
15725SOL     OW51859   1.058   5.106   7.431  0.2933  0.0324  0.2970
15725SOL    HW151860   1.014   5.024   7.407  1.4812  0.0129 -2.0398
15725SOL    HW251861   1.146   5.079   7.458  0.2545  0.4406  0.8474
15726SOL     OW51862   7.816   1.312   9.833 -0.6150 -0.0572  0.1616
15726SOL    HW151863   7.817   1.221   9.803  1.9809  0.1717 -0.7069
15726SOL    HW251864   7.800   1.306   9.927  0.6053 -1.5248  0.3064
15727SOL     OW51865   3.033  11.616   7.291 -0.3597  0.2241  0.4407
15727SOL    HW151866   3.032  11.581   7.380 -0.0255 -1.1182 -0.0627
15727SOL    HW251867   3.059  11.542   7.236  1.4877  1.5386 -0.5571
15728SOL     OW51868   4.584   2.322   5.812  0.0099  0.2731  0.1375
15728SOL    HW151869   4.536   2.249   5.772 -0.2927 -0.3084  1.5055
15728SOL    HW251870   4.650   2.279   5.867 -0.7936  0.9796  1.7308
15729SOL     OW51871   6.119  11.284   9.427  0.4142  0.0128 -0.6517
15729SOL    HW151872   6.154  11.291   9.516 -1.2770 -2.3966  0.3001
15729SOL    HW251873   6.028  11.312   9.435  0.1320 -0.6321 -1.5500
15730SOL     OW51874   6.372   1.484   1.042  0.5884  0.3695 -0.2756
15730SOL    HW151875   6.433   1.430   0.992  2.1336  0.3403  1.5452
15730SOL    HW251876   6.370   1.568   0.996  2.3785  0.5251 -0.1400
15731SOL     OW51877   4.649   3.126  10.618 -0.4348 -0.1164  0.3623
15731SOL    HW151878   4.585   3.184  10.659  0.0938  0.7033  0.0650
15731SOL    HW251879   4.679   3.175  10.541 -1.3188 -1.5591 -0.9502
15732SOL     OW51880   2.373   6.935   8.156  0.2061 -0.2118  0.5498
15732SOL    HW151881   2.316   6.966   8.225  1.0758 -0.4401  1.3876
15732SOL    HW251882   2.396   7.013   8.106  0.3084  0.1002  1.0814
15733SOL     OW51883   3.031   6.795   9.004  0.0247 -0.6157 -0.5629
15733SOL    HW151884   3.018   6.877   9.052  1.6233  0.0290 -1.1492
15733SOL    HW251885   2.970   6.733   9.044 -0.4213  0.5572  0.6382
15734SOL     OW51886   1.877   8.519   2.250  0.2718 -0.5549  0.6758
15734SOL    HW151887   1.885   8.573   2.328 -0.1784 -0.6351  0.7852
15734SOL    HW251888   1.863   8.581   2.179 -0.0826 -0.5182  0.7763
15735SOL     OW51889   7.343   9.683   9.695 -0.2447  0.1638  0.4546
15735SOL    HW151890   7.373   9.773   9.708 -1.6567  0.5458  1.2732
15735SOL    HW251891   7.421   9.630   9.710  1.2526  1.3275 -2.5310
15736SOL     OW51892   2.295   8.416   9.280  0.3988 -0.2383 -0.0022
15736SOL    HW151893   2.304   8.342   9.340 -1.4719 -0.9100 -0.5115
15736SOL    HW251894   2.212   8.456   9.303  0.8290  1.0175 -0.5300
15737SOL     OW51895   6.896   0.564   5.310 -0.1424  0.3083 -0.6141
15737SOL    HW151896   6.892   0.481   5.356  1.2026  0.4543 -0.2095
15737SOL    HW251897   6.846   0.624   5.366  0.2564  0.1441 -0.0668
15738SOL     OW51898  10.309   3.242   9.515  0.4732 -0.6264 -0.4708
15738SOL    HW151899  10.257   3.303   9.462 -0.8955 -1.1221  0.2572
15738SOL    HW251900  10.395   3.284   9.521 -0.4686  1.3419  0.1551
15739SOL     OW51901   7.344  11.780  11.034 -0.0044 -0.1156 -0.4849
15739SOL    HW151902   7.363  11.702  11.087  1.5726 -1.5643 -3.0121
15739SOL    HW251903   7.427  11.828  11.032 -0.5288  0.8292 -0.2805
15740SOL     OW51904   2.319   2.014   3.549 -0.3746  0.6064  0.4218
15740SOL    HW151905   2.362   2.052   3.473  0.7033 -1.6360 -0.1689
15740SOL    HW251906   2.291   1.927   3.521 -0.8451  0.0978  2.2933
15741SOL     OW51907   5.272   1.942   7.427 -0.3095  0.3831 -0.4241
15741SOL    HW151908   5.218   1.870   7.460 -0.4931  0.7267  0.0370
15741SOL    HW251909   5.334   1.900   7.367  0.4455 -0.3480  0.8364
15742SOL     OW51910   9.278   4.299  11.702  0.0165  0.0009 -0.4103
15742SOL    HW151911   9.243   4.242  11.771 -1.7607  1.3280 -0.1506
15742SOL    HW251912   9.307   4.377  11.749  0.9773 -0.0385 -0.9266
15743SOL     OW51913   3.220   3.073   1.578 -0.1616 -0.3167 -0.4045
15743SOL    HW151914   3.151   3.053   1.515  0.6787 -2.9408 -0.6041
15743SOL    HW251915   3.298   3.090   1.524 -0.1403  0.6034 -0.1162
15744SOL     OW51916   5.526   5.792   0.267 -0.9455  0.3957  0.0295
15744SOL    HW151917   5.551   5.878   0.234 -1.7484  0.0260 -1.6684
15744SOL    HW251918   5.434   5.802   0.293 -1.3010 -0.1348 -0.9718
15745SOL     OW51919   0.692   1.044   8.819 -0.1320  0.1611 -0.4965
15745SOL    HW151920   0.711   1.133   8.789  0.2340 -0.3764 -1.9309
15745SOL    HW251921   0.597   1.037   8.813 -0.2489  0.7023  0.4171
15746SOL     OW51922   7.860   9.631   0.105  0.4113 -0.0533  0.0341
15746SOL    HW151923   7.929   9.689   0.139 -0.4973  1.0413  0.1003
15746SOL    HW251924   7.873   9.631   0.010  0.6255 -0.0135  0.0630
15747SOL     OW51925   8.022   6.984   6.662 -0.3708 -0.6235 -0.4084
15747SOL    HW151926   8.000   6.974   6.569  0.7496 -0.7464 -0.6673
15747SOL    HW251927   7.953   7.041   6.696  0.0280  0.6892 -1.6628
15748SOL     OW51928   8.514   8.060   4.265 -0.1287  0.1635 -0.4950
15748SOL    HW151929   8.558   8.059   4.350  0.0642 -0.5159 -0.5933
15748SOL    HW251930   8.561   7.995   4.213 -0.8240 -0.0971 -0.8173
15749SOL     OW51931  11.494   5.503   4.010 -0.1353  0.0677  0.6185
15749SOL    HW151932  11.501   5.469   3.920 -0.2341  1.1646  0.1839
15749SOL    HW251933  11.455   5.430   4.059  1.2524 -1.0786  0.1093
15750SOL     OW51934  11.297   8.611   1.473 -0.5413 -0.7538 -0.2714
15750SOL    HW151935  11.342   8.617   1.388  0.0660  2.0419  0.1219
15750SOL    HW251936  11.296   8.518   1.494  0.5572 -1.3788 -2.6883
15751SOL     OW51937   9.628  10.529   2.528  0.0472  0.6789  0.0284
15751SOL    HW151938   9.535  10.535   2.548 -0.3015 -0.2287 -1.2225
15751SOL    HW251939   9.663  10.470   2.595 -0.7576 -0.9124 -0.9124
15752SOL     OW51940   9.825   4.968   4.883 -0.1498 -0.4263 -0.4668
15752SOL    HW151941   9.845   4.952   4.975  1.1477 -0.1949 -0.6877
15752SOL    HW251942   9.738   4.929   4.870 -2.1605  2.8125  1.7696
15753SOL     OW51943   5.056   1.587   5.076  0.1515  0.0565 -0.3219
15753SOL    HW151944   5.039   1.495   5.092 -1.2392  0.3188 -0.1565
15753SOL    HW251945   5.010   1.633   5.146  2.8104  0.8321  1.0660
15754SOL     OW51946   3.495   7.695   4.958  0.3349 -0.1709  0.2028
15754SOL    HW151947   3.572   7.749   4.972  1.0297 -1.5460  2.1452
15754SOL    HW251948   3.421   7.751   4.981  1.0090  0.1363  1.7331
15755SOL     OW51949   1.764   8.190   0.174 -0.6965 -0.2273 -0.8339
15755SOL    HW151950   1.693   8.153   0.226 -0.9610  1.4779  0.1016
15755SOL    HW251951   1.843   8.144   0.203 -1.0643 -0.3530 -0.0084
15756SOL     OW51952   9.502   2.942  10.272  0.3633 -0.0811  0.2678
15756SOL    HW151953   9.544   2.881  10.210  0.7495 -0.6359  1.0526
15756SOL    HW251954   9.574   2.978  10.323  0.0633  0.4937  0.2953
15757SOL     OW51955   5.343   2.063   8.101 -0.7817 -0.5199  0.5296
15757SOL    HW151956   5.301   1.982   8.075  1.2659 -1.1920 -0.9516
15757SOL    HW251957   5.289   2.132   8.064 -1.8072 -1.2455  0.6535
15758SOL     OW51958  10.752   1.001  11.591 -0.5999 -0.2911 -0.9075
15758SOL    HW151959  10.809   1.078  11.595  0.2971 -0.8723 -1.8157
15758SOL    HW251960  10.693   1.010  11.666  1.6514 -0.4264  0.9901
15759SOL     OW51961  11.655   5.320   2.407  0.0979  0.0603  0.0838
15759SOL    HW151962  11.750   5.335   2.409  0.0437  0.3517  1.1045
15759SOL    HW251963  11.643   5.239   2.455 -0.2345  0.4016  0.5750
15760SOL     OW51964   1.908   5.334   5.276  0.0209 -0.1517  0.6582
15760SOL    HW151965   1.975   5.293   5.221  1.2007  0.3162  1.6919
15760SOL    HW251966   1.943   5.421   5.296 -0.1127 -0.4809  2.5283
15761SOL     OW51967   2.405   4.650   9.482  0.4617  0.3993  0.5101
15761SOL    HW151968   2.334   4.676   9.541  0.3888 -0.1540  0.6705
15761SOL    HW251969   2.458   4.590   9.534  2.7248  3.0085  1.4199
15762SOL     OW51970   9.176  10.945   3.120 -0.0051  0.2665 -0.0236
15762SOL    HW151971   9.203  10.859   3.151  0.8503  0.6866  0.4313
15762SOL    HW251972   9.112  10.927   3.050 -0.1380 -0.7175  0.3423
15763SOL     OW51973   3.058   7.978   3.108 -0.0453 -0.3525  0.5978
15763SOL    HW151974   2.985   8.010   3.055  0.0205  0.6347  1.0650
15763SOL    HW251975   3.079   7.893   3.072 -0.8040 -0.2325 -0.1608
15764SOL     OW51976   9.369   1.401  10.412 -0.0323  0.7678 -0.5939
15764SOL    HW151977   9.419   1.482  10.418  1.8207 -0.3502 -0.0003
15764SOL    HW251978   9.397   1.361  10.329 -0.1008  0.2361 -0.3688
15765SOL     OW51979   5.459   8.940   1.786 -0.4804  0.1016  0.5473
15765SOL    HW151980   5.479   9.011   1.724  1.3082 -0.8493 -0.0460
15765SOL    HW251981   5.421   8.871   1.731  2.2598 -1.2426  0.1411
15766SOL     OW51982   5.080  11.028   3.543 -0.3951  0.1012  0.5045
15766SOL    HW151983   5.019  10.979   3.598 -0.8092  1.9405  1.7673
15766SOL    HW251984   5.139  11.071   3.605  1.5484 -0.7950 -0.6582
15767SOL     OW51985   0.266   6.052   3.310  0.0201 -0.2134  0.1956
15767SOL    HW151986   0.198   6.118   3.323 -0.3339 -0.5765  0.2395
15767SOL    HW251987   0.300   6.033   3.397 -0.9129 -1.1510  0.3845
15768SOL     OW51988  10.962   5.198   3.501  0.3957 -0.7428 -0.8083
15768SOL    HW151989  10.946   5.274   3.446  0.2133  0.9662  1.4583
15768SOL    HW251990  10.879   5.151   3.501 -0.2032  0.2736 -0.5273
15769SOL     OW51991   9.355  11.839   1.237 -0.1444  0.3190  0.3691
15769SOL    HW151992   9.449  11.846   1.226 -0.3621  1.2147 -1.3894
15769SOL    HW251993   9.330  11.918   1.285 -0.2243  1.2859 -1.1926
15770SOL     OW51994   7.309  11.926   1.958 -0.2483  0.0803 -0.1895
15770SOL    HW151995   7.326  11.909   1.865  1.4809  0.3419  0.0340
15770SOL    HW251996   7.344  12.014   1.972 -1.1570  0.3364  0.5663
15771SOL     OW51997  11.147   3.054   1.087 -0.2123  0.2126 -0.5653
15771SOL    HW151998  11.112   2.970   1.056 -0.5539  0.3661 -0.6028
15771SOL    HW251999  11.138   3.112   1.011  0.3865  0.1828 -0.6639
15772SOL     OW52000   8.071   0.942   4.938  0.3450  0.4633  0.1933
15772SOL    HW152001   8.116   0.930   5.021 -1.1635  0.5233  1.0665
15772SOL    HW252002   8.011   0.867   4.932  0.2995  0.5591 -0.7492
15773SOL     OW52003   1.608  11.967  10.345 -0.1947  0.3309 -0.2149
15773SOL    HW152004   1.691  11.951  10.299  0.4074  0.9404  0.6430
15773SOL    HW252005   1.628  12.035  10.409 -1.0309 -0.4831  0.9421
15774SOL     OW52006  11.539  10.690   5.457  0.1378  0.7546  0.4518
15774SOL    HW152007  11.597  10.764   5.440  0.9618 -0.1673 -0.9526
15774SOL    HW252008  11.523  10.652   5.370 -1.3192  0.0630  0.9991
15775SOL     OW52009   8.877   4.143  11.383  0.1125  0.3598  0.4106
15775SOL    HW152010   8.929   4.221  11.362 -0.2907  0.2512 -1.0531
15775SOL    HW252011   8.806   4.143  11.320 -1.1503 -0.0372  1.7674
15776SOL     OW52012   6.770   2.589  11.828  0.3653  0.8638  0.3515
15776SOL    HW152013   6.844   2.562  11.774 -0.6341 -0.6443 -0.3277
15776SOL    HW252014   6.702   2.612  11.765 -1.2095 -1.9829  0.8421
15777SOL     OW52015   2.834   0.614  11.753 -0.1271  0.4071 -0.5280
15777SOL    HW152016   2.767   0.683  11.756  0.9295  1.4984 -1.3395
15777SOL    HW252017   2.916   0.661  11.741  0.7961 -0.9295  0.3570
15778SOL     OW52018   5.063   1.859   8.253  0.3144  0.0026 -0.5079
15778SOL    HW152019   5.013   1.931   8.292 -1.3008 -1.5357  0.4344
15778SOL    HW252020   5.040   1.860   8.160 -3.6827 -2.1545  0.2363
15779SOL     OW52021  11.387   0.428   6.649  0.1944  0.2950  0.0270
15779SOL    HW152022  11.297   0.397   6.656  0.1073  0.4886 -0.2191
15779SOL    HW252023  11.438   0.365   6.701 -0.0152 -0.0956 -0.2316
15780SOL     OW52024   4.683   1.585   7.831  0.2187 -0.1551 -0.0610
15780SOL    HW152025   4.650   1.634   7.755 -0.0984  1.3009  0.9568
15780SOL    HW252026   4.759   1.635   7.860 -0.8177  0.4975  1.7297
15781SOL     OW52027   1.305  10.594  10.398  0.2156 -0.2495  0.1395
15781SOL    HW152028   1.303  10.595  10.494  1.5442  0.4127  0.1886
15781SOL    HW252029   1.258  10.674  10.372  0.6132  0.0369  0.2814
15782SOL     OW52030   6.808   0.284  11.616 -0.3329 -0.0837  0.4472
15782SOL    HW152031   6.766   0.228  11.551 -0.1649 -0.6514  0.8203
15782SOL    HW252032   6.889   0.238  11.638 -0.4835  0.0022  1.2043
15783SOL     OW52033   4.232   5.113  11.444 -0.1797 -0.3682 -0.9094
15783SOL    HW152034   4.200   5.059  11.372 -2.1886  0.2233 -0.5148
15783SOL    HW252035   4.169   5.185  11.450  0.7597  0.3766  0.5045
15784SOL     OW52036   9.638  10.303   9.157 -0.1720 -0.0332  0.7840
15784SOL    HW152037   9.649  10.341   9.244 -0.4027  0.8575  0.4422
15784SOL    HW252038   9.570  10.357   9.116  0.0195 -0.3594  0.0106
15785SOL     OW52039   8.311   8.277  11.473 -0.4370  0.0477 -0.4797
15785SOL    HW152040   8.277   8.365  11.461  0.8766  0.7032  0.3645
15785SOL    HW252041   8.235   8.220  11.462 -1.0528  1.1516 -2.4613
15786SOL     OW52042  11.929   1.975   8.522  0.0382  0.3221 -0.2892
15786SOL    HW152043  11.974   2.053   8.554  0.0471  0.7126 -1.2281
15786SOL    HW252044  11.994   1.906   8.528  0.0685  0.4036  0.4347
15787SOL     OW52045   2.051   0.527   5.336 -0.1707 -0.1184  0.0948
15787SOL    HW152046   2.046   0.475   5.416 -0.8380 -0.8520 -0.4078
15787SOL    HW252047   2.100   0.605   5.361 -0.5580 -0.2350  1.2743
15788SOL     OW52048   0.859   3.133   0.052 -0.1561  0.4913  0.0440
15788SOL    HW152049   0.902   3.118   0.136  0.3997  0.9748 -0.1496
15788SOL    HW252050   0.795   3.062   0.045  1.5588 -1.1102 -0.3160
15789SOL     OW52051  11.191   8.187   3.048 -0.4004 -0.3598 -0.1362
15789SOL    HW152052  11.221   8.152   2.964  2.1046 -2.5890  1.4900
15789SOL    HW252053  11.266   8.236   3.081 -1.3667  0.5369  0.7922
15790SOL     OW52054   6.208   3.548  11.080  0.1559 -0.8275  0.2755
15790SOL    HW152055   6.137   3.490  11.053 -1.0453  1.2424 -1.2505
15790SOL    HW252056   6.170   3.604  11.148  1.3150 -1.7620  1.7708
15791SOL     OW52057   5.557   0.898   4.315 -0.7110  0.0209 -0.6858
15791SOL    HW152058   5.530   0.858   4.232 -1.1919 -0.0462 -0.5014
15791SOL    HW252059   5.559   0.825   4.376 -1.0417  0.1806 -0.4797
15792SOL     OW52060   6.509   7.019   1.041  0.5920 -0.1332 -0.3112
15792SOL    HW152061   6.421   7.031   1.078  0.3917 -1.9394 -0.0918
15792SOL    HW252062   6.568   7.058   1.105  0.0253  0.0641  0.1011
15793SOL     OW52063   2.403   2.827   1.617  0.2354 -0.1197  0.1943
15793SOL    HW152064   2.364   2.909   1.587 -1.3076  0.2632  2.8797
15793SOL    HW252065   2.453   2.795   1.542 -0.4223  2.4385 -1.4697
15794SOL     OW52066   0.400   4.570   6.504 -0.2997 -0.1656 -0.1686
15794SOL    HW152067   0.388   4.575   6.409 -0.6485 -0.9117 -0.1678
15794SOL    HW252068   0.345   4.639   6.539 -0.4802 -0.1464 -0.4862
15795SOL     OW52069   6.956   2.283   8.452 -0.2733 -0.0205  0.4473
15795SOL    HW152070   6.860   2.283   8.448 -0.2649 -0.6857  0.0209
15795SOL    HW252071   6.984   2.280   8.361  0.1607  0.5612  0.5614
15796SOL     OW52072  11.892   9.707  11.939  0.1935  0.2669  0.5659
15796SOL    HW152073  11.959   9.747  11.996 -0.4765  1.5224  0.4963
15796SOL    HW252074  11.866   9.777  11.880 -1.3286 -0.1371  0.7196
15797SOL     OW52075  11.307   4.746   1.227  0.2235 -0.1532 -0.1113
15797SOL    HW152076  11.239   4.739   1.293  1.1595 -1.0710  0.7967
15797SOL    HW252077  11.323   4.840   1.219 -0.6634  0.0291  0.1633
15798SOL     OW52078   0.623   5.022  11.697  0.0368 -0.1000  0.0129
15798SOL    HW152079   0.562   4.979  11.758 -0.4868  0.6798  0.0557
15798SOL    HW252080   0.571   5.091  11.656  0.8779  0.5387 -0.0030
15799SOL     OW52081   4.965   0.497   0.737 -0.0723 -0.0502  0.7180
15799SOL    HW152082   4.939   0.518   0.826 -2.0286 -2.4398  0.8042
15799SOL    HW252083   5.029   0.426   0.745  0.1445  0.0757  0.2139
15800SOL     OW52084  10.916   1.551   4.649  0.3367 -0.4586  0.2284
15800SOL    HW152085  10.909   1.560   4.554 -2.0145 -1.1314  0.2637
15800SOL    HW252086  10.948   1.636   4.679  0.2379  0.0802 -1.1029
15801SOL     OW52087   7.460   3.825   9.001  0.0044 -0.0352  0.4748
15801SOL    HW152088   7.433   3.768   9.073 -1.3204 -0.1094 -0.0637
15801SOL    HW252089   7.387   3.824   8.940  0.7360  0.7503 -0.4546
15802SOL     OW52090  10.330   8.085   4.994 -0.4790 -0.0839 -0.2572
15802SOL    HW152091  10.404   8.132   4.956 -0.1919 -0.4636 -0.1781
15802SOL    HW252092  10.318   8.125   5.080 -1.4829  1.1475 -0.9505
15803SOL     OW52093   2.574   1.872  10.753  0.1235  0.4036  0.8409
15803SOL    HW152094   2.655   1.920  10.772  1.8019 -2.6980  2.3380
15803SOL    HW252095   2.515   1.896  10.825 -0.7588  3.2585 -0.6472
15804SOL     OW52096   0.244   1.530   5.808 -0.0849 -0.2731  0.1522
15804SOL    HW152097   0.153   1.555   5.826  0.5822  2.1662  0.4920
15804SOL    HW252098   0.241   1.434   5.801 -2.7889 -0.2257 -0.6140
15805SOL     OW52099  10.064   4.414   9.900 -0.2552  0.3070  0.5187
15805SOL    HW152100  10.071   4.331   9.852 -0.2227 -1.0604  2.7616
15805SOL    HW252101   9.975   4.444   9.884 -0.4300 -0.4204  0.0768
15806SOL     OW52102   4.851  10.620   7.892  0.1563  0.4826 -0.0277
15806SOL    HW152103   4.887  10.594   7.977  0.0199  1.1300  0.2299
15806SOL    HW252104   4.787  10.687   7.913 -1.8691 -1.2345 -0.3818
15807SOL     OW52105   4.822  11.536   9.623 -0.0686  0.0948 -0.0648
15807SOL    HW152106   4.839  11.465   9.560  1.0336  0.0174  0.3068
15807SOL    HW252107   4.901  11.590   9.621  0.1692 -0.1516  1.5741
15808SOL     OW52108   2.100   4.561  10.661 -0.0085 -0.8117 -0.0348
15808SOL    HW152109   2.007   4.579  10.677  0.3313 -0.4090  1.7638
15808SOL    HW252110   2.120   4.489  10.721  0.9844 -0.4709  0.0461
15809SOL     OW52111   9.707   7.678   2.303 -0.1615  0.2503 -0.5884
15809SOL    HW152112   9.655   7.601   2.325  1.2784 -0.8379 -0.8274
15809SOL    HW252113   9.676   7.746   2.362 -0.9151 -0.7330  0.1832
15810SOL     OW52114   7.090   7.030   9.915  0.0609 -0.0819 -0.2883
15810SOL    HW152115   7.003   7.066   9.900  0.1737  0.4129  0.2233
15810SOL    HW252116   7.075   6.938   9.935 -0.2463 -0.2913 -1.3792
15811SOL     OW52117   5.682  11.435   1.349  0.1309 -0.9549 -0.3499
15811SOL    HW152118   5.665  11.358   1.296 -0.6660 -0.9679 -0.0763
15811SOL    HW252119   5.758  11.476   1.307  0.0545 -1.4392 -0.9752
15812SOL     OW52120   5.034   1.528   0.174 -0.1386  0.0503  0.4114
15812SOL    HW152121   5.042   1.435   0.198 -0.4737  0.1014  0.7410
15812SOL    HW252122   5.087   1.574   0.239 -1.7144  0.2592  1.6332
15813SOL     OW52123   4.583   9.077   3.213 -0.5808  0.2570 -0.1984
15813SOL    HW152124   4.623   9.147   3.160 -2.1322  1.2639 -0.1191
15813SOL    HW252125   4.521   9.123   3.270 -0.0641 -0.9806  1.4299
15814SOL     OW52126   0.004   4.758   4.980  0.2283 -0.3051 -0.3155
15814SOL    HW152127   0.078   4.713   5.021  0.6952  0.4511 -0.3074
15814SOL    HW252128   0.042   4.806   4.906 -0.5097 -1.1530 -1.2660
15815SOL     OW52129  10.032   1.094   7.167  0.2288 -0.0947 -0.3546
15815SOL    HW152130  10.041   1.075   7.260  0.1469 -0.9583 -0.5163
15815SOL    HW252131  10.110   1.055   7.127  0.0565 -0.0846 -0.7019
15816SOL     OW52132   8.028   0.493  11.375  0.3358  0.4174  0.2117
15816SOL    HW152133   8.107   0.503  11.323  0.5618 -0.1298  0.4442
15816SOL    HW252134   7.957   0.498  11.311  0.5862  0.3104 -0.0770
15817SOL     OW52135   2.152   5.147   9.451 -0.1382  0.4912  0.2294
15817SOL    HW152136   2.090   5.093   9.402 -0.7076 -1.3706  2.8298
15817SOL    HW252137   2.222   5.166   9.388 -1.2406 -1.0018 -1.5431
15818SOL     OW52138   4.851   4.542   4.602 -0.1063 -0.1750 -0.1704
15818SOL    HW152139   4.843   4.590   4.684  0.8721  0.3369 -0.3579
15818SOL    HW252140   4.861   4.451   4.629 -2.3206 -0.3657  0.1751
15819SOL     OW52141   9.235   7.182   4.057  0.1764 -0.8173  0.2016
15819SOL    HW152142   9.164   7.119   4.041  0.1777 -0.9974  0.8707
15819SOL    HW252143   9.262   7.211   3.970  0.7531 -2.3855 -0.1704
15820SOL     OW52144  10.777   5.287   4.876 -0.8084  0.7027  0.4043
15820SOL    HW152145  10.754   5.373   4.840 -3.2705 -0.3730 -0.8263
15820SOL    HW252146  10.694   5.251   4.907  0.2524 -1.0477  1.3554
15821SOL     OW52147   6.166   0.412   4.827  0.1744 -1.0917 -0.4261
15821SOL    HW152148   6.122   0.493   4.802  1.4089 -0.2006  0.1926
15821SOL    HW252149   6.096   0.347   4.833 -1.0769  0.3174  0.7559
15822SOL     OW52150  11.168   6.001   2.311  0.4121 -0.6758  0.2049
15822SOL    HW152151  11.194   5.909   2.302 -2.3348 -1.5772  0.6555
15822SOL    HW252152  11.080   5.997   2.348  0.3542  2.1791  0.5365
15823SOL     OW52153   5.731   2.126  10.651  0.0594 -0.7032  0.1112
15823SOL    HW152154   5.743   2.101  10.560 -1.4893  2.0383 -0.9845
15823SOL    HW252155   5.671   2.061  10.687  0.8372 -1.9213 -0.7350
15824SOL     OW52156   5.949   1.248   7.568  0.3133 -0.0971 -0.2541
15824SOL    HW152157   5.877   1.311   7.558 -0.3681 -0.9001 -0.5414
15824SOL    HW252158   5.926   1.176   7.509  1.5778 -0.1802 -0.6585
15825SOL     OW52159  11.196   7.245  11.462  0.0908  0.2604 -0.1181
15825SOL    HW152160  11.240   7.288  11.535  0.9210  0.0788 -0.5034
15825SOL    HW252161  11.261   7.185  11.426 -0.9441 -1.1484  0.2378
15826SOL     OW52162   9.337   0.277   0.227  0.0329  0.7171  0.1287
15826SOL    HW152163   9.417   0.294   0.276  1.4894  0.2261 -1.9186
15826SOL    HW252164   9.312   0.188   0.252  1.1806  0.1887 -0.5120
15827SOL     OW52165   6.103  10.170   1.763 -0.0042  0.0787 -0.6595
15827SOL    HW152166   6.124  10.153   1.671 -0.8014  1.0369 -1.0279
15827SOL    HW252167   6.017  10.130   1.775  0.1223 -0.0921 -0.3052
15828SOL     OW52168   2.294   1.249   9.040  0.7808  0.0214  0.2420
15828SOL    HW152169   2.326   1.331   9.078 -0.8543  0.2094  1.3487
15828SOL    HW252170   2.285   1.190   9.115 -0.0773 -0.4551 -0.2154
15829SOL     OW52171   3.561   6.000   8.342 -0.2827  0.0629  0.0603
15829SOL    HW152172   3.545   6.054   8.420 -1.7107 -0.0232 -0.1521
15829SOL    HW252173   3.615   5.927   8.374 -1.8168 -0.6126  1.2472
15830SOL     OW52174   8.174   5.631   9.228  0.1642  0.2716 -0.1049
15830SOL    HW152175   8.095   5.647   9.176 -0.0610  0.3165  0.2507
15830SOL    HW252176   8.246   5.648   9.167 -0.1006 -0.6870 -0.7015
15831SOL     OW52177   6.313   2.225   3.540 -0.3213  0.0134 -0.2887
15831SOL    HW152178   6.378   2.274   3.591  1.8151 -3.5156  0.6740
15831SOL    HW252179   6.240   2.213   3.600  1.1074 -1.8702  1.1939
15832SOL     OW52180   9.376   1.251   4.708 -0.1429  0.0448  0.3564
15832SOL    HW152181   9.390   1.201   4.789 -1.1221 -0.3025  0.3360
15832SOL    HW252182   9.449   1.227   4.651  1.7304  1.8767  1.8441
15833SOL     OW52183   5.807   8.609   0.050 -0.4729 -0.5424  0.1787
15833SOL    HW152184   5.832   8.699   0.030 -0.9709 -0.1387  1.2886
15833SOL    HW252185   5.712   8.612   0.062 -0.2741 -0.7886  2.1886
15834SOL     OW52186   2.917  11.780  11.415  0.0181 -0.3056 -0.0995
15834SOL    HW152187   2.842  11.737  11.454 -0.3629  0.0307 -0.4549
15834SOL    HW252188   2.988  11.768  11.479 -0.9252  1.3845  1.3513
15835SOL     OW52189   0.461   4.935   0.484  0.3471 -0.0508 -0.0050
15835SOL    HW152190   0.383   4.893   0.449 -0.3008 -0.0833  1.4273
15835SOL    HW252191   0.488   4.996   0.416  0.7014 -1.9877 -1.7009
15836SOL     OW52192  11.238   0.872   4.786 -0.0320 -0.2180  0.2845
15836SOL    HW152193  11.179   0.800   4.765  0.6418 -0.3831 -1.1595
15836SOL    HW252194  11.300   0.874   4.713  0.4312  1.3265  0.6897
15837SOL     OW52195   8.512   3.424   0.324 -0.4192  0.0175 -0.0159
15837SOL    HW152196   8.521   3.329   0.332  0.2327 -0.2723 -2.9612
15837SOL    HW252197   8.576   3.459   0.386  0.4677 -1.5036 -0.0202
15838SOL     OW52198   8.459   0.739   0.139 -0.1654 -0.7364 -0.1675
15838SOL    HW152199   8.552   0.758   0.148 -0.1338 -0.4647 -1.0077
15838SOL    HW252200   8.441   0.672   0.206  0.7118 -1.0697 -0.2570
15839SOL     OW52201   1.686   1.990   0.633  0.3863  0.0708  0.5050
15839SOL    HW152202   1.597   1.999   0.601  0.5016  0.4572  0.2867
15839SOL    HW252203   1.685   2.031   0.719  1.0394  2.8691 -0.7064
15840SOL     OW52204   0.669   6.097   8.491  0.3456 -0.0104  0.1103
15840SOL    HW152205   0.729   6.028   8.519  0.4351  0.0510  0.0710
15840SOL    HW252206   0.655   6.149   8.570 -0.1695 -0.4008  0.2834
15841SOL     OW52207   7.656   5.325   0.763  0.3099  0.0192 -0.1663
15841SOL    HW152208   7.625   5.378   0.837  0.4406 -0.9249  0.5798
15841SOL    HW252209   7.601   5.247   0.765 -0.4127  0.4512 -1.7390
15842SOL     OW52210   1.004  10.408  10.746  0.0885 -0.0678  0.3254
15842SOL    HW152211   0.929  10.363  10.784  0.5701 -0.9736  0.2461
15842SOL    HW252212   1.053  10.442  10.821 -0.2042  0.2082  0.3922
15843SOL     OW52213   5.987   2.489   7.122  0.2161 -0.3123  0.5461
15843SOL    HW152214   6.068   2.440   7.111  0.1567  0.0313 -2.1654
15843SOL    HW252215   5.920   2.433   7.082 -1.2156 -1.1473  3.7832
15844SOL     OW52216  10.199  11.303   6.456  0.5718 -0.1474  0.0738
15844SOL    HW152217  10.164  11.280   6.370  0.4895 -0.3641  0.1651
15844SOL    HW252218  10.164  11.391   6.472  1.2821  0.2455 -0.4841
15845SOL     OW52219   3.490   0.132   7.672 -0.4159  0.3492 -0.6412
15845SOL    HW152220   3.413   0.170   7.714  0.0789 -1.4217  2.1345
15845SOL    HW252221   3.474   0.038   7.672  1.7667 -0.0880  0.2023
15846SOL     OW52222   2.889   1.529   6.645 -0.0788  0.2619  0.0488
15846SOL    HW152223   2.929   1.558   6.563  0.3213 -0.0827  0.1169
15846SOL    HW252224   2.858   1.609   6.687  0.0356  0.4753 -0.2690
15847SOL     OW52225   8.384  10.588  11.016  0.0527 -0.1535  0.0294
15847SOL    HW152226   8.398  10.682  11.013 -1.5013  0.1405  1.1168
15847SOL    HW252227   8.418  10.561  11.101 -1.8170 -0.1188  0.8343
15848SOL     OW52228   5.548   8.953   7.431  0.3040  0.2267 -0.1144
15848SOL    HW152229   5.508   8.920   7.511 -0.3987 -0.4104 -0.7105
15848SOL    HW252230   5.632   8.907   7.425  0.1413 -0.0826 -0.0013
15849SOL     OW52231   8.023   7.529   7.976  0.0142 -0.1571 -0.2995
15849SOL    HW152232   8.070   7.445   7.980 -0.3312 -0.3807 -0.7743
15849SOL    HW252233   8.091   7.594   7.959  0.1240 -0.5152 -1.2609
15850SOL     OW52234   0.709   2.214   6.219 -0.1034 -0.5359  0.3629
15850SOL    HW152235   0.647   2.150   6.252 -0.6666 -0.9176 -1.3563
15850SOL    HW252236   0.757   2.168   6.150  2.2799 -0.3293  1.7600
15851SOL     OW52237   4.809   0.810   7.347  0.3792 -0.0115 -0.1621
15851SOL    HW152238   4.876   0.870   7.313 -1.6002  1.7507 -1.2129
15851SOL    HW252239   4.798   0.836   7.439 -0.2018  1.0906 -0.5117
15852SOL     OW52240   8.864  10.146   0.154 -0.0456 -0.0600 -0.1342
15852SOL    HW152241   8.773  10.168   0.132 -0.2288  0.8475  1.4239
15852SOL    HW252242   8.915  10.219   0.121  0.1310 -0.5132 -0.9009
15853SOL     OW52243   8.320   3.951   9.052  0.1994 -0.1453  1.2144
15853SOL    HW152244   8.370   3.886   9.101  1.6204  0.1471  0.2258
15853SOL    HW252245   8.371   3.966   8.972 -1.1434  0.6715  0.4575
15854SOL     OW52246  10.444   6.936  11.850 -0.2300  0.8978 -0.1651
15854SOL    HW152247  10.399   7.008  11.893  2.1775  2.4686 -0.0754
15854SOL    HW252248  10.526   6.926  11.899  1.8698  1.6559 -3.2284
15855SOL     OW52249   0.429  11.723  10.226  0.3015  0.3570  0.0908
15855SOL    HW152250   0.357  11.785  10.238  0.5989  0.6963  0.1715
15855SOL    HW252251   0.467  11.746  10.141  1.1371  1.0628  0.6353
15856SOL     OW52252   1.650   7.949   3.406  0.4839 -0.1393  0.0339
15856SOL    HW152253   1.611   7.917   3.487 -0.9396 -0.5848 -0.7975
15856SOL    HW252254   1.662   7.871   3.352  1.7375  0.1058 -0.0716
15857SOL     OW52255   3.338   4.009  11.900  0.2798  0.4115 -0.2050
15857SOL    HW152256   3.285   4.066  11.843 -0.3274 -0.5371 -0.6032
15857SOL    HW252257   3.428   4.037  11.884  0.1479 -0.0403 -1.8951
15858SOL     OW52258   9.246   9.350   0.101  0.2173 -0.2999  0.1363
15858SOL    HW152259   9.158   9.384   0.085 -0.7693 -3.0048 -0.9346
15858SOL    HW252260   9.232   9.265   0.142  2.3002 -1.0428 -0.5369
15859SOL     OW52261   2.265   0.411  11.075 -0.0685  0.2540  0.2075
15859SOL    HW152262   2.194   0.425  11.138 -2.3042 -3.7329 -1.0707
15859SOL    HW252263   2.241   0.463  10.999 -0.9157  0.0164  0.3034
15860SOL     OW52264   7.885  11.791   2.104 -0.2584  0.3855 -1.0144
15860SOL    HW152265   7.937  11.871   2.097  1.4163 -0.4800  0.6050
15860SOL    HW252266   7.795  11.820   2.091  0.1378  2.8050  0.8857
15861SOL     OW52267   3.732   1.463   6.173 -0.0116  0.3731 -0.0988
15861SOL    HW152268   3.748   1.370   6.187  1.6852  0.8673  1.6232
15861SOL    HW252269   3.659   1.483   6.231  1.6412  0.6903  1.9945
15862SOL     OW52270   7.745  10.056  11.308  0.2901 -0.8340  0.1026
15862SOL    HW152271   7.798  10.134  11.296 -2.3463  0.8901 -1.1432
15862SOL    HW252272   7.672  10.084  11.363 -0.3212 -2.6247  0.2829
15863SOL     OW52273   2.402   5.292  11.893 -0.8573  0.0226 -0.0432
15863SOL    HW152274   2.352   5.372  11.906 -0.5429  0.1043  0.6733
15863SOL    HW252275   2.465   5.314  11.824  0.4849  0.9991  1.4170
15864SOL     OW52276  10.134  11.855   8.973 -0.7290 -0.2336 -0.4576
15864SOL    HW152277  10.087  11.774   8.991  0.6550 -0.6133  1.8578
15864SOL    HW252278  10.200  11.860   9.042  0.0657  2.2275 -1.2964
15865SOL     OW52279   8.284  11.255  11.932 -0.6186 -0.1199  0.3232
15865SOL    HW152280   8.215  11.258  11.865  1.3534 -0.0101 -1.8390
15865SOL    HW252281   8.326  11.170  11.919  0.1401  0.1296  1.0758
15866SOL     OW52282   4.484   9.371   5.134  0.3286  0.3341 -0.3150
15866SOL    HW152283   4.542   9.339   5.203 -2.6877 -2.0085  1.3468
15866SOL    HW252284   4.482   9.301   5.069 -0.4100  0.5446 -0.5279
15867SOL     OW52285   8.689  11.837   0.817 -0.1964 -0.1570  0.4129
15867SOL    HW152286   8.598  11.815   0.835 -0.5177  1.4862  0.9497
15867SOL    HW252287   8.732  11.834   0.903 -0.1627  0.8477  0.4395
15868SOL     OW52288   4.940  11.002   0.141  0.0917 -0.3011 -0.9419
15868SOL    HW152289   4.853  11.027   0.171 -0.0507  1.1672 -2.4293
15868SOL    HW252290   4.987  11.086   0.132  1.7018 -1.0610 -0.0773
15869SOL     OW52291   6.186   7.395   8.296 -0.3867  0.1750 -0.2248
15869SOL    HW152292   6.279   7.396   8.317 -0.5993  0.4824  0.7809
15869SOL    HW252293   6.176   7.457   8.224  0.0005  1.1738  0.5604
15870SOL     OW52294   8.209   0.290   2.262  0.2066 -0.0258  0.2212
15870SOL    HW152295   8.305   0.288   2.258  0.1870  0.8379 -1.2240
15870SOL    HW252296   8.181   0.299   2.171 -1.2954 -1.0691  0.5428
15871SOL     OW52297   5.980  10.733   0.271 -0.2510  0.4585  0.4927
15871SOL    HW152298   5.993  10.756   0.179  2.2290 -2.1203  0.0756
15871SOL    HW252299   5.957  10.816   0.313  1.1919  2.2594 -1.9858
15872SOL     OW52300   3.764   2.137   6.010 -0.1981  0.4512 -0.3314
15872SOL    HW152301   3.720   2.165   5.930  1.7726  0.5640 -1.4360
15872SOL    HW252302   3.693   2.108   6.067 -1.8075  1.9344 -1.4559
15873SOL     OW52303   5.429   2.615   8.653 -0.8547 -0.5637  0.0698
15873SOL    HW152304   5.352   2.572   8.692  0.5024 -3.2175  0.0519
15873SOL    HW252305   5.491   2.623   8.726 -0.9183  1.1430 -0.0204
15874SOL     OW52306  10.180   0.246   5.869  0.2111 -0.0766  0.5635
15874SOL    HW152307  10.273   0.272   5.869  0.1296  0.2461  1.4969
15874SOL    HW252308  10.163   0.219   5.959 -0.8893  0.8831  0.6638
15875SOL     OW52309   4.555   8.007   7.135  0.3154 -1.1982 -0.5429
15875SOL    HW152310   4.462   8.014   7.115 -0.3069 -0.8097  2.0369
15875SOL    HW252311   4.560   8.024   7.229  3.2720  1.0877 -0.9646
15876SOL     OW52312   7.696   4.911  10.721 -0.4943  0.2864 -0.5907
15876SOL    HW152313   7.730   4.825  10.747 -1.9158 -0.0481  0.2494
15876SOL    HW252314   7.741   4.972  10.778 -1.2714 -0.1565  0.5371
15877SOL     OW52315  10.801  10.674   3.586 -0.7446  0.1829 -0.0399
15877SOL    HW152316  10.849  10.690   3.505  0.0071 -2.5915 -0.2349
15877SOL    HW252317  10.747  10.597   3.568 -1.4007  0.1642  1.7653
15878SOL     OW52318  11.928   0.973   6.641  0.2916 -0.2263  0.0925
15878SOL    HW152319  11.962   0.909   6.579  1.9537  0.9929 -0.3299
15878SOL    HW252320  11.886   1.039   6.586  0.9590  0.3890  0.3033
15879SOL     OW52321   1.126   2.140   4.920 -0.6366 -0.2878  0.4264
15879SOL    HW152322   1.164   2.116   4.836 -4.2952 -0.1526 -1.4324
15879SOL    HW252323   1.099   2.057   4.959 -0.1563 -0.2402  0.8803
15880SOL     OW52324   5.103   3.558   6.951 -0.2443  0.3259  0.0037
15880SOL    HW152325   5.161   3.630   6.924  0.5499  0.3713  1.7009
15880SOL    HW252326   5.162   3.488   6.976 -1.0170 -1.0862 -1.9255
15881SOL     OW52327   3.096   9.960   7.829 -0.1706  0.1979  0.4263
15881SOL    HW152328   3.169   9.917   7.783 -0.2551 -0.5490  0.9753
15881SOL    HW252329   3.083   9.907   7.908 -2.2705 -0.5434 -0.3674
15882SOL     OW52330   2.676   4.591   3.419 -0.1957  0.1578 -0.2183
15882SOL    HW152331   2.618   4.533   3.467 -1.6686  0.9105 -1.0035
15882SOL    HW252332   2.644   4.588   3.328  0.4179  1.2669 -0.4971
15883SOL     OW52333   7.069   4.004   5.141 -0.1618  0.5746 -0.0559
15883SOL    HW152334   7.117   3.943   5.085 -1.9629  1.0136 -2.1849
15883SOL    HW252335   7.120   4.085   5.138 -0.4326  0.7108 -1.3927
15884SOL     OW52336  10.813   0.754   3.418  0.1154  0.9178  0.3566
15884SOL    HW152337  10.856   0.694   3.358 -1.4750 -1.4600  1.4380
15884SOL    HW252338  10.882   0.785   3.476  0.6192 -2.1959  1.5838
15885SOL     OW52339   7.943   4.256   6.482  0.1520  0.0287  0.0511
15885SOL    HW152340   7.905   4.238   6.568 -0.0828 -0.0382 -0.0676
15885SOL    HW252341   7.927   4.349   6.469 -0.8846 -0.2050 -0.4459
15886SOL     OW52342  11.382   2.441   1.039  0.0876  0.3250  0.1683
15886SOL    HW152343  11.446   2.398   0.982 -1.3755 -0.7014 -0.7829
15886SOL    HW252344  11.392   2.397   1.124  1.4628  1.0454  0.4181
15887SOL     OW52345   4.984   1.536  11.400  0.0875 -0.3213 -0.1766
15887SOL    HW152346   4.894   1.567  11.416 -0.2096 -1.8322  1.3485
15887SOL    HW252347   5.035   1.616  11.389 -1.5174  0.5723 -1.6234
15888SOL     OW52348   0.754   5.860   2.238  0.0673  0.5023  0.6702
15888SOL    HW152349   0.664   5.889   2.252  0.2901  1.1479  0.8108
15888SOL    HW252350   0.804   5.941   2.229  0.9522  0.2176  2.5291
15889SOL     OW52351   7.135   5.422   3.171  0.4161  0.3355 -0.0972
15889SOL    HW152352   7.131   5.419   3.075  0.0669 -0.8598 -0.0642
15889SOL    HW252353   7.200   5.489   3.190 -1.1307  2.2549 -1.1302
15890SOL     OW52354   8.774   6.549   4.698 -0.3077 -0.6719 -0.3162
15890SOL    HW152355   8.732   6.618   4.749 -0.2903  0.4590 -1.7653
15890SOL    HW252356   8.711   6.477   4.699 -0.9893 -0.0875 -0.0061
15891SOL     OW52357   0.350   8.037   9.431  0.2758  0.0209  0.2460
15891SOL    HW152358   0.285   8.057   9.499  0.2331  1.1456 -0.1084
15891SOL    HW252359   0.399   7.964   9.467 -0.6555 -0.3205  0.8776
15892SOL     OW52360   3.377   2.446   2.817 -0.8754  0.2853  0.6578
15892SOL    HW152361   3.388   2.450   2.912 -2.8813 -2.6188  1.1491
15892SOL    HW252362   3.285   2.467   2.803  0.0410  3.9403 -1.1307
15893SOL     OW52363  11.993   7.322   1.669  0.5609 -0.1499  0.0484
15893SOL    HW152364  12.030   7.403   1.635 -0.9390  0.3937 -0.3783
15893SOL    HW252365  11.913   7.349   1.714  0.5460 -1.2924  0.7427
15894SOL     OW52366   6.413   7.839   9.510  0.4869  0.0704 -0.8567
15894SOL    HW152367   6.455   7.753   9.515 -0.6371 -0.5138 -1.1150
15894SOL    HW252368   6.451   7.880   9.433 -0.4261 -1.0275 -1.9288
15895SOL     OW52369   3.209   9.302  10.093  0.4389  0.4817 -0.2527
15895SOL    HW152370   3.180   9.240  10.026  0.2296  0.0035  0.2738
15895SOL    HW252371   3.137   9.364  10.101 -0.7296 -0.9978  1.4244
15896SOL     OW52372   1.015   1.891   8.303 -0.2437  0.8887  0.3381
15896SOL    HW152373   0.952   1.865   8.370 -0.7696  1.1341 -0.0545
15896SOL    HW252374   1.025   1.813   8.248  0.1815  0.6904  0.6935
15897SOL     OW52375   6.653  11.830  10.401  0.0180  0.1428 -0.2660
15897SOL    HW152376   6.668  11.737  10.390  0.5960  0.4039 -1.9951
15897SOL    HW252377   6.712  11.872  10.338  1.7375  1.8210  2.2292
15898SOL     OW52378   4.131   9.595  11.664 -0.8154 -0.6744  0.8334
15898SOL    HW152379   4.156   9.505  11.646 -0.1155 -0.2608 -0.3903
15898SOL    HW252380   4.042   9.602  11.630 -0.3121 -0.5096 -0.4967
15899SOL     OW52381   7.540   4.694   7.463  0.0789  0.2614 -0.3921
15899SOL    HW152382   7.553   4.752   7.388 -1.9953  0.4194 -0.6972
15899SOL    HW252383   7.508   4.752   7.532  1.2117 -0.0161  0.4029
15900SOL     OW52384   7.399   0.176   7.072 -0.0281 -0.7012  0.5234
15900SOL    HW152385   7.310   0.209   7.088 -0.0562 -0.8165  0.6094
15900SOL    HW252386   7.420   0.124   7.150  0.5095  0.1446  0.9532
15901SOL     OW52387   0.381   6.668   5.135 -0.9952  0.2607  0.0956
15901SOL    HW152388   0.473   6.667   5.109 -1.1907 -1.4694 -0.6503
15901SOL    HW252389   0.383   6.689   5.229  0.1325  0.5030  0.0303
15902SOL     OW52390  10.909   8.004   4.040  0.2061  0.3887 -0.4750
15902SOL    HW152391  10.873   8.042   4.121 -0.1886  2.0179 -1.3691
15902SOL    HW252392  10.852   7.929   4.022 -1.0262  1.2441 -0.3256
15903SOL     OW52393   1.888   2.894   2.735 -0.0419  0.8064  0.0281
15903SOL    HW152394   1.980   2.873   2.750 -0.0874  0.3188 -0.3528
15903SOL    HW252395   1.889   2.956   2.662 -0.1501 -1.4381 -2.0284
15904SOL     OW52396   1.768   0.867   0.252  0.2680  0.2893 -0.6683
15904SOL    HW152397   1.746   0.814   0.176 -0.1686  0.5184 -0.7037
15904SOL    HW252398   1.863   0.861   0.259  0.3746  0.7606 -1.5894
15905SOL     OW52399   4.527   7.162  11.576  0.9641 -0.5051 -0.3376
15905SOL    HW152400   4.532   7.143  11.669  0.5593 -1.1637 -0.4397
15905SOL    HW252401   4.483   7.248  11.571  1.5139 -0.1950  0.0896
15906SOL     OW52402  11.301   8.419   9.677  0.4163 -0.2375 -0.1424
15906SOL    HW152403  11.248   8.347   9.643 -0.4212  0.4471 -0.3288
15906SOL    HW252404  11.290   8.414   9.772  2.4208 -1.8944  0.0592
15907SOL     OW52405   9.279   7.921  11.087  0.4065  0.0525  0.5796
15907SOL    HW152406   9.256   7.828  11.094  0.8875 -0.1965 -0.7494
15907SOL    HW252407   9.331   7.940  11.164  0.3524 -0.7986  0.8299
15908SOL     OW52408   3.211   9.267   3.865  0.5008  0.4838  0.2388
15908SOL    HW152409   3.251   9.352   3.884  0.1263  0.7231 -0.0311
15908SOL    HW252410   3.161   9.281   3.785  2.2266 -0.5736 -1.0983
15909SOL     OW52411   1.302   0.586   1.250  0.8762 -0.5430 -0.1023
15909SOL    HW152412   1.291   0.622   1.338  2.0047  1.1210 -0.5995
15909SOL    HW252413   1.230   0.622   1.199  0.5480 -1.0506 -0.0022
15910SOL     OW52414   4.113  11.721   6.367  0.2602 -0.1914 -0.2324
15910SOL    HW152415   4.041  11.757   6.418 -0.5148 -0.1792 -1.2973
15910SOL    HW252416   4.115  11.628   6.389 -0.3032 -0.2575 -0.4434
15911SOL     OW52417   1.723  11.198  11.258  0.4172 -0.2471 -0.4461
15911SOL    HW152418   1.791  11.240  11.205 -0.0366  0.9772 -0.1071
15911SOL    HW252419   1.702  11.263  11.325  0.3565 -1.4220  0.7042
15912SOL     OW52420   8.397   4.329   2.958 -0.1106 -0.5671 -0.0845
15912SOL    HW152421   8.373   4.419   2.979  0.7142 -0.0427 -1.2663
15912SOL    HW252422   8.450   4.300   3.032 -0.5886 -0.1718  0.4176
15913SOL     OW52423  11.964   5.034   0.109  0.1228  0.7694  0.6695
15913SOL    HW152424  12.049   5.077   0.120  0.0647  1.4836 -1.2989
15913SOL    HW252425  11.902   5.091   0.154  0.4484  1.1607  0.6257
15914SOL     OW52426   9.749   5.353   1.573 -0.6929  0.3112  0.0403
15914SOL    HW152427   9.653   5.350   1.568 -0.6887 -2.9788 -0.4732
15914SOL    HW252428   9.778   5.303   1.496  1.6041  3.2549 -1.1997
15915SOL     OW52429   7.780   4.627  11.208  0.1065 -0.5129  0.1076
15915SOL    HW152430   7.746   4.656  11.123 -1.0652  0.0047  0.7265
15915SOL    HW252431   7.704   4.632  11.267  0.8956 -0.8741  1.1833
15916SOL     OW52432   6.950   2.141   4.688  0.2758  0.0875 -0.8023
15916SOL    HW152433   6.971   2.196   4.763  0.1276 -1.2309  0.2267
15916SOL    HW252434   7.030   2.143   4.635  0.8878 -0.0847  0.0933
15917SOL     OW52435   4.846   9.708   3.994  0.4104  0.2507  0.0998
15917SOL    HW152436   4.834   9.741   4.083  1.1985  2.6612 -0.6109
15917SOL    HW252437   4.757   9.705   3.957  0.3220  1.7781  0.1515
15918SOL     OW52438   1.667   4.224   1.309  0.2969  0.2891 -0.0466
15918SOL    HW152439   1.622   4.265   1.382  1.9450  1.6192  0.2888
15918SOL    HW252440   1.686   4.135   1.340 -0.7444  0.1999  0.3671
15919SOL     OW52441   8.783  11.734   2.221 -0.2983  0.4561 -0.0156
15919SOL    HW152442   8.826  11.651   2.242 -1.9761 -0.4592 -0.0386
15919SOL    HW252443   8.761  11.726   2.128  0.8179  1.5524 -0.3928
15920SOL     OW52444   4.554   2.053  10.920  0.3754 -0.9312  0.3918
15920SOL    HW152445   4.586   2.144  10.922  0.6515 -1.0329  0.7830
15920SOL    HW252446   4.504   2.044  11.002 -1.8028 -0.3729 -0.8075
15921SOL     OW52447  11.115  10.694   6.393 -0.1521  0.1422 -0.1383
15921SOL    HW152448  11.055  10.715   6.466  1.2610  0.4021  0.9850
15921SOL    HW252449  11.091  10.757   6.324  0.7501  2.3019  1.3838
15922SOL     OW52450   6.205   3.986   3.067  0.0477  0.3877  0.0712
15922SOL    HW152451   6.259   4.047   3.118  0.4590  0.0293  0.0763
15922SOL    HW252452   6.150   3.943   3.132 -0.0844  0.5956  0.0961
15923SOL     OW52453   1.802  11.119   6.852 -0.1975  0.5203  0.3194
15923SOL    HW152454   1.711  11.101   6.874  0.5430 -2.7213  1.3057
15923SOL    HW252455   1.842  11.145   6.935  0.0072  0.9741  0.0856
15924SOL     OW52456   4.153  10.567   9.448 -0.3398  0.7159  0.5720
15924SOL    HW152457   4.062  10.591   9.463 -0.8750 -1.1550  0.5710
15924SOL    HW252458   4.150  10.473   9.430  1.3959  0.9371 -1.2299
15925SOL     OW52459   5.494   1.916   2.359  0.3235  0.2784  0.8456
15925SOL    HW152460   5.420   1.977   2.365 -0.6001 -0.7691  0.5706
15925SOL    HW252461   5.466   1.853   2.293  2.4271  1.1051 -0.9498
15926SOL     OW52462  11.227   3.915   9.259 -0.1838 -0.0560  0.6117
15926SOL    HW152463  11.276   3.965   9.194 -0.7330  0.0194  0.2447
15926SOL    HW252464  11.292   3.891   9.325  0.3428  0.0283  0.1326
15927SOL     OW52465   4.688  10.938  11.847 -0.0411 -0.1317 -0.2150
15927SOL    HW152466   4.772  10.975  11.823 -0.2466 -0.5440 -1.7011
15927SOL    HW252467   4.702  10.843  11.845  0.0216 -0.2030  1.7823
15928SOL     OW52468   7.588  11.340   8.144 -0.5275 -0.5034 -0.0520
15928SOL    HW152469   7.586  11.414   8.083  1.5542  0.4547  0.9516
15928SOL    HW252470   7.546  11.374   8.223 -1.1529 -0.9941 -0.1655
15929SOL     OW52471   5.823   7.903   1.455  0.2403 -0.2818 -0.2388
15929SOL    HW152472   5.867   7.878   1.537 -0.9084  0.2455  0.5531
15929SOL    HW252473   5.802   7.996   1.466 -0.8804 -0.4731 -0.6901
15930SOL     OW52474   9.424   7.004   3.100  0.1665  0.1843 -0.0018
15930SOL    HW152475   9.442   7.086   3.147  0.0916 -0.3309  0.9539
15930SOL    HW252476   9.503   6.987   3.050  0.1292  0.9146 -0.3162
15931SOL     OW52477   9.279   9.651   4.712 -0.3474 -0.0849 -0.1986
15931SOL    HW152478   9.365   9.652   4.670 -0.7641 -0.8344 -1.1170
15931SOL    HW252479   9.267   9.560   4.738 -0.6785  0.1084  0.3255
15932SOL     OW52480   2.015   9.431   1.923 -0.3748  0.0726 -0.0310
15932SOL    HW152481   1.944   9.474   1.874 -1.4015 -0.2835  1.0900
15932SOL    HW252482   2.035   9.490   1.995  1.0163  0.5159 -0.7585
15933SOL     OW52483   2.410   8.618   9.920  0.0571  0.2766  0.3244
15933SOL    HW152484   2.382   8.582  10.004  1.4269  1.3934  1.3114
15933SOL    HW252485   2.384   8.552   9.856  0.9783 -1.7066  1.8680
15934SOL     OW52486   2.533   3.467   4.436  0.4637 -0.5735  0.0554
15934SOL    HW152487   2.529   3.449   4.342 -2.3239 -1.0510  0.1747
15934SOL    HW252488   2.482   3.548   4.447  3.0970  1.0679  0.8987
15935SOL     OW52489   9.560   2.695  10.607  0.2590 -0.0520 -0.1955
15935SOL    HW152490   9.629   2.653  10.659  0.5544 -0.2024 -0.7020
15935SOL    HW252491   9.557   2.785  10.639 -0.5712 -0.4994  1.1008
15936SOL     OW52492   1.268   1.989   7.423 -0.3735 -0.5471 -0.5147
15936SOL    HW152493   1.284   2.081   7.446 -0.5481 -1.3580  3.5114
15936SOL    HW252494   1.351   1.958   7.388  0.3639  0.5968  0.1652
15937SOL     OW52495   0.216   8.726  10.900  0.0005 -0.1238 -0.8115
15937SOL    HW152496   0.269   8.689  10.829  0.6278  0.0830 -0.4560
15937SOL    HW252497   0.194   8.814  10.870  2.5108  0.9992  0.3407
15938SOL     OW52498   2.247   4.337   1.070 -0.1760  0.2881 -0.3123
15938SOL    HW152499   2.303   4.405   1.108  1.5230 -0.0340 -2.0842
15938SOL    HW252500   2.241   4.360   0.978  0.9081 -2.2058 -1.0886
15939SOL     OW52501   9.500   0.146   5.465 -0.4578 -0.0849 -0.5819
15939SOL    HW152502   9.482   0.110   5.551  0.5026 -1.3321 -0.8670
15939SOL    HW252503   9.444   0.223   5.458 -1.2573 -0.5247  0.7602
15940SOL     OW52504   9.224  11.338   7.062 -0.4450 -0.1658 -0.0070
15940SOL    HW152505   9.263  11.330   6.975 -0.8482  0.2371 -0.2263
15940SOL    HW252506   9.198  11.249   7.085 -0.4661 -0.2515 -0.3587
15941SOL     OW52507   6.504   4.318   6.439  0.2440  0.1870 -0.2972
15941SOL    HW152508   6.503   4.413   6.447  1.9140  0.2297 -0.1706
15941SOL    HW252509   6.422   4.289   6.478  1.0824  1.3866  2.6531
15942SOL     OW52510   1.115   2.080   3.687 -0.6944  0.5895  0.1754
15942SOL    HW152511   1.072   2.011   3.636 -1.3490  0.8810  0.3187
15942SOL    HW252512   1.122   2.044   3.775  0.0439  0.2517 -0.0192
15943SOL     OW52513   5.879  11.337  10.757  0.0046 -0.2547  0.0836
15943SOL    HW152514   5.805  11.319  10.700 -1.8394  2.1072  1.5197
15943SOL    HW252515   5.865  11.281  10.834  1.3037 -1.8384 -0.7727
15944SOL     OW52516   4.807   4.624  10.074  0.2715  0.8607  0.2335
15944SOL    HW152517   4.845   4.653   9.991 -1.9582 -0.1597 -1.2472
15944SOL    HW252518   4.825   4.530  10.077 -0.3563  0.7420  0.4896
15945SOL     OW52519   1.020   4.638   7.214 -0.2525  0.0283  0.0243
15945SOL    HW152520   0.966   4.568   7.252 -0.9985  1.0983  1.0218
15945SOL    HW252521   1.017   4.622   7.120 -0.3117 -1.3444  0.2396
15946SOL     OW52522   0.225  11.596   7.837 -0.2275 -0.3762 -1.0501
15946SOL    HW152523   0.308  11.560   7.806  0.8689 -1.0296  2.2285
15946SOL    HW252524   0.250  11.671   7.890 -1.7097 -0.6752  0.1395
15947SOL     OW52525   2.608   4.147   8.091  0.3472  0.4974  0.1808
15947SOL    HW152526   2.660   4.227   8.081 -0.8896  1.3546  0.4089
15947SOL    HW252527   2.517   4.177   8.093 -0.1237 -0.8715  0.7633
15948SOL     OW52528   7.941   2.108   6.895  0.2744  0.0142  0.2250
15948SOL    HW152529   7.932   2.100   6.800 -0.8649  0.7356  0.2525
15948SOL    HW252530   8.035   2.124   6.909  0.0473  3.5794 -1.1275
15949SOL     OW52531   9.046  11.042   0.840  0.1410 -0.1812  0.2221
15949SOL    HW152532   9.001  11.016   0.920 -1.9341 -1.4928 -1.2698
15949SOL    HW252533   8.993  11.114   0.805  1.5730  1.0453  0.4645
15950SOL     OW52534   2.661   7.036  10.807 -0.1425 -0.1502  0.1262
15950SOL    HW152535   2.589   7.027  10.745 -0.7954  2.4752  0.3700
15950SOL    HW252536   2.699   7.122  10.788 -0.0776  0.5814  2.9640
15951SOL     OW52537   6.559   2.790   2.264 -0.3410  0.0309  0.2536
15951SOL    HW152538   6.616   2.812   2.190  1.0676 -0.8467  1.0444
15951SOL    HW252539   6.511   2.871   2.281  1.0584  0.9760 -0.1090
15952SOL     OW52540   3.009   5.859   4.639  0.0975  0.0216 -0.1654
15952SOL    HW152541   3.013   5.915   4.717  0.1733  0.6188 -0.5961
15952SOL    HW252542   3.090   5.808   4.643 -0.2315 -0.4777  0.5255
15953SOL     OW52543   5.076   0.218  11.848 -0.6153  0.5544 -0.5309
15953SOL    HW152544   5.024   0.139  11.832  0.1713  0.1766 -1.3398
15953SOL    HW252545   5.049   0.247  11.935 -0.2997 -1.1070  0.1647
15954SOL     OW52546   8.779   1.718   3.125 -0.3644  0.7542 -0.0658
15954SOL    HW152547   8.834   1.645   3.154  2.9198  2.4176 -1.5516
15954SOL    HW252548   8.816   1.795   3.169 -0.0546  2.2306 -2.6933
15955SOL     OW52549   8.141   5.212   8.256 -1.0187  0.2824 -0.4305
15955SOL    HW152550   8.104   5.234   8.170 -1.2609  1.6465 -0.0036
15955SOL    HW252551   8.115   5.285   8.312 -1.7607 -1.0804  1.0783
15956SOL     OW52552   8.038  11.426   5.448 -0.1158 -0.3965  0.1640
15956SOL    HW152553   8.020  11.447   5.539  0.5651 -0.6105  0.3535
15956SOL    HW252554   8.102  11.355   5.452 -1.8255 -2.0480 -0.4628
15957SOL     OW52555   0.057   4.204   8.935 -0.6156 -0.5151 -0.1423
15957SOL    HW152556   0.121   4.207   8.865  0.8287  0.5993  1.1564
15957SOL    HW252557   0.008   4.123   8.920  1.7706 -1.9640 -0.5959
15958SOL     OW52558   8.315   6.893   2.143  0.3505  0.5875  0.3468
15958SOL    HW152559   8.383   6.868   2.205  0.6017  0.9654  0.2285
15958SOL    HW252560   8.234   6.859   2.181  0.7140 -0.6955  0.0298
15959SOL     OW52561  11.684   4.436   1.420 -0.1792 -0.4496  0.3901
15959SOL    HW152562  11.731   4.518   1.433 -1.4456  0.2949  0.4794
15959SOL    HW252563  11.743   4.383   1.367 -0.4810  1.6402 -2.2605
15960SOL     OW52564   1.550   8.022   7.710  0.3483 -0.3325  0.0211
15960SOL    HW152565   1.463   7.998   7.677  0.4356  0.5040 -0.8477
15960SOL    HW252566   1.583   8.086   7.647  1.8521 -1.0803  0.0166
15961SOL     OW52567   4.627   2.581   4.975  0.1926  0.0277 -0.2541
15961SOL    HW152568   4.697   2.518   4.993  1.1716  0.9058 -0.8721
15961SOL    HW252569   4.562   2.530   4.927  1.0006 -0.5126 -0.8112
15962SOL     OW52570   1.071  10.465   2.968  0.2255 -0.2042 -0.1358
15962SOL    HW152571   1.133  10.504   3.029 -1.7149  0.4975  1.5185
15962SOL    HW252572   0.991  10.516   2.980 -1.5545 -2.8566 -0.0260
15963SOL     OW52573   9.020   5.047   2.102 -0.2292  0.2373  0.3456
15963SOL    HW152574   9.083   4.995   2.052 -0.1285  0.1654  0.5496
15963SOL    HW252575   8.963   5.085   2.035  1.5583  2.3633 -0.0879
15964SOL     OW52576   0.882   5.380   0.696  0.1843 -0.4350 -0.5652
15964SOL    HW152577   0.974   5.403   0.684 -0.0623  2.3315  1.6658
15964SOL    HW252578   0.881   5.326   0.776  0.0525 -2.9212 -2.1385
15965SOL     OW52579   2.153   7.763   4.813 -0.0913  0.3243  0.1729
15965SOL    HW152580   2.197   7.808   4.740  2.0768 -1.9104 -0.0284
15965SOL    HW252581   2.123   7.680   4.776 -2.0065  0.5779  1.0574
15966SOL     OW52582   2.023   3.959   6.972  0.5917  0.3348  0.3034
15966SOL    HW152583   2.001   3.949   7.064  0.8781 -1.4943  0.2070
15966SOL    HW252584   1.959   3.905   6.925  1.1090  0.3748 -0.4799
15967SOL     OW52585   2.416   4.371   4.684 -0.1870  0.0696  0.5573
15967SOL    HW152586   2.350   4.404   4.623  0.5315 -0.4043 -0.5265
15967SOL    HW252587   2.450   4.292   4.641  1.0337  0.2733  1.1173
15968SOL     OW52588   8.469  11.916   4.882  0.5238 -0.5842  0.5326
15968SOL    HW152589   8.482  11.851   4.951  1.4336 -0.6157  0.3439
15968SOL    HW252590   8.455  11.998   4.928 -0.1130 -0.8245  0.7670
15969SOL     OW52591   7.803   7.536   7.045  0.1758 -0.0295  0.1927
15969SOL    HW152592   7.738   7.552   7.113 -1.5332  0.4164 -1.4520
15969SOL    HW252593   7.880   7.585   7.073 -1.2742  2.1144  0.6721
15970SOL     OW52594   3.996  11.714   3.320 -0.2878  0.3419 -0.0075
15970SOL    HW152595   3.940  11.690   3.394  1.1850 -0.2736  0.9303
15970SOL    HW252596   3.953  11.791   3.282 -1.2710  0.4364  1.2443
15971SOL     OW52597   5.268   2.956   8.752 -0.8431 -0.2293  0.1521
15971SOL    HW152598   5.295   2.909   8.673  0.5690 -0.5566  0.7938
15971SOL    HW252599   5.172   2.953   8.750 -0.8270 -0.6810 -1.2678
15972SOL     OW52600   5.676   6.904   9.060  0.5208 -0.1713  0.5677
15972SOL    HW152601   5.692   6.819   9.102 -0.7467 -0.4633  0.5118
15972SOL    HW252602   5.760   6.928   9.022  0.7623 -1.6965  0.0637
15973SOL     OW52603   2.653  10.814   5.168  0.3942 -0.4495 -0.0770
15973SOL    HW152604   2.682  10.769   5.089  1.1444 -0.2042  0.0544
15973SOL    HW252605   2.631  10.903   5.138  1.4376 -0.1146  0.1184
15974SOL     OW52606   5.592   5.389   4.702  0.4703  0.8209  0.3365
15974SOL    HW152607   5.584   5.300   4.667 -1.1599  1.8557 -2.1932
15974SOL    HW252608   5.526   5.393   4.771  0.1151  0.2455  0.0404
15975SOL     OW52609   6.411   0.001   2.634  0.0257 -0.1492 -0.3478
15975SOL    HW152610   6.340   0.024   2.574 -0.0108 -1.1908 -0.7300
15975SOL    HW252611   6.483   0.059   2.610 -0.2585  0.0055 -0.8438
15976SOL     OW52612   7.102   4.302   7.784  0.2552  0.3424 -0.5681
15976SOL    HW152613   7.032   4.333   7.727 -0.2446 -1.5091 -1.0094
15976SOL    HW252614   7.126   4.217   7.749  1.9163  0.4134  0.2986
15977SOL     OW52615   5.662   3.420   8.822 -0.4869 -0.2032 -0.7929
15977SOL    HW152616   5.700   3.336   8.847  0.3547 -0.0096 -1.3838
15977SOL    HW252617   5.689   3.432   8.731  2.3922  2.3041  0.2221
15978SOL     OW52618   6.997  11.914   1.642  0.2635 -0.2876 -0.2117
15978SOL    HW152619   7.031  11.830   1.673  1.6781 -0.2959 -1.6436
15978SOL    HW252620   6.939  11.944   1.712 -1.2546 -3.0027 -0.1675
15979SOL     OW52621   3.427   7.816  11.847  0.1532  0.3408  0.1460
15979SOL    HW152622   3.450   7.883  11.783  1.2228 -0.6869 -0.5861
15979SOL    HW252623   3.338   7.838  11.874 -0.5586  0.4540 -2.1332
15980SOL     OW52624   5.227   0.799   1.800  0.7994  0.1942 -0.1555
15980SOL    HW152625   5.299   0.744   1.830  0.5520 -1.1035 -1.7993
15980SOL    HW252626   5.220   0.868   1.867  0.6043 -2.1769  2.4599
15981SOL     OW52627   1.918   9.487   8.347  0.1984  0.1916 -0.9079
15981SOL    HW152628   1.919   9.402   8.302 -0.9084  1.3479 -3.3047
15981SOL    HW252629   1.828   9.518   8.336 -0.2924  0.3838  2.6690
15982SOL     OW52630   4.353   3.894  10.053 -0.6715 -0.2472  0.8291
15982SOL    HW152631   4.390   3.906   9.966 -0.3895  0.2229  1.0156
15982SOL    HW252632   4.415   3.935  10.113 -1.4166  0.4476  1.1541
15983SOL     OW52633   6.018   0.870   9.562  0.3142 -0.0519 -0.2067
15983SOL    HW152634   6.005   0.887   9.656 -0.7753  2.4220 -0.7058
15983SOL    HW252635   6.092   0.925   9.538  0.6051 -0.6960 -0.8053
15984SOL     OW52636   7.218   6.529  11.083  0.1256 -0.6452  0.3749
15984SOL    HW152637   7.222   6.434  11.072 -1.4756 -0.7219  0.1479
15984SOL    HW252638   7.183   6.542  11.171  0.2804 -0.2628  0.3826
15985SOL     OW52639   9.546   2.658   4.010 -0.0401 -0.2875  0.0324
15985SOL    HW152640   9.599   2.692   3.938 -1.1631 -0.8421 -1.0787
15985SOL    HW252641   9.505   2.736   4.047 -0.6007 -0.1396 -0.8717
15986SOL     OW52642   7.358   7.851   6.130 -0.2702  0.7178  0.1131
15986SOL    HW152643   7.442   7.805   6.135 -0.7877 -0.1047  2.4777
15986SOL    HW252644   7.369   7.914   6.059  2.9882  1.8825  1.4835
15987SOL     OW52645  11.801   1.194   4.426  0.1772  0.3894 -1.2694
15987SOL    HW152646  11.745   1.146   4.365 -1.5026  0.6276 -0.0013
15987SOL    HW252647  11.890   1.176   4.396 -0.4523 -1.9261 -2.0207
15988SOL     OW52648   2.480   9.446   8.003 -0.2693  0.0873 -0.3351
15988SOL    HW152649   2.501   9.353   7.988  0.5538 -0.2371  2.3673
15988SOL    HW252650   2.425   9.470   7.928 -2.2180 -3.1383 -0.1307
15989SOL     OW52651   0.236   3.876   4.463 -0.0338  0.4667  0.2372
15989SOL    HW152652   0.296   3.850   4.533 -0.4718 -0.4054  0.3028
15989SOL    HW252653   0.280   3.846   4.383  0.4693  1.4672  0.1229
15990SOL     OW52654  11.282   3.361  11.425 -0.0372  0.1360  0.1159
15990SOL    HW152655  11.206   3.352  11.484 -0.5653 -1.3558 -0.7303
15990SOL    HW252656  11.294   3.273  11.388  1.1659  0.7068 -0.9260
15991SOL     OW52657   3.251   4.244   9.809 -0.1366  0.1266 -0.1407
15991SOL    HW152658   3.256   4.160   9.764  0.2846  0.8218 -1.4289
15991SOL    HW252659   3.169   4.283   9.779 -1.2589 -0.5813  1.8635
15992SOL     OW52660   8.765   7.816   6.347 -0.2363  0.6226 -0.3948
15992SOL    HW152661   8.675   7.849   6.343 -0.4484  0.2048  0.6097
15992SOL    HW252662   8.817   7.891   6.377 -0.5228  0.4012  0.6809
15993SOL     OW52663   4.794  11.379   5.718  0.0873  0.0286  0.4658
15993SOL    HW152664   4.805  11.457   5.663 -1.0603 -0.0517  0.1086
15993SOL    HW252665   4.816  11.409   5.807  0.2904  0.5843  0.2326
15994SOL     OW52666   4.892   2.696   5.983 -0.5009  0.6478 -1.0007
15994SOL    HW152667   4.943   2.773   6.009  0.9046  0.1406 -2.1155
15994SOL    HW252668   4.951   2.622   5.995 -1.5008 -0.1611 -0.8907
15995SOL     OW52669  10.789   1.106   2.570 -0.0339  0.3921  0.2351
15995SOL    HW152670  10.805   1.017   2.601 -0.9852 -0.0615 -0.5012
15995SOL    HW252671  10.875   1.147   2.568  0.9712 -1.5451 -2.4920
15996SOL     OW52672  10.105   3.641   4.750  0.1681 -0.5164  0.0834
15996SOL    HW152673  10.137   3.701   4.819  0.9533 -0.3800 -0.3888
15996SOL    HW252674  10.133   3.555   4.779  0.3917 -0.4733 -0.0042
15997SOL     OW52675  11.526   4.507   5.724 -0.2695  0.1109 -0.3467
15997SOL    HW152676  11.611   4.465   5.740 -1.7547 -2.9669  0.1061
15997SOL    HW252677  11.511   4.559   5.804  0.3667 -0.8143  0.4049
15998SOL     OW52678   3.075   9.851   0.708  0.0444 -0.0039 -0.0961
15998SOL    HW152679   3.069   9.882   0.617 -0.6744 -1.8094 -0.7068
15998SOL    HW252680   3.039   9.763   0.705 -0.2488  0.0145  2.0314
15999SOL     OW52681  10.249   8.001   1.070  0.5290 -0.3382 -0.4752
15999SOL    HW152682  10.310   8.040   1.132  0.8858 -2.5848  0.7138
15999SOL    HW252683  10.271   8.040   0.986  2.3288  0.2945  0.2490
16000SOL     OW52684   8.899   1.842   2.031  0.2563 -0.5875  0.0242
16000SOL    HW152685   8.918   1.823   2.123  0.9264  1.7612  0.4227
16000SOL    HW252686   8.928   1.763   1.984  0.8423 -1.4307  1.7176
16001SOL     OW52687   0.506   7.040   5.596 -0.4442  0.5090  0.1720
16001SOL    HW152688   0.436   6.981   5.571 -0.0938 -0.3560  1.1659
16001SOL    HW252689   0.512   7.032   5.691  1.4319  0.0308  0.0578
16002SOL     OW52690   6.313   7.663   9.834  0.1426  0.4025  0.1560
16002SOL    HW152691   6.403   7.637   9.814  0.2634  1.3325 -0.5837
16002SOL    HW252692   6.321   7.731   9.901  0.0926  1.4795 -0.9045
16003SOL     OW52693   7.519   3.693  11.631  0.0435  0.8425 -0.0196
16003SOL    HW152694   7.558   3.740  11.558 -0.5817  2.5877  0.7072
16003SOL    HW252695   7.441   3.652  11.594  1.1310 -0.5351 -0.8908
16004SOL     OW52696   1.856   5.834   2.256 -0.1799 -0.3451 -0.0099
16004SOL    HW152697   1.779   5.834   2.199  0.9172 -0.4549 -1.5272
16004SOL    HW252698   1.929   5.815   2.198  1.0095 -0.2531  1.4105
16005SOL     OW52699   4.439   5.193   3.650  0.1558 -0.7366 -0.1708
16005SOL    HW152700   4.493   5.210   3.572  2.3721  0.8635  1.5884
16005SOL    HW252701   4.351   5.180   3.615  0.3632  3.1262 -2.8224
16006SOL     OW52702   3.945   1.012   6.981 -0.4262 -0.1922 -0.4665
16006SOL    HW152703   3.947   1.050   6.893 -0.5620 -0.3382 -0.5333
16006SOL    HW252704   3.852   1.004   7.002 -0.4236  1.8144  0.5500
16007SOL     OW52705   0.551   4.768   2.127  0.3491 -0.2913 -0.0703
16007SOL    HW152706   0.518   4.793   2.214  0.3461  4.2279 -1.0864
16007SOL    HW252707   0.644   4.787   2.130  0.4392 -0.5706 -0.8700
16008SOL     OW52708   4.062  11.082  11.132  0.2059  0.2869 -0.4055
16008SOL    HW152709   4.062  10.986  11.129 -0.1261  0.2139  1.1450
16008SOL    HW252710   3.979  11.105  11.174  1.2434  1.1324  1.2865
16009SOL     OW52711  11.986   0.136   0.203  0.2123 -0.0927 -0.7062
16009SOL    HW152712  11.921   0.070   0.181 -0.5501  0.8928 -1.4608
16009SOL    HW252713  11.939   0.200   0.256  0.5500  0.6461 -1.2858
16010SOL     OW52714   3.538  11.052   8.492  0.1502  0.3559 -0.0697
16010SOL    HW152715   3.593  11.033   8.417 -2.1724  0.9986 -2.0530
16010SOL    HW252716   3.501  10.968   8.518  0.9197  0.1408  0.3533
16011SOL     OW52717   8.226   1.281  10.328 -0.5269  0.7115  0.1274
16011SOL    HW152718   8.258   1.368  10.302  0.4816 -0.1348 -1.6397
16011SOL    HW252719   8.163   1.299  10.397 -2.0947  3.0492 -1.7358
16012SOL     OW52720   8.996   6.926   2.633 -0.0804 -0.2026 -0.1682
16012SOL    HW152721   9.003   6.862   2.562 -1.4719 -1.7146  0.9783
16012SOL    HW252722   8.963   7.005   2.590  0.3097 -0.6812 -1.3919
16013SOL     OW52723  10.400   3.744   8.488  0.4698  0.2256 -0.5793
16013SOL    HW152724  10.346   3.813   8.451  0.1917 -0.5525 -1.6892
16013SOL    HW252725  10.389   3.752   8.583 -2.2143 -0.3808 -0.7820
16014SOL     OW52726   7.685   3.814   5.300  0.7601 -0.0548  0.0324
16014SOL    HW152727   7.634   3.854   5.229 -0.0193 -2.7293 -1.0226
16014SOL    HW252728   7.773   3.805   5.263  0.8853  0.4470  0.1971
16015SOL     OW52729   3.162   9.063   4.021 -0.3663  0.2972 -0.8261
16015SOL    HW152730   3.180   9.146   3.977  0.1914 -0.9086 -3.0265
16015SOL    HW252731   3.115   9.011   3.956 -0.6543 -1.1415  0.4679
16016SOL     OW52732   9.541   0.515  10.247 -0.1356  0.8512  1.1359
16016SOL    HW152733   9.589   0.531  10.166 -1.0364 -0.7816  0.2293
16016SOL    HW252734   9.449   0.533  10.225 -0.1690  2.5618  2.4512
16017SOL     OW52735   5.564   3.508   4.761 -0.3273  0.0407  0.0186
16017SOL    HW152736   5.525   3.480   4.678 -0.7150  0.2030  0.1443
16017SOL    HW252737   5.645   3.457   4.768 -0.5405 -0.3302 -0.2204
16018SOL     OW52738   6.061   8.526   3.875  0.2635  0.1584  0.0877
16018SOL    HW152739   6.140   8.499   3.828 -0.7469 -1.3477 -0.8435
16018SOL    HW252740   6.032   8.604   3.829  0.8297  0.3218 -0.0017
16019SOL     OW52741  10.488   7.775   8.734 -0.1838 -0.4301 -0.0192
16019SOL    HW152742  10.439   7.856   8.717  0.4875 -0.3800 -1.8517
16019SOL    HW252743  10.429   7.705   8.704 -0.6866 -0.6499  1.3900
16020SOL     OW52744   9.793   7.444   3.795  0.2833 -0.2653 -0.2908
16020SOL    HW152745   9.726   7.511   3.799  0.1224 -0.4713  1.2421
16020SOL    HW252746   9.868   7.486   3.753 -0.4009  0.3103 -0.9551
16021SOL     OW52747   4.134   8.547   8.572 -0.6421  0.3493  0.3662
16021SOL    HW152748   4.115   8.506   8.487  0.6109  1.2650 -0.4003
16021SOL    HW252749   4.059   8.604   8.588 -0.7329  0.4358 -0.3225
16022SOL     OW52750  11.439   5.051  11.879  0.1201  0.0528 -0.2605
16022SOL    HW152751  11.449   5.093  11.964 -1.4287 -1.4092  0.7061
16022SOL    HW252752  11.374   5.105  11.833 -1.0549 -0.6167  0.5594
16023SOL     OW52753   6.613   9.784   8.014  0.8068 -0.2813 -0.0160
16023SOL    HW152754   6.553   9.801   8.088 -0.0430  0.1561 -0.7838
16023SOL    HW252755   6.645   9.871   7.990 -1.3296  0.0320 -2.1249
16024SOL     OW52756   1.986   7.770   1.037 -0.2979  0.1601 -0.0614
16024SOL    HW152757   2.015   7.860   1.048  2.0971 -0.7078  1.2791
16024SOL    HW252758   2.065   7.721   1.015 -1.5647 -1.6234 -0.9252
16025SOL     OW52759   1.934   4.206  11.669  0.1693 -0.0115  0.3122
16025SOL    HW152760   1.921   4.226  11.577  1.1789  0.9799  0.3597
16025SOL    HW252761   1.904   4.115  11.679  0.0513 -0.1280 -0.9819
16026SOL     OW52762   4.943   7.784   3.618  0.4341 -0.0052 -0.4908
16026SOL    HW152763   4.958   7.811   3.708 -0.4041 -0.6034 -0.1696
16026SOL    HW252764   4.888   7.853   3.581 -4.1323 -2.3536  1.1258
16027SOL     OW52765   0.593   3.299   9.723 -0.2205  0.0239  0.3281
16027SOL    HW152766   0.633   3.386   9.724  0.7401 -0.3889  1.8267
16027SOL    HW252767   0.650   3.247   9.667 -0.3290  0.1524  0.0971
16028SOL     OW52768   6.752   9.138   8.181 -0.4106  0.2824 -0.0123
16028SOL    HW152769   6.831   9.181   8.214 -0.3749  0.1815  0.0338
16028SOL    HW252770   6.695   9.130   8.258 -0.7861  1.0606 -0.1985
16029SOL     OW52771   8.246   9.572  10.824 -0.3287 -1.0894  0.5395
16029SOL    HW152772   8.280   9.504  10.881 -1.5079  0.6969  3.6019
16029SOL    HW252773   8.179   9.529  10.771 -1.2075 -2.2954  2.5555
16030SOL     OW52774   0.485   1.171   7.223  0.2625  0.0851 -0.1051
16030SOL    HW152775   0.463   1.129   7.306  0.3131  0.6128  0.1771
16030SOL    HW252776   0.433   1.123   7.158  0.6938 -0.7349  0.1413
16031SOL     OW52777   5.179   7.601  11.654  0.3135 -0.3566  0.0969
16031SOL    HW152778   5.120   7.565  11.587 -0.3424 -0.4661  0.7234
16031SOL    HW252779   5.257   7.546  11.650  0.6659  0.1916 -1.2022
16032SOL     OW52780   5.206  10.029   7.888 -0.3222  0.3966  0.6898
16032SOL    HW152781   5.171  10.034   7.978  0.8546 -0.3432  1.1983
16032SOL    HW252782   5.298  10.008   7.899 -0.3357 -0.5111 -0.7347
16033SOL     OW52783   7.553   4.242  10.792 -0.0343 -0.4868 -0.0822
16033SOL    HW152784   7.586   4.242  10.882  0.6277  0.4149 -0.3124
16033SOL    HW252785   7.458   4.245  10.802  0.0470  0.1390  0.5941
16034SOL     OW52786   0.903   5.712   7.451 -0.4454 -0.0784 -0.4554
16034SOL    HW152787   0.894   5.796   7.406 -1.1226 -1.0382 -2.1952
16034SOL    HW252788   0.987   5.678   7.422 -0.9315 -0.7491 -1.1166
16035SOL     OW52789   1.807   4.404   0.384 -0.2592 -0.2125 -0.8373
16035SOL    HW152790   1.741   4.444   0.440 -0.1969 -2.8699  1.3041
16035SOL    HW252791   1.795   4.310   0.395  2.0771 -0.8243 -2.6079
16036SOL     OW52792   5.126   7.220   0.826  0.4008  0.0839  0.3999
16036SOL    HW152793   5.147   7.282   0.756 -1.3768 -0.1486 -0.3920
16036SOL    HW252794   5.107   7.138   0.780  1.3009 -0.6769  1.3333
16037SOL     OW52795   0.574   8.896   3.125  0.4391  0.0072 -0.3111
16037SOL    HW152796   0.536   8.843   3.055 -2.4723  2.2893 -0.6201
16037SOL    HW252797   0.499   8.934   3.171  2.3211  1.3988  1.8656
16038SOL     OW52798   8.345  10.545   1.056  0.1385  0.3236  0.3524
16038SOL    HW152799   8.353  10.629   1.010 -0.1652  0.0795 -0.1508
16038SOL    HW252800   8.418  10.493   1.024 -0.6416 -0.1987 -0.6128
16039SOL     OW52801  10.773   8.556   6.601  0.0126  0.4105  0.3875
16039SOL    HW152802  10.730   8.620   6.544  1.4274 -0.1743 -1.4112
16039SOL    HW252803  10.864   8.553   6.571  0.5554 -0.7413  1.9735
16040SOL     OW52804   3.192   5.796   8.318  0.4155 -0.4336 -0.5774
16040SOL    HW152805   3.265   5.828   8.264  1.0579 -0.3536  0.3233
16040SOL    HW252806   3.228   5.791   8.406 -1.2231  1.4549  0.2432
16041SOL     OW52807   5.719  11.849   1.278 -0.0718  0.3767  0.1162
16041SOL    HW152808   5.748  11.921   1.334 -0.4984  1.9362 -1.5739
16041SOL    HW252809   5.800  11.804   1.253  0.1822  0.1393  1.3006
16042SOL     OW52810   7.233   2.808   9.050  0.2284  0.2123 -0.1320
16042SOL    HW152811   7.316   2.832   9.091  0.3771 -0.8322  0.2204
16042SOL    HW252812   7.181   2.772   9.121  0.4142 -1.4472 -0.7926
16043SOL     OW52813   9.347   0.322   5.666 -0.2477  0.3362 -0.5158
16043SOL    HW152814   9.268   0.374   5.684 -0.4963 -0.4763  0.9730
16043SOL    HW252815   9.419   0.374   5.703 -0.6052 -0.7155  1.8522
16044SOL     OW52816   2.855   6.345   9.043 -0.3687 -0.3089  0.1810
16044SOL    HW152817   2.776   6.341   8.990  0.2524  0.1859 -0.8080
16044SOL    HW252818   2.832   6.297   9.123 -2.8803  2.8625  1.5695
16045SOL     OW52819   8.432   9.842   4.370  0.2164  0.5372  0.6224
16045SOL    HW152820   8.387   9.895   4.305 -1.5647  1.2268  2.3074
16045SOL    HW252821   8.523   9.870   4.365 -0.0437  1.2056 -0.9169
16046SOL     OW52822   1.362   1.420   8.876 -0.3198  0.2920 -0.7706
16046SOL    HW152823   1.320   1.479   8.938 -0.6985 -0.0672 -0.6781
16046SOL    HW252824   1.446   1.399   8.916 -0.8088 -0.4137 -0.0766
16047SOL     OW52825   9.720  10.488   1.620  0.0156 -0.2903  0.3918
16047SOL    HW152826   9.715  10.392   1.624  0.0991 -0.2678  1.1708
16047SOL    HW252827   9.807  10.509   1.652  0.4763 -0.0042 -0.9774
16048SOL     OW52828   4.594   7.034  11.132 -0.4510  0.3747  0.1811
16048SOL    HW152829   4.633   7.063  11.215  0.4637 -1.6884  0.5203
16048SOL    HW252830   4.602   7.110  11.074  2.8426  0.5407  0.6909
16049SOL     OW52831  10.472   5.338   4.242 -0.3100 -0.4048  0.1626
16049SOL    HW152832  10.535   5.271   4.269  3.0203  1.6850 -1.7237
16049SOL    HW252833  10.483   5.345   4.148 -0.3571  2.8336  0.2811
16050SOL     OW52834   7.965   3.393  10.549  0.2080  0.0224  0.0408
16050SOL    HW152835   7.922   3.314  10.581 -0.8211 -0.5127 -2.4987
16050SOL    HW252836   8.050   3.363  10.516  0.8255  0.4061  1.2133
16051SOL     OW52837   8.393  10.848   1.160 -0.0516  0.0701 -0.3300
16051SOL    HW152838   8.400  10.888   1.247  1.5197  1.3425 -1.0018
16051SOL    HW252839   8.331  10.904   1.113 -0.9782 -0.6754 -0.0464
16052SOL     OW52840   1.563   7.847  11.324  0.0503 -0.4106 -0.8734
16052SOL    HW152841   1.583   7.828  11.232 -0.4426 -0.2651 -1.0129
16052SOL    HW252842   1.471   7.822  11.334  0.1219 -0.4939 -0.3987
16053SOL     OW52843   6.608   3.223   3.705  0.2524  0.0843 -0.2880
16053SOL    HW152844   6.534   3.264   3.750  0.5264  1.4400 -0.9934
16053SOL    HW252845   6.595   3.245   3.613  0.1029 -2.0034 -0.8060
16054SOL     OW52846  11.221   8.820   8.832  0.2044  0.1559 -0.4273
16054SOL    HW152847  11.241   8.835   8.739 -0.6458 -0.2470 -0.6836
16054SOL    HW252848  11.215   8.908   8.869  0.6628  0.3193 -0.7250
16055SOL     OW52849   0.762   0.569   7.777  0.1319 -0.1217  0.3785
16055SOL    HW152850   0.793   0.527   7.697  1.3680 -0.1979  0.8714
16055SOL    HW252851   0.727   0.497   7.829 -0.8454 -0.0446 -0.1630
16056SOL     OW52852   9.983   2.444   5.239  0.5972  0.1852 -0.3793
16056SOL    HW152853   9.889   2.435   5.220  0.7913 -1.8023 -0.5974
16056SOL    HW252854   9.997   2.539   5.244 -1.2824  0.5487 -1.0169
16057SOL     OW52855   5.832   9.884   8.715  0.0593  0.1202  0.1427
16057SOL    HW152856   5.902   9.892   8.650 -1.7769  0.3387 -1.9225
16057SOL    HW252857   5.774   9.817   8.681 -0.6964 -0.1678  1.8755
16058SOL     OW52858   5.745   0.015   5.511 -0.0517 -0.2427  0.2226
16058SOL    HW152859   5.657   0.028   5.476 -0.4638  1.3066  1.7526
16058SOL    HW252860   5.733   0.007   5.606  1.4034 -0.5767  0.4064
16059SOL     OW52861  11.660   3.232   0.900  0.4812  0.2681  0.0928
16059SOL    HW152862  11.671   3.205   0.809 -3.9553  0.1144 -0.6123
16059SOL    HW252863  11.690   3.323   0.901  0.8094  0.2137 -1.4606
16060SOL     OW52864  10.769   3.907   9.010  0.0601 -0.3058 -0.0386
16060SOL    HW152865  10.770   3.958   8.929 -1.2109  0.7399  0.5522
16060SOL    HW252866  10.861   3.901   9.036  0.3395  0.8078 -0.6898
16061SOL     OW52867   3.184   9.319  10.903 -0.1103 -0.3094  0.1634
16061SOL    HW152868   3.105   9.292  10.856 -0.5332 -0.0811  0.7324
16061SOL    HW252869   3.151   9.364  10.981  0.5771  0.4377  0.0324
16062SOL     OW52870   9.658   6.587   2.099 -0.0710  0.3852 -0.4513
16062SOL    HW152871   9.684   6.621   2.184 -1.0809  4.2650 -1.4932
16062SOL    HW252872   9.678   6.493   2.103 -0.8441  0.1953  4.2694
16063SOL     OW52873   9.893   9.713   6.402  0.3572  0.6116  0.0623
16063SOL    HW152874   9.971   9.671   6.367  0.3550 -0.6053  1.4213
16063SOL    HW252875   9.924   9.796   6.438  1.5437 -0.8794  2.7334
16064SOL     OW52876   0.108   2.234  11.428 -0.2553  0.5416 -0.2849
16064SOL    HW152877   0.143   2.247  11.516 -0.9758 -1.7060  0.4199
16064SOL    HW252878   0.182   2.252  11.370  1.1505 -0.8123  0.9727
16065SOL     OW52879   1.957   5.739   4.100  0.3081 -0.2171 -0.4833
16065SOL    HW152880   2.002   5.668   4.144 -2.0733 -0.8408  1.1644
16065SOL    HW252881   1.957   5.811   4.164  0.5761  0.4090 -1.1769
16066SOL     OW52882   9.643   4.646   3.110  0.6373 -0.7144  0.2793
16066SOL    HW152883   9.619   4.726   3.157 -0.9278 -1.7722  1.3854
16066SOL    HW252884   9.736   4.635   3.129  0.5882  0.1703  1.1460
16067SOL     OW52885   6.649   3.345   8.367  0.4052 -0.2312  0.5249
16067SOL    HW152886   6.578   3.346   8.431  1.5292 -1.6370  1.8817
16067SOL    HW252887   6.701   3.423   8.388  0.0110  0.0681  0.4043
16068SOL     OW52888   4.171   7.190   0.420  0.3395 -0.1413  0.1044
16068SOL    HW152889   4.139   7.137   0.493 -0.4355 -1.4193 -1.1382
16068SOL    HW252890   4.102   7.255   0.406  0.4866  0.1038  0.4777
16069SOL     OW52891   6.398   7.639   8.050  0.0987 -0.2081  0.8720
16069SOL    HW152892   6.466   7.606   7.991  0.6524  0.9129  0.8549
16069SOL    HW252893   6.446   7.689   8.116 -0.7499  1.1465  0.4970
16070SOL     OW52894   5.286   9.585   7.158  0.5367 -0.6790  0.2642
16070SOL    HW152895   5.241   9.575   7.074  0.7597  3.1221 -0.5150
16070SOL    HW252896   5.376   9.609   7.134  1.0689 -1.2042  1.6413
16071SOL     OW52897   3.441   2.496   8.456  0.0032 -0.0263  0.0628
16071SOL    HW152898   3.392   2.434   8.512 -2.7362 -0.3013 -2.3980
16071SOL    HW252899   3.477   2.441   8.387  1.4154  0.6068  0.2764
16072SOL     OW52900   5.712   5.610   4.607 -0.4426  0.1147 -0.1086
16072SOL    HW152901   5.665   5.532   4.634  0.6207 -0.2635  0.7167
16072SOL    HW252902   5.768   5.581   4.535 -0.5442  0.2813 -0.2583
16073SOL     OW52903   0.936   4.816   4.988  1.1743  0.3834  0.4122
16073SOL    HW152904   0.990   4.741   4.962  1.3467  0.7466 -0.3157
16073SOL    HW252905   0.848   4.779   4.998  1.3403  0.0018  0.4944
16074SOL     OW52906  10.824   2.596   0.550 -0.2308  0.4124  0.2648
16074SOL    HW152907  10.730   2.595   0.534 -0.0624 -1.1570 -0.8585
16074SOL    HW252908  10.847   2.689   0.554 -1.4335  0.8726 -2.0115
16075SOL     OW52909   8.430  10.637   8.231  0.3125  0.1394  0.4025
16075SOL    HW152910   8.446  10.557   8.282  0.0298  0.1083  0.4424
16075SOL    HW252911   8.388  10.606   8.151 -0.4762  0.3105  0.7352
16076SOL     OW52912  11.154   3.917   5.528 -0.1789 -0.2538  0.4341
16076SOL    HW152913  11.150   3.945   5.436  2.6298 -1.0561 -0.0386
16076SOL    HW252914  11.187   3.994   5.575  1.3576 -0.7185  0.1920
16077SOL     OW52915   6.243   6.183   7.561 -0.0997 -0.8546 -0.1735
16077SOL    HW152916   6.186   6.187   7.484 -1.5204 -0.5592  0.8572
16077SOL    HW252917   6.277   6.272   7.570 -1.6024 -0.3550  0.7415
16078SOL     OW52918   7.130   8.725   4.113  0.3785  0.7385 -0.2727
16078SOL    HW152919   7.088   8.801   4.154  1.8835  0.4595  1.9306
16078SOL    HW252920   7.223   8.746   4.112  1.3296 -2.2227  3.3984
16079SOL     OW52921   7.491   7.688   7.896  0.4796 -0.0317 -0.0785
16079SOL    HW152922   7.520   7.741   7.822  0.0303  1.3035  0.6620
16079SOL    HW252923   7.395   7.696   7.895  0.4640 -0.0657  0.5885
16080SOL     OW52924   5.368   2.717   0.955  0.3925  0.0722  0.0463
16080SOL    HW152925   5.315   2.646   0.992  0.9591  0.2732  1.3047
16080SOL    HW252926   5.319   2.747   0.879 -0.9387 -0.2201  0.7635
16081SOL     OW52927   1.668   4.198   4.439 -0.0079  0.4385  0.0522
16081SOL    HW152928   1.589   4.233   4.398 -1.2020 -2.1331 -0.0026
16081SOL    HW252929   1.702   4.272   4.491 -0.7018  2.5380 -2.2622
16082SOL     OW52930   2.720   7.550   4.413 -0.2287 -0.2684 -0.3017
16082SOL    HW152931   2.810   7.526   4.391 -0.0892 -0.4919  0.4883
16082SOL    HW252932   2.683   7.470   4.452 -0.7393 -0.1502 -0.5412
16083SOL     OW52933   4.408   0.561   5.319 -0.0515  0.0563  0.6474
16083SOL    HW152934   4.478   0.618   5.348 -0.0313  1.3834 -1.7256
16083SOL    HW252935   4.446   0.511   5.246 -1.0848 -0.4147  0.4072
16084SOL     OW52936   3.164   6.442   4.201 -0.0687 -0.3207 -0.2488
16084SOL    HW152937   3.133   6.447   4.292  0.6635 -0.0289 -0.0046
16084SOL    HW252938   3.236   6.505   4.197 -0.5746  0.2225 -1.2389
16085SOL     OW52939   0.886   1.118   9.446 -0.2496 -0.0526  0.1790
16085SOL    HW152940   0.871   1.111   9.540 -0.4618 -0.5961  0.1051
16085SOL    HW252941   0.943   1.044   9.425  0.7036  0.7005  0.0674
16086SOL     OW52942   0.363   9.382   9.649  0.0746  0.0145 -0.4619
16086SOL    HW152943   0.422   9.417   9.716 -2.0466  1.9258  0.5238
16086SOL    HW252944   0.397   9.294   9.632  1.0728 -0.3375  2.6651
16087SOL     OW52945   7.598  11.534   2.241 -0.3937  0.2962  0.2428
16087SOL    HW152946   7.654  11.523   2.165  0.9363 -0.0780  1.2413
16087SOL    HW252947   7.554  11.450   2.251 -0.7435  0.4171 -0.2244
16088SOL     OW52948   5.587   3.949   4.991 -0.9508  1.0296 -0.1909
16088SOL    HW152949   5.518   3.892   4.955  0.9377 -0.7838 -1.1743
16088SOL    HW252950   5.617   3.903   5.069  0.4801  0.6875 -0.8993
16089SOL     OW52951   4.725   4.613   4.344  0.0608 -0.2054  0.1840
16089SOL    HW152952   4.683   4.635   4.427 -0.2233  1.5706 -0.3891
16089SOL    HW252953   4.818   4.607   4.365  0.1790  1.7649  0.3807
16090SOL     OW52954  10.009   1.084   5.673  0.0836  0.2144 -0.0511
16090SOL    HW152955  10.050   0.999   5.657 -0.1380  0.3100 -1.2336
16090SOL    HW252956  10.083   1.144   5.686  0.2342 -0.2504  1.4536
16091SOL     OW52957   9.549   9.740   9.162  0.2998 -0.0144 -0.1532
16091SOL    HW152958   9.543   9.735   9.066 -1.2493 -0.2854 -0.0583
16091SOL    HW252959   9.546   9.648   9.190 -0.3246  0.1184  0.2095
16092SOL     OW52960   1.587   9.206   3.587 -0.4116 -0.4618  0.5632
16092SOL    HW152961   1.648   9.167   3.649 -0.0494  0.2034  0.6327
16092SOL    HW252962   1.607   9.164   3.504  0.8862  0.5036  0.3543
16093SOL     OW52963   6.561   5.316   5.058 -0.8996  0.0157 -0.1590
16093SOL    HW152964   6.627   5.345   4.995  1.2503 -0.3921  1.7645
16093SOL    HW252965   6.577   5.222   5.066 -1.3217  0.0161  0.7557
16094SOL     OW52966   4.702   3.924   7.067  0.1774 -0.1463 -0.1472
16094SOL    HW152967   4.713   3.988   6.996 -0.4593 -1.6247 -1.6467
16094SOL    HW252968   4.622   3.877   7.044  0.5303 -1.3692  1.0189
16095SOL     OW52969   7.425   0.324   6.477 -0.0809  0.1697 -0.4755
16095SOL    HW152970   7.435   0.353   6.386  0.0623 -0.4437 -0.6624
16095SOL    HW252971   7.334   0.294   6.483 -0.7297  2.0905  0.1542
16096SOL     OW52972   7.093   6.697   7.065  0.1333  0.1957 -0.6984
16096SOL    HW152973   7.012   6.738   7.094  0.0885 -0.1197 -0.3640
16096SOL    HW252974   7.085   6.691   6.970 -1.5978 -2.6081 -0.4943
16097SOL     OW52975  10.831   8.631   4.911 -0.9646  0.3576 -0.2665
16097SOL    HW152976  10.753   8.613   4.964 -0.2551  1.1788  1.0939
16097SOL    HW252977  10.903   8.588   4.957 -0.3693  0.8472 -0.7160
16098SOL     OW52978   0.567   8.715  11.719  0.0572  0.2637 -0.0034
16098SOL    HW152979   0.567   8.781  11.650  1.0035 -0.4430 -0.7064
16098SOL    HW252980   0.479   8.678  11.717  0.1458  0.0847 -1.0154
16099SOL     OW52981   6.200   4.351   1.201  0.0514 -0.3044  0.5460
16099SOL    HW152982   6.179   4.408   1.275  0.5822  0.0773  0.4047
16099SOL    HW252983   6.115   4.337   1.158  0.2046  2.2657 -0.7606
16100SOL     OW52984   1.240   0.949  10.721  0.3783  0.0763  0.1637
16100SOL    HW152985   1.247   0.993  10.636 -0.4075 -0.2719 -0.0902
16100SOL    HW252986   1.328   0.956  10.759  0.5490  0.8703 -0.3567
16101SOL     OW52987   9.440  10.375  11.949  0.3248  0.3901 -0.1068
16101SOL    HW152988   9.354  10.379  11.992  0.6079  1.1156  0.4377
16101SOL    HW252989   9.459  10.282  11.941 -1.0494  0.1788 -1.3700
16102SOL     OW52990   3.009   8.159   8.004  0.7056  0.1918 -0.4690
16102SOL    HW152991   3.023   8.144   8.098  0.4852  0.6531 -0.3591
16102SOL    HW252992   3.097   8.174   7.969  0.6844  1.2155 -0.1179
16103SOL     OW52993  10.598   1.681   6.498 -0.2568  0.1910  0.2376
16103SOL    HW152994  10.602   1.624   6.575  0.7613  0.7644  0.6282
16103SOL    HW252995  10.555   1.760   6.530 -1.5698 -0.2871 -0.2771
16104SOL     OW52996   1.534   2.001   8.781  0.0570 -0.2722 -0.0160
16104SOL    HW152997   1.539   1.991   8.686  0.2385 -0.8704  0.0495
16104SOL    HW252998   1.497   2.088   8.795 -2.2858 -1.0773 -0.6680
16105SOL     OW52999   8.801   4.514   6.681  0.0006 -0.3707  0.0794
16105SOL    HW153000   8.743   4.515   6.605  2.6582 -0.2218 -2.1075
16105SOL    HW253001   8.805   4.422   6.707  0.3521 -0.6883 -1.0472
16106SOL     OW53002   6.056   1.345  10.235 -0.0260 -0.5445 -0.6728
16106SOL    HW153003   5.965   1.351  10.209 -0.0126  0.5301 -0.5033
16106SOL    HW253004   6.082   1.435  10.255  1.5229 -0.5642 -2.2812
16107SOL     OW53005   1.064  11.896  10.238 -0.0951 -0.1091  0.1038
16107SOL    HW153006   1.055  11.805  10.209  0.6027  0.2926 -1.4868
16107SOL    HW253007   0.996  11.907  10.304  0.5685 -2.1156  1.2108
16108SOL     OW53008   2.659   6.607   0.570  0.5232  0.2050  0.3327
16108SOL    HW153009   2.725   6.546   0.604 -0.4317 -0.5047  0.9620
16108SOL    HW253010   2.575   6.567   0.594 -0.1486  0.8644 -0.8476
16109SOL     OW53011   3.385   9.724   0.573  0.5747  0.7200  0.4544
16109SOL    HW153012   3.476   9.706   0.551  0.0839 -0.8674 -0.4080
16109SOL    HW253013   3.367   9.670   0.651  0.1789  0.4626  0.1904
16110SOL     OW53014   6.837  10.622   8.690 -0.1768 -0.3839  0.0115
16110SOL    HW153015   6.889  10.665   8.758  0.3225  0.6199 -0.9663
16110SOL    HW253016   6.897  10.559   8.650  0.1272  0.3518 -0.7191
16111SOL     OW53017   7.968   5.042   5.973  0.2901  0.3510  0.2232
16111SOL    HW153018   8.006   5.129   5.960  1.2160  0.0579  0.8625
16111SOL    HW253019   7.992   4.994   5.894  0.6968  0.3698  0.3298
16112SOL     OW53020   2.183   4.769   5.090  0.2794 -0.1344 -0.0656
16112SOL    HW153021   2.255   4.824   5.062 -1.0918  0.9431 -1.6213
16112SOL    HW253022   2.105   4.810   5.053 -0.9275 -2.4163 -0.2270
16113SOL     OW53023   8.155   3.114   8.149  0.3029  0.2820 -0.4108
16113SOL    HW153024   8.092   3.060   8.197  1.3455 -0.7205 -0.1345
16113SOL    HW253025   8.232   3.059   8.140  1.4120  1.7326 -0.0993
16114SOL     OW53026   9.001   1.911   6.870 -0.3979  0.0558 -0.2396
16114SOL    HW153027   8.986   1.972   6.942 -2.6433 -0.5295 -0.1379
16114SOL    HW253028   9.052   1.840   6.910  1.9183  1.5881 -0.2762
16115SOL     OW53029   1.939   4.607   3.415 -0.2657 -0.3295  0.0039
16115SOL    HW153030   1.876   4.591   3.486  0.3426  1.7026  1.0805
16115SOL    HW253031   1.889   4.594   3.335 -1.6437 -0.2827  0.8296
16116SOL     OW53032  10.194   4.487   3.771  0.1535 -0.1730  0.1072
16116SOL    HW153033  10.152   4.430   3.707 -0.1695 -0.1224  0.2724
16116SOL    HW253034  10.181   4.444   3.855 -1.8399  1.1026  0.5087
16117SOL     OW53035   0.256   1.016  11.453 -0.2718 -0.0463  0.1506
16117SOL    HW153036   0.342   1.054  11.472 -0.1145 -0.3976  0.1465
16117SOL    HW253037   0.257   0.931  11.497 -0.3006 -0.4081 -0.5343
16118SOL     OW53038  10.501   6.987   7.952 -0.3942  0.7033 -0.4605
16118SOL    HW153039  10.412   7.023   7.960 -0.2209  1.1781 -0.6664
16118SOL    HW253040  10.514   6.940   8.035 -0.2397  1.9794  0.2750
16119SOL     OW53041  11.745   1.092  10.980  0.2396 -0.1832  0.4982
16119SOL    HW153042  11.724   1.106  10.888  2.6671 -1.8654 -0.3935
16119SOL    HW253043  11.822   1.146  10.996  0.8480 -1.1813  1.0410
16120SOL     OW53044   9.104   7.714   0.363 -0.0995 -0.2187 -0.0668
16120SOL    HW153045   9.101   7.637   0.420 -0.0783 -0.5913 -0.5596
16120SOL    HW253046   9.054   7.688   0.286 -1.1462  0.7014  0.2756
16121SOL     OW53047   1.572   5.927   2.579 -0.4610 -0.2846  0.4754
16121SOL    HW153048   1.518   5.990   2.533  0.6034  0.0334 -0.3842
16121SOL    HW253049   1.522   5.905   2.658 -2.7118 -1.4426 -1.1502
16122SOL     OW53050   4.225   3.942   6.746  0.0957  0.1801  0.0395
16122SOL    HW153051   4.309   3.932   6.702  1.5042  0.2488  2.5411
16122SOL    HW253052   4.221   4.034   6.773  0.3734 -0.3232  1.9808
16123SOL     OW53053  10.898   4.107   1.742  0.2864 -0.0284 -0.2667
16123SOL    HW153054  10.971   4.094   1.802  1.0127  0.6336 -0.9810
16123SOL    HW253055  10.875   4.199   1.751  0.6671  0.1784 -1.2785
16124SOL     OW53056  10.510   5.816   5.276 -0.4189  0.4945  0.0714
16124SOL    HW153057  10.577   5.883   5.262 -1.8996  2.6214  2.2964
16124SOL    HW253058  10.495   5.778   5.189  1.4897  2.0707 -1.0212
16125SOL     OW53059   4.311   2.184   8.406  0.3270 -0.1427 -0.1515
16125SOL    HW153060   4.256   2.106   8.393  0.0200  0.1225 -0.4517
16125SOL    HW253061   4.290   2.240   8.332 -1.7080  1.5669  1.5782
16126SOL     OW53062  11.867   6.121   6.975 -0.4291 -0.4556 -0.4262
16126SOL    HW153063  11.866   6.204   6.927 -0.1459 -1.0655 -1.5275
16126SOL    HW253064  11.921   6.063   6.921  1.6289 -0.6047  1.6571
16127SOL     OW53065  11.986  11.797   3.021 -0.8374  0.5218  0.0008
16127SOL    HW153066  11.953  11.856   3.089 -1.8122  1.0361 -0.8997
16127SOL    HW253067  11.909  11.774   2.970  0.0303  0.9469 -1.5545
16128SOL     OW53068   1.275  11.426   4.421 -0.5007  0.3263 -0.1674
16128SOL    HW153069   1.234  11.472   4.494  1.9672  2.1205  0.2109
16128SOL    HW253070   1.285  11.336   4.451  0.7486  1.0950  1.8703
16129SOL     OW53071   4.119   7.981  10.090  0.0903 -0.3161  0.5891
16129SOL    HW153072   4.075   8.015  10.012  1.3108 -0.8042 -0.3348
16129SOL    HW253073   4.121   8.055  10.150  1.2313  0.8066 -0.7544
16130SOL     OW53074  10.286   7.589   1.371  0.0132  0.0416  0.3329
16130SOL    HW153075  10.253   7.534   1.442  1.8666 -1.1477  0.3145
16130SOL    HW253076  10.363   7.632   1.407 -0.5013  1.4706 -0.1669
16131SOL     OW53077  10.370   4.111   5.906 -0.1509  0.0502  0.4744
16131SOL    HW153078  10.429   4.184   5.887  0.0651  0.0958  1.2595
16131SOL    HW253079  10.303   4.115   5.838  0.3793  0.4103 -0.0343
16132SOL     OW53080   2.477  11.053   6.943  0.2587  0.5321 -0.0385
16132SOL    HW153081   2.393  11.052   6.897  1.6362  0.4374 -2.7863
16132SOL    HW253082   2.502  11.145   6.945  1.3744  0.3393 -1.9908
16133SOL     OW53083   6.513   5.338  10.279 -0.5603  0.1628 -0.2375
16133SOL    HW153084   6.557   5.277  10.220  0.2879 -0.7166  1.2269
16133SOL    HW253085   6.567   5.416  10.278  0.4558 -0.5009  0.6931
16134SOL     OW53086   8.245  10.917  11.325  0.0840 -0.5427  0.0510
16134SOL    HW153087   8.157  10.951  11.341  0.4080 -0.6854  2.5311
16134SOL    HW253088   8.273  10.960  11.244 -1.7400  0.5545 -0.0458
16135SOL     OW53089   7.679  11.836   3.446  0.1520 -0.1255  0.2022
16135SOL    HW153090   7.639  11.759   3.486  1.0078 -0.2427  0.8579
16135SOL    HW253091   7.645  11.837   3.357 -1.2626 -0.2440  0.7186
16136SOL     OW53092   5.587   0.527   7.392  0.0773  0.1380 -0.0513
16136SOL    HW153093   5.680   0.532   7.412 -0.4714  0.8274  2.8361
16136SOL    HW253094   5.579   0.455   7.329  2.3637 -0.9860  0.8448
16137SOL     OW53095   2.656  10.685   4.922 -0.3156 -0.4876 -0.1740
16137SOL    HW153096   2.712  10.693   4.844 -1.0827  1.9512 -0.5652
16137SOL    HW253097   2.567  10.689   4.887 -0.7080 -1.0488  0.7296
16138SOL     OW53098   0.377   9.788  11.379 -0.3281  0.1281 -0.0966
16138SOL    HW153099   0.451   9.806  11.321 -0.9493  1.1308 -0.5944
16138SOL    HW253100   0.316   9.860  11.364 -0.9339 -0.1123  1.0991
16139SOL     OW53101  11.125   4.306   2.921 -0.0068 -0.1260 -0.0408
16139SOL    HW153102  11.137   4.323   3.014  0.0879  0.2345 -0.1154
16139SOL    HW253103  11.135   4.392   2.880  0.2502 -0.3316 -0.4141
16140SOL     OW53104   2.224   5.975   1.717 -0.1258  0.8136  0.2144
16140SOL    HW153105   2.296   5.987   1.779  0.2275 -1.7738  0.4517
16140SOL    HW253106   2.268   5.952   1.635 -0.6274  3.1710 -0.7792
16141SOL     OW53107   5.647  10.641   1.575  0.2167  0.0192 -0.4605
16141SOL    HW153108   5.666  10.641   1.668  1.0286  1.1773 -0.6020
16141SOL    HW253109   5.661  10.732   1.547  1.7749 -0.6384 -2.0439
16142SOL     OW53110  11.515   1.373   7.229  0.4675  0.3444 -0.0753
16142SOL    HW153111  11.610   1.382   7.223  0.6300 -1.5225 -1.1352
16142SOL    HW253112  11.499   1.336   7.316  0.8980 -0.9389 -0.5149
16143SOL     OW53113   6.571   5.038   1.021 -0.2104  0.1737  0.1776
16143SOL    HW153114   6.664   5.020   1.037 -0.6847 -0.9866  1.9445
16143SOL    HW253115   6.538   4.958   0.979 -0.2199  1.0140 -1.5105
16144SOL     OW53116   3.784   5.395   7.359  0.4187  0.5946 -0.3668
16144SOL    HW153117   3.799   5.310   7.398  0.3229  0.1802 -1.2103
16144SOL    HW253118   3.704   5.427   7.401  0.8135  0.5595  0.4175
16145SOL     OW53119  11.652  10.113   5.959 -0.4982 -0.2742 -0.8777
16145SOL    HW153120  11.746  10.099   5.971 -0.6158 -1.2907 -1.0145
16145SOL    HW253121  11.624  10.158   6.038 -0.0900 -0.9998 -0.3070
16146SOL     OW53122   7.373   5.887   7.729  0.3762 -0.0330 -0.2533
16146SOL    HW153123   7.443   5.856   7.787  1.0291  0.3259 -0.8275
16146SOL    HW253124   7.306   5.920   7.789  0.4913 -0.7992  0.3203
16147SOL     OW53125   3.815  11.174  10.311 -0.3233 -0.1528 -0.3759
16147SOL    HW153126   3.774  11.247  10.357  0.9421  1.1023 -1.1482
16147SOL    HW253127   3.750  11.104  10.313 -1.2860  0.7429  1.0309
16148SOL     OW53128  11.108   5.507   2.650  0.7628 -0.5658  0.6249
16148SOL    HW153129  11.093   5.596   2.617  0.5059 -0.4960  0.9173
16148SOL    HW253130  11.186   5.515   2.705  1.3191 -0.7283 -0.1319
16149SOL     OW53131   9.729   6.019   8.219  0.1105  0.0818 -0.2653
16149SOL    HW153132   9.780   5.944   8.253  0.3869  0.3423 -0.0990
16149SOL    HW253133   9.787   6.060   8.155 -0.3799 -0.3571 -1.0040
16150SOL     OW53134  11.724  10.877   4.505 -0.4381 -0.0178 -0.2276
16150SOL    HW153135  11.689  10.822   4.576 -2.6425 -0.6871 -1.7261
16150SOL    HW253136  11.789  10.821   4.462 -0.3490 -0.2350  0.1777
16151SOL     OW53137  11.340   6.137   4.479 -0.4782 -0.1913  0.2406
16151SOL    HW153138  11.364   6.154   4.570 -0.5240 -0.8132  0.3709
16151SOL    HW253139  11.376   6.212   4.431 -1.0723  0.4996  0.8568
16152SOL     OW53140   6.753  11.316   7.025 -0.2447 -0.1160  0.5530
16152SOL    HW153141   6.737  11.224   7.003 -0.9679  0.4053 -1.2586
16152SOL    HW253142   6.842  11.333   6.993 -0.1211 -0.1610  0.8637
16153SOL     OW53143   9.077   3.724   9.488 -0.2297 -0.3828  0.4580
16153SOL    HW153144   9.086   3.629   9.492 -0.9154 -0.4298  1.5517
16153SOL    HW253145   9.061   3.749   9.579  1.5862  0.9595  0.4532
16154SOL     OW53146   9.489   5.435   3.341  0.5550 -0.1935 -0.3642
16154SOL    HW153147   9.507   5.377   3.415 -0.6708 -1.0827 -0.7234
16154SOL    HW253148   9.505   5.523   3.374  2.1631 -0.6967  0.2832
16155SOL     OW53149   2.827   5.223   9.820 -0.1661 -0.0015  0.2774
16155SOL    HW153150   2.889   5.152   9.802 -0.6654  0.0538 -1.9559
16155SOL    HW253151   2.859   5.264   9.900 -0.2486 -3.1573  2.1020
16156SOL     OW53152   8.890   6.484   0.007  0.3744  0.2454 -0.1403
16156SOL    HW153153   8.895   6.393   0.037  1.1599  0.3831  0.1714
16156SOL    HW253154   8.892   6.536   0.088 -0.3149  0.5448 -0.3003
16157SOL     OW53155   5.155   2.744   6.566 -0.2604  0.1506 -0.4844
16157SOL    HW153156   5.124   2.747   6.657 -3.1089  0.3090 -1.3614
16157SOL    HW253157   5.158   2.651   6.545  0.7356  0.0990 -0.1459
16158SOL     OW53158   3.164   8.359   8.140 -0.6442  0.3289 -0.2156
16158SOL    HW153159   3.171   8.425   8.071  0.7051  0.1814 -0.2543
16158SOL    HW253160   3.254   8.350   8.173 -0.5839 -2.1885 -0.8882
16159SOL     OW53161   9.284   4.804   3.032  0.5377  0.4731  0.1948
16159SOL    HW153162   9.374   4.796   3.065  0.1825 -1.5390  0.8183
16159SOL    HW253163   9.294   4.810   2.937  1.3792  2.0395  0.3464
16160SOL     OW53164   0.816   8.496   6.298 -0.6515 -0.0858 -0.7025
16160SOL    HW153165   0.765   8.575   6.313 -0.0747 -0.1341  1.9469
16160SOL    HW253166   0.775   8.429   6.353  2.9015  0.2385  2.7905
16161SOL     OW53167   0.821   6.797   5.292 -0.1415 -0.2120 -0.0179
16161SOL    HW153168   0.916   6.799   5.280 -0.2609 -0.3039 -1.0809
16161SOL    HW253169   0.797   6.887   5.312  0.1856 -0.2226  0.4307
16162SOL     OW53170   7.790   1.535   7.867  0.3187  0.9855 -0.2782
16162SOL    HW153171   7.853   1.590   7.819 -0.6152  1.2833 -1.2044
16162SOL    HW253172   7.730   1.598   7.908  1.3717  0.7502  1.7123
16163SOL     OW53173   6.026   0.794  11.285  0.3010  0.0166  0.1297
16163SOL    HW153174   5.938   0.801  11.249 -0.3357 -1.2405  1.3062
16163SOL    HW253175   6.077   0.750  11.217  0.3702  1.7556 -1.0189
16164SOL     OW53176   6.196   5.901   2.454 -0.4822  0.3010  0.0115
16164SOL    HW153177   6.283   5.872   2.428  0.4542  1.6204  1.4689
16164SOL    HW253178   6.136   5.837   2.415  1.2203 -1.5456  0.2612
16165SOL     OW53179   3.487   5.628   4.690  0.5004 -0.3668 -0.0171
16165SOL    HW153180   3.554   5.671   4.744  0.7813 -0.5847 -0.1905
16165SOL    HW253181   3.501   5.664   4.602  1.2310 -1.3579 -0.3287
16166SOL     OW53182   0.022   9.545   6.608  0.3610 -0.0935 -0.3053
16166SOL    HW153183   0.071   9.490   6.669 -1.9153 -0.8575  0.9643
16166SOL    HW253184  -0.043   9.588   6.662 -0.5060  0.7088 -1.9257
16167SOL     OW53185   0.395   0.438   3.137  0.1424  0.4352 -0.0048
16167SOL    HW153186   0.411   0.416   3.229  0.3291  1.2991  0.1755
16167SOL    HW253187   0.421   0.359   3.089 -0.4046 -0.1950  0.7133
16168SOL     OW53188   4.384   6.858   8.826 -0.8385  0.5113  0.3006
16168SOL    HW153189   4.451   6.925   8.814 -0.8170  0.6583  1.2291
16168SOL    HW253190   4.302   6.901   8.802 -0.7336  0.6460  0.1862
16169SOL     OW53191   7.015   8.626   9.735  0.5745  0.6146 -0.0180
16169SOL    HW153192   6.978   8.593   9.818 -1.5981  2.2526 -0.2603
16169SOL    HW253193   6.977   8.713   9.725  0.6000  0.3716 -2.8574
16170SOL     OW53194   6.605   9.987   3.938 -0.6704 -0.2243 -0.3324
16170SOL    HW153195   6.637  10.076   3.938 -1.2182  0.0028 -1.6080
16170SOL    HW253196   6.510   9.996   3.945 -0.6944 -0.7263  0.0309
16171SOL     OW53197   3.370  10.126   0.225  0.1137 -0.0680  0.2852
16171SOL    HW153198   3.386  10.036   0.254  2.4287  0.1593 -0.0977
16171SOL    HW253199   3.275  10.138   0.236 -0.5280 -2.9942 -0.9762
16172SOL     OW53200   7.645   1.471   0.906 -0.6565  0.0652 -0.7348
16172SOL    HW153201   7.609   1.382   0.900  0.2850 -0.3969  0.3144
16172SOL    HW253202   7.600   1.510   0.981  0.3657 -0.2149  0.0356
16173SOL     OW53203   0.021   5.612   9.896  0.3014  0.1950  0.5144
16173SOL    HW153204   0.086   5.642   9.960  1.4635 -0.4664 -0.3234
16173SOL    HW253205   0.056   5.641   9.812 -1.2959  1.2085  0.1563
16174SOL     OW53206   1.658   8.703   0.043  0.2841 -0.2060  0.3140
16174SOL    HW153207   1.566   8.718   0.020  0.0308 -2.1078 -0.1072
16174SOL    HW253208   1.675   8.613   0.014  2.0574 -0.1536  1.0864
16175SOL     OW53209   8.723   0.283   1.372  0.2860 -0.3377  0.4600
16175SOL    HW153210   8.806   0.320   1.341 -0.7970  1.4211 -0.5050
16175SOL    HW253211   8.693   0.344   1.439 -0.4673 -0.6981  0.4540
16176SOL     OW53212   8.961   8.770   0.216 -0.3111  0.3403 -0.0243
16176SOL    HW153213   8.928   8.811   0.136 -1.2616  0.8939  0.6234
16176SOL    HW253214   8.983   8.681   0.191 -1.1416  0.3353 -0.7754
16177SOL     OW53215   9.182   9.739   6.878  0.0765 -0.0446  0.5437
16177SOL    HW153216   9.193   9.809   6.943  1.4410 -0.7037  1.0699
16177SOL    HW253217   9.151   9.664   6.928 -0.9822  0.0358  0.0453
16178SOL     OW53218   6.766   3.403   2.112  0.6330 -0.2919  0.1098
16178SOL    HW153219   6.811   3.445   2.186 -0.2473  1.4527 -0.2756
16178SOL    HW253220   6.678   3.385   2.145 -0.3491  2.1079 -0.9223
16179SOL     OW53221   7.147   0.347   2.702 -0.4361  0.0161 -0.4514
16179SOL    HW153222   7.193   0.382   2.626  0.2854 -1.5042 -0.7522
16179SOL    HW253223   7.201   0.372   2.776  1.1349 -2.0375 -0.8300
16180SOL     OW53224   2.440   3.165  10.104  0.2400  0.7022 -0.0554
16180SOL    HW153225   2.447   3.238  10.165 -0.4134  0.3837  0.4088
16180SOL    HW253226   2.441   3.087  10.159 -1.5020  0.4453 -0.3440
16181SOL     OW53227   7.337   9.746   6.097 -0.0066 -0.4430 -0.2215
16181SOL    HW153228   7.425   9.770   6.125 -0.6265  1.3795  0.3089
16181SOL    HW253229   7.280   9.809   6.141 -1.4785 -0.9093 -1.3800
16182SOL     OW53230   0.196   0.258  10.719  0.7365 -0.1815  0.7881
16182SOL    HW153231   0.246   0.331  10.757  1.5907 -1.0114  1.3172
16182SOL    HW253232   0.211   0.266  10.625  1.5102 -0.1536  0.9061
16183SOL     OW53233  10.596   7.920   3.116  0.6591 -0.3584  0.6420
16183SOL    HW153234  10.669   7.925   3.178  1.8866  0.0732 -0.7898
16183SOL    HW253235  10.580   8.011   3.091  0.2079 -0.5377  0.2841
16184SOL     OW53236   0.921  11.619   7.689 -0.2938  0.2125 -0.2674
16184SOL    HW153237   1.014  11.595   7.687  0.3152  2.3532 -0.2515
16184SOL    HW253238   0.919  11.700   7.740 -2.0711  0.5916 -0.8883
16185SOL     OW53239   7.800  11.251   2.536  0.6505 -0.7978  0.3901
16185SOL    HW153240   7.807  11.166   2.580  1.0127  0.1216  2.2147
16185SOL    HW253241   7.846  11.311   2.594 -2.0558  1.1927  0.6598
16186SOL     OW53242   2.903   7.409   2.808 -0.3707  0.2536  0.1418
16186SOL    HW153243   2.922   7.497   2.778  0.2778  0.2057  0.4005
16186SOL    HW253244   2.819   7.387   2.767  0.0081  0.5641 -0.8097
16187SOL     OW53245   3.554  10.329   8.371  0.0996  0.4050  0.3727
16187SOL    HW153246   3.510  10.265   8.427  0.5526 -0.9738 -0.7690
16187SOL    HW253247   3.501  10.408   8.379 -1.7766 -0.7531  0.1729
16188SOL     OW53248   9.700  11.731  10.503 -0.2720 -0.0904 -0.4509
16188SOL    HW153249   9.649  11.653  10.525 -0.9680  0.4686 -0.0547
16188SOL    HW253250   9.747  11.752  10.584 -0.2051 -0.0064 -0.5114
16189SOL     OW53251   2.268   0.397   5.187  0.0772 -0.5493 -0.4285
16189SOL    HW153252   2.211   0.464   5.225  2.3600  0.5762  1.2408
16189SOL    HW253253   2.215   0.318   5.187 -1.8931  0.6918 -0.1633
16190SOL     OW53254   8.499  10.307   6.829  0.5854 -0.0876 -0.2781
16190SOL    HW153255   8.540  10.375   6.775  0.6563  1.4405  1.6069
16190SOL    HW253256   8.422  10.350   6.867  0.0367 -1.3991  0.1428
16191SOL     OW53257   3.386   7.999   6.876  0.0590 -0.1575  0.4270
16191SOL    HW153258   3.310   8.045   6.912  0.8312  0.4332  1.3480
16191SOL    HW253259   3.459   8.061   6.887  0.7246 -0.8112 -0.2029
16192SOL     OW53260   0.519  11.061  10.515 -0.0357 -0.5726  0.0520
16192SOL    HW153261   0.531  11.086  10.423 -0.5155  0.4214  0.2487
16192SOL    HW253262   0.575  10.985  10.527  1.2329  0.2208 -0.6608
16193SOL     OW53263  11.514   3.835   3.837  0.3623 -0.1000  0.4449
16193SOL    HW153264  11.567   3.821   3.759 -1.6957 -0.2100 -1.0442
16193SOL    HW253265  11.576   3.858   3.906  2.2764 -0.2092 -1.1728
16194SOL     OW53266  10.241   7.718   8.282  0.2493  0.2744 -0.2022
16194SOL    HW153267  10.331   7.749   8.275  0.6903 -0.9080 -0.0177
16194SOL    HW253268  10.201   7.740   8.198  1.1282 -0.4604 -0.8234
16195SOL     OW53269   9.976   3.478   6.722 -0.4816 -0.4648  0.1308
16195SOL    HW153270   9.915   3.538   6.766 -1.2703 -0.6834 -0.6282
16195SOL    HW253271  10.009   3.421   6.791 -2.1235 -1.1686  0.3789
16196SOL     OW53272   1.669   9.509   9.480  0.2795  0.0577  0.6258
16196SOL    HW153273   1.638   9.527   9.569  1.5407  1.0120  0.9024
16196SOL    HW253274   1.745   9.565   9.470 -0.7013  1.1207 -1.6046
16197SOL     OW53275   0.229  10.915  10.393  0.1493  0.2228 -0.3078
16197SOL    HW153276   0.300  10.894  10.454  0.1121  2.0565  0.4232
16197SOL    HW253277   0.172  10.974  10.442 -1.4716 -0.5797 -1.1578
16198SOL     OW53278  10.746   1.603  11.038 -0.0579  0.5259  0.1124
16198SOL    HW153279  10.791   1.542  10.979 -0.6166 -0.0729  0.2963
16198SOL    HW253280  10.670   1.633  10.989 -2.7364 -2.9173  1.7850
16199SOL     OW53281  11.102   2.079   5.142  0.0315  0.1239 -0.2917
16199SOL    HW153282  11.109   2.004   5.201  0.5826 -1.1979 -1.9445
16199SOL    HW253283  11.072   2.151   5.197  1.9593 -0.6255  1.9097
16200SOL     OW53284   5.749   2.453   6.768 -0.0315  0.1848 -0.0488
16200SOL    HW153285   5.763   2.398   6.845 -0.8074 -1.2627 -0.9056
16200SOL    HW253286   5.739   2.392   6.695 -1.0677  1.4486 -1.0233
16201SOL     OW53287   3.628   6.063   8.037 -0.3949  0.1016  0.2955
16201SOL    HW153288   3.644   6.109   8.120 -2.4891  2.9710 -0.7224
16201SOL    HW253289   3.540   6.027   8.047  0.3117 -1.7441  0.1798
16202SOL     OW53290  10.504   9.929   3.232  0.4638  0.2192 -0.0409
16202SOL    HW153291  10.508   9.872   3.310 -0.2902 -0.2438 -0.3349
16202SOL    HW253292  10.553   9.881   3.166 -0.1362 -0.0762 -0.2765
16203SOL     OW53293   8.261  11.260   7.923  0.7833  0.0987 -0.2617
16203SOL    HW153294   8.290  11.319   7.854 -0.4058  0.0493 -0.8443
16203SOL    HW253295   8.167  11.279   7.932  1.2106  1.3528  2.5827
16204SOL     OW53296  11.085  11.069   5.246  0.2135  1.0973  0.2476
16204SOL    HW153297  11.066  11.159   5.273 -0.5057  2.0555 -3.0590
16204SOL    HW253298  11.180  11.065   5.238  0.2347  1.6158  0.2266
16205SOL     OW53299   4.582  10.273  11.350 -0.0519  0.0698  0.5618
16205SOL    HW153300   4.493  10.257  11.380  0.1112  0.8246  1.4867
16205SOL    HW253301   4.600  10.201  11.289 -0.2557 -1.7587  2.5326
16206SOL     OW53302   2.765   9.087   2.939  0.0011 -0.2669  0.0785
16206SOL    HW153303   2.683   9.057   2.901  0.9219 -0.0188 -2.2304
16206SOL    HW253304   2.823   9.011   2.935  0.0891 -0.2782  1.1781
16207SOL     OW53305   0.613   4.243  10.911 -0.0357 -0.7294  0.1811
16207SOL    HW153306   0.629   4.153  10.939  0.7099 -0.1705  1.6646
16207SOL    HW253307   0.682   4.261  10.848  0.8687 -0.6788  1.1450
16208SOL     OW53308   2.616   2.810   7.234 -0.0104 -0.1679 -0.1962
16208SOL    HW153309   2.706   2.821   7.203  0.2822 -2.1129 -0.1899
16208SOL    HW253310   2.562   2.812   7.155  0.1890 -0.2339 -0.3344
16209SOL     OW53311  11.238   3.657  11.825 -0.0446 -0.2906 -0.0991
16209SOL    HW153312  11.160   3.680  11.877  0.1701  1.9274 -0.6891
16209SOL    HW253313  11.206   3.654  11.735  0.7346  1.7522 -0.4782
16210SOL     OW53314  11.385   9.572   3.724  0.3777 -0.0829  0.0937
16210SOL    HW153315  11.429   9.487   3.724  0.5305 -0.0220  1.3811
16210SOL    HW253316  11.391   9.602   3.814 -0.4564  0.8969 -0.1594
16211SOL     OW53317   4.210   4.947   5.752  0.4016  0.4646  0.1325
16211SOL    HW153318   4.283   5.003   5.781 -0.4326  1.5350  0.2243
16211SOL    HW253319   4.198   4.885   5.823  0.7434  0.7517  0.4464
16212SOL     OW53320   5.054   8.064  10.662  0.0933 -0.1872  0.1342
16212SOL    HW153321   5.143   8.086  10.689  0.0603  1.0342 -0.6792
16212SOL    HW253322   5.007   8.049  10.744  0.6646  0.7182  0.6440
16213SOL     OW53323  10.325   8.530   0.764  0.2333 -0.1121  0.1514
16213SOL    HW153324  10.237   8.501   0.789 -0.0317 -0.8520 -1.5334
16213SOL    HW253325  10.311   8.620   0.732 -0.0150 -0.4130 -0.6101
16214SOL     OW53326  10.491   8.518   7.968  0.2663 -0.0714 -0.0796
16214SOL    HW153327  10.527   8.606   7.975  1.0985 -0.4551  0.7967
16214SOL    HW253328  10.551   8.471   7.911  0.8415 -0.5369  0.8700
16215SOL     OW53329   7.782   2.886   0.610 -0.2631  0.3534 -0.2444
16215SOL    HW153330   7.731   2.958   0.646  1.6430  1.1423  1.0657
16215SOL    HW253331   7.842   2.927   0.547  0.0347 -0.2651 -0.3778
16216SOL     OW53332   6.316   7.369   1.962 -0.0894 -0.0085  0.7137
16216SOL    HW153333   6.303   7.275   1.976 -1.7899  0.0927  0.0157
16216SOL    HW253334   6.295   7.408   2.047  0.3113 -0.2320  0.9176
16217SOL     OW53335  11.172  10.672  10.749  0.4120 -0.2835  0.0450
16217SOL    HW153336  11.182  10.604  10.815  1.4453 -1.1891 -0.9777
16217SOL    HW253337  11.122  10.741  10.792  0.3772 -1.1713  1.4989
16218SOL     OW53338   3.453   9.608   5.818 -0.4763  0.1288 -0.1309
16218SOL    HW153339   3.465   9.539   5.753 -2.2078  0.7392 -1.1590
16218SOL    HW253340   3.500   9.683   5.783  3.3437 -0.9901  2.0386
16219SOL     OW53341   4.421   1.834   5.853 -0.0122  0.2842  0.3257
16219SOL    HW153342   4.380   1.883   5.924 -0.2628  2.5069 -1.2414
16219SOL    HW253343   4.381   1.870   5.773  0.4266 -1.9372 -0.9865
16220SOL     OW53344   9.483   1.389   9.135  0.3485  0.4729  0.0004
16220SOL    HW153345   9.490   1.473   9.089 -0.7771  0.2594 -0.6091
16220SOL    HW253346   9.401   1.396   9.184 -0.5573 -0.8293 -1.2731
16221SOL     OW53347   7.293   9.941   3.300 -0.1210  0.3409  0.1125
16221SOL    HW153348   7.268   9.962   3.210  0.0233 -1.9089 -0.5089
16221SOL    HW253349   7.211   9.948   3.350 -0.8341 -1.1543 -0.7761
16222SOL     OW53350   2.586   5.144  10.531  0.4404 -0.0009  0.7831
16222SOL    HW153351   2.551   5.166  10.617 -0.9832  1.8881 -0.2060
16222SOL    HW253352   2.606   5.228  10.491  1.0691 -0.8392 -0.7377
16223SOL     OW53353   5.919   6.092   6.451  0.6837  0.2369 -0.5691
16223SOL    HW153354   5.916   5.997   6.457 -0.7327  0.3139  0.6469
16223SOL    HW253355   5.928   6.122   6.541  0.3701  1.2639 -0.8588
16224SOL     OW53356   3.760  10.209  10.014 -0.1172  0.0595 -0.0325
16224SOL    HW153357   3.732  10.229  10.104 -0.4824 -1.8708  0.3414
16224SOL    HW253358   3.821  10.135  10.024  1.9839  1.5242 -1.1894
16225SOL     OW53359   6.585   1.265   8.061 -0.5756  0.0922  0.5578
16225SOL    HW153360   6.618   1.302   7.979  2.2242 -0.1304  1.4666
16225SOL    HW253361   6.565   1.341   8.115  1.2056  0.3349  0.9480
16226SOL     OW53362   1.343   8.497   2.178  0.3088 -0.3799  0.3356
16226SOL    HW153363   1.403   8.538   2.240  1.6077  0.2828 -1.2778
16226SOL    HW253364   1.258   8.501   2.222  1.5050 -2.2003  3.1051
16227SOL     OW53365   9.271   4.086   8.561 -0.3406 -0.4802  0.0682
16227SOL    HW153366   9.221   4.054   8.636  0.0325 -1.3937 -0.0596
16227SOL    HW253367   9.304   4.172   8.589 -0.5857 -0.6131  0.7768
16228SOL     OW53368   2.968   7.879   7.895  0.2259 -0.3269 -0.8514
16228SOL    HW153369   3.008   7.861   7.980  0.5162 -1.6635 -1.2577
16228SOL    HW253370   2.932   7.968   7.904  0.8682 -0.1763  0.4217
16229SOL     OW53371   9.043   0.401   8.283 -0.0700  0.1670 -0.1650
16229SOL    HW153372   9.113   0.463   8.263 -0.8728  1.3584  0.6055
16229SOL    HW253373   9.000   0.437   8.360 -1.2795 -0.7434 -0.3810
16230SOL     OW53374   8.153   1.683   6.938  0.0223 -0.2289 -0.2421
16230SOL    HW153375   8.116   1.758   6.984 -1.0104  0.8018 -2.6018
16230SOL    HW253376   8.235   1.665   6.985 -0.4382  1.3874  1.3079
16231SOL     OW53377   1.406   9.494   6.628 -0.3856  0.0853  0.5470
16231SOL    HW153378   1.325   9.544   6.635 -0.5223  0.1055 -0.8581
16231SOL    HW253379   1.470   9.544   6.678 -0.9508  0.7174  0.6453
16232SOL     OW53380  11.524  10.289   7.907  0.7506 -0.2907 -0.5567
16232SOL    HW153381  11.571  10.300   7.824  0.0018  0.9945 -0.8350
16232SOL    HW253382  11.439  10.329   7.892  0.0018 -1.4598  0.3499
16233SOL     OW53383   6.837  11.421  11.410  0.6331 -0.0624  0.3546
16233SOL    HW153384   6.796  11.507  11.423  0.9655 -0.1192  2.0199
16233SOL    HW253385   6.843  11.411  11.315  0.8750  1.8966  0.1247
16234SOL     OW53386  10.272  11.606   6.270 -0.3158 -0.2168 -0.2540
16234SOL    HW153387  10.179  11.627   6.268 -0.7074 -1.6296  1.2255
16234SOL    HW253388  10.275  11.513   6.294  1.4877 -0.0827  0.1600
16235SOL     OW53389  10.895   5.413   9.577  0.4604  0.4353 -0.5058
16235SOL    HW153390  10.988   5.390   9.583  0.2447 -0.2601  0.4584
16235SOL    HW253391  10.852   5.332   9.548  0.5029  1.6427 -4.5867
16236SOL     OW53392   3.527   7.583  10.371 -0.2108  0.1440  0.4408
16236SOL    HW153393   3.525   7.646  10.442 -0.6845 -0.8741  1.3749
16236SOL    HW253394   3.609   7.535  10.383  0.9978  1.6581 -1.2867
16237SOL     OW53395   7.988   4.494   7.828  0.6911 -0.1812 -0.1233
16237SOL    HW153396   7.926   4.560   7.858  2.1000  0.8859  0.5171
16237SOL    HW253397   8.044   4.540   7.765  3.2374  0.0105  2.0829
16238SOL     OW53398   6.178   6.111   6.904 -0.2531  0.1781 -0.1567
16238SOL    HW153399   6.106   6.096   6.966 -0.6134 -0.5733 -0.7384
16238SOL    HW253400   6.257   6.107   6.957 -0.5124 -1.1413  0.1694
16239SOL     OW53401   1.379   6.606   5.765  0.0405  0.1972 -0.4151
16239SOL    HW153402   1.431   6.561   5.698  0.4461  1.8825 -1.2916
16239SOL    HW253403   1.343   6.683   5.720 -0.1536  1.0657  1.1432
16240SOL     OW53404   3.094   5.375   8.701  0.1143  0.2273  0.7509
16240SOL    HW153405   3.170   5.352   8.753 -0.2481 -0.5599  0.9543
16240SOL    HW253406   3.126   5.375   8.610  0.6608  1.2518  0.9344
16241SOL     OW53407   0.643   4.429   8.139 -0.0837 -0.5196  0.2365
16241SOL    HW153408   0.630   4.465   8.227 -0.6027  0.1171 -0.0847
16241SOL    HW253409   0.602   4.343   8.141  1.1445 -1.1004  1.0146
16242SOL     OW53410   8.896   8.741  11.001  0.4589  0.3634 -0.1029
16242SOL    HW153411   8.976   8.782  10.967  0.2522  0.7389 -0.1376
16242SOL    HW253412   8.927   8.681  11.069  0.7952  0.2866 -0.3195
16243SOL     OW53413  11.465   8.178   6.983  0.6036 -0.4040 -0.9536
16243SOL    HW153414  11.535   8.225   6.937 -0.0027  0.4837 -0.9899
16243SOL    HW253415  11.462   8.219   7.070 -0.4966  0.2189 -1.2670
16244SOL     OW53416   8.884   7.407   2.701  0.0699 -0.1444 -0.0835
16244SOL    HW153417   8.793   7.409   2.670 -0.0971 -0.3793  0.3794
16244SOL    HW253418   8.881   7.450   2.786  0.6861  1.3619 -0.7877
16245SOL     OW53419   8.853   4.232   3.004  0.5970  0.3284 -0.1931
16245SOL    HW153420   8.787   4.300   2.991 -0.3881 -0.6264 -0.3990
16245SOL    HW253421   8.921   4.274   3.056  0.3643  1.6699 -0.9253
16246SOL     OW53422   1.057   7.143   8.747  0.1019  0.5696 -0.6809
16246SOL    HW153423   1.143   7.177   8.721 -0.0666  1.0211 -0.6423
16246SOL    HW253424   1.060   7.050   8.722  0.5720  0.5993 -0.7503
16247SOL     OW53425  11.844   7.142   1.026 -0.2196  0.3016 -0.1777
16247SOL    HW153426  11.929   7.097   1.029 -0.3632  0.0607  0.3200
16247SOL    HW253427  11.797   7.109   1.102 -0.7030  0.5565 -0.3655
16248SOL     OW53428   1.437  11.689   6.450  0.9405  0.2425  0.2615
16248SOL    HW153429   1.492  11.683   6.372  2.4219 -0.6461  1.3196
16248SOL    HW253430   1.455  11.777   6.485  2.0888 -0.2070  0.8523
16249SOL     OW53431   7.140   6.278   2.048  0.4411 -0.1778 -0.3982
16249SOL    HW153432   7.153   6.304   2.139 -1.3850  0.0927 -0.1774
16249SOL    HW253433   7.226   6.286   2.008  1.0561  0.7407  1.0374
16250SOL     OW53434   4.894   1.211  11.294 -0.1774  0.0663 -0.6852
16250SOL    HW153435   4.891   1.292  11.344  1.2370 -1.9067  3.0284
16250SOL    HW253436   4.987   1.197  11.276 -0.3637 -0.8478 -1.0204
16251SOL     OW53437   0.597   8.656   1.326  0.2915 -0.2811  0.5260
16251SOL    HW153438   0.548   8.706   1.391  2.8063  1.5467  1.1934
16251SOL    HW253439   0.530   8.622   1.266 -1.8064  1.4438  1.7320
16252SOL     OW53440   1.902   9.371  10.156  0.3555  0.1896 -0.2622
16252SOL    HW153441   1.833   9.432  10.181  0.0389 -0.1584 -0.2816
16252SOL    HW253442   1.984   9.417  10.175  0.1170  0.6021 -0.2412
16253SOL     OW53443   3.441   7.763   3.996  0.4060  0.0062  0.4751
16253SOL    HW153444   3.410   7.760   4.086 -0.1279 -0.0255  0.2970
16253SOL    HW253445   3.526   7.806   4.001  1.2919 -1.7485  1.2264
16254SOL     OW53446   3.427   1.311   6.990 -0.2560 -0.0874  0.0030
16254SOL    HW153447   3.426   1.360   7.073  0.7721 -1.6556  0.9939
16254SOL    HW253448   3.336   1.313   6.960 -0.9501 -0.6279  1.9112
16255SOL     OW53449   4.826   3.997   6.103 -0.1147 -0.5342  0.2889
16255SOL    HW153450   4.790   3.995   6.192 -0.4647  1.7099  0.2520
16255SOL    HW253451   4.789   4.076   6.064  3.2428  0.8421 -0.4466
16256SOL     OW53452   6.494   5.201   7.765  0.0794 -0.1379  0.3248
16256SOL    HW153453   6.429   5.182   7.834  0.6137 -0.2776  0.7976
16256SOL    HW253454   6.466   5.148   7.691  0.6064 -1.5354  1.0832
16257SOL     OW53455   7.093   1.358   5.788  0.0495  0.2036  0.2441
16257SOL    HW153456   7.168   1.416   5.777  0.7132 -0.5527  0.6274
16257SOL    HW253457   7.016   1.413   5.773  0.6657  1.1576  0.5593
16258SOL     OW53458   7.905  11.439   4.232 -0.2278  0.3322 -0.2290
16258SOL    HW153459   7.964  11.488   4.288 -0.7379 -1.6185  2.1679
16258SOL    HW253460   7.869  11.370   4.288 -0.9508 -1.6471 -2.8922
16259SOL     OW53461   3.724  10.609   6.980  0.4655 -0.5092  0.0284
16259SOL    HW153462   3.727  10.658   6.898  0.1675  1.4209  1.1119
16259SOL    HW253463   3.631  10.592   6.994  0.3264  0.7393  0.8050
16260SOL     OW53464   2.266   1.612   0.753  0.9578  1.0128  0.1225
16260SOL    HW153465   2.184   1.578   0.717  0.6692  1.3500  0.4649
16260SOL    HW253466   2.328   1.603   0.680  0.7937  0.1432  0.0673
16261SOL     OW53467   4.811   4.852   1.124  0.0121 -0.0861 -0.2004
16261SOL    HW153468   4.757   4.929   1.105 -0.6505 -0.4529  0.1455
16261SOL    HW253469   4.834   4.817   1.039  2.4798  1.9328 -0.4673
16262SOL     OW53470   7.485   7.542   2.990  0.3547 -0.2316 -0.4324
16262SOL    HW153471   7.429   7.620   2.997  0.0245 -0.3340 -1.5905
16262SOL    HW253472   7.454   7.498   2.911  0.3557 -1.6972  0.3451
16263SOL     OW53473   2.894   8.156   1.985 -0.1151 -0.7151  0.1549
16263SOL    HW153474   2.806   8.192   1.990  0.2813  0.6404 -1.7848
16263SOL    HW253475   2.923   8.152   2.076 -2.0198 -0.8517  0.8019
16264SOL     OW53476   5.444   4.653   0.697 -0.4037  0.4435  0.1539
16264SOL    HW153477   5.378   4.590   0.725  0.0373 -0.8961 -1.6231
16264SOL    HW253478   5.510   4.600   0.651  1.6391  1.8087  1.3595
16265SOL     OW53479  11.512   8.036   8.131 -0.1561 -0.0824 -0.0856
16265SOL    HW153480  11.509   8.123   8.170  1.4257  0.5993 -1.3543
16265SOL    HW253481  11.564   8.048   8.051  2.3438 -2.6515  0.9942
16266SOL     OW53482   6.802   7.437   0.704 -0.1127  0.5733 -0.2702
16266SOL    HW153483   6.855   7.508   0.740 -1.1360  0.8272  0.8046
16266SOL    HW253484   6.716   7.447   0.747 -0.4239 -1.0178 -0.4580
16267SOL     OW53485  11.454  10.699  10.413 -0.7471 -0.4272  0.5626
16267SOL    HW153486  11.507  10.679  10.490 -1.6542 -1.6632  0.9016
16267SOL    HW253487  11.372  10.652  10.428 -2.2084  1.8572  0.3574
16268SOL     OW53488   9.147   5.064   1.658 -0.2041  0.4575  0.5417
16268SOL    HW153489   9.158   5.053   1.752 -2.2117  0.7802  0.8632
16268SOL    HW253490   9.087   4.994   1.633  0.8888 -0.0795 -0.6481
16269SOL     OW53491   1.610   3.690   9.519  0.0197  0.2548 -0.1898
16269SOL    HW153492   1.656   3.759   9.568 -3.1261  0.1811  3.3150
16269SOL    HW253493   1.523   3.727   9.504 -1.0439 -2.1148 -0.1737
16270SOL     OW53494   3.929   8.058   6.433  0.8675 -0.0329  0.2753
16270SOL    HW153495   3.913   7.987   6.370  1.5320  0.1954 -0.1561
16270SOL    HW253496   3.984   8.120   6.386  1.3157  0.1787  1.0657
16271SOL     OW53497   3.960  10.961   5.414 -0.6464  0.5137 -0.0787
16271SOL    HW153498   3.927  10.897   5.351  0.2851 -0.3286  0.2733
16271SOL    HW253499   3.910  11.041   5.395 -0.9779  0.0339 -1.3185
16272SOL     OW53500   0.812  10.103   4.506 -0.2309  0.0396 -0.8850
16272SOL    HW153501   0.773  10.063   4.584  1.3499 -0.0474 -0.1008
16272SOL    HW253502   0.851  10.185   4.537  1.2981 -0.4744 -1.3184
16273SOL     OW53503   3.971   2.614   7.832 -0.1526  0.6629 -0.9994
16273SOL    HW153504   3.952   2.606   7.925  0.6796 -0.1527 -0.8783
16273SOL    HW253505   3.929   2.696   7.805 -1.1980  0.4399 -0.1246
16274SOL     OW53506   7.074  11.917   7.544 -0.2866 -0.1864 -0.3108
16274SOL    HW153507   7.031  11.878   7.620  1.3330 -2.7762 -0.6166
16274SOL    HW253508   7.166  11.923   7.569  0.2471 -0.8877 -1.9387
16275SOL     OW53509  11.894   6.063   5.391  0.2484 -0.2712 -0.1955
16275SOL    HW153510  11.857   6.131   5.447 -1.9947 -0.7304 -0.9823
16275SOL    HW253511  11.915   5.991   5.450  2.7931  1.0569  0.6677
16276SOL     OW53512   1.118   6.696   8.403 -0.1041  0.0497  0.5277
16276SOL    HW153513   1.046   6.684   8.465  0.1582 -2.1528  0.4873
16276SOL    HW253514   1.165   6.612   8.404  0.4936  0.2829 -1.8985
16277SOL     OW53515   2.230   9.476   2.374  0.3109 -0.5346  0.5822
16277SOL    HW153516   2.262   9.563   2.396  0.1449 -0.4881  0.6346
16277SOL    HW253517   2.135   9.483   2.376  0.2699 -1.0994  2.1613
16278SOL     OW53518   4.635   1.356   7.442  0.3350 -0.2679  0.0961
16278SOL    HW153519   4.684   1.275   7.455 -1.3605 -0.9008  3.8553
16278SOL    HW253520   4.697   1.425   7.465  0.7184 -0.7762  0.6323
16279SOL     OW53521   1.406   8.881   2.394 -0.0549  0.5672  0.0780
16279SOL    HW153522   1.482   8.916   2.440  0.5264  0.1472 -0.5564
16279SOL    HW253523   1.343   8.861   2.464  1.6633 -2.2061  0.9971
16280SOL     OW53524   5.884   8.443   5.333 -0.9532  0.0552 -0.6913
16280SOL    HW153525   5.825   8.510   5.298 -1.0478 -0.9894 -2.6614
16280SOL    HW253526   5.938   8.417   5.258  0.2053 -0.9153  0.4341
16281SOL     OW53527   9.970   2.878   8.399 -0.5196  1.0440  0.1421
16281SOL    HW153528   9.986   2.803   8.341 -0.4072  1.1785 -0.0010
16281SOL    HW253529   9.986   2.954   8.344  3.0448  1.2290  1.2482
16282SOL     OW53530   8.929   2.204   6.677  0.5008 -0.1018  0.0372
16282SOL    HW153531   8.899   2.138   6.615  0.7010  2.8326 -3.5050
16282SOL    HW253532   9.022   2.186   6.688  0.1473 -1.6040  0.8793
16283SOL     OW53533   0.853   2.710   6.798 -0.2200 -0.1148  0.1071
16283SOL    HW153534   0.930   2.758   6.830 -0.1195 -0.9905  1.2708
16283SOL    HW253535   0.847   2.634   6.857  0.6051 -2.4636 -2.5993
16284SOL     OW53536   6.048   2.332   9.919  0.1126  0.0373  0.2439
16284SOL    HW153537   5.996   2.411   9.935  2.1665  1.4080  0.5128
16284SOL    HW253538   5.993   2.278   9.863 -1.2354  1.8025 -0.2195
16285SOL     OW53539   8.571  11.699   4.084 -0.1035 -0.7068  0.2408
16285SOL    HW153540   8.662  11.669   4.086  0.1326 -0.1286 -0.9626
16285SOL    HW253541   8.522  11.624   4.050  0.1274 -0.5698 -0.4084
16286SOL     OW53542   6.996   7.564   1.463 -0.1816 -0.0235 -0.3589
16286SOL    HW153543   6.908   7.552   1.498 -0.1075  1.9505  0.6122
16286SOL    HW253544   7.054   7.552   1.538  0.1068  2.2706 -0.1570
16287SOL     OW53545   5.286   9.262  10.191  0.3319 -0.1057  0.2498
16287SOL    HW153546   5.201   9.296  10.220  0.4643 -0.1995  0.7590
16287SOL    HW253547   5.277   9.253  10.096  0.3071  1.4046  0.0832
16288SOL     OW53548   7.788   6.500   1.127 -0.3060  0.4359 -0.0786
16288SOL    HW153549   7.812   6.591   1.145 -0.0724  0.2917  0.3510
16288SOL    HW253550   7.809   6.453   1.208 -2.8516  0.4420  0.6607
16289SOL     OW53551   8.151   0.579   6.472  0.0174  0.1439  0.0316
16289SOL    HW153552   8.207   0.617   6.404  1.4727 -1.2590  0.3959
16289SOL    HW253553   8.064   0.615   6.453  0.3544 -0.2080 -2.5951
16290SOL     OW53554   5.104   0.922   2.273  0.4852  0.1537 -0.5057
16290SOL    HW153555   5.122   0.895   2.363 -0.7484  1.5942  0.2436
16290SOL    HW253556   5.015   0.957   2.277  0.4559  0.3538 -2.2737
16291SOL     OW53557   7.019   3.473  10.581  0.2362 -0.0155  0.5594
16291SOL    HW153558   6.976   3.529  10.646 -0.2636 -0.1476  0.3400
16291SOL    HW253559   6.973   3.389  10.586  2.3033 -1.1490  2.3841
16292SOL     OW53560   9.892  10.678   2.551  0.3066 -0.3271  0.6033
16292SOL    HW153561   9.826  10.746   2.541  0.6666  0.3016  2.2583
16292SOL    HW253562   9.844  10.601   2.581  0.2722  0.0566  1.5597
16293SOL     OW53563   9.765   1.500  11.423 -0.1559 -0.5443  0.3573
16293SOL    HW153564   9.686   1.552  11.437  0.6017  0.5266  0.7861
16293SOL    HW253565   9.750   1.455  11.340 -0.4033  1.2194 -0.6013
16294SOL     OW53566   3.772  11.227  11.484  0.5279 -0.3737 -0.1681
16294SOL    HW153567   3.694  11.273  11.514 -0.4109 -2.9673  1.7777
16294SOL    HW253568   3.829  11.224  11.561  0.6772 -2.0801 -0.3031
16295SOL     OW53569   9.641  10.275   4.731 -0.1961  0.3921  0.1410
16295SOL    HW153570   9.632  10.264   4.636  1.0157  1.2054 -0.0828
16295SOL    HW253571   9.728  10.314   4.743 -0.7230  1.1994  1.5263
16296SOL     OW53572   1.297   1.521   6.641  0.0167 -0.3813 -0.0997
16296SOL    HW153573   1.304   1.574   6.562  1.9856 -1.1439 -0.4843
16296SOL    HW253574   1.203   1.521   6.661 -0.3623  0.9569 -1.6294
16297SOL     OW53575   0.449   0.807   3.912  0.1977 -0.1252  0.3035
16297SOL    HW153576   0.540   0.829   3.933  0.2513 -0.1353  0.0876
16297SOL    HW253577   0.398   0.879   3.949  0.3180  0.0174  0.1967
16298SOL     OW53578   4.853   7.529   2.602  0.0278 -0.1901 -0.6903
16298SOL    HW153579   4.808   7.457   2.557  0.1310  0.6208 -2.1447
16298SOL    HW253580   4.788   7.599   2.605 -0.1206 -0.3572  0.8447
16299SOL     OW53581  11.805   8.756   0.738 -0.4362  0.1565  0.7005
16299SOL    HW153582  11.720   8.712   0.726  0.1151 -0.7812  0.0338
16299SOL    HW253583  11.858   8.724   0.665  0.6421  0.3629  1.3811
16300SOL     OW53584   7.421  10.894   2.406 -0.2721  0.1593 -0.7719
16300SOL    HW153585   7.465  10.914   2.488  1.1017  2.0426 -1.8861
16300SOL    HW253586   7.342  10.847   2.432  0.7140 -0.3527  1.5188
16301SOL     OW53587   0.809   0.945   1.780  0.0607 -0.4501 -0.1807
16301SOL    HW153588   0.733   0.919   1.832 -0.0413  0.5312  0.1945
16301SOL    HW253589   0.790   0.914   1.692 -0.3906 -0.9513  0.0896
16302SOL     OW53590  10.559   0.902  10.830  0.1366 -0.4542 -0.1240
16302SOL    HW153591  10.504   0.891  10.908 -0.6968  1.0784 -0.4575
16302SOL    HW253592  10.600   0.817  10.817  0.8981 -0.5357  2.4297
16303SOL     OW53593  10.721   2.271   4.512  0.0714  0.3905  0.0542
16303SOL    HW153594  10.633   2.251   4.479  0.1409 -0.5697  0.4242
16303SOL    HW253595  10.707   2.291   4.605  0.4164 -1.3921  0.5341
16304SOL     OW53596   5.144   3.784   2.177 -0.2485 -0.5697 -0.2020
16304SOL    HW153597   5.110   3.872   2.195  0.9133  0.0095 -0.7493
16304SOL    HW253598   5.068   3.727   2.190 -0.8841  0.4313  0.7640
16305SOL     OW53599   9.339   1.463   7.612 -0.1165 -0.9814  0.3066
16305SOL    HW153600   9.280   1.458   7.687 -0.4654 -1.7251  0.0006
16305SOL    HW253601   9.333   1.553   7.582 -0.7299 -0.9290  0.5761
16306SOL     OW53602   3.054   2.863   1.830 -0.1123  0.1796 -0.1490
16306SOL    HW153603   2.980   2.914   1.795 -0.7671 -0.4994  0.2262
16306SOL    HW253604   3.035   2.853   1.923  0.3255 -0.2288 -0.1005
16307SOL     OW53605   8.161  11.370   4.408 -0.1152 -0.1078 -0.0428
16307SOL    HW153606   8.098  11.312   4.450  0.5496 -0.3515  0.6182
16307SOL    HW253607   8.231  11.380   4.471  0.9891 -0.6172 -1.1457
16308SOL     OW53608   6.430   8.736   3.495  0.0289 -0.1064  0.1748
16308SOL    HW153609   6.397   8.801   3.557 -0.4003 -1.2998  1.2292
16308SOL    HW253610   6.480   8.675   3.549  1.7268  0.1517 -1.0048
16309SOL     OW53611   2.117  10.538   2.546  0.3044 -0.2786 -0.2455
16309SOL    HW153612   2.110  10.617   2.599  0.6195  0.6073 -1.5061
16309SOL    HW253613   2.029  10.522   2.513  0.3054 -0.2865 -0.2444
16310SOL     OW53614   3.296   0.324   0.550  0.1205 -0.4911 -0.5854
16310SOL    HW153615   3.258   0.347   0.635  0.3666 -2.2407  0.0393
16310SOL    HW253616   3.369   0.385   0.539 -1.2385  1.2080 -0.6013
16311SOL     OW53617   0.499   2.551   2.466 -0.0619 -0.1997  0.9734
16311SOL    HW153618   0.418   2.505   2.442  0.6143 -1.4731  1.0515
16311SOL    HW253619   0.470   2.640   2.487 -1.3330 -0.4046  0.2329
16312SOL     OW53620   2.694   6.213   1.617 -0.2274 -0.1988 -0.5369
16312SOL    HW153621   2.768   6.267   1.642  1.4037 -1.6568 -1.8992
16312SOL    HW253622   2.629   6.275   1.585  0.0409  1.1788  1.4312
16313SOL     OW53623   5.276  10.197   4.924  0.7475 -0.2851  0.0909
16313SOL    HW153624   5.221  10.141   4.978  0.2257  0.1154 -0.0098
16313SOL    HW253625   5.355  10.212   4.976  1.0558 -1.4055 -0.0369
16314SOL     OW53626   7.364   8.935   0.826 -0.0618  0.1317 -0.6807
16314SOL    HW153627   7.284   8.986   0.818  0.1078  0.9290  1.8324
16314SOL    HW253628   7.353   8.863   0.764 -2.1313  0.9470 -1.3415
16315SOL     OW53629   0.166   4.005   9.211 -0.1787  0.4229 -0.1819
16315SOL    HW153630   0.145   3.921   9.171 -0.5990  0.3931  0.0938
16315SOL    HW253631   0.147   4.070   9.143 -1.6166  0.4331  0.1975
16316SOL     OW53632   4.325   6.276   0.889 -0.3489 -0.4211 -0.1147
16316SOL    HW153633   4.319   6.218   0.965  1.1267 -0.6618 -0.1634
16316SOL    HW253634   4.396   6.336   0.909 -0.2687 -0.1674 -1.0901
16317SOL     OW53635   8.022   1.309   3.445  0.6372 -0.3492  0.4847
16317SOL    HW153636   8.117   1.307   3.448  0.6266 -0.3363  0.7804
16317SOL    HW253637   7.998   1.238   3.385  0.8783  0.4234 -0.5704
16318SOL     OW53638   8.638   3.657   4.655 -0.1621  0.2071 -0.2512
16318SOL    HW153639   8.571   3.593   4.632  0.0939 -1.2612  2.5485
16318SOL    HW253640   8.590   3.726   4.702  0.0161  0.0616  0.1564
16319SOL     OW53641   2.595   4.456   5.792 -0.4559  0.4638  0.1358
16319SOL    HW153642   2.580   4.550   5.787  0.7893  0.6836  0.3244
16319SOL    HW253643   2.560   4.422   5.710 -1.9684  0.9181  0.5585
16320SOL     OW53644   2.520   3.505   8.912 -0.1150  0.3334 -0.0004
16320SOL    HW153645   2.538   3.417   8.879  1.7233  0.6425  0.0476
16320SOL    HW253646   2.488   3.491   9.001  0.5908 -0.2702  0.1675
16321SOL     OW53647   0.932   0.851   7.188  0.7035 -0.2251  0.7992
16321SOL    HW153648   0.904   0.761   7.172  0.0520 -0.2095  1.7615
16321SOL    HW253649   1.027   0.845   7.202  0.8129 -0.6186 -0.0872
16322SOL     OW53650   2.659   3.247   2.291 -0.1418  0.3581 -0.8328
16322SOL    HW153651   2.678   3.341   2.284  0.4180  0.1862 -1.7155
16322SOL    HW253652   2.731   3.212   2.343  0.0782  0.2926 -1.1768
16323SOL     OW53653   6.941   8.566  10.006 -0.1597 -0.2379  0.2932
16323SOL    HW153654   7.004   8.507   9.964 -0.4997 -0.2358 -0.2306
16323SOL    HW253655   6.976   8.581  10.094  0.9059  0.2872 -0.2154
16324SOL     OW53656   6.729   7.876   7.916 -0.5515 -0.0803 -0.8093
16324SOL    HW153657   6.791   7.942   7.946  0.1671 -0.2103 -1.9517
16324SOL    HW253658   6.783   7.811   7.870 -1.3188 -1.1413 -0.2725
16325SOL     OW53659   2.886   7.314   3.466 -0.0439 -0.0903 -0.1996
16325SOL    HW153660   2.851   7.315   3.377  2.7058 -1.4019 -1.4192
16325SOL    HW253661   2.862   7.227   3.500  2.1470 -1.1751 -1.2046
16326SOL     OW53662  10.708   1.695  10.016  0.1885 -0.5542  0.3174
16326SOL    HW153663  10.751   1.705   9.930  1.1057 -0.5456  0.7634
16326SOL    HW253664  10.693   1.785  10.046 -0.4377 -0.5568  0.0244
16327SOL     OW53665   5.266   2.264   4.427 -0.3816  0.1111  0.6355
16327SOL    HW153666   5.209   2.328   4.470  0.2795  0.1028  1.5509
16327SOL    HW253667   5.212   2.229   4.355 -1.7164 -0.2596  1.7670
16328SOL     OW53668   1.578   6.252  10.809 -0.1765 -0.4149  0.2889
16328SOL    HW153669   1.532   6.175  10.774 -0.1065  0.6622 -2.3855
16328SOL    HW253670   1.613   6.296  10.732 -1.3205  3.0367  1.5682
16329SOL     OW53671   9.573   0.936   1.438  0.0707 -0.0017 -0.4002
16329SOL    HW153672   9.629   0.933   1.516 -2.3010  0.4135  1.4172
16329SOL    HW253673   9.588   1.023   1.401  1.2309 -0.2088 -0.4534
16330SOL     OW53674   8.459   0.785   7.704 -0.0999 -0.5934 -0.0139
16330SOL    HW153675   8.480   0.877   7.718  1.9698 -0.9549 -0.4024
16330SOL    HW253676   8.483   0.742   7.786 -0.6130 -0.8711 -0.0021
16331SOL     OW53677   7.996  11.862   3.364  0.1629  0.3424 -0.7032
16331SOL    HW153678   7.911  11.890   3.398 -0.6353 -0.7407 -1.7087
16331SOL    HW253679   8.053  11.938   3.376 -0.5348  0.6020  1.3350
16332SOL     OW53680   6.081   1.898  11.920 -0.0677  0.1090 -0.1668
16332SOL    HW153681   6.114   1.988  11.918 -1.7431  0.7894  0.6756
16332SOL    HW253682   6.094   1.869  12.010  0.2995 -0.4376 -0.3922
16333SOL     OW53683   6.588  11.777   2.020  0.0962 -0.6425 -0.4247
16333SOL    HW153684   6.534  11.855   2.037 -0.0675 -0.9713  0.6590
16333SOL    HW253685   6.671  11.797   2.062  0.5765 -0.4474 -1.4469
16334SOL     OW53686  11.992   3.101  11.413  0.3043  0.5403 -0.5669
16334SOL    HW153687  12.063   3.115  11.475 -0.2801  0.4024  0.1366
16334SOL    HW253688  12.027   3.134  11.330  1.8159 -1.0973 -0.6237
16335SOL     OW53689   7.238   0.492   3.665 -0.8283 -0.2155 -0.0462
16335SOL    HW153690   7.213   0.576   3.705  0.5838  0.8168 -1.2281
16335SOL    HW253691   7.162   0.435   3.680 -1.5397  1.0356  1.4156
16336SOL     OW53692  10.125   3.059   7.791  0.5013 -0.3462  0.1029
16336SOL    HW153693  10.198   3.062   7.852  0.0016  1.3643  0.6659
16336SOL    HW253694  10.163   3.082   7.706  0.8652 -0.9238  0.1033
16337SOL     OW53695  11.393   8.698  10.284  0.2339 -0.4330  0.0709
16337SOL    HW153696  11.414   8.621  10.337  0.9196  0.4502  1.1211
16337SOL    HW253697  11.407   8.773  10.343 -0.5935  0.4932 -0.8648
16338SOL     OW53698   0.976   0.504   9.743 -0.5891  0.4971  0.0734
16338SOL    HW153699   1.018   0.423   9.772  0.8258  0.7773 -1.1070
16338SOL    HW253700   0.945   0.545   9.823  0.5109 -0.2125  0.8880
16339SOL     OW53701   0.758   9.379   9.696 -0.6428 -0.3563 -0.0614
16339SOL    HW153702   0.817   9.350   9.765 -1.0534 -1.6924 -0.2594
16339SOL    HW253703   0.705   9.303   9.674  0.5641 -0.5019 -2.9750
16340SOL     OW53704   1.557  11.998   9.209  0.0306  0.0676  0.4862
16340SOL    HW153705   1.564  12.093   9.224 -0.5795  0.1523  0.2856
16340SOL    HW253706   1.506  11.991   9.128 -1.0491 -0.4534  1.1988
16341SOL     OW53707   7.538  10.521   2.033  0.2609  0.0925  0.3782
16341SOL    HW153708   7.624  10.562   2.025  0.3408 -0.2447 -0.6942
16341SOL    HW253709   7.494  10.570   2.101  0.7930  1.1838 -0.0438
16342SOL     OW53710   0.016   8.158  10.064  0.0941 -0.0089  0.2201
16342SOL    HW153711   0.104   8.120  10.059  0.1963  0.1933  0.4332
16342SOL    HW253712   0.018   8.229  10.001 -0.3817 -0.9066 -0.8269
16343SOL     OW53713   2.576   8.846   1.130  0.6069  0.0349 -0.0319
16343SOL    HW153714   2.601   8.755   1.150  1.1102  0.2690  0.4572
16343SOL    HW253715   2.482   8.842   1.113  0.5228 -0.4994  0.5009
16344SOL     OW53716   2.535  11.053   5.509  0.0663 -0.4623  0.5788
16344SOL    HW153717   2.456  11.050   5.455 -0.3116 -1.4670  1.1506
16344SOL    HW253718   2.539  11.143   5.542 -0.9783 -0.4621  0.7298
16345SOL     OW53719   4.256   6.359   2.245 -0.2543 -0.3941 -0.0188
16345SOL    HW153720   4.303   6.308   2.179  0.2794  2.0981 -1.7212
16345SOL    HW253721   4.318   6.427   2.271 -0.6504 -1.0034  2.7571
16346SOL     OW53722   4.396   9.699   5.853  0.5660 -0.2948 -0.1211
16346SOL    HW153723   4.352   9.783   5.841 -0.6013 -1.0187 -1.1789
16346SOL    HW253724   4.378   9.651   5.772  1.6099 -1.3914  0.2708
16347SOL     OW53725   2.701   5.737  11.606  0.4692 -0.3861  0.1066
16347SOL    HW153726   2.628   5.701  11.657  1.4294 -0.6175  1.3562
16347SOL    HW253727   2.777   5.685  11.632  1.2730  0.4551 -0.4734
16348SOL     OW53728   9.965   2.838   4.393  0.2873  0.0723 -0.1410
16348SOL    HW153729  10.039   2.777   4.387  0.0470 -0.1174 -1.8918
16348SOL    HW253730   9.942   2.840   4.486  1.8742 -0.5984  0.2935
16349SOL     OW53731   5.775   5.026   8.347 -0.0885  0.3104  0.3520
16349SOL    HW153732   5.760   5.120   8.349 -0.3386  0.3014  3.1526
16349SOL    HW253733   5.861   5.016   8.307  0.0518  1.7299  0.2567
16350SOL     OW53734   2.990   8.996   5.742 -0.3352 -0.3482 -0.2538
16350SOL    HW153735   3.011   9.085   5.713  0.0425  0.0170  1.0428
16350SOL    HW253736   3.031   8.939   5.677 -0.1003  0.4276 -0.7992
16351SOL     OW53737   6.011   8.679   2.868 -0.4105 -0.2577 -0.1265
16351SOL    HW153738   6.055   8.737   2.805  0.7260 -0.1228  0.7667
16351SOL    HW253739   6.020   8.724   2.952 -0.7483 -1.0702  0.3540
16352SOL     OW53740   1.313   4.985   8.148  0.8158  0.4192 -0.1753
16352SOL    HW153741   1.360   5.044   8.089  0.6374  0.9427  0.1905
16352SOL    HW253742   1.313   5.031   8.233  0.2711  0.1043  0.0027
16353SOL     OW53743  11.964   4.561   1.306  0.0015  1.1279 -0.2158
16353SOL    HW153744  11.895   4.506   1.269 -1.1308  3.5699 -2.0066
16353SOL    HW253745  12.016   4.501   1.359 -3.5505 -0.8216  1.3994
16354SOL     OW53746   7.669   7.566   7.288 -0.0989 -0.0442 -0.4632
16354SOL    HW153747   7.609   7.604   7.352  0.6584 -0.8448  0.7815
16354SOL    HW253748   7.749   7.548   7.338  0.7957 -0.0104 -1.8206
16355SOL     OW53749   6.208  10.042  11.563 -0.0790 -0.0214  0.1539
16355SOL    HW153750   6.213  10.137  11.565 -1.5330  0.0856 -0.2990
16355SOL    HW253751   6.280  10.015  11.507 -0.7580  0.9311 -1.2230
16356SOL     OW53752   6.358   4.110   4.383  0.2291 -0.3225  0.1678
16356SOL    HW153753   6.305   4.120   4.461 -0.9787  1.0487 -0.7754
16356SOL    HW253754   6.319   4.035   4.337  0.5611 -0.7423  0.5519
16357SOL     OW53755   0.238   5.327   6.562 -0.2510  0.5643 -0.4734
16357SOL    HW153756   0.259   5.383   6.637 -0.1546  0.5142 -0.4626
16357SOL    HW253757   0.195   5.251   6.601  1.4116 -0.3235 -0.2643
16358SOL     OW53758   9.012   8.077   9.545  0.4992  0.3505 -0.1595
16358SOL    HW153759   8.954   8.153   9.542 -1.5289 -1.1334 -3.0986
16358SOL    HW253760   9.074   8.091   9.473  1.8307  0.4047  0.9547
16359SOL     OW53761   6.860   7.625  10.090 -0.0899  0.6673  0.0652
16359SOL    HW153762   6.863   7.530  10.078 -0.5444  0.5418  0.8816
16359SOL    HW253763   6.770   7.649  10.069 -0.1463  0.8238  0.4720
16360SOL     OW53764   3.994   0.709   3.612 -0.4045  0.2068 -0.0853
16360SOL    HW153765   4.068   0.762   3.582  1.4270 -1.4343  1.2300
16360SOL    HW253766   4.001   0.710   3.708  0.9278 -3.7493  0.0572
16361SOL     OW53767   2.397   5.500   0.293 -0.0753 -0.3097 -0.6323
16361SOL    HW153768   2.489   5.484   0.313 -0.3453  0.3273  1.3295
16361SOL    HW253769   2.356   5.414   0.298  0.1763 -0.4008 -0.0595
16362SOL     OW53770   5.981   4.716   5.827 -0.1046 -0.2675  0.0747
16362SOL    HW153771   5.983   4.768   5.907 -0.0587 -0.2730  0.0772
16362SOL    HW253772   5.980   4.625   5.858  0.8548 -0.2944  0.0606
16363SOL     OW53773  10.753  11.203   6.171  0.0166 -0.1202  0.5304
16363SOL    HW153774  10.767  11.298   6.175  1.5708 -0.1409 -2.1353
16363SOL    HW253775  10.682  11.192   6.108  1.2082 -0.7619 -0.7349
16364SOL     OW53776   9.831   3.116   6.748  0.6833  0.1306 -0.1536
16364SOL    HW153777   9.886   3.155   6.681  1.4595  0.3776  0.6105
16364SOL    HW253778   9.884   3.118   6.827 -1.0231  1.9814  1.0460
16365SOL     OW53779   7.932   3.657   1.867 -0.5175 -0.0645 -0.0896
16365SOL    HW153780   8.000   3.693   1.811  2.1174 -2.4580  1.2742
16365SOL    HW253781   7.928   3.564   1.843 -1.4266 -0.5203  1.6297
16366SOL     OW53782   1.044   1.103   3.045  0.3774 -0.3681 -0.0678
16366SOL    HW153783   1.042   1.197   3.062 -2.1563 -0.1006 -1.3285
16366SOL    HW253784   0.964   1.070   3.086  0.2558 -1.6376 -1.2610
16367SOL     OW53785   1.966   9.742   1.752  0.0127  0.5142 -0.1995
16367SOL    HW153786   1.913   9.663   1.764 -1.2093  1.2185 -0.8491
16367SOL    HW253787   1.941   9.775   1.666  1.3472  0.9969 -0.4236
16368SOL     OW53788   9.986   6.092   3.492  0.4656 -0.2899 -0.4541
16368SOL    HW153789   9.897   6.100   3.529  0.2406  0.9594 -1.2037
16368SOL    HW253790  10.037   6.052   3.562 -0.3803  0.2725  0.5238
16369SOL     OW53791   9.427   3.298  10.154 -0.1384  0.6268 -0.2990
16369SOL    HW153792   9.443   3.391  10.166 -0.6603  0.7306 -0.3621
16369SOL    HW253793   9.510   3.262  10.126  0.3457  0.8958  0.7399
16370SOL     OW53794   6.117   2.303   4.689 -0.0735  0.0619  0.7575
16370SOL    HW153795   6.081   2.234   4.633 -1.6208  2.1493 -0.9622
16370SOL    HW253796   6.144   2.372   4.629 -2.7996  2.9171  2.4786
16371SOL     OW53797   1.095   2.476   9.917  0.1323 -0.1832  0.2216
16371SOL    HW153798   1.136   2.437   9.840  0.5910 -1.5431  1.1130
16371SOL    HW253799   1.065   2.561   9.887  0.3557 -0.6427 -1.4454
16372SOL     OW53800   9.965   3.512   9.007 -0.1610 -0.6327 -0.0468
16372SOL    HW153801   9.976   3.454   8.931 -2.5183 -1.1916 -0.0534
16372SOL    HW253802  10.051   3.514   9.048  0.8263 -1.4594 -1.9243
16373SOL     OW53803   2.904   7.694   0.369 -0.1926  0.1229 -0.2666
16373SOL    HW153804   2.826   7.692   0.313 -0.4366 -1.0332  0.0787
16373SOL    HW253805   2.927   7.602   0.381  0.2706  0.3697  0.9537
16374SOL     OW53806   0.813   5.049   1.978  0.2993 -0.4676  0.1163
16374SOL    HW153807   0.839   5.074   1.890  0.9017 -0.2972  0.3438
16374SOL    HW253808   0.756   5.120   2.008 -2.3479 -1.8470 -1.2055
16375SOL     OW53809   1.289   5.907   2.453  0.0255 -0.2861 -0.0759
16375SOL    HW153810   1.313   5.989   2.408 -0.3059 -0.8324 -1.2763
16375SOL    HW253811   1.337   5.839   2.406 -1.6145 -1.0626 -0.6758
16376SOL     OW53812   3.083  10.060   5.354  0.4221  0.1305  0.3672
16376SOL    HW153813   3.015  10.066   5.288  0.9803 -2.1201 -0.4977
16376SOL    HW253814   3.049   9.997   5.418  0.9875  0.2681  0.8110
16377SOL     OW53815   4.240   6.021   1.469  0.3634  0.0951 -0.1169
16377SOL    HW153816   4.194   6.078   1.530 -2.4280 -3.0432  1.0696
16377SOL    HW253817   4.184   6.018   1.392  0.6238 -0.7309 -0.2851
16378SOL     OW53818   9.261   1.796   3.826 -0.2743 -0.3688 -0.3379
16378SOL    HW153819   9.259   1.809   3.731 -2.9510 -0.0684 -0.3317
16378SOL    HW253820   9.305   1.873   3.860 -0.1511 -0.0097 -1.2841
16379SOL     OW53821  11.440   2.507  10.721  0.4568 -0.0517  0.5466
16379SOL    HW153822  11.430   2.490  10.627 -0.0984  1.8552  0.2081
16379SOL    HW253823  11.413   2.598  10.731  1.6942  0.1559  2.3724
16380SOL     OW53824   5.785   2.813   7.247 -0.7156  0.4614 -0.1760
16380SOL    HW153825   5.721   2.743   7.251 -0.1342 -0.1730 -1.3701
16380SOL    HW253826   5.817   2.823   7.336 -1.0373 -0.5666  0.0589
16381SOL     OW53827   8.222   9.225   3.827 -0.5287 -0.4675  0.0424
16381SOL    HW153828   8.293   9.166   3.803  0.5162  0.3781  0.9185
16381SOL    HW253829   8.203   9.274   3.747  0.5393 -0.0505  0.0334
16382SOL     OW53830   5.849   6.290   5.436 -0.8970 -0.7004 -0.2824
16382SOL    HW153831   5.782   6.316   5.499 -1.5431 -1.2523 -0.7227
16382SOL    HW253832   5.921   6.350   5.451 -0.4954 -1.6431  1.8785
16383SOL     OW53833  11.944   9.787   2.490  0.2520 -0.5707 -0.2503
16383SOL    HW153834  12.029   9.753   2.462  1.6703  1.8604  0.7207
16383SOL    HW253835  11.900   9.811   2.409  1.1614 -0.4722 -0.7357
16384SOL     OW53836   0.894   6.200   6.469 -0.4143 -0.3315  0.1547
16384SOL    HW153837   0.940   6.141   6.410 -0.0884  0.1064 -0.0331
16384SOL    HW253838   0.959   6.225   6.534  0.1589  1.6650 -1.1002
16385SOL     OW53839   6.491   5.952   7.488 -0.1255  0.3112 -0.2029
16385SOL    HW153840   6.486   5.865   7.528 -2.5585  0.5423  0.1792
16385SOL    HW253841   6.459   6.011   7.556  0.2074  1.3436 -0.9202
16386SOL     OW53842  10.771   9.206   1.555  0.0292  0.0790  0.2656
16386SOL    HW153843  10.807   9.284   1.596  1.7796 -0.4556 -0.1349
16386SOL    HW253844  10.677   9.213   1.568  0.3446  0.7611  2.8934
16387SOL     OW53845  11.744   2.256  11.967 -0.6615  0.1182 -0.4901
16387SOL    HW153846  11.777   2.240  12.056 -1.7144 -1.3190 -0.3361
16387SOL    HW253847  11.737   2.352  11.961 -1.0410  0.2198  1.1488
16388SOL     OW53848   0.634  10.793   1.407 -0.2858 -0.0158  0.2828
16388SOL    HW153849   0.623  10.868   1.349  0.3687 -1.2432 -1.5239
16388SOL    HW253850   0.578  10.725   1.369  1.3996 -1.3706  0.0764
16389SOL     OW53851  11.961   6.470   9.233 -0.3337  0.2533 -0.4269
16389SOL    HW153852  11.939   6.413   9.160 -1.4553  0.0248  0.0678
16389SOL    HW253853  11.879   6.479   9.283  0.5352 -0.1132  1.1525
16390SOL     OW53854   4.323   2.658   2.468 -0.2728  0.2865  0.1153
16390SOL    HW153855   4.320   2.717   2.393  1.3853 -0.8962 -0.9747
16390SOL    HW253856   4.383   2.700   2.529 -1.9621  1.4637  1.0328
16391SOL     OW53857   2.854   5.111   1.617 -0.3890 -0.4166 -0.0682
16391SOL    HW153858   2.785   5.124   1.551 -2.1671 -0.5641  1.6723
16391SOL    HW253859   2.920   5.059   1.572 -1.6234 -0.6763 -1.6942
16392SOL     OW53860   1.461   3.246   6.951 -0.4273 -0.0908  0.4971
16392SOL    HW153861   1.507   3.319   6.992  2.4295 -0.7413 -1.2967
16392SOL    HW253862   1.489   3.169   7.000 -0.1390 -0.4234 -0.1807
16393SOL     OW53863   2.697   2.422   4.420 -0.0390  0.2468 -0.0826
16393SOL    HW153864   2.725   2.434   4.329 -0.5041 -0.9525 -0.3948
16393SOL    HW253865   2.740   2.341   4.449  0.4093  0.8070  0.9106
16394SOL     OW53866   6.232  11.032   6.100 -0.0741 -0.0099 -0.7778
16394SOL    HW153867   6.320  11.011   6.133  0.2401  2.1541 -0.0497
16394SOL    HW253868   6.244  11.041   6.006  1.2375  3.0645 -0.4415
16395SOL     OW53869  11.940   9.391   8.646 -0.0875 -0.3113  0.4797
16395SOL    HW153870  11.917   9.303   8.674 -0.8764  0.2624  1.7139
16395SOL    HW253871  12.012   9.379   8.583 -0.2371 -1.8156  0.5744
16396SOL     OW53872   8.066   3.378   7.929 -0.2411 -0.0924 -0.0941
16396SOL    HW153873   8.118   3.299   7.914  0.0578  0.0643  0.1134
16396SOL    HW253874   8.000   3.351   7.993  0.6810  0.1642  0.9924
16397SOL     OW53875  10.279   7.237   7.304 -0.5739  0.3326 -0.3312
16397SOL    HW153876  10.209   7.302   7.313  0.5049  1.2925  1.7942
16397SOL    HW253877  10.358   7.288   7.287  0.1375 -0.4647  0.4452
16398SOL     OW53878   1.695  10.139   2.572 -0.3036  0.5020 -0.1927
16398SOL    HW153879   1.712  10.200   2.644  0.3223  0.9583 -0.7148
16398SOL    HW253880   1.603  10.154   2.550 -0.0217  1.6775 -0.6759
16399SOL     OW53881   8.733   6.236   1.204  0.9377 -0.7380  0.5591
16399SOL    HW153882   8.697   6.257   1.290  1.4360  1.3525  0.3112
16399SOL    HW253883   8.817   6.195   1.222  0.3028 -1.8568  1.0703
16400SOL     OW53884   3.417   3.555   9.757  0.1099  0.1508 -0.2750
16400SOL    HW153885   3.455   3.600   9.681 -1.0995  2.3803  0.3507
16400SOL    HW253886   3.345   3.503   9.721  1.1077 -0.8216 -0.9279
16401SOL     OW53887  11.346   7.606   0.070 -0.0994 -0.0960  0.0078
16401SOL    HW153888  11.333   7.573  -0.019  1.6164  0.1828 -0.3921
16401SOL    HW253889  11.323   7.699   0.065  1.5003  0.3061 -0.5901
16402SOL     OW53890   0.978   9.997   0.196 -0.2586  0.0069 -1.0977
16402SOL    HW153891   0.884   9.990   0.178 -0.1813 -1.7593 -1.0325
16402SOL    HW253892   0.997   9.923   0.254  0.9174  1.2130  0.1366
16403SOL     OW53893   5.918   7.050   0.088  0.1458 -0.3414 -0.1797
16403SOL    HW153894   5.975   7.053   0.011  1.1593 -0.9505  0.5123
16403SOL    HW253895   5.856   6.979   0.070  1.5265 -1.7236  0.2952
16404SOL     OW53896  10.583   7.129   1.344 -0.0042 -0.0830  0.4324
16404SOL    HW153897  10.639   7.067   1.391  1.6850  0.0224 -1.2780
16404SOL    HW253898  10.640   7.204   1.326 -0.9372  0.4104 -0.6467
16405SOL     OW53899  11.653   2.391   7.117  0.5102 -0.4590  0.0812
16405SOL    HW153900  11.639   2.434   7.033  1.9443  0.3919  0.2413
16405SOL    HW253901  11.595   2.437   7.178 -0.0636 -0.6624 -0.3050
16406SOL     OW53902   0.911   7.346  10.578  0.1697  0.0610  0.0822
16406SOL    HW153903   0.870   7.404  10.514 -0.6200  1.9549  2.1648
16406SOL    HW253904   0.970   7.403  10.628  0.7520 -1.3329  1.0587
16407SOL     OW53905  11.450   2.107   8.322 -0.1363 -0.1708 -0.1855
16407SOL    HW153906  11.440   2.027   8.373  0.6184 -0.4413 -0.4467
16407SOL    HW253907  11.374   2.110   8.266 -0.2681 -0.6017 -0.0305
16408SOL     OW53908   6.428   9.414   4.637  0.3045  0.3323  0.2616
16408SOL    HW153909   6.521   9.390   4.640  0.4411  0.9070  1.6992
16408SOL    HW253910   6.407   9.419   4.544  1.5565 -0.3820 -0.0820
16409SOL     OW53911   1.659   4.695  11.113 -0.8558 -0.6879 -0.6238
16409SOL    HW153912   1.647   4.777  11.064  0.5815 -0.5790 -0.8545
16409SOL    HW253913   1.644   4.626  11.048 -1.9904 -0.6194 -0.4484
16410SOL     OW53914   2.015   3.712   3.614 -0.2815  0.4521  0.3737
16410SOL    HW153915   2.018   3.735   3.521  0.0673 -1.3456 -0.0984
16410SOL    HW253916   1.937   3.657   3.622  0.4376 -0.5170  0.8586
16411SOL     OW53917  10.763   7.583  11.345 -0.4566 -0.0265 -0.0184
16411SOL    HW153918  10.669   7.602  11.353 -0.1335  2.6751 -1.4081
16411SOL    HW253919  10.802   7.666  11.319  1.8656 -1.8207 -2.8662
16412SOL     OW53920   0.518   4.066   9.533 -0.2881 -0.1300  0.0115
16412SOL    HW153921   0.485   3.985   9.493  0.5879 -0.0702 -0.8960
16412SOL    HW253922   0.485   4.136   9.476 -0.9138  0.1519  0.7056
16413SOL     OW53923   8.665   7.534   8.402  0.1096 -0.2719 -0.4947
16413SOL    HW153924   8.576   7.502   8.390  0.1254 -0.8203  0.8193
16413SOL    HW253925   8.661   7.590   8.479  1.2976 -1.9338  0.8361
16414SOL     OW53926   4.348  11.764   0.150  0.1116 -0.3893 -0.0420
16414SOL    HW153927   4.386  11.728   0.230  0.6992 -1.6579 -0.8723
16414SOL    HW253928   4.417  11.756   0.084 -1.1053 -1.5356 -1.2565
16415SOL     OW53929   8.291   8.841  10.270 -0.3466 -0.0716 -0.0117
16415SOL    HW153930   8.283   8.848  10.175 -0.4985  0.5535  0.0462
16415SOL    HW253931   8.346   8.916  10.295  1.4893 -1.3922  0.1603
16416SOL     OW53932   1.980  10.213   1.129 -0.3819  0.1786 -0.3323
16416SOL    HW153933   2.051  10.154   1.101 -1.5679 -0.9699 -1.0466
16416SOL    HW253934   1.962  10.266   1.052 -0.8822 -0.1519 -0.4514
16417SOL     OW53935  10.335   7.983   9.458 -0.4230 -0.4877  0.4665
16417SOL    HW153936  10.349   8.029   9.376  1.4816 -1.7584  0.0028
16417SOL    HW253937  10.324   8.052   9.523 -1.6741  0.5392 -0.7838
16418SOL     OW53938   6.197   2.901   2.999 -0.4561 -0.1093  0.0202
16418SOL    HW153939   6.229   2.896   3.089  0.3909  0.4703 -0.2441
16418SOL    HW253940   6.179   2.809   2.976 -0.4501 -0.2878  0.6836
16419SOL     OW53941   2.310   4.741   7.921  0.3445  0.5058 -0.1464
16419SOL    HW153942   2.344   4.819   7.877 -0.2646  0.1736 -1.2334
16419SOL    HW253943   2.234   4.773   7.970  1.1975  0.9320  0.9572
16420SOL     OW53944   9.043   3.398   8.172  0.5569  0.1176  1.2107
16420SOL    HW153945   9.040   3.357   8.086 -1.7935  1.5831  0.4704
16420SOL    HW253946   9.090   3.336   8.227  0.4791 -1.7426 -0.6851
16421SOL     OW53947   3.111   5.116   4.553  0.0313 -0.7264  0.7369
16421SOL    HW153948   3.155   5.031   4.552 -1.9400 -1.8141 -0.7589
16421SOL    HW253949   3.068   5.122   4.468 -0.8326  1.2718  1.2484
16422SOL     OW53950   3.324   4.135   0.614 -0.2744  0.2581 -0.6240
16422SOL    HW153951   3.252   4.097   0.665 -0.9821  1.4733 -0.6898
16422SOL    HW253952   3.283   4.165   0.533  0.4184  0.4119 -0.9210
16423SOL     OW53953   6.673   9.822  11.915 -0.2053 -0.0546  0.3628
16423SOL    HW153954   6.710   9.738  11.888 -1.2670  0.2428 -2.2253
16423SOL    HW253955   6.596   9.833  11.860 -0.0969  2.6153  0.6442
16424SOL     OW53956   4.642   8.877  11.145  0.3685 -0.0260  0.3634
16424SOL    HW153957   4.680   8.791  11.130  2.1610  0.2998  2.5301
16424SOL    HW253958   4.702   8.937  11.100 -1.1156  0.1436 -1.5232
16425SOL     OW53959   1.126   1.561  11.521  0.8567  0.1705  0.2880
16425SOL    HW153960   1.124   1.546  11.616  0.5559  0.3314  0.3084
16425SOL    HW253961   1.053   1.509  11.487 -1.4188  2.9525  0.5743
16426SOL     OW53962   8.712  11.477  11.784  0.3365 -0.0143 -0.2108
16426SOL    HW153963   8.708  11.392  11.741  0.9952 -0.0152 -0.2670
16426SOL    HW253964   8.801  11.483  11.819  0.1348  0.4336  0.2389
16427SOL     OW53965   5.011   7.165   3.029  0.2800  0.5665  0.0647
16427SOL    HW153966   5.087   7.202   2.985 -0.1641  1.4016 -0.0301
16427SOL    HW253967   4.940   7.227   3.010  0.0171  0.8365  1.7230
16428SOL     OW53968   6.880   7.327  10.333  0.4135 -0.4936 -0.0061
16428SOL    HW153969   6.913   7.346  10.245 -0.9047  0.5357 -0.3022
16428SOL    HW253970   6.932   7.385  10.390  0.2011 -0.0182 -0.2899
16429SOL     OW53971   4.631   1.703   7.556 -0.8623  0.1215  0.1404
16429SOL    HW153972   4.708   1.647   7.555  0.3965  1.6050 -3.0962
16429SOL    HW253973   4.665   1.789   7.581 -1.3930  0.7992 -1.3488
16430SOL     OW53974   9.259   4.438   4.562 -0.0413  0.0327  0.5229
16430SOL    HW153975   9.273   4.410   4.472 -1.7576 -3.3350  1.1633
16430SOL    HW253976   9.182   4.495   4.558 -0.3334 -0.3962 -0.1222
16431SOL     OW53977   4.194   9.659  10.194 -0.0894  0.1113 -0.6183
16431SOL    HW153978   4.148   9.575  10.199  0.7827 -0.4448 -1.6189
16431SOL    HW253979   4.283   9.639  10.221 -0.5265  1.3197  1.9619
16432SOL     OW53980   1.208  10.169   0.079 -0.3832 -0.9415 -0.2180
16432SOL    HW153981   1.135  10.133   0.130 -2.6505 -0.2082 -2.7579
16432SOL    HW253982   1.216  10.110   0.004  0.6182 -0.1295 -0.7669
16433SOL     OW53983   7.072   3.204  10.811  0.1712  0.4870  0.5523
16433SOL    HW153984   7.047   3.147  10.885 -0.1196 -0.1149  0.0049
16433SOL    HW253985   7.046   3.154  10.734  2.5365  0.0855 -0.0654
16434SOL     OW53986   0.243   7.851   3.097 -0.7495 -0.2050 -0.1284
16434SOL    HW153987   0.174   7.846   3.031 -1.3070 -1.1306  0.5044
16434SOL    HW253988   0.316   7.804   3.059 -0.2719  1.1577 -0.9889
16435SOL     OW53989   8.512   9.339   1.354  0.7357 -0.3508 -0.1031
16435SOL    HW153990   8.591   9.358   1.404  1.7197 -0.9495 -1.3985
16435SOL    HW253991   8.441   9.350   1.418  1.9429 -1.2626  1.4671
16436SOL     OW53992   5.547   0.790   3.466  0.2479  0.6297 -0.4620
16436SOL    HW153993   5.540   0.875   3.422 -0.1612  0.0765 -1.4860
16436SOL    HW253994   5.640   0.768   3.461  0.1571  0.4158 -1.3727
16437SOL     OW53995   4.109   8.621   4.666 -0.1383  0.3291 -0.4033
16437SOL    HW153996   4.203   8.620   4.648  0.6957  2.3184  2.9818
16437SOL    HW253997   4.095   8.546   4.725 -0.2262  1.1297  0.6282
16438SOL     OW53998   5.224   0.171   9.637 -0.5800 -0.0431  0.0816
16438SOL    HW153999   5.160   0.145   9.572 -0.9106 -0.2742  0.4904
16438SOL    HW254000   5.188   0.249   9.678 -0.2181  0.2926 -0.2337
16439SOL     OW54001   3.499   2.201   2.848  0.1816 -0.4107 -0.0221
16439SOL    HW154002   3.500   2.289   2.810 -0.9759 -0.9712 -1.4118
16439SOL    HW254003   3.561   2.207   2.921  0.4664  1.4285 -0.3483
16440SOL     OW54004   5.743  10.738   7.539 -0.1675 -0.0773  0.8607
16440SOL    HW154005   5.784  10.822   7.559  1.4178 -0.2386 -1.3826
16440SOL    HW254006   5.796  10.674   7.587  0.5243 -0.0181  0.2122
16441SOL     OW54007   0.480   5.017   9.992 -0.3511 -0.8697 -0.4113
16441SOL    HW154008   0.416   4.978  10.052  1.2499 -0.2642  1.8586
16441SOL    HW254009   0.467   5.112  10.002  0.1849 -0.7621 -0.7069
16442SOL     OW54010   9.286   6.859   9.185 -0.1999 -0.8025 -0.1411
16442SOL    HW154011   9.327   6.825   9.105  2.4132 -0.1710  0.8318
16442SOL    HW254012   9.342   6.827   9.256 -1.6851 -0.2205  1.3496
16443SOL     OW54013   6.934   1.048   6.691 -0.5919 -0.1304  0.6048
16443SOL    HW154014   7.013   1.051   6.637 -1.2701 -0.5735 -0.4364
16443SOL    HW254015   6.914   1.140   6.708 -0.3376  0.0197  0.1237
16444SOL     OW54016   0.129   9.488   6.938 -0.5027 -0.0503  0.1565
16444SOL    HW154017   0.179   9.570   6.941 -0.9307  0.2101  3.2700
16444SOL    HW254018   0.045   9.510   6.978 -2.6015 -0.9307 -3.3125
16445SOL     OW54019  10.204   5.466   4.402 -0.3455 -0.2145  0.3903
16445SOL    HW154020  10.298   5.456   4.420 -0.0439  1.4179 -0.0752
16445SOL    HW254021  10.188   5.408   4.327  0.5628  0.3280 -0.2475
16446SOL     OW54022   6.081   7.089  11.190 -0.2412 -0.0268 -0.4137
16446SOL    HW154023   6.102   7.179  11.215 -0.1531 -0.3634  0.7940
16446SOL    HW254024   6.122   7.078  11.104  0.2480  0.8960 -0.3115
16447SOL     OW54025  10.044   6.224   0.105  0.8255  0.6811 -0.0255
16447SOL    HW154026   9.959   6.251   0.071  0.3824  0.7342  1.0837
16447SOL    HW254027  10.102   6.298   0.087  0.7605  0.4502 -1.2180
16448SOL     OW54028  11.484   6.876   0.185 -0.2672 -0.2890 -0.4718
16448SOL    HW154029  11.486   6.970   0.169  2.8985 -0.5602 -2.5419
16448SOL    HW254030  11.416   6.843   0.126 -1.3753  0.6141  0.2395
16449SOL     OW54031   8.797   5.715   0.315  0.6167  0.0009 -0.3522
16449SOL    HW154032   8.853   5.686   0.243  1.4398 -1.7808  0.9323
16449SOL    HW254033   8.856   5.722   0.390 -0.3067  1.3897  0.2771
16450SOL     OW54034   1.547   3.346   1.021  0.1892 -0.2202  0.4928
16450SOL    HW154035   1.463   3.323   1.060 -0.3839  2.0724  0.7834
16450SOL    HW254036   1.608   3.351   1.095  0.2543 -0.5203  0.4610
16451SOL     OW54037   4.335   0.828  10.901 -0.3660 -0.2580 -0.2715
16451SOL    HW154038   4.292   0.859  10.821  0.7745 -1.5523 -1.4316
16451SOL    HW254039   4.382   0.749  10.874  2.9260  1.1602  0.8452
16452SOL     OW54040  11.796   1.106   4.706  0.2847 -0.0159  0.3258
16452SOL    HW154041  11.803   1.130   4.613 -3.6994  2.0744  0.3419
16452SOL    HW254042  11.807   1.011   4.707  1.8789  0.0629 -2.0455
16453SOL     OW54043   9.052   6.981   4.227  0.3259  0.7344  0.0381
16453SOL    HW154044   9.034   7.007   4.317 -0.4141 -2.0926  0.8093
16453SOL    HW254045   8.979   7.018   4.177 -0.1965  0.8741  0.8817
16454SOL     OW54046   9.976   4.464   6.545  0.1239 -0.2077  0.5098
16454SOL    HW154047  10.030   4.518   6.488  0.0251 -1.8809 -1.2657
16454SOL    HW254048  10.003   4.489   6.634  1.7516  1.0171 -0.2685
16455SOL     OW54049  11.272   0.883   9.742  0.4363  0.0019 -0.0905
16455SOL    HW154050  11.284   0.790   9.763 -2.1645 -0.5352 -0.6462
16455SOL    HW254051  11.332   0.929   9.800  1.6065 -2.0032  0.3815
16456SOL     OW54052   4.543   6.322   0.396 -0.5579 -0.3569 -0.0299
16456SOL    HW154053   4.581   6.245   0.439 -1.8496 -0.9610  0.0795
16456SOL    HW254054   4.516   6.291   0.310  0.5220  0.4436 -0.6814
16457SOL     OW54055  11.591   5.120   8.641  0.1636  0.1372  0.2674
16457SOL    HW154056  11.641   5.038   8.633 -2.0420 -1.2526 -0.1407
16457SOL    HW254057  11.635   5.180   8.581  1.0607 -1.1753 -0.4535
16458SOL     OW54058   1.551   6.643   1.010  0.7764 -0.8131  0.3343
16458SOL    HW154059   1.574   6.708   0.943 -0.1100 -1.1791 -0.3451
16458SOL    HW254060   1.482   6.684   1.061 -0.1345 -1.3873 -0.4067
16459SOL     OW54061   2.757   2.052   2.163 -1.4619 -0.1376 -0.3721
16459SOL    HW154062   2.695   1.982   2.184  2.8410 -3.7427  1.7144
16459SOL    HW254063   2.799   2.023   2.082 -1.8958  1.8990 -1.3904
16460SOL     OW54064   7.311  11.514   0.653 -0.1161  0.1787 -0.0785
16460SOL    HW154065   7.378  11.507   0.585 -2.0638  0.7415 -2.1861
16460SOL    HW254066   7.334  11.446   0.716  2.6984  0.7166 -0.4056
16461SOL     OW54067  10.374   5.741   2.369 -0.0273  0.2106 -0.2245
16461SOL    HW154068  10.367   5.732   2.274  1.8211 -0.5344 -0.3277
16461SOL    HW254069  10.314   5.813   2.391  0.5708  1.3660 -2.1425
16462SOL     OW54070   7.350   9.691   8.471  0.4187 -0.3551 -0.1952
16462SOL    HW154071   7.295   9.677   8.394 -0.5205 -1.0877  0.5713
16462SOL    HW254072   7.397   9.773   8.454 -1.4935  0.7113 -0.5559
16463SOL     OW54073   1.603   2.600   9.986 -0.2920 -0.0019  0.1328
16463SOL    HW154074   1.615   2.656  10.063  0.0163  0.6230 -0.3680
16463SOL    HW254075   1.533   2.540  10.012  0.0463 -0.0250  1.0290
16464SOL     OW54076   0.468   9.084  10.348 -0.6079 -1.0194 -0.2121
16464SOL    HW154077   0.520   9.098  10.427 -0.7081 -0.7011 -0.2009
16464SOL    HW254078   0.499   9.000  10.313 -0.2836 -0.9656 -0.0557
16465SOL     OW54079   3.078   2.378   2.026 -0.1680 -0.7361  0.3095
16465SOL    HW154080   3.148   2.431   2.064 -0.9765 -0.4351  1.4408
16465SOL    HW254081   3.034   2.339   2.102 -2.4396  0.6336 -0.2109
16466SOL     OW54082   5.223   3.846  12.001  0.5255 -0.3615 -0.7983
16466SOL    HW154083   5.209   3.939  12.015  1.2969  0.0580 -2.5471
16466SOL    HW254084   5.222   3.808  12.089  3.2589  1.7309  0.2994
16467SOL     OW54085  10.951   8.841   4.465 -0.0524  0.4702 -0.0118
16467SOL    HW154086  10.972   8.866   4.375  0.3327  0.8583  0.1818
16467SOL    HW254087  11.000   8.903   4.519  1.2136 -0.9302  0.5045
16468SOL     OW54088   2.241   6.827   2.597  0.4779  0.3717 -0.5002
16468SOL    HW154089   2.151   6.829   2.630  0.4602  0.2945 -0.5431
16468SOL    HW254090   2.282   6.754   2.644  1.3304  2.1110  1.6066
16469SOL     OW54091   3.265   1.044   8.529  0.3239 -0.1798  0.3719
16469SOL    HW154092   3.278   1.090   8.613  0.1731 -0.8308  0.7599
16469SOL    HW254093   3.183   0.996   8.541 -0.2404  0.5292 -0.5224
16470SOL     OW54094   5.376   3.795   3.495 -0.0065  0.5131 -0.4416
16470SOL    HW154095   5.381   3.881   3.453  0.9919  0.1548 -1.1071
16470SOL    HW254096   5.350   3.814   3.585 -0.2548  1.4701 -0.7031
16471SOL     OW54097   3.298   8.278   1.311  0.6867  0.1353 -0.5748
16471SOL    HW154098   3.214   8.279   1.265  0.9116 -0.4064 -1.0130
16471SOL    HW254099   3.358   8.237   1.250  2.0038  3.0981 -1.4273
16472SOL     OW54100   1.949   0.216   1.305 -0.1532 -0.5325  0.3930
16472SOL    HW154101   1.970   0.126   1.277  0.3994 -0.4173  0.4269
16472SOL    HW254102   1.950   0.267   1.224 -0.0507 -0.4818  0.4253
16473SOL     OW54103   4.322   4.039   6.324 -0.2266 -0.1160 -0.3857
16473SOL    HW154104   4.411   4.067   6.305 -1.0804  2.9945 -0.4047
16473SOL    HW254105   4.330   3.946   6.347  3.3115  0.5232  1.7016
16474SOL     OW54106   4.813  11.012  10.063  0.2844  0.0705  0.5622
16474SOL    HW154107   4.755  10.978   9.994  1.6597 -0.7369 -0.2294
16474SOL    HW254108   4.810  10.945  10.131  2.1967 -1.2369 -0.5607
16475SOL     OW54109   5.817   0.802   4.634 -0.3606  0.0684  0.3762
16475SOL    HW154110   5.787   0.737   4.698 -1.0771 -0.8619 -0.8669
16475SOL    HW254111   5.890   0.760   4.589  2.5388  2.0167  2.8413
16476SOL     OW54112  10.896   1.471   2.021 -0.6422  0.1166 -0.5083
16476SOL    HW154113  10.820   1.523   1.995 -1.0185 -1.2928 -2.5471
16476SOL    HW254114  10.971   1.528   2.005 -1.1090  0.4668 -1.5872
16477SOL     OW54115   9.460   2.663   2.707 -0.0969  0.5385  0.0131
16477SOL    HW154116   9.416   2.692   2.627  0.3165  0.5037 -0.2308
16477SOL    HW254117   9.427   2.722   2.775 -1.4800 -0.2756  0.0951
16478SOL     OW54118  10.962   4.186   4.873  0.5106  0.3378  0.2457
16478SOL    HW154119  10.981   4.191   4.780 -3.2984 -0.1841 -0.7400
16478SOL    HW254120  10.897   4.115   4.881 -0.1834  1.1239  3.0893
16479SOL     OW54121   5.775  11.830   6.516  0.0655  0.0525  0.6829
16479SOL    HW154122   5.767  11.785   6.600  0.2064  0.8696  1.1501
16479SOL    HW254123   5.858  11.877   6.522  0.2702 -0.2014 -0.0802
16480SOL     OW54124   7.138   5.193  11.974 -0.2105 -0.0798 -0.6224
16480SOL    HW154125   7.175   5.273  12.011  0.9115 -0.4377 -0.9345
16480SOL    HW254126   7.112   5.217  11.885 -1.6150  0.4100 -0.1117
16481SOL     OW54127   5.611  10.514   7.742  0.7510 -0.5759 -0.4885
16481SOL    HW154128   5.598  10.445   7.677  0.5850  0.5674 -1.6986
16481SOL    HW254129   5.706  10.522   7.749  0.7715 -0.5493 -0.7686
16482SOL     OW54130   4.270   5.103   8.041  0.4677  0.3696  0.2056
16482SOL    HW154131   4.235   5.123   8.128 -3.3957 -0.6526 -0.8910
16482SOL    HW254132   4.293   5.188   8.005  1.9056  0.8318  2.0761
16483SOL     OW54133   1.584   8.994   6.822 -0.2033 -0.2329  0.0634
16483SOL    HW154134   1.660   8.942   6.850 -0.9161 -0.5380  1.5319
16483SOL    HW254135   1.588   8.992   6.726  1.5467 -0.3674  0.1086
16484SOL     OW54136   0.626   4.268  11.451 -0.2824  0.0709  0.3535
16484SOL    HW154137   0.626   4.174  11.434  0.0818  0.1796 -0.2844
16484SOL    HW254138   0.589   4.307  11.372  0.2710  0.5109  0.3034
16485SOL     OW54139   0.188   3.128   5.401 -0.3207 -0.5410 -0.1493
16485SOL    HW154140   0.268   3.127   5.349  0.1053  0.8324  0.4408
16485SOL    HW254141   0.134   3.058   5.363  0.4004 -0.2720 -1.7655
16486SOL     OW54142   7.954  11.550   2.626 -1.0924  0.1225 -0.0917
16486SOL    HW154143   7.907  11.631   2.646  0.0520  0.6440  0.5685
16486SOL    HW254144   7.975  11.557   2.533  0.2913  1.3164  0.2627
16487SOL     OW54145   4.091   1.045   2.472 -0.1775  0.1053 -0.1612
16487SOL    HW154146   4.053   1.053   2.560  0.8147  0.7175  0.2287
16487SOL    HW254147   4.016   1.047   2.413 -0.7537  1.6782  0.5706
16488SOL     OW54148   8.760   5.740  10.843  0.2920 -0.0994 -0.3629
16488SOL    HW154149   8.748   5.651  10.876  0.4768 -0.6940 -1.8359
16488SOL    HW254150   8.727   5.737  10.753  0.5121  1.2634 -0.5057
16489SOL     OW54151  11.097   0.811   0.427 -0.3504  0.4770 -0.0018
16489SOL    HW154152  11.091   0.846   0.338 -1.5743 -1.2211 -0.6461
16489SOL    HW254153  11.176   0.757   0.426 -1.0054 -0.4944 -0.4449
16490SOL     OW54154   3.904   7.535   2.745  0.0762  0.1392 -0.3698
16490SOL    HW154155   3.869   7.447   2.759  0.8614 -0.0642  0.3803
16490SOL    HW254156   3.906   7.545   2.650  0.2296 -0.7676 -0.4703
16491SOL     OW54157   4.119  10.230   3.311  0.7310 -0.2249 -0.1171
16491SOL    HW154158   4.043  10.287   3.303 -0.1376 -1.1306  1.2821
16491SOL    HW254159   4.116  10.174   3.233  0.1590 -0.0286 -0.2383
16492SOL     OW54160   1.799   8.813  11.704 -0.3256  0.4697 -0.7882
16492SOL    HW154161   1.804   8.875  11.631  0.1119  2.4002  0.8133
16492SOL    HW254162   1.768   8.865  11.778  0.8665 -1.0232  0.8377
16493SOL     OW54163   8.229  11.875   1.718  0.0571 -0.6166 -0.2215
16493SOL    HW154164   8.145  11.920   1.708  1.4134  2.4913  1.0966
16493SOL    HW254165   8.269  11.880   1.631 -0.4717 -0.7159 -0.4726
16494SOL     OW54166  11.936   6.627   8.821  0.5940 -0.0226 -0.3271
16494SOL    HW154167  11.907   6.539   8.797  0.4118  0.3922 -1.7200
16494SOL    HW254168  11.955   6.622   8.915 -0.6818 -1.1982 -0.1095
16495SOL     OW54169   8.316   7.077  11.907 -0.4210  0.0360 -0.1511
16495SOL    HW154170   8.278   7.013  11.846  1.0716 -0.6453 -0.4151
16495SOL    HW254171   8.397   7.035  11.938 -0.3003  1.0849  1.0110
16496SOL     OW54172   4.604   8.951   0.622 -0.4124  0.0886  0.1597
16496SOL    HW154173   4.596   8.999   0.540  0.4082 -0.8153 -0.4719
16496SOL    HW254174   4.516   8.916   0.637 -0.2054 -1.2056 -1.2966
16497SOL     OW54175   8.717   7.678   7.232 -0.4177  0.1270  0.3733
16497SOL    HW154176   8.787   7.712   7.175 -0.4422 -0.0991  0.2076
16497SOL    HW254177   8.704   7.588   7.202 -0.4381  0.0107  0.7316
16498SOL     OW54178   3.436   9.348   2.334  0.4476 -0.3609 -0.1664
16498SOL    HW154179   3.357   9.394   2.363  0.3959 -1.0027  0.7342
16498SOL    HW254180   3.508   9.404   2.363  0.3514 -0.1223 -0.3794
16499SOL     OW54181   8.468   5.929   9.411  0.0606 -0.5655  0.5596
16499SOL    HW154182   8.413   5.856   9.440  0.4734 -1.1880 -0.1860
16499SOL    HW254183   8.462   5.927   9.316 -1.1287  1.3364  0.5416
16500SOL     OW54184   1.977   2.140  11.704 -0.5306 -0.1055 -0.0709
16500SOL    HW154185   1.888   2.172  11.714 -1.0737 -1.6152  0.1896
16500SOL    HW254186   1.978   2.097  11.619  0.4140  1.2448 -0.7846
16501SOL     OW54187   3.897   4.328   9.462 -0.8721 -0.2378  0.1367
16501SOL    HW154188   3.929   4.414   9.433  1.7078 -0.8625  0.8421
16501SOL    HW254189   3.864   4.344   9.550 -0.4089  0.0454  0.2635
16502SOL     OW54190  10.760   8.932   1.512  0.3576  0.3910 -0.2114
16502SOL    HW154191  10.720   8.907   1.595 -0.2223  0.7106 -0.3945
16502SOL    HW254192  10.760   9.027   1.513  1.1537  0.4029 -0.1982
16503SOL     OW54193   8.942   4.539   2.121  0.0286 -0.1717  0.0776
16503SOL    HW154194   8.881   4.465   2.125 -0.2135  0.0531  0.9700
16503SOL    HW254195   8.988   4.528   2.039  0.9830 -2.0978  0.8035
16504SOL     OW54196   1.397   8.709   9.565 -0.2731 -0.4064 -0.0023
16504SOL    HW154197   1.433   8.797   9.582 -1.2140 -0.1089  0.5349
16504SOL    HW254198   1.353   8.686   9.647 -1.7078 -0.5495 -0.7785
16505SOL     OW54199   8.113  11.982   0.572 -0.3561 -0.5369 -0.1786
16505SOL    HW154200   8.168  11.923   0.624  0.8081  1.7573  1.3365
16505SOL    HW254201   8.137  11.963   0.482  0.9654 -1.4575  0.3372
16506SOL     OW54202   2.485   7.585   5.656  0.6975 -0.1278  0.0134
16506SOL    HW154203   2.394   7.553   5.656  0.6537 -0.0516 -1.2329
16506SOL    HW254204   2.477   7.679   5.642  0.9528 -0.0188  0.5781
16507SOL     OW54205  11.754  10.584   5.176 -0.2191 -0.3554  0.2832
16507SOL    HW154206  11.746  10.653   5.111 -0.7688  1.7684  2.4638
16507SOL    HW254207  11.666  10.547   5.182  0.4117 -2.4922 -2.0365
16508SOL     OW54208   9.632   1.002   2.746  0.5480  0.3420 -0.1002
16508SOL    HW154209   9.561   0.963   2.797  0.5566  0.5819  0.1014
16508SOL    HW254210   9.620   0.969   2.657 -0.4138  1.1620 -0.2952
16509SOL     OW54211   6.563   0.658   6.160 -0.0314  0.6878  0.0323
16509SOL    HW154212   6.635   0.637   6.102  0.8731  1.1873  0.9394
16509SOL    HW254213   6.549   0.752   6.148 -1.0282  0.4614 -0.6743
16510SOL     OW54214   7.420   1.811   1.360 -0.7913 -0.1719 -0.0139
16510SOL    HW154215   7.471   1.891   1.368 -1.8928  0.4116  1.6154
16510SOL    HW254216   7.437   1.780   1.271 -1.5341  2.6699 -1.2378
16511SOL     OW54217   4.713   8.770   0.229 -0.1463  0.6088 -0.1944
16511SOL    HW154218   4.730   8.816   0.311 -0.3820 -0.9015  0.7343
16511SOL    HW254219   4.791   8.787   0.176  1.9633 -1.6768  1.8986
16512SOL     OW54220   0.732   7.769   8.549 -0.0080  0.0171  0.1241
16512SOL    HW154221   0.789   7.806   8.617 -0.4116 -0.6590  0.8437
16512SOL    HW254222   0.713   7.680   8.579  0.6692 -0.6805 -1.3998
16513SOL     OW54223   6.454  11.704   6.848  0.2112 -0.2154 -0.0548
16513SOL    HW154224   6.488  11.636   6.907 -1.8810 -1.5351 -0.2349
16513SOL    HW254225   6.413  11.768   6.907 -0.7870 -0.8943  0.0175
16514SOL     OW54226   4.690   9.503   4.379 -0.0633 -0.5077 -0.2540
16514SOL    HW154227   4.735   9.425   4.410 -0.2451 -0.1489  1.0078
16514SOL    HW254228   4.637   9.531   4.455  1.0095  1.5736 -0.2087
16515SOL     OW54229   6.065   9.056   4.224 -0.6088  0.1271  1.0341
16515SOL    HW154230   6.038   8.998   4.152  1.1010 -0.1538  0.5921
16515SOL    HW254231   5.982   9.090   4.258 -1.5233 -0.5582 -0.3711
16516SOL     OW54232   7.424   9.939   8.379 -0.3276  0.0604  0.4352
16516SOL    HW154233   7.479  10.013   8.404  0.0837 -0.0491 -0.1270
16516SOL    HW254234   7.399   9.957   8.288 -2.0065  0.5792  0.9639
16517SOL     OW54235   9.208   9.673   8.101 -0.5485  0.3680 -0.1140
16517SOL    HW154236   9.143   9.729   8.142 -0.5680  0.4802 -0.2969
16517SOL    HW254237   9.288   9.725   8.101 -0.5016  0.2971 -0.0490
16518SOL     OW54238   3.200   8.249   5.862  1.1194 -0.1327  0.4170
16518SOL    HW154239   3.135   8.193   5.905  1.9158 -0.2212  1.5578
16518SOL    HW254240   3.278   8.241   5.917  1.7682  0.8000 -0.3357
16519SOL     OW54241   8.783   1.212  11.043 -0.4520 -0.0826  0.0237
16519SOL    HW154242   8.690   1.225  11.061 -0.4447 -0.6462  0.5108
16519SOL    HW254243   8.787   1.185  10.952 -0.6257  1.4275 -0.4539
16520SOL     OW54244   5.886   9.910  11.902  0.0073  0.4846  0.4288
16520SOL    HW154245   5.845   9.997  11.892 -0.1051  0.4346  0.4551
16520SOL    HW254246   5.936   9.898  11.822  1.3193  1.2613  1.1063
16521SOL     OW54247   2.177   6.988  10.958 -0.1259 -0.2736 -0.6069
16521SOL    HW154248   2.245   6.938  11.002 -0.9483 -2.1154 -1.3457
16521SOL    HW254249   2.105   6.926  10.946 -1.6664  1.4049 -0.5187
16522SOL     OW54250   2.958   4.876  11.015  0.5433  0.2778  0.5226
16522SOL    HW154251   2.891   4.811  10.998  0.2910  0.9436 -1.2240
16522SOL    HW254252   2.910   4.955  11.040  0.7953  0.1402  1.4801
16523SOL     OW54253   0.059   4.390   2.475 -0.5337 -0.0527 -0.3265
16523SOL    HW154254   0.053   4.306   2.430 -1.5322  0.4455 -1.1579
16523SOL    HW254255   0.090   4.451   2.409 -0.5879  0.4011  0.0597
16524SOL     OW54256   8.148  11.578   1.269 -0.2271  0.3430  0.0220
16524SOL    HW154257   8.185  11.533   1.345 -2.9042 -1.4422  0.3728
16524SOL    HW254258   8.202  11.548   1.196 -0.4664 -1.6302  0.5898
16525SOL     OW54259   7.132   0.384   8.908 -0.5359  0.0707 -0.3880
16525SOL    HW154260   7.222   0.368   8.936 -1.0869 -0.5654  1.1450
16525SOL    HW254261   7.103   0.457   8.963 -1.4225 -0.7123  0.2039
16526SOL     OW54262   2.655  10.597   5.309  1.1006  0.0241 -0.6352
16526SOL    HW154263   2.633  10.686   5.282  1.8524  0.0690 -1.1197
16526SOL    HW254264   2.691  10.556   5.231  1.4699 -0.4677 -0.2122
16527SOL     OW54265   5.618   1.849   0.065  0.1980  0.0881 -0.0063
16527SOL    HW154266   5.556   1.788   0.104  0.6308 -0.6096 -0.4008
16527SOL    HW254267   5.677   1.795   0.013  3.6701  0.1139  3.4038
16528SOL     OW54268   3.090   1.647   5.226 -0.0997  0.0723  0.3643
16528SOL    HW154269   3.178   1.676   5.204  0.6253 -0.7754  1.9783
16528SOL    HW254270   3.052   1.719   5.276  0.3173 -0.2383  1.1376
16529SOL     OW54271   0.585   3.386   7.013  0.4302  0.3960  0.2642
16529SOL    HW154272   0.680   3.373   7.011  0.2467 -1.7336  1.5683
16529SOL    HW254273   0.549   3.309   6.969 -0.7207  1.7049 -1.2111
16530SOL     OW54274   3.807   6.523   0.897 -0.3326 -0.0670  0.2718
16530SOL    HW154275   3.807   6.440   0.944  1.2406  0.3530  1.0934
16530SOL    HW254276   3.852   6.504   0.814  1.3842  0.2386  1.0862
16531SOL     OW54277   1.354   9.052   5.083 -0.2790  0.1019  0.3073
16531SOL    HW154278   1.290   9.109   5.041  0.1394 -0.2848 -0.8805
16531SOL    HW254279   1.323   9.045   5.173 -1.7352  0.1772 -0.1601
16532SOL     OW54280   4.556   9.866   1.833  0.7118  0.5321 -0.2231
16532SOL    HW154281   4.608   9.788   1.852 -1.0045 -0.6131  0.0361
16532SOL    HW254282   4.534   9.857   1.740 -2.6236 -1.4222  0.5779
16533SOL     OW54283   9.155   8.590   8.556 -0.2369  0.0216  0.3753
16533SOL    HW154284   9.175   8.569   8.647 -0.0092  0.3295  0.3960
16533SOL    HW254285   9.235   8.629   8.522 -0.4126  0.1604  0.1199
16534SOL     OW54286   2.623  10.674  10.238 -0.4807  0.2748 -0.3368
16534SOL    HW154287   2.654  10.755  10.198  1.2235  0.6118  1.5232
16534SOL    HW254288   2.644  10.606  10.174  0.7406  0.9592 -0.6843
16535SOL     OW54289  10.843  10.730   2.929 -0.1076 -0.3377 -0.2028
16535SOL    HW154290  10.934  10.760   2.927 -0.5720  1.6301  2.3836
16535SOL    HW254291  10.825  10.715   3.022 -2.7838  0.6405 -0.4713
16536SOL     OW54292   7.300   4.295  11.698  0.6936  0.3851  0.8105
16536SOL    HW154293   7.389   4.262  11.686  0.2671 -0.8985  1.0119
16536SOL    HW254294   7.290   4.362  11.630  1.2310 -0.7047 -0.3840
16537SOL     OW54295   9.275  10.051  10.558  0.0045  0.4185 -0.5114
16537SOL    HW154296   9.269  10.091  10.472  0.8279 -0.2326 -0.8820
16537SOL    HW254297   9.369  10.048  10.577 -0.0340 -1.2660 -0.4744
16538SOL     OW54298   4.917   4.035   6.665  0.1699  0.3030 -0.6187
16538SOL    HW154299   4.867   4.100   6.715 -1.0555 -0.4145 -0.8764
16538SOL    HW254300   4.974   3.994   6.730 -0.6215  0.1346 -0.0141
16539SOL     OW54301   0.483  11.282  10.876  0.2243 -0.3595  0.0517
16539SOL    HW154302   0.493  11.187  10.870 -1.6796 -0.5311 -1.6399
16539SOL    HW254303   0.442  11.297  10.961  1.6031 -0.9144  0.8321
16540SOL     OW54304   1.483  11.083   1.934  0.3356 -0.1446  0.2179
16540SOL    HW154305   1.429  11.022   1.884  0.2732  0.9238 -1.0883
16540SOL    HW254306   1.421  11.136   1.983  0.2769  0.0998 -0.1174
16541SOL     OW54307   5.147   5.637  10.595  0.3805 -0.3627 -0.2252
16541SOL    HW154308   5.057   5.603  10.602  0.8170 -1.2244  2.8055
16541SOL    HW254309   5.149   5.684  10.512 -1.6805 -3.7649 -2.4290
16542SOL     OW54310   2.360   0.664   3.694 -1.2010 -0.1142 -0.4342
16542SOL    HW154311   2.355   0.570   3.679  0.9920 -0.0693 -1.8642
16542SOL    HW254312   2.341   0.703   3.609  2.2563  0.4942 -1.0866
16543SOL     OW54313   6.376   8.308   2.470 -0.9915  0.1336  0.3166
16543SOL    HW154314   6.421   8.253   2.534 -2.3832 -1.1346  0.2431
16543SOL    HW254315   6.407   8.397   2.489 -0.6063 -0.3417  2.0824
16544SOL     OW54316   3.142   3.155   0.464  0.1813  0.2968 -0.0130
16544SOL    HW154317   3.097   3.078   0.429 -0.1453  0.8967 -0.9753
16544SOL    HW254318   3.096   3.174   0.546  1.1264 -1.2928  0.9281
16545SOL     OW54319   6.639  11.308   7.576  0.4409  0.2826 -0.0279
16545SOL    HW154320   6.614  11.357   7.655  1.6210  0.0875  0.4970
16545SOL    HW254321   6.725  11.272   7.598  0.1947 -0.8786 -0.9222
16546SOL     OW54322   9.289   3.039   0.119  0.1657 -0.4644  0.0494
16546SOL    HW154323   9.303   3.017   0.027  0.2214  0.3692 -0.1532
16546SOL    HW254324   9.375   3.069   0.150 -0.5362  2.5717 -0.5972
16547SOL     OW54325   7.472   1.469  10.274  0.2213 -0.1538  0.1602
16547SOL    HW154326   7.417   1.405  10.229 -0.1653  0.6012 -0.4563
16547SOL    HW254327   7.461   1.550  10.224  1.7142  0.0750  0.1630
16548SOL     OW54328   3.674   9.837   4.535  0.6633  0.0705  0.0506
16548SOL    HW154329   3.600   9.852   4.594  0.3490 -1.7174  0.1479
16548SOL    HW254330   3.749   9.873   4.583  0.1097  0.5035  0.6244
16549SOL     OW54331  11.713  11.158   7.572  0.7744 -0.5507 -0.0532
16549SOL    HW154332  11.633  11.163   7.520  0.4458 -0.7687  0.4309
16549SOL    HW254333  11.759  11.240   7.553 -1.3984  1.4834  2.6608
16550SOL     OW54334   7.381   4.182   4.986 -1.0766  0.3375  0.6319
16550SOL    HW154335   7.402   4.263   5.030 -0.3562 -0.1062  1.1200
16550SOL    HW254336   7.452   4.122   5.010 -2.3903 -0.9166  1.5835
16551SOL     OW54337   9.799  10.051  10.870  0.0981 -0.1302  0.2336
16551SOL    HW154338   9.799  10.119  10.937  2.0226 -0.4940  0.6661
16551SOL    HW254339   9.768  10.095  10.791 -0.3703  0.7875  0.9091
16552SOL     OW54340   0.334   5.766   0.831  0.1058 -0.3128  0.3725
16552SOL    HW154341   0.317   5.710   0.906  0.0051 -0.5888  0.1461
16552SOL    HW254342   0.327   5.855   0.866  1.3360 -0.4333  0.9623
16553SOL     OW54343   5.674   5.343   9.300  0.2268  0.8467  0.1123
16553SOL    HW154344   5.605   5.327   9.364  0.5704  1.2087  0.5808
16553SOL    HW254345   5.703   5.433   9.317  4.2182 -0.6908  3.3638
16554SOL     OW54346   2.969   1.848   7.635  0.1556 -0.3149 -0.3140
16554SOL    HW154347   2.994   1.800   7.714  0.0058  0.3307  0.1257
16554SOL    HW254348   2.986   1.940   7.655  0.0706 -0.1388 -1.0161
16555SOL     OW54349   3.602   0.426   8.244  0.7157 -0.6291 -0.1759
16555SOL    HW154350   3.682   0.378   8.267  1.2873 -0.5890 -1.9811
16555SOL    HW254351   3.629   0.518   8.240  0.2778 -0.4661  0.4286
16556SOL     OW54352   2.518  10.999  11.008  0.2284 -0.2747  0.4814
16556SOL    HW154353   2.603  11.036  10.985  0.1270  0.3175  1.0267
16556SOL    HW254354   2.537  10.937  11.078  0.0233  1.2705  1.9957
16557SOL     OW54355   5.255   9.037   9.696 -0.2325  0.3004 -0.2352
16557SOL    HW154356   5.220   9.120   9.730 -1.6012 -0.7919  1.1769
16557SOL    HW254357   5.179   8.992   9.659  0.0884 -1.1368  0.7659
16558SOL     OW54358   8.444  10.168  10.788  0.2162  0.2943 -0.0153
16558SOL    HW154359   8.517  10.192  10.730  0.2162 -0.1142 -0.1879
16558SOL    HW254360   8.382  10.240  10.779 -0.2704 -0.2659 -1.3592
16559SOL     OW54361   0.047   3.616   2.355 -0.0733  0.0620  0.4463
16559SOL    HW154362   0.035   3.646   2.265  0.0347 -0.7946  0.1388
16559SOL    HW254363  -0.030   3.648   2.402 -0.9144 -0.8343 -0.3068
16560SOL     OW54364   0.185   1.122   9.957  0.0196  0.1893 -0.4082
16560SOL    HW154365   0.188   1.052  10.022  0.9738  0.1133 -0.5197
16560SOL    HW254366   0.129   1.087   9.887 -0.1672 -0.1385 -0.0964
16561SOL     OW54367   2.639   4.570   1.468  0.0341 -0.2490 -0.8305
16561SOL    HW154368   2.718   4.624   1.466 -1.3236  1.8636 -0.7587
16561SOL    HW254369   2.595   4.588   1.385 -1.7234  0.8773  0.2659
16562SOL     OW54370   5.628  11.662   7.683  0.5049  0.0998 -0.2342
16562SOL    HW154371   5.678  11.737   7.651 -0.9259  0.8748 -0.7885
16562SOL    HW254372   5.539  11.697   7.693 -0.2509 -1.5974 -0.7555
16563SOL     OW54373   1.055   6.137   2.433 -0.0726 -0.1431 -0.0736
16563SOL    HW154374   1.037   6.144   2.527  1.1559 -1.8571  0.3393
16563SOL    HW254375   1.128   6.075   2.427  0.4875  0.6284 -2.1138
16564SOL     OW54376   3.644   0.001   1.224 -0.4330 -0.2478 -0.2664
16564SOL    HW154377   3.738  -0.008   1.242 -0.1690 -0.7333 -1.7159
16564SOL    HW254378   3.613  -0.089   1.216 -1.3891 -0.1452  1.7737
16565SOL     OW54379   6.196  10.611   4.179 -0.3610  0.2469  0.1357
16565SOL    HW154380   6.217  10.547   4.112  0.3221 -0.0977  0.6663
16565SOL    HW254381   6.179  10.559   4.257  0.8147  0.7228  0.7356
16566SOL     OW54382   7.485   2.634   5.330 -0.6163 -0.1446  0.1007
16566SOL    HW154383   7.504   2.597   5.415  0.5484  1.3398  0.5358
16566SOL    HW254384   7.513   2.726   5.337 -2.5897  0.6157 -1.1590
16567SOL     OW54385  10.781   7.870   4.486  0.2578 -0.3822  0.4808
16567SOL    HW154386  10.866   7.905   4.457 -0.0163 -0.3609 -0.3008
16567SOL    HW254387  10.723   7.882   4.412 -0.4635 -0.3195  1.0453
16568SOL     OW54388   8.197   9.823   3.045  0.5801 -0.0128  0.2559
16568SOL    HW154389   8.163   9.821   3.135 -0.8606  0.5281 -0.2387
16568SOL    HW254390   8.181   9.913   3.016 -0.0010 -0.4656 -0.8928
16569SOL     OW54391   0.499   6.483   3.787 -0.1549 -0.4296  0.3140
16569SOL    HW154392   0.428   6.422   3.764 -0.6733 -0.2264  1.3270
16569SOL    HW254393   0.552   6.434   3.850  0.2240 -0.3305  0.0725
16570SOL     OW54394   6.886   5.901   0.070 -0.1719 -0.5653  0.6647
16570SOL    HW154395   6.871   5.989   0.037 -1.1836 -1.0315 -0.1786
16570SOL    HW254396   6.939   5.913   0.149 -1.0026  0.8476  1.0277
16571SOL     OW54397   1.305   6.576  11.774 -0.3206 -0.3139 -0.5354
16571SOL    HW154398   1.377   6.522  11.807 -0.1845  1.5958  2.6214
16571SOL    HW254399   1.226   6.528  11.799 -0.3183 -1.8744 -3.0705
16572SOL     OW54400  10.849  10.737   7.813 -0.0659  0.1808 -0.1119
16572SOL    HW154401  10.773  10.784   7.780 -1.9720 -2.0884  0.6905
16572SOL    HW254402  10.903  10.720   7.736 -0.2230  1.9945 -0.6646
16573SOL     OW54403   5.588   1.407   3.572 -0.1681  0.4405  0.2393
16573SOL    HW154404   5.541   1.328   3.599  0.4717 -0.4082 -0.9702
16573SOL    HW254405   5.524   1.457   3.522 -0.5160  0.5786  0.8192
16574SOL     OW54406   7.513   1.352   3.219 -0.1489 -0.0692 -0.2498
16574SOL    HW154407   7.451   1.400   3.164 -0.1278  0.2547  0.0026
16574SOL    HW254408   7.475   1.265   3.228  0.4437 -0.5235 -1.7655
16575SOL     OW54409   8.577   5.892  11.198  0.6613  0.0473  0.1075
16575SOL    HW154410   8.485   5.866  11.207  0.9181 -0.6618  0.7781
16575SOL    HW254411   8.626   5.809  11.203  1.3312  0.3998 -0.4113
16576SOL     OW54412   6.646  10.340   8.285 -0.1560 -0.1642  0.1397
16576SOL    HW154413   6.631  10.409   8.221  0.4768  0.9913  1.1801
16576SOL    HW254414   6.722  10.293   8.252 -0.8618 -0.6721 -0.8094
16577SOL     OW54415   1.678   1.149  11.307 -0.4564  0.0797 -0.2843
16577SOL    HW154416   1.627   1.229  11.322  0.1150  0.4948 -0.5161
16577SOL    HW254417   1.629   1.081  11.353 -1.1430  0.4946 -0.3858
16578SOL     OW54418   1.424  10.341   0.525  0.0706  0.8067 -1.1098
16578SOL    HW154419   1.419  10.436   0.514  2.2428  0.9928 -0.9920
16578SOL    HW254420   1.345  10.318   0.573  0.1589  2.7765  0.0977
16579SOL     OW54421  11.329   8.275   4.931 -0.4459 -0.6056  0.1657
16579SOL    HW154422  11.272   8.277   4.854  1.3809 -0.1409 -1.2412
16579SOL    HW254423  11.297   8.201   4.983 -1.3561 -1.3034 -1.3305
16580SOL     OW54424  10.061   6.116   1.735  0.1868  0.1377 -0.4370
16580SOL    HW154425   9.983   6.155   1.774 -0.0475 -0.8435  0.1133
16580SOL    HW254426  10.028   6.047   1.678  0.6590 -1.7968  1.4849
16581SOL     OW54427   4.216   8.175   0.118 -0.0480  0.3389  0.5003
16581SOL    HW154428   4.264   8.233   0.177  0.4586  0.0605  0.3752
16581SOL    HW254429   4.281   8.109   0.092 -0.7089 -0.5061  0.9409
16582SOL     OW54430   4.520   6.422   4.289 -0.0748  0.0960  0.3061
16582SOL    HW154431   4.546   6.331   4.274  0.4266  0.2073  0.4616
16582SOL    HW254432   4.527   6.464   4.204  1.2086  0.3509  0.5178
16583SOL     OW54433  10.533   7.687   4.475 -0.1887  0.4285  0.0320
16583SOL    HW154434  10.602   7.753   4.485  0.1111 -0.2479  4.0942
16583SOL    HW254435  10.579   7.604   4.484 -1.1714 -0.1802 -0.3836
16584SOL     OW54436   0.554  10.644   0.211 -0.2631  0.3327  0.2388
16584SOL    HW154437   0.586  10.635   0.121 -0.1750 -0.7490  0.3718
16584SOL    HW254438   0.502  10.566   0.227  1.5615 -0.6540  1.8623
16585SOL     OW54439   4.634   1.077  10.042  0.6993  0.2750 -0.2799
16585SOL    HW154440   4.571   1.005  10.053  0.2283  0.9081  1.5013
16585SOL    HW254441   4.698   1.043   9.979  0.0253 -1.3814 -0.1320
16586SOL     OW54442   8.942   5.302   4.971  0.1095  0.0142 -0.3723
16586SOL    HW154443   8.946   5.371   4.905 -0.5510 -0.3766 -0.8317
16586SOL    HW254444   8.883   5.337   5.038 -0.3560 -0.1726 -0.6853
16587SOL     OW54445   8.848  11.700   5.483 -0.5177  0.5331 -0.0749
16587SOL    HW154446   8.910  11.699   5.411 -1.3207 -0.8322 -0.7827
16587SOL    HW254447   8.899  11.674   5.560 -0.4390 -1.9625 -0.8926
16588SOL     OW54448  10.346   4.605   6.110 -0.3934  0.1683  0.5758
16588SOL    HW154449  10.264   4.649   6.088 -0.9697 -0.1726  1.8884
16588SOL    HW254450  10.415   4.665   6.083 -1.1467  2.1724  2.7362
16589SOL     OW54451   4.559   3.819   8.479 -0.0225 -0.0928 -0.9591
16589SOL    HW154452   4.497   3.892   8.471 -0.2147 -0.1313 -0.0037
16589SOL    HW254453   4.645   3.861   8.476 -0.0335 -0.1098 -3.0172
16590SOL     OW54454   0.129   5.933   5.510 -0.0634 -0.0432  0.4487
16590SOL    HW154455   0.165   5.855   5.553 -1.7096 -0.2464  1.5735
16590SOL    HW254456   0.113   5.906   5.420 -3.1087 -2.0059  1.4091
16591SOL     OW54457   1.138   4.011  10.842 -0.1705 -0.0764 -0.8089
16591SOL    HW154458   1.075   4.050  10.903 -0.4625  1.8120 -2.2280
16591SOL    HW254459   1.085   3.953  10.786 -0.8759  2.0190 -2.4377
16592SOL     OW54460   7.623   0.500  10.047  0.2374  0.0857 -0.0540
16592SOL    HW154461   7.693   0.550  10.089  0.5735 -0.2230 -0.2423
16592SOL    HW254462   7.545   0.555  10.058  0.7473  1.0429 -0.9699
16593SOL     OW54463  11.118   3.457   1.480  0.2745  0.0328 -0.7003
16593SOL    HW154464  11.081   3.408   1.407 -1.0170 -2.6097  1.5483
16593SOL    HW254465  11.058   3.531   1.491 -0.5607 -0.5514 -1.1854
16594SOL     OW54466  11.822   5.320  11.464  0.1957 -0.1468  0.1071
16594SOL    HW154467  11.816   5.389  11.397  0.5353 -1.0285 -0.8693
16594SOL    HW254468  11.890   5.351  11.524 -0.1497  0.6862  0.0788
16595SOL     OW54469   8.564   8.069   0.469 -0.2483 -0.2278 -0.2046
16595SOL    HW154470   8.648   8.075   0.515 -1.1679  3.8946  1.3286
16595SOL    HW254471   8.504   8.031   0.533 -0.6132  1.7038  0.6704
16596SOL     OW54472   7.510  11.026   5.459  0.2252 -0.1279  0.4297
16596SOL    HW154473   7.482  10.979   5.380  1.7443 -1.0187  0.3744
16596SOL    HW254474   7.551  10.959   5.514  0.9682  0.8368  1.0916
16597SOL     OW54475   9.595   2.987   2.625 -0.3236 -0.0303 -0.0391
16597SOL    HW154476   9.577   3.048   2.553 -0.0207 -0.1190 -0.1940
16597SOL    HW254477   9.684   3.009   2.653 -0.5034  0.1173  0.4280
16598SOL     OW54478   6.555   6.922   0.036  0.2604 -0.4378 -0.2782
16598SOL    HW154479   6.566   7.016   0.020 -2.5285  0.2254  1.1327
16598SOL    HW254480   6.543   6.884  -0.051 -0.3204  0.8120 -0.7674
16599SOL     OW54481   1.569   4.158   2.085 -0.4132  0.0019  0.0906
16599SOL    HW154482   1.530   4.235   2.127 -1.6607  0.2660 -1.4553
16599SOL    HW254483   1.555   4.172   1.991 -0.2574 -1.8964 -0.2585
16600SOL     OW54484   9.206   0.247   1.522  0.5360 -0.0479  0.0659
16600SOL    HW154485   9.281   0.289   1.563  0.6102 -1.2176  1.2065
16600SOL    HW254486   9.239   0.161   1.494 -0.2688 -0.4200  0.2239
16601SOL     OW54487   4.360   8.287   7.278  0.2210  0.2547 -0.4457
16601SOL    HW154488   4.392   8.218   7.220  2.0629 -0.8206  1.7311
16601SOL    HW254489   4.335   8.242   7.358 -2.7103  1.6417 -0.4288
16602SOL     OW54490   2.433   0.741   1.644 -0.8758  0.3635 -0.2230
16602SOL    HW154491   2.405   0.826   1.678 -1.5609  0.4989 -1.0873
16602SOL    HW254492   2.520   0.758   1.607 -0.5437  0.4336  0.5734
16603SOL     OW54493  10.692   9.296   2.647  0.7286  0.0739  0.2410
16603SOL    HW154494  10.759   9.314   2.712  0.6905 -0.7363  0.5111
16603SOL    HW254495  10.629   9.240   2.691 -0.9266  1.9648  0.4595
16604SOL     OW54496   4.617   9.785  11.250  0.3332 -0.5981 -0.6692
16604SOL    HW154497   4.709   9.774  11.272 -0.2238 -1.4190  1.4402
16604SOL    HW254498   4.604   9.729  11.173  1.1720 -1.9615  0.1541
16605SOL     OW54499   2.933   4.557  10.405  0.5181  0.0314 -0.3101
16605SOL    HW154500   2.911   4.637  10.357 -0.4132 -1.6318 -2.8803
16605SOL    HW254501   3.019   4.575  10.442  0.8940  1.7984 -1.8333
16606SOL     OW54502   7.849   2.592  11.652 -0.8736  0.3744  0.0735
16606SOL    HW154503   7.799   2.533  11.709  0.5256 -0.2556  0.7029
16606SOL    HW254504   7.792   2.606  11.577 -1.0594 -2.2702 -0.3949
16607SOL     OW54505   4.043   3.002  10.530 -0.4463  0.4257 -0.0136
16607SOL    HW154506   4.007   2.921  10.566 -1.0132  0.7391  0.1277
16607SOL    HW254507   4.071   3.052  10.607 -0.8061  0.6949 -0.0556
16608SOL     OW54508   4.872   9.827   0.504 -0.1693  0.4471  0.2540
16608SOL    HW154509   4.804   9.784   0.452 -1.4981 -0.2907  2.4945
16608SOL    HW254510   4.949   9.771   0.493 -0.3390  0.4538 -1.0960
16609SOL     OW54511   0.098   5.966  11.583 -0.4505 -0.1656  0.3787
16609SOL    HW154512   0.182   5.999  11.614 -0.7927 -0.5130  1.7618
16609SOL    HW254513   0.106   5.964  11.488  1.0544 -0.0790  0.4824
16610SOL     OW54514   6.730   9.175   3.412 -0.6466  0.4940  0.0601
16610SOL    HW154515   6.684   9.092   3.398 -0.5309  0.2122  1.2444
16610SOL    HW254516   6.814   9.151   3.451 -0.0690  1.0991 -0.7763
16611SOL     OW54517   1.299  10.242   6.202 -0.5924 -0.0189 -0.3072
16611SOL    HW154518   1.335  10.153   6.209 -1.4715 -0.4404 -0.9563
16611SOL    HW254519   1.276  10.251   6.109 -3.1369 -0.1864  0.2312
16612SOL     OW54520   0.884   2.998   4.383  0.4578  0.2893 -0.1882
16612SOL    HW154521   0.959   2.974   4.437  0.2036 -0.9713 -0.3765
16612SOL    HW254522   0.900   3.090   4.360  1.1478  0.4959  1.0555
16613SOL     OW54523  10.361  12.000   0.240 -0.0949 -0.0199 -0.0352
16613SOL    HW154524  10.324  12.024   0.324  2.5858 -1.7787  1.8068
16613SOL    HW254525  10.367  11.904   0.242 -0.2892 -0.1566 -2.4138
16614SOL     OW54526   9.290   4.883   4.196  0.1081 -0.3374  0.1570
16614SOL    HW154527   9.295   4.787   4.197  1.5698 -0.3700 -1.9649
16614SOL    HW254528   9.227   4.903   4.126 -0.3182  0.2732  0.7011
16615SOL     OW54529   0.467  10.332   2.413  0.3240 -0.0341 -0.5280
16615SOL    HW154530   0.488  10.421   2.386 -0.3735  0.2419 -0.2035
16615SOL    HW254531   0.485  10.278   2.336  0.5395  0.4184 -0.7958
16616SOL     OW54532   4.323   2.375   0.640  0.4771 -0.1944  0.3728
16616SOL    HW154533   4.381   2.325   0.697  1.3501  0.2715 -0.0767
16616SOL    HW254534   4.305   2.316   0.566 -0.7345 -0.8333  1.1508
16617SOL     OW54535  11.376   2.595   2.455  0.3121 -0.1136  0.9875
16617SOL    HW154536  11.462   2.577   2.416  0.9913  0.1810  2.2920
16617SOL    HW254537  11.353   2.682   2.423  0.1705 -0.4735  0.0844
16618SOL     OW54538   4.606   4.133   8.231  0.2100  0.4149  0.3919
16618SOL    HW154539   4.600   4.053   8.180  0.9392  1.0344 -0.7270
16618SOL    HW254540   4.627   4.201   8.166  0.2776  1.3858  1.3979
16619SOL     OW54541   3.000   0.712   7.666 -0.1186  0.3886 -0.1316
16619SOL    HW154542   3.039   0.798   7.679  3.0452 -0.9940  0.4727
16619SOL    HW254543   2.958   0.692   7.750  0.0933  0.8888  0.0965
16620SOL     OW54544   0.380   2.186   0.019 -0.0890  0.5521  0.4415
16620SOL    HW154545   0.356   2.179  -0.074  2.6959  2.4971 -0.5501
16620SOL    HW254546   0.454   2.127   0.029 -0.8446 -0.2351  1.7114
16621SOL     OW54547   1.287  10.386   7.914  0.0675 -0.0556  0.4419
16621SOL    HW154548   1.347  10.322   7.878  0.9010  0.2326  1.2589
16621SOL    HW254549   1.341  10.465   7.926 -0.4369  0.1732  1.2820
16622SOL     OW54550   0.431   8.211  11.608 -0.2649  0.2675 -0.1727
16622SOL    HW154551   0.484   8.140  11.644  0.4932  0.0348 -1.6755
16622SOL    HW254552   0.377   8.168  11.541  1.0426  1.2490 -1.9325
16623SOL     OW54553  11.175  11.829   5.533 -0.7043  0.1088  0.2791
16623SOL    HW154554  11.148  11.898   5.473 -1.3811 -0.3705  0.0135
16623SOL    HW254555  11.135  11.853   5.617 -2.1104 -0.6509 -0.1384
16624SOL     OW54556   4.721   5.750   0.921  0.1713  0.0048  0.3656
16624SOL    HW154557   4.704   5.707   1.004 -1.6622  2.1352  1.1823
16624SOL    HW254558   4.785   5.818   0.941 -0.4215  0.6557  0.1297
16625SOL     OW54559  10.682   3.261   8.121  0.1850  0.0005 -0.5438
16625SOL    HW154560  10.717   3.348   8.105 -1.1600  0.8553  0.9186
16625SOL    HW254561  10.731   3.228   8.196 -0.7672  0.4068  0.2750
16626SOL     OW54562   2.723   1.311   9.165  0.3922 -0.1143  0.5274
16626SOL    HW154563   2.679   1.258   9.231  0.3437  0.5466  1.0395
16626SOL    HW254564   2.758   1.386   9.214 -0.5490  0.9278 -0.3547
16627SOL     OW54565   1.938  11.020  11.156 -0.2773  0.4767  0.1715
16627SOL    HW154566   1.891  10.988  11.079  0.5265  0.4444 -0.3230
16627SOL    HW254567   2.022  11.051  11.121  0.3354 -0.0688  1.1125
16628SOL     OW54568   5.219  11.991   7.837 -0.2253 -0.7490  0.4185
16628SOL    HW154569   5.233  12.032   7.752 -0.9156 -0.5757  0.3815
16628SOL    HW254570   5.127  11.963   7.835 -0.0529 -1.3690  0.8393
16629SOL     OW54571   8.314   2.417   3.753 -0.2273 -0.2091 -0.9551
16629SOL    HW154572   8.233   2.449   3.713  0.5207 -0.7898 -3.0137
16629SOL    HW254573   8.375   2.490   3.746 -0.2162 -0.1596 -0.4237
16630SOL     OW54574   9.781  10.689   1.302 -0.9371 -0.0070  0.4440
16630SOL    HW154575   9.804  10.666   1.212 -0.7849  0.0408  0.4693
16630SOL    HW254576   9.865  10.690   1.348 -0.9769  0.3122  0.5096
16631SOL     OW54577   8.879   7.901   4.648  0.3489 -0.0291 -0.2280
16631SOL    HW154578   8.845   7.814   4.627  0.8825 -0.4954  0.7647
16631SOL    HW254579   8.950   7.915   4.587  1.9823 -1.4309  1.2532
16632SOL     OW54580   1.205   1.241   6.200  0.1620  0.3227  0.1027
16632SOL    HW154581   1.235   1.151   6.212  1.9882  0.6825 -1.2077
16632SOL    HW254582   1.247   1.290   6.271  0.2268  0.3506  0.0450
16633SOL     OW54583   2.714   4.384   4.126 -0.3324 -0.3341 -0.4073
16633SOL    HW154584   2.619   4.372   4.129 -0.7463  2.3220  1.1498
16633SOL    HW254585   2.748   4.318   4.186 -1.4291  0.0527  0.6943
16634SOL     OW54586   4.818   2.490   7.389 -0.5016 -0.9304 -0.0270
16634SOL    HW154587   4.732   2.522   7.361  0.0938 -0.9727 -2.0912
16634SOL    HW254588   4.801   2.402   7.423 -1.3888 -0.5730  0.4787
16635SOL     OW54589   7.468   4.142   8.562  0.1284 -0.3450  0.2906
16635SOL    HW154590   7.393   4.190   8.527  0.0938  0.2831  1.1818
16635SOL    HW254591   7.428   4.074   8.617  0.1975  0.7416  1.7343
16636SOL     OW54592   6.406  10.950   0.610 -0.4577 -0.2544  0.3564
16636SOL    HW154593   6.352  10.914   0.539 -0.4355  1.0167 -0.3274
16636SOL    HW254594   6.491  10.964   0.570 -0.5254  0.7413  0.5564
16637SOL     OW54595  10.742   7.254   5.913 -0.1496 -0.2426 -0.2278
16637SOL    HW154596  10.702   7.339   5.931 -1.2076 -0.7000 -0.3663
16637SOL    HW254597  10.702   7.194   5.977  0.9426 -0.5516  0.1917
16638SOL     OW54598   2.548  11.969   6.957 -0.2142 -0.3475 -0.6376
16638SOL    HW154599   2.518  12.053   6.992 -1.5021 -0.7044 -0.8220
16638SOL    HW254600   2.490  11.905   6.998  0.3393 -1.0861 -0.9933
16639SOL     OW54601   4.869   1.010   3.318 -0.6690  0.1471 -0.3925
16639SOL    HW154602   4.903   0.983   3.233 -0.3246  0.0662 -0.2326
16639SOL    HW254603   4.867   0.929   3.369  0.4430  0.4234  0.1148
16640SOL     OW54604   1.086   3.483   2.827 -0.0664  0.4015  0.1116
16640SOL    HW154605   1.038   3.419   2.880  0.5341 -1.1859 -1.1727
16640SOL    HW254606   1.029   3.498   2.752  0.5435  0.0636 -0.4210
16641SOL     OW54607   7.080  11.142  11.771 -0.1761 -0.4442  0.5119
16641SOL    HW154608   7.105  11.095  11.850 -1.0376  1.6148  2.1276
16641SOL    HW254609   6.991  11.174  11.790 -0.1514  0.6526 -1.0297
16642SOL     OW54610  10.590   6.371   6.203 -0.3713 -0.4743  0.8547
16642SOL    HW154611  10.672   6.321   6.197  0.5636  0.9747  1.1180
16642SOL    HW254612  10.544   6.332   6.277 -0.8685 -2.5892 -0.4705
16643SOL     OW54613   0.802   5.628   3.598 -0.0595  0.3988 -0.6993
16643SOL    HW154614   0.867   5.565   3.630 -0.4643 -0.1492 -0.9397
16643SOL    HW254615   0.852   5.708   3.583  0.4241  0.1998 -0.1849
16644SOL     OW54616   2.742   5.591   7.617  0.0080  0.1150 -0.4985
16644SOL    HW154617   2.754   5.614   7.709 -2.2058 -1.2628  0.2146
16644SOL    HW254618   2.822   5.542   7.595  0.6182  0.5350  0.6464
16645SOL     OW54619   8.291   3.442   0.898 -0.2945  0.2047 -0.3502
16645SOL    HW154620   8.306   3.511   0.963  2.2442 -0.0034 -0.6005
16645SOL    HW254621   8.365   3.383   0.910 -2.9317 -3.2110  0.6323
16646SOL     OW54622   4.426   0.856   0.632 -0.2702  0.9304  0.0479
16646SOL    HW154623   4.469   0.806   0.701  1.5467 -0.1472 -1.7657
16646SOL    HW254624   4.384   0.790   0.577  0.3190  1.5332 -1.1720
16647SOL     OW54625   8.961   9.761   0.441  0.0641  0.1863 -0.0204
16647SOL    HW154626   8.993   9.834   0.389  0.4144  0.8225  1.0469
16647SOL    HW254627   8.890   9.798   0.493 -1.2190 -0.7708 -1.0220
16648SOL     OW54628   7.499   8.798   7.750  0.3336 -0.2408  0.1797
16648SOL    HW154629   7.521   8.808   7.842  1.6891  1.3908 -0.2759
16648SOL    HW254630   7.413   8.756   7.750  0.2835 -0.2060  2.1731
16649SOL     OW54631   6.372   5.545   2.903 -0.3044 -0.0591 -0.3148
16649SOL    HW154632   6.456   5.548   2.856 -0.3643 -0.7665 -0.4869
16649SOL    HW254633   6.329   5.467   2.868 -0.4976 -0.4092  0.6698
16650SOL     OW54634   9.414   0.374   1.661  0.5239 -0.7366  0.4047
16650SOL    HW154635   9.433   0.319   1.737  4.3472  0.1516  0.3151
16650SOL    HW254636   9.415   0.463   1.694 -0.1413 -0.4533 -0.3115
16651SOL     OW54637   0.300   5.500   8.744  0.9102  0.4679  0.0469
16651SOL    HW154638   0.293   5.408   8.718  0.5307  0.6100 -0.3896
16651SOL    HW254639   0.302   5.499   8.839  0.4171  0.0351  0.0535
16652SOL     OW54640   4.492   3.674   2.081 -0.0888  0.1773  0.6646
16652SOL    HW154641   4.510   3.765   2.058 -1.7514  0.8209  1.7901
16652SOL    HW254642   4.494   3.672   2.177  0.5492 -1.1245  0.6520
16653SOL     OW54643   6.632   8.336   4.083 -0.6957 -0.4960 -0.0731
16653SOL    HW154644   6.646   8.242   4.068 -0.7028 -0.3044 -1.4151
16653SOL    HW254645   6.633   8.374   3.996  0.0377  0.8773  0.5099
16654SOL     OW54646   4.135   3.183   8.079  0.5713 -0.0178 -0.2536
16654SOL    HW154647   4.111   3.147   8.164 -2.8090  0.0934 -1.0015
16654SOL    HW254648   4.210   3.131   8.051  0.1972 -1.7432  1.7172
16655SOL     OW54649   5.084   0.849   1.303 -0.2164 -0.1403  0.4881
16655SOL    HW154650   5.062   0.898   1.382 -0.6056  0.3951  0.0481
16655SOL    HW254651   5.081   0.757   1.330  2.3177  0.0830  1.8000
16656SOL     OW54652   2.116   7.528   4.158  0.2342  0.2772  0.4811
16656SOL    HW154653   2.147   7.603   4.108  1.3643 -0.7593 -0.4502
16656SOL    HW254654   2.159   7.536   4.243 -0.5644  1.2807  0.8039
16657SOL     OW54655   1.251   9.775   3.421  0.1594  0.1280  0.3432
16657SOL    HW154656   1.165   9.738   3.442 -0.9231  0.9043 -2.3607
16657SOL    HW254657   1.248   9.865   3.453 -0.9368  0.8527 -1.6422
16658SOL     OW54658   2.297   6.087   3.066 -0.4415 -0.1300 -0.3264
16658SOL    HW154659   2.327   6.131   2.986 -0.3331  0.3056 -0.0449
16658SOL    HW254660   2.365   6.022   3.084  0.1943  0.6327  0.1248
16659SOL     OW54661   6.842   5.022   7.737 -0.1420 -0.0555  0.2628
16659SOL    HW154662   6.845   5.045   7.830  1.6700  0.2778  0.1489
16659SOL    HW254663   6.785   4.945   7.734 -2.4142  1.4450  1.2768
16660SOL     OW54664   9.637   7.994   9.872 -0.3944  0.0432  0.3088
16660SOL    HW154665   9.678   7.912   9.900 -0.4634 -0.4665 -1.0359
16660SOL    HW254666   9.572   8.013   9.940 -0.9773 -1.4788  0.2159
16661SOL     OW54667   5.940  10.985   0.391 -0.0758  0.2484  0.0114
16661SOL    HW154668   5.996  11.034   0.450 -0.2659  1.3026 -0.6654
16661SOL    HW254669   5.862  10.965   0.443  0.6846 -0.8189  0.8038
16662SOL     OW54670   7.483   3.017  10.444  0.3157  0.2398  0.5670
16662SOL    HW154671   7.513   2.935  10.484  0.6311  0.1917  0.2361
16662SOL    HW254672   7.533   3.085  10.490  1.4980  0.1123 -0.4819
16663SOL     OW54673  11.999  11.858   1.616 -0.3591  0.3801 -0.0639
16663SOL    HW154674  12.086  11.831   1.647 -0.7303  0.0275  0.6829
16663SOL    HW254675  11.938  11.805   1.666 -1.0303  0.9237 -0.2897
16664SOL     OW54676   5.822   7.968  11.735  0.3031  0.5558  0.1336
16664SOL    HW154677   5.841   8.059  11.714  0.8969  0.4025 -0.0242
16664SOL    HW254678   5.763   7.972  11.810  1.5979  1.0393  1.1507
16665SOL     OW54679  10.957   6.394  11.185  0.8101 -0.1178 -0.0151
16665SOL    HW154680  10.897   6.463  11.157 -1.1262 -2.2720 -1.5771
16665SOL    HW254681  11.018   6.383  11.111 -0.3469 -1.5613 -0.8070
16666SOL     OW54682  11.200   0.204  11.222  0.5471 -0.2088  0.3608
16666SOL    HW154683  11.276   0.176  11.273  2.2932  0.8105 -1.5547
16666SOL    HW254684  11.236   0.232  11.138 -1.7254  2.2652  0.0954
16667SOL     OW54685   4.122  11.328   7.275 -0.1707 -0.0273  0.0199
16667SOL    HW154686   4.123  11.403   7.335 -0.3308 -0.7335  0.9279
16667SOL    HW254687   4.214  11.300   7.270  0.0109  0.6890 -0.9334
16668SOL     OW54688   2.307   0.337   5.894  0.1619 -0.3599 -0.3445
16668SOL    HW154689   2.271   0.276   5.959  1.8529  0.0932  1.0857
16668SOL    HW254690   2.374   0.386   5.941 -0.3509  1.8511 -1.7523
16669SOL     OW54691   2.808   3.205   1.565 -0.0947  0.0590 -0.0757
16669SOL    HW154692   2.871   3.226   1.635 -0.0346 -2.1214  0.6045
16669SOL    HW254693   2.773   3.290   1.539  1.6436  1.1681  0.9282
16670SOL     OW54694   1.902   1.831   0.646  0.5468 -0.3873 -0.2648
16670SOL    HW154695   1.826   1.889   0.645  1.0805  0.3307  0.0632
16670SOL    HW254696   1.903   1.791   0.558 -0.6499 -1.0075 -0.0137
16671SOL     OW54697   9.434   9.088   6.652 -0.0724 -0.0057 -0.5658
16671SOL    HW154698   9.447   9.007   6.602  2.3538  0.7478 -1.3148
16671SOL    HW254699   9.522   9.115   6.676 -0.9911  1.2277  1.6930
16672SOL     OW54700   2.635   2.575   5.853  0.3640 -0.4755 -0.2814
16672SOL    HW154701   2.583   2.517   5.798  1.3891  1.0195 -3.0833
16672SOL    HW254702   2.726   2.547   5.840  0.5528 -1.7644  2.9130
16673SOL     OW54703   6.290   2.408  11.144 -0.1062 -0.0468  0.0691
16673SOL    HW154704   6.339   2.350  11.202 -3.5401 -1.5426  1.7589
16673SOL    HW254705   6.246   2.469  11.203 -0.6699  0.9139 -1.3034
16674SOL     OW54706   6.332  10.427   4.009  0.0725 -0.1947  0.0346
16674SOL    HW154707   6.410  10.385   4.046  0.6931  0.9516  0.0964
16674SOL    HW254708   6.262  10.363   4.021  1.2473 -1.7745 -1.1712
16675SOL     OW54709   5.514   2.880   2.786 -0.0204  0.2432  0.3138
16675SOL    HW154710   5.519   2.847   2.696 -2.6422  1.0107 -0.1965
16675SOL    HW254711   5.601   2.863   2.822  0.5920 -1.7133 -1.7865
16676SOL     OW54712   4.256   6.002   0.716  0.2081 -0.0931 -0.1525
16676SOL    HW154713   4.243   6.096   0.709 -0.1068 -0.1724 -0.6726
16676SOL    HW254714   4.302   5.977   0.636 -0.5878 -0.5260 -0.4855
16677SOL     OW54715   8.964  11.815   4.203  0.7362 -0.2340 -0.7194
16677SOL    HW154716   8.893  11.802   4.141  0.5857  1.8558 -1.0709
16677SOL    HW254717   8.935  11.890   4.256  2.1144 -0.1578 -0.0406
16678SOL     OW54718   5.966   7.466  10.958  0.1898 -0.3538 -0.2526
16678SOL    HW154719   5.882   7.428  10.983 -0.7615  0.3008 -2.2201
16678SOL    HW254720   6.024   7.392  10.944 -0.2911 -0.8493  0.3465
16679SOL     OW54721   3.788   3.693   7.429  0.2551  0.2261  0.3377
16679SOL    HW154722   3.796   3.710   7.523  0.5911  0.6114  0.2430
16679SOL    HW254723   3.847   3.619   7.413  0.1925  0.1563  0.4313
16680SOL     OW54724  11.573   6.951   1.014  0.1520 -0.1162  0.2459
16680SOL    HW154725  11.617   6.883   0.963  0.8191 -0.3590  1.1278
16680SOL    HW254726  11.490   6.965   0.968  1.3072  0.7106 -1.7401
16681SOL     OW54727  10.119   3.653   5.918  0.2776 -0.2387 -0.2840
16681SOL    HW154728  10.031   3.689   5.902 -0.0331 -1.7036 -2.3101
16681SOL    HW254729  10.103   3.569   5.961  0.7178 -0.2451 -0.1285
16682SOL     OW54730   8.683   0.022  11.136 -0.3947  0.7847  0.0192
16682SOL    HW154731   8.683   0.017  11.040 -1.7699 -1.1697  0.0543
16682SOL    HW254732   8.765  -0.019  11.162 -0.7079 -0.1170 -0.3377
16683SOL     OW54733   9.383   8.048   9.160 -0.3365 -0.1147  0.0399
16683SOL    HW154734   9.477   8.064   9.148 -0.0652 -1.7278 -0.1626
16683SOL    HW254735   9.345   8.065   9.073 -0.1392 -0.1313 -0.0510
16684SOL     OW54736   4.561   5.629   2.703  0.2386 -0.7331  0.1459
16684SOL    HW154737   4.590   5.712   2.740  1.0389 -0.8428 -0.2253
16684SOL    HW254738   4.511   5.587   2.774  0.3635 -0.2208  0.5415
16685SOL     OW54739   5.079   8.708   0.815  0.3298 -0.2951  0.3918
16685SOL    HW154740   5.024   8.668   0.748  1.2456 -1.4952  0.3247
16685SOL    HW254741   5.055   8.801   0.814  0.3533 -0.2692 -1.6127
16686SOL     OW54742   7.704   4.688   9.188  0.3442  0.3046 -0.0574
16686SOL    HW154743   7.685   4.600   9.155 -0.0736  0.7113 -0.9171
16686SOL    HW254744   7.641   4.745   9.144 -1.5809  0.6590  2.8587
16687SOL     OW54745   1.279   8.972   5.744 -0.1117 -0.3801 -0.2109
16687SOL    HW154746   1.219   8.899   5.761 -1.9614  0.9506 -0.7638
16687SOL    HW254747   1.286   9.017   5.828  1.5407 -1.4841  0.2998
16688SOL     OW54748   3.726   3.798   1.798  0.3227 -0.1928  0.8147
16688SOL    HW154749   3.724   3.885   1.838  1.4428 -0.0546  0.6164
16688SOL    HW254750   3.762   3.741   1.866  0.8301 -0.2397  0.5146
16689SOL     OW54751   1.422   6.638  11.504 -0.0712  0.1447  0.7336
16689SOL    HW154752   1.504   6.662  11.547  0.0746 -1.8317  1.6843
16689SOL    HW254753   1.357   6.640  11.575 -0.6418  0.6727  0.2062
16690SOL     OW54754   5.330   3.294   2.876 -0.2473  0.4194  0.0739
16690SOL    HW154755   5.397   3.355   2.845  1.2409  0.1632  2.5361
16690SOL    HW254756   5.299   3.332   2.958 -1.0339 -0.9554  0.4437
16691SOL     OW54757   2.052   1.977   1.932  0.3259 -0.2687  0.0079
16691SOL    HW154758   2.007   1.963   1.849 -0.2512 -1.4339  0.4984
16691SOL    HW254759   1.982   1.983   1.997  0.7765  0.5377  0.4329
16692SOL     OW54760  10.780   9.529   3.405  0.4330 -0.1340 -0.3747
16692SOL    HW154761  10.713   9.461   3.410  1.4605 -1.1612 -0.0725
16692SOL    HW254762  10.738   9.606   3.443 -1.3769 -0.0389 -2.3794
16693SOL     OW54763   7.413   2.535   9.177 -0.4518 -0.0563  0.6707
16693SOL    HW154764   7.326   2.500   9.199 -0.2474 -0.0059  1.5998
16693SOL    HW254765   7.434   2.496   9.093 -1.2199 -0.3667  0.6133
16694SOL     OW54766   4.831   1.208   4.416 -0.2299  0.2086 -0.4931
16694SOL    HW154767   4.851   1.301   4.431 -2.1169  0.4085  1.3870
16694SOL    HW254768   4.806   1.204   4.324  0.2195  1.5051 -0.7008
16695SOL     OW54769   4.183   2.581   3.035 -0.2263 -0.0331 -0.2140
16695SOL    HW154770   4.236   2.557   2.958 -0.2184  0.2505 -0.2968
16695SOL    HW254771   4.186   2.676   3.037 -0.6353 -0.0225 -0.1447
16696SOL     OW54772   9.221  10.850   9.459  0.4971 -0.9417 -0.6772
16696SOL    HW154773   9.148  10.798   9.492  0.6294 -0.4131  0.4984
16696SOL    HW254774   9.200  10.866   9.367 -0.8202 -0.8713 -0.3758
16697SOL     OW54775   2.041  10.265   5.859  0.6700 -0.7387  0.2550
16697SOL    HW154776   2.049  10.235   5.768 -0.6314 -0.9563  0.1906
16697SOL    HW254777   1.993  10.194   5.903  0.3036 -0.1382  0.8413
16698SOL     OW54778   6.159  10.887   9.929 -0.4515 -0.5246  0.7110
16698SOL    HW154779   6.175  10.793   9.929  2.9716 -0.0923  0.3471
16698SOL    HW254780   6.108  10.903   9.850 -0.7840 -2.0248  0.5925
16699SOL     OW54781   3.982   2.196   3.743 -0.1991  0.2921  0.1240
16699SOL    HW154782   3.949   2.272   3.792 -0.1327  0.6047 -0.3073
16699SOL    HW254783   4.076   2.197   3.757 -0.2388  0.0497  0.4424
16700SOL     OW54784  10.461   3.246   2.951 -0.6312  0.6491 -0.1159
16700SOL    HW154785  10.551   3.272   2.971 -0.1207  0.3728 -1.8274
16700SOL    HW254786  10.411   3.270   3.028  0.7216  1.8459  0.4340
16701SOL     OW54787   2.408   3.195   8.784 -0.4983 -0.2133 -0.1243
16701SOL    HW154788   2.321   3.183   8.745 -0.0975  0.3813 -1.2385
16701SOL    HW254789   2.450   3.109   8.777 -0.4784 -0.1422 -0.8976
16702SOL     OW54790   8.083  11.414   9.431  0.5454 -0.1775  0.3550
16702SOL    HW154791   8.009  11.469   9.455 -0.3398 -0.8753 -0.6724
16702SOL    HW254792   8.067  11.331   9.476  1.2451 -0.0145  0.9302
16703SOL     OW54793   8.574   1.800   4.818 -0.2142 -0.1107  0.0233
16703SOL    HW154794   8.552   1.857   4.891  0.4008  1.0494 -0.6604
16703SOL    HW254795   8.627   1.730   4.856 -0.6032  0.0161  0.8117
16704SOL     OW54796   6.212   6.914  11.675 -0.2248 -0.1444 -0.1137
16704SOL    HW154797   6.204   6.911  11.580 -0.6371 -0.8807 -0.0587
16704SOL    HW254798   6.165   6.837  11.706 -0.9304  0.6141  0.7469
16705SOL     OW54799   7.188   4.239   5.156  0.0593 -0.3436  0.4377
16705SOL    HW154800   7.163   4.326   5.124  1.1633 -0.5667 -1.1263
16705SOL    HW254801   7.268   4.218   5.108 -0.0047 -2.0915  1.0396
16706SOL     OW54802   2.125  11.404   0.218  0.1815 -0.0364 -0.2717
16706SOL    HW154803   2.160  11.429   0.132  1.7380  1.0565  0.6221
16706SOL    HW254804   2.034  11.381   0.201  0.1564  1.1506 -2.0537
16707SOL     OW54805  11.646   4.104   8.018 -0.3226  0.2669 -0.2058
16707SOL    HW154806  11.560   4.127   7.984 -1.4183 -0.0789  2.1663
16707SOL    HW254807  11.661   4.167   8.088  0.0133 -1.4863  1.3543
16708SOL     OW54808   1.427  11.588   2.117 -0.2791 -0.3347 -0.7501
16708SOL    HW154809   1.509  11.557   2.155 -1.0216 -0.7583  0.5449
16708SOL    HW254810   1.392  11.513   2.069  0.0669 -0.1645 -1.2741
16709SOL     OW54811   8.044   7.570  10.186  0.3295 -0.1168  0.1084
16709SOL    HW154812   8.069   7.644  10.130  1.0241 -0.9327 -0.7019
16709SOL    HW254813   8.105   7.573  10.259  1.7624 -1.0676 -0.9771
16710SOL     OW54814   1.701   9.041   7.546 -0.5527  0.0333 -0.2372
16710SOL    HW154815   1.686   9.135   7.544 -0.2823  0.0748 -2.9400
16710SOL    HW254816   1.662   9.008   7.465  2.3126 -1.6529 -1.0710
16711SOL     OW54817   5.775   6.789   3.081  0.3743  0.1092  0.0101
16711SOL    HW154818   5.698   6.798   3.025  0.9170 -0.8462 -0.9348
16711SOL    HW254819   5.739   6.776   3.169 -0.5105  0.6973 -0.2453
16712SOL     OW54820   5.701   0.194   0.542 -0.2266 -0.2342  0.2094
16712SOL    HW154821   5.658   0.109   0.539 -0.7918 -0.0269  1.6655
16712SOL    HW254822   5.763   0.187   0.615 -1.2832  1.0320  1.2821
16713SOL     OW54823   1.022   4.968   8.641  0.2102  0.2265  0.4399
16713SOL    HW154824   1.034   4.936   8.552  0.1713 -0.4733  0.6780
16713SOL    HW254825   1.099   4.937   8.688  0.1493  0.4468  0.6862
16714SOL     OW54826   4.507   8.657   1.901 -0.0789  1.1876 -0.9332
16714SOL    HW154827   4.520   8.579   1.846  0.5056  0.2189  0.4938
16714SOL    HW254828   4.591   8.704   1.896  0.2513  0.6878 -0.2920
16715SOL     OW54829   3.746   3.060   2.942  0.2296 -0.0628  0.3117
16715SOL    HW154830   3.710   2.972   2.946  0.6864 -0.4597 -2.6066
16715SOL    HW254831   3.834   3.052   2.980 -0.1076 -0.6188  0.9931
16716SOL     OW54832   4.018   5.076   9.229  0.6114 -0.3111  0.4637
16716SOL    HW154833   4.051   5.012   9.293  1.6835  0.7030  0.9544
16716SOL    HW254834   3.943   5.032   9.189 -0.0538 -1.0377  2.3485
16717SOL     OW54835   7.534   5.696  11.084 -0.0319 -0.5646 -0.2421
16717SOL    HW154836   7.466   5.763  11.083 -0.1255 -0.5852 -3.2146
16717SOL    HW254837   7.555   5.686  11.176 -2.0566  1.4559  0.5536
16718SOL     OW54838   3.624   2.306  10.970  0.1945 -0.6032  0.1030
16718SOL    HW154839   3.538   2.306  11.012  1.3672 -0.8784  2.6468
16718SOL    HW254840   3.639   2.397  10.947 -0.4580 -0.4311  0.3205
16719SOL     OW54841   8.160   3.015   3.871  0.1745 -0.4150  0.3047
16719SOL    HW154842   8.085   2.957   3.858  0.2585 -0.7813  1.3971
16719SOL    HW254843   8.235   2.957   3.882  0.6377 -0.0506 -0.7820
16720SOL     OW54844   5.495   4.030   3.802  0.1085 -0.3395 -0.1751
16720SOL    HW154845   5.515   4.115   3.763 -0.2355  0.2523  0.8965
16720SOL    HW254846   5.527   4.037   3.892 -0.6443 -1.0563  0.1594
16721SOL     OW54847   5.793   8.203   1.834 -0.1912  0.1391 -0.4854
16721SOL    HW154848   5.864   8.249   1.880 -1.2480 -1.3907  3.0142
16721SOL    HW254849   5.726   8.271   1.820  0.3308  0.7408 -0.1186
16722SOL     OW54850   7.842   1.936  11.238  0.1763  0.2376 -0.0361
16722SOL    HW154851   7.819   1.851  11.276 -1.2132  1.7560  2.8152
16722SOL    HW254852   7.765   1.960  11.186 -0.0893  0.4276  0.4405
16723SOL     OW54853   7.723   5.605   0.937  0.4097 -0.6314 -0.2268
16723SOL    HW154854   7.655   5.550   0.977  0.6051 -0.9252 -0.2982
16723SOL    HW254855   7.751   5.663   1.008 -0.0039 -0.4178 -0.2295
16724SOL     OW54856   0.344   8.285   4.062 -0.0332  0.5905  0.1051
16724SOL    HW154857   0.421   8.263   4.009 -1.0210 -0.5505 -0.9257
16724SOL    HW254858   0.374   8.275   4.152  1.2016  0.7888 -0.2639
16725SOL     OW54859  11.027   9.454   3.496 -0.0705  0.2713  0.2228
16725SOL    HW154860  10.944   9.490   3.464  0.3827  1.0191 -0.1591
16725SOL    HW254861  11.016   9.359   3.491 -0.4559  0.3609 -1.0351
16726SOL     OW54862  11.197  11.487   1.167 -0.2879 -0.2000 -0.5652
16726SOL    HW154863  11.261  11.516   1.232 -0.9462 -0.6641  0.3203
16726SOL    HW254864  11.197  11.391   1.174 -1.6360 -0.1802  0.0275
16727SOL     OW54865   7.935  11.531  10.346  0.1640 -0.7151 -0.2052
16727SOL    HW154866   7.893  11.583  10.278 -0.4073 -1.1895 -0.2222
16727SOL    HW254867   7.975  11.596  10.404  0.6416 -0.3059 -0.9734
16728SOL     OW54868   2.290  11.703   2.424  0.3246 -0.2299  0.1603
16728SOL    HW154869   2.206  11.683   2.465  0.1881 -0.4090 -0.2044
16728SOL    HW254870   2.285  11.663   2.337  1.1984 -1.1726  0.5205
16729SOL     OW54871  11.561   9.842   1.360  0.1675  0.1298 -0.6249
16729SOL    HW154872  11.530   9.870   1.446 -0.7311 -0.1669 -0.8413
16729SOL    HW254873  11.653   9.818   1.374 -0.0615 -0.2199  0.3166
16730SOL     OW54874  11.667   8.237   4.969  0.1840  0.1180  0.2363
16730SOL    HW154875  11.690   8.302   4.903  1.8363 -0.8174 -0.1527
16730SOL    HW254876  11.640   8.289   5.045  2.9078  1.3612  0.4845
16731SOL     OW54877   7.533   6.811   9.150 -0.1834  0.5782  0.0656
16731SOL    HW154878   7.461   6.833   9.090 -1.2128  1.0549  1.4187
16731SOL    HW254879   7.574   6.734   9.111 -0.2801  1.3645 -1.6816
16732SOL     OW54880   1.028   8.966   2.436 -0.2533 -0.0960 -0.4063
16732SOL    HW154881   1.108   8.928   2.472 -0.3374  1.1828  1.2533
16732SOL    HW254882   0.961   8.948   2.502 -0.3391  2.6462  0.3975
16733SOL     OW54883  11.847   8.308  11.952  0.4840 -0.0084 -0.0197
16733SOL    HW154884  11.858   8.231  12.008  1.0239 -1.7465 -2.3430
16733SOL    HW254885  11.786   8.280  11.884  0.6451  1.6549 -0.9157
16734SOL     OW54886   5.582   6.623   0.514 -0.4195  0.0052 -0.0662
16734SOL    HW154887   5.634   6.702   0.500  0.4054 -0.2689  1.3058
16734SOL    HW254888   5.497   6.656   0.544  0.3691  0.3649  1.8632
16735SOL     OW54889   0.374   6.630   6.655 -0.3396  0.0100  0.3815
16735SOL    HW154890   0.375   6.673   6.741 -0.7743 -0.1895  0.4863
16735SOL    HW254891   0.333   6.545   6.671  2.2431 -1.3085  0.5594
16736SOL     OW54892   1.609   9.966   4.904  0.0272  0.4225  0.1991
16736SOL    HW154893   1.634  10.052   4.938  0.3290 -0.3354  2.0059
16736SOL    HW254894   1.691   9.928   4.872 -0.4015  1.4975 -2.3669
16737SOL     OW54895   1.799  11.163   3.811 -0.3668  0.1020 -0.1022
16737SOL    HW154896   1.738  11.107   3.763  0.5139 -0.3023 -0.7555
16737SOL    HW254897   1.752  11.246   3.820 -0.9028 -0.1104 -0.8409
16738SOL     OW54898   3.485   8.399   0.852 -0.3314 -0.1322  0.4357
16738SOL    HW154899   3.493   8.341   0.776 -1.4985  0.6683 -0.3180
16738SOL    HW254900   3.518   8.483   0.822  1.7517 -0.4391  1.6548
16739SOL     OW54901   9.183   9.406   4.269 -0.2333 -0.6921  0.4140
16739SOL    HW154902   9.269   9.409   4.311  0.2809 -1.8534 -0.5023
16739SOL    HW254903   9.198   9.443   4.181 -1.5668  3.0056  1.5424
16740SOL     OW54904   2.404   0.575   9.578 -0.2500 -0.0912  0.2103
16740SOL    HW154905   2.449   0.639   9.632 -0.6372 -0.7865  1.3939
16740SOL    HW254906   2.445   0.583   9.492 -0.1016  1.5236  0.4135
16741SOL     OW54907   3.324   6.094   0.776 -0.1100 -1.1717 -0.2849
16741SOL    HW154908   3.231   6.080   0.794  0.0799 -2.1159 -0.0332
16741SOL    HW254909   3.370   6.050   0.847  0.5558 -1.8053 -1.0934
16742SOL     OW54910   6.240   3.889   1.375  0.6927 -0.1002  0.2068
16742SOL    HW154911   6.150   3.866   1.398  0.6711  0.0253  0.2487
16742SOL    HW254912   6.235   3.979   1.344  0.5841 -0.5431 -1.1254
16743SOL     OW54913   4.748   5.437   9.766  0.0598  0.1751  0.6011
16743SOL    HW154914   4.811   5.413   9.834 -0.7668  1.3762  1.8583
16743SOL    HW254915   4.800   5.447   9.687  1.4584  1.0632  1.5954
16744SOL     OW54916   3.593   3.946   9.922 -0.4409 -0.0255 -0.0836
16744SOL    HW154917   3.581   4.034   9.959  1.9237  0.4310 -0.2873
16744SOL    HW254918   3.686   3.941   9.902 -0.0497 -3.3790  1.9342
16745SOL     OW54919   5.978   2.942   8.869 -0.1798  0.2220 -0.0539
16745SOL    HW154920   5.956   2.998   8.944 -0.2356  0.8893 -0.5538
16745SOL    HW254921   6.016   3.003   8.805  1.3969 -0.6039  0.0623
16746SOL     OW54922   6.844   7.292   0.188 -0.3781  0.6623 -0.1820
16746SOL    HW154923   6.801   7.375   0.209 -0.5349  0.7554 -0.8487
16746SOL    HW254924   6.914   7.316   0.127  0.0627  0.3978  0.2162
16747SOL     OW54925  10.923   1.202   1.942 -0.2427 -0.0167 -0.7494
16747SOL    HW154926  10.919   1.290   1.981  0.3290 -0.6298  0.7983
16747SOL    HW254927  10.989   1.210   1.873 -1.8678  1.3080 -2.2358
16748SOL     OW54928   2.951   0.637   5.242  0.2763  0.0216 -0.0899
16748SOL    HW154929   2.977   0.567   5.181 -0.7835 -0.2917 -0.2094
16748SOL    HW254930   2.878   0.599   5.291 -0.2620  1.0194 -0.0972
16749SOL     OW54931  10.033   7.318   8.572 -0.5526 -0.0558 -0.1522
16749SOL    HW154932   9.969   7.366   8.520 -0.5766  0.3167  0.2179
16749SOL    HW254933   9.999   7.228   8.574 -0.7012 -0.0076 -0.5362
16750SOL     OW54934   7.721   2.010   8.985 -0.3585  0.4874 -0.0776
16750SOL    HW154935   7.634   1.982   8.957 -1.1696  2.7465 -0.0105
16750SOL    HW254936   7.781   1.944   8.949 -2.1207 -1.4481  0.3919
16751SOL     OW54937   0.440   6.600   9.049  0.1791  0.0790 -0.1074
16751SOL    HW154938   0.400   6.517   9.075  1.3240 -0.0459  1.4334
16751SOL    HW254939   0.368   6.664   9.055 -0.2408 -0.4533  0.7522
16752SOL     OW54940   7.506   1.087   9.770 -0.2226 -0.2948 -0.0675
16752SOL    HW154941   7.445   1.094   9.696  0.4454 -1.8843 -0.8349
16752SOL    HW254942   7.590   1.064   9.729 -0.1999 -2.8999  1.2221
16753SOL     OW54943   0.173   5.279   9.888  0.1978  0.0783 -0.5037
16753SOL    HW154944   0.170   5.265   9.793  1.2760 -0.6930 -0.4483
16753SOL    HW254945   0.149   5.194   9.926 -1.3584  0.6798 -0.0457
16754SOL     OW54946   5.164   2.601  11.135  0.4757 -0.0966  0.2711
16754SOL    HW154947   5.208   2.647  11.207 -0.3145 -0.9063  1.2952
16754SOL    HW254948   5.191   2.510  11.145 -0.5145 -0.4019  0.2268
16755SOL     OW54949  11.217  11.832  10.407 -0.1216  0.1344 -0.5706
16755SOL    HW154950  11.135  11.804  10.446 -0.1096 -0.6467 -1.0940
16755SOL    HW254951  11.192  11.885  10.332 -0.1427  1.1891  0.1596
16756SOL     OW54952  10.636   9.442   0.685  0.1300 -0.5456 -0.1584
16756SOL    HW154953  10.621   9.385   0.761  2.6298 -0.8917  0.1579
16756SOL    HW254954  10.681   9.518   0.722  0.8988 -0.4740 -1.2225
16757SOL     OW54955   4.076  11.053   9.743 -0.6272  0.1675  0.0203
16757SOL    HW154956   4.130  11.020   9.671 -1.4242  0.6176 -0.8090
16757SOL    HW254957   3.986  11.037   9.715 -0.9509  0.2136  0.9900
16758SOL     OW54958   3.772   8.883   0.285 -0.3287 -0.1516 -0.1230
16758SOL    HW154959   3.837   8.897   0.354 -0.2637 -0.9053 -0.0259
16758SOL    HW254960   3.787   8.794   0.255 -1.9555 -0.7211  0.6104
16759SOL     OW54961  10.103   3.407   4.285  0.3777  0.4396  1.2410
16759SOL    HW154962  10.150   3.485   4.315  1.1509  0.4733  0.0046
16759SOL    HW254963  10.069   3.431   4.199  1.0020 -0.7259  0.6531
16760SOL     OW54964   6.632   5.179   9.173  0.3102 -0.0692 -0.5127
16760SOL    HW154965   6.702   5.241   9.195  1.4963 -1.3090 -0.6826
16760SOL    HW254966   6.561   5.201   9.234  0.8139  1.2533 -0.3752
16761SOL     OW54967   4.530   4.888   8.044 -0.0787  0.2867  0.6283
16761SOL    HW154968   4.529   4.852   8.133  0.6540  1.0799  0.9657
16761SOL    HW254969   4.440   4.918   8.030 -0.5796 -1.1747  0.5237
16762SOL     OW54970   1.374   4.028   1.399 -0.1420 -0.2846  0.5236
16762SOL    HW154971   1.378   4.076   1.316  1.2417 -1.2526  0.0004
16762SOL    HW254972   1.322   3.950   1.379  0.5722 -0.7456  0.4278
16763SOL     OW54973   9.739   9.326   3.231 -0.1607  0.1027 -0.0338
16763SOL    HW154974   9.645   9.345   3.226 -0.0108  0.8632 -0.1100
16763SOL    HW254975   9.775   9.362   3.150  0.2182 -0.0723  0.0537
16764SOL     OW54976   8.281   7.949   4.301  0.1246  0.5052 -0.3162
16764SOL    HW154977   8.238   7.983   4.380 -0.6112 -1.4026  0.1588
16764SOL    HW254978   8.362   8.000   4.295 -1.2026  2.7879 -0.0815
16765SOL     OW54979   1.977   9.908   0.133 -0.3364 -0.2836 -0.2019
16765SOL    HW154980   1.990   9.815   0.151  0.9421 -0.6722 -2.7819
16765SOL    HW254981   1.902   9.932   0.187 -1.4349 -3.0857 -0.3255
16766SOL     OW54982   0.585  11.771   5.515 -0.3967  0.2962 -0.4229
16766SOL    HW154983   0.555  11.782   5.424  1.6656  0.0391 -1.2079
16766SOL    HW254984   0.604  11.860   5.545 -0.4965  0.3373 -0.4839
16767SOL     OW54985   6.504  10.710   9.235  0.1621  0.0710  0.0473
16767SOL    HW154986   6.535  10.622   9.259  0.6348  0.6203  1.5804
16767SOL    HW254987   6.525  10.718   9.142  0.2592 -1.3746 -0.0869
16768SOL     OW54988   7.329   1.350   7.705 -0.0737  0.0279  0.1352
16768SOL    HW154989   7.291   1.415   7.645 -1.1358 -0.5285  0.1788
16768SOL    HW254990   7.378   1.290   7.648  1.3762  1.1454  0.1493
16769SOL     OW54991   1.251  10.304   3.754 -0.1460  0.1025  0.2121
16769SOL    HW154992   1.239  10.337   3.665  0.2413 -0.2891  0.0110
16769SOL    HW254993   1.203  10.366   3.809  1.1576  1.4466 -0.0880
16770SOL     OW54994  11.193  11.488   0.349 -0.0465  0.0926 -0.2739
16770SOL    HW154995  11.141  11.517   0.275  0.5321  0.0647 -0.7013
16770SOL    HW254996  11.236  11.408   0.318 -0.4717 -0.4033  0.3853
16771SOL     OW54997   9.404  10.657  10.934 -0.2124 -0.8582  0.5151
16771SOL    HW154998   9.361  10.583  10.889 -0.0802  0.1738 -1.4209
16771SOL    HW254999   9.491  10.625  10.955 -0.3365 -1.4331  0.1859
16772SOL     OW55000   9.594   9.386  10.817  0.1443 -0.1189 -0.0108
16772SOL    HW155001   9.606   9.477  10.846 -0.3740 -0.1763  0.4115
16772SOL    HW255002   9.626   9.385  10.727 -0.6546  0.7063 -0.3275
16773SOL     OW55003  10.089   5.438   2.209 -0.1220  0.3908 -0.4697
16773SOL    HW155004  10.007   5.458   2.255  1.3021 -0.5082  2.6496
16773SOL    HW255005  10.158   5.456   2.272  1.9489 -2.1317 -1.8151
16774SOL     OW55006  10.557   5.926   0.455 -0.3600 -0.0842 -0.1029
16774SOL    HW155007  10.528   5.965   0.538 -1.3227  1.8693 -1.2768
16774SOL    HW255008  10.481   5.931   0.398  0.2594 -1.4611 -1.1095
16775SOL     OW55009   7.698  11.425   0.030  0.2162  0.0882 -0.1456
16775SOL    HW155010   7.688  11.454  -0.061 -0.9895 -1.3963 -0.5355
16775SOL    HW255011   7.628  11.361   0.042  2.3190 -2.1643  0.8401
16776SOL     OW55012  10.824   4.410   7.963  0.0463 -0.9213  0.5572
16776SOL    HW155013  10.873   4.358   8.026  1.3010 -1.6150 -0.9117
16776SOL    HW255014  10.855   4.379   7.878  0.8355  2.2513 -0.4208
16777SOL     OW55015   2.041   7.249  11.625 -0.5195  0.4254 -0.1376
16777SOL    HW155016   1.958   7.267  11.670 -1.6872 -1.1739 -1.5279
16777SOL    HW255017   2.086   7.186  11.682 -0.3334  1.1468  0.5241
16778SOL     OW55018  10.434   4.926   2.488  0.0134 -0.4230 -0.2826
16778SOL    HW155019  10.489   4.932   2.566  1.7644 -1.6721 -1.3444
16778SOL    HW255020  10.438   4.833   2.463 -1.0671 -0.1855 -1.4570
16779SOL     OW55021   8.659   0.653   3.798  0.6191  0.7751 -0.3678
16779SOL    HW155022   8.748   0.674   3.769  1.1218  1.3256  1.4380
16779SOL    HW255023   8.630   0.732   3.843 -0.1988  0.0536  0.3945
16780SOL     OW55024   1.992   3.569   9.218  0.0437  0.2487  0.0733
16780SOL    HW155025   2.045   3.530   9.149 -0.5063 -0.0808 -0.1740
16780SOL    HW255026   2.045   3.641   9.253  1.1023 -0.7332  0.5582
16781SOL     OW55027   7.316   9.435   3.814 -0.0426 -0.9335  0.4731
16781SOL    HW155028   7.382   9.385   3.863  0.9918 -1.5546 -1.4597
16781SOL    HW255029   7.364   9.476   3.743 -1.7052 -1.3165 -0.9503
16782SOL     OW55030  10.028   8.772   2.510  0.0934  0.4968 -0.4646
16782SOL    HW155031   9.994   8.861   2.500 -0.7552  0.6212  2.4818
16782SOL    HW255032   9.950   8.717   2.507  0.2642  0.1799  0.5808
16783SOL     OW55033   5.787   1.257   2.235  0.6465  0.7105  0.4508
16783SOL    HW155034   5.724   1.302   2.178  1.0623  1.5703  0.6614
16783SOL    HW255035   5.787   1.308   2.316  2.2478  1.2305  0.1468
16784SOL     OW55036   6.674   0.264   0.371 -0.0616  0.2585 -0.3076
16784SOL    HW155037   6.721   0.217   0.440 -1.3911  0.0705  0.5164
16784SOL    HW255038   6.730   0.255   0.294  0.9227 -0.5105  0.4571
16785SOL     OW55039  10.612   7.472   3.022  0.3236  0.3413  0.1101
16785SOL    HW155040  10.670   7.486   3.097  2.1874  0.9251 -1.3805
16785SOL    HW255041  10.669   7.437   2.954 -0.9145  1.5830 -1.6478
16786SOL     OW55042   5.793  10.654   2.228 -0.2936  0.0691 -0.5718
16786SOL    HW155043   5.767  10.632   2.317 -0.1159  0.8772 -0.3186
16786SOL    HW255044   5.874  10.605   2.214 -0.1363  0.2133 -0.1709
16787SOL     OW55045   4.358   6.600   2.657 -0.3743 -0.6999 -0.3747
16787SOL    HW155046   4.436   6.642   2.620 -0.7478 -0.8038 -1.3054
16787SOL    HW255047   4.392   6.529   2.711  0.1731 -0.8197 -0.8695
16788SOL     OW55048  10.996   0.075  10.562 -0.1087  0.8902  0.3737
16788SOL    HW155049  11.035   0.026  10.635  1.0930  1.0561 -0.1347
16788SOL    HW255050  10.908   0.096  10.592  0.3819  1.0214  1.8151
16789SOL     OW55051  11.946   2.493   6.167 -0.1687  0.6218 -0.1387
16789SOL    HW155052  11.902   2.579   6.170  1.1861  1.3905 -1.2358
16789SOL    HW255053  12.024   2.505   6.221  0.6217  0.4638 -1.2153
16790SOL     OW55054   8.641   4.607  11.375  0.2349 -0.4184  0.1760
16790SOL    HW155055   8.636   4.656  11.293  2.2200 -0.3029  0.0699
16790SOL    HW255056   8.602   4.665  11.440 -0.5913 -0.1634 -0.5229
16791SOL     OW55057   1.044   8.064   4.284  0.4075  0.5950  0.5281
16791SOL    HW155058   1.094   7.992   4.247 -2.3116 -0.5214 -1.2711
16791SOL    HW255059   1.104   8.105   4.346  3.3130 -0.9062 -1.0672
16792SOL     OW55060   0.851   6.004  10.013 -0.6197  0.5329  0.1930
16792SOL    HW155061   0.885   6.073  10.070 -1.4101  1.5480 -0.5373
16792SOL    HW255062   0.906   6.007   9.935  0.2940 -0.6826  0.7611
16793SOL     OW55063   3.342  10.810   4.010  0.1842  0.7281 -0.1348
16793SOL    HW155064   3.383  10.789   3.926  2.1737  0.3390  0.8592
16793SOL    HW255065   3.337  10.906   4.011  2.4771  0.9119  0.2450
16794SOL     OW55066   4.253   1.534   1.891  0.0672  0.0570 -0.2723
16794SOL    HW155067   4.207   1.518   1.808 -1.2512  1.5859  0.1217
16794SOL    HW255068   4.185   1.566   1.950  1.0038 -0.9569  1.4129
16795SOL     OW55069   5.744   0.430   4.257 -0.1803 -0.7335 -0.4606
16795SOL    HW155070   5.708   0.367   4.319  0.5119 -0.4154  0.2820
16795SOL    HW255071   5.669   0.484   4.232 -0.6171 -1.3458 -0.5017
16796SOL     OW55072   0.015   2.244  10.526  0.1314 -0.8628  0.3043
16796SOL    HW155073   0.022   2.169  10.584  1.1714 -1.0771 -0.0788
16796SOL    HW255074   0.082   2.306  10.557  0.0639 -0.5881 -0.0811
16797SOL     OW55075   7.311   5.846  11.113 -0.0287  0.7272 -0.1509
16797SOL    HW155076   7.240   5.810  11.167  0.6410  0.5512  0.6363
16797SOL    HW255077   7.269   5.910  11.056 -0.6501  1.4591  1.0972
16798SOL     OW55078   5.752   9.469   7.167  0.7006 -0.0576  0.2084
16798SOL    HW155079   5.783   9.498   7.253  0.7986 -0.4564  0.3091
16798SOL    HW255080   5.685   9.403   7.187 -0.2811  0.8393 -0.0015
16799SOL     OW55081   3.407   8.147   6.038 -0.4926  0.0625 -0.2340
16799SOL    HW155082   3.393   8.192   6.121  1.1470  1.7529 -0.8146
16799SOL    HW255083   3.422   8.056   6.062  0.3308  0.5864  1.3673
16800SOL     OW55084   9.300   8.697   9.434  0.4897  0.8523  0.7618
16800SOL    HW155085   9.321   8.612   9.397  0.1544  1.3432 -0.6189
16800SOL    HW255086   9.280   8.679   9.526  3.2418 -0.1412  1.2574
16801SOL     OW55087   3.743  10.093   2.825 -0.3567  0.0972  0.8693
16801SOL    HW155088   3.833  10.125   2.819 -0.8084  1.4366  0.9286
16801SOL    HW255089   3.736  10.055   2.913  0.3791 -0.7489  0.5626
16802SOL     OW55090   4.921   9.151   9.396  0.2335  0.9898 -0.0015
16802SOL    HW155091   4.988   9.217   9.379  0.3618  1.4315  2.0141
16802SOL    HW255092   4.966   9.086   9.450 -0.4413  0.2450 -0.3206
16803SOL     OW55093   8.464  10.484   8.920 -0.1117  0.2186 -0.2570
16803SOL    HW155094   8.386  10.434   8.945  0.1727  0.1204  0.4419
16803SOL    HW255095   8.440  10.525   8.837 -0.4345 -0.8663 -0.7061
16804SOL     OW55096   3.607   6.722   0.868  0.5783  0.1065 -0.2287
16804SOL    HW155097   3.669   6.650   0.868 -1.0545 -1.3776  0.6754
16804SOL    HW255098   3.576   6.727   0.778  1.0853  0.0379 -0.4102
16805SOL     OW55099   7.386  10.684   3.227 -0.0727  0.0709  0.3303
16805SOL    HW155100   7.455  10.637   3.273 -0.6459  1.1470  2.3675
16805SOL    HW255101   7.403  10.776   3.244 -0.5561  0.5000 -1.2976
16806SOL     OW55102   5.755  10.156   7.335 -0.0196 -0.3827 -0.8231
16806SOL    HW155103   5.834  10.117   7.373 -0.7113 -0.5878  0.4458
16806SOL    HW255104   5.701  10.081   7.310 -0.2309 -0.2411 -0.7907
16807SOL     OW55105   3.359   3.697   6.208 -0.6557  1.0869  0.1579
16807SOL    HW155106   3.435   3.683   6.265 -0.1027  2.6200 -0.1535
16807SOL    HW255107   3.293   3.636   6.241 -0.0837  1.3766  1.9440
16808SOL     OW55108  10.871   9.431   4.124  0.4629  0.6145  0.0254
16808SOL    HW155109  10.777   9.430   4.107  0.2025  1.5722  1.2328
16808SOL    HW255110  10.882   9.382   4.205  0.6990  2.2949  1.0564
16809SOL     OW55111   5.535   4.922   3.247 -0.6928  0.7131  0.3105
16809SOL    HW155112   5.624   4.886   3.240  0.0724  2.8265 -2.2591
16809SOL    HW255113   5.540   4.981   3.322  0.1921  1.0814 -0.0238
16810SOL     OW55114  10.126   1.695   3.561 -0.3505 -0.6327 -0.6494
16810SOL    HW155115  10.163   1.621   3.609 -0.1301  0.3330  0.7480
16810SOL    HW255116  10.192   1.764   3.568 -0.5108 -0.3116 -2.0027
16811SOL     OW55117   8.060   0.450   3.023  0.2015  0.2117 -0.0776
16811SOL    HW155118   8.129   0.508   2.989 -0.6438  1.6977  0.6137
16811SOL    HW255119   8.057   0.469   3.117  0.3192 -1.4507  0.2806
16812SOL     OW55120   7.443  10.023   9.984  0.3834  0.0732  0.2756
16812SOL    HW155121   7.419   9.932  10.000  0.8244  0.1906  1.7115
16812SOL    HW255122   7.462  10.026   9.890 -1.7462 -0.7939 -0.2595
16813SOL     OW55123   9.887   6.197   6.433 -0.2267 -0.1368 -0.4157
16813SOL    HW155124   9.851   6.129   6.375  0.6006 -1.4506  0.5475
16813SOL    HW255125   9.831   6.195   6.510 -1.2358  1.5057 -1.0625
16814SOL     OW55126  10.848   9.177   7.153  0.4445 -0.0800 -0.2323
16814SOL    HW155127  10.900   9.127   7.090  0.4089 -0.2789 -0.1022
16814SOL    HW255128  10.766   9.129   7.161 -0.4368  1.0872 -1.6721
16815SOL     OW55129   5.870   7.668   0.280 -0.7556 -0.4112 -0.6085
16815SOL    HW155130   5.891   7.689   0.189  1.7471 -2.0498 -0.4995
16815SOL    HW255131   5.940   7.709   0.331 -0.8979 -1.3452  0.3829
16816SOL     OW55132   3.845  11.175   9.335 -0.7811  0.2032 -0.5812
16816SOL    HW155133   3.927  11.169   9.383 -1.4794 -1.1082  0.5198
16816SOL    HW255134   3.847  11.262   9.293  0.0733  1.2058  1.4266
16817SOL     OW55135   4.046   4.545   8.407  0.2924  0.4199  0.6076
16817SOL    HW155136   4.047   4.487   8.483  1.7672 -0.7000 -0.2232
16817SOL    HW255137   4.131   4.589   8.408 -0.1212  1.2583  0.2374
16818SOL     OW55138   5.057   3.637   2.910 -0.5738  0.2033  0.1008
16818SOL    HW155139   5.014   3.592   2.983  0.1170  0.6762  0.8053
16818SOL    HW255140   5.001   3.617   2.834 -1.9009  0.6008  0.9474
16819SOL     OW55141   9.165   0.658   6.335 -0.1691  0.4258 -0.5804
16819SOL    HW155142   9.206   0.680   6.251  2.3077 -0.0752  0.3869
16819SOL    HW255143   9.199   0.723   6.396  1.7915 -1.8331  0.9009
16820SOL     OW55144   8.099   1.955  11.730  0.0035  0.2268  0.2866
16820SOL    HW155145   8.032   1.918  11.787 -1.2792  1.8105 -0.1112
16820SOL    HW255146   8.182   1.935  11.774 -0.7752 -0.9356  1.2890
16821SOL     OW55147   2.174   0.275   8.386  0.0659  0.2738  0.1622
16821SOL    HW155148   2.083   0.246   8.391  0.7994 -2.3301 -0.2477
16821SOL    HW255149   2.201   0.253   8.296  1.1085  0.9890  0.2872
16822SOL     OW55150  10.517   2.234   8.668 -0.0500  0.4133  0.4058
16822SOL    HW155151  10.587   2.199   8.724 -0.3140 -1.2780 -0.2690
16822SOL    HW255152  10.550   2.319   8.640  0.4790  0.9399  2.4028
16823SOL     OW55153   0.699   1.771   7.951  0.2011 -0.2434 -0.0383
16823SOL    HW155154   0.732   1.856   7.979  0.8710 -0.8533  1.1198
16823SOL    HW255155   0.612   1.789   7.915  0.0678  0.8474  0.7837
16824SOL     OW55156  10.741   5.376  11.017  0.2454  0.1603 -0.0364
16824SOL    HW155157  10.793   5.342  10.944  1.8734  0.9226  0.7202
16824SOL    HW255158  10.703   5.298  11.058  1.8755 -0.5457  0.1854
16825SOL     OW55159   2.740   0.589  10.308 -0.4323  0.2289  0.2574
16825SOL    HW155160   2.736   0.619  10.399  1.5280  0.4204  0.3265
16825SOL    HW255161   2.833   0.591  10.286 -0.3225 -3.6727 -0.4525
16826SOL     OW55162  11.526   4.855   4.262  0.2109 -0.0329  0.8170
16826SOL    HW155163  11.527   4.762   4.286  0.1674 -0.1535  0.3662
16826SOL    HW255164  11.606   4.891   4.302  0.6401 -0.4385  0.3389
16827SOL     OW55165  11.887   3.944   0.787 -0.0250  0.3143 -0.0894
16827SOL    HW155166  11.872   4.039   0.782 -1.4456  0.2287  1.5575
16827SOL    HW255167  11.977   3.932   0.757  0.4794  2.2977  0.4933
16828SOL     OW55168   2.129   5.194   3.376 -0.6086 -0.3681 -0.1851
16828SOL    HW155169   2.146   5.283   3.344 -0.3840 -0.6265 -0.7936
16828SOL    HW255170   2.118   5.204   3.470  2.0780 -0.0437  0.1743
16829SOL     OW55171   4.743   9.883   7.278 -0.5557 -0.5791 -0.3485
16829SOL    HW155172   4.659   9.862   7.318 -0.7172 -1.1135 -0.9453
16829SOL    HW255173   4.802   9.812   7.304 -0.4906 -0.5942 -0.5309
16830SOL     OW55174   9.372   3.123   5.257  0.3471 -0.0152  0.0746
16830SOL    HW155175   9.415   3.038   5.269  1.6211  0.6595  0.4796
16830SOL    HW255176   9.405   3.155   5.174 -0.0781  0.1247 -0.0444
16831SOL     OW55177   4.897   0.906   9.020 -0.2865  0.5593 -0.4109
16831SOL    HW155178   4.872   0.936   9.107  0.0211  0.4158 -0.2739
16831SOL    HW255179   4.927   0.816   9.032  0.3561  0.7474 -0.5613
16832SOL     OW55180   2.199   2.755   8.186  0.0535 -0.1488  0.0861
16832SOL    HW155181   2.290   2.758   8.158  0.3285  0.7717  1.0151
16832SOL    HW255182   2.163   2.676   8.145  0.5061  0.9395 -2.5701
16833SOL     OW55183   9.829   0.968  11.841  0.4036  0.0928  0.1823
16833SOL    HW155184   9.806   1.060  11.857  2.4866  0.6654  0.1904
16833SOL    HW255185   9.849   0.964  11.747 -0.4285 -0.5459  0.0236
16834SOL     OW55186   3.526   5.405   7.466  0.0802  0.2027 -0.3114
16834SOL    HW155187   3.483   5.440   7.388 -1.1170  0.6282  0.5025
16834SOL    HW255188   3.491   5.316   7.475 -1.6571  0.9635  1.0330
16835SOL     OW55189   2.093   5.851   3.882 -0.5449 -0.1436  0.1158
16835SOL    HW155190   2.175   5.801   3.879 -0.3821  0.1232  0.0813
16835SOL    HW255191   2.050   5.821   3.961 -1.0885 -1.3438 -0.6116
16836SOL     OW55192   4.901   3.862   0.028 -0.1388 -0.2401  0.4406
16836SOL    HW155193   4.972   3.805   0.058  0.4587  1.0902  1.6415
16836SOL    HW255194   4.831   3.848   0.092 -0.7786 -1.1160 -0.4176
16837SOL     OW55195   7.975   7.939   6.769 -0.5224 -0.2566  0.3294
16837SOL    HW155196   7.951   7.846   6.772  0.6256 -0.6392 -0.9419
16837SOL    HW255197   8.001   7.960   6.859 -1.3210 -1.0108  0.7461
16838SOL     OW55198  11.993   6.704   8.545 -0.0788 -0.1525  0.0216
16838SOL    HW155199  11.908   6.659   8.542  0.2965 -0.8969  0.2441
16838SOL    HW255200  12.028   6.683   8.632 -1.0054  2.6780  1.2006
16839SOL     OW55201   4.612  10.279   7.026  0.1371 -0.3320 -0.1887
16839SOL    HW155202   4.584  10.194   6.993 -1.0425  0.1425 -0.4681
16839SOL    HW255203   4.536  10.312   7.075  1.2940 -0.3448  1.7221
16840SOL     OW55204  10.616   1.985   4.488  0.0728  0.0353  0.1636
16840SOL    HW155205  10.563   2.062   4.468 -1.6856 -0.8193  1.3149
16840SOL    HW255206  10.610   1.976   4.583  0.4390 -1.4094  0.0725
16841SOL     OW55207  10.108   8.969  10.931  0.1999  0.0388 -0.0657
16841SOL    HW155208  10.102   9.063  10.915  0.7417  0.0774 -0.0328
16841SOL    HW255209  10.022   8.935  10.904  0.1101  0.4974 -0.3693
16842SOL     OW55210   3.282   0.897   1.020  0.3358  0.1051  0.0877
16842SOL    HW155211   3.282   0.802   1.028 -0.3970 -0.0432 -1.2801
16842SOL    HW255212   3.190   0.920   1.000  0.1507  1.2774  2.0304
16843SOL     OW55213   3.200   0.416   0.786 -0.3024  0.1070  0.0902
16843SOL    HW155214   3.143   0.462   0.724 -0.3798 -0.7767 -0.5143
16843SOL    HW255215   3.189   0.464   0.868 -1.7991  0.0574 -0.0493
16844SOL     OW55216   0.466   3.945   7.156  0.5457  0.1530  0.5405
16844SOL    HW155217   0.419   3.907   7.230 -0.1507 -0.0835 -0.0143
16844SOL    HW255218   0.465   3.877   7.089  2.0520 -0.0169  0.6525
16845SOL     OW55219  10.832   8.784   8.978  0.0830 -0.3042 -0.0578
16845SOL    HW155220  10.800   8.868   8.944  0.5652  0.0845  0.4488
16845SOL    HW255221  10.848   8.732   8.899  2.8259  1.1830 -0.5756
16846SOL     OW55222   0.403  11.551   3.122  0.0165 -0.3318 -0.4741
16846SOL    HW155223   0.349  11.512   3.191 -0.2932 -0.2594 -0.6750
16846SOL    HW255224   0.342  11.568   3.050  0.2596 -0.0241 -0.6105
16847SOL     OW55225   8.019   1.657   4.907 -0.6026 -0.1063  0.1091
16847SOL    HW155226   8.111   1.637   4.893 -0.1469  1.4717  0.6390
16847SOL    HW255227   7.974   1.614   4.834  0.4734 -1.3157  0.1250
16848SOL     OW55228   8.397   4.069   1.180  0.2961 -0.6900 -0.4054
16848SOL    HW155229   8.486   4.039   1.161  1.2942  1.7947 -0.0569
16848SOL    HW255230   8.386   4.053   1.274  0.4915 -0.7060 -0.3860
16849SOL     OW55231  10.119   5.233   8.007 -0.7576  0.0858  0.4425
16849SOL    HW155232  10.120   5.287   7.928  1.3008 -0.1252  0.2534
16849SOL    HW255233  10.032   5.194   8.008 -0.9470  0.3246 -1.5776
16850SOL     OW55234  10.305   9.464   4.209  0.8070 -0.4000  0.4579
16850SOL    HW155235  10.297   9.546   4.161 -0.4084 -0.2002  0.9528
16850SOL    HW255236  10.235   9.409   4.174  1.2503 -1.0185  0.5273
16851SOL     OW55237   5.584   0.403   9.336  0.1524 -0.3075 -0.2572
16851SOL    HW155238   5.574   0.394   9.241  0.1594 -1.1809 -0.1842
16851SOL    HW255239   5.497   0.427   9.367  0.6906  2.8122 -0.7429
16852SOL     OW55240   1.506   1.757  10.871 -0.2464  0.4193  0.3288
16852SOL    HW155241   1.576   1.777  10.809 -0.9989  1.1544 -0.3107
16852SOL    HW255242   1.456   1.838  10.878 -0.6097  0.1285  1.3445
16853SOL     OW55243  11.401   7.516   3.896 -0.3548 -0.3536  0.8517
16853SOL    HW155244  11.476   7.475   3.937  1.1094  2.1327  0.8676
16853SOL    HW255245  11.399   7.605   3.932 -1.4353  0.6323 -1.4216
16854SOL     OW55246   4.226   3.538   4.692  0.4393  0.1037  0.1261
16854SOL    HW155247   4.201   3.630   4.701  2.7539  0.9005 -0.7146
16854SOL    HW255248   4.148   3.495   4.657 -0.7860  1.6745  0.7999
16855SOL     OW55249  10.527   5.313   8.990  0.5551 -0.2187  0.0990
16855SOL    HW155250  10.564   5.344   9.072 -1.6712 -1.1507  1.5513
16855SOL    HW255251  10.576   5.234   8.969  0.1659 -0.8213  1.3854
16856SOL     OW55252   4.891   6.182  10.531  0.0482  0.1384 -0.0313
16856SOL    HW155253   4.806   6.176  10.487  0.1681 -0.4668 -0.1805
16856SOL    HW255254   4.899   6.275  10.554  0.4108  0.6970 -2.1637
16857SOL     OW55255   5.287  11.326   9.937  0.4928  0.4385  0.2412
16857SOL    HW155256   5.317  11.269  10.007  0.8275  0.7442  0.3512
16857SOL    HW255257   5.244  11.399   9.982 -1.2436 -0.4322  0.0661
16858SOL     OW55258   0.941   4.315   3.423 -0.2135 -0.0447  0.4464
16858SOL    HW155259   0.991   4.234   3.431 -0.6184 -0.2414  1.0465
16858SOL    HW255260   0.854   4.292   3.454 -0.3372  0.6134  0.5896
16859SOL     OW55261   2.285   1.118   7.263  0.2074  0.0899  0.1183
16859SOL    HW155262   2.238   1.093   7.343  0.5347  0.7177  0.5247
16859SOL    HW255263   2.253   1.207   7.244  0.8872  0.3488  0.1480
16860SOL     OW55264   2.502   2.405   8.633 -0.0766  0.4926 -0.0818
16860SOL    HW155265   2.417   2.426   8.672 -0.5087  1.3259 -1.3877
16860SOL    HW255266   2.538   2.336   8.689 -1.8415 -0.2513  0.2021
16861SOL     OW55267   5.551   9.330   4.769  0.4749 -0.1173  0.7555
16861SOL    HW155268   5.616   9.281   4.719 -0.7138 -0.6740 -0.3139
16861SOL    HW255269   5.532   9.275   4.845  0.4327 -0.4852  0.4800
16862SOL     OW55270   1.092   4.929   7.995  0.5331 -0.4893 -0.1379
16862SOL    HW155271   1.175   4.898   8.031  0.7979  0.8694  0.5036
16862SOL    HW255272   1.075   5.011   8.041 -0.5243 -0.0900 -1.1743
16863SOL     OW55273   4.917  11.074  11.506  0.4030  0.2975 -0.1262
16863SOL    HW155274   4.888  11.110  11.423  0.5634 -0.9787 -0.7565
16863SOL    HW255275   4.975  11.141  11.543  1.2198  0.4079 -1.5665
16864SOL     OW55276   2.463   5.942   5.264  0.1443 -0.2997 -0.2879
16864SOL    HW155277   2.402   5.875   5.294  0.4958 -0.3865  0.2449
16864SOL    HW255278   2.412   5.996   5.204 -1.1656  1.0263  1.8594
16865SOL     OW55279   4.446   0.757   2.598 -0.6104 -0.6011  0.2626
16865SOL    HW155280   4.440   0.851   2.579 -0.4012 -0.6122  0.1289
16865SOL    HW255281   4.424   0.715   2.514 -0.3625 -0.6647  0.2293
16866SOL     OW55282   6.443   4.604   3.278 -0.4882  0.0809 -0.5153
16866SOL    HW155283   6.538   4.598   3.282 -0.5949 -1.2084  1.0031
16866SOL    HW255284   6.418   4.553   3.201 -0.0367 -1.0286  0.0571
16867SOL     OW55285  11.019   4.493   2.605  0.5979 -0.4626 -0.1525
16867SOL    HW155286  10.968   4.413   2.614 -0.5844  0.3149  0.2572
16867SOL    HW255287  10.985   4.534   2.525  0.2387  0.2922  0.3791
16868SOL     OW55288   1.200   8.937   6.304  0.4168  0.6687  0.4472
16868SOL    HW155289   1.124   8.900   6.260  0.2953 -0.5819  1.6338
16868SOL    HW255290   1.187   8.915   6.396  2.1205  0.5803  0.6922
16869SOL     OW55291   4.765   1.750  11.837 -0.2282 -0.4879  0.1712
16869SOL    HW155292   4.847   1.733  11.885 -0.2579 -0.7037  0.1466
16869SOL    HW255293   4.698   1.703  11.887 -0.3628 -0.1937  0.2711
16870SOL     OW55294  10.700   7.665   0.855  0.1245 -0.2825 -0.3166
16870SOL    HW155295  10.694   7.730   0.785 -0.2359  1.8149  1.5312
16870SOL    HW255296  10.785   7.682   0.896 -0.2388 -0.5539  0.5719
16871SOL     OW55297   2.032   4.113   6.762 -0.4337 -0.2746  0.3011
16871SOL    HW155298   1.990   4.055   6.699  0.4720 -0.6050 -0.0122
16871SOL    HW255299   2.035   4.063   6.843 -2.2199  0.3996  0.8309
16872SOL     OW55300   8.999   2.367   8.132  0.4482 -0.2624  0.0260
16872SOL    HW155301   8.919   2.350   8.082  0.8186 -0.0041 -0.6724
16872SOL    HW255302   9.004   2.295   8.195 -0.8376  0.2307  0.7382
16873SOL     OW55303   9.966   4.834   4.448  1.0447  0.1395 -0.1347
16873SOL    HW155304  10.044   4.823   4.502  0.1350 -0.1716  1.1331
16873SOL    HW255305   9.895   4.797   4.499 -0.0879  1.1314 -0.9289
16874SOL     OW55306   7.871   3.484   9.316 -0.1002 -0.2896 -0.2767
16874SOL    HW155307   7.792   3.430   9.307 -0.2473  0.0003 -0.7969
16874SOL    HW255308   7.932   3.429   9.365 -0.2607 -0.9184 -0.7559
16875SOL     OW55309   8.614  11.283   7.309 -0.1793 -0.1228 -0.2755
16875SOL    HW155310   8.646  11.372   7.293 -0.3879  0.1143  0.5338
16875SOL    HW255311   8.641  11.233   7.233 -0.5165  0.7531 -0.9857
16876SOL     OW55312   9.858   4.452   2.442  0.3287 -0.3921 -0.1213
16876SOL    HW155313   9.836   4.491   2.357 -0.3111 -0.3439  0.0579
16876SOL    HW255314   9.801   4.498   2.504  0.1583 -1.0427  0.2056
16877SOL     OW55315   2.946   9.834   8.375  0.3339  0.5350  0.0500
16877SOL    HW155316   2.862   9.876   8.392  0.5407  0.1472  2.5336
16877SOL    HW255317   2.926   9.741   8.370  0.6900  0.3126  1.9137
16878SOL     OW55318   2.289   7.234   8.036 -0.1261 -0.5652 -1.1441
16878SOL    HW155319   2.225   7.305   8.047 -0.3819 -0.8958 -0.4610
16878SOL    HW255320   2.366   7.277   7.999  1.0840  0.8242  2.5029
16879SOL     OW55321  10.199   8.059   5.662 -1.3347  0.5295 -0.1535
16879SOL    HW155322  10.247   8.004   5.725 -0.3730 -0.3034 -1.5533
16879SOL    HW255323  10.163   7.997   5.599 -0.2753  1.4722 -1.7451
16880SOL     OW55324   8.642   2.804   1.760  0.1059 -0.1023 -0.1988
16880SOL    HW155325   8.681   2.882   1.799  0.2409  0.4342 -1.3495
16880SOL    HW255326   8.716   2.747   1.742 -0.1134 -1.1533  1.9436
16881SOL     OW55327  11.587   4.367   3.322  0.1618  0.0999 -0.7637
16881SOL    HW155328  11.587   4.271   3.327 -0.0560  0.0738 -1.1978
16881SOL    HW255329  11.627   4.395   3.404  3.7827 -0.4186 -2.1776
16882SOL     OW55330   8.557   4.281   7.879 -0.3146 -0.3910 -0.4327
16882SOL    HW155331   8.483   4.314   7.930  0.6310  1.0469  0.0577
16882SOL    HW255332   8.632   4.288   7.938  0.5885  0.1781 -1.5964
16883SOL     OW55333   0.593  11.673   6.817  0.2168  0.0942  0.1913
16883SOL    HW155334   0.683  11.642   6.827 -0.3094 -1.2133  1.2463
16883SOL    HW255335   0.589  11.754   6.866  1.1245  0.8374 -0.9265
16884SOL     OW55336   0.489   3.689   9.969 -0.2621 -0.1448 -0.4737
16884SOL    HW155337   0.455   3.778   9.960 -0.9671 -0.1438  1.7963
16884SOL    HW255338   0.547   3.693  10.045  0.5602 -1.4042 -1.0011
16885SOL     OW55339   7.515   9.372   3.450 -0.5583 -0.1311 -0.1247
16885SOL    HW155340   7.534   9.292   3.500  0.7481  0.3844  0.2420
16885SOL    HW255341   7.472   9.430   3.512  2.5800  1.1808  1.0590
16886SOL     OW55342   8.943  11.503   7.892 -0.0102 -0.1350  0.1702
16886SOL    HW155343   8.882  11.466   7.957  1.4375 -0.4001  1.4392
16886SOL    HW255344   8.970  11.428   7.839  1.6317 -0.6686  1.6720
16887SOL     OW55345   9.818   1.945   6.606  0.1959  0.2705  0.9388
16887SOL    HW155346   9.801   1.935   6.700 -2.0009 -2.5369  0.4016
16887SOL    HW255347   9.770   2.024   6.581 -1.7006 -0.5378  1.7717
16888SOL     OW55348   2.135   0.749   8.892 -0.1743 -0.3804 -0.0933
16888SOL    HW155349   2.207   0.720   8.836 -0.4839 -1.2375 -0.0538
16888SOL    HW255350   2.069   0.681   8.884 -1.1239  0.5611 -0.3761
16889SOL     OW55351   9.124   9.483   9.509  0.3476 -0.0557  0.0695
16889SOL    HW155352   9.122   9.451   9.599 -0.6429  1.9788  0.8367
16889SOL    HW255353   9.039   9.460   9.473  0.4741 -0.2504 -0.0993
16890SOL     OW55354   3.841   6.139  11.306  0.9902 -0.2715  0.3559
16890SOL    HW155355   3.892   6.212  11.272  1.4434 -1.0843 -0.7435
16890SOL    HW255356   3.866   6.134  11.399  0.6638  1.1899  0.5404
16891SOL     OW55357   5.509   2.131  11.798 -0.0876 -0.1606  0.5570
16891SOL    HW155358   5.417   2.157  11.805 -0.5807 -1.3981 -0.7422
16891SOL    HW255359   5.554   2.183  11.864 -1.4723  1.6478  0.1702
16892SOL     OW55360   2.175   5.460   0.550  0.0540  0.0050 -0.0983
16892SOL    HW155361   2.221   5.402   0.611 -0.0168 -0.2885 -0.3200
16892SOL    HW255362   2.239   5.527   0.528  0.9487 -1.3067 -1.6684
16893SOL     OW55363   7.925   9.101  10.003 -0.4104 -1.0725 -0.2157
16893SOL    HW155364   7.910   9.196  10.005  0.7266 -0.8780  0.4299
16893SOL    HW255365   8.018   9.092  10.024 -0.3470 -2.3046 -0.9272
16894SOL     OW55366   8.670   6.027   8.222 -0.3005 -0.0696 -0.4595
16894SOL    HW155367   8.662   6.044   8.128 -2.1394 -0.9894 -0.5081
16894SOL    HW255368   8.596   6.074   8.261  1.3182  1.6412  0.7803
16895SOL     OW55369   2.838   5.847   0.653 -0.1658  0.3291  0.4717
16895SOL    HW155370   2.925   5.882   0.634 -0.2293  1.3356  1.8054
16895SOL    HW255371   2.803   5.908   0.719 -1.6493 -0.3807  0.3643
16896SOL     OW55372   1.603   2.637   4.899  0.4232  0.2478  0.2340
16896SOL    HW155373   1.673   2.581   4.865 -0.1157 -0.5784  0.4633
16896SOL    HW255374   1.549   2.578   4.951 -0.4875  0.8559 -0.0116
16897SOL     OW55375   6.687  11.442   3.612  0.1093 -0.3570  0.1957
16897SOL    HW155376   6.711  11.519   3.561 -0.1841 -1.0071 -0.9637
16897SOL    HW255377   6.640  11.477   3.687  2.8301  0.8014  1.4674
16898SOL     OW55378  11.940  11.566   0.658 -0.4809 -0.0275 -0.3298
16898SOL    HW155379  11.906  11.652   0.685  0.5396  0.2319  0.2242
16898SOL    HW255380  12.030  11.584   0.631  0.2392 -1.1246  1.1813
16899SOL     OW55381   0.487   0.695   2.734  0.4742 -0.3326 -0.0502
16899SOL    HW155382   0.395   0.698   2.709  0.1611  1.7992  1.1509
16899SOL    HW255383   0.525   0.773   2.695  1.3691 -0.2618  0.9147
16900SOL     OW55384   9.128   5.154   9.681 -0.1081 -0.0818 -0.0171
16900SOL    HW155385   9.034   5.137   9.675 -0.2440  1.0622 -2.1200
16900SOL    HW255386   9.169   5.069   9.666 -0.7827 -0.5655  0.7846
16901SOL     OW55387   7.290   8.395   7.904 -0.0411 -0.0352  0.0975
16901SOL    HW155388   7.252   8.449   7.973  1.5788  1.3806 -0.0361
16901SOL    HW255389   7.369   8.358   7.943 -0.8250 -1.9089  0.0007
16902SOL     OW55390   0.494   0.194   2.992  0.3446 -0.3061  0.5626
16902SOL    HW155391   0.589   0.191   2.986  0.7346  1.8666  3.6785
16902SOL    HW255392   0.471   0.126   3.056 -0.0564  0.1110  0.8674
16903SOL     OW55393   4.208   7.124   8.129  0.6115  0.5288 -0.9813
16903SOL    HW155394   4.279   7.120   8.193 -1.0027 -0.6908  0.8373
16903SOL    HW255395   4.180   7.216   8.129  2.1324  1.0244 -1.7285
16904SOL     OW55396  11.023   5.301   4.561 -0.6334  0.2966 -0.1247
16904SOL    HW155397  10.957   5.344   4.507  0.1066  0.7803 -0.6630
16904SOL    HW255398  11.051   5.369   4.624 -0.6311  0.1059  0.0814
16905SOL     OW55399   4.303   9.423  11.104 -0.1488 -0.3881 -0.0502
16905SOL    HW155400   4.257   9.345  11.134  2.3376 -2.7870 -1.9210
16905SOL    HW255401   4.251   9.455  11.030 -1.2142 -0.1997  0.7648
16906SOL     OW55402  11.111   2.329  11.299  0.6492 -0.1387 -0.2537
16906SOL    HW155403  11.049   2.390  11.339  2.1602  1.3079 -0.0546
16906SOL    HW255404  11.156   2.288  11.373  0.6414 -0.4628 -0.4239
16907SOL     OW55405   0.013  10.723   2.607 -0.3744  0.2698  0.1658
16907SOL    HW155406  -0.033  10.783   2.548 -1.3066  0.1392  0.7287
16907SOL    HW255407  -0.014  10.636   2.578 -0.6989  0.1998  0.6576
16908SOL     OW55408   7.209  10.778   8.371 -0.9967  0.0155  0.1024
16908SOL    HW155409   7.156  10.712   8.327 -0.3265 -0.0913 -0.5539
16908SOL    HW255410   7.300  10.754   8.351 -0.7241  0.7359  0.4299
16909SOL     OW55411   7.448   4.590   9.726 -0.2710  0.0468  0.0934
16909SOL    HW155412   7.499   4.621   9.800 -0.0398  0.4259 -0.2208
16909SOL    HW255413   7.468   4.651   9.655 -0.2840 -0.4619 -0.3578
16910SOL     OW55414   0.704   2.419   6.023  0.2778  0.8518  0.6067
16910SOL    HW155415   0.787   2.391   5.986 -0.5948 -0.4191 -0.4796
16910SOL    HW255416   0.694   2.366   6.103 -1.0022 -1.5816 -1.0362
16911SOL     OW55417   2.104   8.315   8.778 -0.1385 -0.1569 -0.3720
16911SOL    HW155418   2.166   8.355   8.717 -0.1424 -1.7848 -1.5058
16911SOL    HW255419   2.023   8.305   8.727 -0.0803 -1.7216 -0.2042
16912SOL     OW55420   2.693   2.586   9.709 -0.0109  0.1423 -0.0088
16912SOL    HW155421   2.603   2.609   9.730  0.1870 -0.3517  1.5111
16912SOL    HW255422   2.687   2.540   9.625 -1.4359 -1.5005  0.9307
16913SOL     OW55423   5.550   2.294   6.239  0.4531  0.1148  0.0474
16913SOL    HW155424   5.610   2.238   6.189  2.1692 -0.2160  2.2978
16913SOL    HW255425   5.589   2.299   6.326 -0.8828  2.9388  0.6120
16914SOL     OW55426   0.427   2.196   2.263 -0.0585  0.1243 -0.0765
16914SOL    HW155427   0.378   2.161   2.188  0.7736  0.2806 -0.7050
16914SOL    HW255428   0.499   2.245   2.223  0.8803 -0.4895  0.8366
16915SOL     OW55429   9.825   1.441   1.460  0.2414  0.0402 -0.1736
16915SOL    HW155430   9.866   1.514   1.505  2.0374 -0.8453 -0.3173
16915SOL    HW255431   9.826   1.369   1.523  0.4204 -0.4619 -0.7379
16916SOL     OW55432   6.527   1.332   2.296  0.2157 -0.0320  0.4378
16916SOL    HW155433   6.567   1.245   2.289  0.5581  0.2129 -1.0742
16916SOL    HW255434   6.596   1.392   2.267  0.3837  0.8838  2.5733
16917SOL     OW55435   8.768   4.246   1.495  0.5270 -0.4786  0.3922
16917SOL    HW155436   8.807   4.332   1.486 -2.0705  0.9834  1.8342
16917SOL    HW255437   8.812   4.192   1.429  3.2694  1.4972  0.4235
16918SOL     OW55438   8.583   9.472   2.408  0.2589 -0.0928  0.2129
16918SOL    HW155439   8.529   9.537   2.451 -0.4183 -1.5335  1.6447
16918SOL    HW255440   8.585   9.499   2.316 -0.4995  1.5620  0.6475
16919SOL     OW55441   3.750   9.481   8.152  0.7658 -0.1575 -0.3603
16919SOL    HW155442   3.796   9.421   8.211  0.4505  1.3804  1.5247
16919SOL    HW255443   3.762   9.568   8.191 -1.3065  0.6473 -1.3649
16920SOL     OW55444   0.636   8.987   9.473  0.6401 -0.1766 -0.0022
16920SOL    HW155445   0.673   8.898   9.465  3.8620  1.0001  0.2682
16920SOL    HW255446   0.644   9.024   9.385 -1.8785 -0.4913 -0.4190
16921SOL     OW55447   6.326   7.772   1.622  0.2002 -0.2519 -0.2707
16921SOL    HW155448   6.306   7.755   1.530 -0.2859 -1.6561  0.0712
16921SOL    HW255449   6.327   7.686   1.662  0.3544  0.3515  1.0641
16922SOL     OW55450   5.530   1.665  10.927 -0.1486  0.4043 -0.5897
16922SOL    HW155451   5.589   1.649  11.000 -2.2549 -2.8427  0.6702
16922SOL    HW255452   5.551   1.753  10.896  3.2406  0.5164  1.5967
16923SOL     OW55453   1.487   0.723  11.237  0.7257 -0.2292 -0.4854
16923SOL    HW155454   1.466   0.652  11.177  1.4063 -1.5039  0.7466
16923SOL    HW255455   1.572   0.755  11.208  0.7636 -0.4206 -0.5868
16924SOL     OW55456   2.918   8.977   8.823  0.4631 -0.0529  0.0477
16924SOL    HW155457   2.889   9.013   8.739 -0.1121  0.7190  0.5645
16924SOL    HW255458   2.985   8.912   8.799 -1.0158 -1.2327 -1.1437
16925SOL     OW55459   8.901   2.406   9.231  0.1685 -0.8769 -0.3797
16925SOL    HW155460   8.851   2.352   9.292 -0.8591  1.5544  1.0702
16925SOL    HW255461   8.851   2.487   9.223  0.7070 -0.7200 -3.8551
16926SOL     OW55462   0.739   9.594   2.505  0.1254  0.0733 -0.5360
16926SOL    HW155463   0.677   9.663   2.479 -0.5298 -1.1391 -2.3855
16926SOL    HW255464   0.699   9.553   2.582 -0.8888 -0.0510 -1.1199
16927SOL     OW55465   1.031   1.632  10.407  1.2125  0.1532  0.6679
16927SOL    HW155466   1.052   1.591  10.323 -0.8245 -1.3910  0.8211
16927SOL    HW255467   1.107   1.615  10.463  1.5458 -1.0387 -0.1201
16928SOL     OW55468   8.555   6.651   0.760 -0.2966 -0.0818  0.1742
16928SOL    HW155469   8.460   6.638   0.762 -0.1328 -1.2984  0.4740
16928SOL    HW255470   8.568   6.730   0.813 -1.0492 -0.5054  1.0235
16929SOL     OW55471   2.758   7.845  11.903 -0.1965 -0.4322 -0.2657
16929SOL    HW155472   2.670   7.874  11.877  0.3981  1.9084  0.1088
16929SOL    HW255473   2.743   7.782  11.973 -1.5786  0.6018  0.4095
16930SOL     OW55474   2.250   9.708   5.453 -0.3702 -0.6010  0.0436
16930SOL    HW155475   2.266   9.639   5.389  0.9899 -0.2445 -0.0314
16930SOL    HW255476   2.220   9.662   5.532 -0.0504 -1.2245 -0.1923
16931SOL     OW55477  11.278  10.619   9.565 -0.3049 -0.2476 -0.0566
16931SOL    HW155478  11.359  10.576   9.535 -1.0320 -1.0247 -0.9930
16931SOL    HW255479  11.296  10.642   9.656  1.1422  0.0301 -0.3794
16932SOL     OW55480   9.055   5.241   7.245 -0.0373  0.1526  0.0065
16932SOL    HW155481   9.092   5.322   7.209  0.8409 -0.2604 -0.0561
16932SOL    HW255482   9.095   5.172   7.192  1.0194 -0.4440  1.5287
16933SOL     OW55483   1.632   6.629  11.178 -1.0566  0.0177 -0.3916
16933SOL    HW155484   1.597   6.594  11.096 -1.1664  0.6000 -0.5961
16933SOL    HW255485   1.635   6.553  11.236 -3.7580  0.1147  0.0341
16934SOL     OW55486  11.640   2.027  11.939 -0.6150  0.0355 -0.6361
16934SOL    HW155487  11.559   2.058  11.898 -1.1458  0.8723  0.9719
16934SOL    HW255488  11.685   2.106  11.968 -0.8588 -0.5320  1.4532
16935SOL     OW55489   7.068   9.130  10.642 -0.6436  0.3447  0.2755
16935SOL    HW155490   7.035   9.078  10.715 -0.6856  0.6717  0.4878
16935SOL    HW255491   6.991   9.175  10.607 -0.8624 -0.7883 -0.7796
16936SOL     OW55492   7.355   1.895   3.489 -0.1566  0.7407 -0.2804
16936SOL    HW155493   7.388   1.949   3.418  2.4479 -0.5764 -0.1757
16936SOL    HW255494   7.407   1.919   3.565 -1.6204  0.7879  0.7594
16937SOL     OW55495   3.144   5.557   2.651 -0.2790 -1.2448  0.5190
16937SOL    HW155496   3.061   5.519   2.624 -0.6175 -0.2682  0.1668
16937SOL    HW255497   3.210   5.512   2.598 -0.7736 -0.6149 -0.6425
16938SOL     OW55498   7.350   5.118  10.344 -0.2643  0.1600 -0.1059
16938SOL    HW155499   7.385   5.152  10.426  2.2333 -0.2794 -0.8991
16938SOL    HW255500   7.261   5.091  10.365 -0.0227  0.9630  2.1933
16939SOL     OW55501  10.965   1.882   5.918  0.5333 -0.6709 -0.1003
16939SOL    HW155502  10.892   1.827   5.946  0.1377  0.3673  0.9530
16939SOL    HW255503  10.940   1.971   5.944  0.6747  0.2125 -2.6976
16940SOL     OW55504   5.629  11.379   2.742  0.0725  0.2495 -0.1318
16940SOL    HW155505   5.657  11.392   2.651  0.1477 -2.0778 -0.5101
16940SOL    HW255506   5.546  11.426   2.749 -0.2237  0.0007 -1.6012
16941SOL     OW55507   5.037   7.806  10.908 -0.0616 -0.2018  0.7016
16941SOL    HW155508   5.098   7.794  10.981 -0.1747  0.3945  0.9015
16941SOL    HW255509   5.000   7.893  10.922  1.9084  1.1119 -1.5425
16942SOL     OW55510  11.106   4.985   2.931  0.2654  0.7343 -0.4691
16942SOL    HW155511  11.074   5.056   2.987 -1.5413 -2.1808  2.5534
16942SOL    HW255512  11.027   4.948   2.891  0.6937 -1.4564  0.5441
16943SOL     OW55513  10.532   6.967   5.881 -0.0642 -0.6409 -0.0092
16943SOL    HW155514  10.517   6.966   5.786 -1.6974 -1.7516  0.2155
16943SOL    HW255515  10.494   7.050   5.910 -1.2842 -1.1396 -0.1157
16944SOL     OW55516   4.360   9.796   9.743  0.3207 -0.2438 -0.5652
16944SOL    HW155517   4.313   9.715   9.721 -1.8999  1.1353 -1.2337
16944SOL    HW255518   4.327   9.820   9.830 -0.3651  0.8185 -1.0998
16945SOL     OW55519  11.788   0.101   4.932 -0.3134 -0.0076  0.1769
16945SOL    HW155520  11.806   0.129   4.842 -0.0111  0.1306  0.2791
16945SOL    HW255521  11.837   0.019   4.942  0.2711  0.3675  0.4541
16946SOL     OW55522  11.213  11.479  10.823  0.3915 -0.0214 -0.3827
16946SOL    HW155523  11.118  11.486  10.808  0.1268 -1.6362  0.3167
16946SOL    HW255524  11.243  11.569  10.828 -1.0400  0.5269 -1.0274
16947SOL     OW55525   9.989   7.734   6.386 -0.0209 -0.1722  0.3286
16947SOL    HW155526  10.006   7.751   6.479  1.8916 -0.5606  0.0953
16947SOL    HW255527   9.900   7.765   6.372 -0.5012 -0.4611  2.3777
16948SOL     OW55528   1.638   8.170   6.568 -0.4408  0.0351  0.4880
16948SOL    HW155529   1.677   8.101   6.514 -1.7529  0.2103 -0.7638
16948SOL    HW255530   1.550   8.139   6.588 -0.3256  0.4347  1.7002
16949SOL     OW55531   0.385   1.576  11.945  0.0161  0.1471 -0.3078
16949SOL    HW155532   0.385   1.482  11.966 -0.5935  0.3067  0.4265
16949SOL    HW255533   0.448   1.584  11.873  3.7337 -0.1152  2.6507
16950SOL     OW55534   1.296   1.901   9.254  0.6169 -0.3034  0.1189
16950SOL    HW155535   1.354   1.907   9.178  1.1441 -0.6498  0.4841
16950SOL    HW255536   1.296   1.989   9.291 -1.2866  0.4191 -1.4490
16951SOL     OW55537  11.468   6.422  11.841  0.4444  0.3145  0.1273
16951SOL    HW155538  11.485   6.347  11.784 -0.1564 -2.2989  3.1206
16951SOL    HW255539  11.373   6.428  11.845  0.4337 -0.2573  1.5724
16952SOL     OW55540   2.826   7.938  10.134  0.1274 -0.0341 -0.7724
16952SOL    HW155541   2.770   7.928  10.057 -1.8773  0.8539  0.4970
16952SOL    HW255542   2.836   7.850  10.168 -1.9805 -0.0654 -0.0772
16953SOL     OW55543   1.052   1.096   0.701  0.2810  0.2603  0.0784
16953SOL    HW155544   1.101   1.016   0.720  0.5844  0.5652  0.6142
16953SOL    HW255545   0.970   1.066   0.663  1.1693 -0.2489 -1.5611
16954SOL     OW55546  11.462   1.567   4.550  0.6302 -0.2410 -0.1391
16954SOL    HW155547  11.489   1.500   4.614  2.4725  0.5409 -0.0323
16954SOL    HW255548  11.525   1.559   4.479  0.6830  1.1584 -0.2729
16955SOL     OW55549   8.733  10.385   8.853 -0.1013 -0.3931  1.2306
16955SOL    HW155550   8.752  10.477   8.871 -0.4998  0.2415 -1.1817
16955SOL    HW255551   8.639  10.377   8.868 -0.1319 -0.3089  1.0869
16956SOL     OW55552   7.818   7.966   6.519 -1.0000  0.0945  0.2028
16956SOL    HW155553   7.834   7.882   6.477  1.5030  1.1713 -1.2306
16956SOL    HW255554   7.880   7.968   6.592 -1.6766  0.3335  0.7765
16957SOL     OW55555   2.237   4.262   4.339  0.3350  0.1982  0.1212
16957SOL    HW155556   2.234   4.242   4.245  0.2831 -1.9499  0.5110
16957SOL    HW255557   2.147   4.250   4.369  0.2568  1.3418  0.3856
16958SOL     OW55558   4.067   9.601   8.561 -0.1003 -0.2112 -0.3678
16958SOL    HW155559   4.125   9.606   8.484 -0.7788 -1.1265 -0.9638
16958SOL    HW255560   4.121   9.559   8.629  0.1728 -0.3877 -0.6874
16959SOL     OW55561   1.634   4.821   9.328 -0.2663  0.3023  0.2145
16959SOL    HW155562   1.693   4.880   9.374  0.8447  0.6654 -1.5640
16959SOL    HW255563   1.685   4.788   9.254 -1.4496 -1.4779  0.1139
16960SOL     OW55564   6.178   4.196   6.276  0.2986 -0.4070  0.0762
16960SOL    HW155565   6.243   4.247   6.323  0.7225  0.5531 -1.4708
16960SOL    HW255566   6.095   4.216   6.319  0.5518  1.1107 -0.1115
16961SOL     OW55567   0.370  11.253  11.985 -0.1447 -0.4282  0.2981
16961SOL    HW155568   0.458  11.253  11.947 -0.7808 -2.9905 -1.4152
16961SOL    HW255569   0.315  11.209  11.920 -3.0910  2.3745  0.6068
16962SOL     OW55570  10.342   3.708   7.443 -0.0619 -0.5739  0.1801
16962SOL    HW155571  10.376   3.793   7.470 -0.0351 -1.1812  2.2319
16962SOL    HW255572  10.407   3.675   7.381 -0.2388  0.9964 -0.9082
16963SOL     OW55573   8.831   9.215   7.512  0.1469 -0.2991  0.0788
16963SOL    HW155574   8.742   9.248   7.530  0.2325 -0.4179  0.7763
16963SOL    HW255575   8.877   9.227   7.595  1.3095  1.3584 -0.7633
16964SOL     OW55576   1.070   7.818   1.571  0.0214  0.1714 -0.3634
16964SOL    HW155577   1.068   7.788   1.661  0.0831 -0.9521 -0.7172
16964SOL    HW255578   0.993   7.777   1.530  1.1134 -1.0100 -1.3126
16965SOL     OW55579   6.875   2.901   9.209  0.5568 -0.1363 -0.2864
16965SOL    HW155580   6.883   2.931   9.118 -0.7431  0.3994 -0.2536
16965SOL    HW255581   6.921   2.967   9.260  0.8934 -0.1903 -0.5166
16966SOL     OW55582   0.722   3.097   6.004  0.3569  0.1471  0.1981
16966SOL    HW155583   0.798   3.042   5.987  0.8459  0.9480 -0.2405
16966SOL    HW255584   0.742   3.140   6.087  0.4649  0.4816  0.0019
16967SOL     OW55585   7.192   5.497   8.510 -0.0397  0.0087  0.3412
16967SOL    HW155586   7.231   5.454   8.434  0.3759  0.6678  0.1730
16967SOL    HW255587   7.253   5.479   8.582 -0.1983 -0.2256  0.4194
16968SOL     OW55588   9.867   6.410   0.308  0.0142  0.4104  0.4555
16968SOL    HW155589   9.839   6.327   0.345  1.3000 -0.0334  0.4925
16968SOL    HW255590   9.842   6.406   0.216 -0.1863  0.1001  0.5245
16969SOL     OW55591   1.377  11.022   4.716  0.0174 -0.1331  0.0768
16969SOL    HW155592   1.319  10.979   4.779  1.2197 -0.2852  1.1005
16969SOL    HW255593   1.356  11.115   4.724  0.7545 -0.0585  1.3343
16970SOL     OW55594   5.382   7.593   5.866  0.4499  0.2829  0.0744
16970SOL    HW155595   5.376   7.688   5.862  0.8422  0.3180  0.2452
16970SOL    HW255596   5.307   7.562   5.816  0.9609  0.6830 -0.9775
16971SOL     OW55597   8.306  10.467   5.141 -0.5640 -0.5763  0.4020
16971SOL    HW155598   8.341  10.516   5.067  1.1812 -0.4483  1.2423
16971SOL    HW255599   8.224  10.430   5.110 -1.2395  1.7063 -0.7073
16972SOL     OW55600   4.376   1.508   4.381  0.3381 -0.2286 -0.2820
16972SOL    HW155601   4.305   1.469   4.432  0.5462 -2.2028 -1.4208
16972SOL    HW255602   4.414   1.574   4.440 -3.0768  1.7206 -0.0203
16973SOL     OW55603  10.128   9.924   9.944  0.0554  0.4058  0.0697
16973SOL    HW155604  10.188   9.850   9.936 -0.0503  0.3748 -0.4640
16973SOL    HW255605  10.180  10.000   9.915  0.1157  0.5181  0.4679
16974SOL     OW55606   1.036  10.281  11.858 -0.2559  0.4166  0.5204
16974SOL    HW155607   1.122  10.299  11.896  0.2422  0.4272 -0.5579
16974SOL    HW255608   0.982  10.356  11.882  1.0379  2.1802 -1.6911
16975SOL     OW55609   1.660   0.532   6.799 -0.1425 -0.5919 -0.4921
16975SOL    HW155610   1.669   0.615   6.751 -0.1481  0.9883  2.0936
16975SOL    HW255611   1.732   0.533   6.862 -2.0047 -0.9344  1.7775
16976SOL     OW55612  11.976   1.259   3.188 -0.1724  0.3769  0.2161
16976SOL    HW155613  11.955   1.177   3.143  1.9329  0.6984 -1.5413
16976SOL    HW255614  12.037   1.234   3.257  1.7088  0.5302 -1.2958
16977SOL     OW55615  10.687   2.306   5.632 -0.6866 -0.0553 -0.1227
16977SOL    HW155616  10.643   2.235   5.679 -1.5332  0.0193 -0.8014
16977SOL    HW255617  10.741   2.348   5.699 -2.8631  0.8871  1.1409
16978SOL     OW55618   9.498  10.716   7.016  0.5155 -0.5037 -0.3538
16978SOL    HW155619   9.453  10.798   6.998  0.4534 -0.7399 -1.3146
16978SOL    HW255620   9.468  10.692   7.104  0.0954  0.2107 -0.2895
16979SOL     OW55621   2.202   9.136   3.682 -0.1594 -0.0143 -0.0902
16979SOL    HW155622   2.217   9.221   3.639 -1.0996  0.1961 -0.0280
16979SOL    HW255623   2.284   9.088   3.669  0.4705  0.9856  0.0742
16980SOL     OW55624   0.497   1.167   0.363 -0.1621  0.3022 -0.4365
16980SOL    HW155625   0.466   1.078   0.346 -0.4489  0.3491 -0.1673
16980SOL    HW255626   0.501   1.208   0.276  0.6126 -0.1747 -0.6375
16981SOL     OW55627   0.247   3.965   2.960 -0.0518  0.5929  0.1269
16981SOL    HW155628   0.259   3.873   2.935  3.3214  1.5809 -2.6705
16981SOL    HW255629   0.233   3.962   3.055 -0.1080 -2.7450  0.1474
16982SOL     OW55630   6.002   0.566   6.932 -0.1644 -0.2161 -0.0104
16982SOL    HW155631   5.987   0.563   7.027  2.0109  0.5206  0.4049
16982SOL    HW255632   6.093   0.539   6.921 -0.4462 -0.5461 -1.9454
16983SOL     OW55633   6.951   8.412   0.527 -0.5117 -0.5198 -0.0950
16983SOL    HW155634   7.039   8.379   0.505  0.6637  2.9905 -1.3079
16983SOL    HW255635   6.897   8.389   0.452 -0.5186 -2.1342  0.3694
16984SOL     OW55636   3.663   5.229   0.174 -0.0232  0.2458 -0.5273
16984SOL    HW155637   3.747   5.275   0.181  1.3636 -2.2119  0.1870
16984SOL    HW255638   3.655   5.210   0.080  1.0418 -0.8908 -0.4042
16985SOL     OW55639   7.080   2.334  10.130 -0.1119 -0.1332  0.1593
16985SOL    HW155640   7.060   2.311  10.221  0.0651  0.5562  0.3870
16985SOL    HW255641   7.005   2.386  10.101  0.7534  1.4741  0.6380
16986SOL     OW55642  11.869  11.122   4.963  0.0196 -0.1893  0.6390
16986SOL    HW155643  11.878  11.204   4.914 -1.6151 -0.5399 -0.3487
16986SOL    HW255644  11.774  11.109   4.970  0.2193 -2.3965  0.0483
16987SOL     OW55645  11.112   4.505   7.988 -0.2520  0.8235  0.4144
16987SOL    HW155646  11.200   4.519   8.022  0.2502  0.9751 -0.9205
16987SOL    HW255647  11.098   4.410   7.997  1.7696 -0.0153 -3.2454
16988SOL     OW55648   3.200   1.604   4.021 -0.3468  0.4085 -0.1744
16988SOL    HW155649   3.226   1.519   4.054 -1.7494  0.4864  1.2366
16988SOL    HW255650   3.179   1.589   3.928  0.8210 -0.4338 -0.3154
16989SOL     OW55651   3.460   9.359   0.035  0.0149  0.0498 -0.1065
16989SOL    HW155652   3.378   9.403   0.057 -0.5063 -1.0003  0.0698
16989SOL    HW255653   3.471   9.292   0.102  0.1467 -0.9235 -1.0641
16990SOL     OW55654   6.646  10.597   1.557  0.7684  0.4263 -0.3587
16990SOL    HW155655   6.619  10.664   1.495  0.3409  1.5971  1.0217
16990SOL    HW255656   6.583  10.605   1.629  0.3862 -1.8356 -0.3891
16991SOL     OW55657   0.466   2.028   0.419 -0.2023  0.3603  0.2243
16991SOL    HW155658   0.518   2.108   0.430  0.4206 -0.1118  0.8037
16991SOL    HW255659   0.468   1.987   0.506 -2.3749  0.8185  0.5657
16992SOL     OW55660   8.391   1.049   7.183  0.4574  0.1007  0.4827
16992SOL    HW155661   8.304   1.088   7.194 -0.0495 -0.6225 -0.7409
16992SOL    HW255662   8.406   1.003   7.266 -0.7551 -0.5567  0.3664
16993SOL     OW55663  11.537   2.905   5.009 -0.0547  0.1751 -0.2621
16993SOL    HW155664  11.496   2.963   4.944 -3.5652 -3.4012 -1.6208
16993SOL    HW255665  11.472   2.897   5.078  0.0250 -2.4305 -0.3981
16994SOL     OW55666   7.997   2.006   2.776 -0.5327 -0.2591  0.1454
16994SOL    HW155667   8.071   1.961   2.817  0.6839  1.0774 -0.5114
16994SOL    HW255668   7.979   2.079   2.835 -0.7834 -0.0900 -0.1410
16995SOL     OW55669   6.860  10.205   8.192  0.1102  0.0572 -0.4032
16995SOL    HW155670   6.932  10.222   8.131 -0.1025  0.9623 -0.4161
16995SOL    HW255671   6.889  10.129   8.243  0.0394 -1.0941 -2.0190
16996SOL     OW55672  10.933   6.940  10.678 -0.2751  0.2585 -0.1845
16996SOL    HW155673  10.896   6.913  10.762 -2.3012  0.7723 -0.8528
16996SOL    HW255674  10.878   7.013  10.650  0.4659  0.2101 -1.8941
16997SOL     OW55675   9.792   3.005   5.367 -0.3572  0.3367  0.5911
16997SOL    HW155676   9.884   2.982   5.363 -0.4656 -0.0153 -2.3753
16997SOL    HW255677   9.785   3.086   5.316 -1.7745 -0.0628  0.1090
16998SOL     OW55678   2.592   0.782   1.362 -0.5782 -0.1947 -0.4157
16998SOL    HW155679   2.582   0.818   1.274 -0.3464 -0.1704 -0.4332
16998SOL    HW255680   2.590   0.859   1.420  1.0857 -0.0122 -0.5400
16999SOL     OW55681   9.465  11.089   0.814  0.1460 -0.1103 -0.3940
16999SOL    HW155682   9.432  11.174   0.786 -1.0406  0.2310  1.8363
16999SOL    HW255683   9.399  11.027   0.783 -0.7703  0.1829  0.8987
17000SOL     OW55684   0.983   8.082   9.869  0.5750  0.3224 -0.0834
17000SOL    HW155685   1.053   8.066   9.932  1.3338 -1.1932 -1.2094
17000SOL    HW255686   0.911   8.119   9.920  1.7299  0.6696  1.3456
17001SOL     OW55687   6.549   4.139   3.562 -0.0590 -0.3360  0.0496
17001SOL    HW155688   6.621   4.098   3.609  0.2193  1.6645  1.5455
17001SOL    HW255689   6.551   4.231   3.591 -2.0126  0.2201 -1.3384
17002SOL     OW55690   2.408  11.802   9.035  0.7360  0.5023 -0.0753
17002SOL    HW155691   2.376  11.797   8.945  1.2320 -0.2048 -0.2242
17002SOL    HW255692   2.349  11.864   9.079 -1.5817 -1.5961 -0.0152
17003SOL     OW55693   0.770   6.294  11.215  0.0435  0.4509  0.1132
17003SOL    HW155694   0.834   6.280  11.146 -0.2242  1.0038 -0.2517
17003SOL    HW255695   0.719   6.369  11.186 -1.6167 -0.7444 -0.2205
17004SOL     OW55696   1.711   0.629  11.705  0.1881  0.1562 -0.4060
17004SOL    HW155697   1.693   0.598  11.794 -0.5323 -2.5261 -1.4013
17004SOL    HW255698   1.671   0.716  11.702 -0.9656 -0.2389  1.4804
17005SOL     OW55699   5.894   2.454   9.532 -0.2203  0.0183 -0.0076
17005SOL    HW155700   5.982   2.420   9.546 -0.5673 -0.0915  2.1601
17005SOL    HW255701   5.904   2.549   9.530  0.0286 -0.0144 -0.5860
17006SOL     OW55702   5.770   9.907   0.352  0.1173 -0.2684  0.4670
17006SOL    HW155703   5.726   9.992   0.353 -0.3431 -0.4965  0.0089
17006SOL    HW255704   5.835   9.912   0.423  0.4582  0.6490  0.1005
17007SOL     OW55705   9.145   9.979   1.659  0.0246  0.0283  0.4320
17007SOL    HW155706   9.123  10.025   1.740  0.3841  1.8522 -0.4359
17007SOL    HW255707   9.134  10.045   1.590 -1.3772 -1.7540 -1.1672
17008SOL     OW55708  11.461   9.654  10.242 -0.2644 -0.0771  0.2188
17008SOL    HW155709  11.417   9.585  10.292  1.0980 -0.7930  0.4755
17008SOL    HW255710  11.551   9.654  10.275  0.5170 -0.1475 -1.8116
17009SOL     OW55711   8.822   1.830   7.813  0.1697  0.6885  0.1472
17009SOL    HW155712   8.873   1.881   7.877  0.8212 -1.4714  1.4563
17009SOL    HW255713   8.736   1.820   7.853 -0.1744  1.3096 -0.4219
17010SOL     OW55714  10.183   4.150   1.365 -0.5257 -0.1666  0.0927
17010SOL    HW155715  10.197   4.061   1.398 -1.3795  0.2949  1.8826
17010SOL    HW255716  10.239   4.205   1.419  0.8884  0.3115 -1.7800
17011SOL     OW55717   4.433   1.933   2.731  0.0558  0.3937  0.5503
17011SOL    HW155718   4.427   1.838   2.738 -2.2919  0.4381 -0.0024
17011SOL    HW255719   4.445   1.963   2.821 -0.4717 -0.3776  0.8831
17012SOL     OW55720  10.138   2.575   9.771  0.0782 -0.2128  0.3826
17012SOL    HW155721  10.156   2.497   9.719  0.2392  1.4689 -2.2628
17012SOL    HW255722  10.220   2.625   9.768 -0.2256  0.3868  1.4776
17013SOL     OW55723   4.821   1.682   9.849  0.4124  0.2266 -0.2669
17013SOL    HW155724   4.858   1.740   9.783 -0.7537  0.7372 -0.4998
17013SOL    HW255725   4.774   1.740   9.909  0.9359 -0.2908  0.6735
17014SOL     OW55726   0.447   8.896   6.394  0.2741 -0.1888  0.4830
17014SOL    HW155727   0.388   8.892   6.319 -0.6929 -0.6524  1.2284
17014SOL    HW255728   0.439   8.986   6.426  1.1707  0.1936 -0.3166
17015SOL     OW55729   3.627   7.213   9.747  0.2367 -0.0438 -0.3023
17015SOL    HW155730   3.699   7.232   9.807  1.4677 -1.7706 -1.1180
17015SOL    HW255731   3.623   7.290   9.689  2.0783 -0.2771 -0.8068
17016SOL     OW55732   5.823   4.298  11.093 -0.2218  0.3286  0.0048
17016SOL    HW155733   5.857   4.360  11.029 -0.6935  0.1433 -0.4369
17016SOL    HW255734   5.766   4.240  11.041  0.4692 -0.6751  0.3433
17017SOL     OW55735   6.069  10.367   6.387  0.1365  0.2147  0.2846
17017SOL    HW155736   6.055  10.452   6.428 -1.0210 -0.6864  1.8771
17017SOL    HW255737   5.993  10.315   6.414  1.2436 -1.5882  0.0764
17018SOL     OW55738   0.018   0.573   1.911  0.0818 -0.2753 -0.4231
17018SOL    HW155739   0.068   0.654   1.904  0.4962 -0.5567 -0.7925
17018SOL    HW255740   0.009   0.558   2.005  0.6994 -0.2227 -0.3518
17019SOL     OW55741   8.785   5.222  11.073  0.5583 -0.3129  0.3209
17019SOL    HW155742   8.856   5.158  11.080  1.4312  0.2060 -2.7087
17019SOL    HW255743   8.793   5.259  10.985  0.2711  4.1815  1.8965
17020SOL     OW55744   1.640   7.131   0.110 -0.1397 -0.4699 -0.1838
17020SOL    HW155745   1.732   7.108   0.103  1.2703  2.9545  3.1062
17020SOL    HW255746   1.610   7.086   0.189 -0.5872  0.1265 -0.0009
17021SOL     OW55747   7.234   2.768   3.905  0.0368  0.0421 -0.0303
17021SOL    HW155748   7.288   2.839   3.870  0.0297 -0.5738 -1.3230
17021SOL    HW255749   7.182   2.738   3.831 -0.5971 -0.7415  0.7115
17022SOL     OW55750  10.156   8.279  11.399  0.8728 -0.0272 -0.4587
17022SOL    HW155751  10.162   8.336  11.323 -2.3551  0.9527 -0.1427
17022SOL    HW255752  10.113   8.200  11.367 -1.0999  0.6506  0.3565
17023SOL     OW55753   4.738   2.924   9.197 -0.9683 -0.2398  0.1077
17023SOL    HW155754   4.764   2.921   9.105 -1.2343 -0.2786  0.0349
17023SOL    HW255755   4.797   2.989   9.236 -2.2771  1.3965 -0.5416
17024SOL     OW55756  11.385   5.328   4.170 -0.0467 -0.9475  0.6213
17024SOL    HW155757  11.372   5.237   4.145 -0.9978 -0.6892  0.1237
17024SOL    HW255758  11.297   5.360   4.190  0.1949  0.0412  0.1635
17025SOL     OW55759   1.089   4.710  10.891 -0.1191 -0.1735  0.1224
17025SOL    HW155760   1.012   4.756  10.923  0.2212  1.3055 -1.0833
17025SOL    HW255761   1.065   4.680  10.804  0.3925 -0.4039  0.0557
17026SOL     OW55762   5.299   8.165   5.073 -0.8390 -0.5166 -0.2679
17026SOL    HW155763   5.369   8.167   5.006  0.8556 -0.2670  1.4296
17026SOL    HW255764   5.299   8.252   5.110 -1.9546 -0.5795 -0.0860
17027SOL     OW55765   6.437   4.662   8.832 -0.1570 -0.0995  0.3178
17027SOL    HW155766   6.437   4.736   8.771 -0.5780 -0.2927  0.0774
17027SOL    HW255767   6.399   4.698   8.913  0.7994  0.2667  0.6109
17028SOL     OW55768   2.281   7.025   9.476  0.1449  0.4274  0.6753
17028SOL    HW155769   2.285   7.088   9.404 -0.9274  1.8355  1.7802
17028SOL    HW255770   2.352   7.051   9.535 -1.8740  2.3389  2.4102
17029SOL     OW55771   8.350   7.450   9.424 -0.0850  0.2960  0.0937
17029SOL    HW155772   8.281   7.383   9.425 -1.5657  1.7543  0.9714
17029SOL    HW255773   8.431   7.402   9.441 -0.1139 -2.1518 -4.7919
17030SOL     OW55774   7.370   8.378   4.407  0.0289  0.7376  0.1504
17030SOL    HW155775   7.425   8.438   4.356 -0.6330  0.3534 -1.0633
17030SOL    HW255776   7.280   8.401   4.382 -0.2657 -0.1183  0.3933
17031SOL     OW55777  11.598   8.811   8.549  0.2720  0.6168  0.1422
17031SOL    HW155778  11.586   8.831   8.456  0.3409  1.8011  0.3694
17031SOL    HW255779  11.670   8.867   8.576  0.5072 -0.0100  0.8246
17032SOL     OW55780  11.882   7.060   1.529  0.1178 -0.0419  0.5629
17032SOL    HW155781  11.867   7.001   1.602  0.2435 -0.5772  0.1576
17032SOL    HW255782  11.946   7.123   1.562  1.1820 -1.0648  0.4965
17033SOL     OW55783   2.696  11.403   9.618 -0.6861  0.1738  0.4594
17033SOL    HW155784   2.709  11.493   9.646 -0.3976 -0.2687  1.8384
17033SOL    HW255785   2.757  11.391   9.544  0.4656  0.6473  1.3034
17034SOL     OW55786   8.898  10.680   4.461  0.1002  0.1615 -0.0035
17034SOL    HW155787   8.866  10.629   4.386  1.4546 -1.0363  0.2137
17034SOL    HW255788   8.823  10.736   4.484 -0.6717 -0.1166 -1.6369
17035SOL     OW55789  10.915   4.218   0.365  0.4717  0.4165  0.8703
17035SOL    HW155790  10.905   4.123   0.366 -1.7020  0.5563 -0.2748
17035SOL    HW255791  11.009   4.233   0.362  0.8619 -1.6724  1.6577
17036SOL     OW55792  11.390   8.582   3.714  0.1328  0.0073  0.3770
17036SOL    HW155793  11.300   8.549   3.713  0.1057 -0.0194  1.7171
17036SOL    HW255794  11.410   8.594   3.807  0.7239  2.2062  0.0264
17037SOL     OW55795  11.553   8.441   1.163 -0.7400  0.5536  0.6452
17037SOL    HW155796  11.626   8.418   1.221 -1.6886 -0.2391  1.5777
17037SOL    HW255797  11.524   8.357   1.127 -0.2173  1.0300 -0.9643
17038SOL     OW55798   8.132   2.349  10.953  0.4596  0.0359  0.0582
17038SOL    HW155799   8.124   2.366  10.859  1.7150 -1.1102 -0.2880
17038SOL    HW255800   8.056   2.392  10.991 -2.3599 -2.8284 -1.8956
17039SOL     OW55801   1.507  10.840   4.585 -0.1859  0.2286 -0.2517
17039SOL    HW155802   1.551  10.792   4.655  1.0637  0.7986 -0.6263
17039SOL    HW255803   1.456  10.907   4.631 -1.0129 -0.6930  0.2091
17040SOL     OW55804   7.061   4.922   6.041 -0.4031  0.5793  0.2880
17040SOL    HW155805   6.975   4.947   6.074 -1.5278  0.3728 -2.2347
17040SOL    HW255806   7.068   4.828   6.059 -0.0902  0.8446  1.6703
17041SOL     OW55807   4.931   4.473   0.772 -0.4835 -0.1735  0.0522
17041SOL    HW155808   4.871   4.413   0.725 -0.8388 -0.2893  0.6429
17041SOL    HW255809   4.926   4.444   0.863 -1.3176  1.2845  0.5025
17042SOL     OW55810   0.969  11.799  11.380 -0.2223  0.0660  0.0878
17042SOL    HW155811   1.009  11.767  11.299 -2.7393  1.6133 -1.8897
17042SOL    HW255812   0.902  11.734  11.401 -0.3117  0.2360  0.3295
17043SOL     OW55813   1.760   5.470   8.464  0.4432  0.0381 -0.1776
17043SOL    HW155814   1.748   5.418   8.543 -0.0408 -0.5469 -0.6282
17043SOL    HW255815   1.836   5.431   8.421  2.1300  1.7420  1.0765
17044SOL     OW55816   9.658   2.997   6.958 -0.4015 -0.1421 -0.4707
17044SOL    HW155817   9.750   2.998   6.934 -0.4577 -0.1348 -0.6786
17044SOL    HW255818   9.611   3.025   6.879 -0.4775  1.3584  0.0655
17045SOL     OW55819   5.899  11.062  10.244 -0.2183 -0.0153  0.7080
17045SOL    HW155820   5.885  11.039  10.336  0.9171 -0.1482  0.8597
17045SOL    HW255821   5.889  10.979  10.197 -0.2275 -0.0521  0.7754
17046SOL     OW55822  11.579  10.604  11.084 -0.1392  0.2634  0.3540
17046SOL    HW155823  11.533  10.688  11.079 -0.5399  0.0034 -0.7968
17046SOL    HW255824  11.666  10.622  11.047  0.1147  0.3848  1.0046
17047SOL     OW55825   1.999   0.498   4.153  0.2281  1.1212 -0.0029
17047SOL    HW155826   2.007   0.469   4.062  0.0783 -0.2764  0.4003
17047SOL    HW255827   1.905   0.511   4.166  0.1158  0.1312  0.2751
17048SOL     OW55828   9.204   5.251   8.603  0.7968  0.5572  0.2528
17048SOL    HW155829   9.232   5.325   8.550 -0.1835 -0.5769 -2.0064
17048SOL    HW255830   9.279   5.191   8.604  1.1794  1.0346  1.0825
17049SOL     OW55831   0.375  10.280   0.547  0.1126  0.1767  0.3580
17049SOL    HW155832   0.367  10.196   0.503  0.5599  0.1280  0.3658
17049SOL    HW255833   0.351  10.262   0.638  0.8576 -0.0868  0.5066
17050SOL     OW55834   2.402   8.781   7.540  0.2141 -0.0045  0.3989
17050SOL    HW155835   2.480   8.736   7.573 -1.7190 -1.2213  3.8061
17050SOL    HW255836   2.406   8.868   7.579 -0.4067 -0.3015  1.1602
17051SOL     OW55837   6.878   9.386   3.291  0.1415  0.0358 -0.5322
17051SOL    HW155838   6.829   9.315   3.333  0.1810  0.4661  0.2665
17051SOL    HW255839   6.961   9.389   3.339 -0.3366  1.3939  0.2470
17052SOL     OW55840   3.164  10.697  10.658 -0.0744  0.0988  0.5407
17052SOL    HW155841   3.158  10.686  10.753  0.9421 -1.6741  0.4513
17052SOL    HW255842   3.257  10.707  10.641 -0.0734 -1.2831 -0.3920
17053SOL     OW55843   7.242   5.123   7.510 -0.8023  0.0098  0.0853
17053SOL    HW155844   7.206   5.094   7.594 -0.1743  0.1804  0.4200
17053SOL    HW255845   7.254   5.042   7.460 -0.4977 -0.1607  0.4343
17054SOL     OW55846   7.052   1.704  11.068 -0.4903  0.0642 -0.1585
17054SOL    HW155847   7.092   1.654  10.997  0.2474  0.1957  0.1590
17054SOL    HW255848   7.000   1.640  11.117  0.8336 -0.5260  0.5384
17055SOL     OW55849  10.582  10.251   0.621 -0.1371 -0.2864  0.2458
17055SOL    HW155850  10.529  10.284   0.549  1.3577 -1.0717 -1.2845
17055SOL    HW255851  10.654  10.313   0.629 -0.9919  0.5468  2.0336
17056SOL     OW55852  10.192  10.473   5.383  0.0050  0.2982  0.1122
17056SOL    HW155853  10.247  10.427   5.319 -0.1144 -0.8590  0.8098
17056SOL    HW255854  10.138  10.531   5.330 -0.5009 -1.0502 -0.9115
17057SOL     OW55855   1.193  10.466   3.516 -0.5541  0.2343  0.3690
17057SOL    HW155856   1.155  10.399   3.459  0.8868  0.8947 -1.4744
17057SOL    HW255857   1.143  10.545   3.495  0.2311  0.5668 -0.3131
17058SOL     OW55858   0.072  11.348   0.351  0.3037  0.0172 -0.0764
17058SOL    HW155859   0.157  11.378   0.318  0.6290 -0.0797  0.6552
17058SOL    HW255860   0.012  11.362   0.278  0.4767  2.2502  0.1332
17059SOL     OW55861   4.263   9.981   9.574 -0.5493 -0.2860 -0.0948
17059SOL    HW155862   4.294   9.900   9.616  0.4167  0.5621  0.9003
17059SOL    HW255863   4.177   9.996   9.612 -0.7866 -0.9069 -0.3739
17060SOL     OW55864   2.680   8.778   6.912  0.4919 -0.0210  0.1705
17060SOL    HW155865   2.683   8.752   7.004 -1.9675 -1.5507 -0.0707
17060SOL    HW255866   2.734   8.857   6.906 -0.0902  0.6806  3.0988
17061SOL     OW55867   2.555  10.887   9.211 -0.0586  0.0393 -0.1786
17061SOL    HW155868   2.539  10.981   9.222 -0.5481 -0.1457  0.7400
17061SOL    HW255869   2.523  10.867   9.123 -1.1906  0.4808  0.1165
17062SOL     OW55870  10.325   8.718   7.297 -0.4081 -0.3673 -0.0395
17062SOL    HW155871  10.340   8.631   7.260 -1.5175 -0.8637  0.6144
17062SOL    HW255872  10.235   8.715   7.328 -1.1961  1.7389 -1.9096
17063SOL     OW55873   5.785   3.366   8.584 -0.0155 -0.4186  0.2130
17063SOL    HW155874   5.862   3.412   8.549 -0.6454  1.1456  0.7683
17063SOL    HW255875   5.822   3.296   8.639  1.0357  0.4292  0.6329
17064SOL     OW55876   6.640   4.477   4.516  0.2063 -0.3984  0.2401
17064SOL    HW155877   6.591   4.418   4.459  0.6176 -0.6205  0.1117
17064SOL    HW255878   6.727   4.483   4.476  0.2566  0.0706  0.4087
17065SOL     OW55879   6.647   4.310   0.693  0.4794 -0.1631 -0.4098
17065SOL    HW155880   6.571   4.367   0.703 -0.4594 -1.3032 -0.8859
17065SOL    HW255881   6.635   4.269   0.607  1.0565 -1.1950 -0.0147
17066SOL     OW55882   4.017   7.155  11.419  0.1686  0.6407 -0.2762
17066SOL    HW155883   4.090   7.116  11.466  1.2637  0.6154 -1.9048
17066SOL    HW255884   4.033   7.133  11.327 -2.6672 -0.6330 -0.5743
17067SOL     OW55885   9.975  11.906   2.060  0.0836  0.6209 -0.1968
17067SOL    HW155886   9.975  11.946   1.973  0.3078 -0.1370 -0.5554
17067SOL    HW255887  10.050  11.846   2.059  0.1732  0.7119  0.5706
17068SOL     OW55888   6.885   2.544   4.247 -0.1829  0.6405 -0.1315
17068SOL    HW155889   6.966   2.565   4.200  0.8670 -0.6032  1.0392
17068SOL    HW255890   6.845   2.630   4.264  1.4926  1.3928  0.2801
17069SOL     OW55891   3.923  11.748   6.934  0.0440  0.2031 -0.1175
17069SOL    HW155892   4.011  11.721   6.906  0.4763  0.2344  1.1116
17069SOL    HW255893   3.883  11.668   6.968  0.0926  0.4353  0.5043
17070SOL     OW55894   5.808   9.644   7.772  0.1344 -0.2475 -0.3411
17070SOL    HW155895   5.718   9.622   7.793  0.5624 -1.7041  0.0654
17070SOL    HW255896   5.859   9.568   7.800  1.5210  0.6392 -0.3462
17071SOL     OW55897   2.588   4.977  11.297  0.1991  0.6452 -0.1214
17071SOL    HW155898   2.617   4.894  11.336 -2.6427  0.0551  0.9849
17071SOL    HW255899   2.603   4.967  11.203  0.2626 -0.9864  0.0395
17072SOL     OW55900  10.495   6.957   6.987 -0.4234 -0.6719 -0.2518
17072SOL    HW155901  10.410   6.922   7.013 -1.0791  0.8510 -0.2815
17072SOL    HW255902  10.475   7.026   6.924  0.7591  0.6720  0.7944
17073SOL     OW55903   1.903   5.834   7.780  0.0377  0.3866 -0.3927
17073SOL    HW155904   1.958   5.835   7.701 -1.5165 -0.8729 -1.5699
17073SOL    HW255905   1.927   5.753   7.825 -0.2520  0.2530 -0.4744
17074SOL     OW55906   4.945   5.067   8.407  0.0400 -0.2433  0.3202
17074SOL    HW155907   4.992   5.150   8.395  0.2433 -0.2990  0.7058
17074SOL    HW255908   4.952   5.023   8.322 -0.9841  0.5894 -0.2177
17075SOL     OW55909   6.194  10.085   8.694 -0.3315  0.1071  0.2240
17075SOL    HW155910   6.124  10.150   8.693  0.1317  0.7550  3.1622
17075SOL    HW255911   6.265  10.124   8.642 -0.2013  1.8272  1.6396
17076SOL     OW55912   9.255   2.749   6.072  0.0450  0.1153 -0.1161
17076SOL    HW155913   9.324   2.684   6.064  1.0453  1.2384 -1.1944
17076SOL    HW255914   9.287   2.810   6.139 -0.1220  0.3619 -0.2562
17077SOL     OW55915   9.998   6.586  11.019 -0.0512 -0.7026 -0.3771
17077SOL    HW155916   9.973   6.592  11.111  0.1044 -0.9316 -0.3198
17077SOL    HW255917   9.920   6.555  10.975  0.1189 -1.3992 -0.2000
17078SOL     OW55918   1.331   3.510  10.436  0.1748  0.6275 -0.4864
17078SOL    HW155919   1.373   3.424  10.442 -0.6425  0.2828  0.4108
17078SOL    HW255920   1.385   3.567  10.491 -0.1843  0.3181  0.1960
17079SOL     OW55921   1.281   2.591  10.922  0.0094  0.3746 -0.6343
17079SOL    HW155922   1.204   2.534  10.929  0.3449  0.0718  0.8823
17079SOL    HW255923   1.278   2.624  10.832 -0.9338 -0.9734 -1.1248
17080SOL     OW55924   5.074   6.441   3.847 -0.1992  0.0695  0.4320
17080SOL    HW155925   5.038   6.529   3.842 -1.3190 -0.3952 -0.2026
17080SOL    HW255926   5.112   6.426   3.760  2.2617  0.8015  1.2848
17081SOL     OW55927   3.700  10.508   5.179 -0.1369  0.5449  0.8537
17081SOL    HW155928   3.719  10.470   5.094  0.9622  1.6575  0.5796
17081SOL    HW255929   3.656  10.438   5.228  1.6620 -1.0202  0.3224
17082SOL     OW55930   6.687   8.779   9.102  0.3988  0.2615  0.0187
17082SOL    HW155931   6.758   8.767   9.039  1.0582  1.4929  0.4868
17082SOL    HW255932   6.714   8.854   9.155 -0.8533  0.2131  0.7796
17083SOL     OW55933  10.029   1.580   7.321 -0.4421  0.1151 -0.3065
17083SOL    HW155934  10.107   1.552   7.271 -0.4252 -0.8122  0.2101
17083SOL    HW255935  10.064   1.613   7.404 -0.6175 -0.9680  0.2204
17084SOL     OW55936   3.156   7.096   2.298  0.4331 -0.1476 -0.4973
17084SOL    HW155937   3.136   7.010   2.335 -0.3633  0.5081  0.6287
17084SOL    HW255938   3.072   7.128   2.265  0.1707  1.2349  1.3379
17085SOL     OW55939   1.207   8.396  11.418 -0.0911 -0.7874  0.0392
17085SOL    HW155940   1.209   8.430  11.508 -0.8388 -0.4204 -0.0778
17085SOL    HW255941   1.115   8.397  11.394  0.2513  0.7316 -1.3407
17086SOL     OW55942   5.764   4.036   3.177 -0.7368 -0.8875 -0.2232
17086SOL    HW155943   5.830   4.017   3.110  0.3105  0.4289  0.3847
17086SOL    HW255944   5.685   3.992   3.146 -0.0206 -1.1217 -1.8187
17087SOL     OW55945  10.486   9.453   2.895 -0.0797 -0.2912 -0.2835
17087SOL    HW155946  10.476   9.358   2.892 -0.0769 -0.4103  1.7826
17087SOL    HW255947  10.431   9.480   2.969 -0.2592  1.3459 -0.9895
17088SOL     OW55948   7.566   2.867   5.986 -0.6675 -0.5701 -0.1797
17088SOL    HW155949   7.578   2.807   5.912  0.1922 -2.0585  1.1024
17088SOL    HW255950   7.495   2.925   5.958  0.3332 -0.3532 -2.5974
17089SOL     OW55951   8.059   9.549   1.352  0.0336  0.0514 -0.6068
17089SOL    HW155952   8.128   9.553   1.286 -0.2137 -2.1606 -1.0627
17089SOL    HW255953   7.978   9.563   1.303 -0.0373  0.1094 -0.4755
17090SOL     OW55954  10.017   9.058   6.594 -0.1973  0.1770  0.0775
17090SOL    HW155955  10.007   8.988   6.659 -1.2080 -0.0216 -0.2682
17090SOL    HW255956  10.017   9.013   6.510 -3.0491  0.6776 -0.3041
17091SOL     OW55957   0.894   2.818   6.449  0.1844 -0.7575  0.3626
17091SOL    HW155958   0.915   2.776   6.366 -1.2690  1.3824 -1.2104
17091SOL    HW255959   0.814   2.773   6.479 -0.7104  0.0660 -0.7155
17092SOL     OW55960   4.381  10.999   6.994 -0.9694  0.0061 -0.3765
17092SOL    HW155961   4.388  10.927   6.932  0.9249 -1.2343  1.1523
17092SOL    HW255962   4.336  10.962   7.070  1.0469 -0.0237  0.9003
17093SOL     OW55963   7.504  11.899   3.927  0.4832  0.4868 -0.3336
17093SOL    HW155964   7.575  11.952   3.890  2.5119 -1.2916  0.7905
17093SOL    HW255965   7.534  11.809   3.918 -2.1633 -0.4483 -0.7638
17094SOL     OW55966   1.941   0.910   4.642  0.3266 -0.2054  0.4341
17094SOL    HW155967   1.997   0.986   4.656  2.1121 -1.7260  2.1478
17094SOL    HW255968   1.927   0.907   4.547  0.6046  1.9254  0.2807
17095SOL     OW55969   0.198   5.803   7.475 -0.7782  0.3703 -0.5798
17095SOL    HW155970   0.127   5.867   7.466 -0.5617  0.7039  0.0761
17095SOL    HW255971   0.264   5.847   7.527 -0.4994 -0.2861 -0.3670
17096SOL     OW55972   4.158   1.317   4.246  0.1306 -0.1933  0.6098
17096SOL    HW155973   4.073   1.275   4.234  1.2068 -2.5544  0.8497
17096SOL    HW255974   4.163   1.334   4.340 -0.2020  0.3382  0.5425
17097SOL     OW55975   1.451   2.670   1.498  0.3575 -0.1437  0.0828
17097SOL    HW155976   1.529   2.627   1.464  1.6899  1.5701  0.7812
17097SOL    HW255977   1.479   2.710   1.581 -0.3770  2.9275 -0.9907
17098SOL     OW55978   4.937   3.803  10.902  0.1895  0.1792 -0.3829
17098SOL    HW155979   4.962   3.772  10.815  0.3203 -1.4352  0.1919
17098SOL    HW255980   5.000   3.872  10.923  3.5633 -2.8624  0.4929
17099SOL     OW55981   2.917  10.943   4.264 -0.6975 -0.3178  0.2436
17099SOL    HW155982   2.917  11.030   4.224 -0.2859 -0.0202  0.8715
17099SOL    HW255983   3.004  10.934   4.303 -0.9316 -0.7812  0.6752
17100SOL     OW55984  10.662   9.850   1.038  0.1642 -0.5558  0.4048
17100SOL    HW155985  10.595   9.799   1.085 -0.2017 -1.4116 -0.9851
17100SOL    HW255986  10.641   9.837   0.946  0.8749  1.0729 -0.0152
17101SOL     OW55987   1.343   4.455   0.578 -0.1406  0.1562  0.0072
17101SOL    HW155988   1.413   4.393   0.558  1.4269  1.8654 -0.0101
17101SOL    HW255989   1.340   4.513   0.502 -0.0418  1.4596  0.9680
17102SOL     OW55990  10.469  10.994  10.160  0.2791  0.5687 -0.3448
17102SOL    HW155991  10.483  10.990  10.065  0.1690 -1.0054 -0.3285
17102SOL    HW255992  10.553  10.968  10.197 -0.3940 -1.4589 -0.1022
17103SOL     OW55993   6.476  11.331   0.785  0.3192 -0.1239 -0.0788
17103SOL    HW155994   6.498  11.366   0.872  0.6162 -0.1620 -0.1365
17103SOL    HW255995   6.561  11.311   0.746  0.2950  1.3964 -1.0002
17104SOL     OW55996   2.117   5.988   2.523  0.0128 -0.0603 -0.6530
17104SOL    HW155997   2.106   5.898   2.493  0.2694  0.2759 -1.8136
17104SOL    HW255998   2.042   6.035   2.485 -0.5153  0.0825  0.5373
17105SOL     OW55999   5.600   0.916   6.509 -0.2996 -0.1777 -0.2517
17105SOL    HW156000   5.633   0.841   6.459 -2.3976 -2.4703  1.5329
17105SOL    HW256001   5.623   0.896   6.600  0.3347  2.1261  0.1715
17106SOL     OW56002   3.151  10.634   2.666 -0.1660  0.1581  0.1275
17106SOL    HW156003   3.210  10.586   2.724  1.3769 -1.7001 -2.7588
17106SOL    HW256004   3.116  10.568   2.607  1.1823  2.2831 -3.3610
17107SOL     OW56005  11.003   3.119   2.019 -0.2291 -0.3657 -0.1286
17107SOL    HW156006  10.947   3.064   1.963  0.4333 -0.8943 -0.2813
17107SOL    HW256007  11.075   3.061   2.044 -0.5771 -0.1858  1.3891
17108SOL     OW56008   3.701   0.598  10.825  0.5477 -0.2154 -0.0995
17108SOL    HW156009   3.740   0.627  10.908  0.7164 -1.1663  0.1659
17108SOL    HW256010   3.673   0.508  10.842 -2.8626  0.7642  0.0964
17109SOL     OW56011  10.002  11.684   6.968  0.0651  0.0551 -0.6196
17109SOL    HW156012   9.967  11.632   6.896 -1.2524  0.4382 -0.2861
17109SOL    HW256013   9.974  11.638   7.047 -0.5247  0.8683 -0.3354
17110SOL     OW56014   2.644   9.866   1.103 -0.3447  0.0641 -0.2635
17110SOL    HW156015   2.696   9.925   1.157  1.0234 -1.6169  0.3777
17110SOL    HW256016   2.556   9.869   1.141 -0.0406  0.8993  0.3913
17111SOL     OW56017   3.322   7.227   1.466  0.0903 -0.6538  0.1886
17111SOL    HW156018   3.274   7.163   1.414 -1.7028  0.5704  0.2820
17111SOL    HW256019   3.257   7.290   1.495  1.7462  1.1018  0.3321
17112SOL     OW56020   3.475   4.081   2.072 -0.6564  0.0594  0.2371
17112SOL    HW156021   3.465   4.175   2.055  0.1186  0.2931  1.0187
17112SOL    HW256022   3.393   4.055   2.114 -0.3826  0.6532  1.1453
17113SOL     OW56023   3.365   6.167   8.236  0.6722 -0.8575  0.2480
17113SOL    HW156024   3.342   6.124   8.153 -2.3954  1.0537 -0.0472
17113SOL    HW256025   3.437   6.115   8.271  0.1719 -3.4462 -2.2182
17114SOL     OW56026  11.424   1.153  10.472  0.2540 -0.0085  0.0402
17114SOL    HW156027  11.392   1.243  10.467  0.4463  0.0129 -0.8889
17114SOL    HW256028  11.512   1.160  10.508  0.2310  0.1660  0.0594
17115SOL     OW56029  11.045   4.741   1.372  0.5338  0.3010  0.5760
17115SOL    HW156030  10.974   4.805   1.388 -1.4605 -1.6690  0.0997
17115SOL    HW256031  11.018   4.663   1.421  1.1779 -1.2775 -1.4472
17116SOL     OW56032   6.891   2.118  10.561  0.2514 -0.0125 -0.2474
17116SOL    HW156033   6.882   2.151  10.471 -0.3436 -2.5843 -1.2234
17116SOL    HW256034   6.982   2.137  10.584  0.4223  0.6903 -1.3981
17117SOL     OW56035   2.812   9.259   3.138 -0.1076  0.4952  0.7408
17117SOL    HW156036   2.818   9.186   3.077  2.1868  0.2817  1.1210
17117SOL    HW256037   2.862   9.329   3.096  0.9715  0.5488  2.0731
17118SOL     OW56038   3.434   7.624   0.279  0.0780  0.2562 -0.3053
17118SOL    HW156039   3.459   7.535   0.257  0.0197  0.1834 -0.0796
17118SOL    HW256040   3.339   7.626   0.267 -0.0841 -0.0393  0.8043
17119SOL     OW56041   0.078   0.221   6.263  0.2181  0.7487 -0.0801
17119SOL    HW156042   0.069   0.198   6.171  0.2513 -0.9241  0.2981
17119SOL    HW256043   0.070   0.316   6.265 -1.2512  0.7050 -1.6439
17120SOL     OW56044  10.023   6.596  10.682  0.0497  0.5840 -0.6484
17120SOL    HW156045   9.949   6.642  10.643 -0.9408  1.3910  2.0105
17120SOL    HW256046   9.995   6.504  10.685 -0.2031  0.6460 -1.0029
17121SOL     OW56047  11.889  11.822   0.761  0.5292  0.1050  0.7424
17121SOL    HW156048  11.895  11.906   0.715  1.8794 -1.3003 -1.8832
17121SOL    HW256049  11.932  11.838   0.845  0.1363  2.1882  0.5984
17122SOL     OW56050   3.229   4.632   8.401  0.4002  0.3516  0.2202
17122SOL    HW156051   3.144   4.589   8.402 -0.1898  1.4533 -0.2202
17122SOL    HW256052   3.289   4.569   8.441 -0.8095 -0.0284  1.4964
17123SOL     OW56053  10.126   9.093   8.040  0.4932  0.2149 -0.4490
17123SOL    HW156054  10.038   9.078   8.007  0.7754 -1.3477 -0.5609
17123SOL    HW256055  10.118   9.087   8.135  0.4874  0.0019 -0.4627
17124SOL     OW56056  10.185   7.043   5.555  0.3119 -0.3440  0.4813
17124SOL    HW156057  10.106   7.006   5.515  1.0253 -1.9291  0.4522
17124SOL    HW256058  10.181   7.015   5.646  2.2075 -3.0505 -0.1221
17125SOL     OW56059   5.774   8.578   2.408  0.2546 -0.3670 -0.6398
17125SOL    HW156060   5.689   8.592   2.448  0.4999 -1.2034  0.2102
17125SOL    HW256061   5.817   8.664   2.412 -0.4026 -0.0223 -0.7711
17126SOL     OW56062  11.170   6.956  11.600  0.0710 -0.1942 -0.3500
17126SOL    HW156063  11.128   6.951  11.514 -0.3959  1.4802 -0.2556
17126SOL    HW256064  11.259   6.984  11.582 -0.3415  1.2791 -0.2633
17127SOL     OW56065   2.040   1.100  10.786  0.0101  0.3818  0.3610
17127SOL    HW156066   2.085   1.177  10.821  0.9886  0.2082 -0.4667
17127SOL    HW256067   1.968   1.136  10.734  1.6012  0.8545 -1.6063
17128SOL     OW56068   2.287   1.541   3.535 -0.0630 -0.5833  0.3248
17128SOL    HW156069   2.253   1.627   3.559 -0.4476 -0.7796  0.4875
17128SOL    HW256070   2.335   1.556   3.453  2.1518  0.2921  1.7099
17129SOL     OW56071   9.037   4.033   5.235  0.3682  0.2648  0.4049
17129SOL    HW156072   9.103   4.022   5.304  0.5452  2.4269  0.6384
17129SOL    HW256073   8.982   4.105   5.265  1.1735  2.1288 -2.1845
17130SOL     OW56074  11.122  11.703   0.114  0.5242  0.0624  0.0049
17130SOL    HW156075  11.172  11.716   0.033  2.5194 -2.0337  0.7958
17130SOL    HW256076  11.161  11.765   0.176  3.4156 -2.5411  1.0475
17131SOL     OW56077   9.547   4.316   4.823 -0.6197 -0.0803 -0.8473
17131SOL    HW156078   9.627   4.270   4.796 -0.1728  0.8053 -1.0610
17131SOL    HW256079   9.564   4.343   4.913 -2.9704 -5.0406  1.4553
17132SOL     OW56080   7.671   2.036   8.230 -0.3677 -0.6655 -0.6011
17132SOL    HW156081   7.619   2.111   8.202 -2.0514 -2.1414 -1.6629
17132SOL    HW256082   7.631   2.008   8.312  1.6811  0.8824  1.0239
17133SOL     OW56083   9.358   6.861   3.808  0.8657  0.0018 -0.2172
17133SOL    HW156084   9.322   6.908   3.883 -0.7937 -0.4139 -0.7126
17133SOL    HW256085   9.426   6.919   3.774 -0.4558  1.6317 -0.2213
17134SOL     OW56086   8.319   1.995   0.532  0.3320  0.3845  0.1301
17134SOL    HW156087   8.389   1.932   0.517 -0.3153 -0.8609  1.9313
17134SOL    HW256088   8.246   1.942   0.566 -0.8206  1.8854  0.1095
17135SOL     OW56089  10.465   7.051   4.907 -0.0077 -0.5584 -0.4456
17135SOL    HW156090  10.529   7.122   4.916 -2.1051  1.3373  0.8760
17135SOL    HW256091  10.413   7.076   4.830  0.2447 -1.5980 -0.9741
17136SOL     OW56092  11.988   9.879   7.201 -0.0106  0.4338  0.1724
17136SOL    HW156093  12.034   9.952   7.158 -0.0908  0.7477  0.6109
17136SOL    HW256094  11.926   9.922   7.260  0.4991  0.0141  1.0369
17137SOL     OW56095   4.196   0.316   1.168 -0.0497  0.3751 -0.1463
17137SOL    HW156096   4.117   0.344   1.121 -2.2210 -0.7430  2.5602
17137SOL    HW256097   4.163   0.276   1.248  3.2141 -2.2611  0.0904
17138SOL     OW56098   9.969   1.277  10.925  0.3094  0.0968  0.0508
17138SOL    HW156099  10.022   1.243  10.997 -0.8899 -0.9878  0.4668
17138SOL    HW256100   9.972   1.207  10.859 -1.4516 -0.4804  0.5330
17139SOL     OW56101   3.378  10.692   2.838 -0.5170  0.4034  0.4131
17139SOL    HW156102   3.371  10.777   2.881  1.6774  0.1585  1.3735
17139SOL    HW256103   3.396  10.713   2.746 -0.0911  0.9761  0.6239
17140SOL     OW56104   3.388   6.335   2.945  0.0481 -0.0503  0.5105
17140SOL    HW156105   3.314   6.386   2.979  0.4898  0.4751  0.7039
17140SOL    HW256106   3.424   6.291   3.022  1.7979  2.0888  1.0287
17141SOL     OW56107   5.202   4.919   8.625 -0.2252 -0.1673  0.4618
17141SOL    HW156108   5.227   4.978   8.554  0.1909  1.2682  1.7666
17141SOL    HW256109   5.151   4.850   8.581  0.6813  0.2432 -1.3322
17142SOL     OW56110  10.928   2.793   1.858 -0.4584  0.4325 -0.0279
17142SOL    HW156111  10.970   2.865   1.811 -0.3449  0.7470  0.5493
17142SOL    HW256112  10.936   2.718   1.799  2.1715  0.1211  0.6245
17143SOL     OW56113  11.630   9.123   4.590  0.5784 -0.2456 -0.0018
17143SOL    HW156114  11.674   9.038   4.593 -0.2553 -0.6763  0.1352
17143SOL    HW256115  11.588   9.126   4.504  0.8671  0.1752 -0.1365
17144SOL     OW56116  10.458   1.125   0.166 -0.2663  0.2100  0.0995
17144SOL    HW156117  10.427   1.165   0.085 -0.0710  2.3395  1.0036
17144SOL    HW256118  10.385   1.070   0.196 -0.7833  0.3427 -0.8963
17145SOL     OW56119   5.905   4.298  11.647 -0.1020  0.1849 -0.4224
17145SOL    HW156120   5.879   4.386  11.619  0.3338  0.9578  1.4571
17145SOL    HW256121   5.823   4.247  11.647 -0.2892  0.4679 -1.8893
17146SOL     OW56122   7.736   3.692   1.371 -0.2331 -0.3963 -0.0397
17146SOL    HW156123   7.726   3.663   1.280 -0.5906  0.0768 -0.1543
17146SOL    HW256124   7.648   3.713   1.400  0.0402  0.9657 -0.0987
17147SOL     OW56125   4.023   4.785   2.543  0.4238 -0.1307  0.0995
17147SOL    HW156126   3.967   4.712   2.514  1.0990  0.0879 -1.9308
17147SOL    HW256127   4.094   4.743   2.591 -0.2224 -0.6206  0.6492
17148SOL     OW56128   4.381  10.499   6.771 -0.3158  0.0752  0.5055
17148SOL    HW156129   4.327  10.434   6.814 -1.4035  0.8123  0.2903
17148SOL    HW256130   4.343  10.509   6.684  0.3375  0.3993  0.2459
17149SOL     OW56131   6.026   5.729   4.344 -0.2780  0.6340 -0.0561
17149SOL    HW156132   5.997   5.646   4.381 -0.2152  1.3418  1.6729
17149SOL    HW256133   5.946   5.768   4.308 -0.4078  0.1023 -0.3624
17150SOL     OW56134   4.733   2.765  11.324  0.0467  0.2974  0.0724
17150SOL    HW156135   4.784   2.710  11.384 -1.7057 -0.2694  1.1128
17150SOL    HW256136   4.648   2.775  11.367 -0.3001  2.3492 -0.9511
17151SOL     OW56137   5.644   3.038   2.535  0.2047 -0.4837 -0.4571
17151SOL    HW156138   5.645   3.049   2.630  0.8417 -1.1273 -0.3803
17151SOL    HW256139   5.597   3.115   2.502 -1.0358 -0.8175  0.4535
17152SOL     OW56140   2.647   8.474   9.022  0.4292  0.1883 -0.5329
17152SOL    HW156141   2.662   8.507   9.111 -0.7208 -0.2842 -0.1477
17152SOL    HW256142   2.734   8.469   8.984  0.9277  0.5773  0.5023
17153SOL     OW56143   0.538   4.960   2.894 -0.1813  0.6178  0.0917
17153SOL    HW156144   0.533   4.869   2.863  2.0781 -0.6503  2.9969
17153SOL    HW256145   0.613   4.962   2.952 -0.4474  4.3029  0.5616
17154SOL     OW56146   8.653   9.751   5.569 -0.0075 -0.3200 -0.1092
17154SOL    HW156147   8.710   9.827   5.586 -0.9982  0.9357 -2.0828
17154SOL    HW256148   8.712   9.686   5.531  0.1661  1.0427 -2.3307
17155SOL     OW56149   5.657   1.078   8.708  0.4812  0.2711 -0.7757
17155SOL    HW156150   5.708   1.039   8.636 -0.0671  0.3141 -1.1989
17155SOL    HW256151   5.713   1.070   8.785  1.2703  0.6296 -1.2984
17156SOL     OW56152   7.093  10.203  11.448  0.0941  0.5239  0.5192
17156SOL    HW156153   7.042  10.246  11.516  2.4372  0.9936  2.0845
17156SOL    HW256154   7.146  10.272  11.409 -0.5950  0.1051 -1.2625
17157SOL     OW56155   5.373   6.705   4.938  0.4999 -0.3149 -0.2681
17157SOL    HW156156   5.293   6.690   4.987  0.2025 -1.0926 -0.9746
17157SOL    HW256157   5.440   6.656   4.985  0.1636 -1.2731 -0.7722
17158SOL     OW56158  11.675   0.630   5.822 -0.0183  0.1524 -0.2474
17158SOL    HW156159  11.724   0.698   5.776  2.0805 -1.3059 -0.2806
17158SOL    HW256160  11.701   0.640   5.914  1.3700 -1.3857 -0.4315
17159SOL     OW56161   2.895   1.763   9.649  0.2199 -0.1625  0.2810
17159SOL    HW156162   2.890   1.842   9.704 -0.8710  0.8983 -1.2605
17159SOL    HW256163   2.974   1.775   9.597 -0.7314  0.7007 -1.0280
17160SOL     OW56164   7.745   0.356   4.635  0.1049  0.0522  0.2344
17160SOL    HW156165   7.683   0.311   4.577  0.5071 -0.6596  0.3465
17160SOL    HW256166   7.691   0.420   4.682 -0.4789 -0.3081  0.0708
17161SOL     OW56167   2.967   9.362  11.551 -0.5160 -0.2243 -0.3081
17161SOL    HW156168   3.036   9.394  11.493  0.4030 -0.1548  0.8045
17161SOL    HW256169   2.924   9.292  11.501 -0.1621  0.2554 -1.3127
17162SOL     OW56170   8.384   7.632   2.664 -0.1025  1.0522 -0.0092
17162SOL    HW156171   8.292   7.657   2.667 -0.2686  0.8603 -1.9652
17162SOL    HW256172   8.418   7.653   2.751 -1.8566  1.5972  0.5864
17163SOL     OW56173  11.999   3.667   4.652 -0.6883 -0.0211  0.6197
17163SOL    HW156174  12.009   3.729   4.724 -1.0362  0.3928  0.3160
17163SOL    HW256175  12.054   3.593   4.677  1.4270  1.2563  0.0074
17164SOL     OW56176   7.400   4.015   4.768  0.1351  0.1894  0.0754
17164SOL    HW156177   7.484   4.016   4.813 -0.2315 -1.9821  0.9711
17164SOL    HW256178   7.338   4.050   4.833 -0.3389 -2.6345  1.3087
17165SOL     OW56179   2.443   8.303   5.056  0.0988  0.1860  0.0384
17165SOL    HW156180   2.467   8.221   5.100  0.9381  0.0011 -0.7352
17165SOL    HW256181   2.401   8.355   5.125  0.9996 -0.2544  0.9607
17166SOL     OW56182   6.462   4.863   7.874 -1.2073 -0.2404 -0.2604
17166SOL    HW156183   6.473   4.806   7.951 -0.6992 -0.3804 -0.4334
17166SOL    HW256184   6.438   4.948   7.910  2.4560  0.6984  0.3184
17167SOL     OW56185   1.960   5.274   9.658  0.1088 -0.2169  0.3096
17167SOL    HW156186   1.945   5.368   9.668  0.6253 -0.1938  0.8586
17167SOL    HW256187   1.874   5.239   9.633  0.4659  0.7820 -2.7600
17168SOL     OW56188   6.740   8.027   0.605 -1.0408  0.2701 -0.0544
17168SOL    HW156189   6.709   8.061   0.521  0.7173  2.8659  0.2102
17168SOL    HW256190   6.822   7.983   0.584 -1.6058 -0.8863  0.0824
17169SOL     OW56191   8.470   0.920  10.559  0.6450 -0.1498 -0.2614
17169SOL    HW156192   8.501   0.857  10.624 -0.7584 -1.3268 -0.6708
17169SOL    HW256193   8.374   0.919  10.569  0.4621  0.3383 -1.6863
17170SOL     OW56194   7.640   1.795   1.535 -0.5610  0.6153  0.3576
17170SOL    HW156195   7.602   1.710   1.557  0.6805  0.0325  0.3290
17170SOL    HW256196   7.595   1.857   1.592 -0.6855 -0.2209  1.1917
17171SOL     OW56197   8.993   7.792   1.637  0.0875  0.5754  0.0475
17171SOL    HW156198   8.996   7.880   1.600  0.2475  0.4294 -0.2948
17171SOL    HW256199   9.041   7.738   1.574  0.7874  0.4098  0.7012
17172SOL     OW56200   5.180   1.131  11.083  0.3490  0.5370  0.4935
17172SOL    HW156201   5.166   1.192  11.155 -1.1928 -0.2505  0.9089
17172SOL    HW256202   5.150   1.177  11.006 -4.3493 -0.7448  1.2235
17173SOL     OW56203  11.911   7.709   6.794  0.0221 -0.3281 -0.0187
17173SOL    HW156204  11.926   7.621   6.760  1.6823  0.3870 -1.2524
17173SOL    HW256205  11.981   7.762   6.757 -0.4026  1.3500  1.4191
17174SOL     OW56206  10.946   1.537   0.538  0.0545 -0.4534  0.1634
17174SOL    HW156207  10.952   1.458   0.592 -0.1417 -0.5018  0.1168
17174SOL    HW256208  11.013   1.596   0.573  0.5601 -0.8406 -0.1375
17175SOL     OW56209   4.455  10.295  10.232 -0.2111 -0.3768  0.8622
17175SOL    HW156210   4.451  10.323  10.323  0.8207  1.7083  0.3314
17175SOL    HW256211   4.519  10.354  10.192  1.1464 -2.7464 -0.7124
17176SOL     OW56212  10.512   2.564   4.997  0.1348  0.0755 -0.0053
17176SOL    HW156213  10.607   2.570   4.985 -0.0346 -1.0388 -2.2489
17176SOL    HW256214  10.484   2.493   4.939 -2.3923  1.9742 -1.2916
17177SOL     OW56215   6.702  11.172   5.693 -0.3312 -0.2168 -0.1427
17177SOL    HW156216   6.741  11.246   5.740  0.7268 -0.6499 -0.2950
17177SOL    HW256217   6.634  11.211   5.639  0.3940  0.7030 -0.4258
17178SOL     OW56218   7.413   9.299   5.247 -0.0336 -0.1947  0.6813
17178SOL    HW156219   7.481   9.364   5.265 -0.4376  0.3703  0.1880
17178SOL    HW256220   7.346   9.347   5.199  0.0084 -1.1398 -0.3601
17179SOL     OW56221  11.467   8.793  10.011 -0.3057  0.0529  0.9144
17179SOL    HW156222  11.447   8.727   9.945  2.0325 -0.0751  0.2239
17179SOL    HW256223  11.438   8.756  10.094 -2.1200 -0.3384  0.1331
17180SOL     OW56224  11.239  10.540  10.496  0.6132 -0.4477  0.4480
17180SOL    HW156225  11.160  10.517  10.448  1.3063  0.3032 -1.1242
17180SOL    HW256226  11.208  10.592  10.571 -0.3622  0.0795 -0.3027
17181SOL     OW56227   3.377   8.736  11.405  0.4450  0.0489  0.2048
17181SOL    HW156228   3.297   8.734  11.456  1.4406 -0.0407  1.8170
17181SOL    HW256229   3.403   8.644  11.397  2.1705  0.2311  2.6879
17182SOL     OW56230   2.645   5.665   4.024  0.1773 -0.2968  0.2820
17182SOL    HW156231   2.656   5.627   4.111 -1.0606 -0.1415  0.5186
17182SOL    HW256232   2.644   5.760   4.039  0.6999 -0.2423  0.0004
17183SOL     OW56233  11.621  11.755   0.836 -0.3321 -0.7468  0.0930
17183SOL    HW156234  11.539  11.780   0.793 -0.3818 -0.0371  0.5756
17183SOL    HW256235  11.686  11.816   0.801 -0.1586 -0.8436  0.2473
17184SOL     OW56236   7.866   0.669   6.732 -0.2440  0.1554 -0.2491
17184SOL    HW156237   7.877   0.643   6.640 -1.5649  1.4584 -0.8173
17184SOL    HW256238   7.951   0.650   6.772  0.6953  0.4573 -1.9738
17185SOL     OW56239  10.826   0.377   5.483  0.2646 -0.2050 -0.0509
17185SOL    HW156240  10.748   0.322   5.483  0.0929  0.0349  0.5691
17185SOL    HW256241  10.819   0.429   5.563  1.7338 -1.1717  0.7595
17186SOL     OW56242   1.584   3.238   2.368  0.3126 -0.4050 -0.1748
17186SOL    HW156243   1.564   3.163   2.423  1.5818 -0.2618  0.5233
17186SOL    HW256244   1.595   3.311   2.429  3.3831 -0.5888 -0.3614
17187SOL     OW56245   7.155   1.664   0.340  0.2380  0.5764 -0.2067
17187SOL    HW156246   7.200   1.597   0.288 -0.5237  1.0232 -1.5129
17187SOL    HW256247   7.226   1.712   0.384  0.9293  0.2106 -0.8923
17188SOL     OW56248   1.157   8.380   3.584  0.0298  0.3620  0.2684
17188SOL    HW156249   1.143   8.474   3.575  2.2179  0.8476  1.1899
17188SOL    HW256250   1.109   8.356   3.664 -0.5873  0.6651 -0.0077
17189SOL     OW56251  10.671   5.092   8.951  0.2496  0.5590 -0.5327
17189SOL    HW156252  10.744   5.105   8.891  0.1071  0.1110 -0.8151
17189SOL    HW256253  10.646   5.000   8.938 -0.2045  0.6402 -0.2633
17190SOL     OW56254   1.349   7.259   7.623  0.3795 -0.2063  0.0412
17190SOL    HW156255   1.391   7.215   7.549 -3.0631 -0.5172 -1.9810
17190SOL    HW256256   1.360   7.199   7.696  2.9519 -0.4164 -0.4227
17191SOL     OW56257  11.519   4.181   8.519 -0.3932 -0.4160  0.2714
17191SOL    HW156258  11.568   4.149   8.594  0.7026 -1.1708 -0.7480
17191SOL    HW256259  11.506   4.105   8.464 -0.8140  0.2120 -0.5177
17192SOL     OW56260   2.514   0.406   7.650 -0.1890 -0.0086 -0.3360
17192SOL    HW156261   2.437   0.348   7.650 -1.0478  1.0956 -0.0219
17192SOL    HW256262   2.480   0.490   7.680  1.2637  0.3613  0.3419
17193SOL     OW56263   1.417   6.481   2.993  0.6438  0.7623  0.0356
17193SOL    HW156264   1.357   6.456   2.922  0.6279  1.0689 -0.0608
17193SOL    HW256265   1.370   6.458   3.073 -0.2009  2.2703  0.0061
17194SOL     OW56266   5.593  11.483   9.259 -0.1537  0.7781 -0.3244
17194SOL    HW156267   5.551  11.474   9.174 -1.7783  0.1867  0.5008
17194SOL    HW256268   5.587  11.396   9.298  1.2748  0.8409  0.1034
17195SOL     OW56269   0.412   5.340   9.231 -0.3415  0.2924 -0.4380
17195SOL    HW156270   0.452   5.329   9.145 -2.7596  0.6734 -1.7024
17195SOL    HW256271   0.373   5.255   9.250 -1.2489  0.6833 -0.5234
17196SOL     OW56272   9.819   7.408   6.743  0.2320 -0.0939  0.0269
17196SOL    HW156273   9.752   7.381   6.681 -1.5023  0.2880  1.6563
17196SOL    HW256274   9.791   7.495   6.773  2.3166  0.7966 -0.4133
17197SOL     OW56275   0.459   3.775   9.503 -0.0612 -0.2196 -0.2333
17197SOL    HW156276   0.417   3.759   9.419 -0.1000 -1.7556  0.0514
17197SOL    HW256277   0.475   3.688   9.539  1.6855  0.3464  0.4966
17198SOL     OW56278  10.460   7.067   6.441  0.3510  0.1834  0.5032
17198SOL    HW156279  10.482   7.011   6.367 -1.0771  0.8220 -0.4561
17198SOL    HW256280  10.436   7.006   6.511 -0.1879 -0.4252 -0.1981
17199SOL     OW56281   6.173  11.542   9.628 -1.2159 -0.1452  0.1123
17199SOL    HW156282   6.172  11.578   9.716  3.0601  0.7470  0.0072
17199SOL    HW256283   6.188  11.617   9.571 -2.6463 -0.8688 -1.2971
17200SOL     OW56284   7.644   8.518  10.927  0.0882 -1.2500 -0.1415
17200SOL    HW156285   7.616   8.600  10.885 -0.7796 -0.7218  1.3809
17200SOL    HW256286   7.674   8.464  10.855  1.2594  0.6180 -1.1382
17201SOL     OW56287   6.036   5.178   2.514 -0.0691  0.2157  0.6761
17201SOL    HW156288   5.968   5.237   2.548  0.0636  1.1166 -0.5340
17201SOL    HW256289   5.995   5.138   2.437  0.1891 -0.5312  0.9246
17202SOL     OW56290   0.292   9.380   4.372  0.1579 -0.2300 -0.2394
17202SOL    HW156291   0.265   9.291   4.350  0.7522 -0.4989  0.0845
17202SOL    HW256292   0.346   9.407   4.298  0.0374 -0.1700 -0.3042
17203SOL     OW56293   3.697  10.839   0.555 -0.7538 -0.2020  0.0543
17203SOL    HW156294   3.614  10.849   0.508 -1.4972  0.0209  1.3676
17203SOL    HW256295   3.719  10.746   0.546 -2.5497 -0.8732  1.9229
17204SOL     OW56296   8.923  10.384   6.412  0.1578  0.0761  0.3002
17204SOL    HW156297   8.935  10.348   6.324  0.0687  1.8975 -0.5023
17204SOL    HW256298   8.828  10.381   6.426  0.0275  1.0870 -0.2753
17205SOL     OW56299   3.681   0.160   9.158  0.2031 -0.1230 -0.0881
17205SOL    HW156300   3.681   0.124   9.246 -0.4746  3.2429  1.4285
17205SOL    HW256301   3.722   0.246   9.167  1.1692 -0.0941 -3.3168
17206SOL     OW56302  10.167   9.280   8.425 -0.2842  0.3751  0.2977
17206SOL    HW156303  10.121   9.216   8.370 -2.1344  2.1809 -0.3834
17206SOL    HW256304  10.231   9.228   8.474 -0.1609 -1.6436 -1.8305
17207SOL     OW56305  11.000   3.436   5.858  0.3602  0.3519 -0.2469
17207SOL    HW156306  10.960   3.350   5.872 -0.0915  0.3568 -1.3824
17207SOL    HW256307  11.012   3.472   5.946  1.6293 -1.3452  0.3481
17208SOL     OW56308   3.404  11.712   8.065 -0.0381  0.1603 -0.1681
17208SOL    HW156309   3.471  11.766   8.023  0.5092  0.2587  0.8196
17208SOL    HW256310   3.367  11.768   8.133 -1.0175  0.0426 -0.5849
17209SOL     OW56311   2.874   9.888   0.120  0.4612 -0.0751  0.3367
17209SOL    HW156312   2.848   9.800   0.095  0.4562  0.0177  0.0172
17209SOL    HW256313   2.892   9.933   0.037  2.1096 -0.2820  0.5342
17210SOL     OW56314   2.293   9.384   1.663  0.1163  0.0117 -0.3890
17210SOL    HW156315   2.281   9.381   1.568 -1.6470  1.2835 -0.2507
17210SOL    HW256316   2.228   9.323   1.697  0.2501  0.1003  0.0324
17211SOL     OW56317   8.205   6.390   1.236  0.1621 -0.1131 -0.2784
17211SOL    HW156318   8.250   6.311   1.267  1.3441  0.6791  0.1089
17211SOL    HW256319   8.119   6.386   1.278  0.2801 -1.0863 -0.0974
17212SOL     OW56320   9.179   8.770   3.349 -0.1738 -0.3646 -0.2699
17212SOL    HW156321   9.227   8.703   3.301 -0.9478 -0.4495 -0.9565
17212SOL    HW256322   9.108   8.723   3.393  0.5746 -0.2996  1.0475
17213SOL     OW56323   2.066   7.563   9.987 -0.3479  0.4161 -0.6822
17213SOL    HW156324   1.986   7.511   9.985 -0.4687  0.5679  0.1372
17213SOL    HW256325   2.136   7.498  10.001 -0.3291  0.2941 -1.3131
17214SOL     OW56326  11.345   9.300   6.569 -0.0217 -0.7021 -0.1910
17214SOL    HW156327  11.332   9.213   6.607  0.4149 -0.6641  0.0566
17214SOL    HW256328  11.439   9.305   6.552 -0.3172 -1.0368 -2.0968
17215SOL     OW56329   5.378   4.029   3.390  0.0717 -0.4742  0.2369
17215SOL    HW156330   5.283   4.043   3.396 -0.1837  0.5144 -3.4282
17215SOL    HW256331   5.415   4.118   3.385  1.0451 -0.8646  0.3250
17216SOL     OW56332   5.954   6.938   1.028 -0.2490 -0.8785  0.1425
17216SOL    HW156333   5.875   6.887   1.046  0.5087 -3.0177 -1.9990
17216SOL    HW256334   6.017   6.907   1.093 -0.7678 -0.0942  1.0426
17217SOL     OW56335   5.382   6.241   8.615 -0.1063  0.4414  0.0956
17217SOL    HW156336   5.375   6.146   8.602  0.1162  0.1263  1.9250
17217SOL    HW256337   5.325   6.259   8.689  1.0146  1.4862  0.7439
17218SOL     OW56338   6.110   9.420   0.501 -0.0296  0.2377  0.3637
17218SOL    HW156339   6.156   9.500   0.474  1.5766 -0.7166  0.1661
17218SOL    HW256340   6.104   9.428   0.597 -0.0105  0.6542  0.3327
17219SOL     OW56341   2.031   9.932   9.508  0.1092  0.1128  0.2796
17219SOL    HW156342   2.111   9.981   9.529 -0.1526  0.8914 -0.4964
17219SOL    HW256343   2.028   9.930   9.413 -0.4307 -0.5288  0.3056
17220SOL     OW56344   0.101   2.841   0.517  0.1945 -0.1170 -0.4846
17220SOL    HW156345   0.011   2.812   0.500  0.2491 -0.7941  0.2919
17220SOL    HW256346   0.131   2.784   0.588  0.3249  1.8276  1.1111
17221SOL     OW56347   7.546   4.655  11.351 -0.1455 -0.2344 -0.2790
17221SOL    HW156348   7.493   4.688  11.279  1.4927  1.6811 -0.6869
17221SOL    HW256349   7.527   4.714  11.424 -0.8482 -1.4048  0.5278
17222SOL     OW56350   0.453   0.020   8.791 -0.3672 -0.5468  0.1298
17222SOL    HW156351   0.358   0.029   8.780 -0.1120 -0.0597 -2.3469
17222SOL    HW256352   0.485   0.109   8.798 -0.0686 -0.7102  0.9266
17223SOL     OW56353   7.521   0.425   6.136  0.0461 -0.3388 -0.2835
17223SOL    HW156354   7.495   0.466   6.053  0.1654  0.4162  0.0529
17223SOL    HW256355   7.556   0.496   6.189 -1.8265 -0.4551  1.1739
17224SOL     OW56356   3.651   0.996   7.433 -0.1627  1.1268 -0.0558
17224SOL    HW156357   3.636   1.021   7.342 -1.3786  0.5918 -0.0310
17224SOL    HW256358   3.745   0.983   7.440 -0.2662 -1.5661 -2.0137
17225SOL     OW56359   3.192   9.398   0.636 -0.2211  0.2726  0.6437
17225SOL    HW156360   3.127   9.416   0.568 -0.1220 -3.7140 -0.8127
17225SOL    HW256361   3.153   9.433   0.716 -1.0031  3.8814 -1.1256
17226SOL     OW56362   8.596   2.608   5.325  0.3653  0.0149  0.0932
17226SOL    HW156363   8.685   2.640   5.307  0.1955  0.6182  0.3013
17226SOL    HW256364   8.542   2.646   5.256  0.4146 -1.0953 -0.5695
17227SOL     OW56365   2.807   5.863   6.898 -0.1511  0.2109 -0.1963
17227SOL    HW156366   2.878   5.921   6.924 -1.2500  0.6711  2.1036
17227SOL    HW256367   2.742   5.872   6.969 -0.2673 -4.0206  0.5072
17228SOL     OW56368   1.068  11.262   7.607 -0.6363 -0.3111 -0.0576
17228SOL    HW156369   0.980  11.232   7.631 -1.3305  0.9764 -0.8660
17228SOL    HW256370   1.127  11.194   7.641 -1.8137 -0.4897  1.8012
17229SOL     OW56371   1.118  11.377  11.556  0.1640 -0.2219  0.6358
17229SOL    HW156372   1.139  11.319  11.483 -0.7839  1.1447 -0.7640
17229SOL    HW256373   1.044  11.335  11.599 -1.2049  0.4078 -1.0006
17230SOL     OW56374   9.305  10.416   2.963 -0.2289  0.4335 -0.2210
17230SOL    HW156375   9.304  10.395   3.057 -0.1018 -0.8716 -0.5058
17230SOL    HW256376   9.212  10.421   2.939 -0.2945  1.9571  0.2016
17231SOL     OW56377   9.254   4.709   2.205 -0.1379  0.0451 -0.0556
17231SOL    HW156378   9.265   4.617   2.182  0.0155  0.0708 -0.0840
17231SOL    HW256379   9.171   4.712   2.254  0.0145 -0.1593  0.2188
17232SOL     OW56380   4.063   3.609   4.925  0.3107 -0.1940  0.4642
17232SOL    HW156381   4.099   3.608   5.013  1.8682 -1.1713 -0.1365
17232SOL    HW256382   4.106   3.683   4.882 -0.3576  0.2103  0.4794
17233SOL     OW56383   9.391  11.242   7.894  0.0394  0.5676 -0.0533
17233SOL    HW156384   9.337  11.260   7.971 -0.6442 -0.1969 -0.3358
17233SOL    HW256385   9.343  11.281   7.821  0.6510  1.2304 -0.1087
17234SOL     OW56386   0.502   0.930   9.354  0.3512 -0.1909 -0.5975
17234SOL    HW156387   0.539   0.857   9.403 -3.2260  0.3221  3.5843
17234SOL    HW256388   0.572   0.994   9.350  1.9000 -1.6969  0.8241
17235SOL     OW56389   9.229  11.836   8.265 -0.9468 -0.4170  0.1311
17235SOL    HW156390   9.212  11.930   8.262 -1.5832 -0.4704  1.5060
17235SOL    HW256391   9.305  11.827   8.323 -1.4081 -0.8091  0.6790
17236SOL     OW56392   9.639   7.842   0.632 -0.2094 -0.7786 -0.0013
17236SOL    HW156393   9.671   7.847   0.722  0.6179 -0.9585 -0.2678
17236SOL    HW256394   9.698   7.779   0.589 -1.1368 -1.3720 -0.4461
17237SOL     OW56395   8.078   2.355   1.717  0.0156  0.0829  0.5703
17237SOL    HW156396   8.010   2.296   1.684  0.3645 -1.1436  1.9311
17237SOL    HW256397   8.142   2.298   1.758  1.8758  1.2282 -0.6214
17238SOL     OW56398   9.523   5.807   1.158  0.2087  0.0271 -0.0041
17238SOL    HW156399   9.602   5.753   1.165  0.6302  0.6183 -0.0491
17238SOL    HW256400   9.538   5.860   1.080 -1.1401 -1.2756 -1.2206
17239SOL     OW56401  10.495  11.976   7.207 -0.3092 -0.3727 -0.3623
17239SOL    HW156402  10.527  11.961   7.296  0.2247 -0.4341 -0.5617
17239SOL    HW256403  10.567  11.950   7.150  0.1186  1.5157 -0.7714
17240SOL     OW56404   8.817   6.051   6.788 -0.2779 -0.1762 -0.4756
17240SOL    HW156405   8.750   6.017   6.848  0.9978 -0.6096  0.7551
17240SOL    HW256406   8.788   6.023   6.701 -1.3545 -0.9068  0.1000
17241SOL     OW56407   8.926   0.353   2.451 -0.1502  0.4379 -0.0605
17241SOL    HW156408   8.962   0.436   2.419 -1.8475  0.9886 -0.6646
17241SOL    HW256409   8.957   0.288   2.389 -0.4255  0.9343 -0.7267
17242SOL     OW56410   0.811   8.787   3.539  0.3848  0.2897 -0.0309
17242SOL    HW156411   0.864   8.724   3.490  0.2833  0.1716  0.0107
17242SOL    HW256412   0.854   8.872   3.524  0.7780  0.1467  0.2696
17243SOL     OW56413   1.524   7.014  10.363  0.1857 -0.2447 -0.6866
17243SOL    HW156414   1.550   7.002  10.455  0.4552 -0.0064 -0.7284
17243SOL    HW256415   1.465   7.089  10.364 -0.0092 -0.3997 -0.6732
17244SOL     OW56416   1.303  10.031   4.534 -0.7890  0.0610  0.6469
17244SOL    HW156417   1.312  10.043   4.629 -0.3501 -2.5713  1.0143
17244SOL    HW256418   1.384   9.989   4.507 -1.0440  0.4911 -0.8651
17245SOL     OW56419   2.932  10.127   1.170  0.3915 -0.2022 -0.8506
17245SOL    HW156420   2.866  10.070   1.209  0.4166 -0.9216 -1.8125
17245SOL    HW256421   3.000  10.134   1.238 -1.1980  1.6050  0.6619
17246SOL     OW56422   5.765   1.783   3.956  0.5677 -0.2514 -0.1005
17246SOL    HW156423   5.843   1.804   3.904  0.0645 -1.7152 -1.5322
17246SOL    HW256424   5.712   1.863   3.953  1.4791  0.3770 -0.0591
17247SOL     OW56425   4.176   3.260  10.169 -0.5078  0.1670  0.4705
17247SOL    HW156426   4.202   3.295  10.255 -1.2100  1.5021  0.1629
17247SOL    HW256427   4.097   3.209  10.186 -1.4321  1.5442  0.4468
17248SOL     OW56428   1.981   0.683  11.367  0.3444 -0.4624  0.3421
17248SOL    HW156429   2.013   0.758  11.416  1.5450 -1.2973  0.8632
17248SOL    HW256430   1.980   0.611  11.430 -0.9071 -0.8839 -0.1158
17249SOL     OW56431   9.296   1.556   1.431 -0.0218  0.0500  0.0125
17249SOL    HW156432   9.363   1.584   1.369  0.0542  0.9057  0.4673
17249SOL    HW256433   9.345   1.520   1.505 -0.1074 -0.7752 -0.3236
17250SOL     OW56434   1.491   1.265   2.640 -0.6630  0.0401  0.5736
17250SOL    HW156435   1.429   1.228   2.703 -1.1552 -0.0550  0.0513
17250SOL    HW256436   1.530   1.340   2.685 -2.9247  1.5891  0.1056
17251SOL     OW56437   0.555  10.025  11.632  0.2878 -0.4448 -0.1172
17251SOL    HW156438   0.583  10.027  11.541  0.1858 -0.3500 -0.1474
17251SOL    HW256439   0.518  10.112  11.647 -1.3071 -1.0199 -0.4989
17252SOL     OW56440   9.120   4.298   8.006  0.1181  0.1361 -0.0577
17252SOL    HW156441   9.207   4.260   8.008  0.2810  0.4321 -1.0355
17252SOL    HW256442   9.061   4.226   8.030  0.6772  0.1149  1.3001
17253SOL     OW56443  11.758  10.536   5.632  0.4425 -0.0917  0.5105
17253SOL    HW156444  11.797  10.536   5.720  1.4757 -2.4474  0.1377
17253SOL    HW256445  11.834  10.533   5.573 -0.2314 -1.6795 -0.3306
17254SOL     OW56446   3.842  10.455   9.044  0.3685  0.3930 -0.2839
17254SOL    HW156447   3.886  10.412   9.118 -0.1942  0.4230  0.0746
17254SOL    HW256448   3.763  10.494   9.082 -0.6531 -0.7568 -1.1564
17255SOL     OW56449   5.913  10.936  10.499  0.1419 -0.1327 -0.4031
17255SOL    HW156450   5.973  10.992  10.549  1.5119 -2.3886  0.6151
17255SOL    HW256451   5.848  10.907  10.563  0.6446 -1.3233 -0.4191
17256SOL     OW56452  11.932   8.422   0.323  0.3731 -0.1969  0.4478
17256SOL    HW156453  11.877   8.398   0.248 -1.5462  3.4071  0.4630
17256SOL    HW256454  12.021   8.416   0.290 -0.4217  1.7722 -2.4234
17257SOL     OW56455  11.165   3.978  10.601 -0.2905 -0.2566  0.3687
17257SOL    HW156456  11.185   4.053  10.544 -0.7867  0.2648  0.8725
17257SOL    HW256457  11.086   4.004  10.648 -0.5421 -1.1530  0.4572
17258SOL     OW56458   1.061   5.550   7.867 -0.3367  0.1039  0.3908
17258SOL    HW156459   1.001   5.520   7.935  0.3982 -1.3848  0.4372
17258SOL    HW256460   1.006   5.566   7.791 -0.9445  0.0101  0.8011
17259SOL     OW56461   1.520   7.507  11.293 -0.0053  0.1584  0.2411
17259SOL    HW156462   1.448   7.455  11.256  0.6058 -0.8721  0.4475
17259SOL    HW256463   1.509   7.499  11.387 -0.4474  1.2004  0.2911
17260SOL     OW56464   3.100   1.266   4.337  0.2905 -0.7003  0.2980
17260SOL    HW156465   3.108   1.218   4.419  0.1478 -3.0572 -0.9698
17260SOL    HW256466   3.090   1.357   4.363 -0.1103 -1.4089  2.8970
17261SOL     OW56467   7.004  11.801   7.796  0.4942  0.0853  0.3309
17261SOL    HW156468   6.924  11.774   7.842 -0.7388  1.9859 -0.5939
17261SOL    HW256469   7.055  11.846   7.863 -0.1915  0.7179  0.4423
17262SOL     OW56470   1.896   3.845   7.236  0.6727 -0.6356 -0.3130
17262SOL    HW156471   1.972   3.833   7.293  0.9935 -2.6407 -1.0813
17262SOL    HW256472   1.855   3.759   7.232 -0.0826 -0.2480 -2.0784
17263SOL     OW56473  11.173   8.736   3.087 -0.3259 -1.1736  0.1011
17263SOL    HW156474  11.111   8.667   3.111 -1.4657 -0.0947  0.3517
17263SOL    HW256475  11.252   8.689   3.060 -0.5762 -2.5495  1.6101
17264SOL     OW56476   0.385  11.360   4.401  0.0596  0.3599 -0.1847
17264SOL    HW156477   0.315  11.398   4.454 -0.3246 -1.3997  0.6613
17264SOL    HW256478   0.453  11.335   4.464  0.2993 -0.3023 -0.6883
17265SOL     OW56479  11.919   9.134   1.345  0.1300 -0.3761  0.0419
17265SOL    HW156480  11.980   9.151   1.417  0.0442 -2.4260  0.6356
17265SOL    HW256481  11.950   9.191   1.274  1.7198 -0.1564  0.8735
17266SOL     OW56482   7.447  10.920   4.079 -0.4394  0.3425  0.1103
17266SOL    HW156483   7.365  10.904   4.032  1.2707  1.1370 -3.5076
17266SOL    HW256484   7.472  10.834   4.113 -1.5124 -0.4667 -1.0397
17267SOL     OW56485   8.551  10.341   5.664  0.5626 -0.3276 -0.4807
17267SOL    HW156486   8.586  10.411   5.609 -1.9185  0.4668 -1.1933
17267SOL    HW256487   8.531  10.270   5.602  0.0727 -0.4010 -0.2419
17268SOL     OW56488   1.366  11.193   5.027 -0.4553  0.0103  0.6077
17268SOL    HW156489   1.366  11.272   4.972  0.1546 -0.6058 -0.2997
17268SOL    HW256490   1.283  11.197   5.074 -1.0126  0.5303 -0.3929
17269SOL     OW56491   9.274   1.276  11.131 -0.2876 -0.0542 -0.3113
17269SOL    HW156492   9.287   1.263  11.037 -1.2348 -1.2910 -0.2979
17269SOL    HW256493   9.359   1.306  11.163 -0.1441  1.0397 -1.6631
17270SOL     OW56494  10.054   2.620   6.604 -0.4262  0.1363 -0.2773
17270SOL    HW156495  10.062   2.527   6.627 -2.3258 -0.2576 -1.0202
17270SOL    HW256496  10.070   2.622   6.510 -0.0374  0.6317 -0.2036
17271SOL     OW56497   8.085   6.091  10.543 -0.2167  0.2991 -0.2113
17271SOL    HW156498   8.080   6.136  10.627  0.7775  0.3069 -0.1469
17271SOL    HW256499   8.097   6.161  10.479  1.0182  0.1718 -0.1430
17272SOL     OW56500   9.069   1.413   0.845 -0.1863 -0.1465 -0.0498
17272SOL    HW156501   9.126   1.336   0.854 -0.4989 -0.5530 -1.3446
17272SOL    HW256502   9.105   1.461   0.771 -0.4524  0.5756  0.2791
17273SOL     OW56503   0.622  10.668   7.580  0.0701 -0.0525 -0.1705
17273SOL    HW156504   0.569  10.641   7.655 -0.9477  0.5459 -0.6469
17273SOL    HW256505   0.590  10.756   7.559  0.2507 -0.2539 -1.3733
17274SOL     OW56506  10.435  11.328  10.499 -0.0470 -0.3946  0.7241
17274SOL    HW156507  10.415  11.273  10.423  1.1197 -0.0925  0.1697
17274SOL    HW256508  10.375  11.402  10.493 -2.0912 -1.8578  1.8295
17275SOL     OW56509   9.919   8.331   3.968 -0.2236 -0.2682 -0.1265
17275SOL    HW156510   9.876   8.257   3.925  0.5494 -2.2193  2.2453
17275SOL    HW256511   9.849   8.394   3.983 -1.3672 -1.4838 -0.2031
17276SOL     OW56512   3.596   1.788   5.738  0.0825  0.1744 -0.1653
17276SOL    HW156513   3.686   1.820   5.748  0.4647 -1.1442  0.8313
17276SOL    HW256514   3.596   1.702   5.779 -1.0111 -0.9792 -2.4083
17277SOL     OW56515   5.670   2.864  10.643  0.8658 -0.0416 -0.2246
17277SOL    HW156516   5.650   2.877  10.551  0.2795 -1.0342 -0.2484
17277SOL    HW256517   5.662   2.770  10.657 -0.8545  0.2661  1.2474
17278SOL     OW56518   6.994   2.528   9.944 -0.0675 -0.0042 -0.2406
17278SOL    HW156519   7.077   2.512   9.900  0.6205 -0.0759  1.0278
17278SOL    HW256520   7.012   2.601  10.004  0.1866 -2.3306  2.7765
17279SOL     OW56521   4.478   8.361   5.390  0.0321 -0.1418 -0.0879
17279SOL    HW156522   4.427   8.427   5.436 -0.4544  0.9735 -2.1240
17279SOL    HW256523   4.438   8.356   5.303  2.6372 -0.0806 -1.3846
17280SOL     OW56524   2.357   4.695   6.477 -0.5280  0.6544 -0.0336
17280SOL    HW156525   2.333   4.614   6.432  0.8022  0.4297 -0.3746
17280SOL    HW256526   2.429   4.731   6.426 -0.6082  1.6709  0.5411
17281SOL     OW56527   1.984   1.711  11.859  0.0873  0.2838 -0.4473
17281SOL    HW156528   1.958   1.694  11.950 -0.1828 -0.1480 -0.6047
17281SOL    HW256529   2.008   1.804  11.858  0.0251  0.3083  0.0482
17282SOL     OW56530  10.190  10.974   8.785  0.4512 -0.0426 -0.4769
17282SOL    HW156531  10.241  11.028   8.724 -0.9561  0.5295 -1.1930
17282SOL    HW256532  10.239  10.978   8.867  2.3016 -0.6866 -1.4985
17283SOL     OW56533   2.363   5.907   9.639 -0.3113  0.1764 -0.1498
17283SOL    HW156534   2.373   5.833   9.698 -0.5327  0.0569 -0.2599
17283SOL    HW256535   2.311   5.971   9.688 -0.2347  0.2033 -0.1037
17284SOL     OW56536   8.746   4.840   9.643  0.3641 -0.8997 -0.5794
17284SOL    HW156537   8.670   4.787   9.666 -0.0635 -0.7836 -1.6517
17284SOL    HW256538   8.721   4.885   9.562  0.9297  0.4938 -0.0236
17285SOL     OW56539   0.568   3.888   1.499 -0.0033 -0.2315  0.0439
17285SOL    HW156540   0.521   3.805   1.486  1.0211 -0.7851 -0.2984
17285SOL    HW256541   0.642   3.864   1.555 -0.7048  0.8311  1.4812
17286SOL     OW56542   9.214   6.228  11.142 -0.1412  0.1894 -0.0476
17286SOL    HW156543   9.278   6.285  11.099  0.2376  0.3211  0.6691
17286SOL    HW256544   9.166   6.187  11.070  1.6197 -0.9308 -0.6441
17287SOL     OW56545   4.712   7.469   0.201  0.6905  0.3471  0.0938
17287SOL    HW156546   4.699   7.549   0.150 -0.9764 -1.2287 -2.0829
17287SOL    HW256547   4.781   7.422   0.155  1.3583  0.2632  1.1299
17288SOL     OW56548  11.258   8.105   6.219 -0.0823  0.8326 -0.0697
17288SOL    HW156549  11.307   8.042   6.166 -0.0077  1.2324 -0.4807
17288SOL    HW256550  11.325   8.154   6.266 -0.1762 -0.2143  1.2253
17289SOL     OW56551   9.983   4.510   0.876 -0.5416  0.1690  0.3205
17289SOL    HW156552   9.921   4.582   0.880  0.1674  1.0228 -2.4829
17289SOL    HW256553  10.068   4.550   0.894 -0.2226 -0.0873 -0.6016
17290SOL     OW56554   7.626   2.523  10.685  0.3770 -0.3729 -0.3294
17290SOL    HW156555   7.671   2.537  10.602  0.3862 -0.3517 -0.3214
17290SOL    HW256556   7.549   2.580  10.680  1.1601  0.7965  0.2849
17291SOL     OW56557   9.393  10.978   7.033  0.3068  1.0704  0.5090
17291SOL    HW156558   9.303  10.999   7.010  0.0172 -0.9951 -0.4321
17291SOL    HW256559   9.446  11.026   6.969 -0.1872  1.0349  0.0731
17292SOL     OW56560   2.051   8.086   0.267  0.0839  0.9191  0.1725
17292SOL    HW156561   2.050   7.997   0.231  0.5730  0.7255  0.6213
17292SOL    HW256562   2.070   8.142   0.192 -1.8637  0.8182 -0.4441
17293SOL     OW56563   2.838   6.571   2.003  0.0242  0.3395  0.1674
17293SOL    HW156564   2.915   6.521   1.976  0.9147  2.3919 -1.3518
17293SOL    HW256565   2.870   6.631   2.069 -0.5611  0.3623  0.4359
17294SOL     OW56566  11.750   6.372   7.258 -0.5177 -0.3406 -0.3904
17294SOL    HW156567  11.730   6.466   7.257  3.3759  0.7141  1.0695
17294SOL    HW256568  11.739   6.347   7.350  2.4734 -0.0791  0.1577
17295SOL     OW56569   6.747   1.141  10.799  0.0798 -0.4000  0.5951
17295SOL    HW156570   6.805   1.216  10.814  0.3752 -0.1011 -1.5929
17295SOL    HW256571   6.806   1.066  10.791 -0.0392 -0.5074  0.7187
17296SOL     OW56572   0.408   1.101   8.197  0.7789  0.1948 -0.3089
17296SOL    HW156573   0.438   1.186   8.166  1.2870  0.3917  0.7072
17296SOL    HW256574   0.316   1.097   8.170  1.1920  0.3319 -1.8667
17297SOL     OW56575  10.538   4.335   7.703 -0.3177 -0.6986 -0.0822
17297SOL    HW156576  10.526   4.258   7.760  0.9316 -1.5203 -0.8725
17297SOL    HW256577  10.522   4.302   7.615  1.9263 -0.5438 -0.6182
17298SOL     OW56578   9.267   3.137   9.693  0.3055  0.3465  0.1216
17298SOL    HW156579   9.262   3.172   9.604 -0.5727 -0.1292 -0.0228
17298SOL    HW256580   9.179   3.153   9.730  0.1062 -1.0643  0.2907
17299SOL     OW56581   9.129   2.415   7.594 -0.2572  0.1527  0.5091
17299SOL    HW156582   9.123   2.396   7.688 -1.4297  0.0204  0.4231
17299SOL    HW256583   9.093   2.337   7.552  0.9575 -0.1017 -0.0914
17300SOL     OW56584   3.965   0.222  10.646 -0.2001  0.1205  0.2895
17300SOL    HW156585   4.000   0.153  10.589  1.0799 -0.1878  1.3866
17300SOL    HW256586   4.042   0.274  10.670 -0.8474  0.7431  1.0636
17301SOL     OW56587   3.220   9.787   3.334 -0.3429  0.0406 -0.5191
17301SOL    HW156588   3.207   9.799   3.428  0.7465 -0.7947 -0.2538
17301SOL    HW256589   3.138   9.818   3.295 -1.1219 -0.3549  0.7529
17302SOL     OW56590   4.920   9.643  11.346 -0.1190 -0.8985  0.4291
17302SOL    HW156591   4.892   9.552  11.342  0.3061 -1.1665  2.3207
17302SOL    HW256592   4.954   9.653  11.435 -0.2502  1.1412  0.2897
17303SOL     OW56593   2.867   2.468   6.176 -0.5275  0.6399  0.8119
17303SOL    HW156594   2.907   2.407   6.238 -0.2067  0.8606  0.8194
17303SOL    HW256595   2.863   2.551   6.223  2.3725  1.5847 -0.4150
17304SOL     OW56596   8.832   0.989  11.768 -0.7761  0.1433  0.4679
17304SOL    HW156597   8.837   1.011  11.675  1.6745  1.2264  0.7723
17304SOL    HW256598   8.854   0.896  11.772 -0.7446  0.1275 -0.0325
17305SOL     OW56599   0.387  11.871   5.767 -0.0555  0.5629  0.0676
17305SOL    HW156600   0.372  11.781   5.739  0.3409  0.3015  0.6647
17305SOL    HW256601   0.346  11.876   5.853 -0.9871  1.2591 -0.4035
17306SOL     OW56602   7.938   3.254   7.190  0.5021  0.3920  0.7877
17306SOL    HW156603   7.863   3.218   7.143  1.2951 -1.3430  0.7393
17306SOL    HW256604   7.993   3.177   7.208  1.4186  1.3628  2.3536
17307SOL     OW56605   4.320   4.917   6.391 -0.4193 -0.2503 -0.0871
17307SOL    HW156606   4.361   4.943   6.473 -1.9813  3.6473 -0.3279
17307SOL    HW256607   4.239   4.873   6.417  0.9307 -2.5746  0.3716
17308SOL     OW56608   8.378  10.043   8.452  0.2292 -0.3187  0.6807
17308SOL    HW156609   8.408  10.060   8.362 -1.0844 -1.7067 -0.0694
17308SOL    HW256610   8.304  10.102   8.465  1.0712  0.6320  1.2568
17309SOL     OW56611   2.713   4.751   7.586  0.0555  0.5109 -0.3092
17309SOL    HW156612   2.710   4.844   7.611 -1.1382  0.0468  1.4446
17309SOL    HW256613   2.806   4.732   7.578  0.3401  1.7106 -0.1244
17310SOL     OW56614   9.617   9.984   6.835 -0.4237  0.7028  0.0443
17310SOL    HW156615   9.687  10.027   6.883 -1.4633  1.0462  1.3447
17310SOL    HW256616   9.661   9.922   6.777  0.9690  1.6356  0.0732
17311SOL     OW56617  10.998   3.611   2.165  0.2617  0.1251 -0.0908
17311SOL    HW156618  10.966   3.608   2.255  3.4502  0.1647  1.1578
17311SOL    HW256619  11.046   3.529   2.155  1.2168  0.8093 -1.2505
17312SOL     OW56620   9.567   6.022   9.282 -0.0176  0.0251  0.2697
17312SOL    HW156621   9.634   5.980   9.228  2.1566  0.5879  2.3707
17312SOL    HW256622   9.542   5.956   9.346  0.3221  0.5762  0.9863
17313SOL     OW56623   7.776   8.569   1.716  0.4999  0.1855 -0.4071
17313SOL    HW156624   7.704   8.631   1.702 -0.4123 -0.8265 -0.2793
17313SOL    HW256625   7.844   8.622   1.758  0.5367  1.5770 -2.0981
17314SOL     OW56626   2.938   7.004   0.182  0.5411  0.0288 -0.1576
17314SOL    HW156627   2.957   6.928   0.238 -0.7520 -1.1372 -1.2012
17314SOL    HW256628   2.883   7.060   0.237  0.2908 -0.5035  0.1498
17315SOL     OW56629   2.997  11.134   3.712  0.6566  0.0933  0.1706
17315SOL    HW156630   2.944  11.064   3.673  1.5019 -0.6862  0.3942
17315SOL    HW256631   2.985  11.209   3.654 -0.2166 -0.2473 -0.1046
17316SOL     OW56632   1.446   7.319   3.604 -0.2654  0.1611 -0.3123
17316SOL    HW156633   1.424   7.325   3.697  0.8047  1.5186 -0.1042
17316SOL    HW256634   1.374   7.363   3.559 -1.5107 -1.7612 -0.2823
17317SOL     OW56635   0.799  11.059   9.877  0.2413 -0.8806  0.8931
17317SOL    HW156636   0.832  11.005   9.948 -2.1095 -0.2351  2.6044
17317SOL    HW256637   0.768  11.139   9.919  2.3966  1.3618 -1.3848
17318SOL     OW56638   6.757   6.101  10.366  0.3383  0.0220  0.1446
17318SOL    HW156639   6.783   6.027  10.421  0.7418 -1.6155 -2.1136
17318SOL    HW256640   6.754   6.176  10.426  2.6332 -1.2509  2.0143
17319SOL     OW56641   5.678   6.845   3.824  0.1558 -0.1500  1.1539
17319SOL    HW156642   5.766   6.834   3.859  0.1377  0.3242  1.3507
17319SOL    HW256643   5.640   6.917   3.875 -1.3481 -2.1447  3.0527
17320SOL     OW56644   4.828   3.015   4.994 -0.0423 -0.3261  0.1616
17320SOL    HW156645   4.757   2.951   4.990  0.1040 -0.4917  0.1640
17320SOL    HW256646   4.816   3.070   4.917  1.5186 -2.1619 -1.5026
17321SOL     OW56647  10.398   1.429   3.891  0.2632  0.1809 -0.1416
17321SOL    HW156648  10.450   1.455   3.967 -1.3419  1.5869  0.5184
17321SOL    HW256649  10.443   1.350   3.858  1.2251 -0.2429  1.9938
17322SOL     OW56650  10.915   9.097   8.744  0.2723  0.1697 -0.5696
17322SOL    HW156651  10.855   9.122   8.673 -0.6407  0.4938  0.2961
17322SOL    HW256652  10.964   9.177   8.763 -1.3589  0.8544  0.9518
17323SOL     OW56653   6.111   6.702   8.078  0.0594  0.6445 -0.3380
17323SOL    HW156654   6.148   6.630   8.130  0.2394  0.5759 -0.5569
17323SOL    HW256655   6.187   6.756   8.055  0.2505 -0.2354 -1.9541
17324SOL     OW56656   7.962   1.903   3.584  0.1658 -0.0303  0.2668
17324SOL    HW156657   7.972   1.875   3.675  0.5695  0.8344  0.5008
17324SOL    HW256658   7.880   1.954   3.584  0.1895  0.0075  0.1568
17325SOL     OW56659  10.193   2.656   9.250  0.4910 -0.1629  0.2624
17325SOL    HW156660  10.152   2.727   9.202 -0.1724  0.1567  1.2701
17325SOL    HW256661  10.248   2.699   9.315 -0.5284 -0.5250  1.4044
17326SOL     OW56662   9.326   4.128   5.625 -0.2219  0.7027  0.4008
17326SOL    HW156663   9.342   4.041   5.660 -2.9740 -0.7618 -1.5977
17326SOL    HW256664   9.298   4.180   5.700 -0.5238 -0.7144  1.3000
17327SOL     OW56665   8.442   0.654   4.881 -0.3721 -0.3741  0.0605
17327SOL    HW156666   8.391   0.735   4.885  1.7146  1.0143  0.6457
17327SOL    HW256667   8.467   0.646   4.789  0.6548  0.5297  0.2348
17328SOL     OW56668   0.916   8.340   8.154  0.3536 -0.2445 -0.1941
17328SOL    HW156669   0.965   8.273   8.106  0.2667  0.9898 -2.0944
17328SOL    HW256670   0.893   8.298   8.237 -1.5732 -3.4158 -2.1185
17329SOL     OW56671   2.122   5.923  11.559  0.3354 -0.2429  0.2464
17329SOL    HW156672   2.070   5.976  11.497  3.0502 -0.0097 -2.0533
17329SOL    HW256673   2.117   5.972  11.641 -1.4498  0.7827 -0.4015
17330SOL     OW56674   2.332   9.285  10.042  0.3460 -0.0297 -0.5689
17330SOL    HW156675   2.302   9.322   9.959 -0.3786 -0.8389 -0.6837
17330SOL    HW256676   2.358   9.361  10.094 -0.4981  0.5984 -1.0309
17331SOL     OW56677   4.499   6.081   7.800  0.0234  0.0754  0.1416
17331SOL    HW156678   4.514   6.003   7.854  1.1322  0.0651 -0.1694
17331SOL    HW256679   4.495   6.153   7.863  0.6169 -0.0259  0.3030
17332SOL     OW56680   2.725   3.803   4.327 -0.3701 -0.7925 -0.3104
17332SOL    HW156681   2.774   3.758   4.396 -1.4629 -1.8906 -0.2051
17332SOL    HW256682   2.707   3.735   4.262 -0.1149  0.0314 -1.2673
17333SOL     OW56683   6.518   8.798   1.189  0.1377 -1.0884  0.3211
17333SOL    HW156684   6.538   8.732   1.123  1.2209 -1.4795  1.0093
17333SOL    HW256685   6.584   8.866   1.176 -2.3206  1.0895 -1.8872
17334SOL     OW56686   3.470   1.284   2.558  0.2920  0.2251 -0.3872
17334SOL    HW156687   3.404   1.239   2.505  0.2331  1.8529 -1.7972
17334SOL    HW256688   3.553   1.256   2.521  0.2879  0.4669 -0.5815
17335SOL     OW56689   8.472  10.543   0.288 -0.0191 -0.1361  0.4258
17335SOL    HW156690   8.435  10.501   0.211  1.3571  0.5268 -0.6233
17335SOL    HW256691   8.555  10.498   0.303  0.2753  0.5205  0.8150
17336SOL     OW56692   5.441   9.916   5.549 -0.1145 -0.2132  0.0849
17336SOL    HW156693   5.375   9.957   5.604 -0.2260  1.0509 -0.9463
17336SOL    HW256694   5.398   9.903   5.464  0.2756 -1.4404  0.0546
17337SOL     OW56695   1.893  11.784   0.251 -0.7191 -0.1042 -0.2827
17337SOL    HW156696   1.980  11.762   0.283 -0.8376 -0.1852 -0.0128
17337SOL    HW256697   1.909  11.837   0.173 -0.4265  0.0632 -0.1113
17338SOL     OW56698  11.505  11.404   2.609  0.2173 -0.2887  0.7807
17338SOL    HW156699  11.442  11.397   2.680 -1.7392 -1.3956 -0.9399
17338SOL    HW256700  11.484  11.331   2.551  1.6878  0.5867 -0.9651
17339SOL     OW56701   2.410   2.258   2.832 -0.9966 -0.7901 -0.6022
17339SOL    HW156702   2.325   2.293   2.859 -1.2565  0.2908 -2.6783
17339SOL    HW256703   2.472   2.295   2.895 -1.8768 -0.4074  0.0548
17340SOL     OW56704   9.824   2.461   8.776 -0.7978 -0.0280 -0.1486
17340SOL    HW156705   9.749   2.499   8.730 -1.6728 -1.1933  0.2761
17340SOL    HW256706   9.892   2.455   8.709 -1.0767  1.0059 -0.5505
17341SOL     OW56707   3.348   4.198   7.271 -0.4847  0.0824 -0.2724
17341SOL    HW156708   3.330   4.105   7.276  3.5789 -0.9218 -0.7710
17341SOL    HW256709   3.379   4.222   7.359  0.6230  0.3714 -0.7219
17342SOL     OW56710   3.763   8.622   1.101  0.7504 -0.2789 -0.4991
17342SOL    HW156711   3.805   8.616   1.187  0.6110  0.0431 -0.4057
17342SOL    HW256712   3.720   8.538   1.088 -2.4996  0.8915  1.4452
17343SOL     OW56713   4.577   4.076   6.674 -0.4911 -1.3150 -0.3248
17343SOL    HW156714   4.601   4.117   6.757 -0.8500 -1.8384  0.0425
17343SOL    HW256715   4.641   4.110   6.612 -2.1682  1.7247 -0.6036
17344SOL     OW56716   8.953  10.696   1.307  0.1600  0.6666 -0.2168
17344SOL    HW156717   8.998  10.686   1.391  2.3846  2.6251 -1.0705
17344SOL    HW256718   9.021  10.724   1.246 -1.2960 -1.0857 -2.8389
17345SOL     OW56719   2.500  10.648   2.002  0.0807  0.1691  0.0703
17345SOL    HW156720   2.452  10.570   1.974  2.2156 -1.4642  0.6632
17345SOL    HW256721   2.559  10.668   1.929  2.5466 -1.4557  1.4504
17346SOL     OW56722   9.301   7.374   4.245 -0.7405 -0.3654 -0.2451
17346SOL    HW156723   9.268   7.462   4.226 -0.5618  0.0131  1.0995
17346SOL    HW256724   9.246   7.316   4.192 -2.3447  0.4040  0.4886
17347SOL     OW56725   8.450   5.431   2.841 -0.6946 -0.2680  0.4246
17347SOL    HW156726   8.449   5.368   2.913  1.7098  0.2028  0.9443
17347SOL    HW256727   8.473   5.380   2.764  0.8758 -0.1433  0.7782
17348SOL     OW56728  11.615   5.788   4.258 -0.9012  0.2689 -0.2286
17348SOL    HW156729  11.526   5.792   4.222 -0.6543 -1.1710 -1.0633
17348SOL    HW256730  11.621   5.702   4.298  0.5327 -0.2215 -1.4011
17349SOL     OW56731  10.251   5.807   2.855 -0.1250 -0.2239 -0.2583
17349SOL    HW156732  10.224   5.747   2.924  0.8863  0.2460  0.5798
17349SOL    HW256733  10.285   5.883   2.902 -1.2395  0.9508 -1.2977
17350SOL     OW56734   1.686   6.797   4.313  0.8093 -0.1339 -0.0973
17350SOL    HW156735   1.763   6.823   4.363  0.7820 -0.3695  0.0717
17350SOL    HW256736   1.644   6.730   4.368 -1.2586  2.1899  1.3931
17351SOL     OW56737   0.459   8.119   5.843  0.7248  0.5492 -0.2738
17351SOL    HW156738   0.413   8.187   5.793  1.8969  2.3920  0.9888
17351SOL    HW256739   0.392   8.054   5.862 -0.3879  1.1696 -1.8318
17352SOL     OW56740   8.218  11.703  10.108 -0.4374  0.4946  0.3286
17352SOL    HW156741   8.290  11.722  10.049 -1.0806  0.9927 -0.3095
17352SOL    HW256742   8.257  11.649  10.178  0.7208  1.4856  0.4640
17353SOL     OW56743   7.648  10.461   2.730  0.3522 -0.2286 -0.1068
17353SOL    HW156744   7.676  10.374   2.757 -2.0707 -1.4027 -1.0775
17353SOL    HW256745   7.561  10.448   2.693 -0.1004  2.6235 -0.2865
17354SOL     OW56746  10.421   1.073   7.558 -0.3456 -0.8173  0.1507
17354SOL    HW156747  10.363   1.140   7.595 -1.7516 -1.1135 -1.3989
17354SOL    HW256748  10.365   0.997   7.546  0.9446 -1.9032  0.7146
17355SOL     OW56749   8.715   3.644   6.391 -0.6949 -0.1532  0.1231
17355SOL    HW156750   8.739   3.621   6.480  0.2827 -0.0683 -0.1161
17355SOL    HW256751   8.788   3.696   6.357 -1.1416 -0.0022 -0.6582
17356SOL     OW56752   8.627   5.843   2.582  0.2521  0.0029 -0.3303
17356SOL    HW156753   8.696   5.821   2.645  0.2351 -1.7217 -0.8618
17356SOL    HW256754   8.664   5.915   2.530  0.8562  0.4335  0.6623
17357SOL     OW56755   3.033   2.716   3.241 -0.4407 -0.1355  0.3267
17357SOL    HW156756   3.099   2.785   3.235  0.1371 -0.4388  2.4141
17357SOL    HW256757   3.028   2.696   3.334 -1.2213 -2.3277 -0.1389
17358SOL     OW56758   2.691  11.590   2.967  0.2469 -0.7429  0.4107
17358SOL    HW156759   2.688  11.649   2.891 -0.0513 -1.0048  0.2128
17358SOL    HW256760   2.599  11.574   2.987  0.2833 -2.4534 -0.5771
17359SOL     OW56761   2.691   7.700   9.258  0.2301 -0.2142 -0.0232
17359SOL    HW156762   2.629   7.647   9.308 -0.7252  0.7847 -0.1096
17359SOL    HW256763   2.641   7.731   9.182  1.9159 -2.5402 -2.2724
17360SOL     OW56764   7.076  10.050   3.964 -0.3369  0.4671 -0.0412
17360SOL    HW156765   7.029  10.102   3.899 -4.1883 -2.4090  0.0845
17360SOL    HW256766   7.129   9.989   3.912  0.0209  1.0075 -0.3171
17361SOL     OW56767   7.619   3.622   7.156  0.1946  0.1965  0.2606
17361SOL    HW156768   7.554   3.559   7.188 -1.0878  1.0772 -0.5112
17361SOL    HW256769   7.703   3.587   7.186 -0.6671 -0.6952  1.7609
17362SOL     OW56770   6.087  11.106   3.821 -0.1206  0.3112 -0.2829
17362SOL    HW156771   6.021  11.052   3.866  2.6658 -1.9708  1.3906
17362SOL    HW256772   6.107  11.176   3.882  0.5117 -0.2524  0.1711
17363SOL     OW56773  11.883   6.669   4.490  0.2671  0.0438 -0.1479
17363SOL    HW156774  11.936   6.589   4.490  0.0258 -0.1160 -0.1012
17363SOL    HW256775  11.911   6.716   4.569 -1.7620 -1.4497  1.5675
17364SOL     OW56776  10.199  10.738   8.678  0.2681  0.1776 -0.4809
17364SOL    HW156777  10.191  10.826   8.717 -2.0818  1.2583 -3.0398
17364SOL    HW256778  10.122  10.691   8.711  0.6027 -0.3715 -0.4666
17365SOL     OW56779  10.557   1.123  11.125  0.4016 -0.1003 -0.8667
17365SOL    HW156780  10.520   1.091  11.043  0.7522 -1.3303 -0.5664
17365SOL    HW256781  10.651   1.126  11.110  0.3371  1.8751 -1.2304
17366SOL     OW56782  10.959   5.411  10.141 -0.0313  0.8933  0.3375
17366SOL    HW156783  10.907   5.486  10.169  0.3926  1.4656 -0.3624
17366SOL    HW256784  10.902   5.336  10.153 -1.1821  1.5472 -0.7669
17367SOL     OW56785   8.472   3.044   3.828 -0.2220 -0.6046 -0.3285
17367SOL    HW156786   8.558   3.044   3.870 -0.2862  0.5966 -0.1527
17367SOL    HW256787   8.443   2.953   3.831  0.6538 -0.8705  0.4209
17368SOL     OW56788   7.252   8.419  10.893 -0.0707 -0.4195  0.1548
17368SOL    HW156789   7.298   8.463  10.964 -0.5545 -1.0828  0.8966
17368SOL    HW256790   7.318   8.363  10.853  0.3315  0.3338 -0.2458
17369SOL     OW56791   1.224  10.393   8.194 -0.2417 -0.1296  0.1358
17369SOL    HW156792   1.249  10.387   8.102  0.9450 -1.1874  0.5016
17369SOL    HW256793   1.272  10.469   8.227 -1.2323  0.6978 -0.2600
17370SOL     OW56794   1.666   1.197   7.129 -0.2378 -0.0672 -0.1497
17370SOL    HW156795   1.637   1.162   7.044  0.8398 -2.4812  0.3971
17370SOL    HW256796   1.606   1.270   7.146 -0.9711 -0.0037 -2.6106
17371SOL     OW56797   6.275   1.297   8.400 -0.5461  0.4841  0.1434
17371SOL    HW156798   6.355   1.347   8.415  0.3376 -1.0667  0.9313
17371SOL    HW256799   6.222   1.312   8.479  0.2898 -0.7972  0.9831
17372SOL     OW56800   6.426   4.060   7.810  0.3402  0.2870 -0.0741
17372SOL    HW156801   6.406   3.967   7.813  1.2571  0.1029  0.4686
17372SOL    HW256802   6.472   4.078   7.892  0.8294  1.0640 -0.5064
17373SOL     OW56803   3.676   5.087   6.924  0.4760  0.1988 -0.2603
17373SOL    HW156804   3.598   5.083   6.868  0.5796 -1.2894 -0.3587
17373SOL    HW256805   3.742   5.038   6.875  0.7123 -0.7081  0.9355
17374SOL     OW56806   8.548  10.495   3.315  0.3059  0.4731 -0.1025
17374SOL    HW156807   8.508  10.543   3.388  0.5286  1.0718 -0.3717
17374SOL    HW256808   8.613  10.438   3.358  1.0821  1.4821  0.1045
17375SOL     OW56809   5.926   0.809  10.304 -0.5112 -0.0119  0.0927
17375SOL    HW156810   6.004   0.824  10.250 -1.1152 -1.0551 -1.1239
17375SOL    HW256811   5.957   0.819  10.394  0.9529 -0.0668 -0.3820
17376SOL     OW56812   2.421   5.552   2.311  0.3830  0.6321 -0.2639
17376SOL    HW156813   2.482   5.491   2.354 -0.4254 -0.7509 -1.0043
17376SOL    HW256814   2.443   5.545   2.218 -1.9531 -1.2142 -0.7702
17377SOL     OW56815   3.658   3.533  10.487  0.0418  1.0458 -0.0183
17377SOL    HW156816   3.609   3.553  10.407 -0.6235 -1.1155 -0.2161
17377SOL    HW256817   3.646   3.610  10.543 -2.2060  1.2721 -0.7123
17378SOL     OW56818  11.914   1.507   2.315  0.1338  0.1625 -0.4546
17378SOL    HW156819  11.981   1.490   2.381 -0.1473 -1.2802 -0.5112
17378SOL    HW256820  11.955   1.485   2.232  0.2229  1.1981 -0.6909
17379SOL     OW56821   0.044   5.432   9.624 -0.0021  0.7175 -0.1274
17379SOL    HW156822   0.096   5.510   9.643 -0.2060  0.7979  0.1050
17379SOL    HW256823  -0.041   5.467   9.595  0.1223  0.5891 -0.6523
17380SOL     OW56824   2.379   9.099   4.457  0.2791 -0.0428 -0.2457
17380SOL    HW156825   2.440   9.103   4.383  0.6423  0.5915  0.0788
17380SOL    HW256826   2.317   9.171   4.440 -0.2385 -0.5339 -0.4512
17381SOL     OW56827   3.090   8.504   6.023  0.5146 -0.3968 -0.3909
17381SOL    HW156828   3.117   8.474   5.936 -1.7380  0.0250 -1.2842
17381SOL    HW256829   3.012   8.452   6.043 -0.7076  1.5282  0.0789
17382SOL     OW56830  10.419   8.186   5.250 -0.4621 -0.2234 -0.6636
17382SOL    HW156831  10.485   8.235   5.299 -0.1689  0.4916 -1.7493
17382SOL    HW256832  10.380   8.127   5.315  1.2365 -0.6649  0.0021
17383SOL     OW56833   7.166   6.621   9.014  0.0599  0.0178 -0.2830
17383SOL    HW156834   7.100   6.552   9.019  0.6629 -0.5866 -0.4669
17383SOL    HW256835   7.184   6.630   8.921 -1.6218  2.0152 -0.4845
17384SOL     OW56836   9.952  11.135   5.034 -0.0448  0.1957  0.0913
17384SOL    HW156837   9.985  11.211   4.986  1.4038  0.2001  1.0225
17384SOL    HW256838   9.904  11.084   4.969 -0.2934  1.4637 -0.7465
17385SOL     OW56839   1.754   0.728   8.238  0.1233  0.1792 -0.5654
17385SOL    HW156840   1.739   0.634   8.229 -0.7228 -0.2232  3.3522
17385SOL    HW256841   1.672   0.767   8.208 -0.7727 -0.6101  0.7436
17386SOL     OW56842   1.046   9.794   3.810 -0.0650  0.5480  0.0849
17386SOL    HW156843   1.057   9.877   3.764 -1.2951  0.2273 -0.8553
17386SOL    HW256844   0.955   9.797   3.841  0.1388 -0.1034  0.7674
17387SOL     OW56845  11.534   9.874   8.086 -0.0605 -0.3651  0.2527
17387SOL    HW156846  11.516   9.818   8.010 -1.2558 -0.0539  0.2883
17387SOL    HW256847  11.589   9.945   8.052 -1.5913  0.4464 -0.6180
17388SOL     OW56848   8.252   4.633   2.888  0.0002  0.2397 -0.4332
17388SOL    HW156849   8.219   4.722   2.896 -0.9753 -0.1739  0.4104
17388SOL    HW256850   8.305   4.621   2.967 -1.5397 -0.5768  0.5302
17389SOL     OW56851  11.484   9.576   1.341 -0.4715  0.0040  0.2480
17389SOL    HW156852  11.514   9.666   1.331 -0.7201  0.0592 -0.0116
17389SOL    HW256853  11.402   9.584   1.391 -0.1937 -0.1253  0.7351
17390SOL     OW56854   7.117   3.486   7.841 -0.0303 -0.4598  0.1472
17390SOL    HW156855   7.101   3.578   7.821 -0.4913 -1.3280 -4.4532
17390SOL    HW256856   7.032   3.444   7.834  0.5496 -1.6024 -0.2935
17391SOL     OW56857   8.410   7.572  10.625  0.3406  0.2604 -0.4823
17391SOL    HW156858   8.452   7.541  10.545  1.5223 -1.0238  0.5792
17391SOL    HW256859   8.321   7.536  10.620  1.0235 -1.5899 -0.3025
17392SOL     OW56860   9.359  10.142   8.561  0.7279  0.1653 -0.8795
17392SOL    HW156861   9.402  10.118   8.643 -0.9698  0.4468  0.1287
17392SOL    HW256862   9.324  10.229   8.576  1.2996  0.6690 -2.2956
17393SOL     OW56863   3.931  10.366   3.162 -0.4371 -0.2590 -0.0042
17393SOL    HW156864   3.941  10.308   3.087  1.6350 -0.7373  0.5784
17393SOL    HW256865   3.979  10.445   3.138 -1.5725  0.4426 -0.0117
17394SOL     OW56866   3.053   3.051   3.517  0.0943 -0.2948  0.1494
17394SOL    HW156867   3.011   3.076   3.435 -1.3669  2.3087  1.5434
17394SOL    HW256868   3.035   3.124   3.576  0.2120 -2.4715  3.1016
17395SOL     OW56869   1.822   8.093   6.336  0.0124 -0.2839 -0.3857
17395SOL    HW156870   1.793   8.092   6.245 -0.7951  1.4979 -0.1861
17395SOL    HW256871   1.870   8.175   6.345 -1.8909  0.7530  1.3201
17396SOL     OW56872  10.685   1.037   5.288 -0.6544 -0.2187 -0.3191
17396SOL    HW156873  10.661   0.955   5.332  0.5031 -0.2301  0.3334
17396SOL    HW256874  10.774   1.022   5.256 -1.6121 -0.3892 -3.2015
17397SOL     OW56875   3.230   5.663   4.628  0.3215 -0.4800 -0.7903
17397SOL    HW156876   3.258   5.744   4.585 -0.6166  0.4046  0.2048
17397SOL    HW256877   3.310   5.626   4.665  0.6581  0.3883 -0.6259
17398SOL     OW56878   7.551   0.881   7.712  0.7349  0.3746  0.4819
17398SOL    HW156879   7.584   0.820   7.777 -1.5184  0.5867  1.9231
17398SOL    HW256880   7.487   0.830   7.662 -0.9884  1.4086  1.5426
17399SOL     OW56881   2.241   2.911   9.976  0.1009  0.1403  0.5328
17399SOL    HW156882   2.206   2.997   9.952 -0.1357 -0.3000 -0.7739
17399SOL    HW256883   2.270   2.922  10.066  1.1874  1.9512  0.0309
17400SOL     OW56884   2.024   5.422   0.059  0.2091 -0.3055  0.2768
17400SOL    HW156885   2.027   5.331   0.029  0.7772 -1.0086  2.2810
17400SOL    HW256886   2.006   5.473  -0.019 -1.1816 -2.2355 -0.7272
17401SOL     OW56887   0.970   7.733   6.881 -0.8666  0.0311 -0.2048
17401SOL    HW156888   0.887   7.756   6.922 -0.3270  1.2314  0.2535
17401SOL    HW256889   1.036   7.752   6.947 -0.3130 -2.4958  0.0412
17402SOL     OW56890   3.267  10.182  11.393 -0.0830 -0.5382 -0.5908
17402SOL    HW156891   3.278  10.129  11.314 -1.1058 -1.6578 -0.0252
17402SOL    HW256892   3.325  10.142  11.457 -1.6688 -1.7736  0.1738
17403SOL     OW56893  10.327   2.758   2.362  0.3023 -0.0935  0.8194
17403SOL    HW156894  10.344   2.823   2.431 -1.1386  0.9356  0.2402
17403SOL    HW256895  10.248   2.712   2.391 -0.2808  0.3073 -0.1091
17404SOL     OW56896   4.966   9.314   9.102 -0.1649 -0.0806 -0.1930
17404SOL    HW156897   5.017   9.394   9.110  0.7375 -0.2700 -3.0051
17404SOL    HW256898   4.875   9.344   9.106  0.1531  0.9154 -0.0482
17405SOL     OW56899  10.435  11.991   7.669  0.3452 -0.6080  0.2884
17405SOL    HW156900  10.513  11.966   7.718 -0.4134 -2.1765  0.7813
17405SOL    HW256901  10.368  11.927   7.697 -0.5379 -0.5950 -1.6362
17406SOL     OW56902   3.827   9.310   0.000  0.2505  0.4677  0.2780
17406SOL    HW156903   3.806   9.238   0.060  1.4952 -0.2178 -0.0817
17406SOL    HW256904   3.761   9.377   0.019 -0.9697 -0.7875  0.5752
17407SOL     OW56905   8.849   8.873  11.966 -0.1265  0.4715  0.3584
17407SOL    HW156906   8.771   8.835  11.925 -0.0103 -2.3035  2.4093
17407SOL    HW256907   8.819   8.958  11.999 -1.6598  0.3942 -0.7182
17408SOL     OW56908  11.330   0.190   0.313 -0.3566  0.4086 -0.1357
17408SOL    HW156909  11.257   0.191   0.250  0.6754 -0.3934 -1.4031
17408SOL    HW256910  11.399   0.140   0.268  0.0584 -1.1192  2.0603
17409SOL     OW56911   1.456   3.906   0.286  0.2002  0.8426  0.4924
17409SOL    HW156912   1.504   3.828   0.311 -0.3538  0.7539  1.3427
17409SOL    HW256913   1.469   3.967   0.359 -0.7468  0.9103  0.6259
17410SOL     OW56914   3.470   4.292  11.272 -0.2564  0.0304  0.2547
17410SOL    HW156915   3.426   4.257  11.194  2.0659 -0.0267 -1.1163
17410SOL    HW256916   3.542   4.230  11.289  0.0559  0.7361  1.6879
17411SOL     OW56917   3.696   1.655   3.571 -0.2773  0.3317  0.4357
17411SOL    HW156918   3.656   1.704   3.499 -0.8803  0.4180  0.8295
17411SOL    HW256919   3.744   1.721   3.620 -0.9200  0.4991  0.8470
17412SOL     OW56920   9.703   2.596   8.177  0.3391 -0.1527  0.1833
17412SOL    HW156921   9.662   2.653   8.112 -0.7721 -2.9872 -1.8342
17412SOL    HW256922   9.789   2.575   8.140  0.5544 -0.1819  0.6820
17413SOL     OW56923   8.356   1.391   5.667 -0.1911  0.4882 -0.4930
17413SOL    HW156924   8.269   1.407   5.703 -0.6807 -1.1286 -0.8946
17413SOL    HW256925   8.416   1.421   5.736 -1.0937 -0.3086  0.6764
17414SOL     OW56926   0.555   0.317   8.879  0.0027 -0.2557  0.1904
17414SOL    HW156927   0.464   0.338   8.858 -0.0891 -1.2993 -0.5705
17414SOL    HW256928   0.604   0.342   8.800  0.2874 -0.2046  0.3839
17415SOL     OW56929   7.136   9.431   7.218 -0.2156  0.4245  0.1195
17415SOL    HW156930   7.098   9.491   7.282 -1.0147  0.0328  0.0126
17415SOL    HW256931   7.230   9.449   7.223 -0.0164 -0.8976  2.7451
17416SOL     OW56932   4.414   5.090   5.865  0.1262  0.5926  0.2037
17416SOL    HW156933   4.480   5.131   5.810 -0.2150  1.6539  0.5411
17416SOL    HW256934   4.461   5.066   5.945  0.2967  0.5017  0.0751
17417SOL     OW56935   6.141   9.781   7.665  0.5321  0.0599 -0.2093
17417SOL    HW156936   6.204   9.849   7.689 -0.8098  1.0161  0.7886
17417SOL    HW256937   6.136   9.726   7.743  0.7174 -0.4780 -0.5765
17418SOL     OW56938   0.446   0.380   5.220 -0.0949  0.0689 -0.2879
17418SOL    HW156939   0.406   0.314   5.277 -1.0075  1.3989  0.6661
17418SOL    HW256940   0.379   0.399   5.154 -1.1934  2.3379  1.3435
17419SOL     OW56941   4.190  11.894   4.639 -0.7033  0.6400 -0.4551
17419SOL    HW156942   4.233  11.896   4.724 -2.0384 -0.2963  0.2797
17419SOL    HW256943   4.097  11.904   4.659 -1.4124 -2.6385 -1.4476
17420SOL     OW56944   7.375   9.063   8.510 -0.2510  0.6071 -0.0319
17420SOL    HW156945   7.381   9.154   8.538  0.8581  0.5954 -0.1892
17420SOL    HW256946   7.361   9.014   8.592 -0.7864  0.9078  0.0583
17421SOL     OW56947   4.420   1.999   7.392  0.2352 -0.7541  0.0265
17421SOL    HW156948   4.326   1.978   7.388  0.6147 -2.4128 -1.3917
17421SOL    HW256949   4.423   2.092   7.414 -1.7181 -0.8360  0.8323
17422SOL     OW56950   9.738   0.833  10.904 -0.4867  0.6563  0.3302
17422SOL    HW156951   9.676   0.897  10.939 -0.9419 -0.1279  0.9767
17422SOL    HW256952   9.746   0.856  10.811 -1.5468  0.9315  0.2972
17423SOL     OW56953   0.932   7.544   8.739  0.1893 -0.8719  0.1910
17423SOL    HW156954   0.851   7.497   8.718 -0.8554  0.9104  0.0142
17423SOL    HW256955   0.902   7.631   8.767  2.0524 -0.1251 -0.0283
17424SOL     OW56956   8.529  11.429   8.968 -0.2899 -0.3878 -0.0056
17424SOL    HW156957   8.608  11.467   9.007  0.1529 -1.7601  0.4922
17424SOL    HW256958   8.534  11.336   8.990 -1.7440 -0.6017 -0.4976
17425SOL     OW56959   4.414   0.100   3.395  0.0343  0.2146  0.2542
17425SOL    HW156960   4.371   0.185   3.391 -2.3525 -0.7707  2.4073
17425SOL    HW256961   4.343   0.036   3.394  1.6605 -1.7110  0.2102
17426SOL     OW56962   5.888   5.773   6.478  0.2955 -0.1998 -0.3487
17426SOL    HW156963   5.829   5.707   6.441  0.3252 -1.1759  1.2640
17426SOL    HW256964   5.897   5.749   6.570  0.9008  1.6433  0.1241
17427SOL     OW56965   6.397  11.755   8.818  0.4913  0.0472  0.2587
17427SOL    HW156966   6.333  11.689   8.792 -0.7549  1.5100 -0.5637
17427SOL    HW256967   6.471  11.741   8.759 -1.0811  1.3742 -2.2414
17428SOL     OW56968   0.728   3.857   1.725 -0.0337  0.4915 -0.4197
17428SOL    HW156969   0.653   3.835   1.780 -0.3888  0.1204 -1.0380
17428SOL    HW256970   0.772   3.928   1.772 -0.3917  0.2664  0.2795
17429SOL     OW56971   4.184   4.088   3.823 -0.0640  0.2473 -0.2379
17429SOL    HW156972   4.129   4.139   3.763 -0.1221  3.1744  2.1057
17429SOL    HW256973   4.272   4.092   3.785 -0.6419 -0.8220 -1.7854
17430SOL     OW56974   0.351   3.686   9.265 -0.1900 -0.1232  0.1993
17430SOL    HW156975   0.408   3.730   9.201 -1.0951 -1.3788 -1.5401
17430SOL    HW256976   0.277   3.654   9.214 -0.6409 -1.7761  1.7759
17431SOL     OW56977  10.462   1.135   9.771 -0.9111  0.3548 -0.9942
17431SOL    HW156978  10.491   1.081   9.844 -1.7626  2.7836  1.3208
17431SOL    HW256979  10.469   1.079   9.694  2.0477 -1.6850  0.5966
17432SOL     OW56980   5.251   1.228   9.685 -0.0621 -0.4833 -0.0329
17432SOL    HW156981   5.198   1.252   9.609 -1.4354  1.2833  1.3969
17432SOL    HW256982   5.232   1.136   9.700 -0.9446 -0.4556 -0.9250
17433SOL     OW56983  11.999   3.803   8.117 -0.1930 -0.3942 -0.0541
17433SOL    HW156984  11.973   3.745   8.188  0.3922 -0.9662 -0.2964
17433SOL    HW256985  11.944   3.881   8.128  0.2093 -0.2748  1.3002
17434SOL     OW56986   8.274   6.379   8.415  0.2014 -0.2216 -0.4272
17434SOL    HW156987   8.350   6.333   8.377  1.3552 -0.5373  2.0461
17434SOL    HW256988   8.299   6.471   8.412  0.6389 -0.3099  0.2199
17435SOL     OW56989  10.286   5.274  10.810 -0.3696 -0.7191 -1.0162
17435SOL    HW156990  10.369   5.310  10.843 -0.7656 -0.1230 -0.6250
17435SOL    HW256991  10.252   5.343  10.752 -1.0773 -0.5062 -0.3648
17436SOL     OW56992   6.205   9.594   1.975 -0.0709 -0.1775 -0.6325
17436SOL    HW156993   6.143   9.525   1.997  0.1866 -0.2932 -0.2576
17436SOL    HW256994   6.266   9.553   1.914 -0.0156 -0.2333 -0.5400
17437SOL     OW56995   0.096   6.537   3.114  0.1752 -0.1605 -0.3098
17437SOL    HW156996   0.026   6.531   3.178  1.4612  0.0723  1.1770
17437SOL    HW256997   0.052   6.558   3.032 -1.4051  0.7031  0.7170
17438SOL     OW56998  10.586  10.147   8.834 -0.0017  0.6640  0.6952
17438SOL    HW156999  10.661  10.204   8.821  1.2232 -1.2194 -1.0462
17438SOL    HW257000  10.564  10.116   8.746 -0.6542 -1.4851  1.5649
17439SOL     OW57001   9.891  11.241   6.609  0.1179  0.2436 -0.2998
17439SOL    HW157002   9.903  11.223   6.516 -0.3331  3.1094 -0.9985
17439SOL    HW257003   9.910  11.335   6.618 -0.3968  0.1669  2.4113
17440SOL     OW57004   6.819   0.394   0.029 -0.4456 -0.0951  1.1432
17440SOL    HW157005   6.819   0.487   0.007  0.2513 -0.3559 -0.0368
17440SOL    HW257006   6.727   0.367   0.017 -0.0875 -0.3047 -2.0464
17441SOL     OW57007  10.159   1.678   6.142 -0.1061  0.2755  0.6618
17441SOL    HW157008  10.250   1.667   6.117 -0.3625 -0.0581 -0.1445
17441SOL    HW257009  10.161   1.681   6.238  0.4278 -2.9944  0.8641
17442SOL     OW57010   2.850   9.584   8.286  0.1162 -0.3755 -0.4291
17442SOL    HW157011   2.910   9.562   8.214 -0.1365 -0.5140 -0.5996
17442SOL    HW257012   2.838   9.502   8.333  0.0043 -0.3652 -0.4389
17443SOL     OW57013   6.982   0.472   2.372 -0.0978  0.2132 -0.2823
17443SOL    HW157014   7.025   0.422   2.303  0.3937 -0.1523  0.2809
17443SOL    HW257015   7.048   0.534   2.403 -0.4586  0.6903 -0.4413
17444SOL     OW57016   3.438   9.279   6.151 -0.0183  0.5466  0.3454
17444SOL    HW157017   3.359   9.225   6.152 -1.1710  2.0278 -2.0469
17444SOL    HW257018   3.465   9.284   6.243 -1.0168 -2.3428  0.8913
17445SOL     OW57019   1.439   2.931   5.544 -0.0162 -0.4375 -0.1806
17445SOL    HW157020   1.523   2.961   5.579  0.5675  0.2035 -2.0124
17445SOL    HW257021   1.376   2.996   5.574  0.2895 -0.4213  0.4481
17446SOL     OW57022   0.284   1.597   1.472  0.0045  0.4461 -0.0002
17446SOL    HW157023   0.292   1.550   1.389 -1.0284  2.1045 -1.0957
17446SOL    HW257024   0.365   1.577   1.518  0.5416 -0.6357 -1.3367
17447SOL     OW57025   0.785   2.155   2.467  0.5535  0.9608  0.2038
17447SOL    HW157026   0.765   2.125   2.378  0.5464  0.2102  0.4460
17447SOL    HW257027   0.747   2.242   2.473 -0.6327  0.4821 -0.0969
17448SOL     OW57028   0.424   9.429   5.817 -0.1724  0.5501 -0.0350
17448SOL    HW157029   0.451   9.402   5.729  1.1073  1.0549  0.1691
17448SOL    HW257030   0.455   9.520   5.825 -0.3938  0.5591  0.8867
17449SOL     OW57031   4.101  10.775   6.646  0.0845 -0.0020 -0.6109
17449SOL    HW157032   4.078  10.707   6.709 -1.9029  0.8214 -0.3846
17449SOL    HW257033   4.018  10.815   6.622  1.0950  1.6620 -1.5331
17450SOL     OW57034   5.156  11.487  11.345 -0.8343  0.4224 -0.2717
17450SOL    HW157035   5.169  11.431  11.268  1.1901  1.2515 -0.5814
17450SOL    HW257036   5.244  11.501  11.380 -1.3264  2.9763  0.0969
17451SOL     OW57037  10.452   5.174   0.697  0.3538  0.7299 -0.5653
17451SOL    HW157038  10.385   5.106   0.685  0.6491  0.4306 -0.5253
17451SOL    HW257039  10.453   5.221   0.614 -0.0763  0.8903 -0.4841
17452SOL     OW57040   0.679   4.852   5.568  0.2305  0.4212 -0.1657
17452SOL    HW157041   0.728   4.918   5.617 -0.0358  1.7403 -1.6066
17452SOL    HW257042   0.723   4.847   5.483 -1.7221  1.1744 -1.2640
17453SOL     OW57043   6.375   5.821   3.708  0.6916 -0.3003  0.6238
17453SOL    HW157044   6.436   5.842   3.637 -1.2012  1.1951 -0.6740
17453SOL    HW257045   6.346   5.906   3.741 -2.6711 -0.8042 -0.6621
17454SOL     OW57046   1.570   3.059   2.143 -0.9486  0.2278 -0.3234
17454SOL    HW157047   1.588   3.141   2.188  1.0319 -0.3323  0.0062
17454SOL    HW257048   1.477   3.044   2.156 -0.7580  0.8794  2.2702
17455SOL     OW57049   4.692  10.710   2.018 -0.1170  0.8260 -0.2392
17455SOL    HW157050   4.728  10.795   1.995 -1.5164  1.5165  0.0277
17455SOL    HW257051   4.648  10.724   2.102 -0.3853 -0.1616 -0.1934
17456SOL     OW57052   3.396   1.939   2.429  0.3193 -0.3345  0.3030
17456SOL    HW157053   3.448   1.916   2.352 -0.5096 -1.2840  0.0109
17456SOL    HW257054   3.457   1.930   2.503  0.6170 -1.2751 -0.0492
17457SOL     OW57055  10.143   9.532   2.388 -0.1777 -0.4892 -0.2960
17457SOL    HW157056  10.097   9.616   2.397  1.8487  0.4878  1.9536
17457SOL    HW257057  10.218   9.552   2.332  0.0886 -0.8972 -0.0873
17458SOL     OW57058   3.943   6.937  10.130  0.4440 -0.3569  0.1285
17458SOL    HW157059   4.026   6.890  10.128  0.5866 -0.1377  0.7010
17458SOL    HW257060   3.909   6.923  10.218 -0.9974 -1.9266 -0.6255
17459SOL     OW57061   0.398   8.840  11.278  0.2579  0.1543  0.1493
17459SOL    HW157062   0.384   8.896  11.202 -0.8776  1.9342  1.5772
17459SOL    HW257063   0.310   8.822  11.311  0.6659 -1.6650  0.3241
17460SOL     OW57064   7.783   2.713   9.369 -0.6244 -0.8328 -0.0739
17460SOL    HW157065   7.802   2.721   9.275 -1.9722 -0.5550 -0.3395
17460SOL    HW257066   7.718   2.643   9.374 -3.5074  1.6629  0.1843
17461SOL     OW57067   4.392   5.198  10.480 -0.0706  0.0448 -0.1265
17461SOL    HW157068   4.351   5.266  10.426 -2.5809 -1.6377 -0.5321
17461SOL    HW257069   4.326   5.179  10.547  1.5886 -0.3245  1.4860
17462SOL     OW57070   9.388  11.452   4.395  0.0655  0.0175 -0.0506
17462SOL    HW157071   9.336  11.389   4.345  0.5683  0.6223 -1.3938
17462SOL    HW257072   9.381  11.534   4.346 -0.4584  1.0089  1.5896
17463SOL     OW57073  11.385   3.739   3.019 -0.1343 -0.1624 -0.0104
17463SOL    HW157074  11.357   3.725   2.928  0.8900  0.9868 -0.5346
17463SOL    HW257075  11.456   3.803   3.012  0.7155 -0.8894  1.5072
17464SOL     OW57076   4.661   6.980   4.612  0.3784 -0.0155  0.0799
17464SOL    HW157077   4.737   7.029   4.644  0.8750 -0.0998 -0.9277
17464SOL    HW257078   4.616   6.951   4.691  1.4044  0.0244  0.6973
17465SOL     OW57079   2.028  10.737   0.116 -0.2221  0.8894 -0.1306
17465SOL    HW157080   2.009  10.717   0.024  1.7642 -2.2951  0.0071
17465SOL    HW257081   2.117  10.770   0.116 -0.0094  0.3488  0.6825
17466SOL     OW57082   0.063   1.205  10.617 -0.6597  0.2792 -0.1652
17466SOL    HW157083   0.097   1.148  10.686 -0.9189 -0.6525 -0.7783
17466SOL    HW257084   0.039   1.144  10.547 -0.0707  1.2211 -1.2176
17467SOL     OW57085  11.275   7.003   4.608  0.1095 -0.8943 -0.1204
17467SOL    HW157086  11.266   7.064   4.535  2.7155 -1.1752 -0.7642
17467SOL    HW257087  11.269   6.916   4.569  1.4002 -1.0453 -0.0326
17468SOL     OW57088   9.790   9.928   0.983  0.1217 -0.2476 -0.0840
17468SOL    HW157089   9.713   9.977   0.954  0.7283  0.2623 -0.8721
17468SOL    HW257090   9.864   9.982   0.955  0.7743 -0.9714  0.2269
17469SOL     OW57091   7.620   4.203   7.442  0.2014 -0.1533 -0.3791
17469SOL    HW157092   7.630   4.232   7.532 -0.4738 -0.4560 -0.2047
17469SOL    HW257093   7.664   4.119   7.438 -0.8294 -0.7275 -0.0115
17470SOL     OW57094   2.733   0.157   4.454 -0.2892  0.0794  0.4873
17470SOL    HW157095   2.695   0.235   4.495  0.3671  0.8826 -0.3872
17470SOL    HW257096   2.807   0.135   4.510 -0.6706 -0.1118  0.9192
17471SOL     OW57097   3.317   1.166   8.768  0.4609  0.2709 -0.7714
17471SOL    HW157098   3.375   1.241   8.775  1.8973 -0.8249 -0.4944
17471SOL    HW257099   3.290   1.148   8.858  1.2925 -0.4032 -0.6396
17472SOL     OW57100   3.922  11.345   7.534 -0.7316 -0.1964  0.3233
17472SOL    HW157101   3.874  11.296   7.467 -0.1128 -0.3718 -0.0010
17472SOL    HW257102   3.855  11.398   7.578 -1.1867 -0.2923 -0.2426
17473SOL     OW57103   6.831   5.228  11.044  0.0255  0.0482  0.4259
17473SOL    HW157104   6.803   5.261  11.129  2.2951  0.6801  1.0077
17473SOL    HW257105   6.864   5.305  10.997  0.4642 -0.5616 -0.3044
17474SOL     OW57106   9.617   1.997   9.503 -0.6566  0.3379  0.0759
17474SOL    HW157107   9.657   1.919   9.466  4.2206  1.8551  1.3724
17474SOL    HW257108   9.616   2.061   9.431 -4.3432 -0.5638 -0.8942
17475SOL     OW57109   3.108   8.245   3.140 -0.1582 -0.1742 -0.4823
17475SOL    HW157110   3.035   8.258   3.200 -1.0818  1.3721 -1.8503
17475SOL    HW257111   3.097   8.154   3.110 -1.3992 -0.0464 -0.4817
17476SOL     OW57112   2.417   3.822   1.595  0.1213  0.1640  0.2129
17476SOL    HW157113   2.473   3.779   1.530 -0.0369 -0.7316  0.6528
17476SOL    HW257114   2.476   3.844   1.667  0.1534  0.4540  0.0994
17477SOL     OW57115   3.097   5.214   3.574  0.1397  0.1617 -0.1565
17477SOL    HW157116   3.187   5.228   3.603 -0.6871  0.7956  2.3172
17477SOL    HW257117   3.105   5.160   3.495  2.6039 -1.3737  1.0507
17478SOL     OW57118   6.492   5.697   7.896  0.4981 -0.0901  0.1897
17478SOL    HW157119   6.452   5.621   7.854 -2.8580  3.0042 -2.9264
17478SOL    HW257120   6.433   5.718   7.969  0.6779  0.2862  0.2278
17479SOL     OW57121  10.592   9.842   5.482 -0.3373  0.8623  0.4563
17479SOL    HW157122  10.522   9.782   5.456 -1.4495  0.4457  3.9005
17479SOL    HW257123  10.613   9.817   5.572  4.0730  1.2263 -0.2449
17480SOL     OW57124   5.565   1.072   3.992  0.5153 -0.1583  0.1767
17480SOL    HW157125   5.495   1.086   3.929  2.4280 -1.8920 -2.5991
17480SOL    HW257126   5.629   1.141   3.973  0.1062  0.7555  1.9331
17481SOL     OW57127   1.698   6.186   0.529  0.1132 -0.1684  0.1148
17481SOL    HW157128   1.750   6.240   0.588 -0.8812  1.4587 -0.4357
17481SOL    HW257129   1.762   6.142   0.473  0.9442  1.7382 -0.5152
17482SOL     OW57130   0.153  11.905   7.972 -0.1884  0.3653 -0.4607
17482SOL    HW157131   0.129  11.908   8.065 -1.1050  2.0857 -0.7189
17482SOL    HW257132   0.096  11.839   7.934  0.3003 -0.4637  0.2081
17483SOL     OW57133   7.086   9.215   8.129  0.2362 -0.1938 -0.0558
17483SOL    HW157134   7.164   9.262   8.101 -0.0491 -0.9992 -2.4057
17483SOL    HW257135   7.114   9.163   8.204  1.9987 -0.5489 -0.9190
17484SOL     OW57136   5.861  11.868   3.455 -0.3029 -0.3374  0.9860
17484SOL    HW157137   5.852  11.934   3.387  1.3515  1.4613  2.4047
17484SOL    HW257138   5.780  11.817   3.449 -0.7398  0.5097 -1.4857
17485SOL     OW57139   3.113  10.569   5.922 -0.7816  0.8008  0.1291
17485SOL    HW157140   3.143  10.523   5.844 -2.6677  1.3925 -1.0051
17485SOL    HW257141   3.075  10.500   5.977 -1.5542  0.6761 -0.5439
17486SOL     OW57142   2.287  11.365   6.486 -0.8224  0.0482 -0.1764
17486SOL    HW157143   2.339  11.436   6.450  0.4731  0.8167  2.9101
17486SOL    HW257144   2.202  11.405   6.506 -0.1588  0.7721  1.3783
17487SOL     OW57145  11.293   2.440   6.458 -0.0568  0.2931 -0.1138
17487SOL    HW157146  11.360   2.494   6.416 -0.9619  1.6189  0.0700
17487SOL    HW257147  11.341   2.368   6.497  1.1525  0.7038 -0.7775
17488SOL     OW57148   4.259   2.457  11.613 -0.1007  0.2026 -0.2968
17488SOL    HW157149   4.325   2.411  11.561 -0.6606 -1.4309  0.3739
17488SOL    HW257150   4.178   2.407  11.599 -0.2642 -0.3766  2.1665
17489SOL     OW57151   2.619   6.143  10.425 -0.1113  0.0049  0.1300
17489SOL    HW157152   2.530   6.116  10.400  0.2665 -0.9398 -0.2105
17489SOL    HW257153   2.635   6.096  10.507  0.0971  0.1540  0.1744
17490SOL     OW57154   8.319   8.222   0.160  0.4626  0.4029  0.0585
17490SOL    HW157155   8.256   8.292   0.178  0.0673  0.1291 -0.2310
17490SOL    HW257156   8.389   8.235   0.224 -0.4676 -0.0117  1.1986
17491SOL     OW57157   4.526   9.985   7.989  0.5186 -0.0477  0.3163
17491SOL    HW157158   4.604   9.985   7.933  0.9081  1.6692  0.7915
17491SOL    HW257159   4.559  10.009   8.076 -0.5584  1.0051  0.4548
17492SOL     OW57160   7.889   7.654   4.584  0.4216  0.4359 -0.7572
17492SOL    HW157161   7.902   7.562   4.561  1.4547  0.6282 -1.0127
17492SOL    HW257162   7.832   7.688   4.515 -1.4077 -0.3999  0.2783
17493SOL     OW57163   1.852   4.998   1.913  0.1389 -0.4960 -0.6156
17493SOL    HW157164   1.769   4.986   1.959 -0.9315  2.4886 -1.4951
17493SOL    HW257165   1.828   5.049   1.835  2.8661  1.1271 -0.4958
17494SOL     OW57166   3.875  10.019   2.382 -0.7913 -0.5203  0.4184
17494SOL    HW157167   3.933   9.979   2.447  0.5009  0.9757  0.2531
17494SOL    HW257168   3.822  10.080   2.432 -2.7926 -2.3482  0.6772
17495SOL     OW57169   4.933   3.118   9.284 -0.1490  0.7251  0.1777
17495SOL    HW157170   4.898   3.207   9.282 -0.7826  0.4768 -0.6732
17495SOL    HW257171   5.022   3.128   9.318 -0.1690  1.7000 -0.0167
17496SOL     OW57172   7.826  11.410   2.943 -0.1943 -0.9378 -0.0783
17496SOL    HW157173   7.751  11.373   2.990 -0.2765  0.2792  0.7815
17496SOL    HW257174   7.791  11.488   2.899  0.7162  0.0948  0.9722
17497SOL     OW57175   2.652   2.807  10.501 -0.5631 -0.6898  0.7475
17497SOL    HW157176   2.603   2.872  10.450 -1.3435 -1.7727  0.0569
17497SOL    HW257177   2.741   2.841  10.504 -1.1337  0.8541  1.1954
17498SOL     OW57178  11.742   6.878   6.273  0.5831  0.1342  0.3415
17498SOL    HW157179  11.755   6.794   6.229 -2.9360  0.1366 -1.0444
17498SOL    HW257180  11.700   6.855   6.356  1.2923  0.4534  0.7930
17499SOL     OW57181   3.738   3.420   7.899 -0.3954 -0.6855 -0.3227
17499SOL    HW157182   3.791   3.344   7.877 -0.4018 -1.3821  1.7998
17499SOL    HW257183   3.797   3.495   7.892  0.2974 -1.1998 -0.0135
17500SOL     OW57184   8.511   8.958   1.493  0.4839  0.0620 -0.1179
17500SOL    HW157185   8.507   9.012   1.414  0.0811 -0.2326 -0.3022
17500SOL    HW257186   8.576   9.002   1.548  1.5667 -0.3194 -1.0481
17501SOL     OW57187   3.721  11.186   1.026 -0.5840  0.2609  0.8549
17501SOL    HW157188   3.791  11.143   1.076 -0.6405 -1.0354 -0.1369
17501SOL    HW257189   3.644  11.131   1.042 -0.5739 -0.2420 -0.7253
17502SOL     OW57190   3.420   0.253   2.505 -0.2017  0.5288 -0.0651
17502SOL    HW157191   3.495   0.214   2.461  0.8244  2.9316 -0.5759
17502SOL    HW257192   3.453   0.280   2.591 -0.7044  0.8225  0.0437
17503SOL     OW57193   9.125   6.773   1.557 -0.4519  0.2970 -0.2648
17503SOL    HW157194   9.045   6.815   1.590 -1.9006 -1.3318 -1.4995
17503SOL    HW257195   9.182   6.768   1.634 -1.3592  1.8308  0.5739
17504SOL     OW57196   5.982   2.223  11.965 -0.1005  0.5040  0.0992
17504SOL    HW157197   5.902   2.263  11.932 -0.3065  0.8471  0.9696
17504SOL    HW257198   5.951   2.156  12.027  0.2609 -0.3995 -0.6711
17505SOL     OW57199   1.429   0.481   5.979  0.3375  0.2667 -0.1006
17505SOL    HW157200   1.343   0.488   6.021 -1.6523  0.9788 -3.8372
17505SOL    HW257201   1.416   0.418   5.908  2.4009  1.5997 -1.8115
17506SOL     OW57202   2.806   7.391   1.467 -0.2192  0.6503 -0.4188
17506SOL    HW157203   2.843   7.321   1.521  0.7233  0.8478 -0.7912
17506SOL    HW257204   2.713   7.370   1.461 -0.3145  0.5351  1.1445
17507SOL     OW57205   7.915   8.156   2.975  0.0970 -0.5620  0.0495
17507SOL    HW157206   7.954   8.141   2.889  2.8428 -0.2776  1.1505
17507SOL    HW257207   7.841   8.094   2.979  2.5651 -3.8593 -0.8625
17508SOL     OW57208   4.114   0.885  10.248 -0.0201 -0.2860 -0.4245
17508SOL    HW157209   4.142   0.798  10.218  2.2264 -0.2022  1.2263
17508SOL    HW257210   4.058   0.867  10.323 -2.7466 -0.3461 -2.2982
17509SOL     OW57211   0.828   7.808   8.815 -0.0875 -0.1618 -0.6766
17509SOL    HW157212   0.880   7.888   8.811 -2.2902  1.4246  0.6193
17509SOL    HW257213   0.828   7.784   8.908 -0.2590 -1.1257 -0.9106
17510SOL     OW57214   8.703   3.128   4.996  0.5680 -0.4753  0.4317
17510SOL    HW157215   8.722   3.094   4.908  0.1925  1.2813 -0.3660
17510SOL    HW257216   8.633   3.192   4.982  0.6698  0.0084  1.9934
17511SOL     OW57217   3.760  11.550   2.212 -0.2952  0.6343  0.1245
17511SOL    HW157218   3.788  11.535   2.122 -1.8705 -0.2107 -0.2601
17511SOL    HW257219   3.827  11.508   2.266 -0.2797 -0.4398 -0.7193
17512SOL     OW57220   7.352   3.432   6.675 -0.1216  0.3890  0.0443
17512SOL    HW157221   7.415   3.445   6.604 -0.6850  1.5969 -0.2591
17512SOL    HW257222   7.385   3.488   6.746  0.2908 -0.6029  0.6605
17513SOL     OW57223   8.219   9.177  10.396  0.0638 -0.2078  0.0581
17513SOL    HW157224   8.125   9.188  10.407 -0.6111 -3.8861 -0.6857
17513SOL    HW257225   8.247   9.134  10.477  0.9268 -0.0830 -0.1674
17514SOL     OW57226  11.425   4.903   0.297  0.0101 -0.5509  0.0509
17514SOL    HW157227  11.492   4.968   0.276  1.9547 -2.2038  0.8466
17514SOL    HW257228  11.355   4.954   0.338  1.5055  1.0295  0.7856
17515SOL     OW57229   8.835   9.201   1.576 -0.0120 -0.2555  0.3963
17515SOL    HW157230   8.760   9.150   1.605 -0.3393  0.8327  1.5613
17515SOL    HW257231   8.809   9.292   1.589  0.4610  0.2779 -1.8537
17516SOL     OW57232  10.717   9.802   0.460  0.1937  0.4484  0.6004
17516SOL    HW157233  10.744   9.848   0.380 -1.0567 -0.1461 -0.1860
17516SOL    HW257234  10.745   9.860   0.531  1.0739  1.1202 -0.2663
17517SOL     OW57235   1.665   6.428  10.594 -0.2105  0.3785 -0.1741
17517SOL    HW157236   1.580   6.450  10.558 -0.4200 -0.5231 -0.2668
17517SOL    HW257237   1.720   6.408  10.518 -0.5704 -1.2317 -0.0600
17518SOL     OW57238   0.756   5.078   4.109 -0.0599  0.3770 -0.0029
17518SOL    HW157239   0.846   5.071   4.078  0.5783 -0.0542  1.8256
17518SOL    HW257240   0.708   5.011   4.060 -0.1938  2.7113 -3.3918
17519SOL     OW57241   0.509   6.411  11.581  0.2999 -0.3294  0.6579
17519SOL    HW157242   0.523   6.327  11.536 -0.1555  0.7108 -1.5800
17519SOL    HW257243   0.419   6.407  11.612  0.0587 -0.4302 -0.0336
17520SOL     OW57244   8.665   7.828   2.050  0.6508 -0.1771  0.3688
17520SOL    HW157245   8.580   7.795   2.019 -0.7517  2.7864  0.6450
17520SOL    HW257246   8.723   7.821   1.974 -0.1554 -1.2532 -0.1654
17521SOL     OW57247   5.039   7.621   1.266 -0.7284 -0.0328 -0.1143
17521SOL    HW157248   5.113   7.596   1.210 -1.3376  1.2238 -1.5796
17521SOL    HW257249   5.075   7.622   1.355  0.5279 -1.1866 -0.5717
17522SOL     OW57250   8.637   8.217   2.307  0.2450 -0.3088  0.4304
17522SOL    HW157251   8.621   8.155   2.235 -2.0601  0.8864 -0.1632
17522SOL    HW257252   8.726   8.248   2.291  1.1913 -2.8184  0.2884
17523SOL     OW57253   8.465   8.491   9.436 -0.2101 -0.3105  0.0862
17523SOL    HW157254   8.501   8.463   9.352 -0.2498  1.5471 -0.5904
17523SOL    HW257255   8.371   8.498   9.420 -0.1521  0.6161  0.0867
17524SOL     OW57256   6.511   8.975   1.844 -0.0951  0.2084  0.6695
17524SOL    HW157257   6.480   8.917   1.774 -0.9820  0.7089  0.6254
17524SOL    HW257258   6.460   8.948   1.921  1.1508 -0.6044  1.2580
17525SOL     OW57259   2.440   5.319   0.845  0.2754  0.4641 -1.1722
17525SOL    HW157260   2.440   5.373   0.766  0.5703  0.0459 -1.4635
17525SOL    HW257261   2.352   5.329   0.881 -0.0261  0.2492 -1.8374
17526SOL     OW57262   6.704   6.053   1.763  0.2207 -0.1905  0.8559
17526SOL    HW157263   6.747   6.106   1.830  2.5824 -1.9933  0.8852
17526SOL    HW257264   6.743   6.081   1.681  1.3141 -1.6042  0.8478
17527SOL     OW57265   2.241   1.831   1.553  0.3170  0.3312  0.1295
17527SOL    HW157266   2.284   1.879   1.624  0.7802  1.3492 -0.8125
17527SOL    HW257267   2.173   1.892   1.522  0.0372 -0.1554 -0.2139
17528SOL     OW57268   6.478   4.120   1.459  0.1777 -0.1000  0.5577
17528SOL    HW157269   6.441   4.044   1.503 -0.6426  0.7958  1.4865
17528SOL    HW257270   6.430   4.195   1.496  1.7816  0.9757  0.6060
17529SOL     OW57271   8.962   2.977   4.073  0.1875 -0.5735  0.0485
17529SOL    HW157272   8.947   2.967   4.167 -3.2576 -0.1959 -0.3384
17529SOL    HW257273   9.008   2.897   4.047  0.9628 -0.8034  1.9715
17530SOL     OW57274   4.385   9.032  11.169 -0.4579  0.2997  0.1145
17530SOL    HW157275   4.431   8.957  11.132 -1.9713 -0.3115 -0.6016
17530SOL    HW257276   4.455   9.092  11.197  0.7680 -1.1036  0.1647
17531SOL     OW57277   5.375   2.750   6.376 -0.2548  0.1227  0.2651
17531SOL    HW157278   5.385   2.845   6.389 -0.4984 -0.2076  3.6884
17531SOL    HW257279   5.283   2.739   6.355 -0.4441  0.5819  0.8189
17532SOL     OW57280   8.952   6.090   1.237 -0.5712  0.1324  0.1509
17532SOL    HW157281   8.989   6.140   1.310  2.0828  0.2534 -1.1752
17532SOL    HW257282   8.953   5.999   1.267  2.8581 -0.1618 -0.4965
17533SOL     OW57283   4.329   2.295   9.091  0.0944  0.3389  0.1525
17533SOL    HW157284   4.273   2.279   9.167 -0.6607 -0.2352 -0.5011
17533SOL    HW257285   4.345   2.389   9.092 -2.1184  0.7848 -0.4469
17534SOL     OW57286   6.716   3.396  10.567 -0.1810  0.0939  0.1411
17534SOL    HW157287   6.667   3.444  10.634  0.1214 -0.4746  0.7921
17534SOL    HW257288   6.693   3.438  10.485 -0.7432  0.6650  0.5806
17535SOL     OW57289   2.691   2.385   7.145 -0.2392 -0.4150 -0.1540
17535SOL    HW157290   2.705   2.478   7.126  0.8895 -0.3186  1.0065
17535SOL    HW257291   2.616   2.361   7.091 -0.1951  1.0230 -0.9118
17536SOL     OW57292  11.145   7.814   5.262  0.2570 -0.2826  0.0908
17536SOL    HW157293  11.148   7.792   5.355 -1.2031  0.2306  0.2868
17536SOL    HW257294  11.055   7.796   5.236 -0.4369  2.9902 -0.3077
17537SOL     OW57295   0.223   0.723   5.850  0.1132 -0.7154  0.5992
17537SOL    HW157296   0.276   0.744   5.927 -0.5693  2.3000  0.3759
17537SOL    HW257297   0.283   0.678   5.791  1.4908 -0.3718  1.6730
17538SOL     OW57298   9.428   3.240   8.450  0.2633  0.4758  0.1405
17538SOL    HW157299   9.338   3.255   8.424  0.0093  1.7765  1.6321
17538SOL    HW257300   9.464   3.183   8.382 -1.7271 -0.2410 -0.3528
17539SOL     OW57301   4.667   2.894   9.821 -0.1254 -0.3802  0.1309
17539SOL    HW157302   4.595   2.837   9.794 -1.2497  0.9639  0.1722
17539SOL    HW257303   4.630   2.949   9.890  1.4333 -0.7406  1.3167
17540SOL     OW57304   8.736   8.166  11.808 -0.1129  0.7774 -0.1448
17540SOL    HW157305   8.674   8.217  11.860 -3.1289 -2.3584 -0.3011
17540SOL    HW257306   8.699   8.078  11.807  4.3775 -1.3821 -0.3740
17541SOL     OW57307   9.523   5.230   9.002 -0.3980  0.4051  0.2404
17541SOL    HW157308   9.437   5.260   8.973 -0.2929  1.3843  0.8767
17541SOL    HW257309   9.522   5.136   8.987 -0.7165  0.6867 -1.9486
17542SOL     OW57310   2.759   1.017   7.176  0.2388  0.4022 -0.4000
17542SOL    HW157311   2.678   1.062   7.153 -0.8001 -0.8550  0.6819
17542SOL    HW257312   2.755   0.933   7.130 -0.4364 -0.8442  1.7865
17543SOL     OW57313   0.110   5.988   9.982  0.2862  0.0369  0.1442
17543SOL    HW157314   0.109   5.978  10.077 -1.0551 -1.1340  0.0454
17543SOL    HW257315   0.018   5.990   9.957  0.6043 -0.5640 -1.1988
17544SOL     OW57316   1.540  10.279   3.254 -0.3306  0.1839 -0.0476
17544SOL    HW157317   1.622  10.240   3.285 -0.2404  0.9179  0.6815
17544SOL    HW257318   1.542  10.369   3.287 -0.6832  0.7241 -1.4047
17545SOL     OW57319   8.916  10.725   3.301  0.5364  0.1142 -0.4600
17545SOL    HW157320   8.892  10.803   3.351  1.5596  0.1030  0.0677
17545SOL    HW257321   8.849  10.719   3.233 -2.3169 -1.1515  2.1980
17546SOL     OW57322   2.947  10.619   8.858 -0.2815  0.7301  0.7318
17546SOL    HW157323   2.876  10.594   8.916  1.5048  0.3307  2.8852
17546SOL    HW257324   2.937  10.714   8.846 -1.8613  0.4904 -0.0699
17547SOL     OW57325   1.273   8.045   1.545  0.3468 -0.1166 -0.4999
17547SOL    HW157326   1.288   8.028   1.638 -1.0617 -2.1059 -0.5711
17547SOL    HW257327   1.359   8.070   1.511  0.6456  1.9263  1.5372
17548SOL     OW57328   0.133   4.553   1.967 -0.3288  0.2617 -0.4370
17548SOL    HW157329   0.182   4.510   1.897  0.7879  1.2228 -0.2802
17548SOL    HW257330   0.045   4.567   1.931 -0.2220 -0.6497 -1.0675
17549SOL     OW57331   1.558   0.388  10.401  0.0045 -0.0975 -0.2370
17549SOL    HW157332   1.483   0.444  10.422 -0.0666 -0.9067  1.9073
17549SOL    HW257333   1.546   0.367  10.308 -1.0805  1.7329 -0.5727
17550SOL     OW57334   5.770   2.557   5.545  0.1626  0.1759  0.4405
17550SOL    HW157335   5.778   2.470   5.583  1.0253 -0.7376 -1.6917
17550SOL    HW257336   5.678   2.563   5.519  0.3004 -0.4929 -0.2387
17551SOL     OW57337   2.843   6.836  10.791  0.2186 -0.0531 -0.6732
17551SOL    HW157338   2.762   6.876  10.824  0.3852  0.9192 -1.3945
17551SOL    HW257339   2.815   6.780  10.719  0.1351 -0.1237 -0.5863
17552SOL     OW57340  11.124   0.294   8.020  0.3103  0.2991  0.2225
17552SOL    HW157341  11.039   0.254   8.037 -0.0706  0.5870 -0.9035
17552SOL    HW257342  11.117   0.328   7.931  1.3430  1.0172  0.3981
17553SOL     OW57343  11.146   7.902   1.440 -0.2118  0.2030  0.5179
17553SOL    HW157344  11.232   7.906   1.397 -0.7291  0.7007 -0.5081
17553SOL    HW257345  11.091   7.855   1.378 -1.1067  1.3617  0.3997
17554SOL     OW57346   6.310   6.382  10.777  1.1691  0.3779 -0.1806
17554SOL    HW157347   6.287   6.405  10.867 -0.2419 -0.0119 -0.4190
17554SOL    HW257348   6.229   6.393  10.728  1.6072 -0.6335 -1.1672
17555SOL     OW57349   6.283   8.509   1.207  0.7175  0.1551  0.3843
17555SOL    HW157350   6.350   8.446   1.180  0.0153  0.2159 -1.6963
17555SOL    HW257351   6.266   8.488   1.299 -0.3082 -3.5143 -0.4641
17556SOL     OW57352   5.790   6.155   3.211  0.3823 -0.0588  0.8030
17556SOL    HW157353   5.829   6.087   3.155 -0.4056  0.1262  0.0019
17556SOL    HW257354   5.697   6.154   3.189  0.2052  0.6481  1.4658
17557SOL     OW57355   2.734   8.101   5.079  0.0678  0.2814  0.1371
17557SOL    HW157356   2.787   8.026   5.051 -3.9289 -1.9336 -2.4571
17557SOL    HW257357   2.775   8.176   5.037  0.5873 -1.4851 -2.7842
17558SOL     OW57358   8.021   1.161  11.241 -0.3238  0.2094 -0.0974
17558SOL    HW157359   8.004   1.117  11.324  1.7687 -0.3594  0.0864
17558SOL    HW257360   8.053   1.248  11.265  1.8398 -0.4992 -0.1664
17559SOL     OW57361   5.651   7.541   1.809  0.1681  0.1204  0.2731
17559SOL    HW157362   5.607   7.470   1.855  1.3381 -1.1194 -0.4403
17559SOL    HW257363   5.622   7.532   1.718 -0.3849  1.1498  0.3316
17560SOL     OW57364   2.555  11.863   1.757  0.2873 -0.4820  0.1730
17560SOL    HW157365   2.610  11.845   1.833  1.6419  0.1003 -0.6386
17560SOL    HW257366   2.515  11.947   1.776 -0.1170 -0.7737  0.6407
17561SOL     OW57367   9.405   8.710   3.076  0.4686  0.1289  0.2079
17561SOL    HW157368   9.350   8.647   3.122  1.0227 -0.5473 -0.0366
17561SOL    HW257369   9.487   8.663   3.061  0.1316  0.1408 -1.9290
17562SOL     OW57370  11.130  11.868  11.543 -0.4307 -0.8214  0.1303
17562SOL    HW157371  11.221  11.846  11.521  0.8048  2.2258  1.6353
17562SOL    HW257372  11.135  11.956  11.580 -4.0980 -0.3900 -0.0815
17563SOL     OW57373   0.363  11.905   3.717  0.3265 -0.2168  0.5599
17563SOL    HW157374   0.359  11.874   3.807  0.8815  2.8543  1.7609
17563SOL    HW257375   0.434  11.969   3.716 -1.7368  2.3132 -1.1663
17564SOL     OW57376   4.101   3.041   3.349  0.5072 -0.1116  0.1454
17564SOL    HW157377   4.059   3.089   3.420 -0.1116 -0.2272 -0.1354
17564SOL    HW257378   4.161   3.104   3.309  0.1122  0.2544  0.1315
17565SOL     OW57379  10.859   9.389   9.490  0.4882 -0.0211  0.1778
17565SOL    HW157380  10.796   9.437   9.543 -0.0278 -0.4122 -0.0733
17565SOL    HW257381  10.813   9.309   9.464  1.3062 -0.6094  0.5192
17566SOL     OW57382   6.544   8.119   6.670  0.2755 -0.4035  0.1359
17566SOL    HW157383   6.528   8.198   6.721 -1.7904 -0.1861 -0.7129
17566SOL    HW257384   6.494   8.051   6.715 -1.1359 -0.3210 -1.2258
17567SOL     OW57385   4.532   2.423   3.671 -0.1740 -0.1412 -0.6151
17567SOL    HW157386   4.467   2.493   3.668  0.4929  0.4633 -1.6623
17567SOL    HW257387   4.495   2.359   3.732 -1.8538  0.0897 -1.3139
17568SOL     OW57388   6.809  11.194   3.680  0.3261 -0.4846  0.0813
17568SOL    HW157389   6.754  11.271   3.663 -0.8501 -1.3952 -0.3633
17568SOL    HW257390   6.819  11.152   3.595  0.0344 -1.4269  0.5024
17569SOL     OW57391   5.109   5.015   2.033 -0.3657  0.5435  0.3100
17569SOL    HW157392   5.142   4.938   1.987  0.7562 -1.1691  3.6519
17569SOL    HW257393   5.020   4.991   2.059  0.0678  0.2054  1.5598
17570SOL     OW57394   2.694  10.071   3.948  0.6359  0.3353  0.0009
17570SOL    HW157395   2.610  10.030   3.929  1.7086 -1.3860 -1.3633
17570SOL    HW257396   2.716  10.119   3.868  1.8996 -1.0089 -0.4963
17571SOL     OW57397   0.348   0.858   6.703  0.3110  0.0599 -0.4255
17571SOL    HW157398   0.328   0.798   6.775 -4.7496  2.5705  0.7206
17571SOL    HW257399   0.410   0.921   6.741  0.9025 -0.9680  0.3567
17572SOL     OW57400   5.953   2.797  10.691 -0.0045 -0.1742  0.3842
17572SOL    HW157401   5.971   2.731  10.759  0.2876 -0.0119  0.4666
17572SOL    HW257402   5.858   2.804  10.689 -0.0163 -0.1718  0.7883
17573SOL     OW57403   8.868   9.820   9.691 -0.1972 -0.0641  0.5230
17573SOL    HW157404   8.809   9.746   9.705  0.3670 -0.5748  0.2611
17573SOL    HW257405   8.930   9.815   9.764  0.1448 -0.1557  0.2313
17574SOL     OW57406   1.957   0.582   1.112  0.7132  0.0412 -0.5583
17574SOL    HW157407   1.945   0.506   1.055 -1.4281 -0.6590  0.6702
17574SOL    HW257408   2.034   0.561   1.165  0.7203 -0.8424 -0.9085
17575SOL     OW57409   3.575   0.320  11.236 -0.2237  0.0781  0.1364
17575SOL    HW157410   3.533   0.385  11.180  1.0130  0.2228 -0.6673
17575SOL    HW257411   3.615   0.258  11.175  0.7693 -0.0113  0.8506
17576SOL     OW57412   9.234   3.812   0.723 -0.6520  0.3809 -0.0784
17576SOL    HW157413   9.174   3.818   0.797  2.5074 -1.2582  2.9061
17576SOL    HW257414   9.259   3.902   0.704 -1.4538  0.8337  0.9307
17577SOL     OW57415   1.440   3.160  11.126  0.0789  0.1242 -0.2237
17577SOL    HW157416   1.414   3.251  11.112 -0.2113  0.1143  0.2334
17577SOL    HW257417   1.379   3.109  11.074  1.0553  0.2473 -1.5355
17578SOL     OW57418   9.330   8.510   4.512  0.6429  0.2019 -0.4127
17578SOL    HW157419   9.345   8.442   4.447 -0.1434  1.1396 -1.6069
17578SOL    HW257420   9.244   8.546   4.491 -0.0947 -0.1002  1.7439
17579SOL     OW57421   7.566   5.228   9.559  0.2001  0.5440 -0.3283
17579SOL    HW157422   7.632   5.168   9.593 -0.0682 -0.9552 -2.2199
17579SOL    HW257423   7.506   5.242   9.632  0.2506 -1.6038  0.2109
17580SOL     OW57424   9.704  11.437   4.998  0.3447 -0.3316  0.3028
17580SOL    HW157425   9.656  11.514   5.028 -0.9491 -1.0741  0.2220
17580SOL    HW257426   9.687  11.371   5.066  1.1206 -0.6566  0.1860
17581SOL     OW57427   7.029  11.515   5.991 -0.1957 -0.3814 -0.3521
17581SOL    HW157428   7.009  11.602   5.957 -0.0351  0.8578  2.4927
17581SOL    HW257429   7.122  11.519   6.015 -0.3915 -1.0501  0.5726
17582SOL     OW57430   1.481   9.882   9.201 -0.0541  0.1692  0.4334
17582SOL    HW157431   1.531   9.932   9.266  0.8515 -0.5378  0.2948
17582SOL    HW257432   1.491   9.932   9.120 -1.8464  1.4893  0.9577
17583SOL     OW57433   0.587   9.282   5.272 -0.5151 -0.3689 -0.2997
17583SOL    HW157434   0.660   9.339   5.248  0.1843 -0.9296  0.4271
17583SOL    HW257435   0.627   9.196   5.287 -0.9801 -0.2751  1.9599
17584SOL     OW57436   7.243   0.883   9.421  0.6452  0.4317 -0.0596
17584SOL    HW157437   7.198   0.934   9.488  0.0509  1.8066 -1.4322
17584SOL    HW257438   7.177   0.871   9.352  1.0723 -1.3918 -0.2051
17585SOL     OW57439   5.069  10.936  11.172 -0.3202 -1.2713 -0.1627
17585SOL    HW157440   5.095  10.850  11.140  1.4224 -0.7784 -0.1346
17585SOL    HW257441   5.123  10.951  11.250  1.0028  0.7201 -1.3701
17586SOL     OW57442  11.574   1.252   9.132  0.1425  0.2663 -0.3911
17586SOL    HW157443  11.646   1.308   9.163  0.7458  0.4238 -1.9640
17586SOL    HW257444  11.591   1.167   9.172  0.9089  0.4502 -0.3073
17587SOL     OW57445   8.679   5.984   1.053 -0.1994 -0.1158  0.1177
17587SOL    HW157446   8.686   6.073   1.088  2.0179  0.1974 -0.9249
17587SOL    HW257447   8.609   5.989   0.988  2.1796  1.9322 -2.5710
17588SOL     OW57448   8.289   0.103   5.227 -0.2318  0.2524  0.4366
17588SOL    HW157449   8.208   0.133   5.267 -0.5275 -1.5988  1.3402
17588SOL    HW257450   8.298   0.012   5.256  1.5528  0.0417 -0.6127
17589SOL     OW57451   4.840  11.491  11.659  0.2902  0.2008  0.3128
17589SOL    HW157452   4.917  11.543  11.637 -0.4152  0.8241 -0.7733
17589SOL    HW257453   4.814  11.451  11.576 -1.1585  0.8521  0.4233
17590SOL     OW57454   4.809  10.653   4.702 -0.1866 -0.0403  0.2850
17590SOL    HW157455   4.745  10.699   4.756 -1.3393 -1.3621  0.0953
17590SOL    HW257456   4.862  10.723   4.663 -1.6261  1.1091  0.2849
17591SOL     OW57457   8.948   4.556   2.869 -0.5300  0.4448 -0.1373
17591SOL    HW157458   8.873   4.501   2.894  1.6779 -2.2787  1.1453
17591SOL    HW257459   8.954   4.621   2.939 -0.3618 -0.8087  1.0539
17592SOL     OW57460  11.916   9.940  11.153  0.1576  0.3426 -0.3447
17592SOL    HW157461  11.950   9.999  11.220  1.3742  0.2484 -0.8429
17592SOL    HW257462  11.864   9.875  11.200  0.1632  0.8663  0.3840
17593SOL     OW57463   3.882   3.669   7.087  0.0254  0.5297 -0.6110
17593SOL    HW157464   3.787   3.660   7.093 -0.0336  1.3158 -0.2500
17593SOL    HW257465   3.901   3.751   7.133  0.9944 -0.1852  0.3018
17594SOL     OW57466   1.941  10.995   6.050 -0.2996  0.3194  0.1307
17594SOL    HW157467   1.973  10.957   5.968 -0.3818 -0.7948  0.5938
17594SOL    HW257468   1.848  11.008   6.035 -0.2036  0.6854 -0.1594
17595SOL     OW57469   0.983   5.758   2.761  0.3868  0.2437 -0.4984
17595SOL    HW157470   0.995   5.664   2.743  4.1891  0.4531  0.1090
17595SOL    HW257471   1.009   5.768   2.852  0.7445  1.9977 -0.7573
17596SOL     OW57472   8.636   5.580   7.589  0.1914 -0.1288 -0.0241
17596SOL    HW157473   8.710   5.596   7.647 -0.3233 -0.6656  0.8094
17596SOL    HW257474   8.559   5.587   7.646 -0.4363  0.8081 -0.9439
17597SOL     OW57475  11.992  11.826   6.245 -0.5656 -0.0920 -0.0310
17597SOL    HW157476  11.938  11.786   6.313 -1.9476  0.3543 -0.8093
17597SOL    HW257477  12.029  11.752   6.197 -1.2118 -0.4175 -0.0310
17598SOL     OW57478   5.391   0.144   1.199 -0.1819  0.2592 -0.3597
17598SOL    HW157479   5.419   0.071   1.144  1.5372  0.2155  0.5298
17598SOL    HW257480   5.355   0.103   1.277 -0.0273  0.3576 -0.2370
17599SOL     OW57481   5.922  11.614  10.235  0.0973 -0.2840 -0.1680
17599SOL    HW157482   6.017  11.603  10.245  0.4200  1.1878 -1.1926
17599SOL    HW257483   5.884  11.549  10.293  1.7377 -0.8855  0.2994
17600SOL     OW57484   4.009   1.288   3.519  0.8786  0.1553 -0.0635
17600SOL    HW157485   3.943   1.220   3.530  0.6186  0.3229 -0.5559
17600SOL    HW257486   4.015   1.300   3.424 -0.4006  2.1047  0.0603
17601SOL     OW57487   5.424   2.722   7.585 -0.0894  1.0244  0.1847
17601SOL    HW157488   5.438   2.765   7.670  1.1595  2.5376 -0.7229
17601SOL    HW257489   5.379   2.641   7.606 -0.7492  1.8491  2.2011
17602SOL     OW57490   1.942  10.515   9.268  0.4770  0.5742  0.4993
17602SOL    HW157491   2.003  10.446   9.294  1.2430  1.6524  1.6835
17602SOL    HW257492   1.990  10.596   9.283 -1.2538  1.4610  1.5699
17603SOL     OW57493   8.462   9.142  11.491  0.4244 -0.5377 -0.2321
17603SOL    HW157494   8.467   9.081  11.565  0.6468  0.1811  0.3585
17603SOL    HW257495   8.487   9.089  11.415  1.1704 -1.0404  0.3424
17604SOL     OW57496   7.209  10.482   4.530  0.0712  0.3650 -0.4865
17604SOL    HW157497   7.241  10.404   4.576 -1.7361  1.0909  2.2207
17604SOL    HW257498   7.285  10.539   4.523  0.5771 -0.0815  1.0268
17605SOL     OW57499  10.179   9.280   3.302  0.3423 -0.5916 -0.2842
17605SOL    HW157500  10.175   9.196   3.346  2.2796  1.0703  3.4681
17605SOL    HW257501  10.096   9.322   3.324 -0.0872 -0.9765 -1.1050
17606SOL     OW57502   6.863   8.537   9.525 -0.0672 -0.3811 -0.3668
17606SOL    HW157503   6.921   8.566   9.595 -1.6024 -2.2444  1.8493
17606SOL    HW257504   6.776   8.567   9.551 -0.6738 -1.0887 -1.4798
17607SOL     OW57505   1.808   3.764   1.332 -0.2847 -0.4307 -1.0721
17607SOL    HW157506   1.738   3.700   1.345 -0.3498  0.0888  1.8681
17607SOL    HW257507   1.889   3.714   1.347 -0.3001 -0.0467  0.4215
17608SOL     OW57508  11.738   6.636   7.967 -0.2713  0.4828 -0.3485
17608SOL    HW157509  11.693   6.618   8.049 -0.2733 -0.4103 -0.5326
17608SOL    HW257510  11.674   6.683   7.914 -1.3121 -1.4126 -0.8863
17609SOL     OW57511   9.413   8.438   0.054  0.2875 -0.0768 -0.2047
17609SOL    HW157512   9.358   8.392   0.117 -0.2272  0.4955 -0.2337
17609SOL    HW257513   9.501   8.436   0.093 -0.3690  2.0138  1.5182
17610SOL     OW57514   9.268   6.941   0.983 -0.0689  0.8690 -0.1215
17610SOL    HW157515   9.278   6.850   1.010 -0.6085  0.5572 -0.9522
17610SOL    HW257516   9.179   6.965   1.011 -1.1097  0.1756 -2.5486
17611SOL     OW57517   7.636  11.875   5.835  0.0860 -0.0284 -0.6102
17611SOL    HW157518   7.610  11.811   5.769 -0.7544 -1.4228  0.9721
17611SOL    HW257519   7.558  11.886   5.890  0.9448  0.5092  0.5522
17612SOL     OW57520   4.428   7.117   8.274  0.1381  0.2425  0.0481
17612SOL    HW157521   4.493   7.047   8.270 -0.0087  0.0035  1.2274
17612SOL    HW257522   4.406   7.123   8.367 -2.3710 -0.4721 -0.4273
17613SOL     OW57523   9.509   6.822   7.244 -0.5837 -0.2743 -0.1478
17613SOL    HW157524   9.452   6.781   7.309 -1.5744 -0.4970 -1.1280
17613SOL    HW257525   9.452   6.882   7.196  0.5947  1.4647  0.5319
17614SOL     OW57526  10.471  11.163   4.050  0.2678 -0.1077  0.1458
17614SOL    HW157527  10.456  11.169   3.956  2.6478 -0.0151 -0.2846
17614SOL    HW257528  10.421  11.235   4.087  0.6912  0.9387 -1.2504
17615SOL     OW57529   1.598   6.852  11.643  0.1452  0.0079  0.3132
17615SOL    HW157530   1.617   6.828  11.733  0.0342  0.6196  0.5033
17615SOL    HW257531   1.644   6.786  11.590 -0.8240 -1.1068  0.8251
17616SOL     OW57532   1.545   9.107   3.008  0.4970 -0.6003 -0.1003
17616SOL    HW157533   1.519   9.192   2.972  1.4031 -0.2203  0.0883
17616SOL    HW257534   1.633   9.093   2.972  0.6098 -1.1499  0.3845
17617SOL     OW57535   6.726   0.133   5.264 -0.3155 -0.0822 -0.4406
17617SOL    HW157536   6.739   0.222   5.232 -0.5471 -0.1855 -0.8272
17617SOL    HW257537   6.717   0.080   5.184  2.3751 -0.8531 -0.3483
17618SOL     OW57538   2.205   0.990   2.105 -0.1856  0.2157  0.2487
17618SOL    HW157539   2.140   1.059   2.098 -0.1237  0.3445  0.9289
17618SOL    HW257540   2.267   1.021   2.170  0.9575  0.4047 -0.9017
17619SOL     OW57541  11.837   3.856   6.494  0.1451  0.0504 -0.2771
17619SOL    HW157542  11.857   3.812   6.576 -0.2283 -1.8528 -1.1378
17619SOL    HW257543  11.921   3.887   6.461  0.2532  1.1657  0.9497
17620SOL     OW57544  10.651   7.416   3.805 -0.4117 -0.1685 -0.2809
17620SOL    HW157545  10.615   7.448   3.723  0.0058  2.7198  0.5441
17620SOL    HW257546  10.583   7.434   3.870 -1.0850 -3.1756 -0.0145
17621SOL     OW57547   0.807   1.464   5.126 -0.3334 -0.1761 -0.1110
17621SOL    HW157548   0.757   1.520   5.067 -0.4495  1.1275  1.1664
17621SOL    HW257549   0.825   1.520   5.202  2.9109 -0.6098 -0.4179
17622SOL     OW57550   9.445   2.532  11.166 -0.3994  0.2905 -0.3555
17622SOL    HW157551   9.425   2.468  11.097 -0.5896  0.0123 -0.0449
17622SOL    HW257552   9.360   2.552  11.205 -0.1112 -0.8568  0.9406
17623SOL     OW57553   5.305  10.436   4.013 -0.6070  0.3459  0.1237
17623SOL    HW157554   5.333  10.435   3.921 -0.5083 -0.2408  0.1581
17623SOL    HW257555   5.348  10.360   4.051  0.1300  1.1177  0.8865
17624SOL     OW57556   3.190   7.519   5.321 -0.1015 -0.1855 -0.5839
17624SOL    HW157557   3.263   7.476   5.278 -0.9701  0.2310 -2.6148
17624SOL    HW257558   3.221   7.608   5.339  0.1691 -0.2645 -0.6654
17625SOL     OW57559   8.657   8.751   1.655 -0.4797 -0.5317  0.2228
17625SOL    HW157560   8.586   8.785   1.600  0.7546  2.1725  0.1209
17625SOL    HW257561   8.636   8.784   1.743 -0.0669 -0.9080  0.4615
17626SOL     OW57562  11.446   5.193   4.837  0.4178  0.1128 -0.3950
17626SOL    HW157563  11.441   5.133   4.762 -0.8338 -0.3846  0.0593
17626SOL    HW257564  11.473   5.138   4.910 -2.6299 -0.4484  0.4839
17627SOL     OW57565   0.620   9.342   4.437 -0.3458  0.4664 -0.2194
17627SOL    HW157566   0.530   9.326   4.467 -0.5180  1.3315 -0.2265
17627SOL    HW257567   0.673   9.277   4.484 -0.9504  0.0791 -0.0605
17628SOL     OW57568  10.928   8.062   9.714 -0.2378  0.2454 -0.5408
17628SOL    HW157569  10.837   8.076   9.687 -0.7086  0.2891  0.9531
17628SOL    HW257570  10.941   7.968   9.707 -1.2639 -0.1407  1.5925
17629SOL     OW57571   5.631  11.694   5.837 -0.3649 -0.7872  0.1014
17629SOL    HW157572   5.567  11.745   5.789 -1.2187 -2.4752 -0.6222
17629SOL    HW257573   5.688  11.656   5.770  1.8466  1.1443  0.7455
17630SOL     OW57574  11.555   2.722   6.484 -0.1137  0.3563 -0.3318
17630SOL    HW157575  11.531   2.655   6.420 -0.4420 -0.6061  0.7731
17630SOL    HW257576  11.648   2.706   6.500 -0.2909 -0.1352  0.2528
17631SOL     OW57577   4.787   1.055  10.275  0.3514 -0.3049 -0.1296
17631SOL    HW157578   4.741   1.049  10.359 -0.6705  0.2291 -0.6301
17631SOL    HW257579   4.721   1.033  10.209  0.9933 -0.1953 -0.8303
17632SOL     OW57580   6.844   9.166   6.483  0.5451  0.3458  0.1855
17632SOL    HW157581   6.847   9.238   6.421 -1.3051  0.1560 -0.1829
17632SOL    HW257582   6.935   9.155   6.512  0.9452  2.5008 -0.0791
17633SOL     OW57583   3.340   3.268  11.817  0.0552  0.4683 -0.3942
17633SOL    HW157584   3.253   3.285  11.781 -0.0802 -1.5515 -1.1479
17633SOL    HW257585   3.327   3.195  11.878  0.8489  1.7120  1.3563
17634SOL     OW57586   0.527   1.882   3.241 -0.3391  0.1300  0.1949
17634SOL    HW157587   0.481   1.932   3.308  0.5737  0.3483  0.6752
17634SOL    HW257588   0.592   1.943   3.205 -0.6349 -0.0657 -0.7068
17635SOL     OW57589   2.358   7.105   8.824  0.2342  0.2693 -0.6016
17635SOL    HW157590   2.390   7.181   8.872  2.2426 -0.0764 -1.3104
17635SOL    HW257591   2.327   7.045   8.892 -0.6468  1.3709 -0.0002
17636SOL     OW57592   7.587   9.804  11.253 -0.0843  0.4384  0.0253
17636SOL    HW157593   7.659   9.854  11.215  0.1266  0.8473  0.9347
17636SOL    HW257594   7.609   9.796  11.346 -1.0000  0.2008  0.2380
17637SOL     OW57595   7.933   4.359   6.014  0.2155  0.4360  0.6268
17637SOL    HW157596   8.020   4.362   5.974 -0.0860  0.4263 -0.0416
17637SOL    HW257597   7.906   4.450   6.019  0.3591  0.4568  1.0533
17638SOL     OW57598   4.326   2.396   9.871 -0.1138 -0.4101 -0.2157
17638SOL    HW157599   4.278   2.326   9.915  2.3191 -1.0260  1.6894
17638SOL    HW257600   4.396   2.419   9.932  0.7898  1.8419 -1.9551
17639SOL     OW57601   3.289   9.238  11.608  0.3313  0.5855 -0.2230
17639SOL    HW157602   3.376   9.201  11.620 -0.3984 -0.3415  3.2511
17639SOL    HW257603   3.230   9.163  11.610 -0.7028  1.3592 -0.6150
17640SOL     OW57604   2.871   4.765   0.094 -0.3344  0.2205 -0.1078
17640SOL    HW157605   2.954   4.756   0.141 -0.1418  1.6086 -0.1366
17640SOL    HW257606   2.866   4.687   0.040  0.3695 -0.4739  0.7818
17641SOL     OW57607   7.336   3.794  10.381 -0.1345  0.0299  0.4031
17641SOL    HW157608   7.273   3.735  10.340  2.2230 -1.2657 -1.5641
17641SOL    HW257609   7.406   3.737  10.413  0.5237  1.4894  1.7341
17642SOL     OW57610  10.768   2.822   0.897 -0.6241 -0.1562  0.1196
17642SOL    HW157611  10.738   2.751   0.954 -1.6669  0.2404  0.0967
17642SOL    HW257612  10.863   2.824   0.908 -0.7946 -0.0864  1.8570
17643SOL     OW57613   9.754   9.639   8.495  0.1714 -0.0785 -0.2768
17643SOL    HW157614   9.775   9.577   8.564  0.3797 -0.6202 -0.8109
17643SOL    HW257615   9.773   9.592   8.414 -1.3496  0.0523 -0.7456
17644SOL     OW57616   8.427  11.290  10.463 -0.2234  0.2679 -0.0147
17644SOL    HW157617   8.514  11.252  10.456  1.0355  2.7363  1.0292
17644SOL    HW257618   8.381  11.260  10.384  1.3449 -1.5180 -0.3178
17645SOL     OW57619   1.192   8.798   7.577 -0.5191  0.5708 -0.0800
17645SOL    HW157620   1.242   8.753   7.645 -2.2215  1.4440  1.8826
17645SOL    HW257621   1.244   8.876   7.556  0.4520 -0.1731 -0.4540
17646SOL     OW57622   7.630   1.715   8.629  0.1124  0.2601 -0.1952
17646SOL    HW157623   7.558   1.727   8.567 -2.2295 -0.4637  2.1738
17646SOL    HW257624   7.595   1.745   8.713 -0.1552 -6.0469  2.5909
17647SOL     OW57625   9.848   6.099   4.863  0.1384  0.5523 -0.5736
17647SOL    HW157626   9.846   6.145   4.779  1.0325  0.5516 -0.6121
17647SOL    HW257627   9.935   6.058   4.866 -0.2130 -0.1844 -0.0355
17648SOL     OW57628   6.014   6.130   8.907  0.3983 -0.3963 -0.4825
17648SOL    HW157629   5.967   6.106   8.987  0.2043  2.8581  0.5217
17648SOL    HW257630   6.103   6.150   8.936  0.5988 -0.1592 -1.2384
17649SOL     OW57631  10.116   6.559   3.244  0.2112  0.1374 -0.2282
17649SOL    HW157632  10.087   6.524   3.160  0.1990  0.1632 -0.2348
17649SOL    HW257633  10.036   6.563   3.296  0.4552 -1.2981  0.2953
17650SOL     OW57634   0.242   6.542  11.336 -0.1688 -0.1224  0.2211
17650SOL    HW157635   0.200   6.593  11.268  0.4547  0.0289 -0.0601
17650SOL    HW257636   0.310   6.492  11.290  0.9113  0.7093  0.8434
17651SOL     OW57637   9.926   7.395   5.663 -0.3683 -0.5793  0.6026
17651SOL    HW157638   9.913   7.325   5.726  1.1935 -0.6814  0.8441
17651SOL    HW257639  10.016   7.384   5.632  0.1434  1.6559  1.1042
17652SOL     OW57640  10.299   7.919   2.218 -0.4479 -0.9971 -0.4049
17652SOL    HW157641  10.312   7.975   2.294 -1.1272  0.3575 -1.2437
17652SOL    HW257642  10.376   7.861   2.217  1.0959  0.9670 -0.3938
17653SOL     OW57643   0.559   4.352   6.534  0.3712  0.4251 -0.3256
17653SOL    HW157644   0.511   4.430   6.560  0.0038 -0.0470  0.4652
17653SOL    HW257645   0.597   4.374   6.449  0.1557  1.4050 -0.1804
17654SOL     OW57646  11.074  10.266  11.381  0.6283  0.2949  0.1483
17654SOL    HW157647  11.032  10.338  11.335  1.6708  0.8548  0.0316
17654SOL    HW257648  11.066  10.289  11.474  1.2303  0.7357  0.1001
17655SOL     OW57649   4.922   8.992   0.409 -0.4645 -0.6026 -0.2443
17655SOL    HW157650   4.875   9.070   0.437 -1.4272 -1.1658 -0.2351
17655SOL    HW257651   4.998   9.025   0.361  1.5383  0.4483  3.2781
17656SOL     OW57652  10.401  11.259   2.215 -0.5260 -0.0520 -0.5207
17656SOL    HW157653  10.456  11.278   2.290 -1.4034  1.9902 -0.3238
17656SOL    HW257654  10.462  11.245   2.142  0.4282 -4.0139  0.8502
17657SOL     OW57655   2.103   7.793   3.411 -0.2429 -0.1590  0.3759
17657SOL    HW157656   2.175   7.737   3.437 -0.4213 -0.0647  1.0944
17657SOL    HW257657   2.024   7.747   3.440 -0.5410 -0.6709 -1.1498
17658SOL     OW57658  10.447  10.835  11.150 -0.3514 -0.4927 -0.0066
17658SOL    HW157659  10.436  10.924  11.181  0.2622 -0.6979  0.8376
17658SOL    HW257660  10.535  10.833  11.112  0.8759 -1.4322  2.6299
17659SOL     OW57661   0.150   9.870   5.522 -0.4134 -0.1051 -0.3731
17659SOL    HW157662   0.227   9.905   5.568 -2.0747  1.8865  1.1003
17659SOL    HW257663   0.093   9.946   5.510 -2.3813 -1.5852 -0.9705
17660SOL     OW57664   8.837   1.630   6.062  0.4656 -0.5640 -0.4139
17660SOL    HW157665   8.907   1.595   6.117 -0.7198  0.8719  2.1487
17660SOL    HW257666   8.756   1.608   6.107 -0.4722  2.5897 -0.3056
17661SOL     OW57667   3.832  10.477   8.580  0.1991  0.0043  0.0605
17661SOL    HW157668   3.821  10.434   8.665  2.3459  1.2562  1.0587
17661SOL    HW257669   3.813  10.409   8.516 -0.1154 -1.3674  1.5464
17662SOL     OW57670   7.768   6.593   3.622  0.2847  0.5515  0.4402
17662SOL    HW157671   7.747   6.685   3.602 -0.3331  0.5377  0.9722
17662SOL    HW257672   7.689   6.560   3.666 -0.8559 -1.1724 -2.5622
17663SOL     OW57673   8.721   4.427   7.040 -0.9838  0.1812 -0.3101
17663SOL    HW157674   8.685   4.351   6.993 -0.2314  0.1051 -0.7835
17663SOL    HW257675   8.706   4.407   7.132 -2.3742  0.2689 -0.4858
17664SOL     OW57676   0.788   1.447   0.277 -0.1115 -0.7523 -0.0811
17664SOL    HW157677   0.824   1.369   0.235 -0.0287 -0.4428 -0.5890
17664SOL    HW257678   0.700   1.455   0.240  0.2070 -0.0951 -0.7002
17665SOL     OW57679  10.695  11.890   0.214 -0.6946 -0.3721 -0.4469
17665SOL    HW157680  10.755  11.885   0.139 -0.3571 -1.3777 -0.1262
17665SOL    HW257681  10.616  11.843   0.184 -0.0772 -1.9230  0.2424
17666SOL     OW57682   2.980   1.217   3.144 -0.2299 -0.1480 -0.0089
17666SOL    HW157683   2.941   1.276   3.080 -1.9075  0.0373  1.1342
17666SOL    HW257684   2.908   1.193   3.202  0.6767 -2.3529  0.2975
17667SOL     OW57685  10.813  11.639   1.878  0.0970  0.2810  0.7516
17667SOL    HW157686  10.774  11.704   1.937 -0.1920  1.8513 -1.0688
17667SOL    HW257687  10.902  11.671   1.863 -0.8070  1.7407 -2.1001
17668SOL     OW57688  10.009  10.766   8.331  0.4819 -0.0230 -0.6168
17668SOL    HW157689   9.955  10.838   8.300  1.2442  0.9194  0.1552
17668SOL    HW257690   9.965  10.736   8.411  1.5418  1.3667  0.5401
17669SOL     OW57691   9.072   2.196   3.370  0.5260 -0.3633 -0.2793
17669SOL    HW157692   9.150   2.151   3.401  0.5847 -0.0813 -0.0197
17669SOL    HW257693   9.029   2.229   3.449 -0.3989 -1.3811 -0.3289
17670SOL     OW57694   3.792  11.780   2.709 -0.4360 -0.2239 -0.1844
17670SOL    HW157695   3.761  11.741   2.627 -0.6689 -1.4547  0.4802
17670SOL    HW257696   3.740  11.860   2.718 -0.1030  0.1720 -1.4483
17671SOL     OW57697   9.031  10.315   3.374 -0.2111  0.1053 -0.1985
17671SOL    HW157698   9.113  10.268   3.357 -0.1017 -0.1081  0.8591
17671SOL    HW257699   9.013  10.361   3.292  0.1174 -1.1111 -0.9690
17672SOL     OW57700   3.242   4.869   7.441  0.4629  0.3073  0.4330
17672SOL    HW157701   3.306   4.803   7.469  1.4114  0.2130 -1.7285
17672SOL    HW257702   3.234   4.928   7.515  2.2698 -0.2879  1.1488
17673SOL     OW57703   9.606   0.933   2.167 -0.1707 -0.6157 -0.3014
17673SOL    HW157704   9.526   0.981   2.144  0.0630  0.3856  0.8400
17673SOL    HW257705   9.677   0.995   2.150  0.4020 -1.5575 -1.4701
17674SOL     OW57706  11.595   5.157  10.587  0.7545  0.2814  0.0057
17674SOL    HW157707  11.559   5.205  10.661  1.2150  2.7275 -1.2468
17674SOL    HW257708  11.688   5.149  10.606  0.8142  0.6115 -0.1426
17675SOL     OW57709   7.660   9.394   4.060 -0.4468  0.8010 -0.2816
17675SOL    HW157710   7.719   9.418   4.132  1.0863  0.2498 -1.3013
17675SOL    HW257711   7.577   9.373   4.103  1.3854 -3.1990  1.8346
17676SOL     OW57712   0.775   3.545   5.963  1.1228 -0.0501 -0.5003
17676SOL    HW157713   0.806   3.598   5.889 -0.3063  0.2107 -0.9319
17676SOL    HW257714   0.830   3.573   6.037  2.1420  0.1412 -1.3027
17677SOL     OW57715   2.953  10.778  10.253  0.1210 -0.3734  0.0367
17677SOL    HW157716   2.879  10.828  10.220  0.9125  1.1771  0.5094
17677SOL    HW257717   2.972  10.817  10.338  0.6764 -1.5990  0.4985
17678SOL     OW57718   9.556   0.340   7.232 -0.3185  0.0228  0.0796
17678SOL    HW157719   9.589   0.291   7.156 -0.3162  1.5834 -0.9714
17678SOL    HW257720   9.492   0.400   7.195  0.1346  1.2511  1.2331
17679SOL     OW57721   2.577   5.280   8.252  0.2559  0.0495 -0.0591
17679SOL    HW157722   2.491   5.261   8.217  0.2470 -2.8327  1.2956
17679SOL    HW257723   2.617   5.195   8.267  2.4452  1.2508  1.5410
17680SOL     OW57724   3.458  11.864   9.573  0.8221 -0.0019 -0.2409
17680SOL    HW157725   3.393  11.875   9.503  1.3569  0.3289 -0.6994
17680SOL    HW257726   3.426  11.921   9.644  0.4836 -0.0313 -0.3677
17681SOL     OW57727   4.125   5.757  10.223 -0.1145  0.7415 -0.5204
17681SOL    HW157728   4.164   5.821  10.282  0.4965 -2.2882  2.6566
17681SOL    HW257729   4.030   5.768  10.235 -0.0340 -0.7497  2.3945
17682SOL     OW57730   3.295   5.784   2.714 -0.4531 -0.3183  0.3466
17682SOL    HW157731   3.242   5.854   2.676  1.3333  0.4229 -0.9546
17682SOL    HW257732   3.241   5.706   2.706 -1.4709  0.4523 -0.6131
17683SOL     OW57733   9.289   8.122   8.073 -0.2579  0.2528  0.5393
17683SOL    HW157734   9.264   8.140   8.164 -0.0400 -0.5347  0.7645
17683SOL    HW257735   9.283   8.207   8.029  0.2360  0.7650  1.4282
17684SOL     OW57736   6.176   9.705   4.713  0.1183 -0.1115 -0.2065
17684SOL    HW157737   6.241   9.714   4.643  0.9652  0.0605  0.5698
17684SOL    HW257738   6.120   9.782   4.704  2.2183  1.7240  1.2694
17685SOL     OW57739   6.356   6.891   5.961 -0.5360  0.0303  0.6728
17685SOL    HW157740   6.322   6.869   5.874 -2.6674  0.1090  1.4253
17685SOL    HW257741   6.350   6.810   6.010  0.7608 -0.0387  0.7309
17686SOL     OW57742  10.373   2.894  10.867 -0.4316 -0.4462  0.3039
17686SOL    HW157743  10.457   2.923  10.904 -0.2258 -2.1792  1.2888
17686SOL    HW257744  10.335   2.974  10.830  2.4939  0.1215 -1.8973
17687SOL     OW57745  10.916   8.632   2.547  0.4883  0.4271  0.0456
17687SOL    HW157746  10.912   8.698   2.478 -0.1986  0.9019  0.5253
17687SOL    HW257747  10.992   8.657   2.600  1.0615  0.0190 -0.5630
17688SOL     OW57748  10.184   6.822   3.920 -0.0540 -0.0196  0.0139
17688SOL    HW157749  10.092   6.803   3.907  0.1143 -0.5411 -0.4376
17688SOL    HW257750  10.186   6.911   3.955 -0.8273 -0.5713  1.5479
17689SOL     OW57751  10.520  11.085   4.327 -0.4293 -0.1448 -0.0467
17689SOL    HW157752  10.597  11.030   4.311 -1.2036 -1.5037  0.6871
17689SOL    HW257753  10.493  11.114   4.240  1.0138  0.5329 -0.3017
17690SOL     OW57754   7.416   4.884   0.710  0.4579  0.2946 -0.1196
17690SOL    HW157755   7.418   4.817   0.778 -3.1649 -0.2153 -0.3127
17690SOL    HW257756   7.403   4.835   0.629 -0.9624  1.1139 -0.4210
17691SOL     OW57757   1.395   5.921   8.333 -0.3056 -0.2336  0.3840
17691SOL    HW157758   1.445   5.954   8.408 -0.2955  1.7586 -0.4444
17691SOL    HW257759   1.315   5.974   8.332 -0.0574  0.1855 -1.3040
17692SOL     OW57760   5.307   0.355   4.108  0.0457  0.3234 -0.3631
17692SOL    HW157761   5.344   0.368   4.020  0.3877 -0.7340 -0.3966
17692SOL    HW257762   5.294   0.260   4.114 -1.0081  0.4993  0.3285
17693SOL     OW57763   1.286   9.135   5.522  0.3302 -0.0706 -0.0339
17693SOL    HW157764   1.334   9.213   5.551  1.6645 -0.3193 -1.4679
17693SOL    HW257765   1.281   9.080   5.600  1.0995  0.5915  0.5059
17694SOL     OW57766   9.490   9.400   3.960  0.7765  0.3829  0.1168
17694SOL    HW157767   9.494   9.368   3.870  0.2308  2.4687 -0.7071
17694SOL    HW257768   9.551   9.474   3.961  2.0000 -0.5867  1.9329
17695SOL     OW57769   4.002   0.568   4.735 -0.2779 -0.6949  0.0966
17695SOL    HW157770   3.929   0.512   4.707  0.0048 -1.2306  0.4054
17695SOL    HW257771   4.061   0.569   4.659 -0.0861 -1.1579  0.2373
17696SOL     OW57772   8.104   2.655   7.526 -0.5767  0.3933 -0.3203
17696SOL    HW157773   8.108   2.639   7.432  1.7008 -1.6304  0.0384
17696SOL    HW257774   8.127   2.747   7.536  1.3598  0.1167 -1.6613
17697SOL     OW57775   6.266   0.787   3.519  0.2713  0.4680 -0.6008
17697SOL    HW157776   6.341   0.728   3.528  0.5196  0.7781 -0.6183
17697SOL    HW257777   6.230   0.795   3.607  0.2217  0.2678 -0.6038
17698SOL     OW57778   9.615   6.449   6.679  0.2694 -0.5394  0.3623
17698SOL    HW157779   9.616   6.481   6.589  2.3569  1.3984  0.9905
17698SOL    HW257780   9.667   6.369   6.677  1.7137  0.3636  0.0674
17699SOL     OW57781   7.443   6.805   2.649 -0.8725  0.4038 -0.1592
17699SOL    HW157782   7.462   6.864   2.576  1.1807  1.4315  1.1169
17699SOL    HW257783   7.417   6.863   2.721 -0.7300 -0.4152  0.5765
17700SOL     OW57784   8.431   6.968   1.357  0.1826 -0.4249  0.1000
17700SOL    HW157785   8.394   6.970   1.269 -0.1985 -2.0207  0.2002
17700SOL    HW257786   8.517   6.927   1.346  0.2466 -0.3791  0.4329
17701SOL     OW57787   5.518   5.777   7.237  0.1931 -0.1849 -0.1419
17701SOL    HW157788   5.450   5.730   7.189 -0.0126 -1.4804  1.3541
17701SOL    HW257789   5.516   5.865   7.199 -1.4663 -0.5209 -0.9707
17702SOL     OW57790   6.142   6.882   6.906 -0.0882  0.0184  0.4884
17702SOL    HW157791   6.175   6.972   6.905 -0.2461  0.1207  2.0715
17702SOL    HW257792   6.196   6.835   6.843  0.5161  1.0429  0.2303
17703SOL     OW57793   1.953   4.009   2.361  0.3576 -0.3365  0.2806
17703SOL    HW157794   1.983   4.099   2.350  1.4028 -0.8980 -2.3033
17703SOL    HW257795   1.860   4.011   2.339  0.4905  0.0404 -0.2585
17704SOL     OW57796   4.858   9.617   5.478  0.4879  0.1935  0.0191
17704SOL    HW157797   4.775   9.647   5.439 -0.2180 -0.8481  0.6632
17704SOL    HW257798   4.836   9.601   5.570  0.8414 -2.1040 -0.2439
17705SOL     OW57799   6.934   4.439   1.041  0.3059  0.4248  0.2211
17705SOL    HW157800   6.917   4.361   0.988  1.6676  0.2279  0.0308
17705SOL    HW257801   6.901   4.416   1.128  1.4341 -0.7197  0.3845
17706SOL     OW57802   1.821  11.049   9.570 -0.1164 -0.6629  0.3761
17706SOL    HW157803   1.732  11.068   9.541  0.6613  1.1267 -0.9877
17706SOL    HW257804   1.819  10.956   9.593 -2.1670 -0.8082 -0.2114
17707SOL     OW57805   2.999  11.131   1.362 -0.6319  0.2517  0.3405
17707SOL    HW157806   2.991  11.050   1.411 -1.1478 -0.0101 -0.1706
17707SOL    HW257807   2.911  11.149   1.330 -0.3705  0.6044 -0.1967
17708SOL     OW57808   3.905   9.798   8.789  0.2238  0.0193 -0.3764
17708SOL    HW157809   3.911   9.804   8.694 -2.1242 -1.1745 -0.6704
17708SOL    HW257810   3.916   9.704   8.808  0.9677  0.2820  0.5862
17709SOL     OW57811   6.857   9.821   9.743  0.0229  0.0920  0.0929
17709SOL    HW157812   6.783   9.832   9.684 -0.5428 -0.0255  0.7673
17709SOL    HW257813   6.933   9.819   9.686 -0.5640 -0.6140 -0.6912
17710SOL     OW57814   5.187   6.559   9.510 -0.0418 -0.0337  0.2044
17710SOL    HW157815   5.113   6.619   9.518  1.4447  1.7887  1.3867
17710SOL    HW257816   5.179   6.499   9.584  0.3900  1.0849  1.1941
17711SOL     OW57817   9.747   9.780   5.604  0.0282 -0.2927 -0.2924
17711SOL    HW157818   9.717   9.868   5.625 -0.0078 -0.5447  0.7864
17711SOL    HW257819   9.668   9.731   5.584 -0.3322 -0.8780  2.2498
17712SOL     OW57820   0.369  10.704   8.149  0.6591  0.7042  0.6248
17712SOL    HW157821   0.443  10.644   8.153  1.6451  1.8531  0.0156
17712SOL    HW257822   0.312  10.676   8.222 -0.4771 -2.9064 -1.3550
17713SOL     OW57823  11.877   0.405   9.048 -0.1453  0.5556  0.2385
17713SOL    HW157824  11.811   0.461   9.090 -0.2798  0.3424  0.3131
17713SOL    HW257825  11.836   0.319   9.045  0.8154 -0.0131  1.9542
17714SOL     OW57826   3.745   9.018   7.580 -0.3951 -0.2948  0.1180
17714SOL    HW157827   3.711   9.108   7.590  1.1815  0.5034 -1.2193
17714SOL    HW257828   3.667   8.963   7.579 -1.5309  1.2580 -0.8306
17715SOL     OW57829   2.158   6.329   6.960 -0.0034 -0.2900 -0.3852
17715SOL    HW157830   2.096   6.271   6.917 -1.2361  0.1802  0.6957
17715SOL    HW257831   2.118   6.349   7.045  1.4980  0.2490  0.2435
17716SOL     OW57832  10.375   1.011   5.772 -0.0478 -0.1549 -0.0492
17716SOL    HW157833  10.404   1.026   5.862 -1.0084  0.4268  0.1842
17716SOL    HW257834  10.356   1.099   5.739  2.0399 -0.1633 -1.4685
17717SOL     OW57835  11.996   8.992   3.398 -0.0112  0.6043  0.4248
17717SOL    HW157836  11.939   8.953   3.464  0.3518  0.0003  0.3965
17717SOL    HW257837  12.079   9.005   3.443  0.0980  0.6307  0.2141
17718SOL     OW57838   5.893  10.112  10.181 -0.1613 -0.4864 -0.7971
17718SOL    HW157839   5.926  10.073  10.101  2.2739 -0.0287 -0.0952
17718SOL    HW257840   5.900  10.206  10.167  1.4647 -0.3922  0.3379
17719SOL     OW57841   7.041  10.610   5.311 -0.2165  0.2154  0.2073
17719SOL    HW157842   6.965  10.581   5.362 -0.8552  1.6219  0.0808
17719SOL    HW257843   7.013  10.603   5.220 -0.0421  0.3169  0.1451
17720SOL     OW57844  11.145   2.597   6.969 -0.3094  0.6522  0.5195
17720SOL    HW157845  11.076   2.653   7.004 -1.6991 -0.4321 -0.3816
17720SOL    HW257846  11.166   2.537   7.040 -1.2305  0.1625  0.3912
17721SOL     OW57847   1.611   5.237   7.260  0.2206 -0.6866  0.2401
17721SOL    HW157848   1.608   5.143   7.248  0.7746 -0.9450  1.8103
17721SOL    HW257849   1.571   5.274   7.181 -2.0191 -2.2923  0.5370
17722SOL     OW57850   6.024   0.693   3.300 -0.3814  0.2330  0.1568
17722SOL    HW157851   6.036   0.686   3.206 -0.6471 -0.8777  0.1970
17722SOL    HW257852   6.099   0.746   3.330  0.0580  0.0365 -0.5837
17723SOL     OW57853   9.969   2.090   5.595  0.0254  0.2406 -0.3902
17723SOL    HW157854   9.959   2.145   5.517 -0.9635  1.1363  0.3367
17723SOL    HW257855  10.055   2.113   5.630  0.1542  0.3928 -0.8040
17724SOL     OW57856   7.268   3.433   5.564  0.3121 -0.0542  0.6449
17724SOL    HW157857   7.196   3.495   5.562 -1.3486 -1.8791  1.2219
17724SOL    HW257858   7.313   3.450   5.647 -0.7089 -0.2419  1.2461
17725SOL     OW57859   4.918   4.321   3.132  0.0830  0.0287 -0.1034
17725SOL    HW157860   4.883   4.372   3.204 -0.5072 -0.3645 -0.1082
17725SOL    HW257861   4.845   4.267   3.103  0.8937 -1.3889  0.4052
17726SOL     OW57862   2.419   6.285   5.329  0.0556 -0.4564 -0.0364
17726SOL    HW157863   2.392   6.221   5.263 -0.3524 -0.3195 -0.0032
17726SOL    HW257864   2.358   6.272   5.401  0.0895 -0.1555  0.0469
17727SOL     OW57865   4.163  11.961   5.694 -0.0692  0.1467  0.3438
17727SOL    HW157866   4.070  11.966   5.716 -0.0502  3.1039  0.1757
17727SOL    HW257867   4.199  11.896   5.754 -1.7718  0.9652  2.3497
17728SOL     OW57868   8.053   3.663   8.382 -0.1022 -0.1770  0.1223
17728SOL    HW157869   8.115   3.708   8.325 -0.3353 -1.1347 -0.9122
17728SOL    HW257870   8.090   3.576   8.395 -0.7311 -0.4244  0.3195
17729SOL     OW57871   9.309   8.877   0.994 -0.1513  0.0062  0.2383
17729SOL    HW157872   9.244   8.899   1.061 -1.3871  0.3189 -1.0111
17729SOL    HW257873   9.378   8.942   1.005 -0.1003 -0.2271  1.4871
17730SOL     OW57874   4.774   9.691   1.801 -0.1690  0.2086  0.0871
17730SOL    HW157875   4.857   9.732   1.825  0.5415 -1.2707  0.2245
17730SOL    HW257876   4.794   9.641   1.721 -1.1861  0.6564 -0.4782
17731SOL     OW57877   7.924   1.831   6.120  0.3164 -0.9156  0.0744
17731SOL    HW157878   7.832   1.815   6.097  0.3060 -0.5414 -0.1557
17731SOL    HW257879   7.928   1.816   6.214 -0.7904  2.5005  0.8345
17732SOL     OW57880  10.645  11.282   7.950  0.1826 -0.7097  0.1782
17732SOL    HW157881  10.728  11.320   7.977 -1.4711  1.5157  2.7114
17732SOL    HW257882  10.622  11.330   7.870  0.7620 -0.4409  0.1723
17733SOL     OW57883   5.737   4.340   7.114  0.3352  0.1499  0.0749
17733SOL    HW157884   5.809   4.278   7.104 -1.3921 -1.8291 -1.1733
17733SOL    HW257885   5.674   4.295   7.170 -0.1462  1.6424  0.7937
17734SOL     OW57886  11.593   6.193   1.388  0.1225 -0.1625  0.4332
17734SOL    HW157887  11.633   6.243   1.459 -1.1543  0.4362  0.7573
17734SOL    HW257888  11.523   6.144   1.431 -2.9861  2.7929 -0.8113
17735SOL     OW57889   6.011   4.928   8.240 -0.4249  0.3081  0.3323
17735SOL    HW157890   6.104   4.935   8.219 -0.0274  2.5158  2.3576
17735SOL    HW257891   6.004   4.849   8.294  0.2644  0.1640  0.2190
17736SOL     OW57892   7.532   5.434   1.015  0.1550  0.1778  0.1386
17736SOL    HW157893   7.460   5.477   1.063 -0.1334  0.7008 -0.7452
17736SOL    HW257894   7.542   5.350   1.059 -0.3892  0.4707  0.8544
17737SOL     OW57895   3.961  11.428   4.927  0.0022 -0.1705  0.3534
17737SOL    HW157896   3.973  11.510   4.878 -0.2965 -0.3710 -0.0609
17737SOL    HW257897   3.975  11.359   4.862 -0.2964 -0.4430  0.5737
17738SOL     OW57898  11.004   9.290   6.884  0.1057 -0.1773 -0.6307
17738SOL    HW157899  11.022   9.355   6.952 -0.9707 -1.0871  0.5604
17738SOL    HW257900  10.978   9.343   6.808 -1.3470  0.8223  0.4860
17739SOL     OW57901   8.883   6.612   6.335 -0.7657 -0.1851 -0.8265
17739SOL    HW157902   8.795   6.651   6.335 -0.2157  1.1672  0.5045
17739SOL    HW257903   8.942   6.687   6.339  0.6528 -0.8702 -4.7016
17740SOL     OW57904   2.183  11.194   9.861  0.3223  0.3009 -0.1008
17740SOL    HW157905   2.187  11.205   9.766 -0.0524  0.8524 -0.0541
17740SOL    HW257906   2.174  11.282   9.896 -0.6007  0.0196  0.3938
17741SOL     OW57907   7.416   2.498  11.257  0.0108  0.9691  0.0603
17741SOL    HW157908   7.459   2.560  11.315 -0.3452  1.2262  0.0548
17741SOL    HW257909   7.367   2.440  11.316  0.1871  0.8150  0.0558
17742SOL     OW57910   8.861   1.956   3.231 -0.1503 -0.3723  0.1460
17742SOL    HW157911   8.925   1.905   3.280 -2.7764 -2.7912  1.3374
17742SOL    HW257912   8.812   2.004   3.298 -1.8978 -1.4369 -0.3176
17743SOL     OW57913   7.288   1.421  11.662  0.3608 -0.1759  0.5976
17743SOL    HW157914   7.240   1.462  11.589  1.0994  1.8250  1.1749
17743SOL    HW257915   7.224   1.363  11.703 -0.7849  0.4776 -0.2028
17744SOL     OW57916   9.834   2.059   0.381  0.1896  0.1663 -0.2127
17744SOL    HW157917   9.846   1.966   0.362  0.4478  0.2178 -0.2936
17744SOL    HW257918   9.854   2.103   0.299  0.4815  0.3256 -0.0563
17745SOL     OW57919   6.657   2.753   1.563 -0.0006  0.4555 -0.5693
17745SOL    HW157920   6.707   2.709   1.493  2.3473  1.4454  0.3672
17745SOL    HW257921   6.623   2.681   1.616  1.3035 -0.3088 -0.6976
17746SOL     OW57922  11.997  11.824   7.730 -0.0245 -0.3728 -0.1612
17746SOL    HW157923  12.077  11.789   7.691  1.8002 -1.0781  3.7441
17746SOL    HW257924  12.014  11.918   7.736  0.3324 -0.4567  0.2163
17747SOL     OW57925   7.543   2.224   9.294  0.2498 -0.2884 -0.2077
17747SOL    HW157926   7.519   2.136   9.263  1.5098 -0.0600 -1.9968
17747SOL    HW257927   7.635   2.233   9.270  0.7356  0.7569  1.8433
17748SOL     OW57928   1.154   5.399   4.067 -0.5987 -0.4764 -0.5589
17748SOL    HW157929   1.178   5.488   4.044 -0.2495 -0.9400 -2.1809
17748SOL    HW257930   1.122   5.404   4.157 -0.4327  1.2364 -0.5704
17749SOL     OW57931  11.780   9.728  10.515  0.1824 -0.0952 -0.3548
17749SOL    HW157932  11.771   9.645  10.468  0.9960 -1.2027  1.3456
17749SOL    HW257933  11.872   9.752  10.503  0.1714  0.0783 -0.0981
17750SOL     OW57934   0.384   7.364   3.482  0.2839 -0.4596  0.1649
17750SOL    HW157935   0.295   7.382   3.513  0.7310  1.7856  0.3068
17750SOL    HW257936   0.437   7.358   3.561  0.5257 -0.2245  0.0216
17751SOL     OW57937   0.719  10.278  10.420  0.0238  0.7388 -0.1778
17751SOL    HW157938   0.729  10.330  10.341  0.8668 -0.3025 -0.7926
17751SOL    HW257939   0.706  10.189  10.389 -1.5559  0.5649  0.8460
17752SOL     OW57940   4.772   9.870   9.949  0.1514 -0.4731  0.3911
17752SOL    HW157941   4.863   9.876   9.977  1.0830  2.3397 -2.6071
17752SOL    HW257942   4.722   9.914  10.018  1.1158 -1.2202  1.6089
17753SOL     OW57943   0.237   0.812   6.464  0.4972  0.1743  0.0751
17753SOL    HW157944   0.278   0.788   6.547  0.3801  0.8117  0.3229
17753SOL    HW257945   0.198   0.898   6.481 -0.4454 -0.1600 -0.3229
17754SOL     OW57946   4.243   8.721   6.120 -0.4207  0.4315  0.7895
17754SOL    HW157947   4.214   8.635   6.091 -0.3342 -0.3606  2.8937
17754SOL    HW257948   4.334   8.727   6.090 -0.6049  0.0684  0.1219
17755SOL     OW57949   3.350  10.965   1.964  0.2969 -0.2074 -0.1931
17755SOL    HW157950   3.268  11.016   1.967  0.1070 -0.5622  1.0299
17755SOL    HW257951   3.326  10.879   1.998  1.6779  0.4110  2.5874
17756SOL     OW57952   0.029   5.254  10.654  0.0824  0.1864  0.8349
17756SOL    HW157953   0.112   5.213  10.631 -0.4720 -0.6263  0.2166
17756SOL    HW257954  -0.038   5.192  10.624 -0.8652  2.2987 -1.8901
17757SOL     OW57955   5.513   5.803   2.434  1.1249 -0.2215  0.3760
17757SOL    HW157956   5.571   5.879   2.437  2.1124 -0.8680 -1.3100
17757SOL    HW257957   5.427   5.840   2.415  1.4175  0.5485  0.5005
17758SOL     OW57958   0.086   2.938   6.551 -0.0302 -0.5764  0.0095
17758SOL    HW157959   0.081   3.030   6.527 -1.5609 -0.3985  0.8893
17758SOL    HW257960   0.155   2.902   6.495  2.3163  1.5897  1.3058
17759SOL     OW57961   9.155   5.156   0.053  0.2358  0.7615  0.0699
17759SOL    HW157962   9.080   5.211   0.073  0.0656  0.5976 -0.1142
17759SOL    HW257963   9.127   5.067   0.075 -1.3354 -0.0590 -4.2268
17760SOL     OW57964  11.478   6.844   2.079  0.1223  0.4881 -0.0183
17760SOL    HW157965  11.502   6.756   2.049 -1.5650  0.2666 -0.8449
17760SOL    HW257966  11.494   6.842   2.173  0.0986 -0.7265 -0.0149
17761SOL     OW57967   7.213   7.246   7.559 -0.0328  0.7000 -0.2307
17761SOL    HW157968   7.267   7.311   7.605  0.8593  0.3071 -0.6940
17761SOL    HW257969   7.148   7.218   7.624  0.6003  0.8653  0.4823
17762SOL     OW57970   7.871   9.773   2.195 -0.4552  0.4100  0.4002
17762SOL    HW157971   7.908   9.849   2.150  1.5035 -0.9031 -0.3662
17762SOL    HW257972   7.862   9.800   2.286  0.1117  1.5824  0.1254
17763SOL     OW57973   6.190   1.325   7.505  0.4161 -0.0352  0.2007
17763SOL    HW157974   6.117   1.262   7.505 -0.4836  0.9510  1.5317
17763SOL    HW257975   6.167   1.389   7.572  0.4270  2.7288 -2.1996
17764SOL     OW57976   7.396   2.022   6.953 -0.1335 -0.0739  0.2259
17764SOL    HW157977   7.435   1.991   6.871 -0.1762 -1.4158  0.6750
17764SOL    HW257978   7.434   1.964   7.020 -0.4887  0.6641  1.0851
17765SOL     OW57979   2.581  11.416  10.434  0.1931  0.1612  0.1231
17765SOL    HW157980   2.639  11.445  10.364 -0.2634  0.4683 -0.1299
17765SOL    HW257981   2.602  11.473  10.508  0.3349  0.1580  0.0857
17766SOL     OW57982  11.038   2.078   7.642 -0.2642 -0.3951  0.1284
17766SOL    HW157983  10.974   2.012   7.616  1.0405 -2.1910  1.2595
17766SOL    HW257984  10.996   2.125   7.715 -1.1020 -0.0964 -0.5303
17767SOL     OW57985   6.853   4.168  11.200 -0.5573 -0.0840  0.2085
17767SOL    HW157986   6.930   4.112  11.210 -1.6321 -1.2457  2.4491
17767SOL    HW257987   6.799   4.150  11.276 -2.3514  1.8696 -0.4984
17768SOL     OW57988   9.588   0.996   2.458 -0.5597 -0.3766 -0.4885
17768SOL    HW157989   9.671   0.954   2.438 -0.2879 -1.0862  1.8625
17768SOL    HW257990   9.556   1.027   2.373  2.3046  0.3551 -1.4201
17769SOL     OW57991  11.045   1.963   8.959 -0.5108  0.1167  0.5007
17769SOL    HW157992  10.961   1.920   8.948 -0.3434  0.3044 -2.5552
17769SOL    HW257993  11.023   2.052   8.986 -1.1235 -0.4640  1.9865
17770SOL     OW57994   2.200   8.722   7.055 -0.3987  0.5291 -0.2574
17770SOL    HW157995   2.168   8.729   7.145 -1.1260  1.7673 -0.5860
17770SOL    HW257996   2.294   8.710   7.064 -0.0605  3.1792  0.6828
17771SOL     OW57997   1.882   1.755   2.396  0.0758 -0.2002 -0.1772
17771SOL    HW157998   1.865   1.759   2.302  0.7056  0.0127 -0.2848
17771SOL    HW257999   1.827   1.683   2.427 -2.0333  1.2792 -0.2886
17772SOL     OW58000   1.894   7.369   9.323 -0.1641 -0.2408 -0.2066
17772SOL    HW158001   1.948   7.431   9.373  0.6654  0.1049 -1.4874
17772SOL    HW258002   1.831   7.336   9.387 -0.5600  1.8227  0.5717
17773SOL     OW58003   5.012  10.625   7.399  0.2199 -0.0982  0.1257
17773SOL    HW158004   5.094  10.591   7.435 -0.2568  0.3400  1.6878
17773SOL    HW258005   4.948  10.557   7.416 -0.8030  1.5103  3.5297
17774SOL     OW58006   5.386   2.551   3.436  0.2896 -0.1760 -0.6292
17774SOL    HW158007   5.354   2.620   3.377  0.7130  0.3991 -0.1998
17774SOL    HW258008   5.400   2.476   3.379 -1.8685 -0.4764 -0.8257
17775SOL     OW58009   1.235   7.561   2.597  0.3855  0.0458  0.0919
17775SOL    HW158010   1.245   7.653   2.573 -0.0021  0.1673  0.3780
17775SOL    HW258011   1.141   7.551   2.611  0.1450 -0.9135 -1.9785
17776SOL     OW58012   0.604   3.007   8.230 -0.4462 -0.4375  0.2151
17776SOL    HW158013   0.676   3.045   8.180 -1.1239  0.7529  0.1119
17776SOL    HW258014   0.636   3.005   8.321 -0.6497  1.0563  0.3385
17777SOL     OW58015   2.933   5.159   0.335  0.3532  0.2542  0.4987
17777SOL    HW158016   2.972   5.166   0.422  1.5345  0.0754 -0.0012
17777SOL    HW258017   2.841   5.138   0.352  1.0938 -2.4247  1.6855
17778SOL     OW58018   2.759   4.846   3.493 -0.6801  0.4175  1.0814
17778SOL    HW158019   2.776   4.893   3.411 -0.1220  1.5294  1.8051
17778SOL    HW258020   2.691   4.782   3.471 -1.1385  1.2687 -0.0584
17779SOL     OW58021   1.588   9.316   6.456  0.0024  0.7120  0.3075
17779SOL    HW158022   1.646   9.358   6.520 -0.5089  1.0117  0.5818
17779SOL    HW258023   1.630   9.332   6.371  1.1502 -0.4530  0.6329
17780SOL     OW58024   3.799   3.401   5.765  0.3199 -0.6381 -0.0984
17780SOL    HW158025   3.716   3.368   5.731  0.7045 -0.2986 -1.4420
17780SOL    HW258026   3.866   3.343   5.728  0.9666  1.2305 -2.1303
17781SOL     OW58027   6.080   3.241   0.128  0.2103 -0.2300  0.0725
17781SOL    HW158028   6.003   3.270   0.079  0.4844 -0.0823 -0.2673
17781SOL    HW258029   6.149   3.232   0.063  1.2034  2.1010  0.7088
17782SOL     OW58030   8.186   0.272   4.306 -0.2548 -0.0859  0.3473
17782SOL    HW158031   8.266   0.232   4.339 -0.4345 -0.5092  0.2877
17782SOL    HW258032   8.166   0.222   4.227 -2.2166 -2.0345  1.9409
17783SOL     OW58033   5.587   9.546  10.470 -0.3015  0.4839 -0.0686
17783SOL    HW158034   5.565   9.469  10.523  0.0956  1.4340  1.5412
17783SOL    HW258035   5.676   9.569  10.497 -0.0821  1.0079 -1.1798
17784SOL     OW58036   7.767   1.524   3.962  0.2557 -0.3996 -0.0158
17784SOL    HW158037   7.816   1.583   3.904 -0.1495  0.0931  0.1344
17784SOL    HW258038   7.790   1.436   3.932 -0.2918 -0.1570 -1.2179
17785SOL     OW58039   9.411  11.115   9.334  0.1457  0.2432  0.0462
17785SOL    HW158040   9.381  11.037   9.380  0.0516 -0.7228 -1.5624
17785SOL    HW258041   9.336  11.175   9.337 -0.4335 -0.4492 -0.2215
17786SOL     OW58042   4.008   2.842  10.779 -1.1039 -0.4433  0.2915
17786SOL    HW158043   4.070   2.874  10.844 -1.5520  0.6157  0.2177
17786SOL    HW258044   3.989   2.752  10.805 -0.6145 -0.3123  1.1201
17787SOL     OW58045  10.605   7.389  10.379  0.2407 -0.5290 -0.1784
17787SOL    HW158046  10.701   7.384  10.387  0.2203 -1.1470 -0.2591
17787SOL    HW258047  10.586   7.483  10.375  0.7674 -0.3679  0.7711
17788SOL     OW58048   2.085   5.594   3.660 -0.2913 -0.3516  0.3443
17788SOL    HW158049   2.027   5.652   3.709  0.6669  0.3905  0.6347
17788SOL    HW258050   2.029   5.553   3.595 -0.8242  1.6687 -0.5541
17789SOL     OW58051   4.044   7.984   0.713 -0.0468  0.1859  0.2584
17789SOL    HW158052   4.023   7.924   0.784  0.0214  0.2425  0.3269
17789SOL    HW258053   3.960   8.021   0.687 -0.0255  0.4425  0.5580
17790SOL     OW58054   0.958   3.594   4.886 -0.3139  0.0927  0.1901
17790SOL    HW158055   0.979   3.613   4.978  0.4822 -1.6881  0.4148
17790SOL    HW258056   0.878   3.644   4.869 -0.8979 -0.1030  2.0972
17791SOL     OW58057   8.477  10.885   2.412  0.3345  0.4737 -0.3991
17791SOL    HW158058   8.465  10.901   2.318  0.5233 -0.4470 -0.5845
17791SOL    HW258059   8.393  10.909   2.452  0.8928  2.9194 -0.5084
17792SOL     OW58060   7.674   6.354   0.095  0.7074 -0.4898 -0.2849
17792SOL    HW158061   7.664   6.273   0.144 -3.6686  0.9225  1.6962
17792SOL    HW258062   7.677   6.327   0.003 -1.6089 -2.9370  0.2502
17793SOL     OW58063   6.401   7.141   6.010 -0.1627 -0.0001  0.0040
17793SOL    HW158064   6.394   7.046   6.002  1.5394 -0.1311 -0.2344
17793SOL    HW258065   6.474   7.155   6.070 -0.5530  1.1646  0.2398
17794SOL     OW58066   5.376   0.296   2.357  0.1154 -0.3493 -0.0206
17794SOL    HW158067   5.335   0.274   2.441 -0.6488  0.5260 -0.1439
17794SOL    HW258068   5.303   0.299   2.295  0.1181  2.3732 -0.0309
17795SOL     OW58069  10.539   1.316   3.412  0.4833 -0.4006  0.3170
17795SOL    HW158070  10.450   1.286   3.431  1.0121 -2.3452 -0.1024
17795SOL    HW258071  10.552   1.296   3.319  0.2867  2.8186 -0.5388
17796SOL     OW58072   7.875   3.498   5.298  0.0861 -0.3408 -0.5382
17796SOL    HW158073   7.790   3.517   5.259 -0.5472 -0.1911  0.8555
17796SOL    HW258074   7.876   3.402   5.307 -1.5059 -0.1676  2.6929
17797SOL     OW58075   2.586   5.360   6.067  0.0803 -0.3143  0.0405
17797SOL    HW158076   2.567   5.268   6.081 -0.0690 -0.0784  1.6147
17797SOL    HW258077   2.538   5.406   6.137  0.3973  0.9257 -0.5154
17798SOL     OW58078   7.179  11.256   6.919 -0.4610  0.0146  0.2827
17798SOL    HW158079   7.138  11.316   6.856  0.5702  0.6055  0.1484
17798SOL    HW258080   7.209  11.312   6.990 -0.1831 -0.4379  0.5282
17799SOL     OW58081   8.114   9.026   0.065  0.2758 -0.2964 -0.1866
17799SOL    HW158082   8.175   8.956   0.085  1.3574  0.5021 -0.5894
17799SOL    HW258083   8.028   8.987   0.076  0.8512 -1.3285  0.8018
17800SOL     OW58084   0.424   1.187   5.301  0.0027  0.6385 -0.2538
17800SOL    HW158085   0.454   1.185   5.392  0.5784 -1.6782 -0.4343
17800SOL    HW258086   0.484   1.248   5.257  0.6713  0.6262  0.6145
17801SOL     OW58087   0.134  10.135   3.099  0.1233 -0.4827  0.1579
17801SOL    HW158088   0.106  10.192   3.171  0.3370  0.2780 -0.3437
17801SOL    HW258089   0.059  10.078   3.083 -0.6023  0.5320 -0.1773
17802SOL     OW58090   7.142   9.091   4.615  0.4314  0.1505  0.1582
17802SOL    HW158091   7.085   9.014   4.603  0.3357 -0.0444  1.5826
17802SOL    HW258092   7.171   9.083   4.706  2.6138  0.3429 -0.4794
17803SOL     OW58093  10.431   0.002   2.208 -0.0349 -0.1606  0.2844
17803SOL    HW158094  10.504  -0.030   2.261  0.6054  1.2433  0.2804
17803SOL    HW258095  10.442  -0.042   2.124  1.1334  0.4253  0.1050
17804SOL     OW58096   2.412  11.876   2.729  0.0335  0.3382 -0.3382
17804SOL    HW158097   2.501  11.877   2.764 -0.3809 -0.6076  0.8157
17804SOL    HW258098   2.422  11.857   2.636  1.0486  0.6259 -0.2974
17805SOL     OW58099   6.214   0.104   3.457 -0.1697  0.1331  0.3640
17805SOL    HW158100   6.226   0.161   3.381 -3.1085  3.0957  1.8718
17805SOL    HW258101   6.242   0.157   3.531 -1.2895 -1.0626  1.6942
17806SOL     OW58102   6.821   4.391   1.291 -0.9282 -0.0349  0.0991
17806SOL    HW158103   6.739   4.441   1.289  0.2864  2.1480  0.9531
17806SOL    HW258104   6.864   4.420   1.371  0.7519 -1.0564 -0.3891
17807SOL     OW58105   8.811   9.896  11.339 -0.3092  0.2528 -0.4617
17807SOL    HW158106   8.732   9.889  11.393  0.1921 -1.8119  0.0686
17807SOL    HW258107   8.855   9.975  11.371 -0.3706 -0.5367  1.7130
17808SOL     OW58108   8.273   1.115  11.572 -0.1526  0.1416 -0.2451
17808SOL    HW158109   8.326   1.158  11.640 -0.3928 -0.3892  0.2859
17808SOL    HW258110   8.233   1.040  11.616 -0.7422  0.0934 -0.8362
17809SOL     OW58111   7.429  11.411   8.351  0.0806  0.0253  0.1459
17809SOL    HW158112   7.422  11.506   8.355 -2.8999 -0.0671 -0.6514
17809SOL    HW258113   7.456  11.385   8.439 -0.5503  1.5292  0.8127
17810SOL     OW58114  11.117   0.869   9.532  0.5951  0.0061  0.3632
17810SOL    HW158115  11.129   0.955   9.493 -1.3154  2.2351  4.1001
17810SOL    HW258116  11.189   0.860   9.594  1.6736 -1.9428 -1.0433
17811SOL     OW58117   4.154   5.222   8.622 -0.1066 -0.3595 -0.1721
17811SOL    HW158118   4.059   5.237   8.626 -0.4157 -2.2548  2.2467
17811SOL    HW258119   4.187   5.260   8.704  0.6306 -2.7708  0.7265
17812SOL     OW58120   3.129   6.202   7.074  0.3459  0.0770 -0.7022
17812SOL    HW158121   3.069   6.271   7.100  0.0491 -0.0680 -0.9902
17812SOL    HW258122   3.211   6.224   7.117  0.2662  0.6292 -0.8253
17813SOL     OW58123   6.912   7.846   4.195 -0.0324  0.5153 -0.3195
17813SOL    HW158124   6.893   7.939   4.200  0.7495  0.6459  0.8594
17813SOL    HW258125   6.833   7.803   4.228 -0.1800  0.7884 -0.3172
17814SOL     OW58126  11.821   9.971   9.437 -0.0158 -0.1240 -0.2617
17814SOL    HW158127  11.829   9.878   9.456 -2.3830 -1.1620 -3.4479
17814SOL    HW258128  11.744  10.000   9.485  0.9066  0.3446  0.9881
17815SOL     OW58129   3.951   3.214   7.619 -0.3911 -0.5060 -0.3244
17815SOL    HW158130   3.866   3.213   7.576 -0.1572 -0.1570 -0.8116
17815SOL    HW258131   4.009   3.167   7.559 -0.0519  0.0257 -0.4278
17816SOL     OW58132   5.653   2.314   4.132 -0.0059  0.8032  0.3493
17816SOL    HW158133   5.608   2.278   4.055  1.1459  0.5147 -0.2011
17816SOL    HW258134   5.658   2.240   4.193 -0.3529  0.8672  0.4629
17817SOL     OW58135   8.454   9.463   0.632 -0.5056  0.3820  0.8739
17817SOL    HW158136   8.447   9.495   0.722 -1.9364  1.3398  0.4598
17817SOL    HW258137   8.512   9.387   0.638  0.7003  1.3612  2.3481
17818SOL     OW58138   9.812   1.496   5.928  0.0047  0.3672  0.1133
17818SOL    HW158139   9.743   1.449   5.881 -0.5936  0.6396  0.6983
17818SOL    HW258140   9.800   1.587   5.903 -1.0315  0.6800  1.6143
17819SOL     OW58141   4.914   8.383   1.810 -0.0940  0.2550 -0.5551
17819SOL    HW158142   4.898   8.293   1.836  1.6580 -0.4112 -1.6394
17819SOL    HW258143   4.885   8.436   1.885 -1.4121 -1.1479 -0.0180
17820SOL     OW58144   4.652   0.705   3.669  0.0073 -0.1931 -0.5539
17820SOL    HW158145   4.694   0.681   3.752  2.4544  1.1803 -1.2953
17820SOL    HW258146   4.580   0.642   3.660  0.3688 -1.1198  2.0196
17821SOL     OW58147   6.857   6.234   8.854 -0.8445 -0.3878  0.4214
17821SOL    HW158148   6.790   6.270   8.796  0.4412 -0.1276 -0.9639
17821SOL    HW258149   6.882   6.152   8.814 -1.3204 -1.2097  1.7263
17822SOL     OW58150   2.837   3.105   8.417  0.5275 -0.2601 -0.0931
17822SOL    HW158151   2.749   3.119   8.385  0.3113 -0.3472  0.4493
17822SOL    HW258152   2.876   3.193   8.420 -0.0202 -0.0378  1.0028
17823SOL     OW58153   6.349   4.315   0.191  0.0117 -0.5250  0.0100
17823SOL    HW158154   6.350   4.408   0.213 -0.6088 -0.8504  1.5972
17823SOL    HW258155   6.291   4.308   0.116 -0.6863  0.2706  0.4611
17824SOL     OW58156   8.566   7.789   4.375 -0.4467  0.0495  0.3080
17824SOL    HW158157   8.560   7.700   4.410 -3.1746  0.5697  1.3672
17824SOL    HW258158   8.556   7.846   4.451 -0.7126  1.2563 -0.6039
17825SOL     OW58159  10.850   6.250   8.177  0.1345  0.0834  0.3322
17825SOL    HW158160  10.776   6.277   8.124  1.1360  2.3068 -0.0268
17825SOL    HW258161  10.907   6.202   8.116 -0.5773 -0.9012  0.4156
17826SOL     OW58162   6.622   0.120   8.970  0.1949 -0.3718 -0.2363
17826SOL    HW158163   6.532   0.147   8.987 -1.0376 -2.1718 -3.0829
17826SOL    HW258164   6.637   0.047   9.030  0.0575  0.4019  0.7627
17827SOL     OW58165   0.334  11.552   4.155 -0.1973 -0.5989 -0.0858
17827SOL    HW158166   0.408  11.492   4.154  0.5133  0.2507  0.2304
17827SOL    HW258167   0.366  11.628   4.204 -1.3708 -0.3452  0.3084
17828SOL     OW58168   5.519  10.198   7.111  0.2537  0.8968 -0.2487
17828SOL    HW158169   5.500  10.161   7.197  1.1846  0.2904 -0.2946
17828SOL    HW258170   5.436  10.193   7.064 -0.6117  2.4026  1.0145
17829SOL     OW58171   5.362  10.940   4.906 -0.2707  0.4899 -0.4161
17829SOL    HW158172   5.381  10.847   4.904  0.2597  0.4828  1.9840
17829SOL    HW258173   5.277  10.947   4.950 -0.5237  1.1169 -0.9871
17830SOL     OW58174  11.132   1.613   8.092 -0.3987  0.1173  0.1097
17830SOL    HW158175  11.070   1.621   8.165  0.0323 -1.0038  0.6208
17830SOL    HW258176  11.077   1.611   8.014 -0.7943  3.4890  0.1446
17831SOL     OW58177   5.613  11.359   3.073 -0.4232 -0.6262  0.2232
17831SOL    HW158178   5.665  11.417   3.018 -1.7237 -0.0586 -0.4391
17831SOL    HW258179   5.523  11.390   3.063 -0.6017  0.4115  3.7576
17832SOL     OW58180   9.877   4.058   1.562  0.3010 -0.4870  0.1281
17832SOL    HW158181   9.891   4.147   1.595 -0.6031 -0.3187  0.0830
17832SOL    HW258182   9.857   4.007   1.640  1.6462 -0.8426  0.2626
17833SOL     OW58183   3.603  10.227   9.808  0.4000 -0.0804 -0.3751
17833SOL    HW158184   3.668  10.218   9.878 -0.2177  0.1454  0.2335
17833SOL    HW258185   3.617  10.150   9.753 -0.1613 -1.1183  0.8817
17834SOL     OW58186   4.979   5.217   1.544 -0.1698  0.4752  0.3621
17834SOL    HW158187   4.887   5.191   1.544 -0.4988  1.5230  1.4639
17834SOL    HW258188   5.028   5.135   1.552 -1.0444 -0.0281  0.6600
17835SOL     OW58189   9.549   4.969   8.919  0.2729  0.2193 -0.0309
17835SOL    HW158190   9.553   4.948   8.826  0.5128 -2.0144  0.4308
17835SOL    HW258191   9.492   4.902   8.956  0.8937  0.5291  1.5753
17836SOL     OW58192   9.912   5.836   2.262  0.4408  0.0423 -0.0898
17836SOL    HW158193   9.969   5.885   2.203 -0.1298  1.5256  0.5221
17836SOL    HW258194   9.857   5.903   2.303  0.4066 -0.9900  1.6697
17837SOL     OW58195  11.764  11.975   7.279 -0.1225 -0.4472  0.7717
17837SOL    HW158196  11.783  11.914   7.350  1.1652 -0.4250  0.4730
17837SOL    HW258197  11.817  12.052   7.299 -0.3207 -0.1472  0.1653
17838SOL     OW58198   0.020   7.451  11.487 -0.1998 -0.0626  0.0011
17838SOL    HW158199  -0.061   7.496  11.463  0.5374  0.8566 -0.8689
17838SOL    HW258200   0.067   7.441  11.404 -0.2857 -2.4025  0.1599
17839SOL     OW58201   4.231   2.410   8.603 -0.1658  0.2531 -0.2767
17839SOL    HW158202   4.266   2.364   8.527 -0.8308 -1.9658  0.6951
17839SOL    HW258203   4.154   2.360   8.628  0.7453  0.1459  2.6314
17840SOL     OW58204   6.334   7.418  10.791 -0.5032  0.2402 -0.0073
17840SOL    HW158205   6.389   7.381  10.860 -0.9173  1.0138  0.7499
17840SOL    HW258206   6.375   7.502  10.771 -0.7684  0.3146 -0.2322
17841SOL     OW58207   7.413   7.812   8.828  0.7769  0.3841  0.3413
17841SOL    HW158208   7.381   7.726   8.801  1.6944 -0.2892  1.3021
17841SOL    HW258209   7.481   7.793   8.892 -1.1546  1.8269  3.0702
17842SOL     OW58210   0.270   6.114   7.614 -0.0669  0.5654  0.4614
17842SOL    HW158211   0.200   6.147   7.557 -0.1484 -0.4989 -0.0787
17842SOL    HW258212   0.350   6.127   7.565 -0.1812 -0.7749 -0.1301
17843SOL     OW58213   1.840   9.733  10.160  0.1308 -0.4103  0.1882
17843SOL    HW158214   1.763   9.697  10.117  0.0120 -0.4611  0.4427
17843SOL    HW258215   1.910   9.723  10.096  0.0556 -0.9128  0.1765
17844SOL     OW58216   4.626   6.165   0.929  0.1242 -0.1731  0.0520
17844SOL    HW158217   4.626   6.248   0.882  1.4346 -0.8241 -1.2113
17844SOL    HW258218   4.703   6.119   0.894 -0.1981 -1.6408  1.1944
17845SOL     OW58219   0.217   1.859  11.242  0.2801 -0.3824 -0.1972
17845SOL    HW158220   0.199   1.940  11.194 -0.2698  0.4059  1.2821
17845SOL    HW258221   0.143   1.850  11.302  1.1803 -1.0772  0.8380
17846SOL     OW58222   1.327   6.396   1.074  0.1202  0.2340 -0.1705
17846SOL    HW158223   1.291   6.480   1.101  0.9275  0.3581  0.5686
17846SOL    HW258224   1.409   6.388   1.124  1.3309  0.1474 -2.0788
17847SOL     OW58225   5.546   1.269   9.093  0.1300 -0.4621 -0.1560
17847SOL    HW158226   5.509   1.254   9.180 -3.8245  2.9047 -0.9514
17847SOL    HW258227   5.515   1.196   9.040 -0.5587 -0.6471  0.4969
17848SOL     OW58228   9.617  11.184   9.648 -0.0308  0.0844 -0.1098
17848SOL    HW158229   9.567  11.251   9.602 -1.4038 -0.2528  0.8099
17848SOL    HW258230   9.554  11.113   9.662  0.6704 -0.3067  1.2136
17849SOL     OW58231   2.003   9.755   1.009  0.3705 -0.0740  0.2811
17849SOL    HW158232   2.021   9.761   0.915  0.7804  0.8693  0.4067
17849SOL    HW258233   2.089   9.751   1.050  0.1887 -1.4121  0.5843
17850SOL     OW58234   1.458   9.942   5.876  0.1640  0.4349  1.1344
17850SOL    HW158235   1.460   9.861   5.825  0.3876 -0.1040  1.9957
17850SOL    HW258236   1.543   9.983   5.861 -0.4361  1.2201 -0.4003
17851SOL     OW58237   2.336   8.734   4.547  0.0586  0.1617 -0.5841
17851SOL    HW158238   2.288   8.662   4.506 -1.9454  0.4374  1.0961
17851SOL    HW258239   2.282   8.811   4.530  1.5250  1.0762 -1.2623
17852SOL     OW58240   8.989   1.947   0.932 -0.1133 -0.1509 -0.0118
17852SOL    HW158241   9.077   1.918   0.958 -0.7137 -0.0495  2.3134
17852SOL    HW258242   8.987   2.041   0.953 -0.8330 -0.1840  0.0907
17853SOL     OW58243   3.932   5.739   3.941 -0.1066  0.0213 -0.1017
17853SOL    HW158244   4.002   5.763   3.880 -0.8494  1.1377 -0.5406
17853SOL    HW258245   3.914   5.819   3.990 -0.5565 -0.4623  0.5361
17854SOL     OW58246   0.284   6.292   5.383  0.1550 -0.1524 -0.1731
17854SOL    HW158247   0.255   6.249   5.464 -0.6697  0.8668  0.0954
17854SOL    HW258248   0.322   6.222   5.330  1.8559 -0.6564  1.5870
17855SOL     OW58249   9.967  10.781   2.919 -0.1445  0.3022 -0.4348
17855SOL    HW158250  10.013  10.824   2.991 -0.8084 -0.5724  0.5413
17855SOL    HW258251   9.983  10.687   2.932 -1.2556  0.0512 -0.7116
17856SOL     OW58252   4.603   2.420   7.831  0.0235  0.7931 -0.8093
17856SOL    HW158253   4.533   2.355   7.824 -0.5331  1.3416 -0.4389
17856SOL    HW258254   4.678   2.371   7.867  0.0679  0.0436 -1.8753
17857SOL     OW58255   1.579   5.110   2.082 -0.0812 -0.2365  0.2929
17857SOL    HW158256   1.509   5.054   2.048  1.2885 -1.6610 -0.3044
17857SOL    HW258257   1.571   5.192   2.032 -1.2483 -0.4148  0.1701
17858SOL     OW58258   0.995   5.139  10.668  0.1543 -0.0690  0.1049
17858SOL    HW158259   1.061   5.124  10.600  0.0120 -1.2951  0.2023
17858SOL    HW258260   0.938   5.206  10.631  0.0041 -0.8002 -1.0789
17859SOL     OW58261  10.889   3.253  10.575  0.6291 -0.1475 -0.0113
17859SOL    HW158262  10.967   3.296  10.609  2.3786 -1.4750 -2.0480
17859SOL    HW258263  10.854   3.203  10.649  1.9733  0.1210  0.8354
17860SOL     OW58264   8.088   6.998   4.056 -0.4035  0.4863  0.7511
17860SOL    HW158265   8.163   6.949   4.088 -1.1940  0.4141  2.6486
17860SOL    HW258266   8.125   7.064   3.998  1.1493  0.4846  1.6855
17861SOL     OW58267   9.577   3.441   0.963  0.0052  0.3222  0.2886
17861SOL    HW158268   9.557   3.370   0.902 -0.8710  0.4287  0.4445
17861SOL    HW258269   9.503   3.500   0.956  0.6419  1.1374  0.3000
17862SOL     OW58270  11.898   8.397  10.931 -0.1872 -0.1395 -0.9156
17862SOL    HW158271  11.943   8.319  10.900  1.6995  0.0730  1.0505
17862SOL    HW258272  11.938   8.469  10.883  0.1135 -0.1404 -0.6695
17863SOL     OW58273   8.107   7.988   4.934 -0.4413 -0.5751  0.2662
17863SOL    HW158274   8.158   7.984   4.853  2.4495 -1.6387  1.9856
17863SOL    HW258275   8.090   7.896   4.956 -0.6075 -0.3311  1.2023
17864SOL     OW58276  10.744   6.923   4.630  0.2976 -0.5502  0.1054
17864SOL    HW158277  10.747   6.848   4.571 -0.6097 -0.1271 -0.5004
17864SOL    HW258278  10.651   6.944   4.637  0.5550  0.6368  0.1253
17865SOL     OW58279  10.971   1.638   9.259 -0.3495  0.6829 -0.2929
17865SOL    HW158280  10.942   1.724   9.228 -2.3859  0.4065  0.6400
17865SOL    HW258281  10.907   1.577   9.223 -0.6592 -0.0619  1.4254
17866SOL     OW58282   4.953   2.109   7.311  0.1768  0.6500  0.9042
17866SOL    HW158283   4.861   2.098   7.335  0.2436 -0.8223  0.5883
17866SOL    HW258284   4.990   2.021   7.319  1.8352  1.4168  2.1088
17867SOL     OW58285   6.560   4.141   0.126  0.0654  0.1223 -0.8883
17867SOL    HW158286   6.493   4.077   0.101 -1.2984  0.0507  2.3287
17867SOL    HW258287   6.510   4.214   0.164  1.7422  1.4612 -1.1160
17868SOL     OW58288  10.592   4.635   2.673 -0.5458  0.1013 -0.4617
17868SOL    HW158289  10.538   4.655   2.596  1.1038  1.2817 -1.3678
17868SOL    HW258290  10.652   4.709   2.680  0.1521 -0.5819  1.2570
17869SOL     OW58291   7.659   6.131  10.096  0.6078  0.3236  0.4359
17869SOL    HW158292   7.564   6.135  10.097  0.5719  0.4915 -1.3063
17869SOL    HW258293   7.681   6.046  10.133 -0.2568 -0.1594 -0.1576
17870SOL     OW58294   1.184   2.813   0.454 -1.1684  0.1503  0.3556
17870SOL    HW158295   1.103   2.795   0.407 -1.5028 -2.6524  1.8111
17870SOL    HW258296   1.163   2.886   0.512 -2.5123 -0.1890  0.3247
17871SOL     OW58297   2.886   4.175   3.381 -0.1917  0.0335  0.5929
17871SOL    HW158298   2.802   4.130   3.388 -0.0733 -0.1272  0.9710
17871SOL    HW258299   2.914   4.159   3.291 -2.1860  2.9375 -0.6811
17872SOL     OW58300   3.840   8.961   1.159  0.3946  0.2671 -0.5843
17872SOL    HW158301   3.895   8.975   1.235 -1.2009 -2.4384  1.2418
17872SOL    HW258302   3.777   9.033   1.161  0.9386  0.7294  0.1315
17873SOL     OW58303   6.987   0.938   0.590  0.1661  0.0586 -0.3373
17873SOL    HW158304   7.042   0.895   0.526  0.1080 -0.2147 -0.2045
17873SOL    HW258305   7.026   0.917   0.675  0.5678  0.8781 -0.3066
17874SOL     OW58306   2.211  11.434   2.802  0.3123 -0.2303 -0.2489
17874SOL    HW158307   2.145  11.497   2.773 -1.6608 -1.8984  0.3997
17874SOL    HW258308   2.171  11.348   2.787  3.6328 -1.5262 -2.8599
17875SOL     OW58309  11.958   5.124   1.693 -0.0347 -0.2341  0.2467
17875SOL    HW158310  12.053   5.133   1.683 -0.1075  0.6950  0.2671
17875SOL    HW258311  11.942   5.142   1.785 -0.4671  2.2600 -0.2412
17876SOL     OW58312   0.607  10.716   4.776 -0.4094  0.4829 -0.1952
17876SOL    HW158313   0.617  10.683   4.687  1.0434  0.7599 -0.1597
17876SOL    HW258314   0.629  10.641   4.832 -2.8400 -0.1737  0.0099
17877SOL     OW58315   5.233   7.460   5.679  0.3147  0.4141  0.4306
17877SOL    HW158316   5.273   7.519   5.615 -0.7962 -0.2026 -0.8825
17877SOL    HW258317   5.262   7.373   5.652  0.6730  0.2207  1.4127
17878SOL     OW58318   0.207   4.607  11.088 -0.0214 -0.0291  0.3993
17878SOL    HW158319   0.164   4.522  11.081  1.0238 -0.7038  1.6675
17878SOL    HW258320   0.153   4.656  11.149 -1.4497  0.8026 -1.4496
17879SOL     OW58321   5.303   2.418   5.660  0.0535  0.0823 -0.6871
17879SOL    HW158322   5.257   2.498   5.634  0.6318  0.6659  0.0649
17879SOL    HW258323   5.246   2.377   5.725  0.1280  0.2808 -0.4997
17880SOL     OW58324   7.276  10.405   8.253  0.1437  0.0179  0.0426
17880SOL    HW158325   7.352  10.399   8.196 -0.4292  1.2561 -0.8974
17880SOL    HW258326   7.230  10.321   8.241  0.8996 -0.3992 -0.0091
17881SOL     OW58327   7.701   4.990   2.842 -0.3256  0.4069  0.6032
17881SOL    HW158328   7.761   5.013   2.914  0.3304  0.6946 -0.0226
17881SOL    HW258329   7.683   4.897   2.855  0.1465  0.3499  0.8778
17882SOL     OW58330   8.163   5.577   7.134 -0.1887 -0.1340 -0.3824
17882SOL    HW158331   8.083   5.530   7.110 -0.4027 -0.4040  0.8127
17882SOL    HW258332   8.133   5.653   7.183  0.2788 -0.1499 -0.0678
17883SOL     OW58333   1.387   4.926   1.851 -0.2578 -0.4463  0.4144
17883SOL    HW158334   1.328   4.871   1.903  0.3596 -1.3563  0.1790
17883SOL    HW258335   1.351   4.924   1.763  1.6257 -3.4220 -0.4385
17884SOL     OW58336   5.476   8.978   2.421  0.8394 -0.4331  0.8818
17884SOL    HW158337   5.516   9.052   2.377  1.5307 -1.2226  0.1364
17884SOL    HW258338   5.463   8.913   2.352 -0.7332 -0.6216  1.3109
17885SOL     OW58339   3.103   0.917  11.272  0.3628 -0.5833 -0.2603
17885SOL    HW158340   3.015   0.934  11.305  0.4229 -1.4513  0.3733
17885SOL    HW258341   3.135   1.003  11.243  0.3317  0.2619  1.9920
17886SOL     OW58342  10.126   6.332   4.284  0.0639 -0.6453 -0.5178
17886SOL    HW158343  10.179   6.412   4.280 -1.2092  0.2262 -3.5047
17886SOL    HW258344  10.143   6.289   4.200 -2.2511 -1.4104 -0.6614
17887SOL     OW58345  11.824   9.796   1.384 -0.2518 -0.1590  1.0230
17887SOL    HW158346  11.897   9.833   1.434 -0.3254  0.4351  0.7103
17887SOL    HW258347  11.847   9.812   1.293 -0.0704 -1.3234  0.8529
17888SOL     OW58348   7.972   6.611   5.373  0.0745 -0.1303 -0.5790
17888SOL    HW158349   7.877   6.625   5.376 -0.0473 -0.8823 -0.6973
17888SOL    HW258350   8.009   6.698   5.382 -0.6339  0.2189 -0.9608
17889SOL     OW58351  11.613   0.141   8.714  0.2772  0.3516  0.0216
17889SOL    HW158352  11.520   0.150   8.693  0.0085  0.2857  1.1099
17889SOL    HW258353  11.655   0.215   8.669 -0.1504 -0.1754 -1.2747
17890SOL     OW58354   5.066   4.961   1.588 -0.4784  0.0567  0.0832
17890SOL    HW158355   5.133   4.899   1.619 -0.2273  0.2068 -0.1485
17890SOL    HW258356   5.028   4.918   1.511 -1.1759 -0.3645  0.6543
17891SOL     OW58357   1.876   4.489   1.394 -0.3683 -0.3907  0.0171
17891SOL    HW158358   1.933   4.451   1.327  1.2027 -0.6760  1.4461
17891SOL    HW258359   1.875   4.425   1.465 -1.6006  0.1144  0.4883
17892SOL     OW58360   9.306   1.462   6.401 -0.2848  0.2578 -0.1425
17892SOL    HW158361   9.399   1.438   6.394  0.4081  2.6047  0.2603
17892SOL    HW258362   9.272   1.404   6.469  0.4894 -1.5738 -1.2172
17893SOL     OW58363   3.786   8.307  10.760 -0.2714  0.6869 -0.0820
17893SOL    HW158364   3.833   8.282  10.839 -0.7360  1.3197  0.4121
17893SOL    HW258365   3.711   8.357  10.792  0.2272  2.0729 -0.9628
17894SOL     OW58366   6.484   5.262   4.256 -0.1434  0.1250  0.3849
17894SOL    HW158367   6.473   5.179   4.302 -0.3598 -0.1860 -0.2082
17894SOL    HW258368   6.455   5.243   4.166 -1.4343  1.1635  0.5456
17895SOL     OW58369   7.531   0.944   2.465  0.1905  0.2649 -0.2615
17895SOL    HW158370   7.616   0.932   2.508 -0.2043 -1.4259  0.1197
17895SOL    HW258371   7.476   0.987   2.531 -0.1005 -1.3615  0.6136
17896SOL     OW58372   0.227   8.266  10.523 -0.3564 -0.1731  0.4413
17896SOL    HW158373   0.311   8.288  10.562  0.1816 -1.2177 -0.0816
17896SOL    HW258374   0.212   8.175  10.549 -0.8127 -0.3307 -0.3476
17897SOL     OW58375   3.884   9.566   1.960 -0.0712 -0.0549 -0.6236
17897SOL    HW158376   3.938   9.506   2.012 -0.2570 -1.6698 -2.2240
17897SOL    HW258377   3.840   9.510   1.896 -1.9935  1.5057 -0.7691
17898SOL     OW58378   9.037   1.447   7.276 -0.7333  0.0741 -0.3325
17898SOL    HW158379   9.054   1.503   7.200 -1.3497  0.6978 -0.0217
17898SOL    HW258380   9.124   1.424   7.308 -0.4680  0.5150 -0.7135
17899SOL     OW58381   3.762   0.221   5.506 -0.1428  0.0731  0.1127
17899SOL    HW158382   3.850   0.254   5.523 -0.3164  1.7974 -1.8971
17899SOL    HW258383   3.746   0.157   5.575  1.5525  1.8320  2.2623
17900SOL     OW58384   5.141   0.779   6.487 -0.2572  0.0603  0.7628
17900SOL    HW158385   5.205   0.850   6.488 -0.8012  0.5607  0.7747
17900SOL    HW258386   5.144   0.741   6.575  0.0809  0.0297  0.7370
17901SOL     OW58387  11.881   5.501   2.248 -0.0388  0.5901 -0.1716
17901SOL    HW158388  11.956   5.454   2.285  1.0179  0.4483 -2.3236
17901SOL    HW258389  11.877   5.582   2.298  1.2624  0.3793  0.3238
17902SOL     OW58390   2.905   3.663   6.692 -0.2899 -0.4910  0.7963
17902SOL    HW158391   2.990   3.662   6.736  0.5435 -0.3577 -0.7444
17902SOL    HW258392   2.851   3.602   6.742  1.0126 -1.3019  1.2513
17903SOL     OW58393   9.712   9.860  11.054 -0.3465 -0.3909 -0.0562
17903SOL    HW158394   9.618   9.875  11.066 -0.4433 -0.3884 -0.7804
17903SOL    HW258395   9.740   9.931  10.996  0.2337 -0.0304  0.6362
17904SOL     OW58396  11.258   0.426   8.677  0.1122 -0.3830 -0.8318
17904SOL    HW158397  11.241   0.513   8.713 -0.2451  0.0500 -1.9797
17904SOL    HW258398  11.346   0.433   8.639  0.0724 -0.5131 -0.9482
17905SOL     OW58399   4.016   6.535   6.991 -0.1301 -0.4270  0.1061
17905SOL    HW158400   3.943   6.570   6.939  0.9562  0.1369 -1.0986
17905SOL    HW258401   4.033   6.602   7.057 -1.0204 -0.8077  0.7597
17906SOL     OW58402  10.758  10.994   6.729  0.5595 -0.0855 -0.3659
17906SOL    HW158403  10.686  11.009   6.667  1.9302 -0.5185 -2.1820
17906SOL    HW258404  10.774  11.080   6.768 -0.9343  0.0105  0.0959
17907SOL     OW58405   6.286   0.284   8.410  0.4105  0.6885 -0.1645
17907SOL    HW158406   6.354   0.286   8.477 -2.5495 -0.2924  3.1754
17907SOL    HW258407   6.248   0.372   8.412  0.2883  0.6477 -0.5520
17908SOL     OW58408  11.907   0.889   3.278 -0.4828 -0.0968  0.8365
17908SOL    HW158409  11.929   0.927   3.193 -0.7680  0.8716  1.1862
17908SOL    HW258410  11.982   0.833   3.298  0.0155  0.3766  0.3658
17909SOL     OW58411   5.330   1.113   7.482 -0.5773 -0.1576  0.2769
17909SOL    HW158412   5.393   1.119   7.554  0.7274 -1.4735 -0.6952
17909SOL    HW258413   5.352   1.187   7.425 -0.7116  0.0802  0.5295
17910SOL     OW58414  10.991   5.577   4.330  0.3370  0.1558  0.3993
17910SOL    HW158415  10.958   5.653   4.377 -0.7322 -0.5521  0.8431
17910SOL    HW258416  10.913   5.538   4.291  0.9060 -0.5687 -0.0416
17911SOL     OW58417  10.925   6.847   3.510  0.3795 -0.4878 -0.2504
17911SOL    HW158418  10.970   6.928   3.532  1.5133 -1.2882  0.5714
17911SOL    HW258419  10.923   6.845   3.415  1.6783 -0.1741 -0.3078
17912SOL     OW58420   2.734   2.232  11.969 -0.5018  0.4232  0.3939
17912SOL    HW158421   2.642   2.255  11.982 -0.5937 -0.5794  1.7123
17912SOL    HW258422   2.732   2.143  11.934 -0.0249  0.2461  0.8068
17913SOL     OW58423   3.594   9.292  10.360  0.0483  0.5360  0.1150
17913SOL    HW158424   3.632   9.295  10.272  0.9538 -1.9435  0.3667
17913SOL    HW258425   3.663   9.326  10.417 -0.3200  1.5712 -0.0316
17914SOL     OW58426   0.845   3.331   7.023  0.0330  0.1576 -0.0914
17914SOL    HW158427   0.893   3.306   6.944  0.0533  1.5191 -0.5462
17914SOL    HW258428   0.898   3.400   7.062 -0.1326 -0.2883  0.9666
17915SOL     OW58429   9.503   1.992   4.203 -0.1451 -0.0926  0.3615
17915SOL    HW158430   9.558   2.069   4.216  1.4512 -1.3566  1.6763
17915SOL    HW258431   9.414   2.023   4.215  0.0353  2.3054 -3.0898
17916SOL     OW58432  11.211   7.553   8.603  0.0513 -0.3051 -0.3919
17916SOL    HW158433  11.171   7.638   8.622  1.7491  0.3202  0.6475
17916SOL    HW258434  11.227   7.553   8.509 -0.6605  0.1860 -0.5170
17917SOL     OW58435  10.633   8.451   2.732 -0.6444 -0.1955 -0.1700
17917SOL    HW158436  10.579   8.405   2.669  2.4098 -1.5265 -2.0650
17917SOL    HW258437  10.648   8.537   2.693 -1.7862  0.3946  0.6390
17918SOL     OW58438   6.403   9.300   3.257 -0.1190 -0.0713  0.8066
17918SOL    HW158439   6.462   9.344   3.318 -0.3800  2.2444 -0.5057
17918SOL    HW258440   6.317   9.307   3.298 -0.2683  1.3464  0.3185
17919SOL     OW58441   5.916   9.659   9.934  0.0702 -0.1591  0.2237
17919SOL    HW158442   5.911   9.647   9.839  0.0360 -0.9801  0.3225
17919SOL    HW258443   5.856   9.731   9.953 -1.8229 -1.5689 -0.0957
17920SOL     OW58444   3.475  10.161  11.982 -0.2744 -0.1529 -0.3070
17920SOL    HW158445   3.439  10.158  12.071 -1.0200 -1.0574 -0.6246
17920SOL    HW258446   3.498  10.071  11.962  1.2928  0.2540 -0.4998
17921SOL     OW58447   1.140   2.168  10.681  0.0662  0.6496  0.5381
17921SOL    HW158448   1.168   2.249  10.639  1.5049 -0.9441 -1.8242
17921SOL    HW258449   1.045   2.171  10.678  0.0636  2.4133  0.9341
17922SOL     OW58450   5.739   2.404   1.135  0.6375 -0.0414 -0.1881
17922SOL    HW158451   5.789   2.322   1.138 -0.0186 -0.4488 -0.0682
17922SOL    HW258452   5.670   2.392   1.201  0.9178  0.8646  0.2775
17923SOL     OW58453   6.014   7.076   9.799  0.1138 -0.5563 -0.6138
17923SOL    HW158454   5.967   7.021   9.737  0.0252  0.1161 -1.1634
17923SOL    HW258455   6.092   7.104   9.752  0.2637 -0.3798 -0.2674
17924SOL     OW58456   6.056  10.544   1.556  0.1838 -0.2049  0.5023
17924SOL    HW158457   6.083  10.570   1.644 -2.2371 -0.0531  1.2665
17924SOL    HW258458   6.011  10.461   1.569 -0.8468  0.1810 -0.4773
17925SOL     OW58459   1.446   4.383   4.594  0.1215 -0.2576 -0.5686
17925SOL    HW158460   1.437   4.428   4.511 -0.7325  0.8218  0.0964
17925SOL    HW258461   1.536   4.402   4.622  0.2449 -0.2122 -0.9917
17926SOL     OW58462   8.643   6.052   8.748  0.5607 -0.2419  0.6261
17926SOL    HW158463   8.726   6.004   8.750  0.4044 -0.8242 -2.2938
17926SOL    HW258464   8.665   6.137   8.710 -0.0746 -0.1648  0.4136
17927SOL     OW58465   4.004  11.463   6.601 -0.2390  0.0575 -0.0942
17927SOL    HW158466   3.919  11.419   6.605 -0.9090  1.2854 -0.3106
17927SOL    HW258467   4.029  11.456   6.508 -0.2720  0.0161 -0.1005
17928SOL     OW58468   2.792   0.382   0.519  0.1215 -0.2330 -0.8633
17928SOL    HW158469   2.703   0.366   0.551  0.0831  1.2433 -0.1693
17928SOL    HW258470   2.783   0.387   0.424 -0.4858 -0.4351 -0.8160
17929SOL     OW58471   3.167   9.164   9.021  0.0078 -0.2176 -0.2343
17929SOL    HW158472   3.261   9.182   9.026 -0.2332  1.7038 -1.2657
17929SOL    HW258473   3.159   9.089   8.963  0.9013 -0.3014 -0.2556
17930SOL     OW58474  11.620   1.534  11.417  0.5788 -0.1033 -0.0008
17930SOL    HW158475  11.652   1.541  11.507  0.0341 -0.0288  0.1856
17930SOL    HW258476  11.535   1.491  11.425 -0.1909  1.2923 -0.3382
17931SOL     OW58477   2.821   8.992   9.523 -0.3031 -0.0869  0.0985
17931SOL    HW158478   2.856   8.973   9.436  1.9997 -0.1054  0.9602
17931SOL    HW258479   2.787   9.081   9.516  0.9177  0.3554 -0.5491
17932SOL     OW58480   4.265   2.368   9.517  0.6628  0.3090  0.0186
17932SOL    HW158481   4.320   2.305   9.563  0.1893  0.6535  1.1045
17932SOL    HW258482   4.311   2.452   9.528  0.6553  0.3570 -0.3248
17933SOL     OW58483   7.632   6.583  10.225 -0.5520 -0.0245  0.3230
17933SOL    HW158484   7.541   6.588  10.255  0.0237  2.5550  1.9700
17933SOL    HW258485   7.653   6.672  10.196  1.0511 -0.9037 -1.4354
17934SOL     OW58486   7.043   3.382   4.255  0.3162 -0.3599  0.3168
17934SOL    HW158487   7.006   3.373   4.343  1.1281  1.8633  0.9394
17934SOL    HW258488   7.137   3.364   4.266  0.5639  0.7090  0.0945
17935SOL     OW58489   8.085   9.261   9.016  0.3189  0.1457 -0.1532
17935SOL    HW158490   8.072   9.177   9.059 -0.0852  1.1068  1.6865
17935SOL    HW258491   8.029   9.257   8.938  0.9069 -1.5532 -0.5160
17936SOL     OW58492   4.213   9.403   8.775  0.1585 -0.3983 -0.2879
17936SOL    HW158493   4.130   9.355   8.777 -0.9531  1.4394  0.4848
17936SOL    HW258494   4.213   9.455   8.856  2.5978 -1.1571  0.2693
17937SOL     OW58495   1.947   1.859   8.097  0.2236  0.3376  0.1174
17937SOL    HW158496   1.983   1.870   8.009 -1.3276 -1.7356 -0.8715
17937SOL    HW258497   1.965   1.942   8.141  2.0121  1.0465 -1.7828
17938SOL     OW58498   8.455   7.276  11.775  0.1834 -0.1604  0.5633
17938SOL    HW158499   8.398   7.210  11.813  1.1613  0.1972  2.8194
17938SOL    HW258500   8.423   7.288  11.685 -2.1442 -1.1942  1.1997
17939SOL     OW58501   2.553   3.390   8.322  0.1616 -0.3402 -0.2564
17939SOL    HW158502   2.633   3.416   8.368 -0.2212  0.4576 -0.0080
17939SOL    HW258503   2.569   3.411   8.230 -0.6147  2.1797  0.0886
17940SOL     OW58504   7.636   5.954  11.597 -0.3380 -0.5072 -0.1220
17940SOL    HW158505   7.550   5.913  11.591 -0.0602 -1.0301 -0.6038
17940SOL    HW258506   7.693   5.885  11.632 -0.3085  0.1311  1.1814
17941SOL     OW58507   0.700   6.000   4.651  0.2560  0.1395 -0.4679
17941SOL    HW158508   0.759   5.952   4.708 -0.1033 -1.2869 -1.2566
17941SOL    HW258509   0.706   5.956   4.566 -1.4947  0.3089 -0.7251
17942SOL     OW58510  10.009   3.084  10.150 -0.4628  0.9397 -0.6404
17942SOL    HW158511  10.012   3.163  10.097  3.0394  1.2805 -0.1619
17942SOL    HW258512  10.018   3.012  10.087 -0.1925  1.1097 -0.7947
17943SOL     OW58513   2.223   4.140   4.083 -0.2630  0.5346  0.2624
17943SOL    HW158514   2.159   4.130   4.012  0.5152 -1.3733 -0.2218
17943SOL    HW258515   2.255   4.052   4.100 -0.5807  0.8999  3.2019
17944SOL     OW58516   0.458   4.592  11.940 -0.3413  0.3374  0.1482
17944SOL    HW158517   0.401   4.641  12.000 -1.2771 -0.6926  0.1414
17944SOL    HW258518   0.519   4.546  11.998 -0.5508  0.1970  0.2622
17945SOL     OW58519   5.201   2.711   1.524  0.3125 -0.6822 -0.2989
17945SOL    HW158520   5.166   2.755   1.601  0.2488  0.9147 -1.2026
17945SOL    HW258521   5.169   2.621   1.531  1.0926 -0.8460  2.0015
17946SOL     OW58522   8.697   0.082   7.149  0.7242 -0.3598 -0.3566
17946SOL    HW158523   8.780   0.039   7.165  0.5679 -0.8765 -0.9024
17946SOL    HW258524   8.708   0.170   7.184  1.5050 -0.4203 -0.4476
17947SOL     OW58525   4.278   3.443   9.342 -0.0623 -0.2115 -0.2506
17947SOL    HW158526   4.230   3.374   9.388 -0.2213 -0.1784 -0.3636
17947SOL    HW258527   4.209   3.498   9.304  0.0667 -0.1351 -0.3729
17948SOL     OW58528   2.834   8.742   3.439 -0.2167 -0.1895 -0.8162
17948SOL    HW158529   2.883   8.817   3.473 -2.5529  1.0390  0.0625
17948SOL    HW258530   2.884   8.665   3.467  0.1573  0.9138  1.8316
17949SOL     OW58531  10.875   4.018   3.271  0.8456  0.2081  0.2762
17949SOL    HW158532  10.879   4.111   3.252  0.1153  0.2963  0.5201
17949SOL    HW258533  10.786   4.004   3.305  0.4843 -0.7958 -0.9768
17950SOL     OW58534   4.133   7.757   3.322 -0.1668 -0.2311  0.8435
17950SOL    HW158535   4.153   7.847   3.299  0.4753 -0.4354  0.5756
17950SOL    HW258536   4.075   7.727   3.252 -1.8059  0.4808  1.8263
17951SOL     OW58537   2.033   6.665   2.874 -0.1118 -0.2078  0.6168
17951SOL    HW158538   2.017   6.624   2.789 -1.1576  1.4800 -0.0522
17951SOL    HW258539   1.952   6.712   2.894 -0.5530 -1.8794  3.3833
17952SOL     OW58540   4.995   2.744   4.612 -0.4095  0.2885 -0.5538
17952SOL    HW158541   4.923   2.743   4.675 -1.1877 -0.5411 -1.4351
17952SOL    HW258542   5.068   2.783   4.660 -1.2221  0.4343  0.5962
17953SOL     OW58543   8.830   8.704  11.388  0.3289  0.4482 -0.2161
17953SOL    HW158544   8.906   8.759  11.406  0.4829  0.2037 -0.1105
17953SOL    HW258545   8.865   8.628  11.341  0.2018  0.1664  0.1383
17954SOL     OW58546  11.378   3.559   1.529  0.5337  0.4800 -0.0321
17954SOL    HW158547  11.292   3.533   1.497  0.0845  1.1560  0.5792
17954SOL    HW258548  11.440   3.524   1.465 -0.2448  0.6653 -0.9049
17955SOL     OW58549   0.842   8.755   4.595  0.3500 -0.1199  0.2568
17955SOL    HW158550   0.784   8.805   4.538 -0.2370  0.1666  1.0794
17955SOL    HW258551   0.902   8.821   4.632  0.7609 -0.3101 -0.0716
17956SOL     OW58552  11.140   9.111   0.019 -0.1617 -0.0797 -0.3920
17956SOL    HW158553  11.175   9.023   0.006  0.3731  0.3376 -2.0830
17956SOL    HW258554  11.088   9.128  -0.059 -0.7297  0.9075  0.1747
17957SOL     OW58555  10.390  11.992   1.004 -0.6007 -0.2754 -0.3368
17957SOL    HW158556  10.382  11.925   0.936  0.3537 -0.3088 -0.4374
17957SOL    HW258557  10.405  12.074   0.957 -0.4187 -0.2181 -0.1853
17958SOL     OW58558   1.864   6.723   3.724 -0.2168 -0.1157  0.2724
17958SOL    HW158559   1.921   6.741   3.650 -1.6859  0.4109 -0.7639
17958SOL    HW258560   1.921   6.678   3.787  1.1429 -0.2892 -1.0185
17959SOL     OW58561   6.921  10.108   8.782  0.1596 -1.1412  0.0909
17959SOL    HW158562   7.008  10.095   8.820  0.1469 -0.6083  0.3131
17959SOL    HW258563   6.878  10.169   8.842  0.0850 -0.4047 -0.6877
17960SOL     OW58564   6.290   6.136  10.079 -0.4517  0.5402 -0.2751
17960SOL    HW158565   6.245   6.195  10.018 -0.2305  0.0736 -0.9071
17960SOL    HW258566   6.280   6.049  10.039 -2.0840 -0.1021  1.3865
17961SOL     OW58567   9.992   9.221   0.099  0.4346  0.1441 -0.2429
17961SOL    HW158568   9.920   9.282   0.115 -0.5108 -1.0105  0.0256
17961SOL    HW258569  10.045   9.224   0.179  0.2755  0.4357 -0.1479
17962SOL     OW58570   9.446   1.779   0.653 -0.1977 -0.1032 -0.5210
17962SOL    HW158571   9.406   1.864   0.672  0.3370 -0.5676  3.3238
17962SOL    HW258572   9.371   1.722   0.633 -0.7424  0.7039 -0.8759
17963SOL     OW58573  11.556   0.557  10.532  0.0527  0.3619  0.3697
17963SOL    HW158574  11.631   0.538  10.589  0.6241 -1.8631 -0.9941
17963SOL    HW258575  11.533   0.472  10.494 -1.6768  1.3999 -1.0600
17964SOL     OW58576  11.542   8.196  10.058  0.0166 -0.0023  0.5103
17964SOL    HW158577  11.613   8.133  10.072 -1.5914 -1.7602  1.0223
17964SOL    HW258578  11.541   8.210   9.963 -2.3576 -4.2660 -0.3226
17965SOL     OW58579   2.120   4.591   5.576 -0.1307  0.2840 -0.4847
17965SOL    HW158580   2.125   4.514   5.519  0.4452  0.6025 -0.8766
17965SOL    HW258581   2.178   4.655   5.535 -0.6324  0.9429 -0.1798
17966SOL     OW58582   0.458  11.236   8.143  0.1180 -0.0310  0.2340
17966SOL    HW158583   0.465  11.278   8.057  1.1085  1.7097  1.1144
17966SOL    HW258584   0.366  11.214   8.152  0.2351 -1.9050 -1.9816
17967SOL     OW58585   9.428   3.995   8.942  0.1543  0.3667  0.3293
17967SOL    HW158586   9.456   3.904   8.947 -1.2201 -0.0163  1.8066
17967SOL    HW258587   9.469   4.028   8.863  1.6429 -1.1950  0.3874
17968SOL     OW58588  10.954   5.859  11.281 -0.1512 -0.2605 -0.1599
17968SOL    HW158589  10.963   5.954  11.274  1.8089 -0.2757  1.4490
17968SOL    HW258590  10.865   5.846  11.315  0.3913  1.1722  1.9931
17969SOL     OW58591  11.907   3.626   8.285 -0.0827 -0.8520 -0.6020
17969SOL    HW158592  11.950   3.632   8.370  1.0717 -1.3410 -1.1193
17969SOL    HW258593  11.831   3.570   8.301 -0.5286 -0.0074  0.3322
17970SOL     OW58594   8.990   7.022   6.581  0.4541  0.6275 -0.1077
17970SOL    HW158595   8.903   6.985   6.568 -0.3144  2.3032 -0.0377
17970SOL    HW258596   9.023   6.978   6.659 -1.1816  1.3855  1.0661
17971SOL     OW58597   7.641   6.109   9.248  0.4757 -0.0090  0.1932
17971SOL    HW158598   7.725   6.065   9.236  1.4055  1.6567  0.3243
17971SOL    HW258599   7.651   6.192   9.202 -0.8227  0.5626  0.8930
17972SOL     OW58600   1.972  11.403  11.599  0.1280 -0.5144  0.1309
17972SOL    HW158601   1.931  11.342  11.661  0.4411 -0.8687 -0.0022
17972SOL    HW258602   2.060  11.368  11.586  1.1177  1.2023  1.7636
17973SOL     OW58603   1.709   9.547   4.243  0.2787  0.2214  0.1626
17973SOL    HW158604   1.619   9.569   4.222  0.5280  2.3027  1.0215
17973SOL    HW258605   1.760   9.624   4.216  1.5826 -0.2650  1.0974
17974SOL     OW58606   0.866   5.576   6.271 -0.3354 -0.6459 -0.1154
17974SOL    HW158607   0.784   5.624   6.278 -0.5361 -1.0631  0.5194
17974SOL    HW258608   0.849   5.492   6.315 -0.2782 -1.6801 -1.9585
17975SOL     OW58609   5.217   8.054   3.907 -0.0619  0.1427  0.1917
17975SOL    HW158610   5.171   8.116   3.851 -0.3488  0.2811  0.5776
17975SOL    HW258611   5.222   8.097   3.992  1.7277  0.5776 -0.0969
17976SOL     OW58612  11.583   6.002   6.683  0.1525  0.2680 -0.6645
17976SOL    HW158613  11.554   6.057   6.755 -0.1965 -0.0460 -0.5679
17976SOL    HW258614  11.503   5.964   6.647  0.5015 -1.2825  0.1465
17977SOL     OW58615  10.178   3.149  10.406 -0.0363 -0.4090  0.4536
17977SOL    HW158616  10.210   3.238  10.418  0.9061 -0.9606  2.6440
17977SOL    HW258617  10.130   3.151  10.323  0.9466  1.8281 -0.1352
17978SOL     OW58618   6.261   3.782  10.538  0.0814 -0.2570 -0.4564
17978SOL    HW158619   6.269   3.790  10.443 -1.3755  0.9647 -0.5048
17978SOL    HW258620   6.311   3.703  10.560  0.8586 -0.2763 -2.1602
17979SOL     OW58621   4.433   3.087   6.559  0.7169 -0.5064  0.4240
17979SOL    HW158622   4.377   3.106   6.484 -1.2748  1.0386  2.1402
17979SOL    HW258623   4.513   3.136   6.543  1.1784 -1.8186 -1.5611
17980SOL     OW58624  10.203   4.624   1.240  0.2557 -0.0834  0.1936
17980SOL    HW158625  10.146   4.689   1.280 -0.9561 -1.1983  0.3232
17980SOL    HW258626  10.215   4.655   1.150 -0.6022  0.1465  0.1498
17981SOL     OW58627   4.570  11.886   4.189 -0.0049  0.3020  0.1911
17981SOL    HW158628   4.598  11.796   4.172  1.6366  0.6391  0.9689
17981SOL    HW258629   4.624  11.939   4.131 -2.3256  0.7501 -1.7611
17982SOL     OW58630   3.825   3.343  10.323  0.2349  0.0698 -0.0683
17982SOL    HW158631   3.884   3.268  10.319 -1.1677 -1.0253 -1.8783
17982SOL    HW258632   3.828   3.371  10.415  1.4711 -1.6395  0.4622
17983SOL     OW58633   6.248  10.595   4.913  0.2122 -0.4887 -0.9188
17983SOL    HW158634   6.173  10.607   4.854 -0.2271  0.3756 -0.2205
17983SOL    HW258635   6.210  10.558   4.993  0.0651  2.1532  0.3452
17984SOL     OW58636   0.767   4.556   4.110 -0.0559 -0.0470  0.2123
17984SOL    HW158637   0.834   4.622   4.096 -0.8941  0.6961 -0.3777
17984SOL    HW258638   0.814   4.481   4.147  1.0792  0.4772 -0.1407
17985SOL     OW58639   5.013   0.990   7.242 -0.2455 -0.4036 -0.2082
17985SOL    HW158640   5.001   1.043   7.163  0.0694 -0.4563 -0.2915
17985SOL    HW258641   5.017   1.054   7.313  0.8489 -0.2641 -0.3850
17986SOL     OW58642   3.457   5.123   9.306  0.3307  0.0856 -0.2814
17986SOL    HW158643   3.461   5.193   9.240 -2.2835  0.3252 -0.2990
17986SOL    HW258644   3.485   5.045   9.259 -0.9689  0.3499 -1.5778
17987SOL     OW58645   2.314   2.338   3.719  0.0250  0.3935 -0.3975
17987SOL    HW158646   2.264   2.305   3.645 -1.3989 -1.5291  1.2839
17987SOL    HW258647   2.284   2.428   3.730 -1.6841 -0.1080 -0.6204
17988SOL     OW58648   0.679  10.257  10.995 -0.5414  0.1962  0.6126
17988SOL    HW158649   0.755  10.276  11.050  0.5077 -3.0004  0.4887
17988SOL    HW258650   0.606  10.248  11.056  0.0913 -0.8546  1.2398
17989SOL     OW58651   0.158   9.062  10.058  0.0266 -0.4777  0.0546
17989SOL    HW158652   0.183   9.068   9.966 -1.2038 -1.4725 -0.3707
17989SOL    HW258653   0.166   9.151  10.091 -0.3060  0.0504 -1.2315
17990SOL     OW58654   5.559   1.837   3.506 -0.7423 -0.1233  0.4952
17990SOL    HW158655   5.492   1.874   3.564 -1.7895 -1.0278 -0.1045
17990SOL    HW258656   5.541   1.876   3.421 -0.7498 -0.6885  0.2406
17991SOL     OW58657   2.676   0.547   7.451 -0.6767  0.4846  0.2298
17991SOL    HW158658   2.746   0.482   7.440 -1.9046 -0.5078 -2.8407
17991SOL    HW258659   2.596   0.495   7.453 -1.5377  1.7830  0.2082
17992SOL     OW58660   8.615   9.965   0.758  0.2944 -0.2266 -0.0723
17992SOL    HW158661   8.632   9.882   0.802  0.3175  0.2645  0.8778
17992SOL    HW258662   8.523   9.963   0.735  0.5690 -1.0293 -1.1962
17993SOL     OW58663   9.022  10.835   3.636  0.1851  0.2842  0.2081
17993SOL    HW158664   9.072  10.916   3.647  0.4443  0.1968 -0.2564
17993SOL    HW258665   9.066  10.791   3.563 -0.1529 -0.1216  0.2490
17994SOL     OW58666   1.406   6.801   3.612  0.5624 -0.2754 -0.1324
17994SOL    HW158667   1.392   6.893   3.634  0.9013 -0.3000  0.1871
17994SOL    HW258668   1.487   6.777   3.657  0.2054 -0.8722  0.1954
17995SOL     OW58669   9.486   4.488   6.707  0.1994  0.0084  0.5853
17995SOL    HW158670   9.445   4.412   6.665  1.9028 -1.9254  2.1987
17995SOL    HW258671   9.415   4.551   6.716 -1.5104 -1.7111 -0.1017
17996SOL     OW58672   5.241  11.502   1.154  0.4903 -0.0472 -0.1722
17996SOL    HW158673   5.294  11.491   1.232  1.0808  0.7184 -0.4556
17996SOL    HW258674   5.278  11.578   1.110 -1.0733  0.7524 -0.1844
17997SOL     OW58675   8.327   0.149   3.560 -0.1688  0.3770 -0.5509
17997SOL    HW158676   8.390   0.147   3.489 -1.6980  1.0842 -2.0011
17997SOL    HW258677   8.373   0.110   3.635  1.3023 -0.9093 -2.0586
17998SOL     OW58678   3.440   6.815   7.038  0.4146 -0.2407 -0.7446
17998SOL    HW158679   3.473   6.880   7.100  1.1577 -1.0609 -0.2614
17998SOL    HW258680   3.518   6.774   7.001 -0.0110  0.0926 -2.1084
17999SOL     OW58681   4.206   3.262   0.796 -0.0684 -0.2633 -0.7229
17999SOL    HW158682   4.162   3.272   0.880  0.7225 -0.4079 -0.2734
17999SOL    HW258683   4.147   3.209   0.743 -1.1607  0.8953 -0.7108
18000SOL     OW58684   8.788   6.588   7.737 -0.2865 -0.4497 -0.6054
18000SOL    HW158685   8.861   6.649   7.751 -2.0908  1.7518 -0.1924
18000SOL    HW258686   8.804   6.551   7.651  0.0160  1.9969 -1.6930
18001SOL     OW58687   5.868  10.183   0.174  0.1172  0.0866 -0.4081
18001SOL    HW158688   5.937  10.127   0.139 -1.2533 -2.1439  0.2721
18001SOL    HW258689   5.906  10.271   0.173  2.2235 -0.7566 -1.8858
18002SOL     OW58690   5.863   3.075   2.249  0.0377  0.3149  0.3416
18002SOL    HW158691   5.893   3.166   2.252  1.1562 -0.0571  1.4939
18002SOL    HW258692   5.917   3.035   2.180  0.5236  0.2176  0.7697
18003SOL     OW58693   4.838   0.892   0.778  0.3261  0.4602 -0.9567
18003SOL    HW158694   4.889   0.876   0.698 -0.1191  0.2521 -1.2036
18003SOL    HW258695   4.756   0.931   0.746 -1.0823 -2.2252 -0.8916
18004SOL     OW58696  11.903   8.858   1.149  0.2517  0.3101 -0.4757
18004SOL    HW158697  11.922   8.804   1.072 -0.6793 -0.4237 -0.2158
18004SOL    HW258698  11.952   8.816   1.220 -1.5258 -1.0672  0.0142
18005SOL     OW58699   0.255   6.065   4.010 -0.2958 -0.5992  0.2811
18005SOL    HW158700   0.243   6.052   4.104 -0.4512  3.2285  0.9525
18005SOL    HW258701   0.166   6.080   3.976  0.0495  2.8066  0.5560
18006SOL     OW58702   4.332   9.769  10.700 -0.2526 -0.4939 -0.2207
18006SOL    HW158703   4.313   9.727  10.783 -0.9622 -1.7325 -0.9747
18006SOL    HW258704   4.298   9.858  10.710  2.2947  0.3732  1.8041
18007SOL     OW58705   9.160   5.260   1.133 -0.3251 -0.1420  0.2804
18007SOL    HW158706   9.112   5.307   1.201  1.1659  0.3496  1.0545
18007SOL    HW258707   9.122   5.291   1.051  0.8271  2.8190  0.7199
18008SOL     OW58708   2.564   7.205   1.761 -0.3109  0.1474  0.2363
18008SOL    HW158709   2.642   7.161   1.794  0.5000  0.2746 -1.3818
18008SOL    HW258710   2.518   7.139   1.711 -0.8300  0.2769  0.5435
18009SOL     OW58711   5.172   9.881   7.514  0.4861 -0.0979  0.2086
18009SOL    HW158712   5.141   9.824   7.445 -0.3496  0.8005 -0.1818
18009SOL    HW258713   5.130   9.848   7.594 -0.9519  0.6688 -0.2024
18010SOL     OW58714   9.514   5.850  11.524  0.3652  0.0596  0.0041
18010SOL    HW158715   9.422   5.826  11.531  0.5314 -0.5568  0.1671
18010SOL    HW258716   9.561   5.768  11.540  0.9443  0.4139  0.1385
18011SOL     OW58717   6.635   8.807   5.961  0.2660 -0.5706  0.2379
18011SOL    HW158718   6.644   8.792   6.055 -0.4356 -0.1542  0.3747
18011SOL    HW258719   6.674   8.893   5.946 -0.4484 -0.2314  0.2992
18012SOL     OW58720   4.982   2.946  11.446 -0.1271  0.7883 -0.0322
18012SOL    HW158721   5.030   2.945  11.529  0.3868 -3.0751 -0.1927
18012SOL    HW258722   4.890   2.950  11.472 -0.0012 -1.1294  0.8277
18013SOL     OW58723   6.092   1.645  10.173 -0.5075 -0.0317  0.6114
18013SOL    HW158724   6.017   1.703  10.160  1.7414  2.7251 -1.1881
18013SOL    HW258725   6.120   1.622  10.085  1.2218 -0.3404  1.2050
18014SOL     OW58726   0.610  10.684   6.804  0.1353 -0.5655  0.3169
18014SOL    HW158727   0.544  10.686   6.873  1.7069 -0.6996  1.9029
18014SOL    HW258728   0.674  10.750   6.830  0.5447 -0.2907 -1.2776
18015SOL     OW58729   2.815  11.294   1.941  0.1669 -1.0236  0.1119
18015SOL    HW158730   2.849  11.284   1.852  0.4640 -1.0772  0.2268
18015SOL    HW258731   2.807  11.205   1.974 -2.0227 -1.1283 -0.6059
18016SOL     OW58732   2.900   9.433   8.749  0.1731 -0.3285 -0.8162
18016SOL    HW158733   2.918   9.424   8.843 -1.1343  1.3553 -0.3655
18016SOL    HW258734   2.955   9.506   8.721  2.8447 -2.6650 -2.1016
18017SOL     OW58735   1.513   4.168   1.811  0.3514 -0.0479  0.4375
18017SOL    HW158736   1.423   4.136   1.801  0.0295  0.8012  0.5035
18017SOL    HW258737   1.564   4.114   1.751  0.0202 -1.3720  1.2774
18018SOL     OW58738   4.288   7.461  10.648  0.1299  0.0840  0.5654
18018SOL    HW158739   4.325   7.417  10.725 -1.2347 -0.4836  0.9206
18018SOL    HW258740   4.349   7.441  10.577  1.3873  0.5794  1.4779
18019SOL     OW58741   2.445  11.078   9.877  0.3300  0.1634  0.7688
18019SOL    HW158742   2.483  11.126   9.951  0.1694  0.5708  0.5928
18019SOL    HW258743   2.372  11.132   9.849 -0.8135 -0.9380  1.5281
18020SOL     OW58744   9.893   1.429   6.424 -0.2835 -0.6517 -0.0210
18020SOL    HW158745   9.975   1.393   6.390  0.4315 -0.2490  1.2303
18020SOL    HW258746   9.883   1.513   6.379  2.0967  1.2127  2.6116
18021SOL     OW58747   8.623   8.174   9.615  0.4706  0.2669 -0.9251
18021SOL    HW158748   8.575   8.185   9.697  1.4347 -1.3405 -0.1128
18021SOL    HW258749   8.572   8.111   9.565 -0.2500  1.4296 -1.7258
18022SOL     OW58750   4.247   7.075   2.841  0.0448  0.5035  0.0879
18022SOL    HW158751   4.289   7.091   2.756 -1.2290 -1.0323 -0.9006
18022SOL    HW258752   4.265   6.982   2.859  1.3041  1.0772  2.1366
18023SOL     OW58753   2.775   7.499  11.546  0.3114  0.2102 -0.0205
18023SOL    HW158754   2.829   7.539  11.614  2.1934  0.0994 -1.3624
18023SOL    HW258755   2.811   7.533  11.464 -0.5949 -1.1633 -1.0339
18024SOL     OW58756   8.858   3.037   2.648 -0.1536 -0.6438  0.1555
18024SOL    HW158757   8.852   2.952   2.606  1.0661 -1.7251  2.0301
18024SOL    HW258758   8.775   3.046   2.695 -1.1979  0.2325 -1.7515
18025SOL     OW58759   7.165   5.698   2.238 -0.3062 -0.4726 -0.0733
18025SOL    HW158760   7.257   5.710   2.259 -0.1398 -1.9819  0.1620
18025SOL    HW258761   7.156   5.731   2.149  0.3567  0.0963  0.0645
18026SOL     OW58762   0.113   0.117  10.919  0.5431 -0.2352  0.4350
18026SOL    HW158763   0.120   0.178  10.846 -0.3802  0.6972  1.1090
18026SOL    HW258764   0.059   0.162  10.984  1.7020 -0.8641  1.8863
18027SOL     OW58765   5.138   7.146   5.725  0.1787  0.1743  0.3764
18027SOL    HW158766   5.220   7.167   5.679  0.6657 -0.9477  0.6996
18027SOL    HW258767   5.069   7.162   5.661  0.8052 -0.7808 -0.5587
18028SOL     OW58768   6.722   9.029   4.019 -0.7769  0.5443 -0.3181
18028SOL    HW158769   6.659   9.102   4.015 -0.8017  0.5046 -0.7597
18028SOL    HW258770   6.803   9.070   4.048 -1.0390  0.5745  0.3776
18029SOL     OW58771   4.187  10.295   9.411 -0.7484  0.6475  0.0149
18029SOL    HW158772   4.170  10.252   9.495 -2.7118  1.8459  0.2884
18029SOL    HW258773   4.269  10.256   9.380 -1.2456 -1.5818  1.3134
18030SOL     OW58774   0.321   5.945   6.857 -0.0651 -0.3050  0.1523
18030SOL    HW158775   0.334   5.994   6.939 -0.2212  1.5290 -0.8669
18030SOL    HW258776   0.406   5.907   6.838  0.2021  0.0031  0.7129
18031SOL     OW58777   9.552   1.205   1.712  0.1891  0.9331  0.4748
18031SOL    HW158778   9.558   1.145   1.637  0.5533  1.3230  0.1899
18031SOL    HW258779   9.460   1.200   1.739  0.1952  0.3126  0.3984
18032SOL     OW58780   2.503   6.888   5.593 -0.1747  0.1882  0.3073
18032SOL    HW158781   2.433   6.913   5.653 -0.1409  0.1929  0.3450
18032SOL    HW258782   2.569   6.957   5.603  0.2366 -0.2858  0.9370
18033SOL     OW58783   0.743   2.887   7.807 -0.1916  0.4058 -0.5591
18033SOL    HW158784   0.811   2.820   7.800  0.6279  1.0401  0.9948
18033SOL    HW258785   0.726   2.912   7.716 -0.7186 -2.0508 -1.2256
18034SOL     OW58786   5.365   4.862   8.320  0.1002  0.5149 -0.1047
18034SOL    HW158787   5.290   4.802   8.312 -0.2997  0.8053  1.2986
18034SOL    HW258788   5.413   4.831   8.397  1.4096  0.3821 -0.9416
18035SOL     OW58789  10.608   3.943   9.475 -0.0237 -0.0855  0.3744
18035SOL    HW158790  10.696   3.924   9.444  0.2811  2.1310 -0.3356
18035SOL    HW258791  10.620   3.973   9.565  0.2026  1.6408 -0.1838
18036SOL     OW58792   6.817   0.477   7.950 -0.1039 -0.1946 -0.1593
18036SOL    HW158793   6.864   0.394   7.949  0.4090  0.0859 -1.0016
18036SOL    HW258794   6.767   0.476   8.031  0.3028 -1.0963  0.0910
18037SOL     OW58795   9.373   4.308  11.209  0.0386 -0.1526 -0.0867
18037SOL    HW158796   9.308   4.249  11.171 -0.4537  0.7233 -0.6325
18037SOL    HW258797   9.379   4.281  11.301 -0.2948 -0.9376 -0.2901
18038SOL     OW58798   7.030   1.164  11.074 -0.5959  0.7100 -1.0222
18038SOL    HW158799   6.958   1.211  11.031  0.0955  1.5321 -1.3088
18038SOL    HW258800   7.092   1.232  11.099  0.7251 -0.0818 -1.9809
18039SOL     OW58801   9.426   4.455   1.219  0.6082  0.2290 -0.8086
18039SOL    HW158802   9.370   4.387   1.181  0.3895 -0.7078  1.0333
18039SOL    HW258803   9.368   4.529   1.232 -0.3036 -0.7508  1.1320
18040SOL     OW58804   5.187   7.552   0.418 -0.0468 -0.5573 -0.4081
18040SOL    HW158805   5.265   7.602   0.394 -0.8619  0.6444 -0.6243
18040SOL    HW258806   5.141   7.538   0.335 -0.4718 -0.5601 -0.1743
18041SOL     OW58807   4.598   0.887   5.321  0.9575  0.0477 -0.5420
18041SOL    HW158808   4.605   0.800   5.359  0.4873  1.1812  2.3895
18041SOL    HW258809   4.618   0.946   5.393  0.5219  2.4078 -2.2432
18042SOL     OW58810   1.051   7.255  11.914 -0.0824 -0.2613 -0.2821
18042SOL    HW158811   0.992   7.182  11.893 -0.4074  0.3371 -1.6031
18042SOL    HW258812   1.129   7.213  11.950 -0.2356 -1.2741 -1.0693
18043SOL     OW58813   7.031  10.523   3.888  0.1129 -0.0640  0.3049
18043SOL    HW158814   7.050  10.522   3.795  1.3540 -2.4350  0.4901
18043SOL    HW258815   6.941  10.555   3.895 -0.6931 -1.6463 -1.8820
18044SOL     OW58816   6.453   8.355   1.868 -0.5235 -0.3669 -0.4110
18044SOL    HW158817   6.494   8.268   1.863 -1.2136 -0.7506  0.3767
18044SOL    HW258818   6.367   8.343   1.829 -0.7482 -0.1173  0.0043
18045SOL     OW58819   0.544   7.425   5.326  0.0452 -0.2029 -0.0406
18045SOL    HW158820   0.488   7.377   5.264  0.4369 -2.7882  1.4654
18045SOL    HW258821   0.499   7.417   5.410  1.3301 -0.0073  0.6891
18046SOL     OW58822   3.699   8.789   6.503 -0.5266  0.0570  1.1358
18046SOL    HW158823   3.759   8.859   6.478 -0.0464 -0.4203  0.9565
18046SOL    HW258824   3.614   8.819   6.470 -0.0572 -0.1719 -0.3612
18047SOL     OW58825   4.478   9.521   1.107  0.0442  0.0808 -0.6956
18047SOL    HW158826   4.444   9.433   1.093 -0.0798 -0.2308  1.2539
18047SOL    HW258827   4.451   9.543   1.196  1.6518  1.3529 -0.4701
18048SOL     OW58828   9.449  10.118   1.150 -0.5691  0.3019 -0.1852
18048SOL    HW158829   9.428  10.128   1.242 -0.1160  3.5741 -0.3099
18048SOL    HW258830   9.379  10.063   1.115 -0.3067 -1.7178  2.1649
18049SOL     OW58831   2.107   2.071   1.436 -0.1069 -0.1412 -0.4864
18049SOL    HW158832   2.128   2.082   1.344  0.8855  2.2813 -0.0269
18049SOL    HW258833   2.038   2.135   1.454  1.4245  1.2141  0.9445
18050SOL     OW58834   2.780  11.851   5.577 -0.1838 -0.1820  0.2540
18050SOL    HW158835   2.808  11.914   5.511  1.3150 -0.2581  0.7805
18050SOL    HW258836   2.855  11.793   5.590 -1.3190 -1.7251  0.2299
18051SOL     OW58837   5.191   8.534  10.366 -0.1115 -0.1058 -0.2109
18051SOL    HW158838   5.202   8.616  10.318 -0.1237  0.4206  0.6690
18051SOL    HW258839   5.110   8.496  10.331 -0.8762  0.9534  0.3461
18052SOL     OW58840   3.738   4.297  10.154  0.1164 -0.6332 -0.2229
18052SOL    HW158841   3.723   4.347  10.235  1.0482 -0.4033 -0.1818
18052SOL    HW258842   3.762   4.210  10.184  1.2843 -0.3237 -0.2174
18053SOL     OW58843   4.258   1.962  10.133 -0.4838  0.3133 -0.1789
18053SOL    HW158844   4.225   1.883  10.090  0.8924  0.5676 -1.8337
18053SOL    HW258845   4.196   1.980  10.203 -0.8727 -2.2118  0.2235
18054SOL     OW58846   5.955   3.101  10.734 -0.4182 -0.3554  0.3843
18054SOL    HW158847   6.005   3.022  10.713 -0.7465 -0.6841  0.8221
18054SOL    HW258848   5.887   3.071  10.795 -0.0369  0.4079  1.2127
18055SOL     OW58849   5.944  10.532   8.820 -0.5678  0.0249 -0.5004
18055SOL    HW158850   5.871  10.559   8.763  0.0040  2.4682 -0.2036
18055SOL    HW258851   6.020  10.529   8.762  0.0084  2.4834  0.0037
18056SOL     OW58852   4.390  11.654   5.744 -0.0340 -0.1427  0.0706
18056SOL    HW158853   4.369  11.624   5.655  1.2429 -1.7457  0.2553
18056SOL    HW258854   4.306  11.676   5.783 -0.7163 -0.4017 -1.2013
18057SOL     OW58855   2.428   8.315   9.059 -0.2012  0.3047 -0.6148
18057SOL    HW158856   2.396   8.361   9.136  0.3745  1.5258 -1.0798
18057SOL    HW258857   2.511   8.357   9.038 -0.2275 -0.1549 -1.7606
18058SOL     OW58858   1.512   0.963  11.425  0.3961 -0.6227 -0.1937
18058SOL    HW158859   1.497   0.872  11.401 -0.6475 -0.1706 -1.4199
18058SOL    HW258860   1.439   0.984  11.483  0.4941 -0.5107 -0.1122
18059SOL     OW58861  11.498   4.754   2.141  0.2568 -0.0905 -0.2036
18059SOL    HW158862  11.458   4.823   2.088  0.5256  0.5681  0.4285
18059SOL    HW258863  11.586   4.742   2.104 -1.0016 -2.7678 -2.7241
18060SOL     OW58864   2.347   4.013   4.853  0.7230  0.1061 -0.0574
18060SOL    HW158865   2.364   4.107   4.861  0.9147  0.1367 -0.7667
18060SOL    HW258866   2.432   3.973   4.871  0.2783 -0.0363  1.9417
18061SOL     OW58867   2.115   2.017   5.819  0.0054 -0.1360 -0.4432
18061SOL    HW158868   2.147   1.992   5.906  3.6422  2.7830 -0.7083
18061SOL    HW258869   2.034   2.065   5.837  0.2648 -0.2444  1.2370
18062SOL     OW58870   1.584   2.299   0.738 -0.1097 -0.2039  0.2313
18062SOL    HW158871   1.625   2.371   0.691 -0.9967  0.0211 -0.2305
18062SOL    HW258872   1.656   2.242   0.763  0.4662  0.1136 -0.6657
18063SOL     OW58873   0.073  11.898   7.249 -0.7137 -0.2236 -0.1071
18063SOL    HW158874   0.041  11.903   7.159  0.8090  1.2639 -0.6135
18063SOL    HW258875   0.048  11.810   7.278 -1.3790 -0.6780 -1.9136
18064SOL     OW58876   8.123   2.777   0.586 -0.4393 -0.0965 -0.2527
18064SOL    HW158877   8.125   2.829   0.666  0.8900 -0.7696  0.1746
18064SOL    HW258878   8.030   2.757   0.572 -0.5508 -1.9052  2.3869
18065SOL     OW58879   3.632  11.441   6.659 -0.1279 -0.8131  0.5862
18065SOL    HW158880   3.705  11.384   6.634  1.5850  1.2160  0.6037
18065SOL    HW258881   3.603  11.480   6.576  0.6313  0.3673  0.8426
18066SOL     OW58882   7.384   9.158   1.392 -0.2576 -0.2556 -0.4604
18066SOL    HW158883   7.356   9.088   1.450 -0.0734 -0.3531 -0.4889
18066SOL    HW258884   7.363   9.238   1.439  0.8669 -0.3390  0.2100
18067SOL     OW58885   5.887   8.968   4.526  0.2849  0.4753 -0.7274
18067SOL    HW158886   5.802   8.984   4.566  0.2027 -0.0182 -0.6994
18067SOL    HW258887   5.900   9.041   4.466  0.5341  1.3781  0.3925
18068SOL     OW58888   5.426   6.074   1.965  0.6021  0.3055  0.8180
18068SOL    HW158889   5.507   6.023   1.962  1.3859  1.5179  1.1235
18068SOL    HW258890   5.439   6.145   1.902  0.0226  0.8714  1.3273
18069SOL     OW58891   1.175   4.314   4.275  0.0184 -0.1753 -0.0159
18069SOL    HW158892   1.234   4.369   4.327 -0.3464  0.2736 -0.0714
18069SOL    HW258893   1.129   4.376   4.218 -2.0807 -0.2411  1.5070
18070SOL     OW58894   7.854   4.985   3.068  0.7051 -0.4413  0.0004
18070SOL    HW158895   7.874   5.029   3.150  1.4088  0.3115 -0.5638
18070SOL    HW258896   7.865   4.892   3.087 -0.4369 -0.3774  1.1040
18071SOL     OW58897   3.475   4.784   1.951 -0.0287 -0.0626  0.3830
18071SOL    HW158898   3.415   4.828   1.890  2.7027  0.8086 -1.9049
18071SOL    HW258899   3.513   4.855   2.002  0.9610 -0.2470 -0.0640
18072SOL     OW58900  11.245  10.285   1.807  0.1444  0.4064 -0.4313
18072SOL    HW158901  11.168  10.231   1.791 -0.7285  2.1020 -2.2817
18072SOL    HW258902  11.319  10.224   1.803 -0.8774 -0.7885 -1.4966
18073SOL     OW58903   2.072   0.420  11.263  0.1334 -0.3928 -0.2272
18073SOL    HW158904   2.023   0.341  11.284 -0.1107  0.0317  0.8557
18073SOL    HW258905   2.025   0.490  11.309  0.4925  0.3459 -0.9594
18074SOL     OW58906   6.282   7.767   2.509  0.4628 -0.4019 -0.1312
18074SOL    HW158907   6.371   7.743   2.533  0.5742 -0.0038 -0.1379
18074SOL    HW258908   6.259   7.707   2.438  0.8100 -0.3513 -0.2876
18075SOL     OW58909   6.762   7.951   4.650  0.1099  0.0858 -0.3201
18075SOL    HW158910   6.779   8.045   4.644  3.2092 -0.3661  0.1403
18075SOL    HW258911   6.848   7.911   4.653 -1.0941 -2.9474 -2.1196
18076SOL     OW58912   0.487   6.306   3.482 -0.6692  0.0375  0.1651
18076SOL    HW158913   0.503   6.301   3.388 -0.2036  3.0548 -0.0006
18076SOL    HW258914   0.394   6.326   3.490 -0.4230  1.1917  0.2543
18077SOL     OW58915   0.597   9.725  11.954  0.3114 -0.1312  0.2683
18077SOL    HW158916   0.666   9.679  12.000 -1.5314 -0.9639  2.3785
18077SOL    HW258917   0.573   9.667  11.882 -0.1278 -1.2115  1.2601
18078SOL     OW58918   6.029   7.757   5.267 -0.2700 -0.0011 -0.1944
18078SOL    HW158919   6.045   7.702   5.191 -1.1126 -1.4112  0.6058
18078SOL    HW258920   6.096   7.825   5.262 -0.2477 -0.1025 -2.1289
18079SOL     OW58921   9.618   7.956   7.147 -0.4466  0.3118 -0.1149
18079SOL    HW158922   9.616   8.052   7.138 -0.8098  0.2318 -1.0394
18079SOL    HW258923   9.535   7.927   7.108 -1.9443 -0.1864  3.0727
18080SOL     OW58924   8.683   2.906   4.421  0.1521 -0.5381 -0.2069
18080SOL    HW158925   8.630   2.826   4.422  1.0169 -1.1212  0.3056
18080SOL    HW258926   8.651   2.958   4.494  3.0473 -2.7923  2.9605
18081SOL     OW58927   1.170   3.060   3.815  0.3402  0.0562  0.0075
18081SOL    HW158928   1.222   3.009   3.877 -0.4581 -0.7257  0.0498
18081SOL    HW258929   1.120   3.121   3.869 -0.6075 -0.8509  0.1896
18082SOL     OW58930   4.245   6.786   8.070  1.0547 -0.0767 -0.0348
18082SOL    HW158931   4.179   6.740   8.121  1.3259  0.5985  0.9512
18082SOL    HW258932   4.227   6.879   8.084  1.2989  0.1268 -0.9658
18083SOL     OW58933   7.636   2.131   2.954 -0.6255 -0.6871  0.2055
18083SOL    HW158934   7.680   2.157   2.873  0.6877 -0.7810  0.8693
18083SOL    HW258935   7.707   2.116   3.016 -1.5499 -1.8528  1.0196
18084SOL     OW58936   3.550  10.974   1.013 -0.0902  0.3485  0.8301
18084SOL    HW158937   3.457  10.960   1.029 -0.2188 -0.3868 -0.4490
18084SOL    HW258938   3.567  10.930   0.930  0.4509  4.2103 -1.3275
18085SOL     OW58939  10.953  10.100   6.304  0.0821 -0.6604 -0.4212
18085SOL    HW158940  10.882  10.162   6.290  1.2383  1.2252  1.4802
18085SOL    HW258941  11.006  10.105   6.225  0.1901  0.8997 -0.2854
18086SOL     OW58942   2.931   2.240   9.741 -0.2259 -0.1809 -0.0351
18086SOL    HW158943   2.933   2.319   9.795 -0.9894  0.8927 -1.5125
18086SOL    HW258944   2.992   2.257   9.670 -2.2925  0.2269 -1.8199
18087SOL     OW58945   5.702  10.681   9.560  0.4893 -0.1299 -0.3977
18087SOL    HW158946   5.725  10.630   9.483 -1.1866  1.2181 -1.8695
18087SOL    HW258947   5.702  10.772   9.531  0.7863  0.5160  1.4591
18088SOL     OW58948   0.652   2.756   0.834  0.3189  0.2305 -0.0135
18088SOL    HW158949   0.704   2.743   0.913  2.6181  1.0225 -1.3184
18088SOL    HW258950   0.700   2.709   0.766 -0.9640  0.5868 -1.2073
18089SOL     OW58951   9.012   6.763   9.961 -0.0974  0.3707 -0.0980
18089SOL    HW158952   9.036   6.846  10.001  1.1351 -0.5841  1.2570
18089SOL    HW258953   8.917   6.769   9.949  0.2473  2.9616 -2.5029
18090SOL     OW58954   5.664   0.779   2.015  0.9107 -0.0443  0.0110
18090SOL    HW158955   5.694   0.692   2.041  0.4251 -0.4460 -0.7540
18090SOL    HW258956   5.729   0.808   1.950  1.4194  0.4314  0.7195
18091SOL     OW58957   7.395   4.625   6.064 -0.0458  0.2861 -0.0046
18091SOL    HW158958   7.305   4.617   6.031 -0.2733 -0.3668  0.7100
18091SOL    HW258959   7.438   4.545   6.034 -0.0447  0.0465  0.6055
18092SOL     OW58960  10.766   2.629   4.631 -0.5391 -0.6982  0.7691
18092SOL    HW158961  10.695   2.659   4.574 -1.1282 -1.1067  1.2773
18092SOL    HW258962  10.825   2.582   4.572  1.7657  3.3569 -0.6282
18093SOL     OW58963   5.015   2.608   2.689  0.2803  0.2888  0.6764
18093SOL    HW158964   5.047   2.697   2.675  2.5762 -0.0579  2.8616
18093SOL    HW258965   5.093   2.553   2.677 -1.2774 -1.6097 -1.5877
18094SOL     OW58966  11.161   6.260   8.003  0.1415 -0.0947 -0.4199
18094SOL    HW158967  11.161   6.240   8.097  0.9480  0.5977 -0.2708
18094SOL    HW258968  11.108   6.190   7.965  0.3167 -0.7389  0.4740
18095SOL     OW58969  10.515   7.192   4.461 -0.1819  0.0014  0.0588
18095SOL    HW158970  10.552   7.164   4.377 -1.3865 -0.1118 -0.4438
18095SOL    HW258971  10.511   7.113   4.514 -0.4982 -0.1465 -0.1878
18096SOL     OW58972   2.565   4.623   5.161  0.0205  0.5759  0.2552
18096SOL    HW158973   2.569   4.718   5.148 -1.2532  0.5042 -0.9433
18096SOL    HW258974   2.524   4.590   5.081  2.5936 -1.2688 -0.4290
18097SOL     OW58975  10.605   2.532   3.613 -0.0227  0.2583  0.4607
18097SOL    HW158976  10.592   2.595   3.683  3.1130  0.0154  1.4311
18097SOL    HW258977  10.638   2.583   3.540 -0.9623  0.1863 -0.0264
18098SOL     OW58978   6.249   1.716   0.929  0.1409  0.6866 -0.2116
18098SOL    HW158979   6.245   1.647   0.864 -0.2761 -0.7727  1.2910
18098SOL    HW258980   6.289   1.790   0.883  2.4705 -1.1418 -1.3626
18099SOL     OW58981   7.173   9.637  10.990 -0.2212  0.0744  0.0199
18099SOL    HW158982   7.238   9.656  10.922 -0.0371  1.3583  0.5192
18099SOL    HW258983   7.206   9.682  11.068  0.2603 -2.4607  1.3868
18100SOL     OW58984   4.631   5.814   2.058 -0.0249  0.1272 -0.6300
18100SOL    HW158985   4.668   5.823   2.146  0.3786 -0.6992 -0.6971
18100SOL    HW258986   4.626   5.903   2.024  1.2048  0.3257 -0.3241
18101SOL     OW58987   8.983   5.109  11.424 -0.0320  0.0866  0.1892
18101SOL    HW158988   8.916   5.168  11.459  0.1831  0.0364  0.7001
18101SOL    HW258989   8.935   5.031  11.399 -0.3481  0.5546 -0.6953
18102SOL     OW58990   4.896   2.407  10.895 -0.2172  0.8024  0.4646
18102SOL    HW158991   4.875   2.334  10.836 -0.7851  0.5158  1.0064
18102SOL    HW258992   4.902   2.484  10.837  0.9401  0.2463 -0.1814
18103SOL     OW58993   2.890   8.187   4.660 -0.0430  0.3470 -0.0444
18103SOL    HW158994   2.835   8.124   4.613  1.2308 -1.1023  0.3663
18103SOL    HW258995   2.980   8.161   4.639  0.5209  1.9988  0.1933
18104SOL     OW58996   4.769   0.921   8.437 -0.1609  0.1865 -0.3268
18104SOL    HW158997   4.741   1.012   8.424  1.0432  0.3021 -2.6247
18104SOL    HW258998   4.689   0.870   8.425 -0.4102  0.8155 -1.4713
18105SOL     OW58999   4.549   0.399   9.308  0.1309 -0.0684  0.2174
18105SOL    HW159000   4.585   0.350   9.233 -1.1205  1.7637 -1.6895
18105SOL    HW259001   4.467   0.354   9.329  0.4287 -0.5185  0.4412
18106SOL     OW59002   9.606   2.719   6.047  0.5475  0.1424  0.3934
18106SOL    HW159003   9.629   2.804   6.008 -0.5997  0.1757 -0.2734
18106SOL    HW259004   9.592   2.662   5.971 -0.8660 -0.0304  0.7440
18107SOL     OW59005  11.435  10.992   6.352 -0.5538 -0.4827  0.0149
18107SOL    HW159006  11.352  10.947   6.341 -0.8264  0.0678 -0.2330
18107SOL    HW259007  11.464  10.968   6.440 -1.4306  0.0428  0.4659
18108SOL     OW59008  11.199   9.814   8.255  0.2888 -0.0157  0.2754
18108SOL    HW159009  11.208   9.719   8.249  0.8925 -0.0010  0.7833
18108SOL    HW259010  11.203   9.844   8.164  0.4936 -0.4480  0.1344
18109SOL     OW59011   2.597   4.189   5.895  0.3516 -0.0454  0.3550
18109SOL    HW159012   2.503   4.192   5.908  0.2300 -0.4286 -0.3476
18109SOL    HW259013   2.619   4.274   5.856  0.2338 -0.0980  0.1708
18110SOL     OW59014   6.819   4.158  10.343 -0.0868 -0.4402  0.2156
18110SOL    HW159015   6.889   4.092  10.341  1.9026  1.5075  1.4103
18110SOL    HW259016   6.816   4.192  10.254  0.1415 -0.8820  0.0313
18111SOL     OW59017   4.193  11.418  11.337 -0.4826 -0.7603 -0.2221
18111SOL    HW159018   4.265  11.358  11.319 -0.6308 -1.3098  0.9270
18111SOL    HW259019   4.221  11.464  11.417 -0.9347 -0.2107 -0.3764
18112SOL     OW59020   5.492   8.934   7.911 -0.2757  0.9218  0.3951
18112SOL    HW159021   5.453   8.880   7.842  0.6766 -0.0749  0.6083
18112SOL    HW259022   5.584   8.944   7.885  0.1437  0.3949  1.5767
18113SOL     OW59023   3.065   3.253   3.734 -0.5265 -0.3296 -0.0162
18113SOL    HW159024   3.064   3.348   3.723 -0.2366 -0.2974  0.2179
18113SOL    HW259025   3.150   3.234   3.774 -1.3821 -0.4745  1.8212
18114SOL     OW59026  10.398   2.392   9.554 -0.2089  0.5274  0.1993
18114SOL    HW159027  10.308   2.362   9.565  0.2729 -0.4125  1.8544
18114SOL    HW259028  10.397   2.439   9.470 -1.8293 -0.9272 -0.6712
18115SOL     OW59029  10.878   9.857   6.115 -0.8477 -0.3415  0.0581
18115SOL    HW159030  10.885   9.935   6.060 -0.1450  0.0833  0.7267
18115SOL    HW259031  10.967   9.843   6.147 -1.0579 -1.1618  0.3095
18116SOL     OW59032   5.476  10.719   7.000 -0.0368 -0.0612  0.7622
18116SOL    HW159033   5.523  10.796   7.031  1.0791  0.6121 -2.2520
18116SOL    HW259034   5.388  10.751   6.982 -0.3857 -0.2098  2.1016
18117SOL     OW59035   5.907   2.048   0.147  0.0437 -0.3387 -0.6224
18117SOL    HW159036   5.963   2.004   0.210 -0.0800  1.0678  0.5332
18117SOL    HW259037   5.822   2.006   0.157  0.6944 -2.0451 -1.9255
18118SOL     OW59038  10.516   0.333   5.391 -0.2955  0.2238  0.2410
18118SOL    HW159039  10.461   0.375   5.456  1.3970  0.0122  1.9001
18118SOL    HW259040  10.514   0.240   5.415 -2.4535 -0.4826 -2.2132
18119SOL     OW59041   1.131   4.272   2.779  0.5272 -0.1408  0.1103
18119SOL    HW159042   1.123   4.232   2.866  0.6255  0.7288  0.5308
18119SOL    HW259043   1.207   4.229   2.739  0.9811  0.0255  0.7797
18120SOL     OW59044  11.381  10.795  10.973 -0.3731  0.0176 -0.2779
18120SOL    HW159045  11.352  10.778  10.884 -0.6027 -0.2308 -0.1558
18120SOL    HW259046  11.339  10.878  10.996  1.4136  1.2544 -1.1699
18121SOL     OW59047   7.247   8.980   4.236 -0.1480 -0.0036  0.7724
18121SOL    HW159048   7.162   8.955   4.272 -0.2707 -0.2730  0.3004
18121SOL    HW259049   7.289   9.028   4.307 -0.5150 -0.2488  1.1658
18122SOL     OW59050   6.121  10.169   9.590  0.1083  0.4775  0.3621
18122SOL    HW159051   6.062  10.108   9.546 -0.5604  0.6524  1.0133
18122SOL    HW259052   6.067  10.244   9.612  1.2098  1.9475 -1.6281
18123SOL     OW59053   8.072   7.084   5.167 -0.0582  0.2273 -1.1352
18123SOL    HW159054   8.096   7.002   5.209  0.1301  0.4252 -0.8509
18123SOL    HW259055   7.993   7.112   5.212  1.0502  1.2750  0.2369
18124SOL     OW59056   7.523   2.671   3.806  0.2326  0.0368  0.3171
18124SOL    HW159057   7.433   2.681   3.836  0.7391  0.9428  1.6459
18124SOL    HW259058   7.516   2.651   3.713 -1.3234  0.3787  0.3419
18125SOL     OW59059   1.644   0.426   4.847  0.0702 -0.0754  0.2822
18125SOL    HW159060   1.717   0.367   4.826  1.1416  0.9949  0.8802
18125SOL    HW259061   1.673   0.472   4.926 -0.8855  1.0141  0.0168
18126SOL     OW59062   1.798   6.793   1.220 -0.6139 -0.0851  0.3323
18126SOL    HW159063   1.798   6.698   1.215  0.8792 -0.0776 -0.4991
18126SOL    HW259064   1.786   6.822   1.130  0.2639  0.4843  0.3914
18127SOL     OW59065   8.668   9.445   3.641 -0.0101 -0.0558 -0.0730
18127SOL    HW159066   8.574   9.446   3.657  0.1733 -0.6545  1.1279
18127SOL    HW259067   8.703   9.518   3.693  0.0702  0.9683 -1.4961
18128SOL     OW59068   9.703   9.293  10.557 -0.0643  0.2928 -0.4414
18128SOL    HW159069   9.685   9.274  10.465  0.7152 -1.6614 -0.2437
18128SOL    HW259070   9.798   9.303  10.562  0.0877 -1.1971  0.3581
18129SOL     OW59071  10.414   6.393   3.023  0.2736 -0.1373  0.2131
18129SOL    HW159072  10.342   6.335   3.048  0.3236  0.3199  1.4793
18129SOL    HW259073  10.405   6.469   3.080  2.4086 -0.5589  1.2204
18130SOL     OW59074  11.132   8.241   1.099 -0.2072  0.0048  0.0927
18130SOL    HW159075  11.061   8.305   1.102  0.0873  0.3372  0.1236
18130SOL    HW259076  11.119   8.186   1.176  0.9198  1.5398  1.4348
18131SOL     OW59077   8.475   4.174  10.756 -0.4304  0.2407 -0.2381
18131SOL    HW159078   8.531   4.099  10.773 -1.4792 -0.1493  1.7694
18131SOL    HW259079   8.501   4.239  10.821 -1.5697  0.4369  0.0557
18132SOL     OW59080   1.020   4.215   9.659 -0.7165 -0.4985  0.0508
18132SOL    HW159081   0.950   4.244   9.718  0.8425 -3.1381  3.4883
18132SOL    HW259082   0.991   4.130   9.627  0.2078 -0.8835  0.2118
18133SOL     OW59083  11.681   4.285  11.919 -0.2722 -0.2310  0.3164
18133SOL    HW159084  11.675   4.210  11.860  0.9569 -0.4596  0.4377
18133SOL    HW259085  11.696   4.360  11.861 -0.5294 -0.2268  0.2547
18134SOL     OW59086   8.801   4.140   7.803  0.4420  0.0544 -0.3314
18134SOL    HW159087   8.756   4.222   7.783  0.9417  0.8716  1.6359
18134SOL    HW259088   8.880   4.143   7.748  0.9109  1.3503  0.3639
18135SOL     OW59089  11.438   7.273   7.565 -0.1153 -0.4259 -0.3876
18135SOL    HW159090  11.383   7.264   7.488 -1.5586  0.0304  0.5525
18135SOL    HW259091  11.426   7.190   7.613 -0.3592 -0.1411  0.0498
18136SOL     OW59092   8.345   8.901   0.234 -0.2575  0.5249  0.2402
18136SOL    HW159093   8.302   8.891   0.319 -0.6312 -0.4122 -0.0475
18136SOL    HW259094   8.391   8.984   0.240  0.2187  0.1833  1.5720
18137SOL     OW59095   0.848   3.711   9.600 -0.0097 -0.0601 -0.0447
18137SOL    HW159096   0.878   3.656   9.527 -0.2110 -1.8941  1.1874
18137SOL    HW259097   0.897   3.792   9.590  0.5079 -0.5345 -1.8043
18138SOL     OW59098   4.883   2.441   5.018 -0.2793  0.1382 -0.4126
18138SOL    HW159099   4.890   2.393   4.936  3.0372  1.0602 -0.7916
18138SOL    HW259100   4.882   2.373   5.086  0.4400 -0.5548 -1.0809
18139SOL     OW59101   9.665   7.335   8.624  0.5633 -0.0216  0.4921
18139SOL    HW159102   9.735   7.373   8.570  0.7671  2.0607  2.1285
18139SOL    HW259103   9.704   7.255   8.660  1.4207  0.0907 -0.1654
18140SOL     OW59104   2.291   9.958   3.154  0.4456 -0.0851 -0.1748
18140SOL    HW159105   2.384   9.945   3.171  0.6534  1.6241  0.1506
18140SOL    HW259106   2.280   9.941   3.061  0.7719 -1.7603  0.0543
18141SOL     OW59107   0.381   3.874   2.663  0.8201 -0.1821  0.7828
18141SOL    HW159108   0.402   3.782   2.647  0.2559 -0.2785  0.5681
18141SOL    HW259109   0.445   3.922   2.612 -1.7302 -0.4606 -3.1084
18142SOL     OW59110   6.381   0.477   0.148  0.3901  0.5451  0.1180
18142SOL    HW159111   6.309   0.419   0.172 -0.3380  1.2382 -0.3729
18142SOL    HW259112   6.346   0.534   0.080  1.5216  0.6354 -0.4207
18143SOL     OW59113   1.466   2.881   3.095 -0.1738  0.3805  0.4143
18143SOL    HW159114   1.531   2.858   3.028 -1.3424  0.7113 -0.8808
18143SOL    HW259115   1.397   2.816   3.084 -0.0135 -0.0586  1.8815
18144SOL     OW59116   4.483   2.629   8.448 -0.0692 -0.0184 -0.3816
18144SOL    HW159117   4.405   2.677   8.419 -1.2941 -1.0416  1.0740
18144SOL    HW259118   4.543   2.634   8.374 -1.5447  0.7406 -1.5751
18145SOL     OW59119   3.968  11.080   1.096 -0.3665  0.3491  0.1048
18145SOL    HW159120   4.042  11.054   1.041 -0.8840  0.3688 -0.6216
18145SOL    HW259121   4.002  11.149   1.152  0.2743  0.0680  0.0738
18146SOL     OW59122   5.999   3.543   8.481 -0.1710 -0.8580 -0.1298
18146SOL    HW159123   6.034   3.501   8.402  1.3113  2.0930 -1.1835
18146SOL    HW259124   6.019   3.636   8.470 -3.2001  0.2024  2.0668
18147SOL     OW59125   3.872   8.409   1.888  0.2674 -0.5119  0.0409
18147SOL    HW159126   3.858   8.502   1.871 -0.0411 -0.1235  2.1527
18147SOL    HW259127   3.824   8.364   1.818  0.3632  0.8923 -0.9696
18148SOL     OW59128   5.770  10.675   1.197 -0.0507  0.5492 -0.0204
18148SOL    HW159129   5.754  10.587   1.233  1.0435  1.4671  3.0234
18148SOL    HW259130   5.696  10.690   1.138 -0.1984 -2.4360 -0.7635
18149SOL     OW59131   3.379   1.432   6.039 -0.3943  0.0454  0.3154
18149SOL    HW159132   3.297   1.414   5.993 -0.4299  0.8073  0.0656
18149SOL    HW259133   3.441   1.369   6.002 -0.5675  0.2604 -0.3613
18150SOL     OW59134   7.455   2.543   9.612  0.5283 -0.1718 -0.1715
18150SOL    HW159135   7.469   2.452   9.640 -0.8297 -0.4546 -0.3072
18150SOL    HW259136   7.499   2.549   9.527 -0.1706 -1.0090 -0.6170
18151SOL     OW59137   7.334   1.708   7.606  0.0841 -0.4682 -0.0095
18151SOL    HW159138   7.346   1.737   7.696  2.0834 -0.1527 -0.3155
18151SOL    HW259139   7.416   1.662   7.585  0.4759  1.0457 -2.2045
18152SOL     OW59140   5.058   3.936   9.006 -0.4891  0.2037 -0.2123
18152SOL    HW159141   4.971   3.934   8.965 -0.6596  0.3090  0.1391
18152SOL    HW259142   5.119   3.921   8.934 -0.7985  0.1743 -0.4696
18153SOL     OW59143   2.318   6.592   8.173 -0.1250 -0.4695 -0.0179
18153SOL    HW159144   2.328   6.507   8.216  0.1331 -1.3619 -1.7204
18153SOL    HW259145   2.263   6.572   8.096 -2.6869  1.4959  1.1672
18154SOL     OW59146   8.442   4.224   6.300 -0.3469  0.4570  0.2427
18154SOL    HW159147   8.397   4.225   6.216 -0.9414 -2.5229  0.4121
18154SOL    HW259148   8.372   4.225   6.366 -0.2691 -2.7169  0.5268
18155SOL     OW59149   8.010   4.246  10.228  0.3297  0.0994 -0.0672
18155SOL    HW159150   7.933   4.201  10.195  1.0137 -1.5065  0.4364
18155SOL    HW259151   7.996   4.251  10.323 -0.0840  1.6726 -0.1846
18156SOL     OW59152   6.226  10.952   0.993 -0.3575  0.1108 -0.0732
18156SOL    HW159153   6.294  10.889   1.014  1.3740  1.5977 -0.9697
18156SOL    HW259154   6.264  11.008   0.926 -1.8956  1.9708  0.5015
18157SOL     OW59155   1.470   1.079   5.068 -0.5966 -0.1413 -0.2611
18157SOL    HW159156   1.561   1.055   5.087 -0.7646  0.4388  1.4810
18157SOL    HW259157   1.428   0.997   5.045 -0.0692 -0.7789  0.9380
18158SOL     OW59158   8.544   5.318   7.803 -0.1362  0.3429  0.5887
18158SOL    HW159159   8.633   5.286   7.788 -0.0807  0.5708  0.4372
18158SOL    HW259160   8.542   5.342   7.895 -1.3127 -3.8144  1.8904
18159SOL     OW59161  10.169   0.861   6.740  0.1771  0.1108  0.4326
18159SOL    HW159162  10.119   0.886   6.817  0.7935  0.2211  0.8000
18159SOL    HW259163  10.257   0.844   6.773  0.2825 -0.4993 -0.1393
18160SOL     OW59164  11.342   0.568   0.801 -0.5125  0.0975 -0.3421
18160SOL    HW159165  11.397   0.491   0.814 -0.3006  0.3326  0.1587
18160SOL    HW259166  11.387   0.618   0.732  0.0668  0.4306  0.2593
18161SOL     OW59167  10.243  11.306   0.882  0.1323  0.6324  0.0536
18161SOL    HW159168  10.174  11.297   0.817  1.9858 -0.9266 -1.8257
18161SOL    HW259169  10.297  11.378   0.851  1.6864 -0.8606 -0.8786
18162SOL     OW59170   3.524   2.996   9.474 -0.0839 -0.5723 -0.0241
18162SOL    HW159171   3.448   3.035   9.517  0.7768  0.1217  0.8962
18162SOL    HW259172   3.489   2.963   9.391 -0.6798  3.0803 -1.3942
18163SOL     OW59173   6.867   7.569   0.220 -0.3205 -0.0353  0.2536
18163SOL    HW159174   6.845   7.590   0.129 -0.7568 -3.1608 -0.4704
18163SOL    HW259175   6.961   7.548   0.218 -0.5563 -1.1662  0.2526
18164SOL     OW59176   1.929   8.822   4.341  0.4858  0.0628  0.1537
18164SOL    HW159177   1.846   8.780   4.317 -0.0629  1.4154 -0.4199
18164SOL    HW259178   1.969   8.845   4.257  1.0550  0.1642  0.4468
18165SOL     OW59179   3.573   3.846  10.949  0.1267  0.1825  0.7978
18165SOL    HW159180   3.584   3.867  11.041  1.4576 -1.0387  0.9455
18165SOL    HW259181   3.619   3.763  10.937 -1.4318 -0.5412 -0.6157
18166SOL     OW59182   9.585  11.095   8.030  0.6338  0.1503  0.1792
18166SOL    HW159183   9.510  11.143   7.993  1.9095  1.7683 -0.4103
18166SOL    HW259184   9.587  11.013   7.981 -2.1667 -1.0505  1.8367
18167SOL     OW59185   8.667  10.504   2.313 -0.6065  0.3019 -0.0721
18167SOL    HW159186   8.668  10.410   2.329 -2.4404  0.4242  1.0169
18167SOL    HW259187   8.633  10.514   2.224 -0.4037 -0.0492 -0.1890
18168SOL     OW59188   8.216   4.785  10.722  0.3694 -0.3155  0.0048
18168SOL    HW159189   8.253   4.729  10.789  0.6260 -1.2495 -0.8947
18168SOL    HW259190   8.291   4.816  10.671  0.0056 -1.8850 -1.5664
18169SOL     OW59191   3.164   4.688   2.975 -0.5841 -0.3010  0.0650
18169SOL    HW159192   3.082   4.675   3.022 -2.0693 -2.2876 -2.7975
18169SOL    HW259193   3.225   4.626   3.016 -1.8822 -2.1085 -0.5948
18170SOL     OW59194   8.656   2.273  10.888  0.0620  0.0815 -0.1279
18170SOL    HW159195   8.726   2.236  10.941  0.4222 -0.5200 -1.0106
18170SOL    HW259196   8.604   2.325  10.950  1.1307  0.3301  0.5838
18171SOL     OW59197   9.243  11.342   9.397 -0.1643  0.3141 -0.2508
18171SOL    HW159198   9.223  11.435   9.384  2.5311  1.1408  0.8392
18171SOL    HW259199   9.201  11.320   9.480 -0.7583  0.5703 -0.4779
18172SOL     OW59200   0.208   2.989   3.814  0.0443 -0.1149 -0.3105
18172SOL    HW159201   0.223   2.962   3.723 -1.8948 -1.8088 -0.1933
18172SOL    HW259202   0.198   2.907   3.862 -2.4512  0.7299  0.7590
18173SOL     OW59203   5.405  10.542   1.419 -0.5209 -0.4100  0.2366
18173SOL    HW159204   5.435  10.598   1.347  1.4064 -0.4755  0.9172
18173SOL    HW259205   5.459  10.569   1.494 -2.4644 -0.3546  1.6765
18174SOL     OW59206   8.877   0.927   6.811 -0.0362  0.0875 -0.2062
18174SOL    HW159207   8.788   0.920   6.847  0.2531  0.6262  0.6451
18174SOL    HW259208   8.916   0.841   6.828  0.0085  0.2525  0.5357
18175SOL     OW59209   7.421   5.712   9.296 -0.6189  0.0166 -0.5464
18175SOL    HW159210   7.463   5.784   9.344  0.8021 -1.1666  0.0563
18175SOL    HW259211   7.418   5.640   9.359 -0.9749 -0.8078 -1.4886
18176SOL     OW59212   5.122  10.553  11.493  0.2726 -0.3453 -0.1479
18176SOL    HW159213   5.175  10.490  11.541  1.2899 -1.0248 -2.0433
18176SOL    HW259214   5.079  10.502  11.424 -1.8972  0.4192  0.5561
18177SOL     OW59215   3.471   9.132   0.270 -0.3199 -0.1003  0.4433
18177SOL    HW159216   3.516   9.054   0.303 -0.1498 -0.2960 -0.2183
18177SOL    HW259217   3.449   9.183   0.348  1.3739  0.1804  0.7751
18178SOL     OW59218   8.338   3.833   2.445  0.4519 -0.4046 -0.2279
18178SOL    HW159219   8.407   3.780   2.484  0.2379  1.3913  2.9895
18178SOL    HW259220   8.264   3.823   2.505  0.2810  3.0440  0.3277
18179SOL     OW59221   1.867   9.933   5.523  0.6883 -0.4787  0.1851
18179SOL    HW159222   1.953   9.958   5.489  0.9447  0.4993  1.4723
18179SOL    HW259223   1.879   9.925   5.617 -1.1109  2.0568  0.7371
18180SOL     OW59224  11.357   5.886   6.597 -0.3220 -0.4196 -0.2360
18180SOL    HW159225  11.306   5.807   6.582 -0.5025 -0.5634  1.0278
18180SOL    HW259226  11.292   5.956   6.601 -0.2122 -0.2795 -0.7721
18181SOL     OW59227   6.922   8.291  10.544 -0.1384 -0.0848 -0.1207
18181SOL    HW159228   7.003   8.260  10.503  0.1664  0.6727 -0.1042
18181SOL    HW259229   6.950   8.328  10.628  0.0715  3.4158 -1.5406
18182SOL     OW59230   2.773   0.588   8.169 -0.2682  0.3350  0.0436
18182SOL    HW159231   2.859   0.549   8.154 -0.1921  0.1203  0.9647
18182SOL    HW259232   2.791   0.664   8.225 -0.6923  0.2001  0.3714
18183SOL     OW59233   0.453   9.408   2.965  0.1128  0.0599 -0.0393
18183SOL    HW159234   0.473   9.340   2.900  4.0403  0.4264  0.5773
18183SOL    HW259235   0.419   9.481   2.913 -0.8217 -1.0920 -1.1180
18184SOL     OW59236   2.303  10.974   1.227 -0.2343  0.5212  0.1804
18184SOL    HW159237   2.263  10.976   1.314 -0.2403  0.4252  0.1806
18184SOL    HW259238   2.391  10.939   1.243 -0.5836 -0.4595  0.0152
18185SOL     OW59239   6.237   3.901   4.261  0.1406  0.2479  0.8439
18185SOL    HW159240   6.157   3.934   4.220  0.2950  0.0392  0.3719
18185SOL    HW259241   6.206   3.837   4.326 -0.1290  0.9046  1.3759
18186SOL     OW59242   2.843   9.546   7.823 -0.4521  0.0693  0.1350
18186SOL    HW159243   2.838   9.463   7.871 -1.8182 -0.1997 -0.4182
18186SOL    HW259244   2.932   9.549   7.789  0.1040 -0.4108  1.4822
18187SOL     OW59245   3.763   6.607   1.521 -0.1896 -0.1388  0.2688
18187SOL    HW159246   3.770   6.626   1.428 -2.5465 -1.3711 -0.2295
18187SOL    HW259247   3.831   6.661   1.562 -0.3459  1.8588 -1.9371
18188SOL     OW59248   6.699   4.800   7.732  0.0013 -0.1099  0.0041
18188SOL    HW159249   6.731   4.721   7.776  0.4605  0.1261  0.0941
18188SOL    HW259250   6.611   4.814   7.769  0.1606 -0.2295  0.4347
18189SOL     OW59251   0.569   9.944   2.393  0.3449 -0.5968  1.0793
18189SOL    HW159252   0.574   9.874   2.328 -0.3631 -0.3135  0.7103
18189SOL    HW259253   0.633  10.008   2.363 -0.6544 -0.0195  0.0942
18190SOL     OW59254   0.785   9.495   1.485  0.1851  0.2451  0.5780
18190SOL    HW159255   0.719   9.564   1.473  1.5559  1.5033 -0.1642
18190SOL    HW259256   0.764   9.455   1.569 -1.5721  0.5329  0.3089
18191SOL     OW59257  10.124  11.020   3.435  0.1986 -0.4843 -0.7196
18191SOL    HW159258  10.052  11.062   3.483 -0.0785 -0.7802 -0.8677
18191SOL    HW259259  10.137  10.936   3.479  0.6878 -0.2826 -0.4811
18192SOL     OW59260   0.295   8.413  10.140  0.2086 -0.4590 -0.2319
18192SOL    HW159261   0.283   8.357  10.062 -0.7170 -0.6891  0.0606
18192SOL    HW259262   0.268   8.500  10.111 -1.5998 -0.8271  0.2082
18193SOL     OW59263   6.788   1.078   5.771  0.0852  0.1597  0.3065
18193SOL    HW159264   6.722   1.144   5.792  0.4784  0.6947 -0.1076
18193SOL    HW259265   6.739   0.996   5.766 -0.6492  0.6309 -0.5547
18194SOL     OW59266  11.005   9.298   7.719  0.0336  0.2380 -0.2787
18194SOL    HW159267  11.067   9.370   7.711  0.0696  0.0398 -2.1628
18194SOL    HW259268  10.920   9.337   7.696  0.1751 -0.4543 -2.1107
18195SOL     OW59269   9.980   1.642   1.575 -0.1304  0.2391  0.5772
18195SOL    HW159270  10.001   1.703   1.646  0.2558 -0.2634  0.8988
18195SOL    HW259271  10.046   1.661   1.507  0.6314 -0.5177  1.0970
18196SOL     OW59272   8.665   0.359   9.497 -0.1999 -0.1244 -0.8609
18196SOL    HW159273   8.753   0.327   9.521  0.6526  2.0764 -0.8169
18196SOL    HW259274   8.617   0.361   9.580  0.5485  1.0212 -0.4297
18197SOL     OW59275   0.706  10.180   4.247 -0.6518  0.3147  1.1210
18197SOL    HW159276   0.646  10.112   4.216 -0.2836  0.0831  0.9025
18197SOL    HW259277   0.766  10.134   4.306 -0.5636  0.5027  1.1786
18198SOL     OW59278   2.327   9.002  10.480 -0.1888  0.2610 -0.0647
18198SOL    HW159279   2.328   8.913  10.446 -1.3063 -0.0155  0.5848
18198SOL    HW259280   2.374   8.996  10.563  0.6621  0.5101 -0.5105
18199SOL     OW59281   3.938   4.414   6.093  0.4024  0.5706 -0.2906
18199SOL    HW159282   3.856   4.366   6.084  0.0491  1.0666  0.1855
18199SOL    HW259283   3.997   4.373   6.030 -0.4184  0.6489 -1.1370
18200SOL     OW59284   1.951  10.966   9.054 -0.1651  0.0088  0.5871
18200SOL    HW159285   2.018  10.899   9.068  0.6388  0.4305 -1.0232
18200SOL    HW259286   1.957  11.021   9.133 -0.3617 -1.3659  1.6068
18201SOL     OW59287   2.289  11.110   0.488  0.1768 -0.2630 -0.6107
18201SOL    HW159288   2.340  11.062   0.554  0.1792  1.6756  0.8970
18201SOL    HW259289   2.223  11.047   0.459 -0.1426 -1.0756  1.6451
18202SOL     OW59290  11.873  11.732   9.190 -0.3539 -0.2492  0.0778
18202SOL    HW159291  11.797  11.744   9.133  0.7589  0.4764 -1.3211
18202SOL    HW259292  11.855  11.787   9.266 -2.1395 -1.6997  0.7962
18203SOL     OW59293   3.216   7.658   1.528  0.0677 -0.0871  0.1474
18203SOL    HW159294   3.185   7.567   1.529 -2.8712  0.7968 -0.2727
18203SOL    HW259295   3.155   7.704   1.585  0.3011  1.9641 -1.1812
18204SOL     OW59296   4.479   7.861   2.025  0.6199 -0.1719 -0.0599
18204SOL    HW159297   4.522   7.851   2.110  0.8049  1.3513  0.0486
18204SOL    HW259298   4.457   7.954   2.020  1.3890 -0.0631 -2.0510
18205SOL     OW59299   0.533   5.772  10.991  0.3079 -0.1531 -0.4490
18205SOL    HW159300   0.557   5.711  10.922  0.4416 -0.7288  0.0970
18205SOL    HW259301   0.483   5.841  10.947 -1.4227 -1.5750 -0.8217
18206SOL     OW59302  11.490   1.725   9.880  0.0091  0.3808 -0.2459
18206SOL    HW159303  11.548   1.667   9.830  1.5543  1.8226 -0.2030
18206SOL    HW259304  11.428   1.759   9.815  0.2652  0.1197 -0.6334
18207SOL     OW59305   1.401  11.896   3.205  0.6029  0.1028 -0.2125
18207SOL    HW159306   1.352  11.838   3.148  1.1567 -0.6469  0.0522
18207SOL    HW259307   1.455  11.837   3.259  1.9459  0.8825 -0.6423
18208SOL     OW59308   8.039   6.221   4.487  0.3370 -0.1387 -0.1936
18208SOL    HW159309   8.106   6.284   4.513  0.3736 -0.1598 -0.2365
18208SOL    HW259310   7.988   6.266   4.420 -0.2303  0.2002  0.4536
18209SOL     OW59311   7.396   3.994   3.463 -0.1949 -0.1445 -0.6162
18209SOL    HW159312   7.456   4.004   3.537 -1.2144 -0.8409  0.3344
18209SOL    HW259313   7.448   4.018   3.386  0.5190  1.9157  0.4209
18210SOL     OW59314   6.365   2.776   0.028 -0.4675 -0.1282  0.3507
18210SOL    HW159315   6.325   2.815   0.105  0.1531  0.2900  0.4724
18210SOL    HW259316   6.387   2.687   0.054 -0.6340 -0.1177  0.5229
18211SOL     OW59317   1.389  11.811   2.264  0.0128 -0.2181 -0.1220
18211SOL    HW159318   1.402  11.728   2.219  1.7347 -0.1427  0.1790
18211SOL    HW259319   1.319  11.854   2.215  1.0969 -0.5906 -2.1018
18212SOL     OW59320  10.056   9.946  10.895 -0.1877  0.6664 -0.2461
18212SOL    HW159321   9.963   9.968  10.895 -0.3820  0.0503 -2.2337
18212SOL    HW259322  10.088   9.980  10.811  1.1936  0.1231  0.0435
18213SOL     OW59323   9.872   7.835   4.310  0.2197 -0.2818  0.1876
18213SOL    HW159324   9.931   7.812   4.238  0.1345  0.9137 -0.2791
18213SOL    HW259325   9.857   7.752   4.355 -0.1433 -1.1709 -1.4797
18214SOL     OW59326  11.578   8.577   0.017 -0.0796  0.8353 -0.2557
18214SOL    HW159327  11.577   8.488   0.051 -0.5865  0.1572 -1.9911
18214SOL    HW259328  11.667   8.607   0.031  0.6457 -0.6674 -1.4743
18215SOL     OW59329   5.519  11.082   5.991 -0.0741  0.2439  0.2890
18215SOL    HW159330   5.581  11.062   6.061 -1.1245  2.2873  1.9140
18215SOL    HW259331   5.438  11.036   6.016  0.0606 -0.5095 -0.5894
18216SOL     OW59332   6.699  10.225   4.002 -0.3392 -0.0184 -0.0692
18216SOL    HW159333   6.736  10.253   3.919  0.9236 -2.8394 -0.5867
18216SOL    HW259334   6.660  10.304   4.039  0.5861  1.7041 -2.5044
18217SOL     OW59335   7.736   3.445   0.027  0.1963 -0.0515  0.4949
18217SOL    HW159336   7.678   3.520   0.039  0.2064  0.2487 -1.1515
18217SOL    HW259337   7.822   3.484   0.013 -0.0257 -0.2423 -1.7957
18218SOL     OW59338   4.745   7.318   3.963 -0.2789 -0.1922 -0.4420
18218SOL    HW159339   4.709   7.308   3.875 -0.7068 -0.0537 -0.2815
18218SOL    HW259340   4.672   7.297   4.021 -0.2609  0.6421 -0.1138
18219SOL     OW59341   9.389  11.293   6.839  0.3004 -0.7482  0.0491
18219SOL    HW159342   9.371  11.307   6.746  0.6452 -2.4399 -0.2966
18219SOL    HW259343   9.458  11.227   6.841  0.5052 -0.5305  1.5134
18220SOL     OW59344   2.353   4.918   4.919  0.0743  0.0707 -0.0077
18220SOL    HW159345   2.345   5.006   4.883  4.1427  0.9337  0.7019
18220SOL    HW259346   2.377   4.864   4.843 -0.7661 -0.0862 -0.1634
18221SOL     OW59347   4.368   5.457   9.597  0.2501 -0.2184  0.6830
18221SOL    HW159348   4.333   5.403   9.667 -0.4105 -2.3021 -1.1305
18221SOL    HW259349   4.291   5.491   9.551  0.6025 -1.2199 -0.7032
18222SOL     OW59350   8.919  11.270   0.745 -0.2051  0.2153  0.4277
18222SOL    HW159351   8.955  11.357   0.763 -0.2893  0.2094  0.6247
18222SOL    HW259352   8.840  11.265   0.798 -1.1902  0.6948 -0.9481
18223SOL     OW59353   1.599   9.571   6.116 -0.2718 -0.2603 -0.0788
18223SOL    HW159354   1.653   9.648   6.133  0.0026 -0.2212 -1.0398
18223SOL    HW259355   1.561   9.587   6.030 -1.3059 -0.5880  0.3058
18224SOL     OW59356   1.130   7.984   2.497 -0.0121 -0.4059  0.4191
18224SOL    HW159357   1.136   8.054   2.431 -2.6525 -0.5259 -0.0514
18224SOL    HW259358   1.085   8.024   2.571  0.7672 -0.9424  1.2012
18225SOL     OW59359  10.031   3.846   0.538  0.4756 -0.4081  0.4307
18225SOL    HW159360   9.999   3.861   0.449 -0.5218  0.9836  0.9949
18225SOL    HW259361  10.076   3.761   0.533  0.5923 -0.2848 -1.4228
18226SOL     OW59362   7.564   0.622   0.493  0.2819  0.2749  0.1293
18226SOL    HW159363   7.496   0.658   0.550  0.3230  0.1650  0.2474
18226SOL    HW259364   7.516   0.576   0.425  0.2423 -0.0102  0.3494
18227SOL     OW59365   5.550   4.605  11.427  0.4229 -1.0025  0.1320
18227SOL    HW159366   5.530   4.684  11.477 -1.5104 -0.5874 -1.1571
18227SOL    HW259367   5.602   4.636  11.353  0.1872 -1.0308 -0.0471
18228SOL     OW59368  11.459   2.003   3.837  0.2447  0.6121  0.0416
18228SOL    HW159369  11.370   2.036   3.823 -0.1554 -0.1553  0.7224
18228SOL    HW259370  11.449   1.908   3.838  1.3042  0.4634 -1.3505
18229SOL     OW59371   6.323  10.327  11.719 -0.0082  0.1337 -1.0463
18229SOL    HW159372   6.406  10.283  11.704 -0.1923 -0.7846  0.4796
18229SOL    HW259373   6.282  10.279  11.790 -2.0097  0.3649 -1.9553
18230SOL     OW59374   6.798   3.043   4.406 -0.6458 -0.5864  0.3506
18230SOL    HW159375   6.891   3.046   4.427 -0.7612  0.4489  0.7805
18230SOL    HW259376   6.754   3.045   4.491 -1.0631 -1.5020  0.1642
18231SOL     OW59377   4.818   2.017   2.628  0.4051  0.0689  0.5586
18231SOL    HW159378   4.852   2.023   2.538 -1.6725 -1.3532 -0.4049
18231SOL    HW259379   4.834   1.926   2.653 -1.4583 -0.3066  0.5316
18232SOL     OW59380   8.583   4.291   3.145 -0.5479  0.5616  0.2492
18232SOL    HW159381   8.650   4.224   3.158  0.2294  0.8110 -2.0821
18232SOL    HW259382   8.621   4.370   3.184  0.9757  0.9087 -1.7573
18233SOL     OW59383   6.572  11.917   9.604 -0.0200 -0.3123  0.6643
18233SOL    HW159384   6.598  12.008   9.589 -1.1553  0.1727  1.4850
18233SOL    HW259385   6.612  11.895   9.688 -1.3283  0.0944  1.4207
18234SOL     OW59386  10.229   8.823   6.105  0.3900 -0.0519 -0.4453
18234SOL    HW159387  10.312   8.801   6.149  1.3232  0.9241 -1.6395
18234SOL    HW259388  10.182   8.876   6.169 -0.0508 -1.9231  0.8545
18235SOL     OW59389   1.780   5.852   3.233  0.1051 -0.3902 -0.3366
18235SOL    HW159390   1.689   5.854   3.202  0.7419  2.0624 -2.3562
18235SOL    HW259391   1.826   5.915   3.178  2.6249  0.0157  2.0015
18236SOL     OW59392  11.384   3.799   2.762  0.4278  0.4174  0.0912
18236SOL    HW159393  11.445   3.859   2.720  0.2537  0.0867 -0.6449
18236SOL    HW259394  11.356   3.739   2.693 -1.3865  1.0816  0.1711
18237SOL     OW59395   6.623   9.892   7.235  0.7089 -0.5243 -0.2320
18237SOL    HW159396   6.633   9.872   7.328  2.0088  1.2749  0.0650
18237SOL    HW259397   6.536   9.932   7.229  1.4629  1.3557  0.6377
18238SOL     OW59398   4.080   5.349   7.355 -0.0656  0.5467  0.1462
18238SOL    HW159399   4.082   5.444   7.357  1.3862  0.5664  2.9048
18238SOL    HW259400   3.987   5.326   7.360 -0.5436  1.7291 -2.1258
18239SOL     OW59401   0.261   7.833   7.019 -0.1887 -0.5081  0.0875
18239SOL    HW159402   0.179   7.874   6.992 -0.3965 -1.1692 -0.3064
18239SOL    HW259403   0.312   7.828   6.939  0.6138  0.7085  0.4855
18240SOL     OW59404   0.505   2.212   2.763  0.6104  0.3881 -0.4861
18240SOL    HW159405   0.546   2.235   2.846 -0.5499  0.4033  0.1004
18240SOL    HW259406   0.547   2.130   2.737  2.8254  1.6573 -1.2178
18241SOL     OW59407   7.111   2.960   6.821 -0.4183 -0.0459  0.1597
18241SOL    HW159408   7.124   3.048   6.856 -0.2704 -0.2875  0.7215
18241SOL    HW259409   7.092   2.905   6.897  1.7220 -0.9364  0.1197
18242SOL     OW59410   7.814   2.613   0.582  0.4866 -0.7680 -0.5132
18242SOL    HW159411   7.803   2.706   0.602  1.4936 -0.7825  0.1841
18242SOL    HW259412   7.838   2.612   0.489 -0.1080 -0.3843 -0.6798
18243SOL     OW59413   3.578   7.724  11.467  0.0821  0.1772 -0.5609
18243SOL    HW159414   3.515   7.780  11.420  1.2950  0.8559 -1.4619
18243SOL    HW259415   3.644   7.703  11.401  2.7292  2.4729  1.1368
18244SOL     OW59416  10.040   4.668  11.840 -0.1117 -0.9198 -0.0601
18244SOL    HW159417   9.946   4.651  11.844 -0.7270  1.8437 -0.5412
18244SOL    HW259418  10.057   4.693  11.750  0.4875  1.2569  0.5900
18245SOL     OW59419   3.323   0.766   4.159  0.5759  0.4260  0.0940
18245SOL    HW159420   3.281   0.846   4.191  1.5176  0.3780  1.5630
18245SOL    HW259421   3.332   0.711   4.237 -0.4088 -1.3143 -0.9410
18246SOL     OW59422   6.503   6.658   1.211  0.4683  0.3525 -0.4537
18246SOL    HW159423   6.544   6.584   1.255 -0.1373  1.0982  1.4789
18246SOL    HW259424   6.570   6.726   1.209  0.3588  0.4667 -0.2750
18247SOL     OW59425   4.948   4.216   7.599 -0.1832  0.2035  0.3611
18247SOL    HW159426   4.868   4.185   7.556  0.2149 -0.3974  0.0540
18247SOL    HW259427   4.965   4.153   7.669  0.3966 -0.0427  0.0001
18248SOL     OW59428   7.052   4.646   1.231 -0.6234  0.4043  0.6440
18248SOL    HW159429   7.080   4.582   1.165  1.0191  0.2933  1.3964
18248SOL    HW259430   6.981   4.694   1.188 -1.9474 -1.8902  0.0609
18249SOL     OW59431  10.601   0.794  11.484  0.0373  0.0312  0.4698
18249SOL    HW159432  10.667   0.851  11.522 -0.8642 -0.1326  2.4089
18249SOL    HW259433  10.517   0.837  11.506 -0.5797 -1.0639  0.3196
18250SOL     OW59434   4.757   1.266   0.204 -0.3156  0.0484 -0.1047
18250SOL    HW159435   4.677   1.226   0.239  0.7114 -1.1280  0.9417
18250SOL    HW259436   4.810   1.193   0.174  0.8117  0.7582  0.1155
18251SOL     OW59437   1.114   0.339   2.913  0.9313 -0.7744  0.2336
18251SOL    HW159438   1.110   0.319   2.819  1.1733 -0.9077  0.2530
18251SOL    HW259439   1.087   0.431   2.919  1.6138 -0.5521 -0.0389
18252SOL     OW59440   6.060   0.673   9.975 -0.7190  0.2269  0.6787
18252SOL    HW159441   6.068   0.727  10.053 -0.1656 -0.4571  1.1069
18252SOL    HW259442   6.125   0.708   9.914 -1.9217  1.4896  0.0627
18253SOL     OW59443   7.119   7.592   9.616 -0.3223  0.5849 -0.1480
18253SOL    HW159444   7.147   7.683   9.625 -0.3957  0.7352 -1.3847
18253SOL    HW259445   7.078   7.587   9.530 -0.5568 -0.5579  0.0128
18254SOL     OW59446   8.553   3.685   2.506 -0.4913 -0.1286  0.1931
18254SOL    HW159447   8.622   3.745   2.477  0.1966 -0.5164  0.9839
18254SOL    HW259448   8.581   3.599   2.475 -0.5439 -0.3081  0.6312
18255SOL     OW59449   7.768   0.766  11.931 -0.5864 -0.3934  0.2251
18255SOL    HW159450   7.793   0.697  11.869  0.1984  0.0876 -0.0051
18255SOL    HW259451   7.674   0.753  11.944 -0.3593 -1.8740  0.6438
18256SOL     OW59452   3.077  11.428   8.811  0.4466 -0.8997  0.1223
18256SOL    HW159453   3.151  11.471   8.768  0.7312 -1.2934  0.2151
18256SOL    HW259454   3.025  11.392   8.739  1.0782 -1.8166  0.1030
18257SOL     OW59455   7.386   8.867   5.714 -0.1141 -0.4975  0.1152
18257SOL    HW159456   7.308   8.832   5.670 -0.6302 -0.8011  1.2311
18257SOL    HW259457   7.447   8.794   5.716 -0.2903 -0.6375  0.3692
18258SOL     OW59458   1.385   8.506   5.165  0.1617  0.7243  0.1362
18258SOL    HW159459   1.468   8.492   5.209  0.6090 -1.3944 -1.2079
18258SOL    HW259460   1.395   8.589   5.119  1.8630  0.1359 -0.6279
18259SOL     OW59461   5.002   4.807   4.659 -0.0545  0.6238  1.1663
18259SOL    HW159462   4.936   4.738   4.665 -0.0032  0.6432  2.1619
18259SOL    HW259463   5.051   4.786   4.579 -1.4415  0.7839  0.2431
18260SOL     OW59464  11.035   2.834   9.278 -0.6103 -0.0678  0.0723
18260SOL    HW159465  10.995   2.765   9.224  0.7155 -0.4930 -0.4106
18260SOL    HW259466  11.001   2.916   9.241  0.8364 -0.3057 -1.9624
18261SOL     OW59467   4.598   3.120  10.272  0.3154 -0.8229 -0.1341
18261SOL    HW159468   4.564   3.203  10.239 -0.4366 -1.3258 -0.6490
18261SOL    HW259469   4.528   3.087  10.329  0.0905 -1.6741 -0.8894
18262SOL     OW59470   0.441   4.337  10.644  0.3107  0.0094  0.3378
18262SOL    HW159471   0.526   4.304  10.674  0.0765 -0.5117  0.4550
18262SOL    HW259472   0.395   4.259  10.612 -0.9455 -0.1320  2.2485
18263SOL     OW59473  10.939   9.823   5.520 -0.0126  0.0549 -0.2009
18263SOL    HW159474  10.920   9.741   5.475  1.4513 -0.1660 -0.4839
18263SOL    HW259475  10.883   9.888   5.479 -2.2489 -1.0259  0.9681
18264SOL     OW59476   7.803   0.385  10.377  0.2055  0.0394 -0.3554
18264SOL    HW159477   7.832   0.377  10.287 -0.0098  2.6834 -0.7553
18264SOL    HW259478   7.747   0.463  10.377 -2.4735 -1.7155  1.4500
18265SOL     OW59479   5.527   2.615  10.046 -0.1134  0.7058 -0.4867
18265SOL    HW159480   5.444   2.627  10.091  1.3401  1.0214  2.3425
18265SOL    HW259481   5.527   2.523  10.019 -1.0859  0.5046  0.1573
18266SOL     OW59482   3.569   1.384   3.034  0.1405  0.0331 -0.1869
18266SOL    HW159483   3.578   1.327   3.110 -0.8123 -0.7973 -0.6781
18266SOL    HW259484   3.569   1.325   2.959  0.1802  0.7678 -0.7762
18267SOL     OW59485   3.633   1.974   2.572  0.5210  0.6994 -0.0114
18267SOL    HW159486   3.712   2.019   2.542  2.1659 -1.6223  0.5179
18267SOL    HW259487   3.628   1.995   2.666  0.4780  0.8817 -0.0539
18268SOL     OW59488   3.873   3.270   5.124  0.2900 -0.5433  0.4682
18268SOL    HW159489   3.953   3.321   5.141 -1.2717  1.1717  3.6802
18268SOL    HW259490   3.821   3.281   5.203 -1.7695 -4.3420 -0.1103
18269SOL     OW59491   9.957   9.028   2.494 -0.0464 -0.2568  0.3260
18269SOL    HW159492   9.908   9.026   2.411 -0.0870  0.8780  0.3058
18269SOL    HW259493  10.015   9.104   2.485  0.0919 -0.2430  1.2606
18270SOL     OW59494  10.259   6.571   6.737  0.1333  0.1686 -0.4502
18270SOL    HW159495  10.326   6.552   6.672  1.3559  0.4348  0.6951
18270SOL    HW259496  10.196   6.499   6.730  0.5874 -0.1324 -1.4666
18271SOL     OW59497  10.282   1.496   7.253 -0.5626 -0.4822  0.1398
18271SOL    HW159498  10.313   1.503   7.344  0.7985  0.3842 -0.3537
18271SOL    HW259499  10.341   1.432   7.212 -0.1919  0.2419 -0.4910
18272SOL     OW59500   8.261   6.487   4.149  0.1374 -0.1997  0.3042
18272SOL    HW159501   8.353   6.499   4.123 -0.2023  0.5142 -0.6339
18272SOL    HW259502   8.211   6.508   4.070 -0.8684  0.2473  1.0421
18273SOL     OW59503  10.907   9.868   3.291 -0.4986 -0.1889 -0.3393
18273SOL    HW159504  10.936   9.861   3.382 -0.9952 -1.1967 -0.2387
18273SOL    HW259505  10.976   9.824   3.241 -0.5543 -0.2297 -0.3802
18274SOL     OW59506  10.096   2.373   3.309 -0.1547  0.7328  0.7376
18274SOL    HW159507  10.099   2.288   3.264 -0.2710 -0.6744  3.2021
18274SOL    HW259508  10.021   2.418   3.270 -0.1674 -0.3425 -0.5378
18275SOL     OW59509  11.045   6.052   3.613 -0.3771  0.0325  0.1183
18275SOL    HW159510  11.017   6.093   3.694  1.2549 -1.8841  1.7675
18275SOL    HW259511  11.135   6.082   3.600 -0.6236  0.3395 -1.0189
18276SOL     OW59512  11.947   3.950   6.100  0.3968 -0.1894 -0.2455
18276SOL    HW159513  11.887   3.875   6.103  0.0723  0.0532 -0.5640
18276SOL    HW259514  12.027   3.918   6.142 -0.0190 -0.4525  0.3608
18277SOL     OW59515   8.803   6.468   9.844 -0.3772 -1.1316 -0.2859
18277SOL    HW159516   8.757   6.431   9.769  2.0313 -0.6593 -2.1175
18277SOL    HW259517   8.745   6.538   9.874 -0.8559 -0.4313 -2.5943
18278SOL     OW59518   2.951   0.483   7.137  0.1051 -0.2478 -0.2945
18278SOL    HW159519   2.935   0.401   7.184 -1.8525  0.4013  0.2650
18278SOL    HW259520   2.975   0.546   7.206  0.0562  0.0226 -0.5239
18279SOL     OW59521   4.921   9.843  10.393  0.2086 -0.5670  0.0444
18279SOL    HW159522   4.993   9.819  10.334 -0.9609 -0.6626 -1.3790
18279SOL    HW259523   4.927   9.780  10.465  1.0223 -1.1028 -0.4761
18280SOL     OW59524   3.714  10.212   2.501 -0.1751 -0.6476  0.3941
18280SOL    HW159525   3.726  10.272   2.428  0.0254 -2.2454 -0.9403
18280SOL    HW259526   3.677  10.266   2.571  1.3775  1.3173 -0.2294
18281SOL     OW59527   3.124   5.357   8.444 -0.0744  0.1002  0.2686
18281SOL    HW159528   3.208   5.402   8.451  1.2762 -2.1377 -0.4101
18281SOL    HW259529   3.081   5.397   8.369  1.5451 -0.4195 -0.9777
18282SOL     OW59530   8.000  10.037  10.649 -0.1734  0.3075 -0.2464
18282SOL    HW159531   8.055   9.967  10.685  1.0489  0.1161 -2.3431
18282SOL    HW259532   7.939  10.058  10.720  2.2756  0.2140  2.0567
18283SOL     OW59533   7.435   0.162   1.917  0.2555  0.2542  0.3021
18283SOL    HW159534   7.495   0.217   1.967 -0.4596  1.3759 -0.0582
18283SOL    HW259535   7.487   0.130   1.843  0.9397 -0.3445  1.0255
18284SOL     OW59536  11.598   0.165   3.156  0.4152  0.1416 -0.3346
18284SOL    HW159537  11.583   0.146   3.063  3.2922  0.3724 -0.9398
18284SOL    HW259538  11.520   0.132   3.200  0.1244 -2.4671 -2.5459
18285SOL     OW59539  11.945  11.000   7.911 -0.4873 -1.1455  0.1706
18285SOL    HW159540  11.873  10.997   7.974 -0.5476 -1.5330  0.0841
18285SOL    HW259541  12.002  10.927   7.937  2.0056  1.4340  2.7703
18286SOL     OW59542   8.806   9.096   0.833  0.0179 -0.1136  0.3679
18286SOL    HW159543   8.901   9.104   0.828  0.0395  1.0910  1.9228
18286SOL    HW259544   8.781   9.050   0.753  1.7982  0.6202 -0.6608
18287SOL     OW59545   3.332   4.625   9.677 -0.5485 -0.2200  0.0312
18287SOL    HW159546   3.326   4.650   9.769 -1.3896  1.6057 -0.4712
18287SOL    HW259547   3.388   4.548   9.677  0.4143  0.4025  1.9631
18288SOL     OW59548   0.900   1.518   9.183  0.5043  0.0423  0.1187
18288SOL    HW159549   0.823   1.566   9.212  1.2141  1.8095 -0.7483
18288SOL    HW259550   0.888   1.508   9.088 -0.0572 -2.4089  0.3634
18289SOL     OW59551   5.979   7.918  10.030  0.0261  0.8933  0.5749
18289SOL    HW159552   6.047   7.985  10.025  0.3325  0.5269 -0.5994
18289SOL    HW259553   5.995   7.873  10.113  2.5575 -0.5266 -0.5518
18290SOL     OW59554   8.316   1.598   2.653 -0.0100  0.6849  0.2943
18290SOL    HW159555   8.402   1.621   2.618  0.5510 -0.4471  0.8724
18290SOL    HW259556   8.254   1.626   2.586  0.9426 -0.1236 -0.9529
18291SOL     OW59557   1.996   1.316   7.958  0.4649 -0.4427  0.3065
18291SOL    HW159558   2.043   1.323   8.041 -1.1656 -0.8912  1.3198
18291SOL    HW259559   1.946   1.397   7.952  0.3279 -0.5545 -0.0778
18292SOL     OW59560  10.264   5.391   6.876  0.3100 -0.8039 -0.3783
18292SOL    HW159561  10.290   5.299   6.882  0.4390 -0.8070 -0.9944
18292SOL    HW259562  10.306   5.432   6.951  0.4635 -1.1951 -0.2453
18293SOL     OW59563  11.402   4.273  11.875  0.0800 -0.0415 -0.2179
18293SOL    HW159564  11.496   4.264  11.860 -0.0971 -0.0378 -1.3629
18293SOL    HW259565  11.384   4.215  11.950  1.1945  0.9281  0.8489
18294SOL     OW59566   9.535   1.803   1.009 -0.3779 -0.5867  0.0875
18294SOL    HW159567   9.545   1.894   1.036  0.8355 -0.6833  0.0328
18294SOL    HW259568   9.625   1.772   0.994 -0.8736 -0.9265 -2.7960
18295SOL     OW59569   8.733   2.724   9.963  0.2230  0.1941  0.3194
18295SOL    HW159570   8.789   2.753  10.035  0.6303  1.4444 -0.4616
18295SOL    HW259571   8.707   2.635   9.987  1.5634  0.0267  1.2690
18296SOL     OW59572   8.041   9.890   5.196  0.6182 -0.3377 -0.1692
18296SOL    HW159573   7.978   9.846   5.139  0.1101  0.0796  0.0664
18296SOL    HW259574   8.031   9.983   5.176  0.6264 -0.2095  0.4052
18297SOL     OW59575   6.984  11.581  11.053  0.4278  0.4552  0.0210
18297SOL    HW159576   6.997  11.623  11.138 -0.3438  0.2281  0.2591
18297SOL    HW259577   7.032  11.637  10.992  0.4751  0.9666  0.5140
18298SOL     OW59578  11.365   6.554   1.528  0.1805  0.1404 -0.0931
18298SOL    HW159579  11.415   6.472   1.521 -1.6878 -0.9369 -3.1538
18298SOL    HW259580  11.331   6.554   1.617  1.9207 -1.3493  0.6282
18299SOL     OW59581   0.435   2.274   4.074  0.2254  0.2223  0.1894
18299SOL    HW159582   0.487   2.345   4.111 -0.3428  1.3889 -1.1881
18299SOL    HW259583   0.445   2.283   3.980 -1.3603 -0.3861 -0.0666
18300SOL     OW59584   7.397   6.095  11.182  0.4006  0.5717  0.2655
18300SOL    HW159585   7.379   6.001  11.189 -0.6637  0.6413 -1.0490
18300SOL    HW259586   7.492   6.101  11.173  0.4808 -0.3870  0.4255
18301SOL     OW59587   4.096   3.549   4.425  0.0380 -0.1216  0.0832
18301SOL    HW159588   4.056   3.508   4.349 -1.0076  0.3837  0.3465
18301SOL    HW259589   4.178   3.500   4.439 -0.3400 -0.9783 -0.6323
18302SOL     OW59590   0.860   6.333   0.737 -0.4033  0.0176 -0.4727
18302SOL    HW159591   0.863   6.296   0.826  0.2882 -1.2737 -1.0114
18302SOL    HW259592   0.782   6.389   0.737 -0.4465 -0.0018  0.9272
18303SOL     OW59593   4.628  10.479   2.519  0.2918  0.1080 -0.0314
18303SOL    HW159594   4.673  10.561   2.499  1.4464 -0.3717  0.4789
18303SOL    HW259595   4.566  10.502   2.588  0.5857  0.5615  0.0840
18304SOL     OW59596   5.147   1.543   1.173 -0.1251  0.1781  0.0853
18304SOL    HW159597   5.115   1.599   1.103  2.3135  0.3236 -0.9900
18304SOL    HW259598   5.242   1.555   1.173  0.5993 -4.0410 -0.3291
18305SOL     OW59599   2.832   3.686   0.388 -0.1113  0.1837 -0.4052
18305SOL    HW159600   2.755   3.738   0.364  0.7199  1.2507 -0.8480
18305SOL    HW259601   2.828   3.610   0.331  0.3090  1.3138 -2.0112
18306SOL     OW59602   0.091   4.613   7.489  0.0367  0.2798  0.5355
18306SOL    HW159603   0.032   4.626   7.563  0.1739 -0.8953  0.8800
18306SOL    HW259604   0.133   4.528   7.507  0.5788  0.3066 -0.5408
18307SOL     OW59605   9.257   6.071   1.302 -0.0035 -0.0611 -0.3021
18307SOL    HW159606   9.184   6.107   1.352 -0.6167 -0.5932 -0.8157
18307SOL    HW259607   9.226   5.987   1.269  1.1976 -0.8088  0.3615
18308SOL     OW59608   2.831   5.629   8.416  0.3778 -0.3038 -0.0789
18308SOL    HW159609   2.884   5.576   8.356  2.2126  1.7338 -0.3575
18308SOL    HW259610   2.889   5.648   8.489 -0.0244  1.7327 -0.2392
18309SOL     OW59611   5.294  11.092  10.240 -0.3001  0.1820 -0.7721
18309SOL    HW159612   5.204  11.108  10.210 -0.2919  1.4949 -0.1472
18309SOL    HW259613   5.298  10.997  10.252 -1.4145  0.0295 -1.3957
18310SOL     OW59614  11.958   1.564   5.277 -0.6146  0.3124  0.3311
18310SOL    HW159615  11.866   1.586   5.262 -0.6193  0.2324  0.2413
18310SOL    HW259616  11.995   1.553   5.189 -0.1381  1.8616  0.3009
18311SOL     OW59617   0.537  10.507   6.258 -0.1064 -0.4644 -0.4897
18311SOL    HW159618   0.455  10.464   6.281  0.2266 -1.6531 -1.4105
18311SOL    HW259619   0.517  10.558   6.179 -0.4453  0.9449  0.4722
18312SOL     OW59620   0.244   6.561   4.753  0.0000  0.1638 -0.4319
18312SOL    HW159621   0.317   6.623   4.750 -0.6309  1.0031  0.9681
18312SOL    HW259622   0.203   6.576   4.838 -1.4713 -0.6924 -0.9619
18313SOL     OW59623  11.148   1.382   4.640  0.3149 -0.1740  0.0104
18313SOL    HW159624  11.126   1.358   4.550  1.4377  0.9006 -0.5741
18313SOL    HW259625  11.090   1.456   4.660 -0.0955 -0.5575  0.2691
18314SOL     OW59626   0.727   9.720   6.449  0.5742 -0.3382 -0.1964
18314SOL    HW159627   0.713   9.657   6.519 -0.4216 -0.1454 -0.2037
18314SOL    HW259628   0.710   9.671   6.368  0.9078 -0.3488 -0.2609
18315SOL     OW59629   2.916  10.332   3.294  0.4932  0.2801  0.2449
18315SOL    HW159630   2.947  10.254   3.247 -1.1210 -0.0688 -0.2838
18315SOL    HW259631   2.986  10.397   3.280  0.7827 -0.3199 -1.3113
18316SOL     OW59632   8.091   0.942   9.227  0.1494  0.1989 -0.5154
18316SOL    HW159633   8.177   0.943   9.269  0.0160  0.9629 -0.2480
18316SOL    HW259634   8.047   0.866   9.265  0.2740  0.4969  0.2319
18317SOL     OW59635  10.047  10.999   8.142 -0.0749 -0.0659 -0.0895
18317SOL    HW159636  10.050  11.056   8.219  0.0277  1.8833 -1.4552
18317SOL    HW259637   9.960  10.961   8.144 -0.2903  0.4419  0.6809
18318SOL     OW59638   0.563   7.217   6.555  0.4211  0.1683 -0.1695
18318SOL    HW159639   0.625   7.277   6.513 -0.6825  1.0930 -0.5526
18318SOL    HW259640   0.481   7.266   6.557 -0.4361 -1.2223 -0.1649
18319SOL     OW59641   7.666   8.882  11.863 -0.3478 -0.2459  0.5428
18319SOL    HW159642   7.612   8.945  11.814 -0.9490 -0.4755  0.8931
18319SOL    HW259643   7.751   8.883  11.819 -1.2689 -1.4493 -1.3522
18320SOL     OW59644   9.218  10.945  10.505  0.6415 -0.0634 -0.4839
18320SOL    HW159645   9.303  10.912  10.475  0.1768 -1.1896 -0.5872
18320SOL    HW259646   9.197  10.893  10.583  0.0025  0.1441 -0.5079
18321SOL     OW59647   9.214   0.473  11.793  0.3769  0.0589 -0.2423
18321SOL    HW159648   9.215   0.563  11.762  1.6105 -0.1844 -0.9888
18321SOL    HW259649   9.248   0.422  11.719  1.9530 -0.7160  0.9482
18322SOL     OW59650   2.830   5.916  11.978 -0.3932  0.3059 -0.1147
18322SOL    HW159651   2.812   5.942  11.888 -0.5354  1.0014  0.1069
18322SOL    HW259652   2.770   5.843  11.994 -0.6569  0.4426 -0.4542
18323SOL     OW59653  11.059   8.056  10.608 -0.3841  0.3247 -0.0285
18323SOL    HW159654  11.149   8.090  10.609 -0.1912 -0.0722 -1.2617
18323SOL    HW259655  11.007   8.125  10.648  0.1155  1.7164 -1.6264
18324SOL     OW59656   6.104   3.459   0.306 -0.4680  0.1646 -0.0368
18324SOL    HW159657   6.091   3.395   0.236  0.0085 -0.7544  0.6957
18324SOL    HW259658   6.077   3.414   0.386  0.3199  0.7086  0.5603
18325SOL     OW59659   2.940  10.775   1.892 -0.0313  0.3352 -0.2838
18325SOL    HW159660   2.855  10.735   1.873  0.9435 -1.4367 -1.1225
18325SOL    HW259661   3.002  10.703   1.888  1.7326  1.8108 -1.0920
18326SOL     OW59662   4.577  10.617   3.091 -0.3050 -0.1051  0.4581
18326SOL    HW159663   4.589  10.693   3.034 -0.2224 -0.8180 -0.4845
18326SOL    HW259664   4.665  10.583   3.105 -0.2368  0.4705  1.6135
18327SOL     OW59665   9.168   5.624  11.593 -0.2613 -0.6200 -0.4440
18327SOL    HW159666   9.188   5.542  11.548  1.3153 -0.4452 -0.1357
18327SOL    HW259667   9.203   5.612  11.681  0.3428  0.5104 -0.5079
18328SOL     OW59668  11.319   4.739   3.407  0.0368 -0.6371 -0.2829
18328SOL    HW159669  11.327   4.647   3.385  0.7515 -0.1496 -2.3007
18328SOL    HW259670  11.247   4.771   3.352 -1.2055 -0.2855  1.4882
18329SOL     OW59671   2.449   7.430   4.130  0.5988 -0.3660  0.4023
18329SOL    HW159672   2.478   7.521   4.146  0.0295 -0.3470  1.4202
18329SOL    HW259673   2.530   7.379   4.133  0.8530  0.0323  0.4703
18330SOL     OW59674   6.957   5.012   1.412  0.4904  0.2305 -0.1749
18330SOL    HW159675   7.050   5.017   1.436  0.3079  1.0758  0.3831
18330SOL    HW259676   6.957   5.005   1.317  1.1328  0.0519 -0.1692
18331SOL     OW59677   3.718   2.358  10.663 -0.2713 -0.0620 -0.4588
18331SOL    HW159678   3.779   2.291  10.631 -0.4350 -1.0980  1.2779
18331SOL    HW259679   3.679   2.319  10.741 -0.2002  2.1834  0.7603
18332SOL     OW59680   1.441   1.087   9.124 -0.0785 -0.1768 -0.0049
18332SOL    HW159681   1.422   1.066   9.033 -1.6756 -2.7725  0.8422
18332SOL    HW259682   1.358   1.120   9.159  0.8395  2.0042  0.2638
18333SOL     OW59683   8.346   8.882   2.935 -0.0212 -0.1530  0.1730
18333SOL    HW159684   8.359   8.967   2.895 -0.4978 -0.3360 -0.3954
18333SOL    HW259685   8.330   8.901   3.028  2.2755  0.1886  0.5482
18334SOL     OW59686   5.882   2.817   1.294 -0.3136  0.4806 -0.2795
18334SOL    HW159687   5.885   2.846   1.203 -1.1863 -0.1708 -0.5356
18334SOL    HW259688   5.973   2.798   1.317  0.0297  1.5626 -0.7022
18335SOL     OW59689   3.228  11.238   7.597  0.2851 -0.2643 -0.3539
18335SOL    HW159690   3.274  11.314   7.560  0.9018 -0.7930 -0.7044
18335SOL    HW259691   3.258  11.234   7.688  1.1170 -0.7373 -0.6430
18336SOL     OW59692   3.834   7.440   4.471  0.3466  0.2438 -0.3851
18336SOL    HW159693   3.900   7.409   4.409 -0.2110 -0.1630 -0.7815
18336SOL    HW259694   3.751   7.420   4.430 -0.0316  0.4714  0.2514
18337SOL     OW59695   8.586   7.320   1.316 -0.0268  0.1408  0.1113
18337SOL    HW159696   8.498   7.358   1.322 -0.6450 -1.3894  1.8208
18337SOL    HW259697   8.645   7.395   1.327 -1.1472  0.9814  0.6777
18338SOL     OW59698   6.795   8.303   2.516  0.2855 -0.3259  0.0908
18338SOL    HW159699   6.789   8.268   2.427  1.6532  0.1326 -0.2102
18338SOL    HW259700   6.888   8.298   2.537  0.3237  1.6652  0.6156
18339SOL     OW59701   8.690   1.208   3.952 -0.0888  0.5102  0.1979
18339SOL    HW159702   8.770   1.239   3.994  0.3191 -1.0836  0.6673
18339SOL    HW259703   8.683   1.117   3.978 -1.6029  0.3747 -0.5597
18340SOL     OW59704   6.654   3.610   1.118  0.3986  0.6492  0.2848
18340SOL    HW159705   6.578   3.668   1.124 -0.6296 -0.5851 -0.1211
18340SOL    HW259706   6.661   3.589   1.025  0.9796  0.4250  0.3725
18341SOL     OW59707   1.954   7.845   6.388  0.8543  0.0956 -0.9695
18341SOL    HW159708   1.884   7.813   6.445  1.3496 -0.6279 -0.7562
18341SOL    HW259709   1.915   7.920   6.343 -0.1127 -0.3732 -0.9630
18342SOL     OW59710   6.029  11.403   9.081 -0.4897 -0.2262 -0.4149
18342SOL    HW159711   6.035  11.314   9.117 -1.4544 -0.7324 -1.4509
18342SOL    HW259712   6.041  11.460   9.157  3.3596 -1.1208 -0.1205
18343SOL     OW59713   7.778   7.541   5.128 -0.1991 -0.4404  0.7932
18343SOL    HW159714   7.810   7.631   5.133 -0.2771 -0.4549  1.8130
18343SOL    HW259715   7.804   7.511   5.042  1.0833  0.0902  0.9790
18344SOL     OW59716   0.464  10.773   3.977  0.0150  0.2022 -0.3877
18344SOL    HW159717   0.374  10.805   3.984  0.2971  1.0346 -0.4405
18344SOL    HW259718   0.491  10.757   4.067 -0.1580  0.0144 -0.3671
18345SOL     OW59719   2.366   8.588   3.953  0.5637 -0.5111 -0.0855
18345SOL    HW159720   2.271   8.596   3.944  0.2524  0.3264  2.8080
18345SOL    HW259721   2.390   8.514   3.897 -1.9256 -1.2474 -0.2780
18346SOL     OW59722   6.747   4.971   4.412 -0.3429  0.5555 -0.1533
18346SOL    HW159723   6.774   4.942   4.325 -1.6040  0.2980 -0.4913
18346SOL    HW259724   6.727   5.064   4.402 -0.9958  0.4078 -0.2821
18347SOL     OW59725   1.700   7.864   9.161 -0.1878  0.1165  0.3956
18347SOL    HW159726   1.746   7.924   9.220  0.7011  1.4066 -1.5047
18347SOL    HW259727   1.623   7.914   9.132 -0.1752 -0.1696 -0.1453
18348SOL     OW59728  10.872   3.020   1.259  0.2005 -0.0051 -0.1786
18348SOL    HW159729  10.839   3.052   1.175  1.1192  0.1287 -0.5052
18348SOL    HW259730  10.886   2.926   1.246  1.3623  0.1971 -0.5439
18349SOL     OW59731   2.968  10.370   0.463 -0.3172 -0.3340  0.1167
18349SOL    HW159732   3.029  10.314   0.511 -0.8051 -1.8710 -0.9666
18349SOL    HW259733   2.882  10.341   0.491 -0.5825  0.7545  0.4698
18350SOL     OW59734   5.753   3.010   4.260 -0.1649  0.4364  0.8304
18350SOL    HW159735   5.711   3.062   4.191  3.2750  0.1851 -1.7201
18350SOL    HW259736   5.713   2.923   4.253  0.0666  0.4352 -0.8573
18351SOL     OW59737   3.168   2.633   7.013 -0.0824 -0.5152 -0.1924
18351SOL    HW159738   3.234   2.639   7.082  0.6717  1.3776 -1.0068
18351SOL    HW259739   3.104   2.571   7.047  2.1918 -2.6445  0.5220
18352SOL     OW59740   1.100   9.094   3.015  0.2092 -0.2900 -0.4851
18352SOL    HW159741   1.149   9.169   3.050  1.1512 -1.2335  0.3197
18352SOL    HW259742   1.161   9.054   2.953 -0.7340  0.2581 -1.7973
18353SOL     OW59743   6.503   3.869  10.710 -0.2380 -0.6334 -0.5545
18353SOL    HW159744   6.548   3.886  10.627  1.0709 -0.0146  0.2580
18353SOL    HW259745   6.410   3.872  10.688  0.0425  1.5757 -1.6308
18354SOL     OW59746  11.114   4.099   3.814  0.6427 -0.2553  0.1501
18354SOL    HW159747  11.140   4.076   3.903  0.5232 -1.2302 -0.0530
18354SOL    HW259748  11.191   4.080   3.761  0.1921 -1.2493 -0.1718
18355SOL     OW59749   5.006   1.559   8.183 -0.0060 -0.3592 -0.2393
18355SOL    HW159750   4.922   1.604   8.189  0.4952  0.5104  0.4329
18355SOL    HW259751   5.071   1.630   8.185  0.8442 -1.1355  1.8320
18356SOL     OW59752   4.525   9.451   9.760  0.2073  0.3214 -0.1152
18356SOL    HW159753   4.511   9.529   9.812  1.9633  0.4753  0.1790
18356SOL    HW259754   4.573   9.391   9.818  1.6508  0.2602 -1.3073
18357SOL     OW59755  10.874  11.463  10.711  0.2869 -0.0547  0.2559
18357SOL    HW159756  10.909  11.504  10.790  0.0603  1.7029 -0.5222
18357SOL    HW259757  10.780  11.458  10.726 -0.0038  2.0241 -0.6252
18358SOL     OW59758   9.241   9.987   3.475 -0.0266 -0.1355 -0.2818
18358SOL    HW159759   9.322   9.944   3.504  0.8525  0.4973 -1.7206
18358SOL    HW259760   9.183   9.914   3.451  0.3733 -0.5744  0.0645
18359SOL     OW59761   6.253   7.331   5.863  0.5248  0.7903  0.3674
18359SOL    HW159762   6.309   7.404   5.894  0.5606 -0.0241  2.3940
18359SOL    HW259763   6.263   7.264   5.930 -0.3931 -0.6651 -0.8977
18360SOL     OW59764   4.775   5.721   9.073  0.5263 -0.1530  0.0627
18360SOL    HW159765   4.743   5.662   9.142  2.5584  1.0698  2.1925
18360SOL    HW259766   4.833   5.667   9.020  0.7042 -0.5762  0.6783
18361SOL     OW59767   0.401   5.623  11.936  0.3824  0.5179  0.4480
18361SOL    HW159768   0.479   5.583  11.898 -0.8921 -0.7456 -1.0078
18361SOL    HW259769   0.402   5.597  12.028 -0.9302 -4.1129 -0.5784
18362SOL     OW59770   0.439   5.167   1.900  0.3076 -0.1877 -0.0618
18362SOL    HW159771   0.409   5.245   1.853 -1.2213 -1.2795 -0.9516
18362SOL    HW259772   0.430   5.190   1.993  0.0214  0.7343 -0.3124
18363SOL     OW59773   5.707   3.204   7.933 -0.2535 -0.6129 -0.0032
18363SOL    HW159774   5.755   3.265   7.988 -0.5258  0.1513 -0.5920
18363SOL    HW259775   5.626   3.188   7.980 -0.4314 -0.0593 -0.1115
18364SOL     OW59776   8.286   8.414   0.968  0.2878  0.0905 -0.0423
18364SOL    HW159777   8.281   8.419   0.872  1.1237  1.3633 -0.0499
18364SOL    HW259778   8.266   8.323   0.989 -1.1811  0.0872 -1.3357
18365SOL     OW59779  10.843  10.678  11.932 -0.4147 -0.3358  0.2180
18365SOL    HW159780  10.810  10.607  11.876  1.5017 -0.5602 -0.6894
18365SOL    HW259781  10.875  10.744  11.871  0.6740 -0.0712  1.0490
18366SOL     OW59782   6.866  10.074   4.425 -0.1105  0.2892 -0.2451
18366SOL    HW159783   6.771  10.085   4.429 -0.2965 -0.8270 -1.2063
18366SOL    HW259784   6.882  10.033   4.340  0.8873 -2.9241  1.3378
18367SOL     OW59785  10.077   2.723  11.658  0.4384 -0.2723 -0.5438
18367SOL    HW159786  10.054   2.717  11.566 -2.5483  0.3016  0.0818
18367SOL    HW259787  10.009   2.675  11.704 -0.8417  3.2332  1.6282
18368SOL     OW59788   8.576   9.858   1.174 -0.3514 -0.2257  0.1026
18368SOL    HW159789   8.624   9.780   1.202 -0.7136 -0.2271  0.7226
18368SOL    HW259790   8.484   9.837   1.189 -0.5252 -0.0714 -0.7079
18369SOL     OW59791  11.601   1.848  11.618  0.0382 -0.0325 -0.0414
18369SOL    HW159792  11.602   1.755  11.640 -0.3779  0.2438  1.2037
18369SOL    HW259793  11.691   1.877  11.633  0.1735 -0.2245 -0.4527
18370SOL     OW59794   6.001   9.995   4.923  0.0402  0.1718  0.1006
18370SOL    HW159795   6.027   9.957   4.838 -0.4321 -1.3744  0.6144
18370SOL    HW259796   5.905   9.997   4.919  0.0068 -0.2233  0.7297
18371SOL     OW59797   1.328   3.952   0.874  0.1967 -0.0134 -0.0591
18371SOL    HW159798   1.333   3.858   0.855  1.3119  0.5076 -2.6316
18371SOL    HW259799   1.405   3.989   0.833 -2.4719  2.6309 -3.2249
18372SOL     OW59800   7.078   6.961   8.553 -0.1839 -0.4038 -0.0326
18372SOL    HW159801   6.989   6.937   8.528 -0.1708 -0.3439 -0.1321
18372SOL    HW259802   7.125   6.878   8.554 -0.3268 -0.4872  0.3711
18373SOL     OW59803  10.152   4.030   6.055 -0.3882  0.3502 -0.4408
18373SOL    HW159804  10.238   4.003   6.023 -0.4500 -0.4860  0.0718
18373SOL    HW259805  10.154   4.009   6.148 -0.5754  1.8219 -0.0743
18374SOL     OW59806   5.940   6.253   8.345 -0.3106  0.5672 -0.0313
18374SOL    HW159807   5.976   6.181   8.293  0.2639  0.4216  0.5557
18374SOL    HW259808   5.845   6.241   8.338 -0.2344  0.1672 -0.5098
18375SOL     OW59809   6.701   4.598  10.510  0.5095  0.5639  0.3675
18375SOL    HW159810   6.658   4.537  10.450 -1.2441 -0.7990  2.8516
18375SOL    HW259811   6.667   4.684  10.485 -0.8695 -0.0704 -0.0310
18376SOL     OW59812   6.811   2.017   1.675  0.1667 -0.1690 -0.0147
18376SOL    HW159813   6.850   2.019   1.588 -1.3829 -1.7012 -0.8048
18376SOL    HW259814   6.885   2.018   1.735  1.2676  0.6824 -1.3346
18377SOL     OW59815   9.627   3.956   4.681 -0.5110  0.2940  0.2900
18377SOL    HW159816   9.552   3.897   4.688  0.5512 -1.2550 -0.7898
18377SOL    HW259817   9.703   3.898   4.687  0.5749  1.5471 -0.9366
18378SOL     OW59818  10.323  10.431   0.190 -0.4073 -0.5704  0.0472
18378SOL    HW159819  10.326  10.526   0.182 -0.5896 -0.5325  0.4394
18378SOL    HW259820  10.231  10.411   0.205 -0.2047 -0.7102  1.1774
18379SOL     OW59821   8.446   4.522   6.069  0.0485  0.1853  0.5027
18379SOL    HW159822   8.476   4.446   6.019  0.1529  1.1935 -1.0387
18379SOL    HW259823   8.437   4.591   6.003 -1.6489  1.0616  1.5947
18380SOL     OW59824  11.706   2.151   0.246  0.3324  0.1743 -0.0223
18380SOL    HW159825  11.695   2.057   0.263 -1.8581  0.2535 -0.7026
18380SOL    HW259826  11.627   2.192   0.281  0.4639  1.5483 -1.2126
18381SOL     OW59827   5.584   5.525   0.202  0.0756  0.1483 -0.5357
18381SOL    HW159828   5.550   5.614   0.215  0.7879  0.3160  0.2378
18381SOL    HW259829   5.569   5.482   0.286  0.3153 -0.2725 -0.7106
18382SOL     OW59830   5.260   2.863   4.675 -0.3489 -0.4688 -0.0541
18382SOL    HW159831   5.262   2.931   4.743 -0.5647 -0.7449  0.2373
18382SOL    HW259832   5.329   2.802   4.700  0.3110  0.0115 -0.7106
18383SOL     OW59833   7.868   9.964   9.257 -0.2492 -0.4625 -0.1527
18383SOL    HW159834   7.839  10.046   9.297  0.8023 -1.2981  2.5726
18383SOL    HW259835   7.821   9.896   9.306  0.6689 -1.5503 -0.7269
18384SOL     OW59836   1.497  11.331   3.108  0.3506 -0.5248 -0.0361
18384SOL    HW159837   1.478  11.292   3.023 -0.3327  0.1024 -0.1778
18384SOL    HW259838   1.510  11.424   3.090 -0.0579 -0.3443  0.5827
18385SOL     OW59839   5.100   1.964   3.734 -0.4357 -0.1735  0.2080
18385SOL    HW159840   5.048   1.969   3.654 -0.9728 -0.0101  0.5576
18385SOL    HW259841   5.058   2.027   3.793  0.2298  0.0398  0.4613
18386SOL     OW59842   8.055   6.463   2.304  0.3286  1.1391  0.1456
18386SOL    HW159843   8.058   6.374   2.270  2.4301  1.3031 -0.2737
18386SOL    HW259844   8.036   6.517   2.227  0.6392  1.1680  0.0879
18387SOL     OW59845  10.547   0.742   3.120  0.7349 -0.0798 -0.2289
18387SOL    HW159846  10.547   0.836   3.107  0.5504 -0.0666 -0.1356
18387SOL    HW259847  10.563   0.730   3.214  0.8224 -0.1443 -0.2506
18388SOL     OW59848   6.694   4.949   3.487 -0.3191 -0.9057  0.2716
18388SOL    HW159849   6.611   4.985   3.457  0.4563 -0.0905 -0.9441
18388SOL    HW259850   6.721   4.888   3.418  0.1734 -1.0591  0.5927
18389SOL     OW59851  10.912   8.972   8.132  0.0141 -0.5978  0.2155
18389SOL    HW159852  10.935   9.045   8.075 -3.3943 -0.5454 -1.3117
18389SOL    HW259853  10.915   8.895   8.076 -1.7373 -0.7902  0.3302
18390SOL     OW59854   8.423  10.852   5.866  0.5592  0.1007  0.2118
18390SOL    HW159855   8.368  10.849   5.787  1.1964  0.3463 -0.2562
18390SOL    HW259856   8.383  10.920   5.920  0.4605  0.3581 -0.1769
18391SOL     OW59857  11.142   6.064  10.891 -0.7595  0.0683 -0.2292
18391SOL    HW159858  11.173   6.003  10.823 -0.9136 -0.6664  0.3472
18391SOL    HW259859  11.069   6.019  10.932 -0.5202  0.4057  0.5824
18392SOL     OW59860   6.357   1.081   6.662  0.1686  0.2491  0.0089
18392SOL    HW159861   6.442   1.042   6.682 -0.0225  0.0950  0.5474
18392SOL    HW259862   6.319   1.024   6.596  1.3392  1.4568 -1.7970
18393SOL     OW59863   2.264   8.443  10.877  0.2395 -0.0659  0.1302
18393SOL    HW159864   2.224   8.367  10.834  1.1352 -0.3226 -0.2886
18393SOL    HW259865   2.218   8.452  10.960 -0.4316 -0.5631 -0.1858
18394SOL     OW59866   9.060  10.230   3.835  0.5317 -0.4156  0.6422
18394SOL    HW159867   9.091  10.268   3.918 -1.4178  1.5215  0.5795
18394SOL    HW259868   8.968  10.254   3.831  0.0425 -2.3587 -1.1003
18395SOL     OW59869   4.553  11.919   5.920 -0.7904 -0.1052  0.1558
18395SOL    HW159870   4.596  11.835   5.902  1.6994  1.1766 -0.3037
18395SOL    HW259871   4.544  11.921   6.015 -1.0530 -0.9618  0.1611
18396SOL     OW59872   2.252   0.781   9.798  0.8929 -0.2384 -0.4194
18396SOL    HW159873   2.340   0.794   9.763  1.0367 -1.6876 -0.6939
18396SOL    HW259874   2.194   0.811   9.728  1.1587  0.6285 -0.2787
18397SOL     OW59875   6.530   6.755   1.944 -0.0484  0.7538  0.7789
18397SOL    HW159876   6.619   6.736   1.974  0.9657  3.3167 -0.2670
18397SOL    HW259877   6.539   6.834   1.890 -2.5179 -0.5562 -1.8615
18398SOL     OW59878   7.030  10.669  10.108  0.9748  0.7003 -0.2887
18398SOL    HW159879   7.079  10.707  10.035  1.4765 -0.5215 -0.6171
18398SOL    HW259880   7.013  10.579  10.080 -0.9830  0.9279  0.0683
18399SOL     OW59881   2.163   1.519   3.186  0.1134 -0.4202 -0.4960
18399SOL    HW159882   2.156   1.437   3.233 -1.6665 -0.1636 -0.2725
18399SOL    HW259883   2.240   1.562   3.224 -0.1690 -1.0593  0.8206
18400SOL     OW59884  11.860   4.882   9.020  0.3137  0.2559 -0.3120
18400SOL    HW159885  11.786   4.867   8.961 -0.8267 -0.2736  1.2069
18400SOL    HW259886  11.825   4.939   9.088  0.3639 -2.3419  2.0604
18401SOL     OW59887   8.191   4.856   4.394 -0.1241  0.1187 -0.0871
18401SOL    HW159888   8.235   4.872   4.478 -1.0742  0.9106  0.2793
18401SOL    HW259889   8.200   4.762   4.380 -1.2375 -0.3031  1.6862
18402SOL     OW59890   7.086   2.395  11.797  0.2240 -0.3755  0.0543
18402SOL    HW159891   7.179   2.401  11.775  0.0198 -0.5376 -0.8708
18402SOL    HW259892   7.044   2.459  11.740  0.0723  1.8950  2.5014
18403SOL     OW59893   0.022   0.904   7.995  0.0505  0.4688  0.1412
18403SOL    HW159894   0.010   0.908   7.900  1.1862 -2.3599 -0.2202
18403SOL    HW259895  -0.058   0.863   8.028  0.0309  0.6358  0.3017
18404SOL     OW59896   9.021   2.192   1.455  0.0520 -0.6975 -0.5114
18404SOL    HW159897   9.079   2.225   1.387  1.2794  1.5957  1.4857
18404SOL    HW259898   8.970   2.268   1.483  1.3012 -0.8668  2.6875
18405SOL     OW59899   4.598   6.087   7.549 -0.1387 -0.1186  0.5992
18405SOL    HW159900   4.562   6.067   7.635 -0.3446 -1.9665  0.1300
18405SOL    HW259901   4.522   6.115   7.497  0.1119  1.8194  1.1912
18406SOL     OW59902   8.754   8.124   3.736 -0.0097  0.2605  0.2380
18406SOL    HW159903   8.816   8.054   3.757  1.1912  1.2969  0.2315
18406SOL    HW259904   8.783   8.199   3.788 -1.5697  0.6422  0.6198
18407SOL     OW59905   1.640  10.129   5.742  0.0094 -0.1304 -0.0218
18407SOL    HW159906   1.639  10.191   5.814  1.5752 -0.9153  0.7369
18407SOL    HW259907   1.653  10.183   5.664  0.9471  0.5556  0.5810
18408SOL     OW59908   6.654   5.927   5.152 -0.2779  0.0352  0.5275
18408SOL    HW159909   6.628   5.892   5.067  0.0213 -0.1538  0.5107
18408SOL    HW259910   6.716   5.862   5.186  0.6748  0.7880  0.2757
18409SOL     OW59911   2.200   5.550  11.121 -0.3223 -0.3132  0.0852
18409SOL    HW159912   2.114   5.510  11.103 -0.2402 -0.5837  0.2856
18409SOL    HW259913   2.237   5.497  11.192  0.3710 -0.7176 -0.5669
18410SOL     OW59914   2.549  10.451  11.865 -0.0507 -0.4917 -0.2236
18410SOL    HW159915   2.567  10.374  11.810  1.9504 -1.0313  1.0964
18410SOL    HW259916   2.531  10.521  11.802 -0.6607 -1.7092 -1.4815
18411SOL     OW59917   0.011   6.169   9.735  0.0619 -0.0159  0.6683
18411SOL    HW159918   0.080   6.190   9.672 -0.7613  0.8776  0.0358
18411SOL    HW259919   0.013   6.241   9.798  1.0964 -1.0635  1.9001
18412SOL     OW59920  10.640   9.049   4.723 -0.4485 -0.5163 -0.1990
18412SOL    HW159921  10.551   9.016   4.712 -0.0054 -1.2111 -1.9584
18412SOL    HW259922  10.636   9.140   4.694 -0.5047 -0.6786 -0.7108
18413SOL     OW59923  11.848   3.302  11.040  0.9441 -0.1068 -0.4400
18413SOL    HW159924  11.784   3.237  11.011 -1.8848  1.4204  1.8418
18413SOL    HW259925  11.908   3.252  11.096  0.5290 -1.2207 -0.9482
18414SOL     OW59926   6.277   8.467   3.685 -0.2300  0.4161 -0.0751
18414SOL    HW159927   6.352   8.502   3.637  0.8933 -0.3794  1.0627
18414SOL    HW259928   6.204   8.476   3.624  1.0700 -0.2013 -1.7956
18415SOL     OW59929   4.394  11.266   6.880  0.3788  0.4374  0.3861
18415SOL    HW159930   4.303  11.286   6.898 -0.1863  0.0348 -1.7030
18415SOL    HW259931   4.405  11.175   6.907 -0.5575 -0.2943 -1.4908
18416SOL     OW59932   1.409   2.357   9.135 -0.0427  0.1876 -0.0232
18416SOL    HW159933   1.343   2.326   9.197  1.3790 -2.4658  0.3121
18416SOL    HW259934   1.468   2.411   9.188 -0.0429 -0.2733  0.4547
18417SOL     OW59935  10.915   8.218   9.379 -0.0182 -0.0152  0.3944
18417SOL    HW159936  10.994   8.176   9.344 -0.3776 -0.1996 -0.1946
18417SOL    HW259937  10.936   8.232   9.472  0.7570  0.0505  0.2229
18418SOL     OW59938   4.176   0.390  10.692  0.5345  0.3025  0.7504
18418SOL    HW159939   4.240   0.344  10.637 -0.5517 -1.2586  0.7306
18418SOL    HW259940   4.184   0.349  10.778 -0.3313  0.1661  0.7774
18419SOL     OW59941   8.362  11.537  10.279  0.3065  0.0281  0.1788
18419SOL    HW159942   8.438  11.508  10.229  0.7863  0.3540  0.7021
18419SOL    HW259943   8.387  11.523  10.370 -0.6296 -0.7355  0.3247
18420SOL     OW59944   1.838   4.795   7.884  0.1061  0.2431 -0.4343
18420SOL    HW159945   1.814   4.742   7.959 -0.2895 -0.0110 -0.7352
18420SOL    HW259946   1.911   4.749   7.843 -0.0243  0.1054 -0.5096
18421SOL     OW59947   4.139   6.496   3.439 -0.2832 -0.1262  0.3001
18421SOL    HW159948   4.127   6.590   3.453  1.5021  0.2797 -0.5300
18421SOL    HW259949   4.107   6.481   3.350 -2.8779 -0.8465  1.2717
18422SOL     OW59950   2.014   7.921   2.914 -0.0715 -0.2184 -0.2543
18422SOL    HW159951   2.045   7.895   3.001  0.6507  1.6060  0.0705
18422SOL    HW259952   2.088   7.965   2.874 -1.2101  1.3273 -0.7508
18423SOL     OW59953   7.859   4.547   8.944 -0.5581 -0.3820  0.8196
18423SOL    HW159954   7.902   4.595   9.015  0.8188 -0.6415  0.2035
18423SOL    HW259955   7.788   4.499   8.986  0.1771 -0.4544  2.0064
18424SOL     OW59956  11.800   8.801   7.972 -1.0838  0.4712 -0.4945
18424SOL    HW159957  11.830   8.756   7.893 -1.3046 -0.4015 -0.0993
18424SOL    HW259958  11.712   8.766   7.987 -0.6321 -0.1976  0.7436
18425SOL     OW59959   0.141   2.045   3.864 -0.3492 -0.1988 -0.3447
18425SOL    HW159960   0.194   2.007   3.933  1.3968  0.2923 -1.3567
18425SOL    HW259961   0.142   2.139   3.881  0.6987  0.0064 -1.3954
18426SOL     OW59962   5.877   2.117  11.578  0.7390  0.9720 -0.3522
18426SOL    HW159963   5.821   2.058  11.629 -0.8065  1.4500 -1.4200
18426SOL    HW259964   5.966   2.087  11.596  0.2299  0.6928  2.0481
18427SOL     OW59965   0.874   1.490  11.429  0.4230  0.2923 -0.4092
18427SOL    HW159966   0.831   1.518  11.348  0.9283 -0.0956 -0.8185
18427SOL    HW259967   0.844   1.552  11.495 -1.3132 -0.3560 -0.5257
18428SOL     OW59968   6.148   6.264   9.265  0.5111  0.3266  0.2258
18428SOL    HW159969   6.201   6.215   9.202 -1.7652  1.9044 -3.2059
18428SOL    HW259970   6.061   6.226   9.258 -0.0757  1.3617  1.5684
18429SOL     OW59971  10.922   7.601   9.899  0.0472 -0.3649  0.0015
18429SOL    HW159972  10.981   7.659   9.850  0.0569  1.0401  1.5881
18429SOL    HW259973  10.882   7.658   9.964 -0.9245 -1.9075  0.7922
18430SOL     OW59974   5.136   2.532   1.093 -0.3398  0.0778 -0.3958
18430SOL    HW159975   5.208   2.502   1.149  0.0050 -1.1754 -1.4569
18430SOL    HW259976   5.063   2.545   1.154  0.4565  0.3000  0.5503
18431SOL     OW59977   5.823   1.313   9.094 -1.2098 -0.3050 -0.1743
18431SOL    HW159978   5.820   1.404   9.124 -1.0586  0.3469 -1.9531
18431SOL    HW259979   5.731   1.287   9.085 -1.2582 -0.6771  1.2448
18432SOL     OW59980   2.218   4.776   9.636 -0.3031  0.3532 -0.2451
18432SOL    HW159981   2.291   4.779   9.699 -2.1719  0.9454  2.0351
18432SOL    HW259982   2.228   4.856   9.585  0.5393  0.5148  0.1555
18433SOL     OW59983   8.009   2.150   4.684 -0.3096 -0.0046 -0.0120
18433SOL    HW159984   8.010   2.205   4.763  0.2148 -0.7930  0.5424
18433SOL    HW259985   8.091   2.100   4.688 -0.9822 -1.1647 -0.2558
18434SOL     OW59986   3.386  10.115   2.048 -0.2109 -0.1093  0.2257
18434SOL    HW159987   3.444  10.163   2.107 -0.6461  0.7636 -0.0475
18434SOL    HW259988   3.374  10.172   1.973  1.1311 -1.6126 -1.2204
18435SOL     OW59989   8.507   7.793   3.443  0.0980  0.5916  0.4512
18435SOL    HW159990   8.546   7.876   3.472 -0.5956  0.9408  0.4231
18435SOL    HW259991   8.459   7.815   3.363  0.0968  0.1134  0.3154
18436SOL     OW59992   9.011   7.443   6.316  0.1268 -0.7707 -0.3616
18436SOL    HW159993   9.106   7.451   6.312  0.3337 -1.8208  1.2785
18436SOL    HW259994   8.978   7.526   6.283  1.5281 -1.1273 -2.9031
18437SOL     OW59995   3.479   5.138   6.329  0.0193 -0.0047  0.2310
18437SOL    HW159996   3.421   5.203   6.368  0.2114 -0.1389  0.7466
18437SOL    HW259997   3.502   5.079   6.401  0.4778 -0.1809 -0.0513
18438SOL     OW59998   9.461   3.540  10.711  0.5813  0.1700 -0.0048
18438SOL    HW159999   9.447   3.446  10.707  1.4804  0.0574 -0.5935
18438SOL    HW260000   9.547   3.550  10.751 -0.3355  0.8107  1.9410
18439SOL     OW60001  10.293   3.179   2.416  0.2510 -0.3315 -0.3242
18439SOL    HW160002  10.303   3.265   2.375 -0.2727  0.3668  0.9659
18439SOL    HW260003  10.374   3.167   2.467 -1.4064  1.4163  3.0347
18440SOL     OW60004   6.484   9.121  10.317 -0.0983 -0.3616 -0.1363
18440SOL    HW160005   6.513   9.212  10.319  0.4632 -0.5388 -0.2932
18440SOL    HW260006   6.391   9.126  10.340 -0.0531  0.2421 -0.0631
18441SOL     OW60007   0.847   3.888   6.836 -0.5061  0.6747 -0.0637
18441SOL    HW160008   0.873   3.904   6.745 -1.2787  1.2111 -0.1944
18441SOL    HW260009   0.929   3.865   6.880 -0.3392 -1.3511 -1.2617
18442SOL     OW60010   6.486   5.456   9.999  0.3066 -0.3120  0.6468
18442SOL    HW160011   6.515   5.371  10.032 -1.8264 -1.7805 -0.9988
18442SOL    HW260012   6.518   5.458   9.909  2.3662  1.7509  1.3353
18443SOL     OW60013  10.693   1.332   5.090 -0.2789  0.1007  0.2327
18443SOL    HW160014  10.770   1.283   5.118 -0.3335 -0.2820 -0.2628
18443SOL    HW260015  10.633   1.265   5.057 -0.9317  0.3686  0.8613
18444SOL     OW60016   9.574  11.039   6.557  0.6291 -0.4818  0.7094
18444SOL    HW160017   9.606  10.956   6.593 -0.5782 -0.5332  1.7499
18444SOL    HW260018   9.566  11.023   6.463  0.4782 -1.5283  0.8872
18445SOL     OW60019   0.361   0.983   5.111  0.9991 -0.0160 -0.1386
18445SOL    HW160020   0.386   1.038   5.186  0.9040 -0.8241  0.5024
18445SOL    HW260021   0.434   0.921   5.103  0.9530 -0.0009 -0.6449
18446SOL     OW60022   6.304   3.944   6.572 -0.2080  0.5684 -0.2220
18446SOL    HW160023   6.239   3.888   6.529 -0.6990  0.0789  1.0946
18446SOL    HW260024   6.364   3.882   6.613 -0.6216  0.9775  1.0565
18447SOL     OW60025   9.946   5.798   1.871  0.0478 -0.2219 -1.2022
18447SOL    HW160026   9.986   5.859   1.934 -2.4323 -1.0456  1.4143
18447SOL    HW260027   9.885   5.852   1.821 -2.5228 -0.4072  1.4497
18448SOL     OW60028  10.477   5.072   8.315  0.1437  0.1151  0.0132
18448SOL    HW160029  10.445   5.151   8.272 -0.6746  0.0646  0.5104
18448SOL    HW260030  10.511   5.018   8.243  0.0521  0.6081 -0.4078
18449SOL     OW60031   3.177   1.482  11.121  0.3674 -0.4841  0.0077
18449SOL    HW160032   3.119   1.533  11.065 -1.3277 -1.9463  0.3542
18449SOL    HW260033   3.262   1.487  11.077  0.4493  2.9874  0.3045
18450SOL     OW60034   0.082   4.881   3.742 -0.4834 -0.4719 -0.4352
18450SOL    HW160035   0.071   4.957   3.798  2.0504 -0.5107  0.2340
18450SOL    HW260036   0.060   4.806   3.798  1.4768 -0.4697  0.4298
18451SOL     OW60037   6.376   1.178   2.847  0.1082  0.1316 -0.1976
18451SOL    HW160038   6.302   1.142   2.896 -0.6049  3.2528  1.3476
18451SOL    HW260039   6.338   1.209   2.765  0.5879 -1.8820 -1.2271
18452SOL     OW60040   0.717   9.049   0.926  0.0637 -0.4351  0.0585
18452SOL    HW160041   0.805   9.062   0.891 -0.0573 -3.1296 -1.5608
18452SOL    HW260042   0.658   9.064   0.852 -0.5630 -1.7378  0.2469
18453SOL     OW60043  11.548   7.132   7.141 -0.8837  0.5635 -0.7741
18453SOL    HW160044  11.558   7.082   7.222  2.0769 -0.5943 -1.7090
18453SOL    HW260045  11.552   7.224   7.169 -1.5634  0.2135  0.5197
18454SOL     OW60046   7.508   4.327   3.917 -0.2238  0.0600 -0.5005
18454SOL    HW160047   7.482   4.393   3.980  1.1953  1.2402 -1.1084
18454SOL    HW260048   7.523   4.248   3.969  1.4996  1.1621  0.7554
18455SOL     OW60049   9.129   0.125   5.112 -0.1676 -0.5956  0.3005
18455SOL    HW160050   9.050   0.130   5.057  0.6427  0.8812 -0.8043
18455SOL    HW260051   9.108   0.180   5.188 -0.5399 -0.9759  0.4781
18456SOL     OW60052   1.664   3.079   9.700  0.5515  0.8509  0.3954
18456SOL    HW160053   1.739   3.021   9.709 -0.1711  0.0264  1.4047
18456SOL    HW260054   1.697   3.166   9.723  1.0150  0.3519  1.7209
18457SOL     OW60055   1.233   2.600   0.631 -0.0503  0.2258  0.3467
18457SOL    HW160056   1.212   2.674   0.573  0.0397 -0.0075  0.0147
18457SOL    HW260057   1.223   2.636   0.719 -2.1652  0.0407  0.2216
18458SOL     OW60058   4.238   7.454   0.995 -0.0179 -0.1730  0.6395
18458SOL    HW160059   4.261   7.539   0.957  1.0276 -0.3257  0.9028
18458SOL    HW260060   4.197   7.406   0.923  0.7982 -0.0062  0.0561
18459SOL     OW60061   9.676   8.531   4.276  0.2867 -0.1065  0.1291
18459SOL    HW160062   9.638   8.565   4.357  1.3631 -0.6607  0.8977
18459SOL    HW260063   9.707   8.443   4.299 -1.8357 -1.4034 -1.6456
18460SOL     OW60064   6.321   4.065   8.392  0.7962 -0.1834  0.1830
18460SOL    HW160065   6.298   4.158   8.387  1.8708  0.1094  0.4807
18460SOL    HW260066   6.331   4.048   8.486  1.7990 -0.2930  0.0577
18461SOL     OW60067   9.756   7.933  11.612 -0.1537 -0.1943  0.2739
18461SOL    HW160068   9.671   7.974  11.625  0.4382  1.6928 -1.2816
18461SOL    HW260069   9.811   7.968  11.682  0.2096  1.4200 -0.7453
18462SOL     OW60070  11.568   3.509   0.706 -0.2166 -0.2771 -0.2088
18462SOL    HW160071  11.616   3.483   0.785  1.5626 -0.6783 -1.3571
18462SOL    HW260072  11.635   3.545   0.648 -1.9059  2.7111 -0.4855
18463SOL     OW60073   3.743   7.091   1.647 -0.2990 -0.0454  0.4334
18463SOL    HW160074   3.719   7.060   1.559 -0.9233 -1.7728  1.1693
18463SOL    HW260075   3.720   7.018   1.705  1.9666  0.2647  1.8187
18464SOL     OW60076  11.235   2.752   6.509  0.3833  0.5384  0.5574
18464SOL    HW160077  11.326   2.778   6.519 -0.2661  3.3609 -0.1184
18464SOL    HW260078  11.233   2.661   6.537  3.3630  0.4339  0.7192
18465SOL     OW60079  10.352  10.209   1.587  0.7196  0.1133  0.1173
18465SOL    HW160080  10.279  10.270   1.599  0.7213 -0.0062  0.7472
18465SOL    HW260081  10.430  10.263   1.597  0.7193  0.1465 -0.0574
18466SOL     OW60082   9.888   7.518  11.113  0.0871 -0.8597 -0.8146
18466SOL    HW160083   9.809   7.471  11.139  0.5006 -0.3998  1.6122
18466SOL    HW260084   9.873   7.542  11.022 -1.5013 -2.8633 -1.1581
18467SOL     OW60085   6.225   5.582   0.397  0.1490  0.3524 -0.0156
18467SOL    HW160086   6.142   5.535   0.405 -1.2158  2.6619  0.2638
18467SOL    HW260087   6.246   5.609   0.486 -0.9807  3.2161 -0.5271
18468SOL     OW60088   6.634   8.648   7.920 -0.1573 -0.1904  0.3492
18468SOL    HW160089   6.707   8.652   7.982 -0.0772 -0.2532  0.2597
18468SOL    HW260090   6.675   8.623   7.837  0.1597  2.6827 -0.4525
18469SOL     OW60091  11.075   5.435   6.528  0.0561  0.8486  0.3918
18469SOL    HW160092  11.033   5.443   6.443 -0.1892  0.2863  0.4611
18469SOL    HW260093  11.014   5.386   6.582  0.8961 -0.2035  0.4188
18470SOL     OW60094   5.076   5.798   1.649 -0.1934  0.0300 -0.1329
18470SOL    HW160095   5.128   5.820   1.726  0.0093  0.6748 -0.4463
18470SOL    HW260096   5.093   5.869   1.587 -1.2857  0.1599 -0.3159
18471SOL     OW60097   0.679   2.565   1.489 -0.2613 -0.4935  0.0279
18471SOL    HW160098   0.622   2.524   1.554  0.0717  0.0183  0.6544
18471SOL    HW260099   0.681   2.657   1.513  0.5897 -0.4520 -0.1627
18472SOL     OW60100   0.559   7.420   3.689  0.1588  0.4420  0.8067
18472SOL    HW160101   0.580   7.363   3.763 -0.4790  0.7054  1.1944
18472SOL    HW260102   0.625   7.489   3.694  0.7557 -0.0936  0.5077
18473SOL     OW60103   9.425   6.677   9.760 -0.1949 -0.0166  0.2174
18473SOL    HW160104   9.440   6.590   9.796  1.2637  0.8592  1.8575
18473SOL    HW260105   9.464   6.674   9.672  1.3827 -0.5417  0.9062
18474SOL     OW60106   4.813   3.520   7.202 -0.4235 -0.0397  0.2215
18474SOL    HW160107   4.731   3.534   7.250  0.2481  2.4056  0.7694
18474SOL    HW260108   4.880   3.511   7.270 -0.3132 -3.4928 -0.1656
18475SOL     OW60109  10.818   1.409   3.708 -0.1892 -0.2075  0.0476
18475SOL    HW160110  10.775   1.447   3.785  2.1885 -1.0401  1.8924
18475SOL    HW260111  10.900   1.458   3.699  0.2961 -1.1528 -1.0151
18476SOL     OW60112   5.833   9.015   0.700 -0.2004 -0.3094 -0.1652
18476SOL    HW160113   5.863   9.029   0.610  0.2019  0.0304  0.0168
18476SOL    HW260114   5.798   9.099   0.727 -0.1845 -0.3713  0.0470
18477SOL     OW60115   4.439   2.615   8.754  0.6523  0.0678  0.5020
18477SOL    HW160116   4.531   2.589   8.756  0.5719 -0.3314 -0.3222
18477SOL    HW260117   4.405   2.575   8.674 -0.3877 -0.2895  1.1095
18478SOL     OW60118   4.206   7.718   5.934  0.3388 -0.0547 -0.1261
18478SOL    HW160119   4.198   7.812   5.949  0.5130 -0.1312  0.5122
18478SOL    HW260120   4.300   7.701   5.939  0.1989 -0.5725  1.9701
18479SOL     OW60121   0.615  10.879   5.704  0.1611 -0.4366  0.3928
18479SOL    HW160122   0.531  10.904   5.665  0.6565 -0.0717 -0.4659
18479SOL    HW260123   0.678  10.942   5.668  0.6131  0.0492  1.9524
18480SOL     OW60124   1.247   9.862   9.849 -0.3739  0.1135  0.1592
18480SOL    HW160125   1.302   9.788   9.823 -0.5454 -0.8081  2.2142
18480SOL    HW260126   1.219   9.901   9.766  1.2905 -0.9286 -0.9691
18481SOL     OW60127  11.094  11.792   4.496  0.0850  0.2596  0.2257
18481SOL    HW160128  11.031  11.851   4.454  0.5651 -1.0070 -2.4830
18481SOL    HW260129  11.108  11.722   4.433  2.4439 -0.7693  1.7196
18482SOL     OW60130   3.138   2.884   1.075 -0.1589  0.1914  0.5604
18482SOL    HW160131   3.227   2.866   1.044 -0.2336 -1.0195  1.0127
18482SOL    HW260132   3.082   2.866   0.999 -0.1416 -0.5269  0.7119
18483SOL     OW60133   7.942   2.939   7.590  0.2158  0.1899 -0.0550
18483SOL    HW160134   8.009   2.939   7.659 -0.6464  1.2465  0.8037
18483SOL    HW260135   7.950   3.025   7.549 -0.7032  0.3752  0.1447
18484SOL     OW60136   9.839   3.804   5.383 -0.1617 -0.1854 -0.1684
18484SOL    HW160137   9.795   3.766   5.307  0.0555 -0.8648  0.0448
18484SOL    HW260138   9.903   3.738   5.410 -1.0177 -0.4464  1.3024
18485SOL     OW60139   2.194   6.890  10.406 -0.1291 -0.2200  0.3294
18485SOL    HW160140   2.205   6.817  10.346 -0.3135 -0.9687  1.1981
18485SOL    HW260141   2.248   6.960  10.369  0.0049 -0.7757 -0.5295
18486SOL     OW60142   6.991  10.588   4.694  0.0982  0.4560 -0.0822
18486SOL    HW160143   7.079  10.555   4.674 -0.4012  0.2049 -2.0702
18486SOL    HW260144   6.951  10.518   4.744  0.9661  0.5035  0.7121
18487SOL     OW60145   8.921   8.793   2.647 -0.1082  0.6367  0.4609
18487SOL    HW160146   9.015   8.803   2.665 -0.6332  1.3997  3.2623
18487SOL    HW260147   8.894   8.717   2.698 -0.7482 -0.7072 -1.7559
18488SOL     OW60148   5.356   2.546   1.254 -0.4100 -0.0281  0.4918
18488SOL    HW160149   5.329   2.481   1.319  0.0459  0.1420  0.8577
18488SOL    HW260150   5.451   2.534   1.246 -0.1427  1.2484  1.3206
18489SOL     OW60151   4.868   9.665   2.553 -0.2392 -0.3040 -0.1897
18489SOL    HW160152   4.789   9.720   2.555  1.0121  1.5990  1.3178
18489SOL    HW260153   4.933   9.721   2.510  0.8683 -0.9265  0.6511
18490SOL     OW60154  11.174   4.394   5.120  0.0857  0.3689 -0.2512
18490SOL    HW160155  11.250   4.444   5.092  0.1544 -1.0004 -2.7611
18490SOL    HW260156  11.100   4.432   5.073 -0.1024 -0.8298 -0.9765
18491SOL     OW60157   5.374   1.216  10.780  0.1293  0.0055  0.4596
18491SOL    HW160158   5.386   1.130  10.821  0.6016 -0.3637 -0.4235
18491SOL    HW260159   5.431   1.275  10.830 -1.4202  0.1643  2.1047
18492SOL     OW60160   2.854   4.065   9.161 -0.3522 -0.2120 -0.3894
18492SOL    HW160161   2.929   4.012   9.132  0.1956  1.1413 -1.5435
18492SOL    HW260162   2.778   4.022   9.120 -0.0457 -0.7509 -0.4050
18493SOL     OW60163   8.997   5.999   4.026  0.3519  0.5366  0.1132
18493SOL    HW160164   8.909   6.035   4.021  0.8657  1.9837  0.8673
18493SOL    HW260165   9.015   5.966   3.938 -0.5125  1.2894 -0.3597
18494SOL     OW60166   2.330   6.184   6.192  0.1680  0.4114 -0.2010
18494SOL    HW160167   2.343   6.182   6.287 -0.0737  1.4728 -0.1320
18494SOL    HW260168   2.393   6.249   6.161  0.5041 -0.2077 -0.8129
18495SOL     OW60169   8.945   8.098   5.354  0.1687 -0.3075 -0.0089
18495SOL    HW160170   8.957   8.114   5.260  0.7735  0.1891  0.1419
18495SOL    HW260171   8.939   8.186   5.392  1.9190 -0.4211  0.6396
18496SOL     OW60172   7.043   3.349   9.480  0.2049  0.4153  0.3985
18496SOL    HW160173   7.044   3.262   9.520  0.2201 -0.0830 -0.6755
18496SOL    HW260174   7.064   3.334   9.388 -1.1969  1.3901 -0.1113
18497SOL     OW60175   2.101   2.294   3.111 -0.4148 -0.3056 -0.2958
18497SOL    HW160176   2.024   2.341   3.143 -0.5767  0.8148 -2.2126
18497SOL    HW260177   2.093   2.207   3.149 -1.2446  0.5377  1.6169
18498SOL     OW60178   8.335   5.449   9.578 -0.3568 -0.3718  0.6786
18498SOL    HW160179   8.427   5.422   9.574 -0.6849 -1.6236  1.1432
18498SOL    HW260180   8.286   5.368   9.562 -1.3959 -0.2094  2.7824
18499SOL     OW60181   6.993   6.020   7.691 -0.6013 -0.0724  0.2429
18499SOL    HW160182   7.058   6.049   7.756 -0.8308  0.5386  0.2114
18499SOL    HW260183   6.913   6.007   7.742 -0.6780  0.0166  0.1442
18500SOL     OW60184   2.140   0.483   7.157 -0.4381  0.2262  0.1005
18500SOL    HW160185   2.128   0.440   7.072 -0.8227  0.9229 -0.2093
18500SOL    HW260186   2.230   0.516   7.155 -0.8345  1.3037 -0.5432
18501SOL     OW60187   7.989   5.574   5.363 -0.1564 -0.0548  0.1822
18501SOL    HW160188   7.941   5.549   5.283 -0.0347  1.1464 -0.2880
18501SOL    HW260189   7.938   5.535   5.434 -0.3632 -1.0035 -0.4643
18502SOL     OW60190   6.314   1.532  11.948 -0.6240 -0.1968 -0.6099
18502SOL    HW160191   6.318   1.444  11.910 -0.0175 -0.0413 -0.9171
18502SOL    HW260192   6.369   1.586  11.891 -0.6169  0.2854 -0.1598
18503SOL     OW60193   7.686   1.486   5.418 -0.5112 -0.4703  0.8676
18503SOL    HW160194   7.673   1.425   5.346  1.6113  0.0446 -0.0528
18503SOL    HW260195   7.777   1.471   5.446 -0.7121  0.5837  2.2251
18504SOL     OW60196  11.091   7.424   7.477  0.2352  0.5302 -0.5239
18504SOL    HW160197  11.106   7.461   7.390 -0.4601 -0.7955 -1.2256
18504SOL    HW260198  11.135   7.340   7.475 -0.5257  0.1083  0.1061
18505SOL     OW60199   8.507   0.205  11.910 -0.3467  0.4086  0.5021
18505SOL    HW160200   8.445   0.163  11.850  0.2129  1.2510 -0.6949
18505SOL    HW260201   8.551   0.132  11.954  1.0471 -0.3349 -1.9739
18506SOL     OW60202   9.422   9.610  10.051 -0.1563 -0.0439  0.1951
18506SOL    HW160203   9.472   9.529  10.047  0.1634  0.1463  0.3683
18506SOL    HW260204   9.340   9.585  10.094 -0.3148 -0.4044 -0.3032
18507SOL     OW60205  11.824   7.634   0.857  0.0270  0.1179 -0.2665
18507SOL    HW160206  11.777   7.563   0.815 -0.2828  0.6059 -0.7591
18507SOL    HW260207  11.897   7.654   0.798 -0.0090  0.3488 -0.2360
18508SOL     OW60208   9.495   3.567   9.447 -0.4459 -0.1840  0.3517
18508SOL    HW160209   9.439   3.529   9.380  0.0334  0.0771 -0.2082
18508SOL    HW260210   9.507   3.658   9.419 -0.0669 -0.1339  0.6716
18509SOL     OW60211   7.037   8.192   4.021  0.4169 -0.0234  0.0879
18509SOL    HW160212   7.018   8.285   4.030  0.9922  0.0712  0.3980
18509SOL    HW260213   6.952   8.149   4.031  0.1604  0.4630  0.0152
18510SOL     OW60214   9.393   5.871  11.851  0.0540 -0.1878  0.1430
18510SOL    HW160215   9.426   5.958  11.827  2.3510 -1.2340 -0.7208
18510SOL    HW260216   9.455   5.839  11.916  0.8710 -2.2476 -1.5500
18511SOL     OW60217  10.269   4.737   8.760  1.2799 -0.0493 -0.6256
18511SOL    HW160218  10.364   4.746   8.756  1.4246 -0.6893  0.8422
18511SOL    HW260219  10.253   4.644   8.748  1.0362 -0.3313  1.5471
18512SOL     OW60220  10.835   7.998   3.247 -0.2068 -0.4281  0.2426
18512SOL    HW160221  10.872   8.063   3.188 -0.1098 -0.1732  0.5823
18512SOL    HW260222  10.890   8.002   3.326 -0.9192 -0.0751  0.7315
18513SOL     OW60223  10.048   6.611   2.174 -0.0833 -0.6447  0.4847
18513SOL    HW160224  10.086   6.683   2.223 -2.1794  1.6731 -1.0197
18513SOL    HW260225   9.987   6.568   2.235 -0.1887  0.0585  0.8736
18514SOL     OW60226   9.824   8.437   7.348 -0.0397 -0.9158  0.2943
18514SOL    HW160227   9.830   8.400   7.260 -0.0495  1.3935 -0.7585
18514SOL    HW260228   9.915   8.440   7.379 -0.2033 -3.6508  1.3060
18515SOL     OW60229   3.567  10.118  10.521  0.1520 -0.5317  0.4426
18515SOL    HW160230   3.482  10.160  10.516 -0.1331 -1.1951 -0.7517
18515SOL    HW260231   3.620  10.164  10.456  0.7377 -0.0724  1.2315
18516SOL     OW60232   1.616   9.940  10.749  0.1096  0.8300  0.3087
18516SOL    HW160233   1.650   9.922  10.836  1.5765  0.2957 -0.3357
18516SOL    HW260234   1.655   9.872  10.694 -0.4100  1.4387 -0.8489
18517SOL     OW60235   0.530  11.580   2.091 -0.3244  0.0617 -0.3430
18517SOL    HW160236   0.508  11.648   2.154 -0.4599  0.7075 -1.0649
18517SOL    HW260237   0.556  11.505   2.144  1.2201  1.1209  0.4766
18518SOL     OW60238   7.301   6.815   1.981 -0.3568 -0.2100  0.3289
18518SOL    HW160239   7.264   6.771   1.904 -0.2999 -0.5329  0.4854
18518SOL    HW260240   7.228   6.820   2.043 -0.5743  0.6138  0.0189
18519SOL     OW60241   2.452   9.631   7.726 -0.1110 -0.3011  0.2154
18519SOL    HW160242   2.489   9.562   7.670 -1.0649 -0.7141  0.0788
18519SOL    HW260243   2.442   9.707   7.668 -0.1159 -0.4007  0.0862
18520SOL     OW60244   8.397   7.766   8.244  0.5623 -0.7269  0.1496
18520SOL    HW160245   8.372   7.773   8.336  0.4278 -2.1784  0.2436
18520SOL    HW260246   8.423   7.855   8.219 -0.7017 -0.0275  1.2062
18521SOL     OW60247   1.936  10.564   0.764 -0.0839  0.8254  0.1387
18521SOL    HW160248   2.025  10.595   0.781  0.8687 -2.0847  1.1993
18521SOL    HW260249   1.921  10.498   0.832 -2.8554  0.8346 -0.3643
18522SOL     OW60250   2.133   3.829   8.309 -0.2150  0.2862  0.2185
18522SOL    HW160251   2.209   3.849   8.365 -1.2183 -0.2287  1.8468
18522SOL    HW260252   2.137   3.894   8.239  0.9705  1.1327  1.0229
18523SOL     OW60253  10.960   5.370   8.850 -0.2653 -0.7386  0.1392
18523SOL    HW160254  10.894   5.310   8.885 -0.4995 -0.8384 -0.4673
18523SOL    HW260255  10.992   5.327   8.771  0.9610 -0.9724  0.7339
18524SOL     OW60256   0.043   5.284   4.360 -0.2087  0.4815  0.8172
18524SOL    HW160257  -0.042   5.277   4.315 -0.6967  0.0125  1.7782
18524SOL    HW260258   0.105   5.243   4.300 -0.9562 -0.7483  0.8416
18525SOL     OW60259  10.229   8.124   0.767 -0.5552 -0.0882  0.5804
18525SOL    HW160260  10.141   8.089   0.779 -0.1967 -1.0485  0.5009
18525SOL    HW260261  10.248   8.114   0.674 -0.7503  1.1069  0.3884
18526SOL     OW60262  11.543   2.139   6.250  0.2466  0.3456 -0.1022
18526SOL    HW160263  11.524   2.169   6.339 -0.3917 -1.9676  0.6235
18526SOL    HW260264  11.473   2.175   6.196 -1.3861 -1.0113  1.0083
18527SOL     OW60265   3.822   3.160  11.617  0.7054  0.2477 -0.2135
18527SOL    HW160266   3.791   3.085  11.566  0.1555  0.6625 -0.5024
18527SOL    HW260267   3.759   3.166  11.689  1.6574 -0.5272  0.7090
18528SOL     OW60268   5.450   4.488   5.376 -0.3048 -0.4094  0.1827
18528SOL    HW160269   5.449   4.568   5.324 -0.6607 -0.6722 -0.2277
18528SOL    HW260270   5.375   4.438   5.344 -0.3599 -0.7011  0.7610
18529SOL     OW60271   6.475   3.798  11.039 -0.0059 -0.6490  0.2658
18529SOL    HW160272   6.494   3.816  10.947  0.4666  1.1876  0.6871
18529SOL    HW260273   6.380   3.798  11.044 -0.1525  2.9582  0.3295
18530SOL     OW60274   8.505   0.155   3.332 -0.5135 -0.5540 -0.1477
18530SOL    HW160275   8.482   0.237   3.288  2.0924  0.2371 -0.2036
18530SOL    HW260276   8.477   0.087   3.271 -0.0141  0.4105 -1.4924
18531SOL     OW60277   7.283   0.352  11.053 -0.3375  0.1985 -0.1233
18531SOL    HW160278   7.194   0.359  11.088 -0.7116 -0.3138 -0.9424
18531SOL    HW260279   7.284   0.269  11.005  0.4762  0.3636 -0.4170
18532SOL     OW60280   7.742   5.607  10.704  0.5461  0.3126  0.6343
18532SOL    HW160281   7.657   5.596  10.747 -0.5770  1.1328 -1.1936
18532SOL    HW260282   7.765   5.699  10.719 -0.0436  0.7166 -0.7076
18533SOL     OW60283   5.712   9.071   5.711 -0.7283  0.1853 -0.2698
18533SOL    HW160284   5.647   9.017   5.667 -1.8224  1.1366  0.1332
18533SOL    HW260285   5.750   9.125   5.641  0.5261 -1.1948 -0.7127
18534SOL     OW60286   8.240   6.918   9.273 -0.4450 -0.2707 -0.4694
18534SOL    HW160287   8.186   6.955   9.203  0.9235 -0.5619 -1.7278
18534SOL    HW260288   8.208   6.960   9.353 -1.2846  0.9489 -1.4047
18535SOL     OW60289   7.836   2.072   3.140  0.8235 -0.5222 -0.3541
18535SOL    HW160290   7.897   2.110   3.077  1.0552  0.7825  0.5974
18535SOL    HW260291   7.881   1.995   3.174  1.6766  0.0610 -0.1369
18536SOL     OW60292   2.997   6.152   6.441  0.1894 -0.7649 -0.0300
18536SOL    HW160293   2.923   6.189   6.392 -0.2135  0.3178  1.3380
18536SOL    HW260294   2.985   6.057   6.435 -1.3451 -0.6103  0.2080
18537SOL     OW60295   2.294   2.641   7.046 -0.0698 -0.2348  0.2532
18537SOL    HW160296   2.231   2.702   7.085  0.1800 -0.5897  1.2390
18537SOL    HW260297   2.360   2.697   7.007  1.4932  0.2365  3.2528
18538SOL     OW60298   2.797   8.181   9.148  0.1319  0.4721  0.4404
18538SOL    HW160299   2.797   8.104   9.204  0.5742  0.8830  1.0275
18538SOL    HW260300   2.765   8.150   9.063  2.1968 -0.7802  0.0582
18539SOL     OW60301   0.237   2.345  10.283 -0.1594 -0.1055  0.0374
18539SOL    HW160302   0.223   2.439  10.271 -0.1954 -0.0998  0.1227
18539SOL    HW260303   0.297   2.339  10.358 -0.7186 -0.1734  0.4942
18540SOL     OW60304   6.306   2.166   9.446  0.1126 -0.1465  0.1344
18540SOL    HW160305   6.237   2.223   9.481  1.0421  0.6913  0.6607
18540SOL    HW260306   6.306   2.090   9.503 -1.7429 -1.1700 -1.0952
18541SOL     OW60307   5.689   3.909   7.248 -0.5715 -0.6370  0.1349
18541SOL    HW160308   5.682   3.941   7.337 -0.8747 -0.3749  0.0164
18541SOL    HW260309   5.655   3.819   7.252 -2.7915  0.1369 -0.1582
18542SOL     OW60310   9.873   6.132  10.219 -0.5630  0.1633 -0.3023
18542SOL    HW160311   9.824   6.123  10.300  1.6728 -0.9492  1.0233
18542SOL    HW260312   9.919   6.215  10.228 -0.1974 -0.0321 -0.3627
18543SOL     OW60313  11.380   4.366   4.630 -0.3427 -0.1222  0.1159
18543SOL    HW160314  11.344   4.307   4.697  0.5970  0.4282  1.1383
18543SOL    HW260315  11.429   4.431   4.680 -1.3923  1.5772 -0.9812
18544SOL     OW60316   3.370   9.456  10.406  0.3519 -0.1201 -0.4889
18544SOL    HW160317   3.423   9.376  10.408  0.0350 -0.3307  0.8107
18544SOL    HW260318   3.423   9.521  10.454 -0.4815 -0.3058  0.7341
18545SOL     OW60319   9.985   7.372   1.113 -0.4813  0.3356 -0.5674
18545SOL    HW160320  10.061   7.399   1.166 -0.4441 -0.9621  0.0636
18545SOL    HW260321   9.963   7.285   1.145  0.1038 -0.9287 -3.2788
18546SOL     OW60322   7.780   2.641   9.840 -0.2927  0.1883 -0.1998
18546SOL    HW160323   7.842   2.702   9.881 -0.7679  0.2649  0.4134
18546SOL    HW260324   7.697   2.688   9.841 -0.0044  0.8888 -2.8240
18547SOL     OW60325  10.749  10.943   8.538  0.6895 -0.2102  0.9775
18547SOL    HW160326  10.697  10.963   8.460  2.5147  0.7741 -0.0804
18547SOL    HW260327  10.693  10.966   8.612 -1.0217 -0.9823 -0.0345
18548SOL     OW60328   5.767  10.941   1.291  0.5476 -0.0410  0.0601
18548SOL    HW160329   5.792  10.849   1.300 -0.3926 -0.2839  0.2628
18548SOL    HW260330   5.825  10.975   1.223  3.3898  0.1545  2.3471
18549SOL     OW60331   2.455   2.229   8.218  0.0381  0.2872 -0.2530
18549SOL    HW160332   2.484   2.297   8.278 -0.0284 -0.0468  0.1625
18549SOL    HW260333   2.534   2.204   8.169 -0.3123  2.0659 -1.8559
18550SOL     OW60334   8.338   3.090   2.222 -0.0941 -0.1441 -0.8725
18550SOL    HW160335   8.380   3.174   2.200 -0.1861  0.7805  2.0691
18550SOL    HW260336   8.405   3.024   2.203  0.9898  0.8689 -0.6785
18551SOL     OW60337   3.895   0.759  11.189 -0.2819 -0.6235 -0.5755
18551SOL    HW160338   3.888   0.687  11.127 -1.2753 -0.6235 -0.4801
18551SOL    HW260339   3.850   0.727  11.267 -0.0459 -0.1879 -0.2592
18552SOL     OW60340   7.530   0.244  10.417 -0.1243 -0.5868  0.1173
18552SOL    HW160341   7.542   0.231  10.323  1.3257  1.1137  0.0144
18552SOL    HW260342   7.618   0.261  10.451 -0.8792  1.3358  1.3231
18553SOL     OW60343   1.854   4.953   3.971  0.0413  0.3004 -0.2974
18553SOL    HW160344   1.837   4.920   4.059  0.3612  0.2641 -0.2484
18553SOL    HW260345   1.774   5.001   3.947  0.3236  1.1408  0.4011
18554SOL     OW60346   7.270   9.166   5.452  0.3432  0.5299 -0.2789
18554SOL    HW160347   7.325   9.216   5.392  2.1626 -0.0144  0.8509
18554SOL    HW260348   7.260   9.223   5.528 -0.3026  0.4364 -0.2860
18555SOL     OW60349   6.768  10.144   9.763 -0.4672  0.0714 -0.0723
18555SOL    HW160350   6.849  10.194   9.777 -0.4156 -0.1949  0.6310
18555SOL    HW260351   6.726  10.186   9.688  0.6113 -0.1465 -0.8180
18556SOL     OW60352   7.837   0.236   5.141  0.5211  0.3203 -0.1437
18556SOL    HW160353   7.855   0.197   5.055  1.3740  0.3223  0.0327
18556SOL    HW260354   7.754   0.283   5.128 -1.2658 -2.5376 -0.0345
18557SOL     OW60355   2.590   0.449  11.008 -0.8341  0.0333  0.4413
18557SOL    HW160356   2.502   0.418  11.030 -1.3313  0.9766 -0.1500
18557SOL    HW260357   2.587   0.467  10.914  0.4207 -1.2587  0.1138
18558SOL     OW60358  11.655   3.451   9.861  0.2773  0.2884  0.6529
18558SOL    HW160359  11.744   3.485   9.868  0.5618 -0.3030  0.0580
18558SOL    HW260360  11.650   3.381   9.927  1.2223 -1.6495 -1.2046
18559SOL     OW60361   9.171   9.816   8.735  0.0746 -1.1525  0.1221
18559SOL    HW160362   9.148   9.727   8.763 -3.0813 -0.7444 -0.8291
18559SOL    HW260363   9.088   9.856   8.711  1.6763  1.2733 -1.8545
18560SOL     OW60364  11.999  11.265  11.157  0.5212  0.0510 -0.6176
18560SOL    HW160365  11.988  11.170  11.169 -0.8688  0.2569 -0.1465
18560SOL    HW260366  11.943  11.304  11.224  1.1067  1.2167 -0.7902
18561SOL     OW60367   5.336  10.628   6.702 -0.3580  0.4525  0.1866
18561SOL    HW160368   5.303  10.650   6.790  0.7739  1.8539  0.2961
18561SOL    HW260369   5.416  10.579   6.718 -0.4841  0.1553 -0.0794
18562SOL     OW60370   5.752   9.984  11.115  0.7177 -0.3089  0.3238
18562SOL    HW160371   5.836   9.939  11.127  0.3943 -0.9634  0.1848
18562SOL    HW260372   5.687   9.918  11.138  0.2052 -0.2641 -0.9438
18563SOL     OW60373   9.209  11.819   7.501  0.2899 -0.4072  0.7524
18563SOL    HW160374   9.212  11.780   7.588  0.1453 -0.3111  0.8019
18563SOL    HW260375   9.193  11.912   7.517  4.7431  0.5711  0.8516
18564SOL     OW60376   6.361   2.930   5.257 -0.8330 -0.2683  0.5800
18564SOL    HW160377   6.284   2.984   5.246 -0.2488  0.4613 -0.0096
18564SOL    HW260378   6.351   2.860   5.192  0.4903  1.5892 -1.7804
18565SOL     OW60379   9.246   2.464   3.401  0.3410  0.4504  0.2093
18565SOL    HW160380   9.317   2.490   3.342  0.7359 -1.9155 -0.4662
18565SOL    HW260381   9.268   2.374   3.426 -2.3841 -0.3539 -0.0028
18566SOL     OW60382   4.083   6.167   1.641 -0.3353  0.3178 -0.4427
18566SOL    HW160383   4.021   6.181   1.568  0.1334  1.0195 -0.7129
18566SOL    HW260384   4.033   6.190   1.719 -0.8333 -0.4051 -0.5293
18567SOL     OW60385   5.121   6.266   3.617  0.1448  0.1640  0.2090
18567SOL    HW160386   5.214   6.241   3.615 -0.0599 -0.7877 -2.7293
18567SOL    HW260387   5.075   6.184   3.635 -0.1709  0.4245  0.5947
18568SOL     OW60388   5.112   2.109  10.805  0.5056 -0.1643  0.1237
18568SOL    HW160389   5.040   2.080  10.861 -0.8823  3.8548  0.7446
18568SOL    HW260390   5.069   2.134  10.722  1.4198  0.6430 -0.1280
18569SOL     OW60391   9.464  10.993  10.841  0.4214  0.2803  0.0170
18569SOL    HW160392   9.483  11.061  10.776  1.4014  0.9185  0.9333
18569SOL    HW260393   9.369  10.985  10.840  0.3816  0.6539 -1.1062
18570SOL     OW60394   2.019   5.716   1.164 -0.0958  0.2755  0.1828
18570SOL    HW160395   1.955   5.733   1.095  0.7805 -1.9773 -1.2719
18570SOL    HW260396   2.087   5.783   1.151 -0.8181  0.9949  0.0457
18571SOL     OW60397   3.242   6.347   1.440  0.4631  0.1695  0.8764
18571SOL    HW160398   3.302   6.329   1.367 -1.7557  0.0270 -1.0236
18571SOL    HW260399   3.238   6.264   1.488 -2.5100 -1.8494 -2.3797
18572SOL     OW60400   6.819  10.765   2.603 -0.0780 -0.0808 -0.7010
18572SOL    HW160401   6.839  10.680   2.643 -0.7688 -0.1420 -0.4695
18572SOL    HW260402   6.729  10.756   2.571 -0.5825  0.9279  0.3523
18573SOL     OW60403  10.499   0.282   8.569  0.9915  0.0394  0.1941
18573SOL    HW160404  10.492   0.198   8.525 -0.0183  1.1098 -1.8066
18573SOL    HW260405  10.427   0.283   8.632 -0.8649  0.5122 -1.8350
18574SOL     OW60406  11.385   1.996   5.832  0.8364 -1.0014 -0.2393
18574SOL    HW160407  11.291   1.987   5.848  0.0636  2.0444 -2.2700
18574SOL    HW260408  11.408   1.922   5.776 -0.0770 -2.3117  1.0618
18575SOL     OW60409   8.187   1.985   6.286 -0.5919  0.1038  0.1824
18575SOL    HW160410   8.190   2.039   6.207  0.3427 -1.6672 -1.0602
18575SOL    HW260411   8.278   1.962   6.304 -0.9420 -0.9568  0.7367
18576SOL     OW60412   2.228   3.250   0.969  0.0553 -0.5032  0.3792
18576SOL    HW160413   2.229   3.345   0.956  1.5732 -0.6485 -0.8011
18576SOL    HW260414   2.294   3.234   1.036 -1.3790 -0.6221  1.8425
18577SOL     OW60415   1.145   0.169   8.177 -0.1442  0.3546 -0.0278
18577SOL    HW160416   1.159   0.243   8.118  0.6567  2.4496  2.5718
18577SOL    HW260417   1.209   0.182   8.247 -0.1688 -2.7015  0.6978
18578SOL     OW60418   1.483   6.936   4.975 -0.1943 -0.3626  0.6080
18578SOL    HW160419   1.395   6.942   4.939 -0.2641  0.5851  0.9081
18578SOL    HW260420   1.540   6.967   4.905  0.0118 -1.8499  0.0741
18579SOL     OW60421   5.937  11.502   7.255  0.5495 -0.0434 -0.6997
18579SOL    HW160422   5.901  11.492   7.343  0.8995  0.2625 -0.5243
18579SOL    HW260423   5.980  11.587   7.256  0.1280  0.1836 -1.3169
18580SOL     OW60424   6.502   8.629   3.721 -0.4524  0.3790 -0.0926
18580SOL    HW160425   6.498   8.679   3.803 -0.6342  2.0195 -1.0389
18580SOL    HW260426   6.492   8.538   3.747  1.2214  0.6906  1.8694
18581SOL     OW60427   3.199   0.326   1.334 -0.0817 -0.2303  0.6240
18581SOL    HW160428   3.141   0.259   1.371  0.8977 -0.7075  1.3727
18581SOL    HW260429   3.149   0.407   1.339 -1.2602 -0.8828 -0.2053
18582SOL     OW60430  10.609   4.828  11.936 -0.2097  0.0789  0.2220
18582SOL    HW160431  10.625   4.870  11.851  1.7873 -1.6358 -0.3216
18582SOL    HW260432  10.550   4.888  11.981 -0.2772  1.6932 -1.8575
18583SOL     OW60433   0.845   4.858  10.677 -0.6100 -0.3173  0.5275
18583SOL    HW160434   0.916   4.912  10.642  0.5406 -2.1249 -0.0922
18583SOL    HW260435   0.843   4.782  10.619 -1.0040 -1.7518  2.3486
18584SOL     OW60436   3.441   1.342   1.179 -0.4807  0.1640  0.4642
18584SOL    HW160437   3.471   1.361   1.268 -1.9293 -0.4936  1.1347
18584SOL    HW260438   3.360   1.292   1.192 -0.6870  0.0159 -1.2301
18585SOL     OW60439   9.722   9.841   2.337  0.0362  0.2871  0.3532
18585SOL    HW160440   9.770   9.762   2.360  0.7387  0.7535  0.5296
18585SOL    HW260441   9.717   9.891   2.419  0.8103  1.0491 -0.0462
18586SOL     OW60442   6.282   7.022  10.991  0.1102  0.7602 -0.3547
18586SOL    HW160443   6.346   7.025  10.920  0.3311 -2.9052 -0.4787
18586SOL    HW260444   6.332   6.998  11.069 -0.8325 -0.7722 -0.1663
18587SOL     OW60445   1.927  11.303   9.757  0.0401  0.1261  0.9175
18587SOL    HW160446   1.915  11.232   9.694 -4.2607  0.6428  0.8304
18587SOL    HW260447   1.991  11.361   9.715 -1.2419 -0.4731 -2.1771
18588SOL     OW60448   4.632   2.314  11.026  0.1443 -0.1868 -0.1344
18588SOL    HW160449   4.550   2.359  11.006 -0.7729 -2.5310 -2.2616
18588SOL    HW260450   4.699   2.381  11.019 -1.2258  1.0700 -2.2416
18589SOL     OW60451  10.660   3.202   0.639  0.0428  0.9432 -0.1314
18589SOL    HW160452  10.601   3.230   0.709 -0.1280 -1.1301  0.6166
18589SOL    HW260453  10.605   3.147   0.582  0.8188  0.4746 -0.4348
18590SOL     OW60454   6.889   1.658   5.011  0.0366  0.5141  0.3132
18590SOL    HW160455   6.843   1.707   5.079 -2.4810  0.0431 -0.9108
18590SOL    HW260456   6.922   1.725   4.951 -0.7983  0.8538  0.2115
18591SOL     OW60457   3.127   0.200   8.018 -0.0214  0.5569  0.4975
18591SOL    HW160458   3.095   0.262   8.084 -3.2164  0.2379 -0.5647
18591SOL    HW260459   3.047   0.163   7.980  1.7387 -1.3404 -1.6055
18592SOL     OW60460  10.283  11.041  11.281  0.1079 -1.1667 -0.0104
18592SOL    HW160461  10.205  10.997  11.316 -1.7519  1.7958 -0.1262
18592SOL    HW260462  10.324  11.081  11.358  1.0562 -1.9348 -0.0905
18593SOL     OW60463  11.220   2.544  11.142  0.0805 -0.1226  0.0331
18593SOL    HW160464  11.225   2.505  11.054 -0.6107  0.5472 -0.3161
18593SOL    HW260465  11.219   2.469  11.201  1.3762 -0.5726 -0.4760
18594SOL     OW60466   8.744   1.018   9.255  0.6147 -0.4761  0.4571
18594SOL    HW160467   8.781   0.996   9.169 -0.8171  0.3914 -0.4331
18594SOL    HW260468   8.658   1.055   9.234 -0.5821 -1.9862  2.3740
18595SOL     OW60469   4.957   6.049   8.799 -0.3664 -0.0109  0.3804
18595SOL    HW160470   5.045   6.075   8.771 -0.6075  0.3283 -0.0813
18595SOL    HW260471   4.965   5.956   8.817 -0.5236 -0.6437 -2.3350
18596SOL     OW60472   8.109   7.615  11.024  0.0770  0.4377 -0.4073
18596SOL    HW160473   8.110   7.537  10.967  0.1110  1.0849 -1.3124
18596SOL    HW260474   8.025   7.657  11.004  0.6037  1.2992 -0.8582
18597SOL     OW60475  10.279  11.862  10.055  0.4082  0.1550  0.6959
18597SOL    HW160476  10.259  11.782  10.103  0.0998 -0.6959 -0.7873
18597SOL    HW260477  10.306  11.925  10.122  2.2624 -1.6720  1.7807
18598SOL     OW60478   2.518   4.803   1.874  0.1380 -0.1351  0.3565
18598SOL    HW160479   2.604   4.840   1.854  0.2999 -1.7695 -2.5196
18598SOL    HW260480   2.537   4.729   1.931  0.4705  0.3246  0.8554
18599SOL     OW60481   9.158   2.633   4.527 -0.3202 -0.0841 -0.0397
18599SOL    HW160482   9.139   2.656   4.437 -0.4995  0.7470  0.2026
18599SOL    HW260483   9.237   2.578   4.522  0.6557  1.3066 -0.5918
18600SOL     OW60484   4.121   2.580  11.811  0.4806  0.2874 -0.1150
18600SOL    HW160485   4.179   2.537  11.749  1.4739 -0.2675  1.1534
18600SOL    HW260486   4.157   2.668  11.822 -0.1185  0.6387 -0.8433
18601SOL     OW60487   7.703   1.641  11.729  0.4001 -0.3071 -0.5381
18601SOL    HW160488   7.796   1.660  11.714  0.5416 -0.8798 -0.3887
18601SOL    HW260489   7.683   1.682  11.813  0.7950 -1.1266 -0.0440
18602SOL     OW60490   8.805   0.581   9.351  0.9663  0.0026  0.2419
18602SOL    HW160491   8.807   0.534   9.434  2.3317 -1.2628 -0.4776
18602SOL    HW260492   8.731   0.544   9.304  0.8318 -0.0199  0.4680
18603SOL     OW60493   1.766   5.326   6.505 -0.1204 -0.6943  0.2899
18603SOL    HW160494   1.753   5.232   6.493 -2.6752 -0.5095  1.0000
18603SOL    HW260495   1.776   5.360   6.416 -0.4292 -1.5023 -0.0678
18604SOL     OW60496   4.084   4.466  11.683 -0.0092  0.5521  0.0898
18604SOL    HW160497   4.078   4.485  11.589  0.1625  1.0164  0.1695
18604SOL    HW260498   4.085   4.553  11.725  2.3530  0.4636  0.3809
18605SOL     OW60499   9.419   8.558   2.790 -0.1039 -0.5155 -0.4915
18605SOL    HW160500   9.374   8.581   2.871 -2.0900  0.8130 -1.8690
18605SOL    HW260501   9.490   8.500   2.817 -0.7061 -0.1378  2.1655
18606SOL     OW60502   2.780   4.660   4.860 -0.3307 -0.6949 -0.4299
18606SOL    HW160503   2.719   4.618   4.921 -0.0240  2.2779  2.2079
18606SOL    HW260504   2.865   4.619   4.879 -0.7705 -2.0268 -1.2290
18607SOL     OW60505   3.371  11.938   3.032  0.1847 -0.1490 -0.3550
18607SOL    HW160506   3.341  11.984   2.954 -1.3280  1.0123  0.8313
18607SOL    HW260507   3.348  11.846   3.016 -3.1322  0.4934 -0.0416
18608SOL     OW60508   6.034   7.361  10.218 -0.1853 -0.4675  0.3756
18608SOL    HW160509   6.081   7.279  10.230  0.8042 -0.0473 -0.4977
18608SOL    HW260510   6.092   7.414  10.164 -1.6625  0.0907 -0.7097
18609SOL     OW60511   9.521   3.097   1.363 -0.1145  0.1507 -0.3542
18609SOL    HW160512   9.511   3.107   1.268  0.7632  1.0004 -0.3742
18609SOL    HW260513   9.583   3.025   1.373  0.0993  0.3215 -0.4393
18610SOL     OW60514   9.779   5.696   2.076 -0.3722  0.0085  0.2318
18610SOL    HW160515   9.848   5.688   2.143  0.0074  0.2884 -0.1219
18610SOL    HW260516   9.823   5.735   2.001 -0.8269 -0.1985 -0.1446
18611SOL     OW60517  10.679  11.966   7.767  0.2628 -0.4383 -0.5055
18611SOL    HW160518  10.773  11.958   7.751  0.6630 -0.3772  1.5289
18611SOL    HW260519  10.669  12.054   7.804 -0.9215  0.3480 -2.5433
18612SOL     OW60520   6.925  11.491   5.135 -0.4061  0.1072 -0.0072
18612SOL    HW160521   6.930  11.523   5.225  0.5595 -0.8440  0.3006
18612SOL    HW260522   6.832  11.496   5.113 -0.4101  2.3551  0.2623
18613SOL     OW60523   9.739   8.853   7.687  0.2177  0.1514  0.0871
18613SOL    HW160524   9.654   8.837   7.727 -0.9601  1.8518 -1.5513
18613SOL    HW260525   9.750   8.783   7.623 -0.3715  0.4078 -0.2995
18614SOL     OW60526  10.051   4.154   4.206 -0.0750  0.3064  0.0961
18614SOL    HW160527  10.027   4.089   4.141 -0.5256 -0.3743  0.9199
18614SOL    HW260528   9.969   4.173   4.253  0.6035 -0.8165  1.8578
18615SOL     OW60529   1.120   8.703   0.579 -0.1005 -0.4414  0.2736
18615SOL    HW160530   1.075   8.625   0.612  0.5103 -0.2776  1.5276
18615SOL    HW260531   1.149   8.678   0.491 -2.6079 -0.5424 -0.6060
18616SOL     OW60532   9.684   8.927   4.962  0.0062 -0.3159  0.0371
18616SOL    HW160533   9.630   8.894   5.035  1.5081 -2.1602  0.3935
18616SOL    HW260534   9.629   8.913   4.885 -0.8607 -0.1351  0.6003
18617SOL     OW60535   4.743   4.077   7.446  0.3812  0.3926 -0.3855
18617SOL    HW160536   4.812   4.065   7.381 -1.6696 -0.1513 -2.5950
18617SOL    HW260537   4.678   4.011   7.425 -1.1761  1.3660  1.1150
18618SOL     OW60538   9.526   4.952   6.558 -0.4939  0.5231 -0.1497
18618SOL    HW160539   9.509   4.910   6.473 -1.0184  0.7959 -0.1845
18618SOL    HW260540   9.528   4.880   6.621  1.2526  0.1591 -0.5672
18619SOL     OW60541   9.645   3.481   8.694  0.1789  0.2208 -0.1875
18619SOL    HW160542   9.602   3.430   8.763  1.4461  1.4698  1.5896
18619SOL    HW260543   9.726   3.434   8.676  0.1226  0.2147 -0.4333
18620SOL     OW60544   4.151   5.758   9.054 -0.2310 -0.0885  0.2098
18620SOL    HW160545   4.069   5.803   9.035 -0.0532  0.3603  0.4864
18620SOL    HW260546   4.125   5.682   9.107 -0.7346 -1.3574 -1.7233
18621SOL     OW60547   4.302  11.861   1.469  0.1128 -0.7591  0.6946
18621SOL    HW160548   4.302  11.956   1.482  0.7333 -0.4705 -1.1145
18621SOL    HW260549   4.371  11.829   1.528 -0.6107 -0.2125  1.8819
18622SOL     OW60550   4.044   2.274  11.634  0.1423 -0.1138  0.1848
18622SOL    HW160551   3.959   2.244  11.605  0.1424  0.3914 -0.3722
18622SOL    HW260552   4.092   2.195  11.656 -0.4467 -0.4029  0.4401
18623SOL     OW60553  10.805   1.055   7.305  0.0954  0.5070 -0.4370
18623SOL    HW160554  10.852   1.002   7.370  0.7625  0.5828 -0.8519
18623SOL    HW260555  10.753   0.991   7.255  0.4282  0.3172 -0.5419
18624SOL     OW60556   2.124   1.817  11.342 -0.1577  0.0897 -0.1897
18624SOL    HW160557   2.178   1.756  11.392  0.9497  0.5347 -0.8017
18624SOL    HW260558   2.056   1.762  11.303 -0.4917 -0.3966  1.0531
18625SOL     OW60559   9.064   2.860   9.091 -0.0149 -0.3124 -0.1231
18625SOL    HW160560   9.150   2.900   9.083 -0.1250 -0.0478  0.0130
18625SOL    HW260561   9.081   2.775   9.133  0.3450 -0.9023 -1.4104
18626SOL     OW60562   7.263   3.868   4.577 -0.4682  0.5542  0.1469
18626SOL    HW160563   7.319   3.797   4.544 -1.0629 -0.2812  0.9071
18626SOL    HW260564   7.314   3.907   4.648 -1.1130 -0.6556  1.3039
18627SOL     OW60565   3.183   2.396   1.449  0.4740  0.3006  0.5966
18627SOL    HW160566   3.273   2.412   1.477  1.9261 -0.6201 -3.0159
18627SOL    HW260567   3.139   2.364   1.528  3.7070 -0.7233  2.1630
18628SOL     OW60568   7.759  11.405   5.755  0.0963  0.2275 -0.2294
18628SOL    HW160569   7.854  11.400   5.739  0.2982 -0.2467  1.0615
18628SOL    HW260570   7.735  11.318   5.784 -0.9581  0.0474 -1.5724
18629SOL     OW60571   0.171  11.478   4.553 -0.0497 -0.2832 -0.1110
18629SOL    HW160572   0.090  11.427   4.542 -2.1768  2.4866  1.2851
18629SOL    HW260573   0.209  11.444   4.634  0.1214 -1.4751 -0.6652
18630SOL     OW60574   7.257   5.378  10.455 -0.8516 -0.3290 -0.1375
18630SOL    HW160575   7.225   5.454  10.504 -3.0789 -1.2565 -0.0795
18630SOL    HW260576   7.309   5.329  10.519  0.9584  1.2634 -0.2760
18631SOL     OW60577   8.444   4.974   7.457 -0.1285 -0.3943 -0.7195
18631SOL    HW160578   8.512   4.915   7.491 -0.3264 -0.1645  0.1131
18631SOL    HW260579   8.362   4.927   7.474 -0.2196 -0.3494 -1.0457
18632SOL     OW60580   8.901   4.351   8.699  0.2013 -0.4819  0.1839
18632SOL    HW160581   8.980   4.388   8.740  0.5598 -0.8556 -0.1554
18632SOL    HW260582   8.829   4.396   8.742  0.6068  0.0738  0.3047
18633SOL     OW60583   2.870   7.754  10.525 -0.1125  0.3668  0.0832
18633SOL    HW160584   2.844   7.673  10.480  0.9612 -0.5307  1.0268
18633SOL    HW260585   2.864   7.733  10.618  2.5293  0.5251  0.3678
18634SOL     OW60586   0.787   7.535   6.719 -0.0145  0.3072  0.7353
18634SOL    HW160587   0.851   7.520   6.650 -0.1995 -0.0901  0.6509
18634SOL    HW260588   0.839   7.572   6.791  0.5869 -1.3660  1.2124
18635SOL     OW60589   9.678   9.199   4.781 -0.1738  0.5124 -0.0898
18635SOL    HW160590   9.741   9.144   4.733 -1.0333 -0.1833 -0.4431
18635SOL    HW260591   9.706   9.193   4.873  0.8938  1.0590 -0.3607
18636SOL     OW60592   3.758   1.298   2.491 -0.0986  0.2419 -0.1760
18636SOL    HW160593   3.827   1.342   2.442 -1.5330  0.9336 -1.6648
18636SOL    HW260594   3.735   1.221   2.437 -0.2097 -0.2186  0.5130
18637SOL     OW60595   9.419   0.489  10.613  0.0413  0.3472 -0.2646
18637SOL    HW160596   9.444   0.551  10.544 -0.2997 -0.6612 -1.3150
18637SOL    HW260597   9.373   0.419  10.567 -3.8986  1.5550  1.3672
18638SOL     OW60598   1.461   8.293   2.818 -0.4299  0.2599 -0.8773
18638SOL    HW160599   1.521   8.356   2.857 -0.8856  0.9345 -1.2310
18638SOL    HW260600   1.417   8.253   2.893 -0.4376  0.6723 -0.6556
18639SOL     OW60601   5.124   4.429   3.586 -0.0144 -0.1813 -0.2487
18639SOL    HW160602   5.207   4.380   3.584  0.3232  0.3703 -2.1759
18639SOL    HW260603   5.130   4.484   3.663  2.0642  0.8505 -1.0741
18640SOL     OW60604   3.822   2.593  10.787 -0.3083 -0.0949  0.4210
18640SOL    HW160605   3.818   2.569  10.879  2.7772  0.5962  0.8309
18640SOL    HW260606   3.766   2.529  10.743  0.2507 -2.1025  2.4561
18641SOL     OW60607   0.753   3.005   7.018 -0.0067 -0.2071  0.0773
18641SOL    HW160608   0.825   3.049   6.972 -1.0310  2.3916  0.7372
18641SOL    HW260609   0.676   3.025   6.964 -0.2360 -3.5966 -1.0554
18642SOL     OW60610   3.183  10.415   2.146 -0.7376 -0.0752  0.1222
18642SOL    HW160611   3.147  10.370   2.222 -0.9204  0.2239  0.2112
18642SOL    HW260612   3.115  10.407   2.079 -0.9319  0.4093  0.2612
18643SOL     OW60613   6.222   5.338   3.697 -0.2172 -0.2054 -0.0064
18643SOL    HW160614   6.237   5.286   3.618 -0.8390  1.3756 -1.2050
18643SOL    HW260615   6.148   5.296   3.740 -0.8441 -0.2010 -1.0612
18644SOL     OW60616   3.269   4.219  10.129 -0.2863 -0.0140 -0.1114
18644SOL    HW160617   3.307   4.190  10.046 -3.0244 -1.8378 -0.8697
18644SOL    HW260618   3.328   4.184  10.196  0.2519 -1.3696 -1.2341
18645SOL     OW60619   1.962   3.009   8.324 -0.0064  0.4549 -0.6043
18645SOL    HW160620   1.962   2.931   8.379  1.5870 -0.3087 -1.6487
18645SOL    HW260621   1.896   2.992   8.257  0.2523  0.0609 -0.7574
18646SOL     OW60622   7.387   8.816   2.958 -0.5622 -0.0678  0.0383
18646SOL    HW160623   7.389   8.814   3.054 -0.4721 -0.2042  0.0349
18646SOL    HW260624   7.478   8.802   2.932 -0.4798  0.6408 -0.0605
18647SOL     OW60625   8.610   1.504   1.375 -0.2617 -0.2027  0.0708
18647SOL    HW160626   8.613   1.408   1.380  0.8739 -0.2567 -0.8804
18647SOL    HW260627   8.593   1.522   1.282 -2.0888  0.5343  0.5193
18648SOL     OW60628   9.551   5.343   6.715 -0.0384 -0.0333  0.0797
18648SOL    HW160629   9.619   5.407   6.737 -1.3369  1.1668  0.7582
18648SOL    HW260630   9.581   5.262   6.756  1.5976  0.1327 -0.7174
18649SOL     OW60631   7.854   9.510  10.923 -0.4257  0.6385 -0.3159
18649SOL    HW160632   7.892   9.528  10.836  0.3912 -0.1342 -0.1314
18649SOL    HW260633   7.812   9.424  10.913  0.7206 -0.0238  0.3623
18650SOL     OW60634   8.251   5.229   3.000 -0.0669 -0.1187  0.1448
18650SOL    HW160635   8.201   5.309   2.985 -0.2936 -0.0920  1.0046
18650SOL    HW260636   8.234   5.206   3.091 -0.1390 -1.2491 -0.1394
18651SOL     OW60637   1.388   9.430   3.511 -0.1079  0.3553 -0.4180
18651SOL    HW160638   1.466   9.384   3.542 -1.7933 -1.5105  1.3632
18651SOL    HW260639   1.395   9.517   3.550  0.1164 -0.4690  1.4912
18652SOL     OW60640   6.852   8.982   6.246  0.8337  0.1134 -0.5645
18652SOL    HW160641   6.799   9.062   6.249  1.0872  0.2891 -0.7255
18652SOL    HW260642   6.827   8.933   6.325 -0.9793 -0.7102 -1.5876
18653SOL     OW60643   9.021   8.372   1.465  0.4006  0.3132  0.2771
18653SOL    HW160644   8.971   8.317   1.525  0.5007 -2.3680 -1.8918
18653SOL    HW260645   8.973   8.455   1.462 -2.1424 -1.0519  0.6509
18654SOL     OW60646   4.817  10.515   1.794 -0.2063  0.1936  0.5452
18654SOL    HW160647   4.811  10.543   1.885 -2.1855 -0.6069  0.7217
18654SOL    HW260648   4.903  10.544   1.765  0.3506  0.7258  2.5759
18655SOL     OW60649   0.425   3.958   3.570  0.3459 -0.3661  0.1035
18655SOL    HW160650   0.378   4.020   3.627  1.2826  0.1196  0.3618
18655SOL    HW260651   0.430   4.003   3.486  3.6341  1.2941  1.0375
18656SOL     OW60652   3.288   7.472   6.350 -0.9557  0.2064 -0.2065
18656SOL    HW160653   3.381   7.481   6.367 -1.0822  1.1998  0.0013
18656SOL    HW260654   3.278   7.382   6.319 -0.1942 -0.5004  1.4819
18657SOL     OW60655  11.320  10.753   7.176  0.1031 -0.4051  0.3713
18657SOL    HW160656  11.267  10.680   7.208  0.2173 -0.4901  0.3685
18657SOL    HW260657  11.293  10.766   7.086 -0.4341  0.0275  0.5879
18658SOL     OW60658   7.127  10.945  11.941  0.1579 -0.0524  0.0149
18658SOL    HW160659   7.077  10.881  11.891  0.1850 -0.2614  0.2571
18658SOL    HW260660   7.150  10.900  12.022 -1.7329  0.9460  1.2059
18659SOL     OW60661  10.215   9.398   0.245 -0.1225 -0.9108 -0.1635
18659SOL    HW160662  10.227   9.306   0.221  1.6850 -0.3596 -1.6695
18659SOL    HW260663  10.236   9.446   0.165 -0.5226  0.8342  0.7290
18660SOL     OW60664   3.856   7.980  11.217  0.2079  0.1341 -0.6464
18660SOL    HW160665   3.782   8.039  11.210 -1.0365 -1.4692 -1.7458
18660SOL    HW260666   3.903   7.991  11.135 -1.0949 -1.6751 -1.7109
18661SOL     OW60667   8.075   9.898  10.248  0.0754 -0.3744 -0.1580
18661SOL    HW160668   8.119   9.822  10.284  2.5818  1.9346  2.1850
18661SOL    HW260669   8.116   9.911  10.162  2.7770  0.5532  1.1460
18662SOL     OW60670   2.240   3.294   8.368 -0.4829  0.3298 -0.5857
18662SOL    HW160671   2.247   3.203   8.337 -0.9786  0.7155 -1.8812
18662SOL    HW260672   2.148   3.305   8.390 -0.1944  0.1521  0.8582
18663SOL     OW60673   0.012   9.802   8.365 -0.4834 -0.0745  0.3850
18663SOL    HW160674   0.008   9.807   8.460 -2.0557 -1.5340  0.4487
18663SOL    HW260675  -0.011   9.711   8.345  1.6655 -0.3381 -1.3275
18664SOL     OW60676   8.806   7.784   1.822 -0.2112  0.4654  0.1982
18664SOL    HW160677   8.886   7.825   1.789 -0.2413  0.4395  0.0910
18664SOL    HW260678   8.802   7.699   1.777 -0.1410  0.3393  0.4284
18665SOL     OW60679  11.286   3.918   8.677  0.0442 -0.3427 -0.2556
18665SOL    HW160680  11.298   3.825   8.658 -0.0811 -0.5340  0.5771
18665SOL    HW260681  11.220   3.947   8.613 -0.2711 -0.9346 -0.2070
18666SOL     OW60682   1.427   4.961   5.387  0.2233  0.9324  0.4615
18666SOL    HW160683   1.369   5.037   5.387 -1.5041 -0.3336 -0.2556
18666SOL    HW260684   1.502   4.988   5.439 -0.5772  2.9503  0.6341
18667SOL     OW60685   5.880   9.224  11.070  0.1761  0.1490 -0.0675
18667SOL    HW160686   5.952   9.261  11.120 -1.4130 -0.7129  3.1537
18667SOL    HW260687   5.916   9.145  11.029  1.0209 -0.4688  1.7798
18668SOL     OW60688   9.112   7.609   4.752 -0.0761 -0.2086 -0.2474
18668SOL    HW160689   9.205   7.596   4.735  0.2542  1.4929  0.1147
18668SOL    HW260690   9.076   7.520   4.753  1.5859 -0.9258 -0.0731
18669SOL     OW60691   8.069   6.112   7.511 -0.2310 -0.0334 -0.0915
18669SOL    HW160692   8.029   6.033   7.474 -1.9473  1.7775 -2.3781
18669SOL    HW260693   8.155   6.083   7.542 -0.8840 -2.8232 -0.6145
18670SOL     OW60694   8.578   9.212   0.537  0.3695  0.1942  0.0120
18670SOL    HW160695   8.562   9.127   0.580 -0.2363  0.6910  0.7888
18670SOL    HW260696   8.671   9.228   0.549  1.1032 -1.5710 -2.4209
18671SOL     OW60697   1.722  10.834  11.293  0.3904 -0.3371 -1.0948
18671SOL    HW160698   1.762  10.753  11.261  0.7596 -0.2029 -0.9888
18671SOL    HW260699   1.629  10.816  11.297  0.4281 -0.6182 -1.4796
18672SOL     OW60700   0.875   3.688   3.746  0.5400 -0.3192  0.0851
18672SOL    HW160701   0.822   3.642   3.812  0.0103  1.0898  0.6836
18672SOL    HW260702   0.885   3.625   3.675 -2.3935 -0.5176 -0.2938
18673SOL     OW60703   4.201   4.841   0.337 -0.4830  0.2261 -0.7278
18673SOL    HW160704   4.145   4.823   0.413 -0.3109 -1.2906 -0.9254
18673SOL    HW260705   4.140   4.845   0.263 -0.4817 -0.0266 -0.7446
18674SOL     OW60706   4.143   1.294  10.057 -0.9024  0.6022 -0.3410
18674SOL    HW160707   4.221   1.309  10.003  0.8708  0.3112  2.0112
18674SOL    HW260708   4.168   1.225  10.118 -2.7842  0.9631  0.9333
18675SOL     OW60709   6.842  11.170   8.701  0.1324 -0.4941  0.4435
18675SOL    HW160710   6.860  11.141   8.612  0.7279 -0.3989  0.5246
18675SOL    HW260711   6.792  11.251   8.690  1.5602  0.3922  0.1529
18676SOL     OW60712  10.379   7.674  10.662  0.0071 -0.1601  0.2723
18676SOL    HW160713  10.382   7.709  10.573 -2.3531 -0.3416  0.0725
18676SOL    HW260714  10.348   7.748  10.715 -1.1238 -0.7797  0.4969
18677SOL     OW60715   8.284   3.649   8.132  0.0229  0.1557  0.3204
18677SOL    HW160716   8.311   3.564   8.166  0.6207 -0.1664 -0.8976
18677SOL    HW260717   8.352   3.672   8.068 -0.5167  1.2039  0.0974
18678SOL     OW60718   1.147   3.498   1.617 -0.3950 -0.3932 -0.5725
18678SOL    HW160719   1.201   3.525   1.542  0.8634  1.3223  0.8622
18678SOL    HW260720   1.187   3.417   1.647  2.2044  1.3353  1.0763
18679SOL     OW60721   5.224  11.086   9.596 -0.1071  0.0381 -0.0594
18679SOL    HW160722   5.157  11.154   9.587 -1.4790 -1.3580 -0.8301
18679SOL    HW260723   5.203  11.021   9.529  2.6338 -0.0018 -1.0243
18680SOL     OW60724   4.141   0.407   7.043  0.1456 -0.5091 -0.4360
18680SOL    HW160725   4.227   0.440   7.017  0.3477 -1.5024 -1.0994
18680SOL    HW260726   4.147   0.394   7.137 -0.2000  2.0267  0.0079
18681SOL     OW60727   7.808   3.133   7.825 -0.0418 -0.7246 -0.2563
18681SOL    HW160728   7.716   3.111   7.809 -0.1205 -0.4852 -0.1515
18681SOL    HW260729   7.822   3.111   7.917 -0.1984 -0.0924 -0.0759
18682SOL     OW60730   3.963   5.791   2.964  0.0698 -0.5079 -0.8455
18682SOL    HW160731   3.922   5.818   3.046  0.7081 -2.3556  0.1524
18682SOL    HW260732   3.890   5.763   2.909 -0.4438  1.5815 -1.2961
18683SOL     OW60733   5.770   7.793   1.223  0.2764  0.5193 -0.4711
18683SOL    HW160734   5.692   7.844   1.205 -2.2654 -2.2466  1.7728
18683SOL    HW260735   5.811   7.836   1.298 -1.6185 -0.3379  1.1480
18684SOL     OW60736   2.680  11.614   8.917  0.0474 -0.1547  0.0587
18684SOL    HW160737   2.610  11.645   8.859  1.2962 -1.9024 -2.5839
18684SOL    HW260738   2.737  11.690   8.929 -0.1283  0.2079 -1.2293
18685SOL     OW60739   2.686   6.361   5.481 -0.4146  0.2183  0.6303
18685SOL    HW160740   2.742   6.388   5.408 -0.9371 -2.1550 -0.7728
18685SOL    HW260741   2.600   6.397   5.461 -0.5741 -0.4855 -0.0240
18686SOL     OW60742   3.648   0.698   4.466 -0.7171 -0.0383 -0.1856
18686SOL    HW160743   3.638   0.624   4.406 -0.3216 -0.4162  0.2049
18686SOL    HW260744   3.635   0.660   4.553 -2.3829  0.7045 -0.0738
18687SOL     OW60745   7.744   0.130   3.892 -0.3015  0.0715  0.2398
18687SOL    HW160746   7.741   0.084   3.808  2.0677 -0.8314  0.5883
18687SOL    HW260747   7.809   0.082   3.944 -0.2311  1.8115  1.8677
18688SOL     OW60748   3.178   5.631   3.560 -0.0058  0.2328  0.5222
18688SOL    HW160749   3.237   5.697   3.522 -1.6518  0.2565 -2.3349
18688SOL    HW260750   3.211   5.617   3.649  2.9416  1.7953 -0.1834
18689SOL     OW60751   8.885   4.430   6.189 -0.0837 -0.4452 -0.1845
18689SOL    HW160752   8.947   4.447   6.117 -1.4183  1.1933 -1.0082
18689SOL    HW260753   8.899   4.338   6.211  1.4929 -0.5542 -1.4430
18690SOL     OW60754   8.408   2.460   6.918 -0.6058  0.3211 -0.2976
18690SOL    HW160755   8.483   2.519   6.902  0.6378 -1.4874 -1.5145
18690SOL    HW260756   8.331   2.516   6.906  0.5263  1.9461 -0.3432
18691SOL     OW60757   4.058  10.267   2.478  0.0413 -0.0126  0.2471
18691SOL    HW160758   4.073  10.360   2.461 -0.1420  0.2775  1.5368
18691SOL    HW260759   3.970  10.250   2.444  0.2653  0.1526 -0.4357
18692SOL     OW60760   4.713   4.236   5.113  0.2688 -0.8530  0.2122
18692SOL    HW160761   4.777   4.168   5.135 -0.8454 -2.0831 -0.2568
18692SOL    HW260762   4.643   4.190   5.068 -0.8067  0.5299  0.4073
18693SOL     OW60763   1.938   3.835   5.390  0.4177 -0.0711  0.6825
18693SOL    HW160764   2.023   3.820   5.348  1.1939  2.8476  0.9699
18693SOL    HW260765   1.898   3.905   5.339 -1.3751 -0.6501  1.2146
18694SOL     OW60766   6.271   6.538   2.967 -0.2636 -0.3948  0.0224
18694SOL    HW160767   6.189   6.553   3.015 -1.6768 -0.0268 -2.3318
18694SOL    HW260768   6.275   6.443   2.956 -0.7725 -0.3612 -0.4824
18695SOL     OW60769   3.520  11.389   5.745  0.0014 -0.2692 -0.5289
18695SOL    HW160770   3.456  11.318   5.745 -0.7007  0.3280 -1.6926
18695SOL    HW260771   3.604  11.346   5.727 -0.3159 -0.8799 -0.5586
18696SOL     OW60772  11.703  10.829   1.919  0.4229 -0.0744 -0.2369
18696SOL    HW160773  11.649  10.849   1.842 -0.2833 -0.0519  0.2515
18696SOL    HW260774  11.793  10.827   1.886  0.0593 -0.8521 -1.2126
18697SOL     OW60775   7.374   5.228  10.641  0.0031  0.2268  0.0406
18697SOL    HW160776   7.445   5.164  10.632  0.4066  0.9091 -2.2519
18697SOL    HW260777   7.333   5.207  10.725 -0.3453 -3.4798 -0.9071
18698SOL     OW60778  10.161   6.968  11.086 -0.0033 -0.2787 -0.4296
18698SOL    HW160779  10.107   6.979  11.165  0.6268  1.6023 -0.2062
18698SOL    HW260780  10.147   7.049  11.036  2.4053  0.1969 -0.4703
18699SOL     OW60781   8.459   6.743  10.450  0.2985  0.0058  0.1168
18699SOL    HW160782   8.390   6.742  10.384  0.5901 -0.7407 -0.1819
18699SOL    HW260783   8.469   6.652  10.477  1.4040  0.0527 -0.0884
18700SOL     OW60784  10.362   3.859   4.153  0.5220 -0.1114  0.1928
18700SOL    HW160785  10.396   3.940   4.115  2.4193 -0.1761  1.6369
18700SOL    HW260786  10.267   3.866   4.143  0.7656  1.2635 -1.6838
18701SOL     OW60787  11.913   9.977   3.968  1.0211 -0.0865 -0.5852
18701SOL    HW160788  11.979  10.041   3.941  1.0017 -0.3665 -1.3145
18701SOL    HW260789  11.962   9.911   4.017  0.8800  1.0399  1.1770
18702SOL     OW60790   4.050   8.389   4.848 -0.3018  0.3246  0.1014
18702SOL    HW160791   4.068   8.300   4.878  2.7687  0.6914 -0.3212
18702SOL    HW260792   3.974   8.379   4.790  0.6035 -2.2454 -0.8099
18703SOL     OW60793   0.047   1.862   1.664 -0.2490 -0.5483 -0.3693
18703SOL    HW160794   0.108   1.801   1.705  0.1570  0.5581  0.7320
18703SOL    HW260795   0.101   1.911   1.601 -0.5703 -1.2738 -1.2404
18704SOL     OW60796   0.997  11.411   5.969 -0.5110  0.1387  0.3283
18704SOL    HW160797   1.071  11.444   5.919 -1.0833  1.5209  0.3678
18704SOL    HW260798   1.010  11.445   6.058 -0.5577 -0.6393  0.6443
18705SOL     OW60799  10.568   8.233   3.095  0.3732 -0.3302  0.1938
18705SOL    HW160800  10.562   8.242   3.190  0.6972 -2.4714  0.4677
18705SOL    HW260801  10.646   8.283   3.071 -1.0446  2.2997  0.6522
18706SOL     OW60802   0.651   6.517   3.292 -0.4527  0.3099  0.3644
18706SOL    HW160803   0.569   6.502   3.245 -0.5359 -1.7830  1.0724
18706SOL    HW260804   0.634   6.592   3.348 -2.2590 -0.7259  1.2688
18707SOL     OW60805  10.492   2.859   1.883  0.3896  0.2250  0.6905
18707SOL    HW160806  10.448   2.866   1.967  0.8695 -1.1850  1.0875
18707SOL    HW260807  10.563   2.797   1.898 -0.2668 -1.0215 -1.0237
18708SOL     OW60808   7.952   8.437   3.553  0.2962  0.3368 -0.5963
18708SOL    HW160809   7.884   8.505   3.550 -0.4059 -0.2765  0.6235
18708SOL    HW260810   8.024   8.477   3.602  0.0897  0.3816 -0.3272
18709SOL     OW60811   2.516   8.746   5.184  0.2441 -0.5582 -0.6383
18709SOL    HW160812   2.487   8.662   5.221  0.7680 -0.7674 -0.6991
18709SOL    HW260813   2.600   8.726   5.143  0.9450  0.2586  0.3708
18710SOL     OW60814   3.704   5.331   2.455  0.2450  0.5127 -0.0592
18710SOL    HW160815   3.700   5.411   2.403 -1.5077 -0.5024 -1.6651
18710SOL    HW260816   3.618   5.290   2.442  0.9772 -1.4842  0.8955
18711SOL     OW60817   0.167   7.670   3.752  0.2406  0.2048  0.7363
18711SOL    HW160818   0.100   7.719   3.704  1.1269  2.9293  2.1158
18711SOL    HW260819   0.232   7.647   3.685 -0.7515 -0.1687 -0.1363
18712SOL     OW60820   3.492  11.510   8.418  0.3287  0.9323  0.0786
18712SOL    HW160821   3.523  11.448   8.484 -0.4839 -0.2533 -0.6143
18712SOL    HW260822   3.517  11.595   8.453  1.8986  0.2140  0.8425
18713SOL     OW60823   4.970   7.846   4.585  0.2621  0.0990 -0.0261
18713SOL    HW160824   4.919   7.927   4.579  0.5094  0.2967  0.5472
18713SOL    HW260825   5.060   7.876   4.600  0.2989 -0.2904  0.5350
18714SOL     OW60826   2.119   2.544   3.999  0.0814  0.0613  0.2773
18714SOL    HW160827   2.183   2.474   4.007  2.6620  1.8093 -2.7034
18714SOL    HW260828   2.131   2.597   4.078  1.8093 -0.1005  0.1576
18715SOL     OW60829   7.553   6.986  10.413  1.0942  0.2990  0.0161
18715SOL    HW160830   7.593   7.017  10.331  0.8359 -1.3088 -0.7568
18715SOL    HW260831   7.602   6.907  10.435 -0.6050 -0.8599 -0.1283
18716SOL     OW60832   9.571   0.642   0.465  0.2364  0.0732  0.4537
18716SOL    HW160833   9.566   0.617   0.558  1.6368  0.4117  0.6376
18716SOL    HW260834   9.573   0.558   0.418  0.5071 -0.1169  0.7945
18717SOL     OW60835   3.984  10.231   4.196 -0.3914 -0.5215  0.2130
18717SOL    HW160836   3.978  10.237   4.100  0.1813 -0.3671  0.1883
18717SOL    HW260837   4.035  10.151   4.211  0.5041  0.0702  0.3669
18718SOL     OW60838   1.311   0.150   4.226 -0.4643  0.0615  0.1733
18718SOL    HW160839   1.381   0.215   4.225 -1.1209  0.7758 -0.9664
18718SOL    HW260840   1.324   0.102   4.308  1.3258  0.2043  0.0049
18719SOL     OW60841   0.427   1.483   6.584 -0.4245 -0.2142 -0.1510
18719SOL    HW160842   0.514   1.507   6.615  0.0115 -0.4780 -1.1372
18719SOL    HW260843   0.422   1.519   6.496 -0.8816 -1.1649 -0.5281
18720SOL     OW60844  11.398   6.093   2.020  0.4403 -0.1808  0.4568
18720SOL    HW160845  11.416   6.065   1.930  0.0861 -1.3836  0.7412
18720SOL    HW260846  11.308   6.065   2.036 -0.3460  2.1409  0.4188
18721SOL     OW60847   6.061   8.142   1.023 -0.0427  0.1567  0.4259
18721SOL    HW160848   6.134   8.138   0.960  0.7516  2.7154  1.0594
18721SOL    HW260849   5.983   8.135   0.968  0.6541  0.6041 -0.6749
18722SOL     OW60850   5.993   7.087   2.523 -0.6033  0.4180 -0.3561
18722SOL    HW160851   5.970   7.150   2.455 -0.4370  0.5654 -0.2745
18722SOL    HW260852   5.997   7.003   2.477  0.7624  0.6976 -0.7781
18723SOL     OW60853   5.425  10.192  10.298  0.2584  0.4337  0.7534
18723SOL    HW160854   5.442  10.248  10.223  0.0430 -0.7766 -0.2300
18723SOL    HW260855   5.334  10.166  10.288 -0.0476  0.9852  1.9526
18724SOL     OW60856   1.097   7.107   2.420 -0.1279 -0.1527  0.0457
18724SOL    HW160857   1.153   7.052   2.474 -0.8613  0.7653  1.8374
18724SOL    HW260858   1.045   7.157   2.483 -2.2172 -0.2064 -1.5116
18725SOL     OW60859   7.111   1.857   7.448 -0.5754  0.4037 -0.1949
18725SOL    HW160860   7.185   1.816   7.492  1.1899  0.6537 -2.7045
18725SOL    HW260861   7.035   1.807   7.476  0.8329 -1.2682  0.8000
18726SOL     OW60862  10.715   9.977   1.977 -0.2759  0.1287  0.3208
18726SOL    HW160863  10.652  10.043   2.004  0.4202  0.3055  1.5904
18726SOL    HW260864  10.776  10.024   1.921 -1.5873 -0.1844 -1.4477
18727SOL     OW60865   4.284  11.463   1.343 -0.0562  0.2939  0.1984
18727SOL    HW160866   4.242  11.460   1.257 -0.7737 -0.5239  0.5626
18727SOL    HW260867   4.219  11.505   1.400 -0.7378 -1.6432  0.9289
18728SOL     OW60868   0.891   6.808   9.958  0.1649  0.6879  0.3261
18728SOL    HW160869   0.961   6.844  10.012 -1.3572  0.2888  2.7594
18728SOL    HW260870   0.929   6.730   9.917  1.0737  0.2754  1.8652
18729SOL     OW60871   5.571   9.616   7.569  0.1774  0.2080 -0.1932
18729SOL    HW160872   5.563   9.610   7.664  1.8614 -0.3642 -0.0524
18729SOL    HW260873   5.534   9.702   7.547  2.7231  1.8515  1.4093
18730SOL     OW60874   4.509   8.148   5.745 -0.2592 -0.0241 -0.1523
18730SOL    HW160875   4.486   8.133   5.837  0.5254  1.8973  0.3986
18730SOL    HW260876   4.427   8.134   5.697 -1.7147  2.7028  1.3082
18731SOL     OW60877   4.409  10.262  10.595  0.2769 -0.3799 -0.1844
18731SOL    HW160878   4.501  10.285  10.583 -0.0815  0.5444 -1.3816
18731SOL    HW260879   4.362  10.345  10.596 -0.5850 -0.8500 -0.0083
18732SOL     OW60880   1.560   3.680   2.846 -0.4042  0.4048  0.4452
18732SOL    HW160881   1.493   3.619   2.877  0.1390 -0.7448 -0.5603
18732SOL    HW260882   1.598   3.637   2.769 -0.4097  2.2977 -0.6723
18733SOL     OW60883   6.309   2.894   3.267 -0.3741 -0.2120 -0.2935
18733SOL    HW160884   6.364   2.939   3.330  0.6365 -0.3359 -1.0530
18733SOL    HW260885   6.285   2.812   3.310 -1.2178  0.4985  0.6183
18734SOL     OW60886   0.281   9.335  10.363 -0.0236 -0.0448 -0.2387
18734SOL    HW160887   0.331   9.256  10.343  0.0532 -0.2644  0.7884
18734SOL    HW260888   0.271   9.334  10.458  0.7975  1.6595 -0.0982
18735SOL     OW60889   5.530   5.707   2.699  0.0029 -0.1152 -0.2373
18735SOL    HW160890   5.440   5.698   2.728  0.3341  0.5227  1.0668
18735SOL    HW260891   5.524   5.749   2.613 -0.9042  1.2339  0.4575
18736SOL     OW60892  11.078   3.565   9.425  0.0610 -0.5055 -0.1063
18736SOL    HW160893  11.070   3.501   9.495  1.4600  0.7970  1.3148
18736SOL    HW260894  11.160   3.542   9.381 -0.1136 -0.4726 -0.4600
18737SOL     OW60895  11.507   0.884   1.932  0.1538  0.1343 -0.0574
18737SOL    HW160896  11.439   0.818   1.943 -0.3868  0.4612 -1.2659
18737SOL    HW260897  11.516   0.923   2.019 -0.0320 -1.0116  0.5030
18738SOL     OW60898   7.515   8.591   2.245  0.3560  0.4408  0.1975
18738SOL    HW160899   7.431   8.560   2.210  0.5773  2.2013 -2.0927
18738SOL    HW260900   7.580   8.560   2.183  1.1630  1.0029  0.7395
18739SOL     OW60901   2.047   8.491   1.200  0.4896 -0.3143  0.3079
18739SOL    HW160902   1.997   8.433   1.141 -1.5233  1.2499  0.3511
18739SOL    HW260903   2.002   8.483   1.284 -0.9363  2.4650 -0.0756
18740SOL     OW60904   6.786   8.511   3.086  0.9904 -0.2702  0.1711
18740SOL    HW160905   6.750   8.474   3.005  0.9238  0.0312  0.0633
18740SOL    HW260906   6.749   8.599   3.091  1.6818  0.0335  0.0745
18741SOL     OW60907  11.324   1.900  10.397 -0.3337  0.0659  0.2936
18741SOL    HW160908  11.349   1.808  10.387 -0.8560  0.0087 -0.5807
18741SOL    HW260909  11.407   1.945  10.414 -0.0776 -0.5619  0.7897
18742SOL     OW60910   1.972  11.864   2.576 -0.2987  0.4990 -0.9183
18742SOL    HW160911   1.962  11.895   2.486  0.3341 -0.6415 -1.4095
18742SOL    HW260912   2.048  11.911   2.609 -0.1649  0.4812 -1.1965
18743SOL     OW60913  11.651   1.562   9.691  0.2501  0.0913  0.8708
18743SOL    HW160914  11.719   1.624   9.666  0.8793 -0.1887  1.8115
18743SOL    HW260915  11.692   1.509   9.760 -0.2635 -1.3599  0.1142
18744SOL     OW60916   4.042   3.107   0.665  0.1956 -0.3033 -0.1549
18744SOL    HW160917   4.102   3.055   0.612  0.4141  1.5731 -1.8805
18744SOL    HW260918   4.001   3.044   0.725  0.9283 -2.2929 -1.6486
18745SOL     OW60919   4.419   4.315   6.533  0.4948  0.3564 -0.0357
18745SOL    HW160920   4.507   4.335   6.564  0.3907 -1.6673  1.7593
18745SOL    HW260921   4.406   4.223   6.553 -1.9624  0.5346 -0.4405
18746SOL     OW60922   0.319   5.693   2.384  0.5967  0.3376 -0.0453
18746SOL    HW160923   0.334   5.615   2.436  0.3215 -0.2730 -0.8687
18746SOL    HW260924   0.269   5.751   2.442 -0.0196 -0.4701  0.2484
18747SOL     OW60925   3.747   1.530   4.873  0.1922 -0.0761  0.5839
18747SOL    HW160926   3.727   1.437   4.862  2.7200 -0.7720  1.2752
18747SOL    HW260927   3.741   1.545   4.968  0.5223  0.2639  0.5556
18748SOL     OW60928  11.515   0.496   5.401  0.1564  0.6856  0.4033
18748SOL    HW160929  11.575   0.457   5.465 -0.1915 -1.2023 -0.3528
18748SOL    HW260930  11.455   0.425   5.378 -0.8947  1.8565 -0.6272
18749SOL     OW60931   7.502  10.100  11.763 -0.2830 -0.1981  0.0883
18749SOL    HW160932   7.418  10.130  11.728 -0.4298  0.8974  1.3331
18749SOL    HW260933   7.492  10.005  11.772 -1.9407  0.0849  1.6069
18750SOL     OW60934   6.477   0.725   5.572  0.4696  0.0353  0.5250
18750SOL    HW160935   6.484   0.636   5.607  0.0996  0.4276  1.6427
18750SOL    HW260936   6.410   0.718   5.504  0.6200 -0.5864  0.4294
18751SOL     OW60937   7.733   8.499   3.126  0.1630  0.1395 -0.4366
18751SOL    HW160938   7.739   8.581   3.175 -1.4270 -0.0563  0.1736
18751SOL    HW260939   7.823   8.472   3.113  0.6791  1.1137  0.8636
18752SOL     OW60940   4.385   4.658   0.683 -0.3520  0.5955  0.1625
18752SOL    HW160941   4.353   4.584   0.632 -0.8139  0.6374  0.3826
18752SOL    HW260942   4.480   4.649   0.683 -0.3677  0.4379 -0.4604
18753SOL     OW60943   6.811   4.090   6.934  0.3065 -1.0111  0.1038
18753SOL    HW160944   6.906   4.075   6.933  0.5204  0.1577  0.5275
18753SOL    HW260945   6.792   4.117   7.023  0.2449  2.3467 -0.7722
18754SOL     OW60946   4.723   9.460   2.223 -0.2740  0.0602  0.4020
18754SOL    HW160947   4.749   9.401   2.294 -0.1208  0.7947  0.9750
18754SOL    HW260948   4.660   9.519   2.264 -1.3813 -0.4792 -0.4860
18755SOL     OW60949   6.064   4.500   6.040 -0.8763 -0.2060  0.3268
18755SOL    HW160950   6.138   4.453   6.002 -0.3506  1.8411 -1.3163
18755SOL    HW260951   6.103   4.565   6.098 -1.2203  1.7130 -1.4728
18756SOL     OW60952   6.260   2.089   8.379  0.0264  0.3188  0.1388
18756SOL    HW160953   6.247   2.041   8.297 -0.5415 -1.4907  1.2341
18756SOL    HW260954   6.263   2.181   8.352 -0.4377 -0.1946 -1.8746
18757SOL     OW60955   3.547   4.388   5.218  0.2457  0.3616 -0.0221
18757SOL    HW160956   3.496   4.354   5.145  0.2170  0.3297  0.0123
18757SOL    HW260957   3.632   4.411   5.181  0.5239 -0.4504  0.0935
18758SOL     OW60958  10.493   4.939   0.966  0.2546  0.6518  0.7807
18758SOL    HW160959  10.560   4.990   1.012  1.5872  0.0041 -0.3911
18758SOL    HW260960  10.528   4.927   0.878 -0.0390 -2.2243  0.9680
18759SOL     OW60961   7.161   8.026   8.514  0.0278  0.1086 -0.3783
18759SOL    HW160962   7.154   8.021   8.610  0.1066 -0.2415 -0.3897
18759SOL    HW260963   7.240   7.976   8.493 -0.1866 -0.1171 -0.6570
18760SOL     OW60964  10.739   6.547   5.297  0.1559 -0.1705 -0.0353
18760SOL    HW160965  10.806   6.577   5.358  1.4792 -3.9559  0.6178
18760SOL    HW260966  10.666   6.519   5.352  1.3769 -3.6499  0.0292
18761SOL     OW60967   5.056   9.273   7.749  0.1092  0.0810 -0.1882
18761SOL    HW160968   5.000   9.219   7.693 -0.4148 -1.9116  2.0578
18761SOL    HW260969   4.995   9.323   7.803  0.6022  1.7752 -1.1297
18762SOL     OW60970   7.141   2.489   3.128 -0.1506  0.0219 -0.4763
18762SOL    HW160971   7.130   2.432   3.051 -2.7516  1.6169 -1.4145
18762SOL    HW260972   7.214   2.546   3.106 -0.7560  0.3445 -1.7382
18763SOL     OW60973   6.304   0.966  10.955 -0.3539  0.2942 -0.1593
18763SOL    HW160974   6.350   0.883  10.948 -0.4866 -0.6241  5.3680
18763SOL    HW260975   6.372   1.032  10.940  0.5767 -0.8087 -1.0428
18764SOL     OW60976   1.148  11.737   9.432 -0.1919  0.3014 -0.5215
18764SOL    HW160977   1.191  11.773   9.354  0.9267 -1.1687 -0.6234
18764SOL    HW260978   1.109  11.655   9.403 -1.8784  0.8957 -0.0711
18765SOL     OW60979   4.783   9.165  11.516  0.0997  0.5915  0.1859
18765SOL    HW160980   4.721   9.221  11.563 -0.1171  0.8631 -0.4126
18765SOL    HW260981   4.841   9.227  11.471  1.6839  0.3742  1.8094
18766SOL     OW60982  11.959   5.245   1.962  0.8282  0.0696  0.1190
18766SOL    HW160983  12.011   5.318   1.929  0.9405  0.0981  0.3589
18766SOL    HW260984  11.868   5.273   1.950  0.7918 -0.9306 -2.4926
18767SOL     OW60985   5.934   7.607   0.922  0.0423  0.2268 -0.1256
18767SOL    HW160986   5.910   7.549   0.994 -1.1250  0.6496 -0.1579
18767SOL    HW260987   6.029   7.615   0.928  0.0624 -0.5810  0.7186
18768SOL     OW60988   2.068  10.835   2.001 -0.1339  0.5325 -0.1398
18768SOL    HW160989   2.038  10.804   1.916  1.3810 -1.0944 -0.1314
18768SOL    HW260990   2.095  10.756   2.047  2.9011  1.7078  0.3115
18769SOL     OW60991   8.416   0.401   1.203  0.3888  0.4904 -0.2734
18769SOL    HW160992   8.337   0.452   1.184 -0.5365 -0.8856 -0.2224
18769SOL    HW260993   8.403   0.370   1.292  0.6644 -0.2974 -0.4998
18770SOL     OW60994   4.195   6.217   3.695 -0.1134  0.3659  0.1427
18770SOL    HW160995   4.237   6.136   3.724 -0.7932 -0.3034 -0.6795
18770SOL    HW260996   4.107   6.212   3.731  0.0238  1.0382  0.5879
18771SOL     OW60997   8.711   1.817   5.149 -0.1095  0.5204  0.0915
18771SOL    HW160998   8.724   1.847   5.059  0.5468  0.9903  0.3344
18771SOL    HW260999   8.731   1.724   5.146 -0.2361  0.5033 -0.2785
18772SOL     OW61000   8.713   7.095   7.276 -0.1983 -0.0231  0.1376
18772SOL    HW161001   8.626   7.075   7.311 -0.3581 -0.8027 -0.6557
18772SOL    HW261002   8.760   7.011   7.279 -0.0816 -0.0263 -1.0679
18773SOL     OW61003   4.709   3.562  10.139 -0.3594  0.1443 -0.2734
18773SOL    HW161004   4.677   3.490  10.194 -0.1425 -0.9163 -1.4739
18773SOL    HW261005   4.733   3.519  10.057  1.2020  1.3818 -0.4989
18774SOL     OW61006   8.767   2.209   8.059 -0.1323  0.4665 -0.6423
18774SOL    HW161007   8.722   2.129   8.032  1.1127 -0.4527 -0.1085
18774SOL    HW261008   8.776   2.200   8.154  2.2647 -0.0011 -0.8649
18775SOL     OW61009   1.798   4.448   2.850 -0.0870  0.0477 -0.8603
18775SOL    HW161010   1.759   4.536   2.852  2.4043  1.2289  0.6725
18775SOL    HW261011   1.882   4.461   2.807  1.8587 -0.7899  2.3525
18776SOL     OW61012   2.607   6.909   3.344  0.2634  0.0657 -0.1741
18776SOL    HW161013   2.649   6.975   3.289  0.9713 -1.5548 -1.6941
18776SOL    HW261014   2.574   6.958   3.419  1.8828  1.9269 -0.5860
18777SOL     OW61015   6.315  11.353   5.970  0.2266 -0.0961  0.4888
18777SOL    HW161016   6.398  11.364   6.016 -0.6317 -0.1086  2.1407
18777SOL    HW261017   6.325  11.272   5.921  1.4471  0.3126  0.0437
18778SOL     OW61018   6.426   3.449   7.233  0.3253 -0.1051 -0.6028
18778SOL    HW161019   6.335   3.421   7.219  0.2637  0.0480 -0.5114
18778SOL    HW261020   6.474   3.368   7.248 -0.1051 -0.0914  1.1156
18779SOL     OW61021   1.236   7.535   9.841  0.3406 -0.1991 -0.3036
18779SOL    HW161022   1.258   7.620   9.802  1.6059 -0.2258  0.2952
18779SOL    HW261023   1.145   7.519   9.815 -0.0013  1.4513 -0.2018
18780SOL     OW61024   4.558   5.364   8.063  0.3860 -0.4552 -0.3555
18780SOL    HW161025   4.605   5.402   7.989  0.9189 -0.2772  0.0711
18780SOL    HW261026   4.567   5.269   8.051  0.6619 -0.4251 -0.4015
18781SOL     OW61027   5.637   1.955   7.593  0.7909 -0.3930 -0.2502
18781SOL    HW161028   5.649   2.031   7.536  0.3466 -0.8019 -0.9034
18781SOL    HW261029   5.613   1.992   7.678  1.7009  0.2331 -0.2543
18782SOL     OW61030   6.118   9.494   0.789  0.3384 -0.1478  0.5875
18782SOL    HW161031   6.095   9.435   0.861  0.7722 -0.3077  0.6031
18782SOL    HW261032   6.109   9.582   0.826  0.2504 -0.2218  0.7435
18783SOL     OW61033   6.826   0.861   7.561  0.1571 -0.3576 -0.3300
18783SOL    HW161034   6.822   0.955   7.574 -0.1709 -0.4591  0.3572
18783SOL    HW261035   6.746   0.827   7.602 -0.5393 -0.7956 -1.9429
18784SOL     OW61036   3.512  10.130   4.753  0.0497 -0.1054  0.4914
18784SOL    HW161037   3.457  10.185   4.696  0.4798 -0.2988 -0.1199
18784SOL    HW261038   3.478  10.042   4.740  1.2421 -0.4103 -0.8190
18785SOL     OW61039  11.111  10.139   8.997 -0.4468  0.3103  0.0534
18785SOL    HW161040  11.031  10.191   8.988 -0.3893  0.3227 -0.3956
18785SOL    HW261041  11.092  10.057   8.950 -0.0554  0.4777 -0.4070
18786SOL     OW61042   0.820   5.304   6.385 -0.1603  0.2221  0.8152
18786SOL    HW161043   0.875   5.244   6.335  0.3614  1.8387 -0.6608
18786SOL    HW261044   0.732   5.289   6.352 -0.5406 -1.8178  2.6208
18787SOL     OW61045  11.798  10.171   0.793 -0.3030  0.3196  0.2202
18787SOL    HW161046  11.839  10.247   0.752  1.0920 -0.7044 -0.3684
18787SOL    HW261047  11.747  10.130   0.723  0.4883 -0.3296  0.0099
18788SOL     OW61048   1.047   8.139   9.568  0.4302 -0.1110 -0.8273
18788SOL    HW161049   0.987   8.080   9.614  0.8631 -0.7374 -1.0525
18788SOL    HW261050   0.996   8.176   9.496 -0.2822  0.9397  0.1751
18789SOL     OW61051   2.896   7.119   7.296  0.3882 -0.5567  0.0188
18789SOL    HW161052   2.970   7.064   7.271  0.7276 -0.1387  0.0841
18789SOL    HW261053   2.889   7.109   7.391  0.2910 -0.6861 -0.0027
18790SOL     OW61054   5.747   8.574   3.740  0.5261 -0.1284 -0.1833
18790SOL    HW161055   5.729   8.582   3.646  2.5953 -1.1396 -0.7396
18790SOL    HW261056   5.772   8.482   3.751 -0.0177 -0.1007  1.4382
18791SOL     OW61057   8.889   0.459   7.692  0.1753  0.4135  0.2220
18791SOL    HW161058   8.899   0.552   7.674  1.1695  0.1901 -0.4489
18791SOL    HW261059   8.803   0.452   7.734  0.3256  1.6954  0.7936
18792SOL     OW61060   5.656   7.366   9.672 -0.0009  0.9006  0.0845
18792SOL    HW161061   5.604   7.286   9.673  0.7917  0.3779 -0.3647
18792SOL    HW261062   5.729   7.349   9.731  0.3065  1.2013 -0.2015
18793SOL     OW61063   5.978   3.534   4.929  0.7931 -0.2113 -0.4919
18793SOL    HW161064   5.983   3.606   4.992  1.5513 -0.2498 -0.5036
18793SOL    HW261065   5.918   3.472   4.970  0.6906  0.1011 -0.1537
18794SOL     OW61066   7.720   4.235  10.280 -0.1045  0.0948  0.2299
18794SOL    HW161067   7.745   4.263  10.368 -0.0750  0.1344  0.2092
18794SOL    HW261068   7.700   4.142  10.288 -0.0073  0.0773  0.2579
18795SOL     OW61069   6.317   7.517   1.721  0.1706 -0.0446 -0.4084
18795SOL    HW161070   6.366   7.446   1.680  1.8082  1.0247 -0.3979
18795SOL    HW261071   6.298   7.485   1.810 -1.3314 -1.4243 -1.1754
18796SOL     OW61072   7.032   6.853   9.534  0.1017  0.0748  1.0749
18796SOL    HW161073   7.099   6.894   9.588  0.2007  1.4520 -0.0340
18796SOL    HW261074   7.078   6.828   9.453 -0.5455  0.3104  0.6241
18797SOL     OW61075   1.824   3.723   0.637  0.3807 -0.4045 -0.4387
18797SOL    HW161076   1.901   3.780   0.643  0.9904 -1.1251 -1.2170
18797SOL    HW261077   1.831   3.664   0.711  0.4651 -0.3437 -0.3983
18798SOL     OW61078   2.649   1.116   8.482  0.0563 -0.2286  0.7628
18798SOL    HW161079   2.666   1.023   8.494 -0.0184 -0.1298  1.7569
18798SOL    HW261080   2.572   1.120   8.426  0.1372 -0.7590  0.6066
18799SOL     OW61081   1.961   0.091   7.575 -0.0706 -0.1788 -0.7633
18799SOL    HW161082   1.912   0.148   7.516 -0.0727 -0.2142 -0.7957
18799SOL    HW261083   2.012   0.151   7.630 -1.5031 -0.0678  0.4950
18800SOL     OW61084   4.866   3.146   0.791 -0.6605  0.4206 -0.4946
18800SOL    HW161085   4.854   3.160   0.697 -0.8949 -0.9442 -0.6955
18800SOL    HW261086   4.874   3.051   0.800  1.2918  0.6447  0.6531
18801SOL     OW61087   9.935   0.305   9.619  0.7568 -0.2510 -0.5664
18801SOL    HW161088   9.886   0.231   9.586 -1.0416  1.1304 -1.1708
18801SOL    HW261089   9.933   0.370   9.548  1.5589  0.6930  0.2288
18802SOL     OW61090  11.622   0.248  11.957  0.5162  0.2253  0.5987
18802SOL    HW161091  11.584   0.207  12.035  0.0337  0.6129  0.5706
18802SOL    HW261092  11.694   0.189  11.932 -1.7025 -2.0806 -0.9598
18803SOL     OW61093   8.840   4.542   5.141  0.7570 -0.4012 -0.8155
18803SOL    HW161094   8.884   4.566   5.222 -0.1713 -0.4057 -0.2933
18803SOL    HW261095   8.747   4.541   5.163  0.2268  2.1662 -2.5034
18804SOL     OW61096   6.686   2.627   3.388 -0.2467  0.0735 -0.7094
18804SOL    HW161097   6.614   2.653   3.446  0.4635  0.9203 -0.1832
18804SOL    HW261098   6.643   2.577   3.318 -1.2215 -0.3004  0.1119
18805SOL     OW61099   0.553   0.673   6.243 -0.2335  0.5621  0.0612
18805SOL    HW161100   0.491   0.603   6.262  1.6422 -1.0642  0.4036
18805SOL    HW261101   0.563   0.720   6.326 -0.6618  0.5753  0.1082
18806SOL     OW61102   7.810   7.955   3.890 -0.0947  0.3329  0.2541
18806SOL    HW161103   7.715   7.965   3.889 -0.2264 -0.6980  1.1048
18806SOL    HW261104   7.844   8.042   3.870 -1.2080  0.9099  0.8454
18807SOL     OW61105   3.086  10.581   4.789  0.7713 -0.3427 -0.1263
18807SOL    HW161106   3.024  10.517   4.755 -0.1374  1.3855 -1.9125
18807SOL    HW261107   3.171  10.553   4.753  0.4843 -0.8209 -0.4489
18808SOL     OW61108   1.937  10.783   5.219  0.0475  0.3212  0.0909
18808SOL    HW161109   1.851  10.743   5.233 -0.1520 -0.6496 -3.0984
18808SOL    HW261110   1.919  10.855   5.158  1.4770  0.1440 -0.5704
18809SOL     OW61111  11.218   1.859   6.901  0.6355 -0.0314  0.2595
18809SOL    HW161112  11.154   1.899   6.841  1.6100  0.0969 -0.7225
18809SOL    HW261113  11.301   1.902   6.880  1.0605 -0.2123  1.5021
18810SOL     OW61114   6.165   1.874   1.724 -0.1257  0.1216  0.6350
18810SOL    HW161115   6.139   1.823   1.648 -0.8315  0.4865  0.6235
18810SOL    HW261116   6.238   1.928   1.694  0.7155 -0.9524  0.6809
18811SOL     OW61117  11.927   0.536  11.751  0.1368 -0.4800  0.1004
18811SOL    HW161118  11.844   0.527  11.705  0.1577  1.0957 -0.3035
18811SOL    HW261119  11.903   0.530  11.844 -1.0771  3.3446  0.2363
18812SOL     OW61120   0.339   3.072   0.281  0.3230 -0.1404 -0.3318
18812SOL    HW161121   0.315   3.066   0.373 -0.3809  0.3983 -0.4674
18812SOL    HW261122   0.388   3.154   0.274  1.1112 -0.6046 -0.2868
18813SOL     OW61123   2.165   9.366   4.504 -0.3571  0.1840 -0.2940
18813SOL    HW161124   2.163   9.342   4.597 -0.3718  1.3010  0.0057
18813SOL    HW261125   2.083   9.330   4.469 -0.2330 -0.4627  0.0639
18814SOL     OW61126   6.485  10.618   6.802 -0.2442  0.3250 -0.0535
18814SOL    HW161127   6.478  10.541   6.746 -0.7624 -0.5626  1.1616
18814SOL    HW261128   6.560  10.600   6.859 -0.4707  0.6410  0.3516
18815SOL     OW61129   5.949   1.870   4.191  0.0543  0.4166 -0.0252
18815SOL    HW161130   5.884   1.866   4.122  0.4867  0.9347 -0.4641
18815SOL    HW261131   6.021   1.922   4.155 -0.1880  1.6730  1.2079
18816SOL     OW61132   3.933   7.628   5.609  0.1817 -0.3244  0.4391
18816SOL    HW161133   4.025   7.615   5.587 -0.2818 -0.2429 -1.7039
18816SOL    HW261134   3.897   7.678   5.536 -1.5873 -0.3530  1.2331
18817SOL     OW61135   2.019  11.473  10.327 -0.3426 -0.1218 -0.2141
18817SOL    HW161136   2.069  11.398  10.295 -1.0023 -0.8088  0.3467
18817SOL    HW261137   2.073  11.508  10.398  0.1386  0.1700 -0.7098
18818SOL     OW61138   7.032   5.727   5.625 -0.6639 -0.8606 -0.2990
18818SOL    HW161139   7.088   5.747   5.551 -1.0700  0.1182 -0.3503
18818SOL    HW261140   7.074   5.771   5.700 -2.9526  2.7152 -0.8601
18819SOL     OW61141  10.653   6.607   8.274 -0.0502 -0.3592  0.3295
18819SOL    HW161142  10.569   6.653   8.275  0.6902  1.0209  1.0609
18819SOL    HW261143  10.631   6.518   8.246 -1.6160  0.2348 -0.4445
18820SOL     OW61144   7.485  10.357   7.393 -0.6089  0.1671  0.1001
18820SOL    HW161145   7.423  10.299   7.348 -0.5679 -0.0156  0.2771
18820SOL    HW261146   7.433  10.397   7.464 -0.0996 -1.3512  1.3973
18821SOL     OW61147   0.479  11.871  11.709 -0.2555 -0.0299 -0.1495
18821SOL    HW161148   0.442  11.827  11.633 -1.5888  2.3214 -0.9545
18821SOL    HW261149   0.402  11.901  11.759  0.3510  4.0500 -1.3026
18822SOL     OW61150   1.050  11.364   3.489  0.1415 -0.7022 -0.2240
18822SOL    HW161151   1.062  11.345   3.396  0.4363 -1.7534  0.0156
18822SOL    HW261152   1.138  11.380   3.522 -0.0686  1.0129 -0.3669
18823SOL     OW61153   1.573   4.934   3.859 -0.2056  0.1119 -0.5976
18823SOL    HW161154   1.499   4.907   3.804  0.1480 -2.8368  0.1984
18823SOL    HW261155   1.538   4.936   3.948  0.5101 -0.7783 -0.2771
18824SOL     OW61156  11.048   5.316   8.458  0.1960  0.4826  0.2914
18824SOL    HW161157  11.088   5.362   8.385  0.6052 -0.5473 -0.1619
18824SOL    HW261158  10.959   5.295   8.428  0.4356 -0.1323 -0.0170
18825SOL     OW61159   4.274   3.676   3.072  0.3613 -0.0217 -0.6760
18825SOL    HW161160   4.318   3.729   3.138 -1.6878 -0.8701  1.5159
18825SOL    HW261161   4.205   3.732   3.036 -0.3560 -0.4435  0.0096
18826SOL     OW61162   8.062  11.875   8.140  0.4010 -0.5020  0.1444
18826SOL    HW161163   8.100  11.817   8.073  1.6225  0.3474  0.0827
18826SOL    HW261164   8.136  11.924   8.175 -0.8137  2.6987 -1.3867
18827SOL     OW61165   3.428   5.806   5.086  0.0542 -0.2083 -0.0772
18827SOL    HW161166   3.502   5.818   5.028  0.1289 -0.3612 -0.0154
18827SOL    HW261167   3.419   5.889   5.132 -0.4346  0.1480 -0.8023
18828SOL     OW61168   2.284   8.617   7.327  0.9188  0.0247 -0.0698
18828SOL    HW161169   2.306   8.696   7.377 -0.3298 -0.2134  0.9134
18828SOL    HW261170   2.367   8.586   7.293  2.1697 -0.7988  3.3687
18829SOL     OW61171   7.181  10.942   4.595 -0.3119 -0.6972 -0.4664
18829SOL    HW161172   7.143  11.028   4.577 -1.6827 -1.1411  0.1539
18829SOL    HW261173   7.207  10.909   4.510 -2.1722 -0.7332 -1.0655
18830SOL     OW61174  10.239   9.116   0.263  0.3814  0.5527  0.0575
18830SOL    HW161175  10.238   9.052   0.192 -2.0787 -1.0557  1.3819
18830SOL    HW261176  10.328   9.111   0.299  1.2600  0.4481 -2.0124
18831SOL     OW61177   8.758   2.305  10.603  1.0027  0.0244  0.1604
18831SOL    HW161178   8.825   2.346  10.658  1.0694 -0.5233  0.4961
18831SOL    HW261179   8.699   2.263  10.665  0.8824 -0.3013 -0.1717
18832SOL     OW61180   5.063   8.472   1.130  0.3571 -0.2265 -0.2425
18832SOL    HW161181   5.144   8.484   1.181  0.9377  0.1025 -1.2266
18832SOL    HW261182   5.078   8.521   1.050 -2.9306  4.6489  1.6856
18833SOL     OW61183   6.827  10.384   4.832  0.1506 -0.0829  0.0271
18833SOL    HW161184   6.754  10.326   4.856  0.1480  0.5069  1.5511
18833SOL    HW261185   6.808  10.467   4.877  1.9483 -0.0319  0.7715
18834SOL     OW61186   2.114   5.624   0.801  0.3270  0.1586  0.0979
18834SOL    HW161187   2.070   5.587   0.724 -1.0246  0.5419  0.6533
18834SOL    HW261188   2.151   5.549   0.846 -3.2926 -0.8510  1.7931
18835SOL     OW61189   1.692  10.613   1.484 -0.0011 -0.1590  0.2476
18835SOL    HW161190   1.689  10.703   1.450  2.3238  0.5134  1.5882
18835SOL    HW261191   1.686  10.558   1.407 -0.5826  1.1674 -0.6955
18836SOL     OW61192   3.460   7.263   0.700 -0.4707  0.8443 -0.5373
18836SOL    HW161193   3.364   7.258   0.702 -0.4216 -2.7105  0.9503
18836SOL    HW261194   3.487   7.220   0.781  2.3982 -1.0152 -2.3272
18837SOL     OW61195  10.507   0.141   9.272 -0.2761 -0.1543 -0.9659
18837SOL    HW161196  10.497   0.204   9.343  0.6173 -1.0533 -0.0021
18837SOL    HW261197  10.598   0.152   9.244  0.2651 -1.7946  0.0259
18838SOL     OW61198   6.673   8.549   5.585  0.0917  0.0665 -0.1090
18838SOL    HW161199   6.751   8.596   5.613  0.4540 -0.2166 -0.6228
18838SOL    HW261200   6.601   8.593   5.629  0.5093  0.5589  0.0846
18839SOL     OW61201   8.631  11.975   3.991 -0.2679 -0.5458  0.6239
18839SOL    HW161202   8.686  11.922   3.934 -0.3988  2.3285 -2.4829
18839SOL    HW261203   8.575  11.911   4.037  2.7799 -3.2726  0.9072
18840SOL     OW61204   4.572  11.412   9.733 -0.1949  0.2391 -0.8543
18840SOL    HW161205   4.642  11.449   9.679 -0.8070  2.3618 -0.3037
18840SOL    HW261206   4.521  11.358   9.673  0.1600  1.1200 -1.9845
18841SOL     OW61207   8.719   2.443   0.258 -0.3141  0.2676 -0.0550
18841SOL    HW161208   8.624   2.450   0.252 -0.4664 -1.5791 -0.5435
18841SOL    HW261209   8.734   2.350   0.278  1.4548  0.0351 -2.1608
18842SOL     OW61210   5.282   1.125   4.192 -0.2742  0.5767 -0.2300
18842SOL    HW161211   5.297   1.176   4.112 -0.0413 -0.0183 -0.5681
18842SOL    HW261212   5.349   1.156   4.253  0.1288  0.3806 -0.5743
18843SOL     OW61213   6.111  11.242  11.696  0.3752 -0.5229 -0.0865
18843SOL    HW161214   6.035  11.298  11.712 -0.0378 -1.6467  2.2138
18843SOL    HW261215   6.083  11.183  11.626 -1.2395 -1.4710  1.2826
18844SOL     OW61216   7.016   0.777   3.589  0.2273  0.3735 -0.0840
18844SOL    HW161217   7.076   0.723   3.537  0.5339  0.9195 -0.3012
18844SOL    HW261218   7.046   0.766   3.679 -0.8294 -1.2543  0.1044
18845SOL     OW61219   7.438  10.328   4.366 -0.2498  0.2210  0.0595
18845SOL    HW161220   7.492  10.256   4.333  1.3288  0.8511  1.1254
18845SOL    HW261221   7.388  10.290   4.437 -0.9929 -0.2914 -0.7186
18846SOL     OW61222   0.192   3.167  11.607 -0.4413 -0.7973  0.2050
18846SOL    HW161223   0.268   3.126  11.565  0.0548  1.0334 -0.7824
18846SOL    HW261224   0.218   3.176  11.699  1.6968  2.0977 -0.5426
18847SOL     OW61225  11.641   3.286   6.648  0.3182  0.5102  0.1816
18847SOL    HW161226  11.686   3.361   6.608 -0.5597  0.7493 -0.4044
18847SOL    HW261227  11.554   3.319   6.670 -0.9442 -0.9055 -2.2514
18848SOL     OW61228   6.431  11.748   1.428 -0.5596 -0.8824  0.3787
18848SOL    HW161229   6.511  11.698   1.411 -0.0935  0.0003 -0.0490
18848SOL    HW261230   6.405  11.782   1.343 -0.6276 -0.0332  0.7319
18849SOL     OW61231  10.632   9.223   9.924  0.5113 -0.2868 -0.1182
18849SOL    HW161232  10.589   9.244  10.008  0.6891  0.2909 -0.1686
18849SOL    HW261233  10.695   9.293   9.912  1.2336 -0.9445 -0.2236
18850SOL     OW61234  11.655   8.863   3.662 -0.0433  0.6787  0.0389
18850SOL    HW161235  11.683   8.774   3.640 -0.1018  0.5933  0.3131
18850SOL    HW261236  11.604   8.891   3.585 -1.8659 -0.3264  0.8117
18851SOL     OW61237   0.270  11.375   9.265 -0.3755  0.1043  0.1992
18851SOL    HW161238   0.239  11.420   9.343  0.1373 -2.3663  1.9476
18851SOL    HW261239   0.348  11.328   9.293 -1.2005 -2.3526 -1.2773
18852SOL     OW61240   5.367   3.540   3.294  0.1899  0.4380 -0.1667
18852SOL    HW161241   5.369   3.627   3.335  0.2981 -0.8157  2.7124
18852SOL    HW261242   5.458   3.514   3.289  0.0568 -0.2495  0.7590
18853SOL     OW61243  10.750   6.195   0.335 -0.0924  0.0920  0.1087
18853SOL    HW161244  10.782   6.238   0.415  0.8192  0.1763 -0.2966
18853SOL    HW261245  10.663   6.162   0.359  0.1148  0.2382  1.0914
18854SOL     OW61246   6.703   8.144   8.417  0.2804  0.9220  0.1185
18854SOL    HW161247   6.762   8.219   8.423 -0.2999  1.4355 -0.4921
18854SOL    HW261248   6.687   8.133   8.323 -1.4288  1.4631  0.3058
18855SOL     OW61249   7.781   4.866   1.840  0.0810 -0.0578 -0.2629
18855SOL    HW161250   7.692   4.898   1.824  0.5759  1.0983 -0.8033
18855SOL    HW261251   7.798   4.806   1.768 -0.1278 -0.0227 -0.3429
18856SOL     OW61252   9.266   1.146   3.742  0.9057  0.0997  0.1181
18856SOL    HW161253   9.352   1.113   3.767 -0.2419 -1.8857  1.8178
18856SOL    HW261254   9.232   1.187   3.822 -0.8802 -1.9424  0.5149
18857SOL     OW61255   2.980   8.015   1.381  0.2341  0.3866  0.1810
18857SOL    HW161256   3.007   8.052   1.465 -1.5243 -0.0835  1.0057
18857SOL    HW261257   3.059   8.016   1.327  0.7716  3.2957  0.8765
18858SOL     OW61258   9.792   4.089   8.422 -0.1690 -0.7421 -0.0132
18858SOL    HW161259   9.812   4.182   8.419 -0.3174 -0.7264 -1.8737
18858SOL    HW261260   9.697   4.084   8.411 -0.1736 -1.1014  0.1720
18859SOL     OW61261   5.320   5.235   4.074  0.3921  0.1197 -0.4000
18859SOL    HW161262   5.252   5.270   4.017 -0.5321  1.1480  1.2776
18859SOL    HW261263   5.293   5.258   4.162  2.6017  0.0325  0.3810
18860SOL     OW61264   3.035   2.665   5.386 -0.0585  0.1859  0.2175
18860SOL    HW161265   3.081   2.691   5.306  0.7400  1.7900  1.1398
18860SOL    HW261266   3.025   2.570   5.379  0.0540  0.2872 -1.7303
18861SOL     OW61267   6.036   8.832   2.626  0.2940  0.0699  0.1969
18861SOL    HW161268   6.065   8.915   2.589 -0.1939  0.0309 -0.2793
18861SOL    HW261269   5.964   8.805   2.570  0.4391 -0.6704  0.3616
18862SOL     OW61270   7.685  11.398   6.449 -0.4354  0.1119 -0.3721
18862SOL    HW161271   7.607  11.354   6.415 -1.1353  1.1561 -0.1597
18862SOL    HW261272   7.651  11.477   6.492  0.6188 -0.0665  0.8546
18863SOL     OW61273   6.016  10.593   4.775  0.8472  0.4306 -0.3814
18863SOL    HW161274   5.959  10.571   4.849  2.9793 -0.7928  0.9807
18863SOL    HW261275   5.998  10.686   4.758  0.5596  0.8675  1.9535
18864SOL     OW61276   6.041   2.133   5.411  0.5673  0.0550 -0.6904
18864SOL    HW161277   6.043   2.214   5.461 -0.2016 -0.3680  0.0671
18864SOL    HW261278   6.069   2.157   5.323 -0.7994  1.3721 -0.7908
18865SOL     OW61279   7.984   1.459   6.934  0.8465 -0.0714 -0.3232
18865SOL    HW161280   7.951   1.446   6.845  0.0495  1.5641 -0.3119
18865SOL    HW261281   8.017   1.549   6.934  2.0736 -0.4936  0.6783
18866SOL     OW61282   6.245   2.981   6.503 -0.0947  0.1423  0.4033
18866SOL    HW161283   6.154   3.008   6.521 -0.1387  1.4063 -1.3957
18866SOL    HW261284   6.293   3.006   6.582 -1.0027  1.1241  0.6721
18867SOL     OW61285   6.884   9.316   7.960  0.7048 -0.3341  0.0050
18867SOL    HW161286   6.954   9.271   8.007  1.0343 -0.0341 -0.1928
18867SOL    HW261287   6.804   9.290   8.005  0.7946 -1.8314 -0.6547
18868SOL     OW61288   1.770  11.290   3.442 -0.0034  0.2367 -0.2814
18868SOL    HW161289   1.767  11.382   3.416  0.1162  0.7170  1.3498
18868SOL    HW261290   1.701  11.281   3.507 -0.3585 -0.9698 -0.7927
18869SOL     OW61291   8.563   5.758   5.620  0.1155 -0.1177 -0.4369
18869SOL    HW161292   8.647   5.774   5.576 -0.2596 -2.3877 -2.2067
18869SOL    HW261293   8.578   5.784   5.711  2.4427  0.4119 -0.9019
18870SOL     OW61294   1.541   2.203  10.102  0.0695 -0.1496 -0.6263
18870SOL    HW161295   1.453   2.218  10.066 -0.3325  0.3342  0.5116
18870SOL    HW261296   1.542   2.110  10.124 -1.4143  0.4234  2.4247
18871SOL     OW61297   0.169   8.372   0.210 -0.0951  0.1030  0.3705
18871SOL    HW161298   0.175   8.284   0.173  1.9829  0.7633 -1.0021
18871SOL    HW261299   0.162   8.430   0.134 -2.3535  1.1316  1.2644
18872SOL     OW61300   7.311   1.870   4.551  0.0566 -0.1601 -0.1596
18872SOL    HW161301   7.284   1.866   4.460  0.5684  2.2034 -0.4532
18872SOL    HW261302   7.244   1.819   4.598 -1.6857  0.7613 -1.5494
18873SOL     OW61303   1.247  11.878   1.668  0.0977 -0.3309  0.1223
18873SOL    HW161304   1.241  11.826   1.748 -3.1284 -0.7649 -0.2719
18873SOL    HW261305   1.287  11.819   1.604  1.9204 -0.2554  1.1169
18874SOL     OW61306   2.375   9.996   8.798 -0.8118 -0.0603 -0.0223
18874SOL    HW161307   2.307   9.987   8.732 -0.1867 -2.3288 -0.4383
18874SOL    HW261308   2.452   9.953   8.760  0.6499  1.6983  0.7671
18875SOL     OW61309   0.378   1.077   9.127  0.6540 -0.0552 -0.1199
18875SOL    HW161310   0.429   1.041   9.199 -1.2242 -0.6435  1.0051
18875SOL    HW261311   0.288   1.048   9.145 -0.4790  2.7979 -0.7480
18876SOL     OW61312   1.107   5.442   2.121  0.3735 -0.0401  0.3697
18876SOL    HW161313   1.131   5.355   2.087 -0.8817  0.0041 -0.7153
18876SOL    HW261314   1.013   5.450   2.103  0.7532  2.1491 -1.0080
18877SOL     OW61315  10.110   1.703   0.675 -0.5066 -0.1328  0.2366
18877SOL    HW161316  10.078   1.614   0.659 -1.3457 -0.5533  3.4535
18877SOL    HW261317  10.036   1.749   0.715  0.8517  0.9532  1.6555
18878SOL     OW61318   1.438   0.010   8.923 -0.2092 -0.3289 -0.5235
18878SOL    HW161319   1.370  -0.052   8.948 -0.8710  0.8113  0.6386
18878SOL    HW261320   1.390   0.089   8.898  0.6386  1.1792  2.1778
18879SOL     OW61321   3.077   5.081   0.898  0.2098 -0.2075 -0.4774
18879SOL    HW161322   3.148   5.114   0.954 -0.7522 -0.2399  0.7991
18879SOL    HW261323   3.113   5.086   0.809  0.8336  2.4366 -0.1773
18880SOL     OW61324   7.435  10.824   9.351  0.2819  0.2202  0.0953
18880SOL    HW161325   7.345  10.791   9.344  0.3741 -0.4951  1.6627
18880SOL    HW261326   7.489  10.745   9.356  0.8633  0.6312  0.4547
18881SOL     OW61327   0.061   8.294   3.098 -0.3113  0.5623  0.0401
18881SOL    HW161328   0.029   8.234   3.165  0.9590 -1.2276 -0.8595
18881SOL    HW261329  -0.018   8.333   3.061 -1.0754  0.8778  1.9153
18882SOL     OW61330   2.073   1.253   4.247  0.6849 -0.0329 -0.0903
18882SOL    HW161331   2.008   1.207   4.300  1.1075 -0.9612 -0.3576
18882SOL    HW261332   2.157   1.233   4.289  0.9580 -0.2489 -0.7283
18883SOL     OW61333   7.002   0.085   4.597 -0.5077 -0.0995  0.0080
18883SOL    HW161334   7.097   0.076   4.586 -0.6898  0.4969 -2.6181
18883SOL    HW261335   6.966   0.001   4.570 -0.7865 -0.0668  0.2704
18884SOL     OW61336   0.492   2.932   9.382  0.5247  0.0813  0.1106
18884SOL    HW161337   0.408   2.935   9.428 -0.2377 -0.4522 -1.1857
18884SOL    HW261338   0.476   2.875   9.307  1.4989  1.5499 -1.2691
18885SOL     OW61339   3.529   7.767   3.586 -0.2265  0.2194  0.5293
18885SOL    HW161340   3.530   7.673   3.566 -2.6643  0.3937 -0.7705
18885SOL    HW261341   3.602   7.803   3.537  0.6494 -0.9527  0.9228
18886SOL     OW61342   4.319   1.119   7.051 -0.6293  0.3428  0.4712
18886SOL    HW161343   4.268   1.038   7.050 -0.5680  0.1623 -3.4040
18886SOL    HW261344   4.258   1.186   7.019  0.2967  1.0367  0.1093
18887SOL     OW61345   5.406   8.282   4.578  0.3345  0.7894 -0.0174
18887SOL    HW161346   5.329   8.227   4.562  1.8342 -1.6105  0.5513
18887SOL    HW261347   5.374   8.372   4.565 -2.6444 -0.0616  0.6351
18888SOL     OW61348   7.119  11.042   4.122 -0.0691 -0.1512 -0.1339
18888SOL    HW161349   7.029  11.011   4.120 -0.0819 -0.2041  0.7857
18888SOL    HW261350   7.146  11.044   4.030 -0.1514 -2.5903 -0.2834
18889SOL     OW61351  11.794   4.148   5.937 -0.8537 -0.4316 -0.1648
18889SOL    HW161352  11.844   4.126   5.858 -2.2568 -1.0215 -0.9311
18889SOL    HW261353  11.855   4.133   6.009  0.3732 -0.1521 -1.1168
18890SOL     OW61354   7.021   7.374   7.738  0.0141  0.4332 -0.5437
18890SOL    HW161355   7.020   7.463   7.703  0.5047  0.6741  0.0387
18890SOL    HW261356   6.991   7.383   7.828  1.9551  0.3157  0.1591
18891SOL     OW61357   6.240   9.383   8.128  0.5053 -0.5841  0.3409
18891SOL    HW161358   6.178   9.321   8.168  0.9313 -0.6670  0.8752
18891SOL    HW261359   6.187   9.431   8.064  0.0295 -1.0792  0.3544
18892SOL     OW61360   4.968   7.507   2.340 -0.2001 -0.2127  0.2960
18892SOL    HW161361   4.894   7.529   2.283  0.5695 -0.1184 -0.6817
18892SOL    HW261362   4.937   7.531   2.428 -1.7254 -1.1816  0.0623
18893SOL     OW61363   6.009   5.433   2.087 -0.1696 -0.0087 -0.3294
18893SOL    HW161364   5.919   5.404   2.106 -0.0135 -0.4296 -0.2311
18893SOL    HW261365   5.998   5.522   2.052 -0.6900 -0.3299 -1.0164
18894SOL     OW61366   5.527   6.763   0.151 -0.1060  0.8592 -0.0316
18894SOL    HW161367   5.496   6.676   0.125  1.0293  1.1167 -2.6068
18894SOL    HW261368   5.455   6.800   0.201 -0.8631 -1.3177  0.6213
18895SOL     OW61369   0.454   0.865   0.885 -0.2114 -0.1977 -0.2056
18895SOL    HW161370   0.453   0.779   0.928  1.2243  0.9314  2.3051
18895SOL    HW261371   0.361   0.888   0.876 -0.6083 -0.6511  2.1285
18896SOL     OW61372   8.762   4.889   2.971 -0.7746 -0.6106  0.0871
18896SOL    HW161373   8.747   4.919   3.060 -0.3098  0.5080 -0.2062
18896SOL    HW261374   8.714   4.951   2.916 -0.3690 -0.7952 -0.4867
18897SOL     OW61375   4.881   0.682   3.169 -0.1195  0.3209 -0.3205
18897SOL    HW161376   4.862   0.608   3.227  0.6864 -0.7270 -1.3591
18897SOL    HW261377   4.794   0.713   3.142 -0.4616 -0.9293 -0.7158
18898SOL     OW61378   3.663   3.284   6.715  0.0006 -0.2929  0.1892
18898SOL    HW161379   3.576   3.246   6.712  0.6539 -1.9575  1.1478
18898SOL    HW261380   3.675   3.323   6.628 -1.4846 -0.4600 -0.1186
18899SOL     OW61381   7.502   4.129  11.625  0.3534 -0.2314  1.0012
18899SOL    HW161382   7.523   4.051  11.676 -0.9717 -0.7757  0.7585
18899SOL    HW261383   7.574   4.137  11.562 -0.3648 -2.3383 -0.1723
18900SOL     OW61384   4.093   3.868   2.976 -0.1297 -0.3918  0.2782
18900SOL    HW161385   4.162   3.908   2.924 -1.7134  0.8119 -1.0046
18900SOL    HW261386   4.013   3.883   2.926 -1.6886  0.3810  2.7940
18901SOL     OW61387   9.885   7.176  11.938  0.1326 -0.0375  0.0617
18901SOL    HW161388   9.926   7.262  11.938  0.6347 -0.2768 -0.0939
18901SOL    HW261389   9.824   7.178  12.012  0.5894  0.2355  0.4294
18902SOL     OW61390   8.845   4.020   8.682 -0.2767 -0.1574 -0.1876
18902SOL    HW161391   8.812   4.030   8.772 -1.2742  0.2836 -0.5862
18902SOL    HW261392   8.791   4.079   8.630 -1.3598 -2.1581 -1.4731
18903SOL     OW61393  10.033   7.580  11.470  0.2579 -0.0285  0.1612
18903SOL    HW161394   9.964   7.586  11.404  2.2909  0.0954 -2.1160
18903SOL    HW261395  10.053   7.672  11.491  0.7440 -0.0063 -0.3654
18904SOL     OW61396   2.202   9.086   7.786 -0.2693  0.1909 -0.4779
18904SOL    HW161397   2.270   9.083   7.719  0.2628  2.0308 -0.0704
18904SOL    HW261398   2.225   9.161   7.841 -0.9866 -0.9356  1.4728
18905SOL     OW61399  10.436  10.360   0.878  0.5208  0.6057  0.4699
18905SOL    HW161400  10.474  10.340   0.963 -1.0251 -2.2688  0.5874
18905SOL    HW261401  10.472  10.293   0.819 -0.3571  1.0040 -0.5565
18906SOL     OW61402  11.049   0.930   1.980  0.2531 -0.1993 -0.5945
18906SOL    HW161403  10.972   0.969   1.939 -0.2731 -0.3876  0.1858
18906SOL    HW261404  11.058   0.977   2.063  0.3644 -0.8634 -0.2170
18907SOL     OW61405   6.374   9.714   3.982  0.0724  0.3107 -0.8838
18907SOL    HW161406   6.356   9.778   3.914 -0.7632 -0.9037 -1.8657
18907SOL    HW261407   6.288   9.681   4.009  0.4425  0.0458  0.0427
18908SOL     OW61408   8.122  11.732  10.596  0.1149 -0.2824 -0.2763
18908SOL    HW161409   8.116  11.825  10.576 -2.0595 -0.4969 -0.9316
18908SOL    HW261410   8.037  11.711  10.635  0.8347 -1.8556  0.5535
18909SOL     OW61411   5.912   7.480   4.222  0.3942 -0.3732  0.5458
18909SOL    HW161412   5.901   7.549   4.156  1.4102  0.6777  1.4478
18909SOL    HW261413   5.823   7.461   4.251  0.1137  0.7575  0.4844
18910SOL     OW61414   2.419   4.181   2.887 -0.0370 -0.0237  0.1866
18910SOL    HW161415   2.514   4.171   2.875 -0.1672  1.0779 -2.7440
18910SOL    HW261416   2.403   4.274   2.872 -1.6885 -0.3984 -0.6357
18911SOL     OW61417   7.318   7.495   3.553 -0.0196  0.0411 -0.4207
18911SOL    HW161418   7.286   7.581   3.524  0.3655 -0.4422 -2.4646
18911SOL    HW261419   7.401   7.484   3.508  0.5685 -0.8821  0.8336
18912SOL     OW61420   7.921   0.817   3.318  0.6962  0.4279 -0.4182
18912SOL    HW161421   7.882   0.800   3.232  1.0022 -2.0570 -0.1465
18912SOL    HW261422   7.949   0.731   3.349 -0.0789  1.1141  2.5107
18913SOL     OW61423  11.185   1.731   9.436 -0.1165 -0.1724 -0.0385
18913SOL    HW161424  11.131   1.692   9.367  0.2959  1.4189 -1.3032
18913SOL    HW261425  11.141   1.813   9.457  0.4673 -0.0413  0.6997
18914SOL     OW61426   3.836   4.456   3.686 -0.5661 -0.1034 -0.3272
18914SOL    HW161427   3.847   4.454   3.781  0.3713  0.1436 -0.4202
18914SOL    HW261428   3.868   4.542   3.660 -1.1709 -0.0244 -0.8362
18915SOL     OW61429  10.403  11.556   8.200  0.4779  0.5210  0.4477
18915SOL    HW161430  10.401  11.619   8.128  0.9040  1.5460  1.2925
18915SOL    HW261431  10.346  11.595   8.267 -0.7183 -0.8984  0.3038
18916SOL     OW61432   3.724   3.790  10.616 -0.2196  0.1810 -0.1185
18916SOL    HW161433   3.808   3.744  10.618 -0.0254  0.4268 -1.4837
18916SOL    HW261434   3.729   3.846  10.538 -0.7383  1.9909  1.0935
18917SOL     OW61435   3.923   7.559   1.896 -0.0200  0.5913  0.8106
18917SOL    HW161436   3.906   7.653   1.892  0.5598  0.6860  0.4041
18917SOL    HW261437   3.991   7.544   1.831 -1.5506 -0.4376 -0.6448
18918SOL     OW61438   1.562   7.157   2.399  0.3997  0.1883  0.3182
18918SOL    HW161439   1.523   7.092   2.341  0.4838  2.7673 -2.8807
18918SOL    HW261440   1.488   7.193   2.448 -0.0903 -0.2467 -0.0930
18919SOL     OW61441  10.100   8.785  10.325  0.7037  0.1850 -0.7701
18919SOL    HW161442  10.114   8.716  10.259  1.2804 -0.0692 -0.3860
18919SOL    HW261443  10.055   8.740  10.397 -0.7361  0.6522 -1.3371
18920SOL     OW61444   7.289   2.106   1.521 -0.4240  0.1238  0.4963
18920SOL    HW161445   7.264   2.028   1.471  0.8631  0.5223 -0.8629
18920SOL    HW261446   7.255   2.179   1.469 -0.9540  0.4950  1.3571
18921SOL     OW61447   1.829   6.522  11.749  0.1807  0.0739  0.3466
18921SOL    HW161448   1.892   6.502  11.818  0.6355 -0.7864 -0.3050
18921SOL    HW261449   1.884   6.551  11.675 -0.1940 -0.4079 -0.1284
18922SOL     OW61450   3.535   7.412   8.593  0.0204  0.4216  0.5914
18922SOL    HW161451   3.569   7.478   8.532 -5.0189  0.8882 -2.2051
18922SOL    HW261452   3.498   7.464   8.665 -0.6622  0.4398  0.2364
18923SOL     OW61453   0.505   8.019   0.320  0.0553 -0.0633 -0.0345
18923SOL    HW161454   0.432   7.959   0.334 -0.4585  0.2286 -1.3163
18923SOL    HW261455   0.487   8.061   0.236  1.6280  0.1312 -0.3214
18924SOL     OW61456   8.104   0.270   2.615  0.2418 -0.9792  0.3820
18924SOL    HW161457   8.157   0.241   2.541  0.8231 -0.4496  0.5865
18924SOL    HW261458   8.128   0.210   2.686  1.3217 -0.1213  0.7578
18925SOL     OW61459   3.022  10.176   2.274  0.7637 -0.0082  0.0546
18925SOL    HW161460   2.969  10.119   2.330 -0.2736  0.0372 -0.8477
18925SOL    HW261461   3.107  10.133   2.269 -0.2151 -1.9114 -1.1973
18926SOL     OW61462   1.695   5.760   4.741 -0.5550  0.6687 -0.1293
18926SOL    HW161463   1.778   5.718   4.766  1.3387  3.4468 -1.1664
18926SOL    HW261464   1.670   5.716   4.660  1.3001  1.3211 -1.1264
18927SOL     OW61465   2.185   6.475   0.190  0.6906  0.3542 -0.2415
18927SOL    HW161466   2.253   6.410   0.205  0.8082  0.1300 -1.5705
18927SOL    HW261467   2.233   6.554   0.163  0.4282  0.0452 -1.6819
18928SOL     OW61468  10.413   7.679   0.077  0.2689  0.3039 -0.4261
18928SOL    HW161469  10.366   7.624   0.015 -0.7598  0.8052 -0.1160
18928SOL    HW261470  10.502   7.684   0.042  0.9028 -2.8918  0.3992
18929SOL     OW61471   3.047   2.568  11.063 -0.0492  0.3043 -0.7114
18929SOL    HW161472   3.038   2.513  10.986 -0.6762 -1.0476  0.2830
18929SOL    HW261473   3.084   2.650  11.030  1.4662 -0.8899 -2.1527
18930SOL     OW61474   0.560   4.196   6.773 -0.2116  0.1917  0.4061
18930SOL    HW161475   0.592   4.110   6.745  1.3277  1.4931 -2.1992
18930SOL    HW261476   0.550   4.246   6.692 -1.6874  2.2943  1.7815
18931SOL     OW61477  11.695   1.102   4.189  0.2972 -0.3026  0.4480
18931SOL    HW161478  11.732   1.018   4.161 -0.8110 -1.1599  1.4211
18931SOL    HW261479  11.738   1.167   4.134  0.9599 -1.5387 -0.5537
18932SOL     OW61480   9.158   4.097   9.790 -0.7225  0.4862  0.4634
18932SOL    HW161481   9.108   4.062   9.716 -1.0218  1.1725  0.3370
18932SOL    HW261482   9.110   4.176   9.816  0.2686  1.1405  0.3598
18933SOL     OW61483   4.918   0.985   0.141 -0.1366  0.6363  0.1047
18933SOL    HW161484   4.900   0.914   0.079  0.2079  1.3696 -0.8803
18933SOL    HW261485   4.872   0.960   0.221  0.9749 -1.3014  0.2245
18934SOL     OW61486   6.212   1.713   5.819 -0.0801 -0.3530  0.4796
18934SOL    HW161487   6.295   1.761   5.826  0.3994 -1.1684  0.5519
18934SOL    HW261488   6.192   1.715   5.726  2.2561 -3.7111 -0.2886
18935SOL     OW61489   4.336   5.562   4.486  0.6654  0.4373  0.1601
18935SOL    HW161490   4.296   5.489   4.439  0.0043 -0.1938  1.6454
18935SOL    HW261491   4.342   5.632   4.421  2.6301 -1.3121 -1.7387
18936SOL     OW61492   4.823   0.777   3.451  0.3852 -0.6402  0.5207
18936SOL    HW161493   4.747   0.773   3.510 -0.9888  1.0592 -0.9867
18936SOL    HW261494   4.812   0.702   3.393  0.1829 -0.7380  0.6820
18937SOL     OW61495   1.457   9.673   8.549 -0.4307 -0.2218 -0.2228
18937SOL    HW161496   1.414   9.754   8.520 -2.4513 -1.1560  0.0216
18937SOL    HW261497   1.386   9.610   8.560  1.0048 -1.8246  0.3697
18938SOL     OW61498   0.930   7.823   5.545 -0.6368 -0.5073 -0.3689
18938SOL    HW161499   1.016   7.842   5.508 -0.5496 -1.5809 -0.7774
18938SOL    HW261500   0.942   7.829   5.639  0.0633 -1.2623 -0.3970
18939SOL     OW61501   3.297   7.880   9.615  0.0807 -0.3814  0.5005
18939SOL    HW161502   3.203   7.892   9.601  0.2541  1.5502  0.7277
18939SOL    HW261503   3.304   7.846   9.704 -0.3880 -0.0995  0.6496
18940SOL     OW61504   2.801   5.406   5.507  0.5489  0.0749  0.1739
18940SOL    HW161505   2.857   5.331   5.485 -0.2963  0.0796 -2.2722
18940SOL    HW261506   2.825   5.473   5.443 -0.2781  1.1120  0.9195
18941SOL     OW61507   4.008   7.770   3.041 -0.3774 -0.2313 -0.2905
18941SOL    HW161508   4.059   7.828   2.984  1.1440 -0.9255  0.3286
18941SOL    HW261509   3.942   7.732   2.984 -2.1257  2.8132 -0.5540
18942SOL     OW61510   7.373   3.341   4.885  0.7369 -0.8397 -0.2114
18942SOL    HW161511   7.378   3.256   4.929  2.1138 -0.3073  0.7199
18942SOL    HW261512   7.401   3.323   4.795  1.1706 -1.3571  0.0184
18943SOL     OW61513  10.746   5.553   3.461  0.3689  0.2326 -0.0622
18943SOL    HW161514  10.670   5.503   3.431  0.7244 -0.8466  0.7808
18943SOL    HW261515  10.749   5.538   3.555  0.3671  2.0451  0.2547
18944SOL     OW61516   1.639   4.228   7.655 -0.1480 -0.0182  0.3313
18944SOL    HW161517   1.626   4.262   7.567 -1.5578  0.5304  0.7278
18944SOL    HW261518   1.732   4.206   7.659 -0.0396  0.0853 -1.2334
18945SOL     OW61519   7.226   5.906   9.864 -0.6237 -0.1840 -0.0678
18945SOL    HW161520   7.305   5.860   9.836 -0.3688  1.1232 -1.6227
18945SOL    HW261521   7.237   5.916   9.959  0.1853 -1.6274  0.0193
18946SOL     OW61522  11.690   3.114   6.420 -0.2856 -0.4305 -0.2983
18946SOL    HW161523  11.758   3.172   6.385 -0.8962 -0.3283 -1.3475
18946SOL    HW261524  11.669   3.151   6.506  1.4197 -0.8314  0.3445
18947SOL     OW61525   3.508   0.345   9.787 -0.1926 -0.3561 -0.1419
18947SOL    HW161526   3.464   0.417   9.832  1.5655  1.5361 -1.2983
18947SOL    HW261527   3.520   0.377   9.698 -1.2220 -2.9525 -1.3130
18948SOL     OW61528   3.650   2.525   2.395  0.3229 -0.3784  0.7386
18948SOL    HW161529   3.743   2.541   2.382 -0.2964  1.5801 -2.3357
18948SOL    HW261530   3.633   2.549   2.487  2.3768  1.8604  0.6099
18949SOL     OW61531  11.064   0.800  11.458  0.0255 -0.1611 -0.2521
18949SOL    HW161532  10.977   0.775  11.489 -0.1990 -1.0960 -1.5659
18949SOL    HW261533  11.058   0.895  11.443 -0.2073  0.1081  1.3121
18950SOL     OW61534   1.916   7.802   4.040 -0.5352  0.5846  0.1222
18950SOL    HW161535   1.908   7.894   4.017 -0.2434  0.3468 -0.9741
18950SOL    HW261536   1.971   7.764   3.971 -1.5287 -0.6222 -0.0552
18951SOL     OW61537  11.591   1.105   1.481  0.0518  0.1161 -0.0220
18951SOL    HW161538  11.569   1.193   1.511  2.5292  0.5676  0.6812
18951SOL    HW261539  11.552   1.099   1.394  1.5705  2.7500 -1.0000
18952SOL     OW61540   0.681   0.258   0.234 -0.4021  0.5048 -0.9536
18952SOL    HW161541   0.641   0.210   0.306 -0.4428  1.1837 -0.5159
18952SOL    HW261542   0.619   0.247   0.161  0.4603 -1.6358 -1.4467
18953SOL     OW61543   3.329  10.771   1.460 -0.5640 -0.2177 -0.4845
18953SOL    HW161544   3.405  10.800   1.408 -0.3293 -0.8517 -0.4979
18953SOL    HW261545   3.279  10.717   1.400 -0.2900 -0.9604 -0.0573
18954SOL     OW61546   7.762   6.090   7.844 -0.0052 -0.2077  0.3732
18954SOL    HW161547   7.680   6.042   7.857 -0.3809  0.6362  1.2497
18954SOL    HW261548   7.734   6.178   7.819  0.6027  0.3601  1.6125
18955SOL     OW61549   8.550   2.531   4.766 -0.6412 -0.1445 -0.3011
18955SOL    HW161550   8.509   2.448   4.793 -1.1574  0.5394  1.1296
18955SOL    HW261551   8.566   2.520   4.672  0.1294 -2.2037  0.0087
18956SOL     OW61552  10.601   6.174  10.976 -0.4286  0.0173  0.2994
18956SOL    HW161553  10.601   6.247  11.037 -0.6714 -0.3282  0.7168
18956SOL    HW261554  10.582   6.214  10.891 -0.4721  0.4483  0.5098
18957SOL     OW61555   7.712  11.892   2.488  0.0156 -0.2649 -0.1510
18957SOL    HW161556   7.797  11.914   2.527  1.3617 -0.4533 -2.7766
18957SOL    HW261557   7.710  11.942   2.406 -1.0188 -2.6047 -1.6552
18958SOL     OW61558   2.740  11.491   7.377  0.2530  0.4225 -0.1171
18958SOL    HW161559   2.752  11.564   7.437 -0.3066  0.6914 -0.3221
18958SOL    HW261560   2.647  11.468   7.385  0.2789  0.1545 -0.5265
18959SOL     OW61561   9.443   5.112   8.647  0.5015  0.2923 -0.0914
18959SOL    HW161562   9.536   5.135   8.644  0.8038 -0.8148  0.3606
18959SOL    HW261563   9.441   5.017   8.645 -0.6591  0.3059 -0.6945
18960SOL     OW61564  10.843  11.912   3.924  0.6710 -0.2752  0.1494
18960SOL    HW161565  10.823  11.986   3.867  0.6212 -0.1763  0.2956
18960SOL    HW261566  10.934  11.927   3.952  0.9241 -0.6766 -0.4413
18961SOL     OW61567   3.965   3.379   4.627  0.2586  0.4923  0.3227
18961SOL    HW161568   3.966   3.444   4.698 -0.7525  0.4494  0.3966
18961SOL    HW261569   3.903   3.415   4.563 -0.4220 -0.4538  0.4230
18962SOL     OW61570   7.085   2.032   8.986  0.3352  0.5877  0.0256
18962SOL    HW161571   7.127   2.113   8.956 -0.3035  0.3264 -1.6906
18962SOL    HW261572   6.996   2.037   8.950 -0.4790  0.1999  1.8902
18963SOL     OW61573  10.555   9.893   7.712  0.3085  0.5972 -0.3715
18963SOL    HW161574  10.535   9.824   7.648 -1.0255 -0.1602  0.7920
18963SOL    HW261575  10.582   9.968   7.659 -1.3563  0.1978 -1.8983
18964SOL     OW61576   8.475   7.534   7.538  0.0338  0.2809 -0.1206
18964SOL    HW161577   8.522   7.455   7.509 -2.0496 -1.8990  1.9242
18964SOL    HW261578   8.478   7.593   7.463  2.6535 -1.2647 -1.3679
18965SOL     OW61579   9.754   1.867   9.291 -0.0753 -0.6622  0.7474
18965SOL    HW161580   9.800   1.923   9.228 -0.6059  0.3838  1.2684
18965SOL    HW261581   9.690   1.820   9.238 -0.3450  0.0181  0.4481
18966SOL     OW61582   7.577   7.882   1.830 -0.0049 -0.0993  0.6026
18966SOL    HW161583   7.657   7.830   1.824  0.0522 -0.3082  2.4234
18966SOL    HW261584   7.522   7.834   1.891 -0.8654  0.8573  0.6068
18967SOL     OW61585   4.056   3.569   2.443  0.5150  0.3846  0.1842
18967SOL    HW161586   4.093   3.577   2.355 -1.7765  0.4657 -0.8260
18967SOL    HW261587   4.047   3.475   2.457  0.2627  0.3944  0.0765
18968SOL     OW61588   0.695   9.521   3.444  0.2284  0.6008 -0.0733
18968SOL    HW161589   0.702   9.529   3.349  2.3328 -1.7845 -0.2243
18968SOL    HW261590   0.705   9.611   3.476 -0.7123  1.4799 -2.0787
18969SOL     OW61591   2.063   2.290   4.991 -0.1602  0.0151 -0.7513
18969SOL    HW161592   2.001   2.240   4.937 -1.3412  1.1718 -0.5336
18969SOL    HW261593   2.111   2.344   4.928 -2.5503  2.4621 -0.6694
18970SOL     OW61594   6.871  11.354   5.831 -0.3758 -0.4656  0.1806
18970SOL    HW161595   6.897  11.422   5.894 -1.1812 -0.2450  0.2846
18970SOL    HW261596   6.927  11.370   5.755  1.5300 -1.5177  1.2704
18971SOL     OW61597   4.943   1.645   3.359 -0.4345  0.2117 -0.3378
18971SOL    HW161598   4.890   1.609   3.431  0.2180 -0.0660  0.0071
18971SOL    HW261599   4.895   1.619   3.280  0.0519 -1.5071 -0.1030
18972SOL     OW61600  11.809  11.071   1.258  1.2616 -0.4000  0.1850
18972SOL    HW161601  11.723  11.108   1.276  0.4084 -1.3248 -1.6963
18972SOL    HW261602  11.835  11.031   1.341  0.6098  1.2323  1.2262
18973SOL     OW61603   7.585   2.856   0.891  0.4677  0.6396 -0.0027
18973SOL    HW161604   7.671   2.820   0.871  0.9412  2.2355 -1.0244
18973SOL    HW261605   7.603   2.931   0.948 -0.1846  1.2840 -0.6264
18974SOL     OW61606  10.974   6.987   8.179 -0.1381  0.3252  0.2509
18974SOL    HW161607  10.907   6.929   8.141 -0.4624 -1.5286  3.2317
18974SOL    HW261608  10.974   7.064   8.123 -1.7811 -1.3576 -2.2998
18975SOL     OW61609  11.545   0.093   0.754  0.4039 -0.3571  0.6615
18975SOL    HW161610  11.510   0.022   0.701  1.5895 -1.4471  1.2632
18975SOL    HW261611  11.489   0.095   0.831 -0.3793  0.1880  0.0826
18976SOL     OW61612   2.521   0.767  11.636  0.1021 -0.1219 -0.0832
18976SOL    HW161613   2.538   0.750  11.729  1.3956  0.0321 -0.2805
18976SOL    HW261614   2.511   0.862  11.631 -0.4189 -0.1717 -0.0375
18977SOL     OW61615   3.474   4.334   5.500  0.2164 -0.3437 -0.4324
18977SOL    HW161616   3.493   4.347   5.407 -0.3326 -1.6848 -0.7572
18977SOL    HW261617   3.384   4.301   5.501  0.2185 -0.3376  0.5795
18978SOL     OW61618   4.561   5.377   8.947 -0.1735 -0.7441  0.1477
18978SOL    HW161619   4.535   5.442   8.883 -1.0436  0.5271  1.7319
18978SOL    HW261620   4.511   5.398   9.026  1.1886 -1.9524  1.4113
18979SOL     OW61621  10.102   5.092   4.403 -0.4440 -0.0567  0.3273
18979SOL    HW161622  10.178   5.083   4.461 -0.7405  2.4444  1.2210
18979SOL    HW261623  10.027   5.083   4.462 -0.9000 -1.6948 -0.4224
18980SOL     OW61624   9.627  10.028   7.298  0.1824 -0.2397 -0.0494
18980SOL    HW161625   9.585   9.978   7.228  2.3583 -0.2059 -1.4744
18980SOL    HW261626   9.638   9.966   7.370  0.7940 -1.2050 -0.9544
18981SOL     OW61627   2.683   0.854   4.970 -0.4811 -0.1648 -0.1892
18981SOL    HW161628   2.595   0.875   4.937 -0.4417 -1.1242 -0.9517
18981SOL    HW261629   2.667   0.808   5.053 -0.7833 -1.5669 -0.9953
18982SOL     OW61630   6.230   2.903   9.376  0.4968 -0.2592 -0.3997
18982SOL    HW161631   6.216   2.984   9.425 -2.9745 -0.6328 -0.4987
18982SOL    HW261632   6.284   2.849   9.433  1.5646  1.4986  0.3348
18983SOL     OW61633   2.898   1.507   8.471  0.1055 -0.5595  0.2558
18983SOL    HW161634   2.933   1.426   8.435 -1.8268 -1.5433  0.4444
18983SOL    HW261635   2.874   1.560   8.395 -0.7449 -1.1641  0.0865
18984SOL     OW61636   9.839   1.434   9.589 -0.0052  0.3443 -0.0539
18984SOL    HW161637   9.927   1.450   9.556  0.4422 -1.5841  0.1231
18984SOL    HW261638   9.841   1.345   9.622 -1.2950  1.1439  2.4180
18985SOL     OW61639   0.508   6.830   9.655 -0.0758  0.5836  0.8404
18985SOL    HW161640   0.437   6.892   9.640 -0.8296 -0.1901  1.1196
18985SOL    HW261641   0.468   6.744   9.638  0.3976  0.0403  2.3793
18986SOL     OW61642   8.623   8.788  10.293  0.0803  0.0144 -0.0125
18986SOL    HW161643   8.672   8.748  10.221 -0.7351 -0.4476 -0.3261
18986SOL    HW261644   8.532   8.775  10.270 -0.1997 -0.1787  1.1319
18987SOL     OW61645   5.556   3.464   1.991  0.1653 -0.5077  0.1185
18987SOL    HW161646   5.580   3.460   2.083  1.5545 -1.2847 -0.2530
18987SOL    HW261647   5.584   3.380   1.955 -0.9724 -0.4899 -0.8860
18988SOL     OW61648   4.452   2.087  11.606  0.4433  0.5735  0.1075
18988SOL    HW161649   4.447   2.133  11.690 -1.6211 -0.7972  0.8245
18988SOL    HW261650   4.523   2.024  11.617 -1.2245 -1.1718  1.7833
18989SOL     OW61651   7.210   8.638   8.069  0.4712 -0.3659 -0.2363
18989SOL    HW161652   7.299   8.643   8.033  1.1233 -2.5741  0.8476
18989SOL    HW261653   7.220   8.665   8.160 -0.0806 -0.0811 -0.2621
18990SOL     OW61654  11.115   6.918   1.191  0.2418 -0.2912  0.5856
18990SOL    HW161655  11.033   6.885   1.153  0.3388 -0.7457  0.7632
18990SOL    HW261656  11.137   6.854   1.259  0.6209 -0.0428  0.6983
18991SOL     OW61657   1.596   8.813   1.038 -0.7525 -0.1486  0.2605
18991SOL    HW161658   1.662   8.879   1.017 -1.7137  0.3955 -1.2085
18991SOL    HW261659   1.630   8.768   1.115  0.6886  0.9947  0.3209
18992SOL     OW61660   7.735   3.547   5.700  0.1480 -0.1077  0.3613
18992SOL    HW161661   7.803   3.607   5.730  0.2983  0.5524 -1.2083
18992SOL    HW261662   7.694   3.592   5.626 -0.3794 -1.5409 -0.2535
18993SOL     OW61663   9.528   9.902   7.078  0.3652  0.2264 -0.2405
18993SOL    HW161664   9.534   9.918   6.984 -0.1338  0.7374 -0.1923
18993SOL    HW261665   9.519   9.807   7.086  1.7292  0.0353 -0.6319
18994SOL     OW61666  11.475   8.590   4.397  0.5864  0.1463 -0.5082
18994SOL    HW161667  11.527   8.538   4.459  0.4577  0.7458  0.1130
18994SOL    HW261668  11.494   8.551   4.312 -0.0366 -1.3738  0.0042
18995SOL     OW61669   9.470   9.735   2.356  0.0552  0.0414  0.1202
18995SOL    HW161670   9.409   9.766   2.290 -1.3395 -0.8632  0.9352
18995SOL    HW261671   9.552   9.780   2.336 -0.8209  1.1625 -1.1059
18996SOL     OW61672   9.351   2.158   4.481 -0.5489 -0.2618 -0.0880
18996SOL    HW161673   9.352   2.062   4.472 -1.0301 -0.5269  2.0998
18996SOL    HW261674   9.261   2.179   4.505 -0.2926  0.6662  0.1073
18997SOL     OW61675   4.273   8.039   1.765 -0.3558 -0.2479  0.5219
18997SOL    HW161676   4.282   8.125   1.723 -3.9744 -0.2517 -0.5650
18997SOL    HW261677   4.288   8.057   1.858  2.2090  0.8262  0.0150
18998SOL     OW61678   2.472   0.826   2.719 -0.0785  0.0720 -0.6309
18998SOL    HW161679   2.472   0.738   2.681  1.1653  0.1263 -0.7973
18998SOL    HW261680   2.560   0.837   2.755 -1.2481 -0.0678  2.5436
18999SOL     OW61681  10.384   0.127  10.151 -0.2998  0.2246  0.3621
18999SOL    HW161682  10.452   0.068  10.184 -1.9507 -1.5340  0.7967
18999SOL    HW261683  10.413   0.151  10.063  0.3781 -1.3623  0.1246
19000SOL     OW61684   2.259   4.303   7.633  0.1374  0.2157 -0.0502
19000SOL    HW161685   2.165   4.284   7.626  0.2602 -0.7160  0.6235
19000SOL    HW261686   2.263   4.399   7.640 -0.8456  0.2063  1.0064
19001SOL     OW61687   3.463   6.988  11.322 -0.2406  0.7523  0.0986
19001SOL    HW161688   3.477   6.906  11.369  1.0442  0.8898 -0.0226
19001SOL    HW261689   3.418   6.962  11.242  1.6466 -0.0847 -0.7442
19002SOL     OW61690  10.220   0.194   2.192 -0.2251  0.6170 -0.3060
19002SOL    HW161691  10.244   0.208   2.100 -1.0590 -0.0038 -0.6274
19002SOL    HW261692  10.288   0.136   2.226  0.7845  1.8230 -0.1724
19003SOL     OW61693   8.399   7.527  10.056 -0.0354 -0.0665 -0.3631
19003SOL    HW161694   8.344   7.451  10.070 -1.3507  0.9295  0.0852
19003SOL    HW261695   8.447   7.539  10.138  0.7387 -0.8148 -0.6871
19004SOL     OW61696   7.814   3.049   8.066  0.1185  0.3342 -0.2089
19004SOL    HW161697   7.877   2.984   8.098 -0.2869  0.3833  0.7118
19004SOL    HW261698   7.765   3.075   8.144 -0.1656  1.2639 -0.6901
19005SOL     OW61699   7.577   3.618   1.172 -0.5438 -0.0971  0.2015
19005SOL    HW161700   7.521   3.688   1.138  0.1699  1.0823  1.3685
19005SOL    HW261701   7.536   3.593   1.255 -0.6180 -0.8654 -0.0566
19006SOL     OW61702   8.245   6.241  11.963 -0.0582  0.0059 -0.3719
19006SOL    HW161703   8.333   6.275  11.948 -0.4406  1.0192 -0.3852
19006SOL    HW261704   8.240   6.162  11.909  1.2808 -0.8030  0.6334
19007SOL     OW61705   4.672  10.292   8.072  0.9406  0.2952 -0.5074
19007SOL    HW161706   4.715  10.374   8.098  1.3033 -0.4157  1.2902
19007SOL    HW261707   4.741  10.243   8.027  0.8869  0.7282 -1.0737
19008SOL     OW61708   0.206   7.301   2.949  0.7987  0.0564 -0.2058
19008SOL    HW161709   0.119   7.339   2.937  0.6911 -0.5630 -1.5335
19008SOL    HW261710   0.190   7.212   2.980  0.9014 -0.4502 -1.5503
19009SOL     OW61711   7.597  10.198   0.056  0.7704  0.2871  0.2598
19009SOL    HW161712   7.539  10.174  -0.017  1.8753  1.9016 -1.2396
19009SOL    HW261713   7.538  10.217   0.128 -0.3540 -1.7294 -0.0384
19010SOL     OW61714   5.936  11.989  10.336 -0.2043  0.1238 -0.4127
19010SOL    HW161715   5.853  11.946  10.319 -0.6406  1.4544 -1.9158
19010SOL    HW261716   5.968  12.014  10.249  1.3777  0.3374  0.2000
19011SOL     OW61717  10.609   4.210   8.272  0.2916  0.2766 -0.4809
19011SOL    HW161718  10.698   4.205   8.306  0.3616 -1.0459 -0.7732
19011SOL    HW261719  10.553   4.203   8.350  0.4533 -2.4883 -0.5086
19012SOL     OW61720   4.769   1.215   3.844 -0.3937 -0.1274  0.5827
19012SOL    HW161721   4.723   1.165   3.911 -1.5417 -2.5345 -1.7980
19012SOL    HW261722   4.701   1.267   3.801 -0.0448 -0.1151  0.0306
19013SOL     OW61723   7.177   1.405   7.440 -0.2177  0.3481 -0.4419
19013SOL    HW161724   7.245   1.416   7.373  0.3830  0.8096  0.2317
19013SOL    HW261725   7.129   1.487   7.439 -0.9454 -0.0681 -1.0898
19014SOL     OW61726   0.445   9.661   1.072  0.5994  0.0958 -0.0815
19014SOL    HW161727   0.501   9.737   1.058 -1.4283  2.0026  1.2994
19014SOL    HW261728   0.394   9.653   0.992 -0.7701  1.7384  0.5491
19015SOL     OW61729  10.525   6.198   8.052 -0.3897  0.3887 -0.3174
19015SOL    HW161730  10.566   6.136   8.113 -2.0314 -2.0686 -1.5540
19015SOL    HW261731  10.441   6.219   8.091 -0.0633  1.4643 -0.1661
19016SOL     OW61732   2.745  10.905   0.076 -0.2267 -0.2823  0.6806
19016SOL    HW161733   2.716  10.986   0.117 -1.2468 -0.6641  0.7335
19016SOL    HW261734   2.675  10.842   0.093 -0.4225 -0.6124 -1.1460
19017SOL     OW61735   9.898   2.862   3.236  0.0472  0.6131  0.5082
19017SOL    HW161736   9.832   2.900   3.295 -2.0750 -0.1471 -1.2422
19017SOL    HW261737   9.936   2.938   3.191 -1.4323  0.9754 -0.2061
19018SOL     OW61738   6.120  10.747  10.505 -0.3076 -0.3954 -0.0781
19018SOL    HW161739   6.037  10.793  10.495 -1.2587 -1.7867  0.9749
19018SOL    HW261740   6.157  10.745  10.417  1.0071  4.3434  0.0633
19019SOL     OW61741  11.600   3.361   3.785  0.0141  0.4103  0.2187
19019SOL    HW161742  11.515   3.358   3.828 -1.1685 -0.1914 -1.9732
19019SOL    HW261743  11.664   3.364   3.856 -1.7691 -0.8874  1.9805
19020SOL     OW61744   7.650   9.716   6.675  0.2988 -0.7816  0.0391
19020SOL    HW161745   7.744   9.703   6.692  0.3530 -2.8889 -1.3740
19020SOL    HW261746   7.646   9.737   6.582 -0.6028 -0.0039  0.2456
19021SOL     OW61747   3.283   3.962   9.531  0.0171 -0.0020 -0.3852
19021SOL    HW161748   3.346   4.035   9.532 -0.2051  0.1903  0.6162
19021SOL    HW261749   3.306   3.910   9.608  0.1219 -0.9620 -1.0561
19022SOL     OW61750   3.614   9.017   4.889  0.2518 -0.1530  0.0511
19022SOL    HW161751   3.526   9.054   4.883 -0.1032 -0.6961  1.4078
19022SOL    HW261752   3.662   9.056   4.816 -1.1337  0.0761 -0.7814
19023SOL     OW61753   6.899   1.419   0.208  0.2319  0.6387 -0.1451
19023SOL    HW161754   6.920   1.492   0.150 -1.2138  1.3445  0.1608
19023SOL    HW261755   6.833   1.454   0.267  0.3378 -0.6021  0.7500
19024SOL     OW61756   1.204  10.969   0.858  0.0583 -0.0262  0.0097
19024SOL    HW161757   1.188  10.923   0.941  0.8443  0.1985  0.2948
19024SOL    HW261758   1.267  10.914   0.811  0.3411  0.3186 -0.0226
19025SOL     OW61759  11.664   4.992   0.185 -0.3439  0.2844 -0.4685
19025SOL    HW161760  11.704   4.938   0.254 -0.3989  1.0598  0.1828
19025SOL    HW261761  11.715   5.072   0.185 -0.6204  0.4617 -1.0418
19026SOL     OW61762   5.240   7.132   0.170  0.6118 -0.4838  0.1740
19026SOL    HW161763   5.320   7.122   0.119  0.6102  1.5385 -0.3095
19026SOL    HW261764   5.267   7.123   0.261  1.0970 -1.3504 -0.0455
19027SOL     OW61765   1.864   1.323   6.237 -0.9375  0.2115 -0.1096
19027SOL    HW161766   1.855   1.245   6.293 -0.9934  0.2534 -0.0602
19027SOL    HW261767   1.941   1.368   6.271 -0.6850 -0.0125 -0.3692
19028SOL     OW61768   4.492   6.545  11.514 -0.2437  0.4877 -0.3662
19028SOL    HW161769   4.482   6.564  11.607  1.5113 -2.3330  0.4990
19028SOL    HW261770   4.539   6.620  11.479 -1.4359  1.8663  0.8457
19029SOL     OW61771  11.690   7.475  11.475 -0.3972  0.2321  0.1284
19029SOL    HW161772  11.650   7.430  11.401  2.0233 -0.8763 -0.5722
19029SOL    HW261773  11.631   7.549  11.493 -1.1407  0.4388 -2.7802
19030SOL     OW61774   1.997   3.489   2.268  0.1183 -0.8381  0.5105
19030SOL    HW161775   1.920   3.531   2.229  1.0185  0.6918  0.3287
19030SOL    HW261776   2.071   3.545   2.243  1.4402 -2.7417 -0.0628
19031SOL     OW61777   6.093   4.155   9.349 -0.0209 -0.2210 -0.3281
19031SOL    HW161778   6.087   4.251   9.357  0.5141 -0.2729  1.0304
19031SOL    HW261779   6.064   4.122   9.434  2.1428 -1.1404  0.1288
19032SOL     OW61780   3.534   0.205   3.342 -0.1686 -0.0584 -0.2396
19032SOL    HW161781   3.458   0.158   3.308 -0.0811  0.5225 -1.3103
19032SOL    HW261782   3.603   0.138   3.346 -0.1675 -0.1396 -1.3024
19033SOL     OW61783   9.010   4.722  10.468 -0.1251 -0.0684  0.0963
19033SOL    HW161784   8.970   4.718  10.381  0.9374 -0.3798 -0.3913
19033SOL    HW261785   9.070   4.797  10.463  1.0936 -1.0264  0.0508
19034SOL     OW61786   2.849   1.260  11.939 -0.5895  0.1057  0.6199
19034SOL    HW161787   2.893   1.316  12.003 -1.4153  0.2293  1.0902
19034SOL    HW261788   2.920   1.211  11.897 -0.0918 -0.7048  2.3262
19035SOL     OW61789  10.816   3.893   6.820  0.3786  0.1309  0.2048
19035SOL    HW161790  10.843   3.983   6.803  1.1762  0.1222  1.3339
19035SOL    HW261791  10.897   3.843   6.828 -0.0453 -0.6401 -0.0812
19036SOL     OW61792   4.953   8.498   2.962  0.1228 -0.5932  0.4572
19036SOL    HW161793   4.929   8.420   2.913 -1.5865 -0.4706  1.0139
19036SOL    HW261794   5.005   8.466   3.035  1.6573 -0.8997 -0.7187
19037SOL     OW61795   6.146   3.252   9.260 -0.3547  0.0685 -0.2992
19037SOL    HW161796   6.148   3.344   9.235  0.4997  0.2129  0.2580
19037SOL    HW261797   6.155   3.205   9.176  0.1218  0.5095 -0.5039
19038SOL     OW61798   0.444   0.789   3.411  0.6535  0.4136  0.2500
19038SOL    HW161799   0.442   0.798   3.316 -0.3086  0.9077  0.3094
19038SOL    HW261800   0.499   0.712   3.427  2.5494  1.5266 -0.6109
19039SOL     OW61801   8.724   0.600   1.250  0.0245 -0.1222 -0.0229
19039SOL    HW161802   8.812   0.639   1.251 -0.6602  1.4884  0.6082
19039SOL    HW261803   8.666   0.671   1.278 -1.4282 -1.2991  0.0679
19040SOL     OW61804   7.853   7.206   1.241 -0.2905 -0.0564  0.0945
19040SOL    HW161805   7.773   7.217   1.294 -0.4171  0.4435 -0.2008
19040SOL    HW261806   7.915   7.268   1.278  0.1899 -0.8960  0.7419
19041SOL     OW61807   7.872   3.184   7.454  0.2559  0.0468 -0.0142
19041SOL    HW161808   7.781   3.204   7.473  0.7274  1.5384  0.8931
19041SOL    HW261809   7.885   3.213   7.364  0.1748  1.1192  0.3146
19042SOL     OW61810   1.096   8.482   2.272  0.5688 -0.0171 -0.8083
19042SOL    HW161811   1.050   8.564   2.292  0.9345  0.3858 -1.5787
19042SOL    HW261812   1.049   8.446   2.197  1.2440  0.1898 -1.3425
19043SOL     OW61813   4.519  10.276   2.367 -0.2376 -0.0324 -0.1583
19043SOL    HW161814   4.552  10.361   2.397 -1.0941 -0.1242  1.0912
19043SOL    HW261815   4.555  10.266   2.278  2.5092  0.2010  0.8282
19044SOL     OW61816   5.652   3.694  10.860 -0.4000  0.2227 -0.5716
19044SOL    HW161817   5.715   3.631  10.824  0.0823  0.3136  0.1059
19044SOL    HW261818   5.652   3.766  10.798  0.7366  0.5625 -0.1915
19045SOL     OW61819   7.769   7.411   6.073  0.0782  0.5022  0.5741
19045SOL    HW161820   7.681   7.421   6.036  0.0511  0.7123  0.6956
19045SOL    HW261821   7.827   7.441   6.003  0.1983 -1.8571 -0.4313
19046SOL     OW61822   8.358   8.220   2.369  0.1767 -0.2677  0.6840
19046SOL    HW161823   8.420   8.267   2.313 -0.4779 -1.7629 -1.3889
19046SOL    HW261824   8.272   8.242   2.334 -0.5283  1.2458  3.1086
19047SOL     OW61825   7.563   0.403   1.031  0.0446  0.2424  0.9321
19047SOL    HW161826   7.476   0.367   1.051 -0.1005  0.2258  0.2956
19047SOL    HW261827   7.553   0.442   0.945  0.9459 -0.6982  0.3717
19048SOL     OW61828   9.695  11.859   9.715  0.1600  0.7046  0.0322
19048SOL    HW161829   9.742  11.901   9.786  2.2798 -1.6541  0.1552
19048SOL    HW261830   9.640  11.793   9.758  1.0440 -0.3639 -0.4266
19049SOL     OW61831   8.291  11.973   0.898  0.5703 -0.4974  0.2533
19049SOL    HW161832   8.347  11.949   0.971  1.6020  0.5561 -0.1737
19049SOL    HW261833   8.299  12.068   0.890 -1.1260 -0.3342  0.0492
19050SOL     OW61834   0.468   6.769   4.449 -0.2751 -0.2825  0.0275
19050SOL    HW161835   0.525   6.817   4.388 -0.3088  0.7682  0.7987
19050SOL    HW261836   0.406   6.724   4.392  1.7964 -2.1549 -0.8912
19051SOL     OW61837   3.021   5.945   0.417  0.3653 -0.1734 -0.2283
19051SOL    HW161838   2.987   5.969   0.331  1.0828  0.1833 -0.4238
19051SOL    HW261839   3.058   5.858   0.405 -2.2489 -1.4954  0.4838
19052SOL     OW61840   2.637  10.632   8.576 -0.1222  0.2274 -0.1393
19052SOL    HW161841   2.575  10.682   8.628 -0.5416  0.8317 -1.1913
19052SOL    HW261842   2.613  10.540   8.591 -0.0516  0.3725  0.9250
19053SOL     OW61843   4.806   4.094   2.523 -0.7883  0.1088 -0.0452
19053SOL    HW161844   4.883   4.146   2.499 -1.5265  1.0722 -0.4373
19053SOL    HW261845   4.739   4.160   2.544 -1.1708 -0.7025  1.4294
19054SOL     OW61846   5.283   9.570   7.432 -0.0817  0.2648 -0.2584
19054SOL    HW161847   5.234   9.555   7.351  0.6786  2.1735 -1.1142
19054SOL    HW261848   5.374   9.555   7.409  0.2456  1.7441 -0.0602
19055SOL     OW61849   3.910   9.946   1.305  0.1440 -0.4060 -0.0755
19055SOL    HW161850   3.952   9.879   1.252  1.6395  1.0369 -0.8037
19055SOL    HW261851   3.870  10.005   1.242 -1.4632 -0.7515  0.5643
19056SOL     OW61852   6.438  11.678   3.723  0.6178  0.1845 -0.2744
19056SOL    HW161853   6.416  11.764   3.761 -0.1138  0.0746 -0.4318
19056SOL    HW261854   6.489  11.634   3.791 -2.2898 -0.7741  1.4819
19057SOL     OW61855   7.046  10.395   6.430 -0.0903  0.1538 -0.1084
19057SOL    HW161856   6.997  10.397   6.348  2.5150 -0.1269 -1.7848
19057SOL    HW261857   7.068  10.303   6.444 -1.3396  0.0467  1.5123
19058SOL     OW61858   1.180   1.705   2.554  0.0407 -0.6340 -0.0654
19058SOL    HW161859   1.241   1.632   2.543  0.5907 -0.1957  0.0500
19058SOL    HW261860   1.189   1.755   2.473  0.4623 -0.1055  0.3010
19059SOL     OW61861   3.788   0.270   8.596 -0.1132  0.1610  0.2652
19059SOL    HW161862   3.696   0.290   8.615 -0.1226  0.6224 -0.2282
19059SOL    HW261863   3.806   0.316   8.514  0.5297 -0.0130  0.3008
19060SOL     OW61864   7.081   1.293   5.130  0.0705  0.0955  0.2834
19060SOL    HW161865   7.166   1.261   5.100  0.6868  0.8875  1.1244
19060SOL    HW261866   7.066   1.247   5.212  0.1215  0.6266  0.5947
19061SOL     OW61867   9.908   1.549   0.032 -0.3035 -0.2366  0.0181
19061SOL    HW161868   9.991   1.517   0.066 -0.5141 -0.7317  0.0683
19061SOL    HW261869   9.912   1.531  -0.062 -0.9383 -1.5847  0.2286
19062SOL     OW61870  10.241   0.953   0.173 -0.3782  0.0896  0.3269
19062SOL    HW161871  10.186   1.031   0.166 -0.4442 -0.0473 -1.1195
19062SOL    HW261872  10.194   0.886   0.123 -0.2908 -0.8705  1.4914
19063SOL     OW61873   3.517  11.269   0.455  0.2572  0.0168  0.3782
19063SOL    HW161874   3.438  11.244   0.407  0.4118 -0.9606  0.6248
19063SOL    HW261875   3.565  11.325   0.393 -2.1526  3.5387  1.3121
19064SOL     OW61876  10.132  11.388   0.397  0.4569  0.2820  0.6510
19064SOL    HW161877  10.057  11.406   0.453 -0.2382  1.0467 -0.4739
19064SOL    HW261878  10.169  11.474   0.377 -0.0666  0.1482 -1.0427
19065SOL     OW61879  10.017   4.872   6.944  0.0597 -0.2145  0.2747
19065SOL    HW161880  10.087   4.849   7.006  0.8023  0.8037 -0.1568
19065SOL    HW261881  10.052   4.946   6.895 -0.8417 -0.4838 -0.8190
19066SOL     OW61882   1.269   5.512   4.518 -0.2503  0.4144 -0.1489
19066SOL    HW161883   1.330   5.579   4.548 -0.6569  0.4018  0.7270
19066SOL    HW261884   1.317   5.465   4.449  0.4055  0.9479 -0.0637
19067SOL     OW61885  10.209   0.198   8.443 -0.1737 -0.2174  0.0130
19067SOL    HW161886  10.222   0.276   8.390  1.2414 -0.9630 -0.7875
19067SOL    HW261887  10.223   0.229   8.533 -1.5832  0.8370 -0.0956
19068SOL     OW61888   3.452  10.401   8.900 -0.4099  0.4468  0.2287
19068SOL    HW161889   3.479  10.403   8.992 -1.0923 -0.0710  0.4520
19068SOL    HW261890   3.385  10.333   8.897 -0.1484  0.2230 -0.7264
19069SOL     OW61891   5.848   2.637  11.743 -0.0032  0.5888  0.1121
19069SOL    HW161892   5.881   2.632  11.832 -1.5751  1.9902  0.8172
19069SOL    HW261893   5.848   2.546  11.712  1.1252  0.1611  1.2997
19070SOL     OW61894  11.548   6.531   8.135  0.3361  0.1591 -0.0001
19070SOL    HW161895  11.473   6.529   8.076  0.6816 -0.5276 -0.4281
19070SOL    HW261896  11.522   6.591   8.205 -0.2900  0.5565 -0.5640
19071SOL     OW61897   1.183   9.217   7.266 -0.4651  0.0485 -0.2655
19071SOL    HW161898   1.129   9.189   7.339  1.2310  0.6933  1.3078
19071SOL    HW261899   1.131   9.282   7.220 -1.4504 -0.1735  0.5080
19072SOL     OW61900   6.036   9.870  11.671 -0.3439  0.0235 -0.2661
19072SOL    HW161901   6.099   9.799  11.679 -1.6337 -1.0448  0.9023
19072SOL    HW261902   6.087   9.944  11.637  1.7031 -0.5130  1.4570
19073SOL     OW61903   2.588   8.006   2.214 -0.3694  0.1123  0.2852
19073SOL    HW161904   2.599   7.995   2.120  1.1273  0.4977  0.3884
19073SOL    HW261905   2.623   8.093   2.233 -0.3123 -0.1040  1.2432
19074SOL     OW61906   5.151   5.259   3.623 -0.1709  0.0242  0.3658
19074SOL    HW161907   5.160   5.354   3.621  1.0986 -0.0831 -0.1162
19074SOL    HW261908   5.084   5.242   3.689 -0.7113  1.2660  0.1589
19075SOL     OW61909   0.989   7.444   2.622  0.5053  0.3782 -0.1423
19075SOL    HW161910   0.982   7.359   2.667 -2.0495  0.7454  0.3416
19075SOL    HW261911   0.952   7.427   2.535  0.2223  0.9129 -0.1305
19076SOL     OW61912   8.619   0.745   2.369  0.1683  0.1430 -1.0273
19076SOL    HW161913   8.692   0.755   2.308 -0.0217 -0.0457 -1.2849
19076SOL    HW261914   8.597   0.652   2.366  0.0511  0.1624 -0.7927
19077SOL     OW61915   0.100   9.423   1.787  0.1413 -0.4035 -0.6072
19077SOL    HW161916   0.052   9.506   1.786 -0.8136 -0.9323 -0.3241
19077SOL    HW261917   0.107   9.398   1.695  2.3443  1.0187 -0.9080
19078SOL     OW61918   4.223   5.638  11.133  0.3904 -0.5862  0.0978
19078SOL    HW161919   4.317   5.619  11.128  0.7550  1.0703  0.0669
19078SOL    HW261920   4.185   5.559  11.171  1.7996 -1.2797  0.1389
19079SOL     OW61921   7.315   0.929   7.042  0.2751  0.3327 -0.4636
19079SOL    HW161922   7.343   0.979   7.118 -0.2300 -2.1144  1.4468
19079SOL    HW261923   7.396   0.904   6.998  0.6940  0.0379  0.4619
19080SOL     OW61924  11.675   5.789   3.955 -0.3618  0.2623 -0.5939
19080SOL    HW161925  11.705   5.767   4.043 -2.3830  1.8438  0.5872
19080SOL    HW261926  11.600   5.732   3.940 -0.4997  0.5304 -0.9415
19081SOL     OW61927   7.867   0.968   2.201 -0.3620 -0.3567  0.8997
19081SOL    HW161928   7.884   0.956   2.294 -0.8185  0.6181  1.1309
19081SOL    HW261929   7.791   1.026   2.198 -0.3564 -0.3751 -0.0797
19082SOL     OW61930  11.692   1.113   0.894 -0.0584  0.0677  0.1483
19082SOL    HW161931  11.750   1.078   0.826 -0.2714 -0.1518  0.0776
19082SOL    HW261932  11.622   1.049   0.900 -0.7262  0.7391 -0.3377
19083SOL     OW61933   4.971   3.546   2.331 -0.3530  0.1678  0.1502
19083SOL    HW161934   4.904   3.575   2.269 -1.8898 -1.4546  0.9775
19083SOL    HW261935   4.926   3.485   2.389  2.2029 -2.3590 -0.2858
19084SOL     OW61936  10.293   1.900   7.108  0.4813 -0.2641  0.0469
19084SOL    HW161937  10.380   1.918   7.144  0.1924 -0.9444  1.0929
19084SOL    HW261938  10.310   1.881   7.016  1.5861 -1.5672  0.4912
19085SOL     OW61939   6.225  10.980  11.212 -0.4915 -0.3569 -0.1876
19085SOL    HW161940   6.232  10.911  11.146  0.3067  0.1371 -0.6385
19085SOL    HW261941   6.148  11.030  11.185 -0.8300 -0.8205 -0.0951
19086SOL     OW61942  11.839   4.330   1.186  0.4744 -0.3842  0.5690
19086SOL    HW161943  11.856   4.250   1.138  3.0764 -0.0483  0.8022
19086SOL    HW261944  11.795   4.388   1.123 -0.0237 -1.4139 -0.0498
19087SOL     OW61945   5.878   4.457   5.398  0.0525 -0.0991 -0.2523
19087SOL    HW161946   5.843   4.495   5.318 -0.2406 -1.7131 -0.9244
19087SOL    HW261947   5.967   4.491   5.404  0.2189 -0.2806 -1.4900
19088SOL     OW61948   8.763   5.110   2.335  0.1716  0.5381 -0.4941
19088SOL    HW161949   8.845   5.114   2.286  0.6217  0.9056  0.2870
19088SOL    HW261950   8.714   5.038   2.293  1.9692 -1.5077  0.6880
19089SOL     OW61951   0.726   7.799   6.161  0.0032 -0.2182  0.1842
19089SOL    HW161952   0.659   7.817   6.095 -0.5985 -2.1328  0.2102
19089SOL    HW261953   0.783   7.876   6.160 -0.0560 -0.1325 -2.4827
19090SOL     OW61954   5.277  10.717  11.051 -0.4187 -0.4804 -0.0289
19090SOL    HW161955   5.328  10.786  11.010 -0.4365 -0.1271  0.5316
19090SOL    HW261956   5.314  10.636  11.016  0.8286 -0.2444  0.6840
19091SOL     OW61957   0.234   7.151   8.180  0.5836 -0.3951  0.3078
19091SOL    HW161958   0.187   7.150   8.096 -0.2894  1.7295  0.7052
19091SOL    HW261959   0.326   7.165   8.156  0.4293 -0.4553 -0.3325
19092SOL     OW61960   5.008   5.639   0.612 -0.3068  0.0440 -0.3460
19092SOL    HW161961   4.941   5.594   0.560 -0.6893 -0.7136  0.7751
19092SOL    HW261962   5.069   5.673   0.547 -1.1827 -0.2084 -1.3354
19093SOL     OW61963  10.090  10.819   2.387  0.4581  0.6323  0.1035
19093SOL    HW161964  10.048  10.865   2.314  0.0879 -1.4359 -1.0801
19093SOL    HW261965  10.018  10.789   2.442  0.6444  0.7694  0.4248
19094SOL     OW61966  11.464   1.111   4.336  0.1019  0.6317 -0.4866
19094SOL    HW161967  11.552   1.103   4.299  0.9371  0.4797  1.3774
19094SOL    HW261968  11.444   1.205   4.332  0.2893  0.6489 -1.0434
19095SOL     OW61969   0.443   1.346   8.089  0.9042  0.4909  0.0638
19095SOL    HW161970   0.399   1.424   8.055  0.0657  0.0611  0.1384
19095SOL    HW261971   0.518   1.333   8.031 -0.8276 -0.6102 -2.0942
19096SOL     OW61972   1.377   8.244  11.675 -0.2013  0.4229 -0.0852
19096SOL    HW161973   1.309   8.176  11.673 -0.5204  0.7361  0.1099
19096SOL    HW261974   1.412   8.244  11.586  0.4494 -0.6435  0.1522
19097SOL     OW61975  11.560   8.251   9.779  0.5134  0.8094  0.0056
19097SOL    HW161976  11.643   8.293   9.755 -0.0221  1.0528 -1.4863
19097SOL    HW261977  11.494   8.296   9.727 -0.3514 -0.4976 -0.0716
19098SOL     OW61978   7.627   1.101   2.257 -0.5172  0.0809  0.2324
19098SOL    HW161979   7.571   1.054   2.319 -0.5050  1.7668  1.5839
19098SOL    HW261980   7.627   1.191   2.287  4.2542 -0.0239  1.3660
19099SOL     OW61981   2.194   2.317   8.239 -0.3577 -0.2940 -0.1708
19099SOL    HW161982   2.187   2.317   8.335  0.7425 -3.2551  0.0389
19099SOL    HW261983   2.288   2.323   8.222 -0.5651  0.4733 -1.0918
19100SOL     OW61984   8.685   1.611   3.796  0.2362  0.2921 -0.0603
19100SOL    HW161985   8.592   1.636   3.800  0.5347  1.2902  1.3033
19100SOL    HW261986   8.726   1.661   3.866  1.5662 -1.2402  0.3087
19101SOL     OW61987   8.091   0.402  10.564 -0.2237  0.2187  0.3437
19101SOL    HW161988   8.127   0.363  10.485 -2.5009 -0.6549 -0.3454
19101SOL    HW261989   8.044   0.480  10.533 -3.2613 -1.4660  0.3371
19102SOL     OW61990   9.374   0.573   5.051 -0.0071  0.2846  0.2373
19102SOL    HW161991   9.429   0.558   4.975  2.2570 -2.9490  2.2488
19102SOL    HW261992   9.302   0.510   5.040  0.3077 -0.1664  0.7028
19103SOL     OW61993   6.093   7.629   5.038 -0.1219 -0.0431 -0.5152
19103SOL    HW161994   6.187   7.615   5.022 -0.0059  0.5647 -0.4039
19103SOL    HW261995   6.050   7.572   4.974  0.3059 -1.0289  0.0488
19104SOL     OW61996   6.325   5.853  10.787  0.5027 -0.6144 -0.1601
19104SOL    HW161997   6.320   5.945  10.762  0.3762 -0.3281  0.8901
19104SOL    HW261998   6.314   5.853  10.882  0.4170 -1.7211 -0.1575
19105SOL     OW61999   5.598   2.297  11.345 -0.1248  0.0454  0.3383
19105SOL    HW162000   5.594   2.392  11.334  1.4404  0.1525  0.5075
19105SOL    HW262001   5.573   2.262  11.259 -0.6795  0.6124  0.2678
19106SOL     OW62002   5.734   0.286   4.575  0.6030  0.4239 -0.2063
19106SOL    HW162003   5.662   0.349   4.585  0.6948  0.8014 -1.7538
19106SOL    HW262004   5.712   0.216   4.636  0.0957  1.5737  0.9981
19107SOL     OW62005   6.828   3.708   5.839  0.5579  0.9508  0.0188
19107SOL    HW162006   6.770   3.750   5.776 -0.9553 -0.4275  0.4376
19107SOL    HW262007   6.895   3.774   5.857  0.1516  1.9436 -1.8145
19108SOL     OW62008   2.831   9.013   6.894  0.7080 -0.3209  0.0906
19108SOL    HW162009   2.859   9.047   6.978  0.3323  0.7315 -0.2038
19108SOL    HW262010   2.819   9.090   6.838 -2.1160 -0.7268 -0.0011
19109SOL     OW62011   9.525   9.425   2.303  0.6389  0.1867  0.3967
19109SOL    HW162012   9.575   9.372   2.365  1.7155  1.2203  0.4507
19109SOL    HW262013   9.536   9.515   2.334 -1.4874  0.4469  0.5553
19110SOL     OW62014   0.079   4.031  11.534 -0.1929 -0.0863  0.3359
19110SOL    HW162015   0.078   4.126  11.546 -0.6683 -0.1449  0.7725
19110SOL    HW262016   0.006   3.999  11.587 -0.3845 -0.6474 -0.2557
19111SOL     OW62017  10.527   9.551   1.394  0.1710  0.2251  0.0278
19111SOL    HW162018  10.620   9.559   1.374  0.3087  0.9677  0.8667
19111SOL    HW262019  10.524   9.537   1.489 -0.5771  0.2618  0.0200
19112SOL     OW62020   0.499   7.855   0.739  0.2578  0.2076  0.4233
19112SOL    HW162021   0.453   7.913   0.678 -0.1957  1.5290  1.9543
19112SOL    HW262022   0.591   7.863   0.714  0.0544  0.4854 -0.2757
19113SOL     OW62023   1.026   8.701  11.368 -0.3360  0.1553  0.2945
19113SOL    HW162024   0.936   8.711  11.398 -0.7302  0.0571 -0.8143
19113SOL    HW262025   1.048   8.610  11.386 -0.7352 -0.0318 -0.1358
19114SOL     OW62026   0.163   3.582   7.800  0.0938  0.2818  0.2836
19114SOL    HW162027   0.122   3.645   7.741  0.4729  0.4178  0.1658
19114SOL    HW262028   0.146   3.496   7.759  0.0296  0.3455  0.1761
19115SOL     OW62029   4.092   4.376   0.652  0.8344  0.0624  0.1453
19115SOL    HW162030   4.164   4.314   0.645  1.7583  1.2632 -1.6618
19115SOL    HW262031   4.131   4.454   0.691  0.7868  1.0582 -1.7173
19116SOL     OW62032   6.037   6.437   0.521  0.1383 -0.0066  0.2805
19116SOL    HW162033   6.063   6.392   0.440  2.9454 -0.2433  1.1918
19116SOL    HW262034   6.106   6.502   0.535 -0.7514  0.6104  2.0521
19117SOL     OW62035   1.327   4.852  10.885 -0.3926 -0.1172 -0.1284
19117SOL    HW162036   1.241   4.808  10.884  0.0446 -1.1990  2.2390
19117SOL    HW262037   1.379   4.805  10.820 -0.3194 -2.4330  1.4937
19118SOL     OW62038   9.729   8.844  11.637 -0.2913  0.0797  0.1753
19118SOL    HW162039   9.710   8.909  11.705 -0.9261  0.1534 -0.0580
19118SOL    HW262040   9.824   8.843  11.629 -0.1840 -0.1771  1.3043
19119SOL     OW62041   4.857   1.260   2.405  0.2757 -0.3233 -0.2765
19119SOL    HW162042   4.935   1.280   2.457 -0.8709  1.4072  0.9061
19119SOL    HW262043   4.817   1.346   2.388 -1.2267 -1.1401 -1.0868
19120SOL     OW62044   9.383   4.722   9.426 -0.3168 -0.3318 -0.0138
19120SOL    HW162045   9.439   4.784   9.380 -0.6727  0.4830  0.6426
19120SOL    HW262046   9.441   4.650   9.450  0.2391  0.0643 -0.1691
19121SOL     OW62047   7.181  10.346   8.955 -0.0408  0.4716  0.2598
19121SOL    HW162048   7.175  10.348   8.859  0.1426 -0.5948  0.2192
19121SOL    HW262049   7.269  10.378   8.974  0.2224 -0.1086  0.0287
19122SOL     OW62050   8.189   6.867   3.178  0.2777 -0.2527 -0.2830
19122SOL    HW162051   8.159   6.938   3.122  1.0904 -1.0966 -1.8671
19122SOL    HW262052   8.281   6.886   3.195  0.4829 -0.8468 -0.6571
19123SOL     OW62053   2.681   6.637   6.430  0.3138  0.0032  0.1222
19123SOL    HW162054   2.675   6.725   6.392 -1.1531  0.2076  0.7318
19123SOL    HW262055   2.590   6.608   6.437  0.8194 -2.6860 -2.5060
19124SOL     OW62056   8.649  11.415  10.199  0.4567 -0.1079  0.1281
19124SOL    HW162057   8.713  11.373  10.256  0.7123  0.9635  0.6667
19124SOL    HW262058   8.701  11.465  10.136  0.1905  1.2675  0.9520
19125SOL     OW62059   6.859   4.772   8.742  0.3908 -0.3490 -0.4883
19125SOL    HW162060   6.854   4.824   8.822 -0.8926 -1.6629  0.3259
19125SOL    HW262061   6.906   4.828   8.680 -0.1751  1.4092  0.6151
19126SOL     OW62062  11.208  11.024   3.778 -0.2979  0.3291 -0.0699
19126SOL    HW162063  11.182  11.089   3.844 -2.1886 -0.8871  0.4692
19126SOL    HW262064  11.135  10.962   3.775  1.5964 -2.0650 -0.2124
19127SOL     OW62065   2.220   1.348   4.696 -0.6767  0.1720 -0.4150
19127SOL    HW162066   2.237   1.417   4.632  1.9052  0.3831  0.3655
19127SOL    HW262067   2.305   1.307   4.710 -1.0611  0.2185  2.9500
19128SOL     OW62068   7.989   6.983   3.530 -0.6534 -0.0394 -0.1971
19128SOL    HW162069   8.082   6.992   3.511 -0.3138 -0.2851  1.2734
19128SOL    HW262070   7.946   7.023   3.454  0.6446  0.8379 -0.5122
19129SOL     OW62071   0.359   7.067   6.205 -0.7090 -0.3812 -0.2515
19129SOL    HW162072   0.342   7.139   6.266  0.0382  0.5157 -1.0670
19129SOL    HW262073   0.274   7.046   6.168 -0.9526  0.0077  0.0835
19130SOL     OW62074  11.275   7.606   5.091 -0.1867 -0.0715  0.0813
19130SOL    HW162075  11.214   7.533   5.099 -0.0777 -0.0084  1.7013
19130SOL    HW262076  11.220   7.684   5.090 -0.2409 -0.1131 -0.6057
19131SOL     OW62077  11.825   7.580   7.789 -0.0783 -0.5040  0.2486
19131SOL    HW162078  11.751   7.631   7.756  1.2040  0.7642 -0.7758
19131SOL    HW262079  11.868   7.638   7.852  0.4491 -0.9683  0.3227
19132SOL     OW62080   5.865  11.872   0.042 -0.1801  0.8943  0.2471
19132SOL    HW162081   5.896  11.955   0.008 -0.3344  0.9843  0.3227
19132SOL    HW262082   5.891  11.873   0.134  2.3188 -0.3498 -0.3635
19133SOL     OW62083   3.028   1.448   5.515  1.0577 -0.1843  0.1786
19133SOL    HW162084   2.986   1.449   5.601 -0.2517  1.3292 -0.4274
19133SOL    HW262085   3.001   1.365   5.476  0.4934 -0.2486  0.6870
19134SOL     OW62086   9.474   6.547   3.705  0.1125 -0.7652 -0.1745
19134SOL    HW162087   9.495   6.560   3.613 -0.5202  1.2435 -0.0777
19134SOL    HW262088   9.384   6.577   3.714  0.6549  0.5205  1.3789
19135SOL     OW62089   5.567   6.990   5.026  0.2011  0.5964 -0.3483
19135SOL    HW162090   5.504   6.992   5.099 -1.1453 -1.5846 -1.3425
19135SOL    HW262091   5.536   7.059   4.967 -0.1167  0.8157  0.0668
19136SOL     OW62092   1.108   9.055   2.204 -0.4049 -0.7316 -0.5860
19136SOL    HW162093   1.064   9.038   2.287 -2.1930 -0.3800 -1.4086
19136SOL    HW262094   1.073   8.988   2.144 -0.9904  0.4669 -1.6459
19137SOL     OW62095  11.880   2.970  10.733  0.0924 -0.5456 -0.1386
19137SOL    HW162096  11.938   2.938  10.665 -0.5254 -1.0274 -0.4517
19137SOL    HW262097  11.806   2.910  10.732 -0.5860  0.2662  0.0046
19138SOL     OW62098  10.445   0.234   3.404  0.1827 -0.2186 -0.3046
19138SOL    HW162099  10.458   0.208   3.313 -1.2509 -0.4846 -0.4479
19138SOL    HW262100  10.402   0.159   3.445  0.5753  0.0013  0.5323
19139SOL     OW62101   8.109  10.867   3.376  0.1610 -0.8156 -0.2164
19139SOL    HW162102   8.115  10.867   3.472 -0.6191 -2.1472 -0.1399
19139SOL    HW262103   8.070  10.951   3.354  0.1307 -0.5932  0.6541
19140SOL     OW62104   1.167   3.439   3.834 -0.1660 -0.3951 -0.4594
19140SOL    HW162105   1.158   3.523   3.880  0.2353  0.2242 -1.4743
19140SOL    HW262106   1.247   3.448   3.782 -1.3917 -0.4633 -2.4738
19141SOL     OW62107  11.358  11.425   7.149 -0.5732  0.4931 -0.1382
19141SOL    HW162108  11.441  11.378   7.161 -0.9387 -0.4669 -1.2087
19141SOL    HW262109  11.321  11.388   7.069 -0.8041  2.7614 -1.1551
19142SOL     OW62110   4.006   2.514   4.620  0.1175  0.4493  0.5905
19142SOL    HW162111   3.916   2.490   4.643  0.0846  1.1955  1.3173
19142SOL    HW262112   3.996   2.591   4.563  0.2978  1.2721  1.6261
19143SOL     OW62113   3.744   2.982   0.452  0.1628  0.2586  0.2441
19143SOL    HW162114   3.792   3.046   0.401 -1.4613 -0.2110 -2.0627
19143SOL    HW262115   3.743   2.903   0.397 -1.3295 -0.4185  1.1616
19144SOL     OW62116  10.795   2.804   2.300 -0.1816 -0.1034 -0.2229
19144SOL    HW162117  10.726   2.738   2.288  0.6880 -0.7130 -2.6393
19144SOL    HW262118  10.874   2.752   2.316  0.1099  0.4866  0.2725
19145SOL     OW62119   3.622   5.913   5.373  0.4920  0.4364 -0.5039
19145SOL    HW162120   3.583   5.924   5.460 -0.5773 -0.5439 -0.8361
19145SOL    HW262121   3.676   5.991   5.362 -0.6641  1.4035  0.3636
19146SOL     OW62122  10.655  10.428   6.553 -0.5422 -0.1784  0.2971
19146SOL    HW162123  10.570  10.444   6.514 -0.0216  0.8644 -0.4581
19146SOL    HW262124  10.714  10.415   6.479  0.3347  1.1500  0.7202
19147SOL     OW62125   9.395   9.717   6.695  0.0324  0.3738 -0.0941
19147SOL    HW162126   9.321   9.721   6.756 -0.0344 -0.2374 -0.1221
19147SOL    HW262127   9.366   9.766   6.618  0.0472  0.9959  0.2910
19148SOL     OW62128   4.256   1.076   9.055 -0.2946 -0.1378 -0.0605
19148SOL    HW162129   4.351   1.079   9.071 -0.1364 -0.8180 -0.8355
19148SOL    HW262130   4.238   0.985   9.031 -0.8395  0.3589 -1.6648
19149SOL     OW62131  10.468   4.771   5.537 -0.7361  0.2816 -0.2200
19149SOL    HW162132  10.377   4.800   5.531 -1.3308 -1.4949 -0.3150
19149SOL    HW262133  10.474   4.697   5.476  0.7925  0.3855 -0.2480
19150SOL     OW62134  10.375   6.094  10.524 -0.3737  0.2197  0.1382
19150SOL    HW162135  10.353   6.183  10.552  1.5468  0.3584  1.3674
19150SOL    HW262136  10.311   6.074  10.455  0.6366  3.4797 -1.9442
19151SOL     OW62137   5.201   9.787   1.050  0.2440  0.4920  0.2249
19151SOL    HW162138   5.140   9.765   0.980 -0.6718 -0.8910  1.4003
19151SOL    HW262139   5.200   9.883   1.053 -1.7143  0.5180  0.0268
19152SOL     OW62140   6.034   6.566   1.607 -0.2030 -0.2909  0.1925
19152SOL    HW162141   6.109   6.625   1.606  0.9555 -1.6986  0.2986
19152SOL    HW262142   6.069   6.484   1.642 -1.2665 -1.6405 -1.6943
19153SOL     OW62143   4.446   6.410  11.864 -0.6516  0.5172  0.0391
19153SOL    HW162144   4.470   6.416  11.957  0.5178  4.4954 -0.3713
19153SOL    HW262145   4.507   6.346  11.828 -0.3661 -0.2333  1.7443
19154SOL     OW62146   3.211   2.719   0.410  0.4013  0.1572  0.6540
19154SOL    HW162147   3.190   2.627   0.427 -0.2991  0.5123  1.8109
19154SOL    HW262148   3.198   2.729   0.316  1.9352 -1.2681  0.2365
19155SOL     OW62149   3.089   1.245   3.421 -0.6410 -0.2530 -0.2563
19155SOL    HW162150   3.045   1.325   3.450 -3.1366 -0.5004 -2.9442
19155SOL    HW262151   3.128   1.268   3.337  2.4453 -0.7795  0.8946
19156SOL     OW62152   1.801   2.715   7.834 -0.4934  0.2653  0.4402
19156SOL    HW162153   1.713   2.753   7.838 -0.4125  0.5016  0.0141
19156SOL    HW262154   1.787   2.628   7.795 -0.7059 -0.2451  1.6148
19157SOL     OW62155   8.106   5.327   5.858  0.2453 -0.0784 -0.3685
19157SOL    HW162156   8.135   5.272   5.785 -0.6912 -1.6490  0.3981
19157SOL    HW262157   8.152   5.292   5.934 -0.4406  0.1297  0.1505
19158SOL     OW62158   9.867   0.145   8.755  0.5907 -0.5102  0.2314
19158SOL    HW162159   9.783   0.145   8.709  0.8403  0.4574 -0.2562
19158SOL    HW262160   9.925   0.093   8.700  0.5656 -0.3558  0.0553
19159SOL     OW62161   0.944   9.019   8.195  0.0624  0.0893  0.1220
19159SOL    HW162162   0.947   9.090   8.132 -0.1612 -0.2795 -0.3060
19159SOL    HW262163   1.003   8.952   8.159 -0.8820 -0.5631 -0.2447
19160SOL     OW62164   2.732   9.633   0.310 -0.4614 -0.6294 -0.1845
19160SOL    HW162165   2.744   9.701   0.376 -1.3650 -0.7665  0.1258
19160SOL    HW262166   2.666   9.669   0.250  0.5066 -0.4095 -1.1579
19161SOL     OW62167  11.216   2.785   2.318 -0.5910  0.3466  0.6153
19161SOL    HW162168  11.220   2.865   2.265  0.0552 -0.6005 -0.8395
19161SOL    HW262169  11.169   2.723   2.263  0.4355 -0.7962  0.9934
19162SOL     OW62170  11.270   9.569   1.920 -0.0995 -0.3612  0.1156
19162SOL    HW162171  11.257   9.663   1.911 -0.3216 -0.5293 -1.6755
19162SOL    HW262172  11.312   9.558   2.005  0.2517  1.3846  0.1927
19163SOL     OW62173   0.705   4.861   9.489 -0.0668 -0.1442  0.2956
19163SOL    HW162174   0.755   4.864   9.408  2.3905  0.8987  1.7211
19163SOL    HW262175   0.699   4.767   9.510  0.7703 -0.3390 -0.2737
19164SOL     OW62176   9.477   5.205   6.457  0.0362  0.3141 -0.0150
19164SOL    HW162177   9.533   5.252   6.519  0.9789  0.4435 -0.9264
19164SOL    HW262178   9.494   5.113   6.473  1.1605  0.3625 -0.8341
19165SOL     OW62179   2.466  11.148   4.279  0.0578  0.1053 -0.1112
19165SOL    HW162180   2.505  11.061   4.276 -1.1102 -0.4451  0.1677
19165SOL    HW262181   2.372  11.132   4.284 -0.2018  1.3913 -0.5278
19166SOL     OW62182  10.528   1.691   8.098  0.1653 -0.2707 -0.2854
19166SOL    HW162183  10.448   1.672   8.147  0.4054  1.3227  0.8318
19166SOL    HW262184  10.586   1.616   8.115  0.2118  0.1859  1.8925
19167SOL     OW62185   9.398   4.378   9.140 -0.5236  0.2320 -0.1463
19167SOL    HW162186   9.372   4.287   9.158  2.0807 -0.5278  0.0990
19167SOL    HW262187   9.346   4.430   9.202  0.2535 -1.3935  2.0128
19168SOL     OW62188   7.083   3.688   3.718 -0.9098 -0.1568  0.3245
19168SOL    HW162189   7.044   3.601   3.713 -0.6435 -0.2889  0.5176
19168SOL    HW262190   7.148   3.681   3.788  0.4472 -0.3246 -0.9040
19169SOL     OW62191   6.461   2.741   0.903  0.3043 -0.0382 -0.0810
19169SOL    HW162192   6.414   2.674   0.855 -1.9775  0.5700  1.1633
19169SOL    HW262193   6.444   2.721   0.996 -0.7401  2.3556  0.3239
19170SOL     OW62194   9.332   4.399   6.936 -0.4906  0.4423  0.1590
19170SOL    HW162195   9.357   4.481   6.894  0.2724 -0.1445 -0.5817
19170SOL    HW262196   9.263   4.423   6.998  0.7429  1.8722  1.0468
19171SOL     OW62197   0.771   8.571   2.943 -0.1582 -0.0532 -0.2108
19171SOL    HW162198   0.853   8.580   2.992  1.1702  1.1632 -2.4859
19171SOL    HW262199   0.707   8.545   3.008  1.8064 -0.0034  1.8617
19172SOL     OW62200   3.297   1.175   9.310 -0.7159  0.3392  0.3273
19172SOL    HW162201   3.344   1.158   9.392  0.4943  0.8507 -0.2381
19172SOL    HW262202   3.262   1.264   9.321  3.0475  2.2612 -1.2392
19173SOL     OW62203   2.862   6.924  10.268  0.1321 -0.1232  0.0734
19173SOL    HW162204   2.860   6.830  10.285 -0.0697  0.0199  0.8726
19173SOL    HW262205   2.905   6.932  10.183 -3.9675 -1.2398 -2.3569
19174SOL     OW62206   0.044   7.144   5.804 -0.5297 -0.5855  0.2938
19174SOL    HW162207   0.092   7.070   5.842  0.6282  0.5552  1.1586
19174SOL    HW262208   0.072   7.147   5.713 -1.7608 -2.1043 -0.1849
19175SOL     OW62209   6.896   9.587   6.194 -0.0250 -0.4113 -0.5053
19175SOL    HW162210   6.886   9.682   6.181 -0.3754 -0.6328 -2.1093
19175SOL    HW262211   6.862   9.571   6.282  0.5747  1.0263  0.0154
19176SOL     OW62212   2.919   4.136   2.712 -0.0257  0.4001 -0.6185
19176SOL    HW162213   2.970   4.085   2.775 -0.8969 -0.0125 -0.2120
19176SOL    HW262214   2.971   4.214   2.695  1.0975 -0.3904 -0.8487
19177SOL     OW62215   3.903   9.824   7.784 -0.9476 -0.1282 -0.1467
19177SOL    HW162216   3.856   9.884   7.842  0.7918  1.0552  0.0935
19177SOL    HW262217   3.874   9.848   7.696  0.5803  1.9220 -0.1559
19178SOL     OW62218   2.551   5.471  11.148  0.1900 -0.5248 -0.0901
19178SOL    HW162219   2.464   5.442  11.177  0.4163 -0.8844  0.2427
19178SOL    HW262220   2.571   5.414  11.074 -0.3571  0.3453 -0.9317
19179SOL     OW62221   4.820   1.548   3.137  0.2552 -0.0233 -0.3553
19179SOL    HW162222   4.733   1.589   3.142 -0.3959 -0.8662 -3.2057
19179SOL    HW262223   4.801   1.455   3.127  1.3961 -0.0645 -2.5094
19180SOL     OW62224   0.503   5.674   4.665 -0.1881  0.4809 -0.0789
19180SOL    HW162225   0.562   5.678   4.590 -1.3199 -1.8552 -1.1805
19180SOL    HW262226   0.506   5.582   4.693 -0.8243  1.0159  1.8971
19181SOL     OW62227   1.938   1.585   3.333  0.5181  0.7258 -0.1635
19181SOL    HW162228   1.920   1.661   3.279 -0.3177  0.4464 -0.2853
19181SOL    HW262229   2.021   1.551   3.298 -0.9536 -0.6171 -2.6438
19182SOL     OW62230   3.356   1.142   9.568  0.1114 -0.0210 -0.5727
19182SOL    HW162231   3.268   1.178   9.560  0.6510  1.6471  0.5300
19182SOL    HW262232   3.411   1.218   9.587  1.4794 -1.3044  0.8501
19183SOL     OW62233   7.192  11.526   4.787  0.4630  0.3553 -0.0129
19183SOL    HW162234   7.197  11.591   4.718  0.7618  0.0268 -0.3030
19183SOL    HW262235   7.228  11.446   4.748  1.5627  0.4204  0.8235
19184SOL     OW62236  10.347  10.064   1.000 -0.3118  0.8833 -0.3428
19184SOL    HW162237  10.291   9.988   1.019 -1.1074  1.0646 -1.8130
19184SOL    HW262238  10.383  10.047   0.913  0.1074  1.8396 -0.3720
19185SOL     OW62239   6.367   0.918   2.188 -0.4348  0.3253  0.8144
19185SOL    HW162240   6.430   0.945   2.255  1.0960 -1.9110  0.3997
19185SOL    HW262241   6.411   0.937   2.105  0.7652 -3.0747  0.4941
19186SOL     OW62242   2.836   3.486   6.000 -0.1010 -0.1215  0.1634
19186SOL    HW162243   2.812   3.420   5.935 -1.3274  1.7337 -1.3854
19186SOL    HW262244   2.780   3.467   6.075 -0.1199 -1.0978 -0.0833
19187SOL     OW62245   7.142   2.117  10.732  0.1860 -0.0218 -0.1262
19187SOL    HW162246   7.160   2.170  10.810  0.6461  0.0583 -0.2807
19187SOL    HW262247   7.225   2.116  10.684  0.4368 -1.6010  0.2904
19188SOL     OW62248   4.309  11.077   6.616  0.2499 -0.0379  0.3100
19188SOL    HW162249   4.339  11.026   6.691  1.9348  0.7948  0.2570
19188SOL    HW262250   4.338  11.027   6.540  1.3899  0.6491  0.2585
19189SOL     OW62251  11.843   7.668   1.542 -0.1118  0.4242  0.7759
19189SOL    HW162252  11.792   7.742   1.575  0.1514  0.7344  0.5024
19189SOL    HW262253  11.876   7.625   1.621  0.8477  1.3934  0.9267
19190SOL     OW62254   7.301   7.283  11.358  0.1900 -0.0340 -0.0796
19190SOL    HW162255   7.322   7.261  11.448 -1.0777  0.2641  0.3084
19190SOL    HW262256   7.240   7.215  11.329 -1.5497  1.3311  0.2164
19191SOL     OW62257   3.864   7.165  10.844  0.0706 -0.6882 -0.2816
19191SOL    HW162258   3.959   7.158  10.833  0.1940 -0.5022  0.5730
19191SOL    HW262259   3.831   7.184  10.757  0.9660  0.7625 -0.3372
19192SOL     OW62260   0.773   7.235   7.889 -0.1971 -0.0316 -0.4146
19192SOL    HW162261   0.810   7.147   7.885  0.6583  0.3454 -1.0581
19192SOL    HW262262   0.790   7.264   7.978  0.1473 -0.2563 -0.4035
19193SOL     OW62263  10.669   0.754  11.201  0.0991 -0.0268 -0.4310
19193SOL    HW162264  10.645   0.761  11.293  0.3279 -0.9908 -0.2923
19193SOL    HW262265  10.664   0.661  11.181  0.5295  0.1145 -1.2705
19194SOL     OW62266   2.333   0.022   4.628 -0.4845  0.2099 -0.3367
19194SOL    HW162267   2.356  -0.033   4.703  0.6629  1.5295  0.3324
19194SOL    HW262268   2.402   0.004   4.564 -1.9496 -1.5869 -1.5055
19195SOL     OW62269   4.094   1.255   1.796 -0.2209  0.9127 -0.2548
19195SOL    HW162270   4.100   1.341   1.754 -0.0795  0.4386 -1.2245
19195SOL    HW262271   4.180   1.216   1.784  0.7452  1.7558  2.7824
19196SOL     OW62272   0.083   5.311   4.756 -0.1752 -0.2007 -0.4928
19196SOL    HW162273   0.147   5.366   4.711  2.0871 -3.0477 -1.0015
19196SOL    HW262274   0.041   5.261   4.686 -1.1968 -0.1486  0.0675
19197SOL     OW62275   9.361   7.522   7.200 -0.0898  0.1293 -0.2890
19197SOL    HW162276   9.310   7.471   7.138 -0.1375  0.1383 -0.2571
19197SOL    HW262277   9.361   7.470   7.281 -2.0291  1.1788  0.4696
19198SOL     OW62278   9.853  10.930   2.193 -0.7866  0.1197  0.0805
19198SOL    HW162279   9.900  10.916   2.111 -1.1505  2.6808 -0.6495
19198SOL    HW262280   9.769  10.885   2.180 -0.3925 -0.4637 -0.4955
19199SOL     OW62281  11.198   7.056   5.316 -0.2114 -0.6606 -0.3106
19199SOL    HW162282  11.140   7.132   5.322  1.1506  0.4925 -1.0293
19199SOL    HW262283  11.166   6.995   5.382 -0.2132  1.3310  1.6085
19200SOL     OW62284  11.774   6.539  11.760  1.2022  0.3608 -0.0246
19200SOL    HW162285  11.766   6.522  11.666 -0.5667  0.7708  0.0251
19200SOL    HW262286  11.804   6.629  11.766 -1.8452  1.4736 -0.2267
19201SOL     OW62287   3.627   7.503   5.094 -0.4339  0.1071 -0.3735
19201SOL    HW162288   3.684   7.465   5.028 -1.5657 -0.2272 -1.1807
19201SOL    HW262289   3.578   7.571   5.047 -0.1386  0.9418  0.4952
19202SOL     OW62290  11.188   1.377   4.942  0.2180  0.3566  0.0529
19202SOL    HW162291  11.231   1.291   4.949  1.4550  0.8991 -0.5290
19202SOL    HW262292  11.182   1.393   4.848  1.2384  1.4807  0.1540
19203SOL     OW62293   3.465  11.463   9.822 -0.2941 -0.4968  0.8425
19203SOL    HW162294   3.537  11.449   9.760  0.3482  3.1315  0.5533
19203SOL    HW262295   3.482  11.549   9.859 -3.8339 -0.0513  1.7582
19204SOL     OW62296   1.962   0.526   8.884  0.5125 -0.1674 -0.5413
19204SOL    HW162297   2.006   0.441   8.886 -0.8144 -0.8953 -1.1014
19204SOL    HW262298   1.869   0.505   8.879  0.1086  1.3271  0.0588
19205SOL     OW62299   8.776   7.223   8.942  0.1776 -0.4082  0.7333
19205SOL    HW162300   8.707   7.183   8.994  1.8471 -0.4777  3.0248
19205SOL    HW262301   8.858   7.188   8.977  1.5056  1.3635 -0.3550
19206SOL     OW62302   1.203   8.039  11.847  0.4834 -0.0093 -0.1067
19206SOL    HW162303   1.199   8.014  11.754  0.8755 -0.6853  0.0576
19206SOL    HW262304   1.269   7.981  11.885  1.0500  0.9445  0.3884
19207SOL     OW62305   5.822   1.602   4.432 -0.3700 -0.5934 -0.2521
19207SOL    HW162306   5.846   1.509   4.432 -0.1396 -0.5382 -1.0960
19207SOL    HW262307   5.788   1.619   4.344 -0.0021  0.2200 -0.2505
19208SOL     OW62308  11.252   7.901   3.627 -0.1625  0.1080 -0.5952
19208SOL    HW162309  11.168   7.919   3.669 -1.0350 -0.5615 -1.9804
19208SOL    HW262310  11.230   7.848   3.550  1.7135 -1.8477  0.1049
19209SOL     OW62311   8.818   9.532   8.643 -0.6133 -0.0138  0.3768
19209SOL    HW162312   8.812   9.540   8.548  2.5246  0.2993  0.1068
19209SOL    HW262313   8.800   9.439   8.660 -0.0607 -0.3390 -0.6835
19210SOL     OW62314   9.003   8.438  11.538 -0.2623 -0.6557  0.4883
19210SOL    HW162315   9.065   8.380  11.493  0.2830  0.3905 -0.1481
19210SOL    HW262316   9.039   8.447  11.626 -0.6339 -1.6848  0.7586
19211SOL     OW62317   9.379   8.962   7.225  0.4852 -0.2704  0.1949
19211SOL    HW162318   9.320   9.029   7.261  2.4523  1.8930 -0.3794
19211SOL    HW262319   9.357   8.882   7.273 -0.8910  1.1356  2.0455
19212SOL     OW62320  10.542   0.979   1.436  0.3748  0.8908  0.0337
19212SOL    HW162321  10.524   0.973   1.342  0.5772  1.0293 -0.0141
19212SOL    HW262322  10.587   0.898   1.457 -1.1809  0.0685  0.3570
19213SOL     OW62323   5.394   5.409  10.744  0.4600 -0.2314 -0.2273
19213SOL    HW162324   5.306   5.372  10.743  0.3579  0.0193 -0.3249
19213SOL    HW262325   5.451   5.332  10.750  0.2294 -0.3831  0.0680
19214SOL     OW62326   7.229   4.474   7.958 -0.0095 -0.1016 -0.2029
19214SOL    HW162327   7.180   4.412   7.905 -0.2862  0.1262 -0.2158
19214SOL    HW262328   7.295   4.510   7.897  0.0321 -0.2476 -0.2437
19215SOL     OW62329  11.817   1.992   6.874 -0.6434  0.6713 -0.0592
19215SOL    HW162330  11.825   1.943   6.956 -3.0139  1.2842  0.6391
19215SOL    HW262331  11.889   1.961   6.820  0.1429 -0.8184  1.7209
19216SOL     OW62332   8.052   5.725  10.669  0.3039 -0.0025 -0.0552
19216SOL    HW162333   7.995   5.801  10.679  2.0368  1.4168 -0.5288
19216SOL    HW262334   8.062   5.690  10.757 -2.3217 -1.1252 -0.1245
19217SOL     OW62335   5.896   2.050  11.117  0.2820  0.2168  0.5112
19217SOL    HW162336   5.981   2.006  11.111 -0.0975 -0.4832 -0.0279
19217SOL    HW262337   5.907   2.116  11.185  1.4510  0.5774 -0.0028
19218SOL     OW62338   1.321   7.423  10.734  0.0454  0.0134 -0.2713
19218SOL    HW162339   1.386   7.458  10.674  2.0336  0.4580  1.9596
19218SOL    HW262340   1.366   7.423  10.819 -3.2506  1.4320  1.6456
19219SOL     OW62341   8.801  11.523   3.794 -0.1224 -0.2044 -0.0302
19219SOL    HW162342   8.879  11.467   3.789  1.8537  2.4090 -0.6703
19219SOL    HW262343   8.755  11.493   3.873  2.7850 -0.3625  1.7376
19220SOL     OW62344   1.297   0.315   5.556 -0.6506  0.0172  0.4211
19220SOL    HW162345   1.278   0.232   5.512  0.5218 -0.0788  0.0666
19220SOL    HW262346   1.211   0.353   5.573 -1.2050  0.4718 -2.7852
19221SOL     OW62347   1.816   0.663   7.808  0.4562  0.5866  0.4876
19221SOL    HW162348   1.898   0.644   7.852 -0.5823  2.1553  3.3442
19221SOL    HW262349   1.836   0.738   7.752  0.9871  1.0085  1.2249
19222SOL     OW62350   9.221  10.720   2.826  0.1147  0.0838  0.6346
19222SOL    HW162351   9.136  10.714   2.783  0.3362  0.1440  0.1808
19222SOL    HW262352   9.221  10.806   2.869 -0.1088  0.0242  0.7483
19223SOL     OW62353   0.667   5.073   0.660 -0.2879  0.3328  0.8438
19223SOL    HW162354   0.604   5.020   0.610  2.6847 -1.3367 -1.4663
19223SOL    HW262355   0.697   5.139   0.597  1.3909  0.0787  1.3354
19224SOL     OW62356   5.125   1.328   2.465 -0.1322 -0.2365  0.4140
19224SOL    HW162357   5.197   1.391   2.461 -0.2157 -0.0223  1.8132
19224SOL    HW262358   5.112   1.312   2.559 -2.5084  0.4394  0.2653
19225SOL     OW62359   7.763   2.810   8.581  0.7188 -0.1293 -0.1107
19225SOL    HW162360   7.827   2.881   8.575  2.2014 -1.2805  1.1888
19225SOL    HW262361   7.747   2.800   8.675 -0.4022 -0.7242 -0.3538
19226SOL     OW62362   7.845   9.868   0.363 -0.3250 -0.8866 -0.3154
19226SOL    HW162363   7.842   9.908   0.449  1.2100 -1.3780  0.0035
19226SOL    HW262364   7.837   9.942   0.302  1.2012 -0.2016  0.2596
19227SOL     OW62365   7.548   9.781   1.028  0.4305  0.6104  0.0741
19227SOL    HW162366   7.596   9.705   1.060 -0.8355 -0.3405 -0.1915
19227SOL    HW262367   7.550   9.843   1.101  1.5873  0.3788  0.2523
19228SOL     OW62368   5.690   8.662  10.581  0.3616  0.2818  0.5858
19228SOL    HW162369   5.681   8.737  10.522 -0.7672  0.4633  0.9697
19228SOL    HW262370   5.769   8.681  10.632  1.2958  0.1730 -0.7696
19229SOL     OW62371   8.572   9.287   3.123  0.1400 -0.0473  0.5723
19229SOL    HW162372   8.608   9.201   3.142 -0.3703 -0.0701  1.5173
19229SOL    HW262373   8.640   9.348   3.152  0.1948 -0.1213  0.6003
19230SOL     OW62374   2.855   1.067  10.433 -0.0134  0.2201  0.5225
19230SOL    HW162375   2.907   0.989  10.452 -0.0188  0.0647 -0.1093
19230SOL    HW262376   2.893   1.135  10.489 -1.3318 -0.7098  2.6798
19231SOL     OW62377  11.779   3.774   0.340 -0.8275 -0.2758  0.2753
19231SOL    HW162378  11.687   3.749   0.334 -0.9690 -0.5592  2.6965
19231SOL    HW262379  11.802   3.802   0.251 -2.7136 -1.9433 -0.8208
19232SOL     OW62380  11.339   5.584   8.324  0.1655 -0.1786  0.0298
19232SOL    HW162381  11.328   5.612   8.415  2.2817  2.1542 -0.3114
19232SOL    HW262382  11.407   5.517   8.327  0.9502  0.6066  0.1048
19233SOL     OW62383   1.230   2.136  11.062 -0.4762 -0.4061 -0.8998
19233SOL    HW162384   1.280   2.145  10.981  1.7222 -0.0635  0.4064
19233SOL    HW262385   1.278   2.071  11.113 -1.1303  0.2262  0.5936
19234SOL     OW62386   9.195   4.726   5.759 -0.3737  0.5964  0.5234
19234SOL    HW162387   9.270   4.785   5.750  1.6365 -1.5917  1.7410
19234SOL    HW262388   9.121   4.776   5.724  1.7399  2.6171 -1.4155
19235SOL     OW62389   9.174   2.325   8.402  0.0652 -0.0835  0.2008
19235SOL    HW162390   9.167   2.317   8.498 -1.4383 -0.9946  0.0376
19235SOL    HW262391   9.149   2.415   8.383 -1.5391 -0.4315  0.5312
19236SOL     OW62392   3.503   1.068   0.417 -0.0203 -0.4542  0.7328
19236SOL    HW162393   3.517   1.093   0.509  0.7352 -0.5918  0.6679
19236SOL    HW262394   3.412   1.041   0.413 -0.1299 -0.2019  1.3909
19237SOL     OW62395  10.274   5.349   5.571 -0.1380 -0.5331  0.0021
19237SOL    HW162396  10.354   5.329   5.619 -1.0465 -0.2085  1.7057
19237SOL    HW262397  10.224   5.407   5.628 -2.2015 -1.7764 -0.4099
19238SOL     OW62398  11.325   1.882   7.394 -0.0770 -0.4503  0.1468
19238SOL    HW162399  11.252   1.826   7.368 -0.7070  0.3313  0.2093
19238SOL    HW262400  11.396   1.821   7.414  0.2324 -1.1527 -2.6621
19239SOL     OW62401   0.793   0.495   0.406 -0.4774  0.0478 -0.7570
19239SOL    HW162402   0.789   0.589   0.393 -2.4096  0.0956 -0.1351
19239SOL    HW262403   0.733   0.459   0.340 -2.2663 -0.4588  1.0495
19240SOL     OW62404   8.769   6.869   7.060 -0.2117  0.0858  0.3898
19240SOL    HW162405   8.822   6.877   6.981 -0.7820  0.4494  0.0369
19240SOL    HW262406   8.678   6.867   7.028 -0.3711 -2.1680  0.8500
19241SOL     OW62407   8.809   8.211   3.226  0.2012  0.0199  0.7474
19241SOL    HW162408   8.777   8.202   3.137  0.1261 -1.9499  0.9333
19241SOL    HW262409   8.892   8.165   3.227 -0.9731 -2.2449  2.2394
19242SOL     OW62410   1.512   0.055   0.919 -0.1072  0.4823 -0.2016
19242SOL    HW162411   1.519   0.110   0.841 -0.5510  2.3541  1.0371
19242SOL    HW262412   1.555   0.105   0.988  0.7863 -1.3904  0.6687
19243SOL     OW62413   2.589   9.715   3.593  0.0141  0.5270 -0.0926
19243SOL    HW162414   2.505   9.745   3.559  0.9256 -0.1020 -3.3318
19243SOL    HW262415   2.571   9.687   3.682 -3.2388  0.2297 -0.7235
19244SOL     OW62416  11.831   2.382   8.991  0.1865 -0.5231 -0.2043
19244SOL    HW162417  11.856   2.296   8.956  2.5762  0.2033 -0.4134
19244SOL    HW262418  11.798   2.430   8.915  0.9806 -0.5027 -0.5382
19245SOL     OW62419   3.859   8.596  10.968 -0.3442  0.1493  0.4488
19245SOL    HW162420   3.836   8.688  10.959 -1.4020  0.0759  2.0156
19245SOL    HW262421   3.793   8.549  10.917 -0.5357  0.1988  0.6521
19246SOL     OW62422   3.292   1.447   9.219  0.1773  0.0563  0.1655
19246SOL    HW162423   3.201   1.418   9.231  0.1567  0.2375  0.4389
19246SOL    HW262424   3.284   1.536   9.186  0.2560  0.0017 -0.0068
19247SOL     OW62425   0.524   1.649   3.695 -0.4166  0.1261 -0.7413
19247SOL    HW162426   0.569   1.702   3.629 -0.7170  3.1042  1.2784
19247SOL    HW262427   0.577   1.658   3.774 -2.2898  0.2394  0.5714
19248SOL     OW62428   9.560   6.255   4.328 -0.2351  0.7007  0.5418
19248SOL    HW162429   9.510   6.246   4.247 -0.4458 -0.6712  0.7978
19248SOL    HW262430   9.555   6.348   4.350 -2.1434  0.7082  0.2228
19249SOL     OW62431   4.901   5.531   0.843  0.1039 -0.0660  0.4277
19249SOL    HW162432   4.828   5.591   0.861 -0.6084  0.2274 -2.7768
19249SOL    HW262433   4.930   5.556   0.755  2.4731 -1.8156  0.6361
19250SOL     OW62434   2.440   5.679   1.787  0.5097 -0.1522  0.1817
19250SOL    HW162435   2.520   5.659   1.739  1.2139  1.2050  0.7415
19250SOL    HW262436   2.371   5.631   1.741  1.7438 -1.9698  0.1471
19251SOL     OW62437   9.922  11.542   2.198  0.4067  0.0706 -0.3672
19251SOL    HW162438   9.951  11.552   2.289  0.7339 -0.4983 -0.4045
19251SOL    HW262439   9.828  11.523   2.205  0.4452 -0.0431 -0.1433
19252SOL     OW62440  11.481   9.617   5.591 -0.3326 -1.0709 -0.0358
19252SOL    HW162441  11.537   9.545   5.562 -1.4813 -1.5624 -1.1165
19252SOL    HW262442  11.392   9.588   5.571 -0.7512  1.2335 -1.8461
19253SOL     OW62443   3.370   2.744   3.329  0.0622 -0.1938  0.2306
19253SOL    HW162444   3.348   2.797   3.405  0.6013 -0.1276  0.3383
19253SOL    HW262445   3.391   2.657   3.364  0.5194 -0.1068  0.1814
19254SOL     OW62446   7.556   0.208  10.151  0.2130 -0.9202 -0.7288
19254SOL    HW162447   7.532   0.145  10.083 -1.4203 -0.8142 -0.2959
19254SOL    HW262448   7.615   0.270  10.108 -0.2305 -1.2601 -1.8473
19255SOL     OW62449   0.858  11.533   6.717 -0.4736 -0.4383 -0.7123
19255SOL    HW162450   0.916  11.499   6.785 -0.9219 -1.0417 -0.6236
19255SOL    HW262451   0.844  11.459   6.658  0.4364  0.2658 -1.8342
19256SOL     OW62452   4.666   5.199  10.570  0.5734 -0.0410  0.1206
19256SOL    HW162453   4.668   5.285  10.530  2.3167 -0.1973 -0.2021
19256SOL    HW262454   4.574   5.185  10.593  0.2535  1.8508  0.1049
19257SOL     OW62455   6.973   4.824   7.289 -0.7699  0.3158  0.1192
19257SOL    HW162456   6.886   4.826   7.328 -0.2895 -2.7950  1.6620
19257SOL    HW262457   6.984   4.734   7.258  1.6601  0.7883 -0.6152
19258SOL     OW62458   5.421   1.867   0.499 -0.7734  0.3708  0.3100
19258SOL    HW162459   5.366   1.798   0.461 -0.7174  0.3118  0.3363
19258SOL    HW262460   5.358   1.927   0.540 -0.7894 -0.0391  0.9120
19259SOL     OW62461   9.967   5.986   6.797  0.2083  0.3830 -0.2288
19259SOL    HW162462  10.001   5.920   6.857 -0.7273 -0.3341 -0.4580
19259SOL    HW262463   9.975   6.069   6.844  0.1684 -0.0748  0.5942
19260SOL     OW62464   7.106   0.685   3.812  0.2539 -0.3247  0.3695
19260SOL    HW162465   7.162   0.702   3.888  1.3109  0.6777 -0.5951
19260SOL    HW262466   7.042   0.621   3.844  2.0473 -1.6774  1.4799
19261SOL     OW62467   7.461   9.197   6.578 -0.8845 -0.3831  0.2671
19261SOL    HW162468   7.422   9.148   6.506  1.4256 -2.2670  0.1858
19261SOL    HW262469   7.524   9.255   6.537  1.2677 -2.2639  0.7072
19262SOL     OW62470  11.359   9.877   7.795  0.8245  0.0070  0.0759
19262SOL    HW162471  11.304   9.898   7.871  0.5839  1.1440 -0.3886
19262SOL    HW262472  11.418   9.808   7.826 -2.3312 -2.9931 -0.0472
19263SOL     OW62473   0.349   3.029  10.667  0.0857 -0.5221 -0.1454
19263SOL    HW162474   0.404   3.051  10.743 -1.2227  0.5623  0.5355
19263SOL    HW262475   0.302   2.950  10.693  2.1989 -2.2544 -1.2398
19264SOL     OW62476   3.433   6.194   7.504  0.2386 -0.2881  0.3467
19264SOL    HW162477   3.436   6.189   7.599  1.4424  0.2539  0.3499
19264SOL    HW262478   3.345   6.228   7.485 -0.2933 -1.1291  1.2097
19265SOL     OW62479   3.839   2.748   7.569 -0.1178  0.0783 -0.2957
19265SOL    HW162480   3.756   2.776   7.532 -0.1897 -0.0235 -0.2119
19265SOL    HW262481   3.851   2.805   7.645 -0.8710 -0.9324  0.6104
19266SOL     OW62482   3.010   4.297   6.318 -0.0518 -0.1485  1.0146
19266SOL    HW162483   3.050   4.239   6.253  0.3162  0.5822  0.5747
19266SOL    HW262484   2.916   4.290   6.301 -0.0292 -0.7966  1.1270
19267SOL     OW62485   0.380   5.072   1.000  0.5932  0.1722  0.4225
19267SOL    HW162486   0.406   5.158   0.966  0.3166 -1.0489 -3.3241
19267SOL    HW262487   0.288   5.083   1.024 -0.0637  0.5207 -2.0094
19268SOL     OW62488  11.424   2.653   1.579 -0.0143  0.6231 -0.4849
19268SOL    HW162489  11.366   2.729   1.572  0.9070  1.3391 -0.6185
19268SOL    HW262490  11.448   2.650   1.672  0.3382  0.8134 -0.5643
19269SOL     OW62491   4.596   2.055   3.103 -0.4589  0.7252 -0.2367
19269SOL    HW162492   4.561   2.133   3.059  0.1560  1.9849  1.4182
19269SOL    HW262493   4.518   2.010   3.136 -0.7271  1.5983  0.3446
19270SOL     OW62494  10.558   1.127   3.182  0.1188 -0.2439 -0.4211
19270SOL    HW162495  10.635   1.074   3.201  0.4586  0.3421 -0.1532
19270SOL    HW262496  10.548   1.122   3.087  0.5238 -0.2788 -0.4607
19271SOL     OW62497   0.731   5.864   8.927  0.1295  0.3243  0.3390
19271SOL    HW162498   0.737   5.779   8.969  0.2785  0.8727  1.4606
19271SOL    HW262499   0.816   5.876   8.886  0.1787  0.0272  0.3496
19272SOL     OW62500   9.023  10.402   4.038 -0.5373 -0.5507 -0.3385
19272SOL    HW162501   8.947  10.447   4.001 -0.2720  1.2437  1.1815
19272SOL    HW262502   9.099  10.453   4.008 -0.1942 -0.2097  1.0328
19273SOL     OW62503   1.417   4.358  11.848  0.6050  1.0358 -0.2630
19273SOL    HW162504   1.512   4.373  11.852  0.8273 -0.2877 -0.0309
19273SOL    HW262505   1.393   4.384  11.759  1.1916  1.3299 -0.3452
19274SOL     OW62506  11.642   1.751   4.979  0.3446 -0.0034  0.4957
19274SOL    HW162507  11.646   1.752   5.074 -1.8105  0.0723  0.6476
19274SOL    HW262508  11.667   1.840   4.953  0.6649  0.0593  1.0085
19275SOL     OW62509  11.168   6.118   2.987 -0.0362  0.1235  0.1496
19275SOL    HW162510  11.133   6.174   3.057 -1.1664 -0.0694 -0.2412
19275SOL    HW262511  11.180   6.033   3.029 -1.7824 -0.3008 -0.1228
19276SOL     OW62512   0.207  11.093   1.398  0.7527 -0.6482 -0.9102
19276SOL    HW162513   0.130  11.125   1.351 -0.6112 -0.8082  1.1015
19276SOL    HW262514   0.280  11.141   1.358 -0.6220  1.1018 -1.4597
19277SOL     OW62515   3.689   9.681   7.030 -0.0626  0.4234 -0.1200
19277SOL    HW162516   3.617   9.631   6.994  0.2451  0.0457 -0.2099
19277SOL    HW262517   3.732   9.622   7.092 -1.1510  1.3478  1.6187
19278SOL     OW62518   7.603   3.804   5.006 -0.7111  0.3286 -0.8372
19278SOL    HW162519   7.587   3.732   4.944  0.6819 -0.2752 -0.5406
19278SOL    HW262520   7.632   3.877   4.951  2.1071 -0.6857 -0.8755
19279SOL     OW62521   8.468   3.726   7.659  0.2070 -0.4960  0.7173
19279SOL    HW162522   8.411   3.650   7.658  0.4611 -0.6922  1.0598
19279SOL    HW262523   8.410   3.800   7.641 -0.1121 -0.7197  0.8223
19280SOL     OW62524   1.299   8.974  11.087  0.4476  0.4299 -0.3047
19280SOL    HW162525   1.237   8.960  11.015  1.0426 -0.8929 -0.5805
19280SOL    HW262526   1.384   8.984  11.045  0.6720  0.5480  0.1641
19281SOL     OW62527   1.835   0.998   4.992  0.1593 -0.2985  0.2524
19281SOL    HW162528   1.838   1.091   4.972 -1.4514 -0.4865 -1.1145
19281SOL    HW262529   1.789   0.959   4.917  1.3228 -2.2831  0.4904
19282SOL     OW62530  11.517   3.433   1.306 -0.4092 -0.2538 -0.3876
19282SOL    HW162531  11.530   3.527   1.293 -0.2828  0.0817  1.8987
19282SOL    HW262532  11.599   3.393   1.276  0.9192  0.7114  1.7532
19283SOL     OW62533   6.391  11.326   0.346  0.0235 -0.2815  0.2065
19283SOL    HW162534   6.420  11.249   0.396 -0.2945 -0.2749  0.4017
19283SOL    HW262535   6.461  11.390   0.360  0.4916 -0.6717 -0.2916
19284SOL     OW62536   7.036   4.628   6.133  0.2593  0.0203  0.1766
19284SOL    HW162537   7.038   4.580   6.216 -0.5958 -0.5971 -0.1404
19284SOL    HW262538   6.945   4.619   6.103  0.2338  1.3308 -0.1944
19285SOL     OW62539  11.762   4.741   2.072 -0.5762 -0.4595  0.7502
19285SOL    HW162540  11.743   4.663   2.019 -0.2612 -1.0636  1.5025
19285SOL    HW262541  11.857   4.740   2.083 -0.5969 -0.1053  0.9711
19286SOL     OW62542   7.312   9.985  10.698  0.0509  0.1573 -0.5552
19286SOL    HW162543   7.379  10.053  10.690 -1.2303  1.3468 -1.7142
19286SOL    HW262544   7.238  10.030  10.738 -0.6551 -0.6963 -0.8943
19287SOL     OW62545   8.907  10.520   3.590 -0.7273 -0.0759  0.0162
19287SOL    HW162546   8.915  10.605   3.547 -1.6303  0.3640  0.6583
19287SOL    HW262547   8.950  10.458   3.531 -0.3954  0.7679 -0.6454
19288SOL     OW62548  11.726   1.428   4.551 -0.1642  0.6826 -0.0002
19288SOL    HW162549  11.677   1.469   4.480  1.1900  1.3247 -0.6070
19288SOL    HW262550  11.754   1.343   4.516 -2.6844 -0.7253  1.1391
19289SOL     OW62551   2.925  10.531  10.643  0.2506 -0.2793  0.1396
19289SOL    HW162552   2.928  10.479  10.563  2.7461 -1.1397  0.7025
19289SOL    HW262553   3.010  10.576  10.646 -0.1386  0.4469  1.8532
19290SOL     OW62554   5.569  10.976   1.046  0.3234  0.1624 -0.2420
19290SOL    HW162555   5.602  11.036   1.113  0.4344 -0.9276  0.7183
19290SOL    HW262556   5.479  11.005   1.030  0.9988  1.8069 -1.2811
19291SOL     OW62557  10.669   8.182   3.562 -0.1054 -0.1796  0.0409
19291SOL    HW162558  10.678   8.243   3.635  0.7529  1.1582 -1.1286
19291SOL    HW262559  10.734   8.212   3.498 -0.2373 -1.8354 -0.9207
19292SOL     OW62560  11.848   5.571   9.400  0.5157 -0.0906  0.1094
19292SOL    HW162561  11.773   5.594   9.346  0.6064  0.5756  0.2635
19292SOL    HW262562  11.917   5.631   9.373  0.8368 -0.3539  0.3307
19293SOL     OW62563   7.668   8.562   8.097  0.3720 -0.5248  0.2974
19293SOL    HW162564   7.689   8.469   8.101  0.3553 -0.5679 -0.4369
19293SOL    HW262565   7.751   8.606   8.116  0.5806 -0.6923 -0.2157
19294SOL     OW62566   6.303   5.888   8.033  0.2821  0.0291  0.6198
19294SOL    HW162567   6.301   5.918   8.124 -1.9873  1.6039  0.1522
19294SOL    HW262568   6.303   5.969   7.981 -1.5671 -0.7633 -0.7302
19295SOL     OW62569   3.395   4.336   2.012  0.8284 -0.0969 -0.0945
19295SOL    HW162570   3.314   4.375   1.981  1.1600 -0.4928 -1.5001
19295SOL    HW262571   3.460   4.406   2.005  0.1893  1.0810  3.4784
19296SOL     OW62572   0.658   6.531   8.883  0.2037  0.3592  0.4550
19296SOL    HW162573   0.644   6.581   8.803  0.3665  2.6992  1.8196
19296SOL    HW262574   0.570   6.508   8.913  0.1532 -0.8760 -0.5487
19297SOL     OW62575   1.068   7.917   7.127  0.0468 -0.2664  0.2292
19297SOL    HW162576   1.038   7.894   7.215  0.9336  0.8161  0.8442
19297SOL    HW262577   1.152   7.872   7.118  0.3007  0.1963  0.2327
19298SOL     OW62578   5.955   8.055   2.205  0.4326  0.3682 -0.3434
19298SOL    HW162579   5.925   7.997   2.135 -0.1292 -0.8000  0.8310
19298SOL    HW262580   5.885   8.120   2.215 -0.6624 -0.9435  0.7876
19299SOL     OW62581   9.876   3.084   4.752 -0.3936  0.4362 -0.2197
19299SOL    HW162582   9.917   3.073   4.666  0.4292  1.0826  0.0711
19299SOL    HW262583   9.934   3.144   4.798 -0.2784 -0.6818  1.1514
19300SOL     OW62584   7.050   7.094   7.770  0.2110  0.2564 -0.4976
19300SOL    HW162585   6.981   7.044   7.815 -0.3464  0.6258 -0.9259
19300SOL    HW262586   7.018   7.185   7.771  0.0099  0.2253 -1.9393
19301SOL     OW62587  10.411   1.595  11.812  0.1950 -0.5182  0.2390
19301SOL    HW162588  10.398   1.684  11.778  0.4458 -1.0851 -1.4400
19301SOL    HW262589  10.505   1.585  11.819  0.1522 -0.4699  0.9936
19302SOL     OW62590  11.699   4.786   4.051  0.2620 -0.4174 -0.0718
19302SOL    HW162591  11.636   4.818   4.116  1.4104 -1.5206  1.6823
19302SOL    HW262592  11.664   4.701   4.023  0.7315 -0.8398  0.5939
19303SOL     OW62593   8.408   5.961   2.890 -0.4404 -0.6142  0.1656
19303SOL    HW162594   8.403   5.866   2.899 -0.0185 -0.5576  1.0284
19303SOL    HW262595   8.329   5.985   2.841 -0.0996 -1.4984 -0.8567
19304SOL     OW62596   6.359   6.536   7.026  0.4088 -0.4914  0.1069
19304SOL    HW162597   6.350   6.441   7.021 -1.0999 -0.4195  1.0792
19304SOL    HW262598   6.454   6.551   7.023  0.7601 -2.1336  1.6070
19305SOL     OW62599   3.261   7.319   1.031 -0.2954  0.0453  0.5760
19305SOL    HW162600   3.229   7.284   0.948  0.3036  0.1613  0.2840
19305SOL    HW262601   3.184   7.355   1.074 -0.3129  1.9925 -0.9252
19306SOL     OW62602   7.441   7.480   2.737 -0.2087  0.0507 -0.2370
19306SOL    HW162603   7.475   7.497   2.649  1.0763  1.6352  0.5297
19306SOL    HW262604   7.356   7.524   2.738 -0.1178  0.2416 -0.5954
19307SOL     OW62605  11.459   2.766   6.120 -0.1306 -0.3407  0.1338
19307SOL    HW162606  11.457   2.836   6.055  0.7258  0.4687  0.9375
19307SOL    HW262607  11.386   2.785   6.179  1.3379  1.1707  1.5852
19308SOL     OW62608  10.119   1.834   9.138  0.2552  0.0705 -0.0234
19308SOL    HW162609  10.060   1.910   9.134 -1.7318 -1.4677 -1.7087
19308SOL    HW262610  10.177   1.844   9.063  1.6172  1.0696  1.0882
19309SOL     OW62611   3.756   1.889  11.725 -0.2787  0.2570  0.6766
19309SOL    HW162612   3.762   1.947  11.801  2.7309  2.1088 -0.7687
19309SOL    HW262613   3.783   1.803  11.758  1.0548  1.0373  1.7257
19310SOL     OW62614   7.928  10.892  10.252 -0.4902  0.2856  0.4158
19310SOL    HW162615   7.968  10.805  10.246 -1.2055  0.0426 -1.3116
19310SOL    HW262616   8.000  10.949  10.282  0.5032 -0.5562 -0.2950
19311SOL     OW62617   1.701   9.831  10.999  0.0440 -0.4517 -0.2521
19311SOL    HW162618   1.684   9.836  11.093 -0.7728  0.5576 -0.4359
19311SOL    HW262619   1.792   9.803  10.993  0.5347  0.7871  0.8684
19312SOL     OW62620   1.443  10.611   5.987 -0.3333  0.1785  0.1718
19312SOL    HW162621   1.520  10.614   6.045 -0.0315  2.1031 -0.2316
19312SOL    HW262622   1.368  10.618   6.047 -0.1809 -1.1235  0.5304
19313SOL     OW62623   0.459   2.818   2.518  0.5591  0.1631 -0.3082
19313SOL    HW162624   0.525   2.868   2.469  1.2685 -0.1927  0.2655
19313SOL    HW262625   0.483   2.831   2.610  0.0893 -0.3323 -0.1122
19314SOL     OW62626   9.787  10.885   4.477 -0.0919 -0.3191 -0.0824
19314SOL    HW162627   9.709  10.874   4.531  0.6351 -1.6383  0.7585
19314SOL    HW262628   9.761  10.854   4.390 -0.9981  0.9410 -0.2902
19315SOL     OW62629  11.947   6.907  11.236 -0.1957  0.2540  0.2746
19315SOL    HW162630  12.010   6.960  11.188  0.8650  0.6957  2.0374
19315SOL    HW262631  11.874   6.967  11.254 -2.7185 -0.9955 -4.2950
19316SOL     OW62632   0.291   1.317   6.304 -0.0954  0.1619  0.0731
19316SOL    HW162633   0.312   1.410   6.304  0.4472  0.1174 -2.8188
19316SOL    HW262634   0.351   1.278   6.241 -1.7736 -1.7670 -0.4544
19317SOL     OW62635   9.461   3.486   4.853 -0.1803 -0.5913 -0.7306
19317SOL    HW162636   9.516   3.462   4.778  0.6142  1.3918 -0.8529
19317SOL    HW262637   9.384   3.430   4.845  1.3380 -2.7829 -1.1135
19318SOL     OW62638   0.069   0.433   3.355 -0.7749 -0.3521 -0.0208
19318SOL    HW162639   0.049   0.441   3.448  1.5330  4.3644  0.3425
19318SOL    HW262640   0.139   0.368   3.351 -1.2557 -1.0053  1.4166
19319SOL     OW62641   3.337   4.423   8.154 -0.4152 -0.5376 -0.2493
19319SOL    HW162642   3.302   4.511   8.139 -0.3588  0.0898  2.6481
19319SOL    HW262643   3.431   4.436   8.165 -0.0838 -1.3208 -1.9250
19320SOL     OW62644  11.488   4.489  11.125 -0.1127 -0.2619 -0.1593
19320SOL    HW162645  11.461   4.545  11.198 -0.2208  0.8790 -1.0414
19320SOL    HW262646  11.479   4.400  11.158 -1.7374  0.1801  0.6798
19321SOL     OW62647   8.665   4.351   1.930 -0.9144 -0.1410  0.2349
19321SOL    HW162648   8.708   4.356   2.016 -0.8033  0.9818  0.1346
19321SOL    HW262649   8.706   4.277   1.887 -0.4566 -0.2763  0.8885
19322SOL     OW62650   1.605  11.010   3.670 -0.3261 -0.2610  0.6720
19322SOL    HW162651   1.628  10.919   3.651  0.2305 -0.4219  2.0560
19322SOL    HW262652   1.549  11.035   3.597  3.0913 -0.2401 -2.1865
19323SOL     OW62653   9.648   6.603   3.217 -0.6660 -0.0603 -0.5474
19323SOL    HW162654   9.603   6.608   3.132  0.7415  0.7905 -1.2884
19323SOL    HW262655   9.739   6.625   3.196  0.0934 -1.6737  0.9014
19324SOL     OW62656   1.514  11.572   9.976  0.5958  0.1112 -0.0202
19324SOL    HW162657   1.587  11.614   9.929 -0.1272 -0.3350 -1.6155
19324SOL    HW262658   1.512  11.483   9.942  0.6795 -0.5622  1.6633
19325SOL     OW62659   1.383   1.935   1.422 -0.1922  0.0651 -0.2345
19325SOL    HW162660   1.470   1.908   1.395 -0.1250 -0.4768  0.4795
19325SOL    HW262661   1.325   1.903   1.352 -0.0512 -1.5270  0.3274
19326SOL     OW62662   3.775  10.658   6.296  0.0258 -0.0703 -0.4055
19326SOL    HW162663   3.688  10.639   6.332 -0.3819  1.9356 -0.2334
19326SOL    HW262664   3.784  10.597   6.223 -0.8616 -1.3714  0.5091
19327SOL     OW62665   1.717   7.979  11.074  0.2072 -0.0689 -0.2864
19327SOL    HW162666   1.661   8.040  11.025  0.2784 -0.4718 -0.8739
19327SOL    HW262667   1.675   7.894  11.062  0.0925 -0.1321  0.5597
19328SOL     OW62668   4.920   5.621   7.851  0.3613  0.3468  0.7327
19328SOL    HW162669   4.926   5.705   7.805 -2.6013  0.1563 -0.1750
19328SOL    HW262670   5.009   5.586   7.846  0.8634  1.6778 -2.3161
19329SOL     OW62671   7.393   6.164  11.669 -0.4576 -0.6096  0.7210
19329SOL    HW162672   7.337   6.240  11.683 -0.9457 -0.7710 -0.2910
19329SOL    HW262673   7.444   6.186  11.591  0.2349 -0.8464  1.0966
19330SOL     OW62674   0.523  11.827   5.240  0.5623 -0.6343  0.3346
19330SOL    HW162675   0.555  11.809   5.152 -1.4639  0.4225 -0.6951
19330SOL    HW262676   0.560  11.913   5.262 -0.7901  0.2008 -0.5093
19331SOL     OW62677   3.773   7.507  10.457  0.1905  0.2330  0.0253
19331SOL    HW162678   3.855   7.534  10.415  0.6704 -2.5351 -1.0180
19331SOL    HW262679   3.791   7.512  10.551  0.1828  3.3751 -0.0330
19332SOL     OW62680   8.424   1.522   9.001 -0.4038 -0.2836 -0.3956
19332SOL    HW162681   8.456   1.567   8.922 -0.5512 -1.0247 -0.8886
19332SOL    HW262682   8.367   1.586   9.043  0.6312  0.5628 -0.2354
19333SOL     OW62683   1.078   6.471   1.997 -0.3443  0.5356 -0.3201
19333SOL    HW162684   1.018   6.400   2.021  0.5734 -0.0765  0.2372
19333SOL    HW262685   1.095   6.516   2.079  1.6152 -0.6252 -0.0356
19334SOL     OW62686   5.464   6.512   4.297  0.0098  0.1731  0.2762
19334SOL    HW162687   5.474   6.419   4.318 -0.2328 -0.1029 -0.7804
19334SOL    HW262688   5.514   6.557   4.365  3.4203 -0.8838 -1.3518
19335SOL     OW62689   8.876   2.064   0.686 -0.0604  0.1042 -0.0183
19335SOL    HW162690   8.873   2.160   0.688  0.1766  0.1084  0.3168
19335SOL    HW262691   8.913   2.040   0.771 -3.0679 -0.4339  1.2621
19336SOL     OW62692   0.025   4.897  10.133  0.8749  0.1314  0.2540
19336SOL    HW162693  -0.004   4.988  10.128  0.4732  0.0363  0.8067
19336SOL    HW262694  -0.040   4.848  10.082  0.6571  0.0563  0.6012
19337SOL     OW62695   3.976   2.013   1.647  0.5171 -0.1249 -0.2657
19337SOL    HW162696   3.887   2.049   1.648  1.1292  1.5943 -1.8414
19337SOL    HW262697   4.027   2.075   1.700  1.0835 -0.1614 -0.7650
19338SOL     OW62698   0.856   7.588   6.266  0.2616  0.4535 -0.0855
19338SOL    HW162699   0.807   7.663   6.233  0.4226  0.6355  0.0857
19338SOL    HW262700   0.926   7.574   6.201 -0.3947 -0.2102 -0.6672
19339SOL     OW62701  11.998  10.266   8.610 -0.2859  0.2154 -0.4247
19339SOL    HW162702  12.020  10.173   8.604  4.7235  1.2031 -2.5639
19339SOL    HW262703  11.966  10.288   8.522 -1.5320  0.5868  0.0979
19340SOL     OW62704  10.942   0.516   6.647  0.4242  0.5159 -0.1954
19340SOL    HW162705  11.008   0.475   6.592  0.2699 -0.5707  0.3944
19340SOL    HW262706  10.959   0.610   6.640  0.1743  0.4376 -2.3633
19341SOL     OW62707   0.935   4.931   4.708  0.3976  0.0323 -0.3583
19341SOL    HW162708   0.889   4.863   4.758  1.3416 -0.5128 -0.2093
19341SOL    HW262709   0.952   4.891   4.623  0.2961  0.3541 -0.5314
19342SOL     OW62710   0.578   2.782   7.473 -0.0223 -0.0319 -0.4836
19342SOL    HW162711   0.594   2.816   7.385  0.1211 -2.5515 -1.5005
19342SOL    HW262712   0.568   2.860   7.527  0.8204  1.5990 -2.5447
19343SOL     OW62713   2.966   9.030   0.126 -0.7321  0.2710  0.5482
19343SOL    HW162714   2.993   8.951   0.173 -1.5024 -0.6379 -0.4893
19343SOL    HW262715   3.040   9.090   0.136  0.5718 -1.1796  0.0226
19344SOL     OW62716  11.064   0.750   6.581  0.6075 -0.6101 -0.6699
19344SOL    HW162717  11.140   0.798   6.614  0.5211 -0.7812 -0.2152
19344SOL    HW262718  10.996   0.817   6.569  0.8274 -0.4587 -1.0708
19345SOL     OW62719   4.828  10.307   2.485  0.2828  0.4172 -0.0685
19345SOL    HW162720   4.783  10.392   2.493  1.2150  0.8258  1.1675
19345SOL    HW262721   4.761  10.243   2.510  0.1905  0.9723  1.1694
19346SOL     OW62722   6.762   3.643   4.362  0.2135  0.2853  0.5178
19346SOL    HW162723   6.700   3.716   4.363  0.0328  0.1358  1.8322
19346SOL    HW262724   6.848   3.684   4.367  0.2238  0.4773 -0.8981
19347SOL     OW62725   3.512   6.022   3.750 -0.5425 -0.1973 -0.0466
19347SOL    HW162726   3.446   6.051   3.687 -0.5553  3.6581  1.4808
19347SOL    HW262727   3.462   5.984   3.822 -0.8050 -0.5911 -0.4298
19348SOL     OW62728   1.954   5.212   0.827  0.3314  0.5299 -0.0762
19348SOL    HW162729   1.967   5.223   0.733 -1.9870  0.8275 -0.4175
19348SOL    HW262730   1.955   5.117   0.840 -0.1219  0.4513 -0.5630
19349SOL     OW62731   9.633   0.113  10.551  0.2206 -0.3595 -0.2583
19349SOL    HW162732   9.568   0.045  10.533  0.8845 -1.1931  0.4488
19349SOL    HW262733   9.646   0.157  10.467 -0.7890 -0.5820 -0.5442
19350SOL     OW62734   7.218   8.953   7.032  0.0273  0.1449 -0.1767
19350SOL    HW162735   7.124   8.966   7.047  0.0063 -1.3510  1.1991
19350SOL    HW262736   7.260   8.989   7.110  0.4698 -0.7776  0.0203
19351SOL     OW62737   7.790   2.544   3.220 -0.0406 -0.0950 -0.9450
19351SOL    HW162738   7.782   2.513   3.129 -2.5938  0.9656 -1.1822
19351SOL    HW262739   7.748   2.629   3.220  2.8846  1.5074  0.6114
19352SOL     OW62740   9.240   7.704   9.525  0.5687  0.5304 -0.0452
19352SOL    HW162741   9.189   7.769   9.477 -2.2564 -0.3445  1.5740
19352SOL    HW262742   9.290   7.755   9.589  0.9794  1.3300 -0.9734
19353SOL     OW62743  10.279  10.722  11.450 -0.1247 -0.2283 -0.3126
19353SOL    HW162744  10.254  10.694  11.362 -1.2595  0.7125 -0.3108
19353SOL    HW262745  10.275  10.643  11.503 -0.5451 -0.5811 -0.8695
19354SOL     OW62746   0.013   0.395  10.981 -0.1329 -0.1548  0.2245
19354SOL    HW162747   0.082   0.440  10.932 -0.5029  1.4098  1.0699
19354SOL    HW262748  -0.024   0.463  11.037 -1.7494 -1.1828  0.4583
19355SOL     OW62749  11.493   8.033   4.884  0.3354  0.2141  0.8266
19355SOL    HW162750  11.429   8.049   4.953 -0.0028 -1.2213  0.8740
19355SOL    HW262751  11.558   8.103   4.895 -1.2442  1.7643  0.7130
19356SOL     OW62752  10.646   7.475   9.060 -0.4069  0.2770 -0.6834
19356SOL    HW162753  10.683   7.528   8.989  0.6312 -0.9199 -1.0692
19356SOL    HW262754  10.685   7.512   9.139  0.9316 -0.3490 -1.0120
19357SOL     OW62755   5.776   6.596   6.089  0.4219 -0.0888  0.2762
19357SOL    HW162756   5.756   6.550   6.007  1.8758 -0.8520  0.3227
19357SOL    HW262757   5.782   6.527   6.155  1.5227  0.2681  0.5663
19358SOL     OW62758   3.122   1.619   4.825 -0.1996  0.9282  0.3488
19358SOL    HW162759   3.027   1.635   4.827 -0.1405  1.5762 -0.7895
19358SOL    HW262760   3.159   1.697   4.866 -0.2153 -0.3488  2.9192
19359SOL     OW62761   1.516   2.310   5.493 -0.2652 -0.0242  0.2495
19359SOL    HW162762   1.520   2.383   5.431 -1.9145 -0.0176  0.1233
19359SOL    HW262763   1.447   2.334   5.554  0.5574 -0.5649  1.4256
19360SOL     OW62764   5.890   6.554   2.372 -0.6816 -0.3312 -0.0248
19360SOL    HW162765   5.846   6.553   2.287 -1.3818  1.6971  0.2586
19360SOL    HW262766   5.969   6.607   2.358 -0.9275  0.2285  0.6152
19361SOL     OW62767   9.702   5.960   8.755 -0.3141  0.1318  0.2441
19361SOL    HW162768   9.693   5.993   8.666  0.3945 -1.2936 -0.3751
19361SOL    HW262769   9.788   5.917   8.757 -0.9320 -1.1273  1.1943
19362SOL     OW62770   9.206   5.919   4.803  0.0705 -0.1114 -0.0435
19362SOL    HW162771   9.216   5.963   4.887  0.8148 -0.1813 -0.0908
19362SOL    HW262772   9.255   5.974   4.741 -0.7838  0.1509 -0.5132
19363SOL     OW62773   8.350   2.049   1.131  0.3346 -0.1018  0.0440
19363SOL    HW162774   8.285   2.118   1.138  0.6098  0.1914 -0.2436
19363SOL    HW262775   8.339   1.997   1.210  0.2329  0.3646  0.3397
19364SOL     OW62776   7.195   9.083   9.111 -0.7322 -0.3750 -0.0587
19364SOL    HW162777   7.134   9.144   9.070 -3.0701 -0.5286  2.8621
19364SOL    HW262778   7.142   9.006   9.132  1.1537 -1.6931  0.1398
19365SOL     OW62779   9.317   9.138   4.368 -0.1132  0.0369  0.4685
19365SOL    HW162780   9.261   9.089   4.308 -2.0471  1.6204  0.9142
19365SOL    HW262781   9.390   9.168   4.314 -0.1293 -1.2815 -0.3258
19366SOL     OW62782   3.744   0.979  11.118 -0.6048  0.0353  0.2362
19366SOL    HW162783   3.774   1.015  11.035 -1.2721  1.4673  0.5969
19366SOL    HW262784   3.808   0.911  11.139 -0.8509 -0.9431 -1.8285
19367SOL     OW62785   7.991   1.783   9.497  0.0552  0.0463 -0.0578
19367SOL    HW162786   8.000   1.688   9.496 -0.9516 -0.0584  0.1477
19367SOL    HW262787   7.934   1.802   9.422 -0.1539  0.4432  0.2022
19368SOL     OW62788  10.160   8.353   2.225  0.2773  0.0682  0.1706
19368SOL    HW162789  10.168   8.303   2.144  0.0894  1.2450 -0.6004
19368SOL    HW262790  10.111   8.296   2.284 -1.1414 -0.1364 -1.1528
19369SOL     OW62791   2.799   0.223   6.979  0.1437 -0.4171 -0.3582
19369SOL    HW162792   2.704   0.227   6.993  0.2317 -2.1283  1.1804
19369SOL    HW262793   2.836   0.252   7.062  1.0252  1.4620 -1.3724
19370SOL     OW62794   0.423  11.191   9.728 -0.3032 -0.5474  0.5522
19370SOL    HW162795   0.360  11.121   9.745 -0.4103 -1.0791 -1.7469
19370SOL    HW262796   0.505  11.146   9.710  0.0030 -0.0044  0.5645
19371SOL     OW62797   0.692   2.051   9.074 -0.0980  0.0743  0.7399
19371SOL    HW162798   0.781   2.018   9.083  0.0794 -0.4368 -2.1149
19371SOL    HW262799   0.638   1.973   9.064 -0.3800  0.4296 -0.8319
19372SOL     OW62800   2.921  11.136   2.781 -0.3542  0.5069  0.1684
19372SOL    HW162801   2.946  11.046   2.759  0.7288  0.5137  1.2382
19372SOL    HW262802   2.930  11.185   2.699  3.1103  0.4588  0.3982
19373SOL     OW62803   2.751   6.614  11.202 -0.3941 -0.1244  0.0292
19373SOL    HW162804   2.790   6.642  11.119  1.2292 -3.7400 -0.6267
19373SOL    HW262805   2.819   6.631  11.268  0.5883 -2.1599 -0.3675
19374SOL     OW62806   4.174   3.879  11.585 -0.1746  0.0975 -0.1708
19374SOL    HW162807   4.134   3.849  11.666 -0.7049  1.0623 -0.0461
19374SOL    HW262808   4.109   3.940  11.548 -0.3812 -1.0286 -1.8030
19375SOL     OW62809   7.403   6.180   4.851  0.1710 -0.1098  0.2466
19375SOL    HW162810   7.440   6.222   4.929  1.3091 -1.2537  0.3683
19375SOL    HW262811   7.310   6.172   4.870  0.2959  0.3749  1.1340
19376SOL     OW62812   8.348   2.042   8.811  0.0730 -0.1300 -0.5867
19376SOL    HW162813   8.356   1.958   8.767  1.0758  0.1172 -0.8974
19376SOL    HW262814   8.362   2.107   8.742  2.2879  0.2635  0.1600
19377SOL     OW62815   2.649   2.770   3.815 -0.4442 -0.0013 -0.1490
19377SOL    HW162816   2.603   2.690   3.837 -0.2012  0.1301  0.8872
19377SOL    HW262817   2.637   2.779   3.720  0.0302 -1.5571 -0.3811
19378SOL     OW62818   0.209   0.160   8.825 -0.5050 -0.4705 -0.8040
19378SOL    HW162819   0.144   0.090   8.831 -2.2016  1.0574 -0.5448
19378SOL    HW262820   0.158   0.240   8.828  1.3608  0.8014 -1.3692
19379SOL     OW62821   0.330   6.348   9.107  0.4797 -0.3143  0.2185
19379SOL    HW162822   0.327   6.253   9.116  0.7394 -0.2238  1.4209
19379SOL    HW262823   0.289   6.382   9.187  1.8087  0.5711  0.5748
19380SOL     OW62824   1.922   7.857   1.473 -0.2507  0.1736 -0.7615
19380SOL    HW162825   1.848   7.911   1.443 -0.2979  0.0424 -0.8803
19380SOL    HW262826   1.964   7.911   1.540 -0.0242  0.5631 -1.2040
19381SOL     OW62827   3.700   3.559   3.098 -0.2277  0.2138 -0.1881
19381SOL    HW162828   3.705   3.464   3.107 -0.8032  0.2962  1.1690
19381SOL    HW262829   3.607   3.577   3.084 -0.4097  0.6915  1.4199
19382SOL     OW62830  11.160  11.031   0.774 -0.1751 -0.4048  0.2244
19382SOL    HW162831  11.150  11.004   0.683  0.2661 -1.0090  0.3459
19382SOL    HW262832  11.150  11.126   0.773 -0.4972 -0.4405 -0.4039
19383SOL     OW62833   1.156   1.620   5.795 -0.1085 -0.4479  0.9003
19383SOL    HW162834   1.087   1.659   5.849 -1.0699  0.0691 -0.6300
19383SOL    HW262835   1.108   1.571   5.728  0.8942  1.5120 -1.3819
19384SOL     OW62836   7.070   4.012   3.385  0.6182  0.5395 -0.1987
19384SOL    HW162837   7.038   3.984   3.471 -0.4071 -1.1681 -1.0695
19384SOL    HW262838   7.155   3.969   3.376  0.8179  0.8824  0.0370
19385SOL     OW62839   7.109  10.897   6.471  0.2144  0.4812  0.2199
19385SOL    HW162840   7.075  10.827   6.527 -2.3320  1.6851  0.3362
19385SOL    HW262841   7.086  10.870   6.382 -1.5452  1.4444  0.3224
19386SOL     OW62842   6.088   1.625   2.292  0.2337  0.6105 -0.2849
19386SOL    HW162843   6.092   1.541   2.246 -1.8547  0.4079 -0.1822
19386SOL    HW262844   6.013   1.670   2.254  1.1955  2.3758 -0.1995
19387SOL     OW62845  10.644   7.372  10.042 -0.4793  0.4065 -0.3495
19387SOL    HW162846  10.670   7.350   9.952 -0.2890  0.8655 -0.4114
19387SOL    HW262847  10.645   7.289  10.088  0.9713  0.3856 -0.3883
19388SOL     OW62848   9.282   8.738   6.131  0.1510 -0.0695 -0.5063
19388SOL    HW162849   9.353   8.798   6.111  0.7020 -0.1188  1.1764
19388SOL    HW262850   9.302   8.705   6.218 -2.3956  0.6331  0.4364
19389SOL     OW62851  11.896   6.321  10.920 -0.6103  0.5352 -0.7122
19389SOL    HW162852  11.958   6.336  10.991  0.6956 -0.4187 -1.5975
19389SOL    HW262853  11.830   6.390  10.930  0.3150  1.2751  0.5568
19390SOL     OW62854   0.874   4.762   9.968  0.4644  0.0293 -0.2863
19390SOL    HW162855   0.836   4.834  10.018  1.2472  0.3384 -0.1299
19390SOL    HW262856   0.947   4.801   9.920  0.0093 -0.3573 -1.3303
19391SOL     OW62857   8.753   2.907   3.490  0.0079  0.6644 -0.0390
19391SOL    HW162858   8.722   2.997   3.479 -3.2264 -0.4947 -1.8549
19391SOL    HW262859   8.801   2.888   3.409 -1.8212 -0.0348 -1.0251
19392SOL     OW62860   2.836   6.497   9.901 -0.7358 -0.1700 -0.3726
19392SOL    HW162861   2.903   6.445   9.944  1.0997  0.4908 -2.2514
19392SOL    HW262862   2.753   6.455   9.925  0.2785 -0.8492  2.2494
19393SOL     OW62863   9.934   8.904  10.549 -0.5888 -0.1578  0.4488
19393SOL    HW162864   9.903   8.869  10.633  2.5197 -0.6873  1.5070
19393SOL    HW262865  10.029   8.909  10.559 -0.2198  0.9655 -2.6338
19394SOL     OW62866   8.362  11.361  11.351  0.2916 -0.2020 -0.1340
19394SOL    HW162867   8.393  11.347  11.440 -0.7334  0.1007  0.2958
19394SOL    HW262868   8.432  11.328  11.295  0.7966 -0.7258  0.7827
19395SOL     OW62869   4.727   3.505   0.300  0.1269  0.1752 -0.0782
19395SOL    HW162870   4.687   3.508   0.213  0.1608 -0.8226 -0.1446
19395SOL    HW262871   4.820   3.492   0.283  0.4701  2.0841  0.0860
19396SOL     OW62872   0.732   5.981   0.866 -0.2401  0.7902  0.4437
19396SOL    HW162873   0.756   6.061   0.914  2.9188  0.5237 -0.4654
19396SOL    HW262874   0.726   6.009   0.775 -0.9973  0.3118  0.3409
19397SOL     OW62875   6.079   4.804   7.538 -1.0471  0.3149 -0.2250
19397SOL    HW162876   6.134   4.881   7.521  0.4262 -0.6078  0.1994
19397SOL    HW262877   6.027   4.794   7.458 -2.0685  2.3644  0.1301
19398SOL     OW62878   0.787   4.133   7.646 -0.2275  0.0477  0.0963
19398SOL    HW162879   0.823   4.220   7.632 -1.6993  0.5838 -0.6271
19398SOL    HW262880   0.823   4.105   7.730  1.0760  0.9193 -0.1491
19399SOL     OW62881  11.784   4.621   4.884  0.0184 -0.2778  0.3587
19399SOL    HW162882  11.867   4.645   4.925  0.0735  1.0348 -0.4634
19399SOL    HW262883  11.717   4.654   4.943  0.0765 -0.9636  0.8138
19400SOL     OW62884   8.697  11.603   2.906  0.1330  0.2385 -0.4490
19400SOL    HW162885   8.762  11.605   2.976 -0.1720 -0.4058 -0.1346
19400SOL    HW262886   8.615  11.582   2.951 -0.5230  2.0694 -0.6710
19401SOL     OW62887   8.998  11.522   9.810 -0.1063 -0.4144  0.3397
19401SOL    HW162888   9.019  11.432   9.785  0.6777  0.4734 -2.6485
19401SOL    HW262889   8.932  11.549   9.746 -1.4439  0.7191  2.1138
19402SOL     OW62890  11.526   9.944   0.969 -0.4045  0.4795  0.2362
19402SOL    HW162891  11.507   9.851   0.984 -0.5383  0.4529 -0.1005
19402SOL    HW262892  11.450   9.977   0.922  0.6760  0.1955 -1.8195
19403SOL     OW62893   5.542   1.407  10.849  0.2142  0.0110 -0.3941
19403SOL    HW162894   5.624   1.374  10.886 -2.1032 -3.0908  2.7166
19403SOL    HW262895   5.538   1.498  10.877  1.7714 -0.3133  1.0378
19404SOL     OW62896   6.822   4.070   9.874 -0.3894  0.5956  0.0899
19404SOL    HW162897   6.755   4.002   9.885  0.4381 -0.2289  0.1554
19404SOL    HW262898   6.802   4.109   9.788  0.7672 -1.6606 -1.3079
19405SOL     OW62899   1.351   3.262   5.425  0.2755  0.6182 -0.2883
19405SOL    HW162900   1.305   3.208   5.489 -0.6519  1.4686 -0.2113
19405SOL    HW262901   1.396   3.200   5.368  0.0466 -0.1907  0.3968
19406SOL     OW62902   1.087   1.554   1.771 -0.1055 -0.1456 -0.0622
19406SOL    HW162903   1.055   1.484   1.714 -1.3714 -1.2342  1.8526
19406SOL    HW262904   1.103   1.511   1.855 -1.3254  1.9196  1.3137
19407SOL     OW62905   1.876   2.646   7.494  0.2440  0.0284 -0.0814
19407SOL    HW162906   1.953   2.693   7.527 -1.5079  1.5202  2.1824
19407SOL    HW262907   1.861   2.576   7.557  0.3969 -1.0065 -1.1611
19408SOL     OW62908   5.885   2.694   8.467 -0.0028  0.0452 -0.5074
19408SOL    HW162909   5.806   2.641   8.460  0.1168 -0.0432 -1.3329
19408SOL    HW262910   5.878   2.737   8.552 -0.5221 -0.6170 -0.2065
19409SOL     OW62911   4.050  11.986   9.456  0.5540 -0.4940 -0.0541
19409SOL    HW162912   3.985  11.959   9.520 -0.8064  0.8234 -0.8181
19409SOL    HW262913   4.060  11.911   9.398  1.5447 -1.5748  1.4418
19410SOL     OW62914   3.910   3.178   3.738 -0.8056  0.2223 -0.0865
19410SOL    HW162915   3.984   3.223   3.779 -0.1510 -0.4897 -0.4426
19410SOL    HW262916   3.913   3.208   3.647  0.8222 -1.8913 -0.8286
19411SOL     OW62917   4.325  10.344  11.016 -0.8429 -0.0042 -0.1419
19411SOL    HW162918   4.230  10.335  11.014 -1.0071  1.4381  0.6405
19411SOL    HW262919   4.357  10.254  11.010 -2.2754 -0.6217  0.9896
19412SOL     OW62920   5.218   0.659   6.151  0.3494  0.3649 -0.3871
19412SOL    HW162921   5.174   0.741   6.128  0.6507  0.3744 -0.9642
19412SOL    HW262922   5.152   0.591   6.134 -0.2766  0.5506  1.1454
19413SOL     OW62923   7.079   1.521   6.254 -0.1348 -0.0918 -0.0690
19413SOL    HW162924   7.048   1.433   6.232 -1.2385  0.6309 -1.5852
19413SOL    HW262925   7.051   1.575   6.180  1.3602  1.3668  0.3719
19414SOL     OW62926  10.168   7.021   0.338 -0.5256  0.1282  0.1376
19414SOL    HW162927  10.120   7.055   0.414 -0.7235 -0.2294  0.1746
19414SOL    HW262928  10.225   7.093   0.311  0.6906 -0.2251  1.5872
19415SOL     OW62929  11.119   4.482   4.160  0.3203  0.0187 -0.3012
19415SOL    HW162930  11.174   4.443   4.228  2.8049  1.0917 -1.5626
19415SOL    HW262931  11.071   4.551   4.205  1.9167  0.7082  0.3997
19416SOL     OW62932   2.076   8.064   9.186 -0.6311 -0.0507  0.3468
19416SOL    HW162933   1.985   8.094   9.192 -0.0669  1.9015 -0.1079
19416SOL    HW262934   2.102   8.084   9.096  0.0859 -1.1763  0.2768
19417SOL     OW62935   4.828  11.326   2.757  0.3320  0.3204  0.7414
19417SOL    HW162936   4.852  11.253   2.814  0.7560 -0.3981 -0.3262
19417SOL    HW262937   4.753  11.366   2.801 -0.8551 -1.6503  0.6471
19418SOL     OW62938   9.737   4.491   6.267  0.0555 -0.4909 -0.4277
19418SOL    HW162939   9.775   4.538   6.342  1.1467  0.8061 -1.7375
19418SOL    HW262940   9.708   4.407   6.303  2.5440 -0.8106  1.0193
19419SOL     OW62941  10.828   2.534   2.892 -0.1989 -0.2373  0.6741
19419SOL    HW162942  10.918   2.512   2.868  0.4956  2.1290  0.9107
19419SOL    HW262943  10.774   2.483   2.832  1.3667  0.2833 -1.2736
19420SOL     OW62944   4.666   2.130   7.297  0.0463  0.3183  0.8173
19420SOL    HW162945   4.701   2.171   7.377 -0.7765  1.8147  0.4518
19420SOL    HW262946   4.611   2.058   7.328  0.0647  0.6266  1.5796
19421SOL     OW62947   8.080  10.835   5.226 -0.1682 -0.1233  0.4020
19421SOL    HW162948   8.148  10.804   5.167  0.4082  0.3601  0.8039
19421SOL    HW262949   8.055  10.921   5.191 -0.2782 -0.1159  0.4956
19422SOL     OW62950   9.998   6.550  11.903 -0.2501 -0.0319  0.0251
19422SOL    HW162951   9.909   6.559  11.870 -0.5081  1.7122  1.0803
19422SOL    HW262952   9.987   6.522  11.994  0.3162 -0.6842 -0.1010
19423SOL     OW62953   7.824   0.195   1.381 -0.7116  0.0948  0.1226
19423SOL    HW162954   7.730   0.180   1.388 -0.7632  0.6944  0.7919
19423SOL    HW262955   7.864   0.111   1.405 -1.0666 -0.2195 -0.3514
19424SOL     OW62956   8.486   4.507   4.409 -0.1142 -0.0161  0.2394
19424SOL    HW162957   8.496   4.588   4.359  0.2405 -0.0767  0.2106
19424SOL    HW262958   8.556   4.451   4.377  0.1606 -0.0303  0.8567
19425SOL     OW62959   7.273   4.025   9.383  0.2055 -0.0264 -0.1024
19425SOL    HW162960   7.263   4.116   9.354 -1.4578 -0.5105 -1.2139
19425SOL    HW262961   7.331   4.030   9.459  2.8773  1.5926 -2.0788
19426SOL     OW62962  10.599   1.212   2.085 -0.0804 -0.6774  0.7782
19426SOL    HW162963  10.548   1.292   2.077  1.0300  0.0874  1.2171
19426SOL    HW262964  10.640   1.200   2.000  0.1110 -0.5473  0.8544
19427SOL     OW62965   6.520   2.122   6.327  0.0484 -0.0778 -0.2163
19427SOL    HW162966   6.467   2.139   6.405  0.2994  0.1552 -0.0948
19427SOL    HW262967   6.584   2.058   6.356 -0.6389 -0.9378 -0.5654
19428SOL     OW62968   5.192   4.582   5.649 -0.1665 -0.3047 -0.4924
19428SOL    HW162969   5.188   4.491   5.680  0.6711 -0.1982 -0.0356
19428SOL    HW262970   5.272   4.617   5.688 -1.2453  1.0892  0.5968
19429SOL     OW62971   8.586   3.760   5.613  0.0871  0.4256  0.1973
19429SOL    HW162972   8.645   3.827   5.579  0.3373 -0.3322 -0.8990
19429SOL    HW262973   8.617   3.679   5.573 -0.3278 -0.3181  1.3654
19430SOL     OW62974   6.272   0.960   6.047 -0.1177  0.7035 -0.2639
19430SOL    HW162975   6.229   1.042   6.021 -1.0858  0.9959  2.0098
19430SOL    HW262976   6.235   0.940   6.134  0.2193 -2.0579 -0.6571
19431SOL     OW62977   1.432   1.955  10.092  0.0612 -0.2976 -0.4138
19431SOL    HW162978   1.337   1.942  10.096  0.2512 -2.3328 -0.9911
19431SOL    HW262979   1.460   1.905  10.014  1.5572  0.6563 -0.5397
19432SOL     OW62980   0.504  11.285   9.381  0.0943 -0.1515 -0.4118
19432SOL    HW162981   0.519  11.373   9.417 -1.1457 -0.6533  1.4257
19432SOL    HW262982   0.592  11.248   9.373  0.7320  1.5279 -2.0928
19433SOL     OW62983   6.350   5.671   9.641  0.8570  0.4337 -1.1880
19433SOL    HW162984   6.424   5.654   9.583  1.2123  0.3322 -0.7092
19433SOL    HW262985   6.307   5.586   9.651 -0.5069  0.8283 -3.0285
19434SOL     OW62986   3.924   6.782   0.550 -0.1378  0.3118  1.1481
19434SOL    HW162987   3.829   6.781   0.561 -0.3299  0.3030 -0.3945
19434SOL    HW262988   3.939   6.756   0.460  1.3522  0.1784  1.3979
19435SOL     OW62989   2.950   4.336   4.874  0.0401  0.0704  0.2773
19435SOL    HW162990   2.970   4.408   4.934  0.3739  0.3260 -0.1314
19435SOL    HW262991   2.858   4.316   4.890  0.7450 -1.6064  2.6998
19436SOL     OW62992   5.113   1.599  10.239 -1.2006  0.1279  0.1454
19436SOL    HW162993   5.073   1.665  10.182  0.3441  1.5690  0.6717
19436SOL    HW262994   5.176   1.554  10.183 -2.0532 -0.7447 -0.1372
19437SOL     OW62995   8.420   0.662   1.437 -0.8042 -0.5639  0.8778
19437SOL    HW162996   8.415   0.605   1.360  0.7800 -0.1419  0.4231
19437SOL    HW262997   8.403   0.750   1.403  1.3974 -0.1514  0.6460
19438SOL     OW62998   9.363   0.620   6.813 -0.1421  0.3072 -0.4125
19438SOL    HW162999   9.305   0.614   6.888 -0.8828 -1.2877 -1.0618
19438SOL    HW263000   9.333   0.698   6.765 -2.3863 -0.9649 -1.2067
19439SOL     OW63001  11.880  11.428   0.196  0.2490  0.2995  0.3901
19439SOL    HW163002  11.897  11.507   0.144 -0.1876  1.3924  1.8492
19439SOL    HW263003  11.791  11.403   0.173  0.8532 -0.6284 -1.1149
19440SOL     OW63004   0.413   6.413  11.138 -0.3383  0.1402 -0.7361
19440SOL    HW163005   0.437   6.377  11.052 -0.4393 -0.9514 -0.3262
19440SOL    HW263006   0.481   6.477  11.158 -0.8484  1.1524 -2.0634
19441SOL     OW63007   8.568   4.190   5.255  0.3048  0.0010 -0.0187
19441SOL    HW163008   8.535   4.265   5.207 -0.2734  0.2597  0.7517
19441SOL    HW263009   8.512   4.117   5.228 -0.3488  0.2517  0.6202
19442SOL     OW63010   1.588   8.986   6.539 -0.2359 -0.7509  0.1369
19442SOL    HW163011   1.549   8.944   6.462  0.8965 -0.3939 -0.6665
19442SOL    HW263012   1.678   8.952   6.542 -0.6258 -1.7699  2.0938
19443SOL     OW63013  10.340  11.884   5.649 -0.3153  0.6802  0.8476
19443SOL    HW163014  10.325  11.967   5.604  1.0319  1.1864  1.2739
19443SOL    HW263015  10.434  11.870   5.642 -0.4586 -0.5906  1.1905
19444SOL     OW63016   7.048   9.153   6.151  0.2738 -0.0633  0.2383
19444SOL    HW163017   6.999   9.079   6.187  1.8863 -0.3177  2.0631
19444SOL    HW263018   7.102   9.115   6.082  0.3684 -0.4302  0.5074
19445SOL     OW63019  10.992   8.528   0.349 -0.1995 -0.5057 -0.6943
19445SOL    HW163020  11.060   8.481   0.397 -1.5439 -2.0781 -0.2099
19445SOL    HW263021  11.006   8.620   0.369 -0.6994 -1.0710  2.7974
19446SOL     OW63022   6.847   7.686   9.061 -0.9443 -0.1277 -0.3410
19446SOL    HW163023   6.840   7.762   9.119 -1.8698 -0.9691  0.6795
19446SOL    HW263024   6.922   7.637   9.095 -1.8907 -0.9678  0.6016
19447SOL     OW63025  11.364   4.983   1.294  0.0964 -0.1241 -0.2378
19447SOL    HW163026  11.348   5.077   1.282 -0.2998 -0.1276  0.2580
19447SOL    HW263027  11.411   4.976   1.377  0.1024 -0.3714 -0.2603
19448SOL     OW63028   2.210   9.261   4.239  0.2284  0.1802 -0.1811
19448SOL    HW163029   2.216   9.182   4.185 -1.4598 -1.2294  1.5783
19448SOL    HW263030   2.129   9.302   4.211  0.6411  0.8331 -0.4455
19449SOL     OW63031   1.222   0.821  11.263 -0.2376  0.0562  0.1547
19449SOL    HW163032   1.282   0.749  11.244 -3.1416 -2.3566 -0.7746
19449SOL    HW263033   1.199   0.857  11.178 -1.9136 -0.7672  0.2053
19450SOL     OW63034  10.624   8.057   6.306 -0.2249 -0.7072  0.2698
19450SOL    HW163035  10.637   8.145   6.273 -2.1903 -1.5818 -3.3563
19450SOL    HW263036  10.591   8.069   6.395 -0.1780  2.1607 -0.0100
19451SOL     OW63037   5.787   6.008  11.838 -0.4365  0.4060 -0.3605
19451SOL    HW163038   5.782   5.915  11.818 -0.7405  0.4650 -0.5678
19451SOL    HW263039   5.861   6.016  11.898 -1.3295 -0.1799  0.8536
19452SOL     OW63040   8.716  10.672  11.310 -0.0237  0.0549 -0.2331
19452SOL    HW163041   8.679  10.750  11.352  1.6085  0.3125  0.7888
19452SOL    HW263042   8.790  10.704  11.259  0.9444 -0.8467  0.5536
19453SOL     OW63043   1.478   4.302   8.346  0.0139 -0.1042 -0.3358
19453SOL    HW163044   1.554   4.280   8.292  1.1934  1.4004  0.6143
19453SOL    HW263045   1.479   4.398   8.351 -0.4889 -0.1561  1.6919
19454SOL     OW63046   4.962   4.497   6.608  0.2334  0.1385 -0.3185
19454SOL    HW163047   4.962   4.475   6.701 -1.6953  0.0113 -0.3105
19454SOL    HW263048   4.879   4.462   6.575 -0.2007  2.1857 -1.5757
19455SOL     OW63049   3.927  10.616   3.698 -0.1913  0.1572 -0.1155
19455SOL    HW163050   3.997  10.595   3.761  0.4142 -0.5105 -0.9930
19455SOL    HW263051   3.883  10.532   3.683  0.3622  0.0909 -1.4123
19456SOL     OW63052  10.368   8.889   7.786 -0.2589 -0.0686  0.1377
19456SOL    HW163053  10.308   8.852   7.721 -1.1171 -0.2355  1.0025
19456SOL    HW263054  10.325   8.969   7.815  1.6586  1.8227 -1.8445
19457SOL     OW63055   0.581   5.089   2.524  0.1801 -0.2774  0.0991
19457SOL    HW163056   0.492   5.111   2.495  0.2241 -1.6519 -1.1846
19457SOL    HW263057   0.573   5.002   2.563  0.9421 -0.3759  0.0540
19458SOL     OW63058  11.757   9.269   5.985  0.3529  0.1115  0.0343
19458SOL    HW163059  11.792   9.329   5.919 -1.1589  1.4225  0.3790
19458SOL    HW263060  11.693   9.321   6.034 -0.1947 -1.4717  1.0784
19459SOL     OW63061   9.712   9.992   5.207  0.2410 -0.5962  0.4095
19459SOL    HW163062   9.734   9.907   5.168  0.7100 -1.3484  2.1820
19459SOL    HW263063   9.796  10.038   5.212  0.5629 -1.3096  2.2734
19460SOL     OW63064   5.195  11.969   4.765 -0.1411  0.3265  0.3809
19460SOL    HW163065   5.153  11.907   4.825 -0.4536  1.7374  1.7017
19460SOL    HW263066   5.156  11.950   4.680 -0.8988 -0.6718  0.9246
19461SOL     OW63067  11.441   1.208   5.805  0.2275 -0.1270 -0.2245
19461SOL    HW163068  11.423   1.143   5.873 -1.3850 -0.5562 -0.9863
19461SOL    HW263069  11.397   1.173   5.727 -0.0218  1.4988 -0.8588
19462SOL     OW63070   2.376   0.490   4.427 -0.1492  0.5697  0.4384
19462SOL    HW163071   2.399   0.554   4.359 -0.0053 -2.4674 -2.6556
19462SOL    HW263072   2.282   0.476   4.416 -0.1559  0.1506  0.9920
19463SOL     OW63073   3.645   9.262   7.577 -0.3464  0.2750  0.1484
19463SOL    HW163074   3.567   9.314   7.598  0.8666  1.4325  2.1391
19463SOL    HW263075   3.696   9.317   7.518 -0.0696  0.4211  0.5219
19464SOL     OW63076   3.806   9.644   1.230 -0.0836 -0.0467  0.0131
19464SOL    HW163077   3.740   9.643   1.161  0.4138 -2.5541 -0.5054
19464SOL    HW263078   3.765   9.598   1.303  0.4209  0.0584  0.3684
19465SOL     OW63079   0.192   4.312   9.709 -0.0911 -0.1107  0.2862
19465SOL    HW163080   0.150   4.236   9.668  1.1984  0.1423 -1.5954
19465SOL    HW263081   0.202   4.375   9.639  0.4168  1.1455  1.4485
19466SOL     OW63082   2.608   9.430   4.790  0.5535  0.9788  0.0273
19466SOL    HW163083   2.616   9.342   4.753  3.2815  0.9838  0.3922
19466SOL    HW263084   2.644   9.488   4.723  1.1556  1.4893  0.7657
19467SOL     OW63085  10.605   4.896   3.673  0.4489 -0.1480 -0.3590
19467SOL    HW163086  10.654   4.816   3.692 -1.2240 -1.1178  0.1032
19467SOL    HW263087  10.514   4.867   3.666 -0.2077  1.7262 -0.1264
19468SOL     OW63088   8.032   3.324   9.497  0.4845  0.4193 -0.5481
19468SOL    HW163089   8.077   3.371   9.568 -1.7376  0.0700  1.2250
19468SOL    HW263090   8.033   3.233   9.526  1.7567 -0.1469 -2.2690
19469SOL     OW63091   2.884   2.297   3.155 -0.1985 -0.0489 -0.0132
19469SOL    HW163092   2.854   2.256   3.237  2.1678 -0.6402  0.6561
19469SOL    HW263093   2.830   2.257   3.087  0.1457 -2.2674  0.9187
19470SOL     OW63094  11.832   7.000   8.399 -0.1930  0.2850 -0.1836
19470SOL    HW163095  11.772   6.967   8.332 -2.1045  0.7081  1.2359
19470SOL    HW263096  11.783   7.071   8.442  2.1175  2.0210 -0.2622
19471SOL     OW63097   4.305   4.404   5.895 -0.3727 -0.6188  0.0865
19471SOL    HW163098   4.279   4.460   5.969  1.9904  0.2738  0.3308
19471SOL    HW263099   4.385   4.444   5.862 -1.4602 -0.8523 -3.1883
19472SOL     OW63100  11.180   4.009   9.709 -0.3065  0.0360 -0.2647
19472SOL    HW163101  11.257   4.065   9.701  2.0634 -2.9199  0.0909
19472SOL    HW263102  11.181   3.980   9.800 -0.1773 -2.1527 -0.9136
19473SOL     OW63103   0.983  10.847   2.617 -0.0517 -0.3979  0.4810
19473SOL    HW163104   0.962  10.939   2.604  1.1979 -0.1209  0.2676
19473SOL    HW263105   0.919  10.800   2.565  0.0096  0.4057 -0.3400
19474SOL     OW63106   7.337   6.097   1.966  0.0510  0.0618  0.2134
19474SOL    HW163107   7.341   6.046   2.046 -2.1432  1.1415  1.0900
19474SOL    HW263108   7.428   6.106   1.938  0.8496 -0.4682  2.4931
19475SOL     OW63109   6.478   9.717   3.000  0.4692 -0.0234 -0.1826
19475SOL    HW163110   6.505   9.709   3.092  0.1700  0.8963 -0.0049
19475SOL    HW263111   6.558   9.700   2.950  0.4840 -1.2321  0.2079
19476SOL     OW63112   0.978   2.055   2.052 -0.2243 -0.0713 -0.0032
19476SOL    HW163113   0.935   2.082   1.970  2.1355 -0.3123 -1.4128
19476SOL    HW263114   0.982   1.960   2.047  0.9021 -0.0246 -0.1492
19477SOL     OW63115   8.982   5.668   1.659  0.1645  0.5969  0.4406
19477SOL    HW163116   8.891   5.642   1.678  0.4006 -0.5494  0.1207
19477SOL    HW263117   8.979   5.703   1.570  0.0097  0.6977  0.4853
19478SOL     OW63118   2.376   9.166   4.983 -0.5581 -0.2825 -1.0046
19478SOL    HW163119   2.292   9.186   5.023 -0.6696 -0.1113 -1.3268
19478SOL    HW263120   2.368   9.075   4.953  0.3397 -1.2973  1.4964
19479SOL     OW63121  10.321   1.856   0.636  0.1380 -0.4873  0.0636
19479SOL    HW163122  10.356   1.810   0.560 -0.5142 -1.1658  0.1589
19479SOL    HW263123  10.231   1.824   0.644 -0.7253  1.6244 -0.5183
19480SOL     OW63124  10.905   9.856   2.761 -0.3674  0.0100  0.8257
19480SOL    HW163125  10.942   9.944   2.771 -2.7910  1.0390  1.3692
19480SOL    HW263126  10.811   9.868   2.771 -0.8887 -2.4957 -0.2966
19481SOL     OW63127   9.479   6.311   2.700  0.3987 -0.2876  0.2041
19481SOL    HW163128   9.419   6.283   2.631  0.1172 -2.4442  1.2670
19481SOL    HW263129   9.431   6.296   2.781  0.4212  2.9221  0.9658
19482SOL     OW63130   3.865   8.656   5.050  0.1224 -0.9352 -0.2477
19482SOL    HW163131   3.931   8.684   4.985  0.0658 -1.6537 -0.6244
19482SOL    HW263132   3.784   8.696   5.019  0.1600 -1.0002 -0.4342
19483SOL     OW63133   4.517   2.050   1.550  0.3467 -0.2586  0.2308
19483SOL    HW163134   4.575   1.981   1.518  1.4445  0.8624 -0.2473
19483SOL    HW263135   4.455   2.065   1.479  0.8746  0.1057 -0.1503
19484SOL     OW63136   2.866   3.861   7.508  0.5435 -0.2371 -0.5432
19484SOL    HW163137   2.922   3.864   7.585  1.5526  0.9714 -1.2646
19484SOL    HW263138   2.888   3.778   7.465  1.3113 -0.0832 -0.4631
19485SOL     OW63139  10.143   8.220   5.431 -0.0256 -0.5397 -0.3377
19485SOL    HW163140  10.188   8.157   5.488  0.2660 -1.0381 -1.0948
19485SOL    HW263141  10.072   8.254   5.484  0.1256 -1.1370  0.2622
19486SOL     OW63142   4.759   8.466   6.356  0.2766  0.0352  0.6455
19486SOL    HW163143   4.694   8.477   6.425  0.1175 -2.5705  1.0154
19486SOL    HW263144   4.742   8.538   6.295 -1.8902  0.3587  1.5316
19487SOL     OW63145  10.754   1.995   2.788  0.0369 -0.7248  0.4132
19487SOL    HW163146  10.805   1.938   2.847  1.2817 -0.2712 -0.1804
19487SOL    HW263147  10.821   2.042   2.737 -0.9941  0.0038 -0.3017
19488SOL     OW63148   0.542   3.138   9.219 -0.1374 -0.0243  0.4749
19488SOL    HW163149   0.594   3.072   9.174  0.7754  0.7938  0.2996
19488SOL    HW263150   0.508   3.093   9.297 -0.8575 -1.1409 -0.4432
19489SOL     OW63151   8.512   6.219   8.406  0.0533 -0.3916  0.0750
19489SOL    HW163152   8.489   6.231   8.498 -0.2752  1.0338 -0.1624
19489SOL    HW263153   8.596   6.264   8.397  0.4556 -1.1832 -0.1615
19490SOL     OW63154   4.140   3.763  10.393  0.5957 -0.0071  0.6724
19490SOL    HW163155   4.195   3.840  10.405  1.6077 -0.4685 -0.6661
19490SOL    HW263156   4.097   3.750  10.477 -1.5599  3.4609  0.2854
19491SOL     OW63157   1.658   8.718   8.391 -0.0747 -0.6585  0.2174
19491SOL    HW163158   1.569   8.687   8.412  0.2788 -1.7209  0.2092
19491SOL    HW263159   1.698   8.645   8.343 -0.2138  0.9514 -2.5598
19492SOL     OW63160   7.730   6.880  10.150  0.0895  0.4171  0.0231
19492SOL    HW163161   7.801   6.878  10.086  0.7496  1.7854  0.6665
19492SOL    HW263162   7.669   6.945  10.115 -1.5718 -1.6369 -1.1823
19493SOL     OW63163  10.187   0.893   4.951 -0.4686  0.3539  0.3274
19493SOL    HW163164  10.102   0.873   4.991  0.3210  0.5556  2.2323
19493SOL    HW263165  10.238   0.813   4.963 -0.6982 -0.2044 -1.8925
19494SOL     OW63166   0.795  10.270   2.166  0.0587 -0.0612  0.4380
19494SOL    HW163167   0.890  10.276   2.154  0.0037 -0.6498 -0.4000
19494SOL    HW263168   0.784  10.246   2.258  0.6844  0.8509  0.7640
19495SOL     OW63169   3.802   8.645   5.511  0.0901 -0.5446 -0.5405
19495SOL    HW163170   3.779   8.709   5.578  2.1144 -2.0725  1.7945
19495SOL    HW263171   3.721   8.630   5.463 -1.2555  1.2136  1.0354
19496SOL     OW63172   8.971  11.043   1.368  0.0117 -0.1442  0.6087
19496SOL    HW163173   8.997  11.107   1.435 -1.2776 -0.3131  1.2990
19496SOL    HW263174   8.925  10.975   1.417  1.0367 -1.4392 -0.1653
19497SOL     OW63175  11.742  11.012  10.513 -0.5568  0.6736 -0.1385
19497SOL    HW163176  11.714  10.938  10.567  0.7571 -0.5141 -1.0083
19497SOL    HW263177  11.789  11.070  10.573 -0.7315  0.3058  0.3580
19498SOL     OW63178   1.485   5.625   1.436  0.6667  0.1804 -1.1075
19498SOL    HW163179   1.453   5.700   1.385 -1.0877 -0.2385 -0.6918
19498SOL    HW263180   1.467   5.649   1.527 -3.4136 -2.1154 -1.0785
19499SOL     OW63181  11.537   2.271   3.302 -0.3307  0.1709  0.3360
19499SOL    HW163182  11.556   2.310   3.388  0.8260  1.3471 -0.4101
19499SOL    HW263183  11.620   2.280   3.254 -0.2572 -2.4966 -0.1750
19500SOL     OW63184  10.148   0.626   1.226 -0.1652 -0.6021  0.1148
19500SOL    HW163185  10.105   0.601   1.145 -0.7945  0.0252  0.2395
19500SOL    HW263186  10.079   0.668   1.278  0.8195  1.4350 -0.1265
19501SOL     OW63187   9.868   8.069  10.128  0.4381 -0.4747 -0.1046
19501SOL    HW163188   9.916   8.036  10.052 -0.7099 -0.6975 -0.7703
19501SOL    HW263189   9.779   8.084  10.095  0.0055 -0.2334  1.1118
19502SOL     OW63190   6.149   4.950   8.894 -0.2881 -0.4096  0.0289
19502SOL    HW163191   6.058   4.980   8.894 -0.2918 -0.4173  0.6618
19502SOL    HW263192   6.178   4.962   8.803 -0.2570  1.6098  0.2555
19503SOL     OW63193  11.029   0.446   5.873  0.4240  0.0716  0.3239
19503SOL    HW163194  11.022   0.363   5.920  0.0130 -0.2210 -0.2342
19503SOL    HW263195  11.085   0.501   5.928  0.1163 -0.3264  1.0455
19504SOL     OW63196   2.439   2.819   0.220  0.0661 -0.1260 -0.5167
19504SOL    HW163197   2.375   2.853   0.283 -1.4990 -1.1016 -1.5223
19504SOL    HW263198   2.522   2.854   0.250 -0.4800 -1.1071  2.5675
19505SOL     OW63199   6.460   2.327   3.743  0.1305  0.1215 -0.4947
19505SOL    HW163200   6.556   2.324   3.741  0.1002 -1.4745 -0.5755
19505SOL    HW263201   6.440   2.413   3.780  1.5591  1.0960 -1.8279
19506SOL     OW63202   0.466   7.155   8.700  0.1511  0.4609 -0.8236
19506SOL    HW163203   0.370   7.149   8.700  0.1229  0.5216  0.5669
19506SOL    HW263204   0.492   7.121   8.615 -1.0690 -0.3009 -0.9220
19507SOL     OW63205   6.279   2.798   4.741 -0.1005 -0.5858 -0.4053
19507SOL    HW163206   6.236   2.868   4.692 -1.4118 -0.7586  0.4676
19507SOL    HW263207   6.212   2.731   4.753  0.5352 -1.0800  0.5970
19508SOL     OW63208   9.670   1.876   1.421 -0.1634  0.1770 -0.4635
19508SOL    HW163209   9.653   1.957   1.468 -0.0438 -0.1301  0.1223
19508SOL    HW263210   9.583   1.840   1.403 -0.2261 -0.9716  1.7876
19509SOL     OW63211  10.568   9.909   1.655  0.0463 -0.4600 -0.5750
19509SOL    HW163212  10.480   9.903   1.690 -0.5544 -3.5158 -2.3383
19509SOL    HW263213  10.557   9.942   1.566  0.8101  0.0455 -0.4981
19510SOL     OW63214   6.283   4.956  10.830  0.5236  0.0843 -0.1335
19510SOL    HW163215   6.354   5.021  10.830  0.7645 -0.0466 -3.3230
19510SOL    HW263216   6.325   4.876  10.863  0.9965  0.7580  0.9785
19511SOL     OW63217   1.411   6.540  10.548  0.1050  0.1790 -0.1724
19511SOL    HW163218   1.357   6.594  10.605 -0.8052 -0.0530 -0.7959
19511SOL    HW263219   1.357   6.524  10.471  0.0143 -2.2785  0.3193
19512SOL     OW63220   9.132   7.736   0.738 -0.0233  0.0606 -0.2386
19512SOL    HW163221   9.190   7.670   0.777  1.0669  1.3747  0.4523
19512SOL    HW263222   9.174   7.819   0.759 -2.0109  1.0516  0.0015
19513SOL     OW63223   9.701   3.560   5.629  0.3464 -0.3740  0.1785
19513SOL    HW163224   9.624   3.521   5.671 -0.6833 -0.8416 -1.9863
19513SOL    HW263225   9.719   3.503   5.554 -1.4962  3.2912 -3.4498
19514SOL     OW63226   6.541   8.322   3.629 -0.7937 -0.2156 -0.3711
19514SOL    HW163227   6.610   8.304   3.565  0.1131  0.3941  0.3990
19514SOL    HW263228   6.494   8.239   3.638 -0.2068 -0.6200 -0.9705
19515SOL     OW63229   7.808   8.831   7.706  0.3987  0.1991  0.4083
19515SOL    HW163230   7.794   8.907   7.763 -0.3134 -0.9207  1.7880
19515SOL    HW263231   7.737   8.836   7.642  0.0507  0.4308  0.8017
19516SOL     OW63232  10.241  10.162   9.975 -0.1867  0.7851  0.0070
19516SOL    HW163233  10.324  10.127  10.006 -0.5371 -1.1896 -1.1615
19516SOL    HW263234  10.185  10.164  10.053  0.8664  2.0474  0.7847
19517SOL     OW63235   6.028   9.477   8.367  0.3899 -0.3654  0.3083
19517SOL    HW163236   6.106   9.421   8.372  1.8940  1.4262 -1.4230
19517SOL    HW263237   6.026   9.522   8.451 -0.2399 -2.1691  1.3159
19518SOL     OW63238  10.221   6.827   2.614  0.4896  0.0994  0.7628
19518SOL    HW163239  10.298   6.798   2.663  2.2998 -2.3323 -3.0372
19518SOL    HW263240  10.225   6.923   2.619  2.0205  0.0082  3.0403
19519SOL     OW63241   7.157   4.907  10.705 -0.5950 -0.0321  0.1939
19519SOL    HW163242   7.241   4.933  10.742  0.2557  0.5389 -1.9692
19519SOL    HW263243   7.141   4.820  10.742  2.2072 -1.2617 -1.1668
19520SOL     OW63244   3.442   0.631   5.705 -0.1979 -0.1938 -0.3995
19520SOL    HW163245   3.500   0.676   5.643  1.3325 -0.2017  0.9547
19520SOL    HW263246   3.412   0.701   5.763 -1.2221 -0.2700 -0.8223
19521SOL     OW63247  11.851  11.092   3.302 -0.0106  0.3638 -0.0497
19521SOL    HW163248  11.885  11.022   3.247 -1.0121  0.3143 -0.6258
19521SOL    HW263249  11.765  11.113   3.265  0.4318  2.1891 -0.1437
19522SOL     OW63250  10.387   9.417   3.899  0.4669  0.3861 -0.0608
19522SOL    HW163251  10.361   9.506   3.923  1.4560  0.6220  0.1658
19522SOL    HW263252  10.452   9.428   3.830 -0.2095 -0.2065 -0.8131
19523SOL     OW63253   6.254   1.325   7.243  0.5799 -0.6491 -0.1751
19523SOL    HW163254   6.221   1.413   7.224 -0.5651 -1.1649 -0.6536
19523SOL    HW263255   6.237   1.312   7.336 -0.0673 -0.6951 -0.2972
19524SOL     OW63256   9.582   2.470  11.377 -0.1375  0.1751 -0.2101
19524SOL    HW163257   9.549   2.507  11.295  0.3225 -0.3293 -0.6297
19524SOL    HW263258   9.505   2.430  11.417 -0.4199  0.6586 -0.2677
19525SOL     OW63259   0.453   1.445  10.250  0.1800 -0.3496  0.3642
19525SOL    HW163260   0.430   1.491  10.170 -0.4377 -1.8148 -0.3436
19525SOL    HW263261   0.454   1.352  10.225  0.5067 -0.7983  1.9190
19526SOL     OW63262   1.073   9.510   5.316 -0.0473 -0.0681 -0.1611
19526SOL    HW163263   1.137   9.518   5.244  1.0019 -1.0330  0.6438
19526SOL    HW263264   1.097   9.580   5.377 -1.1370  0.9564 -0.8590
19527SOL     OW63265   9.266   1.622   4.329 -0.5073  0.1305  0.1728
19527SOL    HW163266   9.292   1.709   4.298 -1.0186  0.3246  0.2763
19527SOL    HW263267   9.298   1.619   4.419 -1.2317  0.5495  0.4543
19528SOL     OW63268   5.432   5.472   7.774 -0.0925 -0.2663 -0.2272
19528SOL    HW163269   5.468   5.477   7.862 -0.3024  0.3223 -0.1747
19528SOL    HW263270   5.404   5.381   7.765 -2.5681  0.2461  1.2983
19529SOL     OW63271   0.189   4.211   3.229 -0.3163  0.0041 -0.2493
19529SOL    HW163272   0.174   4.263   3.150  0.0180  0.9845  0.3257
19529SOL    HW263273   0.109   4.158   3.239  0.1704 -1.1509 -1.9879
19530SOL     OW63274   2.240  10.554  10.261 -0.6299  0.4830 -0.3023
19530SOL    HW163275   2.298  10.571  10.335  1.0845  0.5185 -1.5701
19530SOL    HW263276   2.171  10.498  10.296 -0.5334  1.4590  1.5582
19531SOL     OW63277   4.351   0.316   4.106  0.3962  0.4012 -0.7421
19531SOL    HW163278   4.278   0.371   4.133 -0.7408 -0.8623 -1.0943
19531SOL    HW263279   4.418   0.329   4.174 -0.5246  0.8775  0.0995
19532SOL     OW63280   0.431  10.351   2.919  0.4477  0.7733  0.3640
19532SOL    HW163281   0.426  10.358   2.824  1.1337 -0.3588  0.2272
19532SOL    HW263282   0.356  10.297   2.943  1.1997 -0.3729  0.2594
19533SOL     OW63283   5.979   2.889   9.221 -0.2477 -0.2487  0.5192
19533SOL    HW163284   6.060   2.885   9.272 -0.0325 -1.9194  0.1075
19533SOL    HW263285   5.979   2.977   9.183  0.3469  0.4894  2.1328
19534SOL     OW63286   2.411   9.568  10.168  0.1007 -0.2040 -0.0892
19534SOL    HW163287   2.415   9.659  10.140  0.3903  0.5689  2.2581
19534SOL    HW263288   2.502   9.542  10.179  0.2590 -1.9517 -3.8802
19535SOL     OW63289   7.093   6.727   8.010 -0.1734 -0.9749 -0.0290
19535SOL    HW163290   7.163   6.684   8.059 -0.1445 -1.3777 -0.4188
19535SOL    HW263291   7.039   6.768   8.077  0.3965 -0.7149  0.2800
19536SOL     OW63292  10.379   1.125   9.252  0.6996  0.5405  0.2206
19536SOL    HW163293  10.340   1.212   9.256  1.0668  0.6853  0.7957
19536SOL    HW263294  10.305   1.065   9.241  0.5139  0.9904 -1.1535
19537SOL     OW63295   7.310  10.431   6.361  0.3790  0.4144  0.2902
19537SOL    HW163296   7.311  10.526   6.354 -0.5460  0.4608  0.7312
19537SOL    HW263297   7.228  10.410   6.404  0.4351 -0.6064 -0.0610
19538SOL     OW63298  10.393  10.983   1.950  0.0136  0.5983 -0.5075
19538SOL    HW163299  10.344  11.011   2.028  0.3980 -0.6347  0.2176
19538SOL    HW263300  10.356  10.897   1.929  2.3955 -0.8081  0.6205
19539SOL     OW63301   1.386   5.500  10.995  0.3076 -0.4025 -0.1663
19539SOL    HW163302   1.347   5.515  10.909 -0.6799 -0.2495  0.2951
19539SOL    HW263303   1.397   5.406  11.001 -1.4219 -0.6224  0.2683
19540SOL     OW63304  11.432   8.979   8.131  0.2644  0.6961  0.3582
19540SOL    HW163305  11.362   9.034   8.167  0.7384  1.4621  0.1087
19540SOL    HW263306  11.481   8.949   8.208 -0.1738  0.3602  0.5150
19541SOL     OW63307  11.244   6.353   1.805  0.1073 -0.2238  0.3697
19541SOL    HW163308  11.326   6.359   1.756 -0.1626  0.7788  0.0242
19541SOL    HW263309  11.178   6.387   1.745 -0.4331 -0.2251  0.9586
19542SOL     OW63310   7.980  11.689   6.767  0.2412  0.1401  0.6387
19542SOL    HW163311   8.000  11.597   6.747  0.6580  0.0382  1.4536
19542SOL    HW263312   7.958  11.688   6.861  0.3660  0.8915  0.6799
19543SOL     OW63313   5.951   9.669  10.808 -0.2062 -0.3789  0.3121
19543SOL    HW163314   5.974   9.733  10.741 -0.8192  0.3803  0.8082
19543SOL    HW263315   6.019   9.680  10.875 -0.9598  0.6151  0.9496
19544SOL     OW63316   3.618   7.169   9.475 -0.3215  0.4681  0.0786
19544SOL    HW163317   3.529   7.153   9.443  0.2965 -0.2955 -1.3808
19544SOL    HW263318   3.622   7.123   9.559 -0.8147 -0.9397 -0.6241
19545SOL     OW63319   0.174   9.142   4.250 -0.3057  0.0007  0.1684
19545SOL    HW163320   0.233   9.092   4.193 -0.4910 -0.0263 -0.0014
19545SOL    HW263321   0.128   9.201   4.191 -0.3560  0.1113  0.3183
19546SOL     OW63322   5.512  10.123   1.887  0.7123  0.4374 -0.3536
19546SOL    HW163323   5.598  10.087   1.864  1.2764  1.1123  0.6140
19546SOL    HW263324   5.488  10.076   1.967  0.2627  0.3788 -0.5229
19547SOL     OW63325   8.792   5.859   8.391  0.4238 -0.2148 -0.3856
19547SOL    HW163326   8.728   5.818   8.449  0.4815  1.4606  0.9314
19547SOL    HW263327   8.740   5.905   8.325  0.3086 -0.3198 -0.3683
19548SOL     OW63328   8.730   8.780  10.019  0.2693 -0.2819  0.4112
19548SOL    HW163329   8.771   8.712   9.966  2.4191 -0.3810  2.0475
19548SOL    HW263330   8.801   8.839  10.043 -0.9317  0.7201  1.7264
19549SOL     OW63331   1.163  11.818   7.951 -0.1740 -0.2379 -0.2788
19549SOL    HW163332   1.170  11.841   8.044  1.3826 -0.3395 -0.3482
19549SOL    HW263333   1.241  11.767   7.933  0.8148  1.7728 -2.1922
19550SOL     OW63334   2.836   8.679   0.133  0.1988  0.2132 -0.0601
19550SOL    HW163335   2.770   8.614   0.157  1.0846 -0.4524  0.6304
19550SOL    HW263336   2.919   8.640   0.160  0.7868  1.4709  0.0093
19551SOL     OW63337  11.262   9.985   2.479 -0.3296 -0.0453  0.8070
19551SOL    HW163338  11.337   9.927   2.467  0.3318  0.9470 -0.0491
19551SOL    HW263339  11.277  10.027   2.564 -0.1900 -0.2380  0.8790
19552SOL     OW63340  10.591   5.933   1.249  0.1184  0.0533  0.4468
19552SOL    HW163341  10.676   5.967   1.222  0.2389 -1.0107 -0.5828
19552SOL    HW263342  10.605   5.839   1.261 -0.6272  0.0590  1.5025
19553SOL     OW63343   9.847   0.466   7.881  0.3156  0.2514  0.0933
19553SOL    HW163344   9.912   0.466   7.810 -1.1350 -0.3581 -1.2924
19553SOL    HW263345   9.768   0.502   7.841 -1.5962 -3.2727  0.3628
19554SOL     OW63346   7.890   6.772   3.078 -0.3209 -0.5947  0.4021
19554SOL    HW163347   7.964   6.775   3.017 -1.1765  2.3220 -0.6687
19554SOL    HW263348   7.931   6.767   3.165  0.9830 -2.1384 -0.2376
19555SOL     OW63349   4.831  10.867   0.865 -0.4218  0.5548  0.1244
19555SOL    HW163350   4.779  10.945   0.846  0.3945  0.9503 -0.5817
19555SOL    HW263351   4.821  10.812   0.787  0.4762  0.7896 -0.1729
19556SOL     OW63352   2.127   4.978   0.900  0.4232  0.2060 -0.0788
19556SOL    HW163353   2.128   4.989   0.995  0.1608  1.3191 -0.1964
19556SOL    HW263354   2.218   4.989   0.874  1.0214 -2.9415  0.3092
19557SOL     OW63355   9.746   1.838   0.589 -0.0073 -0.2075 -0.2141
19557SOL    HW163356   9.723   1.918   0.542  0.4542 -0.2678 -0.5502
19557SOL    HW263357   9.664   1.790   0.598 -0.5332  0.9024  1.1373
19558SOL     OW63358   0.571   4.636   0.756 -1.5309 -0.2982  0.4070
19558SOL    HW163359   0.534   4.718   0.788 -0.3667 -0.7569  3.3224
19558SOL    HW263360   0.535   4.569   0.815 -2.0240 -1.8444 -1.5476
19559SOL     OW63361   7.832  10.361   7.635  0.4385  0.0708 -0.5379
19559SOL    HW163362   7.824  10.313   7.717  1.4336  0.2798 -0.2978
19559SOL    HW263363   7.849  10.451   7.661  0.1973  0.2502 -0.9778
19560SOL     OW63364   5.692   0.776   2.698 -0.1350  0.7138 -0.1076
19560SOL    HW163365   5.720   0.755   2.609 -1.2870 -2.5306  0.1738
19560SOL    HW263366   5.597   0.786   2.691 -0.2492  0.3237  0.7442
19561SOL     OW63367   9.872   8.955   3.766  0.5889 -0.5940  0.3694
19561SOL    HW163368   9.936   8.953   3.694  0.3609 -0.9658  0.1714
19561SOL    HW263369   9.857   8.863   3.786  0.1667 -0.5065  0.4614
19562SOL     OW63370   7.917  11.494   5.208  0.2249  0.4231 -0.1147
19562SOL    HW163371   7.914  11.458   5.297  0.2018  0.1240 -0.2343
19562SOL    HW263372   8.010  11.499   5.188  0.2375  0.6980  0.0082
19563SOL     OW63373   2.466   4.784   4.665  0.4891  0.3051  0.3534
19563SOL    HW163374   2.513   4.732   4.600  1.4363  1.8537 -0.2490
19563SOL    HW263375   2.405   4.836   4.614 -0.6623 -0.4053  0.9797
19564SOL     OW63376  11.841   6.699   7.661  0.5342  0.1261 -0.0594
19564SOL    HW163377  11.842   6.718   7.567 -0.4804  2.1091  0.2721
19564SOL    HW263378  11.932   6.709   7.689  0.6981  0.4139 -0.6808
19565SOL     OW63379   3.384   7.318  10.718  0.2768  0.1795 -0.1761
19565SOL    HW163380   3.348   7.329  10.806  0.8354 -0.8445  0.1999
19565SOL    HW263381   3.435   7.398  10.704 -1.5337  1.3456 -0.4641
19566SOL     OW63382   3.614  11.292  11.094 -0.5654  0.4340  0.1141
19566SOL    HW163383   3.613  11.383  11.124 -0.7884  0.0134  1.4167
19566SOL    HW263384   3.527  11.259  11.114 -0.3160 -0.2257  0.1238
19567SOL     OW63385  11.601   3.822  11.716 -0.0204  0.3800  0.2914
19567SOL    HW163386  11.534   3.845  11.652 -0.2930 -1.8901 -0.3436
19567SOL    HW263387  11.588   3.728  11.731  2.9372 -0.1212  0.2498
19568SOL     OW63388   6.330   3.526   1.177  0.0363  0.4451 -0.1604
19568SOL    HW163389   6.247   3.573   1.183  0.2302  0.6303  1.8141
19568SOL    HW263390   6.371   3.539   1.263  2.3973  0.8949 -1.2553
19569SOL     OW63391   3.138   7.199   8.786 -0.1676 -0.5653 -0.3075
19569SOL    HW163392   3.181   7.193   8.871  0.5899  0.8385 -0.5505
19569SOL    HW263393   3.045   7.213   8.807 -0.0508 -0.6740  0.2848
19570SOL     OW63394   9.027   4.992   4.265  0.0136 -0.1742 -0.0485
19570SOL    HW163395   9.099   4.955   4.317 -1.8889 -1.4395  1.8117
19570SOL    HW263396   9.046   4.963   4.175  2.0441 -0.0663  0.2874
19571SOL     OW63397   1.464   3.185   5.143 -0.0126 -0.2875  0.0355
19571SOL    HW163398   1.432   3.114   5.200  0.6392 -1.1943 -0.6991
19571SOL    HW263399   1.422   3.169   5.059  0.5193 -0.0826 -0.2726
19572SOL     OW63400   5.820  11.593   7.861 -0.2579 -0.6864  0.3697
19572SOL    HW163401   5.737  11.618   7.821  0.1043 -1.2401 -0.7808
19572SOL    HW263402   5.831  11.501   7.837  0.3118 -0.8296  1.1751
19573SOL     OW63403   4.573   3.687   3.405  0.5192 -0.1235 -0.6573
19573SOL    HW163404   4.491   3.690   3.355  0.2873 -0.4271 -0.3042
19573SOL    HW263405   4.579   3.772   3.447 -0.6494 -0.7579  0.9177
19574SOL     OW63406  10.182   3.476   9.372 -0.6594 -0.0786  0.3420
19574SOL    HW163407  10.206   3.526   9.450  1.5819 -2.1138  1.0758
19574SOL    HW263408  10.233   3.517   9.301 -3.5240  2.4792 -0.4469
19575SOL     OW63409   4.155  10.038  11.451 -0.5412  0.6924 -0.5010
19575SOL    HW163410   4.202  10.115  11.419 -0.4319  1.1225  0.6522
19575SOL    HW263411   4.208  10.005  11.523 -1.8785  1.0740  0.7077
19576SOL     OW63412   2.900   2.516   8.548 -0.0095 -0.2519  0.0685
19576SOL    HW163413   2.975   2.514   8.606  0.1928  0.8673 -0.1422
19576SOL    HW263414   2.867   2.606   8.552 -1.0399 -0.5923 -0.2191
19577SOL     OW63415   3.694   9.733   8.993  0.3512 -0.9082 -0.6954
19577SOL    HW163416   3.749   9.779   8.930 -0.1150  0.5067 -0.1187
19577SOL    HW263417   3.750   9.722   9.070  0.3813 -1.0712 -0.7410
19578SOL     OW63418   3.670   4.954   7.157 -0.4568  0.3557  0.2259
19578SOL    HW163419   3.676   5.005   7.077  0.6277 -1.5881 -0.9984
19578SOL    HW263420   3.580   4.922   7.158  0.4102 -2.7153 -2.3621
19579SOL     OW63421   6.483   6.019   0.565  0.3552 -0.5910  0.4991
19579SOL    HW163422   6.399   6.017   0.611  0.0564  0.0684 -0.0052
19579SOL    HW263423   6.532   6.090   0.607  0.4731 -0.6637  0.4839
19580SOL     OW63424   5.883   8.791   3.210  0.2459  0.1726  0.7623
19580SOL    HW163425   5.843   8.726   3.153  3.1350 -0.2425 -1.0270
19580SOL    HW263426   5.924   8.853   3.149  1.4211  1.0867  2.4095
19581SOL     OW63427  11.918   5.639   3.115  0.2139  0.1183 -0.2296
19581SOL    HW163428  11.955   5.713   3.067  0.7584 -0.7519 -1.1875
19581SOL    HW263429  11.839   5.616   3.066 -0.1493  0.2778  0.2720
19582SOL     OW63430   9.090   8.915  11.589  0.1369  0.2558  0.2161
19582SOL    HW163431   9.145   8.846  11.552  2.4812  1.6847  0.8747
19582SOL    HW263432   9.087   8.983  11.521 -1.2554  0.0314  0.0083
19583SOL     OW63433  10.624   6.269   9.380  0.1290  0.5433  0.2599
19583SOL    HW163434  10.713   6.266   9.414  0.8506  2.3019 -1.3100
19583SOL    HW263435  10.631   6.238   9.290 -1.5616 -3.0394  1.1765
19584SOL     OW63436   3.409   8.685   2.988  0.1494  0.1869 -0.2976
19584SOL    HW163437   3.430   8.741   3.063 -0.5746  0.5983 -0.3968
19584SOL    HW263438   3.419   8.596   3.021 -1.4063  0.3363  0.6766
19585SOL     OW63439   9.759   3.106   5.608  0.4689  0.1359 -0.2754
19585SOL    HW163440   9.724   3.021   5.634  0.5280 -0.3120 -1.6002
19585SOL    HW263441   9.777   3.098   5.515 -1.0966  2.1227 -0.8259
19586SOL     OW63442   4.802   9.221   0.503 -0.1147 -0.4727 -0.0819
19586SOL    HW163443   4.756   9.303   0.493 -2.0571 -1.6085 -0.9420
19586SOL    HW263444   4.826   9.218   0.596 -0.3000  0.8815  0.0279
19587SOL     OW63445   8.670   3.480   3.301 -0.0163  0.2535  0.4051
19587SOL    HW163446   8.702   3.472   3.391 -0.5545  0.6264  0.6331
19587SOL    HW263447   8.724   3.549   3.262  1.3491 -1.0451 -0.0837
19588SOL     OW63448   9.635  10.008   3.787 -0.0664  0.0976  0.4434
19588SOL    HW163449   9.628   9.955   3.708  0.6434 -0.8588  1.0036
19588SOL    HW263450   9.719  10.053   3.779  1.8098 -2.7426  2.2152
19589SOL     OW63451   4.082   2.283   4.937 -0.0456 -0.4310  0.1722
19589SOL    HW163452   4.114   2.358   4.987 -0.0114 -0.1863 -0.2157
19589SOL    HW263453   4.108   2.301   4.847 -0.0988 -0.8754  0.0655
19590SOL     OW63454   0.918   6.826   0.675  0.5205 -0.0584  0.0942
19590SOL    HW163455   0.996   6.881   0.671  0.9208 -0.5987  0.3337
19590SOL    HW263456   0.943   6.746   0.627  0.7827 -1.0347  1.7698
19591SOL     OW63457   1.444   9.323  10.609 -0.2472  0.0361  0.1187
19591SOL    HW163458   1.487   9.281  10.683  2.1325  1.2839 -0.4437
19591SOL    HW263459   1.358   9.282  10.604  0.7365 -2.3703  1.5444
19592SOL     OW63460   1.057   9.781   7.167  0.4321  0.0721  0.0277
19592SOL    HW163461   1.020   9.835   7.237 -0.5521  0.2411 -0.5970
19592SOL    HW263462   1.024   9.821   7.086  1.8360  0.0972 -0.5612
19593SOL     OW63463  11.727   5.905   8.242  0.3737 -0.5038 -0.0940
19593SOL    HW163464  11.640   5.865   8.235  1.0513 -2.0463  0.0828
19593SOL    HW263465  11.770   5.883   8.159  1.0954 -0.9662  0.3986
19594SOL     OW63466   3.922   6.015   3.645 -0.1728  0.0787 -0.0135
19594SOL    HW163467   3.988   5.950   3.669 -0.0221  0.1925 -0.1194
19594SOL    HW263468   3.969   6.077   3.589  0.8200  2.6152  3.3188
19595SOL     OW63469   8.286  11.342   4.157  0.3075 -0.9601 -0.1984
19595SOL    HW163470   8.250  11.329   4.244  0.2081 -0.1947 -0.1126
19595SOL    HW263471   8.229  11.409   4.117 -0.4181 -2.1840 -1.3163
19596SOL     OW63472   7.857   3.525  11.688  0.3167 -0.0670 -0.0037
19596SOL    HW163473   7.800   3.602  11.693 -0.4616 -0.4288 -2.1630
19596SOL    HW263474   7.801   3.452  11.712 -0.0177 -0.3541 -1.5550
19597SOL     OW63475   5.657   6.949   1.910 -0.5004  0.5493  0.0660
19597SOL    HW163476   5.631   6.949   2.003 -0.9578  1.3740 -0.0487
19597SOL    HW263477   5.658   7.042   1.886 -0.7431  0.3194 -0.8529
19598SOL     OW63478   9.164   8.337   2.225 -1.1430  0.4234 -0.1969
19598SOL    HW163479   9.176   8.244   2.246  0.8708  0.9918  1.6041
19598SOL    HW263480   9.117   8.373   2.300 -1.0251  1.0319 -0.4091
19599SOL     OW63481   8.235  10.355  10.307 -0.5055 -0.8636  0.1902
19599SOL    HW163482   8.170  10.288  10.330 -0.6942 -0.9822 -0.6662
19599SOL    HW263483   8.273  10.381  10.391 -2.5535  0.1286  0.8864
19600SOL     OW63484   9.077  11.951   2.197  0.3791  0.0142 -0.5243
19600SOL    HW163485   9.142  11.950   2.127  1.4054  1.4172  0.3617
19600SOL    HW263486   9.117  11.903   2.269 -0.2375 -0.4920 -0.5052
19601SOL     OW63487   0.505   3.212   6.127 -0.3513 -0.4635  0.1499
19601SOL    HW163488   0.440   3.211   6.057 -0.6809 -2.0859  0.4475
19601SOL    HW263489   0.587   3.189   6.084  0.2570  2.2604 -0.3594
19602SOL     OW63490  10.821   2.413   0.091  0.4576  0.7615 -0.0834
19602SOL    HW163491  10.901   2.455   0.059  2.3484 -0.4727  2.6277
19602SOL    HW263492  10.822   2.326   0.050  0.9516  0.4611  0.5571
19603SOL     OW63493   6.684   3.692   3.478  0.6271  0.0947  0.4139
19603SOL    HW163494   6.599   3.709   3.438  1.8971  0.4746 -2.4079
19603SOL    HW263495   6.693   3.596   3.477  1.0711  0.1080 -1.4299
19604SOL     OW63496   4.994   2.197   6.781  0.1166  0.1364 -0.5519
19604SOL    HW163497   5.061   2.187   6.714  1.6495  1.6709  0.6790
19604SOL    HW263498   4.976   2.291   6.784 -1.1928 -0.1088  0.0032
19605SOL     OW63499   2.172  11.918   1.030  0.1639 -0.2326  0.5041
19605SOL    HW163500   2.251  11.972   1.035  0.3922 -0.6832  3.0771
19605SOL    HW263501   2.205  11.829   1.023 -0.1794 -0.2823 -0.6456
19606SOL     OW63502   7.285   2.177  11.632  0.7614  0.3956 -0.7631
19606SOL    HW163503   7.370   2.158  11.594  1.0320  0.9462 -0.4420
19606SOL    HW263504   7.300   2.177  11.727  0.4429  0.6467 -0.7082
19607SOL     OW63505   9.323  10.736   9.743  0.0704  0.4115  0.2676
19607SOL    HW163506   9.318  10.763   9.651  0.2552  1.8563  0.6487
19607SOL    HW263507   9.339  10.642   9.740 -0.6253  0.3045 -1.1698
19608SOL     OW63508   3.779   7.071   9.075 -0.6183 -0.0223 -0.1268
19608SOL    HW163509   3.701   7.017   9.092 -0.5049 -0.3754 -0.7139
19608SOL    HW263510   3.839   7.012   9.030 -0.0151  0.2576  0.3014
19609SOL     OW63511  10.426   9.341   1.244 -0.2144  0.0701  0.7436
19609SOL    HW163512  10.506   9.291   1.262 -0.0941 -0.6779 -1.5533
19609SOL    HW263513  10.430   9.415   1.305  3.7437  1.6376 -1.0445
19610SOL     OW63514   7.868   4.189   6.722 -0.6211 -0.0284  0.1094
19610SOL    HW163515   7.824   4.104   6.732 -1.8991  0.5234 -0.6364
19610SOL    HW263516   7.921   4.198   6.802 -1.2802 -1.0552  0.6825
19611SOL     OW63517   5.196   5.442   3.361 -0.0155 -0.6775  0.0581
19611SOL    HW163518   5.177   5.365   3.307 -0.7725 -0.4297 -0.0514
19611SOL    HW263519   5.111   5.484   3.372  0.1507 -0.6279  1.3125
19612SOL     OW63520   0.609   5.718   6.330  0.4395  0.7372  0.3346
19612SOL    HW163521   0.560   5.657   6.275  0.6259  1.8173 -1.0867
19612SOL    HW263522   0.545   5.784   6.357  0.4218  0.3939  1.1452
19613SOL     OW63523   4.570   0.426   0.733  0.0503  0.1161 -0.2373
19613SOL    HW163524   4.502   0.460   0.676  0.2761  0.4330 -0.3190
19613SOL    HW263525   4.589   0.497   0.794 -0.2427 -0.2462  0.2799
19614SOL     OW63526   7.283   6.847   1.452  0.6253 -0.4085 -0.4971
19614SOL    HW163527   7.194   6.881   1.448  0.7837  1.1801  3.8968
19614SOL    HW263528   7.333   6.904   1.394 -0.9402 -0.3274 -1.8231
19615SOL     OW63529   0.280   2.449   7.488  0.7728  0.2128  0.1027
19615SOL    HW163530   0.363   2.454   7.537  0.7983 -0.0764  0.0926
19615SOL    HW263531   0.273   2.534   7.444  1.4729 -0.0552 -0.5458
19616SOL     OW63532   2.965   2.291   4.362  0.0461 -0.3368  0.0835
19616SOL    HW163533   2.991   2.366   4.416  0.4785 -0.9377  0.7160
19616SOL    HW263534   3.043   2.235   4.358 -0.2523 -0.7250 -0.4382
19617SOL     OW63535   7.772  11.743   0.013 -0.3284  0.0501 -0.8888
19617SOL    HW163536   7.746  11.823   0.060 -1.3073  0.7355 -2.5212
19617SOL    HW263537   7.846  11.710   0.064 -0.1787  1.7333  0.1069
19618SOL     OW63538   0.028   9.631   9.360  0.2906 -0.1024 -0.1632
19618SOL    HW163539   0.006   9.620   9.268  0.7833 -1.6382 -0.1279
19618SOL    HW263540   0.122   9.647   9.361  0.5758 -1.5670  0.1096
19619SOL     OW63541   2.313   3.910  11.511 -0.3698 -0.2617 -0.3130
19619SOL    HW163542   2.310   4.004  11.529 -0.7489 -0.4213  0.4793
19619SOL    HW263543   2.284   3.868  11.592  1.1798 -1.1127 -0.1391
19620SOL     OW63544   3.872   8.843   8.837 -0.2024  0.7102  0.7022
19620SOL    HW163545   3.791   8.893   8.843  0.8414  2.6917 -0.6466
19620SOL    HW263546   3.930   8.883   8.902  0.1062  0.1049  0.8114
19621SOL     OW63547   6.329   7.036   8.444  0.4634 -0.1494 -0.4897
19621SOL    HW163548   6.255   6.976   8.435 -0.0300 -0.1711  2.5917
19621SOL    HW263549   6.407   6.982   8.433  0.0129 -0.8753 -0.1446
19622SOL     OW63550   7.507  11.653   9.459 -0.6103 -0.0800  0.1085
19622SOL    HW163551   7.519  11.735   9.507 -0.2979 -0.0042 -0.0984
19622SOL    HW263552   7.585  11.601   9.479  0.2290  0.5259 -1.4661
19623SOL     OW63553   2.485   9.201   3.184 -0.2498 -0.2707 -0.6421
19623SOL    HW163554   2.509   9.125   3.237 -1.5458 -0.6777 -0.5954
19623SOL    HW263555   2.568   9.238   3.155  0.4670 -0.5643  0.9313
19624SOL     OW63556   5.907   5.740   8.339  0.5217  0.0209 -0.4696
19624SOL    HW163557   5.834   5.800   8.324  0.9993  0.6982 -0.1405
19624SOL    HW263558   5.874   5.678   8.404  0.5688  0.9460  0.4630
19625SOL     OW63559   0.413   7.538   0.186 -0.4591  0.0497 -0.0781
19625SOL    HW163560   0.347   7.496   0.241 -0.4257 -3.1718 -2.2432
19625SOL    HW263561   0.477   7.573   0.248 -1.6392 -1.2057  1.9710
19626SOL     OW63562   3.866   4.931   6.788  0.1843  0.2514 -0.3539
19626SOL    HW163563   3.807   4.866   6.827 -1.6789  1.7562 -0.5184
19626SOL    HW263564   3.869   4.910   6.695  0.4265 -0.2134 -0.2410
19627SOL     OW63565  10.239  10.094   3.529 -0.7180 -0.6386 -0.0215
19627SOL    HW163566  10.332  10.115   3.533 -0.8990  0.0442  2.0336
19627SOL    HW263567  10.201  10.160   3.471 -0.0975 -0.1330  0.1400
19628SOL     OW63568   5.542   2.310   1.294  0.0973  0.2055 -0.3967
19628SOL    HW163569   5.516   2.242   1.232 -0.2700  0.1161 -0.1483
19628SOL    HW263570   5.471   2.312   1.358  0.0701  0.8835 -0.4478
19629SOL     OW63571   4.582   4.069   0.605 -0.4707  0.6215 -0.1199
19629SOL    HW163572   4.568   4.103   0.694 -2.1976 -0.4808  0.0690
19629SOL    HW263573   4.656   4.010   0.614 -0.5408  0.6247  0.5742
19630SOL     OW63574   2.108   2.910  11.931  0.3396 -0.1796 -0.1049
19630SOL    HW163575   2.021   2.950  11.932  0.3161 -0.2189  1.2274
19630SOL    HW263576   2.151   2.947  11.854 -0.8855 -0.2364 -0.8373
19631SOL     OW63577   1.541   3.923   4.901  0.3947 -0.0197 -0.3195
19631SOL    HW163578   1.594   3.845   4.884  0.4716  0.2972 -1.7156
19631SOL    HW263579   1.583   3.992   4.848 -1.0736  0.3762 -1.0222
19632SOL     OW63580   2.219   9.365   8.974  0.4579 -0.6402 -0.1977
19632SOL    HW163581   2.141   9.358   9.029  0.1637  0.1411 -0.5051
19632SOL    HW263582   2.286   9.317   9.023 -1.0284 -4.5120 -1.6216
19633SOL     OW63583   7.302  10.237   7.886  0.4696  0.3980 -0.1832
19633SOL    HW163584   7.245  10.313   7.871 -1.8130 -0.5711  2.6562
19633SOL    HW263585   7.263  10.167   7.834 -1.7431 -0.5216  2.4937
19634SOL     OW63586  10.875  10.666   0.689 -0.1555  0.3340  0.0119
19634SOL    HW163587  10.859  10.761   0.689 -1.1440  0.2254 -1.8797
19634SOL    HW263588  10.962  10.656   0.725  0.8597  2.1925 -1.7291
19635SOL     OW63589   9.715   0.183   7.059  0.9282 -0.3356 -0.1369
19635SOL    HW163590   9.688   0.092   7.052  1.3954 -0.4342 -0.8271
19635SOL    HW263591   9.811   0.180   7.066  0.9825  0.1049 -0.5418
19636SOL     OW63592  11.239  10.283   6.237  0.0728 -0.2226 -0.2898
19636SOL    HW163593  11.308  10.342   6.206  1.8638 -1.6962  0.6952
19636SOL    HW263594  11.230  10.219   6.167  0.9056 -0.9667  0.2648
19637SOL     OW63595   5.450   5.143  10.082  0.5098 -0.3968  0.0313
19637SOL    HW163596   5.407   5.227  10.097  0.2231 -0.3493 -1.0203
19637SOL    HW263597   5.486   5.119  10.168  0.6036  0.7927  0.3371
19638SOL     OW63598   8.076   0.940  11.105 -0.2565 -0.6216  0.4423
19638SOL    HW163599   8.120   0.895  11.177  0.3671 -0.8163 -0.0453
19638SOL    HW263600   8.053   1.026  11.140  0.2329 -0.6371  0.8110
19639SOL     OW63601   9.046   2.707   3.934 -0.1298 -0.2423  0.0176
19639SOL    HW163602   9.028   2.747   3.849 -0.6616 -1.0504 -0.2590
19639SOL    HW263603   9.134   2.670   3.926  0.0386  0.1511  0.0083
19640SOL     OW63604   5.353  10.707   2.809 -0.1510 -0.1097  0.0946
19640SOL    HW163605   5.347  10.621   2.850 -1.4645  0.0968  0.3604
19640SOL    HW263606   5.334  10.769   2.880 -2.0788  0.2694 -0.7003
19641SOL     OW63607   3.011   8.487   2.684  0.0638  0.3709  0.2551
19641SOL    HW163608   3.071   8.461   2.754  1.6388 -1.8825 -1.7186
19641SOL    HW263609   2.953   8.411   2.673 -1.3293  1.4029  0.2717
19642SOL     OW63610  10.652   0.496  10.270  0.1965  0.1589  0.1974
19642SOL    HW163611  10.633   0.510  10.178 -0.2764 -0.3429  0.2184
19642SOL    HW263612  10.628   0.579  10.312 -1.0046 -0.1243  0.0839
19643SOL     OW63613   3.129   3.312   5.429  0.1761  0.1869 -0.0456
19643SOL    HW163614   3.050   3.365   5.418  0.0142  0.0516  0.4302
19643SOL    HW263615   3.097   3.222   5.436  0.3926  0.1050 -0.0985
19644SOL     OW63616   4.354   2.046   9.405 -0.4771 -0.2135  0.5967
19644SOL    HW163617   4.358   2.088   9.491  1.2960 -1.3597  1.1342
19644SOL    HW263618   4.406   2.102   9.348 -1.9780  0.7578  0.1368
19645SOL     OW63619  10.347   5.435   0.755 -0.3497  0.3480  0.1891
19645SOL    HW163620  10.371   5.354   0.711  0.3408  0.1521  0.9082
19645SOL    HW263621  10.287   5.409   0.824 -1.1536  0.6150 -0.3897
19646SOL     OW63622   8.907   0.736   6.495  0.0160 -0.2962 -0.5489
19646SOL    HW163623   8.966   0.735   6.419  1.5110  0.0748  0.5725
19646SOL    HW263624   8.890   0.828   6.512 -0.3632 -0.3811 -0.4467
19647SOL     OW63625   9.701   6.819  11.380 -0.0943  0.6209 -0.5526
19647SOL    HW163626   9.752   6.771  11.445 -1.7983 -1.8776 -0.9318
19647SOL    HW263627   9.672   6.898  11.426  1.2713  0.4298  0.6988
19648SOL     OW63628   8.290   0.572   2.816  0.1288 -0.4887 -0.3014
19648SOL    HW163629   8.205   0.569   2.772  0.7906 -2.6844 -1.5749
19648SOL    HW263630   8.349   0.611   2.751  0.5538 -1.1096 -0.2878
19649SOL     OW63631   6.354   5.160   0.881  0.4145  0.9761 -0.5507
19649SOL    HW163632   6.399   5.128   0.959  0.6774  4.2593  0.7961
19649SOL    HW263633   6.376   5.097   0.812  0.6095 -1.7543  1.8575
19650SOL     OW63634   7.711   1.348   8.068  0.1911 -0.0364 -0.3608
19650SOL    HW163635   7.699   1.359   7.974  0.9836 -1.4102 -0.6429
19650SOL    HW263636   7.626   1.315   8.099  0.7053 -2.2391 -1.0870
19651SOL     OW63637   6.387   9.929   5.460  0.7479  0.0866  0.3706
19651SOL    HW163638   6.376  10.005   5.516 -1.9616 -1.8939  2.8376
19651SOL    HW263639   6.473   9.894   5.483  0.4045  0.2954  2.1284
19652SOL     OW63640   9.647  10.881   0.020  0.1916 -0.3320  0.0773
19652SOL    HW163641   9.560  10.883   0.059  0.4777 -0.1551  0.7302
19652SOL    HW263642   9.634  10.849  -0.069 -0.5484 -0.2152  0.1448
19653SOL     OW63643  11.246   0.306   7.364  0.3877 -0.5464 -0.1764
19653SOL    HW163644  11.271   0.219   7.331  1.7212  0.0150 -0.7421
19653SOL    HW263645  11.321   0.334   7.416 -0.4286 -0.1195  0.7924
19654SOL     OW63646  11.888   5.550   6.001  0.1136 -0.0755  0.2355
19654SOL    HW163647  11.840   5.565   5.920 -0.5857  0.7781  0.7816
19654SOL    HW263648  11.822   5.522   6.064  0.1942  1.5453  1.1174
19655SOL     OW63649   2.420   8.986   9.709  0.3682  0.2634 -0.2160
19655SOL    HW163650   2.325   8.991   9.700  0.4943  0.7985 -1.6406
19655SOL    HW263651   2.452   9.064   9.663  1.5040  0.0852  0.2334
19656SOL     OW63652   1.936   1.531   9.841 -0.0080  0.5184 -0.1973
19656SOL    HW163653   1.846   1.537   9.873  0.0759  0.0272  0.1348
19656SOL    HW263654   1.988   1.516   9.919  0.3518  0.6593 -0.4085
19657SOL     OW63655  11.267   7.198   1.437  0.6391  0.0816  0.8290
19657SOL    HW163656  11.302   7.178   1.350  1.8127  2.0459  0.7810
19657SOL    HW263657  11.343   7.226   1.487  0.2816 -2.5253  3.0673
19658SOL     OW63658   2.214   5.492   9.360 -0.2420 -0.7949 -0.1241
19658SOL    HW163659   2.182   5.562   9.417 -1.0020  0.8002 -2.3165
19658SOL    HW263660   2.301   5.521   9.332 -0.6300 -0.5692 -1.1819
19659SOL     OW63661   9.718   0.690   5.234  0.1138 -0.2084  0.2214
19659SOL    HW163662   9.690   0.727   5.150  1.6059  1.6988  0.4965
19659SOL    HW263663   9.646   0.707   5.294 -0.2062  0.0702 -0.2403
19660SOL     OW63664   9.289   8.149   9.799 -0.1284 -0.2524  0.7466
19660SOL    HW163665   9.266   8.219   9.860  3.0668  0.7035  1.0222
19660SOL    HW263666   9.252   8.176   9.715  0.1927  1.2650  1.0755
19661SOL     OW63667   1.991   8.219   0.815 -0.1150  0.5794  0.3832
19661SOL    HW163668   2.085   8.226   0.832  0.0704  0.0029 -0.3356
19661SOL    HW263669   1.984   8.223   0.719 -0.6424 -1.1293  0.3149
19662SOL     OW63670   5.147   2.865   9.990 -0.2352 -0.3716  0.6136
19662SOL    HW163671   5.057   2.846  10.016 -0.4411  0.0753  0.2276
19662SOL    HW263672   5.196   2.864  10.072 -0.1892 -2.7327  0.6365
19663SOL     OW63673   9.536   2.021   4.823 -0.2803 -0.2606 -0.1091
19663SOL    HW163674   9.572   2.023   4.734 -0.5754 -0.9262 -0.2458
19663SOL    HW263675   9.612   2.039   4.879  0.1789 -1.1681 -0.4195
19664SOL     OW63676   9.544   9.602   5.162 -0.0861 -0.4211 -0.0818
19664SOL    HW163677   9.505   9.688   5.151  0.2610 -0.2919 -0.3185
19664SOL    HW263678   9.483   9.555   5.219 -0.1608  0.0572  0.2416
19665SOL     OW63679   6.630   5.621  11.323 -0.2364  0.5369 -0.0418
19665SOL    HW163680   6.630   5.653  11.233  2.1571 -1.8241 -1.0121
19665SOL    HW263681   6.579   5.541  11.320 -0.2581  0.5136  0.7571
19666SOL     OW63682   5.651   6.909  11.317 -0.2994 -0.0645 -0.1086
19666SOL    HW163683   5.601   6.829  11.299  0.0957  0.0803 -2.0646
19666SOL    HW263684   5.739   6.889  11.286  0.0154  0.8550  0.1752
19667SOL     OW63685   4.931   4.807   1.430 -0.5653  0.4153 -0.2424
19667SOL    HW163686   4.894   4.786   1.344 -3.1187  0.1048  0.8357
19667SOL    HW263687   4.912   4.729   1.484  0.4866  0.8181  0.7615
19668SOL     OW63688  10.595   6.354   9.826  1.0441  0.7336 -0.0438
19668SOL    HW163689  10.568   6.442   9.853  0.3617  0.7177 -0.6562
19668SOL    HW263690  10.690   6.355   9.833  1.0220  1.4226  0.2367
19669SOL     OW63691   2.904   9.012   3.355  0.2295  0.0871 -0.5394
19669SOL    HW163692   2.920   9.021   3.261  1.4995 -1.1289 -0.4818
19669SOL    HW263693   2.982   9.052   3.395 -0.6708  1.3200  0.0443
19670SOL     OW63694   7.993   1.531   2.259  0.0543 -0.3132 -0.2042
19670SOL    HW163695   7.989   1.601   2.194  0.7401 -0.1179 -0.0368
19670SOL    HW263696   7.914   1.544   2.312 -0.4140 -0.3650 -0.8730
19671SOL     OW63697   3.172  11.905   2.175  0.4419 -0.1237  0.4245
19671SOL    HW163698   3.160  11.815   2.207 -0.0598 -0.4542 -0.6415
19671SOL    HW263699   3.264  11.910   2.150  0.5886 -0.1821  0.9409
19672SOL     OW63700   2.895   3.349   3.481  0.2059  0.1251 -0.2959
19672SOL    HW163701   2.892   3.427   3.537 -2.4850  0.6011 -0.9790
19672SOL    HW263702   2.827   3.292   3.516 -0.0866 -0.4794 -1.7750
19673SOL     OW63703   9.889   2.137  10.264  0.1518  0.1411  0.2845
19673SOL    HW163704   9.917   2.205  10.325  1.6728 -0.1428 -0.0595
19673SOL    HW263705   9.952   2.066  10.277 -0.0238 -0.2663 -1.0062
19674SOL     OW63706   1.322   3.556   2.952  0.1629  0.5031  0.2661
19674SOL    HW163707   1.317   3.504   3.032 -1.5810  1.0793  0.5735
19674SOL    HW263708   1.245   3.531   2.901  0.9925  0.4878 -1.0410
19675SOL     OW63709   3.722   6.973  11.530 -0.3680  0.3203  0.1014
19675SOL    HW163710   3.652   6.993  11.593 -2.2262  1.9879 -2.3200
19675SOL    HW263711   3.751   7.058  11.498 -0.2765 -0.4878 -2.1052
19676SOL     OW63712   2.834   9.492   2.470 -0.1456  0.1926 -0.6441
19676SOL    HW163713   2.868   9.576   2.499  0.3121 -0.3168  0.3740
19676SOL    HW263714   2.900   9.429   2.499 -0.1320 -0.4549 -2.0096
19677SOL     OW63715   8.558   0.043   5.448 -0.1642  0.3033 -0.5321
19677SOL    HW163716   8.617  -0.025   5.481  1.0549  0.4683 -2.2246
19677SOL    HW263717   8.486  -0.005   5.406 -0.8085  0.0982  0.7676
19678SOL     OW63718   9.533   6.432   4.006  0.1021  0.0991  0.0734
19678SOL    HW163719   9.482   6.367   4.055  0.7369 -0.7791 -0.4027
19678SOL    HW263720   9.471   6.501   3.985 -0.9332 -1.0143 -0.6178
19679SOL     OW63721  10.092  10.564   9.747  0.0661  0.6351  0.0791
19679SOL    HW163722  10.050  10.547   9.662  0.2352 -0.2252  0.1542
19679SOL    HW263723  10.168  10.505   9.748 -0.1763  0.3217  1.0050
19680SOL     OW63724   1.600   5.345   1.933  0.2298 -0.0772 -0.5959
19680SOL    HW163725   1.667   5.409   1.907  0.6483 -0.1987  0.1581
19680SOL    HW263726   1.520   5.397   1.943  0.7573  0.5016  0.8578
19681SOL     OW63727   1.699   3.333   4.489  0.2203 -0.0021 -0.4753
19681SOL    HW163728   1.694   3.428   4.484  0.5612 -0.0006 -0.9249
19681SOL    HW263729   1.769   3.315   4.552 -0.4215  0.0352  0.2535
19682SOL     OW63730   9.901   5.408   7.529  0.5900 -0.0553 -0.2784
19682SOL    HW163731   9.833   5.402   7.595 -0.5279 -1.1729 -1.4582
19682SOL    HW263732   9.861   5.372   7.450  3.0408 -2.2786 -0.6431
19683SOL     OW63733  10.883   9.155   1.914 -0.0183 -0.1840 -0.1360
19683SOL    HW163734  10.885   9.227   1.851  1.1270  0.2729  0.3982
19683SOL    HW263735  10.972   9.121   1.915  0.4832  0.9772  2.5338
19684SOL     OW63736   7.683   4.887   5.275  0.3339  0.1439  0.4812
19684SOL    HW163737   7.603   4.919   5.232 -0.1965 -2.7096 -0.9041
19684SOL    HW263738   7.712   4.960   5.329 -1.1775  2.5873 -1.7477
19685SOL     OW63739   0.896   6.604  11.713 -0.0736 -0.0273 -1.4446
19685SOL    HW163740   0.806   6.613  11.682 -0.5420  1.7748  0.2174
19685SOL    HW263741   0.950   6.632  11.639 -0.9670  0.5354 -1.9081
19686SOL     OW63742   8.885   0.991  10.252 -0.2422  0.1357  0.2146
19686SOL    HW163743   8.792   0.971  10.268 -0.3513 -0.3463 -0.9453
19686SOL    HW263744   8.932   0.941  10.318 -0.7990  0.4463  0.8680
19687SOL     OW63745  10.334   4.411   6.846  0.4247  0.3629 -0.2025
19687SOL    HW163746  10.359   4.373   6.930 -0.6879  0.3347  0.1224
19687SOL    HW263747  10.372   4.351   6.781 -0.8524 -1.0657  0.3060
19688SOL     OW63748  11.032   5.049   7.619  0.9568  0.5196  0.1777
19688SOL    HW163749  11.082   4.970   7.597  0.5993  0.6946 -1.4282
19688SOL    HW263750  11.036   5.102   7.539 -1.4245  0.7288  0.1337
19689SOL     OW63751   7.455   0.681   2.374 -0.1363 -0.1365  0.3273
19689SOL    HW163752   7.495   0.639   2.450  1.6755  1.2349  0.2087
19689SOL    HW263753   7.491   0.770   2.374 -1.9269  0.6506 -0.8111
19690SOL     OW63754   1.242   6.801  10.334 -0.1325  0.4515  0.6183
19690SOL    HW163755   1.246   6.880  10.388  0.5688  0.4338  0.6072
19690SOL    HW263756   1.333   6.786  10.307 -0.5700  0.9270 -1.2540
19691SOL     OW63757   2.822   1.558  10.022 -0.0655 -0.1865  0.1680
19691SOL    HW163758   2.878   1.480  10.031  0.2527 -0.0354 -0.4356
19691SOL    HW263759   2.799   1.582  10.111  0.4016 -0.5687  0.3941
19692SOL     OW63760   6.742   9.004   9.221 -0.6623  0.4080  0.4439
19692SOL    HW163761   6.816   9.026   9.166 -0.0044 -0.0048  1.1444
19692SOL    HW263762   6.678   9.074   9.205 -0.3056  0.5334 -0.4818
19693SOL     OW63763   8.951  11.904  10.455  0.2509 -0.2100 -0.1837
19693SOL    HW163764   9.014  11.975  10.459  0.4294 -0.3434 -0.5585
19693SOL    HW263765   9.004  11.825  10.446  0.0345 -0.3164 -0.5751
19694SOL     OW63766   5.665   2.762   1.773  0.3046 -0.2335 -0.0602
19694SOL    HW163767   5.641   2.846   1.735  0.1103 -0.3611 -0.2193
19694SOL    HW263768   5.730   2.784   1.840  0.0376  0.0702  0.1028
19695SOL     OW63769   8.687  11.674  11.575  0.0757 -1.1012  0.1315
19695SOL    HW163770   8.743  11.653  11.500 -1.7839 -2.3118 -0.9791
19695SOL    HW263771   8.706  11.604  11.638  0.8612 -0.6726  0.3933
19696SOL     OW63772   4.426   2.597   2.133 -0.5129 -0.2233  0.5130
19696SOL    HW163773   4.478   2.558   2.203 -0.2539 -1.8097 -0.4858
19696SOL    HW263774   4.376   2.666   2.175 -0.6662 -1.3802  2.3404
19697SOL     OW63775  10.250   7.426   9.428 -0.2555 -0.1556  0.3334
19697SOL    HW163776  10.284   7.337   9.420  0.4084  0.1068  0.2058
19697SOL    HW263777  10.320   7.482   9.394  0.0570  0.5430  2.0245
19698SOL     OW63778  10.619  10.250  11.081  0.4529 -0.1696 -0.2709
19698SOL    HW163779  10.568  10.178  11.044  3.2865 -3.0292  0.9295
19698SOL    HW263780  10.655  10.295  11.005  0.4668 -1.4855 -1.0800
19699SOL     OW63781   6.963   9.983  10.181 -0.5184  0.2985  0.5761
19699SOL    HW163782   6.916   9.912  10.225 -0.3421  1.2373  2.3848
19699SOL    HW263783   6.911  10.061  10.199 -0.0193  0.8373 -0.2589
19700SOL     OW63784   9.696  11.659   4.706 -0.4855  0.1294  0.3166
19700SOL    HW163785   9.711  11.754   4.706  1.2228 -0.1184 -0.1707
19700SOL    HW263786   9.783  11.621   4.710 -1.0439 -1.4420 -1.3716
19701SOL     OW63787   9.192   3.178  10.024  0.2039  0.1162  0.0167
19701SOL    HW163788   9.112   3.227  10.043 -0.5924 -1.6479  1.5646
19701SOL    HW263789   9.263   3.233  10.056 -0.5450  0.8570  0.4326
19702SOL     OW63790   4.012   8.529  11.181  0.1459 -0.2685  0.0696
19702SOL    HW163791   4.064   8.607  11.199 -2.3952  1.7305 -0.6514
19702SOL    HW263792   3.950   8.557  11.114 -1.4202 -2.6969  0.3878
19703SOL     OW63793   4.334   4.291   3.434 -0.6512  0.1868 -0.5176
19703SOL    HW163794   4.411   4.308   3.487 -0.3507 -0.6262 -0.6839
19703SOL    HW263795   4.308   4.378   3.401 -2.4149  1.1498  2.9913
19704SOL     OW63796  11.528   3.761   8.618  0.5969  0.0776  0.2452
19704SOL    HW163797  11.495   3.839   8.572 -3.1892 -1.3706  0.1880
19704SOL    HW263798  11.538   3.695   8.549 -0.3036 -0.6632  0.8017
19705SOL     OW63799   1.583  10.562   9.289  0.6649 -0.4527 -0.1401
19705SOL    HW163800   1.637  10.633   9.252 -2.2926  2.1021  0.0224
19705SOL    HW263801   1.549  10.516   9.212  1.4146 -0.7872 -0.2845
19706SOL     OW63802   6.290   7.158   9.700  0.2539 -0.4465  0.2674
19706SOL    HW163803   6.346   7.082   9.681 -1.8143 -2.5205  1.7687
19706SOL    HW263804   6.337   7.233   9.664  3.5406 -2.1156  0.6820
19707SOL     OW63805   7.185   2.324   5.045  0.0333 -0.2752 -0.3651
19707SOL    HW163806   7.253   2.385   5.075  0.2802 -0.1640 -1.1278
19707SOL    HW263807   7.222   2.284   4.966 -0.7293 -0.3144 -0.7142
19708SOL     OW63808   5.952  10.852  11.529  0.0124 -0.4210 -0.4048
19708SOL    HW163809   6.018  10.884  11.467  0.2245  0.5413  0.2906
19708SOL    HW263810   5.872  10.847  11.477  0.4527 -0.8639 -1.0707
19709SOL     OW63811   1.212  11.092   7.799  0.4267 -0.3688 -0.2024
19709SOL    HW163812   1.250  11.153   7.862 -0.0673  0.5307 -0.7499
19709SOL    HW263813   1.187  11.015   7.851  0.2767  0.2413  0.6377
19710SOL     OW63814   7.626   3.110   1.638  0.3013 -0.2318 -0.1770
19710SOL    HW163815   7.631   3.180   1.574 -1.5348  0.2004  0.0876
19710SOL    HW263816   7.560   3.050   1.603  1.7323 -1.8016 -0.3332
19711SOL     OW63817   6.962   8.000   5.712  0.1162  0.2731 -0.2253
19711SOL    HW163818   6.878   7.961   5.689  1.3859 -0.7398 -3.9775
19711SOL    HW263819   7.007   7.933   5.762 -0.5023 -0.0698 -0.1218
19712SOL     OW63820   0.269   0.228   2.177 -0.3354 -0.2078  0.3105
19712SOL    HW163821   0.312   0.150   2.211 -0.1329 -0.4002 -0.3934
19712SOL    HW263822   0.333   0.269   2.120 -0.5081  0.3810  0.5244
19713SOL     OW63823   6.839   6.818  10.550  0.0354 -0.4985  0.0787
19713SOL    HW163824   6.790   6.785  10.625  0.5859  0.3940  0.8533
19713SOL    HW263825   6.929   6.825  10.581 -0.0917  2.0248  0.0959
19714SOL     OW63826   0.929   6.806   2.767 -0.3144 -0.3842 -0.4832
19714SOL    HW163827   0.871   6.736   2.735 -1.8342 -0.8500  2.8773
19714SOL    HW263828   1.017   6.769   2.759 -0.7121 -1.0657 -2.4054
19715SOL     OW63829  11.548   1.107   2.081  0.4500  0.1191 -0.1105
19715SOL    HW163830  11.619   1.160   2.118 -0.3732  2.3503 -1.5319
19715SOL    HW263831  11.473   1.124   2.138 -0.2398  1.8374 -1.4550
19716SOL     OW63832  11.597  10.458   4.488 -0.6912 -0.3709  0.0779
19716SOL    HW163833  11.628  10.479   4.400 -0.9889  0.4864  0.1737
19716SOL    HW263834  11.572  10.366   4.483 -0.2622 -0.4578 -0.6035
19717SOL     OW63835   7.804   7.153  11.200 -0.7112  0.1271  0.2785
19717SOL    HW163836   7.729   7.158  11.141 -1.3931 -1.3656  0.9632
19717SOL    HW263837   7.866   7.219  11.167 -1.5063  0.0522 -1.4371
19718SOL     OW63838   4.646   8.649   3.580  0.7057 -0.4382 -0.4763
19718SOL    HW163839   4.555   8.675   3.591  0.6539  0.0730 -1.9012
19718SOL    HW263840   4.697   8.725   3.607  0.6278  0.0917 -1.7301
19719SOL     OW63841  10.294   9.234   6.061 -0.0000 -0.3856  0.1151
19719SOL    HW163842  10.250   9.191   6.135 -0.9321  0.2612 -0.0425
19719SOL    HW263843  10.379   9.260   6.095  0.3620 -1.8499  0.3743
19720SOL     OW63844   8.617   4.352   0.367 -0.9685  0.0062 -0.6955
19720SOL    HW163845   8.574   4.421   0.418 -1.8841 -1.0192 -0.0239
19720SOL    HW263846   8.547   4.315   0.313 -0.6104 -0.7329 -0.6692
19721SOL     OW63847   9.803   5.560   2.870 -0.5691 -1.0508  0.8400
19721SOL    HW163848   9.818   5.468   2.846  1.5938 -0.6196  0.3120
19721SOL    HW263849   9.808   5.607   2.787  0.6474 -0.2250  1.3572
19722SOL     OW63850   4.299   4.683   4.769 -0.1402  0.0273 -0.0533
19722SOL    HW163851   4.387   4.646   4.772  0.1086  0.5753 -0.5591
19722SOL    HW263852   4.264   4.668   4.857 -0.2667 -1.9463 -0.3781
19723SOL     OW63853  10.635   6.025   7.252  0.1435 -0.0393  0.5375
19723SOL    HW163854  10.675   5.971   7.184  0.8419  0.6355  0.4002
19723SOL    HW263855  10.679   5.998   7.333 -1.1408 -1.3028  0.8550
19724SOL     OW63856  10.883   6.195   6.663 -0.4673  0.2065 -0.1983
19724SOL    HW163857  10.833   6.137   6.721  0.0957 -1.4922 -1.3221
19724SOL    HW263858  10.818   6.255   6.627 -0.8062  1.3786  2.2058
19725SOL     OW63859   3.398   9.705   8.064 -0.5146 -0.4219 -0.3030
19725SOL    HW163860   3.401   9.670   7.975  0.9604 -0.2335 -0.3571
19725SOL    HW263861   3.442   9.790   8.058 -0.2287 -0.4856  0.6243
19726SOL     OW63862   3.056  10.760   2.201 -0.1878 -0.2386 -0.9102
19726SOL    HW163863   2.981  10.732   2.253  1.1027 -0.6835  0.8009
19726SOL    HW263864   3.020  10.775   2.113 -1.9270 -2.1322 -0.5973
19727SOL     OW63865   6.305   1.460   5.900  0.2391 -0.6462 -0.5199
19727SOL    HW163866   6.278   1.539   5.854  2.0865 -0.0679 -0.7103
19727SOL    HW263867   6.322   1.396   5.831  0.9375 -0.4633 -0.5268
19728SOL     OW63868   5.773   6.279   6.244 -0.1267 -0.4731 -0.4618
19728SOL    HW163869   5.791   6.215   6.313 -2.2256 -1.1703 -0.4904
19728SOL    HW263870   5.792   6.232   6.163  1.4907  0.0599 -0.4255
19729SOL     OW63871   6.923  11.127  11.087 -0.1853  0.1670 -0.5461
19729SOL    HW163872   6.876  11.209  11.097  0.1747  0.6285 -2.3369
19729SOL    HW263873   7.003  11.138  11.138 -0.8402  0.3148  0.4808
19730SOL     OW63874   0.557   5.539   8.364 -0.5147 -0.3119  0.8219
19730SOL    HW163875   0.574   5.453   8.403  0.8360 -1.1864 -1.5001
19730SOL    HW263876   0.643   5.579   8.356 -1.0888  1.1057  1.4646
19731SOL     OW63877   2.280   7.194  10.255 -0.0034 -0.0182 -0.0933
19731SOL    HW163878   2.346   7.138  10.215 -0.4944 -0.9905  0.4360
19731SOL    HW263879   2.308   7.205  10.346 -1.7346 -2.3917  0.8215
19732SOL     OW63880   8.539   9.295  11.808  0.4625 -0.2421  0.2157
19732SOL    HW163881   8.549   9.202  11.791 -1.3173 -0.1073 -1.9785
19732SOL    HW263882   8.576   9.338  11.731  3.4748  1.0685  2.2092
19733SOL     OW63883   2.050   0.443  10.447  0.5405  0.3130 -0.1653
19733SOL    HW163884   2.075   0.532  10.472 -1.9373  0.8099  0.8222
19733SOL    HW263885   2.043   0.396  10.530  0.3894 -0.3813 -0.5647
19734SOL     OW63886   4.627   2.283   0.061 -0.6234  0.3671  0.2613
19734SOL    HW163887   4.716   2.246   0.060 -1.1574 -1.3504  3.3928
19734SOL    HW263888   4.635   2.363   0.112 -1.0425 -0.5220  1.7779
19735SOL     OW63889   7.783  11.318   8.427 -0.1349  0.5879  0.1926
19735SOL    HW163890   7.763  11.245   8.369 -1.6657  0.6687  0.5731
19735SOL    HW263891   7.851  11.285   8.485  0.8456  0.2465 -1.1045
19736SOL     OW63892   7.099  11.344   0.877 -0.1943  0.4826  0.3431
19736SOL    HW163893   7.150  11.306   0.948 -0.6351 -0.8165 -0.0026
19736SOL    HW263894   7.120  11.437   0.880  0.0200  0.4185  1.9768
19737SOL     OW63895  11.290  11.862   4.276 -0.6370 -0.1644  0.4155
19737SOL    HW163896  11.285  11.792   4.211  0.0838  1.3562 -1.3589
19737SOL    HW263897  11.346  11.827   4.345  1.0405 -0.7981 -1.2002
19738SOL     OW63898   3.853   1.673  11.414  0.2969  0.0941 -0.8216
19738SOL    HW163899   3.854   1.607  11.483  1.0718 -0.8656 -1.7246
19738SOL    HW263900   3.906   1.745  11.449 -2.4098  1.3051  1.1151
19739SOL     OW63901  10.122   1.483   0.185  0.8664 -0.4618  0.2310
19739SOL    HW163902  10.216   1.500   0.184  1.0561 -1.2830  1.4495
19739SOL    HW263903  10.098   1.486   0.277 -0.3811  0.0998 -0.0957
19740SOL     OW63904   7.668   2.301   3.579  0.1547 -0.1723 -0.3901
19740SOL    HW163905   7.732   2.235   3.607 -1.1197 -1.4657 -0.3877
19740SOL    HW263906   7.657   2.286   3.485 -0.8872 -0.6661 -0.2042
19741SOL     OW63907   3.621   1.989   8.386 -0.1578 -0.2676 -0.5062
19741SOL    HW163908   3.558   1.942   8.440  0.9560  0.2017  1.2808
19741SOL    HW263909   3.571   2.016   8.309 -1.7791 -1.0538  0.2273
19742SOL     OW63910   1.221   9.547   1.044 -0.4887 -0.2655 -0.0231
19742SOL    HW163911   1.307   9.516   1.017 -0.8335 -1.1229 -0.1651
19742SOL    HW263912   1.217   9.527   1.138 -1.1551 -1.7537 -0.3438
19743SOL     OW63913   1.768   0.764   6.115  0.5199  0.3418  0.2702
19743SOL    HW163914   1.761   0.834   6.180 -0.9735  0.3037  0.1715
19743SOL    HW263915   1.688   0.713   6.126  0.6448 -0.1546 -1.0304
19744SOL     OW63916   1.768   2.374   2.792  0.4190  0.2855  0.1529
19744SOL    HW163917   1.809   2.322   2.723 -0.1213 -0.5168  0.4283
19744SOL    HW263918   1.809   2.460   2.784  2.9180 -0.7580  1.0878
19745SOL     OW63919  11.466   1.661  10.244  0.3152  0.1425 -0.0535
19745SOL    HW163920  11.446   1.732  10.184  1.8201 -0.3042 -1.1581
19745SOL    HW263921  11.526   1.699  10.308 -1.2737  0.6139  1.2156
19746SOL     OW63922  10.798   7.709   2.510 -0.2232 -0.6533  0.0321
19746SOL    HW163923  10.834   7.629   2.471 -2.8723 -1.5871 -0.7887
19746SOL    HW263924  10.848   7.780   2.471 -0.9818 -1.7101 -3.1790
19747SOL     OW63925   2.844   7.699   3.536  0.2405 -0.2626  0.1008
19747SOL    HW163926   2.806   7.642   3.470 -2.3729 -0.5157  1.6749
19747SOL    HW263927   2.936   7.707   3.512 -0.7496  0.5684 -4.1240
19748SOL     OW63928   4.351   2.631   9.015 -0.3563 -0.3356  0.1747
19748SOL    HW163929   4.361   2.642   8.921  0.3275  1.8683  0.4516
19748SOL    HW263930   4.257   2.634   9.031 -0.4194  1.9168 -0.2384
19749SOL     OW63931   4.274   1.185   3.179 -0.1480  0.3129  0.1563
19749SOL    HW163932   4.218   1.262   3.187 -0.2262  0.1820  1.0027
19749SOL    HW263933   4.216   1.111   3.193  0.0138  0.1180 -0.1832
19750SOL     OW63934  10.123  10.468   4.325  0.6005  0.2935 -0.0667
19750SOL    HW163935  10.175  10.516   4.388 -0.9041  2.1840 -0.1561
19750SOL    HW263936  10.032  10.490   4.347 -0.0099  0.1649 -2.2044
19751SOL     OW63937   6.486   4.239   3.927  0.0556  0.3158  0.0567
19751SOL    HW163938   6.449   4.276   3.847  0.8306  1.6866  0.2961
19751SOL    HW263939   6.449   4.151   3.932 -1.2435  0.7682 -0.9650
19752SOL     OW63940   2.805   7.665  10.771 -0.0588  0.3616 -0.2348
19752SOL    HW163941   2.713   7.691  10.779 -0.6372 -1.5205 -0.3248
19752SOL    HW263942   2.813   7.587  10.826  1.4483  0.3810 -0.3911
19753SOL     OW63943  10.466   6.970   5.623 -0.1826 -0.0909 -0.0254
19753SOL    HW163944  10.544   6.969   5.567 -0.5187 -2.8143 -0.5941
19753SOL    HW263945  10.398   7.009   5.568  0.4414  1.1385  0.0347
19754SOL     OW63946   3.549  10.655   1.884 -0.7111  0.1337 -0.1728
19754SOL    HW163947   3.538  10.712   1.807  0.6566  1.8877  0.8610
19754SOL    HW263948   3.642  10.632   1.883 -0.9249 -0.7655  0.3314
19755SOL     OW63949   2.687  11.522   7.103  0.1815 -0.1830  0.4715
19755SOL    HW163950   2.592  11.532   7.104  0.3111  1.4238  2.3106
19755SOL    HW263951   2.710  11.502   7.193  1.6625  0.2328  0.2166
19756SOL     OW63952   6.891   4.427   1.563 -0.1376  0.4741 -0.1636
19756SOL    HW163953   6.923   4.445   1.652  1.1912 -0.9627 -0.2930
19756SOL    HW263954   6.805   4.387   1.576 -0.0277  0.4313  0.4751
19757SOL     OW63955   5.367  11.328  11.698 -0.3830  0.3122 -0.3674
19757SOL    HW163956   5.415  11.375  11.767 -0.8042 -1.1035  0.9487
19757SOL    HW263957   5.431  11.266  11.663 -0.3424  0.6222 -0.8447
19758SOL     OW63958   5.358  11.585   4.482 -0.0992  0.3970  0.4145
19758SOL    HW163959   5.321  11.503   4.512 -0.9918  0.2990 -0.8848
19758SOL    HW263960   5.384  11.569   4.392 -0.5630  1.6175  0.0385
19759SOL     OW63961  10.553   1.405   1.724 -0.3463  0.5745  0.6787
19759SOL    HW163962  10.578   1.313   1.732  0.0279  0.4089 -1.7267
19759SOL    HW263963  10.460   1.403   1.705  0.0967  0.4967 -1.7341
19760SOL     OW63964   4.998   5.791   0.316 -0.1584  0.1297 -0.1612
19760SOL    HW163965   5.090   5.790   0.342 -0.0919 -1.8536 -0.2607
19760SOL    HW263966   4.989   5.869   0.261  0.7425  1.9252  2.0959
19761SOL     OW63967  10.589   6.976  10.531  0.7186  0.2050  0.0455
19761SOL    HW163968  10.559   6.897  10.487 -1.9992 -0.2624  2.4185
19761SOL    HW263969  10.514   7.035  10.528  0.6083  0.4092  3.1985
19762SOL     OW63970  10.210   3.597   4.472 -0.4341 -0.0908  0.2797
19762SOL    HW163971  10.187   3.635   4.557  0.6282  0.7217  0.2199
19762SOL    HW263972  10.286   3.647   4.443 -0.2703 -0.9155 -0.7697
19763SOL     OW63973   4.620   5.333  10.015  0.1647  0.0378 -0.0381
19763SOL    HW163974   4.576   5.417  10.023 -0.6026 -0.4064  0.5405
19763SOL    HW263975   4.707   5.354   9.981 -0.2476  0.9931 -0.5277
19764SOL     OW63976   6.706   5.038   7.117  0.0883  0.5233  0.1694
19764SOL    HW163977   6.718   5.058   7.210 -1.7688  0.9122  0.3603
19764SOL    HW263978   6.657   4.955   7.117  1.1393 -0.1252 -0.5080
19765SOL     OW63979   9.147   0.726   9.776  0.5572  0.0864  0.1531
19765SOL    HW163980   9.135   0.819   9.759  0.3194  0.1032  0.4048
19765SOL    HW263981   9.153   0.686   9.689  0.5020  0.3148  0.0434
19766SOL     OW63982  10.345   6.604   4.025  0.2577 -0.4293 -0.4087
19766SOL    HW163983  10.259   6.620   3.986  0.7721  0.1732 -1.3407
19766SOL    HW263984  10.331   6.619   4.119 -0.3639  1.0305 -0.6902
19767SOL     OW63985   2.398   1.511   1.580  0.1474 -0.6855 -0.2762
19767SOL    HW163986   2.315   1.524   1.624 -0.2258  0.6312 -1.2987
19767SOL    HW263987   2.394   1.569   1.503  2.6158  0.6252  0.4710
19768SOL     OW63988  11.269   7.916   0.060 -0.3199  0.3848 -0.1332
19768SOL    HW163989  11.294   7.930   0.151 -1.5457 -0.7337  0.4095
19768SOL    HW263990  11.194   7.973   0.046 -1.0218 -0.4727  0.0126
19769SOL     OW63991   7.742   9.272   8.231  0.1556  0.5862  0.5105
19769SOL    HW163992   7.824   9.319   8.215  0.3988  0.0657  0.1796
19769SOL    HW263993   7.766   9.179   8.221 -0.5882  0.4527 -0.1112
19770SOL     OW63994   3.858   4.187   6.588 -0.4477 -0.1009 -0.0451
19770SOL    HW163995   3.904   4.271   6.585  0.3584 -0.5542 -1.2856
19770SOL    HW263996   3.787   4.195   6.524 -3.3081  1.1791  2.9913
19771SOL     OW63997   8.410   4.132   8.821  0.1643 -0.2034  0.2310
19771SOL    HW163998   8.435   4.189   8.748 -0.7310  1.8918  1.4599
19771SOL    HW263999   8.493   4.110   8.864  0.5804 -0.3113 -0.6100
19772SOL     OW64000   8.561   7.482  10.436 -0.0577  0.5512  0.2523
19772SOL    HW164001   8.611   7.403  10.414 -2.2816 -0.9533  0.2544
19772SOL    HW264002   8.589   7.547  10.372  0.4157 -0.8725 -1.0405
19773SOL     OW64003   6.086   4.128   0.138 -0.2785  0.7414 -0.0867
19773SOL    HW164004   6.058   4.060   0.078  0.4714  0.6127 -0.2944
19773SOL    HW264005   6.141   4.186   0.086  0.9935  0.2242  0.6268
19774SOL     OW64006   3.472  10.521   7.022 -0.0866  0.3718  0.2784
19774SOL    HW164007   3.519  10.493   7.100  1.0710  1.1907 -0.0966
19774SOL    HW264008   3.384  10.486   7.033  0.0614  0.4396  1.9350
19775SOL     OW64009   8.947   8.885   9.166  0.1415 -0.2891 -0.6615
19775SOL    HW164010   9.040   8.899   9.181 -0.0069 -0.9291  1.1721
19775SOL    HW264011   8.940   8.793   9.141 -0.0754 -0.5494  0.3090
19776SOL     OW64012   1.531  11.615   7.203 -0.1714  0.2116  0.1431
19776SOL    HW164013   1.531  11.660   7.119 -1.1358  0.1252  0.0895
19776SOL    HW264014   1.523  11.685   7.268  0.6495  0.2839  0.1733
19777SOL     OW64015   5.687   4.691   6.986  0.0681 -0.1109  0.1380
19777SOL    HW164016   5.687   4.677   6.891 -0.5220  2.2964 -0.2863
19777SOL    HW264017   5.632   4.620   7.021 -0.5751 -0.4211 -1.4338
19778SOL     OW64018   9.615   5.297   9.249 -0.4426  0.0173  0.3199
19778SOL    HW164019   9.585   5.279   9.160  0.0130  0.6143  0.0326
19778SOL    HW264020   9.535   5.310   9.300 -0.8685 -3.2674  0.7045
19779SOL     OW64021   5.006   6.837   4.294  0.3202  0.1175  0.3118
19779SOL    HW164022   5.027   6.916   4.245  1.6275 -0.0177  0.6151
19779SOL    HW264023   4.917   6.851   4.326  0.8298  1.8306  1.0718
19780SOL     OW64024  11.146   6.661   6.519  0.3013  0.0786 -0.3115
19780SOL    HW164025  11.099   6.725   6.466 -0.1680  1.0325  1.1925
19780SOL    HW264026  11.168   6.708   6.599 -0.9825 -1.9045  1.3166
19781SOL     OW64027   4.392   4.295   1.194  0.6295 -0.1146  0.0338
19781SOL    HW164028   4.368   4.361   1.258 -0.2650 -0.9772  0.6124
19781SOL    HW264029   4.311   4.276   1.146  1.4647  1.2387 -2.0880
19782SOL     OW64030   6.263   4.517   4.359 -0.4124 -0.5250 -0.1574
19782SOL    HW164031   6.306   4.483   4.437 -0.2320  0.7776  0.3430
19782SOL    HW264032   6.275   4.612   4.365 -0.2772 -0.4150 -1.8403
19783SOL     OW64033  11.246  10.650   5.492 -0.3775 -0.5840  0.9010
19783SOL    HW164034  11.166  10.646   5.439  0.0688 -0.7175  0.2252
19783SOL    HW264035  11.235  10.728   5.546 -0.1195  0.5034 -0.5673
19784SOL     OW64036   0.441   5.222  11.641  0.8042 -0.1905 -0.2930
19784SOL    HW164037   0.372   5.170  11.599  0.0529  0.1594  0.4818
19784SOL    HW264038   0.457   5.294  11.580 -0.3595  0.3750  0.0328
19785SOL     OW64039   5.911   3.386   7.191  0.0953 -0.0648  0.4134
19785SOL    HW164040   5.902   3.365   7.098 -1.5120  1.4653  0.1766
19785SOL    HW264041   5.831   3.350   7.231  0.4167 -0.0476  1.0741
19786SOL     OW64042  10.816   1.985   2.232 -0.6032  0.5757  0.1917
19786SOL    HW164043  10.764   1.927   2.177  0.1006  0.7993 -0.7403
19786SOL    HW264044  10.901   1.990   2.188  0.4930 -0.3940  2.0828
19787SOL     OW64045   4.050   1.581   9.669  0.6652 -0.0055  0.1316
19787SOL    HW164046   4.063   1.671   9.638  1.6167 -0.6727 -1.5537
19787SOL    HW264047   4.077   1.582   9.760  1.6532  1.2065 -0.1523
19788SOL     OW64048   6.214   8.765   7.406  0.6422  0.0303  0.4123
19788SOL    HW164049   6.280   8.833   7.410 -1.5487  2.4107 -0.8948
19788SOL    HW264050   6.141   8.804   7.358 -0.6506 -3.3733 -0.7444
19789SOL     OW64051  10.817   5.938   0.860  0.0506  1.2781  0.4682
19789SOL    HW164052  10.850   5.910   0.775  0.8793 -0.5631  1.3320
19789SOL    HW264053  10.853   6.026   0.873  0.0983  1.4815 -0.9735
19790SOL     OW64054   8.540  11.874   7.147  0.0112 -0.0098 -0.4517
19790SOL    HW164055   8.594  11.951   7.163  0.0672 -0.1544  0.0575
19790SOL    HW264056   8.587  11.826   7.079  0.1036  0.2776 -0.5933
19791SOL     OW64057  10.015   0.268   9.906 -0.1631 -0.3535 -0.0786
19791SOL    HW164058  10.053   0.345   9.947 -0.5921 -0.4618  0.5439
19791SOL    HW264059  10.028   0.282   9.813  0.2435  0.2147  0.0539
19792SOL     OW64060   2.897   2.755   9.929  0.2894  0.1941  0.0477
19792SOL    HW164061   2.834   2.767   9.857  0.2121  0.7154  0.1973
19792SOL    HW264062   2.967   2.816   9.909  1.9612 -2.0667 -1.4190
19793SOL     OW64063   8.759   0.060   0.694  0.8539  0.6427 -0.0865
19793SOL    HW164064   8.773   0.127   0.760  2.0470  0.0208  0.3195
19793SOL    HW264065   8.754  -0.022   0.743  2.4280  0.0903 -0.7782
19794SOL     OW64066   4.832   4.846   6.268 -0.6172 -0.1361  0.1115
19794SOL    HW164067   4.754   4.825   6.318  0.6028 -1.6793  1.4801
19794SOL    HW264068   4.848   4.768   6.215  0.5145 -0.2387  0.5798
19795SOL     OW64069  10.995   2.464   1.233 -0.2720 -0.4785  0.6075
19795SOL    HW164070  10.968   2.372   1.235 -2.0018 -0.0096  0.5347
19795SOL    HW264071  11.008   2.487   1.325  0.5245 -0.8852  0.6019
19796SOL     OW64072  10.005   6.957   4.300 -0.4924 -0.0086  0.1349
19796SOL    HW164073  10.008   7.010   4.220 -1.1777  0.6342  0.5274
19796SOL    HW264074  10.024   7.019   4.370 -1.4881 -0.2392  0.6229
19797SOL     OW64075   5.810   1.399  11.754 -0.0366 -0.2544 -0.0822
19797SOL    HW164076   5.820   1.435  11.666 -1.5571  1.0681  0.2300
19797SOL    HW264077   5.826   1.474  11.812  1.6013 -1.2487  0.8434
19798SOL     OW64078   8.734   3.536   5.518 -0.5206 -0.0086 -0.3101
19798SOL    HW164079   8.734   3.521   5.613  0.1752  0.9394 -0.1414
19798SOL    HW264080   8.736   3.449   5.480 -0.7309 -0.4014  0.5531
19799SOL     OW64081   7.292   9.818   5.853  0.1400 -0.2262  0.8473
19799SOL    HW164082   7.337   9.805   5.937  0.0298  0.8042  1.0815
19799SOL    HW264083   7.209   9.771   5.863 -0.2423  0.5905  1.6424
19800SOL     OW64084   1.897   8.225   1.511 -0.1690  0.1326 -0.0559
19800SOL    HW164085   1.985   8.191   1.497 -0.1783  0.1711 -0.2026
19800SOL    HW264086   1.838   8.158   1.476 -0.1520  1.1628 -2.1982
19801SOL     OW64087   8.536   3.837  10.590 -0.0391  0.1882 -0.1548
19801SOL    HW164088   8.467   3.903  10.584  0.3146  0.4843 -1.3044
19801SOL    HW264089   8.490   3.755  10.609 -0.6074  0.5436  0.0061
19802SOL     OW64090   2.309   3.640  10.119  0.2369  0.4085 -0.0455
19802SOL    HW164091   2.364   3.658  10.195 -0.8151 -1.3243  1.2012
19802SOL    HW264092   2.335   3.705  10.054  2.5880  0.6584  1.0620
19803SOL     OW64093   0.580   8.906  11.527  0.0879  0.6421  0.8045
19803SOL    HW164094   0.541   8.883  11.442  1.1786  0.4208  0.3447
19803SOL    HW264095   0.627   8.987  11.510  0.4997  0.4774  1.1314
19804SOL     OW64096   5.911   9.627   8.175 -0.5189 -0.0197 -0.0436
19804SOL    HW164097   5.916   9.596   8.085 -2.5048 -0.6129  0.0071
19804SOL    HW264098   5.971   9.571   8.223  0.5822  0.3178 -0.9756
19805SOL     OW64099   7.178   7.194   9.729 -0.2604  0.1167 -0.5721
19805SOL    HW164100   7.269   7.166   9.720 -0.2973 -0.5541  0.9022
19805SOL    HW264101   7.134   7.119   9.768 -0.9634  1.2190  0.8551
19806SOL     OW64102   1.476  10.959   8.081  0.1394 -0.0479  0.2096
19806SOL    HW164103   1.430  10.919   8.006  0.9357  0.7384 -0.7217
19806SOL    HW264104   1.566  10.928   8.072  0.6291  1.4294 -0.1683
19807SOL     OW64105   8.712   3.593   7.770  0.0418  0.3323 -0.0947
19807SOL    HW164106   8.708   3.503   7.802 -1.3634 -0.5897 -2.6413
19807SOL    HW264107   8.791   3.629   7.811  1.7716 -2.6782 -0.4734
19808SOL     OW64108   3.477   2.764   1.264 -0.5161  0.7336  0.0479
19808SOL    HW164109   3.470   2.670   1.249  0.8974  0.4530  0.9602
19808SOL    HW264110   3.410   2.802   1.207  0.4480 -0.6470 -2.1641
19809SOL     OW64111   4.626   2.846   8.617  0.2544 -0.1557 -0.2186
19809SOL    HW164112   4.687   2.843   8.543 -1.2212 -2.2496 -1.4565
19809SOL    HW264113   4.567   2.773   8.602 -0.4913 -0.2859  2.7639
19810SOL     OW64114   9.102   6.547   6.720 -0.1088  0.1005 -0.4387
19810SOL    HW164115   9.052   6.480   6.674 -1.4888 -0.2310  1.4130
19810SOL    HW264116   9.037   6.612   6.747  0.7119  0.5646  0.5187
19811SOL     OW64117   5.430   5.635   3.347 -0.0278  0.3893 -0.3410
19811SOL    HW164118   5.481   5.595   3.277  0.2122 -0.4251  0.2783
19811SOL    HW264119   5.355   5.577   3.359 -0.0188  0.4674  0.1327
19812SOL     OW64120   3.873  11.940   3.127  0.2211  0.0159  0.1317
19812SOL    HW164121   3.887  11.864   3.070 -1.3477 -0.2472  0.0575
19812SOL    HW264122   3.947  11.998   3.108  1.7785 -1.7047  0.6023
19813SOL     OW64123   0.516   7.186   7.443 -0.3543  0.3439 -0.2882
19813SOL    HW164124   0.592   7.244   7.440  0.0334 -0.0575  1.0701
19813SOL    HW264125   0.543   7.114   7.500 -0.7647 -1.2816 -2.0652
19814SOL     OW64126   4.426   8.527   7.464 -0.4419 -0.0991 -0.0974
19814SOL    HW164127   4.422   8.487   7.377  1.0336 -1.7365  0.5216
19814SOL    HW264128   4.358   8.482   7.514  0.6556 -1.2800  0.3681
19815SOL     OW64129   0.656   2.245   5.376  0.4225 -0.5585 -0.5424
19815SOL    HW164130   0.580   2.188   5.362 -0.4324  0.6106 -0.8446
19815SOL    HW264131   0.643   2.280   5.464  0.1575  0.2967 -0.9172
19816SOL     OW64132   2.506  11.461   3.315 -0.3874  0.2296  0.3104
19816SOL    HW164133   2.421  11.431   3.281 -0.6940 -0.2257  1.4321
19816SOL    HW264134   2.494  11.554   3.331 -0.2783  0.4251 -0.6773
19817SOL     OW64135   0.734   1.139   2.120 -0.5537 -0.0922  0.3394
19817SOL    HW164136   0.671   1.142   2.192 -0.7363 -0.5207  0.1978
19817SOL    HW264137   0.767   1.049   2.121 -0.2583  0.0107  0.1388
19818SOL     OW64138   0.302   9.675   8.408  0.2729  0.5715 -0.1115
19818SOL    HW164139   0.302   9.681   8.312 -1.4828  1.2218 -0.1097
19818SOL    HW264140   0.268   9.587   8.426  1.0039  0.2931 -0.0822
19819SOL     OW64141   3.777   1.296   2.756  0.0688 -0.5123 -0.3025
19819SOL    HW164142   3.707   1.240   2.790 -0.3465 -0.2320 -0.6838
19819SOL    HW264143   3.772   1.286   2.661 -0.2820  0.4823 -0.4014
19820SOL     OW64144   0.920   7.122   4.831  0.1081 -0.1833 -0.0468
19820SOL    HW164145   0.963   7.046   4.791  0.7125 -0.1495  0.5315
19820SOL    HW264146   0.886   7.171   4.757  0.1279 -0.7710 -0.4560
19821SOL     OW64147   7.039   5.121   8.149 -0.0940  0.3739  0.0441
19821SOL    HW164148   7.086   5.039   8.134  1.1295  1.0323  0.1414
19821SOL    HW264149   7.071   5.151   8.234  0.1026  1.3627 -0.3696
19822SOL     OW64150   9.039  11.644  10.387  0.2242  0.1672  0.1688
19822SOL    HW164151   9.115  11.611  10.435  0.3947  1.0056  0.4872
19822SOL    HW264152   9.063  11.633  10.295 -0.5686 -2.5216  0.1946
19823SOL     OW64153   4.553   4.689   2.576 -0.9120 -0.0732  0.3259
19823SOL    HW164154   4.514   4.630   2.512 -1.0929  2.2019 -1.8183
19823SOL    HW264155   4.633   4.720   2.533 -1.3039  1.9225  0.9691
19824SOL     OW64156   9.308  11.595   4.167 -0.4218 -0.1753 -0.0359
19824SOL    HW164157   9.371  11.641   4.112 -1.7460  0.2171 -1.2764
19824SOL    HW264158   9.291  11.513   4.121  1.4504 -1.7315  1.8448
19825SOL     OW64159   0.034   6.250  10.717  0.2525  0.6503 -0.5679
19825SOL    HW164160   0.081   6.209  10.789  1.2258 -0.6123 -1.8527
19825SOL    HW264161  -0.047   6.284  10.757  1.2925  1.0631  1.2979
19826SOL     OW64162   2.476   0.879   4.505 -0.5939  0.4193 -0.8718
19826SOL    HW164163   2.454   0.788   4.486 -1.9190  0.7142 -0.8170
19826SOL    HW264164   2.568   0.887   4.479 -0.3076 -1.0595 -0.4105
19827SOL     OW64165   1.904   8.624   0.796  0.1939  0.6284 -0.1176
19827SOL    HW164166   1.941   8.661   0.715 -2.0173  0.9236 -1.0562
19827SOL    HW264167   1.811   8.614   0.778 -0.1853 -0.3640  2.0378
19828SOL     OW64168   7.720   8.683   0.750  0.8986  0.0288  0.1078
19828SOL    HW164169   7.700   8.747   0.818  0.8424  1.2048 -0.9716
19828SOL    HW264170   7.669   8.712   0.674  2.9709  0.3434 -1.2630
19829SOL     OW64171   9.206   8.007   0.816  0.1243 -0.2816  0.3987
19829SOL    HW164172   9.112   7.990   0.806  0.0771 -0.0283  0.4274
19829SOL    HW264173   9.211   8.087   0.867  0.3202  1.2274 -1.8406
19830SOL     OW64174   8.513   9.280   7.795  0.2198  0.3057 -0.3633
19830SOL    HW164175   8.553   9.202   7.833 -0.7691  0.0588  0.2117
19830SOL    HW264176   8.478   9.328   7.871  0.7170  1.2499 -0.7173
19831SOL     OW64177   5.357   7.607   1.665 -0.6450 -0.0840  0.0719
19831SOL    HW164178   5.366   7.630   1.758  1.1181  0.2191 -0.1456
19831SOL    HW264179   5.414   7.669   1.620 -0.4013 -1.1398 -1.0994
19832SOL     OW64180   9.076   4.551   1.839 -0.4863  0.1403  0.3239
19832SOL    HW164181   9.000   4.503   1.808  0.0782 -0.1348 -0.7053
19832SOL    HW264182   9.142   4.537   1.771  0.9518 -0.7999  1.8346
19833SOL     OW64183   6.532  10.714   9.831  0.7183 -0.3425 -0.2474
19833SOL    HW164184   6.622  10.733   9.804  0.8513 -0.4909  0.0821
19833SOL    HW264185   6.485  10.796   9.819  0.7334 -0.4529 -1.0857
19834SOL     OW64186   8.601   3.848   3.391 -0.0863  0.0693 -0.3263
19834SOL    HW164187   8.541   3.816   3.324  1.5519 -1.6509 -1.0633
19834SOL    HW264188   8.680   3.795   3.380  1.9822  2.8420 -0.0735
19835SOL     OW64189  10.794   5.979   8.588  0.4105  0.7794 -0.6321
19835SOL    HW164190  10.755   5.916   8.528  0.4616 -1.0507  1.1705
19835SOL    HW264191  10.836   6.044   8.530  1.6035 -1.5860 -2.6011
19836SOL     OW64192   3.145   8.574   0.238 -0.3461  0.1969 -0.1549
19836SOL    HW164193   3.112   8.490   0.268 -1.7214  0.2719 -1.3696
19836SOL    HW264194   3.181   8.556   0.151  1.7725  0.3705  0.6293
19837SOL     OW64195  11.867   6.886   5.734  0.5696 -0.1436 -0.1448
19837SOL    HW164196  11.839   6.977   5.739  2.6260  0.4799  1.6740
19837SOL    HW264197  11.785   6.836   5.729 -0.7078  1.6964  1.1038
19838SOL     OW64198   9.463   4.311  11.464 -0.5515 -0.0879 -0.4385
19838SOL    HW164199   9.466   4.407  11.457 -0.4083 -0.2202 -3.0556
19838SOL    HW264200   9.425   4.295  11.550  1.0391  2.2885  0.8426
19839SOL     OW64201   5.880   6.410   9.525  0.0214  0.2435  0.1386
19839SOL    HW164202   5.925   6.330   9.552  1.4750  1.0590  0.2696
19839SOL    HW264203   5.850   6.450   9.607  2.7474  1.7456  0.5595
19840SOL     OW64204   3.000   2.116   7.438  0.3693 -0.0363  0.5090
19840SOL    HW164205   3.095   2.108   7.444  0.5674  2.7600  3.3848
19840SOL    HW264206   2.972   2.137   7.527 -2.6774  1.4753 -0.6733
19841SOL     OW64207   0.531   4.204   7.046  0.0577  0.0966  0.1542
19841SOL    HW164208   0.520   4.208   6.951 -2.1277  1.5568  0.3843
19841SOL    HW264209   0.515   4.112   7.068  5.5106 -1.5078 -1.2219
19842SOL     OW64210   3.027   4.737   9.215 -0.1290  0.2442  0.0628
19842SOL    HW164211   2.946   4.714   9.260  0.2418  0.5283  0.9026
19842SOL    HW264212   3.045   4.827   9.244  0.0759  0.4710 -0.7347
19843SOL     OW64213   7.712   8.789   2.901 -0.3045 -0.5720 -0.2844
19843SOL    HW164214   7.752   8.755   2.821  4.1912  0.3518  1.2774
19843SOL    HW264215   7.718   8.717   2.963 -1.7403 -0.5862 -0.1370
19844SOL     OW64216   1.239   3.713   5.516  0.5121  0.0417  0.1402
19844SOL    HW164217   1.286   3.674   5.443  0.5988  0.4717 -0.0343
19844SOL    HW264218   1.147   3.710   5.490  0.5332  0.0941  0.0587
19845SOL     OW64219   3.973   7.250   3.699 -0.1995 -0.7441  0.4070
19845SOL    HW164220   3.933   7.317   3.756 -0.3579  0.0914 -0.6425
19845SOL    HW264221   3.968   7.169   3.750 -0.4866 -0.0600  1.5078
19846SOL     OW64222   4.224   9.199   3.813 -0.1037 -0.2580  0.3257
19846SOL    HW164223   4.239   9.290   3.785  2.0334 -0.8755 -0.7432
19846SOL    HW264224   4.206   9.206   3.907 -1.1075  1.3580  0.0447
19847SOL     OW64225   6.366   6.886  10.427  0.0889 -0.0983 -0.6208
19847SOL    HW164226   6.415   6.967  10.440  0.0418 -0.2796  0.8728
19847SOL    HW264227   6.429   6.825  10.389  1.1125 -0.3617  1.3728
19848SOL     OW64228   8.634   2.663   2.634  0.8235  0.2276 -0.3310
19848SOL    HW164229   8.644   2.572   2.607 -0.6209  0.2593 -1.0703
19848SOL    HW264230   8.665   2.664   2.725 -0.2595 -1.2847  0.1030
19849SOL     OW64231   4.642   8.330   9.874 -0.0526 -0.0770 -0.1617
19849SOL    HW164232   4.736   8.313   9.886 -0.0273 -0.3414 -0.6867
19849SOL    HW264233   4.638   8.397   9.806 -0.1887  1.3328  1.2052
19850SOL     OW64234   7.831  10.100   2.212 -0.2458  0.2323  0.2756
19850SOL    HW164235   7.883  10.054   2.146  1.1383  1.3031  0.5748
19850SOL    HW264236   7.856  10.059   2.295 -1.1921 -0.3974  0.2674
19851SOL     OW64237  11.529   1.312   1.037  0.1887 -0.3849  0.2181
19851SOL    HW164238  11.581   1.250   0.986 -0.8280 -2.1183  1.1997
19851SOL    HW264239  11.586   1.335   1.110 -0.7439 -3.3756  2.0760
19852SOL     OW64240   2.628  10.134   5.505 -0.0506  0.0271 -0.3379
19852SOL    HW164241   2.674  10.116   5.587  1.6491  1.3468 -0.9276
19852SOL    HW264242   2.645  10.057   5.451  0.2280 -0.1437 -0.0131
19853SOL     OW64243   6.280   2.926   6.247 -0.3130  0.2242  0.3065
19853SOL    HW164244   6.367   2.966   6.255 -0.2322  0.1530 -0.1908
19853SOL    HW264245   6.245   2.926   6.337  1.7604 -3.3057  1.2914
19854SOL     OW64246   8.159   1.232   6.593  0.4456  0.0461  0.9896
19854SOL    HW164247   8.071   1.225   6.632  0.4156  1.6485  1.2636
19854SOL    HW264248   8.218   1.206   6.663  0.2505  0.2294  1.2262
19855SOL     OW64249  10.323  11.022  10.445  0.4819  0.2890  0.1011
19855SOL    HW164250  10.282  11.065  10.370 -1.0801 -0.6605  0.3550
19855SOL    HW264251  10.253  11.018  10.511  0.9061 -1.6018  0.4800
19856SOL     OW64252   3.577   0.199   2.022 -0.3664  0.1695 -0.1658
19856SOL    HW164253   3.606   0.280   1.982  0.9743 -0.9212 -1.5089
19856SOL    HW264254   3.569   0.137   1.949 -0.7616 -1.0710  0.8846
19857SOL     OW64255   6.288   3.883   1.105  0.1896  0.6352 -0.9211
19857SOL    HW164256   6.295   3.962   1.158 -2.4193  0.0766  0.3988
19857SOL    HW264257   6.268   3.814   1.169  0.6318 -0.7666 -2.2494
19858SOL     OW64258   2.120   9.631  11.698 -0.1624  0.4221  0.2753
19858SOL    HW164259   2.059   9.703  11.714  0.9396  1.4834 -0.1851
19858SOL    HW264260   2.179   9.663  11.629 -0.3384 -1.3413 -0.7689
19859SOL     OW64261   8.034   2.081   3.867  0.1114 -0.0582  0.3074
19859SOL    HW164262   8.046   2.154   3.807  0.4172  0.3687  0.8817
19859SOL    HW264263   8.031   2.121   3.954  3.0280 -0.9003  0.9112
19860SOL     OW64264   4.227   4.248   3.046 -0.6760 -0.1167 -0.3924
19860SOL    HW164265   4.145   4.262   2.998  0.7056  1.3804 -2.4827
19860SOL    HW264266   4.231   4.321   3.108 -1.0876 -0.4167 -0.0029
19861SOL     OW64267   1.782   8.374   6.460 -0.9485  0.0585 -0.0638
19861SOL    HW164268   1.721   8.310   6.496 -2.0446  1.1158  0.0181
19861SOL    HW264269   1.758   8.456   6.502  0.4492  0.5271 -0.1499
19862SOL     OW64270   5.177  11.298   8.776  0.2555 -0.5646  0.1080
19862SOL    HW164271   5.129  11.381   8.780  1.8246  0.3684  0.5939
19862SOL    HW264272   5.193  11.276   8.867 -0.4771 -1.6373 -0.0056
19863SOL     OW64273  11.194   9.528  10.921  0.3251 -0.3574  0.1230
19863SOL    HW164274  11.115   9.518  10.975 -0.2709 -1.4932 -0.9119
19863SOL    HW264275  11.201   9.623  10.907 -0.0231 -0.1138  1.4019
19864SOL     OW64276  11.369  11.648   5.535 -0.7251 -0.9824  0.2182
19864SOL    HW164277  11.310  11.723   5.523  0.9384  0.3099 -0.3160
19864SOL    HW264278  11.317  11.573   5.508 -1.7183  0.2605 -1.5971
19865SOL     OW64279   1.659  11.213  11.949 -0.3220 -0.5931 -0.0344
19865SOL    HW164280   1.680  11.192  12.040 -1.1469 -3.9275 -0.4915
19865SOL    HW264281   1.583  11.271  11.955  0.1347 -0.0961  1.3867
19866SOL     OW64282   1.820   0.618   0.101 -0.2506 -0.4745 -0.9456
19866SOL    HW164283   1.881   0.619   0.176 -0.9895 -0.4744 -0.3373
19866SOL    HW264284   1.797   0.526   0.090  0.6824 -0.6096 -1.8629
19867SOL     OW64285   2.123   3.659   3.981  0.1992 -0.2407  0.4936
19867SOL    HW164286   2.186   3.716   4.024  0.1831 -0.1114  0.3472
19867SOL    HW264287   2.064   3.631   4.051 -0.7375  1.1594  0.3056
19868SOL     OW64288   4.695   0.181   8.960  0.7239 -0.2533  0.4369
19868SOL    HW164289   4.770   0.237   8.941 -1.0257  1.4291 -2.2479
19868SOL    HW264290   4.704   0.108   8.898  0.3973 -0.2880  0.4305
19869SOL     OW64291   5.907   5.821   4.668 -0.0869  0.6482 -0.6006
19869SOL    HW164292   5.844   5.889   4.691  0.2943 -0.0792  3.2401
19869SOL    HW264293   5.853   5.747   4.639 -0.7466  1.2409 -0.9155
19870SOL     OW64294   0.986   7.197   6.194 -0.1848 -0.1961 -0.6839
19870SOL    HW164295   0.917   7.139   6.226  0.2960 -1.0827 -1.1976
19870SOL    HW264296   1.009   7.161   6.108 -0.9635  1.6889 -1.7477
19871SOL     OW64297  10.581   9.264   4.579 -0.1791  0.2795  0.1373
19871SOL    HW164298  10.610   9.316   4.504  0.3598 -0.5958 -0.2886
19871SOL    HW264299  10.485   9.273   4.579 -0.0463  1.8753  0.5592
19872SOL     OW64300   2.158   9.910   9.212  0.5546  0.1494 -0.0388
19872SOL    HW164301   2.137   9.824   9.175  0.8354 -0.5400  1.3632
19872SOL    HW264302   2.253   9.909   9.223  0.6488  0.9182 -0.6439
19873SOL     OW64303   2.988   8.206   1.052 -0.4024  0.2200  0.9690
19873SOL    HW164304   2.893   8.201   1.058 -0.5304  1.7039  0.6717
19873SOL    HW264305   3.017   8.115   1.052 -1.9766 -0.3895 -1.3353
19874SOL     OW64306   0.497  10.448   7.430 -0.7371 -0.8278 -0.5090
19874SOL    HW164307   0.500  10.363   7.473 -1.2608  0.3686  2.1078
19874SOL    HW264308   0.568  10.498   7.471  0.1148 -0.2031 -2.5924
19875SOL     OW64309   2.736   4.738  10.893  0.5244  0.0516 -0.5405
19875SOL    HW164310   2.795   4.663  10.897  0.0296 -0.4040 -1.5127
19875SOL    HW264311   2.650   4.700  10.875  0.3081  0.8593 -1.2615
19876SOL     OW64312   4.280   0.128   7.920 -0.7247 -0.5637 -1.1123
19876SOL    HW164313   4.240   0.154   8.002  2.9855 -1.0861  1.0892
19876SOL    HW264314   4.271   0.204   7.863 -0.1341  1.2562  1.1274
19877SOL     OW64315   5.201  11.966   8.500 -0.0212  0.1297 -0.5264
19877SOL    HW164316   5.179  11.926   8.416  0.4541 -0.3738 -0.4207
19877SOL    HW264317   5.192  12.060   8.485 -0.1851  0.0324 -1.0680
19878SOL     OW64318   3.635  10.203  10.983 -0.3283  0.7356 -0.3379
19878SOL    HW164319   3.564  10.241  11.035 -0.4265  0.5861 -0.3603
19878SOL    HW264320   3.639  10.112  11.013 -0.4996  0.6041 -0.7143
19879SOL     OW64321   7.097   0.633   9.544  0.1478 -0.6584  0.1784
19879SOL    HW164322   7.164   0.670   9.601  0.4401  1.0805 -1.2260
19879SOL    HW264323   7.126   0.654   9.455 -2.5494  0.7418 -0.4765
19880SOL     OW64324   5.109   7.538   0.140  0.2593 -0.2565 -0.4496
19880SOL    HW164325   5.199   7.540   0.107  0.2716 -1.1427 -0.4857
19880SOL    HW264326   5.055   7.564   0.065  0.4431 -0.2906 -0.5939
19881SOL     OW64327   1.497   1.502   8.622  0.7499  0.5644 -0.3896
19881SOL    HW164328   1.457   1.467   8.702 -0.9118 -0.1766 -1.4651
19881SOL    HW264329   1.482   1.596   8.627  0.7194  0.5343  0.2011
19882SOL     OW64330   7.551   9.052   6.061 -0.2645  0.2421  0.4743
19882SOL    HW164331   7.622   9.092   6.111  0.4194  1.2418 -1.2038
19882SOL    HW264332   7.479   9.114   6.067  0.5252  1.4423 -1.4495
19883SOL     OW64333  11.149   4.919   9.591 -0.0667 -0.4070  0.0016
19883SOL    HW164334  11.177   4.889   9.504 -1.2469  1.4328 -1.0950
19883SOL    HW264335  11.063   4.878   9.603  0.3733 -1.1757  0.6208
19884SOL     OW64336   2.058   1.422  10.055  0.3447 -0.2007 -0.0608
19884SOL    HW164337   2.027   1.332  10.069 -0.1175  0.0293  0.4595
19884SOL    HW264338   2.142   1.425  10.100 -0.2125 -0.0362  1.0161
19885SOL     OW64339   0.873   5.469   6.624 -0.1303 -0.1187  0.4707
19885SOL    HW164340   0.963   5.459   6.593 -0.0423  0.6392  0.4760
19885SOL    HW264341   0.820   5.430   6.555  0.2263 -1.0397  0.7049
19886SOL     OW64342   3.127   1.125  11.537 -0.2646  0.2889 -0.0680
19886SOL    HW164343   3.165   1.179  11.468  0.2992 -0.4503 -0.3427
19886SOL    HW264344   3.074   1.187  11.588  0.5227  1.1479 -0.2553
19887SOL     OW64345   3.206   0.240   1.959  0.0100  0.0732 -0.0962
19887SOL    HW164346   3.248   0.291   2.028 -0.9787  1.0964 -0.2245
19887SOL    HW264347   3.168   0.164   2.005  1.6394 -0.6899  0.0671
19888SOL     OW64348   0.895   2.253   5.216 -0.1611  0.0408  0.2572
19888SOL    HW164349   0.969   2.231   5.272  0.8120  1.4839 -0.4048
19888SOL    HW264350   0.824   2.275   5.277  0.5292  0.4727  0.9158
19889SOL     OW64351   0.199   3.065   8.334  0.6191  0.0706 -0.1885
19889SOL    HW164352   0.179   3.139   8.276 -0.7115 -0.9231 -1.0631
19889SOL    HW264353   0.118   3.051   8.383  1.0597 -0.4329  0.4094
19890SOL     OW64354   1.921  11.280   7.798 -0.1229 -0.1843  0.5025
19890SOL    HW164355   1.856  11.248   7.860  0.9351  0.1801  1.8524
19890SOL    HW264356   1.996  11.221   7.809  0.5663  0.6808  0.5464
19891SOL     OW64357  11.584   1.002   8.324 -0.2448  0.0773 -0.1743
19891SOL    HW164358  11.506   1.046   8.290  0.6979  1.5249 -0.5751
19891SOL    HW264359  11.655   1.064   8.308  0.9591 -1.1051  0.3919
19892SOL     OW64360  10.930   8.062  11.114  0.5484  0.5310  0.2513
19892SOL    HW164361  10.976   8.144  11.098 -0.3181  1.6271  2.8522
19892SOL    HW264362  10.896   8.036  11.028  1.9937  2.1335 -0.8634
19893SOL     OW64363   7.956   6.228   2.080 -0.3916  0.5033  0.7894
19893SOL    HW164364   7.905   6.153   2.110  0.1294 -0.0859  0.2357
19893SOL    HW264365   8.047   6.200   2.091 -0.1959  0.9190  0.2414
19894SOL     OW64366   4.699   5.449  10.432  0.2532 -0.0278  0.4470
19894SOL    HW164367   4.641   5.522  10.411  3.5656  2.5429 -0.7796
19894SOL    HW264368   4.729   5.417  10.347  1.0611 -0.8335  1.0171
19895SOL     OW64369   2.730   2.142   5.879 -0.2218  0.3600  0.1517
19895SOL    HW164370   2.775   2.069   5.836  0.1231  0.8507 -0.3333
19895SOL    HW264371   2.795   2.178   5.940 -0.9290 -0.7721  1.6539
19896SOL     OW64372   3.306   7.302  11.011  0.4314  0.5710  0.0209
19896SOL    HW164373   3.231   7.354  10.983  0.4510  1.5323  1.6155
19896SOL    HW264374   3.268   7.228  11.059  0.4842  1.1792  1.0239
19897SOL     OW64375   9.230   6.317   7.914 -0.4202 -0.5745  0.0435
19897SOL    HW164376   9.182   6.389   7.872 -1.2659 -1.5281 -0.6880
19897SOL    HW264377   9.213   6.328   8.007 -1.0466 -0.1790 -0.1088
19898SOL     OW64378   4.560   0.488   0.371 -0.3494  0.2236  0.3253
19898SOL    HW164379   4.634   0.449   0.418 -0.7506 -1.5949 -0.4624
19898SOL    HW264380   4.590   0.493   0.280 -0.2113  2.1036  0.4392
19899SOL     OW64381   6.264  10.943   8.808 -0.4997 -0.8296 -0.0204
19899SOL    HW164382   6.297  10.853   8.802  0.4196 -0.6242  1.4270
19899SOL    HW264383   6.200  10.950   8.737 -1.2226 -2.8962  0.3474
19900SOL     OW64384   5.998   8.953  10.097 -0.0184  0.3942  0.7468
19900SOL    HW164385   6.047   8.954  10.180 -1.2124 -1.4149  1.5500
19900SOL    HW264386   5.914   8.992  10.119 -0.6320 -0.8186  0.6228
19901SOL     OW64387   2.800   6.351  10.308 -0.6970  0.8916 -0.9164
19901SOL    HW164388   2.824   6.295  10.234 -0.3020  0.7839 -0.7163
19901SOL    HW264389   2.724   6.308  10.347 -0.1121  0.2049 -0.4761
19902SOL     OW64390   3.899  10.805   4.602  0.0623 -0.1788 -0.4842
19902SOL    HW164391   3.843  10.759   4.666  0.1889 -1.1135 -1.0272
19902SOL    HW264392   3.838  10.836   4.535  0.0127  0.1851 -0.2727
19903SOL     OW64393   9.281   3.272  11.789 -0.1244 -0.0091  0.5064
19903SOL    HW164394   9.372   3.296  11.805 -0.1505  0.8798 -0.5725
19903SOL    HW264395   9.232   3.352  11.808 -0.5664 -0.1608  0.0270
19904SOL     OW64396   2.181   5.512   5.382  0.6070  0.0814 -0.5428
19904SOL    HW164397   2.216   5.439   5.433 -0.8601  0.1323  0.6150
19904SOL    HW264398   2.121   5.556   5.441  1.0421  1.9288 -1.4009
19905SOL     OW64399   3.134   5.311   6.264 -0.3280 -0.2227  0.2373
19905SOL    HW164400   3.181   5.303   6.180  1.3788  4.1288  0.4755
19905SOL    HW264401   3.065   5.375   6.246 -0.1052  0.5680  2.0397
19906SOL     OW64402   9.846   3.666   6.887  0.1690 -0.2209  0.0546
19906SOL    HW164403   9.794   3.689   6.964 -1.0790  0.0465 -0.8185
19906SOL    HW264404   9.937   3.678   6.914 -0.2662  0.6228  1.2336
19907SOL     OW64405   2.757  10.978  11.815  0.8038  0.3113  0.4076
19907SOL    HW164406   2.674  11.022  11.796  0.9601 -0.5828 -2.9558
19907SOL    HW264407   2.747  10.945  11.904 -0.9504  3.3967  1.5021
19908SOL     OW64408   9.634   7.173   4.544 -0.2950 -0.3757  0.3950
19908SOL    HW164409   9.622   7.091   4.497 -0.0579 -1.5642  2.2875
19908SOL    HW264410   9.627   7.241   4.477 -2.1170 -1.8296 -0.9762
19909SOL     OW64411   9.162   7.048   1.359  0.8486 -0.3924 -0.5773
19909SOL    HW164412   9.251   7.080   1.345  0.1973  1.4045 -0.8513
19909SOL    HW264413   9.125   7.040   1.271 -0.2318  1.9330 -0.4115
19910SOL     OW64414   5.003   9.560   8.247  0.0427 -0.6018 -0.5247
19910SOL    HW164415   4.951   9.528   8.321  1.1851 -2.6695 -0.5364
19910SOL    HW264416   4.939   9.594   8.185 -0.9007  3.0439  2.1143
19911SOL     OW64417   1.635   7.029   5.376  0.3294 -0.0119 -0.2590
19911SOL    HW164418   1.585   7.036   5.457 -1.8922  2.2952 -1.6735
19911SOL    HW264419   1.725   7.014   5.404 -0.6913 -1.6708  2.5141
19912SOL     OW64420   5.851   1.613   3.360  0.2665 -0.1930 -0.2416
19912SOL    HW164421   5.839   1.657   3.444  0.9000  1.6224 -1.0654
19912SOL    HW264422   5.763   1.589   3.333 -0.0261 -0.0245  0.5441
19913SOL     OW64423   8.070   4.938   1.329 -0.4834 -0.7360  0.2224
19913SOL    HW164424   8.082   4.945   1.423  6.1516  1.0236 -0.2815
19913SOL    HW264425   8.065   4.844   1.312 -2.2897 -1.0780  2.1802
19914SOL     OW64426   8.530   0.727   4.170 -0.7843  0.2146 -0.2424
19914SOL    HW164427   8.625   0.716   4.174 -0.8286 -0.3200 -0.6103
19914SOL    HW264428   8.518   0.808   4.120 -0.5191  0.4248  0.0295
19915SOL     OW64429   4.973  10.254   6.315 -0.0512 -0.2941  0.4065
19915SOL    HW164430   4.937  10.338   6.344  0.3594 -0.6763  2.1516
19915SOL    HW264431   4.954  10.251   6.221 -4.2283 -0.2840  1.0673
19916SOL     OW64432   0.926   2.714   7.406  0.3433  0.2474  0.0789
19916SOL    HW164433   0.922   2.698   7.311  0.8231  1.6428 -0.2067
19916SOL    HW264434   0.844   2.679   7.440 -0.3751  0.7802 -1.0358
19917SOL     OW64435   3.727  11.042   1.934  0.1154 -0.4054 -0.0552
19917SOL    HW164436   3.787  10.968   1.946 -0.5843 -1.1820 -1.1393
19917SOL    HW264437   3.645  11.012   1.973  0.2614  0.4347  0.9296
19918SOL     OW64438   9.119  11.405   6.135  0.3098  0.3024 -0.3236
19918SOL    HW164439   9.180  11.332   6.126  1.0624  0.4282  2.6098
19918SOL    HW264440   9.167  11.471   6.184 -1.7087  0.9908  0.8683
19919SOL     OW64441   3.033   4.547  11.312 -0.6602 -0.3211  0.4587
19919SOL    HW164442   3.105   4.585  11.362  0.1523  1.4181 -1.8444
19919SOL    HW264443   3.066   4.461  11.285 -0.0494 -0.1556  0.6636
19920SOL     OW64444   9.474   8.357   6.805  0.0438  0.3851  0.4007
19920SOL    HW164445   9.412   8.346   6.876  1.0541  1.4239  1.4883
19920SOL    HW264446   9.547   8.299   6.826 -0.5763 -0.9540 -0.9500
19921SOL     OW64447  11.648  10.575   7.405  0.2741  0.3854 -0.4123
19921SOL    HW164448  11.641  10.577   7.310 -0.8308 -0.1602 -0.3598
19921SOL    HW264449  11.587  10.644   7.435 -1.7519 -1.4370 -0.0463
19922SOL     OW64450  11.700   6.409   9.397 -0.3805  0.1328  0.2147
19922SOL    HW164451  11.655   6.491   9.378  1.6795  1.2288 -0.2706
19922SOL    HW264452  11.760   6.430   9.469  0.7662 -0.7085 -0.4527
19923SOL     OW64453   5.796   8.429   3.170  0.6258 -0.1910  0.0600
19923SOL    HW164454   5.744   8.475   3.103  0.5858 -0.1799  0.0984
19923SOL    HW264455   5.732   8.371   3.213  0.8097 -0.7908 -0.4435
19924SOL     OW64456   7.295   5.408   1.872  0.1755 -0.0804  0.0379
19924SOL    HW164457   7.339   5.356   1.939 -2.8639 -0.2161  2.1279
19924SOL    HW264458   7.239   5.346   1.826  0.6667  0.4173 -1.2867
19925SOL     OW64459   6.700   6.294  10.550 -0.0475 -0.1946  0.4447
19925SOL    HW164460   6.634   6.241  10.594 -0.7811  0.3808  0.0728
19925SOL    HW264461   6.660   6.381  10.543  0.4361 -0.0283 -0.4728
19926SOL     OW64462   1.187   0.255   2.079 -0.2798  0.1851  0.4476
19926SOL    HW164463   1.208   0.173   2.123  0.1545  0.4361  0.7195
19926SOL    HW264464   1.109   0.287   2.125 -1.0832 -0.5832 -0.3451
19927SOL     OW64465  11.386   8.475   9.957 -0.7116 -0.4469 -0.4448
19927SOL    HW164466  11.315   8.538   9.972 -0.0122 -0.1069  1.8319
19927SOL    HW264467  11.351   8.392   9.988 -0.4425 -0.4601 -0.1672
19928SOL     OW64468   8.579   3.514   3.913 -0.0574  0.0875 -0.1065
19928SOL    HW164469   8.513   3.447   3.894  1.0565 -0.3763 -2.7303
19928SOL    HW264470   8.530   3.595   3.919 -1.1866 -0.6296  1.0868
19929SOL     OW64471   0.684  11.271   3.256 -0.4263 -0.4674 -0.3008
19929SOL    HW164472   0.608  11.252   3.312  0.5987 -1.3861  0.8323
19929SOL    HW264473   0.698  11.191   3.206  1.7727 -1.6139  1.9380
19930SOL     OW64474   3.599   2.247   6.628  0.5591 -0.1826  0.0136
19930SOL    HW164475   3.637   2.187   6.563  1.8362  0.2233  0.3511
19930SOL    HW264476   3.596   2.197   6.709 -0.9380 -0.6553 -0.3071
19931SOL     OW64477   7.507   1.660   5.260  0.2111  0.3284  0.8666
19931SOL    HW164478   7.430   1.606   5.281  0.8650  0.0418  2.7086
19931SOL    HW264479   7.575   1.597   5.236  0.1159  0.5347  0.0332
19932SOL     OW64480   7.095  10.113  10.855  0.8029 -0.1055  0.2585
19932SOL    HW164481   7.003  10.131  10.834  1.3276 -0.0470 -2.3294
19932SOL    HW264482   7.099  10.117  10.950 -1.9627 -0.5527  0.4813
19933SOL     OW64483   7.257   7.413   0.985  0.0278  0.1083  0.2029
19933SOL    HW164484   7.252   7.438   0.893 -1.9262  0.4082  0.3360
19933SOL    HW264485   7.247   7.495   1.033  1.0077 -0.0499  0.6865
19934SOL     OW64486   2.045   3.775   1.898 -0.2676 -0.5527 -0.3199
19934SOL    HW164487   2.085   3.765   1.811 -2.3731 -1.4118 -1.2598
19934SOL    HW264488   2.001   3.860   1.894  0.7668  0.0499  0.4477
19935SOL     OW64489   4.647  10.901   6.190  0.5098 -0.1187 -0.7831
19935SOL    HW164490   4.671  10.988   6.156  1.9418  0.2242  0.9358
19935SOL    HW264491   4.661  10.908   6.284  0.9490 -2.3017 -0.6378
19936SOL     OW64492  10.261  10.578   3.263  0.1958 -0.1682  0.0243
19936SOL    HW164493  10.171  10.609   3.265  0.5266  0.7961  1.5822
19936SOL    HW264494  10.305  10.634   3.199 -0.0457  0.1182  0.1122
19937SOL     OW64495   1.229  10.223   8.561  0.1266 -0.2317  0.4598
19937SOL    HW164496   1.201  10.140   8.601 -0.6457 -0.7238 -1.0274
19937SOL    HW264497   1.236  10.203   8.468  1.1300  1.0823  0.2364
19938SOL     OW64498   0.276  11.682   8.826 -0.0808 -0.2898 -0.1061
19938SOL    HW164499   0.350  11.692   8.766  0.0065  0.8840  0.1650
19938SOL    HW264500   0.225  11.762   8.813 -0.1732 -0.1157  1.2159
19939SOL     OW64501   7.484   0.742   1.041 -0.0510  0.0717  0.2795
19939SOL    HW164502   7.520   0.829   1.028  1.6261 -0.5384  0.5802
19939SOL    HW264503   7.480   0.732   1.137 -0.4045 -0.1267  0.2471
19940SOL     OW64504   6.841   5.935   9.974  0.1420  0.6068  0.5896
19940SOL    HW164505   6.763   5.880   9.977 -0.0197  0.6638 -1.3284
19940SOL    HW264506   6.811   6.020  10.005 -0.2505  0.3133  1.0300
19941SOL     OW64507   6.713   4.034   5.490  0.2317  0.2750 -0.3245
19941SOL    HW164508   6.671   3.956   5.526 -0.3629  0.4765 -0.5678
19941SOL    HW264509   6.753   4.005   5.409 -1.1507  0.4920 -1.1283
19942SOL     OW64510   8.403  11.952  10.435  0.6059 -0.4194  0.0208
19942SOL    HW164511   8.380  12.028  10.382 -0.4651 -0.6821  0.1002
19942SOL    HW264512   8.322  11.927  10.478  1.0005 -1.4709  0.1766
19943SOL     OW64513   5.773   1.504   1.563  0.0150  0.2336  0.3839
19943SOL    HW164514   5.840   1.515   1.496 -0.8135  2.2524 -0.1906
19943SOL    HW264515   5.717   1.433   1.530  0.1174  0.6133 -0.6241
19944SOL     OW64516   7.941  10.693   3.811 -0.8170  0.3804  0.3078
19944SOL    HW164517   7.863  10.697   3.865 -0.9343  0.2827  0.1450
19944SOL    HW264518   7.909  10.690   3.721 -0.6628 -0.7344  0.2743
19945SOL     OW64519   0.284  11.746  11.546  0.1127  0.0885 -0.0353
19945SOL    HW164520   0.289  11.814  11.479  0.9684  0.4060  0.3253
19945SOL    HW264521   0.212  11.773  11.603  1.1837  1.3716  0.7885
19946SOL     OW64522   1.603   0.091   4.932 -0.0217  0.1033 -0.4647
19946SOL    HW164523   1.640   0.041   4.859 -0.6674  0.5034 -1.0830
19946SOL    HW264524   1.660   0.168   4.940  0.4055 -0.2442 -0.1460
19947SOL     OW64525   1.122   9.921   9.606  0.5613 -0.7993  0.2691
19947SOL    HW164526   1.139   9.859   9.535 -1.6698 -1.6175  0.3606
19947SOL    HW264527   1.070   9.871   9.669  2.5210 -0.1138  2.5766
19948SOL     OW64528   0.126   1.423   9.462 -0.1318  0.1126  0.0417
19948SOL    HW164529   0.031   1.431   9.448 -0.1683 -0.0353  0.1995
19948SOL    HW264530   0.157   1.513   9.471 -0.5075  0.1021  1.6497
19949SOL     OW64531   7.857   4.407   3.323  0.3791 -0.1473 -0.1767
19949SOL    HW164532   7.931   4.409   3.384  1.0922 -2.3137 -0.8951
19949SOL    HW264533   7.884   4.345   3.255 -0.5462  1.8453 -2.5128
19950SOL     OW64534  10.459   8.743   9.462  0.4308 -0.2910 -0.4410
19950SOL    HW164535  10.475   8.698   9.545  1.9828  1.7882  0.4935
19950SOL    HW264536  10.526   8.709   9.403  0.8398 -0.1110 -0.0941
19951SOL     OW64537   0.752   7.318   5.926 -0.1752 -0.3605  0.3640
19951SOL    HW164538   0.695   7.346   5.854  0.5035 -3.2804 -1.4856
19951SOL    HW264539   0.693   7.311   6.001 -1.3189  0.8729 -0.3585
19952SOL     OW64540   9.238  11.849   0.966  0.2003 -0.1183  0.8994
19952SOL    HW164541   9.250  11.880   1.055  2.4822  0.1565  0.5458
19952SOL    HW264542   9.277  11.917   0.911 -0.6265 -0.5697 -0.2922
19953SOL     OW64543  11.239   6.899   7.893  0.0122 -0.1981  0.3216
19953SOL    HW164544  11.180   6.963   7.854  0.9213 -0.1502 -1.0460
19953SOL    HW264545  11.181   6.827   7.920 -0.8414  0.5415  0.5330
19954SOL     OW64546   8.946  11.528   0.259 -0.6663  0.2748 -0.0751
19954SOL    HW164547   9.039  11.505   0.249 -0.8594 -0.5691  0.0182
19954SOL    HW264548   8.943  11.622   0.242  0.5111  0.7164  1.9296
19955SOL     OW64549   6.918   4.545   5.471  0.7380 -0.5855 -0.4775
19955SOL    HW164550   6.897   4.528   5.379 -1.6687 -0.2750 -0.0602
19955SOL    HW264551   6.977   4.620   5.469 -2.4957  2.1733 -1.7403
19956SOL     OW64552   9.826  11.204   8.846  0.0065 -0.1237 -0.1822
19956SOL    HW164553   9.908  11.253   8.840 -0.3557  0.5762  0.5070
19956SOL    HW264554   9.823  11.172   8.936 -0.8002  0.4399  0.0008
19957SOL     OW64555   8.907   3.096   0.653  0.2299  0.1931  0.0145
19957SOL    HW164556   8.884   3.015   0.608  0.2729 -0.8087  1.7132
19957SOL    HW264557   8.828   3.121   0.700  0.0918  1.3815 -0.8223
19958SOL     OW64558   6.547   2.275   4.350  0.1122 -0.5347 -0.2931
19958SOL    HW164559   6.568   2.326   4.428  0.0309 -1.6399  0.4716
19958SOL    HW264560   6.598   2.195   4.358 -0.1710 -0.8256 -1.1995
19959SOL     OW64561   9.421   0.749   6.165 -0.5122 -0.0752  0.3462
19959SOL    HW164562   9.508   0.711   6.173 -0.6394 -0.1940  1.3061
19959SOL    HW264563   9.375   0.691   6.103 -0.0805 -0.3159  0.2522
19960SOL     OW64564   0.779   6.601   4.622 -0.1482  0.3641 -0.4021
19960SOL    HW164565   0.790   6.507   4.631  0.7222  0.5165  0.2928
19960SOL    HW264566   0.868   6.635   4.609 -0.4957  1.0451 -1.1301
19961SOL     OW64567  11.159   7.908   0.587  0.0275 -0.1877  0.2225
19961SOL    HW164568  11.093   7.861   0.535  3.0571 -2.1525 -2.1731
19961SOL    HW264569  11.165   7.859   0.669 -1.4751  0.0723  0.5201
19962SOL     OW64570   6.005   1.428   2.850 -0.5443  0.2979 -0.1481
19962SOL    HW164571   6.087   1.464   2.817  0.1709 -0.2879  0.9535
19962SOL    HW264572   6.008   1.336   2.826 -1.1474  0.3753 -0.5717
19963SOL     OW64573   9.470   2.915   0.752 -0.2230  0.0289 -0.1059
19963SOL    HW164574   9.500   2.845   0.694  0.6510  0.0291  0.3224
19963SOL    HW264575   9.543   2.929   0.812 -1.0243  0.1744  0.8620
19964SOL     OW64576   3.752   9.987   1.832 -0.5150 -0.3191 -0.1006
19964SOL    HW164577   3.777   9.982   1.924  1.4119  1.6799 -0.4222
19964SOL    HW264578   3.751   9.896   1.802 -1.1525 -1.0011  1.8435
19965SOL     OW64579   2.104   8.671   0.979  0.1097 -0.1328 -0.6149
19965SOL    HW164580   2.026   8.646   0.929  0.5029 -0.5302 -1.0353
19965SOL    HW264581   2.081   8.652   1.070 -0.6358  0.6524 -0.6282
19966SOL     OW64582   1.546   9.153  11.758  0.3891  0.3744 -0.1795
19966SOL    HW164583   1.472   9.212  11.742  0.3685  0.4286  0.0972
19966SOL    HW264584   1.533   9.124  11.848 -0.6130 -1.4961 -0.8915
19967SOL     OW64585   0.660   6.967   6.448  0.5758  0.3000  0.0789
19967SOL    HW164586   0.618   7.047   6.481 -0.9565 -0.1372 -0.7020
19967SOL    HW264587   0.595   6.898   6.465  1.1616 -0.4868 -0.8033
19968SOL     OW64588   4.261   1.189   1.448 -0.2102 -0.8301 -0.4423
19968SOL    HW164589   4.208   1.125   1.494 -1.4756  1.5803  1.6744
19968SOL    HW264590   4.318   1.227   1.515 -0.2844  0.9967 -1.3439
19969SOL     OW64591   2.361   5.295  10.249  0.1460  0.3215  0.6230
19969SOL    HW164592   2.377   5.333  10.162  0.6170 -0.2214  0.4614
19969SOL    HW264593   2.422   5.341  10.307 -0.9236  1.4582  0.8969
19970SOL     OW64594  10.368   0.100   1.245  1.0049  0.0577  0.0847
19970SOL    HW164595  10.351   0.189   1.213 -1.5465 -0.3514  0.1551
19970SOL    HW264596  10.377   0.047   1.166  2.2720  0.2781  0.0481
19971SOL     OW64597   9.727   7.659  10.471  0.3636  0.3841  0.7318
19971SOL    HW164598   9.771   7.574  10.478 -0.7983 -0.3803 -0.6727
19971SOL    HW264599   9.677   7.666  10.553 -1.4561 -1.4739 -0.1367
19972SOL     OW64600  10.331   7.537   1.974 -0.1872 -0.2795 -0.1627
19972SOL    HW164601  10.312   7.585   1.894 -0.3453  0.8466  0.5298
19972SOL    HW264602  10.415   7.494   1.957 -0.7956 -1.0449 -1.3532
19973SOL     OW64603   1.501   9.632   8.219  0.6203  0.4327  0.1475
19973SOL    HW164604   1.526   9.699   8.155 -0.6296  0.5749 -0.2264
19973SOL    HW264605   1.486   9.680   8.300  1.7026  0.3166  0.4409
19974SOL     OW64606   5.804  10.199   0.422  0.2131 -0.5019  0.4191
19974SOL    HW164607   5.785  10.180   0.330 -0.5551 -2.8468  1.0068
19974SOL    HW264608   5.899  10.189   0.430  0.4376  0.8136 -0.3154
19975SOL     OW64609   2.784   8.859   1.673  0.6046 -1.2521 -0.0512
19975SOL    HW164610   2.719   8.925   1.700  1.5586 -1.0624  2.0178
19975SOL    HW264611   2.731   8.790   1.634 -0.6191 -0.1140 -0.5201
19976SOL     OW64612   1.929   0.204   8.407  0.2302 -0.0088  0.2052
19976SOL    HW164613   1.846   0.234   8.444  0.6049 -0.5391  1.5378
19976SOL    HW264614   1.904   0.146   8.335 -0.5093  2.3851 -1.6192
19977SOL     OW64615   3.681   2.660   7.144  0.1900  0.3236 -0.1985
19977SOL    HW164616   3.686   2.731   7.208  0.8035  0.3699 -0.2923
19977SOL    HW264617   3.758   2.672   7.089  0.2339 -0.3395 -0.2896
19978SOL     OW64618   4.679   2.574  10.157 -0.1707 -0.3332  0.0444
19978SOL    HW164619   4.679   2.587  10.062  1.2594 -0.2960  0.0284
19978SOL    HW264620   4.615   2.636  10.190  0.5048  0.8322 -0.7628
19979SOL     OW64621  11.257   9.160   5.304  0.4563 -0.3194 -0.7041
19979SOL    HW164622  11.320   9.141   5.235  0.2754 -0.1973 -0.9040
19979SOL    HW264623  11.301   9.133   5.385  0.1461 -1.7950 -0.9857
19980SOL     OW64624   9.812   0.609   4.906  0.6301 -0.6009  0.2987
19980SOL    HW164625   9.816   0.516   4.925  1.8990 -0.6249 -0.0427
19980SOL    HW264626   9.883   0.625   4.845  0.8670  0.7151  0.8772
19981SOL     OW64627   5.112   4.680  10.000 -0.0281 -0.0510  0.2547
19981SOL    HW164628   5.097   4.601  10.051 -0.8234 -1.0832 -1.5039
19981SOL    HW264629   5.147   4.743  10.063 -3.5997 -0.2705  2.7425
19982SOL     OW64630   4.429   2.541  11.941  0.0904 -0.1939  0.2839
19982SOL    HW164631   4.450   2.602  12.012  0.6434  0.1435 -0.1626
19982SOL    HW264632   4.380   2.594  11.878 -0.3388 -0.4763  0.3773
19983SOL     OW64633   2.507  10.966   6.558 -0.4215  0.2585 -0.5848
19983SOL    HW164634   2.418  10.937   6.538  0.0372 -1.6090 -0.0710
19983SOL    HW264635   2.497  11.057   6.587 -2.3793 -0.4409  1.1484
19984SOL     OW64636   7.558  11.135   5.117  0.0411  0.5514  1.0016
19984SOL    HW164637   7.472  11.164   5.086 -0.4994 -0.5200  1.4572
19984SOL    HW264638   7.545  11.044   5.141  1.2884  0.4121  1.1891
19985SOL     OW64639  11.082   0.220   7.694  0.3411  0.4160 -0.1816
19985SOL    HW164640  11.172   0.252   7.686  0.1718  0.8978 -0.1776
19985SOL    HW264641  11.032   0.272   7.630  0.0901  0.0600 -0.2771
19986SOL     OW64642   0.388   0.661   8.675  0.2728  0.4240 -0.0631
19986SOL    HW164643   0.391   0.566   8.666 -1.4930  0.2639  0.6212
19986SOL    HW264644   0.464   0.683   8.729  1.6641 -0.3727 -1.6206
19987SOL     OW64645   6.198   2.514   6.147  0.3808  0.1470  0.1878
19987SOL    HW164646   6.269   2.449   6.143 -0.4491 -0.8187  0.6790
19987SOL    HW264647   6.145   2.486   6.222 -0.2056  1.1886  0.1750
19988SOL     OW64648   7.753   7.675  11.162  0.3663  0.6714  0.1016
19988SOL    HW164649   7.834   7.726  11.169 -0.9772  3.0944 -0.8628
19988SOL    HW264650   7.687   7.728  11.207 -0.8402 -0.8843  0.2318
19989SOL     OW64651   8.721   6.209   0.705 -0.2192 -0.4564 -0.0654
19989SOL    HW164652   8.808   6.182   0.734 -0.0623 -0.3266 -0.4179
19989SOL    HW264653   8.664   6.136   0.730  0.1312 -0.9312 -0.6221
19990SOL     OW64654   3.992   2.933   7.146 -0.0400 -0.1451 -0.1309
19990SOL    HW164655   4.087   2.940   7.158  0.0688 -1.1274 -0.3639
19990SOL    HW264656   3.958   3.014   7.183  0.7782 -0.3922  1.2223
19991SOL     OW64657  11.269   8.839  10.818  0.2992 -0.3104 -0.4621
19991SOL    HW164658  11.355   8.877  10.834 -0.9163  1.8848  1.4762
19991SOL    HW264659  11.261   8.769  10.883  0.7232 -0.7277 -0.8536
19992SOL     OW64660   5.766   9.965   1.539 -0.6885  0.3072  0.1479
19992SOL    HW164661   5.783  10.006   1.623 -0.3986 -0.3493  0.4203
19992SOL    HW264662   5.714  10.029   1.491  0.3668  1.2983  0.2720
19993SOL     OW64663  11.573   7.320   9.538 -0.1771  0.2191 -0.3082
19993SOL    HW164664  11.620   7.293   9.617  0.4836 -0.5830 -0.9512
19993SOL    HW264665  11.482   7.296   9.554  0.1698 -1.1826 -0.3073
19994SOL     OW64666  10.319   6.051   1.802  0.0783  0.1562 -0.5185
19994SOL    HW164667  10.373   6.130   1.804  0.9847 -0.4599 -0.1592
19994SOL    HW264668  10.231   6.083   1.780  0.3129  1.3291  0.1511
19995SOL     OW64669   2.746   9.953   6.212 -0.2366 -0.1748 -0.0396
19995SOL    HW164670   2.780   9.971   6.124 -1.1017 -0.7801 -0.5244
19995SOL    HW264671   2.763   9.860   6.226 -0.9951 -0.3193  0.0019
19996SOL     OW64672   3.804   9.357  11.177  0.2525  0.1297 -0.1467
19996SOL    HW164673   3.825   9.347  11.269 -2.7134  0.9029  0.7144
19996SOL    HW264674   3.857   9.432  11.148  0.6776  0.3393  1.1354
19997SOL     OW64675  11.206  10.691   1.004  0.4169 -0.0877  0.2664
19997SOL    HW164676  11.197  10.660   0.914 -1.0951  0.2989  0.2553
19997SOL    HW264677  11.119  10.723   1.027  0.6622 -0.5824  2.0195
19998SOL     OW64678   6.058   5.159   6.341 -0.4544 -0.1284 -0.2186
19998SOL    HW164679   5.991   5.149   6.274 -0.5095 -1.0549 -0.0370
19998SOL    HW264680   6.012   5.149   6.424 -0.1840 -0.2323 -0.0772
19999SOL     OW64681   9.928   6.632   9.477 -0.5056  0.5592  0.4073
19999SOL    HW164682   9.840   6.619   9.513 -0.7931 -0.1743 -0.5171
19999SOL    HW264683   9.928   6.723   9.446 -0.8560  0.6413  0.6386
20000SOL     OW64684  11.353  10.725   8.790  0.3639  0.8478  0.7372
20000SOL    HW164685  11.263  10.692   8.799  0.4579  0.4863  0.3792
20000SOL    HW264686  11.397  10.696   8.870  0.6277 -0.5084  0.1316
20001SOL     OW64687   2.349   2.779   4.108  0.1477 -0.1564  0.0994
20001SOL    HW164688   2.441   2.798   4.125  0.1425 -0.1182  0.0859
20001SOL    HW264689   2.301   2.849   4.153  0.2034  1.1261 -1.7432
20002SOL     OW64690   3.524   0.491   7.756  1.0241 -0.0997  0.6982
20002SOL    HW164691   3.570   0.566   7.794  2.8825  1.3195 -3.7576
20002SOL    HW264692   3.456   0.529   7.701  2.1037 -1.5030 -1.8045
20003SOL     OW64693   4.519   5.263   1.734 -0.1010 -0.7098  0.1392
20003SOL    HW164694   4.490   5.213   1.810 -1.1347 -0.4498 -0.0682
20003SOL    HW264695   4.451   5.249   1.668 -0.6818  1.3216  0.2238
20004SOL     OW64696   6.926   9.609   0.649  0.1272 -0.6596  0.5669
20004SOL    HW164697   6.875   9.576   0.723  0.0876 -0.8665  0.4494
20004SOL    HW264698   6.859   9.633   0.584  0.1578 -0.3968  0.6333
20005SOL     OW64699   1.066   5.509   3.387 -0.3176 -0.4615  0.0547
20005SOL    HW164700   1.112   5.564   3.450 -1.3147  1.4303 -0.8109
20005SOL    HW264701   0.989   5.476   3.435 -0.2157 -0.3499  0.2932
20006SOL     OW64702   9.776  10.958   1.717 -0.3657 -0.1980 -0.4685
20006SOL    HW164703   9.730  10.906   1.651  0.5158 -0.2245 -1.0847
20006SOL    HW264704   9.868  10.938   1.703 -0.0760  0.8178 -0.1075
20007SOL     OW64705  10.592   8.019   8.425  0.2597  0.0908 -0.6227
20007SOL    HW164706  10.653   8.093   8.424 -0.3944  0.6486  0.0361
20007SOL    HW264707  10.510   8.056   8.458 -0.0279 -0.9637 -0.1338
20008SOL     OW64708   7.564   0.407   1.516 -0.0469  0.1066  0.2607
20008SOL    HW164709   7.611   0.463   1.454 -1.1779 -0.6556 -1.3719
20008SOL    HW264710   7.499   0.465   1.555 -0.4399  0.2228 -0.5451
20009SOL     OW64711   1.920   8.821   8.908 -0.2817  0.3909  0.0214
20009SOL    HW164712   1.870   8.902   8.895 -1.1163  0.0753  1.0559
20009SOL    HW264713   1.916   8.806   9.003 -0.7036 -1.1926 -0.2187
20010SOL     OW64714   3.000   4.116   5.404 -0.7620 -0.6092  0.3603
20010SOL    HW164715   3.005   4.103   5.310  0.3705  1.3318  0.0893
20010SOL    HW264716   3.087   4.091   5.436 -0.5590  0.3930  0.6241
20011SOL     OW64717   1.532   3.122   2.783  0.3733 -0.1078 -0.1424
20011SOL    HW164718   1.441   3.150   2.788  0.1362 -0.7943 -0.5248
20011SOL    HW264719   1.580   3.186   2.835 -0.3646  0.0924  0.2928
20012SOL     OW64720   6.143   4.896   1.062 -0.6525 -0.5873 -0.4479
20012SOL    HW164721   6.157   4.933   1.149  0.3233 -1.9683  0.0204
20012SOL    HW264722   6.218   4.838   1.048 -1.8492 -2.0052 -1.3188
20013SOL     OW64723   9.647   5.083   0.628 -0.3740  0.0788  0.4731
20013SOL    HW164724   9.625   5.176   0.619 -0.2368 -0.0039 -0.9972
20013SOL    HW264725   9.648   5.050   0.538  1.5750 -0.8801  0.7930
20014SOL     OW64726   5.099   2.963   4.292  0.1987 -0.0211  0.0004
20014SOL    HW164727   5.141   2.880   4.312  0.7988  0.1181 -0.6465
20014SOL    HW264728   5.171   3.026   4.288 -0.2057  0.4479  0.0915
20015SOL     OW64729   7.886   5.640   4.549 -0.6618 -0.5852  0.5645
20015SOL    HW164730   7.938   5.625   4.628 -0.9964  1.2487  1.1840
20015SOL    HW264731   7.795   5.623   4.576 -0.5841 -2.2194 -0.0861
20016SOL     OW64732   6.465   9.517  10.150  0.0597  0.5142 -0.1078
20016SOL    HW164733   6.452   9.442  10.092 -1.7477  0.3898  0.3856
20016SOL    HW264734   6.557   9.541  10.138  1.4923 -3.2843  1.4796
20017SOL     OW64735   0.131   8.902   6.521 -0.0634  0.5759  0.2431
20017SOL    HW164736   0.085   8.821   6.501  0.2538  0.4581 -0.0178
20017SOL    HW264737   0.185   8.881   6.598  0.1809  0.4772  0.0457
20018SOL     OW64738   6.727   9.725  11.647 -0.6924 -0.4914  0.4802
20018SOL    HW164739   6.800   9.787  11.654 -0.9074 -0.1098 -0.5255
20018SOL    HW264740   6.730   9.693  11.557 -0.9843 -1.4673  0.7988
20019SOL     OW64741   2.668   9.391  10.861  0.2692 -0.7271  0.6174
20019SOL    HW164742   2.715   9.323  10.910 -0.3895 -2.1476 -0.6408
20019SOL    HW264743   2.725   9.467  10.867  0.5885 -1.0483  2.8933
20020SOL     OW64744   9.213   1.748  10.883 -0.0391 -0.3991 -0.5256
20020SOL    HW164745   9.188   1.668  10.835  1.3597 -1.0143 -0.2569
20020SOL    HW264746   9.308   1.748  10.881  0.0479 -0.1664  1.8327
20021SOL     OW64747   2.484   1.669  11.308  0.1794  0.3327 -0.7919
20021SOL    HW164748   2.429   1.631  11.376 -1.1485  0.7267 -1.6008
20021SOL    HW264749   2.443   1.754  11.290  0.2739  0.0731 -2.3290
20022SOL     OW64750   6.319   0.694   5.368  0.3842  0.2851 -0.4729
20022SOL    HW164751   6.341   0.765   5.308  0.7501  0.7262  0.1688
20022SOL    HW264752   6.271   0.631   5.314  0.0497  1.0163 -1.0470
20023SOL     OW64753   6.279   7.243  11.560  0.3289  0.6804  0.2664
20023SOL    HW164754   6.341   7.279  11.624  1.6851 -1.1101  0.0429
20023SOL    HW264755   6.240   7.167  11.604 -0.3304  0.6954 -0.2678
20024SOL     OW64756   4.839   2.018   1.703  0.5155 -0.2281 -0.0755
20024SOL    HW164757   4.765   2.056   1.751 -0.6783 -0.8666 -1.3433
20024SOL    HW264758   4.815   1.927   1.691  1.4839 -0.4285 -0.5921
20025SOL     OW64759   4.572   9.153   5.477 -0.1025 -0.0486 -0.0374
20025SOL    HW164760   4.626   9.189   5.407 -0.5969 -1.1065 -0.9999
20025SOL    HW264761   4.500   9.110   5.431  0.0042 -1.4924  1.0909
20026SOL     OW64762  11.723  10.127   2.703  0.1045 -0.6277  0.1543
20026SOL    HW164763  11.813  10.096   2.702 -0.1048 -1.2971  0.7777
20026SOL    HW264764  11.719  10.195   2.636  0.9930 -0.8039 -0.0787
20027SOL     OW64765   1.647   9.756   7.312  0.3969  0.3988 -0.2577
20027SOL    HW164766   1.560   9.789   7.289 -0.9455 -2.4207  0.2591
20027SOL    HW264767   1.667   9.797   7.396 -0.9701  0.2753  0.1499
20028SOL     OW64768   1.715   1.892  11.155  0.1389  0.4433 -0.2408
20028SOL    HW164769   1.678   1.912  11.069  2.4771  0.6363 -1.2869
20028SOL    HW264770   1.690   1.966  11.210 -0.7087  0.7123 -0.9698
20029SOL     OW64771   4.131   5.868   7.849 -0.0656  0.5891 -0.1165
20029SOL    HW164772   4.084   5.853   7.767  1.0743  0.2111 -0.7245
20029SOL    HW264773   4.120   5.787   7.898 -0.5599  0.7320  0.0164
20030SOL     OW64774   3.275   0.746   5.498 -0.2740 -0.1529  0.0886
20030SOL    HW164775   3.188   0.706   5.488  0.2324 -1.3535  0.3330
20030SOL    HW264776   3.301   0.723   5.587 -0.0112  0.8472  0.2776
20031SOL     OW64777   9.487   5.466  11.238 -0.4178  0.1598 -0.2487
20031SOL    HW164778   9.497   5.561  11.234 -0.4804  0.1401 -0.9051
20031SOL    HW264779   9.567   5.431  11.199  0.2705 -0.0936  1.2834
20032SOL     OW64780   4.910   2.684  10.806  0.3215 -0.2920 -0.6857
20032SOL    HW164781   4.897   2.770  10.765  0.2386 -0.1521 -0.3692
20032SOL    HW264782   4.843   2.680  10.875  0.3804 -0.5760 -0.6440
20033SOL     OW64783   6.646   5.593   8.901  0.7995  0.0493 -0.0984
20033SOL    HW164784   6.696   5.517   8.874  0.3877 -0.1627 -0.2780
20033SOL    HW264785   6.653   5.654   8.828 -0.2852 -0.5102 -0.7049
20034SOL     OW64786   3.408  11.193   9.352 -0.6947 -0.7557  0.4046
20034SOL    HW164787   3.460  11.182   9.272 -0.3369 -1.9594  0.7879
20034SOL    HW264788   3.473  11.202   9.422 -1.0037 -0.4551  0.6528
20035SOL     OW64789  10.949  10.584   0.357  0.0497  0.4793 -0.0137
20035SOL    HW164790  10.949  10.643   0.433 -0.7401  0.3273  0.1159
20035SOL    HW264791  10.909  10.635   0.287 -0.6755  0.0938  0.1096
20036SOL     OW64792   4.891   2.374   5.633  0.2580  0.1304  0.5858
20036SOL    HW164793   4.852   2.460   5.647  1.1084  0.2618  2.5477
20036SOL    HW264794   4.836   2.333   5.566 -1.2217  1.5402  0.8676
20037SOL     OW64795   9.562   2.975   5.896 -0.0422  0.4732 -0.3642
20037SOL    HW164796   9.562   2.933   5.810 -1.0922 -1.3260  0.4554
20037SOL    HW264797   9.482   3.028   5.898 -1.8831 -2.1245  0.6151
20038SOL     OW64798   8.196   1.161   1.657 -0.3786  0.1631  0.2525
20038SOL    HW164799   8.206   1.211   1.576 -0.7942 -0.1297  0.0162
20038SOL    HW264800   8.119   1.198   1.699 -2.3829 -2.0139 -1.2493
20039SOL     OW64801   1.373   8.536   4.713  0.6513 -0.8940 -0.2409
20039SOL    HW164802   1.428   8.500   4.643 -0.2319  0.3550 -1.6268
20039SOL    HW264803   1.314   8.596   4.668 -1.4791 -1.7540  1.2637
20040SOL     OW64804   7.460   2.885   8.077  0.3766 -0.3581  0.2048
20040SOL    HW164805   7.513   2.873   8.156  0.6498 -0.6929 -0.0211
20040SOL    HW264806   7.517   2.934   8.018 -0.3031  1.0262  0.6815
20041SOL     OW64807  11.338   1.260   5.215 -0.2609 -0.0634 -0.1079
20041SOL    HW164808  11.308   1.175   5.183  1.5714 -0.9543  0.4007
20041SOL    HW264809  11.389   1.296   5.143  0.3467 -0.1653  0.2629
20042SOL     OW64810   2.685   2.851   8.254  0.8219  0.3215  0.2642
20042SOL    HW164811   2.696   2.914   8.325  1.3578 -1.6576  2.0334
20042SOL    HW264812   2.773   2.839   8.219  0.7773  0.2633  0.1714
20043SOL     OW64813   0.497   1.628   5.888  0.4021 -0.3557 -0.0792
20043SOL    HW164814   0.523   1.584   5.969 -0.3819  0.5469  0.6901
20043SOL    HW264815   0.416   1.584   5.862 -0.2245  0.4014  0.5322
20044SOL     OW64816   5.688  11.027   0.262 -0.0064  0.1110  0.1218
20044SOL    HW164817   5.765  10.978   0.290  3.2421  4.1427 -0.8338
20044SOL    HW264818   5.660  11.074   0.340  0.2483  0.7526 -0.1718
20045SOL     OW64819   5.158  10.963   4.453  0.3167  0.0053  0.4136
20045SOL    HW164820   5.158  10.908   4.531  0.4595 -2.7628 -1.3704
20045SOL    HW264821   5.066  10.969   4.427  0.3675 -0.0057  0.2238
20046SOL     OW64822   3.094   0.869  10.992 -0.0792 -0.1984  0.5784
20046SOL    HW164823   3.011   0.917  10.989  0.6796  1.1939  1.3012
20046SOL    HW264824   3.109   0.852  11.086  1.0267  0.6005  0.5608
20047SOL     OW64825  11.787   5.573   3.661  0.1710 -0.0163  0.1218
20047SOL    HW164826  11.881   5.563   3.646  0.2140  0.0402  0.3485
20047SOL    HW264827  11.776   5.667   3.680  0.0912 -0.0514  0.2497
20048SOL     OW64828  10.007   6.426   6.384 -0.1152  0.1188 -0.6388
20048SOL    HW164829  10.069   6.416   6.457 -0.1987  0.8927 -0.4550
20048SOL    HW264830   9.956   6.345   6.386 -0.5640  0.4042  0.5977
20049SOL     OW64831   5.914   1.100   7.253  0.2487  0.2660 -0.3721
20049SOL    HW164832   5.862   1.180   7.263 -0.3136 -0.3260  2.0588
20049SOL    HW264833   5.905   1.077   7.160 -2.8883  0.8380 -0.3110
20050SOL     OW64834   9.969   4.087   2.892 -0.0906 -0.2886  0.3157
20050SOL    HW164835   9.941   4.026   2.960  1.7191 -0.2561  1.1606
20050SOL    HW264836   9.944   4.173   2.925 -1.6148 -0.4534 -0.3417
20051SOL     OW64837   3.076   8.466  10.653 -0.5339  0.4258  0.3876
20051SOL    HW164838   3.062   8.553  10.616 -2.1260 -0.2353 -0.6499
20051SOL    HW264839   3.034   8.406  10.592  0.8342 -1.1376  0.8916
20052SOL     OW64840   8.185   5.282   9.429  0.2218 -0.4912 -0.5310
20052SOL    HW164841   8.188   5.213   9.363 -0.5491 -0.0868 -1.0098
20052SOL    HW264842   8.159   5.360   9.380 -2.5252 -0.6209  0.5425
20053SOL     OW64843   4.084   1.060   2.761  0.4078 -0.0980 -0.0355
20053SOL    HW164844   4.073   1.071   2.855 -1.5068 -0.3716 -0.1829
20053SOL    HW264845   4.095   0.966   2.748 -0.8642 -0.2560 -0.1654
20054SOL     OW64846   6.142   4.569   4.013  0.0854 -0.3556  0.1809
20054SOL    HW164847   6.216   4.510   4.025 -1.5420 -2.3765  0.9475
20054SOL    HW264848   6.137   4.618   4.095  0.3378 -0.4968  0.2825
20055SOL     OW64849   5.727  10.329   2.997 -0.3024 -0.7727 -0.3563
20055SOL    HW164850   5.710  10.335   2.903 -1.1340 -0.1660 -0.1726
20055SOL    HW264851   5.685  10.406   3.034  2.5396  0.6545  0.1929
20056SOL     OW64852  11.493   5.393   2.983 -0.2120  0.6892  0.0122
20056SOL    HW164853  11.526   5.316   3.028  0.6838  1.5848  0.9452
20056SOL    HW264854  11.556   5.462   3.004 -0.7311  1.5663 -1.1902
20057SOL     OW64855   7.232   6.804   9.350 -0.1996 -0.0253  0.0402
20057SOL    HW164856   7.264   6.865   9.284  1.0265  0.0323  0.6615
20057SOL    HW264857   7.249   6.717   9.313 -0.7181  0.0081 -0.2768
20058SOL     OW64858   0.449   9.786   2.589  0.0121  0.2025  0.2335
20058SOL    HW164859   0.494   9.842   2.525  0.5780  0.9055  1.2091
20058SOL    HW264860   0.488   9.811   2.673  0.1016 -1.5164  0.7268
20059SOL     OW64861  11.776   5.704  10.743 -0.5926 -0.1810  0.5432
20059SOL    HW164862  11.802   5.779  10.690 -0.0422  0.2059  1.3509
20059SOL    HW264863  11.798   5.628  10.689 -0.0150  0.1995  0.2325
20060SOL     OW64864   9.730   6.788   1.896 -0.6822  0.4620 -0.4899
20060SOL    HW164865   9.658   6.850   1.904 -1.6609 -0.2107 -3.2644
20060SOL    HW264866   9.711   6.721   1.962 -1.1482  1.5968  0.5712
20061SOL     OW64867   8.346   9.112   2.801  0.6341  0.4493 -0.2445
20061SOL    HW164868   8.398   9.176   2.753  1.3521  0.1198  0.0645
20061SOL    HW264869   8.258   9.121   2.767  1.0016  0.6769 -1.1501
20062SOL     OW64870   4.008   0.006   4.223  0.6710 -0.2022 -0.0241
20062SOL    HW164871   3.926  -0.031   4.189  1.3484 -1.3008 -0.5254
20062SOL    HW264872   4.033  -0.053   4.294 -0.5832  1.9160  2.3116
20063SOL     OW64873  10.181  10.949   7.169  0.7453 -0.2711 -0.1984
20063SOL    HW164874  10.134  10.919   7.091  0.4628 -1.3785  0.3701
20063SOL    HW264875  10.235  10.874   7.195  1.7427  0.4941 -0.0042
20064SOL     OW64876  10.449   1.855  11.699 -0.0320  0.0854 -0.0764
20064SOL    HW164877  10.538   1.821  11.704 -0.6170 -1.4422  0.3714
20064SOL    HW264878  10.439   1.907  11.779 -0.5377 -2.3390  1.5399
20065SOL     OW64879   3.989   4.226  11.836  0.2478  0.0053 -0.4918
20065SOL    HW164880   4.058   4.285  11.806  1.2948 -1.0796 -0.2707
20065SOL    HW264881   3.982   4.243  11.930 -0.4011  0.7050 -0.6474
20066SOL     OW64882   9.289   2.023  10.622  0.4333 -0.1392 -0.0264
20066SOL    HW164883   9.349   2.097  10.623  2.6813 -1.8417  0.0915
20066SOL    HW264884   9.213   2.054  10.573  0.9380  2.4396  0.6695
20067SOL     OW64885   2.204   6.735   6.997  0.1809 -0.4305 -0.2052
20067SOL    HW164886   2.173   6.688   6.920  0.4888 -1.6488  0.3908
20067SOL    HW264887   2.292   6.700   7.013  0.8850  1.1505 -0.3730
20068SOL     OW64888  11.777  11.340   7.825 -0.1403 -0.5494  0.9096
20068SOL    HW164889  11.806  11.313   7.912  0.6293 -0.2868  0.7452
20068SOL    HW264890  11.851  11.388   7.789 -0.8065  0.1868  0.4795
20069SOL     OW64891   4.768   8.908   7.831  0.2691 -0.1325 -0.3279
20069SOL    HW164892   4.817   8.829   7.807  0.4405 -0.4106  0.8759
20069SOL    HW264893   4.809   8.939   7.911  0.2732  1.2671 -0.8474
20070SOL     OW64894   6.630   9.124   2.432 -0.0091  0.2310 -0.1520
20070SOL    HW164895   6.554   9.072   2.457  1.2186 -0.6609  2.0734
20070SOL    HW264896   6.661   9.162   2.514  2.3537 -0.0438 -0.8445
20071SOL     OW64897   6.839  11.568   2.958 -0.3097  0.2615 -0.3486
20071SOL    HW164898   6.842  11.663   2.944 -1.7853  0.3272 -0.3973
20071SOL    HW264899   6.747  11.545   2.943 -0.2538 -0.9704  0.9877
20072SOL     OW64900   7.966   6.520   9.982 -0.2922  0.2905  0.1259
20072SOL    HW164901   7.968   6.613   9.960  2.1176 -0.0351 -1.4694
20072SOL    HW264902   7.899   6.512  10.049 -0.9873  3.0714 -0.1311
20073SOL     OW64903  11.706  11.803   4.059 -0.3199 -0.1856  0.2438
20073SOL    HW164904  11.748  11.852   4.130 -0.4851 -0.5492  0.5920
20073SOL    HW264905  11.779  11.760   4.014  0.3270  3.1127 -2.2783
20074SOL     OW64906   7.237  11.894   5.693 -0.5976  0.3065 -0.0162
20074SOL    HW164907   7.262  11.803   5.709 -1.2512  0.5606  2.9028
20074SOL    HW264908   7.265  11.911   5.603 -2.3322 -3.3931 -1.4707
20075SOL     OW64909   0.018   7.219   8.321  0.1475  0.0968  0.3365
20075SOL    HW164910  -0.011   7.138   8.279  1.6751  0.4142 -1.4948
20075SOL    HW264911   0.113   7.219   8.309  0.1791  2.1887  0.1908
20076SOL     OW64912   7.647   3.855  11.053  0.0089  0.0370  0.1533
20076SOL    HW164913   7.555   3.866  11.073 -0.0879  1.1318 -0.7912
20076SOL    HW264914   7.684   3.943  11.055  0.9995 -0.3601  0.3318
20077SOL     OW64915   3.588   3.358   7.626  0.7973 -0.1176 -0.5042
20077SOL    HW164916   3.583   3.345   7.720  0.8932 -1.2778 -0.6407
20077SOL    HW264917   3.534   3.436   7.609 -0.3947 -0.7306  0.3437
20078SOL     OW64918   4.062   7.516  10.441  0.2648 -0.2033 -0.2213
20078SOL    HW164919   4.118   7.514  10.364  0.8611 -0.3530  0.2146
20078SOL    HW264920   4.120   7.540  10.513  0.0587 -1.6819  0.4792
20079SOL     OW64921   2.248   3.077   3.585  0.3076 -0.0981 -0.0195
20079SOL    HW164922   2.264   2.987   3.556 -0.1972  0.5672 -2.6945
20079SOL    HW264923   2.161   3.076   3.623  0.6092 -0.8655  0.6716
20080SOL     OW64924  10.501   7.914   5.146  0.5450  0.0444 -0.5784
20080SOL    HW164925  10.523   8.002   5.177 -0.8334  0.2283 -0.0326
20080SOL    HW264926  10.440   7.929   5.074  2.2646 -0.4327 -2.2093
20081SOL     OW64927   1.521   3.392   4.924 -0.4146  0.3603 -0.1787
20081SOL    HW164928   1.613   3.421   4.917 -0.3221 -0.1234 -1.0639
20081SOL    HW264929   1.506   3.341   4.845 -0.4490 -2.4081  1.4607
20082SOL     OW64930   0.503   6.769  11.816  0.1519  0.0409  0.4791
20082SOL    HW164931   0.409   6.767  11.796  0.3107 -1.4703 -0.2717
20082SOL    HW264932   0.544   6.728  11.740  1.3874  0.2607  1.0061
20083SOL     OW64933   7.246   6.178  10.355 -0.3413  0.1434  0.1422
20083SOL    HW164934   7.253   6.085  10.377  0.5621 -0.1218 -1.1207
20083SOL    HW264935   7.165   6.206  10.396  0.0659 -0.8456  1.7550
20084SOL     OW64936  11.184   2.201   3.082  0.5055  0.0798 -0.3403
20084SOL    HW164937  11.228   2.213   2.998  0.0817  0.8559 -0.4583
20084SOL    HW264938  11.238   2.137   3.128  0.2620 -1.0509 -1.5445
20085SOL     OW64939   3.900   2.327   7.764  0.3145 -0.0721  0.0406
20085SOL    HW164940   3.923   2.419   7.775  0.2515  0.1608 -1.4713
20085SOL    HW264941   3.898   2.291   7.852  1.1227  1.1858  0.5905
20086SOL     OW64942  11.786   8.473  10.359  0.1078 -0.4533  1.0697
20086SOL    HW164943  11.708   8.450  10.308 -0.2438  0.8262  0.9826
20086SOL    HW264944  11.856   8.419  10.323 -0.2929 -0.1116 -0.2816
20087SOL     OW64945   8.636   6.220   9.785 -0.1230  0.3234  0.0471
20087SOL    HW164946   8.721   6.185   9.759 -0.5418 -0.5117 -0.2527
20087SOL    HW264947   8.577   6.195   9.713 -0.7470  0.3377  0.5484
20088SOL     OW64948   8.185   3.514   0.665 -0.8016 -0.7152 -0.2742
20088SOL    HW164949   8.224   3.491   0.749 -1.8816  2.7074  1.3248
20088SOL    HW264950   8.093   3.488   0.672 -0.7781 -0.9164 -0.6438
20089SOL     OW64951   4.074   9.375   0.278  0.0751 -0.2478 -0.2051
20089SOL    HW164952   4.115   9.289   0.266 -0.0565 -0.2404 -0.7625
20089SOL    HW264953   4.023   9.388   0.198  0.2187  0.4205 -0.1935
20090SOL     OW64954   7.455   8.289   8.840  0.1238  0.3404 -0.0902
20090SOL    HW164955   7.468   8.199   8.808  0.7885 -0.4176  2.0906
20090SOL    HW264956   7.421   8.278   8.929 -1.5088  2.3014 -0.4049
20091SOL     OW64957   5.398   5.646  11.514  0.5589 -0.2179  0.1261
20091SOL    HW164958   5.360   5.696  11.586 -0.2087 -0.1797 -0.3041
20091SOL    HW264959   5.493   5.661  11.523  0.3376  1.7499 -0.2990
20092SOL     OW64960   0.282   4.305  11.937  0.1005 -0.2853  0.2812
20092SOL    HW164961   0.317   4.216  11.934  1.6564  0.2952  0.5002
20092SOL    HW264962   0.358   4.360  11.955 -0.8452  1.0921  0.1819
20093SOL     OW64963   0.302   2.447   2.299 -0.2073 -0.4134 -0.0254
20093SOL    HW164964   0.340   2.366   2.264 -0.7379  0.0475 -1.8044
20093SOL    HW264965   0.208   2.431   2.301 -0.3587  0.2846 -0.8208
20094SOL     OW64966  11.710   2.653   2.799 -0.2219 -0.3747  0.1418
20094SOL    HW164967  11.770   2.581   2.778 -0.0567 -0.4716  0.9274
20094SOL    HW264968  11.723   2.669   2.892 -0.6406  0.3282  0.0866
20095SOL     OW64969   8.934   7.966   0.854 -0.6666 -0.2178 -0.1968
20095SOL    HW164970   8.909   7.878   0.883  0.8407 -0.1522  1.5208
20095SOL    HW264971   8.851   8.007   0.828 -1.5844 -1.6766  0.2819
20096SOL     OW64972   3.000  11.778   2.661 -0.2085  0.0829  0.4375
20096SOL    HW164973   2.977  11.844   2.727  1.2650 -0.1180  1.1747
20096SOL    HW264974   3.094  11.785   2.651 -0.5446  1.5628 -3.2384
20097SOL     OW64975  10.804   2.183  10.315 -0.0360 -0.0234 -0.1176
20097SOL    HW164976  10.712   2.168  10.293 -0.1523  0.6253 -0.1000
20097SOL    HW264977  10.844   2.214  10.234 -0.0811  0.7332  0.1401
20098SOL     OW64978  11.904   1.112  11.418  0.3229  0.6291  0.7057
20098SOL    HW164979  11.868   1.188  11.372  0.1328 -0.2072 -0.5483
20098SOL    HW264980  11.879   1.126  11.510 -1.5696  1.0071  0.1667
20099SOL     OW64981   3.778  11.710   6.690  0.2950  0.0421  0.5372
20099SOL    HW164982   3.783  11.614   6.682  1.8766  0.1254  0.3206
20099SOL    HW264983   3.827  11.730   6.769 -1.1261  0.6041  1.3187
20100SOL     OW64984   4.701   7.098  11.381 -0.0539  0.5627  0.0386
20100SOL    HW164985   4.786   7.143  11.374  0.4805 -0.3370  0.5265
20100SOL    HW264986   4.655   7.145  11.450 -0.1286  1.3173 -0.5118
20101SOL     OW64987   6.520   2.977   0.456  0.1113  0.2601 -0.0025
20101SOL    HW164988   6.609   2.967   0.490 -0.0099 -1.0726 -0.0279
20101SOL    HW264989   6.465   2.982   0.534  0.1509  0.4719  0.0117
20102SOL     OW64990   1.360   2.095   5.643 -0.1008 -0.3417  0.0654
20102SOL    HW164991   1.337   2.003   5.652  1.1669 -0.6521  0.3795
20102SOL    HW264992   1.276   2.141   5.641 -0.7569 -1.5194 -0.4140
20103SOL     OW64993   2.114  11.469   9.629 -0.0162  0.2947 -0.1562
20103SOL    HW164994   2.163  11.549   9.652  1.1684 -0.7453  1.1519
20103SOL    HW264995   2.166  11.429   9.560 -1.2015  1.1650 -1.6067
20104SOL     OW64996   9.047  11.508   4.016 -0.4528  0.4461 -0.1410
20104SOL    HW164997   9.052  11.428   3.964  0.7629  0.7336 -0.4972
20104SOL    HW264998   9.069  11.579   3.955  0.8626  0.8035  0.7108
20105SOL     OW64999   9.812  10.357  11.399 -0.3413 -0.4662 -0.2462
20105SOL    HW165000   9.838  10.344  11.491 -0.6076  0.8110  0.0358
20105SOL    HW265001   9.864  10.433  11.371 -2.3392  0.9898 -0.2343
20106SOL     OW65002   7.050   3.722   1.677 -0.0192  0.4595  0.3409
20106SOL    HW165003   6.998   3.786   1.629  1.5158  0.5818 -1.2461
20106SOL    HW265004   7.056   3.758   1.765  0.3606  2.2632 -0.3769
20107SOL     OW65005   4.839   3.686  11.130  0.0332 -0.6597  0.4732
20107SOL    HW165006   4.886   3.728  11.059 -1.5664  1.1112  0.3851
20107SOL    HW265007   4.764   3.644  11.088 -0.9961  0.5040  1.0609
20108SOL     OW65008   7.441   1.207   7.489  0.4811  0.0074  0.3088
20108SOL    HW165009   7.408   1.260   7.417  1.0573  0.8605  0.6557
20108SOL    HW265010   7.512   1.156   7.450 -0.5390 -1.0629 -0.1940
20109SOL     OW65011   3.948   7.226   1.887  0.0065 -0.2840  0.1619
20109SOL    HW165012   4.042   7.211   1.899  0.2914  0.2068 -1.2769
20109SOL    HW265013   3.943   7.286   1.813 -1.5137 -2.3185 -1.4868
20110SOL     OW65014   1.294   5.626   0.144 -0.1478  0.0663 -0.0169
20110SOL    HW165015   1.258   5.590   0.225 -4.2112  1.5033 -0.9443
20110SOL    HW265016   1.329   5.712   0.169  1.7020 -0.8213  0.6673
20111SOL     OW65017   6.714   9.359   0.363  0.0839 -0.0907  0.0888
20111SOL    HW165018   6.675   9.420   0.426 -0.2676  0.2182 -0.4183
20111SOL    HW265019   6.798   9.334   0.402  0.9888  1.9461 -0.3847
20112SOL     OW65020   3.959   8.462  10.072  0.7765 -0.1710 -0.2274
20112SOL    HW165021   4.034   8.416  10.110  0.8775 -0.2218 -0.4899
20112SOL    HW265022   3.977   8.554  10.088  0.9304 -0.1790 -0.3560
20113SOL     OW65023   2.235   8.554   8.190 -0.2573  0.4759  0.0371
20113SOL    HW165024   2.172   8.593   8.129  0.4148  0.5953 -0.5911
20113SOL    HW265025   2.320   8.588   8.161  0.4447 -1.8993 -0.9316
20114SOL     OW65026   6.266   5.845   8.680  0.2048  0.4003 -0.7343
20114SOL    HW165027   6.206   5.861   8.608  0.1272  0.6197 -0.6229
20114SOL    HW265028   6.289   5.753   8.673  2.3948  1.0096 -2.7351
20115SOL     OW65029   7.330   0.331   4.501 -0.3778 -0.2602  0.0456
20115SOL    HW165030   7.296   0.356   4.586 -0.7616  0.4517 -0.3162
20115SOL    HW265031   7.278   0.380   4.438  0.2743 -0.3480 -0.5797
20116SOL     OW65032   7.524   3.824   3.839  0.0917 -0.3507 -0.3875
20116SOL    HW165033   7.455   3.768   3.876  0.4118 -1.7669 -1.8056
20116SOL    HW265034   7.477   3.884   3.780  0.0954 -2.2218 -2.4335
20117SOL     OW65035  11.330   8.129  10.640  0.4423  0.3206 -0.1435
20117SOL    HW165036  11.348   8.146  10.733 -1.9902  0.6026  0.3243
20117SOL    HW265037  11.358   8.209  10.595 -1.1801  1.4324  0.7523
20118SOL     OW65038   3.539   3.628   8.723 -0.4633 -0.1423 -0.3526
20118SOL    HW165039   3.620   3.578   8.724 -0.7074 -0.6348 -2.1947
20118SOL    HW265040   3.565   3.716   8.697 -0.1721  0.5229  1.9285
20119SOL     OW65041   6.252   0.256   6.279 -0.0242 -0.0300  0.2523
20119SOL    HW165042   6.307   0.200   6.334 -0.4590  1.4997  2.3960
20119SOL    HW265043   6.199   0.306   6.342 -1.1968  1.2102 -1.6245
20120SOL     OW65044  10.722   1.940   6.198  0.4472 -0.1924 -0.1594
20120SOL    HW165045  10.696   1.858   6.156  1.8270 -0.2640 -0.9052
20120SOL    HW265046  10.795   1.915   6.256  0.6443  0.4493 -0.1266
20121SOL     OW65047   8.186  11.786   2.694 -0.3328  0.2189 -0.1005
20121SOL    HW165048   8.157  11.874   2.719 -0.3692 -0.2823  1.7612
20121SOL    HW265049   8.158  11.730   2.766  2.0614 -0.8676  0.0998
20122SOL     OW65050   2.257   1.991   9.392  0.3048  0.1638  0.6584
20122SOL    HW165051   2.262   2.050   9.468 -0.9930  1.9686 -0.5574
20122SOL    HW265052   2.315   2.031   9.327 -2.3570  1.5815 -1.0363
20123SOL     OW65053   2.508   5.669  11.782 -0.4615 -0.6876  0.4685
20123SOL    HW165054   2.446   5.627  11.842  0.1488 -1.1669  0.7779
20123SOL    HW265055   2.491   5.762  11.792 -0.9618 -0.8014  0.7406
20124SOL     OW65056   7.604   7.410   3.957  0.3146  0.0608  0.4423
20124SOL    HW165057   7.534   7.448   3.905 -0.3776 -0.5025  0.9362
20124SOL    HW265058   7.647   7.485   3.999  0.3658  0.4499 -0.2963
20125SOL     OW65059   4.723   4.913  11.982  0.1783 -0.0353  0.3108
20125SOL    HW165060   4.720   4.819  11.964  1.3157 -0.4828  2.1700
20125SOL    HW265061   4.806   4.942  11.946 -0.7712  0.6102 -1.5076
20126SOL     OW65062   6.126  10.465   4.379  0.1709 -0.2538  0.1550
20126SOL    HW165063   6.150  10.446   4.470 -0.8514  3.4659  1.3472
20126SOL    HW265064   6.058  10.401   4.359 -1.7659  0.6335  3.1598
20127SOL     OW65065   8.526   5.685   7.126 -0.1526 -0.3135 -0.2212
20127SOL    HW165066   8.448   5.731   7.157  1.0262  2.0701 -0.5341
20127SOL    HW265067   8.596   5.750   7.132  1.8852 -2.4167  0.2167
20128SOL     OW65068  10.182   8.872  10.619 -0.1099 -0.1553  0.4397
20128SOL    HW165069  10.228   8.828  10.690 -0.6106 -1.0093  0.2502
20128SOL    HW265070  10.238   8.947  10.597  0.6323 -0.5449  0.9398
20129SOL     OW65071  10.322   3.605   0.734 -0.0961 -0.6804  0.2775
20129SOL    HW165072  10.361   3.686   0.766  0.2621 -0.9747  0.6081
20129SOL    HW265073  10.350   3.599   0.643  0.7643 -0.9502  0.5440
20130SOL     OW65074  11.085   1.594   0.273 -0.2226  0.4447 -0.1610
20130SOL    HW165075  11.036   1.551   0.342  0.4827  0.8873  0.6412
20130SOL    HW265076  11.023   1.655   0.233 -0.8827 -0.4334 -0.5178
20131SOL     OW65077   4.009   5.584   1.579 -0.1080 -0.0802  0.0841
20131SOL    HW165078   4.035   5.535   1.658 -0.5468 -0.8395 -0.2346
20131SOL    HW265079   4.069   5.658   1.577 -1.6784  1.4015  2.5374
20132SOL     OW65080   0.864  10.052   1.562  0.4050  0.3717  0.1318
20132SOL    HW165081   0.932  10.081   1.622 -0.1473  1.3655  0.3022
20132SOL    HW265082   0.906   9.984   1.509  1.1632  0.1215  1.0280
20133SOL     OW65083   2.513   8.040   0.101 -0.2521  0.5228  0.2528
20133SOL    HW165084   2.508   7.965   0.041  0.3784  0.9930 -0.4036
20133SOL    HW265085   2.456   8.016   0.174  0.2196 -0.7628  0.2207
20134SOL     OW65086   3.749   7.920   0.827 -0.4014  0.2616  0.9807
20134SOL    HW165087   3.764   7.872   0.745  1.6106  0.9196  0.9157
20134SOL    HW265088   3.735   7.851   0.892  0.4182 -0.3776  0.5060
20135SOL     OW65089   6.140   7.335   3.895  0.4970  0.3937  0.1690
20135SOL    HW165090   6.188   7.325   3.977 -2.0518  0.8196  1.8013
20135SOL    HW265091   6.128   7.245   3.863  0.1973  0.1069  1.0721
20136SOL     OW65092  11.804   4.991   4.709 -0.6877 -0.5235 -0.3101
20136SOL    HW165093  11.806   4.896   4.699 -1.2673 -0.6589  0.6440
20136SOL    HW265094  11.796   5.005   4.804 -0.2040  0.4874 -0.3974
20137SOL     OW65095   2.877  11.027  11.570 -0.5531  0.9466 -0.3977
20137SOL    HW165096   2.806  10.997  11.514 -1.5978  1.2575  0.7375
20137SOL    HW265097   2.855  10.995  11.657  0.6029  1.2168  0.0090
20138SOL     OW65098   2.487  10.119   9.365 -0.7189 -0.3376 -0.7352
20138SOL    HW165099   2.483  10.041   9.309 -1.1855 -0.6187 -0.3200
20138SOL    HW265100   2.562  10.168   9.333  0.6877 -1.8345  0.0987
20139SOL     OW65101   5.364   4.641   8.600 -0.0838 -0.4088  0.4610
20139SOL    HW165102   5.411   4.590   8.666 -1.3818 -0.3802  1.4512
20139SOL    HW265103   5.345   4.724   8.645  2.8696  1.4688 -1.4154
20140SOL     OW65104   4.143   3.050   2.472 -0.4171  0.3506  0.3201
20140SOL    HW165105   4.144   2.975   2.412  1.9742  1.4343 -1.1324
20140SOL    HW265106   4.161   3.011   2.558  1.2898 -0.7539 -0.4685
20141SOL     OW65107   9.901   2.602   4.635  0.4775 -0.1725 -0.2110
20141SOL    HW165108   9.902   2.527   4.695  1.3882 -0.5266 -0.6469
20141SOL    HW265109   9.880   2.677   4.691 -1.1782 -0.8330  0.1053
20142SOL     OW65110   4.288   0.320   3.504  0.0806 -0.3861 -0.2915
20142SOL    HW165111   4.216   0.300   3.444 -0.7841  0.6416  0.3551
20142SOL    HW265112   4.255   0.293   3.590  0.6428 -0.3115 -0.0503
20143SOL     OW65113   9.863   4.288   0.446  0.2576  0.1724 -0.6813
20143SOL    HW165114   9.840   4.380   0.457 -0.6801  0.1871 -2.3778
20143SOL    HW265115   9.920   4.287   0.369 -1.2713 -0.8288 -1.8598
20144SOL     OW65116   6.156   2.103   2.582 -0.1730 -0.4505  0.2034
20144SOL    HW165117   6.152   2.082   2.675  0.5005 -0.0793  0.3187
20144SOL    HW265118   6.178   2.020   2.540  0.4157 -0.4275  0.4611
20145SOL     OW65119   6.125   7.270  10.895 -0.5224 -0.3886 -0.2557
20145SOL    HW165120   6.198   7.328  10.873 -0.9823  0.1727 -0.3280
20145SOL    HW265121   6.165   7.184  10.905  0.0767 -0.1880 -0.8210
20146SOL     OW65122  10.852   2.441   1.713 -0.5396 -0.2169 -0.0030
20146SOL    HW165123  10.771   2.481   1.745  0.0099  1.5616 -0.7131
20146SOL    HW265124  10.891   2.508   1.658  1.8202 -0.7371  0.9353
20147SOL     OW65125  11.355   3.375   6.059  0.1898  0.5502  0.0848
20147SOL    HW165126  11.388   3.309   6.119 -1.1734  1.0560  1.4331
20147SOL    HW265127  11.316   3.442   6.115 -1.6675  0.7525 -1.3471
20148SOL     OW65128  11.250   5.001  10.528 -0.0959 -0.1003 -1.0132
20148SOL    HW165129  11.179   4.937  10.527 -0.5888  0.4324 -0.9134
20148SOL    HW265130  11.324   4.955  10.567 -1.2091  0.1806  1.6501
20149SOL     OW65131  10.545   1.948   6.546 -0.3961 -0.4197 -0.1390
20149SOL    HW165132  10.603   2.005   6.496 -0.9556  1.3125  1.0833
20149SOL    HW265133  10.458   1.968   6.513 -0.4696 -1.8540 -0.8749
20150SOL     OW65134   5.079   9.765   3.644 -0.0060  0.9204  0.6177
20150SOL    HW165135   5.063   9.759   3.738 -0.4640 -3.3104  0.4580
20150SOL    HW265136   5.174   9.775   3.636  0.0869  0.8317  1.5252
20151SOL     OW65137   9.732   4.699   1.201  0.4682 -0.2761 -0.5250
20151SOL    HW165138   9.775   4.690   1.115  1.4552  1.6889 -0.2832
20151SOL    HW265139   9.750   4.616   1.245  2.7261 -0.1235 -1.0353
20152SOL     OW65140   2.674   6.210   3.208 -0.3955  0.1391  0.4334
20152SOL    HW165141   2.648   6.122   3.181  1.0548  0.2701 -1.6200
20152SOL    HW265142   2.751   6.196   3.263  0.5622  0.1301 -0.8643
20153SOL     OW65143  11.480   0.257   4.386  0.6033 -0.3399  0.0551
20153SOL    HW165144  11.453   0.184   4.330  1.0242  0.4020 -1.1687
20153SOL    HW265145  11.399   0.284   4.431  0.3092 -1.1270  0.0028
20154SOL     OW65146   8.177   8.376   2.222  0.1996  0.4438  0.7196
20154SOL    HW165147   8.106   8.344   2.166  0.6356 -1.0211  0.9595
20154SOL    HW265148   8.133   8.429   2.289 -0.5327  0.5488  0.1700
20155SOL     OW65149   3.244   4.913   6.175 -0.1368  0.1839  0.2248
20155SOL    HW165150   3.211   4.864   6.100  0.7845  1.0531 -0.7898
20155SOL    HW265151   3.191   4.883   6.248 -0.2870 -1.5661 -0.5350
20156SOL     OW65152   8.520   6.185  10.848 -0.0478 -0.5138 -0.0426
20156SOL    HW165153   8.600   6.143  10.880  0.8492  0.5993 -0.7538
20156SOL    HW265154   8.507   6.259  10.907  0.8225  0.7181 -1.3309
20157SOL     OW65155   5.587   9.109   3.493  0.2672  0.3094  0.2912
20157SOL    HW165156   5.561   9.141   3.406  1.2752 -1.3605 -0.6723
20157SOL    HW265157   5.598   9.014   3.482  0.2306  0.0223  2.3023
20158SOL     OW65158  10.381   4.234   6.645 -0.8983 -0.2801  0.7646
20158SOL    HW165159  10.413   4.272   6.563 -1.4897  2.5367  1.7271
20158SOL    HW265160  10.428   4.152   6.654  1.1687  0.6094 -1.0788
20159SOL     OW65161   3.115   5.447   0.376  0.6945  0.2185  0.2162
20159SOL    HW165162   3.200   5.404   0.388  1.7485  2.0979 -0.0686
20159SOL    HW265163   3.060   5.380   0.335  1.2664 -1.8116  2.5322
20160SOL     OW65164   1.399   7.282   5.377  0.2287  0.4630 -0.0192
20160SOL    HW165165   1.387   7.375   5.360  0.4035  0.4218 -0.3950
20160SOL    HW265166   1.423   7.245   5.292 -0.2909 -0.0049  0.0309
20161SOL     OW65167   7.323  11.642   5.621  0.0528 -0.1626 -0.5401
20161SOL    HW165168   7.340  11.548   5.607 -0.4396 -0.4264  0.5271
20161SOL    HW265169   7.258  11.664   5.555  0.9116 -0.3147 -1.4679
20162SOL     OW65170   4.701   9.677   1.111  0.2558 -0.3775  0.0515
20162SOL    HW165171   4.775   9.616   1.111  0.2196 -0.4221 -0.0795
20162SOL    HW265172   4.624   9.620   1.109  0.1978 -0.3519  1.1725
20163SOL     OW65173   3.075   0.817   3.795  0.4507  0.0851 -0.4869
20163SOL    HW165174   3.101   0.899   3.837  1.1797 -1.4998  2.4355
20163SOL    HW265175   3.105   0.749   3.855 -0.6118 -2.3302 -2.5208
20164SOL     OW65176  11.510  11.751   6.881 -0.4704 -0.8756  0.8661
20164SOL    HW165177  11.544  11.811   6.947 -0.5299  0.4414 -0.2643
20164SOL    HW265178  11.560  11.771   6.802 -3.0294  0.3436 -0.5456
20165SOL     OW65179  11.012   1.431   1.597  0.0463 -0.0807  0.0163
20165SOL    HW165180  11.046   1.437   1.508 -2.5568  1.6596 -0.9936
20165SOL    HW265181  11.020   1.519   1.632 -1.1648 -0.1714  0.5721
20166SOL     OW65182   0.493   6.610   2.438  0.5561 -0.5338 -0.5650
20166SOL    HW165183   0.431   6.556   2.486 -0.7788  2.4348  1.4024
20166SOL    HW265184   0.570   6.616   2.495  0.0566  0.7890  0.0297
20167SOL     OW65185   4.653   8.797  10.065 -0.0858 -0.0561  0.6660
20167SOL    HW165186   4.655   8.824  10.156 -0.5510  1.7196  0.1948
20167SOL    HW265187   4.560   8.793  10.042  0.0274  0.8266 -0.0501
20168SOL     OW65188   0.637   5.242   3.821 -0.3717 -0.0785 -0.5227
20168SOL    HW165189   0.732   5.244   3.823 -0.3783  2.1358  1.1332
20168SOL    HW265190   0.613   5.165   3.872  0.5672  0.4103  0.7074
20169SOL     OW65191   3.591   0.525   9.379 -0.1797  0.4172  1.1128
20169SOL    HW165192   3.657   0.500   9.314 -1.8319  1.6026 -1.1540
20169SOL    HW265193   3.549   0.442   9.403  0.0529  0.0196  0.1937
20170SOL     OW65194   3.915   7.911   3.685 -0.3905 -0.1892 -0.1635
20170SOL    HW165195   3.870   7.975   3.631  0.1639 -0.4699 -0.9766
20170SOL    HW265196   4.003   7.904   3.647 -0.3335 -1.1800  0.1183
20171SOL     OW65197   2.603   1.616   5.895 -0.2801  0.2380  0.5823
20171SOL    HW165198   2.529   1.559   5.915 -1.5353  0.4270 -2.9234
20171SOL    HW265199   2.571   1.704   5.912 -1.3637  0.4041 -1.9638
20172SOL     OW65200  10.216   4.746   3.940  0.4377  0.5867  0.3553
20172SOL    HW165201  10.183   4.745   4.030 -0.3145  2.1889  0.1429
20172SOL    HW265202  10.230   4.654   3.918  0.9890  0.1871  2.2281
20173SOL     OW65203   7.250   5.344   4.893  0.2564 -0.3165  0.2751
20173SOL    HW165204   7.211   5.326   4.807 -1.2460 -0.1169  0.8930
20173SOL    HW265205   7.232   5.265   4.944 -0.3026  0.2081  0.8973
20174SOL     OW65206  10.480   3.830   5.823 -0.3287  0.4064 -0.1284
20174SOL    HW165207  10.572   3.847   5.801 -0.0517 -0.8158 -0.0060
20174SOL    HW265208  10.469   3.868   5.910 -0.0627  0.9575 -0.3339
20175SOL     OW65209   9.322  10.756  11.719 -0.4345 -0.1198  0.5992
20175SOL    HW165210   9.241  10.750  11.770 -0.7531 -0.8095  0.0321
20175SOL    HW265211   9.343  10.665  11.696 -0.0084  0.1310 -0.0379
20176SOL     OW65212   7.564   8.745   9.818 -0.0911  0.3960  0.4422
20176SOL    HW165213   7.624   8.813   9.849  0.3483  0.6396 -0.8863
20176SOL    HW265214   7.608   8.663   9.837  1.1599  0.5818 -1.3566
20177SOL     OW65215   5.033   9.784   1.771 -0.6001  0.0405  0.5449
20177SOL    HW165216   5.041   9.815   1.681 -0.8446 -2.3837 -0.3984
20177SOL    HW265217   5.070   9.854   1.824  2.6131  0.2275 -1.6742
20178SOL     OW65218   2.731   7.886   8.617  0.1497 -0.3201 -0.9796
20178SOL    HW165219   2.650   7.937   8.620 -0.5658 -1.3745 -1.6603
20178SOL    HW265220   2.720   7.819   8.685  1.6495  1.1561  0.8528
20179SOL     OW65221   1.169   9.894   5.152 -0.0406 -0.5389 -0.0207
20179SOL    HW165222   1.130   9.981   5.144 -1.8710 -1.0605  2.3601
20179SOL    HW265223   1.150   9.851   5.068 -2.7316 -0.0066  0.2570
20180SOL     OW65224   8.465   9.842   2.961  0.0387  0.4403  0.3834
20180SOL    HW165225   8.497   9.756   2.988  1.2011  0.3471 -1.1982
20180SOL    HW265226   8.371   9.840   2.981  0.5405 -0.0903  3.0820
20181SOL     OW65227  11.211   4.576   7.029 -0.2535 -0.2362 -0.3489
20181SOL    HW165228  11.244   4.665   7.038  0.4103 -0.5325  0.3100
20181SOL    HW265229  11.147   4.567   7.099 -1.0137  0.0140 -0.9994
20182SOL     OW65230   0.309   7.682  10.119  0.2710  0.1720 -0.3098
20182SOL    HW165231   0.268   7.674  10.206  2.1420 -1.7254  0.4875
20182SOL    HW265232   0.308   7.593  10.085 -0.4437  0.8957 -2.3052
20183SOL     OW65233   5.877   6.531   8.249 -0.1351 -0.9105 -0.0194
20183SOL    HW165234   5.899   6.568   8.335  0.5751 -1.4558  0.0382
20183SOL    HW265235   5.923   6.447   8.246 -0.1775 -0.9104 -0.9247
20184SOL     OW65236   2.554   3.232   7.782 -0.2880 -0.3278  0.2439
20184SOL    HW165237   2.633   3.180   7.765 -1.2217 -1.5479 -0.4769
20184SOL    HW265238   2.522   3.201   7.866 -1.5783 -1.9323 -0.7835
20185SOL     OW65239   7.555   3.580   6.196 -0.0582 -0.3439 -0.5763
20185SOL    HW165240   7.494   3.646   6.229 -0.7125 -1.1081 -0.2221
20185SOL    HW265241   7.642   3.618   6.210 -0.4582  0.9409 -1.4865
20186SOL     OW65242   2.262   0.113   0.722  0.1538 -0.5278 -0.2197
20186SOL    HW165243   2.186   0.061   0.749 -0.6943  1.5460  1.7191
20186SOL    HW265244   2.317   0.118   0.801  1.1006  0.0439 -0.8891
20187SOL     OW65245   0.253  10.540   4.838 -0.6820  0.1755 -0.2562
20187SOL    HW165246   0.327  10.485   4.812  0.7053  1.8711 -0.1127
20187SOL    HW265247   0.191  10.480   4.879  0.6733 -1.2868 -0.2520
20188SOL     OW65248   3.639   1.377  10.346 -0.0177  0.1579  0.1699
20188SOL    HW165249   3.559   1.355  10.394  0.7093  0.0178  1.3519
20188SOL    HW265250   3.617   1.456  10.297 -0.9585 -0.0313  0.2700
20189SOL     OW65251   5.956   0.650   6.385  0.2930 -0.1793 -0.3230
20189SOL    HW165252   5.867   0.684   6.391 -0.0952 -1.3054  0.6251
20189SOL    HW265253   6.000   0.709   6.323 -0.9172  0.7681 -0.3157
20190SOL     OW65254   7.047   2.884   0.496  0.2281 -0.1596 -0.2653
20190SOL    HW165255   7.003   2.943   0.556 -1.2274 -1.2705 -0.1711
20190SOL    HW265256   7.007   2.901   0.411  0.2888 -0.5241 -0.3717
20191SOL     OW65257   8.609   5.599   3.172  0.0261  0.3060  0.8770
20191SOL    HW165258   8.687   5.544   3.177 -0.9838 -1.3921 -0.7577
20191SOL    HW265259   8.642   5.687   3.159  1.6681 -0.2877  0.7987
20192SOL     OW65260   0.935   3.252   4.302  0.1089  0.5291 -0.6666
20192SOL    HW165261   0.873   3.291   4.241 -0.1328 -0.2360 -0.9239
20192SOL    HW265262   0.950   3.320   4.368 -1.1820  0.6519 -0.4733
20193SOL     OW65263   2.247   8.158   7.902  0.3667  0.4783  0.0509
20193SOL    HW165264   2.258   8.064   7.920  0.5802  0.5921  0.5383
20193SOL    HW265265   2.161   8.179   7.939 -1.3104 -0.2433 -3.0783
20194SOL     OW65266  10.209   9.458   1.919  0.1821 -0.2353  0.4554
20194SOL    HW165267  10.286   9.409   1.889  1.2093 -0.2814  2.9250
20194SOL    HW265268  10.151   9.391   1.956  1.5318  0.2119  3.7167
20195SOL     OW65269   5.282   8.787   0.971  0.0480 -0.0284 -0.1267
20195SOL    HW165270   5.366   8.755   0.939  0.5419 -1.0315  2.0210
20195SOL    HW265271   5.218   8.752   0.909  1.0891 -0.3231 -1.0587
20196SOL     OW65272  10.726   0.931   2.150 -0.1853 -0.5810  0.0785
20196SOL    HW165273  10.647   0.932   2.204  0.2282  1.1382  0.6904
20196SOL    HW265274  10.702   0.982   2.072  0.0637 -0.8012 -0.1461
20197SOL     OW65275   5.268   1.624  10.981  0.6955 -0.0017  0.3048
20197SOL    HW165276   5.240   1.631  10.890  0.0924 -2.2946  0.2446
20197SOL    HW265277   5.364   1.630  10.977  0.7396 -0.9540 -0.6217
20198SOL     OW65278   5.513   0.043   5.380  0.4316  0.2746 -0.0283
20198SOL    HW165279   5.449  -0.028   5.386  0.2062  0.3382 -1.3462
20198SOL    HW265280   5.498   0.081   5.293  2.3516  0.1958 -0.4345
20199SOL     OW65281   0.476   9.701   5.445 -0.0437 -0.2448 -0.0568
20199SOL    HW165282   0.403   9.717   5.504  0.3537  1.3505  0.0345
20199SOL    HW265283   0.553   9.698   5.502  0.2878  0.8466 -0.4208
20200SOL     OW65284  11.894  11.586   1.717  0.0478 -0.2874 -0.3745
20200SOL    HW165285  11.950  11.526   1.668 -1.1479 -0.6045 -1.4097
20200SOL    HW265286  11.914  11.568   1.809  1.2486 -0.7400 -0.6982
20201SOL     OW65287   3.632   4.274   1.078 -0.4562 -0.2378 -0.0043
20201SOL    HW165288   3.634   4.187   1.118 -0.3059 -0.7661 -1.1249
20201SOL    HW265289   3.637   4.334   1.152 -0.2462 -1.1806  0.7725
20202SOL     OW65290  10.365   2.106   4.058  0.6421 -0.3359  0.2852
20202SOL    HW165291  10.385   2.164   3.985  1.2312  0.8680  1.3657
20202SOL    HW265292  10.451   2.086   4.096  0.2850 -0.3033  1.1233
20203SOL     OW65293  10.886   3.898   7.131  0.6033  0.0458  0.0097
20203SOL    HW165294  10.902   3.804   7.140  0.9885  0.1201  0.1128
20203SOL    HW265295  10.854   3.908   7.042  1.5255 -0.0601 -0.3491
20204SOL     OW65296   6.134   0.826   6.241 -0.2096 -0.2448 -0.0219
20204SOL    HW165297   6.071   0.844   6.172 -0.1458  0.8625  0.1896
20204SOL    HW265298   6.190   0.757   6.206  2.2784  2.8238 -2.7061
20205SOL     OW65299   3.136   2.557   9.745  0.0733 -0.4138 -0.1548
20205SOL    HW165300   3.210   2.593   9.793  1.1371 -2.0617 -0.4812
20205SOL    HW265301   3.059   2.583   9.796  0.6049  3.1513 -0.9217
20206SOL     OW65302  11.420   0.533   5.820  0.0903  0.0625  0.0519
20206SOL    HW165303  11.509   0.567   5.818  0.2536 -0.2436  1.2563
20206SOL    HW265304  11.389   0.552   5.908  0.1704 -2.7827  0.8061
20207SOL     OW65305   9.926   7.342   0.552  0.3036 -0.1109 -0.4814
20207SOL    HW165306  10.019   7.321   0.550  0.4375  0.5179 -0.9920
20207SOL    HW265307   9.899   7.340   0.460  0.0338  0.6957 -0.4210
20208SOL     OW65308   4.883   8.795   8.505 -0.1295  0.0563 -0.2496
20208SOL    HW165309   4.871   8.814   8.598 -0.9032 -1.0873 -0.0931
20208SOL    HW265310   4.798   8.812   8.465 -0.0562 -0.3110 -0.5827
20209SOL     OW65311   0.471   0.752   7.688  0.5207  0.2711  0.2877
20209SOL    HW165312   0.542   0.691   7.708  0.0845 -0.0991  0.7385
20209SOL    HW265313   0.504   0.837   7.716  0.4971 -0.0162  1.2253
20210SOL     OW65314  11.455   9.232   2.318  0.9610  0.7157  0.2351
20210SOL    HW165315  11.523   9.166   2.305  0.8176  0.8235 -1.2666
20210SOL    HW265316  11.375   9.182   2.331  1.0258  0.5800  0.1194
20211SOL     OW65317   8.334   0.924   4.851  0.2563  0.0913 -0.1980
20211SOL    HW165318   8.244   0.957   4.851  0.3634  0.5019 -1.9209
20211SOL    HW265319   8.375   0.968   4.777  1.8850 -0.1104  0.5384
20212SOL     OW65320   7.708   1.100  11.948  0.2013  0.1708  0.2128
20212SOL    HW165321   7.627   1.150  11.956 -0.5548 -0.7976 -1.0119
20212SOL    HW265322   7.682   1.009  11.965  0.4662 -0.5332 -2.6952
20213SOL     OW65323  10.709   9.063   8.933  0.2356 -0.0676  0.2384
20213SOL    HW165324  10.737   9.131   8.994  1.8467  0.2792 -0.8193
20213SOL    HW265325  10.768   9.073   8.858  0.7671 -2.8493  0.1767
20214SOL     OW65326   7.214   3.128   8.355 -0.0787 -0.2139  0.1101
20214SOL    HW165327   7.118   3.128   8.349 -0.1649 -0.2381  1.2506
20214SOL    HW265328   7.243   3.081   8.277 -0.9923 -0.2239 -0.2398
20215SOL     OW65329   6.047   6.051   1.660  0.1594  0.0332 -0.7048
20215SOL    HW165330   6.073   6.022   1.572  1.2956 -0.3595 -0.2619
20215SOL    HW265331   6.128   6.083   1.699 -0.2840 -0.0358  0.2939
20216SOL     OW65332   8.711   7.383   7.541  0.0126  0.0313  0.2481
20216SOL    HW165333   8.770   7.435   7.595 -0.9989  0.4862  0.9462
20216SOL    HW265334   8.720   7.294   7.575  0.8120 -0.0392 -0.1229
20217SOL     OW65335   6.352   9.457   5.067  0.4418 -0.1569 -0.0699
20217SOL    HW165336   6.290   9.483   4.999  0.6707 -0.8412 -0.5513
20217SOL    HW265337   6.329   9.366   5.088 -1.4147  0.8348  2.7742
20218SOL     OW65338   4.146   2.118   2.696 -0.4885 -0.5710 -0.3448
20218SOL    HW165339   4.217   2.054   2.703  0.1113  0.1853  0.7301
20218SOL    HW265340   4.170   2.173   2.621  1.1147  0.8760  1.1298
20219SOL     OW65341   4.807   5.365  11.078  0.2561 -0.3918 -0.4770
20219SOL    HW165342   4.761   5.284  11.056  0.9378 -0.9185 -0.0420
20219SOL    HW265343   4.892   5.356  11.035  1.8757 -1.7219  2.6390
20220SOL     OW65344   6.080   7.434  11.330  0.1604  0.0407  0.8032
20220SOL    HW165345   6.104   7.513  11.378  0.3531  0.6970 -0.3438
20220SOL    HW265346   6.135   7.436  11.251  0.5071 -1.4839  0.9791
20221SOL     OW65347   6.210   4.568   6.343 -0.0194 -0.4925  0.4356
20221SOL    HW165348   6.146   4.546   6.410 -0.0964  0.6346  0.7578
20221SOL    HW265349   6.293   4.576   6.390 -0.4991  2.9166  0.9706
20222SOL     OW65350   8.333   2.588   4.007 -1.3882 -0.0714  0.1599
20222SOL    HW165351   8.420   2.559   3.978 -0.0265  1.8217  2.0331
20222SOL    HW265352   8.320   2.544   4.091 -1.1056  1.4736  1.0531
20223SOL     OW65353  11.379  10.492   4.725  0.1820 -0.0169  0.5216
20223SOL    HW165354  11.447  10.490   4.657  0.3335  0.6198  0.6506
20223SOL    HW265355  11.297  10.499   4.676  0.3163  0.8757  0.3989
20224SOL     OW65356   7.766   8.592   2.402 -0.1413  0.6225 -0.1337
20224SOL    HW165357   7.679   8.619   2.373 -0.7172 -0.3721  0.5801
20224SOL    HW265358   7.780   8.507   2.360 -0.4188 -0.2006  1.3591
20225SOL     OW65359   2.318   5.485  11.591  0.1912  0.0916 -0.1464
20225SOL    HW165360   2.377   5.534  11.648 -0.8078 -0.5082  1.4506
20225SOL    HW265361   2.260   5.550  11.553  2.3617  0.8447 -2.5079
20226SOL     OW65362   7.077   0.409   3.146 -0.0998  0.1540 -0.4474
20226SOL    HW165363   7.036   0.478   3.198  0.0479  0.3452 -0.5804
20226SOL    HW265364   7.010   0.341   3.137  0.1927 -0.3383  0.8536
20227SOL     OW65365  11.918   9.458   8.067  0.2148  0.1759 -0.3206
20227SOL    HW165366  11.988   9.500   8.017 -0.0201 -0.0980 -0.9004
20227SOL    HW265367  11.907   9.373   8.025 -0.1943  0.0580  0.0189
20228SOL     OW65368   2.042   2.308   0.267  0.2489  0.9095 -0.2299
20228SOL    HW165369   2.042   2.403   0.259  0.2848  0.8924 -0.4401
20228SOL    HW265370   1.955   2.281   0.237  1.2553  0.6389 -3.1654
20229SOL     OW65371   2.518   4.147   4.554  0.3039 -0.0499 -0.0490
20229SOL    HW165372   2.560   4.152   4.468  0.7146  1.1346  0.2047
20229SOL    HW265373   2.583   4.104   4.610 -0.1848 -1.3577 -0.4306
20230SOL     OW65374   0.422   9.485   9.243  0.3592 -0.4982 -0.0267
20230SOL    HW165375   0.412   9.568   9.196 -3.2860 -0.5564  0.4169
20230SOL    HW265376   0.409   9.418   9.176  1.9658 -0.7638 -0.1196
20231SOL     OW65377   3.733  11.117   0.540 -0.3400 -0.0895  0.6416
20231SOL    HW165378   3.655  11.151   0.495  0.6090 -1.2757 -2.1356
20231SOL    HW265379   3.716  11.024   0.550  1.0210 -0.5637 -0.8995
20232SOL     OW65380   4.281   4.585  10.331  0.3667  0.3213 -0.3122
20232SOL    HW165381   4.300   4.579  10.237 -1.1843 -0.3892 -0.6033
20232SOL    HW265382   4.203   4.641  10.337  1.3664  1.6966  0.7098
20233SOL     OW65383   4.058   8.817   1.089 -0.0783 -0.5207 -0.4282
20233SOL    HW165384   4.076   8.843   0.999  0.7302  1.7306  0.3131
20233SOL    HW265385   3.971   8.853   1.107 -0.5493 -1.5816 -0.4939
20234SOL     OW65386   6.870   1.156  11.394  0.1550  0.0583  0.2566
20234SOL    HW165387   6.859   1.244  11.358 -2.3993  0.0180  0.7780
20234SOL    HW265388   6.798   1.146  11.457  0.3863 -2.3948  0.2297
20235SOL     OW65389   4.863   9.399   7.464  0.1039  0.3252  0.0593
20235SOL    HW165390   4.772   9.374   7.444  0.1205 -0.6283  1.0779
20235SOL    HW265391   4.901   9.320   7.503  1.8006  0.2635 -1.5965
20236SOL     OW65392   0.914   8.833   2.691  0.2436  0.0375 -0.0573
20236SOL    HW165393   0.909   8.873   2.778  0.5717 -1.1257  0.5122
20236SOL    HW265394   0.848   8.763   2.694 -0.2991  0.4956 -1.0255
20237SOL     OW65395   1.568  11.052   4.108 -0.1935  0.4100  0.2938
20237SOL    HW165396   1.568  11.070   4.202 -1.0479  1.3537  0.1327
20237SOL    HW265397   1.571  11.139   4.067 -0.2010  0.0235 -0.5508
20238SOL     OW65398   5.390   2.016   3.632  0.3683  0.3436  0.0656
20238SOL    HW165399   5.421   2.107   3.628 -0.0359  0.5395  1.0183
20238SOL    HW265400   5.297   2.023   3.653 -0.4396 -0.2388 -2.8963
20239SOL     OW65401   3.214   0.537   2.099 -0.9407  0.2807  0.1291
20239SOL    HW165402   3.135   0.561   2.147 -0.9624 -1.2889  0.9273
20239SOL    HW265403   3.274   0.504   2.166  0.3430  1.2507 -0.4851
20240SOL     OW65404   6.486   0.341   2.677 -0.9615 -0.6060 -0.1658
20240SOL    HW165405   6.425   0.414   2.687  0.2832  0.2832  1.4250
20240SOL    HW265406   6.455   0.276   2.740 -0.7714 -0.5190  0.0173
20241SOL     OW65407   3.614   9.705  11.157  0.2658  0.5572 -0.2194
20241SOL    HW165408   3.603   9.643  11.230 -4.1226  1.2155 -0.0341
20241SOL    HW265409   3.563   9.666  11.085  1.0710  1.8897 -1.5594
20242SOL     OW65410   5.136   5.129  11.415 -0.4140  0.4035  0.0051
20242SOL    HW165411   5.054   5.162  11.380  1.1075  2.5144 -1.8695
20242SOL    HW265412   5.187   5.207  11.436  1.4753 -0.8008  0.2090
20243SOL     OW65413   9.043   9.240   9.794 -0.0089 -0.2570  0.3769
20243SOL    HW165414   9.097   9.291   9.854  0.2906 -0.4442  0.2689
20243SOL    HW265415   9.102   9.173   9.759 -0.1228 -0.0006 -0.3169
20244SOL     OW65416  10.525   4.876   9.386  0.3224 -0.3721  0.3653
20244SOL    HW165417  10.501   4.947   9.327 -0.8681 -2.0071 -1.2536
20244SOL    HW265418  10.521   4.797   9.331  3.1243 -1.5507  1.6718
20245SOL     OW65419  10.491   9.088   0.340 -0.9341 -0.0336  0.1182
20245SOL    HW165420  10.568   9.047   0.379 -1.4625 -0.1023  1.0965
20245SOL    HW265421  10.491   9.177   0.375 -1.2485 -0.0009  0.0399
20246SOL     OW65422   2.820  11.158   8.644  0.4799  0.2675 -0.4308
20246SOL    HW165423   2.880  11.202   8.584  0.7936 -0.0343 -0.3437
20246SOL    HW265424   2.807  11.221   8.715  2.9991 -0.7275  1.0197
20247SOL     OW65425   0.410   0.007   1.142 -0.5083 -0.0592  0.2938
20247SOL    HW165426   0.347   0.032   1.075  0.0421  0.7018  0.0434
20247SOL    HW265427   0.411   0.080   1.203  0.0130 -0.1265  0.3762
20248SOL     OW65428  11.911   8.877   7.518 -0.0477 -0.7508  0.2107
20248SOL    HW165429  11.856   8.952   7.495 -0.1086 -0.9777 -0.3745
20248SOL    HW265430  11.994   8.917   7.544 -1.1366 -0.2132  3.3614
20249SOL     OW65431   0.866  11.026   7.393  0.0014  0.5320  0.1651
20249SOL    HW165432   0.877  11.064   7.480 -1.2606 -1.3214  1.2036
20249SOL    HW265433   0.910  10.941   7.399 -0.3619  0.2552 -0.9155
20250SOL     OW65434   7.980   6.791   9.945 -0.6684 -0.4938 -0.4020
20250SOL    HW165435   7.921   6.804   9.871 -2.9974  0.8312  1.5143
20250SOL    HW265436   8.058   6.843   9.923 -2.1829  1.6564 -1.0697
20251SOL     OW65437   1.398   7.723   9.540 -0.4312  0.0848 -0.5199
20251SOL    HW165438   1.359   7.748   9.624  0.0018  2.5668 -0.9908
20251SOL    HW265439   1.342   7.765   9.474 -0.3717 -1.2746 -1.4776
20252SOL     OW65440   3.713   7.505   3.835  0.2908 -0.5090  1.0102
20252SOL    HW165441   3.638   7.483   3.890 -0.6245  1.0951  0.4815
20252SOL    HW265442   3.675   7.524   3.749  1.2846  0.3484  0.7326
20253SOL     OW65443   7.856   2.809   9.102 -0.1620 -1.0489  0.0304
20253SOL    HW165444   7.948   2.815   9.129 -0.2087  1.5360 -0.1663
20253SOL    HW265445   7.856   2.840   9.011 -1.1432 -1.8570 -0.2683
20254SOL     OW65446   1.514   1.759  11.681  0.1922  0.4845 -0.2902
20254SOL    HW165447   1.418   1.760  11.683  0.1720 -0.9472  0.9136
20254SOL    HW265448   1.537   1.825  11.616 -1.6428 -0.1062 -1.6108
20255SOL     OW65449   1.188   9.215  11.889 -0.0125  0.4633 -0.1231
20255SOL    HW165450   1.125   9.237  11.957 -0.0031 -2.1485  0.8178
20255SOL    HW265451   1.160   9.131  11.854  1.2212  0.6940 -1.8741
20256SOL     OW65452   6.476   1.546   1.267 -0.2670  0.5618 -0.0613
20256SOL    HW165453   6.418   1.504   1.203  0.9476 -0.0250 -0.8076
20256SOL    HW265454   6.430   1.536   1.350 -1.7253  1.0445 -0.7673
20257SOL     OW65455   4.664   8.768   6.546  0.2415  0.6173  0.1982
20257SOL    HW165456   4.632   8.678   6.538 -1.3959  1.1551  0.1584
20257SOL    HW265457   4.755   8.760   6.574  0.5803 -1.0646 -1.2186
20258SOL     OW65458   3.842   2.667   9.315  0.4576  0.1369  0.3405
20258SOL    HW165459   3.867   2.589   9.365 -1.1324  0.2113  1.3108
20258SOL    HW265460   3.788   2.634   9.244 -1.3013  0.3924  1.4863
20259SOL     OW65461   9.391   9.182   2.532 -0.3955  0.2548  0.6569
20259SOL    HW165462   9.429   9.268   2.511  0.7292 -0.8498 -2.5669
20259SOL    HW265463   9.465   9.121   2.523 -1.7674 -1.3605 -0.2608
20260SOL     OW65464   1.722   2.663   0.338  0.1403  0.8759  0.0003
20260SOL    HW165465   1.749   2.612   0.262 -1.7767 -0.2388  0.0135
20260SOL    HW265466   1.634   2.631   0.359  0.5801  1.1682  2.6500
20261SOL     OW65467   9.459   5.738   1.874 -0.1920 -0.2991 -0.3536
20261SOL    HW165468   9.510   5.766   1.798  2.3567 -0.1952  1.2716
20261SOL    HW265469   9.368   5.758   1.851  0.6886  1.6891 -2.5206
20262SOL     OW65470  10.810   3.039   6.631 -0.4117 -0.2600  0.0414
20262SOL    HW165471  10.732   3.015   6.581 -0.3552 -0.0167 -0.1669
20262SOL    HW265472  10.878   2.979   6.601 -0.9585 -1.7416  1.5575
20263SOL     OW65473  11.484   6.322   1.672 -0.1122  0.2130  0.2327
20263SOL    HW165474  11.439   6.237   1.669  0.8356 -0.2731 -0.9286
20263SOL    HW265475  11.575   6.300   1.695  0.2249  0.8732 -0.4551
20264SOL     OW65476   3.271   7.034  10.775  0.4189 -0.3775 -0.2588
20264SOL    HW165477   3.197   7.082  10.811  1.6877  1.1628  0.3964
20264SOL    HW265478   3.315   7.097  10.719  1.1819 -1.3078 -0.7217
20265SOL     OW65479   2.744   7.424   1.890 -0.1089  0.7686 -0.2090
20265SOL    HW165480   2.707   7.497   1.840 -1.7957  0.8452  1.0582
20265SOL    HW265481   2.737   7.451   1.981 -1.0620 -1.0795  0.3134
20266SOL     OW65482   4.296   5.816  11.670  0.0973 -0.1821 -0.2538
20266SOL    HW165483   4.236   5.870  11.721 -0.9607 -0.8097 -0.8041
20266SOL    HW265484   4.241   5.777  11.602  1.4901  0.7238 -1.9641
20267SOL     OW65485   6.270   5.999   6.632 -0.2298  0.0388  0.4064
20267SOL    HW165486   6.272   5.908   6.663 -0.2883 -0.3615 -0.7176
20267SOL    HW265487   6.230   6.048   6.704 -0.3478 -0.8497  0.9622
20268SOL     OW65488   8.349   9.385   9.498  0.7159  0.2406  0.2517
20268SOL    HW165489   8.353   9.373   9.593  0.7900 -1.6824  0.0493
20268SOL    HW265490   8.435   9.357   9.466  0.6088  0.6364 -0.4178
20269SOL     OW65491   7.430   7.937   4.886 -0.4120  0.0109  0.0857
20269SOL    HW165492   7.337   7.959   4.880 -0.4152 -0.3410 -1.8843
20269SOL    HW265493   7.475   8.013   4.849 -0.1250 -0.9557 -1.6834
20270SOL     OW65494   4.659   1.547   9.308 -0.1323  0.2776  0.0596
20270SOL    HW165495   4.677   1.616   9.372 -2.0366  0.5030  0.4285
20270SOL    HW265496   4.564   1.551   9.296 -0.0085 -0.8684 -1.5457
20271SOL     OW65497  10.938   9.777   1.958 -0.4087 -0.3676  0.1005
20271SOL    HW165498  10.879   9.704   1.976 -1.2300  0.1088 -0.5976
20271SOL    HW265499  10.881   9.853   1.948  0.4070  0.3172  0.4883
20272SOL     OW65500   8.044   0.154  10.066  0.7697 -0.1981  0.1435
20272SOL    HW165501   8.131   0.193  10.056  0.9442 -0.7450 -0.5666
20272SOL    HW265502   8.041   0.085  10.000  0.1517 -0.8218  0.8083
20273SOL     OW65503   7.511   5.607   3.601  0.0622  0.1611 -0.0616
20273SOL    HW165504   7.419   5.595   3.578  0.1210 -2.0920  0.5869
20273SOL    HW265505   7.513   5.601   3.697  0.9758 -0.9072 -0.1204
20274SOL     OW65506   7.593   9.893   3.121  0.0166 -0.1284  0.5169
20274SOL    HW165507   7.553   9.968   3.077 -1.8319 -1.3464  0.0293
20274SOL    HW265508   7.686   9.917   3.128 -0.4048  1.9296 -0.1571
20275SOL     OW65509   2.023   5.011  11.357 -0.3489  0.4698 -0.4852
20275SOL    HW165510   2.075   4.959  11.296  0.6086  0.7027  0.1201
20275SOL    HW265511   1.948   4.955  11.378 -0.1436 -0.0316 -1.0569
20276SOL     OW65512  11.536  11.343   8.413  0.2507 -0.1749  0.3407
20276SOL    HW165513  11.465  11.333   8.476  0.9263 -1.0758  0.9831
20276SOL    HW265514  11.505  11.410   8.352 -0.4378  0.7039  1.6166
20277SOL     OW65515   7.533   7.898   9.214 -0.0876  0.0240  1.1815
20277SOL    HW165516   7.513   7.822   9.160  1.4541 -0.2619  0.9592
20277SOL    HW265517   7.620   7.880   9.250  0.4687  1.8173  0.8586
20278SOL     OW65518   2.897   1.447   5.747 -0.5858  0.5486 -0.3960
20278SOL    HW165519   2.871   1.538   5.738 -1.4256  0.4673  1.0422
20278SOL    HW265520   2.822   1.403   5.786 -0.6926 -1.0529 -2.2410
20279SOL     OW65521   9.921  11.367  11.478  0.5181  0.5754  0.8105
20279SOL    HW165522   9.882  11.383  11.564 -0.7386  2.4424 -0.0282
20279SOL    HW265523   9.873  11.291  11.444 -0.1180  0.8226  1.1287
20280SOL     OW65524  11.555  10.418   0.281  0.3186 -0.1413 -0.5347
20280SOL    HW165525  11.551  10.434   0.186  0.4087 -0.5530 -0.6069
20280SOL    HW265526  11.647  10.426   0.303  0.7406 -2.9265 -0.9893
20281SOL     OW65527   3.259   1.372   5.150  0.0784 -0.6307 -0.2507
20281SOL    HW165528   3.204   1.442   5.183 -1.4518 -1.5229 -0.8366
20281SOL    HW265529   3.307   1.341   5.227 -1.0489 -0.5646  0.4967
20282SOL     OW65530   8.379  10.456   7.645  0.1392 -0.2810 -0.6763
20282SOL    HW165531   8.399  10.531   7.588 -2.6303  0.6811 -0.5440
20282SOL    HW265532   8.419  10.480   7.729  3.3174 -1.2181 -1.7486
20283SOL     OW65533   0.949   5.645   1.850 -0.6814  0.2020 -0.1143
20283SOL    HW165534   0.947   5.551   1.865 -0.4727  0.1615 -0.3352
20283SOL    HW265535   0.867   5.678   1.888 -1.0175 -0.1393 -0.5409
20284SOL     OW65536   9.890   5.579   6.151  0.6055 -0.0222  0.5705
20284SOL    HW165537   9.944   5.532   6.214  1.1435  0.8656  0.8011
20284SOL    HW265538   9.951   5.600   6.079  0.3465  0.2008  0.4152
20285SOL     OW65539   8.941   9.496   6.104 -0.0983  0.2925 -0.4042
20285SOL    HW165540   8.865   9.467   6.154  0.0570 -2.1958 -1.4517
20285SOL    HW265541   9.009   9.510   6.170 -0.6779 -0.2479  0.3269
20286SOL     OW65542   1.141   3.885   0.203 -0.5926  0.4657  0.4129
20286SOL    HW165543   1.142   3.926   0.289  0.7710 -0.7625  1.0296
20286SOL    HW265544   1.232   3.866   0.184 -1.0690 -1.5238 -0.1698
20287SOL     OW65545   8.186   2.030   6.786 -0.0598  0.3002  0.7042
20287SOL    HW165546   8.179   1.976   6.707  0.0643 -1.0079  1.5389
20287SOL    HW265547   8.238   1.976   6.846  0.4841  1.5806  1.4174
20288SOL     OW65548   0.922  11.086   8.823 -0.4729  0.4937 -0.6242
20288SOL    HW165549   0.846  11.066   8.878 -0.9766  2.9743 -0.2775
20288SOL    HW265550   0.994  11.096   8.885 -0.4864  0.8124 -0.6565
20289SOL     OW65551   9.089   2.839   2.950  0.4834 -0.0568  0.1945
20289SOL    HW165552   9.065   2.787   3.027  0.2937 -0.3172 -0.0366
20289SOL    HW265553   9.031   2.915   2.954  0.8817  0.2260  0.6291
20290SOL     OW65554  11.953   6.353   3.725 -0.8540  0.3980 -0.0780
20290SOL    HW165555  11.868   6.332   3.687 -1.3609  0.2411  1.0932
20290SOL    HW265556  11.993   6.268   3.743 -0.7581  0.4635  0.0206
20291SOL     OW65557   2.863   0.711   1.426  0.2436 -0.2505 -0.2202
20291SOL    HW165558   2.910   0.795   1.428  0.3826 -0.3238  1.9848
20291SOL    HW265559   2.787   0.724   1.482  0.7955 -1.8700  0.9835
20292SOL     OW65560   2.318   7.600   4.360  0.5962  0.8227  0.1723
20292SOL    HW165561   2.335   7.544   4.436  0.2348  1.5599  0.8127
20292SOL    HW265562   2.401   7.600   4.311  0.4732 -0.5861 -0.0576
20293SOL     OW65563   0.173  10.743  11.385  0.3661  0.0940 -0.2615
20293SOL    HW165564   0.231  10.675  11.419  0.1316  0.2376  0.4514
20293SOL    HW265565   0.230  10.796  11.329  0.8439  0.0254  0.1473
20294SOL     OW65566   6.907   0.247   6.847 -0.4852 -0.4739 -0.3284
20294SOL    HW165567   6.935   0.338   6.859  1.6197 -1.3943  3.1900
20294SOL    HW265568   6.811   0.251   6.846 -0.4444  1.7340  0.2591
20295SOL     OW65569   5.095   7.981   4.936  0.1530 -0.1244 -0.7951
20295SOL    HW165570   5.129   7.903   4.893 -0.6200 -0.9495  0.0502
20295SOL    HW265571   5.170   8.018   4.983  0.4565 -0.5056 -0.9765
20296SOL     OW65572   0.924   1.395   1.580 -0.4567  0.0768 -0.1685
20296SOL    HW165573   0.949   1.313   1.623  0.0689  0.7148  0.7965
20296SOL    HW265574   0.966   1.391   1.494 -0.7216 -0.8078 -0.2681
20297SOL     OW65575   3.440   9.138   3.221 -1.0311  0.4198  0.3764
20297SOL    HW165576   3.422   9.183   3.138  0.2403  0.2172 -0.0396
20297SOL    HW265577   3.485   9.203   3.275  1.6598 -0.5161 -0.5700
20298SOL     OW65578  11.282   6.425   7.021  0.3043 -0.0831 -0.2020
20298SOL    HW165579  11.203   6.419   7.075 -0.2799  0.7117 -0.9553
20298SOL    HW265580  11.321   6.509   7.044  1.2282 -0.6785  0.5283
20299SOL     OW65581   5.479   2.420   9.851 -0.4371  0.0499  0.1677
20299SOL    HW165582   5.410   2.408   9.786 -1.4132 -1.3766  1.3953
20299SOL    HW265583   5.560   2.406   9.802 -1.0309  0.9472 -1.1326
20300SOL     OW65584   0.278  10.000   8.426  0.6772  0.2954  0.7679
20300SOL    HW165585   0.196  10.041   8.399  1.5305  1.7577  0.2973
20300SOL    HW265586   0.277   9.914   8.383 -1.0056 -0.0994  1.5171
20301SOL     OW65587   4.150   3.602  11.966 -0.1333 -0.1588  0.0458
20301SOL    HW165588   4.133   3.690  11.998  1.3358  0.1419  0.0752
20301SOL    HW265589   4.103   3.596  11.883  0.1951  0.8368 -0.2175
20302SOL     OW65590   2.041   4.753   3.920  0.5186  0.2219 -0.5699
20302SOL    HW165591   2.028   4.699   3.997  0.2472 -1.8843 -2.0023
20302SOL    HW265592   1.976   4.822   3.927  1.3903  0.8961  1.7146
20303SOL     OW65593   7.586   5.695   5.043  0.2073  0.4132 -0.5205
20303SOL    HW165594   7.567   5.783   5.012  2.3492  1.0218 -0.2517
20303SOL    HW265595   7.536   5.638   4.984 -0.3285  1.7534 -1.4165
20304SOL     OW65596   6.125  11.001   9.402  0.0940  0.0237  0.0678
20304SOL    HW165597   6.111  11.096   9.400  0.4896  0.0834  0.0353
20304SOL    HW265598   6.057  10.966   9.344  0.9597  0.4217 -1.2271
20305SOL     OW65599   8.774   3.109  11.616  0.1789  0.0143 -0.2467
20305SOL    HW165600   8.767   3.127  11.710  0.7549  1.2613 -0.4252
20305SOL    HW265601   8.752   3.016  11.607 -0.9400  0.1392  0.9896
20306SOL     OW65602   2.857   8.860  11.447 -0.0530 -0.4272 -0.0740
20306SOL    HW165603   2.847   8.909  11.528  1.2349  0.7718 -0.6051
20306SOL    HW265604   2.916   8.913  11.393  0.1729 -1.8250 -1.2843
20307SOL     OW65605  10.152   3.834  11.023 -0.0668 -0.1122 -0.1352
20307SOL    HW165606  10.216   3.788  10.968 -1.2525 -1.2263 -0.6297
20307SOL    HW265607  10.205   3.874  11.092  1.2101 -0.6483 -0.7652
20308SOL     OW65608  11.278   4.949   2.326  0.0975  0.1342  0.5629
20308SOL    HW165609  11.283   4.984   2.415 -0.2171 -3.1949  2.0645
20308SOL    HW265610  11.369   4.944   2.297  0.4679 -1.1588  1.8290
20309SOL     OW65611  10.225   2.001   0.198  1.0745  0.0399 -0.4843
20309SOL    HW165612  10.182   2.074   0.153  0.1180  0.8773  1.6469
20309SOL    HW265613  10.310   2.036   0.225  0.1265  0.8845  1.6357
20310SOL     OW65614   8.060  10.955  10.988  0.2829  0.0693 -0.0766
20310SOL    HW165615   8.017  10.870  10.997  0.7688  0.0027  2.2262
20310SOL    HW265616   8.114  10.946  10.910  1.0729 -2.1122  0.6352
20311SOL     OW65617   3.156   6.001  10.097  0.1384 -0.4615  0.1905
20311SOL    HW165618   3.159   6.005  10.001 -1.1739 -0.1018  0.1407
20311SOL    HW265619   3.064   5.986  10.117 -0.2720  2.9887  1.4955
20312SOL     OW65620   8.827   8.403   8.893  0.0216  0.0579 -0.1428
20312SOL    HW165621   8.739   8.365   8.899 -0.0669  0.4194  1.2058
20312SOL    HW265622   8.812   8.494   8.868 -0.0275  0.2202  0.4542
20313SOL     OW65623   5.156   2.346  11.754  0.4032  0.3159 -0.4522
20313SOL    HW165624   5.200   2.271  11.796  0.0131  0.5838  0.4742
20313SOL    HW265625   5.180   2.340  11.662 -0.6355 -1.6727 -0.6315
20314SOL     OW65626  11.684   9.244  10.429 -0.2340 -0.3404 -0.3047
20314SOL    HW165627  11.769   9.287  10.440  0.1744 -1.3713  0.9452
20314SOL    HW265628  11.703   9.167  10.375 -0.0465 -1.3508  1.1298
20315SOL     OW65629   1.850   3.227   4.720 -0.2336 -0.0215 -0.7170
20315SOL    HW165630   1.797   3.232   4.800 -0.6164  0.1917 -0.9754
20315SOL    HW265631   1.923   3.169   4.742 -1.5403 -1.8219 -0.8978
20316SOL     OW65632   3.362  11.181   8.125  0.2638  0.2721  0.7298
20316SOL    HW165633   3.416  11.253   8.159  0.3830  0.5346 -0.0116
20316SOL    HW265634   3.320  11.217   8.047 -0.8040 -0.0092  1.1563
20317SOL     OW65635   9.463   6.029   4.781 -0.1808  0.0739 -0.1182
20317SOL    HW165636   9.498   5.953   4.735  0.4252  1.1486 -1.5254
20317SOL    HW265637   9.515   6.103   4.748 -1.8112  1.3107 -0.0304
20318SOL     OW65638   9.433   1.974   8.838  0.4156 -0.0796  0.9719
20318SOL    HW165639   9.477   1.907   8.890 -0.8403 -1.6013  0.1755
20318SOL    HW265640   9.490   1.987   8.762  0.5703 -0.3996  1.0309
20319SOL     OW65641   8.839   7.361   8.521  0.0207  0.6020 -0.3086
20319SOL    HW165642   8.782   7.421   8.472  0.8671  2.1673  0.5460
20319SOL    HW265643   8.928   7.385   8.493  0.3535 -1.7307 -1.5573
20320SOL     OW65644   1.352   3.689   6.907  0.2820  0.2306 -0.2474
20320SOL    HW165645   1.414   3.731   6.848  2.4148 -0.1926  1.5824
20320SOL    HW265646   1.405   3.633   6.964 -1.7662 -0.2110  1.3922
20321SOL     OW65647   2.705   4.722  11.417  0.1030  0.4614  0.9764
20321SOL    HW165648   2.753   4.678  11.347  2.6086  0.0925  2.7658
20321SOL    HW265649   2.666   4.650  11.467  1.7822  0.3603  2.2393
20322SOL     OW65650  10.701   1.595   1.866 -0.0386 -0.4540  0.6768
20322SOL    HW165651  10.654   1.514   1.848  1.3262 -0.9230 -1.0254
20322SOL    HW265652  10.705   1.641   1.782 -0.0219  0.9772  1.4190
20323SOL     OW65653   0.822   7.173   0.789  0.1407 -0.7281 -0.9527
20323SOL    HW165654   0.895   7.226   0.819 -0.2278  1.1893 -3.1976
20323SOL    HW265655   0.863   7.099   0.744  0.7070 -0.2099 -1.3056
20324SOL     OW65656   2.981   1.694   0.278  0.4428 -0.1070 -0.4024
20324SOL    HW165657   2.935   1.777   0.292 -1.3328 -0.9626 -0.8452
20324SOL    HW265658   3.038   1.710   0.203 -0.8353  0.3681 -1.2980
20325SOL     OW65659   8.312   7.229   1.461 -0.0710  0.5470  0.4991
20325SOL    HW165660   8.387   7.249   1.517  0.2763  1.3628 -0.2410
20325SOL    HW265661   8.340   7.152   1.410  0.4327  1.1088 -0.0809
20326SOL     OW65662  11.139   6.461  10.690  0.6953 -0.3028 -0.6439
20326SOL    HW165663  11.108   6.439  10.778  2.6905 -1.2558 -0.1205
20326SOL    HW265664  11.120   6.383  10.638 -2.3500  0.9637 -1.6971
20327SOL     OW65665   7.058   9.644   2.205 -0.0100 -0.2363 -0.1144
20327SOL    HW165666   7.072   9.736   2.226 -0.7010 -0.3982  1.1941
20327SOL    HW265667   6.998   9.644   2.131  0.6117  0.3627 -0.6253
20328SOL     OW65668   4.345   8.202   4.349  0.0352 -0.0551 -0.4014
20328SOL    HW165669   4.262   8.164   4.320 -0.2092  2.5166 -3.6063
20328SOL    HW265670   4.404   8.127   4.358 -1.0389 -1.5831 -4.0708
20329SOL     OW65671   6.426   7.308   1.575 -0.2326  0.2345 -0.0519
20329SOL    HW165672   6.521   7.304   1.590 -0.1448  0.7203 -0.4486
20329SOL    HW265673   6.408   7.231   1.520 -0.0793  0.0948  0.0922
20330SOL     OW65674   1.253   6.118   7.676 -0.0735  0.0370 -0.6179
20330SOL    HW165675   1.226   6.047   7.619  0.3906  0.6250 -1.5942
20330SOL    HW265676   1.295   6.074   7.751  0.7504 -0.7020 -1.4925
20331SOL     OW65677   4.268   3.207   9.533  0.5175 -0.2013 -0.3293
20331SOL    HW165678   4.360   3.227   9.548  0.5325  0.5673 -1.3259
20331SOL    HW265679   4.264   3.112   9.533  1.1634 -0.2432  0.5079
20332SOL     OW65680   3.521   1.578  10.193  0.1995  0.6362 -0.0797
20332SOL    HW165681   3.472   1.657  10.217  0.6040  0.0455  3.0529
20332SOL    HW265682   3.575   1.606  10.119 -1.3866  2.6069 -0.5913
20333SOL     OW65683   8.751   7.129  10.899  0.2168  0.8116  0.2722
20333SOL    HW165684   8.821   7.143  10.834 -0.2210  1.8348 -0.0051
20333SOL    HW265685   8.683   7.192  10.874 -1.4690 -1.1457 -0.3502
20334SOL     OW65686   9.380   6.297   7.336 -0.1125  0.0980  0.4718
20334SOL    HW165687   9.471   6.301   7.365  0.5597 -0.2451 -1.4455
20334SOL    HW265688   9.383   6.247   7.254 -2.2805 -1.5921  1.2985
20335SOL     OW65689   6.738   3.859  11.089  0.0272  0.1993  0.4078
20335SOL    HW165690   6.644   3.847  11.072 -0.2002  1.6163  0.6143
20335SOL    HW265691   6.744   3.871  11.183  0.4515 -0.1247  0.4236
20336SOL     OW65692   3.540   9.391   3.329 -0.3715 -0.4698  0.6572
20336SOL    HW165693   3.516   9.393   3.236 -0.6963 -0.4342  0.7401
20336SOL    HW265694   3.631   9.421   3.331 -0.9627  1.3960  0.5501
20337SOL     OW65695   7.681  10.125   3.569  0.2695  0.3581  0.1510
20337SOL    HW165696   7.619  10.139   3.498  0.6928  0.5130 -0.1935
20337SOL    HW265697   7.717  10.211   3.588  0.2293  0.3034  0.4898
20338SOL     OW65698   2.055  11.683  11.612 -0.7399 -0.4122 -0.7262
20338SOL    HW165699   2.142  11.692  11.650 -0.3982  0.8333 -1.7428
20338SOL    HW265700   2.034  11.590  11.621  0.1713 -0.5172  0.6031
20339SOL     OW65701  10.568  11.202  11.296  0.3595 -0.4120  0.0481
20339SOL    HW165702  10.639  11.150  11.334  0.4553  0.5429  1.2132
20339SOL    HW265703  10.498  11.200  11.362 -1.6699 -3.1587 -1.9367
20340SOL     OW65704   6.401   8.896  11.564  0.1271  0.6596 -0.2212
20340SOL    HW165705   6.357   8.814  11.586  1.8183  0.3421  2.5442
20340SOL    HW265706   6.378   8.913  11.473 -0.2542 -2.8972 -0.9114
20341SOL     OW65707   6.541   2.307   2.926  0.1658  0.2696  0.2549
20341SOL    HW165708   6.560   2.261   2.844  0.3040  0.2127  0.3195
20341SOL    HW265709   6.582   2.253   2.994 -0.8289 -0.2539  0.4724
20342SOL     OW65710   2.056   5.699   5.769 -0.1672 -0.2712 -0.0513
20342SOL    HW165711   2.142   5.731   5.794  0.0878 -0.5133 -0.6064
20342SOL    HW265712   2.005   5.778   5.753 -0.5369 -0.0854  1.8234
20343SOL     OW65713   3.207   1.992   1.091 -0.0164  0.1517 -0.3188
20343SOL    HW165714   3.233   2.038   1.012  2.7582  1.0359  0.9905
20343SOL    HW265715   3.147   1.923   1.060 -0.0000  1.2200 -2.9772
20344SOL     OW65716   4.732   3.715   3.012 -0.4670 -0.1576 -0.1024
20344SOL    HW165717   4.739   3.810   3.004 -0.7025 -0.1811 -0.6515
20344SOL    HW265718   4.822   3.684   3.004 -0.5979 -0.1408 -2.4870
20345SOL     OW65719   7.607   5.218   2.231  0.2594  0.0044  0.5925
20345SOL    HW165720   7.606   5.143   2.173  1.1747 -0.5928  1.3075
20345SOL    HW265721   7.516   5.244   2.240 -0.0663 -0.9995  0.2968
20346SOL     OW65722  10.917   5.690   2.929 -0.2244 -0.1591  0.1349
20346SOL    HW165723  10.908   5.783   2.952 -1.1338 -0.5782  1.6216
20346SOL    HW265724  10.827   5.656   2.933  0.2336 -1.3486  0.7722
20347SOL     OW65725   9.708   3.550   2.522 -0.9463 -0.4980  0.1080
20347SOL    HW165726   9.752   3.630   2.494  0.7066 -1.1736  0.6599
20347SOL    HW265727   9.680   3.568   2.612 -3.1091  0.4165 -0.6844
20348SOL     OW65728   4.528   3.922   7.349 -0.4010 -0.1467  0.2982
20348SOL    HW165729   4.471   3.887   7.280  0.6522 -1.4589  0.0636
20348SOL    HW265730   4.468   3.964   7.411 -1.5153 -0.5112 -0.5102
20349SOL     OW65731   0.639   2.319  10.841  0.3109  0.7599 -0.1530
20349SOL    HW165732   0.625   2.374  10.764 -0.4428  0.5761 -0.1606
20349SOL    HW265733   0.729   2.335  10.866  0.9404 -0.0398 -1.7502
20350SOL     OW65734   6.752  10.885   0.045  0.3825 -0.2666  0.1389
20350SOL    HW165735   6.682  10.901  -0.019 -0.2100  1.2186  1.1034
20350SOL    HW265736   6.813  10.828  -0.000 -0.7815 -0.4928 -1.2182
20351SOL     OW65737   0.355   4.043  10.030  0.1275  0.1319 -0.5309
20351SOL    HW165738   0.351   4.040   9.934  0.3262  0.9380 -0.5646
20351SOL    HW265739   0.288   3.980  10.058 -0.6706  0.6724 -1.1917
20352SOL     OW65740   8.933   2.296   5.230 -0.8656 -0.1377 -0.2625
20352SOL    HW165741   8.922   2.389   5.249 -1.5677 -0.0323 -1.1105
20352SOL    HW265742   9.000   2.266   5.292  0.5007  1.2648 -1.0105
20353SOL     OW65743  11.495   6.345   3.409  0.0760  0.5784 -0.2483
20353SOL    HW165744  11.535   6.351   3.323 -2.3036  0.4379 -1.4509
20353SOL    HW265745  11.504   6.253   3.433  0.5294  0.5660 -0.4590
20354SOL     OW65746   3.087   8.744   9.599 -0.0863  0.0399 -0.7261
20354SOL    HW165747   3.017   8.699   9.553  0.1031  1.2342 -2.2784
20354SOL    HW265748   3.043   8.792   9.669 -0.6420 -0.3225 -0.8212
20355SOL     OW65749   4.153   6.653  10.650  0.3146  0.5816 -0.2278
20355SOL    HW165750   4.141   6.561  10.675  1.0693  0.4816 -0.2122
20355SOL    HW265751   4.220   6.651  10.581 -1.0875  0.9386 -1.6567
20356SOL     OW65752   8.667   6.446  11.817 -0.4884 -0.3728 -0.6158
20356SOL    HW165753   8.746   6.448  11.871 -0.3465  0.1794 -0.8368
20356SOL    HW265754   8.598   6.481  11.874 -0.3275  0.2653 -0.7966
20357SOL     OW65755  10.778  11.199   0.144 -0.1763 -0.2071  0.2656
20357SOL    HW165756  10.789  11.276   0.200  0.2549 -0.0968  0.0272
20357SOL    HW265757  10.829  11.218   0.066  0.6184 -1.0822  0.5521
20358SOL     OW65758   0.211   0.059   2.948 -0.0464 -0.5503  0.2727
20358SOL    HW165759   0.213   0.022   3.036  1.3354 -0.4731  0.2953
20358SOL    HW265760   0.156   0.137   2.956 -0.2613 -0.7645  0.9612
20359SOL     OW65761   0.223  10.729  10.901  0.1077 -0.1808 -0.1820
20359SOL    HW165762   0.310  10.746  10.938 -0.2648  0.5342  0.3803
20359SOL    HW265763   0.180  10.814  10.900 -0.9729 -0.7049  0.5075
20360SOL     OW65764   0.664  10.053   3.585 -0.2225  0.2465 -0.0885
20360SOL    HW165765   0.607  10.082   3.656 -0.6063  1.1882 -0.7594
20360SOL    HW265766   0.750  10.091   3.606 -0.2300  0.1614  0.0955
20361SOL     OW65767   4.127   7.475   8.736 -0.4216  0.2712  0.1544
20361SOL    HW165768   4.208   7.502   8.693  0.7048 -1.9088  0.7680
20361SOL    HW265769   4.066   7.459   8.664  0.2905  0.1210 -0.4247
20362SOL     OW65770   8.568  10.226  11.336 -0.0273 -0.1190  0.0807
20362SOL    HW165771   8.629  10.179  11.280 -0.5201 -0.1891 -0.4019
20362SOL    HW265772   8.527  10.290  11.278 -0.3732 -0.0392  0.4108
20363SOL     OW65773   4.945   1.368   2.047  0.4887  0.0512 -0.5590
20363SOL    HW165774   4.898   1.426   2.107  1.4812  1.1410 -0.8075
20363SOL    HW265775   4.996   1.311   2.104  0.4667  0.2494 -0.3364
20364SOL     OW65776   5.077   9.927   4.786  0.0776  0.3024  0.1043
20364SOL    HW165777   5.064   9.884   4.702  0.3761 -0.2050  0.3103
20364SOL    HW265778   5.171   9.919   4.802 -0.1736 -0.8413  1.1336
20365SOL     OW65779   7.776   3.822  10.826  0.1506 -0.1091  0.0237
20365SOL    HW165780   7.728   3.796  10.904 -1.2894  1.4167 -0.2798
20365SOL    HW265781   7.806   3.740  10.787  0.4364 -0.9182  1.8771
20366SOL     OW65782   3.804  10.050   8.847  0.2336  0.0217 -0.3658
20366SOL    HW165783   3.832  10.069   8.936  0.0018 -0.1240 -0.2599
20366SOL    HW265784   3.854   9.972   8.821  0.6013  0.3033 -0.5121
20367SOL     OW65785   8.351   4.260   3.832  0.0513 -0.0394 -0.3188
20367SOL    HW165786   8.439   4.235   3.863  0.3764  1.4233  0.0174
20367SOL    HW265787   8.302   4.277   3.912 -0.9307 -1.9848 -0.4628
20368SOL     OW65788   4.932   8.622   3.396 -0.3168  0.1863  0.1685
20368SOL    HW165789   4.849   8.666   3.412 -0.8871  0.4286 -2.9249
20368SOL    HW265790   4.983   8.685   3.345  0.8854 -0.8184  0.0845
20369SOL     OW65791   2.969   8.341   1.777  0.3553 -0.3879  0.0168
20369SOL    HW165792   2.913   8.407   1.736  0.9837  0.9765  1.2717
20369SOL    HW265793   2.909   8.282   1.822 -0.1555  0.0786 -0.0466
20370SOL     OW65794   9.807  11.335   8.549 -0.4564  0.1616 -0.2928
20370SOL    HW165795   9.748  11.398   8.508 -0.1492 -0.2511 -1.4067
20370SOL    HW265796   9.894  11.358   8.516 -0.2219 -0.2978 -0.0140
20371SOL     OW65797   2.405   3.720  10.873  0.1527 -0.6196 -0.2406
20371SOL    HW165798   2.326   3.759  10.910 -0.6759 -1.3220 -1.1927
20371SOL    HW265799   2.467   3.716  10.946 -0.5484  0.3090  0.4228
20372SOL     OW65800   7.598  10.541   3.311  0.1270 -0.3968 -0.0860
20372SOL    HW165801   7.620  10.490   3.389  0.8124 -1.0400 -0.6846
20372SOL    HW265802   7.669  10.604   3.302 -0.2384  0.0490  0.1196
20373SOL     OW65803   3.573  10.307   5.314  1.0439 -0.5016 -0.4022
20373SOL    HW165804   3.616  10.225   5.340  0.3403 -0.4349  1.1178
20373SOL    HW265805   3.480  10.292   5.333  1.1894  1.6094  2.8993
20374SOL     OW65806   3.532   0.004   0.311  0.4374  0.4702 -0.0090
20374SOL    HW165807   3.462   0.068   0.296  0.7453  0.6047 -0.9132
20374SOL    HW265808   3.572   0.032   0.394 -1.4385 -0.4171  1.2696
20375SOL     OW65809   5.558   3.215   7.697  0.0312 -0.6042  0.3982
20375SOL    HW165810   5.623   3.236   7.765 -0.9118  0.9410  0.8664
20375SOL    HW265811   5.566   3.120   7.685  1.1552 -0.7086  1.6996
20376SOL     OW65812  10.088  10.863   3.179 -0.7397  0.4247 -0.7686
20376SOL    HW165813  10.083  10.910   3.262 -1.5309 -1.0048  0.0326
20376SOL    HW265814  10.062  10.774   3.201  2.1424 -0.8124 -1.9129
20377SOL     OW65815   2.821   4.570   8.200  0.2341 -0.3460 -0.4174
20377SOL    HW165816   2.899   4.526   8.233 -0.0562  0.3401  1.2805
20377SOL    HW265817   2.750   4.536   8.254 -0.6490 -0.8508 -1.8377
20378SOL     OW65818  10.553   1.698  10.851  0.0532  0.0108 -0.2705
20378SOL    HW165819  10.500   1.628  10.813  0.7160 -0.3396 -0.5755
20378SOL    HW265820  10.492   1.771  10.863 -0.2892 -0.0379 -1.5577
20379SOL     OW65821   0.835   4.434   8.737  0.2039 -0.2242 -0.3090
20379SOL    HW165822   0.921   4.435   8.696  0.3415  0.7784 -0.0085
20379SOL    HW265823   0.849   4.392   8.822  0.5715  0.7270  0.1064
20380SOL     OW65824   7.173   1.580  10.857  0.2603 -0.2320  0.3263
20380SOL    HW165825   7.163   1.672  10.832 -0.1675  0.2846  2.2631
20380SOL    HW265826   7.189   1.535  10.774 -0.2377  1.4752 -0.7570
20381SOL     OW65827   4.079   6.931   4.170  0.8581 -0.1663  0.3096
20381SOL    HW165828   4.011   6.990   4.204  0.9800 -0.2277  0.6581
20381SOL    HW265829   4.084   6.860   4.234  0.0049 -1.0975 -0.6129
20382SOL     OW65830   4.436  11.458   0.830  0.2784 -0.0164 -0.3828
20382SOL    HW165831   4.465  11.428   0.744  0.8421  0.1636 -0.2617
20382SOL    HW265832   4.353  11.414   0.844  0.8874 -1.1911 -0.3781
20383SOL     OW65833   2.607   5.651   3.032  0.1045  0.0930 -0.1900
20383SOL    HW165834   2.667   5.614   2.968 -0.0088 -0.1449 -0.1584
20383SOL    HW265835   2.621   5.598   3.111  1.3043  1.2942  0.4540
20384SOL     OW65836   3.741   8.898   7.917 -0.2122  0.5662 -0.9801
20384SOL    HW165837   3.781   8.985   7.917  0.8285  0.1243  0.7884
20384SOL    HW265838   3.654   8.911   7.956  0.1936  0.7214 -0.1149
20385SOL     OW65839   0.341   5.419   0.133 -0.2729 -0.2232 -0.1447
20385SOL    HW165840   0.310   5.429   0.223 -0.8197 -0.5335 -0.2899
20385SOL    HW265841   0.436   5.423   0.140 -0.2044  4.8546 -0.1576
20386SOL     OW65842  10.740   7.421   3.495  0.0171  0.1087  0.2509
20386SOL    HW165843  10.759   7.509   3.461  1.8618 -0.6695 -0.8541
20386SOL    HW265844  10.809   7.404   3.559  0.0119 -0.7648  0.0295
20387SOL     OW65845  11.305   7.506   7.752  0.4128 -0.0167 -0.1655
20387SOL    HW165846  11.323   7.426   7.702  0.0233 -0.0115 -0.3164
20387SOL    HW265847  11.313   7.576   7.687 -2.7334 -0.1987 -0.9052
20388SOL     OW65848   4.196   7.633   1.696 -0.0880  0.0164  0.1155
20388SOL    HW165849   4.249   7.677   1.763  0.2655  0.2263 -0.3000
20388SOL    HW265850   4.215   7.540   1.708 -0.0341  0.0515  0.3109
20389SOL     OW65851   4.387   0.148   6.246  0.0441  0.5843 -0.1051
20389SOL    HW165852   4.297   0.161   6.276  1.1384  1.4919  3.2312
20389SOL    HW265853   4.403   0.054   6.259 -0.2386  0.5275 -0.1642
20390SOL     OW65854   4.981   0.957   8.241 -0.4211 -0.5666  0.1483
20390SOL    HW165855   4.946   0.949   8.330 -0.6131  0.6227  0.1948
20390SOL    HW265856   5.007   1.049   8.234  1.4051 -1.0940 -0.3718
20391SOL     OW65857   6.519   4.034   2.220  0.3569  0.5641  0.5944
20391SOL    HW165858   6.470   4.010   2.141  1.9713  2.2447 -0.9886
20391SOL    HW265859   6.451   4.064   2.281 -0.8384  0.1124 -0.4574
20392SOL     OW65860   6.113   3.541   3.192 -0.2601  1.1247  0.1026
20392SOL    HW165861   6.198   3.512   3.161 -1.0726 -0.2149 -1.0110
20392SOL    HW265862   6.098   3.491   3.272 -1.4827 -1.4405 -1.5994
20393SOL     OW65863   7.101  10.226   4.317  0.6316 -0.4361 -0.1586
20393SOL    HW165864   7.058  10.294   4.265  0.5313 -1.4955 -1.5472
20393SOL    HW265865   7.065  10.237   4.405 -0.4023  0.4520 -0.6593
20394SOL     OW65866   1.806   9.035  11.557  0.2467 -0.2501  0.3600
20394SOL    HW165867   1.774   9.102  11.497  0.5818 -1.1108 -0.8158
20394SOL    HW265868   1.801   9.076  11.644 -2.6753  0.1450  0.0964
20395SOL     OW65869   8.085  11.458   6.089 -0.1586  0.0961  0.2205
20395SOL    HW165870   8.138  11.529   6.052 -0.6985 -0.5395 -1.9136
20395SOL    HW265871   8.036  11.499   6.160 -1.6644  2.3235 -1.9546
20396SOL     OW65872   6.647  11.035   6.343  0.6328  0.2110  0.7789
20396SOL    HW165873   6.592  11.112   6.334 -0.1658 -0.3789  0.5137
20396SOL    HW265874   6.733  11.069   6.367  0.1071  1.1373  1.4078
20397SOL     OW65875  11.232   6.936   6.238  0.0400 -0.3778  0.4161
20397SOL    HW165876  11.203   7.023   6.211  0.6731 -0.7515 -1.6566
20397SOL    HW265877  11.312   6.952   6.288  1.1666  0.2054 -1.4605
20398SOL     OW65878   1.664   1.981   3.340  0.3560 -0.5203 -0.3952
20398SOL    HW165879   1.623   1.918   3.400  0.0416  0.5772  0.5697
20398SOL    HW265880   1.645   2.067   3.378  2.2336  0.0988 -0.7539
20399SOL     OW65881   9.760   7.542   7.379 -0.5956  0.7827 -0.0213
20399SOL    HW165882   9.740   7.476   7.312 -0.3659  2.0702 -1.4208
20399SOL    HW265883   9.689   7.606   7.372 -1.2476  0.3244  1.8663
20400SOL     OW65884  11.850   5.144  10.997 -0.5452 -0.5375  0.2530
20400SOL    HW165885  11.944   5.133  10.983 -0.3374 -0.0634  1.2061
20400SOL    HW265886  11.844   5.208  11.068 -1.5920 -0.4541  0.0992
20401SOL     OW65887   9.357   8.367   3.837  0.0657 -0.5593  0.3373
20401SOL    HW165888   9.273   8.331   3.865 -0.3358  1.5256  2.0328
20401SOL    HW265889   9.395   8.299   3.781 -2.3049 -1.9385  0.3016
20402SOL     OW65890   6.657   7.804   3.104  0.2989  0.2542  0.0979
20402SOL    HW165891   6.674   7.812   3.198  1.2928 -0.2504 -0.0334
20402SOL    HW265892   6.565   7.777   3.099  0.1233  0.6709  0.9057
20403SOL     OW65893   3.959  10.437   9.985  0.1974  0.2176 -0.5735
20403SOL    HW165894   3.903  10.363   9.961 -0.0352  0.1900  0.0224
20403SOL    HW265895   4.024  10.400  10.044 -0.4504  0.6282  0.4395
20404SOL     OW65896   5.636   1.319   2.601  0.1846  0.2844 -0.0622
20404SOL    HW165897   5.711   1.351   2.551  0.5222  2.0323  1.4778
20404SOL    HW265898   5.636   1.371   2.681 -0.2562 -2.5239  1.8809
20405SOL     OW65899   3.531  10.721   7.294  0.2398  0.1272  0.2615
20405SOL    HW165900   3.531  10.812   7.263  0.7267  0.4693  1.2499
20405SOL    HW265901   3.552  10.727   7.387 -1.7445 -0.8351  0.8382
20406SOL     OW65902   7.365   2.455  11.805  0.4673  0.1065 -0.2881
20406SOL    HW165903   7.364   2.360  11.797 -0.9255 -0.1460  1.9693
20406SOL    HW265904   7.391   2.472  11.895 -1.1892  1.7551 -0.0347
20407SOL     OW65905   5.014   0.115   7.137  0.4857  0.5709  0.2627
20407SOL    HW165906   5.043   0.131   7.047 -0.3537  0.0051 -0.1203
20407SOL    HW265907   5.055   0.185   7.188  1.0812  0.8229 -0.5321
20408SOL     OW65908   9.076   8.263   0.422 -0.6336  0.2942  0.1167
20408SOL    HW165909   9.078   8.168   0.410 -2.1947  0.3452 -0.8668
20408SOL    HW265910   9.127   8.279   0.502 -2.2136 -1.5897  1.5745
20409SOL     OW65911   2.808   0.029  11.044  0.2321 -0.3447 -0.3533
20409SOL    HW165912   2.871   0.036  11.116  1.1103  0.4511 -1.1720
20409SOL    HW265913   2.734   0.082  11.072  1.3541  1.5400 -0.7984
20410SOL     OW65914   8.176   8.568   1.529  0.2067  0.1276 -0.2998
20410SOL    HW165915   8.247   8.609   1.480  1.4094  2.1642  2.8408
20410SOL    HW265916   8.105   8.632   1.527 -0.1093 -0.2134 -0.2057
20411SOL     OW65917   0.798   9.987   3.926 -0.6556 -0.0510  0.2630
20411SOL    HW165918   0.834   9.967   4.012 -1.9531 -0.0992  0.8219
20411SOL    HW265919   0.865  10.041   3.884 -0.1316  0.2312  1.4118
20412SOL     OW65920  11.284   1.892  11.324  0.4404 -0.1669  0.1066
20412SOL    HW165921  11.336   1.879  11.245  1.5675 -0.5112  0.8804
20412SOL    HW265922  11.344   1.934  11.386 -0.1777 -0.6035  1.0285
20413SOL     OW65923   7.628   3.331   1.016 -0.2818  0.6166 -0.3251
20413SOL    HW165924   7.595   3.343   1.105 -0.5570 -1.0523 -0.1644
20413SOL    HW265925   7.687   3.405   1.002  0.7790  0.2435  1.7119
20414SOL     OW65926   5.349   1.417   6.149 -0.5068 -0.3774  0.1498
20414SOL    HW165927   5.325   1.325   6.141 -0.4908 -0.4859  1.2199
20414SOL    HW265928   5.306   1.460   6.075  0.1483 -1.3695 -0.8181
20415SOL     OW65929   2.971   6.390  10.930  0.4292 -0.3103  0.7233
20415SOL    HW165930   2.927   6.396  10.845  0.1993  0.0307  0.8662
20415SOL    HW265931   3.040   6.456  10.926  0.8368 -0.7320  0.5628
20416SOL     OW65932   0.153  10.425   7.908  0.2870 -0.0528  0.1937
20416SOL    HW165933   0.134  10.459   7.996  0.7170  2.5840 -0.6392
20416SOL    HW265934   0.174  10.333   7.922  0.2647  0.2635  2.8473
20417SOL     OW65935   8.493  11.277   8.360 -0.0321 -0.0845  0.4482
20417SOL    HW165936   8.560  11.317   8.415  1.0494 -0.8215 -0.2992
20417SOL    HW265937   8.464  11.348   8.302  0.8494 -0.0172  0.0833
20418SOL     OW65938   1.143   7.310  10.134 -0.5705 -0.2622 -0.5914
20418SOL    HW165939   1.089   7.237  10.105 -2.1323  0.7494 -0.3346
20418SOL    HW265940   1.082   7.373  10.172  0.9207  0.3822  0.9329
20419SOL     OW65941   6.009  10.593   6.537  0.4588  0.2954  1.0224
20419SOL    HW165942   5.918  10.604   6.566 -0.5383  0.4414 -1.8642
20419SOL    HW265943   6.030  10.675   6.492  1.0249 -0.7506 -0.7167
20420SOL     OW65944   1.274  10.352  11.606  0.7205 -0.7513 -0.2418
20420SOL    HW165945   1.183  10.380  11.601  0.4562 -1.5726 -0.1851
20420SOL    HW265946   1.320  10.408  11.543  0.0993 -0.6358 -0.6031
20421SOL     OW65947   1.004   8.252   5.531 -0.0594  0.7565  0.1179
20421SOL    HW165948   1.021   8.326   5.471 -2.1422  0.0635 -1.4355
20421SOL    HW265949   0.911   8.258   5.550  0.2068 -0.1646  1.8599
20422SOL     OW65950  11.498  11.266   7.858 -0.4608  0.4153 -0.2542
20422SOL    HW165951  11.540  11.352   7.858  1.0466 -0.2976 -0.1327
20422SOL    HW265952  11.564  11.206   7.824 -1.1255 -0.8810  0.6368
20423SOL     OW65953   6.769   4.780   1.492  0.3769  0.1056 -0.2391
20423SOL    HW165954   6.731   4.781   1.404 -1.4183  0.8756  0.4966
20423SOL    HW265955   6.803   4.869   1.505  1.8164 -0.3621 -0.5975
20424SOL     OW65956  11.414   6.809   7.273  0.3284 -0.1591  0.3539
20424SOL    HW165957  11.377   6.743   7.331  1.5825 -0.0333  1.3459
20424SOL    HW265958  11.340   6.866   7.252 -0.4596 -1.0447  0.6523
20425SOL     OW65959  10.301   0.975   7.032 -0.4066  0.0324 -0.4515
20425SOL    HW165960  10.349   0.906   6.986 -0.1237 -1.3952  1.7977
20425SOL    HW265961  10.358   1.000   7.104 -2.2649 -0.4982  1.2937
20426SOL     OW65962   0.284   8.537   4.133  0.2952 -0.3144  0.3548
20426SOL    HW165963   0.294   8.448   4.100 -1.0445 -0.1424 -0.6092
20426SOL    HW265964   0.214   8.532   4.197  1.3701 -0.2303  1.5770
20427SOL     OW65965   8.716   9.867  11.860  0.2325  0.6210  0.4146
20427SOL    HW165966   8.706   9.772  11.857 -1.2343  0.6239  2.6770
20427SOL    HW265967   8.792   9.881  11.917 -0.7916  0.7642  1.8033
20428SOL     OW65968   8.330   8.049   8.629  0.0580 -0.2675  0.5846
20428SOL    HW165969   8.313   8.043   8.723 -0.3829  2.8465  0.8079
20428SOL    HW265970   8.263   8.110   8.597  0.5305 -0.8539 -1.6572
20429SOL     OW65971   9.160   4.453  11.480 -0.2059 -0.4638  0.2483
20429SOL    HW165972   9.238   4.504  11.502 -0.8606  0.4717  0.4650
20429SOL    HW265973   9.150   4.393  11.554 -0.9831  0.9803  1.3829
20430SOL     OW65974   3.925  10.084   9.099 -0.5671 -0.3252  0.6280
20430SOL    HW165975   3.998  10.056   9.153  0.7057  0.3722 -0.6603
20430SOL    HW265976   3.870  10.136   9.157 -0.1073 -0.9474  1.6434
20431SOL     OW65977  11.707   3.799   3.653 -0.1191 -0.4076  0.5458
20431SOL    HW165978  11.698   3.726   3.593  0.3732  0.1923 -0.2760
20431SOL    HW265979  11.791   3.839   3.630 -0.7678  0.9413  0.3795
20432SOL     OW65980   9.034   3.798   1.235 -0.0995  0.1677 -0.2817
20432SOL    HW165981   8.941   3.786   1.253 -0.2811  0.5443 -0.9381
20432SOL    HW265982   9.038   3.818   1.142  0.4795  1.7919  0.0586
20433SOL     OW65983   1.130   3.155  10.359 -0.1740 -0.0415 -0.5675
20433SOL    HW165984   1.083   3.174  10.441  1.2709  2.5191 -0.2204
20433SOL    HW265985   1.074   3.192  10.291 -0.0747  0.3139 -0.4577
20434SOL     OW65986   5.419   7.463  11.657  0.0615 -0.2458  0.0691
20434SOL    HW165987   5.476   7.539  11.669 -1.0004  1.0200 -2.2251
20434SOL    HW265988   5.467   7.406  11.597 -0.2853 -0.0725 -0.3755
20435SOL     OW65989   9.223   5.704   2.330 -0.0058 -0.1545 -0.4073
20435SOL    HW165990   9.318   5.719   2.333 -0.2161  1.5090 -0.7334
20435SOL    HW265991   9.200   5.720   2.238 -0.3736 -2.3677 -0.7537
20436SOL     OW65992  10.904   3.327   6.465  0.3600 -0.0108 -0.1246
20436SOL    HW165993  10.915   3.314   6.371  1.4644 -3.6962  0.3727
20436SOL    HW265994  10.992   3.324   6.501 -0.0866  0.8087  1.1140
20437SOL     OW65995   6.976   3.179   6.250  0.1569 -0.3209 -0.8078
20437SOL    HW165996   6.989   3.263   6.293 -2.5438 -0.0147 -0.4050
20437SOL    HW265997   7.031   3.118   6.298 -0.8099  0.5078  1.4853
20438SOL     OW65998   9.321   8.602   3.954 -0.3469  0.0592  0.3779
20438SOL    HW165999   9.404   8.643   3.975 -0.7409  0.1852  1.8076
20438SOL    HW266000   9.345   8.517   3.917  0.4204 -0.1616  1.3393
20439SOL     OW66001   7.620   4.338   2.219 -0.2440 -0.4790 -0.0546
20439SOL    HW166002   7.669   4.398   2.162 -0.0095 -0.2801  0.3507
20439SOL    HW266003   7.533   4.376   2.224 -0.5090 -0.9308 -0.9269
20440SOL     OW66004   8.201   3.276   5.986 -0.3667  0.4459  0.7189
20440SOL    HW166005   8.109   3.259   5.971  0.1106 -1.5170 -0.2249
20440SOL    HW266006   8.233   3.312   5.903  0.1584 -0.9473  0.2977
20441SOL     OW66007  11.184   6.022   9.059  0.3521  0.9751  0.1058
20441SOL    HW166008  11.259   5.978   9.019  1.5112  2.0064  1.0758
20441SOL    HW266009  11.221   6.072   9.132 -1.2065  1.9149  0.3012
20442SOL     OW66010   1.799  11.594  10.229 -0.1574  0.4818 -0.1538
20442SOL    HW166011   1.864  11.536  10.268 -0.0919  0.0582 -0.8886
20442SOL    HW266012   1.718  11.542  10.230 -0.7960  1.3906  1.7976
20443SOL     OW66013   7.059   3.903   6.496 -0.5296  0.5641  0.0149
20443SOL    HW166014   7.141   3.909   6.545 -0.6551  1.4825  0.1173
20443SOL    HW266015   7.000   3.964   6.540 -1.5155 -0.5945  0.3829
20444SOL     OW66016   1.505   8.708  10.187 -0.3619  0.1549  0.1033
20444SOL    HW166017   1.503   8.717  10.092  3.0782 -0.0511 -0.1108
20444SOL    HW266018   1.515   8.798  10.219  0.2723  0.0804  0.1287
20445SOL     OW66019   7.999   4.831  11.025  0.2308 -0.0514  0.6515
20445SOL    HW166020   7.998   4.828  11.121  0.2153  1.5820  0.7325
20445SOL    HW266021   8.092   4.835  11.002  0.4562 -3.4391  0.3845
20446SOL     OW66022   4.160   2.065   1.190  1.0631 -0.0300  0.2422
20446SOL    HW166023   4.104   1.993   1.162 -0.8129  1.4721 -0.0897
20446SOL    HW266024   4.192   2.103   1.108  1.3658  0.0355  0.3897
20447SOL     OW66025   4.313   6.938   3.553 -0.4368  0.2864  0.5585
20447SOL    HW166026   4.233   6.886   3.553 -1.1745  1.3607 -0.1209
20447SOL    HW266027   4.333   6.951   3.646 -1.8288  1.0978  0.7797
20448SOL     OW66028   7.049   0.548   7.573  0.0201  0.2951 -0.2113
20448SOL    HW166029   6.966   0.542   7.621 -0.2887  2.3449 -0.3795
20448SOL    HW266030   7.026   0.591   7.491  1.3001  1.4694 -0.0080
20449SOL     OW66031   9.899   6.380   5.762  0.0679 -0.2289  0.0990
20449SOL    HW166032   9.879   6.449   5.825  0.8735 -0.8705  1.0890
20449SOL    HW266033   9.903   6.425   5.678 -0.5842  0.7209  0.5550
20450SOL     OW66034   5.210   2.093   5.155 -0.5188  0.1205 -0.1344
20450SOL    HW166035   5.150   2.127   5.088 -0.4914  0.2561 -0.0916
20450SOL    HW266036   5.207   2.159   5.224  0.7808  0.8637 -0.7518
20451SOL     OW66037   7.060   8.630   7.195  0.1880  0.3108 -0.4356
20451SOL    HW166038   6.993   8.699   7.203 -0.5481 -0.5765  1.8645
20451SOL    HW266039   7.011   8.549   7.192  1.1108 -0.3517  1.0662
20452SOL     OW66040   9.259   4.494   3.182  0.0544 -0.1719  0.3238
20452SOL    HW166041   9.349   4.467   3.162  0.4200  1.4440 -0.3973
20452SOL    HW266042   9.269   4.557   3.254 -0.4400  0.4238 -0.1220
20453SOL     OW66043   9.736   4.572   0.075  0.1003  0.8717 -0.4636
20453SOL    HW166044   9.647   4.606   0.090 -0.2990 -0.1948 -0.3138
20453SOL    HW266045   9.732   4.532  -0.012  0.5071  1.0265 -0.5544
20454SOL     OW66046   1.610   2.961   0.629 -0.1890 -0.1120  0.0063
20454SOL    HW166047   1.600   3.004   0.713 -1.7075 -0.6463  0.1447
20454SOL    HW266048   1.592   2.868   0.647 -0.9875 -0.1714 -0.9490
20455SOL     OW66049   9.347   2.056  11.546 -0.4186 -0.4995 -0.4925
20455SOL    HW166050   9.277   2.083  11.487 -1.6762 -0.6133  0.8923
20455SOL    HW266051   9.303   2.035  11.628  1.5433  3.1483  1.7694
20456SOL     OW66052   5.057   6.366   9.724 -0.3234 -0.1745 -0.4132
20456SOL    HW166053   4.988   6.376   9.658 -0.1957 -0.3767 -0.5772
20456SOL    HW266054   5.060   6.272   9.741 -1.1321 -0.0188  0.7122
20457SOL     OW66055   4.600   9.446  11.357 -0.5349 -0.6869  0.2076
20457SOL    HW166056   4.694   9.440  11.338 -0.2869 -0.7244  1.3497
20457SOL    HW266057   4.568   9.515  11.299  0.7878  1.3827  1.7601
20458SOL     OW66058   9.207   3.592   0.576  0.4997 -0.1332  0.2453
20458SOL    HW166059   9.219   3.676   0.619 -1.1257 -0.2981  1.1007
20458SOL    HW266060   9.132   3.605   0.518  1.7373 -0.3372 -1.4671
20459SOL     OW66061   0.386  10.270   6.900 -0.1358  0.4835 -0.1837
20459SOL    HW166062   0.444  10.333   6.857  0.5297  1.3202  1.7996
20459SOL    HW266063   0.426  10.256   6.986  0.4936 -3.7401 -0.9563
20460SOL     OW66064   6.852   2.053   2.337  0.5333 -0.6350  0.1001
20460SOL    HW166065   6.905   2.061   2.416  0.2702  1.2117  0.1134
20460SOL    HW266066   6.764   2.080   2.364  0.5089  0.3221 -0.8799
20461SOL     OW66067   3.097   9.125   9.878  0.2160 -0.6322  0.2376
20461SOL    HW166068   3.072   9.188   9.810 -0.0703  0.0109  0.9229
20461SOL    HW266069   3.023   9.064   9.881  0.2193 -0.6516 -0.0131
20462SOL     OW66070   7.038   3.531  11.716  0.5604 -0.3056  0.6575
20462SOL    HW166071   6.954   3.527  11.671  1.5169  2.3578 -1.7063
20462SOL    HW266072   7.016   3.537  11.809 -1.8244  0.2131  0.1230
20463SOL     OW66073   1.797   3.138   0.495 -0.0193 -0.4762 -0.0253
20463SOL    HW166074   1.857   3.101   0.431  0.0511 -1.3423  0.5107
20463SOL    HW266075   1.746   3.063   0.525 -2.3175  0.4253 -1.4282
20464SOL     OW66076   9.565   8.595  10.096  0.4899  0.1290 -0.5038
20464SOL    HW166077   9.550   8.555  10.010  0.8744  2.3096 -1.6613
20464SOL    HW266078   9.640   8.653  10.083 -0.1425  1.3614  1.0197
20465SOL     OW66079   6.014   0.414   4.388  1.0042 -0.1070 -0.0791
20465SOL    HW166080   6.033   0.323   4.368  0.8478  0.0143 -0.8018
20465SOL    HW266081   5.918   0.421   4.380  1.0239  0.1415 -0.1254
20466SOL     OW66082   1.723  10.136  11.036  0.1216  0.2439  0.1784
20466SOL    HW166083   1.673  10.056  11.018 -1.1375  0.8338  0.8995
20466SOL    HW266084   1.771  10.153  10.955 -0.6713 -0.4843 -0.4645
20467SOL     OW66085  10.254  11.418   3.583  0.0863 -0.0751 -0.3714
20467SOL    HW166086  10.287  11.427   3.494 -1.5869 -0.1649 -1.0280
20467SOL    HW266087  10.266  11.504   3.622 -1.0951  0.5806 -1.3883
20468SOL     OW66088   9.947   3.364   4.814  0.4654  0.0925  0.3141
20468SOL    HW166089   9.927   3.383   4.723  1.6324  1.4299  0.3083
20468SOL    HW266090   9.896   3.427   4.864 -2.8342 -2.6902  0.8956
20469SOL     OW66091   6.044   5.173  11.363 -0.5469  0.1594 -0.2141
20469SOL    HW166092   6.097   5.182  11.442 -3.2224  0.9662  1.6422
20469SOL    HW266093   6.051   5.081  11.339 -0.1958 -0.2563  1.3911
20470SOL     OW66094   4.857  10.078  11.769 -0.1085 -0.2886 -0.8281
20470SOL    HW166095   4.927  10.094  11.832  0.3589 -0.2845 -1.3469
20470SOL    HW266096   4.781  10.057  11.824  0.4679 -1.0081 -0.2706
20471SOL     OW66097   5.294  11.580   5.047 -0.0489 -0.4562 -0.3667
20471SOL    HW166098   5.333  11.520   4.983 -2.3688 -1.9286 -0.5091
20471SOL    HW266099   5.320  11.545   5.132  0.3330 -0.4257 -0.4706
20472SOL     OW66100  11.612   7.288   0.314  0.1082 -0.1816  0.3549
20472SOL    HW166101  11.560   7.289   0.395  0.0693 -1.2666  0.3595
20472SOL    HW266102  11.696   7.251   0.341  0.4385  0.3765  0.0921
20473SOL     OW66103   5.496   3.917   8.587  0.0581 -0.1146  0.4431
20473SOL    HW166104   5.437   3.853   8.625  0.4306  0.0386  1.2888
20473SOL    HW266105   5.443   3.996   8.577  0.3567  0.3264  2.1263
20474SOL     OW66106   5.689   5.715   5.957 -0.4970  0.4162  0.1673
20474SOL    HW166107   5.721   5.625   5.953 -0.6350  0.3320  0.8868
20474SOL    HW266108   5.593   5.707   5.960 -0.4784  0.5291  1.5003
20475SOL     OW66109   6.156   2.050   1.439 -0.3833 -0.2962 -0.1991
20475SOL    HW166110   6.240   2.066   1.395 -1.5226 -1.3651 -3.0066
20475SOL    HW266111   6.134   2.134   1.480  1.2911  0.4727 -0.7846
20476SOL     OW66112  11.328   1.062   8.226  0.0461 -0.1536  0.3126
20476SOL    HW166113  11.332   1.130   8.158  0.5615 -0.1748  0.3250
20476SOL    HW266114  11.253   1.008   8.199  0.0169  0.0513 -0.0374
20477SOL     OW66115   0.539   1.492   1.440 -0.0011 -0.0718  0.1177
20477SOL    HW166116   0.539   1.412   1.494 -0.4369  0.6887  1.2789
20477SOL    HW266117   0.609   1.545   1.477  1.1988 -0.4367 -1.5070
20478SOL     OW66118   7.909   8.956   8.432 -0.1848 -0.1204  0.2167
20478SOL    HW166119   7.846   8.894   8.470 -0.2491  0.2784  0.7774
20478SOL    HW266120   7.980   8.959   8.496  0.1164 -0.1027 -0.1189
20479SOL     OW66121   6.425   8.926   0.655 -0.3834  0.0591 -0.5827
20479SOL    HW166122   6.512   8.894   0.680 -0.3665  0.3171 -0.3018
20479SOL    HW266123   6.436   8.958   0.566 -0.7343 -2.0111 -1.4171
20480SOL     OW66124   4.743   6.315   3.774  0.0865  0.5485 -0.1306
20480SOL    HW166125   4.818   6.258   3.789 -0.7292 -0.7273 -0.7635
20480SOL    HW266126   4.669   6.255   3.760 -0.6288  1.7354 -1.7373
20481SOL     OW66127  11.109   2.314   4.095 -0.0493  0.5014  0.3974
20481SOL    HW166128  11.063   2.286   4.016  0.9218  3.4703 -1.4009
20481SOL    HW266129  11.045   2.306   4.165 -1.8149  0.1987 -1.1826
20482SOL     OW66130   6.079   8.116   3.465  0.1566 -0.2271 -0.1124
20482SOL    HW166131   6.002   8.126   3.521 -0.2707 -1.0552 -0.5386
20482SOL    HW266132   6.080   8.196   3.412  0.2383  0.3009  0.6558
20483SOL     OW66133   4.586   8.407   2.709 -0.0076  0.5864 -0.4760
20483SOL    HW166134   4.587   8.497   2.742  0.4669  0.8116 -1.0950
20483SOL    HW266135   4.493   8.384   2.707 -0.0555  0.5385  1.0699
20484SOL     OW66136  11.824   1.964   7.815  0.2004 -0.1413 -0.1731
20484SOL    HW166137  11.798   2.050   7.850  0.2865  0.0949 -0.6908
20484SOL    HW266138  11.877   1.925   7.885 -0.0230  0.1345  0.1540
20485SOL     OW66139   0.493   5.878   2.632 -0.0067 -0.4948  0.0030
20485SOL    HW166140   0.577   5.849   2.596  0.9411  0.6498  1.1982
20485SOL    HW266141   0.470   5.811   2.695 -1.2217 -2.0372 -1.9580
20486SOL     OW66142   6.554  11.783   0.647 -0.2858 -0.0724 -0.1436
20486SOL    HW166143   6.507  11.787   0.731  1.0955 -1.2746  0.7482
20486SOL    HW266144   6.639  11.823   0.666 -0.1744  0.1762 -1.1368
20487SOL     OW66145   4.521   0.023   8.053  0.3533  0.6069  0.1202
20487SOL    HW166146   4.601   0.045   8.005 -0.0517  0.9030 -0.4190
20487SOL    HW266147   4.450   0.050   7.996 -0.1384  1.0573  0.9292
20488SOL     OW66148   2.787   4.099  10.556 -0.0033 -0.2752  0.1856
20488SOL    HW166149   2.789   4.118  10.462  0.0487  0.9960  0.4262
20488SOL    HW266150   2.732   4.021  10.563  0.8610 -1.0396 -0.9931
20489SOL     OW66151   9.251   3.393   0.415 -0.1729 -0.5210  0.2140
20489SOL    HW166152   9.260   3.454   0.488 -1.6598  0.3979 -0.3361
20489SOL    HW266153   9.341   3.375   0.388  0.3294  1.3501  0.4792
20490SOL     OW66154   7.816   7.481   5.457  0.1151  0.1716  0.1869
20490SOL    HW166155   7.848   7.465   5.368 -0.0614  1.8189 -0.2070
20490SOL    HW266156   7.721   7.482   5.448  0.0944  0.1958  0.4129
20491SOL     OW66157   8.294   5.755   5.105  0.1178  0.1303  0.2178
20491SOL    HW166158   8.331   5.674   5.070  0.6584  0.6020 -0.3326
20491SOL    HW266159   8.350   5.824   5.070  0.3024  0.6729  1.5292
20492SOL     OW66160   9.076   8.519   6.818 -0.1867  0.6636 -0.5229
20492SOL    HW166161   9.008   8.569   6.863  0.6187  0.8296  0.5463
20492SOL    HW266162   9.072   8.550   6.727  0.6203  3.1026  0.1847
20493SOL     OW66163   4.826  11.430   2.507 -0.5057 -0.5588  0.3446
20493SOL    HW166164   4.744  11.383   2.488 -0.5660 -0.4525  0.3397
20493SOL    HW266165   4.835  11.425   2.602  0.3429 -1.9968  0.1980
20494SOL     OW66166  11.447   7.095  11.534 -0.4241 -0.3046 -0.0034
20494SOL    HW166167  11.456   7.084  11.629  1.9123  0.1753 -0.1240
20494SOL    HW266168  11.535   7.114  11.503 -1.0737 -0.7687 -2.3445
20495SOL     OW66169   5.006   3.794   4.612  0.6048 -0.7205 -1.0501
20495SOL    HW166170   4.943   3.866   4.622  1.4108 -0.3595  3.3975
20495SOL    HW266171   5.064   3.822   4.541 -0.0404  2.3160 -0.5071
20496SOL     OW66172  10.493   3.992   5.578  0.4709 -0.7129 -0.5976
20496SOL    HW166173  10.400   4.013   5.584  0.6314  0.4295 -1.6878
20496SOL    HW266174  10.507   3.927   5.647 -1.6867 -2.9396 -2.0794
20497SOL     OW66175   1.463   4.543   5.500 -0.0973  0.0006 -0.2893
20497SOL    HW166176   1.378   4.515   5.467 -0.1051  1.4012 -1.5774
20497SOL    HW266177   1.452   4.548   5.595 -1.4426  0.1585 -0.4400
20498SOL     OW66178  10.555   7.935   1.360 -0.2664 -0.0739 -0.0619
20498SOL    HW166179  10.517   8.011   1.317  1.2609  0.3608 -0.7186
20498SOL    HW266180  10.631   7.969   1.408  0.9778 -1.2450 -1.0785
20499SOL     OW66181   9.578   7.473   2.898  0.4586 -0.4594 -0.1335
20499SOL    HW166182   9.549   7.564   2.908  0.0979 -0.7161  1.4386
20499SOL    HW266183   9.512   7.434   2.841  0.4193  0.1723 -0.5373
20500SOL     OW66184  11.584  11.301   7.223 -0.1017 -0.2907  0.7304
20500SOL    HW166185  11.612  11.234   7.285  0.2378 -0.4551  0.4071
20500SOL    HW266186  11.656  11.365   7.222  0.5632 -1.0034 -0.5294
20501SOL     OW66187   7.324  11.809   7.935  0.4316 -0.0601  0.1421
20501SOL    HW166188   7.394  11.866   7.966  0.2532 -0.0691  0.5668
20501SOL    HW266189   7.243  11.855   7.956  0.2777 -0.6052  0.7716
20502SOL     OW66190   7.738   7.205   5.042  0.0707 -0.4409 -0.4193
20502SOL    HW166191   7.742   7.214   5.137 -0.3413 -0.2396 -0.4204
20502SOL    HW266192   7.804   7.265   5.009 -0.7291  0.5096 -0.3139
20503SOL     OW66193   3.140   8.886   6.324 -0.0081  0.1172  0.4842
20503SOL    HW166194   3.055   8.842   6.316  1.2133 -2.6187  1.3999
20503SOL    HW266195   3.192   8.850   6.252  1.2636 -0.5673  1.6963
20504SOL     OW66196  10.092   4.082  11.555  0.0638  0.5380  0.4131
20504SOL    HW166197  10.023   4.132  11.512 -1.2014 -1.5083 -0.0561
20504SOL    HW266198  10.055   4.057  11.640 -0.3684 -1.6568 -0.3483
20505SOL     OW66199   9.773   5.120   7.613 -0.2127  0.3620  1.0466
20505SOL    HW166200   9.827   5.149   7.540 -2.4058  2.1498  0.0448
20505SOL    HW266201   9.791   5.183   7.683 -1.1957  1.1577  0.6003
20506SOL     OW66202   3.828  11.499   3.768  0.1282 -0.1902  0.0132
20506SOL    HW166203   3.874  11.559   3.827  1.9421 -2.3895  0.9952
20506SOL    HW266204   3.748  11.476   3.815  0.6985 -0.5561  0.8215
20507SOL     OW66205   0.627   1.069   4.975 -0.3864  0.7053 -0.0798
20507SOL    HW166206   0.682   1.043   4.900 -0.6346 -0.3100  0.0745
20507SOL    HW266207   0.542   1.029   4.957 -1.2628  2.6906 -0.5661
20508SOL     OW66208  10.252   6.333  10.604  0.2095  0.0676  0.7788
20508SOL    HW166209  10.260   6.311  10.697 -0.3995  0.3319  0.8959
20508SOL    HW266210  10.162   6.310  10.581  0.6126 -0.8215  0.0266
20509SOL     OW66211   5.499   1.904   6.927 -0.0242 -0.4235  0.0092
20509SOL    HW166212   5.506   1.821   6.881 -0.9267 -0.3147 -0.3529
20509SOL    HW266213   5.417   1.897   6.977 -0.0558  0.2003  0.0544
20510SOL     OW66214   5.923   4.384   2.920  0.3315  0.0586 -0.1906
20510SOL    HW166215   5.983   4.341   2.981  2.5606  0.5728 -1.8840
20510SOL    HW266216   5.972   4.390   2.838 -2.3102 -0.0740 -1.9126
20511SOL     OW66217   7.556  10.427   8.196 -0.5899 -0.0417  0.4088
20511SOL    HW166218   7.523  10.339   8.176 -0.2894  0.1739 -1.1175
20511SOL    HW266219   7.629  10.439   8.136 -1.3076  1.6734 -0.1634
20512SOL     OW66220   0.037   1.025   6.198 -0.2399 -0.7831  0.1070
20512SOL    HW166221   0.074   1.091   6.139  1.9240 -1.5556  0.5444
20512SOL    HW266222  -0.007   1.076   6.266 -2.0763  0.1306 -1.6286
20513SOL     OW66223   5.491   4.250   9.264  0.0509  0.0307  0.0406
20513SOL    HW166224   5.532   4.270   9.180  0.2113  0.1820  0.1570
20513SOL    HW266225   5.564   4.240   9.325 -0.1135  1.2880  0.4682
20514SOL     OW66226   0.918   9.105   7.775 -0.3733  0.3747 -0.3156
20514SOL    HW166227   0.884   9.030   7.823 -1.3851  1.3911  0.6315
20514SOL    HW266228   0.994   9.135   7.826 -1.2198  1.2229  0.4957
20515SOL     OW66229   1.633   0.497   5.112  0.5602  0.1036 -0.2613
20515SOL    HW166230   1.706   0.441   5.137  0.8687  0.5300 -0.1959
20515SOL    HW266231   1.663   0.586   5.130 -0.1742  0.2526  0.2886
20516SOL     OW66232   6.108   5.520   1.271  0.0715 -0.2447 -0.1819
20516SOL    HW166233   6.149   5.464   1.337  0.7763  1.0476  0.5174
20516SOL    HW266234   6.181   5.563   1.226 -0.3437  3.1809  2.0193
20517SOL     OW66235  11.998   8.097   0.434  0.6720 -0.2750  0.7256
20517SOL    HW166236  12.002   8.002   0.435  0.6679 -0.3919 -2.3864
20517SOL    HW266237  12.088   8.125   0.421  0.3020 -0.0816 -1.9505
20518SOL     OW66238   1.638   3.289  11.341  0.2494  0.4731 -0.5437
20518SOL    HW166239   1.637   3.195  11.358  0.1912  0.3129 -1.4065
20518SOL    HW266240   1.571   3.325  11.399 -0.3533 -0.1291 -0.8646
20519SOL     OW66241   9.544   4.649  10.499 -0.1878 -0.3028 -0.3538
20519SOL    HW166242   9.593   4.705  10.560 -0.4283 -1.1943  0.6963
20519SOL    HW266243   9.576   4.673  10.412  1.8348 -0.5961  0.2675
20520SOL     OW66244   9.329   0.207   3.951 -0.3543 -0.1654 -0.4468
20520SOL    HW166245   9.416   0.229   3.986  0.5979 -1.6061 -1.7602
20520SOL    HW266246   9.275   0.192   4.029  0.4487  1.1230  0.3969
20521SOL     OW66247   3.829   9.358   7.389 -0.4035 -0.1438 -0.0294
20521SOL    HW166248   3.883   9.438   7.385 -1.4889  0.6128  0.1510
20521SOL    HW266249   3.869   9.300   7.324  1.6832 -0.2997  1.2731
20522SOL     OW66250   5.486  11.085   8.065 -0.5700  0.2447 -0.1820
20522SOL    HW166251   5.429  11.012   8.041 -1.2300  0.0207  1.9061
20522SOL    HW266252   5.463  11.155   8.004 -0.5576 -0.9663 -1.6395
20523SOL     OW66253   8.362  11.146   2.015 -0.3064 -0.2580  0.4654
20523SOL    HW166254   8.412  11.227   2.018 -1.0091  0.1910  3.5196
20523SOL    HW266255   8.270  11.174   2.019 -0.8019 -1.1533 -2.3620
20524SOL     OW66256  11.542  11.729   1.116  0.2091 -0.2018  0.3466
20524SOL    HW166257  11.587  11.738   1.032  1.9332 -1.4773  1.0604
20524SOL    HW266258  11.495  11.812   1.127  0.8991  0.4625 -1.3185
20525SOL     OW66259   4.546   8.001   4.475  1.3606  0.1436 -0.4642
20525SOL    HW166260   4.552   7.911   4.443 -0.5408 -0.9626  1.9480
20525SOL    HW266261   4.632   8.020   4.511  1.9903 -0.4063 -1.6028
20526SOL     OW66262   1.617   5.200   5.986  0.6298 -0.4537  0.3078
20526SOL    HW166263   1.529   5.168   6.005 -0.4678  0.8398 -2.0718
20526SOL    HW266264   1.649   5.140   5.918  0.5219  0.5712 -0.6659
20527SOL     OW66265   0.348   7.587  10.833 -0.2329 -0.4736 -0.4687
20527SOL    HW166266   0.388   7.635  10.906  0.1569  0.1071 -1.0511
20527SOL    HW266267   0.342   7.497  10.863  0.5848 -0.3726  0.0100
20528SOL     OW66268   1.268   3.736   9.113 -0.5265 -0.7024  0.0110
20528SOL    HW166269   1.214   3.788   9.172 -0.5640 -1.1219  0.3490
20528SOL    HW266270   1.237   3.759   9.025 -1.5352 -1.2476  0.2180
20529SOL     OW66271   6.968   6.201  10.989  0.4295 -0.5017  0.4041
20529SOL    HW166272   6.875   6.210  11.010  0.9044 -0.4835  2.8111
20529SOL    HW266273   6.990   6.112  11.015  0.6890 -1.2390 -2.1111
20530SOL     OW66274   8.416   7.039   8.859 -0.6948  0.0381  0.1157
20530SOL    HW166275   8.447   7.129   8.868  0.5104 -0.3979  0.4485
20530SOL    HW266276   8.459   7.006   8.780  0.1691 -0.7493  0.8877
20531SOL     OW66277   4.275   6.086   6.917 -0.4044  0.2007  0.5731
20531SOL    HW166278   4.292   6.178   6.936  0.4217  0.1378  0.1677
20531SOL    HW266279   4.344   6.038   6.962 -1.4621 -0.3157  1.6947
20532SOL     OW66280   6.746   3.306  10.226 -0.3283  0.5019  0.7397
20532SOL    HW166281   6.726   3.309  10.132 -0.2812  1.0090  0.7447
20532SOL    HW266282   6.789   3.389  10.244 -2.2985  1.3881  1.6521
20533SOL     OW66283   3.431   8.812   6.463 -0.0971 -0.2194 -0.0167
20533SOL    HW166284   3.348   8.835   6.505 -0.8736  0.8170 -2.0388
20533SOL    HW266285   3.420   8.721   6.437 -0.6519 -0.0439 -0.3973
20534SOL     OW66286   1.918   1.090   8.392  0.3586 -0.1951  0.3604
20534SOL    HW166287   1.893   1.024   8.456  2.0764 -0.3823  0.8961
20534SOL    HW266288   1.944   1.166   8.444  0.5256  0.1154 -0.1618
20535SOL     OW66289   2.238   8.283   8.274  0.3498  0.2223 -0.0617
20535SOL    HW166290   2.160   8.309   8.322  0.4344 -0.4168  0.4405
20535SOL    HW266291   2.265   8.362   8.227 -1.2928  0.1361 -1.2294
20536SOL     OW66292   0.714   5.632  11.198 -0.6693 -0.3600  0.4272
20536SOL    HW166293   0.646   5.674  11.145  0.1758 -2.3685 -2.4920
20536SOL    HW266294   0.793   5.681  11.178 -0.0729 -1.9660 -1.4134
20537SOL     OW66295   2.200   5.482   8.896  0.1026  0.3939  0.2955
20537SOL    HW166296   2.263   5.420   8.932 -0.4722 -0.0223  0.5833
20537SOL    HW266297   2.253   5.538   8.838  0.4005 -1.2642 -1.1230
20538SOL     OW66298   5.144   2.889   9.484  0.0234 -0.3408  0.3915
20538SOL    HW166299   5.057   2.858   9.511  0.4447 -0.1902  1.9722
20538SOL    HW266300   5.198   2.883   9.563  1.1882  0.5642 -0.3062
20539SOL     OW66301   6.494  10.242   8.520 -0.0244  0.8965 -0.2894
20539SOL    HW166302   6.525  10.267   8.433  0.7098  1.1896  0.0516
20539SOL    HW266303   6.571  10.208   8.565 -0.4789  0.3843  0.1226
20540SOL     OW66304   3.476   4.269   4.672 -0.1777 -0.6810 -0.0390
20540SOL    HW166305   3.551   4.277   4.731  0.1609  0.2364 -0.5725
20540SOL    HW266306   3.430   4.191   4.702  1.7547 -2.1038 -0.5665
20541SOL     OW66307  11.151   3.052   8.267 -0.2497  0.3722 -0.3251
20541SOL    HW166308  11.106   2.968   8.270  0.2465  0.1153  0.0060
20541SOL    HW266309  11.180   3.060   8.176  0.5254 -0.2623 -0.1488
20542SOL     OW66310   7.283   0.240  10.133  0.0842  0.5163  0.4870
20542SOL    HW166311   7.378   0.239  10.147  0.0213  0.6249  0.9299
20542SOL    HW266312   7.273   0.234  10.038  0.5223 -0.2479  0.4812
20543SOL     OW66313   6.001  10.571   3.270  0.2793 -0.5168  0.3915
20543SOL    HW166314   6.077  10.572   3.329 -0.3154 -0.9147  1.1755
20543SOL    HW266315   6.020  10.500   3.209  0.9277 -0.0632  0.0454
20544SOL     OW66316   0.034   7.560   0.300  0.3456  0.0856  0.3869
20544SOL    HW166317   0.043   7.574   0.206 -0.0473  1.8984  0.5918
20544SOL    HW266318  -0.057   7.583   0.320  0.3338 -0.5835  1.1715
20545SOL     OW66319   3.102   9.518   7.699  0.1608 -0.3584 -0.3854
20545SOL    HW166320   3.128   9.439   7.747 -0.4395 -0.6215 -0.4764
20545SOL    HW266321   3.173   9.580   7.714  0.4400 -0.7740  0.0380
20546SOL     OW66322   2.797   9.822   3.893  0.3792  0.7460  0.5118
20546SOL    HW166323   2.765   9.911   3.909 -0.5343  0.6222 -0.4820
20546SOL    HW266324   2.747   9.767   3.953  0.1627  0.7870  0.3704
20547SOL     OW66325   9.394  11.128  10.316  0.0316  0.0759  0.4022
20547SOL    HW166326   9.320  11.180  10.349  0.0576  0.6069 -0.3356
20547SOL    HW266327   9.358  11.084  10.238 -0.3154 -1.9152  1.6261
20548SOL     OW66328   1.208   8.794   1.779  0.0829 -0.1558 -0.1155
20548SOL    HW166329   1.193   8.700   1.778  1.2438 -0.3494 -0.4638
20548SOL    HW266330   1.302   8.804   1.766 -0.0892  1.0721 -0.5711
20549SOL     OW66331   2.035  10.656  11.846  0.4748  0.6147 -0.5582
20549SOL    HW166332   2.085  10.574  11.845 -0.6593 -0.1211  0.1761
20549SOL    HW266333   2.027  10.679  11.753  1.3473  0.2413 -0.7381
20550SOL     OW66334   6.775   7.702   5.214  0.3564  0.3983  0.0499
20550SOL    HW166335   6.683   7.703   5.185  0.0937 -0.0033  0.8419
20550SOL    HW266336   6.770   7.688   5.309  1.2974 -1.2241 -0.1147
20551SOL     OW66337   6.814  10.202   9.019 -0.0021  0.5877  0.5892
20551SOL    HW166338   6.863  10.151   9.083  2.0454  1.1805 -0.4293
20551SOL    HW266339   6.825  10.293   9.047  0.4296  0.8060 -0.2467
20552SOL     OW66340  11.995   6.236   7.175 -0.2621  0.4059 -0.0475
20552SOL    HW166341  11.970   6.181   7.101  1.2107 -0.7207  0.2427
20552SOL    HW266342  11.922   6.296   7.186 -0.3654  0.8775 -2.6495
20553SOL     OW66343  11.530   4.277   3.735  0.4702  0.0897 -0.1257
20553SOL    HW166344  11.532   4.331   3.814  1.8321 -1.4866  0.9940
20553SOL    HW266345  11.494   4.334   3.667  2.1634  2.5161  0.8861
20554SOL     OW66346   5.936  11.322   5.393  0.4510  0.3717 -0.0761
20554SOL    HW166347   5.846  11.321   5.424  0.4670  0.4179 -0.0284
20554SOL    HW266348   5.938  11.391   5.326  0.0714 -0.6662 -1.2048
20555SOL     OW66349  11.186   9.922   7.992 -0.1026  0.0923  0.0096
20555SOL    HW166350  11.111   9.910   7.934  0.1788  0.2762 -0.3998
20555SOL    HW266351  11.174  10.010   8.029  0.4853  0.5860 -0.9231
20556SOL     OW66352   8.504   5.760   8.354  0.1666  0.0398 -0.3694
20556SOL    HW166353   8.554   5.776   8.434 -0.2071  0.0509 -0.1356
20556SOL    HW266354   8.462   5.844   8.334  1.8059  0.6010 -1.6810
20557SOL     OW66355   8.666   0.948   1.367  0.3067 -0.0738  0.1001
20557SOL    HW166356   8.691   0.877   1.427  1.7426  0.2104 -0.1336
20557SOL    HW266357   8.607   1.003   1.419  1.0709 -0.1390  1.0811
20558SOL     OW66358   3.260  11.023  10.483 -0.1522 -0.4712  0.2623
20558SOL    HW166359   3.280  11.052  10.572  0.2435  0.5534 -0.1503
20558SOL    HW266360   3.276  11.100  10.428 -1.4864 -0.7536 -0.5667
20559SOL     OW66361   2.622   1.247   4.377  0.7158 -0.3357 -0.0069
20559SOL    HW166362   2.678   1.185   4.330 -0.1101  0.4519 -2.1821
20559SOL    HW266363   2.679   1.323   4.392  0.8314 -0.3680 -0.2754
20560SOL     OW66364   3.064  11.488  10.973 -0.5849 -0.0437 -0.0989
20560SOL    HW166365   3.062  11.530  11.060  0.5206 -0.9138  0.3765
20560SOL    HW266366   3.060  11.395  10.992 -2.6505 -0.2146 -1.1270
20561SOL     OW66367   4.988   4.579   3.948  0.0029  0.4135 -0.0002
20561SOL    HW166368   5.019   4.490   3.961 -3.0819 -0.9340 -0.9992
20561SOL    HW266369   4.914   4.588   4.008  0.2705  2.3377  0.1002
20562SOL     OW66370   8.816  11.227  10.003 -0.3261 -0.0418  0.1583
20562SOL    HW166371   8.753  11.299  10.005 -1.6522 -1.1670  0.5210
20562SOL    HW266372   8.861  11.231  10.088  0.0613  0.7276 -0.0782
20563SOL     OW66373   5.730   3.702   8.905  0.4928 -0.3748 -0.0169
20563SOL    HW166374   5.738   3.756   8.827 -2.8765 -0.7900 -0.7945
20563SOL    HW266375   5.709   3.615   8.872  0.2211 -0.8473  1.3503
20564SOL     OW66376   2.271  10.865   8.262 -0.6313 -0.1682 -0.3070
20564SOL    HW166377   2.329  10.795   8.291 -1.3345 -0.3866  0.6145
20564SOL    HW266378   2.189  10.822   8.240 -0.6718  0.2218 -0.9614
20565SOL     OW66379   3.959   9.612   9.697  0.2336  0.0371  0.0837
20565SOL    HW166380   3.937   9.635   9.787 -1.2686  0.2285 -0.3182
20565SOL    HW266381   4.053   9.594   9.700  0.2418  0.1972  1.6510
20566SOL     OW66382   7.062  10.405  10.436 -0.0077  0.0366 -0.0624
20566SOL    HW166383   7.024  10.340  10.495 -1.6531  1.2438  0.2987
20566SOL    HW266384   7.144  10.431  10.476 -0.9829  0.6636  1.6347
20567SOL     OW66385  11.343   1.567  11.056 -0.3067 -0.0591 -0.1813
20567SOL    HW166386  11.409   1.498  11.052 -0.3263 -0.0353 -1.0096
20567SOL    HW266387  11.380   1.638  11.003 -0.2629  0.5975  0.6891
20568SOL     OW66388   8.044   8.139   2.696  0.5474 -0.3792 -0.0198
20568SOL    HW166389   8.132   8.130   2.733 -0.1687 -0.7474  1.6517
20568SOL    HW266390   8.040   8.231   2.668  1.2090 -0.1594  0.5642
20569SOL     OW66391  11.501   0.013   8.207  0.4634 -0.0904  0.4576
20569SOL    HW166392  11.527   0.086   8.263 -0.8607  3.2847 -2.8545
20569SOL    HW266393  11.572   0.005   8.143 -1.1830  1.2681 -1.6772
20570SOL     OW66394  10.876   7.561   6.022 -0.2269 -0.1890  0.0227
20570SOL    HW166395  10.804   7.572   5.960  0.7079  0.0101 -1.0595
20570SOL    HW266396  10.836   7.521   6.099 -1.5370  0.1794 -0.4506
20571SOL     OW66397   2.086   3.994   4.384  0.0410  0.2948  0.4347
20571SOL    HW166398   2.145   3.928   4.346  0.9654 -0.2096  2.6098
20571SOL    HW266399   2.144   4.051   4.434 -0.8828  2.1921 -0.5513
20572SOL     OW66400   0.208   4.989   1.348 -0.4435  0.5637  0.8251
20572SOL    HW166401   0.137   4.925   1.355 -0.7510  0.4317 -2.1171
20572SOL    HW266402   0.273   4.947   1.291  0.2948  2.0546  0.5042
20573SOL     OW66403  10.214   8.849   3.670 -0.3031 -0.0091 -0.2309
20573SOL    HW166404  10.169   8.922   3.627  0.4091  0.1713 -0.7011
20573SOL    HW266405  10.230   8.786   3.599  0.8989  0.2975 -0.2600
20574SOL     OW66406   8.682   0.008   2.237 -0.4161  0.4064 -0.0480
20574SOL    HW166407   8.750   0.057   2.190  2.4129 -0.0813  3.1376
20574SOL    HW266408   8.713  -0.082   2.237 -2.3585 -0.3076 -0.5041
20575SOL     OW66409   5.814   9.637  10.308  0.1936  0.0806  0.5544
20575SOL    HW166410   5.828   9.593  10.392  0.1723 -1.0183 -0.0135
20575SOL    HW266411   5.798   9.728  10.332 -1.2122 -0.4721  1.8441
20576SOL     OW66412   1.132   8.655   2.798 -0.7057 -0.1859 -0.1144
20576SOL    HW166413   1.064   8.716   2.769  0.1716  0.3937 -1.0155
20576SOL    HW266414   1.112   8.638   2.890 -1.5655  0.6495 -0.1396
20577SOL     OW66415   4.592   3.848   8.139  0.4720 -0.0692 -0.1476
20577SOL    HW166416   4.594   3.820   8.048  0.3891 -2.4076  0.5177
20577SOL    HW266417   4.630   3.775   8.188  1.5197  1.5558  1.6227
20578SOL     OW66418   8.809   1.733   0.791  0.3514 -0.3956 -0.1736
20578SOL    HW166419   8.737   1.789   0.820  1.2627  0.6409  0.1938
20578SOL    HW266420   8.888   1.780   0.819  1.1621 -1.8533  0.1031
20579SOL     OW66421   9.878  11.283   3.334  0.2738  0.0786 -0.1716
20579SOL    HW166422   9.955  11.306   3.283  1.9521  0.8454  2.5312
20579SOL    HW266423   9.873  11.350   3.402 -2.1185 -0.6284  0.4597
20580SOL     OW66424   7.794   6.085   4.511 -0.0672  0.2955 -0.3607
20580SOL    HW166425   7.784   6.041   4.427  0.2589 -0.4228 -0.0290
20580SOL    HW266426   7.883   6.120   4.509 -0.1750  0.5726 -0.4439
20581SOL     OW66427   5.127  10.095  11.346  0.1369 -0.1954 -0.4683
20581SOL    HW166428   5.097  10.152  11.417  0.0609  0.6079 -1.1320
20581SOL    HW266429   5.180  10.152  11.290  0.7629 -0.9842 -0.6888
20582SOL     OW66430   0.906   2.649   3.876  0.4276  0.4529 -0.1164
20582SOL    HW166431   0.888   2.742   3.865  1.4691  0.6157 -0.5682
20582SOL    HW266432   0.947   2.642   3.962 -0.4236  0.2771  0.2910
20583SOL     OW66433   0.453   1.852   1.300  0.3603  0.4985 -0.0761
20583SOL    HW166434   0.537   1.866   1.343  0.0342 -1.5526  1.4007
20583SOL    HW266435   0.452   1.759   1.278 -1.3367  0.5754 -0.4652
20584SOL     OW66436   8.127   4.629   9.397 -0.0997  0.2387 -0.2432
20584SOL    HW166437   8.147   4.589   9.482  0.4498  0.4555 -0.2648
20584SOL    HW266438   8.059   4.693   9.415  0.0805  0.3484  0.0560
20585SOL     OW66439   0.303   4.961  11.101 -0.8079  0.3531 -1.2902
20585SOL    HW166440   0.380   5.018  11.104  0.2865 -1.0398 -1.7278
20585SOL    HW266441   0.283   4.944  11.193  0.5745 -0.7325 -1.1514
20586SOL     OW66442   6.771  10.807  10.951 -0.0106  0.8085  0.0117
20586SOL    HW166443   6.822  10.768  11.023  0.8583  1.3920 -0.2727
20586SOL    HW266444   6.713  10.870  10.995 -0.5627  0.0817  0.3463
20587SOL     OW66445  11.426   4.169   7.196  0.2488 -0.5032  0.4169
20587SOL    HW166446  11.409   4.217   7.277  1.4259 -2.8990  2.2210
20587SOL    HW266447  11.440   4.079   7.224  2.8001 -1.0832 -2.1925
20588SOL     OW66448   8.582   2.704   1.177  0.1905 -0.3237 -0.3398
20588SOL    HW166449   8.562   2.615   1.149  1.8163 -1.5767  2.1283
20588SOL    HW266450   8.601   2.751   1.096 -2.5204 -1.6566 -1.8631
20589SOL     OW66451   9.794   7.786   1.450  0.2126  0.4044 -0.5368
20589SOL    HW166452   9.731   7.740   1.506  0.1192  0.7516 -0.3514
20589SOL    HW266453   9.879   7.748   1.473  0.2480  0.9052  0.2395
20590SOL     OW66454  11.638   9.154   0.613 -0.5571 -0.3077 -0.6583
20590SOL    HW166455  11.720   9.123   0.653 -2.4856 -0.9026  3.2953
20590SOL    HW266456  11.622   9.092   0.542  1.7289 -0.9735 -0.6899
20591SOL     OW66457   5.741   8.947   1.153 -0.4222  0.1347 -0.0236
20591SOL    HW166458   5.823   8.988   1.126 -0.4405  0.2989  0.1611
20591SOL    HW266459   5.682   8.958   1.078 -0.4637  0.5572  0.0675
20592SOL     OW66460   5.289   4.123   9.397 -0.1701 -0.2303  0.2360
20592SOL    HW166461   5.271   4.191   9.461  2.0979 -0.4010  1.1664
20592SOL    HW266462   5.342   4.167   9.330 -1.6195 -0.3031 -0.9939
20593SOL     OW66463   0.674   8.451   5.408  0.0452 -0.1325 -0.5791
20593SOL    HW166464   0.643   8.366   5.436 -2.8800 -0.5211 -4.2127
20593SOL    HW266465   0.751   8.432   5.354  2.4732  0.1758  2.4819
20594SOL     OW66466  10.875   9.227   3.497  0.1409  0.3470 -0.4357
20594SOL    HW166467  10.945   9.174   3.536 -0.2728 -0.7383 -1.1279
20594SOL    HW266468  10.819   9.164   3.452 -0.3288  1.3889 -1.3669
20595SOL     OW66469   8.089   8.882   7.653  1.1058  0.4476 -0.6986
20595SOL    HW166470   8.148   8.849   7.722  1.3710  0.3556 -0.9684
20595SOL    HW266471   8.002   8.858   7.684  0.8725  3.4100  1.3213
20596SOL     OW66472   1.998   2.454   4.610  0.1115 -0.6252  0.1257
20596SOL    HW166473   1.998   2.493   4.523  0.7481 -0.7197  0.0776
20596SOL    HW266474   2.065   2.385   4.605  0.2351 -0.5530  0.7233
20597SOL     OW66475   3.786   9.025   7.181  0.1809  0.0623 -0.0308
20597SOL    HW166476   3.703   9.039   7.226  0.7096 -1.0794  1.3404
20597SOL    HW266477   3.841   9.098   7.209  0.0925  0.0581  0.1525
20598SOL     OW66478   9.816   7.047  11.197  0.2300 -0.3127 -0.2154
20598SOL    HW166479   9.842   6.968  11.245  1.5079  0.2740  0.1052
20598SOL    HW266480   9.811   7.115  11.264 -0.0541  0.0639 -0.6137
20599SOL     OW66481  11.828  11.421   7.523 -0.4650 -0.2045  0.3546
20599SOL    HW166482  11.758  11.483   7.543 -0.0786 -0.3938  2.6980
20599SOL    HW266483  11.896  11.442   7.588 -0.3517 -3.0784  1.2979
20600SOL     OW66484   9.458   7.187   9.532 -0.1254  0.7790 -0.2133
20600SOL    HW166485   9.469   7.184   9.437 -1.0121 -0.1530 -0.3055
20600SOL    HW266486   9.393   7.120   9.551 -0.8890  1.7914  0.9284
20601SOL     OW66487   9.810   5.946   0.064  0.0103  0.3355  0.3868
20601SOL    HW166488   9.818   6.024   0.119  2.5750  0.4336  0.0059
20601SOL    HW266489   9.897   5.906   0.067 -0.6732 -1.3854 -1.0818
20602SOL     OW66490   3.832   8.069   6.697 -0.2873 -0.9844  0.2560
20602SOL    HW166491   3.873   7.985   6.717 -1.4460 -1.9334 -1.0873
20602SOL    HW266492   3.852   8.083   6.604 -0.3376  0.0950  0.3991
20603SOL     OW66493   2.751   8.126   9.672  0.5646 -0.3198 -0.5040
20603SOL    HW166494   2.705   8.174   9.741  0.5820 -1.3427  0.2412
20603SOL    HW266495   2.692   8.129   9.597 -2.1252 -3.8945  1.1784
20604SOL     OW66496  10.260   7.035  10.580 -0.0695  0.1948  0.3180
20604SOL    HW166497  10.187   6.979  10.605 -0.0208  0.6612  1.5605
20604SOL    HW266498  10.248   7.115  10.631 -0.3524  1.5188 -1.7006
20605SOL     OW66499   5.473   7.327   4.062  0.5387  0.0517  0.0160
20605SOL    HW166500   5.413   7.344   3.989  1.6181  0.2981 -0.8429
20605SOL    HW266501   5.426   7.263   4.117 -1.1049  1.3144  0.1569
20606SOL     OW66502   2.138   6.587   1.146  0.0931 -0.2441  0.2640
20606SOL    HW166503   2.075   6.547   1.206 -0.1126 -0.5201 -0.1371
20606SOL    HW266504   2.145   6.526   1.073 -0.8615  0.8266 -0.7612
20607SOL     OW66505   2.751   1.616   2.219  0.2882 -0.2346 -0.7653
20607SOL    HW166506   2.685   1.683   2.200 -0.4822 -1.0650 -1.1118
20607SOL    HW266507   2.796   1.648   2.297 -0.7943  0.1678 -0.2889
20608SOL     OW66508   8.294   6.626   0.505 -0.6679 -0.2165 -0.2587
20608SOL    HW166509   8.341   6.565   0.448  0.5771  1.2788 -0.9133
20608SOL    HW266510   8.207   6.633   0.467  0.4691  1.6099 -2.7453
20609SOL     OW66511  10.989   1.250   7.170 -0.1545  0.0577  0.2200
20609SOL    HW166512  10.932   1.174   7.185  1.0966 -1.3389 -1.6958
20609SOL    HW266513  11.076   1.219   7.194  0.0562  1.7823  1.9280
20610SOL     OW66514   8.816  11.595   9.607  0.0712  0.1035  0.1709
20610SOL    HW166515   8.785  11.669   9.554 -0.6318 -0.4654 -0.2279
20610SOL    HW266516   8.784  11.517   9.561 -2.0120 -0.3950  2.2719
20611SOL     OW66517  11.863  10.432  10.793 -0.3004 -0.7367  0.3627
20611SOL    HW166518  11.949  10.426  10.833 -0.7547  1.1744  1.7910
20611SOL    HW266519  11.846  10.345  10.758  3.2689 -0.5697 -2.3317
20612SOL     OW66520   7.418   4.309   5.562 -1.1758  0.1217 -0.1977
20612SOL    HW166521   7.401   4.386   5.616  1.6485  0.2046  0.7190
20612SOL    HW266522   7.476   4.254   5.615  2.6246  0.6585 -3.2838
20613SOL     OW66523  11.772  10.200   5.449 -0.4662 -0.0502 -0.0432
20613SOL    HW166524  11.697  10.240   5.493 -0.4050  0.5679 -0.4811
20613SOL    HW266525  11.809  10.271   5.397 -0.1813 -0.6097 -0.6171
20614SOL     OW66526   4.174   8.209   4.628  0.1873  0.1310  0.1959
20614SOL    HW166527   4.082   8.234   4.625  0.5045  1.4097  0.6407
20614SOL    HW266528   4.206   8.222   4.539  0.6086  2.4714  0.6245
20615SOL     OW66529   5.897  11.309  11.255 -0.0257 -0.4732 -0.1757
20615SOL    HW166530   5.974  11.343  11.209 -1.8204  1.1885 -2.1098
20615SOL    HW266531   5.887  11.367  11.330  0.9974 -1.1802  0.5454
20616SOL     OW66532   9.349  11.678   8.997  0.1640 -0.0498 -0.3539
20616SOL    HW166533   9.355  11.647   9.088  1.0704 -1.3270 -0.8087
20616SOL    HW266534   9.269  11.729   8.994 -0.0297 -0.2229  1.1047
20617SOL     OW66535   0.709   7.735   4.943  0.6581  0.4489  0.0010
20617SOL    HW166536   0.763   7.658   4.933  1.5950  1.2821 -1.6884
20617SOL    HW266537   0.635   7.706   4.997  1.6857 -1.2343  0.5632
20618SOL     OW66538   1.022   5.544   4.837  0.3539  0.5164 -0.3194
20618SOL    HW166539   0.944   5.598   4.829  0.2687  0.0926 -2.9594
20618SOL    HW266540   1.095   5.604   4.818  0.6767  0.7423  1.4344
20619SOL     OW66541  10.105  11.105   1.934  0.1365 -0.1602 -0.8568
20619SOL    HW166542  10.084  11.195   1.959  1.0691 -0.0044 -0.5979
20619SOL    HW266543  10.154  11.113   1.852 -0.2620 -0.4748 -1.1303
20620SOL     OW66544   3.769   3.560   6.200 -0.4063  0.3239 -0.6234
20620SOL    HW166545   3.770   3.489   6.135 -1.4507 -0.7606  0.4822
20620SOL    HW266546   3.696   3.615   6.174 -0.1234  0.5236 -1.0022
20621SOL     OW66547   5.682   7.208   1.790 -0.0462 -0.3869  0.3637
20621SOL    HW166548   5.657   7.238   1.703  0.4157 -1.3394 -0.1116
20621SOL    HW266549   5.754   7.266   1.816  0.1810 -0.4509 -0.1212
20622SOL     OW66550   9.414  10.461   9.741  0.0951  0.8762  0.4460
20622SOL    HW166551   9.501  10.443   9.775 -0.4194  0.2490  1.4911
20622SOL    HW266552   9.360  10.389   9.774 -0.8016  1.2086 -0.2525
20623SOL     OW66553   8.372   1.302   7.526 -0.1717  0.1909 -0.3615
20623SOL    HW166554   8.341   1.389   7.551  1.7888  0.3033  2.1322
20623SOL    HW266555   8.432   1.318   7.453  0.9361  1.1216  0.7077
20624SOL     OW66556  11.942   6.485   5.867 -0.1690 -0.1780 -0.1071
20624SOL    HW166557  11.906   6.513   5.951 -1.3778 -3.8452  0.7724
20624SOL    HW266558  11.875   6.509   5.802 -1.7928 -2.0536  0.7817
20625SOL     OW66559   9.186   5.747   2.078  0.1555 -0.6655 -0.6500
20625SOL    HW166560   9.187   5.652   2.066  0.7860 -0.6065 -1.1581
20625SOL    HW266561   9.196   5.782   1.989  0.1232 -0.1254 -0.4434
20626SOL     OW66562   4.774   1.836   9.444 -0.3897 -0.0950  0.0014
20626SOL    HW166563   4.846   1.774   9.430  1.1155  0.9576  2.3805
20626SOL    HW266564   4.776   1.892   9.366  1.3380 -0.1478 -0.0325
20627SOL     OW66565  11.211   8.671   7.382 -0.2606 -0.2258 -0.1002
20627SOL    HW166566  11.149   8.742   7.398 -0.9823 -0.1988 -2.6555
20627SOL    HW266567  11.220   8.667   7.287  1.6569 -1.9722  0.0749
20628SOL     OW66568  10.100   9.372   7.111 -0.3639  0.6822 -0.9222
20628SOL    HW166569  10.119   9.393   7.020 -2.0683  1.4436 -1.1422
20628SOL    HW266570  10.082   9.457   7.152  1.2329  0.4532  0.3744
20629SOL     OW66571   7.443   2.686   7.256 -0.2591  0.7341 -0.2289
20629SOL    HW166572   7.423   2.761   7.312  1.8183  0.1402  1.4477
20629SOL    HW266573   7.410   2.611   7.305 -1.0092  0.4014 -1.2139
20630SOL     OW66574   8.941   6.359   0.579  0.2798  0.2129  0.4433
20630SOL    HW166575   8.942   6.423   0.507 -0.0785  1.2847  1.3681
20630SOL    HW266576   8.850   6.356   0.607  0.4429 -0.0871  0.9509
20631SOL     OW66577  11.281   3.017   3.118  0.3348  0.1507 -0.1440
20631SOL    HW166578  11.283   2.921   3.119  0.9324  0.1475 -0.7136
20631SOL    HW266579  11.360   3.042   3.071  0.7923  0.9626  1.0255
20632SOL     OW66580  11.631   5.430   8.069 -0.2154 -0.9390 -0.7343
20632SOL    HW166581  11.593   5.513   8.040 -1.2535 -0.7368  1.0380
20632SOL    HW266582  11.569   5.364   8.037 -1.4883 -0.6994  1.0305
20633SOL     OW66583   3.394  10.829   4.942  0.6045  0.1486  0.6439
20633SOL    HW166584   3.429  10.882   4.870 -0.0923  0.9263  0.8742
20633SOL    HW266585   3.472  10.793   4.984  1.2093  2.3635  1.5515
20634SOL     OW66586   0.248   8.919   8.819 -0.0933  0.1306  0.3470
20634SOL    HW166587   0.303   8.934   8.896  0.3306 -0.5442  0.1800
20634SOL    HW266588   0.270   8.831   8.791 -1.7035 -0.3940  0.6280
20635SOL     OW66589   3.502  11.757   1.865 -0.3275 -0.0770 -0.1603
20635SOL    HW166590   3.564  11.711   1.809  1.2703  0.4898  1.0569
20635SOL    HW266591   3.498  11.846   1.829 -1.7739 -0.5387 -1.2348
20636SOL     OW66592   6.116   9.788   8.865  0.5792 -0.1204 -0.1198
20636SOL    HW166593   6.120   9.812   8.772 -0.2073  2.0753  0.3555
20636SOL    HW266594   6.058   9.711   8.867  0.8743 -0.4165 -1.4557
20637SOL     OW66595  10.932   4.808   3.963 -0.1159  0.1156  0.3248
20637SOL    HW166596  11.014   4.763   3.981 -0.2406 -0.0829  0.3942
20637SOL    HW266597  10.958   4.896   3.936  0.2320 -0.5544 -1.7390
20638SOL     OW66598   2.477   3.960   8.553  0.2956 -0.6178  0.2918
20638SOL    HW166599   2.552   4.015   8.577  2.4295 -2.7844 -0.9197
20638SOL    HW266600   2.465   3.976   8.459 -0.0304 -1.0928  0.2513
20639SOL     OW66601  11.767   4.002   6.836  0.1301  0.1039  0.0228
20639SOL    HW166602  11.730   3.987   6.749  0.0509 -0.3909  0.1387
20639SOL    HW266603  11.705   4.059   6.880 -0.7885 -1.1350  0.3990
20640SOL     OW66604   0.302   9.588   2.770 -0.4991  0.0622 -0.0026
20640SOL    HW166605   0.315   9.533   2.693 -0.4289 -0.8950  0.6809
20640SOL    HW266606   0.368   9.657   2.761  1.8594 -1.9343  0.9070
20641SOL     OW66607   7.311   0.579   7.271  0.0175 -0.1050  0.3227
20641SOL    HW166608   7.354   0.651   7.317  2.1084 -0.9787 -0.1701
20641SOL    HW266609   7.237   0.556   7.327 -0.6866  2.3487  0.5227
20642SOL     OW66610   7.773   6.417   7.770  0.4283  0.2113 -0.2337
20642SOL    HW166611   7.867   6.399   7.771  0.5789  0.9220  1.5432
20642SOL    HW266612   7.760   6.478   7.842 -1.0907  1.8399 -1.7904
20643SOL     OW66613  11.415   6.698   8.286  1.2538  0.4662 -0.2311
20643SOL    HW166614  11.343   6.688   8.349  1.1724  2.4392  0.0509
20643SOL    HW266615  11.485   6.740   8.336  3.3926 -3.0406 -0.0085
20644SOL     OW66616   3.561  10.943   2.299 -0.2779  0.3031 -0.0277
20644SOL    HW166617   3.520  10.862   2.271  2.9036 -0.7623 -2.1487
20644SOL    HW266618   3.613  10.920   2.376 -2.6879  1.4343  2.0812
20645SOL     OW66619   0.557   0.816   4.222  0.0243 -0.0936  0.1115
20645SOL    HW166620   0.584   0.793   4.311 -0.4600  1.1660  0.6092
20645SOL    HW266621   0.626   0.782   4.166  0.8952  0.0685  1.0660
20646SOL     OW66622   4.511  10.999   0.080  0.1505  0.0854 -0.0533
20646SOL    HW166623   4.571  11.006   0.155 -0.3864 -0.5078  0.4433
20646SOL    HW266624   4.566  10.967   0.009  0.2691 -1.3313  0.6356
20647SOL     OW66625   3.729  11.793   0.807  0.1375  0.1425  0.7470
20647SOL    HW166626   3.752  11.872   0.758 -1.2442  1.0693  1.5140
20647SOL    HW266627   3.640  11.810   0.840 -0.0600 -1.5873  1.2386
20648SOL     OW66628   8.291   0.170  11.295  0.0805  0.2444  0.1690
20648SOL    HW166629   8.197   0.182  11.311 -0.0661 -1.6719  1.1131
20648SOL    HW266630   8.310   0.084  11.333  1.9019 -0.0907 -1.3811
20649SOL     OW66631   3.201   3.739   4.481  0.3515 -0.1695  0.5560
20649SOL    HW166632   3.271   3.804   4.474 -1.2715  1.6883  0.8294
20649SOL    HW266633   3.161   3.757   4.566 -1.1506 -0.4325 -0.0693
20650SOL     OW66634   8.300   2.263   8.664 -0.7127  0.2245  0.4705
20650SOL    HW166635   8.359   2.332   8.635  1.1735 -1.5704 -0.2743
20650SOL    HW266636   8.213   2.293   8.640 -0.0218  2.4590  0.5160
20651SOL     OW66637   3.669   9.572  10.783 -0.8800  0.6355  0.2355
20651SOL    HW166638   3.742   9.510  10.790 -0.2594  1.2502 -0.4622
20651SOL    HW266639   3.611   9.550  10.855  0.8682  1.2625  1.9213
20652SOL     OW66640   4.810   2.806   7.844 -0.0197 -0.0645 -0.1934
20652SOL    HW166641   4.720   2.781   7.865  0.4633  0.4736  3.0030
20652SOL    HW266642   4.801   2.890   7.798 -1.1378  0.7530  1.4357
20653SOL     OW66643   4.205   9.136   4.876  0.5896 -0.1226  0.1308
20653SOL    HW166644   4.211   9.196   4.802  1.4226  1.4588  1.4076
20653SOL    HW266645   4.185   9.051   4.837  4.4743 -0.1450 -2.2446
20654SOL     OW66646   3.418   4.310   1.570  0.4194  0.6450  0.7593
20654SOL    HW166647   3.390   4.238   1.626  2.6039  0.1256  1.2781
20654SOL    HW266648   3.514   4.306   1.572  0.5792  2.1969 -0.9855
20655SOL     OW66649  11.278   2.140   4.940 -0.0091 -0.1312 -0.4945
20655SOL    HW166650  11.283   2.067   4.878  0.6478  0.1684 -0.8057
20655SOL    HW266651  11.225   2.107   5.012  0.4001 -0.9645 -0.5678
20656SOL     OW66652   6.960   1.711   6.060  0.2498  0.1418 -0.2772
20656SOL    HW166653   6.872   1.691   6.092  0.4881  1.2268  1.1627
20656SOL    HW266654   6.952   1.712   5.965 -1.2163 -0.0765 -0.1686
20657SOL     OW66655  11.716   1.690  11.009 -0.4541 -0.3836 -0.0333
20657SOL    HW166656  11.701   1.716  11.100  0.7999 -1.7563  0.6064
20657SOL    HW266657  11.632   1.708  10.965 -0.5576  1.9164  0.9568
20658SOL     OW66658   6.394  10.514   0.221 -0.2315  0.0121  0.5268
20658SOL    HW166659   6.372  10.594   0.173 -0.4374  0.1155  0.7959
20658SOL    HW266660   6.454  10.467   0.162 -1.1117 -0.2466 -0.1761
20659SOL     OW66661  11.084   9.317   9.633 -0.0671 -0.2286 -0.0557
20659SOL    HW166662  11.161   9.371   9.614 -0.0036  1.1904  3.4482
20659SOL    HW266663  11.010   9.370   9.602  0.1356  0.9045  1.2849
20660SOL     OW66664   8.300   5.345   8.979 -0.6740  0.5084 -0.3525
20660SOL    HW166665   8.223   5.291   8.998 -0.6289  0.4372 -0.3697
20660SOL    HW266666   8.364   5.320   9.046 -1.0574  1.3791  0.3557
20661SOL     OW66667   1.190   6.432   8.471  0.0992 -0.5644 -0.7954
20661SOL    HW166668   1.122   6.382   8.426 -1.2289 -0.3762  0.9015
20661SOL    HW266669   1.272   6.406   8.427 -0.9787 -1.2214 -2.5166
20662SOL     OW66670   9.940   2.215   5.083  0.1124 -0.1009 -0.4880
20662SOL    HW166671  10.016   2.269   5.103 -0.2357  0.4518 -0.6559
20662SOL    HW266672   9.904   2.191   5.169 -0.4049  0.8951 -0.4063
20663SOL     OW66673   6.747   0.631   6.571 -0.4305  0.0325 -0.2633
20663SOL    HW166674   6.701   0.708   6.539 -2.0999 -0.5892  0.5461
20663SOL    HW266675   6.727   0.562   6.508 -0.9954 -0.3489  0.3156
20664SOL     OW66676   5.069  10.323   2.611  0.2456 -0.2341  0.0937
20664SOL    HW166677   5.054  10.398   2.668  1.0457  0.5125 -0.6578
20664SOL    HW266678   4.986  10.312   2.564 -0.4642 -0.9237  1.4281
20665SOL     OW66679   3.141   1.021   5.124 -0.7866 -0.2759  0.1919
20665SOL    HW166680   3.120   1.112   5.102 -0.9242 -0.0814  1.0672
20665SOL    HW266681   3.057   0.975   5.120 -0.4138 -0.8753 -2.4048
20666SOL     OW66682   9.506   0.285   6.291  0.0366  0.0725 -0.2968
20666SOL    HW166683   9.530   0.251   6.205  2.1604  0.2418  0.1757
20666SOL    HW266684   9.582   0.336   6.319  0.2646 -1.6229  2.5217
20667SOL     OW66685  11.044   2.361   6.495  0.0753  0.4528 -0.3799
20667SOL    HW166686  11.136   2.385   6.486  0.5865 -1.2800 -0.0995
20667SOL    HW266687  11.014   2.411   6.571  1.5184 -0.8367  1.1320
20668SOL     OW66688   9.327   0.216  10.229 -0.5585  0.7964  0.1327
20668SOL    HW166689   9.414   0.210  10.268  0.1859 -0.5021 -1.5880
20668SOL    HW266690   9.312   0.310  10.215  0.2042  1.0840  1.1543
20669SOL     OW66691   9.553   4.504   9.483 -0.1529 -0.5047  0.0237
20669SOL    HW166692   9.571   4.432   9.423  3.7842 -1.2192  1.7555
20669SOL    HW266693   9.639   4.535   9.511 -1.6812  3.4839  1.1006
20670SOL     OW66694  11.776  11.072   0.482 -0.4861 -0.5700  0.4272
20670SOL    HW166695  11.818  11.063   0.568  1.5794 -0.4043 -0.5100
20670SOL    HW266696  11.778  11.166   0.464  0.5634 -0.7434 -0.4671
20671SOL     OW66697   3.099   2.099   4.743  0.5949 -0.1650 -0.0247
20671SOL    HW166698   3.028   2.077   4.804  0.1242  0.3958 -0.3591
20671SOL    HW266699   3.079   2.188   4.714  1.0949 -0.2381 -0.6130
20672SOL     OW66700   5.728  10.721  10.860 -0.1784  0.1255  0.4228
20672SOL    HW166701   5.721  10.696  10.952 -1.5296  0.2895  0.3849
20672SOL    HW266702   5.723  10.638  10.812  0.2946  0.0609  0.4796
20673SOL     OW66703   4.366   1.128  11.578  0.3672  0.2162  0.0979
20673SOL    HW166704   4.424   1.159  11.648  0.9381  0.8614 -0.6431
20673SOL    HW266705   4.355   1.204  11.521  1.3193 -0.7461 -1.4625
20674SOL     OW66706   8.755   4.738   1.337  0.2813 -0.9905  0.3931
20674SOL    HW166707   8.684   4.679   1.313 -1.3084  0.7954  0.5349
20674SOL    HW266708   8.738   4.819   1.289  1.8226 -0.2692  0.9769
20675SOL     OW66709   3.579  10.773   7.541  0.3152 -0.1633 -0.3190
20675SOL    HW166710   3.671  10.747   7.543  0.3554 -0.0268 -0.3808
20675SOL    HW266711   3.569  10.831   7.616 -0.2020 -1.7552  0.9135
20676SOL     OW66712   1.828   6.372   6.808 -0.0388 -0.1097  0.2315
20676SOL    HW166713   1.757   6.380   6.872 -0.4026 -0.1262 -0.1617
20676SOL    HW266714   1.872   6.291   6.832  0.2251  0.2066  0.8452
20677SOL     OW66715   5.516   4.078   7.544  0.2813  0.0892 -0.2194
20677SOL    HW166716   5.502   4.064   7.450  0.1166 -1.9624  0.0713
20677SOL    HW266717   5.609   4.061   7.557  0.1243 -0.5225  0.1225
20678SOL     OW66718   8.048   1.320   2.766 -0.0259  0.1588 -0.2105
20678SOL    HW166719   8.073   1.378   2.838  1.1701 -0.5274 -0.0629
20678SOL    HW266720   8.130   1.297   2.723 -0.7272  0.7856 -2.0058
20679SOL     OW66721   6.000   0.492   7.543  0.2961 -0.2353 -0.4484
20679SOL    HW166722   6.043   0.556   7.601  0.1871  0.0069 -0.6340
20679SOL    HW266723   5.939   0.544   7.491  1.6581 -0.1364 -2.0560
20680SOL     OW66724   3.023   8.013   9.690  0.4667 -0.2688 -0.7387
20680SOL    HW166725   3.071   8.069   9.751  0.2566 -0.2900 -0.5535
20680SOL    HW266726   2.937   8.055   9.681  0.1461 -0.7933 -0.2526
20681SOL     OW66727   9.830   5.032   4.286 -0.3087 -0.2227 -0.2432
20681SOL    HW166728   9.881   4.976   4.344 -0.6957 -0.6887 -0.3448
20681SOL    HW266729   9.861   5.121   4.305 -0.2412 -0.3933  0.4804
20682SOL     OW66730   7.236   8.475   7.517  0.0228 -0.1028 -0.1861
20682SOL    HW166731   7.275   8.499   7.433  2.1980 -0.6951  0.5597
20682SOL    HW266732   7.154   8.432   7.495  0.1631  0.4652 -1.9467
20683SOL     OW66733   1.475   1.623   9.419 -0.0423  0.0451  0.1672
20683SOL    HW166734   1.520   1.584   9.494  0.0511 -0.4653 -0.1502
20683SOL    HW266735   1.546   1.653   9.362 -0.0444  2.7806  1.4168
20684SOL     OW66736  11.940   5.502   4.919  0.0904 -0.4066 -0.5543
20684SOL    HW166737  12.007   5.459   4.866 -0.1491  1.6263 -2.6941
20684SOL    HW266738  11.986   5.529   4.998  1.5360 -0.1202 -1.4417
20685SOL     OW66739   0.709   0.877   0.180  1.3218  0.0976 -0.4461
20685SOL    HW166740   0.616   0.899   0.184  1.2576 -0.2603  2.4897
20685SOL    HW266741   0.711   0.789   0.144  0.4881  0.0028 -0.2954
20686SOL     OW66742   6.589   5.436   0.716  0.0846 -0.0887  0.6179
20686SOL    HW166743   6.598   5.509   0.776  0.9590 -0.2098  0.6508
20686SOL    HW266744   6.507   5.395   0.740 -0.9618  1.4982 -0.0876
20687SOL     OW66745   1.057   6.838   8.672  0.0786  0.3405  0.7822
20687SOL    HW166746   1.144   6.821   8.636 -0.3598 -0.5145  0.0978
20687SOL    HW266747   1.002   6.769   8.635 -0.8010  0.6146  1.5551
20688SOL     OW66748   4.798  10.577   1.002  0.3238 -0.2752  0.0983
20688SOL    HW166749   4.789  10.579   0.906  3.3344  0.4051 -0.2714
20688SOL    HW266750   4.745  10.651   1.032 -0.6980 -0.5201 -1.0148
20689SOL     OW66751   5.872   4.276   3.755  0.0241 -0.4797 -0.0190
20689SOL    HW166752   5.864   4.328   3.834 -3.0680  1.3700 -1.3872
20689SOL    HW266753   5.940   4.320   3.704 -0.6718  0.6620  0.0051
20690SOL     OW66754  10.065   8.383   9.030  0.1373  0.0103 -0.0661
20690SOL    HW166755  10.086   8.475   9.046  0.4907 -0.1905  0.6436
20690SOL    HW266756  10.149   8.341   9.013  0.2421 -0.5656  1.6461
20691SOL     OW66757   0.059  10.712   2.936  0.3817  0.4458 -0.1919
20691SOL    HW166758   0.046  10.707   2.841 -1.1747  1.1490 -0.0522
20691SOL    HW266759   0.148  10.679   2.950 -0.1340 -1.7750 -1.6629
20692SOL     OW66760   0.224   5.146  10.439 -0.1526  0.7330 -0.0463
20692SOL    HW166761   0.241   5.233  10.403  0.2062  0.4865 -0.4837
20692SOL    HW266762   0.310   5.113  10.464 -0.4767  1.2865  1.9755
20693SOL     OW66763   5.075   3.749   4.304 -0.0961 -0.5491  0.4489
20693SOL    HW166764   5.112   3.826   4.348 -0.3841 -0.4400  0.5046
20693SOL    HW266765   5.077   3.680   4.371 -1.1634 -0.2024  0.8666
20694SOL     OW66766   5.543   5.457   3.999  0.3098  0.1197 -0.2410
20694SOL    HW166767   5.505   5.371   4.020 -0.5609  0.5386 -0.0625
20694SOL    HW266768   5.632   5.453   4.035 -0.3342 -0.0501  1.4002
20695SOL     OW66769   2.927   6.062   0.180  0.0109  0.3622  0.2061
20695SOL    HW166770   2.885   6.023   0.103 -1.8564  1.4944  0.5863
20695SOL    HW266771   2.984   6.129   0.144  0.1753 -0.0206 -0.2563
20696SOL     OW66772   8.301   1.841   7.425  0.3553  0.1439  0.5523
20696SOL    HW166773   8.350   1.844   7.343 -2.5471 -0.1252 -1.3169
20696SOL    HW266774   8.270   1.930   7.437 -1.0551 -0.2598  0.1091
20697SOL     OW66775   6.045   0.138   4.781 -0.4186  0.0818 -0.2102
20697SOL    HW166776   6.034   0.067   4.718  2.5364  0.0350 -0.8185
20697SOL    HW266777   6.063   0.094   4.864  0.1699  0.1153 -0.3178
20698SOL     OW66778   7.038   1.860   7.063  0.2379 -0.0001 -0.1589
20698SOL    HW166779   7.009   1.775   7.030 -0.7315 -0.5278  1.8960
20698SOL    HW266780   7.127   1.844   7.095  0.1856 -0.1660 -0.0941
20699SOL     OW66781   4.506   6.624   9.837 -0.1463  0.0730  0.6609
20699SOL    HW166782   4.531   6.580   9.919  0.2764 -0.5464  0.2127
20699SOL    HW266783   4.587   6.626   9.786 -0.8657 -1.5821 -0.6459
20700SOL     OW66784   0.524  10.065   8.344 -0.1605 -0.1278  0.9087
20700SOL    HW166785   0.430  10.055   8.361 -0.9824  0.2011 -2.6263
20700SOL    HW266786   0.532  10.149   8.298  1.9266  0.0124  1.4290
20701SOL     OW66787  10.703   0.600   1.190  0.2798 -0.3450  0.0262
20701SOL    HW166788  10.745   0.686   1.182  0.6911 -0.6314 -1.1928
20701SOL    HW266789  10.610   0.619   1.201  0.6892  0.3097  3.1182
20702SOL     OW66790   1.996   5.037   1.354 -0.2946  0.0503  0.1961
20702SOL    HW166791   2.004   4.958   1.408  0.6944  0.9213  1.3932
20702SOL    HW266792   2.084   5.049   1.317 -1.1872 -1.0938 -2.5175
20703SOL     OW66793   4.008   1.585   1.121 -0.3943 -0.4451 -0.4601
20703SOL    HW166794   3.937   1.575   1.185  0.1043 -1.7640 -0.0757
20703SOL    HW266795   3.980   1.532   1.047  0.2046 -1.0271 -0.2790
20704SOL     OW66796   6.727   4.232   5.158  0.0699 -0.1075 -0.2839
20704SOL    HW166797   6.639   4.237   5.195  0.5462 -2.2233  1.2916
20704SOL    HW266798   6.766   4.155   5.198  3.1143  1.4783  0.0835
20705SOL     OW66799   3.798   5.153   7.446  0.5250 -0.0051  0.1001
20705SOL    HW166800   3.735   5.104   7.392 -0.6558  1.4990  0.0129
20705SOL    HW266801   3.800   5.106   7.529 -0.5587 -0.2210  0.0237
20706SOL     OW66802   5.067   0.217   1.637  0.0423 -0.3220 -0.0353
20706SOL    HW166803   5.073   0.134   1.684 -1.2116  0.4452  1.5994
20706SOL    HW266804   5.005   0.200   1.566  0.7785 -1.0951 -0.5094
20707SOL     OW66805   4.118   3.950  10.719 -0.2349  0.2219 -0.7131
20707SOL    HW166806   4.027   3.932  10.742  0.0473 -0.1313  0.1683
20707SOL    HW266807   4.169   3.898  10.782  0.5817  1.7148 -0.0928
20708SOL     OW66808   6.038  11.528   2.843  0.2911  0.4300 -0.5059
20708SOL    HW166809   6.044  11.519   2.748  0.0765  1.7937 -0.6624
20708SOL    HW266810   6.075  11.614   2.862 -0.2347  0.4357  0.5844
20709SOL     OW66811   5.259   1.908   7.118  0.5730  0.3141 -0.0777
20709SOL    HW166812   5.229   1.826   7.158  0.0741 -0.3215 -1.7072
20709SOL    HW266813   5.191   1.931   7.056  1.7938  0.7108 -1.3118
20710SOL     OW66814   2.851   1.071   2.808 -0.1170  0.1508  0.0109
20710SOL    HW166815   2.809   1.074   2.893  0.1207  1.4056  0.1151
20710SOL    HW266816   2.788   1.111   2.748 -0.1246 -0.3665 -0.3361
20711SOL     OW66817   2.014   3.946  10.321  0.4124  0.0006  0.2196
20711SOL    HW166818   2.078   3.996  10.269 -0.2924  0.6707 -0.0331
20711SOL    HW266819   1.934   3.948  10.269 -0.5429  1.3336  1.6309
20712SOL     OW66820  11.013   9.366   8.748 -0.1070 -0.2213 -0.1279
20712SOL    HW166821  11.063   9.392   8.670  0.7637  1.4152  0.9059
20712SOL    HW266822  11.072   9.385   8.821 -1.1312 -1.1465  0.9726
20713SOL     OW66823   3.966   2.732   8.860 -0.7034 -0.0956 -0.4015
20713SOL    HW166824   3.927   2.691   8.937 -0.7899  0.6514 -0.0310
20713SOL    HW266825   4.047   2.683   8.845  0.2556  0.8608  1.2923
20714SOL     OW66826   2.896  11.239   1.698 -0.1458  0.1023 -0.2718
20714SOL    HW166827   2.836  11.263   1.627 -0.3655 -1.0699 -0.5024
20714SOL    HW266828   2.978  11.284   1.676 -0.5870  0.7692 -0.5844
20715SOL     OW66829   8.308  10.728   2.965  0.4416 -0.2550  0.1602
20715SOL    HW166830   8.365  10.805   2.964  2.3407 -1.5873 -0.7174
20715SOL    HW266831   8.321  10.689   3.051 -0.3094  0.2439  0.5047
20716SOL     OW66832   0.706   5.233   2.145 -0.2696  0.2978 -0.3167
20716SOL    HW166833   0.777   5.229   2.210  0.4693  1.6186 -0.9947
20716SOL    HW266834   0.627   5.248   2.196  0.5764  3.6175  0.2517
20717SOL     OW66835   5.696   9.454   9.247 -0.2228 -0.0979 -0.6853
20717SOL    HW166836   5.682   9.472   9.340  0.8520  0.7591 -0.6621
20717SOL    HW266837   5.751   9.376   9.247 -2.1188 -1.4860 -0.6897
20718SOL     OW66838   3.997   3.602   1.088 -0.1343  0.0512  0.0479
20718SOL    HW166839   4.019   3.658   1.013 -0.7085 -1.8398 -1.6211
20718SOL    HW266840   3.903   3.588   1.080 -0.1857 -0.2689  1.0897
20719SOL     OW66841   3.431   6.348   1.181  0.3861 -0.6006 -0.2295
20719SOL    HW166842   3.443   6.437   1.216  0.7315 -1.3792  1.7937
20719SOL    HW266843   3.382   6.361   1.100  2.0861  1.5740 -1.0049
20720SOL     OW66844   6.378  11.054   7.517  0.0546 -0.5114  0.2521
20720SOL    HW166845   6.401  10.966   7.487  1.3066 -0.4956  1.0755
20720SOL    HW266846   6.458  11.106   7.503  0.5270 -0.3579  2.9500
20721SOL     OW66847   0.102   4.282   6.894  0.5618  0.2397 -0.8530
20721SOL    HW166848   0.060   4.357   6.936 -1.7570 -1.4067  0.0045
20721SOL    HW266849   0.065   4.280   6.806 -0.5967 -0.6875 -0.3875
20722SOL     OW66850   9.158   7.694   8.105 -0.3077  0.0130 -0.0993
20722SOL    HW166851   9.212   7.765   8.070  0.0679 -0.0992  0.2433
20722SOL    HW266852   9.208   7.614   8.087 -0.9593 -0.2205 -0.9290
20723SOL     OW66853   0.907  11.068   3.604 -0.6679 -0.3357  0.0827
20723SOL    HW166854   0.982  11.077   3.663 -0.3550 -0.9180 -0.2134
20723SOL    HW266855   0.932  11.119   3.527 -0.2383 -1.1425 -0.3257
20724SOL     OW66856   9.373   2.154   2.818  0.6436 -0.5177  0.6346
20724SOL    HW166857   9.309   2.221   2.795  0.4244 -0.1558  2.1813
20724SOL    HW266858   9.415   2.186   2.898  0.1775 -2.4278  1.7199
20725SOL     OW66859   3.177   4.194   0.040 -0.2870  0.3166 -0.2577
20725SOL    HW166860   3.236   4.262   0.009  1.1579 -0.5264  0.5505
20725SOL    HW266861   3.221   4.112   0.019 -0.0135 -0.3206  2.4100
20726SOL     OW66862   9.374   7.155   0.467  0.4120  0.4192 -0.3648
20726SOL    HW166863   9.467   7.135   0.458  0.3240 -0.4304  0.5031
20726SOL    HW266864   9.329   7.083   0.422  0.1583  0.4306 -0.1338
20727SOL     OW66865   6.807   2.905  10.842  0.4937  0.3642 -0.7998
20727SOL    HW166866   6.804   2.998  10.820  0.9516  0.4631 -0.4544
20727SOL    HW266867   6.869   2.899  10.914  0.3812 -0.1965 -0.7434
20728SOL     OW66868  11.394   0.688   3.844  0.4280 -0.4797  0.2964
20728SOL    HW166869  11.394   0.750   3.771  2.6360 -1.6671 -0.8110
20728SOL    HW266870  11.464   0.718   3.902 -0.7854 -0.0076  1.5877
20729SOL     OW66871   3.472   2.904   2.723  0.2006 -0.3458  0.3216
20729SOL    HW166872   3.553   2.867   2.689  0.9537 -0.5731  2.2409
20729SOL    HW266873   3.476   2.889   2.817 -0.7455  2.2087  0.8535
20730SOL     OW66874   3.580  11.838  10.732  0.4305 -0.1209 -0.4039
20730SOL    HW166875   3.491  11.860  10.760 -0.7004 -1.9004 -2.3497
20730SOL    HW266876   3.608  11.914  10.680  0.0582  0.4274  0.1722
20731SOL     OW66877  10.543   0.383   4.578  0.1582 -0.3201 -0.7686
20731SOL    HW166878  10.617   0.327   4.601  0.5349  0.2903 -0.4614
20731SOL    HW266879  10.559   0.464   4.627 -1.2435 -0.5470  0.1207
20732SOL     OW66880   0.673   5.415   4.372  0.7175  0.0307 -0.0221
20732SOL    HW166881   0.750   5.406   4.428  0.8167  2.5745  0.3544
20732SOL    HW266882   0.704   5.393   4.284  1.1972 -1.4532  0.4890
20733SOL     OW66883   4.092   0.795   3.148  0.4580 -0.9210  0.4051
20733SOL    HW166884   4.036   0.717   3.146  0.6294 -1.0563  0.8547
20733SOL    HW266885   4.179   0.763   3.127  0.5381 -0.8559  0.6383
20734SOL     OW66886   5.581   2.447   2.793 -0.0942  0.2412  0.4107
20734SOL    HW166887   5.636   2.526   2.796  1.1156 -0.5835  0.4706
20734SOL    HW266888   5.641   2.377   2.769 -1.2852 -0.5657 -0.3219
20735SOL     OW66889  11.320   8.124   8.740  0.4503 -0.1913 -0.2035
20735SOL    HW166890  11.385   8.166   8.797  0.6792 -0.6428 -0.1223
20735SOL    HW266891  11.247   8.104   8.799 -1.2765  3.3422 -0.8993
20736SOL     OW66892   1.728   2.688   6.734  0.4717  0.2534  0.0920
20736SOL    HW166893   1.709   2.780   6.719 -0.3521  0.2338  0.9435
20736SOL    HW266894   1.656   2.641   6.692  0.4395  0.0319  0.3926
20737SOL     OW66895   2.714   7.051  11.489  0.4134  0.1236 -0.1606
20737SOL    HW166896   2.720   6.963  11.528  0.2776 -0.3818 -1.2397
20737SOL    HW266897   2.764   7.107  11.548  1.1497 -0.8212  0.1333
20738SOL     OW66898   8.706  11.209   1.522 -0.5244  0.6078  0.4806
20738SOL    HW166899   8.702  11.119   1.491  0.4246  0.8785 -0.4726
20738SOL    HW266900   8.775  11.209   1.589 -2.0570  0.1837  2.1371
20739SOL     OW66901  10.631   5.658   4.591  0.1421 -0.0389  0.4227
20739SOL    HW166902  10.543   5.663   4.628  0.8045  2.1722  1.9726
20739SOL    HW266903  10.639   5.569   4.558 -4.6198  0.9444 -5.0424
20740SOL     OW66904   6.443   2.231   1.994  0.5661 -0.0327 -0.3929
20740SOL    HW166905   6.356   2.194   2.005  0.6550  0.1441  1.2736
20740SOL    HW266906   6.489   2.170   1.936 -0.6744 -0.0727 -1.3687
20741SOL     OW66907   7.493   5.937   9.081 -0.2573 -0.2404  0.0278
20741SOL    HW166908   7.477   5.861   9.137  3.2221 -1.0397  0.1571
20741SOL    HW266909   7.558   5.989   9.129 -0.0401  1.0408 -1.5694
20742SOL     OW66910  11.566   7.959   9.723  0.5295  0.2328  0.9542
20742SOL    HW166911  11.649   8.006   9.725  1.6935 -1.7015  0.1072
20742SOL    HW266912  11.506   8.014   9.775  2.0521  2.1234  0.7903
20743SOL     OW66913   7.350   3.513   7.195 -0.5672 -0.0307  0.3171
20743SOL    HW166914   7.291   3.438   7.190 -0.6555  0.0763 -0.2874
20743SOL    HW266915   7.338   3.547   7.284 -0.0436 -1.1184  0.8290
20744SOL     OW66916  10.986  10.187   8.203 -0.0071  0.1922 -0.0908
20744SOL    HW166917  10.997  10.273   8.163  1.6283  0.0248 -0.0734
20744SOL    HW266918  10.892  10.175   8.210 -0.2943  1.1415 -1.9068
20745SOL     OW66919   1.999   6.579   3.896  0.2827  0.1831  0.1151
20745SOL    HW166920   2.090   6.562   3.872  0.6778  2.2089 -0.0211
20745SOL    HW266921   1.977   6.512   3.961  2.1205  0.1459  0.7339
20746SOL     OW66922   1.532   9.870   2.917 -0.3231 -0.0867 -0.3641
20746SOL    HW166923   1.480   9.945   2.946 -2.3048 -1.6518  0.4199
20746SOL    HW266924   1.607   9.869   2.975 -0.9675  0.5346  0.5090
20747SOL     OW66925  10.559   5.065  10.228 -0.0662  0.4321  0.2233
20747SOL    HW166926  10.485   5.076  10.288 -0.4911 -1.1799  0.0350
20747SOL    HW266927  10.535   4.990  10.174  1.4728  0.2224 -0.2210
20748SOL     OW66928   4.165   8.954   3.774  0.1384  0.2855  0.1001
20748SOL    HW166929   4.182   9.047   3.787  0.5571  0.0629  1.3072
20748SOL    HW266930   4.078   8.940   3.812  0.1611  0.1501  0.1054
20749SOL     OW66931   1.336   4.051   5.837  0.2390  0.5541  0.6627
20749SOL    HW166932   1.285   3.971   5.828  0.8541  0.1411  0.8149
20749SOL    HW266933   1.372   4.068   5.750  0.7235  0.2503  0.8043
20750SOL     OW66934   1.885  11.422   4.660  0.2976 -0.2099  0.1565
20750SOL    HW166935   1.968  11.382   4.634  0.0117 -1.9856  1.7115
20750SOL    HW266936   1.910  11.494   4.718  0.7631  0.1654 -0.4972
20751SOL     OW66937  10.511   8.644   2.350  0.5814  0.3041 -0.1625
20751SOL    HW166938  10.560   8.647   2.432  0.8943  1.3223 -0.3721
20751SOL    HW266939  10.427   8.686   2.370  1.0242  1.4321 -0.5843
20752SOL     OW66940   8.204   8.905   0.476  0.3979  0.0157 -0.1325
20752SOL    HW166941   8.275   8.883   0.536 -0.0696  1.1295  0.8686
20752SOL    HW266942   8.131   8.850   0.504 -0.2341  1.4885  1.2359
20753SOL     OW66943   5.032   5.101   9.836 -0.0797 -0.0858  0.3950
20753SOL    HW166944   5.005   5.080   9.747  0.2205 -0.1572  0.3179
20753SOL    HW266945   4.960   5.070   9.891  0.3460 -1.3569  0.2834
20754SOL     OW66946   8.605  11.705  10.878  0.6931 -0.1261  0.0129
20754SOL    HW166947   8.664  11.642  10.919  0.7713  0.2694  0.5219
20754SOL    HW266948   8.662  11.763  10.829  0.7396  0.3094  0.5758
20755SOL     OW66949   9.069   6.563   9.820  0.6556  0.2533 -0.0782
20755SOL    HW166950   9.030   6.632   9.874  0.9855  0.2025  0.2278
20755SOL    HW266951   8.994   6.512   9.790  0.5381 -0.6173  1.5541
20756SOL     OW66952  10.023   3.886   3.560  0.2930  0.6653  0.2888
20756SOL    HW166953  10.117   3.903   3.562  0.3588  0.6638 -1.4389
20756SOL    HW266954  10.015   3.793   3.583  0.7897  0.4601 -0.3453
20757SOL     OW66955   3.328  10.134   2.881  0.1701  0.0265 -0.0815
20757SOL    HW166956   3.383  10.151   2.958  2.4027 -0.4582 -1.4743
20757SOL    HW266957   3.384  10.083   2.823 -1.8343 -0.5714 -1.5856
20758SOL     OW66958   6.187   9.162   7.944 -0.6334 -0.5076  0.6305
20758SOL    HW166959   6.123   9.232   7.959 -1.2575 -1.2017  1.2986
20758SOL    HW266960   6.266   9.208   7.918 -1.3851  0.3771 -0.1919
20759SOL     OW66961   3.208   8.239  11.176  0.0447 -0.2010  0.4029
20759SOL    HW166962   3.275   8.202  11.119 -0.1803  0.8633 -0.5934
20759SOL    HW266963   3.138   8.173  11.176  0.1796 -0.3546 -0.3101
20760SOL     OW66964   3.779   8.631   3.388  0.4422 -0.3378 -0.2039
20760SOL    HW166965   3.713   8.569   3.356  0.3021 -0.0215 -0.5356
20760SOL    HW266966   3.738   8.717   3.378 -0.0549 -0.2774  1.8648
20761SOL     OW66967  11.621   3.010  11.339  0.0436 -0.1191 -0.7752
20761SOL    HW166968  11.541   3.063  11.340  0.2735  0.2823  1.2300
20761SOL    HW266969  11.692   3.073  11.342  0.3315 -0.4702  0.9278
20762SOL     OW66970   1.649   7.527   8.535 -0.2319  0.3051  0.1782
20762SOL    HW166971   1.702   7.519   8.614 -2.6892 -1.8471  1.7500
20762SOL    HW266972   1.624   7.620   8.533  0.9272  0.6710  1.1684
20763SOL     OW66973   4.268   1.613   8.170  0.1222  0.0286  0.5550
20763SOL    HW166974   4.204   1.673   8.209  0.4138  1.0196 -0.4537
20763SOL    HW266975   4.311   1.664   8.101  1.4161 -0.8767  0.6427
20764SOL     OW66976   1.488   2.487   2.369  0.0879 -0.0305  0.3664
20764SOL    HW166977   1.425   2.440   2.314 -0.2218  1.1299 -0.3147
20764SOL    HW266978   1.435   2.544   2.424  0.5065  0.5102  0.2240
20765SOL     OW66979   2.546   4.657   1.192  0.2734 -0.4560  0.2761
20765SOL    HW166980   2.505   4.721   1.134 -0.4988 -0.3358  0.9426
20765SOL    HW266981   2.633   4.643   1.154  0.6148  1.2885  0.3257
20766SOL     OW66982   1.574   5.525   2.492  0.4951  0.4463  0.3490
20766SOL    HW166983   1.624   5.459   2.443  0.5929  0.8707 -0.1232
20766SOL    HW266984   1.631   5.601   2.495  0.8215  0.1650  1.8239
20767SOL     OW66985   3.817  11.003   3.565 -0.1818 -0.4001  0.1185
20767SOL    HW166986   3.775  11.067   3.623  0.0722 -0.3916  0.2940
20767SOL    HW266987   3.902  11.042   3.544 -0.4008 -0.2639 -0.5059
20768SOL     OW66988   8.875   4.771   2.589 -0.0957 -0.3299  0.1437
20768SOL    HW166989   8.780   4.775   2.573  0.0122  1.6504 -0.2874
20768SOL    HW266990   8.886   4.700   2.652 -1.6653 -1.7790 -1.1090
20769SOL     OW66991   6.997  11.185   4.788 -0.1745 -0.1353  0.0671
20769SOL    HW166992   6.928  11.251   4.799 -0.8931 -0.5998 -1.4783
20769SOL    HW266993   7.028  11.196   4.698  1.8784  0.1289  0.7437
20770SOL     OW66994   6.789   9.023   7.284 -0.4805 -0.0113 -0.2941
20770SOL    HW166995   6.757   9.111   7.305  1.4866 -0.0050  3.3420
20770SOL    HW266996   6.884   9.034   7.272 -0.1206 -1.6701  0.7339
20771SOL     OW66997  11.087   0.419   1.331  0.3997  0.3252  0.0643
20771SOL    HW166998  11.010   0.380   1.289 -1.2602  0.1268  2.9709
20771SOL    HW266999  11.078   0.513   1.315  0.1075  0.2024 -0.5045
20772SOL     OW67000   5.131   0.541   7.679  0.6096 -0.7771 -0.0541
20772SOL    HW167001   5.165   0.611   7.734  2.6713 -0.8811 -1.0566
20772SOL    HW267002   5.168   0.559   7.592 -0.4061 -2.0319 -0.7826
20773SOL     OW67003  10.888  11.559   4.647 -0.7986  0.4362 -0.5456
20773SOL    HW167004  10.808  11.561   4.700  0.3571 -0.8111  1.3840
20773SOL    HW267005  10.862  11.519   4.564 -2.2590  0.4806 -0.1277
20774SOL     OW67006   3.236   3.736   3.015  0.2584  0.7553 -0.1709
20774SOL    HW167007   3.292   3.809   3.040  2.6431 -1.4974  1.7325
20774SOL    HW267008   3.169   3.732   3.083  0.8012  0.5417  0.3606
20775SOL     OW67009   0.307  10.560   0.361  0.0300  0.2551  0.0586
20775SOL    HW167010   0.331  10.535   0.451  0.4299  0.9454  0.1517
20775SOL    HW267011   0.310  10.478   0.312  0.0499 -0.0888  0.6278
20776SOL     OW67012   6.672   2.009   3.589  0.7508  0.1490 -0.7232
20776SOL    HW167013   6.696   2.063   3.514  1.1015 -0.3916 -1.0020
20776SOL    HW267014   6.582   2.036   3.610  0.3728 -0.2146 -1.8013
20777SOL     OW67015   7.544   2.277  11.075  0.2167 -0.3882  0.1694
20777SOL    HW167016   7.476   2.264  11.008  1.0752 -1.9192 -0.4518
20777SOL    HW267017   7.531   2.367  11.104 -1.1618 -0.1755 -0.9630
20778SOL     OW67018   5.205   3.651   0.905 -0.0057  0.6131  0.5929
20778SOL    HW167019   5.121   3.619   0.871 -0.0215  1.9888 -0.7719
20778SOL    HW267020   5.252   3.681   0.828  2.9656 -2.5868  0.8912
20779SOL     OW67021   2.547   7.227  11.071 -0.2453  0.2793  0.2307
20779SOL    HW167022   2.567   7.311  11.112  0.4704 -0.6123  1.8179
20779SOL    HW267023   2.632   7.192  11.044 -0.2061 -1.0429  1.9121
20780SOL     OW67024   5.731   8.302   3.787 -0.2420  0.0255  0.6290
20780SOL    HW167025   5.640   8.275   3.795  0.1369 -1.3224  0.6220
20780SOL    HW267026   5.768   8.245   3.720  0.8401 -0.0999  1.2957
20781SOL     OW67027   1.139   6.406   5.624  0.6767  0.0293  0.0889
20781SOL    HW167028   1.120   6.374   5.712  2.4230  3.1122  1.7617
20781SOL    HW267029   1.116   6.499   5.627  2.1557  0.5647 -2.2623
20782SOL     OW67030   4.091   6.014   1.226 -0.2916  0.5084 -0.1620
20782SOL    HW167031   4.158   6.016   1.158 -0.0155 -1.2091  0.0025
20782SOL    HW267032   4.071   5.921   1.237 -0.5055  0.7382  1.9067
20783SOL     OW67033   4.591   1.236   1.961  0.3652 -0.5175  0.1412
20783SOL    HW167034   4.645   1.263   1.887  0.3737 -1.4457 -0.2042
20783SOL    HW267035   4.584   1.315   2.016 -0.1683  0.3781 -1.1530
20784SOL     OW67036   9.271   3.026   7.023  0.3747  0.2923  0.0495
20784SOL    HW167037   9.337   3.000   7.086  1.5864  2.8194 -0.0804
20784SOL    HW267038   9.188   2.995   7.060  1.4162 -1.3631  1.0763
20785SOL     OW67039  11.330   7.876   7.527  0.0690 -0.1530 -0.4595
20785SOL    HW167040  11.268   7.873   7.600  0.2721 -1.4199 -0.3130
20785SOL    HW267041  11.327   7.788   7.489  0.1934  0.3971 -1.7959
20786SOL     OW67042   1.860   1.395   4.620 -0.0763 -0.3360 -0.4292
20786SOL    HW167043   1.805   1.465   4.655  0.8261  0.2798 -0.2133
20786SOL    HW267044   1.864   1.412   4.526  0.8557  0.4202 -0.2572
20787SOL     OW67045   6.069   3.013   9.753 -0.1869  0.2744  0.0490
20787SOL    HW167046   5.985   3.050   9.783 -0.9397 -1.6777  0.5236
20787SOL    HW267047   6.079   3.046   9.664 -1.2963  0.8240  0.1065
20788SOL     OW67048   4.956   3.541   0.835  0.1232  0.2990 -0.5673
20788SOL    HW167049   4.909   3.476   0.782  0.1804 -0.0934 -0.1363
20788SOL    HW267050   4.891   3.610   0.851  0.0543  0.3405 -1.0027
20789SOL     OW67051   4.087   3.120   4.718 -0.1702 -0.6749 -0.5101
20789SOL    HW167052   4.059   3.198   4.670  2.3332 -0.2854 -1.5237
20789SOL    HW267053   4.013   3.099   4.775 -1.9647  0.8453 -2.1112
20790SOL     OW67054   6.625   8.213   2.838 -0.3991  0.1638  0.1605
20790SOL    HW167055   6.669   8.193   2.921  0.2722 -0.7986 -0.4084
20790SOL    HW267056   6.552   8.270   2.863  0.0999  0.3178  1.3466
20791SOL     OW67057   8.162  10.634  11.266  0.0124  0.0037  0.2245
20791SOL    HW167058   8.199  10.592  11.343  1.6023  1.1986  0.1693
20791SOL    HW267059   8.121  10.714  11.299 -0.8295 -0.3325  0.0268
20792SOL     OW67060   9.302   4.659   6.783  0.3064 -0.6873 -0.2675
20792SOL    HW167061   9.291   4.720   6.710 -0.4649  0.5337  0.8117
20792SOL    HW267062   9.213   4.645   6.816  0.5324 -2.0462 -0.2096
20793SOL     OW67063   7.532  10.426   9.763  0.2322 -0.4943  0.0929
20793SOL    HW167064   7.520  10.417   9.858  1.7427  0.4257  0.4085
20793SOL    HW267065   7.616  10.384   9.745 -0.0853 -0.7431 -0.8687
20794SOL     OW67066   5.464   7.652  10.929 -0.4491  0.1262  0.2102
20794SOL    HW167067   5.448   7.572  10.879 -0.3690  0.3436 -0.1668
20794SOL    HW267068   5.444   7.628  11.020 -3.1641  0.4483 -0.2333
20795SOL     OW67069   0.520   9.972   6.119 -0.0992 -0.1541 -0.1825
20795SOL    HW167070   0.500   9.922   6.199  1.5725  0.4018  0.6404
20795SOL    HW267071   0.481  10.058   6.134  0.8270  0.1822  0.3822
20796SOL     OW67072   0.619   7.359  11.533  0.2787  0.3406  0.8787
20796SOL    HW167073   0.530   7.375  11.500  0.3995 -0.7441 -0.0280
20796SOL    HW267074   0.607   7.345  11.627 -0.6875 -0.8764  0.6140
20797SOL     OW67075   0.796   4.992   1.274  0.6784  0.0591 -0.9597
20797SOL    HW167076   0.754   5.074   1.246  0.9739 -0.1949 -2.1699
20797SOL    HW267077   0.778   4.930   1.204 -1.7430 -1.7236  1.0328
20798SOL     OW67078   4.151   0.945   3.653 -0.5475 -0.2429  0.2483
20798SOL    HW167079   4.117   1.027   3.690 -1.2946 -1.1142  1.6006
20798SOL    HW267080   4.222   0.921   3.713  0.2026 -0.1879 -0.6073
20799SOL     OW67081   4.381   2.057   6.424  0.2961 -0.1169  0.1195
20799SOL    HW167082   4.453   2.003   6.391  1.9542  1.4607  0.9666
20799SOL    HW267083   4.311   1.994   6.444  0.9141 -1.5715 -1.9633
20800SOL     OW67084   1.111   5.139   6.451 -0.6747 -0.1615 -0.3726
20800SOL    HW167085   1.184   5.124   6.511  1.2817  2.9292 -1.7080
20800SOL    HW267086   1.039   5.169   6.506 -0.8246 -2.5515  0.8844
20801SOL     OW67087   1.892   2.451   6.742  0.8310 -0.0005 -0.1252
20801SOL    HW167088   1.834   2.525   6.757 -0.4791 -1.0064  0.0064
20801SOL    HW267089   1.957   2.457   6.812 -0.0890  0.2512  0.7333
20802SOL     OW67090   0.291   7.708   8.356  0.5529  0.3185 -0.3340
20802SOL    HW167091   0.259   7.793   8.388  1.2005  0.4382  0.0231
20802SOL    HW267092   0.249   7.697   8.271 -0.9149  0.1745  0.3777
20803SOL     OW67093   6.695   3.575  10.348 -0.2568 -0.0853 -0.2415
20803SOL    HW167094   6.715   3.667  10.333 -1.5585  0.2554 -0.0227
20803SOL    HW267095   6.644   3.549  10.272 -4.0263  0.7422  1.7513
20804SOL     OW67096  10.491   2.661   6.712  0.0746  0.4236  0.1897
20804SOL    HW167097  10.510   2.587   6.655  0.0704  0.8845 -0.4249
20804SOL    HW267098  10.450   2.622   6.789 -1.7692 -0.0718 -0.9685
20805SOL     OW67099   4.522   8.033   1.276 -0.5713  0.0323 -0.3430
20805SOL    HW167100   4.556   8.121   1.260  2.2452 -1.2795 -2.7004
20805SOL    HW267101   4.515   8.027   1.371  0.2774  2.4082 -0.0520
20806SOL     OW67102   1.746   4.760   1.711 -0.5095 -0.4880  0.0210
20806SOL    HW167103   1.767   4.851   1.692  0.8503 -1.0637 -1.5207
20806SOL    HW267104   1.812   4.733   1.776 -0.6619 -0.4786  0.1793
20807SOL     OW67105   4.327   9.785   4.472 -0.0370  0.2690  0.2472
20807SOL    HW167106   4.253   9.749   4.422 -0.1977  0.7500  0.1402
20807SOL    HW267107   4.287   9.827   4.548  0.2708 -1.5221  1.4656
20808SOL     OW67108   4.557   6.228   9.329 -0.5208 -0.1367  0.3180
20808SOL    HW167109   4.532   6.163   9.263 -0.0255 -1.5777  1.4920
20808SOL    HW267110   4.547   6.183   9.412  1.3128  0.8012  1.1014
20809SOL     OW67111   3.716   3.040   3.330  0.3601 -0.6254 -0.5197
20809SOL    HW167112   3.723   2.964   3.273 -1.2699 -1.2927  0.1031
20809SOL    HW267113   3.638   3.086   3.298  1.0939  0.5661 -0.6271
20810SOL     OW67114   9.112   2.951   2.370 -0.0332  0.6603 -0.5076
20810SOL    HW167115   9.054   2.875   2.357 -0.5153  1.1682 -1.4210
20810SOL    HW267116   9.147   2.970   2.283  3.7530 -1.3167  0.3484
20811SOL     OW67117  10.829  10.065   7.150 -0.2853  1.0742 -0.3066
20811SOL    HW167118  10.851   9.975   7.126 -1.6913  1.0486 -1.6484
20811SOL    HW267119  10.811  10.061   7.244  1.3022  0.3188  0.0053
20812SOL     OW67120   4.082   2.885   9.771 -0.4252  0.0759  0.1077
20812SOL    HW167121   4.090   2.791   9.753 -0.8383  0.3191 -1.5324
20812SOL    HW267122   3.996   2.894   9.814 -0.4407 -0.2785  0.1501
20813SOL     OW67123   9.879   1.828  10.531 -0.6066 -0.1560  0.1649
20813SOL    HW167124   9.789   1.796  10.537 -0.4447 -0.9171 -1.1487
20813SOL    HW267125   9.880   1.906  10.588 -1.8012 -0.7236  1.0205
20814SOL     OW67126   8.748  10.076   9.668 -0.4579 -0.4324  0.2974
20814SOL    HW167127   8.795   9.992   9.666 -1.1302 -0.8158  0.4108
20814SOL    HW267128   8.679  10.063   9.732 -0.1455  0.4445  0.8278
20815SOL     OW67129  11.124   3.464  10.058 -0.1747  0.0995 -0.2426
20815SOL    HW167130  11.167   3.495  10.138  0.1057 -0.5262 -0.1473
20815SOL    HW267131  11.189   3.478   9.989  0.8830 -2.3732  0.1492
20816SOL     OW67132   0.411   7.175   0.921  0.8321 -0.4030  0.4164
20816SOL    HW167133   0.432   7.091   0.881  1.3497 -0.6096  1.0991
20816SOL    HW267134   0.317   7.186   0.908  1.0191 -0.3755 -1.0047
20817SOL     OW67135  11.845   5.264   9.687  0.3205 -0.0304  0.6095
20817SOL    HW167136  11.814   5.274   9.597  0.8985 -1.8437  0.1626
20817SOL    HW267137  11.928   5.311   9.689  1.0714 -1.2635 -0.2764
20818SOL     OW67138  10.369   8.943   4.086 -0.2621  0.4933  1.0230
20818SOL    HW167139  10.413   8.994   4.017  1.2263 -0.5266  1.1821
20818SOL    HW267140  10.349   9.008   4.154  1.0219  0.9952  0.9494
20819SOL     OW67141  10.791   8.843  11.527  0.0658 -0.0913 -0.3540
20819SOL    HW167142  10.749   8.823  11.610 -2.8977  1.0976 -1.4368
20819SOL    HW267143  10.881   8.866  11.550 -0.4542 -0.5026  2.3953
20820SOL     OW67144   1.417   8.553   5.893  0.2590  0.5157  0.2924
20820SOL    HW167145   1.359   8.550   5.969  0.6224  0.1446  0.5647
20820SOL    HW267146   1.505   8.556   5.931  0.4134  1.2544 -0.1089
20821SOL     OW67147   9.397   6.225   4.113 -0.7717  0.6402 -0.8161
20821SOL    HW167148   9.303   6.232   4.126 -0.8342 -0.2235 -0.7651
20821SOL    HW267149   9.408   6.152   4.051 -0.0409 -0.7689  0.8832
20822SOL     OW67150  10.654   8.671   2.591 -0.2192  0.2857  0.2160
20822SOL    HW167151  10.657   8.761   2.625  0.6954  0.4949 -0.3680
20822SOL    HW267152  10.746   8.645   2.585 -0.4966 -1.3811  2.1250
20823SOL     OW67153   4.133   8.828   9.235 -0.0322  0.3769 -0.1594
20823SOL    HW167154   4.107   8.882   9.160  0.0047 -0.4180 -0.7534
20823SOL    HW267155   4.229   8.825   9.231 -0.0983 -1.4837 -1.4092
20824SOL     OW67156   3.085   5.444   5.018  0.0628 -0.2803  0.5551
20824SOL    HW167157   3.081   5.379   4.948 -0.0969  1.5977 -1.2652
20824SOL    HW267158   3.111   5.525   4.975  0.0566  0.9465  2.7042
20825SOL     OW67159   8.274   1.872  11.495 -0.4928  0.1826  0.4319
20825SOL    HW167160   8.325   1.791  11.495  1.9699  1.5333  3.2229
20825SOL    HW267161   8.236   1.876  11.583 -1.4849  1.5601 -0.0204
20826SOL     OW67162   4.868   7.581   3.411  0.2340 -0.3396 -0.1672
20826SOL    HW167163   4.806   7.612   3.346  0.8116 -0.8038 -0.9626
20826SOL    HW267164   4.895   7.659   3.459  0.8764  0.2380 -1.4364
20827SOL     OW67165   1.626   3.262   7.278 -0.3151 -0.4794 -0.4384
20827SOL    HW167166   1.583   3.319   7.215 -1.5327 -1.1760 -0.2769
20827SOL    HW267167   1.646   3.182   7.229  1.0585 -0.0821 -0.5757
20828SOL     OW67168   5.680   7.210   1.214 -0.5651 -0.0144 -0.2251
20828SOL    HW167169   5.627   7.205   1.293 -1.5410 -0.3841 -0.8697
20828SOL    HW267170   5.622   7.176   1.145  0.4101 -0.1189 -1.0132
20829SOL     OW67171   7.513   1.970   9.194  0.0918  0.2477  0.2979
20829SOL    HW167172   7.556   1.955   9.110  0.3443 -2.0991  0.7678
20829SOL    HW267173   7.421   1.950   9.177  0.1841 -0.4814  0.6043
20830SOL     OW67174   6.097   6.595   7.046 -0.3812 -0.4044 -0.3308
20830SOL    HW167175   6.187   6.561   7.043 -0.3095 -0.2370 -0.0951
20830SOL    HW267176   6.051   6.533   7.103 -0.3671 -0.3802 -0.2928
20831SOL     OW67177   1.095   4.094   0.855 -0.5723 -0.3079 -0.2542
20831SOL    HW167178   1.061   4.055   0.936 -0.1302 -1.1818 -0.4775
20831SOL    HW267179   1.180   4.052   0.843  0.3384  1.3867 -0.0324
20832SOL     OW67180   4.107  11.033   3.483 -0.0339  0.6385 -0.2535
20832SOL    HW167181   4.104  11.084   3.564 -1.3179 -2.8739  2.1507
20832SOL    HW267182   4.194  11.050   3.448  1.3856  0.8363  2.9683
20833SOL     OW67183   3.428   3.251   6.529 -0.9909  0.3176  0.0857
20833SOL    HW167184   3.450   3.341   6.507 -1.1803 -0.0064 -1.5463
20833SOL    HW267185   3.469   3.198   6.460 -1.9261 -0.7357  0.3026
20834SOL     OW67186   5.296   3.553  11.652  0.1567 -0.0054  0.0420
20834SOL    HW167187   5.350   3.629  11.632  0.2818 -0.4408 -1.3342
20834SOL    HW267188   5.215   3.590  11.687  1.6958  0.6348  3.3491
20835SOL     OW67189   4.232   0.876   1.775 -0.1600 -0.2003  0.3009
20835SOL    HW167190   4.312   0.899   1.822  0.4727 -1.3690 -0.1602
20835SOL    HW267191   4.213   0.953   1.722  1.5045 -0.4150 -0.6817
20836SOL     OW67192   6.715   5.527   7.901  1.1384  0.2261 -0.0972
20836SOL    HW167193   6.633   5.576   7.904  0.5311 -0.7936  1.8811
20836SOL    HW267194   6.782   5.593   7.919  0.5000  0.6661  0.7839
20837SOL     OW67195  11.886   8.960   8.949 -0.6331  0.0467  0.7764
20837SOL    HW167196  11.914   8.920   8.866  0.0513 -0.7487  1.3742
20837SOL    HW267197  11.812   9.015   8.924 -1.2974 -1.2008 -0.1864
20838SOL     OW67198  10.212   8.339   3.199 -0.4644 -0.2588 -0.5640
20838SOL    HW167199  10.174   8.418   3.237  0.3910 -0.0549 -0.1026
20838SOL    HW267200  10.230   8.363   3.108  0.5601  0.3855 -0.2218
20839SOL     OW67201   2.340   6.558   6.043 -0.0703  0.1123 -0.0334
20839SOL    HW167202   2.330   6.521   5.955 -1.2684 -0.0653  0.1717
20839SOL    HW267203   2.340   6.652   6.029  0.2704  0.0790 -0.2753
20840SOL     OW67204   5.505   6.576  11.660  0.0702  0.1481  0.8525
20840SOL    HW167205   5.504   6.668  11.635  1.0734  0.3524  1.4737
20840SOL    HW267206   5.430   6.537  11.615  0.7978  0.8327 -1.0568
20841SOL     OW67207   6.847  11.770   0.002 -0.2186  0.0802 -0.3798
20841SOL    HW167208   6.926  11.737  -0.040 -0.2915  0.9987 -1.2811
20841SOL    HW267209   6.785  11.697   0.000  0.2842 -0.3425 -0.5361
20842SOL     OW67210   9.865  11.510   3.778  0.2329 -0.3524  0.6166
20842SOL    HW167211   9.912  11.461   3.845  0.3107 -0.5466  0.4223
20842SOL    HW267212   9.934  11.543   3.720  0.0578 -1.9782 -0.5819
20843SOL     OW67213   4.773   6.335   1.910  0.1624 -0.6735 -0.5324
20843SOL    HW167214   4.715   6.308   1.839 -2.4292 -0.8133  1.4719
20843SOL    HW267215   4.797   6.425   1.888 -1.3188 -0.4048 -1.2069
20844SOL     OW67216  10.859   6.589   6.838  0.8508 -0.3279 -0.5718
20844SOL    HW167217  10.793   6.522   6.854  1.3533 -0.7219 -0.1325
20844SOL    HW267218  10.813   6.672   6.854  0.8948 -0.6450  1.3656
20845SOL     OW67219   2.873  10.428   4.774  0.0714 -0.3785 -0.1524
20845SOL    HW167220   2.882  10.372   4.697  0.5376 -0.1167 -0.2998
20845SOL    HW267221   2.810  10.495   4.748  2.6842  1.7347 -1.5937
20846SOL     OW67222   8.140   4.927   9.626 -0.1091 -0.0631  0.1587
20846SOL    HW167223   8.132   4.977   9.707 -0.4310  0.2273 -0.0457
20846SOL    HW267224   8.067   4.864   9.629 -0.7721  0.6561 -0.3843
20847SOL     OW67225   5.386   1.358  11.343 -0.5100 -0.2859  0.2071
20847SOL    HW167226   5.420   1.445  11.322 -2.0427 -0.2524 -2.6000
20847SOL    HW267227   5.449   1.297  11.305  0.5600 -0.4867  2.1656
20848SOL     OW67228   1.579   8.570  10.461  0.4363  0.0694  0.3123
20848SOL    HW167229   1.670   8.544  10.449  0.3714 -0.1578  0.3053
20848SOL    HW267230   1.539   8.558  10.375  0.6212  1.0727  0.0747
20849SOL     OW67231  10.053  11.452   9.102 -0.0087  0.2514  0.9499
20849SOL    HW167232  10.033  11.526   9.044  0.4085  1.7344  2.5892
20849SOL    HW267233   9.996  11.381   9.071  1.5570  0.2890 -2.4398
20850SOL     OW67234   2.482   1.310   2.452 -0.6039 -0.6584  0.1326
20850SOL    HW167235   2.516   1.369   2.385 -1.3998  1.0424  1.1562
20850SOL    HW267236   2.446   1.236   2.404  0.7870 -0.5066 -1.1741
20851SOL     OW67237   4.781   7.622  10.568 -0.2336  0.4067  0.0044
20851SOL    HW167238   4.821   7.693  10.619  1.8659  1.7984 -3.2166
20851SOL    HW267239   4.855   7.575  10.530 -1.6356 -0.5697 -1.6705
20852SOL     OW67240  10.956   9.619   9.937 -0.3392  0.3827  0.3046
20852SOL    HW167241  11.002   9.654  10.014 -0.8981  0.4519  0.6084
20852SOL    HW267242  11.023   9.616   9.869 -0.2259  1.8652  0.3189
20853SOL     OW67243  10.829  10.250   2.953  0.0275 -0.5483 -0.2696
20853SOL    HW167244  10.879  10.329   2.930  0.6161 -1.1780 -1.2299
20853SOL    HW267245  10.864  10.224   3.038  0.1553 -0.0285 -0.1594
20854SOL     OW67246   8.130   9.144   0.371  0.4033  0.0544 -0.2803
20854SOL    HW167247   8.138   9.059   0.414 -0.8842 -0.8555 -1.7182
20854SOL    HW267248   8.171   9.132   0.285 -1.7229  0.1400 -1.3827
20855SOL     OW67249   2.118   8.527   6.790  0.0430  0.1572  0.2186
20855SOL    HW167250   2.133   8.523   6.884  1.6814 -2.6114 -0.0541
20855SOL    HW267251   2.160   8.609   6.762 -0.0664  0.7761  1.8061
20856SOL     OW67252   0.620  10.528   4.964 -0.0526 -0.4963 -0.3232
20856SOL    HW167253   0.661  10.509   5.049  0.8154  1.1553 -0.3304
20856SOL    HW267254   0.526  10.530   4.982  0.1305 -0.0969  0.6181
20857SOL     OW67255   2.334   1.961   4.265 -0.5066 -0.2429 -0.5416
20857SOL    HW167256   2.318   2.052   4.241  1.0318 -0.0109 -0.8453
20857SOL    HW267257   2.357   1.965   4.358 -0.3729 -0.3068 -0.5717
20858SOL     OW67258   1.506  10.932   2.787 -0.1685  0.5139 -0.1852
20858SOL    HW167259   1.488  10.948   2.694 -0.0744  0.6552 -0.1792
20858SOL    HW267260   1.505  10.837   2.795 -1.2431  0.5166 -0.1165
20859SOL     OW67261   8.733  10.907   8.714 -0.5024  0.1744 -0.1964
20859SOL    HW167262   8.801  10.888   8.649  1.3125 -0.5314  1.7528
20859SOL    HW267263   8.651  10.891   8.669  0.6344  0.4030 -2.4909
20860SOL     OW67264   1.472   5.353   4.692 -0.2054 -0.3847 -0.2657
20860SOL    HW167265   1.401   5.308   4.644  0.6492 -1.7445 -0.3160
20860SOL    HW267266   1.541   5.363   4.627  0.6664 -1.5366  0.4511
20861SOL     OW67267   4.557  11.787   9.444 -0.0440  0.0279 -0.4054
20861SOL    HW167268   4.512  11.724   9.387  2.5139 -0.6788 -1.7694
20861SOL    HW267269   4.593  11.734   9.515  1.7620 -0.0696 -1.3361
20862SOL     OW67270   6.328   2.992   0.664 -0.2325 -0.4526 -0.0035
20862SOL    HW167271   6.308   3.022   0.753 -0.0367 -0.0863 -0.0798
20862SOL    HW267272   6.300   2.901   0.663 -1.0518 -0.2194  0.1739
20863SOL     OW67273   5.219   3.969  10.994 -0.5000  0.3898  0.0816
20863SOL    HW167274   5.244   3.887  10.950  0.8945  0.6226  0.3835
20863SOL    HW267275   5.300   4.021  10.995 -1.1755  1.4636  0.5749
20864SOL     OW67276  11.970   2.065  11.246  0.5473  0.0023  0.3835
20864SOL    HW167277  11.987   1.979  11.284 -0.3910 -0.1482  0.4831
20864SOL    HW267278  12.003   2.127  11.312  1.8453 -0.2669  0.0150
20865SOL     OW67279   8.974   6.820   0.030  0.3391 -0.1589  0.3430
20865SOL    HW167280   9.063   6.785   0.028 -0.2453 -1.7175  0.3339
20865SOL    HW267281   8.957   6.836   0.123  0.8283  0.7731  0.2932
20866SOL     OW67282   7.735  11.854   0.802  0.4862 -0.1606  0.8253
20866SOL    HW167283   7.646  11.835   0.832  0.4412 -0.3001  0.5994
20866SOL    HW267284   7.775  11.902   0.876  0.0557  0.3814  0.7148
20867SOL     OW67285   7.948   3.941   7.639  0.0966  0.9084  0.1148
20867SOL    HW167286   7.968   4.018   7.585  1.6272 -0.1241 -0.8622
20867SOL    HW267287   7.870   3.903   7.599 -0.6685  1.9214  0.6030
20868SOL     OW67288   5.089   9.820   3.924  0.6230  0.1874 -0.1795
20868SOL    HW167289   5.001   9.801   3.957  0.5175  1.8833  0.6130
20868SOL    HW267290   5.145   9.818   4.001  1.3335 -0.9466 -0.6881
20869SOL     OW67291   5.369  11.436   5.296  0.2297 -0.1929  0.2221
20869SOL    HW167292   5.453  11.476   5.316  0.4453  0.0371 -1.0524
20869SOL    HW267293   5.321  11.437   5.379  1.0174  0.7898  0.6814
20870SOL     OW67294   4.697   9.432   9.125 -0.1465 -0.0127  0.2196
20870SOL    HW167295   4.677   9.432   9.219 -0.2374  0.5272  0.2062
20870SOL    HW267296   4.640   9.365   9.088 -0.7731  0.4012  0.4212
20871SOL     OW67297   9.414   2.261  10.634  0.1705  0.0078  0.5106
20871SOL    HW167298   9.494   2.274  10.686  1.1052 -1.6735 -0.4010
20871SOL    HW267299   9.383   2.349  10.616  1.4990  0.6978  1.3938
20872SOL     OW67300   2.110   1.794   4.188  0.0708  0.3892  0.0049
20872SOL    HW167301   2.199   1.822   4.204 -0.0370  1.1685 -0.6804
20872SOL    HW267302   2.090   1.826   4.099  0.2653 -2.6654 -1.2528
20873SOL     OW67303   1.068   5.971   3.992  0.1242  0.6691 -0.2323
20873SOL    HW167304   1.029   5.994   3.908 -2.5113 -2.3906 -0.0500
20873SOL    HW267305   1.153   5.932   3.969 -1.4299 -2.0453 -1.8115
20874SOL     OW67306   2.046  11.748   5.067 -0.2361 -0.7164 -0.2723
20874SOL    HW167307   2.066  11.803   4.992  0.4750  1.2715  1.2997
20874SOL    HW267308   2.130  11.737   5.112 -0.8240 -1.0705  0.7668
20875SOL     OW67309   3.391   4.497   6.202 -0.5180 -0.6132 -0.3625
20875SOL    HW167310   3.306   4.506   6.160 -0.5495 -0.0119 -0.1796
20875SOL    HW267311   3.393   4.406   6.232 -1.1602 -0.5892 -0.2288
20876SOL     OW67312   3.058   7.308   0.011  0.9330 -0.1312  0.2621
20876SOL    HW167313   3.034   7.223  -0.026  1.2661  0.0455 -0.3660
20876SOL    HW267314   2.974   7.353   0.023  0.8358 -0.0999 -0.5004
20877SOL     OW67315   9.029   9.264   5.215  0.3445  0.5683  0.4948
20877SOL    HW167316   9.066   9.331   5.272 -0.6701  0.7889  0.9108
20877SOL    HW267317   9.086   9.188   5.227  0.5936  0.8620  1.2113
20878SOL     OW67318   3.629   4.274   3.121 -0.0725 -0.2226  0.0269
20878SOL    HW167319   3.709   4.222   3.111  1.7716  2.2140  1.0861
20878SOL    HW267320   3.634   4.308   3.211 -2.5495 -0.3337  0.2575
20879SOL     OW67321   8.059   7.856   8.545  0.0136  0.8099  0.2151
20879SOL    HW167322   8.151   7.835   8.526  1.1067  2.9109  2.6767
20879SOL    HW267323   8.045   7.824   8.634 -1.6878  0.4967 -0.1382
20880SOL     OW67324   6.760   5.365   6.453 -0.0954 -0.1765 -0.3845
20880SOL    HW167325   6.746   5.456   6.428  1.4036 -0.6971 -3.5791
20880SOL    HW267326   6.702   5.315   6.396  1.2782 -1.3439 -0.8238
20881SOL     OW67327   0.424  10.462   2.656 -0.0328 -0.2218 -0.2915
20881SOL    HW167328   0.454  10.385   2.609 -1.4854 -0.3248 -1.1191
20881SOL    HW267329   0.378  10.514   2.590  1.7269  1.8607  0.0119
20882SOL     OW67330   0.567   8.446   2.026  0.1723  0.3271  0.0435
20882SOL    HW167331   0.475   8.463   2.047 -0.4865  0.3298 -2.4748
20882SOL    HW267332   0.606   8.532   2.013  0.7200  0.3521  1.6281
20883SOL     OW67333   7.466  11.194   3.983 -0.3734 -0.1716 -0.0604
20883SOL    HW167334   7.460  11.118   4.040  0.4098  0.4849  0.9361
20883SOL    HW267335   7.537  11.246   4.020  0.1379  0.3025 -1.6275
20884SOL     OW67336   5.381   3.848   5.372  0.4239  0.1798  0.0231
20884SOL    HW167337   5.399   3.780   5.436  0.1924 -0.4452 -0.5663
20884SOL    HW267338   5.385   3.804   5.287  2.8221  1.3847 -0.5812
20885SOL     OW67339   7.001   5.757  11.633  0.2298  0.0001  0.4687
20885SOL    HW167340   6.935   5.726  11.572  1.2618  2.5863 -2.1758
20885SOL    HW267341   6.961   5.833  11.675  1.3335  1.3903 -0.9183
20886SOL     OW67342   9.337   3.142   3.651 -0.3157 -0.1004 -0.3020
20886SOL    HW167343   9.263   3.085   3.674 -0.0543  0.0678  1.0063
20886SOL    HW267344   9.409   3.081   3.634  0.2248 -0.2093  2.0043
20887SOL     OW67345   8.033   9.333   1.047 -0.0162  0.5326 -0.2029
20887SOL    HW167346   7.999   9.366   0.964  0.2927 -0.0799 -0.5847
20887SOL    HW267347   7.956   9.319   1.102 -0.4621 -1.3170 -1.2262
20888SOL     OW67348   2.256   9.581   3.048  0.6227  0.1909  0.4244
20888SOL    HW167349   2.209   9.638   2.988  1.6204 -0.5499 -1.1331
20888SOL    HW267350   2.192   9.515   3.074  0.2820  0.2861 -0.1704
20889SOL     OW67351   5.671   5.507  10.598  0.0136 -0.6910 -0.3764
20889SOL    HW167352   5.597   5.551  10.555  1.0937 -0.7160 -2.3752
20889SOL    HW267353   5.634   5.427  10.634 -1.0924 -0.3077 -0.6305
20890SOL     OW67354   3.102   3.999   9.040 -0.0840 -0.0523 -0.4361
20890SOL    HW167355   3.161   3.948   9.095 -1.4452 -0.0146  1.1566
20890SOL    HW267356   3.156   4.069   9.004  0.8360  0.0669  1.0857
20891SOL     OW67357   5.369   4.642   4.765 -0.4687 -0.0855 -0.4048
20891SOL    HW167358   5.458   4.678   4.772 -1.0477  1.1721  0.6989
20891SOL    HW267359   5.382   4.557   4.721  1.4248 -0.5190  0.8646
20892SOL     OW67360   5.626   1.712   5.944 -0.1378  0.1024  0.6476
20892SOL    HW167361   5.616   1.794   5.895 -0.5738  0.0353  0.6147
20892SOL    HW267362   5.709   1.675   5.913  0.1757  0.6488  0.8415
20893SOL     OW67363  11.054  11.083   4.374  0.4217 -0.0910 -0.2803
20893SOL    HW167364  11.036  11.020   4.444  1.1428 -0.1502 -0.1469
20893SOL    HW267365  11.017  11.165   4.405 -2.3535 -0.8248 -1.2932
20894SOL     OW67366   5.221   7.870   3.300 -0.2210 -0.0947 -0.5318
20894SOL    HW167367   5.135   7.882   3.260  0.2339  1.3367 -1.1665
20894SOL    HW267368   5.259   7.958   3.301  0.1086 -0.1733  2.3938
20895SOL     OW67369   3.320   9.712   7.761  0.3353 -0.1534  0.0353
20895SOL    HW167370   3.348   9.772   7.693  1.8839  0.4016  1.1107
20895SOL    HW267371   3.389   9.645   7.764  0.1809 -0.2883  0.8951
20896SOL     OW67372   3.801  10.762   8.525 -0.3571  0.7215 -0.4878
20896SOL    HW167373   3.809  10.776   8.431  1.6090 -0.0658 -0.4803
20896SOL    HW267374   3.784  10.668   8.535 -1.1366  0.8971 -0.0673
20897SOL     OW67375   4.891  10.141   7.257 -0.3671 -0.1076 -0.1339
20897SOL    HW167376   4.829  10.205   7.290 -0.6085 -0.5517  0.2883
20897SOL    HW267377   4.864  10.058   7.297  2.0940  0.1256  2.2696
20898SOL     OW67378   7.183   7.844   7.094 -0.3947  0.0754 -0.1119
20898SOL    HW167379   7.272   7.861   7.125  0.1692 -0.3066 -1.4454
20898SOL    HW267380   7.170   7.751   7.110 -1.0139  0.3658  1.1626
20899SOL     OW67381   8.709   2.457   9.529  0.7749 -0.0368 -0.0546
20899SOL    HW167382   8.741   2.370   9.506  0.9998  0.0709 -0.1515
20899SOL    HW267383   8.675   2.493   9.447  3.2448  1.0697 -0.6686
20900SOL     OW67384   8.313   0.126   0.124  0.0920  0.0696 -0.1384
20900SOL    HW167385   8.237   0.134   0.066  0.5012  1.2836 -0.5367
20900SOL    HW267386   8.388   0.122   0.065  0.4895  0.9548  0.2796
20901SOL     OW67387   9.959   7.614   2.242  0.4961  0.1044 -0.0120
20901SOL    HW167388  10.003   7.684   2.193  0.5724 -1.4600 -2.3338
20901SOL    HW267389   9.868   7.643   2.247  0.0543 -0.4499 -2.8377
20902SOL     OW67390  10.969   5.119   7.151  0.0548  0.3506 -0.3685
20902SOL    HW167391  10.956   5.119   7.056  0.9782  1.2791 -0.5110
20902SOL    HW267392  11.030   5.046   7.166  0.7249  0.8532 -0.6188
20903SOL     OW67393   4.791   5.147   7.792 -0.0392 -0.5247  0.0484
20903SOL    HW167394   4.845   5.166   7.869 -0.2485 -0.7420  0.2501
20903SOL    HW267395   4.852   5.149   7.719  0.0507  0.3155  0.1408
20904SOL     OW67396   0.456   5.078   6.392  0.1638 -0.0041  0.1955
20904SOL    HW167397   0.412   5.001   6.358 -0.7015  1.2209 -1.6593
20904SOL    HW267398   0.441   5.075   6.486 -1.4098 -1.1691 -0.0466
20905SOL     OW67399   3.236   9.925   0.913  0.1368  0.0008  0.5449
20905SOL    HW167400   3.158   9.976   0.934 -0.2974 -1.5366  3.1629
20905SOL    HW267401   3.214   9.880   0.831 -1.4965  0.0772  0.8999
20906SOL     OW67402  10.941   6.685   0.915  0.2513 -0.0126  0.3621
20906SOL    HW167403  10.965   6.744   0.843  1.9926  1.2811  1.9219
20906SOL    HW267404  10.899   6.742   0.979 -0.7205 -1.0444  0.6760
20907SOL     OW67405  11.491  11.782   3.460 -0.1394 -0.1174  0.1822
20907SOL    HW167406  11.547  11.715   3.500  1.0155  0.5963 -0.1806
20907SOL    HW267407  11.504  11.769   3.365 -0.7580 -0.0826  0.0942
20908SOL     OW67408   7.156   5.537   2.828  0.0202 -0.0337 -0.3107
20908SOL    HW167409   7.157   5.444   2.850  0.2450  0.5045  2.2361
20908SOL    HW267410   7.248   5.562   2.824 -0.0453  0.1520 -0.6737
20909SOL     OW67411   7.014   3.162   8.918  0.0006 -0.2488  0.1938
20909SOL    HW167412   7.058   3.079   8.906  0.6174 -0.1324  1.4246
20909SOL    HW267413   6.921   3.140   8.923  0.0278 -0.6666 -0.9850
20910SOL     OW67414   4.239   0.761   7.485 -0.2876  0.1185 -0.0493
20910SOL    HW167415   4.166   0.755   7.423  0.7039 -1.9090 -1.1300
20910SOL    HW267416   4.211   0.707   7.559  0.0138 -0.5371 -0.3997
20911SOL     OW67417  10.410   4.733   0.390 -0.3830 -0.2859  0.5270
20911SOL    HW167418  10.395   4.682   0.310  0.0012  0.8936 -0.3374
20911SOL    HW267419  10.487   4.694   0.430 -1.0600 -1.4091  0.7736
20912SOL     OW67420   0.130   8.339   3.841  0.2696 -0.3219  0.0637
20912SOL    HW167421   0.118   8.337   3.936  0.7177  0.2987  0.1412
20912SOL    HW267422   0.051   8.381   3.808  0.5966  0.4720  0.2636
20913SOL     OW67423   2.333  11.762   4.106 -0.0368 -0.2534 -0.0751
20913SOL    HW167424   2.419  11.789   4.074  0.0786 -0.4798  0.0419
20913SOL    HW267425   2.295  11.841   4.143  0.5342 -0.3683  0.7894
20914SOL     OW67426  10.420   1.228  10.284  0.5793  0.2672 -0.2021
20914SOL    HW167427  10.339   1.177  10.283  0.8364 -0.2740 -3.2450
20914SOL    HW267428  10.395   1.312  10.323 -0.4011 -1.2143  2.6986
20915SOL     OW67429   2.994   1.265   8.378  0.1601  0.7872  0.2056
20915SOL    HW167430   2.939   1.206   8.326  1.8658 -0.7139  0.0008
20915SOL    HW267431   3.062   1.293   8.317  0.7673  0.9841  0.9581
20916SOL     OW67432   7.505   0.102   5.329  0.0304 -0.2951 -0.0456
20916SOL    HW167433   7.579   0.053   5.364 -0.9744 -0.9478  1.2835
20916SOL    HW267434   7.477   0.158   5.401  2.5629  4.1888 -2.1424
20917SOL     OW67435  11.730  11.508   2.717 -0.4451 -0.3339 -0.1190
20917SOL    HW167436  11.644  11.477   2.688 -0.5559 -0.5250  0.4123
20917SOL    HW267437  11.752  11.577   2.655 -0.5484 -0.9388 -0.8434
20918SOL     OW67438   5.374   5.277  11.691  0.2766 -0.1097  0.0666
20918SOL    HW167439   5.309   5.287  11.761 -0.0426  2.9516 -0.5537
20918SOL    HW267440   5.332   5.314  11.614  2.0135  0.0730 -0.8430
20919SOL     OW67441   2.222  10.931   8.911 -0.7779  0.0252  0.6687
20919SOL    HW167442   2.218  11.015   8.865 -0.6255 -0.1346  0.3662
20919SOL    HW267443   2.312  10.926   8.944 -0.9322  0.2127  1.1259
20920SOL     OW67444  10.936   7.855   2.894  0.2467 -0.0126 -0.0873
20920SOL    HW167445  10.888   7.783   2.852  0.0770 -0.0738  0.2128
20920SOL    HW267446  10.977   7.815   2.971  1.9644 -0.3059 -1.0953
20921SOL     OW67447   4.805   1.393   5.662 -0.1862  0.2197  0.3575
20921SOL    HW167448   4.869   1.432   5.602  0.3124 -0.8024  0.2077
20921SOL    HW267449   4.852   1.322   5.704 -1.5822 -1.3893 -0.6878
20922SOL     OW67450   5.473  10.929   2.459 -0.5907  0.2823 -0.0484
20922SOL    HW167451   5.507  10.992   2.523  3.0232 -0.8960 -0.5873
20922SOL    HW267452   5.479  10.844   2.504 -1.0076 -0.2008 -0.8900
20923SOL     OW67453   6.435   4.733   0.524 -0.0696  0.0278 -0.2651
20923SOL    HW167454   6.520   4.688   0.530 -0.6541 -0.9700  1.2632
20923SOL    HW267455   6.385   4.682   0.461  0.6808  1.0336 -1.7096
20924SOL     OW67456   0.357  11.907   3.413  0.1635 -0.1851 -0.0837
20924SOL    HW167457   0.330  11.929   3.502  1.6217  2.2649 -0.1728
20924SOL    HW267458   0.450  11.886   3.420 -0.0546 -1.5319 -0.8351
20925SOL     OW67459   1.131   7.644   0.525 -0.2251  0.2801  0.0481
20925SOL    HW167460   1.206   7.625   0.581 -0.0517 -1.1903 -0.6377
20925SOL    HW267461   1.098   7.728   0.556  0.4719 -0.0235  1.6852
20926SOL     OW67462  10.247   6.138   8.700 -0.2915  0.5007  0.4493
20926SOL    HW167463  10.327   6.099   8.664 -0.0563  0.4797  0.9865
20926SOL    HW267464  10.194   6.159   8.623  0.6339  1.4006  0.0287
20927SOL     OW67465   4.948   6.626   6.052 -0.0642  0.3356 -0.6953
20927SOL    HW167466   5.034   6.598   6.022 -0.4007  0.0420 -1.4010
20927SOL    HW267467   4.945   6.601   6.145  0.8788  1.0077 -0.4752
20928SOL     OW67468  10.272   8.797  11.533  0.4386 -0.0019  0.2256
20928SOL    HW167469  10.318   8.778  11.451  2.3173 -0.5041  1.3469
20928SOL    HW267470  10.335   8.844  11.586 -1.4519  2.2139  0.6510
20929SOL     OW67471   9.279   3.379   5.333  0.1808 -0.0581 -0.1657
20929SOL    HW167472   9.330   3.299   5.328  0.5620  0.2359 -1.4187
20929SOL    HW267473   9.338   3.444   5.369 -0.7134 -0.7376  2.8328
20930SOL     OW67474   9.125   3.341   6.172  0.3197 -0.0359  0.0792
20930SOL    HW167475   9.043   3.293   6.179  0.3013  0.1515  1.2534
20930SOL    HW267476   9.188   3.275   6.140 -0.4113 -0.0040 -1.5348
20931SOL     OW67477   8.526   5.229   1.050 -0.0196 -0.1013  0.1450
20931SOL    HW167478   8.524   5.324   1.053  0.7771 -0.0945  1.9628
20931SOL    HW267479   8.435   5.202   1.067 -0.1496  0.3267  0.1332
20932SOL     OW67480   2.329   7.790   5.027 -0.1506  0.7132  0.4374
20932SOL    HW167481   2.264   7.785   4.957  0.2204 -1.4133  0.1681
20932SOL    HW267482   2.401   7.840   4.990 -0.3476  0.4093 -0.3872
20933SOL     OW67483   0.967   9.875   5.495  0.3468  0.6706 -0.3763
20933SOL    HW167484   0.906   9.879   5.569 -0.2669  0.2792 -0.8507
20933SOL    HW267485   0.950   9.955   5.445 -0.2831  0.2342 -0.8843
20934SOL     OW67486   1.019   9.020   7.071  0.2966 -0.1483  0.2264
20934SOL    HW167487   1.057   8.937   7.043 -1.1410 -1.6130  2.2175
20934SOL    HW267488   1.084   9.058   7.131  0.8435  0.0361 -0.4802
20935SOL     OW67489  11.336   3.025   7.456  0.7991 -0.6237 -0.6346
20935SOL    HW167490  11.368   2.949   7.505 -0.7266 -0.2439  1.0396
20935SOL    HW267491  11.315   2.990   7.369  1.0886 -1.9018 -0.2070
20936SOL     OW67492   5.885   2.044   8.101  0.0808  0.1768  0.1595
20936SOL    HW167493   5.964   2.015   8.147  0.3849  0.3990 -0.2135
20936SOL    HW267494   5.836   2.093   8.166 -0.0157 -0.4305  0.5507
20937SOL     OW67495   2.107   7.300   9.729  0.0241  0.0997  0.3838
20937SOL    HW167496   2.090   7.391   9.705 -1.4393 -0.5645 -1.3566
20937SOL    HW267497   2.034   7.277   9.787 -0.6906 -0.4868 -0.7181
20938SOL     OW67498   4.859  11.268   0.712 -0.4879  0.0058 -0.2939
20938SOL    HW167499   4.888  11.213   0.786  0.5523 -0.6043 -1.1219
20938SOL    HW267500   4.764  11.273   0.722 -0.7456 -2.6815 -0.6360
20939SOL     OW67501   2.625   4.290   0.477 -0.3596  0.0803  0.2234
20939SOL    HW167502   2.566   4.360   0.504 -0.5062  1.3655 -2.9901
20939SOL    HW267503   2.710   4.316   0.512 -0.9613  0.2664  1.5810
20940SOL     OW67504   2.719   2.752   0.697  0.4017  0.2137 -0.1575
20940SOL    HW167505   2.660   2.761   0.772 -0.7203 -1.8211 -0.7370
20940SOL    HW267506   2.663   2.759   0.620  1.1777  0.0028 -0.7546
20941SOL     OW67507   1.551   6.278   1.272  0.5899 -0.1813 -0.0983
20941SOL    HW167508   1.632   6.279   1.221  0.0646 -1.0867 -0.9811
20941SOL    HW267509   1.563   6.346   1.338  1.3857  0.8725 -1.2927
20942SOL     OW67510   7.784   9.204   0.653  0.7368 -0.0957 -0.1496
20942SOL    HW167511   7.785   9.112   0.628  0.6888 -0.7652  2.1525
20942SOL    HW267512   7.857   9.214   0.714  0.7762  1.4189 -0.3912
20943SOL     OW67513   6.741   9.049   5.922 -0.3658 -0.5620 -0.8927
20943SOL    HW167514   6.724   9.071   5.830 -0.8714  0.3599 -0.5834
20943SOL    HW267515   6.779   9.128   5.959 -1.2152 -0.5456 -0.0249
20944SOL     OW67516   0.163  11.326   6.348 -0.1960 -0.0704 -0.6273
20944SOL    HW167517   0.186  11.237   6.374 -0.0817 -0.2578 -1.3516
20944SOL    HW267518   0.241  11.378   6.369  0.0710 -0.3057 -1.0166
20945SOL     OW67519  11.602   6.206   5.314  0.4324  0.5683 -0.5152
20945SOL    HW167520  11.648   6.222   5.397  0.2512  0.9639 -0.4909
20945SOL    HW267521  11.519   6.167   5.340  0.2423  0.9819 -0.4881
20946SOL     OW67522   5.364   3.117   5.124  0.0473 -0.4550  0.4501
20946SOL    HW167523   5.331   3.087   5.208  0.7257 -0.7789  0.6118
20946SOL    HW267524   5.426   3.187   5.146 -0.3245 -0.0314  0.1717
20947SOL     OW67525   2.489  10.656   1.500  0.0252 -0.6139  0.5829
20947SOL    HW167526   2.466  10.582   1.443  1.3105  1.3734 -2.7966
20947SOL    HW267527   2.583  10.646   1.515 -0.0158 -0.2618  1.0944
20948SOL     OW67528  10.628   1.959   3.588 -0.0967 -0.7597 -0.2408
20948SOL    HW167529  10.608   2.047   3.554 -1.3570 -0.2295  1.7245
20948SOL    HW267530  10.723   1.957   3.593 -0.0197  0.2657 -0.8810
20949SOL     OW67531   4.097   5.538   1.827 -0.2120  0.1367 -0.0771
20949SOL    HW167532   4.144   5.498   1.900  2.1513 -0.8851 -2.0169
20949SOL    HW267533   4.132   5.627   1.822 -2.0712  1.0075  1.3755
20950SOL     OW67534   6.620   0.509  10.987 -0.2701  0.1475  0.6340
20950SOL    HW167535   6.555   0.439  10.987 -0.6722  0.5099 -0.4345
20950SOL    HW267536   6.623   0.538  11.079 -1.1058 -0.3358  0.8284
20951SOL     OW67537   5.850   8.397  10.563  0.0218  0.0620  0.7712
20951SOL    HW167538   5.805   8.481  10.558  2.1851  1.3019  1.1212
20951SOL    HW267539   5.781   8.332  10.548 -1.5855  1.8991 -0.2427
20952SOL     OW67540   2.158   3.400   0.222  0.5816 -0.4508 -0.5116
20952SOL    HW167541   2.152   3.305   0.232  2.8358 -0.4546  1.5993
20952SOL    HW267542   2.222   3.413   0.152 -0.0713 -0.4560 -1.1216
20953SOL     OW67543   5.628   2.056   5.622  0.0651 -0.3856  0.5023
20953SOL    HW167544   5.593   2.044   5.711 -1.2179  0.0581  0.0662
20953SOL    HW267545   5.551   2.071   5.567  0.8884 -0.1017 -0.6064
20954SOL     OW67546   5.238   2.793   0.482  0.2411  0.2367  0.0306
20954SOL    HW167547   5.333   2.794   0.478  0.5990 -3.8690  2.0659
20954SOL    HW267548   5.217   2.806   0.574 -1.1120  0.1469 -0.2369
20955SOL     OW67549   4.937   9.580   7.744  0.3524  0.0794 -0.0565
20955SOL    HW167550   5.027   9.613   7.739 -0.1849  1.9771  1.4497
20955SOL    HW267551   4.929   9.519   7.670  2.7478  0.1329 -0.4254
20956SOL     OW67552  11.939   0.019   1.061  0.0798  0.4220  0.2165
20956SOL    HW167553  11.867   0.075   1.032  0.4442 -0.0125 -1.6946
20956SOL    HW267554  11.900  -0.038   1.127 -1.0499  0.9472  0.0309
20957SOL     OW67555  10.337   6.741   5.873 -0.0384 -0.5702  0.2928
20957SOL    HW167556  10.371   6.668   5.925  0.0078 -0.0373  1.0236
20957SOL    HW267557  10.389   6.816   5.901 -0.2335 -0.2107 -0.2958
20958SOL     OW67558   3.720   3.854  11.452 -0.2781 -0.3488 -0.1090
20958SOL    HW167559   3.761   3.783  11.501 -1.6116 -1.0830 -0.0064
20958SOL    HW267560   3.725   3.930  11.510 -1.6005 -1.1425  1.1051
20959SOL     OW67561   0.873   2.531   0.262 -0.1234 -0.1546 -0.2701
20959SOL    HW167562   0.800   2.483   0.223 -0.4274  1.4212 -1.7680
20959SOL    HW267563   0.940   2.465   0.278 -2.4231 -2.0035  2.8346
20960SOL     OW67564  11.051   6.291   9.194 -0.1359 -0.2153  0.0491
20960SOL    HW167565  11.001   6.316   9.116 -0.2001  1.1570  0.5106
20960SOL    HW267566  11.121   6.236   9.160 -0.4211  0.0076 -0.9309
20961SOL     OW67567   7.444   4.008  11.896  0.8620 -0.2676  0.2604
20961SOL    HW167568   7.396   4.050  11.967  2.2266  0.3930  0.8342
20961SOL    HW267569   7.400   3.924  11.884  1.1769 -0.8528  2.6040
20962SOL     OW67570   2.104   6.007   6.707 -0.0530 -0.5061 -0.2356
20962SOL    HW167571   2.096   5.912   6.697  1.4548 -0.6467 -0.3477
20962SOL    HW267572   2.158   6.034   6.633  0.2434  0.3163  0.2649
20963SOL     OW67573   5.085   4.238   0.423 -0.0387  0.2856 -0.6890
20963SOL    HW167574   5.063   4.241   0.330 -0.7010  0.3675 -0.5398
20963SOL    HW267575   5.168   4.284   0.429  0.1932 -0.0414 -1.2879
20964SOL     OW67576   3.912   5.017   9.651 -0.0360 -0.3115 -0.3607
20964SOL    HW167577   3.975   5.084   9.622 -0.7836  0.8527  0.5846
20964SOL    HW267578   3.836   5.030   9.594 -0.8172  0.7833  0.8840
20965SOL     OW67579   5.584   9.240   7.203  0.0073 -0.2774 -0.1973
20965SOL    HW167580   5.530   9.162   7.192 -0.9765  0.4761 -0.8161
20965SOL    HW267581   5.562   9.273   7.290  1.4492 -1.4398  0.6425
20966SOL     OW67582   8.673   6.647   1.067 -0.0098  0.1993  0.0827
20966SOL    HW167583   8.647   6.719   1.009 -0.4496  0.3110  0.4077
20966SOL    HW267584   8.616   6.575   1.042 -0.3528  0.3143  0.5144
20967SOL     OW67585   6.492   9.604  11.130  0.1348  0.2521  0.4633
20967SOL    HW167586   6.430   9.534  11.152 -0.8645  0.8204 -0.4207
20967SOL    HW267587   6.458   9.681  11.177  1.0213  0.2400  1.1446
20968SOL     OW67588  11.402  10.884  11.571  0.0093 -0.3944 -0.0783
20968SOL    HW167589  11.321  10.931  11.589  0.5453  0.0968  1.1750
20968SOL    HW267590  11.392  10.851  11.482 -0.8123  1.2021 -0.6147
20969SOL     OW67591   4.371   6.869   0.708  0.4442  0.5508  0.0446
20969SOL    HW167592   4.460   6.890   0.680  0.1653  1.0089 -0.5005
20969SOL    HW267593   4.319   6.869   0.627  0.2468 -1.2979  0.1366
20970SOL     OW67594   4.219   0.610   2.461  0.4785  0.2892  0.5752
20970SOL    HW167595   4.174   0.559   2.394  0.5872 -0.6568  1.2063
20970SOL    HW267596   4.216   0.700   2.428  0.5784 -0.1600 -0.7140
20971SOL     OW67597   7.395  11.042   0.873  0.1537  0.5355 -0.3398
20971SOL    HW167598   7.322  11.011   0.820  0.1728 -0.2255  0.0687
20971SOL    HW267599   7.465  10.979   0.858  0.1953  0.3711  0.4960
20972SOL     OW67600   0.217  11.479  10.795  0.3200 -0.9157  0.1146
20972SOL    HW167601   0.239  11.560  10.841  1.2300  0.4032 -2.4513
20972SOL    HW267602   0.294  11.423  10.806 -0.2146 -1.4152  1.6831
20973SOL     OW67603  11.412   9.777   9.423  0.1042 -0.4134 -0.2698
20973SOL    HW167604  11.471   9.778   9.348  0.3564 -0.1653 -0.0635
20973SOL    HW267605  11.395   9.869   9.443  2.0618 -0.3903  1.5875
20974SOL     OW67606   8.802   2.233   9.405  0.4756  0.1913 -0.4974
20974SOL    HW167607   8.779   2.142   9.387 -1.5215  0.5922 -0.1327
20974SOL    HW267608   8.870   2.227   9.473 -0.5353 -0.9961  0.4601
20975SOL     OW67609   9.818   5.873   3.688  0.4120 -0.2580 -0.7015
20975SOL    HW167610   9.790   5.941   3.749 -1.2932 -0.7387 -0.9214
20975SOL    HW267611   9.832   5.795   3.743  3.7209  0.5038 -0.2212
20976SOL     OW67612   4.752   7.415   9.433  0.3009 -0.7955 -0.8172
20976SOL    HW167613   4.687   7.450   9.372  0.4180  0.4145 -0.2792
20976SOL    HW267614   4.701   7.390   9.510  0.5426  1.4292  0.1625
20977SOL     OW67615   4.466   6.718   0.127 -0.3266  0.0075 -0.4731
20977SOL    HW167616   4.557   6.719   0.097 -0.2367  1.6072 -0.2314
20977SOL    HW267617   4.425   6.789   0.078 -1.7049 -1.2811 -1.2657
20978SOL     OW67618   7.899   7.394  11.179 -0.2786 -0.2987  0.2488
20978SOL    HW167619   7.871   7.455  11.111 -0.0183 -0.0617  0.3516
20978SOL    HW267620   7.915   7.449  11.255 -0.1611 -0.5115  0.3789
20979SOL     OW67621   5.371   1.074   9.354 -0.2524 -0.0552 -0.3687
20979SOL    HW167622   5.324   0.998   9.389  0.6921 -0.8749 -0.8473
20979SOL    HW267623   5.433   1.097   9.423 -0.2822  0.0423 -0.3751
20980SOL     OW67624   1.951   6.251   9.801 -0.2540  0.2727  0.1935
20980SOL    HW167625   1.962   6.215   9.713  0.8421  2.8803 -0.8253
20980SOL    HW267626   1.872   6.210   9.834 -1.3789  0.0897 -2.4814
20981SOL     OW67627   5.927   8.229  11.687 -0.1425  0.0801  0.6875
20981SOL    HW167628   5.894   8.277  11.763 -1.5812 -0.8652  0.7096
20981SOL    HW267629   5.947   8.297  11.623  1.6946  0.9382  2.0948
20982SOL     OW67630   4.238   4.552   6.489 -0.4386  0.1925  0.2071
20982SOL    HW167631   4.192   4.525   6.410 -0.4676  0.9121 -0.0331
20982SOL    HW267632   4.275   4.471   6.525 -0.6125 -0.1693 -0.4196
20983SOL     OW67633   3.016   0.683   5.583  0.2459  0.2532 -0.2539
20983SOL    HW167634   3.015   0.697   5.678  0.5307  0.9727 -0.3539
20983SOL    HW267635   2.936   0.634   5.566  0.6621 -0.7185  0.4838
20984SOL     OW67636   8.147  10.868   8.550 -1.0053  0.7545  0.1001
20984SOL    HW167637   8.117  10.864   8.459 -0.4414  2.5051 -0.2165
20984SOL    HW267638   8.170  10.960   8.563  0.7360  0.1947  1.4222
20985SOL     OW67639   6.859   6.221   0.042  0.1935  0.1892 -0.0576
20985SOL    HW167640   6.807   6.240  -0.035  0.4056  1.9923  0.2106
20985SOL    HW267641   6.795   6.200   0.110 -0.2507  2.5231  0.3099
20986SOL     OW67642   8.085  11.019   9.467  0.5459  0.7251  0.1945
20986SOL    HW167643   8.002  11.047   9.429 -0.9474 -0.7397  2.1149
20986SOL    HW267644   8.096  11.074   9.545 -0.4218 -1.2150  1.8068
20987SOL     OW67645   2.465   3.439   7.409 -0.3179  0.4086 -0.9233
20987SOL    HW167646   2.444   3.356   7.451 -1.8662  0.8813 -0.7016
20987SOL    HW267647   2.535   3.476   7.463  0.9488 -1.0809 -1.4857
20988SOL     OW67648   1.659   2.951  10.082  0.7431 -0.4374 -0.0706
20988SOL    HW167649   1.587   2.913  10.032  0.2271 -1.1205  1.1362
20988SOL    HW267650   1.700   2.876  10.126  0.5505  0.2256  1.3021
20989SOL     OW67651   7.346   7.270   8.134 -0.0357  0.1446 -0.1466
20989SOL    HW167652   7.380   7.285   8.222  0.7600 -0.4993 -0.3294
20989SOL    HW267653   7.409   7.312   8.076  0.0327 -0.3620 -0.4526
20990SOL     OW67654  11.063   4.227   7.187 -0.1485  0.0598  0.5649
20990SOL    HW167655  11.051   4.194   7.276 -1.8849 -0.5322  0.1520
20990SOL    HW267656  11.048   4.321   7.195 -1.5059 -0.1439  0.7396
20991SOL     OW67657   4.154  10.670   0.468  0.7719 -0.1780 -0.0631
20991SOL    HW167658   4.073  10.647   0.422  0.7280 -0.7068  0.2649
20991SOL    HW267659   4.169  10.597   0.528 -0.4226  1.4874  2.4447
20992SOL     OW67660   4.052   0.835   5.123 -0.0241  0.0666 -1.1382
20992SOL    HW167661   4.129   0.820   5.068 -0.5941 -0.1793 -1.8884
20992SOL    HW267662   3.978   0.812   5.067 -0.5744 -1.9615  0.3189
20993SOL     OW67663   9.576  11.099   6.884  0.0224  0.2320 -0.2528
20993SOL    HW167664   9.619  11.062   6.807 -1.7598 -0.7523 -0.8496
20993SOL    HW267665   9.628  11.069   6.958  0.6824 -0.4330 -0.9689
20994SOL     OW67666   1.222   2.401  11.911 -0.2284 -0.2123  0.0196
20994SOL    HW167667   1.261   2.410  11.998  0.1515  0.9809 -0.2562
20994SOL    HW267668   1.175   2.318  11.914  0.7070 -0.7186  1.0034
20995SOL     OW67669   5.060   6.321   6.295 -0.1357  0.4701 -0.0053
20995SOL    HW167670   5.000   6.337   6.222  0.8285  0.9925 -0.7134
20995SOL    HW267671   5.107   6.241   6.269  0.5283  0.9112 -0.1920
20996SOL     OW67672   7.278   9.990   9.485 -0.1649 -0.3475  0.2879
20996SOL    HW167673   7.334   9.961   9.413 -0.3082  0.2128 -0.0569
20996SOL    HW267674   7.236  10.070   9.452 -1.4973 -0.9745  0.3634
20997SOL     OW67675   2.748   9.885  11.875  0.4593 -0.4590  0.0629
20997SOL    HW167676   2.671   9.940  11.891  0.9952  0.5376 -0.6525
20997SOL    HW267677   2.711   9.801  11.848 -0.3910  0.0118 -0.3176
20998SOL     OW67678   9.993   8.671   9.432 -0.6555 -0.7726 -0.0181
20998SOL    HW167679   9.904   8.697   9.456 -1.1579 -2.4965  0.1261
20998SOL    HW267680  10.006   8.706   9.344 -0.6206  1.3753  0.7816
20999SOL     OW67681   8.707   6.357  11.205  0.3919 -0.2301  0.0712
20999SOL    HW167682   8.634   6.358  11.144  0.7178  0.4715 -0.3140
20999SOL    HW267683   8.677   6.302  11.277 -1.3801  1.7853  0.9785
21000SOL     OW67684  10.247   0.364   1.141 -0.0248 -0.5388  0.1181
21000SOL    HW167685  10.164   0.315   1.143  0.9854 -2.3255  1.3705
21000SOL    HW267686  10.225   0.450   1.177 -1.4062 -0.8643  0.1011
21001SOL     OW67687  11.028   7.695   9.459 -0.3119  0.1302 -0.0884
21001SOL    HW167688  11.053   7.611   9.419 -1.6442  0.2909 -1.3425
21001SOL    HW267689  10.934   7.688   9.473 -0.2882  1.0878  0.6473
21002SOL     OW67690   7.909  10.419  11.559 -0.3864 -0.1681  0.3454
21002SOL    HW167691   7.848  10.394  11.629 -0.3715  1.1001  0.8238
21002SOL    HW267692   7.857  10.473  11.500  0.3386  1.2392  0.9529
21003SOL     OW67693   8.164   0.373   0.556 -0.0378 -0.2256  0.1294
21003SOL    HW167694   8.235   0.313   0.532  1.1572  0.4809  1.7271
21003SOL    HW267695   8.194   0.414   0.637 -0.6949  2.6724 -0.9849
21004SOL     OW67696   4.483   6.118  11.593 -0.2959 -0.2135  0.3311
21004SOL    HW167697   4.546   6.109  11.522 -2.1405  0.8249 -1.5656
21004SOL    HW267698   4.407   6.067  11.565 -1.5748  1.2880  0.8531
21005SOL     OW67699   3.175   5.140  10.918 -0.0739 -0.0871  0.1100
21005SOL    HW167700   3.154   5.160  10.827 -0.3664  1.3995  0.4800
21005SOL    HW267701   3.124   5.203  10.969 -0.9244 -1.7377  1.3776
21006SOL     OW67702   3.245  11.157   5.455  0.4468 -0.0087  0.3493
21006SOL    HW167703   3.181  11.198   5.513  1.0737 -0.1589  1.1705
21006SOL    HW267704   3.192  11.105   5.394 -0.1789 -2.0694  2.4767
21007SOL     OW67705   6.086   0.477   9.536 -0.0153  0.5471 -0.0357
21007SOL    HW167706   6.084   0.492   9.630 -2.1759 -1.2873  0.2928
21007SOL    HW267707   6.007   0.426   9.518  0.7485  0.1582 -2.7265
21008SOL     OW67708   4.718   2.965   4.096 -0.3739 -0.3674 -0.5073
21008SOL    HW167709   4.632   2.938   4.126 -0.6283  0.1400 -0.7802
21008SOL    HW267710   4.708   3.057   4.071  0.1455 -0.4112 -0.9013
21009SOL     OW67711  10.017  10.250   7.377 -0.3611 -0.0496  0.2145
21009SOL    HW167712   9.932  10.266   7.418 -0.3219  0.3268  0.1510
21009SOL    HW267713  10.044  10.165   7.412 -1.1529 -0.5897 -0.4236
21010SOL     OW67714  10.501   0.436  10.624 -0.0239  0.1853  0.1566
21010SOL    HW167715  10.407   0.421  10.619  0.0427  0.1252 -1.2458
21010SOL    HW267716  10.539   0.371  10.565  0.9321 -0.0800  1.0430
21011SOL     OW67717   4.718   1.519   1.361 -0.6498  0.0360  0.5659
21011SOL    HW167718   4.644   1.469   1.395  0.6442 -1.6157  1.0898
21011SOL    HW267719   4.795   1.467   1.384  0.6538  1.4498 -0.3841
21012SOL     OW67720   8.760  11.300   4.584 -0.3280 -0.0161  0.4410
21012SOL    HW167721   8.830  11.323   4.523  2.1451 -2.6454  2.0492
21012SOL    HW267722   8.772  11.360   4.658  0.3135 -0.5023  0.7412
21013SOL     OW67723  10.966   4.955  10.825  0.8394 -0.4309 -0.4666
21013SOL    HW167724  10.959   4.972  10.919 -1.3455 -2.3063 -0.2009
21013SOL    HW267725  11.004   5.035  10.789 -0.5631  1.3429  1.7104
21014SOL     OW67726   7.727   0.765   7.890 -0.4157  0.0590 -0.0472
21014SOL    HW167727   7.758   0.741   7.803 -0.0862  1.4225 -0.3244
21014SOL    HW267728   7.764   0.852   7.906  0.2394 -0.5236  1.8175
21015SOL     OW67729  11.984  10.951  11.863  0.1660  0.1439 -0.6400
21015SOL    HW167730  11.909  10.899  11.893  1.2114 -1.1940 -0.2670
21015SOL    HW267731  12.012  10.907  11.782 -0.4155  1.5968 -1.6802
21016SOL     OW67732  10.439   0.455   6.675  0.2222  0.3551  0.0300
21016SOL    HW167733  10.532   0.463   6.654  0.1939 -1.0611 -0.8037
21016SOL    HW267734  10.399   0.422   6.594 -0.8229 -0.0631  0.6922
21017SOL     OW67735   9.073   1.202   2.654 -0.3772  0.3610  0.6183
21017SOL    HW167736   9.116   1.147   2.720  1.4031  2.1485  1.0620
21017SOL    HW267737   9.141   1.263   2.625 -1.6301  0.8492 -1.5320
21018SOL     OW67738   8.107   9.633   1.580  0.2238  0.2611 -0.0094
21018SOL    HW167739   8.078   9.583   1.504  1.3290 -1.3673  0.5922
21018SOL    HW267740   8.105   9.724   1.551 -1.8533 -0.0915 -1.1413
21019SOL     OW67741   6.212   4.638   9.783  0.0846 -0.1513 -0.0869
21019SOL    HW167742   6.160   4.703   9.737 -0.1608 -1.0901 -1.1700
21019SOL    HW267743   6.156   4.609   9.855  0.5307  1.4354  0.9530
21020SOL     OW67744   1.450   0.771   4.374  0.8306  0.1524  0.1229
21020SOL    HW167745   1.438   0.775   4.469 -0.9883  0.5481 -0.0736
21020SOL    HW267746   1.395   0.842   4.340  1.1714 -0.2023 -1.2417
21021SOL     OW67747   9.206  10.181   5.147 -0.2464  0.1594  0.2206
21021SOL    HW167748   9.278  10.181   5.210 -0.6957 -0.6903  0.7595
21021SOL    HW267749   9.134  10.225   5.194 -0.6069 -0.5476  0.3374
21022SOL     OW67750   0.961  10.556   8.508 -0.0650  0.1511 -0.4204
21022SOL    HW167751   0.926  10.479   8.462 -0.4320  1.3233 -2.2262
21022SOL    HW267752   0.978  10.525   8.597 -1.3748 -1.6816 -0.7358
21023SOL     OW67753   2.490   7.988   3.636  0.6715 -0.1290  0.1874
21023SOL    HW167754   2.489   8.039   3.555  0.4470  0.1814  0.3827
21023SOL    HW267755   2.398   7.980   3.661  0.7409 -0.1989  0.4249
21024SOL     OW67756   3.070   0.251  10.768  0.4499  0.0689 -0.2384
21024SOL    HW167757   3.014   0.290  10.701  2.6659  2.4799 -0.8543
21024SOL    HW267758   3.077   0.319  10.835 -0.1929 -1.5834  1.5944
21025SOL     OW67759   4.746   2.445   2.090 -0.0402 -0.0651 -0.3921
21025SOL    HW167760   4.691   2.454   2.168 -0.0486 -0.4225 -0.3574
21025SOL    HW267761   4.750   2.534   2.053 -0.8098 -0.0736 -0.5122
21026SOL     OW67762   2.564   0.946   2.466 -0.5397  0.2672 -0.4620
21026SOL    HW167763   2.514   0.899   2.534  1.5653 -0.8456  0.4042
21026SOL    HW267764   2.497   0.985   2.410 -2.3721 -0.9660  0.7581
21027SOL     OW67765   5.289   4.872   9.698  0.4594  0.1431  0.0924
21027SOL    HW167766   5.232   4.910   9.632  0.9407 -0.1843 -0.5245
21027SOL    HW267767   5.294   4.939   9.767 -0.5629  0.2203  0.1116
21028SOL     OW67768   5.070  10.527  10.115  0.0621  0.3020  0.1573
21028SOL    HW167769   5.151  10.510  10.066  0.3517  2.8990 -0.3930
21028SOL    HW267770   5.024  10.443  10.113  1.9578 -0.8101 -0.9578
21029SOL     OW67771  10.203   6.980   9.082 -0.7140 -0.1097  0.5507
21029SOL    HW167772  10.180   6.971   9.175 -0.7411 -3.0248  0.3321
21029SOL    HW267773  10.261   7.056   9.080  0.4198 -0.7831  3.1868
21030SOL     OW67774   9.722   7.253   7.541 -0.2364  0.1839 -0.1563
21030SOL    HW167775   9.633   7.221   7.556  0.4745 -1.2773  1.2649
21030SOL    HW267776   9.715   7.348   7.554 -1.4143 -0.0085  0.8688
21031SOL     OW67777  10.163   1.433  10.622  0.2326 -0.0393 -0.9181
21031SOL    HW167778  10.182   1.368  10.690 -1.6615  0.9221  0.6382
21031SOL    HW267779  10.230   1.418  10.556  1.0913 -2.2171  0.3161
21032SOL     OW67780   2.282   0.721   0.729 -0.5115  0.5810 -0.7894
21032SOL    HW167781   2.188   0.733   0.739 -0.5796  0.6910 -1.5656
21032SOL    HW267782   2.297   0.631   0.759 -0.8749  0.5221 -0.7813
21033SOL     OW67783  10.398   1.595   2.301 -0.0761 -0.0350  0.0863
21033SOL    HW167784  10.440   1.669   2.345 -0.2635 -0.1035  0.3864
21033SOL    HW267785  10.422   1.519   2.355 -1.0751  0.0085  0.6105
21034SOL     OW67786   2.000   9.908   5.769 -0.1991 -0.3659 -0.7218
21034SOL    HW167787   2.094   9.915   5.752 -0.6002  2.5202 -2.4147
21034SOL    HW267788   1.987   9.954   5.852 -0.2478  0.5524 -1.2223
21035SOL     OW67789   5.135   1.776   0.642  0.1281 -0.4485  0.0953
21035SOL    HW167790   5.159   1.759   0.551  0.9607 -0.1027  0.2434
21035SOL    HW267791   5.068   1.711   0.662  0.7165 -1.2354 -0.4346
21036SOL     OW67792   9.099   3.582   9.066 -0.0154  0.0051  0.0175
21036SOL    HW167793   9.032   3.514   9.059 -3.4416  2.4970  3.9110
21036SOL    HW267794   9.062   3.656   9.017  1.5623  0.4659 -0.5168
21037SOL     OW67795   8.603   3.047   4.208  0.5030 -0.1531 -0.5395
21037SOL    HW167796   8.615   3.001   4.291 -1.2720  1.3012  0.5930
21037SOL    HW267797   8.605   2.978   4.142  0.7215 -1.4959  0.8224
21038SOL     OW67798   2.319  10.863   2.736  0.2522 -0.4795  0.0387
21038SOL    HW167799   2.319  10.946   2.785  0.6318 -0.4167 -0.0677
21038SOL    HW267800   2.392  10.871   2.675  0.3174 -0.9125  0.0579
21039SOL     OW67801  10.319  11.724   3.448 -0.4443 -0.1262  0.2479
21039SOL    HW167802  10.321  11.665   3.373  0.5716 -0.6455  0.6648
21039SOL    HW267803  10.399  11.704   3.496 -2.1269 -1.4116  2.7107
21040SOL     OW67804   4.395   3.440  10.997  0.0669  0.7858  0.1543
21040SOL    HW167805   4.365   3.465  11.084 -2.0554 -1.9345  0.3464
21040SOL    HW267806   4.328   3.473  10.938  0.1153  0.3551 -0.1493
21041SOL     OW67807   0.050   0.610  11.404  0.4098  0.1283  0.1864
21041SOL    HW167808  -0.000   0.690  11.390 -1.5307 -0.7989  1.4058
21041SOL    HW267809   0.129   0.639  11.450 -1.3544  1.1974  2.8500
21042SOL     OW67810   4.568   3.366   8.630 -0.4385  0.0524  0.2581
21042SOL    HW167811   4.565   3.404   8.717 -0.6505 -0.1052  0.3195
21042SOL    HW267812   4.573   3.271   8.645 -3.0953 -0.1893  0.1081
21043SOL     OW67813  10.533   4.171   3.242 -0.2792 -0.3658 -0.0594
21043SOL    HW167814  10.472   4.203   3.308  1.0433 -0.7043  1.3859
21043SOL    HW267815  10.496   4.200   3.159 -0.3368  3.0184  0.9818
21044SOL     OW67816   0.385   8.888   1.924 -0.5269 -0.3200 -0.3454
21044SOL    HW167817   0.401   8.982   1.909 -0.0380 -0.1175  1.2978
21044SOL    HW267818   0.355   8.856   1.839 -1.5278  1.4870 -0.7250
21045SOL     OW67819  11.994   1.256   1.889 -0.0498 -0.8007  0.1081
21045SOL    HW167820  11.938   1.178   1.892  0.1579 -0.9229  1.0431
21045SOL    HW267821  11.947   1.316   1.831 -1.4871 -0.6727  1.3325
21046SOL     OW67822   1.372   9.923   7.680 -0.1766 -0.5508  0.3838
21046SOL    HW167823   1.359   9.874   7.761  1.0166  0.1499  1.0070
21046SOL    HW267824   1.456   9.893   7.647  0.2049  0.5035  0.3648
21047SOL     OW67825   6.873   6.559   1.896 -0.0211 -0.0010 -0.8220
21047SOL    HW167826   6.901   6.539   1.985 -1.2856  1.2697 -0.0828
21047SOL    HW267827   6.840   6.649   1.901 -0.6879 -0.1115 -2.4375
21048SOL     OW67828   2.805   2.800   6.615  0.0729 -0.0201  0.4119
21048SOL    HW167829   2.846   2.873   6.568 -1.0514  0.5362  0.2665
21048SOL    HW267830   2.877   2.758   6.662  0.7013  1.3345  0.7018
21049SOL     OW67831   1.745   0.454   4.221 -0.1480  0.2924 -0.4155
21049SOL    HW167832   1.690   0.518   4.177 -0.8400  1.1586  1.5750
21049SOL    HW267833   1.712   0.451   4.311  0.9700 -1.6118  0.0029
21050SOL     OW67834  10.595   0.856   2.403 -0.1776 -0.1213 -0.2321
21050SOL    HW167835  10.609   0.771   2.362  0.0664 -0.4896  0.5865
21050SOL    HW267836  10.519   0.893   2.358  0.1562 -0.4588 -1.0808
21051SOL     OW67837   4.646   0.115   9.495  0.2684  0.1867  0.1011
21051SOL    HW167838   4.706   0.063   9.548  0.6692  0.8608  0.3285
21051SOL    HW267839   4.674   0.101   9.405  0.6778  0.3793  0.1959
21052SOL     OW67840   2.530   2.089   1.260 -0.2641  0.2251  0.0187
21052SOL    HW167841   2.569   2.106   1.345 -1.1751  2.3168  0.0998
21052SOL    HW267842   2.575   2.012   1.226  2.3987  1.2755  0.9813
21053SOL     OW67843   8.015   0.857   2.437  0.1007  0.7972  0.0380
21053SOL    HW167844   8.097   0.869   2.485  0.5505 -1.5086 -0.0625
21053SOL    HW267845   8.042   0.816   2.354 -1.2411 -1.3379  0.5977
21054SOL     OW67846   0.390  10.906   6.133  0.3650  0.1337  0.3209
21054SOL    HW167847   0.376  10.823   6.180  0.1742  1.7330  3.3528
21054SOL    HW267848   0.456  10.885   6.067  1.7371 -2.0484  2.2270
21055SOL     OW67849   7.001   7.506   0.915 -0.5897  0.0520 -0.6335
21055SOL    HW167850   7.006   7.539   1.005 -1.3199  0.7636 -0.8311
21055SOL    HW267851   6.928   7.445   0.916 -1.7383  1.3604 -1.0955
21056SOL     OW67852   4.662   1.595   7.038 -0.0123  0.3487 -0.6298
21056SOL    HW167853   4.585   1.632   7.082  0.6276 -1.0068  1.8246
21056SOL    HW267854   4.668   1.643   6.956 -2.0848  2.1470  0.1715
21057SOL     OW67855  11.041   4.247   8.052  0.3456  0.6105 -0.1019
21057SOL    HW167856  11.056   4.234   8.146 -0.2048 -1.5128 -0.2499
21057SOL    HW267857  11.073   4.167   8.011 -3.3402 -0.4665 -1.2540
21058SOL     OW67858   8.625   9.321   9.433 -0.0054 -0.3338  0.8349
21058SOL    HW167859   8.686   9.395   9.428  1.0121 -1.1770  0.3575
21058SOL    HW267860   8.673   9.253   9.479 -0.0236 -1.5090 -0.7810
21059SOL     OW67861   5.935   6.846   2.094  0.3604  0.0932 -0.1307
21059SOL    HW167862   5.941   6.866   2.000  1.5693 -0.6530 -0.2316
21059SOL    HW267863   5.993   6.771   2.106 -0.2012 -0.1592  1.1311
21060SOL     OW67864   5.190   3.183  11.441  0.0575 -0.0528 -0.0431
21060SOL    HW167865   5.161   3.166  11.530 -3.6179 -2.8082 -1.5009
21060SOL    HW267866   5.167   3.274  11.424  1.5999  0.7668  1.9916
21061SOL     OW67867   4.890   1.475  10.838  0.2538 -0.7161 -0.1990
21061SOL    HW167868   4.973   1.439  10.808  0.9341 -1.9283  2.8449
21061SOL    HW267869   4.907   1.507  10.926 -2.5101 -1.1282  0.5921
21062SOL     OW67870   4.450   9.306   3.326  0.5199  0.3125 -0.2126
21062SOL    HW167871   4.471   9.302   3.420 -1.5538 -0.3066  0.2774
21062SOL    HW267872   4.355   9.297   3.323  0.4866  0.9819 -2.3608
21063SOL     OW67873   2.459   3.001   4.833 -0.4657  0.3812 -0.2354
21063SOL    HW167874   2.466   2.995   4.928 -0.2509 -0.0684 -0.2755
21063SOL    HW267875   2.402   3.076   4.817 -0.0921  0.7742  0.2393
21064SOL     OW67876   6.774   1.648   0.881 -0.8751  0.0595 -0.0229
21064SOL    HW167877   6.695   1.650   0.827 -1.3291  3.2322  0.5460
21064SOL    HW267878   6.742   1.628   0.969 -0.4788 -2.3625 -0.3583
21065SOL     OW67879   3.136  10.394  10.186 -0.0994 -0.2361 -0.2374
21065SOL    HW167880   3.208  10.333  10.198 -0.9274 -0.8326  2.3370
21065SOL    HW267881   3.159  10.470  10.240 -1.3502 -0.4457  0.6518
21066SOL     OW67882   0.909   9.053   0.192 -0.1499  0.1858  0.4614
21066SOL    HW167883   0.816   9.031   0.190 -0.5174  1.3808  2.1568
21066SOL    HW267884   0.941   9.014   0.273  0.9562 -0.5157 -0.2735
21067SOL     OW67885   3.906  11.769   1.004 -0.2907  0.4051  0.4429
21067SOL    HW167886   3.948  11.854   1.014 -0.5967  0.5204  0.7949
21067SOL    HW267887   3.849  11.780   0.928  0.6138  0.1225 -0.2852
21068SOL     OW67888   4.145   4.071   5.156 -0.0873  0.3998  0.4195
21068SOL    HW167889   4.238   4.049   5.153 -0.2430 -0.3375  0.6623
21068SOL    HW267890   4.109   4.014   5.225 -1.0379 -0.5679 -0.8208
21069SOL     OW67891   1.534   2.772   2.470  0.0699  0.3823 -0.2660
21069SOL    HW167892   1.512   2.859   2.502 -2.5062 -0.1271 -0.4620
21069SOL    HW267893   1.537   2.781   2.374  1.4264  0.5526 -0.2322
21070SOL     OW67894   3.403   3.272  11.299  0.0441  0.2333  0.6077
21070SOL    HW167895   3.465   3.216  11.346  0.5685  0.4265  0.1566
21070SOL    HW267896   3.318   3.250  11.337  0.3936  0.0219  1.2960
21071SOL     OW67897   3.431   2.858   0.226 -0.0433 -0.2035 -0.2206
21071SOL    HW167898   3.417   2.952   0.213  0.5087 -0.2726 -1.4035
21071SOL    HW267899   3.379   2.837   0.304  0.5746  1.2637  0.6290
21072SOL     OW67900   0.759  11.187   5.180  0.0373  0.1875 -0.2312
21072SOL    HW167901   0.765  11.280   5.163 -1.2316  0.2718 -0.3531
21072SOL    HW267902   0.832  11.148   5.133  0.0321  1.0259 -0.9470
21073SOL     OW67903   5.128  10.838   1.307 -0.4082 -0.0858 -0.7712
21073SOL    HW167904   5.079  10.858   1.228  0.2372 -2.8380 -1.9921
21073SOL    HW267905   5.130  10.742   1.311 -1.3198 -0.1140  3.2092
21074SOL     OW67906   1.421   7.243  11.295  0.3060 -0.3002 -0.1197
21074SOL    HW167907   1.465   7.159  11.278 -1.6364 -1.2956 -0.5332
21074SOL    HW267908   1.361   7.254  11.221 -0.3505  0.8532  0.5508
21075SOL     OW67909   1.003   0.337   5.912  0.0292 -0.2013 -0.3669
21075SOL    HW167910   1.013   0.340   6.007 -0.4482 -2.4494 -0.1930
21075SOL    HW267911   0.911   0.358   5.896 -0.3919 -1.7273 -0.1300
21076SOL     OW67912   0.050   6.405   1.854  0.2302 -0.3130 -0.2899
21076SOL    HW167913   0.019   6.418   1.765 -1.1895 -0.3868  0.1728
21076SOL    HW267914   0.086   6.316   1.854  1.1502  0.0365 -1.0128
21077SOL     OW67915   9.470   7.143  11.063  0.1949  0.2998 -0.3158
21077SOL    HW167916   9.562   7.147  11.036  0.5167 -2.4815  0.0737
21077SOL    HW267917   9.422   7.121  10.983  0.0816  0.1350 -0.2027
21078SOL     OW67918   5.728   5.180   2.807  0.9349 -0.5311  0.1391
21078SOL    HW167919   5.763   5.115   2.868 -0.5163 -0.6603  0.8866
21078SOL    HW267920   5.635   5.159   2.800  0.3989  1.4982  0.4668
21079SOL     OW67921   9.074   9.637   4.443 -0.3547 -0.4840 -0.1067
21079SOL    HW167922   9.115   9.553   4.423  0.3529 -0.5392  1.4422
21079SOL    HW267923   9.123   9.701   4.392  0.6678 -0.7449  0.5282
21080SOL     OW67924  11.737   1.205   7.491  0.1089  0.6193 -0.0184
21080SOL    HW167925  11.670   1.266   7.520  0.0698  0.6592 -0.1949
21080SOL    HW267926  11.745   1.143   7.563 -0.0317  0.6843  0.0541
21081SOL     OW67927   7.302   4.211   7.384 -0.3620  0.2446 -0.3550
21081SOL    HW167928   7.348   4.151   7.443  0.9612 -0.1687 -1.7296
21081SOL    HW267929   7.317   4.298   7.421  1.9935  0.1779 -0.9602
21082SOL     OW67930   0.621   9.600   0.767 -0.6001  0.3089 -0.0065
21082SOL    HW167931   0.579   9.516   0.787  0.4535  0.0611  1.3085
21082SOL    HW267932   0.715   9.581   0.772 -0.3355  1.7596  1.2701
21083SOL     OW67933   5.947   5.401   0.730 -0.7608  0.4548  0.3301
21083SOL    HW167934   5.925   5.307   0.730 -3.5573  1.0283  0.6926
21083SOL    HW267935   5.965   5.420   0.822  0.1916  0.2247  0.2022
21084SOL     OW67936   1.243  11.867   5.903 -0.2239 -0.4531  0.0302
21084SOL    HW167937   1.201  11.866   5.817  2.0938  1.2605 -1.2282
21084SOL    HW267938   1.222  11.953   5.939  0.3287 -0.4610  0.3839
21085SOL     OW67939   6.037   9.280  10.364  0.4243 -0.2879 -0.1750
21085SOL    HW167940   6.042   9.258  10.457 -0.0086 -0.4042 -0.1776
21085SOL    HW267941   6.127   9.305  10.341  0.4635  0.0793  0.3551
21086SOL     OW67942   1.604   4.848   5.123 -0.2937  0.3112  0.3146
21086SOL    HW167943   1.597   4.775   5.062 -2.8031  0.2406  0.6031
21086SOL    HW267944   1.589   4.809   5.209  1.3053  0.7274  0.8202
21087SOL     OW67945   3.048  11.887   0.953 -0.3582  0.0334 -0.4151
21087SOL    HW167946   3.043  11.916   1.044 -1.6460  0.6741 -0.6695
21087SOL    HW267947   3.142  11.880   0.935 -0.0758  0.6718  0.7164
21088SOL     OW67948   0.608   0.014   4.034  0.3183  0.1114  0.0330
21088SOL    HW167949   0.687  -0.014   3.987  1.1937  0.6191  1.1408
21088SOL    HW267950   0.634   0.095   4.079 -1.2517  1.0481 -0.6523
21089SOL     OW67951   6.356   8.776  10.898 -0.5538 -0.3971  0.7091
21089SOL    HW167952   6.303   8.740  10.826 -1.2713  0.6927  0.6539
21089SOL    HW267953   6.424   8.827  10.854 -1.8052  1.4148  0.7408
21090SOL     OW67954  11.066   0.479   5.398  0.5471 -0.1790  0.2319
21090SOL    HW167955  11.129   0.491   5.470  0.7167  0.6349 -0.0406
21090SOL    HW267956  10.986   0.447   5.441  0.1036  1.8645  1.0204
21091SOL     OW67957   4.214   8.712   0.754 -0.6331 -0.5386 -0.1116
21091SOL    HW167958   4.135   8.661   0.771 -1.6650  0.7865 -0.6794
21091SOL    HW267959   4.285   8.648   0.755 -1.9298 -2.1104 -1.4426
21092SOL     OW67960   6.674   3.005   2.764  0.3352  0.0239  0.6888
21092SOL    HW167961   6.737   3.047   2.821  0.2310  1.3758 -0.1370
21092SOL    HW267962   6.635   3.077   2.714 -2.3959 -0.6383  1.6650
21093SOL     OW67963   8.085  11.026   1.776  0.3563  0.5027 -0.4344
21093SOL    HW167964   8.100  10.937   1.746  1.2151  0.5621 -0.1878
21093SOL    HW267965   8.075  11.077   1.696  0.9445  0.3712 -0.5918
21094SOL     OW67966   7.305   4.719   3.750 -0.1542 -0.4516  0.2068
21094SOL    HW167967   7.247   4.769   3.692 -0.0851 -1.4171 -0.7341
21094SOL    HW267968   7.259   4.636   3.765 -0.0162 -0.3518  1.2828
21095SOL     OW67969   9.435   8.771   5.626  0.2891  0.9794 -0.2197
21095SOL    HW167970   9.370   8.709   5.593  1.3740  0.1683 -0.9051
21095SOL    HW267971   9.395   8.809   5.704 -0.5795 -0.2971 -0.0219
21096SOL     OW67972  10.645   0.232   7.872  0.0122  0.4633 -0.3643
21096SOL    HW167973  10.695   0.255   7.794 -0.0684 -0.1508 -0.6025
21096SOL    HW267974  10.681   0.287   7.941  2.6971 -1.5809  0.0347
21097SOL     OW67975   5.898   1.387   3.187 -0.0796  0.1170 -0.2616
21097SOL    HW167976   5.986   1.354   3.171  0.1331  1.1058 -1.2588
21097SOL    HW267977   5.910   1.459   3.249 -0.2441 -0.0030 -0.0857
21098SOL     OW67978   4.201   4.752   3.541  0.3771  0.7838  0.1895
21098SOL    HW167979   4.188   4.835   3.586  4.0866  1.3028  0.6030
21098SOL    HW267980   4.279   4.766   3.488  0.1458 -1.9642 -1.0125
21099SOL     OW67981   2.020   9.186   9.825  0.4138  0.0531  0.1103
21099SOL    HW167982   1.944   9.242   9.839 -0.0847 -0.4736 -0.4311
21099SOL    HW267983   2.094   9.247   9.819 -0.1470  0.6808 -0.7116
21100SOL     OW67984   5.406   1.607   9.230 -0.0024  0.3943 -0.0877
21100SOL    HW167985   5.392   1.533   9.289  3.1693  0.7343  1.2726
21100SOL    HW267986   5.379   1.574   9.144 -3.0245 -0.7119  1.1434
21101SOL     OW67987   7.168   1.212   2.275 -0.5269 -0.6162  0.3144
21101SOL    HW167988   7.078   1.203   2.305  0.5173  0.3409  4.2874
21101SOL    HW267989   7.189   1.305   2.290  1.0492 -0.7490 -0.7950
21102SOL     OW67990   0.624   3.123   1.540  0.1019 -0.0519 -0.0145
21102SOL    HW167991   0.601   3.147   1.450 -0.2242  1.7002  0.5022
21102SOL    HW267992   0.572   3.045   1.558 -1.4099  0.7540 -0.6797
21103SOL     OW67993   4.141   8.628   7.221 -0.3629 -0.3094 -0.1153
21103SOL    HW167994   4.232   8.625   7.191  0.0579 -2.1547  1.1650
21103SOL    HW267995   4.091   8.649   7.142  1.0450 -0.7056 -1.1622
21104SOL     OW67996   4.350   2.540   7.983 -0.0629 -0.0631  0.1961
21104SOL    HW167997   4.429   2.513   8.030  0.3894 -0.2622 -0.6455
21104SOL    HW267998   4.338   2.473   7.916 -1.9888 -1.0198  1.4180
21105SOL     OW67999   3.308   6.635  11.944 -0.6188  0.2633  0.3517
21105SOL    HW168000   3.307   6.560  12.003 -1.0549 -0.5831 -0.6969
21105SOL    HW268001   3.225   6.630  11.897  0.6171 -0.4554 -1.9487
21106SOL     OW68002  10.353  10.385   6.894 -0.0619 -0.0583  0.3783
21106SOL    HW168003  10.395  10.346   6.971  1.6130 -1.0962 -0.9644
21106SOL    HW268004  10.425  10.429   6.848 -0.8247 -0.2331 -1.0364
21107SOL     OW68005   6.130  11.128   8.248 -0.6620  0.1356 -0.9734
21107SOL    HW168006   6.178  11.098   8.326 -1.0236  0.7464 -0.5048
21107SOL    HW268007   6.193  11.121   8.177 -0.4577 -0.8557 -0.7141
21108SOL     OW68008   3.705  10.214  10.329 -0.0995 -0.7988 -0.3445
21108SOL    HW168009   3.669  10.274  10.264  2.4348 -0.4861 -1.5577
21108SOL    HW268010   3.797  10.239  10.337 -0.2849 -0.6868  3.5677
21109SOL     OW68011   1.603   2.683  11.289  0.3271  0.6977  0.5906
21109SOL    HW168012   1.538   2.737  11.335  2.2079  1.5048  2.4850
21109SOL    HW268013   1.673   2.744  11.266 -0.5998  0.3937 -3.7877
21110SOL     OW68014   4.633   9.799   3.062  0.3807 -0.1531  0.4054
21110SOL    HW168015   4.542   9.790   3.034 -0.0406 -1.2447  2.0081
21110SOL    HW268016   4.648   9.893   3.065 -1.3201  0.1283  1.9334
21111SOL     OW68017   4.698  11.051   0.301  0.3089 -0.5828 -0.0699
21111SOL    HW168018   4.615  11.080   0.338 -0.6919 -0.1012 -2.4755
21111SOL    HW268019   4.764  11.088   0.359 -1.1148  0.2767  1.0826
21112SOL     OW68020   2.267   0.227   4.344 -0.2898  0.4389  0.4578
21112SOL    HW168021   2.320   0.284   4.399 -0.8615  1.0412  0.4071
21112SOL    HW268022   2.328   0.192   4.279  0.3113  0.0041  1.2517
21113SOL     OW68023   2.160  11.450  11.946  0.1790  0.3147 -0.1529
21113SOL    HW168024   2.066  11.461  11.940  0.0565 -0.3351  0.4684
21113SOL    HW268025   2.195  11.498  11.870 -0.7032 -0.2706 -0.9519
21114SOL     OW68026  11.462   0.500   1.405 -0.1184 -0.5706  0.5794
21114SOL    HW168027  11.397   0.496   1.335  0.0757 -0.4910  0.3903
21114SOL    HW268028  11.506   0.415   1.402  2.1813  0.5680 -1.6550
21115SOL     OW68029   6.649   6.742   8.612  0.3158  0.6634 -0.4136
21115SOL    HW168030   6.602   6.791   8.679  0.4519 -0.9734  0.9468
21115SOL    HW268031   6.717   6.695   8.660 -0.1411 -1.2477 -1.5471
21116SOL     OW68032   7.010   5.464  11.991 -0.5171  0.2580  0.1647
21116SOL    HW168033   7.049   5.550  11.972 -0.6339  0.2589 -0.0858
21116SOL    HW268034   7.014   5.456  12.086 -0.5156  0.5481  0.1915
21117SOL     OW68035   0.026   3.115   0.501  0.2530  0.1414  0.3361
21117SOL    HW168036  -0.002   3.101   0.592  0.0059  0.4417  0.3084
21117SOL    HW268037   0.072   3.035   0.477  0.7156  0.2363  0.8801
21118SOL     OW68038   9.249   1.036  11.257  0.1092 -0.3859  0.1010
21118SOL    HW168039   9.236   1.127  11.227  0.9169 -0.2510  0.1315
21118SOL    HW268040   9.344   1.026  11.261  0.0367 -1.4633 -0.5745
21119SOL     OW68041   4.735   1.053   7.023 -0.2809  0.1229 -0.3912
21119SOL    HW168042   4.682   1.054   6.944 -1.3373 -0.1124  0.2987
21119SOL    HW268043   4.716   1.136   7.067  2.5481  1.6520 -1.7852
21120SOL     OW68044   3.650   2.081   3.637  0.2815  0.2681 -0.2472
21120SOL    HW168045   3.734   2.089   3.592  0.6561 -1.9565 -0.0766
21120SOL    HW268046   3.585   2.100   3.569  0.8859  1.4256 -0.5276
21121SOL     OW68047  10.603   8.748   3.953  0.3221 -0.3894 -0.3261
21121SOL    HW168048  10.591   8.780   4.043  1.3855  0.4649 -0.4685
21121SOL    HW268049  10.529   8.786   3.905 -0.5720 -1.3140  0.2857
21122SOL     OW68050   4.469  11.535   5.112 -0.0476  0.4693 -0.1170
21122SOL    HW168051   4.523  11.560   5.187  0.5138 -0.3963 -0.2221
21122SOL    HW268052   4.469  11.613   5.055 -1.2509  1.4860  1.1832
21123SOL     OW68053   7.430   5.083   2.058 -0.3907  0.4218  0.3990
21123SOL    HW168054   7.415   5.000   2.103  1.2680 -1.1320 -1.6996
21123SOL    HW268055   7.371   5.145   2.101 -1.7004 -1.8240  2.0380
21124SOL     OW68056  11.822   1.684   9.210 -0.0986  0.8080  0.4153
21124SOL    HW168057  11.772   1.764   9.225  0.2406  1.3058 -0.9827
21124SOL    HW268058  11.859   1.694   9.122 -1.4166 -1.6247 -0.5002
21125SOL     OW68059   9.975   3.144   7.239 -0.9869 -0.2449  0.3769
21125SOL    HW168060   9.908   3.079   7.262 -0.9472 -0.3746  0.1323
21125SOL    HW268061   9.974   3.207   7.311 -0.7883 -0.7025  0.7837
21126SOL     OW68062   2.604   1.447   7.877  0.2974 -0.3915 -0.2288
21126SOL    HW168063   2.510   1.455   7.865  0.2009  0.0462  0.6828
21126SOL    HW268064   2.632   1.382   7.813 -0.4522  0.2713 -1.2427
21127SOL     OW68065  10.362   6.734   1.862  0.3936  0.2923 -0.1049
21127SOL    HW168066  10.278   6.696   1.837  1.0846 -0.3379 -1.5519
21127SOL    HW268067  10.369   6.715   1.956 -0.9302  0.0973 -0.0252
21128SOL     OW68068   8.541   1.819  10.462 -0.0227 -0.1016  0.2495
21128SOL    HW168069   8.460   1.859  10.492 -1.4949 -1.6254 -1.4824
21128SOL    HW268070   8.599   1.822  10.539 -1.8225  0.7048  1.6447
21129SOL     OW68071  11.181   7.347   8.154 -0.5622  0.1775 -0.6750
21129SOL    HW168072  11.133   7.387   8.227  1.5815  0.8712  0.4289
21129SOL    HW268073  11.206   7.420   8.099  1.6464  0.2093  0.2895
21130SOL     OW68074   1.676   6.720   4.973  0.3654  0.4197  0.0523
21130SOL    HW168075   1.725   6.772   5.036 -1.2512 -1.5331  3.2006
21130SOL    HW268076   1.584   6.742   4.990 -0.1967 -1.2769 -0.5583
21131SOL     OW68077  10.240   1.473  10.290 -0.5201 -0.3026 -0.0633
21131SOL    HW168078  10.164   1.512  10.333 -0.9115 -0.4440 -0.6178
21131SOL    HW268079  10.205   1.432  10.211  0.1956 -0.0280 -0.5322
21132SOL     OW68080   3.341   0.184   0.339 -0.0510  0.1693  0.7864
21132SOL    HW168081   3.317   0.225   0.255  1.2388 -0.3339  0.1410
21132SOL    HW268082   3.319   0.250   0.405 -2.2691  0.1084  0.1980
21133SOL     OW68083   4.902   8.925   2.998  0.6400 -0.2059 -0.1273
21133SOL    HW168084   4.841   8.996   2.974  0.7204  0.2775  1.0335
21133SOL    HW268085   4.857   8.845   2.971 -0.2337  0.1820  0.1453
21134SOL     OW68086   9.080   3.360   1.658 -0.1663  0.1553 -0.4952
21134SOL    HW168087   9.007   3.415   1.684  0.4369  0.8787 -0.2959
21134SOL    HW268088   9.065   3.342   1.565 -1.0895 -0.4969 -0.2316
21135SOL     OW68089   2.028   7.257   6.016 -0.0179  0.4990  0.0081
21135SOL    HW168090   2.011   7.293   5.929  1.4811  1.4586  0.0729
21135SOL    HW268091   1.998   7.325   6.076 -0.5253  0.0767  0.2405
21136SOL     OW68092   7.787   0.499  11.782 -0.1512 -0.3291  0.0883
21136SOL    HW168093   7.747   0.429  11.834  2.0062 -2.3392 -0.7685
21136SOL    HW268094   7.844   0.453  11.720 -2.1888  1.9257 -3.8353
21137SOL     OW68095   0.198   6.949   7.419  0.1503  0.2436 -0.4800
21137SOL    HW168096   0.187   7.044   7.415  1.3673  0.3942 -0.7153
21137SOL    HW268097   0.255   6.934   7.495 -0.4371 -0.3444 -0.1460
21138SOL     OW68098   4.122  10.846   7.736  0.2461 -0.6434  0.4349
21138SOL    HW168099   4.032  10.874   7.723  0.0440  0.1309  3.0264
21138SOL    HW268100   4.175  10.914   7.694 -0.3177 -0.8501 -0.6634
21139SOL     OW68101   3.091   8.900   1.271  0.4098 -0.4833 -0.0725
21139SOL    HW168102   3.109   8.810   1.299  1.7229 -0.5269 -0.9177
21139SOL    HW268103   3.008   8.922   1.312  0.4460 -1.8084  0.7892
21140SOL     OW68104   2.068  11.870   6.964 -0.2475 -0.0990  0.1005
21140SOL    HW168105   2.037  11.917   6.886  0.3011 -0.9564 -0.6435
21140SOL    HW268106   1.988  11.843   7.009 -0.5675  0.6269 -0.0104
21141SOL     OW68107  11.397   9.705   0.928  0.1607 -0.1217  0.0544
21141SOL    HW168108  11.422   9.625   0.882  0.2099 -0.6260  0.9349
21141SOL    HW268109  11.301   9.700   0.934  0.2228 -0.6254  0.9632
21142SOL     OW68110  11.352   2.969   5.661 -0.0006 -0.0656  0.2382
21142SOL    HW168111  11.295   2.984   5.736 -0.6947  0.5709 -0.4013
21142SOL    HW268112  11.434   2.938   5.699  0.3454  2.0739  1.4297
21143SOL     OW68113   7.725   0.872   7.487 -0.0199 -0.7052  0.4128
21143SOL    HW168114   7.728   0.826   7.571 -1.1853 -0.5286  0.5653
21143SOL    HW268115   7.634   0.901   7.479  0.8443  2.4327  0.7568
21144SOL     OW68116   0.988   2.333   4.342 -0.5217  0.4247 -0.2537
21144SOL    HW168117   1.019   2.242   4.344  0.6746  0.8144  1.8307
21144SOL    HW268118   1.061   2.383   4.306  0.3210  0.9782  2.0478
21145SOL     OW68119  10.501  11.141   8.385 -0.1694 -0.5568 -0.6617
21145SOL    HW168120  10.543  11.199   8.322  0.6455  0.3708  0.6573
21145SOL    HW268121  10.443  11.085   8.333 -0.0845  0.6527 -2.1156
21146SOL     OW68122   3.540   0.264   2.748 -0.2793  0.1936  0.0035
21146SOL    HW168123   3.602   0.331   2.720 -2.0492  1.8523 -0.1843
21146SOL    HW268124   3.527   0.280   2.841  0.0558 -0.5772  0.1908
21147SOL     OW68125   8.194   4.209  10.693  0.1240  0.5512  0.1711
21147SOL    HW168126   8.273   4.157  10.702 -0.0202 -0.0110 -1.5107
21147SOL    HW268127   8.225   4.299  10.684  0.4306  0.6336  1.7891
21148SOL     OW68128  11.317   5.881   6.053 -0.1056  0.1959  0.3441
21148SOL    HW168129  11.325   5.977   6.047  0.0763  0.1646  0.0618
21148SOL    HW268130  11.406   5.851   6.073  0.5093 -0.1199 -2.3962
21149SOL     OW68131   1.265   2.501   8.660  0.3482  0.3741 -0.7393
21149SOL    HW168132   1.236   2.410   8.659  1.4497  0.0187 -1.3691
21149SOL    HW268133   1.350   2.501   8.615  1.3730  1.3641  1.0652
21150SOL     OW68134   1.346  10.683  11.806  0.0669  0.4255 -0.0020
21150SOL    HW168135   1.327  10.752  11.869  0.5023 -0.9154  1.6776
21150SOL    HW268136   1.385  10.728  11.732 -0.6203  2.0883  0.5914
21151SOL     OW68137   8.489   4.150   7.647 -0.5417  0.4582 -0.0354
21151SOL    HW168138   8.503   4.203   7.725  1.5983  3.0456 -2.0078
21151SOL    HW268139   8.447   4.209   7.585 -1.6927 -1.3691 -1.0997
21152SOL     OW68140   7.498   5.935   1.002  0.3872  0.3865  0.4259
21152SOL    HW168141   7.514   6.026   0.977  0.5454  0.3595  0.4300
21152SOL    HW268142   7.436   5.903   0.936  0.6271  0.3836  0.1989
21153SOL     OW68143  11.447   3.029   3.624  0.3297  0.2007 -0.0257
21153SOL    HW168144  11.511   3.100   3.631  1.7382 -1.1623  2.8239
21153SOL    HW268145  11.491   2.961   3.573  0.5472 -0.1077  0.5613
21154SOL     OW68146   9.658   3.190   4.028  0.2250 -0.5387 -0.1973
21154SOL    HW168147   9.720   3.154   4.091 -0.3938  1.7485  1.8893
21154SOL    HW268148   9.575   3.147   4.047  0.5515 -1.6707 -1.2092
21155SOL     OW68149   2.158   0.463   9.606  0.6834  0.0520  0.0724
21155SOL    HW168150   2.229   0.527   9.608  1.6343 -0.8790 -1.4136
21155SOL    HW268151   2.191   0.388   9.655 -0.0618  0.3152  1.0160
21156SOL     OW68152   2.377   1.288   1.922  0.4975  0.3977  0.0270
21156SOL    HW168153   2.437   1.303   1.849  0.7409  2.4286  0.6026
21156SOL    HW268154   2.425   1.318   1.999 -0.5196  0.1615  0.7656
21157SOL     OW68155   5.204   6.449   8.132  0.1763  0.4445 -0.3950
21157SOL    HW168156   5.268   6.403   8.078  1.3800  0.8067  0.6569
21157SOL    HW268157   5.143   6.489   8.070  0.6982 -0.2946 -1.4076
21158SOL     OW68158   6.375   2.477   6.757  0.2679 -0.9847  0.9535
21158SOL    HW168159   6.424   2.441   6.683 -0.0540 -1.4907  0.9824
21158SOL    HW268160   6.306   2.413   6.774 -2.4009  1.0994 -1.0599
21159SOL     OW68161   2.769   0.358   4.185 -0.1044  0.1987 -0.3642
21159SOL    HW168162   2.735   0.434   4.232  0.0410  0.6413 -0.9670
21159SOL    HW268163   2.820   0.310   4.250 -1.5830 -0.3036  0.4750
21160SOL     OW68164   2.988   5.094   6.363  0.0179 -0.2559  0.2852
21160SOL    HW168165   3.050   5.166   6.349  0.0192 -0.1273  0.9341
21160SOL    HW268166   2.986   5.048   6.279 -1.8002  1.9046 -0.9664
21161SOL     OW68167  11.560  11.326   5.445  0.0936  0.3154 -0.0580
21161SOL    HW168168  11.550  11.360   5.534  2.7592  0.8583  0.1388
21161SOL    HW268169  11.579  11.233   5.456 -0.4797  0.1857 -0.1371
21162SOL     OW68170   8.603   8.599   2.371  0.1138 -0.5240  0.4143
21162SOL    HW168171   8.532   8.573   2.313 -0.5393 -2.1492  1.8761
21162SOL    HW268172   8.629   8.519   2.416  3.3785 -0.1557 -0.5379
21163SOL     OW68173   5.164  10.919   2.436  0.4144 -0.2108 -0.1951
21163SOL    HW168174   5.187  10.827   2.420 -1.1324 -0.9361  1.3541
21163SOL    HW268175   5.244  10.958   2.469  0.5377 -1.6330  1.3350
21164SOL     OW68176  11.429   8.170   1.997  0.1319  0.1456  0.1612
21164SOL    HW168177  11.434   8.246   2.055  2.4865  1.0024 -1.0289
21164SOL    HW268178  11.521   8.151   1.975 -0.5476 -1.6084 -1.3903
21165SOL     OW68179   1.297   9.187  11.278  0.2544  0.2746 -0.1005
21165SOL    HW168180   1.314   9.243  11.203  0.4156  0.1225 -0.1776
21165SOL    HW268181   1.277   9.101  11.240 -2.3143  0.8027 -0.1138
21166SOL     OW68182   3.108   2.986   7.823  0.1471  0.1205  0.1442
21166SOL    HW168183   3.137   2.922   7.888  0.9100  2.6651  2.4725
21166SOL    HW268184   3.063   2.933   7.757  1.2864 -2.8666  1.5453
21167SOL     OW68185   3.830   7.286   2.792 -0.4586 -0.0821  0.3645
21167SOL    HW168186   3.861   7.196   2.782  1.5003  0.6571 -0.9231
21167SOL    HW268187   3.844   7.306   2.884  1.2369 -0.4010  0.2079
21168SOL     OW68188   0.265   7.300   9.658  0.3562 -0.2228 -0.1521
21168SOL    HW168189   0.233   7.388   9.641  0.5702 -0.3140 -1.1329
21168SOL    HW268190   0.210   7.267   9.728 -0.1753  0.4424 -0.2481
21169SOL     OW68191   0.145   1.974   8.150 -0.1712 -1.1246 -0.4298
21169SOL    HW168192   0.201   2.010   8.219  0.5261  0.8378 -1.9339
21169SOL    HW268193   0.198   1.904   8.112 -0.1518 -1.5461  0.3484
21170SOL     OW68194  10.784   2.306   5.056  0.1282  0.5393  0.0782
21170SOL    HW168195  10.698   2.289   5.094  0.3005  1.1048  0.7375
21170SOL    HW268196  10.831   2.223   5.064 -0.4887  0.0977 -0.6847
21171SOL     OW68197   0.568   5.089   7.308  0.0796 -0.9253  0.6352
21171SOL    HW168198   0.627   5.163   7.324  0.6170 -1.1287 -0.3126
21171SOL    HW268199   0.610   5.015   7.353 -0.7236 -0.5669  2.0227
21172SOL     OW68200   8.140   0.738   1.536  0.2263  0.0729  0.3547
21172SOL    HW168201   8.163   0.787   1.615  1.1772  0.2796 -0.0380
21172SOL    HW268202   8.224   0.716   1.496 -0.2326 -0.5286 -0.2982
21173SOL     OW68203   2.235   6.729   3.037  0.5261 -0.8115 -0.7090
21173SOL    HW168204   2.176   6.715   2.964  1.2069  2.3614 -2.0622
21173SOL    HW268205   2.320   6.699   3.006  0.4527 -1.2819 -0.4584
21174SOL     OW68206   0.404   3.774   4.638  0.7609  0.8377  0.1535
21174SOL    HW168207   0.478   3.735   4.591  1.8501  2.2802  0.6050
21174SOL    HW268208   0.373   3.704   4.695  1.5460  0.0881 -0.3031
21175SOL     OW68209   0.455   0.911   0.316  0.1080 -0.6555  0.4648
21175SOL    HW168210   0.482   0.874   0.400  1.3906  0.0074  0.3672
21175SOL    HW268211   0.364   0.885   0.306 -0.7062  0.9058  2.9950
21176SOL     OW68212   4.344   6.788   3.926  0.6460  0.1113 -0.1513
21176SOL    HW168213   4.327   6.749   4.012 -2.0943  0.4922 -0.4274
21176SOL    HW268214   4.378   6.717   3.873  1.4810 -0.3544  0.9512
21177SOL     OW68215   4.954  11.165   2.940 -0.0680  0.0380  0.4448
21177SOL    HW168216   4.989  11.084   2.903  0.5955 -0.4649  2.0859
21177SOL    HW268217   5.025  11.198   2.995 -0.7849  1.0835  0.7634
21178SOL     OW68218   8.028   3.724   3.637  0.0051 -0.0130  0.6143
21178SOL    HW168219   8.107   3.719   3.582 -0.0868 -0.5408  0.5267
21178SOL    HW268220   8.050   3.789   3.703  0.4569 -0.0343  0.4937
21179SOL     OW68221   5.329   8.211   0.897 -0.2925 -0.2531  0.3082
21179SOL    HW168222   5.314   8.118   0.878  0.4797 -0.5091  0.8972
21179SOL    HW268223   5.423   8.223   0.885 -0.4483  0.5559 -0.1579
21180SOL     OW68224   5.859  10.913  11.808 -0.0067  0.1432  0.1356
21180SOL    HW168225   5.935  10.867  11.844 -0.8665 -0.5896  1.0838
21180SOL    HW268226   5.865  10.900  11.713 -0.0208 -1.6534  0.3422
21181SOL     OW68227   3.735   0.644   7.413 -0.1210  0.3215 -0.3386
21181SOL    HW168228   3.645   0.640   7.445  0.1674  0.6200  0.5373
21181SOL    HW268229   3.770   0.557   7.429  0.2576  0.6856  0.9005
21182SOL     OW68230   4.922   1.108   9.759  0.0182  0.3878 -0.3730
21182SOL    HW168231   4.901   1.171   9.827 -1.6120 -0.4064 -0.0835
21182SOL    HW268232   4.865   1.131   9.685 -1.9446 -1.6917  0.3498
21183SOL     OW68233   7.288   8.795   3.240  0.2178 -0.2104  0.6339
21183SOL    HW168234   7.204   8.774   3.198  0.6504 -0.6727 -0.0348
21183SOL    HW268235   7.321   8.711   3.271 -0.4569  0.2309  2.6477
21184SOL     OW68236   3.073   0.733   8.479 -0.3077 -0.1854  0.3940
21184SOL    HW168237   3.001   0.678   8.450 -0.0991 -0.9083  1.1986
21184SOL    HW268238   3.034   0.794   8.540 -0.1050 -1.1964  1.5733
21185SOL     OW68239  10.025   3.309   9.997 -0.0634  0.0648  0.0036
21185SOL    HW168240   9.939   3.348   9.980  0.3435  1.3248  0.7664
21185SOL    HW268241  10.055   3.279   9.911 -1.5223 -0.9822 -0.1867
21186SOL     OW68242   0.775   2.699   4.844  0.8055  0.0578 -0.1010
21186SOL    HW168243   0.720   2.629   4.880 -3.5561  3.1057 -0.1123
21186SOL    HW268244   0.767   2.771   4.906  3.1770  1.4255 -1.2441
21187SOL     OW68245   2.129   1.999  10.724 -0.2637 -0.1221 -0.1354
21187SOL    HW168246   2.081   2.025  10.646  2.1252  0.5068 -1.5236
21187SOL    HW268247   2.166   2.080  10.759  1.9426 -0.7927 -0.7276
21188SOL     OW68248   2.215   2.257   6.205 -0.0149  0.1801  0.3388
21188SOL    HW168249   2.282   2.209   6.255 -0.4942 -1.2530 -0.3427
21188SOL    HW268250   2.241   2.349   6.212  1.1561 -0.2058  1.3724
21189SOL     OW68251   0.903   8.289   9.399  0.3096 -0.3626  0.3044
21189SOL    HW168252   0.923   8.331   9.315 -0.3753 -2.2912 -0.8958
21189SOL    HW268253   0.861   8.358   9.451  0.9497  0.9358 -0.8400
21190SOL     OW68254   5.343   1.369   9.377 -0.1654  0.1589  0.6824
21190SOL    HW168255   5.374   1.280   9.359 -0.1047  0.3728 -0.3235
21190SOL    HW268256   5.255   1.357   9.412 -0.9298 -0.2498 -1.2260
21191SOL     OW68257   4.971   2.731   1.952  0.4919 -0.5049  0.1357
21191SOL    HW168258   4.894   2.729   2.009 -0.9075 -1.0754 -1.6710
21191SOL    HW268259   4.937   2.758   1.867  2.0837 -1.7761 -0.9725
21192SOL     OW68260   7.415   5.393   8.374  1.2797  0.0467 -0.0227
21192SOL    HW168261   7.505   5.415   8.350  1.0577  1.9291  0.7039
21192SOL    HW268262   7.424   5.323   8.439  2.1721 -0.1320 -0.3161
21193SOL     OW68263   3.625   0.485   4.689 -0.2737  0.5523  0.2186
21193SOL    HW168264   3.555   0.490   4.623  0.1547  2.8195 -0.1574
21193SOL    HW268265   3.684   0.417   4.656 -1.1189  0.2066 -0.6401
21194SOL     OW68266   8.451   9.242   7.408 -0.2026 -0.2717  0.1614
21194SOL    HW168267   8.455   9.296   7.329 -0.6953 -0.2121  0.1739
21194SOL    HW268268   8.519   9.278   7.464  1.1504 -1.2282 -0.7904
21195SOL     OW68269   3.056   9.668  10.279  0.4981 -0.2309  0.3278
21195SOL    HW168270   3.143   9.689  10.244  0.2637 -0.1344 -0.2127
21195SOL    HW268271   3.069   9.659  10.373  0.7149  1.9100  0.5432
21196SOL     OW68272  10.149   4.545  10.235  0.3188  0.8663  0.8210
21196SOL    HW168273  10.240   4.537  10.205 -0.0777 -1.5082  0.0906
21196SOL    HW268274  10.126   4.636  10.216  2.4836  1.5112  0.9283
21197SOL     OW68275   8.337   2.484   3.082  0.1064  0.8926  0.5975
21197SOL    HW168276   8.380   2.556   3.035  1.2266 -0.4272 -0.4789
21197SOL    HW268277   8.393   2.468   3.158 -0.0413  1.0029  0.7328
21198SOL     OW68278   7.130   4.731   3.190 -0.4202 -0.3678  0.0157
21198SOL    HW168279   7.161   4.650   3.150  1.6646 -0.4118  1.5823
21198SOL    HW268280   7.197   4.796   3.166 -0.5983  0.2270  1.0719
21199SOL     OW68281   0.993   7.691   8.155 -0.2296 -0.2460  0.0397
21199SOL    HW168282   0.910   7.739   8.155  0.0601  0.2979  0.8596
21199SOL    HW268283   1.029   7.707   8.242  0.1418 -1.5318  0.1402
21200SOL     OW68284   0.881   4.987  11.270  0.1811  0.0439 -0.0341
21200SOL    HW168285   0.896   4.896  11.243  0.1075 -0.3639  1.2288
21200SOL    HW268286   0.961   5.033  11.246 -0.2029 -0.1008 -1.6843
21201SOL     OW68287   2.363   4.304   9.439 -0.6284  0.1001  0.3228
21201SOL    HW168288   2.383   4.302   9.345  0.2363  0.8932  0.4774
21201SOL    HW268289   2.319   4.221   9.455 -0.9177  0.0046 -0.8105
21202SOL     OW68290   5.058  11.879   7.520 -0.0928 -0.4319  0.2951
21202SOL    HW168291   4.978  11.907   7.563  0.2193 -1.7059  1.8243
21202SOL    HW268292   5.115  11.955   7.523 -0.5096 -0.1379  1.1191
21203SOL     OW68293   4.238   9.589   8.340  0.4043  0.0451 -0.8973
21203SOL    HW168294   4.296   9.664   8.329  0.5884  0.0664  0.1358
21203SOL    HW268295   4.285   9.516   8.302  0.4833  0.3372 -1.3635
21204SOL     OW68296  11.914   3.094   5.194 -0.2300 -0.1342  0.2104
21204SOL    HW168297  11.873   3.152   5.130 -1.1015 -2.4548 -1.4742
21204SOL    HW268298  11.840   3.054   5.240  0.2706 -1.0665  0.2261
21205SOL     OW68299   2.185   8.295   2.508 -0.1439  0.8540 -0.2419
21205SOL    HW168300   2.120   8.353   2.469 -1.2357  0.0334  0.2795
21205SOL    HW268301   2.147   8.207   2.498  1.4418  0.2181 -0.9803
21206SOL     OW68302   7.715   1.074   8.945  0.3441  0.0985 -0.0904
21206SOL    HW168303   7.765   1.146   8.906  0.8014  0.4704  1.1336
21206SOL    HW268304   7.742   1.073   9.037 -0.2084 -1.1695  0.0807
21207SOL     OW68305   7.331   7.373   8.757  0.5724 -0.0273  0.4632
21207SOL    HW168306   7.397   7.312   8.726  0.3488  0.2152 -0.5222
21207SOL    HW268307   7.318   7.434   8.684  0.6424  1.0684  1.3426
21208SOL     OW68308   0.262   5.172   5.734  0.4102 -0.3493 -0.4434
21208SOL    HW168309   0.356   5.160   5.718  0.1260 -3.0113 -0.5350
21208SOL    HW268310   0.251   5.157   5.828  0.1292  0.5187 -0.3282
21209SOL     OW68311   7.566  11.634   8.609  0.6188  0.1898  0.0274
21209SOL    HW168312   7.643  11.655   8.662  0.0218  1.3420  0.4986
21209SOL    HW268313   7.534  11.551   8.644  1.7260 -0.3870 -0.2878
21210SOL     OW68314   8.528   2.658   8.769  0.4981  0.5657 -0.1594
21210SOL    HW168315   8.619   2.662   8.798 -0.1031 -1.5808  2.3484
21210SOL    HW268316   8.512   2.566   8.750 -1.8705  0.3272  2.3551
21211SOL     OW68317   3.430   5.278   9.093 -0.2177 -0.4389 -0.1297
21211SOL    HW168318   3.371   5.219   9.045 -1.3191  0.6758 -0.2124
21211SOL    HW268319   3.492   5.308   9.027 -2.0613  1.5182 -1.0763
21212SOL     OW68320   9.844   4.683   6.821  0.0229 -0.4935  0.2621
21212SOL    HW168321   9.909   4.616   6.799  0.2935 -0.8962  2.1153
21212SOL    HW268322   9.891   4.746   6.875 -0.5056  0.6223 -0.5452
21213SOL     OW68323  11.851   1.438   9.481 -0.0103 -0.0175  0.4107
21213SOL    HW168324  11.834   1.528   9.511  0.8163 -0.3595  2.0543
21213SOL    HW268325  11.796   1.384   9.537 -0.3537 -0.5620 -0.4418
21214SOL     OW68326  10.546   9.749  11.452  0.8559 -0.0159 -0.1862
21214SOL    HW168327  10.555   9.708  11.366  0.5950  1.4649 -0.9385
21214SOL    HW268328  10.456   9.730  11.479  1.0430 -0.7719 -0.0726
21215SOL     OW68329   6.912   8.231   9.987  0.0231 -0.0738 -0.3192
21215SOL    HW168330   6.983   8.288  10.018  0.1525  0.2185 -1.1177
21215SOL    HW268331   6.832   8.274  10.019  0.0673  1.0403 -1.5776
21216SOL     OW68332   9.655  10.388   0.941  0.1471 -0.0228  0.1119
21216SOL    HW168333   9.657  10.294   0.923 -0.8053 -0.6996  2.9818
21216SOL    HW268334   9.579  10.400   0.998  1.5617  2.0659  1.7342
21217SOL     OW68335   9.924   6.281   4.439 -0.0200  0.0672  0.2194
21217SOL    HW168336   9.859   6.347   4.417  0.2581 -0.1729 -1.4860
21217SOL    HW268337   9.993   6.293   4.374  0.2218 -1.6310  0.1109
21218SOL     OW68338   6.324   4.961  10.477 -0.4067  0.3245  0.0861
21218SOL    HW168339   6.245   4.961  10.531  1.2067  0.3943  2.6423
21218SOL    HW268340   6.361   5.048  10.489  1.2195 -0.4315  0.8417
21219SOL     OW68341   0.556   1.987   7.564 -0.0732 -0.1117 -0.3577
21219SOL    HW168342   0.463   1.996   7.543 -0.1892  0.6462  0.4257
21219SOL    HW268343   0.577   1.897   7.541 -1.6092 -1.0701  1.6224
21220SOL     OW68344   6.783   3.536   6.322 -0.1184  0.2026  0.0079
21220SOL    HW168345   6.790   3.510   6.230  2.1999 -0.9110  0.4377
21220SOL    HW268346   6.689   3.531   6.341 -0.4146 -1.9580 -1.6403
21221SOL     OW68347   7.554  11.718   6.091 -0.1131 -0.3801 -0.6192
21221SOL    HW168348   7.641  11.708   6.130  0.0565  0.7477 -0.6962
21221SOL    HW268349   7.564  11.685   6.002 -0.4700 -2.8496  0.1780
21222SOL     OW68350   0.699   4.548   8.448 -0.3421 -0.0878 -0.2186
21222SOL    HW168351   0.774   4.536   8.389 -1.9294  0.1636 -2.4045
21222SOL    HW268352   0.712   4.482   8.516  1.2123 -0.9105 -1.2344
21223SOL     OW68353   6.018   4.926  11.303  0.3963 -0.3400  0.4588
21223SOL    HW168354   6.010   4.913  11.209  0.8305 -0.1218  0.3861
21223SOL    HW268355   6.079   4.858  11.331 -0.2762 -0.8495  0.7004
21224SOL     OW68356  11.551   7.556   8.235 -0.2923  0.6750 -0.0906
21224SOL    HW168357  11.635   7.601   8.234 -0.0962  0.3069 -0.5136
21224SOL    HW268358  11.536   7.530   8.144  0.7161 -2.0899  0.4116
21225SOL     OW68359   5.873  10.145   2.768  0.3761  0.3332  0.0359
21225SOL    HW168360   5.872  10.101   2.683 -0.7014 -1.3197  0.8479
21225SOL    HW268361   5.901  10.077   2.830 -3.8116 -0.1623  1.7316
21226SOL     OW68362   1.873   7.722   4.305 -0.2996 -0.2226  0.1914
21226SOL    HW168363   1.905   7.705   4.216  0.6070  2.1008  0.0024
21226SOL    HW268364   1.926   7.666   4.361  0.1547 -0.6166 -0.6223
21227SOL     OW68365   1.054   9.323  10.736 -0.4244 -0.4370  0.2211
21227SOL    HW168366   1.112   9.271  10.680  2.1328  3.1949 -0.9097
21227SOL    HW268367   1.067   9.288  10.823  2.0036 -1.0887 -0.3262
21228SOL     OW68368   9.924   4.472   5.438  0.2642  0.0654  0.7223
21228SOL    HW168369   9.914   4.482   5.343 -0.1910  0.8161  0.8509
21228SOL    HW268370   9.898   4.381   5.455  0.7732 -0.2127  0.0774
21229SOL     OW68371   4.371   1.151   5.782  0.4865 -0.5437  0.1104
21229SOL    HW168372   4.362   1.081   5.846 -1.7128 -0.0217  0.4367
21229SOL    HW268373   4.451   1.197   5.809  2.8637 -3.6527 -0.9543
21230SOL     OW68374   2.841   1.028   9.261  0.0117  0.3413 -0.7267
21230SOL    HW168375   2.748   1.044   9.279  0.2475  1.1402 -0.1365
21230SOL    HW268376   2.847   1.024   9.166 -1.0316 -2.4330 -0.7608
21231SOL     OW68377   9.014   7.655   1.389 -0.2683 -0.3957  0.5133
21231SOL    HW168378   9.080   7.687   1.328  0.3669 -0.1570  1.3029
21231SOL    HW268379   9.006   7.562   1.368 -0.3631 -0.2269 -0.2064
21232SOL     OW68380   3.661   0.047   9.413  0.4657 -0.3748  0.4409
21232SOL    HW168381   3.599   0.108   9.452 -2.2381 -2.5520 -0.1565
21232SOL    HW268382   3.701   0.002   9.488  1.0938  0.8051  0.8264
21233SOL     OW68383   8.153  10.373   7.521 -0.0825  0.2510 -0.3655
21233SOL    HW168384   8.236  10.389   7.565  0.4733  0.2390 -1.3738
21233SOL    HW268385   8.086  10.404   7.582  0.6445 -0.0645  0.5951
21234SOL     OW68386   4.937  11.330   2.282  0.6850  0.1982  0.1844
21234SOL    HW168387   4.947  11.235   2.288  1.7254  0.1685 -1.5291
21234SOL    HW268388   4.901  11.355   2.368  2.6595 -1.4262  1.5935
21235SOL     OW68389   9.176   5.656   8.762  0.0253  0.3371  0.3346
21235SOL    HW168390   9.265   5.629   8.786 -0.1785  0.5940  1.4606
21235SOL    HW268391   9.180   5.670   8.668  1.1645  0.2927  0.3566
21236SOL     OW68392   6.384   8.299   1.583  0.0501 -0.1551 -0.1124
21236SOL    HW168393   6.308   8.311   1.640 -1.3757  2.2549 -2.3483
21236SOL    HW268394   6.379   8.208   1.555 -3.0350  0.3245 -1.4726
21237SOL     OW68395   4.223   9.143   8.560 -0.4198 -0.4070  0.1171
21237SOL    HW168396   4.158   9.082   8.528 -0.6561  0.0404 -0.2660
21237SOL    HW268397   4.174   9.204   8.615 -0.0325 -1.1297  1.3044
21238SOL     OW68398   7.809  10.297   4.602  0.3274  0.0034 -0.1039
21238SOL    HW168399   7.841  10.305   4.512  0.7878 -1.3758 -0.0864
21238SOL    HW268400   7.869  10.351   4.653  0.4099  0.3410 -0.5457
21239SOL     OW68401   4.306   7.543   3.297  1.0003  0.1562  0.5404
21239SOL    HW168402   4.250   7.613   3.330  0.1600 -0.5500  0.6438
21239SOL    HW268403   4.291   7.544   3.202  1.1038  0.2147  0.5247
21240SOL     OW68404   2.526   1.913   0.690  0.1767  0.3279  0.4490
21240SOL    HW168405   2.490   1.986   0.639  0.4255 -0.7210 -1.2956
21240SOL    HW268406   2.575   1.862   0.626 -1.3379 -2.2879  1.2541
21241SOL     OW68407  11.029   5.073   8.936 -0.0143  0.0531 -0.2739
21241SOL    HW168408  11.026   5.006   8.869 -2.4916 -0.7528  0.5406
21241SOL    HW268409  11.015   5.026   9.018 -0.3898  1.3998  0.4653
21242SOL     OW68410  11.781   4.593   2.677 -0.0025 -0.1350 -0.2683
21242SOL    HW168411  11.864   4.544   2.678 -0.7164 -1.3728  0.8029
21242SOL    HW268412  11.787   4.653   2.751  0.7649  1.2979 -1.4300
21243SOL     OW68413   0.254   7.364   2.168  0.3098  0.2048  0.4381
21243SOL    HW168414   0.182   7.425   2.187  1.1849  1.0236  1.1735
21243SOL    HW268415   0.246   7.295   2.234  1.3892  1.3466  1.8019
21244SOL     OW68416   3.733  10.695  11.218  0.0127  0.4841  0.2181
21244SOL    HW168417   3.792  10.672  11.289  0.2561 -0.5709 -0.3091
21244SOL    HW268418   3.743  10.790  11.209  1.0128  0.4386  0.6766
21245SOL     OW68419   5.766   5.376   1.495 -0.2648 -0.1080  0.6220
21245SOL    HW168420   5.770   5.283   1.472  0.9655 -0.5676  2.4840
21245SOL    HW268421   5.735   5.378   1.585 -0.8946  1.3583  0.4091
21246SOL     OW68422  11.534  11.762   4.342 -0.1708  0.5966 -0.2732
21246SOL    HW168423  11.623  11.792   4.360  0.6191 -1.5655 -0.3770
21246SOL    HW268424  11.516  11.698   4.412 -0.4385 -1.2838 -1.9815
21247SOL     OW68425  11.704   2.869   0.431  0.1300 -0.5186  0.4192
21247SOL    HW168426  11.660   2.896   0.512  1.9858  1.1164  0.9717
21247SOL    HW268427  11.705   2.949   0.378 -0.7373 -1.4786 -1.1081
21248SOL     OW68428  11.234   7.240   3.545  0.3703  0.6730  0.2683
21248SOL    HW168429  11.274   7.175   3.487  1.2165  0.3853  1.1423
21248SOL    HW268430  11.274   7.224   3.631  0.1283  1.9381  0.6442
21249SOL     OW68431   0.115   3.605  11.075 -0.3081  0.1061 -0.2934
21249SOL    HW168432   0.107   3.700  11.072 -0.5965  0.0658 -0.8758
21249SOL    HW268433   0.052   3.578  11.142 -1.2776  0.2205 -1.1282
21250SOL     OW68434   8.247   5.646   7.503 -0.4925  0.3224  0.0552
21250SOL    HW168435   8.284   5.706   7.567 -0.7760  0.7224 -0.1536
21250SOL    HW268436   8.177   5.695   7.461 -1.0468 -0.3124  0.2142
21251SOL     OW68437   5.216   0.796   4.536  0.3592 -0.1223 -0.0209
21251SOL    HW168438   5.166   0.852   4.476 -0.8509 -0.7046  0.4126
21251SOL    HW268439   5.213   0.843   4.620  0.0210 -0.4389  0.1480
21252SOL     OW68440  11.639  10.720   2.540  0.2528 -0.4408  0.2888
21252SOL    HW168441  11.557  10.762   2.514  0.6947 -0.5587 -1.4940
21252SOL    HW268442  11.677  10.779   2.605  0.1351  1.1780 -1.0252
21253SOL     OW68443  11.332   6.643   1.801 -0.5543  0.4696 -0.1995
21253SOL    HW168444  11.257   6.636   1.859  0.2752 -0.4610  0.8127
21253SOL    HW268445  11.408   6.646   1.860  0.2284  0.9597 -1.1971
21254SOL     OW68446   0.559   8.747   2.879 -0.2927 -0.1177 -0.0152
21254SOL    HW168447   0.494   8.689   2.918  0.4423 -0.3443  0.9098
21254SOL    HW268448   0.633   8.689   2.859  0.0522  0.3277 -0.0419
21255SOL     OW68449   1.955   3.028  10.923  0.3040  0.0191  0.2402
21255SOL    HW168450   2.021   3.031  10.993 -0.5688 -1.4190  1.1821
21255SOL    HW268451   1.901   3.106  10.938 -0.5156 -0.8030  1.8837
21256SOL     OW68452   9.706   3.667  10.053 -0.2572  0.5563 -0.1088
21256SOL    HW168453   9.784   3.688  10.104 -0.0152  1.6727 -0.8804
21256SOL    HW268454   9.716   3.719   9.973 -0.6392 -1.0953 -1.2722
21257SOL     OW68455   1.533   6.908   2.274 -0.2228  0.5392  0.8370
21257SOL    HW168456   1.584   6.839   2.231  0.2581  1.5517 -0.2625
21257SOL    HW268457   1.523   6.877   2.364 -0.0366 -0.9723  0.3716
21258SOL     OW68458   7.723   5.358   2.434 -0.2626  0.4165  0.8650
21258SOL    HW168459   7.642   5.357   2.486 -1.2306  2.5035 -0.4929
21258SOL    HW268460   7.701   5.308   2.355 -0.6118  1.7976  0.0486
21259SOL     OW68461   3.194   4.634  10.566 -0.0584 -0.1033 -0.2331
21259SOL    HW168462   3.196   4.709  10.626 -2.5103 -0.3034  0.1919
21259SOL    HW268463   3.221   4.671  10.482  0.6550  0.8268  0.3827
21260SOL     OW68464   0.967   9.482   6.556 -0.1148 -0.2822 -0.2016
21260SOL    HW168465   0.988   9.548   6.491  1.0276 -0.5980 -0.1693
21260SOL    HW268466   1.031   9.412   6.543  0.1694 -0.3397  1.2693
21261SOL     OW68467  11.191   8.342   1.443 -0.1396 -0.0162  0.3306
21261SOL    HW168468  11.139   8.332   1.523 -0.4479 -0.1257  0.1203
21261SOL    HW268469  11.126   8.358   1.374  0.1033 -0.1853  0.0589
21262SOL     OW68470  11.239  10.077   2.135  0.2502 -0.4228 -0.6437
21262SOL    HW168471  11.184  10.009   2.175 -0.2662 -0.0234 -0.6640
21262SOL    HW268472  11.188  10.157   2.145  0.7682 -0.0719 -0.8026
21263SOL     OW68473   7.457   4.738   1.915  0.0527  0.0316 -0.1263
21263SOL    HW168474   7.438   4.817   1.965 -2.6070 -1.4386  1.4131
21263SOL    HW268475   7.404   4.746   1.836 -2.8911 -1.5351  1.5410
21264SOL     OW68476  10.709   3.783   8.467  0.5033 -0.0906  0.0334
21264SOL    HW168477  10.684   3.782   8.374 -0.8220 -1.1015  0.3800
21264SOL    HW268478  10.787   3.727   8.471 -0.4124 -1.4312 -0.2381
21265SOL     OW68479   3.270   2.118   1.340  0.2745  0.0967  0.6954
21265SOL    HW168480   3.337   2.186   1.331 -1.2550  1.5395 -0.3463
21265SOL    HW268481   3.262   2.080   1.252  0.4352 -0.7980  1.0538
21266SOL     OW68482   4.882   0.164   1.456 -0.0084  0.3815  0.0115
21266SOL    HW168483   4.947   0.135   1.392  0.7430  0.5498  0.6931
21266SOL    HW268484   4.818   0.213   1.403  1.9222  2.7267 -0.3265
21267SOL     OW68485   0.637   8.025   5.331  0.0735  0.2642  0.0275
21267SOL    HW168486   0.636   8.071   5.247  1.1408  1.7269  0.7779
21267SOL    HW268487   0.721   7.978   5.331 -0.4737 -0.7546 -0.2181
21268SOL     OW68488   3.834   7.693   9.369 -0.2901 -0.6045  0.1566
21268SOL    HW168489   3.866   7.602   9.373 -0.5043 -0.6830  0.1087
21268SOL    HW268490   3.913   7.745   9.352 -0.0201 -0.6805  1.1310
21269SOL     OW68491   0.821   8.958   8.735 -0.2995 -0.4237 -0.6008
21269SOL    HW168492   0.863   8.878   8.704 -0.1507 -1.4398  2.0423
21269SOL    HW268493   0.887   9.026   8.721  1.0537 -1.4431  0.5637
21270SOL     OW68494  11.195  11.352   6.561 -0.0765  0.1618  0.3165
21270SOL    HW168495  11.290  11.347   6.549 -0.3390 -0.9743 -1.5803
21270SOL    HW268496  11.167  11.262   6.573 -1.1108  0.2876 -0.9503
21271SOL     OW68497   4.963   9.364   5.566  0.3381 -0.8943 -0.3617
21271SOL    HW168498   4.919   9.297   5.619  1.0323 -1.2311 -0.1882
21271SOL    HW268499   4.893   9.409   5.520 -0.3229 -0.3921  1.0774
21272SOL     OW68500   9.355  10.673   7.715  0.0551 -0.1220  0.4148
21272SOL    HW168501   9.384  10.764   7.705 -0.2549  0.0211  0.7915
21272SOL    HW268502   9.408  10.638   7.787  0.7212 -0.4773 -0.2377
21273SOL     OW68503   2.374   0.431   2.105  0.1567 -0.0028 -0.5539
21273SOL    HW168504   2.351   0.349   2.061  0.5783  0.4307 -1.6223
21273SOL    HW268505   2.344   0.499   2.045  0.7363  0.6115 -0.1569
21274SOL     OW68506   7.744   6.732  11.817  0.0823 -0.2545  0.2335
21274SOL    HW168507   7.837   6.724  11.841  0.4922 -0.3602 -1.3306
21274SOL    HW268508   7.729   6.661  11.755 -1.6730 -1.7097  2.1793
21275SOL     OW68509   8.885   2.525   8.397 -0.7508 -0.4371  0.4037
21275SOL    HW168510   8.897   2.599   8.457 -1.1962 -0.4258  0.4830
21275SOL    HW268511   8.885   2.448   8.454  1.7304 -0.6951  0.1258
21276SOL     OW68512   7.883  11.061   7.120  0.0770 -0.2116  0.4804
21276SOL    HW168513   7.905  11.124   7.188  0.9455 -0.8438  0.7983
21276SOL    HW268514   7.790  11.077   7.102  0.1873  0.8793  0.8338
21277SOL     OW68515   1.744  11.732   2.378  0.8689 -0.2138 -0.0096
21277SOL    HW168516   1.764  11.711   2.287  1.9169 -1.0737  0.3987
21277SOL    HW268517   1.782  11.819   2.392  1.9703 -0.6752 -0.0171
21278SOL     OW68518   7.496   8.066   8.670 -0.3411 -0.1949 -0.0072
21278SOL    HW168519   7.488   8.031   8.581  0.8032 -1.4839  0.3680
21278SOL    HW268520   7.478   7.991   8.727 -2.2288  0.8678  0.9077
21279SOL     OW68521   6.539   0.237   8.031  0.5905  0.0735 -0.8017
21279SOL    HW168522   6.494   0.287   7.963  0.3012 -0.8537 -1.3194
21279SOL    HW268523   6.469   0.206   8.088  0.7881  0.4488 -0.3545
21280SOL     OW68524   0.000   8.026   1.673  0.2433  0.2180  0.4734
21280SOL    HW168525   0.051   8.030   1.754  0.1721 -0.1345  0.5364
21280SOL    HW268526   0.063   8.050   1.604  0.4996 -0.2184  0.5506
21281SOL     OW68527   9.415   1.833   4.679 -0.1148  0.5922 -0.2518
21281SOL    HW168528   9.444   1.887   4.752  0.8229 -0.9768  0.5825
21281SOL    HW268529   9.489   1.832   4.618 -0.3792  0.7639 -0.5839
21282SOL     OW68530  10.926   6.674   7.681  0.6586  0.1512 -0.0902
21282SOL    HW168531  10.858   6.608   7.668  1.2412 -0.5283  0.1924
21282SOL    HW268532  10.893   6.730   7.751  0.0956  0.2433 -0.4287
21283SOL     OW68533   3.802   5.356   6.662 -0.8445  0.3841  0.6797
21283SOL    HW168534   3.853   5.349   6.582  0.1744 -3.3078  1.4541
21283SOL    HW268535   3.713   5.374   6.632 -0.8421 -2.5508 -1.5552
21284SOL     OW68536   9.495   3.000   2.064  0.5340 -0.2633  0.0061
21284SOL    HW168537   9.521   3.035   1.979 -1.3400 -0.1818 -0.5759
21284SOL    HW268538   9.564   3.030   2.124 -0.4523  3.8040 -0.5710
21285SOL     OW68539   2.561   9.688   2.023  0.4760 -0.0678  0.0189
21285SOL    HW168540   2.622   9.677   2.095  0.8584 -0.7888 -0.4022
21285SOL    HW268541   2.476   9.663   2.058  0.6847 -0.5567  0.1795
21286SOL     OW68542   6.199   4.599   5.092 -0.6364 -0.1099 -0.2198
21286SOL    HW168543   6.134   4.614   5.024 -0.4167 -1.3735 -0.7452
21286SOL    HW268544   6.196   4.678   5.146  0.0899  1.5450 -2.4180
21287SOL     OW68545   7.692   0.201   2.600  0.3251  0.0483 -0.0018
21287SOL    HW168546   7.627   0.167   2.662  0.8805  0.6909  0.9560
21287SOL    HW268547   7.747   0.125   2.580  1.2600  0.2204  1.7392
21288SOL     OW68548  10.021   9.762   6.715 -0.6827  0.0504 -0.6575
21288SOL    HW168549  10.089   9.729   6.656  1.0206  0.2524  1.1024
21288SOL    HW268550   9.946   9.705   6.699  0.5763 -1.5275 -1.1724
21289SOL     OW68551   2.261   7.980   0.905 -0.3215 -0.0862 -0.2315
21289SOL    HW168552   2.184   7.932   0.872 -0.3056 -1.0597  1.0790
21289SOL    HW268553   2.232   8.072   0.908 -1.8662 -0.5643  1.3164
21290SOL     OW68554   0.573   4.765   4.294  0.3616 -0.4170 -0.4595
21290SOL    HW168555   0.596   4.854   4.320  2.4527 -1.0654  0.0970
21290SOL    HW268556   0.576   4.767   4.198 -0.6542  0.3518 -0.4875
21291SOL     OW68557   0.044   4.491   4.038  0.3311 -0.3804  0.9790
21291SOL    HW168558   0.069   4.568   4.089  0.5138  0.8125 -0.8197
21291SOL    HW268559   0.096   4.497   3.958 -1.6411 -0.8572 -0.4155
21292SOL     OW68560  11.976   0.874  11.299  0.1611  0.0939  0.0132
21292SOL    HW168561  11.912   0.892  11.229 -0.3420  1.4135  0.7764
21292SOL    HW268562  11.980   0.955  11.349  2.1603 -0.0802  0.2331
21293SOL     OW68563   9.882   8.156  10.391  0.1575  0.4639 -0.6853
21293SOL    HW168564   9.850   8.092  10.455 -1.8363  1.2124 -0.8628
21293SOL    HW268565   9.851   8.122  10.307  0.3700  0.9039 -0.9404
21294SOL     OW68566   1.689  11.651   7.895  0.1182  0.9580 -0.3293
21294SOL    HW168567   1.707  11.686   7.808  1.6979  1.8533  0.3128
21294SOL    HW268568   1.749  11.699   7.953 -0.4656 -0.0428  1.1674
21295SOL     OW68569   6.008  12.000   7.677  0.2682  0.1930  0.1802
21295SOL    HW168570   6.085  12.010   7.621 -0.1971  0.9716 -0.3424
21295SOL    HW268571   5.978  12.090   7.691 -0.4386 -0.0971  0.5312
21296SOL     OW68572  10.844   2.700   6.393 -0.0025 -0.5705 -0.0891
21296SOL    HW168573  10.878   2.762   6.456  1.6462 -1.7711  0.2616
21296SOL    HW268574  10.754   2.730   6.376  0.8560  2.1570 -0.3315
21297SOL     OW68575  10.836  10.247   9.457 -0.6950  0.2952 -0.2025
21297SOL    HW168576  10.908  10.188   9.433 -1.2512  0.0064 -1.1783
21297SOL    HW268577  10.798  10.274   9.374 -2.5172 -0.5308  0.3103
21298SOL     OW68578   2.794  11.771   6.984  0.4700 -0.2243  0.2232
21298SOL    HW168579   2.740  11.692   6.982 -0.6839  0.5499 -1.4805
21298SOL    HW268580   2.807  11.789   7.077 -2.1107 -0.5174  0.6990
21299SOL     OW68581  10.459   4.812   4.647  0.1475 -0.3438  0.1785
21299SOL    HW168582  10.481   4.811   4.554 -2.2161 -1.1725 -0.4288
21299SOL    HW268583  10.520   4.749   4.686  0.9386 -0.2400 -0.8333
21300SOL     OW68584   6.815  10.266   3.117 -0.1024 -0.3321  0.0011
21300SOL    HW168585   6.833  10.193   3.176  1.5255  0.7076  0.8695
21300SOL    HW268586   6.844  10.236   3.031 -0.6359 -1.1441  0.0962
21301SOL     OW68587   8.980   7.187   7.789  0.1330 -0.4143  0.4823
21301SOL    HW168588   9.041   7.260   7.782  0.2711 -0.5335  0.4326
21301SOL    HW268589   9.036   7.109   7.791  0.0050 -0.4970  0.9099
21302SOL     OW68590   2.207   7.075   4.654 -0.1362  0.2243  0.5193
21302SOL    HW168591   2.199   7.135   4.580 -0.2285 -1.4290 -0.8682
21302SOL    HW268592   2.190   6.989   4.617  1.1953 -0.8160  2.1972
21303SOL     OW68593   0.308  11.262   0.767  0.3738  0.3764  0.3592
21303SOL    HW168594   0.213  11.275   0.771  0.3071 -0.0636  0.3387
21303SOL    HW268595   0.344  11.323   0.831  0.1150  0.8976  0.0165
21304SOL     OW68596   0.514   3.821   1.879 -0.2637  0.3772  0.5958
21304SOL    HW168597   0.473   3.741   1.846  0.3280  0.6144 -0.7908
21304SOL    HW268598   0.469   3.838   1.962 -2.9300  0.5823 -0.7826
21305SOL     OW68599  10.276   5.544   3.290  0.4062 -0.2232 -0.4114
21305SOL    HW168600  10.220   5.528   3.366 -0.1628 -0.2011 -0.8189
21305SOL    HW268601  10.215   5.553   3.217  0.8896  0.6977 -0.7156
21306SOL     OW68602   1.772   2.767   4.605  0.0944 -0.2107 -0.6369
21306SOL    HW168603   1.763   2.682   4.561 -0.3688  0.0310 -1.0069
21306SOL    HW268604   1.801   2.827   4.536  0.2831 -0.0354 -0.4051
21307SOL     OW68605   2.780   8.724   9.597  0.5774  0.0436 -0.0672
21307SOL    HW168606   2.804   8.816   9.586  1.3789 -0.1056  0.3277
21307SOL    HW268607   2.688   8.725   9.624  0.0473  0.6308 -1.7966
21308SOL     OW68608  11.754   1.564   4.802 -0.5662  0.1661  0.4051
21308SOL    HW168609  11.698   1.486   4.797 -0.3013 -0.1241  1.6218
21308SOL    HW268610  11.701   1.628   4.849 -0.7760  0.7232 -0.5842
21309SOL     OW68611  10.280  11.040   7.621  0.0059 -0.1024  0.2925
21309SOL    HW168612  10.231  11.118   7.595  0.9374 -0.0075 -1.2502
21309SOL    HW268613  10.250  11.022   7.710 -1.5911  0.9217 -0.0005
21310SOL     OW68614   1.911   2.913   9.696  0.4978 -0.2610  0.4718
21310SOL    HW168615   1.876   2.879   9.614  0.6630  0.8889 -0.0888
21310SOL    HW268616   1.897   2.842   9.759 -1.2301 -0.5092 -0.1352
21311SOL     OW68617   8.305   6.902  11.461 -0.1526  0.5259  0.3444
21311SOL    HW168618   8.221   6.924  11.419 -0.9503 -0.0263  1.6053
21311SOL    HW268619   8.283   6.889  11.553  1.2768  0.0316  0.6360
21312SOL     OW68620   0.561   2.367  11.909  0.0987  0.6510 -0.2612
21312SOL    HW168621   0.490   2.312  11.943 -1.0529  0.9485 -2.0014
21312SOL    HW268622   0.522   2.455  11.903  1.0280  1.0878 -0.0693
21313SOL     OW68623   9.692   6.992   7.345 -0.2933  0.0603 -0.3148
21313SOL    HW168624   9.627   7.024   7.407 -0.1608 -0.0677 -0.1050
21313SOL    HW268625   9.647   6.924   7.295 -0.2226 -0.2679  0.0630
21314SOL     OW68626   3.487  11.520   6.409  0.3104 -0.7972  0.0240
21314SOL    HW168627   3.454  11.445   6.361  0.5108 -1.4824  0.9255
21314SOL    HW268628   3.410  11.575   6.425 -0.0233 -1.3289  0.2635
21315SOL     OW68629   4.371   0.794   1.330 -0.3387 -0.0171  0.3327
21315SOL    HW168630   4.439   0.854   1.298  0.7770 -0.2038  2.1972
21315SOL    HW268631   4.397   0.708   1.296 -3.6685  0.6693 -5.1386
21316SOL     OW68632  10.094  10.605   6.605  0.2152 -0.3390  0.4239
21316SOL    HW168633  10.118  10.586   6.514  0.4634 -0.0402  0.4242
21316SOL    HW268634  10.134  10.535   6.656 -0.5319 -0.9111  0.2328
21317SOL     OW68635   7.995   8.609   9.986  0.2711  0.4531  0.3526
21317SOL    HW168636   7.953   8.581   9.904 -0.2882  0.2311  0.7113
21317SOL    HW268637   8.083   8.571   9.982  0.4705  0.9746 -0.4343
21318SOL     OW68638   3.816  10.807   3.392 -0.3482  0.1051  0.1092
21318SOL    HW168639   3.816  10.888   3.444  0.1370 -0.6960  1.3877
21318SOL    HW268640   3.869  10.746   3.442 -0.4541 -0.9311 -0.9941
21319SOL     OW68641   8.602   7.654  10.236 -0.1052  0.2006  0.5193
21319SOL    HW168642   8.654   7.730  10.261 -0.7476  0.4031  1.2702
21319SOL    HW268643   8.647   7.618  10.160 -1.0626  2.7156 -1.3725
21320SOL     OW68644   7.280   1.719   8.858  0.0173 -0.1723 -0.5194
21320SOL    HW168645   7.252   1.649   8.916  1.7448  0.7948  1.6470
21320SOL    HW268646   7.199   1.758   8.826 -1.0299 -0.9396  1.0650
21321SOL     OW68647  10.262   5.985  10.787  0.3881  0.0142  0.4257
21321SOL    HW168648  10.248   6.078  10.800  0.3114  0.0820 -0.1226
21321SOL    HW268649  10.210   5.943  10.855  0.3230  0.3673  0.5938
21322SOL     OW68650   6.713   1.165   9.222 -0.3264 -0.2626  0.0238
21322SOL    HW168651   6.686   1.074   9.207  1.2647 -0.6625 -0.6226
21322SOL    HW268652   6.733   1.168   9.315  1.2206 -1.0689 -0.2464
21323SOL     OW68653  10.915   9.395   4.636  0.3554 -0.0128 -0.0297
21323SOL    HW168654  10.879   9.456   4.572 -0.0304  0.3500  0.5240
21323SOL    HW268655  11.002   9.429   4.656  0.1190  0.4014  0.3212
21324SOL     OW68656  11.466   6.326   8.787  0.4034  0.2468  0.3050
21324SOL    HW168657  11.372   6.320   8.804  0.3748 -2.9897 -0.4897
21324SOL    HW268658  11.473   6.334   8.692  0.9500 -0.7857  0.2501
21325SOL     OW68659   8.073   7.028   6.980  0.3480 -0.1957  0.0691
21325SOL    HW168660   8.048   6.954   7.035 -0.5437 -0.5431 -0.7938
21325SOL    HW268661   8.053   7.105   7.034 -0.5457 -0.5296  0.2249
21326SOL     OW68662   9.747   6.799   5.550 -0.2003  0.4347 -0.4022
21326SOL    HW168663   9.695   6.775   5.627 -1.5835 -1.1826 -1.7809
21326SOL    HW268664   9.718   6.739   5.481  1.8665  1.0281 -1.8775
21327SOL     OW68665   1.558  10.405   6.929 -0.8941  0.1214 -0.3961
21327SOL    HW168666   1.643  10.432   6.962 -0.6030  0.0243 -1.0691
21327SOL    HW268667   1.527  10.342   6.994  0.3173 -1.1691 -1.0208
21328SOL     OW68668   6.550   2.354   7.979 -0.2777 -0.1542  0.5490
21328SOL    HW168669   6.638   2.391   7.984 -0.3803  0.8426 -2.8253
21328SOL    HW268670   6.492   2.428   7.989 -0.6419 -0.3067 -0.3944
21329SOL     OW68671   8.378   6.867   9.571 -0.2079 -0.3524 -0.1076
21329SOL    HW168672   8.454   6.924   9.578 -0.1124 -0.5505  0.5815
21329SOL    HW268673   8.414   6.783   9.543 -0.2212 -0.3405 -0.1597
21330SOL     OW68674   1.860   1.935   7.461  0.0351  0.1093  0.8106
21330SOL    HW168675   1.861   2.029   7.481 -1.1083  0.6051 -1.1607
21330SOL    HW268676   1.917   1.926   7.384 -1.7309 -0.3612 -0.5134
21331SOL     OW68677   8.500  11.451   3.268 -0.0916 -0.3501 -0.7505
21331SOL    HW168678   8.582  11.404   3.284 -0.8046 -1.7450 -1.0283
21331SOL    HW268679   8.437  11.409   3.327 -0.8374  0.0648 -1.2377
21332SOL     OW68680  10.561   9.710   9.760 -0.4179  0.0422 -0.4970
21332SOL    HW168681  10.589   9.785   9.813 -0.8160 -0.8110  0.9713
21332SOL    HW268682  10.465   9.717   9.758 -0.4126  0.0097 -1.0523
21333SOL     OW68683   2.870   9.564   3.000 -0.8137 -0.8511  0.5200
21333SOL    HW168684   2.784   9.606   3.009  0.0532  0.9030  1.0007
21333SOL    HW268685   2.912   9.612   2.928  0.3134 -0.7126  1.2573
21334SOL     OW68686   2.465   5.781   7.817  0.2126 -0.4769  0.3315
21334SOL    HW168687   2.510   5.724   7.880 -0.9117 -0.3637  1.2691
21334SOL    HW268688   2.391   5.817   7.866 -0.2895  0.1668 -0.8642
21335SOL     OW68689   3.799   0.871   3.485  0.0023 -0.7629  0.5767
21335SOL    HW168690   3.879   0.827   3.512  0.5811  0.2256  0.5262
21335SOL    HW268691   3.782   0.934   3.554  1.9701  2.4060 -1.5554
21336SOL     OW68692   2.195   4.011   5.899  0.5217  0.3444 -0.2271
21336SOL    HW168693   2.129   4.044   5.960  0.3243  1.6985 -1.1285
21336SOL    HW268694   2.171   4.049   5.815  1.8146 -0.0365 -0.8002
21337SOL     OW68695   5.151   7.385   4.662 -0.2148  0.0137 -0.1482
21337SOL    HW168696   5.091   7.430   4.604 -1.7005  0.4390  1.6114
21337SOL    HW268697   5.107   7.386   4.747  1.2491 -1.7414  0.7050
21338SOL     OW68698   5.429   1.554  10.057  0.8712 -0.1929  0.0299
21338SOL    HW168699   5.377   1.481  10.021  0.4704 -0.7240  1.6041
21338SOL    HW268700   5.485   1.513  10.123  0.2946  0.9815  1.2878
21339SOL     OW68701   0.322   8.885   9.111  0.4595 -0.3382  0.9339
21339SOL    HW168702   0.249   8.834   9.077  0.2203  0.4046  0.3245
21339SOL    HW268703   0.396   8.824   9.109 -0.1216 -1.0857  1.5351
21340SOL     OW68704   6.926  10.183   3.771 -0.5497  0.1362 -0.0237
21340SOL    HW168705   6.898  10.142   3.689  1.3672 -2.1083  0.3520
21340SOL    HW268706   6.950  10.272   3.746 -1.8125  0.1077 -1.4907
21341SOL     OW68707   8.074  11.534   7.752  0.0695 -0.3271 -0.2100
21341SOL    HW168708   8.116  11.521   7.667 -0.9968 -1.1738 -0.6402
21341SOL    HW268709   7.990  11.489   7.744 -0.6991  0.8579  0.7904
21342SOL     OW68710   0.127  11.384   2.785  0.3497  0.4033 -0.4152
21342SOL    HW168711   0.164  11.472   2.796  3.0156 -0.4863 -1.6612
21342SOL    HW268712   0.114  11.375   2.691 -0.5405 -0.3322 -0.2343
21343SOL     OW68713  10.375   8.997  10.132 -0.6098  0.5527 -0.1458
21343SOL    HW168714  10.432   8.920  10.135  0.0380  1.0353  0.0436
21343SOL    HW268715  10.314   8.978  10.061 -1.5521 -0.8812  0.9657
21344SOL     OW68716  11.067   0.978  11.792 -0.2374 -0.4950  0.6582
21344SOL    HW168717  10.989   0.968  11.846  0.4666 -0.7868  1.6663
21344SOL    HW268718  11.094   0.888  11.773  0.5313 -0.4337  1.3692
21345SOL     OW68719   2.597   4.761  11.897 -0.1941  0.4313 -0.4884
21345SOL    HW168720   2.631   4.783  11.984 -1.9931 -1.3309  0.7371
21345SOL    HW268721   2.664   4.794  11.836  1.9138  0.2897  1.6130
21346SOL     OW68722   6.607   7.997   1.100  0.0868 -0.1359  0.0060
21346SOL    HW168723   6.624   8.068   1.039 -1.8538  1.1938  0.9168
21346SOL    HW268724   6.570   8.039   1.177 -0.7576 -2.0863  0.7418
21347SOL     OW68725   2.158   0.062   2.615 -0.2925  0.0258  0.0219
21347SOL    HW168726   2.106   0.099   2.686 -0.4172 -0.9656  0.4585
21347SOL    HW268727   2.248   0.064   2.647 -0.2354  0.4351 -0.1649
21348SOL     OW68728   7.078   5.068   6.762 -0.2817 -0.0237  0.5807
21348SOL    HW168729   7.094   5.096   6.671  1.2362 -3.1108 -0.2154
21348SOL    HW268730   6.983   5.062   6.768 -0.4098  0.0842 -0.8784
21349SOL     OW68731   6.794   0.042   0.522 -0.0471 -0.2947 -0.0971
21349SOL    HW168732   6.879   0.060   0.482  0.0698  2.0569  1.0462
21349SOL    HW268733   6.805  -0.042   0.566  0.6734 -1.5595 -2.5152
21350SOL     OW68734   1.889   9.994  10.181  1.5200 -0.0680 -0.2677
21350SOL    HW168735   1.914   9.902  10.183  0.1631 -0.4681 -0.4197
21350SOL    HW268736   1.808   9.996  10.130  0.5903  0.9505  1.1625
21351SOL     OW68737   4.935   9.253   5.016 -0.2485  0.1895  0.1875
21351SOL    HW168738   4.919   9.347   5.009  1.6913  0.6545  1.2461
21351SOL    HW268739   4.984   9.231   4.937 -2.7403 -0.4831 -1.2570
21352SOL     OW68740   4.557  10.887   5.274 -0.2838  0.0102 -0.5207
21352SOL    HW168741   4.522  10.803   5.303 -0.6588  1.3434  3.4024
21352SOL    HW268742   4.479  10.936   5.245 -0.5281  0.1091  0.2912
21353SOL     OW68743   1.295   6.555   2.560 -0.1385  0.0731 -0.1372
21353SOL    HW168744   1.217   6.555   2.615  0.3314 -0.7577  0.5670
21353SOL    HW268745   1.280   6.484   2.498 -0.0944  0.1441 -0.2286
21354SOL     OW68746  10.276  11.558   2.352 -0.3184  0.3814  0.0722
21354SOL    HW168747  10.356  11.519   2.388  1.3581  2.0418 -1.5822
21354SOL    HW268748  10.217  11.484   2.339  0.8720 -0.8948  1.4968
21355SOL     OW68749   2.164  11.894   1.464  0.2672  0.4510 -0.0501
21355SOL    HW168750   2.185  11.803   1.443  0.8281  0.8056 -1.0863
21355SOL    HW268751   2.103  11.921   1.395 -1.0011  0.4544  1.0404
21356SOL     OW68752   8.204   5.388  10.613 -0.1078 -0.3511  0.3882
21356SOL    HW168753   8.136   5.342  10.564  0.9713 -1.1684 -0.3644
21356SOL    HW268754   8.163   5.472  10.636 -1.4368 -0.8984  0.1339
21357SOL     OW68755  10.605  11.223   2.042 -0.2463  0.3125  0.3214
21357SOL    HW168756  10.673  11.285   2.013 -0.2439  0.0118 -0.3326
21357SOL    HW268757  10.631  11.140   2.003 -2.0600  0.5924 -1.6686
21358SOL     OW68758   1.131   6.755   7.522 -0.1129  0.2054  0.3235
21358SOL    HW168759   1.062   6.705   7.566  0.0847  0.3799  0.8433
21358SOL    HW268760   1.085   6.829   7.481 -0.3250 -0.0674  0.0690
21359SOL     OW68761   6.493   0.890   7.974  0.3974 -0.3018 -1.2993
21359SOL    HW168762   6.562   0.924   7.918  0.5316 -0.5688 -1.2953
21359SOL    HW268763   6.423   0.955   7.967  1.7056  1.5100  0.9701
21360SOL     OW68764  10.157  11.486  10.522 -0.0711 -0.2915 -0.0042
21360SOL    HW168765  10.189  11.568  10.483 -0.4333 -0.0590  0.1782
21360SOL    HW268766  10.096  11.452  10.457  0.2436 -0.5271 -0.1737
21361SOL     OW68767   1.214   7.131   3.928  0.2577  0.1828  0.3951
21361SOL    HW168768   1.257   7.101   3.848  2.0492 -1.4704  1.8994
21361SOL    HW268769   1.195   7.051   3.977 -2.7931  0.9974  0.7277
21362SOL     OW68770   0.461  11.755   4.272  0.6271  0.4178 -0.0599
21362SOL    HW168771   0.424  11.772   4.359  1.6752  0.1995  0.4411
21362SOL    HW268772   0.555  11.756   4.286  0.7960 -1.6689 -0.8085
21363SOL     OW68773   2.444   2.194   0.983 -0.1870  0.4385  0.2474
21363SOL    HW168774   2.476   2.124   1.041 -1.2692 -0.7240 -0.4891
21363SOL    HW268775   2.385   2.245   1.038 -1.1116 -0.5830  0.2577
21364SOL     OW68776   4.541   1.010   7.629  0.0275 -0.0055 -0.0781
21364SOL    HW168777   4.469   1.052   7.676 -0.4486 -0.7272 -0.1241
21364SOL    HW268778   4.591   1.081   7.590 -0.4884  0.5232  0.2231
21365SOL     OW68779   8.811   9.410   9.884  0.0133 -0.4375  0.6358
21365SOL    HW168780   8.902   9.433   9.867  0.1440 -1.2953  0.1262
21365SOL    HW268781   8.762   9.455   9.815  0.3046 -1.9220 -0.5819
21366SOL     OW68782   1.431   9.543   8.879  0.7243 -0.1724 -0.0117
21366SOL    HW168783   1.477   9.528   8.797  0.0700  0.6950 -0.5532
21366SOL    HW268784   1.406   9.456   8.909  0.6457 -0.4681 -0.9168
21367SOL     OW68785   2.954   3.247   1.780  0.3674  0.0153  0.1409
21367SOL    HW168786   2.879   3.232   1.837  0.7042 -1.9475  0.1502
21367SOL    HW268787   3.027   3.205   1.825  1.2799  1.0638 -0.3186
21368SOL     OW68788  10.906   5.951   9.137  0.6772 -0.3001 -0.6497
21368SOL    HW168789  10.935   5.860   9.142  1.7237  0.0558  0.0141
21368SOL    HW268790  10.986   6.001   9.122  0.6922  0.8263  2.3727
21369SOL     OW68791   7.149  11.586   8.205  0.2233 -0.0033  0.3942
21369SOL    HW168792   7.176  11.625   8.288 -1.3603 -0.8626  1.3453
21369SOL    HW268793   7.063  11.624   8.187 -0.1937 -1.0917  0.0173
21370SOL     OW68794   2.775   7.058   1.555 -0.0563  0.6938  0.6600
21370SOL    HW168795   2.849   7.025   1.607 -0.5933 -0.4484  0.7324
21370SOL    HW268796   2.808   7.059   1.466  0.0006 -0.0022  0.6653
21371SOL     OW68797   3.539   4.470   0.374  0.0496 -0.2778 -0.1438
21371SOL    HW168798   3.464   4.439   0.323 -0.5318  1.0254 -0.1355
21371SOL    HW268799   3.513   4.459   0.466 -0.7096  1.3410 -0.1177
21372SOL     OW68800  10.158   6.427  11.520 -0.2245 -0.6053 -0.1245
21372SOL    HW168801  10.167   6.480  11.600  0.9833  0.3941 -0.8879
21372SOL    HW268802  10.220   6.355  11.532  1.1574  0.4260 -0.8110
21373SOL     OW68803   0.200   1.032   0.157  0.1801 -0.2439 -0.3816
21373SOL    HW168804   0.198   0.938   0.174  0.6656  0.2218  2.8340
21373SOL    HW268805   0.281   1.062   0.199  0.6593  1.4968 -2.3730
21374SOL     OW68806   7.854   5.080   1.118  0.0049  0.0420  0.3675
21374SOL    HW168807   7.925   5.032   1.161  0.3081  0.4819  0.3607
21374SOL    HW268808   7.895   5.158   1.083 -0.3787  0.0327 -0.1184
21375SOL     OW68809   2.352   4.549  11.468 -0.2333 -0.5526  0.1294
21375SOL    HW168810   2.314   4.473  11.512 -1.2824 -0.2062 -0.1455
21375SOL    HW268811   2.279   4.610  11.458  0.8326  1.0269  1.4265
21376SOL     OW68812   4.472   7.651   1.187 -0.0551  0.1056 -0.1408
21376SOL    HW168813   4.404   7.586   1.206 -0.8529  1.3367  1.4517
21376SOL    HW268814   4.444   7.691   1.104  1.4108 -2.7237 -2.1488
21377SOL     OW68815   2.395   5.161   0.142 -0.6208  0.3030 -0.1299
21377SOL    HW168816   2.436   5.209   0.070  0.5488  0.5040  0.6368
21377SOL    HW268817   2.313   5.128   0.105 -1.2792  2.5044 -0.8200
21378SOL     OW68818   5.255   4.222  11.772  0.0910 -0.1777 -0.1539
21378SOL    HW168819   5.268   4.153  11.708 -1.3962 -1.5064  0.8845
21378SOL    HW268820   5.172   4.263  11.747 -0.1476 -0.2499  0.4815
21379SOL     OW68821   1.347  11.400   8.840  0.6200  0.6008  0.5145
21379SOL    HW168822   1.371  11.387   8.931  0.1008  0.4408  0.6351
21379SOL    HW268823   1.259  11.438   8.843  0.3068 -0.0606  0.0758
21380SOL     OW68824   1.917   1.170   9.728 -0.2284  0.3082 -0.4782
21380SOL    HW168825   1.982   1.115   9.773 -1.0235 -0.5318 -0.3194
21380SOL    HW268826   1.856   1.195   9.796 -0.4394  0.5396 -0.7511
21381SOL     OW68827   1.280  10.837   4.083 -0.5096  0.3136 -0.3579
21381SOL    HW168828   1.257  10.745   4.071  0.6478  0.1591 -1.6132
21381SOL    HW268829   1.326  10.840   4.166 -0.4060 -0.2640 -0.3917
21382SOL     OW68830   2.019   4.493   6.594 -0.3821 -0.0837 -0.9413
21382SOL    HW168831   1.937   4.521   6.553 -1.6255 -0.2554  1.2705
21382SOL    HW268832   1.992   4.452   6.676  1.8592 -1.3233 -0.7421
21383SOL     OW68833   7.130   2.984   8.093 -0.1664  0.0934  0.2223
21383SOL    HW168834   7.178   3.023   8.020 -0.2552  1.2611  0.7649
21383SOL    HW268835   7.041   3.016   8.083 -0.0055  0.9149  1.2739
21384SOL     OW68836   3.897   9.017   2.228  0.1190 -0.2220 -0.3211
21384SOL    HW168837   3.821   9.074   2.233 -0.3085 -0.4460 -2.9873
21384SOL    HW268838   3.862   8.929   2.215  0.8122 -0.4129 -1.0052
21385SOL     OW68839   8.167  11.448   5.158 -0.2719  0.4656 -0.0807
21385SOL    HW168840   8.252  11.434   5.200  0.8500  1.3664 -1.9394
21385SOL    HW268841   8.167  11.390   5.082 -1.0501  0.9277 -0.4494
21386SOL     OW68842  11.122  10.966  10.240  0.0176 -0.1209  0.0825
21386SOL    HW168843  11.055  11.026  10.208  0.8229  0.1908 -1.1100
21386SOL    HW268844  11.137  10.907  10.166  2.6907  1.2604 -0.5836
21387SOL     OW68845   6.346   8.902  11.298  0.4445  0.0616 -0.1704
21387SOL    HW168846   6.286   8.855  11.240  1.1248 -1.4325  0.2708
21387SOL    HW268847   6.431   8.897  11.254  0.4501  1.3059 -0.3264
21388SOL     OW68848  10.228   1.254   7.678 -0.0885 -0.4044 -0.0107
21388SOL    HW168849  10.180   1.311   7.739  1.0495  0.1662  0.3842
21388SOL    HW268850  10.163   1.226   7.614 -0.7173  1.1963 -0.0970
21389SOL     OW68851   1.483   8.539   8.795  0.2689  0.3781 -0.0324
21389SOL    HW168852   1.572   8.537   8.831  0.4914  1.9008 -0.4102
21389SOL    HW268853   1.447   8.622   8.826 -1.6989 -1.0028  1.5950
21390SOL     OW68854  11.244   5.383  10.126  0.0278  0.2378  0.2314
21390SOL    HW168855  11.270   5.343  10.208 -0.5143 -1.5346 -0.4170
21390SOL    HW268856  11.150   5.397  10.134 -0.0384 -0.0004 -0.1047
21391SOL     OW68857  11.642   9.973   7.660  0.4500 -0.3483 -0.2347
21391SOL    HW168858  11.572   9.937   7.714  1.2064 -0.5985  0.6106
21391SOL    HW268859  11.673  10.050   7.708  0.8097 -0.2928 -0.5468
21392SOL     OW68860  11.558   0.417   7.447  0.6021  0.2828 -0.4602
21392SOL    HW168861  11.625   0.440   7.512  0.8663  0.0874 -0.6613
21392SOL    HW268862  11.588   0.335   7.409  1.3093  1.1883 -1.9778
21393SOL     OW68863   3.944   6.048   5.031 -0.4270 -0.1297  0.0468
21393SOL    HW168864   3.883   6.117   5.006  2.4286  1.0567 -5.1257
21393SOL    HW268865   4.015   6.094   5.076 -0.3603 -0.3938  0.2124
21394SOL     OW68866   1.136   1.230   3.523 -0.3733 -0.6228 -0.3850
21394SOL    HW168867   1.201   1.291   3.488  0.2334 -0.7872  0.4434
21394SOL    HW268868   1.072   1.220   3.452 -0.1379  0.4740 -0.7685
21395SOL     OW68869   6.905   6.174   0.672 -0.6165  0.4955 -0.2063
21395SOL    HW168870   6.853   6.153   0.750 -2.4500  2.4940 -0.8025
21395SOL    HW268871   6.840   6.199   0.606  1.0190  0.9852 -1.6863
21396SOL     OW68872   6.861   5.561   4.610 -0.7025  0.6607  0.2095
21396SOL    HW168873   6.942   5.576   4.659 -0.1825  0.4850 -0.5809
21396SOL    HW268874   6.850   5.641   4.558 -0.6352  0.3876 -0.2300
21397SOL     OW68875  10.599   1.292   9.082  0.2231 -0.3628  0.3326
21397SOL    HW168876  10.563   1.322   9.165 -0.3158  0.1613 -0.0844
21397SOL    HW268877  10.535   1.230   9.048  1.0528 -1.5668  0.9081
21398SOL     OW68878  11.584   7.703   7.737  0.2914 -0.1343  0.2360
21398SOL    HW168879  11.550   7.715   7.648  1.4532  0.2156 -0.1766
21398SOL    HW268880  11.545   7.776   7.786 -1.0308 -0.8149  0.2365
21399SOL     OW68881   6.585   1.641   6.575  0.2207  0.3620  0.2385
21399SOL    HW168882   6.576   1.613   6.484  0.9402  0.4146  0.1446
21399SOL    HW268883   6.600   1.561   6.624 -0.9875  0.2383  0.4410
21400SOL     OW68884   0.718   2.807   2.144  0.2018  0.0668  0.0016
21400SOL    HW168885   0.739   2.870   2.212 -0.1586  0.3029 -0.1017
21400SOL    HW268886   0.640   2.761   2.176 -1.0459  1.4010 -1.0218
21401SOL     OW68887   2.261   0.686   6.643 -0.2219 -0.3508  0.1458
21401SOL    HW168888   2.228   0.775   6.635 -1.3030 -0.8187 -0.8204
21401SOL    HW268889   2.203   0.633   6.588  0.5277 -1.6215  0.5260
21402SOL     OW68890   7.887   5.923  10.734 -0.1732 -0.4714  0.3330
21402SOL    HW168891   7.933   6.003  10.760 -0.4562 -0.2786  0.2406
21402SOL    HW268892   7.862   5.939  10.643  0.5925 -1.0421  0.0110
21403SOL     OW68893   6.041   1.772   8.792  0.5811 -0.8577  0.1712
21403SOL    HW168894   6.115   1.826   8.766  0.7769 -1.2755 -0.1509
21403SOL    HW268895   5.993   1.825   8.856  1.0478 -0.5104  0.2328
21404SOL     OW68896  10.895  11.523  11.811 -0.2444 -0.1408 -0.1648
21404SOL    HW168897  10.804  11.542  11.788 -0.4113  0.1052  0.6787
21404SOL    HW268898  10.894  11.431  11.836 -1.0957  0.7184  3.6019
21405SOL     OW68899   3.369   8.764   1.542  0.2149  0.2853 -0.8579
21405SOL    HW168900   3.290   8.802   1.580  0.0097 -0.0455 -0.9485
21405SOL    HW268901   3.391   8.693   1.601  1.2488  1.2390 -0.0544
21406SOL     OW68902   0.161   8.666  10.077  0.5451  0.1336  0.4845
21406SOL    HW168903   0.127   8.709   9.998 -0.8034 -1.2615  0.2453
21406SOL    HW268904   0.143   8.728  10.148 -0.3836  0.4285  0.0108
21407SOL     OW68905   5.931  11.293   1.501 -0.0665 -0.2330 -0.1317
21407SOL    HW168906   5.949  11.307   1.408 -2.3542 -1.1918 -0.8169
21407SOL    HW268907   6.013  11.260   1.537  1.9546  3.3505 -0.9519
21408SOL     OW68908  10.708   9.159   9.448  0.2969  0.0028  0.1043
21408SOL    HW168909  10.724   9.073   9.411  0.6467 -0.4425  1.2621
21408SOL    HW268910  10.647   9.144   9.521 -1.3724  1.0174 -1.0086
21409SOL     OW68911   2.379   7.803  10.307  0.0521  0.4988 -0.2210
21409SOL    HW168912   2.417   7.840  10.387 -1.7357 -1.7818  1.8746
21409SOL    HW268913   2.445   7.816  10.240  1.9465  1.9339  1.7965
21410SOL     OW68914   7.558   3.112   6.561 -0.6855 -0.0794  0.5348
21410SOL    HW168915   7.632   3.060   6.529 -0.6254 -0.0466  0.6169
21410SOL    HW268916   7.599   3.189   6.601 -0.7808  0.1277  0.2394
21411SOL     OW68917  10.326   1.467   8.911 -0.1530 -0.6744  0.1990
21411SOL    HW168918  10.396   1.404   8.929 -1.0951 -2.0616 -0.6920
21411SOL    HW268919  10.301   1.501   8.996  0.0624 -1.9006  0.7764
21412SOL     OW68920  11.258  11.889   2.727 -0.0726  0.3787 -0.0263
21412SOL    HW168921  11.185  11.932   2.682 -0.3846  0.4868  0.5740
21412SOL    HW268922  11.322  11.872   2.658 -1.5156 -1.6047 -0.9837
21413SOL     OW68923   2.249   5.743   7.095 -0.2823 -0.9031 -0.3780
21413SOL    HW168924   2.228   5.830   7.129  1.1659 -0.6493 -0.0763
21413SOL    HW268925   2.273   5.692   7.172 -1.2193 -1.6244 -0.5394
21414SOL     OW68926   1.107   5.407   6.867 -0.3274  0.3646 -0.0532
21414SOL    HW168927   1.128   5.314   6.858 -0.0113  0.4398 -0.1187
21414SOL    HW268928   1.070   5.432   6.783  1.7088  0.8344 -0.8689
21415SOL     OW68929   7.627   3.403   7.806 -0.0711  0.0308  0.6638
21415SOL    HW168930   7.624   3.450   7.890 -2.3239 -0.5247  0.9523
21415SOL    HW268931   7.701   3.343   7.815  0.5128  0.8733  1.7390
21416SOL     OW68932   6.395   5.540   7.148  0.4771  0.0458  0.2914
21416SOL    HW168933   6.460   5.494   7.096 -0.1494 -0.1686 -0.3264
21416SOL    HW268934   6.400   5.500   7.235 -0.1036 -1.2629 -0.2507
21417SOL     OW68935   1.344   6.699   7.378 -0.1878 -0.6419 -0.2788
21417SOL    HW168936   1.250   6.704   7.395 -0.5126 -1.0485 -1.8091
21417SOL    HW268937   1.351   6.663   7.289  1.3866  0.3147 -0.5946
21418SOL     OW68938   8.341  10.210   6.504  0.5423 -0.1236  0.1692
21418SOL    HW168939   8.296  10.247   6.428  0.1654 -1.1761 -0.1415
21418SOL    HW268940   8.278  10.220   6.576 -0.1451 -1.3948 -0.2166
21419SOL     OW68941  10.704   9.668   8.458  0.2539 -0.1306  0.0506
21419SOL    HW168942  10.719   9.713   8.541  1.9365  1.3902 -0.9864
21419SOL    HW268943  10.616   9.696   8.431 -0.1527 -0.3460  1.1181
21420SOL     OW68944  10.165   8.016   0.144  0.1560  0.4550 -0.4740
21420SOL    HW168945  10.218   8.002   0.222  0.3636  0.8387 -0.5424
21420SOL    HW268946  10.111   7.937   0.137  0.1853  0.3898  0.0137
21421SOL     OW68947  10.665  11.864   3.246  0.6036 -0.0275  0.2060
21421SOL    HW168948  10.655  11.920   3.323  0.7184  1.4766 -0.8274
21421SOL    HW268949  10.596  11.892   3.186  1.9487  0.5162 -1.1809
21422SOL     OW68950   0.594   8.363   4.706  0.0159 -0.4887  0.7655
21422SOL    HW168951   0.670   8.326   4.752 -1.5260 -2.0242  2.2249
21422SOL    HW268952   0.621   8.452   4.682  2.2616 -0.9967  1.1938
21423SOL     OW68953  10.146   3.420  10.391 -0.0278  0.2201  0.0746
21423SOL    HW168954  10.187   3.487  10.446 -0.7480 -0.0749  0.9799
21423SOL    HW268955  10.055   3.447  10.385 -0.1256 -0.1891 -0.3229
21424SOL     OW68956   0.550   9.633   6.906  0.2043  0.1005  0.2648
21424SOL    HW168957   0.558   9.598   6.817  0.1432  0.6537  0.0382
21424SOL    HW268958   0.457   9.649   6.918  0.0003 -1.4160  1.0021
21425SOL     OW68959   4.949   6.157   2.858 -0.6321 -0.0883 -0.1775
21425SOL    HW168960   5.020   6.220   2.847 -1.5912  0.8808 -0.9292
21425SOL    HW268961   4.901   6.159   2.775 -1.3306 -1.0059  0.1826
21426SOL     OW68962   6.539   9.694   2.246 -0.6451 -0.3520 -0.1679
21426SOL    HW168963   6.494   9.626   2.196  1.9835 -1.9937 -0.5066
21426SOL    HW268964   6.565   9.759   2.181 -0.6223 -0.5091 -0.3167
21427SOL     OW68965  11.336   5.158   2.102  0.0497 -0.0817  0.3203
21427SOL    HW168966  11.283   5.229   2.139 -0.1707 -0.8107  1.4367
21427SOL    HW268967  11.426   5.191   2.108 -0.1576  0.7260 -0.6184
21428SOL     OW68968  10.129   9.280   3.640 -0.2554 -0.3702  0.2846
21428SOL    HW168969  10.117   9.265   3.546 -0.4402 -0.9693  0.3984
21428SOL    HW268970  10.090   9.366   3.655 -0.5782 -0.4366 -0.1244
21429SOL     OW68971   7.761   2.836   5.594  0.2611  0.6619 -0.2915
21429SOL    HW168972   7.824   2.883   5.648  0.1039  0.1733  0.3344
21429SOL    HW268973   7.754   2.888   5.514 -1.1315  2.6531  1.0180
21430SOL     OW68974   8.075   5.892   8.163 -0.2028 -0.3475 -0.4462
21430SOL    HW168975   7.997   5.928   8.120 -1.2338  1.0529  2.3379
21430SOL    HW268976   8.146   5.951   8.137 -0.5915 -0.1154 -0.9898
21431SOL     OW68977  10.350   5.240   8.134 -0.4055  0.1400  0.1566
21431SOL    HW168978  10.265   5.209   8.101  0.1894  0.1107 -1.4413
21431SOL    HW268979  10.413   5.210   8.069  0.8722  0.0109  1.4145
21432SOL     OW68980   3.713  10.798   3.703  0.2145  0.8763  0.2243
21432SOL    HW168981   3.798  10.759   3.720  0.2192 -0.0226 -1.6419
21432SOL    HW268982   3.728  10.858   3.630 -1.3327 -2.0470 -2.7406
21433SOL     OW68983   2.816   1.680   8.240 -0.0000  0.3616  0.2821
21433SOL    HW168984   2.738   1.713   8.197 -0.5559  0.7813  1.5619
21433SOL    HW268985   2.850   1.754   8.289  0.6177 -0.0966  0.5675
21434SOL     OW68986   6.150   4.981   6.914 -0.4212  0.2044  0.1260
21434SOL    HW168987   6.187   4.932   6.987 -0.1544  0.4614  0.1649
21434SOL    HW268988   6.145   5.071   6.945  0.1018  0.3938 -0.3190
21435SOL     OW68989  10.084   5.524   8.021  1.1259  0.2877 -0.0265
21435SOL    HW168990   9.994   5.534   7.989  0.6613  1.1225  1.4494
21435SOL    HW268991  10.103   5.431   8.010 -0.0191  0.0557 -0.1282
21436SOL     OW68992   5.295   8.142   2.647 -0.2458  0.0593  0.3284
21436SOL    HW168993   5.355   8.072   2.623 -0.8957 -0.1714 -0.7160
21436SOL    HW268994   5.246   8.160   2.567 -2.1909 -0.3880  1.3545
21437SOL     OW68995   4.727   0.773  10.375 -0.0036  0.4008 -0.0960
21437SOL    HW168996   4.648   0.771  10.428  1.4276 -0.7644  2.1461
21437SOL    HW268997   4.776   0.848  10.408 -0.8584  2.2262 -2.6853
21438SOL     OW68998   6.224   1.255   2.602 -0.9719  0.0926  0.3967
21438SOL    HW168999   6.245   1.347   2.592 -3.0819  0.7138  1.0403
21438SOL    HW269000   6.223   1.220   2.513  1.1182  0.3362  0.2450
21439SOL     OW69001  11.905   3.824   7.424  0.1247 -1.2441  0.1190
21439SOL    HW169002  11.967   3.896   7.417 -1.0171 -0.1966  0.3829
21439SOL    HW269003  11.889   3.797   7.334 -0.2416 -0.4423 -0.0649
21440SOL     OW69004   4.816   6.890  11.125  0.4887  0.2303 -0.1255
21440SOL    HW169005   4.774   6.808  11.150  0.5574 -0.6121 -2.5562
21440SOL    HW269006   4.743   6.953  11.119  0.1003 -0.2436 -0.4889
21441SOL     OW69007   7.264  10.190   8.492  0.3237  0.1010 -0.3208
21441SOL    HW169008   7.358  10.183   8.506  0.8178  2.5346 -1.8479
21441SOL    HW269009   7.252  10.175   8.398 -0.5887  1.3962 -0.4371
21442SOL     OW69010   7.402   4.410   2.761 -0.2859 -0.1788  0.0093
21442SOL    HW169011   7.336   4.367   2.815 -1.7246 -0.6199 -1.9859
21442SOL    HW269012   7.415   4.350   2.687  0.9101  0.8256 -0.6395
21443SOL     OW69013   3.104  10.596   5.055 -0.1837  0.1642  0.0306
21443SOL    HW169014   3.124  10.684   5.087 -0.4356 -0.0065  0.6652
21443SOL    HW269015   3.106  10.605   4.959 -0.0008  0.8099  0.0861
21444SOL     OW69016   6.456   2.594   3.853 -0.3912 -0.0367 -0.7333
21444SOL    HW169017   6.464   2.690   3.850  0.1426 -0.0427  0.2781
21444SOL    HW269018   6.499   2.569   3.934 -1.2657 -1.0722 -0.5686
21445SOL     OW69019   1.952  11.066   9.345 -0.4695  0.0493  0.0623
21445SOL    HW169020   1.898  11.075   9.423  1.1821  0.4301  1.2263
21445SOL    HW269021   2.014  11.139   9.350 -1.2069  0.9746 -2.3986
21446SOL     OW69022   1.790   9.438   9.165  0.2274 -0.1287  0.5638
21446SOL    HW169023   1.833   9.490   9.233  0.3850 -0.9822  1.1259
21446SOL    HW269024   1.707   9.484   9.149  0.1673  0.0550  1.3603
21447SOL     OW69025   7.360   6.335   0.628  0.2064 -0.4710  0.5022
21447SOL    HW169026   7.281   6.380   0.657  0.1552 -0.2851  0.0829
21447SOL    HW269027   7.407   6.400   0.575  0.6146 -0.5949  0.7054
21448SOL     OW69028   0.392   7.492   1.955 -0.4614  0.5067  0.2742
21448SOL    HW169029   0.365   7.439   2.030  2.4755 -2.1768 -0.3434
21448SOL    HW269030   0.365   7.440   1.879  1.9294  0.0946 -0.3619
21449SOL     OW69031   7.582   2.465   2.912 -0.2580 -0.1242  0.1743
21449SOL    HW169032   7.538   2.418   2.982 -0.2723 -0.3165  0.0381
21449SOL    HW269033   7.625   2.397   2.861  0.4891  0.0954  0.5075
21450SOL     OW69034   3.342   8.770   1.885  0.2976 -0.2028  0.2674
21450SOL    HW169035   3.411   8.707   1.902  1.0721  1.1361  2.5458
21450SOL    HW269036   3.387   8.844   1.843  0.7493  1.4493  3.3985
21451SOL     OW69037   8.722   8.559   9.565  0.2315  0.3537 -0.4425
21451SOL    HW169038   8.772   8.603   9.495 -0.0812  0.0309 -0.8704
21451SOL    HW269039   8.636   8.544   9.527 -0.3457  1.3049  0.4446
21452SOL     OW69040   8.078   5.879   8.900  0.1630  0.6373 -0.1421
21452SOL    HW169041   8.146   5.903   8.962  1.2202  2.1277 -1.7705
21452SOL    HW269042   8.001   5.929   8.927 -0.3168 -0.9532  1.6260
21453SOL     OW69043   6.486   3.143   1.288 -0.2666 -0.3526 -0.1864
21453SOL    HW169044   6.538   3.203   1.234  1.2134 -0.1347  1.3911
21453SOL    HW269045   6.548   3.075   1.314 -1.4456 -1.5190 -0.3600
21454SOL     OW69046   9.428   5.154  10.904  0.0164 -0.8791 -0.0153
21454SOL    HW169047   9.522   5.146  10.917  0.4353 -1.1492 -2.5823
21454SOL    HW269048   9.393   5.067  10.923  0.0525 -0.4708  2.1308
21455SOL     OW69049   5.977   9.880   0.556  0.0839  0.2103 -0.0126
21455SOL    HW169050   5.894   9.845   0.589 -0.2029 -0.8254 -1.6953
21455SOL    HW269051   5.987   9.965   0.599 -0.9429 -0.4245  1.5709
21456SOL     OW69052   2.198   1.182  11.747  0.5878  0.0404  0.1818
21456SOL    HW169053   2.156   1.173  11.661  0.8244  1.5034 -0.1181
21456SOL    HW269054   2.283   1.222  11.728 -0.5997  3.4102  1.2983
21457SOL     OW69055   3.079   1.750   9.937 -0.0818 -0.9170 -0.4237
21457SOL    HW169056   3.001   1.701   9.913 -0.7223  0.8142 -2.2540
21457SOL    HW269057   3.125   1.695  10.000 -2.0646 -2.5971 -0.3532
21458SOL     OW69058   5.473   0.221   3.367 -0.2899  0.7390 -0.0357
21458SOL    HW169059   5.512   0.170   3.296 -3.7270 -1.0643 -0.8370
21458SOL    HW269060   5.466   0.159   3.439 -1.3645  1.0555  0.1485
21459SOL     OW69061   3.012   6.566   5.798 -0.0780 -0.7835 -0.0931
21459SOL    HW169062   2.979   6.532   5.882  1.1637  0.4888  0.9613
21459SOL    HW269063   3.062   6.644   5.822 -0.5820  0.2355 -2.1497
21460SOL     OW69064   7.567   6.234   0.419  0.7638 -0.7420 -0.3491
21460SOL    HW169065   7.481   6.244   0.378  0.5825 -0.7949  0.0137
21460SOL    HW269066   7.576   6.311   0.474  0.6358 -1.0961  0.1729
21461SOL     OW69067   6.418   0.027   8.748  0.3576  0.4114 -0.2660
21461SOL    HW169068   6.431  -0.063   8.778 -0.1731 -0.3571 -2.1388
21461SOL    HW269069   6.505   0.066   8.750  0.9134 -0.7371 -1.1059
21462SOL     OW69070   4.848   7.797  11.816 -0.2532 -0.1087 -0.2292
21462SOL    HW169071   4.903   7.721  11.834 -0.1791  0.2037  0.9224
21462SOL    HW269072   4.758   7.766  11.831 -0.1567  0.3299  1.4995
21463SOL     OW69073  11.421   6.941   6.660 -0.7819  0.2538  0.2088
21463SOL    HW169074  11.462   6.994   6.729 -2.9012  1.9030  0.2987
21463SOL    HW269075  11.365   6.880   6.707  0.0414 -0.6803  0.0126
21464SOL     OW69076   7.439   4.144   6.875 -0.2683  0.0236  0.4954
21464SOL    HW169077   7.434   4.192   6.958 -2.1556  1.8730 -0.5814
21464SOL    HW269078   7.528   4.110   6.872  2.0036  5.0524  0.6393
21465SOL     OW69079   9.651   3.681   3.617  0.6224  0.0798 -0.0218
21465SOL    HW169080   9.690   3.622   3.553  0.8320 -0.0967  0.2618
21465SOL    HW269081   9.559   3.686   3.593  0.6685 -0.1048 -0.2438
21466SOL     OW69082   3.956   9.486   5.681  0.5402  0.4540 -0.0321
21466SOL    HW169083   4.019   9.415   5.694 -0.2454  0.0618  2.1664
21466SOL    HW269084   3.991   9.559   5.732 -0.7403  0.1922  1.3192
21467SOL     OW69085  10.363   3.660   5.185  0.4523  0.4129  0.8581
21467SOL    HW169086  10.406   3.669   5.270  2.2119  0.3677  0.0053
21467SOL    HW269087  10.293   3.597   5.201  1.2749 -0.2390  2.0832
21468SOL     OW69088   7.546  11.820   2.147  0.0848 -0.1436  0.3643
21468SOL    HW169089   7.547  11.724   2.150 -4.5277 -0.4293  1.1622
21468SOL    HW269090   7.469  11.840   2.093  2.0898  3.2626 -1.5468
21469SOL     OW69091   0.011   2.923   6.811  0.4551  0.3914  0.2093
21469SOL    HW169092   0.021   2.908   6.717 -1.0230  1.4480 -0.1534
21469SOL    HW269093  -0.026   3.011   6.818 -0.6496 -0.1419  1.7166
21470SOL     OW69094  10.304   6.247  11.250  0.1282 -0.1170 -0.3031
21470SOL    HW169095  10.377   6.185  11.248 -0.6512 -1.0444 -0.7171
21470SOL    HW269096  10.343   6.329  11.281  1.1118 -0.9012  0.5954
21471SOL     OW69097   1.612   0.235   1.961 -0.0795 -0.1471 -0.4483
21471SOL    HW169098   1.606   0.150   2.005 -0.0740  0.1796  0.1958
21471SOL    HW269099   1.671   0.219   1.887 -0.7353 -0.8998 -0.8256
21472SOL     OW69100  11.296   7.921   1.117 -0.0432  0.3071 -0.0443
21472SOL    HW169101  11.337   8.002   1.147  0.4818  1.0353 -2.4795
21472SOL    HW269102  11.288   7.932   1.022  0.7801 -2.8303 -0.5905
21473SOL     OW69103   0.122   1.089   8.182 -0.0826 -0.0564  0.5880
21473SOL    HW169104   0.109   1.047   8.267  2.0363  0.8083  1.4049
21473SOL    HW269105   0.104   1.020   8.119  3.8179 -2.6023  1.8786
21474SOL     OW69106  11.898   4.771   3.559 -0.5734 -0.1345  0.4390
21474SOL    HW169107  11.979   4.737   3.522 -0.4926 -0.9162  1.2947
21474SOL    HW269108  11.922   4.798   3.648 -1.3535 -0.8645  0.8821
21475SOL     OW69109   2.360   0.292   5.628  0.1703  0.5166  0.6797
21475SOL    HW169110   2.360   0.200   5.651 -0.8733  0.5788  0.9952
21475SOL    HW269111   2.343   0.338   5.710 -0.4047  0.9159  0.3522
21476SOL     OW69112  10.078  11.254   8.783 -0.4635  0.6975  0.3818
21476SOL    HW169113  10.072  11.302   8.701 -0.0257 -2.1303 -1.4234
21476SOL    HW269114  10.170  11.260   8.809  0.6246 -2.5503 -2.1640
21477SOL     OW69115   1.527  11.964   7.817  0.5190 -0.5147 -0.5344
21477SOL    HW169116   1.491  12.049   7.790  0.9462 -0.6181 -1.4658
21477SOL    HW269117   1.619  11.982   7.837  0.2301 -0.4539  0.8396
21478SOL     OW69118   0.302   8.748   1.709  0.2523 -0.4589  0.1038
21478SOL    HW169119   0.208   8.736   1.721  0.5288 -2.1268  0.8180
21478SOL    HW269120   0.331   8.668   1.665  1.0170  0.9756 -2.2074
21479SOL     OW69121  11.564   4.416   1.781 -0.0007  0.3981 -0.5390
21479SOL    HW169122  11.565   4.379   1.692  1.2475  0.5606 -0.6025
21479SOL    HW269123  11.505   4.358   1.830  0.4719 -0.5933 -1.1031
21480SOL     OW69124  11.276   4.115   3.444 -0.1599  0.3977  0.1401
21480SOL    HW169125  11.364   4.138   3.413 -0.0415 -0.1134  0.0792
21480SOL    HW269126  11.290   4.071   3.527 -0.2082 -1.1940 -0.6516
21481SOL     OW69127   9.155   5.515   5.259 -0.0702  0.2720  0.2144
21481SOL    HW169128   9.181   5.583   5.197 -2.4766 -0.7244 -2.0805
21481SOL    HW269129   9.219   5.445   5.246  0.2595  0.6327 -0.1228
21482SOL     OW69130   6.026   2.870   4.012  0.2754 -0.2294  0.5396
21482SOL    HW169131   6.015   2.780   3.983  0.5415  0.1896 -0.9312
21482SOL    HW269132   5.946   2.914   3.984  1.3163  0.6030 -1.3438
21483SOL     OW69133   7.986   2.814  11.114 -0.1996  0.1465 -0.9643
21483SOL    HW169134   7.904   2.770  11.137 -0.4688  0.4723 -1.3012
21483SOL    HW269135   7.987   2.892  11.169  1.7613 -1.7682  1.9940
21484SOL     OW69136   3.232   4.983   2.631  0.1596 -0.0936 -0.2182
21484SOL    HW169137   3.158   5.022   2.679 -0.6535 -0.8617 -0.7982
21484SOL    HW269138   3.240   4.895   2.669  0.5951 -0.1102 -0.3535
21485SOL     OW69139   1.469   0.881  11.927  0.1607  0.0584 -0.2019
21485SOL    HW169140   1.400   0.847  11.870 -0.1145  1.5934 -0.8231
21485SOL    HW269141   1.540   0.905  11.866  0.5589  0.1041  0.2739
21486SOL     OW69142   2.144   7.648   0.551 -0.0845 -0.3956  0.0987
21486SOL    HW169143   2.150   7.673   0.459  0.0839  0.2876  0.2900
21486SOL    HW269144   2.192   7.566   0.557 -1.0465 -1.0369 -0.6363
21487SOL     OW69145   7.323   9.721  10.790  0.0604  0.9975 -0.4845
21487SOL    HW169146   7.416   9.704  10.769  0.3409  1.3207  0.4662
21487SOL    HW269147   7.310   9.812  10.766  0.0714  1.0382 -0.3368
21488SOL     OW69148   2.363   2.646   5.568 -0.1844  0.0276 -0.2432
21488SOL    HW169149   2.379   2.571   5.626 -0.4000 -0.1136 -0.3659
21488SOL    HW269150   2.305   2.703   5.618 -0.2867 -0.0443 -0.2814
21489SOL     OW69151   0.368   6.795  11.441 -0.2188 -0.4290  0.4837
21489SOL    HW169152   0.334   6.726  11.384 -1.1377  0.6237 -0.2912
21489SOL    HW269153   0.290   6.846  11.465  0.4194  0.2630  1.1398
21490SOL     OW69154   4.378  10.927   9.308  0.0360  0.0491  0.4924
21490SOL    HW169155   4.447  10.868   9.277  0.5989  0.8717  0.1613
21490SOL    HW269156   4.373  10.995   9.241 -1.2467 -0.1050  0.4014
21491SOL     OW69157   8.182   3.364   8.802 -0.2936  0.1806  0.1682
21491SOL    HW169158   8.119   3.417   8.850 -1.1375  0.2707 -0.9815
21491SOL    HW269159   8.224   3.425   8.742 -0.1537 -0.1566 -0.0805
21492SOL     OW69160  11.805   4.480   9.553 -0.0289 -0.0869 -0.1122
21492SOL    HW169161  11.814   4.422   9.628  0.7288 -0.1577 -0.2478
21492SOL    HW269162  11.835   4.565   9.585 -0.9076  0.1896  0.0173
21493SOL     OW69163   2.964   9.869   3.223 -0.2792 -0.2345 -0.1729
21493SOL    HW169164   2.935   9.944   3.171 -0.0388 -0.3574 -0.4908
21493SOL    HW269165   2.900   9.862   3.293  0.3587  1.0204  0.5772
21494SOL     OW69166   5.745  11.897   7.633  0.6608  0.5567  0.1615
21494SOL    HW169167   5.835  11.929   7.633  0.2174  2.0464 -2.1417
21494SOL    HW269168   5.692  11.977   7.633 -0.7359 -0.2845  2.1240
21495SOL     OW69169  11.818   8.298   5.396  0.1848 -0.0680  0.3127
21495SOL    HW169170  11.907   8.286   5.364  0.2626  0.5750  0.2779
21495SOL    HW269171  11.763   8.246   5.338  0.6346 -1.2421  0.9149
21496SOL     OW69172   3.683   9.045   9.969 -0.6614  0.6955  0.4140
21496SOL    HW169173   3.671   9.067   9.877  1.2485  1.3042  0.2860
21496SOL    HW269174   3.741   8.969   9.969 -1.2123  0.2600  1.1051
21497SOL     OW69175   2.165   6.406   0.912 -0.4868 -0.2470 -0.0187
21497SOL    HW169176   2.147   6.327   0.862  0.8313 -0.1398 -0.7252
21497SOL    HW269177   2.237   6.382   0.970 -0.3599  0.3084  0.0610
21498SOL     OW69178  11.363   1.409  11.467 -0.1302 -0.1182 -0.1396
21498SOL    HW169179  11.360   1.325  11.421  1.8399  0.3327 -1.2425
21498SOL    HW269180  11.325   1.392  11.552 -2.2894 -1.4468 -1.2880
21499SOL     OW69181   1.253  11.862   3.875  0.4318  0.3861  0.6601
21499SOL    HW169182   1.272  11.899   3.789 -1.0501  0.9800  0.5581
21499SOL    HW269183   1.204  11.930   3.921  0.7859 -0.1003  1.8079
21500SOL     OW69184  11.578   0.157   7.370 -0.0734  0.3710  0.0902
21500SOL    HW169185  11.534   0.106   7.438  0.2712  0.6808  0.5558
21500SOL    HW269186  11.637   0.094   7.328  1.5093  0.7018  1.6960
21501SOL     OW69187   7.295   2.402   7.999  0.1340  0.2779 -0.2462
21501SOL    HW169188   7.305   2.495   7.980 -2.1591  0.2494 -1.9690
21501SOL    HW269189   7.269   2.363   7.916 -2.8744 -1.2038  1.2284
21502SOL     OW69190  10.884   7.165   7.073 -0.0646 -0.5412 -0.3589
21502SOL    HW169191  10.865   7.129   6.987  1.8162  1.5477 -1.7432
21502SOL    HW269192  10.837   7.107   7.134  1.2413 -4.1187 -2.4820
21503SOL     OW69193   9.816   1.192   8.534 -0.0197  0.1367  0.0008
21503SOL    HW169194   9.858   1.217   8.616 -0.6312  0.2843  0.2702
21503SOL    HW269195   9.756   1.121   8.557 -0.7708  0.7017 -0.1724
21504SOL     OW69196   6.546   4.690   9.512 -0.3356 -0.4279 -0.6046
21504SOL    HW169197   6.514   4.642   9.435 -0.5787 -0.0637 -0.7298
21504SOL    HW269198   6.569   4.776   9.479  0.2579 -0.5074 -0.4054
21505SOL     OW69199   6.681   5.106   2.724  0.2259  0.4796 -0.1241
21505SOL    HW169200   6.620   5.063   2.784  0.3991  0.2399 -0.1165
21505SOL    HW269201   6.742   5.036   2.698  1.7015  1.1344  1.3958
21506SOL     OW69202   6.476   1.014   3.157  0.2845  0.4178 -0.0145
21506SOL    HW169203   6.571   1.001   3.164  0.1486 -0.7832 -0.1482
21506SOL    HW269204   6.446   1.012   3.248  0.2022 -0.8517 -0.0602
21507SOL     OW69205   5.908   7.574   3.574 -0.3058  0.3045  0.1156
21507SOL    HW169206   5.959   7.650   3.546 -3.6342  3.4897  1.7872
21507SOL    HW269207   5.889   7.526   3.493 -1.0209  3.3177 -1.6489
21508SOL     OW69208  11.696  10.680   4.679 -0.5053 -0.0412 -0.0147
21508SOL    HW169209  11.638  10.604   4.670  0.1850 -0.4336 -1.3484
21508SOL    HW269210  11.780  10.643   4.705 -0.3478  0.3481  0.0270
21509SOL     OW69211   9.875   6.690   6.747  0.5343 -0.4665 -0.2392
21509SOL    HW169212   9.798   6.652   6.790 -1.4242  2.5497 -0.7796
21509SOL    HW269213   9.911   6.618   6.695 -2.5847 -1.7743 -0.8159
21510SOL     OW69214   8.141   8.048   3.208 -0.1399 -0.4542 -0.1327
21510SOL    HW169215   8.060   7.999   3.216 -0.0565 -0.8224 -1.3021
21510SOL    HW269216   8.125   8.130   3.254 -1.0048 -0.7227  0.0551
21511SOL     OW69217   9.365   2.783   2.198 -0.0392  0.8684  0.1213
21511SOL    HW169218   9.359   2.719   2.126  3.1239  1.6249 -0.9949
21511SOL    HW269219   9.393   2.864   2.155  1.0408  1.5976  2.0839
21512SOL     OW69220   8.245   9.501   9.262  0.3727 -0.0219 -0.3487
21512SOL    HW169221   8.196   9.575   9.296  0.0543 -0.2412 -0.3252
21512SOL    HW269222   8.274   9.453   9.340 -0.3246 -0.5038 -0.3802
21513SOL     OW69223   7.736  11.959   9.223 -0.2527 -0.2010 -0.2215
21513SOL    HW169224   7.722  12.048   9.190  1.2287 -0.4857 -1.7715
21513SOL    HW269225   7.703  11.961   9.313  0.5055  2.1441  0.0698
21514SOL     OW69226   5.694   1.433   5.472 -0.0656  0.3884 -0.3009
21514SOL    HW169227   5.758   1.402   5.536 -1.2395  0.0643  0.7774
21514SOL    HW269228   5.740   1.432   5.388  1.7670  1.5131  0.6124
21515SOL     OW69229   5.584  11.566   3.567 -0.2938 -0.6067 -0.1299
21515SOL    HW169230   5.554  11.609   3.487  0.3076  0.1492  0.0390
21515SOL    HW269231   5.663  11.519   3.541  0.4172  0.3787  0.2006
21516SOL     OW69232   0.313   5.241  10.727  0.5034  0.1435 -0.7458
21516SOL    HW169233   0.357   5.219  10.645  0.8556  1.5596 -0.9713
21516SOL    HW269234   0.384   5.257  10.789  0.2670  0.5547 -0.5773
21517SOL     OW69235   9.721   3.346   7.850 -0.0882  0.7290  0.0182
21517SOL    HW169236   9.648   3.319   7.794 -0.7140  0.5874  0.8854
21517SOL    HW269237   9.680   3.388   7.925  0.6189 -0.6543  1.2364
21518SOL     OW69238   5.960   0.254   2.518 -0.7547 -0.2152  0.0095
21518SOL    HW169239   5.953   0.192   2.590  1.0551 -1.9981 -1.2276
21518SOL    HW269240   5.891   0.229   2.457 -0.3701 -0.6910 -0.2383
21519SOL     OW69241   0.681   9.276   3.700  0.2863 -0.0221  0.5398
21519SOL    HW169242   0.601   9.259   3.749  0.7577 -3.7951  0.2883
21519SOL    HW269243   0.651   9.302   3.613 -0.5918  1.5378  1.2791
21520SOL     OW69244   3.203   9.356   5.045  0.2875 -0.9023 -0.1337
21520SOL    HW169245   3.131   9.318   4.994 -1.2436  2.0440 -0.4079
21520SOL    HW269246   3.167   9.366   5.133  0.2305  0.7974 -0.3221
21521SOL     OW69247   4.504   1.071   6.849  0.3338 -0.2758 -0.7192
21521SOL    HW169248   4.456   1.107   6.924  2.6110  1.1615  0.1724
21521SOL    HW269249   4.457   0.992   6.826 -1.7399  0.4193  0.8054
21522SOL     OW69250   2.134   3.192   6.633  0.2000  0.6131  0.4984
21522SOL    HW169251   2.091   3.244   6.566 -1.0642 -1.3389 -0.2992
21522SOL    HW269252   2.106   3.232   6.716 -0.3170  1.4866 -0.0844
21523SOL     OW69253   9.717  11.838   0.054  0.0293  0.1420  0.7691
21523SOL    HW169254   9.675  11.902  -0.004 -1.9191  0.3956  2.3402
21523SOL    HW269255   9.699  11.754   0.012 -0.7351  0.3775  0.5938
21524SOL     OW69256   4.857   6.332   4.293  0.4394 -0.4594  0.0808
21524SOL    HW169257   4.945   6.302   4.314  0.6471 -0.5818 -0.9522
21524SOL    HW269258   4.869   6.421   4.260  0.3092 -0.8953 -1.1707
21525SOL     OW69259   6.750   1.431   1.628 -0.1483  0.4810 -0.2635
21525SOL    HW169260   6.663   1.467   1.612 -0.5941 -0.7049 -0.6272
21525SOL    HW269261   6.809   1.506   1.619 -1.1278  1.3131  0.0445
21526SOL     OW69262   7.955  11.779   1.739  0.1532 -0.0106 -0.4650
21526SOL    HW169263   7.980  11.729   1.817 -0.1024 -0.3204 -0.5805
21526SOL    HW269264   7.874  11.823   1.764 -0.4223 -0.8286 -0.8520
21527SOL     OW69265   1.209   2.810   9.530  0.0819  0.1097 -0.2154
21527SOL    HW169266   1.250   2.881   9.480 -1.4679  0.6197 -0.8226
21527SOL    HW269267   1.170   2.855   9.605  1.0133 -0.4408  0.6315
21528SOL     OW69268   5.402  10.239   5.479  0.7629  0.0664 -0.3465
21528SOL    HW169269   5.398  10.333   5.459  0.9361 -0.2420 -1.9757
21528SOL    HW269270   5.329  10.224   5.539  1.5649  1.4757  1.0635
21529SOL     OW69271   9.340  11.382   6.575 -0.6403 -0.4054  0.2272
21529SOL    HW169272   9.419  11.436   6.569  0.0179 -0.9088  2.9312
21529SOL    HW269273   9.329  11.345   6.487  1.0869  1.0806 -0.6782
21530SOL     OW69274  10.534  11.981   9.588  0.1001  0.0452 -0.5128
21530SOL    HW169275  10.553  11.970   9.495 -1.4388  2.1729 -1.1493
21530SOL    HW269276  10.446  11.946   9.599  0.3576 -0.3948  0.2049
21531SOL     OW69277   9.322   3.634   5.560 -0.3146 -0.1702 -0.0769
21531SOL    HW169278   9.376   3.644   5.482  0.8437  0.1166  0.7467
21531SOL    HW269279   9.350   3.551   5.598 -0.1890  0.1529  0.5502
21532SOL     OW69280   9.428  11.606   0.867  0.0389  0.2237 -0.5365
21532SOL    HW169281   9.497  11.553   0.906 -1.2309 -0.4313  0.8845
21532SOL    HW269282   9.384  11.648   0.941 -0.5086  1.3551 -1.4727
21533SOL     OW69283   5.055   1.951   7.948 -0.6128  0.4177 -0.2230
21533SOL    HW169284   5.026   2.023   8.003  0.1806 -0.4571  1.4116
21533SOL    HW269285   5.115   1.990   7.885  0.4501  1.0584  1.1643
21534SOL     OW69286   8.736   5.566   1.825 -0.1620  0.8448 -0.4335
21534SOL    HW169287   8.728   5.572   1.730 -2.4728  0.1193 -0.3442
21534SOL    HW269288   8.684   5.639   1.859 -3.6572 -1.6802  0.2171
21535SOL     OW69289  11.488   6.715   7.872 -0.1054  0.1284 -0.0941
21535SOL    HW169290  11.407   6.680   7.909 -0.1942 -0.2591 -0.6408
21535SOL    HW269291  11.496   6.671   7.787  1.3288 -0.7772  0.4852
21536SOL     OW69292   1.214   4.044  11.138 -0.2566  0.2387  0.1147
21536SOL    HW169293   1.233   3.999  11.055 -1.6708 -1.8156  0.8356
21536SOL    HW269294   1.173   3.977  11.193  1.3388  1.3103  2.8041
21537SOL     OW69295  11.198   6.933   4.859  0.2184 -0.1481  0.4537
21537SOL    HW169296  11.224   6.985   4.783 -0.0551 -1.2942 -0.4552
21537SOL    HW269297  11.102   6.929   4.854  0.2346 -4.6133 -2.3459
21538SOL     OW69298   9.258   6.395   9.833 -0.0614  0.3081 -0.0447
21538SOL    HW169299   9.236   6.329   9.899  1.4284 -0.9006 -0.6677
21538SOL    HW269300   9.188   6.460   9.839 -1.4207 -1.1569  0.8311
21539SOL     OW69301  11.942   9.213   4.704 -0.6472  0.3222 -0.2734
21539SOL    HW169302  11.867   9.246   4.753 -0.9662 -0.0162 -0.5232
21539SOL    HW269303  11.933   9.118   4.708  0.0573  0.2703  0.1264
21540SOL     OW69304  11.018   1.323  10.507 -0.6181 -0.5433 -0.2258
21540SOL    HW169305  10.943   1.370  10.544  0.0046  0.0218  0.3450
21540SOL    HW269306  11.004   1.325  10.412 -1.7971 -1.2578 -0.0892
21541SOL     OW69307   7.444   8.460   3.843  0.5509 -0.3518 -0.1185
21541SOL    HW169308   7.352   8.485   3.831  0.2964 -0.8614  0.6557
21541SOL    HW269309   7.493   8.538   3.818 -0.1329  0.2016  0.1928
21542SOL     OW69310   3.925   1.466   3.700  0.4253  0.0232 -0.3747
21542SOL    HW169311   3.872   1.534   3.657  2.0732  0.3108 -2.1065
21542SOL    HW269312   3.945   1.404   3.630  2.6506  0.1430  0.0712
21543SOL     OW69313   2.822   1.875   5.425 -0.3913  0.1739 -0.9535
21543SOL    HW169314   2.832   1.803   5.487  1.2576  0.7753 -0.4663
21543SOL    HW269315   2.819   1.833   5.339 -2.4519 -0.6518 -0.5525
21544SOL     OW69316  10.497   0.389   6.217 -0.2424  0.4334  0.1240
21544SOL    HW169317  10.478   0.483   6.226 -0.6553  0.5823 -1.9573
21544SOL    HW269318  10.581   0.386   6.172 -0.0969 -0.2059  0.4331
21545SOL     OW69319  11.503   3.512  11.589 -0.3365 -0.0676  0.6974
21545SOL    HW169320  11.538   3.469  11.511  0.9238 -1.5223  1.9989
21545SOL    HW269321  11.409   3.521  11.571  0.0617  0.5113 -1.3421
21546SOL     OW69322   0.298   9.500  11.362 -0.4469  0.1963 -0.0188
21546SOL    HW169323   0.226   9.503  11.299 -1.1077 -0.9484  0.6431
21546SOL    HW269324   0.325   9.591  11.372  1.7463  0.2721 -4.1949
21547SOL     OW69325  10.573   0.910   6.233  0.0074 -0.1308 -0.2205
21547SOL    HW169326  10.613   0.997   6.237 -0.7135  0.2120 -0.3253
21547SOL    HW269327  10.501   0.920   6.171 -0.5069 -0.6272  0.2870
21548SOL     OW69328   0.482   7.396   2.446 -0.0159  0.1971  0.7939
21548SOL    HW169329   0.468   7.454   2.371  0.4157 -0.2645  0.3466
21548SOL    HW269330   0.396   7.388   2.487 -0.6477 -0.8984 -0.6459
21549SOL     OW69331   4.791   3.080   1.956  0.1535 -0.2767 -0.0504
21549SOL    HW169332   4.831   3.015   1.898 -1.6234 -1.0812 -0.4639
21549SOL    HW269333   4.728   3.126   1.900 -0.8605 -0.3738  0.9704
21550SOL     OW69334   4.626   0.256   5.728 -0.2531 -0.1452 -0.1830
21550SOL    HW169335   4.688   0.206   5.781  0.5037  2.1861  1.2822
21550SOL    HW269336   4.545   0.205   5.731  0.2606 -0.9087  1.8681
21551SOL     OW69337   2.667   6.312   9.272  0.2023  0.0004  0.2046
21551SOL    HW169338   2.586   6.350   9.305 -1.1777 -2.5753  0.1010
21551SOL    HW269339   2.641   6.226   9.238  2.7336 -0.2841 -1.2996
21552SOL     OW69340   6.184   6.317  10.316  0.0467  0.4604 -0.3504
21552SOL    HW169341   6.237   6.308  10.236 -1.1853  0.8740 -1.2547
21552SOL    HW269342   6.213   6.247  10.373 -0.3725 -1.0897 -1.9588
21553SOL     OW69343   1.796   2.303  10.617  0.0405 -0.0238 -0.5042
21553SOL    HW169344   1.747   2.376  10.655  0.1710  0.7265 -1.7266
21553SOL    HW269345   1.732   2.256  10.563  0.2783 -0.0002 -0.8125
21554SOL     OW69346   4.477   8.657   5.130 -0.4524  0.0329 -0.0423
21554SOL    HW169347   4.395   8.618   5.101 -1.6403  0.3523  2.5937
21554SOL    HW269348   4.468   8.751   5.112 -0.7804  0.0996  0.4577
21555SOL     OW69349  10.862   4.008   4.598  0.3749  0.2116 -0.1377
21555SOL    HW169350  10.792   3.954   4.561  0.3042 -0.0762  0.4038
21555SOL    HW269351  10.909   3.949   4.656  0.0232  0.8386  0.8168
21556SOL     OW69352  11.555   4.487   6.407 -0.1397  0.0261  0.0047
21556SOL    HW169353  11.606   4.464   6.329 -1.5693  0.5215 -1.1095
21556SOL    HW269354  11.526   4.576   6.392 -2.0250 -0.5059  0.2155
21557SOL     OW69355  11.527   8.178  11.953  1.0145 -0.0426  0.3270
21557SOL    HW169356  11.544   8.202  11.862  1.5073 -1.6366 -0.0312
21557SOL    HW269357  11.434   8.159  11.956  1.0824 -0.4410  0.0316
21558SOL     OW69358   6.943   0.482   0.548 -0.2582 -0.3838  0.4245
21558SOL    HW169359   6.851   0.508   0.558 -0.1358  0.8142 -1.0485
21558SOL    HW269360   6.964   0.506   0.457  0.6217 -3.5513 -0.3430
21559SOL     OW69361   7.946   6.045  11.798 -0.1793 -0.2703 -0.4962
21559SOL    HW169362   7.890   6.123  11.805 -0.3205 -0.4545  0.6288
21559SOL    HW269363   7.885   5.973  11.782 -0.2670 -0.4459  0.5629
21560SOL     OW69364   4.655   8.881   9.790  0.3551 -0.4015 -0.0380
21560SOL    HW169365   4.676   8.973   9.775 -1.7540  0.1472  0.0517
21560SOL    HW269366   4.703   8.858   9.870  1.9978  0.1923 -0.8168
21561SOL     OW69367   2.902   6.048   2.324 -0.3030 -0.5367  0.2992
21561SOL    HW169368   2.978   6.070   2.269  1.5943  1.0495  3.2694
21561SOL    HW269369   2.893   5.953   2.315  3.2207 -1.1034  1.0785
21562SOL     OW69370   1.633   2.776   8.699  0.6236 -0.0853  0.7021
21562SOL    HW169371   1.716   2.782   8.652 -0.4321  0.4539 -1.1755
21562SOL    HW269372   1.612   2.866   8.724 -0.1340  0.0122 -0.2225
21563SOL     OW69373   2.317  10.038   8.462  0.0290  0.2662 -0.1528
21563SOL    HW169374   2.326  10.132   8.450  1.0243  0.3033  0.8232
21563SOL    HW269375   2.395  10.001   8.422  0.5181 -0.0094  1.0259
21564SOL     OW69376   1.439   7.639   3.750 -0.4632 -0.3308 -0.1894
21564SOL    HW169377   1.428   7.717   3.805 -1.8082  1.1391 -2.3232
21564SOL    HW269378   1.373   7.577   3.782 -1.2713  0.5259 -0.1365
21565SOL     OW69379   4.617   6.293   5.196 -0.0340  0.0227 -0.2978
21565SOL    HW169380   4.594   6.230   5.128 -1.4218  0.1145  0.0612
21565SOL    HW269381   4.609   6.244   5.278 -0.6627  0.5304 -0.0485
21566SOL     OW69382   9.782   6.581   0.911 -0.0070 -0.1571  0.3188
21566SOL    HW169383   9.773   6.622   0.997  0.0398  1.2744 -0.3223
21566SOL    HW269384   9.705   6.609   0.862  0.9905  0.8068 -0.7713
21567SOL     OW69385   3.667  10.976  10.574  0.2405  0.2447  0.0323
21567SOL    HW169386   3.750  10.929  10.581  0.4421  0.6227  0.2371
21567SOL    HW269387   3.655  10.990  10.480  0.1933 -0.1892 -0.0248
21568SOL     OW69388   9.634   9.301  11.911  0.2000 -0.2480 -0.1211
21568SOL    HW169389   9.660   9.221  11.865  0.3825  0.0288 -0.4986
21568SOL    HW269390   9.699   9.366  11.884  0.5076 -0.1687  0.7860
21569SOL     OW69391   6.659   5.854   9.390  0.5624  0.3438 -0.3629
21569SOL    HW169392   6.699   5.932   9.430  2.0338 -0.9091  0.7268
21569SOL    HW269393   6.708   5.842   9.309 -0.1154  0.9128 -0.8676
21570SOL     OW69394  11.788   2.402  11.212 -0.2117  0.6485  0.0486
21570SOL    HW169395  11.824   2.374  11.295 -0.7724  2.6998  1.0422
21570SOL    HW269396  11.701   2.435  11.233 -1.0668 -0.3625 -1.6401
21571SOL     OW69397   5.755   5.472   9.057 -0.1226  0.1549  0.2175
21571SOL    HW169398   5.778   5.542   9.118 -1.3302 -0.3085  1.2348
21571SOL    HW269399   5.786   5.392   9.098  2.1110  0.1156 -1.3820
21572SOL     OW69400   7.052   9.210   1.580 -0.2339  0.2269 -0.1289
21572SOL    HW169401   6.982   9.169   1.630 -0.5081 -0.1668 -0.8151
21572SOL    HW269402   7.129   9.155   1.594 -0.5849 -0.5030 -0.9973
21573SOL     OW69403   7.986   5.289   2.627 -0.0458  0.3598  0.0738
21573SOL    HW169404   7.901   5.246   2.621  0.4328 -0.4139 -1.8440
21573SOL    HW269405   8.019   5.265   2.713 -0.8617 -1.1050  0.0031
21574SOL     OW69406   6.174   6.661   2.391 -0.3094  0.1242  0.0836
21574SOL    HW169407   6.248   6.654   2.331 -1.2828 -0.4705 -1.1016
21574SOL    HW269408   6.213   6.677   2.477  1.1050  1.7240 -0.8021
21575SOL     OW69409   2.668   8.549   4.936  0.3578 -0.2563 -0.2486
21575SOL    HW169410   2.619   8.470   4.958  0.2815  0.0227  0.6309
21575SOL    HW269411   2.690   8.539   4.844 -0.7727 -0.6949 -0.4837
21576SOL     OW69412   6.913   7.952   1.203  0.2527 -0.1658  0.0506
21576SOL    HW169413   6.852   7.947   1.129 -0.1728  2.8137  0.0704
21576SOL    HW269414   6.905   8.042   1.235  3.5488 -0.0618  1.0277
21577SOL     OW69415   0.076  10.914   6.506  0.0786  0.5670  0.4077
21577SOL    HW169416  -0.012  10.884   6.530  0.7428 -0.1858  2.1222
21577SOL    HW269417   0.111  10.952   6.587  1.1704  1.2742 -0.3693
21578SOL     OW69418   4.716   1.296   8.902 -0.2743  0.1192  0.2645
21578SOL    HW169419   4.781   1.341   8.846  0.0809 -0.8801 -0.1440
21578SOL    HW269420   4.708   1.209   8.863  0.1478 -0.6808  1.9013
21579SOL     OW69421   8.355   2.439   2.212 -0.0592  0.2120  0.0142
21579SOL    HW169422   8.417   2.510   2.191  1.3360 -0.7332  0.7496
21579SOL    HW269423   8.350   2.388   2.132  1.1149 -0.3953  0.2988
21580SOL     OW69424   6.562   4.768   7.194  0.0192 -0.0193 -0.4846
21580SOL    HW169425   6.472   4.738   7.208 -0.0281 -0.2178 -1.1795
21580SOL    HW269426   6.614   4.717   7.255 -0.0692 -1.5030 -1.5887
21581SOL     OW69427   3.543   2.175   3.874  0.6154 -0.4960  0.0903
21581SOL    HW169428   3.581   2.110   3.933  0.8395 -0.7094 -0.2864
21581SOL    HW269429   3.572   2.148   3.787  0.9974  0.2933 -0.0413
21582SOL     OW69430   6.263   8.343   5.136  0.1362  0.2093  0.4752
21582SOL    HW169431   6.195   8.292   5.091  0.9019  0.1722 -0.6734
21582SOL    HW269432   6.332   8.279   5.156 -0.4981  0.0555  2.4472
21583SOL     OW69433   3.022   7.394   1.787  0.3296 -0.1687  0.1151
21583SOL    HW169434   2.931   7.395   1.817  0.1605  0.5005 -0.3851
21583SOL    HW269435   3.055   7.482   1.809  1.2349 -0.7991  1.4016
21584SOL     OW69436   1.987  11.310   7.385 -0.3314 -0.3813  0.4119
21584SOL    HW169437   2.051  11.266   7.440 -1.2337 -0.5069  1.3984
21584SOL    HW269438   1.979  11.253   7.308 -1.4963 -2.0253  1.6816
21585SOL     OW69439   4.015   1.368   2.391 -0.2122 -0.8022  0.0875
21585SOL    HW169440   4.082   1.365   2.459  0.9714  3.2340 -0.6084
21585SOL    HW269441   4.046   1.308   2.323  1.9289 -0.1866  0.4501
21586SOL     OW69442  11.917  10.408   5.357 -0.2072  1.1672  0.0625
21586SOL    HW169443  12.006  10.437   5.338  0.6796 -1.3021  0.1421
21586SOL    HW269444  11.864  10.448   5.289  1.3905  0.5765 -1.6268
21587SOL     OW69445   7.113   8.741  11.883 -0.3820 -0.0473 -0.0809
21587SOL    HW169446   7.036   8.742  11.825 -0.1559 -1.1180 -0.4339
21587SOL    HW269447   7.130   8.648  11.897 -0.3609  0.1848  1.6384
21588SOL     OW69448   9.975   3.664   0.948 -0.1906  0.0428  0.3036
21588SOL    HW169449   9.996   3.749   0.907 -1.2019  0.5502  0.7957
21588SOL    HW269450   9.880   3.657   0.940  0.0617 -2.7139 -2.9530
21589SOL     OW69451  11.137   9.068   4.521  0.2925 -0.2471  0.3243
21589SOL    HW169452  11.087   9.124   4.581  1.8329  0.7211  0.7714
21589SOL    HW269453  11.106   9.093   4.434 -0.1595  0.1694  0.5976
21590SOL     OW69454   0.831   6.278   7.992  0.6373  0.2354  0.7562
21590SOL    HW169455   0.905   6.229   7.956  0.2909  0.1742  0.1042
21590SOL    HW269456   0.860   6.370   7.991 -0.1356  0.5415 -1.8046
21591SOL     OW69457   6.152   8.286   2.659 -0.0935  0.0158  0.2317
21591SOL    HW169458   6.206   8.282   2.580 -2.4420 -2.1308 -1.4294
21591SOL    HW269459   6.179   8.366   2.703  1.3611  1.2869 -2.7376
21592SOL     OW69460  10.549   8.035   6.605  0.1664  0.1863 -0.1133
21592SOL    HW169461  10.522   8.126   6.597  1.6286  0.5404 -1.4693
21592SOL    HW269462  10.551   8.018   6.699 -1.4034  1.1236  0.1258
21593SOL     OW69463   5.056   3.827  11.478 -0.2720  0.5325  0.0428
21593SOL    HW169464   5.134   3.843  11.425 -0.7839  1.7066 -0.3960
21593SOL    HW269465   5.086   3.836  11.568  0.3620 -0.3176 -0.0718
21594SOL     OW69466   6.180   3.775  11.295  0.0841  0.4685 -0.4708
21594SOL    HW169467   6.154   3.854  11.341  1.8093  0.3457  0.8458
21594SOL    HW269468   6.164   3.704  11.357  1.7568  0.2131 -0.2650
21595SOL     OW69469   6.617   5.193   0.523  0.3217  0.8524  0.3021
21595SOL    HW169470   6.679   5.191   0.450 -1.9589 -0.2874 -1.7261
21595SOL    HW269471   6.615   5.285   0.551  1.5213  1.2365 -0.7912
21596SOL     OW69472   9.167   4.953  10.607  0.2568 -0.6976 -0.0940
21596SOL    HW169473   9.229   4.890  10.644  1.1420  1.3469  2.2069
21596SOL    HW269474   9.210   4.983  10.527  2.2164  0.3822  1.2460
21597SOL     OW69475  10.048  11.088   2.775  0.2848 -0.6958 -0.4948
21597SOL    HW169476   9.986  11.017   2.756 -2.0343  1.0216  0.1208
21597SOL    HW269477   9.998  11.149   2.830  1.6340  2.1059 -2.1361
21598SOL     OW69478   4.904  11.791   4.821 -0.3509 -0.6305 -0.2074
21598SOL    HW169479   4.978  11.777   4.880  1.2138  0.7727 -1.6945
21598SOL    HW269480   4.863  11.872   4.851 -0.5824 -0.8047 -0.0528
21599SOL     OW69481   0.497   0.372  11.166 -0.2910 -0.4281 -0.6059
21599SOL    HW169482   0.471   0.443  11.225  1.9707  1.4051 -1.6860
21599SOL    HW269483   0.489   0.293  11.220 -0.1198  0.9440  1.5685
21600SOL     OW69484   6.865  11.001   5.431  0.1145  0.3717 -0.1404
21600SOL    HW169485   6.784  10.957   5.405 -0.6184  1.0248  0.9600
21600SOL    HW269486   6.855  11.090   5.396 -0.2400  0.8316  1.0805
21601SOL     OW69487  10.438   6.361   3.646 -0.3112  0.6696 -0.4169
21601SOL    HW169488  10.392   6.445   3.644 -0.2877  0.7495  1.1325
21601SOL    HW269489  10.518   6.380   3.695 -1.2596 -0.6691  1.7904
21602SOL     OW69490   5.377   1.482   4.366  0.2818  0.3644  0.2258
21602SOL    HW169491   5.429   1.405   4.388 -0.0591  0.3133  0.8854
21602SOL    HW269492   5.387   1.492   4.272  0.4103 -0.4284  0.1533
21603SOL     OW69493   2.897   3.407  10.240  0.5505  0.1001 -0.3258
21603SOL    HW169494   2.878   3.467  10.312 -0.2525  1.8085 -1.8975
21603SOL    HW269495   2.890   3.461  10.161 -1.0523 -2.2337 -1.8891
21604SOL     OW69496  10.040   0.644   6.653 -0.2770 -0.4721  0.2167
21604SOL    HW169497  10.082   0.718   6.696 -2.7512  1.1254  0.1124
21604SOL    HW269498  10.027   0.580   6.722 -0.4435  0.3230  0.9478
21605SOL     OW69499   8.799   7.814   9.017 -0.3065 -0.0093  0.1266
21605SOL    HW169500   8.778   7.799   9.109  0.5560  0.1614  0.3548
21605SOL    HW269501   8.778   7.906   9.002  2.4256  0.8630  0.9990
21606SOL     OW69502   5.806   5.287   9.712  0.2367 -0.0752  0.4574
21606SOL    HW169503   5.749   5.230   9.661 -0.4290  0.0123  1.0939
21606SOL    HW269504   5.892   5.277   9.671 -0.1887 -0.3480 -0.3987
21607SOL     OW69505   7.348  11.303   4.729  0.3193  0.5621  0.1562
21607SOL    HW169506   7.350  11.212   4.756 -0.5357  0.6788  0.6267
21607SOL    HW269507   7.350  11.299   4.633 -0.7870  0.0089  0.1435
21608SOL     OW69508   9.112   5.674   5.657 -0.0870 -0.0585 -0.0785
21608SOL    HW169509   9.196   5.645   5.623 -0.6856 -1.8104 -0.1284
21608SOL    HW269510   9.092   5.613   5.728 -1.1371  0.5803  0.1912
21609SOL     OW69511   6.617   4.834  11.846  0.1598  0.1566 -0.5541
21609SOL    HW169512   6.679   4.775  11.802 -0.4960 -3.9047  3.2402
21609SOL    HW269513   6.668   4.872  11.918 -0.8179 -0.4077  0.4622
21610SOL     OW69514   4.774   6.805   4.446 -0.2030 -0.0478  0.4560
21610SOL    HW169515   4.739   6.874   4.503  0.2814  0.3282  0.3149
21610SOL    HW269516   4.731   6.725   4.475  0.5319  0.0179  1.8223
21611SOL     OW69517   2.265   0.717   0.414  0.2849  0.5863 -0.3475
21611SOL    HW169518   2.229   0.672   0.491  0.2200  1.1469 -0.0469
21611SOL    HW269519   2.188   0.736   0.360  0.4570 -1.0096 -1.2171
21612SOL     OW69520   0.988   2.309   3.596  0.2979 -0.0536  0.1369
21612SOL    HW169521   1.013   2.402   3.600  0.1131  0.1047 -1.6210
21612SOL    HW269522   1.059   2.263   3.641  1.9893  0.6920 -1.6740
21613SOL     OW69523   3.318   3.070   3.423  0.1713  0.3378  0.0098
21613SOL    HW169524   3.247   3.046   3.482  0.4043 -0.1829  0.0835
21613SOL    HW269525   3.396   3.028   3.460  0.3469  0.1318 -0.5855
21614SOL     OW69526   5.013   3.772  10.605  0.0260 -0.2147 -0.1722
21614SOL    HW169527   5.041   3.699  10.549  0.1577  1.5234 -2.5350
21614SOL    HW269528   5.082   3.837  10.596 -1.3312  1.2622 -0.3339
21615SOL     OW69529   1.943   0.413   7.339 -0.2054  0.2801  0.4257
21615SOL    HW169530   1.993   0.398   7.419 -0.6105 -2.1139  0.3210
21615SOL    HW269531   2.009   0.426   7.271  0.1913  0.3914  0.8269
21616SOL     OW69532   4.552  10.493  10.862  0.4304  0.0099  0.5335
21616SOL    HW169533   4.610  10.511  10.936  1.7264  0.2732 -0.5222
21616SOL    HW269534   4.482  10.439  10.899  1.8610 -1.1655  1.6296
21617SOL     OW69535   1.130   1.885  10.638 -0.1207 -0.2550  0.5093
21617SOL    HW169536   1.049   1.844  10.609 -0.5298  0.5217  0.5257
21617SOL    HW269537   1.111   1.979  10.639  0.6974 -0.0790  0.7617
21618SOL     OW69538   0.199   2.129   6.552  0.2220  0.0781 -0.0231
21618SOL    HW169539   0.284   2.167   6.577  0.5065  0.7114 -1.7999
21618SOL    HW269540   0.141   2.151   6.625  1.3484  0.4380  0.8080
21619SOL     OW69541   8.337   5.613   6.333  0.1197 -0.3337  0.0179
21619SOL    HW169542   8.299   5.693   6.369  0.0480 -0.0180 -0.7457
21619SOL    HW269543   8.390   5.577   6.404  1.1054  1.0187 -0.0189
21620SOL     OW69544  10.490  10.533   1.828  0.1305 -1.1655  0.6471
21620SOL    HW169545  10.465  10.506   1.739  2.0170 -0.1906 -0.2243
21620SOL    HW269546  10.536  10.458   1.864  1.5074 -0.7343 -0.1427
21621SOL     OW69547  10.524   7.315  11.999 -0.1600  0.0217  0.3261
21621SOL    HW169548  10.563   7.231  12.025 -0.8539 -0.5049 -0.2953
21621SOL    HW269549  10.529   7.369  12.078  1.8497  0.0049  0.2779
21622SOL     OW69550   9.412   4.356   3.548 -0.0209  0.3593 -0.3878
21622SOL    HW169551   9.408   4.412   3.624 -0.3318  2.0002 -1.5639
21622SOL    HW269552   9.352   4.284   3.567 -0.4155  0.9731  0.7140
21623SOL     OW69553   4.283  11.795   6.903  0.0134 -0.6167 -0.1949
21623SOL    HW169554   4.296  11.732   6.832 -2.1186 -0.8715 -0.4397
21623SOL    HW269555   4.269  11.878   6.859 -0.8134 -0.6822 -0.0760
21624SOL     OW69556   7.207   4.849   0.199  0.1611 -0.1904  0.5180
21624SOL    HW169557   7.152   4.870   0.275 -2.0036  0.7914 -1.2151
21624SOL    HW269558   7.293   4.884   0.222 -0.5415  0.4582  2.3399
21625SOL     OW69559   4.521   5.398   7.657 -0.2736  0.1853  0.2982
21625SOL    HW169560   4.586   5.422   7.723 -2.0945  0.6414  2.0405
21625SOL    HW269561   4.563   5.330   7.606  2.1643  1.6088  0.2506
21626SOL     OW69562   1.894   8.424   4.448 -0.4576 -0.0867 -0.1914
21626SOL    HW169563   1.877   8.409   4.355  1.3009  1.1445 -0.7676
21626SOL    HW269564   1.869   8.342   4.491 -0.2601 -1.0849 -1.8970
21627SOL     OW69565  11.837   4.908   0.739 -0.0908  0.6060  0.4491
21627SOL    HW169566  11.778   4.935   0.668  0.5826 -1.5281 -1.0235
21627SOL    HW269567  11.922   4.943   0.715 -0.2110  1.4758  1.2284
21628SOL     OW69568   7.344   7.873  11.338 -0.9103  0.2157 -0.3015
21628SOL    HW169569   7.377   7.815  11.407  0.6466 -1.0592 -2.0038
21628SOL    HW269570   7.358   7.961  11.372  1.0591 -0.3560  0.5001
21629SOL     OW69571   7.769   8.093   4.889 -0.1009 -0.1807  0.2408
21629SOL    HW169572   7.683   8.128   4.864  0.4120  1.3590  0.5578
21629SOL    HW269573   7.809   8.067   4.806 -1.2975 -2.0480  0.1723
21630SOL     OW69574   9.518   9.311  10.029 -0.3183  0.2093  0.1659
21630SOL    HW169575   9.487   9.221  10.025 -0.2768  0.1912  0.2518
21630SOL    HW269576   9.601   9.310   9.982  0.2095 -0.0211  1.0716
21631SOL     OW69577   8.714   3.471   3.605  0.4042 -0.0732  0.3046
21631SOL    HW169578   8.631   3.466   3.653  0.4687  0.5610  0.4957
21631SOL    HW269579   8.765   3.538   3.652 -0.6788  2.8471 -2.3301
21632SOL     OW69580   5.647   3.556   2.248  0.1285 -0.0144  0.0872
21632SOL    HW169581   5.683   3.642   2.229 -1.7582  0.3636 -2.3519
21632SOL    HW269582   5.603   3.567   2.333 -1.9186  2.1512 -1.1326
21633SOL     OW69583   3.672   7.721   3.177 -0.0623 -0.0204 -0.2860
21633SOL    HW169584   3.706   7.731   3.088 -3.4992 -1.1319 -1.9280
21633SOL    HW269585   3.663   7.626   3.189  1.2598  0.0621  1.6957
21634SOL     OW69586   0.108   7.004   1.026  0.1536 -0.0309  0.4035
21634SOL    HW169587   0.106   7.091   0.987 -0.3883  0.0862  0.6934
21634SOL    HW269588   0.095   6.944   0.952  3.3646 -0.0417 -0.2897
21635SOL     OW69589   1.973   6.515   9.782  0.2400 -0.1086  0.1161
21635SOL    HW169590   1.941   6.559   9.861  0.1932 -1.4879  0.9128
21635SOL    HW269591   1.965   6.422   9.802 -0.0157 -0.5029 -1.6354
21636SOL     OW69592   5.332   2.447   7.566  0.2722  0.1038  0.5080
21636SOL    HW169593   5.380   2.381   7.515 -0.2176  0.2927 -0.2111
21636SOL    HW269594   5.243   2.414   7.570  0.1355  0.4750  0.5759
21637SOL     OW69595  11.337   4.161   7.676  0.0243 -0.0189  0.3024
21637SOL    HW169596  11.296   4.236   7.633 -0.3129  0.3570  1.2494
21637SOL    HW269597  11.394   4.199   7.743 -1.2570 -0.5837  1.8026
21638SOL     OW69598   7.862   3.519   7.269 -0.0452  0.2258  0.3812
21638SOL    HW169599   7.902   3.432   7.257  0.0399  0.1482  1.1266
21638SOL    HW269600   7.903   3.552   7.349  0.1828  1.1082 -0.0918
21639SOL     OW69601   6.589   9.248   5.413 -0.1137  0.1358 -0.0266
21639SOL    HW169602   6.584   9.294   5.329  1.4503 -2.3111 -1.5507
21639SOL    HW269603   6.537   9.168   5.400  1.8587 -1.3042  0.5749
21640SOL     OW69604   6.249   4.251   2.076 -0.5493 -0.0597 -0.1119
21640SOL    HW169605   6.278   4.297   1.998  0.5579  0.3015  0.4802
21640SOL    HW269606   6.237   4.160   2.048  1.3177 -0.2572 -0.3875
21641SOL     OW69607   8.114   6.741   2.924  0.5790  0.3768  0.4946
21641SOL    HW169608   8.195   6.786   2.949  0.5390  0.6384  0.1716
21641SOL    HW269609   8.142   6.654   2.895  0.6087  0.0249  1.5576
21642SOL     OW69610   1.654  10.729   3.633 -0.4496  0.2519 -0.2327
21642SOL    HW169611   1.645  10.729   3.728 -2.4579 -0.4993 -0.3833
21642SOL    HW269612   1.572  10.692   3.601  1.3078 -2.3539 -2.1581
21643SOL     OW69613   7.918   2.852   0.242  0.1071  0.2055 -1.1181
21643SOL    HW169614   7.929   2.764   0.276 -2.5352 -0.1858 -1.0195
21643SOL    HW269615   7.872   2.840   0.159 -2.5714  1.4972  0.0440
21644SOL     OW69616   1.245   6.799   3.169  0.6633 -0.2059 -0.7284
21644SOL    HW169617   1.243   6.747   3.250 -0.7301  1.0670  0.1027
21644SOL    HW269618   1.306   6.870   3.187 -0.0568  0.3887 -0.5614
21645SOL     OW69619   8.534   4.033   3.717 -0.1702 -0.2906  0.1942
21645SOL    HW169620   8.542   3.980   3.637 -0.4869 -0.6780  0.4213
21645SOL    HW269621   8.584   3.984   3.783  0.5476  0.2998  0.1079
21646SOL     OW69622   1.132   8.855   8.089  0.3270  0.2332  0.0414
21646SOL    HW169623   1.226   8.843   8.106  0.5342  0.2356 -1.0126
21646SOL    HW269624   1.094   8.768   8.099  0.7381 -0.1158 -1.1463
21647SOL     OW69625   2.123   3.936   0.256  0.2728 -0.7121  0.3371
21647SOL    HW169626   2.121   4.027   0.285 -0.1573 -0.0705 -1.5239
21647SOL    HW269627   2.032   3.914   0.239  0.3285 -1.6525  1.1984
21648SOL     OW69628   1.298   7.534   2.184  0.2367  0.6479  0.0008
21648SOL    HW169629   1.280   7.618   2.143  2.3075  0.7822 -0.7756
21648SOL    HW269630   1.361   7.491   2.126  0.5817 -0.6634  1.2601
21649SOL     OW69631  11.123   1.419   4.138 -0.5549 -0.4000  0.7488
21649SOL    HW169632  11.159   1.394   4.224 -0.7520 -0.3663  0.8416
21649SOL    HW269633  11.044   1.367   4.130 -0.7459 -0.1119  0.7572
21650SOL     OW69634   7.083   7.165   3.249  0.3278 -0.2561  0.5284
21650SOL    HW169635   7.082   7.091   3.310 -2.7033  0.0886  1.0801
21650SOL    HW269636   7.068   7.242   3.304  4.1456  1.0023  0.0668
21651SOL     OW69637   6.906   2.308   5.075  0.0845  0.0506 -0.5584
21651SOL    HW169638   7.002   2.311   5.071  0.1811  1.9849  1.5931
21651SOL    HW269639   6.886   2.292   5.167 -1.6895 -0.1848 -0.9459
21652SOL     OW69640   2.494   8.021   6.127 -0.1352  0.6170 -0.0602
21652SOL    HW169641   2.481   7.963   6.051  0.6135  1.5222 -0.9113
21652SOL    HW269642   2.409   8.062   6.141 -0.0412  1.1998 -1.0728
21653SOL     OW69643   2.887   4.929  11.450  0.5073  0.2635 -0.6024
21653SOL    HW169644   2.968   4.890  11.418 -0.5533  0.1660 -3.4419
21653SOL    HW269645   2.820   4.862  11.435 -0.3576  0.8769  0.3400
21654SOL     OW69646   8.901   1.461   6.745 -0.6478  0.6309  0.0816
21654SOL    HW169647   8.834   1.421   6.689  0.3474 -0.2247 -0.5341
21654SOL    HW269648   8.960   1.505   6.684  0.0981  0.2300  0.5009
21655SOL     OW69649   7.872  11.668   9.157  0.1349 -0.2986 -0.8989
21655SOL    HW169650   7.870  11.737   9.091  0.2684 -0.2073 -0.8085
21655SOL    HW269651   7.909  11.710   9.235 -2.6072  0.3864  0.1485
21656SOL     OW69652   7.958   0.111   3.131 -0.0015  0.0612  0.0874
21656SOL    HW169653   8.040   0.092   3.086  0.6627  0.3775  1.1342
21656SOL    HW269654   7.983   0.124   3.223 -0.9068  2.3766  0.0565
21657SOL     OW69655   8.491   6.857   2.619 -0.0070 -0.1519  0.5078
21657SOL    HW169656   8.398   6.869   2.640  0.3958  1.1392  1.7156
21657SOL    HW269657   8.536   6.865   2.703  1.1343 -1.8266  0.0999
21658SOL     OW69658   1.536   3.010   4.148 -0.5556 -0.2702  0.5000
21658SOL    HW169659   1.595   3.058   4.089  1.5201 -3.7892 -0.5445
21658SOL    HW269660   1.514   3.074   4.216  2.1184  2.1008 -0.6396
21659SOL     OW69661   1.142  11.920   3.557  0.1006  0.7402  1.1676
21659SOL    HW169662   1.187  11.839   3.580 -0.6232  0.0845  0.2941
21659SOL    HW269663   1.212  11.977   3.524  0.3944 -0.0406  0.4151
21660SOL     OW69664  10.873  10.450   1.795  0.0238 -0.3501 -0.1105
21660SOL    HW169665  10.896  10.543   1.799 -0.6575 -0.0974 -1.4913
21660SOL    HW269666  10.904  10.421   1.710  1.6856 -1.8367  0.9372
21661SOL     OW69667   3.187   2.830   8.402 -0.3291  0.3691 -0.1425
21661SOL    HW169668   3.234   2.892   8.346  0.1234 -0.4981 -0.7357
21661SOL    HW269669   3.146   2.768   8.341  0.4304 -0.7799  0.4744
21662SOL     OW69670   9.949   4.041   1.088  0.0287  0.0867 -0.3777
21662SOL    HW169671   9.869   4.075   1.046  1.0184  2.1405 -0.7297
21662SOL    HW269672   9.960   3.954   1.051 -1.7936 -0.0483 -0.6831
21663SOL     OW69673  10.197   7.510  10.225  0.2892  0.3490  0.5469
21663SOL    HW169674  10.193   7.478  10.315  0.9519  1.1966  0.8974
21663SOL    HW269675  10.265   7.577  10.227  0.9108 -0.2135 -0.7866
21664SOL     OW69676   2.605   3.764   7.858  0.2653 -0.5110  0.3117
21664SOL    HW169677   2.616   3.854   7.827 -2.0461 -1.1761 -2.9832
21664SOL    HW269678   2.558   3.772   7.940  1.0578  1.2741  0.6407
21665SOL     OW69679   8.946  11.218  10.680  0.2217 -0.8090  0.0766
21665SOL    HW169680   8.909  11.133  10.653  1.8847 -1.2097 -1.0846
21665SOL    HW269681   8.909  11.281  10.619 -0.8421 -0.6880  0.8037
21666SOL     OW69682  11.689  11.548   7.129  0.1386 -0.1557  0.0709
21666SOL    HW169683  11.738  11.628   7.109 -0.0237 -0.2860 -0.9277
21666SOL    HW269684  11.647  11.525   7.046  0.2907 -1.3557  0.3130
21667SOL     OW69685   4.828  11.828   1.195 -0.3676 -0.3837 -0.9032
21667SOL    HW169686   4.757  11.891   1.210 -0.9952 -1.2973  0.1531
21667SOL    HW269687   4.866  11.854   1.112 -1.7444  0.3312 -1.3392
21668SOL     OW69688   2.001   4.047   1.962  0.3860 -0.4496 -0.1787
21668SOL    HW169689   1.986   4.093   1.880  1.4110 -1.4603 -0.9727
21668SOL    HW269690   2.080   4.088   1.998 -0.5322  0.5508  0.7413
21669SOL     OW69691   0.061   4.831   9.516  0.0938 -0.3887  0.5994
21669SOL    HW169692   0.105   4.804   9.435 -1.3462 -0.5667 -0.1567
21669SOL    HW269693   0.035   4.749   9.558 -1.0947 -0.2842  0.1169
21670SOL     OW69694   1.451   4.539   4.349  0.2099 -0.2327  0.1300
21670SOL    HW169695   1.536   4.578   4.368 -0.9367  1.7585  1.5647
21670SOL    HW269696   1.440   4.550   4.255  1.1635  0.2904  0.0696
21671SOL     OW69697   2.957   4.888   5.354 -0.3359 -0.3232  0.2976
21671SOL    HW169698   2.956   4.859   5.263  0.5186  1.0167 -0.1585
21671SOL    HW269699   3.035   4.848   5.391  0.3388  0.6162 -0.0806
21672SOL     OW69700   3.146   3.990   4.360 -0.1133 -0.6671  0.3091
21672SOL    HW169701   3.131   3.984   4.265 -0.5872  0.7459  0.2734
21672SOL    HW269702   3.123   3.903   4.393 -3.6391 -0.1603 -0.3952
21673SOL     OW69703  11.444   6.032  10.049  0.0028 -0.1238 -0.0041
21673SOL    HW169704  11.385   5.994   9.983  0.6220  1.2756 -1.4075
21673SOL    HW269705  11.437   5.972  10.123  0.1591 -2.4457 -1.7328
21674SOL     OW69706   6.847   9.907   0.105  0.3155 -0.1787  0.1140
21674SOL    HW169707   6.780   9.870   0.048  0.2079 -1.1515  0.8558
21674SOL    HW269708   6.913   9.839   0.113 -0.0284 -0.3534  1.7347
21675SOL     OW69709   6.471   0.319   5.341  0.6822  0.2301 -0.5351
21675SOL    HW169710   6.420   0.239   5.357 -0.7828  1.3849  0.9300
21675SOL    HW269711   6.442   0.348   5.255 -1.1290  0.7896  0.2092
21676SOL     OW69712  10.333  11.104   3.610  0.2727  0.2009 -0.2362
21676SOL    HW169713  10.313  11.069   3.697 -3.1458 -0.1344 -1.0392
21676SOL    HW269714  10.260  11.163   3.591 -0.3449 -1.4663 -3.7691
21677SOL     OW69715   2.994   4.089   3.086  0.6377  0.2093 -0.0128
21677SOL    HW169716   3.055   4.040   3.031  0.2957 -0.5655  0.2772
21677SOL    HW269717   2.938   4.022   3.125  1.9549  0.5457  2.6441
21678SOL     OW69718   6.624   1.406   1.907 -0.4495 -0.1303  0.7242
21678SOL    HW169719   6.535   1.435   1.888 -0.0801  0.3771 -0.2854
21678SOL    HW269720   6.664   1.391   1.821  1.0313  1.4764  1.0563
21679SOL     OW69721   9.372  11.400   8.919  0.3393 -0.0506 -0.1273
21679SOL    HW169722   9.447  11.399   8.859  1.5779  0.5367  1.3717
21679SOL    HW269723   9.361  11.493   8.941 -0.1157 -0.2639  0.5440
21680SOL     OW69724   3.531   8.517   9.465  0.0101  0.0887 -0.4087
21680SOL    HW169725   3.499   8.539   9.552  0.7615 -3.6117  1.0167
21680SOL    HW269726   3.451   8.498   9.415 -0.3960 -0.6527  0.4623
21681SOL     OW69727   4.181   9.708  11.896  0.0938  0.0570 -0.7057
21681SOL    HW169728   4.270   9.673  11.900 -0.6752 -2.0540 -0.6189
21681SOL    HW269729   4.144   9.671  11.816 -0.7722  0.7764 -0.6606
21682SOL     OW69730   7.109   8.236   7.428  0.1807  0.0594  0.0228
21682SOL    HW169731   7.157   8.154   7.418  0.7522  0.3506  0.3067
21682SOL    HW269732   7.100   8.270   7.339  1.1686  0.3714  0.0313
21683SOL     OW69733   1.664   3.469   5.216  0.4780 -0.0825  0.1178
21683SOL    HW169734   1.598   3.414   5.259 -0.2369  0.5419 -0.1661
21683SOL    HW269735   1.704   3.412   5.150  0.8773 -0.7385  0.9053
21684SOL     OW69736   0.695   5.206   9.860 -0.2654 -0.3027 -0.2890
21684SOL    HW169737   0.600   5.197   9.846 -0.3918 -0.0223  0.3778
21684SOL    HW269738   0.731   5.124   9.826 -0.8007 -0.6360 -0.0741
21685SOL     OW69739   5.190   6.851   5.359  0.1681  0.7087  0.0714
21685SOL    HW169740   5.164   6.785   5.294 -0.5200  1.1274 -0.0920
21685SOL    HW269741   5.119   6.851   5.423  1.6291 -0.9086  1.7957
21686SOL     OW69742   2.408   7.172  11.463 -0.3436 -0.5946  0.1962
21686SOL    HW169743   2.435   7.243  11.404  2.0244 -0.9128  0.7691
21686SOL    HW269744   2.489   7.148  11.509 -1.6408 -1.8997  1.9117
21687SOL     OW69745   8.353  10.099   3.249  0.1154 -0.3238 -0.0092
21687SOL    HW169746   8.419  10.133   3.188  1.1125 -0.5796  0.8873
21687SOL    HW269747   8.366  10.151   3.328 -2.4999  1.3916 -0.6029
21688SOL     OW69748   7.609   7.683   5.415  0.1755 -1.0714  0.6898
21688SOL    HW169749   7.694   7.727   5.419 -0.1554 -0.5085  2.4168
21688SOL    HW269750   7.544   7.753   5.425 -0.6005 -1.3282 -1.8494
21689SOL     OW69751   7.075   9.482   4.020  0.2788 -0.1909  0.4694
21689SOL    HW169752   7.095   9.550   4.085 -1.8192  0.7922  0.1643
21689SOL    HW269753   7.149   9.422   4.026  2.8880  2.6688 -0.0381
21690SOL     OW69754   1.645   7.588   0.986  0.1217  0.1346  0.2396
21690SOL    HW169755   1.661   7.526   0.914  0.1854  0.2580  0.1460
21690SOL    HW269756   1.706   7.660   0.969  1.4447 -0.6593  1.4244
21691SOL     OW69757  11.809  11.537  11.118 -0.4465  0.1410  0.0591
21691SOL    HW169758  11.764  11.486  11.051 -1.4806 -1.2228  1.7258
21691SOL    HW269759  11.783  11.497  11.200  2.7540  0.1916  1.2060
21692SOL     OW69760   5.300   9.343   3.295  0.3475 -0.3052  0.3689
21692SOL    HW169761   5.230   9.336   3.360  0.6532 -0.3330  0.6977
21692SOL    HW269762   5.282   9.425   3.249  0.0144 -0.3883  0.3502
21693SOL     OW69763   6.975  11.031   6.157 -0.2064 -0.0302 -0.1929
21693SOL    HW169764   6.903  11.094   6.158 -1.2557 -1.1893 -0.4096
21693SOL    HW269765   7.029  11.056   6.232 -1.5697  0.0533  0.8061
21694SOL     OW69766   9.995   4.654   0.532  0.3662  0.4304 -0.4684
21694SOL    HW169767  10.041   4.576   0.565  2.0171  0.5743 -2.2669
21694SOL    HW269768   9.938   4.620   0.463  1.1996  0.8080 -1.3589
21695SOL     OW69769  10.697  10.099   5.661  0.6134  0.7269 -0.5038
21695SOL    HW169770  10.697  10.079   5.567  0.3875  0.3566 -0.4284
21695SOL    HW269771  10.789  10.116   5.681  1.4574 -3.3932  0.0331
21696SOL     OW69772   0.870   8.875   2.116  0.0505 -0.0790 -0.1317
21696SOL    HW169773   0.946   8.817   2.112 -0.7900 -1.3260  1.0423
21696SOL    HW269774   0.871   8.921   2.032  1.0098 -1.4569 -0.9210
21697SOL     OW69775   2.612   5.344   1.718  0.0306  0.5409 -0.3825
21697SOL    HW169776   2.694   5.298   1.702  0.2764  1.0156 -0.4960
21697SOL    HW269777   2.549   5.274   1.739 -0.0068 -0.0176 -2.1760
21698SOL     OW69778   1.067   2.894   3.006 -0.6912 -0.4172  0.6598
21698SOL    HW169779   0.985   2.847   2.989 -0.1106 -0.6127 -1.9861
21698SOL    HW269780   1.129   2.825   3.031 -0.7491 -0.5800  0.3586
21699SOL     OW69781   5.400   0.403   6.546 -0.6516  0.2159 -0.5368
21699SOL    HW169782   5.378   0.470   6.481  2.0803  0.5320 -1.2445
21699SOL    HW269783   5.417   0.325   6.494  2.9126  0.8087 -0.5196
21700SOL     OW69784   7.992   8.035   8.358  0.0884 -0.4000  0.1323
21700SOL    HW169785   7.930   8.100   8.392  0.2436  0.2153 -0.7136
21700SOL    HW269786   8.011   7.979   8.432 -0.7676 -0.0314  0.6490
21701SOL     OW69787   9.460   6.363  11.125 -0.4006 -0.2207  0.0250
21701SOL    HW169788   9.456   6.439  11.067 -0.1322 -0.6553 -0.5754
21701SOL    HW269789   9.516   6.301  11.078 -2.9625 -1.9878 -0.9212
21702SOL     OW69790   4.932   5.187   4.877 -0.0916 -0.1130  0.3604
21702SOL    HW169791   4.952   5.097   4.903 -1.6602 -0.7172 -0.3577
21702SOL    HW269792   4.945   5.188   4.782 -1.1698  0.0697  0.1933
21703SOL     OW69793  10.801  11.618   9.979  0.7338 -0.2503  0.2013
21703SOL    HW169794  10.834  11.576  10.058  2.2489  1.8054  0.7540
21703SOL    HW269795  10.856  11.583   9.909  0.6308 -0.6724  0.3279
21704SOL     OW69796   3.629   8.739   4.949  0.9651 -0.2208 -0.0314
21704SOL    HW169797   3.534   8.751   4.944  0.8185 -1.3792 -0.2319
21704SOL    HW269798   3.665   8.827   4.935 -0.0479  0.0859 -0.8464
21705SOL     OW69799   9.935   7.153   5.822  0.3616  0.1260  0.6356
21705SOL    HW169800   9.882   7.077   5.845 -0.3867  0.5817  0.4556
21705SOL    HW269801  10.004   7.118   5.765 -0.0815 -0.3840  0.4093
21706SOL     OW69802   2.191   0.280   0.309  0.3620  0.4310  0.9178
21706SOL    HW169803   2.222   0.215   0.245 -0.1196  0.8050  0.2921
21706SOL    HW269804   2.207   0.364   0.267  1.3410  0.7512  1.8876
21707SOL     OW69805  10.144  10.798   4.996  0.1681 -0.3176 -0.2807
21707SOL    HW169806  10.177  10.845   5.072  1.3944 -2.3033  0.4988
21707SOL    HW269807  10.208  10.815   4.927  2.1452 -2.8530  0.7666
21708SOL     OW69808   8.009   0.734  11.557 -0.1356  0.0730  0.5406
21708SOL    HW169809   7.923   0.771  11.576  0.5516  1.7836  0.5096
21708SOL    HW269810   7.991   0.651  11.513 -1.7498  0.4372  0.4674
21709SOL     OW69811   8.095   7.423   5.272  0.2612 -0.5633 -0.5515
21709SOL    HW169812   8.057   7.419   5.184  0.7887 -2.0700 -0.7453
21709SOL    HW269813   8.149   7.502   5.272 -0.0839 -0.3184 -1.4386
21710SOL     OW69814   7.707   2.802   1.578  0.2355  0.1873 -0.4231
21710SOL    HW169815   7.650   2.880   1.581 -0.4175 -0.3073  1.1089
21710SOL    HW269816   7.787   2.829   1.622 -0.2321 -0.1505  0.6851
21711SOL     OW69817   1.101   1.904  11.781 -0.3276 -0.1557 -0.0148
21711SOL    HW169818   1.044   1.944  11.714  0.1959 -1.8482 -1.5539
21711SOL    HW269819   1.045   1.840  11.824 -0.2214 -0.1928  0.0661
21712SOL     OW69820   1.545   4.287   4.872  0.0572 -0.7899 -0.3334
21712SOL    HW169821   1.628   4.320   4.906 -0.1281  1.0676 -1.5543
21712SOL    HW269822   1.571   4.220   4.808  0.5201 -1.4990  0.5716
21713SOL     OW69823  10.528   0.068   0.594  0.4216  0.7075 -0.6257
21713SOL    HW169824  10.449   0.121   0.595 -0.4445 -0.5472 -0.3793
21713SOL    HW269825  10.580   0.100   0.669 -0.7178  0.2784  0.3718
21714SOL     OW69826   5.915   0.828   8.638  0.4419  0.3357 -0.2750
21714SOL    HW169827   6.000   0.856   8.673  0.1224 -1.4315  2.1681
21714SOL    HW269828   5.928   0.736   8.616 -1.0850 -0.2538  1.1428
21715SOL     OW69829   3.182   1.356  11.360 -0.1301 -0.0136  0.4613
21715SOL    HW169830   3.150   1.408  11.434  1.0357  1.0939  0.2302
21715SOL    HW269831   3.170   1.413  11.284 -0.1367 -0.6456 -0.0197
21716SOL     OW69832   9.714   9.022   4.394 -0.1774  0.5774  0.1239
21716SOL    HW169833   9.637   8.991   4.441  0.8032 -1.7305  0.3623
21716SOL    HW269834   9.703   8.988   4.305  0.0322  1.2165 -0.1526
21717SOL     OW69835  11.674   0.746   7.674 -0.4521 -0.1087  0.2118
21717SOL    HW169836  11.748   0.698   7.638  0.6741  0.4844  1.6205
21717SOL    HW269837  11.669   0.719   7.765  0.6313  2.8090  1.2491
21718SOL     OW69838   6.737   6.153  10.090 -0.8420  0.7103  0.4761
21718SOL    HW169839   6.724   6.152  10.185 -0.0963  1.5291  0.5959
21718SOL    HW269840   6.820   6.199  10.077 -1.4137  1.4826 -0.6206
21719SOL     OW69841   1.584   6.763   9.727  0.3240  0.0586 -0.3289
21719SOL    HW169842   1.546   6.845   9.698  0.2466  0.2480  0.2856
21719SOL    HW269843   1.604   6.715   9.646 -0.3754  0.3387 -0.6786
21720SOL     OW69844   4.140   1.632   8.544 -0.1330  0.4429  0.3527
21720SOL    HW169845   4.187   1.704   8.585  1.6387  0.9668 -2.3308
21720SOL    HW269846   4.065   1.616   8.602  0.1275  3.5205  1.7487
21721SOL     OW69847   0.826   7.635   0.279  0.1854  0.2736 -0.1077
21721SOL    HW169848   0.867   7.562   0.327  2.2403  0.8646 -0.8490
21721SOL    HW269849   0.843   7.615   0.187 -0.4261  1.0144 -0.3861
21722SOL     OW69850   1.375   8.567   3.090  0.3228  0.2715 -0.0402
21722SOL    HW169851   1.469   8.553   3.082  0.3787 -0.3561  1.4466
21722SOL    HW269852   1.367   8.652   3.133  0.2241  0.1028  0.2763
21723SOL     OW69853   7.865   2.463   6.232  0.1396 -0.3473 -0.4084
21723SOL    HW169854   7.831   2.381   6.269  0.1838  0.1613  0.7983
21723SOL    HW269855   7.953   2.471   6.270 -0.0095  0.4471 -0.2114
21724SOL     OW69856   2.216   1.178   5.023  0.4876 -0.0094 -0.1825
21724SOL    HW169857   2.195   1.256   4.972 -1.1932 -1.5421 -1.9989
21724SOL    HW269858   2.292   1.203   5.077  0.0567  2.7898 -0.7670
21725SOL     OW69859   5.628   6.681   9.493 -0.2969 -0.1870  0.3505
21725SOL    HW169860   5.693   6.749   9.513  0.9657 -1.3957  0.5287
21725SOL    HW269861   5.593   6.655   9.578  0.1218 -0.6040  0.3999
21726SOL     OW69862   8.177   1.779   0.629 -0.1362  0.1987 -0.0684
21726SOL    HW169863   8.104   1.811   0.682 -0.9199 -0.0492 -0.9433
21726SOL    HW269864   8.135   1.721   0.565  0.7731  0.4261 -0.8972
21727SOL     OW69865   6.415   5.661   7.521 -0.6040  0.3696  0.4510
21727SOL    HW169866   6.405   5.600   7.595 -2.8686 -1.9770 -1.6018
21727SOL    HW269867   6.325   5.681   7.495  0.1171  3.4834  0.0509
21728SOL     OW69868   8.852  11.468   4.772 -0.3620  0.1961  0.3735
21728SOL    HW169869   8.907  11.529   4.723  0.3602 -1.7063 -1.2967
21728SOL    HW269870   8.775  11.520   4.797  0.9344  2.1982  0.4660
21729SOL     OW69871   5.148   5.896   3.001 -0.1447  0.1137  0.1495
21729SOL    HW169872   5.101   5.866   3.079 -0.2836 -0.2636 -0.0720
21729SOL    HW269873   5.158   5.990   3.013  2.1991 -0.2809  1.8762
21730SOL     OW69874   1.351   6.960   5.808  0.2941  0.5005  0.0259
21730SOL    HW169875   1.275   7.017   5.795 -0.8554 -1.4479 -2.8578
21730SOL    HW269876   1.351   6.941   5.902 -2.1021  1.4686  0.3077
21731SOL     OW69877  10.439   9.733   8.565 -0.0860  0.0426  0.1463
21731SOL    HW169878  10.352   9.750   8.600 -1.0431  0.3410 -2.2132
21731SOL    HW269879  10.489   9.699   8.640 -2.3175 -0.5641  1.4370
21732SOL     OW69880   2.586   7.812  10.561 -0.3115  0.1753 -0.4989
21732SOL    HW169881   2.679   7.799  10.542 -0.4803 -0.1234 -1.1850
21732SOL    HW269882   2.572   7.906  10.550  0.1668  0.4173  0.8595
21733SOL     OW69883   3.618   4.013   9.372  0.5484 -0.0962 -0.4541
21733SOL    HW169884   3.630   4.015   9.467 -0.8414  0.7208 -0.2592
21733SOL    HW269885   3.599   4.103   9.348  0.7889 -0.3080 -1.5001
21734SOL     OW69886   8.920   8.480  11.169 -0.1605 -0.6848 -0.8709
21734SOL    HW169887   8.844   8.425  11.151  0.3965 -2.0127  0.5716
21734SOL    HW269888   8.991   8.440  11.119 -0.0195 -0.5617 -0.7721
21735SOL     OW69889   1.698   5.984   7.940 -0.5341  0.4770 -0.3368
21735SOL    HW169890   1.696   5.963   8.034 -1.2752  0.5877 -0.3184
21735SOL    HW269891   1.730   5.904   7.899  2.0438  1.1739  0.1768
21736SOL     OW69892   0.692   1.965  11.112  0.1768 -0.2859 -0.5487
21736SOL    HW169893   0.740   1.903  11.057  1.3998 -0.2121  0.4015
21736SOL    HW269894   0.620   1.995  11.057  0.8502 -0.8913 -1.7939
21737SOL     OW69895   2.428   3.655   0.425 -0.2845 -0.3146 -0.5191
21737SOL    HW169896   2.350   3.709   0.437 -0.5370 -0.8483  0.3217
21737SOL    HW269897   2.437   3.647   0.330 -0.7463  0.4726 -0.6409
21738SOL     OW69898   4.383   0.587   3.967  0.1091 -0.1177 -0.0384
21738SOL    HW169899   4.307   0.572   3.911  0.3655  0.9385 -0.6994
21738SOL    HW269900   4.430   0.504   3.966 -1.3886 -1.0475  0.9900
21739SOL     OW69901   9.954   8.807   4.885 -0.2826 -0.0480  0.1722
21739SOL    HW169902   9.863   8.785   4.906 -0.0820 -0.4354  0.6414
21739SOL    HW269903   9.952   8.828   4.791 -1.0411  0.9648  0.3949
21740SOL     OW69904   5.397   2.248   3.953  0.7683 -0.6059 -0.4570
21740SOL    HW169905   5.359   2.329   3.920 -0.3532 -1.5994 -1.7247
21740SOL    HW269906   5.322   2.197   3.983  1.5608 -0.6925  1.5473
21741SOL     OW69907   8.439   0.161   8.623  0.5303  0.3815  0.1373
21741SOL    HW169908   8.386   0.082   8.638  1.9009 -0.5313  0.3760
21741SOL    HW269909   8.500   0.163   8.697  0.3337  1.8385  0.2825
21742SOL     OW69910   4.000   8.426   1.038  0.4295  0.1869 -0.2007
21742SOL    HW169911   3.955   8.342   1.028  2.1511 -1.0577  1.5267
21742SOL    HW269912   3.990   8.447   1.131 -0.6104  2.3446 -0.7401
21743SOL     OW69913   3.856   7.275   2.287 -0.0710  0.0740 -0.4462
21743SOL    HW169914   3.890   7.359   2.320 -0.4244  0.6004 -1.4017
21743SOL    HW269915   3.931   7.216   2.292 -0.0680  0.1697  1.1449
21744SOL     OW69916   3.276   9.547   3.170  0.6478  0.0952 -0.2586
21744SOL    HW169917   3.248   9.588   3.088 -0.4880  1.4120  0.7546
21744SOL    HW269918   3.294   9.620   3.229  3.3904 -0.7618  0.1158
21745SOL     OW69919   5.954  10.669  11.072  0.0861  0.1439 -0.0542
21745SOL    HW169920   5.868  10.632  11.092 -0.5021  1.1588 -0.6146
21745SOL    HW269921   6.005  10.594  11.042 -0.6984 -0.4236 -0.0180
21746SOL     OW69922   5.041   2.577   3.171 -0.5017  0.3509 -0.0448
21746SOL    HW169923   5.046   2.637   3.097 -0.2983  0.4510  0.0518
21746SOL    HW269924   5.128   2.538   3.177 -1.1297 -1.3915 -1.3134
21747SOL     OW69925   8.632  11.408   6.679 -0.9517 -0.1302 -0.5382
21747SOL    HW169926   8.655  11.345   6.611  1.6178  0.0985  0.0230
21747SOL    HW269927   8.622  11.356   6.758 -0.4253 -0.0216 -0.3969
21748SOL     OW69928   0.104  11.392   0.948 -0.5212 -0.1358  0.0994
21748SOL    HW169929   0.143  11.479   0.944 -0.3052 -0.1929  0.8098
21748SOL    HW269930   0.038  11.392   0.879  0.4308  0.1077 -0.8199
21749SOL     OW69931   3.671   5.369   5.984  0.4150  0.0098 -0.1045
21749SOL    HW169932   3.746   5.391   5.930 -0.0883  1.0492 -0.4072
21749SOL    HW269933   3.633   5.292   5.943  0.1638  0.6602 -1.1115
21750SOL     OW69934   2.041  11.031   1.069 -0.3734 -0.0299  0.4100
21750SOL    HW169935   2.012  10.941   1.056  0.1098 -0.4076  1.7597
21750SOL    HW269936   1.987  11.065   1.141 -0.9896  0.9840 -0.5010
21751SOL     OW69937   4.497   3.360   7.857 -0.5641  0.1063 -0.0399
21751SOL    HW169938   4.494   3.339   7.950  0.7581 -2.6566 -0.5208
21751SOL    HW269939   4.419   3.317   7.821  0.4908 -1.4647 -0.5734
21752SOL     OW69940   4.531   6.407   2.790  0.3990  0.2132 -0.0014
21752SOL    HW169941   4.572   6.453   2.863  1.5247  0.8088 -0.9756
21752SOL    HW269942   4.530   6.315   2.817 -0.6313  0.5922  1.3931
21753SOL     OW69943   1.129   6.621   9.997 -0.1341  0.0267 -0.0391
21753SOL    HW169944   1.216   6.614   9.957 -0.3584  1.6057 -0.9186
21753SOL    HW269945   1.114   6.537  10.039  1.3563 -0.6693 -0.8345
21754SOL     OW69946   7.879   4.732  10.299  0.4660 -0.2716 -0.0012
21754SOL    HW169947   7.810   4.666  10.305  0.6505 -0.5273 -0.6044
21754SOL    HW269948   7.931   4.704  10.224  1.5481 -0.3944  0.7712
21755SOL     OW69949   8.503   0.374   7.585 -0.4891 -0.2816  0.0733
21755SOL    HW169950   8.552   0.401   7.662  0.7913 -2.6611  0.1995
21755SOL    HW269951   8.414   0.360   7.616  0.2197 -2.1839  1.4592
21756SOL     OW69952   0.577   1.701   8.750 -0.2765 -0.1317 -0.2068
21756SOL    HW169953   0.510   1.756   8.708  1.2954  1.4224 -0.7857
21756SOL    HW269954   0.658   1.725   8.706  0.8495 -1.1789  1.2273
21757SOL     OW69955   1.767   5.075   2.301 -0.3944  0.3167 -0.3583
21757SOL    HW169956   1.678   5.090   2.269 -0.5312  0.0414 -0.1141
21757SOL    HW269957   1.756   5.012   2.373  0.0095  0.1702 -0.4224
21758SOL     OW69958   6.865   4.254   8.546  0.3010 -0.0114  0.8747
21758SOL    HW169959   6.951   4.295   8.558  1.0636 -0.7335 -1.4708
21758SOL    HW269960   6.868   4.219   8.457 -1.7688 -1.6948  1.3839
21759SOL     OW69961  10.971   5.918   9.442  0.0743 -0.1026 -0.0261
21759SOL    HW169962  11.025   5.912   9.363 -0.5935 -0.7110 -0.4459
21759SOL    HW269963  10.903   5.853   9.429 -0.8206  0.7222  0.4456
21760SOL     OW69964   0.702   9.584   4.376  0.0895  0.2657 -0.2704
21760SOL    HW169965   0.699   9.578   4.280 -0.4571  0.2987 -0.2630
21760SOL    HW269966   0.659   9.504   4.406 -1.4808  1.1318 -0.0833
21761SOL     OW69967   1.737   1.234   1.019  0.2898 -0.0552 -0.4973
21761SOL    HW169968   1.794   1.164   0.988  1.6813  0.6937  0.2679
21761SOL    HW269969   1.688   1.195   1.091 -0.7389 -0.9121 -1.6163
21762SOL     OW69970  10.738   6.641   2.673  0.3240 -0.0609  0.4553
21762SOL    HW169971  10.802   6.576   2.645  0.5619  0.6135 -0.5762
21762SOL    HW269972  10.786   6.723   2.681 -0.1106  0.1481  1.1185
21763SOL     OW69973   7.595   0.425   6.971 -0.3494  0.2810 -0.1007
21763SOL    HW169974   7.515   0.381   7.003 -0.9049  0.6506 -0.9473
21763SOL    HW269975   7.563   0.503   6.925  0.6489  2.0908  2.0869
21764SOL     OW69976   7.605  10.878   1.101  0.0104  0.0391  0.1228
21764SOL    HW169977   7.673  10.944   1.111 -1.0077  1.2172 -0.4897
21764SOL    HW269978   7.523  10.925   1.117 -0.7202 -1.1871  0.1518
21765SOL     OW69979   6.650   2.544   2.267  0.4128 -0.1328 -0.2549
21765SOL    HW169980   6.638   2.521   2.175 -1.4601  0.2428 -0.1514
21765SOL    HW269981   6.623   2.636   2.273  1.0723  0.0181  0.5603
21766SOL     OW69982   6.332  10.385  11.150  0.1669 -0.1194  0.1911
21766SOL    HW169983   6.269  10.407  11.081 -0.3980 -0.3665  0.6199
21766SOL    HW269984   6.278  10.364  11.226  0.7849  0.2998  0.7571
21767SOL     OW69985   1.070   2.848   0.782  0.3459 -0.1590 -0.1368
21767SOL    HW169986   1.125   2.926   0.780 -0.1968  0.2420  0.3584
21767SOL    HW269987   1.127   2.780   0.818  0.4975  0.2738  0.4688
21768SOL     OW69988   4.076   1.510   1.679 -0.6665 -0.2814 -0.0219
21768SOL    HW169989   4.004   1.569   1.700  0.0611  0.3730  0.6952
21768SOL    HW269990   4.113   1.545   1.598  0.7643  1.2754  1.2098
21769SOL     OW69991   7.984  10.492   0.524 -0.2166  0.3511 -0.3078
21769SOL    HW169992   7.966  10.406   0.486  0.9121  0.7173 -1.7425
21769SOL    HW269993   8.073  10.485   0.560 -1.5401 -0.2690  3.2438
21770SOL     OW69994   3.279   0.059   4.702  0.2549  0.4784 -0.5593
21770SOL    HW169995   3.352   0.076   4.761 -0.2030  1.1373 -0.1701
21770SOL    HW269996   3.254   0.146   4.669 -0.6566  0.3166 -0.3165
21771SOL     OW69997   7.375   0.951  11.389  0.2745  0.6951  0.9332
21771SOL    HW169998   7.457   0.910  11.363  0.3216  0.9526  0.6635
21771SOL    HW269999   7.367   1.027  11.331 -1.6726 -0.9873 -1.1701
21772SOL     OW70000   2.396   6.519   6.344  0.6202  0.1619  0.4699
21772SOL    HW170001   2.393   6.505   6.250 -1.5822 -0.0846  0.5200
21772SOL    HW270002   2.337   6.593   6.359  0.9248  0.1874  1.6599
21773SOL     OW70003   4.778   5.398   3.955  0.0792  0.0310  0.4761
21773SOL    HW170004   4.838   5.334   3.994  1.7461  1.0144 -0.3730
21773SOL    HW270005   4.743   5.353   3.878 -1.4613 -1.0828  1.7812
21774SOL     OW70006   4.495   2.870   2.593  0.5746  0.1786  0.4545
21774SOL    HW170007   4.461   2.930   2.528  0.7457  1.6672  1.6768
21774SOL    HW270008   4.585   2.851   2.565 -0.0606 -0.9936 -0.9027
21775SOL     OW70009   9.805   0.307   3.107 -0.5033  0.0104 -0.2304
21775SOL    HW170010   9.778   0.393   3.077  0.2207  0.8960  1.5282
21775SOL    HW270011   9.841   0.264   3.029 -2.0428  0.7811 -1.4057
21776SOL     OW70012   1.292   6.338   0.028  0.4957  0.8463 -0.5457
21776SOL    HW170013   1.250   6.339   0.114 -0.3279 -0.6254 -0.8904
21776SOL    HW270014   1.226   6.375  -0.031  0.2127 -0.1426 -0.8659
21777SOL     OW70015   1.366   6.056   2.944 -0.4866  0.4279  0.5619
21777SOL    HW170016   1.414   5.975   2.927 -1.2516 -0.3468  1.8997
21777SOL    HW270017   1.337   6.086   2.858  0.3957 -0.3367 -0.0170
21778SOL     OW70018   3.007  10.193  10.353  0.5100  0.3620  0.1302
21778SOL    HW170019   3.012  10.211  10.447  1.0710  1.5507 -0.1054
21778SOL    HW270020   3.012  10.280  10.312 -1.4569  0.0371 -0.9479
21779SOL     OW70021  11.784   6.180  10.304 -0.0471 -0.7624  0.0421
21779SOL    HW170022  11.824   6.260  10.270 -2.0918  0.4482  0.2922
21779SOL    HW270023  11.827   6.164  10.388  1.1697 -0.6094 -0.5298
21780SOL     OW70024   7.946   4.229   1.253  0.0916 -0.0695  0.2546
21780SOL    HW170025   8.003   4.232   1.330  0.6680 -0.3205 -0.1508
21780SOL    HW270026   7.933   4.321   1.230  1.0897 -0.0150 -0.1753
21781SOL     OW70027   7.176  10.480   0.211 -0.4899 -0.0623  0.3527
21781SOL    HW170028   7.110  10.417   0.183  1.2304 -0.8929 -2.0862
21781SOL    HW270029   7.237  10.429   0.265 -1.1536  0.4583  1.6559
21782SOL     OW70030   3.643   9.570   9.654 -0.6516 -0.3710 -0.4308
21782SOL    HW170031   3.608   9.560   9.565 -0.9979  1.8977 -0.5923
21782SOL    HW270032   3.736   9.588   9.642 -1.2001  2.8384 -0.5857
21783SOL     OW70033   0.258   8.678  11.606 -0.3549 -0.3879 -0.2211
21783SOL    HW170034   0.225   8.705  11.521 -1.1860  0.6563  0.4130
21783SOL    HW270035   0.226   8.588  11.617  1.0635 -1.1208 -1.6452
21784SOL     OW70036   1.160  10.572   6.849 -0.3909 -0.6689 -0.0048
21784SOL    HW170037   1.085  10.604   6.898 -0.6596 -1.7935  0.3481
21784SOL    HW270038   1.144  10.478   6.839  0.7991 -0.8644 -0.2336
21785SOL     OW70039   8.303   2.535   0.672  0.1762  0.3980  0.2129
21785SOL    HW170040   8.380   2.563   0.722  0.2231  0.2447  0.2282
21785SOL    HW270041   8.316   2.572   0.585  1.6694 -1.9299 -0.6391
21786SOL     OW70042   6.639   1.180   6.142 -0.0986 -0.0853  0.2777
21786SOL    HW170043   6.696   1.133   6.204  0.4086  1.8059  1.3282
21786SOL    HW270044   6.561   1.201   6.194  0.0646  0.9822  0.0971
21787SOL     OW70045   2.461  10.592  11.103  0.5678 -0.7492 -0.3155
21787SOL    HW170046   2.414  10.622  11.181  2.4801  0.8544  0.3177
21787SOL    HW270047   2.446  10.661  11.038  1.0633 -0.7979 -0.4859
21788SOL     OW70048   9.013  10.953   0.509  0.0133  0.2070 -0.0532
21788SOL    HW170049   8.918  10.950   0.521  0.0371 -0.6872 -0.0553
21788SOL    HW270050   9.048  10.905   0.584  0.4550  0.3628 -0.1574
21789SOL     OW70051   7.370   7.262   1.486 -0.4051 -0.8132 -0.0876
21789SOL    HW170052   7.388   7.257   1.580  1.0738 -2.9161 -0.4155
21789SOL    HW270053   7.281   7.227   1.478 -0.4211 -0.9326  0.5022
21790SOL     OW70054   2.851  10.053   3.037  0.3528  0.3501  0.2686
21790SOL    HW170055   2.927  10.082   2.987  0.8558 -0.0776  0.7708
21790SOL    HW270056   2.776  10.068   2.979  1.0042 -0.9272 -0.9501
21791SOL     OW70057   5.266   4.663   6.134 -0.3760 -0.2244 -0.1639
21791SOL    HW170058   5.238   4.727   6.068 -0.3736 -0.9468 -0.8830
21791SOL    HW270059   5.362   4.672   6.136 -0.4643  0.5949  0.5755
21792SOL     OW70060   9.942   6.185  11.633 -0.1292 -0.1388 -0.5597
21792SOL    HW170061   9.967   6.096  11.610  1.2313  0.4505 -1.5105
21792SOL    HW270062  10.024   6.228  11.658 -0.6704  1.0071 -0.6595
21793SOL     OW70063   8.099   4.369   4.007  0.1162  0.7461 -0.2223
21793SOL    HW170064   8.174   4.414   4.044  0.1243  0.9094 -0.4339
21793SOL    HW270065   8.041   4.353   4.081  0.2093  0.9151 -0.1137
21794SOL     OW70066   3.360   7.247   3.393  0.0035 -0.4477  0.4057
21794SOL    HW170067   3.310   7.174   3.431  0.0350 -1.3753 -1.2282
21794SOL    HW270068   3.298   7.320   3.392 -0.9929 -1.2685 -0.5579
21795SOL     OW70069   2.175  10.617   2.101  0.2489  0.2121 -0.3783
21795SOL    HW170070   2.232  10.557   2.052  1.5624  0.7500  0.4336
21795SOL    HW270071   2.198  10.602   2.193 -0.9824  0.4129 -0.0126
21796SOL     OW70072  10.937  11.142  10.171 -0.3252 -0.4588 -0.5293
21796SOL    HW170073  10.856  11.174  10.131 -0.1607  0.4684 -0.1491
21796SOL    HW270074  11.004  11.204  10.143  0.2675 -1.2335 -0.8646
21797SOL     OW70075   8.203   4.231   8.995  0.6172  0.4701 -0.0407
21797SOL    HW170076   8.167   4.172   9.061  0.2550  0.7531  0.0196
21797SOL    HW270077   8.270   4.179   8.951  0.2395 -0.0188 -0.0549
21798SOL     OW70078   6.029   3.462   2.453  0.1438 -0.0467  0.1135
21798SOL    HW170079   6.079   3.423   2.525 -0.6911  1.4570  1.5812
21798SOL    HW270080   6.096   3.491   2.391  0.9382 -0.5165  0.7232
21799SOL     OW70081   6.329  10.462   2.252 -0.2876 -0.9068 -0.4869
21799SOL    HW170082   6.370  10.396   2.308 -0.5368 -1.3242 -0.7937
21799SOL    HW270083   6.242  10.427   2.233 -1.1938  0.4225  0.9697
21800SOL     OW70084   4.217   3.139   2.751 -0.0475  0.5344 -0.3188
21800SOL    HW170085   4.295   3.136   2.806 -0.8212 -2.3121  0.8151
21800SOL    HW270086   4.158   3.198   2.796 -0.1131 -0.6311  1.2175
21801SOL     OW70087   3.434   3.919   4.457  0.0840  0.3380 -0.3100
21801SOL    HW170088   3.432   4.008   4.422  3.0418  1.0714  1.0069
21801SOL    HW270089   3.510   3.878   4.415  2.6487  0.6506  3.4858
21802SOL     OW70090   4.055   9.628   0.467  0.5828  0.0057 -0.4357
21802SOL    HW170091   3.985   9.568   0.493 -0.3505 -0.6300 -3.9028
21802SOL    HW270092   4.133   9.573   0.461  0.9704  0.2969  1.4638
21803SOL     OW70093   3.281   1.110   6.430  0.7597  0.5624 -0.3762
21803SOL    HW170094   3.349   1.130   6.366  0.5119 -1.5572 -1.3758
21803SOL    HW270095   3.318   1.040   6.483  0.6366  1.7324  1.3468
21804SOL     OW70096   9.731  11.992   6.239 -0.2798 -0.1022  0.3811
21804SOL    HW170097   9.784  12.049   6.294 -1.2134  0.5636  0.6195
21804SOL    HW270098   9.780  11.984   6.157 -0.6614  2.0142 -0.1045
21805SOL     OW70099   2.885   3.963   9.790  0.4790 -0.0459  0.4869
21805SOL    HW170100   2.790   3.958   9.779  0.6191 -0.8477 -0.5464
21805SOL    HW270101   2.914   4.026   9.724  0.8791 -1.5501 -0.8343
21806SOL     OW70102   3.703   1.550  10.001 -0.7233 -0.0981  0.6346
21806SOL    HW170103   3.771   1.511  10.055  0.8813  2.6816  0.8279
21806SOL    HW270104   3.676   1.481   9.941  0.9310 -1.8294  1.7880
21807SOL     OW70105   1.295  10.559   4.258  0.0057 -0.5820  0.3539
21807SOL    HW170106   1.370  10.613   4.234 -0.4298  0.0679  0.4368
21807SOL    HW270107   1.330  10.471   4.264  1.2738  0.0053  2.5667
21808SOL     OW70108   4.490  10.850   7.467 -0.2075 -0.0003  0.2927
21808SOL    HW170109   4.539  10.932   7.469  0.7227 -0.5383  0.5114
21808SOL    HW270110   4.554  10.783   7.494 -0.9312 -0.7999  0.0919
21809SOL     OW70111   2.559   8.024   7.414 -0.4657 -1.1815 -0.6041
21809SOL    HW170112   2.544   8.063   7.500 -1.0944 -1.7088 -0.4604
21809SOL    HW270113   2.519   8.085   7.353  0.0156 -0.7860 -0.5301
21810SOL     OW70114   3.271  10.688   1.223  0.1781  0.1492  0.2059
21810SOL    HW170115   3.353  10.651   1.190 -0.0075 -1.2550  1.2264
21810SOL    HW270116   3.210  10.680   1.149  0.1131 -1.7636  0.4151
21811SOL     OW70117   3.712   2.974   4.057  0.4248 -0.2705  0.0201
21811SOL    HW170118   3.742   2.886   4.081  0.0083 -1.8849 -4.4632
21811SOL    HW270119   3.624   2.980   4.094 -0.6183 -2.9805 -1.7034
21812SOL     OW70120   1.620   5.336   4.458  0.1865 -0.0345 -0.1516
21812SOL    HW170121   1.684   5.347   4.388  0.1716  1.1425  0.0087
21812SOL    HW270122   1.612   5.241   4.468  0.2255 -0.2330 -1.7084
21813SOL     OW70123  10.324  10.785   8.991  0.3507  0.1356  0.3013
21813SOL    HW170124  10.335  10.746   9.078 -0.4857  0.5090  0.5828
21813SOL    HW270125  10.413  10.795   8.958  0.6800  0.0446  1.1352
21814SOL     OW70126   4.066   2.840   8.151 -0.1147 -0.3441  0.0269
21814SOL    HW170127   4.002   2.899   8.190  0.7779  0.8680 -0.3087
21814SOL    HW270128   4.017   2.759   8.136 -0.8834 -0.3906  2.2921
21815SOL     OW70129   2.488   5.139   4.420  0.3730 -0.2053 -0.6904
21815SOL    HW170130   2.454   5.228   4.413 -1.6549 -0.9308 -0.5837
21815SOL    HW270131   2.558   5.135   4.354 -0.1143  1.1894 -1.3279
21816SOL     OW70132   3.877   8.698  11.774 -0.0705  0.6693 -0.1423
21816SOL    HW170133   3.858   8.789  11.797 -0.3896  0.2850  1.1878
21816SOL    HW270134   3.943   8.671  11.837  0.1871  0.0450 -0.6741
21817SOL     OW70135  11.508  11.473   5.677  0.5197 -0.2643  0.7093
21817SOL    HW170136  11.528  11.526   5.754 -1.9847  0.0189  1.2502
21817SOL    HW270137  11.444  11.525   5.628  0.8162 -1.1773 -0.7086
21818SOL     OW70138   7.850   0.578   2.910 -0.2587 -0.5520  0.5406
21818SOL    HW170139   7.905   0.520   2.963  0.9375 -1.6224 -1.7517
21818SOL    HW270140   7.841   0.533   2.827 -3.1286  0.4919  0.1944
21819SOL     OW70141   5.218  11.045   0.433  0.2636  0.4410  0.0346
21819SOL    HW170142   5.216  11.018   0.341 -2.1488 -0.8615  0.3754
21819SOL    HW270143   5.284  11.114   0.437  1.2154 -0.2370 -2.4350
21820SOL     OW70144   7.117   2.480   9.230  0.0911 -0.2852  0.2044
21820SOL    HW170145   7.032   2.514   9.203 -0.1102 -1.5909 -0.9603
21820SOL    HW270146   7.101   2.388   9.251  1.3449 -0.8335 -1.0068
21821SOL     OW70147   4.125   1.997   7.378 -0.2377  0.1332  0.2517
21821SOL    HW170148   4.070   2.006   7.301  1.9018  2.1864 -1.1933
21821SOL    HW270149   4.087   2.057   7.442 -0.4326  0.5597 -0.2582
21822SOL     OW70150   8.215   1.758   5.699  0.1191  0.0661  0.0807
21822SOL    HW170151   8.292   1.783   5.648 -0.8900  1.6803 -0.7261
21822SOL    HW270152   8.246   1.753   5.789  1.3194 -0.0347 -0.3239
21823SOL     OW70153   0.919   1.374   2.239  0.5049  0.0394  0.2163
21823SOL    HW170154   0.890   1.300   2.185  0.2815 -0.3003  0.7879
21823SOL    HW270155   0.846   1.435   2.237  0.2168 -0.2813  0.6834
21824SOL     OW70156   5.041   6.699   1.646 -0.4391 -0.1279  0.1036
21824SOL    HW170157   4.993   6.762   1.592 -0.0867 -0.0582 -0.1297
21824SOL    HW270158   5.044   6.619   1.593  0.3805  0.1053 -0.2162
21825SOL     OW70159   0.142   4.589  10.672 -0.2869  0.4712 -0.5683
21825SOL    HW170160   0.205   4.585  10.600  0.6203 -0.7197  0.2703
21825SOL    HW270161   0.181   4.649  10.736 -0.2363  0.1075 -0.2592
21826SOL     OW70162   7.938   5.593   9.686 -0.2477  0.0086  0.1680
21826SOL    HW170163   7.851   5.621   9.657  0.5207 -1.0086 -3.7554
21826SOL    HW270164   7.986   5.674   9.698 -0.7038  0.5910 -1.5611
21827SOL     OW70165   2.097   2.795   7.907 -0.0122  0.8233 -0.6184
21827SOL    HW170166   2.003   2.785   7.891  0.3985 -1.5082 -2.1204
21827SOL    HW270167   2.114   2.747   7.988  0.0112  0.2729 -0.9394
21828SOL     OW70168   6.665   8.267   1.426  0.4077 -0.5952 -0.0064
21828SOL    HW170169   6.751   8.242   1.393  0.4569  0.0001 -0.3250
21828SOL    HW270170   6.673   8.258   1.521  1.1021  0.3023  0.0381
21829SOL     OW70171  11.812   3.705   2.543 -0.3653 -0.1320  0.4048
21829SOL    HW170172  11.768   3.641   2.598  0.3067 -0.0009  1.1154
21829SOL    HW270173  11.858   3.762   2.605 -0.2996  0.5454 -0.2540
21830SOL     OW70174   1.614  11.157   6.526 -0.8575 -0.6820 -0.3456
21830SOL    HW170175   1.644  11.122   6.442  0.3583 -0.1233 -0.1646
21830SOL    HW270176   1.683  11.132   6.588 -1.1596 -0.0519  0.2547
21831SOL     OW70177   0.302   1.524   3.792 -0.4301 -0.0975  0.2490
21831SOL    HW170178   0.232   1.588   3.782 -0.4456 -0.1172  0.2317
21831SOL    HW270179   0.383   1.574   3.779 -0.4792 -0.3981 -1.5292
21832SOL     OW70180   0.275  10.540   9.487  0.5840  0.0740 -0.6769
21832SOL    HW170181   0.206  10.513   9.427 -0.2433  1.2454 -0.2757
21832SOL    HW270182   0.247  10.508   9.573  0.6952  0.2855 -0.5601
21833SOL     OW70183   5.109   9.607   0.547 -0.2874 -0.2099 -0.0993
21833SOL    HW170184   5.149   9.640   0.466  0.3396 -0.5302  0.0713
21833SOL    HW270185   5.059   9.530   0.519  2.9821 -2.6926  0.2725
21834SOL     OW70186   7.387  11.678   8.407 -0.0884  0.5310 -0.1436
21834SOL    HW170187   7.427  11.719   8.330 -1.0688  0.7765 -0.5371
21834SOL    HW270188   7.461  11.658   8.465  0.5192  1.8486 -0.4244
21835SOL     OW70189   8.425   8.385  11.953  0.4467 -0.2194 -0.1218
21835SOL    HW170190   8.388   8.314  12.006  1.3701 -2.1036 -1.8348
21835SOL    HW270191   8.469   8.340  11.881  0.3800  2.1611 -1.7574
21836SOL     OW70192   4.768   5.257   6.543  0.3018  0.1184 -0.1444
21836SOL    HW170193   4.674   5.239   6.545  0.1898 -0.1748 -3.1387
21836SOL    HW270194   4.809   5.176   6.575 -0.4418 -0.5390 -0.8270
21837SOL     OW70195   4.650   6.851   3.514 -0.4685  0.4529  0.1341
21837SOL    HW170196   4.601   6.775   3.484 -0.0159 -0.3219  1.3114
21837SOL    HW270197   4.613   6.924   3.464 -2.1551 -0.2496  0.3028
21838SOL     OW70198   5.648   4.112   4.103 -0.2475  0.0146  0.1907
21838SOL    HW170199   5.640   4.127   4.197 -0.4593  0.1598  0.1497
21838SOL    HW270200   5.643   4.199   4.064 -1.1379 -0.1271 -0.0198
21839SOL     OW70201   7.226   3.997   1.744 -0.2088 -0.0510 -0.4236
21839SOL    HW170202   7.202   4.084   1.775  0.0505  0.2885 -1.1650
21839SOL    HW270203   7.315   4.007   1.710  0.8067 -1.1444  1.7156
21840SOL     OW70204  11.920   9.523   8.327 -0.3685 -0.1804  0.0514
21840SOL    HW170205  11.909   9.473   8.246 -0.5480 -0.9750  0.5561
21840SOL    HW270206  11.831   9.529   8.363 -0.1221 -0.8467  0.7796
21841SOL     OW70207   1.409   7.144   4.634 -0.4171  0.3110  0.3134
21841SOL    HW170208   1.340   7.172   4.695 -1.4852 -1.2575 -0.1087
21841SOL    HW270209   1.485   7.126   4.689 -1.8970 -2.8536  1.5130
21842SOL     OW70210  11.334   7.507   8.932  0.2551 -0.7200  0.7729
21842SOL    HW170211  11.358   7.422   8.895  0.9060 -0.0398 -0.4452
21842SOL    HW270212  11.241   7.517   8.912  0.1405 -1.2136  1.0631
21843SOL     OW70213   1.554   1.001   9.340  0.4976 -0.0631 -0.1111
21843SOL    HW170214   1.520   1.042   9.261  0.1858  2.2255  1.1343
21843SOL    HW270215   1.483   0.943   9.369  0.2302 -0.1701 -0.9519
21844SOL     OW70216   3.659   4.924   8.129 -0.1849 -0.1319 -0.2473
21844SOL    HW170217   3.729   4.979   8.164 -1.9749  1.0621  1.7310
21844SOL    HW270218   3.603   4.984   8.081 -1.4376 -0.4344  0.7708
21845SOL     OW70219   4.554   0.285   4.301 -0.2211  0.0422 -0.6566
21845SOL    HW170220   4.632   0.254   4.348  0.9062  3.0090 -0.3885
21845SOL    HW270221   4.537   0.372   4.337 -2.7101  0.1448 -1.8803
21846SOL     OW70222   6.859   3.249   2.444  0.5026  0.4636  0.5449
21846SOL    HW170223   6.916   3.256   2.367  0.6582  0.4281  0.6571
21846SOL    HW270224   6.913   3.277   2.517  0.5864 -0.2176  0.7466
21847SOL     OW70225   9.052   3.705   5.592  0.2434 -0.4159 -0.3937
21847SOL    HW170226   9.004   3.708   5.509  1.8696  0.6645 -1.3419
21847SOL    HW270227   9.143   3.687   5.567  0.5327 -1.4981  1.2810
21848SOL     OW70228   8.558   3.737   9.008 -0.1286  0.5258 -0.3103
21848SOL    HW170229   8.582   3.714   8.918 -0.2956 -0.0305 -0.2125
21848SOL    HW270230   8.596   3.825   9.021 -2.5409  1.9158 -1.9125
21849SOL     OW70231   9.961   2.784   7.406 -0.3039 -0.8255  0.3038
21849SOL    HW170232   9.889   2.772   7.468 -0.8974 -0.3358 -0.2748
21849SOL    HW270233   9.947   2.717   7.339  0.5239 -1.5680  0.8639
21850SOL     OW70234   1.745   7.767   0.062  0.6925 -0.3215 -0.2964
21850SOL    HW170235   1.778   7.818  -0.012 -1.1968 -1.9688 -2.4724
21850SOL    HW270236   1.803   7.690   0.066  0.2774 -0.6677 -0.7074
21851SOL     OW70237   7.837   3.223   5.351 -0.1286  0.2533  0.3432
21851SOL    HW170238   7.873   3.143   5.315  2.9585  1.6762 -0.0736
21851SOL    HW270239   7.766   3.247   5.291  0.5388 -0.8635 -0.9490
21852SOL     OW70240  11.539   0.179   9.787  0.5692 -0.4278  0.2764
21852SOL    HW170241  11.511   0.106   9.732 -2.2387  1.1387 -0.6168
21852SOL    HW270242  11.507   0.158   9.874 -1.1456  0.0729 -0.1797
21853SOL     OW70243   2.928  11.593  11.205  0.2194 -0.4037  0.1314
21853SOL    HW170244   2.944  11.658  11.273  0.8610  1.3467 -1.5838
21853SOL    HW270245   2.897  11.643  11.130 -1.4060 -2.3600 -0.6174
21854SOL     OW70246   2.560   7.108   6.950  0.3500  0.3408 -0.2832
21854SOL    HW170247   2.654   7.109   6.933  0.0912  1.2439 -1.9739
21854SOL    HW270248   2.545   7.179   7.013  0.7427  0.5817 -0.4585
21855SOL     OW70249   4.965   9.100   2.106  0.1177 -0.2888  0.2982
21855SOL    HW170250   5.013   9.148   2.038  1.9426  0.5042  2.0326
21855SOL    HW270251   4.878   9.088   2.069  0.3670  2.0463 -1.3067
21856SOL     OW70252   9.826   2.824   4.773  0.0601  0.0375  0.4128
21856SOL    HW170253   9.860   2.914   4.776 -0.1144  0.0950  0.6439
21856SOL    HW270254   9.732   2.834   4.789 -0.0996 -0.1069 -0.3597
21857SOL     OW70255   1.435   0.367   4.548 -0.1866  0.0700  0.4770
21857SOL    HW170256   1.419   0.445   4.494  0.6490  1.5926  2.2805
21857SOL    HW270257   1.524   0.339   4.524  0.2959  0.9157  1.1943
21858SOL     OW70258  10.158   0.724   0.879 -0.1600  0.7160  0.1675
21858SOL    HW170259  10.252   0.708   0.877 -0.2874  0.0105 -0.5576
21858SOL    HW270260  10.124   0.656   0.938 -0.1820  1.1977  0.7201
21859SOL     OW70261   0.205  10.750   6.332  0.3543 -0.3880 -0.4472
21859SOL    HW170262   0.149  10.807   6.385 -1.0897 -0.9032 -1.3621
21859SOL    HW270263   0.283  10.737   6.385  0.0446  1.1634  0.4534
21860SOL     OW70264  11.613   9.896  11.410  0.3568 -0.1252  0.3300
21860SOL    HW170265  11.691   9.849  11.382  0.4131 -0.2419  0.6717
21860SOL    HW270266  11.567   9.918  11.329 -0.9297 -2.9112  0.1874
21861SOL     OW70267   4.676   2.735   9.516  0.5595 -0.0331 -0.4077
21861SOL    HW170268   4.750   2.729   9.577  1.0399  1.9512 -0.7101
21861SOL    HW270269   4.677   2.827   9.487  0.2076 -0.8411 -3.2421
21862SOL     OW70270   1.917   2.581  10.906  0.5296  0.4457  0.0103
21862SOL    HW170271   1.885   2.638  10.976 -0.0399  1.3343 -0.9473
21862SOL    HW270272   1.955   2.642  10.842  1.5976 -0.3959 -0.1717
21863SOL     OW70273   7.387   1.769   0.474  1.3395  0.4007 -0.0300
21863SOL    HW170274   7.442   1.811   0.540  2.6970  3.4806 -2.8238
21863SOL    HW270275   7.437   1.692   0.448  2.9090  1.4534 -0.3314
21864SOL     OW70276   3.234  10.741   8.329 -0.4883  0.2308  0.0016
21864SOL    HW170277   3.266  10.809   8.271 -1.8315 -0.6455 -1.8567
21864SOL    HW270278   3.181  10.788   8.394 -0.1773  1.0891 -0.3520
21865SOL     OW70279   1.657   2.710   1.739 -0.8811 -0.2539  1.2601
21865SOL    HW170280   1.622   2.774   1.800 -0.5455 -1.2485  2.5369
21865SOL    HW270281   1.720   2.759   1.686 -0.2168  0.3739  2.5892
21866SOL     OW70282   8.875   7.664   6.115  0.2372  0.0326  0.1702
21866SOL    HW170283   8.872   7.732   6.183  0.9127 -0.7195  0.9633
21866SOL    HW270284   8.954   7.684   6.065 -0.4012  0.7434 -0.5783
21867SOL     OW70285   2.553   1.249   8.101 -0.0662  0.3253 -0.4959
21867SOL    HW170286   2.528   1.273   8.012  0.9140  0.2747 -0.8018
21867SOL    HW270287   2.619   1.314   8.125  0.8673 -0.6180 -0.4308
21868SOL     OW70288  10.214   3.884   5.488  0.4569  0.5097  0.0903
21868SOL    HW170289  10.164   3.842   5.558  0.9074  1.0510  0.7596
21868SOL    HW270290  10.280   3.820   5.464  0.2981  0.3176  0.1636
21869SOL     OW70291  11.688  10.808  11.820  0.3571  0.6997  0.4187
21869SOL    HW170292  11.635  10.817  11.900 -0.6349  1.8914 -0.3418
21869SOL    HW270293  11.655  10.876  11.761  1.6941  0.4444 -0.6789
21870SOL     OW70294   5.107  11.938   8.905 -0.1386 -0.0243 -0.2185
21870SOL    HW170295   5.170  11.895   8.848  0.8877  1.1505 -0.0219
21870SOL    HW270296   5.152  12.017   8.936 -1.2187  0.1539  1.0111
21871SOL     OW70297   7.471   3.783   1.385 -0.6213  0.0567  0.1308
21871SOL    HW170298   7.448   3.825   1.468 -3.6786 -0.4507 -0.3456
21871SOL    HW270299   7.525   3.847   1.339  0.3070  0.7273  2.0642
21872SOL     OW70300   2.154   5.206   5.124 -0.5961 -0.6394 -0.1922
21872SOL    HW170301   2.234   5.250   5.155 -0.1210 -1.0706 -0.7774
21872SOL    HW270302   2.130   5.148   5.196 -0.4267 -0.4496  0.0211
21873SOL     OW70303   3.297  11.836   2.653  0.2330 -0.5078 -0.5227
21873SOL    HW170304   3.325  11.841   2.562  2.0583 -1.5532 -0.0687
21873SOL    HW270305   3.292  11.928   2.681  0.7803 -0.2106 -1.3556
21874SOL     OW70306   5.443   6.703   5.747 -0.7302 -0.2479  0.4931
21874SOL    HW170307   5.431   6.613   5.777 -0.0465 -0.7398 -0.6183
21874SOL    HW270308   5.355   6.733   5.724 -1.2093 -0.0144  2.4265
21875SOL     OW70309   0.580   2.409   4.314  0.0689 -0.2225 -0.4250
21875SOL    HW170310   0.582   2.365   4.399  0.6596 -0.8202 -0.7377
21875SOL    HW270311   0.664   2.387   4.274 -0.6558 -0.8928 -1.6377
21876SOL     OW70312   4.159  10.277   1.848 -0.3421 -0.4552 -0.5549
21876SOL    HW170313   4.248  10.270   1.813 -0.0453 -1.7224  0.4028
21876SOL    HW270314   4.122  10.189   1.838 -1.3877 -0.0168 -0.6645
21877SOL     OW70315   2.458   0.552  11.483  0.4956 -0.0750 -0.0924
21877SOL    HW170316   2.475   0.630  11.534 -1.0142  0.0792  0.2224
21877SOL    HW270317   2.532   0.494  11.502  1.4183  1.0959 -0.0132
21878SOL     OW70318   6.938   3.391   7.489 -0.1577  0.4294  0.3581
21878SOL    HW170319   6.860   3.399   7.544  1.1772 -0.5782  2.4885
21878SOL    HW270320   6.935   3.302   7.455  0.2220  0.2900  0.6874
21879SOL     OW70321   6.610  11.804   2.348  0.0550  0.5881 -0.2641
21879SOL    HW170322   6.704  11.788   2.351  0.1148  1.0289  0.4583
21879SOL    HW270323   6.599  11.893   2.382 -0.6280  0.4990 -0.2350
21880SOL     OW70324   2.356   1.956   9.713  0.3595  0.9958 -0.0081
21880SOL    HW170325   2.425   1.976   9.649  0.0595 -0.1681 -0.7213
21880SOL    HW270326   2.295   2.029   9.706  0.0745  0.6620 -1.4372
21881SOL     OW70327   2.778  10.315   7.833 -1.1155 -0.0398 -1.0229
21881SOL    HW170328   2.745  10.288   7.748  0.8691  0.4369 -2.0082
21881SOL    HW270329   2.865  10.351   7.815  0.8430 -2.9647  1.5818
21882SOL     OW70330   0.519   8.018   4.534 -0.5833 -0.5519  0.0397
21882SOL    HW170331   0.552   7.935   4.569 -0.0252 -0.0722  0.6999
21882SOL    HW270332   0.441   8.037   4.587  0.2250  0.1427  1.0357
21883SOL     OW70333   9.657   1.757  11.749  0.0118  0.3145  0.4387
21883SOL    HW170334   9.697   1.775  11.664  0.1914 -0.3700  0.3734
21883SOL    HW270335   9.645   1.844  11.788  2.1832  0.5169  0.7443
21884SOL     OW70336   1.087   8.195   7.193  0.2114  0.3487  0.3479
21884SOL    HW170337   1.079   8.230   7.105 -0.7372 -1.4597 -0.3527
21884SOL    HW270338   1.038   8.112   7.190  0.4824  0.0533  2.4619
21885SOL     OW70339  10.247   2.505   4.607 -0.5395  0.7588 -0.2917
21885SOL    HW170340  10.198   2.460   4.676 -2.3641  3.1372  0.0856
21885SOL    HW270341  10.200   2.483   4.526 -0.0979  0.2593 -0.4211
21886SOL     OW70342   8.613  11.726   7.696 -0.6798 -0.2643  0.0787
21886SOL    HW170343   8.551  11.734   7.769 -0.3896  0.4235  0.2561
21886SOL    HW270344   8.560  11.695   7.623 -0.9426 -1.1218  0.6259
21887SOL     OW70345   9.352   9.005   7.571 -0.0878 -0.4182 -0.0035
21887SOL    HW170346   9.384   8.928   7.523 -0.4352  0.1381 -1.1788
21887SOL    HW270347   9.270   9.028   7.528 -0.6564 -0.1599  1.1784
21888SOL     OW70348  10.567   2.137   1.227 -0.4303 -0.6272 -0.2935
21888SOL    HW170349  10.636   2.074   1.203  0.2631  0.2887 -0.7827
21888SOL    HW270350  10.528   2.163   1.143  0.6947  1.1301 -0.3282
21889SOL     OW70351   2.927   5.785  10.350  0.1640  0.2149  0.1737
21889SOL    HW170352   2.924   5.881  10.353 -0.1401  0.1912  1.5527
21889SOL    HW270353   3.020   5.764  10.343  0.3464  0.6213  1.1489
21890SOL     OW70354   6.443   1.855   6.041  0.5671  1.0340  0.0965
21890SOL    HW170355   6.524   1.826   6.083 -0.1492  0.6793  1.2911
21890SOL    HW270356   6.469   1.931   5.989  1.5812  1.2362  0.8656
21891SOL     OW70357   4.539   9.292   3.589  0.5556  0.3271 -0.0557
21891SOL    HW170358   4.597   9.331   3.653  0.0997  0.0245  0.5479
21891SOL    HW270359   4.577   9.206   3.571  0.0824 -0.0325  0.6389
21892SOL     OW70360   5.367   4.191   7.835 -0.3363  0.3317  0.2543
21892SOL    HW170361   5.370   4.103   7.871  0.8139  0.4499  0.5029
21892SOL    HW270362   5.349   4.179   7.741 -0.0801 -0.1722  0.2707
21893SOL     OW70363  11.819   4.437   4.192  0.3188  0.1091  0.1840
21893SOL    HW170364  11.761   4.488   4.137  1.0836  2.5362  1.4642
21893SOL    HW270365  11.907   4.466   4.168  0.7428 -0.1035  1.4015
21894SOL     OW70366   0.004   1.260   9.756 -0.0589 -0.0195 -0.3216
21894SOL    HW170367   0.058   1.262   9.677  0.7174  0.7564  0.2042
21894SOL    HW270368   0.040   1.330   9.811 -2.0437  1.0161 -0.2370
21895SOL     OW70369   9.533   8.387  10.287  0.1202  0.5135  0.1386
21895SOL    HW170370   9.549   8.467  10.235 -2.0429  0.9319  0.0149
21895SOL    HW270371   9.584   8.400  10.367  0.6176  1.5429 -0.3208
21896SOL     OW70372  10.408   8.212   9.953  0.0934 -0.1910  0.1339
21896SOL    HW170373  10.423   8.178   9.865  1.5302 -3.1202  1.4014
21896SOL    HW270374  10.492   8.206   9.996 -0.9839 -0.6705  2.2919
21897SOL     OW70375   8.083   3.534   9.012  0.3135  0.1714  0.2573
21897SOL    HW170376   8.001   3.583   9.011 -0.3444 -0.8959  0.3153
21897SOL    HW270377   8.060   3.450   9.052  1.6132  0.1476  1.0026
21898SOL     OW70378   1.219   8.937   3.337  0.1331  0.2524 -0.7368
21898SOL    HW170379   1.246   9.028   3.329 -2.4530  1.3901  1.8811
21898SOL    HW270380   1.295   8.892   3.374  1.5486  1.1951 -2.3501
21899SOL     OW70381   3.299  11.049  10.777  0.6611 -0.0274 -0.1765
21899SOL    HW170382   3.357  11.125  10.770  0.7485 -0.0816 -0.0415
21899SOL    HW270383   3.329  11.002  10.855 -0.6171  0.8244  0.8716
21900SOL     OW70384   5.235   7.754   2.252  0.4090  0.0887  0.2135
21900SOL    HW170385   5.244   7.660   2.266  0.1630 -0.0087 -0.2456
21900SOL    HW270386   5.318   7.780   2.211  1.2903  0.4468  2.1055
21901SOL     OW70387  11.832   4.204   0.805 -0.0944 -0.4038 -0.0002
21901SOL    HW170388  11.828   4.287   0.852  1.3193  0.5635 -1.4626
21901SOL    HW270389  11.782   4.219   0.725  2.2707 -0.0096 -1.5051
21902SOL     OW70390   1.089   2.225   2.226  0.5691 -0.0430 -0.2918
21902SOL    HW170391   1.095   2.158   2.294  1.4464 -0.4498 -0.7477
21902SOL    HW270392   1.030   2.188   2.161 -0.9806  0.7168  0.6297
21903SOL     OW70393  10.246   6.196   9.371 -0.0234 -0.6735  0.2099
21903SOL    HW170394  10.302   6.125   9.340 -1.2830 -1.7933  0.4274
21903SOL    HW270395  10.214   6.238   9.291  2.2517  0.9683  0.0626
21904SOL     OW70396   9.026   7.756   3.696 -0.3806  0.3877 -0.6044
21904SOL    HW170397   9.120   7.739   3.705 -0.5814  0.2644  2.1836
21904SOL    HW270398   9.012   7.764   3.602  2.5038  0.8789 -1.0947
21905SOL     OW70399   0.772   0.041   7.866  0.1829  0.3728 -0.0860
21905SOL    HW170400   0.839  -0.027   7.866 -2.1186 -2.0636 -0.8107
21905SOL    HW270401   0.720   0.023   7.944 -1.5215  0.0918 -1.2290
21906SOL     OW70402   0.463   9.798   8.607 -0.1237  0.5315  0.1202
21906SOL    HW170403   0.404   9.764   8.539  2.1519  0.1065 -1.7779
21906SOL    HW270404   0.497   9.880   8.572  1.0432  0.3538  0.7660
21907SOL     OW70405   0.479  10.574   1.803  0.0519  0.4885  0.3543
21907SOL    HW170406   0.501  10.601   1.892  0.6951 -0.9073  0.6401
21907SOL    HW270407   0.455  10.482   1.810 -3.0359  1.1120 -0.4301
21908SOL     OW70408   3.722  11.106   7.456 -0.2188  0.3173  0.0412
21908SOL    HW170409   3.749  11.116   7.548  0.3541  2.0942 -0.2709
21908SOL    HW270410   3.638  11.151   7.451  0.0393  0.7643 -0.4151
21909SOL     OW70411  11.277  10.305   8.581 -0.3729 -0.1722 -0.0016
21909SOL    HW170412  11.187  10.282   8.557 -0.0305 -0.2587 -1.2804
21909SOL    HW270413  11.316  10.223   8.610 -0.6042 -0.2072  0.2093
21910SOL     OW70414   2.196  10.320   0.953  0.3327 -0.0382 -0.2395
21910SOL    HW170415   2.233  10.242   0.912  0.1620  0.5466 -1.5894
21910SOL    HW270416   2.165  10.373   0.879 -0.7313  0.7152  0.7012
21911SOL     OW70417   3.109   9.328   6.747  0.0324  0.0623  0.0886
21911SOL    HW170418   3.084   9.304   6.836 -1.7246  1.8985  0.1705
21911SOL    HW270419   3.140   9.418   6.754 -0.7737  0.4669 -1.2271
21912SOL     OW70420   3.107   6.994   7.219 -0.0631 -0.1128  0.1703
21912SOL    HW170421   3.109   6.996   7.124  0.4454 -0.8528  0.1604
21912SOL    HW270422   3.171   6.927   7.244  0.2756  0.5089  1.0517
21913SOL     OW70423   3.238  11.912   5.833  0.0670 -0.5616  0.4631
21913SOL    HW170424   3.200  11.944   5.915 -0.1600 -0.5437  0.3516
21913SOL    HW270425   3.330  11.895   5.854  0.4102  0.9431  0.3331
21914SOL     OW70426   5.879   4.708   0.836 -0.0319  0.6284 -0.3560
21914SOL    HW170427   5.792   4.738   0.865 -0.6023 -0.3303 -1.0246
21914SOL    HW270428   5.869   4.614   0.824  1.1933  0.4576 -0.1752
21915SOL     OW70429   1.492  11.855   2.553 -0.1391  0.1413  0.2754
21915SOL    HW170430   1.470  11.793   2.622 -2.7638  1.6826  0.9870
21915SOL    HW270431   1.484  11.805   2.472 -1.5695 -0.6489  0.8619
21916SOL     OW70432   4.770   1.282   3.132 -0.0941 -0.1665  0.0418
21916SOL    HW170433   4.840   1.252   3.075  0.0294 -1.5727  0.8771
21916SOL    HW270434   4.695   1.228   3.109 -0.5027  0.3419  0.1409
21917SOL     OW70435   5.296   1.285   1.177 -0.0246 -0.4145 -0.0357
21917SOL    HW170436   5.324   1.194   1.185  1.5851  0.1665  1.3383
21917SOL    HW270437   5.202   1.283   1.197 -0.4467 -1.9881 -1.8500
21918SOL     OW70438  11.137   8.740   1.132 -0.2142  0.0379  0.4380
21918SOL    HW170439  11.173   8.687   1.060 -0.2000  0.5136  0.0948
21918SOL    HW270440  11.180   8.705   1.210 -0.1230 -0.3899  0.2053
21919SOL     OW70441   2.605  11.648   2.216 -0.1352  0.3312 -0.2000
21919SOL    HW170442   2.559  11.691   2.288 -1.6754  1.4610 -1.7920
21919SOL    HW270443   2.684  11.611   2.257 -0.3442  1.9418  1.8190
21920SOL     OW70444   1.305   8.349   2.618  0.3994  0.4538  0.0489
21920SOL    HW170445   1.370   8.307   2.674 -0.6770  0.5077  1.3931
21920SOL    HW270446   1.269   8.419   2.672 -1.6198 -0.3304 -0.1908
21921SOL     OW70447   9.060   3.874   2.159 -0.1826 -0.6455 -0.0134
21921SOL    HW170448   9.029   3.891   2.070 -1.1449 -1.9629  0.0409
21921SOL    HW270449   9.108   3.791   2.153  1.1072  0.0451  0.4142
21922SOL     OW70450   0.436   4.745  10.211  0.1002 -0.0494 -0.0434
21922SOL    HW170451   0.402   4.726  10.123  0.5896  2.2935 -0.7948
21922SOL    HW270452   0.380   4.814  10.245 -0.2589 -1.1083  1.6643
21923SOL     OW70453   8.528   3.262   3.026 -0.1820  0.3741 -0.4386
21923SOL    HW170454   8.492   3.289   3.111 -0.0844 -1.0440  0.0767
21923SOL    HW270455   8.588   3.332   3.002 -0.9494  1.2715  0.1812
21924SOL     OW70456   1.188   1.190   5.216 -0.2798 -0.1823  0.8910
21924SOL    HW170457   1.126   1.226   5.153  1.1528 -0.9175 -1.0323
21924SOL    HW270458   1.274   1.211   5.181  0.5844 -1.9926  1.7625
21925SOL     OW70459   3.715   0.637  11.377  0.2990  0.5124 -0.1084
21925SOL    HW170460   3.727   0.721  11.422  0.7218  0.9422 -0.9821
21925SOL    HW270461   3.625   0.611  11.398  0.2976  0.9886  0.4943
21926SOL     OW70462   1.371   4.783   3.745 -0.2299  0.0071 -0.2136
21926SOL    HW170463   1.433   4.710   3.745 -2.9532 -2.4987  0.6674
21926SOL    HW270464   1.328   4.778   3.659 -0.8062  0.2152  0.0585
21927SOL     OW70465   7.785   7.401   8.333 -0.4891 -0.6186 -0.1882
21927SOL    HW170466   7.808   7.483   8.289 -0.7907 -0.1976  0.4223
21927SOL    HW270467   7.869   7.364   8.360 -0.3788 -0.2647 -0.0367
21928SOL     OW70468  10.304   5.282   0.326  0.1629  0.4335  0.4081
21928SOL    HW170469  10.365   5.269   0.253 -1.3959 -0.9996 -0.6854
21928SOL    HW270470  10.257   5.199   0.334 -1.2418  1.2969  1.6039
21929SOL     OW70471   1.413   2.151   6.197  0.2164  0.3375 -0.0049
21929SOL    HW170472   1.420   2.106   6.281  1.0959  1.3863  0.5080
21929SOL    HW270473   1.380   2.238   6.219 -1.2019  0.0802 -0.9513
21930SOL     OW70474   0.611  10.041  11.349 -0.0522 -0.0656 -0.0169
21930SOL    HW170475   0.589  10.015  11.260 -0.8307 -1.2859  0.5000
21930SOL    HW270476   0.673  10.113  11.339 -0.4789  0.1132 -1.5301
21931SOL     OW70477   2.367   2.430  11.188  0.2845  0.0166 -0.0749
21931SOL    HW170478   2.307   2.411  11.115  0.9605 -0.7651 -0.4423
21931SOL    HW270479   2.406   2.515  11.166 -1.9991  1.4589  1.0680
21932SOL     OW70480   2.770  11.766   3.875 -0.3285 -0.0853  0.2221
21932SOL    HW170481   2.816  11.697   3.827 -0.6439  0.9023 -1.5629
21932SOL    HW270482   2.839  11.824   3.906 -0.1777 -0.2947  0.2795
21933SOL     OW70483   9.906   6.341   1.812  0.2409 -0.3273  0.9932
21933SOL    HW170484   9.986   6.372   1.854 -0.0977  0.5967  0.9900
21933SOL    HW270485   9.836   6.371   1.870 -0.0739 -2.1505  1.6348
21934SOL     OW70486   4.579   7.230   0.569  0.1406 -0.3816 -0.2800
21934SOL    HW170487   4.657   7.207   0.620  0.6102 -0.4172 -0.9952
21934SOL    HW270488   4.508   7.234   0.633  0.7634 -0.1932  0.4080
21935SOL     OW70489   6.533   5.020   3.992  0.1957 -0.6245 -0.8029
21935SOL    HW170490   6.489   5.091   3.945 -0.3542 -0.2439  0.2506
21935SOL    HW270491   6.463   4.976   4.041  1.0377  0.5387  1.6137
21936SOL     OW70492   3.945   8.355   0.152  0.2265  0.2897  0.5830
21936SOL    HW170493   3.989   8.321   0.074  1.4158  2.2044  0.3430
21936SOL    HW270494   3.966   8.292   0.221  0.0561 -0.8767 -0.4002
21937SOL     OW70495   0.688  10.162   1.874  0.1060  0.1864  0.1108
21937SOL    HW170496   0.735  10.226   1.821 -0.1589  1.4153  1.2943
21937SOL    HW270497   0.597  10.191   1.872  0.1328  0.4555  1.4542
21938SOL     OW70498   7.669  11.231   7.600  0.3988 -0.2547 -0.2019
21938SOL    HW170499   7.587  11.279   7.611  0.3234 -0.2544 -0.7436
21938SOL    HW270500   7.665  11.198   7.510  0.7139 -0.7749 -0.0278
21939SOL     OW70501   6.766   8.861   3.166 -0.1214 -0.0172 -0.0929
21939SOL    HW170502   6.753   8.884   3.074 -1.5553 -0.6631 -0.0796
21939SOL    HW270503   6.688   8.809   3.189 -0.0699  0.5985  1.6360
21940SOL     OW70504   1.511   6.483  10.954 -0.0470 -0.1377 -0.7064
21940SOL    HW170505   1.427   6.519  10.926 -0.5611 -0.7913 -0.0541
21940SOL    HW270506   1.512   6.394  10.920 -0.1053 -0.4977  0.1986
21941SOL     OW70507   1.265   9.309   9.168 -0.2374 -0.4272  0.6660
21941SOL    HW170508   1.206   9.318   9.243  0.0160  0.2677  0.7945
21941SOL    HW270509   1.343   9.358   9.194 -0.1116 -0.2637 -0.0192
21942SOL     OW70510  11.926   2.917   8.377 -0.1517 -0.5984 -0.2017
21942SOL    HW170511  11.847   2.912   8.323  0.2925 -0.3261 -0.8936
21942SOL    HW270512  11.922   2.840   8.434 -0.4553 -1.0838 -0.8685
21943SOL     OW70513   8.178  10.982   6.171 -0.4735  0.0853 -0.2981
21943SOL    HW170514   8.138  11.062   6.136 -0.7280  0.9584  1.8284
21943SOL    HW270515   8.261  10.974   6.125  0.4524  2.6921  0.7930
21944SOL     OW70516   8.570  11.585   5.906 -0.0151 -0.0953 -0.4121
21944SOL    HW170517   8.605  11.647   5.970 -0.7390  0.8101 -0.8732
21944SOL    HW270518   8.528  11.639   5.840  0.0799 -1.0503 -1.2833
21945SOL     OW70519   0.764   7.635   3.708  0.6568 -0.6721 -0.0822
21945SOL    HW170520   0.855   7.658   3.688 -0.0933  2.6903 -0.1753
21945SOL    HW270521   0.748   7.674   3.794 -1.3859  1.2165 -1.2057
21946SOL     OW70522  11.045   2.532   6.722  0.6331  0.1124 -0.3952
21946SOL    HW170523  11.099   2.546   6.800  2.0530 -0.9632 -1.1446
21946SOL    HW270524  10.962   2.574   6.743  1.5375  1.2929  1.0461
21947SOL     OW70525   0.263   0.293  10.426  0.0134  0.1187 -0.3029
21947SOL    HW170526   0.247   0.315  10.334  1.1916  0.0651 -0.5350
21947SOL    HW270527   0.301   0.372  10.463  2.0591 -0.6957 -0.5538
21948SOL     OW70528   7.483   0.222   9.389  0.5907  0.1485  0.0251
21948SOL    HW170529   7.509   0.308   9.423 -1.1465  1.8158 -2.5277
21948SOL    HW270530   7.388   0.220   9.401  0.7299 -2.0296  1.1824
21949SOL     OW70531   2.717   8.925   2.255 -0.4195 -0.2330 -0.5636
21949SOL    HW170532   2.624   8.940   2.238 -0.3293 -0.0549 -0.9096
21949SOL    HW270533   2.762   8.992   2.204 -0.1835  1.3312  1.5979
21950SOL     OW70534   6.617   0.996   3.557 -0.0932  0.0156  0.2755
21950SOL    HW170535   6.605   1.001   3.652  2.6674  0.9097  0.6464
21950SOL    HW270536   6.707   1.025   3.542 -0.3670 -0.3384 -2.6146
21951SOL     OW70537   0.250  10.131   7.280  0.0854  0.2152  0.2190
21951SOL    HW170538   0.246  10.098   7.369  2.4816  0.6864  0.5791
21951SOL    HW270539   0.288  10.059   7.229 -1.3002 -0.0662 -0.4732
21952SOL     OW70540   6.740   2.591   6.386 -0.2447 -0.2524 -0.4956
21952SOL    HW170541   6.800   2.666   6.390  2.0164 -1.9526 -0.1421
21952SOL    HW270542   6.703   2.585   6.474  1.9227 -1.2689  0.4234
21953SOL     OW70543  10.269  10.769   1.262  0.0689  0.2959 -0.4575
21953SOL    HW170544  10.298  10.752   1.172  2.4037  1.2936  0.0441
21953SOL    HW270545  10.277  10.863   1.273  0.0691  0.1630  0.8661
21954SOL     OW70546   3.602   9.602   5.006 -0.0228 -0.4038  0.3168
21954SOL    HW170547   3.644   9.630   4.925 -1.3814 -0.2286 -0.3452
21954SOL    HW270548   3.656   9.640   5.076 -0.5795  2.0890 -0.5171
21955SOL     OW70549   4.719  11.517   7.972  0.0964  0.4765 -0.4022
21955SOL    HW170550   4.670  11.483   7.897  1.1956 -0.2468 -0.8246
21955SOL    HW270551   4.768  11.591   7.937  0.7581  0.0197 -0.4509
21956SOL     OW70552   9.420   0.483   3.286  0.2249  0.0247 -0.7877
21956SOL    HW170553   9.342   0.459   3.336 -1.2158  1.5094 -2.2296
21956SOL    HW270554   9.483   0.414   3.308 -2.4507 -3.0512 -1.9044
21957SOL     OW70555   7.887   9.590   1.996  0.3364 -0.5931 -0.2730
21957SOL    HW170556   7.864   9.661   2.054 -0.3552 -0.7055 -0.4080
21957SOL    HW270557   7.805   9.565   1.953  0.4789 -1.7706  0.1069
21958SOL     OW70558   6.954   1.169   2.459  0.4826  0.4021 -0.3710
21958SOL    HW170559   6.980   1.111   2.531 -1.6453  0.0130  0.1475
21958SOL    HW270560   6.897   1.115   2.404 -0.8671  1.7207 -0.3408
21959SOL     OW70561   8.900   6.218   7.507 -0.0688  0.6705  0.6308
21959SOL    HW170562   8.911   6.312   7.495 -1.1330  0.6685 -0.5603
21959SOL    HW270563   8.810   6.207   7.537  0.1496  0.0460  1.0882
21960SOL     OW70564  10.313   9.286   9.518 -0.0385 -0.2190  0.8300
21960SOL    HW170565  10.315   9.238   9.601  0.2144 -1.0275  0.3635
21960SOL    HW270566  10.284   9.222   9.454  1.2328 -0.0053  0.0156
21961SOL     OW70567   6.245   1.691   5.130  0.3933  0.2602  0.0565
21961SOL    HW170568   6.168   1.704   5.075 -1.0497 -1.8614  1.4114
21961SOL    HW270569   6.310   1.752   5.096 -1.4559  1.2242 -1.9564
21962SOL     OW70570   0.852   6.321   4.490 -1.0722 -0.1978 -0.0042
21962SOL    HW170571   0.811   6.317   4.577 -0.8850 -0.1641  0.0869
21962SOL    HW270572   0.792   6.374   4.438 -0.6693  0.6832  0.3989
21963SOL     OW70573   5.423   0.974  10.864 -0.2413  0.1579 -0.1126
21963SOL    HW170574   5.501   0.924  10.840  0.5280  0.5101  1.5144
21963SOL    HW270575   5.354   0.941  10.806  0.3913 -2.3321  0.4656
21964SOL     OW70576   9.790   7.813   4.613  0.3380 -0.9496  0.1168
21964SOL    HW170577   9.705   7.856   4.622  0.2709 -0.5099 -2.0381
21964SOL    HW270578   9.834   7.828   4.696 -1.4978 -0.7720  1.1100
21965SOL     OW70579   9.072   4.508   0.324 -0.2639  0.1548 -0.4922
21965SOL    HW170580   9.127   4.559   0.383  0.5569 -1.1986 -0.0692
21965SOL    HW270581   8.984   4.512   0.363 -0.6135  2.6120 -1.3525
21966SOL     OW70582   8.224   1.597   9.204 -0.3377 -0.3550 -0.1251
21966SOL    HW170583   8.131   1.616   9.199 -0.7733 -1.5623  2.2623
21966SOL    HW270584   8.257   1.652   9.275  1.3835  1.9368 -2.4860
21967SOL     OW70585   7.304  11.824   2.337  0.3032 -0.0729 -0.1038
21967SOL    HW170586   7.373  11.768   2.372 -1.6981 -0.9072  2.9386
21967SOL    HW270587   7.334  11.913   2.354  0.0153 -0.4423  2.7186
21968SOL     OW70588   3.766   1.139   3.604  0.0123  0.3954 -0.1919
21968SOL    HW170589   3.723   1.121   3.687  2.4082 -0.5454  0.9092
21968SOL    HW270590   3.721   1.217   3.571 -1.0508  0.7415  1.9124
21969SOL     OW70591   5.744   5.255   2.085  0.5521 -0.1260  0.1087
21969SOL    HW170592   5.769   5.176   2.037  1.2425  0.2569 -0.1737
21969SOL    HW270593   5.659   5.234   2.123  0.6140 -0.9152 -0.1729
21970SOL     OW70594   6.412   0.660   3.914  0.9179  0.2126  0.1629
21970SOL    HW170595   6.412   0.642   4.008  3.3782 -1.0671  0.0065
21970SOL    HW270596   6.348   0.600   3.878  1.0838 -0.4023  0.8624
21971SOL     OW70597  11.989   7.621   7.092  0.0462 -0.4300  0.0949
21971SOL    HW170598  12.079   7.596   7.073 -0.3141 -0.8872 -1.0735
21971SOL    HW270599  11.936   7.563   7.038 -0.8485  3.0260 -3.2167
21972SOL     OW70600   1.894  11.484  11.909 -0.1999  0.2631  0.1174
21972SOL    HW170601   1.830  11.554  11.894 -0.6809 -0.2725 -0.3184
21972SOL    HW270602   1.851  11.425  11.970 -0.3310 -0.3829 -0.5961
21973SOL     OW70603   0.168  10.430   0.843 -0.1384 -0.4948  0.3889
21973SOL    HW170604   0.145  10.344   0.879 -1.1186 -0.7781 -0.8661
21973SOL    HW270605   0.105  10.490   0.884 -0.8507 -0.7240 -0.3333
21974SOL     OW70606   4.404   4.778   3.370  0.0464 -0.2784  0.0862
21974SOL    HW170607   4.443   4.756   3.286  0.7529  0.7105  0.1488
21974SOL    HW270608   4.414   4.873   3.378 -0.0785 -0.3486  1.2536
21975SOL     OW70609   6.732  11.967   2.679  0.1839 -0.1768 -0.6200
21975SOL    HW170610   6.691  11.995   2.597  1.6368 -0.5076 -1.4892
21975SOL    HW270611   6.788  12.041   2.704  0.8347 -0.6362 -0.6960
21976SOL     OW70612   6.123   5.882   5.158 -0.2792  0.4902  0.1574
21976SOL    HW170613   6.193   5.857   5.219 -0.5823 -0.4939  0.1155
21976SOL    HW270614   6.064   5.807   5.158  0.0362  0.2108 -1.8456
21977SOL     OW70615   0.122   5.075  10.927 -0.5251 -0.4654 -0.0677
21977SOL    HW170616   0.150   5.052  10.838  0.2872  1.6636 -0.4430
21977SOL    HW270617   0.152   5.003  10.981  1.9026 -0.3447 -1.1148
21978SOL     OW70618  11.061   5.843   0.088  0.0641 -0.3831 -0.3989
21978SOL    HW170619  11.025   5.785   0.155 -0.5272  1.0365  0.5377
21978SOL    HW270620  11.001   5.917   0.085  0.8939  0.2739 -1.4626
21979SOL     OW70621  10.886   7.690  10.640 -0.2221 -0.0606  0.2953
21979SOL    HW170622  10.863   7.761  10.700 -0.0037 -0.1057  0.4290
21979SOL    HW270623  10.981   7.681  10.646 -0.0522  0.7126 -0.9215
21980SOL     OW70624  10.944   9.773  10.814  0.1987 -0.2925 -0.5896
21980SOL    HW170625  10.935   9.863  10.783 -0.5526 -0.1281  0.0870
21980SOL    HW270626  10.985   9.781  10.899 -1.3198 -0.4573  0.1939
21981SOL     OW70627  11.040   4.620   8.965  0.3556  0.3364  0.1305
21981SOL    HW170628  11.014   4.528   8.967  1.7998 -0.1280  2.8146
21981SOL    HW270629  11.113   4.623   8.904  1.8180 -0.8530  1.7182
21982SOL     OW70630   6.047   0.968   0.199 -0.0522  0.5442  0.0328
21982SOL    HW170631   6.001   0.927   0.272  0.6987 -0.2647  0.0554
21982SOL    HW270632   6.068   0.896   0.139 -0.1998  1.1247 -0.7413
21983SOL     OW70633   7.317  11.513  11.182 -0.1956 -0.4919 -0.2617
21983SOL    HW170634   7.316  11.433  11.129  0.8791 -0.9238  0.3416
21983SOL    HW270635   7.264  11.492  11.259 -2.5007  0.4275 -1.5147
21984SOL     OW70636   3.390   9.775   4.982  0.0665 -0.5161  0.2777
21984SOL    HW170637   3.451   9.705   5.003  0.7063 -0.3181 -0.8593
21984SOL    HW270638   3.348   9.797   5.066  1.5034 -0.6936  1.0642
21985SOL     OW70639   4.203   1.495  11.462 -0.9530  0.1373  0.1698
21985SOL    HW170640   4.115   1.462  11.442  0.1847 -2.6622 -0.7132
21985SOL    HW270641   4.221   1.466  11.551 -0.7219  0.1904  0.1431
21986SOL     OW70642   7.906   2.046   9.518  0.1837 -0.7522  0.6587
21986SOL    HW170643   7.878   2.027   9.429  0.7631 -0.4708  0.4056
21986SOL    HW270644   7.935   1.962   9.553  1.0300 -0.6800  0.1761
21987SOL     OW70645   2.564   1.528  11.968 -0.0143 -0.2846  0.1006
21987SOL    HW170646   2.659   1.520  11.973  0.1643 -0.1351 -2.1965
21987SOL    HW270647   2.542   1.508  11.877 -2.2562 -0.8365  0.6870
21988SOL     OW70648   9.878   4.208   2.523  0.2930  0.3530  0.0061
21988SOL    HW170649   9.856   4.296   2.492 -0.4749  0.3161  0.4159
21988SOL    HW270650   9.916   4.223   2.610  0.4760  0.3065 -0.0667
21989SOL     OW70651   4.517   5.972   1.094 -0.0077 -0.5929 -0.4831
21989SOL    HW170652   4.589   5.923   1.134 -0.4516 -0.3031  0.7277
21989SOL    HW270653   4.558   6.025   1.026  1.0331  0.0603  0.6259
21990SOL     OW70654   6.411  11.904   4.649  0.7078 -0.0453  0.4366
21990SOL    HW170655   6.471  11.831   4.635 -0.3663 -0.9541  0.4131
21990SOL    HW270656   6.425  11.962   4.574 -1.9542 -2.7304 -2.4813
21991SOL     OW70657   9.556   5.817   8.414  0.0845  0.0849  0.6136
21991SOL    HW170658   9.591   5.729   8.422 -0.3672 -0.2200 -0.5619
21991SOL    HW270659   9.486   5.809   8.348  0.4493  1.4277  0.0298
21992SOL     OW70660   2.618   1.928  11.482  0.3299 -0.3854  0.0790
21992SOL    HW170661   2.600   1.898  11.570  0.6861 -1.8967 -0.3466
21992SOL    HW270662   2.532   1.956  11.448  0.1216 -0.2277  0.7258
21993SOL     OW70663  10.148   8.807   7.645  0.1061 -0.2060  0.2436
21993SOL    HW170664  10.133   8.901   7.644 -0.3483 -0.2772 -0.1755
21993SOL    HW270665  10.099   8.774   7.569  0.8694 -0.6842 -0.0608
21994SOL     OW70666   4.200   9.997  11.735  0.7916  0.2334  1.2088
21994SOL    HW170667   4.191   9.912  11.777  1.3895 -0.4990 -0.0498
21994SOL    HW270668   4.111  10.029  11.724  0.4259 -1.0364  0.1890
21995SOL     OW70669   6.403   9.003   0.188 -0.9014 -0.6255  0.1342
21995SOL    HW170670   6.442   9.023   0.273  0.6234  1.2788 -0.9241
21995SOL    HW270671   6.366   8.915   0.198 -1.6919 -0.0593  3.0369
21996SOL     OW70672   3.843   1.265   8.466 -0.0415  0.1810  0.3436
21996SOL    HW170673   3.855   1.312   8.383 -1.4866  0.0292  0.0272
21996SOL    HW270674   3.892   1.316   8.530 -0.8327  1.6319 -0.1699
21997SOL     OW70675   9.180   5.488   1.724 -0.0394  0.5621  0.6852
21997SOL    HW170676   9.092   5.497   1.688 -0.7899 -2.0175  1.6748
21997SOL    HW270677   9.215   5.577   1.722 -1.7288  1.3116 -1.9547
21998SOL     OW70678   1.908   8.220   7.078  0.2724 -0.0068 -0.0539
21998SOL    HW170679   1.895   8.269   6.997  0.5226 -0.2215 -0.2244
21998SOL    HW270680   1.917   8.288   7.146 -1.2421  0.1559  0.0065
21999SOL     OW70681   0.763   6.162  10.728 -0.4083 -0.3696 -0.0732
21999SOL    HW170682   0.725   6.186  10.812 -1.7003 -1.0742 -0.4366
21999SOL    HW270683   0.698   6.189  10.663  0.7156  0.4797 -0.9015
22000SOL     OW70684  10.669   0.612   0.117 -0.3367  0.1415  0.4065
22000SOL    HW170685  10.601   0.655   0.064 -0.0948  0.8786  0.6846
22000SOL    HW270686  10.741   0.597   0.057 -0.0472  1.0137  0.5304
22001SOL     OW70687   8.563   3.928   0.842 -0.1661  0.2750 -0.0653
22001SOL    HW170688   8.482   3.906   0.887 -1.0607  0.9151 -1.3088
22001SOL    HW270689   8.538   3.940   0.751  1.3230  0.5352 -0.4774
22002SOL     OW70690   8.576   2.790   9.595 -0.0445 -0.4798 -0.3816
22002SOL    HW170691   8.512   2.805   9.525  0.0495 -1.2992 -0.6568
22002SOL    HW270692   8.566   2.697   9.616 -0.8960 -0.0047  1.5262
22003SOL     OW70693  10.462   5.569   0.274  0.6041 -0.3971 -0.4516
22003SOL    HW170694  10.417   5.622   0.208  2.6286  2.5449  0.3390
22003SOL    HW270695  10.398   5.557   0.344  0.0774  1.1134 -0.6495
22004SOL     OW70696   6.283   0.167   0.136 -0.1473 -0.4545  0.0872
22004SOL    HW170697   6.350   0.105   0.107 -0.0442  0.1067 -0.9276
22004SOL    HW270698   6.312   0.195   0.223 -1.1668 -3.2031  1.4153
22005SOL     OW70699  10.043   6.586   0.846 -0.0007  0.3595 -0.2309
22005SOL    HW170700  10.060   6.501   0.805 -0.3045  0.2808 -0.1957
22005SOL    HW270701   9.952   6.582   0.875  0.8941 -0.5547  2.7954
22006SOL     OW70702   0.075   3.174   9.206  0.1183 -0.0110 -0.0787
22006SOL    HW170703   0.160   3.191   9.165 -0.2433 -0.6211 -1.1126
22006SOL    HW270704   0.039   3.261   9.222  1.5390  0.3075  1.7360
22007SOL     OW70705   3.032   7.178   9.937  0.3420  0.0048  0.0969
22007SOL    HW170706   3.075   7.095   9.961  0.9674  0.6115  1.1705
22007SOL    HW270707   2.983   7.157   9.858  1.5200 -1.0711 -0.3914
22008SOL     OW70708  11.156   5.418  10.733  0.1457 -0.6516 -0.5726
22008SOL    HW170709  11.134   5.465  10.652  0.2313  1.5095  0.5948
22008SOL    HW270710  11.249   5.434  10.745 -0.4011  1.5612  1.4147
22009SOL     OW70711   3.429   6.796   2.281 -0.2961  0.3486  0.1992
22009SOL    HW170712   3.430   6.700   2.282 -0.7358  0.3373  0.6639
22009SOL    HW270713   3.458   6.821   2.369  1.4781  0.6873 -0.4542
22010SOL     OW70714   4.556   4.784   5.743  0.0114 -0.7147  0.8794
22010SOL    HW170715   4.627   4.720   5.750  2.1401  1.3729 -0.3240
22010SOL    HW270716   4.563   4.836   5.823  1.0020  0.5741 -0.0202
22011SOL     OW70717   5.986   5.418   3.486  0.2939  0.0976  0.0637
22011SOL    HW170718   6.052   5.354   3.512 -0.2768 -0.8048 -0.6363
22011SOL    HW270719   5.951   5.384   3.404 -1.0848  0.5233  0.4527
22012SOL     OW70720   0.237   0.362   7.169 -0.1259  0.1812 -0.2513
22012SOL    HW170721   0.195   0.442   7.137  0.3710  1.2231  1.5669
22012SOL    HW270722   0.331   0.380   7.162 -0.0098 -0.1732  0.3547
22013SOL     OW70723   3.605   9.488   6.683 -0.9136 -0.1869  0.0046
22013SOL    HW170724   3.568   9.532   6.760  0.2170 -0.2576  0.6051
22013SOL    HW270725   3.598   9.553   6.613  0.5302  0.9156  0.8311
22014SOL     OW70726   3.696  11.327   6.067 -0.4630  0.4598 -1.1937
22014SOL    HW170727   3.699  11.395   6.134 -0.2323 -0.8166  0.1543
22014SOL    HW270728   3.609  11.288   6.075  0.6113 -1.8199  0.6600
22015SOL     OW70729  10.420   6.344   7.049 -0.1954 -0.2985 -0.1920
22015SOL    HW170730  10.330   6.330   7.079 -0.8387  1.8661 -0.9268
22015SOL    HW270731  10.468   6.367   7.129  0.1796 -3.1360  0.4984
22016SOL     OW70732   0.148   0.951   2.641 -0.7719  0.2882  0.1174
22016SOL    HW170733   0.087   1.020   2.618 -1.0643 -0.1685 -0.5132
22016SOL    HW270734   0.171   0.969   2.732 -0.0704  1.7706 -0.3272
22017SOL     OW70735  10.133   1.863   5.354  0.1229 -0.2176 -0.0847
22017SOL    HW170736  10.144   1.768   5.366 -0.0068  0.0166  2.3990
22017SOL    HW270737  10.039   1.875   5.342 -0.3178 -0.2208  2.6917
22018SOL     OW70738   2.399   4.208  11.269  0.3390 -0.0425  0.7995
22018SOL    HW170739   2.428   4.198  11.179  0.8382 -1.1313  1.0619
22018SOL    HW270740   2.450   4.283  11.302  0.9933 -0.3579  0.5139
22019SOL     OW70741   7.312   6.219  11.975 -0.2825 -0.1694  0.0372
22019SOL    HW170742   7.236   6.274  11.956 -1.3284 -1.9009 -1.0390
22019SOL    HW270743   7.373   6.237  11.903 -0.9111 -0.8853 -0.6924
22020SOL     OW70744   1.929   3.467   6.128  0.5642 -0.0190  0.0703
22020SOL    HW170745   1.979   3.534   6.082  0.4960  0.0187  0.0499
22020SOL    HW270746   1.977   3.386   6.112  1.0865  0.1453  0.7536
22021SOL     OW70747   4.305   5.595   3.728  0.2202 -0.4487 -0.1885
22021SOL    HW170748   4.400   5.585   3.734  0.0392 -1.7673  1.2301
22021SOL    HW270749   4.271   5.512   3.763 -1.4414 -0.7307 -2.3065
22022SOL     OW70750  10.831   7.082  11.212  0.0475 -0.3733 -0.0124
22022SOL    HW170751  10.915   7.126  11.200 -0.2386  0.3357  0.5458
22022SOL    HW270752  10.798   7.070  11.123  0.7035 -0.6006 -0.2333
22023SOL     OW70753   0.507   6.084   7.441 -0.6905  0.0032 -0.6084
22023SOL    HW170754   0.529   6.006   7.389  0.8858 -1.5016  2.0860
22023SOL    HW270755   0.572   6.149   7.414 -1.0402 -0.1100 -1.7807
22024SOL     OW70756   5.966   5.613   3.694  0.6950 -0.1508 -0.2172
22024SOL    HW170757   5.963   5.550   3.621  1.3684  0.2595 -0.6105
22024SOL    HW270758   6.046   5.590   3.741  0.5393 -0.0711  0.0835
22025SOL     OW70759  11.174   8.450   0.043  0.5792 -0.0680  0.1802
22025SOL    HW170760  11.194   8.532   0.089 -1.0418 -0.0799  0.9548
22025SOL    HW270761  11.085   8.462   0.010  0.3120 -1.5152  0.3019
22026SOL     OW70762   0.778   4.391   3.799  0.1931 -0.8280  0.9511
22026SOL    HW170763   0.810   4.375   3.887  2.8279 -0.0576  0.2224
22026SOL    HW270764   0.771   4.486   3.793  1.8191 -0.7368 -0.1767
22027SOL     OW70765   2.775  11.672  10.312  0.0208  0.4940 -0.0752
22027SOL    HW170766   2.867  11.649  10.302 -0.0412  0.3769 -0.3912
22027SOL    HW270767   2.759  11.667  10.406  0.1847 -0.0785 -0.0765
22028SOL     OW70768   4.939  11.842   0.939 -0.6458 -0.2787 -0.5755
22028SOL    HW170769   4.961  11.914   0.879  0.7410 -0.1862 -0.0027
22028SOL    HW270770   4.972  11.764   0.896 -1.2918 -0.4575 -0.7554
22029SOL     OW70771  10.057   7.017   1.627  0.0737  0.1720  0.1156
22029SOL    HW170772  10.044   6.976   1.713  0.3372  0.0123  0.0818
22029SOL    HW270773  10.152   7.033   1.623  0.0068  0.5738  0.0332
22030SOL     OW70774  11.703   2.546   3.989 -0.2251  0.3013 -0.3461
22030SOL    HW170775  11.622   2.594   3.973 -0.4692  0.7775  1.9845
22030SOL    HW270776  11.676   2.467   4.036  0.7046  0.9863  1.4298
22031SOL     OW70777  10.753  10.916   9.841  0.3206  0.3592  0.2528
22031SOL    HW170778  10.660  10.934   9.855  0.1486  0.4936 -0.9237
22031SOL    HW270779  10.775  10.850   9.906 -0.8135 -0.2863  0.0073
22032SOL     OW70780   4.380   6.182  11.071 -0.1615 -0.2955  0.1357
22032SOL    HW170781   4.372   6.109  11.132  1.8067 -0.2397  0.5251
22032SOL    HW270782   4.439   6.244  11.114 -2.1493  1.8145  0.0338
22033SOL     OW70783   4.692   7.159   3.048 -0.3966  0.7905  0.0996
22033SOL    HW170784   4.736   7.099   3.109  0.1547  1.0391 -0.0410
22033SOL    HW270785   4.648   7.223   3.105 -2.6459 -0.8501  0.2987
22034SOL     OW70786   7.707   4.961   4.141 -0.2351 -0.2197 -0.4492
22034SOL    HW170787   7.641   4.995   4.201 -0.2748 -2.3529  0.8102
22034SOL    HW270788   7.779   4.933   4.198  0.2685 -1.1263 -1.4904
22035SOL     OW70789   6.947   6.450  10.308  0.5019  0.1897 -0.4960
22035SOL    HW170790   6.976   6.382  10.369 -0.7774  0.6048  0.6207
22035SOL    HW270791   6.864   6.416  10.273  1.9536 -0.7954 -3.3119
22036SOL     OW70792   7.407  11.118   6.963  0.0960 -0.4056 -0.2034
22036SOL    HW170793   7.327  11.169   6.959 -0.3086 -0.8931  1.1090
22036SOL    HW270794   7.393  11.046   6.901  0.0617  0.2247 -0.9385
22037SOL     OW70795   5.516   0.585  11.810 -0.3018  0.2864  0.3441
22037SOL    HW170796   5.474   0.505  11.840  0.7421 -0.6056 -0.4765
22037SOL    HW270797   5.495   0.590  11.717  0.9454  0.0775  0.0238
22038SOL     OW70798   3.686   6.481   9.775  0.1484  0.0273 -0.3162
22038SOL    HW170799   3.713   6.457   9.863 -1.1552 -0.3990 -0.0151
22038SOL    HW270800   3.608   6.428   9.758  1.7267 -1.7518 -2.6860
22039SOL     OW70801   3.357   2.594   9.237  0.2821  0.0766 -0.1987
22039SOL    HW170802   3.269   2.562   9.220  0.1835  0.2956 -0.1076
22039SOL    HW270803   3.380   2.646   9.160  0.7368 -0.8258 -0.6834
22040SOL     OW70804   6.797   5.246   4.254  0.4241 -0.3186 -0.1272
22040SOL    HW170805   6.720   5.302   4.252  0.9214  0.4173 -2.7095
22040SOL    HW270806   6.840   5.265   4.337  1.0465  3.8882 -1.2040
22041SOL     OW70807   3.638  11.689   9.632  0.0651 -0.1143  0.1203
22041SOL    HW170808   3.636  11.628   9.558  0.9854  0.8464 -0.7193
22041SOL    HW270809   3.567  11.751   9.613  0.3185  0.1485  0.0389
22042SOL     OW70810   0.162  11.946   8.238  0.2972  0.0276 -0.5867
22042SOL    HW170811   0.131  12.007   8.305 -2.8780 -0.7479 -1.2119
22042SOL    HW270812   0.253  11.928   8.263 -0.4356  0.4679  2.9817
22043SOL     OW70813   5.954   0.524   0.380  0.4725 -0.0291  0.2886
22043SOL    HW170814   5.868   0.488   0.401 -0.2989  0.4135 -1.9079
22043SOL    HW270815   5.951   0.613   0.414  0.4134 -0.2936  1.0023
22044SOL     OW70816   2.965   9.618   1.103 -0.2068 -0.1770  0.2222
22044SOL    HW170817   3.012   9.696   1.132  1.2126 -1.0271  0.2741
22044SOL    HW270818   3.004   9.546   1.151  2.5457 -1.7306 -3.8271
22045SOL     OW70819   5.295   1.504   6.806 -0.2147 -0.3166  0.1679
22045SOL    HW170820   5.251   1.459   6.878 -0.8201  0.4497  0.2836
22045SOL    HW270821   5.321   1.433   6.746 -1.7927 -0.7884 -0.0026
22046SOL     OW70822   0.605  11.709  11.919 -0.3643 -0.2927 -0.2520
22046SOL    HW170823   0.667  11.651  11.874  0.8662 -0.2303  1.3000
22046SOL    HW270824   0.563  11.758  11.848  0.9297 -0.7720 -1.3999
22047SOL     OW70825   7.531  11.380  10.254  0.2187 -0.1734 -0.0194
22047SOL    HW170826   7.435  11.374  10.264  0.1397 -0.0076 -0.6771
22047SOL    HW270827   7.559  11.430  10.331 -0.1404 -0.8266  0.5550
22048SOL     OW70828   9.349   3.593   3.651 -0.0700  0.3832  0.0321
22048SOL    HW170829   9.327   3.511   3.606 -1.8294  1.7733 -1.8354
22048SOL    HW270830   9.272   3.614   3.703  0.1359  1.1264  0.0553
22049SOL     OW70831   5.451  10.556   5.425  0.3833  0.0977 -0.1439
22049SOL    HW170832   5.448  10.607   5.345  1.1517  0.2536 -0.0842
22049SOL    HW270833   5.429  10.618   5.495 -0.5279 -0.0941 -0.2485
22050SOL     OW70834   0.403   2.317   6.689 -0.7332  0.0267 -0.0300
22050SOL    HW170835   0.468   2.252   6.715  0.5845  0.7647 -1.3196
22050SOL    HW270836   0.400   2.379   6.762  0.2666  0.1466 -0.0723
22051SOL     OW70837   2.938   3.054   9.994  0.4862  0.1752  0.1551
22051SOL    HW170838   2.979   3.134   9.962  0.7589 -0.1897 -0.4369
22051SOL    HW270839   2.844   3.068   9.981  0.6446 -0.4638 -2.0787
22052SOL     OW70840   6.255   4.674   2.273  0.0373 -0.4438 -0.6866
22052SOL    HW170841   6.160   4.661   2.269 -0.0987  0.2953 -0.0999
22052SOL    HW270842   6.271   4.706   2.361  0.7421  0.1352 -1.0180
22053SOL     OW70843   9.321   4.867   4.539 -0.3657  0.6324  0.3533
22053SOL    HW170844   9.279   4.947   4.572  1.3803  1.6879  0.1394
22053SOL    HW270845   9.351   4.890   4.451 -0.8569 -0.6591 -0.1766
22054SOL     OW70846   7.194   8.454   9.602 -0.3423  0.1151  0.1272
22054SOL    HW170847   7.129   8.509   9.646 -1.3196  0.6660 -1.8500
22054SOL    HW270848   7.275   8.503   9.607 -1.2415  1.9557 -1.7918
22055SOL     OW70849   2.072   1.402   0.759  0.8271  0.0022 -0.3344
22055SOL    HW170850   1.981   1.399   0.787  0.6635 -0.3857 -0.8820
22055SOL    HW270851   2.069   1.440   0.671  1.4526  2.4875  0.6150
22056SOL     OW70852   9.100   2.376   4.763  0.6495  0.4653 -0.1978
22056SOL    HW170853   9.038   2.318   4.807  1.4969  0.9783  1.7874
22056SOL    HW270854   9.098   2.349   4.671 -2.6385  0.5949 -0.2753
22057SOL     OW70855   2.479   4.985   1.500  0.0740  0.5760 -0.0971
22057SOL    HW170856   2.534   4.908   1.482 -0.8064 -0.6600  2.0342
22057SOL    HW270857   2.390   4.951   1.502 -0.3219  1.6102  1.0591
22058SOL     OW70858   4.362   8.411   3.201 -0.3020 -0.2119 -0.0110
22058SOL    HW170859   4.385   8.319   3.215 -4.3917 -1.5317 -0.5258
22058SOL    HW270860   4.325   8.439   3.284  1.5108  1.2967  0.3525
22059SOL     OW70861   6.090   4.791   0.667 -0.0623 -1.1212 -0.3251
22059SOL    HW170862   6.008   4.769   0.711 -1.4496  0.5224 -1.9023
22059SOL    HW270863   6.115   4.876   0.703  0.0627 -0.8590 -1.0128
22060SOL     OW70864   0.956   9.549  10.618 -0.2948  0.4586 -0.1977
22060SOL    HW170865   1.020   9.505  10.673 -1.3045 -0.5923  0.1605
22060SOL    HW270866   1.006   9.579  10.542  0.7355  0.2142  0.3746
22061SOL     OW70867   1.041  11.147   0.300  0.4087  0.4060  0.1876
22061SOL    HW170868   1.080  11.177   0.382  1.0961  3.4073 -1.1306
22061SOL    HW270869   0.955  11.189   0.298  1.1155  1.8821 -1.3995
22062SOL     OW70870   5.370   6.187   5.826 -0.3162 -0.4308  0.1306
22062SOL    HW170871   5.439   6.216   5.766 -1.2012 -0.0384 -0.7235
22062SOL    HW270872   5.315   6.128   5.773 -0.0289 -1.6255  1.1041
22063SOL     OW70873  11.061   9.056  10.793 -0.1963  0.0161 -0.1314
22063SOL    HW170874  11.136   9.015  10.750  0.4596 -0.7478  1.6652
22063SOL    HW270875  10.986   9.000  10.769 -0.2425  0.7324 -1.8528
22064SOL     OW70876  10.356   6.807   0.401 -0.2111  0.1460 -0.2278
22064SOL    HW170877  10.329   6.798   0.310  1.5927 -0.0094 -0.7787
22064SOL    HW270878  10.360   6.901   0.416 -1.9238  0.1966  0.1798
22065SOL     OW70879   3.667   8.615  11.380  0.1809 -0.0224 -0.1946
22065SOL    HW170880   3.644   8.619  11.473 -1.4414 -0.2610 -0.5574
22065SOL    HW270881   3.639   8.699  11.345 -1.1887 -0.7130 -0.8509
22066SOL     OW70882   2.147   5.717   2.394 -0.3572  0.0745  0.1588
22066SOL    HW170883   2.236   5.726   2.361 -0.3318 -0.8623 -0.0605
22066SOL    HW270884   2.105   5.656   2.334 -0.6486 -0.7576  1.1663
22067SOL     OW70885   7.141   6.991   1.816  0.5597  0.5492  0.2441
22067SOL    HW170886   7.233   7.015   1.824  0.5651  0.2277  1.3341
22067SOL    HW270887   7.103   7.010   1.902 -0.4441  0.8541 -0.2370
22068SOL     OW70888   1.723   3.985   7.929  0.4128  0.7992  0.5163
22068SOL    HW170889   1.639   4.032   7.935  0.3764  0.7571  0.3412
22068SOL    HW270890   1.784   4.051   7.896  0.1275  0.4517 -0.7899
22069SOL     OW70891   8.206   4.142   2.531  0.5143  0.5115 -0.4065
22069SOL    HW170892   8.235   4.068   2.585  0.0664  1.2919  0.9624
22069SOL    HW270893   8.112   4.129   2.520  0.5246  0.5987 -0.6125
22070SOL     OW70894  10.830   4.390   7.695 -0.5470 -0.0014  0.3930
22070SOL    HW170895  10.885   4.345   7.633 -1.5632 -0.5217 -0.1592
22070SOL    HW270896  10.746   4.344   7.691 -1.2277  1.1568  0.7242
22071SOL     OW70897   5.013   7.542  11.874  0.1679  0.5330 -0.1098
22071SOL    HW170898   4.953   7.493  11.818  1.5396 -1.5586  0.1402
22071SOL    HW270899   5.093   7.551  11.822  0.8110  0.2154  0.7870
22072SOL     OW70900   2.043   5.362  11.584  0.1464  0.2075 -0.0302
22072SOL    HW170901   2.001   5.428  11.528 -1.0516  0.3735  1.0405
22072SOL    HW270902   2.125   5.404  11.612 -0.2059  0.9170 -0.0327
22073SOL     OW70903   2.000   0.549   3.576  0.1960 -0.1230  0.2986
22073SOL    HW170904   2.035   0.638   3.580 -0.0141 -0.0311  0.1170
22073SOL    HW270905   1.965   0.533   3.664 -0.7965  0.3992  0.0157
22074SOL     OW70906   0.449   7.580   2.250  0.0821  0.0331  0.0292
22074SOL    HW170907   0.391   7.645   2.212  0.7033 -0.1912 -1.3568
22074SOL    HW270908   0.524   7.629   2.282 -0.0609  0.1326  0.2140
22075SOL     OW70909  11.208   5.099   6.985 -0.3011 -0.0944  0.1740
22075SOL    HW170910  11.144   5.078   6.918 -0.6452  0.0716  0.4437
22075SOL    HW270911  11.250   5.179   6.954 -0.1305 -0.2778 -0.0680
22076SOL     OW70912   4.940   4.714   6.043 -0.0331 -0.1243  0.1395
22076SOL    HW170913   4.930   4.709   5.948  1.1522 -0.1213  0.0011
22076SOL    HW270914   4.997   4.790   6.057 -0.9487  0.4512  0.9222
22077SOL     OW70915  10.762   3.228   9.592  0.1253  0.3110  0.6057
22077SOL    HW170916  10.764   3.178   9.674 -0.2294  1.8699  1.6162
22077SOL    HW270917  10.854   3.246   9.572  0.2266 -0.2961  0.5178
22078SOL     OW70918   0.956   9.286   3.756 -0.4393  0.1684 -0.6030
22078SOL    HW170919   0.972   9.215   3.694 -0.2854 -0.4168  0.1003
22078SOL    HW270920   0.861   9.295   3.760 -0.5086 -0.7313  0.1108
22079SOL     OW70921   1.826  11.523   9.003 -0.2764 -0.2737 -0.6395
22079SOL    HW170922   1.878  11.569   9.069 -1.1968 -0.1832  0.0450
22079SOL    HW270923   1.863  11.434   9.001 -1.4596 -0.8779  1.4422
22080SOL     OW70924   5.715   2.910  10.376 -0.3584  0.4181 -0.5488
22080SOL    HW170925   5.808   2.909  10.401 -0.5130  0.1010  0.0320
22080SOL    HW270926   5.706   2.836  10.316 -0.3391  0.1182 -0.1904
22081SOL     OW70927  10.656   9.646   2.263  0.1819  0.5117 -0.2836
22081SOL    HW170928  10.655   9.563   2.312  0.0641  0.8454  0.2865
22081SOL    HW270929  10.717   9.630   2.191 -0.9269 -0.5499 -1.0323
22082SOL     OW70930   1.518  11.020   2.530 -0.0863  0.0703  0.1249
22082SOL    HW170931   1.569  11.058   2.458  0.9379  0.8220  1.2128
22082SOL    HW270932   1.438  11.073   2.532 -0.0512  0.1499 -0.3491
22083SOL     OW70933   0.768  11.022  11.719 -0.3878  0.2935 -0.2371
22083SOL    HW170934   0.798  10.968  11.645 -0.1538  0.5409 -0.3228
22083SOL    HW270935   0.840  11.019  11.782 -0.4046  0.4472 -0.2109
22084SOL     OW70936   9.983   3.032  10.977 -0.4001  0.3905  0.4269
22084SOL    HW170937   9.946   3.019  10.890 -1.1030 -1.8221  1.0045
22084SOL    HW270938   9.911   3.017  11.037  0.3453  0.7332  1.4369
22085SOL     OW70939   2.455   8.865   3.844 -0.5129 -0.2568  0.5166
22085SOL    HW170940   2.430   8.958   3.845  0.3206  0.0235 -1.3070
22085SOL    HW270941   2.530   8.860   3.904 -0.8941  0.1282  1.0383
22086SOL     OW70942  11.096   7.135   1.976  0.0458 -0.3082 -0.2056
22086SOL    HW170943  11.014   7.100   2.011  0.2305 -2.0849 -1.3889
22086SOL    HW270944  11.160   7.065   1.991  0.6800 -0.0890 -1.7393
22087SOL     OW70945  11.069   1.861   2.736 -0.3351  0.3532  0.0411
22087SOL    HW170946  11.106   1.790   2.683 -0.5433  0.7408 -0.6432
22087SOL    HW270947  11.061   1.824   2.824  0.7732 -0.0499 -0.0085
22088SOL     OW70948   9.101   5.814   3.526  0.4179  0.1591 -0.3136
22088SOL    HW170949   9.029   5.757   3.498 -0.0829  0.1104  1.0038
22088SOL    HW270950   9.174   5.790   3.469 -0.6422  0.3289 -1.8041
22089SOL     OW70951   4.410   1.470   6.726 -0.0237 -0.2620  0.0117
22089SOL    HW170952   4.464   1.546   6.704  0.6144 -0.5845  0.4192
22089SOL    HW270953   4.440   1.401   6.667  0.8073 -0.7608  0.9819
22090SOL     OW70954   6.915   2.604   7.505  0.0466 -0.1295  0.1791
22090SOL    HW170955   6.861   2.557   7.568  2.3111 -0.2918  2.1330
22090SOL    HW270956   6.930   2.690   7.545  4.2708 -1.3450  1.7184
22091SOL     OW70957   3.900   5.854  11.019  0.2508 -0.2313  1.0664
22091SOL    HW170958   3.883   5.807  11.100  0.4994 -0.2957  1.0799
22091SOL    HW270959   3.896   5.786  10.951  2.5641 -0.6466  1.2755
22092SOL     OW70960   8.270   1.556   7.559  0.0073 -0.3902  0.6073
22092SOL    HW170961   8.304   1.644   7.542  0.4942 -0.2583  2.0714
22092SOL    HW270962   8.186   1.571   7.603 -0.9907 -0.7035 -1.0971
22093SOL     OW70963   8.215   0.906   8.932  0.3478 -0.2884 -0.0845
22093SOL    HW170964   8.170   0.938   9.011 -1.8317 -2.0506 -0.5085
22093SOL    HW270965   8.297   0.869   8.964 -0.4142 -0.8011  1.3388
22094SOL     OW70966   5.545  10.190   8.467 -0.1010  0.2841 -0.0847
22094SOL    HW170967   5.572  10.281   8.457  1.3371 -0.2347 -1.3221
22094SOL    HW270968   5.536  10.178   8.562  2.6879  0.9359  0.3629
22095SOL     OW70969   2.869   9.314  10.198  0.1388 -0.0831 -0.0096
22095SOL    HW170970   2.876   9.330  10.292  1.4488  0.7636 -0.2214
22095SOL    HW270971   2.785   9.269  10.187 -1.9561  3.1937  1.1266
22096SOL     OW70972   0.516   5.173   0.065 -0.0180 -0.0921  0.1508
22096SOL    HW170973   0.586   5.131   0.016 -0.4056 -1.1757  0.4973
22096SOL    HW270974   0.477   5.235   0.003  1.6587  1.0439  0.1664
22097SOL     OW70975   6.311  11.987   3.053 -0.5695  0.3083 -0.2083
22097SOL    HW170976   6.270  12.063   3.012  0.1157  0.4428 -0.6564
22097SOL    HW270977   6.392  11.974   3.004 -0.5711 -0.5770  0.0121
22098SOL     OW70978   0.930   1.526   5.606 -0.3702  0.5647  0.1553
22098SOL    HW170979   0.915   1.443   5.561  1.2535  0.8843 -1.1063
22098SOL    HW270980   0.848   1.545   5.651 -0.2564 -2.5393  1.8929
22099SOL     OW70981   1.134   2.607   4.988 -0.0303  0.6383 -0.6810
22099SOL    HW170982   1.101   2.522   5.017  1.3982  0.9240  2.1554
22099SOL    HW270983   1.208   2.585   4.931 -0.4891 -0.0212 -1.0317
22100SOL     OW70984   0.107   1.697   3.719 -0.0335  0.1628  0.0950
22100SOL    HW170985   0.042   1.702   3.790  0.0587  0.2465  0.1723
22100SOL    HW270986   0.054   1.682   3.640 -0.2390  1.3210 -0.0082
22101SOL     OW70987   7.387   8.972   8.916 -0.4675 -0.1523  0.1242
22101SOL    HW170988   7.325   9.024   8.967  0.3695  0.9641  0.0539
22101SOL    HW270989   7.333   8.916   8.861 -1.4126  1.1763 -0.3269
22102SOL     OW70990  11.863   3.532   3.650  0.6500 -0.2978  0.2642
22102SOL    HW170991  11.851   3.440   3.676  3.0442 -0.2017  2.0928
22102SOL    HW270992  11.891   3.575   3.731 -0.9655  2.2323 -0.4124
22103SOL     OW70993   1.472   5.850   2.810 -0.1051 -0.9455  0.4990
22103SOL    HW170994   1.412   5.778   2.790  2.2260 -2.7813 -0.4033
22103SOL    HW270995   1.539   5.811   2.866  0.9909  0.6196  0.3616
22104SOL     OW70996   9.878   0.473  10.640  0.1029  0.4208 -0.0857
22104SOL    HW170997   9.930   0.406  10.685 -0.4544  0.7724  1.1341
22104SOL    HW270998   9.896   0.553  10.690 -1.3496  0.6115  0.1546
22105SOL     OW70999   6.452   1.176  11.385  1.0408  0.7205  0.2082
22105SOL    HW171000   6.365   1.173  11.346  0.2503  3.0729  1.5358
22105SOL    HW271001   6.469   1.087  11.414 -0.5857  0.0517 -0.7689
22106SOL     OW71002   4.185   2.631   4.792  0.2107  0.0385 -0.7913
22106SOL    HW171003   4.166   2.724   4.781 -0.8999  0.2262  2.0216
22106SOL    HW271004   4.129   2.587   4.728 -1.4831  1.1861 -0.1683
22107SOL     OW71005   8.171   6.792   7.184 -0.4533  0.2427 -0.2212
22107SOL    HW171006   8.081   6.823   7.188  0.2734  2.5877 -0.9380
22107SOL    HW271007   8.225   6.869   7.204  1.4342 -0.9019 -0.5883
22108SOL     OW71008   6.834   0.012   0.959  0.8438  0.0955 -0.5686
22108SOL    HW171009   6.828   0.093   0.908  2.8042  0.4939 -0.2508
22108SOL    HW271010   6.783   0.030   1.038  1.3609  1.0935 -0.4400
22109SOL     OW71011   6.957   4.116   0.061  0.4742  0.6279 -0.2108
22109SOL    HW171012   6.955   4.052  -0.010 -1.5013 -0.4653  0.7287
22109SOL    HW271013   7.050   4.128   0.080  0.9586 -2.3479 -0.1492
22110SOL     OW71014   2.711   5.140   5.107  0.1527 -0.2093  0.9026
22110SOL    HW171015   2.762   5.209   5.150 -1.6897  0.2738  2.4989
22110SOL    HW271016   2.669   5.183   5.033  1.1546 -0.3460  0.2329
22111SOL     OW71017   5.259   1.535   3.741  0.1785 -0.4504  0.5570
22111SOL    HW171018   5.255   1.591   3.664 -0.3529  0.1497  1.0169
22111SOL    HW271019   5.326   1.574   3.796 -0.5023  0.0134  1.0801
22112SOL     OW71020  10.515   6.920  11.594 -0.9517  0.0556  0.5258
22112SOL    HW171021  10.607   6.894  11.604 -1.1570 -1.3370 -0.7385
22112SOL    HW271022  10.479   6.915  11.682 -0.0734 -0.5217  0.8713
22113SOL     OW71023  11.576   5.188   9.137  0.0056 -0.1307  0.0203
22113SOL    HW171024  11.609   5.101   9.158 -1.0739 -0.7117 -0.6203
22113SOL    HW271025  11.615   5.209   9.053  1.0761  0.4632  0.6364
22114SOL     OW71026  11.602   6.325   8.323 -0.2059  0.5124  0.0944
22114SOL    HW171027  11.605   6.372   8.239 -1.1013 -2.0748 -1.5176
22114SOL    HW271028  11.687   6.282   8.330 -0.1762  0.6278  0.4510
22115SOL     OW71029   4.554   2.803   0.529 -0.3844  0.5510  0.2315
22115SOL    HW171030   4.608   2.730   0.560 -0.0737 -0.4429 -2.3400
22115SOL    HW271031   4.464   2.768   0.531 -0.4186  0.6564  0.4859
22116SOL     OW71032   0.994   0.726  11.891 -0.1810  0.5113  0.1516
22116SOL    HW171033   0.938   0.650  11.902  0.0018  0.4728  0.8768
22116SOL    HW271034   1.004   0.761  11.980 -1.1388  2.0121 -0.2999
22117SOL     OW71035   3.510   0.633  10.249  0.2617  0.3121  0.4669
22117SOL    HW171036   3.497   0.600  10.160 -1.9680  1.2164  0.3971
22117SOL    HW271037   3.586   0.691  10.242 -0.0069  0.5342 -0.9016
22118SOL     OW71038   2.128   3.445   9.026 -0.0177  0.0146  0.1449
22118SOL    HW171039   2.220   3.420   9.033 -0.1163 -0.1740  0.9636
22118SOL    HW271040   2.080   3.362   9.036 -0.3292  0.3855  2.3129
22119SOL     OW71041  10.935   1.082   7.842  0.0559 -0.1210 -0.0168
22119SOL    HW171042  10.888   1.042   7.914  0.2117  1.5965  1.1181
22119SOL    HW271043  10.914   1.175   7.848  3.0761  0.6634  0.2163
22120SOL     OW71044   9.696   6.096   2.610  0.3303  0.6342 -0.4771
22120SOL    HW171045   9.632   6.144   2.559  1.4808  2.2268 -0.4806
22120SOL    HW271046   9.685   6.127   2.699  0.9209  0.7350 -0.4336
22121SOL     OW71047   3.622   8.430   8.640  0.5925  0.3266 -0.2633
22121SOL    HW171048   3.669   8.486   8.578 -2.5575  2.7030 -0.7667
22121SOL    HW271049   3.650   8.461   8.726 -0.2601  2.0056 -0.5484
22122SOL     OW71050   5.792   9.736   5.594 -0.7457  0.0434 -0.2144
22122SOL    HW171051   5.874   9.779   5.569  0.3880 -1.0996  1.3740
22122SOL    HW271052   5.762   9.785   5.671  0.1958 -1.4919  1.1872
22123SOL     OW71053   9.005   5.848   8.202 -0.4353  0.4329  0.6673
22123SOL    HW171054   8.924   5.847   8.252 -1.1474  0.9697 -0.4307
22123SOL    HW271055   9.019   5.756   8.178 -1.9012  0.5754 -0.9254
22124SOL     OW71056  10.800   1.099   8.951  0.1982 -0.3007  0.5878
22124SOL    HW171057  10.727   1.161   8.956  0.8002  0.3296  1.9892
22124SOL    HW271058  10.875   1.148   8.985  1.2224 -1.0487 -0.5003
22125SOL     OW71059   3.458  11.019   6.833  0.4166 -0.0741  0.0850
22125SOL    HW171060   3.514  10.996   6.759 -0.8247  0.3275 -1.0149
22125SOL    HW271061   3.429  11.108   6.814 -1.5057 -0.6629  0.0072
22126SOL     OW71062   3.037  10.814   3.534 -0.3139  0.4508 -0.0054
22126SOL    HW171063   3.111  10.793   3.591 -0.4438  1.2910  0.5010
22126SOL    HW271064   3.026  10.738   3.478  0.8712  0.2757 -0.0126
22127SOL     OW71065   6.704   3.965  11.414 -0.5430 -0.4707 -0.4125
22127SOL    HW171066   6.636   3.989  11.478 -1.9523 -0.2691 -1.9107
22127SOL    HW271067   6.786   3.985  11.458 -1.4706  0.2013  1.1203
22128SOL     OW71068   7.539   3.461  11.247 -0.5664 -0.4784 -0.4105
22128SOL    HW171069   7.588   3.540  11.269 -0.0227 -1.4489  2.1510
22128SOL    HW271070   7.576   3.393  11.303 -2.1957 -2.1650 -1.2730
22129SOL     OW71071   0.180   3.237   6.242 -0.0261 -0.2057 -0.3567
22129SOL    HW171072   0.266   3.199   6.223 -1.0530 -1.8938 -2.0097
22129SOL    HW271073   0.187   3.328   6.213  0.4741 -1.0143 -3.0651
22130SOL     OW71074   8.648   8.908   8.626 -0.2054  0.4392  0.3413
22130SOL    HW171075   8.724   8.857   8.598 -0.9055 -0.9712  0.8936
22130SOL    HW271076   8.672   8.999   8.610  1.6268  0.0277  0.5780
22131SOL     OW71077   4.967   0.687   4.602  0.0904 -0.0290  0.4113
22131SOL    HW171078   4.965   0.628   4.677  1.9363  0.5737  0.9685
22131SOL    HW271079   5.055   0.724   4.602  0.1469  0.0134 -2.0480
22132SOL     OW71080   5.606  10.404  10.167 -0.3770 -0.5759  0.4440
22132SOL    HW171081   5.622  10.386  10.260  0.0647  0.0946  0.5008
22132SOL    HW271082   5.579  10.495  10.164  1.6251  0.0515 -0.2864
22133SOL     OW71083   9.693   0.555   9.224 -0.3762 -0.2540 -0.2231
22133SOL    HW171084   9.612   0.585   9.265 -1.3708  0.2163 -2.3798
22133SOL    HW271085   9.698   0.462   9.245 -1.0015 -0.0983  0.6699
22134SOL     OW71086   0.947   5.167   8.102 -0.4741 -0.4149  0.2697
22134SOL    HW171087   0.971   5.259   8.088  0.2397 -0.5476  0.5694
22134SOL    HW271088   0.891   5.168   8.179 -2.2933  0.0145 -0.9956
22135SOL     OW71089   3.410   5.193   2.708  0.0562  0.5153 -0.4183
22135SOL    HW171090   3.342   5.128   2.690  1.1113 -0.9237  0.6036
22135SOL    HW271091   3.475   5.146   2.760  1.8587  1.8430 -1.3674
22136SOL     OW71092   0.843   4.453   7.563 -0.1352 -0.5716 -0.0093
22136SOL    HW171093   0.835   4.466   7.469 -1.1626  1.2424  0.2823
22136SOL    HW271094   0.933   4.423   7.576 -0.0246 -0.9602 -1.5673
22137SOL     OW71095   7.512   2.130   8.678 -0.4283  0.4464 -0.1195
22137SOL    HW171096   7.572   2.201   8.701  0.7297 -0.9048  1.3126
22137SOL    HW271097   7.425   2.167   8.692  0.1483  1.3612  1.4052
22138SOL     OW71098   4.946   7.958  11.994  0.0359 -0.6879  0.3864
22138SOL    HW171099   5.041   7.965  11.988 -0.1227  0.2718 -2.0817
22138SOL    HW271100   4.922   7.894  11.927 -1.0834 -0.8394  0.9034
22139SOL     OW71101   8.425   4.305   7.087  0.8495  0.2658  0.0792
22139SOL    HW171102   8.400   4.235   7.026 -0.3150 -0.5370  1.4139
22139SOL    HW271103   8.483   4.262   7.151 -1.8365 -0.2113  2.3820
22140SOL     OW71104   6.478   5.311   3.836 -0.1176  0.1637  0.3308
22140SOL    HW171105   6.406   5.262   3.795  0.0067  1.4073 -1.4563
22140SOL    HW271106   6.557   5.268   3.803 -0.0205 -0.2946  1.1471
22141SOL     OW71107   8.165   2.161   7.128  0.3279  0.3868 -0.6936
22141SOL    HW171108   8.229   2.225   7.096 -0.9029  2.1710  0.2243
22141SOL    HW271109   8.189   2.148   7.220 -1.3648  2.1767  0.0796
22142SOL     OW71110  11.838   3.194  10.533 -0.3250 -0.2441 -0.5960
22142SOL    HW171111  11.864   3.168  10.621 -1.9501  1.2365  0.3789
22142SOL    HW271112  11.892   3.271  10.514 -1.9360  1.1435  0.2922
22143SOL     OW71113   8.586   8.169   1.337  0.3162 -0.2839  0.5099
22143SOL    HW171114   8.544   8.102   1.391  2.3405 -0.7527  1.6074
22143SOL    HW271115   8.642   8.119   1.277 -0.4953  0.3242 -0.8146
22144SOL     OW71116   5.059   8.259   4.380  0.6235 -1.1381 -0.4695
22144SOL    HW171117   5.049   8.347   4.416  1.3324 -1.6777  1.1345
22144SOL    HW271118   4.973   8.219   4.391  0.0641 -0.4287 -1.9389
22145SOL     OW71119   6.579   1.883   3.296 -0.0684  0.0823 -0.2145
22145SOL    HW171120   6.588   1.832   3.215  0.6695  0.7741 -0.5750
22145SOL    HW271121   6.615   1.826   3.364 -0.7509 -0.5302 -0.3508
22146SOL     OW71122  11.501   0.433   9.718  0.3303 -0.0444  0.0126
22146SOL    HW171123  11.585   0.478   9.708  0.8330 -0.7220  1.0559
22146SOL    HW271124  11.523   0.345   9.748 -0.7359 -0.3483 -0.0389
22147SOL     OW71125   9.936   0.588  11.133  0.2758 -0.5743 -0.3885
22147SOL    HW171126   9.928   0.518  11.198 -1.2507 -0.2722 -0.2072
22147SOL    HW271127   9.853   0.586  11.085  0.7039  0.3094 -1.2025
22148SOL     OW71128  11.412   2.648   3.271 -0.5315 -0.3091 -0.4858
22148SOL    HW171129  11.402   2.552   3.267 -1.8677 -0.2348  0.2864
22148SOL    HW271130  11.351   2.675   3.339  0.0601  1.0817 -0.4769
22149SOL     OW71131   7.781   9.008   3.215  0.1314  0.0127 -0.0281
22149SOL    HW171132   7.703   9.061   3.201  0.4440  0.6254  0.4698
22149SOL    HW271133   7.854   9.065   3.190  0.7213  1.0851  3.5263
22150SOL     OW71134  11.319   2.036   7.643 -0.3638  0.0087 -0.2577
22150SOL    HW171135  11.327   1.990   7.559  0.8776  1.3393 -0.9012
22150SOL    HW271136  11.225   2.047   7.655 -0.5637 -0.3604 -1.3752
22151SOL     OW71137   0.059   3.624  11.742 -0.3318 -0.4595 -0.0937
22151SOL    HW171138   0.083   3.541  11.701 -1.4763 -1.4322  1.0931
22151SOL    HW271139   0.136   3.648  11.794  0.1710 -0.5266 -0.7917
22152SOL     OW71140   9.312   7.746   3.700 -0.2560 -0.2114  0.0353
22152SOL    HW171141   9.377   7.706   3.642 -0.4873 -0.1330 -0.2811
22152SOL    HW271142   9.360   7.813   3.749 -0.0846 -0.2052 -0.1447
22153SOL     OW71143   9.549   4.776   5.267 -1.0192  0.1464 -0.5956
22153SOL    HW171144   9.526   4.702   5.324 -0.8598 -1.2269 -2.2313
22153SOL    HW271145   9.521   4.853   5.316 -1.4945 -1.0031  1.0452
22154SOL     OW71146   0.095  10.910   4.466 -0.4971 -0.1074 -0.0480
22154SOL    HW171147   0.049  10.956   4.536 -1.5790 -1.0072 -0.1515
22154SOL    HW271148   0.180  10.887   4.504 -0.8780 -0.1436  0.7975
22155SOL     OW71149  10.537  11.740  10.130 -0.8137  0.0300 -0.0961
22155SOL    HW171150  10.478  11.716  10.202 -0.6342 -0.2165 -0.0287
22155SOL    HW271151  10.556  11.833  10.144 -1.0235  0.0600 -0.0004
22156SOL     OW71152   2.155   2.227   3.914  0.2577  0.0628 -0.1588
22156SOL    HW171153   2.151   2.132   3.908  3.1928 -0.1724  0.2086
22156SOL    HW271154   2.218   2.253   3.846  0.9195  1.5195  0.9437
22157SOL     OW71155   3.681   6.153   4.176 -0.1999 -0.3973 -0.0563
22157SOL    HW171156   3.595   6.190   4.155  0.5760  0.3456 -2.2426
22157SOL    HW271157   3.676   6.130   4.269 -1.6422  2.7260  0.7476
22158SOL     OW71158   8.272   7.155   2.735  0.3809 -0.1241  0.1421
22158SOL    HW171159   8.284   7.061   2.717  0.1489 -0.2478  0.6130
22158SOL    HW271160   8.213   7.185   2.666  0.8866 -0.1982 -0.3364
22159SOL     OW71161  11.781   5.626   1.823  0.0528  0.3356 -0.2378
22159SOL    HW171162  11.739   5.629   1.908  0.2474  0.6187 -0.1498
22159SOL    HW271163  11.750   5.544   1.783 -0.2794  0.3571 -0.0240
22160SOL     OW71164   7.847   5.861   8.577  0.8763  0.2416 -0.3334
22160SOL    HW171165   7.788   5.836   8.505  2.5116 -0.8252 -1.3821
22160SOL    HW271166   7.901   5.783   8.591  1.7574  1.0357  0.8705
22161SOL     OW71167   7.681   0.741   8.213 -0.5882  0.0426  0.1728
22161SOL    HW171168   7.642   0.813   8.263  1.3656  0.9198  0.5115
22161SOL    HW271169   7.710   0.782   8.132  1.3261 -0.1287  0.7245
22162SOL     OW71170   9.942   1.322   4.682  0.0513  0.0528 -0.3141
22162SOL    HW171171   9.916   1.360   4.766  0.0238 -0.9917  0.1592
22162SOL    HW271172  10.032   1.294   4.695 -0.3519 -1.2468 -0.2223
22163SOL     OW71173   5.622   8.632   7.529 -0.3409 -0.2348  0.1135
22163SOL    HW171174   5.709   8.601   7.556  0.1116 -0.0493 -1.0688
22163SOL    HW271175   5.630   8.647   7.435 -1.7876 -0.5984 -0.0893
22164SOL     OW71176   0.258   1.343   5.059  0.5389  0.2183  0.2889
22164SOL    HW171177   0.192   1.294   5.010  0.1904  1.6540 -0.7225
22164SOL    HW271178   0.328   1.279   5.075 -0.4947 -0.9606  0.1933
22165SOL     OW71179  11.570   0.290   2.032 -0.2785 -0.2377  0.5745
22165SOL    HW171180  11.653   0.256   2.001 -0.1095  0.8772 -0.2816
22165SOL    HW271181  11.504   0.238   1.986 -0.0330  1.0712 -1.4078
22166SOL     OW71182   0.912   3.697   1.619 -0.5155  0.0007  0.5073
22166SOL    HW171183   0.850   3.756   1.662  1.2867  2.5761 -0.2241
22166SOL    HW271184   0.881   3.691   1.528  1.3649  3.1211 -0.4736
22167SOL     OW71185   4.841   3.429   8.612 -0.2402 -0.1494 -0.6534
22167SOL    HW171186   4.749   3.440   8.588 -0.1219  0.4577 -0.8345
22167SOL    HW271187   4.846   3.339   8.645 -1.3068  0.4230  1.2379
22168SOL     OW71188   6.161  10.770   7.844 -0.3667  0.2433 -0.4164
22168SOL    HW171189   6.092  10.723   7.890  1.0021 -0.4890  0.9875
22168SOL    HW271190   6.150  10.744   7.752 -2.4625  0.8563 -0.3894
22169SOL     OW71191   6.579  10.630   9.508 -0.3573  0.0523  0.5237
22169SOL    HW171192   6.640  10.659   9.440 -1.0808 -0.9987 -0.6083
22169SOL    HW271193   6.628  10.639   9.590  1.8734 -2.0598 -0.4562
22170SOL     OW71194   9.876   5.260   6.657  0.0845  0.0342  0.0900
22170SOL    HW171195   9.809   5.245   6.724  0.7210 -0.7472  0.5761
22170SOL    HW271196   9.891   5.174   6.618 -1.6540  0.8003 -2.4399
22171SOL     OW71197   7.577   8.072   3.718  0.5928 -1.2060 -0.1599
22171SOL    HW171198   7.529   8.103   3.641  1.8706  1.1431 -0.0995
22171SOL    HW271199   7.528   8.106   3.792  1.8254  0.5719 -0.0875
22172SOL     OW71200   3.752   9.722   2.797  0.3641  0.2206  0.1983
22172SOL    HW171201   3.820   9.767   2.847 -0.1959  0.1463  1.0409
22172SOL    HW271202   3.737   9.779   2.721  0.7134  0.7038  0.4850
22173SOL     OW71203  11.887   2.887   3.539 -0.3710  0.2375 -0.1249
22173SOL    HW171204  11.795   2.896   3.561  0.0158  0.3863  1.5491
22173SOL    HW271205  11.920   2.820   3.599  0.4820 -0.2754 -1.1237
22174SOL     OW71206   1.554   2.051   4.570  0.4335  0.0641  0.1408
22174SOL    HW171207   1.516   2.101   4.498  1.8360 -1.8853 -2.0919
22174SOL    HW271208   1.629   2.102   4.598  0.3063  0.4996 -0.3001
22175SOL     OW71209   3.458   9.270  10.891 -0.7268  0.1729  0.3617
22175SOL    HW171210   3.482   9.257  10.982 -2.4207  1.8426  1.1295
22175SOL    HW271211   3.363   9.281  10.892 -0.7176  0.9396 -1.5057
22176SOL     OW71212   4.064   5.134   7.126  0.4868  0.0031 -0.2451
22176SOL    HW171213   4.125   5.061   7.119  0.4722 -0.0519  0.1679
22176SOL    HW271214   4.073   5.164   7.216  1.3990  1.3218 -0.7564
22177SOL     OW71215   1.515  11.128  11.070 -0.4226  0.0731 -0.1600
22177SOL    HW171216   1.606  11.123  11.101 -0.1298  0.1443 -0.9679
22177SOL    HW271217   1.485  11.037  11.070 -0.9476  0.2085  1.7593
22178SOL     OW71218  11.262   1.367   2.093 -0.3925  0.1365  0.3543
22178SOL    HW171219  11.190   1.423   2.122  0.5395  0.3525  2.4560
22178SOL    HW271220  11.248   1.284   2.138  0.1176 -0.1776 -0.0500
22179SOL     OW71221   9.038   9.675  11.032 -0.0039  0.1566  0.2867
22179SOL    HW171222   9.097   9.642  10.965  0.8523  1.7193  0.2243
22179SOL    HW271223   8.968   9.717  10.983 -1.0012 -1.3268  0.3688
22180SOL     OW71224   9.487  10.767   6.122 -0.2032  0.1116  0.1344
22180SOL    HW171225   9.410  10.751   6.176 -1.6688  0.4278 -1.7404
22180SOL    HW271226   9.452  10.774   6.033  1.6525  2.8205 -0.4877
22181SOL     OW71227   5.012   7.490  10.533  0.2853 -0.4012 -0.0507
22181SOL    HW171228   5.025   7.497  10.628 -0.0390 -1.9873  0.1390
22181SOL    HW271229   5.086   7.438  10.502  0.5941  0.4289 -0.7410
22182SOL     OW71230   0.511   3.350   3.795  0.0561  0.0802  0.1498
22182SOL    HW171231   0.435   3.323   3.847  1.0478  0.7137  2.0278
22182SOL    HW271232   0.491   3.320   3.706 -2.7855  0.9905  0.3600
22183SOL     OW71233   7.960   5.303   3.467 -0.3120 -0.1678  0.0654
22183SOL    HW171234   7.968   5.304   3.563  2.1137  2.3057 -0.0382
22183SOL    HW271235   7.881   5.355   3.449 -2.1444 -2.5808  0.6781
22184SOL     OW71236   4.970  10.571   9.304 -0.5270 -0.6914 -0.4866
22184SOL    HW171237   4.928  10.632   9.365  0.8207 -0.4008  0.1773
22184SOL    HW271238   4.961  10.486   9.346  1.6638 -0.3098  0.8861
22185SOL     OW71239  10.831  10.924   9.564 -0.1144  0.6589 -0.1246
22185SOL    HW171240  10.921  10.900   9.545 -0.5231 -0.3514 -0.8996
22185SOL    HW271241  10.825  10.925   9.659  0.8230  1.2127 -0.0577
22186SOL     OW71242   0.742   7.314   9.108 -0.2826  0.0889  0.4862
22186SOL    HW171243   0.706   7.291   9.023 -1.9391  0.2097  1.1216
22186SOL    HW271244   0.835   7.332   9.091 -0.4566 -0.4330 -1.1707
22187SOL     OW71245  11.318   2.241  10.313  0.1569 -0.1817 -0.5801
22187SOL    HW171246  11.258   2.199  10.375  0.1706  1.9474  0.9794
22187SOL    HW271247  11.401   2.195  10.325  0.1445  0.1720  1.0022
22188SOL     OW71248   0.384   2.380   9.032  0.1564  0.0884 -0.0631
22188SOL    HW171249   0.300   2.386   9.077  0.3543  1.4379  0.1670
22188SOL    HW271250   0.408   2.288   9.039  0.0564  0.1707  2.3849
22189SOL     OW71251   2.613   1.498   5.509  0.5778  0.4473  0.2424
22189SOL    HW171252   2.531   1.535   5.542  0.1513 -0.7551  0.5726
22189SOL    HW271253   2.678   1.567   5.524 -0.6770  2.2262 -1.8074
22190SOL     OW71254  10.039   0.297  10.741  0.0216 -0.4385  0.4367
22190SOL    HW171255  10.119   0.299  10.688 -0.6958 -1.3793 -0.7231
22190SOL    HW271256  10.067   0.328  10.827  1.1157  1.8194 -0.6184
22191SOL     OW71257  11.111   4.591   2.845 -0.2515  0.0271  0.1457
22191SOL    HW171258  11.096   4.556   2.757  0.3190 -1.3165  0.5589
22191SOL    HW271259  11.194   4.639   2.837 -0.5515  0.5068 -0.1968
22192SOL     OW71260   4.929  11.576   4.195 -0.2292 -0.2330 -0.0675
22192SOL    HW171261   4.986  11.620   4.131  0.5856 -0.1650  0.6814
22192SOL    HW271262   4.907  11.643   4.259  0.6291 -0.7512  0.8175
22193SOL     OW71263   0.097   3.896   8.370  0.6877 -0.6376  0.1014
22193SOL    HW171264   0.084   3.839   8.446  1.3981  0.1782  0.8706
22193SOL    HW271265   0.182   3.870   8.335  1.6399  0.7497  1.2397
22194SOL     OW71266   6.246   5.481   4.684 -0.2367  0.1444  0.0220
22194SOL    HW171267   6.302   5.418   4.638 -1.1052 -0.3577 -0.3663
22194SOL    HW271268   6.157   5.459   4.656 -0.5090  2.1775 -0.9136
22195SOL     OW71269   7.202   3.144   1.850  0.2618  0.5387 -0.0237
22195SOL    HW171270   7.285   3.146   1.897  2.5778 -1.6772 -3.5518
22195SOL    HW271271   7.198   3.228   1.804  2.1550 -0.4098 -2.0870
22196SOL     OW71272   1.485   6.730   1.377 -0.4773 -0.5658  0.0141
22196SOL    HW171273   1.503   6.820   1.352 -1.9615 -0.4597 -0.7584
22196SOL    HW271274   1.458   6.736   1.469 -1.5117 -0.0847 -0.3112
22197SOL     OW71275   8.916   1.007   2.557  0.5466  0.2336  0.4449
22197SOL    HW171276   8.959   0.925   2.583  0.5150  0.0947  0.0642
22197SOL    HW271277   8.967   1.076   2.601  0.3194 -0.0102  1.1024
22198SOL     OW71278   2.035   4.018   1.648 -0.3944  0.4662 -0.5740
22198SOL    HW171279   2.086   3.983   1.576 -1.5246  0.0690 -1.2085
22198SOL    HW271280   1.946   3.987   1.632 -0.8622  1.2064  0.4428
22199SOL     OW71281   7.350  10.425   2.628 -0.1794 -0.4971  0.0517
22199SOL    HW171282   7.340  10.331   2.645 -0.1751 -0.5241 -0.0961
22199SOL    HW271283   7.267  10.463   2.657  0.3059 -0.3736  1.3426
22200SOL     OW71284   9.436   5.398   3.054  0.5940 -0.2098 -0.3699
22200SOL    HW171285   9.432   5.401   3.150  1.1168 -0.4105 -0.3347
22200SOL    HW271286   9.361   5.344   3.028  0.5712 -0.3281 -0.0585
22201SOL     OW71287   6.300   9.851   1.743 -0.0069  0.1792  0.1107
22201SOL    HW171288   6.276   9.930   1.792 -1.0030 -0.9326  1.5061
22201SOL    HW271289   6.385   9.826   1.778  0.1639  0.4519 -0.1067
22202SOL     OW71290   3.417   5.415   5.065 -0.1221  0.7396  0.3415
22202SOL    HW171291   3.348   5.390   5.004 -0.2340  0.6662  0.4974
22202SOL    HW271292   3.370   5.445   5.143  0.0282 -0.3847  0.8832
22203SOL     OW71293   0.261  10.114   7.968 -0.4735  0.5808 -0.2153
22203SOL    HW171294   0.298  10.146   8.050 -1.5557 -0.5017  0.7334
22203SOL    HW271295   0.223  10.029   7.990 -0.4482  0.0873 -1.9334
22204SOL     OW71296   8.463   8.045   9.007  0.5126  0.5689  0.0234
22204SOL    HW171297   8.379   8.021   8.969 -0.0854  1.0301  1.0321
22204SOL    HW271298   8.441   8.096   9.085  1.7298  1.7001 -0.3356
22205SOL     OW71299   2.946   6.528   7.204  0.0507 -0.1323 -0.2487
22205SOL    HW171300   2.927   6.618   7.175 -0.9017 -0.8779 -2.1557
22205SOL    HW271301   2.874   6.506   7.263  0.2901  0.3440  0.2292
22206SOL     OW71302   5.954   9.798   0.164  0.0396  0.1393  0.0897
22206SOL    HW171303   5.912   9.845   0.091 -1.4351 -1.6783 -0.3190
22206SOL    HW271304   5.909   9.831   0.242  0.0811  0.4910 -0.0323
22207SOL     OW71305   1.696   0.936   4.739  0.1111  0.4660 -0.3416
22207SOL    HW171306   1.785   0.951   4.707  0.4995  0.4093  0.6897
22207SOL    HW271307   1.686   0.841   4.741 -0.0514  0.4728 -0.6319
22208SOL     OW71308   4.702  10.161   9.851 -0.2365  0.1406  0.1696
22208SOL    HW171309   4.682  10.067   9.840 -0.7025  0.3469 -0.9308
22208SOL    HW271310   4.732  10.169   9.941  3.2287 -1.6792 -0.6531
22209SOL     OW71311   7.962   1.518   3.268  0.7217 -0.5060 -0.3778
22209SOL    HW171312   7.992   1.456   3.334 -1.3006 -0.7666  0.3562
22209SOL    HW271313   7.918   1.463   3.202  2.7853 -0.2711 -2.0723
22210SOL     OW71314  11.545  10.093   9.151  0.2047 -0.5993  0.8998
22210SOL    HW171315  11.542  10.100   9.055 -0.0920 -0.6011  0.9089
22210SOL    HW271316  11.624  10.141   9.176 -0.3608  0.4291  0.7483
22211SOL     OW71317  11.984   4.944   5.684 -0.1051  0.4655 -0.2568
22211SOL    HW171318  11.969   4.982   5.598 -0.1940 -0.9981 -0.9193
22211SOL    HW271319  12.044   4.871   5.669  0.0212  0.2954  0.9390
22212SOL     OW71320  11.341   1.892   0.837 -0.3806  0.9230 -0.0318
22212SOL    HW171321  11.422   1.918   0.794 -1.0670  0.8590 -1.4327
22212SOL    HW271322  11.273   1.947   0.796 -1.1270  0.5608  0.6822
22213SOL     OW71323   1.658   4.577  11.702 -0.1280  0.1573  0.4686
22213SOL    HW171324   1.687   4.549  11.615 -2.5476 -1.4503  0.0814
22213SOL    HW271325   1.688   4.507  11.761 -0.0482  0.3402  0.6481
22214SOL     OW71326   3.156   5.112   5.168  0.1212  0.2151 -0.3283
22214SOL    HW171327   3.215   5.039   5.151 -0.4841 -0.4788  0.4626
22214SOL    HW271328   3.075   5.087   5.125  0.1278  0.7565 -0.6581
22215SOL     OW71329   5.747   9.461   8.474  0.0783 -0.3598 -0.3710
22215SOL    HW171330   5.831   9.467   8.428  0.6348  0.2460  0.6784
22215SOL    HW271331   5.745   9.539   8.529 -0.4738 -1.1427  0.7550
22216SOL     OW71332   7.803   1.557   8.212  0.5800 -0.3234 -0.6081
22216SOL    HW171333   7.759   1.484   8.169  0.0900  0.0232 -0.7168
22216SOL    HW271334   7.738   1.590   8.275  0.5954  0.3353 -0.9273
22217SOL     OW71335   6.117   5.362   8.929 -0.0042  0.0062  0.3521
22217SOL    HW171336   6.183   5.383   8.995  0.8133 -1.3603  0.0107
22217SOL    HW271337   6.050   5.313   8.977  0.6668 -1.1271  0.1820
22218SOL     OW71338   2.299   2.844   2.288  0.9245 -0.1943 -0.3115
22218SOL    HW171339   2.204   2.846   2.282  0.8714 -0.5254  0.3210
22218SOL    HW271340   2.321   2.912   2.351  1.1704  0.4399 -1.0665
22219SOL     OW71341   6.374   7.161   9.022  0.0252  0.2461 -0.1928
22219SOL    HW171342   6.459   7.116   9.022 -1.0331 -2.1295  2.7865
22219SOL    HW271343   6.369   7.203   9.108 -1.2842  1.5137 -0.8447
22220SOL     OW71344   9.881   6.940   3.876 -0.2761 -0.2302 -0.1109
22220SOL    HW171345   9.810   6.912   3.934 -0.2910  1.1739  0.5884
22220SOL    HW271346   9.851   6.915   3.788 -1.1330 -0.6519  0.2849
22221SOL     OW71347  10.562   0.776   3.707  0.0869  0.2066  0.1480
22221SOL    HW171348  10.601   0.862   3.688  0.1798  0.1583  0.1175
22221SOL    HW271349  10.557   0.773   3.803  0.0569  0.2577  0.1481
22222SOL     OW71350   2.776   0.510   7.713  0.8661 -0.0978  0.0559
22222SOL    HW171351   2.824   0.468   7.641  1.6022 -1.0803  1.0734
22222SOL    HW271352   2.693   0.464   7.717  1.0631 -0.4456  0.2004
22223SOL     OW71353  11.107   6.688   2.000  0.1751  0.1038 -0.2723
22223SOL    HW171354  11.057   6.622   1.952  2.4933 -0.5643 -1.8741
22223SOL    HW271355  11.157   6.638   2.065  0.0528  0.5934  0.2146
22224SOL     OW71356   8.778   3.939   5.532  0.1464  0.2895  0.9430
22224SOL    HW171357   8.781   4.027   5.495  1.3037 -0.0198  0.2537
22224SOL    HW271358   8.869   3.911   5.535 -0.0429 -0.2743  2.6701
22225SOL     OW71359   5.480   3.515   0.736 -0.2940  0.0647  0.1120
22225SOL    HW171360   5.510   3.552   0.652 -1.0066 -1.1574 -0.7133
22225SOL    HW271361   5.518   3.427   0.737 -0.6087 -0.0626  0.9015
22226SOL     OW71362   0.094   1.627   2.560  0.3361 -0.6234  0.7405
22226SOL    HW171363   0.143   1.611   2.641  0.3967  1.7545  1.2653
22226SOL    HW271364   0.060   1.716   2.570 -0.4784 -0.6196 -1.4540
22227SOL     OW71365   5.376  10.909   3.602  0.0977 -0.0372 -0.7638
22227SOL    HW171366   5.348  10.874   3.686 -0.6086  0.5091 -0.7620
22227SOL    HW271367   5.462  10.870   3.587  0.6492  0.5700  0.6488
22228SOL     OW71368   5.272   5.428   6.642 -0.2276 -0.0046 -0.0655
22228SOL    HW171369   5.300   5.390   6.725  0.9440 -0.3939 -0.6107
22228SOL    HW271370   5.304   5.366   6.576 -0.1097  0.8877 -0.8646
22229SOL     OW71371   9.826   6.808   2.669  0.0839 -0.1254 -0.5233
22229SOL    HW171372   9.903   6.767   2.709  0.9507 -0.0893 -2.1003
22229SOL    HW271373   9.859   6.889   2.630 -0.5780 -0.4725 -1.8688
22230SOL     OW71374  10.229  11.322   4.534  0.3308 -0.3987  0.0223
22230SOL    HW171375  10.149  11.290   4.575 -0.5300  1.1159 -0.3717
22230SOL    HW271376  10.270  11.245   4.496 -1.5472 -1.0769 -0.7622
22231SOL     OW71377  10.955   8.754  11.812 -0.0908 -0.2670  0.1851
22231SOL    HW171378  11.013   8.738  11.887  0.7947 -2.1065 -0.8258
22231SOL    HW271379  11.007   8.809  11.754 -0.1052 -0.3300  0.1149
22232SOL     OW71380   5.681   1.715   6.205  0.4006  0.1470  0.0959
22232SOL    HW171381   5.742   1.641   6.199  0.6972  0.4107 -0.1492
22232SOL    HW271382   5.666   1.741   6.114  1.2252  1.1469  0.2300
22233SOL     OW71383   9.705   9.558  11.497  0.0607  0.3727  0.1877
22233SOL    HW171384   9.766   9.594  11.433  0.9639  0.0283  0.8357
22233SOL    HW271385   9.751   9.483  11.534 -0.7506  0.1251  0.7117
22234SOL     OW71386   2.137   4.370  10.251  0.1009 -0.1068 -0.4180
22234SOL    HW171387   2.048   4.400  10.233  0.1109 -0.0818 -0.4261
22234SOL    HW271388   2.162   4.416  10.331  0.1706  0.0187 -0.5119
22235SOL     OW71389  10.434  10.643   9.201 -0.2934  1.0054 -0.2193
22235SOL    HW171390  10.479  10.572   9.155  0.3835  0.7739  0.7559
22235SOL    HW271391  10.455  10.629   9.293 -0.5350  2.2040  0.0403
22236SOL     OW71392   0.983   0.560   6.228  0.0647  0.2512 -0.1531
22236SOL    HW171393   0.994   0.614   6.306 -1.5285  0.5880 -0.1444
22236SOL    HW271394   0.904   0.593   6.186  0.3361 -0.5811 -1.3874
22237SOL     OW71395  11.627   5.652  10.156  0.5039 -0.1447  0.1742
22237SOL    HW171396  11.723   5.653  10.151  0.4340 -0.1969 -2.0241
22237SOL    HW271397  11.600   5.593  10.087 -1.1432 -0.1626  0.7964
22238SOL     OW71398   3.525   5.783  11.504 -0.1194 -0.3207 -0.3025
22238SOL    HW171399   3.593   5.767  11.569  0.6084 -0.0882 -0.9851
22238SOL    HW271400   3.444   5.752  11.544  0.2609  0.1170  0.8317
22239SOL     OW71401   5.275  11.338   4.678  0.0299  0.0224  0.1522
22239SOL    HW171402   5.331  11.389   4.736 -0.2397  1.6229 -0.9283
22239SOL    HW271403   5.298  11.247   4.697  0.6105  0.5226  2.0647
22240SOL     OW71404   9.069  10.841   4.237  0.3840  0.4657 -0.5226
22240SOL    HW171405   9.112  10.899   4.299 -1.2733 -1.0516  2.2649
22240SOL    HW271406   8.997  10.893   4.200 -0.9739  0.3517  1.7976
22241SOL     OW71407   2.211  11.445   8.843 -0.0994  0.1390 -0.1180
22241SOL    HW171408   2.252  11.482   8.765 -2.3061  1.1945 -0.8565
22241SOL    HW271409   2.177  11.521   8.891 -0.7190 -0.6294  0.7033
22242SOL     OW71410   3.943   2.414   0.456 -0.0827 -0.2577 -0.2183
22242SOL    HW171411   3.927   2.467   0.535 -1.4759  2.1247 -1.9625
22242SOL    HW271412   3.962   2.479   0.388  0.1729 -2.1800 -2.0512
22243SOL     OW71413   9.625   4.842   0.795 -0.0204 -0.0627  0.0065
22243SOL    HW171414   9.554   4.858   0.857  0.5384  0.7501  0.4679
22243SOL    HW271415   9.635   4.925   0.748  0.5700 -0.1879 -0.1000
22244SOL     OW71416   2.734   8.984   8.119  0.4043 -0.4221  0.3552
22244SOL    HW171417   2.695   8.899   8.141 -2.5948  0.9375  0.6595
22244SOL    HW271418   2.714   8.997   8.026  0.4162  0.1787  0.4321
22245SOL     OW71419   6.983   9.785  10.876  0.1712 -0.4035  0.4083
22245SOL    HW171420   7.045   9.713  10.893  0.3106 -0.0861  1.3428
22245SOL    HW271421   6.994   9.843  10.952 -0.8709 -0.0565  0.2988
22246SOL     OW71422  10.673   4.515   8.952  0.3007  0.0014 -0.1359
22246SOL    HW171423  10.686   4.583   8.886 -1.1861 -0.2470 -0.7278
22246SOL    HW271424  10.760   4.476   8.964  1.3453  2.4235  0.7395
22247SOL     OW71425   4.785   2.063   3.326  0.2749 -0.6555 -0.4774
22247SOL    HW171426   4.709   2.063   3.268  0.6900 -1.9439 -1.0708
22247SOL    HW271427   4.825   2.149   3.315  0.0418 -0.6870 -1.7143
22248SOL     OW71428   1.819   1.020   5.239  0.2432  0.7866 -0.1133
22248SOL    HW171429   1.827   0.999   5.146 -1.2179 -0.4462 -0.0017
22248SOL    HW271430   1.908   1.041   5.267  1.3778 -2.2766 -1.0071
22249SOL     OW71431   8.671   9.117   1.064  0.1360 -0.2838  0.1526
22249SOL    HW171432   8.751   9.152   1.102 -0.0036  2.0965 -1.5303
22249SOL    HW271433   8.689   9.110   0.970 -0.9189 -1.8795  0.0167
22250SOL     OW71434  10.108   7.146   8.824  0.1202  0.0570 -0.5366
22250SOL    HW171435  10.105   7.124   8.731  1.7091 -1.3952 -0.2904
22250SOL    HW271436  10.167   7.221   8.829 -0.4566  0.5397 -0.7283
22251SOL     OW71437   8.797   7.467   6.982 -0.3247  0.3094 -0.7327
22251SOL    HW171438   8.808   7.377   6.952 -2.3248 -0.7804  1.4388
22251SOL    HW271439   8.865   7.478   7.050  1.8504  1.5530 -2.9407
22252SOL     OW71440   0.819   4.804   2.096 -0.1096  0.1361 -0.1681
22252SOL    HW171441   0.830   4.882   2.042 -2.0607  0.4442 -0.2003
22252SOL    HW271442   0.877   4.739   2.057 -0.4258  0.7845 -1.7781
22253SOL     OW71443   0.438   3.305  10.600  0.1308  0.4886 -0.0511
22253SOL    HW171444   0.373   3.266  10.542 -0.3146  1.9829 -0.6168
22253SOL    HW271445   0.516   3.317  10.545  0.6798 -0.6762  0.4435
22254SOL     OW71446   6.943  10.547   6.120 -0.0189  0.0368 -0.8969
22254SOL    HW171447   6.921  10.521   6.031  2.0742  0.0173 -1.4728
22254SOL    HW271448   6.897  10.483   6.175 -1.5031  0.1741 -1.9226
22255SOL     OW71449   1.513   4.932   6.368 -0.1369  0.2978 -0.2363
22255SOL    HW171450   1.429   4.886   6.377 -0.6916  1.2583 -0.3204
22255SOL    HW271451   1.552   4.926   6.455 -0.0871 -0.5330 -0.3083
22256SOL     OW71452  11.525   5.257  11.485  0.6512 -0.0016  0.2302
22256SOL    HW171453  11.534   5.163  11.500  0.3181  0.0857  1.0308
22256SOL    HW271454  11.552   5.269  11.394 -0.0655 -0.9842 -0.1319
22257SOL     OW71455  10.104  10.134   2.172 -0.0234 -0.2478 -0.4650
22257SOL    HW171456  10.134  10.190   2.100 -0.0443 -1.1495 -1.1977
22257SOL    HW271457  10.154  10.053   2.161 -1.0580 -0.9175 -0.3186
22258SOL     OW71458   1.744   9.785   6.908 -0.2400  0.0053 -0.2003
22258SOL    HW171459   1.798   9.812   6.982 -1.5768  0.4004  0.6781
22258SOL    HW271460   1.725   9.693   6.924 -2.4264  0.6214  1.2751
22259SOL     OW71461   8.441  11.039   0.199  0.4402 -1.1030  0.1277
22259SOL    HW171462   8.447  10.952   0.159  0.3655  0.3405 -3.4372
22259SOL    HW271463   8.447  11.099   0.125 -1.3495  1.9159  2.2255
22260SOL     OW71464   6.876   9.212   5.499  0.3198  0.1082  0.1101
22260SOL    HW171465   6.916   9.296   5.521  0.9268 -0.2330  0.3334
22260SOL    HW271466   6.783   9.232   5.486  0.0424  0.4588  2.2376
22261SOL     OW71467   3.279  11.690   4.517 -0.0151  0.6269 -0.2070
22261SOL    HW171468   3.360  11.727   4.552  0.2029  1.2322 -1.2945
22261SOL    HW271469   3.288  11.595   4.529  1.5541  0.5443 -1.6713
22262SOL     OW71470   4.674   3.651   6.204  0.0955  0.3560  0.2546
22262SOL    HW171471   4.635   3.567   6.180  0.5875 -0.0498  0.8347
22262SOL    HW271472   4.758   3.627   6.245  0.5148  1.1582 -0.1113
22263SOL     OW71473   8.551   6.905  10.748 -0.6676 -0.0292 -0.1134
22263SOL    HW171474   8.567   6.926  10.840 -0.4059  2.6620 -0.6922
22263SOL    HW271475   8.626   6.851  10.723 -0.8974 -1.0767  1.2750
22264SOL     OW71476   8.608   2.332  11.771 -0.0583  0.2859 -0.5120
22264SOL    HW171477   8.674   2.264  11.776 -0.9413 -0.5296  0.4828
22264SOL    HW271478   8.560   2.314  11.691 -0.7628 -0.7342  0.1196
22265SOL     OW71479   9.799   3.453   1.146 -0.1738  0.0888  0.1800
22265SOL    HW171480   9.839   3.367   1.141  1.4490  0.7606  1.0276
22265SOL    HW271481   9.723   3.448   1.087  1.0498 -1.2896 -1.3416
22266SOL     OW71482   1.947   1.417   4.083  0.2276 -0.0284  0.4809
22266SOL    HW171483   1.988   1.353   4.141  1.2780 -1.5913 -1.7965
22266SOL    HW271484   2.016   1.481   4.065  0.5819 -0.6867 -0.5866
22267SOL     OW71485   2.621   7.807   7.084 -0.7930  0.6763  0.1823
22267SOL    HW171486   2.541   7.767   7.120 -0.2662 -0.1449  0.4780
22267SOL    HW271487   2.627   7.771   6.995 -0.7395  0.7152  0.1709
22268SOL     OW71488   0.229   9.608   0.866  0.2162  0.6796 -0.8786
22268SOL    HW171489   0.141   9.570   0.869  0.7280 -0.4942 -0.3768
22268SOL    HW271490   0.285   9.538   0.832  0.9205  1.5040 -1.4620
22269SOL     OW71491   3.447   6.062   5.182  0.5404 -0.3920  0.5469
22269SOL    HW171492   3.412   6.146   5.211  0.1736 -0.3693  0.0321
22269SOL    HW271493   3.515   6.042   5.247 -0.3399 -0.3906  1.5044
22270SOL     OW71494   2.862   0.781   3.214  0.3076 -0.0011  0.5586
22270SOL    HW171495   2.926   0.737   3.159  0.5909  2.0126 -0.8391
22270SOL    HW271496   2.914   0.832   3.276  0.0756  1.0253 -0.0714
22271SOL     OW71497   2.307   0.810   1.358  0.0113  0.7458 -0.3095
22271SOL    HW171498   2.395   0.786   1.387 -0.5740  0.4311  1.3245
22271SOL    HW271499   2.250   0.782   1.430 -1.0158  4.4657  0.5303
22272SOL     OW71500  10.433   0.785   6.877  0.0688 -0.0100  0.2523
22272SOL    HW171501  10.513   0.749   6.838  0.0915 -2.1337  2.0742
22272SOL    HW271502  10.424   0.740   6.961 -2.5548  0.8352  0.5329
22273SOL     OW71503  11.985   2.522   5.230 -0.2260  0.2143  0.1214
22273SOL    HW171504  11.892   2.542   5.225 -0.6929 -1.5362  1.4111
22273SOL    HW271505  11.992   2.429   5.208  1.4513  0.7033 -1.7874
22274SOL     OW71506   0.927   1.538   2.565  0.2944 -0.0658 -0.3560
22274SOL    HW171507   1.018   1.559   2.589  1.1408 -4.2552  1.0977
22274SOL    HW271508   0.881   1.534   2.649 -1.4888  2.4657 -1.1057
22275SOL     OW71509   0.964   3.736   2.501  0.1039  0.3795 -0.1420
22275SOL    HW171510   0.926   3.666   2.553 -0.3655  1.0754  0.4823
22275SOL    HW271511   1.023   3.692   2.439  0.0810 -0.5221  0.4632
22276SOL     OW71512   8.485  11.104  11.824  0.7241  0.0688 -0.6351
22276SOL    HW171513   8.486  11.009  11.824 -0.3144  0.0103 -2.2208
22276SOL    HW271514   8.546  11.130  11.893  0.0468 -1.7339  0.6986
22277SOL     OW71515   0.321   1.204   3.604  0.3333 -0.2986 -0.0686
22277SOL    HW171516   0.395   1.144   3.604 -0.2692 -1.0848 -1.3789
22277SOL    HW271517   0.359   1.290   3.622  1.6503 -0.6015 -1.2438
22278SOL     OW71518   8.147   9.881   8.260  0.2808 -0.0215 -0.3768
22278SOL    HW171519   8.163   9.916   8.173  0.0043  0.6630 -0.1555
22278SOL    HW271520   8.234   9.859   8.293  0.9986  3.9949  0.9567
22279SOL     OW71521  11.229   1.255  10.699  0.4421  0.3111 -0.2864
22279SOL    HW171522  11.171   1.254  10.623  1.4221 -0.0741 -1.0463
22279SOL    HW271523  11.302   1.199  10.674  0.6742  0.0050  1.0345
22280SOL     OW71524   6.319   2.062   7.804  0.4876 -0.6169  0.1489
22280SOL    HW171525   6.302   2.151   7.774 -0.7976  0.5450  3.8501
22280SOL    HW271526   6.414   2.051   7.796  0.6889  1.1403 -0.1766
22281SOL     OW71527   7.167   8.627   2.639 -0.1092 -0.0996 -0.3876
22281SOL    HW171528   7.244   8.571   2.634 -0.4600 -0.7564  1.1606
22281SOL    HW271529   7.114   8.601   2.563  0.8231 -0.1669 -1.0384
22282SOL     OW71530   0.061   1.016   2.237 -0.8665 -0.4348 -0.1283
22282SOL    HW171531   0.102   1.098   2.210 -0.7578 -0.0195  1.2022
22282SOL    HW271532   0.120   0.981   2.304 -0.3749 -2.1383 -1.3947
22283SOL     OW71533  11.340   9.319   6.929 -0.7550  0.3203  0.1662
22283SOL    HW171534  11.409   9.321   6.995 -0.9053 -0.2750  0.3436
22283SOL    HW271535  11.275   9.258   6.963 -1.0734  0.3937 -0.2957
22284SOL     OW71536   9.571   0.595   8.475 -0.0137  0.7534 -0.4292
22284SOL    HW171537   9.552   0.616   8.384  0.4663 -2.1602 -1.3040
22284SOL    HW271538   9.621   0.670   8.507  0.6940  1.4071 -2.8885
22285SOL     OW71539   1.202   4.556   5.188  0.1909 -0.0157  0.2156
22285SOL    HW171540   1.213   4.648   5.211  1.5402 -0.2483  0.5918
22285SOL    HW271541   1.173   4.558   5.097 -0.2876  0.7909  0.3789
22286SOL     OW71542   2.719   5.169   4.229  0.2358  0.4785 -0.1751
22286SOL    HW171543   2.723   5.207   4.142 -3.6654  0.7799 -0.4166
22286SOL    HW271544   2.774   5.225   4.283 -1.2584  3.4787 -1.5112
22287SOL     OW71545   7.373   4.605   1.421  0.4618 -0.0712  0.4480
22287SOL    HW171546   7.380   4.517   1.384  0.3102 -0.8606  2.1803
22287SOL    HW271547   7.285   4.608   1.458  0.3599  0.9353  0.1526
22288SOL     OW71548   0.353   6.918   7.636  0.2244  0.0836  0.0071
22288SOL    HW171549   0.425   6.979   7.647  0.4482 -0.5193  2.3026
22288SOL    HW271550   0.316   6.908   7.723 -0.8857 -1.7595 -0.6152
22289SOL     OW71551   5.145  10.181   7.675  0.4305  0.3347 -0.2803
22289SOL    HW171552   5.052  10.165   7.690  0.7998 -0.0189  1.9582
22289SOL    HW271553   5.190  10.118   7.732  2.0793 -0.1144 -1.9672
22290SOL     OW71554   9.939  10.983   8.722  0.4948  0.5505  0.0761
22290SOL    HW171555  10.030  10.977   8.749  0.0059 -0.6129  1.6475
22290SOL    HW271556   9.908  11.066   8.757  0.5329  0.1923  0.9760
22291SOL     OW71557   8.215   2.639   6.845 -0.0922 -0.0305  0.0354
22291SOL    HW171558   8.134   2.601   6.810 -0.5891 -0.2983  1.4278
22291SOL    HW271559   8.215   2.729   6.812 -1.2804  0.1596  0.5171
22292SOL     OW71560  11.701   1.561  11.669 -0.3697 -0.1268  0.2391
22292SOL    HW171561  11.779   1.506  11.678  0.6902  1.2561 -0.0670
22292SOL    HW271562  11.648   1.539  11.745  0.3381 -1.0727  0.4856
22293SOL     OW71563   3.127   7.463   2.968  0.0351 -0.1070 -0.0067
22293SOL    HW171564   3.035   7.441   2.957 -0.4337  2.1245 -1.0383
22293SOL    HW271565   3.167   7.442   2.883 -0.2233  1.8858 -0.6684
22294SOL     OW71566   3.395   9.255   9.191 -0.1444  0.9077 -0.1904
22294SOL    HW171567   3.411   9.291   9.103  0.7538  1.3667  0.1494
22294SOL    HW271568   3.343   9.322   9.235 -1.3317  0.3080 -0.6279
22295SOL     OW71569  10.006   3.628   5.122 -0.1552 -0.1944  0.4057
22295SOL    HW171570   9.927   3.613   5.070  0.3551  1.4069 -0.9070
22295SOL    HW271571  10.025   3.721   5.111  1.2426 -0.2829  1.6916
22296SOL     OW71572   8.320  10.664   1.531  0.0386  0.0389 -0.1541
22296SOL    HW171573   8.377  10.642   1.605  0.2752  2.8666  0.6464
22296SOL    HW271574   8.359  10.619   1.456  0.4709 -1.9768  1.1995
22297SOL     OW71575   6.375   5.599   1.141 -0.6440 -0.3197  0.1350
22297SOL    HW171576   6.358   5.586   1.048  0.6257  0.5074 -0.2414
22297SOL    HW271577   6.421   5.520   1.169  2.6794  1.0623 -0.9725
22298SOL     OW71578  11.958   1.808  11.427  0.1710 -0.1307 -0.0517
22298SOL    HW171579  11.972   1.714  11.419  0.8007 -0.0122 -0.4031
22298SOL    HW271580  12.017   1.835  11.498  0.7658  0.1617 -0.6467
22299SOL     OW71581   6.581   0.079   9.288 -0.1365  0.5669  0.2158
22299SOL    HW171582   6.675   0.092   9.296 -0.2441  1.7646 -0.1963
22299SOL    HW271583   6.548   0.078   9.378  0.1326  1.3786  0.3308
22300SOL     OW71584   6.362  10.501   9.621  0.0586 -0.1069  0.8962
22300SOL    HW171585   6.455  10.523   9.609  0.2375 -0.3883  1.7389
22300SOL    HW271586   6.322  10.526   9.537  0.8626  0.1549  0.5686
22301SOL     OW71587  10.852   5.951   3.060 -0.0938 -0.0887  0.0714
22301SOL    HW171588  10.797   5.954   3.138 -0.1975  1.4799 -0.0440
22301SOL    HW271589  10.941   5.938   3.094 -0.2647 -0.4852  0.3781
22302SOL     OW71590   3.774  10.090   8.583 -0.1245 -0.2448 -0.2022
22302SOL    HW171591   3.703  10.155   8.578 -0.6802 -0.8346 -0.1375
22302SOL    HW271592   3.780  10.067   8.675 -1.0650 -1.4916 -0.4199
22303SOL     OW71593   1.614   4.625   7.165  0.0445 -0.3171  0.2812
22303SOL    HW171594   1.525   4.610   7.196 -0.7215 -0.3728 -1.7934
22303SOL    HW271595   1.629   4.555   7.101  0.7231  1.0022 -1.0640
22304SOL     OW71596   9.502   5.647   7.830  0.4846  0.3169  0.5243
22304SOL    HW171597   9.524   5.681   7.744 -0.1883 -0.2744  0.1052
22304SOL    HW271598   9.506   5.552   7.821 -0.9696  0.2109  0.7434
22305SOL     OW71599   9.781   5.467  11.434 -0.3707 -0.0222  0.4236
22305SOL    HW171600   9.769   5.448  11.340 -1.2457 -1.2422  0.7547
22305SOL    HW271601   9.711   5.528  11.455  0.0183  0.4972  0.2162
22306SOL     OW71602   3.156   4.495   6.729 -0.1738  0.4344  0.6503
22306SOL    HW171603   3.180   4.402   6.730  0.3673  0.5445  2.6319
22306SOL    HW271604   3.236   4.540   6.701  0.0656  0.3921  1.2488
22307SOL     OW71605   6.364   7.230   7.682 -0.4215  0.4132  0.1673
22307SOL    HW171606   6.346   7.314   7.725  0.9867  1.6275 -1.4435
22307SOL    HW271607   6.282   7.181   7.690 -1.7595  2.4807  0.0024
22308SOL     OW71608   1.305   3.437   9.246  0.3309 -0.0321  0.5846
22308SOL    HW171609   1.273   3.522   9.217 -0.4816 -1.1737 -2.1696
22308SOL    HW271610   1.400   3.448   9.254  0.1701  1.2526  0.8122
22309SOL     OW71611  10.121  10.368   3.608 -0.0803 -0.5892  0.0394
22309SOL    HW171612  10.100  10.328   3.692  0.5515  0.8735  0.9317
22309SOL    HW271613  10.186  10.435   3.629  1.8351 -1.6974 -1.9222
22310SOL     OW71614   8.466   3.722  10.301 -0.6042  0.1368 -0.2434
22310SOL    HW171615   8.523   3.652  10.333 -1.4178 -1.2061 -1.5712
22310SOL    HW271616   8.487   3.798  10.356  3.5049  0.2044 -1.5244
22311SOL     OW71617   3.687   0.253  10.105 -0.0354 -0.0466  0.0184
22311SOL    HW171618   3.705   0.346  10.094 -0.3677  0.2655  1.9311
22311SOL    HW271619   3.772   0.215  10.129 -0.3088  0.1340  1.3274
22312SOL     OW71620   5.228   4.479   6.472  0.2838  0.3079  0.2875
22312SOL    HW171621   5.277   4.435   6.541 -0.1865  1.5388  1.4525
22312SOL    HW271622   5.143   4.500   6.512 -0.8398 -0.8560 -1.3589
22313SOL     OW71623   2.644   5.028   0.034  0.0999 -0.6553  0.3384
22313SOL    HW171624   2.697   5.108   0.028  0.7189 -1.0223  0.8457
22313SOL    HW271625   2.573   5.050   0.095 -0.4338 -0.1147 -0.4580
22314SOL     OW71626   1.768   8.817   3.107 -0.6918 -0.2940 -0.0078
22314SOL    HW171627   1.836   8.764   3.064 -1.1006 -0.9075  0.0852
22314SOL    HW271628   1.816   8.878   3.162 -0.2032 -0.4602 -0.2433
22315SOL     OW71629   8.643  10.175   4.522 -0.4033  0.2042  0.1029
22315SOL    HW171630   8.697  10.252   4.539  2.0930 -1.4450  0.2477
22315SOL    HW271631   8.617  10.144   4.609  1.1130 -0.7033  0.2852
22316SOL     OW71632   7.218   0.205   0.393 -0.2692  0.2825 -0.1300
22316SOL    HW171633   7.271   0.280   0.418 -0.5890  0.4246  0.1261
22316SOL    HW271634   7.280   0.132   0.389 -0.4351 -0.1110  2.6279
22317SOL     OW71635   5.288   7.270  10.058  0.1143 -0.1222 -0.3557
22317SOL    HW171636   5.382   7.283  10.047  0.3310 -2.1117 -1.1257
22317SOL    HW271637   5.273   7.178  10.036 -2.0804  0.2548 -0.6615
22318SOL     OW71638   5.191   9.098  10.671 -0.2813 -0.0348  0.1341
22318SOL    HW171639   5.233   9.152  10.738  0.5645  0.1005 -0.4921
22318SOL    HW271640   5.261   9.043  10.637 -0.8374 -0.5380 -0.2154
22319SOL     OW71641   5.689   9.836   9.970 -0.1286  0.0627  0.3298
22319SOL    HW171642   5.648   9.918  10.000 -0.3062  0.2582 -0.4121
22319SOL    HW271643   5.616   9.774   9.964 -0.1312  0.0838  0.1199
22320SOL     OW71644   3.769   6.395  10.034  0.5390  0.2078  0.1765
22320SOL    HW171645   3.815   6.448  10.099  0.4612  2.0893 -1.2286
22320SOL    HW271646   3.699   6.352  10.083  1.4622  0.2876  1.6172
22321SOL     OW71647   1.368   2.882   8.913  0.1952 -0.2903 -0.3718
22321SOL    HW171648   1.346   2.899   9.004  1.3771 -3.4740  0.6467
22321SOL    HW271649   1.308   2.812   8.887 -1.6878  2.0398 -2.8909
22322SOL     OW71650   6.016  11.951   2.259  0.2195 -0.3695 -0.5279
22322SOL    HW171651   6.027  11.906   2.343  0.6085 -1.9632 -1.4017
22322SOL    HW271652   5.932  11.919   2.225 -1.1152  2.0445  0.2631
22323SOL     OW71653   7.694   6.441   8.311  0.1119  0.1320 -0.8696
22323SOL    HW171654   7.764   6.504   8.329  0.0137  0.7827 -2.5381
22323SOL    HW271655   7.739   6.363   8.279  0.1922 -0.4469  0.5678
22324SOL     OW71656   8.540   3.973  10.165 -0.1955  0.0853 -0.3381
22324SOL    HW171657   8.546   4.069  10.166  1.6748  0.0092 -0.2369
22324SOL    HW271658   8.446   3.955  10.159 -0.8361  1.9226  2.1131
22325SOL     OW71659   4.343  11.875   6.338  0.0954 -0.2158  0.1306
22325SOL    HW171660   4.298  11.792   6.352 -0.3581  0.0530  0.2691
22325SOL    HW271661   4.286  11.941   6.378  1.5221 -0.0769  2.1469
22326SOL     OW71662   6.486   0.776   1.314  0.6518 -0.0956 -0.0316
22326SOL    HW171663   6.450   0.727   1.388 -0.6308  1.2504  0.2887
22326SOL    HW271664   6.538   0.846   1.354 -0.2753  0.8097 -0.3510
22327SOL     OW71665  11.360  10.835   8.339  0.6605 -0.1334 -0.2102
22327SOL    HW171666  11.329  10.887   8.413  0.8500  0.3065 -0.4334
22327SOL    HW271667  11.373  10.899   8.269 -0.2679 -0.6378 -0.8692
22328SOL     OW71668   9.398   3.032   6.778  0.5411  0.7118  0.5340
22328SOL    HW171669   9.347   3.104   6.740  0.3649  0.3703  0.1163
22328SOL    HW271670   9.353   3.012   6.860 -1.5297 -1.2122 -0.9464
22329SOL     OW71671   5.205   2.755  10.857 -0.0374 -0.2605 -0.1392
22329SOL    HW171672   5.175   2.715  10.939  1.2178  0.1886  0.5632
22329SOL    HW271673   5.203   2.683  10.794 -1.0973 -0.5915  0.2560
22330SOL     OW71674   6.045  11.625   9.254 -0.0478  0.4145  0.1514
22330SOL    HW171675   6.008  11.683   9.320  0.0766  1.0974 -0.3692
22330SOL    HW271676   6.138  11.647   9.253  0.2598 -0.7790  0.9357
22331SOL     OW71677   4.151  10.744   5.283 -0.0493 -0.1606 -0.1984
22331SOL    HW171678   4.090  10.748   5.356 -1.5919  0.2971 -1.4551
22331SOL    HW271679   4.237  10.738   5.324 -0.7942  0.8840  1.6453
22332SOL     OW71680   3.779   0.383   7.379 -0.7337  0.4950 -0.8147
22332SOL    HW171681   3.789   0.327   7.456 -0.2195  1.2906 -0.2851
22332SOL    HW271682   3.700   0.351   7.335 -0.3991 -0.6861 -0.5708
22333SOL     OW71683   7.119   8.139   5.522 -0.2726  0.4706 -0.7711
22333SOL    HW171684   7.214   8.135   5.534 -0.4557  0.2068  0.7527
22333SOL    HW271685   7.083   8.080   5.588 -1.5016  0.3469 -1.5047
22334SOL     OW71686  11.818  10.382   0.373  0.3057 -0.0796  0.1993
22334SOL    HW171687  11.866  10.302   0.353 -2.0665 -1.2528 -1.3134
22334SOL    HW271688  11.884  10.452   0.368  1.9302 -1.6200 -1.2636
22335SOL     OW71689   3.125   5.379   9.178 -0.4674 -0.3368  0.2437
22335SOL    HW171690   3.220   5.375   9.187 -0.5044 -1.0105  0.3994
22335SOL    HW271691   3.109   5.447   9.113  0.1754 -1.0449 -0.6846
22336SOL     OW71692   7.698   2.260   6.771 -1.1011 -0.1701 -0.2495
22336SOL    HW171693   7.779   2.223   6.736 -0.9109 -0.6003  0.6164
22336SOL    HW271694   7.724   2.342   6.813 -1.3364  0.3697 -1.1367
22337SOL     OW71695   4.500   2.717  10.344 -0.5421  0.5815 -0.2436
22337SOL    HW171696   4.552   2.770  10.404  0.7183  0.7054 -1.4075
22337SOL    HW271697   4.411   2.749  10.355 -0.3353  0.7109  1.4215
22338SOL     OW71698   8.156   1.114   3.773  0.1168  0.1757 -0.5854
22338SOL    HW171699   8.123   1.087   3.859 -0.3461 -1.3691 -1.2105
22338SOL    HW271700   8.121   1.048   3.713  0.7555  1.0117 -1.9060
22339SOL     OW71701   3.364   6.380   3.296  0.3019 -0.2375 -0.3130
22339SOL    HW171702   3.309   6.458   3.290  0.0455 -0.1954  1.7835
22339SOL    HW271703   3.302   6.309   3.312  0.7262 -0.3397  1.0514
22340SOL     OW71704   3.256   4.653   4.279  0.2772  0.1113 -0.5168
22340SOL    HW171705   3.165   4.631   4.261 -0.0267  0.4414  0.5185
22340SOL    HW271706   3.300   4.568   4.287 -0.3298 -0.1172  0.7542
22341SOL     OW71707   3.059   9.696   9.257  0.0716  0.0128 -0.3219
22341SOL    HW171708   3.077   9.758   9.186 -1.2946  1.4276  0.4948
22341SOL    HW271709   3.084   9.743   9.336 -2.5123  0.2397  0.4569
22342SOL     OW71710   6.437   0.962   7.675  0.4376  0.3007  0.0870
22342SOL    HW171711   6.350   0.949   7.638  0.4302 -1.0618  0.5324
22342SOL    HW271712   6.434   1.051   7.711 -0.8325  0.2193  0.2535
22343SOL     OW71713   3.232   3.124   0.013 -0.6355  0.1488 -0.2420
22343SOL    HW171714   3.153   3.085   0.049 -2.3551  2.1498 -1.6140
22343SOL    HW271715   3.270   3.055  -0.042 -1.4497 -0.8020  0.3470
22344SOL     OW71716   2.536   1.143   7.138 -0.2309 -0.9198  0.5321
22344SOL    HW171717   2.515   1.207   7.069  2.0634 -0.2566  0.3608
22344SOL    HW271718   2.453   1.130   7.184 -1.4911 -0.2238 -1.3866
22345SOL     OW71719   4.383   5.983   3.173 -0.0029 -0.2250  0.1780
22345SOL    HW171720   4.417   6.072   3.168  2.0495 -0.9846 -0.3894
22345SOL    HW271721   4.338   5.970   3.089 -0.0993  0.1826  0.1642
22346SOL     OW71722   1.346   0.218   1.483 -0.2056  0.0013 -0.2018
22346SOL    HW171723   1.312   0.227   1.394 -0.2524  0.2727 -0.1577
22346SOL    HW271724   1.272   0.185   1.534 -0.3315  0.3357 -0.1608
22347SOL     OW71725   8.019   2.325   3.720  0.0314  0.1330 -0.2632
22347SOL    HW171726   7.925   2.315   3.732  0.3380 -1.2177  1.6914
22347SOL    HW271727   8.048   2.373   3.798  0.9588  0.5232 -0.8344
22348SOL     OW71728   7.384   3.068   9.510  0.2144 -0.3340  0.1696
22348SOL    HW171729   7.358   3.069   9.602 -1.5004 -0.4548 -0.2797
22348SOL    HW271730   7.479   3.086   9.511 -0.2354  2.5985  1.7793
22349SOL     OW71731   1.162  10.313   7.616  0.7226 -0.2242 -0.2502
22349SOL    HW171732   1.236  10.280   7.564 -0.0669 -0.6166 -1.1565
22349SOL    HW271733   1.190  10.400   7.645  0.6259  0.6499 -2.5834
22350SOL     OW71734   9.540   5.905  10.074  0.3142  0.2398  0.2158
22350SOL    HW171735   9.486   5.946  10.142  0.0544  1.1773 -0.5245
22350SOL    HW271736   9.477   5.882  10.006  0.8137  1.2721 -0.6199
22351SOL     OW71737   1.326   1.403   4.216  0.4377 -0.4782  0.0292
22351SOL    HW171738   1.357   1.379   4.304 -0.2546  1.2954  0.8228
22351SOL    HW271739   1.314   1.498   4.221  1.0087 -0.2400 -2.2120
22352SOL     OW71740  10.545   3.452   7.888 -0.6552  0.1775 -0.4162
22352SOL    HW171741  10.524   3.527   7.832 -0.4336  1.1146  0.7156
22352SOL    HW271742  10.556   3.379   7.827  0.5260  1.3547 -1.6941
22353SOL     OW71743  11.486   5.057   5.090  0.3862 -0.6177 -0.1408
22353SOL    HW171744  11.517   5.085   5.175 -0.1391 -0.5673  0.0351
22353SOL    HW271745  11.391   5.067   5.093  0.2279 -1.8485 -0.2661
22354SOL     OW71746   5.401  10.280   8.074 -0.1291  0.2239 -0.2739
22354SOL    HW171747   5.381  10.268   7.981 -0.3352 -1.8981  0.0065
22354SOL    HW271748   5.496  10.283   8.079 -0.1277  1.4169 -0.6364
22355SOL     OW71749   8.175  11.589   6.529 -0.3064 -0.4265 -0.0798
22355SOL    HW171750   8.234  11.642   6.476 -1.6408  0.2010 -1.0014
22355SOL    HW271751   8.155  11.644   6.605 -1.7220  0.4820 -1.0550
22356SOL     OW71752   3.262   3.564   3.940 -0.4699  0.0471 -0.0637
22356SOL    HW171753   3.255   3.596   4.030 -0.3384 -0.3890  0.1023
22356SOL    HW271754   3.221   3.633   3.887  1.0224  1.1393  0.1508
22357SOL     OW71755   0.980   7.200   8.989  0.0272 -0.0453 -0.2614
22357SOL    HW171756   0.998   7.199   8.895 -1.9118 -0.6878 -0.6723
22357SOL    HW271757   0.946   7.113   9.008  1.1019 -0.1804  1.2155
22358SOL     OW71758   9.716   4.320   4.091  0.2256  0.1175  0.3193
22358SOL    HW171759   9.763   4.261   4.151 -0.1996 -1.0379 -0.4491
22358SOL    HW271760   9.707   4.270   4.010 -2.2805  0.2766  0.4047
22359SOL     OW71761  11.044   8.400   6.765 -0.1897 -0.0529 -0.2053
22359SOL    HW171762  10.961   8.353   6.757 -0.1993 -0.0782  0.0176
22359SOL    HW271763  11.055   8.445   6.682 -0.3272 -0.2137 -0.3103
22360SOL     OW71764   7.679   6.478   8.846 -0.7929  0.0455 -0.4073
22360SOL    HW171765   7.732   6.435   8.779  0.6079  1.6772 -0.4023
22360SOL    HW271766   7.589   6.471   8.813 -0.1624  0.6783 -2.4384
22361SOL     OW71767  10.186   8.747   4.168  0.0808 -0.3246  0.1470
22361SOL    HW171768  10.242   8.812   4.125 -1.1575 -0.0808 -1.1740
22361SOL    HW271769  10.099   8.762   4.131 -0.6959 -1.2769  1.4808
22362SOL     OW71770   3.241   8.775   6.066 -0.4583  0.0341  0.5317
22362SOL    HW171771   3.218   8.686   6.041  0.6348 -0.4058  1.0047
22362SOL    HW271772   3.335   8.781   6.050 -0.6323  1.3373 -0.1543
22363SOL     OW71773   8.024   0.217   0.331  0.0100  0.1714  0.2047
22363SOL    HW171774   7.968   0.160   0.384 -0.9349 -0.0763 -1.0295
22363SOL    HW271775   8.100   0.233   0.387 -1.5563  1.0795  2.2083
22364SOL     OW71776   4.913   1.065   9.249 -0.0897  0.1963  1.0371
22364SOL    HW171777   4.992   1.104   9.212 -0.3454  2.0304  2.3038
22364SOL    HW271778   4.853   1.138   9.263 -2.1500 -1.1763 -0.1052
22365SOL     OW71779   4.688   9.986  10.430 -0.3038 -0.3446  0.6304
22365SOL    HW171780   4.776   9.947  10.438  1.1686  2.3511 -1.0868
22365SOL    HW271781   4.666   9.976  10.338  0.2026  2.8119  0.0752
22366SOL     OW71782   0.188  11.277   5.149  0.2001  0.3230  0.6246
22366SOL    HW171783   0.177  11.182   5.145  2.0809  0.0842 -0.6720
22366SOL    HW271784   0.141  11.309   5.072 -1.0767  0.5520  1.4772
22367SOL     OW71785   0.524  11.790   8.311  0.3807 -0.5584 -0.6919
22367SOL    HW171786   0.490  11.862   8.364  0.0320 -1.5986  0.5664
22367SOL    HW271787   0.571  11.735   8.374  0.7034 -1.3806 -1.6302
22368SOL     OW71788  10.371   1.543  11.479 -0.1194  1.0753  0.6043
22368SOL    HW171789  10.409   1.620  11.521 -0.5494  1.5767  0.0855
22368SOL    HW271790  10.422   1.532  11.398  1.6443 -0.7117  1.8546
22369SOL     OW71791   1.688   4.442   0.640 -0.4362  0.1840  0.1385
22369SOL    HW171792   1.688   4.531   0.678 -2.2508 -0.1807  1.1259
22369SOL    HW271793   1.662   4.386   0.713  1.3068 -1.2778 -0.3116
22370SOL     OW71794   9.058   4.824   1.773 -0.1170  0.4016  0.0840
22370SOL    HW171795   9.088   4.733   1.777 -1.4313 -0.1372 -1.1881
22370SOL    HW271796   8.988   4.829   1.838  1.6509  1.2744  2.0413
22371SOL     OW71797   8.049   2.711   8.042  0.2989  0.2446 -0.6098
22371SOL    HW171798   8.109   2.653   7.996  0.8950  0.2179  0.1856
22371SOL    HW271799   8.092   2.797   8.040  0.8271  0.0426  0.7491
22372SOL     OW71800  11.967   5.343   6.703 -0.2464 -0.3175 -0.1429
22372SOL    HW171801  11.905   5.374   6.769 -2.0670 -0.6117 -1.6616
22372SOL    HW271802  12.043   5.402   6.713 -1.4241  1.1436  0.6347
22373SOL     OW71803   8.215   5.891   0.922 -0.2239  0.1069 -0.3538
22373SOL    HW171804   8.138   5.868   0.973 -0.5317  0.4529 -0.6604
22373SOL    HW271805   8.181   5.922   0.838  0.2187  0.8596 -0.2629
22374SOL     OW71806   5.443  11.969   2.378 -0.1582  0.5014 -0.0844
22374SOL    HW171807   5.430  11.887   2.426 -1.0101 -0.4479 -1.8585
22374SOL    HW271808   5.486  12.026   2.441  0.6372 -1.3565  1.1601
22375SOL     OW71809  10.626   7.899   7.598  0.2203  0.0196  0.1731
22375SOL    HW171810  10.673   7.868   7.520 -0.1816  0.6025 -0.3100
22375SOL    HW271811  10.671   7.980   7.623 -1.5035  1.5368 -1.3087
22376SOL     OW71812  10.447   3.251  11.507 -0.0371  0.2340 -0.1174
22376SOL    HW171813  10.514   3.183  11.522  0.3480  0.9146  1.5048
22376SOL    HW271814  10.384   3.210  11.447  0.6749 -1.2201  0.0833
22377SOL     OW71815   4.195   5.707  10.860  0.1360 -0.2211 -0.3457
22377SOL    HW171816   4.108   5.725  10.825  1.2239  1.2426 -2.5004
22377SOL    HW271817   4.180   5.643  10.930 -2.5035 -1.0164 -1.5162
22378SOL     OW71818   3.147  10.727  10.925  0.7882 -0.0000  0.0860
22378SOL    HW171819   3.236  10.752  10.952  0.5256  1.9218 -0.6824
22378SOL    HW271820   3.098  10.720  11.006  0.8185  2.4095  0.3882
22379SOL     OW71821   4.138   3.363   5.155 -0.2358  0.2394  0.0847
22379SOL    HW171822   4.183   3.378   5.071  0.5158  1.1812  0.6379
22379SOL    HW271823   4.199   3.397   5.221 -0.2771 -1.5519  1.1244
22380SOL     OW71824   1.851   1.775   3.000 -0.5039  0.4503  0.1433
22380SOL    HW171825   1.789   1.848   3.005 -1.4958 -0.4341  1.1652
22380SOL    HW271826   1.924   1.809   2.947 -1.1275  2.0358  0.2552
22381SOL     OW71827   0.294  10.021  11.136  0.0359 -0.6373  0.0630
22381SOL    HW171828   0.383   9.995  11.112 -0.1430 -2.1670  0.8980
22381SOL    HW271829   0.240   9.996  11.061  0.2471 -0.0603 -0.2871
22382SOL     OW71830   6.185  11.503   7.780  0.0721  0.4752 -0.3141
22382SOL    HW171831   6.194  11.592   7.747  0.4436  0.3946 -0.4411
22382SOL    HW271832   6.269  11.484   7.822 -0.3054  0.4802  0.4589
22383SOL     OW71833  10.996   4.218   9.901  0.2763  0.0165  0.1762
22383SOL    HW171834  10.980   4.124   9.901  1.1868 -0.1477  0.8775
22383SOL    HW271835  10.946   4.251   9.976  1.2468 -0.1534  0.9149
22384SOL     OW71836   1.683   2.359  11.452 -0.3312  0.5018 -0.4332
22384SOL    HW171837   1.681   2.322  11.540  3.3122  0.3484 -0.2970
22384SOL    HW271838   1.691   2.453  11.465  2.5552  0.3355 -0.4227
22385SOL     OW71839   5.683   3.524   1.627 -0.5368  0.4729 -0.0059
22385SOL    HW171840   5.694   3.574   1.708 -0.4865 -0.0622  0.3218
22385SOL    HW271841   5.772   3.509   1.595 -0.5736  1.0921 -0.4201
22386SOL     OW71842   2.559   8.302   1.144  0.3292  0.0097  0.6790
22386SOL    HW171843   2.472   8.271   1.167 -0.1373  1.8886  1.6578
22386SOL    HW271844   2.602   8.226   1.104 -1.5125 -1.1379  0.7674
22387SOL     OW71845   3.996   1.566  10.568 -0.5482 -0.0878 -0.0251
22387SOL    HW171846   3.920   1.516  10.537 -0.4547  0.4519 -1.1684
22387SOL    HW271847   4.070   1.533  10.517 -0.5182  1.3079 -0.9578
22388SOL     OW71848   7.833   6.056   4.052 -0.4317 -0.2800 -0.0858
22388SOL    HW171849   7.875   6.127   4.003 -0.5416  0.5707  1.0253
22388SOL    HW271850   7.906   6.007   4.091 -0.4068  0.1665  0.4325
22389SOL     OW71851   1.082  11.281   3.208 -0.2098 -0.3654  0.8209
22389SOL    HW171852   1.005  11.225   3.200 -0.4663 -0.0788  1.2977
22389SOL    HW271853   1.069  11.350   3.142  1.0144 -1.8944 -1.1440
22390SOL     OW71854   8.788   2.915   5.143 -0.8020 -0.0124 -0.1472
22390SOL    HW171855   8.746   2.991   5.104 -0.7236 -0.7877 -1.8783
22390SOL    HW271856   8.833   2.873   5.069  0.2013 -1.0350  1.0053
22391SOL     OW71857  11.506  10.627   1.320  0.7157 -0.3358 -0.4565
22391SOL    HW171858  11.470  10.582   1.244  0.2416  1.2888 -1.2443
22391SOL    HW271859  11.600  10.611   1.316  0.4575 -2.1911 -0.0351
22392SOL     OW71860  10.149   5.700   0.303 -0.2943  0.1699  0.2687
22392SOL    HW171861  10.105   5.632   0.251  0.2918 -0.0859  0.1013
22392SOL    HW271862  10.151   5.664   0.392 -0.9893  0.4595  0.4103
22393SOL     OW71863   1.471   5.336   0.712 -0.1305  0.0829  0.1202
22393SOL    HW171864   1.482   5.376   0.798 -1.2689  1.2320 -0.2377
22393SOL    HW271865   1.377   5.332   0.699  0.0038 -1.1886 -0.5791
22394SOL     OW71866   5.569   3.423  10.106 -0.0182 -0.2797 -0.6089
22394SOL    HW171867   5.637   3.364  10.138 -0.4866 -0.9056 -0.7435
22394SOL    HW271868   5.571   3.413  10.011 -1.4284 -1.6233 -0.5417
22395SOL     OW71869   2.140   4.624  10.050  0.0407  0.8105  0.1161
22395SOL    HW171870   2.104   4.546  10.092  0.0910  0.3280 -0.7190
22395SOL    HW271871   2.227   4.634  10.089 -0.1821  0.7878  0.6333
22396SOL     OW71872   8.526   9.692  11.113  0.0867 -0.0366  0.4973
22396SOL    HW171873   8.584   9.617  11.105  0.4036  0.2004  0.5448
22396SOL    HW271874   8.581   9.767  11.088 -0.1016  0.2260  0.8688
22397SOL     OW71875  11.052   7.954   2.650  0.2528  0.2302 -0.1300
22397SOL    HW171876  11.098   8.025   2.695 -1.1397  1.4623 -0.5531
22397SOL    HW271877  11.002   7.910   2.718  0.0204  0.5510 -0.0953
22398SOL     OW71878   2.370   9.879   1.146 -0.4814  0.0178  0.0195
22398SOL    HW171879   2.337   9.789   1.154 -2.4832  0.8457  2.4663
22398SOL    HW271880   2.315   9.930   1.205  0.1521  3.0297 -1.7854
22399SOL     OW71881   6.989   3.259   9.183  0.1917  1.0124  0.6913
22399SOL    HW171882   7.002   3.220   9.097  0.8051  1.0281  0.7733
22399SOL    HW271883   6.894   3.268   9.191  0.1070  0.5801  0.2123
22400SOL     OW71884   2.708   7.966   5.380 -0.8852  0.3703  0.3563
22400SOL    HW171885   2.777   8.030   5.364 -0.9183  0.3518  0.1394
22400SOL    HW271886   2.680   7.939   5.293 -0.4394 -0.3983  0.4382
22401SOL     OW71887  10.443   5.266  11.531  0.5290  0.4752  0.3851
22401SOL    HW171888  10.484   5.228  11.609 -0.8166 -1.1744  0.3427
22401SOL    HW271889  10.498   5.236  11.459  0.5268  0.1373  0.5198
22402SOL     OW71890   7.635   0.350   0.687 -0.3964  0.2166  0.3992
22402SOL    HW171891   7.721   0.322   0.717  0.8793  0.3083 -2.7771
22402SOL    HW271892   7.620   0.434   0.731  2.1607  1.2638 -0.5559
22403SOL     OW71893  11.926   7.235   0.370 -0.2736 -0.2207 -0.6089
22403SOL    HW171894  11.969   7.198   0.293 -0.6432 -0.6817 -0.5989
22403SOL    HW271895  11.910   7.327   0.346  0.9031  0.0235 -0.5198
22404SOL     OW71896   4.488   0.258   3.098  0.1959  0.1219 -0.1573
22404SOL    HW171897   4.399   0.287   3.119  0.1997 -0.0093  0.0449
22404SOL    HW271898   4.505   0.294   3.011  0.6650  1.7762  0.5853
22405SOL     OW71899   4.866   8.723  11.436  0.2524 -0.0906 -0.2031
22405SOL    HW171900   4.884   8.793  11.499  0.0332 -0.3549  0.1522
22405SOL    HW271901   4.918   8.649  11.467  0.0341 -0.2654 -0.2511
22406SOL     OW71902   9.043   0.027   9.867 -0.0897  0.1835  0.4593
22406SOL    HW171903   8.991  -0.007   9.940 -1.5886  0.9789 -0.1884
22406SOL    HW271904   9.109   0.082   9.908 -1.1685  0.9472  1.2260
22407SOL     OW71905   9.109   3.177  11.299 -0.0926  0.0919  0.2858
22407SOL    HW171906   9.082   3.089  11.273 -1.0287  0.2980  0.5451
22407SOL    HW271907   9.073   3.189  11.386  1.4113  0.1326  0.9425
22408SOL     OW71908   1.091   6.290   5.881  0.1010  0.3460  0.1469
22408SOL    HW171909   1.002   6.260   5.864  0.1809 -0.2311  0.6736
22408SOL    HW271910   1.082   6.349   5.956  0.0934  0.7283 -0.1529
22409SOL     OW71911   8.906   9.792   0.810 -0.5672  0.2824 -0.0752
22409SOL    HW171912   8.890   9.850   0.736  0.5031  0.2311 -0.3684
22409SOL    HW271913   8.840   9.724   0.802 -0.9961  0.7430 -0.4891
22410SOL     OW71914   8.072  10.061   6.401 -0.1604 -0.4068  0.3226
22410SOL    HW171915   8.094  10.093   6.314 -1.3211  1.2641  0.5942
22410SOL    HW271916   8.082  10.138   6.458  0.6854 -1.4774  1.7088
22411SOL     OW71917   0.613   3.987  11.390 -0.4822  0.0460  0.4569
22411SOL    HW171918   0.641   3.956  11.477  2.6574 -0.7176 -0.6690
22411SOL    HW271919   0.532   3.940  11.373 -1.1107  0.0986  2.8726
22412SOL     OW71920   1.183   2.949   7.573  0.2504  0.4641 -0.2549
22412SOL    HW171921   1.265   2.997   7.565  0.3619  0.0997 -1.3970
22412SOL    HW271922   1.181   2.891   7.497 -1.2743  0.8012 -0.5118
22413SOL     OW71923  10.400   2.512   2.574  0.3614  0.3057 -0.0596
22413SOL    HW171924  10.339   2.558   2.632  0.6036  0.9247 -0.2872
22413SOL    HW271925  10.415   2.573   2.502 -0.4761 -0.7417 -1.1384
22414SOL     OW71926   1.486   8.545  11.384  0.2005 -0.6145 -0.0706
22414SOL    HW171927   1.407   8.493  11.374 -0.6928  0.5878  0.5008
22414SOL    HW271928   1.502   8.546  11.479  1.1041 -1.1158 -0.2036
22415SOL     OW71929   3.091   6.434   6.479  0.5784  0.3180  0.3818
22415SOL    HW171930   3.088   6.339   6.467  0.4481  0.3449  0.2001
22415SOL    HW271931   3.014   6.455   6.532  0.2115  0.4081 -0.1744
22416SOL     OW71932   1.776   0.789  11.196  0.3438  0.4945 -0.4788
22416SOL    HW171933   1.828   0.794  11.277 -1.1973 -0.5433  0.6401
22416SOL    HW271934   1.798   0.869  11.149  1.9996  0.6809  0.5199
22417SOL     OW71935   2.951   3.036   7.466 -0.5273  0.3125 -0.2119
22417SOL    HW171936   2.905   3.015   7.385 -0.8469 -0.1523  0.0815
22417SOL    HW271937   3.040   3.001   7.452 -0.9229 -0.8757  0.0897
22418SOL     OW71938  11.284   2.699   5.246 -0.9060  0.8450  0.3433
22418SOL    HW171939  11.239   2.621   5.214 -2.7638  2.0486 -0.2053
22418SOL    HW271940  11.312   2.745   5.167  1.2457  0.2084  0.6777
22419SOL     OW71941   6.800   8.692   8.866  0.2794 -0.6221  0.9109
22419SOL    HW171942   6.779   8.695   8.773  0.0328  0.5752  0.9943
22419SOL    HW271943   6.895   8.709   8.870  0.2898 -0.6738  0.8742
22420SOL     OW71944   3.223   1.858  11.322  0.3109 -0.0633  0.3691
22420SOL    HW171945   3.310   1.887  11.296  0.6876 -0.5422  1.0493
22420SOL    HW271946   3.166   1.932  11.303  0.5526 -0.3577 -1.7281
22421SOL     OW71947   2.488  11.351   4.076  0.1623 -0.6160 -0.1003
22421SOL    HW171948   2.449  11.424   4.124 -0.4281  0.0674 -1.5574
22421SOL    HW271949   2.496  11.280   4.141  1.2403  0.8717  1.4911
22422SOL     OW71950   5.560   1.831   9.282 -0.1541 -0.2342 -0.2680
22422SOL    HW171951   5.514   1.903   9.241  2.8643  0.3681 -3.0087
22422SOL    HW271952   5.520   1.752   9.245 -0.2219  0.1968 -1.1245
22423SOL     OW71953   2.123  11.429   5.289 -0.3844 -0.5387 -0.4893
22423SOL    HW171954   2.136  11.344   5.247 -4.6998 -1.8020  0.2328
22423SOL    HW271955   2.052  11.470   5.240  1.3920  2.7224 -0.6766
22424SOL     OW71956   8.952  11.203   8.965  0.3441  0.1367 -0.6108
22424SOL    HW171957   8.875  11.174   8.918 -0.4920  0.6320  0.3992
22424SOL    HW271958   8.974  11.288   8.926  2.0306 -1.1632 -2.7033
22425SOL     OW71959   7.449  10.356   8.906  0.1045 -0.0120  0.3940
22425SOL    HW171960   7.533  10.395   8.882  0.4301 -0.6525  0.4910
22425SOL    HW271961   7.431  10.293   8.836 -1.0002  1.1336 -0.4122
22426SOL     OW71962   4.714   1.509   8.705 -0.7447  0.5396 -0.2132
22426SOL    HW171963   4.700   1.571   8.776 -1.3647 -0.8343  0.9333
22426SOL    HW271964   4.627   1.497   8.666 -0.6112  0.4691 -0.4888
22427SOL     OW71965   3.492   2.706   1.969 -0.1236  0.0303 -0.8911
22427SOL    HW171966   3.463   2.756   2.045 -1.6928 -1.5916 -0.3493
22427SOL    HW271967   3.434   2.733   1.899 -0.8445 -0.8382 -0.6473
22428SOL     OW71968   5.331   4.505   8.283  0.2944 -0.1723  0.6761
22428SOL    HW171969   5.279   4.446   8.228  1.3978 -0.3832 -0.1729
22428SOL    HW271970   5.266   4.562   8.325 -0.6098 -0.1408 -0.6906
22429SOL     OW71971   9.596   1.899   3.456 -0.3133  0.3379 -0.1772
22429SOL    HW171972   9.512   1.942   3.439 -0.6921 -0.4219 -0.2736
22429SOL    HW271973   9.573   1.811   3.487  0.4421  0.0316 -0.4428
22430SOL     OW71974  10.468   7.511   8.613 -0.3405  0.4025  0.7127
22430SOL    HW171975  10.547   7.474   8.654 -1.8256 -3.0227  0.8374
22430SOL    HW271976  10.482   7.499   8.519 -1.4381 -2.2130  0.7946
22431SOL     OW71977   1.874   4.228   1.128 -0.4001 -0.1661 -0.5097
22431SOL    HW171978   1.876   4.135   1.102  0.2731 -0.1009 -0.7013
22431SOL    HW271979   1.791   4.237   1.175 -0.8946 -0.6577 -1.2517
22432SOL     OW71980   9.851   9.497  10.108 -0.4244  0.1182 -0.3003
22432SOL    HW171981   9.923   9.537  10.060  1.1128 -2.2943 -0.1772
22432SOL    HW271982   9.802   9.448  10.041  0.1106 -1.0168  0.1102
22433SOL     OW71983   2.083   5.147   3.961 -0.3726 -0.2817 -0.5310
22433SOL    HW171984   2.025   5.202   3.907 -0.2440 -0.9419 -1.3796
22433SOL    HW271985   2.026   5.075   3.990 -0.4500  0.0974  0.2545
22434SOL     OW71986   7.959  10.903   9.750  0.1008  0.0078  0.2062
22434SOL    HW171987   7.926  10.929   9.836  0.7163 -0.2324  0.5229
22434SOL    HW271988   7.928  10.972   9.690 -0.4042  0.1254  0.6051
22435SOL     OW71989  10.362   9.166  10.778 -0.1963 -0.5017  0.6443
22435SOL    HW171990  10.406   9.251  10.785 -1.1658  0.0066  0.7570
22435SOL    HW271991  10.356   9.150  10.684  1.3820 -1.2162  0.6239
22436SOL     OW71992   8.221   2.484   1.324 -0.2514 -0.1766 -0.1560
22436SOL    HW171993   8.220   2.414   1.259  0.7828  2.5095 -3.3582
22436SOL    HW271994   8.139   2.472   1.373  0.2154 -3.9196  0.0016
22437SOL     OW71995   6.861   9.795   3.984 -0.2048  0.0578  0.0892
22437SOL    HW171996   6.950   9.807   3.951  0.4763 -0.1457  1.7741
22437SOL    HW271997   6.833   9.883   4.008  0.3406 -0.1386  1.4900
22438SOL     OW71998  11.582   0.400   7.124  0.4317  0.6183 -0.4656
22438SOL    HW171999  11.568   0.330   7.187 -0.1318  1.9616  0.9707
22438SOL    HW272000  11.498   0.409   7.079  0.8819 -0.4479 -1.5619
22439SOL     OW72001   8.446  11.247   7.535  0.2886 -0.3050 -0.2003
22439SOL    HW172002   8.516  11.276   7.594  1.8295 -2.9425 -0.5555
22439SOL    HW272003   8.483  11.257   7.447 -0.7589  0.5694 -0.5651
22440SOL     OW72004   1.410   9.322   7.686 -0.0645 -0.9966  0.4242
22440SOL    HW172005   1.342   9.389   7.674 -0.6209 -1.4394  1.0450
22440SOL    HW272006   1.465   9.329   7.608  1.5944  2.1337  1.6691
22441SOL     OW72007   9.201   5.939   8.380  0.4440  0.5540 -0.2979
22441SOL    HW172008   9.130   5.928   8.318  0.5345  0.1275 -0.3256
22441SOL    HW272009   9.158   5.969   8.461  0.2051  0.0734 -0.2433
22442SOL     OW72010  10.263  11.228   7.997 -0.3757  0.6693 -0.8764
22442SOL    HW172011  10.350  11.209   8.033 -0.5877  1.2601 -0.0158
22442SOL    HW272012  10.229  11.142   7.971 -0.0297  0.2663 -0.0541
22443SOL     OW72013   5.213   6.421   4.116  0.1983  0.2691  0.3913
22443SOL    HW172014   5.152   6.401   4.045  0.2445  0.3496  0.3296
22443SOL    HW272015   5.156   6.442   4.191  0.1325 -0.9004  0.6978
22444SOL     OW72016   2.647   5.347  11.742  0.0154 -0.4812 -0.1699
22444SOL    HW172017   2.658   5.320  11.651  0.5089 -0.1547 -0.2126
22444SOL    HW272018   2.709   5.420  11.753 -0.7663  0.1455  0.1416
22445SOL     OW72019   5.408   4.210   6.958 -0.0841  1.0341  0.0966
22445SOL    HW172020   5.328   4.225   6.909 -1.5284  0.6906  2.2226
22445SOL    HW272021   5.414   4.114   6.964 -1.0204  1.0529  2.1599
22446SOL     OW72022   6.462   1.124   8.287  0.5471  0.1339 -0.1056
22446SOL    HW172023   6.395   1.177   8.330  0.5604 -0.2732  0.4244
22446SOL    HW272024   6.489   1.176   8.211  0.8446  1.0749  0.6189
22447SOL     OW72025   6.299  10.164   7.467  0.3316  0.0577  0.1825
22447SOL    HW172026   6.382  10.155   7.514  0.5282  1.5022  0.1760
22447SOL    HW272027   6.273  10.255   7.483 -0.7871 -0.1111 -0.5801
22448SOL     OW72028   5.571   1.117   9.534  0.1757  0.0184  0.1827
22448SOL    HW172029   5.622   1.036   9.540 -0.3816 -0.5171 -1.8030
22448SOL    HW272030   5.550   1.138   9.625  0.7841 -1.7792  0.7903
22449SOL     OW72031   1.731   5.002   7.737  0.2458  0.2823 -0.2432
22449SOL    HW172032   1.668   4.961   7.677  0.1055  1.1379 -0.6899
22449SOL    HW272033   1.756   4.931   7.797 -2.0595  0.1912  0.7142
22450SOL     OW72034   7.452   9.031   0.013  0.3424 -0.5487 -0.0879
22450SOL    HW172035   7.395   9.019   0.089  1.5268 -1.7114  0.6837
22450SOL    HW272036   7.435   9.120  -0.017 -0.5077 -0.2335  1.2538
22451SOL     OW72037  11.387   6.278   2.498 -0.2031  0.6174 -0.1527
22451SOL    HW172038  11.393   6.218   2.572 -0.8252  0.5105 -0.1797
22451SOL    HW272039  11.360   6.361   2.536 -2.6160  0.0461 -0.4534
22452SOL     OW72040   1.457   7.664   7.374  0.2835  0.0737  0.6555
22452SOL    HW172041   1.494   7.579   7.354 -0.6573 -0.8062  2.3913
22452SOL    HW272042   1.377   7.644   7.423 -2.1150  1.8746 -2.1835
22453SOL     OW72043   6.452   2.279   1.039 -0.4878 -0.3109  0.0412
22453SOL    HW172044   6.524   2.240   1.089 -0.3447  2.3470  2.2005
22453SOL    HW272045   6.472   2.258   0.948  2.7618 -0.1784  0.6000
22454SOL     OW72046  11.912   6.959   2.302  0.2897  0.0211  0.0553
22454SOL    HW172047  11.906   6.870   2.337  0.8562  0.5020  1.4382
22454SOL    HW272048  11.935   7.013   2.377 -0.3101  1.3910 -0.7108
22455SOL     OW72049   0.640  11.903   3.486  0.1151 -0.1650  0.1072
22455SOL    HW172050   0.697  11.826   3.490  0.6568  0.0743 -2.0466
22455SOL    HW272051   0.647  11.942   3.573  1.9888 -1.0315  0.3948
22456SOL     OW72052  10.269   2.307   6.603  0.0860  0.4309  0.3097
22456SOL    HW172053  10.268   2.213   6.622 -1.4519  0.2493 -0.5198
22456SOL    HW272054  10.182   2.338   6.628  0.2421  1.4374 -0.3205
22457SOL     OW72055   8.411   2.970  11.622  0.3270  0.6686 -0.2967
22457SOL    HW172056   8.427   2.991  11.530  3.5059  3.3939  0.7041
22457SOL    HW272057   8.483   2.912  11.647 -1.0692 -0.9082  0.3337
22458SOL     OW72058  10.180   6.325   6.563  0.0767 -0.2494  0.2170
22458SOL    HW172059  10.195   6.291   6.651 -2.7805 -2.3316  0.0420
22458SOL    HW272060  10.235   6.270   6.507 -0.0989 -0.7014  0.4784
22459SOL     OW72061   1.939   1.979   9.312 -0.5562  0.7552  0.6801
22459SOL    HW172062   1.912   1.932   9.233  0.5342 -1.2246  1.3926
22459SOL    HW272063   2.035   1.980   9.307 -0.5268  2.8295  0.8048
22460SOL     OW72064   1.937  11.007   1.368 -0.1568 -0.6372 -0.0447
22460SOL    HW172065   2.024  10.992   1.405  0.3080  1.2536 -0.2796
22460SOL    HW272066   1.881  10.944   1.413  0.7840  0.0814  2.2754
22461SOL     OW72067   3.169   9.118   1.812 -0.2225  0.1550  0.1456
22461SOL    HW172068   3.143   9.178   1.881 -1.2806 -0.1128 -0.0095
22461SOL    HW272069   3.251   9.155   1.778 -0.7941  1.4647  0.1143
22462SOL     OW72070   5.396   9.927   9.993  0.7305 -0.2853 -0.2404
22462SOL    HW172071   5.430  10.016   9.999  0.4746 -0.2275  0.5289
22462SOL    HW272072   5.377   9.903  10.084 -0.4419 -0.6411 -0.5633
22463SOL     OW72073   9.373   0.070  11.820 -0.0587  0.1283  0.2584
22463SOL    HW172074   9.389   0.155  11.860 -2.1063  1.6451 -1.8967
22463SOL    HW272075   9.281   0.052  11.836  0.2650 -1.6217  0.4552
22464SOL     OW72076   8.943   8.582   7.977  0.2204 -0.3113  0.5647
22464SOL    HW172077   8.909   8.506   7.929 -1.9785  0.4830  0.7391
22464SOL    HW272078   9.029   8.599   7.938 -0.7746 -0.6969 -2.0229
22465SOL     OW72079  10.535   5.596   1.890 -0.4462  0.4823  0.1162
22465SOL    HW172080  10.473   5.531   1.923 -1.2058  1.1688  0.0782
22465SOL    HW272081  10.480   5.663   1.849  0.3985  0.2774 -1.4434
22466SOL     OW72082   2.070   3.282   5.139 -0.1145 -0.3620 -0.3995
22466SOL    HW172083   2.102   3.360   5.185 -0.6861  0.9438 -2.0818
22466SOL    HW272084   2.005   3.244   5.198  0.6885  0.0108  0.7631
22467SOL     OW72085   5.792   8.726  10.241  0.7162  0.1032  0.2039
22467SOL    HW172086   5.701   8.751  10.256  1.1517  2.9921 -1.2999
22467SOL    HW272087   5.840   8.765  10.314  0.8511 -0.8858  0.6585
22468SOL     OW72088   2.649   1.342   3.860  0.3619  0.0211  0.1286
22468SOL    HW172089   2.629   1.278   3.928  0.3269 -0.0672  0.0360
22468SOL    HW272090   2.575   1.403   3.862  0.8552  0.6209  0.8717
22469SOL     OW72091   2.833  11.844   6.301  0.3671  0.1678  0.0846
22469SOL    HW172092   2.850  11.906   6.372 -0.7263  0.5815  0.0098
22469SOL    HW272093   2.753  11.876   6.261  0.6483 -0.4056 -0.9646
22470SOL     OW72094  10.203   6.084   8.945  0.1921 -0.5083  0.0275
22470SOL    HW172095  10.201   6.095   8.850  0.0205 -3.7213 -0.4469
22470SOL    HW272096  10.285   6.039   8.962  0.9147  1.2761  1.6588
22471SOL     OW72097   2.672   0.460   5.056 -0.2902 -0.0802 -0.2648
22471SOL    HW172098   2.600   0.513   5.090  0.2602  0.5253 -0.0090
22471SOL    HW272099   2.656   0.373   5.091 -1.6892 -0.3206 -1.4023
22472SOL     OW72100  10.358   2.481   3.274 -0.2937 -0.3862  0.0875
22472SOL    HW172101  10.275   2.434   3.286  0.1637 -1.0307  0.8154
22472SOL    HW272102  10.401   2.475   3.359  0.5234 -0.1087 -0.3036
22473SOL     OW72103  10.377   6.055  11.811  0.1803 -0.0334 -0.3475
22473SOL    HW172104  10.453   6.109  11.835 -0.6176  1.2775 -0.6728
22473SOL    HW272105  10.350   6.089  11.726 -0.9093 -0.3357 -0.1362
22474SOL     OW72106   5.296   2.015   8.935  0.1596  0.0625 -0.3021
22474SOL    HW172107   5.376   1.993   8.889  0.9885  2.1220  0.0553
22474SOL    HW272108   5.250   2.075   8.876 -1.1525 -1.0765 -0.4977
22475SOL     OW72109   1.977  11.284   3.017  0.0122 -0.6604  0.1640
22475SOL    HW172110   2.051  11.324   3.063  1.3263  0.6658 -2.8381
22475SOL    HW272111   1.925  11.243   3.086  0.6811  2.8712  3.0793
22476SOL     OW72112   7.914   5.309   9.147  0.5818  0.4524 -0.0960
22476SOL    HW172113   7.893   5.384   9.204 -1.3515  1.1393 -1.6113
22476SOL    HW272114   7.917   5.347   9.059 -2.7378 -1.5091 -1.2375
22477SOL     OW72115   2.908   7.475   8.677  0.3505  0.9092 -0.3645
22477SOL    HW172116   2.980   7.533   8.703  1.3000  0.5317 -2.0168
22477SOL    HW272117   2.904   7.410   8.748  0.6804  1.7623  0.4571
22478SOL     OW72118   7.509  11.768   6.373  0.4551 -0.0680  0.1554
22478SOL    HW172119   7.531  11.768   6.280  2.0909 -1.4648  0.4880
22478SOL    HW272120   7.473  11.680   6.389 -0.5270  0.4201  0.6965
22479SOL     OW72121   8.752   1.156   8.199 -0.2020  0.5976 -0.3928
22479SOL    HW172122   8.678   1.137   8.257 -0.4411 -0.4240 -1.0090
22479SOL    HW272123   8.716   1.216   8.133 -0.6491 -0.3326 -1.0147
22480SOL     OW72124   0.117  10.154   3.914 -0.6854 -0.3627  0.4629
22480SOL    HW172125   0.074  10.213   3.853  0.9626  1.2527  0.7575
22480SOL    HW272126   0.132  10.207   3.992  2.6721 -0.4314  0.0161
22481SOL     OW72127   1.677   1.553   9.925 -0.1433  0.1319  0.5836
22481SOL    HW172128   1.656   1.581  10.014 -2.8935  1.6346 -0.4252
22481SOL    HW272129   1.651   1.461   9.921  1.7616 -0.5093  1.7872
22482SOL     OW72130  11.605   4.198   4.115 -0.0364 -0.8400 -0.2616
22482SOL    HW172131  11.617   4.289   4.089  2.1186 -0.6065  1.3394
22482SOL    HW272132  11.618   4.197   4.209  0.3763 -2.8628 -0.2914
22483SOL     OW72133   8.997   9.182   3.205 -0.0901  0.7597 -0.0667
22483SOL    HW172134   8.937   9.256   3.196  0.1306  0.8840 -0.5489
22483SOL    HW272135   9.005   9.147   3.117  0.8531  0.9849 -0.0785
22484SOL     OW72136   0.870   5.405   3.183  0.1811  0.4681 -0.0203
22484SOL    HW172137   0.939   5.446   3.236  1.9722  1.3729 -2.8177
22484SOL    HW272138   0.814   5.478   3.158  0.9338  0.5641 -1.5358
22485SOL     OW72139   2.712   9.147   7.618  0.2911 -0.0129 -0.4799
22485SOL    HW172140   2.678   9.227   7.577 -0.2545  1.4477  2.5340
22485SOL    HW272141   2.806   9.163   7.626  0.1923  0.3169  0.0616
22486SOL     OW72142   9.440   8.967   8.272 -0.1853 -0.0483  0.0602
22486SOL    HW172143   9.447   9.031   8.202  0.1957  0.0139  0.1497
22486SOL    HW272144   9.464   9.016   8.351 -0.3695 -0.1770  0.1949
22487SOL     OW72145  11.607   6.629   9.869  0.0114 -0.0397  0.0784
22487SOL    HW172146  11.563   6.680   9.936  1.8382 -0.9584  2.0815
22487SOL    HW272147  11.570   6.662   9.786 -0.5963  2.8166  1.3543
22488SOL     OW72148   7.972   3.744   9.367 -0.3486 -0.1692  0.2709
22488SOL    HW172149   7.934   3.663   9.334 -1.3921  0.9315 -1.4042
22488SOL    HW272150   7.984   3.798   9.288  1.4704  0.8477  1.1844
22489SOL     OW72151   2.881   3.985   7.996  0.2299  0.4060  0.1989
22489SOL    HW172152   2.892   4.064   8.050  0.6050  0.7118 -0.3112
22489SOL    HW272153   2.798   3.998   7.951  1.1128  1.3604 -1.2366
22490SOL     OW72154   2.712   4.516   0.728  0.0138  0.6497  0.3745
22490SOL    HW172155   2.804   4.535   0.716  0.3273 -1.1600 -0.5524
22490SOL    HW272156   2.710   4.451   0.798 -0.7312  1.8602  1.5204
22491SOL     OW72157   9.832  10.554   0.383 -0.8408  0.3921  0.0349
22491SOL    HW172158   9.761  10.493   0.405 -1.1157  0.2785 -1.1015
22491SOL    HW272159   9.790  10.620   0.328 -0.4083  1.2614  0.7308
22492SOL     OW72160  11.353   9.686  11.693  0.5802  0.6573 -0.4542
22492SOL    HW172161  11.375   9.682  11.600 -0.6272 -0.4896 -0.7319
22492SOL    HW272162  11.437   9.690  11.738  1.1795  1.3954 -1.5941
22493SOL     OW72163   0.307  11.444   0.220  0.4494  0.3148  0.2534
22493SOL    HW172164   0.376  11.400   0.270  2.7794  2.3638 -0.9204
22493SOL    HW272165   0.290  11.385   0.146 -1.0462 -1.4254  1.8709
22494SOL     OW72166   2.306  11.555  10.688  0.2676 -0.2451  0.7686
22494SOL    HW172167   2.228  11.518  10.646  0.3541 -0.3834  0.7294
22494SOL    HW272168   2.295  11.650  10.681  0.6802 -0.2596 -0.3116
22495SOL     OW72169   8.230   7.071   7.844 -0.2723 -0.4217  0.0096
22495SOL    HW172170   8.306   7.095   7.790  0.0924  0.6925  0.9671
22495SOL    HW272171   8.268   7.043   7.927 -0.8520 -1.5237 -0.0927
22496SOL     OW72172   2.182  11.830   2.102  0.1875  0.1607 -0.3685
22496SOL    HW172173   2.202  11.873   2.018  1.5746 -2.4615 -1.4957
22496SOL    HW272174   2.252  11.859   2.160  0.1700  0.6984 -0.6016
22497SOL     OW72175   5.275   5.756   1.915  0.2394 -0.2804  0.5822
22497SOL    HW172176   5.357   5.774   1.868 -0.0283 -1.0637 -0.1948
22497SOL    HW272177   5.229   5.839   1.914  0.1169 -0.3394 -0.7991
22498SOL     OW72178   1.234   1.590   9.055  0.1673 -0.6000  0.3353
22498SOL    HW172179   1.303   1.655   9.066 -0.4712  0.0849  0.3807
22498SOL    HW272180   1.214   1.562   9.144 -1.9581  1.7304  0.7169
22499SOL     OW72181   1.961   8.912   7.111  0.0854  0.2321  0.3513
22499SOL    HW172182   1.893   8.872   7.057  0.4744 -0.8545  0.6601
22499SOL    HW272183   1.930   8.903   7.201  1.0199 -1.0450  0.5616
22500SOL     OW72184   8.810   5.902  11.513 -0.2503  0.1571  0.5881
22500SOL    HW172185   8.759   5.932  11.438  0.0586  0.8479  0.6420
22500SOL    HW272186   8.889   5.863  11.476  0.1038  0.8838  0.5526
22501SOL     OW72187   9.396   3.864   3.970 -0.6830 -0.2957 -0.2375
22501SOL    HW172188   9.416   3.928   3.902 -0.2967  1.0675  1.1211
22501SOL    HW272189   9.301   3.855   3.968 -0.8726  1.3043  0.3912
22502SOL     OW72190  11.225   7.564   8.001  0.6838 -0.3796  0.5786
22502SOL    HW172191  11.279   7.642   8.018 -0.6762  0.6270  0.4217
22502SOL    HW272192  11.256   7.532   7.916 -1.7015  2.7305 -1.7119
22503SOL     OW72193   9.582   7.889   1.141 -0.3173  0.4084  0.2028
22503SOL    HW172194   9.518   7.818   1.147  1.0042 -0.7918  1.0156
22503SOL    HW272195   9.532   7.965   1.114 -1.8391 -0.7899 -0.5018
22504SOL     OW72196   9.020   2.264   9.553  0.8107 -0.6160 -0.6477
22504SOL    HW172197   9.108   2.236   9.528  1.4629 -0.1870  1.0647
22504SOL    HW272198   9.023   2.360   9.551  1.7621 -0.3814  3.4987
22505SOL     OW72199   3.873   0.856   7.904 -0.1919  0.0721 -0.0788
22505SOL    HW172200   3.806   0.827   7.966  1.0944 -0.4180  1.1261
22505SOL    HW272201   3.839   0.939   7.869 -2.4866 -1.2684 -1.2499
22506SOL     OW72202   0.389   8.465   5.937 -0.0166 -0.0787  0.0405
22506SOL    HW172203   0.425   8.508   6.014 -0.0139  0.9195 -0.4901
22506SOL    HW272204   0.462   8.416   5.900  0.1041 -0.1825  0.4159
22507SOL     OW72205   0.913   8.369  10.003 -0.9555  0.0126 -0.6415
22507SOL    HW172206   0.971   8.365  10.080 -0.9203 -0.1168 -0.6738
22507SOL    HW272207   0.967   8.336   9.931 -1.3548 -0.9816 -0.4998
22508SOL     OW72208   0.830   1.484   8.919 -0.2387  0.7500 -0.4398
22508SOL    HW172209   0.858   1.485   8.827 -0.0551  2.9885 -0.4363
22508SOL    HW272210   0.742   1.448   8.917  0.4670 -1.0283 -1.2151
22509SOL     OW72211  10.664   7.021   0.013 -0.7172  0.3628 -0.4441
22509SOL    HW172212  10.693   7.103  -0.027 -0.2059 -0.6834 -2.3073
22509SOL    HW272213  10.742   6.966   0.016 -1.0683 -0.0978  0.7363
22510SOL     OW72214   2.395   0.761   5.501 -0.4197 -0.4844  0.1034
22510SOL    HW172215   2.347   0.840   5.524  1.6868  0.5237  1.3407
22510SOL    HW272216   2.487   0.788   5.500  0.2680 -2.6471 -0.6628
22511SOL     OW72217   2.305   7.087   0.042  0.1824 -0.8825 -0.9005
22511SOL    HW172218   2.278   7.078  -0.049  0.8199 -0.9524 -1.0904
22511SOL    HW272219   2.395   7.118   0.037 -1.0044  3.3026 -0.3178
22512SOL     OW72220   4.682   4.094   8.751 -0.3174 -0.3381 -0.8051
22512SOL    HW172221   4.615   4.112   8.817 -0.6501  0.3372 -1.3081
22512SOL    HW272222   4.711   4.181   8.724 -0.0322 -0.6154 -1.3876
22513SOL     OW72223   0.387   5.569   7.590  0.7277  0.1719  0.2809
22513SOL    HW172224   0.352   5.564   7.679 -0.8189 -0.6564 -0.3396
22513SOL    HW272225   0.322   5.621   7.542  1.0801 -0.1668 -0.5813
22514SOL     OW72226   1.384   3.128   0.521  0.6048 -0.0258  0.5846
22514SOL    HW172227   1.427   3.187   0.458 -0.3608  1.5573  1.3376
22514SOL    HW272228   1.456   3.079   0.560  1.4786  0.8437  0.1159
22515SOL     OW72229   0.676   5.646   8.646 -0.2599  0.3195  0.5074
22515SOL    HW172230   0.699   5.687   8.563 -2.3611 -0.3000 -0.4372
22515SOL    HW272231   0.668   5.553   8.626 -1.6758  0.2711  1.1587
22516SOL     OW72232   0.225  10.173   2.849 -0.4213  0.7633 -0.3579
22516SOL    HW172233   0.192  10.164   2.938 -1.3993  0.0359 -0.7826
22516SOL    HW272234   0.216  10.086   2.811  2.1011  0.4792 -0.4869
22517SOL     OW72235   4.465  11.796   3.549 -0.0904 -0.3050 -0.2755
22517SOL    HW172236   4.370  11.794   3.544 -0.0424 -2.6180 -1.9923
22517SOL    HW272237   4.484  11.818   3.641 -2.3349 -2.6351  0.8583
22518SOL     OW72238   8.099   2.523  10.137 -0.0582 -0.2267  0.1068
22518SOL    HW172239   8.119   2.607  10.180  1.4006 -1.1677  1.3496
22518SOL    HW272240   8.006   2.510  10.153  0.4205 -0.5247  3.0499
22519SOL     OW72241   8.904   9.406   4.344 -0.0866  0.4584 -0.5004
22519SOL    HW172242   8.994   9.375   4.342 -0.2398 -0.1004  0.3454
22519SOL    HW272243   8.854   9.336   4.302 -0.2418  0.2738 -0.0214
22520SOL     OW72244   3.874   6.065  11.597 -0.0987 -0.8431  0.1028
22520SOL    HW172245   3.852   5.984  11.551  0.5288 -1.5769  1.0661
22520SOL    HW272246   3.837   6.054  11.685  1.4498 -0.8196  0.7836
22521SOL     OW72247   5.151  11.974   2.696  0.6794  0.1401 -0.0855
22521SOL    HW172248   5.221  11.924   2.738 -0.7668 -1.0048  1.0524
22521SOL    HW272249   5.132  12.045   2.757  0.5180  0.1640 -0.1625
22522SOL     OW72250   1.442   0.118   5.908 -0.2631  0.2451  0.2995
22522SOL    HW172251   1.516   0.175   5.928  0.3137 -0.4969  0.3568
22522SOL    HW272252   1.483   0.034   5.887 -1.1216 -0.3447  0.9244
22523SOL     OW72253   7.490   1.203   2.005 -0.3447 -0.6559  0.0432
22523SOL    HW172254   7.455   1.262   2.072  2.1285  0.7138  0.2575
22523SOL    HW272255   7.524   1.128   2.055  1.0940  0.1584  0.3346
22524SOL     OW72256   0.744  11.993   0.740 -0.2383 -0.1112  0.2823
22524SOL    HW172257   0.681  12.031   0.678  1.2786  3.0929  0.4863
22524SOL    HW272258   0.691  11.975   0.818 -1.3428  0.2021 -0.3652
22525SOL     OW72259   0.615   3.406  10.104 -0.1904  0.6359 -0.2526
22525SOL    HW172260   0.563   3.472  10.058 -0.4444  0.7685  0.2169
22525SOL    HW272261   0.683   3.456  10.150 -1.7897  0.8666  2.0480
22526SOL     OW72262   3.276   8.124  11.748 -0.5928 -0.0679  0.4474
22526SOL    HW172263   3.250   8.048  11.801  1.6399 -1.0262  0.2901
22526SOL    HW272264   3.366   8.105  11.723  0.0433  2.6646  0.3794
22527SOL     OW72265   3.244   1.148   2.138 -0.2136  0.2196 -0.5464
22527SOL    HW172266   3.324   1.173   2.092 -0.0092 -0.3988 -0.5322
22527SOL    HW272267   3.273   1.133   2.228 -0.5335  0.9958 -0.3004
22528SOL     OW72268   4.309  10.251  11.421  0.0339  0.0673 -0.3635
22528SOL    HW172269   4.278  10.340  11.408  0.2438  0.2404  0.2672
22528SOL    HW272270   4.337  10.248  11.513  1.5631 -0.1638 -0.8001
22529SOL     OW72271   6.106   5.236   2.938  0.4964 -0.5485  0.2584
22529SOL    HW172272   6.109   5.167   2.872  0.6133 -0.6666  0.3853
22529SOL    HW272273   6.167   5.206   3.006 -1.7306 -1.8296  1.8220
22530SOL     OW72274   6.344  10.244   4.380  0.0692 -0.1452 -0.7345
22530SOL    HW172275   6.304  10.329   4.361  1.0294  0.3709 -0.4885
22530SOL    HW272276   6.270  10.188   4.408 -0.5721  0.5828 -0.9466
22531SOL     OW72277   7.131   7.271   9.460  0.4975  0.2132  0.1427
22531SOL    HW172278   7.196   7.276   9.531  1.9233 -0.1660 -1.0878
22531SOL    HW272279   7.056   7.227   9.500  1.0084  0.6206  1.6044
22532SOL     OW72280  10.232  10.847  10.215  0.0397  0.2338 -0.1308
22532SOL    HW172281  10.300  10.903  10.177  0.7534 -1.4033 -1.4122
22532SOL    HW272282  10.245  10.853  10.309  1.2500  0.8353 -0.3152
22533SOL     OW72283   9.468   1.590   5.583 -0.3382  0.4248 -0.7058
22533SOL    HW172284   9.520   1.544   5.517  0.2200 -1.7551  1.1191
22533SOL    HW272285   9.382   1.548   5.579  0.6584 -2.2417  2.1411
22534SOL     OW72286   9.739   7.764   9.986  0.2766  0.6677  0.0436
22534SOL    HW172287   9.722   7.767  10.080 -0.2745  0.6705 -0.0515
22534SOL    HW272288   9.666   7.713   9.950  0.9637 -0.0937 -0.2771
22535SOL     OW72289  11.132   9.746   3.245 -0.2274 -0.8605  0.3365
22535SOL    HW172290  11.181   9.727   3.325 -1.2713 -1.1972  0.9205
22535SOL    HW272291  11.190   9.802   3.193  1.4762 -2.6486  0.1991
22536SOL     OW72292   7.332   0.649  11.606 -0.3599  0.0341  0.0121
22536SOL    HW172293   7.420   0.617  11.627 -0.8309 -0.2916  1.6273
22536SOL    HW272294   7.303   0.694  11.686 -1.9612 -0.5487 -0.2056
22537SOL     OW72295  11.173   9.144   2.333  0.0573 -0.0604  0.1619
22537SOL    HW172296  11.154   9.196   2.254  0.3106  0.1057  0.2066
22537SOL    HW272297  11.186   9.055   2.300 -0.2249 -0.0654  0.0641
22538SOL     OW72298   7.992   9.660   2.467 -0.8236 -0.0455  0.1493
22538SOL    HW172299   8.020   9.633   2.380 -3.1069 -0.6558 -0.4744
22538SOL    HW272300   8.046   9.609   2.527 -0.0736 -0.5408 -0.9192
22539SOL     OW72301   3.380  10.637   9.546  0.3381 -0.1613 -0.4653
22539SOL    HW172302   3.285  10.629   9.557  0.2016 -0.4683 -1.6669
22539SOL    HW272303   3.417  10.567   9.599 -0.0715  0.2457  0.3807
22540SOL     OW72304   8.988   6.859   1.933  0.0654  0.3169 -0.1520
22540SOL    HW172305   9.063   6.906   1.897  0.8644 -0.6893  0.1440
22540SOL    HW272306   9.018   6.829   2.019 -1.1910  1.1460  0.6016
22541SOL     OW72307   7.521   3.366   6.030  0.7005  0.1065 -0.1565
22541SOL    HW172308   7.477   3.300   6.083  2.3930  0.3400  1.6543
22541SOL    HW272309   7.538   3.438   6.091  1.4883  0.9976 -1.3789
22542SOL     OW72310   1.107   3.434   7.173 -0.1463 -0.3653  0.0006
22542SOL    HW172311   1.142   3.515   7.209 -0.0671 -0.4981  0.2285
22542SOL    HW272312   1.061   3.393   7.246 -0.2929 -0.4642 -0.1467
22543SOL     OW72313   8.541   0.077   1.189 -0.0351  0.0691  0.5733
22543SOL    HW172314   8.589   0.032   1.259 -1.5146 -0.1525  1.4800
22543SOL    HW272315   8.505   0.155   1.230 -1.3476 -0.3240  0.2073
22544SOL     OW72316   8.620   1.623  10.267 -0.2152  0.0782 -0.5907
22544SOL    HW172317   8.553   1.643  10.202 -0.6071  1.9467  0.3219
22544SOL    HW272318   8.598   1.678  10.342  1.8782  0.1327  0.0495
22545SOL     OW72319   4.283   7.238   3.644 -0.1993 -0.0662 -0.5540
22545SOL    HW172320   4.192   7.233   3.674 -0.2246 -0.8908 -0.7523
22545SOL    HW272321   4.332   7.188   3.709  0.2556  1.1830  0.0817
22546SOL     OW72322   6.437   1.689  10.977  0.2514  0.7928  0.0051
22546SOL    HW172323   6.461   1.719  11.064  2.6998  1.2378 -0.7456
22546SOL    HW272324   6.487   1.745  10.917 -0.7162 -0.0305 -1.6552
22547SOL     OW72325   6.651   4.768   1.955 -0.2343  0.1262 -0.6915
22547SOL    HW172326   6.712   4.739   1.887  0.5648  0.1725 -0.0112
22547SOL    HW272327   6.610   4.847   1.919  0.3097  0.2495 -1.0547
22548SOL     OW72328   1.199   4.684   6.274 -0.0447 -0.0416  0.5981
22548SOL    HW172329   1.151   4.766   6.268 -2.2514 -1.3026 -0.6269
22548SOL    HW272330   1.236   4.683   6.362  0.7232  2.5757  0.3601
22549SOL     OW72331   3.242   2.597   4.799 -0.5084 -0.6154 -0.5696
22549SOL    HW172332   3.241   2.684   4.760  0.8081 -0.0468  0.5428
22549SOL    HW272333   3.162   2.556   4.769 -0.5855  0.5511 -2.0786
22550SOL     OW72334   3.750   1.113   0.089  0.6532 -0.0011  0.1462
22550SOL    HW172335   3.718   1.054   0.020  0.7294 -0.1710  0.2545
22550SOL    HW272336   3.837   1.080   0.110  0.1718 -0.6946  1.1605
22551SOL     OW72337   9.590   9.514   7.540  0.4969 -0.2246 -0.0631
22551SOL    HW172338   9.602   9.574   7.614 -1.4022  0.2504 -0.1043
22551SOL    HW272339   9.498   9.523   7.515  0.6385 -1.7304 -1.3291
22552SOL     OW72340   5.075   1.266   9.454  0.1471  0.3693  0.1264
22552SOL    HW172341   5.009   1.198   9.444  1.9712 -1.2482 -1.8162
22552SOL    HW272342   5.028   1.340   9.493 -2.4102 -1.1989  0.2256
22553SOL     OW72343   4.070   1.804  11.541 -0.2405 -0.1284  0.0677
22553SOL    HW172344   4.134   1.755  11.592  0.3885  1.0505  0.4549
22553SOL    HW272345   4.057   1.885  11.590 -2.5085 -0.5784  0.3238
22554SOL     OW72346   8.339   1.742  10.797 -0.2911 -0.0079  0.3232
22554SOL    HW172347   8.267   1.775  10.745  0.2163  0.9598  0.2143
22554SOL    HW272348   8.344   1.801  10.872  0.3042 -0.1391  0.3946
22555SOL     OW72349   3.106   4.815   7.070  0.0000  0.1838 -0.0078
22555SOL    HW172350   3.020   4.808   7.110 -0.3855  2.4661 -0.2680
22555SOL    HW272351   3.125   4.728   7.037 -1.2437 -0.9041  1.9296
22556SOL     OW72352   1.138   0.051   6.926  0.2678  0.4895  0.3316
22556SOL    HW172353   1.088  -0.030   6.930 -0.2505  0.8533  2.1439
22556SOL    HW272354   1.185   0.054   7.010  1.5238  1.2887 -0.3705
22557SOL     OW72355   3.658   8.579   0.737 -0.1366  0.0365  0.2219
22557SOL    HW172356   3.748   8.576   0.770 -0.2520 -1.1948  0.4596
22557SOL    HW272357   3.668   8.576   0.642  0.0683 -0.6375  0.2587
22558SOL     OW72358   7.355   2.042   7.985  0.0994 -0.3336  0.3367
22558SOL    HW172359   7.292   2.099   7.940 -0.0673 -0.1332  0.8164
22558SOL    HW272360   7.422   2.102   8.017  1.8006 -0.7534 -2.1462
22559SOL     OW72361   3.013   9.071   7.987 -0.1832 -0.5124  0.4376
22559SOL    HW172362   3.068   8.995   7.965 -1.0316 -0.6831 -1.2873
22559SOL    HW272363   2.938   9.033   8.033 -0.1421 -0.6115  0.4244
22560SOL     OW72364   3.614   5.965  11.293  0.4000 -0.4681  0.5485
22560SOL    HW172365   3.616   5.902  11.364 -1.2716  0.2045  1.2415
22560SOL    HW272366   3.680   6.031  11.316 -0.5790  0.0947  1.8521
22561SOL     OW72367   9.936   7.904   7.347 -0.1071  0.5269 -0.1854
22561SOL    HW172368   9.844   7.930   7.348  0.2301  1.7631  0.0528
22561SOL    HW272369   9.982   7.978   7.308  0.7793 -0.1371 -0.4390
22562SOL     OW72370  11.415  10.974  10.522  0.6391  0.4344  0.5696
22562SOL    HW172371  11.339  10.953  10.577  0.9198  0.5535  1.0099
22562SOL    HW272372  11.485  10.917  10.554  0.1078 -1.5052 -1.4683
22563SOL     OW72373   0.342  10.561   9.979  0.5094  0.3728 -0.4807
22563SOL    HW172374   0.394  10.492   9.938 -1.2394 -1.3182 -0.0058
22563SOL    HW272375   0.357  10.550  10.073  1.2775  1.5727 -0.4313
22564SOL     OW72376   1.197   3.736   5.802 -0.1323  0.1109 -0.1884
22564SOL    HW172377   1.206   3.721   5.708  1.2536 -0.4352  0.0065
22564SOL    HW272378   1.192   3.649   5.841 -0.2294  0.3179  0.2732
22565SOL     OW72379   8.609   3.575   8.156  0.2541  0.1780  0.7177
22565SOL    HW172380   8.700   3.594   8.181  0.1880  1.9877 -0.2766
22565SOL    HW272381   8.586   3.644   8.095 -0.6442 -2.2283 -1.8803
22566SOL     OW72382   9.290   9.685   5.304 -0.3789  0.0880 -0.4865
22566SOL    HW172383   9.334   9.759   5.262  1.2944 -1.3880 -1.4779
22566SOL    HW272384   9.248   9.638   5.232 -2.3448  0.6223  0.2684
22567SOL     OW72385   9.560  11.480   7.610  0.5499  0.0121 -0.2834
22567SOL    HW172386   9.634  11.446   7.660  0.8408  0.8232 -0.1415
22567SOL    HW272387   9.599  11.544   7.551 -0.0947  0.8587  0.1790
22568SOL     OW72388   2.131   0.805   5.312 -0.0381 -0.0450 -0.4400
22568SOL    HW172389   2.116   0.880   5.369  2.7696 -1.0691  1.8951
22568SOL    HW272390   2.162   0.843   5.229 -2.1095  1.3910 -0.6420
22569SOL     OW72391   5.081   9.199   5.236  0.4042  0.5831  0.4900
22569SOL    HW172392   5.049   9.196   5.146  0.0565  2.0768  0.5306
22569SOL    HW272393   5.025   9.139   5.285 -0.2446  0.7321 -0.0594
22570SOL     OW72394  10.915   0.144   8.372 -0.3162 -0.5464  0.0638
22570SOL    HW172395  10.887   0.194   8.448 -0.8472  2.4034 -1.9065
22570SOL    HW272396  11.010   0.137   8.382 -0.4845 -1.1849  1.4924
22571SOL     OW72397   1.229   6.004  10.416  0.1116  0.5798  0.2357
22571SOL    HW172398   1.273   6.088  10.408 -0.9940  1.1298 -0.3277
22571SOL    HW272399   1.152   6.022  10.470 -0.6769  0.1786 -0.7133
22572SOL     OW72400   1.510   8.058   8.396 -0.4692 -0.4195 -0.4164
22572SOL    HW172401   1.418   8.068   8.370 -0.7712 -1.4515  0.1785
22572SOL    HW272402   1.520   8.118   8.470 -1.3026 -1.8402  0.9236
22573SOL     OW72403  10.335  11.451  11.199  0.1342 -0.1227 -0.1935
22573SOL    HW172404  10.294  11.424  11.117  0.3629  1.2037 -0.7710
22573SOL    HW272405  10.271  11.429  11.266 -0.3174 -0.6544 -0.7807
22574SOL     OW72406  10.223   9.999   3.198 -0.1378  0.6971  0.6942
22574SOL    HW172407  10.233  10.091   3.222 -1.0136  0.9760  0.0158
22574SOL    HW272408  10.304   9.977   3.151 -0.1555  1.2696  0.3931
22575SOL     OW72409   4.558  11.838   5.244 -0.2164  0.3426 -0.1412
22575SOL    HW172410   4.551  11.841   5.340  2.0201  2.7074  0.0539
22575SOL    HW272411   4.557  11.930   5.217  1.1853 -0.1871 -2.2193
22576SOL     OW72412   0.518   0.664   7.021 -0.1230  0.0536  0.4332
22576SOL    HW172413   0.425   0.661   6.998  0.0701  0.2328 -0.3928
22576SOL    HW272414   0.563   0.677   6.938  0.6610 -0.2745  0.7965
22577SOL     OW72415   6.928   8.632   3.923 -0.0745  0.5384  0.2117
22577SOL    HW172416   6.986   8.677   3.985 -0.3703 -0.5730  1.3282
22577SOL    HW272417   6.888   8.703   3.872  0.4316  1.4528  1.0545
22578SOL     OW72418   1.060  10.373   3.973 -0.2920 -0.1517 -0.4253
22578SOL    HW172419   1.040  10.325   4.054  0.5602 -0.7391 -0.5571
22578SOL    HW272420   1.001  10.334   3.908  1.4541 -2.1881 -0.9139
22579SOL     OW72421   3.450  11.231   3.222 -0.4301  0.1538  0.0830
22579SOL    HW172422   3.357  11.210   3.215 -0.3540 -0.3140  0.3824
22579SOL    HW272423   3.463  11.255   3.314 -0.6197  2.1365 -0.3666
22580SOL     OW72424   0.267   1.671   2.337 -0.2274 -0.5371  0.0545
22580SOL    HW172425   0.348   1.721   2.349 -0.7003  0.3903 -0.5507
22580SOL    HW272426   0.216   1.690   2.416 -0.3378 -0.1900 -0.0990
22581SOL     OW72427   0.315   8.243   5.321  0.4087  0.6661 -0.3473
22581SOL    HW172428   0.324   8.232   5.226  0.2595  0.2065 -0.3102
22581SOL    HW272429   0.224   8.219   5.339  0.3137  1.1678 -0.1450
22582SOL     OW72430   3.090  10.450   9.299 -0.0272  0.1600  0.3268
22582SOL    HW172431   3.140  10.376   9.334 -1.8664 -1.0053  0.6108
22582SOL    HW272432   3.138  10.475   9.220  1.1014 -0.7803  0.6748
22583SOL     OW72433   2.340   7.181   7.333 -0.2607  0.6291  0.1181
22583SOL    HW172434   2.245   7.186   7.321 -0.1547  0.6982 -0.8300
22583SOL    HW272435   2.361   7.254   7.391 -1.0528 -0.7681  2.2478
22584SOL     OW72436   0.882  11.940  11.622  0.0070 -0.1536 -0.3736
22584SOL    HW172437   0.935  11.877  11.671 -2.5491 -0.6819  1.9900
22584SOL    HW272438   0.863  11.896  11.539  3.3155  0.1870 -1.4522
22585SOL     OW72439   1.089  10.265   3.345  0.0183 -0.5107 -0.4506
22585SOL    HW172440   1.141  10.188   3.321  0.3811 -0.7066  0.8807
22585SOL    HW272441   1.018  10.266   3.281  0.1342 -1.8278 -0.6417
22586SOL     OW72442  10.668  11.170   7.095  0.0241  0.6579 -0.0401
22586SOL    HW172443  10.606  11.124   7.151  1.1531  0.1807  0.8503
22586SOL    HW272444  10.732  11.207   7.155  2.3422 -1.4506 -1.0723
22587SOL     OW72445   4.936   3.210   6.414 -1.0222 -0.0404  0.0428
22587SOL    HW172446   4.981   3.125   6.406 -0.1123  0.4698 -0.3823
22587SOL    HW272447   4.988   3.258   6.478  0.9982  1.7315 -2.6877
22588SOL     OW72448   5.009   5.677   4.296 -0.1323 -0.4649  0.7175
22588SOL    HW172449   4.984   5.589   4.323  0.7195 -0.4213  1.6779
22588SOL    HW272450   4.935   5.732   4.321  0.3766 -0.5199  2.4655
22589SOL     OW72451   6.385   4.717  11.752  0.4104 -0.4531 -0.1048
22589SOL    HW172452   6.471   4.736  11.789 -0.2950  0.3616  1.2015
22589SOL    HW272453   6.386   4.623  11.735  1.6739 -0.3872 -0.4407
22590SOL     OW72454   1.151   9.279  11.503  0.5332  0.3117  0.8807
22590SOL    HW172455   1.149   9.230  11.421 -3.0395 -0.4762  1.2603
22590SOL    HW272456   1.133   9.369  11.477  1.3889  0.4360  0.6777
22591SOL     OW72457   8.628   0.944   6.920 -0.1022 -0.2109 -0.3613
22591SOL    HW172458   8.683   0.971   6.993  0.5063  1.4277 -1.3766
22591SOL    HW272459   8.541   0.933   6.958  0.7111 -2.0941  1.1083
22592SOL     OW72460   3.848  11.938   9.161  0.2354  0.4653 -0.3136
22592SOL    HW172461   3.818  11.890   9.238  1.2725 -2.7236 -1.7465
22592SOL    HW272462   3.777  11.999   9.142 -0.9142 -0.0579  1.9885
22593SOL     OW72463  10.568   8.090   8.874  0.2071  0.8169 -0.4198
22593SOL    HW172464  10.483   8.053   8.850 -1.0187  1.0328  3.0700
22593SOL    HW272465  10.591   8.047   8.956  2.6623  2.0190 -0.3944
22594SOL     OW72466  10.782   0.917   6.911  0.5443 -0.3432  0.1097
22594SOL    HW172467  10.853   0.969   6.873  1.1481 -1.2511 -0.0230
22594SOL    HW272468  10.705   0.939   6.858  0.7559  0.5141  0.1434
22595SOL     OW72469  10.892   7.063   0.597 -0.6386 -0.2349 -0.6666
22595SOL    HW172470  10.869   6.977   0.632  0.6288 -0.8843 -1.3550
22595SOL    HW272471  10.975   7.049   0.551 -0.5480  1.2999 -1.0335
22596SOL     OW72472   3.095   4.458  11.697  0.2363  0.2267 -0.4101
22596SOL    HW172473   3.164   4.506  11.742  0.5127  1.3618 -1.9812
22596SOL    HW272474   3.066   4.516  11.627 -0.5564 -1.2500 -1.3725
22597SOL     OW72475  10.316   7.170   9.864  0.3933  0.7363  0.2908
22597SOL    HW172476  10.378   7.201   9.798 -1.2633 -2.4504 -3.2135
22597SOL    HW272477  10.352   7.086   9.893 -1.5630 -0.6963 -1.0977
22598SOL     OW72478   7.115   3.436  11.079  0.2767 -0.2544 -0.0888
22598SOL    HW172479   7.038   3.424  11.136 -0.3561 -0.5233 -0.9799
22598SOL    HW272480   7.164   3.354  11.089  0.6094  0.0309  0.7041
22599SOL     OW72481   8.799   8.967   3.473  0.2161 -0.4469 -0.0886
22599SOL    HW172482   8.850   8.909   3.530  0.8951 -1.9477 -2.1303
22599SOL    HW272483   8.838   8.956   3.386 -0.9918  1.5163 -0.9420
22600SOL     OW72484   9.564  11.772   4.269 -0.3101  0.2049  0.4405
22600SOL    HW172485   9.605  11.787   4.354 -0.3166  1.0674  0.2988
22600SOL    HW272486   9.638  11.752   4.211  0.1405  2.9488 -0.0918
22601SOL     OW72487   2.612  10.589   0.387  0.2976  0.2128  0.0847
22601SOL    HW172488   2.525  10.600   0.425 -0.2329  1.3288 -1.3555
22601SOL    HW272489   2.632  10.496   0.400 -0.3018  0.3036  2.0179
22602SOL     OW72490   9.878  10.096   7.158  0.1878 -0.2606  0.5726
22602SOL    HW172491   9.819  10.073   7.231 -2.0708  0.7290 -0.8221
22602SOL    HW272492   9.879  10.191   7.158 -0.2748 -0.2315 -0.9773
22603SOL     OW72493   6.844   8.340   9.076 -0.1153 -0.3250  0.1983
22603SOL    HW172494   6.872   8.330   9.167  0.0422 -1.1636  0.0648
22603SOL    HW272495   6.881   8.264   9.031 -0.7072 -0.2441 -0.4378
22604SOL     OW72496   6.419   1.941   5.162 -0.0484 -0.0418 -0.3478
22604SOL    HW172497   6.459   2.028   5.172  0.1667 -0.1986  0.2178
22604SOL    HW272498   6.365   1.948   5.084 -1.8103  1.2858  0.8994
22605SOL     OW72499   2.290   9.624   3.722  0.6153 -0.1931 -0.1195
22605SOL    HW172500   2.216   9.646   3.778  1.4649  2.6474  0.0358
22605SOL    HW272501   2.367   9.645   3.774  1.4965 -0.7091 -1.1651
22606SOL     OW72502  11.278   9.540   3.483 -0.7102 -0.4491 -0.1460
22606SOL    HW172503  11.189   9.505   3.491 -1.0035  0.2115 -0.3955
22606SOL    HW272504  11.312   9.539   3.572 -0.7733 -1.1888 -0.1216
22607SOL     OW72505   6.831   2.627   8.409 -0.2891 -0.2133 -0.2394
22607SOL    HW172506   6.878   2.706   8.381  1.0284 -1.5555 -2.0395
22607SOL    HW272507   6.887   2.554   8.382 -2.0703 -1.8279  0.1532
22608SOL     OW72508   2.510   8.785   9.375 -0.1566  0.3104 -0.2596
22608SOL    HW172509   2.592   8.738   9.362 -1.1834 -1.6169 -0.1186
22608SOL    HW272510   2.488   8.769   9.467 -0.5061  1.1487 -0.1863
22609SOL     OW72511   1.376   6.194   1.797 -0.2305  0.3046  0.2324
22609SOL    HW172512   1.436   6.168   1.867 -1.0535 -1.4265  0.3363
22609SOL    HW272513   1.423   6.174   1.716 -0.0409  0.4796  0.2983
22610SOL     OW72514  10.645   9.041   5.625  0.3410 -0.2506  0.2004
22610SOL    HW172515  10.705   9.108   5.658  0.1969  0.2534 -0.5121
22610SOL    HW272516  10.567   9.050   5.680 -0.2517  1.2009 -0.8090
22611SOL     OW72517   0.295   9.704   8.149 -0.4118 -0.4422 -0.5422
22611SOL    HW172518   0.237   9.655   8.091 -0.7050  0.9228 -1.4639
22611SOL    HW272519   0.250   9.788   8.161  1.0932  0.4304 -0.8126
22612SOL     OW72520   3.361   5.299   3.703  0.0095 -0.3464  0.0930
22612SOL    HW172521   3.390   5.334   3.619 -0.3524 -0.8301 -0.2358
22612SOL    HW272522   3.346   5.377   3.757  0.6632 -0.0509 -0.1417
22613SOL     OW72523   3.990   3.282   6.409 -0.2457  0.2089  0.1667
22613SOL    HW172524   4.019   3.216   6.473  0.9227  1.2654  0.7889
22613SOL    HW272525   3.910   3.246   6.372  0.1933 -1.4179  0.6963
22614SOL     OW72526  11.583   1.865   0.673 -0.7472  0.4379 -0.5321
22614SOL    HW172527  11.634   1.785   0.681 -1.0077  0.4014  1.0222
22614SOL    HW272528  11.497   1.836   0.642 -0.1974  0.3908 -2.1242
22615SOL     OW72529   6.789   5.165   2.026  0.3390 -0.4372 -0.8003
22615SOL    HW172530   6.720   5.183   1.963  0.1770 -0.9048 -0.7606
22615SOL    HW272531   6.746   5.113   2.094  0.4665  0.2083 -0.2131
22616SOL     OW72532   7.567   4.237  11.902 -0.6070 -0.1616  0.8789
22616SOL    HW172533   7.644   4.203  11.857 -1.4945 -1.4604  0.2938
22616SOL    HW272534   7.514   4.160  11.921 -1.3038  0.6023  2.1784
22617SOL     OW72535   9.106   9.129   4.163 -0.0422 -0.2894 -0.0749
22617SOL    HW172536   9.149   9.213   4.177  0.4365 -0.1764 -1.8855
22617SOL    HW272537   9.087   9.128   4.069  0.1936 -2.3069 -0.1348
22618SOL     OW72538   9.069   4.691   1.480  0.2017 -0.3303  0.9978
22618SOL    HW172539   9.149   4.739   1.502  0.9453 -0.9558 -0.2479
22618SOL    HW272540   8.998   4.748   1.509  1.0119 -1.0798  5.0544
22619SOL     OW72541   6.334   3.317   9.982 -0.0762  0.4439  0.2168
22619SOL    HW172542   6.363   3.267  10.059  0.7038 -0.1504 -0.4395
22619SOL    HW272543   6.252   3.358  10.009 -1.2931 -1.9744  0.5030
22620SOL     OW72544   3.344   3.668   0.148 -0.4783  0.1052  0.2858
22620SOL    HW172545   3.397   3.596   0.182  0.1243  0.8303  0.9012
22620SOL    HW272546   3.322   3.641   0.059 -0.9499 -1.2079  0.7817
22621SOL     OW72547   2.223  10.720   4.286 -0.3849  0.5286 -0.0931
22621SOL    HW172548   2.205  10.724   4.192 -0.8131  1.0513  0.0084
22621SOL    HW272549   2.217  10.811   4.316  0.0178  0.4012  0.3943
22622SOL     OW72550   6.149  10.459  10.941 -0.1455 -0.0900  0.2616
22622SOL    HW172551   6.157  10.498  10.854  0.0973 -0.6475  0.0311
22622SOL    HW272552   6.130  10.367  10.925 -2.9282  0.3133  0.8051
22623SOL     OW72553   4.119  10.205   6.591  0.4474  0.5850  0.5383
22623SOL    HW172554   4.083  10.273   6.648 -0.7569  0.8012 -0.4172
22623SOL    HW272555   4.111  10.124   6.642  1.7083  1.1051  1.6058
22624SOL     OW72556  11.200   7.753   4.660 -0.1624  0.0691 -0.9913
22624SOL    HW172557  11.222   7.688   4.594  0.6406  1.1278 -1.7871
22624SOL    HW272558  11.178   7.832   4.610 -1.8886  0.2124 -0.0757
22625SOL     OW72559   0.501   9.127   6.546 -0.0569  0.6901 -0.5181
22625SOL    HW172560   0.570   9.107   6.610  0.9311  0.5298 -1.6014
22625SOL    HW272561   0.431   9.167   6.598  0.2604 -0.4322  0.8199
22626SOL     OW72562   7.003   5.731   1.365  0.7937  0.2406 -0.3248
22626SOL    HW172563   7.098   5.720   1.367  0.7420 -0.6932 -1.3588
22626SOL    HW272564   6.970   5.641   1.361 -0.2244  0.4832  1.7509
22627SOL     OW72565   8.082   5.632   8.763  0.2047 -0.4389 -0.2556
22627SOL    HW172566   8.075   5.715   8.811  0.4250 -0.3753 -0.3321
22627SOL    HW272567   8.177   5.615   8.758  0.1430 -1.1035  0.4690
22628SOL     OW72568   7.470   0.800   0.206 -0.1727 -0.2438  0.1211
22628SOL    HW172569   7.453   0.838   0.292 -0.9763  1.4375 -0.7102
22628SOL    HW272570   7.441   0.868   0.145 -2.2738 -2.4773 -1.5299
22629SOL     OW72571   0.638   3.196   4.691 -0.4817 -0.0505  0.4994
22629SOL    HW172572   0.624   3.179   4.784 -0.5047  1.1117  0.7259
22629SOL    HW272573   0.710   3.259   4.689 -2.0078  1.7739 -0.1160
22630SOL     OW72574   9.822  10.418   3.194  0.4666  0.0650 -1.1566
22630SOL    HW172575   9.742  10.368   3.211  0.0827  0.7086 -1.0575
22630SOL    HW272576   9.890  10.373   3.244 -0.0997  0.3014 -0.1563
22631SOL     OW72577   6.679   2.185  10.210  0.0826  0.0203 -0.7477
22631SOL    HW172578   6.731   2.151  10.137  0.1147 -0.2192 -0.6140
22631SOL    HW272579   6.744   2.215  10.273  0.1565 -2.4967  0.5002
22632SOL     OW72580  11.477  11.066   0.489 -0.3484 -0.3176 -0.3396
22632SOL    HW172581  11.439  11.118   0.560 -0.9295  0.7331 -1.3946
22632SOL    HW272582  11.567  11.098   0.482 -0.5876  0.2791 -0.7279
22633SOL     OW72583   6.693  10.042   6.847 -0.2328  0.0915  0.1004
22633SOL    HW172584   6.606  10.006   6.864 -0.0061 -0.4428  0.1585
22633SOL    HW272585   6.696  10.055   6.752 -1.1496  2.1618  0.3007
22634SOL     OW72586   8.805   4.223   8.500 -0.1000 -0.4425 -0.0225
22634SOL    HW172587   8.828   4.254   8.587 -0.2418 -2.2006  0.6780
22634SOL    HW272588   8.839   4.291   8.441  1.6494 -0.1079  1.2932
22635SOL     OW72589  11.511   1.368   2.343  0.4304 -0.0371 -0.2231
22635SOL    HW172590  11.567   1.445   2.351 -0.7919  0.7632  1.2001
22635SOL    HW272591  11.444   1.393   2.280 -0.0575  0.1325  0.3568
22636SOL     OW72592  11.687   1.702   8.185 -0.0837 -0.6072  0.2911
22636SOL    HW172593  11.595   1.719   8.166 -0.4514 -2.5433  0.2055
22636SOL    HW272594  11.724   1.789   8.201 -1.1782  0.5810 -2.8438
22637SOL     OW72595   7.921   6.743   9.309 -0.6662  0.0211  0.0431
22637SOL    HW172596   7.883   6.742   9.222 -0.2013 -0.1185 -0.1645
22637SOL    HW272597   7.862   6.689   9.362 -0.8344 -0.0685 -0.2346
22638SOL     OW72598   4.146  11.304   8.791  0.1012 -0.3427 -1.5157
22638SOL    HW172599   4.234  11.268   8.790 -0.0519 -1.0046  0.9493
22638SOL    HW272600   4.089  11.227   8.796 -0.3160  0.0054  1.8319
22639SOL     OW72601   2.237   0.560   5.609 -0.1664  0.1279 -0.4740
22639SOL    HW172602   2.284   0.634   5.571  1.8414 -0.8516 -0.0478
22639SOL    HW272603   2.253   0.568   5.703 -1.8551  0.3877 -0.1849
22640SOL     OW72604   0.620  10.471   9.365  0.2942  0.3527 -0.0582
22640SOL    HW172605   0.657  10.413   9.432  0.6756  1.0301  0.3273
22640SOL    HW272606   0.686  10.473   9.297  0.4378  0.6146  0.0892
22641SOL     OW72607   9.694   3.979   2.319 -0.0266  0.1932 -0.5082
22641SOL    HW172608   9.759   3.987   2.249 -0.4264 -1.6313 -1.1469
22641SOL    HW272609   9.709   4.055   2.375  0.6912  1.3931 -2.2513
22642SOL     OW72610   3.294  10.249   5.281  0.0477  0.1107 -0.0183
22642SOL    HW172611   3.236  10.313   5.322  0.3705 -0.9401  2.2804
22642SOL    HW272612   3.256  10.164   5.305  1.7996 -0.5824  0.4778
22643SOL     OW72613   6.416   9.880  11.725  0.4785 -0.8230 -0.0894
22643SOL    HW172614   6.358   9.811  11.759  0.0975 -0.9268 -0.9328
22643SOL    HW272615   6.447   9.846  11.642  0.5189 -0.0964 -0.3748
22644SOL     OW72616  11.266   0.363  10.982 -0.7386 -0.1430 -0.2071
22644SOL    HW172617  11.326   0.415  10.929  3.0346 -2.9947  0.8232
22644SOL    HW272618  11.183   0.366  10.934  0.1455  3.8890 -1.8606
22645SOL     OW72619   3.995   5.246   1.689  0.4571  0.2823 -0.0318
22645SOL    HW172620   3.952   5.291   1.761 -1.3015 -0.0711 -0.8164
22645SOL    HW272621   4.045   5.314   1.644 -0.2525  0.9512  0.1893
22646SOL     OW72622   0.024   9.102   2.316 -0.0971  0.0434  0.1181
22646SOL    HW172623   0.086   9.081   2.247  0.9640  1.1202  0.7044
22646SOL    HW272624  -0.024   9.177   2.284  0.9560  1.0603  0.8366
22647SOL     OW72625  11.969  10.653   4.467 -0.2765  0.7016 -0.1551
22647SOL    HW172626  12.027  10.727   4.449  0.3254  0.1241 -0.6610
22647SOL    HW272627  11.969  10.645   4.562  0.0622  1.0289 -0.1248
22648SOL     OW72628  11.909   3.258   6.341  0.4114 -0.1441 -0.3024
22648SOL    HW172629  12.004   3.253   6.337  0.4610  0.7198 -0.2598
22648SOL    HW272630  11.883   3.304   6.261  0.1019  0.5036  0.1624
22649SOL     OW72631   8.378   6.336   0.432  0.0705 -0.4028 -0.4500
22649SOL    HW172632   8.376   6.286   0.513  0.4402 -0.1206 -0.2637
22649SOL    HW272633   8.451   6.298   0.382  1.2444  0.8342  0.2752
22650SOL     OW72634   1.968  11.906   2.305 -0.5106 -0.3303  0.3171
22650SOL    HW172635   2.033  11.858   2.254 -0.2467 -0.2174  0.5475
22650SOL    HW272636   1.914  11.949   2.239  0.2036  0.3115  0.1374
22651SOL     OW72637   6.463   4.747   3.707 -0.0550 -0.0970 -0.5088
22651SOL    HW172638   6.529   4.741   3.777  1.0059 -1.2312 -1.5641
22651SOL    HW272639   6.438   4.840   3.705  0.9014  0.1984  0.4559
22652SOL     OW72640  11.920   5.255   1.449  0.2255 -0.5041 -0.0708
22652SOL    HW172641  11.955   5.222   1.531  0.1768  0.1884  0.2330
22652SOL    HW272642  11.891   5.177   1.402  1.6566 -1.0534 -0.0995
22653SOL     OW72643   7.231   9.509  10.649  0.7216 -0.2732  0.3111
22653SOL    HW172644   7.219   9.543  10.560 -0.7869  0.9583  0.9396
22653SOL    HW272645   7.249   9.587  10.702  1.2946 -0.9527  1.1410
22654SOL     OW72646   4.084   7.284   6.111  0.1962 -0.0689  0.4081
22654SOL    HW172647   4.101   7.238   6.029  0.3730 -2.2961  1.6157
22654SOL    HW272648   4.081   7.377   6.086  2.8201 -0.4115 -1.6938
22655SOL     OW72649   8.027   5.109   2.875  0.3568 -0.0351  0.5084
22655SOL    HW172650   7.960   5.076   2.936 -1.3820  1.8135 -0.2930
22655SOL    HW272651   8.064   5.185   2.919  1.6988 -0.8095  0.7655
22656SOL     OW72652   1.484  11.935   8.102 -0.0874 -0.0933 -0.1248
22656SOL    HW172653   1.474  11.933   8.007 -0.7080 -1.2670 -0.0516
22656SOL    HW272654   1.452  11.850   8.131  1.3504 -0.2754  1.0174
22657SOL     OW72655   0.964   2.126   9.369  0.1552  0.7684  0.6829
22657SOL    HW172656   0.944   2.037   9.398 -2.1212  0.4331 -1.5286
22657SOL    HW272657   1.021   2.114   9.293  2.3273  1.4057  2.1385
22658SOL     OW72658   7.798   4.259   7.875  0.2524 -0.3828  0.3298
22658SOL    HW172659   7.734   4.228   7.938  0.9432  0.6139  1.5740
22658SOL    HW272660   7.862   4.307   7.927  1.1400  0.0247 -1.0675
22659SOL     OW72661   4.559   3.539   5.314 -0.3442  0.2029 -0.4737
22659SOL    HW172662   4.639   3.531   5.366 -0.4194  1.3282 -0.1458
22659SOL    HW272663   4.588   3.528   5.224  0.4279  1.8096 -0.4689
22660SOL     OW72664   9.160   9.287   7.846  0.0205  0.4798  0.1040
22660SOL    HW172665   9.243   9.321   7.814 -1.2856  3.0560 -0.8496
22660SOL    HW272666   9.138   9.343   7.921 -1.4955  0.7954 -0.5459
22661SOL     OW72667   9.121   1.651   2.212 -0.6759 -0.2133 -0.1381
22661SOL    HW172668   9.179   1.606   2.273 -1.3864  0.7524  1.3286
22661SOL    HW272669   9.168   1.732   2.189 -0.1651 -0.8290 -1.3645
22662SOL     OW72670   1.138   2.416   1.020  0.0496 -0.6217  0.2073
22662SOL    HW172671   1.066   2.450   1.073 -1.2249 -0.5505 -1.4970
22662SOL    HW272672   1.177   2.347   1.073 -0.4803  0.1734  1.6700
22663SOL     OW72673   5.504   0.631   2.886 -0.4061 -0.5471  0.3018
22663SOL    HW172674   5.594   0.654   2.908 -0.6144  0.9377 -0.2823
22663SOL    HW272675   5.469   0.594   2.967  1.0263 -2.2117  0.2231
22664SOL     OW72676   5.677   8.126   5.327  0.2965  0.2162  0.0514
22664SOL    HW172677   5.714   8.044   5.294  1.2770  0.7012 -0.0724
22664SOL    HW272678   5.725   8.144   5.408  2.2784  2.2013 -1.4261
22665SOL     OW72679   3.046  10.865   4.773 -0.1596 -0.0289 -0.0754
22665SOL    HW172680   2.991  10.859   4.851  0.1777  0.0140  0.1716
22665SOL    HW272681   3.090  10.780   4.768  2.8492  1.1821  2.0976
22666SOL     OW72682   1.792   5.862   9.523 -0.4835  0.3653 -0.2561
22666SOL    HW172683   1.742   5.782   9.541  1.1273 -0.6633 -0.1267
22666SOL    HW272684   1.863   5.860   9.587 -0.4092  1.9086 -0.2681
22667SOL     OW72685   5.427   9.472   2.471 -0.1218 -0.1947  0.0807
22667SOL    HW172686   5.359   9.526   2.431  0.2283  0.6148  0.5452
22667SOL    HW272687   5.450   9.518   2.552  0.3181 -0.9506  0.4041
22668SOL     OW72688   6.600   8.185   7.422  0.2025  0.2731 -0.1473
22668SOL    HW172689   6.589   8.272   7.386  0.4407 -0.4786 -2.1339
22668SOL    HW272690   6.694   8.167   7.414  0.0532 -0.4231 -0.4075
22669SOL     OW72691  11.258  11.744   3.989  0.0241  0.3557  0.0901
22669SOL    HW172692  11.277  11.679   4.056 -1.0041 -0.6944 -0.5928
22669SOL    HW272693  11.214  11.695   3.920 -0.5534  1.7372 -0.5689
22670SOL     OW72694   9.389   4.218   0.501 -0.4310 -0.3781 -0.6578
22670SOL    HW172695   9.366   4.311   0.508 -0.8144 -0.4731 -0.6236
22670SOL    HW272696   9.370   4.196   0.410 -0.3127 -0.4175 -0.6731
22671SOL     OW72697  11.849   1.737   4.556  0.5447  0.0532 -0.1977
22671SOL    HW172698  11.792   1.806   4.588  0.1019 -0.4524  0.1236
22671SOL    HW272699  11.898   1.777   4.484 -1.9287 -0.1377 -2.1224
22672SOL     OW72700   5.131   1.218   2.182  0.0387 -0.2436  0.0338
22672SOL    HW172701   5.114   1.197   2.273 -0.7942 -1.5539 -0.3993
22672SOL    HW272702   5.221   1.188   2.167  0.5835  0.9688  0.6710
22673SOL     OW72703  10.510   3.153   4.720 -0.1398  0.0004 -0.7773
22673SOL    HW172704  10.528   3.238   4.682 -1.1880  0.5148 -0.1706
22673SOL    HW272705  10.420   3.159   4.753 -0.3105 -1.3993 -0.8956
22674SOL     OW72706   4.943   8.492  10.226  0.0891  0.0072 -0.7585
22674SOL    HW172707   4.905   8.549  10.159  1.1755  0.8856 -0.6607
22674SOL    HW272708   4.869   8.445  10.263 -0.8294  1.2812 -0.9167
22675SOL     OW72709   2.537  11.234   4.536 -0.2493  0.5737  0.2432
22675SOL    HW172710   2.519  11.328   4.544  0.6211  0.6914  1.0772
22675SOL    HW272711   2.510  11.212   4.447 -1.2371  1.4313  0.3103
22676SOL     OW72712   0.383   0.303   7.509  0.1869 -0.2801 -0.6081
22676SOL    HW172713   0.368   0.334   7.599  0.3155 -1.2117 -0.2500
22676SOL    HW272714   0.403   0.210   7.520  1.5492 -0.1093 -1.4900
22677SOL     OW72715   8.368   3.167   2.700  0.0326  0.0076 -0.0492
22677SOL    HW172716   8.374   3.243   2.642 -0.4164  0.9950  1.1434
22677SOL    HW272717   8.334   3.097   2.644 -0.5488  0.9610 -0.9309
22678SOL     OW72718   8.325   9.208   3.092 -0.6344  0.5645  0.1552
22678SOL    HW172719   8.403   9.258   3.116 -1.1704  1.4330  0.1244
22678SOL    HW272720   8.332   9.195   2.998  0.0174 -0.3278  0.3118
22679SOL     OW72721   8.435   2.760   4.268 -0.3932 -0.1047 -0.3726
22679SOL    HW172722   8.492   2.785   4.195 -0.6157  1.6606  0.0067
22679SOL    HW272723   8.393   2.679   4.239  2.4171 -1.6147 -0.5819
22680SOL     OW72724   2.435   1.029   4.200 -0.4570  0.3410 -0.3472
22680SOL    HW172725   2.340   1.040   4.192 -0.4037  0.2203 -1.2683
22680SOL    HW272726   2.446   0.937   4.221 -0.6052  0.6750  1.3332
22681SOL     OW72727  11.852   9.302   5.220 -0.4446  0.2432  0.6362
22681SOL    HW172728  11.814   9.389   5.205 -1.4640 -0.0882  1.1882
22681SOL    HW272729  11.928   9.298   5.161 -2.2899  0.2595 -1.9331
22682SOL     OW72730   0.271   6.830   0.397  0.0913  0.4457 -0.3986
22682SOL    HW172731   0.201   6.870   0.346 -0.1853 -0.5150 -0.7798
22682SOL    HW272732   0.322   6.780   0.334  1.3414  1.3859 -0.1875
22683SOL     OW72733  11.422  10.056   4.192 -0.1147 -0.8821  0.3473
22683SOL    HW172734  11.355  10.046   4.124  1.2210  1.3601 -1.4362
22683SOL    HW272735  11.501  10.081   4.144  0.9469  0.5984  2.7133
22684SOL     OW72736   4.595   5.599  10.060 -0.0401 -0.2712  0.3641
22684SOL    HW172737   4.677   5.642  10.084 -0.0477 -0.0606  0.0167
22684SOL    HW272738   4.577   5.629   9.971 -1.1104  0.6386  0.8611
22685SOL     OW72739   6.260   1.892   9.575 -0.3256 -0.2038  0.0892
22685SOL    HW172740   6.287   1.884   9.484 -0.9334  1.1331 -0.2376
22685SOL    HW272741   6.213   1.811   9.593  1.2938 -1.2533 -0.2251
22686SOL     OW72742   9.406   7.997   9.498 -0.3224  0.2218  0.6300
22686SOL    HW172743   9.453   8.077   9.477 -0.4128  0.2524  0.5498
22686SOL    HW272744   9.320   8.007   9.458  0.2679 -0.6819 -0.9222
22687SOL     OW72745   1.225   7.148   5.607  0.1607 -0.3806  0.4431
22687SOL    HW172746   1.160   7.153   5.537 -0.9002 -2.0346  1.2487
22687SOL    HW272747   1.308   7.172   5.565 -0.4839 -1.1069 -1.3129
22688SOL     OW72748   0.092   2.736   9.728 -0.7733  0.2615  0.1589
22688SOL    HW172749   0.150   2.767   9.658 -0.6088 -0.7140 -0.1634
22688SOL    HW272750   0.061   2.815   9.771 -0.2304  0.8498 -0.5056
22689SOL     OW72751   0.986   4.193   7.315 -0.7067  0.6628  0.0653
22689SOL    HW172752   0.990   4.111   7.364 -2.1023  0.9313  0.6731
22689SOL    HW272753   0.968   4.166   7.225 -0.6483  0.2704  0.1693
22690SOL     OW72754  10.522  10.262   4.368 -0.3359  0.3402  0.5271
22690SOL    HW172755  10.579  10.187   4.358  1.6235  1.4869  2.2489
22690SOL    HW272756  10.493  10.283   4.280 -0.6497 -2.1573 -0.0334
22691SOL     OW72757  11.496   7.077   6.264 -0.3861  0.2553 -0.2336
22691SOL    HW172758  11.468   7.149   6.207  1.8323  0.2467 -1.4602
22691SOL    HW272759  11.535   7.013   6.204  0.9695 -0.2871  1.1675
22692SOL     OW72760   0.016   5.024   5.415 -0.6470  0.3967  0.3213
22692SOL    HW172761  -0.018   4.958   5.354 -0.3145 -0.1978  0.7679
22692SOL    HW272762  -0.056   5.086   5.425 -0.4431  0.9626 -1.2927
22693SOL     OW72763   3.558   0.721   8.478 -0.1136  0.4832 -0.0591
22693SOL    HW172764   3.554   0.701   8.571 -0.7974  0.3002 -0.1208
22693SOL    HW272765   3.478   0.683   8.442  1.1888 -1.4252 -1.0974
22694SOL     OW72766  10.034  10.036   3.716 -0.4089  0.2231  0.0373
22694SOL    HW172767   9.998   9.970   3.657 -0.6480 -0.9178  1.3826
22694SOL    HW272768  10.112  10.069   3.671 -0.8281 -0.2950 -1.0894
22695SOL     OW72769   5.106   5.433   0.997  0.7921 -0.2172  0.1920
22695SOL    HW172770   5.085   5.340   1.011  1.2847 -0.3491  0.0495
22695SOL    HW272771   5.029   5.467   0.951  0.1582 -0.3108  1.1395
22696SOL     OW72772   8.454   5.082   8.470 -0.5202 -0.6103 -0.3087
22696SOL    HW172773   8.473   5.078   8.376  2.1371  1.4115  0.0363
22696SOL    HW272774   8.367   5.122   8.474 -1.0764 -1.5207 -1.8635
22697SOL     OW72775   0.609  11.624   0.216  0.3807  0.1054  0.4228
22697SOL    HW172776   0.664  11.689   0.260  1.6112 -0.9607  0.5183
22697SOL    HW272777   0.660  11.598   0.139  0.5153 -1.6933  1.0803
22698SOL     OW72778   1.551  10.931  10.341 -0.2482  0.0589  0.0003
22698SOL    HW172779   1.521  10.879  10.415 -1.3668  1.4617  0.5718
22698SOL    HW272780   1.610  10.873  10.293 -1.6371 -1.8198  0.4544
22699SOL     OW72781   8.579  10.971   0.611  0.1865  0.2074  0.0880
22699SOL    HW172782   8.625  10.984   0.694 -0.1624 -0.7605  0.4484
22699SOL    HW272783   8.553  11.059   0.585 -0.1919  0.4807  1.2992
22700SOL     OW72784   5.657  11.364   2.466 -0.5066 -0.1076  0.6961
22700SOL    HW172785   5.638  11.275   2.439 -0.8066  0.5083 -1.2989
22700SOL    HW272786   5.609  11.419   2.404 -0.3742  1.4515  1.8999
22701SOL     OW72787   5.028   3.890   6.868  0.7761 -0.1593 -0.0211
22701SOL    HW172788   5.045   3.810   6.917  0.7144  0.3011  0.7583
22701SOL    HW272789   5.060   3.961   6.924  0.1360  0.4189 -0.3647
22702SOL     OW72790   4.385   5.309   4.896 -0.4251 -0.1511 -0.3150
22702SOL    HW172791   4.380   5.271   4.808  2.3039  0.0183 -0.6060
22702SOL    HW272792   4.455   5.261   4.939 -0.9739  0.5246  1.4061
22703SOL     OW72793   0.284   8.994   4.037 -0.1142 -0.2173 -0.3742
22703SOL    HW172794   0.365   8.946   4.058 -1.2913 -2.0373  0.2416
22703SOL    HW272795   0.231   8.930   3.990 -1.6860  0.5550  0.3027
22704SOL     OW72796   5.858  10.344   1.123  0.6474 -0.0501  0.2335
22704SOL    HW172797   5.835  10.380   1.209  2.1981  1.4647  0.0724
22704SOL    HW272798   5.804  10.392   1.061 -0.3113 -0.9883  0.3198
22705SOL     OW72799   3.005   9.266   2.514 -0.0090  0.6116 -0.3039
22705SOL    HW172800   3.001   9.189   2.457 -0.6198  1.1014 -0.9349
22705SOL    HW272801   3.098   9.275   2.535  0.2061  0.3292 -1.0877
22706SOL     OW72802  11.393   7.041   7.709 -0.3704 -0.5990 -0.3116
22706SOL    HW172803  11.324   6.990   7.750  1.0255 -1.4854  1.0437
22706SOL    HW272804  11.470   6.984   7.712  0.6504  0.6874 -0.9631
22707SOL     OW72805   2.219  10.808   5.191 -0.3566 -0.0572 -0.1468
22707SOL    HW172806   2.137  10.758   5.192  0.4725 -1.4417  0.6130
22707SOL    HW272807   2.279  10.756   5.138  0.1028  0.8642 -0.5564
22708SOL     OW72808   8.516   3.312   4.939  0.4349  0.0868  0.2183
22708SOL    HW172809   8.459   3.373   4.986  0.2242  2.1520 -2.4783
22708SOL    HW272810   8.456   3.252   4.895  0.5659 -0.5518  0.8820
22709SOL     OW72811   0.294   0.475   4.976  0.6265  0.0048  0.1799
22709SOL    HW172812   0.298   0.553   5.030 -2.7796 -0.0223  0.6516
22709SOL    HW272813   0.222   0.491   4.915  0.8349 -2.1669 -0.7348
22710SOL     OW72814  10.369   1.607   1.259  0.3972 -0.2360  0.8158
22710SOL    HW172815  10.418   1.584   1.180  0.3089  3.1896 -0.4159
22710SOL    HW272816  10.277   1.607   1.232 -0.0260 -2.6532  2.0176
22711SOL     OW72817   7.664   6.818   4.289  0.0467 -0.0671 -0.6849
22711SOL    HW172818   7.744   6.870   4.281  0.5336 -0.5800  0.5555
22711SOL    HW272819   7.623   6.823   4.203  0.7154  1.3348 -0.9431
22712SOL     OW72820  10.490   9.470   3.395 -0.2999  0.2717 -0.5782
22712SOL    HW172821  10.481   9.389   3.446  0.5623  0.0431 -0.7789
22712SOL    HW272822  10.425   9.461   3.326  0.6855 -0.8742 -1.3956
22713SOL     OW72823   9.718   2.838   9.372  0.4465 -0.2325  0.1508
22713SOL    HW172824   9.774   2.760   9.364  0.4348 -0.2891  0.5861
22713SOL    HW272825   9.780   2.912   9.372  0.8062 -0.3837  3.0843
22714SOL     OW72826   5.988   2.603   0.019  0.2155  0.0491 -0.2677
22714SOL    HW172827   5.896   2.579   0.027  0.3989 -1.0920 -1.2674
22714SOL    HW272828   6.017   2.617   0.110 -0.8511  0.1466  0.0783
22715SOL     OW72829   1.860   0.313  10.333  0.5214 -0.0383  0.1714
22715SOL    HW172830   1.923   0.370  10.378  0.5444 -0.0347  0.1348
22715SOL    HW272831   1.824   0.368  10.263  0.6106 -0.0968  0.0788
22716SOL     OW72832   8.519   5.267  11.083 -0.0451 -0.1808  0.6853
22716SOL    HW172833   8.495   5.175  11.081  1.6172 -0.6716 -1.5798
22716SOL    HW272834   8.615   5.267  11.088  0.0080  1.4104  0.4978
22717SOL     OW72835   5.278  10.115   6.978 -0.3055 -0.2876 -0.4503
22717SOL    HW172836   5.192  10.097   7.015 -0.1340 -1.3434 -0.5220
22717SOL    HW272837   5.278  10.069   6.894  0.7732 -1.4334  0.1342
22718SOL     OW72838  10.044   1.113   9.697 -0.0903  0.6380  0.4458
22718SOL    HW172839  10.109   1.161   9.746  0.1271  0.7213  0.0800
22718SOL    HW272840  10.082   1.026   9.685  0.7278  1.1980 -1.2655
22719SOL     OW72841   9.991   1.904  11.949 -0.8573 -0.0767  0.0135
22719SOL    HW172842   9.923   1.960  11.911 -0.2252  0.5157 -0.2669
22719SOL    HW272843   9.982   1.820  11.904 -2.9629 -0.8205  1.6541
22720SOL     OW72844   5.274   0.448   5.721 -0.0528 -0.1977 -0.4048
22720SOL    HW172845   5.307   0.479   5.636  1.1569  1.3416  0.5783
22720SOL    HW272846   5.294   0.518   5.782 -3.6129  0.0830  0.6809
22721SOL     OW72847   2.677   3.493  11.543 -0.8680 -0.6899 -0.0027
22721SOL    HW172848   2.630   3.521  11.465 -0.1028  3.8189  0.8527
22721SOL    HW272849   2.769   3.489  11.515 -0.8570 -1.6493  0.1312
22722SOL     OW72850  10.581   8.006   3.400 -0.1126 -0.1760  0.0410
22722SOL    HW172851  10.591   8.073   3.468 -1.1246 -0.5249  0.5486
22722SOL    HW272852  10.666   8.005   3.355  0.0112  1.2579  0.1898
22723SOL     OW72853   7.331   8.026   7.642 -0.2449 -0.6848  0.1557
22723SOL    HW172854   7.277   7.981   7.576 -0.1722 -1.8938  0.8772
22723SOL    HW272855   7.351   8.111   7.604 -0.7141 -1.1272 -1.1132
22724SOL     OW72856   6.590   7.954  10.046  0.0894  0.0125 -0.0921
22724SOL    HW172857   6.652   7.949   9.973 -0.6905  0.1510 -0.7834
22724SOL    HW272858   6.504   7.957  10.004 -0.5549 -2.4661  0.8643
22725SOL     OW72859  11.792  11.295  10.041  0.0954  0.3109 -0.2786
22725SOL    HW172860  11.717  11.345  10.011  0.0072  0.0456 -0.5076
22725SOL    HW272861  11.753  11.223  10.092  0.1545 -0.2278 -0.9830
22726SOL     OW72862   1.225   8.309   9.405 -0.0606 -0.0260  0.3748
22726SOL    HW172863   1.162   8.262   9.460 -1.5572 -0.5593 -1.6811
22726SOL    HW272864   1.296   8.246   9.392  0.1114 -0.0414  1.3148
22727SOL     OW72865  11.048   9.492   0.966 -0.0514 -0.0235  0.6358
22727SOL    HW172866  11.035   9.534   0.881 -0.9748 -1.6663 -0.0871
22727SOL    HW272867  11.005   9.550   1.028  1.5737  1.7670  0.1932
22728SOL     OW72868   9.045   7.998   2.105 -0.2017  0.1137  0.1669
22728SOL    HW172869   9.114   7.940   2.137 -1.5367 -0.2973  2.5543
22728SOL    HW272870   9.057   7.999   2.010  1.6424 -1.7657  0.2930
22729SOL     OW72871   4.671   3.164   5.805 -0.1222  0.4121  0.0905
22729SOL    HW172872   4.727   3.088   5.790 -0.9310  0.0526 -1.2804
22729SOL    HW272873   4.648   3.194   5.717 -1.6105  0.9040  0.6204
22730SOL     OW72874   0.694   8.881   8.293 -0.2910 -0.1724 -0.0457
22730SOL    HW172875   0.691   8.791   8.325 -0.3474  0.4706  1.9244
22730SOL    HW272876   0.785   8.893   8.264 -0.2401 -0.8039 -0.1603
22731SOL     OW72877   8.234   6.316   8.808  0.4545  0.0418 -0.1337
22731SOL    HW172878   8.277   6.298   8.892 -0.1355  0.1082  0.1891
22731SOL    HW272879   8.285   6.267   8.744  0.0614 -1.1958  0.4599
22732SOL     OW72880   8.859   0.791   2.214  0.3663  0.3547  0.8890
22732SOL    HW172881   8.844   0.814   2.123  1.6407  0.9071  0.7984
22732SOL    HW272882   8.926   0.853   2.244  1.4252 -1.1003  1.6165
22733SOL     OW72883   6.220   1.491   1.362  0.2741  0.6336  0.0785
22733SOL    HW172884   6.234   1.412   1.311  1.1330  0.2205  0.9238
22733SOL    HW272885   6.240   1.466   1.453  0.6906  1.8261  0.3453
22734SOL     OW72886  10.704  10.950   7.716 -0.2786  0.1798  0.3231
22734SOL    HW172887  10.630  10.942   7.777 -0.6591  0.7262 -0.0610
22734SOL    HW272888  10.664  10.979   7.634  0.6522  3.3775  0.8757
22735SOL     OW72889   7.620   7.149   8.830  0.2067  0.1957 -0.2894
22735SOL    HW172890   7.669   7.080   8.874 -0.1382  0.9636  1.3790
22735SOL    HW272891   7.544   7.165   8.886  0.2974  1.9637 -0.5981
22736SOL     OW72892   8.772   6.647   3.924 -0.3597  0.0543 -0.1864
22736SOL    HW172893   8.759   6.604   4.009  0.5864  1.9132  0.9743
22736SOL    HW272894   8.689   6.689   3.905  0.1678  1.8523  1.2055
22737SOL     OW72895   7.657  11.042   9.529 -0.0070 -0.1930  0.3980
22737SOL    HW172896   7.600  10.966   9.538 -0.2859 -0.0087  0.2081
22737SOL    HW272897   7.598  11.114   9.511  0.4170 -0.4069 -2.2270
22738SOL     OW72898   1.052  11.622   1.752  0.2715  0.1034  0.4850
22738SOL    HW172899   1.097  11.680   1.813  2.2606 -2.0166  1.1567
22738SOL    HW272900   0.993  11.570   1.806  0.7241 -0.5513  0.3628
22739SOL     OW72901   4.330   4.349  11.163 -0.2815 -0.6288  0.1796
22739SOL    HW172902   4.416   4.390  11.155  0.4266 -1.9605  0.6310
22739SOL    HW272903   4.283   4.377  11.084  0.4626  0.3244  0.0512
22740SOL     OW72904   5.863   8.182   3.982 -0.7291 -0.5906 -0.1155
22740SOL    HW172905   5.801   8.243   3.942 -1.6745 -1.0219  0.6507
22740SOL    HW272906   5.941   8.235   3.997  0.0513 -0.6195 -3.2984
22741SOL     OW72907   7.638   3.954   7.178 -0.4326  0.0851  0.7608
22741SOL    HW172908   7.688   3.873   7.191  0.3995  0.2098 -1.2956
22741SOL    HW272909   7.633   3.964   7.083 -4.9607 -0.2061  0.7690
22742SOL     OW72910   3.536   5.806   1.787 -0.4414 -0.0103  0.5063
22742SOL    HW172911   3.500   5.894   1.792  3.2025  1.7145 -0.6272
22742SOL    HW272912   3.601   5.802   1.856  0.6527 -1.1667 -0.5494
22743SOL     OW72913   7.641   1.397   5.757  0.1099  0.0083  0.0948
22743SOL    HW172914   7.567   1.433   5.707  0.1145  0.5150  0.4518
22743SOL    HW272915   7.671   1.324   5.703 -0.0233  0.4084 -0.5453
22744SOL     OW72916   0.706   3.407   6.689 -0.1857  0.4322 -0.0238
22744SOL    HW172917   0.617   3.444   6.686 -0.3181  0.0877 -0.6378
22744SOL    HW272918   0.748   3.450   6.763 -1.4522 -0.7418  1.4290
22745SOL     OW72919   3.408   2.204   9.880 -0.0347 -0.3139  0.4642
22745SOL    HW172920   3.426   2.249   9.797  0.2682  0.3350  0.8734
22745SOL    HW272921   3.343   2.137   9.857  0.3543 -0.4269 -0.3786
22746SOL     OW72922  10.701   4.049  10.986 -0.2229 -0.2364 -0.5426
22746SOL    HW172923  10.654   4.030  11.068  3.2443  0.3801  1.8135
22746SOL    HW272924  10.651   4.119  10.945 -2.6309 -1.2403  0.5216
22747SOL     OW72925  10.121   5.921  10.505 -0.6508 -0.2330 -0.1235
22747SOL    HW172926  10.125   5.987  10.437  1.0371 -1.3362 -1.1650
22747SOL    HW272927  10.153   5.966  10.584  2.1348 -0.1545 -1.1835
22748SOL     OW72928   3.638   0.054   2.431  0.8131  0.4378 -0.2756
22748SOL    HW172929   3.719   0.002   2.429  0.5606 -0.3797  3.4374
22748SOL    HW272930   3.568  -0.010   2.423  0.4974  0.8940 -1.2779
22749SOL     OW72931  10.196   5.556   9.981  0.9005  0.1135 -0.3097
22749SOL    HW172932  10.229   5.551  10.071 -0.0492  0.3698  0.0620
22749SOL    HW272933  10.104   5.580   9.991  0.1323 -2.1936 -1.2415
22750SOL     OW72934  10.579   6.337   8.602 -0.2887  0.0830  0.3392
22750SOL    HW172935  10.564   6.341   8.508  0.6737 -2.1557  0.0133
22750SOL    HW272936  10.510   6.391   8.640 -1.4668  0.0146 -1.5821
22751SOL     OW72937  10.695   2.801   7.389 -0.1461 -0.1180  0.5681
22751SOL    HW172938  10.694   2.799   7.293 -0.6662 -1.2588  0.5899
22751SOL    HW272939  10.698   2.895   7.410 -2.2908  0.2932 -0.5639
22752SOL     OW72940   8.601   9.315   8.861 -0.1742  0.9545  0.1873
22752SOL    HW172941   8.665   9.325   8.932 -1.7553  1.6678  1.5832
22752SOL    HW272942   8.532   9.260   8.898 -0.3094  0.0101 -1.3584
22753SOL     OW72943   6.141   1.352  11.391  0.3282  0.2447 -0.0164
22753SOL    HW172944   6.117   1.371  11.482  1.0541  0.3849  0.1472
22753SOL    HW272945   6.150   1.438  11.350  0.1218  0.1828 -0.1981
22754SOL     OW72946   1.370  11.212   6.614 -0.3577  0.1028  0.2725
22754SOL    HW172947   1.368  11.307   6.613 -1.7709  0.0830 -0.0221
22754SOL    HW272948   1.463  11.190   6.603  0.0499  1.4294  0.8546
22755SOL     OW72949   7.370  11.193   9.675 -0.3044  0.1541  0.1504
22755SOL    HW172950   7.312  11.120   9.656  0.5571 -1.0003  1.7408
22755SOL    HW272951   7.336  11.230   9.757  0.1031  0.6247  0.1120
22756SOL     OW72952   4.040   6.082   8.313  1.1211  0.3410  0.1533
22756SOL    HW172953   4.030   6.126   8.397  1.9564 -1.1263  1.0634
22756SOL    HW272954   4.134   6.083   8.296  1.1704 -1.0703  0.2124
22757SOL     OW72955   4.926   2.016  10.982 -0.4095  0.1305 -0.3003
22757SOL    HW172956   4.967   1.934  11.010 -1.7702 -0.1923  0.8428
22757SOL    HW272957   4.833   1.995  10.975 -0.7907  1.5865  0.0602
22758SOL     OW72958   1.595   0.741   7.531  0.4029  0.2795  0.1713
22758SOL    HW172959   1.532   0.748   7.460 -1.6235  0.6917  1.8881
22758SOL    HW272960   1.642   0.659   7.515 -1.0360 -0.3790 -0.8402
22759SOL     OW72961   3.225   1.116   0.799  0.6023 -0.1008 -0.4089
22759SOL    HW172962   3.191   1.027   0.808 -1.2393  0.6111 -0.0484
22759SOL    HW272963   3.314   1.104   0.764  0.3776 -2.0619 -0.3985
22760SOL     OW72964   9.881   0.948   6.847 -0.5957 -0.2582  0.0281
22760SOL    HW172965   9.829   0.897   6.785 -0.4492  1.0718 -1.2360
22760SOL    HW272966   9.926   0.883   6.900 -1.2713 -1.4312 -0.8013
22761SOL     OW72967   2.393   3.706   0.127  0.0264  1.0613 -0.3386
22761SOL    HW172968   2.366   3.627   0.081  0.7541  0.9742 -0.6373
22761SOL    HW272969   2.433   3.760   0.058  0.9694  1.0074  0.1439
22762SOL     OW72970  10.227   0.204   7.203 -0.1987 -0.1895  0.4801
22762SOL    HW172971  10.227   0.147   7.279 -3.4673 -1.3333 -0.2131
22762SOL    HW272972  10.231   0.293   7.240 -1.6093 -0.7104  2.0394
22763SOL     OW72973  10.239  10.386  11.312  0.1314 -0.0874  0.4449
22763SOL    HW172974  10.169  10.445  11.341  0.2596  1.3031 -1.7874
22763SOL    HW272975  10.195  10.324  11.254  0.5972  0.3301 -0.3764
22764SOL     OW72976   5.760   6.420   5.861 -0.5928  0.3310  0.1060
22764SOL    HW172977   5.707   6.382   5.791 -0.6329 -0.6817  0.6626
22764SOL    HW272978   5.841   6.368   5.861 -0.8628 -0.1220  1.2163
22765SOL     OW72979  10.273   7.296   2.994  0.2526  0.5279  0.3900
22765SOL    HW172980  10.300   7.218   2.946 -0.0207  1.8265 -2.0107
22765SOL    HW272981  10.196   7.268   3.043 -2.2294  0.0664 -3.3672
22766SOL     OW72982   8.386   9.036   8.677  1.0049 -0.0106 -0.3979
22766SOL    HW172983   8.471   8.995   8.660  1.2529  0.0443  0.6132
22766SOL    HW272984   8.392   9.066   8.768  0.4618  1.3676 -0.7889
22767SOL     OW72985   5.891   7.890   9.359  0.1421 -0.4218  0.7421
22767SOL    HW172986   5.831   7.819   9.382  0.7597 -0.6555  1.6843
22767SOL    HW272987   5.839   7.949   9.304 -0.7790 -0.8962  1.0884
22768SOL     OW72988   7.808   7.004   2.232 -0.1391  0.2001 -0.4126
22768SOL    HW172989   7.867   6.986   2.158 -0.0034 -1.2999  0.0234
22768SOL    HW272990   7.720   6.986   2.198 -0.2525  1.1928 -0.6872
22769SOL     OW72991   2.538   9.790   4.399  0.4367 -0.4584  0.4857
22769SOL    HW172992   2.490   9.759   4.476 -0.5768  0.5888  0.3036
22769SOL    HW272993   2.588   9.865   4.430 -0.3613  0.2757  0.0313
22770SOL     OW72994   2.224   3.336   3.509  0.1845  0.2109  0.4118
22770SOL    HW172995   2.253   3.246   3.525  1.0433  0.3931 -0.0145
22770SOL    HW272996   2.200   3.337   3.417 -2.4145 -0.2338  1.0254
22771SOL     OW72997  11.194   3.657   7.689 -0.4375 -0.4547 -0.3863
22771SOL    HW172998  11.252   3.727   7.720  0.3663 -1.4531  0.4443
22771SOL    HW272999  11.123   3.656   7.753 -0.6738 -0.1292 -0.6385
22772SOL     OW73000   5.641   1.050   8.184 -0.1146 -0.6600 -0.1310
22772SOL    HW173001   5.614   1.077   8.272  0.8844 -0.1560  0.0372
22772SOL    HW273002   5.722   1.098   8.168 -0.5201 -0.4072 -1.5231
22773SOL     OW73003   7.425   3.282   5.401  0.2620  0.4532  0.1876
22773SOL    HW173004   7.375   3.353   5.440 -1.1006 -0.3136 -0.0829
22773SOL    HW273005   7.476   3.246   5.473 -1.5851 -0.4026  1.1356
22774SOL     OW73006   9.501   2.242   7.420  0.0762 -0.5167 -0.9745
22774SOL    HW173007   9.470   2.152   7.432 -4.0402  0.6887 -0.9604
22774SOL    HW273008   9.526   2.270   7.507  1.3161 -1.5634 -0.9620
22775SOL     OW73009   7.762   5.587   4.126  0.0012  0.1558 -0.0994
22775SOL    HW173010   7.825   5.630   4.183  0.4662  0.1606 -0.6101
22775SOL    HW273011   7.719   5.523   4.182  0.8563 -0.2397  0.1238
22776SOL     OW73012   6.753   5.788  10.733  0.4530 -0.3067  0.7388
22776SOL    HW173013   6.838   5.803  10.775  0.4557  2.4912 -0.0644
22776SOL    HW273014   6.691   5.780  10.805  1.2911 -2.0753  1.3276
22777SOL     OW73015   0.301   2.193  10.802  0.5944 -0.2097  0.4972
22777SOL    HW173016   0.293   2.148  10.718 -2.5159 -0.7385  0.9983
22777SOL    HW273017   0.274   2.283  10.783 -0.1248 -0.3328  0.9404
22778SOL     OW73018   0.646   7.216   4.695 -0.3427 -0.0278  0.0391
22778SOL    HW173019   0.725   7.192   4.648 -0.6967 -0.8292 -0.1570
22778SOL    HW273020   0.627   7.141   4.751 -0.8728  0.2207  0.2031
22779SOL     OW73021   9.118   5.652   2.964 -0.2146  0.0933 -0.0802
22779SOL    HW173022   9.134   5.640   2.870  0.5234  1.2671 -0.1281
22779SOL    HW273023   9.205   5.655   3.003 -0.5347 -2.0836  0.9150
22780SOL     OW73024   0.040   6.915   7.129  0.5906  0.9766 -0.3938
22780SOL    HW173025   0.133   6.897   7.143  0.6465  1.7395  0.3579
22780SOL    HW273026   0.003   6.833   7.098  1.3329  0.3787  0.2656
22781SOL     OW73027   6.081   3.747   0.864  0.1842 -0.1931  0.3909
22781SOL    HW173028   6.071   3.835   0.900 -0.6508 -0.5998  1.2083
22781SOL    HW273029   6.059   3.755   0.772  1.5279  0.7157  0.1193
22782SOL     OW73030  11.420   8.339  10.458 -0.0150  0.2913 -0.9029
22782SOL    HW173031  11.432   8.349  10.364 -0.6150  1.8740 -0.8446
22782SOL    HW273032  11.506   8.355  10.496  0.0333  0.5606 -1.1275
22783SOL     OW73033  11.248   4.761   3.669 -0.1182  0.0460 -0.0409
22783SOL    HW173034  11.252   4.853   3.643 -1.6976  0.0556 -0.3372
22783SOL    HW273035  11.285   4.713   3.595 -0.8893  0.3430 -0.6241
22784SOL     OW73036   6.521   0.835   8.698 -0.0094 -0.2076  0.1497
22784SOL    HW173037   6.505   0.888   8.620 -0.1442  0.3285  0.5359
22784SOL    HW273038   6.496   0.746   8.672  0.6891 -0.1777 -0.6573
22785SOL     OW73039  10.927   3.222   7.432  0.0824 -0.2341  0.0361
22785SOL    HW173040  11.022   3.210   7.436  0.2422  1.1726  0.9855
22785SOL    HW273041  10.907   3.286   7.500 -1.3151  0.8939 -1.3480
22786SOL     OW73042   6.584   9.100  11.566  0.2506 -0.3834  0.1859
22786SOL    HW173043   6.658   9.042  11.548  0.4247  0.4614 -2.1740
22786SOL    HW273044   6.509   9.041  11.578  0.5960 -1.1546 -1.2461
22787SOL     OW73045   8.294   3.131  10.049  0.2018  0.1651 -0.0662
22787SOL    HW173046   8.216   3.184  10.059  1.3398  2.1725 -1.2467
22787SOL    HW273047   8.309   3.126   9.954  1.0278 -0.9487  0.0904
22788SOL     OW73048   6.221   8.903   8.756  0.3959  0.2238  0.3844
22788SOL    HW173049   6.131   8.888   8.727  0.9126 -2.1438 -0.2572
22788SOL    HW273050   6.213   8.941   8.843 -1.2228  0.7250  0.0406
22789SOL     OW73051   8.019   4.262  10.919 -0.1253 -0.1346 -0.3406
22789SOL    HW173052   7.946   4.201  10.909  1.3154 -1.8055 -1.2037
22789SOL    HW273053   8.066   4.258  10.836  2.3313 -1.0332  0.9801
22790SOL     OW73054  10.641   6.254   7.807  0.0999 -0.7583 -0.1397
22790SOL    HW173055  10.614   6.196   7.737 -2.2873  1.9517 -1.6777
22790SOL    HW273056  10.596   6.222   7.885 -0.1565 -1.6781 -0.6622
22791SOL     OW73057   7.276   5.646  10.261  0.6653 -0.5418  0.1509
22791SOL    HW173058   7.265   5.551  10.259  1.2647 -0.6158  0.2285
22791SOL    HW273059   7.299   5.666  10.351  0.4779 -0.3148  0.1496
22792SOL     OW73060   1.703   2.633   7.299  0.1802 -0.2288  0.6693
22792SOL    HW173061   1.721   2.551   7.254 -1.8089 -1.2608  1.5812
22792SOL    HW273062   1.760   2.631   7.376 -0.1433 -0.9771  0.9002
22793SOL     OW73063   2.606  10.935   2.552 -0.1664 -0.2083  0.0424
22793SOL    HW173064   2.633  10.929   2.643  1.0537  0.1159 -0.2775
22793SOL    HW273065   2.633  10.853   2.512 -1.1913 -0.5827  0.0748
22794SOL     OW73066   6.784  11.721   9.368 -0.4243  0.3805 -0.4725
22794SOL    HW173067   6.720  11.736   9.438 -1.0083  2.0430 -1.3108
22794SOL    HW273068   6.732  11.716   9.288  0.3738  0.1281 -0.9898
22795SOL     OW73069   4.404   1.046   2.588 -0.0797  0.3136  0.0032
22795SOL    HW173070   4.321   1.038   2.541 -0.0623  0.0073  0.0202
22795SOL    HW273071   4.466   1.076   2.522  0.1129 -0.8412 -0.3622
22796SOL     OW73072   7.609   9.785   6.146 -0.6992 -0.6105  0.1039
22796SOL    HW173073   7.625   9.713   6.084 -1.0292  0.3485 -1.1403
22796SOL    HW273074   7.656   9.859   6.109 -0.9472  0.0063  0.9968
22797SOL     OW73075   5.574   9.314   3.033  0.0049  0.8228 -0.3650
22797SOL    HW173076   5.493   9.316   2.983  0.5087  2.4095 -1.1716
22797SOL    HW273077   5.629   9.249   2.988 -1.3712 -1.6503  1.2317
22798SOL     OW73078   8.358   6.218   3.181  0.9298 -0.5051 -0.2175
22798SOL    HW173079   8.359   6.129   3.214  0.4063 -0.6190 -0.5119
22798SOL    HW273080   8.405   6.269   3.247  3.6721 -1.4252 -1.3004
22799SOL     OW73081   6.017   3.281   4.240 -0.1098  0.0037  0.3208
22799SOL    HW173082   6.012   3.354   4.301 -1.7123  0.8334 -0.7144
22799SOL    HW273083   6.017   3.203   4.295  0.5162  0.7591  1.4191
22800SOL     OW73084   9.533   4.672   5.591  0.1341 -0.1322  0.2431
22800SOL    HW173085   9.554   4.766   5.590  0.4061 -0.1935 -0.2451
22800SOL    HW273086   9.594   4.635   5.655  0.8986 -0.1674 -0.4927
22801SOL     OW73087   5.100   6.128  10.121 -0.0740  0.2985 -0.6862
22801SOL    HW173088   5.172   6.127  10.184  0.1562 -0.2267 -0.9529
22801SOL    HW273089   5.102   6.217  10.085  1.5317 -0.1589 -1.8928
22802SOL     OW73090   1.112   7.544   7.945 -0.4965 -0.1118 -0.1821
22802SOL    HW173091   1.054   7.580   7.877 -1.5282  0.2337  0.8517
22802SOL    HW273092   1.082   7.585   8.026  0.0480 -1.2944  0.6378
22803SOL     OW73093   4.776   8.131   5.852  0.2540  0.0489  0.6542
22803SOL    HW173094   4.809   8.089   5.773 -0.3383 -0.5239  0.7058
22803SOL    HW273095   4.683   8.111   5.853  0.5337 -1.4333  2.3808
22804SOL     OW73096   3.535   6.978  10.773  0.7521 -0.2352  0.6244
22804SOL    HW173097   3.576   7.014  10.852  1.0020  0.3623  0.2302
22804SOL    HW273098   3.441   6.985  10.790  0.7982  0.3643  0.6689
22805SOL     OW73099   7.718   4.366   0.510  0.0253  0.3522  0.3878
22805SOL    HW173100   7.772   4.434   0.469 -0.5016  1.3107  1.2112
22805SOL    HW273101   7.629   4.400   0.504 -0.6016 -1.4191 -1.3646
22806SOL     OW73102  11.550   5.610  11.283 -0.6715  0.7782  0.6872
22806SOL    HW173103  11.567   5.580  11.373 -1.0460  0.1383  0.5547
22806SOL    HW273104  11.552   5.529  11.231 -0.4168  1.1497  0.1139
22807SOL     OW73105   3.705   6.843   2.950  0.1037  0.3488  0.3388
22807SOL    HW173106   3.726   6.849   3.043 -0.0388  2.0582  0.3064
22807SOL    HW273107   3.748   6.763   2.921 -0.1747 -0.4179  1.9443
22808SOL     OW73108  11.994   1.999   2.861  0.2356  0.1836 -0.0892
22808SOL    HW173109  12.025   2.089   2.855 -0.6572  0.4640 -0.6094
22808SOL    HW273110  12.022   1.970   2.948  1.6592  0.5200 -0.4118
22809SOL     OW73111   5.157   2.899   1.738  0.2239  0.4542 -0.2380
22809SOL    HW173112   5.183   2.845   1.812  1.1425  0.3240 -0.6371
22809SOL    HW273113   5.157   2.989   1.772 -1.8857  0.2017  0.5862
22810SOL     OW73114   2.878   2.845   5.534  0.0776 -0.2860  0.0492
22810SOL    HW173115   2.783   2.829   5.531 -0.2170  1.3171 -0.2404
22810SOL    HW273116   2.916   2.775   5.482 -1.2316  0.7546 -2.4560
22811SOL     OW73117   1.275   5.686   6.385 -0.0807  0.5818  0.4271
22811SOL    HW173118   1.212   5.627   6.426  0.7253 -1.4816 -1.1269
22811SOL    HW273119   1.358   5.667   6.429  0.1205  0.7712  0.1343
22812SOL     OW73120   9.839  10.789   9.500 -0.2226  0.1168 -0.2998
22812SOL    HW173121   9.780  10.716   9.518  1.2127 -1.0483 -0.0970
22812SOL    HW273122   9.861  10.825   9.586 -0.8749  0.7650 -0.3956
22813SOL     OW73123   4.038   0.422  10.320  0.4065 -0.7350 -0.3253
22813SOL    HW173124   4.066   0.493  10.378 -0.0990 -0.1115 -0.8207
22813SOL    HW273125   4.094   0.348  10.342  1.4932  0.0619 -0.3523
22814SOL     OW73126  11.823   0.339   1.202  0.1183 -0.1979  0.1035
22814SOL    HW173127  11.755   0.407   1.198  0.7001  0.3940  0.2053
22814SOL    HW273128  11.832   0.309   1.112  0.7320  0.7356 -0.1561
22815SOL     OW73129   9.980   0.068  10.342 -0.2192  0.7991 -0.0968
22815SOL    HW173130   9.891   0.043  10.367  0.2048 -0.9712 -0.2733
22815SOL    HW273131   9.983   0.055  10.247  1.0470 -2.0887  0.2372
22816SOL     OW73132   2.331   8.263   4.810 -0.1001 -0.0261 -0.2238
22816SOL    HW173133   2.354   8.331   4.873  1.6084  0.3152 -1.1571
22816SOL    HW273134   2.410   8.250   4.758 -0.5230 -2.3843 -0.4210
22817SOL     OW73135  11.067   2.310   7.499 -0.0138 -0.2045 -0.1659
22817SOL    HW173136  11.052   2.220   7.526  1.4849  0.2271  2.4151
22817SOL    HW273137  10.994   2.359   7.537  0.7273  0.0315  1.0229
22818SOL     OW73138  10.923   7.396  10.676 -0.7635  0.0919  0.0125
22818SOL    HW173139  10.894   7.486  10.686 -0.3993  0.2552 -0.3827
22818SOL    HW273140  10.936   7.365  10.766 -2.8511 -0.2342  0.2543
22819SOL     OW73141  11.934   4.257   3.453 -0.3789 -0.0479  0.5757
22819SOL    HW173142  11.868   4.215   3.508  0.0269 -1.9934 -0.3282
22819SOL    HW273143  11.917   4.222   3.365  1.0856  0.3613  0.1050
22820SOL     OW73144   6.751   3.749   4.880  0.1059  0.0683  0.2988
22820SOL    HW173145   6.822   3.685   4.875  0.1666  0.2070 -0.7917
22820SOL    HW273146   6.735   3.759   4.974  0.7813 -0.7823  0.5204
22821SOL     OW73147   8.593   8.769   1.922  0.2297  0.3580 -0.4797
22821SOL    HW173148   8.537   8.781   1.999 -1.5642 -0.0573 -1.6686
22821SOL    HW273149   8.634   8.683   1.935 -0.2729  0.1674 -0.1227
22822SOL     OW73150   8.035   5.990   2.851 -0.0048  0.2898  0.1343
22822SOL    HW173151   8.056   5.912   2.903  1.3043  0.0492 -0.6983
22822SOL    HW273152   7.954   5.968   2.806 -1.5127  0.7259  2.4704
22823SOL     OW73153   7.938   8.264   7.874 -0.0986  0.5640 -0.5073
22823SOL    HW173154   7.987   8.205   7.931  0.9362  1.6169 -0.2786
22823SOL    HW273155   7.858   8.283   7.923 -0.1954 -0.2109 -0.3517
22824SOL     OW73156   0.956  11.516   4.403  0.4693 -0.3141  0.7092
22824SOL    HW173157   0.888  11.458   4.369 -0.2131 -1.8912  4.2816
22824SOL    HW273158   1.036  11.487   4.359 -0.7297 -0.0001 -1.8395
22825SOL     OW73159  10.486   5.273   9.633  0.7459  0.4767 -0.0646
22825SOL    HW173160  10.391   5.266   9.636  0.8358 -1.0828  0.2496
22825SOL    HW273161  10.514   5.196   9.583  1.8273  1.0746 -0.4081
22826SOL     OW73162   2.024   9.246  11.191  0.0752 -0.8307  0.8271
22826SOL    HW173163   2.011   9.216  11.101 -0.0319  3.3315 -0.7226
22826SOL    HW273164   1.943   9.223  11.236 -0.2641 -2.0928 -0.3620
22827SOL     OW73165   9.217   0.621   7.041  0.0481  0.1469 -0.3660
22827SOL    HW173166   9.243   0.680   7.111  0.1082  0.1628 -0.4022
22827SOL    HW273167   9.130   0.590   7.067 -0.0343  0.3447 -0.4067
22828SOL     OW73168   2.578   6.353   9.911  0.0176  0.1647 -0.4820
22828SOL    HW173169   2.527   6.426   9.947  1.1786  0.8528 -0.1712
22828SOL    HW273170   2.553   6.350   9.819 -0.8482  0.2458 -0.2647
22829SOL     OW73171   2.573  11.266   5.994 -0.4654  0.3869  0.0814
22829SOL    HW173172   2.636  11.329   6.029  1.0602 -0.4075 -1.1084
22829SOL    HW273173   2.578  11.191   6.053  0.0585  0.1433 -0.2665
22830SOL     OW73174   1.422   7.742  10.634 -0.3465 -0.0650  0.2157
22830SOL    HW173175   1.483   7.668  10.630 -1.7604 -1.3600  1.4910
22830SOL    HW273176   1.451   7.801  10.564  1.1752 -1.5371 -0.4565
22831SOL     OW73177   6.647   0.346   0.889 -0.7105  0.2900 -0.2317
22831SOL    HW173178   6.675   0.435   0.910 -1.8086  0.3665  1.0786
22831SOL    HW273179   6.727   0.302   0.861  0.1215  1.3138  0.4347
22832SOL     OW73180   8.374   4.381   6.653 -0.4336  0.0426  0.4191
22832SOL    HW173181   8.286   4.412   6.635 -0.7757 -0.1473  1.6335
22832SOL    HW273182   8.363   4.319   6.726  0.5874 -0.6640  0.0009
22833SOL     OW73183  11.153   2.496   0.745  0.0259 -0.3294 -0.0879
22833SOL    HW173184  11.065   2.497   0.782  0.3424 -0.3572  0.6883
22833SOL    HW273185  11.193   2.578   0.776  0.3115 -0.3629 -0.3548
22834SOL     OW73186   9.342  11.154   9.992  0.1966 -0.6534 -0.3966
22834SOL    HW173187   9.437  11.159   9.987  0.3525 -0.6311  1.6957
22834SOL    HW273188   9.312  11.170   9.902  2.1422 -0.5010 -1.0564
22835SOL     OW73189   6.514  11.474  10.131 -0.0472  0.2336  0.2932
22835SOL    HW173190   6.474  11.549  10.088  0.4914  0.4675  0.1872
22835SOL    HW273191   6.580  11.442  10.069 -0.9294 -0.9414 -0.0825
22836SOL     OW73192   9.567  11.463   5.771  0.2703  0.2788 -0.2894
22836SOL    HW173193   9.636  11.516   5.731  1.6117 -0.0358  1.4579
22836SOL    HW273194   9.498  11.527   5.792  2.3437  1.7693  2.8809
22837SOL     OW73195   4.976   3.094   2.307 -0.1520 -0.2499  0.0776
22837SOL    HW173196   5.045   3.133   2.361 -0.3325  0.2753 -0.0683
22837SOL    HW273197   4.968   3.004   2.340 -2.0508  0.7592  2.6707
22838SOL     OW73198   1.842   5.606   6.354 -0.0377 -0.0859  0.9971
22838SOL    HW173199   1.825   5.596   6.261 -0.6320 -1.0391  1.1859
22838SOL    HW273200   1.827   5.698   6.373  0.4960  0.1908  0.0729
22839SOL     OW73201   8.459  11.608   7.246  0.1018  0.0358  0.3266
22839SOL    HW173202   8.539  11.565   7.278 -0.0139  0.3280  1.0307
22839SOL    HW273203   8.484  11.699   7.233  0.0244  0.0143  0.0227
22840SOL     OW73204   2.053  10.095  11.929  0.2407  0.2726 -0.3526
22840SOL    HW173205   2.011  10.025  11.979  0.3836 -0.4724 -1.2582
22840SOL    HW273206   2.127  10.122  11.983 -1.2305  1.4994  1.2133
22841SOL     OW73207   3.810   3.314  10.588  0.8344  0.4247 -0.3844
22841SOL    HW173208   3.749   3.386  10.600 -0.3146 -0.7000  0.7345
22841SOL    HW273209   3.897   3.356  10.591  0.1839  1.9103 -1.0733
22842SOL     OW73210   1.497   9.122   2.115 -0.0378 -0.9308 -0.0135
22842SOL    HW173211   1.513   9.214   2.137  0.1848 -0.6250 -1.3545
22842SOL    HW273212   1.568   9.074   2.157  0.8718 -0.2777 -0.7625
22843SOL     OW73213   0.653  10.671   8.194 -0.2377  0.2496 -0.7039
22843SOL    HW173214   0.749  10.666   8.194 -0.0816  1.1774  2.1575
22843SOL    HW273215   0.633  10.757   8.156  0.2250  0.9276  0.5336
22844SOL     OW73216   9.483   6.241  11.403  0.1144  0.5278  0.2176
22844SOL    HW173217   9.460   6.287  11.322 -0.0121 -1.3411 -0.8857
22844SOL    HW273218   9.529   6.163  11.373 -1.1548 -0.9345  1.8603
22845SOL     OW73219   1.956   3.368  10.759 -0.1188  0.5829 -0.2095
22845SOL    HW173220   2.030   3.327  10.714 -0.1537 -0.8253  0.9539
22845SOL    HW273221   1.963   3.461  10.737  3.1671  0.8557  1.4165
22846SOL     OW73222   5.748   5.800   5.244 -0.5301  0.2001  0.0519
22846SOL    HW173223   5.779   5.875   5.294  0.3069 -0.2893  0.2859
22846SOL    HW273224   5.726   5.734   5.310  1.4947 -0.8020 -0.1973
22847SOL     OW73225  10.030  10.129   5.931 -0.1334  0.1873 -0.0882
22847SOL    HW173226   9.985  10.194   5.878 -0.1012  1.4344  1.3597
22847SOL    HW273227   9.960  10.082   5.977 -0.0660  1.1976  1.1001
22848SOL     OW73228   4.848   3.878   6.410  0.1120 -0.0109 -0.0942
22848SOL    HW173229   4.823   3.794   6.446  0.4777 -0.2256 -0.3331
22848SOL    HW273230   4.868   3.933   6.486 -0.2046 -0.1146  0.0623
22849SOL     OW73231  10.219   8.479   7.920 -0.5390  0.7717  0.1971
22849SOL    HW173232  10.229   8.408   7.856  1.4988  0.1642  1.1190
22849SOL    HW273233  10.308   8.503   7.944 -1.1197  4.2965 -0.6788
22850SOL     OW73234   4.116   9.255   5.731  0.2963  0.5617 -0.1737
22850SOL    HW173235   4.071   9.174   5.754 -1.5243  1.2732 -1.0519
22850SOL    HW273236   4.187   9.226   5.674  0.8257 -0.5626  0.9978
22851SOL     OW73237   5.924   2.502  10.518  1.1112  0.1298  0.1352
22851SOL    HW173238   5.852   2.507  10.581 -0.3767  2.2194 -1.5358
22851SOL    HW273239   5.999   2.471  10.568 -0.3905  0.0808  2.4940
22852SOL     OW73240   0.067  10.693   2.116  0.1040 -0.4459  0.1216
22852SOL    HW173241   0.060  10.638   2.037 -1.4898 -1.4112  0.8748
22852SOL    HW273242  -0.021  10.729   2.127  0.1203 -0.8537  1.8170
22853SOL     OW73243   6.589   1.233   8.864  0.0633 -0.2490  0.7409
22853SOL    HW173244   6.529   1.294   8.820  0.0301 -1.9493 -1.7292
22853SOL    HW273245   6.553   1.225   8.953 -0.4812  2.4946  0.8569
22854SOL     OW73246   3.992  11.120   7.149 -0.4403 -0.4620  0.9984
22854SOL    HW173247   3.972  11.041   7.200 -2.3645 -0.4786  0.2963
22854SOL    HW273248   4.061  11.164   7.199 -0.0210 -2.0810  1.9147
22855SOL     OW73249   2.513   5.974   2.733 -0.1332  0.5231 -0.0240
22855SOL    HW173250   2.515   5.899   2.673 -1.2070 -0.7781  1.4693
22855SOL    HW273251   2.420   5.993   2.745  0.1030  1.4876  0.3735
22856SOL     OW73252   9.411   0.072   0.535  0.3543 -0.0607 -0.9008
22856SOL    HW173253   9.506   0.076   0.529  0.4842 -0.7855  0.3442
22856SOL    HW273254   9.381   0.066   0.445  1.4940  0.0755 -1.2992
22857SOL     OW73255   4.363   6.591   4.633 -0.1062 -0.1332  0.2225
22857SOL    HW173256   4.332   6.540   4.708 -0.5917 -0.5920 -0.2865
22857SOL    HW273257   4.309   6.671   4.635 -0.3032 -0.2647  0.2041
22858SOL     OW73258   8.586   2.180   1.158 -0.1886  0.6529 -0.0358
22858SOL    HW173259   8.625   2.167   1.071 -0.2811 -1.7807  0.2141
22858SOL    HW273260   8.504   2.131   1.155  0.1113 -0.0222  1.6152
22859SOL     OW73261   2.415   1.247   5.176 -0.2415 -0.1859  0.4261
22859SOL    HW173262   2.486   1.197   5.216  0.5269  0.9243  0.4874
22859SOL    HW273263   2.447   1.337   5.174 -0.5880 -0.0450 -1.8806
22860SOL     OW73264   4.996  11.345  10.300  0.5661 -0.7707  0.4297
22860SOL    HW173265   5.006  11.251  10.285 -1.6131 -0.9841  0.0301
22860SOL    HW273266   4.902  11.360  10.299  0.8803  1.7223 -1.3908
22861SOL     OW73267  11.547   2.486   9.444  0.1394 -0.4203 -0.0813
22861SOL    HW173268  11.556   2.470   9.350  0.0408 -0.7878 -0.0325
22861SOL    HW273269  11.565   2.579   9.455  3.1488 -0.8765 -0.1021
22862SOL     OW73270   6.208  11.839   5.443  0.1569  0.2997  0.2973
22862SOL    HW173271   6.210  11.853   5.348 -0.6430  3.1590  0.6282
22862SOL    HW273272   6.161  11.756   5.453 -0.1395  0.1440 -1.7787
22863SOL     OW73273   5.445   8.994   9.290  0.7734  0.2481 -0.0198
22863SOL    HW173274   5.350   8.991   9.281  0.6338 -1.2848  1.4780
22863SOL    HW273275   5.461   9.039   9.373  1.3541  0.3233 -0.1619
22864SOL     OW73276  11.078   7.348   6.950 -0.8423 -0.2991  0.2593
22864SOL    HW173277  11.113   7.404   7.020  0.1836 -0.8516  0.2046
22864SOL    HW273278  11.043   7.271   6.995 -0.6143 -0.4369  0.2027
22865SOL     OW73279   8.986   8.388   2.433 -0.2113 -0.0875 -0.4512
22865SOL    HW173280   9.051   8.436   2.484 -1.1190  1.5033 -0.7194
22865SOL    HW273281   8.924   8.356   2.498 -1.6357  2.3524 -0.4799
22866SOL     OW73282   3.204  10.487   9.057  0.5376 -0.1345  0.2268
22866SOL    HW173283   3.216  10.562   8.998  1.0580 -0.4760 -0.1102
22866SOL    HW273284   3.157  10.422   9.004  1.4544 -0.6380  0.0177
22867SOL     OW73285  11.165   3.933   9.972  0.1041  0.6066 -0.1665
22867SOL    HW173286  11.147   4.000  10.038  0.8159  2.5277 -1.8081
22867SOL    HW273287  11.240   3.884  10.008 -1.9000 -1.0054  2.1552
22868SOL     OW73288   6.743  11.572   7.134 -0.5740  0.1679 -0.1908
22868SOL    HW173289   6.693  11.493   7.152 -2.4901  0.8609 -2.0424
22868SOL    HW273290   6.823  11.541   7.091 -0.4323 -0.8411  0.7713
22869SOL     OW73291   4.654   1.984   5.230 -0.1444 -0.1489 -0.1513
22869SOL    HW173292   4.635   1.892   5.248  1.1299 -0.4607 -0.2909
22869SOL    HW273293   4.599   2.033   5.291 -0.3102 -1.0286  0.4159
22870SOL     OW73294  11.241   5.181   4.466 -0.2059 -0.6113  0.0840
22870SOL    HW173295  11.291   5.235   4.527 -1.0298  1.6388 -1.1078
22870SOL    HW273296  11.152   5.218   4.470 -0.1823 -0.0761 -2.7316
22871SOL     OW73297   0.395   5.385   8.100 -0.1745 -0.0631  0.2115
22871SOL    HW173298   0.351   5.385   8.015  3.5624 -1.9282 -1.9914
22871SOL    HW273299   0.415   5.477   8.116 -2.0603  0.4666 -0.2030
22872SOL     OW73300   2.183   1.537   2.519  0.2589  0.0195  0.3119
22872SOL    HW173301   2.136   1.592   2.582  0.1826 -0.2089  0.4557
22872SOL    HW273302   2.139   1.452   2.524  0.0443  0.0903 -0.2841
22873SOL     OW73303   0.512   5.512   0.869 -0.3010  0.0061  0.4371
22873SOL    HW173304   0.522   5.518   0.964 -1.7040  1.0653  0.5451
22873SOL    HW273305   0.593   5.548   0.834 -0.1140  0.3771  1.2310
22874SOL     OW73306  11.507   0.804  11.180 -0.0352 -0.1717 -0.3530
22874SOL    HW173307  11.436   0.802  11.243 -0.3176 -4.7129 -0.4864
22874SOL    HW273308  11.468   0.772  11.099  1.2622  1.5236 -1.7353
22875SOL     OW73309   0.030   7.947   2.147  0.0032  0.4993  0.8981
22875SOL    HW173310  -0.023   8.026   2.145  0.4710  0.8167 -0.9887
22875SOL    HW273311   0.076   7.951   2.231 -1.0451  1.4919  1.4441
22876SOL     OW73312   9.283   8.225  10.853  0.0091 -0.5588  0.3685
22876SOL    HW173313   9.283   8.249  10.761 -1.2783 -1.1029  0.2006
22876SOL    HW273314   9.306   8.132  10.853 -1.8005 -1.0442  0.4089
22877SOL     OW73315   4.961   3.271   7.224  0.4461  0.0788 -0.0721
22877SOL    HW173316   4.909   3.342   7.184 -0.6491 -0.2882  0.6548
22877SOL    HW273317   4.914   3.250   7.304  1.6124 -0.4518  0.4819
22878SOL     OW73318   6.749   9.029   5.169 -0.1999  0.0484 -0.3163
22878SOL    HW173319   6.692   9.083   5.115 -0.7350  0.9061  1.0612
22878SOL    HW273320   6.823   9.086   5.190 -0.1391 -0.1805  0.0900
22879SOL     OW73321   7.607  10.473   8.494 -0.1845  0.1247 -0.3821
22879SOL    HW173322   7.673  10.466   8.562  0.7834 -1.3834 -1.4259
22879SOL    HW273323   7.655  10.504   8.417 -0.3656 -2.2514 -1.5191
22880SOL     OW73324   5.309   4.043   4.182 -0.0971 -0.0749 -0.0399
22880SOL    HW173325   5.258   4.052   4.101 -0.9071 -0.3297  0.4342
22880SOL    HW273326   5.246   4.014   4.247  0.6052 -0.1254  0.6316
22881SOL     OW73327   6.296   4.135   2.380 -0.3147  0.6155  0.0495
22881SOL    HW173328   6.222   4.180   2.421 -0.3425 -0.8653  1.7575
22881SOL    HW273329   6.331   4.079   2.449  2.1528  0.9378 -0.8455
22882SOL     OW73330   7.704   9.626   9.088  0.7542  0.5599  0.1391
22882SOL    HW173331   7.661   9.540   9.084  2.0813 -0.0750 -1.5094
22882SOL    HW273332   7.708   9.646   9.181 -0.6232 -0.6137  0.4887
22883SOL     OW73333   2.553   8.632  10.232  0.5770 -0.3334  0.6962
22883SOL    HW173334   2.485   8.566  10.242  0.3350  0.0592  1.7515
22883SOL    HW273335   2.613   8.595  10.167 -0.8924 -0.4555 -0.6551
22884SOL     OW73336   4.078   9.461   1.569  0.3189 -0.0728 -0.8170
22884SOL    HW173337   4.173   9.453   1.568  0.3048 -0.4167 -2.6131
22884SOL    HW273338   4.061   9.553   1.548  0.2349  0.4816  1.4229
22885SOL     OW73339   6.473  11.010   3.464 -0.7530 -0.4675  0.1217
22885SOL    HW173340   6.533  11.081   3.490 -0.7752 -0.0863 -0.8385
22885SOL    HW273341   6.390  11.033   3.506 -0.8219  0.2114 -0.3706
22886SOL     OW73342   9.630   4.793   2.140  0.0009  0.3647  0.4090
22886SOL    HW173343   9.668   4.835   2.063  1.3958  0.6097  1.1914
22886SOL    HW273344   9.553   4.846   2.162 -0.5717  0.1349 -0.9388
22887SOL     OW73345   2.432   0.182   0.914  0.6919 -0.2540  0.2864
22887SOL    HW173346   2.523   0.210   0.920  0.0722  2.2498 -0.6618
22887SOL    HW273347   2.421   0.118   0.985  2.5477  1.2846  2.0607
22888SOL     OW73348   8.265   7.670  11.728 -0.0047 -0.4439  0.0747
22888SOL    HW173349   8.304   7.757  11.744 -0.9472  0.3009 -1.4663
22888SOL    HW273350   8.329   7.625  11.673 -0.4038  0.0441 -0.8072
22889SOL     OW73351   9.215   9.872   5.755 -0.1473 -0.0838  0.1224
22889SOL    HW173352   9.284   9.921   5.710  0.8897  0.0876  1.8165
22889SOL    HW273353   9.214   9.788   5.710 -0.8762  0.8951 -1.8090
22890SOL     OW73354   8.667   8.217   2.981  0.0885  0.2394 -0.2368
22890SOL    HW173355   8.664   8.145   2.918 -0.1946 -0.4472  0.5428
22890SOL    HW273356   8.651   8.296   2.929  0.6101 -0.2319 -1.1370
22891SOL     OW73357   6.213   3.207   3.043  0.2700  0.6890  0.2822
22891SOL    HW173358   6.302   3.207   3.078  0.1773 -1.9165  0.7714
22891SOL    HW273359   6.225   3.207   2.948  0.8551 -0.2797  0.3421
22892SOL     OW73360   1.837  11.058   8.197  0.6458  0.4661  0.3785
22892SOL    HW173361   1.808  11.041   8.287  0.3517 -1.9568 -0.1091
22892SOL    HW273362   1.834  10.972   8.154  2.1943  1.3030 -1.5529
22893SOL     OW73363   8.033   0.843   8.056  0.3178 -0.1991  0.0537
22893SOL    HW173364   8.000   0.912   7.999 -1.3362 -0.5794  0.4940
22893SOL    HW273365   8.015   0.874   8.145  1.5658 -0.2486  0.3460
22894SOL     OW73366   5.773  11.608   4.963  0.1744  0.5332 -0.0265
22894SOL    HW173367   5.712  11.680   4.947 -0.6225 -0.2715 -0.7528
22894SOL    HW273368   5.854  11.634   4.918  0.0107  1.1270  0.0166
22895SOL     OW73369   4.226   2.006  11.976  0.3208  0.4779  0.2840
22895SOL    HW173370   4.310   2.050  11.987  0.6207 -0.0154 -0.0006
22895SOL    HW273371   4.174   2.034  12.051  0.7095  0.8482  0.4179
22896SOL     OW73372   1.126   3.542   0.339 -0.4745 -0.0509 -0.0239
22896SOL    HW173373   1.212   3.573   0.367 -0.5855  0.5854 -0.3458
22896SOL    HW273374   1.144   3.465   0.285  0.0986  1.3899 -2.0154
22897SOL     OW73375   8.665   6.816   1.323  0.4182 -0.0615 -0.0673
22897SOL    HW173376   8.648   6.761   1.247  0.9509  1.4882 -1.3607
22897SOL    HW273377   8.694   6.755   1.391  0.9927 -1.3657 -1.4439
22898SOL     OW73378   6.733  11.760   3.895 -0.2818  0.3741 -0.0605
22898SOL    HW173379   6.671  11.723   3.957  1.2615  0.2855  1.5098
22898SOL    HW273380   6.702  11.849   3.879 -0.5196  0.5193  1.1331
22899SOL     OW73381   0.292  11.932   0.569  0.1467  0.5682  0.0891
22899SOL    HW173382   0.236  11.939   0.492  0.4198  0.9243 -0.0821
22899SOL    HW273383   0.370  11.983   0.547  0.5234  0.1136  0.3377
22900SOL     OW73384  11.413  10.824   2.898  0.3530 -0.1681 -0.3206
22900SOL    HW173385  11.468  10.768   2.953  1.5419  1.3763  0.1429
22900SOL    HW273386  11.474  10.863   2.836 -0.2625  1.3089 -0.0345
22901SOL     OW73387   1.140   5.790   7.972 -0.1982  0.3380 -0.2845
22901SOL    HW173388   1.110   5.713   7.924  1.1267 -0.1442 -0.3699
22901SOL    HW273389   1.089   5.789   8.053 -0.0732 -0.7220 -0.2063
22902SOL     OW73390   8.476   7.275   3.951  0.6310 -0.1032  0.8784
22902SOL    HW173391   8.515   7.316   3.874  1.2774  0.2635  1.3980
22902SOL    HW273392   8.399   7.229   3.916  0.7681  0.2641  0.0564
22903SOL     OW73393   3.554   8.838  11.626 -1.0849  0.3013 -0.1000
22903SOL    HW173394   3.587   8.750  11.641  0.1420  0.5280 -1.3200
22903SOL    HW273395   3.466   8.825  11.589 -0.5405 -0.4628 -1.1827
22904SOL     OW73396  11.425   8.728   0.192 -0.2925 -0.2023 -0.2137
22904SOL    HW173397  11.490   8.683   0.139  0.2783  0.1439  0.1733
22904SOL    HW273398  11.438   8.821   0.172 -0.1355 -0.0741  0.4343
22905SOL     OW73399  11.812  10.245   3.121  0.9017  0.0911  0.0496
22905SOL    HW173400  11.733  10.190   3.117 -0.2057  1.5697  0.4404
22905SOL    HW273401  11.850  10.238   3.033 -0.7818  0.8780 -0.7905
22906SOL     OW73402   5.187  11.013   0.784  0.1117 -0.2512  0.2395
22906SOL    HW173403   5.132  10.951   0.737  1.7946 -0.9760 -0.8710
22906SOL    HW273404   5.198  11.086   0.724  0.0480  0.0772  0.6181
22907SOL     OW73405   0.699   4.935   7.687  0.2730 -0.1657  0.0638
22907SOL    HW173406   0.787   4.967   7.705  0.0629  0.6405 -0.3185
22907SOL    HW273407   0.689   4.942   7.592 -1.2157  2.5200  0.3286
22908SOL     OW73408  10.689  11.284   8.627 -0.1475  0.1140  0.6034
22908SOL    HW173409  10.678  11.230   8.549  0.8137  1.3230 -0.4171
22908SOL    HW273410  10.626  11.355   8.616 -0.0912  0.2245  0.9771
22909SOL     OW73411   6.810   8.923  11.584 -0.4076  0.3961  0.0700
22909SOL    HW173412   6.760   8.842  11.589 -0.6724  0.5000 -0.7396
22909SOL    HW273413   6.841   8.938  11.673 -1.1585 -0.0828  0.4171
22910SOL     OW73414   3.303   1.745   4.625 -0.3318  0.2318  0.1143
22910SOL    HW173415   3.237   1.712   4.686 -0.9648 -2.3699 -1.8304
22910SOL    HW273416   3.256   1.811   4.574 -0.0704  1.6965  1.6467
22911SOL     OW73417   9.484   5.260   8.320 -0.1849  0.4222  0.6316
22911SOL    HW173418   9.462   5.171   8.290 -1.1305  0.9472 -0.3137
22911SOL    HW273419   9.548   5.247   8.389  0.7706 -0.9439 -0.4548
22912SOL     OW73420   3.195  10.337   6.363 -0.1204  0.1840  0.1042
22912SOL    HW173421   3.190  10.355   6.270 -1.2088  1.0194  0.3062
22912SOL    HW273422   3.261  10.268   6.371 -0.9026 -0.7790 -1.3924
22913SOL     OW73423  11.129   4.119  10.161  0.3189  0.0474 -0.5233
22913SOL    HW173424  11.133   4.213  10.181 -0.3832 -0.2721  1.4307
22913SOL    HW273425  11.035   4.100  10.157  0.4604 -0.5426 -1.0361
22914SOL     OW73426  11.048   9.813   0.241  0.2062  0.3544  0.3295
22914SOL    HW173427  11.120   9.819   0.178  0.0578 -0.5831  0.0536
22914SOL    HW273428  11.028   9.904   0.263  1.2468  0.6409  0.1566
22915SOL     OW73429  11.539   5.334   0.746  0.7056 -0.8289  0.1867
22915SOL    HW173430  11.458   5.316   0.698  0.5059 -1.6909  0.8216
22915SOL    HW273431  11.569   5.248   0.777  1.7024 -0.4842  0.2174
22916SOL     OW73432   8.151   5.638   5.814 -0.5464  0.4788 -0.3529
22916SOL    HW173433   8.130   5.717   5.765 -0.1122  0.6689 -0.2433
22916SOL    HW273434   8.215   5.592   5.759 -2.0702 -0.6825 -1.2450
22917SOL     OW73435   5.002   5.017   7.250  0.3877 -0.0673 -0.1405
22917SOL    HW173436   5.089   5.013   7.290  0.4920 -0.9881 -0.4310
22917SOL    HW273437   4.965   4.930   7.267 -0.3366  0.2041 -0.3262
22918SOL     OW73438   1.294  10.619   4.902  0.1131 -0.1648 -0.1794
22918SOL    HW173439   1.388  10.621   4.920  0.3167 -0.0708 -1.2229
22918SOL    HW273440   1.266  10.710   4.911 -0.3102 -0.4469  2.1745
22919SOL     OW73441   5.472   9.160   3.247 -0.5900 -0.2524  0.6435
22919SOL    HW173442   5.391   9.205   3.268 -0.3359  0.0203  1.0504
22919SOL    HW273443   5.532   9.229   3.220 -0.0910 -0.3037  1.5968
22920SOL     OW73444   3.262   3.130   9.486 -0.1023 -0.3853  0.0367
22920SOL    HW173445   3.236   3.045   9.451  0.4243 -0.1849 -0.8763
22920SOL    HW273446   3.181   3.182   9.487 -0.2722 -0.6448 -0.1536
22921SOL     OW73447  11.784   2.075   5.258 -0.1145 -0.5282 -0.1753
22921SOL    HW173448  11.737   2.157   5.245 -0.4234 -0.9184 -1.6736
22921SOL    HW273449  11.728   2.024   5.317 -0.6574 -0.2473 -0.4433
22922SOL     OW73450   4.594   4.260   8.484 -0.0006  0.0142  0.2378
22922SOL    HW173451   4.603   4.204   8.407  2.0349  1.2687 -0.4967
22922SOL    HW273452   4.634   4.343   8.459 -0.4851  0.9097  2.2116
22923SOL     OW73453   2.815   1.288  11.055 -0.1101 -0.2340  0.0283
22923SOL    HW173454   2.823   1.363  11.114  0.3559 -1.1083  1.1250
22923SOL    HW273455   2.894   1.290  11.001 -0.0124 -0.0381  0.1780
22924SOL     OW73456   7.226   7.168   0.389  0.0272  0.2352 -0.4765
22924SOL    HW173457   7.246   7.080   0.422 -0.0589  0.4022  0.0179
22924SOL    HW273458   7.154   7.199   0.444  1.1919  1.3042  0.4779
22925SOL     OW73459   9.682   3.833   8.208 -0.5597 -0.3659 -0.0962
22925SOL    HW173460   9.637   3.862   8.287 -0.2183 -0.1221  0.0103
22925SOL    HW273461   9.674   3.738   8.210  1.0531 -0.5084  1.2109
22926SOL     OW73462   9.597   4.722   8.814 -0.3200 -0.1262 -0.5206
22926SOL    HW173463   9.637   4.730   8.901 -1.5390 -0.9743  0.1339
22926SOL    HW273464   9.659   4.767   8.756  1.2822 -0.8525  0.5358
22927SOL     OW73465   4.981   3.665   5.701 -0.2301 -0.3779  0.1476
22927SOL    HW173466   4.935   3.582   5.698 -0.3969 -0.2692 -0.4391
22927SOL    HW273467   4.953   3.706   5.783 -1.0909 -0.3664 -0.1370
22928SOL     OW73468   1.122   7.112   1.464  0.0204  0.1217  0.2813
22928SOL    HW173469   1.163   7.047   1.520 -0.5659  0.6213  1.3143
22928SOL    HW273470   1.046   7.142   1.513 -1.2669 -0.3490 -1.3170
22929SOL     OW73471   1.801   1.218  11.074  0.3335  0.1793 -0.4520
22929SOL    HW173472   1.796   1.142  11.017 -0.5872  0.9944 -1.4950
22929SOL    HW273473   1.739   1.200  11.144 -0.6110  0.3860 -1.2225
22930SOL     OW73474  10.793   9.213   5.751 -0.7529  0.1571 -0.5742
22930SOL    HW173475  10.779   9.273   5.824 -0.1560 -0.9025  0.4509
22930SOL    HW273476  10.880   9.176   5.766 -1.5544 -1.8444 -0.4753
22931SOL     OW73477   0.619   1.203  10.452  0.2466  0.0809  0.4245
22931SOL    HW173478   0.568   1.157  10.519 -0.7047  0.4093 -0.0516
22931SOL    HW273479   0.553   1.242  10.395  1.0391  0.0280 -0.5572
22932SOL     OW73480   2.009   9.989   2.687 -0.3754  0.0704 -0.3002
22932SOL    HW173481   1.954  10.001   2.764 -1.6924 -0.9580 -1.0446
22932SOL    HW273482   1.961  10.033   2.617  0.2815  0.0560 -0.7651
22933SOL     OW73483   4.468   3.805   0.085 -0.0857 -0.5538 -0.2097
22933SOL    HW173484   4.431   3.767   0.005  0.1414 -1.7337  0.2304
22933SOL    HW273485   4.402   3.869   0.113 -0.0696  0.0370 -1.4449
22934SOL     OW73486   7.281   7.831   1.482  0.2047 -0.1401  0.1524
22934SOL    HW173487   7.325   7.887   1.417 -0.4145  0.2539  0.0658
22934SOL    HW273488   7.189   7.832   1.455 -0.0965  0.1962  1.1570
22935SOL     OW73489   8.104   3.656  11.783  0.0947  0.4859 -0.0631
22935SOL    HW173490   8.027   3.625  11.735 -1.1465  0.3777  1.8952
22935SOL    HW273491   8.103   3.751  11.770  1.1412  0.2762 -2.1050
22936SOL     OW73492   5.939   8.885   0.246 -0.7389  0.0677 -0.4936
22936SOL    HW173493   5.897   8.875   0.161  0.2341  0.4769 -1.0286
22936SOL    HW273494   6.028   8.854   0.233 -0.7271 -0.3616  0.5164
22937SOL     OW73495  11.015   5.137   6.756  0.3662  0.0545  0.1492
22937SOL    HW173496  10.947   5.071   6.762 -0.5004  1.0237  1.3686
22937SOL    HW273497  10.968   5.218   6.738  1.3267  0.5173 -0.3567
22938SOL     OW73498   1.839   8.722   9.381  0.1275 -0.2063  0.0256
22938SOL    HW173499   1.783   8.664   9.433  1.9741 -1.3631  0.8171
22938SOL    HW273500   1.884   8.776   9.446  1.1014 -0.3966 -0.4774
22939SOL     OW73501   0.875   7.895   1.890  0.2292  0.2295  0.3299
22939SOL    HW173502   0.848   7.863   1.976  2.0698  1.3857  1.4008
22939SOL    HW273503   0.949   7.840   1.865 -1.0014 -0.8624 -1.1174
22940SOL     OW73504   6.920  11.971   9.685 -0.2776 -0.2910  0.1008
22940SOL    HW173505   6.882  11.923   9.758 -0.7113 -0.0348  0.0477
22940SOL    HW273506   6.848  12.023   9.650  0.2487  0.6547  0.3709
22941SOL     OW73507   8.506   3.768   1.985 -0.0792  0.5474 -0.0664
22941SOL    HW173508   8.418   3.782   1.951 -0.8704 -1.1250  1.1339
22941SOL    HW273509   8.523   3.845   2.039 -1.5405  0.1385  1.0538
22942SOL     OW73510   7.597   2.735   4.689  0.6676  0.0457  0.7639
22942SOL    HW173511   7.595   2.672   4.761  0.8009 -0.6251  0.1936
22942SOL    HW273512   7.509   2.732   4.652  1.3916 -1.8796 -0.9882
22943SOL     OW73513  11.097   6.763   0.671  0.0239  0.2417  0.6019
22943SOL    HW173514  11.186   6.728   0.673  0.3116  0.7599 -1.1498
22943SOL    HW273515  11.106   6.852   0.707  0.3341  0.4885 -0.0634
22944SOL     OW73516   9.058   1.470   8.557 -0.1559 -0.2114  0.2084
22944SOL    HW173517   9.151   1.490   8.549 -0.1784 -0.4140 -0.6060
22944SOL    HW273518   9.041   1.404   8.490 -0.8604 -0.2769  0.4356
22945SOL     OW73519   1.502   7.478   9.742  0.0114  0.2968  0.0325
22945SOL    HW173520   1.410   7.482   9.769 -0.1220  5.1724 -0.1936
22945SOL    HW273521   1.498   7.468   9.646 -0.0944 -1.5543  0.1884
22946SOL     OW73522   7.385   0.503   9.044  0.2415 -0.1344  0.6178
22946SOL    HW173523   7.383   0.562   8.969 -0.6220 -0.7750  0.1268
22946SOL    HW273524   7.439   0.429   9.015 -1.6287 -1.2766 -0.0758
22947SOL     OW73525  11.773   0.900  11.693  0.1346 -0.3194  0.1961
22947SOL    HW173526  11.756   0.889  11.599  0.7902 -0.4314  0.0922
22947SOL    HW273527  11.726   0.827  11.734 -0.1752 -0.2554 -0.0361
22948SOL     OW73528   2.303   6.850   1.414  0.2714 -0.2316  0.1349
22948SOL    HW173529   2.319   6.756   1.427  0.3776 -0.2160  0.1107
22948SOL    HW273530   2.212   6.854   1.383 -0.0590 -0.2577  1.0664
22949SOL     OW73531  11.108   1.964   3.949  0.3209  0.0725 -0.4911
22949SOL    HW173532  11.188   2.013   3.967  0.9067 -1.5100  1.5216
22949SOL    HW273533  11.081   1.929   4.034 -2.4212  0.3637 -1.1292
22950SOL     OW73534   8.553   2.389  11.133  0.1625 -0.0570  0.0601
22950SOL    HW173535   8.508   2.362  11.213  1.0003  0.0893  0.5941
22950SOL    HW273536   8.640   2.418  11.163  0.3369  0.3929 -0.8505
22951SOL     OW73537   6.063  11.598   4.844 -0.1215  0.3530  0.3712
22951SOL    HW173538   6.124  11.598   4.770  0.7320 -0.0186  1.0421
22951SOL    HW273539   6.109  11.547   4.912 -1.9399 -1.4588  0.3148
22952SOL     OW73540   1.739   6.282   6.201  0.0469  0.3602 -0.0918
22952SOL    HW173541   1.740   6.262   6.107 -0.9625 -1.5458  0.2490
22952SOL    HW273542   1.831   6.285   6.225  0.3227  0.9334 -1.1325
22953SOL     OW73543   8.566  11.335   1.330 -0.3140  0.3784  0.6057
22953SOL    HW173544   8.581  11.269   1.398 -1.6379 -0.1126  0.4596
22953SOL    HW273545   8.486  11.380   1.358  0.0531  1.3044  0.2156
22954SOL     OW73546  11.543   8.242   0.612  0.4327  0.0095  0.6246
22954SOL    HW173547  11.628   8.281   0.591 -0.9408  2.8991 -0.0844
22954SOL    HW273548  11.516   8.200   0.531  1.1718 -0.9791  0.8707
22955SOL     OW73549   2.436   4.911   0.347  0.6568  0.0241  0.4766
22955SOL    HW173550   2.504   4.845   0.332  0.0498 -0.8160  1.2752
22955SOL    HW273551   2.378   4.902   0.271  0.4863 -0.5037  0.6588
22956SOL     OW73552  10.664   0.744   1.500  0.5067 -0.3134 -0.0173
22956SOL    HW173553  10.641   0.658   1.464  1.8823 -1.2190  1.1410
22956SOL    HW273554  10.760   0.745   1.498  0.5476  0.5279  1.4646
22957SOL     OW73555   9.029   5.423   1.289  0.6446 -0.0454  0.1528
22957SOL    HW173556   9.036   5.487   1.360  0.7665 -0.7065  0.7489
22957SOL    HW273557   8.960   5.458   1.232 -1.1372 -0.6493  1.8246
22958SOL     OW73558  10.315   4.565   7.758 -0.0471 -0.0337 -0.3374
22958SOL    HW173559  10.343   4.596   7.845 -0.9394 -0.8196  0.2449
22958SOL    HW273560  10.360   4.481   7.747 -2.2327 -1.4426  0.7182
22959SOL     OW73561   5.223  11.128   5.491  0.3412  0.1760  0.2403
22959SOL    HW173562   5.241  11.141   5.584  0.2270  1.6263  0.0806
22959SOL    HW273563   5.306  11.149   5.447 -0.4015  2.5257 -0.1724
22960SOL     OW73564   2.568  11.387   1.841 -0.1702  0.5182 -0.4035
22960SOL    HW173565   2.526  11.427   1.916  1.5334  1.8154 -0.0734
22960SOL    HW273566   2.626  11.321   1.878 -1.1484 -0.5732 -0.7778
22961SOL     OW73567   0.135   4.354   0.806  0.1070  0.2235  0.2635
22961SOL    HW173568   0.141   4.270   0.851 -1.8398 -0.3902 -0.5125
22961SOL    HW273569   0.124   4.419   0.876  1.8257 -0.1116  0.8745
22962SOL     OW73570   9.377   6.784   4.844  0.0953  0.3692 -0.6208
22962SOL    HW173571   9.341   6.821   4.925 -0.3827 -0.4578 -0.4408
22962SOL    HW273572   9.465   6.756   4.868  1.3585  3.3794 -1.3367
22963SOL     OW73573   4.612   8.151   4.982  0.3879  0.2807 -0.4108
22963SOL    HW173574   4.646   8.217   5.043 -0.0142 -1.7500  2.1990
22963SOL    HW273575   4.691   8.105   4.951  0.4794 -0.5180  0.9080
22964SOL     OW73576   5.262  10.605   0.459 -0.2571 -0.4833  0.2262
22964SOL    HW173577   5.317  10.682   0.473 -0.4028 -0.2556 -0.4003
22964SOL    HW273578   5.303  10.537   0.512 -0.2397  0.0708  0.9430
22965SOL     OW73579   9.925   5.400  10.155  0.0957 -0.5281 -0.0494
22965SOL    HW173580   9.838   5.400  10.194  1.0046 -1.5810  2.1649
22965SOL    HW273581   9.916   5.345  10.077 -1.6775  1.2512 -1.2030
22966SOL     OW73582   4.661   2.826   2.299 -0.5756  0.2369 -0.1587
22966SOL    HW173583   4.591   2.890   2.312 -0.5137 -0.0282  1.8118
22966SOL    HW273584   4.739   2.869   2.334  0.3963  0.6632 -2.6354
22967SOL     OW73585  11.075  11.827   6.273  0.2606  0.2943 -0.8981
22967SOL    HW173586  11.129  11.810   6.196 -0.3779 -1.0826 -1.0791
22967SOL    HW273587  11.079  11.922   6.285  1.0852  0.4342 -2.0908
22968SOL     OW73588   1.200   5.524   2.546 -0.0545  0.0782  0.1857
22968SOL    HW173589   1.241   5.444   2.514  2.3582  0.6298  1.5996
22968SOL    HW273590   1.169   5.569   2.468  2.2426 -0.3386 -1.0452
22969SOL     OW73591   5.512   6.354   3.427 -0.3921  0.0114  0.0195
22969SOL    HW173592   5.604   6.329   3.418 -0.7470 -1.2995 -0.1718
22969SOL    HW273593   5.475   6.290   3.488 -0.9389  1.2004  0.9693
22970SOL     OW73594   2.763   6.047   7.190 -0.3506  0.2006  0.3144
22970SOL    HW173595   2.780   6.116   7.254 -0.2120  0.1569  0.3264
22970SOL    HW273596   2.725   5.975   7.241  0.0577  0.0447  0.4029
22971SOL     OW73597  11.820   1.366  11.264 -0.2705 -0.7018  0.1261
22971SOL    HW173598  11.822   1.366  11.169  0.6866  0.3837  0.1247
22971SOL    HW273599  11.751   1.428  11.287  0.7786  0.5106  0.1130
22972SOL     OW73600   2.693  10.930   7.027 -0.2243 -0.2212 -0.4226
22972SOL    HW173601   2.717  10.877   6.951 -0.9600 -0.6749 -0.3452
22972SOL    HW273602   2.613  10.975   7.000  0.5375  1.0839 -0.5904
22973SOL     OW73603   6.507  10.281   7.082  0.4608 -0.0880 -0.0631
22973SOL    HW173604   6.448  10.334   7.136  0.9619  0.1590  0.2482
22973SOL    HW273605   6.497  10.192   7.117  0.4326 -0.0105  0.1279
22974SOL     OW73606   0.990   9.098   7.461 -0.4577  0.3232 -0.0566
22974SOL    HW173607   0.999   9.106   7.556 -1.7971  2.7598 -0.0482
22974SOL    HW273608   0.916   9.038   7.450 -1.0618  0.9398  0.4982
22975SOL     OW73609   1.119   9.560  11.105  0.3728 -0.0302 -0.3104
22975SOL    HW173610   1.134   9.616  11.028  1.1314  0.3738  0.1165
22975SOL    HW273611   1.192   9.580  11.163 -1.0722  0.8971  1.2483
22976SOL     OW73612   2.060   9.403   8.598 -0.2262  0.0434  0.1910
22976SOL    HW173613   2.028   9.398   8.508 -1.1933  2.8008  0.2930
22976SOL    HW273614   1.991   9.449   8.645  1.2198  0.6383  1.8313
22977SOL     OW73615   6.332  11.508   5.551 -0.0761  0.4243 -0.8327
22977SOL    HW173616   6.247  11.465   5.556  0.3915 -0.4922 -0.6737
22977SOL    HW273617   6.341  11.555   5.634 -0.2195  0.1215 -0.6458
22978SOL     OW73618  11.884   4.125   9.924 -0.2723  0.0202 -0.1305
22978SOL    HW173619  11.842   4.048   9.964 -1.8205  0.7332 -0.3110
22978SOL    HW273620  11.928   4.090   9.847 -0.1484 -0.8314  0.3102
22979SOL     OW73621   1.228  10.976   2.690 -0.3330 -0.6689 -0.0236
22979SOL    HW173622   1.169  10.903   2.672 -0.7339 -0.6221  1.0763
22979SOL    HW273623   1.243  10.973   2.784  0.5103  0.0159 -0.1261
22980SOL     OW73624   7.732   9.110   8.620 -0.7621  0.3322  0.2591
22980SOL    HW173625   7.805   9.091   8.562  0.6258 -0.9442  2.2837
22980SOL    HW273626   7.676   9.033   8.614 -0.6105  0.1932  0.5837
22981SOL     OW73627   8.920   5.724   8.772 -0.4016  0.4991 -0.1383
22981SOL    HW173628   8.959   5.807   8.799  0.0589 -0.4667  2.4135
22981SOL    HW273629   8.995   5.665   8.759 -0.7782  0.0999 -0.5367
22982SOL     OW73630   4.159   6.549  11.456 -0.6233  0.0199  0.2842
22982SOL    HW173631   4.164   6.462  11.417  0.8548  0.9912 -1.8861
22982SOL    HW273632   4.177   6.535  11.549  0.7087 -1.8523 -0.2097
22983SOL     OW73633  10.016   2.367   6.695  0.3590 -0.2154 -0.1302
22983SOL    HW173634   9.930   2.400   6.669  0.4073 -0.8851 -1.2127
22983SOL    HW273635   9.997   2.303   6.764  0.0466  0.1081  0.0859
22984SOL     OW73636   9.182   0.471   3.898  0.4497 -0.1576  0.0902
22984SOL    HW173637   9.234   0.399   3.863 -0.3275 -0.6908  0.0067
22984SOL    HW273638   9.114   0.487   3.833 -0.0026 -0.0420  0.5772
22985SOL     OW73639  10.571   4.227   0.383  0.1988  0.0890  0.4606
22985SOL    HW173640  10.542   4.318   0.373  0.7429  0.1494 -0.7574
22985SOL    HW273641  10.656   4.233   0.426  0.8166  0.2645 -0.7330
22986SOL     OW73642   7.247   7.564   4.153  0.4342  0.1547 -0.5055
22986SOL    HW173643   7.170   7.573   4.209  0.9956 -1.1379  0.5246
22986SOL    HW273644   7.298   7.643   4.170 -0.3876  0.7493 -0.7621
22987SOL     OW73645   2.647   0.215   3.399 -0.4098  0.6211  0.5377
22987SOL    HW173646   2.678   0.137   3.444 -0.6511  0.4335  0.3852
22987SOL    HW273647   2.582   0.182   3.336 -0.8137  0.9889  0.7570
22988SOL     OW73648   1.181   1.234   1.141  0.1145  0.5460 -0.0329
22988SOL    HW173649   1.220   1.286   1.070 -0.8162  2.5553  0.8577
22988SOL    HW273650   1.119   1.176   1.097  0.1070  1.2281 -0.9537
22989SOL     OW73651   2.775   1.657   7.859 -0.1487 -0.3273  0.1840
22989SOL    HW173652   2.712   1.695   7.798 -1.2760  1.2474  2.1853
22989SOL    HW273653   2.727   1.586   7.902 -1.0595  1.5421  2.4641
22990SOL     OW73654   5.470   6.527   7.044  0.0586 -0.4139  0.1075
22990SOL    HW173655   5.501   6.448   7.088  0.5951 -0.1600  0.1975
22990SOL    HW273656   5.444   6.498   6.957 -1.7197 -1.0561  0.8078
22991SOL     OW73657  11.880   2.839   5.450  0.3770  0.0255  0.0670
22991SOL    HW173658  11.931   2.829   5.530 -0.6655 -0.4518  0.6931
22991SOL    HW273659  11.943   2.824   5.379  1.4298  1.0050  0.7705
22992SOL     OW73660   8.623   8.425   7.570 -0.1189  0.1059  0.6510
22992SOL    HW173661   8.643   8.400   7.660  1.3974  0.2023  0.3669
22992SOL    HW273662   8.672   8.505   7.555  0.0371 -0.1711 -0.4182
22993SOL     OW73663   2.456  10.225  10.080  0.2621  0.2211  0.6871
22993SOL    HW173664   2.519  10.154  10.092  1.1768  0.9947  0.5813
22993SOL    HW273665   2.429  10.248  10.170 -0.1319 -0.3292  0.7157
22994SOL     OW73666   9.130   4.748   6.388  0.1247 -0.0137  0.1882
22994SOL    HW173667   9.035   4.737   6.386  0.0564  0.3503  1.0712
22994SOL    HW273668   9.162   4.672   6.436  0.4233 -0.8801 -1.3094
22995SOL     OW73669   0.269   3.814  10.765 -0.2284 -0.3749  0.2843
22995SOL    HW173670   0.242   3.888  10.819 -0.4286  1.1264 -1.7605
22995SOL    HW273671   0.189   3.761  10.756 -0.1449 -0.7560  1.5454
22996SOL     OW73672   4.515   3.390   9.873 -0.0310 -0.1646 -0.4067
22996SOL    HW173673   4.424   3.367   9.894 -0.2225  1.4937  0.8271
22996SOL    HW273674   4.509   3.440   9.791 -0.1786 -0.4240 -0.5545
22997SOL     OW73675   1.086   3.081  11.903  0.4688  0.6222 -0.0084
22997SOL    HW173676   1.004   3.108  11.946 -0.5582  0.9499 -2.0146
22997SOL    HW273677   1.155   3.116  11.959 -0.7024 -0.5026  2.2887
22998SOL     OW73678   6.454   3.334   0.504 -0.1240 -0.7983  0.1397
22998SOL    HW173679   6.457   3.318   0.598 -0.4725  1.5466  0.6072
22998SOL    HW273680   6.370   3.296   0.476 -1.2889  0.7808  1.3063
22999SOL     OW73681   1.548   5.572   4.900 -0.2187 -0.3027 -0.5049
22999SOL    HW173682   1.586   5.659   4.888  0.1329 -0.3525  0.1749
22999SOL    HW273683   1.568   5.525   4.820 -2.0473  0.8185 -1.6922
23000SOL     OW73684   8.098   1.886   7.093 -0.3808 -0.3593  0.2013
23000SOL    HW173685   8.133   1.972   7.116 -1.2232 -0.5938  2.6321
23000SOL    HW273686   8.006   1.903   7.071 -0.4400 -0.5811  0.2766
23001SOL     OW73687   3.151  11.293   6.159 -0.0413 -0.3531  0.2848
23001SOL    HW173688   3.168  11.312   6.067 -0.3904  0.3497  0.3608
23001SOL    HW273689   3.127  11.200   6.160  0.8247 -0.5899 -0.2099
23002SOL     OW73690  10.793   2.553   8.765  0.4394 -0.2753  0.2144
23002SOL    HW173691  10.848   2.482   8.732 -1.1290 -0.4414 -2.2901
23002SOL    HW273692  10.830   2.632   8.726  0.1139 -0.1417  0.1707
23003SOL     OW73693  10.697   8.132   7.809  0.3541  0.1103  0.1282
23003SOL    HW173694  10.731   8.122   7.899 -0.7047  1.3330  0.6836
23003SOL    HW273695  10.763   8.088   7.755  0.8381 -0.9957  1.5178
23004SOL     OW73696   5.583   7.309  11.336 -0.2296  0.2827  0.3055
23004SOL    HW173697   5.570   7.244  11.266 -2.6690  1.4067 -0.4041
23004SOL    HW273698   5.676   7.331  11.331 -0.0964 -0.5025 -1.8534
23005SOL     OW73699   4.490   9.918   7.562 -0.1132  0.1740  0.2089
23005SOL    HW173700   4.447   9.945   7.643  0.6164 -2.1241  1.4628
23005SOL    HW273701   4.514  10.000   7.519 -1.8530  1.4777  1.5537
23006SOL     OW73702   6.066   0.735   0.080  0.0423 -0.0242  0.0381
23006SOL    HW173703   5.998   0.763   0.018  0.8488 -0.7752 -1.2128
23006SOL    HW273704   6.043   0.644   0.101  1.1975 -0.6121 -1.1655
23007SOL     OW73705   7.299  11.473   0.232 -0.0851  0.3019  0.0860
23007SOL    HW173706   7.370  11.516   0.185  0.8689  0.9242  1.9933
23007SOL    HW273707   7.324  11.381   0.236  0.0427  0.3236 -0.2496
23008SOL     OW73708  10.638   0.643  10.764 -0.2174  0.7791 -0.2540
23008SOL    HW173709  10.734   0.646  10.770 -0.1888 -0.3250  0.1014
23008SOL    HW273710  10.621   0.597  10.682 -0.4107 -0.2350  0.3350
23009SOL     OW73711   9.247   3.788   5.980  0.1367 -0.1692  0.4581
23009SOL    HW173712   9.187   3.714   5.969  1.5032 -1.0882 -1.3660
23009SOL    HW273713   9.334   3.748   5.981  0.8396  1.3208  0.6317
23010SOL     OW73714   7.329   9.773   5.186 -0.4041  0.2866  0.3327
23010SOL    HW173715   7.415   9.792   5.149  1.0217 -4.0436  0.8908
23010SOL    HW273716   7.274   9.753   5.111  0.1615 -0.4679  0.1037
23011SOL     OW73717   4.424   6.711  10.842 -0.0496  0.8008  0.4199
23011SOL    HW173718   4.466   6.643  10.896 -1.7230 -1.0471 -0.4775
23011SOL    HW273719   4.349   6.740  10.893 -0.2157  0.8643  0.1402
23012SOL     OW73720   9.479   1.648   1.261 -0.0037 -0.4508  0.3252
23012SOL    HW173721   9.479   1.714   1.192 -1.6306  0.2711  0.9581
23012SOL    HW273722   9.552   1.590   1.239  1.0505  1.1547 -0.6182
23013SOL     OW73723   2.679   8.508   4.276 -0.2380 -0.3531 -0.3719
23013SOL    HW173724   2.654   8.554   4.356 -2.9930 -1.2390 -0.6500
23013SOL    HW273725   2.773   8.524   4.269  0.3608 -0.9996  3.5251
23014SOL     OW73726  10.319  11.263   0.555 -0.7494  0.1743  0.3364
23014SOL    HW173727  10.312  11.172   0.525 -0.8060  0.0722  0.6574
23014SOL    HW273728  10.259  11.311   0.498 -0.0388  0.1628 -0.4445
23015SOL     OW73729  10.673   9.407   2.408 -0.0028 -0.3953 -0.1197
23015SOL    HW173730  10.671   9.379   2.499  1.9934  1.4627  0.5694
23015SOL    HW273731  10.738   9.350   2.367  1.1857  0.6074  0.3335
23016SOL     OW73732   9.013  11.311   7.252  0.5920  0.4635 -0.8956
23016SOL    HW173733   9.096  11.283   7.290 -0.5692 -1.1035  0.6667
23016SOL    HW273734   8.994  11.394   7.296 -0.0866 -0.6824  1.1278
23017SOL     OW73735   9.536   9.390   9.524 -0.2268 -0.2735  0.4877
23017SOL    HW173736   9.532   9.482   9.552 -1.8904 -0.0541 -0.3394
23017SOL    HW273737   9.499   9.341   9.598 -2.5837  0.0948 -0.3783
23018SOL     OW73738   2.701   1.851   3.899  0.4397 -0.4926 -0.4441
23018SOL    HW173739   2.791   1.847   3.866  0.8021  0.3440  0.3999
23018SOL    HW273740   2.699   1.929   3.954 -0.8170 -0.4919 -0.4666
23019SOL     OW73741   0.158  11.787  11.170  0.0750  0.1756 -0.4615
23019SOL    HW173742   0.219  11.855  11.141  1.0348 -0.2528  0.4928
23019SOL    HW273743   0.214  11.714  11.195 -0.7319  0.1894  1.5908
23020SOL     OW73744   5.362  11.717  10.642  0.3765 -0.5907  0.2325
23020SOL    HW173745   5.317  11.727  10.726  2.3255 -2.5874  1.6283
23020SOL    HW273746   5.452  11.742  10.660  0.5238  0.5190 -1.7483
23021SOL     OW73747  10.803   7.323   1.316  0.4776 -0.1616 -0.0325
23021SOL    HW173748  10.871   7.268   1.354  0.7575 -0.5971 -1.1043
23021SOL    HW273749  10.847   7.406   1.298  0.5638 -0.2317 -0.1485
23022SOL     OW73750   1.680   4.084   4.722 -0.0245  0.7705  0.2437
23022SOL    HW173751   1.764   4.112   4.759  0.3392  0.0226  0.0244
23022SOL    HW273752   1.689   4.102   4.628  0.3817 -0.4266  0.0339
23023SOL     OW73753   8.717   4.944   4.822  0.3798 -0.0739  0.0690
23023SOL    HW173754   8.686   5.022   4.776 -4.0261 -0.7721  1.3895
23023SOL    HW273755   8.711   4.873   4.758  1.0101  0.0764 -0.1622
23024SOL     OW73756   5.311   3.725   6.886  0.7634 -0.3941 -0.0231
23024SOL    HW173757   5.344   3.801   6.934  1.0050  0.8225 -1.9975
23024SOL    HW273758   5.389   3.682   6.852  0.5445 -0.2157 -0.7762
23025SOL     OW73759   2.311   5.766   3.703  0.4973  0.9275  0.5262
23025SOL    HW173760   2.253   5.691   3.711 -0.5938  1.7594  0.6699
23025SOL    HW273761   2.387   5.732   3.656 -0.1877 -0.1451  0.1441
23026SOL     OW73762   6.029  10.516  11.768  0.8039  0.5328 -0.1776
23026SOL    HW173763   6.097  10.499  11.703  0.3488  1.1924 -0.8502
23026SOL    HW273764   6.034  10.610  11.785  1.7023  0.1954  1.6610
23027SOL     OW73765   3.238   8.914   8.911 -0.7814 -0.3737  0.1305
23027SOL    HW173766   3.323   8.923   8.953 -0.3769 -0.1476 -0.7073
23027SOL    HW273767   3.215   8.822   8.924  1.1555 -1.3475 -2.4314
23028SOL     OW73768   4.677   5.225   2.575 -0.4249  0.9091 -0.5754
23028SOL    HW173769   4.584   5.213   2.556 -0.5235 -0.0708  0.4558
23028SOL    HW273770   4.721   5.201   2.493 -0.9687 -0.8188 -0.3956
23029SOL     OW73771   3.576   0.954  10.300  1.0693  0.2529  0.3327
23029SOL    HW173772   3.631   0.888  10.344 -0.6418 -1.4109  0.0948
23029SOL    HW273773   3.626   0.978  10.222  1.1149 -1.8861 -0.3508
23030SOL     OW73774  10.783   1.436  10.589  0.3124 -0.3432  0.5063
23030SOL    HW173775  10.791   1.530  10.575  1.4124 -0.4542  0.3145
23030SOL    HW273776  10.701   1.426  10.637 -0.7292  0.5382 -1.0115
23031SOL     OW73777   5.344   1.235   5.302 -0.2488  0.3971 -0.1685
23031SOL    HW173778   5.373   1.310   5.250  0.0765  1.2565  1.2275
23031SOL    HW273779   5.342   1.266   5.392  1.4192 -1.7149  0.6920
23032SOL     OW73780   6.555  11.315  11.952  0.9789 -0.2085  0.5821
23032SOL    HW173781   6.501  11.383  11.991  0.4797 -0.6099  0.6073
23032SOL    HW273782   6.493  11.260  11.903  1.3054 -0.9143  0.9460
23033SOL     OW73783   8.875   0.479   9.718  0.0965 -0.1838 -0.0818
23033SOL    HW173784   8.807   0.546   9.711  0.8922  0.6534 -0.0328
23033SOL    HW273785   8.945   0.523   9.767 -0.3579 -1.8370  2.2223
23034SOL     OW73786   7.863   5.424   5.778  0.2721  0.0942 -0.6172
23034SOL    HW173787   7.806   5.410   5.853 -0.8571  2.3499 -0.9471
23034SOL    HW273788   7.950   5.399   5.809 -0.4032 -0.4278  0.9560
23035SOL     OW73789   2.899   8.450   7.670  0.3740 -0.1460  0.2628
23035SOL    HW173790   2.869   8.415   7.754  1.6592 -0.2420  0.7038
23035SOL    HW273791   2.981   8.403   7.652  0.1998 -0.0240 -0.9761
23036SOL     OW73792  11.367   1.932  11.032  0.5508 -0.2437  0.0772
23036SOL    HW173793  11.319   2.015  11.040 -2.0655 -1.7595  1.6853
23036SOL    HW273794  11.447   1.946  11.083  0.1215  1.2700  0.4045
23037SOL     OW73795   1.325   6.131   2.267  0.1865  0.1401 -0.1928
23037SOL    HW173796   1.374   6.213   2.269 -0.3253  0.4489 -0.4053
23037SOL    HW273797   1.266   6.139   2.192  0.4656 -0.6108 -0.5113
23038SOL     OW73798   7.630   4.993   9.346 -0.2220 -0.2454 -0.1732
23038SOL    HW173799   7.601   5.083   9.331 -0.0706 -0.0277  0.7698
23038SOL    HW273800   7.725   4.999   9.351  0.0510 -0.9158 -2.9713
23039SOL     OW73801   0.700   1.162   4.393  0.7608 -0.4244 -0.0971
23039SOL    HW173802   0.736   1.125   4.312  0.6325 -1.6553  0.3966
23039SOL    HW273803   0.751   1.121   4.463 -0.0772 -0.4440  0.5080
23040SOL     OW73804   4.277  10.827   5.604 -0.1060  0.0814  0.5376
23040SOL    HW173805   4.370  10.809   5.618  0.2594  0.2026 -1.3524
23040SOL    HW273806   4.275  10.918   5.573 -0.9619  0.3738  1.4039
23041SOL     OW73807   1.391   9.597  10.904  0.5652  0.2003 -0.6570
23041SOL    HW173808   1.331   9.632  10.838  0.1371  2.1707  0.6782
23041SOL    HW273809   1.467   9.655  10.901  2.1863 -1.8740 -1.8684
23042SOL     OW73810   3.924   2.683   0.380  0.1605 -0.7479 -0.4405
23042SOL    HW173811   3.834   2.678   0.348  0.4823  0.3480 -1.5981
23042SOL    HW273812   3.914   2.690   0.475 -1.0415  0.4070 -0.6124
23043SOL     OW73813  10.791   2.159   9.271 -0.5484 -0.3475 -0.5142
23043SOL    HW173814  10.883   2.178   9.286 -0.5776 -1.1450  0.8503
23043SOL    HW273815  10.749   2.176   9.355 -1.3324 -1.7010 -0.6002
23044SOL     OW73816   4.293   2.861  10.024 -0.2693  0.6368  1.0383
23044SOL    HW173817   4.242   2.780  10.013  0.2338  0.2801  1.3197
23044SOL    HW273818   4.231   2.931  10.001 -0.6442  0.1643  0.5851
23045SOL     OW73819   0.501   5.471   3.835 -0.4552  0.2848  0.0547
23045SOL    HW173820   0.550   5.389   3.829  0.5545  0.8235  0.6820
23045SOL    HW273821   0.436   5.455   3.903  0.4357  0.3308  0.9351
23046SOL     OW73822  10.817  11.091   3.361  0.2997 -0.9287  0.0619
23046SOL    HW173823  10.812  11.095   3.457  1.2167 -1.4322  0.1471
23046SOL    HW273824  10.903  11.053   3.344  0.6650  0.2921 -0.9911
23047SOL     OW73825   8.800   1.642   9.480  0.5314 -0.8640 -0.1860
23047SOL    HW173826   8.817   1.648   9.574 -1.9125  1.1506  0.2298
23047SOL    HW273827   8.732   1.576   9.472 -0.7267  0.4072 -0.2609
23048SOL     OW73828  11.438   8.513   4.933  0.0076 -0.2468  0.0092
23048SOL    HW173829  11.398   8.428   4.951  0.3185 -0.4814 -0.3885
23048SOL    HW273830  11.369   8.565   4.894 -0.0682 -0.4565 -0.1360
23049SOL     OW73831   0.091  11.364   8.036 -0.7138  0.4019  0.4449
23049SOL    HW173832   0.112  11.356   7.943 -1.8598  0.8680  0.1351
23049SOL    HW273833   0.121  11.282   8.074 -0.5945  0.0360 -0.4104
23050SOL     OW73834   1.776   2.009   2.061  0.5456  0.3545  0.0318
23050SOL    HW173835   1.767   2.054   1.978 -0.7891  0.6121  0.2910
23050SOL    HW273836   1.792   2.079   2.125  2.7848  0.0673 -0.1303
23051SOL     OW73837   7.571   8.147   8.302 -0.4345 -0.2186 -0.2946
23051SOL    HW173838   7.505   8.114   8.241  0.1617 -1.3820 -0.3466
23051SOL    HW273839   7.529   8.220   8.346 -1.6694 -0.7680 -0.5142
23052SOL     OW73840  11.020   9.792   5.044  0.0899 -0.8680 -0.2496
23052SOL    HW173841  10.966   9.713   5.048 -0.0449 -0.9772 -2.7676
23052SOL    HW273842  11.087   9.772   4.978  1.4689  0.3262  0.7096
23053SOL     OW73843   1.277   9.564   7.692  0.3319  0.1737 -0.2149
23053SOL    HW173844   1.326   9.615   7.627 -0.4865  0.6811 -0.4571
23053SOL    HW273845   1.293   9.609   7.775  0.3746  0.2699 -0.2739
23054SOL     OW73846   6.161  11.235   7.817 -0.2389 -0.2669  0.0387
23054SOL    HW173847   6.218  11.251   7.892  0.0192 -0.8578 -0.0239
23054SOL    HW273848   6.128  11.321   7.793 -2.0353 -0.2755  2.1354
23055SOL     OW73849   4.820   3.445   4.555  0.4133  0.7964 -0.4738
23055SOL    HW173850   4.824   3.351   4.574  0.2649  0.5188 -1.7562
23055SOL    HW273851   4.841   3.487   4.639  2.6375 -0.3909 -0.3645
23056SOL     OW73852   0.316   0.714   1.344  0.0895 -0.8042 -0.1406
23056SOL    HW173853   0.332   0.792   1.292  0.6121 -0.6173  0.2809
23056SOL    HW273854   0.364   0.730   1.426 -1.5014 -0.6648  0.7960
23057SOL     OW73855   6.209   4.571   9.211  0.0779 -0.5385  0.5515
23057SOL    HW173856   6.197   4.632   9.284  0.0777 -1.2146  1.1303
23057SOL    HW273857   6.209   4.626   9.133  1.2030  0.3295  1.1345
23058SOL     OW73858   1.718   0.765   5.140  0.5180 -0.1226 -0.1681
23058SOL    HW173859   1.750   0.760   5.230  0.6676 -2.0930 -0.2894
23058SOL    HW273860   1.770   0.834   5.100 -0.4384  1.6917  1.5684
23059SOL     OW73861  10.208   9.768   4.377  0.4952 -0.1050  0.4115
23059SOL    HW173862  10.290   9.744   4.422 -0.4150 -1.6216  1.3208
23059SOL    HW273863  10.140   9.755   4.443 -0.5075  1.1605 -0.3252
23060SOL     OW73864   7.470   8.738   4.098 -1.2289  0.0046 -0.0169
23060SOL    HW173865   7.543   8.691   4.059 -0.9128  0.7453 -0.3470
23060SOL    HW273866   7.436   8.793   4.027 -2.0656 -0.2868  0.1542
23061SOL     OW73867   8.855   1.708  11.311 -0.6261 -0.1614 -0.0391
23061SOL    HW173868   8.882   1.736  11.224 -2.1471 -0.0426 -0.5068
23061SOL    HW273869   8.791   1.638  11.296  0.3776 -1.3638  1.0373
23062SOL     OW73870   5.852  11.545   5.668 -0.2800  0.4495  0.3337
23062SOL    HW173871   5.910  11.580   5.600 -0.2373 -1.2479 -0.5731
23062SOL    HW273872   5.911  11.518   5.738 -0.0252 -0.3598 -0.1704
23063SOL     OW73873   2.711   5.368   0.857 -0.5705 -0.2559 -0.1435
23063SOL    HW173874   2.759   5.380   0.775 -0.9871 -1.1836 -0.5360
23063SOL    HW273875   2.620   5.353   0.830 -0.5300 -1.6667  0.4066
23064SOL     OW73876  10.472   8.156   0.429 -0.0758 -0.1380 -0.0628
23064SOL    HW173877  10.421   8.230   0.461  1.4112  1.2586 -0.8303
23064SOL    HW273878  10.552   8.194   0.395 -0.1484 -1.8662 -2.4432
23065SOL     OW73879  10.622   2.602  11.507 -0.0722 -0.0347 -0.3586
23065SOL    HW173880  10.708   2.570  11.481 -0.2796 -0.1224 -0.9381
23065SOL    HW273881  10.598   2.548  11.583 -0.8832 -2.0516 -1.9415
23066SOL     OW73882   1.872   8.710  10.086 -0.3334  0.3417  0.5275
23066SOL    HW173883   1.967   8.701  10.082 -0.1823  1.8558 -3.3968
23066SOL    HW273884   1.840   8.621  10.096  1.4893 -0.5721 -1.1944
23067SOL     OW73885   2.579  11.610   1.118 -0.3129  0.7171 -0.3572
23067SOL    HW173886   2.567  11.529   1.168 -0.1839 -0.8027 -2.6427
23067SOL    HW273887   2.653  11.653   1.159  0.7070 -1.1878 -0.0992
23068SOL     OW73888  10.762   7.923   1.667 -0.2944 -0.3244  0.1431
23068SOL    HW173889  10.683   7.938   1.718  0.5333 -0.6157  1.5746
23068SOL    HW273890  10.823   7.883   1.728  0.1873 -2.3207 -1.5210
23069SOL     OW73891   7.395   0.762   2.795  0.0973 -0.3829  0.2867
23069SOL    HW173892   7.390   0.760   2.890 -2.3443  1.3067  0.2710
23069SOL    HW273893   7.489   0.755   2.776  0.5989 -1.3253  2.7536
23070SOL     OW73894   0.426   2.611   5.689 -0.7510  0.0559  0.0841
23070SOL    HW173895   0.446   2.527   5.730 -1.6514 -0.9575 -1.4604
23070SOL    HW273896   0.425   2.674   5.762  0.2887 -1.1810  1.2134
23071SOL     OW73897   3.925   3.596   8.400  0.1480  0.4513 -0.0132
23071SOL    HW173898   3.860   3.594   8.330  0.5151 -0.2590 -0.3513
23071SOL    HW273899   4.003   3.633   8.358  0.1840  0.5969  0.1836
23072SOL     OW73900   5.796   3.092   5.112 -0.3864  0.0006 -0.0870
23072SOL    HW173901   5.858   3.124   5.047 -2.4283  2.3249 -1.0500
23072SOL    HW273902   5.811   3.147   5.189 -2.0334  1.5194 -0.7823
23073SOL     OW73903   7.421   9.750   3.859  0.6514  0.8390  0.2932
23073SOL    HW173904   7.409   9.667   3.905  0.5226  0.9394  0.4449
23073SOL    HW273905   7.498   9.789   3.901  1.4386  0.2560 -0.5883
23074SOL     OW73906  10.266   3.122   0.816  0.2954  0.4640  0.3612
23074SOL    HW173907  10.255   3.028   0.830 -0.3926  0.4128 -0.4596
23074SOL    HW273908  10.201   3.162   0.874 -0.0321  0.3977  0.0403
23075SOL     OW73909   9.073  11.140   6.340 -0.0654  0.0308 -0.1618
23075SOL    HW173910   9.143  11.084   6.372  2.4361  2.4711 -0.9393
23075SOL    HW273911   9.071  11.125   6.245 -1.4443 -0.8574 -0.0163
23076SOL     OW73912  11.292  11.772   9.890 -0.1578 -0.7844  0.2358
23076SOL    HW173913  11.238  11.767   9.810 -0.7250  0.5435  0.5131
23076SOL    HW273914  11.242  11.828   9.949  0.3684 -1.5605  1.4589
23077SOL     OW73915  11.561   5.868   9.844  0.4116  0.6383 -0.5088
23077SOL    HW173916  11.594   5.885   9.756  0.2762 -0.8835 -0.8922
23077SOL    HW273917  11.466   5.876   9.836  0.4349  1.0538 -0.3684
23078SOL     OW73918   4.453   8.824   3.358  0.9351  0.0379 -0.0310
23078SOL    HW173919   4.417   8.826   3.447 -0.1049 -1.2132 -0.3984
23078SOL    HW273920   4.547   8.837   3.370  0.7900  0.0676  1.2364
23079SOL     OW73921   9.634   1.412   5.743  0.4688 -0.1490 -0.5251
23079SOL    HW173922   9.610   1.476   5.675 -1.1713  0.0710  0.2093
23079SOL    HW273923   9.634   1.328   5.697 -3.2448 -0.3868 -0.4149
23080SOL     OW73924  11.922   2.119   8.193 -0.0157 -0.6074 -0.0395
23080SOL    HW173925  11.945   2.206   8.226 -0.9412 -0.9169  1.4772
23080SOL    HW273926  12.007   2.075   8.182  0.5589  0.7736 -1.8306
23081SOL     OW73927   6.449   6.307   0.434 -0.0753 -0.2551  0.3536
23081SOL    HW173928   6.406   6.224   0.415 -1.7496  0.5716  0.3360
23081SOL    HW273929   6.425   6.364   0.360  0.1350  0.5564  0.8948
23082SOL     OW73930  11.270   6.329   9.730  0.0381 -0.5454 -0.0114
23082SOL    HW173931  11.243   6.239   9.748 -0.7413 -0.1751  0.7334
23082SOL    HW273932  11.254   6.377   9.812 -0.4378  0.4593 -0.6610
23083SOL     OW73933  10.362   6.357   8.790  0.0710  0.2605 -0.1849
23083SOL    HW173934  10.309   6.278   8.776 -0.2192  0.4159  0.0219
23083SOL    HW273935  10.299   6.429   8.791  0.5025  0.7288 -2.1907
23084SOL     OW73936   9.987  11.489  11.157 -0.4713  0.2972 -0.6194
23084SOL    HW173937  10.058  11.436  11.194 -0.6034  1.1450  0.9164
23084SOL    HW273938   9.998  11.576  11.195 -2.6269  0.3255  0.0998
23085SOL     OW73939   0.122   7.245  11.016 -0.6870 -0.2076 -0.1290
23085SOL    HW173940   0.108   7.319  11.074 -0.0886 -0.0956 -0.1237
23085SOL    HW273941   0.199   7.270  10.964  0.3901 -1.4061  0.8286
23086SOL     OW73942   8.842   3.848   2.661 -0.3103 -0.0454  0.2513
23086SOL    HW173943   8.901   3.855   2.586 -0.8893  0.5818 -0.1553
23086SOL    HW273944   8.845   3.756   2.685 -1.5691 -0.6546 -1.7260
23087SOL     OW73945   2.624   8.928   4.612 -0.2039 -0.0611  0.3556
23087SOL    HW173946   2.630   8.881   4.695  0.2486  0.7590  0.8065
23087SOL    HW273947   2.532   8.950   4.603 -0.3368 -0.5967  0.3824
23088SOL     OW73948   4.251   8.972   2.713 -0.3593  0.0149  0.0188
23088SOL    HW173949   4.233   9.001   2.803  2.2446  1.4725  0.1806
23088SOL    HW273950   4.191   9.024   2.659  1.0718  2.5338  0.6738
23089SOL     OW73951   6.925   8.034   5.020 -0.0995  0.5477  0.2555
23089SOL    HW173952   6.855   8.093   4.992 -0.9326 -0.4960  0.0779
23089SOL    HW273953   6.959   8.073   5.100 -0.3406  1.4903 -0.0900
23090SOL     OW73954   5.765   0.113   3.644 -0.6097 -0.5865 -0.5206
23090SOL    HW173955   5.725   0.031   3.617  0.4509 -1.1944 -0.2839
23090SOL    HW273956   5.845   0.088   3.690  0.8132  0.6286 -2.1997
23091SOL     OW73957   6.160   1.001   0.832 -0.1950  0.3332 -0.3699
23091SOL    HW173958   6.242   1.016   0.880 -0.3490  0.3702 -0.1145
23091SOL    HW273959   6.141   0.908   0.847 -1.4505  0.8440  1.5880
23092SOL     OW73960   7.453   5.752   2.150  0.1688  0.4475 -0.2234
23092SOL    HW173961   7.503   5.671   2.156  1.0553  1.0343  0.7366
23092SOL    HW273962   7.495   5.811   2.213 -1.1191  1.2999 -0.1199
23093SOL     OW73963   2.436   4.720   9.841  0.2754 -0.3885 -0.4899
23093SOL    HW173964   2.391   4.764   9.913  1.5151 -0.9839  0.6926
23093SOL    HW273965   2.510   4.777   9.819  2.7830 -2.3838  2.0498
23094SOL     OW73966   8.441   0.522  11.895  0.7830 -0.2589  0.4346
23094SOL    HW173967   8.360   0.476  11.919  0.7605 -0.7395 -0.5072
23094SOL    HW273968   8.413   0.587  11.831  1.2171 -0.8647 -0.3939
23095SOL     OW73969   1.633   3.241   3.461 -0.0723  0.5012 -0.2295
23095SOL    HW173970   1.593   3.326   3.441 -4.0115 -1.0525  0.1507
23095SOL    HW273971   1.616   3.187   3.384 -1.7618 -1.1487  1.2053
23096SOL     OW73972   2.010   1.331   2.491  0.4986 -0.2525  0.0801
23096SOL    HW173973   1.987   1.255   2.544  0.8278  0.1692  0.8373
23096SOL    HW273974   1.931   1.384   2.490  0.5229 -0.2119  0.2405
23097SOL     OW73975   0.217  11.669   0.652 -0.2142 -0.1140 -0.3133
23097SOL    HW173976   0.236  11.691   0.743  1.5907 -1.3023 -0.3437
23097SOL    HW273977   0.249  11.743   0.602 -0.8441  0.3646 -0.0235
23098SOL     OW73978   9.152   1.973  11.766 -0.2693 -0.8164 -0.2820
23098SOL    HW173979   9.158   1.983  11.861 -0.5697  0.3160 -0.3784
23098SOL    HW273980   9.104   1.891  11.753 -0.8635 -0.6049  0.5458
23099SOL     OW73981   1.616   2.862   3.786  0.2575 -0.1900  0.7176
23099SOL    HW173982   1.567   2.943   3.769 -1.0569 -1.0390  0.3437
23099SOL    HW273983   1.678   2.886   3.855 -0.5951  0.9571  1.1190
23100SOL     OW73984   1.046   4.903   8.360  0.1555 -0.1537  0.0772
23100SOL    HW173985   1.126   4.854   8.342  0.3712 -0.0032  0.6070
23100SOL    HW273986   0.978   4.836   8.368  0.2338 -0.2842 -0.3493
23101SOL     OW73987   7.078  10.789   6.219  0.3076  1.0667 -0.2394
23101SOL    HW173988   7.011  10.727   6.190  1.3178  0.5411 -1.5818
23101SOL    HW273989   7.061  10.869   6.169 -0.3702  1.5455  0.7322
23102SOL     OW73990   4.727   0.613   3.953 -0.7260 -0.6321 -0.1424
23102SOL    HW173991   4.749   0.523   3.975 -2.1518 -1.0053 -0.1578
23102SOL    HW273992   4.686   0.649   4.032 -0.5557 -0.1272 -0.2755
23103SOL     OW73993   5.282   3.189   1.847  0.5155 -0.7676  0.2741
23103SOL    HW173994   5.219   3.169   1.916  1.0182 -1.0419  0.6568
23103SOL    HW273995   5.234   3.247   1.787  0.2139 -0.1568  1.0863
23104SOL     OW73996   7.608   6.552   2.306 -0.4681 -0.0055 -0.1752
23104SOL    HW173997   7.523   6.585   2.336  0.9427  1.5957  2.4091
23104SOL    HW273998   7.637   6.616   2.241 -0.1866  0.8163  0.7458
23105SOL     OW73999   5.696   6.940   2.201 -0.7062  0.2277 -0.2454
23105SOL    HW174000   5.782   6.925   2.163 -1.1192 -2.8034 -0.2189
23105SOL    HW274001   5.693   6.884   2.278 -2.1514  1.5010  0.6958
23106SOL     OW74002   0.829   0.669   5.061 -0.0967 -0.7082  0.5166
23106SOL    HW174003   0.873   0.752   5.080 -2.3648  0.3389  1.5056
23106SOL    HW274004   0.774   0.688   4.984 -1.0179 -1.1277  1.0537
23107SOL     OW74005   9.682   5.326   4.980  0.1770  0.1122 -0.4974
23107SOL    HW174006   9.690   5.420   4.997 -0.3443 -0.1520  1.3688
23107SOL    HW274007   9.588   5.313   4.963  0.4350  0.0981 -2.0430
23108SOL     OW74008   9.919  11.227   7.523  0.2403 -0.1924 -0.5094
23108SOL    HW174009   9.903  11.317   7.550 -1.1700 -0.0817 -1.6541
23108SOL    HW274010   9.936  11.232   7.429 -0.6112 -1.1997 -0.7329
23109SOL     OW74011   0.637   1.745  11.247  0.1210  0.0181  0.0518
23109SOL    HW174012   0.699   1.680  11.214 -0.8224 -0.3773 -1.0456
23109SOL    HW274013   0.673   1.829  11.219  0.7508 -0.1177  0.4467
23110SOL     OW74014   3.947   1.305   3.242  0.0946  0.1804 -0.7054
23110SOL    HW174015   3.914   1.267   3.161  0.4325 -0.3380 -0.6026
23110SOL    HW274016   3.932   1.399   3.232  0.7627  0.1957 -1.6621
23111SOL     OW74017  11.889   4.714   7.921  1.2974 -0.0572 -0.4381
23111SOL    HW174018  11.926   4.799   7.899  1.1543  0.0971 -0.0933
23111SOL    HW274019  11.874   4.718   8.016 -4.1592  1.8002 -1.0189
23112SOL     OW74020   7.159   8.587   4.694  0.1689 -0.0646 -0.6143
23112SOL    HW174021   7.170   8.680   4.713  1.0196 -0.2355 -0.1858
23112SOL    HW274022   7.246   8.549   4.709 -0.6919 -1.3426  1.6708
23113SOL     OW74023   9.130   7.892   5.410  0.1963 -0.2127 -0.3850
23113SOL    HW174024   9.070   7.965   5.392  0.3481  0.1291  0.4480
23113SOL    HW274025   9.101   7.822   5.351 -0.4902  0.2367 -0.5899
23114SOL     OW74026  11.860   8.524   5.694 -0.0957 -0.2138 -0.0176
23114SOL    HW174027  11.860   8.428   5.693 -1.4188 -0.2430  0.3773
23114SOL    HW274028  11.796   8.548   5.628 -0.6371  0.3638  0.7020
23115SOL     OW74029   0.246   5.744  10.068  0.0190 -0.0867 -0.0071
23115SOL    HW174030   0.258   5.777   9.979 -0.5826  0.8272  0.2315
23115SOL    HW274031   0.223   5.821  10.119 -0.8474 -0.7849  0.7014
23116SOL     OW74032   2.540   2.168  11.258 -0.0449  0.6696  0.2836
23116SOL    HW174033   2.509   2.257  11.243 -0.9945  0.2656 -0.1944
23116SOL    HW274034   2.557   2.134  11.171  0.7951  0.5375  0.4897
23117SOL     OW74035   5.357   6.586   3.414 -0.3893  0.0369  0.2160
23117SOL    HW174036   5.294   6.514   3.423 -0.5677  0.4406  3.4602
23117SOL    HW274037   5.443   6.543   3.412 -0.4049 -0.3925  3.3816
23118SOL     OW74038   7.024   2.257   4.156  0.7233 -0.1891  0.0747
23118SOL    HW174039   6.969   2.266   4.233  0.0521 -1.3587 -0.2331
23118SOL    HW274040   7.112   2.282   4.185  0.1813  0.9631  0.7715
23119SOL     OW74041   3.130   7.542   4.594  0.5660  0.2695  0.6166
23119SOL    HW174042   3.065   7.557   4.524  0.8137  2.3486  0.7480
23119SOL    HW274043   3.209   7.514   4.547 -0.2792 -1.9930  0.4303
23120SOL     OW74044   0.547   7.397   2.859  0.0642 -0.4414 -0.1603
23120SOL    HW174045   0.541   7.309   2.823  0.6411 -0.2118 -0.8576
23120SOL    HW274046   0.598   7.388   2.939 -0.5248 -0.8420  0.1780
23121SOL     OW74047  10.317   5.024  10.975 -0.1043 -0.0994 -0.2350
23121SOL    HW174048  10.275   5.109  10.989  2.5200  1.3098 -0.2155
23121SOL    HW274049  10.282   4.968  11.043 -1.2252  1.2419  0.3431
23122SOL     OW74050   7.581   8.782   0.159 -0.6253 -0.4224 -1.1281
23122SOL    HW174051   7.551   8.699   0.122  0.2328 -0.6549 -1.3244
23122SOL    HW274052   7.554   8.778   0.251 -1.8755 -0.2743 -1.4636
23123SOL     OW74053   9.520   8.334   3.147  0.4142  0.0810  0.3706
23123SOL    HW174054   9.578   8.395   3.103  1.9291 -0.3615  1.6733
23123SOL    HW274055   9.542   8.342   3.240 -1.1079 -0.6364  0.8323
23124SOL     OW74056   6.353  10.110   9.732 -0.0476 -0.2596 -0.1107
23124SOL    HW174057   6.277  10.100   9.675  0.5410  0.1642 -1.0095
23124SOL    HW274058   6.372  10.021   9.763 -1.8116 -0.1586  1.3750
23125SOL     OW74059   2.379   8.619   1.557 -0.1826 -0.4381  0.0561
23125SOL    HW174060   2.291   8.623   1.596 -0.5640 -3.0558 -0.3196
23125SOL    HW274061   2.363   8.598   1.465  0.8179 -1.6201  0.1302
23126SOL     OW74062   0.311   2.814   4.937 -0.5648 -0.3147 -0.3053
23126SOL    HW174063   0.328   2.768   5.020  0.3197  0.0622 -0.2726
23126SOL    HW274064   0.218   2.796   4.919 -0.5706 -1.0316  0.3736
23127SOL     OW74065   1.056   8.945  11.992 -0.5108 -0.6055 -0.5966
23127SOL    HW174066   1.012   8.990  12.063  0.0382 -2.3004  0.9129
23127SOL    HW274067   0.993   8.879  11.963 -0.6813 -0.0089 -1.6324
23128SOL     OW74068   6.920   9.577   3.066 -0.0909  0.1852  0.3505
23128SOL    HW174069   7.003   9.573   3.115 -1.0994  2.0134  2.3610
23128SOL    HW274070   6.855   9.542   3.127 -1.0737  0.4287 -0.5308
23129SOL     OW74071   7.545   3.356   2.909  0.1397 -0.2346 -0.4286
23129SOL    HW174072   7.583   3.385   2.826  0.1122 -0.1956 -0.4273
23129SOL    HW274073   7.565   3.262   2.912  0.9300 -0.0560 -0.0505
23130SOL     OW74074   8.863   0.833   5.254 -0.6969  0.1610 -0.4390
23130SOL    HW174075   8.928   0.858   5.189 -0.5998  1.5535  0.1718
23130SOL    HW274076   8.784   0.814   5.203 -0.2528 -0.0802 -1.0535
23131SOL     OW74077   6.273   9.482   3.059 -0.0520 -0.1897 -0.0336
23131SOL    HW174078   6.352   9.534   3.044 -0.4489 -0.1085 -2.2564
23131SOL    HW274079   6.300   9.413   3.118  1.6346 -0.0168 -0.5423
23132SOL     OW74080   7.656   4.577   8.547  0.2906  0.0296  0.0526
23132SOL    HW174081   7.661   4.658   8.598 -0.0313  0.7906 -1.0644
23132SOL    HW274082   7.614   4.514   8.604 -0.5392  1.0063  0.5442
23133SOL     OW74083   0.220   5.406   2.816 -0.2576  0.4915 -0.1035
23133SOL    HW174084   0.270   5.325   2.809 -0.4187  0.4543 -1.0134
23133SOL    HW274085   0.250   5.446   2.897 -2.3842 -1.9258  2.0634
23134SOL     OW74086   6.774   1.097   6.382 -0.3875 -0.0784 -0.9314
23134SOL    HW174087   6.703   1.097   6.446 -0.1191  0.3812 -0.6275
23134SOL    HW274088   6.829   1.172   6.407  2.0002 -2.2151  0.8851
23135SOL     OW74089   3.190   9.257   6.477  0.0469  0.4758  0.6997
23135SOL    HW174090   3.127   9.279   6.408  0.1420  0.9251  0.7525
23135SOL    HW274091   3.160   9.306   6.553  0.8614  1.2803  0.5296
23136SOL     OW74092   1.953   6.485   0.372  0.4420 -0.0459  0.8044
23136SOL    HW174093   2.037   6.468   0.331  1.1100  0.0482  2.0644
23136SOL    HW274094   1.900   6.407   0.354 -1.0071  1.7264 -4.0890
23137SOL     OW74095   7.095   6.826  10.641  0.0803 -0.1664  1.1872
23137SOL    HW174096   7.114   6.839  10.734  0.5658  0.4080  1.0121
23137SOL    HW274097   7.160   6.879  10.596 -0.9456  0.5707  0.5370
23138SOL     OW74098   0.933   0.491   8.535 -0.3968 -0.4088  0.3931
23138SOL    HW174099   0.983   0.569   8.560  1.2208 -0.7104 -1.6599
23138SOL    HW274100   0.857   0.524   8.489 -0.1250 -0.0235  0.2171
23139SOL     OW74101   6.149   1.528   8.804 -0.0532  0.4174  0.1099
23139SOL    HW174102   6.118   1.497   8.889 -2.8117  0.4036 -0.7868
23139SOL    HW274103   6.135   1.622   8.805  1.5536  0.6809  0.2554
23140SOL     OW74104   1.200   7.490   4.703  0.2438 -0.2721  0.3089
23140SOL    HW174105   1.237   7.540   4.630 -0.1966  2.3785  1.7990
23140SOL    HW274106   1.108   7.478   4.680  0.1853  0.2458  0.2755
23141SOL     OW74107   1.333  11.769  10.945  0.0125 -0.1356  0.1799
23141SOL    HW174108   1.396  11.700  10.961 -0.7384 -0.6820  0.8767
23141SOL    HW274109   1.380  11.850  10.964  0.5287 -0.5216  0.5714
23142SOL     OW74110   1.714   7.336  11.444  0.5040 -0.3192  0.1446
23142SOL    HW174111   1.685   7.410  11.391 -0.7760 -1.2042 -0.4317
23142SOL    HW274112   1.776   7.289  11.387  0.0604 -0.5907 -0.1231
23143SOL     OW74113  10.036  10.194   4.980  0.0586 -0.0943  0.4216
23143SOL    HW174114  10.066  10.107   5.004 -0.8820 -1.4858 -2.8709
23143SOL    HW274115  10.083  10.213   4.898 -2.2623  0.9285 -0.7806
23144SOL     OW74116   6.670   7.196   7.843  0.1573  0.1591 -0.2890
23144SOL    HW174117   6.674   7.200   7.747 -0.5106 -2.6264 -0.4991
23144SOL    HW274118   6.576   7.197   7.863  0.1879 -1.8346  0.1187
23145SOL     OW74119  10.423   5.554   7.380  0.5249 -0.1871  0.6178
23145SOL    HW174120  10.400   5.613   7.451  0.6445 -1.2368  1.5539
23145SOL    HW274121  10.518   5.565   7.370  0.3822  0.6348 -0.0370
23146SOL     OW74122   3.154   5.550   1.091 -0.0035  0.0258 -0.1002
23146SOL    HW174123   3.061   5.570   1.089 -0.3604 -1.1063  2.0613
23146SOL    HW274124   3.158   5.454   1.093  1.1873  0.0639  0.3225
23147SOL     OW74125   7.797   5.457   8.524 -0.3972  0.1103 -0.2037
23147SOL    HW174126   7.793   5.411   8.608 -0.2628 -2.0280 -1.3055
23147SOL    HW274127   7.890   5.480   8.514  0.1305 -2.1097 -0.9628
23148SOL     OW74128   0.632   9.421   2.705  0.5625 -0.1635  0.0455
23148SOL    HW174129   0.600   9.331   2.704 -0.6563  0.2497 -0.6955
23148SOL    HW274130   0.690   9.425   2.782  0.6754 -1.5721  0.0674
23149SOL     OW74131   9.997  10.107   0.864 -0.0607 -0.2149  0.0125
23149SOL    HW174132  10.031  10.018   0.869 -0.1917 -0.2290  0.8909
23149SOL    HW274133  10.028  10.141   0.780 -0.5852 -1.3211 -0.6380
23150SOL     OW74134   6.794  10.730   3.606  0.3664 -0.5280  0.2140
23150SOL    HW174135   6.735  10.746   3.679 -0.1661 -0.2574 -0.2652
23150SOL    HW274136   6.882  10.735   3.644  0.0820 -1.9283  1.1469
23151SOL     OW74137  10.213   1.335   9.264 -1.0981  0.1393  0.1619
23151SOL    HW174138  10.125   1.300   9.279 -0.6051 -0.7115  1.1382
23151SOL    HW274139  10.200   1.430   9.263 -2.1547  0.0151 -0.6329
23152SOL     OW74140   6.288   1.958   4.912  0.1623  0.0340 -0.0882
23152SOL    HW174141   6.336   1.987   4.835 -0.2049 -0.0274 -0.3390
23152SOL    HW274142   6.215   2.019   4.920 -0.5187 -0.7083 -0.5230
23153SOL     OW74143   4.845   3.424   5.967  0.6259 -0.1543 -0.4159
23153SOL    HW174144   4.900   3.423   5.890  0.5603 -1.9211 -0.4899
23153SOL    HW274145   4.899   3.462   6.036  1.7348 -1.2542 -0.6466
23154SOL     OW74146   6.796   5.045   4.071  0.7804  0.1994  0.4012
23154SOL    HW174147   6.802   5.110   4.141  3.0395 -0.1158  0.5829
23154SOL    HW274148   6.707   5.055   4.036  0.7719  2.7854  0.9698
23155SOL     OW74149   9.241   7.121   5.782  0.1351  0.3005  0.1859
23155SOL    HW174150   9.298   7.080   5.716 -0.3511 -0.7486  0.3959
23155SOL    HW274151   9.296   7.189   5.821  0.4456  0.9114 -1.2598
23156SOL     OW74152   5.621   4.970   5.930  0.1837  0.0378  0.2499
23156SOL    HW174153   5.624   4.969   6.026 -1.0987  0.2404  0.3176
23156SOL    HW274154   5.550   5.031   5.910 -0.8379 -1.4325 -0.7798
23157SOL     OW74155   7.834  10.461   5.456 -0.0442  0.1769 -0.4924
23157SOL    HW174156   7.740  10.474   5.449  0.1455  2.3397  0.3050
23157SOL    HW274157   7.869  10.492   5.373 -0.0593 -1.2535 -1.0543
23158SOL     OW74158   1.850   0.860   9.766  0.4856  0.5875  0.3644
23158SOL    HW174159   1.800   0.925   9.717  1.1723  0.3614 -0.6734
23158SOL    HW274160   1.911   0.824   9.702  0.0120 -1.1969  0.8650
23159SOL     OW74161   8.964   3.575   3.321  0.2532  0.0355 -0.1204
23159SOL    HW174162   9.025   3.518   3.273 -1.1409 -1.0445 -0.6582
23159SOL    HW274163   8.982   3.556   3.413  0.6989 -0.3160 -0.2748
23160SOL     OW74164   6.962   0.720   7.371 -0.6824  0.3116 -0.3961
23160SOL    HW174165   6.929   0.748   7.456  0.2045 -0.8970  0.3742
23160SOL    HW274166   7.027   0.785   7.347 -0.1277  0.0576  0.3915
23161SOL     OW74167   1.232   1.495   5.277 -0.0932 -0.1389 -0.3315
23161SOL    HW174168   1.216   1.458   5.364  0.6939 -0.7791 -0.4380
23161SOL    HW274169   1.316   1.457   5.250 -0.4242 -0.1207 -1.4593
23162SOL     OW74170   0.353  11.562  11.919  0.4142  0.3518  0.3033
23162SOL    HW174171   0.422  11.606  11.969  0.8046  0.8959 -0.7018
23162SOL    HW274172   0.353  11.472  11.953  0.1991  0.8713  1.7581
23163SOL     OW74173   8.330  11.734   0.130 -0.3859 -0.4494  0.0439
23163SOL    HW174174   8.363  11.742   0.041 -1.0101  1.2925 -0.0818
23163SOL    HW274175   8.359  11.648   0.160  1.4887 -0.2749 -1.1545
23164SOL     OW74176   3.669   4.712   5.295 -0.6455  0.1610 -0.1885
23164SOL    HW174177   3.740   4.656   5.265  0.1692  0.8097  0.5103
23164SOL    HW274178   3.628   4.664   5.367 -0.0660  0.3750  0.2859
23165SOL     OW74179   4.422   6.402  10.184 -0.2059 -0.1878 -0.2133
23165SOL    HW174180   4.494   6.340  10.176 -1.0645 -1.3902  0.9231
23165SOL    HW274181   4.371   6.369  10.258 -0.7679  1.8119  0.3524
23166SOL     OW74182  10.553   7.116   0.503  0.0416 -0.3149  0.1043
23166SOL    HW174183  10.518   7.111   0.592  0.3475 -0.7036  0.2046
23166SOL    HW274184  10.615   7.189   0.506  1.4285 -1.4613  0.7080
23167SOL     OW74185   6.122   5.921   9.266  0.2516  0.5051  0.2400
23167SOL    HW174186   6.156   5.975   9.194 -0.6007  0.5179 -0.1701
23167SOL    HW274187   6.191   5.922   9.332  1.6512 -0.6399 -1.1289
23168SOL     OW74188   5.728   8.845   3.598  0.4950 -0.1947  0.2951
23168SOL    HW174189   5.824   8.842   3.605  0.6928  2.1580 -0.5529
23168SOL    HW274190   5.698   8.843   3.688  1.2379 -2.2381  0.5484
23169SOL     OW74191   8.164  10.775   2.131  0.0653 -0.1689 -0.3303
23169SOL    HW174192   8.084  10.788   2.080  1.0528  1.8784 -1.4820
23169SOL    HW274193   8.142  10.806   2.219 -0.9605 -1.5299 -0.0772
23170SOL     OW74194   2.299   6.113   7.604  0.5890  0.5030 -0.0939
23170SOL    HW174195   2.296   6.018   7.615  0.0989  0.6811  1.5294
23170SOL    HW274196   2.380   6.139   7.648  1.3885  0.7244 -1.6508
23171SOL     OW74197   0.190   8.328   4.659 -0.3223  0.1591 -0.1233
23171SOL    HW174198   0.216   8.325   4.751 -0.4387  1.6473 -0.0280
23171SOL    HW274199   0.102   8.367   4.659 -1.3776 -2.0382 -0.6886
23172SOL     OW74200   3.658   5.630   8.956 -0.1366 -0.2741  0.2763
23172SOL    HW174201   3.708   5.634   8.875 -1.0019  1.0920 -0.2320
23172SOL    HW274202   3.719   5.596   9.021  0.9430 -0.1947 -0.6718
23173SOL     OW74203   5.439   9.979   2.583  0.6764  0.5368  0.3762
23173SOL    HW174204   5.511  10.018   2.632  2.0304 -0.3830 -0.7939
23173SOL    HW274205   5.401   9.916   2.644  1.0117  0.8682  0.9377
23174SOL     OW74206   2.087  11.232   8.546 -0.4930  0.9766 -0.2047
23174SOL    HW174207   2.071  11.138   8.554 -1.1533  1.0737 -0.3565
23174SOL    HW274208   2.078  11.250   8.452  1.2120  0.9159 -0.4153
23175SOL     OW74209   4.904   5.108   9.585 -0.6687  0.1655  0.4015
23175SOL    HW174210   4.918   5.198   9.557  0.2425  0.2644  1.1439
23175SOL    HW274211   4.811   5.105   9.608 -0.8161  0.7766 -0.0828
23176SOL     OW74212   9.749   5.685   4.394 -0.0033 -0.0708  0.1695
23176SOL    HW174213   9.653   5.681   4.394  0.0417 -1.5381  0.2262
23176SOL    HW274214   9.776   5.625   4.463  0.9939 -1.8514 -1.6617
23177SOL     OW74215   3.539   8.897   0.395  0.2509  0.1539  0.4624
23177SOL    HW174216   3.626   8.905   0.356  0.0979 -0.4869 -0.0337
23177SOL    HW274217   3.503   8.817   0.357 -2.3118  2.6105 -2.9829
23178SOL     OW74218   4.127   2.740   6.006 -0.1538 -0.4028 -0.5335
23178SOL    HW174219   4.217   2.769   6.017 -0.1410 -0.2392 -1.0316
23178SOL    HW274220   4.074   2.816   6.032 -0.1637 -0.7172  0.3873
23179SOL     OW74221   8.174   7.005  10.855 -0.1068 -0.1071  0.1706
23179SOL    HW174222   8.152   6.942  10.787 -0.5698  0.2655 -0.0324
23179SOL    HW274223   8.216   6.954  10.924  0.2059 -0.5165 -0.3175
23180SOL     OW74224   4.919   7.090   3.428  0.0226 -0.6941  0.2239
23180SOL    HW174225   4.873   7.174   3.437 -1.0344 -1.3978  1.9251
23180SOL    HW274226   4.934   7.061   3.518  2.5226 -1.2372 -0.2920
23181SOL     OW74227   9.314  10.612   0.427 -0.3194  0.5035 -0.0319
23181SOL    HW174228   9.224  10.644   0.430 -0.0209  1.3324  0.8363
23181SOL    HW274229   9.307  10.525   0.388 -1.1623  1.6034 -2.5553
23182SOL     OW74230  11.966   5.239   7.023  0.5670  0.7093  0.7145
23182SOL    HW174231  12.053   5.241   7.062  1.1000 -0.2431 -0.3411
23182SOL    HW274232  11.970   5.165   6.962 -0.7341  1.1416  0.0836
23183SOL     OW74233   8.977   8.056   4.404 -0.1990  0.0570  0.2741
23183SOL    HW174234   8.950   8.135   4.451  0.4113  0.0624  0.6339
23183SOL    HW274235   8.936   8.064   4.317 -0.5006  0.5491  0.4593
23184SOL     OW74236   6.180   1.449   1.641 -0.1146 -0.3859 -0.2449
23184SOL    HW174237   6.100   1.399   1.659  0.0639 -1.1044 -1.3617
23184SOL    HW274238   6.216   1.468   1.727 -2.1881  1.1442  0.3674
23185SOL     OW74239  10.489   0.176   2.677 -0.1671  0.0332 -0.0007
23185SOL    HW174240  10.534   0.095   2.655  2.7802  1.9752 -1.6828
23185SOL    HW274241  10.413   0.178   2.618 -0.3074 -1.4567  0.0912
23186SOL     OW74242   7.087   7.804   5.910 -0.1758 -0.9407 -0.8672
23186SOL    HW174243   7.033   7.830   5.985  1.3720  1.0012 -0.3371
23186SOL    HW274244   7.168   7.772   5.949  0.3418 -0.6446 -1.6778
23187SOL     OW74245   4.842   0.073   7.604 -0.4094 -0.3747  0.1239
23187SOL    HW174246   4.852   0.095   7.697 -1.6103 -0.6067  0.3267
23187SOL    HW274247   4.900   0.134   7.558 -0.8157  0.6488  0.9316
23188SOL     OW74248   1.375   8.478  10.076  0.4771 -0.1875 -0.2925
23188SOL    HW174249   1.387   8.383  10.072  1.4986 -0.0220 -2.7951
23188SOL    HW274250   1.437   8.507  10.144  1.8318 -1.1124 -1.0950
23189SOL     OW74251   4.105   7.244   8.443  0.7527  0.3993 -0.3880
23189SOL    HW174252   4.105   7.170   8.504 -0.9819  0.0500 -0.7437
23189SOL    HW274253   4.191   7.285   8.454  1.7384 -1.6334 -0.1575
23190SOL     OW74254   9.649  11.239   4.795 -0.0435  0.2917 -0.1810
23190SOL    HW174255   9.695  11.299   4.855 -0.6757 -0.0640  0.6780
23190SOL    HW274256   9.700  11.158   4.799 -0.3987  0.0929  0.2980
23191SOL     OW74257   0.535   1.464   0.487  0.8745 -0.5631 -0.5315
23191SOL    HW174258   0.567   1.383   0.448 -2.8104 -1.2554 -2.6087
23191SOL    HW274259   0.508   1.439   0.576  1.5469 -1.0895 -0.4682
23192SOL     OW74260   4.738   9.867   1.564  0.3525 -0.2221 -0.1586
23192SOL    HW174261   4.699   9.818   1.491  0.3772 -0.6564  0.1135
23192SOL    HW274262   4.778   9.800   1.619 -1.1309 -0.0961  1.1577
23193SOL     OW74263   3.563   4.396   3.571  0.5537  0.4106 -0.5471
23193SOL    HW174264   3.541   4.392   3.664  1.8289  0.4858 -0.2257
23193SOL    HW274265   3.657   4.412   3.570  1.0926 -2.2895 -1.8450
23194SOL     OW74266   2.295   0.549   7.423  0.5531  0.0398  0.2419
23194SOL    HW174267   2.333   0.634   7.402  0.8770  0.2016  1.4336
23194SOL    HW274268   2.241   0.528   7.347  0.5110  1.2744 -0.0936
23195SOL     OW74269   5.813   7.671   9.989 -0.0862 -0.3088 -0.4213
23195SOL    HW174270   5.869   7.620  10.047  0.5461 -0.2925 -1.0060
23195SOL    HW274271   5.826   7.761  10.017 -1.0375 -0.4239  0.4698
23196SOL     OW74272   0.835   0.939   3.163  0.0944  0.6193  0.4346
23196SOL    HW174273   0.819   0.885   3.241  0.1466 -0.0978 -0.0386
23196SOL    HW274274   0.750   0.945   3.120  0.4204 -0.5478 -0.4206
23197SOL     OW74275   1.745   6.402   1.754  0.2742 -0.5441 -0.0781
23197SOL    HW174276   1.741   6.329   1.693  0.3542 -1.7974  1.3683
23197SOL    HW274277   1.691   6.470   1.713 -0.3721 -1.6515 -1.1415
23198SOL     OW74278   2.217   8.275   0.976 -0.1010 -0.1127 -1.0549
23198SOL    HW174279   2.257   8.257   1.061  0.5980 -0.3869 -1.4357
23198SOL    HW274280   2.251   8.360   0.951 -1.0876  0.4300 -0.6182
23199SOL     OW74281   0.270  10.482   5.173 -0.2730 -0.1848 -0.1448
23199SOL    HW174282   0.192  10.532   5.198  0.5859  1.1407 -0.0465
23199SOL    HW274283   0.315  10.537   5.109  0.9653 -0.5967  0.3419
23200SOL     OW74284   1.649   7.082   4.779 -0.1160 -0.4622 -0.0634
23200SOL    HW174285   1.705   7.147   4.822 -0.0848 -0.1926 -0.4946
23200SOL    HW274286   1.711   7.022   4.736 -0.1006 -1.7239  1.6348
23201SOL     OW74287   4.135   8.104   2.332 -0.4133  0.4664 -0.1572
23201SOL    HW174288   4.039   8.103   2.340 -0.4310  0.5870 -0.3762
23201SOL    HW274289   4.156   8.191   2.299 -0.2433  0.3572 -0.3389
23202SOL     OW74290   0.328   7.127  10.440 -0.3584 -0.2001 -0.2389
23202SOL    HW174291   0.377   7.195  10.485  1.6947 -0.8190 -1.4024
23202SOL    HW274292   0.271   7.176  10.380 -0.9570  0.5286  0.8815
23203SOL     OW74293   1.163  11.005   7.214 -0.0193  0.4205 -0.0376
23203SOL    HW174294   1.114  10.971   7.139  0.6287 -0.0030 -0.2747
23203SOL    HW274295   1.097  11.049   7.267 -0.7916 -0.7333 -0.0055
23204SOL     OW74296   8.104   2.954   5.456  0.0434 -0.0416  0.0186
23204SOL    HW174297   8.146   3.014   5.394  0.3830 -0.4932 -0.1963
23204SOL    HW274298   8.101   3.003   5.538 -1.1162  0.8540 -0.5339
23205SOL     OW74299   9.877   9.669   0.941 -0.0469  0.1886 -0.8805
23205SOL    HW174300   9.834   9.606   0.999 -1.1829  0.3406 -1.5243
23205SOL    HW274301   9.842   9.754   0.968  1.2449  0.5355 -0.2217
23206SOL     OW74302   3.156  10.134   4.566  0.5700  0.4575  0.3821
23206SOL    HW174303   3.215  10.138   4.491 -1.8238 -1.7784 -1.8313
23206SOL    HW274304   3.156  10.042   4.591 -4.0854 -0.4503 -1.8101
23207SOL     OW74305   2.364   7.568  10.810 -0.2176  0.0094 -0.3210
23207SOL    HW174306   2.378   7.609  10.725 -0.0838  0.3375 -0.1415
23207SOL    HW274307   2.411   7.485  10.805  0.3998  0.3576 -0.3074
23208SOL     OW74308   0.711   1.218   6.537  0.0301  0.6051 -0.8144
23208SOL    HW174309   0.674   1.306   6.534  0.4104  0.9757  2.1841
23208SOL    HW274310   0.784   1.225   6.599  0.7763 -1.5942 -1.3449
23209SOL     OW74311   1.709   8.684   0.581 -0.1837 -0.3827  0.6319
23209SOL    HW174312   1.643   8.717   0.642 -1.2977 -0.5555 -0.4410
23209SOL    HW274313   1.668   8.691   0.495  0.2296 -2.8293  0.1585
23210SOL     OW74314   9.244   0.862   4.476 -0.3584 -0.1603 -0.1646
23210SOL    HW174315   9.198   0.795   4.427 -0.5473 -0.0900 -0.0831
23210SOL    HW274316   9.334   0.828   4.484 -0.3439 -0.2035 -0.4943
23211SOL     OW74317   5.820   4.735   9.823  0.5586 -0.1492 -0.2742
23211SOL    HW174318   5.879   4.701   9.890 -0.3930  0.6015  1.0024
23211SOL    HW274319   5.860   4.817   9.795 -0.5870  1.2176  1.7809
23212SOL     OW74320  10.968  11.356   2.294  0.1200 -0.1367  0.2421
23212SOL    HW174321  10.937  11.447   2.292  0.8131  0.0978 -0.5497
23212SOL    HW274322  10.928  11.315   2.218 -0.7974 -0.7153  1.0239
23213SOL     OW74323   9.905   0.858   0.275 -0.1657  0.1987  0.0318
23213SOL    HW174324   9.908   0.954   0.279  0.8512  0.2751 -1.6652
23213SOL    HW274325   9.990   0.833   0.239 -0.6253 -1.3261 -0.0706
23214SOL     OW74326  10.573   2.484   8.618 -0.2491  0.4722 -0.1432
23214SOL    HW174327  10.632   2.532   8.675 -0.5497 -0.8436  1.3292
23214SOL    HW274328  10.486   2.520   8.636 -0.2234  0.7022 -0.4727
23215SOL     OW74329  10.825  11.213   6.865 -0.4343 -0.6175  0.8138
23215SOL    HW174330  10.824  11.299   6.824  0.4997 -0.5411  0.9258
23215SOL    HW274331  10.755  11.217   6.931  0.5028  0.5619  1.7918
23216SOL     OW74332   5.110   5.047  10.924  0.4445  0.1658  0.2071
23216SOL    HW174333   5.045   4.978  10.942  0.8790 -0.0903  0.8402
23216SOL    HW274334   5.065   5.108  10.866  0.1047 -0.7424 -0.5229
23217SOL     OW74335  11.760   9.087   9.261  0.1237 -0.0214  0.9147
23217SOL    HW174336  11.795   9.042   9.184 -0.9767  1.5568 -0.5904
23217SOL    HW274337  11.799   9.174   9.258 -0.0500  0.1183  2.0734
23218SOL     OW74338   4.058   2.289   7.201 -0.2927 -0.0864  0.9492
23218SOL    HW174339   4.064   2.296   7.297 -1.5514  1.2941  0.9717
23218SOL    HW274340   3.985   2.228   7.187 -1.2117  0.9923  0.9101
23219SOL     OW74341   0.992   7.164   5.772  0.2709 -0.1603  0.0144
23219SOL    HW174342   0.944   7.245   5.755 -0.1967 -0.6920 -1.3072
23219SOL    HW274343   1.063   7.164   5.707  1.5522  0.1751  1.3496
23220SOL     OW74344   8.629  10.294  10.601 -0.2954  0.2751 -0.5162
23220SOL    HW174345   8.590  10.335  10.524  0.8419  1.4122 -0.5194
23220SOL    HW274346   8.696  10.356  10.630 -1.2350  0.2681  1.8679
23221SOL     OW74347   3.019  11.011   7.891  0.0271  0.4780 -0.5263
23221SOL    HW174348   2.944  10.962   7.923  1.0633 -1.0611 -0.3253
23221SOL    HW274349   3.020  11.091   7.944 -1.0829  0.2271 -0.0979
23222SOL     OW74350   3.468  11.160   8.843  0.6300 -0.1195  0.1980
23222SOL    HW174351   3.523  11.170   8.920  0.7741  0.6187  0.0091
23222SOL    HW274352   3.479  11.069   8.817  0.0117 -0.5812  1.4702
23223SOL     OW74353  10.630   7.165   8.879  0.5271 -0.0324  0.2678
23223SOL    HW174354  10.561   7.216   8.922  0.2815 -0.2739  0.1655
23223SOL    HW274355  10.689   7.140   8.950  0.3746 -0.0317  0.3966
23224SOL     OW74356  10.434   4.182   5.167 -0.6510  0.2763 -0.4549
23224SOL    HW174357  10.487   4.168   5.245  0.4102 -0.0288 -1.2105
23224SOL    HW274358  10.497   4.192   5.096 -1.5535  1.6907 -1.1194
23225SOL     OW74359   5.204   3.380   3.102 -0.1451 -0.0581 -0.4453
23225SOL    HW174360   5.127   3.435   3.085 -0.1821 -0.1363 -0.5280
23225SOL    HW274361   5.208   3.375   3.198 -1.2155 -1.4083 -0.4354
23226SOL     OW74362  11.363   1.621   0.832 -0.1918  0.0027  0.0953
23226SOL    HW174363  11.408   1.563   0.894  0.9130 -0.1587 -0.8051
23226SOL    HW274364  11.390   1.709   0.858  0.0990 -0.0514 -0.0144
23227SOL     OW74365   4.610   8.872  11.433  0.0944  0.0736  0.2208
23227SOL    HW174366   4.631   8.901  11.344  3.3470  2.2687  1.5117
23227SOL    HW274367   4.639   8.781  11.436 -0.5113 -0.1891 -1.0564
23228SOL     OW74368   0.103   6.415   8.943  0.5783  0.4746 -0.9940
23228SOL    HW174369   0.028   6.376   8.989  1.2089 -1.6086 -1.6234
23228SOL    HW274370   0.179   6.390   8.996  0.9009  2.6711 -0.2931
23229SOL     OW74371   4.900   5.150  11.285 -0.4826  0.1647  0.3247
23229SOL    HW174372   4.868   5.132  11.197 -0.5838 -0.0373  0.4036
23229SOL    HW274373   4.865   5.080  11.339  0.2892 -0.1964  0.3700
23230SOL     OW74374   7.392   0.147   7.822  0.2629 -0.1239  0.2778
23230SOL    HW174375   7.346   0.151   7.905  0.3988 -0.4609  0.3730
23230SOL    HW274376   7.423   0.236   7.807 -0.1062  0.0254  0.3887
23231SOL     OW74377   0.629   2.789   1.665 -0.1869  0.4116 -0.3223
23231SOL    HW174378   0.577   2.856   1.620 -0.3555  0.2294 -0.4014
23231SOL    HW274379   0.634   2.819   1.756 -1.6691 -0.3017  0.0154
23232SOL     OW74380   2.994   5.454   3.989 -0.5583  0.2137  0.2613
23232SOL    HW174381   3.082   5.436   4.022 -1.0096 -0.6581  1.0494
23232SOL    HW274382   3.006   5.521   3.921  0.6395  0.4757  0.7186
23233SOL     OW74383   2.949   6.222  11.495  0.0644 -0.0130  0.0821
23233SOL    HW174384   3.043   6.230  11.479  0.3712 -0.1511  1.6318
23233SOL    HW274385   2.932   6.128  11.493 -0.0317  0.0088 -0.1410
23234SOL     OW74386   9.558  11.786   7.860  0.8643 -0.7023 -0.0936
23234SOL    HW174387   9.556  11.699   7.899 -0.6442 -0.8500 -0.4518
23234SOL    HW274388   9.524  11.844   7.929  0.2902 -0.6493 -0.4113
23235SOL     OW74389   1.168   1.418  10.992 -0.0588  0.1601  0.2910
23235SOL    HW174390   1.079   1.399  11.024  0.0080  1.0240  1.0555
23235SOL    HW274391   1.225   1.394  11.066  0.2673  0.3973  0.1174
23236SOL     OW74392   9.060   6.877   5.589  0.1078  0.1071  0.3318
23236SOL    HW174393   9.101   6.815   5.649 -0.2279  0.7510  1.2580
23236SOL    HW274394   8.978   6.901   5.632 -0.7872 -0.3951 -1.0090
23237SOL     OW74395   5.387   6.358   6.855 -0.5828 -0.0631  0.5999
23237SOL    HW174396   5.350   6.330   6.771  0.0080 -3.2014  1.2683
23237SOL    HW274397   5.332   6.316   6.921  0.3978  0.3705  1.7312
23238SOL     OW74398   5.788   4.117   4.815 -0.0494 -0.3205 -0.6072
23238SOL    HW174399   5.743   4.061   4.878 -0.1392 -0.5682 -0.8874
23238SOL    HW274400   5.800   4.062   4.738  2.2979 -0.8428  0.0525
23239SOL     OW74401   1.682   6.357   3.755 -0.1765  0.1513 -0.2415
23239SOL    HW174402   1.603   6.353   3.701 -1.6244 -1.5061  1.8734
23239SOL    HW274403   1.754   6.352   3.692 -1.7686 -0.9489 -2.0637
23240SOL     OW74404  10.879   8.002   7.676 -0.1743 -0.3745 -0.5234
23240SOL    HW174405  10.914   7.924   7.635 -1.1482  0.0423 -2.2783
23240SOL    HW274406  10.956   8.052   7.703  0.4892 -1.0735 -1.0819
23241SOL     OW74407   7.049   8.513   2.983  0.1105  0.0276 -0.5171
23241SOL    HW174408   6.957   8.518   3.009  0.4376 -1.6304  1.1335
23241SOL    HW274409   7.089   8.591   3.021 -0.1390 -0.5357  0.9308
23242SOL     OW74410   3.640   6.139   2.112 -0.4270 -0.0171 -0.2391
23242SOL    HW174411   3.729   6.110   2.132 -0.4818  0.0638  0.1352
23242SOL    HW274412   3.593   6.130   2.195 -1.4772 -2.6154 -0.9834
23243SOL     OW74413   1.374   3.364   2.300 -0.3108 -0.2336  0.4829
23243SOL    HW174414   1.444   3.299   2.298  0.2131  0.3313 -0.3557
23243SOL    HW274415   1.316   3.335   2.370  1.3604 -0.1046  2.0006
23244SOL     OW74416   3.328  10.090  10.772  0.3513  0.0166 -0.3574
23244SOL    HW174417   3.233  10.076  10.781  0.2942  0.4206 -0.3028
23244SOL    HW274418   3.336  10.161  10.709  0.6204  0.0095 -0.3325
23245SOL     OW74419  11.755   2.280   6.588 -0.4318 -0.3642 -0.3859
23245SOL    HW174420  11.809   2.236   6.523  0.1488  1.3814 -1.1491
23245SOL    HW274421  11.806   2.277   6.668 -0.7727 -1.7715 -0.1982
23246SOL     OW74422   9.590   9.733   1.593  0.1484  0.2478 -0.0628
23246SOL    HW174423   9.669   9.755   1.642 -0.0758  1.4834 -0.2277
23246SOL    HW274424   9.565   9.814   1.549 -0.0897 -0.6302 -1.6244
23247SOL     OW74425   9.788   4.557   0.330  0.1851 -0.1998  0.2406
23247SOL    HW174426   9.797   4.651   0.347 -0.6162  0.1554 -1.0884
23247SOL    HW274427   9.778   4.551   0.235  1.1612 -1.7276  0.2020
23248SOL     OW74428   8.929   5.034   1.457 -0.2916  0.2832  0.5121
23248SOL    HW174429   8.917   5.097   1.529  0.0470 -1.2624  1.9864
23248SOL    HW274430   8.856   4.973   1.467 -0.7794  0.5783 -1.0819
23249SOL     OW74431   7.793   6.195   3.409 -0.0264 -0.1746  0.3668
23249SOL    HW174432   7.796   6.264   3.342  0.6359  1.8700  2.3691
23249SOL    HW274433   7.833   6.119   3.367 -1.5456  0.3262 -2.2193
23250SOL     OW74434   1.954   7.106   2.350  0.4512  0.5130  0.2039
23250SOL    HW174435   2.022   7.043   2.325 -1.9470 -1.2477 -2.6838
23250SOL    HW274436   1.992   7.191   2.331  3.3095 -0.0173  2.8757
23251SOL     OW74437   2.024   4.957   2.135 -0.5845  0.2632 -0.7836
23251SOL    HW174438   1.944   4.978   2.089 -1.8348 -0.2304  1.0355
23251SOL    HW274439   1.997   4.895   2.204  0.9024  1.8373  1.3581
23252SOL     OW74440  10.088   5.394   3.972  0.3136  0.4192  0.0713
23252SOL    HW174441  10.068   5.326   4.037  1.2903 -0.3507 -0.4113
23252SOL    HW274442  10.073   5.476   4.019  0.9669 -0.1159  1.2802
23253SOL     OW74443  10.906   7.179   4.873 -0.3669  0.3134 -0.0576
23253SOL    HW174444  10.917   7.085   4.883 -1.3585  0.2602  0.7267
23253SOL    HW274445  10.967   7.218   4.937  0.8173  0.2543 -1.1154
23254SOL     OW74446   6.402   3.861   3.658 -0.0125  0.2304  0.6493
23254SOL    HW174447   6.338   3.898   3.719 -0.3565  0.7081  0.0073
23254SOL    HW274448   6.478   3.919   3.664 -0.4959  0.9701 -0.2480
23255SOL     OW74449   4.392   9.342   6.679 -0.1898 -0.1245 -0.3529
23255SOL    HW174450   4.373   9.311   6.591 -3.3250 -1.3686  0.6265
23255SOL    HW274451   4.380   9.437   6.673 -0.4920 -0.2062 -1.2627
23256SOL     OW74452   5.091   9.482   3.448 -0.2994 -0.1094 -0.0494
23256SOL    HW174453   5.061   9.572   3.459  2.2989  1.1808 -2.4033
23256SOL    HW274454   5.056   9.455   3.363 -0.0389 -0.8972  0.0797
23257SOL     OW74455   7.599   2.246  10.430  0.0076  0.8157  0.3297
23257SOL    HW174456   7.590   2.315  10.363  2.3241  0.4917 -0.3935
23257SOL    HW274457   7.685   2.261  10.468 -0.6181 -0.0054  2.1796
23258SOL     OW74458   1.603   0.518   1.755  0.2237 -0.2801  0.0730
23258SOL    HW174459   1.622   0.461   1.829 -1.1216  0.8164  1.3238
23258SOL    HW274460   1.574   0.458   1.686  1.5810 -1.3292  0.3667
23259SOL     OW74461   5.322   2.790   3.335  0.0535  0.5408 -0.4535
23259SOL    HW174462   5.324   2.884   3.317  0.4349  0.9937  1.7521
23259SOL    HW274463   5.329   2.750   3.248  1.4247  2.5322 -1.3522
23260SOL     OW74464   3.131   8.642   1.019  0.0573 -0.2887  0.1199
23260SOL    HW174465   3.135   8.681   1.107 -1.9875 -2.0158  1.0780
23260SOL    HW274466   3.038   8.627   1.004  0.4258 -0.6422 -2.1136
23261SOL     OW74467   0.853   8.903  11.564  0.0671 -0.2005 -0.3101
23261SOL    HW174468   0.885   8.943  11.483 -0.5884  0.6573 -0.1497
23261SOL    HW274469   0.759   8.895  11.552 -0.1576  0.7131  0.6931
23262SOL     OW74470   9.731   5.129   2.151 -0.0187  0.5444 -0.6539
23262SOL    HW174471   9.689   5.167   2.228 -0.3689 -0.4649 -0.3358
23262SOL    HW274472   9.793   5.065   2.187 -0.7533 -0.5090 -1.2183
23263SOL     OW74473   5.876   0.046   1.405  0.2172 -0.3755 -0.2613
23263SOL    HW174474   5.916   0.115   1.457 -1.4175 -0.2772  0.9601
23263SOL    HW274475   5.925   0.045   1.323  0.5231  1.9691 -0.1615
23264SOL     OW74476  11.241   2.216   3.788  0.3930 -0.1463  0.5303
23264SOL    HW174477  11.157   2.243   3.825 -0.4718  1.2524 -2.1843
23264SOL    HW274478  11.305   2.278   3.824 -0.1079  0.1414  0.9300
23265SOL     OW74479   1.930   4.813   4.417 -0.1413  0.2359  0.6837
23265SOL    HW174480   1.971   4.772   4.493 -2.6430 -1.9349  1.0012
23265SOL    HW274481   1.909   4.901   4.446  0.6559  0.0744  1.8397
23266SOL     OW74482   6.818   5.385   8.862 -0.0302 -0.0914 -0.1943
23266SOL    HW174483   6.828   5.304   8.911  1.7104  0.7486  0.9441
23266SOL    HW274484   6.907   5.406   8.831 -0.5070  1.1507 -0.8243
23267SOL     OW74485   0.071   3.695   3.758 -0.0073  0.6830 -0.0977
23267SOL    HW174486   0.099   3.621   3.704 -0.9047  0.0868  0.2356
23267SOL    HW274487   0.152   3.729   3.795  0.2932 -1.1661  1.0681
23268SOL     OW74488   4.798   4.059   4.842 -0.0320 -0.5831  0.2209
23268SOL    HW174489   4.742   4.038   4.917 -1.7284 -0.1386 -0.8585
23268SOL    HW274490   4.879   4.012   4.859 -0.3963 -0.5761  2.2776
23269SOL     OW74491   7.203   8.881  10.497  0.1879  0.8302 -0.6391
23269SOL    HW174492   7.210   8.807  10.559 -2.2410  1.0899  0.0725
23269SOL    HW274493   7.192   8.958  10.553 -1.1162  1.2031 -1.3729
23270SOL     OW74494   1.774   0.491   3.910  0.3633  0.3739 -0.1559
23270SOL    HW174495   1.852   0.437   3.922  0.3317  0.6120  1.3581
23270SOL    HW274496   1.743   0.470   3.822  1.3652 -0.7232 -0.2713
23271SOL     OW74497   0.488  10.208  11.937 -0.4321  1.5370  0.0341
23271SOL    HW174498   0.544  10.276  11.974 -0.7930  1.2089  1.2296
23271SOL    HW274499   0.533  10.126  11.955 -0.3975  1.3884 -0.6741
23272SOL     OW74500   2.002  11.838  11.999 -0.0401  1.0380  0.1021
23272SOL    HW174501   2.017  11.745  11.978 -1.0244  0.8032  0.3915
23272SOL    HW274502   2.078  11.883  11.961 -0.4716  0.3438 -1.7362
23273SOL     OW74503  10.963   4.475   1.003 -0.2030  0.0624 -0.0638
23273SOL    HW174504  10.876   4.481   1.042 -0.6259  0.9722 -1.0980
23273SOL    HW274505  11.014   4.425   1.066 -1.2829  0.1261  0.8911
23274SOL     OW74506   3.522   6.973   6.650 -0.4451  0.6272 -0.1696
23274SOL    HW174507   3.530   6.881   6.623  0.0754  0.4153  0.6969
23274SOL    HW274508   3.534   7.022   6.569  1.2672  0.0046 -0.3274
23275SOL     OW74509   1.809   3.576   1.573 -0.0906  0.0858  0.0497
23275SOL    HW174510   1.728   3.558   1.621  0.2601 -0.6433  0.3826
23275SOL    HW274511   1.873   3.595   1.641  0.3292 -0.6240 -0.1404
23276SOL     OW74512   0.226   1.606   8.279 -0.5319  0.3362  0.2686
23276SOL    HW174513   0.153   1.622   8.219 -1.9124  1.0294  2.0703
23276SOL    HW274514   0.240   1.511   8.276  0.2255  0.4572 -1.9846
23277SOL     OW74515   5.177   0.551   0.268 -0.2234  0.4201  0.2183
23277SOL    HW174516   5.099   0.605   0.283 -1.0452 -0.7568  0.3104
23277SOL    HW274517   5.217   0.541   0.354  0.2382  1.3057  0.1187
23278SOL     OW74518   6.617   1.942   7.224 -0.2886  0.3887 -0.1766
23278SOL    HW174519   6.578   1.916   7.140  2.6311 -0.3309 -1.4249
23278SOL    HW274520   6.655   2.028   7.207  1.5413 -0.3601 -0.0815
23279SOL     OW74521   6.186  11.619  10.478 -0.3275  0.4131  0.3650
23279SOL    HW174522   6.276  11.595  10.497 -0.0098  0.0624 -1.3925
23279SOL    HW274523   6.155  11.664  10.557  1.8198  1.7855  0.4935
23280SOL     OW74524   0.637   9.218   0.242 -0.1440 -0.3101 -0.2386
23280SOL    HW174525   0.636   9.133   0.198 -0.5885  0.5107 -1.9065
23280SOL    HW274526   0.591   9.204   0.324 -1.1013 -1.4528 -0.9450
23281SOL     OW74527   2.165   0.055  10.607 -0.8179 -0.4476  0.2284
23281SOL    HW174528   2.072   0.069  10.586 -1.0821 -1.5537  0.5968
23281SOL    HW274529   2.180   0.107  10.686 -1.5341 -1.4261  1.0410
23282SOL     OW74530   4.126   3.846   6.029  0.2266 -0.5692  0.0689
23282SOL    HW174531   4.079   3.906   6.087 -0.4249 -1.1208  0.1191
23282SOL    HW274532   4.176   3.790   6.089  1.8274  0.7003 -0.0160
23283SOL     OW74533   2.277   5.267   4.288  0.4678 -0.2518  0.1138
23283SOL    HW174534   2.269   5.298   4.197  0.0525  0.3565  0.3447
23283SOL    HW274535   2.213   5.196   4.294  0.3865 -0.1928 -0.0294
23284SOL     OW74536   5.694  11.187  10.571  0.4783  0.1338 -0.5888
23284SOL    HW174537   5.642  11.181  10.491  0.0287 -0.4155 -0.2604
23284SOL    HW274538   5.688  11.101  10.611  0.9481  0.3145 -0.1117
23285SOL     OW74539   1.114   0.168  11.529 -0.1469  0.5162 -0.6774
23285SOL    HW174540   1.084   0.083  11.562 -0.7656  0.7140 -0.7297
23285SOL    HW274541   1.036   0.210  11.494  0.0365  1.3562 -0.1131
23286SOL     OW74542   5.570   4.725   5.057 -0.3966  0.4944 -0.2453
23286SOL    HW174543   5.535   4.636   5.061 -1.3782  0.8605 -0.5549
23286SOL    HW274544   5.615   4.729   4.973 -1.8599  0.8165 -1.0474
23287SOL     OW74545   5.190   4.014   5.454  0.1451 -0.5864 -0.1011
23287SOL    HW174546   5.256   3.948   5.433 -0.4967 -1.1611 -0.3109
23287SOL    HW274547   5.175   4.060   5.371  1.4195  0.6011  0.2828
23288SOL     OW74548   3.824   6.915   9.856 -0.1263 -0.1939 -0.3924
23288SOL    HW174549   3.748   6.968   9.881 -0.6903 -2.0669  2.3462
23288SOL    HW274550   3.871   6.902   9.938  1.1552 -2.1215 -1.3650
23289SOL     OW74551   8.048   9.814   0.125 -0.1373  0.0931 -0.4344
23289SOL    HW174552   8.042   9.815   0.029 -0.6005  0.7163 -0.4073
23289SOL    HW274553   8.077   9.903   0.148 -0.0278 -0.0525  0.0040
23290SOL     OW74554   2.420   6.476  10.320  0.1370  0.0314 -0.1259
23290SOL    HW174555   2.332   6.465  10.285  0.8562 -2.6259 -1.3066
23290SOL    HW274556   2.437   6.395  10.368  1.5920  0.9233  0.9493
23291SOL     OW74557   0.397   2.565   9.611  0.1748  0.4663  0.5860
23291SOL    HW174558   0.458   2.615   9.665 -0.0324  0.2198  1.0574
23291SOL    HW274559   0.377   2.487   9.663 -1.8029  1.2980  1.1743
23292SOL     OW74560   3.989   7.811   4.383 -0.0499 -0.3622 -0.1960
23292SOL    HW174561   3.929   7.885   4.385  0.7838  0.3757 -1.2662
23292SOL    HW274562   3.953   7.752   4.316 -0.8179 -1.0474  0.7892
23293SOL     OW74563   2.837   9.861   8.105  0.4591  0.4835 -0.2338
23293SOL    HW174564   2.930   9.884   8.110  0.3693  0.9881 -0.7186
23293SOL    HW274565   2.814   9.877   8.013  0.3423 -1.4257 -0.5710
23294SOL     OW74566   0.554   7.662  11.960 -0.1853  0.5420 -0.0495
23294SOL    HW174567   0.477   7.643  12.013  0.0527  0.8735  0.4169
23294SOL    HW274568   0.615   7.705  12.020 -0.5672  2.4680 -0.9778
23295SOL     OW74569   3.211   2.239   8.360  0.5479 -0.3095 -0.2831
23295SOL    HW174570   3.264   2.178   8.309 -0.7519 -2.8738  1.2007
23295SOL    HW274571   3.235   2.221   8.451 -0.2800  1.0457  0.2350
23296SOL     OW74572   6.485   8.717   5.735 -0.1261  0.5929 -0.3604
23296SOL    HW174573   6.563   8.762   5.767  1.4427 -1.3479 -1.2508
23296SOL    HW274574   6.454   8.666   5.810  2.3666 -2.3794 -1.1837
23297SOL     OW74575  10.780   6.523   6.046 -0.0993 -0.5013  0.1767
23297SOL    HW174576  10.763   6.609   6.008  0.2461 -1.2320 -1.7416
23297SOL    HW274577  10.711   6.511   6.111  0.8124  1.8750  1.6876
23298SOL     OW74578   3.282   3.553   4.273  0.1266 -0.2415  0.1689
23298SOL    HW174579   3.372   3.583   4.269 -0.0279  0.3113  0.6371
23298SOL    HW274580   3.238   3.616   4.330 -0.6787 -0.1851 -0.4863
23299SOL     OW74581   4.246   6.876  10.459  0.4547 -0.0913  0.2097
23299SOL    HW174582   4.240   6.961  10.415  0.6243  0.4577  1.2225
23299SOL    HW274583   4.269   6.897  10.549 -0.1391 -1.1832  0.6327
23300SOL     OW74584   9.270  11.094  11.397 -0.1888  0.7771  0.0674
23300SOL    HW174585   9.210  11.130  11.332  1.2003  1.6542 -0.7784
23300SOL    HW274586   9.214  11.047  11.458 -1.6879  1.2561 -0.8938
23301SOL     OW74587   2.774   4.909   1.807  1.2440  0.0150  1.0729
23301SOL    HW174588   2.770   4.953   1.891 -2.6001  0.0644  1.0391
23301SOL    HW274589   2.769   4.980   1.742  1.1594 -0.1579  0.8882
23302SOL     OW74590   1.581   0.484   9.107 -0.2702 -0.2188 -0.0509
23302SOL    HW174591   1.486   0.490   9.112 -0.1354  2.1456  0.6567
23302SOL    HW274592   1.600   0.474   9.014 -1.2432 -3.6643 -0.0103
23303SOL     OW74593   7.159   2.954   1.656 -0.0483 -0.0304  0.0696
23303SOL    HW174594   7.065   2.960   1.641 -0.0406  1.2633  0.4959
23303SOL    HW274595   7.176   3.013   1.730  1.5033  2.0071 -1.7986
23304SOL     OW74596   9.783  10.318   5.059 -0.4797  0.3014  0.1437
23304SOL    HW174597   9.838  10.335   5.135 -0.6949  1.4233  0.0696
23304SOL    HW274598   9.835  10.259   5.004 -0.1979 -0.2577  1.0033
23305SOL     OW74599   0.516   5.713   5.549  0.1356  0.7408  0.6777
23305SOL    HW174600   0.601   5.669   5.550  0.0029  0.4696  0.0599
23305SOL    HW274601   0.470   5.677   5.473 -0.4404  1.0626  0.8627
23306SOL     OW74602   2.925   6.132   3.892 -0.3538  0.0411 -0.8914
23306SOL    HW174603   2.977   6.151   3.970  0.7886 -1.9230 -1.1016
23306SOL    HW274604   2.856   6.073   3.924 -0.4923  0.0411 -1.1887
23307SOL     OW74605   9.561   3.087   0.122 -0.2179  0.3788  0.3800
23307SOL    HW174606   9.621   3.158   0.097 -0.9256  1.5240  1.7222
23307SOL    HW274607   9.567   3.024   0.051  2.7540  0.2994  0.5487
23308SOL     OW74608   7.880   0.911   0.710 -0.5014  0.1331  0.1040
23308SOL    HW174609   7.941   0.838   0.726 -0.8313 -0.2236 -0.2514
23308SOL    HW274610   7.819   0.877   0.645  0.0794  1.1333 -1.0145
23309SOL     OW74611   7.095   4.111   2.979 -0.0708 -0.1080 -0.2888
23309SOL    HW174612   7.118   4.065   2.899  1.3152  1.9355 -1.1565
23309SOL    HW274613   7.130   4.200   2.967  1.1525  0.0051  3.0161
23310SOL     OW74614   3.143  10.788   4.336  0.0497  0.2973  0.0290
23310SOL    HW174615   3.188  10.868   4.312 -0.7902  0.8175  0.1475
23310SOL    HW274616   3.204  10.718   4.314  0.7415  0.9613 -0.1831
23311SOL     OW74617   4.781   0.295   8.123  0.3139 -0.6189  0.2633
23311SOL    HW174618   4.856   0.351   8.141 -0.6395  0.8684 -0.1187
23311SOL    HW274619   4.708   0.339   8.168  0.0001 -3.2067  2.5530
23312SOL     OW74620   0.781   5.652   8.346 -0.1523 -0.3856  0.2711
23312SOL    HW174621   0.773   5.651   8.251  1.3759  0.1674  0.1175
23312SOL    HW274622   0.858   5.599   8.365  1.0154  1.4417  0.9895
23313SOL     OW74623   3.147   6.821   5.734  0.3715 -0.6049 -0.6298
23313SOL    HW174624   3.132   6.812   5.640 -0.3199 -2.3336 -0.3958
23313SOL    HW274625   3.229   6.775   5.750  0.2842 -0.6642 -0.3380
23314SOL     OW74626  11.287   4.168   4.816  0.1581  0.1004  0.2481
23314SOL    HW174627  11.350   4.157   4.887 -0.8836 -1.7873  0.9564
23314SOL    HW274628  11.203   4.180   4.860 -0.0887  2.1387 -0.6844
23315SOL     OW74629   3.708   3.848   5.293 -0.1930 -0.2486 -0.2325
23315SOL    HW174630   3.659   3.775   5.254  0.5559 -0.9668  0.1388
23315SOL    HW274631   3.785   3.857   5.237 -0.2171  0.1863 -0.2019
23316SOL     OW74632   8.194   5.496   7.809 -0.5732  0.5736  0.4869
23316SOL    HW174633   8.164   5.505   7.719  3.2567  2.0550 -0.8611
23316SOL    HW274634   8.154   5.571   7.855 -1.7707  0.3764 -0.1952
23317SOL     OW74635   5.274   0.592   3.412 -0.3756  0.1033 -0.0866
23317SOL    HW174636   5.259   0.614   3.320  0.3182 -0.0685 -0.2501
23317SOL    HW274637   5.317   0.669   3.448 -0.0721 -0.0733 -0.0680
23318SOL     OW74638   0.841  11.206   2.008 -0.5793  0.3597  0.3482
23318SOL    HW174639   0.842  11.143   1.936 -0.0524 -0.2254  0.8542
23318SOL    HW274640   0.817  11.154   2.085 -2.4587  1.2188  0.4001
23319SOL     OW74641   2.859   0.298  11.310 -0.2165 -0.4486 -0.4104
23319SOL    HW174642   2.914   0.363  11.267 -0.2516  0.2301  0.5301
23319SOL    HW274643   2.914   0.263  11.380 -0.4849 -0.8143 -0.3831
23320SOL     OW74644   4.642   0.145  10.196 -0.6941  0.0962 -0.1690
23320SOL    HW174645   4.570   0.106  10.245 -0.3372 -1.0202 -0.4995
23320SOL    HW274646   4.632   0.110  10.107  0.2816 -0.1302 -0.2008
23321SOL     OW74647   6.739   7.963   0.289  0.1311  0.0773 -0.0786
23321SOL    HW174648   6.802   7.949   0.219  0.7279 -1.3138  0.7131
23321SOL    HW274649   6.687   7.883   0.292 -1.9598  1.2925 -0.9334
23322SOL     OW74650   1.382   1.549   7.662  0.2072  0.0491 -0.1420
23322SOL    HW174651   1.406   1.497   7.739  0.2304 -1.7427 -1.2956
23322SOL    HW274652   1.345   1.630   7.698  1.8351  0.0312  1.7196
23323SOL     OW74653  10.655  10.014   4.318  0.4906 -0.3186  0.0650
23323SOL    HW174654  10.661   9.926   4.355 -0.1225 -0.3665  0.0663
23323SOL    HW274655  10.606  10.003   4.237 -0.4890  0.1471  0.5660
23324SOL     OW74656   6.058  10.604   6.131 -0.1068  0.2611  0.1184
23324SOL    HW174657   5.979  10.565   6.169 -0.4660  0.2333 -0.6396
23324SOL    HW274658   6.047  10.593   6.037  0.3057  1.1986 -0.0539
23325SOL     OW74659   3.006   1.765   4.365  0.0040  1.2002 -0.0132
23325SOL    HW174660   3.043   1.755   4.277  1.3643  0.8344  0.5713
23325SOL    HW274661   3.052   1.840   4.402  0.4281  0.5233  0.8650
23326SOL     OW74662   8.995   3.251  11.547  0.7826 -0.7622 -0.4497
23326SOL    HW174663   8.918   3.196  11.541  0.4628 -0.2830 -0.8869
23326SOL    HW274664   8.964   3.333  11.585  0.3058  0.7140 -3.6257
23327SOL     OW74665   4.596   3.526   5.611 -0.4450 -0.3181 -0.4498
23327SOL    HW174666   4.595   3.507   5.705  1.1888  0.0672 -0.3329
23327SOL    HW274667   4.505   3.517   5.585 -0.9946 -0.0961  1.2374
23328SOL     OW74668  11.413   3.763   4.500 -0.3716  0.4208  0.2847
23328SOL    HW174669  11.500   3.792   4.526 -0.3916  0.2762  0.5122
23328SOL    HW274670  11.400   3.680   4.546 -0.6629  0.4808  0.3142
23329SOL     OW74671   1.151  10.701   4.442 -0.3039 -0.0321  0.2647
23329SOL    HW174672   1.062  10.668   4.448 -0.6631  0.3174 -2.0712
23329SOL    HW274673   1.195  10.639   4.384  1.5844 -1.2760  2.8211
23330SOL     OW74674   1.868   0.238   2.710 -1.0022 -0.2779  0.3921
23330SOL    HW174675   1.919   0.276   2.782 -0.4074  0.6834 -0.4966
23330SOL    HW274676   1.780   0.230   2.744 -0.9269  1.0199  0.9509
23331SOL     OW74677  11.742   6.272   6.375  0.4692  0.1439  0.5423
23331SOL    HW174678  11.803   6.243   6.443  0.1274  1.7585  1.5982
23331SOL    HW274679  11.700   6.349   6.413 -0.3107  0.6161 -1.2140
23332SOL     OW74680   3.127   7.836   2.509 -0.1070 -0.6204 -0.0268
23332SOL    HW174681   3.203   7.854   2.564  0.5497 -1.0280 -0.7813
23332SOL    HW274682   3.057   7.891   2.545  0.6961  0.1806  0.3312
23333SOL     OW74683   7.695   8.178  10.982 -0.4960  0.0167 -0.0216
23333SOL    HW174684   7.645   8.225  10.916 -2.3765 -1.7880  0.0093
23333SOL    HW274685   7.650   8.196  11.064  0.9641  1.0648  0.6014
23334SOL     OW74686   7.869   4.062   8.270 -0.0326  0.5084  0.6880
23334SOL    HW174687   7.900   4.108   8.192 -1.8688  0.2900 -0.2215
23334SOL    HW274688   7.774   4.059   8.260 -0.1235 -1.7902  1.6680
23335SOL     OW74689   2.285  10.923   5.937  0.4295  0.0891 -0.1234
23335SOL    HW174690   2.328  10.866   6.000 -1.3756 -0.9526  0.2592
23335SOL    HW274691   2.320  10.896   5.852  0.3515 -0.9220  0.1508
23336SOL     OW74692   1.955  11.251   8.961 -0.0549  0.1513 -0.3603
23336SOL    HW174693   1.918  11.241   8.873  0.8726  0.4818 -0.7966
23336SOL    HW274694   1.958  11.162   8.996  0.3596 -0.0839 -0.9861
23337SOL     OW74695   7.215  10.468   7.224  0.5347 -0.5726 -0.2947
23337SOL    HW174696   7.299  10.438   7.258  0.2483 -0.7447  0.2779
23337SOL    HW274697   7.158  10.392   7.231 -0.5043  0.3482  2.2219
23338SOL     OW74698   9.587   6.110   1.942  0.2711  0.9562 -0.5002
23338SOL    HW174699   9.558   6.043   2.003  0.5216  1.3594  0.0669
23338SOL    HW274700   9.649   6.065   1.885  0.3612  0.6811 -0.1865
23339SOL     OW74701   7.856   9.812   5.007  0.2854  0.3799 -0.1307
23339SOL    HW174702   7.867   9.742   4.942 -2.3565 -0.0102 -0.2616
23339SOL    HW274703   7.886   9.891   4.962  1.9642 -0.4045 -0.4813
23340SOL     OW74704  10.720   6.634   1.416  0.5620  0.0189  0.0180
23340SOL    HW174705  10.731   6.728   1.432  0.9489 -0.0553  0.1916
23340SOL    HW274706  10.672   6.629   1.334 -2.0908  0.4316  1.4229
23341SOL     OW74707  11.877   3.022   2.457  0.6319 -0.5007  0.2104
23341SOL    HW174708  11.866   2.938   2.501  0.1460 -0.7093 -0.2926
23341SOL    HW274709  11.970   3.042   2.465  0.2499  0.5220  3.2057
23342SOL     OW74710  10.805   2.802   4.867  0.5499 -0.6551  0.5226
23342SOL    HW174711  10.811   2.742   4.941 -0.9377 -0.6351  0.7083
23342SOL    HW274712  10.779   2.747   4.793  0.6122 -0.4673  0.3597
23343SOL     OW74713   8.545  10.198   0.927 -0.0116 -0.0500 -0.3078
23343SOL    HW174714   8.455  10.207   0.896 -0.1747 -1.2392 -0.2384
23343SOL    HW274715   8.578  10.120   0.882  0.4316 -0.5895  0.9072
23344SOL     OW74716  11.105   3.354   2.135 -0.1115  0.4642  0.4760
23344SOL    HW174717  11.195   3.330   2.116 -0.1013  1.2409 -0.5633
23344SOL    HW274718  11.053   3.301   2.075 -0.3096  0.4513  0.6584
23345SOL     OW74719   4.841  10.378   9.739  0.2587  0.9336 -0.1190
23345SOL    HW174720   4.849  10.453   9.798  0.6712  1.3533 -0.6982
23345SOL    HW274721   4.814  10.306   9.796  2.8858  0.7516  1.0589
23346SOL     OW74722   8.144   3.346   4.121 -0.0105 -0.1298 -0.1815
23346SOL    HW174723   8.179   3.435   4.123 -0.3137  0.0062 -0.7962
23346SOL    HW274724   8.124   3.330   4.029 -1.2926 -0.3053  0.0977
23347SOL     OW74725   5.587   5.669  11.176  0.6453 -0.0967 -0.2215
23347SOL    HW174726   5.648   5.641  11.107  1.3587 -1.0411  0.7487
23347SOL    HW274727   5.506   5.621  11.157  0.8026 -0.2613 -0.4832
23348SOL     OW74728   2.641   1.693   4.963  0.0455  0.4278 -0.1137
23348SOL    HW174729   2.569   1.735   5.010  1.0956 -1.5725  3.6542
23348SOL    HW274730   2.603   1.611   4.931 -0.1450  0.8637 -1.0284
23349SOL     OW74731   4.039   5.251   3.790  0.1014  0.3576  0.0590
23349SOL    HW174732   4.010   5.290   3.873  0.0190  0.1969  0.1070
23349SOL    HW274733   3.994   5.301   3.723  0.1851  0.5032  0.1105
23350SOL     OW74734   6.076   7.328   0.118  0.1228  0.9027 -0.8334
23350SOL    HW174735   6.147   7.331   0.181 -0.1656 -0.8172 -0.3616
23350SOL    HW274736   6.033   7.244   0.135 -0.5400  0.8250 -2.7043
23351SOL     OW74737   4.654   9.266   9.929 -0.5195 -0.2128  0.1546
23351SOL    HW174738   4.676   9.345   9.979  0.2487  0.6630 -1.4800
23351SOL    HW274739   4.691   9.194   9.980 -1.3404  0.4406  1.7431
23352SOL     OW74740   8.224   9.155   1.182 -0.6735 -0.3667 -0.1471
23352SOL    HW174741   8.158   9.197   1.127 -1.5062 -1.4936 -0.0490
23352SOL    HW274742   8.174   9.116   1.253  0.1021 -1.2069 -0.0450
23353SOL     OW74743   2.188  10.039   7.817 -0.3167 -0.4107 -0.1477
23353SOL    HW174744   2.227   9.960   7.780  2.4952  0.5385  0.5765
23353SOL    HW274745   2.259  10.082   7.864 -2.3280  1.3711  1.5056
23354SOL     OW74746   6.536   9.599   1.168  0.0228 -0.4469 -0.0939
23354SOL    HW174747   6.470   9.662   1.139 -0.9697 -1.6957 -0.6370
23354SOL    HW274748   6.611   9.614   1.110 -1.0758 -1.3275 -1.8086
23355SOL     OW74749   5.544   1.270   1.714  0.2581 -0.7724  0.0648
23355SOL    HW174750   5.606   1.340   1.733 -0.2547  0.0462 -1.1725
23355SOL    HW274751   5.543   1.263   1.618 -1.0680 -1.2013  0.0789
23356SOL     OW74752   8.026   0.656  10.803 -0.6560  0.5655  0.0535
23356SOL    HW174753   8.095   0.705  10.847 -0.9038 -0.7972  2.0972
23356SOL    HW274754   8.070   0.608  10.734  0.3137  0.3931  0.7703
23357SOL     OW74755  11.200   4.772  10.893  0.2530  0.6737 -0.0086
23357SOL    HW174756  11.131   4.822  10.850 -0.7153 -0.5901  0.0070
23357SOL    HW274757  11.166   4.757  10.982  0.3514 -0.3180 -0.1309
23358SOL     OW74758   1.911   5.552   9.705  0.5517  0.2718 -0.6237
23358SOL    HW174759   1.978   5.605   9.661 -1.3670  3.0926 -0.4642
23358SOL    HW274760   1.907   5.589   9.794 -2.5696  1.7714 -1.2399
23359SOL     OW74761  11.449  11.979   1.417  0.3032  0.1594 -0.1484
23359SOL    HW174762  11.387  12.005   1.485  0.7997  1.0853 -0.0353
23359SOL    HW274763  11.394  11.946   1.346 -0.6158  3.7461 -1.3171
23360SOL     OW74764   7.057   9.216   2.632  0.0658  0.3879 -0.2048
23360SOL    HW174765   7.011   9.133   2.648 -0.4175  0.3690 -1.5493
23360SOL    HW274766   7.143   9.190   2.599  1.4860  0.4069  3.0559
23361SOL     OW74767   9.352   1.263   5.260 -0.2219 -0.6853 -0.5489
23361SOL    HW174768   9.340   1.173   5.228  1.3218 -1.3581  0.6485
23361SOL    HW274769   9.351   1.316   5.180  0.8886 -2.0111 -1.5115
23362SOL     OW74770  10.056  10.326  11.756  0.0253  0.1571 -0.4127
23362SOL    HW174771  10.075  10.232  11.752 -1.0427 -0.2139  1.9076
23362SOL    HW274772  10.131  10.364  11.803 -0.4061  0.1555  0.2940
23363SOL     OW74773   1.517   6.701   0.353  0.0427  0.6243 -0.2614
23363SOL    HW174774   1.567   6.638   0.405  1.0135  1.8509  0.3618
23363SOL    HW274775   1.446   6.729   0.412 -1.2209 -0.8619 -1.0236
23364SOL     OW74776   8.513   2.247   9.820 -0.2609  0.2453 -0.2273
23364SOL    HW174777   8.583   2.205   9.769  0.3462  0.4699  0.4011
23364SOL    HW274778   8.543   2.242   9.911 -1.4128 -0.3013  0.1367
23365SOL     OW74779   0.340   8.572   3.850  0.2651  0.4338  0.2184
23365SOL    HW174780   0.309   8.589   3.939  1.0575 -0.8825  0.7682
23365SOL    HW274781   0.313   8.482   3.832 -0.2306  0.8106 -1.0429
23366SOL     OW74782   8.887   3.602   8.223 -0.6292 -0.6944 -0.2474
23366SOL    HW174783   8.937   3.524   8.198 -0.3676 -0.0266 -1.9602
23366SOL    HW274784   8.946   3.650   8.282  0.1156 -0.7287 -0.9383
23367SOL     OW74785   2.780   5.797   2.305 -0.4868 -0.0280  0.0594
23367SOL    HW174786   2.835   5.719   2.296  2.8832  2.0171  1.0041
23367SOL    HW274787   2.761   5.802   2.399 -1.3540 -0.1090 -0.1061
23368SOL     OW74788  10.405   1.703   1.523  0.7037 -0.7513  0.2330
23368SOL    HW174789  10.411   1.650   1.443 -0.4867 -0.7257  0.1065
23368SOL    HW274790  10.344   1.774   1.500  1.4827  0.0974  0.7162
23369SOL     OW74791   6.880   3.720   3.272  0.6004 -0.3026  0.3768
23369SOL    HW174792   6.884   3.810   3.239  0.1647 -1.0752 -1.9665
23369SOL    HW274793   6.814   3.723   3.341 -1.2813  0.7277 -1.3608
23370SOL     OW74794   7.265   8.626   7.763  0.1696  0.1117  0.3594
23370SOL    HW174795   7.263   8.605   7.670  1.2717  1.7366 -0.0850
23370SOL    HW274796   7.284   8.543   7.807  2.2279 -0.2355 -1.0843
23371SOL     OW74797   8.762   7.080   5.102  0.0326  0.0373 -0.6187
23371SOL    HW174798   8.730   7.040   5.021 -0.1379  1.0797 -1.0763
23371SOL    HW274799   8.696   7.147   5.124  0.3373  0.1166  0.1018
23372SOL     OW74800   6.489   1.364   5.506  0.5221 -0.3252  0.2428
23372SOL    HW174801   6.570   1.333   5.547  1.1078 -0.9351 -1.2878
23372SOL    HW274802   6.515   1.387   5.417 -0.9607 -0.3619 -0.2172
23373SOL     OW74803   0.061   0.288   9.768  0.1300 -0.2617  0.7074
23373SOL    HW174804   0.007   0.258   9.695 -1.2640 -2.7273  2.5977
23373SOL    HW274805  -0.002   0.318   9.833  1.3428  1.9582  0.9393
23374SOL     OW74806   0.663   5.042   4.362 -0.5830 -1.0224 -0.2351
23374SOL    HW174807   0.592   5.104   4.381  0.0683 -0.2530 -0.2882
23374SOL    HW274808   0.705   5.077   4.284  0.5378 -0.8640  0.4228
23375SOL     OW74809   3.082  10.696   8.584  0.0334 -0.4251 -0.1279
23375SOL    HW174810   3.027  10.676   8.659  0.6190 -1.3259  0.0782
23375SOL    HW274811   3.167  10.659   8.606  0.7527  0.9595 -0.4203
23376SOL     OW74812   0.087   5.305   7.422 -0.5949  0.4493  0.4695
23376SOL    HW174813   0.131   5.303   7.337  0.0154 -1.6250  0.7796
23376SOL    HW274814   0.021   5.373   7.413 -0.0323  0.8004 -1.4124
23377SOL     OW74815   7.173  10.671   1.152  0.7827  0.2882 -0.5267
23377SOL    HW174816   7.219  10.749   1.123  0.9193 -0.4842 -2.5242
23377SOL    HW274817   7.116  10.647   1.079  0.5007 -1.2889  0.1556
23378SOL     OW74818   9.591   8.677   4.502 -0.1502 -0.4195 -0.0615
23378SOL    HW174819   9.520   8.616   4.520 -0.2531  0.5427  3.3592
23378SOL    HW274820   9.552   8.745   4.448 -1.8662  0.0121  1.6315
23379SOL     OW74821   6.512   4.603   6.826 -0.5258 -0.3369 -0.1710
23379SOL    HW174822   6.438   4.542   6.828 -0.6881 -0.2123 -1.2922
23379SOL    HW274823   6.583   4.552   6.786  0.0490 -0.5022  1.0377
23380SOL     OW74824   1.383   2.532   4.040 -0.0719  0.3556  0.3261
23380SOL    HW174825   1.374   2.595   3.969  0.6413  2.0009  1.6366
23380SOL    HW274826   1.386   2.447   3.996  3.3938  1.4329 -1.9008
23381SOL     OW74827   3.630  11.393   0.231 -0.3256 -0.5290  0.2915
23381SOL    HW174828   3.708  11.443   0.208  0.0309 -1.1757  0.0474
23381SOL    HW274829   3.592  11.369   0.147 -1.5812  0.9509  0.3976
23382SOL     OW74830   1.833   1.898   3.710  0.1020 -0.1893 -0.2463
23382SOL    HW174831   1.854   1.818   3.662 -0.5153  0.1625 -1.1166
23382SOL    HW274832   1.744   1.883   3.743  0.9557 -0.9519  1.9194
23383SOL     OW74833  10.739   6.246  10.350  0.0355 -0.0863 -0.3857
23383SOL    HW174834  10.779   6.290  10.275  2.5565  0.2858  1.0642
23383SOL    HW274835  10.749   6.152  10.331 -0.3530 -0.0107 -0.9913
23384SOL     OW74836   8.199   7.786   7.628 -0.5840 -0.1792 -0.3148
23384SOL    HW174837   8.201   7.693   7.646  0.1854 -0.5052 -1.8803
23384SOL    HW274838   8.106   7.806   7.614 -0.5673 -1.3523 -2.7032
23385SOL     OW74839   1.585   7.378   9.295 -0.0627  0.4686  0.6583
23385SOL    HW174840   1.621   7.351   9.380  1.4507 -1.0512 -0.4047
23385SOL    HW274841   1.622   7.316   9.233  1.4979  3.4269 -1.6412
23386SOL     OW74842   1.822   4.273  10.952 -0.0882 -0.0244 -0.1880
23386SOL    HW174843   1.799   4.246  10.863  0.9792  0.4904 -0.6382
23386SOL    HW274844   1.842   4.192  10.998 -0.0395 -0.2516 -0.6041
23387SOL     OW74845   2.031  10.472  10.728 -0.3076 -0.3553  0.4176
23387SOL    HW174846   2.049  10.553  10.680 -0.9713 -0.9075 -0.8216
23387SOL    HW274847   2.104  10.414  10.705 -0.7571 -0.7072 -0.1526
23388SOL     OW74848   6.140  11.927   8.052  0.0179  0.0207  0.3962
23388SOL    HW174849   6.046  11.922   8.034  0.1552 -3.4456  0.1330
23388SOL    HW274850   6.181  11.913   7.967  0.8158  0.5872  0.6756
23389SOL     OW74851   2.552   7.875   5.610  0.0638  0.2191  0.4007
23389SOL    HW174852   2.623   7.884   5.547  1.1432  1.0344  1.6742
23389SOL    HW274853   2.525   7.965   5.628  1.4329  0.2410  2.8413
23390SOL     OW74854  10.421   0.442   2.179  0.0498 -0.1965  0.6846
23390SOL    HW174855  10.341   0.390   2.186 -0.4447  0.4229 -0.1052
23390SOL    HW274856  10.479   0.390   2.124 -0.0715 -0.3449  0.6977
23391SOL     OW74857   1.300  10.937   0.288  0.7092  0.2110 -0.0607
23391SOL    HW174858   1.271  10.980   0.369  2.8113 -2.2987  2.2126
23391SOL    HW274859   1.395  10.942   0.290  0.8911 -1.6444 -1.3591
23392SOL     OW74860   3.576   2.586   7.877 -0.0401  0.4017  0.0129
23392SOL    HW174861   3.602   2.679   7.877  2.8985 -0.3003 -0.0232
23392SOL    HW274862   3.644   2.543   7.929 -1.8618 -1.6429  0.8256
23393SOL     OW74863   9.183  10.728   3.460  0.3879  0.0524  0.0290
23393SOL    HW174864   9.127  10.712   3.384  1.0253  0.1226 -0.4604
23393SOL    HW274865   9.269  10.748   3.423  0.9623 -0.9219  0.7899
23394SOL     OW74866   2.376   2.529   6.241 -0.5382 -0.8795 -0.0668
23394SOL    HW174867   2.465   2.531   6.208 -0.2850 -0.5231  0.6354
23394SOL    HW274868   2.321   2.536   6.162  0.0117 -2.5139 -0.6479
23395SOL     OW74869  10.224   2.654   2.736 -0.1089 -0.1277  0.6909
23395SOL    HW174870  10.146   2.646   2.681  0.0633 -0.4057  0.4886
23395SOL    HW274871  10.220   2.744   2.770 -0.3042 -0.0113  0.3631
23396SOL     OW74872  10.983   1.097   9.772 -0.0722  0.9448  0.2749
23396SOL    HW174873  11.033   1.150   9.711 -0.6295 -0.6188 -1.6674
23396SOL    HW274874  11.046   1.035   9.808 -0.2045  0.1974 -0.7346
23397SOL     OW74875   8.436  11.837   1.123  0.1859 -0.2031  0.2141
23397SOL    HW174876   8.498  11.909   1.134 -1.0452  0.8867  0.2585
23397SOL    HW274877   8.388  11.835   1.206 -1.9782  1.1029 -0.9059
23398SOL     OW74878   5.321   0.352   1.691  0.0906 -0.2896 -0.2055
23398SOL    HW174879   5.243   0.299   1.704  0.1941 -0.2366  0.7052
23398SOL    HW274880   5.289   0.442   1.686  0.1536 -0.1970  0.9200
23399SOL     OW74881   8.540   1.750   4.364 -0.4426 -0.3488  0.4666
23399SOL    HW174882   8.547   1.692   4.288  1.1350 -1.2844  1.2895
23399SOL    HW274883   8.507   1.832   4.327  0.8695 -0.5735 -1.3588
23400SOL     OW74884   8.265   0.774  10.965 -0.0792  0.4836 -0.1385
23400SOL    HW174885   8.211   0.806  11.037 -0.2965  0.3531 -0.2433
23400SOL    HW274886   8.341   0.734  11.008 -1.0351 -1.1547  0.0901
23401SOL     OW74887   6.602  10.766   3.810 -0.0828  0.0628 -0.3699
23401SOL    HW174888   6.516  10.747   3.848  1.2679 -1.8423  2.0677
23401SOL    HW274889   6.623  10.854   3.841 -0.1728 -0.4191  1.1611
23402SOL     OW74890   7.014   2.780  11.596  0.3614  0.1006 -0.2626
23402SOL    HW174891   7.059   2.818  11.672  1.2126 -0.2653 -0.5715
23402SOL    HW274892   7.008   2.687  11.616 -3.5926  0.5510  1.4476
23403SOL     OW74893   5.753   5.587   6.340  0.6520 -0.0589  0.4141
23403SOL    HW174894   5.705   5.539   6.272 -1.4619 -0.5224  2.1011
23403SOL    HW274895   5.749   5.530   6.417 -0.3317  1.9545  1.9717
23404SOL     OW74896   3.313   1.777   1.913  0.8511  0.2043  0.1809
23404SOL    HW174897   3.261   1.794   1.992 -1.1209  1.0934 -1.2417
23404SOL    HW274898   3.310   1.682   1.902  2.1019 -0.0708  1.7352
23405SOL     OW74899   5.305   8.855  10.903 -0.0192 -0.0382 -0.1677
23405SOL    HW174900   5.216   8.841  10.937 -1.0458  1.5394 -1.9711
23405SOL    HW274901   5.305   8.810  10.818  0.6659  0.5439 -0.4835
23406SOL     OW74902   8.743   6.960  11.846 -0.3748 -0.6243  0.0090
23406SOL    HW174903   8.752   6.999  11.759 -1.5957 -0.4653 -0.0592
23406SOL    HW274904   8.781   7.025  11.905  1.0509 -1.0082 -0.4303
23407SOL     OW74905  10.503   6.513   5.444  0.4507  0.0394  0.6155
23407SOL    HW174906  10.450   6.577   5.397 -0.5738 -1.5283 -0.4721
23407SOL    HW274907  10.470   6.515   5.534  0.1141  0.6916  0.4811
23408SOL     OW74908   7.699   9.036   9.126 -0.0152  0.2150 -0.1841
23408SOL    HW174909   7.698   9.112   9.068  0.8114 -0.8067 -1.6235
23408SOL    HW274910   7.607   9.021   9.148 -0.3878  0.5468 -1.4107
23409SOL     OW74911   8.285   5.580   0.989 -0.2717  0.4292 -0.7361
23409SOL    HW174912   8.240   5.517   0.933 -0.5371 -0.4168  0.4033
23409SOL    HW274913   8.221   5.604   1.056  0.5243  0.2281  0.1274
23410SOL     OW74914   2.215   2.567   2.564  0.3218  0.3094  0.2496
23410SOL    HW174915   2.164   2.514   2.626 -0.6499  0.4804 -0.3650
23410SOL    HW274916   2.148   2.616   2.516  0.9646 -0.4132 -1.4668
23411SOL     OW74917   9.540   1.562   4.093  0.3908 -0.1611  0.3241
23411SOL    HW174918   9.501   1.526   4.013  0.8587 -0.6863  0.3234
23411SOL    HW274919   9.581   1.486   4.135  3.7865  0.7570 -1.0420
23412SOL     OW74920   8.015   3.897   8.829 -0.0022  0.2743  0.2744
23412SOL    HW174921   8.084   3.866   8.771 -0.1774 -0.3246  0.3788
23412SOL    HW274922   7.934   3.870   8.788 -0.2640  2.0754 -0.4943
23413SOL     OW74923   0.857   6.437   0.466  0.3787  0.2009  0.7296
23413SOL    HW174924   0.920   6.385   0.514  0.2326 -1.0096 -0.3437
23413SOL    HW274925   0.787   6.454   0.529  2.0112  2.1400  2.1460
23414SOL     OW74926   4.829   1.696   4.461  0.3121  0.3466  0.1791
23414SOL    HW174927   4.848   1.621   4.404  0.2254  0.0741  0.5056
23414SOL    HW274928   4.734   1.708   4.455  0.3878  0.7542 -0.2700
23415SOL     OW74929   3.951   6.887   8.454  0.0598 -0.4759 -0.0390
23415SOL    HW174930   3.986   6.907   8.541  0.9665 -0.5482 -0.3760
23415SOL    HW274931   3.881   6.824   8.471 -0.2794  0.0862  0.6970
23416SOL     OW74932   9.676  11.448   4.352 -0.6904  0.1343  0.2355
23416SOL    HW174933   9.720  11.386   4.410 -0.6510 -1.2689 -1.2083
23416SOL    HW274934   9.583  11.439   4.375 -0.9233 -1.9477 -1.1870
23417SOL     OW74935  11.018   2.840   5.093 -0.5029  0.4376  0.1870
23417SOL    HW174936  10.952   2.771   5.088 -2.2141  2.0032 -0.0873
23417SOL    HW274937  10.969   2.918   5.121  1.3120  1.5866  0.3515
23418SOL     OW74938   6.257   8.508   2.790 -0.0128  0.3773  0.0858
23418SOL    HW174939   6.295   8.564   2.857 -0.9052 -0.0512  0.9769
23418SOL    HW274940   6.266   8.558   2.709  1.9442  0.4951  0.3329
23419SOL     OW74941   2.886   4.863   6.130 -0.0247 -0.5170 -0.5030
23419SOL    HW174942   2.910   4.836   6.041 -1.2270 -1.0823 -0.6757
23419SOL    HW274943   2.801   4.905   6.120 -0.4767 -1.1550  0.4566
23420SOL     OW74944  10.366   6.053   6.120 -0.1053  0.2345 -0.2500
23420SOL    HW174945  10.460   6.067   6.108 -0.0064 -0.0723  0.1913
23420SOL    HW274946  10.333   6.037   6.031  0.4546 -0.8599 -0.2784
23421SOL     OW74947   6.520  11.279   6.758 -0.1166  0.3745  0.3274
23421SOL    HW174948   6.543  11.195   6.718 -0.1080 -0.2344  1.5571
23421SOL    HW274949   6.425  11.275   6.770 -0.4692  1.4841 -1.6202
23422SOL     OW74950   0.081   1.291   2.425 -0.1474  0.4583  0.2492
23422SOL    HW174951   0.089   1.228   2.353 -0.9073  1.5488 -0.8358
23422SOL    HW274952   0.008   1.259   2.478  0.5186 -0.4385  0.6320
23423SOL     OW74953   4.286   2.872   4.984  0.1678  0.8302 -0.2012
23423SOL    HW174954   4.243   2.787   4.997  0.7852  0.2225 -1.8547
23423SOL    HW274955   4.233   2.934   5.035 -0.4238 -0.4882  0.8683
23424SOL     OW74956   3.745   7.539  11.010  0.1317 -0.1200  0.2944
23424SOL    HW174957   3.682   7.467  11.010 -0.7765  0.6191 -1.5114
23424SOL    HW274958   3.767   7.552  10.918  0.7576  1.5103  0.6373
23425SOL     OW74959   4.328  10.006   7.800  0.6086  0.7333 -0.0810
23425SOL    HW174960   4.369   9.999   7.886 -1.0301 -1.8280  0.6128
23425SOL    HW274961   4.293  10.095   7.797  1.9741  1.3582  1.2555
23426SOL     OW74962   5.891  10.168   1.390 -0.1189  0.4208 -0.1922
23426SOL    HW174963   5.938  10.111   1.452  1.3527 -0.7143 -2.2207
23426SOL    HW274964   5.955  10.186   1.321 -1.3372  2.5764 -0.8572
23427SOL     OW74965   0.380   5.038   3.888 -0.2554 -0.5037 -0.7065
23427SOL    HW174966   0.407   5.056   3.797 -0.1691 -0.4105 -0.6627
23427SOL    HW274967   0.352   5.123   3.921 -1.6858 -0.7829 -1.1066
23428SOL     OW74968   0.350   5.980   9.571  0.2073  0.4812  0.7082
23428SOL    HW174969   0.423   6.032   9.604  0.8358  0.6345 -0.8296
23428SOL    HW274970   0.293   6.044   9.527  1.3749 -0.1472 -1.8727
23429SOL     OW74971   8.016   1.206   9.515  0.1086 -0.1944 -0.2078
23429SOL    HW174972   7.953   1.276   9.534  0.3056 -0.4424  1.5461
23429SOL    HW274973   8.067   1.240   9.441 -2.3266 -0.1950 -1.9940
23430SOL     OW74974   9.235   8.502   9.116  0.3918  0.0185  0.6240
23430SOL    HW174975   9.318   8.549   9.106  0.7200 -0.3098  1.6167
23430SOL    HW274976   9.171   8.571   9.134  0.2226  0.3763 -1.1587
23431SOL     OW74977   8.775   0.690   7.203  0.1577 -0.5461  0.6009
23431SOL    HW174978   8.771   0.676   7.108 -2.1430  0.8647  0.4172
23431SOL    HW274979   8.686   0.672   7.233  0.4154  0.7414  2.2283
23432SOL     OW74980   3.330   7.562   9.084 -0.5757 -0.5083 -0.7937
23432SOL    HW174981   3.317   7.473   9.117  1.7273 -1.2673 -1.7357
23432SOL    HW274982   3.317   7.618   9.161 -1.9451 -1.6289 -0.1609
23433SOL     OW74983   2.654   8.359   5.429 -0.2689 -0.4768 -0.2880
23433SOL    HW174984   2.718   8.382   5.362 -0.0467  0.2903  0.1754
23433SOL    HW274985   2.584   8.424   5.418  0.1985  0.2410  0.8041
23434SOL     OW74986   6.287  10.078   8.240 -0.0351 -0.6243 -0.3915
23434SOL    HW174987   6.318  10.124   8.162 -0.7335 -2.3250 -1.7330
23434SOL    HW274988   6.281  10.147   8.307  1.1837  0.7713 -1.6231
23435SOL     OW74989   2.728   6.913   4.647  0.5723  0.9016 -0.3091
23435SOL    HW174990   2.653   6.951   4.692  0.6566  0.6788  0.0268
23435SOL    HW274991   2.721   6.945   4.557 -0.3007  0.3511 -0.4554
23436SOL     OW74992   2.617   7.726   7.772  0.0923 -0.9021  0.5193
23436SOL    HW174993   2.575   7.648   7.807 -2.0477 -1.9011 -3.6234
23436SOL    HW274994   2.550   7.794   7.780 -0.1131 -0.9412 -0.7613
23437SOL     OW74995  11.340   9.530   6.318 -0.6382  0.1993 -0.4712
23437SOL    HW174996  11.261   9.524   6.371 -0.2039  1.1318  0.3128
23437SOL    HW274997  11.412   9.528   6.381 -0.0371 -0.4850 -1.1631
23438SOL     OW74998   5.965  10.184  10.815  0.1576  0.5523 -0.2070
23438SOL    HW174999   6.001  10.152  10.898 -0.4693 -0.6185 -0.3576
23438SOL    HW275000   6.028  10.154  10.749 -0.3967 -0.3552 -0.3423
23439SOL     OW75001   8.543   7.295   0.394  0.2237 -0.2415 -0.0380
23439SOL    HW175002   8.615   7.232   0.393 -0.9318 -1.6044 -0.8127
23439SOL    HW275003   8.494   7.273   0.474 -0.3038 -0.4750 -0.4247
23440SOL     OW75004   7.835   7.707   8.468 -0.1899 -0.0779  0.1654
23440SOL    HW175005   7.897   7.781   8.469  0.3717 -0.5425  0.2631
23440SOL    HW275006   7.842   7.671   8.380 -0.1889 -0.2410  0.2309
23441SOL     OW75007   3.323   7.947  10.632 -0.0932  0.0086  0.2446
23441SOL    HW175008   3.262   7.923  10.702  1.7977  0.5845  2.1874
23441SOL    HW275009   3.377   8.016  10.671  0.9125  0.4739 -1.8753
23442SOL     OW75010  10.719   7.154   8.233  0.7684 -0.1179  0.4771
23442SOL    HW175011  10.650   7.132   8.295  1.9774 -0.6879  1.6849
23442SOL    HW275012  10.741   7.071   8.192 -0.0772  0.2701 -0.8148
23443SOL     OW75013   7.923  10.973   0.088 -0.1310 -0.4817 -0.2564
23443SOL    HW175014   7.937  10.955  -0.005 -0.6169  1.4345 -0.7597
23443SOL    HW275015   8.010  10.986   0.124  0.0978 -1.9044 -0.2809
23444SOL     OW75016   1.932   2.667   9.514 -0.1367 -0.3062 -0.5817
23444SOL    HW175017   2.020   2.705   9.503  0.7842 -1.7303  1.2630
23444SOL    HW275018   1.947   2.573   9.519 -2.0843 -0.7866 -2.5245
23445SOL     OW75019  11.933   0.703   8.314 -0.2796 -0.1196  0.1471
23445SOL    HW175020  11.864   0.730   8.254 -1.6786 -1.3636  1.1044
23445SOL    HW275021  11.898   0.724   8.401  0.0087 -1.7913  0.7183
23446SOL     OW75022   3.862   6.675   1.869  0.6034  0.1561  0.2937
23446SOL    HW175023   3.895   6.668   1.780  1.2690  2.4480  0.2960
23446SOL    HW275024   3.784   6.730   1.861 -0.0593 -0.6583  0.9822
23447SOL     OW75025   1.357  11.789   8.652 -0.0954  0.1798  0.2145
23447SOL    HW175026   1.439  11.780   8.603 -0.3966 -1.6114 -0.0264
23447SOL    HW275027   1.383  11.786   8.744  0.1973  0.6157  0.1477
23448SOL     OW75028  10.648  11.719   8.742  0.5084 -0.6245  0.1430
23448SOL    HW175029  10.592  11.726   8.665  1.4252  0.7794 -0.4402
23448SOL    HW275030  10.594  11.676   8.808 -1.7674  1.8519  0.0382
23449SOL     OW75031  11.762   5.163   4.266  0.1164  0.2313  0.3526
23449SOL    HW175032  11.696   5.215   4.311  1.0443 -0.1039  2.1980
23449SOL    HW275033  11.756   5.076   4.304  0.6253 -0.2107 -0.5223
23450SOL     OW75034  11.052  11.706   1.298  0.3521  0.3540 -0.0930
23450SOL    HW175035  11.047  11.617   1.265  2.5426  0.0811  0.2133
23450SOL    HW275036  10.976  11.714   1.357  0.8442 -1.7369  0.9006
23451SOL     OW75037   4.778   5.510   0.522  0.5334 -0.1386  0.3183
23451SOL    HW175038   4.811   5.425   0.552 -1.2668 -1.2539 -0.6620
23451SOL    HW275039   4.702   5.488   0.467  2.2829  1.8568 -3.2617
23452SOL     OW75040   0.933   9.495   4.030 -0.1546 -0.0092  0.1105
23452SOL    HW175041   0.884   9.450   3.961  0.3558  2.0397 -1.7248
23452SOL    HW275042   1.022   9.500   3.996 -0.2809  2.6796 -0.0012
23453SOL     OW75043   1.401   8.259   3.601  0.0391 -0.2871 -0.1894
23453SOL    HW175044   1.310   8.288   3.610  0.6681  1.2533  1.7461
23453SOL    HW275045   1.441   8.322   3.542 -0.2916 -1.4503 -1.7314
23454SOL     OW75046   3.563   5.097   5.136  0.5278 -0.6512  0.0320
23454SOL    HW175047   3.570   5.118   5.043 -0.7507 -0.8081 -0.1223
23454SOL    HW275048   3.653   5.100   5.169  0.8370  0.9537 -0.8688
23455SOL     OW75049   6.147  11.909   1.507  0.3065 -0.4168 -0.0591
23455SOL    HW175050   6.168  12.002   1.513  2.4054 -0.9003  1.6781
23455SOL    HW275051   6.174  11.884   1.419 -1.8920  0.9022 -1.1730
23456SOL     OW75052   7.387   6.183  10.099  0.6981 -0.3978  0.1514
23456SOL    HW175053   7.329   6.157  10.171  0.2693 -0.0404 -0.0568
23456SOL    HW275054   7.328   6.205  10.028  0.9566  2.1898  0.6516
23457SOL     OW75055   7.666  11.234   7.279  0.3786 -0.4773  0.2588
23457SOL    HW175056   7.760  11.245   7.295  0.7386 -3.5760  0.8723
23457SOL    HW275057   7.657  11.245   7.184  1.2195  0.5373  0.2721
23458SOL     OW75058  11.827   6.135   6.581 -0.1732 -0.9256  0.1151
23458SOL    HW175059  11.766   6.084   6.635  0.3868 -0.3909  1.2702
23458SOL    HW275060  11.888   6.070   6.547 -0.2928 -1.2190  0.4509
23459SOL     OW75061   3.884   2.729   6.990 -0.3767  0.8986 -0.0892
23459SOL    HW175062   3.936   2.665   7.040  0.4904  1.0319 -0.7914
23459SOL    HW275063   3.916   2.814   7.021 -0.3031  0.9834 -0.3966
23460SOL     OW75064  10.422   4.450  11.780 -0.0608 -0.0218 -0.6805
23460SOL    HW175065  10.418   4.510  11.706 -1.0202 -0.0431 -0.6587
23460SOL    HW275066  10.436   4.363  11.741 -1.3042 -0.1332 -0.8941
23461SOL     OW75067   2.194   0.762   3.490  0.1222 -0.4451 -0.4540
23461SOL    HW175068   2.131   0.790   3.423  0.2022 -0.0327 -0.3591
23461SOL    HW275069   2.231   0.844   3.524  0.2473 -0.6629 -0.0637
23462SOL     OW75070   2.554  11.115   8.481  0.2913  0.0741  0.2516
23462SOL    HW175071   2.634  11.090   8.526 -0.2028 -1.6003  0.2675
23462SOL    HW275072   2.494  11.041   8.495 -0.5567  0.3810 -1.4495
23463SOL     OW75073   1.318   4.976   9.702 -0.2666  0.3424 -0.3483
23463SOL    HW175074   1.329   4.917   9.628 -0.5596 -2.3463  1.6312
23463SOL    HW275075   1.408   4.997   9.729 -0.1174 -0.9574  0.2192
23464SOL     OW75076   0.185   3.627   1.500 -0.5587  0.4207  0.1507
23464SOL    HW175077   0.095   3.652   1.522 -1.3766  0.0715 -2.4225
23464SOL    HW275078   0.198   3.543   1.544 -1.6831  0.2392  0.1818
23465SOL     OW75079   4.821   5.581   2.280  0.7704 -0.0215 -0.1940
23465SOL    HW175080   4.824   5.669   2.243 -0.3875 -1.0896 -3.1487
23465SOL    HW275081   4.911   5.561   2.304  1.0404  1.9304  0.6095
23466SOL     OW75082  11.262   5.321   4.998  0.5091  0.6475  0.2367
23466SOL    HW175083  11.336   5.274   4.960  0.1492  0.5297 -0.3302
23466SOL    HW275084  11.187   5.294   4.945  0.1570  1.2051  0.4409
23467SOL     OW75085  11.885   6.138  11.158  0.3055 -0.8727 -0.1316
23467SOL    HW175086  11.954   6.174  11.103  2.8256 -0.8667  2.8273
23467SOL    HW275087  11.882   6.045  11.134  2.3576 -1.1742  0.5994
23468SOL     OW75088   7.346   4.305   1.560  0.5438  0.1011 -0.2097
23468SOL    HW175089   7.354   4.282   1.467 -0.4865 -2.0483  0.1848
23468SOL    HW275090   7.431   4.281   1.598  0.2738 -0.9643 -0.2439
23469SOL     OW75091   3.145   6.906   1.062  0.1004  0.2740 -0.0677
23469SOL    HW175092   3.215   6.860   1.016 -0.5667  0.6167 -1.4726
23469SOL    HW275093   3.076   6.841   1.073  0.6262 -0.0871  1.3941
23470SOL     OW75094   3.616   3.534   1.244 -0.2108  0.2240 -0.1671
23470SOL    HW175095   3.669   3.529   1.165 -1.2402 -0.5586 -0.8276
23470SOL    HW275096   3.526   3.546   1.213 -0.5111  1.0061  0.9127
23471SOL     OW75097   4.743   4.970   3.955  1.1282  0.6730  0.2197
23471SOL    HW175098   4.667   5.028   3.947  0.3090 -0.6289 -2.7921
23471SOL    HW275099   4.807   5.021   4.005 -0.0631  3.6409 -1.0307
23472SOL     OW75100   2.230   0.284   1.882  0.7958  0.3013 -0.1939
23472SOL    HW175101   2.259   0.307   1.794  1.7667  0.7342  0.2282
23472SOL    HW275102   2.146   0.239   1.869  0.3651  1.3731 -1.2517
23473SOL     OW75103  11.914   1.121   8.619  0.4442 -0.5248  0.1140
23473SOL    HW175104  11.895   1.132   8.712  2.8846 -0.8928  0.7143
23473SOL    HW275105  11.833   1.147   8.575  0.1038  2.3984  2.2047
23474SOL     OW75106   5.209   8.663   2.352 -0.2180 -0.0549  0.0344
23474SOL    HW175107   5.208   8.758   2.344  1.8656 -0.0230 -0.3097
23474SOL    HW275108   5.156   8.632   2.279 -0.8321  0.8313  0.0915
23475SOL     OW75109   5.141   4.647   8.948  0.4243 -0.1245  0.3319
23475SOL    HW175110   5.199   4.620   8.876  0.7988 -0.2148  0.6675
23475SOL    HW275111   5.181   4.726   8.983  0.1864 -0.0253  0.3836
23476SOL     OW75112   3.044   6.545   4.445  0.1366 -0.6606  0.2067
23476SOL    HW175113   2.952   6.517   4.454  0.3334 -2.0026 -1.4893
23476SOL    HW275114   3.048   6.628   4.493 -1.7260 -1.0510  1.1421
23477SOL     OW75115   9.888  11.139   6.933 -0.0429 -0.3483  0.0450
23477SOL    HW175116   9.864  11.205   6.997  0.5399  0.9171 -1.0041
23477SOL    HW275117   9.963  11.176   6.886 -0.6444 -1.0742 -1.5840
23478SOL     OW75118  11.843   0.620   5.277  0.1549  0.2858 -0.3844
23478SOL    HW175119  11.856   0.623   5.182 -0.3448  0.7454 -0.4453
23478SOL    HW275120  11.912   0.561   5.309  0.3434  0.1470 -1.0262
23479SOL     OW75121   5.167   0.285   0.147  0.1105 -0.3297 -0.0689
23479SOL    HW175122   5.176   0.375   0.177  0.7582 -0.9797  1.8092
23479SOL    HW275123   5.072   0.271   0.140 -0.0026  0.3348  0.1288
23480SOL     OW75124  11.278   4.108   5.670 -1.0278 -0.1330  0.0906
23480SOL    HW175125  11.364   4.090   5.708 -1.1299 -1.7161 -0.3440
23480SOL    HW275126  11.223   4.132   5.745 -0.3384  0.4076  0.4342
23481SOL     OW75127   7.159   0.471   7.943 -0.1245  0.0510 -0.2048
23481SOL    HW175128   7.228   0.478   8.009 -1.0198  0.4414  0.7134
23481SOL    HW275129   7.112   0.554   7.949 -2.1973 -1.1338  0.9203
23482SOL     OW75130   1.047   4.096   4.077 -0.2622 -0.0311  0.7205
23482SOL    HW175131   1.038   4.048   3.995 -0.7654  0.9599  0.1864
23482SOL    HW275132   1.093   4.035   4.135 -0.6246 -1.0438 -0.0297
23483SOL     OW75133   3.813   1.362   1.565 -0.9153  0.2031  0.0176
23483SOL    HW175134   3.826   1.325   1.652 -3.3375 -0.5254  0.1528
23483SOL    HW275135   3.895   1.344   1.519 -0.8706 -2.8042  1.0191
23484SOL     OW75136  10.074   2.714   5.431 -0.0105  0.0247 -0.3821
23484SOL    HW175137  10.036   2.697   5.345 -0.6098  0.1970 -0.1616
23484SOL    HW275138  10.157   2.667   5.430 -1.0767 -2.0097 -0.2040
23485SOL     OW75139   3.612   1.720   2.770 -0.3407  0.3200  0.0137
23485SOL    HW175140   3.591   1.665   2.695  0.8131  1.3855 -1.1630
23485SOL    HW275141   3.539   1.782   2.776 -0.0101  0.8194 -0.8592
23486SOL     OW75142   2.789   3.652   3.608 -0.1495  0.1429  0.3888
23486SOL    HW175143   2.765   3.740   3.638 -0.9873 -0.7359  2.5157
23486SOL    HW275144   2.869   3.665   3.558  0.3027  2.0108  1.4788
23487SOL     OW75145   8.172   1.802   3.409  0.4101 -0.1909 -0.0032
23487SOL    HW175146   8.095   1.843   3.449  0.6646  0.8755 -0.5727
23487SOL    HW275147   8.204   1.742   3.476  0.0937  0.6307  0.9219
23488SOL     OW75148   9.344   5.949   7.847  0.3437  0.0053  0.5457
23488SOL    HW175149   9.333   5.865   7.801 -0.4118  1.0321 -1.2582
23488SOL    HW275150   9.424   5.938   7.897  0.8105 -1.4678 -0.4487
23489SOL     OW75151   0.648   2.969   5.631  0.1987 -0.3021 -0.2248
23489SOL    HW175152   0.740   2.989   5.650  0.1003 -0.3660  0.3459
23489SOL    HW275153   0.617   3.043   5.579  0.7330 -0.5597 -0.9095
23490SOL     OW75154  11.729   3.195   3.202 -0.3298  0.7343  0.2204
23490SOL    HW175155  11.779   3.238   3.133  0.6581  0.3216  0.6534
23490SOL    HW275156  11.682   3.266   3.246 -1.5135  0.9214 -1.2775
23491SOL     OW75157   8.070  11.230   0.757 -0.0731 -0.7301  0.4560
23491SOL    HW175158   8.080  11.250   0.664  0.9527 -0.6039  0.5753
23491SOL    HW275159   7.976  11.216   0.770 -0.5939  1.8169 -0.0746
23492SOL     OW75160   2.773   8.846   3.154  0.0710 -0.2135  0.1908
23492SOL    HW175161   2.726   8.929   3.160  1.7398  0.7877  0.0235
23492SOL    HW275162   2.793   8.824   3.245 -0.3801 -0.4431  0.2362
23493SOL     OW75163   0.434   0.884   4.572  0.7898  0.0163  0.2774
23493SOL    HW175164   0.388   0.837   4.503  1.8922 -0.8701  0.1144
23493SOL    HW275165   0.447   0.972   4.535  0.0273  0.0125 -0.0208
23494SOL     OW75166   0.614   9.445   1.204 -0.1528  0.2843  0.0940
23494SOL    HW175167   0.697   9.491   1.208 -0.4110  0.6665  1.8510
23494SOL    HW275168   0.551   9.511   1.174  0.2055 -0.0917 -1.5553
23495SOL     OW75169   3.511   9.906  10.827  0.4456 -0.1367 -0.7894
23495SOL    HW175170   3.454   9.845  10.874  0.3700 -2.1252 -3.2115
23495SOL    HW275171   3.453   9.978  10.802  0.4876  0.9650  1.9655
23496SOL     OW75172   2.155   2.826   4.566 -0.1685 -0.1829 -0.4140
23496SOL    HW175173   2.159   2.824   4.661 -0.3936  1.2669 -0.3443
23496SOL    HW275174   2.061   2.824   4.546 -0.1084 -2.1098 -0.7017
23497SOL     OW75175   8.183   5.772   5.340  0.3143  0.2505 -0.4584
23497SOL    HW175176   8.222   5.777   5.252 -0.4905 -0.5522 -0.8802
23497SOL    HW275177   8.103   5.720   5.328  0.6356 -0.6139  0.9101
23498SOL     OW75178   3.557   7.314  11.082  0.1663 -0.1938  0.1995
23498SOL    HW175179   3.466   7.323  11.053 -0.5917  2.6883  2.9366
23498SOL    HW275180   3.585   7.230  11.045 -3.4584 -1.0608 -1.0577
23499SOL     OW75181  10.623   7.875   5.911  0.2933 -0.3675  0.0988
23499SOL    HW175182  10.652   7.872   5.820  0.6557 -0.4311  0.2126
23499SOL    HW275183  10.697   7.915   5.958 -0.7742  1.8399  0.0139
23500SOL     OW75184   9.658   1.797   4.066  0.6658 -0.0462 -0.3584
23500SOL    HW175185   9.601   1.856   4.116  0.6821 -0.0728 -0.3089
23500SOL    HW275186   9.623   1.710   4.082  1.2424 -0.1529  0.3679
23501SOL     OW75187   0.665   6.883   2.869 -0.0548 -0.0357  0.4793
23501SOL    HW175188   0.663   6.858   2.961  0.4966  0.1829  0.5552
23501SOL    HW275189   0.754   6.864   2.841  0.7808  2.8342  0.8457
23502SOL     OW75190   9.898   9.571   5.505 -0.5161  0.0195 -0.3939
23502SOL    HW175191   9.990   9.595   5.519 -0.5351  0.2383 -0.6423
23502SOL    HW275192   9.851   9.653   5.508 -0.6481 -0.0435 -0.7208
23503SOL     OW75193   5.567   4.364   4.040  0.1467 -0.3854 -0.1989
23503SOL    HW175194   5.525   4.424   4.101  0.9131 -0.2632  0.2209
23503SOL    HW275195   5.635   4.417   3.997  0.5554 -0.8428 -0.1232
23504SOL     OW75196   5.704   3.771   5.198  0.3499  0.1741  0.1387
23504SOL    HW175197   5.786   3.723   5.181 -1.7995 -3.2812 -1.6864
23504SOL    HW275198   5.675   3.737   5.282  0.6541  1.2472  0.6865
23505SOL     OW75199  10.859   6.321   3.163  0.0745  0.5130  0.0145
23505SOL    HW175200  10.866   6.379   3.086 -0.2779  0.7634  0.1698
23505SOL    HW275201  10.771   6.284   3.157  0.8974 -1.4364 -1.0815
23506SOL     OW75202   0.113   6.560   2.646 -0.2946  0.1346 -0.6438
23506SOL    HW175203   0.124   6.647   2.685  0.9447 -0.4159  0.2835
23506SOL    HW275204   0.200   6.536   2.615  0.0422 -1.8855  1.5775
23507SOL     OW75205  11.973   2.183   2.604  0.5456  0.2875 -0.2180
23507SOL    HW175206  12.025   2.262   2.616  0.5382 -0.0579  2.6931
23507SOL    HW275207  11.892   2.199   2.652 -0.1283 -0.9145 -0.8946
23508SOL     OW75208  11.802   9.942  11.777 -0.0907  0.4317  0.3353
23508SOL    HW175209  11.890   9.945  11.740 -0.7722  0.9879 -1.3608
23508SOL    HW275210  11.763  10.026  11.752 -1.7769 -0.6105 -0.7773
23509SOL     OW75211   8.119   2.691  11.868 -0.5084 -0.0290 -0.1259
23509SOL    HW175212   8.167   2.759  11.915  2.7352 -2.6855  0.7819
23509SOL    HW275213   8.088   2.631  11.936 -2.9657  0.1818 -0.9320
23510SOL     OW75214   4.328   8.708   2.526 -0.2359  0.0418  0.1991
23510SOL    HW175215   4.255   8.770   2.520  1.5463  2.4809  1.5256
23510SOL    HW275216   4.325   8.676   2.616 -0.5661 -1.0751 -0.1993
23511SOL     OW75217   7.294   5.841  10.707 -0.0982 -0.5534 -0.0092
23511SOL    HW175218   7.335   5.925  10.685  1.8654 -1.1324  1.2592
23511SOL    HW275219   7.234   5.862  10.778 -1.5351  0.1697 -1.3731
23512SOL     OW75220   1.272   8.791   4.047 -0.4784  0.0685  0.4620
23512SOL    HW175221   1.182   8.821   4.062  0.1830  1.8467  1.1779
23512SOL    HW275222   1.314   8.800   4.133  0.7330  0.6264 -0.1630
23513SOL     OW75223   1.891   6.488   6.510 -0.5145  0.8166 -0.4387
23513SOL    HW175224   1.982   6.470   6.486 -0.4460  1.3636 -0.6081
23513SOL    HW275225   1.884   6.459   6.601 -0.6981 -1.0132 -0.9989
23514SOL     OW75226   7.222   2.236  10.991 -0.4987  0.3522 -0.0111
23514SOL    HW175227   7.263   2.309  11.038 -1.3898  0.5794  0.4438
23514SOL    HW275228   7.166   2.194  11.057  1.6166 -2.1007  0.3299
23515SOL     OW75229   3.750   3.159  10.032 -0.2111  0.3164  0.1231
23515SOL    HW175230   3.788   3.206  10.106 -0.7314  0.3280  0.3889
23515SOL    HW275231   3.658   3.147  10.056 -0.0544 -0.9717  0.1175
23516SOL     OW75232  10.785   5.614   5.706  0.4139 -0.2789 -0.4016
23516SOL    HW175233  10.812   5.585   5.618  0.7686 -0.1258 -0.3445
23516SOL    HW275234  10.832   5.556   5.765  1.8170  0.9393 -0.2572
23517SOL     OW75235   9.964   8.751   4.342 -0.5099 -0.2164  0.0284
23517SOL    HW175236   9.923   8.780   4.260 -1.4771 -1.9019 -0.1258
23517SOL    HW275237  10.056   8.735   4.318 -0.2705  1.3321 -0.1907
23518SOL     OW75238   0.403   6.876   2.782  0.1815 -0.6893  0.4066
23518SOL    HW175239   0.402   6.951   2.722  1.1693 -0.5524  0.5480
23518SOL    HW275240   0.482   6.888   2.834 -2.1766  0.9440  4.0200
23519SOL     OW75241   9.733   0.084   4.994  0.3467  0.3016  0.2754
23519SOL    HW175242   9.810   0.029   5.005  1.2733  1.2512 -1.2049
23519SOL    HW275243   9.717   0.120   5.081  2.4999  1.2631  0.3364
23520SOL     OW75244   8.427  11.798   1.945 -0.2092  0.4704  0.2121
23520SOL    HW175245   8.458  11.865   2.006  3.0207 -0.9205  0.3089
23520SOL    HW275246   8.439  11.838   1.858  1.1341  0.3000  0.2940
23521SOL     OW75247   9.997   8.547   1.747 -0.0090  0.3992  0.2422
23521SOL    HW175248  10.071   8.568   1.805 -0.5038  1.0254  0.6623
23521SOL    HW275249  10.003   8.452   1.734  1.4560  0.5762 -0.5432
23522SOL     OW75250   1.419   5.476   8.596  0.3415  0.4706 -0.2866
23522SOL    HW175251   1.436   5.513   8.682  0.2025  2.0459 -0.9000
23522SOL    HW275252   1.371   5.545   8.549  0.0725 -0.4937 -1.5010
23523SOL     OW75253   0.299   8.827   6.126 -0.8430  0.3028  0.2786
23523SOL    HW175254   0.219   8.870   6.157 -1.6167 -0.5630 -0.4456
23523SOL    HW275255   0.301   8.846   6.032 -0.8952 -0.7420  0.0533
23524SOL     OW75256   8.862   7.346   0.613 -0.1003 -0.2269  0.1571
23524SOL    HW175257   8.818   7.262   0.612 -0.3789 -0.0921  0.7136
23524SOL    HW275258   8.888   7.361   0.522 -1.4316 -0.1828 -0.2281
23525SOL     OW75259  10.363   7.196   0.959  0.1549 -0.3044 -0.2270
23525SOL    HW175260  10.383   7.257   1.030 -0.9890 -1.4663  1.1512
23525SOL    HW275261  10.342   7.114   1.004 -1.5538 -0.8066 -1.8667
23526SOL     OW75262   6.005   6.175   1.923 -0.1644 -0.1799 -0.2368
23526SOL    HW175263   6.042   6.104   1.870 -0.1032  0.0371 -0.4859
23526SOL    HW275264   6.041   6.255   1.885  0.6986 -0.0724  0.7843
23527SOL     OW75265  11.257   6.760   6.794 -0.1218 -0.4437  0.2709
23527SOL    HW175266  11.290   6.680   6.754  0.3393 -0.2853  0.3165
23527SOL    HW275267  11.206   6.730   6.869 -1.6712 -0.7740 -0.8761
23528SOL     OW75268   7.227  10.392   5.324 -0.1812  0.5081  0.0660
23528SOL    HW175269   7.160  10.460   5.336  0.6556  1.2951  0.4433
23528SOL    HW275270   7.179  10.315   5.294 -1.1217  1.3620 -0.6954
23529SOL     OW75271   7.194   3.357   1.646 -0.0963  0.5499  0.5247
23529SOL    HW175272   7.136   3.326   1.577 -1.1656  0.8868  1.2520
23529SOL    HW275273   7.277   3.376   1.601 -0.8422  0.9910 -0.6977
23530SOL     OW75274   1.291  10.347   8.972  0.2706 -0.2336  0.4389
23530SOL    HW175275   1.310  10.260   9.007 -0.5818 -0.7463 -0.3202
23530SOL    HW275276   1.235  10.389   9.037 -0.4004 -0.7627  0.2114
23531SOL     OW75277   8.422   0.698   9.269  0.2002 -0.0636 -0.6048
23531SOL    HW175278   8.479   0.621   9.275  0.6342  0.2998  0.0325
23531SOL    HW275279   8.410   0.726   9.360  0.7922  1.1572 -0.8857
23532SOL     OW75280  10.873   6.286   9.787  0.3039 -0.6850 -0.1342
23532SOL    HW175281  10.904   6.203   9.824 -0.5732 -1.0708 -0.2295
23532SOL    HW275282  10.877   6.272   9.692  0.1712 -0.6091 -0.1503
23533SOL     OW75283  11.172   3.435   5.097  0.5952 -0.0588 -0.1995
23533SOL    HW175284  11.087   3.408   5.062  0.3207 -0.7455  0.9298
23533SOL    HW275285  11.160   3.433   5.192  1.9598 -0.4611 -0.0136
23534SOL     OW75286   8.233   7.973   8.909  0.2664  0.0351 -0.2971
23534SOL    HW175287   8.183   7.902   8.869 -1.5704  0.7457  0.5996
23534SOL    HW275288   8.167   8.029   8.949  1.7921  1.2133  0.7006
23535SOL     OW75289   0.279  11.181  11.406 -0.3249 -0.1745  0.2587
23535SOL    HW175290   0.325  11.151  11.484  2.8476  1.3677 -0.8793
23535SOL    HW275291   0.281  11.105  11.347  2.2649  0.3100 -0.3537
23536SOL     OW75292   1.282   9.330   1.569  0.5555 -0.0241  0.5117
23536SOL    HW175293   1.240   9.266   1.627 -1.0401  1.0000  0.5565
23536SOL    HW275294   1.366   9.350   1.612 -0.9863  1.4628  3.1206
23537SOL     OW75295   8.103  11.856   3.722  0.2992  0.1756 -0.1796
23537SOL    HW175296   8.177  11.863   3.662 -0.6358  0.1419 -1.3611
23537SOL    HW275297   8.107  11.766   3.754  0.6617  0.1247 -0.3659
23538SOL     OW75298   7.039   4.166   9.676  0.2017  0.3310 -0.1650
23538SOL    HW175299   6.948   4.194   9.681  0.2751  0.5290  4.3409
23538SOL    HW275300   7.087   4.244   9.647 -0.7705  1.1094  0.2837
23539SOL     OW75301   6.629   0.481   3.114  0.3071 -0.0932  0.0677
23539SOL    HW175302   6.564   0.509   3.179 -0.8643 -0.2217 -1.0197
23539SOL    HW275303   6.688   0.424   3.164 -1.0491 -0.8712  0.8599
23540SOL     OW75304   9.449   8.217   2.415 -0.6043  0.1302 -0.3884
23540SOL    HW175305   9.372   8.189   2.365 -0.7279  0.1172 -0.1927
23540SOL    HW275306   9.417   8.226   2.505 -0.3919  0.1868 -0.3182
23541SOL     OW75307   2.060   7.672   6.231 -0.3963 -0.2800  0.2801
23541SOL    HW175308   2.021   7.726   6.300 -2.2284  0.4220 -1.1976
23541SOL    HW275309   2.059   7.728   6.153  1.4640 -1.0887 -0.3882
23542SOL     OW75310  11.164   7.747   5.530 -0.1812  0.0669 -0.3279
23542SOL    HW175311  11.117   7.667   5.508 -0.6399  0.8431 -2.3835
23542SOL    HW275312  11.118   7.782   5.607 -0.1634 -1.4375  0.3981
23543SOL     OW75313   6.679  11.373   7.313  0.5265  0.0031  0.0595
23543SOL    HW175314   6.655  11.289   7.274  1.7232  0.1790 -1.1354
23543SOL    HW275315   6.666  11.361   7.407 -0.0822 -1.2512 -0.1720
23544SOL     OW75316   8.194   7.538   5.818 -0.0592 -0.6716 -0.2323
23544SOL    HW175317   8.225   7.613   5.768  1.4014 -0.7609  0.4775
23544SOL    HW275318   8.274   7.501   5.857 -0.9425 -1.6447  0.7101
23545SOL     OW75319   7.521   0.303   0.145 -0.5564 -0.0833  0.2283
23545SOL    HW175320   7.501   0.392   0.172 -3.5198 -0.5911  0.0365
23545SOL    HW275321   7.562   0.263   0.222 -0.4806  1.0172  0.7784
23546SOL     OW75322   8.255   7.713  10.795  0.1136 -0.4963 -0.3580
23546SOL    HW175323   8.317   7.656  10.749  0.6441 -0.1974 -0.0212
23546SOL    HW275324   8.248   7.675  10.882  0.8034  0.1912  0.0081
23547SOL     OW75325   0.031   4.602   5.714  0.1250  0.2166 -0.1721
23547SOL    HW175326  -0.026   4.651   5.773  1.9727  1.4936  0.6626
23547SOL    HW275327   0.038   4.515   5.753 -0.3771  0.3756  0.2841
23548SOL     OW75328   3.255   1.523   1.532  0.7086 -0.1249 -0.0693
23548SOL    HW175329   3.275   1.435   1.565  0.9168  0.2480  0.8452
23548SOL    HW275330   3.314   1.580   1.580 -0.3181  0.6521  0.3169
23549SOL     OW75331  11.404   3.386   7.851 -0.0389 -0.2836 -0.8587
23549SOL    HW175332  11.453   3.459   7.811 -0.8454  1.0168  0.4285
23549SOL    HW275333  11.367   3.339   7.776  0.7174  0.4629 -1.7402
23550SOL     OW75334   8.793  10.748   9.711  0.4407 -1.1828  0.6050
23550SOL    HW175335   8.847  10.827   9.722 -1.5924  0.3111  0.3835
23550SOL    HW275336   8.745  10.740   9.793 -1.8317 -0.1693 -0.5314
23551SOL     OW75337   0.241   6.216   5.869  0.6544  0.0306 -0.1201
23551SOL    HW175338   0.221   6.199   5.961  0.2214  0.7564 -0.0679
23551SOL    HW275339   0.326   6.175   5.854  0.2552 -0.9832  0.3250
23552SOL     OW75340   2.978   2.825   2.088  0.1200 -0.4672  0.5559
23552SOL    HW175341   2.971   2.918   2.110  0.7947 -0.0235 -0.9700
23552SOL    HW275342   2.913   2.782   2.143 -1.1409  1.0721  0.3404
23553SOL     OW75343   4.967   5.545   7.579 -0.3366 -0.1136  0.1128
23553SOL    HW175344   5.009   5.459   7.573 -0.0473  0.0526 -0.2864
23553SOL    HW275345   4.945   5.555   7.672  0.6422 -0.1384  0.3506
23554SOL     OW75346   3.775   2.648  11.649  0.4139 -0.4928  0.2674
23554SOL    HW175347   3.703   2.687  11.599  0.6158 -0.2281  0.1831
23554SOL    HW275348   3.832   2.608  11.583  0.7143 -0.0872  0.2829
23555SOL     OW75349   3.016   9.488   8.084  0.3824 -0.1774  0.3738
23555SOL    HW175350   3.076   9.436   8.137 -0.4714 -0.1017  1.4531
23555SOL    HW275351   2.963   9.424   8.037 -0.3015 -0.3071  1.2844
23556SOL     OW75352   6.861   0.677   7.100  0.2570 -0.2289  0.7295
23556SOL    HW175353   6.929   0.743   7.087  1.4148 -1.3604  0.8395
23556SOL    HW275354   6.862   0.659   7.193 -1.1529  0.6920  0.9589
23557SOL     OW75355   9.475   0.264   9.934 -0.0027 -0.3366  0.1906
23557SOL    HW175356   9.531   0.239   9.861 -0.8884 -1.2098 -0.2222
23557SOL    HW275357   9.490   0.357   9.946  1.1809 -0.4653 -0.2024
23558SOL     OW75358   2.812  11.297   5.382 -0.6582  0.1398 -0.3203
23558SOL    HW175359   2.763  11.352   5.443  0.5347  0.5783  0.2681
23558SOL    HW275360   2.867  11.241   5.437 -0.4166 -0.2740 -0.9623
23559SOL     OW75361   9.668   6.299   5.041 -0.4554 -0.1638  0.4406
23559SOL    HW175362   9.581   6.272   5.013 -0.0031 -1.2605  0.0272
23559SOL    HW275363   9.713   6.323   4.960 -0.6125  1.1844  0.7295
23560SOL     OW75364   0.058   4.145   2.358  0.6782 -0.4615 -0.4825
23560SOL    HW175365  -0.034   4.135   2.383  0.9171  0.0468  0.6844
23560SOL    HW275366   0.056   4.152   2.262 -0.6711  1.1475 -0.3957
23561SOL     OW75367   7.221  10.222   5.981 -0.0565 -0.3637 -0.1310
23561SOL    HW175368   7.169  10.167   5.923 -0.3868  0.2699 -0.4486
23561SOL    HW275369   7.164  10.238   6.056 -0.4143  0.5204 -0.5839
23562SOL     OW75370  10.668   1.203   5.917  0.1821  0.5195  0.1920
23562SOL    HW175371  10.714   1.120   5.910 -0.5525  0.0638  0.6763
23562SOL    HW275372  10.624   1.214   5.833 -1.5864 -0.7135  0.9240
23563SOL     OW75373   4.204   8.676   6.847 -0.5609 -0.2013 -0.4072
23563SOL    HW175374   4.130   8.669   6.907 -0.5093 -0.0527 -0.3247
23563SOL    HW275375   4.209   8.769   6.826 -0.0229 -0.1212  0.0661
23564SOL     OW75376   7.749   7.925   8.831  0.0284  0.3182  0.1623
23564SOL    HW175377   7.729   8.009   8.874 -0.7312 -0.0176  0.4807
23564SOL    HW275378   7.723   7.859   8.895 -0.1710 -0.1727 -0.4194
23565SOL     OW75379  10.433   0.048   8.736 -0.2160 -0.7502 -0.4467
23565SOL    HW175380  10.407  -0.012   8.666  0.4907 -0.9009 -0.5848
23565SOL    HW275381  10.509   0.006   8.777 -0.8218 -0.8302  0.6331
23566SOL     OW75382   7.696   9.080   1.673  0.1136 -0.0977  0.0371
23566SOL    HW175383   7.651   9.162   1.693 -0.7114 -0.6691  0.5766
23566SOL    HW275384   7.789   9.101   1.678 -0.0806  0.4732  1.6232
23567SOL     OW75385  10.076   2.614  10.632  0.1746 -0.8077  0.4171
23567SOL    HW175386   9.989   2.586  10.660 -0.3282  0.2270 -0.0830
23567SOL    HW275387  10.076   2.602  10.537  0.5969 -0.8390  0.4174
23568SOL     OW75388   9.062  10.722   0.699 -0.2014  0.1264  0.3514
23568SOL    HW175389   9.051  10.740   0.792 -0.0095 -1.7713  0.7844
23568SOL    HW275390   9.083  10.629   0.695  0.3262  0.2836 -1.5610
23569SOL     OW75391   4.286   4.052  11.278  0.1401  0.6823 -0.0702
23569SOL    HW175392   4.244   4.006  11.205 -1.0189  1.1849  0.2619
23569SOL    HW275393   4.281   3.990  11.350 -0.3180  0.8459  0.0454
23570SOL     OW75394   6.764   8.254   4.912  0.0100  0.4450 -0.3370
23570SOL    HW175395   6.796   8.276   4.824  1.8120 -1.1532 -0.1485
23570SOL    HW275396   6.724   8.335   4.944 -0.4950  1.1286 -2.5305
23571SOL     OW75397  11.467   7.031   5.343  0.0922 -0.3017  0.6056
23571SOL    HW175398  11.487   7.109   5.394  1.5760 -0.0212 -0.3598
23571SOL    HW275399  11.371   7.031   5.336  0.0071  0.8615  1.4737
23572SOL     OW75400   0.686   3.305   8.936  0.0979 -0.9015  0.2371
23572SOL    HW175401   0.660   3.215   8.913  2.1224 -1.4929  0.0110
23572SOL    HW275402   0.748   3.293   9.008  3.6316 -0.1518 -2.3546
23573SOL     OW75403   2.823   2.697   7.965  0.3418  0.2719 -0.0988
23573SOL    HW175404   2.847   2.646   8.042  1.2959  1.6886  0.5952
23573SOL    HW275405   2.775   2.636   7.909  0.7906 -1.1515  1.0155
23574SOL     OW75406   1.671   1.833   4.150  0.2208  0.0913 -0.4350
23574SOL    HW175407   1.746   1.821   4.209 -0.0578  2.0112  0.3860
23574SOL    HW275408   1.596   1.804   4.201  0.3152 -1.1627 -0.9974
23575SOL     OW75409   4.215   9.333   7.897  0.1137 -0.1276 -0.2673
23575SOL    HW175410   4.159   9.392   7.847  0.4908 -1.1984 -2.0642
23575SOL    HW275411   4.303   9.370   7.888  0.0828  0.0831  0.2604
23576SOL     OW75412   8.430   4.016   7.891 -0.5656  0.3638 -0.1800
23576SOL    HW175413   8.462   4.104   7.912 -0.2611  0.3899 -0.7124
23576SOL    HW275414   8.417   4.018   7.796  0.7810 -0.5712 -0.4215
23577SOL     OW75415   4.890   4.642   7.833  0.2441 -0.0793 -0.1991
23577SOL    HW175416   4.841   4.724   7.825  2.1685  1.0705 -0.8350
23577SOL    HW275417   4.878   4.599   7.749  0.1905  0.1134 -0.2916
23578SOL     OW75418   6.492  11.590   8.386 -0.3413  0.2168 -0.1535
23578SOL    HW175419   6.556  11.572   8.317  1.8551  2.3444  1.1638
23578SOL    HW275420   6.436  11.659   8.350  0.4430  0.9243 -0.0414
23579SOL     OW75421   5.317   9.435   0.310  0.6199 -0.0971  0.3567
23579SOL    HW175422   5.336   9.386   0.230  2.3455  0.4866  0.3830
23579SOL    HW275423   5.233   9.399   0.339 -0.4824  0.2204 -2.1171
23580SOL     OW75424   3.647  10.969  10.291  0.3948  0.5590 -0.4739
23580SOL    HW175425   3.645  10.900  10.224 -2.3066 -0.4252  0.4762
23580SOL    HW275426   3.607  11.045  10.248 -3.2297 -0.6495  0.3958
23581SOL     OW75427   9.316   6.259   9.274 -0.0718  0.2958  0.3460
23581SOL    HW175428   9.229   6.275   9.311  0.0632  0.5908  0.5347
23581SOL    HW275429   9.307   6.175   9.229 -0.6181  0.6018 -0.1355
23582SOL     OW75430   1.750   4.121   0.118  0.2336  0.1990 -0.0614
23582SOL    HW175431   1.711   4.118   0.205 -1.7099 -1.4060 -0.9130
23582SOL    HW275432   1.684   4.082   0.061  1.4512  1.2035 -2.2689
23583SOL     OW75433   6.699   5.762   1.786 -0.0205  0.1286 -0.5496
23583SOL    HW175434   6.714   5.856   1.777  0.1768  0.2505  0.8362
23583SOL    HW275435   6.616   5.755   1.833  0.9164 -0.3269  1.1040
23584SOL     OW75436   2.330   0.856   9.030  0.5495 -0.3511 -0.9278
23584SOL    HW175437   2.318   0.804   9.110 -0.1012  1.3237  0.1222
23584SOL    HW275438   2.258   0.829   8.973 -0.0441 -0.3051 -0.2181
23585SOL     OW75439  10.485   0.165   9.857  0.1465 -0.5735 -0.2393
23585SOL    HW175440  10.433   0.142   9.780 -1.6634  0.8265  0.4615
23585SOL    HW275441  10.567   0.200   9.821  0.6749 -2.7885 -1.3897
23586SOL     OW75442   7.464   1.702   6.899 -0.2343 -0.6020 -0.3456
23586SOL    HW175443   7.470   1.723   6.992 -1.2436 -1.7412  0.0117
23586SOL    HW275444   7.553   1.712   6.866 -0.1308  1.2983  0.3872
23587SOL     OW75445   7.452   7.051   9.307 -0.2683  0.2256  0.7332
23587SOL    HW175446   7.422   7.097   9.229  0.5990  0.3132  0.4374
23587SOL    HW275447   7.486   6.968   9.274  0.5374  0.4564  0.9466
23588SOL     OW75448   2.914   5.344  10.056 -0.0307 -0.0321  0.5027
23588SOL    HW175449   2.847   5.411  10.070 -0.8628 -0.9465  1.0258
23588SOL    HW275450   2.968   5.347  10.135 -1.0172 -1.0180  1.2421
23589SOL     OW75451   3.905   5.316   4.021 -0.4257 -0.0403  0.1536
23589SOL    HW175452   3.842   5.259   3.976 -0.1784  0.1359 -0.4250
23589SOL    HW275453   3.935   5.265   4.095 -0.6322 -0.4449 -0.0383
23590SOL     OW75454   4.195   0.607   5.490 -0.1891 -0.2007  0.8190
23590SOL    HW175455   4.272   0.569   5.447 -1.0857  0.0311 -1.1100
23590SOL    HW275456   4.125   0.599   5.425 -0.4546  4.9178  0.1053
23591SOL     OW75457   9.571   2.724   7.975 -0.2340  0.1009  0.2709
23591SOL    HW175458   9.657   2.742   7.937  0.8341 -1.4980  1.7922
23591SOL    HW275459   9.523   2.678   7.906  0.6392 -0.2411 -0.1178
23592SOL     OW75460   8.846   4.791   0.273 -0.3936  0.5095  0.6603
23592SOL    HW175461   8.834   4.778   0.179 -0.2453 -1.3825  0.8668
23592SOL    HW275462   8.818   4.708   0.313  2.3366  0.1506  2.0449
23593SOL     OW75463   7.898   7.198   5.332 -0.1350  0.4311 -0.1592
23593SOL    HW175464   7.872   7.212   5.423 -2.4146 -0.7694 -0.5647
23593SOL    HW275465   7.964   7.266   5.316  0.5332  0.5036  2.4341
23594SOL     OW75466   4.365  11.587   6.491 -0.1549  0.0768  0.1190
23594SOL    HW175467   4.349  11.504   6.534  0.7272 -0.3106 -0.2915
23594SOL    HW275468   4.459  11.591   6.477  0.0210  1.7922  1.4070
23595SOL     OW75469   1.544   0.950   6.007  0.1070  0.4039  0.1360
23595SOL    HW175470   1.518   0.883   5.943  1.6354 -0.3432  0.2626
23595SOL    HW275471   1.462   0.975   6.049 -0.8565  0.4926 -1.6950
23596SOL     OW75472   0.084   8.183   4.093  0.2141 -0.2943  0.3973
23596SOL    HW175473   0.156   8.175   4.031 -0.6804  0.3466 -0.7759
23596SOL    HW275474   0.125   8.211   4.174  1.2237  0.7002 -0.4239
23597SOL     OW75475  10.388   2.135   7.912  0.1324 -0.1750  0.2884
23597SOL    HW175476  10.448   2.077   7.958 -2.0844 -1.6487  1.4920
23597SOL    HW275477  10.311   2.141   7.969 -0.8744  1.6729 -1.1389
23598SOL     OW75478   8.644   9.422  10.779  0.6666 -0.8435 -0.3351
23598SOL    HW175479   8.600   9.507  10.774  1.5664 -0.3754 -0.6846
23598SOL    HW275480   8.574   9.357  10.772 -0.0718 -0.1324  0.2914
23599SOL     OW75481   6.834   2.766   2.434  0.2613 -0.2137 -0.1921
23599SOL    HW175482   6.811   2.714   2.356  1.0612 -1.1717  0.1814
23599SOL    HW275483   6.804   2.854   2.413  0.6801 -0.3923 -1.7044
23600SOL     OW75484   1.622   5.785   7.705 -0.3391 -0.4243 -0.2809
23600SOL    HW175485   1.715   5.806   7.700 -0.1370 -0.8746  1.2732
23600SOL    HW275486   1.611   5.710   7.646  0.6069 -1.3812  0.7133
23601SOL     OW75487   6.586   8.122   0.828 -0.4887 -0.3590  0.2618
23601SOL    HW175488   6.595   8.215   0.811  1.0139 -0.1732  1.8199
23601SOL    HW275489   6.628   8.079   0.753 -0.7551  0.1993 -0.2142
23602SOL     OW75490   0.607   5.207   5.971  0.0914  0.4746  0.4158
23602SOL    HW175491   0.551   5.129   5.965  0.4662  0.3202 -2.0221
23602SOL    HW275492   0.678   5.190   5.909  0.7929  2.2861  0.6761
23603SOL     OW75493   2.886   6.409   1.650  0.0386  0.2753  0.9444
23603SOL    HW175494   2.859   6.501   1.649 -0.5711  0.1049  0.6962
23603SOL    HW275495   2.954   6.404   1.717 -0.7321  0.6917  1.7779
23604SOL     OW75496   7.296   6.126   7.306  0.2455  0.9329 -0.1816
23604SOL    HW175497   7.337   6.211   7.290  1.2499  1.4556  3.9691
23604SOL    HW275498   7.222   6.144   7.364 -0.9986 -0.8584 -1.0820
23605SOL     OW75499   5.787  11.510   2.921 -0.8004 -0.2939  0.0946
23605SOL    HW175500   5.878  11.501   2.894 -0.7320  1.2255 -0.2532
23605SOL    HW275501   5.737  11.460   2.856 -0.2152 -1.3282  0.4245
23606SOL     OW75502   1.783   9.259   9.914  0.2845 -0.0480  0.1820
23606SOL    HW175503   1.700   9.211   9.920  0.5890 -0.7771 -1.1604
23606SOL    HW275504   1.812   9.267  10.005 -0.9625 -0.2976  0.6260
23607SOL     OW75505   3.639   0.296   7.996  0.3013  0.2487 -0.1377
23607SOL    HW175506   3.602   0.347   8.068 -0.6127 -1.2060  0.4484
23607SOL    HW275507   3.587   0.321   7.920  0.2035  0.5644  0.0295
23608SOL     OW75508  11.893   4.898   5.191  0.2433  0.5434 -0.4729
23608SOL    HW175509  11.916   4.841   5.118  0.6140  1.5907 -1.2008
23608SOL    HW275510  11.832   4.961   5.153 -1.4913 -0.3432  0.7144
23609SOL     OW75511   3.769   0.499   2.703  0.0551 -0.4557 -0.6543
23609SOL    HW175512   3.777   0.583   2.748  0.0683  0.0393 -1.5538
23609SOL    HW275513   3.696   0.510   2.643 -0.8028 -1.5391  0.1560
23610SOL     OW75514   7.412   9.293   8.666  0.3769  0.4065 -0.2459
23610SOL    HW175515   7.465   9.366   8.635  2.2784 -0.5079  0.6301
23610SOL    HW275516   7.445   9.275   8.754 -2.2055  0.4608  0.8306
23611SOL     OW75517   0.011   7.995  11.758 -0.3117 -0.0004 -0.4521
23611SOL    HW175518   0.102   8.014  11.781 -0.2123  1.5272 -1.8713
23611SOL    HW275519  -0.010   7.915  11.805  1.0472  0.8245  1.7114
23612SOL     OW75520   0.261   4.800   8.196  0.1950 -1.5231  0.8675
23612SOL    HW175521   0.196   4.867   8.178  1.2577 -0.3989  1.0953
23612SOL    HW275522   0.343   4.836   8.163  0.9984 -2.1776  2.0600
23613SOL     OW75523   0.498   8.128   1.369 -0.0247  0.4408 -0.4894
23613SOL    HW175524   0.572   8.079   1.336  0.3798  0.5395  0.2490
23613SOL    HW275525   0.536   8.205   1.412 -0.1119 -1.5547  3.6993
23614SOL     OW75526   9.024   1.989   2.330 -0.0109  0.0326 -0.5389
23614SOL    HW175527   8.987   1.913   2.376  0.4147  0.0107 -0.2277
23614SOL    HW275528   9.068   2.039   2.399 -1.4786  1.3182 -0.4798
23615SOL     OW75529   3.215   1.182   1.166  0.2930 -0.5115  0.5856
23615SOL    HW175530   3.126   1.162   1.195  0.2312 -0.4654  0.4295
23615SOL    HW275531   3.227   1.131   1.086 -0.1777  0.7051 -0.2953
23616SOL     OW75532   9.211   9.318   3.360 -0.3184 -0.2255 -0.0630
23616SOL    HW175533   9.150   9.261   3.312 -1.6249  1.0413  0.0100
23616SOL    HW275534   9.205   9.289   3.451  1.1402 -1.7508 -0.4117
23617SOL     OW75535   7.621  11.399   4.461  0.2252  0.0860  0.3796
23617SOL    HW175536   7.661  11.459   4.525  0.7812 -0.9333  1.0297
23617SOL    HW275537   7.678  11.322   4.462 -1.2226 -1.0304  0.6046
23618SOL     OW75538   9.946   0.394   0.443  0.2611  0.1372  0.0261
23618SOL    HW175539   9.990   0.382   0.358  1.1256 -0.0662  0.4940
23618SOL    HW275540   9.910   0.482   0.439  0.4922  0.2150 -0.4659
23619SOL     OW75541   3.041  11.405  10.144 -0.2595 -0.3876 -0.2504
23619SOL    HW175542   3.116  11.415  10.202 -1.1763 -0.5952  1.0055
23619SOL    HW275543   3.077  11.364  10.065  1.4599  2.1153 -0.8620
23620SOL     OW75544  11.081   4.331  11.717 -0.7842  0.2464 -0.6822
23620SOL    HW175545  11.161   4.370  11.752  0.1051 -1.0556 -1.1747
23620SOL    HW275546  11.033   4.302  11.795  0.8927 -2.0723 -0.3802
23621SOL     OW75547   2.592   9.892  10.398  0.1158 -0.1863  0.1196
23621SOL    HW175548   2.553   9.896  10.311 -0.1603 -2.0499  0.1302
23621SOL    HW275549   2.523   9.857  10.454  0.6075  0.0527  0.8893
23622SOL     OW75550   5.679  11.876  11.082 -0.0405 -0.1529  0.3592
23622SOL    HW175551   5.769  11.891  11.054  0.8707 -3.3575  1.1808
23622SOL    HW275552   5.631  11.954  11.052  2.7408  1.1423 -1.0800
23623SOL     OW75553   5.617   5.606   5.461 -0.7817 -0.3104 -0.3244
23623SOL    HW175554   5.604   5.555   5.542 -0.3159 -0.6882 -0.4838
23623SOL    HW275555   5.647   5.691   5.492 -2.1834  0.1044 -0.0193
23624SOL     OW75556  11.401   9.480   2.631 -0.4816 -0.7463 -0.6339
23624SOL    HW175557  11.323   9.447   2.586  0.1875 -2.4475 -0.5928
23624SOL    HW275558  11.474   9.453   2.575  0.1392  0.1479 -0.2746
23625SOL     OW75559  10.388   5.210   1.264  0.3893  0.0071  0.0478
23625SOL    HW175560  10.375   5.218   1.170 -1.0676  0.1309  0.2328
23625SOL    HW275561  10.478   5.238   1.279  0.3800  0.7458 -1.2084
23626SOL     OW75562   9.583   6.322  10.704  0.5492 -0.1424  0.4259
23626SOL    HW175563   9.629   6.309  10.787  2.9822  3.1064 -0.2079
23626SOL    HW275564   9.492   6.335  10.728  0.6208 -2.3330  2.2028
23627SOL     OW75565   6.416   4.984  10.155  0.3151 -0.0184 -0.3260
23627SOL    HW175566   6.407   4.949  10.066 -2.7232  1.7193 -0.8706
23627SOL    HW275567   6.458   4.914  10.205  1.9859 -1.1132 -3.0435
23628SOL     OW75568  10.936   0.509  10.458 -0.8238  0.3740 -0.0881
23628SOL    HW175569  10.891   0.449  10.518  0.2874  0.7501  1.1706
23628SOL    HW275570  10.876   0.583  10.450 -1.0629  0.2487  0.4588
23629SOL     OW75571   9.029   3.274   3.422  0.1376  0.0576 -0.3343
23629SOL    HW175572   9.124   3.281   3.431  0.1983  0.5221 -1.2622
23629SOL    HW275573   8.996   3.270   3.512  1.0217  0.0537 -0.0079
23630SOL     OW75574   8.998   5.053   8.911 -0.1210 -0.0037  0.7401
23630SOL    HW175575   9.055   4.977   8.923  1.2147  0.1784 -3.0605
23630SOL    HW275576   9.015   5.109   8.987  3.1017 -0.9754  0.8572
23631SOL     OW75577   9.197  10.233  11.513  0.1621  0.0791 -0.1634
23631SOL    HW175578   9.222  10.312  11.465  1.5012 -0.7407 -0.8686
23631SOL    HW275579   9.203  10.163  11.449 -0.1207 -0.7345  0.6793
23632SOL     OW75580   7.946   2.510   4.838  0.6235 -0.3480 -0.4885
23632SOL    HW175581   7.993   2.592   4.823 -1.0749  0.8714  0.5141
23632SOL    HW275582   7.908   2.488   4.753  0.5550  0.2546 -0.6192
23633SOL     OW75583   3.521   4.837   1.219  0.0217 -0.3083  0.1641
23633SOL    HW175584   3.503   4.867   1.308 -1.6840  1.5529 -0.7118
23633SOL    HW275585   3.446   4.867   1.168  1.0808 -1.0559 -1.9780
23634SOL     OW75586   2.235   9.309   7.101 -0.0831 -0.0872 -0.0204
23634SOL    HW175587   2.324   9.345   7.093 -0.7638  1.6645 -0.3062
23634SOL    HW275588   2.180   9.386   7.114 -1.5423 -1.1682  0.4334
23635SOL     OW75589  10.274   0.497   0.144 -0.0313 -0.3139  0.1121
23635SOL    HW175590  10.326   0.568   0.181 -0.6160 -0.4208  1.1738
23635SOL    HW275591  10.332   0.421   0.148  0.5265  0.0502 -0.8481
23636SOL     OW75592   2.389   5.946  11.622 -0.4004 -0.6207 -0.6024
23636SOL    HW175593   2.328   5.879  11.590  0.0304 -0.6490 -1.3859
23636SOL    HW275594   2.475   5.904  11.618 -0.2980 -0.5003  0.2685
23637SOL     OW75595  11.645   0.161   6.857  0.6992  0.4877  0.2473
23637SOL    HW175596  11.673   0.088   6.913  0.8920  1.0597  0.9196
23637SOL    HW275597  11.552   0.145   6.841  1.1029 -0.7924 -1.0031
23638SOL     OW75598   3.876   0.809   0.564 -0.0122 -0.2292 -0.4740
23638SOL    HW175599   3.880   0.888   0.619  0.0518 -1.1277  0.8484
23638SOL    HW275600   3.813   0.831   0.496  1.4412  1.6847 -1.3162
23639SOL     OW75601   6.388   7.486   6.048 -0.2703  0.8372 -0.0956
23639SOL    HW175602   6.408   7.413   6.107 -0.8050  0.4666 -0.3685
23639SOL    HW275603   6.326   7.540   6.097 -0.3967  0.7468 -0.1543
23640SOL     OW75604   2.331   0.906   7.044 -0.0066  0.0796 -0.0932
23640SOL    HW175605   2.314   0.954   7.125 -0.8376  0.0026 -0.2126
23640SOL    HW275606   2.313   0.969   6.974 -2.0372 -0.6405 -0.2765
23641SOL     OW75607   6.650   4.197   0.434 -0.0722 -0.1500  0.0629
23641SOL    HW175608   6.701   4.130   0.480  2.5957 -0.1506 -2.6199
23641SOL    HW275609   6.624   4.155   0.352 -2.1204  0.7962  0.1513
23642SOL     OW75610  10.091  10.188   2.430 -0.2524  0.1433 -0.1555
23642SOL    HW175611  10.084  10.150   2.343 -0.1225 -3.6569  1.3248
23642SOL    HW275612  10.182  10.219   2.435  0.3309 -1.3854 -0.7524
23643SOL     OW75613   4.376   8.932   0.084  0.1065  0.4091 -0.4914
23643SOL    HW175614   4.345   8.875   0.013 -0.1778 -0.5070  0.3542
23643SOL    HW275615   4.430   8.998   0.039  1.2977 -1.0994 -1.3990
23644SOL     OW75616   2.145   0.455   1.326 -0.0725  0.2609  0.1652
23644SOL    HW175617   2.193   0.479   1.405 -2.9432 -0.2191  2.2244
23644SOL    HW275618   2.092   0.380   1.353 -2.3240  1.0504 -1.7474
23645SOL     OW75619  11.196   2.875   3.448 -0.2083 -0.1492 -0.0491
23645SOL    HW175620  11.220   2.954   3.400 -1.2266  1.1969  1.5271
23645SOL    HW275621  11.106   2.856   3.420 -0.6140  0.3342  0.8586
23646SOL     OW75622   0.017   5.326   5.392  0.5876 -0.0902 -0.4852
23646SOL    HW175623  -0.009   5.297   5.304 -1.8564 -1.5223  0.6102
23646SOL    HW275624  -0.050   5.290   5.450  2.5123  0.1690  2.0880
23647SOL     OW75625   8.906  11.506   0.941 -0.1765  0.4514  0.1405
23647SOL    HW175626   8.847  11.542   1.007  0.1899  1.8345 -0.2625
23647SOL    HW275627   8.875  11.541   0.858 -0.2830 -0.8231 -0.3815
23648SOL     OW75628  10.581  10.814   4.597 -0.6162 -0.2352 -0.1607
23648SOL    HW175629  10.576  10.872   4.674  0.4398 -0.4455  0.0835
23648SOL    HW275630  10.495  10.821   4.556 -0.8504  0.6941  0.4584
23649SOL     OW75631   3.391   6.086   4.812  0.2214 -0.3335 -0.6400
23649SOL    HW175632   3.444   6.105   4.734  0.5917 -1.9171 -0.8088
23649SOL    HW275633   3.451   6.041   4.872 -0.4603 -0.5137 -0.0837
23650SOL     OW75634   4.002   3.823   9.078  0.1027 -0.5853 -0.2073
23650SOL    HW175635   3.929   3.876   9.112  2.0570 -0.3443  4.4396
23650SOL    HW275636   3.975   3.797   8.990 -4.9449  0.5766  0.7051
23651SOL     OW75637   8.585   7.355   2.931  0.0854  0.0574  0.2818
23651SOL    HW175638   8.501   7.321   2.961  0.1811 -1.2190 -0.8162
23651SOL    HW275639   8.611   7.418   2.999 -1.5650  0.2085  0.8152
23652SOL     OW75640   5.893   9.693   2.886  0.2445 -0.2232  0.2819
23652SOL    HW175641   5.816   9.653   2.927 -0.0298 -1.1093 -1.0512
23652SOL    HW275642   5.961   9.626   2.890  0.5567  0.0893  0.2825
23653SOL     OW75643   5.557   3.233   6.314 -0.3320  0.0516  0.4744
23653SOL    HW175644   5.483   3.181   6.281 -1.2314  0.3808  1.9004
23653SOL    HW275645   5.624   3.168   6.337  1.0636 -0.1599 -3.4265
23654SOL     OW75646   8.937   4.383   4.929 -0.1986 -0.2598  0.6977
23654SOL    HW175647   9.031   4.401   4.934 -0.3566  1.6589 -1.4784
23654SOL    HW275648   8.899   4.441   4.996  0.0399  0.3426  0.3212
23655SOL     OW75649   6.007   3.386   6.889  0.1433  0.0673 -0.1883
23655SOL    HW175650   5.947   3.362   6.818 -0.1797 -3.5999  1.0889
23655SOL    HW275651   6.091   3.349   6.863  0.5633  0.6162  0.3683
23656SOL     OW75652   2.609   8.844   9.909 -0.7666  0.1356  0.0354
23656SOL    HW175653   2.598   8.882   9.822 -0.2117  1.3661  0.4763
23656SOL    HW275654   2.553   8.767   9.909  0.8397 -1.1345 -2.1424
23657SOL     OW75655  11.568   5.176   3.119  0.4762  0.0682  0.0856
23657SOL    HW175656  11.636   5.113   3.143  0.2034 -1.5095 -2.8482
23657SOL    HW275657  11.487   5.126   3.121 -0.3323  1.3486  1.2852
23658SOL     OW75658   5.889  10.017   8.268 -0.0446 -0.2598  0.2653
23658SOL    HW175659   5.958   9.960   8.302  0.1698 -0.1158  0.0751
23658SOL    HW275660   5.936  10.092   8.231 -0.3125 -0.0860  0.2776
23659SOL     OW75661  11.924   7.673   4.461 -0.1510 -0.3903  0.0459
23659SOL    HW175662  11.990   7.647   4.524  1.3219 -0.2653 -1.3829
23659SOL    HW275663  11.968   7.736   4.404 -1.2757 -0.8288 -1.3857
23660SOL     OW75664   9.587   7.243   5.565  0.4669  0.7498 -0.8412
23660SOL    HW175665   9.534   7.317   5.595  0.5944  0.7135 -0.5161
23660SOL    HW275666   9.562   7.171   5.623  1.3128  0.8937 -0.2707
23661SOL     OW75667   2.242   2.348   4.585 -0.1498  0.8498 -0.0085
23661SOL    HW175668   2.328   2.338   4.544 -0.2164  0.4942 -0.0669
23661SOL    HW275669   2.217   2.258   4.610  0.0971  1.0947  1.2157
23662SOL     OW75670   7.765   1.982   4.803 -0.2336  0.0092 -0.4997
23662SOL    HW175671   7.800   1.973   4.714 -0.2910  0.0759 -0.5292
23662SOL    HW275672   7.726   1.897   4.822  1.5871 -0.7217  0.2478
23663SOL     OW75673   3.643  11.735   8.541 -0.0545  0.4695 -0.4458
23663SOL    HW175674   3.646  11.830   8.557 -1.6565  0.2533  1.5968
23663SOL    HW275675   3.730  11.704   8.565  0.1840  1.3064 -0.1743
23664SOL     OW75676  11.572   9.393   2.855  1.0121  0.3701  0.1208
23664SOL    HW175677  11.601   9.310   2.817 -0.5319 -0.2052  0.1262
23664SOL    HW275678  11.517   9.432   2.788 -0.3729  0.1428  1.0838
23665SOL     OW75679   1.307   5.468   1.289 -1.0206 -0.0279  0.1670
23665SOL    HW175680   1.376   5.502   1.347 -0.1860 -2.4322  0.7259
23665SOL    HW275681   1.298   5.534   1.221  0.5911  1.1832  1.0484
23666SOL     OW75682   9.628   1.458   6.622  0.0291 -0.1458 -0.0168
23666SOL    HW175683   9.715   1.428   6.650  0.9486  1.9094 -0.5116
23666SOL    HW275684   9.645   1.537   6.571 -2.1517  0.2848 -0.1615
23667SOL     OW75685   8.753   3.444   8.439  0.1352 -0.4289  0.1594
23667SOL    HW175686   8.828   3.395   8.473  1.4616  1.9426  0.9152
23667SOL    HW275687   8.779   3.469   8.350 -0.2629 -0.5859 -0.0017
23668SOL     OW75688  10.158   1.670   2.207 -0.3248 -0.1587  0.0251
23668SOL    HW175689  10.149   1.751   2.257  0.3795 -0.9404  1.4762
23668SOL    HW275690  10.234   1.626   2.244 -0.5690 -1.3995 -0.8558
23669SOL     OW75691   3.278   2.019   6.817 -0.4151 -0.0496 -0.2504
23669SOL    HW175692   3.233   2.085   6.870 -2.8688 -2.6900  1.2601
23669SOL    HW275693   3.344   1.982   6.876 -0.2732 -0.1857 -0.4911
23670SOL     OW75694  10.915   1.435   8.756  0.1589 -0.2525  0.2287
23670SOL    HW175695  10.984   1.369   8.767 -0.6322 -0.8025  2.3622
23670SOL    HW275696  10.960   1.519   8.762  0.8972 -0.5896 -0.4198
23671SOL     OW75697   0.003   0.792  11.761 -0.2774  0.6150 -0.2013
23671SOL    HW175698  -0.074   0.848  11.749 -1.1409 -0.5555 -0.3611
23671SOL    HW275699  -0.034   0.705  11.778  0.9880  0.5581  2.6422
23672SOL     OW75700   1.265  10.690   9.263  0.1245  0.4894  0.3223
23672SOL    HW175701   1.280  10.769   9.316 -1.4825  0.2825  1.1334
23672SOL    HW275702   1.346  10.679   9.213  1.0429  1.6686  1.4820
23673SOL     OW75703   4.276   7.461   1.256 -0.4170 -0.1097 -0.1721
23673SOL    HW175704   4.256   7.450   1.163 -0.2276 -0.2683 -0.1938
23673SOL    HW275705   4.190   7.471   1.298 -0.4266  1.9188 -0.6012
23674SOL     OW75706   5.267   2.617  11.829 -0.1164 -0.0794  0.9415
23674SOL    HW175707   5.291   2.693  11.882 -0.0380  0.4665  0.1306
23674SOL    HW275708   5.348   2.590  11.786 -0.1278 -0.6727  1.2810
23675SOL     OW75709   2.223   2.151  11.323  0.0768 -0.4604 -0.7592
23675SOL    HW175710   2.133   2.165  11.293 -0.0646 -0.8068 -0.5074
23675SOL    HW275711   2.273   2.223  11.285 -0.6793  0.9130  0.7772
23676SOL     OW75712   1.492   8.268   1.955  0.0271 -0.6386 -0.1027
23676SOL    HW175713   1.569   8.324   1.944 -0.3512  0.7445  3.0430
23676SOL    HW275714   1.488   8.217   1.875  2.0397  1.8635 -1.9826
23677SOL     OW75715  11.619  10.392  10.423  0.2451  0.8084  0.3101
23677SOL    HW175716  11.594  10.338  10.347  0.4821 -0.8783  1.3824
23677SOL    HW275717  11.646  10.475  10.385  0.2270  0.0584 -1.4528
23678SOL     OW75718  11.230   0.964  10.471 -0.0351  0.3528  0.1688
23678SOL    HW175719  11.293   1.034  10.490  0.6723  0.2406 -1.5544
23678SOL    HW275720  11.273   0.912  10.402 -2.2543  0.6399 -1.5263
23679SOL     OW75721   1.432   2.903   4.893  0.1590 -0.7329  0.5854
23679SOL    HW175722   1.369   2.973   4.913  0.0872 -0.3548 -0.8190
23679SOL    HW275723   1.381   2.839   4.843  0.7581 -0.6447 -0.1637
23680SOL     OW75724   8.614   0.746   3.467 -0.3760  0.6195  0.1328
23680SOL    HW175725   8.633   0.657   3.435 -1.1425  0.9761 -1.4241
23680SOL    HW275726   8.681   0.800   3.426 -0.6950  0.9284  0.0111
23681SOL     OW75727   8.794   3.169   8.663  0.7115 -0.2647 -0.2528
23681SOL    HW175728   8.831   3.089   8.702  0.1938 -0.1967  0.4100
23681SOL    HW275729   8.827   3.170   8.574  0.4249 -1.4292 -0.3918
23682SOL     OW75730   1.816   0.226   0.384 -0.3857 -0.3646 -0.2918
23682SOL    HW175731   1.842   0.146   0.428  2.6709 -0.3533 -1.8189
23682SOL    HW275732   1.829   0.209   0.291  2.1183  2.3477 -0.5897
23683SOL     OW75733   8.718   0.967  11.276  0.5510 -0.0147 -0.5197
23683SOL    HW175734   8.787   0.923  11.227  0.7570  0.6196 -0.8162
23683SOL    HW275735   8.642   0.967  11.217  0.6536  0.3213 -0.6540
23684SOL     OW75736  11.778   1.420   1.797 -0.0639 -0.4843  0.0966
23684SOL    HW175737  11.724   1.426   1.876  0.1393 -0.1992  0.2129
23684SOL    HW275738  11.807   1.509   1.780 -0.9883 -0.3528 -0.9298
23685SOL     OW75739   5.920  10.266   4.956  0.2467  0.0437  0.2289
23685SOL    HW175740   5.847  10.281   4.896 -0.3403 -0.4010  0.8055
23685SOL    HW275741   5.951  10.179   4.934  0.2810  0.0361  0.3081
23686SOL     OW75742   6.321   5.220   6.433  0.2944  0.2371 -0.0050
23686SOL    HW175743   6.233   5.185   6.442  0.4959  0.0330  1.4494
23686SOL    HW275744   6.377   5.143   6.420  0.3571  0.2938 -0.0714
23687SOL     OW75745  11.972   5.067   6.806 -0.4054 -0.5419  0.0208
23687SOL    HW175746  11.972   5.151   6.761 -0.5321 -0.8774 -0.6053
23687SOL    HW275747  12.018   5.008   6.747  0.7239 -0.6475  0.9657
23688SOL     OW75748   6.327   2.542   7.167 -0.3859 -0.1789 -0.7354
23688SOL    HW175749   6.274   2.615   7.134 -0.9935  1.3647  3.0822
23688SOL    HW275750   6.267   2.467   7.167 -1.9209  0.9406  1.1380
23689SOL     OW75751  11.539   3.679   8.170  0.0814 -0.2637 -0.1138
23689SOL    HW175752  11.589   3.601   8.146 -0.8014 -0.2660 -2.1598
23689SOL    HW275753  11.450   3.647   8.185  0.1162  0.1002  0.9399
23690SOL     OW75754  10.251  11.359   2.848 -0.3560  0.2008  0.5364
23690SOL    HW175755  10.175  11.316   2.885 -0.1596 -0.7848 -0.1745
23690SOL    HW275756  10.216  11.420   2.783 -0.5353 -0.4597  0.0050
23691SOL     OW75757  10.027   2.325   7.936 -0.1045  0.3330  0.1634
23691SOL    HW175758  10.058   2.261   8.000 -0.1969  0.0826 -0.0401
23691SOL    HW275759  10.097   2.329   7.870  0.1331  0.8232  0.4374
23692SOL     OW75760   1.170   3.282   8.549 -0.5590 -0.9490  0.4526
23692SOL    HW175761   1.104   3.243   8.491 -1.5397 -0.7488  1.4118
23692SOL    HW275762   1.222   3.208   8.579 -0.0618 -1.0624 -0.6436
23693SOL     OW75763  10.486   2.434   0.012 -0.0246  0.3806  0.0649
23693SOL    HW175764  10.508   2.512  -0.038 -1.6472 -0.2709 -1.7710
23693SOL    HW275765  10.432   2.466   0.084 -1.8376  0.8764 -1.4465
23694SOL     OW75766   0.035   5.927   8.369  0.1746 -0.1218  0.0989
23694SOL    HW175767  -0.014   5.999   8.410 -0.3888  0.2730 -1.2153
23694SOL    HW275768  -0.010   5.848   8.399 -0.6392  0.1902 -0.2616
23695SOL     OW75769   6.480  11.027   6.933  0.0170 -0.0318 -0.0066
23695SOL    HW175770   6.544  11.021   6.862  0.3366 -3.1706  0.4044
23695SOL    HW275771   6.395  11.025   6.889  0.1908  0.2626 -0.3701
23696SOL     OW75772   8.045   1.608   6.413  0.1570 -0.1502  0.1996
23696SOL    HW175773   8.044   1.642   6.502  0.0528  1.4616 -0.3794
23696SOL    HW275774   7.958   1.628   6.378  0.2846 -0.5137 -0.3479
23697SOL     OW75775   9.726   0.169  11.299 -0.2347 -0.0390 -0.0232
23697SOL    HW175776   9.721   0.180  11.204  2.9706 -0.0716 -0.2919
23697SOL    HW275777   9.734   0.258  11.333  0.8674 -0.1318 -0.0118
23698SOL     OW75778   0.859   3.906   6.514 -0.4280  0.2091  0.3644
23698SOL    HW175779   0.772   3.866   6.514  0.1306 -1.1146 -0.6062
23698SOL    HW275780   0.859   3.962   6.436  0.0523 -1.0018 -0.5547
23699SOL     OW75781   0.574   3.492   6.170 -0.1359  0.0754  0.0039
23699SOL    HW175782   0.623   3.511   6.090  0.8202 -3.5093 -0.4590
23699SOL    HW275783   0.533   3.407   6.153 -1.4045  0.0383  2.7011
23700SOL     OW75784   9.797   2.208   2.483  0.0158 -0.0260  0.4560
23700SOL    HW175785   9.738   2.165   2.546 -0.0059 -1.6514 -0.5999
23700SOL    HW275786   9.751   2.287   2.457 -0.3419  0.2492  1.8646
23701SOL     OW75787   2.382   7.355   3.812 -0.4059  0.2406  0.5418
23701SOL    HW175788   2.442   7.429   3.812 -2.1642  1.7494  1.1797
23701SOL    HW275789   2.366   7.338   3.905 -1.0483 -0.0749  0.3767
23702SOL     OW75790   8.374   4.176   9.317 -0.2687 -0.4779 -0.0054
23702SOL    HW175791   8.432   4.246   9.347  0.1108 -0.7976  0.0272
23702SOL    HW275792   8.418   4.139   9.240 -0.1734 -1.0501  0.3154
23703SOL     OW75793  10.168   5.733   5.561 -0.3703  0.2127 -0.5391
23703SOL    HW175794  10.171   5.778   5.646 -1.2108  1.4081 -1.1146
23703SOL    HW275795  10.098   5.668   5.572 -0.0634 -0.0560 -0.1306
23704SOL     OW75796   2.173   4.570  11.043  0.1471  0.2211 -0.1029
23704SOL    HW175797   2.084   4.560  11.076  0.4020  1.1858  0.9516
23704SOL    HW275798   2.168   4.642  10.980 -0.0653 -0.6509 -1.1023
23705SOL     OW75799   3.083   1.737   2.071 -0.3537  0.2464  0.7518
23705SOL    HW175800   3.071   1.678   2.145  1.6867 -2.0983 -0.6161
23705SOL    HW275801   3.015   1.711   2.008  1.2052 -1.6232 -0.3063
23706SOL     OW75802   2.497   4.380   4.369  0.2395 -0.2074 -0.9242
23706SOL    HW175803   2.511   4.430   4.289  0.1154 -2.1125 -2.2250
23706SOL    HW275804   2.436   4.311   4.344 -0.2430 -0.5475  0.9793
23707SOL     OW75805   9.610   7.477   6.006 -0.6415 -0.6220 -0.2913
23707SOL    HW175806   9.561   7.555   6.032  0.8400  0.6400 -1.1069
23707SOL    HW275807   9.644   7.499   5.919  1.1678 -1.5073  0.1521
23708SOL     OW75808   0.640   7.410   4.940 -0.8061  0.3819  0.3711
23708SOL    HW175809   0.643   7.334   4.998  2.0190  1.2572  1.5206
23708SOL    HW275810   0.646   7.373   4.852 -0.0025 -0.7571  0.8787
23709SOL     OW75811   2.377   8.270  10.403  0.2295  0.0261  0.6143
23709SOL    HW175812   2.319   8.193  10.397 -0.0628  0.2809  0.0636
23709SOL    HW275813   2.374   8.308  10.315 -0.5703  1.3528  1.1964
23710SOL     OW75814  11.982   6.019   4.669 -0.5481 -1.0114  0.3530
23710SOL    HW175815  12.038   5.999   4.744 -0.3443 -0.4811  0.3488
23710SOL    HW275816  11.919   5.948   4.666  0.9125 -2.3483 -0.4221
23711SOL     OW75817   2.032  10.094   8.500 -0.1340  0.2635  0.8392
23711SOL    HW175818   2.026  10.068   8.592  0.4165 -0.1202  0.7689
23711SOL    HW275819   2.126  10.106   8.485 -0.3166  1.9437  0.7678
23712SOL     OW75820   3.762   0.019  10.421  0.5882  0.0505  0.1137
23712SOL    HW175821   3.785  -0.062  10.465  0.0954 -1.0512 -1.5566
23712SOL    HW275822   3.845   0.067  10.414  0.8014 -0.0636  1.5059
23713SOL     OW75823   6.321   3.145   2.777 -0.0221 -0.1855  1.0156
23713SOL    HW175824   6.416   3.132   2.772 -0.1758 -1.4343 -3.3478
23713SOL    HW275825   6.285   3.077   2.719 -3.5267  0.8779  1.6985
23714SOL     OW75826   3.578  10.461   9.150 -0.0182  0.2200 -0.1113
23714SOL    HW175827   3.570  10.551   9.182  0.2993 -0.1505  1.0798
23714SOL    HW275828   3.582  10.408   9.230  2.0125 -0.6629 -0.7421
23715SOL     OW75829   1.943  11.835   8.962  0.1434 -0.1341  0.2216
23715SOL    HW175830   1.937  11.786   8.880  1.4892 -0.0323  0.0362
23715SOL    HW275831   1.902  11.778   9.027 -0.9679 -0.2012 -0.5177
23716SOL     OW75832   6.844  11.826   7.136  0.2077  0.3171  0.1588
23716SOL    HW175833   6.885  11.846   7.220 -0.4570  0.6694  0.4068
23716SOL    HW275834   6.793  11.747   7.153  0.1821  0.3113  0.0529
23717SOL     OW75835  10.250   8.535   0.359  0.5987 -0.3774 -0.3753
23717SOL    HW175836  10.253   8.513   0.266 -0.0184  0.2808 -0.5594
23717SOL    HW275837  10.253   8.451   0.404 -2.3705 -0.9713 -1.0701
23718SOL     OW75838   1.338   7.554  10.094  0.3261 -0.2830 -0.0186
23718SOL    HW175839   1.309   7.509  10.015  0.0083 -2.1769  1.1002
23718SOL    HW275840   1.265   7.611  10.118  0.5293  0.4901 -1.2033
23719SOL     OW75841   1.105   4.807   3.840  0.4198  0.2967 -0.2822
23719SOL    HW175842   1.172   4.875   3.846  2.0311 -1.1699 -0.6573
23719SOL    HW275843   1.101   4.786   3.746 -0.0601 -0.0945 -0.1804
23720SOL     OW75844  11.344   3.791  11.276 -0.0708 -0.3392  0.3953
23720SOL    HW175845  11.351   3.858  11.208  1.4832 -0.8909 -0.0314
23720SOL    HW275846  11.369   3.709  11.233  0.0491 -0.8536  1.3999
23721SOL     OW75847   5.419   1.400   0.050 -0.2305  0.2344  0.2272
23721SOL    HW175848   5.371   1.370   0.127  2.1535  1.2170  2.2289
23721SOL    HW275849   5.478   1.328   0.029 -2.3859 -0.9810 -2.2386
23722SOL     OW75850   2.981   7.011   1.748  0.2907  0.3890 -0.3276
23722SOL    HW175851   3.052   7.044   1.804  1.2474 -1.0323 -0.6417
23722SOL    HW275852   2.901   7.029   1.797  1.1343 -1.7463  2.0629
23723SOL     OW75853   9.205  10.155   8.298 -0.3773  0.0396 -0.4199
23723SOL    HW175854   9.188  10.248   8.315  0.3039  0.0467  0.2907
23723SOL    HW275855   9.281  10.134   8.353 -1.6439 -1.4023  0.8653
23724SOL     OW75856   7.514   2.407   1.902  0.1041  0.0336  0.1451
23724SOL    HW175857   7.543   2.479   1.846  0.4343  1.2140  1.7707
23724SOL    HW275858   7.586   2.344   1.900  0.1792  0.1258 -0.5869
23725SOL     OW75859   1.754   8.141   8.266  0.3255  0.3160  0.6808
23725SOL    HW175860   1.660   8.122   8.277  0.3396 -0.6658 -0.5783
23725SOL    HW275861   1.768   8.130   8.172  2.4422 -3.2101  1.2275
23726SOL     OW75862  10.259   6.892   7.075  0.1288 -0.3245 -0.1071
23726SOL    HW175863  10.228   6.865   7.161  0.1448  0.6655  0.2235
23726SOL    HW275864  10.187   6.871   7.015 -0.5042  0.3917  0.3864
23727SOL     OW75865   3.827   7.548  10.731 -0.0505 -0.0968  0.0657
23727SOL    HW175866   3.901   7.495  10.762 -0.4566 -1.1682 -0.7245
23727SOL    HW275867   3.862   7.637  10.726  0.8486 -0.3893  0.7973
23728SOL     OW75868   2.780   0.800  11.348  0.0001  0.8167 -0.1403
23728SOL    HW175869   2.800   0.874  11.405 -0.0431 -0.8118  2.1480
23728SOL    HW275870   2.686   0.805  11.334  0.0778  1.4766 -0.4526
23729SOL     OW75871   3.653   4.660   4.686  0.5639  0.3657 -0.3759
23729SOL    HW175872   3.579   4.617   4.644 -0.6442  0.7249  1.2792
23729SOL    HW275873   3.703   4.588   4.725  0.5971  0.1948 -0.7266
23730SOL     OW75874  10.485   7.150  10.956 -0.2228  0.2306  0.1364
23730SOL    HW175875  10.489   7.098  11.037 -0.9095 -1.2629 -0.7502
23730SOL    HW275876  10.566   7.128  10.910  0.1349  1.0296  0.3593
23731SOL     OW75877   9.859   6.443   7.368  0.2169 -0.3236  0.2599
23731SOL    HW175878   9.807   6.520   7.345 -0.8935 -0.5551  1.8216
23731SOL    HW275879   9.935   6.446   7.309 -0.9489  0.6861 -1.2657
23732SOL     OW75880   9.534   3.740   8.902 -0.0138  0.0051 -0.0723
23732SOL    HW175881   9.570   3.687   8.973 -2.9132 -0.6943  1.0275
23732SOL    HW275882   9.561   3.696   8.822  1.1672 -0.6796  0.6896
23733SOL     OW75883   2.655   1.409   3.329 -0.0870  0.1165  0.2289
23733SOL    HW175884   2.649   1.424   3.423  0.2085  1.3508  0.0687
23733SOL    HW275885   2.695   1.489   3.295 -0.2771 -0.2793 -0.9560
23734SOL     OW75886   2.411   4.735   0.977 -0.5733  0.0865 -0.1043
23734SOL    HW175887   2.364   4.653   0.960 -1.0975  0.8728 -3.0597
23734SOL    HW275888   2.344   4.803   0.965  0.2820  1.0341  0.3813
23735SOL     OW75889   3.256  10.328   1.038 -0.0804 -0.3236 -0.0305
23735SOL    HW175890   3.225  10.415   1.012 -2.4626 -0.8903  0.5894
23735SOL    HW275891   3.259  10.331   1.134 -1.1383 -1.1762  0.0473
23736SOL     OW75892   0.545   3.217   0.045  0.4033 -0.4811 -0.2037
23736SOL    HW175893   0.602   3.147   0.015 -0.0141 -0.4985 -0.9803
23736SOL    HW275894   0.466   3.208  -0.008  0.0099  0.0562  0.2762
23737SOL     OW75895   3.302   2.304   8.618 -0.1345  0.4769 -0.4471
23737SOL    HW175896   3.300   2.211   8.643 -0.7243  0.7488  0.5442
23737SOL    HW275897   3.346   2.348   8.691 -0.2502  1.0419 -0.7142
23738SOL     OW75898   0.579   5.589   6.103  0.6025 -0.2126  0.0987
23738SOL    HW175899   0.621   5.566   6.020 -0.1151 -0.2002 -0.2771
23738SOL    HW275900   0.516   5.519   6.119 -0.7137  0.8039 -0.4233
23739SOL     OW75901  11.630   9.610   0.026 -0.0271 -1.1530 -0.5063
23739SOL    HW175902  11.581   9.672   0.080  0.1561 -1.7997  0.4213
23739SOL    HW275903  11.564   9.550  -0.008 -0.0251 -1.3334 -0.1956
23740SOL     OW75904   8.687   5.246   0.519 -0.3958  0.0336  0.0425
23740SOL    HW175905   8.646   5.177   0.571 -3.1977  0.3621 -1.5271
23740SOL    HW275906   8.727   5.201   0.445 -0.3982 -0.0971  0.1218
23741SOL     OW75907   6.737   5.560   2.018  0.2350  0.2699 -0.4769
23741SOL    HW175908   6.809   5.556   2.081  0.2528 -1.4283 -0.5533
23741SOL    HW275909   6.776   5.600   1.940  0.4758  1.4521  0.2277
23742SOL     OW75910   9.162   8.388  11.767  0.7565 -0.1199 -0.9365
23742SOL    HW175911   9.228   8.349  11.823 -0.9145  0.5672  1.7042
23742SOL    HW275912   9.170   8.483  11.782  0.7462  0.1502 -2.4707
23743SOL     OW75913   1.499   6.337   0.698  0.0331 -0.3949  0.2980
23743SOL    HW175914   1.551   6.371   0.771 -0.7371 -0.6478  0.9819
23743SOL    HW275915   1.550   6.263   0.665  0.6211  0.0185  0.2608
23744SOL     OW75916   4.867   5.595   0.184  0.2941  0.0779 -0.8324
23744SOL    HW175917   4.900   5.672   0.231 -1.3147  1.2973 -1.5976
23744SOL    HW275918   4.915   5.522   0.221  1.0203  1.3106  0.7809
23745SOL     OW75919   1.413   7.138   8.271 -0.5978  0.1032 -0.5508
23745SOL    HW175920   1.450   7.189   8.343 -0.6346  0.9300 -1.0974
23745SOL    HW275921   1.487   7.088   8.237 -0.1494  1.0761 -1.0701
23746SOL     OW75922   8.158   8.108   0.460 -0.4053 -0.0165  0.1004
23746SOL    HW175923   8.107   8.058   0.523  1.6801 -2.0057  0.3213
23746SOL    HW275924   8.217   8.161   0.513 -1.1551  1.1282 -0.1717
23747SOL     OW75925   4.266   0.938   6.550 -0.1927 -0.4167 -0.5119
23747SOL    HW175926   4.328   1.011   6.551 -1.5715  0.8049 -0.1302
23747SOL    HW275927   4.231   0.937   6.461 -0.4584 -0.3635 -0.4084
23748SOL     OW75928   0.641   9.076   7.534 -0.1348  0.1188  0.1481
23748SOL    HW175929   0.653   8.998   7.589 -0.2851 -1.6261 -2.1537
23748SOL    HW275930   0.726   9.120   7.536  0.5344 -1.1362 -0.0067
23749SOL     OW75931   5.045   2.486   8.563  0.1281  0.7278  0.2567
23749SOL    HW175932   4.958   2.452   8.542  0.5535 -0.3192  0.1569
23749SOL    HW275933   5.063   2.551   8.496 -0.7419  1.2456  0.5095
23750SOL     OW75934   2.062   2.198   2.095 -0.0685 -0.4923 -0.0897
23750SOL    HW175935   2.113   2.118   2.086  0.0429 -0.4447  0.1069
23750SOL    HW275936   2.127   2.268   2.083 -0.1351 -0.4321 -0.0977
23751SOL     OW75937  10.732   3.467  10.925 -0.4872  0.7492  0.6548
23751SOL    HW175938  10.682   3.513  10.857 -0.8833 -0.6757 -0.0720
23751SOL    HW275939  10.822   3.496  10.912  0.0453 -1.7742 -2.6438
23752SOL     OW75940   8.573   3.914   6.907  0.2420  0.2695  0.1394
23752SOL    HW175941   8.521   3.845   6.866  0.2279  1.1359 -1.3697
23752SOL    HW275942   8.664   3.883   6.899  0.1448 -0.1842  0.7032
23753SOL     OW75943   3.192   0.912   7.827 -0.2799 -0.0789 -0.1142
23753SOL    HW175944   3.154   0.995   7.857 -1.0957 -0.3619 -0.3242
23753SOL    HW275945   3.286   0.924   7.834 -0.4194  0.4356  1.0113
23754SOL     OW75946   9.025   0.249   6.040 -0.2926  1.0871 -0.5530
23754SOL    HW175947   9.053   0.338   6.060 -2.4029  1.8742 -0.8899
23754SOL    HW275948   8.978   0.220   6.119  0.7219  0.0813 -0.2808
23755SOL     OW75949   1.528   7.776  11.035  0.1059 -0.5623  0.7041
23755SOL    HW175950   1.485   7.693  11.054  0.6488 -0.8178  0.8334
23755SOL    HW275951   1.483   7.810  10.958  1.8270 -2.4261 -1.2617
23756SOL     OW75952  11.588   6.633   4.038 -0.6945  0.1710 -0.1851
23756SOL    HW175953  11.497   6.650   4.015 -0.0517  2.5651 -1.3325
23756SOL    HW275954  11.628   6.720   4.042  1.5069 -0.8088  0.4060
23757SOL     OW75955   4.314   3.034  11.701 -0.2500  0.1704  0.4252
23757SOL    HW175956   4.243   3.092  11.728 -0.4445  0.3887 -0.5236
23757SOL    HW275957   4.305   3.027  11.606  0.9424  0.1350  0.3006
23758SOL     OW75958   6.535   4.633   8.023  0.5284 -0.0751  0.1815
23758SOL    HW175959   6.504   4.545   8.044  0.8298 -0.0565  0.7242
23758SOL    HW275960   6.624   4.621   7.991 -0.3565 -0.2457 -2.4738
23759SOL     OW75961   9.550   9.495  11.095  0.1403 -0.1189  0.3072
23759SOL    HW175962   9.635   9.537  11.110  0.2056 -0.3489  0.6120
23759SOL    HW275963   9.544   9.486  11.000  0.7638 -0.7068  0.3121
23760SOL     OW75964   2.516   9.331   8.352 -0.2351 -0.1143 -0.1672
23760SOL    HW175965   2.447   9.362   8.410  2.6414  0.0825  3.4578
23760SOL    HW275966   2.526   9.401   8.287 -0.7512  1.7410  1.6610
23761SOL     OW75967   6.584   1.090  11.759  0.6484  0.1588 -0.5333
23761SOL    HW175968   6.490   1.077  11.752  0.4233  0.8016  0.9519
23761SOL    HW275969   6.615   1.016  11.812  0.3609  1.8190  2.1677
23762SOL     OW75970   4.690   3.248   5.537 -0.0297 -0.0358  0.0522
23762SOL    HW175971   4.748   3.266   5.463 -0.8076 -1.8681 -1.0675
23762SOL    HW275972   4.634   3.326   5.541  1.2862  0.9497 -0.0028
23763SOL     OW75973   1.083  10.487   0.822  0.5286  0.3514  0.1219
23763SOL    HW175974   1.127  10.404   0.802 -2.0791 -0.9876 -0.5766
23763SOL    HW275975   1.078  10.532   0.737 -3.2266 -1.5784 -0.8866
23764SOL     OW75976   6.962   9.202   1.880  0.0665 -0.1787  0.2280
23764SOL    HW175977   6.870   9.223   1.898  0.3125  1.8495 -0.6187
23764SOL    HW275978   7.012   9.262   1.934  0.9064 -0.8223  0.1913
23765SOL     OW75979   7.004  10.755   7.489 -0.8903 -0.1457  0.0622
23765SOL    HW175980   7.001  10.660   7.478 -2.6739 -0.1284  0.1264
23765SOL    HW275981   6.912  10.782   7.492 -0.4444  1.7505 -1.3736
23766SOL     OW75982   0.586   2.571   9.154 -0.0495 -0.0956  0.1737
23766SOL    HW175983   0.549   2.486   9.130 -1.6182  0.8022 -0.7293
23766SOL    HW275984   0.581   2.574   9.250 -1.3315 -0.4508  0.1324
23767SOL     OW75985   9.328   2.014   0.743  0.1648  0.5602  0.0298
23767SOL    HW175986   9.262   2.073   0.707  0.8825  1.5826  0.3415
23767SOL    HW275987   9.294   1.991   0.830  0.1740  1.0232  0.1597
23768SOL     OW75988   6.231   4.322  11.552  0.0791 -0.0596  0.3859
23768SOL    HW175989   6.322   4.328  11.522  0.9337 -0.7571  2.6188
23768SOL    HW275990   6.201   4.412  11.558  1.2741  0.3008  1.3614
23769SOL     OW75991   4.855  10.007  11.273 -0.4978  0.4670  0.2607
23769SOL    HW175992   4.847  10.099  11.247  0.3309  0.4714 -0.0018
23769SOL    HW275993   4.949   9.989  11.270 -0.7072 -0.6495 -0.6309
23770SOL     OW75994  11.447  11.363  11.113 -0.2516  0.0101 -0.3118
23770SOL    HW175995  11.512  11.381  11.044 -0.8747  0.0753 -0.8986
23770SOL    HW275996  11.385  11.302  11.072  0.1636 -1.1068  0.6745
23771SOL     OW75997   0.309   3.232   9.116 -0.0274 -0.2561  0.0607
23771SOL    HW175998   0.400   3.207   9.133 -0.1463  0.6183  2.2410
23771SOL    HW275999   0.314   3.320   9.079  0.1510 -1.6803 -3.7652
23772SOL     OW76000  11.053   6.015  10.193  0.1826  0.0908 -0.5286
23772SOL    HW176001  11.123   6.079  10.179 -1.6770  2.0237 -1.6094
23772SOL    HW276002  11.005   6.049  10.268  0.5175 -1.3731  0.3842
23773SOL     OW76003  10.829   4.322  11.106 -0.2889  0.0304  0.3048
23773SOL    HW176004  10.860   4.241  11.064 -0.7367 -0.2460  0.5026
23773SOL    HW276005  10.810   4.380  11.032  1.4330  0.5057  0.1799
23774SOL     OW76006   8.190   3.371   3.189  0.4128  0.2463 -0.0588
23774SOL    HW176007   8.282   3.356   3.209  0.7809  0.9897 -1.0959
23774SOL    HW276008   8.183   3.352   3.095 -0.2592  1.1749 -0.2085
23775SOL     OW76009   7.755   7.385   0.443 -0.4217 -0.3833 -0.1225
23775SOL    HW176010   7.826   7.321   0.439  0.0990  0.1345  0.6083
23775SOL    HW276011   7.677   7.334   0.465 -0.1773 -0.8727 -0.3757
23776SOL     OW76012   1.324   1.522  10.791 -0.1298  0.0824  0.3818
23776SOL    HW176013   1.364   1.601  10.826 -0.1870  0.0887  0.4346
23776SOL    HW276014   1.270   1.489  10.863  1.1979 -0.9314  0.9637
23777SOL     OW76015   2.734   1.590   6.288 -0.2375 -0.0271  0.8682
23777SOL    HW176016   2.769   1.666   6.241 -2.1223  1.2277  1.3472
23777SOL    HW276017   2.803   1.524   6.283  1.8150  1.9759  1.1121
23778SOL     OW76018   7.025   0.458   5.766 -0.2628  0.3285 -0.0974
23778SOL    HW176019   6.965   0.527   5.739  0.7755  1.2474 -0.1231
23778SOL    HW276020   7.093   0.503   5.815  0.6932 -0.5973 -0.5315
23779SOL     OW76021   1.966   1.022   6.964 -0.3584 -0.1061 -0.0321
23779SOL    HW176022   1.933   1.088   7.024 -3.3233 -0.5198 -1.0548
23779SOL    HW276023   1.971   0.942   7.016 -3.0326 -0.4929 -0.2299
23780SOL     OW76024   1.791   4.484   0.126 -0.4292 -0.2862 -0.7510
23780SOL    HW176025   1.801   4.450   0.215  0.7357  0.7264 -0.4601
23780SOL    HW276026   1.880   4.511   0.101 -0.7480 -0.5315 -2.2122
23781SOL     OW76027  10.890   0.732  10.204 -0.0925 -0.4781 -0.1202
23781SOL    HW176028  10.936   0.650  10.184  1.0045  0.2883 -0.9035
23781SOL    HW276029  10.853   0.760  10.121  0.6147  0.4415 -0.1459
23782SOL     OW76030   9.438   5.401   2.264  0.6379  0.1074  0.6391
23782SOL    HW176031   9.462   5.429   2.176  2.4200  1.5519  1.5352
23782SOL    HW276032   9.401   5.479   2.305 -1.8616 -0.9996  0.6769
23783SOL     OW76033   5.563   1.446   5.962 -0.1451  0.2206 -0.0014
23783SOL    HW176034   5.648   1.406   5.981 -0.1398 -0.6077 -1.5558
23783SOL    HW276035   5.580   1.540   5.961  0.0700  0.2814  2.7192
23784SOL     OW76036   4.081   4.771   1.911  0.5601  0.3466 -0.1521
23784SOL    HW176037   4.109   4.683   1.883 -1.2843 -0.3146 -0.0489
23784SOL    HW276038   3.991   4.779   1.880  0.7623  2.3147 -0.3531
23785SOL     OW76039  11.823   3.658   5.992 -0.6469 -0.4635  0.4197
23785SOL    HW176040  11.836   3.572   5.951  2.2430 -0.7423  1.6899
23785SOL    HW276041  11.728   3.672   5.989 -1.0390 -2.9134 -1.3457
23786SOL     OW76042   8.060   5.444   8.407 -0.1711  0.0029  0.2355
23786SOL    HW176043   8.030   5.505   8.340 -0.2404  2.2081  2.1327
23786SOL    HW276044   8.137   5.487   8.446 -0.7759 -0.6279  2.2773
23787SOL     OW76045   5.428   1.272   5.799 -0.1665 -0.4970  0.0244
23787SOL    HW176046   5.445   1.345   5.857 -2.9943 -0.1391  0.5359
23787SOL    HW276047   5.490   1.204   5.826  1.4338  1.1139  0.5699
23788SOL     OW76048   6.669   2.338   2.477  0.1244  0.1973 -0.2098
23788SOL    HW176049   6.701   2.372   2.394  0.7890 -0.0707 -0.0721
23788SOL    HW276050   6.735   2.274   2.504 -0.9408 -0.9761 -0.3070
23789SOL     OW76051   5.905   3.291   3.025  0.2540  0.1740  0.3740
23789SOL    HW176052   5.855   3.367   2.992  0.5189  0.6719  1.0939
23789SOL    HW276053   5.994   3.324   3.036  0.9678 -0.9056 -1.5995
23790SOL     OW76054   6.538   0.825   6.505  0.4038 -0.1326  0.0718
23790SOL    HW176055   6.513   0.875   6.428  0.9656  0.1964  0.1001
23790SOL    HW276056   6.461   0.773   6.525  0.1844 -0.0736 -0.5924
23791SOL     OW76057   1.523   8.232   8.975  0.2905  0.3487 -0.0720
23791SOL    HW176058   1.606   8.253   8.933  1.5800  1.2873  2.6758
23791SOL    HW276059   1.511   8.139   8.958  1.4077  0.3980 -1.3086
23792SOL     OW76060   0.755  11.912   9.193 -0.1628  0.2649  0.4618
23792SOL    HW176061   0.772  12.006   9.191  0.2141  0.2112  0.9561
23792SOL    HW276062   0.665  11.904   9.160 -0.0943  0.7682  0.1316
23793SOL     OW76063  11.699   3.137   6.880 -0.4263  0.2494  0.4669
23793SOL    HW176064  11.708   3.199   6.809  0.6913 -1.9262 -1.4162
23793SOL    HW276065  11.617   3.161   6.923 -1.6522  1.0790 -2.1468
23794SOL     OW76066  10.902   1.271   4.109  0.4640 -0.0873  0.2869
23794SOL    HW176067  10.909   1.205   4.178  0.1255  0.0170  0.4253
23794SOL    HW276068  10.808   1.278   4.093  0.5916 -1.0911 -1.1415
23795SOL     OW76069   2.954  10.338   7.531 -0.3394 -0.2306  0.2574
23795SOL    HW176070   2.873  10.288   7.531 -1.3235  1.2749 -0.3972
23795SOL    HW276071   2.992  10.321   7.445 -0.9936  0.5931 -0.2127
23796SOL     OW76072   8.548   1.232   1.345  0.0373  0.4352  0.2129
23796SOL    HW176073   8.590   1.214   1.261  1.7482  2.0115  0.6918
23796SOL    HW276074   8.454   1.219   1.327  0.3516  0.6843 -1.9144
23797SOL     OW76075   4.985  10.238   9.046 -0.3000  0.0648 -0.0729
23797SOL    HW176076   4.998  10.185   9.124  0.9533 -0.6963 -0.7699
23797SOL    HW276077   4.891  10.230   9.027 -0.6691  0.4343  1.4374
23798SOL     OW76078   5.147   6.091   6.191 -0.6206 -0.7031  0.4484
23798SOL    HW176079   5.089   6.018   6.169 -2.0324  0.7925 -1.0644
23798SOL    HW276080   5.184   6.118   6.107  0.4171 -0.0806  1.0854
23799SOL     OW76081   6.208  10.769   3.645 -0.1151 -0.1471 -0.0971
23799SOL    HW176082   6.233  10.748   3.556 -0.3459 -1.4200  0.1207
23799SOL    HW276083   6.249  10.700   3.699  0.1338  0.6704  0.7915
23800SOL     OW76084   8.671   0.476   4.018 -0.5218  0.4509 -0.1432
23800SOL    HW176085   8.637   0.515   3.938  1.1388 -0.5476 -1.3911
23800SOL    HW276086   8.629   0.390   4.023 -2.1302  1.2473  1.1760
23801SOL     OW76087   5.277  11.550   3.665  0.0718 -0.3142  0.1821
23801SOL    HW176088   5.371  11.538   3.653 -0.2092 -1.8035 -0.8331
23801SOL    HW276089   5.259  11.517   3.753  0.3812 -0.7960  0.0659
23802SOL     OW76090   7.848  10.019  10.098 -0.1992  0.3604 -0.0620
23802SOL    HW176091   7.774  10.027  10.157  0.3055  1.2592  0.4711
23802SOL    HW276092   7.911   9.964  10.146  0.8289  2.2943  0.9226
23803SOL     OW76093   6.256   5.587   2.611  0.8828  0.6735 -0.0120
23803SOL    HW176094   6.257   5.514   2.673  1.4225 -0.8175 -1.6652
23803SOL    HW276095   6.185   5.566   2.550  0.9269  1.6285 -0.4150
23804SOL     OW76096   7.075   3.621   9.037 -0.3556  0.2839 -0.1100
23804SOL    HW176097   7.089   3.589   9.126 -2.0422 -0.6618 -0.1308
23804SOL    HW276098   7.097   3.547   8.981 -0.3158  0.5203 -0.4096
23805SOL     OW76099   5.954   2.242   4.148 -0.1815  0.4462 -0.2862
23805SOL    HW176100   5.925   2.300   4.078 -0.1334  1.0134  0.1500
23805SOL    HW276101   5.974   2.159   4.105 -1.6499  0.2932 -0.7115
23806SOL     OW76102   7.959   7.152   3.062  0.1306  0.3474 -0.2469
23806SOL    HW176103   8.051   7.126   3.067 -0.6155 -2.5592  0.8861
23806SOL    HW276104   7.935   7.138   2.970 -0.1418 -3.3662  0.2059
23807SOL     OW76105   6.226   9.235   4.053  0.5842  0.0476  0.2116
23807SOL    HW176106   6.181   9.213   4.135 -1.1160  0.0329 -0.6950
23807SOL    HW276107   6.195   9.323   4.031 -0.5078 -0.6994 -1.4026
23808SOL     OW76108  11.642   6.137   1.129  0.0409  0.5503  0.2227
23808SOL    HW176109  11.577   6.068   1.114  0.8531 -0.2958  0.4926
23808SOL    HW276110  11.625   6.167   1.219  0.1190  0.2216  0.3491
23809SOL     OW76111   9.379   8.524   2.161 -0.2687  0.7481  0.0588
23809SOL    HW176112   9.326   8.599   2.190 -2.0591 -0.4862  0.1232
23809SOL    HW276113   9.335   8.448   2.199  0.7987 -0.4465 -1.0151
23810SOL     OW76114   3.920   5.269   7.923  0.1522  0.0565  0.3674
23810SOL    HW176115   3.931   5.353   7.969  1.2400  0.7257 -1.0617
23810SOL    HW276116   3.881   5.293   7.839 -0.2821 -0.9830  0.2567
23811SOL     OW76117   1.611   4.471  10.960 -0.3251  0.1809  0.8093
23811SOL    HW176118   1.539   4.454  10.900 -0.5282  0.0906  1.0751
23811SOL    HW276119   1.662   4.390  10.960 -0.2774  0.2096  0.6991
23812SOL     OW76120   6.552   4.087   2.854  0.6683 -0.1084 -0.0836
23812SOL    HW176121   6.548   4.091   2.758  1.8150  1.1963 -0.1026
23812SOL    HW276122   6.487   4.021   2.877  0.4084 -0.4983 -1.7627
23813SOL     OW76123   1.093   8.913   4.610  0.3426 -0.0362  0.3645
23813SOL    HW176124   1.066   8.943   4.696  0.3189 -0.1293  0.3896
23813SOL    HW276125   1.096   8.992   4.556  2.7435  0.4270  1.0681
23814SOL     OW76126  11.880  11.759   8.754 -0.1973  0.3896 -0.0554
23814SOL    HW176127  11.843  11.679   8.792  0.5165 -0.5265 -1.2094
23814SOL    HW276128  11.899  11.735   8.664  1.1471  1.5042 -0.0933
23815SOL     OW76129   0.557   4.862   4.031 -0.8539 -0.3610 -0.3560
23815SOL    HW176130   0.492   4.926   4.003 -3.2930 -1.5381  2.1666
23815SOL    HW276131   0.520   4.777   4.009 -0.1608 -1.0752  1.0515
23816SOL     OW76132   0.069  10.606   1.275 -0.4490  0.2905  0.8320
23816SOL    HW176133   0.148  10.635   1.320 -0.5310  0.5383  0.8203
23816SOL    HW276134   0.003  10.599   1.344  0.4761 -3.5643  1.5495
23817SOL     OW76135   0.264   9.924   1.121 -0.2897 -0.5771 -0.2727
23817SOL    HW176136   0.331   9.966   1.068  0.1342 -1.8460 -0.7919
23817SOL    HW276137   0.312   9.888   1.196 -0.5197 -0.7559 -0.2096
23818SOL     OW76138   9.324  10.385   3.231 -0.2924  0.7752  0.1638
23818SOL    HW176139   9.318  10.289   3.227  0.2485  0.7403  0.1200
23818SOL    HW276140   9.368  10.403   3.314  0.3137  0.9532 -0.1925
23819SOL     OW76141  10.730  10.919  10.247  0.2416 -0.2441 -0.1657
23819SOL    HW176142  10.785  10.989  10.213  1.0277 -1.2558 -1.0488
23819SOL    HW276143  10.754  10.913  10.339  1.3666 -0.4289 -0.4565
23820SOL     OW76144   7.633   8.236   1.460 -0.6452 -0.4222  0.2237
23820SOL    HW176145   7.549   8.262   1.498 -0.2393 -1.8149  2.2975
23820SOL    HW276146   7.656   8.155   1.507  0.3761 -1.8478 -2.4703
23821SOL     OW76147  10.816   8.712   5.938 -0.4250  0.2071 -0.0978
23821SOL    HW176148  10.893   8.754   5.976  0.4868 -0.7617 -0.8033
23821SOL    HW276149  10.838   8.701   5.845 -0.3432 -2.2838  0.1313
23822SOL     OW76150   8.066   1.063   3.282  0.3313 -0.2820  0.1842
23822SOL    HW176151   8.127   1.032   3.215 -0.2471 -0.6624 -0.1769
23822SOL    HW276152   8.046   0.985   3.334  0.5266 -0.0557  0.5942
23823SOL     OW76153   8.577   8.708   9.227 -0.0306 -0.1845 -0.2630
23823SOL    HW176154   8.558   8.632   9.171 -0.8615 -0.5088  0.4453
23823SOL    HW276155   8.528   8.780   9.187  1.6626  0.2862 -1.6041
23824SOL     OW76156   1.324  11.480   0.827  0.0362  0.5619  0.1637
23824SOL    HW176157   1.367  11.453   0.745  1.1772  2.3992  0.1023
23824SOL    HW276158   1.314  11.398   0.876  1.0293 -0.3259 -1.0220
23825SOL     OW76159  11.240   1.596   7.449 -0.0809  0.4141 -0.1823
23825SOL    HW176160  11.263   1.640   7.530  0.6344 -0.7060  0.2374
23825SOL    HW276161  11.320   1.599   7.396 -0.7358  1.7528 -1.1572
23826SOL     OW76162   9.096   9.543   6.315 -0.3262  0.6625 -0.3033
23826SOL    HW176163   9.161   9.498   6.368 -1.4487  0.2573  0.7775
23826SOL    HW276164   9.144   9.613   6.271  1.3263 -1.1157 -1.4644
23827SOL     OW76165   3.307   7.386   0.118  0.5917  0.4142 -0.3583
23827SOL    HW176166   3.342   7.443   0.050  0.2917  0.4390 -0.4961
23827SOL    HW276167   3.233   7.342   0.076  0.9787 -0.2707 -0.3316
23828SOL     OW76168   3.117   9.779   8.031  0.5636 -0.0592  0.7095
23828SOL    HW176169   3.079   9.693   8.046 -0.6777  0.6688  1.9830
23828SOL    HW276170   3.203   9.775   8.071  0.3127 -0.5494  1.2084
23829SOL     OW76171  10.610   0.300   2.008  0.4065 -0.3882 -0.7167
23829SOL    HW176172  10.589   0.223   1.955 -1.2135 -0.1456 -0.4754
23829SOL    HW276173  10.637   0.366   1.945 -1.2535 -0.1865 -1.2756
23830SOL     OW76174   1.806   9.533   1.800  0.3155  0.4533 -0.2344
23830SOL    HW176175   1.773   9.464   1.741  0.6008 -0.4425  0.6244
23830SOL    HW276176   1.732   9.591   1.813 -0.1799 -0.1426 -0.3379
23831SOL     OW76177   5.625   6.219   6.628 -0.1454  0.4269 -0.0092
23831SOL    HW176178   5.703   6.265   6.595 -0.4946  0.1933 -1.2090
23831SOL    HW276179   5.646   6.126   6.618 -0.1697  0.3453  0.6639
23832SOL     OW76180  11.048   1.317   4.397 -0.2602 -0.0089  0.3672
23832SOL    HW176181  11.015   1.229   4.383 -0.4951  0.1585 -0.1755
23832SOL    HW276182  10.969   1.372   4.401 -0.1003  0.2258  0.3368
23833SOL     OW76183   5.655   5.174   6.535  0.6588 -0.1060 -0.3942
23833SOL    HW176184   5.606   5.176   6.617  1.3938  1.3657  0.0489
23833SOL    HW276185   5.615   5.104   6.484 -2.5754  1.5996 -0.4708
23834SOL     OW76186  11.029   9.708   1.675 -0.2167 -0.7055  0.3047
23834SOL    HW176187  11.005   9.748   1.759 -1.4911  0.8545 -0.7394
23834SOL    HW276188  10.995   9.769   1.609  0.3744 -2.1026 -1.3633
23835SOL     OW76189  11.687   3.141   4.727 -0.0153  0.0020 -0.0093
23835SOL    HW176190  11.607   3.124   4.677 -0.7611 -0.3821  1.2762
23835SOL    HW276191  11.743   3.189   4.665 -2.1213  2.4070 -0.2583
23836SOL     OW76192  10.793   4.597   7.050 -0.5491 -0.2199 -0.0625
23836SOL    HW176193  10.852   4.672   7.048 -1.1764  0.3342  1.0792
23836SOL    HW276194  10.795   4.562   6.961 -0.4696  1.3358 -0.7007
23837SOL     OW76195  11.298   4.742   7.964 -0.0248 -0.2342 -0.5604
23837SOL    HW176196  11.297   4.729   7.869  0.2102  2.1805 -0.9560
23837SOL    HW276197  11.378   4.697   7.993 -0.1497 -1.0820 -1.4703
23838SOL     OW76198   2.174   0.109   2.360 -0.3197  0.3720  0.0037
23838SOL    HW176199   2.180   0.110   2.455  0.5944  1.4426 -0.0466
23838SOL    HW276200   2.101   0.050   2.341 -1.3918  1.1993  1.4069
23839SOL     OW76201   9.923   6.960   4.744  0.8499  0.0323  0.5415
23839SOL    HW176202   9.953   7.044   4.709 -0.5033  0.2539 -0.1566
23839SOL    HW276203   9.828   6.964   4.738  0.7496 -1.5058  0.6323
23840SOL     OW76204   0.271   3.550   0.591  0.4673  0.4277  0.4664
23840SOL    HW176205   0.202   3.495   0.629  0.6546 -1.0365 -1.1672
23840SOL    HW276206   0.352   3.516   0.628  0.4111  1.3890  1.5003
23841SOL     OW76207  10.086   6.588  10.406  0.3890  0.4680 -0.1226
23841SOL    HW176208  10.177   6.567  10.427  0.3012  0.4537  0.2450
23841SOL    HW276209  10.060   6.652  10.472  0.2124  0.6658 -0.3809
23842SOL     OW76210   2.555   6.173   7.719 -0.2536 -0.4762 -0.2155
23842SOL    HW176211   2.595   6.255   7.747 -0.1277 -0.6722  0.1857
23842SOL    HW276212   2.604   6.105   7.766 -0.0637 -0.8089 -0.8822
23843SOL     OW76213  11.037  10.538   1.232  0.3762 -0.3967 -0.0787
23843SOL    HW176214  10.957  10.485   1.232  0.4774 -0.6247 -2.0492
23843SOL    HW276215  11.006  10.627   1.216  0.3579 -0.1119  1.4264
23844SOL     OW76216   0.655   2.911   4.952  0.6487 -0.4501 -0.4649
23844SOL    HW176217   0.644   3.001   4.984  3.5916  0.0278 -0.5869
23844SOL    HW276218   0.581   2.899   4.892 -0.8977  1.1728  0.9694
23845SOL     OW76219   0.727   8.968   1.857  0.5427  0.1133 -0.6265
23845SOL    HW176220   0.792   9.011   1.801  1.3604  0.0551  0.2701
23845SOL    HW276221   0.693   9.038   1.912  0.3521  0.0037 -0.6056
23846SOL     OW76222  10.697   3.999   2.301 -0.4192 -0.0519 -1.0100
23846SOL    HW176223  10.716   3.972   2.390  0.7269 -1.8070 -1.7285
23846SOL    HW276224  10.700   4.095   2.303 -0.7399 -0.0563  0.8691
23847SOL     OW76225   6.598   1.734   7.420  0.0374  0.3742 -0.2790
23847SOL    HW176226   6.606   1.780   7.503  1.1564  0.2182 -0.2937
23847SOL    HW276227   6.594   1.803   7.354  3.3937  0.5184 -0.4619
23848SOL     OW76228   8.057   3.763   5.042  0.2692  0.0334  0.5525
23848SOL    HW176229   8.007   3.816   5.104  0.4864  0.3600  0.4448
23848SOL    HW276230   8.130   3.818   5.015 -0.7662  0.5622 -1.3210
23849SOL     OW76231   8.198  11.290   7.412 -0.4391 -0.1808  0.0962
23849SOL    HW176232   8.203  11.385   7.395 -0.8852  0.3897  2.6881
23849SOL    HW276233   8.278  11.270   7.460 -1.0982 -0.7698  0.9709
23850SOL     OW76234   9.424   8.053  10.020  0.3407 -0.3873  0.5164
23850SOL    HW176235   9.393   8.091   9.938  0.3722 -0.0744  0.6508
23850SOL    HW276236   9.367   7.977  10.033  0.3110 -0.4167  0.2263
23851SOL     OW76237   9.280   0.909   2.082  0.2025  0.9706 -0.0151
23851SOL    HW176238   9.239   0.867   2.158 -0.7994 -0.5354 -1.3412
23851SOL    HW276239   9.208   0.949   2.034  0.3919 -0.4587 -1.6017
23852SOL     OW76240  10.804  10.746   1.620  0.0007  0.2274 -0.2621
23852SOL    HW176241  10.730  10.770   1.676  0.7595  1.5304  0.2102
23852SOL    HW276242  10.869  10.710   1.681  0.8805  1.7668 -0.2538
23853SOL     OW76243   2.539   8.475  11.115 -0.3605 -0.5680  0.0295
23853SOL    HW176244   2.478   8.403  11.100 -2.3830  0.9531  0.4977
23853SOL    HW276245   2.613   8.457  11.057 -2.1348 -1.4769 -2.0643
23854SOL     OW76246   2.801   8.130   7.655  0.4967 -0.4905  0.3911
23854SOL    HW176247   2.825   8.205   7.709  0.0748  1.6348 -2.2226
23854SOL    HW276248   2.706   8.126   7.660  0.5087 -0.8126  0.4109
23855SOL     OW76249   9.473   2.335  11.644  0.4035 -0.0187  0.0736
23855SOL    HW176250   9.407   2.363  11.580 -0.1504 -0.4214  0.4535
23855SOL    HW276251   9.422   2.293  11.713  1.1609 -1.8086 -0.3911
23856SOL     OW76252   2.409   9.180   5.481 -0.2477  0.3654 -0.0427
23856SOL    HW176253   2.378   9.095   5.452 -0.6233  0.2318  0.7335
23856SOL    HW276254   2.501   9.166   5.503  0.1798  0.5744 -1.5658
23857SOL     OW76255   4.565   4.457   5.829  0.3689 -0.2781  1.0438
23857SOL    HW176256   4.636   4.456   5.765 -1.1745 -0.8402 -0.7694
23857SOL    HW276257   4.588   4.390   5.893  2.6705  1.2956  1.9981
23858SOL     OW76258  10.284   1.257   5.689  0.2998 -0.0277 -0.0192
23858SOL    HW176259  10.260   1.274   5.780  2.1463  2.2402  0.1496
23858SOL    HW276260  10.295   1.345   5.650 -0.3973 -0.9282 -2.4262
23859SOL     OW76261  10.177   8.901   0.046 -0.4127  0.0739 -0.0991
23859SOL    HW176262  10.203   8.827  -0.009  1.9148  2.7585 -2.9552
23859SOL    HW276263  10.135   8.962  -0.014 -2.2145  1.1961  2.1579
23860SOL     OW76264   3.723   4.531   7.236  0.0910  0.2357  0.5607
23860SOL    HW176265   3.800   4.586   7.226  0.2697 -0.2341 -1.1165
23860SOL    HW276266   3.755   4.442   7.222 -0.6745  0.0083  0.1542
23861SOL     OW76267  11.544   4.076   1.135  0.1480  0.0467 -0.4704
23861SOL    HW176268  11.502   4.001   1.093 -1.1066 -0.2071  1.1474
23861SOL    HW276269  11.515   4.152   1.084 -0.4193 -0.3646 -0.7674
23862SOL     OW76270   9.882   2.314   1.234 -0.1724 -0.5524 -0.4714
23862SOL    HW176271   9.817   2.263   1.282 -0.0779 -1.1300 -0.9340
23862SOL    HW276272   9.906   2.385   1.293 -0.6534 -0.7788  0.0069
23863SOL     OW76273  11.853   0.709  10.038 -0.4237  0.0730  0.2917
23863SOL    HW176274  11.872   0.679  10.126 -0.2336  0.7554  0.4893
23863SOL    HW276275  11.757   0.717  10.035 -0.6389 -2.0488 -0.2755
23864SOL     OW76276   0.963   1.420   6.853  1.0434 -0.2127  0.2434
23864SOL    HW176277   0.989   1.360   6.783 -0.4704 -1.2375  0.4947
23864SOL    HW276278   0.933   1.363   6.924 -1.1379  0.7747  0.2207
23865SOL     OW76279   7.185   6.883   1.074  0.4429 -0.1138  0.1106
23865SOL    HW176280   7.136   6.965   1.084  1.1839  0.1826  1.6738
23865SOL    HW276281   7.265   6.898   1.124  2.4025 -0.3961 -2.7158
23866SOL     OW76282   0.470   9.081   0.761 -0.6511  0.3036  0.2213
23866SOL    HW176283   0.396   9.032   0.797 -0.8643 -0.1263 -0.7546
23866SOL    HW276284   0.441   9.173   0.763 -0.7156  0.2711  0.9777
23867SOL     OW76285   6.959   5.764   2.801 -0.8367  0.4336  0.0873
23867SOL    HW176286   6.937   5.781   2.892 -2.2717  0.3649 -0.2215
23867SOL    HW276287   7.022   5.691   2.805 -0.5223  0.7395  1.0280
23868SOL     OW76288   4.498  11.758  10.652 -0.2813 -0.3897 -0.1059
23868SOL    HW176289   4.424  11.742  10.710  0.9999 -2.3445  1.0823
23868SOL    HW276290   4.566  11.792  10.709  0.0255  0.6884 -1.0603
23869SOL     OW76291   3.798   1.888   0.529  0.0468  0.9234  0.0840
23869SOL    HW176292   3.767   1.976   0.551  1.3465  1.7866 -1.3661
23869SOL    HW276293   3.807   1.889   0.434  0.9049 -0.4951  0.1267
23870SOL     OW76294   4.102   1.355   5.760 -0.3047 -0.0898 -0.2646
23870SOL    HW176295   4.017   1.333   5.797 -0.5159  1.8694  0.5135
23870SOL    HW276296   4.121   1.283   5.699 -2.7609 -0.2918 -0.8949
23871SOL     OW76297   1.301   8.654   9.868 -0.2652  0.4628  0.4618
23871SOL    HW176298   1.366   8.723   9.878 -1.7490  1.7577  1.5292
23871SOL    HW276299   1.323   8.590   9.936  1.6423 -0.6471 -1.0856
23872SOL     OW76300  11.187   6.499  11.873  0.1788 -0.0219 -0.1283
23872SOL    HW176301  11.218   6.582  11.839 -0.0965  0.8695  1.6770
23872SOL    HW276302  11.097   6.492  11.841  0.7620 -0.5108 -1.7453
23873SOL     OW76303   0.003   1.041   1.526 -0.1574 -0.6690 -0.2932
23873SOL    HW176304  -0.068   1.083   1.477  0.6112  0.5028 -0.4391
23873SOL    HW276305   0.014   0.956   1.483 -1.8803 -1.1319  0.1348
23874SOL     OW76306   0.609   3.539   5.686 -0.0444 -0.0700  0.1062
23874SOL    HW176307   0.658   3.464   5.719 -0.7563  0.6983  3.2822
23874SOL    HW276308   0.655   3.615   5.723 -0.7902  0.9383 -0.9654
23875SOL     OW76309   2.199   4.774  10.854 -0.7492  0.3571 -0.1273
23875SOL    HW176310   2.193   4.834  10.929  0.8221  0.1541  0.1927
23875SOL    HW276311   2.133   4.806  10.793 -0.3145  2.1076  0.2587
23876SOL     OW76312  10.280   0.325   1.966 -0.2194 -0.3966  0.4228
23876SOL    HW176313  10.369   0.328   1.932  1.2772 -1.1467  3.8510
23876SOL    HW276314  10.228   0.289   1.894  1.7870  1.7103 -2.3353
23877SOL     OW76315   7.458   1.143   8.791  0.4985  0.2692 -0.4417
23877SOL    HW176316   7.433   1.160   8.881  0.7568  0.2113 -0.3563
23877SOL    HW276317   7.553   1.129   8.795  1.0490  3.2327 -1.1240
23878SOL     OW76318   5.370   5.444   2.104 -0.0042 -0.7544  0.1857
23878SOL    HW176319   5.392   5.477   2.017 -0.9042  0.5143  0.4068
23878SOL    HW276320   5.315   5.367   2.087 -1.1379  0.1456 -0.4138
23879SOL     OW76321   5.162   5.767  10.032  0.5720  0.1949 -0.1944
23879SOL    HW176322   5.213   5.805  10.104 -1.4338  1.2175  0.7837
23879SOL    HW276323   5.206   5.798   9.953  2.2828 -0.1724  0.5500
23880SOL     OW76324   8.912   8.856   3.722 -0.0061 -0.4201  0.6095
23880SOL    HW176325   8.881   8.771   3.753 -0.4836 -0.0665  1.1247
23880SOL    HW276326   8.991   8.873   3.774  0.6652 -0.9974 -0.2014
23881SOL     OW76327   9.008   1.929   1.374 -0.5200 -0.2480  0.3512
23881SOL    HW176328   9.041   2.014   1.402 -0.1114  0.5199 -2.1763
23881SOL    HW276329   9.086   1.880   1.349 -0.8143 -1.1236  1.0772
23882SOL     OW76330   7.481   6.179   0.893  0.0433 -0.2450  0.1267
23882SOL    HW176331   7.570   6.212   0.875  0.2722 -1.1066 -0.3827
23882SOL    HW276332   7.434   6.193   0.811  0.1748 -1.2395 -0.1401
23883SOL     OW76333   9.686   4.674   6.572 -0.0163  0.3535 -0.3375
23883SOL    HW176334   9.613   4.618   6.598  0.0495  1.3313  2.3461
23883SOL    HW276335   9.752   4.659   6.640  1.6048  0.7508 -1.7764
23884SOL     OW76336   2.946   3.496   1.309  0.0762  0.3587  0.3811
23884SOL    HW176337   3.014   3.518   1.372  1.0343 -3.3228  0.8392
23884SOL    HW276338   2.988   3.508   1.224  1.0565 -1.0110  0.6422
23885SOL     OW76339   2.295   1.684   6.182  0.2239  0.6111 -0.6264
23885SOL    HW176340   2.315   1.592   6.199 -2.4629  0.2013  0.8284
23885SOL    HW276341   2.319   1.730   6.263  0.4247  0.9829 -0.8941
23886SOL     OW76342   7.819   5.777   9.396 -0.4946 -0.3770 -0.1518
23886SOL    HW176343   7.746   5.753   9.453 -1.6112  0.7728 -1.0638
23886SOL    HW276344   7.864   5.847   9.444  0.6231 -1.7103  0.8429
23887SOL     OW76345   3.114   4.461   6.083  0.3364  0.2674  0.0839
23887SOL    HW176346   3.035   4.494   6.125  0.7930  0.6061  0.6911
23887SOL    HW276347   3.098   4.368   6.071  0.6376 -0.0758  2.0746
23888SOL     OW76348   9.820   1.629   8.119  0.8609 -0.9900 -0.0399
23888SOL    HW176349   9.794   1.662   8.205  1.6464 -0.3147 -0.0563
23888SOL    HW276350   9.777   1.543   8.113 -1.4007  0.0592 -0.0867
23889SOL     OW76351  11.889   4.495  11.031  0.3059 -0.6590  0.0380
23889SOL    HW176352  11.905   4.569  10.973 -0.4406 -0.6956 -0.2195
23889SOL    HW276353  11.917   4.418  10.982  0.8234 -0.5742  0.1998
23890SOL     OW76354   7.612   7.478   9.855 -0.3881  0.3348  0.1448
23890SOL    HW176355   7.630   7.519   9.939 -0.3807  1.3254 -0.3285
23890SOL    HW276356   7.523   7.505   9.832 -0.1818  0.5533 -0.4295
23891SOL     OW76357   6.917   2.032   7.399 -0.5907  0.0517  0.2263
23891SOL    HW176358   6.992   1.980   7.429  0.4962  2.1548  1.3716
23891SOL    HW276359   6.898   1.996   7.312  0.9631 -1.3515  0.3955
23892SOL     OW76360   4.429  10.600   9.361 -0.6487  0.3672 -0.2546
23892SOL    HW176361   4.466  10.526   9.313  1.3621  0.1214  1.4876
23892SOL    HW276362   4.381  10.560   9.434 -0.2150  0.7331  0.2466
23893SOL     OW76363   3.385  10.470   7.599  0.5747 -0.2980 -0.1940
23893SOL    HW176364   3.475  10.466   7.566  0.0955 -4.1535 -1.6018
23893SOL    HW276365   3.393  10.450   7.693  1.1824 -1.7662 -0.5264
23894SOL     OW76366  11.825  10.865   9.473 -0.5149  0.3225 -0.4131
23894SOL    HW176367  11.821  10.947   9.523 -2.2707  0.0303  0.0132
23894SOL    HW276368  11.862  10.890   9.389  0.6201  1.2137  0.3082
23895SOL     OW76369   8.964   6.303   2.664  0.3518  0.7705  0.1254
23895SOL    HW176370   8.959   6.233   2.729  0.6706  2.6675  2.3187
23895SOL    HW276371   8.886   6.356   2.680 -0.7632  0.1358 -2.5867
23896SOL     OW76372   8.430   7.586   7.992 -0.2050  0.6159  0.2153
23896SOL    HW176373   8.387   7.671   7.983 -2.0977  0.1784  3.3825
23896SOL    HW276374   8.503   7.603   8.052 -0.0837  0.1612  0.1976
23897SOL     OW76375   1.447   8.517  10.866  0.4496  0.0849 -0.0490
23897SOL    HW176376   1.457   8.569  10.787  0.2648  0.6999  0.3219
23897SOL    HW276377   1.483   8.572  10.936 -1.6719  0.6328  0.6816
23898SOL     OW76378  10.561   5.178   7.525 -0.1002  0.0332  0.5769
23898SOL    HW176379  10.587   5.231   7.601  1.1492  2.3002 -1.2682
23898SOL    HW276380  10.633   5.116   7.513  2.2431  2.8520 -1.4285
23899SOL     OW76381   9.606   7.126   9.989 -0.0421 -0.6279 -0.2862
23899SOL    HW176382   9.567   7.151   9.905  0.9053 -0.4460 -0.6763
23899SOL    HW276383   9.637   7.036   9.975 -0.0478 -0.6631 -0.0717
23900SOL     OW76384   8.335  11.379   3.684 -0.5649 -0.4476  0.0893
23900SOL    HW176385   8.323  11.288   3.710 -0.2239 -0.1930  1.1709
23900SOL    HW276386   8.289  11.386   3.600 -1.9506 -1.2146  0.7559
23901SOL     OW76387   9.561   2.385   1.319  0.1023 -0.7917  0.5110
23901SOL    HW176388   9.590   2.471   1.348 -1.5828 -0.2494  0.7045
23901SOL    HW276389   9.481   2.368   1.369 -0.6127 -1.6482 -0.8412
23902SOL     OW76390   5.044   7.022  11.201  0.1917  0.5773 -0.3248
23902SOL    HW176391   5.105   6.948  11.208  0.0990  0.5952  0.7923
23902SOL    HW276392   4.957   6.983  11.201  0.0755  0.7383  1.8615
23903SOL     OW76393   4.670   2.319   0.683 -0.1936  0.2527  0.0209
23903SOL    HW176394   4.728   2.303   0.609  0.9069  1.7679  0.5036
23903SOL    HW276395   4.628   2.235   0.700  3.5228 -1.5943  1.0644
23904SOL     OW76396   0.779   8.637   1.704 -0.6990  0.4407  0.2014
23904SOL    HW176397   0.722   8.671   1.772 -0.7104  0.2905  0.2663
23904SOL    HW276398   0.760   8.543   1.701 -0.0700  0.2919  0.5944
23905SOL     OW76399  11.951  11.684   8.029  0.1680  0.1233  0.1809
23905SOL    HW176400  11.979  11.672   8.120 -0.8466 -0.5098  0.4213
23905SOL    HW276401  11.989  11.610   7.982  0.2654  0.1675  0.1904
23906SOL     OW76402   6.342   5.369   9.126  0.8337 -0.6570 -0.5586
23906SOL    HW176403   6.341   5.283   9.085  1.0556 -0.5699 -0.7452
23906SOL    HW276404   6.383   5.355   9.211 -0.9786 -1.1319  0.2833
23907SOL     OW76405  10.350   6.984   8.710  0.5731  0.2715 -0.1531
23907SOL    HW176406  10.327   7.075   8.730  2.4160  1.0566 -1.2897
23907SOL    HW276407  10.439   6.974   8.744  0.1878 -1.3114  0.4616
23908SOL     OW76408   2.691   8.325  10.895 -1.0025 -0.3563 -0.2735
23908SOL    HW176409   2.690   8.407  10.847 -0.1384 -0.5729 -0.6777
23908SOL    HW276410   2.783   8.300  10.899 -1.0534 -0.4315  1.3476
23909SOL     OW76411   8.537   5.190   9.151  0.7441  0.2856  0.3026
23909SOL    HW176412   8.513   5.098   9.151  1.7011  0.0249  0.5257
23909SOL    HW276413   8.588   5.201   9.071 -1.5788  1.2470 -1.1403
23910SOL     OW76414   9.235   6.436   5.364  0.4712  0.3780  0.0158
23910SOL    HW176415   9.324   6.418   5.394  0.7283  0.1883 -0.8301
23910SOL    HW276416   9.230   6.531   5.358  0.6245  0.3883  0.0448
23911SOL     OW76417   5.682   5.507   7.617  0.1705 -1.1140  0.2015
23911SOL    HW176418   5.601   5.502   7.669 -0.1498 -1.6682 -0.3394
23911SOL    HW276419   5.740   5.562   7.669 -0.3108 -1.2814  0.9344
23912SOL     OW76420   9.073  11.533   3.231 -0.0544  0.1430  0.3417
23912SOL    HW176421   9.145  11.596   3.240 -0.1130  0.2443  0.1024
23912SOL    HW276422   9.027  11.537   3.315  0.3971 -0.1474  0.6126
23913SOL     OW76423   3.447  10.883   4.474  0.2545 -0.3910  0.3663
23913SOL    HW176424   3.434  10.789   4.461  1.4668 -0.3826 -1.1308
23913SOL    HW276425   3.417  10.923   4.392  2.7961  0.2016 -0.3600
23914SOL     OW76426   4.350   0.111  10.277 -0.1781 -0.3891  0.0132
23914SOL    HW176427   4.318   0.033  10.230 -0.3689 -0.4133  0.1797
23914SOL    HW276428   4.340   0.182  10.214  1.2460 -0.7145 -0.6112
23915SOL     OW76429   7.472   6.737   8.587 -0.2966  0.8489  0.4760
23915SOL    HW176430   7.464   6.697   8.500  0.7946 -1.2707  1.3051
23915SOL    HW276431   7.396   6.704   8.635 -0.1442  0.8860  0.7437
23916SOL     OW76432   4.608  10.748  11.175  0.0090 -0.0979  0.1118
23916SOL    HW176433   4.534  10.691  11.153 -0.2897  0.6830 -0.9989
23916SOL    HW276434   4.604  10.819  11.110  1.0555  0.5683  0.7451
23917SOL     OW76435   4.152   4.913  11.253  0.2159  0.0151 -0.6371
23917SOL    HW176436   4.058   4.932  11.248  0.2414 -0.2155 -4.5849
23917SOL    HW276437   4.157   4.817  11.251  0.5753  0.0254 -0.4158
23918SOL     OW76438   8.980   1.250   5.330  0.3767  0.0872 -0.5445
23918SOL    HW176439   8.899   1.203   5.350 -0.7030  0.4174 -3.6001
23918SOL    HW276440   8.998   1.301   5.409 -0.4675 -2.5113  1.4754
23919SOL     OW76441   4.493   3.291   7.390 -0.0296 -0.0249  0.6138
23919SOL    HW176442   4.572   3.326   7.432  0.1950  0.4355 -0.1735
23919SOL    HW276443   4.511   3.298   7.296 -1.1321  0.3888  0.4204
23920SOL     OW76444   8.764  10.818   0.486 -0.1872  0.3276  0.3545
23920SOL    HW176445   8.681  10.857   0.514 -1.1268  0.5494 -2.4435
23920SOL    HW276446   8.753  10.724   0.501 -0.1273  0.5283  1.8255
23921SOL     OW76447   4.408   8.777   2.812 -0.2791  0.2364  1.3042
23921SOL    HW176448   4.344   8.840   2.779 -0.2077 -0.4176 -0.1610
23921SOL    HW276449   4.425   8.805   2.902 -2.7913  0.3029  1.8490
23922SOL     OW76450   8.880   1.057   8.700 -0.4774  0.6064 -0.3722
23922SOL    HW176451   8.879   1.150   8.679  0.4953  0.9432  0.9618
23922SOL    HW276452   8.962   1.025   8.663 -0.4750  0.4324 -0.2167
23923SOL     OW76453   4.548   3.195   9.579 -0.0355 -0.1039  0.4147
23923SOL    HW176454   4.643   3.194   9.588  0.2798 -0.4674 -2.3408
23923SOL    HW276455   4.520   3.109   9.610  0.8694 -1.1006 -1.4429
23924SOL     OW76456   5.107  11.407  10.788 -0.4232  0.0110 -0.1104
23924SOL    HW176457   5.196  11.393  10.821 -0.6986 -2.5267 -0.2525
23924SOL    HW276458   5.064  11.460  10.855  1.1457  1.1943 -0.0008
23925SOL     OW76459   2.623   3.866   7.224 -0.7938  0.0811 -0.0190
23925SOL    HW176460   2.584   3.880   7.310  1.3882 -1.7449  1.3969
23925SOL    HW276461   2.624   3.771   7.214  1.8182  0.0995 -0.5974
23926SOL     OW76462   0.329   7.443   6.152  0.7150 -0.3367  0.6104
23926SOL    HW176463   0.342   7.530   6.190 -0.7143 -0.1737  0.7808
23926SOL    HW276464   0.234   7.429   6.155  0.7037 -1.0608 -1.2534
23927SOL     OW76465  10.569   9.322   5.124 -0.5004  0.5113  0.1715
23927SOL    HW176466  10.514   9.310   5.202  0.3060 -0.1193  0.6629
23927SOL    HW276467  10.610   9.236   5.112 -0.3440  0.7127 -0.7396
23928SOL     OW76468   6.518   0.277   3.773 -0.3761  0.0708 -0.6034
23928SOL    HW176469   6.521   0.198   3.720 -1.5618 -0.8584  0.6396
23928SOL    HW276470   6.489   0.247   3.859 -0.8445  1.8504 -0.0975
23929SOL     OW76471   4.434   7.861  11.703 -0.1261 -0.1916 -0.2668
23929SOL    HW176472   4.345   7.844  11.674 -0.6159  1.4826  0.1631
23929SOL    HW276473   4.446   7.804  11.780 -0.9880 -0.0689 -0.0371
23930SOL     OW76474   3.187   6.872  11.575 -0.6088  0.2307 -0.0923
23930SOL    HW176475   3.256   6.829  11.524 -0.0770  0.7813  0.1360
23930SOL    HW276476   3.161   6.808  11.640 -0.2078  0.0619 -0.0956
23931SOL     OW76477   9.022   5.640  11.152 -0.3371  0.0328  0.4099
23931SOL    HW176478   9.113   5.619  11.130 -1.0042 -0.1078 -2.6478
23931SOL    HW276479   8.980   5.555  11.163 -0.7601 -0.0940 -1.6337
23932SOL     OW76480   8.430   4.525  10.407 -0.7437  0.2321  0.0947
23932SOL    HW176481   8.449   4.432  10.406  0.0929  0.3943  0.1066
23932SOL    HW276482   8.335   4.531  10.402 -0.8950 -0.6443  1.6212
23933SOL     OW76483   0.300   7.988   0.583 -0.5271  0.0897 -0.4039
23933SOL    HW176484   0.254   8.036   0.652  0.5625 -0.8658  1.0429
23933SOL    HW276485   0.310   8.052   0.512 -2.3259  0.8777 -0.0073
23934SOL     OW76486   5.977   3.277   8.845  0.0884 -0.2828  0.6238
23934SOL    HW176487   6.066   3.313   8.842 -0.0753  0.1845  1.1549
23934SOL    HW276488   5.931   3.332   8.908 -1.7182  2.0452 -2.4681
23935SOL     OW76489   6.175   0.606  10.494  0.1560  0.7904  0.7547
23935SOL    HW176490   6.268   0.624  10.476  0.0706  0.4014 -0.1705
23935SOL    HW276491   6.151   0.669  10.562  0.1446  3.4789 -1.5275
23936SOL     OW76492   5.621   2.740   0.291  0.0802  0.3065  0.2696
23936SOL    HW176493   5.656   2.805   0.231 -0.1807 -0.9257 -1.2925
23936SOL    HW276494   5.601   2.788   0.371  1.5223  1.7865 -0.2126
23937SOL     OW76495  10.434   2.819   3.608 -0.2273  0.4060  0.0879
23937SOL    HW176496  10.364   2.779   3.557  1.6600 -1.3303 -1.3101
23937SOL    HW276497  10.400   2.821   3.698 -3.0260  2.0600 -0.8788
23938SOL     OW76498   8.250   2.159   4.151 -0.3885 -0.0247  0.1571
23938SOL    HW176499   8.159   2.189   4.150 -0.3977 -0.0608 -0.3080
23938SOL    HW276500   8.285   2.193   4.233 -1.5186 -2.1761  1.6389
23939SOL     OW76501   0.870   0.408   5.095  0.1016  0.4036  0.0258
23939SOL    HW176502   0.965   0.398   5.103  0.1362  1.0894  0.6259
23939SOL    HW276503   0.856   0.502   5.104 -0.8376  0.0995  2.4097
23940SOL     OW76504  10.125  11.125   5.737 -0.3880 -0.4863  0.1329
23940SOL    HW176505  10.140  11.109   5.644  0.0305  2.3148 -0.3501
23940SOL    HW276506  10.062  11.196   5.740  0.1865 -0.0077  1.9786
23941SOL     OW76507   3.849   3.600   9.333  0.2213  0.0964  0.3620
23941SOL    HW176508   3.759   3.628   9.316  0.5863  0.6871 -0.7204
23941SOL    HW276509   3.900   3.681   9.329  0.9388 -0.3664 -0.0673
23942SOL     OW76510   5.771   7.403   3.405 -0.3041 -0.2502 -0.0702
23942SOL    HW176511   5.799   7.437   3.320 -1.8836  0.9686 -0.1578
23942SOL    HW276512   5.676   7.389   3.395 -0.5151 -0.0974  1.4743
23943SOL     OW76513  11.982   6.555  10.365  0.0828 -0.7651  0.3564
23943SOL    HW176514  11.965   6.480  10.309  1.5140 -0.8115 -0.0351
23943SOL    HW276515  11.989   6.629  10.304  0.5145 -0.6223  0.5801
23944SOL     OW76516  10.289   3.093   5.820 -0.7728  0.3767 -0.2736
23944SOL    HW176517  10.243   3.176   5.834 -1.2976  0.1618 -0.6709
23944SOL    HW276518  10.236   3.047   5.754  0.1369  0.2108 -0.9104
23945SOL     OW76519   0.573   5.629   8.986  0.0085 -0.4535 -0.1812
23945SOL    HW176520   0.529   5.686   8.924  0.4837  0.2769  0.1430
23945SOL    HW276521   0.561   5.541   8.950 -0.9674 -0.1877 -0.5369
23946SOL     OW76522   3.339  11.823   4.290  0.3129 -0.3832  0.3403
23946SOL    HW176523   3.312  11.753   4.350  0.7730 -1.8346 -1.0610
23946SOL    HW276524   3.360  11.777   4.209 -0.2992  1.5128 -0.9441
23947SOL     OW76525   9.067   5.984   9.425 -0.5335  0.0623 -0.3105
23947SOL    HW176526   9.137   5.941   9.375  0.2088  0.9697 -0.0608
23947SOL    HW276527   9.009   6.021   9.358  0.5952  1.4968 -0.5303
23948SOL     OW76528   0.717   2.894   1.387  0.6852  0.2153  0.6250
23948SOL    HW176529   0.770   2.942   1.323  0.2258  1.5982  1.2515
23948SOL    HW276530   0.743   2.930   1.471  1.2485 -1.5519  1.2612
23949SOL     OW76531   5.119   2.171   0.526 -0.6734 -0.0210 -0.2926
23949SOL    HW176532   5.025   2.188   0.520 -1.2932 -3.1793 -2.2418
23949SOL    HW276533   5.147   2.164   0.434  0.9198 -1.5427  0.2669
23950SOL     OW76534   7.373   1.734   8.541 -0.5159  0.1543  0.0937
23950SOL    HW176535   7.304   1.671   8.562 -0.8586 -0.9222 -3.5763
23950SOL    HW276536   7.326   1.815   8.523 -0.7169 -0.1294 -0.7376
23951SOL     OW76537  11.033   6.358   7.774  0.2530  0.1141  0.1970
23951SOL    HW176538  11.060   6.317   7.856  1.0647  0.0372 -0.1017
23951SOL    HW276539  11.106   6.342   7.714 -1.5005 -2.4915 -1.4776
23952SOL     OW76540   4.889   0.636   9.120 -0.3592  0.1975 -0.4420
23952SOL    HW176541   4.916   0.612   9.031  1.0527  0.6349 -0.1588
23952SOL    HW276542   4.795   0.647   9.115 -0.3988 -0.5960 -1.7003
23953SOL     OW76543   8.228   5.710   3.570 -0.2147  0.1585 -0.0912
23953SOL    HW176544   8.228   5.749   3.482  0.2738  2.5561  0.8921
23953SOL    HW276545   8.137   5.719   3.600 -0.1003  0.5719  0.1387
23954SOL     OW76546   4.070   9.340   5.023  0.0940 -0.3829  0.9285
23954SOL    HW176547   4.105   9.268   4.972 -0.0860 -1.5316  2.3717
23954SOL    HW276548   3.976   9.324   5.026 -0.4696  1.7517 -1.4841
23955SOL     OW76549  10.804  11.690   9.668  0.5292  0.0596  0.3768
23955SOL    HW176550  10.756  11.674   9.586 -0.9396 -1.1119  1.4067
23955SOL    HW276551  10.740  11.731   9.725  1.4479  0.5555  1.0651
23956SOL     OW76552   1.853   3.858   8.195  0.1106 -0.5649 -0.2283
23956SOL    HW176553   1.902   3.893   8.120  0.5863  0.8035  0.6779
23956SOL    HW276554   1.921   3.822   8.253  0.2799  2.2405  1.5093
23957SOL     OW76555   9.868   2.871  11.394 -0.6396 -0.8833  0.1141
23957SOL    HW176556   9.831   2.819  11.466  0.4045 -1.1880  0.4668
23957SOL    HW276557   9.907   2.806  11.335 -1.3429 -0.6214 -0.6429
23958SOL     OW76558   0.009  10.273  11.293  0.4217  0.6409 -0.8202
23958SOL    HW176559  -0.019  10.215  11.364  2.4201  0.6653  0.0540
23958SOL    HW276560   0.004  10.361  11.330 -0.5289  0.8638 -1.4350
23959SOL     OW76561   0.845   3.664   4.188 -0.3666  0.2604 -0.1246
23959SOL    HW176562   0.751   3.667   4.172 -0.3038 -0.0426 -0.5689
23959SOL    HW276563   0.855   3.694   4.279 -0.9933 -0.8758  0.3324
23960SOL     OW76564   4.166   7.179   5.052 -0.3439  0.5469  0.3368
23960SOL    HW176565   4.197   7.267   5.031  1.1841  0.2282  1.0657
23960SOL    HW276566   4.219   7.122   4.996 -0.0232  0.0139  1.1532
23961SOL     OW76567  11.330   6.697   4.812  0.1625  0.5007  0.1710
23961SOL    HW176568  11.424   6.706   4.798  0.2066 -1.8688 -1.6488
23961SOL    HW276569  11.297   6.787   4.814  2.3341  1.3581  0.0580
23962SOL     OW76570   6.021   2.974   8.381  0.1039  0.2052 -0.5518
23962SOL    HW176571   5.937   3.014   8.359 -1.5591 -2.3204  0.7053
23962SOL    HW276572   6.002   2.881   8.389  2.6838 -0.2712  1.3699
23963SOL     OW76573   5.613  10.362   7.509  0.6145 -0.2613  0.1133
23963SOL    HW176574   5.609  10.424   7.436 -0.1320  0.4201  0.7124
23963SOL    HW276575   5.658  10.286   7.473 -0.6967 -0.3779 -1.3850
23964SOL     OW76576   5.492   6.251   8.170 -0.4138  0.3793  0.2293
23964SOL    HW176577   5.494   6.306   8.091 -2.3876  0.6363  0.2973
23964SOL    HW276578   5.402   6.218   8.173  0.3688 -1.7947  0.9422
23965SOL     OW76579   0.235   9.729   1.731 -0.2099  0.0302 -0.0337
23965SOL    HW176580   0.197   9.814   1.751  1.2922  1.1504 -1.6093
23965SOL    HW276581   0.181   9.695   1.660 -0.9673 -0.4846  0.7681
23966SOL     OW76582   1.593   3.348   8.824  0.6502 -0.2461  0.4466
23966SOL    HW176583   1.558   3.435   8.843 -0.0829 -0.4088 -0.1097
23966SOL    HW276584   1.550   3.322   8.742  1.8231 -0.6025 -0.0704
23967SOL     OW76585   9.343   4.395   4.285  0.0852 -0.2344 -0.2880
23967SOL    HW176586   9.422   4.420   4.334 -1.3705  0.6881  1.7287
23967SOL    HW276587   9.333   4.465   4.220  0.6899 -0.1270 -0.2733
23968SOL     OW76588   0.695   3.499   7.747  0.1113 -0.5684 -0.3715
23968SOL    HW176589   0.620   3.443   7.765 -0.2965 -0.6081 -2.0401
23968SOL    HW276590   0.698   3.506   7.651  1.1249  0.9278 -0.2727
23969SOL     OW76591   0.867   8.947   2.938  1.1600 -0.4315  0.0065
23969SOL    HW176592   0.843   8.925   3.028  0.8317  2.0482  0.6041
23969SOL    HW276593   0.948   8.997   2.947 -0.3179  2.2712 -0.7364
23970SOL     OW76594   6.310  11.367   8.024  0.2636 -0.1360  0.0208
23970SOL    HW176595   6.323  11.274   8.040 -2.9557 -0.6574  0.2286
23970SOL    HW276596   6.314  11.407   8.110  0.1305 -0.3271  0.1172
23971SOL     OW76597   5.031   0.436   3.494 -0.3459  0.5625 -0.4586
23971SOL    HW176598   5.107   0.488   3.517  0.3827 -0.5001 -0.4148
23971SOL    HW276599   5.059   0.382   3.420 -1.8160  1.9335 -2.1141
23972SOL     OW76600   4.959  11.467   9.366  0.1543 -0.2220 -0.7545
23972SOL    HW176601   4.897  11.510   9.306  1.2200 -0.9763 -2.4890
23972SOL    HW276602   4.914  11.388   9.395 -0.5187  0.3377 -0.2517
23973SOL     OW76603   6.921   7.673   8.153 -0.3089 -0.0973  0.1378
23973SOL    HW176604   6.927   7.615   8.228  0.5559  1.0493  0.9984
23973SOL    HW276605   6.958   7.623   8.080 -0.3535 -0.9125  0.6694
23974SOL     OW76606  11.734   2.990   6.185  0.1186  0.0367 -0.1757
23974SOL    HW176607  11.671   3.015   6.118  0.3583  2.1664  0.3185
23974SOL    HW276608  11.696   3.021   6.267  0.5456 -1.1380  0.4934
23975SOL     OW76609  10.234   1.644  11.186 -0.7752 -0.3392 -0.3337
23975SOL    HW176610  10.186   1.625  11.267  2.3063  1.8293  2.2599
23975SOL    HW276611  10.270   1.559  11.160 -0.1863 -0.8051  1.7793
23976SOL     OW76612  10.915   2.444  10.868  0.0446 -0.3330  0.4290
23976SOL    HW176613  10.926   2.382  10.940 -1.5329 -1.1445  0.0280
23976SOL    HW276614  10.820   2.444  10.851  0.2347  0.8236 -0.7787
23977SOL     OW76615   4.069   3.599   1.443 -0.1604  0.6157  0.2027
23977SOL    HW176616   3.997   3.640   1.491 -1.7929 -2.5458  0.7015
23977SOL    HW276617   4.031   3.577   1.358  0.5380 -0.0984  0.0686
23978SOL     OW76618   5.119   5.617  11.859  0.1586 -0.0585 -0.1480
23978SOL    HW176619   5.134   5.543  11.918  0.1135  0.7803  0.9444
23978SOL    HW276620   5.027   5.640  11.873  0.5395  1.0780  0.5654
23979SOL     OW76621   6.814   5.146   8.960 -0.4439 -0.2237  0.3363
23979SOL    HW176622   6.754   5.131   9.033  0.9997  0.0283  1.6262
23979SOL    HW276623   6.879   5.076   8.967  1.0985  1.1899  0.8162
23980SOL     OW76624   8.379   0.482   4.133 -0.0360  0.3991 -0.4519
23980SOL    HW176625   8.452   0.543   4.139  0.5279 -0.4168  2.6148
23980SOL    HW276626   8.409   0.416   4.070  1.1761  0.9654 -0.4964
23981SOL     OW76627   5.210   6.298  11.740 -0.4383 -0.4398  0.2298
23981SOL    HW176628   5.218   6.286  11.835  2.6230 -1.9083 -0.0692
23981SOL    HW276629   5.184   6.212  11.707 -0.3915 -0.2444 -0.3301
23982SOL     OW76630   6.893  11.721   4.865  0.0066  0.2442  0.7762
23982SOL    HW176631   6.974  11.751   4.904  0.4364 -0.9650  0.8566
23982SOL    HW276632   6.876  11.783   4.794  0.2930  1.2680  1.5740
23983SOL     OW76633   0.985   2.935   6.066 -0.0242 -0.0622 -0.2443
23983SOL    HW176634   1.078   2.950   6.086  0.5393  1.0191 -3.2227
23983SOL    HW276635   0.963   2.856   6.117  2.1374  0.3211  1.4768
23984SOL     OW76636  11.800   4.978   9.584  0.3620  0.3526 -0.1134
23984SOL    HW176637  11.873   4.936   9.538 -1.7839 -4.0068 -0.1037
23984SOL    HW276638  11.772   5.049   9.527  2.1489 -0.4039 -2.0473
23985SOL     OW76639   6.280   6.721  10.629  0.2794 -0.4091 -0.1697
23985SOL    HW176640   6.319   6.791  10.578  0.6874 -1.1467 -0.9065
23985SOL    HW276641   6.248   6.659  10.564  0.1729 -1.0346  0.4635
23986SOL     OW76642   9.981   0.259   4.368 -0.0633 -0.7416 -0.5101
23986SOL    HW176643  10.028   0.334   4.405 -2.5744  0.5539  0.2394
23986SOL    HW276644  10.042   0.186   4.379  1.2192  0.5493  1.7291
23987SOL     OW76645   8.421  11.894  11.162 -0.2291 -0.3844 -0.2210
23987SOL    HW176646   8.488  11.962  11.160 -1.0491  0.4529 -0.2698
23987SOL    HW276647   8.407  11.872  11.070  1.4317 -2.0876 -0.1325
23988SOL     OW76648   0.012   1.601   8.113  0.9471  0.6291 -0.0659
23988SOL    HW176649   0.006   1.514   8.073  1.0589  0.4768  0.2410
23988SOL    HW276650  -0.077   1.621   8.140  0.9519  0.5323  0.0216
23989SOL     OW76651   1.144   5.214   1.725 -0.7620 -0.2820 -0.6200
23989SOL    HW176652   1.178   5.140   1.675 -1.2644 -1.2631  0.4259
23989SOL    HW276653   1.164   5.291   1.672  0.5625 -1.0843 -1.3286
23990SOL     OW76654   2.372   6.570   0.478  0.4903 -0.0848 -0.6592
23990SOL    HW176655   2.443   6.535   0.423 -1.1936  0.1271 -3.1702
23990SOL    HW276656   2.310   6.497   0.485  0.9207 -0.2940  1.5645
23991SOL     OW76657  11.184  11.303   3.200 -0.6950 -0.2357 -0.5717
23991SOL    HW176658  11.136  11.383   3.221  0.1882  1.0952 -3.2166
23991SOL    HW276659  11.121  11.248   3.154 -1.2633 -1.1033  1.1318
23992SOL     OW76660   4.333   7.427  11.888 -0.0421 -0.6088  0.3321
23992SOL    HW176661   4.245   7.432  11.927 -0.2655 -1.3333 -0.0586
23992SOL    HW276662   4.368   7.344  11.922  1.0492  0.3375  1.6148
23993SOL     OW76663  11.198   1.385   3.871 -0.2317 -0.8513 -0.6352
23993SOL    HW176664  11.150   1.467   3.879  1.1587  0.1797 -2.3198
23993SOL    HW276665  11.162   1.330   3.942 -2.8613  0.3032 -0.9442
23994SOL     OW76666   1.176   5.629   7.420 -0.6079  0.1741  0.3101
23994SOL    HW176667   1.226   5.563   7.468  0.4752  1.7391  1.4133
23994SOL    HW276668   1.178   5.599   7.329 -2.0974 -2.4850  1.0407
23995SOL     OW76669   3.114   9.413   7.229 -0.6616  0.1431 -0.4810
23995SOL    HW176670   3.107   9.473   7.303 -0.3928  0.9777 -1.1147
23995SOL    HW276671   3.161   9.337   7.264  0.8973  1.1957 -0.1788
23996SOL     OW76672   3.656   2.527  11.240 -0.7325  0.1969  0.5244
23996SOL    HW176673   3.733   2.508  11.293 -0.3783 -0.0958 -0.0888
23996SOL    HW276674   3.588   2.552  11.304 -0.9473 -2.1761  1.3000
23997SOL     OW76675   2.295   9.091   6.311  0.0338  0.0187 -0.5259
23997SOL    HW176676   2.206   9.100   6.347  0.6481  0.8770  0.8437
23997SOL    HW276677   2.291   9.011   6.259 -1.6340  0.2141 -0.7538
23998SOL     OW76678   3.234   3.713   5.262  0.4150 -0.1176  0.1074
23998SOL    HW176679   3.230   3.748   5.351  0.4307 -1.4870  0.6819
23998SOL    HW276680   3.220   3.788   5.205 -0.9905  0.5544  1.2953
23999SOL     OW76681   8.689  11.282   3.930 -0.6101 -0.6681  0.0966
23999SOL    HW176682   8.643  11.213   3.978 -0.2039 -0.7198  0.4208
23999SOL    HW276683   8.719  11.239   3.850 -1.9628 -0.3833 -0.5939
24000SOL     OW76684   4.443   6.197   9.804  0.0296  0.4139 -0.2780
24000SOL    HW176685   4.458   6.105   9.827 -1.3528 -0.1551 -1.5337
24000SOL    HW276686   4.473   6.246   9.881 -1.9794 -1.2480  1.6840
24001SOL     OW76687   8.890  11.268   5.525  0.0481  0.3092 -0.2882
24001SOL    HW176688   8.799  11.298   5.526 -0.1388 -0.2194 -0.8674
24001SOL    HW276689   8.940  11.343   5.558 -0.4343  1.1762 -1.4592
24002SOL     OW76690   0.412  10.970   0.707 -0.1230 -0.2396  0.7302
24002SOL    HW176691   0.453  11.035   0.764 -0.8768  0.3939  0.5614
24002SOL    HW276692   0.405  11.013   0.622  0.8717 -1.1316  0.1686
24003SOL     OW76693   0.992   9.501   5.725 -0.1058  0.4877 -0.1207
24003SOL    HW176694   1.051   9.426   5.718 -2.5007 -1.7081  1.2009
24003SOL    HW276695   1.008   9.536   5.812 -0.3175  0.2653  0.0096
24004SOL     OW76696   8.202   8.035   4.030 -0.1408  0.1089 -0.0393
24004SOL    HW176697   8.117   7.998   4.056 -0.0715 -0.6067 -0.7960
24004SOL    HW276698   8.263   8.004   4.096  0.0438 -1.7335 -1.0067
24005SOL     OW76699   2.805  10.702   4.694 -0.2344 -0.4570  0.7602
24005SOL    HW176700   2.817  10.796   4.692  0.7843 -0.5912  0.0743
24005SOL    HW276701   2.863  10.668   4.626  0.2561 -1.6577  1.7217
24006SOL     OW76702   5.122   3.263   9.823 -0.2192 -0.2712 -0.1663
24006SOL    HW176703   5.058   3.198   9.851  0.7003 -1.5018 -0.8275
24006SOL    HW276704   5.162   3.226   9.745  1.1647  0.5430  0.1140
24007SOL     OW76705   1.290   4.348   3.178 -0.2298 -0.2723 -0.5118
24007SOL    HW176706   1.332   4.267   3.208  1.1033  0.2274 -0.9683
24007SOL    HW276707   1.361   4.398   3.137 -0.8843  1.4214  0.3372
24008SOL     OW76708   6.965   8.086   7.980 -0.8197 -0.6400  0.0594
24008SOL    HW176709   6.984   8.076   8.074  1.8643  1.6838 -0.0926
24008SOL    HW276710   7.041   8.047   7.937 -0.7413  0.6717 -1.0383
24009SOL     OW76711   5.128   3.598   6.294  0.1783  0.0379 -0.6541
24009SOL    HW176712   5.187   3.603   6.369  0.0512  0.1036 -0.5593
24009SOL    HW276713   5.135   3.685   6.253  0.7166 -0.1951 -1.0753
24010SOL     OW76714   0.804  11.934   1.192 -0.1955  0.9473 -0.3845
24010SOL    HW176715   0.771  12.004   1.248  0.9482  1.5556 -0.4494
24010SOL    HW276716   0.825  11.863   1.252 -0.2584  1.0916 -0.1911
24011SOL     OW76717  10.815   5.995   1.115  0.5236  0.0620 -0.3108
24011SOL    HW176718  10.800   5.969   1.024  0.6734  0.7533 -0.5386
24011SOL    HW276719  10.906   6.024   1.117  0.4999  0.1121  0.0437
24012SOL     OW76720   6.233   7.121   6.907  0.0501 -0.0482 -0.4421
24012SOL    HW176721   6.327   7.106   6.918  0.3990  2.0122 -0.2098
24012SOL    HW276722   6.226   7.173   6.827 -0.4738  2.9060  1.3795
24013SOL     OW76723   8.666   2.988   7.822  0.6211 -0.1092 -0.0426
24013SOL    HW176724   8.640   3.031   7.741  1.7096  0.1330 -0.2832
24013SOL    HW276725   8.591   2.933   7.845 -0.6980  1.6944  0.1417
24014SOL     OW76726  10.314   1.721   0.327 -0.5653 -0.4369  0.2238
24014SOL    HW176727  10.243   1.765   0.282  0.3172  2.1002  1.1476
24014SOL    HW276728  10.393   1.766   0.298  0.4683 -1.7223  0.8986
24015SOL     OW76729   0.998   2.326   7.906 -0.2988 -0.4098  0.4088
24015SOL    HW176730   1.082   2.322   7.860 -0.6267 -0.9916 -0.1480
24015SOL    HW276731   1.022   2.336   7.999  0.3649  1.0918  0.1130
24016SOL     OW76732   5.228   8.403  10.770  0.2677 -0.6216 -0.1179
24016SOL    HW176733   5.316   8.398  10.733  0.8139 -0.4172  1.1212
24016SOL    HW276734   5.241   8.419  10.863 -1.1141  1.9442 -0.2784
24017SOL     OW76735   0.480   0.583   0.984 -0.1444 -0.3236  0.4307
24017SOL    HW176736   0.512   0.538   0.905 -1.5008 -1.0645  0.2701
24017SOL    HW276737   0.396   0.541   1.003 -1.0266  1.5078  0.8365
24018SOL     OW76738   9.858   1.400   4.929  0.2466  0.4570 -0.2577
24018SOL    HW176739   9.880   1.318   4.974  0.5329 -0.5072 -2.0927
24018SOL    HW276740   9.766   1.414   4.950  0.4985  0.3526  1.0621
24019SOL     OW76741   0.608   6.138   6.547  0.5011 -0.1357  0.1475
24019SOL    HW176742   0.571   6.223   6.574  0.8209 -0.6898  2.4939
24019SOL    HW276743   0.699   6.157   6.527 -0.0339  0.5198 -1.9754
24020SOL     OW76744   9.785  11.098   3.654  0.2549 -0.1576  0.1670
24020SOL    HW176745   9.721  11.166   3.633  0.4227 -0.0119  0.1215
24020SOL    HW276746   9.869  11.144   3.655  0.4397 -0.4720 -0.4452
24021SOL     OW76747   6.795   9.536  11.149  0.2437 -0.0764 -0.1525
24021SOL    HW176748   6.707   9.553  11.115  0.2228 -2.8593 -1.7535
24021SOL    HW276749   6.828   9.463  11.097  2.6384 -0.6441  1.9441
24022SOL     OW76750   8.844   6.052   0.314 -0.7972  0.6227  0.4046
24022SOL    HW176751   8.863   6.132   0.264 -1.2398  0.6961  0.3431
24022SOL    HW276752   8.929   6.012   0.329 -0.6581  0.5373 -0.5178
24023SOL     OW76753   9.204   7.288   1.018 -0.2674 -0.1368  0.5227
24023SOL    HW176754   9.202   7.211   1.075  0.0533 -0.0871  0.6019
24023SOL    HW276755   9.112   7.313   1.010 -0.1864  1.1740  2.8255
24024SOL     OW76756   6.569  10.010   0.645  0.6157 -0.1261  0.2781
24024SOL    HW176757   6.512   9.946   0.601  1.0468  0.5580 -1.3593
24024SOL    HW276758   6.607   9.961   0.718  0.5974 -1.6239 -0.6688
24025SOL     OW76759   2.819   3.763   5.911 -0.9340  0.0393  0.2909
24025SOL    HW176760   2.790   3.779   6.001  1.0822 -3.5862  1.8004
24025SOL    HW276761   2.839   3.669   5.909  3.5619  0.7628 -2.5173
24026SOL     OW76762   4.176   8.080   7.063 -0.0224 -0.0242 -0.4129
24026SOL    HW176763   4.175   8.172   7.092  1.0833  0.2141 -1.0588
24026SOL    HW276764   4.142   8.031   7.138  2.5670  0.5991  1.3362
24027SOL     OW76765  10.862   3.594   9.701  0.2510 -0.0936  0.2123
24027SOL    HW176766  10.913   3.646   9.763  1.4010 -0.7375 -0.1731
24027SOL    HW276767  10.840   3.514   9.748  0.0182 -0.0255  0.2180
24028SOL     OW76768   5.268  11.481   2.485 -0.2542  0.2690 -0.4177
24028SOL    HW176769   5.266  11.385   2.490 -0.5317  0.1797 -1.8185
24028SOL    HW276770   5.194  11.504   2.429 -1.2603  1.4534  1.3135
24029SOL     OW76771   2.349  11.060   9.397  0.1920  0.3078  0.7812
24029SOL    HW176772   2.388  11.110   9.469  1.5852 -0.8848  0.8966
24029SOL    HW276773   2.391  10.975   9.402 -1.7685 -0.7414  0.2782
24030SOL     OW76774   7.177   2.177   2.949 -0.2273 -0.3914  0.0552
24030SOL    HW176775   7.217   2.176   2.862  1.0388  0.0011  0.6134
24030SOL    HW276776   7.182   2.087   2.979 -1.8965 -0.8166 -0.7812
24031SOL     OW76777   1.423   4.050   6.784  0.2114  0.5423  0.1775
24031SOL    HW176778   1.368   4.030   6.860  1.0420  1.5397  1.0779
24031SOL    HW276779   1.385   3.998   6.713 -1.9726  1.2816  0.7087
24032SOL     OW76780   6.808   2.160   9.420  0.3540 -0.1030 -0.1214
24032SOL    HW176781   6.819   2.202   9.506  0.0165  0.3323 -0.2887
24032SOL    HW276782   6.723   2.116   9.426  0.5265 -0.4356 -0.0863
24033SOL     OW76783   9.185   0.770   1.013 -0.0074 -0.2595  0.2740
24033SOL    HW176784   9.123   0.776   1.086  0.8869 -1.6218  1.1849
24033SOL    HW276785   9.269   0.752   1.055  0.8229  0.4502 -1.0146
24034SOL     OW76786   7.759   5.686   1.537  0.1486  0.2103 -0.0299
24034SOL    HW176787   7.768   5.686   1.633 -0.4125 -0.6082  0.0271
24034SOL    HW276788   7.832   5.632   1.507  0.7470  1.0476 -0.1180
24035SOL     OW76789   1.562   2.550   6.392 -0.0157 -0.2748  0.4417
24035SOL    HW176790   1.608   2.581   6.470 -0.3937 -1.6628  1.2535
24035SOL    HW276791   1.582   2.457   6.387 -1.2079 -0.5235 -0.2593
24036SOL     OW76792  10.057   2.583  10.361  0.5009 -0.7054  0.4976
24036SOL    HW176793   9.975   2.567  10.313  0.9384 -2.5650  0.2948
24036SOL    HW276794  10.095   2.660  10.319  0.5725 -1.9210 -1.7810
24037SOL     OW76795   8.832   2.010   4.661 -0.2496 -0.0884  0.6986
24037SOL    HW176796   8.879   1.996   4.579  1.9384  0.5287  1.7609
24037SOL    HW276797   8.743   1.982   4.643  0.1522  0.0667 -1.8888
24038SOL     OW76798   3.097   7.153   6.899 -0.2354 -0.0382 -0.1829
24038SOL    HW176799   3.118   7.226   6.842  1.6288  0.6088  1.2447
24038SOL    HW276800   3.144   7.078   6.862 -1.3038 -0.3021 -1.0505
24039SOL     OW76801   8.365  11.850   2.277  0.3053  0.1908  0.2458
24039SOL    HW176802   8.386  11.763   2.241 -1.2979  0.2938 -1.0776
24039SOL    HW276803   8.389  11.911   2.208  0.9605  0.7863  0.9814
24040SOL     OW76804   9.858   9.255   1.845  0.4000 -0.3428 -0.4982
24040SOL    HW176805   9.870   9.216   1.759  1.4615  1.3209 -1.1613
24040SOL    HW276806   9.832   9.345   1.827  1.5020  0.2911  0.8796
24041SOL     OW76807  11.116   4.874   3.298 -0.1080  0.5719  0.4590
24041SOL    HW176808  11.130   4.837   3.211  1.3590  0.5859  0.6768
24041SOL    HW276809  11.171   4.952   3.301 -0.6672  0.9574  1.1685
24042SOL     OW76810  11.690   2.188  11.658  0.4739  0.3605 -0.2279
24042SOL    HW176811  11.600   2.214  11.642  0.3295 -0.9919 -1.9431
24042SOL    HW276812  11.704   2.204  11.751 -1.9619 -0.6037  0.3900
24043SOL     OW76813   7.975   2.913   4.996 -0.2330  0.0952  0.2707
24043SOL    HW176814   7.938   2.987   5.043 -0.0169  0.3106  0.1035
24043SOL    HW276815   7.906   2.846   4.998  1.0319 -1.3382  4.0940
24044SOL     OW76816   0.458   4.075   1.117  0.2853 -0.1497  0.2478
24044SOL    HW176817   0.440   4.138   1.047  2.6478  0.6608  0.2551
24044SOL    HW276818   0.486   4.129   1.191 -0.3524 -1.0877  1.1929
24045SOL     OW76819  11.639   0.827  10.287  0.8585 -0.0338 -0.2478
24045SOL    HW176820  11.596   0.907  10.255  0.2092 -0.3938 -0.2926
24045SOL    HW276821  11.624   0.763  10.219  2.3721  0.1015 -0.7349
24046SOL     OW76822   2.932  11.162   6.929 -0.1742 -0.4049 -0.1911
24046SOL    HW176823   2.996  11.122   6.989 -0.1177  1.3302  0.9705
24046SOL    HW276824   2.847  11.141   6.967 -0.1157  2.1199  1.5859
24047SOL     OW76825   1.098   1.708   1.026 -0.7389 -0.1554 -0.1056
24047SOL    HW176826   1.025   1.763   0.995 -0.3204 -0.0985 -1.0219
24047SOL    HW276827   1.120   1.653   0.951  0.4155  0.0981  0.0218
24048SOL     OW76828   1.495   3.572   5.971 -0.0029 -0.3348  0.0800
24048SOL    HW176829   1.529   3.639   5.911  1.4425  0.5396  1.7649
24048SOL    HW276830   1.557   3.500   5.965 -0.3774 -0.6408 -0.1573
24049SOL     OW76831   0.485   2.788   6.277 -0.0298  0.4132  0.0383
24049SOL    HW176832   0.532   2.736   6.212  0.0107  0.3933  0.0839
24049SOL    HW276833   0.529   2.873   6.278  0.1329  0.3271  0.2276
24050SOL     OW76834   8.621  11.639  11.177  0.3368 -0.2321 -0.1744
24050SOL    HW176835   8.564  11.670  11.107  1.5694  1.0283 -0.6715
24050SOL    HW276836   8.575  11.564  11.215 -2.8030  2.0499  0.9769
24051SOL     OW76837   1.294   8.928   6.955 -0.6817 -0.0294 -0.5236
24051SOL    HW176838   1.253   8.846   6.984  1.5473 -0.8540  0.5367
24051SOL    HW276839   1.353   8.902   6.885  0.8407  0.4513  0.5311
24052SOL     OW76840   4.493  10.486   7.911  0.1858 -0.1831 -0.4201
24052SOL    HW176841   4.439  10.496   7.989  0.0056 -0.5686 -0.4916
24052SOL    HW276842   4.554  10.416   7.932  1.0538  0.6530 -0.1282
24053SOL     OW76843   8.438   4.256  10.440  0.2452  0.0393  0.4761
24053SOL    HW176844   8.513   4.253  10.499  0.6469 -2.4876 -0.0523
24053SOL    HW276845   8.379   4.188  10.472 -1.7743  1.7927  0.7220
24054SOL     OW76846  10.319   6.315   4.560 -0.0566 -0.1180 -0.0883
24054SOL    HW176847  10.301   6.253   4.489 -0.6299 -1.6128  1.3057
24054SOL    HW276848  10.360   6.389   4.517  1.6046 -1.8652 -1.7284
24055SOL     OW76849   5.717   6.823   8.683 -0.0950 -0.0068 -0.4640
24055SOL    HW176850   5.797   6.795   8.638  0.7650  1.4986  0.0376
24055SOL    HW276851   5.716   6.918   8.672 -1.4602  0.0721  0.1465
24056SOL     OW76852   1.547   9.961   8.936  0.1464 -0.5284  0.1847
24056SOL    HW176853   1.633   9.920   8.949  0.9636  0.5578 -1.3957
24056SOL    HW276854   1.547  10.035   8.997  0.0990 -0.8364  0.5646
24057SOL     OW76855   2.511   4.360  10.338  0.4413 -0.0318 -0.8732
24057SOL    HW176856   2.432   4.370  10.390  0.3546 -0.2187 -0.9692
24057SOL    HW276857   2.577   4.412  10.384  0.0661  0.7759 -1.2275
24058SOL     OW76858   2.670   9.720   1.504 -0.4578 -0.2680  0.3458
24058SOL    HW176859   2.672   9.684   1.593 -1.8613  0.7082  0.8039
24058SOL    HW276860   2.697   9.647   1.448  1.0372 -0.7373  1.5982
24059SOL     OW76861   7.191   9.574   8.265  0.4595 -0.4859  0.1499
24059SOL    HW176862   7.120   9.638   8.263  1.0626  0.4725  3.5752
24059SOL    HW276863   7.234   9.583   8.180 -0.8123  2.1066 -0.3107
24060SOL     OW76864   2.679   7.869   1.805  0.6103 -0.6898 -0.2010
24060SOL    HW176865   2.747   7.817   1.847 -1.1469  0.1592  4.2365
24060SOL    HW276866   2.691   7.957   1.840 -1.6811 -0.1421 -0.6329
24061SOL     OW76867   9.997   5.380   8.346  0.3349 -0.6473  0.0043
24061SOL    HW176868   9.967   5.374   8.436  2.5194  1.0762  0.9296
24061SOL    HW276869  10.054   5.304   8.334  0.4355 -0.6120  0.2551
24062SOL     OW76870   3.270   5.536   3.812 -0.8990 -0.1053  0.5793
24062SOL    HW176871   3.222   5.590   3.874  0.6332  0.4497  1.3372
24062SOL    HW276872   3.360   5.571   3.815 -0.4870 -0.9637 -0.9212
24063SOL     OW76873   9.364   3.477   2.968  0.5589 -0.6534 -0.4862
24063SOL    HW176874   9.456   3.449   2.970  1.4012  1.6033 -2.7749
24063SOL    HW276875   9.321   3.411   2.914  1.1179 -0.9906 -0.5354
24064SOL     OW76876   8.562   6.787   6.151 -0.2549 -0.2263  0.0914
24064SOL    HW176877   8.588   6.797   6.242  2.4829  0.0516 -0.6279
24064SOL    HW276878   8.629   6.731   6.113 -1.0960  0.0027 -1.8724
24065SOL     OW76879   6.571   3.009   0.874 -0.5869  0.0451  0.0732
24065SOL    HW176880   6.598   2.919   0.855 -0.0006 -0.5303  3.1217
24065SOL    HW276881   6.503   3.000   0.940  0.0604  1.8399  1.0570
24066SOL     OW76882   2.210   7.795   2.188  0.4743  0.2079 -0.0134
24066SOL    HW176883   2.196   7.886   2.212 -0.4688  0.6615 -2.0619
24066SOL    HW276884   2.165   7.745   2.256 -1.9081  1.4125 -0.5792
24067SOL     OW76885   9.812   5.237   9.942  0.3723  0.0145  0.4501
24067SOL    HW176886   9.718   5.251   9.930  0.1298 -1.1957  0.7919
24067SOL    HW276887   9.847   5.227   9.854  0.2572  0.8769  0.3000
24068SOL     OW76888   6.632   0.029   1.512 -0.3692  0.0548  0.2413
24068SOL    HW176889   6.561  -0.022   1.550  0.3110 -1.4320 -0.4136
24068SOL    HW276890   6.636   0.108   1.565 -1.5510 -0.5008  1.1943
24069SOL     OW76891   9.849   0.945   2.387 -0.3036  0.1581 -0.0553
24069SOL    HW176892   9.855   1.013   2.320 -0.1756 -0.4248 -0.6394
24069SOL    HW276893   9.940   0.921   2.405 -0.3648 -2.6689 -2.7624
24070SOL     OW76894   9.899   9.415   9.451  0.1638 -0.1403  0.0765
24070SOL    HW176895   9.898   9.390   9.544  0.2951  0.3011  0.1977
24070SOL    HW276896   9.984   9.384   9.420 -1.1155 -3.2448 -0.7335
24071SOL     OW76897   9.469   7.715   2.932  0.5830 -0.0569 -0.3680
24071SOL    HW176898   9.505   7.804   2.936  0.6406  0.1231 -3.1535
24071SOL    HW276899   9.416   7.714   2.853  0.6214 -2.5147 -0.4346
24072SOL     OW76900   7.036   4.093  10.623  0.3159  0.2387  0.0237
24072SOL    HW176901   6.947   4.061  10.640  0.3008 -0.2110 -0.8280
24072SOL    HW276902   7.091   4.047  10.687  0.0864 -0.3969 -0.2214
24073SOL     OW76903   0.979   2.008   5.785  0.1897  0.0965  0.1627
24073SOL    HW176904   0.916   1.991   5.714 -0.4218 -0.8212  0.8979
24073SOL    HW276905   1.035   2.077   5.751 -0.2615 -0.1360 -1.1157
24074SOL     OW76906   1.375   3.100  10.183  0.3161 -0.0183 -0.1022
24074SOL    HW176907   1.348   3.184  10.219  2.0882  1.6520 -2.4144
24074SOL    HW276908   1.424   3.122  10.104  1.9975 -3.1783 -0.0871
24075SOL     OW76909   7.062   1.031  11.539 -0.1450 -0.1105  0.3037
24075SOL    HW176910   7.020   1.092  11.478  1.0161 -0.5492 -0.9804
24075SOL    HW276911   7.079   0.953  11.486 -0.4093 -1.0569  1.5829
24076SOL     OW76912   6.606   7.057  10.447  0.3321 -0.1058  0.7459
24076SOL    HW176913   6.632   7.148  10.460  0.4605 -0.4236  3.0594
24076SOL    HW276914   6.678   7.019  10.395  0.4455  0.9906  0.0756
24077SOL     OW76915   2.423   9.052   5.873 -0.0449 -0.1182  0.1626
24077SOL    HW176916   2.371   8.985   5.829 -2.0333  0.1682  1.9179
24077SOL    HW276917   2.494   9.072   5.811 -2.5398  0.2058 -2.8535
24078SOL     OW76918  11.221   5.225   9.131  0.6670 -0.1169 -0.0261
24078SOL    HW176919  11.295   5.265   9.176  0.5941  0.5381 -0.4777
24078SOL    HW276920  11.144   5.266   9.171  0.6162  1.3092 -1.4603
24079SOL     OW76921   7.659   2.101   5.344  0.0713 -0.3131  0.0976
24079SOL    HW176922   7.654   2.017   5.389  1.1309 -0.7724 -0.6001
24079SOL    HW276923   7.717   2.085   5.270 -1.4069  0.4841 -1.2946
24080SOL     OW76924  11.423  11.112   2.714 -0.0316 -0.0125 -0.0569
24080SOL    HW176925  11.337  11.070   2.715 -0.5740  1.0669  0.2511
24080SOL    HW276926  11.451  11.108   2.623  0.0778 -1.2990  0.0144
24081SOL     OW76927  10.928   8.062   7.253  0.3865  0.5983 -0.4760
24081SOL    HW176928  10.997   8.121   7.284  0.6605  1.1942 -2.0933
24081SOL    HW276929  10.920   8.082   7.160 -1.5693  0.1228 -0.4545
24082SOL     OW76930   9.803  10.333   0.046  0.0984  0.4913 -0.2141
24082SOL    HW176931   9.745  10.394   0.001 -0.9898  1.6024  2.5003
24082SOL    HW276932   9.889  10.375   0.042  0.0829  0.4324 -1.4386
24083SOL     OW76933   7.805   9.633   1.250  0.3105  0.0858  0.0319
24083SOL    HW176934   7.747   9.599   1.182  0.0873 -1.8710  1.1052
24083SOL    HW276935   7.782   9.725   1.258 -2.0811 -0.4281 -0.1717
24084SOL     OW76936   1.189   0.870   5.280  0.5357 -0.2681  0.2477
24084SOL    HW176937   1.189   0.947   5.337  0.0415 -0.9621  1.2294
24084SOL    HW276938   1.281   0.844   5.275  0.6351  0.0449  0.3800
24085SOL     OW76939   2.744   1.816   6.140  0.2540 -0.5319  0.4092
24085SOL    HW176940   2.744   1.912   6.149 -0.2816 -0.5979  1.2591
24085SOL    HW276941   2.653   1.794   6.121  0.6163 -0.7772 -1.1214
24086SOL     OW76942   1.045  11.880   4.233  0.0123 -0.5156  0.0735
24086SOL    HW176943   1.065  11.926   4.315  1.6744 -1.1092  0.0361
24086SOL    HW276944   1.101  11.803   4.234 -0.2021 -0.7260 -1.4755
24087SOL     OW76945   3.343   3.042   4.867  0.7083 -0.8496 -0.8928
24087SOL    HW176946   3.416   3.050   4.928  0.0001  1.0544 -0.2381
24087SOL    HW276947   3.344   3.123   4.817 -0.2251 -1.3358 -1.7509
24088SOL     OW76948  10.752   0.783   0.304 -0.6608  0.3453 -0.0110
24088SOL    HW176949  10.726   0.710   0.248 -0.8843  0.0896  0.4207
24088SOL    HW276950  10.673   0.836   0.312 -0.3140  1.0053 -0.8793
24089SOL     OW76951   5.516   8.607   3.453  0.1432  0.4570 -0.1665
24089SOL    HW176952   5.501   8.686   3.505  0.8899 -0.5300  1.6192
24089SOL    HW276953   5.607   8.584   3.469  0.3915  0.0514 -1.8837
24090SOL     OW76954  10.674  11.575   8.259  0.0647  0.1800  0.0069
24090SOL    HW176955  10.588  11.586   8.219 -0.1063 -0.7603  0.1000
24090SOL    HW276956  10.727  11.645   8.221 -0.8997  1.1828  0.4473
24091SOL     OW76957   4.835   8.488   1.278 -0.3960 -0.2974  0.2970
24091SOL    HW176958   4.849   8.425   1.348  0.2625 -1.6168 -0.9466
24091SOL    HW276959   4.922   8.497   1.237 -0.2135  2.2650  1.0787
24092SOL     OW76960   4.148   8.627   3.010 -0.0977 -0.3249 -0.1985
24092SOL    HW176961   4.176   8.666   3.093  0.1159  0.5719 -0.6777
24092SOL    HW276962   4.078   8.567   3.034 -0.1739  0.0792  0.6156
24093SOL     OW76963   4.539   9.430   8.461  0.0550 -0.2073  0.2329
24093SOL    HW176964   4.615   9.488   8.453 -0.9041  0.9078 -1.4171
24093SOL    HW276965   4.501   9.453   8.546  0.4456  0.6529  0.1935
24094SOL     OW76966   8.784   4.114   1.756 -0.1274  0.4140 -0.2852
24094SOL    HW176967   8.696   4.076   1.752  1.0385 -2.4529 -1.0755
24094SOL    HW276968   8.799   4.147   1.667 -0.2569  0.5454 -0.2589
24095SOL     OW76969  10.241   7.428   9.966  0.4016  0.1009 -0.8405
24095SOL    HW176970  10.213   7.446  10.056  0.7746 -0.7119 -0.5576
24095SOL    HW276971  10.299   7.353   9.973 -0.0269 -0.3427 -1.8400
24096SOL     OW76972  11.621   1.415  10.177 -0.0001 -0.0070 -0.8942
24096SOL    HW176973  11.669   1.393  10.257  0.3107 -0.3757 -1.1763
24096SOL    HW276974  11.553   1.476  10.206  0.4170  0.2537 -0.4250
24097SOL     OW76975   7.088   1.498   9.238 -0.5106  0.0343  0.0703
24097SOL    HW176976   7.180   1.509   9.264 -0.4251  1.3079 -0.6913
24097SOL    HW276977   7.040   1.557   9.295 -0.9517 -1.0348  0.8447
24098SOL     OW76978   9.498   5.355   9.860  0.0508  0.0490  0.3397
24098SOL    HW176979   9.525   5.265   9.842  2.0112  0.7014 -0.2423
24098SOL    HW276980   9.496   5.361   9.955  1.4661 -0.2194  0.4158
24099SOL     OW76981   6.082  10.192   0.410 -0.4325  0.5940  0.0114
24099SOL    HW176982   6.108  10.152   0.327  2.2970 -1.7292  1.7931
24099SOL    HW276983   6.079  10.286   0.392  1.8720  0.3155 -2.2823
24100SOL     OW76984   0.913  10.201   6.928 -0.6193 -0.1141 -0.4145
24100SOL    HW176985   0.836  10.172   6.977  1.1994 -1.7107  1.6848
24100SOL    HW276986   0.943  10.122   6.882 -0.2029  0.4886 -1.2009
24101SOL     OW76987   0.205  10.886   3.962 -0.2255  0.2817 -0.3495
24101SOL    HW176988   0.134  10.882   4.026  0.6345  0.2222  0.6313
24101SOL    HW276989   0.215  10.979   3.942  0.4220  0.4561  0.6976
24102SOL     OW76990  11.211   2.536   6.085  0.2598  0.3984  0.0316
24102SOL    HW176991  11.176   2.601   6.146 -3.0434 -0.2441 -0.9992
24102SOL    HW276992  11.212   2.581   6.000 -1.3690 -0.6263 -0.5600
24103SOL     OW76993   0.860   3.336   4.744  0.3335 -0.2487 -0.4570
24103SOL    HW176994   0.844   3.393   4.819  1.3861  0.3543 -0.6733
24103SOL    HW276995   0.881   3.396   4.672  0.0081 -0.8472 -1.0602
24104SOL     OW76996   4.758   6.146   2.203 -0.1061  0.7092  0.5393
24104SOL    HW176997   4.843   6.151   2.160  0.4227  0.6946  1.5481
24104SOL    HW276998   4.761   6.066   2.255 -1.1677  0.1141 -0.2688
24105SOL     OW76999   5.819   5.018   3.029 -0.1664  0.2983  0.3463
24105SOL    HW177000   5.867   4.942   2.997 -0.9157  0.2119 -0.6049
24105SOL    HW277001   5.817   5.006   3.124  0.8835 -0.1664  0.3284
24106SOL     OW77002   9.703   2.393   7.890  0.7664  0.0419  0.4161
24106SOL    HW177003   9.678   2.342   7.968 -1.4742 -0.5206 -0.5862
24106SOL    HW277004   9.638   2.463   7.887  0.7605 -0.0147 -1.0200
24107SOL     OW77005   5.273   0.399  11.766  0.1590  0.2278 -0.7136
24107SOL    HW177006   5.202   0.347  11.803 -0.0592  0.7550 -0.3709
24107SOL    HW277007   5.340   0.335  11.742 -0.2520 -0.2371 -0.6445
24108SOL     OW77008  11.087   2.030  10.932 -0.0398 -0.3219 -0.3243
24108SOL    HW177009  11.073   1.940  10.963  0.8269 -0.3451  0.0250
24108SOL    HW277010  11.164   2.024  10.876  0.8734  0.4312  0.8020
24109SOL     OW77011   0.644   3.494   2.792  0.2128  0.3707  0.1692
24109SOL    HW177012   0.591   3.563   2.752 -0.9387 -0.7955 -0.4114
24109SOL    HW277013   0.600   3.476   2.875  1.1278  1.0510  0.8100
24110SOL     OW77014   6.773  10.193  11.067  0.8333  0.0188  0.7990
24110SOL    HW177015   6.714  10.266  11.089  1.1699  0.3239  0.6860
24110SOL    HW277016   6.858  10.219  11.103  1.0990 -0.0418  0.2233
24111SOL     OW77017   0.445  10.291   1.770 -0.1930  0.4753  0.0426
24111SOL    HW177018   0.371  10.274   1.829  0.6731 -1.7194  0.6015
24111SOL    HW277019   0.408  10.288   1.682 -0.9763  0.6775  0.3610
24112SOL     OW77020   7.364   5.421   8.697 -0.8400 -0.1852  0.1134
24112SOL    HW177021   7.315   5.417   8.778  1.6598  1.1941  1.8479
24112SOL    HW277022   7.405   5.335   8.689 -2.2239 -0.8139 -0.5198
24113SOL     OW77023   4.784   3.049   0.145  0.0294  0.1199  0.2635
24113SOL    HW177024   4.709   3.103   0.172  0.5225  1.3767 -0.7363
24113SOL    HW277025   4.856   3.078   0.201  0.2650  0.4363 -0.1919
24114SOL     OW77026  11.833   6.198   8.470 -0.3575 -0.2515 -0.3378
24114SOL    HW177027  11.841   6.293   8.483 -1.7601  0.0296 -1.3066
24114SOL    HW277028  11.785   6.167   8.546 -0.9140 -0.0006 -0.5860
24115SOL     OW77029   9.165  10.770   5.310  0.1948  0.4919 -0.0801
24115SOL    HW177030   9.230  10.701   5.321  0.8653  1.3760  1.7527
24115SOL    HW277031   9.133  10.758   5.220  1.4036 -1.2180 -0.3260
24116SOL     OW77032  11.093   1.990   3.497  0.2964 -0.5693 -0.4605
24116SOL    HW177033  11.047   1.912   3.527  0.6269  0.3909  2.9763
24116SOL    HW277034  11.183   1.961   3.481  0.5737 -0.8475  1.4147
24117SOL     OW77035   9.257   6.759   0.014  0.1604  0.6397  0.3588
24117SOL    HW177036   9.315   6.691  -0.022 -0.1938  0.6126 -0.1714
24117SOL    HW277037   9.288   6.772   0.103 -1.3547 -2.0813  1.3964
24118SOL     OW77038   2.046   0.140   9.855 -0.2301  0.1973  0.3863
24118SOL    HW177039   2.010   0.228   9.859 -2.3099 -0.6322  0.8462
24118SOL    HW277040   2.049   0.111   9.946  1.1246  0.0217  0.3089
24119SOL     OW77041   4.444   3.410   1.300  0.1160  0.1966  0.0601
24119SOL    HW177042   4.498   3.477   1.258 -0.0241 -0.4706 -1.2533
24119SOL    HW277043   4.363   3.410   1.250 -0.1837 -0.4341  0.5312
24120SOL     OW77044   8.051   6.326   7.759  0.0827  0.5040  0.3787
24120SOL    HW177045   8.056   6.325   7.663 -0.8119 -1.0204  0.3247
24120SOL    HW277046   8.131   6.371   7.786  0.4956  0.6971 -1.0745
24121SOL     OW77047   7.363   3.942   7.493 -0.7552  0.0948  0.1090
24121SOL    HW177048   7.429   3.918   7.558  0.7092 -1.3832 -1.8116
24121SOL    HW277049   7.388   3.894   7.414 -4.2393 -0.6520 -0.6889
24122SOL     OW77050   0.457   7.961  10.612  0.5205  0.4211 -0.1491
24122SOL    HW177051   0.367   7.981  10.584  0.3413  0.9066  0.7436
24122SOL    HW277052   0.463   7.865  10.606 -0.1592  0.3572  0.0948
24123SOL     OW77053   0.178   9.053   2.085 -0.3658  0.0310 -0.6817
24123SOL    HW177054   0.153   9.079   1.997 -1.0487 -0.6277 -0.6963
24123SOL    HW277055   0.266   9.016   2.076  0.1444  1.2517 -0.8414
24124SOL     OW77056   7.304  11.652  10.289  0.1413  0.3803 -0.1444
24124SOL    HW177057   7.300  11.560  10.314  1.5621  0.4552  0.4634
24124SOL    HW277058   7.398  11.674  10.293 -0.1512  1.7944 -0.4601
24125SOL     OW77059   9.035   7.521   0.071  0.2365 -0.7580 -0.2271
24125SOL    HW177060   9.110   7.577   0.052  1.2735 -1.7396  0.8058
24125SOL    HW277061   9.042   7.448   0.010 -0.0537 -0.7035 -0.3286
24126SOL     OW77062   2.431  10.981   0.049 -0.2266  0.4302  0.2170
24126SOL    HW177063   2.393  10.898   0.077 -0.3761  1.0912  2.0801
24126SOL    HW277064   2.377  11.048   0.091  1.9563  1.4131  1.5934
24127SOL     OW77065   2.996   8.319  10.867 -0.7057  0.2187  0.0439
24127SOL    HW177066   3.016   8.379  10.796 -1.2965  0.8638  0.4073
24127SOL    HW277067   3.020   8.367  10.946 -0.4150 -0.3416  0.2967
24128SOL     OW77068   4.922   7.424   0.431  0.8579 -0.0668 -0.4216
24128SOL    HW177069   4.951   7.332   0.429 -1.1429 -0.7414 -0.3502
24128SOL    HW277070   4.846   7.427   0.374 -1.3780  0.6656  2.3474
24129SOL     OW77071   6.147   8.965  10.303  0.3493 -0.2378 -0.6934
24129SOL    HW177072   6.142   9.036  10.367  2.9841  0.3792 -1.0393
24129SOL    HW277073   6.215   8.907  10.337  1.0564 -0.4622 -2.3715
24130SOL     OW77074   8.862   0.587   8.426  0.6216  0.1556  0.1500
24130SOL    HW177075   8.906   0.639   8.493  0.6562  0.3781 -0.0441
24130SOL    HW277076   8.817   0.651   8.371  0.5630 -0.0278 -0.0178
24131SOL     OW77077   2.145   5.580   4.235 -0.3642 -0.4756  0.2740
24131SOL    HW177078   2.142   5.550   4.325  0.4528  0.1135  0.5097
24131SOL    HW277079   2.142   5.500   4.183 -0.6355 -0.8284  0.8276
24132SOL     OW77080   1.936   9.826   9.768 -0.4554  0.2123  0.2428
24132SOL    HW177081   1.913   9.735   9.786  1.3567 -0.9822 -2.7048
24132SOL    HW277082   1.980   9.823   9.683 -1.7991  4.0894 -0.8083
24133SOL     OW77083   0.027   8.731   4.434 -0.3564 -0.4164  0.3023
24133SOL    HW177084   0.096   8.742   4.368  1.0688 -0.0154  1.7963
24133SOL    HW277085   0.038   8.642   4.466 -0.4573 -0.3162  0.6201
24134SOL     OW77086   4.880  10.912   9.798  0.0304 -0.3597  0.2338
24134SOL    HW177087   4.799  10.961   9.788 -0.0898 -0.3483  1.1655
24134SOL    HW277088   4.934  10.968   9.855 -0.1027 -1.2754  1.3024
24135SOL     OW77089   9.489   8.218   5.203 -0.0527  0.4830 -0.1434
24135SOL    HW177090   9.441   8.155   5.257  1.8918 -0.3405  0.6856
24135SOL    HW277091   9.427   8.241   5.134 -1.1329 -1.7042  0.0017
24136SOL     OW77092   6.257  11.361   3.253  0.7191 -0.0439  0.0051
24136SOL    HW177093   6.238  11.284   3.306  1.7627 -1.1459 -1.1571
24136SOL    HW277094   6.209  11.347   3.171  0.0948  1.0486  0.1595
24137SOL     OW77095   2.570  10.148  11.249 -0.1360 -0.1028 -0.2175
24137SOL    HW177096   2.573  10.079  11.183 -0.6813  1.1875 -1.6440
24137SOL    HW277097   2.477  10.167  11.259 -0.0402 -0.0686  0.7305
24138SOL     OW77098   0.239   1.108   7.893 -0.4193 -0.4705  0.0241
24138SOL    HW177099   0.240   1.138   7.984  0.3478 -0.4204  0.0064
24138SOL    HW277100   0.230   1.187   7.841 -2.1192 -0.5987  0.0806
24139SOL     OW77101   3.052   3.736   3.436 -0.0074  0.1213  0.0080
24139SOL    HW177102   3.128   3.754   3.492 -0.8682 -1.9091  2.0017
24139SOL    HW277103   3.081   3.667   3.377 -0.1741 -0.4580  0.5850
24140SOL     OW77104   1.050   9.658   2.147 -0.2326  0.5064 -0.4651
24140SOL    HW177105   0.986   9.604   2.193  0.5882 -1.4509 -1.4879
24140SOL    HW277106   1.122   9.669   2.208 -0.6405  0.9065 -0.0561
24141SOL     OW77107   7.461   7.605  11.444  0.0322  0.0054  0.2126
24141SOL    HW177108   7.387   7.581  11.498 -2.0568  0.8057 -2.1008
24141SOL    HW277109   7.516   7.526  11.442 -1.5787 -1.1735  0.7002
24142SOL     OW77110   8.584   5.371   9.710  0.1573  0.1313  0.0295
24142SOL    HW177111   8.551   5.415   9.789 -0.9033 -0.1359 -0.2485
24142SOL    HW277112   8.669   5.413   9.693  0.4101  0.1851  1.3139
24143SOL     OW77113   2.440   8.118   8.179 -0.6482  0.2451 -0.0087
24143SOL    HW177114   2.368   8.159   8.226  0.8572  1.0805  1.7105
24143SOL    HW277115   2.439   8.027   8.209  0.1933  0.7336  1.5701
24144SOL     OW77116   2.658   4.854   9.767 -0.3837 -0.4828  0.2414
24144SOL    HW177117   2.675   4.793   9.696  0.3553 -1.6247  1.3641
24144SOL    HW277118   2.631   4.935   9.723  1.3059 -0.7407 -1.3917
24145SOL     OW77119   5.449   7.773  11.392 -0.0489  0.2085  0.7365
24145SOL    HW177120   5.490   7.837  11.451 -1.4071  0.0718  1.8923
24145SOL    HW277121   5.355   7.790  11.401 -0.3271 -0.5259 -0.6154
24146SOL     OW77122   4.220   2.339   4.683 -0.3496 -0.8935  0.8077
24146SOL    HW177123   4.282   2.358   4.612 -1.9685  0.1581 -0.4206
24146SOL    HW277124   4.145   2.396   4.664 -2.3504 -3.1874  1.3283
24147SOL     OW77125   8.868   6.444   3.200  0.0476 -0.0841  0.2591
24147SOL    HW177126   8.795   6.404   3.154  0.1755  1.0265 -0.9854
24147SOL    HW277127   8.861   6.538   3.179 -0.3703  0.6283  3.2131
24148SOL     OW77128   8.192   9.658   4.363 -0.8524  0.3200 -0.1362
24148SOL    HW177129   8.176   9.582   4.420 -1.5861  0.7755  0.2778
24148SOL    HW277130   8.275   9.694   4.394 -0.3964 -0.4208 -0.4624
24149SOL     OW77131   9.588   9.202   0.419 -0.0449  0.2134 -0.2734
24149SOL    HW177132   9.579   9.203   0.323 -0.3337  0.3949 -0.2461
24149SOL    HW277133   9.618   9.290   0.440  0.3715  0.0590 -0.2304
24150SOL     OW77134   6.628  11.478   3.226 -0.0707 -0.0778 -0.0827
24150SOL    HW177135   6.672  11.561   3.245 -0.7862  0.1238  0.7339
24150SOL    HW277136   6.605  11.485   3.133 -2.1299  1.6439  0.4608
24151SOL     OW77137   0.367   2.888   8.843 -0.0437  0.4165  1.0166
24151SOL    HW177138   0.274   2.902   8.827  0.1630 -0.1129 -0.9017
24151SOL    HW277139   0.406   2.975   8.836 -0.3151  0.5600  1.2749
24152SOL     OW77140   5.268  10.333   6.738 -0.1008 -0.3393 -0.4203
24152SOL    HW177141   5.242  10.364   6.825 -0.2246 -1.1661 -0.1471
24152SOL    HW277142   5.214  10.255   6.724  2.2997 -2.2587  0.2601
24153SOL     OW77143   9.044   4.952   7.167 -0.1725 -0.2716 -0.2249
24153SOL    HW177144   9.095   4.880   7.205 -0.2606 -0.2551 -0.0738
24153SOL    HW277145   9.049   4.938   7.073 -1.9911 -1.7173 -0.1482
24154SOL     OW77146   9.289   2.815   5.351  0.0544 -0.1951 -0.0963
24154SOL    HW177147   9.369   2.832   5.300 -0.5478  0.3051 -0.9093
24154SOL    HW277148   9.298   2.870   5.429  0.4447 -0.0302 -0.2538
24155SOL     OW77149   8.406   8.872   3.224  0.1401  0.1414  0.0870
24155SOL    HW177150   8.425   8.788   3.182 -0.0127 -0.6696  1.5431
24155SOL    HW277151   8.387   8.849   3.315 -1.7809  1.5618  0.1038
24156SOL     OW77152  11.643   2.317  10.615 -0.4747 -0.0885  0.2416
24156SOL    HW177153  11.579   2.328  10.685 -0.2353  0.8252  0.3353
24156SOL    HW277154  11.597   2.270  10.546 -1.7862  1.9688 -0.3750
24157SOL     OW77155   0.245   7.758   0.912  0.1277 -0.2181  0.0973
24157SOL    HW177156   0.204   7.844   0.906  1.6137  0.5267  0.1423
24157SOL    HW277157   0.186   7.707   0.968 -1.2923  0.4314 -0.7777
24158SOL     OW77158   8.110   4.080   9.385  0.2470 -0.2313  0.0413
24158SOL    HW177159   8.196   4.107   9.351 -1.2805  3.3069 -1.4660
24158SOL    HW277160   8.075   4.023   9.316 -0.4698  2.2279 -1.7468
24159SOL     OW77161   0.818  11.721   3.117  0.6306  0.2001 -0.3517
24159SOL    HW177162   0.844  11.644   3.168 -5.1104 -1.0448  1.4909
24159SOL    HW277163   0.840  11.795   3.174  1.7151 -0.4455  0.1120
24160SOL     OW77164   8.279   6.086   1.861  0.2256  0.4859  0.6508
24160SOL    HW177165   8.341   6.031   1.813 -0.7096  1.5523 -1.9142
24160SOL    HW277166   8.194   6.043   1.849 -0.0126  0.6499  1.6108
24161SOL     OW77167   7.119   9.038   0.819  0.8490  0.2264 -0.1618
24161SOL    HW177168   7.107   8.994   0.904  2.5236 -0.3904 -0.2080
24161SOL    HW277169   7.111   9.131   0.840  2.3254  0.1543  0.9219
24162SOL     OW77170   4.105  10.550   1.853  0.3074 -0.0017  0.2162
24162SOL    HW177171   4.128  10.457   1.851 -0.4506 -0.2149  0.9975
24162SOL    HW277172   4.152  10.587   1.778  0.0112 -1.1494 -0.5800
24163SOL     OW77173   2.665   8.970   5.971  0.0415  0.6162  0.3537
24163SOL    HW177174   2.684   8.924   5.890 -1.2611 -0.9745  0.9059
24163SOL    HW277175   2.570   8.983   5.970 -0.2195 -0.6934  2.2104
24164SOL     OW77176   6.043   8.108   4.462 -0.2922 -0.4280 -0.8974
24164SOL    HW177177   6.103   8.182   4.472 -1.1594  0.2756 -0.7757
24164SOL    HW277178   6.083   8.055   4.393  0.4794  0.0102 -0.8112
24165SOL     OW77179   0.358   6.576   6.007 -0.7392 -0.0367 -0.2229
24165SOL    HW177180   0.394   6.652   6.052 -0.0112 -0.2760 -0.3827
24165SOL    HW277181   0.423   6.508   6.020 -0.6259 -0.1777 -1.4172
24166SOL     OW77182   2.994   7.055  10.848  0.4271 -0.3951 -0.7243
24166SOL    HW177183   2.937   6.978  10.839 -0.5279  0.2197 -0.0742
24166SOL    HW277184   3.005   7.087  10.758 -0.9974 -0.0149 -0.7823
24167SOL     OW77185   4.744   0.902   0.319 -0.7226  0.0199 -0.4012
24167SOL    HW177186   4.662   0.882   0.274 -0.2992 -3.2017  0.0294
24167SOL    HW277187   4.719   0.919   0.410 -1.1782  2.6380 -0.9400
24168SOL     OW77188   9.940   5.445   8.986  0.2840  0.0738 -0.0022
24168SOL    HW177189   9.955   5.486   8.900  0.0483 -0.4528 -0.2957
24168SOL    HW277190  10.000   5.370   8.987 -2.0038 -1.8886 -1.0670
24169SOL     OW77191   3.314   4.152  11.077 -0.9495 -0.2146  0.1815
24169SOL    HW177192   3.315   4.056  11.081 -3.5478 -0.4231 -1.6305
24169SOL    HW277193   3.327   4.172  10.984  0.6247  1.3105  0.6684
24170SOL     OW77194  10.181   6.087   5.253 -0.2467  0.0780 -0.1085
24170SOL    HW177195  10.117   6.033   5.300 -0.9438  2.0105  1.3208
24170SOL    HW277196  10.141   6.175   5.252  1.3220  0.8157 -1.3260
24171SOL     OW77197   2.787   8.490   6.815  0.5534 -0.3584 -0.2259
24171SOL    HW177198   2.752   8.403   6.833 -2.9372  0.7559 -0.8734
24171SOL    HW277199   2.805   8.528   6.901 -0.9109 -0.6771  0.2566
24172SOL     OW77200   8.555   1.864   5.388 -0.1117  0.4237 -0.4736
24172SOL    HW177201   8.495   1.791   5.404 -1.7452  1.5418 -1.2165
24172SOL    HW277202   8.597   1.843   5.305  1.3388 -0.8443  0.5208
24173SOL     OW77203   2.897   9.508   0.106 -0.7708 -0.3385 -0.2741
24173SOL    HW177204   2.884   9.415   0.086 -0.4469 -1.0936  2.5223
24173SOL    HW277205   2.819   9.533   0.156 -0.7156  0.8260 -0.7393
24174SOL     OW77206   6.058   1.746  11.100  0.5013  0.4343 -0.1670
24174SOL    HW177207   6.111   1.823  11.083 -2.2541  2.7890  1.0425
24174SOL    HW277208   6.002   1.738  11.023 -0.3992  0.7478  0.4365
24175SOL     OW77209   3.369   9.574   8.289 -0.4714  0.3161 -0.5470
24175SOL    HW177210   3.398   9.612   8.207  1.1066  2.4244  0.8746
24175SOL    HW277211   3.403   9.633   8.357 -0.7566 -1.8918  1.6872
24176SOL     OW77212   9.608   3.867   3.207 -0.4294 -0.5605  0.4039
24176SOL    HW177213   9.657   3.867   3.125 -1.6984 -1.8715 -0.4202
24176SOL    HW277214   9.666   3.907   3.271 -0.7456  4.1572 -1.8665
24177SOL     OW77215   5.515  11.226   2.294 -0.3656  0.0878 -0.1408
24177SOL    HW177216   5.502  11.272   2.211 -0.7698  1.2970  0.5665
24177SOL    HW277217   5.439  11.169   2.302  0.3093 -1.0136 -1.1916
24178SOL     OW77218   0.766   2.215   3.764  0.1975 -0.1305 -0.0697
24178SOL    HW177219   0.833   2.196   3.829 -0.4164 -1.6931  0.1399
24178SOL    HW277220   0.814   2.255   3.691  0.8635  1.8404  1.3750
24179SOL     OW77221  11.206   3.746  10.880  0.6712 -0.1212  0.4154
24179SOL    HW177222  11.202   3.831  10.925 -0.8122  0.0892 -0.0573
24179SOL    HW277223  11.216   3.769  10.788 -2.9862 -0.2447 -0.1676
24180SOL     OW77224   0.809   8.106   7.267  0.4112 -0.4849 -0.0066
24180SOL    HW177225   0.727   8.061   7.245 -1.5068  2.1630  1.0973
24180SOL    HW277226   0.794   8.139   7.356  2.2935  0.9007 -0.1471
24181SOL     OW77227   4.023   5.837   2.341 -0.9035  0.4784 -0.2368
24181SOL    HW177228   4.069   5.892   2.277  0.8687 -1.5400 -0.8035
24181SOL    HW277229   4.085   5.828   2.414 -0.8861 -1.1981 -0.4175
24182SOL     OW77230  10.277   8.676   5.544  0.5027 -0.1164 -0.3798
24182SOL    HW177231  10.233   8.603   5.588 -2.4856  0.6980 -1.7415
24182SOL    HW277232  10.276   8.747   5.608 -1.6989  0.3505 -0.8503
24183SOL     OW77233   7.567   7.856   8.128 -0.0442  0.2395 -0.8080
24183SOL    HW177234   7.542   7.784   8.071  1.0332 -0.7438 -0.0857
24183SOL    HW277235   7.490   7.873   8.182 -0.1234 -0.7914 -0.5773
24184SOL     OW77236   3.886   6.095  10.928 -0.2676 -0.8222 -0.3831
24184SOL    HW177237   3.973   6.116  10.962 -0.2476  0.1113 -0.9839
24184SOL    HW277238   3.882   6.000  10.930  1.1655 -0.9373 -1.2937
24185SOL     OW77239   1.443  11.715  11.314 -0.0785  0.4625 -0.4615
24185SOL    HW177240   1.373  11.732  11.376  2.2200  0.6897  2.2651
24185SOL    HW277241   1.502  11.790  11.322  0.7031  0.1146 -2.3732
24186SOL     OW77242  11.484   6.953   3.023  0.1736  0.5705  0.0046
24186SOL    HW177243  11.530   6.950   2.939  1.9832  1.6141  0.8898
24186SOL    HW277244  11.403   6.999   3.004 -1.0510 -2.0835 -1.7880
24187SOL     OW77245   2.400   2.829   1.886 -0.1332  0.1471  0.3800
24187SOL    HW177246   2.414   2.833   1.791  0.3480 -1.2819  0.3631
24187SOL    HW277247   2.481   2.861   1.924  0.4387 -1.1144  0.2817
24188SOL     OW77248   8.589   2.802  10.940  0.2390  0.0214  0.5166
24188SOL    HW177249   8.649   2.730  10.957  1.6649  1.2437  0.9099
24188SOL    HW277250   8.646   2.879  10.929 -1.1971  1.0361 -0.1956
24189SOL     OW77251   3.438   9.872   4.713  0.2103 -0.3260 -0.4392
24189SOL    HW177252   3.353   9.847   4.678  0.6571 -0.5818 -1.3623
24189SOL    HW277253   3.439   9.834   4.801 -0.6567 -0.2441 -0.3797
24190SOL     OW77254   0.638   3.902  11.656 -0.1078  0.2203  0.0983
24190SOL    HW177255   0.545   3.922  11.671  0.0057 -0.8636  2.8089
24190SOL    HW277256   0.646   3.809  11.679  1.5540  0.1160 -0.7500
24191SOL     OW77257   6.720   1.273   0.813  0.1329  0.4005  0.1150
24191SOL    HW177258   6.717   1.213   0.738 -0.3997  1.2271 -0.5489
24191SOL    HW277259   6.812   1.279   0.836  0.2171 -0.4984  0.0633
24192SOL     OW77260   1.893   9.040   4.144  0.6320 -0.5019  0.1749
24192SOL    HW177261   1.976   8.993   4.136  0.0627 -1.2993 -2.1928
24192SOL    HW277262   1.893   9.101   4.070 -0.6334 -0.1036  0.4811
24193SOL     OW77263   8.566  10.937   6.827 -0.0445 -0.2056 -0.5390
24193SOL    HW177264   8.484  10.984   6.844  0.8883  1.4575 -0.4426
24193SOL    HW277265   8.577  10.881   6.904 -0.9416 -0.2349 -0.4187
24194SOL     OW77266   2.417   8.531   0.552 -0.5037  0.6970 -0.6568
24194SOL    HW177267   2.475   8.465   0.514  0.1482 -0.0590  1.4820
24194SOL    HW277268   2.377   8.574   0.477 -0.5325 -1.7530 -2.1415
24195SOL     OW77269   0.281   0.029   9.940 -0.5346  0.5278  0.5294
24195SOL    HW177270   0.356  -0.025   9.916  0.8917  2.7614 -0.3778
24195SOL    HW277271   0.213   0.005   9.877  0.6869  1.0010 -1.0506
24196SOL     OW77272  10.431   2.161  11.580  0.1165 -0.2651  0.3855
24196SOL    HW177273  10.440   2.198  11.668 -2.0354  0.4287  0.3739
24196SOL    HW277274  10.459   2.070  11.588  0.6230 -0.0124  1.6130
24197SOL     OW77275   9.477   0.816   5.757 -0.5279 -1.0947  0.3552
24197SOL    HW177276   9.386   0.787   5.757 -0.4527 -1.3878  1.7354
24197SOL    HW277277   9.475   0.903   5.797 -0.3137 -0.6513 -0.5615
24198SOL     OW77278   3.271   1.887   1.532 -0.3396 -0.1580  0.1230
24198SOL    HW177279   3.230   1.965   1.494  0.8560  0.5190  0.1613
24198SOL    HW277280   3.299   1.836   1.456 -0.1537 -0.0172  0.0963
24199SOL     OW77281   2.171   1.738   5.196 -0.1135 -0.2311  0.4775
24199SOL    HW177282   2.136   1.651   5.179  0.1345 -0.5685  1.5665
24199SOL    HW277283   2.110   1.776   5.260 -0.8334  0.8322 -0.8073
24200SOL     OW77284   6.014   5.724   9.819  0.0475 -0.1373  0.4105
24200SOL    HW177285   6.067   5.644   9.815  0.5646  0.2498 -1.3781
24200SOL    HW277286   6.038   5.763   9.903  1.6667 -0.6349  0.2323
24201SOL     OW77287   7.715   8.513   8.548 -0.2520  0.0669  0.0553
24201SOL    HW177288   7.653   8.487   8.479 -1.0685  1.3463  0.2849
24201SOL    HW277289   7.709   8.443   8.613  0.2774 -0.9894 -0.9934
24202SOL     OW77290   9.846   3.374   9.799 -0.2434 -0.0617  0.3285
24202SOL    HW177291   9.812   3.413   9.719 -0.0013  0.4659  0.4816
24202SOL    HW277292   9.856   3.281   9.778 -0.3774  0.0383 -0.1838
24203SOL     OW77293   9.110   6.453   0.258 -0.0041 -0.6231  0.0070
24203SOL    HW177294   9.025   6.493   0.274  1.2650  3.0090 -1.2987
24203SOL    HW277295   9.167   6.488   0.326  1.0092 -0.9469 -0.6394
24204SOL     OW77296   0.815   9.728   8.433 -0.0551  0.5071  0.1920
24204SOL    HW177297   0.838   9.648   8.384  1.1739  0.1319  1.3325
24204SOL    HW277298   0.738   9.702   8.484 -1.4786  0.9604 -1.6140
24205SOL     OW77299  11.520   8.834   6.711 -0.1579 -0.1610  0.6339
24205SOL    HW177300  11.543   8.781   6.635 -0.3278  3.6908 -2.3881
24205SOL    HW277301  11.603   8.850   6.756  0.6147  0.5944 -0.9868
24206SOL     OW77302   3.971   4.943   2.911 -0.2932  0.3673 -0.3974
24206SOL    HW177303   3.905   4.969   2.976  0.8987  1.0369  0.5946
24206SOL    HW277304   3.961   4.848   2.903  1.7895 -0.3962  3.5202
24207SOL     OW77305  11.925   0.224   3.698 -0.3709 -0.5908 -0.0273
24207SOL    HW177306  11.833   0.226   3.727 -0.3010 -1.9177  0.3549
24207SOL    HW277307  11.954   0.135   3.717  0.8972 -0.2971 -0.4945
24208SOL     OW77308   1.851  11.584   0.481 -0.2559 -0.2357  0.0501
24208SOL    HW177309   1.917  11.544   0.538 -0.2072 -2.2064 -1.2679
24208SOL    HW277310   1.895  11.661   0.444  1.0548 -1.0510 -0.1765
24209SOL     OW77311   8.182   7.691   0.604 -0.0828 -0.5440 -0.1875
24209SOL    HW177312   8.118   7.642   0.655 -1.7500  1.5519 -0.1334
24209SOL    HW277313   8.182   7.649   0.518 -0.0240 -1.7856  0.3996
24210SOL     OW77314   5.457  10.701   3.822 -0.3220  0.1671 -0.3815
24210SOL    HW177315   5.527  10.742   3.874  0.5985 -0.0913 -1.3806
24210SOL    HW277316   5.492  10.700   3.733 -2.5074  2.1267 -1.3707
24211SOL     OW77317  11.666   3.772   2.886  0.1826 -0.1985 -0.0121
24211SOL    HW177318  11.631   3.835   2.823  0.5386  0.0469  0.0381
24211SOL    HW277319  11.642   3.687   2.849  1.5953 -0.1083 -1.1979
24212SOL     OW77320   7.782   1.235   4.184 -0.0812 -0.7774 -0.4624
24212SOL    HW177321   7.820   1.192   4.261  0.7014  0.4467 -0.1369
24212SOL    HW277322   7.754   1.163   4.128  0.7447 -1.7066  0.2786
24213SOL     OW77323   7.055   0.068   7.023  0.2685  0.4359 -0.2132
24213SOL    HW177324   7.003   0.104   6.951 -0.2563 -1.8418 -1.0631
24213SOL    HW277325   7.077   0.144   7.077 -3.2844  1.6830 -0.2335
24214SOL     OW77326   0.734   1.879   1.077  0.2437  0.7026 -0.0076
24214SOL    HW177327   0.690   1.846   1.155 -1.1794  1.3987 -0.4853
24214SOL    HW277328   0.825   1.892   1.105 -0.0840  0.3071  1.3261
24215SOL     OW77329  10.306   1.745   7.923  0.0441 -0.3060 -0.3190
24215SOL    HW177330  10.226   1.708   7.960  0.2169 -1.1609 -0.7557
24215SOL    HW277331  10.368   1.744   7.995  0.1481 -1.2261 -0.4037
24216SOL     OW77332   4.023   0.230   0.542  0.4950 -0.4354  0.1336
24216SOL    HW177333   3.963   0.285   0.491  0.9217  0.0072  0.0980
24216SOL    HW277334   3.966   0.174   0.594  0.0494 -0.1561 -0.0465
24217SOL     OW77335   3.637  10.588   3.476 -0.1902 -0.1646  0.3809
24217SOL    HW177336   3.654  10.613   3.567 -2.3728  1.0279  0.5363
24217SOL    HW277337   3.699  10.517   3.458  2.0808  1.2952  1.9457
24218SOL     OW77338  10.921  11.915  11.321 -0.4163 -0.0567  0.1956
24218SOL    HW177339  10.958  11.905  11.234  1.9994 -0.5795  1.1979
24218SOL    HW277340  10.973  11.857  11.376 -2.0360  0.0652  1.9601
24219SOL     OW77341  10.750   1.919   8.942  0.0387 -0.3939  0.5659
24219SOL    HW177342  10.771   1.972   8.865  2.4905 -1.2444  0.5487
24219SOL    HW277343  10.667   1.877   8.921 -0.3190  0.8846 -0.7638
24220SOL     OW77344   5.896  10.345   5.757  0.0730 -0.0006  0.5583
24220SOL    HW177345   5.846  10.407   5.704  2.4981  3.1521  1.6719
24220SOL    HW277346   5.848  10.341   5.840  0.3015  0.9877  0.7394
24221SOL     OW77347   2.277   8.518   0.867 -0.1744  0.4728  0.7364
24221SOL    HW177348   2.344   8.579   0.836 -0.8149  0.5360 -0.6143
24221SOL    HW277349   2.204   8.574   0.894 -0.4588  0.3455  0.2482
24222SOL     OW77350   0.383   4.569   4.369 -0.5724  0.0030 -0.2180
24222SOL    HW177351   0.449   4.638   4.366 -1.7284  1.0893 -1.9577
24222SOL    HW277352   0.395   4.521   4.287 -0.5230 -1.1894  0.4670
24223SOL     OW77353   8.872   5.487   6.835 -0.3457  0.2744  0.2055
24223SOL    HW177354   8.831   5.465   6.918 -0.2489 -1.8303 -0.2437
24223SOL    HW277355   8.840   5.574   6.814 -2.5082 -0.2361  1.1448
24224SOL     OW77356   6.453   7.583   9.343  0.3919  0.2868 -0.8764
24224SOL    HW177357   6.522   7.613   9.401  0.4868  0.6349 -1.1645
24224SOL    HW277358   6.495   7.575   9.257  0.3770 -0.7103 -0.8062
24225SOL     OW77359   1.247   7.618   4.133 -0.2200 -0.2638 -0.0172
24225SOL    HW177360   1.291   7.543   4.173  1.0630  0.1713 -0.5335
24225SOL    HW277361   1.219   7.586   4.047  1.1102  0.0438 -0.6041
24226SOL     OW77362   7.501   3.646   9.533 -0.0631  0.4481  0.0071
24226SOL    HW177363   7.542   3.730   9.514 -1.9227  1.1760 -1.1281
24226SOL    HW277364   7.527   3.589   9.461  0.4777  0.3269  0.2990
24227SOL     OW77365   5.701   1.009  11.949 -0.0951 -0.1242  0.0845
24227SOL    HW177366   5.693   0.996  11.855 -2.7286 -0.0911  0.2157
24227SOL    HW277367   5.694   0.921  11.986  0.2346 -0.0717  0.2729
24228SOL     OW77368  11.429   0.900   3.675  0.3801  0.1235 -0.0911
24228SOL    HW177369  11.470   0.879   3.591  2.6907  0.5442  0.8673
24228SOL    HW277370  11.379   0.980   3.658  0.5562  0.0273 -1.1291
24229SOL     OW77371   2.758   0.513   5.383 -0.4414 -0.0354  0.1107
24229SOL    HW177372   2.672   0.494   5.347 -0.8884 -1.4346  1.7679
24229SOL    HW277373   2.741   0.537   5.475  0.9394 -0.8875  0.6255
24230SOL     OW77374   8.774   4.916   4.378 -0.4102  0.3297 -0.0985
24230SOL    HW177375   8.829   4.880   4.447 -0.6705 -0.6027 -0.3692
24230SOL    HW277376   8.831   4.979   4.332 -0.1921  0.8335  0.8483
24231SOL     OW77377   8.573   8.189  10.314  0.6367 -0.5340 -0.2269
24231SOL    HW177378   8.479   8.184  10.297  0.4058 -0.7541  1.0163
24231SOL    HW277379   8.580   8.244  10.393  1.5704 -0.2828 -0.4735
24232SOL     OW77380   0.798   7.980   0.812 -0.0402 -0.1864  0.6289
24232SOL    HW177381   0.795   7.968   0.717  1.2870 -2.0932  0.7649
24232SOL    HW277382   0.888   8.006   0.830 -0.0802 -0.5770  1.4333
24233SOL     OW77383   1.176  10.475   9.422 -0.7310 -0.0396 -0.1441
24233SOL    HW177384   1.128  10.501   9.500 -2.8023 -0.2813 -1.2533
24233SOL    HW277385   1.200  10.557   9.379  0.0107  0.0855  0.5025
24234SOL     OW77386   5.903   7.965  11.284  0.1497  0.0641  0.0769
24234SOL    HW177387   5.851   7.896  11.325  0.4026  0.0448  0.3685
24234SOL    HW277388   5.974   7.920  11.240  0.8578  0.1792  1.0510
24235SOL     OW77389   2.375   6.092   8.521  0.9703  0.1442  0.3413
24235SOL    HW177390   2.338   6.181   8.527  0.6499  0.1977 -1.6854
24235SOL    HW277391   2.470   6.106   8.526  0.9417  0.6590 -0.3465
24236SOL     OW77392   9.287   6.305   2.915 -0.0972 -0.4406  0.2193
24236SOL    HW177393   9.236   6.376   2.954 -0.4053  0.3324 -1.5318
24236SOL    HW277394   9.225   6.233   2.908 -0.3713 -0.1922  0.0502
24237SOL     OW77395   5.842   4.882   0.127  0.1197 -0.4128 -0.2794
24237SOL    HW177396   5.868   4.921   0.210 -0.7602 -1.7490  0.6623
24237SOL    HW277397   5.834   4.789   0.145 -2.0831 -0.4988 -1.3213
24238SOL     OW77398   9.957   0.006  11.100  0.0217 -0.8134  0.0338
24238SOL    HW177399  10.022   0.070  11.127 -1.8485  1.0653  0.2930
24238SOL    HW277400   9.932   0.032  11.011 -0.8478 -1.0798  0.1840
24239SOL     OW77401   1.315   2.834   8.601  0.2146 -0.1793 -0.1622
24239SOL    HW177402   1.377   2.893   8.558  2.3089 -3.4131 -2.0445
24239SOL    HW277403   1.325   2.852   8.695  0.9069  2.1774 -0.6304
24240SOL     OW77404   8.527  11.841   2.928 -0.5193  0.0990  0.3559
24240SOL    HW177405   8.505  11.878   2.843  3.0863  1.8915 -0.0007
24240SOL    HW277406   8.565  11.756   2.908  0.3588  0.5333  0.1006
24241SOL     OW77407   2.232  11.456   9.977  0.8843  0.5612 -0.5695
24241SOL    HW177408   2.269  11.532   9.932  1.6005  0.5842  0.0570
24241SOL    HW277409   2.270  11.458  10.064  0.4808 -0.2106 -0.3671
24242SOL     OW77410   1.482   7.376   0.288  0.0874 -0.3189  0.7008
24242SOL    HW177411   1.511   7.456   0.333  2.3452 -0.9837  0.5946
24242SOL    HW277412   1.551   7.359   0.224 -1.1595 -1.4935 -0.3737
24243SOL     OW77413   2.062   3.029   3.952 -0.5809 -0.1334 -0.0869
24243SOL    HW177414   2.056   3.032   3.857 -1.8832 -1.1735 -0.0549
24243SOL    HW277415   2.122   2.957   3.971 -1.0348 -0.5104 -0.0966
24244SOL     OW77416   1.010   7.446   5.289 -0.5071  0.9412 -0.2870
24244SOL    HW177417   0.931   7.468   5.240 -0.1640 -0.1077 -1.3655
24244SOL    HW277418   1.066   7.524   5.282 -0.7339  1.0460 -1.0205
24245SOL     OW77419   5.443   1.626   8.447  0.0877 -0.3901 -0.3784
24245SOL    HW177420   5.519   1.653   8.499  0.0513 -0.1994 -0.4212
24245SOL    HW277421   5.404   1.554   8.497  0.0031 -0.1526 -0.0924
24246SOL     OW77422   0.043   3.503   4.279  0.0724 -0.0754 -0.0449
24246SOL    HW177423   0.127   3.518   4.323  0.1640 -0.0922 -0.2142
24246SOL    HW277424  -0.021   3.499   4.350  0.2955 -0.6362  0.1290
24247SOL     OW77425   9.393   2.114   2.023  0.2250 -0.5143 -0.4540
24247SOL    HW177426   9.382   2.029   2.064  1.3466  0.1924  1.4383
24247SOL    HW277427   9.338   2.173   2.074 -0.3336 -0.0371 -1.5767
24248SOL     OW77428  11.448   1.826   8.418 -0.4749 -0.7417  0.2376
24248SOL    HW177429  11.433   1.747   8.366 -0.0378 -2.4310  2.5051
24248SOL    HW277430  11.416   1.803   8.506 -2.0624  2.2820  0.5779
24249SOL     OW77431   5.262   5.966   6.685  0.3041  0.1330 -0.3005
24249SOL    HW177432   5.325   5.895   6.671  0.9642  0.3666  1.3312
24249SOL    HW277433   5.301   6.041   6.641  1.0997  0.2263  0.5332
24250SOL     OW77434   0.954  11.059   8.191  0.4126  0.0973  0.4285
24250SOL    HW177435   0.942  11.002   8.266  0.1351  0.2068  0.4694
24250SOL    HW277436   1.002  11.135   8.226 -0.3162  0.4645  0.6453
24251SOL     OW77437   3.169   7.918  11.937 -0.2024 -0.5676  0.0162
24251SOL    HW177438   3.210   7.983  11.995 -0.5522 -1.4906  1.3428
24251SOL    HW277439   3.088   7.959  11.908  0.0446 -0.0384  0.0629
24252SOL     OW77440   4.172   3.073   5.126 -0.0364 -0.1556 -0.4480
24252SOL    HW177441   4.147   3.164   5.142  0.0753 -0.4791  1.9570
24252SOL    HW277442   4.104   3.021   5.171 -0.1548 -1.2886 -1.8477
24253SOL     OW77443   8.509   6.826   9.127  0.3969 -0.6193 -0.1734
24253SOL    HW177444   8.437   6.808   9.187  0.3053  0.0992 -0.0649
24253SOL    HW277445   8.562   6.892   9.171  0.0766  0.2602 -1.0753
24254SOL     OW77446   4.399   4.959   4.670  0.3648 -0.5977  0.3097
24254SOL    HW177447   4.469   4.937   4.732 -0.5430 -1.2055  1.1560
24254SOL    HW277448   4.355   4.876   4.654 -0.2393 -0.2012 -0.1158
24255SOL     OW77449   3.031   5.903   7.267 -0.2320 -0.3611  0.3489
24255SOL    HW177450   2.981   5.951   7.200  0.2541 -1.4726 -0.8684
24255SOL    HW277451   3.118   5.942   7.265  0.2321 -1.3758 -0.8079
24256SOL     OW77452  10.368   0.045   4.931  0.2204  0.1876 -0.1279
24256SOL    HW177453  10.446  -0.008   4.916  0.0342  0.6891 -3.4676
24256SOL    HW277454  10.400   0.135   4.932 -0.3939  0.5266 -3.2153
24257SOL     OW77455   2.053   5.246   6.738  0.9491  0.2177  0.3892
24257SOL    HW177456   1.959   5.263   6.746  1.0264  1.1134 -0.4228
24257SOL    HW277457   2.067   5.164   6.786 -0.4657 -0.6346 -0.6045
24258SOL     OW77458   8.330   2.873   9.393 -0.1714 -0.0975  0.1724
24258SOL    HW177459   8.245   2.841   9.424 -0.1050  0.5366  1.0398
24258SOL    HW277460   8.310   2.953   9.345 -0.3051 -1.2160 -1.7590
24259SOL     OW77461   2.884   5.292   4.426  0.4709 -0.4428 -0.1145
24259SOL    HW177462   2.867   5.276   4.518  1.7702 -1.0778  0.0354
24259SOL    HW277463   2.949   5.362   4.425  2.2674 -2.0258 -0.4225
24260SOL     OW77464  11.894   8.188  10.333  0.2851 -0.1514 -0.1405
24260SOL    HW177465  11.931   8.102  10.311  1.1251  0.3339 -0.6500
24260SOL    HW277466  11.952   8.251  10.291  0.1504  0.7070  0.9059
24261SOL     OW77467   7.026  11.717  11.591 -0.1948  0.3344 -0.4655
24261SOL    HW177468   7.054  11.798  11.633 -0.9738  1.0931 -1.3746
24261SOL    HW277469   6.980  11.669  11.660 -0.4703  1.0460 -0.1413
24262SOL     OW77470   5.810   8.898  10.792 -0.0720 -0.2441  0.0725
24262SOL    HW177471   5.738   8.883  10.854 -0.2319 -0.6280 -0.2053
24262SOL    HW277472   5.781   8.970  10.737 -0.0775 -0.1379  0.2121
24263SOL     OW77473  11.381   0.736  10.967 -0.5615  0.3460  0.4064
24263SOL    HW177474  11.355   0.762  10.878 -1.8120  1.7595  1.1466
24263SOL    HW277475  11.300   0.737  11.017  0.2293  0.2485  1.7400
24264SOL     OW77476  11.700   8.101   2.655 -0.4005  0.1492  0.4582
24264SOL    HW177477  11.748   8.020   2.669  1.4823  1.5970  3.4775
24264SOL    HW277478  11.673   8.128   2.742 -1.2173  2.6181 -0.4705
24265SOL     OW77479   0.244   9.151   7.427  0.6161  0.2704 -0.3113
24265SOL    HW177480   0.282   9.065   7.443  0.9918  0.2470 -1.2472
24265SOL    HW277481   0.163   9.153   7.479  1.5739  0.0970  1.2472
24266SOL     OW77482   4.257   3.252   7.784 -0.3784  0.1148  0.0637
24266SOL    HW177483   4.239   3.309   7.709  0.8730  0.6271  0.1219
24266SOL    HW277484   4.243   3.163   7.750  2.4119  0.1767 -1.5493
24267SOL     OW77485   2.062  10.233   5.554  0.3058  0.2195  0.2386
24267SOL    HW177486   2.116  10.304   5.520  0.5432  0.3436  0.8572
24267SOL    HW277487   2.107  10.153   5.524  0.7850  0.3228  0.6586
24268SOL     OW77488   9.149   7.384   7.756  0.3976  0.7784  0.1092
24268SOL    HW177489   9.178   7.371   7.846  1.0659 -0.3753 -0.2446
24268SOL    HW277490   9.230   7.398   7.706  0.2641 -0.7891 -0.6297
24269SOL     OW77491   8.141   8.598   3.659  0.2991 -0.8685  0.0789
24269SOL    HW177492   8.102   8.659   3.597 -1.6260 -2.3631 -0.2839
24269SOL    HW277493   8.207   8.650   3.705  0.7324  0.6790 -2.1382
24270SOL     OW77494  10.875  10.500   8.788  0.4577  0.0020 -0.1574
24270SOL    HW177495  10.844  10.564   8.724  0.2104  0.2517  0.2053
24270SOL    HW277496  10.966  10.524   8.805  0.0493  0.9621  0.8092
24271SOL     OW77497   4.593   7.304   5.402 -0.2515  0.3001 -0.2493
24271SOL    HW177498   4.576   7.231   5.461 -0.3912  0.6586  0.1607
24271SOL    HW277499   4.664   7.273   5.345 -1.5989 -0.8665 -1.3558
24272SOL     OW77500  10.068   7.359   2.320  0.1724  0.1038 -0.2985
24272SOL    HW177501  10.126   7.342   2.245 -0.3029 -1.9801 -0.2595
24272SOL    HW277502  10.012   7.431   2.291  2.7580  2.2954 -0.2965
24273SOL     OW77503   8.885   2.053   4.131  0.3518 -0.4073 -0.0436
24273SOL    HW177504   8.899   2.037   4.225 -0.8686  2.3813  0.7097
24273SOL    HW277505   8.804   2.007   4.111  0.0318 -0.1259  0.5640
24274SOL     OW77506   9.511   4.405   5.081 -0.4114 -0.2583  0.5320
24274SOL    HW177507   9.571   4.359   5.139 -0.3287  0.1317  0.7525
24274SOL    HW277508   9.425   4.368   5.102 -0.9931  2.3739  3.5103
24275SOL     OW77509   4.015   7.378   6.360  0.1133 -1.0617  0.5147
24275SOL    HW177510   3.924   7.350   6.361 -0.6277  1.1773  0.4887
24275SOL    HW277511   4.048   7.349   6.275 -0.7294 -1.4020  0.2948
24276SOL     OW77512   8.988  10.121   0.881 -0.6730 -0.0255 -0.1780
24276SOL    HW177513   8.988  10.215   0.902 -2.2069  0.0577 -0.4639
24276SOL    HW277514   8.910  10.087   0.924 -1.3364 -0.7403 -1.8537
24277SOL     OW77515   7.672  11.449   5.008  0.9153  0.0150 -0.1544
24277SOL    HW177516   7.731  11.481   5.075  1.7337 -1.1162 -0.3055
24277SOL    HW277517   7.593  11.424   5.056  1.2521 -0.1823  0.3044
24278SOL     OW77518   7.873   6.079   8.718  0.0765 -0.3752 -0.2791
24278SOL    HW177519   7.950   6.116   8.675  0.4743 -1.0471 -0.1703
24278SOL    HW277520   7.847   6.006   8.662  0.4325 -1.0854  0.4593
24279SOL     OW77521   2.914   8.589   6.372  0.2792  0.0028 -0.0339
24279SOL    HW177522   2.890   8.665   6.319 -0.9647 -0.4050 -0.0845
24279SOL    HW277523   2.878   8.607   6.458 -0.9829 -0.9775 -0.3220
24280SOL     OW77524   0.203   1.826   7.146 -0.2093 -0.0315  0.7073
24280SOL    HW177525   0.198   1.745   7.094 -1.7992  0.4465  0.0250
24280SOL    HW277526   0.284   1.819   7.195 -0.3880 -2.1256  0.7905
24281SOL     OW77527   1.065   0.179  10.440  0.3173  0.1286 -0.3658
24281SOL    HW177528   1.000   0.109  10.442  0.0755  0.3238 -1.0936
24281SOL    HW277529   1.148   0.135  10.458  0.0248 -0.1592  0.3258
24282SOL     OW77530   5.446   5.428   5.875  0.1159  0.3568  0.3362
24282SOL    HW177531   5.367   5.457   5.922  1.0901  2.7685  0.6531
24282SOL    HW277532   5.517   5.442   5.937  1.1837  1.6417 -1.1040
24283SOL     OW77533   7.367  10.808  10.748 -0.0386 -0.2238  0.2673
24283SOL    HW177534   7.325  10.724  10.731 -1.9917  0.8423 -0.4851
24283SOL    HW277535   7.398  10.837  10.662 -1.2629  0.7602  0.1362
24284SOL     OW77536   2.545   9.137   4.236  0.3219  0.0294  0.7595
24284SOL    HW177537   2.596   9.218   4.247 -1.2919  1.0347  1.1341
24284SOL    HW277538   2.610   9.071   4.214  1.6618  1.4872  0.1468
24285SOL     OW77539   7.600   9.418   0.254 -0.0684 -0.2301 -0.0350
24285SOL    HW177540   7.570   9.426   0.163 -1.0398  1.0619  0.3766
24285SOL    HW277541   7.532   9.367   0.297  0.5777 -1.1704 -0.0912
24286SOL     OW77542   2.959   2.484  11.623 -0.3036  0.2643  0.3844
24286SOL    HW177543   3.044   2.449  11.651 -0.6161 -2.2537 -1.4833
24286SOL    HW277544   2.910   2.495  11.705  1.2183  0.1356  1.3588
24287SOL     OW77545   1.669  10.327   4.863  0.0416  0.0700  0.3527
24287SOL    HW177546   1.672  10.260   4.795  1.5485 -0.3985  0.8501
24287SOL    HW277547   1.717  10.290   4.937 -0.9027  0.8719  1.4233
24288SOL     OW77548   0.447   3.341   6.510  0.5409 -0.2425 -0.3485
24288SOL    HW177549   0.395   3.309   6.584  0.8985 -0.9578 -0.4002
24288SOL    HW277550   0.383   3.350   6.439 -0.2600  2.6206  0.6185
24289SOL     OW77551   8.510   1.050   3.385 -0.4162  0.4198  0.0384
24289SOL    HW177552   8.422   1.070   3.417  0.7211  2.3570  2.2841
24289SOL    HW277553   8.553   1.007   3.458  0.8800  0.6421 -0.5557
24290SOL     OW77554   3.869  11.560   0.795  0.5948 -0.3273  0.1634
24290SOL    HW177555   3.829  11.646   0.805 -2.7258 -1.7633  0.4436
24290SOL    HW277556   3.823  11.520   0.721  2.1720 -1.8085 -0.0756
24291SOL     OW77557  11.305   8.933  11.354 -0.0788  0.5911  0.1063
24291SOL    HW177558  11.387   8.889  11.377  0.4689  1.7771  0.4653
24291SOL    HW277559  11.241   8.861  11.347  0.5372 -0.1763  1.7422
24292SOL     OW77560   1.807  10.769   4.891  0.2841 -0.5524 -0.2950
24292SOL    HW177561   1.807  10.864   4.903 -2.2925 -0.5274 -0.0499
24292SOL    HW277562   1.888  10.741   4.934  0.6428  1.4330  0.4863
24293SOL     OW77563   9.925   3.452   8.558 -0.1540 -0.6688  0.5755
24293SOL    HW177564  10.016   3.477   8.574 -0.2141 -0.9996  1.4830
24293SOL    HW277565   9.927   3.357   8.550 -0.1572 -0.5451 -1.2921
24294SOL     OW77566   7.226  11.030  11.560  0.1937 -0.1659  0.6383
24294SOL    HW177567   7.322  11.031  11.560  0.1961  0.5741  0.2449
24294SOL    HW277568   7.201  11.065  11.645  0.2831  0.5625  0.3726
24295SOL     OW77569  11.707   6.549  10.885  0.3775  0.3332 -0.3762
24295SOL    HW177570  11.704   6.609  10.811  1.1938 -0.3281 -0.9578
24295SOL    HW277571  11.639   6.582  10.945 -1.1562  0.1525 -1.9370
24296SOL     OW77572   0.020  11.679  10.127 -0.0590 -0.2965  0.2537
24296SOL    HW177573   0.105  11.635  10.132  0.2289  0.3390  1.4783
24296SOL    HW277574  -0.044  11.609  10.139  0.3313 -0.6478  0.3400
24297SOL     OW77575   6.059   5.689   6.004 -0.6668  0.5339 -0.0049
24297SOL    HW177576   6.046   5.621   6.070 -0.7261 -0.3972 -0.9504
24297SOL    HW277577   5.972   5.726   5.990 -0.5510  1.1825  0.8819
24298SOL     OW77578   9.267   1.414   9.286  0.2319  0.5531 -0.1363
24298SOL    HW177579   9.208   1.392   9.214  0.4061  1.4519 -0.5695
24298SOL    HW277580   9.209   1.450   9.354 -0.2655 -2.4630  1.1915
24299SOL     OW77581  11.725   5.775   2.537  0.6363  0.0940 -0.0787
24299SOL    HW177582  11.764   5.749   2.454  1.1860  2.0382 -0.4626
24299SOL    HW277583  11.644   5.820   2.514 -0.0856 -0.8215  0.5532
24300SOL     OW77584   3.786   8.769   1.876 -0.0865 -0.1768 -0.2427
24300SOL    HW177585   3.877   8.755   1.849 -0.0670  0.1817 -0.3760
24300SOL    HW277586   3.739   8.784   1.794  0.2864  2.7072 -0.0348
24301SOL     OW77587   3.950   2.767   3.378  0.1987  0.4181  0.1979
24301SOL    HW177588   4.006   2.832   3.335  0.5173  0.3220  0.4627
24301SOL    HW277589   3.975   2.771   3.471  1.5820 -1.4025 -0.0315
24302SOL     OW77590  11.117   8.742  11.348 -0.5112  0.1089 -0.1806
24302SOL    HW177591  11.090   8.702  11.266  0.9133  0.5045 -0.8865
24302SOL    HW277592  11.140   8.669  11.404  0.4628 -0.1344 -0.8706
24303SOL     OW77593   4.110   3.056   1.303 -0.1656 -0.0832  0.9513
24303SOL    HW177594   4.156   2.976   1.279  0.3048 -0.6481  3.4023
24303SOL    HW277595   4.170   3.127   1.279 -0.6923 -0.3839 -1.4700
24304SOL     OW77596  10.295   4.210  11.282  0.1191 -0.4524 -0.3336
24304SOL    HW177597  10.289   4.122  11.246  0.6049 -0.7577  0.3298
24304SOL    HW277598  10.388   4.230  11.284  0.0799 -0.3023  0.4137
24305SOL     OW77599   7.819  11.003   0.415  0.0427 -0.2201 -0.8323
24305SOL    HW177600   7.845  11.014   0.324  2.2923 -1.8357 -0.4776
24305SOL    HW277601   7.891  11.039   0.466  0.0865 -1.7186  0.2593
24306SOL     OW77602   9.461   6.571   1.867 -0.4617  0.0793  0.3966
24306SOL    HW177603   9.505   6.609   1.943 -0.8279  1.8608 -0.2478
24306SOL    HW277604   9.474   6.477   1.877  1.1098  0.3897  1.6616
24307SOL     OW77605   5.958   2.974   5.798 -0.1338 -0.4007  0.3773
24307SOL    HW177606   5.899   2.938   5.864 -0.0084 -1.5864 -0.1185
24307SOL    HW277607   6.045   2.944   5.825  0.1738  0.8042  0.7601
24308SOL     OW77608   8.626   0.377   1.015 -0.1135  0.3500  0.1644
24308SOL    HW177609   8.587   0.370   1.102  3.7336  1.5505  2.1957
24308SOL    HW277610   8.622   0.471   0.994 -0.7632  0.1072 -0.8724
24309SOL     OW77611  10.261   0.903   8.237 -0.6736  0.1471 -0.2607
24309SOL    HW177612  10.339   0.913   8.183 -0.8113 -1.0453 -0.7037
24309SOL    HW277613  10.189   0.897   8.175 -1.0311  0.3920  0.1194
24310SOL     OW77614   1.903  10.598   4.402 -0.2789 -0.1866 -0.0133
24310SOL    HW177615   1.866  10.632   4.483  0.0879  1.3828 -0.4754
24310SOL    HW277616   1.876  10.660   4.335 -0.5489 -1.4433 -1.1095
24311SOL     OW77617   0.335   3.624   1.136 -0.1024 -0.1508  0.3888
24311SOL    HW177618   0.303   3.712   1.154 -1.3070 -0.4035 -0.3720
24311SOL    HW277619   0.411   3.637   1.079  2.1792  0.5207  3.3462
24312SOL     OW77620   2.701   9.512   1.364 -0.3278 -0.5490  0.0644
24312SOL    HW177621   2.776   9.457   1.340  0.4248 -0.1087  1.3045
24312SOL    HW277622   2.662   9.536   1.280  1.1373 -0.5147 -0.6510
24313SOL     OW77623   6.792   8.507   6.032 -0.3305  0.0521 -0.0541
24313SOL    HW177624   6.725   8.566   5.995 -0.7547  0.7398  1.7349
24313SOL    HW277625   6.875   8.540   5.996 -0.6826  0.9796 -0.0393
24314SOL     OW77626   5.202   7.335  11.848  0.5769  0.7033 -0.1741
24314SOL    HW177627   5.124   7.354  11.900  0.4012  0.6238 -0.4071
24314SOL    HW277628   5.265   7.402  11.873 -0.1376  1.8016 -1.2128
24315SOL     OW77629   1.298   5.186   3.649 -0.4021 -0.2150  0.7319
24315SOL    HW177630   1.226   5.130   3.617  0.0260 -0.6272  0.4790
24315SOL    HW277631   1.291   5.180   3.744  0.4167 -1.7419  0.7277
24316SOL     OW77632   6.273   8.114   9.329 -0.6709 -0.0386  0.3127
24316SOL    HW177633   6.342   8.057   9.294 -0.4898 -0.1388  0.8180
24316SOL    HW277634   6.222   8.057   9.386 -1.5628 -0.1180 -0.5479
24317SOL     OW77635   4.392   8.742   8.423 -0.1248 -0.3669  0.3831
24317SOL    HW177636   4.344   8.773   8.500  0.4429 -0.6585  0.8675
24317SOL    HW277637   4.325   8.725   8.357 -0.4427  3.6979 -0.6344
24318SOL     OW77638   4.632   5.735   0.631  0.1307  0.1080  0.1330
24318SOL    HW177639   4.658   5.656   0.583 -0.1079 -1.2281  2.0790
24318SOL    HW277640   4.612   5.703   0.719 -0.6420  2.2647  0.7844
24319SOL     OW77641   5.366   6.239   6.605  0.9993 -0.0655 -0.3886
24319SOL    HW177642   5.350   6.308   6.541 -0.1773 -0.1598 -0.2157
24319SOL    HW277643   5.461   6.238   6.617  0.9830  2.1978  0.3581
24320SOL     OW77644  11.061  10.704   9.853  0.2028  0.1911 -0.5291
24320SOL    HW177645  11.067  10.653   9.772 -1.4412 -2.0911  0.6781
24320SOL    HW277646  11.024  10.643   9.917  1.7099  1.8127  2.0530
24321SOL     OW77647   9.755   1.609   9.773 -0.6470 -0.1420  0.1829
24321SOL    HW177648   9.813   1.682   9.750 -1.3848 -0.1470 -1.8932
24321SOL    HW277649   9.794   1.533   9.730 -1.1258 -0.5240  0.4154
24322SOL     OW77650   2.763   3.152   3.578  0.1683 -0.2139 -0.1293
24322SOL    HW177651   2.676   3.144   3.617  1.2501 -1.4244  2.2570
24322SOL    HW277652   2.773   3.072   3.526  0.8718 -1.5215  1.9260
24323SOL     OW77653   0.035   7.929  10.330 -0.0566 -0.2089  0.4731
24323SOL    HW177654   0.037   7.967  10.242 -1.4862  0.1408  0.5607
24323SOL    HW277655   0.021   7.835  10.315 -1.7231  0.0263  0.3034
24324SOL     OW77656   2.770   1.265   9.872  0.5965  0.2169 -0.4324
24324SOL    HW177657   2.854   1.293   9.908 -0.0333 -0.2902  1.5959
24324SOL    HW277658   2.786   1.176   9.841  1.1732  0.6835 -1.5109
24325SOL     OW77659   1.730  11.900   2.682  0.4373 -0.5423 -0.1473
24325SOL    HW177660   1.680  11.877   2.604 -0.1548 -1.0316  0.3718
24325SOL    HW277661   1.822  11.891   2.655  0.3463  1.9215 -1.5991
24326SOL     OW77662  10.219   3.304   6.411 -0.2140 -0.0559 -0.2810
24326SOL    HW177663  10.225   3.381   6.469  1.0834 -1.5451  1.7011
24326SOL    HW277664  10.300   3.306   6.360  0.8667 -1.1447  1.2757
24327SOL     OW77665   6.957   9.348   6.309  0.0967  0.2548  0.5369
24327SOL    HW177666   7.018   9.278   6.286 -0.5670 -0.6134  1.3714
24327SOL    HW277667   6.944   9.396   6.227 -2.0099 -2.5901 -0.9677
24328SOL     OW77668   2.460   8.890  11.522 -0.3280  0.2594  0.4569
24328SOL    HW177669   2.528   8.847  11.573 -0.8265 -0.0998  0.8146
24328SOL    HW277670   2.392   8.913  11.585 -0.6356  0.4327  0.0711
24329SOL     OW77671  10.501   5.681   6.903  0.2472  0.1119 -0.6045
24329SOL    HW177672  10.424   5.727   6.869 -0.7015 -1.7411 -1.0978
24329SOL    HW277673  10.531   5.627   6.830  1.0997 -0.3174  0.0492
24330SOL     OW77674   0.011   1.898   2.614  0.7137  0.2051 -0.2758
24330SOL    HW177675   0.004   1.896   2.710 -2.2592  1.6011 -0.3319
24330SOL    HW277676   0.027   1.990   2.594  1.9614 -0.1825 -1.1372
24331SOL     OW77677   3.128   4.751  11.778 -0.3111 -0.0332 -0.4686
24331SOL    HW177678   3.152   4.825  11.722 -0.9936 -0.8878 -1.9503
24331SOL    HW277679   3.034   4.738  11.761 -0.4582 -0.5480  0.6222
24332SOL     OW77680   5.742   2.129   8.886 -0.1303  0.0404  0.2678
24332SOL    HW177681   5.796   2.207   8.871  0.0292 -0.2178 -0.5551
24332SOL    HW277682   5.671   2.159   8.942 -0.4654  0.9543 -0.6133
24333SOL     OW77683   4.895   4.401   1.359  0.0391 -0.2618 -0.5354
24333SOL    HW177684   4.890   4.310   1.329 -0.0614 -1.1519  1.8789
24333SOL    HW277685   4.986   4.413   1.387  0.4171  0.8858 -2.1355
24334SOL     OW77686   3.461   9.330   0.902 -0.6150  0.2121 -0.5163
24334SOL    HW177687   3.440   9.251   0.852  1.7555 -1.1571  0.4772
24334SOL    HW277688   3.386   9.342   0.960 -1.2584 -1.0228 -1.0450
24335SOL     OW77689   0.808   1.993   8.009 -0.0335 -0.0297 -0.5563
24335SOL    HW177690   0.900   2.015   8.026  0.1412 -2.5513  2.7821
24335SOL    HW277691   0.759   2.071   8.036  1.0218  0.2452  0.6558
24336SOL     OW77692   3.548   0.736   3.201 -0.3894  0.1768 -0.0835
24336SOL    HW177693   3.517   0.730   3.110  1.8359  2.6442 -1.1158
24336SOL    HW277694   3.517   0.821   3.232 -0.5030 -0.3294  1.2579
24337SOL     OW77695   0.093   5.060   6.494 -0.5238  0.1204 -0.6783
24337SOL    HW177696   0.135   4.979   6.467 -2.5868 -0.9557 -0.8462
24337SOL    HW277697  -0.001   5.044   6.481 -1.1961  1.6071  1.7259
24338SOL     OW77698   1.260   3.257   2.799  0.6483  0.4124 -0.2175
24338SOL    HW177699   1.225   3.231   2.714 -0.8408  1.1978  0.1277
24338SOL    HW277700   1.220   3.342   2.817  2.3916  1.1371  0.4282
24339SOL     OW77701  10.009   7.646  10.077  0.2577 -0.3716  0.5501
24339SOL    HW177702  10.029   7.721  10.133  1.1636 -0.0701 -0.1445
24339SOL    HW277703  10.068   7.577  10.108  0.0486 -0.5212  0.6158
24340SOL     OW77704   2.282   9.612   6.931  0.7944  0.2356  0.3849
24340SOL    HW177705   2.310   9.616   6.839 -0.4741  0.1678 -0.0173
24340SOL    HW277706   2.339   9.545   6.969  1.1050  0.0146 -0.4317
24341SOL     OW77707   1.492   8.930  11.564  0.4927 -0.0759  0.2437
24341SOL    HW177708   1.526   9.017  11.580  0.2675 -0.2711  2.0383
24341SOL    HW277709   1.397   8.941  11.559  0.4709 -0.1895  0.3692
24342SOL     OW77710   9.591   7.696   3.264 -0.0412  0.1707 -0.0017
24342SOL    HW177711   9.621   7.616   3.222  1.1063  0.1216  0.8702
24342SOL    HW277712   9.580   7.758   3.192 -0.8192 -0.7105 -0.6713
24343SOL     OW77713   8.206  11.891   0.308 -0.2888 -0.5231  0.1790
24343SOL    HW177714   8.249  11.828   0.250 -0.8371 -0.6337 -0.1087
24343SOL    HW277715   8.222  11.976   0.268  0.3310 -0.4884  0.4915
24344SOL     OW77716   7.897   1.436  11.979 -0.4352 -0.4776 -0.0378
24344SOL    HW177717   7.886   1.518  12.027  0.5160 -0.4400  0.1303
24344SOL    HW277718   7.934   1.375  12.043  0.0938 -0.6591 -0.5139
24345SOL     OW77719   2.512   8.694   9.643 -0.7589 -0.3954  0.4920
24345SOL    HW177720   2.546   8.605   9.648 -1.8502 -0.8988 -0.5842
24345SOL    HW277721   2.446   8.699   9.713 -1.3932 -0.7608 -0.0714
24346SOL     OW77722   9.561  11.306   1.158 -0.5502  0.1331 -0.2239
24346SOL    HW177723   9.626  11.236   1.161 -1.3474 -0.7436 -1.9214
24346SOL    HW277724   9.572  11.346   1.071 -1.1211  1.1308  0.1397
24347SOL     OW77725   3.932   3.861   9.367 -0.4175  0.6333 -0.2755
24347SOL    HW177726   3.932   3.913   9.448  0.6459  0.2287 -0.0028
24347SOL    HW277727   3.959   3.923   9.299 -0.7224  0.8258 -0.2236
24348SOL     OW77728   8.965   2.210   1.000 -0.2773 -0.6800 -0.3255
24348SOL    HW177729   8.969   2.284   0.939 -0.0230 -1.9091 -1.8546
24348SOL    HW277730   9.011   2.241   1.078  1.7693  0.0480 -1.7358
24349SOL     OW77731   0.314   8.626   2.048 -0.2808 -0.2061 -0.2574
24349SOL    HW177732   0.351   8.709   2.018  1.6440 -0.5608  0.9953
24349SOL    HW277733   0.281   8.644   2.136 -0.2967 -0.6526 -0.1676
24350SOL     OW77734   7.596   2.583   2.220  0.5418  0.3893  0.1736
24350SOL    HW177735   7.568   2.600   2.130  2.7110  0.0203 -0.6232
24350SOL    HW277736   7.526   2.622   2.274 -2.8083 -2.6096 -1.5591
24351SOL     OW77737   8.017   1.056   5.248  0.1225 -0.4787 -0.2659
24351SOL    HW177738   8.078   0.995   5.208  0.0405 -0.9764  0.3562
24351SOL    HW277739   8.051   1.070   5.337  0.8330  1.3410 -0.7664
24352SOL     OW77740  10.834   3.404   7.601  0.0605  0.1672  0.3112
24352SOL    HW177741  10.865   3.412   7.691 -2.7653  1.7580  1.2662
24352SOL    HW277742  10.838   3.493   7.566 -1.2785  0.0451 -0.2204
24353SOL     OW77743   2.378   3.123  10.592  0.4253 -0.5153 -0.7842
24353SOL    HW177744   2.470   3.150  10.584  0.3446  0.0872  0.2193
24353SOL    HW277745   2.332   3.202  10.619 -0.1005 -1.2407  0.5186
24354SOL     OW77746   9.733   2.611  10.402  0.5535 -0.2825  0.2848
24354SOL    HW177747   9.660   2.598  10.463 -0.8354  0.2289 -1.2141
24354SOL    HW277748   9.721   2.543  10.336  0.6448  0.6327 -0.6961
24355SOL     OW77749  10.855   0.918  11.941 -0.1221 -0.1490 -0.0612
24355SOL    HW177750  10.849   0.826  11.969 -1.8757  0.4093  1.6760
24355SOL    HW277751  10.779   0.931  11.885  0.0995  0.2513 -0.2726
24356SOL     OW77752   4.249   1.576   9.312 -0.2167  0.2154 -0.1594
24356SOL    HW177753   4.300   1.641   9.360  0.9184  0.2621 -1.3793
24356SOL    HW277754   4.314   1.520   9.270 -1.1296  0.4424 -1.9977
24357SOL     OW77755   0.619  10.515   5.532 -0.3730 -0.8070 -0.6814
24357SOL    HW177756   0.643  10.478   5.617 -0.0865 -1.4953 -1.0508
24357SOL    HW277757   0.665  10.599   5.528 -1.1390 -0.3323  0.2294
24358SOL     OW77758   8.655  10.434   6.453  0.4464 -0.1721  0.4679
24358SOL    HW177759   8.649  10.523   6.420  0.9307  0.2387  1.4244
24358SOL    HW277760   8.625  10.440   6.544  1.5321 -0.7517  0.8914
24359SOL     OW77761   0.694   8.467   0.885  0.2373 -0.0872 -0.0625
24359SOL    HW177762   0.679   8.387   0.834  0.5253  0.1798 -0.5689
24359SOL    HW277763   0.725   8.531   0.821 -0.7533  0.6711  0.2002
24360SOL     OW77764   9.317   4.536   3.743  0.9048 -0.2942  0.2229
24360SOL    HW177765   9.259   4.612   3.742  0.3250 -0.6661  2.0805
24360SOL    HW277766   9.352   4.533   3.832  3.3037 -0.4845 -0.6522
24361SOL     OW77767   4.118   7.917   6.638 -0.6162  0.3540  0.0469
24361SOL    HW177768   4.125   7.981   6.709 -2.7453  0.1798  0.4751
24361SOL    HW277769   4.033   7.876   6.651  0.8142 -2.9115  0.0581
24362SOL     OW77770   6.051  11.462   1.812  0.0244  0.2418  0.0460
24362SOL    HW177771   6.053  11.397   1.741  0.6025 -2.0976  2.0653
24362SOL    HW277772   6.125  11.439   1.868 -0.4747  1.9427  1.5026
24363SOL     OW77773   1.656   3.183  10.626  0.1003  0.2714 -0.0733
24363SOL    HW177774   1.646   3.278  10.619 -1.4274  0.0764 -1.0236
24363SOL    HW277775   1.674   3.154  10.537  0.0409 -0.3782  0.1196
24364SOL     OW77776   4.447  10.840   4.461  0.5378  0.5920  0.3556
24364SOL    HW177777   4.477  10.889   4.384  1.7557  0.9785  1.0520
24364SOL    HW277778   4.354  10.862   4.469  0.6889  1.5137 -0.2917
24365SOL     OW77779   3.380  10.699   3.217  0.2580 -0.4494 -0.5133
24365SOL    HW177780   3.360  10.738   3.132  1.5739 -0.4326 -0.8337
24365SOL    HW277781   3.475  10.685   3.215  0.1035 -1.7814  0.3872
24366SOL     OW77782   6.258   7.493   3.384  0.7590  1.1527  0.4848
24366SOL    HW177783   6.184   7.539   3.344 -0.2180  0.4978  1.4435
24366SOL    HW277784   6.259   7.525   3.475  0.2273 -0.4592  1.0950
24367SOL     OW77785   3.587   0.268   6.963 -0.0422 -0.1136  0.2860
24367SOL    HW177786   3.540   0.213   7.026  1.3365 -0.3590  1.1399
24367SOL    HW277787   3.662   0.302   7.012  0.6404  0.3177 -1.0114
24368SOL     OW77788   6.171   9.752   5.437 -0.7483 -0.3316  0.0070
24368SOL    HW177789   6.119   9.777   5.514 -0.7186 -1.5301  0.4303
24368SOL    HW277790   6.241   9.817   5.434 -1.6163  0.6453  0.0819
24369SOL     OW77791   8.289   0.127   6.920 -0.3640 -0.1070 -0.1802
24369SOL    HW177792   8.255   0.209   6.883 -0.8385  0.2316  0.9777
24369SOL    HW277793   8.383   0.142   6.926 -0.2975 -0.0992 -1.0623
24370SOL     OW77794   0.449   3.538   6.784 -0.5186 -0.4641 -0.1005
24370SOL    HW177795   0.468   3.502   6.871  0.1608  0.6798  0.2528
24370SOL    HW277796   0.353   3.536   6.777 -0.7409  1.3809  1.5796
24371SOL     OW77797   5.017   1.291  10.378 -0.3917  0.5459 -0.0117
24371SOL    HW177798   5.099   1.267  10.421  0.4350  0.7608 -1.4004
24371SOL    HW277799   5.014   1.236  10.300 -0.9311  1.4242 -0.6237
24372SOL     OW77800   9.910  11.065   3.941  0.1306  0.0321 -0.3608
24372SOL    HW177801   9.944  11.149   3.910 -0.1205  0.4281  0.4131
24372SOL    HW277802   9.891  11.080   4.033  1.0848 -1.1889  0.0534
24373SOL     OW77803   3.722   8.553   6.344 -0.7174  0.1225  0.1080
24373SOL    HW177804   3.709   8.613   6.417 -0.8986  0.4266 -0.1736
24373SOL    HW277805   3.734   8.467   6.386 -1.4244  0.1882  0.4701
24374SOL     OW77806   4.565   4.588   0.023  0.1825 -0.0304 -0.4269
24374SOL    HW177807   4.632   4.587   0.091  0.1312  0.7739 -0.3605
24374SOL    HW277808   4.483   4.603   0.070  0.2740  1.6703 -0.7522
24375SOL     OW77809   6.698   7.954   3.556 -0.0650  0.0562 -0.1483
24375SOL    HW177810   6.766   7.990   3.613  0.5928 -2.2042  0.6318
24375SOL    HW277811   6.616   7.972   3.601  0.2531  0.4484  0.2818
24376SOL     OW77812   3.478   9.508   7.234 -0.3775  0.4535 -0.5390
24376SOL    HW177813   3.496   9.599   7.257 -0.4729  0.4753 -0.5489
24376SOL    HW277814   3.436   9.471   7.312  2.8929 -0.5925  0.8845
24377SOL     OW77815   8.593  10.851   0.936  0.3321  0.0014 -0.5506
24377SOL    HW177816   8.514  10.819   0.891  0.2527  1.9288 -1.9222
24377SOL    HW277817   8.562  10.878   1.022 -0.7006  1.2747 -1.2726
24378SOL     OW77818   3.707   4.052   0.198 -0.2664  0.0484  0.7789
24378SOL    HW177819   3.708   4.020   0.288  1.9898 -0.1495  0.7233
24378SOL    HW277820   3.694   3.973   0.145 -0.2052 -0.0152  0.8579
24379SOL     OW77821   0.583   2.149   1.459  0.4639 -0.2950  0.0038
24379SOL    HW177822   0.576   2.242   1.484 -0.0170 -0.3149 -0.0395
24379SOL    HW277823   0.517   2.139   1.390  1.7407 -0.2507 -1.2568
24380SOL     OW77824   7.133   0.213   6.686 -0.2855 -0.1913  0.3319
24380SOL    HW177825   7.046   0.203   6.725 -0.6055  1.4819  0.1117
24380SOL    HW277826   7.188   0.246   6.757  0.4141 -2.0256  0.6993
24381SOL     OW77827   2.683   6.101   0.466 -0.1880  0.7766  0.2020
24381SOL    HW177828   2.619   6.033   0.445 -0.2790  1.0026 -0.2507
24381SOL    HW277829   2.648   6.144   0.544 -0.6639  1.0072 -0.1394
24382SOL     OW77830   7.543   0.613   2.114 -0.5334 -0.5780  0.3586
24382SOL    HW177831   7.635   0.628   2.137 -0.6334  0.2047  0.2936
24382SOL    HW277832   7.494   0.646   2.190 -0.8116  0.7288 -0.3490
24383SOL     OW77833   7.784   1.334   3.111  0.4641  0.1510 -0.0711
24383SOL    HW177834   7.710   1.371   3.159  1.6028  1.2481  0.9468
24383SOL    HW277835   7.786   1.242   3.136 -0.9145 -0.0517 -0.6240
24384SOL     OW77836   5.525   2.020   3.063 -0.4137 -0.0585  0.0215
24384SOL    HW177837   5.590   2.089   3.079 -0.3041 -0.5115  1.7030
24384SOL    HW277838   5.489   2.040   2.977  1.2242  0.7981 -0.5004
24385SOL     OW77839   9.109   4.754   6.088 -0.5031 -0.2346 -0.1531
24385SOL    HW177840   9.109   4.749   6.183 -1.9336  0.1302 -0.1129
24385SOL    HW277841   9.200   4.770   6.065 -0.0198 -1.0092  1.1043
24386SOL     OW77842   4.574   4.668   3.584 -0.4562  0.4096 -0.1732
24386SOL    HW177843   4.559   4.673   3.678 -2.3073 -0.2546 -0.4005
24386SOL    HW277844   4.503   4.718   3.545 -0.4417 -0.3654 -1.2512
24387SOL     OW77845   5.887  11.240   4.669 -0.3225 -0.5687 -0.4506
24387SOL    HW177846   5.844  11.298   4.606  0.4888 -0.0653 -0.5498
24387SOL    HW277847   5.980  11.262   4.663 -0.2413 -0.4325  0.9876
24388SOL     OW77848   3.054   3.326   9.575 -0.4937  0.5752 -0.6253
24388SOL    HW177849   3.033   3.279   9.656  0.3209  0.3278 -0.5470
24388SOL    HW277850   3.080   3.413   9.605  0.6486  0.2205 -0.5304
24389SOL     OW77851   4.657   6.173   8.510  0.4294 -0.2842  0.3921
24389SOL    HW177852   4.705   6.234   8.454 -0.4809 -0.8159 -1.0399
24389SOL    HW277853   4.617   6.111   8.449  1.2004 -2.2427  1.7950
24390SOL     OW77854   3.551   4.232   2.782  0.0642 -0.8078 -0.3648
24390SOL    HW177855   3.550   4.149   2.735 -2.4492 -2.2723  1.9942
24390SOL    HW277856   3.643   4.244   2.808  0.8526 -1.6490 -2.5935
24391SOL     OW77857   1.072   0.883   1.419 -0.3435  0.0862 -0.4760
24391SOL    HW177858   0.984   0.852   1.398 -0.2690 -0.2368 -0.3122
24391SOL    HW277859   1.076   0.883   1.515 -0.2368  0.2976 -0.4804
24392SOL     OW77860  10.437  10.567  11.137 -0.2498  0.1018  0.7391
24392SOL    HW177861  10.413  10.655  11.168  1.5003  0.4967  1.0658
24392SOL    HW277862  10.436  10.513  11.215 -0.6848 -0.0408  0.6411
24393SOL     OW77863   3.628   7.146   3.539 -0.1886  0.4036  0.0495
24393SOL    HW177864   3.597   7.159   3.629 -1.3156  0.4352 -0.3282
24393SOL    HW277865   3.581   7.212   3.488  0.2335  0.1983 -0.6137
24394SOL     OW77866   1.198   1.182   9.221 -0.1706  1.2068 -0.1622
24394SOL    HW177867   1.142   1.140   9.286  1.2657 -1.2104 -0.3911
24394SOL    HW277868   1.189   1.276   9.239 -1.2147  0.7051  2.3279
24395SOL     OW77869  11.720   1.671   8.489 -0.0381  0.2436 -0.4057
24395SOL    HW177870  11.741   1.727   8.415  0.2931 -0.1628 -0.6190
24395SOL    HW277871  11.624   1.671   8.493 -0.0571  2.2793  0.7040
24396SOL     OW77872   2.293   7.031   3.049 -0.0583  0.7240 -0.0615
24396SOL    HW177873   2.277   6.945   3.088 -0.4816  0.6109 -0.4783
24396SOL    HW277874   2.344   7.078   3.115  0.4295  0.0539  0.0484
24397SOL     OW77875   5.741   1.163   6.585  0.3399 -0.0479  0.1348
24397SOL    HW177876   5.815   1.104   6.575  0.7816  0.3617  0.8444
24397SOL    HW277877   5.664   1.108   6.576  0.7145 -0.3561 -1.3527
24398SOL     OW77878   9.164   2.381   0.490 -0.3668  0.1610 -0.0585
24398SOL    HW177879   9.243   2.414   0.447  0.4862 -0.5970  0.8576
24398SOL    HW277880   9.092   2.426   0.447  0.6524  2.0202  0.1101
24399SOL     OW77881   6.139   4.579  11.555 -0.4853  0.0574  0.0216
24399SOL    HW177882   6.134   4.640  11.628 -0.4017  0.9651 -0.7115
24399SOL    HW277883   6.063   4.600  11.500 -0.6966 -0.7889 -0.0299
24400SOL     OW77884   9.804   7.609   5.781 -0.0306  0.1075 -0.4850
24400SOL    HW177885   9.883   7.660   5.801  0.6879 -1.2907  0.4034
24400SOL    HW277886   9.834   7.542   5.720 -0.0367 -1.7086  1.4329
24401SOL     OW77887   9.195   2.274   5.762  0.0220  0.0721 -0.2256
24401SOL    HW177888   9.220   2.366   5.770 -1.2522  0.4039  0.2838
24401SOL    HW277889   9.161   2.250   5.849 -1.3735 -0.3187 -0.8457
24402SOL     OW77890  10.250   8.449   3.511 -0.0637 -0.6391  0.5100
24402SOL    HW177891  10.235   8.506   3.436  0.1756 -1.6087 -0.2955
24402SOL    HW277892  10.283   8.507   3.580 -2.0176  0.5946  0.4964
24403SOL     OW77893   9.110   6.146   6.783  0.0179  0.0428 -0.1522
24403SOL    HW177894   9.043   6.130   6.849 -1.0050  3.3750 -0.1937
24403SOL    HW277895   9.066   6.197   6.715  1.4984 -1.6696 -2.5733
24404SOL     OW77896   7.128   3.987   0.876  0.3655  0.1668  0.0484
24404SOL    HW177897   7.072   3.910   0.884 -1.7042  1.7008  1.4171
24404SOL    HW277898   7.067   4.059   0.863  1.9425  2.0124  2.0903
24405SOL     OW77899   3.513   7.535   0.722 -0.4570  0.2790  0.1942
24405SOL    HW177900   3.499   7.442   0.708 -0.4555  0.3182 -0.0755
24405SOL    HW277901   3.606   7.543   0.743 -0.2359  0.3305 -0.7723
24406SOL     OW77902   6.887   9.745   5.599  0.0702 -0.2871  0.4136
24406SOL    HW177903   6.806   9.701   5.573 -0.7181  0.6888  1.1319
24406SOL    HW277904   6.896   9.817   5.536  0.2034 -0.2044  0.5271
24407SOL     OW77905   2.359   1.014   1.672  0.5407  0.2906 -0.4276
24407SOL    HW177906   2.362   1.090   1.614  0.0973  0.7441  0.1284
24407SOL    HW277907   2.267   1.008   1.700  0.4033 -0.9005 -1.0445
24408SOL     OW77908   8.933   9.272   8.564  0.1679 -0.0288 -0.8083
24408SOL    HW177909   8.957   9.192   8.613  0.8305  1.0109  0.6484
24408SOL    HW277910   9.013   9.324   8.563 -0.7521  1.4854  0.0399
24409SOL     OW77911   1.707   4.766   6.199 -0.1382 -0.1676 -0.1243
24409SOL    HW177912   1.657   4.700   6.247 -2.1074 -0.1030 -1.9497
24409SOL    HW277913   1.679   4.850   6.237  1.2268 -0.2372  1.1539
24410SOL     OW77914   4.001   4.993   0.855  0.4768  0.0126 -0.0090
24410SOL    HW177915   4.085   4.978   0.813  0.7656 -0.4829  0.7258
24410SOL    HW277916   3.955   4.909   0.849  0.2189  0.1510  0.0016
24411SOL     OW77917  11.306   3.323   9.752  0.2502 -0.3816  0.1524
24411SOL    HW177918  11.314   3.387   9.822  0.0087  2.3501 -2.1104
24411SOL    HW277919  11.291   3.239   9.796 -0.3966  1.2532  3.2722
24412SOL     OW77920   2.875   8.504  11.708 -0.2024 -0.0282  0.4652
24412SOL    HW177921   2.895   8.439  11.775 -3.0756 -0.5859  0.9200
24412SOL    HW277922   2.856   8.453  11.630 -0.4573  0.3946  0.2502
24413SOL     OW77923  11.569   7.720   9.340  0.2529  0.0892  0.2514
24413SOL    HW177924  11.497   7.700   9.400 -0.7149  0.5100 -0.7198
24413SOL    HW277925  11.546   7.672   9.260 -0.3263  2.2490 -0.9514
24414SOL     OW77926   9.189   6.788   2.161  0.5394 -0.1067 -0.0642
24414SOL    HW177927   9.215   6.880   2.164 -3.2860  1.1517  1.0178
24414SOL    HW277928   9.248   6.744   2.223  1.1902  2.0405  0.9513
24415SOL     OW77929  11.545   2.348   7.506  0.2186 -0.3038 -0.0397
24415SOL    HW177930  11.553   2.322   7.414  3.0714 -1.5159  0.4540
24415SOL    HW277931  11.555   2.266   7.555 -0.1927  0.4700  1.3860
24416SOL     OW77932   3.579   9.757   7.326 -0.0040 -0.5851 -0.0952
24416SOL    HW177933   3.640   9.781   7.256  0.0810 -2.9947 -0.9247
24416SOL    HW277934   3.619   9.792   7.406  1.5003 -0.4626 -0.8689
24417SOL     OW77935   1.714   1.347  11.727 -0.5283 -0.3137 -0.1635
24417SOL    HW177936   1.639   1.312  11.775 -1.7448  0.9724 -1.0834
24417SOL    HW277937   1.686   1.433  11.696  1.7875  0.8172  0.5935
24418SOL     OW77938  11.821   3.328  11.417  0.2472 -0.3353 -0.0170
24418SOL    HW177939  11.877   3.251  11.415 -0.3382 -0.8153  1.1370
24418SOL    HW277940  11.852   3.378  11.493  0.4944  0.4915 -0.6340
24419SOL     OW77941   1.549   3.939   1.633 -0.2220 -0.2233 -0.5316
24419SOL    HW177942   1.503   3.860   1.662 -1.1272  1.1997  2.3214
24419SOL    HW277943   1.487   3.985   1.577 -1.3719  0.3725  1.1286
24420SOL     OW77944   4.831   9.057   6.666 -0.5338 -0.1098  0.0997
24420SOL    HW177945   4.835   9.040   6.572 -2.3740 -3.3361  0.4610
24420SOL    HW277946   4.896   8.997   6.703 -1.4733 -0.5867  1.0104
24421SOL     OW77947   4.462   4.668   9.494  0.3639  0.0193 -0.1003
24421SOL    HW177948   4.485   4.749   9.538 -2.2339  0.8006 -0.0527
24421SOL    HW277949   4.506   4.674   9.409  0.5767  1.2375  0.0780
24422SOL     OW77950   9.357   6.463   1.072 -0.0701 -0.3038  0.0477
24422SOL    HW177951   9.314   6.381   1.097 -0.2815  0.0666  0.9204
24422SOL    HW277952   9.377   6.452   0.979  1.5283 -2.0707  0.5411
24423SOL     OW77953   9.410  10.267   2.767 -0.1157 -0.4218  0.6902
24423SOL    HW177954   9.326  10.224   2.755 -0.1370 -1.0077  2.5831
24423SOL    HW277955   9.399  10.321   2.846  1.6034 -1.4614  1.7083
24424SOL     OW77956   4.508   0.777  11.759 -0.0451 -0.6160  0.5281
24424SOL    HW177957   4.474   0.703  11.709 -0.3786 -0.6290  0.7682
24424SOL    HW277958   4.431   0.816  11.800 -0.3020  1.4666 -1.6611
24425SOL     OW77959   7.361   6.018   1.484  0.3686  0.1620  0.0650
24425SOL    HW177960   7.400   6.058   1.407  2.0205 -0.9983  0.2454
24425SOL    HW277961   7.414   5.940   1.500 -1.0564 -0.6048  1.3144
24426SOL     OW77962   5.218   6.718  11.343  0.0372 -0.6495  0.0237
24426SOL    HW177963   5.152   6.743  11.407 -2.7165  1.9353 -3.4545
24426SOL    HW277964   5.177   6.649  11.292  1.3545 -1.2132 -0.3271
24427SOL     OW77965   8.254   9.888   2.516  0.4456  0.3910  0.1411
24427SOL    HW177966   8.194   9.865   2.587  2.4855  1.0505  2.2158
24427SOL    HW277967   8.225   9.974   2.487 -0.9815 -0.2912 -0.5041
24428SOL     OW77968   2.158   3.412  10.224  0.1726  0.0598 -0.6568
24428SOL    HW177969   2.171   3.475  10.152 -2.2445  0.1367 -1.0908
24428SOL    HW277970   2.079   3.442  10.269 -0.4145 -2.0286 -0.1841
24429SOL     OW77971   1.171   6.150   5.500  0.0110 -0.4543 -0.5514
24429SOL    HW177972   1.144   6.233   5.539  1.3681 -0.3564  0.2359
24429SOL    HW277973   1.205   6.099   5.574  1.2833 -0.8328 -1.3612
24430SOL     OW77974   5.464   7.949   4.105 -0.2530  0.2055  0.3061
24430SOL    HW177975   5.386   7.971   4.054  0.9984 -0.2886 -1.9785
24430SOL    HW277976   5.438   7.875   4.159 -1.4069  0.1746 -0.2739
24431SOL     OW77977   8.301   4.857   4.666  0.5071  0.4417  0.2782
24431SOL    HW177978   8.356   4.782   4.691 -0.7991  0.0507  2.2675
24431SOL    HW277979   8.251   4.877   4.745 -1.6149  1.2810 -1.1691
24432SOL     OW77980   8.361   2.841   5.448  0.3364  0.5786 -0.5089
24432SOL    HW177981   8.270   2.869   5.461 -0.2607 -0.4097 -2.2395
24432SOL    HW277982   8.358   2.746   5.451  1.2835  0.5303 -0.7704
24433SOL     OW77983  10.129   1.448   2.501  0.3922 -0.0096 -0.1159
24433SOL    HW177984  10.123   1.406   2.415  1.9114 -0.8567  0.1456
24433SOL    HW277985  10.043   1.488   2.515  0.0098 -0.1520 -1.8667
24434SOL     OW77986   8.597   8.738   7.070  0.3349 -0.0831  0.0330
24434SOL    HW177987   8.520   8.795   7.061  0.2453 -0.5001 -2.6967
24434SOL    HW277988   8.608   8.728   7.164 -2.1489  1.0740  0.5361
24435SOL     OW77989   0.080  11.759   5.691 -0.3255  0.1306 -0.1127
24435SOL    HW177990   0.117  11.736   5.606 -1.3721  0.8048 -0.7754
24435SOL    HW277991  -0.008  11.723   5.689  0.1452 -1.2321  1.3389
24436SOL     OW77992   6.185   9.707   0.514  0.3084 -0.0837  0.0290
24436SOL    HW177993   6.195   9.722   0.420  0.8137  1.7808  0.3396
24436SOL    HW277994   6.122   9.772   0.543  1.7728  0.8484  1.3270
24437SOL     OW77995   3.426   8.215   4.741  0.1792 -0.0631  0.1759
24437SOL    HW177996   3.340   8.227   4.782  0.6929 -1.2754  1.7086
24437SOL    HW277997   3.418   8.134   4.691  0.8019 -0.9792  1.4998
24438SOL     OW77998  10.771   8.036   8.041 -0.0788  0.4981  0.4057
24438SOL    HW177999  10.754   7.942   8.038  0.6012  0.3422  1.1835
24438SOL    HW278000  10.852   8.044   8.091  0.9951  1.3659 -1.3998
24439SOL     OW78001  11.378   9.814   1.685 -0.0765  0.6792  0.2533
24439SOL    HW178002  11.340   9.744   1.631 -2.3478  2.2735 -0.3554
24439SOL    HW278003  11.314   9.827   1.755  0.2391  2.2248  0.2779
24440SOL     OW78004   4.826   3.936   3.951 -0.8846 -0.2135 -0.2618
24440SOL    HW178005   4.745   3.964   3.910 -0.2108  0.7657 -0.9509
24440SOL    HW278006   4.799   3.899   4.035 -2.1392 -0.9319 -0.9568
24441SOL     OW78007   3.674   2.683   3.919 -1.1446  0.8619  0.2539
24441SOL    HW178008   3.621   2.606   3.899 -0.8210  0.1040  2.1450
24441SOL    HW278009   3.676   2.732   3.837 -1.7893 -0.8684 -0.8542
24442SOL     OW78010   9.882   2.245  11.030 -0.4419  0.2327  0.3112
24442SOL    HW178011   9.938   2.173  11.003 -1.4053 -0.3375 -0.2443
24442SOL    HW278012   9.823   2.208  11.096 -2.3084 -0.1123 -1.4255
24443SOL     OW78013   6.329   8.929  10.535  0.1179  0.4107  0.1815
24443SOL    HW178014   6.239   8.915  10.564 -0.4497  0.4033 -1.4805
24443SOL    HW278015   6.356   8.845  10.498 -0.0820  1.0585 -1.5383
24444SOL     OW78016   3.160   0.395   6.470 -0.0984 -0.2834  0.4677
24444SOL    HW178017   3.226   0.456   6.503 -0.7941  1.2456 -0.8078
24444SOL    HW278018   3.211   0.322   6.433  0.8076  0.1363  0.8555
24445SOL     OW78019   0.021   4.274  10.937  0.1807  0.0714  0.1673
24445SOL    HW178020   0.116   4.282  10.929  0.1488  0.2786  0.0031
24445SOL    HW278021   0.009   4.203  11.000  0.4438  0.0152  0.1568
24446SOL     OW78022   0.717   0.605   1.097 -0.2978  0.0673 -0.4006
24446SOL    HW178023   0.774   0.567   1.031  0.1643  1.8161 -1.0785
24446SOL    HW278024   0.634   0.620   1.051 -0.6909 -0.6983  0.0411
24447SOL     OW78025   2.654  10.595   8.063  0.3804  0.2359 -0.2016
24447SOL    HW178026   2.649  10.584   7.968  0.2892  1.2779 -0.3367
24447SOL    HW278027   2.742  10.631   8.079  0.6691 -0.6163  0.1930
24448SOL     OW78028   3.806   0.128   3.621  0.5567  0.2374  0.0959
24448SOL    HW178029   3.754   0.208   3.613 -0.9361 -0.8072 -1.2610
24448SOL    HW278030   3.849   0.135   3.707 -0.7532  1.7667  0.6661
24449SOL     OW78031   2.152   8.765  11.522  0.4906  0.3363 -0.2310
24449SOL    HW178032   2.139   8.671  11.537 -1.2722  0.6386  0.4511
24449SOL    HW278033   2.194   8.796  11.602 -2.4419  0.7269  1.2867
24450SOL     OW78034   7.708   3.937  10.523 -0.0099  0.2055 -0.4465
24450SOL    HW178035   7.733   3.845  10.514  0.2516  0.4475 -2.5787
24450SOL    HW278036   7.650   3.954  10.449 -0.8636  1.5203  0.4844
24451SOL     OW78037   6.203   7.286   7.985  0.4927  0.1002 -0.2567
24451SOL    HW178038   6.164   7.211   7.939  1.5034  0.2033 -1.3306
24451SOL    HW278039   6.281   7.250   8.027 -0.6518 -0.1068  1.8794
24452SOL     OW78040   9.800   3.106  11.257 -0.1858 -0.0433 -0.3279
24452SOL    HW178041   9.709   3.087  11.235 -0.3929  2.1060 -1.5524
24452SOL    HW278042   9.820   3.045  11.328 -2.1416 -1.4756 -0.9138
24453SOL     OW78043   5.578   8.088  10.850 -0.6419  0.4135 -0.1860
24453SOL    HW178044   5.633   8.010  10.861  0.1159  0.7897 -1.1345
24453SOL    HW278045   5.599   8.142  10.927  0.0042  0.3568 -0.3113
24454SOL     OW78046   7.275   1.848  11.816 -0.2322 -0.3852 -0.1486
24454SOL    HW178047   7.230   1.857  11.900  0.3539 -0.5245  0.1880
24454SOL    HW278048   7.366   1.872  11.835 -0.5154  1.7924 -1.2228
24455SOL     OW78049   6.479  11.199   3.036 -0.5917 -0.3160 -0.2050
24455SOL    HW178050   6.396  11.186   3.080 -0.2176  0.1501  0.6677
24455SOL    HW278051   6.481  11.133   2.967 -1.1541 -1.1284  0.5371
24456SOL     OW78052   3.518  11.562   2.378 -0.3910  0.1324 -0.1000
24456SOL    HW178053   3.604  11.541   2.340 -0.2600  0.9935 -0.3039
24456SOL    HW278054   3.456  11.508   2.330  0.0506 -0.5922  0.1337
24457SOL     OW78055   8.874   2.304   8.552  0.4992  0.1961 -0.0493
24457SOL    HW178056   8.903   2.305   8.643  2.7075  1.2599 -0.6903
24457SOL    HW278057   8.787   2.264   8.555  0.3297  0.5689  2.5586
24458SOL     OW78058   7.642   2.930  10.046 -0.3693  0.1094  0.2697
24458SOL    HW178059   7.623   3.021  10.070  1.7688  0.8484 -0.5582
24458SOL    HW278060   7.562   2.882  10.065 -2.5235  2.6207 -1.7430
24459SOL     OW78061   3.177   7.475   3.310  0.0906  0.2200  0.0976
24459SOL    HW178062   3.085   7.465   3.286  0.3117  1.7859 -1.5685
24459SOL    HW278063   3.222   7.488   3.227  1.7508  0.0373  0.9395
24460SOL     OW78064  10.801  10.432   6.074 -0.4223  0.2999  0.2197
24460SOL    HW178065  10.881  10.431   6.022 -0.3640 -0.9721  0.3035
24460SOL    HW278066  10.767  10.521   6.065  1.7290  1.3059  1.3261
24461SOL     OW78067   0.230   9.117   8.630  0.1799 -0.2749  0.0621
24461SOL    HW178068   0.266   9.051   8.689  0.3878 -0.2340 -0.0195
24461SOL    HW278069   0.286   9.194   8.643  1.6090 -0.9366 -1.7851
24462SOL     OW78070   0.750   7.203  11.333 -0.0425  0.6818 -0.6559
24462SOL    HW178071   0.749   7.267  11.404  0.9214  0.8639 -0.7903
24462SOL    HW278072   0.658   7.181  11.319 -0.2345  0.5819  0.6922
24463SOL     OW78073   6.181   9.655   2.267 -0.3720 -0.1562  0.2587
24463SOL    HW178074   6.112   9.684   2.208 -0.8629 -0.4520  0.6777
24463SOL    HW278075   6.198   9.564   2.242 -0.2911 -0.1540  0.3033
24464SOL     OW78076   3.809  11.053   2.583 -0.1133 -0.2033  0.1616
24464SOL    HW178077   3.859  11.070   2.504 -0.6755 -0.5487 -0.2714
24464SOL    HW278078   3.770  10.967   2.570 -0.0016 -0.3797  0.9237
24465SOL     OW78079   8.385   1.199   9.870  0.3720  0.1205 -0.2951
24465SOL    HW178080   8.370   1.185   9.964  1.6459  0.4403 -0.0356
24465SOL    HW278081   8.370   1.292   9.857 -0.9818 -0.1239 -0.6581
24466SOL     OW78082   0.152   8.438   1.928 -0.2837 -0.6721  0.1748
24466SOL    HW178083   0.199   8.504   1.979  0.4437 -0.4718 -0.7220
24466SOL    HW278084   0.202   8.357   1.942 -0.2802 -0.6907  0.0583
24467SOL     OW78085  10.194   9.538   0.018 -0.2751 -0.5874  0.2100
24467SOL    HW178086  10.128   9.469   0.017 -0.0058 -0.8513  0.4984
24467SOL    HW278087  10.236   9.531  -0.068 -1.9215  0.8641 -0.7692
24468SOL     OW78088   8.793   5.201   1.136 -0.3231 -0.2111  0.5354
24468SOL    HW178089   8.715   5.239   1.095 -2.1613 -1.6992  2.4006
24468SOL    HW278090   8.866   5.234   1.084 -2.1845  1.1340 -1.4174
24469SOL     OW78091   1.847   3.023  11.641 -0.1773 -0.0253  0.1618
24469SOL    HW178092   1.828   2.966  11.716 -0.0701 -2.0919 -1.3083
24469SOL    HW278093   1.871   3.107  11.681  0.5649 -1.2378  2.4593
24470SOL     OW78094   7.380   0.694   8.822  0.3698 -0.3682  0.9784
24470SOL    HW178095   7.467   0.734   8.830  0.1552  0.2984  0.1850
24470SOL    HW278096   7.376   0.662   8.732 -0.0909 -0.6787  1.1050
24471SOL     OW78097   8.989   4.867   0.833 -0.3641 -0.0467 -0.1413
24471SOL    HW178098   8.988   4.876   0.928 -0.6786 -0.6534 -0.0839
24471SOL    HW278099   9.037   4.786   0.818 -0.3432  0.0317 -0.5011
24472SOL     OW78100   5.703   4.853   6.664 -0.6147 -0.3922  0.3388
24472SOL    HW178101   5.758   4.867   6.586 -2.5628  3.0438 -0.6351
24472SOL    HW278102   5.761   4.872   6.738  1.0082 -2.7725 -0.1930
24473SOL     OW78103  11.342  11.741  10.769 -0.2912  0.3135 -0.7695
24473SOL    HW178104  11.411  11.714  10.709 -0.8793 -1.0450 -0.8885
24473SOL    HW278105  11.387  11.757  10.852  0.2794  0.3279 -1.0764
24474SOL     OW78106   2.341   6.674   4.128 -0.2810 -0.7428  0.2591
24474SOL    HW178107   2.300   6.665   4.043 -1.2683 -0.6928  0.7215
24474SOL    HW278108   2.331   6.766   4.151  1.6384 -0.3298 -0.3755
24475SOL     OW78109  11.800   4.167   5.109  0.3022  0.4813  0.0103
24475SOL    HW178110  11.724   4.225   5.117  0.8979  1.0001  2.4216
24475SOL    HW278111  11.874   4.225   5.092  0.4128  0.1112 -0.8278
24476SOL     OW78112  10.881   2.918   5.828  0.4406  0.5683 -0.2385
24476SOL    HW178113  10.882   2.851   5.897 -0.5171  0.4209 -0.3564
24476SOL    HW278114  10.826   2.881   5.760 -1.6147  2.1888  0.4380
24477SOL     OW78115   4.498   9.676   7.864  0.1573 -0.1693  0.0158
24477SOL    HW178116   4.417   9.724   7.847 -0.3434 -0.3477  1.7361
24477SOL    HW278117   4.474   9.584   7.858  0.2547 -0.2223  0.3733
24478SOL     OW78118   4.974   1.422   1.549  0.3986 -0.4053  0.1798
24478SOL    HW178119   5.031   1.374   1.608  1.0831  1.5029  1.1408
24478SOL    HW278120   5.011   1.510   1.545 -0.8129  0.0871 -1.4928
24479SOL     OW78121   4.634   6.756   1.306  0.3831  0.2290 -0.1982
24479SOL    HW178122   4.713   6.763   1.253  0.0889 -0.3050 -0.7294
24479SOL    HW278123   4.630   6.664   1.331 -0.6279  0.0003 -1.1014
24480SOL     OW78124   9.023   4.602   8.474  0.0735  0.5559  0.3384
24480SOL    HW178125   8.933   4.629   8.454  0.3689  0.0363 -1.9771
24480SOL    HW278126   9.074   4.631   8.398  1.6853 -0.0885  1.1311
24481SOL     OW78127   7.982   6.423   3.230  0.1736 -0.1148  0.0494
24481SOL    HW178128   8.006   6.514   3.246 -1.4116  0.1223  1.3050
24481SOL    HW278129   8.034   6.373   3.293  0.0477  0.0505  0.2862
24482SOL     OW78130   0.097   2.410   2.642 -0.0044 -0.0737 -0.0313
24482SOL    HW178131   0.105   2.429   2.549 -2.7696  0.4930 -0.2325
24482SOL    HW278132   0.087   2.495   2.684  0.0990 -0.3874  0.6603
24483SOL     OW78133   5.151   3.319   9.418 -0.2992  0.1146  0.2121
24483SOL    HW178134   5.100   3.397   9.394 -0.9041 -0.1412  0.6416
24483SOL    HW278135   5.232   3.327   9.368 -1.4429 -0.3294 -1.7878
24484SOL     OW78136   0.821   2.565   9.635  0.2517 -0.5198 -0.3494
24484SOL    HW178137   0.819   2.470   9.642  2.2009 -0.5258  0.9586
24484SOL    HW278138   0.882   2.584   9.565 -0.5057 -0.2084 -0.9449
24485SOL     OW78139   6.126   4.517   1.406 -0.1130  0.8587 -0.0803
24485SOL    HW178140   6.083   4.597   1.437  0.4612  0.7257  1.1315
24485SOL    HW278141   6.102   4.451   1.471 -0.0617  0.1922 -0.7277
24486SOL     OW78142   6.527   4.622   2.563 -0.0683 -0.0055  0.2751
24486SOL    HW178143   6.577   4.692   2.522 -0.9076 -0.3220 -1.4039
24486SOL    HW278144   6.440   4.660   2.577 -0.2981 -0.4545  0.1001
24487SOL     OW78145   4.172   3.715   4.127  0.3738  0.2683  0.8623
24487SOL    HW178146   4.213   3.629   4.117 -0.9023 -0.2457 -0.2574
24487SOL    HW278147   4.240   3.769   4.168  1.3614 -1.1352  1.1574
24488SOL     OW78148   1.414   5.782   8.064  0.7650  0.2296 -0.1150
24488SOL    HW178149   1.428   5.834   8.143  0.2784 -2.5961  1.9871
24488SOL    HW278150   1.320   5.765   8.063  1.0930 -1.9071  0.2414
24489SOL     OW78151   3.312   1.363  10.874  0.0035  0.0431 -0.0253
24489SOL    HW178152   3.402   1.388  10.894  1.2734 -1.4659 -3.2021
24489SOL    HW278153   3.293   1.405  10.790 -1.5981 -1.1305 -0.3006
24490SOL     OW78154   3.079   2.025  11.879 -0.0077  0.0625 -0.4408
24490SOL    HW178155   2.992   1.986  11.873 -0.8601  1.9995 -1.7607
24490SOL    HW278156   3.100   2.023  11.972 -1.0004 -1.3200 -0.2050
24491SOL     OW78157   0.133  10.317   9.199  0.0480 -0.2201  0.3331
24491SOL    HW178158   0.081  10.387   9.239  0.3184  0.1132  0.1091
24491SOL    HW278159   0.094  10.236   9.233 -1.3535 -0.0176 -0.7173
24492SOL     OW78160   0.522   9.187   8.964  0.0211 -0.4338  0.0615
24492SOL    HW178161   0.558   9.108   8.925 -1.1630 -0.3361 -1.2984
24492SOL    HW278162   0.587   9.255   8.946 -0.3850 -0.4481 -1.5401
24493SOL     OW78163   9.776   9.715   1.962  1.0470  0.5477  0.3372
24493SOL    HW178164   9.839   9.739   1.893  0.2787  1.8271  0.0463
24493SOL    HW278165   9.692   9.749   1.930 -0.0307 -1.9545  0.2543
24494SOL     OW78166   0.070  10.124   4.349  0.2888 -0.0274 -0.5421
24494SOL    HW178167  -0.017  10.117   4.311  0.9944 -1.2104 -2.0537
24494SOL    HW278168   0.092  10.035   4.375  1.5845  0.0003 -1.4659
24495SOL     OW78169   1.914   6.053   5.235 -0.6065 -0.0848 -0.4299
24495SOL    HW178170   1.851   6.124   5.241 -0.8557 -0.1682 -1.6604
24495SOL    HW278171   1.938   6.051   5.142  0.1221 -0.9772 -0.2341
24496SOL     OW78172   9.721   3.697   5.158  0.3099  0.2150 -0.0408
24496SOL    HW178173   9.667   3.775   5.143  0.4437  0.2297 -0.4407
24496SOL    HW278174   9.657   3.628   5.178  0.2735  0.9121  2.6287
24497SOL     OW78175   3.494   9.868   3.566  0.8609  0.6335  0.5783
24497SOL    HW178176   3.536   9.822   3.639  1.4051  2.3356  1.3689
24497SOL    HW278177   3.408   9.893   3.600  1.1183  1.4398  0.6399
24498SOL     OW78178   0.112  10.491   8.672 -0.4714 -0.6083  0.1048
24498SOL    HW178179   0.175  10.515   8.604  1.1120 -1.4403  1.1933
24498SOL    HW278180   0.096  10.397   8.657  0.7478 -1.0790  1.4521
24499SOL     OW78181   6.521   3.088  11.610 -0.2564 -0.4373 -0.1439
24499SOL    HW178182   6.550   3.151  11.677 -1.2137 -0.1082 -0.0238
24499SOL    HW278183   6.567   3.115  11.531  0.3003 -0.3572  0.1984
24500SOL     OW78184  11.113  11.045   2.794 -0.3293 -0.1027 -0.1811
24500SOL    HW178185  11.046  11.071   2.857 -2.7617 -3.0139 -1.3062
24500SOL    HW278186  11.082  11.079   2.710  0.1707 -0.5416 -0.5507
24501SOL     OW78187  10.107  10.300   8.664 -0.7251  0.3643 -0.4082
24501SOL    HW178188  10.095  10.273   8.573  1.5081 -0.1575 -0.6116
24501SOL    HW278189  10.180  10.246   8.695 -1.2589  0.7211  1.6252
24502SOL     OW78190   4.657  10.704  11.687  0.8391  0.2578 -0.4483
24502SOL    HW178191   4.705  10.626  11.657 -0.5680 -1.5813  1.7524
24502SOL    HW278192   4.621  10.742  11.607  0.4703 -2.1387 -1.5157
24503SOL     OW78193   4.092   6.782   3.779  0.0744  0.2188  0.1813
24503SOL    HW178194   4.172   6.794   3.829  0.2034  2.3872 -0.4586
24503SOL    HW278195   4.083   6.687   3.771  1.6975 -0.1106  1.6128
24504SOL     OW78196   7.912   5.424   7.166 -0.6984 -0.2628 -0.0406
24504SOL    HW178197   7.881   5.351   7.219  1.6294 -1.7864 -0.6350
24504SOL    HW278198   7.905   5.500   7.223 -2.3591 -1.0662  0.8896
24505SOL     OW78199   2.036   1.043   3.881 -0.2447  0.2129 -0.2032
24505SOL    HW178200   1.983   1.122   3.870  1.6315  1.3236 -2.0171
24505SOL    HW278201   2.126   1.075   3.886  0.6643 -1.8310 -1.7963
24506SOL     OW78202   2.710   8.568   3.835 -0.1240  0.1313  0.0055
24506SOL    HW178203   2.678   8.568   3.925 -0.5642 -3.7671  0.0521
24506SOL    HW278204   2.780   8.632   3.833 -1.1213  1.4299  2.6783
24507SOL     OW78205   8.110   7.651   2.683  0.4693  0.4834 -0.0972
24507SOL    HW178206   8.075   7.688   2.603 -1.6734 -0.1972  0.4651
24507SOL    HW278207   8.075   7.707   2.753 -0.3660 -0.8016  0.5504
24508SOL     OW78208   9.771   4.185   0.938  0.0559  0.0219 -0.5441
24508SOL    HW178209   9.690   4.216   0.898 -1.2822  0.2200  2.1421
24508SOL    HW278210   9.833   4.179   0.864 -1.8606  1.5073 -2.4034
24509SOL     OW78211   5.461   5.547   7.378  0.3205  0.2145 -0.4815
24509SOL    HW178212   5.375   5.578   7.405  1.3559  1.8779  1.1940
24509SOL    HW278213   5.506   5.625   7.346  1.7026 -0.2838  0.1404
24510SOL     OW78214   0.435   3.516   3.329 -0.2529  0.4650  0.2290
24510SOL    HW178215   0.358   3.552   3.372 -0.7850 -1.1478  0.7105
24510SOL    HW278216   0.509   3.542   3.385 -0.6589  0.4374  0.7766
24511SOL     OW78217   8.853   2.197   0.284  0.1833 -0.7596  0.1133
24511SOL    HW178218   8.884   2.178   0.195  0.5959 -1.6651  0.4334
24511SOL    HW278219   8.932   2.196   0.338  0.1342  1.2410  0.2916
24512SOL     OW78220   3.573  10.356   6.078 -0.3089  0.3632  0.3080
24512SOL    HW178221   3.499  10.304   6.047  0.4410 -0.3117 -0.4281
24512SOL    HW278222   3.638  10.349   6.007  0.6898  0.4383  1.1903
24513SOL     OW78223   8.881   5.535   2.083 -0.1362 -0.2732  0.1002
24513SOL    HW178224   8.962   5.562   2.039 -1.0060  1.2911 -0.6129
24513SOL    HW278225   8.817   5.527   2.012 -0.9775 -0.0290  0.8266
24514SOL     OW78226   1.645   2.266   6.411  0.1978  0.3491 -0.0866
24514SOL    HW178227   1.703   2.289   6.484  1.1301 -0.0697 -0.6830
24514SOL    HW278228   1.608   2.181   6.436 -1.1007  1.1443  0.8346
24515SOL     OW78229   4.466   5.558   8.740  0.1274  0.5894  0.6433
24515SOL    HW178230   4.411   5.631   8.768  0.3410  0.8695  0.3500
24515SOL    HW278231   4.549   5.599   8.715  0.0869  0.3015  0.0144
24516SOL     OW78232  10.577   4.340  11.207  0.1655  0.0335 -0.1439
24516SOL    HW178233  10.671   4.324  11.196 -0.2921 -2.7814 -0.5567
24516SOL    HW278234  10.562   4.332  11.301  0.2123 -0.4775 -0.1754
24517SOL     OW78235   0.436  10.250   6.103 -0.5962 -0.2649  0.1037
24517SOL    HW178236   0.365  10.295   6.149 -1.4570 -1.3791 -0.0913
24517SOL    HW278237   0.508  10.247   6.167 -0.5035  1.3502  0.1185
24518SOL     OW78238   9.998   3.964   0.269  0.5613 -0.2397 -0.4514
24518SOL    HW178239  10.068   3.909   0.235  0.8707  0.5967 -1.2150
24518SOL    HW278240   9.983   4.028   0.199 -0.5481 -0.0420 -0.0410
24519SOL     OW78241   8.148   3.463   9.702  0.2612  0.4839  0.5111
24519SOL    HW178242   8.161   3.557   9.715  0.9964  0.3358  0.9674
24519SOL    HW278243   8.120   3.431   9.788  0.3388  0.2382  0.4441
24520SOL     OW78244   3.522   6.916   9.839  0.5120 -0.7524 -0.2296
24520SOL    HW178245   3.561   6.968   9.909  0.0325 -1.3312  0.4700
24520SOL    HW278246   3.467   6.978   9.791  1.1553 -0.2631 -0.3442
24521SOL     OW78247   5.384   0.635   8.471 -0.3878 -0.2386 -0.0577
24521SOL    HW178248   5.423   0.566   8.418  0.9032 -0.0253  0.5852
24521SOL    HW278249   5.456   0.695   8.491 -1.0853  0.2965  0.9676
24522SOL     OW78250   5.093  10.424   8.853  0.1405 -0.0369 -0.2064
24522SOL    HW178251   5.055  10.504   8.889  1.2529  0.0822  0.7576
24522SOL    HW278252   5.063  10.354   8.911 -0.4253 -0.2717 -0.7627
24523SOL     OW78253   7.195   4.208   3.626 -0.7727 -0.5971  0.0089
24523SOL    HW178254   7.279   4.236   3.588 -1.5069  0.8991 -0.6019
24523SOL    HW278255   7.151   4.163   3.554 -0.3974 -1.6269  0.4116
24524SOL     OW78256  10.377   5.961   7.217 -0.0113 -0.3874  0.0231
24524SOL    HW178257  10.472   5.975   7.219 -0.0976  0.3226 -0.5167
24524SOL    HW278258  10.341   6.034   7.267 -0.3277 -0.1667 -0.5273
24525SOL     OW78259   0.647  11.925   8.107 -0.2261 -0.2591 -0.4473
24525SOL    HW178260   0.683  11.979   8.177  1.1365 -2.1676  0.3985
24525SOL    HW278261   0.584  11.868   8.150 -0.3740 -0.5353 -1.0157
24526SOL     OW78262   0.475   1.444  11.160 -0.3003  0.1514 -0.4743
24526SOL    HW178263   0.499   1.377  11.095  0.5700 -1.2861  1.2281
24526SOL    HW278264   0.420   1.506  11.112  3.1948  1.2292 -3.5433
24527SOL     OW78265   5.560   7.064  10.909 -0.1277 -0.0440 -0.2242
24527SOL    HW178266   5.517   7.072  10.994 -1.0534 -1.1996 -0.5561
24527SOL    HW278267   5.493   7.027  10.852  0.3623  1.0616 -1.5717
24528SOL     OW78268   7.908   7.513   5.861 -0.0765 -0.0803 -0.1636
24528SOL    HW178269   7.865   7.574   5.801  0.1737  1.7613  1.4213
24528SOL    HW278270   8.001   7.519   5.839  0.2187  1.8023  1.3188
24529SOL     OW78271   7.554   7.197   0.985  0.2368  0.3043  0.3899
24529SOL    HW178272   7.485   7.165   1.043  0.1496 -1.7803 -0.7580
24529SOL    HW278273   7.634   7.157   1.020  0.1611 -1.0991 -0.9526
24530SOL     OW78274   8.182   9.188   3.547 -0.3108  0.4494  0.2725
24530SOL    HW178275   8.134   9.239   3.482  0.0874  0.6083  0.0987
24530SOL    HW278276   8.115   9.140   3.595 -0.5972  0.2372 -0.3375
24531SOL     OW78277   7.503   1.080  10.641 -0.0526  0.2812  0.4732
24531SOL    HW178278   7.427   1.136  10.624 -1.0085 -1.5806 -1.9319
24531SOL    HW278279   7.576   1.127  10.600 -0.3432  0.9200  0.6648
24532SOL     OW78280   4.581  11.678   9.813  0.0781 -0.7831  0.0618
24532SOL    HW178281   4.486  11.678   9.807  0.0206 -1.5199  0.8087
24532SOL    HW278282   4.607  11.590   9.787  0.5745 -0.5254 -0.3408
24533SOL     OW78283   9.879  11.626   4.423  0.5082  0.2131 -0.1779
24533SOL    HW178284   9.815  11.575   4.374  0.4433  0.1042  0.0178
24533SOL    HW278285   9.835  11.709   4.441  0.0822 -0.1991  0.7335
24534SOL     OW78286  11.753   8.366   3.514  0.6553 -0.0805  0.2636
24534SOL    HW178287  11.767   8.386   3.421  0.4415 -1.7178 -0.1546
24534SOL    HW278288  11.768   8.272   3.520 -2.1213 -0.5363  1.3306
24535SOL     OW78289   0.872   2.899   5.174 -0.1437 -0.1905 -0.1606
24535SOL    HW178290   0.924   2.974   5.146 -0.6440  0.4844  0.6574
24535SOL    HW278291   0.931   2.848   5.229 -0.2903  0.5028  0.6557
24536SOL     OW78292   3.995  11.598   6.036 -0.2731  0.4944 -0.7628
24536SOL    HW178293   3.937  11.538   5.989 -1.2525  0.1173  0.8524
24536SOL    HW278294   3.936  11.657   6.082  0.5606 -0.3094  1.4615
24537SOL     OW78295   5.218   8.941   7.728 -0.4894  0.9251  0.0921
24537SOL    HW178296   5.274   8.874   7.768 -0.1155  2.2428  1.8791
24537SOL    HW278297   5.151   8.891   7.682  0.7930 -0.6875 -0.1426
24538SOL     OW78298   5.921  10.910  11.156  0.0833  0.2607 -0.1316
24538SOL    HW178299   5.947  10.825  11.121  0.7355  0.5531 -0.3671
24538SOL    HW278300   5.832  10.923  11.124 -0.3222 -0.6971  0.5770
24539SOL     OW78301   0.135  11.189   8.693 -0.3610  0.3878  0.4032
24539SOL    HW178302   0.055  11.151   8.728  1.3115 -1.4791  2.3927
24539SOL    HW278303   0.140  11.276   8.734 -1.2195  0.4428  0.4165
24540SOL     OW78304   2.260   1.699   3.791 -0.1923 -0.1015 -0.0866
24540SOL    HW178305   2.248   1.673   3.882  3.5281 -0.8183  0.3666
24540SOL    HW278306   2.278   1.793   3.794 -2.3633  0.3719 -0.4267
24541SOL     OW78307   2.279   3.031   8.583  0.0311  0.0025  0.0175
24541SOL    HW178308   2.210   3.095   8.599  0.4168  0.1164  1.3905
24541SOL    HW278309   2.253   2.987   8.502 -2.6536 -1.2237  1.3983
24542SOL     OW78310   5.711   6.290   8.966  0.4734 -0.1280  0.0019
24542SOL    HW178311   5.688   6.222   8.903  0.1126 -0.2775  0.2893
24542SOL    HW278312   5.795   6.324   8.935  0.5367 -0.5323 -0.2828
24543SOL     OW78313   3.815   9.211   6.914 -0.0609 -0.1810  0.0226
24543SOL    HW178314   3.772   9.217   6.829  0.9709  0.6083 -0.4759
24543SOL    HW278315   3.754   9.253   6.975  0.4007  1.9121 -0.8476
24544SOL     OW78316   5.401   2.153   1.097  0.0892  0.2350  0.5621
24544SOL    HW178317   5.355   2.090   1.042  0.0389  1.3528 -0.7320
24544SOL    HW278318   5.485   2.110   1.116  0.2320 -0.0794 -0.6406
24545SOL     OW78319   4.458   4.278  10.346 -0.3876  0.1493  0.0206
24545SOL    HW178320   4.544   4.237  10.345 -1.5262 -2.4523 -1.0655
24545SOL    HW278321   4.416   4.244  10.424 -0.9281  0.2499 -0.2180
24546SOL     OW78322  10.365  10.851   3.475  0.2870  0.5458  0.4119
24546SOL    HW178323  10.346  10.933   3.520  0.2544 -0.8533  3.1458
24546SOL    HW278324  10.442  10.870   3.422 -0.0969  2.4693  0.4493
24547SOL     OW78325   8.532   1.439   0.882  0.5892  0.1347 -0.1112
24547SOL    HW178326   8.621   1.428   0.850  0.3419 -1.0390 -0.4501
24547SOL    HW278327   8.493   1.506   0.825  1.2713  0.7363  0.1156
24548SOL     OW78328   5.015  10.631   8.999 -0.0220  0.1555 -0.3113
24548SOL    HW178329   5.039  10.626   9.092 -0.8673 -3.7615 -0.1319
24548SOL    HW278330   4.931  10.676   8.999  1.0973  2.4200  0.4395
24549SOL     OW78331   0.868   0.521   1.906  0.1751 -0.2017 -0.0283
24549SOL    HW178332   0.811   0.498   1.833 -1.8492 -1.7751  1.9034
24549SOL    HW278333   0.952   0.479   1.885 -0.0474  0.1796 -1.8422
24550SOL     OW78334   7.635   4.884   7.279  0.1823  0.3449  0.0325
24550SOL    HW178335   7.605   4.966   7.317 -1.7465  2.1401 -4.6324
24550SOL    HW278336   7.706   4.910   7.219  1.1187 -1.7796  0.1277
24551SOL     OW78337   1.491   2.248   8.881  0.1725 -0.1243 -0.0761
24551SOL    HW178338   1.491   2.316   8.814 -1.4577  0.2726  0.2716
24551SOL    HW278339   1.456   2.291   8.959 -1.3695 -1.4370  0.0203
24552SOL     OW78340   6.862   7.281  11.423 -0.1297  0.0122  0.5170
24552SOL    HW178341   6.808   7.287  11.502 -0.6709 -0.8386  0.2268
24552SOL    HW278342   6.949   7.311  11.450 -0.6128  0.8932  1.1249
24553SOL     OW78343   5.601   0.496   0.838  0.6566 -0.5539  0.0430
24553SOL    HW178344   5.532   0.436   0.869  0.0531  1.1402  2.2477
24553SOL    HW278345   5.676   0.476   0.894  0.6762  0.2342  0.3048
24554SOL     OW78346   9.308  11.819   7.759 -0.3005 -0.3757 -0.1443
24554SOL    HW178347   9.386  11.811   7.813 -0.3165  1.2225  0.1403
24554SOL    HW278348   9.248  11.873   7.810 -0.5311  0.7198 -1.5260
24555SOL     OW78349   7.274   2.803  11.079  0.3281 -0.6101  0.3821
24555SOL    HW178350   7.337   2.868  11.047 -0.5759  0.7705  1.2482
24555SOL    HW278351   7.311   2.772  11.162 -1.0064  1.7835  2.0050
24556SOL     OW78352   4.967   7.074   9.788 -0.0847  0.0372 -0.4485
24556SOL    HW178353   4.925   6.988   9.782 -1.2966  0.4430  1.3863
24556SOL    HW278354   5.053   7.056   9.825  0.7556 -0.6178 -2.5763
24557SOL     OW78355   6.613  11.452   2.014 -0.2493 -0.4297  0.3158
24557SOL    HW178356   6.539  11.463   1.954 -0.5188  1.1138  0.8648
24557SOL    HW278357   6.620  11.537   2.058  2.8754  0.0399 -0.8474
24558SOL     OW78358   8.282  11.088   4.378 -0.2260 -0.2904 -0.0886
24558SOL    HW178359   8.225  11.058   4.307  0.2051 -0.1403 -0.5051
24558SOL    HW278360   8.223  11.104   4.451 -0.7178 -0.1767 -0.5036
24559SOL     OW78361   8.955   9.915  11.957 -0.1964  0.2016  0.4763
24559SOL    HW178362   8.990   9.864  12.030 -1.3220  1.0046  1.6098
24559SOL    HW278363   8.996  10.001  11.966 -2.1822  1.0865  1.6849
24560SOL     OW78364   9.764   2.025  11.653  0.0278 -0.5300 -0.7526
24560SOL    HW178365   9.851   2.057  11.630  0.7241 -2.4408 -0.9675
24560SOL    HW278366   9.716   2.025  11.570  0.1041 -0.3192 -0.7985
24561SOL     OW78367  10.888   8.505   7.956  0.5622 -0.2981  0.6953
24561SOL    HW178368  10.928   8.516   7.870  1.2450  1.0752  1.1545
24561SOL    HW278369  10.804   8.463   7.938  0.7856 -0.2292 -0.6129
24562SOL     OW78370   5.546   7.384   0.171 -0.1519 -0.2165 -0.1361
24562SOL    HW178371   5.641   7.385   0.158 -0.2253  0.3650 -0.6471
24562SOL    HW278372   5.525   7.291   0.178  0.3522 -0.3950 -0.8475
24563SOL     OW78373  11.170   2.561   9.397 -0.5442  0.1448  0.3884
24563SOL    HW178374  11.237   2.563   9.328 -0.4878  0.4376  0.4510
24563SOL    HW278375  11.092   2.598   9.355 -0.8480 -0.7755  0.1266
24564SOL     OW78376  11.133   3.333   2.825 -0.2182  0.2852  0.0556
24564SOL    HW178377  11.228   3.328   2.818 -0.1959  0.9282 -0.2021
24564SOL    HW278378  11.101   3.262   2.769  0.1177 -0.7617  1.1535
24565SOL     OW78379  11.422   1.620   7.256  0.5157 -0.1670 -0.1309
24565SOL    HW178380  11.451   1.531   7.233 -2.2477 -0.7494 -1.9072
24565SOL    HW278381  11.488   1.677   7.217  1.5089 -1.4241 -0.3696
24566SOL     OW78382   2.310   1.498   4.473  0.0221  0.4789  0.3829
24566SOL    HW178383   2.397   1.536   4.473 -0.1460  1.2091 -2.9888
24566SOL    HW278384   2.251   1.572   4.458 -0.9706 -0.2728  0.4525
24567SOL     OW78385  10.631   0.600   4.731 -0.3395  0.0536 -0.0105
24567SOL    HW178386  10.633   0.593   4.827 -0.3736  1.5362  0.1127
24567SOL    HW278387  10.721   0.624   4.707 -0.8713  2.0214 -0.1286
24568SOL     OW78388  11.743   1.994   0.496  0.4900 -0.1297 -0.0866
24568SOL    HW178389  11.683   1.947   0.554  0.8278 -1.1212 -0.5150
24568SOL    HW278390  11.808   2.033   0.555  0.4556 -0.5790  0.2576
24569SOL     OW78391   7.883   6.326   4.293  0.1675 -0.0962 -0.2118
24569SOL    HW178392   7.878   6.421   4.297 -0.4899 -0.0590 -1.3474
24569SOL    HW278393   7.891   6.306   4.200  0.2870 -1.1558  0.0060
24570SOL     OW78394   1.305   6.745   6.634  0.2407  0.5237 -0.1255
24570SOL    HW178395   1.325   6.659   6.598 -1.3940  0.2320 -0.3873
24570SOL    HW278396   1.224   6.732   6.684  0.5407  1.6913  0.6986
24571SOL     OW78397  11.369   6.981   0.418 -0.1066  0.2263  0.6528
24571SOL    HW178398  11.461   7.008   0.421 -0.1003  0.3192 -0.2339
24571SOL    HW278399  11.363   6.924   0.342 -0.8424  0.4162  0.5640
24572SOL     OW78400   7.758   5.530   5.204 -0.2281 -0.5317  0.0454
24572SOL    HW178401   7.798   5.451   5.167 -0.4954 -0.5448 -0.2165
24572SOL    HW278402   7.694   5.558   5.139  0.1457  0.1304 -0.0444
24573SOL     OW78403   3.016   4.984  11.990  0.2025 -0.2476  0.0945
24573SOL    HW178404   3.010   4.902  11.940  0.8228 -0.3406  0.1725
24573SOL    HW278405   2.939   4.982  12.047 -1.0802  0.3223 -1.5267
24574SOL     OW78406   5.447   9.864   7.544 -0.0169 -0.0475  0.1579
24574SOL    HW178407   5.352   9.857   7.538  0.0419  0.3531 -2.2831
24574SOL    HW278408   5.463   9.958   7.553  0.1521  0.0288 -0.7993
24575SOL     OW78409  10.926  10.208  10.281  0.0974  0.1384 -0.3698
24575SOL    HW178410  10.984  10.147  10.236  0.1386 -0.4989  0.5435
24575SOL    HW278411  10.936  10.188  10.374  0.5296  1.9047 -0.0008
24576SOL     OW78412   3.322   6.212  10.803 -0.2010  0.2676  0.5003
24576SOL    HW178413   3.307   6.270  10.877 -1.5410  0.4990  0.0657
24576SOL    HW278414   3.337   6.126  10.842 -1.2364  0.3199  1.0346
24577SOL     OW78415  11.310   7.676   9.433  0.0272 -0.5056  0.1692
24577SOL    HW178416  11.321   7.632   9.349 -1.5988  2.0266 -1.5026
24577SOL    HW278417  11.217   7.697   9.437  0.1454 -0.1707  2.4393
24578SOL     OW78418   0.881   5.433   5.087  0.2376 -0.6007  0.1674
24578SOL    HW178419   0.834   5.456   5.007  0.7871 -0.5007 -0.1329
24578SOL    HW278420   0.813   5.398   5.146 -0.1750 -0.6452 -0.3279
24579SOL     OW78421   6.110   7.763   2.835  0.3576  0.6965 -0.1850
24579SOL    HW178422   6.167   7.837   2.811 -0.0729  0.7224 -1.1914
24579SOL    HW278423   6.137   7.693   2.776 -0.3548  0.5769 -0.3726
24580SOL     OW78424   0.926   6.975  11.414 -0.0329  0.1936 -0.3418
24580SOL    HW178425   0.954   7.018  11.494  0.6829 -0.4725 -0.2196
24580SOL    HW278426   0.874   7.041  11.368  0.2305  0.8508  0.2845
24581SOL     OW78427   4.712   4.869   2.803  0.8806 -0.5808  0.2960
24581SOL    HW178428   4.639   4.878   2.864 -0.2048 -1.2224 -0.8703
24581SOL    HW278429   4.701   4.782   2.765 -0.2404  0.8122 -2.9622
24582SOL     OW78430   1.044   4.263   8.193  0.1610  0.5801  0.0851
24582SOL    HW178431   0.963   4.212   8.197 -0.5929  1.8222  2.1450
24582SOL    HW278432   1.112   4.200   8.220  0.1217 -0.7343 -2.5727
24583SOL     OW78433  11.362   0.680  10.367 -0.5332  0.0850 -0.3674
24583SOL    HW178434  11.449   0.656  10.399 -1.1454 -1.8069  0.0568
24583SOL    HW278435  11.304   0.662  10.442 -1.3203  1.0373 -0.7337
24584SOL     OW78436   4.514   4.170   1.963 -0.6592  0.3112 -0.5273
24584SOL    HW178437   4.543   4.175   1.872  0.5391 -0.1497 -0.1869
24584SOL    HW278438   4.419   4.181   1.958 -1.0459 -2.6543 -2.1228
24585SOL     OW78439   6.974   6.709   3.866 -0.1002 -0.2740 -0.5181
24585SOL    HW178440   7.010   6.760   3.793 -2.0160  0.9264 -0.7016
24585SOL    HW278441   6.985   6.766   3.943 -1.9042  0.3306 -0.6595
24586SOL     OW78442   4.578   8.174   2.006  0.2984  0.2837  0.6983
24586SOL    HW178443   4.512   8.181   2.076 -0.6175  0.9751 -0.2105
24586SOL    HW278444   4.570   8.256   1.958  0.7233 -0.2991 -0.3899
24587SOL     OW78445   7.877   2.891   0.934 -0.1457  0.6499 -0.3684
24587SOL    HW178446   7.961   2.914   0.895 -0.7123  0.8439 -1.5273
24587SOL    HW278447   7.849   2.970   0.980  0.5627  0.3974  0.5190
24588SOL     OW78448   8.116   0.978  11.769  0.5553 -0.0647  0.2257
24588SOL    HW178449   8.021   0.983  11.764  0.4755 -1.7917 -0.7404
24588SOL    HW278450   8.134   0.931  11.850  0.5632 -0.2383  0.1235
24589SOL     OW78451   7.037   9.479   2.812  0.2705 -0.1792 -0.2460
24589SOL    HW178452   7.011   9.417   2.879  0.0353 -0.3728 -0.5164
24589SOL    HW278453   7.107   9.531   2.853  1.8018 -1.8365 -0.6296
24590SOL     OW78454   8.303   7.452  11.108  0.1494  0.4877  0.5450
24590SOL    HW178455   8.385   7.471  11.062  0.6044  0.0280  1.1396
24590SOL    HW278456   8.250   7.531  11.096 -0.0442  0.1155 -1.3509
24591SOL     OW78457   4.861   0.324  10.111  0.1224 -0.0737  0.7348
24591SOL    HW178458   4.875   0.345  10.019 -0.6632  0.2085  0.6696
24591SOL    HW278459   4.766   0.314  10.119  0.2412 -0.7304  1.3832
24592SOL     OW78460   8.250   1.065   5.925 -0.6015  0.6018  0.1651
24592SOL    HW178461   8.296   1.072   5.841  0.9194 -0.3882  0.8640
24592SOL    HW278462   8.276   1.143   5.973  0.4136  0.0430  0.5598
24593SOL     OW78463   5.964   6.000   5.843  0.0623  0.0859 -0.1307
24593SOL    HW178464   5.948   5.916   5.799 -0.4369 -0.7469  1.5416
24593SOL    HW278465   6.044   6.034   5.802  0.8997 -1.7358 -0.1200
24594SOL     OW78466   3.379   1.366   5.374  0.7705 -0.1239 -0.3276
24594SOL    HW178467   3.427   1.448   5.382 -1.1687  1.0392  0.3049
24594SOL    HW278468   3.445   1.298   5.379  2.2969  1.3582  0.8629
24595SOL     OW78469   6.934   1.767  11.573 -0.4048  0.2672 -0.0590
24595SOL    HW178470   6.891   1.681  11.577  1.1799 -0.6078 -1.0495
24595SOL    HW278471   6.894   1.810  11.497 -1.1662  0.4136  0.4091
24596SOL     OW78472   4.037  11.639  10.034  0.5277 -0.0220 -0.1478
24596SOL    HW178473   4.034  11.562   9.978 -1.5772  0.2175 -0.4669
24596SOL    HW278474   4.020  11.713   9.975 -3.1618  0.1177  0.8492
24597SOL     OW78475   6.535   8.547   9.307 -0.0822 -0.2666  1.0592
24597SOL    HW178476   6.452   8.504   9.324 -0.0630  0.0443  1.9951
24597SOL    HW278477   6.533   8.626   9.361  0.5870  0.0268  0.6704
24598SOL     OW78478   5.492  11.882   5.692  0.0824 -0.2624 -0.3452
24598SOL    HW178479   5.569  11.940   5.697 -0.7859  1.0053 -1.1604
24598SOL    HW278480   5.422  11.932   5.734 -0.7360 -0.6144 -1.2583
24599SOL     OW78481   6.566   9.772   4.495  0.3365  0.5371  0.3863
24599SOL    HW178482   6.623   9.760   4.419  2.0170  0.2136  1.6474
24599SOL    HW278483   6.480   9.741   4.465  0.7488  1.1870 -1.6182
24600SOL     OW78484   0.190   4.249   1.738 -0.5439  0.2945 -0.1288
24600SOL    HW178485   0.246   4.324   1.719  0.9167 -1.2837 -2.5047
24600SOL    HW278486   0.240   4.173   1.708 -2.1027 -1.6478  1.8553
24601SOL     OW78487   3.216   2.969  11.244  0.8331 -0.3243 -0.0291
24601SOL    HW178488   3.186   3.054  11.212 -2.2794 -1.0271  0.6799
24601SOL    HW278489   3.274   2.990  11.317  0.9676  1.1905 -0.5369
24602SOL     OW78490   0.134   8.611   8.818 -0.5249  0.3786  0.1948
24602SOL    HW178491   0.183   8.532   8.839 -0.5113  0.4601  0.4698
24602SOL    HW278492   0.162   8.633   8.729 -3.0700 -1.8286 -1.2868
24603SOL     OW78493   5.519   7.420   3.372 -0.3656 -1.3715 -0.1845
24603SOL    HW178494   5.454   7.476   3.415  0.6245  0.0733 -0.4784
24603SOL    HW278495   5.469   7.371   3.307 -1.0493  0.5444 -1.1988
24604SOL     OW78496   5.394   9.207  11.524 -0.1442  0.0931  0.2944
24604SOL    HW178497   5.455   9.240  11.458  0.1447 -0.2314  0.3901
24604SOL    HW278498   5.349   9.284  11.557  0.0735  0.3159  0.0730
24605SOL     OW78499   6.295   8.662   8.562  0.5072 -0.3164  0.5139
24605SOL    HW178500   6.308   8.726   8.631 -0.9083 -0.2257  0.7387
24605SOL    HW278501   6.202   8.637   8.570  0.6220 -1.1842 -0.5888
24606SOL     OW78502  10.689   5.398   6.453  0.0697 -0.1602 -0.4084
24606SOL    HW178503  10.612   5.341   6.448  0.2385 -0.6883  1.9797
24606SOL    HW278504  10.667   5.472   6.395 -1.5600 -1.0296 -0.9799
24607SOL     OW78505   8.420  11.364  11.006  0.2141  0.2358  0.2172
24607SOL    HW178506   8.467  11.332  11.082 -1.3046 -1.8252  0.3955
24607SOL    HW278507   8.483  11.359  10.934  1.3183  1.1071  1.1067
24608SOL     OW78508   4.336   6.950   1.737  0.2319  0.2680  0.5143
24608SOL    HW178509   4.347   7.031   1.786  1.1140  0.6440 -0.2688
24608SOL    HW278510   4.300   6.977   1.653  2.7044  0.1714 -0.6575
24609SOL     OW78511   5.963   4.144   0.383 -0.1527  0.2080  0.1384
24609SOL    HW178512   5.872   4.140   0.354 -0.0009  1.7680 -0.6706
24609SOL    HW278513   6.012   4.168   0.304  0.6588  1.6600  1.0342
24610SOL     OW78514   6.119   3.332   1.106 -0.5165 -0.0707 -0.3030
24610SOL    HW178515   6.182   3.395   1.139 -2.0616  0.7782  1.2291
24610SOL    HW278516   6.080   3.374   1.029 -0.2326  0.0290 -0.3918
24611SOL     OW78517   0.437   1.035   8.775 -0.1974  0.9307  0.0420
24611SOL    HW178518   0.364   1.005   8.720 -0.2312 -1.8031  1.3851
24611SOL    HW278519   0.394   1.077   8.849 -0.1767  3.7012 -1.4047
24612SOL     OW78520   3.832   8.011   4.472  0.1990 -0.1906 -0.1937
24612SOL    HW178521   3.841   8.083   4.534 -0.4190  0.3108 -0.6729
24612SOL    HW278522   3.741   8.014   4.444  0.5480 -0.1639 -1.4063
24613SOL     OW78523  10.713   3.265   3.077 -0.0464 -0.1251  0.0112
24613SOL    HW178524  10.765   3.333   3.120  0.2495 -0.0664 -0.4393
24613SOL    HW278525  10.763   3.185   3.090  0.6414  0.0802 -1.2273
24614SOL     OW78526  11.353   7.578   9.791  0.3782 -0.0529  0.2360
24614SOL    HW178527  11.302   7.498   9.802 -0.4989  0.2293 -1.4515
24614SOL    HW278528  11.288   7.648   9.789  1.1291  0.7346  1.6570
24615SOL     OW78529   1.418   6.772   6.057 -0.4841  0.3514  0.2863
24615SOL    HW178530   1.395   6.701   5.997  0.6461  0.9642 -0.9315
24615SOL    HW278531   1.365   6.756   6.135 -0.1559 -1.9367  0.1233
24616SOL     OW78532   4.101   0.095   7.335  0.1282  0.1440 -0.1855
24616SOL    HW178533   4.099   0.109   7.240  0.0755  1.0016 -0.0663
24616SOL    HW278534   4.140   0.175   7.371  1.2282 -0.6555  0.4383
24617SOL     OW78535   5.422   8.994  11.724 -0.5469 -0.0613  0.3305
24617SOL    HW178536   5.425   9.072  11.668 -1.0915  0.1656  0.6105
24617SOL    HW278537   5.330   8.968  11.724 -0.4893 -0.2711  0.8352
24618SOL     OW78538   9.888   6.422  10.018 -0.0172  0.5510 -0.2405
24618SOL    HW178539   9.910   6.513  10.034 -0.1827  0.4923  0.3519
24618SOL    HW278540   9.870   6.386  10.105  1.9691 -0.5492 -0.2190
24619SOL     OW78541   5.805  11.777   0.852  0.0888 -0.8254 -0.5315
24619SOL    HW178542   5.786  11.691   0.816  0.7816 -0.8663 -0.7933
24619SOL    HW278543   5.895  11.795   0.827 -0.3584  0.4043 -1.3299
24620SOL     OW78544  11.492   0.901   5.861 -0.3550 -0.1522  0.1281
24620SOL    HW178545  11.475   0.851   5.781  1.9278 -0.3130 -0.3050
24620SOL    HW278546  11.585   0.923   5.857 -0.4072  0.6972  2.2719
24621SOL     OW78547  10.738   8.539   0.467 -0.5130 -0.1722 -0.1507
24621SOL    HW178548  10.830   8.533   0.444 -0.5018  1.0733 -0.4729
24621SOL    HW278549  10.737   8.575   0.556 -0.6576 -1.9379  0.6126
24622SOL     OW78550   2.454   0.860  10.739  0.2052 -0.0132 -0.0611
24622SOL    HW178551   2.463   0.952  10.766 -2.1627 -0.0673  1.1091
24622SOL    HW278552   2.445   0.812  10.821  0.1439 -1.1464 -0.7144
24623SOL     OW78553   9.682   5.114   8.435  0.4230 -0.0810 -0.5282
24623SOL    HW178554   9.759   5.126   8.490 -0.2298  1.3673  0.1257
24623SOL    HW278555   9.707   5.047   8.372  2.0108 -0.0435  0.0310
24624SOL     OW78556   3.202   1.803  11.794  0.4811  0.4382  0.7119
24624SOL    HW178557   3.136   1.872  11.802  0.8504  1.2792 -2.1463
24624SOL    HW278558   3.285   1.847  11.812  0.7181  0.8173 -1.1235
24625SOL     OW78559   3.108   4.573   6.978 -0.0465 -0.2669 -0.0967
24625SOL    HW178560   3.131   4.534   6.893  3.6441  0.0219  0.5877
24625SOL    HW278561   3.126   4.504   7.041 -1.4475 -0.0284  0.5928
24626SOL     OW78562   2.998  10.915  10.474  0.2443 -0.2550 -0.1407
24626SOL    HW178563   3.089  10.945  10.480 -0.1521  0.6775  2.7355
24626SOL    HW278564   2.980  10.875  10.559 -1.9088 -0.7962 -0.7857
24627SOL     OW78565   5.727  10.772  10.316 -0.2651 -0.2203 -0.3218
24627SOL    HW178566   5.779  10.833  10.368 -0.9329  0.4130 -0.3853
24627SOL    HW278567   5.665  10.827  10.269  0.0550 -0.8090 -1.4883
24628SOL     OW78568   7.275   8.877   2.586 -0.5026 -0.0016  0.7755
24628SOL    HW178569   7.222   8.828   2.649 -1.3153  1.1831  1.0490
24628SOL    HW278570   7.220   8.882   2.508 -0.2271  0.0746  0.5853
24629SOL     OW78571   7.511   5.650  10.814 -0.2236  0.0854 -0.1798
24629SOL    HW178572   7.511   5.648  10.910  0.4133 -0.0695 -0.1803
24629SOL    HW278573   7.443   5.713  10.792 -3.5003 -2.9197  0.2928
24630SOL     OW78574   7.315   8.112  11.470 -0.1515  0.2175  1.0805
24630SOL    HW178575   7.324   8.128  11.564  0.1562  1.0249  0.9180
24630SOL    HW278576   7.343   8.194  11.429 -0.4419 -0.0767  0.2887
24631SOL     OW78577   7.627   9.228  11.166 -0.4671  0.4633 -0.1170
24631SOL    HW178578   7.576   9.169  11.222  0.8277 -0.4256  0.1755
24631SOL    HW278579   7.608   9.316  11.201 -0.8026  0.0482  0.7974
24632SOL     OW78580   9.344   0.141   3.689  0.2022 -0.2352  0.6646
24632SOL    HW178581   9.255   0.121   3.660  0.4306 -0.7963  0.3425
24632SOL    HW278582   9.335   0.162   3.782 -0.2216 -0.5700  0.7016
24633SOL     OW78583   8.444   7.130   7.673  0.2101 -0.3291 -0.2247
24633SOL    HW178584   8.538   7.121   7.689  0.1429 -0.3104  0.1974
24633SOL    HW278585   8.436   7.147   7.579  0.5574 -1.4101 -0.4540
24634SOL     OW78586   0.943   8.273   5.010 -0.0289 -0.2198  0.3308
24634SOL    HW178587   0.981   8.190   5.038  1.9988  0.0945 -1.2543
24634SOL    HW278588   0.956   8.274   4.915  0.0115  1.8938  0.3161
24635SOL     OW78589   3.625   2.453   1.201 -0.5442 -0.6833 -0.0003
24635SOL    HW178590   3.620   2.434   1.295  2.0191 -1.7799 -0.0048
24635SOL    HW278591   3.700   2.513   1.193 -0.8558 -0.4327 -1.3382
24636SOL     OW78592  10.971   5.885   4.019  0.2501  0.2511  0.1469
24636SOL    HW178593  10.888   5.841   4.035  0.6844  0.2785  3.0779
24636SOL    HW278594  11.037   5.816   4.023  0.5004  0.3687 -1.2372
24637SOL     OW78595   4.687  11.750   1.528 -0.2130  0.2011 -0.4031
24637SOL    HW178596   4.746  11.719   1.460  0.4216  1.6694 -0.5745
24637SOL    HW278597   4.735  11.737   1.610 -0.0502  0.4842 -0.4518
24638SOL     OW78598  10.632   8.666   4.670 -0.4576 -0.5109  0.6931
24638SOL    HW178599  10.551   8.642   4.625  0.6005 -0.6258 -1.2594
24638SOL    HW278600  10.677   8.583   4.685  0.3060 -0.3032 -0.3129
24639SOL     OW78601   5.247   1.311   3.056  0.3818 -0.2085 -0.2452
24639SOL    HW178602   5.217   1.394   3.095  0.0344  0.3186 -1.5801
24639SOL    HW278603   5.342   1.320   3.053  0.3823 -0.0705  0.0630
24640SOL     OW78604   8.086  10.921   2.329  0.1519  0.1997 -0.4007
24640SOL    HW178605   8.143  10.897   2.402 -1.5434 -0.7930  0.6565
24640SOL    HW278606   8.069  11.014   2.342  0.3574  0.1686  0.1077
24641SOL     OW78607   9.266   5.024   8.074 -0.1835  0.3080  0.4662
24641SOL    HW178608   9.329   5.000   8.141 -0.3788 -0.0731  0.5164
24641SOL    HW278609   9.257   4.945   8.021  1.1587  1.0562 -0.9754
24642SOL     OW78610   8.277  11.108   3.673  0.2118 -0.7234  0.1501
24642SOL    HW178611   8.346  11.082   3.612  0.5624 -1.6928  0.9403
24642SOL    HW278612   8.286  11.047   3.747 -1.6998 -1.0685  0.1297
24643SOL     OW78613   8.124  11.976   5.781 -0.1388  0.4143  0.0053
24643SOL    HW178614   8.040  11.932   5.765  0.4086 -0.5772 -0.2303
24643SOL    HW278615   8.124  11.995   5.874 -0.1149 -0.7026  0.2486
24644SOL     OW78616   6.771   0.722   0.144 -0.0340 -0.2068 -0.6002
24644SOL    HW178617   6.765   0.808   0.185  0.6877 -0.4022 -0.0720
24644SOL    HW278618   6.734   0.735   0.056 -2.8001 -0.0863  0.4927
24645SOL     OW78619   3.528   0.806  11.032  0.0194  0.5441  0.4516
24645SOL    HW178620   3.589   0.837  11.099  1.3442  1.5096 -1.1462
24645SOL    HW278621   3.474   0.882  11.011 -0.1567  0.3408  0.1580
24646SOL     OW78622  10.141   5.642   3.039 -0.5951  0.2428  0.3488
24646SOL    HW178623  10.051   5.670   3.056 -0.6160  0.5287 -0.2234
24646SOL    HW278624  10.132   5.553   3.003 -0.8005  0.9814 -1.5571
24647SOL     OW78625   0.678   8.793   5.400 -0.1169 -0.1305  0.7598
24647SOL    HW178626   0.676   8.732   5.327 -0.2022  0.3277  0.3808
24647SOL    HW278627   0.608   8.856   5.382  0.5369  0.5921  0.6972
24648SOL     OW78628  11.120   5.654   5.556 -0.3238  0.0603  0.2439
24648SOL    HW178629  11.139   5.706   5.478 -0.1714 -0.0585  0.2022
24648SOL    HW278630  11.057   5.589   5.526  1.1627 -1.2090 -0.2490
24649SOL     OW78631  10.348   5.772  11.058 -0.7896 -0.0816  0.3330
24649SOL    HW178632  10.390   5.698  11.014 -0.7150  2.1206 -3.7326
24649SOL    HW278633  10.257   5.768  11.031 -0.7521  1.3510 -0.0806
24650SOL     OW78634   0.629   0.540   9.052  0.6648  0.1476 -0.1249
24650SOL    HW178635   0.724   0.547   9.056  0.9275 -0.3827 -2.9170
24650SOL    HW278636   0.612   0.454   9.013 -0.8453  0.9202 -1.2990
24651SOL     OW78637   9.053   3.875   0.938  0.3699  0.3538  0.0099
24651SOL    HW178638   8.968   3.853   0.901  0.4184  0.3471 -0.0984
24651SOL    HW278639   9.052   3.970   0.948  0.9083  0.5331 -1.3951
24652SOL     OW78640   9.110  11.566   6.651  0.4045 -0.4237  0.4178
24652SOL    HW178641   9.203  11.544   6.643  0.4880  0.4288 -1.6038
24652SOL    HW278642   9.070  11.530   6.572 -1.0806 -1.0718  1.4252
24653SOL     OW78643   0.759  11.468   1.286 -0.2052 -0.5235  0.2153
24653SOL    HW178644   0.747  11.419   1.367 -0.3239 -0.9936 -0.0861
24653SOL    HW278645   0.677  11.458   1.238 -0.2375 -0.0204  0.1518
24654SOL     OW78646   7.027   8.562   2.413 -0.0105  0.0016 -0.5648
24654SOL    HW178647   7.028   8.469   2.390 -0.7913 -0.0094 -0.5734
24654SOL    HW278648   6.937   8.590   2.397 -0.1637  0.3997  0.8621
24655SOL     OW78649   6.994   9.639   5.932 -0.1028 -0.0114 -0.6172
24655SOL    HW178650   6.954   9.610   6.014 -1.4450 -0.6080 -1.4551
24655SOL    HW278651   6.920   9.660   5.875  0.8085  0.2117 -1.7461
24656SOL     OW78652   9.331   5.545   1.098  0.2684  0.8155  0.1145
24656SOL    HW178653   9.381   5.586   1.168 -0.5392 -0.0874  1.2611
24656SOL    HW278654   9.319   5.454   1.126  0.8259  0.1222 -1.6935
24657SOL     OW78655   0.190  11.193   1.785  0.1971  0.2211  0.3124
24657SOL    HW178656   0.164  11.113   1.739 -0.2373  1.6237 -2.0206
24657SOL    HW278657   0.166  11.264   1.726  1.8690  2.0362  1.6809
24658SOL     OW78658  11.617   2.383   4.901  0.2808 -0.3058 -0.7819
24658SOL    HW178659  11.529   2.404   4.933 -0.5045 -1.5479 -2.0190
24658SOL    HW278660  11.637   2.454   4.839 -0.4703 -0.7733 -1.5759
24659SOL     OW78661   7.011   0.364  11.074 -0.4928  0.1754  0.2863
24659SOL    HW178662   6.981   0.435  11.131 -2.9988  0.4405 -1.2024
24659SOL    HW278663   6.944   0.297  11.082  0.8252 -1.2186  0.1456
24660SOL     OW78664   9.757   0.131   7.546  0.0111 -0.2224  0.2280
24660SOL    HW178665   9.852   0.143   7.544  0.0282  0.2149  2.0791
24660SOL    HW278666   9.741   0.073   7.620 -1.2276  0.6297  0.6701
24661SOL     OW78667   6.164   3.947   7.591  0.1012 -0.0693  0.4750
24661SOL    HW178668   6.187   3.958   7.683  0.6344  0.1063  0.3195
24661SOL    HW278669   6.181   3.854   7.573 -0.9995 -0.3551  0.8275
24662SOL     OW78670   3.130  11.304   1.566  0.5278  0.4784 -0.1438
24662SOL    HW178671   3.191  11.232   1.576  2.0724  1.6242 -0.9143
24662SOL    HW278672   3.083  11.285   1.485 -1.7259 -1.4480  1.4528
24663SOL     OW78673   4.956   5.827   3.183  0.0290  0.8641  0.4270
24663SOL    HW178674   4.869   5.851   3.151 -0.5913 -0.2813  1.1795
24663SOL    HW278675   4.952   5.843   3.277 -0.7952 -2.9162  1.2050
24664SOL     OW78676  11.575   7.241   2.857 -0.3315  0.1234  0.0280
24664SOL    HW178677  11.517   7.262   2.930 -2.0942 -0.3586 -1.1806
24664SOL    HW278678  11.521   7.249   2.779  0.2319 -3.6077 -0.9386
24665SOL     OW78679   6.315  11.928  10.977 -0.7664 -0.3909 -0.0031
24665SOL    HW178680   6.399  11.925  11.022  0.2437  3.8584 -1.1706
24665SOL    HW278681   6.259  11.868  11.026  2.4641 -2.2777  1.7188
24666SOL     OW78682   6.306   9.305   8.998 -0.0525 -0.4907 -0.1807
24666SOL    HW178683   6.340   9.348   9.076 -1.5200  1.4003 -0.4936
24666SOL    HW278684   6.315   9.212   9.016 -0.3417 -0.1180  2.2353
24667SOL     OW78685  10.793   5.421   1.309 -0.3393 -0.3019  0.1072
24667SOL    HW178686  10.736   5.476   1.256 -1.5357 -0.3273  1.3231
24667SOL    HW278687  10.855   5.481   1.351  1.0213 -0.3352 -1.7121
24668SOL     OW78688   8.640   2.572   8.241  0.7372 -0.0209 -0.1134
24668SOL    HW178689   8.726   2.550   8.277  0.8351  1.2708  0.5070
24668SOL    HW278690   8.590   2.491   8.245  0.8199 -0.0101  2.7605
24669SOL     OW78691  10.508   7.776   3.656  0.2740  0.4225  0.0300
24669SOL    HW178692  10.419   7.756   3.685  0.3934  0.2754  0.2897
24669SOL    HW278693  10.498   7.798   3.563  0.4142 -3.1335 -0.9674
24670SOL     OW78694   0.324   5.445   2.501 -0.3445 -0.0687 -0.5659
24670SOL    HW178695   0.405   5.478   2.540 -0.8912  1.0271 -0.3208
24670SOL    HW278696   0.289   5.383   2.566  0.1798 -0.3911 -0.5832
24671SOL     OW78697   8.199  11.696   4.011  0.1512  0.1836  0.0697
24671SOL    HW178698   8.167  11.672   4.099  2.0580  0.5838  0.9259
24671SOL    HW278699   8.219  11.789   4.017 -0.1523  0.3249 -0.9585
24672SOL     OW78700   0.366   5.122   7.493 -0.1788 -0.2215 -0.9314
24672SOL    HW178701   0.435   5.121   7.428 -0.7735 -1.5228 -1.5857
24672SOL    HW278702   0.370   5.209   7.532  1.9123 -0.3299 -0.8411
24673SOL     OW78703   5.168   3.494  10.846  0.2147 -0.3814 -0.0862
24673SOL    HW178704   5.167   3.498  10.750  0.3808  1.0775 -0.0375
24673SOL    HW278705   5.077   3.505  10.871  0.3542  0.7838 -0.0409
24674SOL     OW78706   8.928   4.896   1.114 -0.1748  0.4072  0.1213
24674SOL    HW178707   8.837   4.907   1.140 -0.1154  0.6306  0.2409
24674SOL    HW278708   8.977   4.947   1.179  0.0580  0.0109  0.2624
24675SOL     OW78709   1.257   7.842   9.099  0.3875  0.1076 -0.7409
24675SOL    HW178710   1.292   7.766   9.144 -1.7007 -1.6086 -1.8457
24675SOL    HW278711   1.203   7.887   9.164  1.0018  0.2089 -0.3014
24676SOL     OW78712   6.316  11.607   3.167  0.0109  0.1175 -0.3632
24676SOL    HW178713   6.406  11.631   3.192  0.5394  0.1117 -2.0630
24676SOL    HW278714   6.312  11.512   3.178  0.5174  0.0014 -1.0591
24677SOL     OW78715   1.313   5.937  10.898 -0.4332  0.1468  0.1234
24677SOL    HW178716   1.224   5.902  10.911 -0.4313  0.3350  0.6719
24677SOL    HW278717   1.301   6.011  10.839 -0.3712 -1.0768 -1.4918
24678SOL     OW78718   4.762   9.510   0.580  0.0187 -0.0387  0.1855
24678SOL    HW178719   4.808   9.566   0.643 -0.7196 -0.2061  0.8986
24678SOL    HW278720   4.707   9.454   0.634 -0.8041 -0.0376 -0.6218
24679SOL     OW78721   5.169   3.235   9.085 -0.1202  0.7612 -0.0235
24679SOL    HW178722   5.229   3.237   9.011  0.3410  1.8769  0.3556
24679SOL    HW278723   5.216   3.186   9.153 -0.3452  0.1620 -0.2938
24680SOL     OW78724  10.083   8.429   9.528 -0.5012  0.0491 -0.8527
24680SOL    HW178725  10.177   8.439   9.512 -0.4421 -0.6566 -0.9944
24680SOL    HW278726  10.047   8.517   9.516  0.7083  1.3830  3.3439
24681SOL     OW78727   3.549   6.336   1.765  0.1137 -0.7064  0.1130
24681SOL    HW178728   3.463   6.377   1.760  0.2533 -0.5647 -1.5659
24681SOL    HW278729   3.595   6.385   1.833 -0.3267  0.7765 -0.6125
24682SOL     OW78730   5.227   2.315  11.485 -0.1938 -0.0770  0.0330
24682SOL    HW178731   5.150   2.360  11.449  0.0987  2.7606  2.5154
24682SOL    HW278732   5.294   2.325  11.418 -0.9404  0.8397 -0.6147
24683SOL     OW78733  10.404   9.053   7.064  0.4820  0.3353  0.0432
24683SOL    HW178734  10.499   9.041   7.055  0.6369  1.4082  0.0327
24683SOL    HW278735  10.366   8.972   7.030  1.3976 -0.1355  0.1040
24684SOL     OW78736   6.851   4.921   0.599  0.0295 -0.2359  0.1846
24684SOL    HW178737   6.940   4.914   0.634 -0.4047  0.1941  1.4275
24684SOL    HW278738   6.861   4.966   0.516  0.9977 -0.4079  0.1967
24685SOL     OW78739   6.256   5.837   1.021 -0.0340 -0.3047 -0.1598
24685SOL    HW178740   6.246   5.931   1.005 -1.5958 -0.2519  0.9124
24685SOL    HW278741   6.309   5.832   1.101  0.1671 -0.3348 -0.2956
24686SOL     OW78742   8.570   9.105   4.165 -0.0839  0.2860 -0.1774
24686SOL    HW178743   8.540   9.172   4.103  0.4833 -0.0242 -0.7972
24686SOL    HW278744   8.665   9.114   4.166  0.0733 -1.0760 -0.9309
24687SOL     OW78745   3.588   1.148   3.813  0.1676  0.5308  0.4490
24687SOL    HW178746   3.552   1.223   3.861  0.7679  0.2299  1.3874
24687SOL    HW278747   3.511   1.096   3.789 -0.0880  0.0533  2.1631
24688SOL     OW78748   4.225  11.560   3.269  0.5486 -0.6228 -0.1365
24688SOL    HW178749   4.268  11.545   3.353  0.2510  0.9966  0.3337
24688SOL    HW278750   4.142  11.601   3.291  0.8281  0.6182 -1.2296
24689SOL     OW78751   0.663  10.463   2.023  0.4516 -0.2341  0.7931
24689SOL    HW178752   0.691  10.453   1.933 -0.2588  0.2828  0.5015
24689SOL    HW278753   0.712  10.397   2.072  0.3939 -0.9173 -0.0586
24690SOL     OW78754   3.419   0.608  10.809  0.7288  0.1202  0.4594
24690SOL    HW178755   3.509   0.614  10.841  0.2792 -0.0149  1.8093
24690SOL    HW278756   3.427   0.615  10.713  2.2260 -0.6025  0.5026
24691SOL     OW78757   8.682  10.030   8.964 -0.2340  0.1717  0.0481
24691SOL    HW178758   8.747  10.082   9.010 -1.9023  2.5346 -0.0949
24691SOL    HW278759   8.621  10.001   9.033  0.6893 -1.7549  0.1385
24692SOL     OW78760   0.379   5.893   3.123 -0.6236  0.1441 -0.7543
24692SOL    HW178761   0.344   5.950   3.191  0.1109 -0.5562  0.2353
24692SOL    HW278762   0.416   5.819   3.170  0.1595 -0.2264 -1.9010
24693SOL     OW78763  10.713   8.558   7.446 -0.5405  0.5121  0.3919
24693SOL    HW178764  10.803   8.537   7.423 -0.2702  1.6326  0.3892
24693SOL    HW278765  10.717   8.643   7.488 -1.2631 -0.6718  3.0455
24694SOL     OW78766   9.450   8.401   5.778  0.0225  0.0406 -0.3149
24694SOL    HW178767   9.469   8.314   5.743  1.5147  0.2707 -0.1361
24694SOL    HW278768   9.389   8.385   5.850  1.0766 -0.9842  0.3860
24695SOL     OW78769   3.509   0.523  11.046 -0.1147 -0.2493 -0.2367
24695SOL    HW178770   3.447   0.513  10.974 -0.3201  0.1509 -0.1165
24695SOL    HW278771   3.524   0.617  11.052 -0.5230 -0.2284  0.6066
24696SOL     OW78772   4.611   6.102   3.701  0.3208 -0.1593  0.0380
24696SOL    HW178773   4.650   6.015   3.692 -0.8425 -0.6404 -0.7036
24696SOL    HW278774   4.608   6.136   3.611  0.4357  0.4935  0.2770
24697SOL     OW78775   8.252   4.963  11.574 -0.5768  0.0914 -0.7641
24697SOL    HW178776   8.170   4.914  11.583  0.6051 -2.3059 -1.8985
24697SOL    HW278777   8.284   4.975  11.663 -2.2064  1.2565 -0.2911
24698SOL     OW78778   5.114   8.350   4.700 -0.3142 -0.2335 -0.0853
24698SOL    HW178779   5.175   8.403   4.753  1.7073 -2.1163 -0.3983
24698SOL    HW278780   5.107   8.397   4.617  0.4498  0.2055  0.0897
24699SOL     OW78781   5.604   5.126   1.229  0.2485 -0.3168  0.5019
24699SOL    HW178782   5.528   5.162   1.273 -0.1482 -0.8779  0.2890
24699SOL    HW278783   5.608   5.035   1.258  1.7225  0.0951  1.6860
24700SOL     OW78784   0.245   2.567   1.012 -0.3535  0.2534 -0.3955
24700SOL    HW178785   0.282   2.655   1.020 -1.0059  0.3435  3.7519
24700SOL    HW278786   0.300   2.523   0.947  2.3281  2.5697  0.1406
24701SOL     OW78787   5.227  10.301  11.716  0.5006 -0.7312  0.6198
24701SOL    HW178788   5.293  10.237  11.742  0.7950 -0.5261  0.3877
24701SOL    HW278789   5.175  10.257  11.649  1.8980 -0.0990 -0.9450
24702SOL     OW78790   1.410   6.228  11.189 -0.6081  0.0369 -0.2290
24702SOL    HW178791   1.337   6.281  11.155 -1.2445 -1.4573 -1.2875
24702SOL    HW278792   1.391   6.219  11.283 -1.4093  0.2517 -0.3588
24703SOL     OW78793   5.862   8.525   2.128 -0.1709  0.0633  0.3610
24703SOL    HW178794   5.827   8.550   2.213 -1.0586  0.7641 -0.1976
24703SOL    HW278795   5.788   8.483   2.083  0.4338 -0.7657  0.1240
24704SOL     OW78796  11.479  11.196   9.573  0.0853 -0.0416  0.0298
24704SOL    HW178797  11.477  11.109   9.614 -1.3263  0.6385  1.5242
24704SOL    HW278798  11.528  11.250   9.636  0.4791  0.3877 -0.6334
24705SOL     OW78799   6.914   3.089   1.865 -0.2806  0.0525 -0.1268
24705SOL    HW178800   6.880   3.030   1.798 -1.1657 -1.0805  1.2769
24705SOL    HW278801   6.999   3.053   1.889 -1.1774 -1.2151  1.3272
24706SOL     OW78802   6.709   5.210   5.488 -0.1809  0.0771  0.2197
24706SOL    HW178803   6.633   5.216   5.546  0.6590 -0.4689  1.4084
24706SOL    HW278804   6.707   5.121   5.454 -2.2981  1.1758 -2.9636
24707SOL     OW78805   4.576   7.436   5.728  0.0664 -0.5647  0.3315
24707SOL    HW178806   4.631   7.360   5.741  1.9254  0.6803  0.0978
24707SOL    HW278807   4.631   7.498   5.681 -1.0498  1.3027  1.3581
24708SOL     OW78808   5.536   4.649   6.155  0.5158  0.9269  0.4303
24708SOL    HW178809   5.619   4.607   6.133  0.3378  0.8706 -0.1417
24708SOL    HW278810   5.561   4.730   6.200  0.8826  0.9754  0.1371
24709SOL     OW78811  10.783   0.119  11.407 -0.1069  0.0009 -0.2733
24709SOL    HW178812  10.838   0.042  11.389  1.5148  0.9432  0.3668
24709SOL    HW278813  10.845   0.185  11.439 -1.5395  1.3829 -0.2372
24710SOL     OW78814   1.045   3.028   5.428  0.0113  0.1591 -0.1186
24710SOL    HW178815   1.051   3.091   5.356 -1.4875 -0.2236 -0.6375
24710SOL    HW278816   1.058   2.943   5.386  0.9463  0.0517  0.3869
24711SOL     OW78817   2.383   0.183  10.030  0.5522  0.2360 -0.5634
24711SOL    HW178818   2.427   0.221  10.106  3.0328 -0.9625 -1.2883
24711SOL    HW278819   2.429   0.219   9.955 -1.4178  0.8721 -1.5256
24712SOL     OW78820   6.547   8.718   8.282 -0.4891  0.6172 -0.3057
24712SOL    HW178821   6.612   8.671   8.334 -1.1951  0.1108  0.1449
24712SOL    HW278822   6.595   8.752   8.207 -0.1302 -1.7913 -1.2696
24713SOL     OW78823  10.495   7.962  10.169  0.3859 -0.2614 -1.0936
24713SOL    HW178824  10.547   7.926  10.241  0.6135  0.8329 -0.6819
24713SOL    HW278825  10.508   8.057  10.176 -3.3464  0.3387  0.4449
24714SOL     OW78826   2.783   1.779   6.754 -0.6321 -0.1002  0.2697
24714SOL    HW178827   2.739   1.816   6.830 -0.1214  0.1785  0.4332
24714SOL    HW278828   2.856   1.838   6.737 -0.4293 -0.4539 -0.1141
24715SOL     OW78829   2.232   5.709   9.055  0.4690  0.0591 -0.4306
24715SOL    HW178830   2.159   5.767   9.035 -1.4748 -1.1862  2.3841
24715SOL    HW278831   2.211   5.627   9.010  0.5387 -0.0587 -0.2511
24716SOL     OW78832   5.836   3.032   0.803 -0.2858 -0.0396  0.5843
24716SOL    HW178833   5.781   2.955   0.786 -1.0713  0.6811 -0.1953
24716SOL    HW278834   5.780   3.092   0.851  0.3273  0.0635  1.1925
24717SOL     OW78835   7.809   8.168   8.988 -0.2078  0.3371 -0.0820
24717SOL    HW178836   7.889   8.144   9.035 -1.2645  0.5810  1.9452
24717SOL    HW278837   7.803   8.263   8.999 -1.3171  0.1842  0.7002
24718SOL     OW78838   1.236   8.542  11.653 -0.6906  0.5551  0.3294
24718SOL    HW178839   1.246   8.633  11.682  0.6620 -0.2234  2.5128
24718SOL    HW278840   1.288   8.491  11.715 -1.4938 -1.7422 -0.7827
24719SOL     OW78841   4.070   2.877   0.865 -0.2216 -0.1153 -0.1504
24719SOL    HW178842   4.025   2.895   0.947  1.3761 -0.4090  0.8266
24719SOL    HW278843   4.005   2.830   0.813 -1.2929  0.1430  0.8985
24720SOL     OW78844   0.145   6.138   8.775 -0.1395 -0.1287  0.3298
24720SOL    HW178845   0.171   6.195   8.703 -0.5137 -0.9083 -0.4358
24720SOL    HW278846   0.206   6.064   8.771 -1.0168 -0.8533 -0.0685
24721SOL     OW78847   7.077   0.029   2.441 -0.0208 -0.2458 -0.0559
24721SOL    HW178848   7.096  -0.062   2.419  0.3552  0.1271 -1.3276
24721SOL    HW278849   7.144   0.053   2.505  0.3910 -0.6172 -0.3427
24722SOL     OW78850   3.601   7.112   3.937  0.4583 -0.0584  0.0377
24722SOL    HW178851   3.621   7.020   3.921 -2.5023 -0.8466  0.2071
24722SOL    HW278852   3.648   7.134   4.017 -1.7883 -2.6796  2.2633
24723SOL     OW78853   5.682   9.904   2.441  0.2638 -0.2523  0.6504
24723SOL    HW178854   5.713   9.926   2.354  0.6761  1.4173  1.1691
24723SOL    HW278855   5.587   9.894   2.431  0.4764 -1.5914 -0.2398
24724SOL     OW78856   6.813  11.225  11.849  0.5309 -0.1882  0.6612
24724SOL    HW178857   6.730  11.260  11.882 -0.4471  1.1199 -2.7402
24724SOL    HW278858   6.787  11.157  11.786  1.9994  0.3637 -0.5910
24725SOL     OW78859   1.189   2.032   6.909  0.1638  0.5190  0.4120
24725SOL    HW178860   1.105   2.038   6.956  0.3998  1.8624  0.7136
24725SOL    HW278861   1.254   2.056   6.975  0.6152  1.1995 -0.2720
24726SOL     OW78862   4.883  10.360   7.752  0.4706 -0.6843  0.0771
24726SOL    HW178863   4.834  10.289   7.795 -1.4706 -0.7988 -2.1363
24726SOL    HW278864   4.860  10.438   7.803 -1.0948 -0.9464 -0.1579
24727SOL     OW78865   5.848   8.086   6.038 -0.1832  0.1493 -0.9469
24727SOL    HW178866   5.847   8.042   6.123 -0.0788  0.6141 -0.6987
24727SOL    HW278867   5.912   8.037   5.986 -1.2258 -0.9657 -1.2139
24728SOL     OW78868   2.886   3.428   8.156 -0.3432  0.1086  0.0213
24728SOL    HW178869   2.848   3.513   8.130  0.8390  0.8266  0.5557
24728SOL    HW278870   2.923   3.393   8.075 -0.0707  0.5277 -0.0428
24729SOL     OW78871   1.981   4.203   8.564 -0.1903  0.0503  0.3638
24729SOL    HW178872   1.970   4.117   8.603  0.2595  0.4971  1.5120
24729SOL    HW278873   1.935   4.197   8.480 -0.9555 -1.0099  0.8333
24730SOL     OW78874   8.537   6.651   3.685  0.3605  0.0548 -0.0876
24730SOL    HW178875   8.469   6.682   3.745  0.9328 -0.7116  0.9748
24730SOL    HW278876   8.509   6.683   3.599 -1.2189 -0.0455  0.3630
24731SOL     OW78877   7.047   9.958   7.115 -0.1300 -0.0152  0.0584
24731SOL    HW178878   7.034  10.031   7.054  1.9007 -0.2721 -0.7625
24731SOL    HW278879   6.968   9.905   7.106 -0.6594  0.9118 -1.0118
24732SOL     OW78880   1.436   8.739   5.029  0.3664  0.3712 -0.2176
24732SOL    HW178881   1.412   8.829   5.008  1.0502  0.8143  0.8407
24732SOL    HW278882   1.527   8.732   5.000  0.9913  0.6802  1.5549
24733SOL     OW78883   6.815   6.909   8.483  0.1365  0.5041 -0.1839
24733SOL    HW178884   6.760   6.868   8.550 -0.9365  4.2372  1.4934
24733SOL    HW278885   6.756   6.929   8.411  0.0299  1.3264  0.1147
24734SOL     OW78886   5.631  10.553   8.111 -0.1766 -0.1404  0.5164
24734SOL    HW178887   5.656  10.645   8.099  1.6202 -0.3286  2.2609
24734SOL    HW278888   5.546  10.545   8.068  0.0833  2.0794 -0.5424
24735SOL     OW78889   3.852   8.130   0.435 -0.4380 -0.1049 -0.9843
24735SOL    HW178890   3.911   8.116   0.361 -2.1556  0.0258 -2.4514
24735SOL    HW278891   3.886   8.209   0.478  1.8790 -1.4271 -0.2343
24736SOL     OW78892   0.960   8.596   8.049  0.6241  0.8603 -0.6125
24736SOL    HW178893   0.967   8.514   8.097 -2.1353  0.3163 -0.9429
24736SOL    HW278894   1.031   8.592   7.984  0.2375 -1.5625 -0.9954
24737SOL     OW78895   0.815   9.492   5.169 -0.1091  0.2199 -0.0367
24737SOL    HW178896   0.907   9.519   5.171 -0.2283  0.7269 -0.8519
24737SOL    HW278897   0.766   9.570   5.193 -0.3874  0.3373 -0.9496
24738SOL     OW78898   3.744   2.316   9.497  0.0056 -0.0608  0.3273
24738SOL    HW178899   3.689   2.342   9.423 -0.2909  0.4314  0.7131
24738SOL    HW278900   3.820   2.375   9.493  0.4344 -0.6321 -0.1097
24739SOL     OW78901   8.878   7.624   0.687  0.1905  0.0598 -0.8848
24739SOL    HW178902   8.881   7.538   0.645  0.9262 -0.5140  0.2932
24739SOL    HW278903   8.969   7.643   0.709  0.0786  1.2968 -1.3968
24740SOL     OW78904   6.055   2.207   7.345  0.2252  0.2717  0.3883
24740SOL    HW178905   6.067   2.300   7.364 -1.2901  0.2998  1.3815
24740SOL    HW278906   5.967   2.200   7.309  1.0814 -0.5426 -1.6872
24741SOL     OW78907   4.010   2.752  11.429 -0.4246  0.0879  0.1269
24741SOL    HW178908   4.049   2.685  11.373 -0.3856  1.0073 -0.9706
24741SOL    HW278909   4.071   2.825  11.425 -0.6269  0.3276  1.0674
24742SOL     OW78910   6.770   3.428   5.087 -0.2783  0.0159  0.1090
24742SOL    HW178911   6.680   3.451   5.062 -0.0102  1.4678  0.4236
24742SOL    HW278912   6.802   3.377   5.013 -0.7894  0.9801 -0.8169
24743SOL     OW78913   8.101   1.882   1.028  0.5879  0.1672 -0.2977
24743SOL    HW178914   8.090   1.904   1.121 -1.9038 -0.2217 -0.4365
24743SOL    HW278915   8.145   1.797   1.029 -0.5562 -0.4454  0.5993
24744SOL     OW78916   0.763   4.662   3.809 -0.4172  0.0917  0.4551
24744SOL    HW178917   0.788   4.661   3.901 -1.7449 -1.5841  0.8327
24744SOL    HW278918   0.810   4.737   3.772  0.1593  0.7629  2.4683
24745SOL     OW78919  11.378  11.508   0.063 -0.3610  0.2218  0.1389
24745SOL    HW178920  11.285  11.488   0.078 -0.2222  1.1041  2.4102
24745SOL    HW278921  11.425  11.435   0.104 -0.0237  0.8575  0.8940
24746SOL     OW78922   2.471   4.015   2.579  0.0619  0.1518  0.1964
24746SOL    HW178923   2.411   4.076   2.536  3.0288  2.1364 -1.4643
24746SOL    HW278924   2.508   4.064   2.652  0.1806 -0.7995  0.7989
24747SOL     OW78925   1.029   8.535   1.797  0.4346 -0.5060  0.2616
24747SOL    HW178926   1.069   8.470   1.739  1.3686  0.7577 -0.5510
24747SOL    HW278927   0.957   8.572   1.746 -0.7977 -1.6261  1.1256
24748SOL     OW78928   2.989   6.539   4.033 -0.2292 -0.3355  1.1276
24748SOL    HW178929   3.044   6.489   4.093  1.1799  0.3321  0.4395
24748SOL    HW278930   3.014   6.630   4.048  0.9335 -0.1993 -1.1307
24749SOL     OW78931   9.916   8.705   3.855 -0.0546  0.1567  0.1465
24749SOL    HW178932   9.844   8.711   3.918 -0.1153  1.6267 -0.0410
24749SOL    HW278933   9.978   8.645   3.897 -0.9749 -0.4431  0.7050
24750SOL     OW78934   5.532   3.628   0.499  0.1095 -0.4207  0.1302
24750SOL    HW178935   5.624   3.652   0.488  0.2205  0.1536  2.0600
24750SOL    HW278936   5.496   3.635   0.410  1.8093 -0.2535 -0.6008
24751SOL     OW78937   2.864  10.589   7.591 -0.3786 -0.0329  0.2798
24751SOL    HW178938   2.773  10.592   7.561 -0.6074 -0.4890  0.9187
24751SOL    HW278939   2.894  10.501   7.568 -0.1617  0.0435  0.2640
24752SOL     OW78940   2.899   4.059   3.677 -0.3530 -0.1515  0.5225
24752SOL    HW178941   2.876   4.041   3.586  0.6575  1.2653 -0.0429
24752SOL    HW278942   2.988   4.025   3.686 -0.8320 -1.2687  1.3231
24753SOL     OW78943  11.697   2.924   7.075  0.4481  0.6610 -0.2622
24753SOL    HW178944  11.711   3.006   7.028  1.1285  0.9309  0.3895
24753SOL    HW278945  11.769   2.868   7.048  0.0195  0.2861 -0.6573
24754SOL     OW78946   8.109  11.131   6.934  1.1031 -0.8874 -0.8965
24754SOL    HW178947   8.079  11.133   7.024 -0.5584 -0.2748 -1.4230
24754SOL    HW278948   8.203  11.148   6.939  0.8357  0.2936  0.6372
24755SOL     OW78949  10.601   6.272   3.158 -1.1446 -0.3012 -0.1995
24755SOL    HW178950  10.532   6.236   3.214 -1.6685 -2.2642 -1.9506
24755SOL    HW278951  10.560   6.345   3.112 -1.0424  0.6003  1.0904
24756SOL     OW78952   9.794  10.369   6.851 -0.9783 -0.1946 -0.0112
24756SOL    HW178953   9.806  10.351   6.758 -0.5881 -0.3937  0.0768
24756SOL    HW278954   9.714  10.423   6.855 -1.4049 -0.7880 -0.3942
24757SOL     OW78955   3.756   2.896  10.234  0.4419  0.1380  0.4832
24757SOL    HW178956   3.698   2.825  10.208 -0.4610  1.2289 -0.6096
24757SOL    HW278957   3.697   2.961  10.275  1.0746  0.7385  0.4551
24758SOL     OW78958   0.282   4.436   7.047  0.3639 -0.2765 -0.0752
24758SOL    HW178959   0.278   4.503   6.979  0.1490 -0.9684 -0.7583
24758SOL    HW278960   0.230   4.363   7.013  0.7533 -0.8762  0.5646
24759SOL     OW78961   9.797  11.494   3.494  0.7935 -0.4122  0.3219
24759SOL    HW178962   9.813  11.501   3.588  0.5005 -0.7964  0.4036
24759SOL    HW278963   9.776  11.583   3.466  1.1284 -0.2551  0.5745
24760SOL     OW78964   6.272   3.191   5.862  0.7341 -0.1849  0.7275
24760SOL    HW178965   6.350   3.225   5.906  0.7652 -0.5575  0.9719
24760SOL    HW278966   6.276   3.096   5.878  0.3558 -0.2321  0.5446
24761SOL     OW78967  11.044   5.172   4.855 -0.2103  0.5456  0.2591
24761SOL    HW178968  11.060   5.225   4.777 -4.4007 -0.3236 -1.4451
24761SOL    HW278969  10.964   5.207   4.893 -0.5662 -1.6518  1.7512
24762SOL     OW78970   9.935   0.030   9.208  0.4981  0.7383 -0.4710
24762SOL    HW178971   9.972   0.062   9.125 -0.1894 -1.2653 -1.6000
24762SOL    HW278972   9.886   0.105   9.242 -1.9391  0.7566 -3.5386
24763SOL     OW78973   8.891   1.942  10.693  0.6667  0.5775  0.3236
24763SOL    HW178974   8.906   1.942  10.787  0.3913 -2.1472  0.4500
24763SOL    HW278975   8.799   1.967  10.684  0.8146  1.3017  0.7112
24764SOL     OW78976   5.675   3.867  11.708 -0.3353  0.4246  0.3033
24764SOL    HW178977   5.602   3.812  11.736 -0.1027 -0.1983 -0.2871
24764SOL    HW278978   5.748   3.842  11.765  0.2537 -1.1349 -1.0555
24765SOL     OW78979   5.359  10.206   9.978 -0.1054 -0.5134 -0.0046
24765SOL    HW178980   5.286  10.154   9.944 -1.6830 -0.0473  2.3756
24765SOL    HW278981   5.329  10.297   9.970  0.4528 -0.2841  0.4586
24766SOL     OW78982   9.022  11.519   3.528 -0.2008  0.3409 -0.2308
24766SOL    HW178983   9.049  11.607   3.552 -1.6002  0.9721 -0.8604
24766SOL    HW278984   9.046  11.464   3.603  0.6619  1.2536  0.1711
24767SOL     OW78985   1.726   7.131   6.619  0.6480  0.4334  0.3790
24767SOL    HW178986   1.712   7.045   6.579 -0.4851  0.6354  0.3137
24767SOL    HW278987   1.759   7.111   6.707  0.2649 -0.0745  0.4129
24768SOL     OW78988   8.448   8.967   7.862  0.7216  0.4052 -0.2201
24768SOL    HW178989   8.482   8.991   7.948  1.7504 -2.1124  0.1459
24768SOL    HW278990   8.521   8.981   7.802  1.4167 -1.7834  0.0332
24769SOL     OW78991   0.923   9.176   4.016  0.1596  0.6320  0.2948
24769SOL    HW178992   0.962   9.119   3.950 -0.8938 -0.4862  0.5942
24769SOL    HW278993   0.851   9.220   3.970 -1.5621 -1.2990  1.0157
24770SOL     OW78994   1.470   6.061   9.119  0.1022  0.2583 -0.1536
24770SOL    HW178995   1.539   6.075   9.055  1.3899 -0.0100  1.1368
24770SOL    HW278996   1.515   6.051   9.203 -1.5822  2.0298  1.0712
24771SOL     OW78997   2.142   0.271  11.658  0.5202 -0.3028 -0.6188
24771SOL    HW178998   2.108   0.241  11.574  1.0568  0.6499 -1.1899
24771SOL    HW278999   2.232   0.297  11.639  0.7005 -0.2400  0.2937
24772SOL     OW79000   1.415   0.547   3.065 -0.1058  0.1678  0.5214
24772SOL    HW179001   1.501   0.521   3.033 -1.3370 -1.4319 -1.7734
24772SOL    HW279002   1.375   0.466   3.096 -0.6117  0.9917  2.1477
24773SOL     OW79003  11.852  10.586   5.910 -0.2204  0.0562  0.2716
24773SOL    HW179004  11.902  10.512   5.945  0.9186 -0.3590 -2.0077
24773SOL    HW279005  11.769  10.584   5.958  1.0012 -0.7371  2.4699
24774SOL     OW79006   8.790   9.148   3.762  0.3092 -0.2559  0.2378
24774SOL    HW179007   8.869   9.202   3.753 -0.4784  0.7400 -1.1553
24774SOL    HW279008   8.820   9.059   3.746  0.9817  0.2418 -1.4788
24775SOL     OW79009   0.846   2.354   2.794  0.2307  0.1898 -0.4349
24775SOL    HW179010   0.848   2.258   2.784  0.9123  0.0274  0.9398
24775SOL    HW279011   0.772   2.382   2.740 -1.7991 -1.4365  1.2698
24776SOL     OW79012   8.130   3.905   8.233  0.0326 -0.4581 -0.1672
24776SOL    HW179013   8.095   3.855   8.160  0.4561  0.9679 -1.3897
24776SOL    HW279014   8.052   3.932   8.283 -0.3713 -0.2841 -0.8783
24777SOL     OW79015   5.854   4.491   9.001  0.4069 -0.1521  0.7021
24777SOL    HW179016   5.924   4.504   8.938  1.0140 -1.3049  1.1169
24777SOL    HW279017   5.880   4.544   9.077  0.3704  0.1403  0.5099
24778SOL     OW79018   7.507   8.740   2.482  0.0332 -0.4910 -0.5311
24778SOL    HW179019   7.458   8.809   2.528 -0.1057  0.4709 -2.0463
24778SOL    HW279020   7.450   8.715   2.409  0.7727 -1.0631 -0.9213
24779SOL     OW79021   2.356   8.512   3.047 -0.4956 -0.1129  0.2284
24779SOL    HW179022   2.335   8.420   3.066  0.7828 -0.2562  1.0146
24779SOL    HW279023   2.420   8.507   2.975 -1.0107  0.2037 -0.2587
24780SOL     OW79024  10.786   6.626   3.323 -0.2753  0.5693 -0.1600
24780SOL    HW179025  10.828   6.619   3.409 -0.1353  0.4915 -0.2335
24780SOL    HW279026  10.854   6.662   3.266 -0.7700  1.9058  0.0540
24781SOL     OW79027  11.429   0.376   1.714 -0.1817  0.3414  0.0780
24781SOL    HW179028  11.392   0.414   1.794 -0.8434 -0.2392  0.0619
24781SOL    HW279029  11.354   0.364   1.656  0.0341 -0.7049 -0.0193
24782SOL     OW79030   1.592   6.279   4.012  0.3407 -0.3291  0.1631
24782SOL    HW179031   1.554   6.193   3.990  0.1747  0.0413 -1.0382
24782SOL    HW279032   1.606   6.322   3.928  2.0155  0.1703  0.6563
24783SOL     OW79033   4.785  10.500  10.233  0.1429 -0.3571 -0.4828
24783SOL    HW179034   4.798  10.409  10.206 -0.3952 -0.0041 -2.0699
24783SOL    HW279035   4.711  10.530  10.179 -1.7150  0.1462  2.1405
24784SOL     OW79036   9.096  11.929  10.826 -0.1462 -0.7309 -0.5044
24784SOL    HW179037   9.184  11.958  10.803  0.1257 -0.5936  0.6425
24784SOL    HW279038   9.038  12.000  10.797  0.4790  0.9571  2.0052
24785SOL     OW79039  11.734   5.827   7.841  0.3906  0.2836  0.6175
24785SOL    HW179040  11.795   5.804   7.911  1.3719  0.3766 -0.1838
24785SOL    HW279041  11.788   5.830   7.762 -0.8379 -0.6317 -0.2994
24786SOL     OW79042   2.127  11.020   0.180  0.0050  0.0570  0.3918
24786SOL    HW179043   2.106  10.978   0.263  1.1264  1.0641  1.2188
24786SOL    HW279044   2.204  11.074   0.199 -1.5001  2.7378 -0.5045
24787SOL     OW79045   0.869   3.881   3.036  0.1942  0.4348  0.5998
24787SOL    HW179046   0.934   3.848   2.973 -0.2658  0.7487 -0.0553
24787SOL    HW279047   0.917   3.945   3.088  0.3627  0.8117 -0.0083
24788SOL     OW79048   5.195   7.183   5.045  0.0350  0.0086  0.1934
24788SOL    HW179049   5.134   7.227   4.986  0.3092 -1.2998 -1.1490
24788SOL    HW279050   5.281   7.200   5.007  0.2081 -0.9805  0.1098
24789SOL     OW79051   0.842   9.051   3.392  0.1523  0.8476  0.1949
24789SOL    HW179052   0.748   9.057   3.408  0.0337  0.9341 -0.4871
24789SOL    HW279053   0.876   9.138   3.414 -0.0930  1.1386 -0.5260
24790SOL     OW79054  10.493   1.948   2.039 -0.4203  0.1353 -0.3435
24790SOL    HW179055  10.433   2.002   1.988 -0.5361  0.2276 -0.1100
24790SOL    HW279056  10.460   1.954   2.129 -0.0786  0.1628 -0.2194
24791SOL     OW79057   3.821   1.192   6.426 -0.0206  0.4947  0.0520
24791SOL    HW179058   3.904   1.175   6.381 -0.1505  0.2855 -0.1120
24791SOL    HW279059   3.765   1.119   6.401  0.1320 -0.0086  1.1217
24792SOL     OW79060   7.858   9.097  11.105  0.8482 -0.4734 -0.1519
24792SOL    HW179061   7.770   9.134  11.101 -0.0082 -1.9036  2.5483
24792SOL    HW279062   7.908   9.159  11.159  0.2200 -1.6208  1.8899
24793SOL     OW79063   0.546  10.179   1.359 -0.4147 -0.2727 -0.8544
24793SOL    HW179064   0.516  10.243   1.294 -1.6932  0.6179  0.5352
24793SOL    HW279065   0.498  10.099   1.338 -2.1828  0.5075 -0.0172
24794SOL     OW79066   6.734   8.238   1.697 -0.6143 -0.3302 -0.0466
24794SOL    HW179067   6.750   8.322   1.740 -0.4575 -0.2542 -0.2524
24794SOL    HW279068   6.652   8.207   1.736  0.0054 -0.7033  0.9800
24795SOL     OW79069   9.276  10.372   7.541  0.1773 -0.2676  0.1273
24795SOL    HW179070   9.343  10.435   7.516  0.8482 -0.6670  0.8845
24795SOL    HW279071   9.321  10.310   7.598 -0.8116 -0.6058  0.5586
24796SOL     OW79072   4.797  10.507   7.518 -0.4910  0.9806  0.0685
24796SOL    HW179073   4.835  10.459   7.592  1.4594  1.1385 -0.7788
24796SOL    HW279074   4.735  10.568   7.559 -2.2182 -1.3743  1.2697
24797SOL     OW79075   7.926   0.097   4.918  0.4146 -0.3566 -0.0461
24797SOL    HW179076   7.952   0.005   4.922 -1.0331 -0.7729  0.7997
24797SOL    HW279077   7.983   0.136   4.852  1.3028 -1.7716 -0.1535
24798SOL     OW79078  10.762   0.016   4.306 -0.1790 -0.0303 -0.5943
24798SOL    HW179079  10.765  -0.077   4.329  0.2208  0.0335 -0.3782
24798SOL    HW279080  10.853   0.045   4.313  0.0623 -0.1053 -2.6710
24799SOL     OW79081   2.780   8.556   1.908  0.1017 -0.9681 -0.2333
24799SOL    HW179082   2.740   8.640   1.932  1.2262 -0.3007 -0.6469
24799SOL    HW279083   2.787   8.559   1.813  0.8298 -1.2154 -0.1920
24800SOL     OW79084   6.175   2.372   1.818 -0.1568  0.3245  0.2227
24800SOL    HW179085   6.139   2.364   1.906 -1.0017  0.4508 -0.0980
24800SOL    HW279086   6.160   2.287   1.777  1.6535 -0.2588  0.6911
24801SOL     OW79087   4.035   2.026   0.164 -0.3727 -0.0045  0.0834
24801SOL    HW179088   4.027   1.937   0.198 -1.7455 -0.5126 -1.4177
24801SOL    HW279089   3.987   2.080   0.226 -1.3448 -0.6473 -0.0812
24802SOL     OW79090   7.334   3.612   0.187  0.3921  0.1519 -0.1842
24802SOL    HW179091   7.296   3.528   0.162 -0.4002  0.1022  1.1154
24802SOL    HW279092   7.397   3.631   0.117 -0.6240 -0.7002 -1.3868
24803SOL     OW79093   5.191   0.601   4.933  0.1176  0.6370 -0.6014
24803SOL    HW179094   5.254   0.672   4.939  2.4325 -1.2296 -1.0048
24803SOL    HW279095   5.181   0.569   5.023 -0.0982  0.7962 -0.5678
24804SOL     OW79096   3.877   3.888   9.936  0.3375  0.3313  0.4511
24804SOL    HW179097   3.877   3.872  10.030 -1.5926 -0.2193  0.4090
24804SOL    HW279098   3.940   3.826   9.901  1.3677  0.8096  1.3945
24805SOL     OW79099   1.403   5.523   1.977 -0.1380 -0.3490 -0.4239
24805SOL    HW179100   1.435   5.549   2.064 -1.9477 -1.9016  0.8072
24805SOL    HW279101   1.335   5.588   1.957  1.1452  0.7690 -1.3318
24806SOL     OW79102  10.276   2.888   6.274 -0.0899 -0.2352 -0.0339
24806SOL    HW179103  10.282   2.886   6.369 -3.2760  0.5755  0.2802
24806SOL    HW279104  10.245   2.800   6.250 -0.5051 -0.0497 -0.1860
24807SOL     OW79105   9.750   1.580  10.612 -0.3016 -0.4182  0.6283
24807SOL    HW179106   9.761   1.488  10.591 -1.4945 -0.6273  0.8161
24807SOL    HW279107   9.835   1.608  10.646  0.9981 -0.6629 -2.1749
24808SOL     OW79108  10.115   6.473   0.193 -0.4286  0.1976  0.1410
24808SOL    HW179109  10.045   6.504   0.250 -1.0617 -0.9809  0.0399
24808SOL    HW279110  10.160   6.405   0.244  0.2803  0.5432 -0.0090
24809SOL     OW79111   7.213   4.816   8.828 -0.2853  0.2332  0.0649
24809SOL    HW179112   7.222   4.742   8.888 -0.3800  0.1262 -0.0517
24809SOL    HW279113   7.256   4.786   8.747 -0.6616  0.1603 -0.1095
24810SOL     OW79114   8.372   3.524   1.989  0.1071  0.1620 -0.0490
24810SOL    HW179115   8.290   3.519   2.038 -0.2346 -0.5629 -0.6719
24810SOL    HW279116   8.417   3.600   2.025  0.1200 -0.6580  1.7785
24811SOL     OW79117   0.539  10.447   8.074  0.6462  0.1363  0.1582
24811SOL    HW179118   0.587  10.526   8.099  0.5961  0.3061 -0.2728
24811SOL    HW279119   0.604  10.393   8.029  1.0839 -0.7545  1.7761
24812SOL     OW79120   7.852   0.027   8.457 -0.0922 -0.1249  0.4809
24812SOL    HW179121   7.869   0.118   8.481  0.9942  0.8182 -3.2646
24812SOL    HW279122   7.767   0.007   8.496 -1.2339  3.1419 -0.0667
24813SOL     OW79123   6.860   6.617   2.621  0.8591  0.3307  0.2639
24813SOL    HW179124   6.901   6.703   2.612 -0.7652  1.4520  2.6048
24813SOL    HW279125   6.766   6.636   2.624  0.4709 -1.5257  0.9907
24814SOL     OW79126   9.405   7.461  11.520  0.1180  0.4169  0.0357
24814SOL    HW179127   9.311   7.452  11.533  0.2547  0.6280  1.3133
24814SOL    HW279128   9.419   7.555  11.512  0.0419  0.3005 -1.8466
24815SOL     OW79129  10.376   4.803   7.460 -0.9762  0.3999  0.8134
24815SOL    HW179130  10.416   4.723   7.495 -2.8737 -0.1372  1.9566
24815SOL    HW279131  10.427   4.824   7.382  0.2061 -1.3584  1.0531
24816SOL     OW79132   3.376   8.458  10.105 -0.2947  0.4972  0.1492
24816SOL    HW179133   3.442   8.528  10.098  2.6619 -2.0187  0.8970
24816SOL    HW279134   3.378   8.415  10.019 -0.7284  0.1850  0.2937
24817SOL     OW79135   5.293   5.012  11.607  0.3224  0.5578  0.7174
24817SOL    HW179136   5.343   5.091  11.629  0.3355  1.6935 -2.7696
24817SOL    HW279137   5.212   5.046  11.569  1.1338 -0.9673 -2.6336
24818SOL     OW79138  10.053   8.888   6.387 -0.6725 -0.3383 -0.3864
24818SOL    HW179139   9.973   8.863   6.341 -0.3887 -1.5642 -0.2540
24818SOL    HW279140  10.081   8.808   6.431 -0.0151  0.3728  0.5452
24819SOL     OW79141   5.887   1.710   6.857 -0.2571 -0.9991 -0.2885
24819SOL    HW179142   5.879   1.796   6.814 -2.9117 -1.1065 -0.1720
24819SOL    HW279143   5.871   1.728   6.949 -1.4026 -1.6529 -0.3402
24820SOL     OW79144   2.274   4.340   0.714 -0.7543 -0.2395  0.5941
24820SOL    HW179145   2.315   4.379   0.636  0.5205 -1.2914  0.6998
24820SOL    HW279146   2.239   4.415   0.762  0.5873  0.6738  0.2183
24821SOL     OW79147   3.132   1.857   2.409  0.4953 -0.0578 -0.3761
24821SOL    HW179148   3.101   1.877   2.497  1.6170  0.5602 -0.0988
24821SOL    HW279149   3.222   1.891   2.407  0.4928 -0.0733 -1.7545
24822SOL     OW79150   0.416   1.148   4.460  0.2529  0.1275  0.0530
24822SOL    HW179151   0.357   1.197   4.403  0.3720  1.0202  0.6832
24822SOL    HW279152   0.502   1.155   4.418  0.5278  1.5883  0.8000
24823SOL     OW79153   9.354   7.048   5.014  0.0408  0.1768 -0.6862
24823SOL    HW179154   9.397   7.110   4.955 -1.2838  0.9712 -0.8353
24823SOL    HW279155   9.371   7.082   5.102 -1.0017  0.9820 -0.7835
24824SOL     OW79156   1.429   5.398   6.335  0.3507  0.1822 -0.2825
24824SOL    HW179157   1.336   5.413   6.322  0.4303  0.6071 -0.3737
24824SOL    HW279158   1.435   5.357   6.421  0.2698  2.3089  0.8023
24825SOL     OW79159   0.212   1.553   3.439  0.0597  0.0675  0.0269
24825SOL    HW179160   0.176   1.514   3.359  0.8324  0.9639 -0.7839
24825SOL    HW279161   0.207   1.648   3.424 -0.2695  0.2776  1.2765
24826SOL     OW79162   3.172   7.764  10.156  0.0665  0.2626 -0.0894
24826SOL    HW179163   3.164   7.845  10.205  2.2444 -0.0229  0.8711
24826SOL    HW279164   3.234   7.711  10.207 -1.3276 -2.0458 -0.6428
24827SOL     OW79165   8.196   0.242   7.161 -1.2045 -0.1334 -0.2429
24827SOL    HW179166   8.206   0.183   7.086 -0.9633  0.6088 -0.8143
24827SOL    HW279167   8.283   0.246   7.200 -0.7257  1.3506 -1.3842
24828SOL     OW79168   5.478   5.102   8.634  0.2443 -0.9686  0.1603
24828SOL    HW179169   5.486   5.193   8.664 -0.5854 -1.2254  1.2401
24828SOL    HW279170   5.434   5.109   8.549  2.1557 -0.2495 -0.8287
24829SOL     OW79171   0.856   8.294   0.431  0.2331 -0.1390 -0.3743
24829SOL    HW179172   0.939   8.336   0.408 -0.7117  1.2039 -1.4969
24829SOL    HW279173   0.790   8.341   0.379 -1.2604 -1.0510  0.6246
24830SOL     OW79174   0.538   0.697   5.142  0.0426 -0.6295  0.4044
24830SOL    HW179175   0.583   0.625   5.097 -0.0969 -0.5794  0.1791
24830SOL    HW279176   0.591   0.714   5.220 -0.5095 -1.6907  1.0272
24831SOL     OW79177   6.489   9.533   1.575  0.1221  0.4134 -0.1285
24831SOL    HW179178   6.487   9.453   1.522 -0.8145  0.4555 -0.1772
24831SOL    HW279179   6.554   9.589   1.533  2.0444 -0.9375  0.8464
24832SOL     OW79180   0.535  10.760  10.875 -0.4033  0.1538 -0.7221
24832SOL    HW179181   0.559  10.689  10.933  0.2345 -1.2781 -2.6350
24832SOL    HW279182   0.486  10.718  10.804  0.5461  1.4695 -2.2445
24833SOL     OW79183   7.075   3.765   8.565  0.0390 -0.3378  0.3604
24833SOL    HW179184   7.169   3.749   8.557  0.1330  0.5551 -0.4922
24833SOL    HW279185   7.068   3.858   8.587 -0.6433 -0.3080  0.0528
24834SOL     OW79186   0.583  11.604   8.512  0.5626 -0.3988 -0.2575
24834SOL    HW179187   0.579  11.676   8.575  0.0025 -1.0888  0.5187
24834SOL    HW279188   0.634  11.536   8.557 -0.1355 -1.0307 -0.4053
24835SOL     OW79189   1.589   7.749   7.719 -0.4372 -0.1703  0.1084
24835SOL    HW179190   1.497   7.725   7.724 -0.4335  0.0262  1.7369
24835SOL    HW279191   1.592   7.839   7.750  0.2493 -0.0430 -0.3207
24836SOL     OW79192   0.894   3.937  11.562  0.1027  0.5417  0.2244
24836SOL    HW179193   0.887   3.866  11.498 -0.1583 -1.8165  2.7237
24836SOL    HW279194   0.814   3.932  11.613  0.4040  2.2336  0.9397
24837SOL     OW79195   4.230  10.815   5.015  0.0025  0.1832 -0.3377
24837SOL    HW179196   4.268  10.895   5.053  1.1801 -0.3054 -0.4502
24837SOL    HW279197   4.192  10.769   5.090 -1.6018  1.3054 -0.4075
24838SOL     OW79198   2.147   7.744   0.292  0.3059 -0.3264 -0.0726
24838SOL    HW179199   2.209   7.698   0.236  1.3147  0.2526  0.5326
24838SOL    HW279200   2.061   7.711   0.266  0.8524 -0.9992 -1.0637
24839SOL     OW79201  11.058   9.044   3.581 -0.1898  0.3871 -0.5452
24839SOL    HW179202  11.041   8.966   3.530 -0.4746 -0.3063  0.5661
24839SOL    HW279203  11.153   9.050   3.586 -0.0743 -1.7607  2.0109
24840SOL     OW79204  11.908   4.064   4.280 -0.0650 -0.4498 -0.4934
24840SOL    HW179205  11.944   4.066   4.369 -5.1988 -1.3699  1.9929
24840SOL    HW279206  11.925   3.975   4.249  0.1150 -0.7352  0.3902
24841SOL     OW79207   5.673   0.823   6.744 -0.3685 -0.2279  0.3071
24841SOL    HW179208   5.723   0.742   6.740 -1.8643 -1.2580  1.3378
24841SOL    HW279209   5.582   0.795   6.760 -1.0045  1.6195  0.2229
24842SOL     OW79210   4.258   4.676   1.301  0.0997  0.3227  0.0459
24842SOL    HW179211   4.303   4.604   1.345  0.8616  0.6726 -0.1411
24842SOL    HW279212   4.238   4.739   1.371  0.3431  0.3879  0.0576
24843SOL     OW79213   0.843   6.218   8.970 -0.3354  0.3754  0.0451
24843SOL    HW179214   0.843   6.297   9.024 -1.6606  0.6466 -0.2977
24843SOL    HW279215   0.907   6.236   8.901  2.7260 -0.6846  2.4137
24844SOL     OW79216   4.771   4.697   9.552  0.2194 -0.6976 -0.2108
24844SOL    HW179217   4.853   4.714   9.598  1.2445 -0.3430 -2.0583
24844SOL    HW279218   4.720   4.778   9.563  0.1591 -0.8569  0.7988
24845SOL     OW79219   3.094   0.408   3.790  0.2511  0.0454 -0.5287
24845SOL    HW179220   3.080   0.498   3.821  0.2288  0.2071 -1.0019
24845SOL    HW279221   3.169   0.415   3.731  0.1523 -0.2195 -0.6847
24846SOL     OW79222  11.956  10.498   2.486 -0.4659  0.2415 -0.0692
24846SOL    HW179223  11.978  10.406   2.470 -0.8269 -0.0218  0.9152
24846SOL    HW279224  11.866  10.506   2.456 -0.0137  0.6082 -1.3806
24847SOL     OW79225   5.098   3.174   2.542 -0.2176  0.4206  0.1376
24847SOL    HW179226   5.158   3.114   2.587 -0.4523 -0.1429 -0.2822
24847SOL    HW279227   5.066   3.232   2.610  0.5964  0.5487  0.4161
24848SOL     OW79228   6.340   1.992   3.387  0.1747 -0.1194  0.1858
24848SOL    HW179229   6.359   2.073   3.434  0.5912 -1.4516  2.4656
24848SOL    HW279230   6.421   1.971   3.341  1.7535 -1.5025  3.2729
24849SOL     OW79231   9.322   5.257   1.679 -0.2649 -0.4284  0.0919
24849SOL    HW179232   9.262   5.188   1.649  0.9672 -0.9229 -1.4099
24849SOL    HW279233   9.265   5.331   1.701 -1.4907 -1.2290 -0.2804
24850SOL     OW79234   8.415   4.316   0.202 -0.3305 -0.9119 -0.3247
24850SOL    HW179235   8.366   4.398   0.195 -0.5602 -0.9509  0.7276
24850SOL    HW279236   8.370   4.256   0.143  0.6739  0.0829 -2.2080
24851SOL     OW79237  11.182   7.826  11.252  0.2033 -0.2046  0.4978
24851SOL    HW179238  11.133   7.745  11.241 -2.3933  1.3656 -0.5586
24851SOL    HW279239  11.250   7.805  11.315  0.6179 -3.5690 -0.8922
24852SOL     OW79240   2.481   1.160   6.549 -0.0120  0.0428  0.5554
24852SOL    HW179241   2.572   1.160   6.523  0.0002  0.4635  0.5859
24852SOL    HW279242   2.432   1.139   6.469  0.1447 -0.9073  0.6952
24853SOL     OW79243   1.786   7.512   2.088  0.2861 -0.5338 -0.3806
24853SOL    HW179244   1.855   7.470   2.036  0.3887 -0.1784 -0.5337
24853SOL    HW279245   1.768   7.450   2.158  1.4432 -0.2227  0.2207
24854SOL     OW79246   4.389   5.625  11.381  0.2317 -0.0132 -0.2933
24854SOL    HW179247   4.298   5.621  11.411 -0.3531  1.1682 -1.8042
24854SOL    HW279248   4.437   5.571  11.444 -1.3039  0.3696  1.2916
24855SOL     OW79249   2.946  11.445   2.940 -0.0672  0.6945  0.1968
24855SOL    HW179250   2.906  11.531   2.955 -1.7768  0.2712 -1.5500
24855SOL    HW279251   2.876  11.392   2.902  1.5117 -0.8625 -0.6774
24856SOL     OW79252   3.499   1.450   0.437 -0.2860 -0.2347 -0.3625
24856SOL    HW179253   3.590   1.447   0.406 -0.6138 -0.7268 -1.3407
24856SOL    HW279254   3.489   1.538   0.472  1.6329 -1.2640  3.2274
24857SOL     OW79255   6.036   6.646   9.479  0.0835  0.1882 -0.1511
24857SOL    HW179256   5.980   6.569   9.482 -0.0314  0.2906  0.7147
24857SOL    HW279257   5.986   6.714   9.523  0.9816  0.1955  0.9259
24858SOL     OW79258   0.604   3.848   3.100  0.2057  0.1295  0.0644
24858SOL    HW179259   0.686   3.849   3.051 -0.9879  0.5984 -2.0328
24858SOL    HW279260   0.547   3.789   3.051 -1.4413  1.5426  0.1994
24859SOL     OW79261   1.059   4.200   1.256  0.2227  0.2524 -0.1796
24859SOL    HW179262   1.154   4.187   1.257  0.1827 -0.5911  2.8419
24859SOL    HW279263   1.026   4.132   1.197  1.4535  0.3137 -0.9726
24860SOL     OW79264   8.049   8.011   1.679  1.1697  0.1728  0.2419
24860SOL    HW179265   8.034   7.921   1.650 -0.8562  0.8856 -1.1838
24860SOL    HW279266   8.037   8.064   1.600  1.5283  1.7612  1.1999
24861SOL     OW79267   6.330   2.652   4.345  0.3120 -0.4025 -0.0166
24861SOL    HW179268   6.406   2.704   4.317 -1.5508  3.6879  1.6193
24861SOL    HW279269   6.270   2.657   4.271 -0.6567  1.7796  0.8134
24862SOL     OW79270   8.235   2.444   4.648  0.7135 -0.0384  0.4358
24862SOL    HW179271   8.320   2.404   4.630 -0.4810 -1.6598 -2.2176
24862SOL    HW279272   8.189   2.378   4.702  1.4738  1.3854  3.0005
24863SOL     OW79273   1.880   5.375  10.169 -0.0073 -0.7219  0.3829
24863SOL    HW179274   1.904   5.403  10.080  0.2799  0.2977  0.7661
24863SOL    HW279275   1.962   5.349  10.209  0.7275  3.1297  1.8219
24864SOL     OW79276   0.602   2.290   0.455  0.4756  0.8449 -0.0313
24864SOL    HW179277   0.512   2.303   0.485  0.1545 -0.0223 -0.5835
24864SOL    HW279278   0.656   2.330   0.523 -0.2706 -0.0252  1.1015
24865SOL     OW79279  11.569   0.324   4.716 -0.4530  0.3123 -0.4318
24865SOL    HW179280  11.642   0.268   4.688 -0.7722  0.7055 -2.1572
24865SOL    HW279281  11.496   0.264   4.730 -1.0287  0.3164 -3.0688
24866SOL     OW79282  10.066   5.569   6.484  0.5523  0.0085 -0.3797
24866SOL    HW179283   9.973   5.571   6.463  0.0667  2.0495  1.5510
24866SOL    HW279284  10.109   5.609   6.408 -0.3504  0.7715 -0.5041
24867SOL     OW79285   0.489   9.919   1.310  0.4367 -0.2719 -0.1678
24867SOL    HW179286   0.525   9.880   1.389 -1.1472 -1.5504 -0.0195
24867SOL    HW279287   0.551   9.895   1.241  0.8977 -0.7094  0.3892
24868SOL     OW79288   2.994   2.516   4.112 -0.1294 -0.7447 -0.2431
24868SOL    HW179289   3.002   2.444   4.174  2.1896 -0.7830 -0.4936
24868SOL    HW279290   2.965   2.590   4.164 -0.8974 -1.4273  0.3281
24869SOL     OW79291   8.527   2.052   8.345  0.2470 -0.0544  0.1992
24869SOL    HW179292   8.475   1.995   8.290  0.9274 -1.5461  1.0527
24869SOL    HW279293   8.518   2.139   8.305 -0.3415 -0.8397 -1.4577
24870SOL     OW79294   6.414   9.034   4.629  0.7723 -0.1492 -0.2076
24870SOL    HW179295   6.357   9.081   4.567 -1.8150 -1.8079  0.7725
24870SOL    HW279296   6.438   8.954   4.583  0.2171 -0.6076  0.2844
24871SOL     OW79297  11.198  10.462  11.923 -0.0568 -0.1412 -0.3237
24871SOL    HW179298  11.119  10.409  11.925  0.0321 -0.2986 -0.9292
24871SOL    HW279299  11.256  10.418  11.861 -0.3940  1.2313 -1.6586
24872SOL     OW79300   7.601   3.869   0.777 -0.0774  0.4490  0.5202
24872SOL    HW179301   7.617   3.919   0.858 -0.2917  1.4727 -0.0521
24872SOL    HW279302   7.506   3.866   0.769 -0.0484  0.9071 -0.0237
24873SOL     OW79303   7.468   8.119   2.296 -0.5468  0.0342 -0.5342
24873SOL    HW179304   7.496   8.167   2.374 -0.3958 -0.8253 -0.0388
24873SOL    HW279305   7.409   8.052   2.329  0.2478 -0.9426 -1.0319
24874SOL     OW79306   8.248  10.780   4.246  0.1536 -0.2337 -0.0159
24874SOL    HW179307   8.291  10.849   4.298 -0.6347 -0.5159  1.0484
24874SOL    HW279308   8.179  10.747   4.303 -1.2346 -0.0699 -1.5277
24875SOL     OW79309   6.010  10.837   6.416 -0.2801 -0.0689  0.0830
24875SOL    HW179310   5.991  10.863   6.325 -2.4386  2.2651  1.0810
24875SOL    HW279311   6.032  10.919   6.460 -2.1327 -0.6605  2.2864
24876SOL     OW79312   1.345   2.526   7.710  0.0984  0.5270  0.3719
24876SOL    HW179313   1.409   2.545   7.641  0.0672 -1.9449 -0.4522
24876SOL    HW279314   1.261   2.520   7.664 -0.2028  0.5705  0.9116
24877SOL     OW79315   3.806   6.873   2.361 -0.0857  0.1333  0.3270
24877SOL    HW179316   3.743   6.942   2.344  0.1991  0.3904  0.3053
24877SOL    HW279317   3.886   6.919   2.386 -0.3593 -0.2015  1.9420
24878SOL     OW79318  11.822   4.168   2.688 -0.5628 -0.6194 -0.2207
24878SOL    HW179319  11.900   4.219   2.711 -0.9687 -0.3341  0.5707
24878SOL    HW279320  11.752   4.233   2.687 -1.4970 -1.4337  2.9215
24879SOL     OW79321  10.456   3.158   6.877 -0.1543  0.0939  0.3157
24879SOL    HW179322  10.473   3.206   6.959  0.8726  1.1288 -0.4733
24879SOL    HW279323  10.465   3.223   6.808  0.8674 -1.1318 -0.7749
24880SOL     OW79324   6.691   7.661   6.323  0.2053 -0.0756 -0.2355
24880SOL    HW179325   6.608   7.614   6.318 -1.1582  2.1258  0.0562
24880SOL    HW279326   6.710   7.668   6.417 -0.6581  1.5422 -0.1341
24881SOL     OW79327   5.482   7.200  10.343 -0.4056 -0.3326  0.1102
24881SOL    HW179328   5.463   7.158  10.259  0.0697 -1.1728  0.4130
24881SOL    HW279329   5.507   7.128  10.401 -0.0490  0.3175  0.7819
24882SOL     OW79330   2.955   4.761   6.794  0.6986  0.4257 -0.0396
24882SOL    HW179331   2.976   4.703   6.720  0.9943  1.1360 -0.5267
24882SOL    HW279332   3.021   4.739   6.860  1.5351  0.9888 -0.6608
24883SOL     OW79333   0.494  11.934   9.091 -0.3364  0.8686  0.0526
24883SOL    HW179334   0.487  11.842   9.064 -3.7728  0.4456  1.7843
24883SOL    HW279335   0.481  11.984   9.011  0.9233 -0.1206 -0.8031
24884SOL     OW79336   8.653   4.404   9.880 -0.1895 -0.6932  0.3334
24884SOL    HW179337   8.657   4.309   9.891  0.9215 -0.7635 -0.5457
24884SOL    HW279338   8.667   4.438   9.968 -2.7911 -1.3213  1.0943
24885SOL     OW79339  10.268   6.588   4.293 -0.2528 -0.4806 -0.1628
24885SOL    HW179340  10.220   6.670   4.304  0.2658 -0.3553  1.3082
24885SOL    HW279341  10.328   6.585   4.367  1.1422 -1.2459 -1.2880
24886SOL     OW79342   1.634   4.502   2.261  0.4686 -0.0284  0.4975
24886SOL    HW179343   1.557   4.476   2.210 -1.0772  1.9029  1.6905
24886SOL    HW279344   1.696   4.535   2.196 -0.0733 -0.7233 -0.3993
24887SOL     OW79345   2.361   3.544   1.350 -0.2784 -0.4400 -0.3596
24887SOL    HW179346   2.411   3.624   1.336 -0.4102 -0.1211  0.9385
24887SOL    HW279347   2.412   3.494   1.413 -1.7387  0.0577  1.2777
24888SOL     OW79348   8.712   0.551  11.748  0.4773  0.2980  0.0160
24888SOL    HW179349   8.664   0.608  11.687  0.3277  0.0345 -0.1111
24888SOL    HW279350   8.796   0.535  11.705 -0.2373 -1.2328 -0.8996
24889SOL     OW79351   0.292  11.400   9.587 -0.1021  0.2183  0.1768
24889SOL    HW179352   0.375  11.365   9.619  0.0410  0.8147  0.4584
24889SOL    HW279353   0.229  11.330   9.605  0.2880 -0.1322  0.2022
24890SOL     OW79354   2.367   1.583   5.326  0.1684 -0.4804  0.4101
24890SOL    HW179355   2.333   1.661   5.369  0.8975 -0.1713  0.4427
24890SOL    HW279356   2.292   1.545   5.280 -0.3820 -0.2333  1.0945
24891SOL     OW79357  10.928   8.923   2.087 -0.3354 -0.1551 -0.3037
24891SOL    HW179358  10.897   8.868   2.016  2.5364 -1.5656 -0.6044
24891SOL    HW279359  10.902   9.012   2.062 -0.9487 -0.8270 -2.1853
24892SOL     OW79360  10.404   9.278   2.646 -0.3652 -0.4631  0.1251
24892SOL    HW179361  10.345   9.353   2.651  0.2526  0.1472 -1.1045
24892SOL    HW279362  10.411   9.246   2.736 -0.6670  0.9313  0.6689
24893SOL     OW79363   0.382   9.694   7.345 -0.3376  0.0208 -0.2578
24893SOL    HW179364   0.453   9.658   7.290  1.2508  1.3352  0.8445
24893SOL    HW279365   0.403   9.665   7.433 -1.0353  0.6567  0.1263
24894SOL     OW79366   0.068  10.901   6.825 -0.1339  0.2206  0.0394
24894SOL    HW179367   0.131  10.920   6.895  0.1738 -0.5797 -0.0091
24894SOL    HW279368   0.008  10.975   6.827  1.2559  1.4111 -0.4354
24895SOL     OW79369   0.366   7.696   6.255  0.5517  0.1835  0.0337
24895SOL    HW179370   0.414   7.749   6.192 -0.1958  0.3115 -0.4284
24895SOL    HW279371   0.406   7.718   6.340  0.9094  0.7273 -0.2736
24896SOL     OW79372   2.339   6.549  11.462 -0.5915  0.3309  0.0712
24896SOL    HW179373   2.323   6.563  11.555 -1.2614  2.4937 -0.3114
24896SOL    HW279374   2.272   6.486  11.435  1.1812 -2.3460  1.4854
24897SOL     OW79375  10.942   9.040   9.229  0.4293  0.4816  0.0287
24897SOL    HW179376  10.892   8.973   9.276  0.5966  1.0812  1.0840
24897SOL    HW279377  10.974   8.995   9.151 -2.0078  0.1691 -0.8705
24898SOL     OW79378   4.153   1.072   5.172 -0.3204  0.2705 -0.2621
24898SOL    HW179379   4.110   0.987   5.161 -1.9851  1.0819 -0.3696
24898SOL    HW279380   4.246   1.051   5.172 -0.6311 -1.4177 -1.5857
24899SOL     OW79381   4.766  10.528   0.447  0.3216 -0.0744  0.6573
24899SOL    HW179382   4.777  10.614   0.406  0.6181  0.4403  1.7761
24899SOL    HW279383   4.739  10.471   0.376  2.3545  0.4213 -0.6011
24900SOL     OW79384   9.337   6.302  11.636  0.2630 -0.0424  0.1367
24900SOL    HW179385   9.250   6.272  11.609 -0.8607  2.6489  0.4839
24900SOL    HW279386   9.393   6.281  11.562 -1.0486 -0.2279 -0.8375
24901SOL     OW79387   2.588   0.494   1.342 -0.6886 -0.3178  0.2380
24901SOL    HW179388   2.505   0.523   1.380 -0.6665  1.0298 -0.6652
24901SOL    HW279389   2.634   0.576   1.320  0.5889 -1.0420  0.0917
24902SOL     OW79390   3.655   2.019   4.092 -0.3147 -0.0996 -0.3999
24902SOL    HW179391   3.724   2.014   4.026  0.3352  1.8112  0.0437
24902SOL    HW279392   3.702   2.040   4.173 -1.2682 -0.5686  0.2931
24903SOL     OW79393   2.808   4.646  11.183 -0.4284 -0.1386 -0.2909
24903SOL    HW179394   2.814   4.595  11.102  2.9502  1.1131 -0.9686
24903SOL    HW279395   2.893   4.636  11.225 -1.0060  1.7931  1.4996
24904SOL     OW79396   9.784  10.809   6.005  0.3767 -0.5147  0.4440
24904SOL    HW179397   9.859  10.866   6.024 -0.8014  0.3511  3.0017
24904SOL    HW279398   9.767  10.765   6.088 -1.7570 -0.9013 -0.1556
24905SOL     OW79399   9.030   0.398   8.761 -0.0253  0.1498  0.3907
24905SOL    HW179400   9.080   0.393   8.842 -0.0342 -3.2120  0.3137
24905SOL    HW279401   9.060   0.478   8.719  4.7281 -1.1890  0.7208
24906SOL     OW79402   9.315   5.311   6.241 -0.5574 -0.1015  0.2708
24906SOL    HW179403   9.357   5.263   6.312 -1.4733  0.4766  1.2413
24906SOL    HW279404   9.308   5.248   6.170  0.3281 -0.7109  0.7064
24907SOL     OW79405   8.737   9.366   2.789  0.8461  0.2009 -0.2753
24907SOL    HW179406   8.767   9.437   2.846 -1.7315 -0.0016  1.5067
24907SOL    HW279407   8.764   9.286   2.835 -0.6111  0.0454  0.3785
24908SOL     OW79408   0.779   3.232   3.776 -0.0170  0.3338 -0.6730
24908SOL    HW179409   0.839   3.284   3.723  0.1007  0.9672  0.0636
24908SOL    HW279410   0.699   3.284   3.782  0.2039  0.5770  0.3134
24909SOL     OW79411   5.337   4.090   2.362 -0.2010 -0.0837 -0.2091
24909SOL    HW179412   5.390   4.047   2.295 -0.5534 -2.2793  0.8240
24909SOL    HW279413   5.399   4.142   2.413  0.8300 -1.8536  0.3953
24910SOL     OW79414  11.313   8.920   8.556 -0.0793  0.3989 -0.0520
24910SOL    HW179415  11.308   9.015   8.543  0.3532  0.7524  1.9844
24910SOL    HW279416  11.404   8.898   8.536 -0.1334  0.4582 -0.3575
24911SOL     OW79417   8.810   1.312   9.458 -0.2909  0.2437  0.3006
24911SOL    HW179418   8.720   1.286   9.435 -0.7155 -0.1645  2.2108
24911SOL    HW279419   8.806   1.328   9.552  1.4051  1.3579  0.2128
24912SOL     OW79420  11.468   4.152  10.129 -0.0851  0.5169 -0.2631
24912SOL    HW179421  11.409   4.186  10.196 -1.6306 -2.0047 -0.1983
24912SOL    HW279422  11.411   4.133  10.054  0.9436 -0.2648 -0.8864
24913SOL     OW79423   8.108   3.490   5.103 -0.4063 -0.2449 -0.2960
24913SOL    HW179424   8.110   3.580   5.070  2.5423 -0.8570 -2.1890
24913SOL    HW279425   8.095   3.500   5.197 -1.3202  2.0594 -0.5790
24914SOL     OW79426   3.465   0.453   3.334 -0.0763 -0.1348 -0.5963
24914SOL    HW179427   3.533   0.518   3.314 -0.7658  0.6769 -0.3643
24914SOL    HW279428   3.512   0.370   3.337  1.3982  0.6569  2.0173
24915SOL     OW79429  11.481   3.695  11.966  0.4990  0.2192 -0.4395
24915SOL    HW179430  11.419   3.670  11.898  1.7991 -1.9942 -0.9262
24915SOL    HW279431  11.478   3.622  12.028  1.8197  0.5796  0.0812
24916SOL     OW79432  11.896   0.386   2.656  0.3161 -0.2937  0.7959
24916SOL    HW179433  11.987   0.360   2.668  0.6606 -0.3272 -1.4525
24916SOL    HW279434  11.900   0.475   2.621 -0.4892 -0.3821  0.4455
24917SOL     OW79435   1.808   4.414   4.130  0.1121 -0.5219  0.0053
24917SOL    HW179436   1.804   4.440   4.038 -0.1217 -0.1695  0.1136
24917SOL    HW279437   1.810   4.319   4.127 -1.5333 -0.5743 -0.3186
24918SOL     OW79438   9.478   6.275   5.741 -0.3923 -0.5091 -0.2576
24918SOL    HW179439   9.537   6.304   5.811 -0.1172  1.3231 -1.1752
24918SOL    HW279440   9.396   6.255   5.785  0.7064 -2.6601  0.9919
24919SOL     OW79441   1.397   9.930  11.242  0.6438  0.5689  0.0252
24919SOL    HW179442   1.339   9.925  11.318 -0.1044  0.2194 -0.5607
24919SOL    HW279443   1.339   9.921  11.167  1.7717 -3.3444 -0.5735
24920SOL     OW79444   5.070   5.566   9.648  0.0283 -0.1152 -0.0443
24920SOL    HW179445   5.004   5.537   9.586  0.5026 -2.3179  0.4142
24920SOL    HW279446   5.151   5.573   9.596  0.2044 -0.9777  0.0978
24921SOL     OW79447  10.939   7.450  10.158 -0.0607  0.3698 -0.1192
24921SOL    HW179448  10.863   7.470  10.103 -1.0696 -0.6454  0.8450
24921SOL    HW279449  10.919   7.491  10.243  0.3938 -0.0370  0.1906
24922SOL     OW79450   0.157   4.555  11.390 -0.4336 -0.0150  0.6574
24922SOL    HW179451   0.199   4.484  11.341  0.0693  0.8008 -0.1259
24922SOL    HW279452   0.224   4.584  11.452 -0.7267 -0.3845  1.1522
24923SOL     OW79453   0.458   7.083   8.968  0.0647 -0.2832  0.1311
24923SOL    HW179454   0.506   7.002   8.982  0.4879 -0.1262 -0.4172
24923SOL    HW279455   0.475   7.107   8.877  1.4771  1.4042  0.7758
24924SOL     OW79456   2.692  10.027   9.765 -0.0198  0.4240  0.5957
24924SOL    HW179457   2.665  10.107   9.720  0.2495  0.1609 -0.0437
24924SOL    HW279458   2.672  10.043   9.858  1.9026  2.0159  0.7844
24925SOL     OW79459   0.980   3.731   1.915  0.0010 -0.4382  0.0282
24925SOL    HW179460   0.886   3.727   1.933 -0.1035  0.1895 -0.3449
24925SOL    HW279461   1.011   3.805   1.968 -0.2976  1.3784 -2.1561
24926SOL     OW79462   2.923   6.114  10.197  0.1531 -0.4573  0.3823
24926SOL    HW179463   2.834   6.078  10.199  0.4116 -1.1373  0.0429
24926SOL    HW279464   2.954   6.107  10.288 -0.3612  0.3755  0.6318
24927SOL     OW79465  10.993   4.781   0.023 -0.3450  0.2156 -0.0563
24927SOL    HW179466  11.068   4.779   0.083  0.1589  0.1692 -0.6756
24927SOL    HW279467  10.940   4.706   0.050  1.4558 -1.7837 -1.6048
24928SOL     OW79468   4.574   3.440   4.030  0.7706  0.4392 -0.5336
24928SOL    HW179469   4.647   3.383   4.009  0.3091 -0.0011 -0.9664
24928SOL    HW279470   4.584   3.459   4.124 -0.0842 -1.8466  0.0993
24929SOL     OW79471   6.365  11.527   4.058  0.2576 -0.7923 -0.5939
24929SOL    HW179472   6.318  11.603   4.024 -0.8764 -1.4789 -0.6214
24929SOL    HW279473   6.296  11.470   4.093  1.2378 -0.8500  1.4098
24930SOL     OW79474  11.708   1.697   3.701  0.0157  0.2714  0.1324
24930SOL    HW179475  11.618   1.664   3.690  0.4614 -0.5787 -1.2791
24930SOL    HW279476  11.735   1.664   3.787 -1.1793  0.9751  0.8108
24931SOL     OW79477   1.821   3.994   8.621  0.2828  0.5415  0.1144
24931SOL    HW179478   1.806   4.002   8.526 -0.0369  0.1366  0.1300
24931SOL    HW279479   1.870   3.912   8.630  1.4521  1.2220  0.1808
24932SOL     OW79480   4.593   4.714   5.339  0.4990 -0.1589 -0.2469
24932SOL    HW179481   4.636   4.629   5.328 -1.1126 -0.9247 -0.9372
24932SOL    HW279482   4.646   4.759   5.404  0.4205 -2.3938  1.5068
24933SOL     OW79483   6.771   8.186   5.333 -0.0031  0.2154 -0.1278
24933SOL    HW179484   6.704   8.214   5.270  0.7798 -0.9022 -1.5324
24933SOL    HW279485   6.848   8.169   5.279  1.3450  1.1826  1.4083
24934SOL     OW79486   7.723   1.776   2.847  0.2944  0.1396 -0.2045
24934SOL    HW179487   7.795   1.715   2.836  0.1820 -0.3877  1.6663
24934SOL    HW279488   7.697   1.767   2.939 -2.4556 -0.0223 -0.9144
24935SOL     OW79489   4.889  10.394   7.095 -0.1890  0.1941  0.6238
24935SOL    HW179490   4.937  10.314   7.115 -0.2175  0.3626  1.3801
24935SOL    HW279491   4.816  10.366   7.040  0.7985 -0.0647 -0.6090
24936SOL     OW79492   5.057  10.506   4.125  0.5541 -0.0357 -0.3065
24936SOL    HW179493   5.076  10.469   4.212  0.6010 -0.7828 -0.6255
24936SOL    HW279494   5.138  10.492   4.075  0.3328 -0.1317 -0.6412
24937SOL     OW79495   8.173   0.856   6.056 -0.4405 -0.1083  0.0258
24937SOL    HW179496   8.077   0.858   6.065 -0.4415  2.7947  0.3457
24937SOL    HW279497   8.196   0.944   6.027  2.1661 -0.7363 -0.0250
24938SOL     OW79498   5.855  11.053   9.584 -0.4817  0.4980  0.3935
24938SOL    HW179499   5.820  10.986   9.526  1.7760  0.5026 -1.0688
24938SOL    HW279500   5.837  11.136   9.540  2.8093  0.4269 -1.3915
24939SOL     OW79501   4.804   1.301   4.880  0.0819 -0.2225 -0.2117
24939SOL    HW179502   4.879   1.277   4.825 -1.2770 -1.8864 -1.4430
24939SOL    HW279503   4.843   1.336   4.960  2.1690 -1.2963 -0.7010
24940SOL     OW79504  11.631   4.794   1.657  0.3255 -0.5625 -0.0899
24940SOL    HW179505  11.679   4.711   1.657  0.5238 -0.4799 -1.6555
24940SOL    HW279506  11.562   4.782   1.722  1.7942 -1.0734  1.4261
24941SOL     OW79507   9.940   1.693   5.583  0.2432  0.0622  0.1152
24941SOL    HW179508   9.926   1.616   5.528 -1.0146  0.4689 -0.1778
24941SOL    HW279509  10.021   1.675   5.631  1.2519 -0.3978 -1.6906
24942SOL     OW79510   9.658  11.675   1.984 -0.3551 -0.3903  0.8347
24942SOL    HW179511   9.742  11.652   1.944 -0.3561 -2.0268  1.7053
24942SOL    HW279512   9.616  11.733   1.920  2.3938  2.4920  1.3767
24943SOL     OW79513   6.374   7.175  10.099  0.3339 -0.2980 -0.5375
24943SOL    HW179514   6.330   7.178  10.184 -0.0048 -0.5303 -0.7024
24943SOL    HW279515   6.380   7.082  10.078 -1.0007 -0.2036 -1.4867
24944SOL     OW79516   5.367   4.301   1.542 -0.3810  0.6458 -0.1026
24944SOL    HW179517   5.435   4.235   1.555 -0.4632  0.7457  0.8899
24944SOL    HW279518   5.381   4.365   1.612  0.3333  2.2625 -1.6069
24945SOL     OW79519   7.301  11.563   1.723  0.4930  0.2616 -0.2974
24945SOL    HW179520   7.218  11.606   1.741  0.4169  0.0326 -0.0959
24945SOL    HW279521   7.290  11.523   1.637  1.0464  1.8294 -1.1217
24946SOL     OW79522   9.918   1.696   4.897 -0.1133 -0.2213  0.2189
24946SOL    HW179523   9.919   1.606   4.930 -0.9135 -0.7134 -1.0438
24946SOL    HW279524   9.863   1.744   4.959  0.6009 -0.5031  1.0953
24947SOL     OW79525  11.191   9.595  11.884  0.0672  0.5669  0.4828
24947SOL    HW179526  11.250   9.628  11.816  0.6369  0.5232  0.9521
24947SOL    HW279527  11.237   9.521  11.922 -0.3626  0.4311  0.7459
24948SOL     OW79528   6.584   2.045   1.839  0.0566 -0.1564 -0.4024
24948SOL    HW179529   6.669   2.039   1.795 -0.2888 -0.6945 -1.0273
24948SOL    HW279530   6.595   1.997   1.921  0.0155 -1.3052 -1.0477
24949SOL     OW79531  11.934   4.307   1.676  0.0276 -0.4016  0.1937
24949SOL    HW179532  12.029   4.299   1.687 -0.2242 -1.4578  1.8960
24949SOL    HW279533  11.914   4.248   1.603  0.5157 -1.3912  0.8303
24950SOL     OW79534   3.190  10.434   9.667 -0.5091 -0.0774 -0.1156
24950SOL    HW179535   3.185  10.469   9.756  0.2649 -1.1427  0.3668
24950SOL    HW279536   3.108  10.462   9.626 -0.9644  0.2737  0.9853
24951SOL     OW79537   1.635   6.662   2.164 -0.4181  0.2091 -0.7083
24951SOL    HW179538   1.563   6.625   2.113  0.3621 -0.2362 -1.4951
24951SOL    HW279539   1.712   6.653   2.108  0.1835  1.0677 -0.0465
24952SOL     OW79540   0.101   8.979   6.238  0.0650  0.2084  0.1932
24952SOL    HW179541   0.083   9.072   6.221  1.7525  0.5982  0.3629
24952SOL    HW279542   0.066   8.964   6.326 -1.3350  0.3247 -0.3088
24953SOL     OW79543   7.195   3.430   0.852  0.3988  0.0474 -0.1587
24953SOL    HW179544   7.225   3.509   0.898  0.0698 -0.0045  0.1472
24953SOL    HW279545   7.203   3.453   0.759  0.8536  0.2331 -0.0777
24954SOL     OW79546   4.637  11.968  11.675 -0.0716 -0.3780 -0.1166
24954SOL    HW179547   4.639  11.960  11.580  0.6333 -2.4371  0.0205
24954SOL    HW279548   4.545  11.960  11.698 -0.0539 -2.2394 -0.5169
24955SOL     OW79549   5.683   0.305   6.325 -0.0545 -0.5887 -0.0132
24955SOL    HW179550   5.670   0.394   6.291  0.1210 -1.1882 -1.7462
24955SOL    HW279551   5.595   0.275   6.346 -0.2953 -0.5451 -0.9078
24956SOL     OW79552   7.157   2.436   8.227  1.0732  0.2982  0.3763
24956SOL    HW179553   7.134   2.516   8.181  3.3599  0.6157 -0.3317
24956SOL    HW279554   7.220   2.392   8.170 -0.6551 -2.4237  0.3802
24957SOL     OW79555   3.415   5.535   3.138  0.0062 -0.5730 -0.0774
24957SOL    HW179556   3.484   5.592   3.170  0.0816 -0.8870  0.3372
24957SOL    HW279557   3.458   5.477   3.076  0.2810 -1.2498  0.7258
24958SOL     OW79558   3.568   9.905  11.852 -0.1040 -0.2550 -0.0237
24958SOL    HW179559   3.495   9.858  11.812 -0.2363 -0.2645  0.2280
24958SOL    HW279560   3.631   9.916  11.780 -0.8855  0.8880 -0.5785
24959SOL     OW79561   7.371   1.301   7.015 -0.4891  0.0906  0.6735
24959SOL    HW179562   7.280   1.322   6.994 -1.0278 -1.8073  0.9953
24959SOL    HW279563   7.420   1.378   6.986 -2.1013  0.8627 -0.1306
24960SOL     OW79564   9.401   0.179   5.091  0.0636  0.1620  0.2854
24960SOL    HW179565   9.305   0.176   5.090  0.0275  0.7910 -0.9820
24960SOL    HW279566   9.427   0.087   5.087 -0.5325  0.0292 -1.4653
24961SOL     OW79567   9.381   7.050   8.284  0.0359 -0.2456  0.6617
24961SOL    HW179568   9.331   7.125   8.314  0.2476 -0.1421  0.7624
24961SOL    HW279569   9.472   7.079   8.288  0.1202 -0.5081  0.7056
24962SOL     OW79570   7.384   6.887   0.244  0.6201 -0.0604  0.7654
24962SOL    HW179571   7.430   6.899   0.327  1.1992 -0.9406  0.5863
24962SOL    HW279572   7.294   6.867   0.270 -0.1125  3.0570  1.1015
24963SOL     OW79573   9.781   8.158   9.398  0.2253  0.1001  0.4606
24963SOL    HW179574   9.836   8.221   9.352  2.5919 -0.4537  2.3459
24963SOL    HW279575   9.815   8.073   9.372 -0.3015 -0.2926  1.0294
24964SOL     OW79576  10.747  11.011   1.913  0.6409  0.2096  0.2012
24964SOL    HW179577  10.711  10.923   1.925 -1.0349  1.0605  2.4115
24964SOL    HW279578  10.715  11.039   1.827  3.3605 -2.1582 -1.7563
24965SOL     OW79579   8.281   9.236   5.607  1.4013  0.3024 -0.1412
24965SOL    HW179580   8.248   9.149   5.586  1.5801  0.0852  0.4364
24965SOL    HW279581   8.209   9.295   5.586  0.9776 -0.0730  0.2360
24966SOL     OW79582   8.851   7.744   8.264  0.0124  0.0429 -0.0534
24966SOL    HW179583   8.776   7.703   8.306 -0.3849  2.3691  1.7639
24966SOL    HW279584   8.821   7.832   8.241  1.8944  0.7106 -0.1581
24967SOL     OW79585   4.093   5.194   2.272  0.4857 -0.4212 -0.1899
24967SOL    HW179586   4.058   5.117   2.226  0.2445 -0.0214 -0.6863
24967SOL    HW279587   4.041   5.200   2.352 -0.1839 -0.1812 -0.6368
24968SOL     OW79588   7.235   9.757   6.980 -1.0379  0.3144 -0.3613
24968SOL    HW179589   7.196   9.808   7.051 -0.2401  1.8550 -0.9734
24968SOL    HW279590   7.159   9.726   6.929 -1.5498  1.5090 -0.3648
24969SOL     OW79591   9.101   3.592   8.460  0.1362  0.2989  0.4424
24969SOL    HW179592   9.188   3.615   8.493  0.1752  0.0545  0.5084
24969SOL    HW279593   9.045   3.664   8.488  0.2851  0.3759  0.5425
24970SOL     OW79594   1.800   9.550   1.296  0.4147 -0.1848  0.1196
24970SOL    HW179595   1.741   9.484   1.330  2.4766 -2.1613  0.1281
24970SOL    HW279596   1.873   9.552   1.358  2.0443 -0.4797 -1.6957
24971SOL     OW79597  10.516   4.390   9.710  0.0738  1.0458  0.0912
24971SOL    HW179598  10.513   4.303   9.751  4.6095  1.7730  2.6321
24971SOL    HW279599  10.589   4.384   9.647 -0.8191  2.5307 -1.1582
24972SOL     OW79600   5.214   9.569   9.002 -0.3264 -0.2473  0.1627
24972SOL    HW179601   5.185   9.588   9.091  0.7519 -3.7259  1.4248
24972SOL    HW279602   5.138   9.587   8.948 -1.6557  0.1008  2.0489
24973SOL     OW79603   6.460   1.474   2.579  0.2166 -0.7231 -0.4969
24973SOL    HW179604   6.453   1.415   2.504  0.7975 -0.1026 -1.0569
24973SOL    HW279605   6.543   1.451   2.620  0.2722 -0.5361 -0.5052
24974SOL     OW79606  11.147   2.049   9.760  0.2620  0.3679  0.2806
24974SOL    HW179607  11.230   2.068   9.803  0.8897 -0.5982 -0.4857
24974SOL    HW279608  11.118   1.967   9.799  1.5136 -1.2702 -2.0049
24975SOL     OW79609   6.149   9.835   3.401  0.3908  0.1236 -0.0900
24975SOL    HW179610   6.134   9.742   3.385  1.2164 -0.0149 -0.0640
24975SOL    HW279611   6.192   9.838   3.486 -0.8397  0.6263  0.5439
24976SOL     OW79612   3.751   8.168  10.274 -0.5371  0.0742 -0.1878
24976SOL    HW179613   3.796   8.232  10.329  1.6340  0.0686 -1.8333
24976SOL    HW279614   3.675   8.215  10.239 -0.8383  0.6704  1.1832
24977SOL     OW79615   0.470   5.386  10.893  0.3675  0.7678 -0.1832
24977SOL    HW179616   0.510   5.451  10.836  1.9596 -0.4381 -0.5327
24977SOL    HW279617   0.397   5.431  10.935 -0.8623  1.7093 -3.1315
24978SOL     OW79618   2.715   9.251   7.234  0.1775 -0.7302  0.0585
24978SOL    HW179619   2.679   9.163   7.231 -1.5804 -0.0974  1.4471
24978SOL    HW279620   2.648   9.307   7.195  1.3679  0.0132 -1.0393
24979SOL     OW79621   1.791   8.660   5.567 -0.6226  0.1009  0.5760
24979SOL    HW179622   1.777   8.655   5.473 -2.8094  0.8099  0.8178
24979SOL    HW279623   1.819   8.750   5.583  2.6503 -0.7357  0.3623
24980SOL     OW79624  10.482  10.855   9.623 -0.0848  0.3669  0.3714
24980SOL    HW179625  10.450  10.783   9.678  0.2831  0.6261  0.9256
24980SOL    HW279626  10.562  10.821   9.583 -0.3274  0.1954  0.0259
24981SOL     OW79627   3.581   8.426   8.028 -0.1518  0.1006  0.1222
24981SOL    HW179628   3.643   8.435   8.100  1.2402 -2.2571 -0.6837
24981SOL    HW279629   3.628   8.460   7.952 -1.0084  1.0822  0.0168
24982SOL     OW79630   7.524   5.316  10.206 -0.7156 -0.2460  0.3683
24982SOL    HW179631   7.496   5.231  10.239 -0.6755 -1.3424 -2.1602
24982SOL    HW279632   7.455   5.343  10.146  0.8199 -0.1911 -1.4799
24983SOL     OW79633   4.522  11.251   5.763 -0.3096  0.1986 -0.5399
24983SOL    HW179634   4.586  11.319   5.786 -1.4887  1.6163 -1.2636
24983SOL    HW279635   4.516  11.256   5.667 -0.7184 -0.6579 -0.5660
24984SOL     OW79636   5.936  11.257   5.805  0.2200  0.7529 -0.0349
24984SOL    HW179637   5.954  11.293   5.892 -0.4830 -1.6581  1.2068
24984SOL    HW279638   5.841  11.264   5.795  0.4528  2.5708 -1.4043
24985SOL     OW79639   0.001  10.838   8.964  0.4358  0.0125  0.5055
24985SOL    HW179640  -0.092  10.827   8.945  0.4534 -0.7163  0.8105
24985SOL    HW279641   0.043  10.830   8.878  0.2031  0.6050  0.3297
24986SOL     OW79642   0.985   6.937   1.952  0.1484  0.1460 -0.3590
24986SOL    HW179643   0.989   7.032   1.962 -0.1147  0.0584  0.6071
24986SOL    HW279644   0.914   6.922   1.890 -0.9594  0.5058  0.8006
24987SOL     OW79645  10.284   1.993   6.467 -0.0319  0.6156  0.0368
24987SOL    HW179646  10.224   1.938   6.416  0.6985  0.0597 -0.2523
24987SOL    HW279647  10.260   1.976   6.558 -0.3343  0.4211 -0.0775
24988SOL     OW79648   9.654   6.807  11.120 -0.1332 -0.1481  0.0247
24988SOL    HW179649   9.668   6.899  11.099  0.8165 -0.4284 -0.6271
24988SOL    HW279650   9.663   6.802  11.215  1.1444  0.2316 -0.0536
24989SOL     OW79651  10.916   3.108   7.076  0.0545 -0.7087  0.0092
24989SOL    HW179652  10.997   3.059   7.063 -1.2766 -2.5745 -2.1771
24989SOL    HW279653  10.923   3.182   7.015  0.9259  0.3544  1.3437
24990SOL     OW79654   5.427   8.620   0.755  0.4184  0.8334 -0.0460
24990SOL    HW179655   5.424   8.562   0.678  1.8611  0.4267  0.1801
24990SOL    HW279656   5.391   8.567   0.826  2.0303  0.0486  0.2315
24991SOL     OW79657   2.896   1.434   8.722 -0.3648  0.1619 -0.2880
24991SOL    HW179658   2.987   1.457   8.744 -0.1813 -0.3746 -0.4737
24991SOL    HW279659   2.883   1.468   8.634  0.6204 -2.2576 -1.4893
24992SOL     OW79660   1.907   5.302   4.821 -0.2287  0.3663 -0.5599
24992SOL    HW179661   1.813   5.289   4.824 -0.3212  1.0253 -0.5720
24992SOL    HW279662   1.919   5.396   4.828  0.4307  0.2859 -0.5349
24993SOL     OW79663  10.356  10.669   4.436 -0.0720 -0.2873  0.1385
24993SOL    HW179664  10.397  10.668   4.350 -1.0835  1.8404 -0.4416
24993SOL    HW279665  10.414  10.615   4.491  1.6263 -0.1450 -1.4085
24994SOL     OW79666  11.971  11.007   7.645  0.2081 -0.5085 -0.1603
24994SOL    HW179667  11.889  11.045   7.614 -0.7551 -1.6411  0.9245
24994SOL    HW279668  11.967  11.015   7.740  1.1314 -1.0380 -0.0628
24995SOL     OW79669  11.985   2.220   4.840 -0.2241 -0.0713  0.1917
24995SOL    HW179670  11.891   2.232   4.829 -0.1822 -0.8125 -1.3019
24995SOL    HW279671  12.018   2.307   4.863 -1.1977  0.3252  0.1232
24996SOL     OW79672   7.016   6.134   0.979 -0.6733  0.4781  0.1135
24996SOL    HW179673   7.097   6.185   0.973 -1.8406  2.4877  0.5276
24996SOL    HW279674   7.043   6.044   0.961  1.5857  1.1343 -0.0912
24997SOL     OW79675   8.863   0.211   5.540  0.4852 -0.1850 -0.2795
24997SOL    HW179676   8.830   0.125   5.514 -2.1940  0.7604 -0.2700
24997SOL    HW279677   8.901   0.198   5.627  0.7982 -1.4749 -0.5979
24998SOL     OW79678  10.985   6.649   9.158 -0.4125 -0.2122  0.5158
24998SOL    HW179679  10.944   6.591   9.223 -0.5964 -0.2810  0.3399
24998SOL    HW279680  10.917   6.662   9.091 -0.1709 -0.2766  0.2539
24999SOL     OW79681   0.304   2.027   8.394  0.0066  0.5870 -0.4071
24999SOL    HW179682   0.373   2.094   8.390 -0.2469  0.8400 -0.5963
24999SOL    HW279683   0.340   1.958   8.449 -0.0262  1.2246  0.4273
25000SOL     OW79684   4.597   0.306   4.881  0.1534  0.2720 -0.2180
25000SOL    HW179685   4.663   0.373   4.893  0.0983  0.0958  1.3233
25000SOL    HW279686   4.536   0.343   4.818  0.7086  1.2164 -0.2156
25001SOL     OW79687  11.605  11.161   4.993 -0.0342 -0.3991 -0.0330
25001SOL    HW179688  11.555  11.212   4.930 -1.5796 -1.7401  0.0473
25001SOL    HW279689  11.611  11.217   5.071 -2.2261 -0.5017  0.2813
25002SOL     OW79690   9.196   7.883   6.392  0.2909  0.1337 -0.7006
25002SOL    HW179691   9.227   7.859   6.479  0.1453  0.4803 -0.5496
25002SOL    HW279692   9.247   7.961   6.369 -0.8622  1.0714 -0.1968
25003SOL     OW79693   9.591   2.624   8.634  0.0294  0.2820 -0.6148
25003SOL    HW179694   9.592   2.706   8.684  1.5865 -1.0513  1.7762
25003SOL    HW279695   9.515   2.577   8.668  1.0694 -0.6144  0.5523
25004SOL     OW79696   4.332   0.387   8.852  0.4784 -0.0161  0.2857
25004SOL    HW179697   4.247   0.359   8.887  0.8778  0.0026  1.3137
25004SOL    HW279698   4.375   0.306   8.826  1.2891 -0.3522  2.4676
25005SOL     OW79699   8.907   8.080   8.078 -0.2486  0.2802 -0.0786
25005SOL    HW179700   8.954   8.069   7.995  1.3760 -0.3891  0.8885
25005SOL    HW279701   8.974   8.106   8.141 -0.8295 -2.0913  1.6748
25006SOL     OW79702   0.228   8.694   5.515  0.0625  0.1079 -0.1088
25006SOL    HW179703   0.224   8.657   5.603  0.3213 -1.5207 -0.7562
25006SOL    HW279704   0.300   8.649   5.472 -0.6128  0.2285 -1.4442
25007SOL     OW79705  10.272   7.699   4.479 -0.3155  0.1697 -0.0834
25007SOL    HW179706  10.271   7.757   4.556 -0.9151  1.7379 -1.2124
25007SOL    HW279707  10.363   7.669   4.473  0.1661  1.4896  0.2102
25008SOL     OW79708   5.405  10.526   4.563  0.4947  0.5613 -0.0483
25008SOL    HW179709   5.428  10.598   4.505  2.8054 -1.0963 -1.3448
25008SOL    HW279710   5.422  10.560   4.651  2.8302  1.2627 -0.6913
25009SOL     OW79711   6.930  11.544   3.939 -0.4732 -0.3536 -0.0366
25009SOL    HW179712   6.883  11.623   3.912  1.4072  0.7890 -0.1297
25009SOL    HW279713   6.946  11.497   3.857 -0.2264 -0.0281 -0.1797
25010SOL     OW79714   5.373   2.011   9.204  0.5699 -0.3152  0.3693
25010SOL    HW179715   5.341   2.047   9.121 -1.8649 -1.1107  0.8767
25010SOL    HW279716   5.350   2.078   9.269 -0.5309 -1.1081  0.8129
25011SOL     OW79717   8.125  10.151   8.470  0.1401  0.8348 -0.1634
25011SOL    HW179718   8.070  10.073   8.469 -0.9671  1.5955 -0.5401
25011SOL    HW279719   8.107  10.192   8.555  0.0708  1.1159 -0.3122
25012SOL     OW79720   9.753   3.916   0.420  0.4712 -0.2316  0.1122
25012SOL    HW179721   9.841   3.950   0.404  1.0150 -1.6285 -0.0589
25012SOL    HW279722   9.694   3.976   0.374  1.0571  2.2700  2.3582
25013SOL     OW79723   6.164   2.374   6.552  0.1810 -0.1571  0.0374
25013SOL    HW179724   6.251   2.384   6.514  0.1640  0.9362  0.2486
25013SOL    HW279725   6.117   2.452   6.525 -1.0416 -1.1558 -0.8141
25014SOL     OW79726   8.566   3.118   0.424  0.5497  0.0809  0.4726
25014SOL    HW179727   8.537   3.027   0.415 -0.6159  0.4587  0.1338
25014SOL    HW279728   8.625   3.131   0.351 -1.6884  0.4511 -1.3993
25015SOL     OW79729   4.252   2.479   4.999 -0.8452 -0.1698 -0.7138
25015SOL    HW179730   4.228   2.526   4.920 -0.6432  1.5715  0.2169
25015SOL    HW279731   4.234   2.540   5.070 -0.4152 -1.4512  0.5422
25016SOL     OW79732   3.254   2.354   7.110  0.3015  0.2683 -0.4538
25016SOL    HW179733   3.321   2.418   7.134  0.1134  0.4504 -0.4105
25016SOL    HW279734   3.295   2.269   7.126  1.2339  0.3261 -2.3084
25017SOL     OW79735   0.810   9.622   1.941  0.8810  0.1642  0.0499
25017SOL    HW179736   0.811   9.717   1.933  1.6648  0.1522 -0.0723
25017SOL    HW279737   0.783   9.605   2.031  1.7550  0.5271  0.3810
25018SOL     OW79738   9.000   0.270   1.331  0.0956 -0.1346  0.4713
25018SOL    HW179739   9.055   0.226   1.267 -0.1483  0.0445  0.1325
25018SOL    HW279740   9.057   0.286   1.406  0.2454 -0.8145  0.5047
25019SOL     OW79741   7.706   0.133   5.794  0.0574  0.0186 -0.3510
25019SOL    HW179742   7.714   0.043   5.827 -3.0125 -0.0013  0.6476
25019SOL    HW279743   7.737   0.128   5.704 -0.7381 -2.2658 -0.5777
25020SOL     OW79744   7.477   4.845   9.185 -0.3042 -0.4606 -0.3115
25020SOL    HW179745   7.539   4.901   9.231 -0.6323 -0.3056 -0.0531
25020SOL    HW279746   7.444   4.785   9.251  0.0075 -0.9357 -0.5764
25021SOL     OW79747   3.732   4.861   7.406 -0.3946 -0.2561  0.2530
25021SOL    HW179748   3.658   4.801   7.415  0.0369 -0.7057  0.8952
25021SOL    HW279749   3.721   4.899   7.319 -1.2370 -0.5014  0.2367
25022SOL     OW79750   4.775   6.172   4.816 -0.5084  0.3335 -0.4473
25022SOL    HW179751   4.753   6.249   4.868  1.5831  2.0660 -1.9597
25022SOL    HW279752   4.749   6.195   4.727  0.1251 -0.7342 -0.9283
25023SOL     OW79753   5.109   3.083   3.541 -0.2175 -0.5657  0.3681
25023SOL    HW179754   5.019   3.087   3.510 -0.7148  2.2589  1.8979
25023SOL    HW279755   5.157   3.141   3.482  0.3519 -1.0226  0.3717
25024SOL     OW79756   3.188   8.424   0.612 -0.0624  0.3978 -0.0260
25024SOL    HW179757   3.278   8.408   0.585  0.6626  1.1911  1.7487
25024SOL    HW279758   3.175   8.367   0.688 -0.1244  2.2419  1.3952
25025SOL     OW79759  10.145   8.671   6.577 -0.2252  0.6939  0.1994
25025SOL    HW179760  10.216   8.607   6.566  0.7412  1.8192 -0.3284
25025SOL    HW279761  10.128   8.671   6.671  0.9137  0.8285  0.4303
25026SOL     OW79762   7.962   5.538   9.950 -0.1959 -0.4143  0.0009
25026SOL    HW179763   7.876   5.506   9.977 -0.0381 -0.8498 -0.0039
25026SOL    HW279764   7.957   5.544   9.855 -0.4787  0.3293  0.0512
25027SOL     OW79765   5.734   1.847   0.454 -0.6112  0.8018  0.6158
25027SOL    HW179766   5.638   1.843   0.460 -0.6606  0.3409 -0.3119
25027SOL    HW279767   5.758   1.767   0.408  0.4190 -0.1531  2.6845
25028SOL     OW79768  11.917  11.945   6.617 -0.1700  0.2189 -0.0366
25028SOL    HW179769  11.904  12.029   6.572 -0.0552 -1.4622 -3.5992
25028SOL    HW279770  12.009  11.945   6.641  0.1175  0.7150 -1.0490
25029SOL     OW79771   5.695   1.081  10.107  0.5162 -0.0100  0.1907
25029SOL    HW179772   5.707   1.027  10.185  1.8257  0.7681  0.5446
25029SOL    HW279773   5.621   1.137  10.127  0.8132  0.1483  0.8644
25030SOL     OW79774   8.760   8.196   8.507 -0.9231  0.1854  0.2270
25030SOL    HW179775   8.853   8.202   8.532 -1.0639  0.6276  0.6583
25030SOL    HW279776   8.720   8.275   8.544 -1.6510 -0.4536  0.8360
25031SOL     OW79777   1.937   0.929   8.080  0.0039 -0.3800  0.1042
25031SOL    HW179778   1.896   0.997   8.027  0.2204 -0.2184  0.1405
25031SOL    HW279779   1.873   0.858   8.083 -0.1791 -0.2196 -0.0234
25032SOL     OW79780  10.266   2.075   2.952 -0.6927  0.9145  0.3651
25032SOL    HW179781  10.356   2.044   2.964 -1.4446 -1.2974  0.8531
25032SOL    HW279782  10.275   2.162   2.914  1.6434  0.7648  0.4339
25033SOL     OW79783  10.820   3.531   4.822  0.2315 -0.2075  0.0390
25033SOL    HW179784  10.871   3.451   4.809  0.4365  0.1881 -1.8835
25033SOL    HW279785  10.745   3.521   4.764 -2.3889 -1.0869  3.2776
25034SOL     OW79786   0.731   4.151  10.562 -0.5732 -0.1641  0.0412
25034SOL    HW179787   0.815   4.187  10.592  1.0486 -2.0449 -1.8847
25034SOL    HW279788   0.700   4.213  10.497  0.4990 -0.4813 -0.8184
25035SOL     OW79789  10.353   4.038   4.616  0.0483  0.1455  0.3285
25035SOL    HW179790  10.373   4.029   4.523 -1.4092 -1.3088  0.0957
25035SOL    HW279791  10.438   4.044   4.659  0.7424  2.2282 -1.1667
25036SOL     OW79792  11.112   4.681  10.288  0.4058  0.3018  0.5155
25036SOL    HW179793  11.089   4.710  10.377  0.7149 -1.7507  1.3294
25036SOL    HW279794  11.168   4.751  10.254 -0.0701  1.3418  1.7584
25037SOL     OW79795   9.844   3.659   3.970  0.3749  0.2860 -0.0558
25037SOL    HW179796   9.765   3.608   3.983 -0.4226  1.9127  2.2973
25037SOL    HW279797   9.819   3.729   3.909 -0.4320  1.4838  1.5718
25038SOL     OW79798   6.793   3.459   3.424 -0.3918  0.1992 -0.5232
25038SOL    HW179799   6.886   3.453   3.401 -0.3002  1.5367 -0.5817
25038SOL    HW279800   6.749   3.471   3.340 -0.2170  3.3977 -0.2632
25039SOL     OW79801   1.031   9.583   6.000  0.1367  0.0761 -0.0517
25039SOL    HW179802   1.079   9.546   6.074  1.2185 -0.0224 -0.7814
25039SOL    HW279803   1.062   9.674   5.994  0.3234 -0.0200 -0.6009
25040SOL     OW79804   8.523   1.438  11.633  0.3121 -0.2177  0.1826
25040SOL    HW179805   8.482   1.378  11.695  1.3059  0.4901  1.5851
25040SOL    HW279806   8.616   1.415  11.637  0.3346 -0.6146 -1.6047
25041SOL     OW79807   1.363   0.784   8.992 -0.5448 -0.4851 -0.7922
25041SOL    HW179808   1.445   0.804   9.036 -1.8293 -1.7346  2.5009
25041SOL    HW279809   1.334   0.867   8.954  1.1917  0.4336 -0.1730
25042SOL     OW79810   7.669   4.727   2.832 -0.4671 -0.3841 -0.0049
25042SOL    HW179811   7.744   4.680   2.869 -0.6908  0.6461  1.8879
25042SOL    HW279812   7.690   4.737   2.739  2.7979  1.6962  0.7759
25043SOL     OW79813   9.406   5.529   8.837  0.7169  0.2759 -0.1323
25043SOL    HW179814   9.348   5.456   8.856  0.6789  0.4276  0.3431
25043SOL    HW279815   9.465   5.534   8.913  1.0806  0.3852 -0.4157
25044SOL     OW79816   6.166   2.741   1.268  0.5342  0.0983 -0.1479
25044SOL    HW179817   6.259   2.761   1.281  0.3882  1.3654 -0.8487
25044SOL    HW279818   6.150   2.763   1.176 -0.7689  1.2569  0.3154
25045SOL     OW79819  11.952   3.724   2.126 -0.0210  0.1666 -0.0135
25045SOL    HW179820  12.026   3.778   2.098 -0.0067  0.8822  1.3279
25045SOL    HW279821  11.877   3.761   2.080  0.2204  0.3718 -0.2454
25046SOL     OW79822   1.858   6.847   7.043  0.2557  0.4774  0.4113
25046SOL    HW179823   1.846   6.763   7.086 -0.9560 -0.3448 -1.4554
25046SOL    HW279824   1.890   6.826   6.956 -1.9144  1.7879 -0.7828
25047SOL     OW79825   9.355   7.789   7.296  0.3592 -0.0187  0.3715
25047SOL    HW179826   9.369   7.713   7.240  2.0140  0.8831 -0.5317
25047SOL    HW279827   9.260   7.789   7.313 -0.0904 -0.7911 -1.7663
25048SOL     OW79828   1.849   2.833   4.859  0.3917  0.5959 -0.0391
25048SOL    HW179829   1.944   2.824   4.851  0.3565 -0.9337  0.8730
25048SOL    HW279830   1.818   2.839   4.769  1.2422 -0.3090 -0.4081
25049SOL     OW79831   8.042   9.786   1.083  0.1769 -0.0023  0.8839
25049SOL    HW179832   8.009   9.813   0.997 -0.4090 -0.9481  0.8000
25049SOL    HW279833   7.967   9.745   1.126  1.4991 -3.5797  0.1145
25050SOL     OW79834   9.180   2.912   9.995  0.3656  0.0586  0.3565
25050SOL    HW179835   9.165   3.007   9.993  0.0003  0.0055  0.5455
25050SOL    HW279836   9.093   2.874  10.006  0.3720 -0.3405 -0.7462
25051SOL     OW79837   8.683  11.111   0.029  0.1397  0.5558 -0.0226
25051SOL    HW179838   8.704  11.076   0.116 -0.6215 -0.2996 -0.1607
25051SOL    HW279839   8.757  11.167   0.007  0.9450 -0.2172  0.6372
25052SOL     OW79840  11.478   4.193   5.017  0.3862  0.0843  0.2071
25052SOL    HW179841  11.498   4.259   5.084  2.2735 -0.9579  0.7525
25052SOL    HW279842  11.447   4.118   5.067 -0.1964 -0.0050 -0.2814
25053SOL     OW79843   8.525   6.116  11.320  0.1897  0.4107 -0.3743
25053SOL    HW179844   8.550   6.036  11.273 -0.7146  0.0253 -0.2244
25053SOL    HW279845   8.453   6.153  11.268  0.1069  0.7253 -0.0355
25054SOL     OW79846   3.579  11.457   3.887 -0.4309  0.2019  0.2432
25054SOL    HW179847   3.560  11.542   3.926 -0.7237 -0.0781  0.7243
25054SOL    HW279848   3.511  11.399   3.921 -0.2035 -0.2388 -0.0359
25055SOL     OW79849  11.575  10.694   0.401 -0.3155 -0.2503 -0.0776
25055SOL    HW179850  11.656  10.713   0.353  1.1016  1.8353  2.8922
25055SOL    HW279851  11.546  10.610   0.365  1.8460  0.0533 -2.8938
25056SOL     OW79852   0.746   9.402   1.741  0.2737 -0.2635  0.3297
25056SOL    HW179853   0.650   9.404   1.739  0.2628 -0.3223  0.6872
25056SOL    HW279854   0.769   9.462   1.811  0.5715  1.3092 -1.0630
25057SOL     OW79855  11.599   3.569   2.655  0.8062  0.0003 -0.1400
25057SOL    HW179856  11.546   3.640   2.618  1.3022  0.3325 -0.2265
25057SOL    HW279857  11.597   3.501   2.588  0.5661  0.0510 -0.1850
25058SOL     OW79858   7.948  10.814   0.891 -0.6281 -0.4177 -0.2531
25058SOL    HW179859   7.858  10.785   0.900 -1.1576  0.8103 -1.2290
25058SOL    HW279860   7.958  10.884   0.957 -0.5032 -0.3084 -0.3856
25059SOL     OW79861   1.544  11.500   1.488 -1.0184 -0.7640 -0.0152
25059SOL    HW179862   1.611  11.491   1.556  1.1504 -0.3139 -1.9971
25059SOL    HW279863   1.592  11.498   1.406 -3.3441  0.6927 -1.5237
25060SOL     OW79864  11.333   3.854   5.960  0.5155 -0.3124 -0.2344
25060SOL    HW179865  11.303   3.818   6.043 -0.9293 -0.7800 -0.9168
25060SOL    HW279866  11.288   3.938   5.953  0.0557 -0.6002 -0.8577
25061SOL     OW79867   2.642   7.429   3.145 -0.3395  0.7292  0.1889
25061SOL    HW179868   2.693   7.510   3.144  0.8794  0.0293  1.5620
25061SOL    HW279869   2.611   7.420   3.235 -0.9371 -0.0429 -0.0770
25062SOL     OW79870   7.453   4.892   6.157 -0.8642  0.0310 -0.1783
25062SOL    HW179871   7.479   4.915   6.067  0.2256 -0.9715 -0.1468
25062SOL    HW279872   7.433   4.798   6.153  0.2023 -0.2649  0.8257
25063SOL     OW79873   0.719   2.481  10.278  0.5984 -0.3717 -0.5045
25063SOL    HW179874   0.769   2.470  10.197 -0.1824  0.5293 -1.1391
25063SOL    HW279875   0.679   2.568  10.269 -0.6805 -0.8644  0.1835
25064SOL     OW79876   3.992   2.459   3.191 -0.1230  0.0052  0.1651
25064SOL    HW179877   4.069   2.488   3.143  0.6838 -0.0076  1.4252
25064SOL    HW279878   3.998   2.363   3.190  0.5109  0.0277  1.2593
25065SOL     OW79879   1.015   9.766   9.399 -0.4079  0.6165 -0.0741
25065SOL    HW179880   0.947   9.703   9.377  0.7063 -0.4679 -0.5061
25065SOL    HW279881   0.970   9.851   9.400 -1.6620 -0.0186 -0.7769
25066SOL     OW79882  11.014   7.140   1.322  0.1869  0.2179 -0.2780
25066SOL    HW179883  11.080   7.191   1.367  1.4826 -0.9738 -0.7676
25066SOL    HW279884  11.062   7.068   1.282 -1.5585 -1.4636  0.4709
25067SOL     OW79885  10.212   6.862   9.769  0.2487  0.6034  0.2047
25067SOL    HW179886  10.150   6.902   9.829  1.3658  0.4725  1.5125
25067SOL    HW279887  10.174   6.777   9.748 -1.0406  1.3858 -0.7783
25068SOL     OW79888   5.197   9.185   9.017 -0.1440  0.1338  0.1451
25068SOL    HW179889   5.242   9.237   9.083  0.8325  1.1866 -1.2900
25068SOL    HW279890   5.107   9.217   9.019  0.5192  2.2167 -0.9650
25069SOL     OW79891   4.351  11.721   8.313  0.4211  0.1082  0.2989
25069SOL    HW179892   4.361  11.629   8.338  2.5969  0.0716 -0.4918
25069SOL    HW279893   4.278  11.721   8.251  1.1779 -1.2867 -0.6302
25070SOL     OW79894   5.384   9.912   9.241 -0.0985 -0.4986  0.0200
25070SOL    HW179895   5.396   9.822   9.273  0.8068 -0.3042  0.2397
25070SOL    HW279896   5.467   9.956   9.259 -0.0836  0.0363 -1.2539
25071SOL     OW79897   0.212   7.817   4.622  0.3213 -0.2399  0.5053
25071SOL    HW179898   0.208   7.806   4.527 -0.4884  1.2448  0.3359
25071SOL    HW279899   0.273   7.889   4.635 -1.1879  1.0266  0.9361
25072SOL     OW79900   6.024  10.119   9.907 -0.1270  0.7454  0.1227
25072SOL    HW179901   6.112  10.090   9.930 -0.7709 -0.4652  1.2194
25072SOL    HW279902   6.005  10.077   9.823 -0.1927 -0.2218  0.6024
25073SOL     OW79903   4.632   8.991   5.931  0.1173 -0.2686 -0.0603
25073SOL    HW179904   4.566   9.058   5.916 -0.7612 -1.6041 -2.8086
25073SOL    HW279905   4.585   8.919   5.974  0.2385 -0.4425 -0.2146
25074SOL     OW79906   1.631   0.260   3.293 -0.2395 -0.0574  0.1023
25074SOL    HW179907   1.588   0.252   3.208 -2.1233  0.2759  0.9537
25074SOL    HW279908   1.578   0.325   3.340 -0.1227 -1.2685  2.0169
25075SOL     OW79909  10.435  11.358   5.873  0.1744  0.0259 -0.2535
25075SOL    HW179910  10.451  11.428   5.936  1.6114  0.5217 -1.1410
25075SOL    HW279911  10.361  11.389   5.820  0.2979  0.5104 -0.1393
25076SOL     OW79912   6.937   3.126   7.390  0.3498 -0.2480  0.4987
25076SOL    HW179913   6.897   3.083   7.314  2.7480 -0.4097 -0.7788
25076SOL    HW279914   6.966   3.055   7.447  1.1230 -0.2590  0.1159
25077SOL     OW79915   5.145   2.670   3.623  0.0156 -0.6055  0.0516
25077SOL    HW179916   5.127   2.764   3.613 -0.1402 -0.5659  0.6599
25077SOL    HW279917   5.225   2.656   3.572  0.1101 -0.1134  0.0555
25078SOL     OW79918   0.878   1.739   4.314 -0.4340  0.4409 -0.1022
25078SOL    HW179919   0.822   1.744   4.391 -0.0438 -0.5205  0.2514
25078SOL    HW279920   0.866   1.650   4.280 -1.2132  1.0824 -1.6385
25079SOL     OW79921   8.835   1.896  11.004  0.1963 -0.3989 -0.8890
25079SOL    HW179922   8.777   1.820  10.992 -0.9582  0.1074  1.0558
25079SOL    HW279923   8.914   1.860  11.043 -0.7166 -0.5490  0.9293
25080SOL     OW79924   9.856  10.715   7.447  0.0115  0.2106  0.3270
25080SOL    HW179925   9.949  10.739   7.452 -0.2737  1.4854 -0.0365
25080SOL    HW279926   9.823  10.728   7.535  0.2999 -0.8365  0.6011
25081SOL     OW79927   7.974   7.158   0.402  0.5237 -0.5303  0.2709
25081SOL    HW179928   7.908   7.131   0.338 -2.0362  0.2985  2.3932
25081SOL    HW279929   8.016   7.076   0.430 -0.6571 -1.2548 -0.0369
25082SOL     OW79930   5.985   9.200   8.746 -0.4212 -0.0700  0.0413
25082SOL    HW179931   5.902   9.243   8.768 -1.1396 -1.8034  0.9294
25082SOL    HW279932   5.982   9.191   8.651 -0.8160  0.6969 -0.0341
25083SOL     OW79933  10.372   5.756   6.421 -0.1235  0.1065  0.2152
25083SOL    HW179934  10.304   5.730   6.359 -0.3558 -0.7011  0.8003
25083SOL    HW279935  10.445   5.783   6.365 -0.6681  0.3186 -0.4110
25084SOL     OW79936   9.757   5.983   9.725 -0.0560 -0.1629 -0.1682
25084SOL    HW179937   9.779   6.047   9.792  1.9360 -0.7188 -0.2218
25084SOL    HW279938   9.818   6.001   9.654  0.5010 -2.0299 -0.2235
25085SOL     OW79939   8.761   6.978   3.218 -0.2331 -0.0366  0.3477
25085SOL    HW179940   8.821   6.912   3.253 -1.1136 -1.9381 -1.5641
25085SOL    HW279941   8.811   7.022   3.149 -0.3585 -0.1796  0.1662
25086SOL     OW79942  10.597   3.063   9.424 -0.9492  0.4551 -0.0913
25086SOL    HW179943  10.650   3.133   9.462  1.2652 -1.0018 -0.3408
25086SOL    HW279944  10.557   3.019   9.499 -0.1383  0.3088  0.2642
25087SOL     OW79945   0.958   4.301   6.559  0.3890 -0.2358 -0.3684
25087SOL    HW179946   0.924   4.232   6.501  0.3677  1.5333 -2.5960
25087SOL    HW279947   0.913   4.381   6.530 -0.0794  0.6654  2.5591
25088SOL     OW79948   1.627   1.102   2.463  0.0534  0.0324 -0.2185
25088SOL    HW179949   1.601   1.168   2.527  1.2954  1.1262 -0.7978
25088SOL    HW279950   1.660   1.029   2.515  0.8003  0.8007  0.4096
25089SOL     OW79951   3.741   2.314   7.550  0.0325  0.8419  0.3787
25089SOL    HW179952   3.805   2.334   7.482  1.3295 -1.7769  0.7192
25089SOL    HW279953   3.791   2.313   7.632 -0.5543 -0.4674  0.7539
25090SOL     OW79954  10.767   6.835  11.645  0.0417 -0.3925 -0.8387
25090SOL    HW179955  10.787   6.814  11.736 -0.0107  0.8537 -0.5193
25090SOL    HW279956  10.817   6.772  11.593  0.4077 -0.8358  0.0443
25091SOL     OW79957   7.778  10.837  10.919  0.5799  0.8465  0.4907
25091SOL    HW179958   7.805  10.875  11.002 -0.4766 -0.0251  1.2681
25091SOL    HW279959   7.848  10.776  10.895  0.5613  0.5753  1.1163
25092SOL     OW79960   9.161   5.477   7.121  0.1514 -0.3848 -0.3898
25092SOL    HW179961   9.103   5.547   7.093 -1.5539 -1.5336  0.0835
25092SOL    HW279962   9.196   5.441   7.039  0.1300  0.2701 -0.6913
25093SOL     OW79963   1.561  11.312   9.871 -0.3456  0.1241 -0.1726
25093SOL    HW179964   1.493  11.261   9.828 -0.4670 -0.8263  1.0944
25093SOL    HW279965   1.602  11.251   9.933  2.7246  0.1744 -1.9582
25094SOL     OW79966   4.743   4.571  11.455 -0.0081 -0.0406  0.3343
25094SOL    HW179967   4.828   4.559  11.412 -0.4903  0.9001 -0.9427
25094SOL    HW279968   4.730   4.490  11.504 -0.0339 -1.8334 -2.4065
25095SOL     OW79969   7.437   4.970   1.076 -0.4033 -0.0678 -0.1642
25095SOL    HW179970   7.347   4.939   1.083  0.2372 -1.9429  0.5992
25095SOL    HW279971   7.487   4.912   1.135  1.0667  1.9311  0.6828
25096SOL     OW79972  11.167   3.890   2.418  0.3163  0.3221 -0.0804
25096SOL    HW179973  11.087   3.842   2.440  1.4425 -0.1615  3.6519
25096SOL    HW279974  11.215   3.831   2.359 -0.4366 -1.0594  0.6490
25097SOL     OW79975  11.935   6.767  11.798 -0.3463 -0.7487  0.4433
25097SOL    HW179976  11.944   6.861  11.812  0.1950 -0.9759  1.7345
25097SOL    HW279977  12.025   6.736  11.791 -0.5122 -1.2405  0.4908
25098SOL     OW79978   4.936   6.625  10.872 -0.0628 -0.1561  0.1092
25098SOL    HW179979   5.009   6.661  10.823  0.7813 -0.8406  0.8224
25098SOL    HW279980   4.975   6.593  10.953 -1.1797 -0.4133  0.5655
25099SOL     OW79981   8.765   0.518   5.657 -0.5867 -0.1961 -0.0297
25099SOL    HW179982   8.695   0.452   5.666 -0.9773  0.0875 -0.8643
25099SOL    HW279983   8.780   0.549   5.746 -3.0342  1.2687 -0.0332
25100SOL     OW79984   9.896  11.552   6.754 -0.1849 -0.4327 -0.3858
25100SOL    HW179985   9.820  11.508   6.793 -0.9192  0.2423 -1.0057
25100SOL    HW279986   9.859  11.602   6.681  1.0409 -1.1147 -1.5259
25101SOL     OW79987   1.375  11.757  11.754  0.3078  0.2891  0.5645
25101SOL    HW179988   1.338  11.817  11.819 -1.3543 -0.2265  0.1412
25101SOL    HW279989   1.468  11.781  11.749  0.2123  1.1351  2.2252
25102SOL     OW79990   1.193  11.873   6.627  0.1979  0.3760 -0.5585
25102SOL    HW179991   1.151  11.951   6.664 -0.5979 -0.0727 -0.4942
25102SOL    HW279992   1.210  11.895   6.536 -0.4615  0.4495 -0.6634
25103SOL     OW79993   0.672   3.566   3.484  0.0636 -0.7265  0.3087
25103SOL    HW179994   0.729   3.633   3.445 -0.4605 -1.5931 -2.0634
25103SOL    HW279995   0.692   3.486   3.436 -3.8184 -0.8687 -1.4138
25104SOL     OW79996   4.178   5.665   2.826 -0.4472 -0.4277  0.2321
25104SOL    HW179997   4.243   5.632   2.887  1.9439  2.3163 -0.5552
25104SOL    HW279998   4.110   5.705   2.881 -0.1563 -1.0844  1.0740
25105SOL     OW79999   5.735   5.092   9.217 -0.6884 -0.1973  0.1856
25105SOL    HW180000   5.717   5.175   9.261 -0.7110  0.6256 -1.2812
25105SOL    HW280001   5.649   5.051   9.208 -0.9626  0.5110 -0.7027
25106SOL     OW80002   4.454   6.256   3.124  0.9552  0.5360  0.9590
25106SOL    HW180003   4.541   6.246   3.085  1.1785 -1.4151  1.8695
25106SOL    HW280004   4.448   6.350   3.143  0.9639  1.5968 -3.2664
25107SOL     OW80005   1.784   6.728   4.734 -0.3741  0.5173  0.2579
25107SOL    HW180006   1.761   6.753   4.823  0.7467 -0.9136  0.9684
25107SOL    HW280007   1.879   6.716   4.735 -0.6522 -2.2851 -0.3905
25108SOL     OW80008   2.666  11.309   2.246  0.0389  0.0580  0.0975
25108SOL    HW180009   2.621  11.383   2.286  2.1311  1.0625  0.7605
25108SOL    HW280010   2.672  11.332   2.153  0.0056  0.3697  0.1713
25109SOL     OW80011   7.443   7.147   7.130  0.2735  0.2155  0.0655
25109SOL    HW180012   7.524   7.120   7.086  1.1386 -0.2908  1.8828
25109SOL    HW280013   7.472   7.200   7.204 -0.7220 -2.7681  2.8175
25110SOL     OW80014   9.953   6.860  10.919 -0.3595  0.1790  0.4616
25110SOL    HW180015   9.905   6.780  10.941 -2.4630  1.6953  1.7500
25110SOL    HW280016  10.024   6.863  10.983 -0.8600 -0.1840  1.0501
25111SOL     OW80017   2.319   3.346   7.112  0.0751 -0.2091 -0.2803
25111SOL    HW180018   2.387   3.296   7.068 -0.5103 -2.0781  0.7960
25111SOL    HW280019   2.366   3.405   7.171  0.7802  0.3692 -1.3865
25112SOL     OW80020  10.321   8.750   4.770 -0.2292 -0.2288  0.1017
25112SOL    HW180021  10.262   8.699   4.714 -0.5269  0.1120  0.0987
25112SOL    HW280022  10.323   8.836   4.729 -0.3574 -0.0102  0.5562
25113SOL     OW80023   3.806  10.259   1.515 -0.6546  0.2099  0.5274
25113SOL    HW180024   3.877  10.198   1.538 -1.3286 -0.5396  0.6499
25113SOL    HW280025   3.726  10.211   1.532 -1.2050  0.4622 -1.1097
25114SOL     OW80026   3.875   3.682   4.122  0.2427 -0.4305  0.5667
25114SOL    HW180027   3.847   3.629   4.047 -0.6657 -1.2062  1.4247
25114SOL    HW280028   3.967   3.700   4.105  0.4331 -1.8222 -0.0483
25115SOL     OW80029  11.697   0.903   8.997  0.0635  0.4021 -0.2169
25115SOL    HW180030  11.608   0.886   8.967 -1.4016  0.5442  3.5364
25115SOL    HW280031  11.741   0.819   8.990 -1.9396 -1.0053  2.3025
25116SOL     OW80032   5.484   2.917   8.971 -0.3259  0.4376  0.9339
25116SOL    HW180033   5.393   2.927   8.945 -0.4695  0.5998  1.4820
25116SOL    HW280034   5.502   2.823   8.962 -0.6293  0.3645  1.0813
25117SOL     OW80035  11.535   6.138   3.562 -0.1828 -0.1399  0.0040
25117SOL    HW180036  11.516   6.134   3.655  1.9091 -0.2451  0.4749
25117SOL    HW280037  11.551   6.047   3.537  0.3841  0.0047 -0.1790
25118SOL     OW80038   8.624   8.005   8.614  0.0985  0.2566  0.0838
25118SOL    HW180039   8.542   8.051   8.596  0.4953  1.8593  2.0255
25118SOL    HW280040   8.691   8.054   8.566  0.3136  0.8199  0.9381
25119SOL     OW80041   9.147   5.488   4.484 -0.2927 -0.2971  0.0043
25119SOL    HW180042   9.146   5.545   4.561  0.0474  1.4469 -1.2308
25119SOL    HW280043   9.226   5.514   4.436 -0.8071 -0.9336 -1.2271
25120SOL     OW80044   2.755   1.964   7.850 -0.0340 -0.0799 -0.8436
25120SOL    HW180045   2.721   1.955   7.938 -1.3549 -0.9377 -1.4133
25120SOL    HW280046   2.793   1.878   7.829  0.1169  0.0638 -1.1812
25121SOL     OW80047   8.781   2.084   3.016 -0.0783 -0.6656  0.5150
25121SOL    HW180048   8.722   2.014   2.986 -1.9434  0.1784  1.9950
25121SOL    HW280049   8.823   2.048   3.095  2.2686 -1.6338 -1.0587
25122SOL     OW80050   7.637  10.430   1.297 -0.4484  0.6898 -0.4135
25122SOL    HW180051   7.631  10.519   1.332 -1.5744 -0.5343  2.9204
25122SOL    HW280052   7.553  10.417   1.252 -0.2652  1.2909 -0.9505
25123SOL     OW80053   2.604   9.593   1.124  0.3911 -0.0624 -0.3047
25123SOL    HW180054   2.518   9.578   1.083  0.3945 -2.0799  0.2922
25123SOL    HW280055   2.630   9.680   1.095 -1.6514  0.4056 -0.8826
25124SOL     OW80056   9.512  11.399   9.513  0.0426  0.0812  0.4178
25124SOL    HW180057   9.439  11.377   9.455  0.0085 -0.7450  0.7501
25124SOL    HW280058   9.564  11.463   9.464  0.6171 -1.3954 -0.9800
25125SOL     OW80059   8.060   7.957  11.922 -0.1632 -0.1262  0.0489
25125SOL    HW180060   8.095   7.959  12.012 -1.2485  0.6259  0.4675
25125SOL    HW280061   8.045   7.864  11.905  0.7769 -0.3512  0.3416
25126SOL     OW80062   9.269   2.149  11.296 -0.3634 -0.1781 -0.5675
25126SOL    HW180063   9.276   2.055  11.281 -2.1442 -0.3099 -0.8875
25126SOL    HW280064   9.285   2.188  11.210 -1.4203 -0.3343 -0.8533
25127SOL     OW80065   4.100   7.861   2.178  0.1203  0.3984  0.5470
25127SOL    HW180066   4.110   7.919   2.102  0.7146  0.6053  0.7850
25127SOL    HW280067   4.173   7.882   2.235  0.2898 -0.5127  0.6890
25128SOL     OW80068   3.283   1.656   9.710 -0.0622 -0.2515  0.5577
25128SOL    HW180069   3.374   1.683   9.695 -0.1921  0.2171  0.6152
25128SOL    HW280070   3.280   1.636   9.804 -0.3075  0.8633  0.8015
25129SOL     OW80071   9.000   6.543   8.630 -0.1189 -0.1816 -0.4066
25129SOL    HW180072   9.078   6.573   8.583  0.8827 -1.3074  0.4663
25129SOL    HW280073   8.982   6.612   8.694  0.3767 -0.0855 -0.3685
25130SOL     OW80074   4.169   4.762  10.779  0.2072 -0.6028 -0.9273
25130SOL    HW180075   4.124   4.702  10.719 -0.3309  0.2542 -1.4016
25130SOL    HW280076   4.098   4.800  10.832  0.1946  1.4606 -2.3025
25131SOL     OW80077   7.672   2.612   1.765 -0.1373 -0.2063 -0.3210
25131SOL    HW180078   7.682   2.664   1.686  0.5298 -1.1326 -0.8690
25131SOL    HW280079   7.755   2.624   1.812 -0.9865  1.3082  0.8604
25132SOL     OW80080   3.927   0.798   4.884 -0.7112 -0.4323  0.4650
25132SOL    HW180081   3.984   0.741   4.832  0.3574  1.2899 -0.3363
25132SOL    HW280082   3.838   0.773   4.857 -0.2237 -0.5569 -1.1481
25133SOL     OW80083   4.640   3.126   4.823 -0.0084 -0.3931  0.0050
25133SOL    HW180084   4.557   3.102   4.862  0.6883  1.1373  2.7034
25133SOL    HW280085   4.618   3.154   4.734 -2.1359 -1.3283  0.1913
25134SOL     OW80086   5.787   8.724   9.951 -0.0891  0.5444 -0.4326
25134SOL    HW180087   5.778   8.737  10.046 -0.5494 -0.8487 -0.2525
25134SOL    HW280088   5.863   8.666   9.943 -0.2175  0.4430 -0.9004
25135SOL     OW80089   1.329  11.306   8.340 -0.0223  0.1029 -0.3976
25135SOL    HW180090   1.379  11.238   8.385 -0.1143 -0.8444 -1.6847
25135SOL    HW280091   1.346  11.386   8.390  1.1753 -0.5947  0.3403
25136SOL     OW80092   8.053   4.178   5.666  0.1671 -0.5396  0.4281
25136SOL    HW180093   8.140   4.196   5.702  0.2225 -0.5349  0.2936
25136SOL    HW280094   8.065   4.098   5.614  0.1327 -0.4370  0.2612
25137SOL     OW80095   3.243   9.145   9.546 -0.4783 -0.0682  0.2389
25137SOL    HW180096   3.199   9.142   9.461 -2.2591  0.6586  1.0859
25137SOL    HW280097   3.197   9.213   9.594  1.1204  0.1781  1.4702
25138SOL     OW80098   3.453   5.183   7.172 -0.3776 -0.3627 -0.1760
25138SOL    HW180099   3.373   5.134   7.152  0.2403 -1.6619  0.4185
25138SOL    HW280100   3.476   5.155   7.261  1.0839 -0.4762 -0.5782
25139SOL     OW80101   6.146   5.021   2.735 -0.0809 -0.3218  0.4411
25139SOL    HW180102   6.121   5.064   2.653  0.3993 -0.1149  0.3994
25139SOL    HW280103   6.123   4.929   2.722  0.1394 -0.3199  0.0097
25140SOL     OW80104   3.993  10.458   0.023 -0.0504 -0.4769  0.5448
25140SOL    HW180105   4.060  10.523   0.043 -0.9591  0.4505  0.5937
25140SOL    HW280106   3.919  10.508  -0.011 -0.5885 -1.5216  0.1204
25141SOL     OW80107   8.839   1.582  10.109  0.1748 -0.0648 -0.0190
25141SOL    HW180108   8.774   1.585  10.179  1.6595  0.1476  1.3944
25141SOL    HW280109   8.788   1.559  10.031 -1.4317 -0.9121  1.2167
25142SOL     OW80110   1.727   8.190   4.173 -0.0441 -0.0616 -0.3940
25142SOL    HW180111   1.816   8.220   4.190 -0.2226  0.4646 -0.3527
25142SOL    HW280112   1.734   8.095   4.165  0.2321 -0.2650  1.5943
25143SOL     OW80113  11.535   1.848   0.101 -0.1943  0.4408  0.5711
25143SOL    HW180114  11.585   1.908   0.047  0.7250  0.3340  1.2771
25143SOL    HW280115  11.601   1.799   0.150 -0.9938  0.6299  1.8903
25144SOL     OW80116   8.699   5.573   4.728  0.1193 -0.2330  0.2062
25144SOL    HW180117   8.698   5.653   4.675  1.6311 -0.2938  0.0298
25144SOL    HW280118   8.756   5.595   4.802 -1.1447 -0.4892  1.2845
25145SOL     OW80119   7.624   7.468   1.797  0.2121 -0.4876  0.0879
25145SOL    HW180120   7.609   7.523   1.875  0.1119  0.5319 -0.6334
25145SOL    HW280121   7.669   7.526   1.735  1.2309 -1.5973 -0.2365
25146SOL     OW80122   1.359   1.063   8.255 -0.2088 -0.1562  0.0657
25146SOL    HW180123   1.455   1.062   8.258 -0.1969  0.5390  0.1123
25146SOL    HW280124   1.336   0.998   8.189  0.1885 -2.1892  1.8208
25147SOL     OW80125   3.300   6.254   3.973 -0.1166 -0.0953  0.4303
25147SOL    HW180126   3.363   6.315   3.934  0.3706 -0.0689  1.2448
25147SOL    HW280127   3.252   6.219   3.898  1.0336 -0.3052 -0.2290
25148SOL     OW80128   8.636  10.795   2.770 -0.1218 -0.7219  0.2256
25148SOL    HW180129   8.650  10.781   2.677 -0.5876  0.3850 -0.0288
25148SOL    HW280130   8.546  10.828   2.776 -0.2264 -1.1290  1.1054
25149SOL     OW80131  11.754   9.392   7.146  0.4161 -1.1768  0.2589
25149SOL    HW180132  11.778   9.484   7.146  0.1993 -1.1085 -0.7561
25149SOL    HW280133  11.663   9.391   7.117 -0.5330 -1.5127  2.9946
25150SOL     OW80134   9.331   0.824   7.912  0.4720 -0.1135  0.6239
25150SOL    HW180135   9.331   0.912   7.950 -0.9930  1.2305 -2.1844
25150SOL    HW280136   9.424   0.799   7.912  1.1993  2.2712 -0.1877
25151SOL     OW80137   9.039  11.904   7.862  0.6977  0.1489  0.2615
25151SOL    HW180138   9.021  11.837   7.929 -2.0460  0.5785  0.0847
25151SOL    HW280139   8.993  11.872   7.784  0.2693  1.6871 -0.1446
25152SOL     OW80140   7.066   2.041   3.517  0.2174 -0.2542 -0.4185
25152SOL    HW180141   7.025   2.036   3.431  0.2239  1.4424 -0.5540
25152SOL    HW280142   7.152   1.999   3.505  0.1072 -0.2804 -1.1696
25153SOL     OW80143   8.444   7.172  10.874  0.0999 -0.4583 -0.6946
25153SOL    HW180144   8.358   7.131  10.870 -0.3929  0.5393 -0.4944
25153SOL    HW280145   8.495   7.114  10.932 -0.6473 -0.6715 -0.2336
25154SOL     OW80146   7.738   0.400   6.384 -0.4754 -0.6364  0.4211
25154SOL    HW180147   7.676   0.367   6.449 -1.5721  0.2816 -0.1302
25154SOL    HW280148   7.808   0.334   6.383 -0.9730 -1.2251  1.7204
25155SOL     OW80149   2.742   4.417   7.120  0.0747  0.3983  0.3217
25155SOL    HW180150   2.718   4.508   7.139 -1.0924 -0.2147  2.0242
25155SOL    HW280151   2.725   4.406   7.027  0.9119  2.0981 -0.0712
25156SOL     OW80152   7.201   1.488   3.279 -0.2148 -0.0931 -0.2042
25156SOL    HW180153   7.237   1.459   3.195  0.6770 -3.6615  1.2240
25156SOL    HW280154   7.138   1.420   3.302 -0.5715  0.8966  1.9698
25157SOL     OW80155  11.207   4.224  11.110 -0.0696 -0.2765 -0.0294
25157SOL    HW180156  11.145   4.291  11.140  1.1467  1.5649 -1.4745
25157SOL    HW280157  11.283   4.235  11.167  0.2904 -0.1384 -0.5309
25158SOL     OW80158   8.208  10.969   7.999  1.0611 -0.0171 -0.0614
25158SOL    HW180159   8.295  10.955   8.036  0.9613  1.8695  0.9977
25158SOL    HW280160   8.206  11.062   7.978 -1.6003  0.5854  2.3740
25159SOL     OW80161  11.693   8.052  10.947 -0.2575 -0.1425  0.3341
25159SOL    HW180162  11.782   8.085  10.949 -0.5156  0.6521 -0.4722
25159SOL    HW280163  11.668   8.057  10.854 -1.4874  0.6400  0.6823
25160SOL     OW80164   3.222   6.499   9.675  0.2057  0.6309  0.1023
25160SOL    HW180165   3.299   6.474   9.624  1.3234  1.6664  1.2425
25160SOL    HW280166   3.154   6.438   9.645  1.4195 -0.2555 -0.9881
25161SOL     OW80167   1.332   3.609   4.696  0.3525  0.2397 -0.1472
25161SOL    HW180168   1.288   3.524   4.688  1.9599 -0.6156 -0.2283
25161SOL    HW280169   1.319   3.633   4.788 -1.0737  0.4710 -0.3899
25162SOL     OW80170   7.330   8.346   5.353 -0.0209  0.2911  0.1437
25162SOL    HW180171   7.350   8.429   5.395 -2.1920  0.6115  0.6753
25162SOL    HW280172   7.332   8.282   5.424  2.8029 -0.3940 -0.4516
25163SOL     OW80173   7.134  10.485   3.621 -0.0132 -0.5050  0.2549
25163SOL    HW180174   7.176  10.523   3.544 -0.1312 -0.7359  0.0760
25163SOL    HW280175   7.150  10.391   3.613  2.5271 -0.3065  2.0365
25164SOL     OW80176   1.515  11.062  11.497 -0.1510 -0.1107  0.3222
25164SOL    HW180177   1.460  11.141  11.490  0.2285  0.2137  0.9047
25164SOL    HW280178   1.503  11.017  11.413  0.8077  1.3579 -0.6535
25165SOL     OW80179   1.264   9.227   6.274 -0.5292  0.2216 -0.1759
25165SOL    HW180180   1.355   9.224   6.245 -1.1750 -0.4551 -2.3603
25165SOL    HW280181   1.240   9.136   6.289 -0.8168  0.4047  0.5292
25166SOL     OW80182  10.045  10.446   1.974 -0.3105 -0.0418 -0.3010
25166SOL    HW180183  10.009  10.439   2.062 -1.1474 -0.5879 -0.6731
25166SOL    HW280184  10.100  10.368   1.964 -0.1651  0.0532 -0.2334
25167SOL     OW80185   4.914  11.672   1.377  0.0652 -0.4695 -0.0225
25167SOL    HW180186   4.886  11.715   1.297 -0.0569 -1.2752 -0.4225
25167SOL    HW280187   4.942  11.743   1.435 -0.1180  0.1324 -0.6713
25168SOL     OW80188   6.894  11.557   0.970  0.5258 -0.0865  0.5041
25168SOL    HW180189   6.981  11.560   0.932  1.0705 -0.2258  1.6882
25168SOL    HW280190   6.871  11.464   0.970 -0.0203  0.0316 -0.6334
25169SOL     OW80191   2.221   3.617   5.200  0.1996  0.1871 -0.2440
25169SOL    HW180192   2.228   3.667   5.282  0.9583  2.3540 -1.5377
25169SOL    HW280193   2.308   3.623   5.161  0.0355 -1.4119 -0.9259
25170SOL     OW80194   2.348  11.867   3.520  0.1772 -0.2251  0.1155
25170SOL    HW180195   2.405  11.819   3.579  0.3581 -0.1992 -0.0395
25170SOL    HW280196   2.269  11.813   3.514  0.8952 -1.1813 -1.1208
25171SOL     OW80197   2.155   0.786  11.134  0.2995  0.0469 -0.3455
25171SOL    HW180198   2.089   0.739  11.184  0.8214 -0.8461 -0.4798
25171SOL    HW280199   2.196   0.845  11.198  1.4500 -1.5809  0.5058
25172SOL     OW80200   1.004   0.361   2.276 -0.1541  0.3036 -0.7290
25172SOL    HW180201   1.049   0.367   2.360 -1.8955  0.0394  0.2595
25172SOL    HW280202   1.036   0.436   2.226  4.3824 -1.8897 -1.6928
25173SOL     OW80203   6.181   2.537   2.116  0.0642  0.6574  0.7537
25173SOL    HW180204   6.206   2.446   2.131 -0.0931  0.9092  2.7284
25173SOL    HW280205   6.087   2.534   2.098 -0.3372  0.5725  2.6967
25174SOL     OW80206   0.062   3.064   1.615 -0.2353  0.0121 -0.2506
25174SOL    HW180207   0.084   2.983   1.568  1.0928  1.8749 -3.1265
25174SOL    HW280208   0.140   3.083   1.667 -0.6514 -0.6278  0.6421
25175SOL     OW80209  11.306   0.739   5.066 -0.1291  0.1849 -0.0470
25175SOL    HW180210  11.252   0.767   4.993  0.3938  0.9115 -0.1584
25175SOL    HW280211  11.270   0.654   5.091  0.7395 -0.9020 -2.2428
25176SOL     OW80212   5.259   9.506   0.901 -0.3179 -0.3116 -0.3096
25176SOL    HW180213   5.252   9.597   0.872 -2.0755 -0.5119 -0.6327
25176SOL    HW280214   5.280   9.457   0.822  1.2612 -0.1436 -0.0227
25177SOL     OW80215  10.123   5.723   3.606 -0.1414 -0.1365 -0.3685
25177SOL    HW180216  10.153   5.814   3.601  0.0604 -0.1487  0.5160
25177SOL    HW280217  10.064   5.720   3.681  0.3656 -0.8729  0.0210
25178SOL     OW80218  10.417  10.520   2.821  0.0336  0.4794 -0.0108
25178SOL    HW180219  10.369  10.547   2.743 -0.1074  1.2061  0.3245
25178SOL    HW280220  10.422  10.598   2.876 -0.0579 -0.0666  0.8117
25179SOL     OW80221   7.313  11.785   8.814  0.4297  0.3121 -0.0932
25179SOL    HW180222   7.253  11.712   8.805  0.3555  0.3128  0.3420
25179SOL    HW280223   7.398  11.744   8.831 -0.0543  0.2865  2.9243
25180SOL     OW80224   3.277   1.672   8.042  0.2457  0.4965 -0.5381
25180SOL    HW180225   3.349   1.692   7.982 -0.0892  1.6774 -0.5712
25180SOL    HW280226   3.198   1.677   7.988  0.1551 -1.5122 -0.6717
25181SOL     OW80227   5.753   0.649   5.571 -0.5016  0.0186 -1.2214
25181SOL    HW180228   5.696   0.702   5.628  0.3759  1.1487 -1.3459
25181SOL    HW280229   5.720   0.666   5.483  0.6210  1.5205 -1.3984
25182SOL     OW80230  11.966   1.988   4.175 -0.1510  0.7086  0.2387
25182SOL    HW180231  11.873   2.004   4.193 -0.6360 -0.4755 -1.0208
25182SOL    HW280232  11.966   1.913   4.116  1.4757  2.1657 -1.7740
25183SOL     OW80233   7.142  11.410   0.465 -0.4958 -0.0178 -0.1028
25183SOL    HW180234   7.175  11.433   0.552  1.2589 -1.3694 -0.3438
25183SOL    HW280235   7.191  11.465   0.405 -0.0392 -0.6790 -0.3520
25184SOL     OW80236  10.124  10.015   7.461  0.6784  0.2289 -0.1809
25184SOL    HW180237  10.110   9.951   7.392  1.1995 -0.1164  0.0282
25184SOL    HW280238  10.131   9.964   7.541 -1.2886  0.7238  0.3437
25185SOL     OW80239  10.826   7.876  11.305 -0.1838 -0.2327 -0.7177
25185SOL    HW180240  10.868   7.938  11.245 -0.4291  1.5931  0.9099
25185SOL    HW280241  10.752   7.924  11.342 -0.4685 -1.5457  0.5034
25186SOL     OW80242   9.417   9.042   7.818 -0.0397  0.5177 -0.2008
25186SOL    HW180243   9.396   9.030   7.725  1.9372 -0.4617 -0.5881
25186SOL    HW280244   9.478   9.116   7.819 -0.3849  0.7987  0.3796
25187SOL     OW80245   0.037   5.503  11.012 -0.4195 -0.1696 -0.2541
25187SOL    HW180246   0.091   5.429  11.037 -0.2573  0.3184  0.9188
25187SOL    HW280247  -0.022   5.469  10.945  1.2709 -0.7369 -1.5000
25188SOL     OW80248   9.454   7.279   5.878  0.1274 -0.5503  0.4207
25188SOL    HW180249   9.509   7.200   5.880 -0.2054 -0.7855  0.4161
25188SOL    HW280250   9.493   7.337   5.944  0.1187 -0.8945  0.7371
25189SOL     OW80251   3.752   0.940   8.190 -0.4835 -0.0931  0.1633
25189SOL    HW180252   3.824   0.967   8.248  0.9263 -1.1310 -1.0183
25189SOL    HW280253   3.724   1.020   8.146 -0.5182  0.4344  1.1368
25190SOL     OW80254   1.809   0.431   6.306  0.2346 -0.0040  0.6203
25190SOL    HW180255   1.780   0.341   6.324  1.4888 -0.2580  1.4830
25190SOL    HW280256   1.797   0.441   6.212 -1.2061 -0.6022  0.7090
25191SOL     OW80257   4.280   0.555   9.692  0.1556  0.2100  0.5213
25191SOL    HW180258   4.202   0.600   9.661 -1.0485 -1.9722  0.1579
25191SOL    HW280259   4.343   0.565   9.621 -1.7015 -2.5515 -1.7505
25192SOL     OW80260  10.214   5.514   2.436 -0.0916  0.1441  0.1690
25192SOL    HW180261  10.140   5.569   2.462  0.4157  0.9244  0.0009
25192SOL    HW280262  10.288   5.574   2.433  0.7473 -0.7990  1.2289
25193SOL     OW80263  10.046   5.205   2.052  0.0663 -0.7176 -0.2662
25193SOL    HW180264  10.048   5.281   2.110 -0.3934 -0.6767 -0.2987
25193SOL    HW280265  10.068   5.131   2.109  1.6849 -0.4182 -0.4800
25194SOL     OW80266   3.284   5.091   9.783 -0.7246 -0.1802 -1.1585
25194SOL    HW180267   3.274   5.018   9.844  0.7305  0.7940  0.3520
25194SOL    HW280268   3.304   5.050   9.699  2.2793 -1.5563  0.1001
25195SOL     OW80269  10.590   3.990   6.952 -0.7267 -0.4592 -0.4628
25195SOL    HW180270  10.594   4.078   6.914  0.4450 -0.1807  0.2665
25195SOL    HW280271  10.670   3.948   6.922 -0.4027 -0.6618  0.6604
25196SOL     OW80272   8.563   9.587   1.211 -0.2448 -0.1660 -0.4905
25196SOL    HW180273   8.511   9.518   1.252  0.1582 -0.2393 -0.0900
25196SOL    HW280274   8.606   9.631   1.284 -0.2970  0.3414 -0.7652
25197SOL     OW80275   7.845   5.581  10.452  0.0446  0.4577  0.1698
25197SOL    HW180276   7.844   5.608  10.544 -1.7469  1.6339 -0.1486
25197SOL    HW280277   7.785   5.506  10.449  0.0933  0.4274 -0.0328
25198SOL     OW80278   0.157   9.416   8.438  0.3173 -0.2365  0.0699
25198SOL    HW180279   0.194   9.374   8.360 -0.3611 -0.5530 -0.0873
25198SOL    HW280280   0.080   9.462   8.405  1.2825  1.5183  0.1591
25199SOL     OW80281   7.076   3.593   3.082 -0.2353  0.4014 -0.8423
25199SOL    HW180282   7.128   3.514   3.087 -2.3126 -1.1646 -2.1257
25199SOL    HW280283   7.067   3.622   3.173  1.7608  0.0479 -0.4888
25200SOL     OW80284   7.075   3.652  10.373  0.8206  0.3907 -0.3668
25200SOL    HW180285   7.058   3.599  10.451  0.8148  1.1237  0.1454
25200SOL    HW280286   7.045   3.740  10.397  2.0868  0.9412 -0.6803
25201SOL     OW80287   2.218   0.014   4.091  0.0601 -0.3919  0.0582
25201SOL    HW180288   2.195   0.034   4.000 -0.4577 -0.1404  0.2372
25201SOL    HW280289   2.168   0.078   4.142  1.2146  0.2117  0.4720
25202SOL     OW80290  10.523   8.874   8.753 -0.0293  0.9116  0.0676
25202SOL    HW180291  10.561   8.946   8.804  0.5741  0.6045  0.0580
25202SOL    HW280292  10.577   8.869   8.674  1.0293 -0.6450  0.8311
25203SOL     OW80293   7.999   5.744   3.710  0.3989  0.6003 -0.5039
25203SOL    HW180294   7.993   5.832   3.672 -1.6631  0.4977 -0.5409
25203SOL    HW280295   7.925   5.739   3.770  0.7364 -0.9734 -0.1721
25204SOL     OW80296   2.991   6.269   9.997  0.3175  0.1669  0.0331
25204SOL    HW180297   2.978   6.208  10.070 -0.1593  1.5486  1.1437
25204SOL    HW280298   2.938   6.233   9.926 -0.8762 -0.1389  1.0367
25205SOL     OW80299  10.579   1.912   5.525 -0.1093  0.1407  0.7671
25205SOL    HW180300  10.597   1.868   5.608  0.2891 -1.5104 -0.1531
25205SOL    HW280301  10.487   1.940   5.533  0.4801  1.7771  2.4899
25206SOL     OW80302   0.536   8.539  10.295  0.8067 -0.1497 -0.0242
25206SOL    HW180303   0.536   8.635  10.297 -0.6411 -0.1492  1.9736
25206SOL    HW280304   0.444   8.514  10.298  1.1209 -1.6507 -1.1238
25207SOL     OW80305  10.632  10.393   4.850 -0.2861 -0.5257  0.2067
25207SOL    HW180306  10.546  10.414   4.814  0.5485 -1.2829 -2.4693
25207SOL    HW280307  10.619  10.310   4.897 -1.2724  0.1187  1.1174
25208SOL     OW80308   8.069   1.532   9.501 -0.6107 -0.4845 -0.1178
25208SOL    HW180309   8.074   1.537   9.597 -2.7327  1.9653 -0.0069
25208SOL    HW280310   7.999   1.469   9.483  1.0197 -2.3720 -0.2088
25209SOL     OW80311   9.836   2.697   0.093  0.3673  0.4741 -0.0514
25209SOL    HW180312   9.911   2.637   0.096  1.2974  1.6286  0.3912
25209SOL    HW280313   9.836   2.740   0.178  1.2572  2.9067 -1.2013
25210SOL     OW80314   7.191   5.009   5.811 -0.4074 -0.0479  0.5976
25210SOL    HW180315   7.216   4.924   5.775 -0.8141 -1.2769  3.0280
25210SOL    HW280316   7.142   4.988   5.890 -0.4290  2.4675  1.3342
25211SOL     OW80317   2.107   0.505   6.505 -0.0809  0.4824  0.5288
25211SOL    HW180318   2.077   0.543   6.422  2.4200 -0.5664 -1.0068
25211SOL    HW280319   2.030   0.464   6.543 -1.6114  2.2181 -0.5532
25212SOL     OW80320   4.977   5.559   8.542 -0.4262 -0.0586 -0.8013
25212SOL    HW180321   4.898   5.505   8.551 -0.3186 -0.0847  0.0351
25212SOL    HW280322   5.049   5.500   8.562 -0.3848  0.7170  1.6462
25213SOL     OW80323   2.807   6.171   6.660 -0.6667  0.6370  0.0800
25213SOL    HW180324   2.867   6.179   6.586 -0.3439  0.4969  0.3223
25213SOL    HW280325   2.769   6.084   6.652  1.2222 -0.3954  1.4319
25214SOL     OW80326   3.887   8.348   7.655 -0.0300 -0.1096  0.3112
25214SOL    HW180327   3.924   8.371   7.570 -1.2494 -0.6119 -0.3714
25214SOL    HW280328   3.950   8.286   7.692  0.4368 -0.0017 -0.2738
25215SOL     OW80329   7.768   2.499   6.996 -0.1455  0.2401  0.2302
25215SOL    HW180330   7.746   2.572   7.053 -0.8651 -0.9038  1.4827
25215SOL    HW280331   7.831   2.447   7.046  1.3918  0.6723 -1.1829
25216SOL     OW80332   2.860   6.327   4.665 -0.4068  0.1921 -0.1542
25216SOL    HW180333   2.935   6.322   4.605  0.9679  0.4701  1.4605
25216SOL    HW280334   2.828   6.417   4.655 -0.2311  0.2224 -0.4813
25217SOL     OW80335   6.721   3.275   9.142  0.2680  0.0943 -0.5329
25217SOL    HW180336   6.649   3.335   9.123 -0.8895 -0.3154  2.0315
25217SOL    HW280337   6.683   3.210   9.202  2.7403 -0.1386  0.9516
25218SOL     OW80338   9.603   3.327   9.234  0.2584  0.0691 -0.2643
25218SOL    HW180339   9.591   3.278   9.315 -0.2717  1.0025  0.2345
25218SOL    HW280340   9.685   3.293   9.197  0.3733 -0.5372  0.5258
25219SOL     OW80341   0.498  10.410   8.955  0.0645  0.1102  0.1087
25219SOL    HW180342   0.562  10.424   8.885 -2.3135  2.1492 -1.8513
25219SOL    HW280343   0.452  10.330   8.929 -0.9563  0.9795 -0.8493
25220SOL     OW80344  10.753   7.990   9.233 -0.4917 -0.0672  0.3933
25220SOL    HW180345  10.833   7.953   9.269 -0.6113 -0.4200  0.2979
25220SOL    HW280346  10.770   8.084   9.228 -0.2027 -0.1034  0.6694
25221SOL     OW80347   1.627   1.038   9.605  0.1057 -0.2542  1.2101
25221SOL    HW180348   1.578   1.119   9.613  0.8133  0.2033  1.0452
25221SOL    HW280349   1.614   1.011   9.514  0.8826  0.3546  0.9047
25222SOL     OW80350   9.349   5.100  11.810 -0.0467 -0.2426  0.2614
25222SOL    HW180351   9.307   5.122  11.727 -1.2009  0.4805  1.0084
25222SOL    HW280352   9.283   5.121  11.877  1.5076  0.9745  1.5048
25223SOL     OW80353   3.408   7.786   1.035  0.1034  0.0856 -0.4448
25223SOL    HW180354   3.317   7.754   1.028 -0.3232  1.2746 -0.5773
25223SOL    HW280355   3.418   7.844   0.959 -0.6408  3.7974  2.0134
25224SOL     OW80356   1.676   9.066   3.269  0.3865 -0.6857 -0.1973
25224SOL    HW180357   1.645   9.039   3.182 -1.1422 -0.1039  0.1342
25224SOL    HW280358   1.760   9.022   3.278  0.0919 -1.6229 -1.5442
25225SOL     OW80359   7.490   6.289   8.103 -0.0614  0.5419 -0.2361
25225SOL    HW180360   7.549   6.359   8.130  0.2464  1.3281 -2.6726
25225SOL    HW280361   7.530   6.209   8.136  0.6855  1.3243  0.8175
25226SOL     OW80362   8.380   6.741   4.807  0.4535 -0.2812  0.5193
25226SOL    HW180363   8.457   6.797   4.801  0.8945 -0.9862 -0.7082
25226SOL    HW280364   8.406   6.659   4.764 -1.1832 -0.2763 -0.5752
25227SOL     OW80365   5.574   6.516   6.721  0.1934 -0.5186 -0.3037
25227SOL    HW180366   5.536   6.454   6.783 -2.3246  1.5160  0.3900
25227SOL    HW280367   5.539   6.489   6.636 -1.1811  0.0487  0.0426
25228SOL     OW80368   9.345  10.228   9.883 -0.3018  0.0537 -0.4784
25228SOL    HW180369   9.253  10.247   9.904 -0.9084 -1.8950 -1.1441
25228SOL    HW280370   9.377  10.179   9.958  0.2798  0.9386 -0.1429
25229SOL     OW80371  10.604   2.304   0.233  0.3759 -0.1476  0.0472
25229SOL    HW180372  10.684   2.343   0.197  1.7387 -1.5297  1.4237
25229SOL    HW280373  10.542   2.307   0.161  1.5792  1.1717 -1.0040
25230SOL     OW80374  10.327   2.725   3.918 -0.0889  0.3219  0.2875
25230SOL    HW180375  10.278   2.649   3.949 -0.8744  0.8476  0.3506
25230SOL    HW280376  10.261   2.787   3.888  0.6204  0.1968 -1.6509
25231SOL     OW80377  11.995  11.515   7.711  0.4219 -0.2710 -0.3017
25231SOL    HW180378  12.082  11.526   7.751  0.1184  1.0453  0.0298
25231SOL    HW280379  11.948  11.595   7.733 -0.2833 -0.1739 -2.0183
25232SOL     OW80380   3.639   8.228   1.330  0.3368  0.1338 -0.2198
25232SOL    HW180381   3.621   8.155   1.390 -1.1644  0.9102  0.3146
25232SOL    HW280382   3.666   8.299   1.388  1.2874  0.1697 -0.6966
25233SOL     OW80383   5.696   7.853   2.376 -0.7659  0.0377  0.0575
25233SOL    HW180384   5.788   7.827   2.376 -0.4431  1.1000 -1.2496
25233SOL    HW280385   5.691   7.925   2.439 -0.6109  0.3121 -0.2468
25234SOL     OW80386   7.659   5.382  10.457  0.2149  0.3892 -0.0169
25234SOL    HW180387   7.632   5.310  10.514 -0.8580  1.0336  0.3203
25234SOL    HW280388   7.613   5.367  10.375 -0.3070  0.8720  0.1771
25235SOL     OW80389  10.158   5.029   4.868  0.1933 -0.8994 -0.0907
25235SOL    HW180390  10.153   5.096   4.936  2.0630 -1.8775  1.0692
25235SOL    HW280391  10.183   4.949   4.914  0.5053 -1.8313 -1.8008
25236SOL     OW80392   0.056   1.542   3.177  0.5618  0.6417 -0.2071
25236SOL    HW180393   0.024   1.453   3.186 -0.0084  0.8477 -0.1638
25236SOL    HW280394   0.151   1.533   3.167  0.5283  0.0464 -0.0004
25237SOL     OW80395   0.992  10.058   0.703 -0.0663  0.1809  0.6629
25237SOL    HW180396   0.938  10.133   0.726  0.0581  0.4090  0.2264
25237SOL    HW280397   1.052  10.049   0.777 -1.5921 -0.9494  1.8168
25238SOL     OW80398   9.623   6.815   9.948 -0.2035  0.1033  0.0550
25238SOL    HW180399   9.675   6.813   9.868 -0.6180 -1.5896 -0.1982
25238SOL    HW280400   9.535   6.840   9.919 -0.6607 -1.7087 -0.2508
25239SOL     OW80401  11.651   1.824   5.690 -0.0644  0.2034 -0.2705
25239SOL    HW180402  11.562   1.800   5.715  0.2865 -0.6463  0.1981
25239SOL    HW280403  11.674   1.897   5.748 -0.8734  1.2434 -1.2073
25240SOL     OW80404   3.364   3.064   9.733 -0.6531  0.3817 -0.0900
25240SOL    HW180405   3.338   3.097   9.647 -0.8115  0.0529 -0.1729
25240SOL    HW280406   3.322   3.123   9.795  0.7191  1.5515 -0.2362
25241SOL     OW80407   6.601   3.985   4.184 -0.2128 -0.3518 -0.0901
25241SOL    HW180408   6.541   4.021   4.118  1.2958 -0.3721 -1.5531
25241SOL    HW280409   6.676   4.045   4.183 -0.2658 -0.1801  1.8646
25242SOL     OW80410   2.041   5.214  10.771  0.3094  0.4196  0.3099
25242SOL    HW180411   2.085   5.130  10.783  0.0970  0.1435 -0.8064
25242SOL    HW280412   2.075   5.248  10.688 -1.2745  0.3723 -0.3882
25243SOL     OW80413   9.371   7.624  10.851 -0.1084  0.1691  0.1307
25243SOL    HW180414   9.351   7.547  10.903  1.2324 -0.0850  0.3153
25243SOL    HW280415   9.300   7.631  10.788  1.3516 -3.2059 -2.1509
25244SOL     OW80416   8.355  11.468   7.764  0.2700 -0.1936 -0.1278
25244SOL    HW180417   8.375  11.524   7.689 -1.0092 -0.3467 -0.6218
25244SOL    HW280418   8.285  11.514   7.810  0.2462 -0.6640  0.3109
25245SOL     OW80419   6.891   8.342   8.215 -0.2055  0.9152  0.8902
25245SOL    HW180420   6.951   8.298   8.274  0.0806  2.6944  2.0203
25245SOL    HW280421   6.887   8.432   8.248 -0.1405  1.9641 -1.7022
25246SOL     OW80422   8.778   7.378   3.409  0.6418 -0.3944  0.2324
25246SOL    HW180423   8.825   7.296   3.422  1.5839 -0.1225 -1.2140
25246SOL    HW280424   8.846   7.445   3.405  0.0904  0.1266 -0.9864
25247SOL     OW80425   5.186   2.188   2.381 -0.0241  0.1764  0.1149
25247SOL    HW180426   5.253   2.204   2.448  1.5847 -1.9429 -0.8826
25247SOL    HW280427   5.218   2.235   2.304 -0.8086  0.8815  0.1997
25248SOL     OW80428   1.714  11.044   7.244 -0.2439  0.0088  0.3865
25248SOL    HW180429   1.705  10.989   7.167 -0.7649  1.5153 -0.6651
25248SOL    HW280430   1.789  11.100   7.224 -1.2608  1.3881  0.3265
25249SOL     OW80431   6.161   9.959   6.431 -0.6797 -0.0894  0.3536
25249SOL    HW180432   6.215  10.036   6.452  1.9136 -2.0605  1.5255
25249SOL    HW280433   6.148   9.916   6.516 -0.5132 -1.8484 -0.4780
25250SOL     OW80434  11.372   5.885  10.290 -0.4775 -0.0970 -0.1642
25250SOL    HW180435  11.443   5.908  10.349 -2.2236  3.3039  0.8510
25250SOL    HW280436  11.378   5.790  10.281  1.7737 -0.3868  2.9919
25251SOL     OW80437   9.866  11.103   0.318  0.2910  0.2497 -0.2810
25251SOL    HW180438   9.878  11.189   0.359  1.7247 -0.1365  0.1712
25251SOL    HW280439   9.903  11.041   0.381 -1.3650 -0.7928 -0.2828
25252SOL     OW80440   3.950   4.805   0.484 -0.0721  0.2148  0.1282
25252SOL    HW180441   3.917   4.718   0.465 -2.3631  0.8340  0.9152
25252SOL    HW280442   3.888   4.864   0.442 -2.4913  1.5242  4.8585
25253SOL     OW80443   3.894   5.826  11.404  0.5161 -0.0029  0.0700
25253SOL    HW180444   3.871   5.755  11.344  0.2415  1.3271 -1.4687
25253SOL    HW280445   3.931   5.894  11.348  3.1357  0.1368  1.7982
25254SOL     OW80446   6.390  10.542  10.005 -0.5372  0.2225 -0.8056
25254SOL    HW180447   6.388  10.458   9.959 -2.3242 -0.8815  1.0683
25254SOL    HW280448   6.428  10.603   9.943 -0.0645 -1.7722 -2.5953
25255SOL     OW80449   8.034   5.812  11.004 -0.7208 -0.2935 -0.0723
25255SOL    HW180450   8.098   5.748  10.974 -0.3555  0.0629 -0.0599
25255SOL    HW280451   7.951   5.764  11.007 -0.1922 -1.1532  1.3427
25256SOL     OW80452   9.237   8.382  11.383  0.6981 -0.4221 -0.3654
25256SOL    HW180453   9.303   8.382  11.453  1.8736 -1.6878 -1.4050
25256SOL    HW280454   9.220   8.289  11.367 -1.5204 -0.1293 -0.0074
25257SOL     OW80455   9.247   4.525   9.303 -0.6296  0.2897 -0.2257
25257SOL    HW180456   9.202   4.488   9.379 -0.7559 -0.4106 -0.6328
25257SOL    HW280457   9.321   4.573   9.340 -0.0904 -0.8917  0.3020
25258SOL     OW80458   3.923   8.804   8.085 -0.2203  0.2235 -0.3850
25258SOL    HW180459   3.940   8.871   8.151 -1.8287 -0.4397  0.7733
25258SOL    HW280460   3.853   8.841   8.031  0.1222  0.1921 -0.8526
25259SOL     OW80461   8.997   6.800  10.878  0.6965  0.0223  0.3024
25259SOL    HW180462   9.015   6.854  10.802 -0.1365  0.6012  0.5034
25259SOL    HW280463   8.944   6.855  10.935  0.5920 -0.6972  0.9200
25260SOL     OW80464   3.485   2.829   8.046 -0.0933  0.6781 -0.4040
25260SOL    HW180465   3.556   2.778   8.083  1.8007  0.6224 -3.7282
25260SOL    HW280466   3.498   2.918   8.081  0.2610  0.2046  0.6977
25261SOL     OW80467   1.331   7.822   2.486  0.3824  0.0375 -0.2286
25261SOL    HW180468   1.264   7.884   2.459  0.3891  0.4130  0.5690
25261SOL    HW280469   1.396   7.876   2.532 -0.1071 -0.6881  1.3614
25262SOL     OW80470   5.404   2.155   6.820  0.2895 -0.2414  0.0119
25262SOL    HW180471   5.386   2.156   6.914  1.5879  1.0950  0.2899
25262SOL    HW280472   5.452   2.073   6.806  0.4524 -0.2534  0.6105
25263SOL     OW80473   3.062   0.799   4.829  0.3517 -1.0875  0.6081
25263SOL    HW180474   3.082   0.893   4.831  1.1567 -1.2379  0.1164
25263SOL    HW280475   3.101   0.764   4.909 -0.2255 -0.9556  0.9516
25264SOL     OW80476  11.190   0.104  11.656  0.5105  0.8270  0.5704
25264SOL    HW180477  11.244   0.074  11.729 -0.0942  0.7742  1.0033
25264SOL    HW280478  11.196   0.199  11.660  0.1465  0.8370  0.9476
25265SOL     OW80479   0.147   0.603   2.230 -0.0064  0.2351  0.0705
25265SOL    HW180480   0.150   0.677   2.292 -0.6529 -0.5071  1.0290
25265SOL    HW280481   0.125   0.528   2.285 -1.5723 -0.2856 -1.1990
25266SOL     OW80482   9.728  10.261  10.332 -0.3495 -0.8083 -0.4992
25266SOL    HW180483   9.650  10.254  10.387 -0.1807  0.6577 -0.0147
25266SOL    HW280484   9.743  10.172  10.299 -0.7179 -1.6502  1.4737
25267SOL     OW80485   2.054   4.481   3.698  0.5876  0.7657 -1.0176
25267SOL    HW180486   2.031   4.485   3.605 -0.2433  0.4744 -0.8330
25267SOL    HW280487   1.981   4.524   3.742  1.3838  1.6742 -0.5570
25268SOL     OW80488   2.216  11.593   9.121  0.3424  0.2624  0.3456
25268SOL    HW180489   2.151  11.617   9.187  0.2862 -0.6649  0.6458
25268SOL    HW280490   2.295  11.639   9.147  0.3019 -0.0375  1.0346
25269SOL     OW80491   4.746   9.760   7.834 -0.1059  0.2741 -0.4045
25269SOL    HW180492   4.652   9.748   7.818  0.0570 -0.0007 -1.1705
25269SOL    HW280493   4.786   9.678   7.804  0.4180  0.5205 -0.3798
25270SOL     OW80494   1.080   8.967   1.159 -0.6390 -0.3154 -0.9464
25270SOL    HW180495   1.125   8.901   1.211  0.6832  0.1016 -1.4939
25270SOL    HW280496   1.116   9.050   1.190 -1.5320  0.0884 -0.9597
25271SOL     OW80497  11.810   0.625   1.587 -0.0829 -0.5376  0.1640
25271SOL    HW180498  11.819   0.530   1.598  2.8087 -0.4656 -0.6457
25271SOL    HW280499  11.800   0.658   1.676 -0.3652 -1.5412  0.5204
25272SOL     OW80500   8.095   2.651  11.512  0.0960 -0.5588  0.1561
25272SOL    HW180501   8.103   2.558  11.493  0.1486 -0.6561  0.6461
25272SOL    HW280502   8.164   2.692  11.461 -0.1041 -0.7574 -0.2769
25273SOL     OW80503   8.165  11.719   0.655 -0.4353  0.0630  0.4110
25273SOL    HW180504   8.196  11.646   0.602  0.7562 -0.5979  1.9363
25273SOL    HW280505   8.156  11.683   0.743 -3.0138  0.9625  0.5840
25274SOL     OW80506  11.856   8.450   2.980  0.1909 -0.8489  0.4099
25274SOL    HW180507  11.767   8.417   2.982  0.1268 -0.6697  1.9187
25274SOL    HW280508  11.849   8.538   2.945 -0.0956 -1.1756 -0.3557
25275SOL     OW80509   9.130   6.460   1.936  0.7026  0.0985  0.2115
25275SOL    HW180510   9.144   6.496   2.024 -0.5206 -0.2610  0.5664
25275SOL    HW280511   9.055   6.401   1.946 -0.1023  0.8392 -1.2991
25276SOL     OW80512   1.838  11.785   8.494  0.5569 -0.2706  0.3093
25276SOL    HW180513   1.748  11.752   8.486  0.5531 -0.2283  0.1804
25276SOL    HW280514   1.828  11.876   8.520  0.5133  0.4449 -2.0204
25277SOL     OW80515   0.276   7.924   5.853  0.6936  0.0617 -0.1851
25277SOL    HW180516   0.210   7.894   5.915  2.9604  0.2229  2.5273
25277SOL    HW280517   0.267   7.865   5.778 -1.1919 -1.1595  0.9056
25278SOL     OW80518   7.287   3.842   2.680  0.3081 -0.7434  0.7238
25278SOL    HW180519   7.289   3.906   2.608  0.3612  1.0317  2.2311
25278SOL    HW280520   7.364   3.864   2.733  1.3190 -3.2130  0.3946
25279SOL     OW80521   6.185   4.301   3.909 -0.0594  0.1119  0.3022
25279SOL    HW180522   6.206   4.236   3.841 -0.7300  0.1910  0.0129
25279SOL    HW280523   6.191   4.252   3.991 -0.1137 -0.2063  0.1204
25280SOL     OW80524   1.945   0.806  11.895 -0.0376 -0.4020 -0.0988
25280SOL    HW180525   1.885   0.738  11.923  0.8498 -0.8290  0.8186
25280SOL    HW280526   2.018   0.759  11.855 -0.6148  0.1347 -1.8847
25281SOL     OW80527   1.045  10.340   2.378 -0.1305  0.6325 -0.6642
25281SOL    HW180528   1.120  10.393   2.404  0.0199  0.5015 -0.8235
25281SOL    HW280529   0.973  10.370   2.433  0.3000  0.0048  0.2632
25282SOL     OW80530  11.399   9.186   1.970 -0.2984 -0.2133  0.4154
25282SOL    HW180531  11.455   9.144   1.905 -1.9366  1.5627 -2.3527
25282SOL    HW280532  11.415   9.138   2.051  0.7877 -3.5363 -1.6015
25283SOL     OW80533   3.979   6.246   1.104 -0.2403 -0.2064 -0.0722
25283SOL    HW180534   4.050   6.187   1.129 -1.3069 -0.9727  1.2752
25283SOL    HW280535   4.011   6.333   1.127 -0.4591 -0.7153  2.4315
25284SOL     OW80536   5.879   4.889   6.873  0.0621 -0.2420 -0.1785
25284SOL    HW180537   5.965   4.931   6.882  0.0162 -0.1052 -0.3656
25284SOL    HW280538   5.884   4.812   6.930 -0.0232  0.2827  0.5628
25285SOL     OW80539   7.131  11.767   7.305  0.0190  0.5793 -0.3911
25285SOL    HW180540   7.081  11.686   7.313  0.9830  0.0349  0.3603
25285SOL    HW280541   7.105  11.819   7.381 -1.0948  1.2863 -1.2209
25286SOL     OW80542   0.203   5.721   8.238  0.2893  0.1387 -0.6535
25286SOL    HW180543   0.207   5.688   8.328 -0.9965  1.9281  0.1109
25286SOL    HW280544   0.293   5.743   8.216  0.5528  0.0902  0.3516
25287SOL     OW80545   9.562  10.721   0.700  0.1850 -0.6662  0.3494
25287SOL    HW180546   9.560  10.796   0.640  0.8037 -0.0357  1.0956
25287SOL    HW280547   9.609  10.753   0.777  2.1040 -2.3516 -0.0468
25288SOL     OW80548  11.847   9.567   5.222 -0.0768 -0.2948  0.2341
25288SOL    HW180549  11.820   9.647   5.177 -1.8897 -1.2381 -0.4837
25288SOL    HW280550  11.825   9.582   5.314  0.2107  0.2747  0.2107
25289SOL     OW80551   4.522  10.173   6.300 -0.2806 -0.2166  0.4924
25289SOL    HW180552   4.594  10.147   6.357  0.0107 -2.7020 -0.8903
25289SOL    HW280553   4.457  10.105   6.311 -2.1645  1.5862  1.1125
25290SOL     OW80554   8.626   5.741   6.305  0.0399 -0.1470  0.2327
25290SOL    HW180555   8.631   5.717   6.397  0.9610  1.3985  0.6185
25290SOL    HW280556   8.547   5.795   6.299 -1.1883 -1.9157 -0.3355
25291SOL     OW80557  10.426   1.132   2.634  0.0329 -0.3284 -0.2979
25291SOL    HW180558  10.449   1.140   2.541 -1.7039  1.0083 -0.6637
25291SOL    HW280559  10.478   1.057   2.665  0.5722 -0.8806 -2.3603
25292SOL     OW80560   4.573   8.584  11.789 -0.0532 -0.5027 -0.3936
25292SOL    HW180561   4.632   8.659  11.789  1.0584 -1.3438  0.9163
25292SOL    HW280562   4.498   8.613  11.736 -0.6923  2.3491  1.8416
25293SOL     OW80563   1.342   0.126   3.631 -0.6562 -0.1800  0.4737
25293SOL    HW180564   1.369   0.119   3.722  2.3918  0.2766 -0.2938
25293SOL    HW280565   1.417   0.094   3.581 -2.4848 -1.0654 -1.9013
25294SOL     OW80566   9.469   2.203   3.068 -0.1814  0.1252 -0.1369
25294SOL    HW180567   9.543   2.165   3.117 -1.4344  0.6194  2.3371
25294SOL    HW280568   9.473   2.297   3.088 -2.0626  0.0161  0.9781
25295SOL     OW80569   5.655   7.354   5.214 -0.7538  0.5217  0.2985
25295SOL    HW180570   5.590   7.311   5.158 -2.2449  2.5994  0.3249
25295SOL    HW280571   5.677   7.435   5.167  2.8311 -0.6065 -0.3373
25296SOL     OW80572   6.785   5.544   2.458 -0.0491  0.1424  0.5282
25296SOL    HW180573   6.780   5.479   2.388 -0.9416  1.1693 -0.4000
25296SOL    HW280574   6.767   5.495   2.538 -1.2194 -0.6670 -0.2078
25297SOL     OW80575  11.511   2.937   8.017 -0.8757  0.3265 -0.1614
25297SOL    HW180576  11.541   2.971   7.932  0.8801 -0.3490  0.1515
25297SOL    HW280577  11.425   2.898   7.998 -0.9045  0.9452 -1.4330
25298SOL     OW80578  10.611   4.900   8.130 -0.9797  0.9867  0.3801
25298SOL    HW180579  10.704   4.915   8.146 -0.9107  0.8306  0.1408
25298SOL    HW280580  10.597   4.937   8.042 -0.8208 -0.2623 -0.1895
25299SOL     OW80581   8.791   1.816   3.616 -0.1411 -0.2908  0.1176
25299SOL    HW180582   8.752   1.752   3.676 -2.7127  0.8366 -0.2083
25299SOL    HW280583   8.716   1.858   3.574  1.4689  2.1367 -0.5442
25300SOL     OW80584  11.048   8.165   3.693 -0.6855 -0.1954  0.1464
25300SOL    HW180585  11.114   8.141   3.627 -1.4868 -0.0611 -0.7172
25300SOL    HW280586  11.098   8.210   3.761  0.4547 -1.9459  0.5368
25301SOL     OW80587  11.262   5.362   5.266  0.7822  0.7164  0.2211
25301SOL    HW180588  11.345   5.407   5.281  0.8387  1.3493 -1.7919
25301SOL    HW280589  11.254   5.356   5.171  0.2103 -2.5511  0.3795
25302SOL     OW80590   2.300   0.108   0.131  0.3879 -0.4128  0.1931
25302SOL    HW180591   2.346   0.189   0.107  1.8938 -0.9071  1.3153
25302SOL    HW280592   2.347   0.039   0.085 -1.2406 -0.6552 -1.2211
25303SOL     OW80593   8.716   4.468  10.893  0.1882  0.5774  0.1576
25303SOL    HW180594   8.792   4.455  10.951  0.7894 -0.4368 -0.8221
25303SOL    HW280595   8.652   4.403  10.923 -1.0175  2.5218  2.0682
25304SOL     OW80596   7.489   9.143   5.765  0.3377 -0.0742 -0.1102
25304SOL    HW180597   7.502   9.128   5.858 -0.1346 -1.7830 -0.2730
25304SOL    HW280598   7.429   9.073   5.738 -1.0575  1.5042 -1.3246
25305SOL     OW80599   4.520   1.973   1.055 -0.0584 -0.0700 -0.4001
25305SOL    HW180600   4.466   1.894   1.062  0.4174 -0.5722 -1.9633
25305SOL    HW280601   4.598   1.953   1.107 -0.6216  0.0108  0.5045
25306SOL     OW80602  10.586  10.965   3.280 -0.1517 -0.1149 -0.0891
25306SOL    HW180603  10.662  11.017   3.308 -1.1325 -0.5975  4.2050
25306SOL    HW280604  10.511  11.021   3.298 -0.9912 -0.2530 -2.7853
25307SOL     OW80605   4.708   6.184   4.521 -0.4970 -0.8133  0.0986
25307SOL    HW180606   4.616   6.170   4.544 -0.6302 -0.1923 -0.0368
25307SOL    HW280607   4.705   6.249   4.450  0.1132  0.3238  1.0854
25308SOL     OW80608   8.176   7.519   0.050  0.2779  0.9987  0.0789
25308SOL    HW180609   8.202   7.527   0.142  0.1501  0.9956  0.1151
25308SOL    HW280610   8.188   7.427   0.030  1.6115  1.2240 -0.2967
25309SOL     OW80611   5.264  11.856  10.892 -0.2430  0.5271 -0.5870
25309SOL    HW180612   5.170  11.873  10.890 -0.1607  1.0974  0.0333
25309SOL    HW280613   5.278  11.807  10.973 -0.0081  0.4263 -0.6855
25310SOL     OW80614   0.305   1.723   5.622  0.5691 -1.0343 -0.2746
25310SOL    HW180615   0.215   1.739   5.593 -0.0505  1.0206  2.3288
25310SOL    HW280616   0.299   1.647   5.679  0.2348 -0.2322  0.7802
25311SOL     OW80617   6.932   9.473   5.625  0.0738  0.1480 -0.5839
25311SOL    HW180618   6.943   9.543   5.561 -1.2079 -0.0373 -1.0237
25311SOL    HW280619   6.844   9.487   5.661  0.8707  0.4666  1.4082
25312SOL     OW80620   8.015   3.926  10.599 -0.1412 -0.0284  0.1504
25312SOL    HW180621   8.000   3.845  10.550  0.6638 -0.1544  0.1089
25312SOL    HW280622   7.964   3.992  10.552 -1.6921 -0.7086  0.8104
25313SOL     OW80623  10.889   0.413   1.079 -0.3594  0.2953  0.0940
25313SOL    HW180624  10.843   0.331   1.058 -1.1253  0.7938 -0.2355
25313SOL    HW280625  10.820   0.473   1.105  0.0581  1.1745 -0.7456
25314SOL     OW80626   7.663  10.757   7.012 -0.0730 -0.4086  0.6044
25314SOL    HW180627   7.635  10.673   7.047  1.1994 -0.7638  0.8213
25314SOL    HW280628   7.603  10.820   7.050  1.7094 -0.6341  4.2496
25315SOL     OW80629   3.465   1.987   2.016  0.0472 -0.1833  0.8464
25315SOL    HW180630   3.418   1.916   1.972  0.6065  0.2917 -0.5411
25315SOL    HW280631   3.429   2.067   1.979  1.9719  0.2030 -0.3393
25316SOL     OW80632   9.307   5.510   6.674  0.0716  0.7240 -0.1545
25316SOL    HW180633   9.294   5.530   6.581 -0.5890  1.7542  0.1474
25316SOL    HW280634   9.369   5.437   6.674 -0.6261  0.1018 -1.4278
25317SOL     OW80635   0.300  11.022   5.119 -0.0280  1.0563 -0.1096
25317SOL    HW180636   0.262  10.938   5.093 -1.0231  1.2169  0.7391
25317SOL    HW280637   0.383  11.000   5.161 -0.4848  0.4549  0.4907
25318SOL     OW80638   1.865   6.876   7.533 -0.1267  0.1344  0.0551
25318SOL    HW180639   1.797   6.809   7.543 -0.5745  0.8757  2.8193
25318SOL    HW280640   1.937   6.846   7.589  0.3900  1.0688 -0.0948
25319SOL     OW80641   4.207   5.737   1.256 -0.7950 -0.2736 -0.2514
25319SOL    HW180642   4.175   5.679   1.325 -0.6869 -1.6611 -1.2990
25319SOL    HW280643   4.301   5.719   1.251 -0.3056  1.7099  0.9257
25320SOL     OW80644   5.111  10.203   3.576 -0.4449 -0.0401 -0.6904
25320SOL    HW180645   5.196  10.171   3.547  1.6587  2.8798  1.5263
25320SOL    HW280646   5.075  10.249   3.500  1.7212  1.6929 -0.7921
25321SOL     OW80647   9.574   1.074   3.220  0.2365 -0.0652  0.2117
25321SOL    HW180648   9.494   1.061   3.271  1.6140 -0.9119  2.3038
25321SOL    HW280649   9.618   1.147   3.263  1.6630 -1.1076  0.6072
25322SOL     OW80650   6.813   0.083   1.812 -0.1529 -0.0380  0.2991
25322SOL    HW180651   6.728   0.113   1.845  0.4165 -0.3779  2.2132
25322SOL    HW280652   6.852   0.161   1.772 -0.2192  0.9141  1.9547
25323SOL     OW80653   2.039  10.768  10.684  0.1113  0.0489  0.0262
25323SOL    HW180654   2.119  10.800  10.641  0.1966 -0.3400 -0.1009
25323SOL    HW280655   2.030  10.825  10.761 -0.5510  1.3632 -0.9879
25324SOL     OW80656   8.619   7.275   4.457 -0.8194 -0.8753 -0.9512
25324SOL    HW180657   8.599   7.195   4.505 -0.9751 -0.4710 -0.3305
25324SOL    HW280658   8.713   7.287   4.468 -0.9965 -0.2916  0.0460
25325SOL     OW80659  10.735   2.539   8.103  0.7209  0.1384  0.3089
25325SOL    HW180660  10.786   2.468   8.064  0.3186 -1.4460  2.4634
25325SOL    HW280661  10.769   2.548   8.192 -0.3570  1.5039  0.6233
25326SOL     OW80662   8.365   4.343   9.918 -0.4541 -0.2285 -0.3890
25326SOL    HW180663   8.374   4.248   9.908  0.8162 -0.3892  1.8137
25326SOL    HW280664   8.454   4.377   9.911 -0.6809  0.6014  0.4839
25327SOL     OW80665   2.113   2.823   5.098 -0.3848  0.2344  0.2255
25327SOL    HW180666   2.176   2.780   5.156 -0.3728  0.6023  0.4855
25327SOL    HW280667   2.036   2.768   5.101 -0.4416  0.3382  0.7184
25328SOL     OW80668   7.549   9.898  10.935 -0.1786 -0.2016  0.1385
25328SOL    HW180669   7.520   9.917  10.846  0.8942  2.1867  0.2392
25328SOL    HW280670   7.644   9.909  10.933 -0.4011  3.9435  2.3299
25329SOL     OW80671   2.933   8.672   4.173  0.2962 -0.1434 -0.1936
25329SOL    HW180672   2.977   8.588   4.162 -3.5404 -2.4056 -0.0137
25329SOL    HW280673   2.903   8.696   4.086 -0.7765 -0.2793  0.1300
25330SOL     OW80674   7.058   3.076   4.495 -0.4452 -0.0384 -0.3825
25330SOL    HW180675   7.087   2.992   4.532 -0.4781 -0.1941 -0.7043
25330SOL    HW280676   7.137   3.130   4.494 -0.4374 -0.0465 -0.1153
25331SOL     OW80677   7.973   3.819   5.967  0.4388  0.6292 -0.4002
25331SOL    HW180678   8.057   3.864   5.965 -0.0317  1.5721  0.0764
25331SOL    HW280679   7.909   3.889   5.983 -0.3956 -0.1101 -0.4189
25332SOL     OW80680   0.859   7.043   0.133  0.1188 -0.4763 -0.8531
25332SOL    HW180681   0.888   7.132   0.155  0.1602 -1.0513  1.7310
25332SOL    HW280682   0.889   7.030   0.043 -1.2371  2.6479 -1.9118
25333SOL     OW80683  11.059   4.209   8.802 -0.1817  0.0062  0.6650
25333SOL    HW180684  10.980   4.159   8.824  0.0001  0.0371  1.4433
25333SOL    HW280685  11.131   4.156   8.837  0.1784 -0.1947 -0.3590
25334SOL     OW80686   3.428   0.554   6.266  0.0813  0.6714  0.5564
25334SOL    HW180687   3.357   0.604   6.226  0.1908  0.6489  0.3325
25334SOL    HW280688   3.410   0.557   6.360  0.2960  1.4482  0.5742
25335SOL     OW80689  11.936   3.922  11.962  0.9179  0.3058  0.5397
25335SOL    HW180690  11.944   4.009  12.001 -0.0583  0.6076  0.0803
25335SOL    HW280691  11.980   3.864  12.025  1.3231  1.0783  0.9931
25336SOL     OW80692   5.463  11.759   0.106  0.2745 -0.5279  0.3797
25336SOL    HW180693   5.491  11.850   0.112 -1.1257 -0.0208 -0.1818
25336SOL    HW280694   5.515  11.722   0.034 -0.7792  0.5285 -0.9865
25337SOL     OW80695   1.005   2.161   0.878  0.3111 -0.0517 -0.0405
25337SOL    HW180696   1.078   2.112   0.917  1.1651  1.0755 -0.1954
25337SOL    HW280697   1.011   2.248   0.915  0.6817  0.8490 -2.0823
25338SOL     OW80698   1.123   3.076   0.533 -0.3982  0.0797 -0.4561
25338SOL    HW180699   1.074   3.155   0.555 -1.0163  0.0694 -1.7047
25338SOL    HW280700   1.212   3.106   0.517 -1.0920  0.9745 -3.2498
25339SOL     OW80701   9.136   7.221   0.052 -0.2266 -0.2208 -0.1084
25339SOL    HW180702   9.205   7.282   0.075 -0.9299  0.7456 -0.5120
25339SOL    HW280703   9.143   7.151   0.117 -0.3334  0.9983  1.2503
25340SOL     OW80704   7.024   4.359  10.587  0.1233 -0.0573  0.0544
25340SOL    HW180705   7.027   4.263  10.583  0.4039 -0.1408  1.5768
25340SOL    HW280706   6.966   4.378  10.660  0.3183  0.9314 -0.0365
25341SOL     OW80707   9.488   2.379   9.625  0.0583 -0.6227  0.2040
25341SOL    HW180708   9.442   2.326   9.691  2.6015 -1.3240  1.5266
25341SOL    HW280709   9.441   2.462   9.625 -0.9849 -1.1556  1.7687
25342SOL     OW80710   7.765   2.761  10.268  0.2672  0.1019 -0.1838
25342SOL    HW180711   7.850   2.771  10.224  0.5916  2.8244  0.8857
25342SOL    HW280712   7.709   2.828  10.229 -0.7120 -0.1862  0.6888
25343SOL     OW80713  11.269   2.980   5.131 -0.3968 -0.1256 -0.2193
25343SOL    HW180714  11.181   2.944   5.144  0.0699 -1.0314  0.5275
25343SOL    HW280715  11.289   3.023   5.214 -0.8698  1.7870 -1.0231
25344SOL     OW80716   8.232  11.023   0.715  0.1251  0.3535  0.7347
25344SOL    HW180717   8.310  11.074   0.693  0.4576 -0.8894 -1.1807
25344SOL    HW280718   8.163  11.088   0.729  0.9533  1.3833  0.1045
25345SOL     OW80719   3.474   4.224   7.494 -0.0445 -0.3710 -0.6480
25345SOL    HW180720   3.538   4.154   7.482  1.4002  0.8339 -0.2664
25345SOL    HW280721   3.512   4.279   7.563 -1.9487 -0.1237  0.2720
25346SOL     OW80722   2.894  10.205  11.647 -0.5409 -0.2761 -0.7540
25346SOL    HW180723   2.877  10.140  11.579  1.0415  0.9623 -2.4344
25346SOL    HW280724   2.810  10.248  11.661 -1.1640 -1.3829 -0.9956
25347SOL     OW80725  10.532   2.440  10.655 -0.6944 -0.3378 -0.0552
25347SOL    HW180726  10.498   2.441  10.565  0.1711 -1.3647 -0.4092
25347SOL    HW280727  10.531   2.347  10.680 -0.7333 -0.0848  0.9284
25348SOL     OW80728   4.543   7.608   8.120  0.2725 -0.3484  0.2876
25348SOL    HW180729   4.516   7.524   8.158 -1.9241  0.7370  1.3112
25348SOL    HW280730   4.461   7.647   8.087  1.4474  0.7867 -1.4822
25349SOL     OW80731   4.454   4.553  10.552 -0.3485  0.0272  0.3985
25349SOL    HW180732   4.436   4.459  10.556 -1.0949  0.1638  0.5153
25349SOL    HW280733   4.392   4.585  10.486  0.5633  0.2972 -0.3540
25350SOL     OW80734   1.742  11.241  10.245  0.2838  0.0219 -0.1058
25350SOL    HW180735   1.796  11.278  10.175  0.0648 -1.1254 -0.9235
25350SOL    HW280736   1.708  11.160  10.208 -0.1032 -0.4587  1.2318
25351SOL     OW80737   6.200   2.820   3.576 -0.4580 -0.2005 -0.1757
25351SOL    HW180738   6.240   2.889   3.629 -0.9947 -0.2283  0.2651
25351SOL    HW280739   6.111   2.812   3.609 -0.8483 -0.1294 -1.1724
25352SOL     OW80740   6.894   3.583   4.728 -0.3725 -0.0687 -0.3500
25352SOL    HW180741   6.973   3.579   4.673 -0.4946 -0.9369 -0.4748
25352SOL    HW280742   6.822   3.566   4.667 -0.5332 -0.7215  0.0194
25353SOL     OW80743   6.532  11.608   4.691  0.1709  0.3760 -0.5869
25353SOL    HW180744   6.626  11.611   4.711 -0.2522 -1.7413  2.2770
25353SOL    HW280745   6.525  11.549   4.616  1.0719 -0.0401 -0.3567
25354SOL     OW80746   0.155   5.351   0.352 -0.1819 -0.1105  0.0165
25354SOL    HW180747   0.189   5.284   0.411  0.4359  0.1391 -0.0444
25354SOL    HW280748   0.147   5.307   0.267 -2.5440 -0.9084  0.5827
25355SOL     OW80749  11.690   8.305  11.405  0.1353  0.0664  0.0206
25355SOL    HW180750  11.670   8.212  11.394 -2.6850  0.5865  0.0094
25355SOL    HW280751  11.692   8.340  11.317 -0.0593  0.2384  0.0841
25356SOL     OW80752   6.614   3.095   9.307 -0.0522  0.0599 -0.4025
25356SOL    HW180753   6.542   3.124   9.363 -0.9063 -0.3381 -1.2741
25356SOL    HW280754   6.636   3.008   9.341 -0.2581  0.0104 -0.3909
25357SOL     OW80755   2.057   5.382   7.147 -0.4343 -1.0779 -0.4249
25357SOL    HW180756   2.114   5.312   7.180 -0.0021 -1.0013 -0.9853
25357SOL    HW280757   2.033   5.432   7.224  0.0884 -1.2420 -0.1504
25358SOL     OW80758   6.082   1.635  11.835 -0.4046 -0.7837  0.0408
25358SOL    HW180759   6.103   1.726  11.854 -0.2771 -1.1414  1.8487
25358SOL    HW280760   6.138   1.585  11.894 -0.6454 -2.0263 -0.7486
25359SOL     OW80761   5.678  11.874   7.094 -0.0591  0.6324 -0.4168
25359SOL    HW180762   5.598  11.926   7.101  0.5878  1.4473  1.5020
25359SOL    HW280763   5.728  11.917   7.025 -0.4326  1.3036 -0.2784
25360SOL     OW80764   1.336   3.038   1.538  0.4155 -0.5117 -0.1630
25360SOL    HW180765   1.426   3.072   1.546  0.7197 -1.1103 -0.9305
25360SOL    HW280766   1.286   3.088   1.602  1.2115  0.1433 -0.0335
25361SOL     OW80767   3.163   4.067   2.104  0.3601  0.1663 -0.3091
25361SOL    HW180768   3.172   4.161   2.091  0.9459  0.0286 -0.9125
25361SOL    HW280769   3.215   4.049   2.183  1.9938  0.0386 -1.3751
25362SOL     OW80770   2.895   8.338   6.164 -0.0109  0.2121  0.0122
25362SOL    HW180771   2.817   8.390   6.143 -0.1841 -0.3578 -0.8041
25362SOL    HW280772   2.873   8.249   6.134  0.3055 -0.3253  1.3127
25363SOL     OW80773   3.088   0.557   4.285 -0.0068 -0.4337  0.3563
25363SOL    HW180774   3.072   0.481   4.340  2.5150 -0.2941  1.4617
25363SOL    HW280775   3.060   0.632   4.338 -0.2215 -0.4711  0.2922
25364SOL     OW80776   1.481   0.264  10.147  0.0561 -0.1129 -0.1375
25364SOL    HW180777   1.517   0.187  10.103 -0.7788 -0.6253  0.0607
25364SOL    HW280778   1.411   0.230  10.202 -0.1675  0.7603  0.1366
25365SOL     OW80779   1.569   4.329   0.886 -0.5773 -0.1047 -0.0575
25365SOL    HW180780   1.478   4.357   0.884 -0.7192 -0.5651 -1.1173
25365SOL    HW280781   1.600   4.352   0.973 -1.0139  2.2237 -0.4582
25366SOL     OW80782   0.311   4.094  10.580  0.4624  0.0036  0.1999
25366SOL    HW180783   0.230   4.147  10.578 -0.3078 -1.1589 -1.2513
25366SOL    HW280784   0.318   4.059  10.491  0.7428 -2.6184  1.1926
25367SOL     OW80785   2.030   7.123   2.956 -0.0006 -0.2602  0.3524
25367SOL    HW180786   1.987   7.164   3.032 -0.3320  1.6835 -0.7913
25367SOL    HW280787   2.123   7.120   2.979 -0.1834 -0.3061  1.0963
25368SOL     OW80788  11.793  11.901   9.519  0.0190 -0.2402  0.5240
25368SOL    HW180789  11.719  11.847   9.491  1.1037 -1.1590 -0.7378
25368SOL    HW280790  11.754  11.968   9.574 -2.2690  1.2976 -2.6185
25369SOL     OW80791   9.939   1.868   9.504 -0.4908  0.2983  0.6730
25369SOL    HW180792   9.910   1.919   9.579 -0.0904 -0.3853  1.3060
25369SOL    HW280793   9.867   1.876   9.441 -0.8192  0.9002  1.1120
25370SOL     OW80794   7.536   7.431   5.360  0.6300  0.0333 -0.4342
25370SOL    HW180795   7.570   7.441   5.271  1.3797  0.1626 -0.1419
25370SOL    HW280796   7.531   7.521   5.393 -1.3802  0.1752 -0.9491
25371SOL     OW80797  11.019   0.281  11.444 -0.4826 -0.5357  0.0478
25371SOL    HW180798  11.075   0.227  11.388 -0.4800  0.2177 -0.6998
25371SOL    HW280799  11.076   0.307  11.517 -1.0398 -3.1998  1.5720
25372SOL     OW80800   1.363  10.889   6.941 -0.4032 -0.4269  0.6917
25372SOL    HW180801   1.379  10.825   6.872  0.7978 -0.4653  0.9910
25372SOL    HW280802   1.268  10.888   6.953 -0.6454 -0.4006 -0.9715
25373SOL     OW80803   6.666  11.770  11.548 -0.4292 -0.0574  0.7067
25373SOL    HW180804   6.664  11.724  11.631  1.1968 -0.6903  0.4344
25373SOL    HW280805   6.728  11.841  11.561  1.0435 -1.0822 -0.3676
25374SOL     OW80806   2.612   7.362   2.743 -0.5569 -0.0415  0.1431
25374SOL    HW180807   2.549   7.431   2.723 -1.4297 -0.3111  1.8538
25374SOL    HW280808   2.589   7.331   2.830 -0.5096 -2.8659 -0.7362
25375SOL     OW80809   0.672   7.548   7.209 -0.0025 -0.1098  0.3373
25375SOL    HW180810   0.688   7.464   7.165  0.0874  0.5326 -0.8736
25375SOL    HW280811   0.587   7.536   7.252 -1.0054 -0.1390 -1.5537
25376SOL     OW80812   8.731   2.955   4.785  0.0376 -0.4405  0.0894
25376SOL    HW180813   8.650   2.913   4.817 -1.0719  1.5395  0.0332
25376SOL    HW280814   8.801   2.903   4.825 -1.2593 -0.1017  3.1450
25377SOL     OW80815   8.957   3.907   1.897 -0.1971 -0.0287 -0.2603
25377SOL    HW180816   8.974   3.855   1.818 -2.3408 -0.7349 -0.3230
25377SOL    HW280817   8.903   3.980   1.867 -2.4717 -1.1923  0.6990
25378SOL     OW80818   0.425  11.180   4.205  0.2703 -0.0657  0.3001
25378SOL    HW180819   0.429  11.233   4.284  1.8949  0.2131  0.0550
25378SOL    HW280820   0.348  11.212   4.158  1.1841  2.0696  0.1713
25379SOL     OW80821   4.698   2.167   6.478  0.0541 -0.0165  0.1373
25379SOL    HW180822   4.603   2.167   6.462 -0.1455  1.2838  1.1574
25379SOL    HW280823   4.724   2.259   6.469  1.0827 -0.2539  0.5710
25380SOL     OW80824   4.559   9.898   5.071  0.1998 -0.2169  0.3064
25380SOL    HW180825   4.478   9.847   5.076 -0.2684  0.5685  1.0455
25380SOL    HW280826   4.554   9.957   5.146  0.2824  1.5527 -1.0028
25381SOL     OW80827  11.906   3.633   8.962  0.0979  0.2838 -0.0471
25381SOL    HW180828  11.824   3.584   8.955 -1.3149  2.2113  1.8022
25381SOL    HW280829  11.970   3.569   8.992 -0.9391 -1.0480 -0.5831
25382SOL     OW80830  11.066   3.141   1.464 -0.0581 -0.5065  0.1072
25382SOL    HW180831  11.141   3.188   1.499 -0.6232  0.8450 -0.4216
25382SOL    HW280832  11.104   3.069   1.413  0.8492 -0.2081  0.3476
25383SOL     OW80833  11.984   8.939   7.007 -0.3778 -0.2035  0.2157
25383SOL    HW180834  12.074   8.947   6.979 -0.5097 -0.8689 -0.4123
25383SOL    HW280835  11.984   8.866   7.070 -0.3297  0.3618  0.8814
25384SOL     OW80836   4.736  11.324   8.688  0.3918 -0.0864  0.2354
25384SOL    HW180837   4.761  11.381   8.760 -0.3762 -0.6382  0.9587
25384SOL    HW280838   4.806  11.258   8.684  0.1478 -0.3914  0.8649
25385SOL     OW80839   4.625  11.078   0.840 -0.0545  0.5547  0.2214
25385SOL    HW180840   4.569  11.149   0.808 -1.5908 -0.4471  0.6049
25385SOL    HW280841   4.576  10.998   0.823  1.7631 -0.4956 -0.4703
25386SOL     OW80842   9.555   1.778   9.975  0.4582  0.7686  0.3525
25386SOL    HW180843   9.646   1.753   9.959  0.8476  1.6435  1.1213
25386SOL    HW280844   9.540   1.853   9.918  0.0317  0.2798 -0.1914
25387SOL     OW80845   1.016   0.603   3.363 -0.2090 -0.4298  0.0464
25387SOL    HW180846   0.966   0.562   3.292 -0.4220  1.9173 -1.2894
25387SOL    HW280847   0.968   0.684   3.382  0.1924 -0.6979  2.5014
25388SOL     OW80848   5.570   8.815   0.668  0.3034 -0.0611 -0.3615
25388SOL    HW180849   5.606   8.843   0.751  2.3251 -0.4073 -1.0647
25388SOL    HW280850   5.530   8.730   0.687  0.6563 -0.0904  0.2756
25389SOL     OW80851   5.690   6.886   1.024  0.4196  0.0937 -0.4215
25389SOL    HW180852   5.632   6.954   1.057  0.5258 -0.0860  0.1323
25389SOL    HW280853   5.633   6.810   1.009  0.6975 -0.5339  1.4116
25390SOL     OW80854   7.928   9.973   3.626 -0.2955  0.1819  0.2887
25390SOL    HW180855   7.839  10.008   3.634 -0.2968  0.2443  0.0013
25390SOL    HW280856   7.969  10.026   3.559 -0.5054 -0.7689 -0.6239
25391SOL     OW80857   2.240   0.517   0.129  0.0951  0.0963  0.2125
25391SOL    HW180858   2.234   0.605   0.091 -0.0477 -0.1605 -0.3648
25391SOL    HW280859   2.302   0.471   0.073 -0.3833 -0.3920  0.0793
25392SOL     OW80860   9.584   7.019   3.557  0.3421 -0.5071 -0.5551
25392SOL    HW180861   9.496   7.018   3.519 -0.2016  2.1925  0.4360
25392SOL    HW280862   9.611   7.111   3.553  3.2801 -1.2890 -1.0961
25393SOL     OW80863   1.567  10.152   9.126 -0.1422 -0.2900 -0.1547
25393SOL    HW180864   1.624  10.205   9.070 -1.8187  0.4560 -1.2424
25393SOL    HW280865   1.568  10.197   9.211  1.8240 -1.0031  0.2434
25394SOL     OW80866   0.116   2.922   4.207  0.0949  0.0724  0.1991
25394SOL    HW180867   0.029   2.961   4.199 -1.4635 -2.8527  1.1109
25394SOL    HW280868   0.163   2.979   4.268 -2.0171  0.5286  1.5187
25395SOL     OW80869   8.139   1.490   1.894  0.1048  0.1252  0.7531
25395SOL    HW180870   8.196   1.438   1.950 -0.8389 -0.4333  1.2118
25395SOL    HW280871   8.068   1.431   1.869  0.3012  0.4632 -0.7548
25396SOL     OW80872  11.066   5.392   1.527 -0.3138  0.5462  0.7362
25396SOL    HW180873  11.081   5.362   1.616  1.4387 -0.4568  0.1414
25396SOL    HW280874  11.068   5.313   1.473  0.9090  1.3403 -0.4505
25397SOL     OW80875  10.794  11.365   0.342  0.0407  0.2228  0.4809
25397SOL    HW180876  10.826  11.404   0.424  2.5527  0.4310 -0.5092
25397SOL    HW280877  10.737  11.293   0.371  2.7557 -1.3156  2.5560
25398SOL     OW80878   9.063   1.481   9.443 -0.3397 -0.6573  0.0448
25398SOL    HW180879   9.054   1.484   9.539 -0.7441  2.0436 -0.0042
25398SOL    HW280880   8.979   1.448   9.412 -1.6366  1.9108  0.5580
25399SOL     OW80881   9.630   5.143   9.759  0.3067 -0.2339 -0.3637
25399SOL    HW180882   9.723   5.129   9.737  0.6544  2.2759 -0.8656
25399SOL    HW280883   9.583   5.119   9.679  0.8739  1.5540 -1.2866
25400SOL     OW80884  11.736   3.745   9.272  0.1101 -0.2015  0.0884
25400SOL    HW180885  11.718   3.811   9.205  0.6749  0.1358  0.2618
25400SOL    HW280886  11.671   3.676   9.256  0.3473 -0.2065 -0.9144
25401SOL     OW80887   3.701   3.344   0.861  0.3656 -0.1111  0.3765
25401SOL    HW180888   3.607   3.338   0.879  0.0987 -3.0279 -1.4326
25401SOL    HW280889   3.739   3.269   0.907  1.3869 -0.5811 -1.1799
25402SOL     OW80890   8.201   7.475   8.862  0.5532 -0.0857  0.8268
25402SOL    HW180891   8.235   7.560   8.833 -1.2860  0.1128 -0.9394
25402SOL    HW280892   8.129   7.498   8.921 -2.1540 -0.2363 -2.2124
25403SOL     OW80893   3.636   5.585   2.392  0.0193  0.3200 -0.1124
25403SOL    HW180894   3.551   5.609   2.428 -1.5856 -1.6799 -2.2140
25403SOL    HW280895   3.666   5.665   2.348 -0.3587  1.2905  1.3188
25404SOL     OW80896   6.604   7.876   2.030 -0.9345  1.0685 -0.6081
25404SOL    HW180897   6.597   7.828   1.947 -0.4306 -1.2172  0.5990
25404SOL    HW280898   6.694   7.908   2.031 -0.5928  0.1157 -0.4443
25405SOL     OW80899   6.811   0.384   1.159  0.2533 -0.2314  0.6717
25405SOL    HW180900   6.795   0.463   1.107  2.0896 -0.5591 -0.4940
25405SOL    HW280901   6.728   0.337   1.157 -0.7029  1.3727  0.9013
25406SOL     OW80902   0.263   4.504   5.476  0.0408 -0.1954 -0.4886
25406SOL    HW180903   0.225   4.424   5.440  0.4298 -0.9617  0.7421
25406SOL    HW280904   0.188   4.556   5.503 -0.3026  0.7534 -3.0189
25407SOL     OW80905   2.726  10.913  10.178  0.5845  0.0276  0.2468
25407SOL    HW180906   2.767  10.972  10.114  0.3189  0.3028  0.3263
25407SOL    HW280907   2.658  10.966  10.218 -0.7214 -0.8082 -0.7914
25408SOL     OW80908   2.814  10.154   1.790  0.0393  0.0240  0.1781
25408SOL    HW180909   2.860  10.172   1.872 -0.1508  0.5108  0.1811
25408SOL    HW280910   2.759  10.078   1.809 -0.2297  0.3205  0.5909
25409SOL     OW80911   3.978  11.352   7.912 -0.1485  0.0175 -0.0870
25409SOL    HW180912   4.067  11.385   7.927 -1.0009  1.9400  1.2045
25409SOL    HW280913   3.967  11.282   7.976  0.2350  0.1395  0.1166
25410SOL     OW80914   9.685  10.718   3.089 -0.0374 -0.0545  0.3069
25410SOL    HW180915   9.710  10.630   3.061  1.4213  0.9069 -1.7214
25410SOL    HW280916   9.671  10.766   3.007  0.2539  1.8689  1.3212
25411SOL     OW80917  10.155   0.733   9.019  0.1689  0.2708  0.3038
25411SOL    HW180918  10.249   0.723   9.007  0.0747 -1.0223  0.4793
25411SOL    HW280919  10.124   0.774   8.938  0.6912 -0.5914 -0.3471
25412SOL     OW80920   3.616   0.760   9.627 -0.1357  0.3593 -0.7204
25412SOL    HW180921   3.529   0.794   9.604 -0.4938 -1.4596 -2.2899
25412SOL    HW280922   3.634   0.693   9.561  1.5456 -0.8228  0.8296
25413SOL     OW80923   5.578   4.220   0.472  0.0484 -0.9066 -0.9564
25413SOL    HW180924   5.536   4.177   0.397 -1.5088 -0.1452 -0.5599
25413SOL    HW280925   5.529   4.301   0.484  2.1489  0.4374 -0.9239
25414SOL     OW80926   9.066   2.953  10.415 -0.3701  0.1732  0.7610
25414SOL    HW180927   9.084   2.859  10.422  0.7548  0.3407  0.2779
25414SOL    HW280928   9.144   2.990  10.374 -0.3337  1.4921  1.9273
25415SOL     OW80929   9.723  10.492   0.692  0.0342  0.5109  0.1249
25415SOL    HW180930   9.661  10.565   0.694 -1.5564 -0.7769  0.2123
25415SOL    HW280931   9.684  10.426   0.749  0.6987 -0.9489 -1.0408
25416SOL     OW80932   2.600   9.228  11.946  0.0180  0.1468  0.0791
25416SOL    HW180933   2.559   9.282  12.013 -1.5410  0.5881 -1.1645
25416SOL    HW280934   2.535   9.225  11.875  1.3582 -0.7952 -1.1540
25417SOL     OW80935   1.648   0.230   1.096  0.1986 -0.0570  0.0026
25417SOL    HW180936   1.595   0.296   1.140 -0.3641 -1.7099  2.0069
25417SOL    HW280937   1.722   0.278   1.060 -2.3093  2.2805 -2.5109
25418SOL     OW80938   6.486   3.794   0.928  0.6183  0.7554 -0.2665
25418SOL    HW180939   6.422   3.841   0.982  0.9162  0.4088  0.3955
25418SOL    HW280940   6.433   3.747   0.864  0.2283  0.7831  0.0318
25419SOL     OW80941   3.261  10.404   0.223  0.1745 -0.6871  0.3110
25419SOL    HW180942   3.205  10.453   0.163  1.7909 -0.9826 -1.5587
25419SOL    HW280943   3.211  10.326   0.246 -1.5759  0.7487  1.6155
25420SOL     OW80944   4.507   4.135   1.458  0.6138 -0.0874 -0.6132
25420SOL    HW180945   4.457   4.209   1.423  0.3953  0.0631  0.0102
25420SOL    HW280946   4.475   4.059   1.409 -0.8397 -0.1293  0.3222
25421SOL     OW80947   9.036   2.554   9.722  0.0315 -0.8728 -0.4124
25421SOL    HW180948   8.978   2.523   9.792  1.1865 -4.1498 -0.7716
25421SOL    HW280949   8.985   2.623   9.679 -2.5988 -1.9172  0.7853
25422SOL     OW80950  10.391   0.718   6.456 -0.0698 -0.1070 -0.2675
25422SOL    HW180951  10.407   0.691   6.365 -1.3880  1.4376 -1.0147
25422SOL    HW280952  10.317   0.778   6.450  0.2522  0.5654  1.7689
25423SOL     OW80953  10.264  10.655  10.481  0.2901  0.0057  0.0926
25423SOL    HW180954  10.205  10.681  10.410  0.1010  1.0589  0.6093
25423SOL    HW280955  10.250  10.561  10.490  1.0521 -0.3611 -1.9079
25424SOL     OW80956  11.053   5.532  11.324  0.2645 -0.1000  0.6136
25424SOL    HW180957  11.131   5.510  11.375 -0.0002 -0.0849  1.0325
25424SOL    HW280958  10.981   5.491  11.372 -0.4263  2.6874  2.1512
25425SOL     OW80959   6.010  11.861   4.433  0.9571  0.2376 -0.3064
25425SOL    HW180960   6.067  11.860   4.509  0.2179 -0.7656  0.2681
25425SOL    HW280961   5.925  11.833   4.466 -0.1278  2.5586 -0.9671
25426SOL     OW80962   1.891   5.150   7.567  0.2654  0.6818  0.5581
25426SOL    HW180963   1.828   5.115   7.629  2.0742 -2.7055  0.6894
25426SOL    HW280964   1.974   5.152   7.615  1.8674 -2.6522 -1.7048
25427SOL     OW80965   9.776  10.878   8.111  0.3069  0.2129 -0.5627
25427SOL    HW180966   9.725  10.882   8.031  0.8921 -1.4871 -1.0615
25427SOL    HW280967   9.712  10.892   8.181 -0.8192 -1.5115 -1.1844
25428SOL     OW80968  11.452   9.790   0.416  0.3766  0.1114 -0.0954
25428SOL    HW180969  11.517   9.769   0.484  0.7805  0.3365 -0.4081
25428SOL    HW280970  11.397   9.711   0.411 -0.0201  0.3040  0.8971
25429SOL     OW80971  10.977   8.001   8.236  0.3311  0.0457  0.1608
25429SOL    HW180972  11.004   8.052   8.312  0.6596  0.8448 -0.4848
25429SOL    HW280973  11.013   7.914   8.251  1.0881  0.4185  0.5317
25430SOL     OW80974   1.680   5.554   6.951  0.0561  0.0680  0.2167
25430SOL    HW180975   1.714   5.642   6.935  2.1844 -0.3149  2.1791
25430SOL    HW280976   1.589   5.568   6.978 -0.0160  1.5331 -0.6656
25431SOL     OW80977   3.387   0.069   3.562 -0.1948  0.2513  0.4246
25431SOL    HW180978   3.304   0.051   3.607 -0.2939  2.4240  1.2301
25431SOL    HW280979   3.365   0.063   3.469 -0.8575 -0.7747  0.6349
25432SOL     OW80980   8.421  10.790   0.129  0.1489  0.0293 -0.1319
25432SOL    HW180981   8.434  10.717   0.190  0.5281 -1.0610 -1.4675
25432SOL    HW280982   8.390  10.749   0.048 -2.8386  1.6668  0.0437
25433SOL     OW80983   2.986  10.641   4.488  0.3701  0.3537  1.0519
25433SOL    HW180984   3.049  10.568   4.493  0.4453  0.4010  0.7785
25433SOL    HW280985   3.040  10.718   4.472  0.1779  0.2845  0.0217
25434SOL     OW80986   0.534   0.632   9.674 -0.0098  0.0696 -0.0444
25434SOL    HW180987   0.574   0.546   9.686  1.5884  0.8216  0.2702
25434SOL    HW280988   0.480   0.645   9.752  1.2940  0.1555  0.8726
25435SOL     OW80989   4.880   1.967   5.031  0.0912 -0.3524 -0.4774
25435SOL    HW180990   4.919   2.054   5.043 -1.6022  0.3306  0.4497
25435SOL    HW280991   4.819   1.958   5.104  0.1699 -2.3079 -0.6188
25436SOL     OW80992   8.865   9.576   2.993 -0.3229 -0.3323  0.1484
25436SOL    HW180993   8.927   9.505   2.978 -1.1951 -1.2370  0.7636
25436SOL    HW280994   8.918   9.656   2.984  0.5896 -1.0233 -0.9336
25437SOL     OW80995   0.891   6.398   0.056 -0.0770  0.3351  0.2550
25437SOL    HW180996   0.974   6.365   0.090 -0.3080 -1.1487 -0.5322
25437SOL    HW280997   0.868   6.471   0.114 -0.0566 -1.5366  2.7410
25438SOL     OW80998   9.150  10.654  11.202 -0.2193 -0.7659 -0.2819
25438SOL    HW180999   9.201  10.575  11.185 -1.7740 -2.1342  1.0982
25438SOL    HW281000   9.215  10.722  11.214  1.1661 -1.7224 -1.8345
25439SOL     OW81001  11.762   5.297   9.431  0.1826 -0.1500  0.0748
25439SOL    HW181002  11.739   5.390   9.435  0.0064 -0.0698 -1.8311
25439SOL    HW281003  11.843   5.294   9.379  0.0522 -1.0656 -0.0983
25440SOL     OW81004   6.415   5.255   5.283  0.3008 -0.1013 -0.3785
25440SOL    HW181005   6.420   5.289   5.194  2.5783 -0.7998 -0.5631
25440SOL    HW281006   6.456   5.169   5.279  0.1578 -0.2886  1.2889
25441SOL     OW81007   8.024   5.104   5.240 -0.3628 -0.1315 -0.1483
25441SOL    HW181008   8.085   5.033   5.260 -0.4854 -0.4345 -0.8167
25441SOL    HW281009   7.961   5.103   5.312 -0.6249 -1.0015 -0.3731
25442SOL     OW81010  11.433   0.975  11.792  0.3544  0.2352  0.0524
25442SOL    HW181011  11.479   0.891  11.785  1.9140  1.0540 -0.1452
25442SOL    HW281012  11.449   1.017  11.707  0.8166  1.3020  0.6509
25443SOL     OW81013   3.646   6.691   3.726 -0.1773  0.0921 -0.5856
25443SOL    HW181014   3.702   6.705   3.802  0.8469 -0.3014 -1.2585
25443SOL    HW281015   3.645   6.776   3.681  0.2733 -0.0356 -0.8359
25444SOL     OW81016   1.616   6.062   6.861  0.0309 -0.1770 -0.3084
25444SOL    HW181017   1.616   5.966   6.856  0.5092 -0.1147 -1.7736
25444SOL    HW281018   1.646   6.091   6.775  0.7295  1.2792  0.3920
25445SOL     OW81019   8.623   6.278   2.690  0.0423 -0.0574  0.0352
25445SOL    HW181020   8.579   6.341   2.747  0.4915 -1.9275  2.5910
25445SOL    HW281021   8.624   6.321   2.604 -2.4890  2.0297  0.9141
25446SOL     OW81022   1.412   6.190  10.434 -0.6727 -0.0142  0.1288
25446SOL    HW181023   1.429   6.191  10.340 -0.5965 -2.3432  0.0686
25446SOL    HW281024   1.499   6.202  10.474 -0.8799  2.6427  0.0084
25447SOL     OW81025   1.090  10.886   1.796  0.2907 -0.0621  0.0013
25447SOL    HW181026   1.098  10.978   1.819  3.8638 -0.3226  0.4468
25447SOL    HW281027   1.082  10.841   1.880 -0.9052 -0.2445 -0.1874
25448SOL     OW81028  10.677   7.126   6.736  0.2497  0.1537 -0.0966
25448SOL    HW181029  10.585   7.129   6.763  0.9495 -0.4314  2.6713
25448SOL    HW281030  10.700   7.217   6.715 -1.0683  0.2102 -1.4913
25449SOL     OW81031   2.467   6.595   3.233  0.4307  0.0126  0.0694
25449SOL    HW181032   2.378   6.614   3.263  0.2162  1.6123 -1.4849
25449SOL    HW281033   2.522   6.615   3.309 -0.2041  2.8024 -0.1181
25450SOL     OW81034   5.334   6.353  11.512  0.4278 -0.4842  0.4337
25450SOL    HW181035   5.275   6.387  11.580 -1.2256 -1.1734 -0.5952
25450SOL    HW281036   5.355   6.264  11.541 -0.3792 -0.8239  0.0120
25451SOL     OW81037   6.248   4.935   8.082 -0.3337 -0.5270 -0.1462
25451SOL    HW181038   6.241   4.926   7.987  0.6739  0.7625 -0.3724
25451SOL    HW281039   6.291   5.019   8.095 -0.7051 -0.5516  1.4716
25452SOL     OW81040  10.314   1.913  10.813  0.1130 -0.6330 -0.0253
25452SOL    HW181041  10.333   2.006  10.801 -1.1959 -0.5867 -2.1098
25452SOL    HW281042  10.276   1.908  10.901  0.6600  0.7025  0.3173
25453SOL     OW81043  10.820   7.356   7.471  0.2940 -0.3604  0.2629
25453SOL    HW181044  10.903   7.344   7.426 -0.2923  0.2753 -1.0674
25453SOL    HW281045  10.843   7.398   7.554  1.2770  0.1193 -0.2355
25454SOL     OW81046   2.211   7.033  11.657 -0.1750 -0.0404  0.0477
25454SOL    HW181047   2.244   7.090  11.588 -0.8288  0.1477 -0.1163
25454SOL    HW281048   2.287   7.016  11.713  1.0965 -2.4393 -2.1896
25455SOL     OW81049   5.513   4.455   7.008  0.2418 -0.1477  0.1760
25455SOL    HW181050   5.608   4.446   7.002  0.1269 -0.7011 -1.2018
25455SOL    HW281051   5.483   4.370   7.040  0.1834 -0.1130  0.2127
25456SOL     OW81052   9.982   7.535   0.182 -0.5300  0.2862 -0.1516
25456SOL    HW181053   9.996   7.493   0.097  1.4029 -0.1521  0.3313
25456SOL    HW281054   9.969   7.627   0.162 -1.5542 -0.0247 -1.0062
25457SOL     OW81055   5.525   2.378   5.337 -0.6844 -1.0532  0.2139
25457SOL    HW181056   5.497   2.360   5.247  0.8433  1.8875 -1.0075
25457SOL    HW281057   5.619   2.396   5.329 -0.7738  0.6172  2.1596
25458SOL     OW81058   1.780  10.776  10.194  0.0306  0.6182 -0.0490
25458SOL    HW181059   1.863  10.776  10.243 -0.9553 -1.5801  1.8234
25458SOL    HW281060   1.771  10.686  10.163 -1.9544  0.6072  0.4174
25459SOL     OW81061  11.526  10.215  10.638 -0.0754 -0.3400 -0.3570
25459SOL    HW181062  11.594  10.148  10.650  0.7613  0.4776 -0.4048
25459SOL    HW281063  11.558  10.269  10.566  0.1844  1.2025  0.8537
25460SOL     OW81064   4.398   6.160   2.111 -0.2187 -0.3428  0.2887
25460SOL    HW181065   4.476   6.215   2.110 -0.2222 -0.3450 -1.1159
25460SOL    HW281066   4.405   6.107   2.032 -0.3109 -2.2610  1.4850
25461SOL     OW81067   0.804   6.997   6.224  0.4955 -0.3023  0.2627
25461SOL    HW181068   0.775   6.918   6.178 -1.5281  0.5949 -0.0991
25461SOL    HW281069   0.759   6.994   6.309 -0.2515  0.7999 -0.0571
25462SOL     OW81070   4.486   4.883   4.236  0.0931  0.3617 -0.2597
25462SOL    HW181071   4.404   4.934   4.238 -0.5430 -0.6507  0.9875
25462SOL    HW281072   4.555   4.948   4.250 -0.5498  1.1384 -0.6034
25463SOL     OW81073   2.545   7.522  11.659 -0.0692  0.3529  0.2966
25463SOL    HW181074   2.633   7.521  11.621 -0.0582  2.8282  0.0433
25463SOL    HW281075   2.489   7.548  11.586 -0.6636  0.9892  0.9625
25464SOL     OW81076  10.390   0.578   2.572  0.5114 -0.4996  1.1200
25464SOL    HW181077  10.451   0.550   2.503  0.4278 -0.1157  0.8840
25464SOL    HW281078  10.306   0.540   2.546  0.5722 -0.7271  1.2512
25465SOL     OW81079  10.417   8.273  11.249  0.0426  0.4006  0.7849
25465SOL    HW181080  10.377   8.245  11.167 -0.1289 -1.4781  1.4642
25465SOL    HW281081  10.367   8.228  11.317  0.1630  1.9345  1.9430
25466SOL     OW81082   5.584   8.661   1.255  0.4553  0.2281  0.0655
25466SOL    HW181083   5.589   8.692   1.164 -0.1265 -2.9788 -1.1828
25466SOL    HW281084   5.642   8.585   1.257 -1.1736 -1.0558  1.7630
25467SOL     OW81085   8.369   3.133   1.167 -0.2401 -0.3563 -0.0205
25467SOL    HW181086   8.363   3.043   1.200 -1.7598 -0.6637 -1.0399
25467SOL    HW281087   8.292   3.143   1.111  0.7423  1.0811 -1.1672
25468SOL     OW81088   7.497   9.209  11.501 -0.3753  0.0146 -0.2472
25468SOL    HW181089   7.558   9.146  11.463 -0.3121  0.2922 -0.6208
25468SOL    HW281090   7.416   9.197  11.451 -0.4090  0.1219 -0.2192
25469SOL     OW81091   2.950   0.461   5.885  0.6771 -0.1821  0.7608
25469SOL    HW181092   2.944   0.401   5.810  1.2971  0.5673  0.0855
25469SOL    HW281093   2.877   0.438   5.941  1.4351 -2.2240  1.0005
25470SOL     OW81094   7.009   2.796   0.991  0.0895  0.7395  0.4646
25470SOL    HW181095   6.969   2.728   0.937  4.6949 -0.5740 -1.7496
25470SOL    HW281096   7.025   2.868   0.930  0.0854  1.7065  1.5706
25471SOL     OW81097   2.163   4.842   5.932  0.5100 -0.0031 -0.6326
25471SOL    HW181098   2.241   4.841   5.877 -0.5582  0.6437 -2.2234
25471SOL    HW281099   2.153   4.751   5.961  2.9656  0.2533  1.3183
25472SOL     OW81100   5.943   9.978   3.022 -0.2059 -0.1259 -0.2038
25472SOL    HW181101   5.894   9.896   3.018  0.2539 -0.3477 -2.0813
25472SOL    HW281102   5.895  10.032   3.085 -1.8755 -0.9684 -0.7072
25473SOL     OW81103   3.471   1.153   6.786  0.1700 -0.1415 -0.0317
25473SOL    HW181104   3.389   1.104   6.792 -1.0882  1.8305  0.0163
25473SOL    HW281105   3.464   1.219   6.856  1.2476  0.8203 -0.7940
25474SOL     OW81106  10.396   6.023   7.749  0.0237 -0.2245 -0.8920
25474SOL    HW181107  10.473   5.979   7.787  0.1942  1.4961  0.9246
25474SOL    HW281108  10.336   6.033   7.822 -0.3158  1.8405 -1.4011
25475SOL     OW81109   3.219   9.331   1.979  0.3481 -0.3926 -0.4809
25475SOL    HW181110   3.170   9.372   2.050 -0.7685 -0.2033 -1.3521
25475SOL    HW281111   3.255   9.405   1.929  3.0270 -0.4904  1.0979
25476SOL     OW81112   7.553   1.037   7.255  0.2129 -0.1036  0.1263
25476SOL    HW181113   7.646   1.056   7.267  0.6601 -1.5500 -0.8169
25476SOL    HW281114   7.548   0.991   7.171 -1.8293  3.0652 -1.7026
25477SOL     OW81115   9.995   1.781   3.347  0.2042 -0.0058 -0.3830
25477SOL    HW181116   9.937   1.854   3.370 -0.3042  0.0467 -1.7573
25477SOL    HW281117  10.069   1.790   3.407 -1.1665 -0.0676  1.4152
25478SOL     OW81118   0.973   8.385   5.288  0.6474 -0.2326  0.4240
25478SOL    HW181119   0.992   8.478   5.281 -3.0451  0.7004  0.7881
25478SOL    HW281120   0.964   8.356   5.197  1.2522 -0.1136  0.3222
25479SOL     OW81121   8.029   9.705   9.321  0.4728 -0.6178  0.0917
25479SOL    HW181122   8.016   9.795   9.293  2.2920 -0.4087 -0.2494
25479SOL    HW281123   7.941   9.669   9.333 -0.2748  1.0142 -0.3404
25480SOL     OW81124  10.518   0.159  10.943  0.1738 -0.0530  0.7738
25480SOL    HW181125  10.523   0.142  11.037 -0.9397 -1.5809  0.6030
25480SOL    HW281126  10.433   0.124  10.916  0.8862 -0.6056 -0.9646
25481SOL     OW81127   8.342   2.816   3.865 -0.1781  0.1041 -0.0499
25481SOL    HW181128   8.350   2.745   3.928 -0.5020 -1.5513 -1.7649
25481SOL    HW281129   8.322   2.772   3.782 -0.2555  2.2002 -1.2175
25482SOL     OW81130   9.118  10.031   0.607 -0.9442  0.3904 -0.4510
25482SOL    HW181131   9.035  10.001   0.571 -0.8598  0.0924 -0.3999
25482SOL    HW281132   9.098  10.058   0.696 -0.5027 -2.2559  0.5518
25483SOL     OW81133   5.989   6.384   7.698 -0.3879  0.4463 -0.2510
25483SOL    HW181134   6.035   6.441   7.760 -1.8035 -0.1025  1.3871
25483SOL    HW281135   6.035   6.398   7.615  1.0428  1.8709  0.6981
25484SOL     OW81136   0.345   7.723   3.988 -0.1965 -0.3938 -0.3508
25484SOL    HW181137   0.288   7.728   3.911 -1.5855  0.0531  0.6733
25484SOL    HW281138   0.287   7.739   4.062  1.3799  0.7675  0.7014
25485SOL     OW81139  10.435   8.527   4.940  0.7048 -0.6508 -0.2400
25485SOL    HW181140  10.497   8.524   5.013 -2.2137 -0.9919  2.4488
25485SOL    HW281141  10.415   8.620   4.930 -1.1774 -0.7699  1.6602
25486SOL     OW81142   0.761  11.794   4.254  0.4213  0.3748 -0.1424
25486SOL    HW181143   0.783  11.727   4.318 -1.4813  1.2640  1.5800
25486SOL    HW281144   0.845  11.824   4.219  1.3447 -2.1150 -0.1967
25487SOL     OW81145  11.644   6.879   7.728 -0.3797 -0.0253 -0.4090
25487SOL    HW181146  11.577   6.839   7.783  0.6258  1.1233  1.7783
25487SOL    HW281147  11.716   6.816   7.728 -0.6090 -0.2930 -0.9423
25488SOL     OW81148   2.334   9.520   9.236 -0.0620  0.8837 -0.7136
25488SOL    HW181149   2.419   9.559   9.255 -0.8321  2.7307 -0.8324
25488SOL    HW281150   2.350   9.425   9.237  2.6509  1.1279 -3.6981
25489SOL     OW81151   7.764   2.380   5.169  0.4110  0.0252  0.1294
25489SOL    HW181152   7.761   2.331   5.086  0.7608 -0.0084  0.1327
25489SOL    HW281153   7.673   2.386   5.196  0.1384  1.2301 -0.9523
25490SOL     OW81154   6.208   1.455   9.998 -0.2842  0.2776 -0.4847
25490SOL    HW181155   6.228   1.478   9.907 -0.5591  0.7348 -0.4306
25490SOL    HW281156   6.291   1.422  10.033  0.2868  1.7499 -0.3851
25491SOL     OW81157   6.915   9.350   9.994  0.4347  0.2516 -0.2216
25491SOL    HW181158   6.959   9.275   9.953 -1.1612 -0.5972 -0.4803
25491SOL    HW281159   6.858   9.384   9.924  1.2524  1.8241 -0.1528
25492SOL     OW81160   6.642  11.097   2.710  0.3972  0.7739  0.1415
25492SOL    HW181161   6.551  11.088   2.738  0.3168  1.6022  0.1724
25492SOL    HW281162   6.640  11.077   2.616  1.0013 -4.0750  0.9309
25493SOL     OW81163   6.308   8.699  10.375  0.5152 -0.4184  0.4841
25493SOL    HW181164   6.228   8.649  10.355  1.6693 -2.1089 -0.1459
25493SOL    HW281165   6.377   8.633  10.379  1.8168  0.9442  1.5111
25494SOL     OW81166   0.056   7.579   9.922 -0.7587  0.1318 -0.0613
25494SOL    HW181167  -0.033   7.547   9.932 -0.8932 -0.8928 -3.2329
25494SOL    HW281168   0.111   7.511   9.960 -1.2496 -1.8110 -2.5294
25495SOL     OW81169  11.274   0.931   4.378 -0.5599  0.0454 -0.1226
25495SOL    HW181170  11.348   0.881   4.413 -0.5725 -1.7843 -2.4799
25495SOL    HW281171  11.315   1.005   4.333 -0.2770 -0.0629 -0.0447
25496SOL     OW81172   6.028   5.439  11.342 -0.2544  0.2589  0.5673
25496SOL    HW181173   6.093   5.459  11.274 -0.5355 -0.3016  0.1376
25496SOL    HW281174   6.011   5.346  11.333 -0.3437  0.1888  1.3693
25497SOL     OW81175  10.281   3.672   5.715 -0.4966 -0.4092 -0.5292
25497SOL    HW181176  10.227   3.648   5.791  0.0944 -1.3698 -0.4066
25497SOL    HW281177  10.335   3.744   5.747 -0.0295 -1.0078  0.0734
25498SOL     OW81178   5.098   2.285   5.345  0.0301  0.2673 -0.3364
25498SOL    HW181179   5.086   2.352   5.413  2.8524  0.8894 -0.3398
25498SOL    HW281180   5.021   2.294   5.289 -1.4611  0.9913  1.7089
25499SOL     OW81181   5.563  10.125   0.604  0.1268 -0.1970 -0.4459
25499SOL    HW181182   5.526  10.131   0.692 -0.3146 -0.2093 -0.6257
25499SOL    HW281183   5.657  10.112   0.617  0.2986  1.2912  0.0303
25500SOL     OW81184   1.143   7.757   3.334 -0.3322  0.2418  0.4438
25500SOL    HW181185   1.175   7.846   3.319  1.0121 -0.1451  0.8684
25500SOL    HW281186   1.162   7.710   3.253 -0.5034  0.1842  0.4351
25501SOL     OW81187   9.039   1.075  10.772  0.5613 -0.4389 -0.2018
25501SOL    HW181188   9.076   1.037  10.852 -1.0573  1.7327  1.7243
25501SOL    HW281189   9.113   1.115  10.728  1.3931 -1.1235  0.5295
25502SOL     OW81190   8.857   4.750  10.691  0.5401 -0.7618 -0.3395
25502SOL    HW181191   8.829   4.682  10.751 -3.9931  0.9261 -0.1526
25502SOL    HW281192   8.915   4.705  10.629 -1.0889 -4.4192  0.5288
25503SOL     OW81193  10.613   3.874   7.284 -0.2486 -0.1930  0.2144
25503SOL    HW181194  10.670   3.948   7.305 -0.0468 -0.5698  1.0230
25503SOL    HW281195  10.641   3.804   7.343 -1.5816 -0.3654  0.6834
25504SOL     OW81196   8.689   1.685   1.801  0.1401 -0.3415 -0.0367
25504SOL    HW181197   8.664   1.713   1.713  0.4066  0.5655  0.1710
25504SOL    HW281198   8.682   1.764   1.854 -0.6377 -1.0144  0.8998
25505SOL     OW81199   8.684   2.423   2.549 -0.1831 -0.4594  0.6122
25505SOL    HW181200   8.761   2.419   2.492  0.1187  0.2473  0.9646
25505SOL    HW281201   8.697   2.351   2.612  0.9085  0.5183  1.5546
25506SOL     OW81202   9.362  11.339   3.844 -0.4216  0.1025  0.0883
25506SOL    HW181203   9.356  11.274   3.914 -1.6476  1.0707  0.9374
25506SOL    HW281204   9.275  11.337   3.803 -0.4466  1.1001  0.0625
25507SOL     OW81205   6.111  10.672   7.389  0.1088 -0.2163  0.3818
25507SOL    HW181206   6.150  10.586   7.397  1.3349  0.3731  0.9898
25507SOL    HW281207   6.094  10.682   7.295 -2.5323 -2.1330  0.5472
25508SOL     OW81208  11.484   1.352   7.859  0.4250  0.5973  0.0556
25508SOL    HW181209  11.452   1.268   7.893 -0.3155  0.4106 -1.0530
25508SOL    HW281210  11.434   1.418   7.907 -0.9180  0.3304 -0.9320
25509SOL     OW81211   8.658   4.409   2.862 -0.8803 -0.2021  0.2586
25509SOL    HW181212   8.575   4.382   2.902 -0.3070 -0.5110  1.2806
25509SOL    HW281213   8.641   4.497   2.829 -1.9658 -0.7252 -0.6314
25510SOL     OW81214   6.471   0.442   8.987  0.5761 -0.1695 -0.0647
25510SOL    HW181215   6.482   0.410   9.077 -1.2653 -1.3915 -0.2347
25510SOL    HW281216   6.418   0.375   8.944  1.7033  0.2255 -2.1900
25511SOL     OW81217   5.126   5.694   2.478  0.9033  0.0982  0.3307
25511SOL    HW181218   5.159   5.784   2.478 -1.6788  1.1451 -0.8296
25511SOL    HW281219   5.181   5.648   2.415  1.5088  1.1964  0.0344
25512SOL     OW81220   9.938   1.864   0.794 -0.1405  0.7365 -0.8614
25512SOL    HW181221   9.910   1.830   0.879  1.9665 -3.0366 -1.4439
25512SOL    HW281222   9.858   1.864   0.741 -1.7618  4.3091  1.2308
25513SOL     OW81223   9.254   4.063   0.661  0.0065 -0.4388  0.2758
25513SOL    HW181224   9.332   4.092   0.615  0.5145 -1.8820  0.1739
25513SOL    HW281225   9.184   4.120   0.628  0.5813 -0.6485 -1.3947
25514SOL     OW81226   0.530   6.434   5.380  0.6982  0.0132 -0.3378
25514SOL    HW181227   0.508   6.515   5.427  0.1964  0.8171 -1.9230
25514SOL    HW281228   0.446   6.391   5.365  0.9710 -0.9056  0.5995
25515SOL     OW81229   0.188   2.685  10.481  0.0260 -0.4197  0.5895
25515SOL    HW181230   0.169   2.645  10.396 -1.7152 -1.9705  1.6353
25515SOL    HW281231   0.111   2.739  10.499  0.9877  0.9992  0.6236
25516SOL     OW81232   3.861   4.708   2.218 -0.2825  0.0881 -0.0235
25516SOL    HW181233   3.909   4.790   2.205  1.0902 -0.7105 -0.2401
25516SOL    HW281234   3.882   4.656   2.140 -1.1310 -0.4741  0.1152
25517SOL     OW81235  11.882   3.802   3.041 -0.0521 -0.0083  0.8816
25517SOL    HW181236  11.934   3.728   3.009  2.2024  1.4244  0.9890
25517SOL    HW281237  11.801   3.798   2.990  0.5245 -1.8096  0.0053
25518SOL     OW81238  10.720   5.975  10.220  0.2863  0.4049  0.5350
25518SOL    HW181239  10.638   6.008  10.182  0.2407 -0.6707 -0.3351
25518SOL    HW281240  10.763   5.928  10.148  1.1267 -0.0240  1.2971
25519SOL     OW81241   9.375   3.718   7.346 -0.5343 -0.3790  0.5749
25519SOL    HW181242   9.365   3.778   7.420 -0.1824  0.0210  0.3065
25519SOL    HW281243   9.464   3.683   7.356 -0.3395 -0.0267  0.1355
25520SOL     OW81244   9.797   8.951   9.458 -0.3558  0.0658  0.1551
25520SOL    HW181245   9.708   8.923   9.439 -0.7252 -0.6367  2.5501
25520SOL    HW281246   9.850   8.912   9.388 -1.6129 -1.8426  0.1793
25521SOL     OW81247   3.253  10.147  11.123  0.2161  0.7452  0.2419
25521SOL    HW181248   3.173  10.109  11.160  1.5073 -1.7496  0.6913
25521SOL    HW281249   3.243  10.136  11.028 -0.1984  0.9223  0.2643
25522SOL     OW81250   9.516   4.224   0.004 -0.1287  0.5737 -0.1753
25522SOL    HW181251   9.451   4.156  -0.013  1.3088 -0.9564  0.2077
25522SOL    HW281252   9.490   4.262   0.088 -0.2372 -0.4000  0.2440
25523SOL     OW81253  11.691   7.882   0.879 -0.2234  0.4287  0.9537
25523SOL    HW181254  11.736   7.932   0.947 -1.5767  0.6727  1.7196
25523SOL    HW281255  11.729   7.794   0.884 -0.8933  0.1983  2.6498
25524SOL     OW81256   7.875   7.085   2.761 -0.2156 -0.1816 -0.6098
25524SOL    HW181257   7.898   7.021   2.693 -2.5919 -1.9862  0.1207
25524SOL    HW281258   7.841   7.160   2.712  0.1101 -0.5728 -1.4628
25525SOL     OW81259   8.655   4.314   4.353  0.2347  0.3291 -0.0734
25525SOL    HW181260   8.634   4.293   4.262  0.6087  1.9142 -0.5552
25525SOL    HW281261   8.729   4.258   4.375  0.8983  0.7567 -1.1446
25526SOL     OW81262  10.459   6.548  11.209  0.0549  0.3947 -0.4671
25526SOL    HW181263  10.398   6.519  11.141 -1.4052 -0.1739  1.0217
25526SOL    HW281264  10.415   6.622  11.250  0.5971  0.2967  0.3019
25527SOL     OW81265  11.997   2.293   4.226  0.2084 -0.0992  0.3527
25527SOL    HW181266  11.982   2.200   4.246  1.0217 -0.3142  0.0160
25527SOL    HW281267  12.073   2.317   4.278 -0.6461  0.6888  1.2646
25528SOL     OW81268   9.757   4.547  10.732  0.0076  0.2377  0.6090
25528SOL    HW181269   9.737   4.477  10.670 -1.5774 -0.4067  1.7675
25528SOL    HW281270   9.725   4.627  10.690 -1.1256 -0.2001  0.6017
25529SOL     OW81271   8.751  11.330   0.303 -0.0737  0.0617  0.2743
25529SOL    HW181272   8.788  11.415   0.281 -1.2996  0.3248 -0.9531
25529SOL    HW281273   8.826  11.274   0.321  0.7671  1.2649  0.5981
25530SOL     OW81274   7.932   7.321   2.227  0.3781 -0.2415 -0.4360
25530SOL    HW181275   7.985   7.390   2.267 -0.8211  0.0617  0.6846
25530SOL    HW281276   7.995   7.269   2.177  1.3203  1.6387 -1.3241
25531SOL     OW81277  10.601   9.765   5.744  0.0566  0.1626 -0.0661
25531SOL    HW181278  10.691   9.733   5.751 -0.5745 -1.6855  0.1553
25531SOL    HW281279  10.599   9.843   5.800  1.6973  0.7224 -0.7161
25532SOL     OW81280   4.158  10.229   0.301 -0.7263  0.2147 -0.2231
25532SOL    HW181281   4.075  10.205   0.260 -0.5972 -2.9737  1.1102
25532SOL    HW281282   4.143  10.220   0.395  1.0054 -0.2364  0.0575
25533SOL     OW81283   9.532   0.516   5.715  0.8466  0.4790 -0.4261
25533SOL    HW181284   9.552   0.528   5.808 -0.2166  2.1627 -0.3750
25533SOL    HW281285   9.480   0.593   5.692 -1.7922 -1.5266 -1.5898
25534SOL     OW81286   3.590   8.311   2.277  0.1046  0.1199 -0.3496
25534SOL    HW181287   3.662   8.281   2.221 -0.2814  2.1416 -2.0425
25534SOL    HW281288   3.511   8.278   2.233 -0.2158  1.9355 -1.2180
25535SOL     OW81289  11.118  11.215   3.565  0.8507  0.5024  0.1005
25535SOL    HW181290  11.156  11.240   3.481  1.8692 -0.2691  0.3053
25535SOL    HW281291  11.182  11.245   3.630 -0.4497  2.0832  0.6972
25536SOL     OW81292   5.700   9.149   7.561 -0.0707  0.9911  0.0919
25536SOL    HW181293   5.636   9.098   7.512 -0.0804  0.9726  0.1242
25536SOL    HW281294   5.728   9.218   7.501  0.0921  0.8272 -0.0222
25537SOL     OW81295   5.015   4.375   1.014 -0.0489  0.3575 -0.5356
25537SOL    HW181296   5.026   4.283   0.991 -1.5138  0.2038 -0.7038
25537SOL    HW281297   4.921   4.385   1.032 -0.0410  1.9600 -1.1635
25538SOL     OW81298  11.013   8.458   4.229 -0.3850  0.1142  0.0716
25538SOL    HW181299  11.083   8.512   4.267 -0.6809  1.3601 -1.0474
25538SOL    HW281300  10.965   8.423   4.304 -0.8116  2.2787  0.8729
25539SOL     OW81301   8.060   8.164  11.377  0.1789 -0.5062 -0.5504
25539SOL    HW181302   8.105   8.081  11.395  1.7506  0.7993  2.0632
25539SOL    HW281303   7.988   8.166  11.440 -0.8942 -0.5775 -1.7338
25540SOL     OW81304   7.720   2.694  11.435  0.6761 -0.2868 -0.3620
25540SOL    HW181305   7.726   2.785  11.466 -0.7454 -0.9996  2.3489
25540SOL    HW281306   7.735   2.700  11.341  2.3887  2.5115 -0.0352
25541SOL     OW81307   1.212   6.653   8.974 -0.5753 -0.2103 -0.2423
25541SOL    HW181308   1.308   6.657   8.980 -0.4703 -2.2186  0.3783
25541SOL    HW281309   1.185   6.744   8.966  1.3858  0.4171 -0.4571
25542SOL     OW81310  10.907  10.315   8.988 -0.4326 -0.1916 -0.2317
25542SOL    HW181311  10.875  10.387   8.934 -1.6890 -1.6640 -1.5305
25542SOL    HW281312  10.838  10.300   9.052  0.7458  1.0799  1.4529
25543SOL     OW81313   1.335  11.231   3.736  0.1237 -0.1069  0.0847
25543SOL    HW181314   1.241  11.218   3.737 -0.2731  2.1870 -0.1713
25543SOL    HW281315   1.372  11.144   3.751 -1.9970 -1.1751 -0.4855
25544SOL     OW81316   5.452   9.088  10.813  0.2661 -0.0605 -0.1596
25544SOL    HW181317   5.376   9.060  10.864 -0.2839  0.3317 -0.7552
25544SOL    HW281318   5.527   9.056  10.863 -0.2728  0.0032  0.7119
25545SOL     OW81319   9.529   0.389   4.909  0.1476 -0.3749  0.2162
25545SOL    HW181320   9.598   0.383   4.974  0.3152 -0.1883  0.0593
25545SOL    HW281321   9.452   0.351   4.951  0.4910 -1.1074  0.1838
25546SOL     OW81322  10.120   9.628   7.239  0.5510  0.1071 -0.2512
25546SOL    HW181323  10.215   9.633   7.230  0.3723  2.0510 -1.5946
25546SOL    HW281324  10.091   9.718   7.231 -1.5592 -0.6357 -1.6251
25547SOL     OW81325   3.155   2.906   9.350 -0.0368  0.6475 -0.9783
25547SOL    HW181326   3.068   2.887   9.315 -0.0817  0.6588 -0.8728
25547SOL    HW281327   3.166   2.844   9.422  0.2440  0.3048 -1.3102
25548SOL     OW81328  10.266   8.776   2.364 -0.2255  0.6518  0.2367
25548SOL    HW181329  10.190   8.786   2.422  0.6623  1.0071  1.3715
25548SOL    HW281330  10.234   8.802   2.278 -0.5753  4.1750  1.2655
25549SOL     OW81331  10.901   2.523   2.308 -0.0497  0.5774 -0.0031
25549SOL    HW181332  10.899   2.481   2.222  1.2814  0.7002 -0.1098
25549SOL    HW281333  10.841   2.471   2.361 -0.8327  0.4540 -0.9748
25550SOL     OW81334  10.199   9.024   5.088 -0.3739  0.1885 -0.3284
25550SOL    HW181335  10.175   8.936   5.058 -0.2011 -0.2379  0.7685
25550SOL    HW281336  10.260   9.056   5.021 -2.1074  0.3646 -1.9270
25551SOL     OW81337   5.666   0.197   2.902 -0.0118  0.5475 -0.0115
25551SOL    HW181338   5.580   0.224   2.870 -0.6638 -0.0768  1.1478
25551SOL    HW281339   5.706   0.151   2.828 -1.3837 -0.6554 -0.0478
25552SOL     OW81340   1.840  10.293   7.460 -0.2669 -0.4162  0.1308
25552SOL    HW181341   1.799  10.320   7.542  0.5341 -0.3989  0.5338
25552SOL    HW281342   1.902  10.363   7.439 -0.3677 -0.4868 -0.4140
25553SOL     OW81343   0.795   7.755   1.528 -0.2377 -0.4552  0.0383
25553SOL    HW181344   0.754   7.806   1.599 -0.7428 -0.9553  0.1067
25553SOL    HW281345   0.740   7.772   1.452  0.1321 -0.1604 -0.1644
25554SOL     OW81346   4.829   5.759   7.461  0.0346 -0.5526 -0.1605
25554SOL    HW181347   4.775   5.781   7.537 -0.2183 -0.4797 -0.3594
25554SOL    HW281348   4.882   5.685   7.490  1.2230  0.5698  0.6773
25555SOL     OW81349   4.117   7.991   2.927  0.2372  0.2826  0.0489
25555SOL    HW181350   4.137   8.063   2.988 -1.4427  0.4512  0.4462
25555SOL    HW281351   4.062   8.031   2.860 -0.7180 -0.6242  0.2702
25556SOL     OW81352   5.202   3.814  11.719 -0.0747 -0.6869  0.0565
25556SOL    HW181353   5.283   3.796  11.670 -0.2431 -2.6120  0.3805
25556SOL    HW281354   5.228   3.808  11.811 -0.1601  0.9195  0.1985
25557SOL     OW81355   5.171   5.891   4.811 -0.0185 -0.3369  0.1682
25557SOL    HW181356   5.110   5.829   4.853  0.6319 -0.5614  0.8218
25557SOL    HW281357   5.250   5.838   4.794 -0.3109 -0.2850 -1.5077
25558SOL     OW81358   6.284   4.321   9.164 -0.2365  0.7960 -0.1240
25558SOL    HW181359   6.320   4.297   9.249 -0.9936 -0.0529 -0.0274
25558SOL    HW281360   6.254   4.412   9.175  2.4308  1.7978 -0.4213
25559SOL     OW81361   4.855   0.375   1.785 -0.3665  0.0924  0.1556
25559SOL    HW181362   4.933   0.344   1.739 -0.4457  1.5255 -1.0200
25559SOL    HW281363   4.863   0.338   1.873  2.3497  1.2325  0.4987
25560SOL     OW81364   6.973  10.584   1.487  0.1494 -0.1946  0.0229
25560SOL    HW181365   7.066  10.580   1.464  0.0321 -1.4578 -0.2625
25560SOL    HW281366   6.966  10.532   1.567  0.0375  1.7040  1.3059
25561SOL     OW81367   6.620   4.976   8.359  0.0072 -0.2024  0.1589
25561SOL    HW181368   6.676   4.933   8.294  1.0161  0.8187  0.3249
25561SOL    HW281369   6.600   4.907   8.422  0.6275 -0.7249 -0.2020
25562SOL     OW81370   7.746   6.860   3.626 -0.4242  0.3734 -0.0746
25562SOL    HW181371   7.824   6.899   3.586  0.3592 -2.4406 -1.5892
25562SOL    HW281372   7.728   6.915   3.702  1.5576  2.5479 -1.0534
25563SOL     OW81373   0.895   3.333   5.228  0.1951  0.7635 -0.2780
25563SOL    HW181374   0.964   3.354   5.290  0.4278  2.0236 -0.9249
25563SOL    HW281375   0.827   3.399   5.243 -1.3416 -0.9906  0.9728
25564SOL     OW81376   2.810   8.484   7.101 -0.5245 -0.8407  0.3753
25564SOL    HW181377   2.748   8.411   7.103 -0.3923 -0.9369  0.9679
25564SOL    HW281378   2.862   8.475   7.181 -0.7435  0.1114  0.6352
25565SOL     OW81379   5.935   6.053   2.685  0.1096 -0.0133  0.1159
25565SOL    HW181380   5.899   5.974   2.645  1.2627 -1.8680  2.4747
25565SOL    HW281381   5.996   6.087   2.619 -1.1484 -0.4868 -1.3470
25566SOL     OW81382   9.330   7.428   9.308  0.2910 -0.1773 -0.2462
25566SOL    HW181383   9.367   7.341   9.294  0.0531 -0.2028 -0.7413
25566SOL    HW281384   9.368   7.481   9.237  0.6432  0.1857  0.2099
25567SOL     OW81385   8.525   9.404   7.208 -0.3392  0.3805  0.5049
25567SOL    HW181386   8.502   9.496   7.195 -0.4386  0.1890 -0.7998
25567SOL    HW281387   8.578   9.381   7.132  0.8070 -0.2890  1.4740
25568SOL     OW81388   4.714   9.407   4.753  0.2694  0.6295 -0.5205
25568SOL    HW181389   4.718   9.360   4.670 -0.3923  0.5355 -0.5029
25568SOL    HW281390   4.765   9.487   4.738  3.3732 -1.0614  0.1319
25569SOL     OW81391   1.811   7.771   2.417  0.0653 -0.5405 -0.3223
25569SOL    HW181392   1.800   7.845   2.476  1.4154 -0.2038 -0.4481
25569SOL    HW281393   1.745   7.707   2.444 -1.3253  0.8148 -0.4085
25570SOL     OW81394   1.862   1.306   3.447 -0.3726 -0.4421  0.7853
25570SOL    HW181395   1.883   1.219   3.413  1.0459 -0.0397  0.5667
25570SOL    HW281396   1.943   1.336   3.488 -1.9842 -0.9658  4.8344
25571SOL     OW81397  11.057   7.288   5.280  0.0687  0.0775 -0.8444
25571SOL    HW181398  11.083   7.346   5.208 -0.8939 -0.0853 -1.3344
25571SOL    HW281399  10.971   7.256   5.255 -0.4851  0.3678  0.6040
25572SOL     OW81400   2.772   4.182   6.234 -0.4914 -0.4413 -0.0231
25572SOL    HW181401   2.805   4.136   6.158 -1.0663  1.1000 -1.2681
25572SOL    HW281402   2.680   4.156   6.241 -0.4637 -0.5108  0.0844
25573SOL     OW81403  11.209  10.646   3.447  0.1934 -0.0928  0.0181
25573SOL    HW181404  11.277  10.712   3.439 -0.4387  0.6621  0.6782
25573SOL    HW281405  11.188  10.644   3.541 -0.6880 -0.3077 -0.1708
25574SOL     OW81406   5.723   6.888   6.701  0.4154 -0.6739 -0.1033
25574SOL    HW181407   5.761   6.812   6.745 -0.1686 -1.9725 -1.7463
25574SOL    HW281408   5.708   6.859   6.611 -0.7819  1.0645 -0.5156
25575SOL     OW81409   7.284   0.594   6.966 -0.0629  0.2621  0.1419
25575SOL    HW181410   7.267   0.615   7.058  2.8710  2.3899  0.3555
25575SOL    HW281411   7.252   0.671   6.918 -0.3207 -0.2384 -0.5126
25576SOL     OW81412   0.665   6.003   9.289  0.3272 -0.5844 -0.1936
25576SOL    HW181413   0.625   5.952   9.218 -0.7796 -0.5397  0.3794
25576SOL    HW281414   0.748   6.033   9.253  0.2169 -1.3769 -1.1346
25577SOL     OW81415   4.981   1.751   8.688 -0.6660  0.7329 -0.5030
25577SOL    HW181416   5.057   1.725   8.635 -0.3685  0.5180  0.0127
25577SOL    HW281417   4.906   1.712   8.643 -0.1392 -2.2476  0.8998
25578SOL     OW81418   9.450  11.332   8.315 -0.2027  0.1533 -0.0196
25578SOL    HW181419   9.509  11.379   8.256  0.6102  0.4592  1.0128
25578SOL    HW281420   9.479  11.241   8.311 -1.0629 -0.0966 -1.1600
25579SOL     OW81421   2.579   7.374   9.765 -0.4002  0.2779  0.6717
25579SOL    HW181422   2.507   7.401   9.708  1.4012 -1.8632 -3.0406
25579SOL    HW281423   2.578   7.278   9.760  2.1349  0.1641  1.1526
25580SOL     OW81424   7.932   1.220   6.402  0.1707  0.9635 -0.0881
25580SOL    HW181425   8.024   1.199   6.389 -0.0646  0.6934 -1.4478
25580SOL    HW281426   7.901   1.154   6.464  0.8465  0.9614  0.2537
25581SOL     OW81427   5.701   3.658   5.917 -0.1155 -0.3079  0.9028
25581SOL    HW181428   5.644   3.586   5.887  2.3858 -1.8508 -0.4677
25581SOL    HW281429   5.789   3.621   5.914  1.2784  2.8224  0.2867
25582SOL     OW81430   2.414  10.673   8.372  0.6538  0.0331 -0.7375
25582SOL    HW181431   2.442  10.584   8.350  1.9173 -0.1377  1.3232
25582SOL    HW281432   2.471  10.699   8.444 -0.4843  2.0844 -0.5040
25583SOL     OW81433   7.243   2.692   2.114  0.6492 -0.2418 -0.5540
25583SOL    HW181434   7.302   2.767   2.110  0.1292  0.1354 -1.3678
25583SOL    HW281435   7.296   2.618   2.084  1.1893 -0.2346  0.3373
25584SOL     OW81436   5.980   6.856  10.592  0.4352  0.1820  0.0820
25584SOL    HW181437   6.020   6.878  10.676  0.4722  2.4710 -0.4611
25584SOL    HW281438   6.037   6.788  10.555  0.9947 -0.1145  1.4359
25585SOL     OW81439  11.436  10.583   5.235  0.1321 -0.9819 -0.2985
25585SOL    HW181440  11.354  10.598   5.283  0.8614  0.4060  0.5642
25585SOL    HW281441  11.415  10.605   5.144 -0.8694 -2.2064 -0.3860
25586SOL     OW81442  10.905   0.002   8.646  0.1913  0.0731 -0.4431
25586SOL    HW181443  10.858  -0.054   8.584  0.2201  0.6473 -1.0034
25586SOL    HW281444  10.863   0.088   8.637 -0.6104 -0.1174  1.2394
25587SOL     OW81445   3.862   1.854   5.714 -0.0757  0.1321 -0.2947
25587SOL    HW181446   3.877   1.766   5.678  0.5463  0.4363 -0.7927
25587SOL    HW281447   3.911   1.855   5.796 -0.6321 -0.2100  0.0434
25588SOL     OW81448   1.969   2.985   6.882  0.1757 -0.5208 -0.3587
25588SOL    HW181449   2.065   2.990   6.882  0.1390  0.2872 -0.7471
25588SOL    HW281450   1.941   3.062   6.931 -0.2576 -1.6519  1.2531
25589SOL     OW81451   7.200   3.180   0.780 -0.2409  0.2673 -0.1025
25589SOL    HW181452   7.294   3.170   0.787 -0.2272 -1.1510 -1.7470
25589SOL    HW281453   7.183   3.268   0.814  1.5950  0.3696  0.6595
25590SOL     OW81454   7.789   5.095   9.663  0.4706 -0.1225  0.5070
25590SOL    HW181455   7.833   5.088   9.578  1.9729  0.1303  1.2275
25590SOL    HW281456   7.846   5.152   9.715 -0.1992 -0.6026  1.8223
25591SOL     OW81457   0.478   4.609   1.920  0.5624 -0.6585 -0.1405
25591SOL    HW181458   0.501   4.666   1.993 -0.4654  0.6604 -0.8058
25591SOL    HW281459   0.556   4.609   1.864  0.2187  1.0019 -0.6649
25592SOL     OW81460   3.732   6.601  11.887 -0.5333 -0.1237 -0.5646
25592SOL    HW181461   3.737   6.515  11.930 -0.7055  0.2165  0.1620
25592SOL    HW281462   3.819   6.639  11.900 -0.9967  0.5498  0.7389
25593SOL     OW81463   0.072  11.979   0.415  0.1617  0.6280 -0.0684
25593SOL    HW181464   0.075  12.009   0.324  1.2290 -0.0974 -0.3006
25593SOL    HW281465  -0.019  11.954   0.429 -0.1641  1.3954 -0.7171
25594SOL     OW81466   6.531   9.348   2.822  0.9041  0.4574  0.0974
25594SOL    HW181467   6.566   9.364   2.910  2.3653  1.6946 -0.6844
25594SOL    HW281468   6.568   9.263   2.797  2.7304  1.3614 -0.3821
25595SOL     OW81469  10.954   8.525   2.153  0.0340 -0.1508 -0.9157
25595SOL    HW181470  11.047   8.518   2.176  0.1560  1.0631 -0.9666
25595SOL    HW281471  10.927   8.610   2.190 -1.4670 -1.1874  0.4954
25596SOL     OW81472   1.518   4.018   9.995  0.2948 -0.0138 -1.1382
25596SOL    HW181473   1.456   4.068  10.047 -2.2148 -1.8457 -2.1352
25596SOL    HW281474   1.518   4.060   9.909  1.1488  0.4732 -0.9183
25597SOL     OW81475   9.630  10.991   4.040 -0.1584  0.0168  0.8104
25597SOL    HW181476   9.585  10.913   4.073  2.1216 -0.5892  2.8644
25597SOL    HW281477   9.648  11.043   4.119  2.0490  0.5125  0.0598
25598SOL     OW81478   6.671  10.079   1.351 -0.4116  0.2495 -0.4012
25598SOL    HW181479   6.647  10.134   1.276  1.5600  2.2982  0.3550
25598SOL    HW281480   6.603  10.097   1.416 -0.6105  0.6320 -0.7115
25599SOL     OW81481   3.631  11.895   3.622  0.5933  0.0703  0.0487
25599SOL    HW181482   3.677  11.977   3.641 -1.1590  0.9480  0.6498
25599SOL    HW281483   3.577  11.915   3.546  0.8916 -0.8452 -0.4211
25600SOL     OW81484   9.883  10.439   5.404 -0.7034 -0.5032  0.1667
25600SOL    HW181485   9.926  10.506   5.350  0.0215 -2.1635 -1.4165
25600SOL    HW281486   9.955  10.396   5.450 -1.1761 -0.1455  1.2600
25601SOL     OW81487  11.277   2.794  11.609 -0.2146 -0.1089  0.3162
25601SOL    HW181488  11.301   2.796  11.702  1.1663  2.5328 -0.0148
25601SOL    HW281489  11.356   2.764  11.565 -0.7994 -1.1458 -0.0650
25602SOL     OW81490   8.518   2.046   4.953  0.0665 -0.2289 -0.4771
25602SOL    HW181491   8.597   2.079   4.997  0.1886 -0.1827 -0.7269
25602SOL    HW281492   8.452   2.041   5.022  0.0835  0.4157 -0.4096
25603SOL     OW81493   6.268   6.801   7.166 -0.2787  0.1986  0.0263
25603SOL    HW181494   6.223   6.819   7.084  0.3296  0.3412 -0.2823
25603SOL    HW281495   6.324   6.726   7.146  0.1413  0.4617  0.2068
25604SOL     OW81496   0.659   6.090   2.075 -0.6522 -0.5553 -0.2121
25604SOL    HW181497   0.574   6.132   2.090 -0.3837 -0.8590  2.9057
25604SOL    HW281498   0.701   6.091   2.161  2.9528  0.4356 -1.7938
25605SOL     OW81499   4.831   4.620   5.773  0.1862 -0.5389 -0.0578
25605SOL    HW181500   4.822   4.559   5.846 -0.2885  0.8618  1.1032
25605SOL    HW281501   4.884   4.573   5.708  1.2260 -1.5582  1.4780
25606SOL     OW81502   1.562   6.504   6.246 -0.9322 -0.4261  0.4266
25606SOL    HW181503   1.599   6.418   6.264 -1.7616 -0.5439  1.7315
25606SOL    HW281504   1.488   6.487   6.188 -1.7004 -0.7555  1.4526
25607SOL     OW81505   9.581   3.745   8.503  0.3576  0.4399 -0.1917
25607SOL    HW181506   9.614   3.680   8.441  0.1386 -1.4832  1.6056
25607SOL    HW281507   9.660   3.786   8.539  0.5132  0.8671 -1.0000
25608SOL     OW81508  11.857   6.689   7.087 -0.0317 -0.0861 -1.0548
25608SOL    HW181509  11.769   6.660   7.112  0.2197 -1.2585 -1.4462
25608SOL    HW281510  11.871   6.651   7.000  0.8178  0.1823 -1.0431
25609SOL     OW81511   5.093   0.753   8.089  0.6090 -0.4087 -0.2394
25609SOL    HW181512   5.126   0.706   8.166  0.4837  0.6327  0.4658
25609SOL    HW281513   5.063   0.837   8.123 -1.3322 -0.7072 -1.1168
25610SOL     OW81514   3.648   9.982   3.350  0.5341 -0.3265 -0.2958
25610SOL    HW181515   3.596   9.936   3.417  0.4417  0.4131  0.1562
25610SOL    HW281516   3.583  10.016   3.289  0.5663 -0.3283 -0.3310
25611SOL     OW81517  10.432   3.709   3.605 -0.4286 -0.1476  0.1248
25611SOL    HW181518  10.497   3.660   3.555  0.5253  2.1243 -1.0404
25611SOL    HW281519  10.475   3.728   3.689  1.2907  2.7838 -1.2431
25612SOL     OW81520  10.315   6.958   1.100  0.2865  0.4362 -0.0816
25612SOL    HW181521  10.242   6.925   1.047  0.0423  0.7178  0.0788
25612SOL    HW281522  10.282   6.956   1.190  0.0641  1.6472 -0.1179
25613SOL     OW81523   3.506   4.496   3.299 -0.0712  0.2396  0.0191
25613SOL    HW181524   3.501   4.470   3.391  0.4110 -0.9813 -0.2838
25613SOL    HW281525   3.599   4.514   3.284  0.0863 -0.9191 -0.5563
25614SOL     OW81526  11.750   8.629   3.549 -0.2414  0.4059 -0.1670
25614SOL    HW181527  11.735   8.538   3.573 -0.0522  0.4150 -0.0156
25614SOL    HW281528  11.708   8.638   3.463 -2.3875  0.8163  0.8467
25615SOL     OW81529   1.026   3.525   6.859  0.0315  0.1905  0.0439
25615SOL    HW181530   1.085   3.462   6.900  0.3316  0.4946  0.0831
25615SOL    HW281531   1.057   3.611   6.890 -0.1464  0.3792 -0.2970
25616SOL     OW81532   2.375   3.387   9.134 -0.1103  0.1167 -0.4885
25616SOL    HW181533   2.388   3.466   9.186  1.0371  0.1737 -0.8260
25616SOL    HW281534   2.353   3.319   9.198  4.2442 -0.5576  0.6180
25617SOL     OW81535   4.443   4.296   6.977 -0.3123  0.1041  0.4566
25617SOL    HW181536   4.446   4.379   6.929 -0.6395  0.5695  1.2033
25617SOL    HW281537   4.529   4.257   6.964 -0.3161  0.3359 -0.2940
25618SOL     OW81538   8.349   9.962   0.723  0.5017  0.1902 -0.1348
25618SOL    HW181539   8.302   9.993   0.800 -0.2603  2.3427 -1.3871
25618SOL    HW281540   8.280   9.934   0.662  1.0813 -1.2822 -0.1529
25619SOL     OW81541   5.528   8.796  10.235  0.5840 -0.4379 -0.2873
25619SOL    HW181542   5.478   8.729  10.188  1.1757 -0.0257 -1.5431
25619SOL    HW281543   5.536   8.869  10.174  0.0223  0.7776  1.0244
25620SOL     OW81544   9.181   5.181   5.374 -0.5617 -0.0640 -0.2888
25620SOL    HW181545   9.254   5.139   5.328 -2.5604 -0.2848 -3.5779
25620SOL    HW281546   9.104   5.131   5.348 -2.1441  1.1964  1.6693
25621SOL     OW81547   4.009   8.049   0.190  0.2712 -0.6761  0.1611
25621SOL    HW181548   4.085   8.099   0.161 -0.7830  2.1007  1.8658
25621SOL    HW281549   4.046   7.971   0.231  2.4080  1.4114  2.5617
25622SOL     OW81550   7.849   6.000   8.079  0.5679 -0.2805 -0.0716
25622SOL    HW181551   7.816   6.036   7.997  2.2498  1.0909 -0.1993
25622SOL    HW281552   7.772   5.994   8.136  0.0445  2.8253 -0.3129
25623SOL     OW81553   0.762   3.626   6.869  0.0949  0.2062 -0.0565
25623SOL    HW181554   0.852   3.598   6.887  0.3222  0.6170 -0.5075
25623SOL    HW281555   0.764   3.721   6.882 -0.3453  0.1794  0.2051
25624SOL     OW81556  10.477   5.834  10.602 -0.0022 -0.2367  0.1909
25624SOL    HW181557  10.416   5.906  10.586 -0.1493 -0.4557 -0.2569
25624SOL    HW281558  10.500   5.842  10.695  1.4087  1.4876 -0.2543
25625SOL     OW81559   2.858   7.113   2.751  0.1292  0.1925  0.0331
25625SOL    HW181560   2.768   7.090   2.773 -0.1254  1.0558 -0.0538
25625SOL    HW281561   2.912   7.050   2.799 -0.5288 -0.6543 -0.3217
25626SOL     OW81562   0.042  11.961   9.818 -0.0992 -0.0739  0.5387
25626SOL    HW181563   0.007  11.962   9.729  2.6469 -1.2907 -0.6645
25626SOL    HW281564  -0.022  11.911   9.868 -1.0729 -0.4849 -1.0513
25627SOL     OW81565   3.908   4.516   0.520 -0.6008  0.5018  0.0141
25627SOL    HW181566   3.989   4.474   0.549 -1.4675 -1.3471 -0.1514
25627SOL    HW281567   3.848   4.509   0.594 -0.8348  1.3300 -0.0754
25628SOL     OW81568   0.016   2.663  11.164  0.3285 -0.2456  0.0650
25628SOL    HW181569  -0.049   2.660  11.235 -0.4724 -0.4827 -0.6539
25628SOL    HW281570   0.043   2.572  11.153  0.4503 -0.2093  0.0593
25629SOL     OW81571   1.011   4.489  10.343 -0.4122 -0.6532  0.1220
25629SOL    HW181572   1.044   4.422  10.402  0.2066  1.3100  2.1487
25629SOL    HW281573   1.019   4.450  10.255  3.1670 -1.9680  0.8656
25630SOL     OW81574   8.036   1.837   7.884  0.3464 -0.6219 -0.5077
25630SOL    HW181575   8.126   1.868   7.891  0.7401 -2.0107  2.3352
25630SOL    HW281576   7.988   1.887   7.950 -0.9642 -0.0669 -1.8248
25631SOL     OW81577   1.337  10.899   9.478 -0.0570  0.0590 -0.1354
25631SOL    HW181578   1.250  10.921   9.512  0.3756  1.8116 -0.0980
25631SOL    HW281579   1.372  10.837   9.541 -0.8356  0.1962  0.4490
25632SOL     OW81580   8.501   8.487   9.903 -0.1055 -0.0030 -0.2505
25632SOL    HW181581   8.471   8.572   9.935 -0.6947 -0.6214  0.8843
25632SOL    HW281582   8.481   8.489   9.809 -2.5025  0.1270  0.2134
25633SOL     OW81583   1.137   7.482   9.463 -0.2846 -0.3938  0.6987
25633SOL    HW181584   1.109   7.565   9.501 -1.3924 -0.0117 -0.8836
25633SOL    HW281585   1.080   7.417   9.506 -2.2428  0.1454 -0.9240
25634SOL     OW81586   4.038   8.582  11.959  0.5374  0.3006 -0.2035
25634SOL    HW181587   4.003   8.550  12.042 -0.7193 -1.1365 -1.2347
25634SOL    HW281588   4.066   8.504  11.912 -1.4503  0.7198 -2.2861
25635SOL     OW81589   0.517   4.187   8.216  0.0768  0.0533  0.1548
25635SOL    HW181590   0.604   4.156   8.191 -0.7489 -1.1851 -1.3559
25635SOL    HW281591   0.484   4.121   8.277 -0.0852  0.1281  0.1500
25636SOL     OW81592   4.458   9.400  10.755  0.0792  0.2328 -0.0486
25636SOL    HW181593   4.528   9.437  10.702 -0.2470 -0.8390 -1.2818
25636SOL    HW281594   4.502   9.362  10.831  0.3616  3.7387  1.7260
25637SOL     OW81595   6.361   6.862   0.751 -0.2996  0.3264  0.2545
25637SOL    HW181596   6.317   6.795   0.699  1.3044 -1.0711  0.6214
25637SOL    HW281597   6.359   6.828   0.841  0.9553  0.5251  0.3716
25638SOL     OW81598  11.151   9.669   6.975  0.4398 -0.0099  0.2213
25638SOL    HW181599  11.077   9.683   6.917  0.1650  0.3455  0.6576
25638SOL    HW281600  11.177   9.756   7.004  0.7967 -0.1577  0.3573
25639SOL     OW81601   1.565   9.415   2.007 -0.1958  0.0714  1.1132
25639SOL    HW181602   1.480   9.441   2.042 -0.9087 -0.8272  0.0912
25639SOL    HW281603   1.553   9.414   1.913  1.5101  1.8207  0.8108
25640SOL     OW81604   5.908   6.378  10.304  0.1821 -0.2244 -0.3332
25640SOL    HW181605   6.002   6.364  10.294  0.2531 -1.0682  1.1942
25640SOL    HW281606   5.899   6.474  10.310  0.9402 -0.1353 -0.5611
25641SOL     OW81607   5.883   5.707   5.708  1.1914  0.1374 -0.0323
25641SOL    HW181608   5.818   5.748   5.765  1.4007  0.3822  0.0320
25641SOL    HW281609   5.846   5.621   5.688  0.4796  0.5675 -0.6310
25642SOL     OW81610   9.371   7.024   2.189 -0.9704  0.3690  0.0585
25642SOL    HW181611   9.330   7.106   2.163  1.5308  1.3489 -1.0929
25642SOL    HW281612   9.380   7.030   2.284 -0.1547  1.8098 -0.0847
25643SOL     OW81613   3.229   2.093   3.919  0.1695 -0.2550  0.3204
25643SOL    HW181614   3.294   2.149   3.877 -0.8719  1.3688  0.7864
25643SOL    HW281615   3.281   2.035   3.976  1.1863  1.7924  1.6091
25644SOL     OW81616   4.804   2.261   5.188 -0.3395 -0.2138  0.2646
25644SOL    HW181617   4.741   2.239   5.119  0.4019 -3.2439  0.4116
25644SOL    HW281618   4.762   2.230   5.269 -0.3788  1.5618  0.9653
25645SOL     OW81619   1.051   3.020   0.248  0.3722 -0.1548 -0.3092
25645SOL    HW181620   1.075   3.034   0.340  2.9155 -2.8236 -0.4113
25645SOL    HW281621   0.979   2.957   0.252  1.1507 -1.0497 -0.1241
25646SOL     OW81622   8.900   3.826   3.422 -0.0887  0.1154  0.5084
25646SOL    HW181623   8.972   3.829   3.486 -1.7755 -1.1477  2.6086
25646SOL    HW281624   8.928   3.761   3.358  0.8503 -0.0357  1.0519
25647SOL     OW81625   8.765  11.734   1.744  0.6559 -0.3107 -0.5376
25647SOL    HW181626   8.802  11.731   1.832 -1.0736 -0.3831  0.2304
25647SOL    HW281627   8.680  11.777   1.755  0.4080 -0.3157 -2.1733
25648SOL     OW81628   8.929   2.756   5.688  0.3520 -0.5136  0.1493
25648SOL    HW181629   8.941   2.663   5.709  0.2138 -0.2553  1.4850
25648SOL    HW281630   8.856   2.757   5.626 -0.3132 -1.2460  0.8768
25649SOL     OW81631  10.397   8.269   1.949  0.8118 -0.0116 -0.2512
25649SOL    HW181632  10.433   8.323   2.020  0.1838  0.5748 -0.3758
25649SOL    HW281633  10.309   8.246   1.978 -0.0812  1.5923 -1.5351
25650SOL     OW81634   8.977   7.273   0.374  0.1600 -0.0699  0.0527
25650SOL    HW181635   8.994   7.287   0.280  0.0268 -0.6005 -0.0577
25650SOL    HW281636   8.944   7.183   0.378 -0.7406  0.2668  0.4977
25651SOL     OW81637   4.055  10.269   9.684  0.0864  0.2748  0.1869
25651SOL    HW181638   4.050  10.218   9.765 -0.0409  0.9892  0.6283
25651SOL    HW281639   4.108  10.345   9.706  2.7325 -1.0208 -1.1978
25652SOL     OW81640   2.114  10.192   3.632  0.1782 -0.0208  0.6106
25652SOL    HW181641   2.195  10.226   3.669  1.0612 -1.1396 -0.2369
25652SOL    HW281642   2.134  10.175   3.540 -1.3009  0.5716  0.1434
25653SOL     OW81643   9.083   9.403   8.103  0.3809  0.3811  0.8915
25653SOL    HW181644   9.116   9.493   8.098 -0.1786  0.5518  0.1565
25653SOL    HW281645   8.991   9.413   8.126  0.3026 -0.0026  0.7442
25654SOL     OW81646   1.176   9.389   3.884  0.2460 -0.5232  0.2240
25654SOL    HW181647   1.193   9.302   3.919 -0.7513 -0.0369  2.0093
25654SOL    HW281648   1.107   9.376   3.819 -0.7918 -0.9265  1.3762
25655SOL     OW81649   1.107   3.051   4.150 -0.3088 -0.4587 -0.0008
25655SOL    HW181650   1.071   3.126   4.103 -0.5485 -1.7134 -1.9339
25655SOL    HW281651   1.068   3.056   4.237  0.3489  2.0970  0.2230
25656SOL     OW81652   5.016   3.786  10.124  0.1409  0.5162 -0.0700
25656SOL    HW181653   4.927   3.809  10.151 -0.5405 -1.7589 -0.1282
25656SOL    HW281654   5.004   3.720  10.056  1.8380 -1.0095  0.9941
25657SOL     OW81655   8.443   9.208   8.085 -0.1040 -0.3061  0.0990
25657SOL    HW181656   8.369   9.253   8.044 -0.4264 -0.7520  0.1907
25657SOL    HW281657   8.407   9.169   8.164  0.0519 -1.1598 -0.2428
25658SOL     OW81658   4.169   1.590   5.175  0.3875 -0.4231 -0.2449
25658SOL    HW181659   4.128   1.505   5.190  1.6192 -0.9490  0.2904
25658SOL    HW281660   4.258   1.568   5.148  0.8082  0.7039  0.1931
25659SOL     OW81661   1.876  10.349   0.905 -0.3271  0.0709  0.2527
25659SOL    HW181662   1.791  10.379   0.872  0.9128  2.4630 -0.9882
25659SOL    HW281663   1.899  10.277   0.846 -1.9273 -1.3775  1.2954
25660SOL     OW81664   4.095   2.501   8.253  0.2351 -0.4553  0.0797
25660SOL    HW181665   4.136   2.564   8.312 -1.0218  1.1813 -0.6937
25660SOL    HW281666   4.001   2.521   8.257 -0.1623 -1.9986 -0.5439
25661SOL     OW81667   1.286  11.507   8.081  0.0576  0.4750 -0.6977
25661SOL    HW181668   1.319  11.576   8.024 -0.5518  1.9600  0.6774
25661SOL    HW281669   1.239  11.448   8.022  0.0168  1.5804 -1.8145
25662SOL     OW81670   4.606   5.108   7.153 -0.2729  0.4774 -0.7313
25662SOL    HW181671   4.596   5.186   7.207  3.2642  0.4681  0.1787
25662SOL    HW281672   4.672   5.132   7.088  0.4965 -1.5549 -0.7775
25663SOL     OW81673   9.584   1.771   0.118 -0.0550  0.1346  0.1355
25663SOL    HW181674   9.576   1.844   0.179  0.5428  1.1495 -0.9375
25663SOL    HW281675   9.573   1.811   0.031 -0.1654 -1.1294 -0.4615
25664SOL     OW81676   1.282   6.523   0.299 -0.3061 -0.0929  0.2637
25664SOL    HW181677   1.363   6.561   0.265 -0.8136 -0.4591 -1.4470
25664SOL    HW281678   1.214   6.585   0.274 -0.9198 -1.2503 -1.0748
25665SOL     OW81679   6.419   8.529   5.939 -0.2639  0.1034 -0.2188
25665SOL    HW181680   6.407   8.454   5.879 -0.5190  0.9207 -1.2185
25665SOL    HW281681   6.446   8.489   6.022  2.2199 -0.9744 -1.4315
25666SOL     OW81682   4.977   1.140   2.740 -0.1826  0.1437  0.0476
25666SOL    HW181683   5.061   1.124   2.697  0.3575  0.0374  1.1104
25666SOL    HW281684   4.976   1.234   2.757  0.4943 -0.0939  1.5486
25667SOL     OW81685   1.538   3.088   9.459  0.0618 -0.6911 -0.1400
25667SOL    HW181686   1.587   3.084   9.541  2.5172  0.1856 -1.4286
25667SOL    HW281687   1.523   3.182   9.445  1.1799 -0.6574 -1.4189
25668SOL     OW81688   1.154  10.819  10.503  0.1186  0.2403 -0.0406
25668SOL    HW181689   1.083  10.763  10.534  1.3422 -2.2358 -1.3876
25668SOL    HW281690   1.166  10.884  10.572 -3.0234  0.4203  0.4758
25669SOL     OW81691   1.203   8.783   8.786  0.3159  0.3434  0.3104
25669SOL    HW181692   1.117   8.746   8.763  0.6193 -0.4223  0.3870
25669SOL    HW281693   1.212   8.859   8.729 -1.1180  1.4087  1.4196
25670SOL     OW81694   8.086   1.266   4.739  0.1864  0.1116 -0.1270
25670SOL    HW181695   8.135   1.215   4.675  0.5886  0.9496 -0.4988
25670SOL    HW281696   8.151   1.323   4.780 -0.3728  0.8111 -0.2026
25671SOL     OW81697   4.539   0.211   6.648 -0.0953  0.0767  0.3449
25671SOL    HW181698   4.580   0.189   6.564 -0.8465  1.4469 -0.4217
25671SOL    HW281699   4.447   0.185   6.637 -0.7100  2.2141 -0.1128
25672SOL     OW81700   1.227   6.978   4.866  0.1259 -0.0125 -0.1490
25672SOL    HW181701   1.214   7.072   4.854  2.5034  0.1698 -2.1095
25672SOL    HW281702   1.173   6.937   4.799 -1.0278 -0.1154  0.8010
25673SOL     OW81703   2.032   5.686  11.834 -0.1030  0.2767  0.6266
25673SOL    HW181704   1.959   5.725  11.881 -1.2313 -0.9532 -0.0499
25673SOL    HW281705   2.014   5.704  11.741 -0.3794 -1.3290  0.3401
25674SOL     OW81706  11.643   8.526  10.831 -0.7130  0.3452  0.3822
25674SOL    HW181707  11.675   8.616  10.841 -0.9214  0.4840 -0.1858
25674SOL    HW281708  11.717   8.472  10.856 -0.8444  0.6689  1.5359
25675SOL     OW81709   1.052   1.303   6.616  0.0056 -0.6108  0.0808
25675SOL    HW181710   1.033   1.363   6.543  2.3922  0.6136  0.3774
25675SOL    HW281711   1.084   1.223   6.575  2.2972  0.4206 -0.3071
25676SOL     OW81712  11.337   0.072  10.628  0.1852 -0.9543 -0.0901
25676SOL    HW181713  11.353   0.096  10.719 -2.0779  1.1797 -0.1437
25676SOL    HW281714  11.253   0.027  10.629 -1.0589  1.1873 -1.3151
25677SOL     OW81715   0.507   1.293   9.455 -0.4586  0.7223 -0.1590
25677SOL    HW181716   0.465   1.340   9.383 -1.7203 -0.5759 -0.3103
25677SOL    HW281717   0.496   1.351   9.531  0.2125  1.7553 -0.8228
25678SOL     OW81718   0.962   0.920   6.251  0.3345 -0.3190 -0.1105
25678SOL    HW181719   1.056   0.929   6.239  0.3530 -1.5004 -1.0428
25678SOL    HW281720   0.924   0.977   6.184  0.3926 -0.1698 -0.0165
25679SOL     OW81721   9.878   0.978  11.581 -0.6544 -0.3093  0.5052
25679SOL    HW181722   9.785   0.991  11.559 -0.7121 -2.2074 -0.6210
25679SOL    HW281723   9.921   1.057  11.548 -1.8743  0.7660  1.3429
25680SOL     OW81724  11.508   6.807   3.736 -0.0226  0.5065  0.4207
25680SOL    HW181725  11.575   6.744   3.709  0.0238  0.7892 -0.1578
25680SOL    HW281726  11.435   6.791   3.677 -0.9670 -0.6191  1.8333
25681SOL     OW81727   5.532   4.822   9.614 -0.4045 -1.3920  0.4598
25681SOL    HW181728   5.574   4.908   9.612  1.2023 -2.1190  1.0639
25681SOL    HW281729   5.439   4.841   9.627  0.0635  0.2165  1.7493
25682SOL     OW81730   4.805   4.550   7.594  0.3743 -0.0306  0.2292
25682SOL    HW181731   4.716   4.519   7.580 -0.1260  1.7638 -0.8935
25682SOL    HW281732   4.860   4.478   7.563 -0.6998 -0.4582 -0.7796
25683SOL     OW81733   5.911   0.494   4.774  0.3329  0.4848 -0.8396
25683SOL    HW181734   5.945   0.566   4.719  3.3764 -1.2124 -1.4162
25683SOL    HW281735   5.905   0.420   4.714 -0.2961 -0.3917  0.2890
25684SOL     OW81736   0.855   7.797   2.178  0.0443 -0.1776 -0.3270
25684SOL    HW181737   0.870   7.892   2.181 -1.7341  0.1675 -1.0231
25684SOL    HW281738   0.763   7.787   2.202  0.4558 -1.8365  0.7292
25685SOL     OW81739   5.638   7.647   0.864  0.2400  0.2123 -0.3705
25685SOL    HW181740   5.645   7.742   0.862 -0.7416  0.3162  0.4429
25685SOL    HW281741   5.727   7.617   0.884  0.5729  0.9512 -0.7233
25686SOL     OW81742   2.408   8.657   0.285  0.1405  0.2438 -0.8920
25686SOL    HW181743   2.490   8.706   0.278  0.7053 -0.9242 -4.6041
25686SOL    HW281744   2.356   8.688   0.211 -1.7091 -0.9290 -0.1439
25687SOL     OW81745   2.394   9.859  11.289  0.5654 -0.5969 -0.4647
25687SOL    HW181746   2.324   9.803  11.255 -1.1107  1.8706 -1.3425
25687SOL    HW281747   2.417   9.916  11.216  0.6691  1.2939  0.9730
25688SOL     OW81748   9.743   2.745  10.091 -0.0153  0.4760 -0.0735
25688SOL    HW181749   9.836   2.756  10.108 -0.0882 -0.7692  1.3796
25688SOL    HW281750   9.718   2.667  10.141 -1.5312 -0.1173 -1.6154
25689SOL     OW81751  10.897  10.069  10.781 -0.5597  0.9731 -0.6284
25689SOL    HW181752  10.929  10.150  10.822 -0.3893 -0.4377  2.3073
25689SOL    HW281753  10.804  10.067  10.801 -0.4061  0.0878  0.0770
25690SOL     OW81754   8.745   9.000   2.636 -0.1181 -0.3083  0.0473
25690SOL    HW181755   8.752   9.063   2.707  2.7565  0.8990 -1.1504
25690SOL    HW281756   8.819   8.940   2.649 -1.9979 -2.7065  0.3776
25691SOL     OW81757   1.628   9.087   4.229  0.6818 -0.1949 -0.6789
25691SOL    HW181758   1.581   9.038   4.296  0.6110  1.8727  0.8873
25691SOL    HW281759   1.710   9.038   4.216  1.3909  0.1234  2.0915
25692SOL     OW81760   7.521   4.349   4.749 -0.2233  0.0049  0.6213
25692SOL    HW181761   7.490   4.298   4.824  0.1065 -0.2662  0.5750
25692SOL    HW281762   7.518   4.440   4.779  0.9814 -0.1813  1.3545
25693SOL     OW81763  11.992   1.206  10.999  0.2128  0.1012  0.5124
25693SOL    HW181764  11.960   1.296  10.990  1.5704  0.6425  0.8484
25693SOL    HW281765  12.084   1.211  10.974 -0.4144 -1.8439 -2.8903
25694SOL     OW81766   4.910   6.452   0.701 -0.7317 -0.3189  0.0378
25694SOL    HW181767   4.885   6.456   0.608 -0.5991 -0.9777 -0.0307
25694SOL    HW281768   4.827   6.435   0.747 -0.8920  0.5964  0.0998
25695SOL     OW81769  11.326   7.217  10.173  0.0407  0.3982 -0.5517
25695SOL    HW181770  11.261   7.213  10.243 -0.3785  0.3142 -0.9396
25695SOL    HW281771  11.319   7.306  10.139 -1.1347 -0.1260 -1.7657
25696SOL     OW81772   9.578   9.147   6.912 -0.5447  1.0894  0.3639
25696SOL    HW181773   9.664   9.124   6.947 -0.9877  1.1043  1.5226
25696SOL    HW281774   9.596   9.215   6.846  0.3102  1.2877  0.7871
25697SOL     OW81775  11.607   4.645   3.140 -0.5959  0.3616  0.0839
25697SOL    HW181776  11.647   4.728   3.113 -0.6721  0.0913 -0.9080
25697SOL    HW281777  11.610   4.647   3.236  2.4919  0.0373  0.1022
25698SOL     OW81778  10.773   6.641   8.999  0.6446  0.0157  0.2990
25698SOL    HW181779  10.744   6.567   9.053 -0.1392  0.1239  0.0385
25698SOL    HW281780  10.704   6.706   9.008  0.1719 -0.2200 -1.3458
25699SOL     OW81781  10.369   5.622   4.122  0.0288 -0.1437 -0.0451
25699SOL    HW181782  10.364   5.529   4.140 -0.0897 -0.4809 -1.6541
25699SOL    HW281783  10.341   5.630   4.031 -0.9601  1.5811  0.3636
25700SOL     OW81784  11.101   0.033   3.180 -0.2266  0.0795 -0.1431
25700SOL    HW181785  11.116  -0.035   3.246 -0.5576  0.9494  0.8447
25700SOL    HW281786  11.026   0.002   3.130  0.8311 -1.2188 -0.9847
25701SOL     OW81787   1.116   4.443  11.819  0.0618 -0.0208 -0.2981
25701SOL    HW181788   1.143   4.443  11.911  1.0523  0.6632 -0.5708
25701SOL    HW281789   1.098   4.534  11.799 -1.9169 -0.3698 -0.3208
25702SOL     OW81790   1.096   2.873   4.503 -0.5991  0.0795  0.6435
25702SOL    HW181791   1.181   2.916   4.511  0.1868 -1.2753 -0.0359
25702SOL    HW281792   1.115   2.780   4.514 -1.7997 -0.3630 -0.6905
25703SOL     OW81793   9.200   2.007   7.294 -0.1209 -0.9117  0.1736
25703SOL    HW181794   9.275   2.006   7.353  0.5129  0.1355 -0.5789
25703SOL    HW281795   9.139   2.071   7.331 -0.4611 -1.4414  0.5478
25704SOL     OW81796   2.828   5.481   0.589  0.1376  0.7304  0.6995
25704SOL    HW181797   2.773   5.475   0.511  1.5533  0.3053 -0.3029
25704SOL    HW281798   2.822   5.572   0.616 -0.8336  0.7464  0.4544
25705SOL     OW81799  10.021   3.188  10.688  0.0930 -0.1358  0.2590
25705SOL    HW181800  10.050   3.234  10.767 -0.9454  2.1336 -0.5766
25705SOL    HW281801  10.102   3.154  10.649  1.0183  1.3815  0.7381
25706SOL     OW81802   2.647   4.235   7.683  0.0742 -0.1494 -0.3219
25706SOL    HW181803   2.739   4.261   7.678  0.1183 -0.5673 -2.4867
25706SOL    HW281804   2.600   4.314   7.710  0.5178  1.5726 -4.0807
25707SOL     OW81805   3.686   8.124   5.972  0.6312  0.1412 -0.1648
25707SOL    HW181806   3.597   8.114   6.007 -0.0759  0.6327 -1.7462
25707SOL    HW281807   3.676   8.120   5.877  2.6571 -2.4875 -0.3976
25708SOL     OW81808   3.071   3.610   8.746  0.7060 -1.3012  0.3573
25708SOL    HW181809   3.130   3.543   8.711  0.4628 -0.9586 -0.7710
25708SOL    HW281810   2.999   3.612   8.683  0.9632  0.3816  0.0707
25709SOL     OW81811   1.532   8.722  11.032  0.1370 -0.1206 -0.4969
25709SOL    HW181812   1.513   8.793  10.970 -1.9213 -1.4298 -1.4863
25709SOL    HW281813   1.505   8.756  11.117  0.1747  0.6343 -0.7763
25710SOL     OW81814   8.827   4.534   0.958  0.2900 -0.5493  0.0311
25710SOL    HW181815   8.808   4.578   1.041  1.7461  0.3531 -0.0729
25710SOL    HW281816   8.745   4.539   0.909  0.1879  1.4685  0.3030
25711SOL     OW81817   6.499   0.333   6.128  0.7715  0.1517 -0.5846
25711SOL    HW181818   6.447   0.340   6.208 -0.3566  1.2005 -1.3766
25711SOL    HW281819   6.490   0.418   6.085  0.8218 -0.5815 -2.1403
25712SOL     OW81820  11.819   3.426   0.491  0.0749  0.0786  0.1746
25712SOL    HW181821  11.903   3.405   0.450  0.2051 -0.2313  0.5895
25712SOL    HW281822  11.836   3.505   0.543 -0.0141  0.2954 -0.1229
25713SOL     OW81823   9.597   2.793   0.010 -0.5551  0.0897  0.6510
25713SOL    HW181824   9.560   2.719  -0.039  2.8109  0.5385 -3.1162
25713SOL    HW281825   9.663   2.754   0.067 -1.0274 -0.0256  1.1282
25714SOL     OW81826   3.409   8.640   7.794 -0.0874 -0.1791  0.0013
25714SOL    HW181827   3.500   8.663   7.814 -0.1216  0.2116 -0.2737
25714SOL    HW281828   3.376   8.715   7.745 -0.1690 -0.8823 -1.0504
25715SOL     OW81829   1.830   8.716   5.307  0.4783  0.1433  0.0777
25715SOL    HW181830   1.758   8.772   5.278  0.9579  0.4952 -0.4593
25715SOL    HW281831   1.909   8.768   5.290  0.9560 -0.8282 -0.7957
25716SOL     OW81832   8.763   2.102  11.773 -0.1346 -0.3982  0.4216
25716SOL    HW181833   8.708   2.026  11.752 -0.2163 -0.3370  0.4149
25716SOL    HW281834   8.833   2.100  11.708  1.2198 -1.8464  1.8318
25717SOL     OW81835   8.480   5.623   1.233 -0.0286 -0.0290  0.7854
25717SOL    HW181836   8.469   5.712   1.201 -0.9959  0.2553  1.8451
25717SOL    HW281837   8.462   5.568   1.157 -0.0279  0.6631  0.2700
25718SOL     OW81838   0.730   0.430   5.964 -0.5578  0.2633  0.6092
25718SOL    HW181839   0.759   0.511   6.006  1.7030  0.3618 -0.9667
25718SOL    HW281840   0.721   0.453   5.871 -1.5208 -0.9004  0.3854
25719SOL     OW81841   6.322   5.797   1.435  0.4762 -0.2745 -0.1619
25719SOL    HW181842   6.266   5.727   1.468 -2.9600  2.0886 -0.3993
25719SOL    HW281843   6.408   5.780   1.474 -0.7125 -3.3698  1.4340
25720SOL     OW81844   7.752   5.006  10.304 -0.4635  0.2283 -0.2665
25720SOL    HW181845   7.824   5.053  10.262  0.5481  0.2802  1.4416
25720SOL    HW281846   7.781   4.915  10.309 -0.6399  0.1917  0.1568
25721SOL     OW81847  10.880   2.810   3.718  0.2195 -0.0922 -0.1836
25721SOL    HW181848  10.847   2.884   3.769  1.5751 -0.6235  1.5437
25721SOL    HW281849  10.961   2.842   3.679  0.3609 -0.3915 -0.1353
25722SOL     OW81850   2.228   3.554   6.516  0.6576  0.1230 -0.3836
25722SOL    HW181851   2.260   3.492   6.582 -0.3514  2.3075  2.3388
25722SOL    HW281852   2.145   3.517   6.487  0.4550 -0.1978  0.5763
25723SOL     OW81853   7.656  11.046   8.173  0.4350  0.1555  0.0521
25723SOL    HW181854   7.667  11.036   8.268 -0.2175  1.5912  0.3055
25723SOL    HW281855   7.644  11.140   8.160 -0.2896 -0.1051 -1.3732
25724SOL     OW81856   7.416   8.860   9.622  0.0449  0.5302 -0.8187
25724SOL    HW181857   7.429   8.955   9.616 -0.5891  0.6360 -0.6062
25724SOL    HW281858   7.473   8.833   9.694 -0.6417  0.9367 -0.1015
25725SOL     OW81859   2.352   9.028   9.353  0.2086 -0.4919  0.5479
25725SOL    HW181860   2.374   8.938   9.331  0.0942  0.1414 -2.6244
25725SOL    HW281861   2.428   9.060   9.402  1.6552 -1.4650 -0.9398
25726SOL     OW81862   4.688   1.198   8.469  0.5164 -0.1322  0.5593
25726SOL    HW181863   4.611   1.226   8.519  0.3591  0.3878  0.0395
25726SOL    HW281864   4.760   1.250   8.505  0.2742  0.7629 -0.2192
25727SOL     OW81865  10.656   3.550   0.378  0.2791  0.8073  0.0010
25727SOL    HW181866  10.563   3.570   0.365 -0.1504 -0.7862  0.4845
25727SOL    HW281867  10.673   3.478   0.317  0.5074 -0.7073  1.7963
25728SOL     OW81868   5.300   3.860  11.318 -0.1205  0.6440 -0.0873
25728SOL    HW181869   5.278   3.775  11.281  1.8684  0.3518 -0.6854
25728SOL    HW281870   5.394   3.855  11.338 -0.5350  1.6728  2.6767
25729SOL     OW81871   4.430   9.172   9.814 -0.0697 -0.3306 -0.1945
25729SOL    HW181872   4.522   9.193   9.832 -0.0795 -0.0427 -0.4811
25729SOL    HW281873   4.405   9.231   9.743 -0.9976  0.8457  1.0730
25730SOL     OW81874  10.473   1.735   9.547  0.3611  0.2851  0.2719
25730SOL    HW181875  10.568   1.734   9.542  0.3900 -0.0403  0.8149
25730SOL    HW281876  10.445   1.771   9.463  0.8492 -2.9908 -1.4450
25731SOL     OW81877   5.708   1.993   6.267  0.9157 -0.2850  0.1771
25731SOL    HW181878   5.704   2.008   6.173 -2.8962  1.4917  0.4499
25731SOL    HW281879   5.722   1.898   6.276 -2.0493 -1.0929 -2.2838
25732SOL     OW81880   7.823   9.244   1.215 -0.1080  0.1820 -0.0889
25732SOL    HW181881   7.730   9.258   1.229 -0.3655  0.3767 -1.7353
25732SOL    HW281882   7.843   9.164   1.262 -0.7205  0.9835  1.6304
25733SOL     OW81883   8.654   3.392  11.575  0.4454  0.3768 -0.3260
25733SOL    HW181884   8.734   3.435  11.606 -0.0776 -0.2942  2.2099
25733SOL    HW281885   8.685   3.314  11.530  1.2434  0.1123  0.6334
25734SOL     OW81886   0.807   0.523   3.132  0.4939  0.6013  0.3247
25734SOL    HW181887   0.857   0.546   3.054 -0.5335  0.4317 -0.3919
25734SOL    HW281888   0.720   0.560   3.118 -0.0940 -0.5340  0.7913
25735SOL     OW81889   1.915   1.798   0.117 -0.1958  0.3416 -0.0222
25735SOL    HW181890   1.899   1.890   0.097  0.3843  0.5918  0.6217
25735SOL    HW281891   1.989   1.799   0.178 -0.1189 -0.5565 -0.0851
25736SOL     OW81892  11.299   0.828   2.933  0.3409 -0.1971  0.4546
25736SOL    HW181893  11.256   0.743   2.919  0.2002 -0.1298  0.4793
25736SOL    HW281894  11.293   0.872   2.848 -1.3996  0.6207  0.9714
25737SOL     OW81895  10.406   1.789   6.009 -0.0075 -0.0020  0.2439
25737SOL    HW181896  10.426   1.851   6.079 -0.1208 -1.2064  1.3780
25737SOL    HW281897  10.361   1.841   5.943  1.8395  1.5801  0.1536
25738SOL     OW81898   5.901   7.071   9.266  0.2920 -0.4832 -0.0751
25738SOL    HW181899   5.908   6.992   9.211  1.5704  0.3743 -1.1980
25738SOL    HW281900   5.966   7.057   9.335 -1.3802 -1.6042  1.3649
25739SOL     OW81901  10.167   9.229   3.029 -0.0219 -0.1790 -0.1910
25739SOL    HW181902  10.154   9.136   3.051 -2.2336  0.3661  1.0996
25739SOL    HW281903  10.158   9.275   3.112  1.0535  1.2191 -0.8097
25740SOL     OW81904   9.867   0.923   7.965  0.6644  0.3934 -0.1596
25740SOL    HW181905   9.939   0.863   7.982  0.0585 -0.7829 -1.5643
25740SOL    HW281906   9.896   0.976   7.891  0.3671  0.4040 -0.2727
25741SOL     OW81907   0.028   6.921   9.301 -0.4380 -0.4712 -0.2567
25741SOL    HW181908   0.022   6.996   9.361  1.0259  0.3038 -1.0363
25741SOL    HW281909   0.092   6.948   9.235  1.6707 -3.1615  0.5114
25742SOL     OW81910   7.877  11.619   6.196 -0.2763 -0.3633 -0.0394
25742SOL    HW181911   7.947  11.681   6.178 -1.3943  0.6758 -1.0239
25742SOL    HW281912   7.859  11.629   6.290 -1.2308  1.7225 -0.3975
25743SOL     OW81913   8.505   4.299   1.518  1.1338 -0.6239  0.0054
25743SOL    HW181914   8.585   4.247   1.516  1.5817 -0.1308  2.5656
25743SOL    HW281915   8.531   4.383   1.555 -0.0381  0.6640 -1.8798
25744SOL     OW81916   0.316   1.337   2.598 -0.1312 -0.2120 -0.8211
25744SOL    HW181917   0.369   1.409   2.563 -0.0686 -0.4745 -1.2673
25744SOL    HW281918   0.234   1.341   2.549 -0.5854  0.2771 -0.0383
25745SOL     OW81919   4.177   4.533   2.207 -0.1492  0.0999  0.2965
25745SOL    HW181920   4.090   4.499   2.226 -0.8857  1.8575  0.2287
25745SOL    HW281921   4.176   4.552   2.114 -0.4636  2.1436  0.6847
25746SOL     OW81922   3.027   5.682   6.973  0.3380 -0.2971 -0.2176
25746SOL    HW181923   3.016   5.704   7.066  0.7698  0.9226 -0.4333
25746SOL    HW281924   2.954   5.725   6.930  0.2665 -0.6776 -0.4795
25747SOL     OW81925   2.369   4.206   0.421  0.2145  0.1226 -0.3618
25747SOL    HW181926   2.456   4.237   0.445  0.6450 -1.5268  0.2926
25747SOL    HW281927   2.384   4.147   0.347 -0.3538 -0.0709 -0.3301
25748SOL     OW81928   5.871   0.024   3.215 -0.2119  0.4416 -0.1173
25748SOL    HW181929   5.958  -0.001   3.186 -1.2552 -0.6922 -2.5914
25748SOL    HW281930   5.884   0.106   3.263  2.1863  0.2758 -0.3863
25749SOL     OW81931   7.297   3.097   7.395  0.3900  0.1015  0.7209
25749SOL    HW181932   7.328   3.023   7.448  1.7610 -0.9154 -1.3488
25749SOL    HW281933   7.226   3.135   7.446  0.6603 -1.7083  2.5796
25750SOL     OW81934   9.609  10.009   0.555 -0.1829 -0.5274  0.1537
25750SOL    HW181935   9.520  10.034   0.531  0.3334  1.4047  0.0600
25750SOL    HW281936   9.665  10.068   0.504  1.1002 -0.6970  1.3100
25751SOL     OW81937   0.093   1.378   8.441 -0.0129  0.4065 -0.3632
25751SOL    HW181938   0.170   1.369   8.497 -0.4988  0.1785  0.2833
25751SOL    HW281939   0.056   1.289   8.437 -1.0593  0.7771  0.5427
25752SOL     OW81940   7.243  10.723   7.145 -0.0064  0.0247 -0.0978
25752SOL    HW181941   7.309  10.735   7.214 -0.1003 -1.1664  0.2261
25752SOL    HW281942   7.213  10.633   7.157 -1.7189  0.5432 -0.2247
25753SOL     OW81943   0.946   5.480   9.104 -0.4079 -0.2133 -0.1083
25753SOL    HW181944   0.983   5.553   9.055  1.2214 -0.9252  0.0188
25753SOL    HW281945   0.933   5.515   9.193  0.7456 -0.1872  0.0592
25754SOL     OW81946   4.548   9.747   8.954 -0.4304  0.3220 -0.0089
25754SOL    HW181947   4.490   9.798   8.896 -0.0475  0.2542 -0.4587
25754SOL    HW281948   4.500   9.742   9.037 -0.5749  1.2149 -0.0279
25755SOL     OW81949   7.209   7.474   3.897  0.0065  0.0817  0.2945
25755SOL    HW181950   7.274   7.517   3.842  2.8096 -1.1969  2.3635
25755SOL    HW281951   7.223   7.512   3.984 -0.2318 -2.0283  1.3063
25756SOL     OW81952   8.086   9.929  11.873 -0.4797  0.0795 -0.0411
25756SOL    HW181953   8.022   9.957  11.808  0.3661 -0.0039 -0.9363
25756SOL    HW281954   8.154   9.884  11.822 -0.5276 -1.3066  1.0668
25757SOL     OW81955   6.229  11.159   7.225  0.0124  0.3462  0.0967
25757SOL    HW181956   6.222  11.065   7.212 -0.3104  0.5055 -0.9492
25757SOL    HW281957   6.323  11.178   7.217  0.0579  0.1419  0.1481
25758SOL     OW81958   2.078   0.426   0.815  0.4419 -0.3578 -0.2978
25758SOL    HW181959   2.113   0.352   0.766  0.3600  1.0361 -2.5704
25758SOL    HW281960   2.154   0.479   0.836  0.4340 -0.7717  0.8544
25759SOL     OW81961   3.739   4.414  10.947  0.6795 -0.3083  0.2416
25759SOL    HW181962   3.742   4.332  10.897  1.2054 -0.2736  0.2156
25759SOL    HW281963   3.651   4.415  10.985  0.0520 -0.0828 -1.1226
25760SOL     OW81964   6.346   1.244   5.708 -0.3147  0.0413  0.1625
25760SOL    HW181965   6.367   1.296   5.630 -0.4393  1.3214  0.9649
25760SOL    HW281966   6.361   1.154   5.680  0.5643  0.5336 -1.0639
25761SOL     OW81967  10.565   2.837  11.206  0.2443 -0.0476  0.2935
25761SOL    HW181968  10.586   2.770  11.141  0.9080 -0.3224  0.7821
25761SOL    HW281969  10.597   2.918  11.168  3.3640 -0.5818  1.4695
25762SOL     OW81970  10.276   2.438   6.933 -0.3656  0.1444 -0.1403
25762SOL    HW181971  10.252   2.530   6.920 -0.5665  0.3235  1.3229
25762SOL    HW281972  10.229   2.391   6.865  0.9952  1.2646 -1.9429
25763SOL     OW81973   7.008   5.819  10.800  1.0219 -0.3859  0.0872
25763SOL    HW181974   7.055   5.900  10.778 -0.8890  0.3717 -1.5699
25763SOL    HW281975   7.013   5.813  10.895  0.5549  2.1397  0.3458
25764SOL     OW81976   8.019   7.379   4.534 -0.2085  0.1161 -0.4362
25764SOL    HW181977   8.038   7.290   4.564  0.8359 -0.1465 -1.8150
25764SOL    HW281978   7.966   7.368   4.455 -1.3071  0.7709  0.1719
25765SOL     OW81979   6.757   4.298   3.974  0.0624  0.1681  0.1752
25765SOL    HW181980   6.667   4.264   3.977  0.4871 -0.9594  0.7300
25765SOL    HW281981   6.751   4.377   3.920 -1.2241 -0.0105  0.0267
25766SOL     OW81982   8.339   1.982  10.540 -0.6839  0.2934 -0.1474
25766SOL    HW181983   8.251   1.957  10.569 -0.3505  0.0528  0.6805
25766SOL    HW281984   8.326   2.019  10.453 -1.8030  1.6378  0.5598
25767SOL     OW81985  11.322   7.545  10.956  0.1745  0.1178 -0.2847
25767SOL    HW181986  11.310   7.631  10.915  1.3305  0.0412 -0.8278
25767SOL    HW281987  11.371   7.494  10.892 -1.8929 -1.5242 -0.6573
25768SOL     OW81988  11.855  10.806   6.645 -0.2725  0.0949  0.2963
25768SOL    HW181989  11.940  10.811   6.687 -0.5005 -0.6535  0.8724
25768SOL    HW281990  11.794  10.838   6.711 -0.6119 -0.8992  0.4838
25769SOL     OW81991   5.535  10.437   0.006  0.0709  0.0808 -0.3638
25769SOL    HW181992   5.518  10.407  -0.084 -1.3288 -2.2450  0.5870
25769SOL    HW281993   5.627  10.462   0.006  0.1354  0.0308 -2.4183
25770SOL     OW81994   3.415   0.074  11.673 -0.0602 -0.3748 -0.0977
25770SOL    HW181995   3.415   0.168  11.655  1.8449 -0.3372 -0.0613
25770SOL    HW281996   3.442   0.034  11.590  0.5908 -0.7749  0.2991
25771SOL     OW81997   1.466   3.099   3.261  0.0632  0.4731 -0.3159
25771SOL    HW181998   1.415   3.045   3.321  1.6971 -0.6325  0.1438
25771SOL    HW281999   1.512   3.036   3.205  1.4027  1.3921 -0.2964
25772SOL     OW82000   1.142   9.474   6.241  0.9441 -0.0646  0.4355
25772SOL    HW182001   1.164   9.383   6.221  3.4078  0.7308 -0.9773
25772SOL    HW282002   1.221   9.510   6.281  0.8521  1.9931 -1.0493
25773SOL     OW82003   1.229   7.864   1.321  0.0785  0.6027  0.0955
25773SOL    HW182004   1.317   7.896   1.300  1.2290 -0.2574  3.0601
25773SOL    HW282005   1.207   7.908   1.403 -1.5265 -0.4878  0.2938
25774SOL     OW82006   5.879   7.330   9.838  0.0129 -0.0810  0.3923
25774SOL    HW182007   5.930   7.253   9.814  1.6018  1.4277 -1.4788
25774SOL    HW282008   5.905   7.349   9.928  1.9069 -0.0900 -0.0906
25775SOL     OW82009   1.405  11.721  10.403  0.2640 -0.0683 -0.2644
25775SOL    HW182010   1.422  11.654  10.337  0.7968 -0.8078  0.5989
25775SOL    HW282011   1.474  11.786  10.391  0.5527 -0.3672 -0.2342
25776SOL     OW82012   9.040   5.394   6.250  0.4129 -0.1820 -0.3421
25776SOL    HW182013   9.113   5.369   6.194  0.6233 -0.5630  0.0893
25776SOL    HW282014   9.005   5.310   6.282  0.0631  0.0131 -0.2029
25777SOL     OW82015   3.286   7.061   4.419  0.4405  0.1584  0.2775
25777SOL    HW182016   3.213   7.122   4.406 -0.3445 -0.4586  1.5857
25777SOL    HW282017   3.309   7.032   4.331 -1.1539  0.0843 -0.1433
25778SOL     OW82018   6.639   2.132   3.145 -0.6158  0.0952  0.6997
25778SOL    HW182019   6.682   2.047   3.132 -0.3683  0.4037 -0.6861
25778SOL    HW282020   6.640   2.145   3.240  3.1467  0.4886  0.7579
25779SOL     OW82021   6.515   1.981  11.141  0.1033 -0.0424  0.6869
25779SOL    HW182022   6.459   1.957  11.214 -0.7064  1.5677  0.6411
25779SOL    HW282023   6.583   1.915  11.140 -1.4979 -1.7779  1.0716
25780SOL     OW82024   8.913  10.928  10.024  0.3323 -0.8050  0.7012
25780SOL    HW182025   8.817  10.928  10.030  0.2966 -0.1329  0.1907
25780SOL    HW282026   8.940  10.862  10.088 -0.5343 -2.1135 -0.2430
25781SOL     OW82027  11.695  11.586   9.685  0.6295 -0.0760 -0.8412
25781SOL    HW182028  11.790  11.580   9.696  0.5575 -0.3416 -0.3252
25781SOL    HW282029  11.683  11.628   9.600  1.2166  0.7285 -0.5462
25782SOL     OW82030   6.118  11.996   6.895 -0.2350 -0.0187 -0.4754
25782SOL    HW182031   6.144  12.049   6.820 -1.4427 -1.4453 -1.9637
25782SOL    HW282032   6.198  11.984   6.946  1.0407 -0.5813 -2.5352
25783SOL     OW82033   1.479   5.833   1.898 -0.3530 -0.2972 -0.1389
25783SOL    HW182034   1.406   5.794   1.945  0.8775 -1.0095  1.2619
25783SOL    HW282035   1.511   5.902   1.956  1.2854 -1.2951  0.2169
25784SOL     OW82036   0.370   3.448  11.115 -0.0766 -0.1322 -0.3050
25784SOL    HW182037   0.391   3.419  11.026  3.0594 -0.2256  0.3353
25784SOL    HW282038   0.302   3.513  11.104 -0.4391 -0.8146 -2.6830
25785SOL     OW82039   8.868   8.508   4.755  0.7177  0.0819  0.4064
25785SOL    HW182040   8.898   8.456   4.680  1.0541 -0.4866  0.9244
25785SOL    HW282041   8.819   8.446   4.809 -0.2453  0.6839  0.2479
25786SOL     OW82042   8.810   9.902   2.325 -0.5459 -0.3963  0.1625
25786SOL    HW182043   8.825   9.985   2.371 -0.4278 -0.2882 -0.0664
25786SOL    HW282044   8.838   9.920   2.235  0.3839 -0.9556  0.3204
25787SOL     OW82045  10.680   6.065  11.609 -0.4279 -0.1396 -0.0709
25787SOL    HW182046  10.671   6.124  11.683  0.0078 -0.5653  0.3290
25787SOL    HW282047  10.626   5.989  11.631 -0.2495 -0.2944 -0.1609
25788SOL     OW82048   4.949   8.680   4.682 -0.1384 -0.4376 -0.6762
25788SOL    HW182049   4.975   8.771   4.692  1.0055 -0.7429 -0.6967
25788SOL    HW282050   4.965   8.641   4.768 -0.3856 -0.6742 -0.7365
25789SOL     OW82051  11.630   4.093   1.806  0.4031  0.0151 -0.4431
25789SOL    HW182052  11.633   4.128   1.717 -1.0197  2.8825  0.5091
25789SOL    HW282053  11.541   4.061   1.816  0.7091 -0.7772 -0.1831
25790SOL     OW82054   8.218   4.132   3.612 -0.9198  0.1082  0.4388
25790SOL    HW182055   8.249   4.168   3.695 -0.0564 -1.0812  0.6524
25790SOL    HW282056   8.264   4.183   3.545  0.3676 -0.6097  0.7412
25791SOL     OW82057   3.222   5.044   1.387 -0.2871 -0.1261  0.1650
25791SOL    HW182058   3.227   5.109   1.316  1.1758 -2.6888 -2.2697
25791SOL    HW282059   3.283   5.077   1.453  1.4093  0.4078 -1.5624
25792SOL     OW82060   9.617   1.611  10.989 -0.1331 -0.2619 -0.3238
25792SOL    HW182061   9.688   1.558  10.954 -0.4573 -1.3173  0.5262
25792SOL    HW282062   9.548   1.606  10.923 -0.4840 -1.6494  0.1166
25793SOL     OW82063   4.047   0.451   7.353 -0.3706  0.3958 -0.5063
25793SOL    HW182064   4.010   0.533   7.322 -0.3314  0.7838  0.4492
25793SOL    HW282065   3.975   0.408   7.399  0.0932  0.7204  0.5409
25794SOL     OW82066   9.412  11.121   6.080  0.1017  0.1266 -0.1677
25794SOL    HW182067   9.483  11.084   6.027  0.1443 -0.0720  0.0260
25794SOL    HW282068   9.335  11.071   6.054  0.2973 -0.6288  0.6291
25795SOL     OW82069   0.594  10.125   3.329  0.6094 -0.7457 -0.1067
25795SOL    HW182070   0.503  10.103   3.309 -0.0952  1.0125  0.9177
25795SOL    HW282071   0.612  10.080   3.411  1.0400 -1.9122 -0.8085
25796SOL     OW82072   0.546   1.707   0.366  0.1375 -0.1683  0.0911
25796SOL    HW182073   0.530   1.627   0.416  0.1934  0.2048  0.7247
25796SOL    HW282074   0.627   1.743   0.404 -1.3073  1.6070  1.7274
25797SOL     OW82075   5.362  11.989  11.628  0.1922  0.0804  0.5153
25797SOL    HW182076   5.353  12.078  11.662 -0.0877  0.4344 -0.4653
25797SOL    HW282077   5.455  11.978  11.611  0.4144 -0.2738  1.8091
25798SOL     OW82078   1.583   0.811   2.490  0.1019  0.0217  0.2075
25798SOL    HW182079   1.665   0.774   2.523 -0.4058 -1.4666 -0.1385
25798SOL    HW282080   1.590   0.803   2.395  0.0847  1.0938  0.1039
25799SOL     OW82081   0.311   0.486   8.931  0.0442  0.2003 -0.1974
25799SOL    HW182082   0.298   0.579   8.913 -0.0495  0.1734 -0.2698
25799SOL    HW282083   0.248   0.441   8.875 -2.2163  0.2372  2.1245
25800SOL     OW82084  11.739   4.621   9.314 -0.3286  0.0164  0.1209
25800SOL    HW182085  11.693   4.694   9.356  2.0224  0.8942  1.3778
25800SOL    HW282086  11.763   4.563   9.385 -2.3073 -2.1829 -0.8879
25801SOL     OW82087   6.359   6.513   9.670  0.1487 -0.0369 -0.0912
25801SOL    HW182088   6.322   6.521   9.757  0.6534 -0.3225  0.1564
25801SOL    HW282089   6.305   6.447   9.626  0.0024 -0.0210  0.0678
25802SOL     OW82090   5.148   0.713  10.143 -0.4424 -0.3921 -0.1232
25802SOL    HW182091   5.205   0.637  10.142 -0.9906 -0.8447  0.9949
25802SOL    HW282092   5.077   0.689  10.203 -0.7507  0.9031  0.0654
25803SOL     OW82093   6.712   2.997   7.596 -0.1689  0.1365  0.3726
25803SOL    HW182094   6.803   2.968   7.600  0.6484  2.3624 -0.4015
25803SOL    HW282095   6.688   2.990   7.504 -0.7121 -0.2461  0.5416
25804SOL     OW82096   9.855   6.676   7.870 -0.2499  0.3437  0.0276
25804SOL    HW182097   9.848   6.598   7.925  2.3498 -1.0784 -1.4487
25804SOL    HW282098   9.853   6.749   7.931  0.4541 -1.0460  1.8137
25805SOL     OW82099  11.769   0.976   9.716 -0.6195 -0.2322 -0.1872
25805SOL    HW182100  11.804   0.948   9.801  0.9845  0.4924 -0.5807
25805SOL    HW282101  11.777   1.071   9.717  1.2529 -0.3281 -1.8960
25806SOL     OW82102   5.302   0.550   7.131 -0.0233 -0.0247  0.1175
25806SOL    HW182103   5.210   0.543   7.105 -0.3030  1.4996  0.6010
25806SOL    HW282104   5.347   0.486   7.076 -1.4404 -1.2427  0.3147
25807SOL     OW82105   8.469   2.800   7.513 -0.4033 -0.3287 -0.4184
25807SOL    HW182106   8.564   2.796   7.500 -0.3366 -0.7557  0.1725
25807SOL    HW282107   8.433   2.780   7.427  0.0310 -2.9259 -0.0823
25808SOL     OW82108   5.845   4.524   4.629  0.2143 -0.3258  0.2182
25808SOL    HW182109   5.917   4.581   4.602  1.3064 -1.6278  0.3161
25808SOL    HW282110   5.774   4.545   4.568  0.1186  2.0197  1.0122
25809SOL     OW82111   3.625   3.082   2.087 -0.0953  0.2236 -0.2280
25809SOL    HW182112   3.605   3.028   2.010  2.6300  0.7929 -1.4335
25809SOL    HW282113   3.692   3.033   2.134 -0.6446  0.6036  0.9779
25810SOL     OW82114   8.358  10.957   3.883  0.0813 -0.6575 -0.5477
25810SOL    HW182115   8.304  10.910   3.945  1.2537 -1.0001  0.2461
25810SOL    HW282116   8.423  11.002   3.936  1.1099 -0.9495 -1.5112
25811SOL     OW82117   6.018   3.054   0.323 -0.5424 -0.6389 -0.0081
25811SOL    HW182118   6.016   3.128   0.261  0.9492  0.3622  1.0645
25811SOL    HW282119   6.026   2.977   0.268 -1.1988  0.0664 -1.1330
25812SOL     OW82120   6.113  11.345   7.029  0.0342 -0.2270 -0.3439
25812SOL    HW182121   6.176  11.313   7.093  0.5210 -1.8925 -1.5859
25812SOL    HW282122   6.032  11.357   7.080  0.8408  0.1328  0.8935
25813SOL     OW82123   8.090  11.401   4.738 -0.4072 -0.4107  0.5189
25813SOL    HW182124   8.047  11.336   4.683 -1.4564  1.3171 -0.8045
25813SOL    HW282125   8.050  11.484   4.713  2.0773  1.0012  0.8949
25814SOL     OW82126   5.662   1.884   1.367 -0.0936  0.7824  0.1289
25814SOL    HW182127   5.675   1.878   1.273  0.2023 -1.9803  0.2361
25814SOL    HW282128   5.581   1.834   1.383  0.0245  0.9551  1.3398
25815SOL     OW82129   1.287   0.116   9.374  0.2856 -0.4449 -0.2588
25815SOL    HW182130   1.218   0.090   9.436  0.1454  1.8751  0.6559
25815SOL    HW282131   1.238   0.149   9.298  0.3421  0.8040  0.2201
25816SOL     OW82132   4.283   9.150   0.510  0.4856  0.5807  0.0415
25816SOL    HW182133   4.279   9.060   0.540 -3.1840  1.1094  1.5894
25816SOL    HW282134   4.272   9.145   0.415 -0.4184 -0.5953  0.1922
25817SOL     OW82135   4.181   5.754   8.507 -0.1420  0.4845  0.5251
25817SOL    HW182136   4.227   5.787   8.430 -0.7335  0.6295  0.2220
25817SOL    HW282137   4.229   5.790   8.582  0.3418  0.4702  0.2239
25818SOL     OW82138   9.375   3.848   7.577 -0.2651  0.4967 -0.0782
25818SOL    HW182139   9.403   3.819   7.663  1.5319  0.4926 -0.6149
25818SOL    HW282140   9.299   3.904   7.593 -2.2973 -2.3831  1.1959
25819SOL     OW82141   9.547   8.857   8.889  0.0613  0.2019 -0.2131
25819SOL    HW182142   9.532   8.764   8.875  0.8021  0.1700 -0.8970
25819SOL    HW282143   9.470   8.887   8.937 -0.4876 -0.6281 -0.5556
25820SOL     OW82144   1.691   3.366   5.937 -0.4256  0.3209  0.3642
25820SOL    HW182145   1.768   3.411   5.905 -0.1833 -1.8364 -2.5299
25820SOL    HW282146   1.722   3.313   6.011  1.2860 -1.4412 -1.4862
25821SOL     OW82147   1.843   5.097   4.263  0.4192 -0.0308  0.5997
25821SOL    HW182148   1.849   5.170   4.201  1.3488 -0.6512 -0.0584
25821SOL    HW282149   1.778   5.038   4.225  0.4512 -0.0645  0.5980
25822SOL     OW82150   2.003   9.153   5.405 -0.0564  0.3587  0.1618
25822SOL    HW182151   2.004   9.225   5.341 -0.1966  0.8168  0.6623
25822SOL    HW282152   1.986   9.197   5.489  1.4810 -0.0678  0.7166
25823SOL     OW82153   7.656   9.576   5.987 -0.2465 -0.1710  0.0957
25823SOL    HW182154   7.698   9.498   6.022  2.0619  1.1957  0.5449
25823SOL    HW282155   7.699   9.590   5.903  0.8078  1.6621  0.8846
25824SOL     OW82156  11.465   3.740   0.843 -0.0144 -0.2428  0.0582
25824SOL    HW182157  11.481   3.652   0.809  1.3246 -0.1805  0.4787
25824SOL    HW282158  11.379   3.763   0.808 -0.8459 -2.0809  0.7244
25825SOL     OW82159   8.458   0.877   7.393 -0.3891 -0.0657 -0.1385
25825SOL    HW182160   8.423   0.822   7.323 -0.4951 -0.5672  0.2996
25825SOL    HW282161   8.388   0.879   7.458 -0.2306  0.2698  0.0234
25826SOL     OW82162   8.963  10.741   7.048 -0.1221 -0.3489 -0.1692
25826SOL    HW182163   9.001  10.786   6.972 -1.9039 -0.1935 -1.0268
25826SOL    HW282164   9.007  10.779   7.124  1.4180 -0.2198 -1.0942
25827SOL     OW82165   3.740   2.886   5.189 -0.0255 -0.7473 -0.8028
25827SOL    HW182166   3.772   2.825   5.123 -0.4029 -1.1286 -0.6426
25827SOL    HW282167   3.685   2.832   5.246  1.5927 -0.7622  0.7889
25828SOL     OW82168   9.387   6.434   3.256  0.6463  0.4615 -0.2356
25828SOL    HW182169   9.390   6.347   3.296  1.5219  0.4469 -0.3241
25828SOL    HW282170   9.426   6.492   3.322  3.5214  0.2194 -1.5796
25829SOL     OW82171   3.136   2.325   2.512 -0.5405 -0.1448  0.0049
25829SOL    HW182172   3.189   2.323   2.592  0.7467  0.4437 -0.8006
25829SOL    HW282173   3.147   2.414   2.478 -0.4760 -0.6075 -1.2179
25830SOL     OW82174   5.928   6.402   0.093 -0.5485 -0.0377 -0.0149
25830SOL    HW182175   5.968   6.446   0.167  1.5265 -1.2511 -0.3368
25830SOL    HW282176   5.876   6.331   0.132 -0.4558  0.0751  0.3124
25831SOL     OW82177   5.370   6.698   4.664  0.5472 -0.3252 -0.3367
25831SOL    HW182178   5.391   6.708   4.757 -1.6056 -0.8612  0.2545
25831SOL    HW282179   5.329   6.781   4.640  0.8081 -0.3088 -0.7329
25832SOL     OW82180   1.506  11.097   9.550 -0.3559  0.1095 -0.4420
25832SOL    HW182181   1.507  11.101   9.646 -0.8146  1.7182 -0.4799
25832SOL    HW282182   1.441  11.031   9.530 -0.6771  0.1688  0.3565
25833SOL     OW82183   3.740   0.190   9.828 -0.3489 -0.0571 -0.0271
25833SOL    HW182184   3.664   0.247   9.814 -0.5608 -0.1413  0.7367
25833SOL    HW282185   3.740   0.173   9.922  2.5546  2.6568  0.6111
25834SOL     OW82186   9.874   5.162   0.236  0.2589  0.2786  0.1109
25834SOL    HW182187   9.936   5.184   0.167  0.7661 -1.4641 -0.0391
25834SOL    HW282188   9.809   5.106   0.193 -0.2797  0.4149  0.7202
25835SOL     OW82189   5.169   5.260   5.248  0.2075 -0.0640 -0.4642
25835SOL    HW182190   5.150   5.310   5.169  0.7167  0.3271 -0.3469
25835SOL    HW282191   5.215   5.322   5.305 -0.3923 -0.2606  0.2483
25836SOL     OW82192   6.889   7.956   6.456  0.3157 -0.4228  0.2128
25836SOL    HW182193   6.846   7.895   6.516  0.8984 -1.9750 -0.8594
25836SOL    HW282194   6.840   8.037   6.464 -2.6589 -1.9807 -0.6534
25837SOL     OW82195   7.939   9.927   4.736 -0.4100 -0.5674 -0.4970
25837SOL    HW182196   8.021   9.959   4.700  0.4095 -1.2812  0.6544
25837SOL    HW282197   7.892   9.890   4.661  1.3207 -2.1814 -0.8668
25838SOL     OW82198   4.828   3.630   9.588  0.2192 -0.2835 -0.1740
25838SOL    HW182199   4.923   3.626   9.588  0.3396  1.6584 -1.3346
25838SOL    HW282200   4.800   3.543   9.560  1.6663 -0.6179 -0.6334
25839SOL     OW82201   9.262   8.526   8.810 -0.4924 -0.1450 -0.5924
25839SOL    HW182202   9.355   8.508   8.797  0.1560  1.9987  0.6459
25839SOL    HW282203   9.235   8.466   8.880 -0.1211 -0.9123 -1.0936
25840SOL     OW82204   7.463   0.935   9.274 -0.0857 -0.2938  0.2382
25840SOL    HW182205   7.376   0.897   9.289  0.0366 -1.5938 -1.9241
25840SOL    HW282206   7.503   0.878   9.209  0.7781  2.5867 -1.9756
25841SOL     OW82207   9.660   1.781  11.459  0.7839 -0.2040 -0.2591
25841SOL    HW182208   9.696   1.853  11.406  2.7386 -0.9623 -0.0761
25841SOL    HW282209   9.584   1.751  11.411 -0.6306  2.5008  0.0872
25842SOL     OW82210   2.556   7.009   1.277  0.4773  0.2295  0.0890
25842SOL    HW182211   2.492   7.059   1.327 -0.7301  1.0175 -2.0814
25842SOL    HW282212   2.504   6.942   1.232  1.3413  0.1885 -0.8800
25843SOL     OW82213   9.355   8.136   6.327 -0.1191  0.5449 -0.3962
25843SOL    HW182214   9.306   8.203   6.280 -1.1391 -1.5836 -2.5611
25843SOL    HW282215   9.436   8.126   6.278  1.0622  1.6538  1.2095
25844SOL     OW82216   8.760  10.682   8.932 -0.3575 -0.1036  0.3377
25844SOL    HW182217   8.754  10.760   8.876  0.5025 -0.6063 -0.4802
25844SOL    HW282218   8.674  10.676   8.973 -1.5071 -0.4901 -1.9712
25845SOL     OW82219   3.794  11.371   9.908  0.0032 -0.0596 -0.0105
25845SOL    HW182220   3.778  11.417   9.991  2.1186  0.1609  0.3096
25845SOL    HW282221   3.780  11.279   9.929 -0.9636  0.1131  0.1824
25846SOL     OW82222   5.226  10.067   3.942  0.0814  0.9216 -0.3130
25846SOL    HW182223   5.230  10.001   4.011  0.9709  1.3620  0.0861
25846SOL    HW282224   5.137  10.063   3.909  0.0645 -0.3248 -0.1547
25847SOL     OW82225   8.568   3.980   6.368 -0.0020  0.2724  0.3735
25847SOL    HW182226   8.518   4.059   6.346 -1.5175 -0.5133  0.8787
25847SOL    HW282227   8.569   3.977   6.463  0.2849 -0.1897  0.3611
25848SOL     OW82228   9.011   0.222   2.727  0.4298  0.6503 -0.7597
25848SOL    HW182229   8.983   0.287   2.664  1.2774  0.5555 -1.2385
25848SOL    HW282230   8.932   0.171   2.745 -0.5015  2.4095  0.3934
25849SOL     OW82231   7.279   5.171   3.996  0.5116 -0.3338 -0.1593
25849SOL    HW182232   7.263   5.211   3.911  2.2348  0.4229 -0.1521
25849SOL    HW282233   7.300   5.080   3.976  1.5091 -0.0183 -0.6231
25850SOL     OW82234   7.774  11.556  11.799  0.0410  0.2177 -0.4877
25850SOL    HW182235   7.790  11.633  11.854 -0.2354  2.7114 -3.5982
25850SOL    HW282236   7.843  11.559  11.733 -1.5736 -0.5775 -2.2959
25851SOL     OW82237   4.429  11.309   5.475 -0.0394 -0.1767 -0.1803
25851SOL    HW182238   4.382  11.227   5.463  0.2541 -0.6687  1.7683
25851SOL    HW282239   4.496  11.308   5.406 -0.5432 -1.1806 -0.6787
25852SOL     OW82240   8.931   6.999   2.994  0.0600 -0.3476  0.3740
25852SOL    HW182241   8.869   7.036   2.931 -0.0907  1.0602  1.2899
25852SOL    HW282242   8.953   6.913   2.959 -0.1136  0.3391 -1.5286
25853SOL     OW82243   0.432  10.608  10.690 -0.9696 -0.0234 -0.1239
25853SOL    HW182244   0.465  10.518  10.686 -0.0497  0.2303  1.0980
25853SOL    HW282245   0.360  10.610  10.628 -1.5103 -1.8229  0.3879
25854SOL     OW82246   6.838   1.095  10.460  0.4145  0.1057  0.0514
25854SOL    HW182247   6.789   1.019  10.428  0.9375 -1.2307  2.2134
25854SOL    HW282248   6.920   1.058  10.493  0.5876  1.5631  1.3610
25855SOL     OW82249   6.402   9.057   9.415 -0.3116  0.1361  0.2676
25855SOL    HW182250   6.401   9.149   9.443  3.9182 -0.0482  1.6418
25855SOL    HW282251   6.460   9.055   9.340 -0.3166 -1.4345  0.2810
25856SOL     OW82252   7.005  10.748   8.878 -0.0065  0.1238 -0.2117
25856SOL    HW182253   7.056  10.804   8.820  3.0081 -1.6141  0.5315
25856SOL    HW282254   7.014  10.790   8.964  0.2427 -0.2255 -0.0676
25857SOL     OW82255   1.424   4.876   6.100 -0.5740 -0.0330  0.5601
25857SOL    HW182256   1.418   4.970   6.120  1.2511  0.4334 -0.8218
25857SOL    HW282257   1.487   4.842   6.163 -0.5901 -0.1658  0.5054
25858SOL     OW82258   3.514   7.429   3.999 -0.5191 -0.2080  0.0518
25858SOL    HW182259   3.483   7.339   4.002 -1.5729  0.1601  0.9766
25858SOL    HW282260   3.434   7.482   3.994  0.0835  0.6810 -0.5632
25859SOL     OW82261   4.592   9.771   9.592  0.1727  0.9288 -0.5022
25859SOL    HW182262   4.520   9.783   9.653 -0.8558 -0.0660 -1.4692
25859SOL    HW282263   4.659   9.726   9.642 -0.7625 -0.1219 -0.1536
25860SOL     OW82264   1.590   0.503   8.107 -0.1338  0.7180  0.1494
25860SOL    HW182265   1.511   0.500   8.160 -0.2551  2.4114  0.0989
25860SOL    HW282266   1.567   0.558   8.032  0.8381  0.5421 -0.2971
25861SOL     OW82267   2.738   2.463   2.925 -0.3068  0.7773  0.2870
25861SOL    HW182268   2.673   2.415   2.976  1.7864 -0.1937  2.1960
25861SOL    HW282269   2.782   2.395   2.872  0.9291  0.9487  1.0528
25862SOL     OW82270   7.356  10.773  11.590 -0.1175 -0.4040  0.0677
25862SOL    HW182271   7.435  10.792  11.640 -0.0508 -1.3146  0.3236
25862SOL    HW282272   7.285  10.772  11.654 -0.1803 -0.5933 -0.0023
25863SOL     OW82273  11.897   5.662  10.162  0.0286 -0.0339  0.1512
25863SOL    HW182274  11.959   5.716  10.211  1.1952  0.3243 -1.6251
25863SOL    HW282275  11.949   5.587  10.133  0.4557  1.4694 -3.4971
25864SOL     OW82276   1.287   1.054  11.623 -0.0879 -0.8023 -0.2489
25864SOL    HW182277   1.358   1.093  11.673 -0.5797  0.3316 -0.4156
25864SOL    HW282278   1.238   1.001  11.686  0.6107 -1.2068 -0.0379
25865SOL     OW82279   3.081   7.189   5.702 -0.1841  0.1366 -0.4788
25865SOL    HW182280   3.133   7.220   5.628  0.0875  0.4211 -0.1724
25865SOL    HW282281   3.040   7.108   5.670 -0.4000  0.4697 -1.0725
25866SOL     OW82282   6.572   8.458   7.434  0.7291 -0.0258  0.2269
25866SOL    HW182283   6.570   8.508   7.516  0.4925 -0.5902  0.5673
25866SOL    HW282284   6.490   8.481   7.390  1.4663  1.3458 -0.5093
25867SOL     OW82285   8.898   3.714   5.383  0.7271 -0.6509  0.0720
25867SOL    HW182286   8.842   3.651   5.429  1.1942 -0.9531  0.2374
25867SOL    HW282287   8.838   3.780   5.349  0.3313 -0.6503  0.7637
25868SOL     OW82288   9.442   2.969  11.827  0.2538  0.0209  0.2230
25868SOL    HW182289   9.355   2.929  11.824 -0.1158  0.8335 -0.1452
25868SOL    HW282290   9.492   2.913  11.886 -0.1473 -1.1755 -0.5391
25869SOL     OW82291   4.510   0.566  10.274  0.1223  0.4160 -0.1855
25869SOL    HW182292   4.568   0.632  10.237 -0.7398  0.2729 -1.8814
25869SOL    HW282293   4.501   0.500  10.204 -2.3876  0.6481 -0.1711
25870SOL     OW82294   2.651   7.971   3.180 -0.7081 -0.2377  0.0960
25870SOL    HW182295   2.679   7.884   3.152 -1.9615 -0.7966  0.4982
25870SOL    HW282296   2.710   8.031   3.134  1.9998 -1.3244  1.8782
25871SOL     OW82297   7.901   0.199   6.372  0.0654  0.2101  0.4370
25871SOL    HW182298   7.968   0.222   6.436 -0.3210  0.1486  0.8679
25871SOL    HW282299   7.884   0.106   6.388 -1.4977  0.6663  1.6365
25872SOL     OW82300   7.020   1.575   8.051 -0.3963  0.3399  0.0154
25872SOL    HW182301   6.966   1.521   8.109  0.1311  0.0236  0.2180
25872SOL    HW282302   7.066   1.512   7.996 -1.7641  0.6634 -1.5609
25873SOL     OW82303   3.198   5.588   5.510 -0.3411 -0.1790  0.2770
25873SOL    HW182304   3.190   5.591   5.415  0.0541 -2.6187  0.0957
25873SOL    HW282305   3.269   5.526   5.526 -0.8282 -0.3176  2.1720
25874SOL     OW82306  10.176  10.032  11.967  0.2050  0.1696  0.2105
25874SOL    HW182307  10.082  10.024  11.951  0.3463  0.2539 -0.7649
25874SOL    HW282308  10.196  10.124  11.946  0.8676 -0.3835 -1.8399
25875SOL     OW82309   0.258   4.306   8.271 -0.1590  0.3453 -0.2701
25875SOL    HW182310   0.215   4.373   8.219 -0.7487  1.4024  1.5080
25875SOL    HW282311   0.341   4.290   8.226 -0.0081  2.2641 -0.7480
25876SOL     OW82312   3.805   6.646   2.494 -0.1525  0.1973 -0.3228
25876SOL    HW182313   3.801   6.729   2.447  0.2741 -0.4345 -1.5179
25876SOL    HW282314   3.898   6.635   2.514 -0.2656  0.2113  0.2337
25877SOL     OW82315   1.879   0.155   7.255  0.0351  0.6467  0.0442
25877SOL    HW182316   1.965   0.117   7.236 -0.5563 -0.6534 -0.1184
25877SOL    HW282317   1.899   0.238   7.299  1.3840 -0.2047  1.1305
25878SOL     OW82318   0.718   8.281   6.421 -0.3565 -0.6328 -0.4066
25878SOL    HW182319   0.684   8.272   6.510 -0.4898 -0.0722 -0.4026
25878SOL    HW282320   0.640   8.295   6.366 -0.2081 -0.1888 -0.5066
25879SOL     OW82321   2.316   2.891   2.903 -0.6531 -0.5717  0.4542
25879SOL    HW182322   2.275   2.887   2.989 -2.7283 -1.3335 -0.4999
25879SOL    HW282323   2.339   2.800   2.883  1.4902 -0.1801  0.9022
25880SOL     OW82324   2.169   5.652   7.735  0.3168 -0.3536  0.1660
25880SOL    HW182325   2.125   5.609   7.808 -1.7980 -1.9845 -1.9174
25880SOL    HW282326   2.180   5.583   7.669 -1.4774  1.7504 -2.5798
25881SOL     OW82327   7.165   5.030  11.039  0.2569  0.1179 -0.3059
25881SOL    HW182328   7.181   5.124  11.044  0.7507 -0.0041  0.6286
25881SOL    HW282329   7.205   4.995  11.119  0.8995 -0.9887 -1.0827
25882SOL     OW82330   8.753   3.647   1.918  0.2609 -0.4420  0.1063
25882SOL    HW182331   8.670   3.694   1.916  0.0629 -0.4581  3.1087
25882SOL    HW282332   8.817   3.710   1.886 -0.5906  0.3801 -0.0240
25883SOL     OW82333   2.011   0.817   3.717  0.1677  0.1586  0.1307
25883SOL    HW182334   1.998   0.900   3.764 -0.8424  0.9330 -1.4418
25883SOL    HW282335   2.099   0.825   3.679 -0.4584  1.1337 -1.1695
25884SOL     OW82336   6.025   4.724   7.798  0.1776 -0.1189  0.3143
25884SOL    HW182337   6.091   4.655   7.810 -1.3300 -1.4066  1.6237
25884SOL    HW282338   6.020   4.735   7.703 -0.5439 -2.9095 -0.0739
25885SOL     OW82339   5.406   4.660   1.463  0.3846 -0.0452 -0.0994
25885SOL    HW182340   5.346   4.651   1.388  1.0190 -0.6784 -0.5434
25885SOL    HW282341   5.466   4.729   1.436  1.5818 -1.3369 -0.8641
25886SOL     OW82342   2.902   9.487   4.065  0.1441 -0.0413  0.1982
25886SOL    HW182343   2.905   9.400   4.105 -0.2951 -0.3191 -0.3434
25886SOL    HW282344   2.873   9.470   3.975 -0.9104  0.7486  0.3661
25887SOL     OW82345  11.903  10.665  10.030  0.4898  0.2811  0.6019
25887SOL    HW182346  11.915  10.717   9.950  0.0870 -2.2063 -1.1749
25887SOL    HW282347  11.933  10.723  10.100  2.1386  2.1013 -1.4583
25888SOL     OW82348   3.417   9.562   0.784 -0.1234  0.0726 -0.4244
25888SOL    HW182349   3.327   9.568   0.815  0.8163  0.3589  2.5112
25888SOL    HW282350   3.450   9.480   0.820  1.0742  0.4188 -0.6797
25889SOL     OW82351   6.724   0.897   9.296 -0.2664  0.4518 -0.3557
25889SOL    HW182352   6.762   0.961   9.356 -0.1889  1.3804 -1.3675
25889SOL    HW282353   6.755   0.813   9.328 -1.8496  0.7274  2.0931
25890SOL     OW82354   1.439   7.864   4.354  0.3147  0.3341  0.2995
25890SOL    HW182355   1.509   7.812   4.393  0.5507  0.9481  0.7085
25890SOL    HW282356   1.476   7.952   4.344 -0.0002  0.3840 -0.5981
25891SOL     OW82357   4.070   9.310   0.584  0.1456 -0.9167 -0.5243
25891SOL    HW182358   4.134   9.240   0.573 -1.1037 -1.9507 -1.6526
25891SOL    HW282359   4.050   9.338   0.494 -2.7192 -2.3255 -0.4481
25892SOL     OW82360   4.028   6.751   8.249  0.2107  0.6330  0.3269
25892SOL    HW182361   4.001   6.659   8.252  2.5481 -0.1144  0.1605
25892SOL    HW282362   3.986   6.791   8.325  0.8357 -1.0840  1.6299
25893SOL     OW82363  11.900  11.456   5.284  0.4151 -0.1600  0.0234
25893SOL    HW182364  11.897  11.549   5.263  0.3403 -0.2514 -0.3788
25893SOL    HW282365  11.960  11.450   5.358  1.7673  0.0223 -1.0060
25894SOL     OW82366   5.741   8.178   3.520  0.1179 -0.1337 -0.2069
25894SOL    HW182367   5.696   8.246   3.471  1.8407 -0.0950 -1.8325
25894SOL    HW282368   5.731   8.099   3.467 -0.6703 -0.8579  0.9712
25895SOL     OW82369   0.786   6.222   7.317  0.1406 -0.6648  0.0048
25895SOL    HW182370   0.763   6.274   7.240  1.8911 -0.4209 -0.4049
25895SOL    HW282371   0.799   6.287   7.386 -0.2442 -0.7813  0.1869
25896SOL     OW82372   8.235   9.099   2.283 -0.1658 -0.0423  0.1690
25896SOL    HW182373   8.230   9.071   2.375  0.7984  0.3783  0.3710
25896SOL    HW282374   8.273   9.187   2.288  0.4555 -0.2545 -0.6594
25897SOL     OW82375   3.095   3.917   4.100  0.5236 -0.4128  0.3996
25897SOL    HW182376   3.174   3.904   4.047  0.3237  1.4046 -0.4207
25897SOL    HW282377   3.056   3.830   4.106  2.7472 -1.4320  1.1180
25898SOL     OW82378   0.750  10.059   9.793 -0.1718 -0.6387 -0.3164
25898SOL    HW182379   0.742   9.983   9.735 -0.8836 -1.3214  0.6407
25898SOL    HW282380   0.766  10.020   9.879 -3.6481  0.0935  0.8159
25899SOL     OW82381   8.267   8.595  11.444 -0.0148  0.2310 -0.0309
25899SOL    HW182382   8.207   8.661  11.480  0.8769  0.2561  1.4720
25899SOL    HW282383   8.352   8.639  11.441  0.0739  0.0074 -1.6090
25900SOL     OW82384   5.014   2.244   9.611  0.1651  0.0470  0.0260
25900SOL    HW182385   5.016   2.333   9.575  0.5084 -0.3196 -0.9087
25900SOL    HW282386   4.924   2.232   9.641  0.5762  1.3768  1.9668
25901SOL     OW82387   3.400   4.780  11.288  0.5667 -0.3293  0.5467
25901SOL    HW182388   3.483   4.759  11.246  1.3788  1.1908  1.2848
25901SOL    HW282389   3.340   4.798  11.215  0.8262 -1.5667  0.0043
25902SOL     OW82390   0.363   2.544   8.807 -0.5345 -0.1750  0.7370
25902SOL    HW182391   0.286   2.493   8.782 -0.1244 -0.6809  0.4957
25902SOL    HW282392   0.381   2.517   8.897 -0.3468 -0.4230  0.6261
25903SOL     OW82393   2.998   7.606   9.230 -0.5019 -0.8475  0.2537
25903SOL    HW182394   3.001   7.510   9.223 -1.6224 -0.9041  0.3862
25903SOL    HW282395   2.966   7.623   9.318 -1.5924 -0.3831 -0.2158
25904SOL     OW82396   4.292   3.188   3.223 -0.8399  1.1681 -0.3212
25904SOL    HW182397   4.330   3.254   3.282  1.0523 -0.6466  0.6138
25904SOL    HW282398   4.355   3.183   3.150 -0.9681  0.3987 -0.3842
25905SOL     OW82399   7.127  11.609   0.848  0.4891 -0.0798  0.3785
25905SOL    HW182400   7.119  11.704   0.860 -2.4257  0.2927 -2.9441
25905SOL    HW282401   7.196  11.599   0.782  2.1323 -0.5319  2.0735
25906SOL     OW82402   2.281   4.638   2.082  0.1608 -0.3830  0.3242
25906SOL    HW182403   2.266   4.653   1.989  1.2123 -1.1310  0.0128
25906SOL    HW282404   2.312   4.722   2.116 -0.0765 -0.1507 -0.0307
25907SOL     OW82405   9.384   2.314   6.709 -0.2846  0.2671  0.0365
25907SOL    HW182406   9.322   2.387   6.714 -1.1225 -0.4004 -0.1983
25907SOL    HW282407   9.330   2.236   6.723  0.3983 -0.3771 -0.7876
25908SOL     OW82408   8.933   0.741   4.622 -0.3044 -0.2977 -0.0447
25908SOL    HW182409   8.945   0.665   4.679  0.0899  0.0095  0.2875
25908SOL    HW282410   8.972   0.714   4.538 -0.3396 -0.5312  0.0143
25909SOL     OW82411  11.636   1.846   2.612  0.3089 -0.1635  0.0740
25909SOL    HW182412  11.573   1.895   2.559  0.1048  1.3854  1.6432
25909SOL    HW282413  11.615   1.871   2.702  1.1840 -2.0431  0.8427
25910SOL     OW82414   8.614   1.565   4.198 -0.0662 -0.1923 -0.3794
25910SOL    HW182415   8.573   1.540   4.115 -0.0178 -0.6648 -0.2606
25910SOL    HW282416   8.594   1.494   4.258 -1.1256  0.6939  0.3658
25911SOL     OW82417   3.517  10.592   1.088  0.4395  0.5410  0.0189
25911SOL    HW182418   3.544  10.520   1.145  0.2916  1.5295  1.4080
25911SOL    HW282419   3.599  10.633   1.061  0.5178 -0.0460 -0.6431
25912SOL     OW82420   5.801   5.465   4.210 -0.8993  0.2717  0.2772
25912SOL    HW182421   5.834   5.535   4.154 -0.6191 -0.3288 -0.3274
25912SOL    HW282422   5.856   5.389   4.189 -2.0249 -0.4956 -0.0694
25913SOL     OW82423   9.611   0.292   6.823  0.3749  0.2779  0.0373
25913SOL    HW182424   9.527   0.269   6.783  0.9111 -2.9449  0.4410
25913SOL    HW282425   9.606   0.254   6.911  1.9874  0.6083  0.2957
25914SOL     OW82426   7.969   5.058  11.383 -0.0636  0.4974 -0.5377
25914SOL    HW182427   7.947   5.034  11.293  1.0427 -0.7088 -0.5203
25914SOL    HW282428   7.935   4.986  11.437  0.2510  0.6552 -0.1142
25915SOL     OW82429   2.476   6.070   7.131 -0.5138  0.2541  0.3338
25915SOL    HW182430   2.572   6.078   7.129 -0.6813  2.7846 -0.4093
25915SOL    HW282431   2.456   6.048   7.222  0.7988 -1.3419  0.2890
25916SOL     OW82432   4.514   8.909   4.606 -0.2926 -0.1433  0.4017
25916SOL    HW182433   4.563   8.989   4.621 -1.4304  0.5319  0.6817
25916SOL    HW282434   4.575   8.838   4.627  0.6038  0.6581  0.5300
25917SOL     OW82435   1.970   4.609  11.909  0.7257  0.2915  0.0612
25917SOL    HW182436   1.981   4.642  11.820  1.3641  1.8194  0.6681
25917SOL    HW282437   2.057   4.579  11.934  0.6602  0.3314  0.3430
25918SOL     OW82438  10.661   3.043  11.090  0.3556 -0.0589 -0.5648
25918SOL    HW182439  10.613   3.122  11.064 -0.1821 -0.0609  0.3908
25918SOL    HW282440  10.738   3.075  11.135 -0.6459 -0.0454  1.2349
25919SOL     OW82441   1.185   6.111   7.302  0.2458  0.3462  0.5700
25919SOL    HW182442   1.260   6.110   7.360  0.3663 -0.8556  0.4321
25919SOL    HW282443   1.150   6.200   7.308 -0.4874 -0.0388  3.4136
25920SOL     OW82444   6.257   6.113   0.961 -0.7238  0.4287 -0.4052
25920SOL    HW182445   6.321   6.176   0.929 -2.0998  2.1711  0.0548
25920SOL    HW282446   6.213   6.080   0.883  0.0054  0.0319 -0.6510
25921SOL     OW82447  11.329   0.475   9.496 -0.4662  0.5481 -0.7858
25921SOL    HW182448  11.243   0.452   9.532 -0.2874 -3.0571 -2.2081
25921SOL    HW282449  11.389   0.469   9.570 -1.3891  3.6342  0.3388
25922SOL     OW82450   9.097   3.533   2.780 -0.4416 -0.0612  0.1105
25922SOL    HW182451   9.059   3.461   2.830 -1.4236  0.1579 -0.3135
25922SOL    HW282452   9.124   3.596   2.847 -0.9347 -0.1648  0.4134
25923SOL     OW82453   4.653   2.690   5.214  0.4487  0.1671 -0.3383
25923SOL    HW182454   4.574   2.695   5.268 -0.2895 -1.7774 -1.1171
25923SOL    HW282455   4.630   2.627   5.145  2.7954 -0.7306 -0.3850
25924SOL     OW82456   7.598   2.016  11.141 -0.3589 -0.2467  0.4881
25924SOL    HW182457   7.613   2.110  11.131  0.2991 -0.3275  0.6721
25924SOL    HW282458   7.541   1.992  11.068 -2.0141  0.6228  1.4226
25925SOL     OW82459   3.889   0.913   1.283  0.5918 -0.4033 -0.1355
25925SOL    HW182460   3.957   0.971   1.249  0.4028 -0.0703  0.0422
25925SOL    HW282461   3.819   0.973   1.309  0.5600 -0.6771  0.4283
25926SOL     OW82462   7.373  11.283   3.521 -0.0898 -0.0178 -0.5169
25926SOL    HW182463   7.337  11.275   3.610 -0.4694  0.9007 -0.5812
25926SOL    HW282464   7.326  11.217   3.470 -0.1845 -0.2495 -0.1368
25927SOL     OW82465   2.555   6.279   6.075 -0.0881 -0.1008 -0.6388
25927SOL    HW182466   2.553   6.263   5.981 -0.4322  1.9676 -1.0297
25927SOL    HW282467   2.612   6.355   6.085  2.3715 -1.9964  1.1695
25928SOL     OW82468  11.956   4.620  10.254 -0.0707  0.1404 -0.0432
25928SOL    HW182469  12.027   4.606  10.317  0.7798 -1.7265 -1.3371
25928SOL    HW282470  12.000   4.622  10.169 -1.5552 -1.3563 -0.9030
25929SOL     OW82471   7.916   5.945   3.553 -1.0770 -0.1391 -0.3551
25929SOL    HW182472   7.843   5.892   3.586 -0.0590 -0.8568  0.8394
25929SOL    HW282473   7.920   5.925   3.460 -0.2916 -2.7878  0.1603
25930SOL     OW82474  11.556   7.501   2.608  0.2063 -0.0574 -0.1322
25930SOL    HW182475  11.470   7.463   2.629  0.8390 -1.1200  0.5895
25930SOL    HW282476  11.541   7.596   2.612 -0.4449 -0.1903  2.2101
25931SOL     OW82477   3.895   6.308   6.757  0.3092 -0.2590  0.5748
25931SOL    HW182478   3.880   6.309   6.851  0.6083 -1.9844  0.6621
25931SOL    HW282479   3.824   6.254   6.722 -0.5801  1.4219 -0.3778
25932SOL     OW82480   5.578   8.376  11.887 -0.0140  0.1478  0.3457
25932SOL    HW182481   5.668   8.378  11.919  0.3672  0.9400 -0.7135
25932SOL    HW282482   5.586   8.363  11.793 -0.8706  2.5265 -0.1317
25933SOL     OW82483   2.961  11.985   9.153  0.3050  0.2433  0.5131
25933SOL    HW182484   3.015  11.954   9.226  0.5277 -0.9187 -0.1160
25933SOL    HW282485   3.009  12.061   9.119  1.9356 -1.1333 -0.4246
25934SOL     OW82486   5.845   0.519  11.134  0.1269 -0.2330 -0.6781
25934SOL    HW182487   5.917   0.480  11.085  1.6601 -0.0482  1.3157
25934SOL    HW282488   5.857   0.614  11.123  0.1234 -0.2018 -0.4075
25935SOL     OW82489   7.981  11.900  11.087 -0.4109  0.1783 -0.4164
25935SOL    HW182490   8.062  11.925  11.041  0.1584  0.1424  0.5304
25935SOL    HW282491   7.953  11.980  11.131 -1.0259  0.2449 -0.9132
25936SOL     OW82492   0.482   3.441   2.111  0.0858  0.5447 -0.1745
25936SOL    HW182493   0.538   3.472   2.182  0.1356  2.9631 -1.1853
25936SOL    HW282494   0.471   3.517   2.054 -0.0261 -1.2694 -2.7339
25937SOL     OW82495   3.724   1.366   9.386  0.7670 -0.8359  0.0743
25937SOL    HW182496   3.806   1.415   9.396  0.6212 -0.7258  0.7810
25937SOL    HW282497   3.713   1.357   9.292 -0.2708  2.3462 -0.2403
25938SOL     OW82498   4.780  11.837   4.497 -0.2744 -0.3099 -0.6437
25938SOL    HW182499   4.750  11.773   4.561  1.1777  1.3962  1.9368
25938SOL    HW282500   4.701  11.862   4.449 -1.7220 -0.7259  1.3961
25939SOL     OW82501   2.360  11.472   7.076  0.2260  0.3250 -0.0583
25939SOL    HW182502   2.345  11.566   7.074  1.4253  0.5178 -1.0714
25939SOL    HW282503   2.275  11.434   7.052 -0.6316  1.0704  1.6149
25940SOL     OW82504   8.854   6.596   4.427  0.4278  0.1665 -0.1228
25940SOL    HW182505   8.945   6.567   4.425 -0.1131 -1.6023 -1.3756
25940SOL    HW282506   8.826   6.582   4.517  0.3707 -2.8681 -0.5052
25941SOL     OW82507   7.105  10.214   3.045 -0.1134 -0.3893 -0.2100
25941SOL    HW182508   7.071  10.303   3.035  2.7838  0.7746 -0.7158
25941SOL    HW282509   7.150  10.196   2.962  1.3893 -1.3264  0.7585
25942SOL     OW82510   0.810  10.467   2.500  0.6591  0.2747 -0.1572
25942SOL    HW182511   0.871  10.449   2.571 -1.8530  1.2928  2.4353
25942SOL    HW282512   0.744  10.397   2.506  0.2447  0.5340 -1.3429
25943SOL     OW82513   6.535  10.248   2.536 -0.4057 -0.2345  0.0617
25943SOL    HW182514   6.556  10.196   2.613 -1.1017 -1.0516 -0.2746
25943SOL    HW282515   6.455  10.209   2.502 -0.7597  0.8494 -0.4131
25944SOL     OW82516  10.397   4.632  11.586 -0.1508 -0.1631 -0.5874
25944SOL    HW182517  10.348   4.711  11.609 -1.7978 -0.9889 -1.0984
25944SOL    HW282518  10.447   4.657  11.508 -0.7117  0.3563 -0.7893
25945SOL     OW82519   9.788   5.543   5.263 -0.0992 -0.0353  0.0274
25945SOL    HW182520   9.826   5.488   5.331 -1.8291 -0.5831  0.6060
25945SOL    HW282521   9.857   5.551   5.197  1.0272 -0.8673  1.0606
25946SOL     OW82522   6.188   4.075   8.763 -0.0705 -0.1989  0.2984
25946SOL    HW182523   6.155   4.114   8.682 -0.5839 -1.0719  0.0741
25946SOL    HW282524   6.132   4.112   8.832 -0.8072 -0.8120  0.0437
25947SOL     OW82525   3.941  11.012   6.880 -0.2055  0.4717 -0.3772
25947SOL    HW182526   4.023  11.025   6.928 -0.4758  1.1283 -0.0832
25947SOL    HW282527   3.898  10.940   6.927  0.3985 -0.1740 -0.8040
25948SOL     OW82528   0.709  10.309   7.924 -0.5620 -0.0549 -0.1839
25948SOL    HW182529   0.735  10.220   7.900 -0.5547 -0.3117  0.7210
25948SOL    HW282530   0.787  10.346   7.965 -0.5176  0.4297 -0.6966
25949SOL     OW82531   2.536   4.389   3.490 -0.2413 -0.2640  0.2641
25949SOL    HW182532   2.443   4.408   3.507 -0.5925 -0.1567 -1.6063
25949SOL    HW282533   2.559   4.324   3.556 -1.5823 -0.1089  0.9150
25950SOL     OW82534   9.604   0.541   7.744 -0.2678  0.0151 -0.4294
25950SOL    HW182535   9.561   0.455   7.743  0.3252 -0.3015  0.6545
25950SOL    HW282536   9.554   0.592   7.680 -1.8709 -0.5320  0.3169
25951SOL     OW82537   1.810   3.468   4.958  0.6853 -0.0762  0.2595
25951SOL    HW182538   1.905   3.467   4.949  0.6011 -1.1902 -0.8804
25951SOL    HW282539   1.787   3.377   4.977 -0.2439 -0.1360 -0.9966
25952SOL     OW82540   2.368   1.678  10.440  0.1166  0.4644  0.1711
25952SOL    HW182541   2.317   1.598  10.431  0.9554 -0.1445  0.7412
25952SOL    HW282542   2.350   1.708  10.529  0.1797  0.6630  0.1190
25953SOL     OW82543   3.055   6.533   3.609  0.4534 -0.1786  0.3315
25953SOL    HW182544   3.150   6.545   3.605  0.6660 -1.3559  1.2082
25953SOL    HW282545   3.038   6.509   3.700 -0.6077 -0.5659  0.0492
25954SOL     OW82546   5.821   2.571   3.092 -0.3810  0.2825 -0.0714
25954SOL    HW182547   5.807   2.477   3.105 -2.4923  0.0527 -2.8597
25954SOL    HW282548   5.737   2.611   3.115 -0.5482  1.0435 -1.8589
25955SOL     OW82549   2.717   6.810   5.443 -0.1114  0.0288 -0.0760
25955SOL    HW182550   2.635   6.836   5.485  0.3537  3.0473 -0.8083
25955SOL    HW282551   2.751   6.740   5.498 -1.7165  0.7503  1.9666
25956SOL     OW82552  10.709   1.986  11.509 -0.0340 -0.7261  0.6248
25956SOL    HW182553  10.709   2.010  11.602 -1.0669  1.1127  0.1957
25956SOL    HW282554  10.713   1.890  11.509 -0.9879 -0.8134  2.5769
25957SOL     OW82555   0.906   9.491   4.699 -0.5587 -0.1183 -0.1447
25957SOL    HW182556   0.869   9.577   4.677  1.1570  0.3958 -1.2159
25957SOL    HW282557   0.851   9.459   4.770 -1.6814  1.5578 -0.1992
25958SOL     OW82558   6.551   9.604   3.241 -0.2679  0.2301  0.1472
25958SOL    HW182559   6.615   9.654   3.292  0.4261 -0.3939 -0.0896
25958SOL    HW282560   6.499   9.557   3.307  0.3647 -0.2608  0.3099
25959SOL     OW82561   8.874   5.265   3.615  0.0312 -0.1389 -0.0079
25959SOL    HW182562   8.804   5.212   3.653  0.2651  0.5856  1.4890
25959SOL    HW282563   8.871   5.348   3.662  3.4881 -0.9396  2.0127
25960SOL     OW82564   7.488  11.776  10.036 -0.6625 -0.2779 -0.0846
25960SOL    HW182565   7.494  11.871  10.023 -1.0607 -0.2889 -0.3690
25960SOL    HW282566   7.528  11.761  10.122  1.5383 -0.1455 -1.0248
25961SOL     OW82567   1.765   2.655  10.543 -0.3927  0.2931 -0.0989
25961SOL    HW182568   1.685   2.606  10.522 -0.1333 -1.0105  1.7336
25961SOL    HW282569   1.751   2.686  10.632  0.9925  0.3709  0.1044
25962SOL     OW82570   2.922  11.776   4.348 -0.5332  0.2456  0.0858
25962SOL    HW182571   2.973  11.798   4.425 -1.0222  1.5572  0.0532
25962SOL    HW282572   2.860  11.710   4.379  1.0414 -1.2666  0.1538
25963SOL     OW82573   1.559  10.649   2.808 -0.4760 -0.4624  0.1238
25963SOL    HW182574   1.581  10.596   2.885 -1.7203 -2.4314 -0.7886
25963SOL    HW282575   1.639  10.649   2.755  0.4683  1.1085  1.4657
25964SOL     OW82576   7.052   5.547  10.992  0.3225  0.1127  0.6243
25964SOL    HW182577   6.995   5.530  10.917  1.6163  0.6220 -0.5182
25964SOL    HW282578   7.030   5.636  11.019  0.4116  0.2248  0.3327
25965SOL     OW82579  11.949   5.013   2.103 -0.7298 -0.5853 -0.2520
25965SOL    HW182580  11.979   5.097   2.068  0.9944 -0.9969  0.1506
25965SOL    HW282581  11.977   4.949   2.038 -0.9844 -0.9771  0.0226
25966SOL     OW82582   6.613   6.118   0.150  0.0213 -0.5216  0.4581
25966SOL    HW182583   6.547   6.178   0.115  1.5193 -0.5710 -2.7940
25966SOL    HW282584   6.569   6.034   0.156 -0.2730 -0.6019 -1.8678
25967SOL     OW82585   6.720  11.509   2.528 -0.4189 -0.9538 -0.0749
25967SOL    HW182586   6.748  11.424   2.493  0.4675 -0.1568 -1.3915
25967SOL    HW282587   6.781  11.572   2.489 -2.9505  0.6860 -1.6356
25968SOL     OW82588   9.117   3.892   7.932  0.0841 -0.0616 -0.2773
25968SOL    HW182589   9.100   3.959   7.999  1.0487 -0.4294  0.3565
25968SOL    HW282590   9.191   3.842   7.966 -1.1200 -2.0001 -0.3251
25969SOL     OW82591   1.915   7.153   4.484 -0.0486 -0.1855  0.4273
25969SOL    HW182592   1.824   7.168   4.461  0.5562  0.5373 -1.6608
25969SOL    HW282593   1.916   7.065   4.523 -1.6748 -0.0006  0.9433
25970SOL     OW82594   0.714   6.238   6.279  0.5233  0.4557  0.4884
25970SOL    HW182595   0.770   6.238   6.357  0.4341 -0.3035  0.5651
25970SOL    HW282596   0.751   6.169   6.223 -0.6552 -0.4691  0.7965
25971SOL     OW82597   1.979   8.223  10.500  0.6617 -0.3811 -0.3311
25971SOL    HW182598   1.957   8.171  10.577  0.1193  0.9141  0.4356
25971SOL    HW282599   1.942   8.175  10.426  1.8486 -2.0420  0.0997
25972SOL     OW82600   3.487   0.433   4.002 -0.7673  0.2148 -0.2014
25972SOL    HW182601   3.464   0.512   3.954  0.1126  0.0212 -0.9976
25972SOL    HW282602   3.488   0.364   3.935 -1.3994 -0.4535  0.4528
25973SOL     OW82603   9.849   6.871   7.523  0.1342 -0.0715 -0.5632
25973SOL    HW182604   9.870   6.793   7.472 -1.0242 -1.2598  0.7208
25973SOL    HW282605   9.786   6.919   7.469 -0.4658 -0.9070 -0.6154
25974SOL     OW82606   0.205   5.433  11.269 -0.6628 -0.4723 -0.4350
25974SOL    HW182607   0.283   5.412  11.320 -0.4127  0.2848 -0.4934
25974SOL    HW282608   0.207   5.370  11.197  0.7380  0.5037 -1.2964
25975SOL     OW82609   7.287   5.937   2.875 -0.1194 -0.0794 -0.5532
25975SOL    HW182610   7.195   5.966   2.872  0.0244  0.3628 -0.6637
25975SOL    HW282611   7.338   6.017   2.875  0.2520 -0.3083  0.3247
25976SOL     OW82612   7.531   3.892   9.848 -0.6298  0.6548 -0.0445
25976SOL    HW182613   7.442   3.915   9.822 -0.2971  0.9915 -0.9133
25976SOL    HW282614   7.570   3.974   9.878 -0.4305  0.6158 -0.1976
25977SOL     OW82615   5.754   1.787  11.441 -0.1916 -0.6319  0.3459
25977SOL    HW182616   5.731   1.694  11.444 -1.3183 -0.3739  0.1170
25977SOL    HW282617   5.805   1.802  11.521 -1.3244 -1.1023  1.1767
25978SOL     OW82618   6.536   7.389   3.120 -0.1606 -0.1656  0.3327
25978SOL    HW182619   6.559   7.414   3.030 -1.8791 -2.5151 -0.8564
25978SOL    HW282620   6.620   7.384   3.165  0.8322  0.3226 -1.3580
25979SOL     OW82621  11.640   8.525   7.979 -0.6976  0.2230  0.0523
25979SOL    HW182622  11.561   8.472   7.969 -0.1884 -0.4471 -0.5447
25979SOL    HW282623  11.612   8.614   7.957 -1.2578 -0.0279 -0.2801
25980SOL     OW82624  10.930   1.402   2.717  0.2240 -0.2385  0.1218
25980SOL    HW182625  10.964   1.342   2.651  0.2402 -0.6901  0.5361
25980SOL    HW282626  11.007   1.424   2.770  0.0682 -0.4467  0.4330
25981SOL     OW82627   5.806   5.050   3.352  0.3445 -0.4353 -0.6180
25981SOL    HW182628   5.727   5.070   3.402  0.2332  2.0703 -1.6476
25981SOL    HW282629   5.826   4.959   3.374 -2.1846 -0.8006  0.5157
25982SOL     OW82630   9.178   7.602   9.080  0.4602 -0.4574 -0.0773
25982SOL    HW182631   9.262   7.556   9.075 -0.2927 -2.1339  1.4406
25982SOL    HW282632   9.134   7.580   8.998 -0.0157 -2.8855  0.7406
25983SOL     OW82633   9.524   0.793   4.621 -0.4177 -0.2661 -0.4344
25983SOL    HW182634   9.612   0.821   4.598 -0.5234  0.4002 -0.0609
25983SOL    HW282635   9.527   0.697   4.617  0.3968 -0.2561 -0.1323
25984SOL     OW82636   5.336   1.362   8.346 -0.6099 -0.3758  0.2633
25984SOL    HW182637   5.428   1.382   8.332 -0.2412 -0.4600  2.2444
25984SOL    HW282638   5.326   1.362   8.441 -2.3411 -1.8081  0.1311
25985SOL     OW82639  11.809   7.516   5.615 -0.4779  1.2672 -0.1709
25985SOL    HW182640  11.875   7.572   5.657 -2.9446  3.5863  0.9020
25985SOL    HW282641  11.818   7.431   5.660  1.5491  1.5754  0.1054
25986SOL     OW82642   8.846   5.635   9.254 -0.0381 -0.0657  0.1397
25986SOL    HW182643   8.828   5.716   9.207 -1.1760 -1.2388 -1.5566
25986SOL    HW282644   8.890   5.663   9.334  1.0906  2.0906 -1.1500
25987SOL     OW82645   2.084  10.897   5.434 -0.0227 -0.1146  0.7102
25987SOL    HW182646   2.059  10.836   5.365  0.2622 -0.3735  0.8312
25987SOL    HW282647   2.085  10.843   5.514 -2.2770  0.5823  1.2853
25988SOL     OW82648   2.921  11.459   0.282  0.8957  0.0273  0.1865
25988SOL    HW182649   2.949  11.458   0.190  3.0414  1.3794  0.7443
25988SOL    HW282650   2.993  11.417   0.329 -0.0788 -0.4434  1.2868
25989SOL     OW82651   0.381   7.425   4.244 -0.1030  0.7828 -0.5621
25989SOL    HW182652   0.413   7.426   4.334 -0.3310  1.6036 -0.4805
25989SOL    HW282653   0.458   7.440   4.190  0.0566  0.1552 -0.5235
25990SOL     OW82654   0.414   3.607   5.142  0.0437  0.6151 -0.9282
25990SOL    HW182655   0.354   3.674   5.174  0.8086  2.1526 -2.5130
25990SOL    HW282656   0.461   3.650   5.070  0.4093 -1.6928 -2.1767
25991SOL     OW82657   8.384   8.067   3.596 -0.0390  0.0642 -0.4086
25991SOL    HW182658   8.359   8.160   3.602 -2.1274 -0.4314 -0.6714
25991SOL    HW282659   8.415   8.056   3.507 -0.3768  0.4059 -0.5736
25992SOL     OW82660   2.455   0.010  11.333 -0.2731  0.6471  0.3039
25992SOL    HW182661   2.459   0.081  11.269 -0.2833 -0.0444 -0.4826
25992SOL    HW282662   2.545  -0.001  11.363 -0.3339  1.2513  0.7364
25993SOL     OW82663   9.206  10.915   6.218  0.5924 -0.0660  0.6312
25993SOL    HW182664   9.169  10.956   6.140  0.1175 -0.1892  0.7899
25993SOL    HW282665   9.154  10.836   6.231  0.3635  0.1910  1.3326
25994SOL     OW82666   2.100   8.916   5.300  0.1415 -0.1038  0.6269
25994SOL    HW182667   2.070   8.985   5.359  1.4197  0.4906  0.6247
25994SOL    HW282668   2.057   8.935   5.217  1.1280  1.2346  0.3844
25995SOL     OW82669   6.798   2.493   8.723  0.3671  0.0140  0.3562
25995SOL    HW182670   6.868   2.559   8.722  1.7559 -1.4114 -0.2115
25995SOL    HW282671   6.823   2.433   8.793 -0.2106 -0.5993  0.0445
25996SOL     OW82672   2.350   5.987   3.467  0.3282 -0.2991 -0.6420
25996SOL    HW182673   2.384   6.071   3.437  0.6416 -0.5128 -0.8969
25996SOL    HW282674   2.299   5.954   3.394  1.0688 -0.8082 -0.9470
25997SOL     OW82675   0.981  10.666   8.879 -0.4923 -0.4857  0.2179
25997SOL    HW182676   0.937  10.712   8.808  0.1960 -1.3496 -0.7956
25997SOL    HW282677   1.037  10.601   8.835 -0.2861 -1.2474  1.5486
25998SOL     OW82678   2.126   3.814   6.546 -0.4992 -0.1019  0.1666
25998SOL    HW182679   2.170   3.729   6.534 -1.2366 -0.2705 -1.5056
25998SOL    HW282680   2.038   3.800   6.512 -0.8203  1.1849  0.4415
25999SOL     OW82681   4.774  10.089   6.428  0.4631 -0.0784  0.6685
25999SOL    HW182682   4.839  10.155   6.406 -0.5483  1.2536  1.5296
25999SOL    HW282683   4.794  10.064   6.518 -1.1751  1.6343  1.5970
26000SOL     OW82684  11.016   9.236   0.551 -0.5920  0.0522  0.2989
26000SOL    HW182685  10.958   9.267   0.481 -1.3563  1.1806  1.3891
26000SOL    HW282686  10.957   9.217   0.624  0.3184  0.2770  1.1133
26001SOL     OW82687  10.308   4.912   3.506 -0.4588 -0.0333 -0.6481
26001SOL    HW182688  10.259   4.849   3.559  0.3709  0.6010  0.9405
26001SOL    HW282689  10.264   4.995   3.520 -1.3058 -0.1467 -2.4241
26002SOL     OW82690   2.762   4.046   5.537  0.4497  0.1615 -0.9002
26002SOL    HW182691   2.727   4.135   5.525  2.0171  0.7575 -1.3464
26002SOL    HW282692   2.850   4.051   5.500  0.5976 -1.5679 -0.8230
26003SOL     OW82693   4.959   7.888   4.272 -0.2033 -0.0290 -0.2112
26003SOL    HW182694   4.901   7.843   4.210 -0.9320 -1.1692  1.2197
26003SOL    HW282695   4.937   7.849   4.357  2.3648 -0.1774  0.4507
26004SOL     OW82696   7.556   9.459   2.934 -0.7212  0.5988 -0.0309
26004SOL    HW182697   7.613   9.497   3.001  0.5363  0.0226 -0.7352
26004SOL    HW282698   7.578   9.365   2.934 -1.7889  0.3351 -0.2122
26005SOL     OW82699   6.436   3.589   5.744  0.2046 -0.4185 -0.5761
26005SOL    HW182700   6.398   3.575   5.831 -2.4550 -0.7245 -1.6671
26005SOL    HW282701   6.495   3.516   5.731 -0.6415 -1.2977  0.3695
26006SOL     OW82702   7.408   3.124   0.331  0.1845  0.3752  0.0730
26006SOL    HW182703   7.459   3.203   0.313 -0.9703  1.2794  0.6286
26006SOL    HW282704   7.344   3.152   0.396 -0.6537 -0.8736 -0.1925
26007SOL     OW82705   1.604   1.428   2.242  0.4548  0.3464 -0.3242
26007SOL    HW182706   1.560   1.352   2.281  2.7267 -0.4135  0.9344
26007SOL    HW282707   1.537   1.470   2.188 -1.0122 -2.3100 -0.7255
26008SOL     OW82708   8.649   4.974   9.428 -0.2496 -0.3642  0.1157
26008SOL    HW182709   8.686   5.060   9.406  0.8034 -0.5871  0.9457
26008SOL    HW282710   8.554   4.987   9.423 -0.1806  1.3481  1.9371
26009SOL     OW82711   6.315   9.699  10.287 -0.2588 -0.2497 -0.1464
26009SOL    HW182712   6.228   9.687  10.249 -0.0891  0.2999 -0.7091
26009SOL    HW282713   6.371   9.637  10.239 -0.2994 -0.4731  0.0914
26010SOL     OW82714   3.788   4.339   3.400  0.6684 -0.0031  0.4469
26010SOL    HW182715   3.826   4.396   3.467  3.2303 -1.4947  0.3868
26010SOL    HW282716   3.816   4.377   3.317 -0.0882  0.2323  0.2855
26011SOL     OW82717   8.458   6.214   3.849 -0.1423  0.0881 -0.8995
26011SOL    HW182718   8.527   6.189   3.911 -2.3549 -1.2027  1.2295
26011SOL    HW282719   8.442   6.135   3.798 -2.8431 -1.1694  1.5767
26012SOL     OW82720   6.121   5.074   4.709  0.1125 -0.2165 -0.1769
26012SOL    HW182721   6.150   5.021   4.783 -2.0793  0.3856  1.2122
26012SOL    HW282722   6.080   5.010   4.650 -0.9520 -0.3292  0.6576
26013SOL     OW82723  10.181   4.252   1.803  1.0303 -0.8867  0.2697
26013SOL    HW182724  10.257   4.279   1.856 -0.5075  1.3979  1.5284
26013SOL    HW282725  10.168   4.160   1.825  3.2194 -1.2557  0.2544
26014SOL     OW82726  10.746   3.059   7.302  0.5171 -0.0629  0.1285
26014SOL    HW182727  10.792   3.129   7.349  1.8073 -0.9686  0.2687
26014SOL    HW282728  10.788   3.055   7.216 -0.0393 -0.1869 -0.1435
26015SOL     OW82729   2.966   5.503  11.418  0.3746 -0.1351  0.0107
26015SOL    HW182730   2.880   5.538  11.391 -0.4222 -0.3354  2.0799
26015SOL    HW282731   2.960   5.409  11.401  0.2573 -0.1192 -0.0389
26016SOL     OW82732   4.779   5.198   8.612 -0.2689  0.4983  0.2483
26016SOL    HW182733   4.844   5.196   8.542  0.0033 -0.6658  0.5223
26016SOL    HW282734   4.799   5.122   8.667 -2.1493 -0.1719  0.0812
26017SOL     OW82735   4.852   6.465   3.536  0.1326  0.0053 -0.0464
26017SOL    HW182736   4.778   6.408   3.559 -0.8553  1.0921 -0.3938
26017SOL    HW282737   4.826   6.551   3.568  0.0019  0.9829 -2.5446
26018SOL     OW82738  10.867   4.259   8.301  0.4717  0.9519  0.2445
26018SOL    HW182739  10.916   4.198   8.358  1.1720  1.1064 -0.1765
26018SOL    HW282740  10.858   4.338   8.354 -1.1462  0.2355  1.1016
26019SOL     OW82741  10.438  11.008   5.061 -0.2371  0.3204 -0.2044
26019SOL    HW182742  10.380  11.076   5.097  1.8326  3.0299 -1.5939
26019SOL    HW282743  10.473  10.963   5.138 -0.5970  1.8101  0.8770
26020SOL     OW82744   7.250   4.577   9.469  0.1300  0.1549 -0.3063
26020SOL    HW182745   7.263   4.580   9.563 -0.3919  0.4002 -0.2437
26020SOL    HW282746   7.192   4.651   9.450  0.3960  0.2342 -0.8457
26021SOL     OW82747   9.886   0.598   1.531 -0.1560 -0.1068 -0.3978
26021SOL    HW182748   9.806   0.548   1.514  1.3688 -1.8214 -3.1081
26021SOL    HW282749   9.951   0.533   1.555  1.0982  0.9371 -0.8740
26022SOL     OW82750   3.674   8.985   5.262  0.3618  0.2902 -0.2727
26022SOL    HW182751   3.622   8.932   5.323  0.9675  0.5938  0.5147
26022SOL    HW282752   3.753   8.932   5.246  0.4802  0.4807 -0.3206
26023SOL     OW82753   6.860   0.003   9.347 -0.1992 -0.0185 -0.2337
26023SOL    HW182754   6.868  -0.089   9.372 -1.6493  0.1698  1.1107
26023SOL    HW282755   6.935   0.019   9.291  1.5398 -1.3402  1.5847
26024SOL     OW82756   1.422   7.965   9.937 -0.3925  0.4356  0.1421
26024SOL    HW182757   1.461   8.038   9.985 -1.1554  0.7320  0.3313
26024SOL    HW282758   1.479   7.890   9.956  1.3535  1.3021 -1.3762
26025SOL     OW82759  11.168   5.852   1.237 -0.6210  0.3451  0.7153
26025SOL    HW182760  11.088   5.902   1.251 -0.0348  1.5632 -0.1464
26025SOL    HW282761  11.149   5.795   1.162 -0.8618  0.2138  0.8758
26026SOL     OW82762   3.222   8.255  11.477 -0.3136  0.0280  0.0593
26026SOL    HW182763   3.187   8.208  11.553  1.2238 -1.6352 -0.1813
26026SOL    HW282764   3.213   8.192  11.405  1.1690  0.3457 -0.4348
26027SOL     OW82765   4.200   2.504  10.493  0.0812  0.2179  0.3479
26027SOL    HW182766   4.108   2.480  10.488  0.3081 -0.5464 -0.3769
26027SOL    HW282767   4.206   2.586  10.445 -0.2207  0.2715  0.3981
26028SOL     OW82768   0.178   3.586   5.572 -0.2102  0.6099  0.7599
26028SOL    HW182769   0.086   3.600   5.547 -0.1364  1.3452  0.8835
26028SOL    HW282770   0.190   3.640   5.650  0.4737  0.9538  0.4321
26029SOL     OW82771   5.803   5.688   7.781  0.3824 -0.3224 -0.3373
26029SOL    HW182772   5.801   5.636   7.862  1.6560  0.8722  0.5172
26029SOL    HW282773   5.792   5.778   7.810 -0.0017  0.0566 -1.6058
26030SOL     OW82774   7.720   2.026   0.185 -0.0443  0.4464  0.1178
26030SOL    HW182775   7.637   1.979   0.179 -0.3954  1.1231 -0.5596
26030SOL    HW282776   7.721   2.082   0.107  0.2982  1.6434  0.9517
26031SOL     OW82777   2.170   3.192   7.740 -0.1886  0.0598  0.2305
26031SOL    HW182778   2.236   3.128   7.768  0.3990 -0.6181 -2.3909
26031SOL    HW282779   2.095   3.139   7.715 -0.6276  0.6137  0.3615
26032SOL     OW82780  10.822  11.487   0.625  0.3488  0.3157  0.2814
26032SOL    HW182781  10.727  11.474   0.623  0.1365  1.6757 -1.2198
26032SOL    HW282782  10.833  11.573   0.667  0.7833  0.8309 -0.8415
26033SOL     OW82783   7.490   5.413   0.547 -0.0559 -0.3373  0.4276
26033SOL    HW182784   7.436   5.353   0.495 -0.5503 -0.6590  1.2878
26033SOL    HW282785   7.541   5.355   0.604  0.1337  0.0285  0.6278
26034SOL     OW82786   1.953   9.355   5.231 -0.0396  0.0596 -0.2447
26034SOL    HW182787   1.906   9.347   5.149 -0.0685  0.0891 -0.2311
26034SOL    HW282788   2.008   9.432   5.220  0.8807 -0.6457 -0.6999
26035SOL     OW82789   2.133  11.654   7.503  0.1311  0.3184 -0.1496
26035SOL    HW182790   2.078  11.585   7.541  0.3257 -0.1019 -0.6286
26035SOL    HW282791   2.071  11.723   7.480 -0.5531 -0.9945 -2.6629
26036SOL     OW82792   1.009   6.777   5.879 -0.2555 -0.3917 -0.2447
26036SOL    HW182793   1.024   6.764   5.785 -2.3627  2.8040 -1.1988
26036SOL    HW282794   0.920   6.744   5.894  0.8782 -3.0193  1.2554
26037SOL     OW82795   0.768   0.768   8.685 -0.3447  0.1212 -0.6058
26037SOL    HW182796   0.707   0.774   8.759 -0.6238 -1.9570 -0.6303
26037SOL    HW282797   0.849   0.735   8.723  0.1344  0.8861 -0.9362
26038SOL     OW82798  10.643   7.422   8.119 -0.1172  0.0237  0.2226
26038SOL    HW182799  10.659   7.446   8.028  3.7030  1.5225  1.0815
26038SOL    HW282800  10.703   7.350   8.136 -0.0630  0.3841  1.7601
26039SOL     OW82801   7.453   6.708   7.768  0.4149  0.3527  0.0052
26039SOL    HW182802   7.464   6.753   7.684  1.7787 -0.4166 -0.2623
26039SOL    HW282803   7.470   6.776   7.833  0.4099  0.7122 -0.3611
26040SOL     OW82804  11.253   4.459   6.389 -0.5010 -0.1690  0.6031
26040SOL    HW182805  11.333   4.504   6.417 -1.2439  0.4166  1.9019
26040SOL    HW282806  11.204   4.445   6.470 -1.3267 -1.3033 -0.0633
26041SOL     OW82807   9.588   1.450   5.362 -0.1717 -0.6401  0.2826
26041SOL    HW182808   9.595   1.362   5.324 -0.6691 -0.4006 -0.3958
26041SOL    HW282809   9.558   1.505   5.289  2.0708  0.4979  0.1185
26042SOL     OW82810   4.903   0.992   5.830 -0.1763  0.3890 -0.1404
26042SOL    HW182811   4.899   1.086   5.848  2.2530  0.7579 -1.1202
26042SOL    HW282812   4.827   0.956   5.874 -0.3835  2.6232  1.4971
26043SOL     OW82813  10.054   1.739   4.083  0.2073  0.0507  0.3632
26043SOL    HW182814  10.091   1.678   4.146  0.3463 -0.4668 -0.2137
26043SOL    HW282815  10.126   1.796   4.058  0.6687 -1.0224 -0.8396
26044SOL     OW82816   4.505  11.366   7.628  0.0673  0.5151  0.2025
26044SOL    HW182817   4.521  11.410   7.545 -1.0428 -1.2526 -1.0359
26044SOL    HW282818   4.592  11.356   7.667  1.0591 -1.2601 -2.2130
26045SOL     OW82819   9.711   5.358   0.338 -0.4144 -0.4256 -0.5182
26045SOL    HW182820   9.751   5.295   0.278  0.4873 -0.8499  0.4804
26045SOL    HW282821   9.773   5.364   0.411 -2.0767 -0.9396  1.0096
26046SOL     OW82822   1.000   1.317   4.982  0.8174  0.1038  0.0819
26046SOL    HW182823   0.941   1.279   4.917  0.9964  1.0963 -0.6778
26046SOL    HW282824   0.943   1.369   5.039  0.6953 -0.5722  0.5973
26047SOL     OW82825  10.986   1.222   8.124  0.3842 -0.3629 -0.0104
26047SOL    HW182826  10.966   1.135   8.159 -2.3103 -1.2680 -3.2603
26047SOL    HW282827  10.934   1.282   8.177  0.6095 -0.9708  0.9160
26048SOL     OW82828   7.302  11.916   1.676  0.0954 -0.7083 -0.0873
26048SOL    HW182829   7.379  11.863   1.655 -0.7271 -1.4711 -1.2977
26048SOL    HW282830   7.240  11.897   1.606  0.0508  2.4981 -1.0808
26049SOL     OW82831  11.475   7.842  11.862 -0.3530 -0.3434 -0.0939
26049SOL    HW182832  11.440   7.756  11.839 -1.3145 -0.2786  1.0204
26049SOL    HW282833  11.406   7.882  11.915  0.3097  0.8978 -0.1370
26050SOL     OW82834  11.647   2.914   2.696  0.8956  0.4899  0.2145
26050SOL    HW182835  11.633   2.926   2.603  2.0950 -0.9351 -0.1913
26050SOL    HW282836  11.705   2.837   2.702  0.8759  0.5724  2.1151
26051SOL     OW82837   1.124   5.356   7.290  0.3010 -0.5310 -0.3631
26051SOL    HW182838   1.212   5.356   7.329 -0.3310 -1.5858  1.1593
26051SOL    HW282839   1.072   5.303   7.349 -1.1114 -0.9046 -1.8718
26052SOL     OW82840  10.910   1.246   1.171  0.1296  0.4052 -0.1923
26052SOL    HW182841  10.816   1.245   1.184  0.2409 -0.2794  0.6282
26052SOL    HW282842  10.940   1.162   1.206  1.3032  1.4878  1.5163
26053SOL     OW82843   1.810   6.668   0.146  0.3287  0.5659  0.0460
26053SOL    HW182844   1.856   6.615   0.211  2.2431 -0.7571 -2.2438
26053SOL    HW282845   1.725   6.624   0.135  0.9304 -0.5987 -0.0521
26054SOL     OW82846   9.810   9.847   1.699 -0.1815  0.1494 -0.5572
26054SOL    HW182847   9.840   9.920   1.753  0.5504 -0.2218 -0.4561
26054SOL    HW282848   9.852   9.860   1.614 -0.4820  0.1401 -0.7097
26055SOL     OW82849   5.399   8.949  11.274 -0.1734  0.2545 -0.0476
26055SOL    HW182850   5.345   8.900  11.211 -1.1691  1.0074  0.1966
26055SOL    HW282851   5.412   9.034  11.233  2.2954 -0.4274 -0.8714
26056SOL     OW82852   3.699   6.012   2.620 -0.6622  0.0212 -0.0965
26056SOL    HW182853   3.793   6.020   2.633 -0.7263  2.3618 -0.5010
26056SOL    HW282854   3.661   6.045   2.702 -1.1088  0.4431 -0.4653
26057SOL     OW82855   9.905   4.853  11.184  0.3654 -0.2911 -0.0708
26057SOL    HW182856   9.974   4.919  11.179  1.2616 -1.1465  0.6301
26057SOL    HW282857   9.947   4.778  11.226 -0.3671 -1.6302 -1.6068
26058SOL     OW82858   6.660   9.506   8.010  0.5292 -0.7279 -0.1485
26058SOL    HW182859   6.613   9.511   7.927  1.5080 -0.2028 -0.7001
26058SOL    HW282860   6.682   9.597   8.030  0.6535 -0.8910  0.4761
26059SOL     OW82861   1.880   6.730   0.619  0.2089  0.0932  0.4199
26059SOL    HW182862   1.918   6.702   0.702  0.8281  0.0896  0.1387
26059SOL    HW282863   1.946   6.708   0.554 -0.3308 -0.0393 -0.0947
26060SOL     OW82864   9.376   3.284   1.939  0.0865  0.0753  0.3567
26060SOL    HW182865   9.370   3.295   1.844 -1.0619 -0.5239  0.3374
26060SOL    HW282866   9.294   3.321   1.973 -0.3288 -1.3216  0.9407
26061SOL     OW82867   4.996  11.747   9.548  0.4475  0.0230  0.0515
26061SOL    HW182868   5.006  11.749   9.452  2.7620  3.3520  0.1793
26061SOL    HW282869   4.917  11.799   9.564  0.5209  0.1636 -0.0331
26062SOL     OW82870   2.087   4.081   9.309  0.0656  0.1718  0.2928
26062SOL    HW182871   2.114   4.114   9.224 -2.3644  0.0552 -0.6170
26062SOL    HW282872   1.994   4.061   9.298 -0.5360  0.9340  3.2196
26063SOL     OW82873   4.679   0.695   7.912  0.4754  0.0920 -0.1657
26063SOL    HW182874   4.762   0.648   7.909  0.6830  0.4603 -0.3684
26063SOL    HW282875   4.703   0.784   7.939  0.0352 -0.0349  0.6794
26064SOL     OW82876   6.149   5.933   0.223  0.3885  0.4974  0.4106
26064SOL    HW182877   6.187   5.847   0.201  0.7619  0.6761  0.3575
26064SOL    HW282878   6.094   5.954   0.147  0.8807  0.6457  0.0905
26065SOL     OW82879   8.219   0.129   6.057 -0.5799  0.4018 -0.2283
26065SOL    HW182880   8.133   0.099   6.086 -0.2818  1.1422  1.5068
26065SOL    HW282881   8.199   0.189   5.984 -1.5474  0.6285  0.2038
26066SOL     OW82882   4.580   7.026   1.188 -0.9820  0.2281  0.2040
26066SOL    HW182883   4.521   7.014   1.113  0.0022  0.6594 -0.6634
26066SOL    HW282884   4.604   6.937   1.213 -1.5231  0.0685  0.1752
26067SOL     OW82885   3.237  10.700   5.426 -0.3787 -0.2513  0.5476
26067SOL    HW182886   3.169  10.763   5.401  0.3510 -0.1966 -1.5203
26067SOL    HW282887   3.315  10.728   5.377  0.3063 -2.0420  0.5304
26068SOL     OW82888   5.879   2.806   7.517 -0.4078 -0.3783 -0.1789
26068SOL    HW182889   5.843   2.761   7.594  1.5505 -1.1031  0.3769
26068SOL    HW282890   5.961   2.845   7.549 -0.2986  0.5683 -1.5516
26069SOL     OW82891   2.337   4.976  10.532 -0.2523 -0.6627 -0.2051
26069SOL    HW182892   2.279   5.047  10.560 -0.2879 -0.5226 -0.6344
26069SOL    HW282893   2.423   5.016  10.526 -0.0700 -0.9126  0.6036
26070SOL     OW82894   7.059   0.369   9.687 -0.6894 -0.3703  0.4805
26070SOL    HW182895   7.081   0.448   9.636 -1.0038 -1.5432 -1.5873
26070SOL    HW282896   7.141   0.346   9.731  0.2709 -0.5172 -1.2764
26071SOL     OW82897   7.399   5.599   7.555  0.1513 -0.3557 -0.2967
26071SOL    HW182898   7.356   5.663   7.499 -1.1397 -1.8814 -1.1441
26071SOL    HW282899   7.472   5.646   7.595  0.3703  1.1176 -2.3087
26072SOL     OW82900   4.950   4.644   5.229  0.3335  0.6291  0.5347
26072SOL    HW182901   4.947   4.622   5.322  1.1930  1.5320  0.7977
26072SOL    HW282902   5.041   4.669   5.213  0.0500  1.1273 -0.3877
26073SOL     OW82903   1.650   9.300   1.091 -0.1754  0.3714 -0.1786
26073SOL    HW182904   1.644   9.392   1.118  1.1601  0.3634  0.1876
26073SOL    HW282905   1.668   9.304   0.997  1.8799  0.5589  0.1789
26074SOL     OW82906   8.092   4.734   8.476  0.5890  1.0205 -0.1125
26074SOL    HW182907   8.054   4.740   8.388  0.1330  3.0683  0.1578
26074SOL    HW282908   8.162   4.800   8.477 -0.3267  2.0561  1.4395
26075SOL     OW82909   5.820  11.746  11.311  0.1148 -0.1801  0.1576
26075SOL    HW182910   5.910  11.758  11.280  0.0561 -0.2982 -0.0588
26075SOL    HW282911   5.794  11.833  11.340  0.0595  0.0108 -0.4363
26076SOL     OW82912   0.850  10.175  11.364 -0.3108 -0.1294 -0.1443
26076SOL    HW182913   0.937  10.164  11.403 -1.1385 -0.9334  1.6219
26076SOL    HW282914   0.864  10.170  11.270  1.4709 -0.8256  0.1254
26077SOL     OW82915   8.351   8.849   8.199  0.3088 -0.1855 -0.2471
26077SOL    HW182916   8.341   8.801   8.281 -0.6074 -0.0906 -0.2847
26077SOL    HW282917   8.366   8.939   8.225  2.0121 -0.4633 -0.1754
26078SOL     OW82918   0.127   9.298   9.819 -0.3523 -0.5766 -0.1686
26078SOL    HW182919   0.108   9.329   9.730 -1.2363  1.6816  0.7454
26078SOL    HW282920   0.043   9.262   9.850 -0.1391 -1.0238 -0.1032
26079SOL     OW82921   1.614  10.291   8.351  0.1459  0.4137 -0.8264
26079SOL    HW182922   1.672  10.229   8.395  1.2735  1.5358 -0.6904
26079SOL    HW282923   1.565  10.332   8.423  0.9533  1.2091 -0.7128
26080SOL     OW82924   8.437   8.586   3.813  0.4505  0.1879  0.0945
26080SOL    HW182925   8.528   8.568   3.834  0.7079  0.0973 -1.0237
26080SOL    HW282926   8.434   8.588   3.717 -0.2982  2.3229  0.1036
26081SOL     OW82927   4.077  10.765   5.761  0.3783  0.5717  0.3961
26081SOL    HW182928   4.048  10.846   5.802  1.5182  0.8287  0.7361
26081SOL    HW282929   4.162  10.787   5.723  0.8816 -0.5586  0.8262
26082SOL     OW82930   9.751   3.767   7.124 -0.9859 -0.0262 -0.2195
26082SOL    HW182931   9.792   3.843   7.082 -1.8037  0.0873 -0.8520
26082SOL    HW282932   9.703   3.804   7.198  1.6525 -0.3901  1.8347
26083SOL     OW82933  11.435   9.568   3.041 -0.0610 -0.7995  0.4570
26083SOL    HW182934  11.345   9.542   3.023 -0.3796  1.1352 -1.1336
26083SOL    HW282935  11.488   9.512   2.984 -0.5065 -0.0252 -0.7559
26084SOL     OW82936   1.826   8.247   7.743 -0.9361  0.1128  0.3949
26084SOL    HW182937   1.893   8.183   7.716  0.1145  0.6457  1.6591
26084SOL    HW282938   1.756   8.236   7.679  0.3113 -0.5389 -0.9220
26085SOL     OW82939   6.093   1.586   0.369  0.1870 -0.3728 -0.2118
26085SOL    HW182940   6.176   1.570   0.324  1.5507  0.3458  1.8870
26085SOL    HW282941   6.071   1.503   0.411 -0.0598 -0.5065 -0.6013
26086SOL     OW82942   9.261  10.081  10.262 -0.2696 -0.0123 -0.3703
26086SOL    HW182943   9.185  10.135  10.285 -0.6527  0.1458 -1.9180
26086SOL    HW282944   9.223   9.998  10.233  0.1312  0.1691 -1.4292
26087SOL     OW82945   3.365   1.366   4.580 -0.7805  0.1710  0.4868
26087SOL    HW182946   3.411   1.439   4.621 -1.9204  0.6473  0.9597
26087SOL    HW282947   3.372   1.383   4.486 -1.1511  0.9799  0.5918
26088SOL     OW82948   8.750   0.088  10.502 -0.2310  0.1563 -0.4394
26088SOL    HW182949   8.787   0.006  10.470  0.9866  1.1286 -1.7204
26088SOL    HW282950   8.695   0.064  10.576  0.7376 -1.7088 -0.2790
26089SOL     OW82951   3.483  11.140   6.083 -0.0568 -0.0791  0.5032
26089SOL    HW182952   3.480  11.167   6.174 -0.0455  0.4439  0.3520
26089SOL    HW282953   3.509  11.048   6.086 -0.9465 -0.3297  1.0730
26090SOL     OW82954   7.848   4.577   5.299  0.1907 -0.2621  0.1134
26090SOL    HW182955   7.765   4.568   5.345  0.9715  1.0802  1.9201
26090SOL    HW282956   7.892   4.493   5.314 -0.1804 -0.3880  0.5284
26091SOL     OW82957   6.974   4.212   0.866  0.0512 -0.2383  0.3808
26091SOL    HW182958   6.888   4.180   0.892 -0.6036  2.2945  1.6789
26091SOL    HW282959   6.974   4.206   0.770 -2.2595  1.1571  0.2107
26092SOL     OW82960  11.812  11.025  10.259  0.1359 -0.1718  0.0748
26092SOL    HW182961  11.794  11.011  10.352  0.1447 -1.1636 -0.0588
26092SOL    HW282962  11.729  11.005  10.215 -0.7333  3.0105  0.0418
26093SOL     OW82963   4.482   3.773   4.257 -0.4705 -0.3036  0.1122
26093SOL    HW182964   4.477   3.794   4.350 -0.0030 -2.0514  0.5789
26093SOL    HW282965   4.561   3.718   4.249 -0.0152  0.5145 -1.4710
26094SOL     OW82966   6.480   0.283   6.568  0.1973 -0.0659  0.2490
26094SOL    HW182967   6.540   0.209   6.558 -0.6105 -0.7331  0.1177
26094SOL    HW282968   6.530   0.359   6.541 -0.4428 -1.1002 -5.0360
26095SOL     OW82969   6.825   0.712   4.977  0.5697  0.0085  0.0226
26095SOL    HW182970   6.884   0.785   4.995  1.6445 -1.1288  1.3086
26095SOL    HW282971   6.740   0.753   4.961  1.0505  1.5155  1.1454
26096SOL     OW82972  11.186   9.181  11.736  0.0427 -0.3915  0.2998
26096SOL    HW182973  11.275   9.160  11.766  1.0785  1.2127 -1.4419
26096SOL    HW282974  11.194   9.187  11.640 -2.0970 -0.7629  0.0431
26097SOL     OW82975   0.126  11.256   7.170  0.5482  0.0179  0.4781
26097SOL    HW182976   0.171  11.174   7.192 -0.7178 -0.9077 -0.2082
26097SOL    HW282977   0.171  11.289   7.093 -0.4294 -1.3873 -0.7713
26098SOL     OW82978  10.114   6.853   2.362 -0.3484 -0.0842  0.3405
26098SOL    HW182979  10.065   6.931   2.335  0.0535 -0.0435 -0.2983
26098SOL    HW282980  10.128   6.865   2.456  0.2291  0.9116  0.1425
26099SOL     OW82981   2.114   8.318   2.192  0.1851  0.0515 -0.3956
26099SOL    HW182982   2.060   8.335   2.115  0.1848  2.2075  0.0197
26099SOL    HW282983   2.130   8.404   2.230 -0.6586 -0.9762  2.6201
26100SOL     OW82984   0.950   6.957   3.477 -0.1751  0.1330  0.2632
26100SOL    HW182985   0.911   7.042   3.497 -0.2006  0.4938 -1.1621
26100SOL    HW282986   0.882   6.894   3.501 -0.1954  0.5133  1.2441
26101SOL     OW82987   5.419   3.814   2.260 -0.3065 -0.2041 -0.3303
26101SOL    HW182988   5.439   3.782   2.172 -1.6127  1.6943 -1.3946
26101SOL    HW282989   5.324   3.820   2.262 -0.2170  2.0889  0.2778
26102SOL     OW82990   6.031   4.465   2.682  0.4008  0.1558 -0.0338
26102SOL    HW182991   5.941   4.484   2.656 -0.0329  1.9837  2.3835
26102SOL    HW282992   6.083   4.534   2.643  0.6793 -0.5254 -0.8905
26103SOL     OW82993   0.177   3.489   5.031  0.4206 -0.7939 -0.5638
26103SOL    HW182994   0.255   3.525   5.074  0.6890 -0.3618 -1.3922
26103SOL    HW282995   0.125   3.453   5.103 -0.1399  1.7708  0.4354
26104SOL     OW82996   3.945   0.252   7.986  0.2954 -0.2377 -0.2771
26104SOL    HW182997   3.852   0.273   7.979  0.3994 -0.2305 -3.6060
26104SOL    HW282998   3.948   0.164   8.023 -1.0348 -0.2573 -0.1689
26105SOL     OW82999   1.669   1.946  11.538 -0.3409  0.1467 -0.0075
26105SOL    HW183000   1.676   2.009  11.610  1.9414 -1.9532  1.7584
26105SOL    HW283001   1.731   1.978  11.472 -1.6096  1.4514 -0.6336
26106SOL     OW83002   0.727   2.744   4.584  0.4963  0.6248 -0.0924
26106SOL    HW183003   0.696   2.833   4.569 -2.9061 -0.4680 -0.6098
26106SOL    HW283004   0.769   2.747   4.670 -0.1289  2.6152  0.1904
26107SOL     OW83005   8.565  10.873   1.661  0.1074  0.1285  0.1453
26107SOL    HW183006   8.471  10.863   1.653  0.0363  0.4502  0.5208
26107SOL    HW283007   8.593  10.796   1.711 -0.0538  0.3677  0.6156
26108SOL     OW83008  10.457  11.432   7.756  0.0027 -0.1366 -0.6159
26108SOL    HW183009  10.387  11.409   7.817  0.5460 -3.1921 -1.0080
26108SOL    HW283010  10.430  11.392   7.673  1.2496  0.4261 -1.3192
26109SOL     OW83011  10.660   1.736   4.355 -0.4569 -0.3804  0.1954
26109SOL    HW183012  10.568   1.736   4.327 -0.1829  0.5337 -0.7613
26109SOL    HW283013  10.678   1.827   4.378  0.6531 -0.2302 -1.1750
26110SOL     OW83014   0.815  10.713   2.048 -0.6433 -0.5670  0.1997
26110SOL    HW183015   0.738  10.659   2.031 -1.2093 -0.0360  1.0076
26110SOL    HW283016   0.884  10.651   2.071 -1.2550 -0.9608  1.0027
26111SOL     OW83017   5.549   3.469   0.174 -0.4633 -0.2485  0.5510
26111SOL    HW183018   5.537   3.459   0.079 -0.7304 -1.3274  0.6810
26111SOL    HW283019   5.551   3.564   0.188 -1.7483 -0.0497 -0.3787
26112SOL     OW83020  11.033   1.764   1.386 -0.6115 -0.2709  0.5965
26112SOL    HW183021  11.084   1.733   1.312 -0.6901  0.2325  0.3261
26112SOL    HW283022  11.048   1.859   1.388 -2.6684  0.1245 -0.3783
26113SOL     OW83023   5.009   3.610   9.904 -0.8114  0.4904 -0.4387
26113SOL    HW183024   4.935   3.550   9.893  0.5707 -1.5981  0.9525
26113SOL    HW283025   5.053   3.610   9.819 -0.1333 -1.5566 -0.1521
26114SOL     OW83026   9.412   0.310   7.789  0.5997 -0.3053 -0.3678
26114SOL    HW183027   9.399   0.233   7.734 -1.9458  0.6234 -1.1950
26114SOL    HW283028   9.327   0.353   7.790  1.3929  1.3787  1.8160
26115SOL     OW83029   1.515   3.494   0.813  0.2195  0.2751 -0.1918
26115SOL    HW183030   1.532   3.444   0.893  0.3299 -0.7649 -0.8403
26115SOL    HW283031   1.562   3.446   0.745 -1.1222  0.2384 -1.1365
26116SOL     OW83032   0.719  11.510   7.354 -0.9255  0.5831  0.0618
26116SOL    HW183033   0.813  11.529   7.351 -0.4932 -1.3730 -0.1907
26116SOL    HW283034   0.687  11.559   7.430  0.2407  1.4770 -0.0048
26117SOL     OW83035   3.489   6.750  10.983  0.1543  0.7320 -0.2185
26117SOL    HW183036   3.579   6.757  11.015 -0.1365  2.3480  0.3886
26117SOL    HW283037   3.494   6.774  10.890  0.4610 -0.1132 -0.4288
26118SOL     OW83038   5.769   9.923   6.883  0.2055  0.4445 -0.1147
26118SOL    HW183039   5.718   9.910   6.963 -1.1549  0.5219 -0.9510
26118SOL    HW283040   5.726   9.868   6.817  1.8399 -0.3385 -0.6039
26119SOL     OW83041  10.675   1.973  11.786 -0.1640 -0.0338  0.2138
26119SOL    HW183042  10.673   2.039  11.855 -0.0100 -0.1827  0.3610
26119SOL    HW283043  10.708   1.894  11.829  3.4026  0.7401 -0.7849
26120SOL     OW83044   0.817   8.102   5.901  0.4198  0.3892 -0.3477
26120SOL    HW183045   0.822   8.006   5.894 -3.6139 -0.2129  1.8110
26120SOL    HW283046   0.810   8.132   5.810  0.9768 -1.4410 -1.0433
26121SOL     OW83047   9.180   4.104   5.001 -0.1443 -0.2417  0.1877
26121SOL    HW183048   9.213   4.183   5.044 -0.4925  0.3571 -0.6123
26121SOL    HW283049   9.219   4.105   4.914 -0.9823 -0.3797 -0.2076
26122SOL     OW83050   9.052   1.109  11.462 -0.1362  0.3136 -0.4822
26122SOL    HW183051   9.071   1.070  11.376  0.7361  0.0385 -0.1754
26122SOL    HW283052   9.043   1.034  11.521  0.6015  0.5290 -0.0778
26123SOL     OW83053   3.238   1.142   8.060 -0.3645 -0.2495  0.7246
26123SOL    HW183054   3.252   1.067   8.118 -2.3307  0.1243  1.7511
26123SOL    HW283055   3.147   1.133   8.030 -0.2947  1.1497  0.0066
26124SOL     OW83056   6.102   6.296   2.240  0.6227 -0.6248  0.6876
26124SOL    HW183057   6.034   6.229   2.229 -0.4864  0.0041  3.0408
26124SOL    HW283058   6.062   6.376   2.204  0.9859 -0.7047  0.0999
26125SOL     OW83059   2.310   8.433  11.306  0.4272 -0.4219  0.1599
26125SOL    HW183060   2.378   8.500  11.297 -0.9033  0.7140 -3.1092
26125SOL    HW283061   2.229   8.482  11.316 -0.2755 -1.6533  0.7446
26126SOL     OW83062   5.660   8.098   5.034 -0.1318  0.1654 -0.2641
26126SOL    HW183063   5.647   8.003   5.038  0.4282  0.0089 -1.6181
26126SOL    HW283064   5.665   8.125   5.126 -0.8881 -1.0213  0.1584
26127SOL     OW83065   6.015   5.255   6.776 -0.0846 -0.4787 -0.3550
26127SOL    HW183066   6.005   5.185   6.712  0.5880 -1.1029  0.2052
26127SOL    HW283067   6.095   5.233   6.824  0.4584  0.9672 -0.5287
26128SOL     OW83068   4.220  11.149   0.369  0.5414 -0.0454  0.3089
26128SOL    HW183069   4.131  11.135   0.403  0.1797  0.0977 -0.5633
26128SOL    HW283070   4.248  11.063   0.339  0.9880 -0.2384  1.2325
26129SOL     OW83071   9.845   5.668   7.723 -0.4920  0.4444  0.6008
26129SOL    HW183072   9.823   5.631   7.808 -1.3740 -0.1615  0.1286
26129SOL    HW283073   9.768   5.651   7.669  0.4303 -0.1107 -0.6012
26130SOL     OW83074   2.857   3.542  10.470 -0.1616  0.3453 -0.4962
26130SOL    HW183075   2.789   3.599  10.434  0.0198  0.9397  0.0753
26130SOL    HW283076   2.895   3.593  10.542 -0.6006 -0.8644  0.6148
26131SOL     OW83077   3.050   3.326  11.808 -0.0798  0.7263 -0.4833
26131SOL    HW183078   2.965   3.369  11.821 -0.8066 -0.5710 -0.8017
26131SOL    HW283079   3.090   3.326  11.895 -0.2727  1.5953 -0.3831
26132SOL     OW83080  10.928   0.545   6.245  0.2037 -0.6884  0.1486
26132SOL    HW183081  11.009   0.572   6.201 -0.2078  1.0297  0.3806
26132SOL    HW283082  10.891   0.627   6.278 -1.1800 -1.5650  0.8198
26133SOL     OW83083   6.172   6.546   5.215  0.0380 -0.2425  0.7005
26133SOL    HW183084   6.089   6.526   5.258 -0.6904  0.6635 -0.2616
26133SOL    HW283085   6.223   6.591   5.283 -0.0070 -1.3334  1.4809
26134SOL     OW83086  11.664   7.638   4.350 -0.0808 -0.0728 -0.1145
26134SOL    HW183087  11.616   7.582   4.410  0.4224  0.3082  0.6670
26134SOL    HW283088  11.741   7.666   4.400 -0.1560  1.0438 -0.5876
26135SOL     OW83089   3.674  10.290   0.974  0.5668 -0.0777 -0.3788
26135SOL    HW183090   3.652  10.357   1.039 -0.8591 -0.1491 -0.7504
26135SOL    HW283091   3.589  10.264   0.937  1.3014 -0.3155 -1.9796
26136SOL     OW83092   6.911  10.407  10.887  0.0578  0.5815 -0.2070
26136SOL    HW183093   6.963  10.352  10.945  0.3537  1.3492  0.2681
26136SOL    HW283094   6.822  10.401  10.921 -0.1768 -0.6428 -0.9506
26137SOL     OW83095   6.590   0.619  11.896 -0.1262 -0.4823 -0.2070
26137SOL    HW183096   6.518   0.573  11.940  0.3384 -0.1784  0.9072
26137SOL    HW283097   6.559   0.709  11.887  0.4371 -0.1288  1.1085
26138SOL     OW83098   9.409   0.359  11.972  0.0675 -0.0031 -0.0618
26138SOL    HW183099   9.379   0.330  12.058 -0.0320 -0.3181 -0.2028
26138SOL    HW283100   9.334   0.405  11.935  0.2039  0.3852  0.1357
26139SOL     OW83101  10.246   3.131   8.574  0.3009  0.1572  0.6881
26139SOL    HW183102  10.327   3.182   8.571  0.2359  0.3376  1.6194
26139SOL    HW283103  10.271   3.049   8.618  0.5742 -0.9795 -1.4389
26140SOL     OW83104   3.390   0.736   5.233  0.1102 -0.4555 -0.0838
26140SOL    HW183105   3.356   0.724   5.322  0.7608 -0.5031  0.1653
26140SOL    HW283106   3.466   0.792   5.243  0.3860 -0.7294 -0.5680
26141SOL     OW83107   1.674   1.598  11.537 -0.0153 -0.1118  0.2071
26141SOL    HW183108   1.637   1.655  11.605  0.4373  0.0650  0.3120
26141SOL    HW283109   1.763   1.631  11.525  0.3835 -1.0317  0.5256
26142SOL     OW83110   7.217   8.389   0.449  0.6739 -0.1393  0.1351
26142SOL    HW183111   7.232   8.381   0.355 -0.1339  2.7164 -0.3110
26142SOL    HW283112   7.301   8.365   0.488  1.0158 -1.3977 -1.2684
26143SOL     OW83113   9.180   2.239   0.706  0.2963 -0.0568  0.0707
26143SOL    HW183114   9.174   2.303   0.635 -0.4676 -0.3641 -0.1488
26143SOL    HW283115   9.205   2.291   0.783 -0.5061  0.5440 -0.0607
26144SOL     OW83116  10.232   6.555  11.772 -0.3217 -0.2818  0.0722
26144SOL    HW183117  10.277   6.560  11.857 -0.5783  3.3429  0.1454
26144SOL    HW283118  10.139   6.552  11.794 -0.3552 -2.3310 -0.1421
26145SOL     OW83119   3.807   0.986   3.223  0.7193 -0.1095  0.0033
26145SOL    HW183120   3.747   1.058   3.243 -0.1716 -1.0830  0.9220
26145SOL    HW283121   3.808   0.932   3.303  2.4256 -0.3977 -0.1699
26146SOL     OW83122   4.980   3.747   1.664 -0.1815  0.1358 -0.2072
26146SOL    HW183123   4.926   3.669   1.677 -0.1897  0.4563  2.1571
26146SOL    HW283124   5.044   3.743   1.735 -0.0793  2.1965 -0.1444
26147SOL     OW83125   7.493   6.259   2.422 -0.2027 -0.3547 -0.0385
26147SOL    HW183126   7.574   6.279   2.375 -0.0087 -1.1709 -0.0667
26147SOL    HW283127   7.515   6.183   2.476 -1.2632 -1.3909 -0.9845
26148SOL     OW83128   5.310   8.314  11.663  0.1130  0.2724  0.1270
26148SOL    HW183129   5.268   8.229  11.651  0.6161  0.1501 -0.9011
26148SOL    HW283130   5.271   8.349  11.743  0.7048 -1.3941  1.2008
26149SOL     OW83131   5.222   2.432   2.609  0.1750  0.1607 -0.4377
26149SOL    HW183132   5.272   2.362   2.651  0.2192 -0.1526 -1.0091
26149SOL    HW283133   5.256   2.436   2.520  0.2551  0.9927 -0.3802
26150SOL     OW83134  10.190   0.585   5.331 -0.1416  0.0042  0.2044
26150SOL    HW183135  10.107   0.560   5.372 -0.2119  0.7483  0.5385
26150SOL    HW283136  10.226   0.651   5.389 -0.1922  1.0147 -0.8760
26151SOL     OW83137   3.363   2.532   5.520 -0.5592  0.0094 -0.2670
26151SOL    HW183138   3.350   2.490   5.605  2.4686 -0.8156 -0.1111
26151SOL    HW283139   3.345   2.464   5.456 -0.9401  0.0690 -0.2254
26152SOL     OW83140   9.877   1.004   2.854  0.2324 -0.2830 -0.0364
26152SOL    HW183141   9.918   1.077   2.808 -0.7571  0.1034 -0.3347
26152SOL    HW283142   9.790   0.996   2.814  0.5874 -2.1156 -0.5306
26153SOL     OW83143   7.136  11.516   4.374  0.1792  0.4343 -0.6181
26153SOL    HW183144   7.178  11.456   4.313  0.6440 -0.6456  0.6995
26153SOL    HW283145   7.042  11.504   4.359  0.2357 -1.3301  0.2150
26154SOL     OW83146   0.103   6.374  11.098 -0.5392  0.2702 -0.2708
26154SOL    HW183147   0.146   6.297  11.062 -1.1940  1.4161 -3.9185
26154SOL    HW283148   0.173   6.439  11.105 -0.8016  0.8072 -2.0709
26155SOL     OW83149   2.101   2.603   0.234  0.6105 -0.2449 -0.1924
26155SOL    HW183150   2.021   2.623   0.185  0.8135 -0.2596 -0.5341
26155SOL    HW283151   2.172   2.626   0.174  0.9376  2.1848  0.9982
26156SOL     OW83152   5.189   9.804   8.138 -1.0827  0.0032 -0.1124
26156SOL    HW183153   5.275   9.762   8.141 -1.5119 -0.8921 -0.1712
26156SOL    HW283154   5.126   9.732   8.132 -1.9748  0.5130  2.0470
26157SOL     OW83155   2.395   7.748   3.033  0.3428  0.6206 -0.5097
26157SOL    HW183156   2.476   7.698   3.043  0.5024  0.6958 -1.3586
26157SOL    HW283157   2.396   7.777   2.942 -1.4088 -0.7322 -1.0227
26158SOL     OW83158  11.952   8.197   8.289 -0.0655  0.1905  0.0592
26158SOL    HW183159  12.045   8.181   8.276 -0.3938 -2.6101  0.5437
26158SOL    HW283160  11.930   8.148   8.369 -2.3337 -0.9525 -1.1750
26159SOL     OW83161   7.112  10.450   5.695 -0.2432  0.2223 -0.1419
26159SOL    HW183162   7.121  10.515   5.764  0.7652 -0.4900  0.4282
26159SOL    HW283163   7.196  10.403   5.695 -0.3719 -0.0641 -1.5710
26160SOL     OW83164   1.107   8.206  10.849 -0.0935 -0.6557  0.6737
26160SOL    HW183165   1.108   8.114  10.823 -0.7588 -0.3789 -0.4230
26160SOL    HW283166   1.198   8.225  10.873  0.0287 -1.6189  1.0565
26161SOL     OW83167   5.222   0.609   7.440  0.0753  0.1766  0.3424
26161SOL    HW183168   5.206   0.701   7.463 -1.5983  0.1233 -0.5165
26161SOL    HW283169   5.245   0.611   7.348  0.5236 -0.2309  0.4433
26162SOL     OW83170   4.579   7.647  11.582 -0.0623  0.0880  0.5112
26162SOL    HW183171   4.541   7.718  11.635  0.1785  0.5995  0.0162
26162SOL    HW283172   4.521   7.573  11.597 -0.0811  0.2578  1.3775
26163SOL     OW83173   7.379   5.204   9.370  0.1008 -0.0767 -0.3489
26163SOL    HW183174   7.452   5.200   9.432  0.9037 -1.6919 -1.3197
26163SOL    HW283175   7.413   5.257   9.297  0.1319 -0.4041 -0.5739
26164SOL     OW83176   8.074   4.482   3.499  1.0443  0.4767  0.1878
26164SOL    HW183177   8.076   4.436   3.582 -1.8103 -1.7609 -0.8106
26164SOL    HW283178   8.002   4.545   3.508 -1.4521 -1.9219 -1.4121
26165SOL     OW83179   8.343   5.962   5.838 -0.4913 -0.2061  0.3270
26165SOL    HW183180   8.436   5.939   5.840 -0.0881  1.2966  0.5244
26165SOL    HW283181   8.327   5.990   5.748 -0.6337 -0.0490  0.3984
26166SOL     OW83182   4.614   6.839  11.758 -0.0985 -0.1173  0.8063
26166SOL    HW183183   4.649   6.839  11.847  1.2639 -2.4590  0.3437
26166SOL    HW283184   4.681   6.797  11.705 -1.4429  0.0078 -1.1199
26167SOL     OW83185  11.589   7.455   4.519 -0.0808 -0.0149 -0.3056
26167SOL    HW183186  11.677   7.421   4.535 -0.3397 -1.4991 -1.7796
26167SOL    HW283187  11.534   7.377   4.514 -1.1105  0.7554 -1.5677
26168SOL     OW83188   8.604   0.003   7.764  0.0852 -0.7367 -0.3948
26168SOL    HW183189   8.611  -0.090   7.739 -0.0801 -0.6118 -0.9282
26168SOL    HW283190   8.613   0.050   7.681  1.4600 -0.2128  0.0292
26169SOL     OW83191   4.863   2.332   7.978 -0.2453  0.7275 -0.1622
26169SOL    HW183192   4.903   2.267   8.035  0.9316  0.8608 -0.7969
26169SOL    HW283193   4.920   2.409   7.985  0.4921  0.4261 -2.2035
26170SOL     OW83194   1.360   6.384  11.446 -0.4766  0.1878  0.9298
26170SOL    HW183195   1.364   6.479  11.450 -1.5158  0.2631  0.6415
26170SOL    HW283196   1.446   6.354  11.474  0.4124  1.2476 -0.5650
26171SOL     OW83197   2.490  11.386   7.361 -0.3862  0.1711  0.3195
26171SOL    HW183198   2.466  11.408   7.271 -2.8669  0.7603  1.0470
26171SOL    HW283199   2.480  11.291   7.367  0.1311  0.0887 -0.1118
26172SOL     OW83200   8.380   8.665  11.832 -0.1820 -0.1445  0.1100
26172SOL    HW183201   8.467   8.702  11.815  0.0781 -0.9516 -0.3713
26172SOL    HW283202   8.397   8.576  11.862 -0.8148  0.0128  0.9702
26173SOL     OW83203   7.078   5.751   1.661 -0.4062  0.3396 -0.7989
26173SOL    HW183204   7.085   5.847   1.664 -0.6157  0.3573 -0.9195
26173SOL    HW283205   7.110   5.728   1.573 -1.0071  0.3500 -1.0209
26174SOL     OW83206   1.252   5.254   1.981 -0.0546  0.1523  0.8116
26174SOL    HW183207   1.213   5.225   1.898 -0.3379  0.1738  0.9345
26174SOL    HW283208   1.304   5.330   1.957  1.5979 -1.0899  0.2991
26175SOL     OW83209  11.377   7.785   8.024  0.7532 -0.6436  0.1814
26175SOL    HW183210  11.411   7.833   8.100  0.2934  1.0100 -0.5987
26175SOL    HW283211  11.371   7.851   7.955 -1.5043 -1.4557 -0.4904
26176SOL     OW83212   3.012   3.637   7.024  0.0852  0.9193 -0.3328
26176SOL    HW183213   3.045   3.636   6.934 -0.0333  1.5126 -0.3895
26176SOL    HW283214   2.961   3.718   7.030  1.2985  1.6564  0.6906
26177SOL     OW83215   8.751   4.083   3.332  0.4641  0.2286  0.1375
26177SOL    HW183216   8.748   4.151   3.398  0.6666 -1.3317  1.8241
26177SOL    HW283217   8.709   4.007   3.373 -2.2838  0.0248 -2.6106
26178SOL     OW83218   4.273   3.434   5.896 -0.1733 -0.1414  0.5937
26178SOL    HW183219   4.209   3.504   5.885 -1.3181 -1.1829  0.3396
26178SOL    HW283220   4.232   3.374   5.958  0.5137 -0.9003  0.3337
26179SOL     OW83221   3.126   4.316   2.612 -0.2061 -0.6448  0.3971
26179SOL    HW183222   3.195   4.326   2.546 -1.3790 -0.2051 -0.8167
26179SOL    HW283223   3.079   4.399   2.610 -1.3391 -1.2661  0.5021
26180SOL     OW83224  10.481   5.517   8.027 -0.5910  0.3181 -0.1975
26180SOL    HW183225  10.566   5.502   7.986 -1.2149 -0.0949 -1.3787
26180SOL    HW283226  10.480   5.460   8.103  0.3929  0.7216  0.1299
26181SOL     OW83227  11.989   3.852   3.293 -0.6870  0.0743 -0.2802
26181SOL    HW183228  12.084   3.854   3.285 -0.7430 -0.5256 -1.1920
26181SOL    HW283229  11.957   3.854   3.203 -1.5307 -0.1385  0.0046
26182SOL     OW83230   6.561   2.142   7.745  0.0976  0.2573  0.4420
26182SOL    HW183231   6.625   2.180   7.685  1.4502  0.5937  2.0218
26182SOL    HW283232   6.548   2.209   7.812  0.9763 -1.1941  2.1760
26183SOL     OW83233   2.339   4.431   2.651  0.3611 -0.2781 -0.2879
26183SOL    HW183234   2.339   4.525   2.636  1.2250 -0.3432 -0.7130
26183SOL    HW283235   2.389   4.418   2.731  1.3102 -0.4744 -0.9054
26184SOL     OW83236   9.322   2.760  10.160 -0.1052 -0.2939 -0.3352
26184SOL    HW183237   9.282   2.821  10.099  0.8780  1.2290  0.4839
26184SOL    HW283238   9.356   2.815  10.231  1.0957 -1.7459  0.2807
26185SOL     OW83239   6.532   8.169   0.443 -0.2732 -0.1594 -0.3755
26185SOL    HW183240   6.575   8.153   0.359 -0.7778  0.4116 -0.7445
26185SOL    HW283241   6.524   8.264   0.449 -0.4905 -0.2070  0.1982
26186SOL     OW83242   2.647   2.240   7.924  0.2339  0.4472  0.0137
26186SOL    HW183243   2.717   2.197   7.974  0.0045 -1.6063 -1.2692
26186SOL    HW283244   2.604   2.168   7.877 -2.3009  1.7202  0.1838
26187SOL     OW83245   8.614   0.887  10.324  0.0681 -0.2224  0.4763
26187SOL    HW183246   8.675   0.818  10.351  0.7422  0.4638  0.7777
26187SOL    HW283247   8.568   0.911  10.404 -1.5468 -1.6205  0.0014
26188SOL     OW83248   3.022   9.621   8.606  0.5489 -0.0091  0.4630
26188SOL    HW183249   2.990   9.554   8.546 -0.6566  0.1064  0.9415
26188SOL    HW283250   3.117   9.620   8.595  0.3980 -0.3359 -1.0608
26189SOL     OW83251   8.937   6.261   7.016  0.8774  0.1397 -0.1290
26189SOL    HW183252   8.936   6.334   7.078  0.9500  0.1464 -0.1356
26189SOL    HW283253   8.881   6.290   6.945 -0.2745 -0.4038  0.5334
26190SOL     OW83254   8.176  11.429   2.603  0.0419 -0.3140 -0.1472
26190SOL    HW183255   8.099  11.480   2.629 -1.0387 -1.5266 -0.8787
26190SOL    HW283256   8.234  11.435   2.679 -0.5619  0.9770  0.2542
26191SOL     OW83257   9.439   5.767   4.999 -0.6440 -0.0569 -0.2170
26191SOL    HW183258   9.491   5.715   5.059  0.0744 -0.0808 -0.8483
26191SOL    HW283259   9.471   5.857   5.011 -1.8791  0.2831  0.8728
26192SOL     OW83260   7.857   4.873   2.426 -0.0734  0.1381  0.1212
26192SOL    HW183261   7.863   4.812   2.500  1.3542  2.4349  2.0204
26192SOL    HW283262   7.850   4.959   2.465  1.6445  1.5608 -2.3943
26193SOL     OW83263   7.074  11.423   8.613  0.7093 -0.1087  0.1746
26193SOL    HW183264   7.100  11.450   8.701  0.0739 -0.1741  0.3905
26193SOL    HW283265   7.086  11.328   8.613 -2.1804 -0.5727  1.2493
26194SOL     OW83266   3.872   1.330  10.947  0.5679 -0.5530 -0.7783
26194SOL    HW183267   3.887   1.296  10.859  0.1923  1.0872 -1.5184
26194SOL    HW283268   3.918   1.414  10.948 -0.9927  0.3364 -0.0533
26195SOL     OW83269   6.730   6.382   2.482  0.0158  0.2075 -0.7706
26195SOL    HW183270   6.801   6.321   2.500  0.5192  1.7151  3.5074
26195SOL    HW283271   6.762   6.466   2.512 -2.2862  1.7319 -2.2275
26196SOL     OW83272   4.130   3.575   2.171 -0.2123 -0.0883 -0.8495
26196SOL    HW183273   4.155   3.641   2.107 -1.7693  0.5190 -0.8823
26196SOL    HW283274   4.089   3.506   2.120  2.4172 -1.7198 -0.9549
26197SOL     OW83275   8.995   1.129   9.384  0.0740  0.1922  0.2478
26197SOL    HW183276   8.943   1.087   9.315 -0.0237 -0.7854  0.8939
26197SOL    HW283277   8.942   1.204   9.412  0.4647  1.0626 -1.2496
26198SOL     OW83278   4.390   0.981   8.396 -0.1397 -0.4152 -0.7867
26198SOL    HW183279   4.416   0.990   8.488  0.9938  0.3984 -1.1624
26198SOL    HW283280   4.429   1.057   8.353  1.6704 -2.1605 -2.4128
26199SOL     OW83281   6.014   9.477   7.559 -0.7221 -0.3560 -0.2099
26199SOL    HW183282   6.076   9.418   7.518 -0.8711 -0.3035 -0.5102
26199SOL    HW283283   6.036   9.475   7.652 -0.6596 -0.7989 -0.2360
26200SOL     OW83284   5.271   5.301   9.638 -0.0976  0.8399 -0.1361
26200SOL    HW183285   5.302   5.244   9.708  0.4726  3.3803  1.8074
26200SOL    HW283286   5.175   5.299   9.645 -0.3671 -2.4745 -2.4061
26201SOL     OW83287   9.891   2.645   9.642  0.5086  0.2174  0.3317
26201SOL    HW183288   9.855   2.727   9.677  0.2088 -0.3724  1.4246
26201SOL    HW283289   9.972   2.631   9.690  0.7318  0.0263 -0.0899
26202SOL     OW83290  10.519   5.808   6.177  0.4490  0.0965 -0.1213
26202SOL    HW183291  10.500   5.900   6.195 -2.2593 -0.0086 -1.8484
26202SOL    HW283292  10.562   5.809   6.091  0.7542 -0.2158  0.0275
26203SOL     OW83293   5.305   9.484  11.693 -0.0973  0.3728 -0.0336
26203SOL    HW183294   5.305   9.476  11.789  0.5728  1.3609  0.0596
26203SOL    HW283295   5.394   9.511  11.672 -0.0815 -0.3818 -0.9968
26204SOL     OW83296  11.751   0.359   1.669 -0.4707 -0.5219 -0.0552
26204SOL    HW183297  11.656   0.361   1.672 -0.5486 -2.5333  0.5161
26204SOL    HW283298  11.778   0.347   1.760  0.3989  1.0428 -0.0812
26205SOL     OW83299  10.968   8.728   0.117  0.0259  0.4924 -0.0715
26205SOL    HW183300  10.998   8.748   0.205  1.0460 -0.4307 -0.1884
26205SOL    HW283301  10.934   8.811   0.084 -1.0504  0.6975  1.4283
26206SOL     OW83302   0.634   9.871   7.680 -0.1188 -0.9099  0.0456
26206SOL    HW183303   0.551   9.913   7.704 -0.3156 -0.9564 -0.5296
26206SOL    HW283304   0.640   9.883   7.585  1.3639  0.5424  0.2925
26207SOL     OW83305  10.238   1.133   2.940  0.2815  0.0793  0.1986
26207SOL    HW183306  10.165   1.107   2.996  0.1495  0.0521  0.0130
26207SOL    HW283307  10.220   1.224   2.917  1.3778  0.7797  1.8792
26208SOL     OW83308   0.488   2.934  11.766  0.2200  0.1234  0.4304
26208SOL    HW183309   0.401   2.899  11.750 -0.0423 -0.1388  2.2434
26208SOL    HW283310   0.544   2.886  11.705 -0.5503 -1.5118  0.9359
26209SOL     OW83311   1.825  10.535   6.519  0.0639  0.6319  0.1044
26209SOL    HW183312   1.857  10.519   6.430  0.0699  1.2913 -0.0163
26209SOL    HW283313   1.729  10.532   6.510  0.0659  0.2101  0.1749
26210SOL     OW83314  10.070   0.824   7.017  0.0395  0.1892  0.0204
26210SOL    HW183315  10.151   0.869   7.040  2.0638 -2.5408 -1.1312
26210SOL    HW283316  10.036   0.792   7.101  1.7649 -1.0307  0.3046
26211SOL     OW83317   4.256   0.044   1.908  0.0242 -0.4239 -0.0731
26211SOL    HW183318   4.318   0.061   1.836 -1.0729 -1.9876 -1.4758
26211SOL    HW283319   4.210  -0.036   1.881 -0.3934 -1.1138  2.4356
26212SOL     OW83320   8.864   1.964   7.134  0.1070 -0.3653 -0.1946
26212SOL    HW183321   8.909   2.048   7.127  0.5646 -0.5053  0.8964
26212SOL    HW283322   8.772   1.984   7.117  0.1615  0.4297  0.3948
26213SOL     OW83323  11.226   7.581   2.512 -0.2376  0.0361 -0.1787
26213SOL    HW183324  11.307   7.560   2.465 -1.9822 -0.1088 -3.4009
26213SOL    HW283325  11.227   7.677   2.520  0.3610  0.0126  0.0651
26214SOL     OW83326  11.492   3.998  11.099 -0.5252 -0.2275  0.2492
26214SOL    HW183327  11.556   3.938  11.061  0.1096  0.5636  0.0351
26214SOL    HW283328  11.435   4.023  11.026  1.0287  1.7259 -0.3995
26215SOL     OW83329   8.909  11.066   3.431  0.0901  0.1553 -0.4382
26215SOL    HW183330   8.984  11.058   3.489  0.4106  0.6877 -0.7754
26215SOL    HW283331   8.871  11.151   3.451 -0.8274 -0.3844  0.1966
26216SOL     OW83332  10.613  10.882   0.454  0.0521  1.0719  0.6975
26216SOL    HW183333  10.638  10.802   0.409  1.7365  1.4676  0.8767
26216SOL    HW283334  10.519  10.890   0.439  0.3635  0.6335 -1.8260
26217SOL     OW83335  11.897   1.617  10.483 -0.5749 -0.4203 -0.3332
26217SOL    HW183336  11.956   1.598  10.556 -0.1075 -0.5656 -0.7441
26217SOL    HW283337  11.939   1.578  10.407 -1.3235 -0.7393 -0.5970
26218SOL     OW83338   7.838   7.265   8.775  0.0801 -0.2658  0.4570
26218SOL    HW183339   7.749   7.235   8.791 -0.2737  1.3539  1.6767
26218SOL    HW283340   7.892   7.187   8.789 -1.1218 -1.3265 -0.5285
26219SOL     OW83341   2.976   8.397  11.442  0.2259 -0.3390  0.3205
26219SOL    HW183342   2.986   8.463  11.374  0.3036  0.2244  0.8652
26219SOL    HW283343   3.066   8.381  11.473  0.1659 -0.4167  0.4576
26220SOL     OW83344   6.477   8.991   5.355  0.1911  0.0484  0.3776
26220SOL    HW183345   6.566   8.971   5.385 -0.2165  0.7661  2.1742
26220SOL    HW283346   6.438   8.905   5.340  1.2277 -0.2764 -0.6747
26221SOL     OW83347   2.484  10.610   6.512 -0.2134 -0.0261 -0.6121
26221SOL    HW183348   2.534  10.541   6.468 -0.0671  0.1808 -0.7667
26221SOL    HW283349   2.508  10.601   6.605  1.5666  1.2882 -0.9199
26222SOL     OW83350   5.125   6.424   2.878 -0.3178  0.4031  0.1619
26222SOL    HW183351   5.072   6.439   2.800 -0.5714 -1.1175  0.0220
26222SOL    HW283352   5.111   6.503   2.931 -0.0278  1.5277 -1.3487
26223SOL     OW83353   3.560   8.576   4.735 -0.3914 -0.2567  0.3464
26223SOL    HW183354   3.589   8.488   4.760 -0.4057 -0.7475 -1.2643
26223SOL    HW283355   3.600   8.634   4.800  1.8937 -1.1856 -0.1553
26224SOL     OW83356   8.362   2.705   2.606 -0.3040 -0.1270  0.1919
26224SOL    HW183357   8.453   2.693   2.634 -1.1962 -1.2023  2.9693
26224SOL    HW283358   8.361   2.791   2.564  2.4768 -1.2133 -2.5242
26225SOL     OW83359   0.401   8.017   2.213 -0.5370 -0.3354  0.2817
26225SOL    HW183360   0.341   8.091   2.203 -1.3861 -1.0816 -0.3079
26225SOL    HW283361   0.351   7.952   2.263  0.6673 -0.0178  1.9991
26226SOL     OW83362   4.468   0.493   7.045 -0.2181  0.5000  0.2046
26226SOL    HW183363   4.469   0.432   7.119 -1.0115  0.8589  0.5300
26226SOL    HW283364   4.439   0.576   7.083 -0.2214  0.7930 -0.4303
26227SOL     OW83365   9.325   8.664   9.710 -0.2663  0.3988 -0.5165
26227SOL    HW183366   9.253   8.699   9.764 -1.0624 -1.1321 -0.5422
26227SOL    HW283367   9.379   8.741   9.690 -1.5644  1.4894  0.0077
26228SOL     OW83368   3.719   8.973   9.149  0.4521  0.4099 -0.1997
26228SOL    HW183369   3.803   8.994   9.109  0.8172 -1.9811 -0.8695
26228SOL    HW283370   3.739   8.959   9.242  0.8476 -0.2670 -0.3783
26229SOL     OW83371  11.851   3.869   9.480  0.3221 -0.2901  0.8309
26229SOL    HW183372  11.876   3.913   9.399  0.1035 -1.0328  0.3510
26229SOL    HW283373  11.802   3.792   9.451  0.2301 -0.5535  1.6698
26230SOL     OW83374   2.479   2.999   5.499  0.7528 -0.0626  0.3059
26230SOL    HW183375   2.546   2.969   5.438  0.4926 -1.3558  0.6122
26230SOL    HW283376   2.396   2.974   5.458  0.4764  1.0488  0.1729
26231SOL     OW83377   3.203   8.901   6.581  0.0910 -0.5150  0.3149
26231SOL    HW183378   3.126   8.882   6.633 -0.0439 -2.1244 -0.4172
26231SOL    HW283379   3.169   8.921   6.494  0.4946 -1.6958 -0.1313
26232SOL     OW83380   0.135   2.153   8.571 -0.1144 -0.2121  0.2194
26232SOL    HW183381   0.181   2.117   8.495  2.5600  2.6884  0.2913
26232SOL    HW283382   0.178   2.112   8.646 -0.6642 -0.7494  0.2517
26233SOL     OW83383   3.691   4.507   9.220  0.4316  0.4420  0.5851
26233SOL    HW183384   3.697   4.554   9.138 -0.3252  1.2369  0.9672
26233SOL    HW283385   3.751   4.552   9.279  0.3793  0.3746  0.6905
26234SOL     OW83386   6.361   4.123   0.613  0.5631  0.2953 -0.3225
26234SOL    HW183387   6.354   4.216   0.596  0.0653  0.6961  1.8264
26234SOL    HW283388   6.274   4.096   0.643  0.9084 -0.6827 -0.1412
26235SOL     OW83389   4.227   9.515   7.507 -0.4587  0.2784 -0.2315
26235SOL    HW183390   4.150   9.483   7.553  0.4044 -1.9152 -0.1948
26235SOL    HW283391   4.218   9.611   7.508 -2.3422  0.1357  1.1539
26236SOL     OW83392   2.335   3.704   3.250  0.6182 -0.5504  0.0378
26236SOL    HW183393   2.248   3.729   3.280  0.1067 -0.4719 -1.4354
26236SOL    HW283394   2.393   3.730   3.322 -0.2956  1.5552  0.0955
26237SOL     OW83395   3.743   2.084   9.068 -0.3072  0.4590 -0.0210
26237SOL    HW183396   3.772   2.050   9.153  1.0466 -1.3310 -1.1243
26237SOL    HW283397   3.817   2.137   9.037  0.4879 -1.3256 -1.3405
26238SOL     OW83398   1.686   1.979   8.345 -0.3780  0.3707 -0.1398
26238SOL    HW183399   1.719   2.050   8.400  0.2705 -0.0522  0.0235
26238SOL    HW283400   1.761   1.922   8.331 -1.3649 -1.4745  1.5546
26239SOL     OW83401   2.026   2.697   2.425  0.1334 -0.2161  0.1480
26239SOL    HW183402   1.935   2.720   2.442 -0.2718 -0.5340 -1.3687
26239SOL    HW283403   2.035   2.706   2.330  1.3668 -1.3006  0.1306
26240SOL     OW83404   0.339   9.486   6.353  0.1567 -0.6378  0.2124
26240SOL    HW183405   0.327   9.554   6.419 -2.4854 -0.4767 -0.3164
26240SOL    HW283406   0.302   9.407   6.393  1.5849 -1.3754  0.1449
26241SOL     OW83407   5.483   3.319  11.020 -0.3862 -0.6073  0.7725
26241SOL    HW183408   5.462   3.268  10.942 -0.6974  1.3792 -0.5331
26241SOL    HW283409   5.407   3.311  11.076 -0.4942 -1.4261  0.5149
26242SOL     OW83410   9.038   3.317   2.310 -0.0551  0.8169 -0.1552
26242SOL    HW183411   9.133   3.335   2.308  0.1444  0.0316  1.0703
26242SOL    HW283412   8.999   3.399   2.339  0.3643  0.8163  0.4255
26243SOL     OW83413  11.322   4.690   9.435 -0.3320 -0.3654  0.3706
26243SOL    HW183414  11.241   4.640   9.440 -0.2472 -0.6327 -0.6926
26243SOL    HW283415  11.387   4.635   9.480 -0.7419 -0.1255  1.2673
26244SOL     OW83416   7.935  10.449   2.117 -0.1327 -0.1168  0.1786
26244SOL    HW183417   7.860  10.491   2.160 -0.8999 -1.3877  0.1326
26244SOL    HW283418   7.920  10.462   2.024  0.4220  0.7957  0.2081
26245SOL     OW83419   0.933   7.444   4.646 -0.1335  0.7529  0.1018
26245SOL    HW183420   0.875   7.507   4.604 -0.2718 -0.0478 -0.9544
26245SOL    HW283421   0.942   7.373   4.582  1.4497  0.5288  0.5325
26246SOL     OW83422   3.799   9.648   8.418 -0.0279 -0.1486 -0.6461
26246SOL    HW183423   3.886   9.664   8.382  0.2727 -3.2761 -1.6264
26246SOL    HW283424   3.815   9.588   8.492 -1.3338 -0.9515 -0.9843
26247SOL     OW83425   4.615   2.551   2.333 -0.8195 -0.3281 -0.3020
26247SOL    HW183426   4.616   2.647   2.335 -0.5386 -0.3359 -0.0662
26247SOL    HW283427   4.696   2.525   2.377 -0.9150 -0.6760 -0.3296
26248SOL     OW83428   5.746   5.746   3.782 -0.1193 -0.1457  0.2721
26248SOL    HW183429   5.825   5.711   3.741  0.3434  2.6241 -1.5130
26248SOL    HW283430   5.674   5.703   3.737  0.2915 -2.3878  1.6246
26249SOL     OW83431   5.188   1.778   9.288  0.2708 -0.3133 -0.0413
26249SOL    HW183432   5.249   1.851   9.273 -0.1898  0.3524  1.2379
26249SOL    HW283433   5.243   1.700   9.281  1.0381  0.2207 -0.1117
26250SOL     OW83434   8.754   7.893  10.168  0.0872  0.6885 -0.0073
26250SOL    HW183435   8.667   7.905  10.129 -0.0722 -0.0447  0.0988
26250SOL    HW283436   8.815   7.900  10.094 -0.1228  0.4721 -0.2014
26251SOL     OW83437   5.665   7.823   5.010 -0.6917 -0.2490 -0.3162
26251SOL    HW183438   5.758   7.806   4.994 -0.2703  1.8358 -0.3747
26251SOL    HW283439   5.646   7.780   5.093  0.9135  1.0846  0.8003
26252SOL     OW83440   0.203   0.327   2.697 -0.2690  0.0186 -0.2703
26252SOL    HW183441   0.242   0.414   2.704  0.6360 -0.4160  0.3579
26252SOL    HW283442   0.150   0.317   2.776  0.4649 -0.3808  0.1880
26253SOL     OW83443   8.010   9.535   5.843  0.3395  0.1111  0.4255
26253SOL    HW183444   8.019   9.449   5.801 -1.7936  0.0334  0.0075
26253SOL    HW283445   7.924   9.566   5.815  0.5649  1.8633  1.5488
26254SOL     OW83446  10.735   2.533  10.421  0.0088 -0.3164 -0.0506
26254SOL    HW183447  10.711   2.497  10.507 -0.2390 -2.2399 -0.8839
26254SOL    HW283448  10.805   2.595  10.440  2.7820 -3.5292  1.2534
26255SOL     OW83449   5.187  10.783   4.691 -0.5975  0.4145 -0.2178
26255SOL    HW183450   5.145  10.789   4.776 -0.2548  0.7281 -0.0655
26255SOL    HW283451   5.264  10.728   4.707 -1.4237 -0.9301 -0.6899
26256SOL     OW83452   8.263   0.523  11.237 -0.4958 -0.6635  0.6990
26256SOL    HW183453   8.355   0.547  11.249 -0.3131 -0.2935 -1.2081
26256SOL    HW283454   8.263   0.464  11.162 -1.7700 -1.0087  0.9512
26257SOL     OW83455   7.893   0.147  10.520 -0.0260 -0.4768  0.2701
26257SOL    HW183456   7.927   0.234  10.542  2.6004 -1.7851  1.9845
26257SOL    HW283457   7.807   0.143  10.562 -0.4204  1.4173 -0.2543
26258SOL     OW83458   5.419   5.253   7.267  0.6592  0.4273  0.7498
26258SOL    HW183459   5.364   5.286   7.197 -0.0839 -1.3991  0.4248
26258SOL    HW283460   5.470   5.329   7.295 -2.3875  2.3752  1.4769
26259SOL     OW83461   1.534  10.649   4.139 -0.2733 -0.1109  0.5763
26259SOL    HW183462   1.502  10.701   4.066 -0.6272 -1.8496 -0.5672
26259SOL    HW283463   1.556  10.564   4.100 -0.3440 -1.0492  2.4750
26260SOL     OW83464   4.752   2.112   3.641  0.9317  0.4067  0.3386
26260SOL    HW183465   4.811   2.061   3.587 -0.3233  0.5890 -1.2724
26260SOL    HW283466   4.716   2.178   3.582 -2.9083 -1.3291  0.4380
26261SOL     OW83467   2.374   8.991   6.749  0.1443 -0.5347  0.4942
26261SOL    HW183468   2.429   9.062   6.782 -0.7660 -0.3384  1.6309
26261SOL    HW283469   2.324   9.030   6.677 -0.8725  0.2062  1.5714
26262SOL     OW83470   3.617   3.863   2.214  0.3624  0.5919  0.1529
26262SOL    HW183471   3.579   3.935   2.163  0.3862  0.4463 -0.0763
26262SOL    HW283472   3.541   3.812   2.243  0.3577  0.5652  0.0948
26263SOL     OW83473   0.488   8.162   3.817 -0.1178  0.3932 -0.2444
26263SOL    HW183474   0.448   8.210   3.745  2.6406  0.8883 -1.6004
26263SOL    HW283475   0.562   8.217   3.845  0.9108 -1.3396  0.6727
26264SOL     OW83476  10.359   6.617   3.678  0.2595 -0.0066  0.0065
26264SOL    HW183477  10.407   6.690   3.640 -0.5766  0.2039 -0.6599
26264SOL    HW283478  10.344   6.643   3.769 -0.1745  0.7266 -0.2671
26265SOL     OW83479   8.555   1.970  11.192  0.2295 -0.0572  0.3449
26265SOL    HW183480   8.535   1.888  11.238 -0.7884  1.1768  2.2759
26265SOL    HW283481   8.648   1.985  11.208 -0.0522  0.2205  1.8851
26266SOL     OW83482   9.956   5.317   7.088  0.7519 -0.0646  0.7180
26266SOL    HW183483  10.017   5.369   7.140  0.5490  1.0790 -0.1469
26266SOL    HW283484   9.950   5.363   7.005 -1.8240  0.2976  1.0076
26267SOL     OW83485   7.983   8.823   0.625 -0.0188  0.1966  0.4173
26267SOL    HW183486   8.048   8.890   0.646 -0.7603  1.6757 -1.5585
26267SOL    HW283487   7.998   8.753   0.688  1.9332  1.4870  1.4893
26268SOL     OW83488   4.456   1.562   7.357  0.3922  0.0041  0.2457
26268SOL    HW183489   4.487   1.599   7.440 -1.0452  0.4507  0.6059
26268SOL    HW283490   4.454   1.636   7.297 -0.6198  0.1356  0.4244
26269SOL     OW83491   3.762   6.395  11.591 -0.7487 -0.4192 -0.1901
26269SOL    HW183492   3.754   6.486  11.620  2.3121  0.1609 -0.8893
26269SOL    HW283493   3.751   6.344  11.671  1.4637  0.8187  1.0147
26270SOL     OW83494   2.490   8.101   3.370 -0.0048  0.3018 -0.1285
26270SOL    HW183495   2.552   8.063   3.308  0.1293  0.1843  0.0794
26270SOL    HW283496   2.501   8.196   3.361 -2.3129  0.4650 -2.7326
26271SOL     OW83497   3.675   2.989   7.002  0.1320  0.3918 -0.0674
26271SOL    HW183498   3.698   2.967   7.092  0.5125  0.5199 -0.1291
26271SOL    HW283499   3.648   2.906   6.963 -1.0499  0.5161  0.4545
26272SOL     OW83500   6.235   3.916   2.019  0.3697  0.0185  0.0016
26272SOL    HW183501   6.318   3.868   2.014  0.2255 -0.0947 -1.5919
26272SOL    HW283502   6.204   3.901   2.109  2.6069  0.9795  1.0193
26273SOL     OW83503   7.600  10.161  10.688 -0.1971 -0.0163  0.0167
26273SOL    HW183504   7.566  10.140  10.601 -0.0462  0.1646 -0.0851
26273SOL    HW283505   7.693  10.140  10.682  0.3227  2.2104 -0.5912
26274SOL     OW83506   5.403   8.214   0.059  0.4688 -0.1136 -0.6790
26274SOL    HW183507   5.443   8.292   0.020  0.6840 -0.1664 -0.5657
26274SOL    HW283508   5.475   8.169   0.102  0.1470  0.1965  0.2031
26275SOL     OW83509   1.488   0.267   7.969  0.1922  0.0399  0.1057
26275SOL    HW183510   1.442   0.300   7.892  1.5853  0.1985 -0.6922
26275SOL    HW283511   1.551   0.335   7.991 -0.2318  0.0270  1.4572
26276SOL     OW83512   0.381   4.243   4.586  0.6417 -0.3919  0.2882
26276SOL    HW183513   0.308   4.298   4.557 -0.3049 -1.1197  1.1633
26276SOL    HW283514   0.430   4.224   4.507  0.2077  0.5929 -0.2342
26277SOL     OW83515   9.469  11.549   7.904  0.8935  0.2916  0.5431
26277SOL    HW183516   9.506  11.537   7.816  1.5727  0.2344  0.8295
26277SOL    HW283517   9.378  11.574   7.888  1.0740  0.5209 -0.1822
26278SOL     OW83518  11.293   2.628   3.522  0.2330 -0.3542 -0.1756
26278SOL    HW183519  11.267   2.720   3.525  0.0062 -0.4449  1.1793
26278SOL    HW283520  11.211   2.580   3.514  0.2503 -0.4865  0.4014
26279SOL     OW83521  10.079   9.951   5.053  0.2760 -0.6840 -0.3260
26279SOL    HW183522  10.125   9.900   4.987 -0.2959 -0.6717 -0.7393
26279SOL    HW283523   9.997   9.904   5.068  0.3428 -0.6169  0.2819
26280SOL     OW83524   2.017   9.636   5.191 -0.3318 -0.1678 -0.2737
26280SOL    HW183525   2.051   9.714   5.148 -3.5207  0.6745 -1.5579
26280SOL    HW283526   2.003   9.663   5.282  3.1463 -0.8816  0.6052
26281SOL     OW83527   9.657   2.327  10.876  0.2836 -0.3890 -0.2505
26281SOL    HW183528   9.730   2.312  10.937  0.6674  0.2460 -0.5463
26281SOL    HW283529   9.690   2.298  10.792  0.0970 -0.3557 -0.3348
26282SOL     OW83530   7.084   5.480   9.419  0.4478 -0.0287 -0.1094
26282SOL    HW183531   6.997   5.472   9.457 -0.2084 -0.7035 -1.6850
26282SOL    HW283532   7.144   5.456   9.490 -0.7215 -1.3865  0.4520
26283SOL     OW83533   9.888   0.039  11.461  0.6095 -0.0140  0.3546
26283SOL    HW183534   9.825   0.037  11.532  0.8493  0.5571  0.5906
26283SOL    HW283535   9.845   0.092  11.393  0.8724  0.4697  0.5591
26284SOL     OW83536   7.758   1.103  10.869 -0.2943  0.1229 -0.1355
26284SOL    HW183537   7.674   1.065  10.894  0.8892 -1.8616  1.1322
26284SOL    HW283538   7.818   1.028  10.865  1.5921  1.5556 -0.2151
26285SOL     OW83539  10.904   3.508   8.819 -0.2828 -0.3628 -0.1980
26285SOL    HW183540  10.918   3.579   8.882 -0.1836 -0.8023  0.2894
26285SOL    HW283541  10.980   3.451   8.831  0.2114  0.0304 -1.3866
26286SOL     OW83542   7.323  10.460   3.934  0.4928  0.1517 -0.5344
26286SOL    HW183543   7.301  10.442   4.026  0.3408  0.4650 -0.5086
26286SOL    HW283544   7.240  10.487   3.895  0.6279  0.3421 -0.6867
26287SOL     OW83545  10.596   5.698  11.198 -0.1886 -0.7256  0.0082
26287SOL    HW183546  10.629   5.750  11.271  0.0609  2.3446 -2.0716
26287SOL    HW283547  10.504   5.725  11.189 -0.8297 -2.6460  0.4227
26288SOL     OW83548   2.321  11.828  10.636 -0.4311  0.5194  0.8254
26288SOL    HW183549   2.256  11.896  10.652 -2.1721 -0.6278 -0.8513
26288SOL    HW283550   2.401  11.875  10.612 -1.5447  1.9918 -0.1343
26289SOL     OW83551   0.897   8.854   7.276  0.1300  0.5760  0.1201
26289SOL    HW183552   0.910   8.919   7.206  1.6012  0.4385  0.2254
26289SOL    HW283553   0.933   8.773   7.239 -0.1785  0.2239  0.5983
26290SOL     OW83554  11.140   8.252   7.253  0.3646 -0.2437 -0.0289
26290SOL    HW183555  11.204   8.182   7.260 -0.4707 -1.1519 -0.9779
26290SOL    HW283556  11.172   8.307   7.182 -0.4583 -1.3715 -1.3354
26291SOL     OW83557   7.749   1.086   6.022 -0.1065  0.2343  0.3215
26291SOL    HW183558   7.664   1.091   5.979  0.7743 -1.1175 -1.7414
26291SOL    HW283559   7.769   0.993   6.024  1.1634  0.5043  1.1272
26292SOL     OW83560  10.773   0.753  10.450 -0.8395  0.6605  0.2412
26292SOL    HW183561  10.753   0.845  10.465  0.3892  0.6650  2.2293
26292SOL    HW283562  10.817   0.751  10.365 -1.1527  1.8500  0.0340
26293SOL     OW83563   0.933   4.048   1.461 -0.0666 -0.3174  0.3354
26293SOL    HW183564   0.994   4.102   1.411 -0.0770 -0.9073 -0.3513
26293SOL    HW283565   0.879   4.110   1.510 -0.8917  0.3810 -1.3598
26294SOL     OW83566   1.243   1.700   6.129  0.5801  0.0287 -0.3157
26294SOL    HW183567   1.173   1.686   6.193  1.1919 -0.8532  0.1714
26294SOL    HW283568   1.218   1.782   6.085 -0.6372 -0.1502 -0.0030
26295SOL     OW83569   2.860   8.111   2.977 -0.0530 -0.2503 -0.3547
26295SOL    HW183570   2.900   8.127   2.892  0.1453 -1.9232 -0.6085
26295SOL    HW283571   2.784   8.170   2.980  0.4138  0.4148 -1.3316
26296SOL     OW83572   1.574   8.739   3.708  0.3803  0.0592 -0.2067
26296SOL    HW183573   1.483   8.735   3.738  0.0348  0.6981 -1.1299
26296SOL    HW283574   1.615   8.661   3.746 -0.7513 -0.6842 -0.4596
26297SOL     OW83575   5.222   4.639   1.254 -0.4805  0.2724  0.4990
26297SOL    HW183576   5.163   4.708   1.225  1.8288  1.7892 -0.9377
26297SOL    HW283577   5.239   4.587   1.176  1.6056  1.1276  0.3124
26298SOL     OW83578   8.925   3.882   9.960  0.1164  0.0840 -0.1869
26298SOL    HW183579   8.881   3.864  10.043 -0.8265  0.9991 -0.4582
26298SOL    HW283580   8.910   3.975   9.945  1.7295  0.3080 -0.5681
26299SOL     OW83581  10.412  10.004  10.161  0.0265  0.6072  0.1579
26299SOL    HW183582  10.439  10.048  10.241  0.9199  0.0689  0.1735
26299SOL    HW283583  10.330   9.961  10.183  0.2890  0.4267  0.8006
26300SOL     OW83584   3.433   9.847   2.087  0.1386 -0.4010 -0.0488
26300SOL    HW183585   3.519   9.810   2.067  1.4578  1.2105  2.1754
26300SOL    HW283586   3.440   9.939   2.062 -0.1250  0.2647  2.1049
26301SOL     OW83587   8.837   2.189   5.526 -0.0136 -0.2878  0.0488
26301SOL    HW183588   8.832   2.190   5.622  0.4519  2.0709  0.1275
26301SOL    HW283589   8.766   2.247   5.499  0.7160  0.1657 -0.9469
26302SOL     OW83590   7.486   1.123  10.225 -0.8023  0.4103 -0.5658
26302SOL    HW183591   7.468   1.191  10.290 -0.3697 -0.5538  0.6091
26302SOL    HW283592   7.511   1.171  10.146 -0.6659  1.6121  0.1789
26303SOL     OW83593  10.850  11.753   8.998 -0.3607  0.3657 -0.4835
26303SOL    HW183594  10.940  11.784   9.006 -0.2033 -0.3014  0.4878
26303SOL    HW283595  10.799  11.832   8.982  0.0715  1.1306  1.5819
26304SOL     OW83596  11.169   0.725  11.117  0.2596  0.2315  0.0203
26304SOL    HW183597  11.154   0.645  11.167 -0.9127  0.2787 -0.2285
26304SOL    HW283598  11.082   0.751  11.087  0.7910  0.8745 -1.0121
26305SOL     OW83599   5.085   5.441   7.270 -0.0027 -0.1002  0.4396
26305SOL    HW183600   5.125   5.397   7.344  0.1001 -0.5648  0.1133
26305SOL    HW283601   5.134   5.411   7.194 -0.0444  0.4415  0.1882
26306SOL     OW83602   0.415   1.523   7.402  0.7768 -0.3875  0.4083
26306SOL    HW183603   0.405   1.440   7.450 -0.7106 -0.5055 -0.0585
26306SOL    HW283604   0.453   1.497   7.318 -3.0154 -1.2155 -1.2516
26307SOL     OW83605   8.635   6.596  11.300  0.4303  0.3855  0.2284
26307SOL    HW183606   8.671   6.582  11.388  0.5111  1.0625  0.3112
26307SOL    HW283607   8.686   6.537  11.244 -0.2229 -0.7176  0.7541
26308SOL     OW83608   9.441   7.512   1.274 -0.3767  0.2568  0.2401
26308SOL    HW183609   9.442   7.427   1.231  0.6000 -0.5260  1.7026
26308SOL    HW283610   9.390   7.568   1.216  1.0907 -0.6220 -2.0473
26309SOL     OW83611  10.840   9.572   0.469 -0.2217  0.1742  0.0214
26309SOL    HW183612  10.907   9.635   0.498 -1.4536  0.7633  1.7343
26309SOL    HW283613  10.759   9.623   0.466 -0.6179 -0.4810 -2.2008
26310SOL     OW83614   4.026   9.236  10.365 -0.3847  0.2205  0.3310
26310SOL    HW183615   4.091   9.184  10.411 -0.0517 -0.2192 -0.6160
26310SOL    HW283616   3.987   9.176  10.301  0.0611  1.1210 -0.8326
26311SOL     OW83617   6.732   1.825  11.186  0.5254  0.0303  0.1429
26311SOL    HW183618   6.753   1.746  11.234 -1.6892 -0.1288  0.9351
26311SOL    HW283619   6.811   1.844  11.135  2.1258 -1.0475  2.0949
26312SOL     OW83620   5.040   3.127   6.967  0.4550  0.2563  0.4216
26312SOL    HW183621   5.036   3.177   7.048  0.7150 -0.6619  1.0222
26312SOL    HW283622   5.009   3.187   6.899 -0.3555  0.8418  1.2955
26313SOL     OW83623   8.153   4.236   4.404 -0.5604  1.2042  0.1651
26313SOL    HW183624   8.167   4.182   4.326  0.5783 -2.3686  2.5616
26313SOL    HW283625   8.222   4.209   4.464 -1.9178  3.1005  2.7718
26314SOL     OW83626  11.391   0.886   0.689 -0.2164  0.2568  0.4870
26314SOL    HW183627  11.386   0.820   0.620  0.6619  1.2388 -0.5526
26314SOL    HW283628  11.375   0.969   0.645  0.7434  0.9466  1.3733
26315SOL     OW83629   2.749   6.180   9.623  0.0065  0.4355  0.0754
26315SOL    HW183630   2.730   6.260   9.575  2.2006  0.6945 -0.4838
26315SOL    HW283631   2.751   6.205   9.715 -1.2416  0.5881  0.0665
26316SOL     OW83632   0.793   5.216   8.324 -0.3022  0.2715 -0.4547
26316SOL    HW183633   0.698   5.228   8.330 -0.4313  0.4765 -2.2647
26316SOL    HW283634   0.824   5.223   8.414 -1.7344  2.5548 -0.0444
26317SOL     OW83635   2.215   3.584   7.488  0.1664  0.2844 -0.5712
26317SOL    HW183636   2.305   3.577   7.456  0.7163  1.7987  0.5437
26317SOL    HW283637   2.223   3.596   7.582 -1.0330  2.9050 -0.7092
26318SOL     OW83638   8.837   1.998   6.533  0.5685 -0.1239  0.2250
26318SOL    HW183639   8.813   1.957   6.450  2.7597 -0.0735 -0.5096
26318SOL    HW283640   8.789   1.949   6.600  1.9565 -2.9701 -0.7338
26319SOL     OW83641  10.812   6.686   8.729 -0.4537 -0.1872  0.2041
26319SOL    HW183642  10.797   6.638   8.810  0.5496 -0.7407  0.0746
26319SOL    HW283643  10.860   6.764   8.756  0.5356 -0.7360  0.0691
26320SOL     OW83644   5.734  11.525   9.701  0.4032  0.3706  0.4319
26320SOL    HW183645   5.790  11.538   9.778 -0.3300 -2.0168  1.4703
26320SOL    HW283646   5.645  11.530   9.736  0.0433 -2.8505  0.2852
26321SOL     OW83647   6.443   4.028   3.341  0.4788 -0.3928 -0.0124
26321SOL    HW183648   6.494   4.063   3.414  0.5353 -0.7028  0.0977
26321SOL    HW283649   6.507   4.009   3.272  0.4493 -0.2876 -0.0689
26322SOL     OW83650   5.017   7.926   1.542 -0.4287  0.3242  0.4892
26322SOL    HW183651   5.037   7.993   1.608  1.1434  0.9943 -0.5981
26322SOL    HW283652   5.051   7.845   1.579 -0.0065  0.6029  0.7225
26323SOL     OW83653   0.129   2.899   5.648  0.4033 -0.0032  0.3542
26323SOL    HW183654   0.217   2.937   5.652 -0.1265  1.7723 -2.2016
26323SOL    HW283655   0.091   2.917   5.735  1.6039  1.7875  0.5657
26324SOL     OW83656   1.644   0.188  10.565 -0.1193 -0.1534  0.6224
26324SOL    HW183657   1.554   0.183  10.598  0.2897 -1.0590  1.6821
26324SOL    HW283658   1.642   0.259  10.501 -1.6346 -0.3006  0.4623
26325SOL     OW83659   2.914   0.280   5.401 -0.2333  0.2243  0.4524
26325SOL    HW183660   2.860   0.356   5.383 -0.7114  0.4912  2.6885
26325SOL    HW283661   2.982   0.282   5.334 -2.0635  0.7506 -1.4792
26326SOL     OW83662   2.568   9.359   3.719  0.3319 -0.3914  0.1863
26326SOL    HW183663   2.573   9.397   3.807  0.9628  0.1346 -0.0661
26326SOL    HW283664   2.483   9.388   3.685  0.2830 -0.2152  0.4579
26327SOL     OW83665   6.729   5.192   0.289 -0.3286 -0.3812  0.4299
26327SOL    HW183666   6.650   5.199   0.236 -0.2654 -0.8403  0.2698
26327SOL    HW283667   6.799   5.177   0.226  0.5071  3.5800  0.1673
26328SOL     OW83668   9.680   0.593   4.289 -0.3438 -0.1335 -0.2638
26328SOL    HW183669   9.677   0.509   4.335  0.4510  0.1882  0.4116
26328SOL    HW283670   9.592   0.604   4.254 -0.7531 -0.7731  0.5052
26329SOL     OW83671   3.959   2.683   0.047  0.3247 -0.0780 -1.2125
26329SOL    HW183672   4.039   2.678  -0.005  1.1684 -0.7338  0.0867
26329SOL    HW283673   3.976   2.627   0.122 -1.4901 -0.4834 -1.0559
26330SOL     OW83674   4.698   5.154   1.526 -0.1361  0.3624  0.4991
26330SOL    HW183675   4.635   5.183   1.592 -1.4055 -0.1187 -0.4602
26330SOL    HW283676   4.677   5.062   1.512  0.5248  0.3021 -0.1457
26331SOL     OW83677  10.969   7.809   5.736 -0.0910 -0.6487  0.0257
26331SOL    HW183678  10.969   7.897   5.698 -0.6282 -1.4272 -1.8971
26331SOL    HW283679  10.989   7.823   5.828  0.3827  1.4398 -0.3358
26332SOL     OW83680   8.754   4.732   4.159 -1.0469  0.4542 -0.1674
26332SOL    HW183681   8.797   4.794   4.218 -0.1730 -0.1967 -0.1026
26332SOL    HW283682   8.740   4.781   4.079  1.2963  0.2695 -0.7678
26333SOL     OW83683   8.490   1.652   3.166  0.1178 -0.4954  0.7150
26333SOL    HW183684   8.580   1.670   3.137  0.1975 -1.5776  0.2413
26333SOL    HW283685   8.460   1.581   3.110 -0.7102 -0.7869  1.4929
26334SOL     OW83686   6.560   5.345   5.850 -0.2255  0.1498  0.2593
26334SOL    HW183687   6.632   5.292   5.886  1.0900  0.7704 -1.3160
26334SOL    HW283688   6.496   5.281   5.819 -0.4122 -0.4169  1.7428
26335SOL     OW83689   7.970   5.309  11.814  0.1802  0.0507 -0.1388
26335SOL    HW183690   7.915   5.344  11.884 -2.0622  0.7916 -2.1118
26335SOL    HW283691   8.030   5.380  11.793  0.0540  0.2753  0.2504
26336SOL     OW83692   7.275   7.659   4.906 -0.6028  0.0932 -0.1667
26336SOL    HW183693   7.312   7.733   4.859  1.0220 -0.8335 -0.3989
26336SOL    HW283694   7.325   7.654   4.987 -0.2480 -1.1242 -0.4366
26337SOL     OW83695   3.369   7.255  11.394 -0.1064  0.1888  0.2547
26337SOL    HW183696   3.395   7.171  11.358 -0.3009 -0.5983  1.8705
26337SOL    HW283697   3.275   7.247  11.408 -0.2246  0.8820 -0.0718
26338SOL     OW83698   3.147  11.041   2.298 -0.1649  0.0343  0.4296
26338SOL    HW183699   3.240  11.059   2.281 -0.1997  0.4070  0.6309
26338SOL    HW283700   3.135  10.950   2.271 -0.1153  0.4677 -1.1407
26339SOL     OW83701   8.873   9.758   2.557  0.4452 -0.0442 -0.0015
26339SOL    HW183702   8.842   9.802   2.478 -1.8585 -0.0982  0.7985
26339SOL    HW283703   8.886   9.667   2.531  1.2611  0.2512 -0.6738
26340SOL     OW83704   7.630   1.450   4.604 -0.5449 -0.2634  0.6460
26340SOL    HW183705   7.576   1.381   4.644 -0.4694  0.1642  1.5130
26340SOL    HW283706   7.625   1.433   4.510 -3.2983  0.5837  0.5724
26341SOL     OW83707   2.743  11.608   4.430 -0.2348 -0.2191  0.3110
26341SOL    HW183708   2.764  11.560   4.511 -0.8302  0.2856  0.7754
26341SOL    HW283709   2.649  11.594   4.418  0.0915 -1.5013 -1.1094
26342SOL     OW83710   7.077   8.245  10.796  0.3796  0.0500  0.4680
26342SOL    HW183711   7.111   8.331  10.822  0.2842  0.7279 -1.4668
26342SOL    HW283712   7.137   8.215  10.728 -0.1798 -0.9729  0.4045
26343SOL     OW83713   5.069  10.739   2.007 -0.2668 -0.4414 -0.5280
26343SOL    HW183714   5.103  10.670   1.951  2.5602 -0.1301  0.6334
26343SOL    HW283715   5.044  10.694   2.088 -0.2923 -0.3507 -0.4849
26344SOL     OW83716   5.437   1.207   2.765  0.0065  0.4765 -0.1501
26344SOL    HW183717   5.520   1.233   2.725  1.9118  0.0140  3.1421
26344SOL    HW283718   5.406   1.285   2.810 -0.4165  0.1598  0.1157
26345SOL     OW83719   0.946   1.947   9.115  0.0900 -0.3588  0.5789
26345SOL    HW183720   0.952   1.879   9.047 -0.8934 -0.4534  0.5736
26345SOL    HW283721   0.950   1.898   9.198  0.3236 -0.3361  0.5807
26346SOL     OW83722   5.002   0.274  10.960 -1.0562 -0.1103 -0.0323
26346SOL    HW183723   5.010   0.258  11.054 -1.0517 -0.6309 -0.1206
26346SOL    HW283724   5.089   0.303  10.932 -0.1932 -2.7617 -0.4110
26347SOL     OW83725   3.305   8.594   3.368 -0.3089 -0.3509  0.0653
26347SOL    HW183726   3.373   8.569   3.306  0.3572  0.6825  0.3490
26347SOL    HW283727   3.286   8.685   3.347 -0.7176 -0.2583  0.7971
26348SOL     OW83728   6.956  10.278   2.758  0.3035 -0.2510 -0.1418
26348SOL    HW183729   6.912  10.197   2.785  1.4921 -1.3165 -1.2550
26348SOL    HW283730   7.049  10.260   2.772  0.5178  1.4088  0.7613
26349SOL     OW83731   7.454   7.585   0.270 -0.1205  0.8604  0.0182
26349SOL    HW183732   7.443   7.491   0.258 -0.3423  1.1007 -2.1495
26349SOL    HW283733   7.463   7.597   0.364 -1.2057 -1.1953  0.4292
26350SOL     OW83734   2.085   9.705   7.495 -0.1589  0.1117 -1.1448
26350SOL    HW183735   2.027   9.666   7.429 -0.3482  0.5548 -1.2436
26350SOL    HW283736   2.120   9.630   7.543  0.1690 -0.2340 -1.9020
26351SOL     OW83737   5.027   4.115   8.634 -0.1453 -0.0177  0.6482
26351SOL    HW183738   5.121   4.126   8.618  0.2209  0.8793  3.0467
26351SOL    HW283739   5.021   4.032   8.682 -0.3917  0.5825  1.6826
26352SOL     OW83740   9.867   9.523   8.249 -0.3194  0.0317 -0.5666
26352SOL    HW183741   9.899   9.612   8.232  1.2242  0.2207  2.6726
26352SOL    HW283742   9.926   9.466   8.200  0.2340  0.7034 -0.6942
26353SOL     OW83743   7.977   1.311  10.891  0.6107  0.0546  0.1087
26353SOL    HW183744   7.921   1.237  10.868  0.6219  0.2368 -0.5351
26353SOL    HW283745   7.921   1.388  10.879  1.1424  0.2765 -1.0637
26354SOL     OW83746   5.453   2.464  11.995  0.2541 -0.2055 -0.0995
26354SOL    HW183747   5.390   2.482  11.925  1.2418  0.1879 -0.9011
26354SOL    HW283748   5.398   2.443  12.071 -0.8587  0.4790 -0.6836
26355SOL     OW83749   3.472   3.744   2.452  0.4630 -0.1056 -0.1469
26355SOL    HW183750   3.542   3.704   2.503 -1.0910 -1.2926  1.1498
26355SOL    HW283751   3.452   3.680   2.384  0.4887  0.1476 -0.3982
26356SOL     OW83752  11.417   9.145   4.073  0.0203 -0.0879  0.2070
26356SOL    HW183753  11.489   9.116   4.018 -0.3037 -0.2412 -0.1431
26356SOL    HW283754  11.363   9.200   4.015 -0.1261  0.0522  0.4704
26357SOL     OW83755   4.127   4.273   7.834 -0.4466  0.2731 -0.0436
26357SOL    HW183756   4.160   4.309   7.917  2.3102 -1.7813 -0.0984
26357SOL    HW283757   4.201   4.283   7.773 -1.2393 -1.1914 -1.3141
26358SOL     OW83758   9.249   2.068   4.187  0.5129 -0.2159 -0.2602
26358SOL    HW183759   9.260   2.036   4.097  0.4486 -1.7423  0.2521
26358SOL    HW283760   9.187   2.140   4.179 -1.3320 -1.8013 -1.1885
26359SOL     OW83761   3.700   4.751   6.911 -0.0005  0.1946  0.1823
26359SOL    HW183762   3.693   4.745   7.007  0.0333  0.5886  0.2101
26359SOL    HW283763   3.631   4.693   6.879 -0.5821  0.7227  0.4498
26360SOL     OW83764   7.232   6.297   2.657 -0.5790  0.3242 -0.3735
26360SOL    HW183765   7.144   6.334   2.664 -0.7143  0.3588 -1.8576
26360SOL    HW283766   7.288   6.373   2.637 -0.6798 -0.0448 -2.2615
26361SOL     OW83767   7.239   5.408   0.755 -0.5483  0.0867 -0.9695
26361SOL    HW183768   7.317   5.412   0.701 -0.8287  0.9486 -1.3229
26361SOL    HW283769   7.175   5.462   0.709 -1.1409 -0.0636 -0.3400
26362SOL     OW83770   2.462   4.097   6.874  0.3561 -0.0226 -0.3762
26362SOL    HW183771   2.456   4.179   6.826 -1.1599 -0.7919 -1.5456
26362SOL    HW283772   2.449   4.029   6.809 -0.6717 -1.1358  0.9352
26363SOL     OW83773   4.308  10.760  11.941 -0.3460 -0.1741  0.0953
26363SOL    HW183774   4.402  10.741  11.944  0.1148  1.1219 -3.0771
26363SOL    HW283775   4.301  10.853  11.961 -1.1093 -0.4377  1.1883
26364SOL     OW83776   8.940   2.479   5.654  0.8276 -0.0336  0.1334
26364SOL    HW183777   8.964   2.502   5.565 -0.1430  1.5699  0.2365
26364SOL    HW283778   8.890   2.398   5.646  1.1098 -0.1273 -0.7259
26365SOL     OW83779   8.082  10.233   9.952 -0.3571  0.6340  0.3135
26365SOL    HW183780   7.990  10.253   9.965 -0.0783  1.5091  1.0622
26365SOL    HW283781   8.094  10.146   9.989 -1.1734 -0.1270 -1.1378
26366SOL     OW83782   8.937   3.004   9.280  0.1517  0.2092  0.2057
26366SOL    HW183783   8.854   3.040   9.250  0.8832  1.2010 -0.7077
26366SOL    HW283784   8.980   2.972   9.201  2.0569  2.7279  0.0905
26367SOL     OW83785   5.548   9.762  11.102  0.1183  0.6267  0.7451
26367SOL    HW183786   5.460   9.800  11.100  0.3331  1.1508  1.0125
26367SOL    HW283787   5.573   9.755  11.010 -0.3725  0.0664  0.6495
26368SOL     OW83788   3.674   1.389   9.120  0.8927 -0.4677 -0.6421
26368SOL    HW183789   3.605   1.423   9.063  1.7961  1.8468 -0.4563
26368SOL    HW283790   3.756   1.406   9.073  1.4824 -1.0974  0.1241
26369SOL     OW83791   0.227   6.441   8.683 -0.4691 -0.3086  0.1064
26369SOL    HW183792   0.241   6.535   8.676 -2.5181 -0.0007 -0.5432
26369SOL    HW283793   0.157   6.432   8.748 -2.2055 -1.1212 -1.7632
26370SOL     OW83794   3.275  11.017   4.287  0.0792 -0.1448  0.7128
26370SOL    HW183795   3.322  11.061   4.216 -1.2100  1.9591  1.0502
26370SOL    HW283796   3.236  11.089   4.337 -2.9300 -1.6869  0.8193
26371SOL     OW83797   5.182   0.334   1.329  0.0380  0.3996 -0.5582
26371SOL    HW183798   5.197   0.259   1.387  0.8039  0.6195 -0.4563
26371SOL    HW283799   5.122   0.301   1.262 -1.1594  0.2552  0.5620
26372SOL     OW83800   6.217   9.178   0.057 -0.4070  0.6760 -0.2570
26372SOL    HW183801   6.196   9.157  -0.034 -0.3260 -1.5635  0.1726
26372SOL    HW283802   6.266   9.101   0.088  0.2149  1.7107  1.4696
26373SOL     OW83803   2.456   3.170   6.892  0.3271 -0.3912  0.0347
26373SOL    HW183804   2.476   3.126   6.810 -0.4781  1.4943 -1.2526
26373SOL    HW283805   2.514   3.129   6.956  1.1079 -1.7958 -1.4977
26374SOL     OW83806   9.038   4.658   2.359  0.5023 -0.1212 -0.5276
26374SOL    HW183807   8.969   4.676   2.422  0.8903 -0.0225 -0.1281
26374SOL    HW283808   8.997   4.600   2.294  0.2576 -0.6757  0.1130
26375SOL     OW83809   4.734   2.361   3.888 -0.5982  0.0246  0.0552
26375SOL    HW183810   4.674   2.361   3.813 -0.1596 -0.0039 -0.2935
26375SOL    HW283811   4.729   2.450   3.923 -0.0367  0.3208 -0.6138
26376SOL     OW83812   4.650   4.691   0.903  0.2742  0.2954  0.5889
26376SOL    HW183813   4.577   4.638   0.872 -0.1125  1.2236 -0.1273
26376SOL    HW283814   4.654   4.674   0.997  0.7119 -1.6516  0.2482
26377SOL     OW83815   0.763   1.063   5.221  0.4217  0.6042 -0.3759
26377SOL    HW183816   0.827   0.993   5.228  0.4982  0.6658 -0.4626
26377SOL    HW283817   0.736   1.062   5.129  0.5475  0.7985 -0.4160
26378SOL     OW83818   1.059   5.743   8.996 -0.2040  0.2449 -0.2205
26378SOL    HW183819   1.136   5.799   8.986  0.4221 -0.8208 -1.5654
26378SOL    HW283820   1.058   5.688   8.918 -0.3353 -2.2083  1.3976
26379SOL     OW83821  11.538   8.157   2.864 -0.5079  0.0406 -0.7244
26379SOL    HW183822  11.526   8.246   2.896  0.5706 -0.2143  0.4779
26379SOL    HW283823  11.511   8.101   2.937  0.0120 -0.5884 -0.9975
26380SOL     OW83824   3.064   6.183   4.109  0.7023  0.5548  0.2863
26380SOL    HW183825   3.043   6.188   4.202 -1.7296  3.8266 -0.2696
26380SOL    HW283826   3.139   6.243   4.098 -0.6206  2.1977 -0.1454
26381SOL     OW83827   7.080   3.203   5.761  0.0152  0.1795 -0.1170
26381SOL    HW183828   7.018   3.155   5.816  1.2532  0.3697  1.5359
26381SOL    HW283829   7.151   3.141   5.746  0.7010  0.8278  0.3612
26382SOL     OW83830   7.541   7.894   0.974  0.4276 -0.5930 -0.2435
26382SOL    HW183831   7.615   7.951   0.951 -0.1742  0.2090 -0.2463
26382SOL    HW283832   7.505   7.934   1.054 -1.3252  0.3269 -1.4334
26383SOL     OW83833   2.940   0.031   1.986 -0.3269 -0.4902 -0.5645
26383SOL    HW183834   2.848   0.040   2.010 -0.2245  0.3405 -0.4779
26383SOL    HW283835   2.973  -0.038   2.044 -0.8282 -0.6094 -0.4176
26384SOL     OW83836   9.040   5.470  11.937 -0.3035  0.0871  0.6089
26384SOL    HW183837   9.133   5.479  11.914  0.5000 -0.2492  3.3838
26384SOL    HW283838   9.010   5.559  11.949 -0.2284  0.1788  0.1460
26385SOL     OW83839   0.105   2.172   0.753 -0.1544  0.1369  0.1487
26385SOL    HW183840   0.179   2.165   0.814 -1.7070 -0.9633  2.0319
26385SOL    HW283841   0.099   2.085   0.713  0.6877  0.7765 -1.4540
26386SOL     OW83842  11.488   7.500   1.689 -0.1611 -0.5421 -0.3355
26386SOL    HW183843  11.584   7.505   1.689 -0.1832 -0.0501  0.3133
26386SOL    HW283844  11.459   7.591   1.684 -0.5727 -0.4491  2.3118
26387SOL     OW83845   6.023   3.811   5.702 -0.4429  0.1507  0.2435
26387SOL    HW183846   6.109   3.825   5.663 -0.2308 -1.7394 -0.0748
26387SOL    HW283847   6.019   3.871   5.776  1.8254 -0.8487  1.2615
26388SOL     OW83848   2.727  10.903   5.573  0.2374  0.1556  0.0118
26388SOL    HW183849   2.665  10.974   5.559 -0.6151 -0.2462  1.4199
26388SOL    HW283850   2.809  10.946   5.598  0.1570  0.6680 -0.5939
26389SOL     OW83851  10.301   1.154   7.918  0.5338 -0.0185 -0.0232
26389SOL    HW183852  10.282   1.061   7.920 -1.8697  0.4043  0.1829
26389SOL    HW283853  10.285   1.180   7.827  1.6131  0.1359 -0.1802
26390SOL     OW83854   8.396   6.970   8.061 -0.4299  0.7789 -0.1483
26390SOL    HW183855   8.472   6.913   8.062 -1.1203 -0.1671  0.3570
26390SOL    HW283856   8.391   7.005   8.150 -1.5967 -0.6101  0.3894
26391SOL     OW83857   7.218   7.368   5.828  0.1593 -0.1032 -0.7504
26391SOL    HW183858   7.270   7.294   5.797  0.2509  0.1297 -1.1608
26391SOL    HW283859   7.240   7.440   5.767  1.1347  0.6693  0.4615
26392SOL     OW83860   0.863   1.264   4.759  0.0137  0.3877 -0.2825
26392SOL    HW183861   0.835   1.343   4.713 -1.1158  0.7517  0.9690
26392SOL    HW283862   0.809   1.194   4.722  1.3043  0.0786 -1.6885
26393SOL     OW83863   1.706   7.985   1.376  0.0040 -0.4252  0.1458
26393SOL    HW183864   1.637   7.925   1.405 -0.6118 -1.1202 -2.4904
26393SOL    HW283865   1.691   7.996   1.282  1.8793  1.5794 -0.0139
26394SOL     OW83866   0.098   7.133   5.537  0.4577 -0.2469  0.3994
26394SOL    HW183867   0.161   7.070   5.501  0.2793 -0.5071  0.5426
26394SOL    HW283868   0.137   7.218   5.518  0.7348 -0.4006  0.2652
26395SOL     OW83869  11.238  10.397  10.033 -0.3305 -0.0939  0.0591
26395SOL    HW183870  11.171  10.430  10.093 -0.1887  1.0186 -0.3734
26395SOL    HW283871  11.197  10.320   9.992 -0.9144 -0.0917  0.6174
26396SOL     OW83872   7.521   7.993   0.707  0.0625 -0.4020  0.6760
26396SOL    HW183873   7.477   8.077   0.690  0.5422 -0.1413  0.7021
26396SOL    HW283874   7.500   7.973   0.798 -0.7480 -0.7360  0.4302
26397SOL     OW83875   3.394  10.597   6.609  0.2793  0.5713 -0.8317
26397SOL    HW183876   3.398  10.517   6.662  0.2593 -0.0064 -1.6825
26397SOL    HW283877   3.372  10.666   6.672  3.6014  0.5352  0.5793
26398SOL     OW83878   5.978   9.586   3.158  0.1095  0.5502 -0.4886
26398SOL    HW183879   6.017   9.509   3.115 -0.2339  0.0663  0.0436
26398SOL    HW283880   6.053   9.634   3.194  0.6795  2.3402 -3.7096
26399SOL     OW83881   0.579   4.042   2.514  0.4247  0.0138 -0.3389
26399SOL    HW183882   0.537   4.100   2.451 -1.0183 -0.0927  0.4911
26399SOL    HW283883   0.609   4.100   2.584 -0.3064 -0.1508  0.1132
26400SOL     OW83884  11.041   4.261   3.453  0.8844 -0.2677  0.2390
26400SOL    HW183885  10.979   4.210   3.505 -0.9497 -0.6417 -2.1509
26400SOL    HW283886  11.118   4.205   3.446  1.0368 -0.3644  2.1434
26401SOL     OW83887   8.852   0.249   7.491 -0.5972 -0.5523 -0.0518
26401SOL    HW183888   8.880   0.310   7.558 -0.4221 -1.0188  0.3048
26401SOL    HW283889   8.931   0.199   7.470 -0.8495 -0.9817  0.0100
26402SOL     OW83890   1.757   2.181   8.496 -0.4488  0.1880  0.1665
26402SOL    HW183891   1.775   2.224   8.579 -0.8119  0.6836 -0.0020
26402SOL    HW283892   1.679   2.226   8.462  0.5026  0.9290 -1.0982
26403SOL     OW83893   1.804  10.026   1.279  0.0356 -0.4897 -0.1690
26403SOL    HW183894   1.861  10.094   1.245  0.3274 -0.5010  0.2890
26403SOL    HW283895   1.741  10.010   1.208 -0.2016  0.4314 -0.1804
26404SOL     OW83896   4.436   0.135   8.878  0.1487  0.0265 -0.3971
26404SOL    HW183897   4.528   0.160   8.890 -0.6373  2.6457  1.1510
26404SOL    HW283898   4.410   0.100   8.963 -0.3688 -0.4655 -0.7537
26405SOL     OW83899   2.251   5.119  11.744 -0.2478 -0.2258 -0.8864
26405SOL    HW183900   2.304   5.176  11.799 -0.0881  0.9516 -2.2113
26405SOL    HW283901   2.270   5.031  11.776 -0.4670  0.4319  1.1688
26406SOL     OW83902   2.124   3.020   2.415  0.1626 -0.3872  0.1932
26406SOL    HW183903   2.092   3.109   2.433  1.3059  0.1726 -0.4339
26406SOL    HW283904   2.192   3.005   2.480  1.0339 -0.1890 -0.6455
26407SOL     OW83905   3.857   0.837   6.489  0.2955 -0.4496  0.0484
26407SOL    HW183906   3.790   0.870   6.549 -0.6773  0.4445 -1.4780
26407SOL    HW283907   3.855   0.742   6.501 -0.0224 -0.3074  1.2659
26408SOL     OW83908   9.558   6.169   6.394 -0.1399 -0.5595  0.1004
26408SOL    HW183909   9.572   6.263   6.381 -1.0875 -0.6345 -1.6280
26408SOL    HW283910   9.465   6.162   6.415 -0.7400 -1.3028 -2.4714
26409SOL     OW83911   2.089   3.987   7.638 -0.2329  0.0083  0.0327
26409SOL    HW183912   2.017   3.925   7.650 -0.5523  0.4921  0.6786
26409SOL    HW283913   2.048   4.073   7.645  0.2128  0.3022 -0.8082
26410SOL     OW83914   9.708   0.297   9.297 -0.1840  0.2621  0.0502
26410SOL    HW183915   9.651   0.244   9.241  0.4213 -0.2412 -0.1012
26410SOL    HW283916   9.675   0.282   9.386  1.1359 -1.9616  0.2606
26411SOL     OW83917   0.969   3.959   2.689  0.0734  0.2640 -0.0732
26411SOL    HW183918   0.950   3.894   2.622 -1.3626 -0.1119  0.6533
26411SOL    HW283919   0.976   3.908   2.770 -0.1424  0.8969  0.3550
26412SOL     OW83920   3.857   4.265  11.541 -0.1763 -0.3943 -0.1648
26412SOL    HW183921   3.815   4.295  11.460 -1.0240 -0.1085  0.3641
26412SOL    HW283922   3.939   4.315  11.546 -0.7901  0.6431 -0.1372
26413SOL     OW83923  11.529  10.196   1.756 -0.0159  0.4018 -0.6744
26413SOL    HW183924  11.607  10.141   1.740 -0.2282 -0.4095  0.9329
26413SOL    HW283925  11.494  10.212   1.668  1.0025 -0.6455 -1.3134
26414SOL     OW83926  11.072   9.634   6.481 -0.3544 -0.7780 -0.2017
26414SOL    HW183927  11.007   9.590   6.427  0.3331 -0.3958 -1.3703
26414SOL    HW283928  11.079   9.722   6.444 -0.6581 -0.1367  1.2012
26415SOL     OW83929   4.804   1.116   1.232  0.0686 -0.3756 -0.2737
26415SOL    HW183930   4.823   1.064   1.154 -1.1535 -2.8693  0.9615
26415SOL    HW283931   4.880   1.173   1.243  1.1326 -1.3559 -2.1736
26416SOL     OW83932   9.788   9.304  11.617  0.3146 -0.2490 -0.2489
26416SOL    HW183933   9.720   9.242  11.644 -0.1081  0.6258  0.8010
26416SOL    HW283934   9.819   9.271  11.533 -2.2760 -0.0155 -1.3857
26417SOL     OW83935   9.743   2.250  10.648 -0.0438  0.0012 -0.3583
26417SOL    HW183936   9.776   2.285  10.566 -0.8349 -0.5741 -0.9340
26417SOL    HW283937   9.673   2.190  10.623 -0.0343 -0.4902  0.7100
26418SOL     OW83938   7.672   9.619  10.231  0.6391 -0.2657 -0.3468
26418SOL    HW183939   7.630   9.621  10.145  0.4771  0.2814 -0.2594
26418SOL    HW283940   7.607   9.656  10.291  0.2879 -1.7273  0.2335
26419SOL     OW83941   2.041   6.299   4.991  0.1607  0.1801 -0.0887
26419SOL    HW183942   1.984   6.223   4.976  0.8558 -0.6108  1.0589
26419SOL    HW283943   1.982   6.374   4.995 -0.6733 -0.4624 -0.0620
26420SOL     OW83944   2.469  11.944  11.968  0.0339  0.1595 -0.8414
26420SOL    HW183945   2.501  12.021  11.921  2.0665 -1.6107 -2.5504
26420SOL    HW283946   2.522  11.942  12.048  1.2887 -0.4229 -1.6599
26421SOL     OW83947   9.733   3.140   8.256 -0.2979 -0.4203 -0.0596
26421SOL    HW183948   9.698   3.102   8.175  0.4791 -0.6632 -0.2850
26421SOL    HW283949   9.716   3.073   8.323  0.3559 -0.8485 -0.3058
26422SOL     OW83950   3.173   5.547   9.964  0.1959  0.0557  0.5582
26422SOL    HW183951   3.083   5.552   9.997 -0.3067 -2.1023 -0.2628
26422SOL    HW283952   3.164   5.512   9.876  1.8223  0.3359  0.2526
26423SOL     OW83953   3.199   5.751   4.085  0.4856  0.0405  0.1648
26423SOL    HW183954   3.238   5.665   4.103 -0.3473 -0.1670  1.0480
26423SOL    HW283955   3.105   5.733   4.078  0.4056  0.7287 -0.6682
26424SOL     OW83956   4.214  11.540  11.059  0.4380  0.2504 -0.1148
26424SOL    HW183957   4.242  11.451  11.037  2.3046  0.7049  0.1767
26424SOL    HW283958   4.212  11.541  11.155  1.4778  0.7736 -0.0777
26425SOL     OW83959   2.345   2.492  10.027 -0.3236  0.2401  0.0836
26425SOL    HW183960   2.441   2.491  10.026 -0.3213 -0.4014  0.6167
26425SOL    HW283961   2.322   2.574   9.984  0.4857  1.0058  1.0642
26426SOL     OW83962   3.112   0.153   7.615 -0.5898  0.0148  0.0435
26426SOL    HW183963   3.065   0.084   7.662 -2.4897  1.8891  1.0784
26426SOL    HW283964   3.175   0.187   7.679 -2.5132  1.9173  1.0590
26427SOL     OW83965   7.239  11.316   8.173  0.1638 -0.0068 -0.1693
26427SOL    HW183966   7.196  11.397   8.146  0.1806  0.4215  0.9952
26427SOL    HW283967   7.293  11.342   8.248 -0.2948 -1.2011  0.6034
26428SOL     OW83968   5.709   9.887   2.786 -0.1625  0.5562  0.2996
26428SOL    HW183969   5.760   9.822   2.833  1.2852  1.2315 -0.2898
26428SOL    HW283970   5.671   9.839   2.712 -0.9466 -0.0898  1.1033
26429SOL     OW83971   1.466   1.805   7.342 -0.8924  0.4964 -0.0460
26429SOL    HW183972   1.522   1.796   7.265 -0.9113  0.9282 -0.1102
26429SOL    HW283973   1.487   1.728   7.396 -0.8438  0.2164 -0.4548
26430SOL     OW83974   4.283  10.866   0.316 -0.4456  0.5341  0.1156
26430SOL    HW183975   4.240  10.820   0.244 -0.3222  1.5608 -0.6457
26430SOL    HW283976   4.264  10.814   0.394 -0.3748 -0.7344 -0.6952
26431SOL     OW83977   2.202   0.133   6.031 -0.0259  0.2617 -0.6486
26431SOL    HW183978   2.195   0.044   5.997  1.5529 -0.0551 -0.1937
26431SOL    HW283979   2.172   0.126   6.122 -3.4031  0.9447 -1.5574
26432SOL     OW83980   1.641   7.229   9.780 -0.5224  0.4915  0.5119
26432SOL    HW183981   1.649   7.197   9.870  2.5441  0.7219  0.4255
26432SOL    HW283982   1.590   7.309   9.788  1.3869  1.6389  2.4305
26433SOL     OW83983   9.871  10.756  11.739  0.6435 -0.1914 -0.6388
26433SOL    HW183984   9.776  10.764  11.726  0.5608 -1.8736 -1.3235
26433SOL    HW283985   9.890  10.814  11.813 -0.9816 -0.1017 -0.2486
26434SOL     OW83986   5.466   8.722   4.871  0.2356 -0.0621 -0.0489
26434SOL    HW183987   5.394   8.660   4.876  0.4802 -0.2815  0.8757
26434SOL    HW283988   5.463   8.755   4.781 -0.1626 -1.0869 -0.4224
26435SOL     OW83989  10.624   3.733   8.760 -0.0216  1.1440 -0.2988
26435SOL    HW183990  10.609   3.780   8.843  0.7578 -0.0213  0.5324
26435SOL    HW283991  10.611   3.800   8.693  1.0662  2.5791  0.8265
26436SOL     OW83992   4.620   8.368   8.745 -0.0700 -0.0452 -0.1594
26436SOL    HW183993   4.608   8.315   8.666 -0.2650  0.1482 -0.2571
26436SOL    HW283994   4.651   8.452   8.714  1.8753 -0.6044  0.0883
26437SOL     OW83995   3.976   4.275   0.138  0.6255  0.4330 -0.2622
26437SOL    HW183996   3.902   4.323   0.176  0.8719  1.3010 -0.8568
26437SOL    HW283997   4.010   4.333   0.070  1.3258 -0.3258 -0.5728
26438SOL     OW83998   8.661   7.410   7.268 -0.2185  0.3568  0.3290
26438SOL    HW183999   8.707   7.327   7.256  0.8784  1.0437 -0.5184
26438SOL    HW284000   8.674   7.432   7.360  1.5724  0.7345  0.0237
26439SOL     OW84001   2.359  11.433   5.869 -0.0473  0.0636  0.2584
26439SOL    HW184002   2.435  11.395   5.913 -0.3329 -0.1078  0.6126
26439SOL    HW284003   2.305  11.357   5.846  1.8642 -0.2969 -3.8940
26440SOL     OW84004   2.006  10.859  10.337 -0.5861 -0.1927 -0.2554
26440SOL    HW184005   1.957  10.936  10.366  2.8579  2.8077 -1.6288
26440SOL    HW284006   2.064  10.839  10.411  0.3202  0.2457 -0.8303
26441SOL     OW84007   3.102   7.098  11.420  0.4470 -0.0682  0.0435
26441SOL    HW184008   3.050   7.102  11.500 -0.8634  0.8509 -0.8043
26441SOL    HW284009   3.137   7.009  11.419  0.9070  0.0576  1.8645
26442SOL     OW84010   9.997   0.034   8.384  0.5186 -0.5086  0.1563
26442SOL    HW184011   9.977  -0.011   8.466 -0.7856  1.2150  0.8223
26442SOL    HW284012  10.079   0.081   8.402 -0.0839  0.3642  0.7131
26443SOL     OW84013  10.407   0.706   1.177 -0.1672  0.0737 -0.6290
26443SOL    HW184014  10.417   0.800   1.163 -1.1339  0.2207 -0.4162
26443SOL    HW284015  10.319   0.697   1.215  0.1343 -0.8603 -0.1348
26444SOL     OW84016   7.914  11.119   7.723 -0.8088  0.4025  0.0058
26444SOL    HW184017   7.826  11.136   7.691 -0.8885  1.1422  0.5785
26444SOL    HW284018   7.968  11.114   7.644 -1.6475 -2.0661 -0.4979
26445SOL     OW84019   5.568   9.197  11.943 -0.3029  0.0256  0.0340
26445SOL    HW184020   5.602   9.110  11.922  0.5728  0.6287 -1.1480
26445SOL    HW284021   5.642   9.256  11.930 -0.3759  0.7873  2.5155
26446SOL     OW84022   9.048   7.463   2.977 -0.3249 -0.2938 -0.0557
26446SOL    HW184023   9.055   7.400   3.048 -1.0448 -1.6454 -1.1287
26446SOL    HW284024   8.960   7.501   2.987  0.8957  2.3570  1.9563
26447SOL     OW84025   6.432   9.958   2.894 -0.4811  0.0817 -0.4592
26447SOL    HW184026   6.347   9.998   2.912 -0.9157 -0.6345 -0.8733
26447SOL    HW284027   6.422   9.867   2.923 -0.8353 -0.8141 -3.1532
26448SOL     OW84028   1.784   5.355   8.721 -0.3673 -0.2763  1.0380
26448SOL    HW184029   1.811   5.395   8.804 -0.0175 -0.0931  0.8399
26448SOL    HW284030   1.726   5.284   8.746 -0.4705 -0.0580  1.4298
26449SOL     OW84031   8.843   4.474   4.221 -0.4522 -0.0758  0.0472
26449SOL    HW184032   8.824   4.567   4.210 -1.8029 -0.5512 -2.0078
26449SOL    HW284033   8.767   4.439   4.269 -0.8737 -0.4444 -0.8630
26450SOL     OW84034  10.140   3.894  10.428 -0.4269 -0.3718 -0.5931
26450SOL    HW184035  10.172   3.969  10.478 -0.6245 -0.0903 -0.8920
26450SOL    HW284036  10.202   3.824  10.448  0.5463  0.2458 -1.3857
26451SOL     OW84037   0.228   0.778   0.276  0.1600 -0.4785  0.2327
26451SOL    HW184038   0.149   0.738   0.239 -0.2977  0.8254 -0.2312
26451SOL    HW284039   0.279   0.703   0.307 -1.2539 -1.3496  0.5703
26452SOL     OW84040  10.827   0.107   2.504 -0.2723 -0.4706  0.2222
26452SOL    HW184041  10.768   0.048   2.456 -1.2928  0.9803 -0.4013
26452SOL    HW284042  10.800   0.098   2.595 -0.5694 -0.8044  0.1055
26453SOL     OW84043   3.530   6.345   7.937  0.5889  0.3141  0.0271
26453SOL    HW184044   3.569   6.290   7.869 -0.4018 -3.3781  2.1539
26453SOL    HW284045   3.452   6.296   7.965  1.5595  0.9395  4.5360
26454SOL     OW84046   7.123   5.098   7.769 -0.6028 -0.6296 -0.1597
26454SOL    HW184047   7.165   5.167   7.820  0.1712 -0.8506 -0.4882
26454SOL    HW284048   7.036   5.132   7.749 -0.3157  0.1417 -0.1048
26455SOL     OW84049   8.070   4.562   4.971  0.1615 -0.3423 -0.2875
26455SOL    HW184050   8.120   4.528   4.897  0.4389 -0.8544  0.1290
26455SOL    HW284051   8.115   4.529   5.048 -0.5237 -0.3901  0.1060
26456SOL     OW84052   0.833   7.565   5.500  0.2709  0.7968 -0.0471
26456SOL    HW184053   0.900   7.549   5.434 -0.6640  1.4035 -1.1648
26456SOL    HW284054   0.850   7.654   5.531  0.6768  0.5317  0.5130
26457SOL     OW84055   0.454   8.522   6.931  0.0268  0.3680  0.2246
26457SOL    HW184056   0.429   8.522   7.023 -0.1391 -0.8570  0.1962
26457SOL    HW284057   0.371   8.532   6.883  0.2175  2.1642  0.1951
26458SOL     OW84058   0.169   7.192   0.789  0.1532 -0.4287  0.8600
26458SOL    HW184059   0.128   7.259   0.736  2.0273  0.5977  0.6212
26458SOL    HW284060   0.218   7.138   0.727 -0.7789 -1.6355  1.1313
26459SOL     OW84061  11.687  11.888   1.485  0.0524 -0.2437 -0.2531
26459SOL    HW184062  11.598  11.917   1.467  0.3618  1.2434  0.4680
26459SOL    HW284063  11.734  11.967   1.510  1.1403 -1.2744  1.1330
26460SOL     OW84064   9.836   0.585   8.135  0.1258  0.1488 -0.6339
26460SOL    HW184065   9.745   0.588   8.166  0.3826 -1.9210  0.5236
26460SOL    HW284066   9.828   0.557   8.044 -0.4211  0.3196 -0.6448
26461SOL     OW84067   3.323   6.774   8.524  0.0577 -0.0940  0.2789
26461SOL    HW184068   3.325   6.695   8.469  2.5049  0.1136 -0.0392
26461SOL    HW284069   3.311   6.846   8.462  0.0343 -0.0688  0.3126
26462SOL     OW84070   1.002   6.632  11.100  0.0551  0.2983  0.5970
26462SOL    HW184071   1.033   6.719  11.075  1.5940  0.0908  1.6526
26462SOL    HW284072   0.968   6.644  11.189 -2.8307  0.4654 -0.4270
26463SOL     OW84073   2.217  11.750  11.285 -0.1777  0.0130  0.1308
26463SOL    HW184074   2.282  11.725  11.351  0.6598  1.5243 -0.0734
26463SOL    HW284075   2.133  11.729  11.325  0.3633 -0.2984  1.1414
26464SOL     OW84076   8.058   9.615  11.545  0.4908 -0.1163 -0.0238
26464SOL    HW184077   8.085   9.635  11.456  1.5802 -0.1397  0.2795
26464SOL    HW284078   7.977   9.565  11.535  1.1701 -1.0724 -1.0610
26465SOL     OW84079   1.924   7.311   5.392 -0.2699  0.1524 -0.3764
26465SOL    HW184080   1.900   7.393   5.435 -0.0420 -1.1767  2.6113
26465SOL    HW284081   1.904   7.244   5.458 -0.1585 -2.1629 -2.5717
26466SOL     OW84082  10.803   8.056   1.411 -0.1166  0.2943  0.2533
26466SOL    HW184083  10.863   8.021   1.477  2.2342  1.9087 -0.9309
26466SOL    HW284084  10.780   8.143   1.443 -0.3822  0.4039 -0.2319
26467SOL     OW84085   8.802   9.172   4.767 -0.0615 -0.1407  0.6879
26467SOL    HW184086   8.785   9.228   4.691  2.3924  0.6456  0.6384
26467SOL    HW284087   8.752   9.212   4.838 -0.7022  0.3457 -0.0214
26468SOL     OW84088   0.590   3.658  11.403 -0.1408 -0.3852 -0.5901
26468SOL    HW184089   0.512   3.711  11.390 -0.4601 -0.5924  0.3805
26468SOL    HW284090   0.615   3.674  11.494  1.4303  0.3145 -1.0892
26469SOL     OW84091   2.252  10.820   1.506 -0.3662 -0.0980 -0.3904
26469SOL    HW184092   2.203  10.768   1.442  1.1531 -1.4327 -0.5478
26469SOL    HW284093   2.342  10.786   1.500  0.3741  1.5861  0.5596
26470SOL     OW84094   7.175   0.225   1.767 -0.5858  0.0819  0.1890
26470SOL    HW184095   7.270   0.224   1.769 -0.5728 -2.1497  2.0041
26470SOL    HW284096   7.153   0.197   1.678  0.4954 -1.1082  0.2706
26471SOL     OW84097   8.798   3.869  10.195 -0.6807 -0.1971 -0.2538
26471SOL    HW184098   8.815   3.856  10.288  0.9384 -0.6492 -0.5825
26471SOL    HW284099   8.707   3.899  10.191 -0.8704 -0.4621  1.4359
26472SOL     OW84100   5.740   2.740   9.201 -0.0653 -0.4273  0.2687
26472SOL    HW184101   5.694   2.749   9.117 -1.9141 -0.1339  1.2525
26472SOL    HW284102   5.821   2.790   9.189  1.1204 -2.6646 -2.2253
26473SOL     OW84103  10.770   2.276   0.959  1.0231  0.0460  0.4027
26473SOL    HW184104  10.838   2.226   1.003  0.1309  0.4157  2.3000
26473SOL    HW284105  10.694   2.218   0.955  0.3645  0.7989  1.5092
26474SOL     OW84106   4.124   5.022   1.705 -0.2405 -0.5088 -0.0000
26474SOL    HW184107   4.155   5.024   1.796 -0.3049 -0.9001  0.0308
26474SOL    HW284108   4.066   5.098   1.699 -3.0214 -2.3462  1.3072
26475SOL     OW84109   1.698   1.250   1.437  0.2275  0.9130  0.0066
26475SOL    HW184110   1.635   1.227   1.505 -0.7733  2.1715 -0.4645
26475SOL    HW284111   1.684   1.185   1.368  0.1760  0.5741  0.3300
26476SOL     OW84112   6.582   7.688  10.093  0.1884 -0.4103  0.6624
26476SOL    HW184113   6.594   7.783  10.102 -2.2772 -0.1126  1.4696
26476SOL    HW284114   6.564   7.658  10.182 -1.7053 -1.1760  0.0725
26477SOL     OW84115   0.860  10.965   7.924  0.2058 -0.1571 -0.2115
26477SOL    HW184116   0.903  10.991   8.005  0.0073 -0.9505  0.1644
26477SOL    HW284117   0.914  10.894   7.889 -0.5440 -0.8796  0.0498
26478SOL     OW84118  11.407   6.209   7.878 -0.4130 -0.7555 -0.0424
26478SOL    HW184119  11.438   6.127   7.916  0.3335  0.0970  1.2463
26478SOL    HW284120  11.321   6.222   7.916 -0.5243 -0.9256 -0.2341
26479SOL     OW84121   4.499   4.112   5.025 -0.1688 -0.1653 -0.3570
26479SOL    HW184122   4.442   4.187   5.044 -0.3812 -0.3525 -0.2430
26479SOL    HW284123   4.485   4.053   5.099  0.5988  0.0308 -0.0467
26480SOL     OW84124   0.104   9.128   1.806 -1.1197 -0.0216 -0.1394
26480SOL    HW184125   0.075   9.217   1.789  0.5578  0.6495  0.2294
26480SOL    HW284126   0.198   9.130   1.788 -1.4025 -2.3260 -2.3957
26481SOL     OW84127   3.558   1.063  11.341 -0.1454  0.2879  0.7323
26481SOL    HW184128   3.506   0.986  11.320 -0.9450  0.7373  0.9968
26481SOL    HW284129   3.611   1.080  11.263 -2.6972  1.6658 -0.8245
26482SOL     OW84130  11.146   6.195   0.531  0.0576  0.2848  0.6492
26482SOL    HW184131  11.098   6.256   0.587 -0.3655  0.5350  0.0253
26482SOL    HW284132  11.238   6.209   0.553 -0.0919  0.5239  1.1348
26483SOL     OW84133  10.334   5.004   1.462 -0.5414  0.4216 -0.7514
26483SOL    HW184134  10.347   5.096   1.439  0.3955  0.8524  1.2095
26483SOL    HW284135  10.400   4.957   1.411 -0.3067  0.9912 -0.9800
26484SOL     OW84136   3.851   8.541   2.444 -0.6217  0.2382 -0.9675
26484SOL    HW184137   3.885   8.623   2.481 -0.5669 -0.3632  0.3787
26484SOL    HW284138   3.758   8.558   2.429 -0.5527  0.6310 -0.9662
26485SOL     OW84139   7.581   4.928  11.326 -0.2346 -0.0552 -0.2412
26485SOL    HW184140   7.588   4.947  11.419 -1.5368 -0.6157 -0.0104
26485SOL    HW284141   7.654   4.976  11.286 -0.4525  1.2637  0.8937
26486SOL     OW84142   4.147   1.839   6.239 -0.0584 -0.2652 -0.1617
26486SOL    HW184143   4.121   1.754   6.204 -1.2886  0.2068 -0.4591
26486SOL    HW284144   4.195   1.819   6.319 -0.6784 -1.2200 -0.0136
26487SOL     OW84145   1.218  11.670   7.247 -0.6910  0.6649 -0.1910
26487SOL    HW184146   1.266  11.654   7.329 -0.8418 -0.5554 -0.3294
26487SOL    HW284147   1.263  11.618   7.182 -1.4833  0.4428 -0.5758
26488SOL     OW84148   6.214   6.257  11.223 -0.5422 -0.2758  0.4317
26488SOL    HW184149   6.130   6.303  11.226 -0.0839  0.8890 -2.0097
26488SOL    HW284150   6.205   6.187  11.287 -2.4855  1.2419  1.9640
26489SOL     OW84151  11.762   3.182   7.886 -0.3394 -0.4155  0.1466
26489SOL    HW184152  11.688   3.146   7.837  0.5392  1.3457 -2.7412
26489SOL    HW284153  11.772   3.272   7.852  3.5433 -0.8079 -0.2558
26490SOL     OW84154   2.177   5.483   4.871  0.5159  0.7967  0.1583
26490SOL    HW184155   2.158   5.423   4.943  0.0893 -0.0096 -0.6027
26490SOL    HW284156   2.273   5.487   4.868  0.5469  1.6082  1.3705
26491SOL     OW84157   0.406   1.488   9.260 -0.0515  0.2773  0.5685
26491SOL    HW184158   0.377   1.567   9.305  1.6402  1.3348 -0.1070
26491SOL    HW284159   0.344   1.478   9.187 -0.4574  0.8078  0.8375
26492SOL     OW84160   8.380   7.024   0.262 -0.1686  0.0682 -0.4657
26492SOL    HW184161   8.468   7.031   0.227 -0.8530  0.7378 -2.1262
26492SOL    HW284162   8.355   6.933   0.248  0.0900 -0.0131 -0.3921
26493SOL     OW84163  11.485   1.314   9.973 -0.1308  0.4553  0.2987
26493SOL    HW184164  11.531   1.353  10.048 -0.4008  0.4751  0.4570
26493SOL    HW284165  11.399   1.289  10.009  0.7223 -2.1120  0.7553
26494SOL     OW84166   9.606   3.601   9.129 -0.2331  0.2239 -0.1350
26494SOL    HW184167   9.639   3.525   9.176  2.0076  0.6262 -0.9380
26494SOL    HW284168   9.604   3.671   9.194 -1.9445 -0.3662  0.5130
26495SOL     OW84169   2.187  11.936   9.103  0.0149  0.5146 -0.0648
26495SOL    HW184170   2.151  11.988   9.175 -0.6588 -0.4016  0.2878
26495SOL    HW284171   2.115  11.930   9.040 -0.1261 -0.5014  0.1832
26496SOL     OW84172   4.337   0.930   5.952  0.3270 -0.0429  0.2043
26496SOL    HW184173   4.256   0.924   6.004 -0.1639 -2.0475 -0.6940
26496SOL    HW284174   4.343   0.845   5.908  2.5813  0.3285 -0.2921
26497SOL     OW84175  11.764  10.443   1.148  0.2722 -0.4159  0.8001
26497SOL    HW184176  11.705  10.418   1.219  0.4564 -0.0641  1.0742
26497SOL    HW284177  11.825  10.370   1.142  0.2292 -0.4671  0.9705
26498SOL     OW84178   1.092   4.352   7.510  0.3161  0.2009  0.1619
26498SOL    HW184179   1.108   4.279   7.571 -1.7394  0.2632  0.8487
26498SOL    HW284180   1.057   4.310   7.432 -0.7620  0.4218  0.5156
26499SOL     OW84181   6.141   6.377   1.775 -0.5085 -0.5626  0.1304
26499SOL    HW184182   6.204   6.395   1.846  1.6162 -0.7100 -1.5982
26499SOL    HW284183   6.185   6.312   1.720  0.0366  2.7108 -3.7585
26500SOL     OW84184   3.173   4.280   0.969  0.4527 -0.1225  0.2522
26500SOL    HW184185   3.081   4.260   0.991  0.2682  0.0993 -0.2998
26500SOL    HW284186   3.223   4.216   1.019  0.1174  1.0540  2.1649
26501SOL     OW84187   9.712   0.017  11.649 -0.0164  0.0273 -0.8003
26501SOL    HW184188   9.670  -0.046  11.708  1.7185 -0.8518 -0.4478
26501SOL    HW284189   9.726   0.095  11.704  1.4663 -0.7373 -0.0157
26502SOL     OW84190   8.855   2.795   5.372  0.6971 -0.0933  0.3710
26502SOL    HW184191   8.885   2.862   5.433  1.6678 -0.2591  0.0937
26502SOL    HW284192   8.838   2.842   5.291 -0.5314  0.1167  0.7254
26503SOL     OW84193   5.134  11.302  11.135  0.0136 -0.3933 -0.4338
26503SOL    HW184194   5.053  11.253  11.126 -0.7402  0.7775 -0.2179
26503SOL    HW284195   5.201  11.235  11.149 -0.7830 -1.4179 -1.3613
26504SOL     OW84196   0.681   4.323   9.397 -0.3815 -0.0866 -0.1629
26504SOL    HW184197   0.641   4.274   9.468  0.8140  0.3492  0.8419
26504SOL    HW284198   0.759   4.273   9.372 -0.5613 -0.0241 -0.8854
26505SOL     OW84199   9.703   6.195   6.640  0.3509  0.5137 -0.0786
26505SOL    HW184200   9.625   6.171   6.591  0.0411  1.5592 -0.1293
26505SOL    HW284201   9.688   6.160   6.728  0.1503  0.0876 -0.2825
26506SOL     OW84202   2.656   5.021   5.782 -0.4579  0.1580 -0.2750
26506SOL    HW184203   2.714   4.964   5.731  0.0626  0.7513 -0.3651
26506SOL    HW284204   2.583   5.040   5.723  0.8508  2.0321 -1.3914
26507SOL     OW84205   9.637   2.885   8.712  0.2140  0.3300  0.4148
26507SOL    HW184206   9.704   2.876   8.780 -1.1794  0.9977  1.9627
26507SOL    HW284207   9.614   2.978   8.713 -1.3456 -0.0327  0.5582
26508SOL     OW84208  10.364   2.067  10.539 -0.0822  0.3941 -0.4888
26508SOL    HW184209  10.395   2.113  10.617 -1.3024  0.8070 -0.2288
26508SOL    HW284210  10.346   1.978  10.569  0.2908  0.3109 -0.5090
26509SOL     OW84211   9.017   1.613   8.792  0.6854  0.1243 -0.6346
26509SOL    HW184212   9.021   1.547   8.861  2.3829 -1.2018 -1.9032
26509SOL    HW284213   9.023   1.563   8.711 -0.7150  1.6666 -1.7712
26510SOL     OW84214   8.094   8.312   1.954 -0.6718  0.2622 -0.4170
26510SOL    HW184215   8.062   8.292   1.866 -1.5425  0.0977 -0.0761
26510SOL    HW284216   8.073   8.405   1.966 -1.4798  0.0282 -0.0046
26511SOL     OW84217   0.937  10.624  10.598  0.0401  0.3306 -0.2916
26511SOL    HW184218   0.973  10.550  10.647 -1.7952  0.0166  0.6931
26511SOL    HW284219   0.924  10.692  10.664 -2.1170  0.0351 -0.3272
26512SOL     OW84220   5.436   7.945   2.535 -0.4768 -0.5916  0.1938
26512SOL    HW184221   5.400   7.866   2.493  0.5724 -0.3738 -1.1948
26512SOL    HW284222   5.456   8.003   2.461  0.3161  0.3116  1.1039
26513SOL     OW84223  10.063  10.792   7.706  0.6365  0.6812 -0.1473
26513SOL    HW184224  10.062  10.883   7.676 -0.2631  0.4876 -0.7513
26513SOL    HW284225  10.105  10.744   7.634  0.7556  0.5657  0.0003
26514SOL     OW84226  10.966   4.848   6.498 -0.0176  0.1435 -0.9126
26514SOL    HW184227  10.912   4.854   6.420 -1.3440  2.7728  0.0746
26514SOL    HW284228  10.987   4.939   6.520  0.2539 -0.4662  1.7902
26515SOL     OW84229  10.590   7.482   5.962 -0.6384 -0.4397 -0.2439
26515SOL    HW184230  10.536   7.523   6.029  1.0810  1.2963  0.1781
26515SOL    HW284231  10.550   7.508   5.879 -0.2323  1.2073  0.0474
26516SOL     OW84232  10.914   7.672   3.440  0.8511  0.5256 -0.1649
26516SOL    HW184233  10.880   7.749   3.485 -0.9033  1.8191 -3.3485
26516SOL    HW284234  11.008   7.674   3.456  0.6663  2.4783  0.9978
26517SOL     OW84235   1.562   4.159   8.630 -0.6173 -0.1119 -0.2231
26517SOL    HW184236   1.522   4.145   8.716 -0.1847 -0.9792 -0.1620
26517SOL    HW284237   1.643   4.108   8.632  0.0582  0.9136 -0.6753
26518SOL     OW84238   6.855   5.050   9.726  0.3083 -0.3375  0.0696
26518SOL    HW184239   6.881   5.137   9.757 -0.8560 -0.9366  3.0229
26518SOL    HW284240   6.917   4.990   9.768  0.7301 -1.0317 -1.4659
26519SOL     OW84241   4.165   9.356   3.414 -0.1675 -0.1656  0.6413
26519SOL    HW184242   4.103   9.418   3.375  1.3217  0.1573 -1.3852
26519SOL    HW284243   4.135   9.271   3.383 -0.9087 -0.2563  1.5731
26520SOL     OW84244   6.914   9.205   4.098 -0.1637 -0.0211  0.1293
26520SOL    HW184245   6.938   9.192   4.189  2.1263 -0.1855 -0.4204
26520SOL    HW284246   6.902   9.300   4.089  0.3782  0.0814  0.4515
26521SOL     OW84247   0.438   2.845   0.667  0.4440  0.3832  0.2611
26521SOL    HW184248   0.503   2.810   0.727 -0.8982 -2.0064  0.4213
26521SOL    HW284249   0.367   2.781   0.667 -1.2691  2.1344 -1.0528
26522SOL     OW84250   2.397   1.565   1.023 -0.5021 -0.4868  0.0148
26522SOL    HW184251   2.340   1.635   0.992 -0.5350 -0.3200  0.4417
26522SOL    HW284252   2.485   1.601   1.016 -0.4834 -0.5816 -0.2278
26523SOL     OW84253   7.248   1.894  11.101 -0.2473  0.1740  0.7535
26523SOL    HW184254   7.213   1.815  11.141 -1.2530  0.7842  1.1400
26523SOL    HW284255   7.174   1.932  11.054  0.7690 -0.2378 -1.2958
26524SOL     OW84256  11.490   9.192  11.762 -0.0866  0.9381  0.1236
26524SOL    HW184257  11.585   9.181  11.758 -0.1107  0.0467  1.5938
26524SOL    HW284258  11.474   9.273  11.712  1.4999  1.4310  0.3469
26525SOL     OW84259   4.037   0.711   0.865  0.1193  0.7966 -0.1358
26525SOL    HW184260   3.949   0.723   0.900  0.2049  2.0605 -0.3146
26525SOL    HW284261   4.089   0.779   0.907  1.1492 -0.2626  0.3687
26526SOL     OW84262   2.707   4.342   1.599 -0.1839  0.2449  0.2787
26526SOL    HW184263   2.687   4.429   1.563  1.0633 -0.0273 -1.1490
26526SOL    HW284264   2.746   4.294   1.526  1.2681 -0.7581  1.6430
26527SOL     OW84265   3.206   5.693   4.962 -0.0814  0.3211 -0.2747
26527SOL    HW184266   3.224   5.706   4.869  1.3340 -2.5524 -0.5135
26527SOL    HW284267   3.279   5.735   5.007  0.8175 -0.7758 -0.6581
26528SOL     OW84268  11.954  10.093  11.494 -0.1723  0.0785 -0.6418
26528SOL    HW184269  12.033  10.108  11.545  1.3245 -0.5215 -2.6254
26528SOL    HW284270  11.965  10.005  11.458 -0.0993  1.1361 -3.5599
26529SOL     OW84271   7.792   0.334   1.664  0.4866  0.0174 -0.4353
26529SOL    HW184272   7.717   0.368   1.615 -0.0512  0.8613  0.9076
26529SOL    HW284273   7.847   0.291   1.598  0.7050  2.6049 -2.0598
26530SOL     OW84274  11.013  10.887   1.501 -0.1074  0.4582 -0.0851
26530SOL    HW184275  11.072  10.815   1.480  1.0654  1.3434  0.0953
26530SOL    HW284276  10.945  10.847   1.556  1.0854 -0.3183  0.8747
26531SOL     OW84277   1.436   1.204   1.563 -0.6794 -0.1345 -0.4133
26531SOL    HW184278   1.429   1.288   1.519 -0.1206 -0.4528 -1.1461
26531SOL    HW284279   1.401   1.219   1.651  1.7324  1.5373  0.3776
26532SOL     OW84280   0.041  10.315   3.313  0.0290 -0.1925  0.4072
26532SOL    HW184281  -0.049  10.289   3.294  0.2322  1.0938 -2.9508
26532SOL    HW284282   0.033  10.392   3.369 -1.2913  2.3145 -2.8985
26533SOL     OW84283  10.080   5.442   0.292 -0.5416 -0.0784  0.1122
26533SOL    HW184284  10.069   5.405   0.204  0.0652  0.9378 -0.4123
26533SOL    HW284285  10.159   5.401   0.326 -1.6404 -1.7005  0.8720
26534SOL     OW84286   9.633  10.132   5.420  0.7262 -0.4730 -0.2832
26534SOL    HW184287   9.666  10.070   5.355  0.1274 -1.5963  0.4275
26534SOL    HW284288   9.698  10.130   5.490  0.2105 -1.1214  0.2011
26535SOL     OW84289   0.120  10.593   5.711  0.2606 -0.5456 -0.0766
26535SOL    HW184290   0.074  10.605   5.628 -1.3835 -1.3308  0.6701
26535SOL    HW284291   0.059  10.626   5.777  0.3335 -2.5092  1.0386
26536SOL     OW84292  10.108   3.617   3.330 -0.0163  0.3008 -0.0310
26536SOL    HW184293  10.081   3.625   3.421  1.2655  0.2231  0.3762
26536SOL    HW284294  10.188   3.564   3.333  1.8349  2.8347 -0.8438
26537SOL     OW84295   6.444   4.222  11.074  0.4921  0.0673  0.0828
26537SOL    HW184296   6.378   4.153  11.081 -0.1735  0.7114  0.3098
26537SOL    HW284297   6.472   4.238  11.164  2.2833 -1.4248 -0.1477
26538SOL     OW84298  11.647   3.870   3.330 -0.2544  0.2359  0.0303
26538SOL    HW184299  11.570   3.815   3.347 -0.1174  0.3734  1.2295
26538SOL    HW284300  11.710   3.811   3.289 -0.4557 -0.2700  0.4387
26539SOL     OW84301   4.626   9.229   4.004 -0.8339  0.4107 -0.1986
26539SOL    HW184302   4.579   9.293   4.058 -0.5075  0.8628 -0.4391
26539SOL    HW284303   4.652   9.279   3.926 -2.1041 -0.4596 -1.2151
26540SOL     OW84304   9.537   2.090   6.844  0.1699 -0.3410  0.3297
26540SOL    HW184305   9.595   2.093   6.768  0.9957  0.2761  0.9756
26540SOL    HW284306   9.515   2.181   6.861 -2.7528 -0.6179 -1.1888
26541SOL     OW84307   9.232   2.015   5.727 -0.2233 -0.9858 -0.4415
26541SOL    HW184308   9.149   1.971   5.711 -0.0227 -2.1355  1.4170
26541SOL    HW284309   9.210   2.108   5.723 -1.8388 -1.2463  0.9366
26542SOL     OW84310  11.874   5.154   2.332  0.0843  0.0301 -0.2057
26542SOL    HW184311  11.918   5.238   2.319 -1.4481  0.5927 -2.4738
26542SOL    HW284312  11.906   5.098   2.261 -1.2335 -0.1993 -0.6638
26543SOL     OW84313  10.293   7.813  10.417 -0.2707 -0.3360 -0.2511
26543SOL    HW184314  10.289   7.909  10.418 -0.0455 -0.3227 -0.5659
26543SOL    HW284315  10.204   7.786  10.391 -0.3515 -0.2155 -0.1017
26544SOL     OW84316   3.068   2.693   9.508  0.0918 -0.2796 -0.2686
26544SOL    HW184317   3.072   2.619   9.570 -2.1321 -0.0917  0.1624
26544SOL    HW284318   3.006   2.754   9.548 -0.0052  0.6813 -1.8346
26545SOL     OW84319   4.830   3.900   8.845  0.0249 -0.2676 -0.2151
26545SOL    HW184320   4.780   3.968   8.799  1.9902  1.3416 -0.0622
26545SOL    HW284321   4.768   3.827   8.854 -2.4805  1.8100  0.4605
26546SOL     OW84322  10.676   2.894   0.265 -0.2532 -0.0038  0.0887
26546SOL    HW184323  10.606   2.907   0.201  1.7316 -0.7657 -2.3757
26546SOL    HW284324  10.685   2.799   0.271 -0.2316  0.0588  1.3749
26547SOL     OW84325   0.952   8.528   1.473 -0.1553 -0.1615  0.5641
26547SOL    HW184326   1.043   8.557   1.483 -0.1626 -0.2327  0.8733
26547SOL    HW284327   0.910   8.554   1.555 -0.4709  0.0815  0.3246
26548SOL     OW84328   0.521  10.999   8.328 -0.4373 -0.1550 -0.1643
26548SOL    HW184329   0.586  10.940   8.291  0.9563 -0.1589  2.1178
26548SOL    HW284330   0.503  11.063   8.259  0.8622 -1.0362 -1.3483
26549SOL     OW84331   6.397   9.396  11.290  0.5237 -0.1058  0.3198
26549SOL    HW184332   6.359   9.314  11.321 -0.1292 -1.7782 -4.1879
26549SOL    HW284333   6.342   9.464  11.329 -2.5552 -2.1216 -0.1676
26550SOL     OW84334   9.240  10.335   0.883 -0.1871 -0.3119  0.1914
26550SOL    HW184335   9.295  10.403   0.845 -0.2518 -0.2910  0.1338
26550SOL    HW284336   9.151  10.371   0.877 -0.2668 -0.5710 -0.2110
26551SOL     OW84337   1.943   3.262   3.550 -0.1631 -0.1083 -0.0329
26551SOL    HW184338   1.861   3.285   3.507  0.4186  0.2780 -0.9616
26551SOL    HW284339   2.011   3.283   3.486  0.6910 -0.0753  0.8538
26552SOL     OW84340   9.012  11.800   0.577  0.0486  0.3520 -0.5917
26552SOL    HW184341   8.984  11.855   0.650 -0.5620 -2.7035  1.6559
26552SOL    HW284342   9.107  11.792   0.589 -0.0220  0.0127 -0.2724
26553SOL     OW84343   5.020   7.339   4.913 -0.2101 -0.9991 -0.4900
26553SOL    HW184344   5.041   7.401   4.982 -0.0664 -0.2010 -1.2354
26553SOL    HW284345   4.925   7.329   4.918 -0.4972  0.7598 -1.5556
26554SOL     OW84346   3.820  11.419   4.677  0.9961 -0.0274 -0.2262
26554SOL    HW184347   3.806  11.480   4.605 -2.1640  1.5914  1.5481
26554SOL    HW284348   3.809  11.332   4.637  2.0753  0.6560 -2.1401
26555SOL     OW84349   2.096  11.146  11.911 -0.1482  0.5262  0.3887
26555SOL    HW184350   2.175  11.200  11.910  0.0023  0.3343 -1.7295
26555SOL    HW284351   2.102  11.097  11.993  1.3064  1.4027  0.8424
26556SOL     OW84352   7.210   3.365   3.188 -0.1412 -0.8510  0.4409
26556SOL    HW184353   7.300   3.396   3.177 -0.4920 -0.0371 -0.1721
26556SOL    HW284354   7.189   3.385   3.279 -0.7232  1.7464 -0.1932
26557SOL     OW84355   8.815  10.395   8.595  0.0618  0.7336 -0.5930
26557SOL    HW184356   8.752  10.349   8.539  0.9660 -0.2842 -0.8288
26557SOL    HW284357   8.772  10.401   8.680  0.3212 -1.6918 -0.2035
26558SOL     OW84358   9.237  11.676   4.978  0.5233  0.3552 -0.2827
26558SOL    HW184359   9.181  11.667   5.055  2.7104  0.7251  1.4533
26558SOL    HW284360   9.207  11.607   4.919  0.0285 -1.2624  1.7248
26559SOL     OW84361  11.192   2.536   1.461  0.3771 -0.4580 -0.6579
26559SOL    HW184362  11.243   2.495   1.390 -0.1681  0.2937 -1.5132
26559SOL    HW284363  11.251   2.538   1.536  1.3877 -0.2049 -1.4382
26560SOL     OW84364   0.959   9.693   9.886 -0.1076 -0.5367 -0.0864
26560SOL    HW184365   1.039   9.642   9.895 -0.9446 -1.7579  0.8157
26560SOL    HW284366   0.926   9.671   9.799  0.8250  0.4372 -0.7025
26561SOL     OW84367   9.327   5.354   0.222  0.6455  0.0859  0.3255
26561SOL    HW184368   9.242   5.396   0.237  0.3080 -0.0773 -0.9391
26561SOL    HW284369   9.322   5.272   0.270 -0.1818 -0.2251 -0.2741
26562SOL     OW84370   2.453   2.054   0.026  0.6396  0.7115 -0.2692
26562SOL    HW184371   2.359   2.074   0.024  0.8686  1.8263 -0.4241
26562SOL    HW284372   2.486   2.089  -0.057  0.8054 -1.8107 -1.3774
26563SOL     OW84373   9.784   4.847   9.516 -0.2756 -0.1413 -0.0554
26563SOL    HW184374   9.806   4.758   9.486  0.8702  0.0342  0.2385
26563SOL    HW284375   9.777   4.839   9.611 -0.3416  0.0520 -0.0437
26564SOL     OW84376   3.505   0.489   0.560  0.3570  0.1455 -0.0821
26564SOL    HW184377   3.580   0.498   0.620  2.3972 -0.6807 -2.3294
26564SOL    HW284378   3.489   0.578   0.529  0.5334  0.2987  0.2580
26565SOL     OW84379   5.856   5.951   2.094 -0.4587  0.2739 -0.3493
26565SOL    HW184380   5.866   5.992   2.008  3.0748  0.8277  0.1536
26565SOL    HW284381   5.859   6.023   2.156  0.0045 -0.3035  0.3269
26566SOL     OW84382   9.849   1.412   8.373 -0.0860  0.4966  0.5041
26566SOL    HW184383   9.815   1.399   8.284  0.4927  1.7675  0.0751
26566SOL    HW284384   9.841   1.326   8.414 -0.1428 -0.1810 -0.8568
26567SOL     OW84385   6.981   0.909   5.060  0.4250 -0.0666  0.0892
26567SOL    HW184386   7.070   0.884   5.033  0.8595  1.7272 -0.2488
26567SOL    HW284387   6.987   0.920   5.155  0.1900 -1.3311  0.2633
26568SOL     OW84388  11.947   6.357  10.186  0.2810  0.4254 -0.0702
26568SOL    HW184389  11.939   6.411  10.108 -0.5489 -1.3241 -1.2335
26568SOL    HW284390  12.035   6.320  10.182 -1.0595 -2.9948 -2.5412
26569SOL     OW84391  11.219   0.914   5.379  0.5680 -0.1600  0.0322
26569SOL    HW184392  11.135   0.875   5.404  0.1440 -0.4610 -1.7196
26569SOL    HW284393  11.285   0.852   5.410 -0.0483 -1.7471 -1.6405
26570SOL     OW84394   2.664  11.358   2.728  0.3636 -0.0895 -0.3095
26570SOL    HW184395   2.677  11.287   2.666  0.5560 -0.4779  0.1731
26570SOL    HW284396   2.715  11.431   2.692  2.6745 -1.0896  0.7222
26571SOL     OW84397   6.094   5.237   8.253  0.0688 -0.2974  0.7691
26571SOL    HW184398   6.012   5.190   8.236 -0.4160  0.3227  1.3417
26571SOL    HW284399   6.133   5.190   8.327 -0.3017  0.0518  1.1920
26572SOL     OW84400   0.915   4.520  11.254  0.3358  0.1212  0.0794
26572SOL    HW184401   0.892   4.493  11.342  1.0147  1.1086  0.5769
26572SOL    HW284402   1.005   4.553  11.261  0.6396 -0.3955 -1.1082
26573SOL     OW84403  10.447   3.805   0.600  0.1891 -0.1395 -0.1276
26573SOL    HW184404  10.535   3.834   0.626 -0.3869  2.0291 -0.3415
26573SOL    HW284405  10.397   3.887   0.593 -2.1562 -1.3683  1.1139
26574SOL     OW84406   3.117   7.611   9.488 -0.0071 -0.3146 -0.7210
26574SOL    HW184407   3.176   7.599   9.413  1.6443 -0.5598  0.5545
26574SOL    HW284408   3.174   7.603   9.565 -1.2632  1.8477  0.5524
26575SOL     OW84409   4.611  11.941   7.091  0.1755  0.0285 -0.0059
26575SOL    HW184410   4.646  12.003   7.027  0.9637  0.8113  1.1368
26575SOL    HW284411   4.518  11.931   7.067  0.3755  0.5368 -1.0549
26576SOL     OW84412   0.760   4.810   6.231 -0.5167 -0.3252  0.4010
26576SOL    HW184413   0.676   4.766   6.225  0.1831 -1.5774 -0.7165
26576SOL    HW284414   0.807   4.783   6.153  1.5713 -1.0405  1.8222
26577SOL     OW84415   0.010   2.410  11.066  0.4534 -0.1173  0.0856
26577SOL    HW184416  -0.067   2.397  11.121  1.7829 -1.0391  1.8343
26577SOL    HW284417  -0.005   2.353  10.990 -0.5178 -0.3962  0.4782
26578SOL     OW84418   5.129   5.390   4.562 -0.1711  0.6509  0.0883
26578SOL    HW184419   5.141   5.481   4.589  0.4522  1.5451 -2.8470
26578SOL    HW284420   5.046   5.390   4.513  0.6591  0.0439 -1.3709
26579SOL     OW84421   6.638   9.249   7.585 -0.4714 -0.2114  0.1202
26579SOL    HW184422   6.688   9.174   7.616  0.0403  1.1111  2.8348
26579SOL    HW284423   6.558   9.248   7.638 -0.2542  1.3639  0.5313
26580SOL     OW84424   1.787   6.209   7.207 -0.0406 -0.6537 -0.0649
26580SOL    HW184425   1.844   6.133   7.199 -1.5348 -1.5981 -3.7115
26580SOL    HW284426   1.703   6.181   7.172 -0.9214  2.3887 -0.7480
26581SOL     OW84427   5.407  10.146   3.725 -0.6086  0.2694  0.2639
26581SOL    HW184428   5.354  10.136   3.804 -1.2063  0.0062 -0.1589
26581SOL    HW284429   5.444  10.233   3.732  0.7413 -0.3711  1.6674
26582SOL     OW84430   2.491   9.070   7.115  0.7549  1.2108 -0.0038
26582SOL    HW184431   2.495   9.148   7.059  1.1501  1.6657  0.6547
26582SOL    HW284432   2.402   9.038   7.105 -0.0771  2.9546  1.3267
26583SOL     OW84433  11.704  11.863  11.692  0.2429 -0.3999 -0.4061
26583SOL    HW184434  11.658  11.831  11.770  0.1955 -1.2024 -0.7574
26583SOL    HW284435  11.682  11.800  11.624 -0.1265  0.5621 -1.2101
26584SOL     OW84436   7.030   5.728   9.781  0.4610 -0.5453  0.2014
26584SOL    HW184437   7.086   5.803   9.802  0.8578 -1.4477  2.6529
26584SOL    HW284438   6.946   5.767   9.755  1.5101  0.7603 -1.4615
26585SOL     OW84439   5.952  11.340   6.071  0.4665 -0.4089  0.0149
26585SOL    HW184440   6.017  11.349   6.141 -0.5079  1.0998  0.7718
26585SOL    HW284441   5.877  11.391   6.101  0.1425  0.5886 -2.2786
26586SOL     OW84442   6.313   2.581   8.123  0.6818  0.2211 -0.2361
26586SOL    HW184443   6.239   2.572   8.183  0.7251  1.0388 -0.0522
26586SOL    HW284444   6.357   2.661   8.151  1.1265  0.2178 -0.9014
26587SOL     OW84445   0.620   7.806   1.747 -0.3273 -0.0885  0.3076
26587SOL    HW184446   0.665   7.889   1.761 -2.3197  1.1984 -0.5157
26587SOL    HW284447   0.600   7.775   1.836 -0.9006  1.1030  0.6152
26588SOL     OW84448   7.727   3.441   2.135 -0.3685 -0.2903 -0.3925
26588SOL    HW184449   7.762   3.365   2.182  1.3862 -0.9093 -2.5414
26588SOL    HW284450   7.720   3.509   2.202 -2.6237 -2.4232  1.7779
26589SOL     OW84451   3.436   2.625   6.173 -0.3576 -0.1846 -0.4104
26589SOL    HW184452   3.468   2.540   6.143 -2.6356 -0.6175 -1.8738
26589SOL    HW284453   3.356   2.640   6.122 -0.6227  2.3416  0.5965
26590SOL     OW84454   7.040   8.494   3.347  0.0701 -0.0383 -0.3180
26590SOL    HW184455   7.072   8.470   3.260 -1.3573 -1.3964 -0.5041
26590SOL    HW284456   6.967   8.435   3.364 -3.4055  3.7295 -0.5507
26591SOL     OW84457   5.466  11.529   7.491 -0.7521  0.1924  0.5774
26591SOL    HW184458   5.513  11.510   7.572 -1.6884  0.3471  1.1757
26591SOL    HW284459   5.503  11.612   7.460  1.0907 -0.8922 -0.3179
26592SOL     OW84460   8.835   3.844  11.972  0.0858  0.2266  0.0538
26592SOL    HW184461   8.884   3.875  11.896  1.1382  0.1526  0.6776
26592SOL    HW284462   8.861   3.903  12.043  1.3314 -1.3866  1.0164
26593SOL     OW84463   7.765   1.173   8.429 -0.2934 -0.3128 -0.1211
26593SOL    HW184464   7.681   1.212   8.453  0.3945  1.7532 -0.8104
26593SOL    HW284465   7.809   1.157   8.513 -1.1591 -0.9601  0.2227
26594SOL     OW84466   5.271   1.123   1.470 -0.6845 -0.0228 -0.2334
26594SOL    HW184467   5.314   1.199   1.509 -1.6262  0.7830 -0.7053
26594SOL    HW284468   5.330   1.094   1.401 -0.3833  0.3641 -0.1403
26595SOL     OW84469   0.899  11.549   5.736  0.3331 -0.6232  0.1776
26595SOL    HW184470   0.859  11.471   5.774  2.0868 -1.9789 -0.6251
26595SOL    HW284471   0.979  11.563   5.786 -0.2354  1.0570  0.6959
26596SOL     OW84472   9.019  11.540  11.185 -0.1040 -0.1509 -0.1903
26596SOL    HW184473   9.065  11.618  11.154  0.6347 -0.7893 -0.7298
26596SOL    HW284474   9.083  11.494  11.240 -0.3826 -0.5999 -0.2344
26597SOL     OW84475  11.664   3.211   5.679 -0.0902 -0.2565 -0.3202
26597SOL    HW184476  11.584   3.199   5.628  0.2919  0.7789 -1.1930
26597SOL    HW284477  11.720   3.137   5.653  0.3625  0.6166 -1.9514
26598SOL     OW84478   5.603   4.496   4.462 -0.0888  0.9079 -0.4002
26598SOL    HW184479   5.634   4.586   4.456  0.9157  0.5057 -1.8831
26598SOL    HW284480   5.537   4.488   4.393 -0.9930  0.8065  0.4642
26599SOL     OW84481  11.080   5.777   8.982  0.2126 -0.4407 -0.0050
26599SOL    HW184482  11.078   5.870   8.958 -0.3624 -0.8635 -1.6942
26599SOL    HW284483  11.130   5.775   9.064 -0.0491  1.3890  0.2536
26600SOL     OW84484   2.145  11.067   2.935  0.8781 -0.1628  0.0287
26600SOL    HW184485   2.218  11.094   2.880  0.4966  2.3249  0.6075
26600SOL    HW284486   2.074  11.128   2.914 -0.7542 -1.8788  0.1896
26601SOL     OW84487   4.180   0.590   3.807 -0.2327 -0.0930 -0.2631
26601SOL    HW184488   4.154   0.540   3.730 -1.4870 -1.1215  0.7879
26601SOL    HW284489   4.098   0.617   3.848  0.4116  0.9852  0.3685
26602SOL     OW84490   3.953   7.861   4.075 -0.1692  0.0694 -0.0642
26602SOL    HW184491   3.976   7.784   4.128 -0.0928 -1.1039 -1.7535
26602SOL    HW284492   3.882   7.831   4.018  1.6866  0.3712 -2.6830
26603SOL     OW84493  10.984   8.221  11.480  0.0409  0.2114  0.0043
26603SOL    HW184494  10.889   8.226  11.490  0.0766 -0.0467  0.4672
26603SOL    HW284495  11.017   8.292  11.535  0.1539 -0.1675  0.4231
26604SOL     OW84496   6.528   8.525   8.567  0.2033  0.0866 -0.2861
26604SOL    HW184497   6.438   8.557   8.556  0.1438 -0.2815 -0.8653
26604SOL    HW284498   6.519   8.430   8.579  0.5122  0.0525 -0.3119
26605SOL     OW84499   2.252   1.715   9.344  0.0416  0.0993 -0.1249
26605SOL    HW184500   2.340   1.711   9.307  0.1734 -0.0525  0.2086
26605SOL    HW284501   2.252   1.792   9.400  0.7684 -1.3283  1.9405
26606SOL     OW84502   7.572   9.289  10.047 -0.0073 -0.2936  0.4074
26606SOL    HW184503   7.592   9.270  10.139 -2.0108 -0.2978  0.8842
26606SOL    HW284504   7.536   9.208  10.012 -1.6657  0.4192  0.3730
26607SOL     OW84505  11.751   7.848   8.803 -0.1419 -0.1458  0.1744
26607SOL    HW184506  11.672   7.804   8.834 -0.9082  0.3450 -1.0118
26607SOL    HW284507  11.738   7.940   8.826  0.8117 -0.2665  1.3556
26608SOL     OW84508   3.335   2.745   4.106  0.0577  0.3787  0.0130
26608SOL    HW184509   3.298   2.787   4.028 -1.5996 -4.2285 -1.9968
26608SOL    HW284510   3.428   2.737   4.087  0.2033  1.9581 -0.0578
26609SOL     OW84511   0.217   1.741   1.109 -0.0637 -0.0896  0.3775
26609SOL    HW184512   0.294   1.692   1.134 -0.8945 -1.5780  0.1461
26609SOL    HW284513   0.247   1.832   1.102  1.7667 -0.7029 -0.2236
26610SOL     OW84514   2.457  11.920   9.997  0.1096 -0.6515  0.4869
26610SOL    HW184515   2.549  11.906  10.021  0.0696 -0.2309  0.9095
26610SOL    HW284516   2.439  12.010  10.025 -0.5766 -0.9041  0.8631
26611SOL     OW84517  11.846   7.078   6.096  0.3999 -0.4842 -0.2368
26611SOL    HW184518  11.792   7.026   6.154  0.1301 -0.7343 -0.7060
26611SOL    HW284519  11.785   7.139   6.054  0.7402  0.3307  0.4381
26612SOL     OW84520   2.145   5.621   1.391  0.1576  0.0419 -0.6053
26612SOL    HW184521   2.107   5.623   1.304  1.5341  1.6804 -1.2400
26612SOL    HW284522   2.239   5.609   1.376  0.5646  1.4714  0.5491
26613SOL     OW84523   9.008  10.319   6.153  0.1418  0.3145 -0.5043
26613SOL    HW184524   9.056  10.290   6.076  0.3313  1.3731 -0.7998
26613SOL    HW284525   9.000  10.413   6.142 -1.5275  0.2353 -0.1829
26614SOL     OW84526   7.599   9.726   5.036  0.4838  0.6513  0.1381
26614SOL    HW184527   7.678   9.778   5.022  0.1324  1.0538 -0.4402
26614SOL    HW284528   7.556   9.726   4.950 -0.3594  0.8084  0.5502
26615SOL     OW84529   1.371   7.051   3.182 -0.1795 -0.4794  0.3805
26615SOL    HW184530   1.446   7.075   3.236 -0.5355  2.9955 -0.4337
26615SOL    HW284531   1.409   6.997   3.112  0.5560 -3.4966  2.8554
26616SOL     OW84532   7.808   9.641   2.984  0.0768  0.0171  0.3846
26616SOL    HW184533   7.825   9.570   3.045 -0.0964  1.0396  1.6730
26616SOL    HW284534   7.841   9.719   3.028 -1.0116  0.9386 -0.3596
26617SOL     OW84535   0.537   6.992  10.643 -0.2334 -0.0471  0.3392
26617SOL    HW184536   0.498   6.969  10.559  0.5260 -0.7004  0.1653
26617SOL    HW284537   0.590   6.917  10.668 -0.6582  0.0231  1.5405
26618SOL     OW84538   5.464   1.244   2.160 -0.2629 -0.3918  0.2376
26618SOL    HW184539   5.499   1.160   2.131  0.7771  0.4345 -0.9871
26618SOL    HW284540   5.518   1.309   2.115 -1.3242  0.9291  0.8302
26619SOL     OW84541   2.134  10.777   3.037  0.1630 -0.0689 -0.0088
26619SOL    HW184542   2.083  10.717   2.983 -1.4137 -0.8745  2.2409
26619SOL    HW284543   2.122  10.862   2.996 -1.2238 -0.5983 -0.7777
26620SOL     OW84544   9.663   7.245   6.163  0.2658  0.0238  0.2246
26620SOL    HW184545   9.674   7.315   6.099  0.3105  0.2781  0.5093
26620SOL    HW284546   9.593   7.275   6.221 -1.7828 -1.4274 -1.3583
26621SOL     OW84547   6.902   2.686   7.033  0.1269  0.0068 -0.1494
26621SOL    HW184548   6.982   2.728   7.064 -0.2509  0.6628 -0.0553
26621SOL    HW284549   6.870   2.637   7.108 -0.5659  1.2623  0.3922
26622SOL     OW84550   7.567  10.624   5.242  0.2118 -0.4167  0.3095
26622SOL    HW184551   7.620  10.583   5.174  2.2735  1.3673  0.7148
26622SOL    HW284552   7.555  10.555   5.308 -1.7121 -2.1317 -1.6945
26623SOL     OW84553   7.425  11.164   8.016 -0.6897 -0.0061 -0.3193
26623SOL    HW184554   7.490  11.231   8.040 -0.9147  0.1058 -0.0168
26623SOL    HW284555   7.341  11.203   8.040 -0.7497 -0.8907  1.0479
26624SOL     OW84556   9.811   6.049   0.730  0.7549 -0.2844 -0.1436
26624SOL    HW184557   9.854   6.113   0.672  1.0478 -0.6485 -0.3321
26624SOL    HW284558   9.726   6.034   0.689  0.7406 -0.1161 -0.1766
26625SOL     OW84559   3.320   0.208   9.206  0.2266  0.1407  0.3522
26625SOL    HW184560   3.249   0.258   9.246  1.3194  0.8712  1.4077
26625SOL    HW284561   3.313   0.228   9.112  0.6692  2.3437  0.7416
26626SOL     OW84562   1.054   0.846   0.143 -0.3152  0.3481  0.1139
26626SOL    HW184563   1.000   0.910   0.190  1.3165  0.6874  1.6533
26626SOL    HW284564   1.126   0.897   0.106 -0.2351 -0.2846 -0.6317
26627SOL     OW84565   4.748   2.734   8.301 -0.6646 -0.0834  0.0080
26627SOL    HW184566   4.773   2.681   8.225 -0.2629  0.3360 -0.1568
26627SOL    HW284567   4.729   2.820   8.264  1.5971  0.7279  0.6126
26628SOL     OW84568   8.879  11.189   8.568 -0.1663  0.0863  0.1492
26628SOL    HW184569   8.810  11.147   8.618  0.8557  0.8317  2.2972
26628SOL    HW284570   8.955  11.188   8.626  1.5116 -0.2566 -1.9327
26629SOL     OW84571  11.611  11.865  10.615  0.4765 -0.1182  0.0434
26629SOL    HW184572  11.576  11.944  10.657 -0.3862 -1.4968  2.0292
26629SOL    HW284573  11.703  11.863  10.640  0.9967  1.2129 -1.5930
26630SOL     OW84574  10.110   6.440   1.960 -0.0919 -0.3716 -0.3328
26630SOL    HW184575  10.103   6.499   2.035  1.5886 -2.4188  1.5929
26630SOL    HW284576  10.110   6.498   1.884 -1.3875  1.8537  1.2129
26631SOL     OW84577   4.920   0.273   4.634 -0.0416 -0.3669  0.5696
26631SOL    HW184578   4.916   0.346   4.695 -0.0738  0.4639 -0.3946
26631SOL    HW284579   5.002   0.287   4.585 -0.9422  0.0724 -0.8665
26632SOL     OW84580   2.801   9.536   5.090  0.1235  0.9802  0.4573
26632SOL    HW184581   2.800   9.616   5.036  0.3755  1.3668  1.0106
26632SOL    HW284582   2.732   9.550   5.154 -1.6693 -0.4289 -1.0691
26633SOL     OW84583   5.827   6.328   2.484  0.2068  0.3562  0.1466
26633SOL    HW184584   5.878   6.341   2.564 -0.8634  1.4916  0.6833
26633SOL    HW284585   5.843   6.407   2.432 -1.2283  0.9183  0.4905
26634SOL     OW84586   8.240   6.259  11.268 -0.4325 -0.6107 -0.0365
26634SOL    HW184587   8.181   6.193  11.230 -1.3544  0.9136 -1.4246
26634SOL    HW284588   8.206   6.342  11.235  0.0812  0.6772  2.4551
26635SOL     OW84589  10.664   5.176   1.319  0.6042  0.3532  0.0420
26635SOL    HW184590  10.633   5.172   1.409 -1.6183  2.0288 -0.5704
26635SOL    HW284591  10.727   5.248   1.319  1.4475 -0.3653  0.4455
26636SOL     OW84592   1.994  11.631  10.823 -0.1570 -0.3525 -0.8817
26636SOL    HW184593   1.913  11.581  10.814 -0.8675  0.8157 -1.3652
26636SOL    HW284594   2.010  11.666  10.735  0.6635 -0.2594 -0.7005
26637SOL     OW84595   5.162  11.057   7.125 -0.0004 -0.6530  0.2124
26637SOL    HW184596   5.086  11.002   7.109 -1.1352  0.0137  2.6777
26637SOL    HW284597   5.218  11.005   7.183  1.3431 -1.0298 -1.3593
26638SOL     OW84598   2.121   0.038   7.175 -0.0410 -0.1667  0.0861
26638SOL    HW184599   2.099  -0.033   7.115 -2.6368  0.2101  0.4454
26638SOL    HW284600   2.169   0.101   7.121  0.5072 -1.2712 -0.7541
26639SOL     OW84601  10.430   9.193   4.224 -0.1006  0.0834 -0.4188
26639SOL    HW184602  10.348   9.160   4.261 -0.1954 -0.7685 -1.3388
26639SOL    HW284603  10.410   9.284   4.199 -0.4773  0.1837  0.2308
26640SOL     OW84604   8.138  11.639   3.511 -0.5622  0.3068 -0.3027
26640SOL    HW184605   8.085  11.575   3.559 -0.4481  0.9976  0.7822
26640SOL    HW284606   8.081  11.668   3.440 -0.4835 -1.2466 -1.0560
26641SOL     OW84607  11.416   5.352   4.610  0.0345 -0.1808  0.4231
26641SOL    HW184608  11.425   5.445   4.588  0.5997  0.0119  1.4049
26641SOL    HW284609  11.457   5.344   4.696  1.0395 -1.5619 -0.1527
26642SOL     OW84610   6.661   2.878   1.961 -0.0834  0.0256 -0.0540
26642SOL    HW184611   6.573   2.914   1.967 -0.1669 -0.1893 -0.0067
26642SOL    HW284612   6.649   2.789   1.929  0.1425  0.1159 -0.4026
26643SOL     OW84613   1.186   6.408   9.141 -0.1283  0.2117 -0.1941
26643SOL    HW184614   1.179   6.475   9.072  1.8351  0.5563 -0.1205
26643SOL    HW284615   1.175   6.325   9.095 -1.6870  0.5307 -0.4384
26644SOL     OW84616   9.843   1.081   4.194 -0.5615  0.0780 -0.0525
26644SOL    HW184617   9.848   1.013   4.126  0.8676  0.8865 -0.8008
26644SOL    HW284618   9.881   1.041   4.272  0.9096  0.2050 -0.6775
26645SOL     OW84619   9.443  11.672   6.671  0.5148  0.1854 -0.1565
26645SOL    HW184620   9.377  11.717   6.723  0.9186 -0.5402  1.0357
26645SOL    HW284621   9.485  11.741   6.619 -0.1392  0.8744  0.2150
26646SOL     OW84622   7.099   5.485   9.110 -0.0494 -0.1842 -0.2736
26646SOL    HW184623   7.087   5.466   9.203  2.1479 -1.1592 -0.1323
26646SOL    HW284624   7.105   5.580   9.106 -1.3032 -0.0508  0.4014
26647SOL     OW84625   1.520   9.106   9.967 -0.0968 -0.2848 -0.2048
26647SOL    HW184626   1.494   9.100  10.058  0.3809 -1.1300 -0.1052
26647SOL    HW284627   1.462   9.171   9.929 -0.5265 -0.1728  0.6211
26648SOL     OW84628   3.827   8.909   5.923  0.8897  0.0992 -0.5738
26648SOL    HW184629   3.767   8.958   5.979  1.8782  1.9876 -1.1165
26648SOL    HW284630   3.894   8.875   5.984 -0.9528 -2.5836  0.1389
26649SOL     OW84631   9.146   1.379  10.551  0.3642  0.4193 -0.8480
26649SOL    HW184632   9.106   1.293  10.537 -0.1349  0.8317 -2.1424
26649SOL    HW284633   9.231   1.374  10.506  0.9959  0.1306  0.3530
26650SOL     OW84634   6.309   6.226   0.065  0.4433 -0.0011 -0.0876
26650SOL    HW184635   6.302   6.133   0.043 -1.9728  0.2151 -0.5389
26650SOL    HW284636   6.368   6.262  -0.001  1.9016 -1.2712  0.4493
26651SOL     OW84637  11.958   2.397   9.574 -0.1595 -0.1977 -0.8977
26651SOL    HW184638  12.031   2.400   9.513 -0.0385 -0.2612 -0.7545
26651SOL    HW284639  11.888   2.445   9.529  0.0878  0.1843 -0.8771
26652SOL     OW84640   7.091   0.223   8.105  0.3324  0.4019  0.6005
26652SOL    HW184641   7.069   0.298   8.161  1.6026  0.0250  1.6538
26652SOL    HW284642   7.026   0.226   8.035 -0.0343  2.1245  0.9565
26653SOL     OW84643   6.178   3.768   8.764 -0.1679  0.4698 -0.1809
26653SOL    HW184644   6.164   3.812   8.848 -1.4533  0.0413 -0.1432
26653SOL    HW284645   6.272   3.776   8.748  0.3522 -0.5913  1.9562
26654SOL     OW84646   9.732   7.670  11.673 -0.2861 -0.3498 -0.0619
26654SOL    HW184647   9.740   7.627  11.588 -3.0018 -1.6714  0.2540
26654SOL    HW284648   9.764   7.759  11.658  0.9294 -1.0703 -1.9934
26655SOL     OW84649   9.066   8.545   4.348 -0.1984  0.7278 -0.5589
26655SOL    HW184650   9.106   8.463   4.320 -2.4926  0.3541 -3.1265
26655SOL    HW284651   8.984   8.520   4.390 -0.4158  1.6504 -0.4014
26656SOL     OW84652   6.800   8.633   6.331  0.1349 -0.0435 -0.5953
26656SOL    HW184653   6.871   8.634   6.267  1.1114 -0.0422  0.4601
26656SOL    HW284654   6.813   8.712   6.383 -0.6076 -0.0797 -0.3405
26657SOL     OW84655   6.658   6.445  10.238  0.0938  0.2726 -0.2422
26657SOL    HW184656   6.612   6.478  10.160 -1.6334 -0.7621  0.2872
26657SOL    HW284657   6.626   6.356  10.248 -0.4560  0.6925  2.1979
26658SOL     OW84658   1.969   3.548   4.200 -0.0925 -0.1249  0.3903
26658SOL    HW184659   1.936   3.479   4.143 -0.9318  0.6044 -0.0358
26658SOL    HW284660   2.009   3.502   4.274  1.9743 -1.1439 -1.2451
26659SOL     OW84661   5.014   7.237   2.222  0.2391 -0.6176  0.1797
26659SOL    HW184662   5.087   7.227   2.282  0.3350 -0.0977  0.1570
26659SOL    HW284663   4.985   7.328   2.234  0.2288 -0.5172 -0.5183
26660SOL     OW84664  11.211   6.104   1.471 -0.1691 -0.2237 -0.2152
26660SOL    HW184665  11.260   6.033   1.429  0.8346 -0.7233  1.7143
26660SOL    HW284666  11.203   6.170   1.402 -1.4576 -2.2844 -2.2030
26661SOL     OW84667   6.007  10.830   2.561  0.3954 -0.1722  0.0377
26661SOL    HW184668   6.009  10.873   2.476  0.3991  1.1631  0.6814
26661SOL    HW284669   5.945  10.758   2.550  1.7940 -1.2060 -1.5997
26662SOL     OW84670   5.590   7.394   5.876 -0.0572 -0.3494  0.3463
26662SOL    HW184671   5.518   7.455   5.859  0.2439  0.0875  0.6089
26662SOL    HW284672   5.668   7.450   5.881  0.2092 -0.7440  0.7075
26663SOL     OW84673   1.338   4.674   6.978  0.0843 -0.8262  0.0955
26663SOL    HW184674   1.246   4.648   6.980  0.2516 -1.4004  0.7602
26663SOL    HW284675   1.340   4.752   6.924 -0.7110 -1.1427 -0.4022
26664SOL     OW84676   9.377   0.581   9.170 -0.4583 -0.1152 -0.2172
26664SOL    HW184677   9.360   0.526   9.094  0.1998 -1.8452  0.8243
26664SOL    HW284678   9.349   0.529   9.245  1.7763  0.1884  0.9470
26665SOL     OW84679   6.279  10.217   6.539  0.6112 -0.3301  0.5049
26665SOL    HW184680   6.328  10.273   6.600 -0.7428 -1.8603  3.1605
26665SOL    HW284681   6.234  10.279   6.480 -0.0195  1.3877  2.6640
26666SOL     OW84682   0.196   2.125   9.842 -0.2339  0.7632 -0.2131
26666SOL    HW184683   0.222   2.058   9.904  0.5956  1.6924  0.4782
26666SOL    HW284684   0.102   2.111   9.830  0.1561 -1.3747 -1.1927
26667SOL     OW84685   2.172   2.228   4.209  0.5081  0.1825 -0.0067
26667SOL    HW184686   2.263   2.255   4.220  0.7172 -0.0769 -0.9720
26667SOL    HW284687   2.160   2.223   4.114  0.0323 -1.6178  0.1095
26668SOL     OW84688   8.552   6.881   0.910 -0.7726 -0.5288  0.2741
26668SOL    HW184689   8.601   6.956   0.878 -1.9089  0.5652  0.9802
26668SOL    HW284690   8.491   6.918   0.975 -1.7282 -1.9780  0.2579
26669SOL     OW84691   1.444  10.813  11.586 -0.5683  0.1183 -0.2642
26669SOL    HW184692   1.455  10.906  11.564 -0.2754  0.2168  0.2575
26669SOL    HW284693   1.534  10.782  11.598 -0.6709 -0.2146 -0.3733
26670SOL     OW84694   7.900   9.461   3.216 -1.3227 -0.4036 -0.1146
26670SOL    HW184695   7.995   9.459   3.226 -0.9077  0.3784 -2.9470
26670SOL    HW284696   7.871   9.533   3.273  0.3502  2.0804 -2.1812
26671SOL     OW84697   1.859   5.316   6.956  0.1914 -0.4358  0.0126
26671SOL    HW184698   1.905   5.300   7.038 -1.8371 -0.5801  1.2150
26671SOL    HW284699   1.836   5.409   6.959 -1.9680 -0.9305  0.8479
26672SOL     OW84700   2.843   6.816   7.252 -0.3546  0.2082  0.3837
26672SOL    HW184701   2.770   6.773   7.207 -0.2832  2.4195 -2.0647
26672SOL    HW284702   2.804   6.892   7.295  0.0639 -0.3343  1.8014
26673SOL     OW84703   4.432   8.507   2.134 -0.0349  0.3184  0.2859
26673SOL    HW184704   4.465   8.556   2.058 -0.5013  2.1442  1.1867
26673SOL    HW284705   4.439   8.569   2.206  0.3198 -1.3528  1.7369
26674SOL     OW84706   4.356   9.291  11.390 -0.2400 -0.1243 -0.1669
26674SOL    HW184707   4.317   9.246  11.315 -1.1663 -0.3083  0.4104
26674SOL    HW284708   4.421   9.350  11.351  0.9655 -1.8865 -0.9536
26675SOL     OW84709  10.737   3.696   1.037 -0.5953  0.3713  0.0089
26675SOL    HW184710  10.749   3.697   1.132  0.6145 -2.0172 -0.0367
26675SOL    HW284711  10.673   3.765   1.020  0.6423  2.2399  2.3173
26676SOL     OW84712   9.577   5.919  11.271 -0.3972  0.0428  0.0954
26676SOL    HW184713   9.671   5.918  11.286 -0.3514  0.4110 -0.1797
26676SOL    HW284714   9.539   5.900  11.358 -0.0380 -2.2537 -0.1893
26677SOL     OW84715   1.647   5.606   9.659 -0.1205 -0.5056  0.3605
26677SOL    HW184716   1.742   5.594   9.660  0.0665  0.5065 -1.1748
26677SOL    HW284717   1.619   5.589   9.749  1.2438 -2.7577  0.4240
26678SOL     OW84718  10.306  10.402   9.866 -0.0830  0.4283 -0.3878
26678SOL    HW184719  10.297  10.449   9.950 -3.0355  0.3917 -0.5952
26678SOL    HW284720  10.294  10.310   9.889 -2.0224  0.5072 -0.9196
26679SOL     OW84721   2.205   8.114   5.018  0.5257 -0.4628  0.0828
26679SOL    HW184722   2.273   8.170   4.981  0.2559 -0.2543 -0.1055
26679SOL    HW284723   2.244   8.027   5.021 -0.0164 -0.8714 -2.3727
26680SOL     OW84724  11.973   5.856   5.049 -0.1760 -0.6352  0.5332
26680SOL    HW184725  12.016   5.788   5.100  2.0479  0.2936  0.0244
26680SOL    HW284726  11.993   5.938   5.095  0.9380  0.0934 -1.1319
26681SOL     OW84727   0.667  10.787   4.328  0.1028  0.5224  0.4947
26681SOL    HW184728   0.682  10.727   4.256  0.5575  1.8829 -0.5931
26681SOL    HW284729   0.753  10.825   4.347 -0.0621  0.4094  1.5544
26682SOL     OW84730   5.521   7.957  10.513  0.4024 -0.0471  0.0517
26682SOL    HW184731   5.484   7.878  10.473 -1.9528  0.3741  1.2173
26682SOL    HW284732   5.537   7.933  10.604  2.1412  0.0996 -0.1928
26683SOL     OW84733   4.101   6.394  10.647 -0.0281  0.2972 -0.0464
26683SOL    HW184734   4.123   6.401  10.554 -0.8121  0.4840 -0.2200
26683SOL    HW284735   4.013   6.357  10.648  0.2953 -0.4818  0.6482
26684SOL     OW84736   1.277   1.582   4.567 -0.2275 -0.2659  0.0878
26684SOL    HW184737   1.200   1.638   4.572  0.1219  0.3257 -0.9015
26684SOL    HW284738   1.243   1.493   4.575 -0.8837  0.0379  0.7570
26685SOL     OW84739   9.252   6.437  10.324  0.5034  0.3823 -0.2795
26685SOL    HW184740   9.305   6.367  10.361 -3.1088 -1.8785  1.1850
26685SOL    HW284741   9.262   6.510  10.385  1.3197 -0.2508  0.3639
26686SOL     OW84742   7.787   3.539   2.566  0.1421 -0.1546 -0.0757
26686SOL    HW184743   7.853   3.472   2.551 -1.6988 -1.9564 -0.4990
26686SOL    HW284744   7.755   3.522   2.655 -0.5509 -0.0415 -0.2971
26687SOL     OW84745   5.174   1.689   9.015 -0.0161 -0.2360 -0.4928
26687SOL    HW184746   5.171   1.782   9.039  1.3245 -0.0702 -0.8870
26687SOL    HW284747   5.186   1.689   8.920  0.5975 -0.7951 -0.4251
26688SOL     OW84748   4.816  10.331  11.454 -0.5532  0.2183 -0.2088
26688SOL    HW184749   4.809  10.375  11.539  0.6000 -0.8301  0.4769
26688SOL    HW284750   4.726  10.306  11.433 -1.2572  2.8997 -0.6797
26689SOL     OW84751   2.974   6.847   2.091  0.0484 -0.3210  0.1445
26689SOL    HW184752   2.999   6.769   2.142 -0.0302 -1.4101 -1.4017
26689SOL    HW284753   3.049   6.864   2.035 -0.8683 -0.8689 -1.3270
26690SOL     OW84754   9.842   9.316   6.822  0.7444  0.1243  0.1687
26690SOL    HW184755   9.812   9.407   6.815  1.2671  0.3085  0.2944
26690SOL    HW284756   9.823   9.292   6.913 -0.2538 -0.2071 -0.1107
26691SOL     OW84757  11.202   9.055   6.007 -0.3462  0.4955  0.3369
26691SOL    HW184758  11.194   9.068   6.102 -1.4478 -2.8217  0.8329
26691SOL    HW284759  11.291   9.023   5.995 -1.1471 -2.2032  0.8428
26692SOL     OW84760   4.519   2.484   5.412  0.4062 -0.9605  0.3893
26692SOL    HW184761   4.491   2.478   5.321 -2.0032  0.6860  0.9195
26692SOL    HW284762   4.438   2.487   5.462  1.6363 -2.9945  2.7637
26693SOL     OW84763   4.292   7.165   3.146 -0.4456 -0.1061 -0.9107
26693SOL    HW184764   4.292   7.150   3.051 -1.7387 -1.7619 -0.6861
26693SOL    HW284765   4.375   7.128   3.176 -1.0266 -1.6363 -1.1354
26694SOL     OW84766   4.729   4.807   5.141 -0.2168  0.6952  0.3162
26694SOL    HW184767   4.802   4.750   5.166  0.4846  1.3501 -0.2101
26694SOL    HW284768   4.667   4.799   5.214 -0.8122 -1.8494 -0.3494
26695SOL     OW84769   8.446   2.483  11.465 -0.7156 -0.5745  0.2464
26695SOL    HW184770   8.475   2.393  11.478 -1.4753 -0.5618  2.4362
26695SOL    HW284771   8.374   2.494  11.527 -1.6447  1.0940 -1.0478
26696SOL     OW84772   8.442   7.101   3.512  0.7635 -0.0329 -0.1876
26696SOL    HW184773   8.428   7.187   3.551 -1.0556 -0.2215 -0.2971
26696SOL    HW284774   8.485   7.120   3.428 -1.0946  0.9904 -0.9966
26697SOL     OW84775   4.395   8.723   0.346 -0.2666 -0.0960  0.4568
26697SOL    HW184776   4.406   8.753   0.256 -0.4555 -0.6714  0.2378
26697SOL    HW284777   4.350   8.639   0.338 -0.2303 -0.1803  1.0849
26698SOL     OW84778   9.437  11.069   1.859  0.2730  0.2732 -0.5449
26698SOL    HW184779   9.532  11.060   1.874  0.6585 -1.0562 -3.1623
26698SOL    HW284780   9.426  11.160   1.832  0.3836  1.0741  1.8491
26699SOL     OW84781   6.974   7.399   9.047 -0.4531  0.0917  0.4017
26699SOL    HW184782   7.047   7.350   9.084 -1.4957 -2.4214 -0.5798
26699SOL    HW284783   6.901   7.381   9.107 -0.6468  1.2869  0.5380
26700SOL     OW84784  11.628   9.970  10.988 -0.1524  0.0569  0.3836
26700SOL    HW184785  11.613   9.876  10.996 -0.0758  0.1031  1.1207
26700SOL    HW284786  11.707   9.978  10.934 -0.6363 -0.2758 -0.3866
26701SOL     OW84787  11.117   2.774   0.230  0.8202  0.3201 -0.6938
26701SOL    HW184788  11.150   2.779   0.319  0.5070  1.0470 -0.6094
26701SOL    HW284789  11.183   2.818   0.177  1.1160 -0.3117 -0.8574
26702SOL     OW84790   6.762   7.570  11.488 -0.5839 -0.4963 -0.1686
26702SOL    HW184791   6.678   7.599  11.525 -0.2540 -0.2104  0.3709
26702SOL    HW284792   6.822   7.572  11.562  0.2653  0.8028 -0.8642
26703SOL     OW84793   9.510   9.408   1.400 -0.1416  0.4010  0.1327
26703SOL    HW184794   9.503   9.498   1.368  1.8353  1.2088  1.7541
26703SOL    HW284795   9.487   9.354   1.324 -0.9998  2.2458 -0.9892
26704SOL     OW84796   6.589  11.434  11.024  0.2389 -0.3435 -0.3328
26704SOL    HW184797   6.599  11.517  10.976 -0.4233  0.6220  1.1144
26704SOL    HW284798   6.495  11.417  11.021 -0.0069  0.3980  1.5933
26705SOL     OW84799  11.761   4.921   4.377 -0.5662  0.3956  0.0178
26705SOL    HW184800  11.822   4.851   4.356 -1.2779  0.1114 -1.2173
26705SOL    HW284801  11.754   4.920   4.473  0.0175 -0.7074  0.0627
26706SOL     OW84802   3.268  10.511   3.000  0.0537  0.0347 -0.3101
26706SOL    HW184803   3.329  10.447   3.038 -0.6910 -0.8503 -0.5556
26706SOL    HW284804   3.323  10.570   2.949  0.5485 -1.8241 -2.0350
26707SOL     OW84805   5.344   3.826   3.770  0.2529 -0.2405 -0.2967
26707SOL    HW184806   5.400   3.903   3.781  0.2996 -0.0714 -1.5357
26707SOL    HW284807   5.264   3.847   3.818  0.4532  0.3805 -0.2292
26708SOL     OW84808   7.976  11.707   8.351  0.0804  0.7555  0.1202
26708SOL    HW184809   7.971  11.770   8.279 -0.7477  1.1672  0.5224
26708SOL    HW284810   7.904  11.645   8.333  0.5522  0.2293  0.0156
26709SOL     OW84811   4.850   5.545   3.100  0.8033  0.3668 -0.1682
26709SOL    HW184812   4.870   5.637   3.083  0.1710  0.5353 -0.0346
26709SOL    HW284813   4.885   5.498   3.024  2.1232  0.5820  0.2864
26710SOL     OW84814   1.181   1.176   4.461 -0.0024 -0.2840  0.0114
26710SOL    HW184815   1.205   1.199   4.550 -0.0619  1.1914 -0.3385
26710SOL    HW284816   1.131   1.251   4.428  0.6160 -0.4804 -1.4901
26711SOL     OW84817   9.058   5.334   4.282  0.0178  0.4705  0.1823
26711SOL    HW184818   9.098   5.395   4.344  1.0299  1.3862 -1.3076
26711SOL    HW284819   9.130   5.278   4.252 -0.6085 -0.4685  0.3966
26712SOL     OW84820  11.323   2.242   1.624  0.0496  0.0415  0.2556
26712SOL    HW184821  11.329   2.296   1.702 -0.0974  0.3731  0.0381
26712SOL    HW284822  11.412   2.210   1.609  0.4359  1.3644 -0.4223
26713SOL     OW84823  11.250  11.145   8.533  0.1091  0.4097 -0.1794
26713SOL    HW184824  11.162  11.181   8.545  0.4135  1.5305 -1.1879
26713SOL    HW284825  11.271  11.105   8.618 -0.8546  1.2689  0.4827
26714SOL     OW84826   5.795   5.267   0.456 -0.0934 -0.1185 -0.0327
26714SOL    HW184827   5.860   5.337   0.461  1.9546 -1.7620 -1.8915
26714SOL    HW284828   5.778   5.243   0.547  3.0770 -0.6129  0.5202
26715SOL     OW84829   3.047   0.014  10.243 -0.1209  0.2118 -0.3256
26715SOL    HW184830   3.057   0.110  10.241  0.2620  0.1967  0.3780
26715SOL    HW284831   3.003  -0.003  10.326 -0.5669 -0.1997 -0.6433
26716SOL     OW84832   2.215   0.569   8.459 -0.5561  0.4831 -0.1537
26716SOL    HW184833   2.136   0.623   8.449 -0.5716  0.2673 -1.4190
26716SOL    HW284834   2.194   0.488   8.413  1.1373  1.2390 -2.4350
26717SOL     OW84835   7.398  10.301  11.585 -0.2253 -0.6626 -0.0902
26717SOL    HW184836   7.323  10.314  11.643  0.3717 -1.1085  0.8250
26717SOL    HW284837   7.361  10.295  11.497 -1.1324  0.3538  0.2041
26718SOL     OW84838   1.326   6.316   0.474  0.3988  0.0292  0.3486
26718SOL    HW184839   1.295   6.391   0.424  0.0811 -0.5653 -0.3649
26718SOL    HW284840   1.390   6.353   0.535  1.3251  0.6885 -0.9545
26719SOL     OW84841  11.857  11.665   6.905  0.0612 -0.7548 -0.3836
26719SOL    HW184842  11.808  11.664   6.822  1.4100  0.5588 -1.2446
26719SOL    HW284843  11.887  11.755   6.914 -1.3366 -0.4401  2.3630
26720SOL     OW84844  10.008   8.804  11.534  0.3021 -0.0097 -0.1784
26720SOL    HW184845  10.015   8.732  11.471 -0.6232 -1.3580  1.1991
26720SOL    HW284846  10.099   8.829  11.551  0.5972  1.4110 -3.0631
26721SOL     OW84847   7.693   3.158   9.093 -0.2039 -0.0827  0.0998
26721SOL    HW184848   7.697   3.194   9.182  0.1033 -0.1712  0.1216
26721SOL    HW284849   7.649   3.074   9.104 -0.3080 -0.0232  0.1454
26722SOL     OW84850   9.669   0.490   2.465  0.6250 -0.0972 -0.0348
26722SOL    HW184851   9.629   0.407   2.438 -0.3810  0.7423 -1.1847
26722SOL    HW284852   9.763   0.470   2.470  0.8058 -0.5774 -3.3573
26723SOL     OW84853  10.273   4.232   0.267  0.4732 -0.3851  0.3032
26723SOL    HW184854  10.211   4.249   0.196 -0.0648 -1.9704  0.3354
26723SOL    HW284855  10.346   4.188   0.224  0.3393 -0.9605  0.6454
26724SOL     OW84856   8.651  11.088   7.108  0.0617 -0.2713 -0.3186
26724SOL    HW184857   8.746  11.091   7.125 -0.3485  1.9768  2.3406
26724SOL    HW284858   8.617  11.033   7.178 -0.9404  2.7825  1.8150
26725SOL     OW84859   9.810   6.890   3.616 -0.2276  0.6648  0.0311
26725SOL    HW184860   9.726   6.926   3.587 -0.1432  0.8764  0.0456
26725SOL    HW284861   9.788   6.808   3.660 -0.6128  1.5618  1.5944
26726SOL     OW84862  11.451   9.022   9.872  0.1031 -0.1319  0.5368
26726SOL    HW184863  11.510   9.086   9.911 -0.8140  1.4235 -0.4834
26726SOL    HW284864  11.457   8.945   9.928  0.1429  1.3758  2.7086
26727SOL     OW84865   6.698   8.442   3.831  0.1386 -0.1646 -0.2822
26727SOL    HW184866   6.671   8.403   3.748  0.6627  0.9330 -0.9984
26727SOL    HW284867   6.793   8.447   3.825  0.2238 -0.5487  0.6173
26728SOL     OW84868   9.118   6.479   8.974 -0.1580  0.4910 -0.0637
26728SOL    HW184869   9.105   6.478   9.069 -0.0777  1.7956 -0.0212
26728SOL    HW284870   9.187   6.414   8.958 -1.6937 -1.3611  0.4913
26729SOL     OW84871   6.668   2.850  11.478 -0.0976  0.6966  0.0379
26729SOL    HW184872   6.695   2.916  11.415  0.5541  0.2613 -0.1423
26729SOL    HW284873   6.719   2.773  11.455 -0.1758  0.4070  0.8306
26730SOL     OW84874   4.534   5.303   2.099 -0.1729 -0.0995 -0.2383
26730SOL    HW184875   4.603   5.242   2.126 -0.5487 -0.4241  0.0123
26730SOL    HW284876   4.470   5.299   2.170 -0.7526 -0.2892 -0.7589
26731SOL     OW84877   3.275   3.788   5.753 -0.0882 -0.6760  0.7546
26731SOL    HW184878   3.212   3.738   5.702  0.5007 -1.2759  0.6013
26731SOL    HW284879   3.249   3.879   5.742 -1.2345 -0.9493  1.1149
26732SOL     OW84880   4.504   9.934   3.968 -0.5950  0.4351  0.6897
26732SOL    HW184881   4.556   9.959   3.891 -0.4870  1.4891  1.0859
26732SOL    HW284882   4.425   9.893   3.931 -0.2786  0.4000  0.0360
26733SOL     OW84883   7.292   5.331   5.483  0.1149  0.2543  0.4857
26733SOL    HW184884   7.352   5.308   5.412  0.5172  2.5930 -0.0172
26733SOL    HW284885   7.208   5.294   5.457  0.7252 -0.7501 -0.1310
26734SOL     OW84886   3.658   9.177   8.168 -0.2162  0.1754  0.7254
26734SOL    HW184887   3.659   9.173   8.072  0.1611  0.5174  0.7130
26734SOL    HW284888   3.607   9.256   8.187 -1.5029 -0.6417  0.8404
26735SOL     OW84889   7.646   3.700   3.361 -0.5924  0.2081 -0.2730
26735SOL    HW184890   7.645   3.774   3.422 -0.3318  0.7364 -0.8972
26735SOL    HW284891   7.733   3.661   3.372 -1.7478 -1.9202  2.2768
26736SOL     OW84892   9.612   2.746   4.465 -0.1650  0.1014 -0.6931
26736SOL    HW184893   9.594   2.772   4.555  0.9983  1.6253 -0.8576
26736SOL    HW284894   9.530   2.710   4.433 -0.6962 -0.1139  0.8523
26737SOL     OW84895  11.447   6.853   9.385  0.3045 -0.6458  0.1941
26737SOL    HW184896  11.412   6.886   9.302  1.3929  0.1353  0.0214
26737SOL    HW284897  11.372   6.852   9.444 -0.1400  0.3982 -0.3300
26738SOL     OW84898   0.717   8.702   0.739 -0.5112  0.1382  0.2025
26738SOL    HW184899   0.724   8.680   0.646 -0.1628  0.2358  0.2045
26738SOL    HW284900   0.778   8.775   0.751  0.3894 -0.6789  0.7675
26739SOL     OW84901  11.973   5.843  10.339  0.0974 -0.6341 -0.5958
26739SOL    HW184902  12.012   5.783  10.403  1.0301  0.4329 -0.1140
26739SOL    HW284903  11.900   5.884  10.386 -0.1593 -0.9492 -0.7201
26740SOL     OW84904   2.930   8.302  10.498  0.1980  0.2931  0.3086
26740SOL    HW184905   2.960   8.229  10.553  1.1810  0.5706  0.1425
26740SOL    HW284906   2.847   8.270  10.461  0.5566 -0.6959  0.3197
26741SOL     OW84907   6.426   3.699   4.518  0.4738  0.3500  0.1120
26741SOL    HW184908   6.457   3.658   4.599  1.3125 -1.2769 -0.9875
26741SOL    HW284909   6.488   3.770   4.501  1.5157 -0.5981 -0.1537
26742SOL     OW84910  10.200  11.010   5.448 -0.2586 -0.4346 -0.0216
26742SOL    HW184911  10.166  11.057   5.372 -1.1183  0.6625  1.0049
26742SOL    HW284912  10.249  11.077   5.497  1.1861 -1.3694 -0.1146
26743SOL     OW84913   8.475   8.309  11.697 -0.9625 -0.6388 -0.0152
26743SOL    HW184914   8.424   8.266  11.629 -2.5100  1.6008 -0.3729
26743SOL    HW284915   8.549   8.349  11.651 -1.5286  0.1292 -0.2779
26744SOL     OW84916   2.302   5.066   3.648 -0.2701 -0.1335 -0.5278
26744SOL    HW184917   2.223   5.013   3.647  0.3116 -1.0151 -0.4941
26744SOL    HW284918   2.345   5.048   3.564 -0.1642  0.4455 -0.6063
26745SOL     OW84919   6.446  10.695   3.180  0.4224  0.3208 -0.0492
26745SOL    HW184920   6.492  10.771   3.144  1.4925 -0.2767  0.0347
26745SOL    HW284921   6.492  10.675   3.261 -0.2968  0.0039  0.2878
26746SOL     OW84922   0.468   5.691   2.848 -0.5446  0.5532  0.1931
26746SOL    HW184923   0.546   5.728   2.890  1.5661 -0.2293 -2.7095
26746SOL    HW284924   0.445   5.616   2.902  0.7851  0.7339  1.0550
26747SOL     OW84925   3.229   4.911   4.371 -0.4614 -0.3742  0.6525
26747SOL    HW184926   3.243   4.818   4.353 -0.9094 -0.5876  1.3581
26747SOL    HW284927   3.151   4.934   4.320  0.1101 -0.1720 -0.1566
26748SOL     OW84928   0.047   8.888   4.644  0.1926 -0.1067  0.0518
26748SOL    HW184929   0.049   8.848   4.557  0.0657 -0.5339  0.2411
26748SOL    HW284930   0.111   8.837   4.694  1.6802  1.3417 -0.2949
26749SOL     OW84931   7.105  11.555   6.517 -0.3007  0.1041 -0.0445
26749SOL    HW184932   7.126  11.517   6.602 -1.2712  1.3994  0.8123
26749SOL    HW284933   7.094  11.479   6.459 -0.2595 -0.8214  1.1264
26750SOL     OW84934   6.646   2.803   0.182  0.3154  0.0832 -0.0289
26750SOL    HW184935   6.681   2.855   0.109 -3.3421  1.0641 -1.2956
26750SOL    HW284936   6.566   2.764   0.147 -2.2418  1.4347  3.6919
26751SOL     OW84937   7.072   3.208   6.892 -0.5329 -0.0480 -0.5499
26751SOL    HW184938   6.985   3.243   6.908 -0.4403 -0.0538 -0.0128
26751SOL    HW284939   7.111   3.200   6.979 -0.1974 -0.5690 -0.7434
26752SOL     OW84940   7.820   2.346   9.448 -0.2080 -0.0161 -0.0170
26752SOL    HW184941   7.877   2.336   9.372  0.8753 -0.2407  0.8068
26752SOL    HW284942   7.841   2.271   9.504 -1.1591  0.0142  0.4078
26753SOL     OW84943   4.386   0.950   8.061 -0.0941  0.5349 -0.1009
26753SOL    HW184944   4.410   0.864   8.094 -0.0549  0.6768  0.2383
26753SOL    HW284945   4.352   0.933   7.973 -0.5816  0.1146  0.1638
26754SOL     OW84946   9.966   2.317  10.443 -0.6032  0.3958 -0.0550
26754SOL    HW184947   9.995   2.406  10.422  0.0369  0.1562 -0.1897
26754SOL    HW284948  10.031   2.284  10.505 -1.8914  0.7080  1.5168
26755SOL     OW84949   1.078   5.849   9.554 -0.1231  0.0542 -0.9724
26755SOL    HW184950   1.078   5.854   9.458 -0.1379 -1.2035 -1.0526
26755SOL    HW284951   1.169   5.833   9.577  0.0690  1.4091 -0.6861
26756SOL     OW84952   4.545   7.625   9.011 -0.2035  0.2594 -0.4841
26756SOL    HW184953   4.491   7.546   9.004  0.9037 -0.5174 -0.5262
26756SOL    HW284954   4.501   7.689   8.955 -0.9429 -0.4281 -0.7092
26757SOL     OW84955   9.442   4.791  11.632  0.0959 -0.0369 -0.1983
26757SOL    HW184956   9.469   4.824  11.718 -3.5148 -0.3175  1.1956
26757SOL    HW284957   9.440   4.868  11.577 -0.0374  0.6084  0.6859
26758SOL     OW84958   4.051   1.711   8.291  0.5386 -0.5107  0.7255
26758SOL    HW184959   4.080   1.679   8.376 -0.0142  0.1531  1.1653
26758SOL    HW284960   3.956   1.709   8.295  0.5077 -0.5216  0.1005
26759SOL     OW84961   2.480   8.286   2.513 -0.5163 -0.0467 -0.3135
26759SOL    HW184962   2.386   8.299   2.527 -1.1238 -1.5338 -2.5350
26759SOL    HW284963   2.503   8.351   2.446  0.0764  0.3907  0.3061
26760SOL     OW84964   0.496   1.286   7.711  0.5640  0.3711  0.5758
26760SOL    HW184965   0.407   1.320   7.707 -0.1705 -1.4075  0.8039
26760SOL    HW284966   0.551   1.360   7.687 -0.9559  1.5623  0.6068
26761SOL     OW84967  10.914   6.430  11.848 -0.2103 -0.2701  0.4149
26761SOL    HW184968  10.911   6.334  11.847 -1.5571 -0.2454 -0.7462
26761SOL    HW284969  10.900   6.453  11.940 -0.9366 -1.1730  0.5453
26762SOL     OW84970   9.529   3.677   0.449 -0.5000 -0.5387 -0.0519
26762SOL    HW184971   9.518   3.623   0.528 -0.1565  0.7178  0.8875
26762SOL    HW284972   9.623   3.698   0.448 -0.5257 -0.4539 -0.7347
26763SOL     OW84973   5.648   5.045  10.952  0.2863  0.0627  0.0523
26763SOL    HW184974   5.683   4.956  10.948 -0.1543 -0.1204  0.1920
26763SOL    HW284975   5.714   5.099  10.907  0.5135 -0.3457 -0.1123
26764SOL     OW84976   8.896   7.863   2.696  0.0890  0.5177  0.5585
26764SOL    HW184977   8.958   7.832   2.762 -1.2671  0.0261  1.6484
26764SOL    HW284978   8.839   7.788   2.680 -2.0542  1.7651  1.8199
26765SOL     OW84979   2.876   7.388   2.362 -0.1434  0.7107 -0.1500
26765SOL    HW184980   2.811   7.319   2.377 -1.0381  1.5596 -0.0558
26765SOL    HW284981   2.952   7.360   2.412 -0.8287  0.2628  0.6633
26766SOL     OW84982   5.301   5.958   2.157  0.7471  0.1126 -0.3119
26766SOL    HW184983   5.345   5.874   2.145 -0.6419 -0.7693  0.6323
26766SOL    HW284984   5.345   6.016   2.095  2.0921 -1.1551 -0.6010
26767SOL     OW84985   6.471   0.015  11.697  0.4096 -0.0755 -0.2752
26767SOL    HW184986   6.390  -0.017  11.737  0.0059  0.7225 -0.4290
26767SOL    HW284987   6.469   0.109  11.714  1.0486  0.0233 -0.7455
26768SOL     OW84988   5.426   3.751   6.036  0.4111 -0.2210 -0.0580
26768SOL    HW184989   5.385   3.753   5.950  0.0643 -1.6586  0.0425
26768SOL    HW284990   5.440   3.658   6.054 -0.2481 -0.0179  1.7698
26769SOL     OW84991   0.078  10.334   7.375 -0.0722 -0.3077 -0.0368
26769SOL    HW184992   0.049  10.280   7.448  1.7018 -2.0289 -0.5288
26769SOL    HW284993   0.136  10.277   7.324  0.6347  1.5813 -1.4649
26770SOL     OW84994   5.769   5.483   5.284 -0.2404  0.0857 -0.7728
26770SOL    HW184995   5.800   5.427   5.355  2.1586  3.8198  1.4764
26770SOL    HW284996   5.710   5.545   5.326  2.4075  3.3835 -1.4169
26771SOL     OW84997   2.972   1.999  11.579 -0.5546  0.4892 -0.6350
26771SOL    HW184998   3.035   2.061  11.542  0.2912 -0.2737 -0.5252
26771SOL    HW284999   2.909   2.054  11.626  1.2844  1.1873  1.1553
26772SOL     OW85000   7.725   6.553   0.305  0.0846 -0.3901 -0.4549
26772SOL    HW185001   7.693   6.505   0.229 -0.6228  1.4516 -1.3912
26772SOL    HW285002   7.809   6.589   0.277 -1.2676  2.3316 -1.3565
26773SOL     OW85003   0.333   2.246   7.294 -0.2646 -0.2999 -0.2060
26773SOL    HW185004   0.424   2.225   7.318  0.3475  1.2496 -1.0411
26773SOL    HW285005   0.305   2.310   7.359 -0.3064  0.2098 -0.7237
26774SOL     OW85006   8.626   5.833   5.864 -0.2723 -0.0136  0.1513
26774SOL    HW185007   8.591   5.756   5.909 -1.6778  0.7342  0.3846
26774SOL    HW285008   8.703   5.857   5.916 -0.3783 -0.6848  0.6384
26775SOL     OW85009   2.895   9.296   6.341  0.3084  0.2720 -0.2792
26775SOL    HW185010   2.873   9.205   6.359  1.1556 -0.1073 -1.0459
26775SOL    HW285011   2.867   9.344   6.419 -2.1321 -0.3010 -0.7024
26776SOL     OW85012   4.395   6.450   1.329  0.1262  0.0555  0.1152
26776SOL    HW185013   4.400   6.358   1.302  1.2302  0.5518 -1.5004
26776SOL    HW285014   4.474   6.464   1.380  0.0396  0.1585  0.2213
26777SOL     OW85015   9.776   2.555  10.727  0.3737 -0.4171 -0.1496
26777SOL    HW185016   9.813   2.618  10.789 -1.6386 -0.3418  1.0909
26777SOL    HW285017   9.784   2.471  10.771  1.1958 -0.7557 -0.9162
26778SOL     OW85018   5.277   5.956   9.388 -0.3578  0.2288  0.0087
26778SOL    HW185019   5.192   6.001   9.382  0.2280  1.3620 -0.1449
26778SOL    HW285020   5.323   6.003   9.457  0.9641  1.0795 -1.3811
26779SOL     OW85021   0.627   8.401   3.611  0.1210 -0.5188  0.3747
26779SOL    HW185022   0.589   8.465   3.552  0.9448  0.0126  0.4056
26779SOL    HW285023   0.554   8.373   3.667 -0.8531 -1.6163 -1.3577
26780SOL     OW85024   4.856   4.883   4.402 -0.1581 -0.6147  0.0135
26780SOL    HW185025   4.889   4.972   4.411 -1.3882 -0.2047  0.7550
26780SOL    HW285026   4.917   4.841   4.341  2.0180 -0.0837  1.7044
26781SOL     OW85027   1.389  10.270   4.883  0.6272 -0.4490  0.5248
26781SOL    HW185028   1.482  10.272   4.861  0.2838  0.7521 -0.9845
26781SOL    HW285029   1.355  10.194   4.836 -0.0753  2.0124 -3.4792
26782SOL     OW85030   3.140   3.829   6.532 -0.0772 -0.0903  0.2374
26782SOL    HW185031   3.063   3.795   6.579  1.1805 -0.9227  1.8043
26782SOL    HW285032   3.174   3.898   6.590  0.8093 -0.2978 -0.0237
26783SOL     OW85033  10.640   6.267   5.417  0.1836  0.2612  0.5794
26783SOL    HW185034  10.583   6.205   5.371  0.9233  0.3571 -0.5177
26783SOL    HW285035  10.586   6.345   5.430 -0.4590 -0.2653  1.1027
26784SOL     OW85036   0.756  10.346   9.570 -0.3215 -0.5967  0.1215
26784SOL    HW185037   0.723  10.318   9.656 -0.1804  0.5093  0.5457
26784SOL    HW285038   0.802  10.269   9.536 -0.1221 -0.9555  1.1705
26785SOL     OW85039   8.897   2.518   6.362  0.0441  0.3599 -0.0258
26785SOL    HW185040   8.872   2.610   6.362 -0.4743  0.2281 -0.5059
26785SOL    HW285041   8.869   2.486   6.276  2.4965  0.3539 -0.8968
26786SOL     OW85042   3.653   6.750   9.399 -0.6873  0.2949  0.1396
26786SOL    HW185043   3.571   6.800   9.393  1.0222  3.2293 -0.5751
26786SOL    HW285044   3.654   6.717   9.489 -2.8779 -0.3488 -0.0027
26787SOL     OW85045   8.056   0.458   1.583 -0.5840  0.4396  0.2810
26787SOL    HW185046   8.031   0.424   1.497 -0.2911  0.6832  0.0976
26787SOL    HW285047   8.103   0.539   1.564  1.0231 -0.3985  0.5708
26788SOL     OW85048   7.618   3.340   5.200 -0.2593 -0.3087  0.6304
26788SOL    HW185049   7.591   3.419   5.152  0.7079  0.9648  2.0848
26788SOL    HW285050   7.536   3.299   5.227 -0.7847  0.8225  0.8144
26789SOL     OW85051   8.715   6.616   4.987 -0.1058 -0.3099 -0.5576
26789SOL    HW185052   8.679   6.701   4.961 -0.9981 -0.0090  1.4617
26789SOL    HW285053   8.641   6.570   5.027  0.8963 -1.1291  0.4031
26790SOL     OW85054  10.178   6.094  10.304 -0.4421 -0.5631  0.2647
26790SOL    HW185055  10.141   6.079  10.217  0.2824 -0.0384 -0.1437
26790SOL    HW285056  10.245   6.162  10.290 -0.3582 -0.4362  1.2383
26791SOL     OW85057   4.903   3.186   8.718  0.5907  0.2333 -0.4170
26791SOL    HW185058   4.900   3.205   8.812 -2.4031 -1.8079  0.0214
26791SOL    HW285059   4.939   3.098   8.713 -3.1097 -1.4186 -0.6876
26792SOL     OW85060  11.791   9.679  10.834  0.3253  0.4189  0.2825
26792SOL    HW185061  11.863   9.625  10.865 -0.8038 -0.1374  2.1057
26792SOL    HW285062  11.783   9.658  10.741  2.7435  0.8310 -0.0926
26793SOL     OW85063   7.706   7.322   9.248 -0.0976 -0.1705 -0.0631
26793SOL    HW185064   7.648   7.292   9.318  0.6989 -0.3670  0.5197
26793SOL    HW285065   7.774   7.371   9.293  3.2974 -4.3732  0.0160
26794SOL     OW85066   4.752   3.113   7.476  0.0246 -0.0935  0.5664
26794SOL    HW185067   4.682   3.064   7.519 -0.3225  0.7467  0.9807
26794SOL    HW285068   4.805   3.146   7.549 -0.7595  1.6355  0.3937
26795SOL     OW85069  10.761   2.587   5.039 -0.3910  0.4366  0.0286
26795SOL    HW185070  10.730   2.606   5.127 -1.0620 -0.9683  0.1198
26795SOL    HW285071  10.816   2.509   5.049  2.5689  2.3356 -0.2656
26796SOL     OW85072   4.990  11.595   0.808  0.0054  0.2213 -0.4826
26796SOL    HW185073   4.932  11.582   0.733  0.6501 -0.9523 -0.8101
26796SOL    HW285074   5.078  11.587   0.771  0.3400  0.2069  0.2989
26797SOL     OW85075   7.503   8.956  10.997  0.5653 -0.0257 -0.1856
26797SOL    HW185076   7.464   9.008  11.067 -0.4352 -0.0388 -0.7230
26797SOL    HW285077   7.497   9.013  10.919  0.8571 -0.3605 -0.4569
26798SOL     OW85078  11.278   1.602   6.982  0.1418 -0.1228  0.1196
26798SOL    HW185079  11.244   1.689   6.964 -2.0283 -0.4391  2.1951
26798SOL    HW285080  11.301   1.604   7.075  0.1711 -1.7205  0.1714
26799SOL     OW85081   4.189   9.439   4.080  0.3418  0.1021 -0.0468
26799SOL    HW185082   4.198   9.469   4.171  1.5201  0.7864 -0.3669
26799SOL    HW285083   4.100   9.463   4.056  0.3409  0.8226  0.6160
26800SOL     OW85084   7.829   5.728  10.220 -0.2735  0.0384  0.5035
26800SOL    HW185085   7.918   5.764  10.219 -0.8166  1.4765 -0.8246
26800SOL    HW285086   7.822   5.683  10.304  1.9183 -0.6931  0.3647
26801SOL     OW85087   1.060   6.647   6.284 -0.4890 -0.0469 -0.7671
26801SOL    HW185088   0.993   6.651   6.353 -0.1060  0.1363 -0.3983
26801SOL    HW285089   1.076   6.738   6.261 -0.0198 -0.0574 -0.5042
26802SOL     OW85090   5.870   5.310   3.019 -0.6756 -0.4177  0.4438
26802SOL    HW185091   5.838   5.220   3.019 -0.0832 -0.6984 -1.6791
26802SOL    HW285092   5.961   5.303   2.988 -0.7389  0.9356 -0.1202
26803SOL     OW85093   3.694   6.387   7.461 -0.2232 -0.2476  0.4701
26803SOL    HW185094   3.704   6.423   7.373  0.5649 -0.9227  0.2732
26803SOL    HW285095   3.601   6.363   7.467 -0.0472 -1.2564 -0.6022
26804SOL     OW85096  11.016   4.897   8.729  0.3266  0.3241  0.5553
26804SOL    HW185097  11.089   4.836   8.736  0.3528  0.0433 -1.5888
26804SOL    HW285098  10.985   4.888   8.639 -2.0005  0.8470  1.2198
26805SOL     OW85099   5.501   1.011   6.197  0.0392  0.5210  0.4925
26805SOL    HW185100   5.538   1.088   6.240 -2.9725  2.4928 -0.1549
26805SOL    HW285101   5.488   0.948   6.268  1.7981  0.8826  1.1781
26806SOL     OW85102   5.232   7.846   5.906  0.4705 -0.1543  0.0722
26806SOL    HW185103   5.197   7.857   5.994 -0.0297 -0.4785 -0.0834
26806SOL    HW285104   5.257   7.935   5.879 -0.2399  0.0795  0.1803
26807SOL     OW85105   9.931   0.499  11.700  0.0074  0.2796 -0.7199
26807SOL    HW185106  10.024   0.487  11.716 -0.4773 -1.0466  1.6071
26807SOL    HW285107   9.910   0.582  11.741 -0.2677 -0.6933  1.2323
26808SOL     OW85108   8.125   5.105  11.953  0.2351 -0.2916 -0.3945
26808SOL    HW185109   8.068   5.177  11.926  0.7125 -0.0367 -0.7480
26808SOL    HW285110   8.213   5.136  11.932  0.4273 -1.0746 -0.7700
26809SOL     OW85111   3.095  10.127   1.394  0.4278  0.0570  0.0030
26809SOL    HW185112   3.186  10.100   1.381  0.4004 -0.5269  0.9693
26809SOL    HW285113   3.099  10.223   1.403  0.7740  0.1859 -1.2734
26810SOL     OW85114   3.124   2.799   0.145 -0.0546  0.7464  0.7834
26810SOL    HW185115   3.046   2.767   0.100  0.5300 -1.4889  1.1954
26810SOL    HW285116   3.185   2.821   0.074  0.9786 -3.0416  0.2694
26811SOL     OW85117   0.908   0.078   7.102 -0.1539 -0.0471 -0.1232
26811SOL    HW185118   0.844   0.088   7.172  0.4369 -0.1250  0.4300
26811SOL    HW285119   0.958  -0.001   7.125 -0.9200 -0.9546 -1.4018
26812SOL     OW85120  10.891   6.480   7.320  0.1479 -0.1956 -0.0810
26812SOL    HW185121  10.892   6.561   7.269 -0.1467 -0.6049 -0.7521
26812SOL    HW285122  10.859   6.506   7.406 -0.8971  0.2431 -0.5846
26813SOL     OW85123  11.858   6.430   3.243  0.2694  0.2185 -0.2712
26813SOL    HW185124  11.853   6.413   3.337 -0.7932 -0.5434 -0.4512
26813SOL    HW285125  11.773   6.402   3.208  0.7624  0.1816 -1.5096
26814SOL     OW85126   9.938   2.393   2.280  0.0561 -0.3292 -0.0346
26814SOL    HW185127   9.941   2.299   2.301  1.6525 -0.5190 -0.9485
26814SOL    HW285128   9.855   2.423   2.318  0.3172 -1.7245  1.8216
26815SOL     OW85129   6.936   9.585   8.933 -0.2773 -0.0018  0.2674
26815SOL    HW185130   6.893   9.577   9.018  0.0935  0.7215  0.5229
26815SOL    HW285131   6.978   9.670   8.934  1.0151 -0.6053 -0.0660
26816SOL     OW85132   6.936   7.017  10.913 -0.0942 -0.1924  0.5953
26816SOL    HW185133   6.922   7.069  10.992 -3.9892 -0.2453  0.0998
26816SOL    HW285134   6.948   6.927  10.945 -1.1740 -0.1395  1.1890
26817SOL     OW85135   9.777   4.304   7.976  0.0581 -0.2285  0.1990
26817SOL    HW185136   9.784   4.237   8.043  2.6096 -0.9303 -0.6680
26817SOL    HW285137   9.712   4.269   7.915  0.3509 -1.2809  0.4614
26818SOL     OW85138   4.428   0.974   5.123 -0.0661  0.3658 -0.2924
26818SOL    HW185139   4.491   1.020   5.067 -1.2559  0.2265 -1.8117
26818SOL    HW285140   4.478   0.950   5.201  1.3923  1.4515 -0.8543
26819SOL     OW85141  10.536   6.112   3.581 -0.5381  0.0914  0.3198
26819SOL    HW185142  10.631   6.102   3.583 -0.5656 -0.3769 -0.3844
26819SOL    HW285143  10.521   6.205   3.596  0.0549  0.2562 -0.1053
26820SOL     OW85144   8.795   7.221  11.996 -0.1972 -0.3696 -0.0534
26820SOL    HW185145   8.791   7.290  11.929  0.1433  0.0354  0.3329
26820SOL    HW285146   8.886   7.193  11.996 -0.1520 -0.2365  0.3656
26821SOL     OW85147   4.744   0.245  10.448  0.9995  0.1123 -0.2771
26821SOL    HW185148   4.775   0.277  10.532 -0.2029 -0.5124  0.4383
26821SOL    HW285149   4.696   0.318  10.410  0.3589 -0.0389  0.2276
26822SOL     OW85150  10.182   6.739  11.567  0.0576 -0.1396  0.2484
26822SOL    HW185151  10.185   6.829  11.600 -2.1907  0.1772 -0.2550
26822SOL    HW285152  10.205   6.685  11.643  0.9321  0.8057  0.6860
26823SOL     OW85153   7.503   5.066   5.655 -0.1826 -0.0720  0.1120
26823SOL    HW185154   7.590   5.079   5.617  0.2789 -1.7154  0.5541
26823SOL    HW285155   7.451   5.029   5.584  0.1180 -1.2016  0.4565
26824SOL     OW85156   6.977   1.488   2.086  0.3621 -0.2939 -0.1816
26824SOL    HW185157   7.011   1.575   2.109  1.4580 -0.4311 -1.1665
26824SOL    HW285158   6.883   1.495   2.100  0.5493  0.7398  0.7270
26825SOL     OW85159   5.952   7.943   2.441  0.4721 -0.2254 -0.0812
26825SOL    HW185160   5.894   8.016   2.466  0.7232  0.0638 -0.3319
26825SOL    HW285161   5.996   7.974   2.362  1.2921 -0.2671  0.3498
26826SOL     OW85162   4.842  10.213   5.530 -0.3777 -0.1220 -0.1775
26826SOL    HW185163   4.765  10.168   5.564 -0.3909 -2.4606 -2.8800
26826SOL    HW285164   4.886  10.248   5.607 -1.8054 -2.5650  1.9003
26827SOL     OW85165   2.408   4.343   7.065 -0.0479  0.2447 -0.4247
26827SOL    HW185166   2.425   4.266   7.011 -1.9656 -0.5298  0.0235
26827SOL    HW285167   2.448   4.323   7.149  0.7194  0.3803 -0.7453
26828SOL     OW85168   3.976   9.648   2.981 -0.6971  0.3789  0.7778
26828SOL    HW185169   4.021   9.572   3.019  1.7787  0.6099 -1.3857
26828SOL    HW285170   3.999   9.721   3.038 -0.1982  0.0931  0.9449
26829SOL     OW85171  11.341  11.769  11.829 -0.0916 -0.6502 -0.2823
26829SOL    HW185172  11.298  11.692  11.793 -0.6046 -0.0295 -1.0511
26829SOL    HW285173  11.295  11.843  11.788  1.3499  0.0402 -0.7056
26830SOL     OW85174   7.663   3.956  10.233 -0.0541 -0.5638  0.5319
26830SOL    HW185175   7.608   3.898  10.180 -1.1712 -0.0355  1.0809
26830SOL    HW285176   7.748   3.912  10.235 -1.0672 -2.6451  1.5916
26831SOL     OW85177   1.156   5.281   7.885 -0.1945 -0.1156 -0.3904
26831SOL    HW185178   1.125   5.372   7.886 -1.1015 -0.4025 -1.1737
26831SOL    HW285179   1.086   5.232   7.844  0.7305 -1.0226 -0.9323
26832SOL     OW85180   5.292   5.888   0.665 -0.1204 -0.4855  0.3954
26832SOL    HW185181   5.370   5.918   0.712 -0.7973 -0.3086  1.4323
26832SOL    HW285182   5.246   5.832   0.728 -0.9206 -0.4444 -0.1402
26833SOL     OW85183   0.378   6.454   2.892 -0.1716  0.5257  0.0263
26833SOL    HW185184   0.308   6.392   2.873  0.9653 -1.1374  0.9719
26833SOL    HW285185   0.336   6.540   2.886 -1.9676 -0.3401 -0.6872
26834SOL     OW85186   9.335   6.535   5.868 -0.3407 -0.0313  0.3475
26834SOL    HW185187   9.411   6.518   5.812 -0.2764  1.5153 -0.0852
26834SOL    HW285188   9.365   6.510   5.956 -0.1325 -1.6094 -0.1507
26835SOL     OW85189   1.238  10.123   8.301  0.1164  0.3112  0.1635
26835SOL    HW185190   1.261  10.177   8.226  1.8584  0.2705  0.6226
26835SOL    HW285191   1.145  10.143   8.318 -0.3956  0.0802 -2.1401
26836SOL     OW85192   2.755   8.995   5.431 -0.4712  0.1123 -0.4156
26836SOL    HW185193   2.757   9.064   5.365 -0.6645 -1.2567 -1.9391
26836SOL    HW285194   2.829   8.938   5.408  0.8305  0.7251  1.9196
26837SOL     OW85195  11.200   6.807  11.273  0.3630  0.1969  0.4006
26837SOL    HW185196  11.120   6.853  11.299 -0.9548  0.0468 -2.9317
26837SOL    HW285197  11.176   6.715  11.274  1.0255  0.0208  0.9163
26838SOL     OW85198   3.777   0.433   9.201  0.2447  0.1123  0.4186
26838SOL    HW185199   3.851   0.458   9.256  2.2050 -2.5940 -0.7366
26838SOL    HW285200   3.805   0.454   9.112 -2.3784  3.2789  0.1643
26839SOL     OW85201  10.352   5.848  10.049  0.1765  0.3565  0.0841
26839SOL    HW185202  10.371   5.821  10.139 -2.3395  1.3711  1.0140
26839SOL    HW285203  10.303   5.775  10.012  3.1754 -1.0872 -1.3797
26840SOL     OW85204   9.956   0.784   1.336  0.2558  0.4187  0.3902
26840SOL    HW185205   9.895   0.858   1.339  0.6952  0.7726  0.6287
26840SOL    HW285206   9.926   0.725   1.405 -1.8475 -1.0158 -1.6246
26841SOL     OW85207   9.118   8.716   5.803  0.4018  0.4621 -0.3545
26841SOL    HW185208   9.035   8.723   5.850  1.0375  0.7339  0.7706
26841SOL    HW285209   9.180   8.686   5.869  0.9011 -1.1900 -1.5297
26842SOL     OW85210  10.173  11.295   7.719 -0.2453  0.1480  0.4533
26842SOL    HW185211  10.123  11.220   7.752  0.6039 -1.2936 -1.3503
26842SOL    HW285212  10.146  11.368   7.774 -3.0097 -0.9319  0.6947
26843SOL     OW85213   5.166   2.203   3.398  0.3190 -0.4530 -0.2603
26843SOL    HW185214   5.149   2.113   3.371 -0.2025 -0.4180 -0.0497
26843SOL    HW285215   5.097   2.254   3.356 -0.7322 -0.4374  1.3853
26844SOL     OW85216   4.199   6.831  10.125  0.1303  0.2264 -0.2246
26844SOL    HW185217   4.249   6.787  10.193  0.6531 -1.4453 -1.6293
26844SOL    HW285218   4.190   6.767  10.055 -1.1570  1.5789 -1.3967
26845SOL     OW85219   2.212  11.163   8.779  0.6158  0.5022  0.0477
26845SOL    HW185220   2.200  11.229   8.847  0.2815  1.1110 -0.5867
26845SOL    HW285221   2.167  11.199   8.703  0.3695 -0.4899 -0.2929
26846SOL     OW85222   5.951   8.385   6.190 -0.2926  0.6217  0.7375
26846SOL    HW185223   5.861   8.353   6.202  0.4273 -1.2305  1.4800
26846SOL    HW285224   5.965   8.382   6.095  0.0465 -2.3301  0.7858
26847SOL     OW85225   7.020   5.496   8.735 -0.2132  0.5385  0.2220
26847SOL    HW185226   7.055   5.508   8.647  2.8082  1.2230  1.4211
26847SOL    HW285227   7.050   5.573   8.783 -2.4901  0.5861  1.7160
26848SOL     OW85228   1.324   7.051   0.474 -0.3853 -0.0331 -0.3186
26848SOL    HW185229   1.277   7.031   0.393  1.7088  2.2795 -2.2370
26848SOL    HW285230   1.334   6.966   0.517 -2.5224 -1.1788 -1.9013
26849SOL     OW85231  11.647  10.475   8.355  0.1858 -0.1618  0.9534
26849SOL    HW185232  11.588  10.452   8.283 -0.0819 -0.0772  1.1478
26849SOL    HW285233  11.590  10.501   8.426  0.4715  0.8732  0.8199
26850SOL     OW85234   5.374   3.094   6.173 -0.3267  0.1104 -0.4240
26850SOL    HW185235   5.439   3.038   6.132  1.3302  0.5313  1.4896
26850SOL    HW285236   5.309   3.109   6.105  0.2680 -2.3457 -1.6539
26851SOL     OW85237   2.603   2.254   8.843  0.5073 -0.1865  0.6539
26851SOL    HW185238   2.670   2.196   8.877 -0.7965 -2.1856 -0.0294
26851SOL    HW285239   2.567   2.298   8.920  1.4080 -0.3794  1.1916
26852SOL     OW85240   3.472   7.334  11.731 -0.5061 -0.6361 -0.7697
26852SOL    HW185241   3.416   7.256  11.728 -0.9173 -0.3240 -1.3179
26852SOL    HW285242   3.427   7.398  11.677 -0.8754  0.4501  0.7619
26853SOL     OW85243   4.472   4.306   5.443  0.0392 -0.2425 -0.2433
26853SOL    HW185244   4.377   4.307   5.454  0.0469 -1.0937 -0.0680
26853SOL    HW285245   4.495   4.213   5.440  1.1043 -0.0827  1.6864
26854SOL     OW85246   3.054   2.480  11.379 -0.3189 -0.1804  0.0840
26854SOL    HW185247   3.028   2.488  11.471 -0.0034 -2.0431  0.3841
26854SOL    HW285248   3.148   2.496  11.379 -0.5079  1.0430 -0.1367
26855SOL     OW85249  10.463  10.523   6.078 -0.0437  0.7715 -0.1612
26855SOL    HW185250  10.543  10.554   6.036 -0.6008  0.6759 -1.3177
26855SOL    HW285251  10.458  10.573   6.159  0.5522  1.6603 -0.6557
26856SOL     OW85252   3.138   9.104   0.910 -0.0085 -0.7021  0.4441
26856SOL    HW185253   3.070   9.127   0.847 -0.6828 -3.8598 -0.1414
26856SOL    HW285254   3.220   9.112   0.861 -0.2885 -0.4627  0.0100
26857SOL     OW85255   6.902   8.679  11.223 -0.3834  0.0442  0.1970
26857SOL    HW185256   6.924   8.614  11.156 -0.5284  0.9264 -0.7426
26857SOL    HW285257   6.925   8.763  11.182 -1.4020  0.6739  0.8711
26858SOL     OW85258   9.166   1.040  10.197  0.8572 -0.2251  0.0598
26858SOL    HW185259   9.103   1.045  10.125 -0.8524 -2.6757  1.2814
26858SOL    HW285260   9.124   1.087  10.269  1.4212 -0.0263  0.2711
26859SOL     OW85261   3.516   5.662   2.762 -0.3108 -0.0941  0.1935
26859SOL    HW185262   3.502   5.583   2.814 -0.4767 -0.6039 -0.6204
26859SOL    HW285263   3.429   5.699   2.749 -0.1456  0.7968  1.4337
26860SOL     OW85264   0.495   3.776   7.970 -0.2977  0.3255  0.1197
26860SOL    HW185265   0.474   3.689   8.004 -0.4527  0.2264 -0.2259
26860SOL    HW285266   0.432   3.834   8.012 -1.7688 -0.0599 -1.4288
26861SOL     OW85267   9.070   3.982   5.930  0.7984  0.0048 -0.4035
26861SOL    HW185268   9.142   3.932   5.968  0.9334  1.8773  2.1308
26861SOL    HW285269   9.108   4.028   5.856  2.3103  1.0330  0.9424
26862SOL     OW85270   7.517   5.312   5.095  0.2242  0.3853 -0.3499
26862SOL    HW185271   7.427   5.283   5.111 -0.3701  1.0602 -2.2303
26862SOL    HW285272   7.561   5.298   5.179 -1.5620 -0.1710  0.5630
26863SOL     OW85273  11.995   0.570   9.832  0.0333  0.1048  0.2555
26863SOL    HW185274  11.952   0.604   9.910  1.1392 -0.6796  1.2573
26863SOL    HW285275  12.084   0.605   9.837  0.9015 -1.9956  0.7782
26864SOL     OW85276   7.212   0.576   9.262  0.2068  0.1358  0.5258
26864SOL    HW185277   7.164   0.655   9.234 -0.7173 -1.1239 -1.6869
26864SOL    HW285278   7.283   0.568   9.198  0.1965 -0.9101  0.6363
26865SOL     OW85279   7.431   5.570   4.885 -0.6089 -0.0570  0.3481
26865SOL    HW185280   7.385   5.486   4.879  0.0510 -0.3996  0.0435
26865SOL    HW285281   7.401   5.619   4.809  0.6221 -0.8386 -0.6830
26866SOL     OW85282   4.545  10.773   0.283  0.4898 -0.3359  0.1845
26866SOL    HW185283   4.464  10.822   0.274  1.9117  2.4007  1.1681
26866SOL    HW285284   4.577  10.762   0.194 -0.1748 -0.0155 -0.0957
26867SOL     OW85285   6.384  11.885   9.050 -0.3643  0.1831  0.2266
26867SOL    HW185286   6.377  11.850   8.961  1.9316  1.2469 -0.4271
26867SOL    HW285287   6.328  11.963   9.050 -0.2118  0.2923 -0.3414
26868SOL     OW85288  11.082   7.185  11.212 -0.2018  0.4339  0.5603
26868SOL    HW185289  11.096   7.199  11.306  2.0349  0.3013  0.3058
26868SOL    HW285290  11.147   7.241  11.169  0.4239 -1.2428 -0.8126
26869SOL     OW85291   2.486   0.453   0.559 -0.1122  0.2126 -0.1340
26869SOL    HW185292   2.527   0.528   0.601  0.1064  0.7748 -1.3123
26869SOL    HW285293   2.409   0.434   0.613  1.7899 -1.0789  2.3209
26870SOL     OW85294   4.770   3.183   2.998 -0.3889 -0.7132  0.3584
26870SOL    HW185295   4.680   3.155   3.018 -0.6882 -0.0413 -0.0243
26870SOL    HW285296   4.763   3.277   2.984  0.1614 -0.8468 -0.8969
26871SOL     OW85297   6.303   6.671   8.653  0.1053  0.0514  0.0074
26871SOL    HW185298   6.278   6.751   8.700  3.4231  0.7372  0.8483
26871SOL    HW285299   6.290   6.693   8.560 -2.3881  0.2202  0.3255
26872SOL     OW85300   3.191   6.397  10.108  0.2712 -0.4393  0.5142
26872SOL    HW185301   3.128   6.349  10.054 -2.6039 -0.6054  3.6213
26872SOL    HW285302   3.150   6.482  10.124  0.7124 -0.5626  2.6784
26873SOL     OW85303   7.464   0.694   1.338  0.4256  0.2623 -0.4361
26873SOL    HW185304   7.480   0.775   1.388 -0.0817  0.0030  0.1609
26873SOL    HW285305   7.369   0.695   1.322 -0.0400 -1.4680  1.8164
26874SOL     OW85306   0.868  10.257   6.168 -0.2587 -0.5052 -1.1714
26874SOL    HW185307   0.922  10.249   6.246 -0.3968 -0.4827 -1.0720
26874SOL    HW285308   0.780  10.274   6.202 -0.2914 -0.3425 -1.3348
26875SOL     OW85309   3.813   5.437  10.566  0.3824  0.1815  0.9740
26875SOL    HW185310   3.758   5.370  10.527  1.0758 -0.1941  0.6203
26875SOL    HW285311   3.754   5.488  10.621 -0.5108  0.4053 -0.1643
26876SOL     OW85312   2.154   4.680   8.344 -1.2333  0.1886 -0.4432
26876SOL    HW185313   2.161   4.746   8.414 -0.8295 -0.3849  0.0717
26876SOL    HW285314   2.137   4.730   8.265  0.9524  1.1097 -0.4137
26877SOL     OW85315   9.682  11.436   0.970 -0.2645  0.0016 -0.0493
26877SOL    HW185316   9.703  11.378   0.898  2.0918  0.4550  0.1806
26877SOL    HW285317   9.767  11.474   0.996 -1.3926  1.8071  1.2596
26878SOL     OW85318   1.805   3.268  10.958  0.0057 -0.4071  0.4933
26878SOL    HW185319   1.723   3.247  10.912 -0.7311  0.8051  1.1986
26878SOL    HW285320   1.859   3.312  10.893 -0.4571  0.0064  0.3824
26879SOL     OW85321   2.604   3.517   3.426  0.5068 -0.0221  0.2188
26879SOL    HW185322   2.672   3.531   3.492  0.1234  0.5751  0.5040
26879SOL    HW285323   2.541   3.587   3.442 -0.2680 -0.6713  0.0745
26880SOL     OW85324   9.576   0.911   0.530  0.5793 -0.5511 -0.1746
26880SOL    HW185325   9.641   0.920   0.600  1.6583  0.5451 -1.2687
26880SOL    HW285326   9.573   0.817   0.512 -0.7501 -1.0722  2.2327
26881SOL     OW85327   7.861   0.828   3.046 -0.2126 -0.2181  0.3170
26881SOL    HW185328   7.923   0.886   3.001 -1.3056  1.6743  1.1015
26881SOL    HW285329   7.883   0.740   3.015  1.2201  0.6494 -1.3108
26882SOL     OW85330  11.612  11.683   9.452 -0.1553 -0.3412  0.4996
26882SOL    HW185331  11.526  11.667   9.491 -1.4889  0.3161 -1.9243
26882SOL    HW285332  11.625  11.610   9.391  0.7096 -0.0989  0.3745
26883SOL     OW85333  11.051   7.777   9.712 -0.0409 -0.2265 -0.3252
26883SOL    HW185334  11.129   7.830   9.696  1.1344 -1.2957  1.5283
26883SOL    HW285335  11.041   7.723   9.634 -0.2659  1.4841 -1.5142
26884SOL     OW85336   9.145   6.768   7.374 -0.5631 -0.0587 -0.1855
26884SOL    HW185337   9.167   6.684   7.333 -0.3644 -0.4821  0.7440
26884SOL    HW285338   9.202   6.772   7.451  0.0359  1.3364 -0.6827
26885SOL     OW85339  11.133   8.548   3.674  0.0591  0.4790  0.3281
26885SOL    HW185340  11.076   8.623   3.693 -0.4518  0.3591 -0.6585
26885SOL    HW285341  11.074   8.473   3.669  0.2927  0.3480 -0.6786
26886SOL     OW85342   7.112  10.060  10.476  0.0966 -0.0269  0.0212
26886SOL    HW185343   7.147  10.031  10.392 -2.1827 -0.6163 -0.8064
26886SOL    HW285344   7.165  10.014  10.541  1.7517  0.2565 -1.0485
26887SOL     OW85345   7.720  10.445  11.972 -0.0781 -0.2349  0.4130
26887SOL    HW185346   7.708  10.351  11.984  1.3763 -0.4447  0.3743
26887SOL    HW285347   7.656  10.469  11.905  1.1039 -1.6397 -1.2972
26888SOL     OW85348   7.334   2.195   2.710  0.1266 -0.0989  0.8005
26888SOL    HW185349   7.317   2.222   2.620  1.4232 -0.7858  0.3341
26888SOL    HW285350   7.422   2.228   2.730  0.0159 -0.2904  1.6745
26889SOL     OW85351   4.007   3.262  10.863  0.2911 -0.4005 -0.0132
26889SOL    HW185352   4.059   3.342  10.852 -2.1607  1.0358 -2.4599
26889SOL    HW285353   4.041   3.204  10.794  0.6872 -0.6775  0.4117
26890SOL     OW85354  11.577   8.390   4.720  0.0139 -0.2806  0.1096
26890SOL    HW185355  11.526   8.421   4.795  1.2202  2.2991 -0.0420
26890SOL    HW285356  11.540   8.304   4.700 -3.6247  0.9884  0.6274
26891SOL     OW85357  10.748   2.598   5.306  0.1937  0.7823  0.8538
26891SOL    HW185358  10.800   2.674   5.333  0.2584  1.1282 -0.1891
26891SOL    HW285359  10.789   2.524   5.351  0.4151  1.2994  1.5246
26892SOL     OW85360   2.639   8.715  11.694  0.3978 -0.1918  0.2332
26892SOL    HW185361   2.570   8.655  11.723  0.5150 -1.0542 -1.1978
26892SOL    HW285362   2.706   8.710  11.762  1.1155 -2.9170 -0.5707
26893SOL     OW85363   4.440  10.239   8.827 -0.5723 -0.0896 -0.1706
26893SOL    HW185364   4.384  10.293   8.883  0.7274  0.6997  0.4080
26893SOL    HW285365   4.419  10.269   8.738 -1.4562 -0.2001 -0.0149
26894SOL     OW85366   1.686   9.931   1.053 -0.5833 -0.6839  0.0838
26894SOL    HW185367   1.670   9.961   0.964 -1.3495 -0.2099  0.3745
26894SOL    HW285368   1.763   9.874   1.046 -0.2247 -0.1081 -0.7648
26895SOL     OW85369   9.361  11.046   9.640 -0.2901 -0.6364 -0.2310
26895SOL    HW185370   9.311  10.971   9.607 -0.0211 -0.5118 -0.9246
26895SOL    HW285371   9.294  11.108   9.671 -0.5242 -0.9749 -0.0578
26896SOL     OW85372   9.088   5.964   0.363  0.3339  0.1415  0.2286
26896SOL    HW185373   9.127   6.036   0.413 -0.3838  1.5226 -1.1110
26896SOL    HW285374   9.162   5.912   0.333  1.1387  2.0304 -1.2509
26897SOL     OW85375  11.507   5.498   5.280 -0.7684 -0.2726 -0.4798
26897SOL    HW185376  11.576   5.563   5.271 -1.5348  0.6556  0.0486
26897SOL    HW285377  11.547   5.415   5.252  1.0419 -0.0831  1.2921
26898SOL     OW85378   4.323   4.920  10.387  0.3293  0.1483  0.5271
26898SOL    HW185379   4.293   4.951  10.473 -0.8494  1.0316 -0.1762
26898SOL    HW285380   4.398   4.976  10.366  0.4472  0.1146  0.8509
26899SOL     OW85381   4.278   0.648   0.105 -0.9231 -0.1159  0.2948
26899SOL    HW185382   4.222   0.612   0.175  0.7059 -1.0427  1.1702
26899SOL    HW285383   4.305   0.571   0.055 -1.1643  0.4287 -0.6866
26900SOL     OW85384   6.255   4.984   5.939 -0.0166  0.1540 -0.2835
26900SOL    HW185385   6.328   4.923   5.941 -0.1562 -0.0767 -1.5344
26900SOL    HW285386   6.180   4.933   5.969  0.0299 -0.0722 -0.5408
26901SOL     OW85387   2.170   5.379   4.053  0.5443  0.2030 -0.0941
26901SOL    HW185388   2.149   5.288   4.032  1.4010 -0.0505  0.1208
26901SOL    HW285389   2.239   5.402   3.990 -0.3433  1.0208 -0.7958
26902SOL     OW85390   2.758   3.434   9.389  0.5277  0.3579 -0.1977
26902SOL    HW185391   2.762   3.528   9.409 -0.7404  0.2769  0.5169
26902SOL    HW285392   2.822   3.422   9.319  1.8503  1.4702  0.7477
26903SOL     OW85393  11.482   4.990   1.539  0.4330 -0.9036  0.2133
26903SOL    HW185394  11.543   4.924   1.570 -0.6531 -1.3719  1.4555
26903SOL    HW285395  11.476   5.054   1.611  0.6120 -0.0569 -0.5076
26904SOL     OW85396   0.595   7.199   3.841 -0.1061  0.3324  0.1136
26904SOL    HW185397   0.593   7.125   3.902 -0.1389  1.0782  1.0216
26904SOL    HW285398   0.510   7.195   3.797  0.0488 -0.4052 -0.1396
26905SOL     OW85399   5.701   3.241   7.042 -0.4568  0.6930  0.1813
26905SOL    HW185400   5.650   3.160   7.046 -0.3133  0.6354  1.0214
26905SOL    HW285401   5.637   3.311   7.050 -0.5536  0.6604 -0.2772
26906SOL     OW85402   7.372   2.088  10.442  0.0891 -0.4396 -0.3924
26906SOL    HW185403   7.403   2.016  10.386  0.8884 -0.4743  0.0777
26906SOL    HW285404   7.448   2.145  10.450 -0.0102 -0.4507  0.6770
26907SOL     OW85405  11.222   3.643   2.010 -0.1684  0.1901  0.3682
26907SOL    HW185406  11.153   3.620   2.072  0.2145  1.9702  1.5326
26907SOL    HW285407  11.176   3.667   1.930 -0.7761 -0.4436  0.5174
26908SOL     OW85408   3.234  11.705   2.997 -0.4847 -0.1513  0.0407
26908SOL    HW185409   3.226  11.641   3.067 -0.5174 -1.1169 -0.8286
26908SOL    HW285410   3.144  11.737   2.983 -0.2962  1.0244  1.3045
26909SOL     OW85411   0.314   4.862   9.365 -0.1537  0.5965  0.4028
26909SOL    HW185412   0.313   4.778   9.319 -0.1415  0.5912  0.4118
26909SOL    HW285413   0.360   4.921   9.306 -0.8588  0.8007  0.0351
26910SOL     OW85414  10.847   5.778   6.474 -0.1400 -0.0270 -1.3348
26910SOL    HW185415  10.755   5.787   6.501  0.2183 -1.9359  0.8150
26910SOL    HW285416  10.861   5.683   6.469  2.4335  0.0840  1.3317
26911SOL     OW85417   7.360   1.706   3.149 -0.5231 -0.3683 -0.2275
26911SOL    HW185418   7.448   1.700   3.187 -0.7303  0.5085  0.4136
26911SOL    HW285419   7.303   1.663   3.212 -0.7030  0.0362 -0.1106
26912SOL     OW85420  11.078   4.422   3.735  0.3183 -0.2382  0.7539
26912SOL    HW185421  11.091   4.334   3.699  1.0176  0.8817 -1.9477
26912SOL    HW285422  11.039   4.472   3.664  1.9009  2.2022  1.4716
26913SOL     OW85423   9.242   3.037  11.608  0.2173 -0.0297  0.8253
26913SOL    HW185424   9.282   3.037  11.695  0.2813  0.7171  0.8053
26913SOL    HW285425   9.149   3.048  11.625  0.0636 -1.2244  0.8480
26914SOL     OW85426   8.245   3.077   4.191  0.2843  0.0228  0.4719
26914SOL    HW185427   8.194   3.153   4.165 -2.2467 -1.5004  0.6972
26914SOL    HW285428   8.317   3.074   4.128  0.8445  2.9014  0.8497
26915SOL     OW85429   9.313  11.181   8.533 -0.2229  0.0135  0.1860
26915SOL    HW185430   9.301  11.109   8.472 -0.1018  0.9988 -1.0376
26915SOL    HW285431   9.408  11.184   8.549 -0.2214 -0.0669  0.1930
26916SOL     OW85432   4.644   8.381   5.627  0.2443  0.1825 -0.0837
26916SOL    HW185433   4.626   8.368   5.534 -0.6843 -0.3286  0.1569
26916SOL    HW285434   4.591   8.314   5.671  1.7673 -0.5301  0.7445
26917SOL     OW85435   7.587   3.604   5.425  0.1395  0.0588  0.7880
26917SOL    HW185436   7.629   3.679   5.383 -2.1944  1.9184  1.5383
26917SOL    HW285437   7.562   3.547   5.352  0.9137  0.5713  0.1049
26918SOL     OW85438   0.053  10.334  11.966  0.0809  0.3014  0.1914
26918SOL    HW185439   0.076  10.245  11.995  1.1707 -0.0031 -1.4980
26918SOL    HW285440   0.129  10.363  11.916  0.1992  2.6602  1.6265
26919SOL     OW85441   7.751   7.487   2.936 -0.2983  0.1796  0.3328
26919SOL    HW185442   7.658   7.507   2.949 -0.5691  0.1956 -1.3347
26919SOL    HW285443   7.762   7.488   2.841  1.1617 -0.9832  0.4530
26920SOL     OW85444   4.327  10.670   8.605  0.0339  0.0737  0.0129
26920SOL    HW185445   4.306  10.695   8.695 -0.2195 -0.5457  0.1302
26920SOL    HW285446   4.247  10.630   8.572  0.8546 -2.0149  0.3632
26921SOL     OW85447   1.719   6.753  11.870  0.1259 -0.1609 -0.2438
26921SOL    HW185448   1.773   6.744  11.948  0.7059  1.2570 -0.4434
26921SOL    HW285449   1.743   6.677  11.816  1.3694  0.0276  0.0090
26922SOL     OW85450   1.905   7.167  10.531  0.3033  0.7332 -0.7882
26922SOL    HW185451   1.982   7.185  10.585  1.3723  0.6005 -2.2107
26922SOL    HW285452   1.834   7.217  10.572  0.3039 -1.6435  2.4679
26923SOL     OW85453   5.141   8.744  10.180  0.1673  0.4878  0.2105
26923SOL    HW185454   5.193   8.824  10.190  0.1232  0.5093  0.2722
26923SOL    HW285455   5.053   8.770  10.208 -0.5069  1.1358 -2.2904
26924SOL     OW85456   5.257   4.477   1.045 -0.1007  0.5168  0.6251
26924SOL    HW185457   5.164   4.459   1.032 -0.0121  0.4974 -0.0156
26924SOL    HW285458   5.302   4.399   1.014  0.2707  1.6170 -1.8957
26925SOL     OW85459   7.612   4.693  10.992  0.4726 -0.4656 -0.3025
26925SOL    HW185460   7.550   4.634  10.950  1.1691 -0.1362 -1.8757
26925SOL    HW285461   7.690   4.690  10.936  1.1065  0.7207  0.4644
26926SOL     OW85462   3.575   1.233   8.386 -0.3119  0.4498  0.1295
26926SOL    HW185463   3.558   1.139   8.394  0.9071  0.1479 -0.5148
26926SOL    HW285464   3.666   1.243   8.411 -0.5612  1.5523  0.6637
26927SOL     OW85465   3.406   8.916   9.528 -0.0945 -0.2901 -0.5051
26927SOL    HW185466   3.435   8.923   9.619 -1.3257 -1.0440 -0.0340
26927SOL    HW285467   3.349   8.992   9.515  0.0501 -0.2033 -0.6379
26928SOL     OW85468   3.062   6.017   0.899 -0.1939 -0.5357  0.2613
26928SOL    HW185469   2.974   6.003   0.865 -0.0167 -0.2747 -0.3049
26928SOL    HW285470   3.050   6.023   0.994 -0.7400 -0.8385  0.2141
26929SOL     OW85471  11.562   7.875   6.984 -0.2889 -0.2431  0.0211
26929SOL    HW185472  11.574   7.964   7.019  0.3427 -0.5933  0.7359
26929SOL    HW285473  11.615   7.820   7.041  0.2178 -0.9441 -1.1024
26930SOL     OW85474   3.706   9.853  10.254 -0.5470 -0.1029  0.2061
26930SOL    HW185475   3.795   9.838  10.284 -0.1089  0.2552 -0.8457
26930SOL    HW285476   3.657   9.879  10.332  0.3929  0.1884  0.6999
26931SOL     OW85477   3.195   1.630   6.968  0.0979  0.0590  0.1726
26931SOL    HW185478   3.161   1.719   6.966 -2.9865 -1.0374 -0.8672
26931SOL    HW285479   3.177   1.599   7.057 -0.0051  0.0413  0.1450
26932SOL     OW85480   9.525   1.044  11.207  0.0214  0.0658  0.3535
26932SOL    HW185481   9.612   1.005  11.199  0.3794  0.2951  2.5341
26932SOL    HW285482   9.537   1.119  11.265 -1.7673 -0.3689  1.3756
26933SOL     OW85483  10.580  10.655   0.252 -0.0842 -0.6817  0.0184
26933SOL    HW185484  10.660  10.695   0.216 -0.8100 -0.4193 -1.3640
26933SOL    HW285485  10.609  10.613   0.333  1.1217  0.8467  0.4243
26934SOL     OW85486   1.259  11.988   7.474  0.2650  0.0484  0.0183
26934SOL    HW185487   1.349  12.010   7.497 -0.3087  1.2869  1.1986
26934SOL    HW285488   1.251  12.013   7.382  1.5082 -1.4165 -0.5273
26935SOL     OW85489   7.777  10.117   4.848 -0.2220 -0.2348  0.1505
26935SOL    HW185490   7.827  10.046   4.808  0.7966  0.0321  0.8937
26935SOL    HW285491   7.763  10.180   4.778 -0.6163 -0.8815 -0.3682
26936SOL     OW85492   9.336   5.103   3.609 -0.1675  0.4550 -0.3546
26936SOL    HW185493   9.359   5.012   3.629  1.0023  0.6103 -0.8844
26936SOL    HW285494   9.354   5.151   3.689  2.0326  0.6648 -0.9102
26937SOL     OW85495   2.358  10.883   0.650 -0.3853 -0.1487  0.4033
26937SOL    HW185496   2.329  10.894   0.740  0.2887 -2.7506  1.0212
26937SOL    HW285497   2.453  10.878   0.655 -0.1748  1.7198 -0.7622
26938SOL     OW85498   6.449   7.889   7.847 -0.0651 -0.2859 -0.3732
26938SOL    HW185499   6.537   7.853   7.855  0.5038  1.2907  1.0871
26938SOL    HW285500   6.396   7.836   7.907  0.3033 -0.0823  0.1427
26939SOL     OW85501   7.412   0.537   0.207  0.1745 -0.0177  0.2046
26939SOL    HW185502   7.451   0.625   0.202  0.2306 -0.1024 -0.9481
26939SOL    HW285503   7.323   0.549   0.175 -0.0289 -0.2713  0.6646
26940SOL     OW85504   3.605   4.802   5.052  0.0722 -0.1584 -0.3015
26940SOL    HW185505   3.600   4.889   5.091 -0.3116 -0.0033 -0.6923
26940SOL    HW285506   3.658   4.751   5.113 -1.5981 -0.2910  1.1133
26941SOL     OW85507   2.733   2.382  10.441 -0.4186 -0.0825  0.1097
26941SOL    HW185508   2.654   2.413  10.397 -0.9572  1.4429  2.0216
26941SOL    HW285509   2.733   2.428  10.525  2.3965 -0.2035  0.2575
26942SOL     OW85510   9.966   7.468   7.656  0.3565 -0.1741 -0.5067
26942SOL    HW185511   9.990   7.390   7.605 -1.7395 -0.0370 -1.8096
26942SOL    HW285512   9.936   7.530   7.590 -0.9687  0.5861  0.7795
26943SOL     OW85513   1.346   1.628  11.079  0.3183  0.5025 -0.0797
26943SOL    HW185514   1.413   1.686  11.043 -0.1804  1.2494  0.1730
26943SOL    HW285515   1.270   1.684  11.091 -0.4908 -0.4100 -0.7458
26944SOL     OW85516  10.407   9.683  10.474  0.4562  0.0204 -0.2200
26944SOL    HW185517  10.409   9.730  10.390  1.1212 -1.3848 -1.0196
26944SOL    HW285518  10.454   9.601  10.457 -0.5053 -0.8612  1.1821
26945SOL     OW85519   9.056   6.011  10.284 -0.1130 -0.0668 -0.2676
26945SOL    HW185520   9.019   6.062  10.212  0.7734 -0.1417 -0.7986
26945SOL    HW285521   9.151   6.022  10.274  0.0219  0.0479  0.9874
26946SOL     OW85522   3.683   3.514   8.234  0.1271 -0.1153 -0.2716
26946SOL    HW185523   3.747   3.479   8.171 -0.5361 -1.2375 -0.3274
26946SOL    HW285524   3.630   3.439   8.259 -1.1169  0.7900 -0.1455
26947SOL     OW85525  10.512  11.452  11.462 -0.1612 -0.2888 -0.1374
26947SOL    HW185526  10.569  11.462  11.386 -1.5928  1.1219 -1.0905
26947SOL    HW285527  10.484  11.360  11.459  2.8686 -1.3922  1.0522
26948SOL     OW85528   4.794   9.657   9.764  0.0180 -0.4247  0.2963
26948SOL    HW185529   4.809   9.743   9.802  1.2942  0.5352 -2.1815
26948SOL    HW285530   4.864   9.647   9.699 -1.5762 -2.2489 -1.2445
26949SOL     OW85531   2.816   3.322   8.912  0.3554 -0.1585  0.3138
26949SOL    HW185532   2.776   3.294   8.995 -0.1735  1.2072  0.5496
26949SOL    HW285533   2.869   3.398   8.936 -2.5910  2.5469 -1.0572
26950SOL     OW85534   9.932   4.568  11.245  0.4818  0.7254 -1.1365
26950SOL    HW185535   9.939   4.540  11.154 -2.5273 -0.6276 -1.0530
26950SOL    HW285536   9.963   4.493  11.296  0.0879  0.6475 -1.0107
26951SOL     OW85537   6.885  10.592   1.971 -0.2622  0.2271 -0.1644
26951SOL    HW185538   6.881  10.529   1.899 -2.7574 -1.0610  0.9620
26951SOL    HW285539   6.976  10.592   1.998  0.2269 -1.2017 -1.6698
26952SOL     OW85540   8.494   9.888   5.071  0.4619 -0.4176 -0.1083
26952SOL    HW185541   8.557   9.958   5.053  0.6903 -0.7324 -0.5501
26952SOL    HW285542   8.502   9.873   5.165  2.4871 -1.7869 -0.4458
26953SOL     OW85543  11.180   2.915   1.323  0.2798 -0.0831 -0.5854
26953SOL    HW185544  11.171   2.975   1.249 -2.4573  1.5737  0.9680
26953SOL    HW285545  11.111   2.850   1.309 -0.5446  0.4848  0.6577
26954SOL     OW85546   6.783   7.480   5.008  0.1502 -0.0249 -0.4547
26954SOL    HW185547   6.865   7.483   5.057 -0.4316 -0.7935  0.5909
26954SOL    HW285548   6.752   7.571   5.008  0.8948  0.2402 -0.7051
26955SOL     OW85549   1.605   1.693   7.988 -0.3680 -0.0879 -0.6177
26955SOL    HW185550   1.583   1.762   8.050  2.4662  0.4856 -0.1074
26955SOL    HW285551   1.610   1.738   7.903 -1.3762 -0.2957 -0.8034
26956SOL     OW85552   8.505  10.169   9.188 -0.0505  0.2448  0.2712
26956SOL    HW185553   8.591  10.140   9.220  0.3155 -0.0983 -0.9563
26956SOL    HW285554   8.462  10.205   9.265  1.7391  1.7191  0.6633
26957SOL     OW85555   0.511  10.184   2.174  0.1319 -0.1333  0.4089
26957SOL    HW185556   0.435  10.189   2.116 -0.2408  1.2278  0.9738
26957SOL    HW285557   0.586  10.205   2.118 -0.0477 -0.2738  0.1151
26958SOL     OW85558   4.344  10.452   8.130 -0.1253 -0.6444 -0.0473
26958SOL    HW185559   4.267  10.491   8.091 -1.1479 -1.6748  0.8771
26958SOL    HW285560   4.347  10.487   8.219  1.0807  0.1861 -0.3821
26959SOL     OW85561   0.462   3.093   2.193  0.0953  0.1926  0.2975
26959SOL    HW185562   0.423   3.181   2.187  0.3043  0.3238  0.8525
26959SOL    HW285563   0.397   3.042   2.242  0.0913  0.1056  0.2009
26960SOL     OW85564   0.827   9.405   6.777 -0.0154  0.5938  0.1222
26960SOL    HW185565   0.856   9.318   6.804  0.7398  1.0312  0.7351
26960SOL    HW285566   0.858   9.413   6.687 -0.8564 -0.1058 -0.2480
26961SOL     OW85567   7.001   5.523   4.104 -0.5440  0.0812  0.1461
26961SOL    HW185568   7.000   5.449   4.164 -0.5106 -0.0477 -0.0118
26961SOL    HW285569   7.017   5.599   4.160  1.4125 -0.2318  0.1001
26962SOL     OW85570   8.863   9.817   3.800  0.7480  0.2203  0.4400
26962SOL    HW185571   8.777   9.855   3.815  1.3129  1.2470  1.2864
26962SOL    HW285572   8.914   9.889   3.762  1.1367 -0.4698 -0.3515
26963SOL     OW85573   4.476  10.746  10.372 -0.1298 -0.0323 -0.0466
26963SOL    HW185574   4.397  10.780  10.415 -0.4680 -0.1166 -0.5854
26963SOL    HW285575   4.479  10.654  10.398  0.7054  0.3566  1.2928
26964SOL     OW85576   6.148   6.458   8.617  0.2571 -0.2130 -1.0673
26964SOL    HW185577   6.072   6.498   8.576 -0.6412 -0.9625 -0.1980
26964SOL    HW285578   6.214   6.528   8.619 -0.4148  0.4630 -1.7916
26965SOL     OW85579   2.096   8.693   3.951 -0.5548 -0.5336 -0.0075
26965SOL    HW185580   2.050   8.611   3.972  1.7730 -1.9066  0.0019
26965SOL    HW285581   2.049   8.727   3.874 -2.9367 -0.6643  1.2884
26966SOL     OW85582  10.930  11.305   7.555 -0.0548 -0.0976  0.1524
26966SOL    HW185583  10.843  11.344   7.566 -0.7273 -0.7276 -2.3514
26966SOL    HW285584  10.924  11.221   7.600 -0.6432  0.0117  0.2857
26967SOL     OW85585  11.012   9.246  10.335 -0.5454  0.1573  0.0757
26967SOL    HW185586  10.940   9.271  10.278 -1.8341  0.5305  1.7968
26967SOL    HW285587  10.974   9.186  10.398  1.2787 -1.8104 -0.5896
26968SOL     OW85588   8.368  10.401  11.472 -0.2358 -0.3465 -0.1504
26968SOL    HW185589   8.398  10.321  11.430 -2.6872 -0.6944 -1.4098
26968SOL    HW285590   8.275  10.387  11.489 -0.0617  1.0346  2.5764
26969SOL     OW85591   9.719   8.152   0.097 -0.0186 -0.2474  0.4919
26969SOL    HW185592   9.807   8.181   0.076  0.3750 -0.7787  1.3587
26969SOL    HW285593   9.671   8.233   0.115  0.5660 -0.0151  1.0355
26970SOL     OW85594  10.503   2.880   2.623 -0.4375  0.2080  0.1675
26970SOL    HW185595  10.562   2.805   2.626  0.2296  0.6417 -1.3474
26970SOL    HW285596  10.532   2.931   2.547 -1.5320  1.4569  0.5481
26971SOL     OW85597   0.835  10.900  10.371  0.2592  0.2193 -0.3470
26971SOL    HW185598   0.758  10.886  10.427  1.0825 -0.4493  0.6558
26971SOL    HW285599   0.865  10.812  10.349  0.3034  0.4804 -1.3547
26972SOL     OW85600  11.372   6.478   9.304  0.0573  0.2277  0.0262
26972SOL    HW185601  11.429   6.550   9.277  0.2401  0.5336  1.1919
26972SOL    HW285602  11.352   6.496   9.396 -2.4616  0.5025 -0.4834
26973SOL     OW85603   2.048   5.817   8.613  0.4635 -0.2952  0.1725
26973SOL    HW185604   2.142   5.800   8.604  0.1664 -2.5360  0.7482
26973SOL    HW285605   2.006   5.745   8.567 -0.9541 -0.4438  1.6093
26974SOL     OW85606   0.523   2.686   8.123 -0.0012 -0.3187 -0.3322
26974SOL    HW185607   0.520   2.780   8.106  1.0135  0.0378  1.2650
26974SOL    HW285608   0.482   2.647   8.046 -1.1907  1.4528 -0.6650
26975SOL     OW85609  10.710   2.016   7.039  0.0381  0.1355  0.1171
26975SOL    HW185610  10.730   2.014   6.946 -0.3654 -0.4046  0.0355
26975SOL    HW285611  10.736   1.929   7.071 -0.2184  0.1677  0.4215
26976SOL     OW85612   6.933  10.002  11.368 -0.0170  0.1915 -0.6030
26976SOL    HW185613   6.953  10.084  11.413 -1.3824  0.2843 -0.1246
26976SOL    HW285614   6.957   9.934  11.431 -0.5533  0.2779 -0.3053
26977SOL     OW85615   6.820   2.495   9.469 -0.2179  0.4449 -0.0934
26977SOL    HW185616   6.831   2.586   9.443 -1.8768  0.8866  0.6224
26977SOL    HW285617   6.728   2.488   9.495  0.2432 -1.0552  1.3266
26978SOL     OW85618   2.767   6.473   4.396 -0.3139  0.0384 -0.9302
26978SOL    HW185619   2.740   6.382   4.381 -0.9735  0.2579 -1.0859
26978SOL    HW285620   2.756   6.516   4.312 -0.8388  0.4716 -0.6422
26979SOL     OW85621   9.233   9.664   1.905  0.6894 -0.0604 -0.9068
26979SOL    HW185622   9.154   9.620   1.875  1.7046 -1.0353 -2.3367
26979SOL    HW285623   9.305   9.611   1.868  2.0153  0.5319  0.6898
26980SOL     OW85624   6.014   9.030   1.119 -1.1808  0.0812 -0.5061
26980SOL    HW185625   6.068   8.997   1.048  0.6872  0.2506  0.7641
26980SOL    HW285626   6.065   9.102   1.156 -2.2637  0.2202  0.7860
26981SOL     OW85627   1.513   3.838   3.525 -0.1803  0.2268 -0.3824
26981SOL    HW185628   1.606   3.858   3.525 -0.2072  0.4215 -1.2846
26981SOL    HW285629   1.508   3.748   3.493 -0.3189  0.3465 -0.7036
26982SOL     OW85630   3.273   3.203   6.048 -0.0352 -0.1163  0.4561
26982SOL    HW185631   3.337   3.214   6.118 -2.4804  0.2989  2.7874
26982SOL    HW285632   3.237   3.291   6.034  0.4071 -0.1878 -1.3802
26983SOL     OW85633  10.503   0.451   9.195  0.1565  0.1717 -0.7648
26983SOL    HW185634  10.482   0.392   9.123  0.9978 -0.0551 -0.8421
26983SOL    HW285635  10.592   0.481   9.176 -0.0541  1.0201 -0.4241
26984SOL     OW85636  11.538  10.361   5.551 -0.1609 -0.0768 -0.0251
26984SOL    HW185637  11.446  10.381   5.566 -0.3644  0.1512 -1.3891
26984SOL    HW285638  11.583  10.444   5.561  0.0053 -0.3036  1.2685
26985SOL     OW85639   0.881   0.536   8.932  0.1443 -0.5162 -0.1942
26985SOL    HW185640   0.910   0.461   8.880 -0.4152 -0.6084 -0.3767
26985SOL    HW285641   0.962   0.583   8.953  0.3733 -0.4741 -1.1518
26986SOL     OW85642   0.290   4.971  10.217 -0.0471  0.0745 -0.3757
26986SOL    HW185643   0.206   4.931  10.195  0.4037 -1.5106  0.6253
26986SOL    HW285644   0.281   4.999  10.308  1.4373 -2.9792  0.8539
26987SOL     OW85645  10.492   9.249  10.145 -0.3438 -0.5322  0.0139
26987SOL    HW185646  10.459   9.160  10.144 -2.2195  0.0951 -1.6720
26987SOL    HW285647  10.571   9.246  10.200  0.3535 -3.4483 -0.9822
26988SOL     OW85648  11.018   1.760   0.975  0.7600 -0.0934 -0.2034
26988SOL    HW185649  10.926   1.783   0.977  0.4693 -1.1382 -0.9141
26988SOL    HW285650  11.060   1.822   1.035  0.1578  2.7708 -2.5401
26989SOL     OW85651  11.906  11.114   6.817  0.0626 -0.4900  0.1464
26989SOL    HW185652  11.984  11.167   6.799  0.4410 -0.1952  2.3374
26989SOL    HW285653  11.852  11.169   6.874 -0.8287 -1.4369  0.2488
26990SOL     OW85654   7.265   1.451   0.203 -0.4442  0.5775 -0.2220
26990SOL    HW185655   7.355   1.469   0.178 -0.2430  1.8074  1.2547
26990SOL    HW285656   7.214   1.467   0.123  0.4597  1.5562 -0.6312
26991SOL     OW85657   1.107   9.426   7.077  0.1252 -0.0040  0.2351
26991SOL    HW185658   1.023   9.439   7.033 -0.3077  0.5270  1.1883
26991SOL    HW285659   1.158   9.372   7.016 -1.0066 -0.5862 -0.2264
26992SOL     OW85660   8.743   2.639   1.370 -0.1637  0.0153 -0.6007
26992SOL    HW185661   8.759   2.724   1.411 -0.4187  0.4881 -1.4717
26992SOL    HW285662   8.686   2.658   1.296 -1.5847 -1.1118  0.1360
26993SOL     OW85663   0.270   1.575   2.784 -0.0874 -0.0836 -0.3900
26993SOL    HW185664   0.333   1.506   2.802  0.2375 -0.0270 -1.2314
26993SOL    HW285665   0.209   1.573   2.857 -0.2951 -1.5055 -0.5815
26994SOL     OW85666   6.268   2.737   2.288 -0.6609 -0.2610 -0.0218
26994SOL    HW185667   6.213   2.689   2.226 -1.2673 -1.4759  1.3773
26994SOL    HW285668   6.356   2.702   2.274 -0.5911  0.2452 -0.9065
26995SOL     OW85669   5.704   2.852   5.036  0.0582 -0.0275  0.2160
26995SOL    HW185670   5.658   2.817   5.112  0.6741  0.5100  0.8485
26995SOL    HW285671   5.744   2.933   5.068 -1.1260  1.1423 -1.1211
26996SOL     OW85672   7.966   2.946   8.285  0.6643 -0.0663 -1.3204
26996SOL    HW185673   8.047   2.898   8.301  0.4818 -0.1657 -0.6971
26996SOL    HW285674   7.955   3.001   8.362  0.0912 -0.1152 -1.3648
26997SOL     OW85675   2.751   0.112   2.667  0.2519 -0.3327  0.3586
26997SOL    HW185676   2.753   0.134   2.574  1.2868 -1.6417  0.0366
26997SOL    HW285677   2.770   0.194   2.711  1.9116 -0.1046 -0.6958
26998SOL     OW85678   9.983   5.928   2.709  0.4596 -0.3677 -0.3578
26998SOL    HW185679  10.045   5.878   2.762 -0.1054 -0.0044  0.6771
26998SOL    HW285680   9.922   5.966   2.773 -1.1241 -1.1089 -1.3761
26999SOL     OW85681   5.436   3.630   1.674  0.2163  0.3986 -0.6063
26999SOL    HW185682   5.377   3.589   1.611  0.1013  0.5900 -0.6269
26999SOL    HW285683   5.522   3.592   1.655  0.1577  0.3550 -0.7900
27000SOL     OW85684   5.881   6.544   1.857  0.0351  0.0355 -0.1747
27000SOL    HW185685   5.939   6.552   1.782 -1.0414  1.7410 -0.8969
27000SOL    HW285686   5.799   6.511   1.820 -0.5592  1.0560  0.2020
27001SOL     OW85687   7.997  10.515   0.833 -0.4933 -0.2109 -0.8607
27001SOL    HW185688   7.929  10.582   0.836 -0.6369 -0.3905  0.1509
27001SOL    HW285689   8.074  10.562   0.800 -1.2411 -0.1531 -2.5838
27002SOL     OW85690  10.407   6.264   7.630  0.0426  0.1772 -0.0766
27002SOL    HW185691  10.429   6.176   7.662  2.4513  0.0031 -1.9138
27002SOL    HW285692  10.314   6.273   7.649  0.3007 -1.6465  2.6769
27003SOL     OW85693   0.645   8.455   9.390  0.4050 -0.1376 -0.6967
27003SOL    HW185694   0.566   8.401   9.391 -0.3201  0.8905 -0.4398
27003SOL    HW285695   0.677   8.452   9.481  0.8663 -0.8304 -0.8756
27004SOL     OW85696   4.553   8.081   1.539  0.3602 -0.0479 -0.1734
27004SOL    HW185697   4.616   8.012   1.518  1.4737  0.3794  1.5899
27004SOL    HW285698   4.484   8.036   1.588  0.2162 -0.1916 -0.5025
27005SOL     OW85699  10.501   0.661   6.183 -0.2000 -0.2878  0.8540
27005SOL    HW185700  10.518   0.752   6.208 -0.8694 -0.0605  0.4890
27005SOL    HW285701  10.499   0.662   6.088  2.1874 -1.1295  0.7288
27006SOL     OW85702   3.633   8.625  11.994  0.0565  0.0531  0.2843
27006SOL    HW185703   3.648   8.719  12.000  3.4771 -0.4391  2.3766
27006SOL    HW285704   3.677   8.598  11.914  0.6086  0.0656  0.5751
27007SOL     OW85705   3.392   5.999   8.863  0.4347  0.0518 -0.0837
27007SOL    HW185706   3.417   5.929   8.804  1.9601  0.3661  0.1599
27007SOL    HW285707   3.397   5.960   8.950 -1.9706 -0.4613 -0.0960
27008SOL     OW85708   4.372   2.905   4.026  0.4063  0.3789 -0.1866
27008SOL    HW185709   4.444   2.868   3.975 -0.2735 -1.1611 -0.1115
27008SOL    HW285710   4.303   2.838   4.021  0.4278 -0.0242  3.0167
27009SOL     OW85711   4.954  11.196   8.216 -0.0715 -0.0499 -1.0357
27009SOL    HW185712   4.920  11.285   8.204 -1.3047 -0.4001 -0.2923
27009SOL    HW285713   5.047  11.203   8.193 -0.1473  1.4267 -1.0028
27010SOL     OW85714   9.607  11.996   9.481 -0.0678 -0.6824 -0.0826
27010SOL    HW185715   9.647  11.949   9.554  0.9554 -0.0820 -0.2284
27010SOL    HW285716   9.615  11.935   9.407  1.1159 -0.3705 -0.2378
27011SOL     OW85717   6.363   3.521   6.010 -0.5136  0.2331 -0.1755
27011SOL    HW185718   6.379   3.435   6.050  1.3043  0.1583 -0.9965
27011SOL    HW285719   6.427   3.579   6.051 -0.3086  0.7160 -1.1573
27012SOL     OW85720   7.760   2.292   3.899  0.5709 -0.0512 -0.2001
27012SOL    HW185721   7.721   2.205   3.893  2.5382 -0.9227 -1.0651
27012SOL    HW285722   7.685   2.352   3.901 -0.8094 -1.7348  0.0557
27013SOL     OW85723   1.621  11.402   7.051 -0.0728  0.4087 -0.2469
27013SOL    HW185724   1.579  11.434   6.971  1.3533  0.3207 -1.0695
27013SOL    HW285725   1.597  11.466   7.118  0.3864  1.6471 -1.2152
27014SOL     OW85726   7.571  10.480   5.502 -0.0201 -0.4536 -0.0551
27014SOL    HW185727   7.537  10.554   5.552  3.6907  0.8312  0.9359
27014SOL    HW285728   7.572  10.408   5.565 -2.2614 -1.0006 -0.5855
27015SOL     OW85729   7.940   6.679   1.490 -0.3192  0.2002 -0.0367
27015SOL    HW185730   7.937   6.604   1.550  0.2683 -0.2803 -0.5971
27015SOL    HW285731   7.892   6.748   1.536  0.9162  0.1445  1.4137
27016SOL     OW85732   9.673   9.518  10.311  0.9101 -0.1810  0.4359
27016SOL    HW185733   9.737   9.526  10.240  1.2790 -0.1962  0.7601
27016SOL    HW285734   9.724   9.538  10.390  0.2889  0.7937  0.6085
27017SOL     OW85735   2.878  10.679   4.218 -0.0493  0.5590 -0.5627
27017SOL    HW185736   2.879  10.774   4.228 -2.1049  0.4750  1.1546
27017SOL    HW285737   2.947  10.647   4.276 -0.5735  0.9464  0.2932
27018SOL     OW85738   0.994   0.906   4.012 -0.2081 -0.4960  0.3579
27018SOL    HW185739   1.076   0.935   3.971 -1.4322  0.3350 -1.6235
27018SOL    HW285740   1.018   0.824   4.056  1.5214 -0.7196 -0.8682
27019SOL     OW85741   5.938  10.241   2.336  0.0221 -0.4841  0.0966
27019SOL    HW185742   5.872  10.245   2.405  0.9594  0.9315  0.9715
27019SOL    HW285743   6.000  10.174   2.367  1.7295  1.7805  1.9322
27020SOL     OW85744   6.193   1.410   5.064 -0.4677  0.4340  0.3956
27020SOL    HW185745   6.168   1.411   4.972 -0.3925  1.6278  0.3680
27020SOL    HW285746   6.181   1.501   5.093  1.0209  0.4197  1.1538
27021SOL     OW85747   1.679   6.912   0.613 -0.2472 -0.7859  0.1549
27021SOL    HW185748   1.741   6.845   0.586  0.6568 -0.3105  0.9656
27021SOL    HW285749   1.621   6.868   0.676 -0.6519 -1.1954 -0.4992
27022SOL     OW85750   4.485   0.412   2.310  0.0226 -0.2279  0.3368
27022SOL    HW185751   4.461   0.499   2.278  1.8150  0.3081  0.3412
27022SOL    HW285752   4.438   0.352   2.252 -0.6125  0.7402 -0.1873
27023SOL     OW85753   0.183  11.695  10.573 -0.1316 -0.0689 -0.3034
27023SOL    HW185754   0.208  11.695  10.480 -0.2845 -0.3420 -0.3459
27023SOL    HW285755   0.148  11.607  10.588 -1.6990  0.4933 -0.4263
27024SOL     OW85756   5.584   0.901   3.738  0.0973 -0.2546 -0.1837
27024SOL    HW185757   5.518   0.970   3.742 -0.4222 -0.7288 -0.5078
27024SOL    HW285758   5.626   0.913   3.653  0.3628 -0.0235 -0.0242
27025SOL     OW85759   9.070  10.258   6.609 -0.8031 -0.5316  0.2124
27025SOL    HW185760   9.104  10.289   6.693 -1.0523 -0.5879  0.3370
27025SOL    HW285761   9.034  10.336   6.568 -1.4178 -0.6470  0.5205
27026SOL     OW85762   2.441   6.218   3.356  0.8447  0.2423 -0.4289
27026SOL    HW185763   2.395   6.301   3.346 -0.0458 -0.3174 -1.1826
27026SOL    HW285764   2.525   6.231   3.311  1.8739  1.5568  1.7171
27027SOL     OW85765  10.059   5.866   5.353  0.5287  0.0773  0.7786
27027SOL    HW185766  10.101   5.844   5.435  0.8625 -0.6929  0.4123
27027SOL    HW285767  10.068   5.788   5.299 -0.5354  0.2214  0.3486
27028SOL     OW85768   3.821   1.789   4.745  0.1553 -0.9832  0.2420
27028SOL    HW185769   3.798   1.779   4.653  0.3489  2.1160 -0.2643
27028SOL    HW285770   3.790   1.709   4.787 -2.0356 -1.5120 -2.1307
27029SOL     OW85771   8.069   4.070  11.123  0.0856  0.1517  0.3644
27029SOL    HW185772   8.093   4.141  11.063 -0.9417  0.0764 -0.1531
27029SOL    HW285773   8.090   3.990  11.074  0.3053  0.0904  0.5575
27030SOL     OW85774   9.742   5.139   8.731  0.2035 -0.1245  0.7775
27030SOL    HW185775   9.743   5.132   8.826  1.3903 -2.0818  0.6815
27030SOL    HW285776   9.804   5.210   8.711  1.0201 -0.6429  1.4318
27031SOL     OW85777   0.124   2.624   7.127 -0.4401  0.3118 -0.1447
27031SOL    HW185778   0.076   2.543   7.141 -0.4456  0.2480 -0.5135
27031SOL    HW285779   0.197   2.600   7.070 -0.2372  0.4975  0.0324
27032SOL     OW85780   2.289   9.603  10.934 -0.0704 -0.0267 -0.1130
27032SOL    HW185781   2.332   9.527  10.973  0.3727  0.6199  0.7106
27032SOL    HW285782   2.335   9.617  10.851  0.3900 -0.1739  0.1132
27033SOL     OW85783   8.802  11.544   8.158  0.4878 -0.1231  0.3931
27033SOL    HW185784   8.794  11.474   8.223  0.8690 -0.7189 -0.1836
27033SOL    HW285785   8.727  11.530   8.100 -0.2848  0.8694  1.1166
27034SOL     OW85786   3.505   1.212   3.263 -0.6575  0.1534 -0.3403
27034SOL    HW185787   3.458   1.262   3.330 -0.1887  0.6399 -0.3669
27034SOL    HW285788   3.507   1.123   3.297 -0.6008  0.3579  0.2039
27035SOL     OW85789   3.958   5.677   9.833 -0.5269  0.5776  0.6797
27035SOL    HW185790   3.947   5.585   9.857 -1.2929 -0.1674 -2.2047
27035SOL    HW285791   3.870   5.708   9.812 -0.0706  1.5101  0.0639
27036SOL     OW85792   1.844   0.723   2.525  0.2752 -0.5329  0.5071
27036SOL    HW185793   1.877   0.813   2.531 -0.8550 -0.0470 -0.2508
27036SOL    HW285794   1.923   0.669   2.528  0.9337  0.4375  1.6598
27037SOL     OW85795  10.582   5.323   3.440  0.0484  0.7893 -0.6689
27037SOL    HW185796  10.521   5.285   3.376  0.4588  0.4298 -0.8557
27037SOL    HW285797  10.645   5.253   3.457 -1.0996  0.2020  1.5480
27038SOL     OW85798   0.197   7.237   4.027  0.3652 -0.0715 -0.3474
27038SOL    HW185799   0.174   7.322   3.988  1.4937  0.8517  0.8777
27038SOL    HW285800   0.123   7.216   4.085  0.7723  0.9126  0.5733
27039SOL     OW85801   6.866   0.679   2.224 -0.0895  0.6265 -0.8060
27039SOL    HW185802   6.874   0.603   2.282 -2.0307 -0.3292 -1.6775
27039SOL    HW285803   6.947   0.678   2.172 -0.2569 -1.1720 -1.1146
27040SOL     OW85804   5.307  10.909   2.082  0.2584  0.2343  0.0577
27040SOL    HW185805   5.222  10.867   2.071 -0.3651  1.2097  0.9017
27040SOL    HW285806   5.366  10.838   2.106 -0.4586 -0.3680  0.0748
27041SOL     OW85807  11.207   8.132   9.576  0.4915  0.3673 -0.1930
27041SOL    HW185808  11.243   8.064   9.633  0.4749  0.1428 -0.4480
27041SOL    HW285809  11.189   8.087   9.493 -1.3021  0.2141  0.2245
27042SOL     OW85810   9.991   3.888  10.787 -0.0600 -0.1619  0.1009
27042SOL    HW185811  10.086   3.881  10.774 -0.0074  2.1699 -1.3813
27042SOL    HW285812   9.981   3.954  10.854 -0.6115  1.3270 -1.3798
27043SOL     OW85813   6.764   4.196   9.643  0.0532  0.0417 -0.3950
27043SOL    HW185814   6.744   4.290   9.640 -0.5669  0.1512  2.9188
27043SOL    HW285815   6.682   4.153   9.619  0.1166  0.3242 -1.1517
27044SOL     OW85816   5.549   4.398   3.337  0.0108  0.1835 -0.1038
27044SOL    HW185817   5.572   4.474   3.391  0.9542  0.5700 -1.0116
27044SOL    HW285818   5.629   4.379   3.287 -0.6231 -0.5800 -0.8573
27045SOL     OW85819   0.776  11.647   0.550 -0.1866  0.1189 -0.5213
27045SOL    HW185820   0.730  11.719   0.507  0.5681  0.5294 -0.6499
27045SOL    HW285821   0.802  11.682   0.635 -0.2913 -0.1780 -0.3661
27046SOL     OW85822   2.720   2.092   8.172  0.7000  0.6981  0.5078
27046SOL    HW185823   2.662   2.019   8.152 -0.2066  1.3761  0.5990
27046SOL    HW285824   2.743   2.081   8.264 -1.4032  1.8314  1.2296
27047SOL     OW85825   8.830   7.858   5.020  0.2725 -0.0627  0.2216
27047SOL    HW185826   8.894   7.929   5.031 -0.6999  0.8453  0.2084
27047SOL    HW285827   8.883   7.782   4.995  1.1349  1.3464 -2.7580
27048SOL     OW85828   4.456   9.784   0.236  0.0260 -0.2590 -0.0600
27048SOL    HW185829   4.458   9.761   0.329 -1.1244 -0.1932 -0.0040
27048SOL    HW285830   4.532   9.739   0.199  1.7638  1.4066  1.2703
27049SOL     OW85831   5.153   4.366   5.369  0.1835 -0.2164  0.5120
27049SOL    HW185832   5.179   4.335   5.456 -1.4720 -1.5797  0.5708
27049SOL    HW285833   5.202   4.312   5.308  1.1067  0.5282  0.5638
27050SOL     OW85834   8.110   4.679   6.052 -0.2113  0.0207  0.1482
27050SOL    HW185835   8.167   4.754   6.035 -0.7317  0.1890 -0.9680
27050SOL    HW285836   8.167   4.613   6.091  0.5822  0.4631 -0.2512
27051SOL     OW85837   4.878   4.213   9.299 -0.0809 -0.5030 -0.1349
27051SOL    HW185838   4.895   4.290   9.245  0.9484 -0.3466  0.3815
27051SOL    HW285839   4.960   4.164   9.297  0.2790 -0.0729  1.9320
27052SOL     OW85840   2.884   9.169  11.405 -0.7026 -0.2634 -0.6148
27052SOL    HW185841   2.954   9.109  11.381 -0.5061 -0.7724  1.1520
27052SOL    HW285842   2.803   9.124  11.380 -0.4791 -0.1824 -1.5405
27053SOL     OW85843   8.021  10.747   6.731  0.1208  0.0816 -0.0437
27053SOL    HW185844   7.955  10.810   6.759  1.8224  2.5044 -1.0726
27053SOL    HW285845   7.982  10.704   6.655 -1.2167 -0.3783  0.8795
27054SOL     OW85846   3.215   2.452   0.349 -0.5533 -0.1977  0.1413
27054SOL    HW185847   3.237   2.423   0.260  1.8424 -0.0016  0.6157
27054SOL    HW285848   3.219   2.372   0.402 -1.0328 -0.1539  0.2497
27055SOL     OW85849  10.528   2.887   0.738  0.4100  0.0613  0.5728
27055SOL    HW185850  10.560   2.840   0.661  0.6293 -0.6290  1.0759
27055SOL    HW285851  10.586   2.860   0.809  1.3068  2.0348  0.6595
27056SOL     OW85852   0.297  11.367   4.807  0.6144  0.7597  0.2016
27056SOL    HW185853   0.346  11.351   4.888 -1.5250 -0.2466  1.3703
27056SOL    HW285854   0.287  11.281   4.768  0.3523  1.0471 -0.3704
27057SOL     OW85855  11.774   8.219   9.305 -0.0759 -0.0517  0.4882
27057SOL    HW185856  11.832   8.245   9.377  1.4016 -2.7926  0.4336
27057SOL    HW285857  11.725   8.144   9.339 -1.7262  0.5790 -0.3640
27058SOL     OW85858   4.200   5.584   2.154 -0.1113  0.0229  0.7823
27058SOL    HW185859   4.239   5.671   2.164 -0.8183  0.8036 -2.2308
27058SOL    HW285860   4.262   5.535   2.101 -1.2689 -0.1008 -0.5218
27059SOL     OW85861   5.243   1.798   4.704  0.1444 -0.0051 -0.6323
27059SOL    HW185862   5.181   1.803   4.631 -1.1110  1.9025  0.4698
27059SOL    HW285863   5.188   1.787   4.782  1.4228 -1.5399  0.1118
27060SOL     OW85864   9.847   3.991   9.169 -0.1633  0.3647  0.4117
27060SOL    HW185865   9.930   4.021   9.132  0.6775 -1.4011  0.7488
27060SOL    HW285866   9.831   3.907   9.126 -1.2201  0.1819  1.1401
27061SOL     OW85867  10.672   9.133   4.306 -0.6507  0.3619 -0.1930
27061SOL    HW185868  10.642   9.059   4.358 -2.2803  1.1529  0.0696
27061SOL    HW285869  10.593   9.166   4.263 -0.3742  3.0574  1.1174
27062SOL     OW85870   1.020   9.932   4.632 -0.1548  0.4846  0.0980
27062SOL    HW185871   1.053  10.005   4.580 -0.1444 -0.2662 -0.9748
27062SOL    HW285872   0.964   9.884   4.572 -0.6102 -0.0770  0.9632
27063SOL     OW85873   2.379   2.735   0.496 -0.5295 -0.6349 -0.2175
27063SOL    HW185874   2.409   2.786   0.571 -1.0046 -0.4391 -0.1529
27063SOL    HW285875   2.458   2.712   0.448 -0.1472 -1.3327  0.7093
27064SOL     OW85876   7.454   4.105   7.852  0.2698 -0.0091 -0.1507
27064SOL    HW185877   7.361   4.106   7.875  0.0885 -3.7377 -0.0811
27064SOL    HW285878   7.497   4.151   7.924 -1.3942  0.6474  0.4691
27065SOL     OW85879   3.892  10.907   0.911  0.0955 -0.2873  0.1397
27065SOL    HW185880   3.868  10.979   0.969 -1.9359 -0.1991 -0.7231
27065SOL    HW285881   3.948  10.948   0.845 -2.6469  1.1137 -1.5385
27066SOL     OW85882   0.832   8.354   1.081 -0.3329 -0.1287 -0.1105
27066SOL    HW185883   0.779   8.390   1.010 -1.2612 -1.8858 -0.3626
27066SOL    HW285884   0.846   8.428   1.140  1.7064  1.7958 -2.7574
27067SOL     OW85885  10.666  11.226   9.716 -0.1925 -0.2727 -0.2211
27067SOL    HW185886  10.750  11.211   9.760 -0.0683 -0.6727 -0.5845
27067SOL    HW285887  10.682  11.200   9.625 -0.1935  1.3753 -0.7335
27068SOL     OW85888   0.893   6.446   1.172  0.2650 -0.1359  0.2278
27068SOL    HW185889   0.880   6.360   1.211  0.0675 -0.2779 -0.1437
27068SOL    HW285890   0.984   6.469   1.192  0.8289 -1.1490 -1.0777
27069SOL     OW85891   7.757   3.197   6.998  0.0996 -0.2224 -0.0303
27069SOL    HW185892   7.667   3.164   7.000  0.2374 -0.6601 -0.6646
27069SOL    HW285893   7.761   3.252   6.921  0.0904  0.6731  0.5971
27070SOL     OW85894   2.452   9.899   0.177 -0.0634  0.0523 -0.0215
27070SOL    HW185895   2.391   9.829   0.153  0.0918  0.0677 -0.4669
27070SOL    HW285896   2.457   9.954   0.099 -0.5629  0.8403  0.4851
27071SOL     OW85897   4.567   4.478   8.183  0.5601 -0.1610  0.1943
27071SOL    HW185898   4.519   4.443   8.258 -3.5454  1.6825 -1.3232
27071SOL    HW285899   4.617   4.552   8.219 -0.2973 -0.1023  1.3171
27072SOL     OW85900   7.415   6.590  10.382  0.4984 -0.2477 -0.8588
27072SOL    HW185901   7.456   6.503  10.387  0.4869 -0.2789 -1.2894
27072SOL    HW285902   7.400   6.614  10.473  2.3535  0.1812 -0.6118
27073SOL     OW85903   3.466   4.962  11.725  0.0066  0.4333  0.1900
27073SOL    HW185904   3.381   4.956  11.682  0.1936  1.9010 -0.4330
27073SOL    HW285905   3.487   4.871  11.749 -0.0762 -0.4830 -2.8461
27074SOL     OW85906   8.572   4.258   4.620 -0.1256 -0.0792  0.2110
27074SOL    HW185907   8.572   4.267   4.525  1.2400 -2.4603 -0.0949
27074SOL    HW285908   8.481   4.240   4.642 -0.3176 -0.4198 -0.7878
27075SOL     OW85909   5.734   0.355   7.723  0.3200  0.2304 -0.0902
27075SOL    HW185910   5.731   0.339   7.817 -0.9858 -2.5848 -0.5193
27075SOL    HW285911   5.816   0.402   7.709  0.9058  0.0421  2.3557
27076SOL     OW85912  11.761   0.658   6.079  0.0109  0.0855  0.2901
27076SOL    HW185913  11.785   0.743   6.115  1.8246 -0.8169  1.3578
27076SOL    HW285914  11.679   0.636   6.122 -0.6934  1.4526 -0.3062
27077SOL     OW85915   9.569   2.711   6.354  0.3361 -0.7368  0.1471
27077SOL    HW185916   9.573   2.728   6.260 -0.1647 -0.4521  0.1732
27077SOL    HW285917   9.502   2.644   6.364  0.9262 -1.3268  0.2359
27078SOL     OW85918   6.802   5.677  11.953 -0.0379 -0.1300  0.0849
27078SOL    HW185919   6.832   5.750  12.007  1.4976 -0.9099  0.3617
27078SOL    HW285920   6.824   5.599  12.004 -0.0853 -0.8331 -0.9310
27079SOL     OW85921   4.447   0.130   3.900 -0.3077 -0.4496  0.7311
27079SOL    HW185922   4.425   0.149   3.991  0.1287  0.5688  0.6400
27079SOL    HW285923   4.488   0.210   3.868 -0.7874 -0.6591 -0.4744
27080SOL     OW85924   3.305   8.959   5.149  0.4115  0.1830 -0.0174
27080SOL    HW185925   3.336   9.002   5.069  2.9811 -0.8766  0.3031
27080SOL    HW285926   3.213   8.986   5.157  1.4374  4.4591 -0.5212
27081SOL     OW85927   0.958   1.923   4.731 -0.0351 -0.3507 -0.2272
27081SOL    HW185928   0.869   1.941   4.701  0.0015 -1.0545 -0.7977
27081SOL    HW285929   0.949   1.900   4.823 -0.5015 -0.7779 -0.3713
27082SOL     OW85930  10.301   5.729   2.095  0.0199 -0.4827  0.1346
27082SOL    HW185931  10.289   5.642   2.057  1.2879 -1.0754  1.0468
27082SOL    HW285932  10.365   5.772   2.037  0.0032 -0.4498  0.1399
27083SOL     OW85933   8.401   5.691   2.898 -0.0818 -0.1952 -0.6532
27083SOL    HW185934   8.423   5.607   2.858  1.3595  0.7954 -2.0751
27083SOL    HW285935   8.453   5.694   2.978  0.1168 -0.5207 -0.7686
27084SOL     OW85936   7.724   9.473   8.791 -0.1667  0.0484 -0.7305
27084SOL    HW185937   7.725   9.568   8.783  3.0873  0.1702 -0.3344
27084SOL    HW285938   7.724   9.441   8.701  2.5030  0.6100 -1.0212
27085SOL     OW85939   6.170  11.575   7.462  0.2058  0.1976  0.5910
27085SOL    HW185940   6.261  11.565   7.435 -0.1554  1.2431 -1.2316
27085SOL    HW285941   6.144  11.489   7.494  1.0860 -0.8674 -1.3697
27086SOL     OW85942   8.575   9.857   9.414 -0.5127  0.2481  0.7546
27086SOL    HW185943   8.620   9.775   9.396 -1.2964 -0.3169  1.3001
27086SOL    HW285944   8.482   9.833   9.420 -0.8295  1.2847  0.2274
27087SOL     OW85945  11.201   6.752   4.485  0.3274  0.3599  0.3117
27087SOL    HW185946  11.286   6.711   4.503 -0.1434 -0.3522  0.9623
27087SOL    HW285947  11.137   6.685   4.508 -0.4447  1.2490  0.8157
27088SOL     OW85948   9.208   4.942   5.507  0.1364 -0.0578  0.4119
27088SOL    HW185949   9.229   4.880   5.437 -0.3310  1.2964 -0.9774
27088SOL    HW285950   9.179   5.021   5.461 -0.1967  0.8693  2.1469
27089SOL     OW85951   2.298   2.970   7.368  0.4484  0.1590  0.1135
27089SOL    HW185952   2.276   2.941   7.280 -1.0354  0.0995  0.4796
27089SOL    HW285953   2.358   2.903   7.401  1.1918  0.2983 -0.9167
27090SOL     OW85954   6.798   3.576   8.420 -0.2094 -0.4266  0.2559
27090SOL    HW185955   6.807   3.627   8.500 -0.9899  0.1464 -0.0143
27090SOL    HW285956   6.792   3.641   8.350 -2.9298 -0.7658  0.0631
27091SOL     OW85957   6.339   4.816   4.438  0.3874 -0.1275  0.1008
27091SOL    HW185958   6.277   4.887   4.423  0.3815 -0.0618  0.4273
27091SOL    HW285959   6.402   4.851   4.501 -0.8681 -1.1290  2.0015
27092SOL     OW85960   6.720   9.938  11.193 -0.3789  0.0536 -0.1182
27092SOL    HW185961   6.734  10.006  11.127 -0.0493 -0.2346 -0.3554
27092SOL    HW285962   6.798   9.943  11.249 -0.0635 -0.5054 -0.4865
27093SOL     OW85963   9.624  11.634   7.368 -0.2704 -0.3165 -0.3470
27093SOL    HW185964   9.530  11.641   7.352 -0.4266 -0.5541  0.4287
27093SOL    HW285965   9.652  11.723   7.386 -0.4774 -0.3388  0.0956
27094SOL     OW85966   1.612  10.325   5.918  0.4184 -0.0013 -0.4181
27094SOL    HW185967   1.545  10.385   5.950  1.6622  1.1472  0.1750
27094SOL    HW285968   1.666  10.379   5.860  0.3305 -1.1235 -1.5809
27095SOL     OW85969   1.018   0.503   0.162  0.5707 -0.3781  0.2091
27095SOL    HW185970   1.111   0.527   0.154  0.2103  1.1032  0.1934
27095SOL    HW285971   0.988   0.549   0.240  0.2510 -2.2620  1.2381
27096SOL     OW85972   1.078   6.281  10.823 -0.4543 -0.0429 -0.0874
27096SOL    HW185973   1.011   6.346  10.800 -0.2265 -0.2279 -1.2932
27096SOL    HW285974   1.141   6.330  10.877 -0.0428  0.8705 -1.3611
27097SOL     OW85975   3.604   1.310   1.782 -0.0380 -0.1930  0.1019
27097SOL    HW185976   3.575   1.286   1.870 -0.6474 -0.7192 -0.2323
27097SOL    HW285977   3.636   1.400   1.791  1.2371 -0.7217  1.1469
27098SOL     OW85978  11.843  10.271   6.638 -0.2037 -0.1135 -0.6669
27098SOL    HW185979  11.820  10.313   6.721  0.5560  0.1473 -0.5818
27098SOL    HW285980  11.916  10.213   6.659 -0.0913 -0.1456 -1.1263
27099SOL     OW85981   3.560   1.317   1.449  0.2197  0.4162 -0.5130
27099SOL    HW185982   3.479   1.323   1.499  0.4572 -1.0431  0.0869
27099SOL    HW285983   3.629   1.345   1.509  0.2245  1.2385 -0.8865
27100SOL     OW85984   6.107   1.153   2.818  0.7788  0.0243  0.5799
27100SOL    HW185985   6.109   1.057   2.826 -0.3098 -0.0719 -0.0852
27100SOL    HW285986   6.149   1.170   2.733  1.0381  0.1462  0.7318
27101SOL     OW85987   4.824   7.980   0.523  0.0195 -0.1417 -0.5915
27101SOL    HW185988   4.854   8.070   0.522  0.4207 -0.2659 -2.0766
27101SOL    HW285989   4.865   7.941   0.600  1.1262  0.5331 -0.8214
27102SOL     OW85990   0.871   3.241   8.671 -0.4336  0.1887  0.4341
27102SOL    HW185991   0.824   3.317   8.704  2.1494  2.3937 -0.6078
27102SOL    HW285992   0.836   3.228   8.583 -1.6403 -0.6008  0.9953
27103SOL     OW85993   4.629   1.493   4.751  0.4244 -0.3771  0.1372
27103SOL    HW185994   4.617   1.566   4.811  1.9657 -0.1278  0.1721
27103SOL    HW285995   4.710   1.451   4.779  0.8456 -0.6329 -1.3558
27104SOL     OW85996   7.633   8.233   1.187 -0.1773  0.1034  0.5426
27104SOL    HW185997   7.575   8.158   1.175  0.8350 -0.7463  0.7434
27104SOL    HW285998   7.649   8.236   1.282  1.0388 -0.4283  0.3763
27105SOL     OW85999   1.002  11.007  11.862  0.1733  0.1657 -0.1211
27105SOL    HW186000   1.053  11.021  11.782 -1.5083  0.1443 -1.2561
27105SOL    HW286001   1.053  10.945  11.913  2.7105  2.3479  0.1977
27106SOL     OW86002   6.375   9.189  10.621  0.8242  0.1592  0.2684
27106SOL    HW186003   6.352   9.111  10.572 -2.6668  1.1019  0.1482
27106SOL    HW286004   6.368   9.162  10.713 -0.1480  0.2196  0.2254
27107SOL     OW86005   0.223  10.340   5.560  0.1911  0.3553 -0.3145
27107SOL    HW186006   0.229  10.427   5.598 -0.0753 -0.5706  2.0366
27107SOL    HW286007   0.254  10.282   5.630 -0.6173 -1.5106 -1.4378
27108SOL     OW86008   6.917   5.966  11.753 -0.5502  0.3075  0.0970
27108SOL    HW186009   6.926   6.039  11.813  0.1373  0.5875 -0.3280
27108SOL    HW286010   6.823   5.947  11.750 -0.4765 -0.8167  2.5493
27109SOL     OW86011   0.798   7.452  11.043 -0.2687 -0.2318  0.1986
27109SOL    HW186012   0.818   7.508  11.118 -0.4667 -1.3159  1.0912
27109SOL    HW286013   0.704   7.435  11.050  0.0683 -2.1102  1.0324
27110SOL     OW86014   1.679  10.900   9.795 -0.0586 -0.3830  0.1136
27110SOL    HW186015   1.671  10.967   9.863 -2.0771 -0.5619  0.1209
27110SOL    HW286016   1.751  10.844   9.824  0.6404  0.8760  0.8859
27111SOL     OW86017   6.329   2.262   5.446  0.1136 -0.6033  0.4954
27111SOL    HW186018   6.252   2.214   5.475 -1.6544  0.3694 -2.2117
27111SOL    HW286019   6.316   2.351   5.479 -1.0188  0.0587 -1.5532
27112SOL     OW86020   7.117   5.454   8.217 -0.0807  0.0334  0.2006
27112SOL    HW186021   7.139   5.546   8.232 -0.0292  0.3303 -1.4986
27112SOL    HW286022   7.023   5.448   8.235 -0.4669  0.8482 -1.3206
27113SOL     OW86023   8.400   3.295   3.927  0.4330 -0.0295 -0.2529
27113SOL    HW186024   8.318   3.305   3.879  1.1712  0.6600 -1.4115
27113SOL    HW286025   8.430   3.206   3.907  0.6400  0.1891 -0.9208
27114SOL     OW86026   0.193   2.312   7.078  0.3313  0.0560  0.4509
27114SOL    HW186027   0.133   2.240   7.059 -1.7459  1.5492  0.9912
27114SOL    HW286028   0.242   2.281   7.155  0.8491 -1.5064 -0.4614
27115SOL     OW86029   1.855   9.894   7.521 -0.4471  0.1318 -0.2519
27115SOL    HW186030   1.896   9.966   7.473  0.1598  0.0323  0.0996
27115SOL    HW286031   1.920   9.823   7.517 -0.0061  0.3894  1.3975
27116SOL     OW86032   4.403  10.123   1.705  0.0965 -0.3420 -0.7695
27116SOL    HW186033   4.380  10.050   1.648  0.1967 -0.8176 -0.1991
27116SOL    HW286034   4.401  10.199   1.647 -3.1281 -0.2682 -0.7446
27117SOL     OW86035   8.789   6.990   1.751 -0.0982 -0.3827 -0.0088
27117SOL    HW186036   8.857   6.944   1.801  0.3542  0.4116  0.1215
27117SOL    HW286037   8.818   6.985   1.660  0.0403 -0.1992  0.0259
27118SOL     OW86038   2.929   3.250   7.943  0.0136  0.0212 -0.1142
27118SOL    HW186039   3.019   3.240   7.913 -0.0713 -1.8268  0.1510
27118SOL    HW286040   2.876   3.211   7.873 -0.4204 -1.0123  0.7740
27119SOL     OW86041   0.486   3.588  11.979 -0.5511  0.6198  0.0660
27119SOL    HW186042   0.576   3.593  11.946 -0.7674  1.2525 -0.4624
27119SOL    HW286043   0.443   3.525  11.921 -0.5174  0.5280  0.1412
27120SOL     OW86044   7.467   4.622   8.777 -0.3658  0.2019  0.0368
27120SOL    HW186045   7.533   4.688   8.801  1.3320 -1.6547  0.7349
27120SOL    HW286046   7.443   4.580   8.859  0.7840 -1.9793 -0.6676
27121SOL     OW86047   1.490   1.653   3.100  0.2488 -0.6409  0.8617
27121SOL    HW186048   1.492   1.680   3.191 -0.4048 -1.2900  1.0814
27121SOL    HW286049   1.501   1.558   3.103  1.2024 -0.5584  0.2020
27122SOL     OW86050   9.420  11.940   3.863  0.1984  0.1998  0.5137
27122SOL    HW186051   9.342  11.920   3.915 -0.5278 -0.1058 -0.6540
27122SOL    HW286052   9.385  11.975   3.781  1.2705 -0.5816 -0.2948
27123SOL     OW86053   5.354  11.208   8.589  0.1395  0.2266 -0.2547
27123SOL    HW186054   5.286  11.218   8.655  0.1975 -1.0580  0.0307
27123SOL    HW286055   5.335  11.276   8.524 -2.1198 -0.8223 -0.7849
27124SOL     OW86056   0.145  10.023   2.081  0.2370 -0.7812  0.4027
27124SOL    HW186057   0.179  10.085   2.145  3.2726 -1.2793 -0.5531
27124SOL    HW286058   0.140   9.939   2.128  1.1796 -0.8661  0.3717
27125SOL     OW86059   1.714  11.941   6.223  0.1811  0.0752  0.4553
27125SOL    HW186060   1.647  11.887   6.181  0.5736  1.2682 -1.9084
27125SOL    HW286061   1.792  11.885   6.227 -0.6273 -1.0046  2.3618
27126SOL     OW86062  11.714   9.957   5.440 -0.4027 -0.2624 -0.5024
27126SOL    HW186063  11.746  10.046   5.428  1.3083 -0.7114  0.4106
27126SOL    HW286064  11.625   9.968   5.474 -0.7792  1.0469 -1.8270
27127SOL     OW86065   4.562  11.493   4.592 -0.2922 -0.1235  0.0093
27127SOL    HW186066   4.578  11.562   4.657 -3.0301 -0.0766  0.7592
27127SOL    HW286067   4.583  11.412   4.638 -1.7137 -0.0541  0.8575
27128SOL     OW86068  11.920   0.517   4.130 -0.1170  0.2755 -0.0842
27128SOL    HW186069  12.003   0.564   4.123  0.4890 -0.9409 -1.7933
27128SOL    HW286070  11.853   0.585   4.122  0.6632  1.3338  1.7271
27129SOL     OW86071  10.013  10.554  11.341 -0.0500 -0.7245  0.4881
27129SOL    HW186072  10.021  10.639  11.297  2.2662 -1.0070  0.2244
27129SOL    HW286073  10.016  10.575  11.434 -2.0329 -0.3633  0.5174
27130SOL     OW86074   5.242   7.793  10.084  0.3977  0.0607 -0.2599
27130SOL    HW186075   5.165   7.762  10.131  1.0202 -1.6810 -0.3167
27130SOL    HW286076   5.299   7.717  10.079  1.5417  0.9501 -1.4124
27131SOL     OW86077   3.352   5.963  10.889 -0.4301 -0.4470  0.3019
27131SOL    HW186078   3.440   5.964  10.926 -0.2490  2.7526  0.0240
27131SOL    HW286079   3.360   5.909  10.810  1.6776  0.9361 -0.5112
27132SOL     OW86080   9.284   4.141  10.582  0.3251  0.1872 -0.2277
27132SOL    HW186081   9.192   4.116  10.571  0.1345  0.7038  0.1267
27132SOL    HW286082   9.327   4.112  10.501 -0.1599 -0.0101 -0.4183
27133SOL     OW86083   9.098   2.259   5.456 -0.1063  0.5228 -0.2251
27133SOL    HW186084   9.007   2.243   5.478  0.2405 -2.7357 -0.7294
27133SOL    HW286085   9.135   2.299   5.535 -1.8515  1.6252  0.0831
27134SOL     OW86086  10.653   1.190   7.806  0.1762  0.1736  0.3220
27134SOL    HW186087  10.642   1.189   7.711  0.7646 -0.1837  0.2465
27134SOL    HW286088  10.649   1.282   7.830  2.4913  0.5330 -0.3878
27135SOL     OW86089  11.742   5.961   5.656 -0.0004  0.0723  0.2170
27135SOL    HW186090  11.658   5.915   5.661  0.6017 -1.4147 -2.0109
27135SOL    HW286091  11.779   5.952   5.744 -2.4330  1.4139  1.4804
27136SOL     OW86092   6.522  10.044   3.557 -0.0596  0.4729 -0.5944
27136SOL    HW186093   6.549   9.998   3.478 -0.6712 -1.5067  0.2835
27136SOL    HW286094   6.442  10.090   3.533 -0.8479 -0.9927 -0.8938
27137SOL     OW86095   0.494  11.330   2.625 -0.2419  0.4672 -0.0774
27137SOL    HW186096   0.435  11.259   2.599 -0.5551 -0.3990  2.6976
27137SOL    HW286097   0.437  11.405   2.640 -0.4276  0.1553  0.8140
27138SOL     OW86098   8.344   3.897   0.334  0.0448  0.4132 -0.0270
27138SOL    HW186099   8.272   3.960   0.338  0.2885  0.6826  3.5118
27138SOL    HW286100   8.307   3.821   0.288 -1.5158  1.6342 -0.8830
27139SOL     OW86101  10.162   4.104   6.865 -0.5788 -0.5532  0.2537
27139SOL    HW186102  10.235   4.144   6.817 -1.5248  0.7400 -0.1706
27139SOL    HW286103  10.104   4.070   6.797 -0.2531 -1.8591  0.5956
27140SOL     OW86104   9.730  11.871   7.396  0.5034  0.6972  0.1285
27140SOL    HW186105   9.782  11.908   7.324  0.4569 -1.4959 -1.1250
27140SOL    HW286106   9.668  11.939   7.419  0.8204  1.6246 -1.6172
27141SOL     OW86107   4.105   4.859   8.346 -0.0173  0.4652 -0.2041
27141SOL    HW186108   4.131   4.949   8.361 -0.1587  0.3796  0.6516
27141SOL    HW286109   4.012   4.857   8.368 -0.2009  0.2764 -0.9800
27142SOL     OW86110   4.642   3.196   8.363  0.4413 -0.1343  0.0466
27142SOL    HW186111   4.600   3.278   8.388 -0.0517 -0.7648  1.3959
27142SOL    HW286112   4.569   3.137   8.342  0.7307 -0.6664  0.5229
27143SOL     OW86113  10.967   1.330  10.909 -0.2881 -0.2243  0.5979
27143SOL    HW186114  11.056   1.294  10.910 -0.6689 -1.2856 -0.5500
27143SOL    HW286115  10.979   1.421  10.880  0.4438 -0.2927  0.6490
27144SOL     OW86116  11.884   1.438   5.004 -0.5612 -0.6717  0.8765
27144SOL    HW186117  11.867   1.509   4.941  1.9454  1.2976  2.2207
27144SOL    HW286118  11.933   1.373   4.953 -1.6792 -0.8346 -0.0381
27145SOL     OW86119   8.046   6.174  10.798  0.3421 -0.2434 -0.4588
27145SOL    HW186120   7.978   6.225  10.842  3.0382  2.3206  1.1572
27145SOL    HW286121   8.112   6.159  10.866  1.0471 -3.4477 -1.6757
27146SOL     OW86122   5.090   2.208   4.928  0.1328 -0.9157 -0.2450
27146SOL    HW186123   5.011   2.237   4.883  0.1135  0.2757  0.5155
27146SOL    HW286124   5.139   2.159   4.861 -0.4738 -0.2655 -1.1944
27147SOL     OW86125   2.219   3.813   1.066 -0.7117  0.1814  0.4099
27147SOL    HW186126   2.234   3.907   1.073  2.7969 -0.3039  1.3222
27147SOL    HW286127   2.248   3.790   0.978 -3.0963  0.1177 -0.4080
27148SOL     OW86128   8.419   1.651  11.514 -0.2783  0.2078 -0.1125
27148SOL    HW186129   8.491   1.707  11.543 -0.0116  1.3027 -2.6250
27148SOL    HW286130   8.439   1.565  11.551 -0.1733  1.4559  3.0327
27149SOL     OW86131  11.969   7.678   2.590 -0.1006 -0.2768 -0.8852
27149SOL    HW186132  11.943   7.625   2.666 -1.1435 -1.2612 -1.8949
27149SOL    HW286133  12.059   7.650   2.572  0.9681  1.5064  1.2449
27150SOL     OW86134  10.149   0.151   6.125  0.4086 -0.8223 -0.2495
27150SOL    HW186135  10.166   0.061   6.153  2.9000 -0.1433  0.6812
27150SOL    HW286136  10.138   0.200   6.207  0.7181 -0.0205 -0.6772
27151SOL     OW86137   2.277   9.731  11.508 -0.3974  0.1312 -0.2046
27151SOL    HW186138   2.356   9.678  11.518 -0.4710 -0.2243 -1.3485
27151SOL    HW286139   2.296   9.790  11.436 -0.8682  0.6319  0.0730
27152SOL     OW86140   3.842  11.887   7.789  0.0632  0.2456 -0.7889
27152SOL    HW186141   3.828  11.841   7.706 -2.8695 -0.3316 -0.0998
27152SOL    HW286142   3.883  11.970   7.764  0.6347 -0.5426 -2.6431
27153SOL     OW86143   6.689   3.561   9.339  0.4492 -0.4230  0.0641
27153SOL    HW186144   6.636   3.637   9.365 -0.2630 -1.2480  1.0860
27153SOL    HW286145   6.779   3.585   9.364  0.3049  0.2899 -0.0866
27154SOL     OW86146   2.958   2.776   4.348  0.1014  0.5981  0.3184
27154SOL    HW186147   2.866   2.759   4.366 -0.4080  1.2377 -1.4332
27154SOL    HW286148   2.962   2.870   4.328  0.7072  0.2136 -1.6510
27155SOL     OW86149  10.395   8.965   3.379 -0.5108  0.5450 -0.2839
27155SOL    HW186150  10.383   9.019   3.457 -1.5307  1.0033 -0.7396
27155SOL    HW286151  10.488   8.975   3.357 -0.1226  0.1350  1.0472
27156SOL     OW86152   1.670   9.726   1.546 -0.7226  0.4062  0.6116
27156SOL    HW186153   1.655   9.648   1.493  1.2825  0.6314 -0.3921
27156SOL    HW286154   1.594   9.782   1.528 -1.5795 -0.7800  0.3945
27157SOL     OW86155  11.081   7.512   9.249  0.2211 -0.1535 -0.3334
27157SOL    HW186156  11.098   7.582   9.186  0.1554  0.9157  0.8169
27157SOL    HW286157  11.153   7.450   9.237  0.0662 -0.1062 -1.6273
27158SOL     OW86158   0.897   2.247   1.403  0.2166 -0.4562 -0.2351
27158SOL    HW186159   0.878   2.191   1.478  0.7024 -2.7285 -1.7204
27158SOL    HW286160   0.983   2.285   1.423 -0.1062 -0.2290  0.7822
27159SOL     OW86161   8.928   3.500   5.023  0.1046  0.4430  0.0507
27159SOL    HW186162   8.860   3.433   5.020 -0.6042  1.1397 -2.5098
27159SOL    HW286163   9.007   3.453   5.048 -0.7999 -0.9175  0.4631
27160SOL     OW86164   8.302   6.761   0.144 -0.3485 -0.3317  0.5022
27160SOL    HW186165   8.390   6.739   0.174 -0.5342 -1.4150  0.2991
27160SOL    HW286166   8.252   6.680   0.156 -1.1653  0.0937  0.0491
27161SOL     OW86167   1.448   1.526   5.559  0.2570 -0.1076 -0.5220
27161SOL    HW186168   1.475   1.498   5.647  0.7824  1.8573 -0.0135
27161SOL    HW286169   1.372   1.471   5.539  0.3915 -0.9012  0.9676
27162SOL     OW86170   1.092   0.655   6.796  0.1987  0.1916  0.3866
27162SOL    HW186171   1.018   0.716   6.795 -0.0756 -0.1344 -1.1041
27162SOL    HW286172   1.169   0.711   6.796 -0.0292  0.5301  1.3066
27163SOL     OW86173   4.965   6.550  10.387  0.1036 -0.2630  0.5609
27163SOL    HW186174   5.031   6.482  10.397  0.6775  0.1396 -0.4280
27163SOL    HW286175   4.997   6.606  10.316 -0.4155  0.9747  1.2617
27164SOL     OW86176   1.959   9.039   8.182 -0.4055 -0.1235 -0.0622
27164SOL    HW186177   1.972   8.957   8.230  1.0929  0.4175  0.5118
27164SOL    HW286178   2.010   9.027   8.101 -0.6648  0.0254 -0.2490
27165SOL     OW86179   3.696  11.306   4.910 -0.4533 -0.4505 -0.0753
27165SOL    HW186180   3.743  11.349   4.839  0.1984 -0.4042  0.3784
27165SOL    HW286181   3.761  11.294   4.979 -1.5411  1.4713  1.4055
27166SOL     OW86182   7.104   7.300   1.319  0.5470  0.0384 -0.1318
27166SOL    HW186183   7.101   7.320   1.412  0.2183 -1.7850  0.2866
27166SOL    HW286184   7.099   7.386   1.276 -3.6645  0.8353  1.4526
27167SOL     OW86185   2.386   6.393   7.325 -0.1615 -0.1116 -0.1623
27167SOL    HW186186   2.342   6.433   7.400 -0.1981 -2.7768  1.3483
27167SOL    HW286187   2.474   6.375   7.355 -0.6834 -2.8396 -0.0351
27168SOL     OW86188   7.270   2.959   2.983  0.0843 -0.4973  0.4373
27168SOL    HW186189   7.320   2.997   2.911  1.3743 -1.0360  1.0142
27168SOL    HW286190   7.181   2.950   2.949 -0.2750  2.8149  0.1764
27169SOL     OW86191  11.080   4.401   8.593  0.3863  0.1544  0.2467
27169SOL    HW186192  11.061   4.317   8.635 -0.8836  1.2821  2.0171
27169SOL    HW286193  11.149   4.440   8.646  0.4867  0.5406 -0.1598
27170SOL     OW86194   4.484   4.594   9.796 -0.0523  0.6194  0.1749
27170SOL    HW186195   4.570   4.558   9.772 -0.4317 -0.4850  0.3886
27170SOL    HW286196   4.473   4.670   9.738 -0.5842 -1.4341 -2.6680
27171SOL     OW86197   9.512   8.680  11.664 -0.3564 -0.0073 -0.3530
27171SOL    HW186198   9.441   8.744  11.664 -0.7772 -0.4430 -1.3620
27171SOL    HW286199   9.592   8.733  11.658 -0.5867  0.4866  0.8054
27172SOL     OW86200   9.268  10.239   9.229  0.2633 -0.1013  1.0438
27172SOL    HW186201   9.226  10.216   9.312 -1.1054  0.2804  0.4876
27172SOL    HW286202   9.315  10.159   9.204 -0.9187 -0.8927  1.2385
27173SOL     OW86203   3.528   6.627   2.551 -0.2063  0.2950 -0.0348
27173SOL    HW186204   3.622   6.608   2.545 -0.3480  0.1188 -2.1336
27173SOL    HW286205   3.489   6.580   2.478 -1.6850  1.9269 -0.3420
27174SOL     OW86206   1.209  10.010   6.634  0.1119  0.1252 -0.5298
27174SOL    HW186207   1.128  10.027   6.585  0.1405 -0.5381 -0.8236
27174SOL    HW286208   1.180   9.968   6.715  0.2843 -3.2682 -2.0640
27175SOL     OW86209   4.693   7.859  10.063  0.2569 -0.1163  0.4834
27175SOL    HW186210   4.713   7.854  10.156 -0.5350  2.3812  0.8373
27175SOL    HW286211   4.769   7.904  10.025 -0.3056  0.6358  0.2451
27176SOL     OW86212   6.739   2.626   3.685 -0.1658 -0.6643 -0.4551
27176SOL    HW186213   6.648   2.651   3.671 -0.4180 -1.3152 -0.0365
27176SOL    HW286214   6.789   2.681   3.625 -0.9404 -1.1996 -1.6246
27177SOL     OW86215   3.867   3.959   4.105 -0.2099 -0.0984  0.2549
27177SOL    HW186216   3.922   4.005   4.169  0.0871  0.4132 -0.3628
27177SOL    HW286217   3.882   3.866   4.123  0.8472  0.0309  0.0948
27178SOL     OW86218   0.701   1.215   3.090 -0.0406 -0.0324 -0.3845
27178SOL    HW186219   0.783   1.257   3.114  0.1514 -0.3720 -0.4484
27178SOL    HW286220   0.714   1.186   3.000 -0.7635  1.2585 -0.9218
27179SOL     OW86221   2.299   5.847   1.991 -0.0081 -0.1536  0.0375
27179SOL    HW186222   2.375   5.861   1.933 -0.0226 -0.0086  0.0541
27179SOL    HW286223   2.272   5.757   1.973 -0.1119 -0.0569 -0.2997
27180SOL     OW86224   7.942   3.717   4.339 -0.2047 -0.0719 -0.6730
27180SOL    HW186225   7.997   3.783   4.382  1.3196 -1.0963 -0.9595
27180SOL    HW286226   7.926   3.651   4.406 -0.4062 -0.1610 -0.8084
27181SOL     OW86227   0.490   2.230   3.248 -0.3375  0.1073  0.2648
27181SOL    HW186228   0.402   2.250   3.216  0.0858 -0.6917 -1.5516
27181SOL    HW286229   0.479   2.150   3.300 -0.5929 -0.3731 -0.5177
27182SOL     OW86230   6.889   4.787   1.759  0.0145 -0.2558  0.0371
27182SOL    HW186231   6.859   4.787   1.668  3.8308 -0.6961 -1.4331
27182SOL    HW286232   6.919   4.877   1.774 -0.5322 -0.2021  0.8790
27183SOL     OW86233   8.997   4.715   3.128  0.2659 -0.1147 -0.1471
27183SOL    HW186234   9.077   4.760   3.099  0.7826 -1.2188 -0.4590
27183SOL    HW286235   9.027   4.646   3.186 -0.5050 -0.2475  0.1104
27184SOL     OW86236   9.209   2.051   8.930  0.0532 -0.4622 -0.3412
27184SOL    HW186237   9.294   2.009   8.912  0.0627 -0.8235  0.4789
27184SOL    HW286238   9.156   1.981   8.969 -0.3227 -0.0097 -0.0346
27185SOL     OW86239   8.540   9.892   5.362 -0.0438 -0.3800 -0.1908
27185SOL    HW186240   8.448   9.902   5.385  0.0904 -2.6081  1.7338
27185SOL    HW286241   8.579   9.847   5.437  2.1371 -1.5050 -1.8605
27186SOL     OW86242   5.326   7.610   6.135  0.1452  0.5109 -0.1088
27186SOL    HW186243   5.271   7.687   6.148  1.0813  1.3848 -1.1013
27186SOL    HW286244   5.308   7.583   6.045  1.1901  0.7082 -0.3910
27187SOL     OW86245   7.175   1.658   1.691  0.5299  0.1597  0.2116
27187SOL    HW186246   7.209   1.668   1.602 -1.8086  2.7659 -0.5209
27187SOL    HW286247   7.084   1.629   1.679  0.5814 -0.8477  1.8508
27188SOL     OW86248   6.179   8.098  10.056 -0.0893 -0.0845 -0.5438
27188SOL    HW186249   6.193   8.192  10.052  0.3357 -0.0374  1.0334
27188SOL    HW286250   6.174   8.079  10.150  1.2991 -1.8227 -0.7680
27189SOL     OW86251   5.100  10.931   7.620 -0.1027  0.4618  0.5496
27189SOL    HW186252   5.191  10.943   7.595 -0.1051 -0.3097  0.1419
27189SOL    HW286253   5.050  10.983   7.557 -0.0158 -0.1983 -0.0790
27190SOL     OW86254   3.855   9.206   5.257 -1.0219 -0.1481 -0.0820
27190SOL    HW186255   3.935   9.158   5.234  0.4526  0.7761  2.6927
27190SOL    HW286256   3.786   9.139   5.255  0.1903 -1.4427 -0.4424
27191SOL     OW86257   7.923  10.270   2.984  0.1091 -0.2943 -0.1260
27191SOL    HW186258   7.880  10.289   3.067  0.1471 -1.3461  0.1526
27191SOL    HW286259   7.992  10.335   2.976  0.2938 -0.3741  0.8076
27192SOL     OW86260   5.542   4.270   7.277  0.2549 -0.0825 -0.0957
27192SOL    HW186261   5.566   4.284   7.369  0.6364 -0.0814 -0.1928
27192SOL    HW286262   5.447   4.261   7.278  0.1297  1.1676  0.1377
27193SOL     OW86263   0.888   4.372   9.048  0.2244  0.5421 -0.1872
27193SOL    HW186264   0.921   4.353   9.136 -0.4691  1.0968  0.2044
27193SOL    HW286265   0.892   4.467   9.041  0.3258  0.4975 -0.7808
27194SOL     OW86266   5.045   7.854   3.847  0.4982 -0.4570 -0.0362
27194SOL    HW186267   5.126   7.891   3.882  2.1347 -2.1931 -1.7570
27194SOL    HW286268   4.978   7.919   3.867  2.1656  0.7086  2.0809
27195SOL     OW86269   6.934   1.112  11.773 -0.3830  0.4072 -0.3806
27195SOL    HW186270   6.993   1.075  11.707  0.3720  3.3308 -1.4891
27195SOL    HW286271   6.846   1.096  11.737 -0.2455 -1.9743  0.1809
27196SOL     OW86272   1.541   9.763   2.380  0.1752  0.0900  0.4342
27196SOL    HW186273   1.538   9.667   2.389 -1.1523  0.2222  1.7827
27196SOL    HW286274   1.582   9.793   2.461  0.4311  0.6788  0.0935
27197SOL     OW86275   3.676   0.001   5.688 -0.2426  0.6501 -0.1140
27197SOL    HW186276   3.730   0.044   5.755 -0.8077 -0.4758  1.0981
27197SOL    HW286277   3.605  -0.040   5.737  0.3466 -1.7980 -1.1735
27198SOL     OW86278   5.439   0.807   8.249  0.0780  0.4805 -0.6490
27198SOL    HW186279   5.348   0.783   8.267  0.0379 -0.2756 -1.7325
27198SOL    HW286280   5.433   0.878   8.185  0.2512  0.4930 -0.6530
27199SOL     OW86281   4.119   4.176  10.445  0.0489 -0.3374 -0.6962
27199SOL    HW186282   4.090   4.165  10.355 -0.5032 -0.5939 -0.4932
27199SOL    HW286283   4.171   4.098  10.464 -1.1092 -1.0360 -0.3126
27200SOL     OW86284   9.984  10.024   5.325  0.2483 -0.0397 -0.1303
27200SOL    HW186285  10.037   9.958   5.368  0.3761 -0.2966 -0.6695
27200SOL    HW286286  10.035  10.049   5.247  0.9878  1.8937  0.9077
27201SOL     OW86287   1.042   6.925   4.690 -0.2044  0.0514 -0.0857
27201SOL    HW186288   1.024   6.831   4.696 -0.2402  0.0860  0.4430
27201SOL    HW286289   1.049   6.943   4.597  0.8384 -0.6797 -0.1664
27202SOL     OW86290  11.657   3.000   5.433 -0.5130  0.1611 -0.5832
27202SOL    HW186291  11.607   2.932   5.388 -1.3235  1.1217 -1.1619
27202SOL    HW286292  11.736   2.955   5.464 -1.1694 -1.1027 -0.6914
27203SOL     OW86293   6.529   3.145   0.221  0.1223 -0.1530  0.0207
27203SOL    HW186294   6.513   3.121   0.312 -0.4943  2.1263  0.5767
27203SOL    HW286295   6.564   3.065   0.181 -2.7277 -2.2656  1.3899
27204SOL     OW86296   2.047   8.056   7.672 -0.2128  0.0387 -0.2276
27204SOL    HW186297   2.100   8.108   7.732 -1.2503 -0.4735  1.1886
27204SOL    HW286298   2.071   7.965   7.691 -3.5025 -0.4347  2.5209
27205SOL     OW86299   0.146   6.484   7.068  0.2418 -0.8929 -0.0574
27205SOL    HW186300   0.126   6.406   7.120  0.5242 -0.4805  0.6783
27205SOL    HW286301   0.121   6.558   7.125 -2.1033 -0.4315 -1.5453
27206SOL     OW86302   0.676  11.844   9.706 -0.1755  0.1109 -0.1267
27206SOL    HW186303   0.631  11.917   9.664  0.6366  0.2122 -0.8512
27206SOL    HW286304   0.630  11.766   9.677 -0.8519  0.3073  0.3970
27207SOL     OW86305   0.929  11.098   2.968 -0.5943  0.5176  0.1592
27207SOL    HW186306   0.944  11.189   2.940 -0.8089  0.3513 -0.5255
27207SOL    HW286307   0.839  11.080   2.940 -0.2887 -0.1563 -0.4238
27208SOL     OW86308   5.072   9.698   5.055  0.1843 -0.0910  0.1433
27208SOL    HW186309   4.992   9.706   5.002  0.3392  1.5845  0.1198
27208SOL    HW286310   5.050   9.739   5.139  1.5318  2.1169 -0.4936
27209SOL     OW86311   3.247  11.628   6.713 -0.1068  0.4321 -0.1301
27209SOL    HW186312   3.176  11.617   6.776 -1.6908  2.6497 -1.3907
27209SOL    HW286313   3.250  11.545   6.665 -0.3540 -0.4766  1.3763
27210SOL     OW86314   0.930   2.216  10.288  0.3638  0.4711  0.0036
27210SOL    HW186315   0.848   2.216  10.336  0.6614 -1.4723  0.5977
27210SOL    HW286316   0.916   2.278  10.217 -0.1736  3.3054  2.3929
27211SOL     OW86317   5.966  10.274   8.666  0.0456  0.2819 -0.2705
27211SOL    HW186318   6.028  10.345   8.678 -1.1762  1.6430 -1.5902
27211SOL    HW286319   5.964  10.259   8.571 -0.7376 -0.5577 -0.1423
27212SOL     OW86320   8.785  10.263   2.980  0.5478  0.1529  0.1554
27212SOL    HW186321   8.730  10.339   2.962 -0.7839 -0.7539  0.2189
27212SOL    HW286322   8.864  10.299   3.019  0.4023  1.5811 -0.7868
27213SOL     OW86323   7.677   3.506   4.332 -0.0301  0.0374  0.0721
27213SOL    HW186324   7.666   3.470   4.244  0.8386 -0.0947  0.0146
27213SOL    HW286325   7.639   3.594   4.326 -0.0810 -0.0151 -0.4058
27214SOL     OW86326   5.431  11.162   9.726  0.3276 -0.1713  0.0929
27214SOL    HW186327   5.411  11.238   9.781  0.3741  1.0460 -1.5035
27214SOL    HW286328   5.349  11.142   9.682  0.0478 -1.7350  1.2505
27215SOL     OW86329   8.376   8.712   1.428 -0.0646 -0.5291  0.3245
27215SOL    HW186330   8.456   8.659   1.427 -0.4682 -1.1404 -0.8610
27215SOL    HW286331   8.408   8.802   1.431  0.6953 -0.7404 -0.7917
27216SOL     OW86332   5.752   0.202  11.509  0.1807 -0.1747  0.2525
27216SOL    HW186333   5.808   0.166  11.440  0.6382 -2.2595  1.5988
27216SOL    HW286334   5.697   0.266  11.465  0.7892 -1.0688 -1.9422
27217SOL     OW86335   3.541   1.143   5.395  0.6821  0.0855 -0.5094
27217SOL    HW186336   3.609   1.078   5.412  0.4771  0.4052  1.7479
27217SOL    HW286337   3.459   1.097   5.411  0.4284  0.2871 -1.1745
27218SOL     OW86338   9.252   3.653  11.499 -0.6581 -0.4282 -0.0611
27218SOL    HW186339   9.295   3.568  11.489  1.2762  0.6373 -1.3595
27218SOL    HW286340   9.253   3.691  11.411 -0.9319  1.2143  0.6122
27219SOL     OW86341  10.849   7.837   7.412  0.5137 -0.9684  0.0683
27219SOL    HW186342  10.864   7.922   7.372 -0.9850 -2.1557 -3.3861
27219SOL    HW286343  10.930   7.789   7.399  0.5148 -0.8722 -0.2868
27220SOL     OW86344   5.873   0.107   9.423  0.0905 -0.1250  0.1775
27220SOL    HW186345   5.853   0.200   9.431  0.7528  0.0390  0.0089
27220SOL    HW286346   5.810   0.063   9.480  0.8898  0.5470  1.6314
27221SOL     OW86347   9.786   0.246   8.386  0.3340  0.2000 -0.8140
27221SOL    HW186348   9.872   0.206   8.398 -0.6011 -1.3383  1.3025
27221SOL    HW286349   9.799   0.338   8.413  0.8903 -0.5408  1.7631
27222SOL     OW86350   7.174   3.972   1.431 -0.0081  0.4107 -0.2466
27222SOL    HW186351   7.087   3.952   1.464 -0.0569  3.2364  1.6606
27222SOL    HW286352   7.231   3.962   1.507  0.8464  1.4222 -0.7346
27223SOL     OW86353   8.235   3.512   7.065 -0.1092 -0.0863 -0.1488
27223SOL    HW186354   8.244   3.592   7.117  1.0133 -0.4818  0.2992
27223SOL    HW286355   8.224   3.543   6.975 -1.1859  0.5839  0.1928
27224SOL     OW86356   2.603   3.594   5.550  0.0008 -0.3264  0.5312
27224SOL    HW186357   2.665   3.545   5.604 -2.0217 -1.7638  1.7264
27224SOL    HW286358   2.549   3.642   5.614  0.2705  1.4322 -0.4981
27225SOL     OW86359   6.314   3.522   0.151  0.3953  0.5892  0.1581
27225SOL    HW186360   6.361   3.451   0.106 -2.8358 -0.8559 -1.2616
27225SOL    HW286361   6.272   3.480   0.226 -0.9605  1.1228 -0.2740
27226SOL     OW86362   5.473   0.920   9.820 -0.9673  0.8265  0.2212
27226SOL    HW186363   5.511   1.007   9.821 -1.1260  0.9003  1.1108
27226SOL    HW286364   5.383   0.933   9.849 -0.7694  0.2862  1.1279
27227SOL     OW86365   5.530   7.127   0.098  0.0626 -0.1733 -0.1154
27227SOL    HW186366   5.615   7.083   0.097 -0.1885 -0.7158  0.7552
27227SOL    HW286367   5.522   7.166   0.011  1.5365  0.5446  0.0336
27228SOL     OW86368  10.852   5.853   9.736  0.3463  0.3355 -0.0880
27228SOL    HW186369  10.866   5.779   9.794 -0.2140  0.3007  0.0066
27228SOL    HW286370  10.786   5.823   9.674  1.7486 -0.0264 -1.4725
27229SOL     OW86371   8.162   3.692   1.275  0.1505 -0.2269 -0.2473
27229SOL    HW186372   8.077   3.702   1.318  0.5259 -0.3205  0.5246
27229SOL    HW286373   8.142   3.698   1.181 -0.5344  1.1558 -0.0493
27230SOL     OW86374   4.012   3.003   5.325  0.2127  0.2196  0.8808
27230SOL    HW186375   4.034   2.994   5.418 -2.2394  0.6935  1.5784
27230SOL    HW286376   3.928   2.958   5.316 -1.2281  2.9081 -0.3636
27231SOL     OW86377   6.290   2.121  10.785  0.4265 -0.3049  0.1080
27231SOL    HW186378   6.372   2.133  10.834  0.3452  0.1827  0.1260
27231SOL    HW286379   6.318   2.084  10.702  0.6661 -0.1581  0.1212
27232SOL     OW86380   1.583  11.901  11.088 -0.2112  0.6442 -0.1011
27232SOL    HW186381   1.584  11.955  11.167  0.4974  0.4699  0.0124
27232SOL    HW286382   1.665  11.852  11.090 -1.3953 -1.4292  0.4468
27233SOL     OW86383   9.629   5.110   6.801  0.1263  0.2550 -0.0155
27233SOL    HW186384   9.701   5.072   6.851 -0.2256  0.9892  1.0902
27233SOL    HW286385   9.584   5.035   6.763  1.1946 -0.2378 -0.3554
27234SOL     OW86386   5.994   3.784   5.113  0.4417  0.2465 -0.3191
27234SOL    HW186387   6.067   3.769   5.173 -0.0537  0.1113  0.2585
27234SOL    HW286388   6.002   3.876   5.088 -1.4354  1.4003  2.8374
27235SOL     OW86389  11.005  11.692   3.288  0.2704  0.3286 -0.0964
27235SOL    HW186390  11.086  11.723   3.328  0.1305 -0.1181  0.5526
27235SOL    HW286391  10.955  11.772   3.271  1.2781  0.6835 -1.4820
27236SOL     OW86392   5.281   9.354   0.669  0.4517 -0.3545 -0.3248
27236SOL    HW186393   5.235   9.335   0.587 -1.7639  1.6571  0.3502
27236SOL    HW286394   5.279   9.272   0.717 -0.3463 -0.9414 -1.3198
27237SOL     OW86395  11.643   8.003   5.878  0.1481  0.3082  0.6660
27237SOL    HW186396  11.672   8.024   5.789 -0.3905  1.2471  0.6969
27237SOL    HW286397  11.686   8.069   5.933  0.2033 -0.0563  1.0598
27238SOL     OW86398   8.148  11.867   1.996  0.0400  0.2383 -0.5537
27238SOL    HW186399   8.175  11.794   2.052 -3.4700 -1.6614 -1.0406
27238SOL    HW286400   8.196  11.854   1.914  0.4476 -0.7240 -0.1776
27239SOL     OW86401   4.551   4.179  11.351 -0.3304  0.5377 -0.5540
27239SOL    HW186402   4.592   4.094  11.338  1.5041  1.1861  0.7056
27239SOL    HW286403   4.596   4.217  11.426 -0.6897  2.8686 -1.4181
27240SOL     OW86404   1.762   0.685   5.735  0.1701 -0.3537  0.0111
27240SOL    HW186405   1.746   0.631   5.658 -1.2395 -0.0189  0.0265
27240SOL    HW286406   1.804   0.626   5.798 -1.1545 -1.4017 -0.0424
27241SOL     OW86407   8.377   6.353   2.445  0.1673 -0.4974  0.2205
27241SOL    HW186408   8.465   6.386   2.460  0.8031 -0.9989 -2.0673
27241SOL    HW286409   8.320   6.413   2.494  1.7252  0.0006  1.4871
27242SOL     OW86410  10.454  10.807  11.911  0.0855  0.2076  0.5194
27242SOL    HW186411  10.502  10.743  11.858 -1.3432  0.0417 -0.6261
27242SOL    HW286412  10.406  10.754  11.974  0.6210  0.3137  1.0269
27243SOL     OW86413   9.514   2.197   8.513 -0.2676  0.3311  0.2488
27243SOL    HW186414   9.505   2.260   8.441 -1.1711 -0.5824 -0.4753
27243SOL    HW286415   9.456   2.230   8.582 -0.6104  0.3856 -0.0644
27244SOL     OW86416  11.672   5.308   2.761 -0.2314  0.1197  0.5643
27244SOL    HW186417  11.583   5.337   2.781 -0.9327 -0.8634 -0.9561
27244SOL    HW286418  11.716   5.386   2.727  0.3057  1.2502  3.5211
27245SOL     OW86419   6.350   5.759   6.993  0.1765 -0.0700  0.3596
27245SOL    HW186420   6.404   5.826   7.034  0.8298 -1.3692  1.7413
27245SOL    HW286421   6.354   5.685   7.054 -1.4803 -0.9446 -0.5251
27246SOL     OW86422   1.790   4.064  10.177 -0.4444  0.4203  0.4146
27246SOL    HW186423   1.784   4.152  10.214 -0.0988  0.4077  0.4994
27246SOL    HW286424   1.706   4.051  10.134  0.3671  1.7786 -1.7618
27247SOL     OW86425   0.152   5.730  10.909 -0.1562  0.1452  0.1799
27247SOL    HW186426   0.145   5.635  10.905  1.9699 -0.0754  0.5329
27247SOL    HW286427   0.239   5.750  10.875 -0.5177  1.9644  0.1923
27248SOL     OW86428   8.943  11.834  11.847 -0.2258 -0.4395 -0.3897
27248SOL    HW186429   8.983  11.825  11.934  0.6878 -0.6883 -0.8340
27248SOL    HW286430   9.014  11.820  11.786 -0.3463  2.1064 -1.2053
27249SOL     OW86431   7.130  10.561   2.750 -0.0739 -0.0772  0.3853
27249SOL    HW186432   7.180  10.616   2.810 -1.6274  0.8757  0.8571
27249SOL    HW286433   7.109  10.618   2.677 -1.3548 -0.1333  0.6880
27250SOL     OW86434   6.074   9.658   5.050 -0.5674 -0.2304 -0.0789
27250SOL    HW186435   6.052   9.745   5.083  0.9662  0.1809 -0.0545
27250SOL    HW286436   6.162   9.668   5.012 -0.4878 -1.6954 -0.3479
27251SOL     OW86437   5.351   5.664   7.045 -0.4070 -0.4162 -0.2354
27251SOL    HW186438   5.262   5.635   7.067 -0.9420 -1.1595 -2.9806
27251SOL    HW286439   5.386   5.593   6.991  1.9526 -0.1916  0.8969
27252SOL     OW86440   3.977   5.561  10.419  0.2738  0.4631  0.9055
27252SOL    HW186441   3.908   5.519  10.470 -2.6056  2.1882 -1.2626
27252SOL    HW286442   3.999   5.497  10.351 -1.6837  1.0647 -0.3714
27253SOL     OW86443   6.261   9.276  10.129  0.4892  0.4340 -0.2423
27253SOL    HW186444   6.173   9.307  10.110  0.1086 -0.6220 -0.2864
27253SOL    HW286445   6.285   9.319  10.211 -0.4021  0.0943  0.2132
27254SOL     OW86446   3.885   1.055   0.692  0.2648  0.0620 -0.0572
27254SOL    HW186447   3.830   1.132   0.682  1.6221  0.9772 -0.9135
27254SOL    HW286448   3.891   1.042   0.787  1.0649  1.8369  0.1809
27255SOL     OW86449   6.656   5.172  10.119 -0.2854 -0.4522  0.7973
27255SOL    HW186450   6.749   5.157  10.103 -0.2272 -0.4896  1.1497
27255SOL    HW286451   6.621   5.085  10.139 -0.8635 -0.8223 -1.5370
27256SOL     OW86452   3.518   1.550   2.591 -0.1492 -0.5923 -0.1645
27256SOL    HW186453   3.535   1.459   2.566 -1.0052 -0.8245  0.0573
27256SOL    HW286454   3.429   1.548   2.628 -0.2603  0.3754 -0.3666
27257SOL     OW86455   1.178   3.612  11.081 -0.1039  0.6860  0.4774
27257SOL    HW186456   1.165   3.567  10.997  0.2007  1.9596 -0.2729
27257SOL    HW286457   1.224   3.548  11.135 -2.8607 -1.2508  0.7236
27258SOL     OW86458   0.214  10.354   4.332 -0.0529  0.2704 -0.0695
27258SOL    HW186459   0.265  10.276   4.310 -0.6138  0.2910 -1.5788
27258SOL    HW286460   0.134  10.320   4.371 -0.0748  0.1110 -0.2514
27259SOL     OW86461   4.921   7.264  11.627 -0.0710  0.2274 -0.2205
27259SOL    HW186462   4.878   7.350  11.621 -0.1909  0.1590 -0.3453
27259SOL    HW286463   4.951   7.247  11.538  0.1758  0.2540 -0.1425
27260SOL     OW86464   9.364   6.965   7.758 -0.2531 -0.1643  0.2009
27260SOL    HW186465   9.320   7.039   7.801 -0.2522  0.2554 -0.5060
27260SOL    HW286466   9.382   6.904   7.829 -1.6565 -0.1832  0.5643
27261SOL     OW86467   5.063   8.592   0.393  0.5885  0.4132 -0.4868
27261SOL    HW186468   5.000   8.638   0.449 -0.8792 -0.8281 -1.0769
27261SOL    HW286469   5.148   8.611   0.434 -0.3118  0.6051  1.4322
27262SOL     OW86470   7.335   7.265   4.473 -0.3910 -0.0699  0.3256
27262SOL    HW186471   7.423   7.230   4.464 -0.6532 -0.8839  0.7250
27262SOL    HW286472   7.306   7.282   4.383 -0.3546 -1.1947  0.0835
27263SOL     OW86473   2.916   9.632   7.184 -0.2292  0.2841 -0.1015
27263SOL    HW186474   2.971   9.567   7.226 -0.8731  0.2591  0.7420
27263SOL    HW286475   2.883   9.589   7.104 -0.0561 -0.1500  0.0621
27264SOL     OW86476   0.781   8.470   2.361  0.0015 -0.5231 -0.3933
27264SOL    HW186477   0.814   8.468   2.271  0.5402  2.2818 -0.3591
27264SOL    HW286478   0.827   8.544   2.402 -2.1447 -0.0502  1.3785
27265SOL     OW86479  10.836  10.220   4.266 -0.3343  0.3412 -0.1281
27265SOL    HW186480  10.885  10.198   4.187 -0.6765 -0.2141 -0.1914
27265SOL    HW286481  10.784  10.141   4.285 -0.4726  0.5727  0.4827
27266SOL     OW86482   0.743   6.131   4.049  0.0934  0.1244 -0.3081
27266SOL    HW186483   0.806   6.109   4.118  0.0878  0.0709 -0.3195
27266SOL    HW286484   0.705   6.047   4.024  0.4056  0.0875 -0.6749
27267SOL     OW86485  10.396   4.074   0.538  0.7372 -0.1093  0.2562
27267SOL    HW186486  10.320   4.132   0.532  1.3210  0.7245  0.7960
27267SOL    HW286487  10.463   4.116   0.485 -0.2713 -2.7549 -3.4974
27268SOL     OW86488   8.145  11.074   1.320 -0.4949 -0.0459  0.6223
27268SOL    HW186489   8.058  11.050   1.353 -1.2093  1.1949 -0.2728
27268SOL    HW286490   8.127  11.117   1.236  1.0633 -0.6788 -0.0704
27269SOL     OW86491   3.112   8.627   7.223  0.1710 -0.1066 -0.3030
27269SOL    HW186492   3.058   8.570   7.277 -2.2247  0.3119 -2.1153
27269SOL    HW286493   3.200   8.590   7.230 -0.7542 -2.2726  0.8459
27270SOL     OW86494   4.956  10.513  10.694 -0.3736  0.0845 -0.1499
27270SOL    HW186495   4.926  10.490  10.606  2.1447 -0.8788 -0.8516
27270SOL    HW286496   4.920  10.445  10.751 -2.1790  0.8241 -0.3726
27271SOL     OW86497   0.279   9.107  10.598 -0.2493 -0.3085  0.1620
27271SOL    HW186498   0.357   9.063  10.564 -0.6690 -1.4661  0.6659
27271SOL    HW286499   0.208   9.080  10.540 -0.3956  0.2785  0.0554
27272SOL     OW86500  11.738   9.679   5.455 -0.2335 -0.4159  0.3090
27272SOL    HW186501  11.744   9.655   5.547  1.4158 -0.6477  0.1624
27272SOL    HW286502  11.711   9.771   5.456 -1.2925 -0.7129  0.9734
27273SOL     OW86503   7.147   2.869   6.094  0.4813  0.4081  0.3535
27273SOL    HW186504   7.232   2.826   6.094 -0.0187 -0.6892 -1.7272
27273SOL    HW286505   7.160   2.946   6.038  0.5580  1.2814  1.5405
27274SOL     OW86506  10.728   1.583  10.273 -0.1775  0.2352  0.2294
27274SOL    HW186507  10.633   1.584  10.281 -0.4049 -1.5639 -1.3813
27274SOL    HW286508  10.746   1.636  10.195  0.1365  0.5176  0.4929
27275SOL     OW86509  11.337   3.879   4.888  0.2371  0.7317  0.8446
27275SOL    HW186510  11.392   3.808   4.854 -1.6126 -0.5420  0.3447
27275SOL    HW286511  11.340   3.946   4.820 -0.5021 -0.2408 -0.1790
27276SOL     OW86512  11.209  10.637   3.712  0.0498  0.5999  0.1067
27276SOL    HW186513  11.158  10.702   3.760  0.8842  0.9288  0.5531
27276SOL    HW286514  11.273  10.604   3.775 -0.6945 -1.0482  0.0485
27277SOL     OW86515   5.621   5.088   9.598  0.9823  0.0362 -0.0466
27277SOL    HW186516   5.628   5.089   9.694  0.8641 -1.9196  0.0185
27277SOL    HW286517   5.551   5.151   9.579  1.6306  1.1377  1.0674
27278SOL     OW86518   5.740   3.195   9.892  0.2663  0.2261 -0.1366
27278SOL    HW186519   5.782   3.182   9.977 -1.2398 -1.6529  0.3953
27278SOL    HW286520   5.653   3.155   9.902  0.2707 -0.6043 -2.7373
27279SOL     OW86521   6.443   7.866   3.328 -0.1978 -0.1295  0.2275
27279SOL    HW186522   6.347   7.865   3.323 -0.2384 -1.0214  0.9196
27279SOL    HW286523   6.467   7.957   3.311 -1.2287  0.2957  0.9522
27280SOL     OW86524   6.104  11.302   3.013 -0.2355  0.5164  0.4614
27280SOL    HW186525   6.114  11.381   2.959 -0.5398 -0.0351 -0.4257
27280SOL    HW286526   6.012  11.278   3.003 -0.2385  0.2793  1.0556
27281SOL     OW86527  10.317   4.390   4.823  0.1442 -0.3516 -0.3418
27281SOL    HW186528  10.348   4.380   4.733 -0.1862 -1.0103 -0.3860
27281SOL    HW286529  10.243   4.451   4.816 -0.3688 -1.0019 -0.6229
27282SOL     OW86530   2.760   0.697   1.130 -0.3628  0.3786 -0.5068
27282SOL    HW186531   2.798   0.715   1.216  0.2206 -0.1368 -0.6480
27282SOL    HW286532   2.687   0.758   1.123 -2.1860 -1.4231  1.5057
27283SOL     OW86533  11.179   3.873   4.425 -0.1557  0.7614  0.1846
27283SOL    HW186534  11.270   3.843   4.426 -0.2364  0.3887 -0.9813
27283SOL    HW286535  11.128   3.793   4.438 -0.3672  0.2740 -2.7443
27284SOL     OW86536   0.254   1.501   7.963 -0.0695 -0.3712 -0.3686
27284SOL    HW186537   0.199   1.425   7.981 -0.0917 -0.3026 -0.1421
27284SOL    HW286538   0.196   1.562   7.917 -0.2198 -0.2488 -0.0203
27285SOL     OW86539  11.382  10.245   1.536  0.1275  0.2222  0.2250
27285SOL    HW186540  11.348  10.162   1.503  1.7288 -0.2957 -0.2048
27285SOL    HW286541  11.316  10.310   1.511 -1.9818 -1.0816  1.9928
27286SOL     OW86542   2.343  11.717   0.073 -0.4052  0.2128 -0.1226
27286SOL    HW186543   2.375  11.632   0.043 -2.8986 -0.6646 -0.5413
27286SOL    HW286544   2.409  11.780   0.042  0.6288 -1.3869 -1.3251
27287SOL     OW86545   7.534   9.881   9.648  0.4689  0.0657 -0.6140
27287SOL    HW186546   7.502   9.959   9.603  1.3089 -0.0402 -1.4123
27287SOL    HW286547   7.611   9.854   9.598  1.9737  0.4498  1.3740
27288SOL     OW86548   6.979   6.887   4.090  0.0593  0.4180 -0.0742
27288SOL    HW186549   6.983   6.856   4.181 -0.6900  0.3574 -0.0517
27288SOL    HW286550   7.059   6.937   4.078  0.6954 -0.4866  0.2842
27289SOL     OW86551   3.132  10.011   8.488  0.0144 -0.3175 -0.2034
27289SOL    HW186552   3.068   9.942   8.471 -0.7950  0.4727 -0.4597
27289SOL    HW286553   3.201   9.997   8.423 -1.0677  0.2336 -1.5083
27290SOL     OW86554   3.031   6.394   8.847  0.1811  0.9243  0.1724
27290SOL    HW186555   3.060   6.305   8.828  1.4703  1.0294  1.4764
27290SOL    HW286556   3.003   6.391   8.939  2.7358  2.3927  1.1037
27291SOL     OW86557   8.153   3.355   4.459 -0.0927 -0.2919  0.3466
27291SOL    HW186558   8.068   3.386   4.490 -1.1238 -2.3373 -0.2407
27291SOL    HW286559   8.147   3.361   4.363  0.0426 -1.3155  0.2658
27292SOL     OW86560   9.807   1.496   1.844  0.2929 -0.0447 -0.0145
27292SOL    HW186561   9.868   1.541   1.902 -0.7259  1.8142 -0.3058
27292SOL    HW286562   9.742   1.457   1.902  2.1075 -2.7643  0.3558
27293SOL     OW86563  10.753   3.246  11.272 -0.0224  0.1757 -0.3288
27293SOL    HW186564  10.691   3.296  11.218  0.3579  0.7713 -0.2262
27293SOL    HW286565  10.753   3.292  11.357  2.6010  1.9133 -1.1319
27294SOL     OW86566   7.499  10.715   5.634  0.2411 -0.0477  0.0818
27294SOL    HW186567   7.495  10.712   5.730 -0.2020 -0.3717  0.0524
27294SOL    HW286568   7.410  10.734   5.607  0.5351  0.9325 -0.2408
27295SOL     OW86569  10.808   4.131   4.068 -0.3072 -0.5321 -0.0105
27295SOL    HW186570  10.865   4.077   4.122 -0.2742  0.2561  0.7727
27295SOL    HW286571  10.773   4.072   4.002 -0.3019 -1.5051  0.8445
27296SOL     OW86572  11.786  10.411   6.862 -0.3523  0.6066 -0.4121
27296SOL    HW186573  11.864  10.444   6.906 -1.2416  0.8964  0.9981
27296SOL    HW286574  11.714  10.432   6.921 -1.5168  0.3982 -1.7062
27297SOL     OW86575   4.699   7.318  11.048 -0.7056 -0.2538  0.5843
27297SOL    HW186576   4.715   7.399  11.096  0.5227  0.0764 -0.3284
27297SOL    HW286577   4.709   7.342  10.956 -0.5122 -1.4009  0.2870
27298SOL     OW86578   0.285   1.435   1.852  0.1077  0.1552 -0.1313
27298SOL    HW186579   0.330   1.360   1.813  0.9637  1.0118 -0.8406
27298SOL    HW286580   0.219   1.396   1.909 -0.2564 -1.1436 -1.3734
27299SOL     OW86581   6.820   9.834   7.069  0.0400  0.1287 -0.2572
27299SOL    HW186582   6.786   9.895   7.004  0.9813 -0.9328 -1.8244
27299SOL    HW286583   6.758   9.838   7.142 -1.8120  0.3872 -1.7754
27300SOL     OW86584   2.156   8.424   6.123 -0.3715  0.1164  0.5616
27300SOL    HW186585   2.134   8.448   6.033 -1.0214 -2.0867  0.0809
27300SOL    HW286586   2.076   8.440   6.173 -0.8418 -1.0199  0.2177
27301SOL     OW86587   6.258  10.209   4.821 -0.1627  0.0141 -0.5150
27301SOL    HW186588   6.323  10.141   4.803  0.1744  0.1013  0.3405
27301SOL    HW286589   6.278  10.240   4.910 -1.8956 -0.5504  0.1239
27302SOL     OW86590  11.539   2.759   9.705  0.4852 -0.5797 -0.0907
27302SOL    HW186591  11.598   2.700   9.753  0.2824 -0.6409  0.0859
27302SOL    HW286592  11.475   2.702   9.665  0.8665 -0.5572 -0.7400
27303SOL     OW86593  10.192   0.706   4.156 -0.1816  0.4376 -0.3629
27303SOL    HW186594  10.100   0.732   4.161 -0.9641 -1.7188 -2.1209
27303SOL    HW286595  10.212   0.707   4.063  2.5591  3.6975  0.0563
27304SOL     OW86596   7.962  11.183   2.875  0.2232 -0.0616  0.2196
27304SOL    HW186597   8.039  11.226   2.837 -0.3783  0.5794 -0.2998
27304SOL    HW286598   7.903  11.254   2.898  0.0582 -0.5126  1.2535
27305SOL     OW86599   8.006   6.462  11.412  0.4086  0.2670 -0.6109
27305SOL    HW186600   7.956   6.541  11.433  1.0614  0.4011  0.5002
27305SOL    HW286601   8.083   6.494  11.365 -0.5347  0.0527 -2.4044
27306SOL     OW86602  11.042  10.528   7.964  0.2113 -0.1202 -0.5448
27306SOL    HW186603  11.008  10.449   7.922  0.5656 -0.5337 -0.0617
27306SOL    HW286604  10.965  10.569   8.003 -0.3052  0.7910 -2.3849
27307SOL     OW86605   0.695  10.400   0.011 -0.0984  0.6429  0.1140
27307SOL    HW186606   0.710  10.494   0.021  1.3459  0.4745 -0.3237
27307SOL    HW286607   0.698  10.366   0.101  0.3136  0.8824  0.1911
27308SOL     OW86608   2.219   9.042  10.098 -0.3326  0.0000 -0.2584
27308SOL    HW186609   2.256   9.129  10.084 -1.7408  0.5799 -0.5137
27308SOL    HW286610   2.259   9.012  10.179  1.1527  0.3348 -0.8395
27309SOL     OW86611   7.492  10.654   3.635 -0.0386  0.4274  0.1443
27309SOL    HW186612   7.577  10.617   3.661  0.0193  1.5125  1.6106
27309SOL    HW286613   7.454  10.587   3.579  0.7514 -1.1765  1.4274
27310SOL     OW86614   0.146   9.803   7.721  0.4215 -0.3081  0.4354
27310SOL    HW186615   0.124   9.757   7.802  2.0092  0.6329  1.4580
27310SOL    HW286616   0.107   9.750   7.651 -0.6609 -1.3387  1.7852
27311SOL     OW86617   1.296   0.512  11.258 -0.2273  0.0597 -0.4405
27311SOL    HW186618   1.336   0.529  11.343  1.4592  0.1226 -1.1987
27311SOL    HW286619   1.217   0.462  11.278 -0.3519  0.8514  1.2037
27312SOL     OW86620   0.131   4.621   2.739  0.0519 -0.5936 -0.2151
27312SOL    HW186621   0.150   4.648   2.649  1.4644 -0.7750  0.0044
27312SOL    HW286622   0.090   4.698   2.779  0.5320 -0.0899 -0.6717
27313SOL     OW86623   8.776   8.626   7.660  0.0314  0.0648 -0.1046
27313SOL    HW186624   8.845   8.561   7.651  0.8516  0.7457  0.9814
27313SOL    HW286625   8.820   8.710   7.645 -0.4411  0.5468  1.0778
27314SOL     OW86626   3.575  10.397   1.269 -0.0515  0.5738  0.1522
27314SOL    HW186627   3.576  10.313   1.316  3.9066 -0.4615 -1.3606
27314SOL    HW286628   3.622  10.457   1.327 -1.0216  1.1783  0.3261
27315SOL     OW86629   8.944  10.992   5.386  0.2612 -0.3229 -0.3368
27315SOL    HW186630   8.875  10.972   5.323 -0.7808  1.4558  0.1641
27315SOL    HW286631   8.910  11.066   5.437  2.6429  0.8380 -0.2662
27316SOL     OW86632   0.308   0.853   7.955  0.2019 -0.3693  0.2048
27316SOL    HW186633   0.310   0.946   7.933  1.3189 -0.1157  1.2134
27316SOL    HW286634   0.215   0.830   7.957 -0.0575  0.5414 -0.7710
27317SOL     OW86635   3.715   2.655   4.993  0.1065 -0.5020  0.0950
27317SOL    HW186636   3.671   2.571   5.004  0.8029 -1.0709 -1.1983
27317SOL    HW286637   3.644   2.718   4.984 -0.4582 -1.2161 -0.6735
27318SOL     OW86638   9.407   4.951   1.387 -0.9008 -0.0511 -0.4731
27318SOL    HW186639   9.444   5.029   1.429 -1.7400 -0.0275  0.2693
27318SOL    HW286640   9.318   4.978   1.362 -1.2801 -0.8176 -0.0067
27319SOL     OW86641   6.159   7.615   3.908  0.1112 -0.0852 -0.0165
27319SOL    HW186642   6.171   7.521   3.892 -1.3938 -0.2314 -0.3559
27319SOL    HW286643   6.213   7.657   3.841 -0.3164 -0.7070 -0.7672
27320SOL     OW86644   5.740  11.260   8.426  0.2713  0.4607  0.2497
27320SOL    HW186645   5.681  11.250   8.351  0.7944  0.6656 -0.1897
27320SOL    HW286646   5.700  11.207   8.495  0.4738 -0.7748 -0.5657
27321SOL     OW86647   5.586  10.838   7.797  1.0842 -0.2302 -0.0929
27321SOL    HW186648   5.653  10.896   7.762 -0.6144  1.2079 -1.1185
27321SOL    HW286649   5.577  10.770   7.731  1.6022 -0.5055  0.1128
27322SOL     OW86650   6.603   8.532   1.301  0.3105  0.0847 -0.0459
27322SOL    HW186651   6.567   8.580   1.376  2.3871  1.1789  0.3166
27322SOL    HW286652   6.615   8.443   1.334 -2.4745 -0.5086 -0.3634
27323SOL     OW86653   9.150   5.147   9.393 -0.8635  0.2733  0.1630
27323SOL    HW186654   9.095   5.225   9.405 -0.5200  0.3396  1.5635
27323SOL    HW286655   9.115   5.084   9.456  1.8258  1.0178  2.6250
27324SOL     OW86656   5.785  11.538   3.972  0.6823  0.2820 -0.7329
27324SOL    HW186657   5.830  11.602   3.917 -1.1274  1.9214 -0.4235
27324SOL    HW286658   5.794  11.573   4.061  1.9933 -1.3738 -0.1552
27325SOL     OW86659   4.430   2.251  11.860 -0.1151  0.1825  0.2723
27325SOL    HW186660   4.383   2.319  11.909 -0.5606 -0.9682  1.5144
27325SOL    HW286661   4.519   2.253  11.896 -0.2965 -0.2935  0.7663
27326SOL     OW86662   3.576   3.527   4.856  0.1591  0.5542  0.2153
27326SOL    HW186663   3.553   3.437   4.835  1.7766  0.0579  0.3757
27326SOL    HW286664   3.670   3.524   4.874  0.0931  2.1229  1.0698
27327SOL     OW86665   7.870   3.578   6.287  0.5713  0.3693  0.1985
27327SOL    HW186666   7.879   3.487   6.315 -1.0433  0.3270  0.6820
27327SOL    HW286667   7.902   3.579   6.197 -0.1946 -0.8616 -0.1129
27328SOL     OW86668   8.579   2.298  10.403  0.1197  0.0552  0.4285
27328SOL    HW186669   8.500   2.285  10.456  0.1181  1.1400  0.7132
27328SOL    HW286670   8.644   2.329  10.466  0.1328  1.3059 -0.1767
27329SOL     OW86671   7.238   0.530   5.964  1.0759  0.4973 -0.4803
27329SOL    HW186672   7.227   0.499   6.054 -0.0174  0.0697 -0.7354
27329SOL    HW286673   7.225   0.624   5.969 -1.5148  0.2220 -0.5018
27330SOL     OW86674  10.327   0.495   0.515  0.5693  0.6267 -0.3455
27330SOL    HW186675  10.404   0.438   0.508  0.9637  1.0714  0.3551
27330SOL    HW286676  10.257   0.437   0.544  1.3954  0.8120  2.2371
27331SOL     OW86677   1.491  10.579   7.867  0.5249 -0.2514  0.2935
27331SOL    HW186678   1.521  10.608   7.782  1.0282 -0.7284  0.2984
27331SOL    HW286679   1.563  10.525   7.901 -0.0389 -0.8206  0.6206
27332SOL     OW86680   3.844   9.744   1.707 -0.1135 -0.0485  0.1176
27332SOL    HW186681   3.902   9.696   1.648 -0.5092 -0.5954  0.1626
27332SOL    HW286682   3.858   9.701   1.792  1.0458  1.2381  0.6152
27333SOL     OW86683   7.604   2.595   4.906  0.2374  0.4018 -0.1333
27333SOL    HW186684   7.682   2.626   4.952  1.2747 -2.4231  0.2728
27333SOL    HW286685   7.533   2.606   4.968  1.3485 -1.9222  1.7133
27334SOL     OW86686   3.682   2.759   0.262 -0.4007  0.1596 -0.6408
27334SOL    HW186687   3.629   2.684   0.291 -1.9097  2.1735  2.2333
27334SOL    HW286688   3.621   2.814   0.213  0.1018  0.5285 -0.8516
27335SOL     OW86689   9.747  10.635   7.215  0.0222  0.1376 -0.3748
27335SOL    HW186690   9.788  10.658   7.298  1.0241  0.4756 -0.9365
27335SOL    HW286691   9.685  10.705   7.198 -1.1617 -0.6115  0.7104
27336SOL     OW86692   8.435  10.240   3.457  0.0936 -0.6979  0.4245
27336SOL    HW186693   8.498  10.263   3.525  0.8969 -2.3751  0.2817
27336SOL    HW286694   8.354  10.283   3.484  0.8862  0.2381  1.4131
27337SOL     OW86695   9.954   5.007   6.117 -0.2971 -0.4245  0.3004
27337SOL    HW186696   9.900   5.061   6.058  0.6821  0.2344 -0.0303
27337SOL    HW286697   9.893   4.944   6.154 -0.6961 -2.0607 -2.7711
27338SOL     OW86698   4.777  11.048   1.204 -0.3498  0.0306 -0.1725
27338SOL    HW186699   4.756  11.134   1.166  1.3463  0.8566  0.6524
27338SOL    HW286700   4.766  11.060   1.298 -2.4992 -1.4200 -0.1596
27339SOL     OW86701   0.179   1.239   3.362  0.3032 -0.4216 -0.1484
27339SOL    HW186702   0.252   1.259   3.303  0.6099 -1.2447 -0.0581
27339SOL    HW286703   0.221   1.221   3.447 -0.0655 -0.1555  0.0939
27340SOL     OW86704   5.868  10.096   5.584 -0.3481 -0.0243  0.2885
27340SOL    HW186705   5.886  10.180   5.625  0.7016  0.2291 -0.6340
27340SOL    HW286706   5.793  10.113   5.528 -1.2272 -0.1520  1.3965
27341SOL     OW86707   4.382   3.443   2.976 -0.1516 -0.2577 -0.0516
27341SOL    HW186708   4.475   3.435   3.000  0.4583  1.0396 -1.6971
27341SOL    HW286709   4.354   3.524   3.017 -1.0284 -1.3750  1.6525
27342SOL     OW86710   7.671   9.935   6.871  0.0747 -0.5043  0.3079
27342SOL    HW186711   7.599   9.997   6.863 -0.5935 -0.5797  4.0705
27342SOL    HW286712   7.652   9.867   6.806 -2.5939  0.0866  0.3823
27343SOL     OW86713   5.220   9.036   1.078 -0.2909  0.1946 -0.2927
27343SOL    HW186714   5.257   8.956   1.040 -1.0301 -0.5644  0.5316
27343SOL    HW286715   5.294   9.077   1.124 -0.0250 -0.2775 -0.2931
27344SOL     OW86716   2.818   4.086  10.276  0.0765  0.1516 -0.7585
27344SOL    HW186717   2.747   4.076  10.212  0.3335  2.1490 -1.4048
27344SOL    HW286718   2.897   4.062  10.228  0.2861  1.7810 -1.2857
27345SOL     OW86719   6.728   0.403   9.685 -0.7657 -0.2544 -0.2098
27345SOL    HW186720   6.725   0.379   9.778 -2.3661  0.1386 -0.1260
27345SOL    HW286721   6.799   0.350   9.649 -0.4908 -0.8388  1.1184
27346SOL     OW86722   8.883   5.758   1.422 -0.1384 -0.5451  0.4851
27346SOL    HW186723   8.894   5.770   1.328 -0.1623 -0.8149  0.4463
27346SOL    HW286724   8.844   5.840   1.453 -0.8531 -0.7464  0.1346
27347SOL     OW86725   7.486  11.071  10.023 -0.4497 -0.2783 -0.4428
27347SOL    HW186726   7.449  11.040   9.941 -1.1865  2.1486 -1.1173
27347SOL    HW286727   7.410  11.086  10.079 -0.1391  0.3293 -0.1753
27348SOL     OW86728  11.369   4.481   7.626  0.4456 -0.8887 -0.2205
27348SOL    HW186729  11.274   4.495   7.624  0.7791  1.8316 -1.3566
27348SOL    HW286730  11.393   4.469   7.534  1.5117  1.4948 -0.3138
27349SOL     OW86731   9.193   4.772  11.357  0.6456  0.5264 -0.0789
27349SOL    HW186732   9.255   4.700  11.350 -0.2534 -0.6400  2.8288
27349SOL    HW286733   9.244   4.844  11.394  0.9268  0.5277 -0.4667
27350SOL     OW86734   4.305   1.265  10.663 -0.0105  0.7065  0.5234
27350SOL    HW186735   4.313   1.258  10.568  0.3061 -2.1761  0.6836
27350SOL    HW286736   4.340   1.352  10.684 -2.8006  2.7347 -2.2035
27351SOL     OW86737   9.387   1.824   4.981 -0.2421 -0.5518 -0.1993
27351SOL    HW186738   9.328   1.749   4.979 -2.1482  0.8252  0.8751
27351SOL    HW286739   9.333   1.898   4.954  1.2577  0.6358 -0.0909
27352SOL     OW86740   3.339   9.202   5.528 -0.1854 -0.2214 -0.1842
27352SOL    HW186741   3.300   9.132   5.475 -0.5878  0.1149 -0.3382
27352SOL    HW286742   3.405   9.157   5.581 -3.7160 -1.8046  3.5016
27353SOL     OW86743   9.941   7.896   2.526  0.4107 -0.1887  0.0708
27353SOL    HW186744   9.869   7.955   2.547 -0.1789 -1.2507  1.1289
27353SOL    HW286745   9.906   7.808   2.541  1.1302 -0.8785 -1.8887
27354SOL     OW86746   6.150   5.449   9.745 -0.2890 -0.1680 -0.5597
27354SOL    HW186747   6.166   5.388   9.817  0.6061 -0.1710 -0.7527
27354SOL    HW286748   6.086   5.404   9.690 -0.7149 -0.3157  0.0383
27355SOL     OW86749   2.931   8.200   7.419  0.5689  0.3108 -0.6399
27355SOL    HW186750   3.016   8.156   7.424  0.6751  0.5407 -0.3704
27355SOL    HW286751   2.881   8.164   7.492 -0.1572 -1.0309 -1.7507
27356SOL     OW86752   5.569  11.304   0.780 -0.3729  0.1341 -0.4581
27356SOL    HW186753   5.476  11.291   0.796 -0.2038 -0.0339  0.4438
27356SOL    HW286754   5.583  11.272   0.691 -1.1187 -0.1291 -0.4835
27357SOL     OW86755   7.245   8.444   0.150  0.8457  0.5748 -0.2055
27357SOL    HW186756   7.300   8.513   0.187  0.2067  1.0173 -0.0652
27357SOL    HW286757   7.163   8.488   0.127  0.7003  0.0123 -0.8102
27358SOL     OW86758   2.546   8.090  10.626 -0.2776 -0.4844 -0.4224
27358SOL    HW186759   2.603   8.073  10.701 -1.5171  0.8135  0.8821
27358SOL    HW286760   2.569   8.178  10.598 -0.5931 -0.5399 -0.8653
27359SOL     OW86761   9.846   1.651   6.852  0.4609  0.2342 -0.5113
27359SOL    HW186762   9.838   1.581   6.788 -1.4587 -0.3268  0.2656
27359SOL    HW286763   9.826   1.610   6.936 -0.9526  1.7123 -0.0606
27360SOL     OW86764   7.126   5.811   5.102 -0.6136 -0.2474 -0.6668
27360SOL    HW186765   7.165   5.846   5.022  1.6583  1.8251  1.2385
27360SOL    HW286766   7.168   5.726   5.113 -0.9980 -0.5898 -1.6639
27361SOL     OW86767   9.199   0.519   9.578 -0.0887  0.1136  0.0316
27361SOL    HW186768   9.261   0.491   9.510 -0.1690 -1.1110  0.4315
27361SOL    HW286769   9.195   0.444   9.638  0.4246  1.3728  1.7011
27362SOL     OW86770   0.800   0.178  11.487 -0.1784 -0.0639 -0.1129
27362SOL    HW186771   0.811   0.103  11.546 -0.0250 -0.8373 -1.0821
27362SOL    HW286772   0.800   0.139  11.399 -2.2330  0.8251 -0.5660
27363SOL     OW86773   3.890   8.324   4.589 -1.0633  0.0400  0.2040
27363SOL    HW186774   3.891   8.372   4.506 -2.0749  0.8632  0.6451
27363SOL    HW286775   3.802   8.337   4.624  0.2040  2.4689  2.9656
27364SOL     OW86776   8.893   4.271   2.708 -0.3294  0.0246 -0.1305
27364SOL    HW186777   8.842   4.329   2.764  1.5264  1.7996 -0.1640
27364SOL    HW286778   8.984   4.285   2.736  0.4625 -0.4860 -2.2660
27365SOL     OW86779   3.440   7.228   2.182 -0.0136 -0.0800  0.1169
27365SOL    HW186780   3.366   7.171   2.202  0.2760 -0.4004  0.2927
27365SOL    HW286781   3.464   7.205   2.092 -1.2968  1.3388 -0.6265
27366SOL     OW86782   7.304   6.626   7.201 -0.0715 -0.3675 -0.2200
27366SOL    HW186783   7.227   6.664   7.158  0.2568  0.6857  0.0917
27366SOL    HW286784   7.360   6.701   7.221  1.3613 -1.1659 -1.0326
27367SOL     OW86785   3.178   0.128   3.752 -0.4272 -0.7736  0.0951
27367SOL    HW186786   3.200   0.037   3.775 -0.9101 -1.1428 -0.8819
27367SOL    HW286787   3.187   0.175   3.835 -0.2738 -1.7291  0.6466
27368SOL     OW86788   6.378   3.514   1.928  0.1700 -0.0446  0.2954
27368SOL    HW186789   6.368   3.422   1.953  0.3308 -0.2973 -0.5172
27368SOL    HW286790   6.458   3.516   1.875  0.6200  0.7165  0.9768
27369SOL     OW86791   3.313   4.706   2.171  0.5066 -0.1520  0.0231
27369SOL    HW186792   3.364   4.712   2.090 -0.3698 -3.7094 -0.9647
27369SOL    HW286793   3.377   4.682   2.238  0.8063 -0.0635 -0.2302
27370SOL     OW86794   3.118   1.890   5.843 -0.0064 -0.4983  0.4682
27370SOL    HW186795   3.210   1.893   5.817 -0.2810  0.2473 -0.4444
27370SOL    HW286796   3.109   1.806   5.888  1.2097 -0.4008  0.9402
27371SOL     OW86797   0.789   4.748  11.140 -0.5678  0.1745 -0.3282
27371SOL    HW186798   0.822   4.661  11.162 -0.1545 -0.0770 -1.8480
27371SOL    HW286799   0.781   4.748  11.045 -0.8687  1.6949 -0.3337
27372SOL     OW86800   9.178   1.112   5.973 -0.0410  0.4618  0.0645
27372SOL    HW186801   9.201   1.203   5.954  0.4441  0.2867 -0.1962
27372SOL    HW286802   9.252   1.079   6.023 -0.0505  0.0961 -0.1654
27373SOL     OW86803   9.717   4.749   9.090 -0.0841  0.0612  0.0084
27373SOL    HW186804   9.768   4.784   9.163 -0.3098 -1.6122  0.9969
27373SOL    HW286805   9.746   4.659   9.080  0.1006  0.2862 -2.1479
27374SOL     OW86806   4.877   3.900  10.412  0.4258 -0.3660  0.3906
27374SOL    HW186807   4.911   3.868  10.496 -0.4357 -0.1967  0.8095
27374SOL    HW286808   4.954   3.937  10.369  0.5787  1.0843  1.8181
27375SOL     OW86809   5.186   7.400  10.978 -0.0611  0.6086  0.0223
27375SOL    HW186810   5.144   7.318  10.953  1.3344  0.0884 -0.7783
27375SOL    HW286811   5.172   7.407  11.072 -0.3250 -0.4940  0.0795
27376SOL     OW86812   5.683   9.577   5.042 -0.2713 -0.0573  0.5106
27376SOL    HW186813   5.738   9.546   4.970 -0.9406 -0.3257  0.1070
27376SOL    HW286814   5.640   9.655   5.008  0.4035  0.5746  1.0780
27377SOL     OW86815   2.626   9.648  11.785 -0.6464  0.0360 -0.3283
27377SOL    HW186816   2.687   9.579  11.759 -0.7437 -0.6305  1.1054
27377SOL    HW286817   2.555   9.643  11.721 -1.1934 -1.9495  0.3744
27378SOL     OW86818  10.346  11.125   8.611 -0.3437  0.0270  0.0462
27378SOL    HW186819  10.367  11.184   8.539 -0.5221 -0.3167 -0.2929
27378SOL    HW286820  10.425  11.072   8.622 -0.6299 -0.5266 -0.5000
27379SOL     OW86821   2.404   1.105   6.811 -0.0678 -0.0951  0.3697
27379SOL    HW186822   2.433   1.125   6.722  1.8734  0.1026  1.0116
27379SOL    HW286823   2.465   1.152   6.868 -0.2797 -1.4929  1.8334
27380SOL     OW86824   3.720   0.843   0.298  0.5896  0.2697  0.2799
27380SOL    HW186825   3.680   0.822   0.214  0.5882  2.1263 -0.2251
27380SOL    HW286826   3.727   0.938   0.298  3.0712  0.1589  1.2496
27381SOL     OW86827  10.170  11.395   1.780  0.0655 -0.4440  0.4179
27381SOL    HW186828  10.161  11.487   1.805  0.7131 -0.0069 -0.9014
27381SOL    HW286829  10.236  11.395   1.711 -1.6461 -1.5992 -1.3199
27382SOL     OW86830   5.189   9.211   4.169 -0.2932  0.1632 -0.4949
27382SOL    HW186831   5.123   9.274   4.139 -2.0543 -0.8649  1.0498
27382SOL    HW286832   5.214   9.164   4.089 -0.1496  1.6747 -1.3877
27383SOL     OW86833   3.178   1.962   4.456 -0.0362  0.5722 -0.1307
27383SOL    HW186834   3.163   2.030   4.522 -0.1116  1.4883 -1.0680
27383SOL    HW286835   3.168   2.007   4.372 -3.3876 -1.2491 -0.8925
27384SOL     OW86836   6.271  11.022   4.757 -0.3532  0.0327  0.7743
27384SOL    HW186837   6.199  11.073   4.719  0.3557 -0.4155 -1.2741
27384SOL    HW286838   6.334  11.089   4.785 -1.2565  0.4029  2.0482
27385SOL     OW86839   9.759   7.790   2.898 -0.4233 -0.2234  0.1056
27385SOL    HW186840   9.747   7.739   2.818 -2.2726  0.4337 -0.0864
27385SOL    HW286841   9.852   7.812   2.899 -0.0864 -1.4646 -1.0938
27386SOL     OW86842   4.716  10.495   8.518  0.2953 -0.9712 -0.0197
27386SOL    HW186843   4.724  10.527   8.429 -3.5327 -1.9070 -0.8769
27386SOL    HW286844   4.799  10.451   8.535  1.4539 -0.0776 -2.7863
27387SOL     OW86845   2.707  10.250  10.586  0.3065 -0.9885 -0.1028
27387SOL    HW186846   2.749  10.231  10.670 -0.9541  0.1446  0.8093
27387SOL    HW286847   2.623  10.205  10.591 -1.0177  1.3916  0.4776
27388SOL     OW86848   9.063   8.934   8.201  0.7378  0.0814  1.0362
27388SOL    HW186849   9.079   9.025   8.226 -0.7605  0.9146 -0.8083
27388SOL    HW286850   8.971   8.920   8.223  0.6965 -0.6687  0.3982
27389SOL     OW86851   6.489   9.802  11.482  0.6532  0.2530  0.5688
27389SOL    HW186852   6.574   9.765  11.461  0.6390  0.0916  0.8012
27389SOL    HW286853   6.429   9.760  11.421  0.4830 -0.7981  1.4279
27390SOL     OW86854   5.444   4.723  11.870  0.2401 -0.3712  0.1601
27390SOL    HW186855   5.537   4.706  11.882  0.0613 -1.3338  0.3155
27390SOL    HW286856   5.405   4.706  11.956  0.0961  1.4920  0.5019
27391SOL     OW86857   2.312  10.433   1.973  0.0763  0.2465  0.2120
27391SOL    HW186858   2.244  10.407   1.910  1.0452 -1.2173 -0.2787
27391SOL    HW286859   2.361  10.352   1.989  2.8316  1.6171 -0.8106
27392SOL     OW86860   8.558  11.611   5.451  0.4061 -0.0241  0.4834
27392SOL    HW186861   8.545  11.650   5.364  0.2071 -0.3216  0.3808
27392SOL    HW286862   8.649  11.634   5.474 -0.0246  1.4104  0.8768
27393SOL     OW86863   0.277  11.945  10.215 -0.0803 -0.1869 -0.0920
27393SOL    HW186864   0.299  11.987  10.132  1.3548  2.2422  1.3798
27393SOL    HW286865   0.242  12.016  10.269  1.0591 -1.1581  2.0739
27394SOL     OW86866  11.135   4.394   3.187  0.5575 -0.4838  0.0899
27394SOL    HW186867  11.068   4.379   3.254  0.6657  2.0343  0.8928
27394SOL    HW286868  11.098   4.462   3.130  1.8576 -0.0327 -0.2710
27395SOL     OW86869   5.801   5.615  11.000 -0.4169 -0.5228  0.9036
27395SOL    HW186870   5.764   5.701  10.979 -0.0707 -0.7182 -0.6448
27395SOL    HW286871   5.839   5.584  10.917  0.4246 -1.6979  1.6860
27396SOL     OW86872   8.574   7.334   9.572  0.3020 -0.3001  0.4847
27396SOL    HW186873   8.624   7.300   9.498  0.6038  0.1482  0.4777
27396SOL    HW286874   8.641   7.368   9.632 -0.0273  1.1267  0.0781
27397SOL     OW86875   7.896   0.493   9.819  0.8030 -0.1816 -0.1656
27397SOL    HW186876   7.815   0.508   9.770  0.3942  0.9464  0.8138
27397SOL    HW286877   7.959   0.552   9.778 -0.0836  2.3778  1.9111
27398SOL     OW86878   5.993   9.241   3.190 -0.0237  0.4364 -0.3829
27398SOL    HW186879   5.960   9.158   3.225 -0.8387  0.2414 -1.5243
27398SOL    HW286880   6.021   9.219   3.101 -0.3029  1.3925 -0.7173
27399SOL     OW86881   7.743   7.612  10.075  1.0413  0.5707 -0.0821
27399SOL    HW186882   7.836   7.589  10.072  1.0430  0.4021  0.8864
27399SOL    HW286883   7.738   7.683  10.139  0.4830  0.4784 -0.0196
27400SOL     OW86884   1.578   3.414   6.319  0.1000  0.7173 -0.0225
27400SOL    HW186885   1.619   3.497   6.295  0.1145  0.6002 -0.4019
27400SOL    HW286886   1.651   3.352   6.325  0.0468  0.6478 -0.0984
27401SOL     OW86887   4.725   4.470   0.412 -0.1338 -0.4529  0.1497
27401SOL    HW186888   4.779   4.392   0.400  0.0899 -0.3568  0.5066
27401SOL    HW286889   4.743   4.523   0.334  1.0340  0.0058  0.6971
27402SOL     OW86890   3.232   9.750   1.938  0.3501  0.2681 -0.1012
27402SOL    HW186891   3.198   9.839   1.946  0.1563  0.0625  1.6886
27402SOL    HW286892   3.321   9.754   1.970 -0.2776 -0.5151  1.9026
27403SOL     OW86893  11.375   1.088   3.042  0.1673 -0.6196 -0.1666
27403SOL    HW186894  11.367   1.002   3.000  0.5084  0.2594 -2.1388
27403SOL    HW286895  11.320   1.146   2.989 -2.2551 -0.0457  2.6799
27404SOL     OW86896   0.150   5.838   2.557 -0.3758 -0.1282  0.0736
27404SOL    HW186897   0.092   5.912   2.575  0.3081  0.5571 -0.4255
27404SOL    HW286898   0.163   5.796   2.642  0.4743  1.2761  0.6656
27405SOL     OW86899   8.717   0.937   1.081  0.6556 -0.3719  0.3940
27405SOL    HW186900   8.701   0.933   1.175  3.7381 -2.7099  0.9474
27405SOL    HW286901   8.807   0.967   1.073  0.1868  0.6980 -1.9409
27406SOL     OW86902   2.362   9.280  10.833  0.3906 -0.2512 -0.0951
27406SOL    HW186903   2.267   9.278  10.846  0.4984 -0.9195  0.7403
27406SOL    HW286904   2.398   9.248  10.916  1.4753  2.6100  0.6666
27407SOL     OW86905   2.855   8.595   0.972 -0.0651  0.1988  0.1458
27407SOL    HW186906   2.821   8.630   1.054  1.7910  0.6109  0.7994
27407SOL    HW286907   2.779   8.589   0.914 -1.3453  0.2673  1.7535
27408SOL     OW86908   3.410  10.376   7.903 -0.3988 -0.0158  0.1644
27408SOL    HW186909   3.392  10.436   7.976  1.9880 -1.4262  2.0684
27408SOL    HW286910   3.386  10.290   7.937  2.1694 -0.9007 -0.0363
27409SOL     OW86911   9.832   9.996   4.458  0.2722 -0.0142 -0.2974
27409SOL    HW186912   9.771  10.065   4.432  0.4853  1.4037  2.5201
27409SOL    HW286913   9.792   9.955   4.534  2.1671  0.0414  0.8019
27410SOL     OW86914  10.546   4.670   8.281 -0.3227 -0.3137  0.4235
27410SOL    HW186915  10.568   4.584   8.247  1.1139 -0.2621  1.1713
27410SOL    HW286916  10.601   4.731   8.232 -0.3909  0.0460  0.7861
27411SOL     OW86917   9.028   2.924   7.099 -0.1280  0.0244 -0.4145
27411SOL    HW186918   8.985   2.899   7.180  2.2084 -1.0042  0.5904
27411SOL    HW286919   9.058   2.842   7.061  0.1441  0.6183 -1.5312
27412SOL     OW86920  11.740   2.731   1.608 -0.1047  0.0154 -0.4660
27412SOL    HW186921  11.786   2.665   1.659  0.8212  1.2349  0.3164
27412SOL    HW286922  11.647   2.709   1.620  0.1704 -1.0433 -0.1144
27413SOL     OW86923   5.965   1.138   6.391  0.5019 -0.4770  0.1620
27413SOL    HW186924   6.034   1.168   6.331 -0.7113  2.6020  0.1104
27413SOL    HW286925   6.000   1.156   6.478 -0.2124  1.3618  0.1317
27414SOL     OW86926   7.055   0.669   4.821 -0.0706 -0.0866  0.1502
27414SOL    HW186927   7.000   0.664   4.743 -2.3899  0.5435  1.6532
27414SOL    HW286928   6.995   0.650   4.894  1.8676 -0.0524  1.8382
27415SOL     OW86929   9.437   6.687   5.566 -0.4309  0.0122  0.0145
27415SOL    HW186930   9.502   6.640   5.515 -0.1516  2.2698 -1.8493
27415SOL    HW286931   9.480   6.705   5.650  1.7133  2.0328 -1.4018
27416SOL     OW86932  10.606   2.785  10.482  0.4522 -0.3655  0.3564
27416SOL    HW186933  10.527   2.767  10.533 -1.0068 -1.4361 -2.1087
27416SOL    HW286934  10.628   2.701  10.442 -0.4867  0.9806 -3.3729
27417SOL     OW86935   1.085   8.782   5.828 -0.7019  0.3044 -0.1336
27417SOL    HW186936   0.994   8.772   5.798 -1.2877 -0.0382  1.6765
27417SOL    HW286937   1.121   8.694   5.820 -0.6522  0.3471 -0.4170
27418SOL     OW86938   9.180   9.870   9.613 -0.0989 -0.0173  0.0940
27418SOL    HW186939   9.116   9.842   9.548  0.1715 -0.2057 -0.0972
27418SOL    HW286940   9.178   9.965   9.610 -0.0536 -0.0249 -0.2314
27419SOL     OW86941   9.424   3.667  10.475 -0.5368 -0.0778 -0.7239
27419SOL    HW186942   9.362   3.738  10.494 -0.7220 -0.2040 -0.8469
27419SOL    HW286943   9.438   3.625  10.560  0.1955  0.5969 -0.4974
27420SOL     OW86944   5.313   7.246   5.544 -0.2910  0.2384 -0.2315
27420SOL    HW186945   5.281   7.283   5.461 -1.1860 -0.3647 -0.1666
27420SOL    HW286946   5.401   7.215   5.523 -0.3272  0.5168 -0.8326
27421SOL     OW86947   5.925   1.452   9.940 -0.1951  0.3541 -0.9460
27421SOL    HW186948   6.010   1.446   9.982 -0.1205  0.5719 -1.0635
27421SOL    HW286949   5.867   1.488  10.007 -0.2635 -0.0664 -0.7747
27422SOL     OW86950   4.993  10.450   2.844  0.0236  0.2970 -0.5895
27422SOL    HW186951   4.928  10.510   2.881  0.7172  2.1079 -2.1459
27422SOL    HW286952   4.989  10.372   2.900 -1.9650  1.1952  0.6162
27423SOL     OW86953  10.869   1.890   9.214 -0.7050  0.1501 -0.2603
27423SOL    HW186954  10.846   1.927   9.129 -1.0300  2.3842  0.7257
27423SOL    HW286955  10.847   1.959   9.277 -2.2980 -2.1026  1.8628
27424SOL     OW86956   7.553  10.492   6.702  0.0241  0.2390 -0.0198
27424SOL    HW186957   7.487  10.542   6.750 -0.7998 -0.6007 -0.2592
27424SOL    HW286958   7.565  10.541   6.620 -1.5385 -0.4596 -0.7079
27425SOL     OW86959   2.527   7.514   9.366 -0.1006  0.3195  0.3771
27425SOL    HW186960   2.480   7.486   9.444  0.6135  0.0140  0.7115
27425SOL    HW286961   2.563   7.433   9.330  1.0067  0.6556  0.6977
27426SOL     OW86962   0.408   4.720   2.873  0.4161  0.2225 -0.2335
27426SOL    HW186963   0.356   4.677   2.805 -1.2353  0.7332  0.6356
27426SOL    HW286964   0.403   4.661   2.948  1.4387  0.0980 -0.2532
27427SOL     OW86965   0.214  11.072   2.893 -0.0917 -0.1396 -0.5153
27427SOL    HW186966   0.252  11.013   2.827 -0.2898  0.3431 -1.0747
27427SOL    HW286967   0.170  11.139   2.841 -1.5754 -0.5890  0.1134
27428SOL     OW86968   6.629   9.563   2.475  0.6041 -0.0481 -0.0665
27428SOL    HW186969   6.544   9.519   2.482  0.9161 -0.4381  1.7621
27428SOL    HW286970   6.613   9.636   2.416 -0.9319 -0.2813  0.0123
27429SOL     OW86971   9.560   0.674  11.235  0.2634 -0.1744 -0.2360
27429SOL    HW186972   9.620   0.675  11.310 -1.7748  1.7371  1.5402
27429SOL    HW286973   9.614   0.648  11.161  3.3352  1.5886  1.1924
27430SOL     OW86974   5.053  10.528   6.592 -0.5979 -0.2747  0.2294
27430SOL    HW186975   5.143  10.518   6.625 -0.7330 -2.2563  0.1351
27430SOL    HW286976   5.060  10.593   6.523  0.6683  0.0050  0.5862
27431SOL     OW86977   0.204   9.029   8.153  0.2283  0.4610  0.5721
27431SOL    HW186978   0.298   9.033   8.166  0.3137 -1.5089  0.9247
27431SOL    HW286979   0.167   9.037   8.241  0.1655 -0.4477  0.6341
27432SOL     OW86980   0.247   7.909   7.576  0.3138 -0.2257  0.2090
27432SOL    HW186981   0.211   7.905   7.487 -0.4401 -1.9803  0.5443
27432SOL    HW286982   0.249   8.002   7.597  1.8724  0.3598 -2.1505
27433SOL     OW86983   0.927   5.917   1.998  0.0789 -0.4526 -0.3202
27433SOL    HW186984   0.987   5.933   2.070 -0.7800 -0.2253  0.3611
27433SOL    HW286985   0.898   5.827   2.011  0.0670 -0.4752 -0.4983
27434SOL     OW86986   9.860   5.290   2.812  0.0113  0.4220 -0.1538
27434SOL    HW186987   9.810   5.252   2.885 -0.8825 -0.0440 -0.9874
27434SOL    HW286988   9.951   5.276   2.836 -0.2768 -0.3989  0.5213
27435SOL     OW86989  10.637   8.151  10.920 -0.1526  0.1097 -0.8215
27435SOL    HW186990  10.629   8.068  10.966 -2.5545  0.5776 -0.2789
27435SOL    HW286991  10.636   8.217  10.988  1.2442  0.6378 -1.2831
27436SOL     OW86992   1.884   6.054   0.389 -0.2028  0.0132  0.0878
27436SOL    HW186993   1.978   6.068   0.400  0.1365 -1.7331 -0.3539
27436SOL    HW286994   1.875   6.017   0.302 -1.0666 -1.6023  0.8246
27437SOL     OW86995  11.693   3.206   0.624  0.0956  0.0413 -0.1938
27437SOL    HW186996  11.776   3.161   0.640  0.5318  1.4979  1.9650
27437SOL    HW286997  11.717   3.283   0.572 -0.2233 -0.5835 -1.2967
27438SOL     OW86998   1.779   9.514   3.017  0.4597  0.2922 -0.4177
27438SOL    HW186999   1.728   9.559   2.950 -1.6121  1.5919  1.8533
27438SOL    HW287000   1.714   9.464   3.066  1.9585 -0.9640  0.3758
27439SOL     OW87001   2.973   2.998   6.586  0.4601  0.1391  0.5761
27439SOL    HW187002   2.995   3.066   6.650  1.3020 -0.6335  1.1403
27439SOL    HW287003   3.058   2.965   6.558  0.0856  0.2035 -0.6767
27440SOL     OW87004  10.269   4.536   0.919  0.4584  0.3656  0.2027
27440SOL    HW187005  10.308   4.501   0.999  1.8172  1.3026 -0.0131
27440SOL    HW287006  10.328   4.505   0.849 -0.4302 -0.0198 -0.3948
27441SOL     OW87007   7.915   1.864   0.753 -0.1959 -0.6955 -0.2554
27441SOL    HW187008   7.971   1.942   0.760  3.1251 -2.9357  0.5076
27441SOL    HW287009   7.890   1.845   0.844 -1.5121 -0.2536 -0.4999
27442SOL     OW87010   6.488   3.582  11.224 -0.8018 -0.0074 -0.0968
27442SOL    HW187011   6.400   3.547  11.235 -0.6635 -0.1816  0.5079
27442SOL    HW287012   6.478   3.656  11.164 -1.3379 -0.1050 -0.1286
27443SOL     OW87013   9.516  10.042   6.580 -0.2080 -0.1932  0.0463
27443SOL    HW187014   9.534  10.132   6.608 -1.9412  0.7778 -1.7086
27443SOL    HW287015   9.541   9.988   6.655 -1.1625  1.9281  1.9872
27444SOL     OW87016   8.781   1.432   0.806 -0.4042  0.0092 -0.0744
27444SOL    HW187017   8.868   1.405   0.836 -0.7471  0.1089  1.0560
27444SOL    HW287018   8.791   1.525   0.785 -0.1191 -0.0974 -0.4157
27445SOL     OW87019   5.777   5.757  11.795  0.0691  0.4799  0.5155
27445SOL    HW187020   5.819   5.680  11.834 -1.6858 -0.6239  0.3429
27445SOL    HW287021   5.755   5.731  11.706 -0.0750  1.3838  0.2706
27446SOL     OW87022   3.659  10.379   3.191 -0.0926 -0.0574  0.0987
27446SOL    HW187023   3.754  10.393   3.185 -0.0376  0.0088  1.0754
27446SOL    HW287024   3.622  10.467   3.195 -0.3675  0.0028 -2.2683
27447SOL     OW87025   9.982   4.454  11.570 -0.0910 -0.0381  0.6665
27447SOL    HW187026  10.063   4.408  11.547  1.5455  1.7513  2.4515
27447SOL    HW287027   9.998   4.545  11.543 -1.4690  0.3733  1.1603
27448SOL     OW87028   3.696  10.718   1.669 -0.1026 -0.6995  0.0622
27448SOL    HW187029   3.631  10.789   1.672 -0.4184 -0.9699  3.2443
27448SOL    HW287030   3.674  10.669   1.590 -0.6678  1.9796 -1.5612
27449SOL     OW87031   8.062   3.493   5.759  0.7318  0.1349 -0.1523
27449SOL    HW187032   8.025   3.578   5.734  0.0488  0.0979  0.6764
27449SOL    HW287033   8.135   3.515   5.816 -0.5777  0.1801  1.5937
27450SOL     OW87034   8.062   9.369  11.060  0.7052 -0.2032  0.3329
27450SOL    HW187035   7.995   9.438  11.066  1.4064  0.4375  1.0002
27450SOL    HW287036   8.064   9.331  11.148  2.4090  0.9507  0.8469
27451SOL     OW87037   9.068   9.815   1.064  0.2096 -0.6804 -0.3786
27451SOL    HW187038   9.035   9.799   0.976 -0.8508  1.0543 -0.3454
27451SOL    HW287039   9.139   9.878   1.052 -1.0264  0.8651  0.0929
27452SOL     OW87040   8.708   9.920  11.087 -0.3042 -0.1705  0.2230
27452SOL    HW187041   8.748   9.909  11.174 -0.7176 -0.7518  0.3525
27452SOL    HW287042   8.781   9.914  11.026 -0.3585 -3.9244  0.2604
27453SOL     OW87043   6.934   0.799   3.089  0.1391  0.1466  0.3791
27453SOL    HW187044   6.977   0.798   3.174 -0.7326 -0.9445  0.8316
27453SOL    HW287045   7.005   0.815   3.027  0.7822  0.9696  1.2945
27454SOL     OW87046   1.588   6.413   7.621 -0.3434 -0.3184 -0.1842
27454SOL    HW187047   1.501   6.372   7.615 -0.4952  0.0635 -0.7280
27454SOL    HW287048   1.637   6.373   7.548  0.1139 -0.9296  0.4467
27455SOL     OW87049   1.865   1.751   6.796  0.1854  0.0444  0.6835
27455SOL    HW187050   1.829   1.699   6.869 -0.4039  0.4105  0.6645
27455SOL    HW287051   1.833   1.707   6.718 -0.2108  0.3512  0.6662
27456SOL     OW87052  10.574   4.687  11.373  0.1186 -0.1571 -0.6814
27456SOL    HW187053  10.546   4.650  11.289  0.3780  0.5261 -1.0709
27456SOL    HW287054  10.647   4.745  11.352 -1.1911  1.7387 -0.2898
27457SOL     OW87055   6.681   7.232   8.459 -0.3030  0.1501  0.5260
27457SOL    HW187056   6.652   7.154   8.413  2.6507 -0.7853  0.0548
27457SOL    HW287057   6.746   7.201   8.522 -0.5191  2.0107  1.7714
27458SOL     OW87058   1.958   6.091   1.990 -0.2749  0.3158  0.5289
27458SOL    HW187059   2.043   6.088   2.034 -0.0538 -0.2215  0.0741
27458SOL    HW287060   1.957   6.013   1.934 -1.2301  0.0967  0.8360
27459SOL     OW87061   9.736   5.674   1.287 -0.6202  0.7373  0.2935
27459SOL    HW187062   9.766   5.618   1.215 -2.9224  0.6059 -0.6381
27459SOL    HW287063   9.790   5.648   1.362 -0.0229 -1.0702 -0.7056
27460SOL     OW87064  11.995   5.665   5.255 -0.0240  0.8134 -0.1759
27460SOL    HW187065  12.060   5.595   5.251 -0.2479  0.4426  1.9214
27460SOL    HW287066  12.034   5.732   5.310 -1.3779  0.5919  1.1115
27461SOL     OW87067   5.515   3.937   4.345  0.1528 -0.1525 -0.1875
27461SOL    HW187068   5.460   3.968   4.273  0.6099  1.2144  0.0272
27461SOL    HW287069   5.601   3.925   4.305 -0.0644 -1.4580 -0.3242
27462SOL     OW87070   6.943   9.206   5.227  0.1554  0.2624  0.2514
27462SOL    HW187071   6.926   9.300   5.235 -0.9124  0.1714 -0.7077
27462SOL    HW287072   6.950   9.176   5.318 -0.4768  1.0952  0.5915
27463SOL     OW87073   9.284   7.795   5.599  0.1966 -0.0283  0.3510
27463SOL    HW187074   9.232   7.715   5.606 -0.6966  0.3533 -1.3557
27463SOL    HW287075   9.251   7.838   5.520  1.7937  1.1969  0.3027
27464SOL     OW87076   8.182   3.246   1.648 -0.3441  0.2629 -0.2814
27464SOL    HW187077   8.156   3.180   1.583 -0.3753 -0.7470  0.7257
27464SOL    HW287078   8.277   3.234   1.658 -0.3448  0.3866 -0.1179
27465SOL     OW87079   5.632   9.731   1.503 -0.9491 -0.2577  0.3879
27465SOL    HW187080   5.689   9.806   1.515 -1.4738 -0.0106  1.4791
27465SOL    HW287081   5.566   9.739   1.572 -1.1523 -1.5896  0.3899
27466SOL     OW87082   9.620   1.654   6.122 -0.1021  0.2473 -0.2557
27466SOL    HW187083   9.530   1.648   6.154  0.6971 -0.1712  2.1613
27466SOL    HW287084   9.648   1.563   6.111  0.2724  0.3544 -0.2017
27467SOL     OW87085   1.357  10.587   0.838 -0.4885 -0.0514 -0.2504
27467SOL    HW187086   1.264  10.577   0.818 -0.2411 -1.2490 -0.9724
27467SOL    HW287087   1.387  10.656   0.779 -0.8133 -0.0452 -0.4100
27468SOL     OW87088   0.551   3.045  10.889 -0.4432 -0.0796  0.2126
27468SOL    HW187089   0.638   3.020  10.919 -1.5745 -1.4426  2.6135
27468SOL    HW287090   0.523   3.113  10.951 -0.6483  1.2542 -1.2819
27469SOL     OW87091   1.653  10.036   0.357  0.3361  0.7008 -0.4339
27469SOL    HW187092   1.663   9.954   0.310  1.6576  1.4014 -1.4417
27469SOL    HW287093   1.591  10.087   0.305 -0.9761  0.1489  0.5222
27470SOL     OW87094   3.453   8.930   4.287  0.2620  0.1431 -0.1247
27470SOL    HW187095   3.386   8.997   4.304 -1.2068 -0.7213 -2.0240
27470SOL    HW287096   3.530   8.980   4.261 -0.6163  1.1413 -0.9248
27471SOL     OW87097  10.800   1.238   3.500 -0.2797  0.3513  0.1310
27471SOL    HW187098  10.708   1.255   3.476 -0.6183 -2.3195 -0.8188
27471SOL    HW287099  10.812   1.285   3.582 -2.3124  1.2803 -0.0239
27472SOL     OW87100   3.521  11.780  11.214  0.1358  0.3086  0.2194
27472SOL    HW187101   3.505  11.818  11.301 -0.6827  0.6534 -0.0756
27472SOL    HW287102   3.498  11.850  11.153  1.7259  0.4524 -0.2779
27473SOL     OW87103   7.815   0.534  10.891  0.0495 -0.2134 -0.0800
27473SOL    HW187104   7.750   0.546  10.822 -0.2093 -0.4594  0.1210
27473SOL    HW287105   7.892   0.582  10.860 -0.3054  0.2755 -0.2121
27474SOL     OW87106   2.104   4.502   5.165  0.1951  0.4824  0.3675
27474SOL    HW187107   2.011   4.503   5.184 -0.1590  1.4035 -1.3146
27474SOL    HW287108   2.121   4.581   5.114  1.6907 -0.1680 -0.2416
27475SOL     OW87109   7.796   9.780   7.153  0.2943 -0.7090  0.2688
27475SOL    HW187110   7.736   9.854   7.157 -1.0933 -1.6560 -1.5944
27475SOL    HW287111   7.853   9.791   7.230 -0.4819  1.7143  0.5782
27476SOL     OW87112   3.411   2.449  10.008  0.2428 -1.2622 -0.0524
27476SOL    HW187113   3.351   2.453  10.083 -0.7807 -1.3054 -0.8466
27476SOL    HW287114   3.399   2.361   9.973 -1.2048 -0.4493 -1.7635
27477SOL     OW87115   6.242   1.565   2.721 -0.6142 -0.4241  0.7802
27477SOL    HW187116   6.271   1.574   2.812 -0.8290  0.8919  0.7364
27477SOL    HW287117   6.320   1.539   2.673 -0.5500 -1.3421  1.3736
27478SOL     OW87118   9.256   4.665   3.416 -0.0402  0.2198 -0.0935
27478SOL    HW187119   9.342   4.629   3.437 -0.1976 -0.6998 -0.9388
27478SOL    HW287120   9.240   4.730   3.484  0.8879 -0.3035  0.6520
27479SOL     OW87121   3.411  11.661   2.808 -0.8521  0.1114  0.0565
27479SOL    HW187122   3.339  11.648   2.870 -1.9233 -1.2392 -1.4003
27479SOL    HW287123   3.383  11.733   2.753 -0.8516 -0.0564 -0.1665
27480SOL     OW87124   4.701   0.751   4.761  0.6034  0.1433  0.3703
27480SOL    HW187125   4.706   0.841   4.726  1.7513  0.2633  0.8035
27480SOL    HW287126   4.743   0.697   4.693 -1.0953 -0.2529 -0.4158
27481SOL     OW87127   3.690   9.303   0.264 -0.7761  0.0506  0.2189
27481SOL    HW187128   3.665   9.306   0.357 -0.9003 -0.7942  0.2184
27481SOL    HW287129   3.656   9.220   0.233  1.4656 -0.8689  0.0373
27482SOL     OW87130   8.634   6.319   4.704  0.3532 -0.2877  0.1418
27482SOL    HW187131   8.676   6.269   4.775  0.1968  0.2337  0.6118
27482SOL    HW287132   8.649   6.267   4.626  0.8326 -0.7071  0.5044
27483SOL     OW87133   8.042   4.167   1.569  0.3101 -0.2388 -0.3502
27483SOL    HW187134   8.105   4.186   1.499  0.8405  1.5772  0.5450
27483SOL    HW287135   7.991   4.247   1.578 -0.0323 -0.5885  1.0469
27484SOL     OW87136   7.278   9.155   6.363  0.1026  0.2236  0.3839
27484SOL    HW187137   7.233   9.231   6.327  2.4447  1.6159  0.2523
27484SOL    HW287138   7.277   9.091   6.293 -0.1256  0.8837 -0.2264
27485SOL     OW87139   0.160   4.612   9.276  0.6636 -0.2849  0.3374
27485SOL    HW187140   0.136   4.685   9.220 -0.6228 -1.0890 -0.2161
27485SOL    HW287141   0.173   4.538   9.216  2.0454 -0.5054  0.8687
27486SOL     OW87142  11.564  11.310   0.951 -0.5216  0.5181 -0.1648
27486SOL    HW187143  11.642  11.365   0.950 -0.6566  0.7128 -1.4310
27486SOL    HW287144  11.597  11.220   0.944 -0.4321  0.6741 -2.3435
27487SOL     OW87145   0.664   4.625   7.285 -0.0481  0.1388 -0.0708
27487SOL    HW187146   0.571   4.601   7.289 -0.2919  1.2281  1.9618
27487SOL    HW287147   0.709   4.541   7.279 -1.0742 -0.6374  2.0085
27488SOL     OW87148   4.967   7.880   1.112  0.1298 -0.1820  0.2339
27488SOL    HW187149   5.062   7.876   1.105  0.0144 -1.5166 -0.8788
27488SOL    HW287150   4.942   7.949   1.050  0.3706  0.1287  0.4821
27489SOL     OW87151   0.542   2.007   0.118 -0.2064  0.3601  0.1994
27489SOL    HW187152   0.553   1.997   0.213 -0.5340  1.8040  0.4125
27489SOL    HW287153   0.630   1.995   0.082  0.1827  1.2369  0.8327
27490SOL     OW87154  10.422  11.002  11.728 -0.7474  0.2993  0.2403
27490SOL    HW187155  10.426  10.933  11.794 -1.7507 -0.3670 -0.3644
27490SOL    HW287156  10.344  11.053  11.751 -0.5794  0.6237  0.0964
27491SOL     OW87157   5.599   4.599   2.370 -0.0936  0.1574  0.1121
27491SOL    HW187158   5.632   4.524   2.320  0.6282 -0.7915  1.9371
27491SOL    HW287159   5.657   4.671   2.345  1.2499 -0.6806  0.6909
27492SOL     OW87160   1.541  11.806   7.005  0.4981 -0.0152 -0.3653
27492SOL    HW187161   1.578  11.894   7.001  0.2556  0.0875 -0.3365
27492SOL    HW287162   1.457  11.813   6.959  0.6595 -0.3213 -0.7128
27493SOL     OW87163   0.291   4.086   1.931 -0.1528  0.3917 -0.1259
27493SOL    HW187164   0.383   4.111   1.936  0.1170 -0.6443  0.4153
27493SOL    HW287165   0.253   4.145   1.865  0.3809  2.3340  1.1985
27494SOL     OW87166   2.510  11.462   1.573 -0.1988  0.3679  0.0842
27494SOL    HW187167   2.599  11.492   1.586 -0.0481 -0.1410  0.2794
27494SOL    HW287168   2.490  11.412   1.653  0.0513 -1.1845 -0.7913
27495SOL     OW87169   2.634   8.428   9.632  0.2294 -0.1613  0.5515
27495SOL    HW187170   2.693   8.394   9.565 -0.1499  1.5254 -0.7261
27495SOL    HW287171   2.598   8.351   9.674  1.1943 -1.2641 -0.5562
27496SOL     OW87172  11.628   0.771   4.178  0.1877 -0.1748  0.3953
27496SOL    HW187173  11.708   0.797   4.223  1.5455 -1.5995 -1.0301
27496SOL    HW287174  11.639   0.805   4.089 -0.7293 -0.5006  0.1490
27497SOL     OW87175  10.557   7.653   5.115  0.3696  0.1322  0.3324
27497SOL    HW187176  10.529   7.594   5.185  2.5616 -0.7482  0.5682
27497SOL    HW287177  10.528   7.739   5.143 -1.2435 -0.5691  0.9309
27498SOL     OW87178   1.675   0.673   4.746  0.4884  0.3298  0.3415
27498SOL    HW187179   1.645   0.589   4.780  0.2559  1.1397  2.2731
27498SOL    HW287180   1.689   0.658   4.653 -0.8930 -1.4643  0.3780
27499SOL     OW87181   4.976   0.518   6.063  0.2399  0.6697 -0.1037
27499SOL    HW187182   4.932   0.574   5.999  0.3635  1.2261  0.2874
27499SOL    HW287183   5.041   0.470   6.012  0.2002  0.9578 -0.4311
27500SOL     OW87184   8.514   4.836   8.335  0.0765  0.4308  0.5623
27500SOL    HW187185   8.537   4.882   8.415 -0.3470  0.5631  0.6123
27500SOL    HW287186   8.493   4.747   8.364 -0.5597  0.6086  0.6742
27501SOL     OW87187   3.671  11.568  11.137  0.5710  0.4423 -0.0712
27501SOL    HW187188   3.677  11.599  11.046 -0.3171  0.1293 -0.2532
27501SOL    HW287189   3.633  11.641  11.185  0.1891  0.2907 -0.1377
27502SOL     OW87190   5.914   5.089   6.557 -0.2697 -0.2586  0.4368
27502SOL    HW187191   5.899   5.003   6.516  0.3596 -0.9983  1.7059
27502SOL    HW287192   5.831   5.135   6.546 -0.4942 -0.8801 -0.6137
27503SOL     OW87193   3.313   3.964   2.292  0.0389  1.0749  0.1251
27503SOL    HW187194   3.253   4.014   2.346 -3.4779 -1.0619 -1.4474
27503SOL    HW287195   3.332   3.885   2.343  2.2420  2.0592  0.9198
27504SOL     OW87196   5.105   0.504  11.547 -0.4754  0.1803  0.0519
27504SOL    HW187197   5.047   0.567  11.588  0.7555  1.4209 -0.0296
27504SOL    HW287198   5.148   0.459  11.621 -0.5442  0.2171  0.1136
27505SOL     OW87199   1.239   2.129  11.878  0.1507 -0.3352 -0.2926
27505SOL    HW187200   1.200   2.047  11.847 -0.0716  0.0467 -1.0535
27505SOL    HW287201   1.231   2.125  11.973 -0.0039 -1.1241 -0.3299
27506SOL     OW87202   5.502   7.079  11.184  0.1269 -0.4908  0.3511
27506SOL    HW187203   5.425   7.072  11.240  0.4562  0.0997  0.8982
27506SOL    HW287204   5.568   7.026  11.229  0.7373  0.8920  1.1642
27507SOL     OW87205   2.772   1.222   7.778 -0.2015  0.0289  0.4821
27507SOL    HW187206   2.790   1.128   7.778 -0.0116  0.0300 -1.6741
27507SOL    HW287207   2.855   1.263   7.801  0.3530 -0.2630 -0.9442
27508SOL     OW87208   0.421   7.047  10.891  0.4774  0.3914  0.1231
27508SOL    HW187209   0.482   6.990  10.937 -0.7447 -2.0728 -1.1386
27508SOL    HW287210   0.435   7.028  10.798  1.5529  3.8372 -0.5735
27509SOL     OW87211  11.609   0.757   0.072  0.0856  0.1890 -0.3167
27509SOL    HW187212  11.598   0.663   0.088 -0.2560  0.4155  0.8136
27509SOL    HW287213  11.595   0.798   0.157  3.5014  1.0127 -0.0106
27510SOL     OW87214   3.085  10.162   3.181 -0.1582  0.1182  0.1706
27510SOL    HW187215   3.135  10.121   3.253  0.4914 -0.6226 -0.6804
27510SOL    HW287216   3.148  10.221   3.140 -0.5953  0.7059  0.3343
27511SOL     OW87217   3.037  10.453   6.556 -0.1078 -0.0925  0.1363
27511SOL    HW187218   3.067  10.421   6.470  0.4244  0.7183  0.0072
27511SOL    HW287219   3.054  10.547   6.553  2.6000 -0.4062  2.1869
27512SOL     OW87220   9.709   9.595   9.662  0.1937 -0.3107  0.2792
27512SOL    HW187221   9.731   9.645   9.584 -2.5345  0.3791 -0.1678
27512SOL    HW287222   9.769   9.626   9.729  1.5199  0.2681 -1.1256
27513SOL     OW87223   7.776   9.441   9.782 -0.2789  0.5671  0.7943
27513SOL    HW187224   7.801   9.361   9.737 -0.2123  0.6497  0.6836
27513SOL    HW287225   7.703   9.476   9.732  0.3180  1.0884  0.2679
27514SOL     OW87226   1.027   0.744   1.928 -0.1012  0.0770 -1.2692
27514SOL    HW187227   0.955   0.686   1.952  0.3801  0.2498  0.8016
27514SOL    HW287228   1.105   0.689   1.931  0.0329  0.2090 -2.1070
27515SOL     OW87229   2.754   5.190   8.026  0.5115 -0.3785  0.3704
27515SOL    HW187230   2.760   5.097   8.004 -1.4047 -0.5372  0.4061
27515SOL    HW287231   2.665   5.215   8.003  0.2031  0.8453  2.5831
27516SOL     OW87232   7.942   0.537   3.446 -0.1853 -0.0752  0.8069
27516SOL    HW187233   7.860   0.512   3.404  0.3435  0.3633 -0.5228
27516SOL    HW287234   7.984   0.454   3.471 -0.3245 -0.3589  0.1076
27517SOL     OW87235   6.564  10.384   4.165  0.3025 -0.0431 -0.3904
27517SOL    HW187236   6.550  10.473   4.198 -0.2934 -0.8481  1.7054
27517SOL    HW287237   6.535  10.327   4.237  2.4491 -1.9226 -0.9059
27518SOL     OW87238   4.414   7.440   3.539  0.1109 -0.3531 -0.2103
27518SOL    HW187239   4.349   7.388   3.585  3.3111 -3.4498  1.3098
27518SOL    HW287240   4.374   7.459   3.454 -3.5720  0.0623  1.4355
27519SOL     OW87241   9.412  10.820   2.363  0.3654 -0.3048 -0.3942
27519SOL    HW187242   9.427  10.808   2.269 -1.5273  1.3089 -0.9677
27519SOL    HW287243   9.362  10.743   2.389  0.7989 -0.7049 -0.7103
27520SOL     OW87244   0.875   0.880  10.229 -0.5381  0.2669 -0.1629
27520SOL    HW187245   0.938   0.846  10.165 -0.3051  1.2104 -0.4593
27520SOL    HW287246   0.881   0.820  10.303  0.3327  0.0448 -0.3996
27521SOL     OW87247   4.556   5.506   2.326 -0.8178 -0.2909 -0.6322
27521SOL    HW187248   4.651   5.512   2.339 -0.6689  1.6099 -2.2437
27521SOL    HW287249   4.545   5.488   2.233 -2.0439 -1.3629 -0.3032
27522SOL     OW87250   5.137   1.368  11.268 -0.1125 -0.5155 -0.4773
27522SOL    HW187251   5.105   1.450  11.306  0.1354  0.1749 -1.7220
27522SOL    HW287252   5.222   1.354  11.310 -0.5835 -0.6624  0.4566
27523SOL     OW87253   7.735   5.274  11.435 -0.2919 -0.2870 -0.3007
27523SOL    HW187254   7.795   5.230  11.375  0.0836 -0.4838  0.2095
27523SOL    HW287255   7.792   5.325  11.494 -0.5220 -1.3829  0.9203
27524SOL     OW87256   5.868  10.267   6.722 -0.0567 -0.1295  0.2492
27524SOL    HW187257   5.905  10.179   6.730 -0.0372 -0.0365  1.3790
27524SOL    HW287258   5.873  10.287   6.629  2.2635 -0.3381  0.2732
27525SOL     OW87259   2.684   3.298   0.212  0.0415 -0.0637 -0.3652
27525SOL    HW187260   2.617   3.232   0.196  1.4275 -1.1279 -2.0802
27525SOL    HW287261   2.672   3.361   0.141  1.6147 -0.9528 -1.4824
27526SOL     OW87262  10.637   5.390   4.540 -0.1639 -0.0471  0.0649
27526SOL    HW187263  10.696   5.336   4.486 -0.3662  1.1103 -1.3525
27526SOL    HW287264  10.593   5.327   4.597 -0.2415 -1.3857 -1.4042
27527SOL     OW87265   8.281   9.399   0.166 -0.4652 -0.1885  0.5508
27527SOL    HW187266   8.327   9.442   0.095 -0.9389 -0.3702  0.1272
27527SOL    HW287267   8.220   9.339   0.123 -0.0982 -0.9990  1.1195
27528SOL     OW87268  10.939   2.976  11.879  0.0301  0.6428  0.6230
27528SOL    HW187269  10.952   2.886  11.909 -1.0916 -0.4002 -1.7608
27528SOL    HW287270  10.851   2.999  11.911 -0.1351  0.4763  0.2886
27529SOL     OW87271   4.143  11.167   3.082 -0.3270 -0.2870  0.3473
27529SOL    HW187272   4.189  11.129   3.157  0.2023  0.2161  0.2818
27529SOL    HW287273   4.114  11.253   3.113 -1.8068 -0.8465  0.6067
27530SOL     OW87274   2.451   3.279   9.793 -0.0815 -0.3028 -0.1813
27530SOL    HW187275   2.434   3.247   9.882 -0.4279 -1.1560 -0.5524
27530SOL    HW287276   2.487   3.204   9.746 -0.2227  0.0425 -0.8571
27531SOL     OW87277   7.064   5.171  10.693  0.1203 -0.3167 -0.6549
27531SOL    HW187278   7.096   5.113  10.624  0.6979 -1.0247  0.1814
27531SOL    HW287279   7.055   5.114  10.769 -0.7214  0.4040 -0.2006
27532SOL     OW87280   0.504   0.668   8.011  0.4580 -0.3589  0.5118
27532SOL    HW187281   0.441   0.600   8.035 -0.2378  1.3018  3.9866
27532SOL    HW287282   0.451   0.746   7.996  1.4864  0.3422  0.3803
27533SOL     OW87283   6.639   0.887  11.119 -0.5971 -0.2743 -0.2885
27533SOL    HW187284   6.628   0.953  11.051  0.4470  0.8890  0.6402
27533SOL    HW287285   6.734   0.877  11.127 -0.7299 -1.4820 -0.0041
27534SOL     OW87286  11.294   6.932   5.697 -0.1336 -0.1404  0.3792
27534SOL    HW187287  11.301   7.027   5.700  1.5484 -0.2345  0.6877
27534SOL    HW287288  11.322   6.903   5.784  5.2029 -1.0710 -1.2622
27535SOL     OW87289  10.866   8.070   5.681  0.0629 -0.1977 -0.3424
27535SOL    HW187290  10.867   8.153   5.729  1.0078  0.1401 -0.9235
27535SOL    HW287291  10.786   8.073   5.630  1.3597  1.6058 -2.4394
27536SOL     OW87292   0.810   7.542   1.735  0.1659  0.4309 -0.4548
27536SOL    HW187293   0.748   7.542   1.808  0.9609  0.9720  0.2461
27536SOL    HW287294   0.777   7.609   1.675  0.7221  1.6351  0.5209
27537SOL     OW87295   7.330   9.348   8.045  0.2266  0.1673  0.1533
27537SOL    HW187296   7.327   9.438   8.013 -1.7987  0.5295  1.2261
27537SOL    HW287297   7.395   9.349   8.115  0.0999  0.8230  0.2634
27538SOL     OW87298  11.872   2.703   0.558  0.3387  0.2828  0.6664
27538SOL    HW187299  11.888   2.611   0.537  0.2650 -0.2017  2.5984
27538SOL    HW287300  11.795   2.727   0.507  1.0933 -0.3347 -0.8250
27539SOL     OW87301  11.963   3.154   3.932 -0.1500  0.2823 -0.4019
27539SOL    HW187302  11.955   3.248   3.949 -0.4858  0.2737 -0.5065
27539SOL    HW287303  11.992   3.117   4.016  0.7343  0.5711 -0.5688
27540SOL     OW87304   1.023   5.107   1.044  0.4485  0.3841  0.1275
27540SOL    HW187305   0.961   5.066   1.103  2.7963 -0.4614  2.1971
27540SOL    HW287306   1.029   5.198   1.075 -1.4865  1.2005 -1.6622
27541SOL     OW87307   4.684   0.435   1.039  0.1868 -0.3417 -0.1269
27541SOL    HW187308   4.685   0.529   1.054 -0.3806 -0.6198  1.8667
27541SOL    HW287309   4.591   0.413   1.028  0.1922 -0.8392  0.7369
27542SOL     OW87310  11.004   5.069   1.958  0.3021 -0.2884  0.3482
27542SOL    HW187311  10.982   5.104   1.872  3.0661 -0.8353 -0.6637
27542SOL    HW287312  11.033   5.145   2.009 -1.4983  0.0633  0.9296
27543SOL     OW87313   5.575   5.803   6.379 -0.0829 -0.0865 -0.0439
27543SOL    HW187314   5.605   5.871   6.440 -1.5262  0.0989  0.4890
27543SOL    HW287315   5.622   5.724   6.406  1.2741  0.5623 -0.3804
27544SOL     OW87316   7.741   4.389   2.472 -0.2083 -0.0950  0.5968
27544SOL    HW187317   7.715   4.366   2.383 -0.6482  0.6145  0.5351
27544SOL    HW287318   7.668   4.441   2.506  0.2592  0.2280  1.1233
27545SOL     OW87319   9.745   2.741   3.853  0.2384  0.0784  0.4055
27545SOL    HW187320   9.709   2.811   3.799  1.1763  0.2185 -0.0614
27545SOL    HW287321   9.806   2.696   3.796  0.0049 -0.8216  0.8577
27546SOL     OW87322   6.475   0.391  10.579  0.0189  0.2229  0.2038
27546SOL    HW187323   6.439   0.304  10.563 -0.4720  0.5284 -0.3662
27546SOL    HW287324   6.426   0.424  10.654  0.1210  0.0593  0.3438
27547SOL     OW87325  11.556   9.923   8.357 -0.2295  0.5491  0.6002
27547SOL    HW187326  11.541   9.928   8.262 -2.9333 -0.7174  0.8712
27547SOL    HW287327  11.605  10.003   8.377  0.5986  0.7625 -1.8578
27548SOL     OW87328  11.682   8.952   2.539 -0.0997  0.3502  0.1872
27548SOL    HW187329  11.777   8.946   2.531 -0.3336 -1.2345 -2.5153
27548SOL    HW287330  11.654   8.990   2.455 -1.8698  0.5083  0.8209
27549SOL     OW87331   5.555   3.107  11.218 -0.4673  0.4137  0.1498
27549SOL    HW187332   5.527   3.035  11.161  1.3129  0.1546 -0.4560
27549SOL    HW287333   5.595   3.171  11.159 -0.4674  1.1080  0.8844
27550SOL     OW87334   2.057   7.510   2.622 -0.4486  0.1094  0.0591
27550SOL    HW187335   2.056   7.568   2.698 -1.2444  1.0804 -0.6639
27550SOL    HW287336   2.019   7.428   2.654 -0.2003  0.2934  0.8521
27551SOL     OW87337   3.794   5.687   2.768 -0.3414  0.0037  0.3820
27551SOL    HW187338   3.703   5.699   2.740 -0.5416  0.4436  1.1872
27551SOL    HW287339   3.827   5.615   2.715 -0.9221  0.3578 -0.4690
27552SOL     OW87340   6.324   3.962   5.577 -0.6571  0.0828  0.0053
27552SOL    HW187341   6.313   3.871   5.552  1.8591 -0.3908  0.3797
27552SOL    HW287342   6.332   3.960   5.673  1.4987  0.3686 -0.1207
27553SOL     OW87343   1.854   6.272   0.138 -0.5188  0.2938 -0.1954
27553SOL    HW187344   1.771   6.292   0.181  0.9518  1.7551  2.2272
27553SOL    HW287345   1.868   6.179   0.154 -1.6667  0.0222 -0.6712
27554SOL     OW87346  11.562   0.444  11.745 -0.0787  0.0059  0.0679
27554SOL    HW187347  11.582   0.379  11.812  0.2300  2.5418  2.6544
27554SOL    HW287348  11.472   0.427  11.720  0.4089 -2.2007 -0.3945
27555SOL     OW87349   6.872   8.652   8.050 -0.6008  0.2972 -0.2898
27555SOL    HW187350   6.946   8.605   8.012 -0.4171  0.7713 -0.5130
27555SOL    HW287351   6.910   8.729   8.091 -0.9433  0.4277 -0.2092
27556SOL     OW87352   3.815  11.731  10.457  0.2392 -0.2433  0.1391
27556SOL    HW187353   3.778  11.663  10.513  1.2694 -0.8105  0.1558
27556SOL    HW287354   3.879  11.685  10.402  1.9255  0.9032  1.0593
27557SOL     OW87355   4.083   0.216   4.900 -0.4412 -0.4793 -0.1874
27557SOL    HW187356   3.998   0.236   4.860 -0.6239  1.5278  1.0771
27557SOL    HW287357   4.146   0.237   4.832 -0.8833 -0.6243 -0.6549
27558SOL     OW87358   0.217   9.646   2.468 -0.1812  0.1805 -0.4892
27558SOL    HW187359   0.249   9.564   2.506 -1.0346  0.0678 -0.0006
27558SOL    HW287360   0.281   9.712   2.497 -0.1611 -0.1079  0.1253
27559SOL     OW87361  10.679   6.076   9.751 -0.0947 -0.0668  0.2839
27559SOL    HW187362  10.710   6.109   9.835  2.8474 -1.3938 -0.1656
27559SOL    HW287363  10.742   6.008   9.727 -2.3988 -1.6553 -1.7164
27560SOL     OW87364   5.421   9.313   2.792 -0.3799  0.5561  0.0163
27560SOL    HW187365   5.406   9.273   2.707  0.6143  1.1833 -0.4782
27560SOL    HW287366   5.429   9.407   2.774 -1.5877  0.8838  1.0044
27561SOL     OW87367   8.785   5.395  10.064  0.2789  0.9683 -0.5692
27561SOL    HW187368   8.784   5.482  10.105  0.8759  0.7788 -0.1349
27561SOL    HW287369   8.784   5.413   9.970 -1.3025  1.4035 -0.4882
27562SOL     OW87370   0.068   1.946   4.826  0.2555 -0.6001 -0.0554
27562SOL    HW187371   0.110   1.944   4.740  0.9386  1.7560  0.1685
27562SOL    HW287372   0.035   2.035   4.835  1.3757 -0.3656  2.6565
27563SOL     OW87373   7.572  10.545   7.220  0.1071 -0.3841  0.2816
27563SOL    HW187374   7.552  10.474   7.280 -0.8749 -0.0328  0.3830
27563SOL    HW287375   7.566  10.624   7.274  3.0706 -0.2944  0.6507
27564SOL     OW87376   8.962   0.453   2.005 -0.2585 -0.3940 -0.0552
27564SOL    HW187377   8.880   0.501   1.997  0.3616  0.4017 -2.8530
27564SOL    HW287378   8.975   0.414   1.919  3.0988  0.9491 -0.3230
27565SOL     OW87379   4.949   9.332   8.001  0.1316 -0.5126  0.4592
27565SOL    HW187380   5.031   9.378   7.988  0.2354  0.2200  3.0789
27565SOL    HW287381   4.973   9.252   8.047 -0.4414 -1.3851 -0.6956
27566SOL     OW87382  10.340  11.800   8.061 -0.3871 -0.1202 -0.2999
27566SOL    HW187383  10.404  11.864   8.094 -1.3717  1.0756 -0.6287
27566SOL    HW287384  10.260  11.851   8.047 -0.6213 -1.0146 -2.5369
27567SOL     OW87385  10.573   5.404   9.853  0.4676  0.1034 -0.2936
27567SOL    HW187386  10.564   5.337   9.785  1.9805 -0.9093  0.4315
27567SOL    HW287387  10.581   5.354   9.934  1.0565  1.1918  0.3394
27568SOL     OW87388   4.552   2.995   7.622 -0.9136 -0.0075 -0.2960
27568SOL    HW187389   4.614   3.012   7.693 -0.8218  1.1399 -0.6380
27568SOL    HW287390   4.473   2.962   7.667 -1.2333  1.7027  0.4637
27569SOL     OW87391   4.194   5.250   3.478  0.4447 -0.0830  0.2650
27569SOL    HW187392   4.147   5.331   3.498 -0.9741 -1.2269  1.8584
27569SOL    HW287393   4.134   5.199   3.423  2.2481  0.8105 -2.7635
27570SOL     OW87394   1.834  11.049   2.771  0.2984  0.5439 -0.1189
27570SOL    HW187395   1.802  10.977   2.824 -0.5397  1.3935  0.5639
27570SOL    HW287396   1.880  11.007   2.698  0.5815 -0.6488  0.7215
27571SOL     OW87397  11.057   8.896  11.580  0.0426  0.0976  0.1064
27571SOL    HW187398  11.097   8.856  11.503 -2.9793 -0.6243 -1.2230
27571SOL    HW287399  11.093   8.985  11.582  0.4979  0.0042 -1.9100
27572SOL     OW87400   6.442   7.577   1.347 -0.4002 -0.1499 -0.1590
27572SOL    HW187401   6.391   7.496   1.343 -0.7164  0.0592 -3.0658
27572SOL    HW287402   6.377   7.647   1.337  0.1146  0.2887 -0.5342
27573SOL     OW87403   9.607   9.896   3.533  0.0371  0.0292  0.4218
27573SOL    HW187404   9.671   9.826   3.542  0.8791  0.9293  1.7365
27573SOL    HW287405   9.643   9.954   3.466 -0.9598 -1.0669 -1.1232
27574SOL     OW87406   1.903   9.836   1.490  0.4884 -0.0759 -0.1869
27574SOL    HW187407   1.823   9.786   1.504  1.9831 -2.6860 -0.4239
27574SOL    HW287408   1.885   9.888   1.412 -0.5633 -1.5585 -0.9776
27575SOL     OW87409   2.255   7.997   1.871 -0.6236 -0.2837  0.9131
27575SOL    HW187410   2.286   8.086   1.886 -0.2120 -0.4806  1.2566
27575SOL    HW287411   2.191   7.981   1.941  1.8727 -1.4843  3.1221
27576SOL     OW87412   8.262  10.417   6.903  0.4011  0.7766 -0.0663
27576SOL    HW187413   8.264  10.498   6.954  1.9721  1.1585 -0.6934
27576SOL    HW287414   8.213  10.440   6.824 -0.4249  0.6886  0.4047
27577SOL     OW87415   7.954  11.841   7.656 -0.5451  0.1894  0.5915
27577SOL    HW187416   8.023  11.813   7.597 -0.0157  1.2893  0.6657
27577SOL    HW287417   7.941  11.934   7.636 -2.4134 -0.1058  0.1700
27578SOL     OW87418   8.999   9.369  11.953 -0.4661 -0.2395 -0.1457
27578SOL    HW187419   8.922   9.423  11.971  0.5022  1.1779 -0.0925
27578SOL    HW287420   9.007   9.370  11.858  0.8859  1.7355 -0.0683
27579SOL     OW87421   6.008   1.002   8.263  0.0107 -0.0209 -1.0479
27579SOL    HW187422   6.029   0.985   8.171  0.2965 -0.4860 -0.9004
27579SOL    HW287423   6.057   0.935   8.311 -0.9271 -0.4126 -0.6211
27580SOL     OW87424   8.153  10.804   3.978  0.2792  0.1030 -0.1347
27580SOL    HW187425   8.174  10.789   4.070  0.8577  2.8781  0.2676
27580SOL    HW287426   8.061  10.780   3.970 -0.4265  1.8846  1.7871
27581SOL     OW87427   0.586   6.235  10.535 -0.0744  0.0094  0.4689
27581SOL    HW187428   0.621   6.204  10.452  2.2592  1.0491  0.9575
27581SOL    HW287429   0.533   6.311  10.512 -0.4879 -0.4678 -0.1723
27582SOL     OW87430   4.363   3.983   4.528 -0.3788 -0.2069  0.4172
27582SOL    HW187431   4.409   3.963   4.610 -0.0231 -1.2882 -0.0326
27582SOL    HW287432   4.318   4.066   4.546 -0.3810 -0.4646  1.7386
27583SOL     OW87433   8.412   0.736   9.576 -0.1132 -0.0943  0.2768
27583SOL    HW187434   8.508   0.733   9.572  0.0211  0.6659  1.8939
27583SOL    HW287435   8.394   0.785   9.656 -1.8650 -0.2511  0.0042
27584SOL     OW87436   9.827   4.798   4.102 -0.1811 -0.1721 -0.1117
27584SOL    HW187437   9.754   4.741   4.126 -0.1330  0.4729  1.7557
27584SOL    HW287438   9.813   4.878   4.153  0.6625  0.8324 -1.3777
27585SOL     OW87439  10.637   2.305  11.195  0.3354  0.5101  0.0373
27585SOL    HW187440  10.708   2.245  11.219 -0.6840 -0.3253  1.0926
27585SOL    HW287441  10.568   2.249  11.160 -0.5686  1.0536  0.8833
27586SOL     OW87442  11.156   8.858   9.941 -0.5316  0.2583  0.1865
27586SOL    HW187443  11.185   8.897   9.859  0.0272 -0.7669 -0.1240
27586SOL    HW287444  11.176   8.765   9.932 -1.8427 -0.1243  0.8820
27587SOL     OW87445  11.935   2.941   9.813  0.2214 -0.6032 -0.8384
27587SOL    HW187446  11.927   3.036   9.801 -1.5074 -0.7516 -1.0653
27587SOL    HW287447  11.895   2.923   9.898  2.6511 -0.9044  0.3533
27588SOL     OW87448  11.601  11.569   7.945 -0.2690  0.4558 -0.7588
27588SOL    HW187449  11.683  11.544   7.903 -1.5223 -0.3574 -2.8984
27588SOL    HW287450  11.577  11.652   7.905 -0.7627  0.4122 -0.5663
27589SOL     OW87451   7.411   6.054   3.797  0.0186 -0.2695 -0.4063
27589SOL    HW187452   7.493   6.007   3.814  1.3004  1.6115 -1.1083
27589SOL    HW287453   7.361   5.994   3.741  1.3278 -1.0504 -0.7809
27590SOL     OW87454   2.137   4.509   7.282 -0.2595  0.1481  0.4115
27590SOL    HW187455   2.209   4.571   7.287 -2.2379  2.5252  2.0462
27590SOL    HW287456   2.168   4.441   7.222  2.0997  2.6301 -1.4514
27591SOL     OW87457  11.713   9.640   5.771 -0.9622 -0.5245  0.0605
27591SOL    HW187458  11.729   9.625   5.864  0.1350 -0.4700 -0.1060
27591SOL    HW287459  11.647   9.709   5.769  0.7052  1.1772  0.8200
27592SOL     OW87460   2.112   2.775   1.890  0.1658 -0.8396  0.6730
27592SOL    HW187461   2.080   2.827   1.816 -1.7177 -2.0480  0.5873
27592SOL    HW287462   2.207   2.788   1.888 -0.0678  1.1514 -0.4024
27593SOL     OW87463   5.768   3.042   8.319 -0.2739  0.1397  0.4792
27593SOL    HW187464   5.714   3.106   8.365  1.1739  0.1069  2.3312
27593SOL    HW287465   5.707   2.974   8.291 -1.2225  0.1750  2.3565
27594SOL     OW87466   8.116   8.749   9.629  0.0232  0.0339 -0.3921
27594SOL    HW187467   8.152   8.834   9.655 -1.5859  0.3070  1.1255
27594SOL    HW287468   8.188   8.706   9.582  1.0632  1.9785 -0.6990
27595SOL     OW87469   3.401   9.888   0.293  0.2273 -0.0217  0.0889
27595SOL    HW187470   3.411   9.842   0.376 -0.0979 -0.8452 -0.3137
27595SOL    HW287471   3.364   9.822   0.234 -1.8906  1.2163 -0.0568
27596SOL     OW87472   8.789   6.101  10.723  0.0370 -0.6700  0.1746
27596SOL    HW187473   8.882   6.087  10.742  0.0289 -1.8595 -0.5595
27596SOL    HW287474   8.746   6.021  10.753 -0.8129 -0.0117  0.7759
27597SOL     OW87475   8.098   2.145   9.155  0.5777 -0.2594 -0.1219
27597SOL    HW187476   8.081   2.161   9.062  0.1500  0.8901  0.1358
27597SOL    HW287477   8.095   2.232   9.195  0.4506 -0.7741  1.0198
27598SOL     OW87478   7.079   9.985   1.768  0.0459  0.4853  0.3973
27598SOL    HW187479   7.123   9.900   1.768  1.5927  1.1740 -2.1621
27598SOL    HW287480   7.118  10.033   1.840 -0.4467 -0.7374  1.5193
27599SOL     OW87481   4.009   0.866   0.263 -0.4617  0.0641 -0.7636
27599SOL    HW187482   3.917   0.842   0.274 -0.4359  0.4891  0.4224
27599SOL    HW287483   4.058   0.790   0.295 -0.3936  0.4191 -0.0268
27600SOL     OW87484   9.920   4.564   7.327 -0.1040  0.2923  0.6009
27600SOL    HW187485   9.932   4.497   7.394  0.2603 -0.3499 -0.0844
27600SOL    HW287486  10.008   4.580   7.293 -0.5385 -1.3629 -1.5487
27601SOL     OW87487   1.298   2.130   9.697 -0.6026 -0.0190  0.3181
27601SOL    HW187488   1.323   2.115   9.789 -1.5740 -1.4344  0.3755
27601SOL    HW287489   1.353   2.070   9.647 -1.6870 -0.9187  0.1842
27602SOL     OW87490   0.969   8.896   9.990  0.5106  0.3244  0.0442
27602SOL    HW187491   0.938   8.925   9.905 -1.5743 -1.4653  0.1088
27602SOL    HW287492   0.950   8.802   9.992  3.3126 -0.3166  1.3402
27603SOL     OW87493   9.145   9.459   7.403 -0.0626  0.0910  0.0743
27603SOL    HW187494   9.182   9.537   7.363 -0.0189  0.9325  1.6844
27603SOL    HW287495   9.145   9.477   7.497  0.3534 -2.0101  0.5456
27604SOL     OW87496   8.968   4.217   8.983 -0.4727  0.1973 -0.0391
27604SOL    HW187497   8.978   4.265   9.065  1.3821  1.6078 -1.0040
27604SOL    HW287498   9.013   4.272   8.918 -0.8987 -1.4225 -1.7786
27605SOL     OW87499   7.374   6.948   8.834  0.3012 -0.0055 -0.2158
27605SOL    HW187500   7.315   6.887   8.790  0.6597  0.7159 -1.7773
27605SOL    HW287501   7.343   6.950   8.925 -0.7455 -1.2271 -0.5123
27606SOL     OW87502   1.733  10.969   7.886 -0.3478  0.3506 -0.0621
27606SOL    HW187503   1.641  10.975   7.863 -0.9627  0.5442  2.2120
27606SOL    HW287504   1.766  11.059   7.881 -0.1776  0.2468 -1.1217
27607SOL     OW87505   3.164   2.887   1.339 -0.2490 -0.2704  0.1999
27607SOL    HW187506   3.171   2.795   1.363  2.2497 -0.2927 -0.3404
27607SOL    HW287507   3.154   2.886   1.243  2.6512 -0.0213 -0.1933
27608SOL     OW87508   7.940   5.095   8.583 -0.4037  0.0453 -0.6853
27608SOL    HW187509   7.852   5.126   8.603 -0.4120  0.7072 -1.6538
27608SOL    HW287510   7.935   5.065   8.492 -0.1510 -1.9765 -0.0705
27609SOL     OW87511   4.649   6.194  10.107 -0.1233 -0.3786 -0.5686
27609SOL    HW187512   4.679   6.141  10.034 -0.8012  0.8200 -1.7669
27609SOL    HW287513   4.695   6.277  10.097  0.4048 -0.4675  0.8729
27610SOL     OW87514  10.150   5.777   8.565  0.0094  0.0427 -0.2231
27610SOL    HW187515  10.164   5.697   8.514  0.4853 -0.2428  0.3432
27610SOL    HW287516  10.237   5.800   8.598 -0.4993 -0.7845  1.9120
27611SOL     OW87517   3.800   4.770   9.413  0.2374  0.0334 -0.0540
27611SOL    HW187518   3.764   4.830   9.348  2.2868  1.8716  0.4096
27611SOL    HW287519   3.743   4.780   9.489 -0.4192  0.1232 -0.5499
27612SOL     OW87520   2.329   4.258   7.386  0.4731 -0.1986  0.2173
27612SOL    HW187521   2.322   4.261   7.482 -2.0614  0.4971  0.0803
27612SOL    HW287522   2.249   4.214   7.357  0.5119  0.8494 -1.6357
27613SOL     OW87523  10.236   3.850   2.384 -0.3247  0.2282  0.2533
27613SOL    HW187524  10.155   3.799   2.378 -1.5192  1.9430  1.0419
27613SOL    HW287525  10.287   3.806   2.451 -0.7347 -0.6866 -0.0158
27614SOL     OW87526   5.345   2.726   1.932  0.4664  0.8874 -0.3322
27614SOL    HW187527   5.439   2.746   1.935  0.6711 -0.0674 -0.1200
27614SOL    HW287528   5.340   2.639   1.893 -0.3946  1.2882 -1.1503
27615SOL     OW87529   4.009  10.507   0.757  0.5856 -0.7550  0.2059
27615SOL    HW187530   4.069  10.458   0.701  0.8486  0.9524 -1.0873
27615SOL    HW287531   4.065  10.565   0.809  0.2153 -1.0148  0.9126
27616SOL     OW87532  11.053   7.324   4.527  0.6422  0.0434 -0.2294
27616SOL    HW187533  10.973   7.273   4.521 -0.1094  1.0398  0.9229
27616SOL    HW287534  11.117   7.275   4.474 -0.8184 -0.5424 -1.5097
27617SOL     OW87535   2.334  11.290   8.081 -0.5683 -0.1277  0.5822
27617SOL    HW187536   2.401  11.266   8.018 -1.8307 -2.4935  0.0096
27617SOL    HW287537   2.327  11.385   8.075 -0.3666 -0.2327 -2.5913
27618SOL     OW87538   9.792   9.154   9.087  0.0507  0.3115  0.3123
27618SOL    HW187539   9.698   9.168   9.074  0.1602  0.2095 -0.6434
27618SOL    HW287540   9.830   9.242   9.084 -0.0985  0.4438  1.5785
27619SOL     OW87541   7.524  10.988   2.646 -0.2075  0.1046 -0.4972
27619SOL    HW187542   7.450  11.048   2.646  0.5004  1.1748  2.7127
27619SOL    HW287543   7.599  11.042   2.672  0.9263 -1.6968  0.2090
27620SOL     OW87544   2.621   8.474   8.414 -0.8834  0.1068 -0.5622
27620SOL    HW187545   2.623   8.549   8.353  1.3111  0.4345 -0.1618
27620SOL    HW287546   2.680   8.499   8.485 -2.7726 -0.6113  1.3584
27621SOL     OW87547   4.299   0.982   9.558 -0.1955 -0.2862 -0.2415
27621SOL    HW187548   4.392   1.000   9.550  0.0388  0.3116  2.6762
27621SOL    HW287549   4.286   0.900   9.510  1.6183  0.0771 -1.4381
27622SOL     OW87550   6.596   1.995   3.862 -0.1335 -0.0138 -0.5378
27622SOL    HW187551   6.634   2.083   3.868  0.2675 -0.2735  1.4802
27622SOL    HW287552   6.659   1.946   3.809  0.2082  0.6346 -0.7454
27623SOL     OW87553  11.995   0.606   5.680 -0.2245 -0.1729 -0.4343
27623SOL    HW187554  12.062   0.637   5.740 -0.7236  0.0069  0.0369
27623SOL    HW287555  12.043   0.556   5.614  0.4902  0.8211 -0.6922
27624SOL     OW87556   8.726   6.120   7.978  0.1113 -0.3811 -0.1975
27624SOL    HW187557   8.761   6.080   7.899 -0.7432 -0.9234 -0.3112
27624SOL    HW287558   8.802   6.132   8.035  0.7911  0.3626 -1.2402
27625SOL     OW87559   1.619   1.731   7.710 -0.0603 -0.4150 -0.4476
27625SOL    HW187560   1.553   1.705   7.646 -0.9813 -0.2602  0.4108
27625SOL    HW287561   1.703   1.718   7.665 -0.6798  2.3046 -2.6976
27626SOL     OW87562   5.038   2.236  11.112 -0.0597 -0.2829 -0.1034
27626SOL    HW187563   5.006   2.151  11.081 -1.9331 -0.3435  1.8021
27626SOL    HW287564   4.988   2.300  11.060  0.6259 -0.3222 -0.8331
27627SOL     OW87565   3.660  11.835   8.836 -0.0609  0.1696 -0.1059
27627SOL    HW187566   3.660  11.925   8.869  1.9718 -0.2010  1.0619
27627SOL    HW287567   3.664  11.844   8.741  2.8919  1.3861  0.0415
27628SOL     OW87568   6.651   6.170  10.840  0.0202  0.0170  0.3686
27628SOL    HW187569   6.643   6.265  10.828  0.0125 -0.0836 -0.4962
27628SOL    HW287570   6.666   6.159  10.933  1.3066  0.9597  0.2986
27629SOL     OW87571   6.158   5.472  10.571 -0.3251  0.2275  0.1204
27629SOL    HW187572   6.229   5.536  10.562 -0.7849  0.6947 -0.2457
27629SOL    HW287573   6.128   5.457  10.482 -0.5804 -0.0898  0.2593
27630SOL     OW87574  11.523   0.634   7.895 -0.1068  0.3811  0.0085
27630SOL    HW187575  11.481   0.658   7.812 -1.1365  0.5231  0.5482
27630SOL    HW287576  11.476   0.685   7.960  0.6980  0.2714  0.6824
27631SOL     OW87577   3.622   0.417   5.349  0.4400  0.4185 -0.5197
27631SOL    HW187578   3.607   0.500   5.395 -0.1101  0.9188 -1.5579
27631SOL    HW287579   3.695   0.377   5.396  0.3299  1.2125  0.3675
27632SOL     OW87580  11.103  10.351   3.897  0.0406  0.0068 -0.0564
27632SOL    HW187581  11.085  10.373   3.988 -0.5374 -0.8565  0.0515
27632SOL    HW287582  11.124  10.435   3.855 -0.0561  0.4559  0.7821
27633SOL     OW87583   1.673   5.212   4.860  0.2170 -0.0292  0.1013
27633SOL    HW187584   1.596   5.254   4.823 -0.9944 -1.9763  0.2771
27633SOL    HW287585   1.637   5.147   4.921  2.0558  0.8551  2.2909
27634SOL     OW87586  10.333   5.027   7.588  0.4636 -0.0585 -0.1914
27634SOL    HW187587  10.377   4.944   7.569 -0.4573 -0.4830 -0.4959
27634SOL    HW287588  10.403   5.093   7.582  1.6841 -0.9999  2.1732
27635SOL     OW87589   7.314  11.452   6.707 -0.1645 -0.1021  0.5040
27635SOL    HW187590   7.359  11.518   6.759  0.2086  0.5858 -0.6558
27635SOL    HW287591   7.223  11.457   6.736  0.0652  0.1223  1.2161
27636SOL     OW87592  10.923  10.961   4.742  0.0640  1.0488 -0.5200
27636SOL    HW187593  10.895  10.939   4.831 -1.2677  2.2343 -0.5946
27636SOL    HW287594  10.948  11.054   4.747  2.7865  0.4015 -0.7870
27637SOL     OW87595   8.388   1.913  10.986  0.3148 -0.6589  0.0683
27637SOL    HW187596   8.466   1.933  11.037  0.2980  0.0331 -0.1728
27637SOL    HW287597   8.326   1.878  11.050  0.5729 -0.5412  0.3812
27638SOL     OW87598   8.081   0.451   4.070  0.2580 -0.6119 -0.0574
27638SOL    HW187599   8.094   0.363   4.034  0.9073 -0.1788 -0.9020
27638SOL    HW287600   8.071   0.508   3.994 -1.0772 -0.0706  0.4940
27639SOL     OW87601   1.506   7.183   0.819  0.1318  0.3041 -0.0667
27639SOL    HW187602   1.518   7.219   0.732  1.2751 -1.9873 -0.9438
27639SOL    HW287603   1.486   7.259   0.874  1.7626  2.1398 -1.8472
27640SOL     OW87604   1.208   8.423   3.323  0.1234  0.2386  0.4111
27640SOL    HW187605   1.202   8.382   3.410 -1.1546  1.2725  0.8386
27640SOL    HW287606   1.285   8.480   3.330 -0.1692  0.5739  0.9928
27641SOL     OW87607   5.142   5.219   2.691 -0.0255  0.8449  0.3264
27641SOL    HW187608   5.103   5.147   2.642 -0.1014  0.7291  0.5521
27641SOL    HW287609   5.108   5.298   2.649 -1.1525  0.7503  0.9954
27642SOL     OW87610   7.836   7.357   9.746 -0.4473  0.3310 -0.7000
27642SOL    HW187611   7.894   7.382   9.818 -0.0255 -2.6396  0.1369
27642SOL    HW287612   7.750   7.345   9.787 -0.5235 -0.0337 -0.9585
27643SOL     OW87613  10.501   2.009   2.631  0.5782 -0.1344 -0.0809
27643SOL    HW187614  10.591   2.028   2.660  0.9785  0.3877 -1.5630
27643SOL    HW287615  10.459   2.095   2.626 -0.1232 -0.4025  0.9079
27644SOL     OW87616   9.133   4.473   7.082  0.1903 -0.8340 -0.0603
27644SOL    HW187617   9.106   4.421   7.158 -0.2094 -0.0100  0.3778
27644SOL    HW287618   9.055   4.522   7.058  0.8144  0.2569  0.1076
27645SOL     OW87619   0.097   8.456   4.315 -0.0859 -0.0975 -0.7186
27645SOL    HW187620   0.155   8.387   4.349 -1.4993 -1.4429 -0.8868
27645SOL    HW287621   0.009   8.418   4.322 -0.7273  0.9216 -2.7073
27646SOL     OW87622   1.339   2.493   5.646  0.0999  0.3006  0.5951
27646SOL    HW187623   1.290   2.411   5.661 -1.0467  1.0359  0.9820
27646SOL    HW287624   1.289   2.559   5.693  0.2920  1.4618 -0.7822
27647SOL     OW87625   4.313   7.598   3.044  0.4668 -0.2356  0.3083
27647SOL    HW187626   4.319   7.693   3.052  1.2887 -0.1465 -1.0982
27647SOL    HW287627   4.238   7.583   2.986 -1.3431 -0.6046  2.5719
27648SOL     OW87628   8.659   6.873   8.889 -0.8551 -0.0486  0.0314
27648SOL    HW187629   8.720   6.881   8.963 -0.1967 -0.5194 -0.4568
27648SOL    HW287630   8.573   6.889   8.928 -0.3837  1.0928  0.6354
27649SOL     OW87631   3.827   1.109   7.816  0.1511  0.4983  0.0000
27649SOL    HW187632   3.875   1.175   7.867  0.1029  1.5587 -1.2739
27649SOL    HW287633   3.879   1.098   7.736 -1.9387  2.0938 -1.6772
27650SOL     OW87634   2.116   7.906   3.150 -0.8160 -0.0204  0.2505
27650SOL    HW187635   2.105   7.854   3.230  3.6035 -1.2951  0.2849
27650SOL    HW287636   2.166   7.983   3.178  0.8043 -0.4892 -1.1911
27651SOL     OW87637   8.405  11.208   9.983 -0.7386 -0.3469 -0.7022
27651SOL    HW187638   8.443  11.275   9.926  0.3223 -0.7305 -0.4641
27651SOL    HW287639   8.458  11.130   9.968 -1.8905 -1.1287 -0.8952
27652SOL     OW87640   8.805  10.179   1.773  0.2399  0.2905 -0.3849
27652SOL    HW187641   8.765  10.123   1.707 -0.9942  1.7069 -0.8960
27652SOL    HW287642   8.897  10.153   1.774 -0.3482 -2.0133 -0.2789
27653SOL     OW87643   8.953   4.379   8.316  0.6087 -0.1589  0.1625
27653SOL    HW187644   8.991   4.431   8.386  1.8948 -1.1941  0.2716
27653SOL    HW287645   9.024   4.321   8.288  0.0064 -0.0318 -1.7430
27654SOL     OW87646   5.573   9.129  10.194  0.2087 -0.7886 -0.2037
27654SOL    HW187647   5.588   9.169  10.108  3.4057  1.7923  1.3144
27654SOL    HW287648   5.496   9.173  10.228 -0.3169 -0.8982 -1.2136
27655SOL     OW87649   7.454   5.130   2.875 -0.2726  0.0642  0.3802
27655SOL    HW187650   7.397   5.069   2.921 -1.9380  0.4618 -1.0432
27655SOL    HW287651   7.538   5.084   2.868 -0.5091 -0.6992  2.1808
27656SOL     OW87652  11.946   2.856  10.466 -0.4048 -0.3046 -0.7736
27656SOL    HW187653  11.885   2.785  10.487  1.2892 -1.9192 -1.0147
27656SOL    HW287654  11.965   2.844  10.373  0.8662 -0.3265 -0.5214
27657SOL     OW87655   4.578   7.895  11.076  0.7394 -0.4672  0.5031
27657SOL    HW187656   4.615   7.844  11.004  1.0402  0.6646 -0.1686
27657SOL    HW287657   4.566   7.831  11.147  0.8689 -1.5090 -0.3850
27658SOL     OW87658   5.926   0.854   0.882  0.1264 -0.4356 -0.0828
27658SOL    HW187659   5.948   0.796   0.955 -0.4809  0.5524  0.9283
27658SOL    HW287660   5.876   0.799   0.822  0.8218 -1.3238  0.1171
27659SOL     OW87661   3.400   4.241   2.999 -0.2412 -0.2650  0.1291
27659SOL    HW187662   3.466   4.260   3.066 -2.3211  3.1740  1.4889
27659SOL    HW287663   3.450   4.237   2.917  2.2152 -3.2510  1.5929
27660SOL     OW87664   3.064   4.556   1.003  1.0509 -0.3388 -0.1377
27660SOL    HW187665   3.105   4.472   0.977  1.8509  0.1425 -0.4854
27660SOL    HW287666   3.105   4.620   0.945  0.7295  0.3518  0.4001
27661SOL     OW87667   0.116   8.638   2.309  0.2801 -0.0755  0.9926
27661SOL    HW187668   0.072   8.553   2.318  0.5231 -0.4176 -0.6564
27661SOL    HW287669   0.046   8.700   2.295  0.2178 -0.4256 -0.3711
27662SOL     OW87670  10.616   3.757   8.205 -0.2022  0.4435 -0.1446
27662SOL    HW187671  10.656   3.672   8.187  1.2350  0.4119  2.8028
27662SOL    HW287672  10.529   3.750   8.166 -0.1988 -2.4445  0.1411
27663SOL     OW87673  10.475   3.187   8.307 -0.1637 -0.2329  0.7542
27663SOL    HW187674  10.526   3.251   8.257 -0.3144  0.4657  1.4683
27663SOL    HW287675  10.390   3.229   8.320  0.1258 -0.0671  2.2515
27664SOL     OW87676   1.554   0.503  11.938 -0.7563 -0.3141  0.3292
27664SOL    HW187677   1.499   0.568  11.983  0.4911  2.0119 -1.2975
27664SOL    HW287678   1.599   0.457  12.008 -0.2758  1.9063  1.5680
27665SOL     OW87679   4.294   6.061   7.593  0.5645  0.0848 -0.0960
27665SOL    HW187680   4.348   5.997   7.639  1.3095  0.7224 -0.0604
27665SOL    HW287681   4.300   6.140   7.647  0.0656  0.3347 -0.4010
27666SOL     OW87682   3.420   8.351   0.216  0.0548  0.7013 -0.0956
27666SOL    HW187683   3.489   8.314   0.161  1.1298  1.0416  0.9784
27666SOL    HW287684   3.375   8.414   0.160  0.5812  0.4372 -0.8257
27667SOL     OW87685   7.392   7.796   4.211  0.9695 -0.1164 -0.5789
27667SOL    HW187686   7.448   7.795   4.288  0.2465  1.1514  0.0017
27667SOL    HW287687   7.326   7.863   4.230  0.3881 -0.2315 -2.0275
27668SOL     OW87688   0.308   5.791   7.747 -0.0344  0.0321 -0.1702
27668SOL    HW187689   0.305   5.829   7.834 -0.5690  0.6709 -0.4626
27668SOL    HW287690   0.222   5.751   7.734  0.0128  0.0114 -0.4413
27669SOL     OW87691  11.136   9.438   2.561 -0.1516 -0.1319 -0.1915
27669SOL    HW187692  11.086   9.496   2.618  0.5078  0.7641 -0.5001
27669SOL    HW287693  11.166   9.494   2.489  0.6108 -0.8180 -0.4313
27670SOL     OW87694   8.561   0.568   7.362  0.2358  0.1190 -0.4348
27670SOL    HW187695   8.518   0.567   7.448  0.7658 -0.6701 -0.1663
27670SOL    HW287696   8.494   0.600   7.302 -0.5863 -0.6301  0.0500
27671SOL     OW87697   8.890  11.479   1.625  0.1047  0.1699 -0.4843
27671SOL    HW187698   8.917  11.552   1.681 -0.6316 -0.0818  0.2346
27671SOL    HW287699   8.805  11.452   1.662  0.1663 -0.7655 -1.0066
27672SOL     OW87700  10.491   5.010   0.299 -0.5572  0.3994  0.1680
27672SOL    HW187701  10.466   4.958   0.375 -0.6025 -0.1077 -0.1880
27672SOL    HW287702  10.582   4.984   0.281 -0.4664  0.6969  0.1999
27673SOL     OW87703   4.498   0.008   9.886  0.3448 -0.1793 -0.3982
27673SOL    HW187704   4.577   0.053   9.857  0.2033 -0.1501 -0.7484
27673SOL    HW287705   4.464  -0.035   9.807 -0.7546  0.9676 -0.5903
27674SOL     OW87706   0.918   5.980   4.202 -0.0044  0.6156 -0.0480
27674SOL    HW187707   0.967   6.048   4.250 -0.4035  0.2994  0.8332
27674SOL    HW287708   0.970   5.965   4.123  0.1880  1.8150 -0.1798
27675SOL     OW87709   7.371   2.741  11.651  0.1803 -0.5871  0.0834
27675SOL    HW187710   7.440   2.704  11.708 -0.2644 -1.8626 -0.1732
27675SOL    HW287711   7.391   2.707  11.564  0.8748  1.3892 -0.5732
27676SOL     OW87712   7.118   6.060   9.363  0.4922  0.4201  0.0242
27676SOL    HW187713   7.079   6.087   9.446 -0.8589 -3.1061  0.7252
27676SOL    HW287714   7.164   5.979   9.384 -1.5161 -1.7002 -2.8896
27677SOL     OW87715   3.670  10.339  11.891 -0.2407  0.4005 -0.3371
27677SOL    HW187716   3.600  10.286  11.928  0.3054 -0.7413 -0.8710
27677SOL    HW287717   3.744  10.278  11.882  1.6909  2.0716  2.4915
27678SOL     OW87718   7.623   0.103   1.725 -0.0259 -0.7407 -0.1784
27678SOL    HW187719   7.594   0.099   1.633 -0.7134 -0.0419 -0.0027
27678SOL    HW287720   7.681   0.179   1.728  0.5502 -1.1732 -0.1744
27679SOL     OW87721   0.011  10.121   5.557 -0.5982  0.5875  0.5199
27679SOL    HW187722   0.061  10.202   5.569 -1.7434  1.3357  0.3866
27679SOL    HW287723  -0.069  10.148   5.512 -0.8487 -0.6784  0.1534
27680SOL     OW87724   3.876   4.007   3.695  0.1924 -0.5153 -0.1428
27680SOL    HW187725   3.818   4.078   3.722 -0.1697 -1.2688  1.1496
27680SOL    HW287726   3.926   3.986   3.774  1.2220 -0.8298 -0.8610
27681SOL     OW87727   7.186   9.468   9.720  0.0100  0.5198  0.2141
27681SOL    HW187728   7.241   9.544   9.700  1.2001 -0.5207 -0.5404
27681SOL    HW287729   7.123   9.502   9.784  1.7316  1.6729  1.3998
27682SOL     OW87730   0.071  11.178   8.433 -0.4085 -0.2404 -0.2751
27682SOL    HW187731   0.124  11.207   8.508  1.9451 -0.4633 -1.7499
27682SOL    HW287732  -0.014  11.221   8.446 -0.1258 -0.3601  2.5402
27683SOL     OW87733   5.579   6.726   5.134 -0.3070  0.0000  0.4461
27683SOL    HW187734   5.599   6.745   5.226  1.4056 -0.0242  0.1027
27683SOL    HW287735   5.557   6.811   5.096  0.4504  0.2408  0.5389
27684SOL     OW87736  10.376   1.612   5.105 -0.0701  0.2036  0.1684
27684SOL    HW187737  10.424   1.570   5.034  1.4566  1.1374  0.6151
27684SOL    HW287738  10.356   1.700   5.072  0.2987  0.5081  0.7414
27685SOL     OW87739   7.915  11.750   5.474 -0.4139 -0.3060  0.2603
27685SOL    HW187740   7.857  11.686   5.515 -0.4342 -1.1432 -1.0043
27685SOL    HW287741   7.858  11.824   5.452 -0.6783 -0.4560  0.4343
27686SOL     OW87742   1.153   0.965   8.565 -0.1135 -0.5080 -0.0625
27686SOL    HW187743   1.131   1.058   8.570  3.1762  0.3860 -0.1526
27686SOL    HW287744   1.107   0.934   8.487 -2.5597  0.5730  0.8523
27687SOL     OW87745  11.103   7.993   1.699  0.0647  0.5469  0.2122
27687SOL    HW187746  11.106   7.972   1.606 -0.0585  0.3334  0.2551
27687SOL    HW287747  11.045   7.927   1.737  1.1274 -0.1653  0.6505
27688SOL     OW87748   4.840  11.130   3.629 -0.3875  0.2817  0.3018
27688SOL    HW187749   4.922  11.123   3.581 -0.4880  1.5356 -0.0984
27688SOL    HW287750   4.805  11.215   3.604 -1.2699  0.2438  1.3223
27689SOL     OW87751   7.980   6.965   9.714  0.1311  0.0070  0.0577
27689SOL    HW187752   8.016   6.948   9.627 -1.9280  0.4941 -0.9505
27689SOL    HW287753   8.027   7.042   9.745  1.1266 -0.3708 -0.4548
27690SOL     OW87754   4.648   8.981   8.146  0.2660  0.2355  0.1246
27690SOL    HW187755   4.737   8.998   8.118  0.5687  1.3456  1.6322
27690SOL    HW287756   4.599   9.058   8.118 -0.6054 -1.0416 -2.0853
27691SOL     OW87757  11.478  11.563   4.529 -0.3777  0.3435  1.4566
27691SOL    HW187758  11.427  11.497   4.575 -1.3428 -1.3499 -1.7568
27691SOL    HW287759  11.567  11.528   4.527 -0.9039 -1.0453 -0.3263
27692SOL     OW87760   1.667   0.969   6.333  0.5478  0.0222  0.1288
27692SOL    HW187761   1.752   1.005   6.359  0.4912  1.0943 -1.0405
27692SOL    HW287762   1.603   1.031   6.367  0.0979 -1.5080  2.2183
27693SOL     OW87763   5.587   7.740   3.179  0.1215 -0.0818  0.0050
27693SOL    HW187764   5.648   7.669   3.201 -1.5248 -1.3265  0.7712
27693SOL    HW287765   5.545   7.711   3.098  2.0925  1.8446 -1.8451
27694SOL     OW87766   6.357   1.915  10.581  0.0954 -0.1504 -0.6340
27694SOL    HW187767   6.284   1.869  10.623  0.6854  0.5824  1.3115
27694SOL    HW287768   6.432   1.896  10.637  1.1973 -0.0223 -2.0128
27695SOL     OW87769  10.552  11.935   2.597  0.9434 -0.4847  0.2334
27695SOL    HW187770  10.591  11.917   2.511  0.4434 -0.8932  0.0899
27695SOL    HW287771  10.462  11.905   2.589 -0.1301  2.5047 -0.1974
27696SOL     OW87772   2.194   7.819   8.489  0.2269  0.0417 -0.5574
27696SOL    HW187773   2.220   7.741   8.539 -2.8315  0.0730  1.3467
27696SOL    HW287774   2.125   7.788   8.431 -0.7862  1.2176 -0.0216
27697SOL     OW87775   6.571   5.707   1.540  0.1372  0.2024  0.4006
27697SOL    HW187776   6.635   5.758   1.489  0.9240 -0.8123  0.3284
27697SOL    HW287777   6.603   5.711   1.630  0.3423 -0.3407  0.3585
27698SOL     OW87778   0.234   4.338   7.290 -0.5295  0.2374 -0.7323
27698SOL    HW187779   0.238   4.398   7.216 -0.0907  1.2954  0.1152
27698SOL    HW287780   0.324   4.335   7.324 -0.4432 -1.2813 -1.0341
27699SOL     OW87781   2.108   8.048   5.310  0.0872 -0.8054 -0.3067
27699SOL    HW187782   2.193   8.042   5.266  0.3347 -3.0891  0.3289
27699SOL    HW287783   2.044   8.033   5.241  0.3435 -1.5084 -0.4059
27700SOL     OW87784   6.580   2.508   7.078  0.1583 -0.0524  0.3826
27700SOL    HW187785   6.487   2.508   7.101  0.2048 -1.7337  0.7176
27700SOL    HW287786   6.625   2.534   7.158 -0.0474  1.6361 -0.0283
27701SOL     OW87787   0.638   1.430   7.255  0.4073  0.4719 -0.3501
27701SOL    HW187788   0.593   1.348   7.234  0.6699  0.2718 -0.1352
27701SOL    HW287789   0.708   1.405   7.315 -0.9738  1.1724  1.6507
27702SOL     OW87790   0.335  11.454   0.564 -0.4089 -0.0945 -0.0883
27702SOL    HW187791   0.285  11.532   0.591  1.0614  0.3308  1.6011
27702SOL    HW287792   0.296  11.382   0.613 -0.4143 -0.0318  0.0006
27703SOL     OW87793   7.558   1.534   0.481 -0.0308 -0.6290 -0.1994
27703SOL    HW187794   7.477   1.489   0.507 -0.0236 -1.4784 -1.5215
27703SOL    HW287795   7.569   1.512   0.389  0.7170  1.0304 -0.5454
27704SOL     OW87796  11.427   4.777   1.828 -0.4673 -0.1605  0.2116
27704SOL    HW187797  11.387   4.691   1.815 -1.3199  0.5237 -2.1772
27704SOL    HW287798  11.366   4.823   1.887 -0.2761 -0.9682  1.0750
27705SOL     OW87799   3.798   0.825  10.710 -0.1891 -0.2333 -0.3062
27705SOL    HW187800   3.706   0.838  10.688 -0.6783 -1.2837  0.9960
27705SOL    HW287801   3.799   0.745  10.762  1.4555 -0.1987 -0.2450
27706SOL     OW87802   7.318   5.768   5.722 -0.1211  0.4753  0.1600
27706SOL    HW187803   7.398   5.799   5.763  1.2323 -1.2854 -1.0053
27706SOL    HW287804   7.348   5.708   5.653 -2.4056  0.5022 -0.9550
27707SOL     OW87805   9.369   6.356   9.573  0.3569 -0.3965 -0.5007
27707SOL    HW187806   9.417   6.274   9.569 -1.0416 -1.3773  1.3843
27707SOL    HW287807   9.333   6.359   9.662 -1.3398  1.2576 -1.1702
27708SOL     OW87808   8.511   9.262   5.441 -0.5466 -0.3189 -0.6438
27708SOL    HW187809   8.437   9.221   5.485  1.2563 -0.1466  2.8920
27708SOL    HW287810   8.480   9.350   5.419 -1.2638  0.0590  1.5824
27709SOL     OW87811  10.363   9.194   6.801  0.5476 -0.5403  0.4538
27709SOL    HW187812  10.354   9.148   6.884 -2.0136 -0.5912  0.2331
27709SOL    HW287813  10.273   9.214   6.775  1.3832  1.1976 -1.3573
27710SOL     OW87814  11.422  10.827   3.885  0.4687  0.7322  0.1013
27710SOL    HW187815  11.373  10.756   3.927  0.4331  0.7936  0.1640
27710SOL    HW287816  11.360  10.866   3.823  1.1797 -0.7603 -1.6383
27711SOL     OW87817   4.180   9.004   2.962  0.1491 -0.0170 -0.5736
27711SOL    HW187818   4.104   8.955   2.931 -0.9329  1.8463 -1.0054
27711SOL    HW287819   4.207   8.958   3.041 -0.9256 -1.1847 -0.8461
27712SOL     OW87820  10.297   0.814   7.568 -0.1288 -0.3908  0.3354
27712SOL    HW187821  10.221   0.757   7.564 -1.2536  1.1155 -2.2511
27712SOL    HW287822  10.363   0.769   7.515 -0.3010 -0.2708  0.0156
27713SOL     OW87823   9.452   3.547   0.696 -0.6558  0.2607 -0.2543
27713SOL    HW187824   9.390   3.602   0.647 -1.1124  1.2021  1.3056
27713SOL    HW287825   9.399   3.502   0.761 -0.1997 -1.7041 -1.1804
27714SOL     OW87826   0.900   9.796  10.803 -0.3955  0.2206 -0.6318
27714SOL    HW187827   0.842   9.724  10.827  0.9605 -0.3219  1.3063
27714SOL    HW287828   0.848   9.875  10.819 -0.8208 -0.2620  0.4980
27715SOL     OW87829   6.353   0.086   5.337  0.2644  0.0144 -0.7259
27715SOL    HW187830   6.324   0.078   5.246  0.9423 -1.7541 -0.8319
27715SOL    HW287831   6.341  -0.002   5.374 -1.0480  0.9487  1.2538
27716SOL     OW87832   2.453   5.056   8.423 -0.2102  0.3557  0.3177
27716SOL    HW187833   2.544   5.057   8.393 -0.7580  1.1337 -1.4503
27716SOL    HW287834   2.424   4.966   8.410  0.4423 -0.0297  1.4033
27717SOL     OW87835   1.698   1.423   3.176 -0.1424 -0.2730  0.4137
27717SOL    HW187836   1.752   1.431   3.098  0.2857  0.9082  0.8148
27717SOL    HW287837   1.760   1.429   3.249 -0.7938  1.1813  0.8839
27718SOL     OW87838  10.343   9.699   0.198 -0.1921 -0.3987 -0.1833
27718SOL    HW187839  10.281   9.754   0.247  0.6397  1.3885 -1.0377
27718SOL    HW287840  10.288   9.657   0.131 -1.0686 -1.6995  1.2841
27719SOL     OW87841   3.034   5.643   3.048  0.4179  0.2962 -0.2786
27719SOL    HW187842   2.993   5.580   3.107 -1.4616  1.1125 -0.6460
27719SOL    HW287843   3.108   5.595   3.010  0.1885 -1.0415  0.8764
27720SOL     OW87844   0.956  11.812   7.300 -0.5448 -0.0434  0.2237
27720SOL    HW187845   0.978  11.809   7.394 -1.5313  1.0414  0.5160
27720SOL    HW287846   1.029  11.768   7.257 -0.0313 -0.4928  1.4993
27721SOL     OW87847   9.850   6.940   5.050  0.4748 -0.0854  0.1589
27721SOL    HW187848   9.864   7.005   4.981  0.1927  0.3503  0.5016
27721SOL    HW287849   9.793   6.985   5.113  1.4502 -0.1638  1.1124
27722SOL     OW87850   0.865  10.290   8.699 -0.4473  0.1765 -0.5330
27722SOL    HW187851   0.906  10.238   8.768 -0.3759  1.0418  0.0960
27722SOL    HW287852   0.863  10.232   8.623 -1.1354 -1.0387  0.3698
27723SOL     OW87853   1.177   1.415   2.015 -0.8376  0.8822  0.0355
27723SOL    HW187854   1.149   1.333   2.057  0.3740  1.0436  1.2237
27723SOL    HW287855   1.181   1.478   2.087  0.0185  1.5106 -0.5462
27724SOL     OW87856  10.187   6.247   3.094  0.8568 -0.2617  0.0956
27724SOL    HW187857  10.135   6.175   3.129 -0.3551 -1.2820 -3.3992
27724SOL    HW287858  10.124   6.316   3.076  0.9260 -0.7037 -2.1755
27725SOL     OW87859   7.181   0.053   6.454  0.1029  0.2178 -0.2436
27725SOL    HW187860   7.201   0.092   6.539  1.3061 -1.8511  0.4919
27725SOL    HW287861   7.121  -0.019   6.473 -0.9858  0.7919 -1.3832
27726SOL     OW87862   0.568  11.194   1.044 -0.3974 -0.1084 -0.1635
27726SOL    HW187863   0.597  11.113   1.001  3.2211  1.0000 -0.2131
27726SOL    HW287864   0.566  11.259   0.973 -0.8113  0.3629  0.2703
27727SOL     OW87865   8.521   2.169   1.905  0.1129 -0.3869  0.5971
27727SOL    HW187866   8.542   2.181   1.813 -2.0666  1.3134  0.2406
27727SOL    HW287867   8.519   2.258   1.941 -2.2884 -0.7184  1.4638
27728SOL     OW87868   5.961   0.209   5.370 -0.4555 -0.0122  0.3437
27728SOL    HW187869   5.994   0.174   5.453 -0.7973 -0.0140  0.4787
27728SOL    HW287870   5.882   0.257   5.394  0.3216  1.3846  0.2557
27729SOL     OW87871   4.668   3.749   4.880  0.1611  0.1013 -0.2321
27729SOL    HW187872   4.711   3.664   4.872 -0.3274 -0.1198 -0.5324
27729SOL    HW287873   4.640   3.753   4.972  0.4911  0.0894 -0.1300
27730SOL     OW87874   1.306   1.286   7.567 -0.0719  0.4261  0.4403
27730SOL    HW187875   1.289   1.380   7.575  1.5794  0.7517  0.4445
27730SOL    HW287876   1.221   1.245   7.582 -0.7590  1.9055  0.7620
27731SOL     OW87877  11.601   8.862  11.910 -0.2513 -0.1014 -0.2634
27731SOL    HW187878  11.563   8.779  11.937  0.6035 -0.6451 -0.7032
27731SOL    HW287879  11.584   8.866  11.815  0.2990 -0.0974 -0.3643
27732SOL     OW87880  11.408  10.590   9.021  0.3487  0.3171 -0.3059
27732SOL    HW187881  11.481  10.593   9.082  0.2997  0.2103 -0.2426
27732SOL    HW287882  11.403  10.499   8.993  1.1957  0.5885 -1.4665
27733SOL     OW87883   7.103  11.974  10.198  0.5729 -0.8742 -0.2668
27733SOL    HW187884   7.178  12.026  10.168  0.9937 -0.2822  1.6917
27733SOL    HW287885   7.084  11.915  10.125  1.2950  0.7237 -1.8182
27734SOL     OW87886   7.221   6.717   1.738 -0.4268 -0.0071 -0.3277
27734SOL    HW187887   7.129   6.739   1.731 -0.9360 -1.7373  0.3605
27734SOL    HW287888   7.265   6.777   1.678 -2.2013 -0.4387 -2.1729
27735SOL     OW87889  10.710   2.602  11.025 -0.1374  0.0306  0.3157
27735SOL    HW187890  10.785   2.616  11.082 -0.1490 -1.1167  0.6464
27735SOL    HW287891  10.662   2.530  11.067 -0.4192 -0.4832 -0.8491
27736SOL     OW87892   1.319  11.305   4.739  0.2733 -0.7192 -0.0980
27736SOL    HW187893   1.412  11.316   4.716  0.2039 -1.0823 -0.5810
27736SOL    HW287894   1.281  11.392   4.726  0.8645 -0.1399  1.7352
27737SOL     OW87895   5.102   4.075   2.226  0.4055 -0.1460  0.9128
27737SOL    HW187896   5.170   4.109   2.284  0.2096  1.1017  0.4578
27737SOL    HW287897   5.122   4.115   2.141  1.2867 -2.6981 -0.1700
27738SOL     OW87898   8.340   3.083   9.051  0.2906  0.1043  0.6924
27738SOL    HW187899   8.366   3.010   8.995  0.0214  0.9041 -0.5066
27738SOL    HW287900   8.357   3.161   8.998 -0.9109  0.8339  1.3467
27739SOL     OW87901  10.811   6.956   3.834  0.6707  0.5947  0.3450
27739SOL    HW187902  10.835   6.868   3.864  1.2373  0.0095 -1.7076
27739SOL    HW287903  10.883   6.983   3.778  0.3978  2.3094  0.7628
27740SOL     OW87904   2.704  10.663   1.804  0.1361 -0.3148 -0.0719
27740SOL    HW187905   2.733  10.697   1.719  2.2355 -2.2698 -0.2439
27740SOL    HW287906   2.702  10.568   1.793 -1.3301 -0.5185  1.5651
27741SOL     OW87907   6.704   4.170  10.972  0.4412  0.0170 -0.1467
27741SOL    HW187908   6.757   4.122  11.036  0.0191  0.6616  0.7170
27741SOL    HW287909   6.618   4.179  11.014 -0.1847 -0.5270 -1.2904
27742SOL     OW87910   1.509   4.442   2.015  0.0908  0.0802  0.3593
27742SOL    HW187911   1.591   4.422   1.970  0.0663 -0.0444  0.3700
27742SOL    HW287912   1.454   4.480   1.947 -0.3260 -1.0903  0.0223
27743SOL     OW87913   3.064   1.794   7.881  0.5333 -0.3786  0.3348
27743SOL    HW187914   3.146   1.843   7.872 -1.6801  3.3714 -1.4223
27743SOL    HW287915   3.023   1.831   7.959 -0.8828  0.1206 -0.6250
27744SOL     OW87916   5.454   4.974   7.498 -0.1218 -0.1941 -0.2997
27744SOL    HW187917   5.455   5.001   7.590 -0.6752 -0.6387 -0.1622
27744SOL    HW287918   5.546   4.972   7.473  0.0894 -0.9102  0.4919
27745SOL     OW87919   2.361  10.930   7.185 -0.6259  0.0713 -0.4264
27745SOL    HW187920   2.377  10.837   7.200 -1.8642 -0.2297 -0.8220
27745SOL    HW287921   2.411  10.951   7.106  0.2611 -0.0656  0.0910
27746SOL     OW87922   4.331   5.421   1.336  0.1641 -0.2776  0.0501
27746SOL    HW187923   4.383   5.392   1.261  1.4750 -0.6162  1.0415
27746SOL    HW287924   4.359   5.511   1.352  2.3135 -1.1971  2.0355
27747SOL     OW87925   3.454   5.605   9.967 -0.3001 -0.1918  0.1243
27747SOL    HW187926   3.360   5.596   9.952 -0.5752  0.3681  1.3906
27747SOL    HW287927   3.461   5.657  10.047  1.0979  0.4295 -0.3701
27748SOL     OW87928  11.744   6.672   3.119  0.3552  0.3223 -0.2702
27748SOL    HW187929  11.808   6.603   3.139  0.6877  1.0994  1.5680
27748SOL    HW287930  11.672   6.656   3.181 -0.2111  0.8034 -0.7888
27749SOL     OW87931   3.673   8.313   4.756  0.3221  0.4682  0.5812
27749SOL    HW187932   3.581   8.287   4.760  0.0782  1.4070  1.3677
27749SOL    HW287933   3.714   8.262   4.826  0.8830 -1.6391 -1.1526
27750SOL     OW87934   0.871   5.073   2.596  0.6389 -0.2676  0.4112
27750SOL    HW187935   0.893   4.981   2.610 -0.9329 -0.1987  5.2590
27750SOL    HW287936   0.779   5.072   2.569  0.3933 -0.1815  1.2033
27751SOL     OW87937   3.908   6.275   8.151 -0.9062  0.3973  0.4122
27751SOL    HW187938   3.901   6.235   8.064 -0.0079  0.7358  0.1680
27751SOL    HW287939   3.914   6.200   8.210 -3.5900  0.1073  0.4456
27752SOL     OW87940   5.165   0.145  10.168  0.0041  0.7745 -0.0040
27752SOL    HW187941   5.253   0.123  10.197 -0.7013 -2.0807  0.2795
27752SOL    HW287942   5.108   0.115  10.239 -1.2778  1.3370 -0.7550
27753SOL     OW87943   2.005   6.351   9.098  0.2030  0.2539 -0.2217
27753SOL    HW187944   2.013   6.418   9.031 -0.1458  0.1372 -0.3825
27753SOL    HW287945   2.029   6.396   9.179 -1.2157  0.9268 -0.1368
27754SOL     OW87946  11.951   9.245   3.250  0.0212 -0.1195 -0.1601
27754SOL    HW187947  11.932   9.183   3.320  1.0948 -0.9652 -0.5922
27754SOL    HW287948  11.906   9.210   3.174  0.6830 -0.4353 -0.4203
27755SOL     OW87949   7.117   3.863  10.780 -0.0112  0.0801 -0.2194
27755SOL    HW187950   7.052   3.850  10.849 -0.1068 -1.9004 -0.6224
27755SOL    HW287951   7.182   3.794  10.795  0.2869  0.0019 -1.7338
27756SOL     OW87952   0.278   6.474   2.026 -0.1701 -0.1656  0.3294
27756SOL    HW187953   0.231   6.519   2.096 -0.6678 -0.0628 -0.0613
27756SOL    HW287954   0.209   6.448   1.964  0.1579 -1.1188  0.3620
27757SOL     OW87955   7.369   5.220  11.759  0.4658  0.0412  0.0731
27757SOL    HW187956   7.280   5.255  11.767  0.4620  0.1261 -0.3320
27757SOL    HW287957   7.385   5.216  11.665  0.6339 -0.6283  0.1258
27758SOL     OW87958   9.929   9.218  11.404  0.5883  0.5248  0.4646
27758SOL    HW187959   9.893   9.154  11.342  1.3761 -0.5692  1.0997
27758SOL    HW287960  10.023   9.200  11.405  0.8866  1.9156  0.4298
27759SOL     OW87961   9.664   3.251  10.674  0.1574  0.4382 -0.2191
27759SOL    HW187962   9.724   3.176  10.679 -2.1444 -1.4733  1.1653
27759SOL    HW287963   9.690   3.297  10.595  3.2362 -0.3964  0.1735
27760SOL     OW87964   4.022  10.562   6.905  0.4905 -0.2377  0.3514
27760SOL    HW187965   3.944  10.600   6.944  0.0765 -1.8679  1.1872
27760SOL    HW287966   4.077  10.538   6.980 -0.0736 -2.9204  0.0256
27761SOL     OW87967   3.811   1.360   3.961  0.4137 -0.3463 -0.0779
27761SOL    HW187968   3.875   1.368   3.890 -0.6988 -0.1193 -1.0753
27761SOL    HW287969   3.738   1.415   3.934  0.4424  0.7524  1.8210
27762SOL     OW87970   3.484   6.120   4.562  0.0389  0.2983 -0.5163
27762SOL    HW187971   3.505   6.208   4.531 -0.3518  0.0912 -1.3874
27762SOL    HW287972   3.566   6.071   4.554  0.9002  1.1273  2.0906
27763SOL     OW87973   4.399  11.246  11.302  0.1726 -0.1001 -0.1467
27763SOL    HW187974   4.494  11.243  11.295  0.2251  1.4833 -0.3771
27763SOL    HW287975   4.371  11.157  11.282  1.4834 -0.1470 -2.0856
27764SOL     OW87976  10.188   7.745   9.603 -0.4260  0.0880 -0.5118
27764SOL    HW187977  10.239   7.800   9.543 -0.5177 -1.2426 -1.8656
27764SOL    HW287978  10.155   7.674   9.549 -0.0401 -1.5111  1.2380
27765SOL     OW87979   4.093   2.841   4.020 -0.3098 -0.5151  0.6024
27765SOL    HW187980   4.041   2.903   3.968  0.6671 -1.4357 -1.6176
27765SOL    HW287981   4.032   2.770   4.041 -0.9028  0.2075  1.3807
27766SOL     OW87982  11.356   3.507   4.556  0.9916  0.0848  0.4727
27766SOL    HW187983  11.363   3.424   4.604  2.0077  0.5825  1.2346
27766SOL    HW287984  11.283   3.494   4.496  0.8831 -1.2263  0.8519
27767SOL     OW87985   6.689  11.071   9.426 -0.2287  0.1620 -0.5970
27767SOL    HW187986   6.739  11.147   9.398  1.0827 -0.3424  0.2715
27767SOL    HW287987   6.605  11.080   9.382  0.6789  0.9471 -2.2650
27768SOL     OW87988   3.629   6.907   6.033  0.2029  0.3819 -0.2063
27768SOL    HW187989   3.637   6.907   5.938  0.4265  0.2583 -0.1875
27768SOL    HW287990   3.553   6.852   6.051 -0.9053  1.8073 -0.4039
27769SOL     OW87991   8.811  11.030   2.813 -0.0328  0.4771  0.0797
27769SOL    HW187992   8.781  11.054   2.726  0.6054  0.6438 -0.1012
27769SOL    HW287993   8.746  10.968   2.845  0.6731 -1.0406 -1.2632
27770SOL     OW87994   9.405   6.580  11.592 -0.2681  0.3856  0.3835
27770SOL    HW187995   9.319   6.621  11.597 -1.0656 -0.9876 -1.0260
27770SOL    HW287996   9.388   6.487  11.612  0.9248  0.1481  0.3516
27771SOL     OW87997   0.125   9.705   0.497 -0.1176  0.0978  0.1757
27771SOL    HW187998   0.075   9.627   0.472 -0.2204 -0.6955  2.5873
27771SOL    HW287999   0.089   9.730   0.582  1.6720  1.2391  0.6469
27772SOL     OW88000   6.485   3.253   5.083  0.3199  0.5472 -0.0004
27772SOL    HW188001   6.517   3.169   5.115 -0.0118  0.8194  1.0865
27772SOL    HW288002   6.423   3.231   5.013  1.3661 -0.0480 -0.7629
27773SOL     OW88003   6.529   8.661   6.384 -0.1864 -0.1783 -0.3598
27773SOL    HW188004   6.494   8.691   6.300  2.0405  1.3627 -0.8361
27773SOL    HW288005   6.617   8.630   6.363 -0.3291 -1.7198  1.1148
27774SOL     OW88006   1.421   0.589   8.759  0.2142  0.6372  0.0515
27774SOL    HW188007   1.414   0.648   8.684 -2.6155 -2.0765 -2.1209
27774SOL    HW288008   1.367   0.629   8.826  0.5678  1.8013 -0.3327
27775SOL     OW88009   2.043   9.675   9.981 -0.2810  0.5340 -0.0056
27775SOL    HW188010   2.043   9.613   9.907  0.0377 -0.2109  0.6099
27775SOL    HW288011   2.065   9.759   9.941  2.3191 -0.2563 -0.4431
27776SOL     OW88012   7.638   7.812  10.455  0.4299  0.5515 -0.5163
27776SOL    HW188013   7.707   7.836  10.393  1.7795  2.0555  1.4269
27776SOL    HW288014   7.670   7.733  10.497  0.2461  0.4004 -0.6601
27777SOL     OW88015  10.100   7.477   9.096 -0.2293  0.0071 -0.1602
27777SOL    HW188016  10.193   7.451   9.095 -0.2836 -0.2840  0.9952
27777SOL    HW288017  10.096   7.554   9.040  0.8718  0.5240  0.4480
27778SOL     OW88018  10.039   9.552   1.698  0.0435  0.0013  0.1981
27778SOL    HW188019  10.099   9.538   1.771 -0.4809  1.6242  0.9839
27778SOL    HW288020  10.071   9.631   1.655 -0.6661  0.0444 -0.2710
27779SOL     OW88021   7.360   1.514   3.752 -0.3200 -0.2816  0.3044
27779SOL    HW188022   7.272   1.524   3.715 -1.0035 -0.4882  1.7941
27779SOL    HW288023   7.346   1.466   3.833  1.1906 -0.3673  0.5353
27780SOL     OW88024  11.584   0.531   1.107 -0.7106  0.2339 -0.2961
27780SOL    HW188025  11.499   0.495   1.084 -1.0646 -0.5234  1.9750
27780SOL    HW288026  11.573   0.625   1.103 -1.8526  0.1532  0.5687
27781SOL     OW88027   9.190   2.021  10.214  0.2158 -0.4769  0.2375
27781SOL    HW188028   9.122   1.960  10.184 -0.1953 -0.6757  1.4970
27781SOL    HW288029   9.153   2.060  10.293  1.9443 -1.2763  1.4924
27782SOL     OW88030   9.358  10.447   4.233 -0.6185  0.0615  0.1377
27782SOL    HW188031   9.374  10.492   4.150  1.4355  0.3216  0.6377
27782SOL    HW288032   9.315  10.513   4.288  1.0759  1.0055  0.3844
27783SOL     OW88033   2.597   3.302   5.652  0.7277 -0.3143 -0.7273
27783SOL    HW188034   2.583   3.224   5.705  0.9881  0.2473  0.1897
27783SOL    HW288035   2.678   3.341   5.686  0.2050  0.7531 -0.6536
27784SOL     OW88036   3.261  11.407   2.292  0.9288  0.4960 -0.0837
27784SOL    HW188037   3.303  11.322   2.307  0.9807  0.7250  1.1809
27784SOL    HW288038   3.169  11.392   2.312  1.1503  1.0306  1.5039
27785SOL     OW88039  10.163   3.904   4.420 -0.0936 -0.5003 -0.3431
27785SOL    HW188040  10.119   3.848   4.356 -1.3306  0.9505 -0.8305
27785SOL    HW288041  10.172   3.989   4.376  2.2272 -0.4025  0.1656
27786SOL     OW88042   7.941   7.951   4.141 -0.1616 -0.1936  0.6155
27786SOL    HW188043   7.879   7.951   4.068  0.7888  2.9344 -0.3611
27786SOL    HW288044   7.926   8.034   4.186  2.8192  0.4340  0.7069
27787SOL     OW88045  10.098   9.682  10.474  0.4024  0.0677 -0.6868
27787SOL    HW188046  10.112   9.588  10.464  0.6430  0.0851 -0.5331
27787SOL    HW288047  10.007   9.690  10.503  1.3723 -0.4004  3.1101
27788SOL     OW88048   8.652   2.160   8.586 -0.3781  0.4732  0.3677
27788SOL    HW188049   8.674   2.087   8.644 -1.5495  1.6691  2.4432
27788SOL    HW288050   8.592   2.122   8.522  0.8842 -0.8720 -0.0547
27789SOL     OW88051   7.708   1.389   7.388 -0.0565 -0.5269  0.1644
27789SOL    HW188052   7.739   1.301   7.410  1.6334  0.1439  0.6049
27789SOL    HW288053   7.666   1.420   7.469 -0.6061 -0.8993  0.0252
27790SOL     OW88054   9.272   0.395   9.348  0.2402 -0.0877 -0.0895
27790SOL    HW188055   9.294   0.323   9.288 -1.1132 -2.1934  1.8018
27790SOL    HW288056   9.177   0.402   9.343  0.3205  1.4286 -0.0041
27791SOL     OW88057   7.865   1.774   3.359 -0.0893  0.2703 -0.0373
27791SOL    HW188058   7.883   1.811   3.445  1.6110  1.0273 -0.6795
27791SOL    HW288059   7.899   1.684   3.364 -0.9086 -0.0309  0.3693
27792SOL     OW88060   3.528   1.474   6.656  0.2860  0.2183  0.2964
27792SOL    HW188061   3.563   1.385   6.661  0.7084  0.0389 -3.1908
27792SOL    HW288062   3.433   1.463   6.668  0.4083 -0.6073  0.5318
27793SOL     OW88063   0.241   7.201   7.440  0.2958  0.4855 -0.2418
27793SOL    HW188064   0.332   7.197   7.410 -0.7715 -1.3296 -3.6736
27793SOL    HW288065   0.200   7.265   7.383 -0.6835  1.2453  1.2439
27794SOL     OW88066  10.308   3.872   6.936  0.1680  0.2577 -0.1142
27794SOL    HW188067  10.251   3.948   6.924  0.1125  0.6197  2.1464
27794SOL    HW288068  10.387   3.907   6.976  1.1471 -0.5658 -1.2359
27795SOL     OW88069   9.355  10.113   3.244  0.3416  0.2231  0.3157
27795SOL    HW188070   9.408  10.048   3.198  0.7289  2.2710 -2.4012
27795SOL    HW288071   9.301  10.062   3.304  1.6634 -2.4379 -0.5879
27796SOL     OW88072  10.192   1.154   6.209 -0.5991 -0.4790  0.4400
27796SOL    HW188073  10.187   1.218   6.280  0.8184 -0.7477  0.8022
27796SOL    HW288074  10.173   1.204   6.130 -0.4804  0.1766  0.8244
27797SOL     OW88075  10.771   3.405   7.259  0.2949 -0.2518 -0.1046
27797SOL    HW188076  10.845   3.354   7.290  0.7833  0.1899 -0.5413
27797SOL    HW288077  10.748   3.462   7.333 -0.7656 -1.6309  0.6876
27798SOL     OW88078   4.535   2.064   7.923 -0.1997 -0.4283  0.4441
27798SOL    HW188079   4.526   1.978   7.881 -1.9511  0.1364 -0.4537
27798SOL    HW288080   4.482   2.123   7.869 -0.5911  0.8249  2.1096
27799SOL     OW88081   9.362   7.729   1.127 -0.2739  0.3797 -0.2755
27799SOL    HW188082   9.299   7.797   1.149  1.3923  1.4324  1.5330
27799SOL    HW288083   9.315   7.672   1.067 -2.7901  1.3478  0.6300
27800SOL     OW88084   4.090   6.346  10.345 -0.2001 -0.4821 -0.3996
27800SOL    HW188085   4.024   6.402  10.305 -0.3550  0.4976  1.1496
27800SOL    HW288086   4.066   6.257  10.319 -0.5847  0.0565 -2.0003
27801SOL     OW88087   5.639   8.696   0.936  0.2276 -0.0201 -0.2840
27801SOL    HW188088   5.728   8.733   0.936  0.6379 -0.9606  0.4274
27801SOL    HW288089   5.636   8.642   0.857 -0.5132  1.7913 -1.5503
27802SOL     OW88090   7.443  10.210   8.101  0.4020  0.0973  0.2622
27802SOL    HW188091   7.528  10.187   8.063  0.4317 -2.0451  1.4479
27802SOL    HW288092   7.384  10.215   8.026  1.2824  0.1693 -0.4473
27803SOL     OW88093   9.225   7.133   6.541 -0.9865 -0.3819 -0.3052
27803SOL    HW188094   9.285   7.064   6.514 -0.6005 -0.4499  0.6930
27803SOL    HW288095   9.143   7.087   6.562 -0.1190 -0.8668  2.3918
27804SOL     OW88096  11.286   9.287   3.642 -0.6156 -0.6258  0.2750
27804SOL    HW188097  11.379   9.286   3.665 -0.9913 -2.9705  2.0675
27804SOL    HW288098  11.284   9.265   3.549  0.6579  1.9211 -0.4647
27805SOL     OW88099   6.520  10.130  11.760 -1.0933 -0.2576 -0.2945
27805SOL    HW188100   6.501  10.039  11.739 -0.1335 -0.1711 -1.6411
27805SOL    HW288101   6.587  10.156  11.697 -0.4290  1.0140  0.8790
27806SOL     OW88102   3.011   3.204  10.373  0.3847  0.1519 -0.2826
27806SOL    HW188103   2.944   3.261  10.336  2.2181  1.8340 -1.1848
27806SOL    HW288104   3.000   3.121  10.327 -1.5462  0.0981  0.1744
27807SOL     OW88105  10.327  10.730   0.965 -0.1516  0.7014  0.0281
27807SOL    HW188106  10.326  10.740   0.870 -0.9575  0.8400  0.0471
27807SOL    HW288107  10.268  10.656   0.982 -0.0806  0.7344  0.4265
27808SOL     OW88108  10.311   5.119   2.883 -0.1790  0.3734 -0.3110
27808SOL    HW188109  10.237   5.067   2.851 -0.9145  1.4836 -0.4796
27808SOL    HW288110  10.364   5.137   2.805 -1.1403  1.7564 -0.6913
27809SOL     OW88111   1.601   4.109   5.192 -0.2483 -0.6261 -0.2138
27809SOL    HW188112   1.569   4.152   5.113 -2.1512  1.2985  1.4785
27809SOL    HW288113   1.543   4.033   5.203 -0.2513 -0.6571 -0.4311
27810SOL     OW88114   9.739   8.343   7.579 -0.4085  0.1030 -0.5665
27810SOL    HW188115   9.770   8.387   7.500 -0.7812 -0.0169 -0.7832
27810SOL    HW288116   9.781   8.389   7.651  1.4862 -1.0021 -0.9109
27811SOL     OW88117   4.863   0.468   8.414  0.2992 -0.1579 -0.0602
27811SOL    HW188118   4.945   0.435   8.449  0.5910 -0.2940 -0.8405
27811SOL    HW288119   4.876   0.467   8.319  0.2788  2.0571 -0.1525
27812SOL     OW88120   8.612   8.385   2.533 -0.4148 -0.4786  0.3144
27812SOL    HW188121   8.616   8.321   2.462  0.8258  0.7273 -0.7479
27812SOL    HW288122   8.699   8.383   2.572 -0.7096 -0.2208  0.9942
27813SOL     OW88123  10.757   8.323   2.103 -0.7100 -0.0003  0.1540
27813SOL    HW188124  10.758   8.335   2.008  0.7185 -1.3227 -0.0435
27813SOL    HW288125  10.826   8.381   2.136  0.1299 -0.9473  0.1354
27814SOL     OW88126   3.763   2.710   2.105 -0.3681 -0.3495 -0.0490
27814SOL    HW188127   3.776   2.737   2.014  1.9554  2.5624  0.9817
27814SOL    HW288128   3.668   2.699   2.113 -1.0258  2.5619 -2.0607
27815SOL     OW88129   4.097  10.545   8.036  0.0079 -0.6265 -0.1856
27815SOL    HW188130   4.048  10.626   8.051 -1.7259 -1.3692 -1.5037
27815SOL    HW288131   4.123  10.549   7.945 -1.2929 -2.1055 -0.6838
27816SOL     OW88132   8.663   9.296  10.495  0.2985  0.0648  0.4604
27816SOL    HW188133   8.686   9.387  10.518 -0.4699  0.1676  0.8802
27816SOL    HW288134   8.701   9.244  10.566  1.3648 -0.0246 -0.1611
27817SOL     OW88135  10.652   5.663   0.045 -0.2512 -0.2175  0.4989
27817SOL    HW188136  10.588   5.725   0.079 -1.2167 -0.6296 -0.5059
27817SOL    HW288137  10.601   5.584   0.025  0.8000 -1.0384  0.9310
27818SOL     OW88138   0.665   2.964  11.982  0.2639 -0.1863  0.4435
27818SOL    HW188139   0.698   2.878  12.008  2.4833  0.5067  0.1144
27818SOL    HW288140   0.596   2.945  11.919  1.4700 -1.7453 -0.4704
27819SOL     OW88141   8.875   0.791   0.420 -0.3874  0.1835 -0.2322
27819SOL    HW188142   8.924   0.719   0.382  1.3598  1.4111 -0.4425
27819SOL    HW288143   8.929   0.822   0.493 -0.8732  1.5058 -0.3916
27820SOL     OW88144   0.552   9.850   4.267 -0.6216 -0.7124 -0.0297
27820SOL    HW188145   0.542   9.775   4.325 -2.2742 -0.3044  0.2791
27820SOL    HW288146   0.619   9.824   4.203 -0.7596 -2.2090  0.4189
27821SOL     OW88147   8.596   6.965   8.296  0.0355  0.0907  0.7884
27821SOL    HW188148   8.539   7.042   8.291  0.5599  0.5630  1.8655
27821SOL    HW288149   8.682   7.000   8.317  0.3638 -0.7716  0.9046
27822SOL     OW88150   9.446   3.795   1.479 -0.4088 -0.1944  0.0658
27822SOL    HW188151   9.517   3.843   1.436 -1.3593  0.7611 -0.4899
27822SOL    HW288152   9.487   3.755   1.556  0.7774  0.1307 -0.3748
27823SOL     OW88153   2.802  11.419   0.642 -0.0800  0.3610  0.6131
27823SOL    HW188154   2.753  11.500   0.627 -0.3955 -0.1203 -1.1741
27823SOL    HW288155   2.888  11.448   0.672 -0.2525  1.3462  0.1729
27824SOL     OW88156   9.158   3.579   6.293  0.0171  0.3029 -0.1688
27824SOL    HW188157   9.155   3.504   6.234  1.2063 -1.4194  1.7923
27824SOL    HW288158   9.194   3.543   6.374  0.9220  3.0828  0.7670
27825SOL     OW88159   7.863   8.392   9.567  0.5316 -0.6096 -0.5423
27825SOL    HW188160   7.816   8.355   9.641 -0.5040  0.3882 -0.6726
27825SOL    HW288161   7.931   8.446   9.607 -1.4837  1.8469 -0.1794
27826SOL     OW88162   9.792   3.485   2.148  1.1533  0.2249  0.1001
27826SOL    HW188163   9.799   3.398   2.187 -1.7808  0.0615  0.5071
27826SOL    HW288164   9.778   3.470   2.055 -1.8288  0.0050  0.4838
27827SOL     OW88165   5.383  10.953  10.959  0.3437  0.3898 -0.1005
27827SOL    HW188166   5.387  11.007  11.038  0.0058  0.9188 -0.4437
27827SOL    HW288167   5.329  11.003  10.898  0.0587 -0.3170 -0.4350
27828SOL     OW88168  10.737   5.741  10.403 -0.2189 -0.3260  0.3738
27828SOL    HW188169  10.826   5.771  10.419 -0.5209  1.0467 -0.3587
27828SOL    HW288170  10.688   5.820  10.382 -0.8031 -1.3999 -2.8699
27829SOL     OW88171   3.797   8.087  10.021  0.5680 -0.3500 -0.2029
27829SOL    HW188172   3.801   8.108  10.114  1.0215  0.6796 -0.4313
27829SOL    HW288173   3.739   8.154   9.984 -2.3672 -2.6875 -0.2033
27830SOL     OW88174   9.016   4.426  10.674 -0.2571  0.3565  0.3097
27830SOL    HW188175   9.105   4.416  10.707  0.3006 -2.0691 -1.6540
27830SOL    HW288176   8.962   4.374  10.734  0.0775 -0.3865 -0.0229
27831SOL     OW88177   7.188   2.548   6.106 -0.2241 -0.4345 -0.2243
27831SOL    HW188178   7.259   2.605   6.136 -1.0918  0.5455  0.0441
27831SOL    HW288179   7.225   2.460   6.109  0.5218 -0.1033  1.3308
27832SOL     OW88180   7.674   4.844   4.516  0.1407  0.4983  0.4159
27832SOL    HW188181   7.655   4.917   4.457 -0.8587  1.3072  1.6773
27832SOL    HW288182   7.768   4.847   4.529  0.3083  0.6083 -0.7322
27833SOL     OW88183   2.712  10.201   7.585  0.6810 -0.4196  0.3497
27833SOL    HW188184   2.729  10.140   7.514  0.7568  0.0892 -0.0699
27833SOL    HW288185   2.626  10.237   7.565  0.8405 -0.0409  0.3454
27834SOL     OW88186   0.131   0.972   9.169  0.0388  0.3771  0.3173
27834SOL    HW188187   0.138   0.978   9.264 -0.0094 -0.2426  0.3633
27834SOL    HW288188   0.144   0.879   9.150 -0.3337  0.4386 -0.2503
27835SOL     OW88189   1.465   6.545   9.559  0.1615  0.1206 -0.1911
27835SOL    HW188190   1.508   6.485   9.620 -3.6213 -0.3899  2.2829
27835SOL    HW288191   1.457   6.495   9.478  1.3794 -0.8342  0.2397
27836SOL     OW88192   7.162   7.467   8.058  0.0072 -0.1013  0.1511
27836SOL    HW188193   7.095   7.400   8.047  1.0688 -1.1188 -0.3146
27836SOL    HW288194   7.232   7.424   8.106 -0.1227  1.2769  1.6637
27837SOL     OW88195   1.125   7.793   0.914  0.2530  0.4832 -0.4957
27837SOL    HW188196   1.182   7.749   0.852 -0.2001  0.1116 -0.6510
27837SOL    HW288197   1.083   7.863   0.864  0.8471  1.0017 -0.2895
27838SOL     OW88198   6.409   9.551   7.901 -0.0049  0.3937  0.1654
27838SOL    HW188199   6.314   9.537   7.909  0.1461  0.0684  1.8337
27838SOL    HW288200   6.418   9.646   7.899 -0.3222  0.4808  1.4637
27839SOL     OW88201   3.792   0.900   9.330 -0.6138 -0.2610 -0.4407
27839SOL    HW188202   3.858   0.921   9.264  0.3224 -1.3042  0.1151
27839SOL    HW288203   3.774   0.983   9.374  2.2506 -0.3098  1.0686
27840SOL     OW88204   9.436   7.268   3.176  0.1178 -0.6226  0.1289
27840SOL    HW188205   9.527   7.251   3.153  0.2371  0.1929 -0.0355
27840SOL    HW288206   9.422   7.360   3.153 -0.7766 -0.7673  0.0632
27841SOL     OW88207  10.583   9.831  10.986 -0.1157  0.1500 -0.0824
27841SOL    HW188208  10.492   9.807  11.004 -0.4831  1.3945 -0.1753
27841SOL    HW288209  10.590   9.831  10.891 -0.2717  0.8866 -0.1023
27842SOL     OW88210   9.571   1.340  11.797  0.1495 -0.2757  0.1317
27842SOL    HW188211   9.604   1.424  11.831  0.4330 -0.3676  0.0866
27842SOL    HW288212   9.507   1.365  11.730 -0.8320 -0.0869  1.1046
27843SOL     OW88213   1.869   2.009   9.792  0.5812  0.4528 -0.3658
27843SOL    HW188214   1.931   1.937   9.778 -0.0249 -0.1759  0.1500
27843SOL    HW288215   1.875   2.061   9.711  1.1292 -0.0914 -0.6851
27844SOL     OW88216   7.006   9.193   4.375  0.1855  0.0997 -0.3797
27844SOL    HW188217   7.065   9.267   4.359  2.2978 -1.5601 -0.6596
27844SOL    HW288218   7.051   9.139   4.440 -1.4391 -0.8287  0.0566
27845SOL     OW88219   9.721   6.622   0.427  0.0447 -0.0715 -0.1463
27845SOL    HW188220   9.796   6.681   0.424 -0.4654  0.5584 -0.8119
27845SOL    HW288221   9.737   6.558   0.358  0.1224 -0.1273 -0.0765
27846SOL     OW88222   4.454   5.204  11.065  0.0758  0.2293 -0.7406
27846SOL    HW188223   4.526   5.152  11.028  0.0769  1.1213 -2.0627
27846SOL    HW288224   4.376   5.150  11.051  0.5508 -1.2032  1.6225
27847SOL     OW88225   3.097   1.363   0.826 -0.6627 -0.3181 -0.0276
27847SOL    HW188226   3.015   1.336   0.785  0.6468 -1.0565 -2.3338
27847SOL    HW288227   3.153   1.285   0.822  1.3363  1.1023 -1.8329
27848SOL     OW88228  10.118   8.968   3.016  0.0946 -0.2832 -0.3002
27848SOL    HW188229  10.052   8.958   2.947 -0.8843 -1.0561  0.7082
27848SOL    HW288230  10.187   8.905   2.994  0.3251  0.2553 -1.1499
27849SOL     OW88231   6.467  10.386   1.480  0.7144  0.3521 -0.1688
27849SOL    HW188232   6.538  10.328   1.506  0.2155  0.0478  0.5304
27849SOL    HW288233   6.453  10.444   1.555  0.5457  0.7272 -0.4836
27850SOL     OW88234   7.808   2.493   7.567 -0.0702  0.4187  0.1334
27850SOL    HW188235   7.869   2.493   7.494  1.6676  0.4565  1.5219
27850SOL    HW288236   7.788   2.586   7.581 -0.9468  0.3700 -0.6852
27851SOL     OW88237   2.469   6.577   6.812 -0.3437 -0.0627 -0.2440
27851SOL    HW188238   2.535   6.515   6.782 -0.6763  0.0193 -1.1614
27851SOL    HW288239   2.423   6.531   6.882  0.1524 -0.4189 -0.1441
27852SOL     OW88240   0.202   4.949   7.661 -0.6831  0.1260 -0.1050
27852SOL    HW188241   0.278   5.004   7.639 -1.2768  1.0039 -0.0311
27852SOL    HW288242   0.226   4.862   7.630  0.6477  0.2291  0.5613
27853SOL     OW88243  11.922   2.083   6.410 -0.5411  0.6610  0.1296
27853SOL    HW188244  12.005   2.072   6.456  0.2074 -0.4308 -1.4046
27853SOL    HW288245  11.871   2.006   6.435  0.2312 -0.4426 -1.5170
27854SOL     OW88246  11.525   7.750   9.924 -0.0623  0.5087 -0.2084
27854SOL    HW188247  11.487   7.673   9.883 -1.2332  0.5375  0.7638
27854SOL    HW288248  11.562   7.801   9.852  1.5652 -1.3781 -0.7846
27855SOL     OW88249   1.730   0.686   4.486 -0.0428 -0.0946  0.1229
27855SOL    HW188250   1.814   0.724   4.460 -0.7625  1.0727 -0.5932
27855SOL    HW288251   1.664   0.750   4.456 -1.1172 -0.3736  1.7398
27856SOL     OW88252   2.368   1.330  11.209  0.4223 -0.3957  0.3321
27856SOL    HW188253   2.318   1.275  11.269  0.4434 -2.3199 -1.3109
27856SOL    HW288254   2.306   1.397  11.180 -0.1896 -0.7176  0.8764
27857SOL     OW88255   3.508   3.624   5.222  0.0061  0.0184  0.0760
27857SOL    HW188256   3.505   3.667   5.137 -0.1475 -0.2490 -0.0578
27857SOL    HW288257   3.416   3.624   5.251  0.2094  1.1094  0.7553
27858SOL     OW88258   8.149   0.294   5.588  0.0936 -0.2117 -0.2085
27858SOL    HW188259   8.070   0.309   5.536 -0.4368  2.4786  1.1847
27858SOL    HW288260   8.118   0.256   5.670  0.2750  0.4029  0.1541
27859SOL     OW88261   1.705   8.077   9.814  0.4301 -0.3245 -0.5827
27859SOL    HW188262   1.618   8.108   9.789 -0.3774 -0.8152  1.4186
27859SOL    HW288263   1.703   7.983   9.797  0.7503 -0.2542 -1.0157
27860SOL     OW88264  10.182   4.177  10.984 -0.3488 -0.0764 -0.5402
27860SOL    HW188265  10.258   4.163  10.927  0.4344  0.1999  0.4118
27860SOL    HW288266  10.165   4.091  11.023  0.9715  0.3199  1.0319
27861SOL     OW88267   1.666  11.136   2.320 -0.4634  0.0216 -0.3276
27861SOL    HW188268   1.731  11.193   2.362 -0.4344  0.2852 -0.7271
27861SOL    HW288269   1.619  11.193   2.259 -1.0787 -0.1671 -0.0412
27862SOL     OW88270   0.038   9.315   1.111  0.0721 -0.2778 -0.4901
27862SOL    HW188271   0.133   9.318   1.124  0.1636  1.0816 -1.2661
27862SOL    HW288272   0.003   9.370   1.180 -0.2688 -1.6950  0.5059
27863SOL     OW88273   8.099  10.172   7.719 -0.6738 -0.3944  0.2876
27863SOL    HW188274   8.085  10.190   7.625 -1.7945  1.8974  0.8050
27863SOL    HW288275   8.017  10.132   7.747 -0.4996 -0.6827  0.3850
27864SOL     OW88276   8.596  11.462   3.569  0.8472 -0.7377  0.0031
27864SOL    HW188277   8.512  11.459   3.615  0.9656 -1.5909  0.1769
27864SOL    HW288278   8.653  11.514   3.626  0.4107 -0.0311 -0.1827
27865SOL     OW88279   1.288   0.889   0.965 -0.4034  0.1938 -0.0791
27865SOL    HW188280   1.299   0.915   1.057  1.3851 -2.0678  0.4211
27865SOL    HW288281   1.375   0.861   0.937 -1.3146 -1.0436 -1.8643
27866SOL     OW88282  10.259   0.421   8.313 -0.1691 -0.4409 -0.4685
27866SOL    HW188283  10.240   0.508   8.346 -0.7573 -0.0174 -1.8355
27866SOL    HW288284  10.311   0.436   8.234  1.1895 -1.4064  0.2137
27867SOL     OW88285   2.427  10.522   0.585 -0.4041  0.3330 -0.8663
27867SOL    HW188286   2.407  10.531   0.678  0.9395  0.6285 -0.5878
27867SOL    HW288287   2.418  10.428   0.567 -1.2177  0.3540 -0.5745
27868SOL     OW88288  10.354   5.502  10.206 -0.3478 -0.0684 -0.3816
27868SOL    HW188289  10.436   5.454  10.223  1.3308  2.0508 -1.8500
27868SOL    HW288290  10.366   5.586  10.251 -1.8227  0.2026 -0.4560
27869SOL     OW88291  10.498   7.562  11.351  0.1466 -0.2057  0.5304
27869SOL    HW188292  10.414   7.526  11.379 -0.5671 -0.1897 -1.4530
27869SOL    HW288293  10.476   7.632  11.291  1.5712 -0.3931 -0.2739
27870SOL     OW88294   8.771   5.622   3.954 -0.1687 -0.5469  0.2335
27870SOL    HW188295   8.853   5.615   4.003 -0.5457 -1.4874  0.7430
27870SOL    HW288296   8.793   5.588   3.867  0.0170 -0.6779  0.3296
27871SOL     OW88297   1.299   3.519   1.344 -0.1797  0.4902 -0.7148
27871SOL    HW188298   1.301   3.562   1.258 -1.6239  0.1577 -0.9272
27871SOL    HW288299   1.270   3.430   1.326 -2.5412  0.9811  0.3063
27872SOL     OW88300   6.782  10.160   0.974  0.6811 -0.3279  0.0180
27872SOL    HW188301   6.839  10.230   1.007 -1.8556  1.1027  1.6835
27872SOL    HW288302   6.773  10.179   0.880 -1.3637  2.8438  0.6941
27873SOL     OW88303   9.260  10.324   1.723 -0.3341 -0.4103  0.1640
27873SOL    HW188304   9.348  10.309   1.756 -0.3496  1.5086  1.2449
27873SOL    HW288305   9.263  10.296   1.631  1.4411 -0.2430  0.1389
27874SOL     OW88306   3.217   0.811   2.797  0.4317 -0.3288  0.1819
27874SOL    HW188307   3.251   0.765   2.721 -0.9220  0.9938 -1.3113
27874SOL    HW288308   3.179   0.892   2.761 -2.4026 -0.7626  1.9030
27875SOL     OW88309  11.375   4.011   1.807  0.6907  0.5514 -0.2924
27875SOL    HW188310  11.325   4.017   1.888 -0.3889 -0.2882 -0.8607
27875SOL    HW288311  11.325   3.949   1.753  1.2289  1.2940 -1.6981
27876SOL     OW88312   6.623   2.125   8.107  0.0417  0.1192 -0.0769
27876SOL    HW188313   6.569   2.191   8.063  0.4447  0.7201  0.3129
27876SOL    HW288314   6.564   2.051   8.121 -0.7162  0.7937  0.4169
27877SOL     OW88315   5.630   4.342   2.018  0.0528 -0.3481 -1.5494
27877SOL    HW188316   5.668   4.258   2.044 -2.2025 -1.5882 -1.9983
27877SOL    HW288317   5.535   4.328   2.023 -0.4541  2.8262  0.3829
27878SOL     OW88318   5.729  10.253   4.750 -0.1051  0.4783 -0.4676
27878SOL    HW188319   5.653  10.289   4.796 -0.3443 -0.2964 -0.2268
27878SOL    HW288320   5.753  10.320   4.687 -1.3414  0.5121 -0.9404
27879SOL     OW88321   0.569   1.226   1.208 -0.5399 -0.1880  0.4212
27879SOL    HW188322   0.479   1.257   1.201 -0.5215 -0.3494 -0.9379
27879SOL    HW288323   0.603   1.269   1.286 -1.2209  1.4115 -0.1021
27880SOL     OW88324   6.352   1.291   6.818  0.1951  0.3647 -0.0734
27880SOL    HW188325   6.349   1.215   6.760  0.6922  0.3771 -0.1230
27880SOL    HW288326   6.424   1.272   6.879  0.6565  1.0170 -0.4033
27881SOL     OW88327   3.665   8.663   4.059 -0.1706  0.1080  1.1456
27881SOL    HW188328   3.637   8.590   4.114 -0.8151 -2.4557 -2.2688
27881SOL    HW288329   3.761   8.658   4.060 -0.1313 -2.9352 -1.3234
27882SOL     OW88330   2.987   2.049   4.075  0.2935  0.0652  0.1057
27882SOL    HW188331   3.041   1.970   4.089  1.1516 -0.2180 -3.6110
27882SOL    HW288332   3.046   2.110   4.031 -1.2193  1.5658  0.0690
27883SOL     OW88333   1.268  11.816   4.816 -0.1894  0.5007 -0.5276
27883SOL    HW188334   1.299  11.896   4.858 -0.7898  0.6275 -0.3192
27883SOL    HW288335   1.229  11.764   4.887  1.1070 -0.4419 -0.4751
27884SOL     OW88336   8.355   7.278   0.161  0.1230  0.0139  0.3721
27884SOL    HW188337   8.366   7.183   0.166  1.7974  0.0803 -1.0634
27884SOL    HW288338   8.392   7.311   0.243  0.5994 -0.5136  0.3772
27885SOL     OW88339   5.624  10.307   2.473 -0.3827 -0.1238 -0.3602
27885SOL    HW188340   5.697  10.316   2.533 -0.3930 -2.3841  0.0492
27885SOL    HW288341   5.552  10.356   2.515  0.7019  1.7409 -0.5655
27886SOL     OW88342  11.977   6.826   1.394 -0.2888 -0.3474 -0.3006
27886SOL    HW188343  11.896   6.781   1.416  0.0646 -1.9840 -2.0658
27886SOL    HW288344  11.980   6.902   1.453 -2.2007 -1.2127  0.9846
27887SOL     OW88345   8.512   4.230  10.188  0.6335  0.5099  0.4634
27887SOL    HW188346   8.424   4.230  10.150  0.5420  1.5453  0.6461
27887SOL    HW288347   8.498   4.229  10.282  0.7932  1.3163  0.5058
27888SOL     OW88348  11.980   8.147   3.319  0.0545 -0.4768  0.0049
27888SOL    HW188349  11.903   8.135   3.374 -0.9072 -1.1564 -1.4055
27888SOL    HW288350  12.046   8.089   3.357 -0.2164 -0.1213  1.0511
27889SOL     OW88351   7.228   5.031   2.362  0.2448  0.0553  0.9833
27889SOL    HW188352   7.248   5.110   2.311  0.2760  0.7848  2.0795
27889SOL    HW288353   7.232   5.061   2.454  0.7322 -1.3303  1.4308
27890SOL     OW88354   3.894  10.848   0.194  0.3208  0.0034 -0.3467
27890SOL    HW188355   3.810  10.801   0.197 -0.2304  0.9123  3.5049
27890SOL    HW288356   3.960  10.780   0.209 -0.2486 -0.0454  2.2731
27891SOL     OW88357   3.589   6.930   5.731 -0.3905 -0.3764 -0.0475
27891SOL    HW188358   3.546   7.002   5.684 -0.5788 -0.8567 -0.6285
27891SOL    HW288359   3.616   6.869   5.662  1.9635  0.2787  0.2269
27892SOL     OW88360   7.877   3.789   0.851 -0.0138 -0.0839  0.5227
27892SOL    HW188361   7.792   3.790   0.805  0.0025  0.6594  0.4953
27892SOL    HW288362   7.941   3.806   0.782  0.1899 -0.9067  0.4984
27893SOL     OW88363   3.017   2.003   1.389  0.3495  0.5598 -0.2280
27893SOL    HW188364   2.972   2.024   1.307  0.5313 -0.2716 -0.5492
27893SOL    HW288365   3.105   2.041   1.378 -0.1721  1.9910  0.3111
27894SOL     OW88366   7.844   4.074   5.034  0.3587  0.2036 -0.6560
27894SOL    HW188367   7.816   4.114   5.116 -0.7996 -1.1851 -0.3394
27894SOL    HW288368   7.939   4.091   5.031  0.4457  0.2412  0.9946
27895SOL     OW88369   1.838   6.657  10.447  0.6433 -0.2156  0.0363
27895SOL    HW188370   1.876   6.745  10.446 -0.1209  0.1956  2.3670
27895SOL    HW288371   1.845   6.628  10.538 -0.9568 -1.7504 -0.2696
27896SOL     OW88372   3.460   9.984   8.018 -0.3107 -0.1378 -0.1969
27896SOL    HW188373   3.524  10.050   8.041  0.3407 -0.9057  0.2485
27896SOL    HW288374   3.386  10.033   7.981  0.5761  0.7477 -0.8486
27897SOL     OW88375   1.004   7.023   8.017  1.0226 -0.0840  0.0257
27897SOL    HW188376   1.080   7.021   8.074  0.3097  0.9052  1.0482
27897SOL    HW288377   1.012   7.106   7.969  1.5776 -0.8674 -1.2982
27898SOL     OW88378   7.182   2.457   8.497 -0.1392 -0.5321  0.2221
27898SOL    HW188379   7.186   2.442   8.403  1.9197 -1.4264  0.4035
27898SOL    HW288380   7.093   2.432   8.522 -0.4354 -1.1452 -1.3362
27899SOL     OW88381  10.875   4.985  10.028  0.0356  0.1107  0.0860
27899SOL    HW188382  10.791   4.999   9.985 -0.2388 -0.6009  0.3839
27899SOL    HW288383  10.866   4.901  10.073  1.4164 -0.6987 -1.0995
27900SOL     OW88384   8.813   5.300  11.540 -0.0806  0.2692 -0.2590
27900SOL    HW188385   8.719   5.287  11.551 -0.1193  0.9367  0.2714
27900SOL    HW288386   8.834   5.375  11.595  1.0302 -0.7890  0.8330
27901SOL     OW88387   1.797   6.142   4.173 -0.5093  0.1551 -0.9308
27901SOL    HW188388   1.744   6.077   4.126 -0.3386  0.5588 -1.7023
27901SOL    HW288389   1.822   6.205   4.106 -0.9056  1.1845 -0.1433
27902SOL     OW88390   6.561   3.403   1.543 -0.5048 -0.3661 -0.1251
27902SOL    HW188391   6.564   3.331   1.607 -0.9922 -1.0138 -0.8152
27902SOL    HW288392   6.632   3.461   1.569  0.5802 -1.6425 -0.1879
27903SOL     OW88393   3.051   8.397   1.239 -0.6149  0.4375  0.1691
27903SOL    HW188394   3.032   8.375   1.148 -1.4371  1.6578  0.0171
27903SOL    HW288395   2.965   8.402   1.281 -0.3199  1.0833  0.7129
27904SOL     OW88396   9.192   8.454  10.931  0.2346  0.0089 -0.0098
27904SOL    HW188397   9.229   8.367  10.915  0.8292  0.3058 -0.2698
27904SOL    HW288398   9.229   8.480  11.015 -0.0573 -0.0431  0.1391
27905SOL     OW88399   8.690   1.478   9.894  0.4788 -0.1084  0.0936
27905SOL    HW188400   8.626   1.444   9.957 -0.1887  0.2344 -0.3874
27905SOL    HW288401   8.725   1.400   9.851  2.2391 -0.5039  2.0660
27906SOL     OW88402   8.106  11.592   1.589  0.4757 -0.8243 -0.0010
27906SOL    HW188403   8.060  11.668   1.624 -0.4799 -1.6513  0.5871
27906SOL    HW288404   8.152  11.554   1.664  2.5055  0.1971 -0.6425
27907SOL     OW88405   0.029   8.214   5.278  0.1417 -0.5715  0.3177
27907SOL    HW188406  -0.026   8.152   5.231 -0.5694 -0.8607  1.5009
27907SOL    HW288407   0.061   8.274   5.210 -0.8954 -0.9415 -0.5188
27908SOL     OW88408   3.458   2.641   0.585 -0.1059 -0.9396  0.4221
27908SOL    HW188409   3.365   2.624   0.604 -0.3808 -1.3083 -1.1573
27908SOL    HW288410   3.469   2.735   0.598 -1.8840  0.0732 -3.7521
27909SOL     OW88411   2.531   6.971   7.311 -0.1407  0.3471  0.5852
27909SOL    HW188412   2.572   6.959   7.397  1.0359 -0.4402 -0.0500
27909SOL    HW288413   2.449   6.921   7.316  1.7043 -3.0772  0.0603
27910SOL     OW88414   8.123  11.174   5.349  0.6042  0.6112  0.0911
27910SOL    HW188415   8.076  11.147   5.270 -1.5210  0.6020  1.2916
27910SOL    HW288416   8.202  11.120   5.349 -0.5691 -1.2174 -0.7623
27911SOL     OW88417  10.812   0.791   5.685  0.3448  0.1478  0.3992
27911SOL    HW188418  10.836   0.804   5.593 -0.0009 -1.1639  0.0976
27911SOL    HW288419  10.717   0.802   5.687  0.5662  2.3355  1.0330
27912SOL     OW88420  10.810   3.152   4.313 -0.0849 -0.1231  0.4851
27912SOL    HW188421  10.729   3.183   4.272 -0.4169 -0.4365  0.8973
27912SOL    HW288422  10.877   3.167   4.247 -0.3935  0.5978  0.3178
27913SOL     OW88423   6.950   3.631   0.595  0.2644  0.2731 -0.2013
27913SOL    HW188424   6.907   3.546   0.605  0.3236  0.2466 -0.1685
27913SOL    HW288425   6.907   3.671   0.520  0.5065  0.0454 -0.4645
27914SOL     OW88426   2.572   3.322   6.508 -0.0123  0.0634 -0.0295
27914SOL    HW188427   2.629   3.345   6.581  0.5096 -1.5253  0.1129
27914SOL    HW288428   2.514   3.254   6.544 -0.2675 -0.1789 -0.8745
27915SOL     OW88429  11.084   4.705   3.088  0.0913  0.3667 -0.2639
27915SOL    HW188430  11.054   4.669   3.005  1.2659  2.8006 -1.8712
27915SOL    HW288431  11.180   4.704   3.081  0.2011  0.8631  0.9548
27916SOL     OW88432   6.249   6.287  11.730  0.3505 -0.2672 -0.3058
27916SOL    HW188433   6.220   6.197  11.710  0.1751 -0.4836  0.8496
27916SOL    HW288434   6.207   6.340  11.662 -0.4243 -0.9293 -0.3688
27917SOL     OW88435   6.687   0.482   3.772 -0.1566 -0.1818 -0.0052
27917SOL    HW188436   6.677   0.523   3.686  0.2431 -0.8960 -0.4010
27917SOL    HW288437   6.625   0.410   3.773 -0.2749 -0.0802  0.3727
27918SOL     OW88438  11.453   5.151  10.933  0.1339 -0.1468  0.7210
27918SOL    HW188439  11.358   5.140  10.928  0.1720 -1.7433  2.4425
27918SOL    HW288440  11.489   5.064  10.919  1.3810  0.4681 -0.0944
27919SOL     OW88441  10.106   5.034   2.721 -0.1262 -0.2372  1.1019
27919SOL    HW188442  10.106   5.110   2.663 -0.6293 -0.5982  0.6192
27919SOL    HW288443  10.062   4.965   2.671  0.3291 -0.8503  1.5291
27920SOL     OW88444   6.442   1.402   5.236  0.1035  0.1974 -0.2119
27920SOL    HW188445   6.503   1.467   5.202  0.2936  0.1637  0.0553
27920SOL    HW288446   6.371   1.400   5.173  0.5454 -0.0127 -0.7069
27921SOL     OW88447   2.941   3.383   2.119 -0.3714 -0.2908 -0.6227
27921SOL    HW188448   2.855   3.414   2.091 -0.1148  0.7509 -0.2771
27921SOL    HW288449   2.985   3.460   2.154  0.6018 -0.8710 -0.5221
27922SOL     OW88450  11.237  10.107   3.331  0.4501 -0.0050 -0.7073
27922SOL    HW188451  11.240  10.090   3.237 -0.2826 -0.8695 -0.5824
27922SOL    HW288452  11.207  10.198   3.337 -0.6712 -0.3144 -1.3003
27923SOL     OW88453   5.365   1.746   6.077  0.1198  0.4564  0.0081
27923SOL    HW188454   5.450   1.727   6.037  0.5821  0.8520  0.7913
27923SOL    HW288455   5.311   1.671   6.054  1.2061 -0.6740  1.0389
27924SOL     OW88456   5.989   2.326   1.409 -0.3221  0.6418 -0.1681
27924SOL    HW188457   6.067   2.381   1.419 -0.4959  0.5965  1.9017
27924SOL    HW288458   5.941   2.338   1.491 -0.2336 -2.7842  0.5048
27925SOL     OW88459   5.602  10.775   3.526 -0.2983  0.0677 -0.3425
27925SOL    HW188460   5.655  10.709   3.571 -1.0905 -0.0208  0.4812
27925SOL    HW288461   5.655  10.800   3.450  0.5934 -0.5523  0.0554
27926SOL     OW88462   1.655   9.602   3.878  0.1058 -0.0979  0.1123
27926SOL    HW188463   1.651   9.686   3.832  3.7889  0.6517  0.8330
27926SOL    HW288464   1.610   9.619   3.961  0.3031  0.9929  0.0171
27927SOL     OW88465   3.456   1.666   1.673 -0.1438  0.1445 -0.0155
27927SOL    HW188466   3.528   1.616   1.712  0.4628  0.4513 -0.7158
27927SOL    HW288467   3.432   1.730   1.739  1.4730  1.2584 -0.4499
27928SOL     OW88468   5.306   1.477   1.522  0.2645  0.7657  0.1795
27928SOL    HW188469   5.325   1.509   1.434  0.8244  1.0551  0.4041
27928SOL    HW288470   5.342   1.544   1.580  0.1510  0.4349  0.6351
27929SOL     OW88471   6.271   6.441   0.830 -0.1984  0.1793 -0.0280
27929SOL    HW188472   6.348   6.388   0.806 -1.0455 -1.5846  0.9853
27929SOL    HW288473   6.262   6.502   0.757 -0.4643 -2.5095 -2.4728
27930SOL     OW88474   2.362   5.749   6.657 -0.4094  0.6802  0.6718
27930SOL    HW188475   2.267   5.746   6.665 -0.6057 -0.6886 -1.3264
27930SOL    HW288476   2.382   5.843   6.652 -1.4965  1.0359  2.2264
27931SOL     OW88477   6.166  10.751  11.881  0.1356 -0.3098 -0.0916
27931SOL    HW188478   6.246  10.700  11.875 -0.0262 -0.4539 -1.3671
27931SOL    HW288479   6.195  10.842  11.877  0.2436 -0.3621 -0.5287
27932SOL     OW88480   6.207   7.765  11.918 -0.2604 -0.3919  0.3562
27932SOL    HW188481   6.172   7.774  11.829 -0.5756 -0.3235  0.4851
27932SOL    HW288482   6.281   7.826  11.920 -0.2209 -0.4299  0.1235
27933SOL     OW88483   1.451   5.454  10.273  0.1003  0.0856 -0.1844
27933SOL    HW188484   1.483   5.407  10.196 -0.3175  0.9222 -0.8945
27933SOL    HW288485   1.358   5.468  10.256 -0.1809 -0.4279  0.8577
27934SOL     OW88486   0.787   2.126   0.729  0.2886  0.1638 -0.3127
27934SOL    HW188487   0.850   2.135   0.801  0.8916  0.6816 -0.8974
27934SOL    HW288488   0.798   2.205   0.677 -0.5485  0.0585 -0.6749
27935SOL     OW88489   1.369   2.040   4.774 -0.4383 -0.2408  0.2888
27935SOL    HW188490   1.344   1.951   4.751  1.9754 -1.0815  0.6613
27935SOL    HW288491   1.441   2.061   4.714 -0.7456  1.3541  0.4244
27936SOL     OW88492   0.216   2.669   0.692 -0.7623 -0.1180  0.2543
27936SOL    HW188493   0.176   2.642   0.775 -1.0212  1.2758  0.6004
27936SOL    HW288494   0.209   2.592   0.636 -1.1889 -0.8644  1.3038
27937SOL     OW88495  11.766  11.322   6.079  0.1614 -0.6124  0.2892
27937SOL    HW188496  11.687  11.293   6.124  0.0466 -0.3947  0.2319
27937SOL    HW288497  11.823  11.354   6.149  0.2905 -0.9734  0.3534
27938SOL     OW88498   6.168   8.442   1.758  0.0729  0.1329 -0.2727
27938SOL    HW188499   6.111   8.380   1.804 -0.4045  0.9724  0.2981
27938SOL    HW288500   6.164   8.522   1.810 -0.3351  1.0668 -1.6715
27939SOL     OW88501   0.011   8.551  10.763 -0.2481  0.2729  0.0896
27939SOL    HW188502  -0.028   8.634  10.736 -0.9080  0.5294  1.7290
27939SOL    HW288503   0.102   8.556  10.732  0.0487  2.1050  1.0966
27940SOL     OW88504  10.117   1.570   1.157 -0.6095  0.2153 -0.1857
27940SOL    HW188505  10.132   1.568   1.062  0.2861 -0.7193 -0.0501
27940SOL    HW288506  10.071   1.488   1.175  0.4746 -0.2986  0.3561
27941SOL     OW88507   3.455   9.969  11.322 -0.5434 -0.3300  0.0492
27941SOL    HW188508   3.507   9.983  11.243  2.3523 -1.7901  1.5488
27941SOL    HW288509   3.494  10.027  11.387  0.9702 -3.1256  1.8541
27942SOL     OW88510   4.204   8.946   6.758  0.4460 -0.0584  0.1956
27942SOL    HW188511   4.145   8.968   6.830 -0.5454 -0.0969 -0.5837
27942SOL    HW288512   4.175   9.002   6.685 -1.5005 -3.0095 -1.5342
27943SOL     OW88513   3.637   3.314   3.025  0.4482  1.0680  0.3670
27943SOL    HW188514   3.676   3.236   2.986  0.7020  1.4939 -0.2531
27943SOL    HW288515   3.544   3.291   3.036  0.6790  0.3935  0.9652
27944SOL     OW88516  10.448  10.621   9.763 -0.0632  0.2551 -0.4414
27944SOL    HW188517  10.397  10.540   9.769  0.6954 -0.1540  1.0213
27944SOL    HW288518  10.527  10.603   9.815 -0.0732  2.0701  0.2510
27945SOL     OW88519  11.697   6.104   4.663 -0.8976  0.1874 -0.3275
27945SOL    HW188520  11.775   6.158   4.673  0.5115 -2.0603  1.7944
27945SOL    HW288521  11.696   6.081   4.570  1.7941 -0.8326 -0.1857
27946SOL     OW88522  11.974   3.020   4.822  0.2229  0.0620 -0.5945
27946SOL    HW188523  11.897   3.075   4.831 -0.2071 -0.0675 -2.8908
27946SOL    HW288524  12.019   3.052   4.744  1.9996 -0.4819  0.1348
27947SOL     OW88525   4.685   2.155   6.800  0.6458 -0.2066 -0.4822
27947SOL    HW188526   4.759   2.135   6.742  2.1137  1.3659  0.7715
27947SOL    HW288527   4.697   2.246   6.825 -1.1871 -0.1946  0.5709
27948SOL     OW88528   0.197   5.041   4.311  0.1943  0.4125 -0.7322
27948SOL    HW188529   0.138   4.990   4.365  1.7144 -0.3657  0.2827
27948SOL    HW288530   0.247   5.095   4.372 -0.2089  1.8799 -1.6509
27949SOL     OW88531   4.242   4.504   3.688 -0.3256 -0.2672  0.0629
27949SOL    HW188532   4.184   4.557   3.635 -0.9222 -1.0598 -0.0972
27949SOL    HW288533   4.204   4.416   3.685  1.4706 -1.0599 -0.9569
27950SOL     OW88534   3.150   9.977   2.508  0.3423 -0.6304 -0.0837
27950SOL    HW188535   3.156  10.073   2.507 -4.4804 -0.0774 -1.8518
27950SOL    HW288536   3.203   9.949   2.434  0.3586  0.8297 -0.6557
27951SOL     OW88537   0.301   4.411   6.228 -0.0224 -0.2770 -0.4416
27951SOL    HW188538   0.327   4.335   6.281 -0.8345  0.4256  1.0460
27951SOL    HW288539   0.366   4.415   6.158  2.0154 -0.4209  1.3348
27952SOL     OW88540  10.395  10.079   5.506 -0.0988 -0.3093  0.2325
27952SOL    HW188541  10.351  10.100   5.588  0.4553  0.9526  0.2215
27952SOL    HW288542  10.480  10.043   5.532  0.5653  1.1756  0.2419
27953SOL     OW88543   6.064  10.357  10.133 -0.2476  0.1623  0.0446
27953SOL    HW188544   6.051  10.402  10.216 -0.0594  1.7799 -0.7638
27953SOL    HW288545   6.142  10.303  10.146  0.4081  1.2179  0.5964
27954SOL     OW88546   1.247   7.169   0.071 -0.6542 -0.2242  0.1504
27954SOL    HW188547   1.317   7.230   0.092  0.0756 -0.3984 -1.6621
27954SOL    HW288548   1.269   7.090   0.121 -0.2361  0.1329  0.5413
27955SOL     OW88549   0.803   5.435   9.763 -0.5998  0.0498 -0.2189
27955SOL    HW188550   0.762   5.349   9.776 -0.3524  0.0447  0.5444
27955SOL    HW288551   0.743   5.481   9.705 -1.7256  0.0596  0.9181
27956SOL     OW88552  10.488   5.400   8.329 -0.2494 -0.4554 -0.3450
27956SOL    HW188553  10.477   5.362   8.416  2.5464 -1.5337 -0.3322
27956SOL    HW288554  10.450   5.335   8.270 -1.8390  0.1114  0.0261
27957SOL     OW88555   4.425  10.552   1.395 -0.0275 -0.4558  0.1890
27957SOL    HW188556   4.473  10.522   1.318 -0.8876 -1.2488 -0.0583
27957SOL    HW288557   4.415  10.647   1.382  1.6244 -0.2284  0.3599
27958SOL     OW88558   6.056   4.947  11.961  0.1244 -0.5995 -0.1846
27958SOL    HW188559   5.972   4.930  12.004 -0.1106 -0.3055 -0.5213
27958SOL    HW288560   6.121   4.921  12.026 -0.2191  0.8259  0.7818
27959SOL     OW88561   3.016   5.537   4.505 -0.0207 -0.0950  0.4243
27959SOL    HW188562   3.092   5.579   4.546  0.8430 -2.1100  0.9867
27959SOL    HW288563   3.012   5.575   4.417  2.8566 -1.2878 -0.3268
27960SOL     OW88564   9.941   5.428  11.708  0.5394 -0.4616  0.5767
27960SOL    HW188565   9.975   5.342  11.682 -0.9628 -0.7180 -0.7301
27960SOL    HW288566   9.864   5.408  11.762  0.8184  0.0819  1.1916
27961SOL     OW88567   5.656   2.655   3.864 -0.6826 -1.3431  0.1101
27961SOL    HW188568   5.616   2.734   3.899 -1.1516 -0.8837 -1.3867
27961SOL    HW288569   5.668   2.598   3.940 -0.7723 -0.0269  1.1340
27962SOL     OW88570   9.503   3.388   0.302  0.6276  0.2167 -0.0352
27962SOL    HW188571   9.576   3.444   0.276 -1.3816  2.0337 -2.2377
27962SOL    HW288572   9.491   3.328   0.229  1.8739 -2.3580  1.7146
27963SOL     OW88573   4.014  11.005   5.866 -0.4740  0.6550  0.4649
27963SOL    HW188574   3.938  11.013   5.924 -1.6405 -1.2151 -0.7113
27963SOL    HW288575   4.089  11.028   5.921 -1.8138  1.9687  1.8213
27964SOL     OW88576   4.329   0.393   7.886 -0.1213 -0.4360 -0.4029
27964SOL    HW188577   4.382   0.466   7.855  1.8063 -1.7372 -0.4242
27964SOL    HW288578   4.302   0.419   7.974  2.1729 -0.3935  0.3793
27965SOL     OW88579   5.783  11.514   7.515 -0.4993  0.0071 -0.8944
27965SOL    HW188580   5.749  11.426   7.532 -1.7941  0.7539  0.6277
27965SOL    HW288581   5.731  11.572   7.571  1.2867  1.5994 -0.7666
27966SOL     OW88582   5.894   9.436   2.704  0.1511 -0.8439 -0.2190
27966SOL    HW188583   5.934   9.421   2.790  0.2463 -2.2343 -0.4761
27966SOL    HW288584   5.883   9.531   2.699 -0.6966 -0.7913  1.6999
27967SOL     OW88585   0.452   1.755   8.464 -0.2086 -0.0269  0.4493
27967SOL    HW188586   0.540   1.754   8.425 -0.7542  1.8197 -1.0003
27967SOL    HW288587   0.397   1.711   8.399 -0.3866 -1.1501  1.3379
27968SOL     OW88588   2.383   1.893   9.987  0.4785  0.4321  0.4600
27968SOL    HW188589   2.434   1.960  10.031 -0.7313  2.3594 -0.9197
27968SOL    HW288590   2.391   1.913   9.894 -1.7021  0.0677  0.1256
27969SOL     OW88591   7.151   1.918  10.111 -0.4028  0.6110 -0.2215
27969SOL    HW188592   7.231   1.900  10.160  0.3478  2.5381 -0.6553
27969SOL    HW288593   7.084   1.867  10.156  1.2570 -2.2468 -0.7220
27970SOL     OW88594   3.249   0.313   4.555 -0.0557 -0.0394 -0.0620
27970SOL    HW188595   3.315   0.339   4.490  0.0633 -0.4410 -0.1050
27970SOL    HW288596   3.256   0.379   4.624 -0.2261  0.4228 -0.4851
27971SOL     OW88597   5.958   8.225   5.844 -0.0302  0.3824 -0.0979
27971SOL    HW188598   5.911   8.196   5.766  0.9282  1.1878 -1.0010
27971SOL    HW288599   5.909   8.186   5.917 -0.3465 -1.2435 -1.1236
27972SOL     OW88600   5.804   9.200   5.939 -0.8653 -0.2730  0.2334
27972SOL    HW188601   5.894   9.205   5.905 -1.0624  2.2545 -0.1269
27972SOL    HW288602   5.758   9.143   5.878  0.3330 -1.1454  0.1008
27973SOL     OW88603   4.835   8.821   9.363 -0.1567  0.3191 -0.6387
27973SOL    HW188604   4.870   8.734   9.345  1.0357  0.8389 -0.9268
27973SOL    HW288605   4.882   8.849   9.442 -1.3091  0.2880  0.0809
27974SOL     OW88606   0.373   4.051   0.001  0.1305  0.0849 -0.4369
27974SOL    HW188607   0.341   3.970  -0.039 -0.0053  0.8411 -1.9511
27974SOL    HW288608   0.453   4.025   0.047 -1.3594 -1.4075  1.4991
27975SOL     OW88609  11.199   3.090   9.862  0.1618 -0.4970  0.2969
27975SOL    HW188610  11.109   3.096   9.894  0.8952 -0.0815  2.4362
27975SOL    HW288611  11.253   3.090   9.941  2.1951  1.6822 -0.9289
27976SOL     OW88612   8.463   3.317   2.172  0.1293  0.4864 -0.2818
27976SOL    HW188613   8.558   3.332   2.175  0.7275 -2.3912 -1.8614
27976SOL    HW288614   8.432   3.375   2.103  0.5996  1.7546  0.5209
27977SOL     OW88615  10.785   8.465   9.132  0.3014 -0.0359  0.1183
27977SOL    HW188616  10.866   8.437   9.175 -0.3410 -0.6162  1.0108
27977SOL    HW288617  10.779   8.411   9.054 -0.2320 -1.5034  1.1214
27978SOL     OW88618  11.276  11.407   8.345  0.3531 -1.0781  0.0249
27978SOL    HW188619  11.252  11.479   8.403  0.3591 -1.1284  0.0888
27978SOL    HW288620  11.317  11.451   8.270 -0.0707 -0.9865 -0.1546
27979SOL     OW88621  11.822   8.021   1.060 -0.1060 -0.3789 -0.2051
27979SOL    HW188622  11.847   8.113   1.049 -0.2915 -0.4932 -1.8072
27979SOL    HW288623  11.780   8.017   1.145  1.8789  0.5788  0.8991
27980SOL     OW88624   9.433  10.129   4.793  0.0300 -0.2439 -0.0531
27980SOL    HW188625   9.494  10.069   4.751  0.9041  0.5028  0.1283
27980SOL    HW288626   9.484  10.208   4.810 -0.7915  0.1315  0.7670
27981SOL     OW88627  10.325   3.679   8.762  0.7067  0.4135  0.1134
27981SOL    HW188628  10.391   3.620   8.800  0.4393  0.7428  1.1227
27981SOL    HW288629  10.296   3.732   8.836 -1.3300 -0.2984 -0.1289
27982SOL     OW88630   1.498   2.617   7.489  0.2408 -0.6938 -0.3740
27982SOL    HW188631   1.579   2.614   7.438 -0.5274  0.0578 -1.6867
27982SOL    HW288632   1.428   2.620   7.424 -0.7344  1.8343  0.6572
27983SOL     OW88633   3.057   4.724   1.277 -0.1914 -0.5734  0.0065
27983SOL    HW188634   3.080   4.646   1.227 -0.9216 -1.3189  0.7966
27983SOL    HW288635   3.126   4.732   1.342  0.2108 -0.1993 -0.4626
27984SOL     OW88636   1.995   6.421   5.817  0.0204  0.3097  0.0838
27984SOL    HW188637   1.977   6.429   5.723  2.4606 -4.6550 -1.1212
27984SOL    HW288638   1.910   6.398   5.856 -0.4974 -0.3678 -1.3913
27985SOL     OW88639   9.182   5.241   4.883 -0.3644 -0.1343 -0.2728
27985SOL    HW188640   9.090   5.255   4.904 -0.3528  0.3641 -0.5313
27985SOL    HW288641   9.203   5.156   4.921 -1.1670 -0.6590 -0.9613
27986SOL     OW88642   0.682   2.025   3.069 -0.2899 -0.0080  0.0916
27986SOL    HW188643   0.680   2.116   3.039  0.5588  0.2650  0.8356
27986SOL    HW288644   0.643   1.976   2.996 -1.4449  1.0123 -0.0326
27987SOL     OW88645   4.344   6.420   3.610  0.2019 -0.1328  0.1368
27987SOL    HW188646   4.321   6.330   3.634  0.7789  0.2574  2.3502
27987SOL    HW288647   4.279   6.445   3.545  0.0114 -2.1231 -0.4938
27988SOL     OW88648  11.272   9.076   4.844  0.1174  0.2858 -0.4481
27988SOL    HW188649  11.184   9.074   4.806  0.6749 -2.0077 -1.8055
27988SOL    HW288650  11.327   9.031   4.780  1.7893 -0.7001  1.5556
27989SOL     OW88651   9.881   2.684   0.729 -0.2588  0.0782  0.1899
27989SOL    HW188652   9.910   2.774   0.712 -1.5553  0.1341 -1.9728
27989SOL    HW288653   9.931   2.630   0.668 -0.3050 -0.5687  0.7039
27990SOL     OW88654   0.035   6.400   0.624 -0.1567 -0.6036 -0.3383
27990SOL    HW188655   0.057   6.416   0.715 -0.4791 -0.8974 -0.2067
27990SOL    HW288656   0.107   6.346   0.591  0.2458 -0.0350 -0.4169
27991SOL     OW88657   8.130  10.432   5.361 -0.2128 -0.0448  0.2079
27991SOL    HW188658   8.174  10.496   5.304 -0.1896 -1.5758 -1.5580
27991SOL    HW288659   8.042  10.467   5.373 -0.2067  0.3215 -0.7434
27992SOL     OW88660   9.236   3.323   4.910  0.3890 -0.4500  0.6093
27992SOL    HW188661   9.188   3.353   4.987 -0.0488 -1.8556  0.9296
27992SOL    HW288662   9.168   3.298   4.847  0.5546 -3.4751  1.4636
27993SOL     OW88663   7.190   0.527   9.969 -0.2226  0.3608 -0.1755
27993SOL    HW188664   7.233   0.464   9.912  0.8828 -0.0204  1.0580
27993SOL    HW288665   7.259   0.562  10.024 -0.9909  1.9189 -0.1337
27994SOL     OW88666   5.584   5.557   8.523  0.3933 -0.1413 -0.4344
27994SOL    HW188667   5.677   5.555   8.545  0.0637 -0.3282  1.0024
27994SOL    HW288668   5.582   5.540   8.428  1.8395  0.4420 -0.6002
27995SOL     OW88669   1.165   6.051   0.707  0.4398 -0.0224 -0.2304
27995SOL    HW188670   1.076   6.017   0.693  0.7748 -0.9897 -0.0720
27995SOL    HW288671   1.165   6.082   0.797  0.6254 -1.2062  0.1899
27996SOL     OW88672   4.030   9.196   7.245  0.3923  0.5448  0.6026
27996SOL    HW188673   4.096   9.252   7.204  0.6878 -0.5492 -0.4488
27996SOL    HW288674   4.075   9.153   7.317  1.1550 -1.0210 -0.7716
27997SOL     OW88675   3.970   9.971   9.638 -0.3577 -0.1852  0.4289
27997SOL    HW188676   4.001  10.050   9.682 -0.7238 -0.4195  1.1098
27997SOL    HW288677   3.930   9.918   9.707 -0.9338 -0.5605 -0.1820
27998SOL     OW88678   8.349   0.336   2.942 -0.0500 -0.4785  0.0012
27998SOL    HW188679   8.319   0.422   2.912  0.7475  0.6613  2.2420
27998SOL    HW288680   8.414   0.309   2.877  1.1962  1.5897  0.3016
27999SOL     OW88681   5.967   9.429   9.642  0.0161  0.6995 -0.2786
27999SOL    HW188682   5.910   9.381   9.702  0.2759 -0.2988 -0.7891
27999SOL    HW288683   5.913   9.443   9.564  0.8116 -1.5358 -1.3478
28000SOL     OW88684   4.450  10.391   8.538 -0.0563  0.0425 -0.1299
28000SOL    HW188685   4.541  10.409   8.563 -0.4570  2.2481 -0.0503
28000SOL    HW288686   4.432  10.453   8.468 -0.8470 -1.9256 -1.7390
28001SOL     OW88687   6.718  11.534  10.353 -0.1154  0.5937  0.6357
28001SOL    HW188688   6.772  11.575  10.286  0.1871 -0.4669  0.2266
28001SOL    HW288689   6.662  11.473  10.306  0.2297 -0.3004  1.3600
28002SOL     OW88690  11.336   6.795   2.575 -0.5741  0.2660 -0.0615
28002SOL    HW188691  11.296   6.853   2.510 -1.0612 -0.2953 -0.2756
28002SOL    HW288692  11.423   6.833   2.591 -0.6577  0.7159 -0.6343
28003SOL     OW88693   1.303   9.646   0.166  0.0937  0.0288 -0.4778
28003SOL    HW188694   1.355   9.722   0.137  0.5999 -1.3178 -3.5109
28003SOL    HW288695   1.364   9.595   0.218  0.5556  0.4502 -0.5904
28004SOL     OW88696   4.288   6.798   2.860 -0.0604 -0.2042 -0.0664
28004SOL    HW188697   4.295   6.764   2.770  1.9253  0.8135 -0.3447
28004SOL    HW288698   4.364   6.761   2.905 -1.4692 -1.3721  1.4851
28005SOL     OW88699   7.704  11.809  11.045 -0.2450  0.2888  0.4773
28005SOL    HW188700   7.694  11.901  11.021  0.7236  0.3797  0.3635
28005SOL    HW288701   7.797  11.800  11.064 -0.5381 -0.4071  1.6255
28006SOL     OW88702  11.556   8.336   0.160 -0.4887  0.1360  0.4076
28006SOL    HW188703  11.554   8.269   0.092  2.1024  0.3154  0.0799
28006SOL    HW288704  11.543   8.288   0.242 -1.2173 -0.4005 -0.0190
28007SOL     OW88705   5.208   9.411  10.476  0.7260 -0.1424  0.4349
28007SOL    HW188706   5.131   9.460  10.447 -0.4306 -2.2877 -0.4040
28007SOL    HW288707   5.209   9.422  10.571  0.7542  1.7599  0.2428
28008SOL     OW88708   0.393   7.482   8.839 -0.2178 -0.4079  0.2830
28008SOL    HW188709   0.440   7.565   8.845 -0.1615 -0.3666 -0.6166
28008SOL    HW288710   0.398   7.457   8.746 -1.1753 -0.8602  0.3320
28009SOL     OW88711   4.801   1.940   6.573 -0.0142 -0.0255 -0.1381
28009SOL    HW188712   4.879   1.925   6.519 -0.7461 -0.9968 -0.9762
28009SOL    HW288713   4.781   2.032   6.561  1.5220  0.4731  0.8264
28010SOL     OW88714   5.776   6.869  10.913  0.0272  0.6715 -0.4508
28010SOL    HW188715   5.859   6.905  10.881  0.0073 -0.8365 -2.4080
28010SOL    HW288716   5.711   6.936  10.891  0.4222  0.8524 -1.0919
28011SOL     OW88717   7.251  11.093  10.560 -0.0610  0.9896  0.3756
28011SOL    HW188718   7.164  11.079  10.596 -0.0057  0.9236  0.4848
28011SOL    HW288719   7.280  11.005  10.534  0.2445  0.9107  0.9603
28012SOL     OW88720   1.357   2.053  11.307 -0.7084  0.6263  0.0000
28012SOL    HW188721   1.364   2.147  11.324 -2.4003  0.5511  1.3130
28012SOL    HW288722   1.448   2.023  11.302 -0.1296  2.4262 -1.1925
28013SOL     OW88723   0.641  11.084   3.042 -0.1192  0.1747  0.2755
28013SOL    HW188724   0.650  10.992   3.020  0.5444  0.4717 -0.7963
28013SOL    HW288725   0.548  11.096   3.061  0.1473 -1.1902  2.7941
28014SOL     OW88726   9.426   9.885   5.984 -0.4142 -0.8640 -0.2614
28014SOL    HW188727   9.445   9.968   5.940 -1.2744 -0.4628  0.0935
28014SOL    HW288728   9.372   9.837   5.922 -0.4965 -0.8662 -0.1881
28015SOL     OW88729   0.252  10.578   2.475  0.8902  0.3552 -0.0867
28015SOL    HW188730   0.158  10.592   2.473  1.1049  1.9010 -0.3661
28015SOL    HW288731   0.278  10.579   2.383  0.8565 -2.8091 -0.2409
28016SOL     OW88732  10.325   5.262   1.859  0.0218  0.4643 -0.1201
28016SOL    HW188733  10.301   5.320   1.787 -0.1752  0.0284 -0.4088
28016SOL    HW288734  10.341   5.177   1.817  0.4571  0.3480  0.2776
28017SOL     OW88735   5.562   9.483   7.873  0.2717  0.5070  0.1194
28017SOL    HW188736   5.502   9.417   7.906  1.1712 -0.1982  0.3903
28017SOL    HW288737   5.513   9.565   7.878  0.1590  0.3475  2.6653
28018SOL     OW88738  11.181   3.289  11.070  0.3969 -0.1405  0.3544
28018SOL    HW188739  11.138   3.336  11.141 -0.7216  1.0672 -1.0744
28018SOL    HW288740  11.114   3.279  11.003  2.1505  1.4651 -1.7952
28019SOL     OW88741   9.224   5.422  11.426  0.0136 -0.0524  0.3753
28019SOL    HW188742   9.181   5.403  11.343 -0.0503 -1.6951  0.7523
28019SOL    HW288743   9.315   5.438  11.403 -0.3129  1.1305 -0.1707
28020SOL     OW88744  10.489   7.668   4.123  0.2607  0.0363 -0.1504
28020SOL    HW188745  10.406   7.663   4.170 -0.4293  0.5279 -1.2741
28020SOL    HW288746  10.541   7.731   4.174  0.3002 -0.9165  1.0418
28021SOL     OW88747   7.641   5.262   9.240 -0.0721 -0.2889  0.0789
28021SOL    HW188748   7.597   5.272   9.156 -1.0549 -0.3368  0.5720
28021SOL    HW288749   7.725   5.308   9.229 -0.7051  0.7674 -0.5403
28022SOL     OW88750   6.055   2.287   8.239  0.3652  0.6039 -0.2309
28022SOL    HW188751   5.969   2.308   8.203  0.0337 -0.0591  0.1663
28022SOL    HW288752   6.100   2.240   8.168 -0.1340 -0.3266  0.0499
28023SOL     OW88753   8.008   5.306   9.649  0.5050 -0.0998 -0.4593
28023SOL    HW188754   8.079   5.292   9.586  1.2269  0.7102  0.1440
28023SOL    HW288755   7.981   5.397   9.634  1.0893  0.2955  0.7841
28024SOL     OW88756   0.421   2.304   5.555  0.0704  0.6872 -0.1359
28024SOL    HW188757   0.390   2.267   5.472  2.0415 -0.6634 -0.3556
28024SOL    HW288758   0.437   2.396   5.535  1.2148  0.2336 -1.5196
28025SOL     OW88759   9.882   5.124   0.766  0.1226  0.1617 -0.3060
28025SOL    HW188760   9.941   5.052   0.744  0.5241  1.1354 -2.7840
28025SOL    HW288761   9.806   5.111   0.708 -0.1307  1.2965 -0.2524
28026SOL     OW88762   9.825   8.322   4.371  0.5012  0.5838 -0.9565
28026SOL    HW188763   9.817   8.239   4.325  0.2103 -0.3068  0.6212
28026SOL    HW288764   9.896   8.307   4.434 -3.1128 -0.5533  3.3562
28027SOL     OW88765   7.218   0.140  10.866  0.6154  0.3687  0.1695
28027SOL    HW188766   7.176   0.068  10.914  1.1109  0.4949  0.7961
28027SOL    HW288767   7.222   0.108  10.776 -1.0929  0.4691  0.0107
28028SOL     OW88768  11.303   2.954   0.837 -0.2310 -0.6436  0.3839
28028SOL    HW188769  11.336   3.020   0.776 -0.8224  0.1732  0.9321
28028SOL    HW288770  11.362   2.960   0.912  0.1033 -1.1958  0.1698
28029SOL     OW88771   2.494  10.503   9.551 -0.4420 -0.0392 -0.1147
28029SOL    HW188772   2.463  10.546   9.472  1.9413  1.8673 -0.1377
28029SOL    HW288773   2.421  10.509   9.612 -1.6609  0.1281 -1.5435
28030SOL     OW88774   9.625   5.554   8.665  0.2192 -0.1250 -0.0643
28030SOL    HW188775   9.548   5.524   8.714  0.9035  0.0420  1.1415
28030SOL    HW288776   9.595   5.558   8.574 -0.6512 -1.8867  0.1071
28031SOL     OW88777  10.719   9.798  11.846 -0.4535 -0.2601  0.6596
28031SOL    HW188778  10.750   9.747  11.920 -2.0583 -1.1574  0.7509
28031SOL    HW288779  10.631   9.827  11.872 -1.1188 -0.7408 -0.9483
28032SOL     OW88780   2.545   4.705   8.957  0.8053  0.5938 -0.0828
28032SOL    HW188781   2.558   4.696   9.051 -0.3617 -0.4276  0.0102
28032SOL    HW288782   2.523   4.617   8.927  0.6399  1.0045 -1.2225
28033SOL     OW88783  10.120   7.801  11.613  0.4669  0.0807 -0.3503
28033SOL    HW188784  10.113   7.897  11.605  2.3116  0.2068 -1.0007
28033SOL    HW288785  10.131   7.786  11.707 -0.5018  0.4223 -0.1665
28034SOL     OW88786   2.466   7.504  10.042  0.0780  0.3114 -0.2335
28034SOL    HW188787   2.521   7.445  10.094 -1.1833  0.2092  1.0444
28034SOL    HW288788   2.406   7.445   9.995 -1.0338  0.5239  0.8696
28035SOL     OW88789   8.366   9.546   0.386  0.6368  0.2397 -0.1646
28035SOL    HW188790   8.368   9.491   0.308  1.1559  0.4048 -0.2660
28035SOL    HW288791   8.410   9.493   0.453 -1.5024 -0.7315  0.5663
28036SOL     OW88792   4.379   4.868   7.486  0.6272  0.0572  0.0451
28036SOL    HW188793   4.420   4.850   7.571  1.6584  0.9043 -0.2580
28036SOL    HW288794   4.311   4.932   7.506  0.0491 -0.6518  0.4060
28037SOL     OW88795   2.800  11.365   3.233  0.1491 -0.1200  0.3201
28037SOL    HW188796   2.831  11.293   3.177  0.1936 -0.5694  0.9196
28037SOL    HW288797   2.757  11.426   3.172  1.3402  0.0381 -0.3852
28038SOL     OW88798   6.864   9.838   2.373 -0.5432  0.7698 -0.7086
28038SOL    HW188799   6.899   9.921   2.339 -1.5688  1.0759 -1.0443
28038SOL    HW288800   6.815   9.801   2.300  0.2321 -0.3450 -0.6880
28039SOL     OW88801   9.907   0.125   1.802  0.4843 -0.6208  0.4703
28039SOL    HW188802   9.930   0.193   1.866  0.8754  0.1633 -0.4724
28039SOL    HW288803   9.992   0.097   1.767  0.2669 -0.9328  0.1955
28040SOL     OW88804   4.760   6.556   3.242  0.0446  0.3900 -0.2733
28040SOL    HW188805   4.698   6.570   3.314 -0.4540 -0.6688 -0.4638
28040SOL    HW288806   4.832   6.615   3.260 -0.6150  0.9942  0.4587
28041SOL     OW88807   0.547   7.704   8.829 -0.0066  0.0455 -0.8162
28041SOL    HW188808   0.502   7.784   8.856 -0.3709 -0.5877  0.5200
28041SOL    HW288809   0.633   7.734   8.799 -0.3294  0.9904 -0.8263
28042SOL     OW88810  11.582   8.524  11.532 -0.0971  0.0228 -0.6403
28042SOL    HW188811  11.571   8.433  11.503  0.3954 -1.1218  2.4134
28042SOL    HW288812  11.538   8.528  11.617 -0.2743  2.7348 -0.7697
28043SOL     OW88813   4.680  10.996   5.544  0.0666  0.1506  0.5398
28043SOL    HW188814   4.746  11.064   5.536  0.3226 -0.2284 -0.7634
28043SOL    HW288815   4.628  11.003   5.464 -1.0018 -0.0660  1.1870
28044SOL     OW88816   8.059  10.822   0.642  0.2418  0.7721 -0.1407
28044SOL    HW188817   8.027  10.810   0.731  0.7835  0.8356  0.0676
28044SOL    HW288818   8.137  10.878   0.652  1.1814 -0.4213 -0.4868
28045SOL     OW88819   1.510   3.699   2.559  0.2847  0.1449  0.1507
28045SOL    HW188820   1.464   3.732   2.482 -0.8661  1.6489  1.4001
28045SOL    HW288821   1.554   3.776   2.595  1.4002 -0.6799  0.6195
28046SOL     OW88822   5.031   1.188   8.001  0.5950 -0.1357 -0.1029
28046SOL    HW188823   5.019   1.274   7.961  2.6624 -0.5542 -1.7976
28046SOL    HW288824   5.026   1.127   7.928  2.9270 -1.0755  0.4288
28047SOL     OW88825   0.389   3.588   2.645  0.6139  0.5346  0.2245
28047SOL    HW188826   0.387   3.612   2.553  1.6309 -2.4609 -0.6899
28047SOL    HW288827   0.330   3.513   2.652  0.7198  0.5652  1.9859
28048SOL     OW88828   5.861   3.341   4.010 -0.1921  0.1072 -0.8600
28048SOL    HW188829   5.914   3.304   4.080 -0.7033 -1.0970 -1.0736
28048SOL    HW288830   5.800   3.400   4.054 -2.0963 -2.3799  0.1005
28049SOL     OW88831  11.652   4.832   8.824 -0.3345  0.1633 -0.3140
28049SOL    HW188832  11.595   4.772   8.872  0.6427 -0.8595 -0.3948
28049SOL    HW288833  11.682   4.781   8.749  1.1583  0.4636  0.0468
28050SOL     OW88834   6.814   0.183   6.369 -0.4165  0.3913 -0.0167
28050SOL    HW188835   6.765   0.146   6.442 -2.4052  0.4628 -1.2251
28050SOL    HW288836   6.805   0.118   6.299  0.7603  0.6822 -0.4660
28051SOL     OW88837  11.775  11.734   7.831  0.2551  0.2909  0.0822
28051SOL    HW188838  11.852  11.763   7.783  0.5440  0.0910  0.4118
28051SOL    HW288839  11.797  11.750   7.923  0.4302 -0.9509  0.2749
28052SOL     OW88840   0.895  10.569   7.575  0.5999 -0.8287  0.3365
28052SOL    HW188841   0.920  10.510   7.504  0.8625 -1.5736  1.0238
28052SOL    HW288842   0.800  10.565   7.577  0.5990 -0.9334  0.1215
28053SOL     OW88843  10.944   9.546   4.919 -0.3060  0.0798 -0.0793
28053SOL    HW188844  11.035   9.521   4.932  0.5898  2.2483 -1.5091
28053SOL    HW288845  10.895   9.464   4.923  1.8227 -1.2623 -0.2150
28054SOL     OW88846   2.785   3.451   4.985  0.3913  0.2867 -1.0788
28054SOL    HW188847   2.710   3.397   5.007  0.4162  0.1732 -1.2638
28054SOL    HW288848   2.800   3.433   4.892  0.1576  0.9130 -1.2390
28055SOL     OW88849   7.007   4.744   4.375 -0.2086 -0.2380 -0.0633
28055SOL    HW188850   7.040   4.744   4.286 -0.3555  1.9849 -0.1750
28055SOL    HW288851   6.954   4.665   4.382  2.6869 -2.3811 -0.7813
28056SOL     OW88852   6.684   5.758   7.671  0.3482 -0.4480  0.0329
28056SOL    HW188853   6.727   5.843   7.671 -1.1214  0.3514 -1.2360
28056SOL    HW288854   6.654   5.746   7.761 -1.0379  1.2887 -0.1324
28057SOL     OW88855   5.620  10.533   9.826  0.4199 -0.2143  0.3059
28057SOL    HW188856   5.607  10.571   9.739  0.6044  0.0213  0.3795
28057SOL    HW288857   5.672  10.455   9.810 -0.4983 -0.7909  0.0851
28058SOL     OW88858   5.759   9.354   8.746 -0.2515  0.2379  0.2147
28058SOL    HW188859   5.766   9.379   8.654  0.0343 -0.8775 -0.0760
28058SOL    HW288860   5.720   9.431   8.788  0.2852  1.0410 -0.6952
28059SOL     OW88861  11.792  11.978   0.423 -1.1287  0.4864 -0.3040
28059SOL    HW188862  11.818  11.886   0.418  3.1258  1.5606 -2.5594
28059SOL    HW288863  11.739  11.992   0.345  0.9974  0.5014 -1.8555
28060SOL     OW88864  11.355   9.672   4.261  0.1438  0.2316  0.4115
28060SOL    HW188865  11.302   9.741   4.301  0.7626  1.4460 -0.7676
28060SOL    HW288866  11.293   9.619   4.211  0.1041  2.8383 -2.6736
28061SOL     OW88867   8.155   7.447   7.503 -0.2506 -0.9017  0.0011
28061SOL    HW188868   8.172   7.372   7.447  2.2154  1.5906 -2.9062
28061SOL    HW288869   8.213   7.434   7.578  1.7360 -0.9901 -1.4733
28062SOL     OW88870   3.947  11.941   3.495  0.5053 -0.0617 -0.2270
28062SOL    HW188871   3.934  11.860   3.546  2.9132  0.0619  0.7316
28062SOL    HW288872   3.904  12.009   3.546 -0.9906 -0.5970 -0.7162
28063SOL     OW88873  11.794   1.165  10.197 -0.5714  1.0390 -0.0402
28063SOL    HW188874  11.761   1.230  10.259 -0.4260  1.7125 -0.6567
28063SOL    HW288875  11.716   1.125  10.160 -0.6626  0.9319  0.2663
28064SOL     OW88876   9.810   8.605   1.112  0.0019 -0.4426  0.2525
28064SOL    HW188877   9.750   8.534   1.133 -0.9425 -0.3206 -1.7672
28064SOL    HW288878   9.835   8.589   1.020  0.3579  1.4024 -0.0166
28065SOL     OW88879  11.194   4.128   3.170 -0.1427  0.2428  0.2603
28065SOL    HW188880  11.195   4.224   3.165 -0.6796  0.3420  1.5477
28065SOL    HW288881  11.223   4.108   3.259  0.8965 -0.8441 -0.3006
28066SOL     OW88882   5.632   1.522  11.533  0.0506  0.0926 -0.5168
28066SOL    HW188883   5.603   1.432  11.545 -1.6154  0.6878  0.4635
28066SOL    HW288884   5.658   1.551  11.621  3.1895 -0.1934 -1.2571
28067SOL     OW88885   2.416   4.633   4.213 -0.0567  0.2885  0.5985
28067SOL    HW188886   2.453   4.718   4.239 -0.2662  0.6089 -0.1334
28067SOL    HW288887   2.366   4.605   4.290 -0.1879  0.9473  0.7652
28068SOL     OW88888   9.095   4.788  10.193  0.0415  0.4591 -0.2707
28068SOL    HW188889   9.115   4.794  10.100 -0.1446  1.1940 -0.2670
28068SOL    HW288890   9.092   4.879  10.223  0.2657  0.2220  0.4883
28069SOL     OW88891   5.950   0.031   6.612  0.2591 -0.5620  0.5275
28069SOL    HW188892   5.903   0.106   6.576 -0.7488 -1.5344 -0.2631
28069SOL    HW288893   5.927   0.031   6.705  0.7281  0.4262  0.6487
28070SOL     OW88894  11.638   2.226   9.565  0.0691  0.1175 -0.4236
28070SOL    HW188895  11.556   2.178   9.560  0.1332  0.1113 -1.9367
28070SOL    HW288896  11.621   2.307   9.518  0.8561  0.2380 -0.5124
28071SOL     OW88897   0.015   1.337   8.025 -0.2191  0.6947  0.6558
28071SOL    HW188898   0.045   1.280   8.095  0.0400  0.2498  0.1869
28071SOL    HW288899  -0.054   1.288   7.981 -1.3195  1.5121  1.4161
28072SOL     OW88900  11.417   5.804   7.256 -0.4608  0.0560  0.0781
28072SOL    HW188901  11.481   5.752   7.207  0.5654  1.2518  0.1112
28072SOL    HW288902  11.332   5.782   7.216  0.0475 -0.9719 -0.4657
28073SOL     OW88903   2.770   6.857   3.751  0.1567 -0.4894  0.3914
28073SOL    HW188904   2.754   6.796   3.823 -0.3160 -1.7652 -0.7497
28073SOL    HW288905   2.702   6.837   3.686  1.5533 -0.5296 -1.1290
28074SOL     OW88906  10.724  11.032   2.623 -0.5897  0.3138  0.7853
28074SOL    HW188907  10.647  10.983   2.651 -0.9014  1.1042  1.3298
28074SOL    HW288908  10.711  11.120   2.658 -0.3929  1.0003 -0.8083
28075SOL     OW88909   2.614   1.553  11.090  0.0345  0.9452  0.4863
28075SOL    HW188910   2.523   1.555  11.061  0.0105  2.7001  0.5994
28075SOL    HW288911   2.611   1.585  11.180  0.6905  0.2328  0.7756
28076SOL     OW88912   7.526   3.841   7.794  0.1448  0.6898 -0.1527
28076SOL    HW188913   7.502   3.933   7.799 -1.5217  0.3669 -1.4576
28076SOL    HW288914   7.456   3.795   7.840  0.4877  0.0172 -0.2894
28077SOL     OW88915   8.735   9.849   3.061  0.4602 -0.3554 -0.1188
28077SOL    HW188916   8.748   9.832   2.967  0.2052 -1.0614 -0.0302
28077SOL    HW288917   8.641   9.840   3.075  0.4718 -0.0456  0.1628
28078SOL     OW88918   1.235   4.802   5.300  0.3060 -0.1485  0.1064
28078SOL    HW188919   1.188   4.858   5.238 -0.5285 -0.7314  0.1944
28078SOL    HW288920   1.309   4.855   5.328 -1.3099  1.5804  1.4027
28079SOL     OW88921   1.688  10.912  10.756 -0.2522  0.1312  0.1581
28079SOL    HW188922   1.666  11.005  10.751 -0.1635  0.0979 -2.3121
28079SOL    HW288923   1.635  10.878  10.829 -1.8970  1.7066 -0.2377
28080SOL     OW88924   8.518   9.513   4.514 -0.3919 -0.5576 -0.2863
28080SOL    HW188925   8.566   9.560   4.447  0.8016  0.1454  1.0231
28080SOL    HW288926   8.473   9.443   4.466 -0.3644  0.4943 -1.9339
28081SOL     OW88927   5.789   5.106   4.941  0.2032 -0.2466  0.3218
28081SOL    HW188928   5.715   5.092   5.000 -0.6913  1.1791 -0.4110
28081SOL    HW288929   5.865   5.115   4.999  0.0048 -2.5461  1.0469
28082SOL     OW88930  11.857   1.843   7.149  0.0832  0.7470 -0.2101
28082SOL    HW188931  11.790   1.865   7.214  1.1326 -1.1776  1.6307
28082SOL    HW288932  11.870   1.749   7.158  2.2954  0.8826 -1.2143
28083SOL     OW88933   1.827   0.937   5.643 -0.1298  0.3159 -0.1243
28083SOL    HW188934   1.892   0.975   5.702  2.2637 -3.9075  0.3817
28083SOL    HW288935   1.798   0.857   5.688 -0.7780 -1.2716 -3.1146
28084SOL     OW88936   5.121   3.979   0.472 -0.0006 -0.3189 -0.1427
28084SOL    HW188937   5.037   3.954   0.433  0.1728 -0.8703 -0.1704
28084SOL    HW288938   5.111   4.072   0.492 -0.1988 -0.0854 -1.2439
28085SOL     OW88939   0.282   9.076  11.924 -0.0494 -0.1772 -0.0309
28085SOL    HW188940   0.330   9.070  12.007  1.0389  2.8983 -0.3325
28085SOL    HW288941   0.324   9.148  11.876 -2.4311  0.0020 -2.0804
28086SOL     OW88942   9.219   1.003   2.789  0.3682 -0.3887  0.2672
28086SOL    HW188943   9.208   0.914   2.823  1.7827 -0.2524  1.1927
28086SOL    HW288944   9.258   1.051   2.862 -0.6664  1.0918 -0.1124
28087SOL     OW88945   0.533   1.968  10.039 -0.1165 -0.3139  0.3800
28087SOL    HW188946   0.490   1.995   9.958  0.7174 -0.4543 -0.1295
28087SOL    HW288947   0.465   1.972  10.105 -1.0697 -1.0855 -0.5032
28088SOL     OW88948   9.911  10.123  10.048 -0.4901 -0.0572  0.3392
28088SOL    HW188949   9.817  10.136  10.033 -0.2727  0.7493 -0.3873
28088SOL    HW288950   9.953  10.184   9.988  0.4736  1.6109  2.5970
28089SOL     OW88951  10.473   9.527   6.183 -0.3033  0.0625  0.4436
28089SOL    HW188952  10.537   9.595   6.162 -0.3969  0.3446  1.0382
28089SOL    HW288953  10.388   9.572   6.179 -0.3237  0.1444  1.4319
28090SOL     OW88954   8.514   7.055   6.258 -0.2432 -0.0319 -0.7232
28090SOL    HW188955   8.538   6.965   6.236 -2.4557 -0.6928 -0.6234
28090SOL    HW288956   8.475   7.049   6.345 -1.5670  0.7985 -1.2328
28091SOL     OW88957  10.937  10.964   7.984 -0.2847  0.2384 -0.2830
28091SOL    HW188958  10.843  10.965   8.004 -0.1069  0.6638  0.5682
28091SOL    HW288959  10.948  10.888   7.927 -1.2624  0.5764 -0.9647
28092SOL     OW88960   7.920   2.358   8.641  0.6915  0.2949  0.2649
28092SOL    HW188961   7.955   2.278   8.601 -0.0169  0.7337 -1.2815
28092SOL    HW288962   7.890   2.411   8.568 -0.1039  1.4048  1.3515
28093SOL     OW88963   0.146  10.463   6.791  1.0231 -0.3182 -0.5408
28093SOL    HW188964   0.088  10.484   6.718 -0.5003 -0.9924  0.4309
28093SOL    HW288965   0.234  10.481   6.757  0.2487  1.2873 -1.8636
28094SOL     OW88966   0.253   7.616   7.569  0.7141  0.3228  0.4909
28094SOL    HW188967   0.223   7.705   7.587  1.0949  0.8858 -1.4725
28094SOL    HW288968   0.182   7.560   7.601  0.6995  1.2676  2.2447
28095SOL     OW88969   1.326   1.074   3.163  0.5982  0.1479  0.2990
28095SOL    HW188970   1.394   1.011   3.140  0.1420  0.1106 -1.0028
28095SOL    HW288971   1.248   1.021   3.180  0.1447  0.3451 -1.0478
28096SOL     OW88972   0.011   0.998   4.108 -0.0210  0.6612 -0.2199
28096SOL    HW188973   0.070   0.922   4.114  0.9058  1.4674  2.0493
28096SOL    HW288974   0.053   1.055   4.044 -0.8593 -0.7901 -2.1516
28097SOL     OW88975   7.420   5.284   3.383  0.0636 -0.2548 -0.0339
28097SOL    HW188976   7.507   5.315   3.408  1.0139 -0.8410 -2.2891
28097SOL    HW288977   7.379   5.360   3.343 -0.1143 -0.2059  0.2441
28098SOL     OW88978   2.826   3.247   5.840 -0.0636 -0.0408 -0.0467
28098SOL    HW188979   2.818   3.162   5.797  0.6009  0.5818 -1.4740
28098SOL    HW288980   2.854   3.227   5.929 -1.1527 -1.3584  0.0225
28099SOL     OW88981  11.875   6.697   9.101  0.1472  0.9836 -0.1929
28099SOL    HW188982  11.913   6.615   9.132  2.1068  1.9228  0.0233
28099SOL    HW288983  11.849   6.743   9.181  0.7918  1.3631 -0.1951
28100SOL     OW88984   6.201   3.103   2.138 -0.3884 -0.1312 -0.6793
28100SOL    HW188985   6.172   3.024   2.092 -0.8063 -0.0357 -0.5824
28100SOL    HW288986   6.166   3.094   2.227  0.8160 -0.5458 -0.2217
28101SOL     OW88987   7.812   7.267   7.322  0.5422 -0.6117  0.1521
28101SOL    HW188988   7.829   7.187   7.371  2.0498  0.2583  1.1339
28101SOL    HW288989   7.850   7.252   7.236 -0.0558 -1.2931 -0.0023
28102SOL     OW88990   2.059   0.833   7.779  0.1213 -0.3040  0.1426
28102SOL    HW188991   2.112   0.890   7.834  0.8747  1.1820 -1.9810
28102SOL    HW288992   1.971   0.870   7.783  0.2787  0.0932 -0.0014
28103SOL     OW88993  11.230   9.968   4.022  0.1489 -0.0871 -0.6699
28103SOL    HW188994  11.202   9.992   3.934 -0.3039 -0.3310 -0.5930
28103SOL    HW288995  11.154   9.983   4.077  0.9615  1.8513  0.0237
28104SOL     OW88996   1.627  11.289  10.533 -0.1008 -0.3612 -0.3569
28104SOL    HW188997   1.689  11.292  10.460  0.0555  0.3104 -0.1954
28104SOL    HW288998   1.548  11.251  10.495  0.4589 -1.4212 -0.5164
28105SOL     OW88999   8.749   9.550  10.553  0.2153  0.1809  0.1079
28105SOL    HW189000   8.702   9.560  10.636  0.3808  3.6420 -0.0503
28105SOL    HW289001   8.841   9.540  10.578  0.1449  0.1874  0.3716
28106SOL     OW89002  11.190   0.351   4.450 -0.2612  0.1513  0.3476
28106SOL    HW189003  11.237   0.424   4.489 -1.0290  0.6797  0.2973
28106SOL    HW289004  11.192   0.368   4.356 -0.7677  0.3005  0.3657
28107SOL     OW89005   6.211   8.985   5.270  0.5779  0.2657  0.3826
28107SOL    HW189006   6.293   9.010   5.311 -0.0410 -1.1428  2.6813
28107SOL    HW289007   6.189   9.059   5.213  3.7148  0.3894 -0.8557
28108SOL     OW89008   2.112   0.122   5.481 -0.4028  0.4239 -0.7619
28108SOL    HW189009   2.204   0.104   5.462 -0.3573  1.1959 -1.3340
28108SOL    HW289010   2.112   0.211   5.516 -0.6992 -0.3182  1.2624
28109SOL     OW89011   0.696   9.029   2.272  0.0671 -0.1412 -0.4488
28109SOL    HW189012   0.761   8.967   2.238 -0.0983 -0.0760 -0.8881
28109SOL    HW289013   0.716   9.035   2.366  0.1072 -0.8338 -0.4044
28110SOL     OW89014   8.820   2.493   4.587 -0.0328 -0.5880  0.1116
28110SOL    HW189015   8.795   2.430   4.655 -1.1617 -0.5663 -0.2658
28110SOL    HW289016   8.893   2.542   4.626 -0.5501 -0.6887  1.2453
28111SOL     OW89017   1.404   9.619   5.535 -0.3073  0.0700  0.1852
28111SOL    HW189018   1.315   9.632   5.502 -0.4670  2.0128  1.2270
28111SOL    HW289019   1.441   9.707   5.538  1.4318 -0.6286  0.4179
28112SOL     OW89020  11.439   9.793   2.431  0.0094 -0.2701 -0.2646
28112SOL    HW189021  11.478   9.767   2.514 -1.5597  0.2323  0.6786
28112SOL    HW289022  11.501   9.857   2.394 -0.0537  0.7802  1.3532
28113SOL     OW89023  11.430   6.438   3.662  0.3410  0.1777 -0.4088
28113SOL    HW189024  11.434   6.392   3.578 -0.8043  0.4540 -0.6338
28113SOL    HW289025  11.517   6.477   3.672  1.1373 -1.4619 -0.5196
28114SOL     OW89026  10.921   9.219  11.803  0.7124 -0.4175 -0.2737
28114SOL    HW189027  11.002   9.216  11.751  0.7169  2.1448 -0.5002
28114SOL    HW289028  10.859   9.265  11.747 -0.1057  0.0095  0.9591
28115SOL     OW89029   8.213   5.618   1.670 -0.3560  0.0064 -0.2307
28115SOL    HW189030   8.215   5.532   1.714 -0.3011 -0.0616 -0.3652
28115SOL    HW289031   8.303   5.630   1.638 -0.2493  0.3265  0.1939
28116SOL     OW89032   5.674   9.963   8.403 -0.3571 -0.3651 -0.9533
28116SOL    HW189033   5.746   9.990   8.345 -2.6259  0.1717 -3.7557
28116SOL    HW289034   5.620  10.041   8.411 -1.4366 -1.1712 -0.1878
28117SOL     OW89035   8.465   3.745   7.964 -0.4498 -0.1545 -0.0161
28117SOL    HW189036   8.467   3.718   7.872  0.1937 -0.0068 -0.0519
28117SOL    HW289037   8.462   3.841   7.961  1.0441 -0.0720  0.0979
28118SOL     OW89038   2.561   4.134  11.549 -0.0666 -0.6232  0.2196
28118SOL    HW189039   2.470   4.106  11.541  0.2579 -1.2573 -2.0157
28118SOL    HW289040   2.599   4.117  11.462  1.4683  2.2170  0.2148
28119SOL     OW89041   2.571   0.628   0.939 -0.0891 -0.0907  0.3526
28119SOL    HW189042   2.637   0.636   1.008 -0.6124 -0.5721  0.9128
28119SOL    HW289043   2.622   0.633   0.857  0.7730 -1.4419  0.7671
28120SOL     OW89044   3.798   9.391  11.729  0.0476  0.0262 -0.2807
28120SOL    HW189045   3.740   9.359  11.660  1.1888 -0.3071 -1.1275
28120SOL    HW289046   3.777   9.337  11.806 -0.8179 -0.0109 -0.5383
28121SOL     OW89047   0.482   3.108   4.168 -0.4617 -0.2963  0.3579
28121SOL    HW189048   0.434   3.087   4.248 -2.0311  0.8431 -0.2348
28121SOL    HW289049   0.474   3.029   4.114 -0.6275 -0.5560  0.7576
28122SOL     OW89050  10.620   7.829   4.901  0.2050 -0.5975 -0.3880
28122SOL    HW189051  10.691   7.875   4.946 -1.0926 -0.1112  1.2462
28122SOL    HW289052  10.582   7.772   4.968 -1.6987  0.0385 -0.8722
28123SOL     OW89053   5.021   5.843   9.616 -0.6520  0.6417 -0.2037
28123SOL    HW189054   5.055   5.774   9.674  2.9569  1.1951 -1.3804
28123SOL    HW289055   5.022   5.803   9.529 -2.9454  0.8187 -0.3534
28124SOL     OW89056   9.337   0.365   0.774 -0.5172 -0.3252  0.0204
28124SOL    HW189057   9.313   0.416   0.697 -1.2131 -0.3801  0.1970
28124SOL    HW289058   9.254   0.334   0.809 -0.1933 -0.4324  0.7036
28125SOL     OW89059   6.548   1.032  10.633 -0.4436  0.2271  0.0198
28125SOL    HW189060   6.628   1.061  10.676 -0.5427  0.9836 -0.2893
28125SOL    HW289061   6.534   0.942  10.665  1.5957 -0.6709 -1.4271
28126SOL     OW89062   3.632   0.484   4.221  0.9439  0.6313 -0.0827
28126SOL    HW189063   3.682   0.554   4.180 -0.4626  0.6138 -2.0043
28126SOL    HW289064   3.573   0.453   4.152  0.5350 -1.5019  1.1113
28127SOL     OW89065   5.078   3.406   7.611  0.1886  0.0666 -0.1189
28127SOL    HW189066   5.055   3.470   7.678 -0.4184  1.0950 -1.2517
28127SOL    HW289067   5.160   3.368   7.641 -0.4813 -0.1014  1.5894
28128SOL     OW89068   3.118   3.423   6.164 -0.2966 -0.9444  0.0950
28128SOL    HW189069   3.044   3.459   6.116  1.2508  2.0737 -0.3032
28128SOL    HW289070   3.131   3.483   6.238 -0.5772 -3.6132  2.4696
28129SOL     OW89071  11.888   8.275   4.813  0.7774  0.1771 -0.3043
28129SOL    HW189072  11.837   8.198   4.792 -0.6919  0.7381  1.0396
28129SOL    HW289073  11.945   8.248   4.885  2.0905 -0.3160 -1.4900
28130SOL     OW89074   1.848   0.588   1.584 -0.0745 -0.2818 -0.2704
28130SOL    HW189075   1.816   0.542   1.661 -2.9781  1.0086 -0.5410
28130SOL    HW289076   1.839   0.525   1.512 -0.4094 -0.4900 -0.0470
28131SOL     OW89077   8.989   4.758   5.054  0.5599  0.8175  0.0981
28131SOL    HW189078   8.941   4.824   5.005 -1.1580  1.3152  2.2922
28131SOL    HW289079   8.933   4.680   5.049  2.0192 -0.1936 -1.5077
28132SOL     OW89080   9.542  11.809  11.792 -0.5217 -0.2643 -0.5513
28132SOL    HW189081   9.489  11.857  11.855 -0.5267 -0.9750  0.0053
28132SOL    HW289082   9.493  11.812  11.711 -1.4562 -0.9568 -0.0343
28133SOL     OW89083   8.959   3.124   6.892 -0.1249 -0.0053  0.0868
28133SOL    HW189084   8.968   3.045   6.944 -0.0683  1.7616  2.9437
28133SOL    HW289085   9.046   3.136   6.852  0.7876  0.1313  2.0096
28134SOL     OW89086   7.492  11.125  11.569  0.1579  0.2936  0.6352
28134SOL    HW189087   7.484  11.060  11.639 -2.0437  1.0063  1.1207
28134SOL    HW289088   7.545  11.195  11.608  2.4121 -1.0494  0.1618
28135SOL     OW89089  11.609   8.656   6.546 -0.1202 -0.3843 -0.0012
28135SOL    HW189090  11.598   8.650   6.451 -0.2066  1.6009 -0.1469
28135SOL    HW289091  11.604   8.565   6.576  1.1449 -1.1755 -2.0061
28136SOL     OW89092   7.367   0.346   2.427 -0.4572 -0.2523 -0.1089
28136SOL    HW189093   7.387   0.428   2.473 -0.1689 -0.6416  0.4735
28136SOL    HW289094   7.431   0.342   2.356  0.2497 -0.4974  0.5234
28137SOL     OW89095  11.841   9.648   2.692  0.0281  0.1615 -0.2207
28137SOL    HW189096  11.757   9.687   2.714 -1.5413 -2.4689 -1.1550
28137SOL    HW289097  11.877   9.704   2.623 -0.7166  1.5396  0.4746
28138SOL     OW89098   8.239   4.122   2.919 -0.0158  0.5170 -0.0540
28138SOL    HW189099   8.298   4.194   2.942 -1.6073  2.0610 -0.5911
28138SOL    HW289100   8.270   4.092   2.834 -0.2517  1.6097 -0.5367
28139SOL     OW89101  11.890   2.009   3.805  0.0965 -0.1950 -0.2835
28139SOL    HW189102  11.864   1.943   3.742 -0.8055  0.1809 -0.3289
28139SOL    HW289103  11.985   2.011   3.802  0.0625 -0.1099 -1.7047
28140SOL     OW89104   9.716   5.225  11.558 -0.5996  0.2604  0.4858
28140SOL    HW189105   9.716   5.168  11.481  1.3098  1.6133 -0.5972
28140SOL    HW289106   9.743   5.311  11.525 -0.0657  0.9853  2.6087
28141SOL     OW89107   4.116   1.976   8.814 -0.5135  0.2081  0.3886
28141SOL    HW189108   4.127   2.039   8.886 -0.4703  0.0214  0.5491
28141SOL    HW289109   4.022   1.973   8.799 -0.6343 -0.5546  1.1769
28142SOL     OW89110   1.824  11.533   5.292 -0.6502 -0.1693  0.8128
28142SOL    HW189111   1.850  11.549   5.383  0.0847  1.0817  0.4095
28142SOL    HW289112   1.763  11.604   5.272  1.1490  1.0964 -0.4299
28143SOL     OW89113   1.795   7.737   7.531 -0.3293 -0.4393 -0.6087
28143SOL    HW189114   1.718   7.730   7.586  0.2055 -0.6443  0.1312
28143SOL    HW289115   1.869   7.723   7.591  0.2115 -2.1006 -1.6098
28144SOL     OW89116   4.137   0.594  10.511 -0.2754  0.2846  0.2681
28144SOL    HW189117   4.129   0.542  10.591 -0.0279  0.6126  0.5108
28144SOL    HW289118   4.231   0.613  10.505 -0.2571  0.0585 -0.2333
28145SOL     OW89119   8.166   8.322   8.634 -0.3346  0.0492  0.6066
28145SOL    HW189120   8.092   8.344   8.576 -2.1513 -4.0847  0.9325
28145SOL    HW289121   8.137   8.348   8.721 -2.0954 -2.4204  0.8883
28146SOL     OW89122   1.831   7.557   5.817  0.1228 -0.2053  0.5025
28146SOL    HW189123   1.869   7.643   5.839  0.2612 -0.8462  3.0960
28146SOL    HW289124   1.745   7.558   5.859  0.4055 -1.5579  1.1537
28147SOL     OW89125   1.326   9.901   5.604  0.2315 -0.2727 -0.2880
28147SOL    HW189126   1.312   9.983   5.652  4.1661 -0.2031  1.1405
28147SOL    HW289127   1.338   9.929   5.513  0.6225  0.6493  0.0340
28148SOL     OW89128   9.483   1.364   8.479 -0.3188 -0.4819  0.6682
28148SOL    HW189129   9.556   1.424   8.468  0.0953 -1.0206  0.4239
28148SOL    HW289130   9.405   1.420   8.476 -0.0561 -0.1428 -1.5206
28149SOL     OW89131   7.216  10.594   9.381 -0.0847  0.0301  0.4885
28149SOL    HW189132   7.256  10.534   9.444 -0.5454  0.3940  1.1510
28149SOL    HW289133   7.127  10.605   9.413 -0.0200  1.0236  0.3451
28150SOL     OW89134   5.314  11.447   9.646  0.2575 -0.4144 -0.1684
28150SOL    HW189135   5.245  11.381   9.653  1.7752 -1.9010  3.5857
28150SOL    HW289136   5.268  11.530   9.639 -2.1602 -1.1926  3.5350
28151SOL     OW89137   5.222   3.888  10.244 -0.0202 -0.3074  0.4063
28151SOL    HW189138   5.157   3.842  10.191  0.4485 -1.6526  0.9458
28151SOL    HW289139   5.208   3.981  10.224 -1.7913 -0.5874  0.1871
28152SOL     OW89140   6.691   0.438   2.509  0.3042  0.5298 -0.5451
28152SOL    HW189141   6.626   0.395   2.566 -0.0690  1.8748  0.0747
28152SOL    HW289142   6.759   0.372   2.497 -1.1025 -0.8886 -1.1165
28153SOL     OW89143   4.704  10.141   0.219  0.0877 -0.0992 -0.6181
28153SOL    HW189144   4.620  10.107   0.187 -0.4624  0.5099  0.1357
28153SOL    HW289145   4.697  10.236   0.210 -0.7304  0.2906  2.5759
28154SOL     OW89146   3.513   6.133   2.344  0.1116 -0.1165  0.4219
28154SOL    HW189147   3.580   6.180   2.394 -0.7257 -1.3869  2.8671
28154SOL    HW289148   3.510   6.046   2.383 -0.3608 -1.3611 -2.1333
28155SOL     OW89149   3.011   1.127   6.491 -0.0373 -0.3212  0.1085
28155SOL    HW189150   3.014   1.191   6.562 -0.2692 -0.1156 -0.0670
28155SOL    HW289151   3.099   1.129   6.453  0.2711 -0.8629  0.7656
28156SOL     OW89152   4.762   2.150  10.415  0.2931  0.2678  0.3787
28156SOL    HW189153   4.671   2.145  10.445  0.1859  0.7592  0.1457
28156SOL    HW289154   4.757   2.197  10.332  0.6142 -0.8409 -0.2912
28157SOL     OW89155   0.575   7.296   6.118  0.2392  0.4077 -0.7895
28157SOL    HW189156   0.517   7.370   6.138 -1.0431 -0.0854 -2.4748
28157SOL    HW289157   0.519   7.219   6.126  1.1736 -0.2575 -0.5868
28158SOL     OW89158   1.788   2.046  11.993  0.0541 -1.1274  0.4672
28158SOL    HW189159   1.716   1.989  11.967 -1.7278  0.9087  0.7059
28158SOL    HW289160   1.796   2.109  11.921  0.6485 -0.4728  1.0917
28159SOL     OW89161  10.698   6.019   4.248 -0.0648  0.1773 -0.0657
28159SOL    HW189162  10.697   6.058   4.160 -0.6812 -0.4214 -0.3331
28159SOL    HW289163  10.629   5.953   4.245  1.3606 -1.3811  0.1693
28160SOL     OW89164   6.688   8.913   2.917  0.2794  0.1430 -0.1403
28160SOL    HW189165   6.672   8.883   2.827 -0.0176  0.1531 -0.0916
28160SOL    HW289166   6.653   9.002   2.919  1.1024  0.4758 -0.2656
28161SOL     OW89167   9.626  11.687   0.503 -0.1059 -0.0402 -0.1408
28161SOL    HW189168   9.584  11.626   0.564 -0.2441  0.7202  0.5446
28161SOL    HW289169   9.700  11.722   0.552 -0.6177  1.0901 -0.1532
28162SOL     OW89170   2.889   2.801  10.856 -0.0090 -0.1290  0.1129
28162SOL    HW189171   2.856   2.729  10.910 -2.3359  0.0934 -0.8600
28162SOL    HW289172   2.822   2.869  10.864  1.6184  1.5333  0.1759
28163SOL     OW89173   7.668   8.744  11.252 -0.4584 -0.1893 -0.0602
28163SOL    HW189174   7.576   8.732  11.232 -0.1540 -0.5737 -1.3208
28163SOL    HW289175   7.669   8.775  11.343 -1.9607  2.2184 -0.7687
28164SOL     OW89176  11.112   5.213   8.695 -0.2772  0.2844 -0.0096
28164SOL    HW189177  11.044   5.146   8.693 -1.4936  1.3063  2.6272
28164SOL    HW289178  11.102   5.259   8.611  0.4963 -2.5997 -1.8256
28165SOL     OW89179   3.440   8.800   0.745  0.2034 -0.5866 -0.8634
28165SOL    HW189180   3.480   8.720   0.712  0.4581 -0.8699  0.1068
28165SOL    HW289181   3.348   8.777   0.761  0.5275 -1.0311  0.4866
28166SOL     OW89182   5.378   3.275   1.429 -0.1152  0.1444  0.0707
28166SOL    HW189183   5.429   3.274   1.510  1.2338  1.7046 -0.6918
28166SOL    HW289184   5.310   3.210   1.443 -0.5660  1.0725  2.8420
28167SOL     OW89185  11.047   2.698   4.682  0.4134  0.4224 -0.7059
28167SOL    HW189186  10.951   2.700   4.681  0.3616 -1.0221 -1.0694
28167SOL    HW289187  11.071   2.678   4.591  1.0711  1.0641 -0.6782
28168SOL     OW89188   7.090   8.221   1.119 -0.2558  0.7158 -0.3471
28168SOL    HW189189   7.131   8.138   1.095 -1.0018  0.4771 -0.8276
28168SOL    HW289190   7.146   8.288   1.079  0.8337  0.4986  0.7712
28169SOL     OW89191   4.422   3.060   0.011 -0.6501 -0.1710  0.0048
28169SOL    HW189192   4.506   3.026   0.043 -0.3381 -0.0308 -0.6578
28169SOL    HW289193   4.388   3.112   0.084 -0.6262 -1.0093  0.6358
28170SOL     OW89194   5.861   1.836  10.201  0.0421  0.2730 -0.0368
28170SOL    HW189195   5.822   1.906  10.253 -0.2954  0.2119 -0.2065
28170SOL    HW289196   5.799   1.821  10.130  0.4004  0.2115 -0.3413
28171SOL     OW89197   5.365   0.648   5.892 -0.3328  0.0173  0.0417
28171SOL    HW189198   5.304   0.650   5.965  0.3383  2.0821  0.6202
28171SOL    HW289199   5.387   0.740   5.877  4.6954 -0.6055  1.6850
28172SOL     OW89200   5.806   3.025   3.965  0.0325  0.1028 -0.0189
28172SOL    HW189201   5.816   3.119   3.949 -0.3971 -0.1215 -1.7529
28172SOL    HW289202   5.713   3.013   3.981 -0.7666 -0.5275 -4.0809
28173SOL     OW89203   0.355   4.298   2.612  0.2111  0.0268  0.3244
28173SOL    HW189204   0.263   4.314   2.590  0.3239 -0.9582 -0.9988
28173SOL    HW289205   0.352   4.263   2.701 -0.9801 -2.3290 -0.5556
28174SOL     OW89206   6.342  10.143   0.460 -0.0169 -0.8780  0.5604
28174SOL    HW189207   6.246  10.144   0.457 -0.0218 -0.9821  0.6622
28174SOL    HW289208   6.365  10.215   0.519 -0.0376 -0.9412  0.6460
28175SOL     OW89209   2.459   6.549   9.323 -0.3048 -0.1061 -0.2612
28175SOL    HW189210   2.394   6.569   9.391  0.5367  0.9875  0.2525
28175SOL    HW289211   2.510   6.630   9.315  0.2550 -0.5651 -1.4847
28176SOL     OW89212   9.927   7.334   6.255  0.3686 -0.3039 -0.4395
28176SOL    HW189213   9.945   7.293   6.339  0.8771 -0.9347 -0.8513
28176SOL    HW289214   9.838   7.369   6.263  0.6582  0.2293  0.5840
28177SOL     OW89215   5.434   1.734   2.137  0.0110  0.0439  0.3319
28177SOL    HW189216   5.386   1.655   2.162  2.0503 -0.8289  1.8484
28177SOL    HW289217   5.502   1.703   2.078 -0.0731  0.9391 -0.2567
28178SOL     OW89218  10.251  11.479   5.720  0.0695 -0.1685  0.0689
28178SOL    HW189219  10.257  11.560   5.670  1.1514 -0.1157  0.2695
28178SOL    HW289220  10.157  11.469   5.737 -0.1570  0.6107 -0.6489
28179SOL     OW89221   5.683  10.598  11.128 -0.4333  0.7574  0.2802
28179SOL    HW189222   5.689  10.512  11.169 -2.0883  0.4117 -0.1521
28179SOL    HW289223   5.590  10.620  11.131 -0.2185  1.9463 -0.7969
28180SOL     OW89224  10.468  10.155   8.582  0.2245 -0.0051 -0.1302
28180SOL    HW189225  10.438  10.064   8.586  0.4067 -0.1724 -1.7160
28180SOL    HW289226  10.479  10.172   8.488 -2.5773  2.5768 -0.1486
28181SOL     OW89227   0.439   0.697  10.920  0.7155  0.0909 -0.0535
28181SOL    HW189228   0.533   0.681  10.929  0.8422  0.3895 -0.7763
28181SOL    HW289229   0.419   0.761  10.988  0.8830 -0.5130  0.5828
28182SOL     OW89230   3.935  11.370   0.982 -0.1502 -0.1613  0.2402
28182SOL    HW189231   3.864  11.306   0.972  1.3461 -1.7735 -0.6201
28182SOL    HW289232   3.912  11.441   0.923 -0.4334 -1.2736 -1.0408
28183SOL     OW89233   3.265   4.366  10.647 -1.0958  0.2348  0.4812
28183SOL    HW189234   3.248   4.459  10.631 -1.9773  0.2918  1.6150
28183SOL    HW289235   3.197   4.321  10.596 -0.6112  0.1988 -0.1426
28184SOL     OW89236   8.045   6.151   8.498 -0.0475 -0.0665 -0.5581
28184SOL    HW189237   8.114   6.212   8.473  0.8190 -0.5135  0.5980
28184SOL    HW289238   8.093   6.075   8.532 -1.1004 -1.2626 -1.6602
28185SOL     OW89239   0.720   2.852  11.630  0.3860  0.1681 -0.7500
28185SOL    HW189240   0.777   2.775  11.631  0.8329  0.5027 -0.5236
28185SOL    HW289241   0.780   2.926  11.633 -0.0963  0.5262  1.0973
28186SOL     OW89242   1.236   7.643   3.083 -0.2548  0.0389 -0.1847
28186SOL    HW189243   1.267   7.702   3.014  0.8019 -2.2346 -1.8166
28186SOL    HW289244   1.304   7.575   3.088 -2.2162 -2.0166  0.2510
28187SOL     OW89245   0.106   8.608   7.388 -0.3489  0.2213 -0.0197
28187SOL    HW189246   0.119   8.658   7.468 -2.2008 -1.2925  1.3361
28187SOL    HW289247   0.080   8.521   7.418  0.1693 -0.7921 -2.2801
28188SOL     OW89248   1.560   3.900   8.194  0.9054  0.1475 -0.1030
28188SOL    HW189249   1.654   3.911   8.180  0.6146  2.1713 -0.7800
28188SOL    HW289250   1.522   3.899   8.106  0.4708 -3.9781 -0.1061
28189SOL     OW89251   3.179   1.735   0.078 -0.1584 -0.3569  0.7200
28189SOL    HW189252   3.240   1.747   0.006 -0.1129  2.4079  1.1215
28189SOL    HW289253   3.230   1.756   0.156 -0.1186 -3.5742  1.7068
28190SOL     OW89254   0.351   3.733   4.261  0.1402  0.1284  0.7833
28190SOL    HW189255   0.416   3.759   4.196 -0.4509  0.6751  0.3818
28190SOL    HW289256   0.342   3.639   4.251 -0.1666  0.2442 -0.1656
28191SOL     OW89257   9.653   3.820   7.545 -0.7786 -0.8422  0.9150
28191SOL    HW189258   9.578   3.873   7.517  0.1730 -0.1119 -0.3819
28191SOL    HW289259   9.631   3.731   7.517 -2.0249 -1.0343  2.3643
28192SOL     OW89260   9.129   7.190  10.446  0.4288 -1.1197  0.2065
28192SOL    HW189261   9.151   7.279  10.473  0.3491 -0.8883 -0.4625
28192SOL    HW289262   9.082   7.202  10.363  0.9374 -1.8141 -0.1890
28193SOL     OW89263   4.088   0.868   8.094 -0.1020  0.0589  0.1479
28193SOL    HW189264   4.013   0.869   8.035 -0.9103  1.5033  1.1477
28193SOL    HW289265   4.073   0.941   8.154  1.0630 -0.8947  1.6843
28194SOL     OW89266   9.714   8.648   2.448  0.6727 -0.4496  0.0354
28194SOL    HW189267   9.756   8.617   2.367  1.2012  0.4639 -0.0610
28194SOL    HW289268   9.621   8.637   2.432  0.7683 -0.2697 -0.7070
28195SOL     OW89269   2.569   3.890   1.822 -0.0980  0.1950 -0.1654
28195SOL    HW189270   2.520   3.939   1.888  0.8143  1.0891 -0.1188
28195SOL    HW289271   2.599   3.957   1.759  0.0744 -0.4756 -0.8171
28196SOL     OW89272   5.507   9.458  10.225  0.0470 -0.1941  0.3177
28196SOL    HW189273   5.449   9.387  10.254 -0.9368  0.9428  1.2074
28196SOL    HW289274   5.545   9.492  10.306 -0.5775  1.2129  0.0407
28197SOL     OW89275   3.337  10.023   1.381 -0.1066  0.3288 -0.0421
28197SOL    HW189276   3.334  10.026   1.477  1.2730 -1.9252  0.1331
28197SOL    HW289277   3.423  10.059   1.359  0.8448 -1.9053 -0.1893
28198SOL     OW89278   9.683   7.184   3.052  0.4376  0.4048  0.1553
28198SOL    HW189279   9.721   7.270   3.067  1.2688  0.1795 -0.5575
28198SOL    HW289280   9.679   7.176   2.956 -1.2821  0.3555  0.1964
28199SOL     OW89281   0.203   7.937   7.301  0.0573 -0.6352  0.0934
28199SOL    HW189282   0.239   7.882   7.231 -0.2858 -0.4727 -0.2109
28199SOL    HW289283   0.247   8.021   7.291 -0.0420 -0.5907  0.0337
28200SOL     OW89284  11.592  11.825  11.961  0.1089  0.4791  0.4822
28200SOL    HW189285  11.503  11.812  11.927  0.1664  1.4487 -0.0745
28200SOL    HW289286  11.579  11.881  12.037  0.0968 -0.7321  1.3981
28201SOL     OW89287  11.570   3.123   4.131 -0.2757  0.2108  0.4129
28201SOL    HW189288  11.589   3.204   4.085  0.9869  0.6558  1.6400
28201SOL    HW289289  11.654   3.097   4.169 -0.7565 -1.4111  0.4623
28202SOL     OW89290  11.847   0.877   5.342 -0.2996 -0.1511 -0.1240
28202SOL    HW189291  11.937   0.879   5.312 -0.1501  2.3356  0.2747
28202SOL    HW289292  11.813   0.793   5.311  2.1283 -1.1647 -0.2357
28203SOL     OW89293   4.660   2.375   0.322 -0.4079  0.2611 -0.2728
28203SOL    HW189294   4.651   2.353   0.414 -2.1876  0.0917 -0.4562
28203SOL    HW289295   4.570   2.383   0.290  0.1747  0.9015 -1.8555
28204SOL     OW89296   4.634   5.797   7.682 -0.6128 -0.1347  0.3805
28204SOL    HW189297   4.588   5.741   7.618 -0.4462  0.7433 -0.5300
28204SOL    HW289298   4.577   5.797   7.758 -1.9159  0.5377 -0.5543
28205SOL     OW89299   6.597   1.113   4.280 -0.7740 -0.0884 -0.0372
28205SOL    HW189300   6.544   1.132   4.357 -0.8635  1.3232 -0.4318
28205SOL    HW289301   6.569   1.025   4.252 -1.0794 -0.4057  1.2365
28206SOL     OW89302   0.224   9.252   3.783 -0.0920  0.3058  0.1884
28206SOL    HW189303   0.216   9.314   3.710 -1.0237 -1.4366 -1.2618
28206SOL    HW289304   0.171   9.291   3.852 -0.9179  0.9942 -0.7928
28207SOL     OW89305   3.953   0.797  10.479 -0.1692  0.8264  0.0819
28207SOL    HW189306   4.025   0.739  10.502  0.3976  2.1530  1.9199
28207SOL    HW289307   3.886   0.780  10.546 -0.7565  0.9893 -0.4557
28208SOL     OW89308   5.721   2.057   6.991 -0.1233 -0.7535 -0.2513
28208SOL    HW189309   5.635   2.026   6.964  0.1614 -0.6752 -1.2791
28208SOL    HW289310   5.728   2.031   7.083 -1.8049  0.4617  0.2807
28209SOL     OW89311   2.664   2.648   0.429 -0.1508  0.5370  0.1856
28209SOL    HW189312   2.636   2.575   0.484 -2.5751 -1.1242 -2.9390
28209SOL    HW289313   2.682   2.609   0.344  0.4181  3.3265 -1.0886
28210SOL     OW89314  10.679   3.933   2.594 -0.3513  0.2276  0.1999
28210SOL    HW189315  10.653   3.841   2.585 -2.2670  0.7575 -0.1981
28210SOL    HW289316  10.681   3.948   2.689  0.8024 -0.4132  0.2973
28211SOL     OW89317  10.217   7.727   3.135  0.5255  0.1486 -0.2413
28211SOL    HW189318  10.247   7.804   3.184  0.8796 -0.6242  0.7739
28211SOL    HW289319  10.295   7.694   3.091  0.3362  0.4629 -0.8303
28212SOL     OW89320   1.395   8.063   9.391 -0.1228  0.3966 -0.0822
28212SOL    HW189321   1.334   7.990   9.400 -0.8046  0.8158 -1.1358
28212SOL    HW289322   1.423   8.082   9.481  0.6551 -1.6213  0.1543
28213SOL     OW89323   9.396   1.077   4.933 -0.0703  0.1218 -0.1060
28213SOL    HW189324   9.339   1.072   5.010  2.1696 -0.7863  1.6009
28213SOL    HW289325   9.388   0.991   4.892 -1.7228  0.7962 -1.3402
28214SOL     OW89326   5.972   2.112   0.929 -0.0777  0.3856 -0.6477
28214SOL    HW189327   5.935   2.028   0.956  0.9502  0.1823  0.2084
28214SOL    HW289328   6.040   2.130   0.995 -1.0630  2.4464 -0.1219
28215SOL     OW89329   9.281  10.802   8.647 -0.5490 -0.1928 -0.2534
28215SOL    HW189330   9.308  10.729   8.703 -0.6142 -1.2588 -1.5384
28215SOL    HW289331   9.232  10.860   8.704  3.6484  1.4885  2.0913
28216SOL     OW89332  10.723   0.726   9.254  0.1629 -0.4311 -0.0281
28216SOL    HW189333  10.628   0.733   9.254  0.0224 -1.9953  0.2028
28216SOL    HW289334  10.754   0.816   9.266 -1.2578  0.2368 -1.0344
28217SOL     OW89335   5.096  10.708   8.212  0.1089 -0.1289  0.0272
28217SOL    HW189336   5.094  10.791   8.163 -0.2310  0.8886  1.6686
28217SOL    HW289337   5.126  10.643   8.149  1.2759  1.4191 -1.0827
28218SOL     OW89338   5.692   0.898   7.440  0.2861  0.2630  0.2069
28218SOL    HW189339   5.698   0.984   7.397 -1.4648 -0.2280 -1.1583
28218SOL    HW289340   5.599   0.876   7.435  0.5448 -1.2528  1.4963
28219SOL     OW89341   7.959   9.711   3.516  0.2464  0.0254  0.1863
28219SOL    HW189342   7.891   9.645   3.527 -0.9381  1.0000 -0.9337
28219SOL    HW289343   7.947   9.771   3.590 -0.3091  0.3451 -0.1567
28220SOL     OW89344   4.113   3.297   2.955  0.6646 -0.3076  0.3567
28220SOL    HW189345   4.201   3.330   2.972  0.2867  0.2514  1.2822
28220SOL    HW289346   4.067   3.370   2.915  0.9842 -1.0197 -1.4281
28221SOL     OW89347   2.308   6.810   5.946 -0.3247 -0.3914  0.4513
28221SOL    HW189348   2.299   6.905   5.959  0.5383  0.0293 -1.5552
28221SOL    HW289349   2.222   6.782   5.913  0.2891  0.3774 -2.0811
28222SOL     OW89350   9.768   5.246   3.836  0.4902 -0.7389  0.3231
28222SOL    HW189351   9.755   5.341   3.840 -1.6713 -0.9420 -0.7626
28222SOL    HW289352   9.761   5.218   3.927  0.8857  0.0980  0.6250
28223SOL     OW89353   7.498   1.246   1.070  0.2192 -0.3397  0.1591
28223SOL    HW189354   7.594   1.248   1.077  0.2207  0.8371 -0.0407
28223SOL    HW289355   7.472   1.169   1.122  1.1215  0.5330  1.9934
28224SOL     OW89356   9.871  11.086   6.380 -0.1629  0.1557  0.1468
28224SOL    HW189357   9.899  11.086   6.288 -0.9547  1.8635 -0.1381
28224SOL    HW289358   9.779  11.060   6.376 -0.1161 -0.0566  0.4920
28225SOL     OW89359   9.597   1.122   9.834 -0.1040  0.4467  0.6745
28225SOL    HW189360   9.545   1.202   9.846  0.4055  0.8558  0.1929
28225SOL    HW289361   9.571   1.088   9.749 -0.6749 -0.1763  1.0890
28226SOL     OW89362   2.208   8.425   4.236  0.4611 -0.2592  0.2346
28226SOL    HW189363   2.303   8.413   4.238  0.4386 -1.2415 -1.9831
28226SOL    HW289364   2.193   8.504   4.288  2.3667 -0.6666  1.4988
28227SOL     OW89365   1.680   0.817   6.761 -0.2899  0.2401 -0.5479
28227SOL    HW189366   1.629   0.825   6.681  0.7040 -0.1598 -1.2345
28227SOL    HW289367   1.766   0.851   6.738 -0.2052  0.8236  0.5724
28228SOL     OW89368   0.293   3.255   3.926  0.5420 -0.6772  0.2315
28228SOL    HW189369   0.252   3.186   3.874 -0.2990  0.2464 -0.3736
28228SOL    HW289370   0.221   3.314   3.948  1.5330  1.0412 -0.9182
28229SOL     OW89371   8.969  10.680   5.513 -0.4594 -0.1277 -0.0637
28229SOL    HW189372   9.042  10.709   5.457 -2.4883  2.6068 -1.5205
28229SOL    HW289373   8.894  10.677   5.454 -2.0488 -0.4220  1.8842
28230SOL     OW89374   8.701   0.177   4.183  0.5791 -0.1859 -0.8271
28230SOL    HW189375   8.668   0.120   4.114 -0.1873 -2.6141  1.3630
28230SOL    HW289376   8.695   0.124   4.263 -0.7085  3.1412  1.5308
28231SOL     OW89377   5.123   0.642  10.940 -0.3816  0.5172 -0.0474
28231SOL    HW189378   5.178   0.565  10.930 -1.5207 -0.2512 -0.6054
28231SOL    HW289379   5.128   0.664  11.033  1.7751  1.1938 -0.2792
28232SOL     OW89380   6.429   4.613   6.166 -0.2185 -0.4003  0.1313
28232SOL    HW189381   6.413   4.618   6.072  0.4788 -0.0970  0.0162
28232SOL    HW289382   6.343   4.603   6.205 -0.5217 -0.4422 -0.5356
28233SOL     OW89383   2.990   2.404   6.640 -0.3430 -0.6509 -0.5791
28233SOL    HW189384   3.026   2.483   6.598 -0.5130 -0.7348 -0.8879
28233SOL    HW289385   3.059   2.375   6.700 -0.9351  0.7147  0.8325
28234SOL     OW89386  11.389   6.170   7.120 -0.0824  0.2254  0.4245
28234SOL    HW189387  11.402   6.257   7.083 -0.2320  0.0129 -0.1477
28234SOL    HW289388  11.365   6.116   7.045 -2.2571  0.1678  1.0775
28235SOL     OW89389   1.808   3.852   6.801  0.2037 -0.1067 -0.2805
28235SOL    HW189390   1.784   3.761   6.819  0.9301 -0.2229  0.1351
28235SOL    HW289391   1.745   3.903   6.851  0.2736 -0.3925  0.1058
28236SOL     OW89392   9.077   3.713   3.612  0.2715 -0.1345 -0.5135
28236SOL    HW189393   9.014   3.659   3.660  0.7591  0.7412  1.1491
28236SOL    HW289394   9.081   3.795   3.660 -1.3538  1.9756 -3.6413
28237SOL     OW89395  11.505  10.434   0.666 -0.1743  0.2987 -0.2125
28237SOL    HW189396  11.600  10.436   0.656 -0.1920 -0.0962 -0.4914
28237SOL    HW289397  11.489  10.378   0.741 -0.2358 -0.8137 -1.0320
28238SOL     OW89398   4.847   1.039   2.251  0.4323 -0.2848 -0.4399
28238SOL    HW189399   4.816   1.081   2.170 -2.1959 -1.8937 -0.4117
28238SOL    HW289400   4.857   1.110   2.313 -3.0217  0.5514 -0.6306
28239SOL     OW89401   4.439   1.438   0.455  0.1429  0.0386 -0.2625
28239SOL    HW189402   4.351   1.455   0.489  0.6716  0.8248  0.7977
28239SOL    HW289403   4.458   1.513   0.399 -0.2262 -0.6151 -1.2774
28240SOL     OW89404  10.266  11.991   3.368 -0.3140  0.2509  0.2653
28240SOL    HW189405  10.293  11.902   3.392  0.0006  0.7876  2.0433
28240SOL    HW289406  10.249  11.986   3.274  1.7858 -1.1639 -0.1078
28241SOL     OW89407   5.980   1.422   4.028  0.0883  0.3475  0.0231
28241SOL    HW189408   5.984   1.337   3.984 -1.3504  0.5763 -0.5833
28241SOL    HW289409   6.056   1.469   3.993  0.9405 -0.6785  0.4066
28242SOL     OW89410   8.123   7.225   0.014 -0.5176  0.0612 -0.7621
28242SOL    HW189411   8.179   7.166  -0.035  0.7304  0.2387  0.4099
28242SOL    HW289412   8.182   7.271   0.074 -1.7787  0.9056 -0.1171
28243SOL     OW89413   7.204   1.506   4.649 -0.2338 -0.2069 -0.3822
28243SOL    HW189414   7.148   1.583   4.648  0.1405  0.1501  1.7654
28243SOL    HW289415   7.191   1.466   4.563 -1.2511  1.6409 -1.1433
28244SOL     OW89416   1.050  10.768  11.631  0.8431 -0.3079  0.6111
28244SOL    HW189417   0.988  10.796  11.563  0.5411  1.3133  1.4913
28244SOL    HW289418   1.104  10.845  11.646  0.3311 -0.3124  2.8052
28245SOL     OW89419   8.550   8.437  11.265 -0.1185 -0.2078 -0.7016
28245SOL    HW189420   8.556   8.508  11.329 -0.8793 -1.0838  0.3802
28245SOL    HW289421   8.561   8.357  11.317 -1.1727 -0.9673 -1.5901
28246SOL     OW89422   1.520   6.922   6.736  0.4175  0.2683 -0.3397
28246SOL    HW189423   1.596   6.865   6.750 -0.6921 -1.0069  0.9104
28246SOL    HW289424   1.453   6.863   6.700 -0.4668  1.0160  0.0461
28247SOL     OW89425   6.151   5.617   5.351  0.0473  0.0164 -0.2622
28247SOL    HW189426   6.076   5.616   5.291  0.2340 -2.1231 -0.5333
28247SOL    HW289427   6.129   5.552   5.418  0.2483  1.7162  1.5389
28248SOL     OW89428   4.550   4.814   8.324  0.0361 -0.4907  0.4658
28248SOL    HW189429   4.532   4.907   8.327 -0.6174 -0.6333  2.4595
28248SOL    HW289430   4.632   4.803   8.373  0.8274 -0.8501 -0.8759
28249SOL     OW89431   3.162   9.831   9.653 -0.4057  0.6003  0.0359
28249SOL    HW189432   3.151   9.736   9.663 -1.7661  0.4689 -2.0826
28249SOL    HW289433   3.221   9.856   9.724  0.8780 -1.9951 -0.0063
28250SOL     OW89434   4.333  11.011   7.658 -0.2724  0.0596 -0.2108
28250SOL    HW189435   4.355  10.950   7.589  0.0872 -1.0406  0.8455
28250SOL    HW289436   4.413  11.019   7.710 -0.4169  1.1677 -0.1207
28251SOL     OW89437   8.743   3.781   1.273 -0.2110  0.1497  0.3858
28251SOL    HW189438   8.677   3.788   1.342  0.3224  1.2337  0.8199
28251SOL    HW289439   8.731   3.860   1.221 -1.0316 -0.9641 -1.1924
28252SOL     OW89440   4.327   9.624   1.946 -0.3606 -0.1980 -0.1211
28252SOL    HW189441   4.403   9.631   2.005 -0.6433 -0.2080  0.2501
28252SOL    HW289442   4.315   9.530   1.935 -1.1131 -0.2330  0.8729
28253SOL     OW89443   2.461  11.913   0.404 -0.0751  0.0178  0.7213
28253SOL    HW189444   2.478  11.936   0.496 -0.7125  2.9242  0.2341
28253SOL    HW289445   2.368  11.932   0.392  0.7281  3.5823 -1.3761
28254SOL     OW89446   7.139  11.601   9.736 -0.7731 -0.0646  0.2672
28254SOL    HW189447   7.145  11.665   9.665 -1.5129  0.1312  0.3717
28254SOL    HW289448   7.230  11.581   9.758 -0.4540 -1.9276 -2.3385
28255SOL     OW89449   5.352   3.724   2.920  0.0142  0.2498 -0.3381
28255SOL    HW189450   5.264   3.690   2.903 -0.1969  0.1333  0.8951
28255SOL    HW289451   5.352   3.811   2.881 -0.4231 -0.0061 -0.9279
28256SOL     OW89452   7.314   7.176   3.838  0.3224  0.3741 -0.3382
28256SOL    HW189453   7.280   7.258   3.874  1.6177  0.5487  0.5831
28256SOL    HW289454   7.391   7.202   3.787  1.7937 -0.3579  1.3721
28257SOL     OW89455   8.852   9.940   5.989 -0.0837  0.5736 -0.0686
28257SOL    HW189456   8.881   9.964   5.901  0.4968 -0.5087 -0.1861
28257SOL    HW289457   8.933   9.939   6.041 -0.2169 -0.2864  0.1248
28258SOL     OW89458   3.300   3.269   1.354  0.4828  1.0768  0.0562
28258SOL    HW189459   3.219   3.246   1.309  0.9875 -0.6892 -0.0108
28258SOL    HW289460   3.274   3.335   1.418 -0.4822  2.7091 -1.9042
28259SOL     OW89461  11.481   1.141  11.042 -0.5455 -0.1640 -0.1251
28259SOL    HW189462  11.460   1.050  11.064 -0.6407  0.4724  2.7228
28259SOL    HW289463  11.576   1.144  11.038 -0.5448 -0.4022 -0.3432
28260SOL     OW89464  11.716   7.396  10.657  0.8220 -0.5822 -0.5148
28260SOL    HW189465  11.781   7.426  10.720  1.1268  0.3623 -1.2607
28260SOL    HW289466  11.752   7.313  10.623  1.5114 -0.2010 -0.7314
28261SOL     OW89467   9.842   9.297   5.721  0.1093  0.7670  0.0333
28261SOL    HW189468   9.826   9.390   5.739  2.3508  1.4348 -1.0385
28261SOL    HW289469   9.936   9.286   5.734  0.0746 -1.0830 -0.9779
28262SOL     OW89470   4.091   4.348   1.167  0.1001  0.0668  0.3347
28262SOL    HW189471   4.040   4.411   1.219 -1.1807  0.8079 -1.6965
28262SOL    HW289472   4.065   4.263   1.200  0.7073  0.5100  2.0978
28263SOL     OW89473   9.856   3.871   4.940  0.3850  0.0224 -0.0029
28263SOL    HW189474   9.775   3.899   4.981  0.4573 -1.5640  1.3048
28263SOL    HW289475   9.923   3.886   5.007  0.9058 -0.2308 -0.4614
28264SOL     OW89476   2.767   5.284   9.384  0.2008  0.0238  0.0088
28264SOL    HW189477   2.677   5.253   9.389  0.3628 -0.5277 -0.4551
28264SOL    HW289478   2.783   5.295   9.290 -0.1417  2.3828  0.1661
28265SOL     OW89479   5.967   7.839   0.717  0.3541  0.2101  0.2121
28265SOL    HW189480   5.954   7.846   0.812  1.8343  0.5373  0.4187
28265SOL    HW289481   5.907   7.904   0.680  0.0041  0.3165  0.9403
28266SOL     OW89482   3.569   4.799   3.005 -0.3100 -0.4768  0.3907
28266SOL    HW189483   3.564   4.705   3.022 -0.9843 -0.4334  0.4821
28266SOL    HW289484   3.480   4.831   3.021  0.0067  0.2487  0.7816
28267SOL     OW89485   7.661   4.358   7.656  0.4949  0.5362 -0.3497
28267SOL    HW189486   7.692   4.321   7.738  1.3489 -0.4633 -1.0983
28267SOL    HW289487   7.703   4.444   7.651 -0.0318  0.8578  0.5251
28268SOL     OW89488   2.468   2.380   7.012  0.0849  0.3866  0.3014
28268SOL    HW189489   2.416   2.322   6.956 -2.5495 -0.8218  3.6107
28268SOL    HW289490   2.429   2.467   6.999 -0.4047  0.1532  0.1857
28269SOL     OW89491   6.504   2.135   9.822  0.0842 -0.2249  0.2848
28269SOL    HW189492   6.424   2.187   9.814 -0.7057 -1.3084  0.8285
28269SOL    HW289493   6.573   2.191   9.788 -1.0181  0.4482 -0.9019
28270SOL     OW89494  10.208  10.496   7.837  0.2106 -0.1797  0.4598
28270SOL    HW189495  10.142  10.438   7.875 -0.2187 -0.0756 -0.1104
28270SOL    HW289496  10.187  10.498   7.744  0.7306  0.2383  0.3460
28271SOL     OW89497   2.345   2.904   9.608  0.2274  0.1741 -0.1399
28271SOL    HW189498   2.423   2.959   9.607 -0.6286  1.4442 -0.8241
28271SOL    HW289499   2.311   2.912   9.698  1.9237 -2.0086  0.7761
28272SOL     OW89500   8.388   7.745   1.393 -0.7009 -0.1849  0.3183
28272SOL    HW189501   8.390   7.691   1.314  1.7160 -0.6852  0.6554
28272SOL    HW289502   8.297   7.774   1.399 -0.9530 -0.0236 -2.6996
28273SOL     OW89503   4.165  10.184   1.270  0.0947 -0.0619  0.1235
28273SOL    HW189504   4.230  10.137   1.217  0.7788 -0.3508  1.1802
28273SOL    HW289505   4.100  10.117   1.294  0.7444 -0.3625  1.1191
28274SOL     OW89506   0.159   0.692   7.267  0.0020 -0.5031  0.3092
28274SOL    HW189507   0.104   0.667   7.192  0.2115 -0.9062  0.2939
28274SOL    HW289508   0.153   0.788   7.268 -0.4402 -0.5215  0.1075
28275SOL     OW89509   7.239   4.287   9.402  0.1417 -0.5765  0.7273
28275SOL    HW189510   7.228   4.336   9.320 -1.1865 -3.2056 -0.7799
28275SOL    HW289511   7.214   4.350   9.470 -0.1766  1.2339 -0.9599
28276SOL     OW89512   8.720   8.015   8.285  0.8853 -0.0977  0.5902
28276SOL    HW189513   8.784   8.069   8.239 -1.4796  1.8306 -0.7239
28276SOL    HW289514   8.713   8.054   8.372  0.7846  0.3815  0.3767
28277SOL     OW89515   4.639   0.475   9.991  0.9806 -0.3161  0.1002
28277SOL    HW189516   4.575   0.442   9.927  1.9567 -2.3123  0.0859
28277SOL    HW289517   4.662   0.562   9.958 -0.1318 -0.4189 -1.0633
28278SOL     OW89518   2.749   5.908  10.934 -0.1162 -0.6347 -0.1897
28278SOL    HW189519   2.752   5.856  10.854 -1.6145 -0.8963 -0.1031
28278SOL    HW289520   2.756   5.844  11.005  0.1676 -0.5038 -0.0984
28279SOL     OW89521   8.108   9.405   4.483  0.0432  0.1207  0.2900
28279SOL    HW189522   8.163   9.331   4.512  1.4894  2.0101  2.7510
28279SOL    HW289523   8.112   9.401   4.387  1.4318 -1.9875  0.3486
28280SOL     OW89524   8.120   2.640   2.754 -0.2320  0.3397  0.3437
28280SOL    HW189525   8.181   2.633   2.680 -1.0820 -0.1434 -0.3141
28280SOL    HW289526   8.074   2.557   2.756 -0.7657  0.6431  0.9413
28281SOL     OW89527  10.341   9.106  10.524  0.0451  0.0607 -0.0266
28281SOL    HW189528  10.284   9.109  10.448  0.2315  0.8817 -0.1498
28281SOL    HW289529  10.427   9.135  10.491 -0.2828  2.2200  0.8113
28282SOL     OW89530   3.554   7.041  11.972 -0.2814  0.1088  0.3431
28282SOL    HW189531   3.474   7.056  12.022 -0.0980 -1.1956  1.0756
28282SOL    HW289532   3.549   6.948  11.947  1.2090 -0.1132  0.8044
28283SOL     OW89533  11.103   0.167   5.458 -0.9167  0.2140  0.2256
28283SOL    HW189534  11.184   0.162   5.407 -0.7239 -1.7022  0.6533
28283SOL    HW289535  11.097   0.259   5.483  1.4691  0.3031  0.7019
28284SOL     OW89536   1.627   9.833   7.662  0.2856  0.0048  0.2412
28284SOL    HW189537   1.661   9.747   7.639 -0.2535 -0.3604  0.7761
28284SOL    HW289538   1.704   9.882   7.691  0.9764  0.4493 -2.1368
28285SOL     OW89539   0.462   1.457   3.491  0.3137 -0.3444  0.2233
28285SOL    HW189540   0.372   1.478   3.465  0.3390 -1.7345 -1.1403
28285SOL    HW289541   0.488   1.530   3.547 -1.2312  0.7215 -0.3595
28286SOL     OW89542   2.347   1.987   4.525  0.0027 -0.3094 -0.0620
28286SOL    HW189543   2.384   1.928   4.591 -0.0032 -0.0124  0.2106
28286SOL    HW289544   2.285   2.042   4.574  1.3920  1.2105  0.0751
28287SOL     OW89545   1.517   4.007  11.268  0.4804  0.4281 -0.5264
28287SOL    HW189546   1.422   4.021  11.260  0.2399  0.2652  1.5790
28287SOL    HW289547   1.528   3.913  11.256 -0.0457 -0.0372  2.0338
28288SOL     OW89548  11.523  11.737   3.178 -0.0571  0.2406  0.8852
28288SOL    HW189549  11.450  11.752   3.118  0.3335  3.4665  0.9900
28288SOL    HW289550  11.600  11.733   3.120  0.2145  2.4559  0.9846
28289SOL     OW89551   3.252   2.544   5.825  0.3958  0.1296 -0.4504
28289SOL    HW189552   3.184   2.519   5.888  1.2716  0.4486  0.6576
28289SOL    HW289553   3.228   2.632   5.798 -0.6143 -0.4323 -1.4666
28290SOL     OW89554   9.444   3.768   3.446  0.7146 -0.2474  0.1147
28290SOL    HW189555   9.434   3.781   3.352  0.0501  0.6660  0.2937
28290SOL    HW289556   9.357   3.741   3.475  0.6899  0.3344  0.5936
28291SOL     OW89557   2.330   0.629   8.002  0.5515  0.8261  0.2680
28291SOL    HW189558   2.257   0.668   8.049 -0.3635 -0.2629 -0.2088
28291SOL    HW289559   2.391   0.603   8.071 -0.3384  0.1157  0.8146
28292SOL     OW89560   4.752   9.069   7.327  0.5425 -0.1906  0.1844
28292SOL    HW189561   4.743   9.003   7.396 -1.5006  1.5256  1.7491
28292SOL    HW289562   4.831   9.117   7.350  0.4612 -0.3154  0.7530
28293SOL     OW89563   0.381   4.996   6.028 -0.0536  0.2798  0.1410
28293SOL    HW189564   0.378   4.962   6.117 -0.3340  4.4154  1.9288
28293SOL    HW289565   0.296   5.038   6.016  0.8955  1.9673 -1.0582
28294SOL     OW89566   7.422   4.560   4.089 -0.7838 -0.3298 -0.4850
28294SOL    HW189567   7.391   4.609   4.165 -2.2563 -1.5945 -0.2224
28294SOL    HW289568   7.511   4.593   4.074 -0.9153  0.8224  1.0001
28295SOL     OW89569   0.941   5.507   3.813 -0.0613  0.1663 -0.2066
28295SOL    HW189570   0.928   5.412   3.813 -1.2450  0.2987  0.8814
28295SOL    HW289571   0.879   5.540   3.879  0.4233  1.6817 -0.4633
28296SOL     OW89572   9.181   9.475  10.871 -0.1720  0.3820  0.5565
28296SOL    HW189573   9.193   9.436  10.958  0.3014  2.0447  1.2779
28296SOL    HW289574   9.261   9.455  10.824  0.7205  1.7025  1.4407
28297SOL     OW89575   4.248  10.217   2.780  0.1006 -0.3602  0.0049
28297SOL    HW189576   4.260  10.249   2.691 -0.2624  0.1961  0.1487
28297SOL    HW289577   4.279  10.288   2.836  0.9084 -0.9487  0.3263
28298SOL     OW89578   4.958   3.176   7.676 -0.4843  0.1266 -0.6466
28298SOL    HW189579   5.031   3.123   7.708  0.2679  0.5210 -1.6606
28298SOL    HW289580   4.992   3.265   7.674 -1.4175  0.5178  0.0810
28299SOL     OW89581   5.189  11.041   6.002 -0.0507 -0.1132 -0.1900
28299SOL    HW189582   5.180  11.028   6.096 -0.3810 -0.9604 -0.3290
28299SOL    HW289583   5.104  11.017   5.966 -0.0243  0.5050 -0.6838
28300SOL     OW89584   9.211   1.161   1.355 -0.4497  0.2546 -0.1891
28300SOL    HW189585   9.163   1.202   1.427  1.5051 -0.1633  1.4159
28300SOL    HW289586   9.199   1.067   1.369  1.6900  0.0975  0.9197
28301SOL     OW89587   2.866   0.127   5.975  0.1515  0.0064  0.4226
28301SOL    HW189588   2.781   0.097   6.009  0.4760 -0.3564  0.9264
28301SOL    HW289589   2.850   0.145   5.883 -0.3848 -0.4101  0.4309
28302SOL     OW89590   9.332   8.543  11.175 -0.3478 -0.4947  0.0835
28302SOL    HW189591   9.271   8.494  11.230 -0.4999 -0.7996 -0.3525
28302SOL    HW289592   9.402   8.570  11.235  0.0408 -1.7432  0.2272
28303SOL     OW89593   3.280   7.126  11.677 -0.0600 -0.3141  0.4794
28303SOL    HW189594   3.216   7.061  11.646  0.1887 -0.0525 -0.6437
28303SOL    HW289595   3.360   7.075  11.690 -1.0624 -1.1841  4.4767
28304SOL     OW89596  11.484   4.726   5.336 -0.2241 -0.5802  0.0596
28304SOL    HW189597  11.460   4.698   5.424 -2.1802 -1.2944 -0.6414
28304SOL    HW289598  11.400   4.741   5.292  0.6393 -1.9459 -2.2138
28305SOL     OW89599   8.778   4.540   1.737 -0.5275 -0.6852  0.2985
28305SOL    HW189600   8.741   4.576   1.657 -2.1271  0.9817  1.7201
28305SOL    HW289601   8.716   4.472   1.764  0.1625 -1.4542  0.0088
28306SOL     OW89602  10.538   7.450   5.537 -0.1993 -0.2028 -0.0663
28306SOL    HW189603  10.503   7.471   5.624 -0.0895 -1.1382  0.2115
28306SOL    HW289604  10.628   7.422   5.554  0.1453  0.5498 -0.5974
28307SOL     OW89605   3.516   4.496   7.060  0.1232 -0.0050  0.2971
28307SOL    HW189606   3.510   4.401   7.066  1.4720 -0.0964  0.6058
28307SOL    HW289607   3.566   4.522   7.138  1.5181  0.7320 -0.7863
28308SOL     OW89608   1.277   4.445   8.944 -0.3214 -0.0862  0.3204
28308SOL    HW189609   1.231   4.496   8.877 -1.1154 -0.4481  0.5911
28308SOL    HW289610   1.338   4.390   8.894 -0.4791  0.0812 -0.0615
28309SOL     OW89611   7.454   0.534   6.723 -0.4380  0.3446  0.1407
28309SOL    HW189612   7.374   0.565   6.764  0.3591 -1.2556  3.2774
28309SOL    HW289613   7.425   0.478   6.651 -2.1635 -0.2878  1.2803
28310SOL     OW89614   9.200   4.130   3.575  0.5347  0.4648 -0.6645
28310SOL    HW189615   9.156   4.131   3.490  1.8448 -0.4043 -1.3827
28310SOL    HW289616   9.149   4.069   3.628  0.4429  0.0275 -1.2502
28311SOL     OW89617   9.741   3.956  10.261 -0.1099 -0.1930 -0.3594
28311SOL    HW189618   9.738   4.051  10.247  0.3771  0.1200  1.4424
28311SOL    HW289619   9.678   3.940  10.331 -0.8104 -1.3384 -1.2250
28312SOL     OW89620  10.105   4.884   2.984  0.2977 -0.2027 -0.1412
28312SOL    HW189621  10.153   4.807   3.012 -0.8340 -0.5563  0.9386
28312SOL    HW289622  10.113   4.885   2.888  0.8001 -1.3238 -0.1194
28313SOL     OW89623   5.316   2.707   8.306 -0.4367 -0.2182 -0.1990
28313SOL    HW189624   5.313   2.620   8.266  0.2053 -0.6017  0.5633
28313SOL    HW289625   5.298   2.767   8.234  0.7595 -0.8789 -1.0860
28314SOL     OW89626   8.005  11.779   9.383  0.3568  0.2166 -0.3912
28314SOL    HW189627   7.952  11.717   9.432  1.9809 -0.6096  0.4164
28314SOL    HW289628   7.979  11.865   9.416 -2.4716  0.1199 -2.0616
28315SOL     OW89629  10.057  11.046  10.586 -0.6058 -0.0697  0.0704
28315SOL    HW189630  10.006  10.965  10.593  0.5042 -0.7174  0.9298
28315SOL    HW289631  10.018  11.092  10.512 -3.0788 -0.0591  1.2852
28316SOL     OW89632   6.153   3.081   8.618 -0.0771  0.0010  0.6870
28316SOL    HW189633   6.115   3.047   8.536 -0.1851  1.1369  0.2421
28316SOL    HW289634   6.122   3.171   8.622 -0.1774 -0.0837  2.0658
28317SOL     OW89635   6.171   3.776   6.000  0.2832  0.0546  0.6005
28317SOL    HW189636   6.142   3.693   5.963 -0.4183  1.5807 -2.5744
28317SOL    HW289637   6.126   3.782   6.085 -0.7229 -2.1482  0.2814
28318SOL     OW89638  11.558  10.347   5.252  0.5090  0.1561  0.0654
28318SOL    HW189639  11.517  10.427   5.284  0.7352  1.1481 -1.9964
28318SOL    HW289640  11.565  10.359   5.157  2.8692 -1.2176 -0.0143
28319SOL     OW89641   8.537   1.435   2.467 -0.0921 -0.4543 -0.0392
28319SOL    HW189642   8.603   1.408   2.403 -0.0419 -2.4215  0.7614
28319SOL    HW289643   8.530   1.530   2.457  1.5967 -0.4309 -1.3348
28320SOL     OW89644   8.337   4.840  10.293 -0.2341  0.3195  0.3335
28320SOL    HW189645   8.257   4.867  10.248 -0.5140 -0.1023  0.5825
28320SOL    HW289646   8.308   4.788  10.367  0.2989 -1.9598 -0.9383
28321SOL     OW89647  11.995   3.546   2.956  0.3822  0.3065 -0.1219
28321SOL    HW189648  12.018   3.488   3.029 -0.4993  0.0578 -0.0244
28321SOL    HW289649  12.076   3.556   2.907  0.9255  0.2568  0.7384
28322SOL     OW89650   3.073   1.138   0.494  0.0970  0.3070  0.1853
28322SOL    HW189651   3.014   1.188   0.436 -0.0566  0.9860  0.9037
28322SOL    HW289652   3.156   1.186   0.490  0.0788  0.3674  0.5414
28323SOL     OW89653   2.829   8.418   3.646 -0.6518  0.5515 -0.8611
28323SOL    HW189654   2.884   8.487   3.609  0.4701  1.9990  3.0855
28323SOL    HW289655   2.776   8.462   3.713 -2.1196 -1.9405 -0.2554
28324SOL     OW89656   0.098   5.419   3.190  0.5870 -0.1951 -0.1369
28324SOL    HW189657   0.025   5.357   3.186  0.1778  0.3312 -1.7503
28324SOL    HW289658   0.056   5.505   3.193  1.1531  0.0633  1.0838
28325SOL     OW89659   3.606  10.985   7.116 -0.0287 -0.5841 -0.8115
28325SOL    HW189660   3.569  11.000   7.029  0.4380 -0.0028 -0.9185
28325SOL    HW289661   3.583  11.064   7.165 -0.2034 -0.8679 -0.4344
28326SOL     OW89662   9.048  10.306   9.906 -0.0214 -0.1300  0.6089
28326SOL    HW189663   9.030  10.358   9.984 -0.4856 -1.4797  1.4193
28326SOL    HW289664   9.009  10.356   9.834 -1.0112  0.3285  1.4481
28327SOL     OW89665   0.872   6.472   9.878 -0.1856 -0.2554 -0.0442
28327SOL    HW189666   0.782   6.462   9.909 -0.5541  0.6649 -0.7721
28327SOL    HW289667   0.918   6.396   9.913 -0.9523 -0.1008  1.3760
28328SOL     OW89668   0.613   8.333   8.030  0.5297 -0.2244 -0.3433
28328SOL    HW189669   0.601   8.260   7.969  1.3181 -0.9414  0.3257
28328SOL    HW289670   0.703   8.324   8.060  0.2330  0.2495  0.7487
28329SOL     OW89671   8.720   8.078  10.691 -0.3814  0.0415  0.1822
28329SOL    HW189672   8.701   8.083  10.785  1.4781  1.3586  0.5645
28329SOL    HW289673   8.763   8.162  10.672  0.2999 -0.6690 -1.5870
28330SOL     OW89674   8.029   8.437  11.239 -0.0688  0.3747  0.0379
28330SOL    HW189675   8.055   8.359  11.287  0.1537 -1.6957 -3.1867
28330SOL    HW289676   8.097   8.502  11.258  1.5457 -1.3237  0.2533
28331SOL     OW89677   9.195   6.678   1.055 -0.5896 -0.4745  0.1349
28331SOL    HW189678   9.258   6.618   1.093 -0.3288 -1.4386 -1.7005
28331SOL    HW289679   9.156   6.630   0.982 -0.4837  1.5099 -1.3298
28332SOL     OW89680   1.248   2.369   6.489 -0.1700  0.2112 -0.7589
28332SOL    HW189681   1.331   2.388   6.531  0.0827  0.3758 -1.3270
28332SOL    HW289682   1.266   2.374   6.395 -0.7319 -0.1119 -0.8946
28333SOL     OW89683   1.880   3.702   6.358 -0.2792  0.0129 -0.7825
28333SOL    HW189684   1.785   3.711   6.358 -0.4265 -1.1978 -0.2309
28333SOL    HW289685   1.899   3.638   6.289 -0.1498 -1.7146  0.7643
28334SOL     OW89686  11.661   5.544   4.350  0.4907  0.1629  0.3315
28334SOL    HW189687  11.660   5.449   4.337 -0.7094 -0.0087  1.5069
28334SOL    HW289688  11.752   5.564   4.372  0.4636 -0.9554  1.5902
28335SOL     OW89689  11.171  10.376  10.851 -0.3356  0.0972 -0.3429
28335SOL    HW189690  11.189  10.343  10.763 -2.5773 -0.3317 -0.7058
28335SOL    HW289691  11.257  10.393  10.888  0.6741  1.9873 -3.2302
28336SOL     OW89692   7.234   1.210   2.670  0.2093 -0.2850 -0.2233
28336SOL    HW189693   7.324   1.177   2.674 -0.2058 -1.4378  0.0430
28336SOL    HW289694   7.239   1.286   2.612  1.2325 -0.7482 -0.7676
28337SOL     OW89695  11.807   0.318   6.669  0.6131 -0.5488 -0.7040
28337SOL    HW189696  11.849   0.254   6.612  0.5539 -0.3561 -0.9650
28337SOL    HW289697  11.731   0.273   6.705 -0.8179  0.1005 -2.7309
28338SOL     OW89698   7.407   4.568   9.271 -0.4975 -0.1275  0.0493
28338SOL    HW189699   7.481   4.519   9.306 -1.6224 -1.4876  0.6023
28338SOL    HW289700   7.345   4.572   9.343 -1.0109  0.9432 -0.4279
28339SOL     OW89701   1.012   3.441   7.940  1.0766 -0.3355  0.4307
28339SOL    HW189702   0.922   3.420   7.963  0.8566  2.0741  2.2047
28339SOL    HW289703   1.051   3.358   7.913 -1.5889 -1.4650 -0.1928
28340SOL     OW89704   8.933   4.900   3.381 -0.2344  0.1844 -0.0141
28340SOL    HW189705   8.994   4.907   3.308  0.0104  1.0259  0.2620
28340SOL    HW289706   8.847   4.887   3.340 -0.1089  0.7199 -0.4619
28341SOL     OW89707   5.865   7.087   0.371 -0.5043 -0.5628 -0.5944
28341SOL    HW189708   5.826   7.171   0.346 -0.8916 -0.8135 -0.8626
28341SOL    HW289709   5.896   7.049   0.288 -0.1034 -0.5719 -0.4425
28342SOL     OW89710   4.996   0.610   8.872 -0.3358  0.1693 -0.2327
28342SOL    HW189711   5.031   0.593   8.785 -0.2509  1.0097 -0.3742
28342SOL    HW289712   5.071   0.638   8.924 -0.4235 -0.1149  0.0563
28343SOL     OW89713   3.206   8.109   0.514  0.5954  0.1704 -0.3487
28343SOL    HW189714   3.291   8.150   0.529 -0.4140  2.1922  0.2254
28343SOL    HW289715   3.162   8.111   0.600  0.3606 -1.9157 -0.3572
28344SOL     OW89716   2.438   9.342   8.656 -0.2042  0.1250 -0.4415
28344SOL    HW189717   2.528   9.312   8.668 -0.2218 -0.1290 -0.9082
28344SOL    HW289718   2.390   9.264   8.628 -0.8620 -0.0431  1.1050
28345SOL     OW89719   8.722   1.925   8.776 -0.7106  0.3547  0.2083
28345SOL    HW189720   8.744   1.953   8.864 -0.6442 -1.5562  0.8583
28345SOL    HW289721   8.680   1.839   8.788 -1.8189  0.6042 -1.5314
28346SOL     OW89722  10.755   4.344   6.047  0.8693  0.4653  0.1287
28346SOL    HW189723  10.728   4.407   5.980 -0.6341  1.3374  1.4936
28346SOL    HW289724  10.683   4.343   6.110  1.0840 -2.2513  0.4480
28347SOL     OW89725  11.858   3.237   1.615  1.0910  0.1685 -0.4776
28347SOL    HW189726  11.844   3.254   1.708  0.0316  0.6438 -0.7010
28347SOL    HW289727  11.930   3.174   1.612 -0.8429 -2.3226  0.8607
28348SOL     OW89728   1.161  10.233   9.980  0.3028 -0.1069 -0.3109
28348SOL    HW189729   1.222  10.291  10.025 -0.6216  0.6152  0.0451
28348SOL    HW289730   1.131  10.172  10.048 -0.5958  0.5707 -0.0788
28349SOL     OW89731   3.613   8.414   3.330  0.5629 -0.3543 -0.1797
28349SOL    HW189732   3.553   8.410   3.256  2.6576 -2.2131 -1.9096
28349SOL    HW289733   3.597   8.333   3.379  0.5793 -0.0931  0.2670
28350SOL     OW89734   3.297  11.553   8.673 -0.3379  0.2384 -0.4686
28350SOL    HW189735   3.300  11.472   8.622 -0.5501  0.9608 -1.6637
28350SOL    HW289736   3.367  11.543   8.738  0.1622 -0.5683 -1.1082
28351SOL     OW89737   5.395   5.778  10.192  0.2371 -0.0627  0.5472
28351SOL    HW189738   5.425   5.713  10.129  0.0033  0.0325  0.3383
28351SOL    HW289739   5.449   5.762  10.270  0.5590 -0.1487  0.3109
28352SOL     OW89740   6.523   2.774   9.291 -0.2966 -0.1096  0.5187
28352SOL    HW189741   6.514   2.703   9.227  1.1037  0.4877 -0.3804
28352SOL    HW289742   6.451   2.759   9.352 -1.6482 -0.7388 -1.1312
28353SOL     OW89743   4.037  10.691  10.919 -0.8802  0.1429 -0.5361
28353SOL    HW189744   4.071  10.622  10.862 -0.8972  0.5065 -0.9879
28353SOL    HW289745   3.944  10.697  10.895 -0.9043  0.2443 -0.4147
28354SOL     OW89746   0.756   3.310   3.401  0.3037  0.3588 -0.7236
28354SOL    HW189747   0.807   3.292   3.480 -0.7083  0.2811 -0.0702
28354SOL    HW289748   0.714   3.226   3.380 -2.2744  1.1825  0.7638
28355SOL     OW89749   1.709   6.646   7.484  0.4243  0.4672  0.0953
28355SOL    HW189750   1.677   6.590   7.555  3.9916  0.3274  1.7583
28355SOL    HW289751   1.725   6.585   7.411  0.0842  0.0470  0.3642
28356SOL     OW89752   6.813   1.533   6.838  0.1155 -0.6421 -0.2394
28356SOL    HW189753   6.754   1.488   6.778  0.7140 -0.7861 -0.7388
28356SOL    HW289754   6.770   1.527   6.923 -0.0478 -1.7577 -0.3787
28357SOL     OW89755   6.473   2.515   1.492 -0.1029  0.1529 -0.0437
28357SOL    HW189756   6.483   2.503   1.398  1.1078  1.4249 -0.1034
28357SOL    HW289757   6.409   2.585   1.501 -1.8657 -1.3857  0.1747
28358SOL     OW89758   1.796   2.415   9.022 -0.0509  0.2645 -0.2772
28358SOL    HW189759   1.745   2.337   9.043 -0.9717  1.5662  2.8380
28358SOL    HW289760   1.733   2.477   8.987 -0.2144  1.0668  1.3708
28359SOL     OW89761   9.799  10.346   7.539  0.1657 -0.0029 -0.9888
28359SOL    HW189762   9.752  10.403   7.600  1.5276  0.2410 -0.1161
28359SOL    HW289763   9.744  10.344   7.461 -1.8507 -0.6677  0.3704
28360SOL     OW89764   8.050   5.498   0.554  0.3981  0.3820  0.0341
28360SOL    HW189765   8.091   5.549   0.485  0.2679  0.4099 -0.0227
28360SOL    HW289766   7.967   5.469   0.517 -0.6478  2.1344  0.8888
28361SOL     OW89767  10.168  11.316   2.530  0.1374 -0.4530  0.1440
28361SOL    HW189768  10.224  11.243   2.553  1.0828  0.0513 -0.4933
28361SOL    HW289769  10.100  11.278   2.474 -1.2471 -1.3868  2.3232
28362SOL     OW89770  11.995   9.868   5.266 -0.2300  0.2876 -0.3469
28362SOL    HW189771  11.949   9.802   5.214 -0.5350 -0.5995  0.9965
28362SOL    HW289772  11.926   9.908   5.319  0.2518  0.3213  0.2660
28363SOL     OW89773  11.554   9.704  10.984 -0.4145  0.4036  0.3370
28363SOL    HW189774  11.612   9.648  10.932 -0.4820 -0.2728  0.9742
28363SOL    HW289775  11.507   9.756  10.919 -0.4109 -0.3440 -0.2731
28364SOL     OW89776   0.478   3.792  10.567 -0.0054 -0.1854 -0.5710
28364SOL    HW189777   0.405   3.791  10.629 -0.4813 -0.5952 -1.1251
28364SOL    HW289778   0.481   3.882  10.536 -1.1603 -0.4589 -1.5477
28365SOL     OW89779  11.478   2.936   4.641  0.2519  0.1875 -0.5605
28365SOL    HW189780  11.477   3.021   4.596  1.4023  0.2839 -0.4386
28365SOL    HW289781  11.432   2.952   4.724 -0.0461  0.5377 -0.7910
28366SOL     OW89782  11.272   3.549   6.237 -0.9700 -0.6573  0.2451
28366SOL    HW189783  11.268   3.506   6.323  1.4745 -1.1101  0.1966
28366SOL    HW289784  11.287   3.642   6.258 -0.0398 -0.8196  0.3198
28367SOL     OW89785   8.878  11.898   9.002  0.1490  0.1718 -0.7205
28367SOL    HW189786   8.926  11.976   8.976  0.5806  0.0581 -0.2826
28367SOL    HW289787   8.921  11.868   9.082  0.1936 -0.6967 -1.0555
28368SOL     OW89788   2.442   8.347   7.854  0.1616  0.3225 -0.2683
28368SOL    HW189789   2.368   8.291   7.880  0.5407 -1.8798 -3.3772
28368SOL    HW289790   2.503   8.342   7.928 -0.6206 -1.9830  0.3100
28369SOL     OW89791   9.901   7.275  10.057  0.6517 -0.0739 -0.8245
28369SOL    HW189792   9.930   7.263  10.148 -0.8209 -0.6876 -0.4050
28369SOL    HW289793   9.806   7.263  10.061  0.6961 -1.3163 -2.6489
28370SOL     OW89794   4.165  10.723   2.053  0.0089  0.1143  0.1832
28370SOL    HW189795   4.138  10.671   1.977 -0.8623 -0.5584  0.9175
28370SOL    HW289796   4.205  10.802   2.016 -2.0013  0.6580 -1.0280
28371SOL     OW89797   9.975   4.361   2.053 -0.4891  0.1130 -0.1579
28371SOL    HW189798  10.048   4.306   2.084 -0.1265  1.1344  0.8971
28371SOL    HW289799  10.017   4.444   2.030 -1.4443  1.1448  1.6452
28372SOL     OW89800   2.284   1.780  10.683  0.1522  0.3372  0.0883
28372SOL    HW189801   2.330   1.782  10.767 -1.0087 -1.4695  0.8447
28372SOL    HW289802   2.221   1.852  10.689 -0.5608 -0.3385  1.2035
28373SOL     OW89803  10.723   0.271   9.782 -0.1927  0.1664 -0.0894
28373SOL    HW189804  10.794   0.253   9.721 -1.4990 -1.3093 -1.2608
28373SOL    HW289805  10.763   0.265   9.868  1.0604 -0.9386 -0.7101
28374SOL     OW89806   1.165   0.857   1.684 -0.2514  0.1276 -0.3385
28374SOL    HW189807   1.250   0.878   1.722 -0.6907 -0.3903  1.0287
28374SOL    HW289808   1.106   0.852   1.760 -0.9150 -2.2174 -0.9274
28375SOL     OW89809   9.033   3.729  11.659  0.4515  0.6598  0.3758
28375SOL    HW189810   9.013   3.817  11.628 -0.9968  0.1007 -0.3654
28375SOL    HW289811   9.089   3.692  11.591 -1.6113 -0.0898 -1.0076
28376SOL     OW89812   6.563   2.589   8.587  0.0799  0.5178 -0.2935
28376SOL    HW189813   6.615   2.555   8.660 -1.4110  0.3274  0.7417
28376SOL    HW289814   6.560   2.683   8.603 -0.0093  0.5095 -0.2587
28377SOL     OW89815   1.979   5.966   4.277 -0.1260 -0.3138 -0.0779
28377SOL    HW189816   1.939   6.043   4.236 -1.1669 -1.3623 -1.0849
28377SOL    HW289817   1.919   5.942   4.347 -0.3105 -0.8110 -0.4100
28378SOL     OW89818   8.153   3.969  11.396  0.4597  0.5202  0.1043
28378SOL    HW189819   8.083   3.996  11.336  0.0033  0.2212  0.4959
28378SOL    HW289820   8.204   3.906  11.346 -1.1462 -1.3362  0.6893
28379SOL     OW89821   6.564   9.221   8.377  0.0123 -0.3047 -0.4560
28379SOL    HW189822   6.536   9.301   8.333 -1.6379 -1.3251 -1.3680
28379SOL    HW289823   6.483   9.179   8.404  0.9087 -0.6859  1.8935
28380SOL     OW89824   5.507   2.406   7.062  0.2354 -0.2490  0.1447
28380SOL    HW189825   5.468   2.323   7.090  0.1909 -0.7610 -1.3575
28380SOL    HW289826   5.434   2.457   7.030  0.1745  0.6505  1.6239
28381SOL     OW89827   6.077   0.891   6.681  0.1702 -0.1244  0.2883
28381SOL    HW189828   6.144   0.867   6.744  2.1482 -0.9852 -1.9952
28381SOL    HW289829   6.003   0.833   6.702  1.4659 -1.7294  0.6710
28382SOL     OW89830   8.888  11.714   7.711 -1.1292 -0.0940 -0.4697
28382SOL    HW189831   8.794  11.734   7.708 -1.2666 -0.3290  1.2063
28382SOL    HW289832   8.894  11.640   7.772  0.2558  0.7278  0.4438
28383SOL     OW89833   8.742  11.166   9.281  0.7093  0.4811 -0.2770
28383SOL    HW189834   8.755  11.092   9.339 -1.3217 -0.5402 -1.0205
28383SOL    HW289835   8.768  11.134   9.194 -1.7843 -0.0357 -0.9167
28384SOL     OW89836   5.978   1.855   3.768  0.1461  0.6386 -1.1268
28384SOL    HW189837   6.005   1.943   3.794 -0.0659  0.4896 -0.3689
28384SOL    HW289838   6.058   1.803   3.773 -0.1171  0.3366  0.4967
28385SOL     OW89839   2.920  10.668   8.171  0.2392  0.1723  0.0802
28385SOL    HW189840   2.941  10.634   8.258  0.4058 -0.2791 -0.1333
28385SOL    HW289841   3.003  10.703   8.138  0.1997  0.2443  0.0574
28386SOL     OW89842   5.021   0.356   3.882 -0.6381 -0.1467  0.2633
28386SOL    HW189843   5.003   0.444   3.915 -0.4404  0.1436 -0.3965
28386SOL    HW289844   4.950   0.339   3.820  0.0931  0.1210 -0.6754
28387SOL     OW89845  10.367  10.495   1.330 -0.3346 -0.5541  0.1519
28387SOL    HW189846  10.293  10.433   1.326 -1.1800  0.4792 -1.3290
28387SOL    HW289847  10.333  10.574   1.289  0.8255  0.8211  1.7530
28388SOL     OW89848   7.781  11.642   8.807 -0.1841 -0.1897 -0.4769
28388SOL    HW189849   7.780  11.709   8.875 -1.0701 -2.7572  2.2581
28388SOL    HW289850   7.873  11.638   8.779  0.6276 -0.2536  1.9550
28389SOL     OW89851   8.633   7.616   0.810  0.4143 -0.0049  0.3605
28389SOL    HW189852   8.607   7.589   0.722  2.6991 -0.6184 -0.2044
28389SOL    HW289853   8.725   7.640   0.801  0.4947  0.6805  2.4433
28390SOL     OW89854   3.742   0.911   1.568 -0.1377  0.0288 -0.0543
28390SOL    HW189855   3.717   0.958   1.489  2.7336  0.4382 -0.8334
28390SOL    HW289856   3.723   0.819   1.549  1.9399 -0.0982 -1.9732
28391SOL     OW89857   4.522   0.717   3.228 -0.0568 -0.1577 -0.5716
28391SOL    HW189858   4.523   0.779   3.301  0.5725 -1.0992  0.2433
28391SOL    HW289859   4.564   0.764   3.156  1.4391 -0.0135  0.3666
28392SOL     OW89860   1.937   3.748   0.975 -0.1957  0.4410  0.0044
28392SOL    HW189861   2.027   3.721   0.994  0.2410  0.7215 -1.4651
28392SOL    HW289862   1.892   3.668   0.949  0.4458  0.6814 -2.0312
28393SOL     OW89863   7.868  10.291  10.478  0.2502 -0.3362  1.4973
28393SOL    HW189864   7.898  10.364  10.532  0.8524 -1.5234  2.8242
28393SOL    HW289865   7.946  10.239  10.461  0.0371 -0.1447 -0.3630
28394SOL     OW89866  10.441   3.923  10.177 -0.4414  0.2849 -0.4415
28394SOL    HW189867  10.414   3.850  10.121  3.3218 -1.4260 -0.3194
28394SOL    HW289868  10.496   3.977  10.120  3.4452 -1.4686  1.3217
28395SOL     OW89869   5.115  10.141   2.404  0.4882 -0.4292 -0.0983
28395SOL    HW189870   5.031  10.110   2.369  1.1766 -0.6038 -1.7126
28395SOL    HW289871   5.100  10.154   2.497 -1.4355 -0.0781 -0.4277
28396SOL     OW89872   6.759   1.458   2.990  0.2064  0.0073  0.4091
28396SOL    HW189873   6.686   1.397   2.985 -0.9475  1.3442  0.3078
28396SOL    HW289874   6.835   1.408   2.960 -0.8558 -1.1107 -0.5005
28397SOL     OW89875   9.538   8.437   1.633 -0.2692  0.4541 -0.1394
28397SOL    HW189876   9.577   8.469   1.713  0.6833  0.7793 -0.7227
28397SOL    HW289877   9.447   8.468   1.637 -0.6564 -0.7657  1.4716
28398SOL     OW89878   9.802  10.435   6.068 -0.0255 -0.6404 -0.0767
28398SOL    HW189879   9.780  10.485   5.990  0.3377  1.0811  0.8577
28398SOL    HW289880   9.736  10.366   6.072 -1.8408  0.9783 -0.3762
28399SOL     OW89881  11.439   7.880   1.429  0.4787 -0.2718  0.0836
28399SOL    HW189882  11.503   7.812   1.408  0.2340 -0.7459  0.8262
28399SOL    HW289883  11.479   7.961   1.399  0.3097 -0.8469 -1.8431
28400SOL     OW89884   0.353  10.857   5.578  0.4875 -0.0070 -0.0159
28400SOL    HW189885   0.327  10.773   5.539 -1.6357  0.2783  0.6197
28400SOL    HW289886   0.293  10.867   5.653  0.9534  1.8941  0.1458
28401SOL     OW89887   2.772   1.172   3.288  0.2767  0.5269  0.0892
28401SOL    HW189888   2.754   1.101   3.349 -0.3858 -0.0323 -0.7276
28401SOL    HW289889   2.714   1.243   3.316  0.9223  0.7481  0.8927
28402SOL     OW89890   2.573   6.732   5.210  0.0350 -0.0038 -0.2172
28402SOL    HW189891   2.629   6.682   5.151  0.8583 -1.9843  2.0917
28402SOL    HW289892   2.631   6.761   5.281 -1.0557  1.6234  0.0634
28403SOL     OW89893  11.730   0.789   8.090 -0.3082 -0.1764 -0.0272
28403SOL    HW189894  11.651   0.818   8.137 -0.8013  0.1870 -1.0405
28403SOL    HW289895  11.701   0.713   8.039  0.7598 -1.9893  1.9116
28404SOL     OW89896   1.444   2.511  11.795  0.2994 -0.5674 -0.1420
28404SOL    HW189897   1.452   2.433  11.741 -0.7109 -0.8701  0.1283
28404SOL    HW289898   1.359   2.502  11.839 -0.1345  0.9581 -0.5697
28405SOL     OW89899   9.223   0.142   4.795  0.0957 -0.2901 -0.3716
28405SOL    HW189900   9.241   0.048   4.792  0.0580 -0.3656  0.8729
28405SOL    HW289901   9.286   0.181   4.734  0.6927 -1.0562 -0.2683
28406SOL     OW89902   8.121   5.721   1.167  0.0451  0.8140 -0.4133
28406SOL    HW189903   8.166   5.789   1.217  1.1843  0.4428 -0.8914
28406SOL    HW289904   8.073   5.671   1.233 -0.2367  1.6470  0.0285
28407SOL     OW89905  10.370   5.966   9.302 -0.4452  0.2552  0.0940
28407SOL    HW189906  10.348   5.873   9.310  1.6841 -0.1299  3.1527
28407SOL    HW289907  10.462   5.971   9.327 -0.0824  3.0628 -1.3941
28408SOL     OW89908   3.514   5.392   3.478 -0.6370  0.0959 -0.1272
28408SOL    HW189909   3.548   5.481   3.465 -1.6680  0.6278  0.6615
28408SOL    HW289910   3.453   5.379   3.405  0.8781 -0.7033 -1.3080
28409SOL     OW89911   5.065   1.521   9.908 -0.0252  0.2840  0.1240
28409SOL    HW189912   4.970   1.519   9.903  0.0178 -0.1722 -0.5050
28409SOL    HW289913   5.085   1.610   9.939 -0.5665  1.1540 -1.8529
28410SOL     OW89914  11.698   8.574   1.708 -0.0184  0.4772  0.0364
28410SOL    HW189915  11.618   8.528   1.684  0.1826  0.3299 -0.3580
28410SOL    HW289916  11.668   8.643   1.768 -0.6082  1.1874 -1.0396
28411SOL     OW89917   4.135   0.202   5.303  0.4895 -0.1706  0.0144
28411SOL    HW189918   4.149   0.289   5.266 -1.0899  0.6445  1.2336
28411SOL    HW289919   4.060   0.167   5.256  1.1840 -0.9455 -0.5455
28412SOL     OW89920   8.796   3.529   1.353 -0.0848 -0.7985 -0.0694
28412SOL    HW189921   8.800   3.624   1.340  0.3397 -1.0511 -2.0904
28412SOL    HW289922   8.884   3.505   1.381 -0.1508 -0.6118  0.2987
28413SOL     OW89923   0.259   1.262   6.994 -0.3042 -0.2257 -0.2837
28413SOL    HW189924   0.185   1.232   6.942 -1.0371 -0.5311  0.9054
28413SOL    HW289925   0.303   1.182   7.023  0.6328 -0.0505 -1.1329
28414SOL     OW89926   3.703   8.636   8.442 -0.3752  0.0470 -0.4556
28414SOL    HW189927   3.665   8.718   8.411 -0.7407  0.0122 -0.1166
28414SOL    HW289928   3.710   8.581   8.364  0.9120  0.7817 -0.8904
28415SOL     OW89929   0.632  11.068   5.373 -0.5446 -0.5194 -0.3142
28415SOL    HW189930   0.666  11.146   5.329  0.0951 -0.9259 -0.5623
28415SOL    HW289931   0.573  11.028   5.310  0.5915 -1.2573 -0.9378
28416SOL     OW89932   6.258   3.967   1.729  0.0004  0.3429 -0.4067
28416SOL    HW189933   6.328   3.907   1.703 -0.6978 -0.2696 -0.9020
28416SOL    HW289934   6.256   3.961   1.825 -0.6826 -1.1841 -0.4855
28417SOL     OW89935   8.694   1.265   1.070  0.2693  0.1778  0.1074
28417SOL    HW189936   8.671   1.331   1.005 -2.0358 -0.6823 -0.0589
28417SOL    HW289937   8.715   1.187   1.018  0.0411 -0.0425  0.3392
28418SOL     OW89938   8.995   1.918   5.204 -0.5063 -0.3150  0.2921
28418SOL    HW189939   8.978   1.951   5.116  2.0326  0.2072 -0.0703
28418SOL    HW289940   8.909   1.890   5.236 -1.7742  1.0463 -1.6869
28419SOL     OW89941   0.819  10.084   1.004 -0.3565 -0.3754  0.7560
28419SOL    HW189942   0.884  10.038   1.056  0.0724 -0.1666  0.4132
28419SOL    HW289943   0.818  10.173   1.040 -0.9455 -0.5664  1.2051
28420SOL     OW89944   6.493   1.571   6.102  0.0366 -0.1037  0.2623
28420SOL    HW189945   6.453   1.560   6.016  1.5796 -1.5381 -0.3149
28420SOL    HW289946   6.437   1.519   6.161 -0.6075  0.3014  0.0245
28421SOL     OW89947   6.801   2.381  10.343 -0.2412 -0.8031 -0.1410
28421SOL    HW189948   6.873   2.434  10.377 -0.2114 -1.0647  0.2096
28421SOL    HW289949   6.726   2.440  10.342 -0.2626 -0.8119  0.4647
28422SOL     OW89950   9.963   3.918   2.135 -0.2341  0.0153  0.3071
28422SOL    HW189951   9.953   4.006   2.171 -1.8184  0.0461 -0.1362
28422SOL    HW289952   9.979   3.863   2.212 -0.0124  0.5838  0.6747
28423SOL     OW89953   9.149  11.774  11.047  0.1721  0.4507 -0.3689
28423SOL    HW189954   9.178  11.770  10.956  0.6975  0.6702 -0.2144
28423SOL    HW289955   9.087  11.846  11.049  1.2275  1.3911 -0.2731
28424SOL     OW89956   2.928  11.419   6.978  0.6111 -0.0132  0.2679
28424SOL    HW189957   2.835  11.415   7.000  0.5267 -0.5546 -0.1630
28424SOL    HW289958   2.943  11.343   6.922  1.4782 -0.3525  0.9287
28425SOL     OW89959   6.549   8.442   6.178 -0.1612  0.7887  0.0159
28425SOL    HW189960   6.636   8.477   6.159  0.2863 -0.5160 -0.4459
28425SOL    HW289961   6.561   8.347   6.180 -1.7770  0.5273 -1.1098
28426SOL     OW89962   2.391  10.269   2.980 -0.1173 -0.5974 -0.0867
28426SOL    HW189963   2.331  10.302   2.912 -0.7441  1.0163  1.1794
28426SOL    HW289964   2.461  10.227   2.931 -0.3803  0.7792 -1.7755
28427SOL     OW89965   5.430  10.203   4.155 -0.1488 -0.0409  0.5507
28427SOL    HW189966   5.442  10.119   4.110 -0.7198 -0.3070  0.8761
28427SOL    HW289967   5.509  10.214   4.207 -0.3338 -0.6876  0.9796
28428SOL     OW89968   0.762  10.478   1.758  0.7494 -0.6992 -0.7228
28428SOL    HW189969   0.735  10.436   1.677  1.1561  0.9508 -1.7549
28428SOL    HW289970   0.825  10.545   1.731 -0.0066  0.7045  0.7888
28429SOL     OW89971  10.532   7.414   7.206 -0.1992 -0.0482  0.0725
28429SOL    HW189972  10.583   7.485   7.245  0.1243  0.5401 -1.3771
28429SOL    HW289973  10.545   7.423   7.112 -0.4524 -1.8028 -0.1728
28430SOL     OW89974  11.675   5.010   0.525  0.2487 -0.4057 -0.6327
28430SOL    HW189975  11.594   5.046   0.488 -1.0152 -3.1094 -0.7736
28430SOL    HW289976  11.711   5.082   0.577 -1.7667  1.1885 -1.2651
28431SOL     OW89977   0.309   2.963   6.748  0.3271  0.3215 -0.1214
28431SOL    HW189978   0.268   2.890   6.794  1.5629 -0.4298 -0.1588
28431SOL    HW289979   0.351   2.923   6.672  3.1075  0.6032  1.1347
28432SOL     OW89980   1.579   4.311   6.224 -0.2951  0.5621  0.4440
28432SOL    HW189981   1.485   4.314   6.205  0.0261  0.4278 -1.3233
28432SOL    HW289982   1.600   4.218   6.227 -0.3901  0.5657  1.9072
28433SOL     OW89983   9.441   1.524   5.934 -0.2845  0.6457 -0.9005
28433SOL    HW189984   9.503   1.468   5.888 -1.5612  0.4899 -2.5048
28433SOL    HW289985   9.468   1.613   5.911  0.1475  0.6269 -0.4876
28434SOL     OW89986   9.825   5.829   4.192  0.2378 -0.4752  0.5243
28434SOL    HW189987   9.788   5.916   4.207  1.5995  0.2258 -0.0326
28434SOL    HW289988   9.801   5.779   4.270 -0.7488  0.3245  0.7537
28435SOL     OW89989  11.825  11.296   8.504  0.3190  0.5819 -0.9109
28435SOL    HW189990  11.856  11.242   8.577  0.0680  0.6385 -0.7608
28435SOL    HW289991  11.733  11.315   8.525 -0.3554 -1.0163 -2.1891
28436SOL     OW89992   4.576  11.224   4.154  0.0522 -0.5792  0.1655
28436SOL    HW189993   4.632  11.205   4.079  0.1085  1.1163 -0.2814
28436SOL    HW289994   4.621  11.295   4.200  0.1814 -1.8144  2.0239
28437SOL     OW89995   7.616   9.677   4.270  0.2181  0.4770 -0.1043
28437SOL    HW189996   7.530   9.637   4.283 -0.3590  1.9879  1.0923
28437SOL    HW289997   7.669   9.645   4.343 -0.0098  1.1963  0.3991
28438SOL     OW89998   4.144   2.119   1.842  0.6038  0.1959  0.1704
28438SOL    HW189999   4.128   2.165   1.924  1.3028  1.6476 -0.4733
28438SOL    HW290000   4.228   2.075   1.856 -0.4340 -1.6444  1.0678
28439SOL     OW90001  11.572   4.287   9.229 -0.2431  0.0232  0.0692
28439SOL    HW190002  11.647   4.346   9.229  0.4419 -0.7880 -1.2431
28439SOL    HW290003  11.609   4.201   9.207 -1.4854 -0.4861 -0.1455
28440SOL     OW90004  11.882   3.924  11.683  0.0641 -0.2603  0.2511
28440SOL    HW190005  11.789   3.918  11.706 -0.1155 -0.4235 -0.4871
28440SOL    HW290006  11.928   3.922  11.767 -0.6598  1.1330  0.7126
28441SOL     OW90007   8.915   5.380   9.267 -0.1371 -0.1989 -0.2477
28441SOL    HW190008   8.918   5.475   9.257  0.3943 -0.0654  1.0115
28441SOL    HW290009   8.858   5.366   9.343  1.6049 -0.7367  1.0376
28442SOL     OW90010   6.797   1.146   0.580  0.2412  0.1215 -0.0655
28442SOL    HW190011   6.725   1.131   0.520  0.3475  1.4489 -0.5416
28442SOL    HW290012   6.861   1.079   0.557 -0.3155 -0.2900 -0.4578
28443SOL     OW90013   8.884   8.083  11.298  0.2356 -0.1453 -0.3007
28443SOL    HW190014   8.873   7.991  11.274 -0.9592 -0.0230 -0.2664
28443SOL    HW290015   8.804   8.125  11.267 -1.0336  0.2072  2.9853
28444SOL     OW90016   6.874  11.168   1.423 -0.6316 -0.1302  0.3310
28444SOL    HW190017   6.937  11.136   1.359 -1.8007 -2.5218  0.2818
28444SOL    HW290018   6.847  11.254   1.390  0.7224 -0.1634 -0.9422
28445SOL     OW90019   9.990  11.055   4.373  0.3505  0.2010 -0.4294
28445SOL    HW190020  10.069  11.009   4.400 -0.5231 -0.1656  1.6465
28445SOL    HW290021   9.920  10.989   4.379 -0.7551  1.4577  1.6772
28446SOL     OW90022   2.469   0.298   0.056 -0.3674 -0.0945 -0.4906
28446SOL    HW190023   2.559   0.320   0.080 -0.3354 -0.4108 -0.3151
28446SOL    HW290024   2.476   0.262  -0.033 -0.1176 -1.5148  0.0831
28447SOL     OW90025   6.024   7.185   0.915  0.0367  0.4053  0.0849
28447SOL    HW190026   5.930   7.205   0.917  0.2686  1.5721  1.5111
28447SOL    HW290027   6.029   7.091   0.934 -0.8839  0.0188 -1.4341
28448SOL     OW90028   2.766  10.067   6.533 -0.0279 -0.1832 -0.5657
28448SOL    HW190029   2.751  10.097   6.443  0.6737 -0.2756 -0.7207
28448SOL    HW290030   2.684  10.087   6.579 -0.4786 -0.3458 -1.2759
28449SOL     OW90031  10.219   2.085   4.557 -0.3608 -0.1077 -0.0113
28449SOL    HW190032  10.156   2.110   4.490 -1.7615 -1.6085  0.6629
28449SOL    HW290033  10.263   2.008   4.521  0.1329  0.1374  0.0690
28450SOL     OW90034  11.225   7.323   0.940  0.4359 -0.0054 -0.0058
28450SOL    HW190035  11.242   7.242   0.990  0.3345 -0.4160 -0.6228
28450SOL    HW290036  11.162   7.296   0.873 -0.5254  0.8641  0.5221
28451SOL     OW90037   6.951   4.369   6.639  0.3512 -0.3305  0.6496
28451SOL    HW190038   7.008   4.395   6.566 -1.1466  1.5123  0.0401
28451SOL    HW290039   7.007   4.375   6.716  0.9340  1.9287  0.1347
28452SOL     OW90040   3.926   4.627   6.636 -0.1749 -0.5085 -0.5151
28452SOL    HW190041   3.831   4.620   6.636 -0.1970 -0.3436  0.3043
28452SOL    HW290042   3.956   4.538   6.655 -0.1376 -0.7074 -1.4540
28453SOL     OW90043  11.305   5.380   8.893 -0.3086 -0.3809 -0.2381
28453SOL    HW190044  11.391   5.416   8.916  1.7236 -1.3961 -4.8904
28453SOL    HW290045  11.265   5.447   8.837 -1.1571 -1.1450 -0.5686
28454SOL     OW90046   0.528   7.483  10.452  0.1736  0.0834 -0.1229
28454SOL    HW190047   0.544   7.408  10.509 -2.4142 -0.0510  0.5664
28454SOL    HW290048   0.520   7.446  10.364  1.2148 -0.1070 -0.1455
28455SOL     OW90049   8.494  10.021   2.719  0.5666 -0.1914 -0.1242
28455SOL    HW190050   8.535   9.971   2.649  2.0817  2.0462 -0.9453
28455SOL    HW290051   8.487   9.960   2.792  1.5120 -1.8075 -1.3289
28456SOL     OW90052   5.001   2.425  11.394  0.2057 -0.0599  0.0809
28456SOL    HW190053   4.971   2.459  11.309 -1.2756 -1.5647 -0.0417
28456SOL    HW290054   4.950   2.474  11.459 -1.2402 -1.3205 -0.0610
28457SOL     OW90055   4.528   0.341  11.659  0.0898 -0.1288  0.0853
28457SOL    HW190056   4.527   0.270  11.595 -0.2336  0.5966 -0.7365
28457SOL    HW290057   4.437   0.367  11.669  0.1815  0.0350  0.5422
28458SOL     OW90058   7.560  11.672   3.619 -0.2141  0.5563  0.8195
28458SOL    HW190059   7.480  11.620   3.620  0.1604 -0.1612 -1.1698
28458SOL    HW290060   7.562  11.716   3.704 -2.7513  0.6756  0.8861
28459SOL     OW90061   0.750   3.933  10.363 -0.6439 -0.7653 -0.2230
28459SOL    HW190062   0.737   4.005  10.424 -1.9010 -1.2509  0.1240
28459SOL    HW290063   0.805   3.870  10.410  0.2618 -0.1533 -0.4442
28460SOL     OW90064  10.645   5.605   2.976  0.1160  0.3639  0.5377
28460SOL    HW190065  10.599   5.572   3.053  0.3656  1.0640  1.0027
28460SOL    HW290066  10.578   5.612   2.909  0.4044 -3.0121 -0.2585
28461SOL     OW90067   0.893   5.541   7.666  0.0084  0.1937 -0.3597
28461SOL    HW190068   0.906   5.449   7.644  1.6300  0.4245 -0.4918
28461SOL    HW290069   0.891   5.586   7.582 -0.8223  0.2910 -0.2976
28462SOL     OW90070   2.761   8.915   5.037 -0.5701 -0.2956  0.0303
28462SOL    HW190071   2.816   8.894   5.112 -0.7492 -0.8625  0.0076
28462SOL    HW290072   2.820   8.957   4.974 -0.8146  2.0586  1.2768
28463SOL     OW90073   0.590   2.674   4.348  0.1707 -0.3458  0.8206
28463SOL    HW190074   0.636   2.673   4.432  2.4575 -1.5274 -0.3325
28463SOL    HW290075   0.562   2.583   4.335 -0.1731 -0.1737  0.3059
28464SOL     OW90076   3.976   0.780   7.369  0.0308  0.4190 -0.3283
28464SOL    HW190077   3.900   0.744   7.415 -0.1562  1.5720  0.2927
28464SOL    HW290078   3.961   0.757   7.277 -1.8866  1.9549 -0.4655
28465SOL     OW90079  10.914   2.826   3.338  0.3193  0.2579  0.1569
28465SOL    HW190080  10.843   2.804   3.398  0.4296  1.2261  0.6637
28465SOL    HW290081  10.878   2.896   3.283  0.6639  0.3133  0.0016
28466SOL     OW90082   7.190  10.186   2.480 -0.3746 -0.2063 -0.2754
28466SOL    HW190083   7.113  10.244   2.485 -1.9843 -2.0969 -1.5187
28466SOL    HW290084   7.199  10.151   2.568 -1.9968 -1.1758 -0.4478
28467SOL     OW90085   7.193   9.731   4.127  0.1970  0.5270  0.0623
28467SOL    HW190086   7.175   9.764   4.039  1.0814  1.4248  0.2038
28467SOL    HW290087   7.188   9.808   4.183 -0.7627 -0.1011  0.8871
28468SOL     OW90088  11.138   0.339   6.764 -0.0895 -0.0816  0.0600
28468SOL    HW190089  11.114   0.334   6.672  1.5208  0.6317 -0.4287
28468SOL    HW290090  11.118   0.429   6.790  1.3759  0.3580 -0.2047
28469SOL     OW90091   0.842  11.721   4.894  0.6621 -0.0249  0.3846
28469SOL    HW190092   0.852  11.627   4.907 -1.4081 -0.2884  0.3475
28469SOL    HW290093   0.907  11.761   4.953  1.6590 -1.4558  0.2890
28470SOL     OW90094   0.046  10.481  10.378  0.0530  0.4143  0.6620
28470SOL    HW190095  -0.029  10.461  10.321 -0.5788 -0.5282  1.7708
28470SOL    HW290096   0.007  10.529  10.451  0.5960  0.3109  1.0208
28471SOL     OW90097   5.567   8.212   1.303  0.2781  0.2889  0.0737
28471SOL    HW190098   5.485   8.232   1.257 -0.7845 -0.6119  1.4639
28471SOL    HW290099   5.550   8.129   1.347  1.9780  0.0530  0.3586
28472SOL     OW90100   9.949   9.718   9.285  0.2473 -0.3802 -0.0398
28472SOL    HW190101   9.999   9.793   9.254  2.6907 -0.9640  2.1314
28472SOL    HW290102   9.999   9.642   9.256 -0.1593 -1.0342  0.9189
28473SOL     OW90103  10.326  11.993  10.838 -0.3657 -0.2238 -0.2022
28473SOL    HW190104  10.376  11.912  10.846 -1.2755 -0.7094  0.7219
28473SOL    HW290105  10.236  11.965  10.826 -1.0417  0.6032  2.3598
28474SOL     OW90106   7.713   4.827   0.677 -0.3099 -0.4855 -0.1826
28474SOL    HW190107   7.770   4.847   0.751 -0.1891  1.2400 -0.7101
28474SOL    HW290108   7.643   4.891   0.682 -0.3743 -0.4224 -1.4847
28475SOL     OW90109   2.747  11.327   8.899 -0.1575 -0.0830  0.0502
28475SOL    HW190110   2.766  11.421   8.903  0.5462 -0.2148 -0.1125
28475SOL    HW290111   2.656  11.323   8.867  0.3985  0.5254 -1.7471
28476SOL     OW90112   8.869   7.215   9.443 -0.0549 -0.2735 -0.0473
28476SOL    HW190113   8.939   7.163   9.404  0.0940  1.6087 -2.5465
28476SOL    HW290114   8.811   7.236   9.370 -0.2207  2.7969  0.8208
28477SOL     OW90115   6.420   2.242   0.732 -0.2434  0.2324 -0.0074
28477SOL    HW190116   6.458   2.268   0.648  1.3498  0.0332  0.6183
28477SOL    HW290117   6.401   2.324   0.776 -0.5803  0.3333 -0.3305
28478SOL     OW90118   5.110   1.685   4.063 -0.0018 -0.4174  0.3114
28478SOL    HW190119   5.185   1.714   4.010 -1.9810  1.5397 -1.6047
28478SOL    HW290120   5.114   1.738   4.142  0.6243 -0.3158  0.2146
28479SOL     OW90121   9.645  10.297   0.272  0.0169 -0.1293  0.1009
28479SOL    HW190122   9.710  10.259   0.331 -1.4689 -0.4238  1.6449
28479SOL    HW290123   9.686  10.296   0.186  1.6428 -1.2447  0.8490
28480SOL     OW90124  11.068   6.693   7.981 -0.3648  0.2693 -0.2287
28480SOL    HW190125  11.025   6.643   8.050  1.7477 -0.5279  0.6007
28480SOL    HW290126  11.017   6.675   7.902 -1.5040 -0.6420  0.6873
28481SOL     OW90127   2.419   4.395   9.101 -0.3213 -0.0009 -0.3585
28481SOL    HW190128   2.510   4.370   9.086  0.0144 -0.5372  2.1186
28481SOL    HW290129   2.373   4.365   9.023  1.6823  0.8087 -1.9359
28482SOL     OW90130   4.151   8.860   4.113 -0.5194 -0.0349 -0.0967
28482SOL    HW190131   4.142   8.939   4.165 -0.8188  0.8438 -1.4454
28482SOL    HW290132   4.237   8.868   4.072 -1.2790  0.4823 -1.6400
28483SOL     OW90133   9.863   1.982   3.476  0.6419  0.1586  0.1090
28483SOL    HW190134   9.785   1.927   3.478  0.6429  0.0921 -1.1013
28483SOL    HW290135   9.837   2.062   3.521 -0.0278  0.0065 -0.0014
28484SOL     OW90136   0.031   1.328  10.112 -0.1519  0.0664 -0.6399
28484SOL    HW190137   0.109   1.296  10.066  1.2300  0.5846  1.1685
28484SOL    HW290138  -0.034   1.259  10.102  1.8676 -2.2651  1.0291
28485SOL     OW90139   2.667   2.881   6.291 -0.1305 -0.0604 -0.1955
28485SOL    HW190140   2.690   2.968   6.323  1.4261 -0.4845 -0.0850
28485SOL    HW290141   2.666   2.889   6.196  0.9924 -0.1390 -0.2230
28486SOL     OW90142   8.570   1.347  10.373 -0.1149 -0.1860 -0.5014
28486SOL    HW190143   8.507   1.378  10.438  1.3159  1.3385  0.2499
28486SOL    HW290144   8.580   1.421  10.313  1.1022 -0.3083 -0.4698
28487SOL     OW90145   1.436   6.557   8.192 -0.4115 -0.2733  0.3675
28487SOL    HW190146   1.523   6.533   8.161 -0.6849 -0.0134 -0.6312
28487SOL    HW290147   1.393   6.596   8.116 -0.2751  2.7185  1.6924
28488SOL     OW90148   6.534   9.163   9.200  0.0196  0.1502 -0.9009
28488SOL    HW190149   6.514   9.255   9.219  0.3782  0.4418 -1.8980
28488SOL    HW290150   6.460   9.134   9.146 -0.3237 -0.2874 -0.2037
28489SOL     OW90151   8.502  11.226  11.571 -1.0365 -0.0559  0.3691
28489SOL    HW190152   8.482  11.222  11.664  1.9523  0.0109  1.1042
28489SOL    HW290153   8.498  11.135  11.541 -1.5253 -0.1295  0.6519
28490SOL     OW90154   1.782   1.723  10.390  0.6962 -0.2589  0.7050
28490SOL    HW190155   1.834   1.686  10.319 -0.9534 -1.3352 -0.0043
28490SOL    HW290156   1.836   1.712  10.468  3.0861  2.0908 -0.4844
28491SOL     OW90157   5.255   4.724  11.611 -0.1573  0.6932 -0.1448
28491SOL    HW190158   5.215   4.655  11.665 -0.3528  0.8514 -0.0870
28491SOL    HW290159   5.232   4.701  11.521  4.3935 -2.5193 -0.8211
28492SOL     OW90160   3.844   5.342   1.891  0.6025 -0.5321  0.5629
28492SOL    HW190161   3.874   5.388   1.969 -0.3618 -3.1790  2.6455
28492SOL    HW290162   3.748   5.344   1.897  0.3690  1.5960 -2.1351
28493SOL     OW90163   5.143   7.803   5.414  0.2705  0.2329 -0.0677
28493SOL    HW190164   5.239   7.800   5.410  0.4038  2.4478 -0.0325
28493SOL    HW290165   5.121   7.780   5.504  0.8612  0.6701  0.1954
28494SOL     OW90166   0.719   9.709   5.575  0.2053  0.3109 -0.4011
28494SOL    HW190167   0.787   9.754   5.625 -0.1413 -2.9368  3.5365
28494SOL    HW290168   0.760   9.627   5.548 -0.5966  0.6949 -3.0525
28495SOL     OW90169   4.871   2.791   3.307  0.0429 -0.0847 -0.3141
28495SOL    HW190170   4.813   2.751   3.242  1.5152  1.7174 -2.9121
28495SOL    HW290171   4.959   2.783   3.269  1.0532  0.5981  1.7254
28496SOL     OW90172  11.575   5.387  10.071 -0.0289  0.0704 -0.1143
28496SOL    HW190173  11.578   5.331  10.149 -0.4134  0.6125  0.2976
28496SOL    HW290174  11.659   5.373  10.028 -0.7945 -2.2338 -1.0146
28497SOL     OW90175   2.304   1.133   8.558  0.2650 -0.0281  0.0932
28497SOL    HW190176   2.349   1.145   8.641  1.5599  1.0528 -0.7282
28497SOL    HW290177   2.369   1.153   8.491 -0.3636 -2.0778 -1.2587
28498SOL     OW90178   2.484   0.774   6.845  0.3911  0.1572 -0.0578
28498SOL    HW190179   2.416   0.787   6.778  0.0882 -0.1656  0.1794
28498SOL    HW290180   2.450   0.820   6.922  0.1068 -0.5722  0.2708
28499SOL     OW90181   4.647   9.893   3.706  0.0758  0.6180 -0.6670
28499SOL    HW190182   4.584   9.822   3.696  3.1625 -2.4771 -0.2649
28499SOL    HW290183   4.729   9.856   3.673  3.0319  2.1630  3.9884
28500SOL     OW90184   1.824   5.566  11.302  0.2842  0.5205 -0.0188
28500SOL    HW190185   1.863   5.481  11.323  1.6790  1.4515  1.4573
28500SOL    HW290186   1.730   5.550  11.300  0.4946 -0.9473  0.7976
28501SOL     OW90187   9.054   9.614   0.163  0.4909 -0.1799  0.1868
28501SOL    HW190188   8.992   9.549   0.129 -0.8476  0.3767  1.4605
28501SOL    HW290189   9.019   9.639   0.248  1.0347  2.1065 -0.1827
28502SOL     OW90190   8.276  10.691   0.386 -0.4304 -0.4870  1.0583
28502SOL    HW190191   8.339  10.624   0.358 -0.7481 -0.9122  1.3454
28502SOL    HW290192   8.198  10.673   0.335 -0.1357  0.4184  0.2522
28503SOL     OW90193   5.839   2.859   6.007 -0.3035 -0.1588  0.1591
28503SOL    HW190194   5.803   2.786   5.956  0.2135  0.0235 -0.4924
28503SOL    HW290195   5.889   2.817   6.077 -1.9029 -0.4116  1.1870
28504SOL     OW90196   3.776   7.174  10.303 -0.8013  0.5836  0.1868
28504SOL    HW190197   3.689   7.198  10.271 -1.0890 -1.1259 -0.4758
28504SOL    HW290198   3.762   7.149  10.394 -0.6722  1.9399  0.5891
28505SOL     OW90199   1.170   9.822  10.829 -0.3919 -0.3516 -0.6774
28505SOL    HW190200   1.078   9.808  10.808 -0.4602 -2.2267  0.5901
28505SOL    HW290201   1.217   9.770  10.764 -0.3014 -0.3871 -0.5843
28506SOL     OW90202   1.378   2.165   0.845  0.4234 -0.5517 -0.1931
28506SOL    HW190203   1.442   2.227   0.812 -0.4228  0.1609 -0.5361
28506SOL    HW290204   1.405   2.148   0.935  0.6786  0.3166 -0.1006
28507SOL     OW90205   2.103  10.695   1.312  0.7319  0.3015  0.2640
28507SOL    HW190206   2.118  10.620   1.254  0.2253  1.7459 -1.8868
28507SOL    HW290207   2.014  10.684   1.344 -0.3923  1.2769 -2.2580
28508SOL     OW90208   7.744   6.690   7.075  0.2831  0.6032 -0.5464
28508SOL    HW190209   7.774   6.600   7.062  0.2539  0.5728 -0.4045
28508SOL    HW290210   7.659   6.693   7.032  0.3144  0.5826 -0.6109
28509SOL     OW90211   6.057   7.389   2.914  0.2033 -0.8898 -0.1773
28509SOL    HW190212   6.074   7.314   2.856  1.4791 -1.0795  0.4017
28509SOL    HW290213   6.109   7.460   2.877  0.8500 -0.9515  0.5898
28510SOL     OW90214   1.262   5.586   5.202  0.2138  0.6690  0.2347
28510SOL    HW190215   1.174   5.619   5.183 -0.4796 -0.6971  0.9520
28510SOL    HW290216   1.320   5.649   5.159 -1.1086  1.4034 -0.5687
28511SOL     OW90217   5.837   0.823   3.866  0.7840  0.1550  0.0986
28511SOL    HW190218   5.764   0.854   3.812  0.2620 -3.3569 -1.4841
28511SOL    HW290219   5.807   0.739   3.901  2.5376  0.5899  2.9830
28512SOL     OW90220   9.090   8.915   1.180 -0.2109  0.0339  0.6837
28512SOL    HW190221   9.068   8.960   1.262 -1.9371 -0.4627  0.5314
28512SOL    HW290222   9.083   8.822   1.201  0.6055 -0.1245  0.2827
28513SOL     OW90223   6.761  11.716   7.921 -0.8496 -0.2681  0.1104
28513SOL    HW190224   6.684  11.758   7.959 -0.8183 -0.8869  0.8847
28513SOL    HW290225   6.752  11.623   7.944  1.2909 -0.0419  2.3385
28514SOL     OW90226   3.347  11.234  11.217 -0.1910  0.6380 -0.4962
28514SOL    HW190227   3.305  11.283  11.287 -0.2294  2.1967 -1.5616
28514SOL    HW290228   3.276  11.212  11.157  0.0969  0.9449 -0.9618
28515SOL     OW90229   7.606  10.735   9.687 -0.7572 -0.4584 -0.4964
28515SOL    HW190230   7.587  10.654   9.734  0.7752 -1.2841 -1.2426
28515SOL    HW290231   7.623  10.707   9.597  0.8121  0.5533 -0.5531
28516SOL     OW90232   1.900   5.251   0.549 -0.2391  0.2377 -0.2926
28516SOL    HW190233   1.814   5.286   0.572 -1.1048 -0.4101 -2.3246
28516SOL    HW290234   1.931   5.308   0.478  0.1825 -0.6258 -0.8209
28517SOL     OW90235  11.569   4.403   6.867  0.0397  0.0156  0.4439
28517SOL    HW190236  11.614   4.474   6.913 -0.3319  0.1408  0.6088
28517SOL    HW290237  11.518   4.447   6.799  2.5763 -0.2888 -1.8326
28518SOL     OW90238   2.164  10.669   7.549 -0.3442  0.4592 -0.4553
28518SOL    HW190239   2.254  10.690   7.572 -0.8118  1.0788  0.8634
28518SOL    HW290240   2.112  10.739   7.586 -1.5050 -0.6292  0.0462
28519SOL     OW90241   6.912   6.631  10.089  0.0637  0.1450  0.0710
28519SOL    HW190242   6.965   6.637  10.168 -0.2913  0.3218  0.2978
28519SOL    HW290243   6.823   6.655  10.117 -0.1792 -0.3613 -0.2598
28520SOL     OW90244   2.145   2.461   2.275 -0.8206  0.5762 -0.4656
28520SOL    HW190245   2.150   2.524   2.203 -0.9738 -0.1364 -1.1101
28520SOL    HW290246   2.140   2.515   2.354  2.3702  1.4328 -0.7009
28521SOL     OW90247   1.209   8.113   0.311 -0.4877  0.9080 -0.1790
28521SOL    HW190248   1.239   8.185   0.366 -0.9678  1.9370 -1.2166
28521SOL    HW290249   1.140   8.152   0.256 -0.2330 -0.1420 -1.2859
28522SOL     OW90250   9.885   4.304   3.100  0.2561 -0.4627 -0.2292
28522SOL    HW190251   9.807   4.320   3.048  1.4126  1.7368 -1.4455
28522SOL    HW290252   9.919   4.391   3.120  1.2857 -1.3092  2.0433
28523SOL     OW90253   9.443   6.595   0.447 -0.5830 -0.3673 -0.2145
28523SOL    HW190254   9.422   6.587   0.540 -0.2288 -2.3020 -0.2557
28523SOL    HW290255   9.537   6.610   0.444 -0.3056 -1.9692 -0.2713
28524SOL     OW90256   1.008   8.199   8.970 -0.1223 -0.3943 -0.1295
28524SOL    HW190257   1.088   8.250   8.984  1.0974 -2.3058  0.1940
28524SOL    HW290258   0.938   8.265   8.968  1.1767  1.1850  1.7846
28525SOL     OW90259  11.939   0.848   8.656 -0.3832  0.2930 -0.0861
28525SOL    HW190260  11.966   0.859   8.748  0.7949 -0.9337 -0.2503
28525SOL    HW290261  11.942   0.937   8.620 -1.2537  0.8611  1.1361
28526SOL     OW90262   4.283   3.474   8.965 -0.3578  0.5143  0.0507
28526SOL    HW190263   4.260   3.383   8.985  1.6524  0.0025  0.2638
28526SOL    HW290264   4.249   3.524   9.040 -0.4977 -0.2195  0.4900
28527SOL     OW90265  10.868   9.795  10.502  0.1879 -0.6548 -0.0095
28527SOL    HW190266  10.806   9.791  10.430 -1.2618 -2.0469  1.2202
28527SOL    HW290267  10.820   9.759  10.577  1.7389  0.3652  1.5721
28528SOL     OW90268   3.687   8.908   2.592  0.2781 -0.5036  0.3193
28528SOL    HW190269   3.607   8.887   2.640  0.1872 -0.6967  0.0859
28528SOL    HW290270   3.658   8.965   2.521  0.5036  0.3208  0.8699
28529SOL     OW90271   3.052   8.005   1.831  0.3906  0.3104  0.1395
28529SOL    HW190272   2.992   8.052   1.888 -0.0190 -0.5129  0.4033
28529SOL    HW290273   3.105   7.951   1.891  0.2741 -0.2055 -0.2145
28530SOL     OW90274   6.266   4.418   7.631 -0.2491 -0.0295 -0.2674
28530SOL    HW190275   6.183   4.393   7.591 -1.5794 -0.1280  2.2904
28530SOL    HW290276   6.317   4.337   7.631 -0.4452 -0.1661 -1.1683
28531SOL     OW90277  11.913   6.531   0.402 -0.4327 -0.0178 -0.3339
28531SOL    HW190278  11.969   6.553   0.328 -0.1617  1.4170  0.2648
28531SOL    HW290279  11.970   6.487   0.464 -0.1731  0.6102 -0.1202
28532SOL     OW90280   0.049   0.599   2.858 -0.0875 -0.2995  0.0844
28532SOL    HW190281  -0.039   0.619   2.890 -0.0047 -0.0808  0.1750
28532SOL    HW290282   0.103   0.599   2.937 -0.1285 -1.1264  0.1256
28533SOL     OW90283   4.587   2.865  10.625  0.0016 -0.0706  0.2181
28533SOL    HW190284   4.599   2.959  10.614  1.4866 -0.2261  0.2841
28533SOL    HW290285   4.668   2.835  10.666 -0.0910 -1.5039 -0.5645
28534SOL     OW90286   8.387  10.108   2.312 -0.3499  0.4512 -0.3933
28534SOL    HW190287   8.378  10.033   2.254 -0.8744  1.8622 -2.2246
28534SOL    HW290288   8.300  10.122   2.348 -0.2115  0.0970  0.0937
28535SOL     OW90289   1.873   9.908   4.879  0.5689  0.3228  0.1485
28535SOL    HW190290   1.868   9.824   4.926  0.1071  0.0174 -0.4211
28535SOL    HW290291   1.942   9.895   4.814 -0.7614 -0.3159 -1.2196
28536SOL     OW90292   2.866   0.380  10.596 -0.6425  0.3362  0.7377
28536SOL    HW190293   2.815   0.364  10.517  1.0286 -0.7517 -0.1777
28536SOL    HW290294   2.923   0.453  10.574 -0.7573  0.5869  1.2456
28537SOL     OW90295   9.603   7.515   7.030  0.4944 -0.1939  0.3397
28537SOL    HW190296   9.546   7.539   7.102 -1.0499 -1.0181 -0.5581
28537SOL    HW290297   9.561   7.438   6.991  1.0995  0.4149 -1.6195
28538SOL     OW90298   3.808   2.016  10.252  0.2688  0.1924  0.1924
28538SOL    HW190299   3.763   2.075  10.190  0.6394  2.0959  1.6345
28538SOL    HW290300   3.884   2.066  10.281  0.8055 -1.1770  1.2424
28539SOL     OW90301  11.997   2.701  11.646  0.8219  0.0213 -0.2577
28539SOL    HW190302  11.937   2.690  11.572  1.6364 -0.1482 -0.8992
28539SOL    HW290303  11.952   2.763  11.704  0.5496  0.8140 -1.2953
28540SOL     OW90304   8.336  11.335   4.636 -0.2441 -0.0412  0.3152
28540SOL    HW190305   8.376  11.418   4.661  0.7473 -0.9262  1.8154
28540SOL    HW290306   8.247  11.339   4.672 -0.9127  1.1228 -1.3220
28541SOL     OW90307   9.986  11.155   0.083  0.0007 -0.4441 -0.4043
28541SOL    HW190308  10.017  11.246   0.087 -0.1554 -0.3696 -0.8958
28541SOL    HW290309   9.957  11.137   0.173 -0.6296  0.2285 -0.4581
28542SOL     OW90310   9.627   6.189   4.617  0.2619  0.0464 -0.1467
28542SOL    HW190311   9.604   6.232   4.535  0.7562  0.7653  0.0795
28542SOL    HW290312   9.668   6.258   4.670  1.1961 -0.7268  0.1727
28543SOL     OW90313   9.848   1.572   7.112  0.2107 -0.6545 -0.5463
28543SOL    HW190314   9.904   1.585   7.189  0.7335  1.5072 -1.2287
28543SOL    HW290315   9.768   1.621   7.132  0.2617 -0.2589 -1.2796
28544SOL     OW90316   6.098  11.673   8.962  0.4588 -0.0631  0.3536
28544SOL    HW190317   6.066  11.727   9.034 -1.9190 -1.0553  0.1453
28544SOL    HW290318   6.071  11.720   8.883  5.1384  2.2965 -0.2020
28545SOL     OW90319   2.282   0.368   1.108  0.4251  0.5329  0.0010
28545SOL    HW190320   2.331   0.288   1.126 -0.4001 -0.2873 -1.2044
28545SOL    HW290321   2.234   0.386   1.189  2.0938  0.9418  0.9387
28546SOL     OW90322   3.940   8.248   8.018  0.0086 -0.4664 -0.1146
28546SOL    HW190323   3.854   8.211   8.034 -0.3768  0.1070 -0.8284
28546SOL    HW290324   3.928   8.343   8.025  0.3276 -0.3240 -1.3231
28547SOL     OW90325   8.654   9.971  10.381  0.6031 -0.6464 -0.1986
28547SOL    HW190326   8.586   9.942  10.442 -1.7106  2.4561 -1.0544
28547SOL    HW290327   8.649   9.908  10.308 -0.6100 -1.0909  0.2455
28548SOL     OW90328  10.083   8.525   5.666 -0.1267 -0.4305 -0.1060
28548SOL    HW190329   9.992   8.514   5.641  0.1991  0.4526 -1.8279
28548SOL    HW290330  10.102   8.450   5.723 -1.8206 -0.7772  0.0499
28549SOL     OW90331   5.709   7.876   4.248  0.5766  0.4869  0.7121
28549SOL    HW190332   5.725   7.846   4.159 -2.8544 -0.2416  0.2118
28549SOL    HW290333   5.691   7.970   4.239 -3.0137 -0.1481  0.0003
28550SOL     OW90334   0.410   4.465   1.387  0.2288 -0.0828  0.2296
28550SOL    HW190335   0.465   4.438   1.461  0.3091 -0.4985  0.0193
28550SOL    HW290336   0.462   4.532   1.342  0.9549 -1.0798 -0.4651
28551SOL     OW90337  11.950   8.388   0.781  0.2422  0.0299  0.0366
28551SOL    HW190338  11.874   8.353   0.735  0.4396 -1.7544  0.9884
28551SOL    HW290339  12.019   8.393   0.715  0.2426 -1.5544 -0.1043
28552SOL     OW90340  10.645   6.849   0.388 -0.2336  0.5669  0.6625
28552SOL    HW190341  10.718   6.896   0.348  0.0775  0.1357  0.7220
28552SOL    HW290342  10.600   6.916   0.439  0.1443  0.8265  0.6647
28553SOL     OW90343   0.805   2.323   5.634  0.0869 -0.1550 -0.0387
28553SOL    HW190344   0.899   2.306   5.638  0.4774  1.9453  2.8044
28553SOL    HW290345   0.798   2.416   5.611 -1.2388 -0.1131  0.4254
28554SOL     OW90346   2.178   9.171   8.760 -0.5552  0.4977 -0.6047
28554SOL    HW190347   2.195   9.196   8.669  2.2697 -1.8564 -0.8774
28554SOL    HW290348   2.187   9.252   8.810  0.2277  1.4219 -2.1826
28555SOL     OW90349   0.149   2.221   0.145  0.5206 -0.3892  0.2897
28555SOL    HW190350   0.091   2.159   0.101  0.8988 -0.5895  0.0719
28555SOL    HW290351   0.232   2.214   0.099  0.1307  1.4797 -0.8054
28556SOL     OW90352   5.477  10.752   4.167  1.0740 -0.2825 -0.2276
28556SOL    HW190353   5.465  10.840   4.203 -0.5411 -0.8959  0.8280
28556SOL    HW290354   5.533  10.708   4.230 -0.2663 -0.7906  0.6519
28557SOL     OW90355   0.819  10.885   9.448  0.0971 -0.5914  0.1136
28557SOL    HW190356   0.793  10.880   9.356 -2.2582  1.5686  0.5633
28557SOL    HW290357   0.821  10.794   9.477  1.3945 -1.3656 -2.1370
28558SOL     OW90358  11.610   2.280   1.622 -0.3669  0.1630 -0.3120
28558SOL    HW190359  11.705   2.274   1.615 -0.2632  0.7808  0.4045
28558SOL    HW290360  11.583   2.321   1.540 -0.2318 -1.7176 -1.3625
28559SOL     OW90361   3.835   2.380   5.797  0.4639 -0.0258  0.3297
28559SOL    HW190362   3.894   2.314   5.834 -0.4051  0.4196  2.7089
28559SOL    HW290363   3.776   2.402   5.869 -1.3125  1.0358 -1.3499
28560SOL     OW90364   5.601   2.978   8.589 -0.1128  0.4601  0.1439
28560SOL    HW190365   5.509   2.951   8.582 -0.0184  0.5014 -2.1066
28560SOL    HW290366   5.648   2.896   8.606 -0.5157  0.4027  1.0610
28561SOL     OW90367   2.295   3.924   6.314  0.3615 -0.0512  0.7024
28561SOL    HW190368   2.353   3.858   6.353 -1.1093 -1.6781  0.2592
28561SOL    HW290369   2.219   3.925   6.371 -0.5881 -0.3887 -0.5222
28562SOL     OW90370   8.356   1.224   4.151  0.7089 -0.0187  0.3264
28562SOL    HW190371   8.351   1.244   4.244  0.7114 -0.5595  0.4469
28562SOL    HW290372   8.366   1.309   4.108  0.5959  0.2402  0.8097
28563SOL     OW90373   7.470   0.787   9.852  0.1038  0.4096 -0.0251
28563SOL    HW190374   7.457   0.789   9.947 -2.9645 -1.0015 -0.3157
28563SOL    HW290375   7.483   0.879   9.828  2.3299  0.6670  1.8335
28564SOL     OW90376   4.454   0.023   4.674 -0.1675 -0.6103 -0.3346
28564SOL    HW190377   4.385   0.085   4.696  0.4737 -0.3382  1.0326
28564SOL    HW290378   4.437  -0.002   4.583 -2.4853 -1.1285  0.1823
28565SOL     OW90379  10.245   5.835   3.287  0.0941  0.0382  0.5755
28565SOL    HW190380  10.211   5.760   3.238 -0.1885  0.6440 -0.1757
28565SOL    HW290381  10.318   5.800   3.338 -0.9033 -1.0320  1.3000
28566SOL     OW90382   4.914   1.914  11.362 -0.1864 -0.0410 -0.4380
28566SOL    HW190383   4.877   1.869  11.286 -0.2733 -0.6040 -0.0708
28566SOL    HW290384   4.875   2.001  11.360  0.3505  0.1906 -1.4290
28567SOL     OW90385   0.898   9.495   2.317 -1.1397 -0.0165  0.2298
28567SOL    HW190386   0.850   9.502   2.400  1.2191  1.5567  1.5929
28567SOL    HW290387   0.958   9.422   2.331 -0.1763  0.7625  0.2520
28568SOL     OW90388   5.189   0.880   7.443 -0.4491 -0.1882  0.3486
28568SOL    HW190389   5.241   0.955   7.471  2.6737 -1.2751 -1.9163
28568SOL    HW290390   5.151   0.907   7.359 -0.2440 -0.7578  0.0683
28569SOL     OW90391   9.441   5.179   4.648 -0.6166  0.1617 -0.1804
28569SOL    HW190392   9.498   5.252   4.624 -0.3760  0.1886  0.4404
28569SOL    HW290393   9.484   5.102   4.611 -0.5210  0.2602 -0.2756
28570SOL     OW90394   0.781   0.677   6.089  0.4082  0.5070 -0.2640
28570SOL    HW190395   0.711   0.685   6.154  1.6542 -0.8606  1.3277
28570SOL    HW290396   0.741   0.707   6.007 -1.9640 -0.0346  0.6201
28571SOL     OW90397  11.600   9.577   9.832  0.6733  0.0608  0.2641
28571SOL    HW190398  11.567   9.647   9.776  2.3009 -0.3340 -1.2859
28571SOL    HW290399  11.528   9.559   9.893 -0.2618  2.1510 -0.1451
28572SOL     OW90400   8.801   0.915   9.516 -0.2790 -0.5093 -0.6038
28572SOL    HW190401   8.878   0.958   9.553 -2.2744  0.9299  2.2073
28572SOL    HW290402   8.781   0.966   9.437 -0.5333  1.5787  0.7482
28573SOL     OW90403   6.361   0.560   5.774  0.1658 -0.4148  0.1005
28573SOL    HW190404   6.308   0.491   5.813 -2.2725  0.7319 -1.0025
28573SOL    HW290405   6.313   0.640   5.791  1.4107  0.6590 -1.1756
28574SOL     OW90406   3.266   0.339  11.835  0.0426  0.0723 -0.2306
28574SOL    HW190407   3.268   0.324  11.741 -0.0291 -0.1305 -0.1996
28574SOL    HW290408   3.323   0.415  11.848 -0.6583  0.6652 -0.5435
28575SOL     OW90409   2.494   2.064   7.297  0.2046  0.2355 -0.3379
28575SOL    HW190410   2.536   2.134   7.348  0.8301 -1.5376  1.7238
28575SOL    HW290411   2.567   2.016   7.259  0.1658 -2.0835  2.2020
28576SOL     OW90412   8.380   1.340   0.589 -0.2589 -0.2592  0.2097
28576SOL    HW190413   8.409   1.414   0.535  0.1235 -0.6990 -0.2047
28576SOL    HW290414   8.461   1.305   0.627 -0.6119  0.5678  1.7757
28577SOL     OW90415   5.922   0.893   0.453 -0.6036 -0.2251 -0.2569
28577SOL    HW190416   5.834   0.856   0.464 -0.4219 -0.1201  1.9427
28577SOL    HW290417   5.974   0.853   0.522  0.4723  1.5022 -0.0002
28578SOL     OW90418   4.917   6.342   3.143  0.2694 -0.2097 -0.7840
28578SOL    HW190419   5.005   6.352   3.105  0.1324  0.6808 -0.8875
28578SOL    HW290420   4.893   6.430   3.170 -0.6024 -0.4516 -0.7518
28579SOL     OW90421   7.120   0.744  10.524  0.2630 -0.2433  0.3807
28579SOL    HW190422   7.181   0.710  10.590 -0.5045  0.4132  1.4660
28579SOL    HW290423   7.060   0.672  10.507 -0.5400  0.0830  1.6671
28580SOL     OW90424   6.266   7.845   0.830  0.0884  0.0067  0.1469
28580SOL    HW190425   6.211   7.780   0.874  1.5175 -0.4090  1.3936
28580SOL    HW290426   6.322   7.794   0.771  1.8167 -0.0739  1.7578
28581SOL     OW90427   9.204   3.648   1.853  0.0029 -0.4186  0.8839
28581SOL    HW190428   9.187   3.699   1.774 -1.6210 -1.6596  0.3677
28581SOL    HW290429   9.279   3.690   1.894 -0.4701  1.5570 -0.1884
28582SOL     OW90430   6.935   3.477   3.651  0.4219 -0.4898 -0.6902
28582SOL    HW190431   6.881   3.484   3.729  2.1603 -1.1358  0.6412
28582SOL    HW290432   6.873   3.468   3.579 -1.2395 -2.6354  0.8825
28583SOL     OW90433   8.499   9.904   1.491 -0.1968  0.5364  0.5768
28583SOL    HW190434   8.566   9.973   1.495  0.0921  0.2995 -0.0247
28583SOL    HW290435   8.427   9.943   1.442 -0.0810  0.4467  0.3373
28584SOL     OW90436   6.138   6.095   0.472 -0.4088 -0.4004 -0.0482
28584SOL    HW190437   6.113   6.183   0.443 -2.6610 -0.9700 -0.0770
28584SOL    HW290438   6.149   6.046   0.391 -2.0949 -0.8366 -0.0505
28585SOL     OW90439   9.328  10.795   1.503 -0.3241 -0.1177  0.0991
28585SOL    HW190440   9.407  10.750   1.533 -0.3972 -0.0140  0.4612
28585SOL    HW290441   9.340  10.807   1.409 -0.5817 -1.4587 -0.1220
28586SOL     OW90442   8.460   1.518   0.145  0.1359 -0.2397  0.0493
28586SOL    HW190443   8.503   1.526   0.060 -2.3412 -1.7092 -1.4802
28586SOL    HW290444   8.447   1.424   0.158 -1.8135  0.0590  0.7430
28587SOL     OW90445   9.688   6.975   2.160 -0.4022  0.0800 -0.2705
28587SOL    HW190446   9.659   7.026   2.085  1.3672 -0.3416 -1.2996
28587SOL    HW290447   9.761   7.025   2.197  1.8844 -1.9198 -1.7583
28588SOL     OW90448   5.870  10.586   6.992 -0.2286 -0.3623 -0.2724
28588SOL    HW190449   5.846  10.515   7.052  1.4333 -0.4462  0.3434
28588SOL    HW290450   5.937  10.548   6.936  1.1349  0.8549  0.4583
28589SOL     OW90451   9.150  10.470   7.840  0.1899 -0.2967 -0.5732
28589SOL    HW190452   9.215  10.539   7.826  0.1925 -0.1761  0.0003
28589SOL    HW290453   9.169  10.405   7.773  0.2167  0.2417 -1.0945
28590SOL     OW90454   9.431   9.844   5.108  0.2528  0.3928 -0.1397
28590SOL    HW190455   9.506   9.902   5.106  0.2487  0.3871 -1.0470
28590SOL    HW290456   9.355   9.902   5.095  0.0565  0.4496  1.1700
28591SOL     OW90457   7.043   5.498   0.994  0.6232  0.1058 -0.3705
28591SOL    HW190458   7.133   5.466   0.993  0.4898 -0.2809 -1.2715
28591SOL    HW290459   6.994   5.430   1.039  0.8474  0.5276  0.5263
28592SOL     OW90460   8.512   0.998   8.225  0.4330  0.4094 -0.3955
28592SOL    HW190461   8.471   1.082   8.204  0.7289  0.3065 -1.4507
28592SOL    HW290462   8.463   0.933   8.174  0.9826  0.0978 -0.5400
28593SOL     OW90463   7.115   4.564   9.919 -0.0585 -0.1643  0.1689
28593SOL    HW190464   7.100   4.556  10.013 -2.6203  0.6553 -0.0990
28593SOL    HW290465   7.156   4.650   9.908  0.3462 -0.3074  0.5076
28594SOL     OW90466   4.234   6.077   4.422  0.4973 -0.3735  0.2183
28594SOL    HW190467   4.323   6.049   4.443 -0.0738 -0.0791  3.5779
28594SOL    HW290468   4.235   6.171   4.437 -1.0386 -0.7543  3.6720
28595SOL     OW90469   3.312   8.524   0.037 -0.3922 -0.0218  0.1154
28595SOL    HW190470   3.316   8.477  -0.047 -0.5902  0.3079 -0.0797
28595SOL    HW290471   3.399   8.559   0.049 -0.0880 -0.8799  0.5211
28596SOL     OW90472   4.105   0.330   1.568  0.1651  0.1129  0.6196
28596SOL    HW190473   4.059   0.295   1.644 -2.5861 -0.1606 -1.0631
28596SOL    HW290474   4.074   0.420   1.561  1.6301  0.6547  0.6729
28597SOL     OW90475   3.645   2.328   0.348 -0.0805 -0.2668  0.0887
28597SOL    HW190476   3.668   2.370   0.431 -3.3521  1.5607  0.1941
28597SOL    HW290477   3.713   2.357   0.287  0.4637  1.2071  1.3276
28598SOL     OW90478   9.167   3.224   9.424  0.6430  0.7106  0.2912
28598SOL    HW190479   9.095   3.170   9.391  0.7453  0.0984  1.0615
28598SOL    HW290480   9.224   3.236   9.348 -0.6275  1.8468 -0.5401
28599SOL     OW90481   8.462   7.525  11.529  0.3658  0.2946 -0.4311
28599SOL    HW190482   8.516   7.521  11.450  1.6272 -0.5018  0.4327
28599SOL    HW290483   8.409   7.446  11.526  1.4686 -0.5027  0.2083
28600SOL     OW90484   2.800   2.114   1.860 -0.3152  0.2519  0.0758
28600SOL    HW190485   2.813   2.055   1.786  0.2567 -0.4073  0.6809
28600SOL    HW290486   2.889   2.130   1.893 -0.6901 -1.5654  2.2045
28601SOL     OW90487  11.798   0.944   2.915  0.3149  0.7207  0.3123
28601SOL    HW190488  11.815   0.957   2.822  1.2142  0.1876  0.3930
28601SOL    HW290489  11.779   0.850   2.923  1.3116  0.5484  0.8159
28602SOL     OW90490   8.003   3.400   7.658  0.1125  0.5650  0.6606
28602SOL    HW190491   8.012   3.394   7.753  0.6572 -1.5865  0.5146
28602SOL    HW290492   7.985   3.310   7.630  1.6959  0.8378 -1.4325
28603SOL     OW90493   8.632   4.141   6.628 -0.5234  0.2791 -0.0276
28603SOL    HW190494   8.588   4.221   6.599  0.1593  0.7377  0.1745
28603SOL    HW290495   8.704   4.172   6.683  2.2766 -0.1916 -3.1098
28604SOL     OW90496   4.848   9.979   4.424 -0.0719  0.0528 -0.2102
28604SOL    HW190497   4.856  10.073   4.440 -0.0507 -0.2091  1.5099
28604SOL    HW290498   4.758   9.958   4.449 -0.6707 -0.1215 -2.2891
28605SOL     OW90499   3.999   7.244  10.450 -0.9836 -0.0901 -0.0602
28605SOL    HW190500   3.933   7.261  10.383 -1.3818  1.5992  0.7096
28605SOL    HW290501   4.040   7.330  10.466 -0.0243 -0.7052  0.9498
28606SOL     OW90502   9.598  10.872   7.897  0.4768  0.5136 -0.0752
28606SOL    HW190503   9.644  10.819   7.832  0.3772 -1.2873  1.2321
28606SOL    HW290504   9.544  10.809   7.944  0.9733  1.6294  2.1117
28607SOL     OW90505  10.312   9.755  11.081 -0.1245  0.4740  0.4071
28607SOL    HW190506  10.278   9.827  11.135  0.6700 -0.0088  1.5956
28607SOL    HW290507  10.376   9.711  11.137 -0.7282 -1.2889 -0.2260
28608SOL     OW90508   7.258   0.249   8.503 -0.1469  0.4238 -0.1938
28608SOL    HW190509   7.233   0.157   8.494  0.9550  0.2980 -3.6172
28608SOL    HW290510   7.330   0.248   8.565  0.1181 -1.1175 -0.4712
28609SOL     OW90511   7.916  11.075   4.776 -0.9012 -0.2969  0.7175
28609SOL    HW190512   7.929  11.166   4.801 -1.9145  0.3484 -0.9363
28609SOL    HW290513   7.821  11.064   4.776 -0.8052 -1.2148  0.4382
28610SOL     OW90514  11.704   9.343   4.762  0.2131  0.2139  0.0186
28610SOL    HW190515  11.659   9.270   4.721 -2.7928  1.3665  0.9464
28610SOL    HW290516  11.635   9.409   4.776  1.6790  1.2637  3.6314
28611SOL     OW90517  10.572  11.276   5.395  0.2827  0.6151  0.3702
28611SOL    HW190518  10.522  11.356   5.380 -1.4707 -0.3480  0.8376
28611SOL    HW290519  10.603  11.250   5.308 -0.3130  1.0694  0.0151
28612SOL     OW90520   2.272   4.630   2.972 -0.0795 -0.0092 -0.0611
28612SOL    HW190521   2.308   4.549   2.937 -1.6450 -0.2614 -1.2371
28612SOL    HW290522   2.244   4.607   3.061  0.9159 -0.3080  0.1841
28613SOL     OW90523   3.061   7.883   9.437  0.5005  0.0445 -0.3933
28613SOL    HW190524   3.068   7.793   9.469  1.3101 -0.0378 -0.7883
28613SOL    HW290525   3.037   7.934   9.515 -0.2926 -0.5517 -0.2356
28614SOL     OW90526   1.108   8.594  10.727  0.0497  0.4920 -0.1648
28614SOL    HW190527   1.156   8.555  10.801 -0.9850  0.7903  0.6937
28614SOL    HW290528   1.146   8.681  10.718 -1.7188  1.5749  1.9579
28615SOL     OW90529   6.131   7.524   1.490 -0.0091 -0.4243 -0.3979
28615SOL    HW190530   6.043   7.497   1.515 -0.4354  0.1214 -1.2588
28615SOL    HW290531   6.186   7.502   1.565 -0.9642 -0.2916  0.3440
28616SOL     OW90532   5.738   5.763  10.671  0.1364  0.2339  0.3683
28616SOL    HW190533   5.826   5.756  10.707 -0.2696  1.3392  1.6041
28616SOL    HW290534   5.716   5.673  10.647  2.0912  0.0933 -1.2439
28617SOL     OW90535   2.305  10.438   2.333  0.2851 -0.1192  0.4395
28617SOL    HW190536   2.232  10.472   2.384  0.0553 -0.9813  0.7161
28617SOL    HW290537   2.274  10.353   2.301  1.3021 -0.7130  0.9401
28618SOL     OW90538   5.668   6.402  11.776 -0.2779 -0.1072 -0.3191
28618SOL    HW190539   5.608   6.463  11.733  0.1207  1.0109  0.6598
28618SOL    HW290540   5.740   6.457  11.806 -0.7685 -0.7297  2.1759
28619SOL     OW90541  10.685   8.764   6.416 -1.0818  0.6693  0.0803
28619SOL    HW190542  10.765   8.721   6.386  0.2093  2.6139  0.5221
28619SOL    HW290543  10.614   8.715   6.375  0.3660 -0.5252 -1.1117
28620SOL     OW90544   1.019  11.208   9.632 -0.2606 -0.1190  0.0858
28620SOL    HW190545   1.020  11.283   9.572  0.6937  1.4431  1.9763
28620SOL    HW290546   0.944  11.224   9.689  0.1649 -0.4157  0.7317
28621SOL     OW90547   1.016   2.486   5.410 -0.2894  0.3443 -0.4029
28621SOL    HW190548   0.951   2.424   5.378  0.9726 -0.6451 -1.0985
28621SOL    HW290549   1.013   2.477   5.505 -0.1050 -0.7817 -0.5007
28622SOL     OW90550   0.836   8.076   0.221  0.5715  0.7745 -0.2075
28622SOL    HW190551   0.867   8.156   0.263  0.7133 -0.3226  1.9428
28622SOL    HW290552   0.755   8.101   0.177  1.7289  2.5343 -1.4531
28623SOL     OW90553   2.963   3.308   9.870  0.2581  0.0905  0.3520
28623SOL    HW190554   2.872   3.309   9.839  0.2320  0.4918  0.4334
28623SOL    HW290555   2.976   3.396   9.907  0.8646  0.2323 -0.1960
28624SOL     OW90556   7.306   4.074  10.746  0.4382  0.3798  0.1541
28624SOL    HW190557   7.239   4.011  10.771 -0.8550  2.1442  1.4095
28624SOL    HW290558   7.385   4.022  10.734 -1.3861 -2.0158 -2.8869
28625SOL     OW90559   4.364  10.423   4.703  0.1310 -0.0916 -0.0900
28625SOL    HW190560   4.459  10.422   4.690  0.3457 -0.1855  1.3161
28625SOL    HW290561   4.341  10.516   4.706  0.6086  0.0019  2.1683
28626SOL     OW90562   0.825  11.435   4.620  0.4297 -0.3643  0.2025
28626SOL    HW190563   0.759  11.402   4.559 -0.5114 -0.1888  1.1061
28626SOL    HW290564   0.883  11.488   4.566  0.2076 -1.0295 -0.7175
28627SOL     OW90565   6.535  11.272  10.549 -0.2182 -0.0132 -0.0144
28627SOL    HW190566   6.513  11.198  10.605  0.8050 -0.7579 -0.5654
28627SOL    HW290567   6.475  11.264  10.474  1.8154 -2.0875 -1.5553
28628SOL     OW90568   7.135   0.877  10.277 -0.0474 -0.6547 -0.5624
28628SOL    HW190569   7.065   0.830  10.231  0.2492 -1.6032 -0.0512
28628SOL    HW290570   7.136   0.840  10.365  1.3076 -0.8905 -0.6510
28629SOL     OW90571   2.890   2.175   1.171  0.3101 -0.2772 -0.3273
28629SOL    HW190572   2.849   2.114   1.110 -0.4179 -0.3726  0.2323
28629SOL    HW290573   2.908   2.253   1.119 -0.8501 -0.1317 -0.5381
28630SOL     OW90574   4.645   8.157  11.755  0.2641  0.2532  0.8297
28630SOL    HW190575   4.680   8.099  11.687  1.0085  0.0609  1.3694
28630SOL    HW290576   4.637   8.102  11.832 -0.6066  0.4668  0.9019
28631SOL     OW90577   0.533  11.271   8.886  0.4030  0.3127 -0.6121
28631SOL    HW190578   0.510  11.262   8.794  0.4776 -1.1526 -0.4987
28631SOL    HW290579   0.462  11.323   8.923 -0.4595 -0.4326 -1.1760
28632SOL     OW90580   2.103   1.516   0.523 -0.1730 -0.1633 -0.1997
28632SOL    HW190581   2.052   1.592   0.494  0.6187 -0.3032 -2.0340
28632SOL    HW290582   2.148   1.485   0.445  1.0979 -1.3282  0.9397
28633SOL     OW90583   4.487   5.220  11.370 -0.2637  0.1500 -0.3793
28633SOL    HW190584   4.480   5.195  11.278  0.7272 -0.6393 -0.2611
28633SOL    HW290585   4.436   5.155  11.417 -0.3754  0.2723 -0.3297
28634SOL     OW90586  11.487   7.546   8.612 -0.4893 -0.0322  0.0053
28634SOL    HW190587  11.492   7.490   8.535  0.3422  1.2017 -0.8720
28634SOL    HW290588  11.393   7.563   8.624 -0.5745  0.6302 -1.4016
28635SOL     OW90589   2.375   6.565  10.042 -0.4301  0.1541 -0.2690
28635SOL    HW190590   2.310   6.612  10.095 -0.5280 -2.3022  2.0513
28635SOL    HW290591   2.455   6.566  10.095 -1.0380 -3.9847  1.1360
28636SOL     OW90592   5.185   3.667   1.263 -0.2218 -0.6746  0.0820
28636SOL    HW190593   5.223   3.717   1.190 -2.0497 -0.6664 -0.9272
28636SOL    HW290594   5.145   3.734   1.319 -1.2885 -0.8656 -0.4311
28637SOL     OW90595  11.822   4.232   1.920  0.1246  0.2451 -0.0671
28637SOL    HW190596  11.756   4.177   1.877  0.0183  0.8842 -0.7259
28637SOL    HW290597  11.860   4.283   1.850 -0.1818  1.4481  0.6197
28638SOL     OW90598   2.933  11.903   0.004  0.1609 -0.5270 -0.2515
28638SOL    HW190599   2.967  11.989   0.028  0.6518 -0.6833 -0.3601
28638SOL    HW290600   2.874  11.879   0.075  0.1910 -0.1941 -0.1147
28639SOL     OW90601   4.350   5.737   4.244 -0.1334 -0.2578 -0.0399
28639SOL    HW190602   4.372   5.719   4.153 -1.5672  0.8783 -0.6586
28639SOL    HW290603   4.419   5.797   4.274 -0.3665  0.4065 -0.8006
28640SOL     OW90604   2.310   4.057   1.301 -0.0154 -0.6120  0.1121
28640SOL    HW190605   2.264   4.002   1.363 -1.5197 -0.8863 -1.1742
28640SOL    HW290606   2.263   4.044   1.218  0.6727  1.2565 -0.6256
28641SOL     OW90607   2.951   1.258   9.013  0.2353  0.0467  0.2585
28641SOL    HW190608   2.968   1.342   8.971 -0.0509 -0.3318 -0.6292
28641SOL    HW290609   2.856   1.254   9.022  0.2336 -0.2555  0.1341
28642SOL     OW90610   7.963   1.680  10.763  0.3731 -0.3861  0.0654
28642SOL    HW190611   7.885   1.724  10.729 -1.5648 -0.8258  3.4691
28642SOL    HW290612   7.938   1.650  10.851  3.8908 -2.0101  0.7163
28643SOL     OW90613  11.862   8.258   5.684 -0.7840 -0.0087 -0.2807
28643SOL    HW190614  11.954   8.230   5.677 -0.1477  1.7631  0.4478
28643SOL    HW290615  11.834   8.269   5.593 -0.1389 -0.1576 -0.5069
28644SOL     OW90616   5.346   2.459  10.879  0.0843  0.7437 -0.4231
28644SOL    HW190617   5.279   2.474  10.813 -0.2724 -0.0699 -0.2488
28644SOL    HW290618   5.298   2.442  10.960  0.5165  2.0325  0.1362
28645SOL     OW90619   8.998   1.181   6.824  0.1578  0.2125  0.0519
28645SOL    HW190620   8.907   1.205   6.841 -0.3201  1.1951 -3.1296
28645SOL    HW290621   9.000   1.086   6.832 -1.0275  0.2125  0.5830
28646SOL     OW90622  10.859  11.914   3.056  0.5392 -0.3730  0.2502
28646SOL    HW190623  10.798  11.879   3.121  0.4608  1.0480  0.9668
28646SOL    HW290624  10.806  11.927   2.977  0.1034  0.0848  0.6198
28647SOL     OW90625   5.948   1.870   1.122 -0.0838 -0.0645  0.1190
28647SOL    HW190626   6.016   1.823   1.169 -0.7304 -1.4410 -0.2626
28647SOL    HW290627   5.897   1.802   1.078 -0.3248  1.0638 -1.4680
28648SOL     OW90628   6.362   4.737   1.086  0.3059  0.3612  0.2448
28648SOL    HW190629   6.381   4.719   1.178  1.6837  2.3796  0.4057
28648SOL    HW290630   6.426   4.684   1.038 -0.8744 -1.2504  0.3675
28649SOL     OW90631  10.732   2.526   7.447 -0.2636  0.4363 -0.4933
28649SOL    HW190632  10.643   2.496   7.427 -0.7766  1.8630 -0.4605
28649SOL    HW290633  10.729   2.621   7.435  1.2718  0.5122 -0.5141
28650SOL     OW90634   1.597   2.315  11.122  0.3946  0.2329  0.2483
28650SOL    HW190635   1.623   2.379  11.189  0.0241 -0.5741  1.1905
28650SOL    HW290636   1.524   2.357  11.076  0.4123  0.6559  0.5930
28651SOL     OW90637   1.780   5.717   2.505  0.4079  0.4850  0.5345
28651SOL    HW190638   1.716   5.784   2.529  0.4200  0.9490 -0.6478
28651SOL    HW290639   1.820   5.750   2.424  0.8667 -0.6508  0.2755
28652SOL     OW90640   7.488   3.585   5.155  0.2449  0.8932  0.1711
28652SOL    HW190641   7.404   3.571   5.197 -0.0975  0.8618 -0.5070
28652SOL    HW290642   7.468   3.637   5.077  0.5534 -0.7889 -1.0928
28653SOL     OW90643   9.393   4.629   4.114 -0.0638 -0.2709  0.2747
28653SOL    HW190644   9.424   4.688   4.046 -0.7384 -1.2644 -0.9474
28653SOL    HW290645   9.468   4.573   4.134  0.0716 -0.1160  0.1987
28654SOL     OW90646   7.748   2.268   1.884  0.4578 -0.0013 -0.1071
28654SOL    HW190647   7.811   2.293   1.952  0.7563 -0.9212 -0.0310
28654SOL    HW290648   7.803   2.243   1.809  0.2894 -2.4367  0.5109
28655SOL     OW90649   7.148   5.105   9.488  0.3144  0.1690 -0.2095
28655SOL    HW190650   7.228   5.134   9.443 -0.6941 -0.3969 -2.4575
28655SOL    HW290651   7.132   5.174   9.553  2.3811  0.5056  0.0110
28656SOL     OW90652   2.838   6.923   1.264  0.2476 -0.1660  0.6563
28656SOL    HW190653   2.847   6.878   1.180 -1.1350 -0.7239  0.7906
28656SOL    HW290654   2.757   6.973   1.256 -0.2241 -0.6967  1.8514
28657SOL     OW90655   8.830   7.953   2.274 -0.1719 -0.2030  0.4903
28657SOL    HW190656   8.761   8.002   2.230 -1.6979 -0.4407  2.4988
28657SOL    HW290657   8.909   7.972   2.223 -1.6368  0.2380 -1.7582
28658SOL     OW90658   3.791   4.781   1.687  0.4764 -0.5212 -0.2335
28658SOL    HW190659   3.813   4.808   1.598 -2.1846 -0.4369 -0.9451
28658SOL    HW290660   3.785   4.864   1.736  0.7353 -0.4767 -0.2762
28659SOL     OW90661   3.300   2.018   9.154  0.4512  0.2679 -0.4827
28659SOL    HW190662   3.287   1.974   9.070  2.8682 -0.3912 -0.5698
28659SOL    HW290663   3.241   2.094   9.150 -1.2563 -1.0404 -1.7489
28660SOL     OW90664   5.791   2.121   1.791  0.4123 -0.1635  0.1357
28660SOL    HW190665   5.792   2.213   1.765  0.4860 -0.2414 -0.1380
28660SOL    HW290666   5.755   2.075   1.715  0.3321 -0.3559  0.2895
28661SOL     OW90667  11.997   4.007   9.692 -0.1921 -0.1401  0.4183
28661SOL    HW190668  11.950   3.972   9.616  0.3417  0.1024 -0.0345
28661SOL    HW290669  12.076   4.047   9.654 -0.0234  0.1621  1.0829
28662SOL     OW90670   5.171   7.040   9.522 -0.2128 -0.3982  0.4930
28662SOL    HW190671   5.119   6.970   9.481  1.0395 -0.3700 -1.2784
28662SOL    HW290672   5.238   6.994   9.572 -0.9183 -0.4283  1.4468
28663SOL     OW90673  11.350   3.401   3.493  1.0472  0.4134  0.5849
28663SOL    HW190674  11.409   3.471   3.520  1.3009  0.2401  0.4803
28663SOL    HW290675  11.294   3.441   3.426 -0.6726  1.3338  2.4532
28664SOL     OW90676   3.134  10.428   1.324  0.7840  0.5309  0.2311
28664SOL    HW190677   3.208  10.488   1.335  0.9725  0.5160 -0.8032
28664SOL    HW290678   3.057  10.484   1.329  0.8579  0.5636  1.2064
28665SOL     OW90679   3.083   8.244   5.170  0.1448 -0.1201 -0.3753
28665SOL    HW190680   3.163   8.280   5.210  0.7518  0.9802 -2.3939
28665SOL    HW290681   3.109   8.225   5.079 -1.4186 -1.5118 -0.5741
28666SOL     OW90682   0.455   6.355   9.565 -0.0823  0.1704 -0.0247
28666SOL    HW190683   0.384   6.310   9.612  0.4431 -0.5358  0.1067
28666SOL    HW290684   0.448   6.446   9.593 -0.8856  0.0913  0.0578
28667SOL     OW90685   1.528   8.164  10.940 -0.0535  0.5408 -0.2984
28667SOL    HW190686   1.575   8.215  10.874  1.1724 -1.2866 -0.9418
28667SOL    HW290687   1.475   8.102  10.890  0.1565 -0.2382  0.4052
28668SOL     OW90688   6.474   2.624   6.246  1.1769  0.2779  0.0571
28668SOL    HW190689   6.553   2.645   6.296  0.6141  0.3529  0.9363
28668SOL    HW290690   6.423   2.705   6.249  0.7186 -0.0148  0.1733
28669SOL     OW90691   4.030   6.931   5.144 -0.1867 -0.8452  0.2339
28669SOL    HW190692   3.949   6.934   5.092 -1.2194  1.5617  1.8425
28669SOL    HW290693   4.093   6.982   5.093  0.1198 -2.0556 -0.6381
28670SOL     OW90694   6.878   2.773   3.495 -0.0938 -0.3976  0.4780
28670SOL    HW190695   6.838   2.856   3.468 -0.2686 -1.4376 -2.9508
28670SOL    HW290696   6.832   2.706   3.444  0.5997 -2.5814  2.4948
28671SOL     OW90697   1.434  11.802   1.213 -0.0164  0.5545  0.2710
28671SOL    HW190698   1.358  11.859   1.226 -0.5041 -0.1865  0.7535
28671SOL    HW290699   1.421  11.765   1.126 -0.0675  0.6465  0.2392
28672SOL     OW90700   9.670  11.137   4.259  0.3227 -0.3443 -0.2827
28672SOL    HW190701   9.710  11.189   4.328 -0.8923 -0.2832  0.4140
28672SOL    HW290702   9.576  11.155   4.268 -0.3224 -3.5590  0.8274
28673SOL     OW90703   5.999   0.131  10.553  0.0574  0.0545  0.0478
28673SOL    HW190704   6.048   0.197  10.504  2.0608 -0.6574  0.9761
28673SOL    HW290705   5.975   0.066  10.487 -0.9095  1.1099 -0.6674
28674SOL     OW90706   8.265   0.095   1.392  0.2273  0.2645  0.1968
28674SOL    HW190707   8.196   0.119   1.330  0.5002  2.1632  0.5698
28674SOL    HW290708   8.250   0.002   1.410 -2.4210  0.6610  0.4683
28675SOL     OW90709   5.063   1.968   6.438 -0.1050 -0.2947 -0.3143
28675SOL    HW190710   5.137   1.994   6.493 -0.2803 -0.7136  0.1300
28675SOL    HW290711   5.072   2.022   6.359  1.1793 -0.9675 -0.6590
28676SOL     OW90712   3.329   9.819   5.247  0.7091  0.1799  0.1380
28676SOL    HW190713   3.314   9.744   5.303 -1.5370  0.4786  0.0399
28676SOL    HW290714   3.278   9.890   5.287  1.3036  1.1649 -0.7704
28677SOL     OW90715   0.192  10.831   3.451  0.3204 -0.2733  0.1017
28677SOL    HW190716   0.140  10.863   3.524 -0.5727 -1.3875 -0.0146
28677SOL    HW290717   0.130  10.783   3.396  1.1860 -0.3968 -0.8089
28678SOL     OW90718  11.901   0.478   5.911 -0.5181  0.3861  0.2780
28678SOL    HW190719  11.919   0.507   5.821 -1.9730 -1.0505 -0.5306
28678SOL    HW290720  11.847   0.547   5.948 -1.8314 -0.0248 -0.7686
28679SOL     OW90721   2.970   8.579   9.001  0.0144  0.4452  0.0125
28679SOL    HW190722   2.955   8.672   9.020  1.4527  1.0049 -1.3641
28679SOL    HW290723   2.974   8.575   8.905  2.5268 -0.5647  0.1005
28680SOL     OW90724   4.782   9.683   9.036  0.2517 -0.2462 -0.7893
28680SOL    HW190725   4.694   9.713   9.010 -0.1102 -1.6725 -1.3306
28680SOL    HW290726   4.767   9.597   9.074  1.3193 -0.0468  0.1196
28681SOL     OW90727   8.554   1.352   3.460  0.3859  0.0281  0.0576
28681SOL    HW190728   8.618   1.351   3.389 -0.7937 -0.0688 -1.0341
28681SOL    HW290729   8.606   1.338   3.539  1.7928  0.6618 -0.7199
28682SOL     OW90730   5.031  10.236   0.671  0.3261  0.2635 -0.4134
28682SOL    HW190731   4.995  10.315   0.631  1.8411  0.8997 -0.6171
28682SOL    HW290732   4.959  10.198   0.721 -0.4768  1.7040 -0.4345
28683SOL     OW90733   2.546   8.391  11.538  0.0787 -0.5774 -0.0708
28683SOL    HW190734   2.549   8.326  11.469 -4.3072 -0.7947 -0.3058
28683SOL    HW290735   2.566   8.474  11.494  2.6469 -1.2665 -0.3649
28684SOL     OW90736   0.850   2.435   4.818  0.2598 -0.1529  0.3405
28684SOL    HW190737   0.923   2.411   4.874 -0.5278  0.7540  1.8158
28684SOL    HW290738   0.858   2.529   4.807 -1.0641  0.0644  1.0976
28685SOL     OW90739   1.458   6.362   8.566  0.0544  0.1290  0.0374
28685SOL    HW190740   1.454   6.344   8.660  2.8469 -4.1251 -0.4074
28685SOL    HW290741   1.525   6.430   8.558  0.3609 -0.0273  1.1024
28686SOL     OW90742   5.715   1.026  11.151 -0.1973 -0.4471 -0.4575
28686SOL    HW190743   5.668   1.042  11.070  0.9236  0.5539 -0.9459
28686SOL    HW290744   5.708   1.108  11.200 -1.3582 -1.2228  0.7471
28687SOL     OW90745   7.246   5.064   4.468  0.1812  1.1132 -0.3947
28687SOL    HW190746   7.193   5.073   4.389  0.6034 -1.6663 -1.1234
28687SOL    HW290747   7.193   5.103   4.538 -1.8531  0.4169 -1.4694
28688SOL     OW90748   6.604  10.090   8.068  0.1939 -0.0307 -0.0647
28688SOL    HW190749   6.640  10.117   8.152 -1.7072 -0.5327  0.9810
28688SOL    HW290750   6.557  10.168   8.036  0.4417 -0.0158 -0.4044
28689SOL     OW90751   2.301  10.201  11.229  0.3197  0.0673 -0.4219
28689SOL    HW190752   2.216  10.163  11.206  0.0599 -0.5098  1.3533
28689SOL    HW290753   2.279  10.279  11.280  0.8677  0.0113 -0.1023
28690SOL     OW90754   4.542   7.203   5.057  0.0046  0.0796  0.2324
28690SOL    HW190755   4.503   7.212   4.970 -0.4167  0.4141  0.4493
28690SOL    HW290756   4.524   7.113   5.083 -1.1846  0.4042  0.5854
28691SOL     OW90757   5.486   1.063   1.889 -0.3451 -0.2427  0.4609
28691SOL    HW190758   5.495   1.001   1.817  1.2928 -0.5617  0.9103
28691SOL    HW290759   5.510   1.148   1.852  0.1846 -0.3530  0.5537
28692SOL     OW90760   3.016  10.036   4.131 -0.0048 -0.2614  0.0409
28692SOL    HW190761   2.997   9.964   4.190  0.5328 -1.4685 -1.2094
28692SOL    HW290762   3.019  10.114   4.188 -0.6175 -1.1983  1.4022
28693SOL     OW90763   1.676   0.203   6.179  0.0145 -0.3764  0.0182
28693SOL    HW190764   1.601   0.218   6.237  0.4828 -0.2841  0.6051
28693SOL    HW290765   1.687   0.108   6.178 -0.2550 -0.4048 -0.2522
28694SOL     OW90766   6.832  11.406   4.797  0.1014  0.1871  0.1801
28694SOL    HW190767   6.899  11.473   4.804  1.3037 -0.9129 -0.3342
28694SOL    HW290768   6.759  11.439   4.849  0.9523  1.5100  0.5776
28695SOL     OW90769   4.954   5.594   5.759  0.5484  0.0087 -0.4018
28695SOL    HW190770   4.910   5.555   5.684 -0.4698 -0.0778  0.2218
28695SOL    HW290771   5.029   5.536   5.775  0.5187 -0.2243 -1.0713
28696SOL     OW90772   2.637   5.090   3.569 -0.0208 -0.1711  0.5831
28696SOL    HW190773   2.558   5.104   3.516 -0.5091  0.5475  1.4767
28696SOL    HW290774   2.655   4.997   3.561 -1.3363 -0.4661  0.8758
28697SOL     OW90775  11.496   3.235   8.413  0.5521  0.3459 -0.1584
28697SOL    HW190776  11.405   3.263   8.408  0.5731  0.6658  0.8929
28697SOL    HW290777  11.517   3.241   8.506  1.1719 -1.2824 -0.1748
28698SOL     OW90778   5.113   1.775   5.427  0.3994 -0.2361  0.1212
28698SOL    HW190779   5.181   1.712   5.403 -0.8411 -1.1241 -1.1929
28698SOL    HW290780   5.159   1.859   5.429  1.4829 -0.7570 -1.0732
28699SOL     OW90781   7.279   5.542   4.360 -0.3505  0.4124 -0.0595
28699SOL    HW190782   7.201   5.491   4.382 -0.9343  1.4618  0.3894
28699SOL    HW290783   7.287   5.606   4.430  0.7135  0.5643 -0.2921
28700SOL     OW90784   0.297   2.003   5.674  0.1894  0.2092  0.0678
28700SOL    HW190785   0.286   1.908   5.666  1.6225 -0.2026  2.2142
28700SOL    HW290786   0.336   2.029   5.590  0.8531 -1.2985 -0.1323
28701SOL     OW90787  11.367  10.985   5.362  0.0564 -1.1578  0.4546
28701SOL    HW190788  11.382  11.042   5.437 -0.8128 -0.3736  0.0519
28701SOL    HW290789  11.452  10.943   5.347  0.6433 -0.1925  0.9474
28702SOL     OW90790   6.076   2.555   3.252  0.2421 -0.2598 -0.1037
28702SOL    HW190791   6.089   2.526   3.342 -1.6384 -1.7624 -0.2442
28702SOL    HW290792   5.982   2.577   3.247  0.5906  1.1351 -1.3480
28703SOL     OW90793   4.556   9.730   6.233 -0.2094 -0.3810  0.2230
28703SOL    HW190794   4.519   9.665   6.292  0.4796  0.3944  1.5600
28703SOL    HW290795   4.490   9.800   6.232  0.1699 -0.0031  0.8067
28704SOL     OW90796   1.117   9.260   6.537 -0.3669  0.2727  0.7127
28704SOL    HW190797   1.132   9.184   6.593 -1.0855  1.0172  1.9773
28704SOL    HW290798   1.177   9.249   6.463 -0.6249 -1.6180  0.7560
28705SOL     OW90799   1.993   9.900   3.374  0.5482 -0.5267  0.0225
28705SOL    HW190800   2.043   9.827   3.409  3.3250  0.6144 -1.2716
28705SOL    HW290801   2.054   9.973   3.372 -0.5473  0.5067 -3.3570
28706SOL     OW90802   6.785   8.353   3.534 -0.2895  0.0002 -0.2061
28706SOL    HW190803   6.835   8.334   3.454  1.7853 -0.0940  1.0258
28706SOL    HW290804   6.815   8.288   3.598  1.7137  2.8277  2.0107
28707SOL     OW90805  10.819   9.531   2.032  0.3102  0.6053  0.0785
28707SOL    HW190806  10.862   9.473   1.969  0.6857 -0.1437  0.9918
28707SOL    HW290807  10.727   9.507   2.029  0.6252 -0.9624  1.3328
28708SOL     OW90808  10.262  11.790   7.747 -0.8802 -0.1867 -0.0380
28708SOL    HW190809  10.274  11.756   7.835 -2.1350 -1.1170 -0.2034
28708SOL    HW290810  10.174  11.764   7.722 -0.1448 -1.0314 -2.0346
28709SOL     OW90811   3.489   4.205   5.000 -0.2285  0.5610  0.6444
28709SOL    HW190812   3.575   4.200   4.957 -0.5908 -0.0200 -0.0332
28709SOL    HW290813   3.491   4.135   5.065 -0.2066  0.5130  0.5928
28710SOL     OW90814   4.623   6.436   2.529 -0.0058  0.2190 -0.9700
28710SOL    HW190815   4.592   6.445   2.619  0.3830  2.1228 -1.0026
28710SOL    HW290816   4.648   6.343   2.522 -0.1148  0.0168  0.8443
28711SOL     OW90817  11.692   6.580   5.378 -0.2068  0.4276 -0.2287
28711SOL    HW190818  11.770   6.636   5.368 -1.6176  2.6115  0.2499
28711SOL    HW290819  11.670   6.555   5.288  1.8997 -1.5933 -0.2810
28712SOL     OW90820   3.962   7.044   3.501 -0.1064  0.3110  0.1792
28712SOL    HW190821   3.974   7.110   3.433 -0.3219  0.1705  0.0034
28712SOL    HW290822   3.995   7.085   3.581 -1.1368  0.9980  0.2768
28713SOL     OW90823   0.031   1.202   4.868  0.1439 -0.0482 -0.0551
28713SOL    HW190824  -0.053   1.189   4.825  0.6513  0.1862 -1.1825
28713SOL    HW290825   0.095   1.193   4.797  0.8938  2.4286  0.1878
28714SOL     OW90826   1.096   0.401   1.758  0.1978 -0.4175 -0.7322
28714SOL    HW190827   1.103   0.446   1.674  0.0951  0.9150 -0.0372
28714SOL    HW290828   1.182   0.410   1.798  0.2364 -1.0224 -0.6665
28715SOL     OW90829   2.531   4.357  10.988 -0.4688  0.4045  0.0622
28715SOL    HW190830   2.492   4.424  11.045  0.2541  0.3414  0.6439
28715SOL    HW290831   2.505   4.384  10.899 -1.0356  0.8865  0.3626
28716SOL     OW90832   3.735   1.616  11.785  0.0710  0.0300 -0.1338
28716SOL    HW190833   3.654   1.618  11.735  0.2419  0.5735 -0.4025
28716SOL    HW290834   3.765   1.526  11.779 -0.0961  0.0099 -0.7169
28717SOL     OW90835   3.863   6.476   3.297  0.2222 -0.3981 -0.8916
28717SOL    HW190836   3.938   6.481   3.237 -1.1703  0.9475 -2.6510
28717SOL    HW290837   3.877   6.549   3.358  0.4862 -0.3320 -1.0281
28718SOL     OW90838   5.052  10.406   5.263  0.6527 -0.1242  0.3498
28718SOL    HW190839   5.065  10.487   5.312  0.7864  0.7028 -1.0016
28718SOL    HW290840   5.068  10.337   5.326 -0.9527  0.8732  1.9682
28719SOL     OW90841   8.832   7.191   6.965  0.1009  0.3063  0.1077
28719SOL    HW190842   8.881   7.145   6.897  0.4095 -0.4299  0.8127
28719SOL    HW290843   8.815   7.125   7.032 -2.2950  0.3979 -0.3143
28720SOL     OW90844   0.512   8.543  11.284 -0.4466  0.3311  0.2580
28720SOL    HW190845   0.561   8.558  11.203 -0.2371 -1.7063 -0.0308
28720SOL    HW290846   0.431   8.593  11.273 -0.7445 -0.4865 -1.5373
28721SOL     OW90847   2.818  11.546   2.378  0.1473  0.0614  0.5027
28721SOL    HW190848   2.896  11.509   2.337  1.1750  2.5970 -0.0067
28721SOL    HW290849   2.838  11.546   2.472  1.3574  1.8701  0.2796
28722SOL     OW90850   3.954   0.679   5.342  0.4056  0.4978 -0.0938
28722SOL    HW190851   3.952   0.597   5.293 -1.2274 -0.6509  1.7321
28722SOL    HW290852   3.984   0.744   5.278  2.1317 -1.5217 -1.5208
28723SOL     OW90853   8.990   4.997   2.641 -0.0446  0.4903  0.2570
28723SOL    HW190854   9.000   4.992   2.737  2.4091 -0.4297  0.0258
28723SOL    HW290855   8.960   4.910   2.616 -0.4921  0.6721  0.1531
28724SOL     OW90856   9.446   5.369   5.817  0.6062  0.2483  0.0980
28724SOL    HW190857   9.376   5.427   5.847 -0.3802  0.1000 -1.7102
28724SOL    HW290858   9.441   5.293   5.875  0.7004  1.1713  1.3364
28725SOL     OW90859   2.151  11.080   8.120  0.1918 -0.0089 -0.3465
28725SOL    HW190860   2.210  11.155   8.111  1.5524 -1.1036 -1.0234
28725SOL    HW290861   2.195  11.022   8.184 -0.4220 -0.5897 -0.4381
28726SOL     OW90862   9.263   6.369   7.622  0.5229 -0.3108 -0.4054
28726SOL    HW190863   9.282   6.300   7.558 -0.4384 -1.4563  0.4984
28726SOL    HW290864   9.268   6.325   7.707 -2.4768  0.0667  0.0954
28727SOL     OW90865   5.064   5.505  10.934 -0.3397  0.3648 -0.1361
28727SOL    HW190866   5.019   5.576  10.888  2.7235  1.6912 -1.2910
28727SOL    HW290867   5.075   5.436  10.868 -0.2701  0.2127  0.0322
28728SOL     OW90868   0.907   2.734   0.414 -0.3230 -0.3147 -0.2375
28728SOL    HW190869   0.888   2.654   0.365  1.2006  0.2480 -1.8519
28728SOL    HW290870   0.857   2.802   0.369 -2.0812 -0.3743  1.4852
28729SOL     OW90871   9.466   0.746   1.983  0.1364  0.5381 -0.2400
28729SOL    HW190872   9.390   0.793   2.017 -1.4746 -1.5652 -0.7063
28729SOL    HW290873   9.540   0.784   2.029 -1.3358  1.7483  1.2706
28730SOL     OW90874   9.454   0.391   5.273 -0.0146 -0.8612  0.4223
28730SOL    HW190875   9.458   0.464   5.210  0.1649 -0.0747  1.3251
28730SOL    HW290876   9.429   0.315   5.220  0.4343 -0.2785 -0.6468
28731SOL     OW90877   0.727   5.964  11.010 -0.3561 -0.0552 -0.1849
28731SOL    HW190878   0.668   5.893  10.985 -0.9333  0.6731 -0.9950
28731SOL    HW290879   0.810   5.944  10.967  0.2100 -1.4130  1.4693
28732SOL     OW90880   7.073   2.142   5.990  0.2608 -0.4964  0.1073
28732SOL    HW190881   6.992   2.139   6.041  1.3308 -0.6251  1.8814
28732SOL    HW290882   7.054   2.200   5.917 -1.2131  0.0391  0.8880
28733SOL     OW90883  11.351   9.068   3.401 -0.3259 -0.2116 -0.0416
28733SOL    HW190884  11.363   8.985   3.447  1.4280  0.4809  0.8247
28733SOL    HW290885  11.439   9.098   3.381 -0.7258  2.6315  1.8597
28734SOL     OW90886   2.539   3.042   5.747  0.9878  0.0381 -0.2192
28734SOL    HW190887   2.508   3.034   5.657  1.3944  0.1580 -0.3703
28734SOL    HW290888   2.523   2.956   5.785 -1.6057  0.6938  0.3828
28735SOL     OW90889   0.636  10.265   6.310 -0.0441  0.0421  0.2977
28735SOL    HW190890   0.608  10.355   6.330  0.6968  0.1679  0.7917
28735SOL    HW290891   0.634  10.220   6.394  0.4852 -0.1573  0.2019
28736SOL     OW90892   9.542   6.438   9.847  0.0171 -0.2595  0.1562
28736SOL    HW190893   9.447   6.428   9.836 -0.0481 -1.3664  1.5634
28736SOL    HW290894   9.568   6.366   9.905  1.6334  0.3588  0.2490
28737SOL     OW90895   5.198  10.121   6.345 -0.4523  0.1557 -0.8894
28737SOL    HW190896   5.119  10.170   6.323 -0.3255  0.4277 -0.7455
28737SOL    HW290897   5.183  10.033   6.311 -2.2423 -0.8209  2.0695
28738SOL     OW90898   7.930   9.212   8.803 -0.4202  0.1896 -0.2371
28738SOL    HW190899   7.890   9.298   8.792  0.9420  1.1018  1.4053
28738SOL    HW290900   7.875   9.153   8.752 -0.9797  2.1299 -2.0159
28739SOL     OW90901   7.555   4.542   8.090 -0.3524  0.5204  0.3592
28739SOL    HW190902   7.577   4.635   8.101 -0.2277  0.7233 -1.3446
28739SOL    HW290903   7.507   4.538   8.007  1.0161 -1.1300 -0.4277
28740SOL     OW90904   2.647   4.513  10.135  0.1373 -0.7305  0.2708
28740SOL    HW190905   2.554   4.536  10.133  0.2260 -0.4189 -1.1258
28740SOL    HW290906   2.651   4.435  10.190 -0.7182  0.1959  1.6932
28741SOL     OW90907   4.041   1.270   9.235 -0.3368 -0.4398  0.5580
28741SOL    HW190908   4.021   1.337   9.300  1.0730  0.5306  0.0455
28741SOL    HW290909   4.136   1.256   9.244 -0.1271 -0.3569 -1.1942
28742SOL     OW90910  10.066   7.470   3.659  0.0913  0.4485 -0.2613
28742SOL    HW190911  10.071   7.378   3.686 -0.3706  0.7321  0.8302
28742SOL    HW290912  10.134   7.479   3.593  0.6711 -0.4901  0.1861
28743SOL     OW90913  11.603   0.487   2.859 -0.5793 -0.2950  0.3612
28743SOL    HW190914  11.550   0.526   2.929 -0.6424 -1.8466  1.2194
28743SOL    HW290915  11.575   0.396   2.856  1.4988 -0.9813  0.3130
28744SOL     OW90916  11.577   6.746   1.256  0.0002 -0.1006 -0.0375
28744SOL    HW190917  11.555   6.804   1.184  1.6271  1.6985  0.8316
28744SOL    HW290918  11.534   6.783   1.333 -0.8145 -1.3687  0.1565
28745SOL     OW90919   9.832   3.972   3.371  0.0641  0.2841  0.4797
28745SOL    HW190920   9.874   4.029   3.306 -2.2546  0.7325 -0.7433
28745SOL    HW290921   9.905   3.935   3.421  1.7761  2.5660 -0.1397
28746SOL     OW90922  11.182   4.864   1.680 -0.0505  0.5469 -0.0859
28746SOL    HW190923  11.183   4.907   1.595 -0.3596  2.3074  0.7588
28746SOL    HW290924  11.273   4.861   1.708  0.0741 -0.2240 -0.5578
28747SOL     OW90925   9.431   9.964   5.615  0.1983 -0.8657  0.2677
28747SOL    HW190926   9.429  10.030   5.685 -0.1580 -2.9548  2.3599
28747SOL    HW290927   9.513   9.981   5.568  0.0101  1.1651  0.6097
28748SOL     OW90928   1.883   0.829   9.455 -0.0430 -0.7012  0.2416
28748SOL    HW190929   1.920   0.806   9.370 -0.5485  0.6479 -0.3744
28748SOL    HW290930   1.801   0.780   9.461  0.4676 -1.5514  0.3962
28749SOL     OW90931   3.929   5.330   6.418  0.2024 -0.4227 -0.4578
28749SOL    HW190932   3.854   5.331   6.359  0.6600  1.6273 -1.0839
28749SOL    HW290933   4.003   5.354   6.362  0.7485  0.9619  0.8074
28750SOL     OW90934   5.183   4.300   5.691 -0.7784  0.0288 -0.2235
28750SOL    HW190935   5.262   4.249   5.672  0.3909  0.3642  3.0393
28750SOL    HW290936   5.122   4.236   5.728 -0.6479  0.3268  0.5376
28751SOL     OW90937  10.021  11.504   6.485 -0.3007 -0.4453 -0.5814
28751SOL    HW190938  10.038  11.544   6.570  0.2935  1.9866 -1.7439
28751SOL    HW290939   9.936  11.539   6.459  0.9466  1.5239 -2.3296
28752SOL     OW90940   9.090   6.643   3.333 -0.5829  0.3010  0.1337
28752SOL    HW190941   9.117   6.551   3.331  0.0627  0.4881 -1.7966
28752SOL    HW290942   9.171   6.692   3.320 -1.1235  1.0868 -0.3277
28753SOL     OW90943   0.822   0.099   1.606 -0.4148 -0.4701 -0.6225
28753SOL    HW190944   0.789   0.034   1.668 -0.9478 -0.5130 -0.9447
28753SOL    HW290945   0.917   0.098   1.619 -0.6731  1.9754  2.6388
28754SOL     OW90946   1.516   3.642   9.002 -0.3603  0.4241  0.3326
28754SOL    HW190947   1.440   3.654   9.059 -0.9913 -1.7643  0.0225
28754SOL    HW290948   1.591   3.642   9.061 -0.7035  1.2300  0.7886
28755SOL     OW90949   1.367   3.618   0.416 -0.2287 -0.0757  0.1249
28755SOL    HW190950   1.426   3.543   0.417 -0.5354 -0.3264  0.9870
28755SOL    HW290951   1.417   3.688   0.458 -0.3269 -0.1136  0.3061
28756SOL     OW90952   2.297   3.832   4.098 -0.3337  0.3422  0.4014
28756SOL    HW190953   2.381   3.878   4.093  0.0536 -0.0548  2.3478
28756SOL    HW290954   2.300   3.786   4.182 -1.9347 -0.8271 -0.1301
28757SOL     OW90955   5.706  11.343   5.551  0.2566  1.0624 -0.2375
28757SOL    HW190956   5.649  11.302   5.616  1.4878 -1.3920 -0.6033
28757SOL    HW290957   5.771  11.391   5.602  0.1640  0.6322  0.2923
28758SOL     OW90958   5.835   6.165   2.924  0.0363  0.6123  0.1093
28758SOL    HW190959   5.868   6.129   2.841  1.4101 -0.4184  1.0478
28758SOL    HW290960   5.740   6.165   2.914  0.0514 -1.7038 -0.6197
28759SOL     OW90961   8.716   6.436   2.029 -0.2890  0.3778 -0.1294
28759SOL    HW190962   8.723   6.379   1.953  0.8329  2.5132 -1.7306
28759SOL    HW290963   8.632   6.480   2.020 -1.3132 -1.1652  1.2878
28760SOL     OW90964   1.917   8.010   6.682  0.1810 -0.3263  0.6190
28760SOL    HW190965   1.950   8.068   6.613  2.1690  0.6637  2.2857
28760SOL    HW290966   1.851   7.956   6.638  2.5511 -1.0182 -2.5377
28761SOL     OW90967   1.866   2.304   3.863  0.1326 -0.7967  0.0540
28761SOL    HW190968   1.958   2.326   3.880 -0.5927  0.4004  3.0752
28761SOL    HW290969   1.855   2.216   3.898 -0.1751 -0.3666  1.0683
28762SOL     OW90970   4.226   2.612   9.731  0.0394 -0.1927 -0.3050
28762SOL    HW190971   4.251   2.532   9.777 -2.6249 -0.2251  1.2719
28762SOL    HW290972   4.270   2.606   9.646  0.6278 -2.8684  0.1179
28763SOL     OW90973   3.343  10.224   7.492  0.1277  0.0219 -0.1662
28763SOL    HW190974   3.399  10.253   7.420 -0.1908 -1.4370 -1.0528
28763SOL    HW290975   3.334  10.300   7.549  3.6148  0.1523  0.4165
28764SOL     OW90976  11.098   1.327   5.889 -0.2190 -0.4636 -0.1340
28764SOL    HW190977  11.104   1.322   5.793 -0.3770 -1.2840 -0.1027
28764SOL    HW290978  11.004   1.329   5.907 -0.2028 -1.1882  0.0458
28765SOL     OW90979   4.382  10.899   6.405 -0.0108 -0.2773  0.0425
28765SOL    HW190980   4.389  10.807   6.380 -1.9979 -0.3947 -0.2651
28765SOL    HW290981   4.353  10.943   6.325  0.7503  0.6143  0.2332
28766SOL     OW90982   9.625   0.806   8.618  0.6009 -0.1101  0.0364
28766SOL    HW190983   9.708   0.829   8.576  0.2851  0.4143 -0.3069
28766SOL    HW290984   9.650   0.771   8.703  1.1245  1.0692  0.3852
28767SOL     OW90985   9.394   1.948   7.523 -0.4358 -0.6053 -0.4315
28767SOL    HW190986   9.468   1.948   7.462 -1.0512 -1.1823 -1.2048
28767SOL    HW290987   9.417   1.883   7.589  1.7415  2.2426  1.9414
28768SOL     OW90988  11.919   6.656   5.248 -0.4137  0.3398 -0.0190
28768SOL    HW190989  11.901   6.564   5.226 -0.2580  0.4035 -0.4198
28768SOL    HW290990  11.876   6.706   5.179 -2.4401  0.6840  1.3817
28769SOL     OW90991   8.258   6.091   8.106  0.0076 -0.3059 -0.1944
28769SOL    HW190992   8.326   6.117   8.044 -0.0557 -0.6665 -0.4185
28769SOL    HW290993   8.198   6.165   8.109  0.2820 -0.0860 -0.1831
28770SOL     OW90994   7.952   2.579   6.784 -0.4546  0.8180  0.1784
28770SOL    HW190995   7.894   2.552   6.856  1.0522 -2.8082  0.2807
28770SOL    HW290996   7.899   2.565   6.705 -0.5079 -0.2939  0.3838
28771SOL     OW90997   6.257   3.428   9.520 -0.0992  0.4349 -0.0632
28771SOL    HW190998   6.304   3.471   9.591 -1.5189  1.9654 -0.0017
28771SOL    HW290999   6.314   3.440   9.444  0.6664  0.2195  0.4651
28772SOL     OW91000   6.351  10.493   8.232  0.0362  0.3797  0.3578
28772SOL    HW191001   6.368  10.573   8.182 -0.3992  0.0395 -0.3353
28772SOL    HW291002   6.350  10.424   8.167 -0.8028 -0.0362  0.8101
28773SOL     OW91003   3.912   2.507   1.388 -0.2967  0.2123 -0.2750
28773SOL    HW191004   3.836   2.497   1.444  0.5511 -0.4398  0.8126
28773SOL    HW291005   3.978   2.550   1.443 -0.0310  1.2543 -1.3511
28774SOL     OW91006   1.217   9.894   7.469 -0.3079 -0.0220  0.4071
28774SOL    HW191007   1.275   9.937   7.532  0.0498 -0.2361  0.2256
28774SOL    HW291008   1.242   9.802   7.473  0.1899  0.0646 -0.5536
28775SOL     OW91009  11.951   8.702   7.154  0.3635  0.3079 -0.0755
28775SOL    HW191010  12.004   8.703   7.234 -0.3892  0.3763  0.4281
28775SOL    HW291011  11.898   8.623   7.162  1.7175 -0.8009 -1.4764
28776SOL     OW91012   1.969   1.202   6.663  0.3971 -0.2058 -0.2921
28776SOL    HW191013   2.039   1.221   6.726 -0.8174 -0.3655  1.1418
28776SOL    HW291014   1.891   1.242   6.701 -1.1615 -3.4313  0.1817
28777SOL     OW91015   1.842   9.653   4.990  0.0421 -0.0063 -0.1825
28777SOL    HW191016   1.877   9.667   5.078 -1.9797 -0.9771  0.8640
28777SOL    HW291017   1.855   9.559   4.974  0.9750  0.2802 -1.2196
28778SOL     OW91018   8.056   8.102  11.684  0.7673  0.2197 -0.1212
28778SOL    HW191019   7.991   8.040  11.653 -0.4288  1.3776  0.0009
28778SOL    HW291020   8.077   8.071  11.773  0.1698 -0.0041 -0.0512
28779SOL     OW91021   8.576   2.913   6.801 -0.0505  0.4634  0.4943
28779SOL    HW191022   8.603   2.914   6.709  4.5636  2.9353  1.5717
28779SOL    HW291023   8.603   2.828   6.834 -0.4017  0.1158 -0.1023
28780SOL     OW91024  11.227  11.682   1.525  0.3378  0.2097 -0.1168
28780SOL    HW191025  11.209  11.588   1.513  2.2672 -0.4757  1.7692
28780SOL    HW291026  11.251  11.712   1.437 -3.1255 -0.2849 -1.3866
28781SOL     OW91027   8.764   9.472   0.357  0.0628 -0.7421 -0.2464
28781SOL    HW191028   8.790   9.419   0.432  1.9514  0.4576  0.0370
28781SOL    HW291029   8.724   9.550   0.396 -0.7137 -0.9673 -0.5750
28782SOL     OW91030   7.386   2.185   2.097  0.0575  0.2333 -0.5924
28782SOL    HW191031   7.406   2.094   2.121  0.8208 -0.2117 -2.6368
28782SOL    HW291032   7.335   2.177   2.017 -0.8781  1.6101 -0.1578
28783SOL     OW91033   3.833  10.360   3.658  0.2965  0.0503  0.5631
28783SOL    HW191034   3.861  10.360   3.566 -0.6648 -0.6277  0.2539
28783SOL    HW291035   3.747  10.318   3.656  0.7462 -0.9744  1.9240
28784SOL     OW91036   0.144  11.337   3.575 -0.3344  0.2539  0.0857
28784SOL    HW191037   0.077  11.291   3.626  0.4419 -0.7107  0.2646
28784SOL    HW291038   0.225  11.291   3.594 -0.0179 -0.2285 -2.1150
28785SOL     OW91039   1.369   1.569   1.243  0.0739 -0.0041  0.4185
28785SOL    HW191040   1.460   1.540   1.241 -0.1829 -1.2770  2.9914
28785SOL    HW291041   1.326   1.516   1.176  0.6325 -1.8769  1.4709
28786SOL     OW91042   2.094   1.944  11.870  0.1708  0.0968 -0.0180
28786SOL    HW191043   2.069   2.002  11.798  0.8271 -0.7251 -0.9321
28786SOL    HW291044   2.123   2.004  11.939 -0.1904  0.8936 -0.5455
28787SOL     OW91045   5.421   8.045   4.704  0.5391  0.5507  0.3240
28787SOL    HW191046   5.332   8.015   4.689  0.3041 -0.0794  2.4956
28787SOL    HW291047   5.425   8.133   4.668 -1.4776  1.2155  1.5736
28788SOL     OW91048  10.693   5.632   7.349 -0.5277  0.0041 -0.0283
28788SOL    HW191049  10.710   5.703   7.411 -0.9939  0.3149 -0.2428
28788SOL    HW291050  10.711   5.671   7.263 -0.0662 -0.3641 -0.0957
28789SOL     OW91051   3.980   8.497   0.567  0.1042  0.4145  0.3600
28789SOL    HW191052   4.052   8.435   0.579  0.0230  0.4021  0.7927
28789SOL    HW291053   3.979   8.549   0.647 -0.3786  0.3999  0.3666
28790SOL     OW91054   9.176   9.300   8.819 -0.0156  0.4490  0.4064
28790SOL    HW191055   9.155   9.394   8.817 -1.2988  0.1689  0.1437
28790SOL    HW291056   9.141   9.269   8.902 -2.2817 -0.3637 -0.7761
28791SOL     OW91057  10.695   0.747   0.793  0.4482 -0.1412  0.2696
28791SOL    HW191058  10.735   0.701   0.867 -0.2729  0.3942  1.0184
28791SOL    HW291059  10.764   0.749   0.726  0.7355 -1.6380  0.4839
28792SOL     OW91060  10.850   0.751   5.039  0.0043 -0.8730  0.0213
28792SOL    HW191061  10.919   0.722   4.979 -0.2738 -1.1054 -0.1901
28792SOL    HW291062  10.775   0.694   5.019 -0.0428 -1.0617  0.7018
28793SOL     OW91063   1.392   4.698   6.529 -0.0808 -0.0880 -0.4615
28793SOL    HW191064   1.450   4.658   6.594  0.8825  1.0827 -0.5528
28793SOL    HW291065   1.358   4.776   6.572  0.9261  0.9529 -1.4731
28794SOL     OW91066   5.710  11.043   0.772  0.0710  0.1184 -0.4538
28794SOL    HW191067   5.665  11.063   0.854 -1.6104  0.3146 -1.3767
28794SOL    HW291068   5.753  11.125   0.747 -0.4597  0.4174 -0.3947
28795SOL     OW91069   0.089   1.390   6.447  0.3421  0.1366  0.3684
28795SOL    HW191070   0.173   1.365   6.409 -0.2300  0.0385 -0.8714
28795SOL    HW291071   0.060   1.465   6.396 -1.9458 -1.9292 -1.6301
28796SOL     OW91072   2.242   9.690   1.762 -0.2161 -0.4672 -0.0934
28796SOL    HW191073   2.277   9.662   1.847 -2.3272  1.4960  1.5464
28796SOL    HW291074   2.150   9.662   1.764 -0.5027  0.3169 -1.3838
28797SOL     OW91075  10.676  10.161  10.210  0.0356  0.2706 -0.0665
28797SOL    HW191076  10.691  10.194  10.122  1.1684  1.0281  0.3827
28797SOL    HW291077  10.754  10.188  10.259 -0.1120 -0.9969  0.9215
28798SOL     OW91078   9.658   8.011   9.130 -0.3188  0.2977  0.0518
28798SOL    HW191079   9.639   7.987   9.220  0.7911  0.8056  0.4308
28798SOL    HW291080   9.640   7.931   9.080 -0.6220 -0.0849  0.7593
28799SOL     OW91081  11.444  11.351   7.541  0.0469  0.0483 -0.2500
28799SOL    HW191082  11.511  11.419   7.538 -0.3565  0.5284  0.9978
28799SOL    HW291083  11.379  11.383   7.604 -0.6717 -1.0255 -0.4047
28800SOL     OW91084   9.763   0.256   4.762  0.1899 -0.5894  0.2082
28800SOL    HW191085   9.845   0.293   4.794 -0.8417 -0.2249  2.6159
28800SOL    HW291086   9.738   0.192   4.828 -1.4426 -0.7505 -0.5207
28801SOL     OW91087   9.090   9.772   4.078 -0.1438 -0.0271 -0.7257
28801SOL    HW191088   9.090   9.838   4.009  0.0916  1.2446  0.4542
28801SOL    HW291089   9.110   9.690   4.032 -0.7841  0.6407 -2.2724
28802SOL     OW91090   5.328   8.223   1.815 -0.0809  0.0034 -0.2317
28802SOL    HW191091   5.337   8.311   1.850 -1.0237  0.5943 -1.4247
28802SOL    HW291092   5.257   8.183   1.866 -0.5133  0.3771 -0.5412
28803SOL     OW91093  10.374   2.735   9.726 -0.1312 -0.0182 -0.0470
28803SOL    HW191094  10.344   2.811   9.777 -1.7922  0.2262 -1.2971
28803SOL    HW291095  10.468   2.732   9.741  0.0258  2.4612 -0.1654
28804SOL     OW91096   1.899  10.876   6.745 -0.9890  0.4504  0.0881
28804SOL    HW191097   1.833  10.818   6.783 -1.5585  0.2775 -1.1512
28804SOL    HW291098   1.875  10.963   6.775 -2.2283  0.4851 -0.9471
28805SOL     OW91099   3.484   6.176   3.155 -0.2111 -0.5682 -0.4086
28805SOL    HW191100   3.457   6.245   3.215 -1.1552 -0.8246 -0.5328
28805SOL    HW291101   3.557   6.214   3.107 -0.9009  0.4521 -0.6715
28806SOL     OW91102   2.243   1.357   0.945 -0.5686 -0.3645  0.2560
28806SOL    HW191103   2.305   1.429   0.959 -0.8394 -0.0262 -0.2472
28806SOL    HW291104   2.186   1.388   0.875 -2.0311 -0.2195  1.4766
28807SOL     OW91105   9.181   6.194   6.351  0.0551 -0.2364 -0.0232
28807SOL    HW191106   9.221   6.281   6.349 -0.1754 -0.0990  0.9995
28807SOL    HW291107   9.249   6.137   6.386  0.0954 -0.4156 -0.3855
28808SOL     OW91108   9.183   7.896   1.252 -0.0111  0.0783 -0.0224
28808SOL    HW191109   9.238   7.864   1.323 -0.1706  1.6819  0.8576
28808SOL    HW291110   9.153   7.982   1.281 -0.2966  0.6625 -1.9183
28809SOL     OW91111   6.077   4.626  10.028  0.0128 -0.1529 -0.2761
28809SOL    HW191112   6.080   4.721  10.039  0.4240 -0.1461 -0.4600
28809SOL    HW291113   6.162   4.595  10.059  0.0400 -0.4222 -0.6181
28810SOL     OW91114   2.323   7.520   3.242  0.1801  0.1403 -0.0116
28810SOL    HW191115   2.331   7.595   3.183  0.8547  0.0329 -0.0664
28810SOL    HW291116   2.411   7.483   3.246 -0.2476 -0.9331 -0.3437
28811SOL     OW91117   9.239  10.414   9.028  0.1247 -0.1709  0.1299
28811SOL    HW191118   9.144  10.405   9.032  0.3472 -3.2462  2.6319
28811SOL    HW291119   9.272  10.347   9.088  3.8987  0.9238 -0.4510
28812SOL     OW91120   0.208   2.833   8.191  0.1454 -0.4156  0.0419
28812SOL    HW191121   0.286   2.864   8.144 -0.3433  0.1439 -0.4219
28812SOL    HW291122   0.194   2.899   8.259 -0.7800  0.3057 -0.8184
28813SOL     OW91123   6.189   4.846   0.410  0.1837  0.4737 -0.0884
28813SOL    HW191124   6.185   4.802   0.495 -0.5192 -0.1034 -0.4139
28813SOL    HW291125   6.116   4.908   0.411 -0.3658 -0.1459 -0.5940
28814SOL     OW91126   2.952  11.212   4.912 -0.7934  0.3619 -0.3092
28814SOL    HW191127   3.042  11.180   4.904 -1.6653 -2.9466  1.1189
28814SOL    HW291128   2.951  11.258   4.996 -0.3016  0.8838 -0.5895
28815SOL     OW91129   5.079   4.633   0.609  0.4400  0.2971  0.6640
28815SOL    HW191130   5.021   4.695   0.567 -0.2902 -0.9100 -0.1546
28815SOL    HW291131   5.022   4.579   0.664  0.9199 -0.2764  0.6131
28816SOL     OW91132   1.144   1.592  10.175 -0.9464 -0.5106  0.1207
28816SOL    HW191133   1.115   1.519  10.121 -0.4816  1.5665 -3.2219
28816SOL    HW291134   1.232   1.568  10.203 -1.8427 -2.3756  1.5650
28817SOL     OW91135   4.697  11.868   6.549  0.4575  0.2410 -0.1532
28817SOL    HW191136   4.729  11.893   6.635 -0.4206  0.1838  0.2078
28817SOL    HW291137   4.667  11.950   6.509 -1.0222  0.0172  0.4281
28818SOL     OW91138   1.796   0.070  10.029 -0.0582 -0.4207 -0.1868
28818SOL    HW191139   1.880   0.069  10.076  0.8872 -2.2120 -1.7519
28818SOL    HW291140   1.806   0.139   9.964  1.3671 -2.3282 -2.1434
28819SOL     OW91141  10.204   6.608   7.107  0.0487  0.3697 -0.0115
28819SOL    HW191142  10.261   6.583   7.180 -1.2219 -2.1124  0.2504
28819SOL    HW291143  10.259   6.599   7.029  0.3362 -0.9285  0.3214
28820SOL     OW91144   1.162   9.975   8.709  0.0551  0.2529 -0.4705
28820SOL    HW191145   1.220   9.919   8.761  0.7474  0.8357 -0.5974
28820SOL    HW291146   1.089   9.918   8.685 -0.5416  0.1013  1.5663
28821SOL     OW91147   5.643   8.795   4.124 -0.7197 -0.4605 -0.5451
28821SOL    HW191148   5.736   8.795   4.146 -0.9153 -1.5662  0.3742
28821SOL    HW291149   5.633   8.722   4.064 -1.2472 -1.3297  0.5779
28822SOL     OW91150   0.323  10.646   2.865  0.0485  0.3237 -0.2318
28822SOL    HW191151   0.317  10.569   2.808 -0.2114  0.7183 -0.7439
28822SOL    HW291152   0.403  10.631   2.916 -0.2035 -0.4628 -0.0569
28823SOL     OW91153  10.176   8.369   2.925  0.5067  0.0872  0.2959
28823SOL    HW191154  10.255   8.324   2.894  0.5100  0.7217 -0.6619
28823SOL    HW291155  10.140   8.410   2.846  1.1932  2.8203  1.2839
28824SOL     OW91156   0.854   1.967   1.522 -0.6972 -0.0855  0.1381
28824SOL    HW191157   0.800   1.974   1.601 -1.0692 -0.6045 -0.0604
28824SOL    HW291158   0.944   1.974   1.554 -0.8422 -0.3527  0.6194
28825SOL     OW91159   1.341   6.808   8.619 -0.1742  0.2052  0.4804
28825SOL    HW191160   1.365   6.790   8.528 -2.9251 -0.6383 -0.1653
28825SOL    HW291161   1.338   6.722   8.661  0.0923  0.4978  1.1232
28826SOL     OW91162   7.678   3.169   8.307  0.5104  0.0297 -0.7889
28826SOL    HW191163   7.731   3.159   8.385 -1.6954 -0.5461  0.7206
28826SOL    HW291164   7.659   3.263   8.303  0.7166  0.0752 -0.7196
28827SOL     OW91165   5.487  10.377   1.722  0.8081 -0.3300  0.0046
28827SOL    HW191166   5.453  10.333   1.644  2.2511 -0.7219 -0.4356
28827SOL    HW291167   5.507  10.307   1.784  2.0242 -0.2438 -0.2566
28828SOL     OW91168  10.517   4.097   1.178  0.0611 -0.3146  0.0926
28828SOL    HW191169  10.484   4.037   1.245  1.4527  0.9737  2.0305
28828SOL    HW291170  10.582   4.150   1.223 -0.1495  1.7796 -1.8733
28829SOL     OW91171  10.814   5.321   8.288  0.1561  0.0339 -0.2907
28829SOL    HW191172  10.841   5.410   8.266  1.8803 -0.4142 -0.1247
28829SOL    HW291173  10.744   5.301   8.226 -0.2315  1.4893 -0.3412
28830SOL     OW91174  10.337   1.083   8.670 -0.2261 -0.2681 -0.1678
28830SOL    HW191175  10.304   0.993   8.667 -1.3614  0.0847  0.8731
28830SOL    HW291176  10.274   1.133   8.618 -0.0134  0.0494 -0.1215
28831SOL     OW91177  10.903   8.615   8.755  0.6962  0.3818 -0.0398
28831SOL    HW191178  10.994   8.613   8.726  0.4457 -0.4041 -0.8310
28831SOL    HW291179  10.858   8.554   8.696 -0.5614  1.6283 -0.4333
28832SOL     OW91180   9.443  11.412  10.195  0.7954 -0.3780  0.1557
28832SOL    HW191181   9.518  11.354  10.214  2.0522  0.6170 -1.4830
28832SOL    HW291182   9.387  11.360  10.137  1.4881 -0.2793 -0.6205
28833SOL     OW91183   5.142   2.476   1.625 -0.1398 -0.8284 -0.6083
28833SOL    HW191184   5.096   2.407   1.673 -0.0222 -1.3371 -1.2211
28833SOL    HW291185   5.133   2.452   1.533 -3.2168  1.8391 -1.2001
28834SOL     OW91186   7.807   0.260   1.024  0.3579 -0.0591 -0.4390
28834SOL    HW191187   7.822   0.280   0.931 -1.2006  1.0218 -0.4881
28834SOL    HW291188   7.740   0.322   1.052  0.1456 -0.9618  1.1891
28835SOL     OW91189   4.093   3.100   6.594  0.4617 -0.5311 -0.4935
28835SOL    HW191190   4.152   3.159   6.642  2.2716 -1.3387 -1.6409
28835SOL    HW291191   4.103   3.015   6.637 -1.2129 -0.3433  0.3708
28836SOL     OW91192   5.906   9.151   3.816  0.0296  0.7852  0.4438
28836SOL    HW191193   5.894   9.245   3.830 -1.3748  0.6753  0.1076
28836SOL    HW291194   5.871   9.136   3.728 -1.6657 -0.3613  1.2677
28837SOL     OW91195   1.234  10.036   2.157 -0.3366  0.6063 -0.3456
28837SOL    HW191196   1.181   9.967   2.117  1.0607 -1.1260  0.6015
28837SOL    HW291197   1.214  10.030   2.251 -0.8157  2.0762 -0.3415
28838SOL     OW91198   6.450   0.862  10.108 -0.5233 -0.1773 -0.1987
28838SOL    HW191199   6.479   0.927  10.172 -0.7706 -0.7885  0.5476
28838SOL    HW291200   6.530   0.826  10.071 -0.3867  0.7196 -0.7963
28839SOL     OW91201   0.276   4.607   9.970 -0.4569 -0.0113 -0.1550
28839SOL    HW191202   0.346   4.610   9.905  0.9135  0.6585  1.3043
28839SOL    HW291203   0.248   4.516   9.971 -1.6216  0.2357 -2.7867
28840SOL     OW91204  11.295   4.532   1.775  0.5779 -0.0180  0.0091
28840SOL    HW191205  11.300   4.509   1.682  3.1109  1.2459 -0.2421
28840SOL    HW291206  11.360   4.475   1.817 -0.1955 -0.2247  0.9674
28841SOL     OW91207  11.041   8.484   6.521  0.4090  0.0422 -0.7421
28841SOL    HW191208  11.105   8.555   6.513 -0.8662  1.2289 -0.6236
28841SOL    HW291209  11.055   8.430   6.443  0.9043  0.8286 -1.2017
28842SOL     OW91210   4.076   8.457   8.314  0.1144  0.4740 -0.1514
28842SOL    HW191211   4.043   8.372   8.344  0.3486  0.1850 -0.6846
28842SOL    HW291212   4.074   8.450   8.218 -1.3321  1.6457 -0.2303
28843SOL     OW91213   3.881  10.858   6.505  0.7448 -0.5691  0.7192
28843SOL    HW191214   3.942  10.931   6.498  0.2686 -0.2635 -0.6194
28843SOL    HW291215   3.873  10.825   6.415  0.8547 -2.1989  1.2659
28844SOL     OW91216   0.647   1.728   0.104 -0.7990 -0.0260  0.4544
28844SOL    HW191217   0.562   1.745   0.063 -1.1293 -1.3825  0.5366
28844SOL    HW291218   0.625   1.710   0.196 -0.6044 -1.7870  0.1888
28845SOL     OW91219   6.296   9.588   6.548  0.1335 -0.3027  0.5770
28845SOL    HW191220   6.254   9.655   6.602  1.5542  1.5518 -0.4942
28845SOL    HW291221   6.297   9.626   6.460  1.0600 -1.7050 -0.0471
28846SOL     OW91222  11.514   5.970  10.503  0.4150  0.1852  0.2948
28846SOL    HW191223  11.593   5.962  10.557  0.4109  0.3846  0.3316
28846SOL    HW291224  11.481   6.058  10.522  0.6394  0.4095 -0.3411
28847SOL     OW91225  10.401   1.478   9.539  0.0059  0.3819  0.3326
28847SOL    HW191226  10.429   1.569   9.548  0.1527  0.2635  1.1156
28847SOL    HW291227  10.460   1.428   9.597  1.8996 -0.6300 -2.2437
28848SOL     OW91228   7.364  10.453   3.482  0.3737  0.2862  0.8219
28848SOL    HW191229   7.421  10.429   3.409 -0.0717  1.5146  0.0488
28848SOL    HW291230   7.316  10.372   3.502 -1.8695  0.6538 -2.4075
28849SOL     OW91231   5.823  11.815  11.625  0.1471 -0.5672 -0.0529
28849SOL    HW191232   5.899  11.847  11.576 -0.5489  2.1359  0.4899
28849SOL    HW291233   5.859  11.792  11.711  0.6048 -0.8826 -0.3231
28850SOL     OW91234  11.952   9.602   9.615  0.0344  0.7129  0.3488
28850SOL    HW191235  11.960   9.616   9.521 -0.7017  0.2728  0.2067
28850SOL    HW291236  12.026   9.648   9.653  1.3674 -0.5790 -0.5670
28851SOL     OW91237   0.243   7.070   0.564 -0.4794  0.2856  0.0345
28851SOL    HW191238   0.265   7.120   0.486  2.7411  1.1527  1.3648
28851SOL    HW291239   0.250   6.979   0.537  0.3904  0.5761 -0.7520
28852SOL     OW91240  11.334  11.346   6.056 -0.3900  0.2194 -0.7596
28852SOL    HW191241  11.369  11.417   6.109 -1.3684 -1.0976  1.8313
28852SOL    HW291242  11.240  11.345   6.076 -0.8995 -0.0433 -2.9469
28853SOL     OW91243   4.937   9.872   9.130 -0.3165  0.3252 -0.2101
28853SOL    HW191244   4.876   9.799   9.143  1.9189 -1.3723  1.9152
28853SOL    HW291245   4.947   9.879   9.035 -2.6944 -0.2358 -0.5599
28854SOL     OW91246  11.835   1.412   6.178 -0.0550 -0.5672  0.3548
28854SOL    HW191247  11.918   1.459   6.183 -0.1855 -0.3645  0.6044
28854SOL    HW291248  11.768   1.480   6.185 -0.3056 -0.3381 -2.7405
28855SOL     OW91249   1.908   4.970   0.084 -0.7454 -1.1568 -0.3143
28855SOL    HW191250   1.915   4.942   0.176 -0.9263 -1.8654 -0.5059
28855SOL    HW291251   1.890   4.889   0.037  2.9964 -1.5309 -1.4653
28856SOL     OW91252   6.100   0.615  11.491 -0.4943 -0.1799  0.4351
28856SOL    HW191253   6.113   0.543  11.429  0.0147 -0.1094  0.4568
28856SOL    HW291254   6.072   0.689  11.436  0.4548  0.0270  0.2152
28857SOL     OW91255  11.726   1.955   4.652  0.0647  0.0865 -0.0575
28857SOL    HW191256  11.695   2.002   4.729  1.4851 -0.7665  1.0955
28857SOL    HW291257  11.768   2.022   4.598 -0.0392  0.5328  0.4102
28858SOL     OW91258  10.413   2.796  11.429 -0.1288 -0.0731 -0.2507
28858SOL    HW191259  10.456   2.804  11.344 -1.3551 -3.0039 -1.2888
28858SOL    HW291260  10.462   2.728  11.474 -0.9755 -0.2872  0.3600
28859SOL     OW91261  10.233   8.902   6.907 -0.7333 -0.0120  0.0283
28859SOL    HW191262  10.155   8.847   6.913 -0.1882 -0.7809  0.2824
28859SOL    HW291263  10.205   8.987   6.939 -2.2524  0.6156 -2.6621
28860SOL     OW91264   4.692   5.895   4.724 -0.8378  0.4386  0.3168
28860SOL    HW191265   4.730   5.982   4.737 -1.9261  0.9324  0.3033
28860SOL    HW291266   4.659   5.870   4.810 -1.0907  0.3082  0.1830
28861SOL     OW91267  11.525   5.736   2.253  0.0967  0.1944 -0.4937
28861SOL    HW191268  11.487   5.690   2.328  0.5047  1.6619  0.6532
28861SOL    HW291269  11.496   5.826   2.262  0.7400  0.5497 -1.7206
28862SOL     OW91270   1.988   4.738   1.865  0.4475  0.0749 -0.5397
28862SOL    HW191271   1.978   4.826   1.904 -0.4448 -0.1656 -0.2006
28862SOL    HW291272   2.073   4.741   1.822  1.7276  0.2208  1.8143
28863SOL     OW91273   7.477   4.600   2.200 -0.4252  0.0390 -0.0023
28863SOL    HW191274   7.558   4.649   2.186 -0.8673  0.9253  0.4225
28863SOL    HW291275   7.429   4.607   2.118  0.1627 -0.9670 -0.4460
28864SOL     OW91276   0.570  10.552   8.436  0.4410  0.0193 -0.0900
28864SOL    HW191277   0.547  10.627   8.491  0.8539 -0.9454  1.4686
28864SOL    HW291278   0.615  10.590   8.361  0.6725  1.3307  0.6769
28865SOL     OW91279   4.566  11.266   5.104 -0.3005  0.5623  0.2831
28865SOL    HW191280   4.496  11.225   5.053 -1.2292  0.5226  1.5249
28865SOL    HW291281   4.532  11.353   5.125 -0.4885  0.1438  1.8313
28866SOL     OW91282   0.008   7.390  10.505  0.9248 -0.4793 -0.1839
28866SOL    HW191283  -0.053   7.440  10.451  0.0668  0.2416  1.3845
28866SOL    HW291284   0.030   7.449  10.577  1.8399 -1.4852  0.3928
28867SOL     OW91285   9.261   9.715   1.607 -0.1381  0.0353 -0.3355
28867SOL    HW191286   9.349   9.694   1.639 -1.1223 -1.9579  1.2771
28867SOL    HW291287   9.233   9.789   1.661 -0.6591 -1.4516  1.5517
28868SOL     OW91288  11.058   5.161  11.523  0.5751  0.0507 -0.0347
28868SOL    HW191289  11.084   5.134  11.435  0.9769  3.1237 -0.9928
28868SOL    HW291290  10.963   5.169  11.519  0.6664  1.0966 -0.5429
28869SOL     OW91291   5.461  11.178   9.143 -0.3036 -0.2374 -0.2023
28869SOL    HW191292   5.420  11.113   9.200 -0.0843 -0.5054 -0.3535
28869SOL    HW291293   5.549  11.189   9.178  0.1849 -1.1556 -1.0988
28870SOL     OW91294   9.034   8.932   9.732  0.0672 -0.2267  0.1623
28870SOL    HW191295   9.069   8.862   9.787  0.2068  0.3511  0.8178
28870SOL    HW291296   8.940   8.929   9.746  0.0822 -0.2208  0.2618
28871SOL     OW91297   5.197   0.501   2.298 -0.0323  0.2255  0.0722
28871SOL    HW191298   5.111   0.466   2.324  0.7719 -0.5627  1.8684
28871SOL    HW291299   5.209   0.471   2.208 -1.8837  0.8749 -0.4278
28872SOL     OW91300   2.861   5.238   3.716  0.0366 -0.1119  0.0861
28872SOL    HW191301   2.810   5.164   3.684  0.7076 -0.0866 -1.0898
28872SOL    HW291302   2.944   5.233   3.670  1.7314 -0.9442  2.9521
28873SOL     OW91303  11.817   9.819   5.056 -0.4107  0.3288 -0.5576
28873SOL    HW191304  11.794   9.908   5.084  4.6042  1.1082  2.2092
28873SOL    HW291305  11.882   9.831   4.987  2.0196 -0.8925  1.3515
28874SOL     OW91306   0.980   9.247   1.463 -0.2260  0.1849 -0.0915
28874SOL    HW191307   0.923   9.304   1.412  0.7187  0.6945 -0.6031
28874SOL    HW291308   1.068   9.263   1.428  0.3924  0.2700  1.4434
28875SOL     OW91309   5.188  10.356   2.251  0.0772 -0.2559  0.0859
28875SOL    HW191310   5.198  10.317   2.164 -0.2436  0.1660 -0.1482
28875SOL    HW291311   5.137  10.292   2.301  0.6514 -0.7033  0.1088
28876SOL     OW91312   0.180  10.486  10.813  0.6742  0.7275  0.2554
28876SOL    HW191313   0.195  10.574  10.848  0.2189  0.4065  1.3130
28876SOL    HW291314   0.204  10.427  10.885 -1.3320  0.0842  0.4735
28877SOL     OW91315   6.134   7.021  11.917  0.4647 -0.2282  0.1958
28877SOL    HW191316   6.188   7.012  11.996  0.4823 -1.8420  0.0307
28877SOL    HW291317   6.180   6.970  11.851  0.0003  0.4108 -0.6409
28878SOL     OW91318   6.852   3.737   8.214  0.3174  0.2659  0.4392
28878SOL    HW191319   6.946   3.746   8.200  0.4362 -1.3198  0.0534
28878SOL    HW291320   6.812   3.784   8.141  0.8340 -0.0293 -0.0366
28879SOL     OW91321   8.756   1.861   6.761  0.5367  0.1103  0.0075
28879SOL    HW191322   8.846   1.857   6.794  0.7930 -0.6629 -0.7442
28879SOL    HW291323   8.718   1.937   6.804  1.2426 -0.1328  1.0926
28880SOL     OW91324   3.100   4.937   8.807 -0.2984  0.5463  0.3482
28880SOL    HW191325   3.168   4.894   8.755  0.1609  0.0639  1.3255
28880SOL    HW291326   3.020   4.890   8.786  0.1219 -0.5416  1.0834
28881SOL     OW91327   4.924   4.529   3.365 -0.1276 -0.5023  0.1479
28881SOL    HW191328   4.905   4.458   3.426 -2.0708 -0.3901 -0.2505
28881SOL    HW291329   4.912   4.609   3.416  0.5872 -0.4280  0.2108
28882SOL     OW91330   9.970   1.127   1.385  0.4290 -0.1252 -0.1735
28882SOL    HW191331   9.950   1.142   1.477 -1.1252 -1.6428 -0.2274
28882SOL    HW291332  10.037   1.058   1.386  1.5734  0.9540 -0.1650
28883SOL     OW91333   4.383   6.515   3.235  0.3711  0.4709  0.2332
28883SOL    HW191334   4.412   6.575   3.167 -0.4542  0.7796  0.1364
28883SOL    HW291335   4.289   6.506   3.220  0.2414  0.2680  1.1133
28884SOL     OW91336   5.019   3.450   1.337 -0.2141  0.5190  0.0101
28884SOL    HW191337   5.082   3.515   1.306  2.7796 -1.3075  1.7655
28884SOL    HW291338   5.027   3.377   1.276 -0.1269  0.0092  0.6186
28885SOL     OW91339   1.247   8.084   2.922 -0.1968 -0.0538  0.2210
28885SOL    HW191340   1.250   8.112   3.013  0.8493 -1.5403  0.6833
28885SOL    HW291341   1.190   8.007   2.922  2.2679 -1.9913  0.2489
28886SOL     OW91342   2.375   2.115  10.366 -0.1838  0.3515 -0.4052
28886SOL    HW191343   2.312   2.071  10.423 -0.5205  2.0296  0.6116
28886SOL    HW291344   2.339   2.204  10.356  1.1596  0.8323 -1.1974
28887SOL     OW91345   5.789   2.835   5.586  0.1928  0.1054  0.0903
28887SOL    HW191346   5.860   2.874   5.638 -0.1670  0.0738  0.6143
28887SOL    HW291347   5.809   2.741   5.587 -0.8209 -0.1463  1.7972
28888SOL     OW91348   0.207   0.638   2.635 -0.3374 -0.4691 -0.2825
28888SOL    HW191349   0.143   0.639   2.706 -0.6518 -0.2002 -0.5638
28888SOL    HW291350   0.166   0.689   2.565 -1.1010 -2.7510 -1.6105
28889SOL     OW91351   1.924   6.991   8.619 -0.1494  0.0599  0.3095
28889SOL    HW191352   1.986   7.063   8.607  0.1198 -0.3049 -0.5599
28889SOL    HW291353   1.874   6.988   8.538  0.0927 -0.9553  0.1787
28890SOL     OW91354   9.870   2.386   3.731  0.2034 -0.3975 -0.2806
28890SOL    HW191355   9.925   2.334   3.789 -1.0914  1.2358  2.5890
28890SOL    HW291356   9.782   2.352   3.745 -0.0874 -0.3415 -1.7921
28891SOL     OW91357   8.729  11.159   8.809  0.2317 -0.0368 -0.3075
28891SOL    HW191358   8.717  11.065   8.799 -0.8618 -0.4085  3.1205
28891SOL    HW291359   8.640  11.195   8.807  0.4359  0.5726  0.8663
28892SOL     OW91360   4.816   2.482   1.681  0.7189  0.1880  0.0443
28892SOL    HW191361   4.785   2.417   1.617  0.3740 -1.4372  1.7861
28892SOL    HW291362   4.906   2.454   1.701  0.7251  0.5083  0.4663
28893SOL     OW91363   9.127   5.288   6.915  0.1187 -0.2369  0.1365
28893SOL    HW191364   9.036   5.318   6.909  0.2466  0.1122 -0.0912
28893SOL    HW291365   9.120   5.192   6.917 -0.1625 -0.3304 -2.2178
28894SOL     OW91366   6.025   5.576   2.403 -0.0583  0.4296  0.4035
28894SOL    HW191367   5.995   5.662   2.374 -0.6125 -0.1196 -0.7145
28894SOL    HW291368   5.969   5.555   2.478  0.0719  1.0291  0.6745
28895SOL     OW91369   4.925   6.683   2.885 -0.5199 -0.3029  0.3636
28895SOL    HW191370   4.894   6.710   2.799 -0.2616  0.3486  0.4682
28895SOL    HW291371   4.981   6.755   2.914  0.6349 -1.1923  0.4246
28896SOL     OW91372   0.856  10.307   3.795 -0.1927 -0.0315  0.4737
28896SOL    HW191373   0.774  10.260   3.806 -0.6114  0.5380 -0.1352
28896SOL    HW291374   0.835  10.397   3.819  0.2392  0.1324  0.2505
28897SOL     OW91375   3.190   5.365   2.907  0.1786 -0.2766  0.9258
28897SOL    HW191376   3.113   5.357   2.850  0.3423 -2.2798  0.9063
28897SOL    HW291377   3.258   5.401   2.850 -0.5403  0.8233  0.7507
28898SOL     OW91378   0.252   7.695  11.991  0.6836 -0.2457 -0.0845
28898SOL    HW191379   0.265   7.766  12.055  0.9513 -0.0857 -0.3110
28898SOL    HW291380   0.286   7.617  12.035 -0.1215 -0.3417  0.3791
28899SOL     OW91381   2.616   3.925  10.159 -0.2009  0.1766 -0.2428
28899SOL    HW191382   2.670   3.854  10.192 -0.3221 -0.0136 -0.4501
28899SOL    HW291383   2.619   3.916  10.064 -1.3312 -0.4001 -0.2406
28900SOL     OW91384   3.892  11.457   1.992 -0.4735 -0.1914  0.1085
28900SOL    HW191385   3.823  11.419   1.938 -0.2330  0.3319 -0.5847
28900SOL    HW291386   3.945  11.508   1.931 -0.4219  0.7468  0.9051
28901SOL     OW91387   7.467   0.162   5.608  0.0031  0.1593  0.1813
28901SOL    HW191388   7.472   0.109   5.687  2.5819  1.9724  1.3943
28901SOL    HW291389   7.418   0.240   5.634  0.4920  0.5708 -0.1099
28902SOL     OW91390   7.872   3.355   5.932 -0.3348 -0.0290 -0.1171
28902SOL    HW191391   7.789   3.310   5.917 -1.4395  2.2915 -1.4169
28902SOL    HW291392   7.889   3.402   5.851  2.5759 -0.8259 -0.0794
28903SOL     OW91393   4.264   6.707   7.657 -0.1854 -0.0302 -0.3633
28903SOL    HW191394   4.326   6.729   7.726  0.9055  1.0026 -1.6093
28903SOL    HW291395   4.195   6.773   7.665 -0.7320 -0.6942  0.5223
28904SOL     OW91396   0.852   6.653   3.502  0.2187  0.4601 -0.0370
28904SOL    HW191397   0.943   6.646   3.531  1.4490  2.0019 -3.1337
28904SOL    HW291398   0.814   6.567   3.522  1.2095  0.8199  4.4692
28905SOL     OW91399   0.653   0.712  11.367  0.1807 -0.0629  0.3918
28905SOL    HW191400   0.574   0.659  11.356  0.3585 -0.6437  1.7428
28905SOL    HW291401   0.717   0.653  11.407  0.6797  0.9132  1.0768
28906SOL     OW91402   6.406  10.037  10.596  0.0930 -0.6173  0.0515
28906SOL    HW191403   6.474   9.988  10.641  0.3744 -1.3846 -1.1602
28906SOL    HW291404   6.401   9.998  10.509 -0.1343  1.0628 -0.7487
28907SOL     OW91405   9.405   5.018   2.206 -0.1375  0.2334  0.1390
28907SOL    HW191406   9.436   5.070   2.132  1.2027  1.4047  1.4604
28907SOL    HW291407   9.435   5.066   2.284  0.9085 -2.3189  1.4431
28908SOL     OW91408   2.103   8.333   3.631 -0.2493  0.2459  0.5976
28908SOL    HW191409   2.126   8.317   3.722 -0.3561 -2.1751  0.2675
28908SOL    HW291410   2.112   8.247   3.589  0.0501  1.3445 -1.7308
28909SOL     OW91411  10.346   6.921   6.661 -0.4432  0.1882  0.4017
28909SOL    HW191412  10.277   6.902   6.725  0.3190  1.6270  1.7164
28909SOL    HW291413  10.391   6.838   6.649 -2.5018 -0.8613 -0.6899
28910SOL     OW91414   7.432   6.358   9.061  0.2137  0.2357 -0.3174
28910SOL    HW191415   7.524   6.331   9.071  0.0286 -0.4803 -0.4752
28910SOL    HW291416   7.385   6.305   9.125 -0.0139  1.0768  0.2206
28911SOL     OW91417   6.406   6.523   0.232  0.0625 -0.0938  0.6455
28911SOL    HW191418   6.350   6.551   0.160 -0.1651 -0.9694  0.4735
28911SOL    HW291419   6.476   6.589   0.235 -0.2046  0.2291 -0.0369
28912SOL     OW91420   7.618   3.293   0.246  0.0302  0.0108  0.5412
28912SOL    HW191421   7.658   3.363   0.195  0.8975  0.0011  1.1939
28912SOL    HW291422   7.684   3.223   0.247  0.1097  0.0786  1.8196
28913SOL     OW91423   3.556   1.832   3.227  0.6308 -0.6196 -0.1603
28913SOL    HW191424   3.640   1.878   3.227 -0.0947  0.8821 -2.3504
28913SOL    HW291425   3.571   1.755   3.172  0.0314  1.0249 -2.8318
28914SOL     OW91426   4.191  10.397   0.609  0.4172 -0.1131  0.2517
28914SOL    HW191427   4.260  10.409   0.544  0.0581 -1.5770 -0.4356
28914SOL    HW291428   4.231  10.346   0.679 -0.0118 -1.2116 -0.2796
28915SOL     OW91429   0.774   6.020   3.342  0.2608 -0.0888 -0.2244
28915SOL    HW191430   0.731   5.991   3.261  0.6196 -1.2279 -0.0259
28915SOL    HW291431   0.781   6.115   3.332  0.0532 -0.1756 -1.4085
28916SOL     OW91432   9.660   1.589   0.298 -0.1342  0.3799 -0.5127
28916SOL    HW191433   9.654   1.661   0.235  0.0072  1.1821  0.3763
28916SOL    HW291434   9.753   1.586   0.322 -0.2346  0.2630 -0.1297
28917SOL     OW91435  11.358   7.659   8.366 -0.5315  0.0655 -0.7426
28917SOL    HW191436  11.407   7.738   8.391  1.2086 -1.2943  0.3872
28917SOL    HW291437  11.424   7.602   8.326 -1.3001 -1.6006  0.2646
28918SOL     OW91438   4.010   8.253  11.555  0.3769  0.0755 -0.6031
28918SOL    HW191439   3.954   8.180  11.529 -0.2427 -0.1481  1.1805
28918SOL    HW291440   3.969   8.330  11.515  0.9942 -0.4930 -2.4337
28919SOL     OW91441   1.237   7.835   6.422 -0.3016 -0.3142  0.1649
28919SOL    HW191442   1.173   7.837   6.493 -0.1817 -0.3919  0.2756
28919SOL    HW291443   1.235   7.744   6.391  0.1688 -0.4581  0.5478
28920SOL     OW91444   0.164   2.610  10.179 -0.1894  0.6373  0.1784
28920SOL    HW191445   0.142   2.564  10.099  1.0690  1.9928 -1.0076
28920SOL    HW291446   0.125   2.697  10.168  1.9032  1.6025 -0.0296
28921SOL     OW91447   6.666   6.175   7.392  0.3265  0.0269 -0.2583
28921SOL    HW191448   6.616   6.097   7.414  0.4115  0.1542  0.4197
28921SOL    HW291449   6.625   6.209   7.312 -1.8591  1.1408  1.2408
28922SOL     OW91450   1.472  10.248   1.646  0.1383 -0.0491 -0.2973
28922SOL    HW191451   1.482  10.153   1.653  0.3439 -0.0130 -0.0907
28922SOL    HW291452   1.451  10.276   1.735  0.9473  0.2058 -0.1782
28923SOL     OW91453  10.605   3.481   9.245  0.4554  0.0114 -0.0652
28923SOL    HW191454  10.636   3.518   9.328 -0.8811 -0.0156  0.4677
28923SOL    HW291455  10.612   3.552   9.182  0.2659  0.4259  0.3778
28924SOL     OW91456   7.482  10.981   1.841  0.2115 -0.5902 -0.0260
28924SOL    HW191457   7.535  10.915   1.798 -1.1716 -2.1276  0.5328
28924SOL    HW291458   7.393  10.945   1.840 -1.1302  2.3526 -1.9268
28925SOL     OW91459  11.320   1.337   4.375  0.6044  0.0567  0.1342
28925SOL    HW191460  11.236   1.296   4.397  1.3102 -1.0096  0.9804
28925SOL    HW291461  11.331   1.407   4.439 -0.5482  1.5589 -1.2359
28926SOL     OW91462   1.786   0.608  11.004  0.2315 -0.1027 -0.1011
28926SOL    HW191463   1.770   0.666  11.079 -0.1201  0.5762 -0.6899
28926SOL    HW291464   1.830   0.531  11.042 -0.5498 -0.0744  0.9005
28927SOL     OW91465   1.397   3.254  11.442 -0.6967  0.5940  0.3418
28927SOL    HW191466   1.393   3.164  11.410  1.2553  0.3932  0.5173
28927SOL    HW291467   1.355   3.251  11.528  2.2175 -0.9986  1.9008
28928SOL     OW91468   7.058   1.953   3.238  0.3289 -0.8304 -0.4597
28928SOL    HW191469   7.005   2.012   3.185  0.4284 -0.4296 -0.1185
28928SOL    HW291470   7.058   1.870   3.190  1.5037 -0.1189 -1.7742
28929SOL     OW91471   0.325   7.574   6.728  0.4120 -0.2441 -0.0611
28929SOL    HW191472   0.267   7.642   6.695  0.0704  0.2162  1.4169
28929SOL    HW291473   0.318   7.504   6.663 -1.1266  0.1414 -0.3673
28930SOL     OW91474   1.398  10.112  11.483  0.1090 -0.2901  0.1303
28930SOL    HW191475   1.450  10.129  11.404  1.0096 -0.6507  0.6308
28930SOL    HW291476   1.401  10.194  11.532  0.0374 -0.2507  0.0693
28931SOL     OW91477   3.115   0.592   1.454  0.0554  0.0212  0.4563
28931SOL    HW191478   3.131   0.564   1.544  0.7426 -0.9295  0.0536
28931SOL    HW291479   3.025   0.624   1.455 -0.2958 -0.9420  1.2516
28932SOL     OW91480   2.976   1.164   5.535  0.2188  0.6618 -0.1990
28932SOL    HW191481   2.960   1.100   5.465  1.3618 -0.4397  0.4951
28932SOL    HW291482   2.969   1.113   5.616  3.9248  0.6633  0.3007
28933SOL     OW91483   4.653   9.856   2.232 -0.4397  0.4294  0.2037
28933SOL    HW191484   4.728   9.815   2.190 -0.7659 -2.5355  2.1291
28933SOL    HW291485   4.584   9.853   2.166  0.3233  0.4091 -0.6115
28934SOL     OW91486   5.375   6.473  10.018  0.1976 -0.8592 -0.4072
28934SOL    HW191487   5.431   6.396  10.014  0.1610 -0.8686 -0.8685
28934SOL    HW291488   5.407   6.529   9.947 -0.4902 -0.9501 -0.8071
28935SOL     OW91489   2.316  10.701   4.968  0.0722 -0.1762 -0.1785
28935SOL    HW191490   2.336  10.704   4.874  3.8162  1.0485  0.4948
28935SOL    HW291491   2.354  10.618   4.997 -0.7581 -0.3778  0.3640
28936SOL     OW91492   4.600   0.092   3.600 -0.4798  0.0362  0.0213
28936SOL    HW191493   4.539   0.049   3.661 -0.9791  0.7124  0.0116
28936SOL    HW291494   4.552   0.095   3.517  0.4317 -1.4394 -0.5900
28937SOL     OW91495  11.212   6.704   7.067  0.1092  0.4171  0.0428
28937SOL    HW191496  11.130   6.700   7.116 -0.2935 -1.7688 -0.6977
28937SOL    HW291497  11.280   6.703   7.134 -0.4510 -0.9115  0.6251
28938SOL     OW91498   1.438   7.921   0.167 -0.4280 -0.3237 -0.2548
28938SOL    HW191499   1.501   7.993   0.163 -0.8236  0.0988  0.7195
28938SOL    HW291500   1.447   7.876   0.083 -0.4352  1.0910 -1.0538
28939SOL     OW91501   6.031   8.940   3.050  0.0159 -0.6535 -0.5221
28939SOL    HW191502   6.013   9.013   2.991 -2.4442 -0.2764  0.5763
28939SOL    HW291503   6.125   8.945   3.066 -0.2169  3.1254  0.5038
28940SOL     OW91504   9.120   4.575   4.025  0.2287 -0.3096  0.6466
28940SOL    HW191505   9.205   4.594   4.065  0.1664 -0.3321  0.7880
28940SOL    HW291506   9.055   4.606   4.088  0.1212 -1.2543  1.0231
28941SOL     OW91507   3.486   5.256   9.674 -0.2503 -0.2380 -0.3319
28941SOL    HW191508   3.458   5.302   9.595  0.5802 -0.3796 -0.7147
28941SOL    HW291509   3.409   5.207   9.702 -0.8598  0.6161 -0.4647
28942SOL     OW91510   9.806  11.395   9.750  0.2240 -0.4743 -0.0930
28942SOL    HW191511   9.852  11.438   9.678  0.0298 -1.5803 -0.9026
28942SOL    HW291512   9.765  11.318   9.710  1.0457 -1.7646  1.3834
28943SOL     OW91513   2.866   8.436   3.262  0.2814  0.2419  0.0713
28943SOL    HW191514   2.902   8.467   3.180  0.3263 -1.6007 -0.6660
28943SOL    HW291515   2.927   8.468   3.329  1.1483  0.4065 -0.7782
28944SOL     OW91516   1.979   3.066   5.371  0.6772 -0.2102 -0.2111
28944SOL    HW191517   1.957   3.124   5.444 -1.8074 -0.5521 -0.6236
28944SOL    HW291518   1.909   3.002   5.368  1.9781 -1.6671 -1.4457
28945SOL     OW91519   8.813   5.445   8.938  0.0343 -0.3398 -0.1877
28945SOL    HW191520   8.874   5.393   8.885  0.6640  0.6273 -0.4481
28945SOL    HW291521   8.861   5.464   9.019 -0.5572 -0.9723  0.3247
28946SOL     OW91522  11.608  11.018   3.880  0.2299  0.4185 -0.8461
28946SOL    HW191523  11.571  11.048   3.797 -0.9643 -0.2012 -0.5457
28946SOL    HW291524  11.545  10.954   3.914  1.0071  0.1953  0.2356
28947SOL     OW91525   3.818  11.369   4.293  0.7704 -0.6245 -0.1141
28947SOL    HW191526   3.790  11.460   4.283 -1.2269 -1.2316 -0.4735
28947SOL    HW291527   3.900  11.364   4.244  0.2292  0.6853 -1.2284
28948SOL     OW91528   6.414   3.140   9.474  0.1636 -0.4480 -0.0489
28948SOL    HW191529   6.389   3.227   9.442 -0.8213 -0.8898 -0.5174
28948SOL    HW291530   6.435   3.154   9.566  1.8021  0.6150 -0.5397
28949SOL     OW91531  10.649  10.947   0.127  0.3322  0.1721 -0.5764
28949SOL    HW191532  10.662  11.025   0.181 -0.9426 -1.6656  2.6645
28949SOL    HW291533  10.559  10.954   0.096  0.3692  0.2165 -0.6733
28950SOL     OW91534   7.308  10.843  10.471 -0.7289 -0.3086  0.1719
28950SOL    HW191535   7.235  10.796  10.431 -0.6541  1.0206 -1.6666
28950SOL    HW291536   7.376  10.844  10.403  0.6988 -0.8040  1.5456
28951SOL     OW91537   9.440   8.858   2.244 -0.1694  1.0834 -0.1142
28951SOL    HW191538   9.402   8.853   2.156 -1.0997 -0.5876  0.3603
28951SOL    HW291539   9.428   8.950   2.269 -2.6453  0.9328 -0.5446
28952SOL     OW91540   0.567   5.061   6.681  0.6760 -0.0507 -0.3427
28952SOL    HW191541   0.652   5.048   6.638  0.7236 -0.4554 -0.1336
28952SOL    HW291542   0.585   5.049   6.774  0.4200  0.0278 -0.2822
28953SOL     OW91543   3.253   9.766  11.419 -0.4341 -0.6543 -0.0741
28953SOL    HW191544   3.303   9.829  11.369 -1.2812 -1.6757 -2.3336
28953SOL    HW291545   3.314   9.734  11.485  1.0591  0.0082 -1.0828
28954SOL     OW91546   2.821   1.336   6.806 -0.4500 -0.3074  0.1642
28954SOL    HW191547   2.818   1.405   6.740 -0.1438  0.2480  0.7097
28954SOL    HW291548   2.828   1.384   6.889 -0.0141 -1.0015  0.5364
28955SOL     OW91549  11.344   2.036   3.197 -0.4261 -0.2011  0.0088
28955SOL    HW191550  11.330   1.986   3.278  0.6311 -0.8834 -0.2195
28955SOL    HW291551  11.400   2.108   3.223 -0.1845 -0.3530 -0.0861
28956SOL     OW91552   4.253   0.859   2.364 -0.1822  0.2248  0.2336
28956SOL    HW191553   4.188   0.913   2.408 -2.0660 -0.9068 -1.0344
28956SOL    HW291554   4.269   0.902   2.280  0.3337  0.2122  0.3168
28957SOL     OW91555   5.859   9.544   4.839  0.0388 -0.3582  0.5194
28957SOL    HW191556   5.929   9.608   4.849  2.3344 -2.8090  1.5990
28957SOL    HW291557   5.818   9.566   4.755  2.4050  0.9763 -0.4006
28958SOL     OW91558   9.919   2.067   4.699 -0.1569  0.6870  0.5521
28958SOL    HW191559   9.916   2.140   4.636 -0.8261  0.8861  0.8095
28958SOL    HW291560  10.004   2.078   4.743  1.1099 -0.4543 -1.4695
28959SOL     OW91561   8.380   2.067   0.825 -0.8598  0.2029  0.5881
28959SOL    HW191562   8.347   2.019   0.901 -1.0564 -0.1997  0.2497
28959SOL    HW291563   8.303   2.110   0.788 -1.8473 -3.4151 -2.2129
28960SOL     OW91564   9.373   2.800   1.586 -0.1571  0.6562 -0.0026
28960SOL    HW191565   9.307   2.866   1.607  0.5222  1.3397  0.0498
28960SOL    HW291566   9.456   2.839   1.614  0.3176 -0.0190 -0.4241
28961SOL     OW91567  11.763   8.438   7.203  0.0955  0.1484 -0.0062
28961SOL    HW191568  11.758   8.476   7.290 -1.8345 -0.1576  0.0584
28961SOL    HW291569  11.772   8.344   7.218 -1.7105 -0.0582 -0.1019
28962SOL     OW91570  10.497   5.471   8.755 -0.2184  0.0682 -0.0488
28962SOL    HW191571  10.451   5.552   8.780 -3.3031 -1.8087  0.9210
28962SOL    HW291572  10.531   5.437   8.837  0.5589  0.0654 -0.3678
28963SOL     OW91573   6.771   3.055   7.190 -0.7755  0.7889 -0.0129
28963SOL    HW191574   6.777   3.131   7.133 -0.5614 -0.0011 -1.0871
28963SOL    HW291575   6.730   2.987   7.135  0.1815 -0.2473  0.5089
28964SOL     OW91576   4.286   2.817   1.651 -0.3444 -0.1019 -0.7407
28964SOL    HW191577   4.354   2.882   1.668 -0.5192  0.1949 -1.1425
28964SOL    HW291578   4.333   2.742   1.615 -0.0708 -0.4376  0.2911
28965SOL     OW91579   7.957   8.148   1.382 -0.5439  0.1845  0.0655
28965SOL    HW191580   8.050   8.150   1.357 -0.5695 -2.0132 -0.3896
28965SOL    HW291581   7.924   8.235   1.359  1.3747  1.0049  0.2095
28966SOL     OW91582   0.068   1.083  11.694  0.4683  0.4883  0.3406
28966SOL    HW191583   0.008   1.030  11.643  0.7296 -0.6229  1.1468
28966SOL    HW291584   0.112   1.138  11.629  2.1116 -2.1304 -0.9525
28967SOL     OW91585   7.357   3.135   9.040 -0.2771 -0.0504 -0.1488
28967SOL    HW191586   7.269   3.147   9.005 -0.4664 -2.2016 -0.5734
28967SOL    HW291587   7.345   3.128   9.134 -0.3198  1.4027 -0.0336
28968SOL     OW91588   6.415   9.329   7.744  0.1260 -0.2408 -0.0940
28968SOL    HW191589   6.394   9.407   7.795  1.5210  0.3181 -0.3453
28968SOL    HW291590   6.363   9.337   7.665  0.2697  0.4453 -0.1242
28969SOL     OW91591   0.652   5.113   9.511 -0.1653 -0.1061 -0.0390
28969SOL    HW191592   0.569   5.150   9.541  0.1513  0.8202 -0.2842
28969SOL    HW291593   0.631   5.021   9.492 -0.8442 -0.1965  1.0560
28970SOL     OW91594  10.769   6.828   5.067 -0.4195  0.1580  0.6587
28970SOL    HW191595  10.691   6.840   5.121 -0.4318 -1.1232  0.9616
28970SOL    HW291596  10.836   6.798   5.129  0.2131  0.8814  0.3344
28971SOL     OW91597   2.142   3.364  11.059  0.1456  0.3567  0.0827
28971SOL    HW191598   2.120   3.416  10.981  1.6697 -0.3547 -0.8580
28971SOL    HW291599   2.149   3.428  11.130  3.0146  1.6980 -1.2462
28972SOL     OW91600   4.542   4.768   6.911 -0.2785 -0.2032  0.6747
28972SOL    HW191601   4.631   4.802   6.899 -0.9972  1.3526 -0.5864
28972SOL    HW291602   4.514   4.805   6.995  0.7483 -1.9121  1.8292
28973SOL     OW91603  11.275   2.015   1.940  0.4853 -0.1103  0.4099
28973SOL    HW191604  11.182   2.035   1.952  0.7957  3.5589 -1.9169
28973SOL    HW291605  11.321   2.082   1.990  1.7584  0.9288 -2.0017
28974SOL     OW91606   4.585  10.612  11.441  0.4003  0.7737 -0.4930
28974SOL    HW191607   4.592  10.652  11.355 -2.9363  0.8043 -0.9147
28974SOL    HW291608   4.538  10.530  11.426  3.0773 -1.1830  0.9289
28975SOL     OW91609   7.758   8.771   8.597 -0.0868  0.2492  0.0776
28975SOL    HW191610   7.724   8.803   8.681 -0.6768  2.6472 -0.9929
28975SOL    HW291611   7.701   8.697   8.576 -3.4695  2.7588 -0.5696
28976SOL     OW91612   0.597   5.480   0.180  0.8891  0.7518 -0.3011
28976SOL    HW191613   0.677   5.427   0.180 -0.0287 -0.7227  1.1116
28976SOL    HW291614   0.606   5.538   0.256 -0.4051 -1.1591  1.4018
28977SOL     OW91615  10.941   7.971  10.378  0.5717 -0.7714  0.2126
28977SOL    HW191616  10.958   8.002  10.467  1.4918  0.2143 -0.2830
28977SOL    HW291617  11.024   7.934  10.349  0.5933 -0.0962 -0.6139
28978SOL     OW91618  10.149   4.756   3.644 -0.3691  0.3438  0.4885
28978SOL    HW191619  10.066   4.762   3.595 -1.1250  2.0224  1.8679
28978SOL    HW291620  10.143   4.673   3.691 -0.0115 -0.8791 -1.4836
28979SOL     OW91621   2.208   9.673   1.197 -0.1126 -0.8113 -0.4815
28979SOL    HW191622   2.240   9.643   1.282  0.0907  0.6651 -0.0064
28979SOL    HW291623   2.126   9.626   1.184  0.1884 -1.5472  0.2188
28980SOL     OW91624   0.074  11.305   0.627 -0.1973  0.1956  0.4512
28980SOL    HW191625   0.060  11.366   0.555  0.8043  0.7158  0.6736
28980SOL    HW291626   0.088  11.220   0.585  2.3007  0.8138 -0.1431
28981SOL     OW91627   7.457   9.557   3.627  0.2632 -0.1966 -0.3024
28981SOL    HW191628   7.436   9.638   3.579 -1.1769  0.8419  1.8952
28981SOL    HW291629   7.532   9.580   3.682 -0.4007 -0.1916  0.6277
28982SOL     OW91630   9.732  11.137  10.624 -0.0781  0.8793  0.9683
28982SOL    HW191631   9.745  11.164  10.533 -0.2713 -1.5512  0.1261
28982SOL    HW291632   9.638  11.143  10.638 -0.5759 -2.0075 -0.2728
28983SOL     OW91633   9.947   0.668   5.760 -0.0424  0.2383 -0.4825
28983SOL    HW191634  10.003   0.702   5.691 -0.7744  1.1740 -0.6406
28983SOL    HW291635   9.860   0.703   5.740 -0.6162 -0.8781 -0.0450
28984SOL     OW91636   9.575   8.183  11.581  0.1958 -0.6356  0.5825
28984SOL    HW191637   9.575   8.212  11.672 -0.0159 -2.2629  1.1375
28984SOL    HW291638   9.488   8.145  11.568  0.0018  0.1336 -0.5086
28985SOL     OW91639   9.216  10.037   2.726 -0.1726  0.3009  0.0116
28985SOL    HW191640   9.142  10.019   2.667  0.2906  1.2320 -0.8968
28985SOL    HW291641   9.175  10.068   2.807 -0.7927  1.2267 -0.6281
28986SOL     OW91642   5.079   3.052   3.021  0.4130  0.4998  0.2742
28986SOL    HW191643   5.116   3.112   3.085 -0.5478  0.7005  0.6519
28986SOL    HW291644   4.989   3.082   3.008 -0.2515 -1.1131  0.8164
28987SOL     OW91645  11.805   2.889  11.848 -0.2249  0.5301  0.4448
28987SOL    HW191646  11.790   2.965  11.903 -2.1717 -2.0576  3.9537
28987SOL    HW291647  11.738   2.895  11.780 -0.7237  1.6859  1.0160
28988SOL     OW91648   3.381   1.894   7.027  0.0539  0.4864 -0.0217
28988SOL    HW191649   3.467   1.932   7.042  0.4831 -0.2518 -0.5828
28988SOL    HW291650   3.394   1.800   7.036 -0.6197  0.3459 -0.4694
28989SOL     OW91651   0.892   3.786   8.332  0.3567  0.0157  0.1779
28989SOL    HW191652   0.976   3.748   8.309  0.1107  0.3175 -1.4013
28989SOL    HW291653   0.836   3.767   8.256 -1.0578 -0.3595  1.2685
28990SOL     OW91654   5.719   4.187   9.429  0.3103  0.0320 -0.4889
28990SOL    HW191655   5.735   4.093   9.420  0.4021  0.1742 -2.1721
28990SOL    HW291656   5.806   4.226   9.439  0.2459 -0.0704  0.6539
28991SOL     OW91657   6.847   2.149   9.793  0.1172 -0.2132 -0.0538
28991SOL    HW191658   6.769   2.198   9.765  0.6136  0.6867  0.0767
28991SOL    HW291659   6.920   2.202   9.760  0.7389  0.8041  2.6900
28992SOL     OW91660   3.917  11.154   2.793  0.1660 -0.1850 -0.8201
28992SOL    HW191661   3.902  11.249   2.786  0.7731  0.0314  0.5365
28992SOL    HW291662   3.873  11.118   2.716  0.9128  1.3041 -2.0175
28993SOL     OW91663   6.990   1.508   0.992  0.8479  0.2939  0.0895
28993SOL    HW191664   6.919   1.556   0.949  1.2681 -0.1488 -1.1287
28993SOL    HW291665   7.068   1.531   0.942  1.6047  0.8550  1.4756
28994SOL     OW91666   0.127   8.127   4.891 -0.0375 -0.5366  0.2240
28994SOL    HW191667   0.164   8.176   4.965 -0.4530 -0.7349  0.5654
28994SOL    HW291668   0.058   8.074   4.929 -1.1055  0.2887 -0.5123
28995SOL     OW91669   2.401   3.703   7.142  0.3864  0.1142  0.1003
28995SOL    HW191670   2.388   3.731   7.232 -1.7100 -1.9429  0.5273
28995SOL    HW291671   2.355   3.770   7.090  0.2680  0.4741  0.6561
28996SOL     OW91672  10.247   4.267   6.166 -0.1647 -0.3721  0.0066
28996SOL    HW191673  10.253   4.204   6.094  1.4623  1.5238 -1.6441
28996SOL    HW291674  10.178   4.328   6.139  0.7122  0.5698 -0.1796
28997SOL     OW91675   3.805   2.471   4.301 -0.3687  0.2510 -0.3189
28997SOL    HW191676   3.712   2.454   4.288 -0.2260 -1.4891  0.7069
28997SOL    HW291677   3.811   2.504   4.391  0.0030  0.3880 -0.3920
28998SOL     OW91678   0.117   1.604   6.642 -0.4821 -0.5473  0.2285
28998SOL    HW191679   0.173   1.682   6.647 -0.2505 -0.7653  1.3018
28998SOL    HW291680   0.170   1.540   6.594  0.5675 -1.0230  1.9312
28999SOL     OW91681  11.813   1.979   3.444 -0.3853 -0.5542  0.2159
28999SOL    HW191682  11.816   1.884   3.444  0.7487 -0.5397 -0.6052
28999SOL    HW291683  11.890   2.006   3.494 -0.6976 -0.0505  0.4464
29000SOL     OW91684   4.875  11.154  11.240 -0.3678  0.4120  0.4826
29000SOL    HW191685   4.785  11.126  11.254 -0.5007  0.2960 -0.5509
29000SOL    HW291686   4.918  11.079  11.198  0.1732  0.5187  0.8339
29001SOL     OW91687   3.143  11.760   9.609  0.0456  0.4267 -0.4753
29001SOL    HW191688   3.082  11.812   9.661  0.8402  0.3810  0.5395
29001SOL    HW291689   3.187  11.704   9.673  1.4748  0.7778 -1.1025
29002SOL     OW91690   8.575   4.532   6.541  0.3357 -0.2817 -0.6101
29002SOL    HW191691   8.510   4.470   6.574  1.1043 -0.1358  1.2636
29002SOL    HW291692   8.616   4.487   6.467 -0.2968 -1.2884 -0.3585
29003SOL     OW91693   4.384   4.262   7.670  0.0913 -0.3104  0.0328
29003SOL    HW191694   4.462   4.228   7.713 -1.0524  0.5394  3.0562
29003SOL    HW291695   4.414   4.289   7.583  3.3712  0.8065  1.3459
29004SOL     OW91696   8.669   1.626   7.464  0.5182  0.1049 -0.0038
29004SOL    HW191697   8.578   1.600   7.474 -0.4260  1.8026 -2.8263
29004SOL    HW291698   8.676   1.709   7.511  0.0970  0.7972 -1.1176
29005SOL     OW91699   3.865   9.984   5.890 -0.2162 -0.2131 -0.3076
29005SOL    HW191700   3.921  10.061   5.896 -0.0027 -0.4795  1.3548
29005SOL    HW291701   3.895   9.940   5.810  1.6716 -0.1230  0.2966
29006SOL     OW91702   8.881   5.885  10.447 -0.1082  0.3152  0.1993
29006SOL    HW191703   8.938   5.941  10.394 -0.8806  0.3215 -0.6664
29006SOL    HW291704   8.792   5.912  10.422 -0.5692  1.4684  2.7215
29007SOL     OW91705  10.946   6.909   6.120  0.2223  0.1244 -0.0669
29007SOL    HW191706  10.970   6.868   6.203  1.5411  0.1207 -0.4284
29007SOL    HW291707  11.006   6.983   6.111 -0.7088  0.8526 -0.4550
29008SOL     OW91708  11.758   0.687   1.882 -0.4007 -0.0865  0.0047
29008SOL    HW191709  11.846   0.663   1.912 -0.0174  1.1273 -0.1124
29008SOL    HW291710  11.699   0.640   1.941  0.3166 -0.8986  0.1002
29009SOL     OW91711   5.889   4.724   5.309 -0.0720 -0.3016  0.1523
29009SOL    HW191712   5.857   4.659   5.246  1.9291 -0.9032 -0.3181
29009SOL    HW291713   5.952   4.677   5.362 -1.0494  0.4446  2.0654
29010SOL     OW91714   0.628   7.787   0.188  0.2764  0.4478 -0.0192
29010SOL    HW191715   0.689   7.728   0.233  1.9456 -0.5200 -3.2104
29010SOL    HW291716   0.618   7.861   0.247  3.4332 -0.0286  1.3220
29011SOL     OW91717   0.258   6.249   6.135  0.0796 -0.0437  0.0761
29011SOL    HW191718   0.193   6.312   6.167  2.0064  2.0329  0.1627
29011SOL    HW291719   0.338   6.273   6.181  1.0264 -2.2534 -0.3401
29012SOL     OW91720   8.368   1.233   9.446 -0.3819 -0.5098 -0.2771
29012SOL    HW191721   8.296   1.278   9.401 -0.9329  0.1595  1.1653
29012SOL    HW291722   8.369   1.145   9.409 -1.6830 -0.3991 -0.6403
29013SOL     OW91723   4.341   5.841   3.393 -0.1299  0.4659  0.0018
29013SOL    HW191724   4.267   5.882   3.438 -0.6375  0.8842 -1.1840
29013SOL    HW291725   4.349   5.888   3.311 -0.5546 -1.6039 -1.3068
29014SOL     OW91726   6.717   2.508   5.156 -0.5226 -0.6626 -0.0096
29014SOL    HW191727   6.641   2.466   5.115 -1.2735  0.6488  0.0066
29014SOL    HW291728   6.791   2.453   5.129 -0.9352  0.1408 -3.2613
29015SOL     OW91729   0.201   3.765   5.252  0.1217 -0.2582  0.2660
29015SOL    HW191730   0.225   3.849   5.292  1.2004 -1.4723  2.3595
29015SOL    HW291731   0.209   3.701   5.323  0.8795 -2.3959 -1.5972
29016SOL     OW91732   1.748   7.073   7.147 -0.2437  0.1016  0.3436
29016SOL    HW191733   1.731   7.037   7.234  0.3116  2.4356  1.4957
29016SOL    HW291734   1.772   6.997   7.094 -1.5648 -1.5131  1.9467
29017SOL     OW91735   8.792   4.327   3.516  0.2006  0.8882  0.4528
29017SOL    HW191736   8.819   4.302   3.604  0.4232  1.1938  0.4738
29017SOL    HW291737   8.829   4.414   3.503  0.0656  0.8979  0.1023
29018SOL     OW91738   6.782   9.831   2.100 -0.7277 -0.6451 -0.5159
29018SOL    HW191739   6.808   9.768   2.034  1.4570  0.0143 -0.3652
29018SOL    HW291740   6.692   9.855   2.077 -1.0698 -2.6231 -1.4492
29019SOL     OW91741   6.521   7.356  11.928 -0.3982 -0.3333 -0.8622
29019SOL    HW191742   6.426   7.358  11.937 -0.3532 -1.7304  0.4551
29019SOL    HW291743   6.538   7.274  11.881  0.1729 -0.3835 -0.5734
29020SOL     OW91744   3.303   6.899   9.638 -0.0440 -0.6511  0.4026
29020SOL    HW191745   3.354   6.842   9.695 -0.2213  1.2884  2.6763
29020SOL    HW291746   3.224   6.849   9.617  0.6880 -1.9523  0.6951
29021SOL     OW91747   1.120   6.850   9.732 -0.1010  0.4203  0.3163
29021SOL    HW191748   1.183   6.812   9.670  0.1547 -0.0025  0.8249
29021SOL    HW291749   1.050   6.785   9.737  0.0602  0.2805  0.7544
29022SOL     OW91750   2.554   2.363   7.393 -0.1369  0.2438  0.0359
29022SOL    HW191751   2.495   2.436   7.375 -0.3885  0.0680  0.1483
29022SOL    HW291752   2.598   2.347   7.309 -2.6437 -1.7931 -1.0551
29023SOL     OW91753   4.257   0.521   1.983 -0.0053  0.5192  0.7050
29023SOL    HW191754   4.294   0.488   1.901 -0.8478  2.5011 -0.5436
29023SOL    HW291755   4.333   0.551   2.034  0.5642 -1.1536  0.9021
29024SOL     OW91756   4.455   2.937   5.653  0.1504 -0.1322  0.1767
29024SOL    HW191757   4.547   2.948   5.678  0.2930 -0.5406 -0.1599
29024SOL    HW291758   4.456   2.869   5.587 -0.7570 -2.7579  2.6537
29025SOL     OW91759   2.714   9.758   9.567  0.4178 -0.5180  0.0604
29025SOL    HW191760   2.674   9.796   9.645  0.1632  1.4893 -0.9862
29025SOL    HW291761   2.793   9.812   9.553  0.0052 -0.3001 -1.5277
29026SOL     OW91762   9.784   2.191   8.638  0.2262 -0.1717  0.0886
29026SOL    HW191763   9.819   2.265   8.687  1.2162 -1.1216  0.8618
29026SOL    HW291764   9.700   2.222   8.605  1.2067  1.7408 -0.7483
29027SOL     OW91765  11.411  11.604   9.128  0.3105  0.3541  0.2592
29027SOL    HW191766  11.354  11.529   9.107  0.1586  0.9251 -1.5271
29027SOL    HW291767  11.484  11.565   9.175  1.4090 -1.3615 -2.6136
29028SOL     OW91768   0.968   0.220   0.668  0.1654 -0.0071 -0.3832
29028SOL    HW191769   1.045   0.228   0.725 -0.3514  0.0640  0.3134
29028SOL    HW291770   0.922   0.143   0.702 -0.3169  0.2287 -0.5039
29029SOL     OW91771   1.855   2.746   9.248  0.4369 -0.5926  0.0501
29029SOL    HW191772   1.916   2.690   9.201 -1.6015 -2.8462 -0.1021
29029SOL    HW291773   1.875   2.731   9.341  1.0827 -0.1195 -0.0045
29030SOL     OW91774   5.862   0.938  11.517  0.6292 -0.1406 -0.3386
29030SOL    HW191775   5.899   0.917  11.431 -0.1737 -2.1495 -0.2504
29030SOL    HW291776   5.769   0.920  11.508  0.7009 -1.5420  1.2479
29031SOL     OW91777   4.614  10.945   9.903 -0.0726  0.1253 -0.3660
29031SOL    HW191778   4.575  11.006   9.841 -0.6998  1.0089  0.8505
29031SOL    HW291779   4.590  10.858   9.870 -2.1923  0.6081 -0.2459
29032SOL     OW91780   9.820   1.957   4.421 -0.1980 -0.9091  0.0480
29032SOL    HW191781   9.796   1.934   4.510  0.2732 -0.6304  0.2523
29032SOL    HW291782   9.843   1.874   4.380  1.7838 -0.8170  0.8686
29033SOL     OW91783   8.000  10.025   1.713  0.2950  0.5499  0.1107
29033SOL    HW191784   7.953  10.089   1.659  1.9874  2.5134  0.8444
29033SOL    HW291785   8.046   9.970   1.650  0.4269  1.3504 -0.5110
29034SOL     OW91786   6.207   0.510   6.655 -0.4956 -0.2723  0.9944
29034SOL    HW191787   6.298   0.536   6.663  0.3256 -1.9943 -1.6182
29034SOL    HW291788   6.188   0.462   6.735  1.4813 -1.4469  0.8162
29035SOL     OW91789   8.873   6.764   3.394 -1.1173 -0.2764 -0.0266
29035SOL    HW191790   8.817   6.701   3.437 -0.8326 -0.5784 -0.0948
29035SOL    HW291791   8.956   6.718   3.380 -0.5581  0.4255  0.8439
29036SOL     OW91792   1.531   3.448  11.913  0.1526  0.2295  0.2244
29036SOL    HW191793   1.485   3.368  11.941  0.4867  0.1397  0.5365
29036SOL    HW291794   1.461   3.510  11.892 -0.1204  0.2428  1.1059
29037SOL     OW91795   3.983   7.541   6.581  0.5223  0.0381 -0.1208
29037SOL    HW191796   4.052   7.488   6.621  2.7508  2.3504 -0.6658
29037SOL    HW291797   3.990   7.523   6.487 -0.3327 -0.4798 -0.0941
29038SOL     OW91798   4.741   5.073   8.133 -0.1880  0.0075  0.4200
29038SOL    HW191799   4.815   5.117   8.092  0.5352 -0.2090  1.4415
29038SOL    HW291800   4.722   4.999   8.075 -0.0651  0.4691 -0.2164
29039SOL     OW91801   4.639  11.425   4.334  0.1817 -0.1610  0.1154
29039SOL    HW191802   4.596  11.451   4.415  0.1546  2.0247 -0.5294
29039SOL    HW291803   4.719  11.381   4.362 -0.6411 -0.9510  1.3078
29040SOL     OW91804   3.421   5.138   0.224 -0.0906  0.3958  0.2754
29040SOL    HW191805   3.507   5.163   0.190 -0.4506 -0.9008 -1.7988
29040SOL    HW291806   3.371   5.114   0.146 -2.4673  1.4101  1.3912
29041SOL     OW91807   7.294   9.012   2.244 -0.0461 -0.6335 -0.2617
29041SOL    HW191808   7.226   8.960   2.285 -0.8433  0.0719 -0.6515
29041SOL    HW291809   7.253   9.097   2.229  1.8086  0.8440  2.2246
29042SOL     OW91810  10.635   3.045   1.691 -0.6183  0.0098  0.6171
29042SOL    HW191811  10.605   3.000   1.769 -0.0109 -1.4145  0.0746
29042SOL    HW291812  10.650   3.136   1.719  0.9646 -0.7611  2.5271
29043SOL     OW91813   1.338   5.265   9.324  0.2120  0.3772  0.4030
29043SOL    HW191814   1.338   5.276   9.419 -1.2859 -4.3280  1.2453
29043SOL    HW291815   1.416   5.213   9.306 -0.7636 -0.8291 -0.5027
29044SOL     OW91816   5.637   0.127   8.192  0.4361 -0.3612 -0.0286
29044SOL    HW191817   5.548   0.159   8.206  0.7942  0.1428  1.2619
29044SOL    HW291818   5.626   0.038   8.158 -0.5688  0.6819 -2.6802
29045SOL     OW91819   8.993   3.182   9.717 -0.2774 -0.2053  0.4967
29045SOL    HW191820   8.957   3.270   9.703 -0.8665 -0.4590  0.4046
29045SOL    HW291821   8.945   3.126   9.656 -0.8027 -0.8089  1.4388
29046SOL     OW91822   6.143   8.543   2.331 -0.2868  0.6058 -0.2317
29046SOL    HW191823   6.221   8.557   2.277  0.2672  2.1464  0.9060
29046SOL    HW291824   6.112   8.456   2.306  0.0093  1.1880 -2.9201
29047SOL     OW91825   6.516   2.888   9.743 -0.6370 -0.0767 -0.3491
29047SOL    HW191826   6.451   2.954   9.768 -2.4309 -1.9430  0.2356
29047SOL    HW291827   6.470   2.833   9.679  0.3663 -1.4474  0.0748
29048SOL     OW91828  11.916   2.565   5.569  0.8505  0.4728  0.0169
29048SOL    HW191829  11.926   2.616   5.488  1.4777  0.4027  0.0483
29048SOL    HW291830  11.835   2.598   5.608  0.7564  0.7898 -0.4356
29049SOL     OW91831   7.260   5.226   3.720 -0.3841  0.1654  0.0990
29049SOL    HW191832   7.327   5.235   3.652 -1.0168  0.0294 -0.5508
29049SOL    HW291833   7.198   5.296   3.703  0.8933  1.9502  2.2746
29050SOL     OW91834   6.076   8.556   4.684  0.0358 -0.2227  0.0541
29050SOL    HW191835   6.050   8.611   4.610  1.4919 -0.2131 -0.4803
29050SOL    HW291836   6.146   8.501   4.650  0.4873 -0.4844  1.3279
29051SOL     OW91837   3.014   6.918   2.873 -0.5952  0.1882  0.6174
29051SOL    HW191838   2.989   6.829   2.852 -1.9043  0.3719  1.2758
29051SOL    HW291839   3.020   6.920   2.969  1.7606  0.2398  0.5334
29052SOL     OW91840   7.816  11.700   6.447 -0.1798  0.2393 -0.5835
29052SOL    HW191841   7.737  11.748   6.420  0.1467  0.5686 -0.9811
29052SOL    HW291842   7.847  11.747   6.524 -1.3193 -0.9255  0.6116
29053SOL     OW91843   2.616   2.560  10.013  0.0119 -0.0367  0.2895
29053SOL    HW191844   2.656   2.502   9.948 -1.1360 -0.1354 -0.3590
29053SOL    HW291845   2.662   2.643  10.003  1.4027 -0.6957  0.9531
29054SOL     OW91846   5.289   5.243   7.737  0.1556 -0.1425  0.2252
29054SOL    HW191847   5.341   5.169   7.767 -0.7514 -0.9261 -0.0817
29054SOL    HW291848   5.245   5.275   7.816  1.9239  1.2632  0.7219
29055SOL     OW91849   9.600  10.636   5.609  0.7599  0.0115 -0.1269
29055SOL    HW191850   9.621  10.550   5.573 -0.7067 -0.2612 -0.4098
29055SOL    HW291851   9.543  10.676   5.543 -0.4593  0.2520  1.0232
29056SOL     OW91852   8.165   5.916  11.418  0.0761 -0.4453 -0.0913
29056SOL    HW191853   8.243   5.864  11.399 -1.8450 -2.7821 -2.5040
29056SOL    HW291854   8.163   5.982  11.349  0.2712  0.1147  0.4269
29057SOL     OW91855   2.392   5.268  10.761 -0.0072 -0.8219 -0.1038
29057SOL    HW191856   2.351   5.302  10.682 -0.5068 -1.0806  0.0423
29057SOL    HW291857   2.388   5.340  10.824  0.6387 -0.5205 -0.3929
29058SOL     OW91858   6.133   1.640   9.607  0.0653  0.4590 -0.1010
29058SOL    HW191859   6.110   1.581   9.535 -1.5127  0.6371  0.2182
29058SOL    HW291860   6.048   1.670   9.641  0.8195  2.1216  0.3951
29059SOL     OW91861  11.075   7.269  11.881 -0.9190 -0.2344  0.6307
29059SOL    HW191862  11.082   7.362  11.862  0.6043  0.0572  2.4075
29059SOL    HW291863  10.989   7.259  11.921 -1.0640  0.4115  0.4880
29060SOL     OW91864   4.786   4.355   2.737 -0.2799 -0.3405  0.4677
29060SOL    HW191865   4.840   4.304   2.798 -0.4039 -0.2578  0.6441
29060SOL    HW291866   4.793   4.307   2.654  0.7503  0.1329  0.2683
29061SOL     OW91867  10.996   5.216   7.402 -0.2458  0.3560  0.0146
29061SOL    HW191868  10.928   5.279   7.427  0.6166  1.2955  0.0444
29061SOL    HW291869  10.981   5.201   7.309 -2.1289 -1.5149  0.5223
29062SOL     OW91870   4.320  11.474   4.457 -0.2429  1.1534  0.2231
29062SOL    HW191871   4.397  11.467   4.514 -1.5476 -1.4261  1.8665
29062SOL    HW291872   4.324  11.397   4.401 -0.3161  2.3709 -1.5416
29063SOL     OW91873   8.572   1.444   5.839 -0.2770 -0.0640  0.4142
29063SOL    HW191874   8.586   1.479   5.926  3.1872  0.2554 -0.1205
29063SOL    HW291875   8.630   1.495   5.783  0.6360 -2.7979 -1.3611
29064SOL     OW91876   6.042  11.576   5.892 -0.3568  0.0834 -0.1010
29064SOL    HW191877   6.133  11.575   5.862  0.0253 -1.5565  0.9650
29064SOL    HW291878   6.030  11.490   5.932 -2.3239  0.3644 -0.0319
29065SOL     OW91879   9.358   8.893   1.445 -0.3831 -0.7717  0.0423
29065SOL    HW191880   9.317   8.821   1.396 -0.4261 -0.5414 -0.2623
29065SOL    HW291881   9.451   8.885   1.424 -0.4641 -0.3704 -0.4722
29066SOL     OW91882  10.015   8.248   6.789 -0.2131 -0.4542  0.9598
29066SOL    HW191883   9.948   8.287   6.845 -1.5438  0.9232 -1.3958
29066SOL    HW291884   9.968   8.186   6.734  0.0954  1.3077 -1.4797
29067SOL     OW91885   4.188  11.185   6.107 -0.3313 -0.3725 -0.4287
29067SOL    HW191886   4.232  11.161   6.025  1.3857  2.7105 -0.5593
29067SOL    HW291887   4.200  11.279   6.114  0.9844 -0.6326  4.1516
29068SOL     OW91888   7.687   3.586  10.225  0.3458 -0.2513 -0.0413
29068SOL    HW191889   7.747   3.588  10.150  1.5853  1.0657  0.9190
29068SOL    HW291890   7.600   3.581  10.186  0.9742 -0.1121 -1.5481
29069SOL     OW91891   6.340  11.346   2.226 -0.2154  0.3318 -0.2111
29069SOL    HW191892   6.395  11.288   2.172 -1.1813  0.6806 -1.6243
29069SOL    HW291893   6.384  11.430   2.222 -0.7849  0.5999 -1.3075
29070SOL     OW91894   4.395   6.025   3.890  0.4942 -0.1632 -0.1663
29070SOL    HW191895   4.457   5.963   3.927  1.3163  0.3660 -0.6275
29070SOL    HW291896   4.443   6.069   3.820 -0.8689 -0.7926 -1.5524
29071SOL     OW91897   7.896   1.967  10.461 -0.0642 -0.2432  0.7873
29071SOL    HW191898   7.880   1.991  10.370  1.3696  1.4620  0.9317
29071SOL    HW291899   7.931   1.878  10.457  1.3653  0.3303 -0.5010
29072SOL     OW91900   1.749  10.670   2.191 -0.2342  0.2840  0.5507
29072SOL    HW191901   1.755  10.641   2.100 -3.9412  2.3610 -0.5766
29072SOL    HW291902   1.779  10.761   2.190  1.2353 -0.1375  1.8259
29073SOL     OW91903   5.678   3.818   4.072 -0.9085 -0.1416  0.0720
29073SOL    HW191904   5.755   3.778   4.112 -1.7088  0.4022  2.2620
29073SOL    HW291905   5.683   3.911   4.096 -2.0414 -0.0326 -0.0468
29074SOL     OW91906   9.198   5.766   1.788  0.1687 -0.3531 -0.2793
29074SOL    HW191907   9.232   5.832   1.728 -1.0657 -0.6984 -1.3924
29074SOL    HW291908   9.128   5.723   1.740  1.8942 -3.5569 -0.2186
29075SOL     OW91909   1.462   1.740   8.789  0.5380 -0.6630  0.7345
29075SOL    HW191910   1.495   1.700   8.870  0.2157 -1.1250  0.6432
29075SOL    HW291911   1.492   1.831   8.793  0.5502 -0.6896  1.3607
29076SOL     OW91912   6.242   5.765   6.743  0.0570  0.3045 -1.0720
29076SOL    HW191913   6.183   5.695   6.716 -2.0758  1.3031  0.7199
29076SOL    HW291914   6.261   5.746   6.835  0.2450  1.5426 -0.8362
29077SOL     OW91915   2.900   3.152   2.988 -0.1543 -0.5787 -0.1482
29077SOL    HW191916   2.939   3.238   2.976 -0.1181  0.0042  3.0967
29077SOL    HW291917   2.820   3.154   2.937 -0.1226  1.3655 -0.1931
29078SOL     OW91918   6.797   8.379   8.510  0.1246  0.5664  0.0728
29078SOL    HW191919   6.738   8.450   8.485  0.1811 -0.1041 -2.2947
29078SOL    HW291920   6.885   8.415   8.498  0.1581  0.0538 -1.5525
29079SOL     OW91921   0.609   0.020   2.335 -0.3469  0.2402 -0.1510
29079SOL    HW191922   0.693   0.023   2.290 -0.5923  0.6411 -0.6001
29079SOL    HW291923   0.620   0.079   2.410  0.3390 -1.0977  0.8279
29080SOL     OW91924  10.086   7.857   5.507  0.0614  0.2479 -0.1120
29080SOL    HW191925   9.997   7.889   5.492 -0.6360 -1.4737  0.1747
29080SOL    HW291926  10.095   7.781   5.450  1.1876  0.1065  0.2125
29081SOL     OW91927   5.028   2.004  10.260 -0.5339  0.4151 -0.0327
29081SOL    HW191928   4.964   2.000  10.189 -2.0573 -1.5640  1.3301
29081SOL    HW291929   4.988   1.952  10.330  2.0282  0.1785  1.3510
29082SOL     OW91930   3.850   3.387   7.102  0.2955  0.0218 -0.1395
29082SOL    HW191931   3.782   3.414   7.164  0.8928  0.7691  0.2140
29082SOL    HW291932   3.888   3.470   7.071  0.9055 -0.3792 -0.4913
29083SOL     OW91933   4.265   9.045   0.987 -0.3447 -0.1361  0.4409
29083SOL    HW191934   4.328   8.974   0.999 -0.7279 -0.4526  0.5770
29083SOL    HW291935   4.198   9.009   0.928  1.4930  1.3671 -2.8634
29084SOL     OW91936   3.669   3.581  11.059 -0.1329 -0.5300 -0.0812
29084SOL    HW191937   3.609   3.546  11.125  0.1819 -0.9064  0.0107
29084SOL    HW291938   3.749   3.529  11.070  0.3913  0.3063  0.1472
29085SOL     OW91939   0.904  11.807  11.872 -0.0635 -0.2890  0.6318
29085SOL    HW191940   0.979  11.748  11.880 -0.7687 -1.2400  0.3998
29085SOL    HW291941   0.829  11.754  11.897 -0.8795  0.1152 -0.8473
29086SOL     OW91942   9.271   1.125   7.367 -0.0126  0.1824 -0.5265
29086SOL    HW191943   9.281   1.218   7.347 -0.9488  0.5220  0.4637
29086SOL    HW291944   9.178   1.114   7.385 -0.3370 -1.4255 -2.7998
29087SOL     OW91945   1.467   7.017   2.020  0.1639  0.0734  0.0181
29087SOL    HW191946   1.444   6.980   2.105 -2.6878 -2.8435 -1.7858
29087SOL    HW291947   1.395   7.076   1.999  0.4649  0.2003 -0.6863
29088SOL     OW91948  11.731   3.870   5.747 -0.2269 -0.0873 -0.7030
29088SOL    HW191949  11.681   3.793   5.718  0.9813 -0.8760 -0.7521
29088SOL    HW291950  11.738   3.860   5.841  1.7966 -1.2330 -0.9313
29089SOL     OW91951  10.262   7.177   4.090 -0.1132  0.4052 -0.3066
29089SOL    HW191952  10.331   7.156   4.027 -0.2374  1.7834 -0.9331
29089SOL    HW291953  10.183   7.137   4.052  0.4718 -2.1582  0.9744
29090SOL     OW91954   1.072   2.561  11.206  0.3743 -0.2399  0.0216
29090SOL    HW191955   1.045   2.552  11.115 -1.3954  0.4771  0.4319
29090SOL    HW291956   1.083   2.471  11.237 -1.4325 -0.5805 -0.2425
29091SOL     OW91957   6.899   0.698   5.742  0.0682 -0.5210 -0.5086
29091SOL    HW191958   6.826   0.749   5.778 -0.0228 -0.7999 -0.2943
29091SOL    HW291959   6.950   0.761   5.691 -0.4310 -0.3670 -0.8182
29092SOL     OW91960   9.895   8.787   9.200 -0.5506  0.0253  0.6134
29092SOL    HW191961   9.816   8.733   9.204  0.2307 -1.1228  1.1134
29092SOL    HW291962   9.901   8.813   9.108 -1.6366  0.3404  0.6169
29093SOL     OW91963   7.973   6.412   3.669 -0.2036  0.1122 -0.3381
29093SOL    HW191964   7.900   6.445   3.617 -1.4303 -1.8167  0.0914
29093SOL    HW291965   7.976   6.470   3.745 -1.5151  0.0165 -0.1953
29094SOL     OW91966   8.557   9.657  10.791 -0.0228 -1.2479 -0.4158
29094SOL    HW191967   8.537   9.742  10.752 -0.2519 -1.1462 -0.0714
29094SOL    HW291968   8.524   9.662  10.880 -0.7523 -1.9712 -0.6285
29095SOL     OW91969   7.271   1.968   8.531 -0.4244 -0.4363 -0.2754
29095SOL    HW191970   7.177   1.985   8.527 -0.4209  0.4029  2.0306
29095SOL    HW291971   7.308   2.042   8.578  1.3955 -0.8574 -0.9151
29096SOL     OW91972   9.795   3.593   4.922 -0.2019  0.2660 -0.2816
29096SOL    HW191973   9.806   3.656   4.851 -1.7337 -0.0796 -0.8722
29096SOL    HW291974   9.753   3.643   4.992  0.6520  0.4277  0.1354
29097SOL     OW91975   8.730   6.117   5.189 -0.0479 -0.6772 -0.2002
29097SOL    HW191976   8.802   6.126   5.251 -0.7918  0.2889  0.5654
29097SOL    HW291977   8.699   6.027   5.200  0.7947 -0.9864 -0.2827
29098SOL     OW91978   8.100   5.847   5.591 -0.3891 -0.3177 -0.3103
29098SOL    HW191979   8.128   5.809   5.508 -0.1638  1.1098 -0.9206
29098SOL    HW291980   8.162   5.919   5.606 -1.3367  0.3889  0.3162
29099SOL     OW91981   4.687   7.442  10.797 -0.8726 -0.6284  0.2009
29099SOL    HW191982   4.616   7.379  10.787 -1.0501 -0.0914 -3.2381
29099SOL    HW291983   4.711   7.465  10.707  0.9809  2.2017  1.2849
29100SOL     OW91984   6.106   4.329   0.721 -0.8678 -0.0921 -0.1044
29100SOL    HW191985   6.145   4.400   0.670  1.3018 -0.3321  1.1271
29100SOL    HW291986   6.027   4.368   0.759 -1.0138  0.9070 -1.3439
29101SOL     OW91987  10.588   8.822   2.181  0.7771 -0.0750  0.5148
29101SOL    HW191988  10.567   8.779   2.264  0.3301  0.3449  0.6239
29101SOL    HW291989  10.659   8.769   2.144  0.8311 -0.3948  1.0581
29102SOL     OW91990   8.445   5.894   9.147  0.4262  0.1907 -0.0074
29102SOL    HW191991   8.472   5.810   9.110 -0.9272 -0.5424  0.5972
29102SOL    HW291992   8.350   5.896   9.137  0.3982  1.5010  0.3025
29103SOL     OW91993   9.285   5.780   5.318  0.0681 -0.0084  0.0655
29103SOL    HW191994   9.332   5.861   5.300  1.1653 -0.6885 -0.1896
29103SOL    HW291995   9.352   5.718   5.344 -0.1547 -1.9851 -3.5139
29104SOL     OW91996   4.179   2.877   0.573 -0.0424  0.6601  0.7453
29104SOL    HW191997   4.248   2.887   0.638 -1.0264 -0.1488  1.9639
29104SOL    HW291998   4.130   2.800   0.603  0.1839 -0.5039 -1.6163
29105SOL     OW91999   4.608   6.087  11.352 -0.1795  0.3014  0.1658
29105SOL    HW192000   4.551   6.018  11.318  1.3438 -0.7997 -0.2488
29105SOL    HW292001   4.696   6.053  11.342  0.5996  2.0854  0.4953
29106SOL     OW92002   0.024   6.469   2.309 -0.1636 -0.0836 -0.0622
29106SOL    HW192003   0.026   6.401   2.242  0.6457 -0.3032  0.1763
29106SOL    HW292004   0.097   6.527   2.287  1.1958 -1.0901  1.5759
29107SOL     OW92005   7.500   2.255   6.586  0.0819  0.1788  0.0803
29107SOL    HW192006   7.422   2.230   6.636  0.7026 -0.6874  0.6286
29107SOL    HW292007   7.569   2.262   6.651  0.1858  2.3690 -0.1874
29108SOL     OW92008  11.497   7.268   1.587 -0.1307  0.1370  0.7564
29108SOL    HW192009  11.543   7.206   1.644  0.5585  0.4264  0.5282
29108SOL    HW292010  11.495   7.349   1.636 -2.7977 -0.5356  1.8980
29109SOL     OW92011  10.069   7.389   3.282 -0.2167 -0.7240 -0.0806
29109SOL    HW192012  10.064   7.451   3.209 -0.5755 -1.0930 -0.3724
29109SOL    HW292013  10.050   7.442   3.359 -0.5163 -0.4644 -0.3291
29110SOL     OW92014   1.394   4.578   1.798  0.0119 -0.5673  0.2873
29110SOL    HW192015   1.334   4.650   1.781  1.7988  1.2152  1.1601
29110SOL    HW292016   1.474   4.601   1.750  0.9219 -1.5091  1.2923
29111SOL     OW92017   3.405   1.963   5.842  0.4198 -0.1086  0.2653
29111SOL    HW192018   3.423   2.002   5.927 -1.4109  0.4805  0.4283
29111SOL    HW292019   3.476   1.900   5.829  1.9327  1.3175  1.2228
29112SOL     OW92020   8.710   1.479   5.232 -0.1792 -0.3892 -0.0254
29112SOL    HW192021   8.639   1.526   5.275  1.2188  0.9875  0.9108
29112SOL    HW292022   8.717   1.397   5.280 -0.1012  0.1699  0.9496
29113SOL     OW92023   4.793   1.686  10.652 -0.0158 -0.7444  0.2956
29113SOL    HW192024   4.816   1.636  10.731 -0.6652  1.3724  1.9089
29113SOL    HW292025   4.740   1.758  10.684  0.0164  0.4160 -2.0648
29114SOL     OW92026  10.967  10.790   3.406 -0.1559 -0.0966 -0.1912
29114SOL    HW192027  11.058  10.761   3.419 -0.4468 -0.4005  1.4911
29114SOL    HW292028  10.950  10.847   3.482 -1.1833  0.4425 -0.8077
29115SOL     OW92029   2.945  10.376   1.639  0.3652 -0.2616 -0.4299
29115SOL    HW192030   2.880  10.430   1.593  0.2363 -0.3963 -0.4073
29115SOL    HW292031   2.897  10.296   1.662  0.0851  0.2825  0.9713
29116SOL     OW92032   0.350  11.560   2.604  0.1169  0.3471 -0.2115
29116SOL    HW192033   0.294  11.612   2.545 -0.4162  2.4748  2.0313
29116SOL    HW292034   0.416  11.622   2.635  1.1108 -1.0373  0.5264
29117SOL     OW92035   2.652   8.803   5.760 -0.0649  0.2756 -0.7138
29117SOL    HW192036   2.618   8.826   5.673  0.3450 -1.0349 -1.2496
29117SOL    HW292037   2.600   8.727   5.786  0.2994  0.2277 -0.1179
29118SOL     OW92038   9.239   1.816   8.328 -0.4541  0.3519 -0.3456
29118SOL    HW192039   9.248   1.854   8.415  1.1338 -0.5130 -0.1033
29118SOL    HW292040   9.320   1.840   8.283 -0.2297 -1.1805 -0.7900
29119SOL     OW92041   7.881   7.107   8.518 -0.0514 -0.5965 -0.6238
29119SOL    HW192042   7.793   7.094   8.484 -0.7483 -0.8255  1.1571
29119SOL    HW292043   7.873   7.093   8.612  2.0427 -1.3370 -0.5010
29120SOL     OW92044   4.214   3.455   8.112 -0.3054 -0.5242  0.2575
29120SOL    HW192045   4.189   3.365   8.091  0.5185 -1.4047  2.7126
29120SOL    HW292046   4.305   3.462   8.081 -0.1020 -0.8182  0.7767
29121SOL     OW92047   6.642   5.036  10.731 -0.1491 -0.0924  0.1072
29121SOL    HW192048   6.586   5.107  10.700 -0.5264 -0.6542 -0.5274
29121SOL    HW292049   6.709   5.027  10.663 -0.6929 -1.0071 -0.3271
29122SOL     OW92050   8.873   2.125   1.710  0.0525  0.5367  0.3452
29122SOL    HW192051   8.960   2.163   1.720 -0.9909  2.9036  1.1890
29122SOL    HW292052   8.876   2.082   1.625  2.2790 -0.1908  0.7226
29123SOL     OW92053   1.815   9.878   3.174  0.3405  0.0951  0.2479
29123SOL    HW192054   1.784   9.788   3.186  0.7246 -0.0858 -0.1016
29123SOL    HW292055   1.861   9.899   3.255  0.3813 -0.0774  0.2696
29124SOL     OW92056   5.769   2.477   9.292 -0.1069 -0.3744 -0.1148
29124SOL    HW192057   5.833   2.472   9.362  1.0819  0.3887 -1.1091
29124SOL    HW292058   5.765   2.570   9.270 -2.2956 -0.2519  0.5725
29125SOL     OW92059   7.495   7.050  10.753  0.2226 -0.1620 -0.1580
29125SOL    HW192060   7.476   7.030  10.844 -1.0136 -0.2434 -0.4252
29125SOL    HW292061   7.486   7.145  10.746  0.6370 -0.1166 -0.1355
29126SOL     OW92062   4.109   2.632   8.504 -0.5323  0.2524 -0.3903
29126SOL    HW192063   4.018   2.630   8.535 -0.1656 -0.0254  0.7276
29126SOL    HW292064   4.150   2.558   8.548  0.4926  1.0053 -0.0408
29127SOL     OW92065   5.871   9.521   0.120  0.2177 -0.4543  0.1265
29127SOL    HW192066   5.877   9.608   0.158  1.7668 -1.1678  1.6957
29127SOL    HW292067   5.959   9.503   0.086 -0.3441 -1.0349 -1.0889
29128SOL     OW92068   6.410   9.419   7.217  0.5857  0.1650  0.1726
29128SOL    HW192069   6.350   9.494   7.219 -1.2963 -1.2050 -1.4751
29128SOL    HW292070   6.389   9.369   7.296 -1.9608 -1.3091 -1.2986
29129SOL     OW92071   3.501   5.252   1.859  0.1223  0.0118  0.7727
29129SOL    HW192072   3.497   5.179   1.919  0.2220 -0.3302  0.3684
29129SOL    HW292073   3.470   5.327   1.910 -0.8270 -0.4738  0.9374
29130SOL     OW92074   6.129   0.197   1.478  0.1149  0.2425 -0.6957
29130SOL    HW192075   6.121   0.252   1.400 -2.1503  1.3520  0.2299
29130SOL    HW292076   6.116   0.257   1.551  0.5200 -1.0461  0.4782
29131SOL     OW92077  11.316   4.071  10.920 -0.0121 -0.3699  0.3486
29131SOL    HW192078  11.282   4.131  10.986  1.7662  1.0922  0.0359
29131SOL    HW292079  11.331   4.126  10.843  0.0276 -1.5890 -0.5514
29132SOL     OW92080   7.171   4.285   8.169 -0.3025 -0.0162 -0.1731
29132SOL    HW192081   7.193   4.347   8.100 -0.8241 -0.1788 -0.4929
29132SOL    HW292082   7.142   4.206   8.122 -0.5780 -0.1577  0.2291
29133SOL     OW92083   5.248   5.956   2.472 -0.3584  0.0724  0.4017
29133SOL    HW192084   5.223   6.034   2.423 -2.4229 -0.6016  0.2961
29133SOL    HW292085   5.257   5.987   2.562 -0.7126  0.5214  0.2899
29134SOL     OW92086   3.888   5.960   0.705 -0.8796 -0.3985 -0.0430
29134SOL    HW192087   3.966   5.930   0.658 -0.9161  1.1383 -1.1621
29134SOL    HW292088   3.819   5.900   0.678 -0.5283 -0.5255 -0.6687
29135SOL     OW92089  11.520   6.135  11.112  0.4811  0.0475 -0.0960
29135SOL    HW192090  11.572   6.157  11.189  1.2385 -2.0045  0.0578
29135SOL    HW292091  11.581   6.144  11.039  0.1900  0.5432 -0.2778
29136SOL     OW92092   5.141  11.826   4.196 -0.2786  0.5198 -0.0107
29136SOL    HW192093   5.227  11.786   4.206 -0.7173  0.0384  2.3637
29136SOL    HW292094   5.106  11.787   4.116  0.7043 -1.2240  0.3577
29137SOL     OW92095   8.257   6.691   1.107 -0.3576  0.4911 -0.5465
29137SOL    HW192096   8.340   6.644   1.111 -0.6821 -0.1854 -1.4668
29137SOL    HW292097   8.195   6.633   1.152 -0.7626  0.0082 -1.7055
29138SOL     OW92098   6.943   9.322   4.845 -0.0589  0.1493 -0.3481
29138SOL    HW192099   6.997   9.288   4.915  0.1942  0.7900 -0.2263
29138SOL    HW292100   7.002   9.378   4.794 -0.3315 -0.0153 -0.8552
29139SOL     OW92101  10.153   2.317  10.693 -0.0922  0.1706 -0.2184
29139SOL    HW192102  10.155   2.410  10.716 -0.4086  0.2766 -0.6126
29139SOL    HW292103  10.186   2.272  10.771 -0.2889  0.5891  0.1076
29140SOL     OW92104   6.883   0.157  10.817 -0.1237 -0.1504 -0.3379
29140SOL    HW192105   6.792   0.136  10.799  0.2196 -1.1408 -1.0196
29140SOL    HW292106   6.887   0.252  10.815 -0.7762 -0.1340 -2.2361
29141SOL     OW92107  10.935   1.161   3.062  0.8108  0.1065 -0.3891
29141SOL    HW192108  10.899   1.182   3.148  1.7416  2.6150 -0.5265
29141SOL    HW292109  10.859   1.161   3.004  0.1806 -1.5647  0.3906
29142SOL     OW92110  10.603  11.821   9.379 -0.1994  0.3238 -0.5419
29142SOL    HW192111  10.610  11.731   9.411 -1.4310  0.9331  1.6073
29142SOL    HW292112  10.531  11.819   9.316  0.8029 -0.4577 -1.7173
29143SOL     OW92113  10.084  10.700   9.153  0.1279  0.0308  0.3842
29143SOL    HW192114  10.157  10.746   9.112  0.9172  0.2079  1.9387
29143SOL    HW292115  10.032  10.668   9.079  1.0769  0.9922 -0.7405
29144SOL     OW92116   8.095   7.175   9.844 -0.0585  0.6977 -0.4334
29144SOL    HW192117   8.166   7.198   9.783 -0.5462  2.5642 -0.3556
29144SOL    HW292118   8.139   7.164   9.928  0.3804 -0.1352 -0.7573
29145SOL     OW92119   6.885   4.960  10.980  0.7044  0.6691 -0.0496
29145SOL    HW192120   6.975   4.992  10.979  1.1466 -0.4517 -1.9935
29145SOL    HW292121   6.883   4.895  11.051  1.9700 -0.5795 -1.0946
29146SOL     OW92122   9.483   7.597   9.465 -0.2156 -0.1539 -0.6718
29146SOL    HW192123   9.390   7.574   9.475  0.6561 -3.1848  2.6608
29146SOL    HW292124   9.515   7.538   9.397 -0.2779 -0.9293 -0.0495
29147SOL     OW92125   3.484   0.604   2.899  0.3231  0.7006 -0.6578
29147SOL    HW192126   3.496   0.523   2.949 -2.1535  2.0599  2.5098
29147SOL    HW292127   3.406   0.589   2.846 -1.0024  1.3553  1.0119
29148SOL     OW92128   9.575   8.553   1.389  0.1967  0.0375  0.4997
29148SOL    HW192129   9.584   8.647   1.403  1.9569 -0.1782  1.0745
29148SOL    HW292130   9.569   8.516   1.477 -1.2645 -0.3614  0.2656
29149SOL     OW92131   2.667   0.558   7.121  0.1720  0.0063  0.4787
29149SOL    HW192132   2.762   0.547   7.130  0.1522  0.0113  0.6971
29149SOL    HW292133   2.657   0.646   7.083  0.3008 -0.4372 -0.6172
29150SOL     OW92134   0.753   5.915   5.594  0.3497 -0.0704 -0.0208
29150SOL    HW192135   0.660   5.929   5.580  0.3851 -1.4726 -2.1448
29150SOL    HW292136   0.782   5.991   5.644 -1.9717  0.2159  0.9712
29151SOL     OW92137   3.393   6.571   4.083 -0.3526 -0.5014  0.2899
29151SOL    HW192138   3.434   6.547   3.999 -0.2829  0.0551  0.1588
29151SOL    HW292139   3.467   6.587   4.141 -0.3608  0.6584  0.0102
29152SOL     OW92140   3.991   9.589   9.963  0.0151  0.1951 -0.1001
29152SOL    HW192141   4.071   9.639   9.978  0.9424 -1.3518  0.2958
29152SOL    HW292142   3.991   9.521  10.030 -3.6515  2.4067  2.5319
29153SOL     OW92143   8.734   4.632   8.506 -0.2915 -0.0670  0.1583
29153SOL    HW192144   8.687   4.578   8.443  1.6632 -1.2379 -0.3755
29153SOL    HW292145   8.750   4.574   8.581  2.2670 -0.5091 -0.6202
29154SOL     OW92146   3.605   9.290   3.689  0.2509 -0.3933  0.2256
29154SOL    HW192147   3.547   9.349   3.641  1.6759  0.6458 -0.2850
29154SOL    HW292148   3.546   9.224   3.726 -1.0422 -0.6451 -2.0479
29155SOL     OW92149   4.217   8.168   3.651  0.2762 -0.5447  0.7608
29155SOL    HW192150   4.312   8.176   3.644  0.2986 -1.5213 -0.5380
29155SOL    HW292151   4.200   8.075   3.635 -1.0080 -0.0738 -0.9570
29156SOL     OW92152  11.592   6.035   7.234 -0.3445 -0.6881  0.4060
29156SOL    HW192153  11.517   5.979   7.218 -0.2622 -0.7162  0.0983
29156SOL    HW292154  11.556   6.115   7.270 -0.4908 -0.8301  0.5709
29157SOL     OW92155   7.913   0.543   2.023 -0.2590  0.1550  0.4294
29157SOL    HW192156   7.831   0.550   1.974  0.2628  0.0071 -0.4858
29157SOL    HW292157   7.956   0.628   2.011 -0.3545  0.2983  1.0595
29158SOL     OW92158   3.979   1.181   0.995 -0.3436 -0.7387  0.4868
29158SOL    HW192159   4.072   1.202   0.994 -0.7962  1.6657 -1.6649
29158SOL    HW292160   3.945   1.223   1.074 -0.0394  0.9067 -0.2219
29159SOL     OW92161   2.891   7.181   8.349  0.0463  0.6873 -0.2975
29159SOL    HW192162   2.984   7.191   8.371  0.1758  0.3408 -0.6918
29159SOL    HW292163   2.845   7.205   8.430  0.4723  0.9755 -0.1365
29160SOL     OW92164   2.222   2.964   1.093 -0.1775 -0.5680  0.1886
29160SOL    HW192165   2.289   3.027   1.116 -0.6575  1.5223 -3.4295
29160SOL    HW292166   2.140   3.006   1.118 -0.4088 -0.5288 -0.6132
29161SOL     OW92167   0.431   7.618   4.703  0.1882 -0.1051  0.1270
29161SOL    HW192168   0.407   7.565   4.779  0.1499 -0.9647 -0.4690
29161SOL    HW292169   0.347   7.652   4.670  0.0545 -0.7898 -0.2765
29162SOL     OW92170   3.502   1.650   7.035  0.1503 -0.4168 -0.1780
29162SOL    HW192171   3.458   1.570   7.063  1.8875 -0.7788  1.8482
29162SOL    HW292172   3.581   1.654   7.090  1.8045  0.9950 -2.4519
29163SOL     OW92173   4.608   1.260   1.371  0.3707  0.1525  0.1037
29163SOL    HW192174   4.533   1.246   1.313 -1.6985 -0.4615  2.7289
29163SOL    HW292175   4.677   1.206   1.334 -1.4669 -1.7885 -0.7225
29164SOL     OW92176   7.046  11.665   0.230  0.3442  0.2395 -0.1711
29164SOL    HW192177   7.105  11.593   0.208  2.1805  1.0712  1.6520
29164SOL    HW292178   7.053  11.725   0.156 -2.3690 -1.9664 -2.4463
29165SOL     OW92179  11.079   6.288   5.739  0.4175  0.1825  0.5908
29165SOL    HW192180  11.000   6.241   5.713 -0.0457  0.1990  1.9052
29165SOL    HW292181  11.127   6.226   5.794  0.2712  0.8787  1.5358
29166SOL     OW92182   4.841   7.831   2.423  0.3135 -0.3793  0.1320
29166SOL    HW192183   4.778   7.889   2.466  1.2531  0.9398 -0.1925
29166SOL    HW292184   4.795   7.797   2.347 -1.4544 -2.9166  2.1758
29167SOL     OW92185   3.093  11.840  10.958  0.1558  0.8961 -0.2131
29167SOL    HW192186   2.997  11.838  10.952  0.2071  0.7478 -1.1375
29167SOL    HW292187   3.110  11.874  11.045 -0.7447  1.0799 -0.0911
29168SOL     OW92188   2.983  11.560   9.033 -0.6010 -0.2887  0.6350
29168SOL    HW192189   2.958  11.650   9.013  0.8204  0.3219  1.4422
29168SOL    HW292190   3.015  11.524   8.950  1.9443  1.0681  0.9224
29169SOL     OW92191   7.455   4.208   7.155  0.6063  0.4448 -0.1648
29169SOL    HW192192   7.530   4.152   7.178 -1.1611 -1.6164  0.8934
29169SOL    HW292193   7.404   4.214   7.235 -0.5452  1.5184 -0.9536
29170SOL     OW92194   9.010   9.185   2.278  0.1579 -0.4557 -0.4384
29170SOL    HW192195   8.915   9.185   2.267  0.0158  1.8586  0.2921
29170SOL    HW292196   9.032   9.094   2.298 -2.2072 -0.6517  1.7450
29171SOL     OW92197   4.064   7.384   4.829  0.1407 -0.4952 -0.0845
29171SOL    HW192198   4.148   7.414   4.866 -0.3671  1.1819 -0.1837
29171SOL    HW292199   4.081   7.295   4.799  2.1642  0.1369 -0.9714
29172SOL     OW92200  10.003   0.965   6.208 -0.1422  0.5904 -0.1986
29172SOL    HW192201  10.025   0.914   6.130 -2.3586  1.0063 -1.1716
29172SOL    HW292202  10.082   1.014   6.228  1.4842 -1.8264 -0.2963
29173SOL     OW92203  11.218   2.780   2.794  0.4158 -0.1758  0.5115
29173SOL    HW192204  11.265   2.863   2.791 -0.0283  0.1239  1.5324
29173SOL    HW292205  11.286   2.715   2.812  0.9074 -0.1886 -1.1702
29174SOL     OW92206  11.634   0.226   3.686  0.9008  0.4991  0.1277
29174SOL    HW192207  11.614   0.238   3.593  1.4240 -1.9355 -0.3831
29174SOL    HW292208  11.627   0.131   3.699 -0.7377  0.9241  2.9806
29175SOL     OW92209   9.100   6.864   5.940 -0.3991 -0.4496 -0.2325
29175SOL    HW192210   9.064   6.787   5.984 -0.9819  0.5259  1.0754
29175SOL    HW292211   9.024   6.911   5.907 -0.2595  0.6995  0.9711
29176SOL     OW92212   9.832   8.623  10.773 -0.0587 -0.8397 -0.1727
29176SOL    HW192213   9.850   8.709  10.812 -1.0511 -0.2893 -0.8836
29176SOL    HW292214   9.868   8.561  10.836  1.8524  0.1008 -0.2466
29177SOL     OW92215   7.912   9.389  11.591  0.0330 -0.4002 -0.2675
29177SOL    HW192216   7.955   9.309  11.620  0.1236  0.5547  2.4888
29177SOL    HW292217   7.820   9.377  11.613 -0.0203  0.1108 -0.2043
29178SOL     OW92218   1.040   2.454  10.929 -0.6505  0.1043 -0.2671
29178SOL    HW192219   0.988   2.499  10.862 -0.9253 -0.2808 -0.3193
29178SOL    HW292220   0.995   2.371  10.942 -0.4567  0.0702  0.2191
29179SOL     OW92221   7.534   5.023   1.797  0.1318  0.1475 -0.7881
29179SOL    HW192222   7.540   5.106   1.749 -0.9470 -0.2932 -1.7455
29179SOL    HW292223   7.466   5.038   1.863  0.5800  0.2967 -0.3551
29180SOL     OW92224   3.478   0.479   4.935 -0.3918 -0.3034 -0.2508
29180SOL    HW192225   3.497   0.570   4.956 -3.0301  0.2121  0.2676
29180SOL    HW292226   3.543   0.455   4.869  1.1544  1.5253  0.5252
29181SOL     OW92227   2.404  10.888   7.617  0.1105 -0.2699 -0.0320
29181SOL    HW192228   2.473  10.915   7.678  0.0952 -0.2928 -0.0052
29181SOL    HW292229   2.325  10.883   7.670 -0.1443  0.8650 -0.2854
29182SOL     OW92230   7.536   6.235   2.705 -0.8867  0.2211  0.2416
29182SOL    HW192231   7.626   6.227   2.737 -1.3469  0.0078  1.5405
29182SOL    HW292232   7.541   6.301   2.636  0.4653 -0.6700 -0.5345
29183SOL     OW92233   4.293   9.341   2.013  0.4576 -0.2362  0.0034
29183SOL    HW192234   4.303   9.385   2.097 -1.9753  1.0407 -0.3007
29183SOL    HW292235   4.236   9.266   2.031  1.0292 -0.7532 -0.2899
29184SOL     OW92236   6.621   4.351  10.362  0.5674 -0.1123 -0.1985
29184SOL    HW192237   6.714   4.327  10.359  0.3491 -1.1473 -3.8385
29184SOL    HW292238   6.575   4.269  10.377  0.1348  0.6343  3.3911
29185SOL     OW92239   9.090   9.907   8.410  0.2219 -0.7054  0.4707
29185SOL    HW192240   9.111   9.996   8.382  0.7075 -0.8862  0.2529
29185SOL    HW292241   9.175   9.864   8.422  0.1664 -0.0785  4.1464
29186SOL     OW92242   9.361   4.048   8.234 -0.1272 -0.0454  0.2674
29186SOL    HW192243   9.329   3.964   8.268  1.1038 -0.1127  1.3288
29186SOL    HW292244   9.434   4.071   8.292  0.2086  1.2576 -0.6368
29187SOL     OW92245   2.978   7.987  11.170  0.2456  0.0678  0.1741
29187SOL    HW192246   3.029   7.943  11.238 -0.3343  0.3629  0.8154
29187SOL    HW292247   2.973   7.924  11.099 -0.4829 -0.8933  1.0371
29188SOL     OW92248   3.279   8.454   9.362 -0.4619 -0.1068 -0.2001
29188SOL    HW192249   3.200   8.434   9.310 -1.0445  0.9928  0.2165
29188SOL    HW292250   3.266   8.545   9.389  0.3367 -0.3295  0.9871
29189SOL     OW92251   7.462  11.777   1.495  0.0055 -0.1363  0.1197
29189SOL    HW192252   7.452  11.754   1.403  0.5759  0.2116 -0.0359
29189SOL    HW292253   7.491  11.696   1.537  0.6603 -0.0719 -0.1821
29190SOL     OW92254   0.236   1.664  10.745  0.1146 -0.1714 -0.0221
29190SOL    HW192255   0.140   1.664  10.737  0.2200 -0.9237 -1.5459
29190SOL    HW292256   0.267   1.637  10.659  1.6664 -1.2926  0.8549
29191SOL     OW92257   3.179   5.700  11.880  0.5677  0.1042  0.2158
29191SOL    HW192258   3.205   5.781  11.923  0.2592  0.4815 -0.2958
29191SOL    HW292259   3.115   5.660  11.939 -0.1926  0.8370 -0.0954
29192SOL     OW92260   2.596   8.326   8.103 -0.6124  1.1156 -0.0432
29192SOL    HW192261   2.576   8.396   8.165 -1.7072  0.5522  0.2699
29192SOL    HW292262   2.550   8.249   8.138  1.2560 -0.0048  0.1021
29193SOL     OW92263   3.564  11.304   8.627 -0.3266 -0.2709  0.3004
29193SOL    HW192264   3.528  11.285   8.713 -1.1168  0.3090  0.1063
29193SOL    HW292265   3.578  11.218   8.588 -2.5517 -0.5564 -0.0289
29194SOL     OW92266   1.434   6.394   4.898 -0.0952 -0.3616  0.4938
29194SOL    HW192267   1.401   6.391   4.988 -0.2935 -1.2939  0.4030
29194SOL    HW292268   1.409   6.481   4.866 -0.0192 -0.0190  1.3328
29195SOL     OW92269   5.946   7.271   1.774  0.1511 -0.0179 -0.1889
29195SOL    HW192270   5.976   7.359   1.751 -1.5604  0.6631  0.0187
29195SOL    HW292271   6.010   7.212   1.736  0.8844  1.3049 -1.0383
29196SOL     OW92272   9.534   1.182   0.328  0.3905 -0.1857 -0.0891
29196SOL    HW192273   9.503   1.129   0.255 -1.3351  0.0180  0.4314
29196SOL    HW292274   9.529   1.124   0.404 -0.6415  0.4031  0.3272
29197SOL     OW92275   5.016   1.062   3.058  0.0932  0.8550  0.0537
29197SOL    HW192276   5.104   1.072   3.094  0.0646 -2.0929  1.2366
29197SOL    HW292277   5.029   1.030   2.969  0.1882  1.6035 -0.2071
29198SOL     OW92278   3.921   2.034   7.587 -0.1178 -0.4136  0.3060
29198SOL    HW192279   3.852   1.987   7.634 -1.3243  1.6663  0.7497
29198SOL    HW292280   3.874   2.092   7.527  1.3811 -2.7636 -3.4129
29199SOL     OW92281   2.711   5.492   9.774  0.4772  0.0029  0.0392
29199SOL    HW192282   2.627   5.463   9.809  0.5508 -0.1798  0.0664
29199SOL    HW292283   2.770   5.417   9.787  0.8540  0.4193  0.7541
29200SOL     OW92284   3.307   8.733   2.506  0.1294 -0.1663 -0.1458
29200SOL    HW192285   3.292   8.810   2.451  3.7185  0.9805  0.2661
29200SOL    HW292286   3.297   8.659   2.446  0.5497  0.8418 -1.5146
29201SOL     OW92287   9.004   2.127  11.614  0.3956 -0.4148 -0.3672
29201SOL    HW192288   9.018   2.217  11.644  0.4991 -0.0968 -1.3411
29201SOL    HW292289   9.056   2.074  11.674  1.4806  0.2989 -0.6413
29202SOL     OW92290   1.853   7.142   0.705 -0.1176  0.1312 -0.1512
29202SOL    HW192291   1.797   7.074   0.667  1.1011 -0.8860 -0.1785
29202SOL    HW292292   1.939   7.101   0.713  0.6948  1.7209 -0.3034
29203SOL     OW92293  10.292   4.062   0.807  0.4060 -0.0069 -0.3054
29203SOL    HW192294  10.377   4.107   0.798  0.8579 -0.4059  1.6042
29203SOL    HW292295  10.310   3.972   0.782  0.8450 -0.3466  1.1515
29204SOL     OW92296   7.200   9.727   4.958 -0.2068 -0.3129 -0.2377
29204SOL    HW192297   7.117   9.741   4.913 -0.7819 -1.0112  0.5607
29204SOL    HW292298   7.264   9.718   4.888 -0.8320  0.0566 -0.8716
29205SOL     OW92299  12.000   3.588   7.018 -0.3061  0.1883  1.0121
29205SOL    HW192300  12.082   3.541   7.033 -0.3334 -0.7430 -1.3494
29205SOL    HW292301  11.979   3.627   7.103  1.6367 -1.0235  2.1279
29206SOL     OW92302  11.670   5.268   7.835 -0.1787 -0.4994  0.5965
29206SOL    HW192303  11.710   5.193   7.878  0.7153 -1.4771 -1.8021
29206SOL    HW292304  11.737   5.300   7.774 -1.6999  0.1436 -0.8246
29207SOL     OW92305   3.235   2.787   4.347  0.1605  0.1778  0.8700
29207SOL    HW192306   3.248   2.796   4.253 -1.1627  1.0231  0.7419
29207SOL    HW292307   3.141   2.803   4.360  0.5371  1.4157  2.4676
29208SOL     OW92308   3.895  11.246  10.618  0.2714  0.0290 -0.4517
29208SOL    HW192309   3.809  11.256  10.578 -0.7691 -2.1888  0.9868
29208SOL    HW292310   3.881  11.267  10.711  1.3069 -0.2776 -0.2102
29209SOL     OW92311  10.679   9.256   8.070 -0.1829  0.4116 -0.3485
29209SOL    HW192312  10.629   9.177   8.090 -1.3036  0.9241 -0.9989
29209SOL    HW292313  10.651   9.320   8.136  0.2648  0.4530 -0.1939
29210SOL     OW92314   9.464   6.469   2.271 -0.2550  0.2138  0.3215
29210SOL    HW192315   9.447   6.434   2.184 -2.5442 -2.2865  1.6243
29210SOL    HW292316   9.537   6.417   2.304 -0.8402 -0.4038  0.6719
29211SOL     OW92317   1.107   8.370   7.644  0.2013 -0.0381 -0.3888
29211SOL    HW192318   1.116   8.384   7.739 -2.1020  0.6537 -0.2073
29211SOL    HW292319   1.181   8.418   7.606  0.0521  1.3721  0.9738
29212SOL     OW92320   3.564   6.060   3.394  0.4022  0.2112 -0.5155
29212SOL    HW192321   3.594   6.125   3.456  0.7914 -0.8462  0.4439
29212SOL    HW292322   3.563   6.105   3.309  0.0421  1.6148  0.2159
29213SOL     OW92323   3.707  11.149   3.756 -0.9308  0.2387 -0.2350
29213SOL    HW192324   3.678  11.211   3.822 -1.0532  0.6839 -0.7008
29213SOL    HW292325   3.629  11.132   3.702 -1.3652 -1.6194  0.8783
29214SOL     OW92326   7.549  11.610   3.913  0.1490  0.0038 -0.4496
29214SOL    HW192327   7.618  11.563   3.959  1.2566  1.7316 -0.2345
29214SOL    HW292328   7.469  11.562   3.932  0.7787 -0.1497  2.1380
29215SOL     OW92329   7.539   3.866   2.419  0.1832 -0.1625  0.5770
29215SOL    HW192330   7.595   3.944   2.420  0.3559 -0.2350 -1.1035
29215SOL    HW292331   7.450   3.902   2.428  0.2251  0.2943 -0.6298
29216SOL     OW92332  10.667   9.367  11.674 -0.2217  0.4738 -0.5447
29216SOL    HW192333  10.611   9.317  11.615 -0.3594 -0.9703  0.7526
29216SOL    HW292334  10.607   9.404  11.738  0.2500 -1.2417  0.9699
29217SOL     OW92335   5.449  10.436   2.092 -0.0726 -0.0778  0.4232
29217SOL    HW192336   5.405  10.383   2.157  0.9293  0.0777  1.2589
29217SOL    HW292337   5.538  10.402   2.089  0.0938  0.3898 -0.3431
29218SOL     OW92338   4.642   2.359   4.225 -0.4448 -0.3420  0.3843
29218SOL    HW192339   4.669   2.357   4.316 -0.1058  1.3450  0.3583
29218SOL    HW292340   4.698   2.425   4.185 -3.0997  1.7496 -0.1539
29219SOL     OW92341  11.402   5.915   2.875 -0.4200 -0.7888  0.4720
29219SOL    HW192342  11.431   5.929   2.965 -2.0537  1.1806  0.7712
29219SOL    HW292343  11.323   5.862   2.883 -0.7556 -0.3327  0.2438
29220SOL     OW92344   2.573  11.250  10.065 -0.4664  0.4667  0.0654
29220SOL    HW192345   2.624  11.300  10.001 -0.5379  0.8117  0.2700
29220SOL    HW292346   2.632  11.240  10.140  0.4381 -1.9306 -0.9034
29221SOL     OW92347  11.955   8.675   9.538  0.2445 -0.0709  0.1583
29221SOL    HW192348  12.021   8.619   9.578 -0.1872 -0.5429  0.2122
29221SOL    HW292349  11.965   8.661   9.444  0.3837  0.0501  0.1539
29222SOL     OW92350  11.340   2.256   9.274 -0.2977  0.7632  0.4281
29222SOL    HW192351  11.359   2.205   9.195 -1.0108  0.1121  0.6635
29222SOL    HW292352  11.334   2.347   9.243 -1.9025  0.3760 -0.5335
29223SOL     OW92353   9.492   9.230   4.163  0.0740 -0.1541  0.6837
29223SOL    HW192354   9.537   9.287   4.225 -0.0588 -0.1626  0.7872
29223SOL    HW292355   9.508   9.271   4.077  0.0145  0.0151  0.7525
29224SOL     OW92356   4.023   1.980   9.376 -1.2123  0.3113 -0.1653
29224SOL    HW192357   4.004   1.887   9.364 -1.7510  0.5445 -1.2216
29224SOL    HW292358   3.940   2.024   9.359 -1.3531  0.9062  1.8279
29225SOL     OW92359   7.130  10.497   2.032 -0.3638  0.1663  0.3876
29225SOL    HW192360   7.172  10.412   2.047  1.2073  0.7189 -0.6291
29225SOL    HW292361   7.146  10.547   2.111 -1.0748 -0.3700  0.8883
29226SOL     OW92362   1.253  10.274   0.774 -0.1416  0.1747  0.0680
29226SOL    HW192363   1.334  10.290   0.823 -0.2077  1.2353 -0.1435
29226SOL    HW292364   1.209  10.204   0.822 -0.2612  1.2560  1.6251
29227SOL     OW92365   3.581   4.962   4.085 -0.4962  0.3685  0.4101
29227SOL    HW192366   3.672   4.937   4.102 -0.8446 -2.0396 -0.8887
29227SOL    HW292367   3.535   4.879   4.071 -2.4777  1.6009 -0.8999
29228SOL     OW92368   4.417   2.828   6.004  0.1470 -0.2349  0.2913
29228SOL    HW192369   4.453   2.885   6.073  1.9896 -0.2251 -0.6252
29228SOL    HW292370   4.473   2.750   6.006  0.8202  0.1321 -1.7362
29229SOL     OW92371   9.043   2.239  10.857  0.0995 -0.5728 -0.2155
29229SOL    HW192372   9.118   2.180  10.863  1.0414  0.7263  1.6965
29229SOL    HW292373   8.989   2.217  10.932  0.4435  0.8882  0.5094
29230SOL     OW92374  10.106  11.110   9.231 -0.9147  0.0431 -0.4049
29230SOL    HW192375  10.090  11.042   9.296 -0.6748 -0.1332 -0.5290
29230SOL    HW292376  10.201  11.111   9.219 -0.8492  0.8772  0.1001
29231SOL     OW92377   8.693   5.411   5.470  0.2377 -0.1636  0.6538
29231SOL    HW192378   8.667   5.429   5.380  3.1331 -0.3495 -0.3381
29231SOL    HW292379   8.789   5.406   5.467  0.8583  3.4954  4.3986
29232SOL     OW92380   4.471  10.375   6.515 -0.3160 -0.1568  0.3514
29232SOL    HW192381   4.477  10.295   6.462  1.3557  0.3096 -0.2247
29232SOL    HW292382   4.492  10.346   6.604 -0.7482 -0.5407  0.3291
29233SOL     OW92383   6.767   0.480   6.062 -0.6331  0.4223  0.1449
29233SOL    HW192384   6.721   0.449   6.141 -2.1092 -0.7279 -1.1054
29233SOL    HW292385   6.796   0.400   6.019  0.2356  1.0456 -0.4499
29234SOL     OW92386   5.887   9.622   3.723 -0.0059  0.6951  0.0405
29234SOL    HW192387   5.794   9.642   3.724  0.2266  1.8147  1.1514
29234SOL    HW292388   5.894   9.538   3.769 -0.5961 -0.1306 -1.3301
29235SOL     OW92389   5.517   0.572   8.833  0.0206  0.5200 -0.1846
29235SOL    HW192390   5.473   0.642   8.784 -1.2854  0.0544  0.2630
29235SOL    HW292391   5.546   0.511   8.766  0.0172  0.8645 -0.5045
29236SOL     OW92392   2.674   8.373  10.134 -0.1176  0.2661  0.4499
29236SOL    HW192393   2.580   8.384  10.123  0.1241  1.0109 -1.2892
29236SOL    HW292394   2.709   8.374  10.045  1.3564 -1.9719  0.9177
29237SOL     OW92395   2.329   5.789   6.030 -0.4895  0.1052 -0.4786
29237SOL    HW192396   2.378   5.812   6.109  1.2554 -2.6563 -0.6130
29237SOL    HW292397   2.250   5.745   6.063 -0.2546 -0.1586 -0.2605
29238SOL     OW92398   1.187   7.477   0.307  0.6715 -1.1893 -0.4660
29238SOL    HW192399   1.253   7.411   0.328 -0.4200 -1.8198  1.2388
29238SOL    HW292400   1.182   7.531   0.386 -1.5311 -1.7782 -0.1456
29239SOL     OW92401   7.486  10.646   4.053 -0.6190 -0.0856  0.0874
29239SOL    HW192402   7.467  10.601   4.135  1.1780 -2.0434 -0.4723
29239SOL    HW292403   7.431  10.602   3.988  2.1360 -2.6776 -0.7172
29240SOL     OW92404   1.577  10.044   0.825  0.0764  0.1743 -0.6303
29240SOL    HW192405   1.622  10.051   0.741 -0.0737 -1.9340 -0.9449
29240SOL    HW292406   1.540  10.131   0.840 -2.8508 -0.1505 -4.4399
29241SOL     OW92407   5.164   3.033   5.377 -0.1448  0.4653 -0.0587
29241SOL    HW192408   5.131   3.008   5.291  0.5651 -0.8365  0.0313
29241SOL    HW292409   5.103   2.994   5.440 -0.3071  0.8788  0.0438
29242SOL     OW92410   7.759   1.160   5.339  0.1322  0.3925  0.0371
29242SOL    HW192411   7.814   1.145   5.262  0.0411 -0.1651  0.0721
29242SOL    HW292412   7.815   1.211   5.398 -0.3150  2.1695 -0.9927
29243SOL     OW92413   8.292   5.437  11.136  0.5966  0.6048  0.2421
29243SOL    HW192414   8.215   5.385  11.112  0.5228  1.4492 -1.5004
29243SOL    HW292415   8.364   5.374  11.136 -0.0771 -0.2726  2.2568
29244SOL     OW92416   8.187   5.477  10.163  0.0250 -0.1239 -0.1658
29244SOL    HW192417   8.178   5.517  10.250  1.9476 -0.4876  0.2656
29244SOL    HW292418   8.106   5.498  10.118 -0.3987  1.3778  1.1998
29245SOL     OW92419   8.059  10.499   2.661  0.5129  0.2808 -0.5671
29245SOL    HW192420   7.999  10.537   2.597  0.5824  0.0267 -0.7851
29245SOL    HW292421   8.098  10.575   2.705  1.6999  0.5373 -1.9698
29246SOL     OW92422   8.074  10.667  10.282 -0.3197  0.1952 -0.1430
29246SOL    HW192423   8.047  10.591  10.232 -1.0751 -0.5854  1.3799
29246SOL    HW292424   8.147  10.636  10.336 -0.9860  0.3724  0.8930
29247SOL     OW92425   6.283   7.340   0.892 -1.0276  0.4640 -0.7321
29247SOL    HW192426   6.335   7.314   0.815 -1.2310  0.8959 -1.0195
29247SOL    HW292427   6.207   7.281   0.890 -1.1519  0.6313 -0.9989
29248SOL     OW92428   8.209   3.448  10.931 -0.8221 -0.0004 -0.0419
29248SOL    HW192429   8.172   3.525  10.889 -3.9208 -1.0087  0.6046
29248SOL    HW292430   8.200   3.464  11.025  2.7341  0.6847  0.3433
29249SOL     OW92431   5.009   3.599   5.060  0.6426 -0.2760  0.3436
29249SOL    HW192432   5.082   3.539   5.072 -0.6110 -1.4552  2.9580
29249SOL    HW292433   5.035   3.679   5.105  0.2050 -0.8972  1.7914
29250SOL     OW92434   5.876   5.364   2.606 -0.1971  0.3989 -0.4951
29250SOL    HW192435   5.829   5.438   2.567  0.4970  1.5434  0.7710
29250SOL    HW292436   5.808   5.314   2.652 -0.7136  0.0782 -1.5816
29251SOL     OW92437   8.262   2.051   1.714 -0.2782  0.2461 -0.6102
29251SOL    HW192438   8.346   2.096   1.699 -0.9473  1.2646 -1.4999
29251SOL    HW292439   8.235   2.080   1.801  0.5217 -0.4921 -0.1003
29252SOL     OW92440   7.556   4.397  11.401  0.1079 -0.2198  0.2585
29252SOL    HW192441   7.550   4.489  11.377 -2.3005  0.0398  1.5535
29252SOL    HW292442   7.630   4.363  11.350 -0.3321  1.8879 -1.9128
29253SOL     OW92443   0.196   4.516   0.599 -1.0422  0.2036 -0.1632
29253SOL    HW192444   0.194   4.453   0.671 -0.0467  0.5449  0.1836
29253SOL    HW292445   0.289   4.522   0.575 -0.8208  2.7571  0.9579
29254SOL     OW92446   7.367   4.525   5.319 -0.3316  0.3549 -0.1266
29254SOL    HW192447   7.301   4.578   5.364 -2.7490 -0.2723 -2.6253
29254SOL    HW292448   7.408   4.474   5.388 -2.0754  1.2235  1.6509
29255SOL     OW92449   2.946   3.854  10.426 -0.1833  0.3271  0.0468
29255SOL    HW192450   2.919   3.946  10.431 -0.9016  0.1473 -0.4557
29255SOL    HW292451   2.899   3.811  10.497  0.9031  0.5127  0.9129
29256SOL     OW92452   1.264   0.201   0.448  0.1691 -0.0533 -0.3823
29256SOL    HW192453   1.330   0.267   0.429 -1.6821  2.1098  0.2069
29256SOL    HW292454   1.181   0.247   0.436 -1.1979 -2.1093  0.6993
29257SOL     OW92455   7.715  11.108   9.811  0.1428 -0.5504 -0.0219
29257SOL    HW192456   7.738  11.193   9.774  1.8840 -1.8220 -2.1281
29257SOL    HW292457   7.681  11.058   9.737 -0.7621 -1.7151  1.1473
29258SOL     OW92458   4.088   2.928  11.096  0.2522 -0.1648 -0.6847
29258SOL    HW192459   4.020   2.994  11.112  1.3394  0.9086 -0.3133
29258SOL    HW292460   4.135   2.923  11.179  0.1213 -1.5184 -0.6759
29259SOL     OW92461   3.035   2.402   4.652  0.2326  0.4313 -0.1918
29259SOL    HW192462   3.019   2.477   4.595 -0.4321  0.3299 -0.1488
29259SOL    HW292463   2.980   2.418   4.729 -0.4237 -0.4046 -0.4675
29260SOL     OW92464   3.164   3.457   8.283 -0.3301 -0.5542 -0.4311
29260SOL    HW192465   3.093   3.407   8.323 -0.3481 -2.1685 -2.3177
29260SOL    HW292466   3.239   3.399   8.287 -0.0406 -0.2958 -1.6210
29261SOL     OW92467  10.108  11.026   6.546  0.1927  0.0784 -0.0803
29261SOL    HW192468  10.154  11.104   6.514  0.6161  0.4842  1.4052
29261SOL    HW292469  10.016  11.050   6.544  0.2932  0.4798 -0.0078
29262SOL     OW92470  10.564   8.226  10.211  0.0517 -0.2249  0.2029
29262SOL    HW192471  10.546   8.314  10.244  0.1073 -0.7542  1.7588
29262SOL    HW292472  10.658   8.224  10.198  0.2834 -0.5236  1.7327
29263SOL     OW92473   3.120   7.009   6.551 -0.0661 -0.4072 -0.7664
29263SOL    HW192474   3.053   7.051   6.498 -0.2022 -1.8521 -1.7897
29263SOL    HW292475   3.203   7.044   6.517 -0.2286  0.8847  0.0732
29264SOL     OW92476   1.468   2.074   4.181 -0.3786  0.0876  0.3044
29264SOL    HW192477   1.490   2.075   4.088  1.6914  0.1776  0.7400
29264SOL    HW292478   1.441   1.983   4.199 -1.0771  0.1438 -0.4216
29265SOL     OW92479   0.642   1.735   7.430  0.5400 -0.4347 -0.2636
29265SOL    HW192480   0.711   1.735   7.497  1.7798 -0.1624 -1.4940
29265SOL    HW292481   0.585   1.662   7.455  1.1365 -0.5297  0.9113
29266SOL     OW92482   5.889   6.096  10.667 -0.0011  0.2213  0.0811
29266SOL    HW192483   5.964   6.041  10.642 -0.8411 -0.8394 -0.1965
29266SOL    HW292484   5.859   6.134  10.585 -2.4991 -2.9296 -0.6796
29267SOL     OW92485  10.162  11.188   6.779  0.4394  0.2858  0.6494
29267SOL    HW192486  10.237  11.208   6.723  1.8633 -0.6677  2.0946
29267SOL    HW292487  10.095  11.154   6.720  1.2059  1.0017 -0.6647
29268SOL     OW92488   3.521  11.439   0.680 -0.1662  0.9998 -0.0352
29268SOL    HW192489   3.603  11.470   0.640  0.4592 -1.2495 -0.5996
29268SOL    HW292490   3.493  11.367   0.625 -0.8089 -0.3524  1.9701
29269SOL     OW92491   3.694   7.874   3.394 -0.5352  0.0019  0.0847
29269SOL    HW192492   3.615   7.922   3.370 -1.8456 -1.1810  1.7909
29269SOL    HW292493   3.696   7.800   3.334 -1.1679 -0.3827  0.5274
29270SOL     OW92494   9.854   1.230   9.869  0.0144 -0.1485  0.1749
29270SOL    HW192495   9.911   1.193   9.801  0.2215  0.3695  0.0619
29270SOL    HW292496   9.768   1.190   9.853 -0.1886  0.6916 -1.0083
29271SOL     OW92497   1.249   8.213   8.163 -0.7607  0.3075 -0.3953
29271SOL    HW192498   1.260   8.221   8.258 -0.1907  1.6595 -0.5543
29271SOL    HW292499   1.261   8.120   8.145 -0.9342  0.0215  0.8645
29272SOL     OW92500  10.306   3.950  11.232  0.3659  0.0509 -0.2910
29272SOL    HW192501  10.397   3.936  11.206 -0.5120 -2.8461 -2.2683
29272SOL    HW292502  10.295   3.898  11.312 -0.1925 -2.1885 -1.7220
29273SOL     OW92503   1.164   1.964   7.872  0.3995  0.0832 -0.7572
29273SOL    HW192504   1.091   1.959   7.810  0.1074  1.3585 -0.5549
29273SOL    HW292505   1.127   2.008   7.949  1.2943  0.4782 -0.5375
29274SOL     OW92506   8.927   5.249  11.817  0.5875 -0.0178 -0.2942
29274SOL    HW192507   8.987   5.212  11.752 -0.2192 -0.2540 -0.9226
29274SOL    HW292508   8.972   5.327  11.850  1.3305 -0.3158 -0.5945
29275SOL     OW92509   1.042   1.414   4.456  0.2559 -0.2190  0.2542
29275SOL    HW192510   0.976   1.461   4.404  0.5603 -0.0769 -0.0060
29275SOL    HW292511   1.016   1.430   4.547 -0.8705 -1.3139  0.1477
29276SOL     OW92512   2.959   1.662   9.271  0.1978 -0.2518  0.1907
29276SOL    HW192513   2.994   1.624   9.190 -0.5750  2.9296 -1.8728
29276SOL    HW292514   3.036   1.678   9.326  1.0915 -0.2587 -1.0167
29277SOL     OW92515  11.443   7.823   2.753  0.3803 -0.3619 -0.1778
29277SOL    HW192516  11.490   7.896   2.793 -0.0258 -0.5987  0.7502
29277SOL    HW292517  11.389   7.788   2.824  1.5462 -2.3789 -0.2122
29278SOL     OW92518   7.982   6.459   8.408  0.3732 -0.3468  0.3881
29278SOL    HW192519   8.076   6.480   8.415 -0.0631  1.3010  2.7562
29278SOL    HW292520   7.980   6.369   8.375  2.8825 -1.1995  2.2162
29279SOL     OW92521   5.164   2.292   7.211 -0.1298 -0.1627  0.3674
29279SOL    HW192522   5.141   2.385   7.217 -2.5663 -0.6162 -0.5935
29279SOL    HW292523   5.094   2.248   7.260  1.2116 -1.4890  1.1444
29280SOL     OW92524   2.950   1.121   1.203 -0.1465  0.0476  0.4484
29280SOL    HW192525   2.949   1.065   1.126  0.4979  0.1127  0.3898
29280SOL    HW292526   2.885   1.189   1.185  0.8102  0.7366 -0.5415
29281SOL     OW92527   4.766   9.199   5.231  0.8000 -0.0373  0.0420
29281SOL    HW192528   4.803   9.231   5.149  2.2969  2.1092  1.4259
29281SOL    HW292529   4.812   9.116   5.247 -1.4068 -1.8814 -2.4622
29282SOL     OW92530   9.275   3.058   9.115 -0.7200 -0.0625 -0.0659
29282SOL    HW192531   9.321   3.015   9.187  2.1614  0.1718 -1.6330
29282SOL    HW292532   9.291   3.152   9.130 -0.3176 -0.0025 -0.8382
29283SOL     OW92533   6.326   9.677   4.419  0.5377  0.1611  0.1937
29283SOL    HW192534   6.241   9.715   4.400  0.8638  0.5534 -0.5301
29283SOL    HW292535   6.352   9.635   4.337  0.4199 -1.1804  0.8202
29284SOL     OW92536  10.472   0.714   9.487  0.1924 -0.3407  0.2469
29284SOL    HW192537  10.434   0.786   9.537  2.9149  0.6895  0.9887
29284SOL    HW292538  10.529   0.669   9.550  2.2732 -0.1523 -1.3797
29285SOL     OW92539   0.951   0.169   0.213 -0.6889  0.3339 -0.5749
29285SOL    HW192540   0.985   0.203   0.296  1.5037 -0.9592 -0.8501
29285SOL    HW292541   0.859   0.195   0.212 -0.1528  2.5920  1.0683
29286SOL     OW92542  10.153   5.355   3.711 -0.3420 -0.5344  0.3485
29286SOL    HW192543  10.118   5.432   3.665 -2.4738 -2.1611 -0.9564
29286SOL    HW292544  10.151   5.379   3.803  1.1075  1.7196 -0.1384
29287SOL     OW92545  10.440   9.152   3.910  0.3217  0.1000  0.1829
29287SOL    HW192546  10.534   9.166   3.923 -0.1425  1.9834  2.0290
29287SOL    HW292547  10.409   9.234   3.872 -0.8348  0.1192  1.1291
29288SOL     OW92548   0.632   5.216   4.912  0.4624  0.2314  0.9398
29288SOL    HW192549   0.694   5.195   4.843  1.2014  0.8027  1.4243
29288SOL    HW292550   0.584   5.134   4.927  0.4928  0.0227 -0.0298
29289SOL     OW92551  11.897   3.432   1.399  0.3744  0.0299  0.1377
29289SOL    HW192552  11.885   3.377   1.476  2.9483 -0.4325  0.2772
29289SOL    HW292553  11.870   3.377   1.325 -1.0186  0.0913  0.5635
29290SOL     OW92554  11.837   9.978   1.768  0.5338  0.0885  0.0666
29290SOL    HW192555  11.759   9.925   1.755 -1.3855  1.9809  2.7241
29290SOL    HW292556  11.833  10.045   1.700  0.2128 -0.2132 -0.2113
29291SOL     OW92557   6.916   8.257   0.026 -0.4048 -0.0939  0.6059
29291SOL    HW192558   6.911   8.346  -0.008  1.6106 -0.0085  0.4304
29291SOL    HW292559   6.961   8.207  -0.042  0.2307 -0.7988  1.5199
29292SOL     OW92560   2.873   2.405  10.131 -1.0573 -0.0408 -0.2245
29292SOL    HW192561   2.804   2.379  10.070 -0.0947 -0.3011 -1.2412
29292SOL    HW292562   2.851   2.359  10.213 -1.9083 -0.3693 -0.6277
29293SOL     OW92563   4.352  11.302   9.614  0.0074  0.4796 -0.1327
29293SOL    HW192564   4.322  11.392   9.631  1.7495  1.4090 -1.5854
29293SOL    HW292565   4.358  11.297   9.518 -0.3511 -1.3303 -0.1033
29294SOL     OW92566   9.748   6.162   3.617 -0.0451  0.0760  0.1899
29294SOL    HW192567   9.670   6.190   3.665  1.1013 -0.5608  2.6010
29294SOL    HW292568   9.816   6.222   3.645  1.2022 -1.7423  1.2267
29295SOL     OW92569   4.254   7.170   4.776  0.3141 -0.3124 -0.2863
29295SOL    HW192570   4.238   7.175   4.682  1.9313 -1.6285 -0.6810
29295SOL    HW292571   4.344   7.203   4.787  0.1287 -0.1294  0.7992
29296SOL     OW92572   8.962   7.180  10.219  0.3951 -0.1705 -0.1918
29296SOL    HW192573   8.921   7.093  10.217  1.2375 -0.5960  0.3125
29296SOL    HW292574   9.013   7.185  10.139 -0.8170  0.4613 -0.9455
29297SOL     OW92575   2.442   6.651   8.501 -0.1217  0.3642 -0.3719
29297SOL    HW192576   2.396   6.704   8.566 -0.1279  1.1147 -0.9689
29297SOL    HW292577   2.528   6.634   8.540 -0.4336  0.0660  0.1946
29298SOL     OW92578  10.505  10.777   6.852  0.4761  0.1002 -0.3297
29298SOL    HW192579  10.529  10.695   6.809 -0.3790 -1.1396  1.4377
29298SOL    HW292580  10.415  10.793   6.824 -0.3024 -1.0406  1.3746
29299SOL     OW92581   9.093   2.224   1.780  0.4556  0.5327 -0.0286
29299SOL    HW192582   9.185   2.197   1.775  0.3379  0.3959 -2.9638
29299SOL    HW292583   9.095   2.306   1.829  2.0650  0.2338  0.4763
29300SOL     OW92584   1.482  11.136   8.542 -0.2386 -0.0689  0.7483
29300SOL    HW192585   1.467  11.110   8.633 -0.2705  1.7042  1.2843
29300SOL    HW292586   1.576  11.126   8.528  0.1051  1.6253  1.6587
29301SOL     OW92587   5.590   6.440   0.799 -0.7469  0.0530  0.3378
29301SOL    HW192588   5.552   6.354   0.814  1.3400 -1.0684 -0.3940
29301SOL    HW292589   5.582   6.454   0.704  0.4995 -0.1659  0.1821
29302SOL     OW92590   7.766   9.389   2.462 -0.3634 -0.1917 -0.3924
29302SOL    HW192591   7.747   9.451   2.532  0.2916 -0.9336  0.4717
29302SOL    HW292592   7.734   9.432   2.382  1.4663  1.9713 -0.0649
29303SOL     OW92593   1.588   8.474   4.912  0.3148  0.3537  0.3313
29303SOL    HW192594   1.537   8.528   4.852 -0.1771 -0.9808 -0.5042
29303SOL    HW292595   1.595   8.526   4.992 -1.2571  1.0977  0.0152
29304SOL     OW92596  11.394   2.424   5.619 -0.3751  0.0575 -0.2689
29304SOL    HW192597  11.377   2.413   5.525 -2.2526  0.9657 -0.0744
29304SOL    HW292598  11.330   2.489   5.648  1.4963  1.3354  1.2577
29305SOL     OW92599  11.784   0.883   9.455  0.0495  0.1369  0.0619
29305SOL    HW192600  11.761   0.926   9.538  0.8935  1.4536 -0.3528
29305SOL    HW292601  11.862   0.832   9.475  0.7360  1.1032 -0.0883
29306SOL     OW92602   0.469  10.697   1.193  0.1954 -0.6664 -0.4202
29306SOL    HW192603   0.550  10.664   1.155  0.3539  0.3073 -0.9619
29306SOL    HW292604   0.430  10.751   1.124 -0.0264  0.3016  0.4297
29307SOL     OW92605   1.732   1.471   3.739 -0.2943  0.0876  0.1664
29307SOL    HW192606   1.780   1.403   3.786 -0.3055 -0.0627 -0.0412
29307SOL    HW292607   1.695   1.527   3.809  0.1400  0.1778  0.3262
29308SOL     OW92608   9.290  10.927   0.717 -0.4255 -0.7376 -0.1688
29308SOL    HW192609   9.217  10.955   0.772 -0.6094 -0.8420 -0.3615
29308SOL    HW292610   9.279  10.833   0.707  0.1080 -0.8627  0.3466
29309SOL     OW92611   1.485   6.178   5.127 -0.4816  0.2428 -0.1811
29309SOL    HW192612   1.421   6.131   5.073  1.0283  0.3377 -2.1543
29309SOL    HW292613   1.530   6.236   5.066  1.2346  0.4726  1.2183
29310SOL     OW92614   5.760   1.415  10.498 -0.0884 -0.0460 -0.7967
29310SOL    HW192615   5.701   1.342  10.512  2.0831 -1.5991  0.7373
29310SOL    HW292616   5.837   1.395  10.549  1.7570  1.9712 -2.5626
29311SOL     OW92617   2.707  10.335   0.260  0.1482 -0.3755 -0.0181
29311SOL    HW192618   2.734  10.243   0.267 -0.4206 -0.6086 -0.7955
29311SOL    HW292619   2.777  10.376   0.208 -1.0803 -1.0698 -2.3947
29312SOL     OW92620   7.966   4.083   2.809 -0.0228 -0.1984  0.2472
29312SOL    HW192621   8.061   4.092   2.818 -0.1276 -0.4462  1.7939
29312SOL    HW292622   7.940   4.159   2.755  0.6963  1.5866  2.2716
29313SOL     OW92623   8.235   9.052   1.550  0.3221 -0.4054 -0.5309
29313SOL    HW192624   8.279   9.114   1.608 -1.0683 -0.8093  1.0399
29313SOL    HW292625   8.305   9.015   1.497  1.2614  2.0719 -1.1474
29314SOL     OW92626   4.654   8.036  11.990  0.0338 -0.3700  0.4088
29314SOL    HW192627   4.650   8.046  12.085 -0.4955 -0.8081  0.4346
29314SOL    HW292628   4.724   7.973  11.975  0.7726  0.4264  0.4523
29315SOL     OW92629   1.157   0.107   3.266  0.6035  0.1248 -0.3439
29315SOL    HW192630   1.188   0.191   3.234  0.8017  0.7500  1.3865
29315SOL    HW292631   1.233   0.049   3.260  0.8215  0.4125 -0.3667
29316SOL     OW92632   7.105   0.277   6.304  0.2414  0.0266 -0.1411
29316SOL    HW192633   7.116   0.198   6.356  0.4499  1.2028  1.6892
29316SOL    HW292634   7.030   0.322   6.343  0.4642  0.9999 -0.7900
29317SOL     OW92635   9.637   0.101   2.609  0.5187  0.4061 -0.6865
29317SOL    HW192636   9.723   0.060   2.608  0.0911 -0.5909  0.5887
29317SOL    HW292637   9.629   0.138   2.697  0.1231  1.5613 -1.1941
29318SOL     OW92638   2.897   8.097   6.045 -0.1610 -0.0956 -0.1472
29318SOL    HW192639   2.871   8.095   5.952  0.3088  2.0867 -0.3847
29318SOL    HW292640   2.975   8.042   6.049  0.2609  0.3818 -1.2324
29319SOL     OW92641   3.805   3.396  11.459  0.2880 -0.2889  0.4357
29319SOL    HW192642   3.835   3.342  11.532  0.8497  0.2883  0.6390
29319SOL    HW292643   3.875   3.460  11.445  0.4894 -0.8060 -1.0561
29320SOL     OW92644   6.174   1.973  11.027  0.1815  0.1614 -0.8634
29320SOL    HW192645   6.168   2.039  10.957 -0.0123  1.6291  0.4741
29320SOL    HW292646   6.266   1.948  11.027 -0.0142 -0.7037 -2.3522
29321SOL     OW92647   5.915  11.642   2.001  0.2340  0.2872  0.2156
29321SOL    HW192648   6.000  11.640   2.044  0.6005  2.0466 -0.3204
29321SOL    HW292649   5.854  11.673   2.069 -0.4939 -3.0495  1.2550
29322SOL     OW92650   7.048   9.219   1.103 -0.3779  0.3473  0.4084
29322SOL    HW192651   7.088   9.160   1.167 -0.7023 -0.3086  0.0146
29322SOL    HW292652   6.961   9.183   1.087 -0.2017  0.3454 -0.6080
29323SOL     OW92653  10.462   9.169   2.881  0.2811  0.0927 -0.2409
29323SOL    HW192654  10.510   9.088   2.864  2.4854  1.2754 -0.0375
29323SOL    HW292655  10.396   9.145   2.945  0.3580 -1.6938 -0.7792
29324SOL     OW92656   5.248  10.417   6.980 -0.2960 -0.3617  0.3860
29324SOL    HW192657   5.314  10.443   7.044  1.2414 -1.6122 -0.5888
29324SOL    HW292658   5.209  10.338   7.016 -0.4342 -0.2812  0.4157
29325SOL     OW92659   0.769  10.674   4.095  0.0375  0.5071  0.2100
29325SOL    HW192660   0.735  10.630   4.017 -0.7639  1.5021 -0.0196
29325SOL    HW292661   0.846  10.722   4.064 -0.3294  0.9684  0.0117
29326SOL     OW92662   3.829   4.568   2.420 -0.0981  0.0335 -0.1526
29326SOL    HW192663   3.855   4.632   2.353  0.1813 -0.0209 -0.0995
29326SOL    HW292664   3.783   4.500   2.371  0.5182 -0.2409 -0.3637
29327SOL     OW92665   5.288   5.856   5.683 -0.0894  0.5771 -0.4492
29327SOL    HW192666   5.298   5.854   5.778  1.6367  0.1696 -0.6011
29327SOL    HW292667   5.242   5.938   5.665  0.7504  1.3127  0.6468
29328SOL     OW92668   3.977   2.361   2.456 -0.6422  0.1420 -0.7587
29328SOL    HW192669   4.052   2.321   2.412 -0.2422 -0.8429  0.7625
29328SOL    HW292670   3.990   2.455   2.444  1.4842  0.0568  0.4649
29329SOL     OW92671   5.169   4.262   3.085 -0.5256 -0.5524  0.3012
29329SOL    HW192672   5.225   4.303   3.151 -0.1719  0.3688 -0.5469
29329SOL    HW292673   5.080   4.278   3.115 -0.3873  0.6441  0.1136
29330SOL     OW92674   2.737   7.035   9.301 -0.1259 -0.7625 -0.2499
29330SOL    HW192675   2.682   7.098   9.254 -0.6346 -2.3832 -1.9500
29330SOL    HW292676   2.818   7.032   9.252 -0.0245 -1.2812 -0.0554
29331SOL     OW92677  11.946   7.436   4.194  0.8304 -0.5319  0.6464
29331SOL    HW192678  11.993   7.437   4.277 -0.1309  0.1491  1.2082
29331SOL    HW292679  11.873   7.376   4.210 -0.5831  1.2010  1.0356
29332SOL     OW92680   4.949  11.907   7.851 -0.7574  0.1299  0.4891
29332SOL    HW192681   4.885  11.857   7.800 -0.7448  0.6727 -0.0723
29332SOL    HW292682   4.896  11.969   7.901 -0.9600 -1.7272  2.7578
29333SOL     OW92683  11.329   8.216   2.429 -0.3605 -1.0221  0.1372
29333SOL    HW192684  11.359   8.148   2.489 -1.5283 -1.3652  0.3419
29333SOL    HW292685  11.291   8.284   2.485  2.8144  0.9674  0.1562
29334SOL     OW92686   6.626   1.397   6.675  0.0385  0.1896 -0.5806
29334SOL    HW192687   6.697   1.345   6.638 -0.1196 -1.3392  1.0943
29334SOL    HW292688   6.567   1.332   6.714 -1.1608  1.5373 -0.0601
29335SOL     OW92689   4.519   0.597  10.971 -0.0694 -0.2752 -0.0791
29335SOL    HW192690   4.613   0.597  10.991 -0.2002  1.7032  0.7218
29335SOL    HW292691   4.510   0.532  10.901  1.9457 -0.2804 -0.4022
29336SOL     OW92692  11.246   7.915   8.585 -0.3354  0.0139  0.3854
29336SOL    HW192693  11.165   7.885   8.626 -0.5831  0.3922  0.1801
29336SOL    HW292694  11.278   7.983   8.644 -1.6030  1.8049 -0.8754
29337SOL     OW92695   4.882   2.674  10.369 -0.4486 -0.0007  0.2525
29337SOL    HW192696   4.827   2.633  10.302  3.7441 -2.6856 -2.0492
29337SOL    HW292697   4.901   2.761  10.335 -0.3982 -0.4118 -0.8222
29338SOL     OW92698   0.263  11.623   3.527 -0.0633 -0.1396  0.2237
29338SOL    HW192699   0.345  11.593   3.566 -0.5694  0.7793  2.0799
29338SOL    HW292700   0.291  11.681   3.456  0.8713 -0.5019  0.2721
29339SOL     OW92701   4.598  10.494   3.522 -0.3385 -0.0416  0.0970
29339SOL    HW192702   4.652  10.533   3.591  0.3972  1.9768 -1.5359
29339SOL    HW292703   4.514  10.539   3.529  0.3068  1.5081 -1.3791
29340SOL     OW92704   1.758   8.758   3.501  0.1512 -0.3268  0.3886
29340SOL    HW192705   1.716   8.758   3.587 -0.4569 -0.4784  0.1024
29340SOL    HW292706   1.723   8.680   3.458 -1.0936  0.7846 -0.7181
29341SOL     OW92707   6.708   5.246   3.719 -0.5606 -0.0656  0.2804
29341SOL    HW192708   6.672   5.274   3.635 -2.0266 -0.7697  0.6302
29341SOL    HW292709   6.754   5.165   3.700  0.8023  0.7823 -0.1560
29342SOL     OW92710   1.210   8.239   2.386 -0.5230 -0.2185  0.2018
29342SOL    HW192711   1.245   8.271   2.469  0.9888  0.2052 -0.5772
29342SOL    HW292712   1.178   8.317   2.341  1.3628 -0.0201 -0.8544
29343SOL     OW92713  11.629   2.614   5.827  0.0129 -0.0159 -1.0028
29343SOL    HW192714  11.719   2.634   5.852  0.0053 -1.1238 -0.0234
29343SOL    HW292715  11.600   2.548   5.890 -2.0916  1.5645 -0.1762
29344SOL     OW92716  10.264   3.562   9.121 -0.3248 -0.4375  0.4160
29344SOL    HW192717  10.244   3.655   9.119  1.0685  0.0656  3.4942
29344SOL    HW292718  10.337   3.551   9.061  0.1622  0.6789  0.7799
29345SOL     OW92719   5.740   4.804   0.384 -0.0357 -0.8539 -0.8603
29345SOL    HW192720   5.644   4.805   0.379 -0.1308 -1.9224  0.3556
29345SOL    HW292721   5.763   4.711   0.376  0.8660 -0.6716 -0.4654
29346SOL     OW92722   1.082   2.138   8.453 -0.5893  0.1391  0.3403
29346SOL    HW192723   1.095   2.051   8.415  0.0432  0.6177 -0.5605
29346SOL    HW292724   1.166   2.159   8.493 -0.0095  1.2475 -1.3679
29347SOL     OW92725   9.858  11.789   0.590  0.4356 -0.1631 -0.2324
29347SOL    HW192726   9.940  11.820   0.551  0.2658  0.2614 -0.2506
29347SOL    HW292727   9.826  11.862   0.642  0.6725 -0.7400  0.7462
29348SOL     OW92728  11.250  10.479  11.456 -0.6598  0.2584 -0.5640
29348SOL    HW192729  11.222  10.566  11.430 -1.2416  0.1973 -0.1728
29348SOL    HW292730  11.287  10.440  11.377 -1.3927  0.4681 -1.0175
29349SOL     OW92731  10.017   6.924  10.658  0.2402  0.0202 -0.2071
29349SOL    HW192732  10.017   6.900  10.751  1.4966 -0.5458 -0.3277
29349SOL    HW292733   9.953   6.865  10.618  0.7499 -0.7481  0.0804
29350SOL     OW92734   7.726  10.795   5.476 -0.0939  0.0099  0.0419
29350SOL    HW192735   7.637  10.772   5.449 -0.0773  1.2183 -1.1707
29350SOL    HW292736   7.752  10.726   5.536 -1.4459 -0.9687 -0.4563
29351SOL     OW92737   6.022   8.993   9.117 -0.7852 -0.6037 -0.0442
29351SOL    HW192738   5.952   9.050   9.083 -1.0751 -0.0413  1.4063
29351SOL    HW292739   6.018   9.005   9.212  0.0324 -2.0446  0.2056
29352SOL     OW92740   2.423   7.887   1.695  0.0137  0.1285  0.3668
29352SOL    HW192741   2.505   7.891   1.743 -0.3502  0.8310  0.9503
29352SOL    HW292742   2.356   7.912   1.759 -0.6693 -0.5251 -0.0678
29353SOL     OW92743   1.394   1.364   3.200 -0.4737 -0.3234  0.0057
29353SOL    HW192744   1.480   1.367   3.243 -1.2574 -0.0488  1.6397
29353SOL    HW292745   1.376   1.271   3.189 -0.3951 -0.4172  0.6074
29354SOL     OW92746  10.236   2.252   5.059 -0.4117  0.0414  0.1096
29354SOL    HW192747  10.253   2.193   4.985 -0.9924 -0.7416  0.5836
29354SOL    HW292748  10.297   2.223   5.127 -0.1320  0.5232  0.0687
29355SOL     OW92749   4.516   9.634  10.001  0.2528  0.2784 -0.5984
29355SOL    HW192750   4.534   9.613  10.093  2.0618 -2.2574 -1.4116
29355SOL    HW292751   4.601   9.659   9.965  0.0770 -1.0801 -2.0760
29356SOL     OW92752   5.702   3.480   5.037  0.1699  0.2325  0.4096
29356SOL    HW192753   5.641   3.464   5.109  0.3190 -2.3276  0.0647
29356SOL    HW292754   5.670   3.559   4.995 -1.2074  0.5504  1.9446
29357SOL     OW92755  10.479  10.329   4.115  0.1247 -0.0455 -0.0485
29357SOL    HW192756  10.461  10.264   4.047  0.2062  0.4524 -0.5520
29357SOL    HW292757  10.415  10.398   4.100  1.0424  0.7306 -0.5180
29358SOL     OW92758   2.125   9.651   9.404 -0.3835  0.4543  0.0431
29358SOL    HW192759   2.102   9.610   9.320  1.7712  1.3539 -1.0503
29358SOL    HW292760   2.190   9.717   9.381  1.7984 -0.6503  2.6528
29359SOL     OW92761   5.589  10.800   5.965  0.3224 -0.5125 -0.5793
29359SOL    HW192762   5.519  10.845   5.918 -0.1187 -1.2235 -0.6234
29359SOL    HW292763   5.646  10.870   5.997  1.0401 -0.0104 -2.7877
29360SOL     OW92764  11.742   6.265   1.719  0.4489  0.7297  0.2030
29360SOL    HW192765  11.782   6.201   1.778  0.5538  1.0678  0.5029
29360SOL    HW292766  11.796   6.263   1.641  0.7019  0.7622  0.3782
29361SOL     OW92767   1.327   5.416   9.977 -0.0205  0.6785 -0.6059
29361SOL    HW192768   1.281   5.493  10.010 -1.0342 -0.2042  0.0776
29361SOL    HW292769   1.358   5.443   9.890  0.5744  2.2014  0.0411
29362SOL     OW92770   7.065  10.103   0.751  0.6614  0.0466  0.5153
29362SOL    HW192771   7.147  10.145   0.726  1.3116  0.0013  2.4117
29362SOL    HW292772   7.065  10.019   0.705  0.6151  0.9485 -1.1999
29363SOL     OW92773   3.596   7.675   0.498  0.2319 -0.1572 -0.3372
29363SOL    HW192774   3.556   7.620   0.566 -0.0015  0.5236  0.0918
29363SOL    HW292775   3.528   7.684   0.432  0.7509 -1.5237 -1.0892
29364SOL     OW92776  11.355   8.861   5.308  0.0062 -0.0597  0.1486
29364SOL    HW192777  11.363   8.838   5.216  1.0139 -0.9167  0.4303
29364SOL    HW292778  11.262   8.851   5.327 -0.6662  2.4703 -1.3335
29365SOL     OW92779   6.405   9.881   8.780 -0.5891 -0.1816  0.3821
29365SOL    HW192780   6.381   9.799   8.737 -1.3994 -0.5081  1.3987
29365SOL    HW292781   6.331   9.940   8.764  0.5303  0.8126 -1.4111
29366SOL     OW92782  11.557   8.968   0.433 -0.3681  0.1118  0.1477
29366SOL    HW192783  11.577   8.948   0.342 -2.5861 -0.6952 -0.2259
29366SOL    HW292784  11.474   9.016   0.430 -0.9038 -0.6305  1.7615
29367SOL     OW92785   4.508   9.078  10.612 -0.2897  0.0686 -0.6493
29367SOL    HW192786   4.487   9.158  10.563  0.8658  0.2360 -0.8796
29367SOL    HW292787   4.601   9.063  10.596 -0.4639 -1.2713 -0.5211
29368SOL     OW92788   7.202   5.512   9.817  1.0738 -0.0935 -0.3268
29368SOL    HW192789   7.147   5.478   9.888  1.8294  1.1791  0.9250
29368SOL    HW292790   7.162   5.596   9.794  2.1936  0.6240  0.2797
29369SOL     OW92791   9.704  10.338   2.689 -0.5704  0.3734  0.3103
29369SOL    HW192792   9.774  10.356   2.751 -0.2409  0.4154 -0.0711
29369SOL    HW292793   9.636  10.294   2.741 -0.4369  0.7020  0.7673
29370SOL     OW92794   8.747   6.581  11.547  0.5343 -0.3515 -0.9041
29370SOL    HW192795   8.722   6.544  11.631 -1.6783 -1.4790 -1.9917
29370SOL    HW292796   8.842   6.596  11.555  0.4645 -0.8325  1.5863
29371SOL     OW92797   1.557   4.894  10.369 -0.4090 -0.1532  0.0986
29371SOL    HW192798   1.469   4.894  10.407 -0.6010 -0.9667 -0.3155
29371SOL    HW292799   1.592   4.807  10.390  1.1289  0.8768  2.1143
29372SOL     OW92800   1.042   3.400  11.368  0.2977 -0.8828  0.0446
29372SOL    HW192801   1.002   3.485  11.350  2.1000 -0.3442 -1.7469
29372SOL    HW292802   1.024   3.384  11.461 -0.2359  1.3693  0.3749
29373SOL     OW92803   7.619  11.362   1.775 -0.0124 -0.6644 -0.0007
29373SOL    HW192804   7.679  11.412   1.831  1.1798 -0.6866 -1.2127
29373SOL    HW292805   7.532  11.376   1.814  0.6545  0.1245  1.2533
29374SOL     OW92806   1.796   3.973   1.508 -0.8478  0.1323  0.0939
29374SOL    HW192807   1.714   3.945   1.549  0.1793 -1.4646  1.1799
29374SOL    HW292808   1.802   3.921   1.428 -0.4859 -0.3997  0.4627
29375SOL     OW92809   3.367   3.140   5.245 -0.5812  0.3127 -0.7296
29375SOL    HW192810   3.295   3.080   5.225  0.2316 -0.6453 -0.8195
29375SOL    HW292811   3.340   3.183   5.326 -0.9198 -0.5939 -0.3540
29376SOL     OW92812   1.539   3.732   0.600 -0.5992 -0.0701 -0.3929
29376SOL    HW192813   1.634   3.733   0.605 -0.4574 -1.1488 -2.1283
29376SOL    HW292814   1.512   3.677   0.673  0.0499  0.5827  0.3683
29377SOL     OW92815   1.208   9.158  10.575  0.1383 -0.4602  0.4894
29377SOL    HW192816   1.152   9.138  10.500 -1.4792 -0.3664  1.6302
29377SOL    HW292817   1.237   9.072  10.606 -1.3921 -0.6837  1.3641
29378SOL     OW92818   3.280  11.000   3.695  0.4153 -0.4046 -0.8401
29378SOL    HW192819   3.211  10.959   3.747 -1.2036  1.5286 -1.3309
29378SOL    HW292820   3.253  11.092   3.688  3.3983  0.5994 -0.4991
29379SOL     OW92821  11.289   4.855  11.600 -0.2243 -0.1168  0.3602
29379SOL    HW192822  11.292   4.936  11.550 -0.8802  0.4663  1.2311
29379SOL    HW292823  11.364   4.804  11.569 -0.8760  0.0222 -1.5314
29380SOL     OW92824   3.331   4.618   9.949  0.0103 -0.6437 -0.0183
29380SOL    HW192825   3.391   4.609  10.023  0.9621 -0.4987 -0.7605
29380SOL    HW292826   3.258   4.559   9.970 -1.5014  1.9204  2.7277
29381SOL     OW92827   9.307  11.770   5.850  0.4619 -0.0237 -0.1672
29381SOL    HW192828   9.218  11.749   5.820 -0.8799  1.2678  2.5636
29381SOL    HW292829   9.314  11.865   5.839  0.1968  0.3885  2.6210
29382SOL     OW92830   1.680  11.279   0.785  0.0185 -0.5914  0.4203
29382SOL    HW192831   1.727  11.309   0.863  1.8145  0.6434 -1.0205
29382SOL    HW292832   1.695  11.184   0.782 -1.7335 -1.0036  2.5444
29383SOL     OW92833   0.088  11.637   5.089 -0.1116 -0.8085  0.2068
29383SOL    HW192834   0.055  11.555   5.052 -0.8253 -0.2777 -0.3584
29383SOL    HW292835   0.179  11.618   5.112  0.0223 -1.4724 -0.8181
29384SOL     OW92836   4.479  11.681   0.657  0.6007  0.6393 -0.2763
29384SOL    HW192837   4.446  11.611   0.714  0.3834  0.7265 -0.2926
29384SOL    HW292838   4.524  11.741   0.717 -1.4681  1.8787  0.1839
29385SOL     OW92839   0.995   4.913   7.013 -0.1805  0.2464 -0.4046
29385SOL    HW192840   0.947   4.993   7.036  0.2475 -0.1061  1.9282
29385SOL    HW292841   0.933   4.842   7.030  0.2309 -0.0474 -0.1010
29386SOL     OW92842   9.195   3.998  10.059 -0.6266 -0.6422 -0.4466
29386SOL    HW192843   9.173   3.994   9.966 -0.2186 -0.4668 -0.5539
29386SOL    HW292844   9.228   4.087  10.071 -1.8498 -0.2422  0.1329
29387SOL     OW92845   9.289  11.547  11.632  0.3610  0.3186  0.6623
29387SOL    HW192846   9.245  11.478  11.682  1.6749 -0.5498  0.6700
29387SOL    HW292847   9.379  11.545  11.664  0.8796  0.7359 -0.7109
29388SOL     OW92848  11.444   0.122   6.254  0.1742 -0.3881  0.2864
29388SOL    HW192849  11.512   0.171   6.300 -0.4491  1.8386 -1.0294
29388SOL    HW292850  11.448   0.153   6.163 -1.7756 -1.0936 -0.1012
29389SOL     OW92851   5.980   1.834  10.606  0.0028  0.2578 -0.5978
29389SOL    HW192852   6.041   1.771  10.646  0.5767  1.6070  0.7544
29389SOL    HW292853   5.916   1.779  10.560 -1.1990 -1.5429  2.8501
29390SOL     OW92854   6.511   3.614   3.721 -0.3949 -0.0975  0.6472
29390SOL    HW192855   6.505   3.700   3.679  0.5475 -0.6021 -0.5707
29390SOL    HW292856   6.453   3.558   3.669  1.0288 -0.8047 -0.2286
29391SOL     OW92857  11.789   2.338   3.088  0.8078 -0.2380 -0.0574
29391SOL    HW192858  11.731   2.395   3.038  3.2339 -0.0065 -2.9174
29391SOL    HW292859  11.840   2.398   3.143  1.5224  0.1353 -1.0862
29392SOL     OW92860   1.101  10.961   9.583 -0.0040  0.3515  0.2970
29392SOL    HW192861   1.064  11.044   9.615 -0.1085  0.6314 -0.5156
29392SOL    HW292862   1.025  10.913   9.551 -0.0873 -0.5266  1.7259
29393SOL     OW92863   7.246   2.264   8.968 -0.7453 -0.1691  0.3422
29393SOL    HW192864   7.337   2.291   8.973 -0.8449  0.5677 -1.2183
29393SOL    HW292865   7.197   2.346   8.981 -1.1048 -0.0399 -1.5727
29394SOL     OW92866   5.685   3.211   0.143 -0.1208  0.1610 -0.2715
29394SOL    HW192867   5.637   3.264   0.207  0.6917 -1.8084  2.1213
29394SOL    HW292868   5.746   3.273   0.102  2.2390  0.9729  3.8279
29395SOL     OW92869  11.525   6.264   5.072 -0.1564  0.1992  0.4376
29395SOL    HW192870  11.562   6.199   5.013  0.5977  1.6920 -0.7959
29395SOL    HW292871  11.556   6.238   5.159 -1.1146 -1.9151  0.2056
29396SOL     OW92872  10.189   2.276   0.677 -0.5891 -0.0978 -0.4369
29396SOL    HW192873  10.275   2.234   0.671  0.0058  1.1518 -0.9651
29396SOL    HW292874  10.127   2.205   0.661  0.2423 -1.3846  1.5746
29397SOL     OW92875   8.022   6.964   9.447  0.5562 -0.4937 -0.3572
29397SOL    HW192876   7.982   6.898   9.391 -1.7680 -0.4094  1.0957
29397SOL    HW292877   7.952   7.027   9.463  1.5271  0.1520  1.6089
29398SOL     OW92878   6.242   0.111   2.461  0.2962  0.4211 -0.3783
29398SOL    HW192879   6.261   0.096   2.368 -0.3919 -1.2263 -0.2808
29398SOL    HW292880   6.150   0.086   2.471 -0.3903  2.8877  0.3026
29399SOL     OW92881   5.711   5.101  10.551 -0.1716  0.0444  0.0138
29399SOL    HW192882   5.804   5.100  10.528 -0.4907 -1.5842 -1.4292
29399SOL    HW292883   5.699   5.022  10.604 -0.2946  1.5453  2.3095
29400SOL     OW92884   1.295   7.082   8.030  0.1134  0.0047  0.0034
29400SOL    HW192885   1.338   7.073   8.115  0.1727  0.9254  0.0817
29400SOL    HW292886   1.267   7.174   8.027  0.6928  0.1588 -1.2458
29401SOL     OW92887   9.956   4.854   7.298 -0.1502  0.2246  0.4273
29401SOL    HW192888   9.984   4.873   7.388  0.9100 -0.1551  0.1993
29401SOL    HW292889  10.007   4.915   7.244 -0.9410  0.6001  0.0908
29402SOL     OW92890   7.994   3.202   1.905  0.7030 -0.0777 -0.3526
29402SOL    HW192891   8.070   3.206   1.847  0.3612  1.2422 -0.7512
29402SOL    HW292892   7.939   3.275   1.877  0.0411 -0.0431  0.9661
29403SOL     OW92893   1.925   1.692  11.575  0.0504  0.0306 -0.0867
29403SOL    HW192894   1.920   1.785  11.552 -0.5340  0.2339  0.7945
29403SOL    HW292895   1.966   1.691  11.662 -0.0743 -0.5136 -0.0316
29404SOL     OW92896   2.177   2.799   5.695  0.1112 -0.0526 -0.2508
29404SOL    HW192897   2.125   2.877   5.674  0.1688  0.1850  0.4562
29404SOL    HW292898   2.242   2.830   5.758  1.6830 -0.1549 -1.7487
29405SOL     OW92899   3.774   7.923  10.371  0.8245 -0.0560  0.0141
29405SOL    HW192900   3.864   7.896  10.350  0.6635  0.1122 -0.9378
29405SOL    HW292901   3.765   8.009  10.331 -0.2539 -0.7252 -1.2674
29406SOL     OW92902   6.627   0.648   9.618 -0.5039  0.2868  0.4139
29406SOL    HW192903   6.608   0.611   9.532 -3.2913 -0.1785  1.1147
29406SOL    HW292904   6.686   0.585   9.659  0.3801  0.2155 -0.8980
29407SOL     OW92905   0.546   1.416   4.384  0.0777 -0.3455 -0.0312
29407SOL    HW192906   0.543   1.431   4.290  0.7122  0.9797  0.1305
29407SOL    HW292907   0.595   1.334   4.394 -2.0187 -1.7877 -0.9187
29408SOL     OW92908   0.049   9.203  10.989 -0.1750 -0.7491 -0.0135
29408SOL    HW192909  -0.034   9.184  10.946 -1.0001  1.2167  0.5603
29408SOL    HW292910   0.028   9.204  11.083  0.3714  0.2060  0.1174
29409SOL     OW92911   1.921   2.436   1.316  0.2200 -0.1995 -0.0259
29409SOL    HW192912   1.915   2.392   1.401  1.2140  1.3911  0.8994
29409SOL    HW292913   1.923   2.364   1.253  0.6025 -1.4535  1.3513
29410SOL     OW92914   9.791   8.432   9.745  0.1745  0.3235  0.6616
29410SOL    HW192915   9.766   8.487   9.819 -1.3919  1.9601 -0.9687
29410SOL    HW292916   9.750   8.348   9.762 -0.6314  0.8464  1.3809
29411SOL     OW92917   4.335  10.183   3.512 -0.4731  0.3064  0.4158
29411SOL    HW192918   4.281  10.226   3.578 -1.3699  0.4548 -0.4085
29411SOL    HW292919   4.283  10.185   3.432  0.6752  0.2933 -0.3577
29412SOL     OW92920   3.988  10.432   6.687 -0.5692 -0.4155  0.0839
29412SOL    HW192921   4.003  10.470   6.774 -1.1446  0.8557 -0.3516
29412SOL    HW292922   3.900  10.394   6.693 -0.6471 -0.2450  0.0371
29413SOL     OW92923   3.720   0.529   6.170  0.0881  0.0248  0.1375
29413SOL    HW192924   3.677   0.453   6.130 -0.9090  0.8680 -0.4462
29413SOL    HW292925   3.648   0.583   6.203  0.7171  1.1860 -0.3187
29414SOL     OW92926  10.833   2.508   2.053 -0.5753  0.0267 -0.5125
29414SOL    HW192927  10.767   2.543   1.993 -3.4048 -1.3480  1.5529
29414SOL    HW292928  10.819   2.413   2.051  0.9793 -0.2536  0.4405
29415SOL     OW92929   6.657  11.050   6.724  0.0083 -0.3739  0.5255
29415SOL    HW192930   6.646  10.978   6.662  0.7744  0.6886 -0.9003
29415SOL    HW292931   6.751  11.058   6.737 -0.1470 -0.9624  2.3585
29416SOL     OW92932   6.279   8.666  11.981 -0.4409 -0.0410 -0.4890
29416SOL    HW192933   6.317   8.742  12.024 -0.7357  0.7473 -1.5727
29416SOL    HW292934   6.233   8.619  12.051  0.4702  0.3048  0.3529
29417SOL     OW92935   0.049   9.721   6.399 -0.0923 -0.0536 -0.7401
29417SOL    HW192936   0.019   9.677   6.478  0.7086  0.4776 -0.1238
29417SOL    HW292937   0.096   9.799   6.431 -0.8884  0.8787 -1.7773
29418SOL     OW92938   3.966   2.542   7.460  0.2341 -0.4699  0.0702
29418SOL    HW192939   4.031   2.583   7.402  0.7819 -1.3719  0.0069
29418SOL    HW292940   3.920   2.614   7.501  1.2568  0.1996  0.0726
29419SOL     OW92941  10.774   2.978   3.142  0.1252 -0.1430  0.1279
29419SOL    HW192942  10.688   2.955   3.106  0.3128  0.5730 -0.8252
29419SOL    HW292943  10.837   2.933   3.085  0.4323  1.0653 -0.5083
29420SOL     OW92944   7.137   4.179   7.038  0.0724  0.3206  0.4900
29420SOL    HW192945   7.194   4.230   7.095 -0.6091 -0.3197  1.7842
29420SOL    HW292946   7.125   4.096   7.084  2.3241 -1.6749 -2.2141
29421SOL     OW92947   6.114   9.878   8.329  0.1058 -0.2620 -0.4500
29421SOL    HW192948   6.095   9.836   8.245 -0.4612 -1.8024  0.4144
29421SOL    HW292949   6.193   9.929   8.312 -1.2368  1.3312 -2.5037
29422SOL     OW92950   5.969   1.352  10.687 -0.0675 -0.1544 -0.0617
29422SOL    HW192951   5.969   1.398  10.771  0.7605 -0.6897  0.2419
29422SOL    HW292952   6.055   1.310  10.683 -0.0274  0.0204 -1.2619
29423SOL     OW92953   5.729  11.620   8.116  0.1324 -0.0594  0.1319
29423SOL    HW192954   5.791  11.634   8.188  0.5823 -0.1140 -0.2354
29423SOL    HW292955   5.785  11.605   8.040 -0.2718  2.2618 -0.7189
29424SOL     OW92956   7.049   5.820   4.492 -0.2172  0.2728  0.4583
29424SOL    HW192957   7.133   5.790   4.525  0.5057  0.6550 -0.9909
29424SOL    HW292958   6.999   5.842   4.571  1.3830  0.9801  1.3035
29425SOL     OW92959   3.843   8.271   2.161 -0.2531  0.0193 -0.5767
29425SOL    HW192960   3.820   8.313   2.077 -0.8392  1.7006  0.3718
29425SOL    HW292961   3.908   8.330   2.199 -0.9077 -0.0492  0.6925
29426SOL     OW92962   6.053   2.281   2.996  0.2087  0.1248 -0.2668
29426SOL    HW192963   6.124   2.274   3.059 -2.1206 -0.4562  2.4993
29426SOL    HW292964   6.004   2.199   3.006 -3.2272  2.1671  1.1442
29427SOL     OW92965   5.293   2.766   4.323 -0.4099 -0.4973 -0.6158
29427SOL    HW192966   5.256   2.743   4.237 -1.7484 -1.3805  0.1431
29427SOL    HW292967   5.297   2.682   4.369  1.4602 -0.2282 -0.2121
29428SOL     OW92968   9.248  10.813  10.792 -0.4946 -0.0904 -0.1990
29428SOL    HW192969   9.315  10.783  10.854  0.7181  1.0428 -0.9272
29428SOL    HW292970   9.178  10.846  10.848 -0.3483 -1.0312  0.5770
29429SOL     OW92971   6.467   6.235  10.260 -0.3602  0.0129 -0.1175
29429SOL    HW192972   6.428   6.205  10.342  2.2045 -1.0079  0.8477
29429SOL    HW292973   6.435   6.173  10.194  1.5864 -2.5063  1.1282
29430SOL     OW92974   3.852   4.793   3.338 -0.0428 -0.1694 -0.2513
29430SOL    HW192975   3.853   4.863   3.404 -0.5422 -0.6657  0.2898
29430SOL    HW292976   3.806   4.832   3.263 -0.0321  0.1910 -0.0749
29431SOL     OW92977   4.743   7.527   4.419  0.6153  0.2225 -0.1644
29431SOL    HW192978   4.837   7.521   4.438  0.0793  0.2225  2.9220
29431SOL    HW292979   4.707   7.445   4.452 -0.6602  0.7964 -0.0856
29432SOL     OW92980   9.111   3.008   5.881  0.6879  0.2171  0.1451
29432SOL    HW192981   9.042   3.074   5.886  1.7228  1.3071  0.6127
29432SOL    HW292982   9.159   3.016   5.963  1.4801 -0.3872 -0.2391
29433SOL     OW92983   5.217   5.255   1.997  0.0919 -0.3880  0.2756
29433SOL    HW192984   5.193   5.163   2.007 -0.5109 -0.2328  0.2660
29433SOL    HW292985   5.149   5.292   1.941 -0.0949  0.2451  0.8996
29434SOL     OW92986   8.306   4.011  10.510 -0.4387 -0.3283 -0.6493
29434SOL    HW192987   8.281   3.980  10.423 -1.4825  0.1007 -0.5216
29434SOL    HW292988   8.224   4.010  10.560  0.2018 -0.8819  0.4328
29435SOL     OW92989   5.328   8.033   6.343  0.4716 -0.4720 -0.1148
29435SOL    HW192990   5.370   8.032   6.257 -0.8624  1.3306 -0.8386
29435SOL    HW292991   5.275   8.112   6.344 -1.0515 -1.4142  1.6510
29436SOL     OW92992  11.254   5.656   7.964  0.0181 -0.2707 -0.0999
29436SOL    HW192993  11.349   5.651   7.948 -0.0217  0.2227 -0.4918
29436SOL    HW292994  11.215   5.610   7.890 -0.0958  0.5754 -0.5704
29437SOL     OW92995   1.155  11.971   8.514  0.2198  0.8422 -0.2059
29437SOL    HW192996   1.149  12.047   8.571  0.8392  2.0917 -1.7376
29437SOL    HW292997   1.232  11.923   8.545  0.3688  1.3339  0.2008
29438SOL     OW92998   1.158   5.480   6.539 -0.0227  0.0540 -0.6224
29438SOL    HW192999   1.157   5.430   6.457 -0.6665  0.1039 -0.6490
29438SOL    HW293000   1.227   5.438   6.591 -0.1062 -0.4492 -0.9043
29439SOL     OW93001  10.773  10.275   8.700 -0.4590 -0.5954 -0.0707
29439SOL    HW193002  10.753  10.297   8.610 -0.5522 -0.4600 -0.0174
29439SOL    HW293003  10.807  10.357   8.738 -2.0474 -0.1615  0.4917
29440SOL     OW93004   3.682  11.166   4.378 -0.0638  0.3496  0.3905
29440SOL    HW193005   3.743  11.229   4.340  0.4196 -1.2766 -1.7944
29440SOL    HW293006   3.597  11.188   4.340  0.3889 -1.1713 -1.6788
29441SOL     OW93007   7.055   5.583   4.805  0.7583 -0.2439  0.4447
29441SOL    HW193008   7.124   5.608   4.743  0.0748 -0.1464 -0.2956
29441SOL    HW293009   7.082   5.497   4.838  1.0502 -0.3692 -0.1145
29442SOL     OW93010   7.927   9.627   0.387  0.1121 -0.0881 -0.0695
29442SOL    HW193011   7.888   9.713   0.371  1.4537  0.3343 -1.2607
29442SOL    HW293012   7.900   9.574   0.311 -0.3000 -0.5879  0.4130
29443SOL     OW93013   4.590   4.222   7.264  0.4678 -0.3715 -0.2442
29443SOL    HW193014   4.495   4.225   7.261  0.4463 -1.2497 -2.9511
29443SOL    HW293015   4.613   4.137   7.227  2.3236 -0.3919  0.8197
29444SOL     OW93016   8.620   2.838   2.441 -0.2293  0.3411  0.3543
29444SOL    HW193017   8.639   2.821   2.533  1.7275  0.3822  0.0069
29444SOL    HW293018   8.565   2.765   2.413 -0.4864  0.1096  1.4352
29445SOL     OW93019   3.242   7.547   9.737 -0.4511 -0.2964  0.2405
29445SOL    HW193020   3.231   7.632   9.781  0.8747 -0.6656  1.3116
29445SOL    HW293021   3.197   7.485   9.794  0.8784 -0.7067  0.8646
29446SOL     OW93022   9.767   7.684   2.624 -0.6593 -0.3554 -0.1988
29446SOL    HW193023   9.694   7.739   2.594 -0.4449 -0.4106 -0.8305
29446SOL    HW293024   9.750   7.598   2.585  0.2188 -0.1305 -1.1165
29447SOL     OW93025   6.364   8.714   6.162 -0.2407  0.4103 -0.0705
29447SOL    HW193026   6.394   8.678   6.078 -0.8558 -2.3590  0.7780
29447SOL    HW293027   6.324   8.798   6.140 -0.4792 -0.2791 -2.5602
29448SOL     OW93028  11.784   2.877   1.382  0.4938 -0.1423  0.4915
29448SOL    HW193029  11.706   2.861   1.328 -0.6732  1.8266  1.4645
29448SOL    HW293030  11.775   2.816   1.455  0.8724 -1.2154 -0.3306
29449SOL     OW93031   5.575   9.098   1.592 -0.1929  0.0772 -0.1182
29449SOL    HW193032   5.559   9.143   1.509 -0.2230 -0.1001 -0.2081
29449SOL    HW293033   5.654   9.047   1.577  0.0341  0.3624  0.0907
29450SOL     OW93034   7.591   9.178  10.305 -0.5481  0.2170 -0.2146
29450SOL    HW193035   7.512   9.134  10.275 -1.7623  1.2993  1.2273
29450SOL    HW293036   7.625   9.122  10.375  1.0273 -1.1623 -1.9907
29451SOL     OW93037   5.647   8.150   5.672  0.2820 -0.1302 -0.3360
29451SOL    HW193038   5.716   8.206   5.637  2.7845 -1.4325  2.1791
29451SOL    HW293039   5.677   8.061   5.654 -1.2398 -0.7318 -0.0341
29452SOL     OW93040  10.079   1.174   8.290  0.1666  0.0983 -0.0444
29452SOL    HW193041  10.142   1.104   8.272 -1.5300 -1.2531 -1.0387
29452SOL    HW293042  10.113   1.217   8.369  1.6589 -1.3681  0.1695
29453SOL     OW93043   7.183   2.070   7.601  0.6159 -0.4862  0.0694
29453SOL    HW193044   7.239   2.131   7.553 -0.5156 -0.6940 -1.5878
29453SOL    HW293045   7.148   2.011   7.535  0.3432 -1.8967  1.4033
29454SOL     OW93046   4.323   9.821   6.953 -0.5920  0.0198  0.1784
29454SOL    HW193047   4.414   9.791   6.960 -1.3122 -2.1494  1.3333
29454SOL    HW293048   4.306   9.823   6.859  0.4099 -0.3578 -0.0315
29455SOL     OW93049   7.362  10.654   0.700  0.6451  0.3805 -0.0942
29455SOL    HW193050   7.398  10.710   0.632  2.1295  0.2300  0.5186
29455SOL    HW293051   7.439  10.608   0.736 -0.2013 -0.1316  1.1250
29456SOL     OW93052  11.019   5.254   1.293 -0.5282  0.2944  0.4867
29456SOL    HW193053  10.948   5.318   1.302 -0.8337 -0.1139  1.0383
29456SOL    HW293054  11.015   5.227   1.201 -0.4866  0.9583  0.2852
29457SOL     OW93055   7.856   3.183  11.632 -0.1763  0.1330  0.0231
29457SOL    HW193056   7.937   3.207  11.677 -0.7443  2.8441 -0.2396
29457SOL    HW293057   7.787   3.194  11.698 -0.6630  1.1456 -0.6158
29458SOL     OW93058   3.374  10.622   2.296  0.2932  0.2324 -0.8647
29458SOL    HW193059   3.323  10.541   2.294 -1.8777  1.5136 -3.4733
29458SOL    HW293060   3.322  10.682   2.349  0.3941  0.7473 -1.3326
29459SOL     OW93061   5.173   4.870   6.004 -0.2625  0.1863 -0.3650
29459SOL    HW193062   5.213   4.940   6.056 -1.7951  0.1079  0.9978
29459SOL    HW293063   5.147   4.913   5.922 -2.2498  1.5885  0.9106
29460SOL     OW93064  11.978   4.198   4.039 -0.6538  0.7140  0.5369
29460SOL    HW193065  11.958   4.157   4.124  0.3546 -0.7185  0.1343
29460SOL    HW293066  11.980   4.292   4.057  0.6743  0.4003  2.3935
29461SOL     OW93067   4.175   3.754   2.604  0.2445  0.6544 -0.1868
29461SOL    HW193068   4.121   3.764   2.682  0.0343 -0.3526 -0.1984
29461SOL    HW293069   4.137   3.679   2.558  0.2447  1.3393 -1.3577
29462SOL     OW93070   8.926   2.521   4.103 -0.3271  0.0889 -0.4918
29462SOL    HW193071   8.954   2.593   4.046 -1.8209 -0.5175 -2.0665
29462SOL    HW293072   8.964   2.443   4.062  2.1019 -0.0269  1.7377
29463SOL     OW93073   8.213   8.216  11.120  0.0235  0.0737  0.4418
29463SOL    HW193074   8.158   8.186  11.192 -0.3153  1.2015  0.6727
29463SOL    HW293075   8.268   8.141  11.099 -0.7446 -0.6771  1.0318
29464SOL     OW93076   3.345   3.900   7.291 -0.0248  0.1859  0.5222
29464SOL    HW193077   3.299   3.908   7.374 -2.2978 -1.1356 -0.5196
29464SOL    HW293078   3.376   3.809   7.290  2.1445  0.8754  0.9215
29465SOL     OW93079   9.044   4.292   9.245  0.7232 -0.2188  0.5539
29465SOL    HW193080   9.093   4.371   9.223  0.6147 -0.1242  0.6523
29465SOL    HW293081   8.992   4.316   9.321  0.9037 -0.4686  0.7601
29466SOL     OW93082   7.368  10.061   5.262  0.2886 -0.1380 -0.1978
29466SOL    HW193083   7.326  10.095   5.183 -0.8906  1.2007  0.9520
29466SOL    HW293084   7.377   9.967   5.246 -2.6418 -0.4159 -0.7945
29467SOL     OW93085  10.306   3.985   2.962 -0.1670  0.0508 -0.0331
29467SOL    HW193086  10.257   4.053   2.916 -0.5769 -0.4060 -0.2889
29467SOL    HW293087  10.397   4.013   2.956 -0.0249 -0.7333 -2.4655
29468SOL     OW93088   0.279   5.857   9.799 -0.0611 -0.0984  0.5378
29468SOL    HW193089   0.203   5.889   9.848  0.4715 -0.1206  1.4199
29468SOL    HW293090   0.286   5.916   9.724 -1.2759 -0.4468  0.1225
29469SOL     OW93091  11.636  11.430   1.846  0.0225 -0.1866 -0.1280
29469SOL    HW193092  11.690  11.354   1.868 -0.3998 -0.7009 -0.8167
29469SOL    HW293093  11.555  11.416   1.895  0.1650  0.1231  0.1995
29470SOL     OW93094   0.636   7.005  10.265  0.0848 -0.4178 -0.1164
29470SOL    HW193095   0.716   7.015  10.318 -0.6535 -0.5327  1.0458
29470SOL    HW293096   0.598   7.093  10.263  0.0420 -0.4415 -0.3565
29471SOL     OW93097   7.951   9.032   1.336 -0.2807  0.0666 -0.7300
29471SOL    HW193098   7.944   9.033   1.431 -0.0078  2.5443 -0.6689
29471SOL    HW293099   7.999   8.951   1.316 -0.1282 -0.3734  1.2343
29472SOL     OW93100   7.946   6.006  10.081 -0.0821 -0.0572 -0.3075
29472SOL    HW193101   7.971   6.099  10.078 -2.8037  0.7379 -1.7806
29472SOL    HW293102   7.984   5.974  10.163  1.0329  2.3180  0.2093
29473SOL     OW93103   2.665   9.900   4.627  0.1215  0.2376  0.8880
29473SOL    HW193104   2.651   9.994   4.612 -0.6813  0.1946  1.2770
29473SOL    HW293105   2.757   9.893   4.650  0.1773  0.9441  0.9205
29474SOL     OW93106   4.098   7.044   5.388  0.2659 -0.1696  0.0633
29474SOL    HW193107   4.193   7.034   5.389  0.1326 -1.7194  0.4604
29474SOL    HW293108   4.070   7.000   5.308  0.1563  4.2207 -2.5921
29475SOL     OW93109   3.808   6.877   3.223 -0.0632 -0.8291  0.1188
29475SOL    HW193110   3.883   6.937   3.214 -0.8318  0.5155  1.8551
29475SOL    HW293111   3.836   6.814   3.290 -0.2312 -0.7206  0.2937
29476SOL     OW93112   5.070  10.663   5.035  0.1743 -0.7120  0.3424
29476SOL    HW193113   5.110  10.599   4.976 -1.6214 -2.5190  0.9546
29476SOL    HW293114   5.076  10.623   5.121 -0.4859  0.2059  0.8386
29477SOL     OW93115   9.891   2.397   9.046  0.1847 -0.0719  0.6628
29477SOL    HW193116   9.883   2.429   8.956  1.2956  0.8233  0.8545
29477SOL    HW293117   9.809   2.424   9.088 -0.5597 -0.9364 -0.1830
29478SOL     OW93118   4.613   3.568   7.363 -0.2117  0.1715  0.3034
29478SOL    HW193119   4.652   3.506   7.425 -0.3126 -0.0438  0.1508
29478SOL    HW293120   4.665   3.648   7.374  0.3645 -0.1586 -0.0063
29479SOL     OW93121   0.794   6.299   3.374  0.1378 -0.2630  0.7332
29479SOL    HW193122   0.786   6.321   3.467 -3.2151 -2.9909  1.2915
29479SOL    HW293123   0.742   6.366   3.329 -2.1181 -1.4361  1.4232
29480SOL     OW93124   3.625   5.154   3.623 -0.0998 -0.9699 -0.5386
29480SOL    HW193125   3.568   5.231   3.619  0.6079 -0.4025  0.2168
29480SOL    HW293126   3.573   5.084   3.583 -1.2338 -0.4035 -0.0849
29481SOL     OW93127   8.381   8.807   0.671  0.5213  0.4400 -0.5594
29481SOL    HW193128   8.324   8.753   0.726 -0.3053  0.6224 -1.2288
29481SOL    HW293129   8.424   8.744   0.612  0.1263  0.4292 -0.8373
29482SOL     OW93130   4.464   3.637   2.347  0.1914  0.7093 -0.9588
29482SOL    HW193131   4.484   3.544   2.358 -1.6457  0.4503  0.8744
29482SOL    HW293132   4.542   3.683   2.378  0.3915 -0.2374 -0.0146
29483SOL     OW93133   7.006   2.351   2.322 -0.1353  0.2401  0.4036
29483SOL    HW193134   7.006   2.443   2.295 -1.5101  0.0291 -0.4126
29483SOL    HW293135   7.036   2.353   2.413 -1.2142  1.6346  0.7754
29484SOL     OW93136   5.882   7.433   1.178  0.2462  0.5452 -0.7990
29484SOL    HW193137   5.843   7.346   1.179  2.0948 -0.3727  1.4323
29484SOL    HW293138   5.826   7.485   1.236  0.6490  0.0325  0.0804
29485SOL     OW93139   5.998  11.847   4.156  0.1693 -0.2456 -0.8073
29485SOL    HW193140   6.010  11.846   4.251 -0.7140 -0.9227 -0.6900
29485SOL    HW293141   5.936  11.918   4.141  0.5177  0.0401 -0.9132
29486SOL     OW93142   9.798   9.472   1.687 -0.2711  0.1149  0.3019
29486SOL    HW193143   9.888   9.503   1.680  0.1042 -0.7885  0.9773
29486SOL    HW293144   9.761   9.486   1.600  1.0157 -1.0098 -0.4678
29487SOL     OW93145   5.750   0.190   6.783  0.7557  0.1950 -0.3448
29487SOL    HW193146   5.772   0.223   6.696  2.3245  1.5173  0.5115
29487SOL    HW293147   5.740   0.268   6.837  2.7970 -0.6037  1.3430
29488SOL     OW93148   5.642   4.971   0.668  0.1470  0.1513 -0.4939
29488SOL    HW193149   5.682   4.920   0.598  2.9736  0.0796  1.0241
29488SOL    HW293150   5.714   5.022   0.705 -1.5079  1.2340  1.4633
29489SOL     OW93151   0.021  11.278  11.541 -0.1136 -0.1878  0.1858
29489SOL    HW193152   0.032  11.373  11.550 -2.7494  0.6481 -3.1951
29489SOL    HW293153   0.083  11.253  11.473  0.3383 -0.8532  0.8306
29490SOL     OW93154   1.663   8.309   9.582  0.3992 -0.4203 -0.0814
29490SOL    HW193155   1.628   8.263   9.506 -1.2111 -0.5896  0.7272
29490SOL    HW293156   1.646   8.402   9.565  2.1801 -0.2220 -0.9717
29491SOL     OW93157   5.109   3.817   7.568  0.4059 -0.1077 -0.0173
29491SOL    HW193158   5.187   3.815   7.624  0.8396 -1.9861 -0.6317
29491SOL    HW293159   5.043   3.861   7.621  0.9638 -1.2808  1.7563
29492SOL     OW93160   5.803   7.545  11.435  0.5344 -0.6256  0.1115
29492SOL    HW193161   5.780   7.618  11.378 -0.2698 -0.6504  0.3889
29492SOL    HW293162   5.892   7.521  11.409  0.2003 -0.6059 -1.0965
29493SOL     OW93163   7.675  11.345  11.682  0.5944 -0.1172 -0.2700
29493SOL    HW193164   7.681  11.375  11.591  0.6423  0.1836 -0.1691
29493SOL    HW293165   7.697  11.422  11.734 -0.7278  0.0923  0.0306
29494SOL     OW93166   4.228   2.658   1.890  0.0195  0.1267 -0.2482
29494SOL    HW193167   4.255   2.722   1.825 -1.4018 -0.1539 -1.1525
29494SOL    HW293168   4.281   2.679   1.967 -0.0608  2.0952 -0.6598
29495SOL     OW93169   1.522   9.042   0.305 -0.5520 -0.0519 -0.1349
29495SOL    HW193170   1.470   9.008   0.233 -1.3309 -0.0495  0.4191
29495SOL    HW293171   1.492   9.132   0.316  0.4797  0.3771 -0.6433
29496SOL     OW93172   5.088   3.439  11.417 -0.3851  0.2946 -0.7260
29496SOL    HW193173   5.012   3.487  11.384 -0.6402 -0.9481 -2.0561
29496SOL    HW293174   5.162   3.499  11.403 -0.6776  0.3111 -2.4471
29497SOL     OW93175   9.196   2.603  11.976 -0.2722 -0.1700 -0.2460
29497SOL    HW193176   9.260   2.560  11.920  0.2750  0.5173 -0.1669
29497SOL    HW293177   9.245   2.625  12.056 -0.7634 -0.1824  0.0632
29498SOL     OW93178   9.793   6.506   4.020 -0.4116 -0.1377  0.4536
29498SOL    HW193179   9.848   6.435   3.987 -1.6236  0.0977 -2.4401
29498SOL    HW293180   9.705   6.469   4.019 -0.7803  0.7129  1.1317
29499SOL     OW93181   8.513   7.080   9.878  0.3447  0.3124  0.0348
29499SOL    HW193182   8.503   7.101   9.785  2.7827  2.9539  0.1966
29499SOL    HW293183   8.552   6.993   9.880 -0.8816 -0.2935 -1.3335
29500SOL     OW93184  11.766   5.083   6.381 -0.3414 -0.0465 -0.0405
29500SOL    HW193185  11.702   5.046   6.443  0.6933  0.7940  1.5957
29500SOL    HW293186  11.767   5.177   6.401  0.8536  0.0629 -0.5469
29501SOL     OW93187   2.167   1.793   3.480  0.3269  0.2266  0.0342
29501SOL    HW193188   2.109   1.851   3.531  1.6189  2.3698 -0.7703
29501SOL    HW293189   2.118   1.776   3.400 -0.1671 -0.0058  0.3787
29502SOL     OW93190   3.465   0.072  10.108 -0.1904 -0.8287 -0.0597
29502SOL    HW193191   3.406   0.126  10.057 -2.1924 -0.3479  2.5278
29502SOL    HW293192   3.536   0.132  10.135 -1.3573  0.0667  1.1536
29503SOL     OW93193  11.873   9.719   7.996 -0.0009  0.6672  0.1947
29503SOL    HW193194  11.885   9.663   7.919 -0.7193  0.8111 -0.0307
29503SOL    HW293195  11.860   9.658   8.068 -2.1355  0.5114 -0.2704
29504SOL     OW93196   0.331   4.143   4.292 -0.1224 -0.1312  0.0852
29504SOL    HW193197   0.296   4.113   4.208 -1.1782  1.6571 -0.1685
29504SOL    HW293198   0.315   4.069   4.352  1.4825 -1.7915 -1.4279
29505SOL     OW93199   2.941   7.816   5.522  0.0102  0.2139  0.2683
29505SOL    HW193200   2.851   7.847   5.521  0.1375  0.6012  0.7267
29505SOL    HW293201   2.973   7.833   5.433 -0.3970 -0.0241  0.0742
29506SOL     OW93202   3.613   3.242   8.259 -0.2023 -0.3749  0.4067
29506SOL    HW193203   3.625   3.161   8.308  3.5220  0.4680  1.2407
29506SOL    HW293204   3.624   3.217   8.167 -0.0869 -0.9772  0.5820
29507SOL     OW93205  11.007   1.361   3.354 -0.5573 -0.4326  0.1053
29507SOL    HW193206  10.937   1.325   3.408  1.1602  0.6672  3.3365
29507SOL    HW293207  11.087   1.321   3.389  0.6882  0.6282 -1.4120
29508SOL     OW93208   8.669   3.310   5.760 -0.6018  0.1212 -0.6556
29508SOL    HW193209   8.580   3.346   5.767 -1.3194 -1.3939 -1.6972
29508SOL    HW293210   8.681   3.293   5.667 -0.1003 -1.8074 -0.2827
29509SOL     OW93211   9.191   2.840   2.658 -0.1716 -0.7019 -0.2384
29509SOL    HW193212   9.223   2.929   2.644 -0.6150 -0.6570 -0.9770
29509SOL    HW293213   9.169   2.837   2.752 -2.6308  0.7898 -0.6935
29510SOL     OW93214  11.974   3.893   2.721 -0.2167 -0.4631 -0.1603
29510SOL    HW193215  12.000   3.976   2.682  0.0367 -0.2172  0.5201
29510SOL    HW293216  11.932   3.917   2.803 -2.0443 -0.8968 -0.9279
29511SOL     OW93217   4.129   7.730   2.516 -0.4245 -0.3121  0.1938
29511SOL    HW193218   4.083   7.813   2.507 -1.4952 -0.6476  2.0571
29511SOL    HW293219   4.160   7.729   2.607  1.2802 -1.1108 -0.3505
29512SOL     OW93220   7.682   4.139   9.669 -0.6328 -0.1599 -0.1384
29512SOL    HW193221   7.748   4.175   9.727 -0.8612 -1.6614  1.1255
29512SOL    HW293222   7.732   4.090   9.603 -0.4446 -1.0529  0.6457
29513SOL     OW93223   1.401   4.493   7.488 -0.0499  0.0484  0.0805
29513SOL    HW193224   1.483   4.541   7.478  0.3229 -0.5486  0.2427
29513SOL    HW293225   1.336   4.547   7.443  0.6716 -0.1049 -1.2094
29514SOL     OW93226   4.030   8.765   5.348 -0.8595  0.4410  0.6778
29514SOL    HW193227   3.950   8.753   5.398 -1.6099 -1.2928 -0.8201
29514SOL    HW293228   4.054   8.677   5.319 -0.8763  1.3507 -2.5407
29515SOL     OW93229   8.970   1.079   9.992 -0.4509 -0.0767 -0.6498
29515SOL    HW193230   8.925   1.043  10.068  1.6807 -1.0141  0.2465
29515SOL    HW293231   8.975   1.173  10.010  0.0760 -0.2939  0.4279
29516SOL     OW93232   8.122   0.353   6.868  0.5200  0.0358 -0.5455
29516SOL    HW193233   8.038   0.307   6.858  0.2254 -0.1432  2.1900
29516SOL    HW293234   8.097   0.444   6.887  1.0168  0.3207 -1.1881
29517SOL     OW93235   6.604  11.250   3.323 -0.1620 -0.4660  0.1275
29517SOL    HW193236   6.571  11.203   3.247 -1.3544 -1.4642  1.2040
29517SOL    HW293237   6.591  11.342   3.302 -0.0315 -0.7098 -1.0580
29518SOL     OW93238   6.381  11.478   7.327 -0.3164  0.1744  0.4051
29518SOL    HW193239   6.450  11.420   7.296  0.0305  1.6392 -1.7508
29518SOL    HW293240   6.300  11.436   7.298 -0.3253 -0.8618  1.7823
29519SOL     OW93241   1.892   8.569  11.763 -0.2430 -0.1325 -0.2808
29519SOL    HW193242   1.872   8.662  11.750  0.9797  0.0220 -1.2916
29519SOL    HW293243   1.972   8.555  11.711  1.1037 -1.1231  1.9167
29520SOL     OW93244   6.173   4.270   5.391  0.3140  0.0735  0.2597
29520SOL    HW193245   6.145   4.179   5.406  1.4229 -0.3112  0.0627
29520SOL    HW293246   6.119   4.300   5.319  0.0291 -0.4796  0.2370
29521SOL     OW93247   1.314   4.863  11.175  0.4215 -0.2168 -0.2853
29521SOL    HW193248   1.348   4.856  11.086 -0.6032 -0.5916 -0.6568
29521SOL    HW293249   1.391   4.884  11.228  1.0621 -0.0963 -1.2369
29522SOL     OW93250   9.877   9.709   3.843 -0.2783 -0.3832  0.7318
29522SOL    HW193251   9.927   9.760   3.906 -0.4093 -0.3143  0.7802
29522SOL    HW293252   9.907   9.740   3.758  0.8657 -1.4046  0.7327
29523SOL     OW93253   7.212   5.880  10.151 -0.3776 -0.4579 -0.5014
29523SOL    HW193254   7.142   5.926  10.195 -0.3338 -0.7497 -0.1258
29523SOL    HW293255   7.212   5.792  10.189  1.0089 -0.0893  0.4273
29524SOL     OW93256   7.135  11.700   9.498 -0.0922  0.4228 -0.0513
29524SOL    HW193257   7.058  11.696   9.440 -0.5310 -1.3242  0.5893
29524SOL    HW293258   7.195  11.759   9.453 -1.8190  1.9376 -0.5392
29525SOL     OW93259   9.946   7.127   3.591 -0.1181  0.1811  0.1363
29525SOL    HW193260   9.876   7.192   3.591 -1.3775 -1.1369 -0.1528
29525SOL    HW293261   9.901   7.043   3.592  1.4688 -0.7113 -0.2332
29526SOL     OW93262  10.645   6.234  11.805  0.2959 -0.4713  0.1537
29526SOL    HW193263  10.665   6.247  11.898 -1.0032 -0.5774  0.4618
29526SOL    HW293264  10.626   6.322  11.772 -1.3068 -0.6500  0.5101
29527SOL     OW93265   1.706   0.819  10.786  0.9268  0.7383  0.5798
29527SOL    HW193266   1.731   0.753  10.852 -1.9584 -2.4688 -1.2116
29527SOL    HW293267   1.765   0.802  10.713  0.0848 -0.0369  0.0611
29528SOL     OW93268   5.511   5.614   5.137 -0.1626  0.2456 -0.3779
29528SOL    HW193269   5.472   5.547   5.081 -3.1842  1.5173 -0.0122
29528SOL    HW293270   5.596   5.632   5.097 -0.9720 -0.9165 -2.8405
29529SOL     OW93271   5.705   8.124  11.422 -0.1604 -0.2463  0.0398
29529SOL    HW193272   5.783   8.089  11.380  0.0898 -1.3967  1.3601
29529SOL    HW293273   5.660   8.046  11.458 -1.4474  0.4713  0.0588
29530SOL     OW93274  10.319   1.297   7.060  0.1839  0.1083  0.7521
29530SOL    HW193275  10.383   1.252   7.005  0.5375  2.4265 -0.9165
29530SOL    HW293276  10.248   1.234   7.072  0.0198 -0.5168 -2.5807
29531SOL     OW93277   8.831  10.304   7.388 -0.1865 -0.4765 -0.2344
29531SOL    HW193278   8.850  10.351   7.469 -0.3825 -0.8329  0.0201
29531SOL    HW293279   8.908  10.248   7.374  0.2563  0.2481 -0.7857
29532SOL     OW93280  10.232   5.801  11.388 -0.0384 -0.3224  0.5627
29532SOL    HW193281  10.180   5.721  11.400 -1.4447  0.3881 -0.4813
29532SOL    HW293282  10.304   5.775  11.331 -2.4223 -0.1919 -2.7637
29533SOL     OW93283   9.702   4.851   5.947 -0.1663 -0.1404  0.1928
29533SOL    HW193284   9.689   4.836   6.040  0.1523  0.0105  0.2630
29533SOL    HW293285   9.699   4.946   5.937  1.3602 -0.0573  0.2918
29534SOL     OW93286   1.876   1.502   4.351 -0.0260  0.0884 -0.4394
29534SOL    HW193287   1.948   1.456   4.307  0.2047  0.8810 -0.9021
29534SOL    HW293288   1.797   1.458   4.320  0.2502 -0.7795  0.0581
29535SOL     OW93289   6.533   2.191   5.246 -0.2651 -0.2417  0.1805
29535SOL    HW193290   6.529   2.276   5.202  1.1978  0.1844  0.8116
29535SOL    HW293291   6.456   2.191   5.303 -0.8805  0.1888 -0.6269
29536SOL     OW93292   3.830  10.844   7.131 -0.3387 -0.4593  0.0528
29536SOL    HW193293   3.760  10.910   7.131 -1.6387 -1.7719  0.1975
29536SOL    HW293294   3.784  10.762   7.113  1.4930 -1.0735 -2.4081
29537SOL     OW93295   8.033   0.117   1.113  0.3597 -0.2896  0.9418
29537SOL    HW193296   7.945   0.156   1.110  0.3150 -0.3194  1.7197
29537SOL    HW293297   8.017   0.024   1.126  0.4556 -0.6750 -1.3500
29538SOL     OW93298   8.603   5.458  11.798  0.2056 -0.0495  0.3366
29538SOL    HW193299   8.560   5.384  11.756 -0.3956  0.5363 -0.0960
29538SOL    HW293300   8.693   5.456  11.764 -0.2368  0.3407 -0.8876
29539SOL     OW93301  10.166   5.985   3.689 -0.0740 -0.3425  0.1446
29539SOL    HW193302  10.115   6.021   3.761  1.1183  0.9811  0.3603
29539SOL    HW293303  10.257   5.985   3.721  0.3960 -0.3190 -1.1251
29540SOL     OW93304   3.388   4.450   8.521 -0.3166  0.0442  0.0929
29540SOL    HW193305   3.468   4.485   8.562 -0.2383  1.7170 -1.3483
29540SOL    HW293306   3.416   4.424   8.433 -1.2224 -0.0178 -0.1827
29541SOL     OW93307   5.101   4.941   5.275  0.0559 -0.5615 -0.0135
29541SOL    HW193308   5.184   4.893   5.270 -0.3282 -1.2467  0.0796
29541SOL    HW293309   5.107   5.006   5.205  0.2269 -1.3162 -0.7113
29542SOL     OW93310   1.371   0.941   2.617  0.2942  0.4926  0.1679
29542SOL    HW193311   1.319   0.973   2.544  0.6771 -2.0955 -1.3355
29542SOL    HW293312   1.456   0.918   2.579  0.9593  0.2667  1.6801
29543SOL     OW93313   8.849   5.668   7.790 -0.1432  0.3651 -0.0804
29543SOL    HW193314   8.915   5.639   7.852  0.9119  0.2055 -1.2444
29543SOL    HW293315   8.866   5.761   7.778 -0.5958  0.4831  0.1499
29544SOL     OW93316   6.242  10.066   3.261 -0.4451 -0.0259  0.0586
29544SOL    HW193317   6.329  10.045   3.229 -1.1185 -1.7604 -0.7834
29544SOL    HW293318   6.209   9.984   3.298 -1.8163  0.4948  0.0734
29545SOL     OW93319   8.971   2.798   6.739 -0.0739 -0.1855 -0.1839
29545SOL    HW193320   8.983   2.851   6.660 -1.5975 -2.0975 -1.8173
29545SOL    HW293321   8.897   2.741   6.719  1.0684 -2.5259  1.6394
29546SOL     OW93322   5.571   2.965   7.567  0.3426 -0.4494  0.2526
29546SOL    HW193323   5.655   2.919   7.562 -0.3003 -1.6173 -0.1067
29546SOL    HW293324   5.505   2.896   7.559 -0.6567  0.5070  0.0223
29547SOL     OW93325   5.865   6.263   0.656 -0.2898 -0.6370 -0.7099
29547SOL    HW193326   5.916   6.246   0.735 -0.3735  1.1365 -0.2235
29547SOL    HW293327   5.916   6.327   0.607 -1.4020  0.1910 -0.8410
29548SOL     OW93328   1.537   3.783   5.243 -0.5535 -0.2021  0.4164
29548SOL    HW193329   1.623   3.756   5.212 -0.2364 -0.0680  1.1455
29548SOL    HW293330   1.504   3.708   5.292 -0.4648  0.0535  0.8792
29549SOL     OW93331   6.095   5.907  10.617  0.3495 -0.2076  0.1546
29549SOL    HW193332   6.099   5.838  10.551  1.5120  0.5964 -0.6744
29549SOL    HW293333   6.183   5.908  10.656 -0.0790 -0.1228  1.1409
29550SOL     OW93334   2.872   7.228  11.631 -0.2392 -0.3290  0.1762
29550SOL    HW193335   2.822   7.307  11.612 -0.2704 -0.8522 -2.2579
29550SOL    HW293336   2.954   7.259  11.668  0.0456  0.9314 -1.3964
29551SOL     OW93337   7.626   3.026   7.215 -0.1162  0.1363 -0.5332
29551SOL    HW193338   7.706   2.981   7.189  0.5636  1.7910 -1.5028
29551SOL    HW293339   7.606   2.991   7.302  1.5366 -0.4812 -0.3628
29552SOL     OW93340   3.155   4.278   7.495 -0.2742 -0.0962  0.5014
29552SOL    HW193341   3.233   4.223   7.490  0.2958  0.6262  1.1941
29552SOL    HW293342   3.096   4.230   7.553 -0.9223 -1.2939 -1.0622
29553SOL     OW93343   1.914   3.575   8.253  0.1217  0.4757  0.2093
29553SOL    HW193344   1.851   3.601   8.320  0.3523 -1.0897  1.0749
29553SOL    HW293345   1.870   3.592   8.170 -0.8868  0.7082  0.7825
29554SOL     OW93346   4.095   5.442  11.255  0.4125  0.2211  0.2737
29554SOL    HW193347   4.018   5.465  11.204  1.2014 -3.3150 -3.0010
29554SOL    HW293348   4.063   5.385  11.324 -0.2195  1.7954  1.3310
29555SOL     OW93349   5.966   9.575   5.937 -0.0937  0.2853 -0.2816
29555SOL    HW193350   5.878   9.541   5.956 -0.4216  0.1748 -1.8189
29555SOL    HW293351   5.983   9.546   5.847  1.2951  0.7818 -0.1958
29556SOL     OW93352   0.933   2.317   5.951 -0.3810  0.2752 -0.1435
29556SOL    HW193353   0.966   2.313   5.861 -1.3616  0.1616 -0.5097
29556SOL    HW293354   0.974   2.396   5.987  0.9888 -0.3504 -0.2749
29557SOL     OW93355   2.896   8.641   8.744 -0.3367  0.0216 -0.3322
29557SOL    HW193356   2.869   8.596   8.663 -1.9998  2.2479 -1.1203
29557SOL    HW293357   2.817   8.686   8.773  0.7144  0.7224  1.5847
29558SOL     OW93358   6.322   5.750   6.474  0.3989  0.4397 -0.1680
29558SOL    HW193359   6.259   5.681   6.454  1.5130 -0.7951  0.4343
29558SOL    HW293360   6.303   5.775   6.565  0.8351 -0.0080  0.0493
29559SOL     OW93361   3.305   6.770   6.461 -0.2507 -0.2949  0.2426
29559SOL    HW193362   3.307   6.732   6.373 -1.5970 -0.4403  0.2516
29559SOL    HW293363   3.396   6.771   6.488  0.1379 -0.7071 -0.9613
29560SOL     OW93364   8.398   6.739  11.262 -0.3276  0.4106  0.2108
29560SOL    HW193365   8.381   6.810  11.323  2.2330  1.4244 -0.1253
29560SOL    HW293366   8.482   6.702  11.291 -1.2304 -2.0803 -0.0406
29561SOL     OW93367   8.494   8.554   1.084 -0.6923  0.0294 -0.4023
29561SOL    HW193368   8.429   8.507   1.032  1.2989 -1.3401 -1.8265
29561SOL    HW293369   8.510   8.635   1.035  0.0157 -0.5175 -1.1017
29562SOL     OW93370   2.617   0.841   8.548 -0.3307  0.2242 -0.0546
29562SOL    HW193371   2.561   0.768   8.522 -0.1938 -0.4861  1.5414
29562SOL    HW293372   2.599   0.854   8.641  0.7670  1.2242  0.0449
29563SOL     OW93373   9.398   4.693   1.483  0.4812  0.4065 -0.0741
29563SOL    HW193374   9.483   4.655   1.506 -0.0317 -0.3154  0.6760
29563SOL    HW293375   9.420   4.772   1.433  1.5873 -0.4696 -1.0490
29564SOL     OW93376  10.504   0.852   0.536  0.6467 -0.3506  0.0443
29564SOL    HW193377  10.467   0.882   0.619  1.1785 -0.1054  0.1917
29564SOL    HW293378  10.499   0.757   0.540 -0.6256 -0.3226 -0.2324
29565SOL     OW93379   8.445   7.044   6.548 -0.4588  0.0962  0.0183
29565SOL    HW193380   8.491   6.960   6.548  0.1268  0.3858 -1.6352
29565SOL    HW293381   8.378   7.034   6.616 -0.6549 -1.8520 -0.3858
29566SOL     OW93382   5.013   4.137   3.689  0.3719  0.0538  0.4100
29566SOL    HW193383   5.029   4.051   3.728  0.9844  0.0319  0.1210
29566SOL    HW293384   4.926   4.161   3.719  0.1349 -0.7328  0.3736
29567SOL     OW93385   6.185   8.903   9.399  0.0588  0.1230  0.0146
29567SOL    HW193386   6.218   8.813   9.404 -0.2840 -0.0699 -0.9930
29567SOL    HW293387   6.263   8.958   9.400  0.2555 -0.1461  1.1553
29568SOL     OW93388   9.348   1.764  10.578  0.0439 -1.1144 -0.0164
29568SOL    HW193389   9.333   1.858  10.585  0.6494 -1.0720  0.7718
29568SOL    HW293390   9.262   1.728  10.553 -0.7382 -0.5855  1.7686
29569SOL     OW93391   0.442   2.712  10.101  0.4425 -0.0358  0.2828
29569SOL    HW193392   0.463   2.710  10.194 -0.0882  1.2959  0.4481
29569SOL    HW293393   0.348   2.693  10.097  0.2960  0.6829  0.0983
29570SOL     OW93394  10.068  11.971   3.691 -0.3797 -0.2393 -0.0699
29570SOL    HW193395  10.030  11.885   3.709 -0.6792  0.1988  1.5836
29570SOL    HW293396  10.048  12.022   3.769  2.0371  0.5553  0.1098
29571SOL     OW93397  11.595   5.573   9.266  0.2112  0.1681 -0.7530
29571SOL    HW193398  11.518   5.521   9.288  1.8234 -1.3429  1.8129
29571SOL    HW293399  11.605   5.560   9.171 -2.0085 -0.4949 -0.9574
29572SOL     OW93400   9.426   1.912  10.242  0.2169 -0.1251  0.4188
29572SOL    HW193401   9.425   1.828  10.197 -0.3013  0.3524 -0.4805
29572SOL    HW293402   9.346   1.956  10.214  1.5357  1.5972 -0.9021
29573SOL     OW93403   5.286  11.463   6.512  0.0078 -0.2819 -0.2491
29573SOL    HW193404   5.350  11.511   6.566  0.3921 -2.0683  0.9602
29573SOL    HW293405   5.320  11.374   6.509 -2.3743 -1.2682  0.3612
29574SOL     OW93406   9.592   0.914   4.173  0.2978 -0.2563  0.2797
29574SOL    HW193407   9.507   0.959   4.172 -0.0977 -0.9755  0.6192
29574SOL    HW293408   9.607   0.893   4.265  0.7985 -0.2300  0.2065
29575SOL     OW93409  11.601   0.572   2.052  0.5505  0.0644  0.4019
29575SOL    HW193410  11.568   0.485   2.029 -1.2944  0.7215  0.3365
29575SOL    HW293411  11.674   0.555   2.111 -0.6417 -1.5498  1.5246
29576SOL     OW93412   4.753   4.508   9.743 -0.6222 -0.0588 -0.3164
29576SOL    HW193413   4.760   4.579   9.679 -1.0844  1.5293  1.3195
29576SOL    HW293414   4.840   4.468   9.745  0.2206  1.7173  0.1080
29577SOL     OW93415   9.603   5.412   7.461  0.3560  0.5615 -0.0845
29577SOL    HW193416   9.535   5.401   7.394  0.6885  0.6814 -0.4465
29577SOL    HW293417   9.665   5.341   7.444 -0.7913 -0.9452  1.6427
29578SOL     OW93418   2.944   1.431   6.196 -0.3430 -0.0973  0.3223
29578SOL    HW193419   2.993   1.351   6.214  0.6397 -0.0426 -1.8171
29578SOL    HW293420   3.009   1.501   6.200 -0.2062  0.0115 -2.2704
29579SOL     OW93421   6.517   0.041   0.071 -0.6561 -0.2917  0.2605
29579SOL    HW193422   6.576   0.016   0.142 -0.4782  1.1357  0.6483
29579SOL    HW293423   6.540  -0.018  -0.001  1.2096  0.1646  0.4198
29580SOL     OW93424   0.409  11.428   3.869  0.7849 -0.0567 -0.6076
29580SOL    HW193425   0.318  11.433   3.838  1.2657  0.4995 -2.0313
29580SOL    HW293426   0.461  11.423   3.789  2.0311 -0.1361  0.1805
29581SOL     OW93427   8.777   5.814   7.112 -0.7330 -0.0285  0.3710
29581SOL    HW193428   8.864   5.843   7.085 -0.9551  1.1069  0.8212
29581SOL    HW293429   8.792   5.759   7.189 -0.3899 -0.0001  0.3229
29582SOL     OW93430   9.601  10.777   2.116  0.1300  0.0483 -0.1052
29582SOL    HW193431   9.514  10.785   2.076  0.3560 -0.3406 -0.6998
29582SOL    HW293432   9.658  10.753   2.043  0.4334 -1.4226  0.5855
29583SOL     OW93433   9.576   2.404   2.647  0.5061 -0.5823 -0.0502
29583SOL    HW193434   9.625   2.377   2.725 -0.7113 -0.9450  0.6182
29583SOL    HW293435   9.520   2.476   2.678  0.3637 -0.4024 -0.7131
29584SOL     OW93436   2.221   0.769   9.328 -0.1799 -0.4886  0.0096
29584SOL    HW193437   2.136   0.755   9.286  0.1409 -0.9208 -0.5086
29584SOL    HW293438   2.262   0.683   9.328 -1.5802 -1.4476  4.5386
29585SOL     OW93439   4.549   2.159  11.223  0.0994  0.4465  0.2634
29585SOL    HW193440   4.581   2.209  11.148 -0.4549  1.4356  0.6579
29585SOL    HW293441   4.627   2.143  11.276  0.1178  2.1694  0.8399
29586SOL     OW93442  10.098   0.153   5.630  0.7637  0.1109  0.3536
29586SOL    HW193443  10.157   0.169   5.704  1.2168 -2.3956  0.6077
29586SOL    HW293444  10.011   0.171   5.664  1.0386 -0.2154  1.2540
29587SOL     OW93445   5.940   6.230   1.153 -0.0916 -0.5264  0.3462
29587SOL    HW193446   6.023   6.250   1.196  0.1091  1.0803 -0.7191
29587SOL    HW293447   5.962   6.223   1.060 -1.5101  2.8953 -0.4058
29588SOL     OW93448   4.140  11.769   1.284  0.3443  0.7068  0.0119
29588SOL    HW193449   4.075  11.714   1.329 -1.3225  3.2889  0.9728
29588SOL    HW293450   4.208  11.785   1.350 -0.5508  1.9516  0.6837
29589SOL     OW93451  11.870   0.875   0.398  0.6269 -0.3032  0.1137
29589SOL    HW193452  11.859   0.886   0.304  0.4892 -0.2402  0.1367
29589SOL    HW293453  11.896   0.962   0.430 -1.0358  0.1258  0.3774
29590SOL     OW93454   1.333   6.637   4.807  0.1186 -0.6508  0.1461
29590SOL    HW193455   1.314   6.689   4.885  0.2209 -1.8932  1.0228
29590SOL    HW293456   1.366   6.701   4.744 -0.1680  0.4157  1.0345
29591SOL     OW93457   2.086   7.353   0.399  0.1488 -0.3879 -0.3240
29591SOL    HW193458   2.177   7.345   0.428  0.1405  1.7399  0.4564
29591SOL    HW293459   2.073   7.280   0.339  1.8254 -1.7813  0.9199
29592SOL     OW93460   8.120   0.047   6.572  0.4035 -0.3151 -0.1755
29592SOL    HW193461   8.130   0.142   6.565 -2.4559  0.1555  0.7139
29592SOL    HW293462   8.141   0.014   6.485  1.4292  1.1086 -0.5062
29593SOL     OW93463   8.872   6.656   2.129 -0.5450  0.0768  0.3012
29593SOL    HW193464   8.798   6.601   2.105 -0.0056 -0.0468 -1.1690
29593SOL    HW293465   8.939   6.594   2.159 -0.2311 -0.0115 -0.5656
29594SOL     OW93466   6.388   0.998   3.404 -0.0232  0.1318 -0.1954
29594SOL    HW193467   6.308   0.949   3.427 -0.8804  1.9429  0.9069
29594SOL    HW293468   6.444   0.989   3.481 -0.1441  0.7708 -0.0289
29595SOL     OW93469   7.551   6.599   7.381  0.2006  1.2334 -0.6678
29595SOL    HW193470   7.510   6.614   7.295 -1.4219  0.4829 -0.0549
29595SOL    HW293471   7.551   6.685   7.422 -0.6761  1.2678 -0.7235
29596SOL     OW93472   3.137   8.662   3.918  0.2964 -0.2086 -0.4021
29596SOL    HW193473   3.130   8.591   3.853  1.2485  1.0048 -1.9015
29596SOL    HW293474   3.217   8.708   3.894 -0.0165  1.0603  0.8746
29597SOL     OW93475   7.892   4.420  11.577 -0.2206  0.2423  0.5163
29597SOL    HW193476   7.835   4.496  11.574  1.2386  1.3701 -2.3118
29597SOL    HW293477   7.841   4.349  11.539  0.0647  1.1946 -1.8163
29598SOL     OW93478   3.847   1.570   1.339  0.7540  0.2259  0.1862
29598SOL    HW193479   3.877   1.647   1.386  0.6402 -0.3017  1.1645
29598SOL    HW293480   3.809   1.514   1.407  0.9925 -0.7664 -0.4697
29599SOL     OW93481   1.108   7.061   5.981 -0.1553 -0.5509 -0.7716
29599SOL    HW193482   1.072   7.103   5.903 -0.7403 -2.0435 -1.3414
29599SOL    HW293483   1.114   6.969   5.958 -0.2508 -1.0083  0.9200
29600SOL     OW93484   2.372   6.463  10.967 -0.0118 -0.7329  0.4489
29600SOL    HW193485   2.407   6.487  11.053  0.1866  0.0459  0.1674
29600SOL    HW293486   2.438   6.495  10.905 -0.3103 -0.9916 -0.0045
29601SOL     OW93487   5.858  11.929   1.710  0.2424  0.2530  0.3455
29601SOL    HW193488   5.880  12.016   1.743  1.1602 -0.0706  0.6235
29601SOL    HW293489   5.910  11.920   1.629 -1.6958  0.8935 -1.0533
29602SOL     OW93490   1.862   9.226   5.668  0.0119  0.3199  0.1326
29602SOL    HW193491   1.908   9.282   5.730 -1.4923 -0.3026  1.9350
29602SOL    HW293492   1.772   9.260   5.667  0.1833  0.9219 -2.5322
29603SOL     OW93493  11.320   2.622   9.623 -0.3389 -0.9986 -0.4636
29603SOL    HW193494  11.274   2.605   9.541  0.8772 -1.3060 -1.1059
29603SOL    HW293495  11.323   2.538   9.667  0.0369 -1.0925 -0.6610
29604SOL     OW93496   2.536   9.799   6.785  0.1933 -0.9236  0.2409
29604SOL    HW193497   2.630   9.814   6.792  0.0908 -0.5844  0.9137
29604SOL    HW293498   2.505   9.798   6.875 -0.7735  1.0833 -0.0028
29605SOL     OW93499   3.912   9.580  11.937  0.5177 -0.1593  0.2666
29605SOL    HW193500   3.929   9.537  11.854 -0.0591  0.5688 -0.2418
29605SOL    HW293501   3.829   9.542  11.967  1.3233 -1.3018  1.1188
29606SOL     OW93502   1.287   9.055   9.422 -0.2200 -0.0818  0.1932
29606SOL    HW193503   1.241   9.050   9.338 -0.7754 -0.7273  0.5226
29606SOL    HW293504   1.373   9.016   9.404  0.5830  1.9256 -0.6451
29607SOL     OW93505   9.697   4.825  10.636 -0.1035  0.0847 -0.5813
29607SOL    HW193506   9.700   4.844  10.730 -0.8554  0.9823 -0.7258
29607SOL    HW293507   9.630   4.884  10.602  0.7586  0.3692 -1.8308
29608SOL     OW93508   9.118   4.833   0.358 -0.7037 -0.1136 -0.6638
29608SOL    HW193509   9.062   4.825   0.435  0.0452  1.9019  0.1450
29608SOL    HW293510   9.060   4.811   0.284 -1.7809 -0.7764  0.3490
29609SOL     OW93511   5.950   8.922   1.939  0.8579  0.2822  0.1715
29609SOL    HW193512   5.955   8.899   1.846 -2.6573 -1.5562  0.2554
29609SOL    HW293513   5.962   8.840   1.986 -1.2816  0.3821  1.0512
29610SOL     OW93514   5.806   0.147   7.377  0.0316 -0.2220 -0.0511
29610SOL    HW193515   5.853   0.064   7.383  0.4641  0.1398  2.9863
29610SOL    HW293516   5.742   0.143   7.448 -1.9960  0.8811 -1.7142
29611SOL     OW93517   3.672   7.538   2.287 -0.4286  0.2464 -0.4519
29611SOL    HW193518   3.731   7.612   2.273 -2.2478  1.8808 -0.0009
29611SOL    HW293519   3.686   7.482   2.211  2.3507  0.0491  0.1146
29612SOL     OW93520   6.590   0.599   0.290  0.4528 -0.6667  0.3783
29612SOL    HW193521   6.522   0.569   0.230  1.1869 -1.6517  0.0117
29612SOL    HW293522   6.650   0.649   0.235  0.2522 -0.1606  0.6175
29613SOL     OW93523   3.685  11.656   5.396  0.0489  0.7961  0.2799
29613SOL    HW193524   3.690  11.622   5.307 -0.2880 -0.4765  0.7331
29613SOL    HW293525   3.592  11.677   5.408 -0.2908 -1.0034  1.0202
29614SOL     OW93526   7.382  10.009   2.192  0.4316  0.4937 -0.0887
29614SOL    HW193527   7.424  10.029   2.275  2.2067  2.1885 -1.3160
29614SOL    HW293528   7.454   9.994   2.130 -0.7960  0.7424 -1.6582
29615SOL     OW93529   6.256   3.896   0.358  0.3094  0.0747  0.2790
29615SOL    HW193530   6.233   3.879   0.267 -0.6933 -0.8693  0.6883
29615SOL    HW293531   6.251   3.991   0.368  3.8244  0.6087 -1.5080
29616SOL     OW93532   7.649   1.801   5.993 -0.4788 -0.6833  0.1698
29616SOL    HW193533   7.576   1.788   6.054 -0.9611  0.0858 -0.2311
29616SOL    HW293534   7.680   1.712   5.974  0.0686 -0.9219  1.9792
29617SOL     OW93535  10.006   6.058   9.588  0.2358 -0.2914  0.3380
29617SOL    HW193536  10.042   6.060   9.500 -1.7091 -1.1052 -0.5495
29617SOL    HW293537   9.990   6.150   9.610 -0.7713 -0.1604 -0.8593
29618SOL     OW93538  11.116   8.398   5.996 -0.1032 -0.6538  0.4060
29618SOL    HW193539  11.119   8.322   5.937  1.6889  0.8278 -1.5520
29618SOL    HW293540  11.145   8.472   5.942 -0.3906  1.2014  2.6202
29619SOL     OW93541  11.242  11.258   4.804 -0.3602  0.1130 -0.2289
29619SOL    HW193542  11.184  11.207   4.861 -2.8139 -0.4345 -2.9725
29619SOL    HW293543  11.194  11.339   4.788  1.0692  0.9940 -0.1528
29620SOL     OW93544  10.646  11.004   1.431 -0.3714 -0.0355 -0.5723
29620SOL    HW193545  10.603  10.975   1.511  0.0085  1.2277  0.1177
29620SOL    HW293546  10.681  10.923   1.392 -0.2426 -0.6364  0.7286
29621SOL     OW93547   9.918   3.591   1.841  0.4031 -0.2630 -0.0427
29621SOL    HW193548   9.929   3.509   1.792  1.0922 -0.0629 -0.2295
29621SOL    HW293549   9.981   3.586   1.912  0.2100 -0.0448  0.1445
29622SOL     OW93550   9.390   7.924   6.973 -0.0616  0.5571  0.1639
29622SOL    HW193551   9.301   7.902   6.947 -0.3209  0.6026  0.9869
29622SOL    HW293552   9.446   7.873   6.914 -0.6283  0.4580 -0.2905
29623SOL     OW93553   9.313   3.437   1.183  0.5991  0.2912 -0.4043
29623SOL    HW193554   9.319   3.532   1.176 -1.6725  1.1847  4.7858
29623SOL    HW293555   9.390   3.411   1.233 -0.4190  0.0928  1.1650
29624SOL     OW93556   9.631   5.678  10.220  0.2131 -0.6811  0.0487
29624SOL    HW193557   9.629   5.752  10.159  1.4183 -2.0970 -1.8281
29624SOL    HW293558   9.545   5.636  10.209  0.0898 -0.4108 -0.0181
29625SOL     OW93559   0.070   0.929   4.691  0.4208 -0.4476 -0.2210
29625SOL    HW193560   0.127   1.000   4.662 -0.4878  0.5301  0.2926
29625SOL    HW293561   0.103   0.905   4.777 -1.1435  1.5703  1.0235
29626SOL     OW93562   8.249  11.606   9.674  0.2880 -0.2079 -0.0160
29626SOL    HW193563   8.313  11.658   9.626 -1.0239  0.0828 -1.5083
29626SOL    HW293564   8.191  11.570   9.607 -0.8009 -0.9198  1.2478
29627SOL     OW93565   5.196   0.016   5.409  0.4081 -0.1426  0.1966
29627SOL    HW193566   5.229   0.075   5.477  0.3298  0.9220 -0.6609
29627SOL    HW293567   5.168   0.074   5.338 -0.2920 -1.1833 -0.4115
29628SOL     OW93568  11.008   5.596   7.518  0.1540  0.2532 -0.4515
29628SOL    HW193569  10.989   5.502   7.516 -1.8532  0.6054 -1.4233
29628SOL    HW293570  11.037   5.616   7.429  1.5409  0.4027  0.0213
29629SOL     OW93571   1.549   2.798   3.377 -0.4064  0.3840  0.0475
29629SOL    HW193572   1.643   2.780   3.385 -0.2954  0.9732  0.0629
29629SOL    HW293573   1.534   2.804   3.283 -0.4403  0.2583  0.0437
29630SOL     OW93574   7.866   3.496   1.495 -0.1967  0.4825  0.0464
29630SOL    HW193575   7.813   3.574   1.478 -0.4198  0.6198  1.2569
29630SOL    HW293576   7.931   3.495   1.425 -0.5997  1.3972 -0.3515
29631SOL     OW93577   4.912  11.927   3.015  0.4563 -0.8974 -0.6880
29631SOL    HW193578   4.885  11.836   3.024  1.1322 -1.1112 -0.7999
29631SOL    HW293579   4.846  11.976   3.065  0.0987 -1.4430 -0.6150
29632SOL     OW93580   9.707   1.593   9.410 -0.0273 -0.0393  0.9951
29632SOL    HW193581   9.738   1.539   9.482 -0.3139  0.5897  1.5956
29632SOL    HW293582   9.785   1.639   9.379  0.6165 -2.0499 -0.6864
29633SOL     OW93583  10.291   9.379   1.564  0.8117  0.3777 -0.0552
29633SOL    HW193584  10.246   9.414   1.487  0.8396  1.7065  0.4923
29633SOL    HW293585  10.244   9.417   1.638 -0.0722 -1.9530  0.6647
29634SOL     OW93586   7.596   1.629   9.557 -0.0588 -0.4559 -0.2268
29634SOL    HW193587   7.559   1.715   9.535  0.0062 -0.7625 -1.5997
29634SOL    HW293588   7.624   1.638   9.649 -1.6418  0.4158  0.1988
29635SOL     OW93589   2.192   0.285   6.710 -0.6877 -0.1872  0.0094
29635SOL    HW193590   2.245   0.299   6.632 -0.7850 -0.4114 -0.0956
29635SOL    HW293591   2.101   0.288   6.679 -0.7417  0.2724  0.2002
29636SOL     OW93592   1.575   9.845   3.776  0.0192  0.5172 -0.2548
29636SOL    HW193593   1.512   9.904   3.819 -0.2704 -0.1763  0.2887
29636SOL    HW293594   1.532   9.817   3.696 -0.2117  0.3368 -0.0673
29637SOL     OW93595   4.937   0.995   1.014  0.0575  0.0324 -0.4960
29637SOL    HW193596   4.994   0.950   1.076  1.7263  1.0390 -1.2407
29637SOL    HW293597   4.916   0.930   0.947 -0.5941 -0.6498  0.3490
29638SOL     OW93598  11.124   3.808   3.580  0.5457 -0.5284  0.4610
29638SOL    HW193599  11.116   3.751   3.657 -1.0528 -0.2984  0.4999
29638SOL    HW293600  11.148   3.893   3.616 -0.5560 -0.3311  0.7582
29639SOL     OW93601  10.817   6.911   9.773 -0.3993 -0.4314 -0.0833
29639SOL    HW193602  10.819   6.862   9.855  1.1562 -1.3679 -0.6552
29639SOL    HW293603  10.758   6.861   9.717 -1.3652  0.1425  0.3805
29640SOL     OW93604   1.741   9.137   5.296 -0.2191 -0.0653  0.2588
29640SOL    HW193605   1.794   9.169   5.369  1.5888  2.9335 -2.1467
29640SOL    HW293606   1.670   9.200   5.288 -0.5158 -0.4827 -0.4596
29641SOL     OW93607   0.600   7.662   1.991  0.4148  0.4115  0.7707
29641SOL    HW193608   0.524   7.605   1.993 -0.2177  1.1150 -1.0717
29641SOL    HW293609   0.673   7.607   2.020 -0.4820 -0.7830  0.7960
29642SOL     OW93610   1.923   3.841   4.807 -0.4714  0.1810  0.1427
29642SOL    HW193611   1.968   3.878   4.883 -1.4456  0.5317  0.5617
29642SOL    HW293612   1.935   3.907   4.738  0.7545 -0.3167 -0.1498
29643SOL     OW93613   0.445   2.295   5.088  0.1958  0.4237 -0.1777
29643SOL    HW193614   0.385   2.356   5.132 -2.8451 -0.4293 -2.7451
29643SOL    HW293615   0.423   2.210   5.126  0.8675  0.2582 -0.1471
29644SOL     OW93616   4.510   1.633   3.423 -0.5127  0.2220 -0.0224
29644SOL    HW193617   4.446   1.604   3.488 -0.3480  0.4996  0.2649
29644SOL    HW293618   4.547   1.552   3.387  0.8390  0.0351  1.6556
29645SOL     OW93619   5.002   6.246   9.071 -0.3119 -0.3739 -0.4852
29645SOL    HW193620   4.984   6.170   9.015  0.9184 -0.0822 -1.3074
29645SOL    HW293621   5.097   6.250   9.077 -0.3574  1.0386 -0.3738
29646SOL     OW93622   5.515   6.595   3.144 -0.2960  0.1428  0.1567
29646SOL    HW193623   5.572   6.624   3.215  0.4787  0.2975 -0.5010
29646SOL    HW293624   5.560   6.518   3.109 -0.3249  0.4549 -0.5779
29647SOL     OW93625   5.179   6.064   5.219 -0.6305  0.3823 -0.1530
29647SOL    HW193626   5.173   6.067   5.315 -2.1279 -0.3249 -0.1871
29647SOL    HW293627   5.258   6.015   5.201 -0.2551  0.6494  0.7219
29648SOL     OW93628   6.621   3.543   1.825  0.2365 -0.2611  0.2043
29648SOL    HW193629   6.680   3.538   1.750  1.4411 -0.4855  1.1419
29648SOL    HW293630   6.676   3.525   1.901 -0.9043  0.2089  1.1833
29649SOL     OW93631   3.811   6.824   6.680  0.9539  0.5998 -0.0166
29649SOL    HW193632   3.871   6.757   6.648  0.7031  0.1316  0.4972
29649SOL    HW293633   3.795   6.802   6.771  0.2320  0.8958 -0.0616
29650SOL     OW93634   1.642   3.611   8.690 -0.1262 -0.1573 -0.0262
29650SOL    HW193635   1.643   3.663   8.770  0.5668  0.3284 -0.3348
29650SOL    HW293636   1.551   3.613   8.661 -0.2552  0.2071  0.3962
29651SOL     OW93637   1.956   8.701   7.441  0.0514 -0.1627 -0.2259
29651SOL    HW193638   1.951   8.657   7.526 -0.6968  2.2160  1.0463
29651SOL    HW293639   1.924   8.636   7.378 -0.1287 -1.7214  1.4047
29652SOL     OW93640   5.266   1.438   7.069 -0.7885 -0.0769  0.0443
29652SOL    HW193641   5.302   1.364   7.119  0.6360  1.2799  1.1230
29652SOL    HW293642   5.271   1.512   7.129 -2.0237  0.9597 -1.0743
29653SOL     OW93643   4.942   4.307   4.764 -0.0963  0.0872 -0.0362
29653SOL    HW193644   4.927   4.212   4.770  3.7498 -0.6371  0.5761
29653SOL    HW293645   4.934   4.338   4.854  2.0730 -0.3834  0.3694
29654SOL     OW93646   9.558  11.981  11.389  0.0941 -0.3351  0.2609
29654SOL    HW193647   9.593  11.941  11.309  1.4681 -0.7667  1.0568
29654SOL    HW293648   9.631  12.029  11.427 -0.7536  0.5284  0.8682
29655SOL     OW93649   9.438   0.635   1.741 -0.2747  0.2027 -0.0617
29655SOL    HW193650   9.460   0.707   1.681 -0.1602 -0.0918 -0.3779
29655SOL    HW293651   9.468   0.665   1.827  1.4090 -0.1784 -0.4714
29656SOL     OW93652   6.170   3.708   3.444  0.2069 -0.3200 -0.0294
29656SOL    HW193653   6.136   3.788   3.485 -0.3393 -0.6836  0.2311
29656SOL    HW293654   6.106   3.688   3.376  0.7345 -0.1243 -0.5943
29657SOL     OW93655   5.903  10.854   2.039  0.1481 -0.1592  0.1495
29657SOL    HW193656   5.978  10.820   2.087  0.5992  0.5990 -0.0051
29657SOL    HW293657   5.927  10.944   2.018 -0.8729  0.1435  0.2357
29658SOL     OW93658  10.040  10.936   1.626  0.0667 -0.1634  0.5686
29658SOL    HW193659  10.076  10.915   1.540 -1.6139  0.9225 -0.4540
29658SOL    HW293660  10.098  11.004   1.661  1.2818 -1.2398  0.7344
29659SOL     OW93661   3.346   9.484   3.488 -0.0288  0.1520 -0.2827
29659SOL    HW193662   3.273   9.442   3.441  0.0382 -1.2022  0.7484
29659SOL    HW293663   3.424   9.453   3.444  0.0332 -1.1029  0.6435
29660SOL     OW93664   1.507   1.382   1.903  0.1800  0.4477 -0.3713
29660SOL    HW193665   1.458   1.445   1.956 -2.2484 -1.0074 -0.7195
29660SOL    HW293666   1.459   1.300   1.913  2.8433 -1.2500 -0.4479
29661SOL     OW93667   9.917   5.374   0.505 -0.2285 -0.3347 -0.1078
29661SOL    HW193668   9.983   5.388   0.438 -0.0736 -1.9150 -0.3333
29661SOL    HW293669   9.911   5.457   0.552  0.7704  0.3078 -1.0909
29662SOL     OW93670   8.269   3.076  11.976  0.0827  0.0691  0.7319
29662SOL    HW193671   8.282   3.139  12.046  0.5584 -0.7053  1.3589
29662SOL    HW293672   8.284   3.125  11.895  1.7876  0.4375  1.2530
29663SOL     OW93673  11.238   7.692   3.446 -0.4859  0.3613 -0.0729
29663SOL    HW193674  11.272   7.637   3.516  0.3544  0.9656  0.0152
29663SOL    HW293675  11.262   7.648   3.365 -0.0423  0.4694  0.0008
29664SOL     OW93676   7.182   2.432   7.584 -0.2321 -0.7364 -0.0426
29664SOL    HW193677   7.115   2.397   7.525 -1.1745  0.1904  0.4590
29664SOL    HW293678   7.224   2.354   7.621 -1.4246 -1.3422  0.0722
29665SOL     OW93679   7.160   0.753   6.773  0.2763  0.2190 -0.5783
29665SOL    HW193680   7.077   0.713   6.796 -0.0443  1.9244  1.4737
29665SOL    HW293681   7.143   0.799   6.691 -0.6496  0.1773 -0.4103
29666SOL     OW93682   5.856   3.349  10.994 -0.1896 -0.2284 -0.4212
29666SOL    HW193683   5.826   3.337  10.904  0.1447 -0.0917 -0.5543
29666SOL    HW293684   5.852   3.444  11.008 -1.0535 -0.3173 -0.0007
29667SOL     OW93685   4.429   8.333   8.382  0.1338 -0.0109 -0.4031
29667SOL    HW193686   4.480   8.412   8.400  1.1154 -0.3077 -1.7393
29667SOL    HW293687   4.382   8.316   8.464 -1.1812  2.7102 -0.4767
29668SOL     OW93688   5.663   5.644  11.547  0.4593 -0.0731 -0.2964
29668SOL    HW193689   5.703   5.561  11.575 -1.6705 -1.0795 -0.0792
29668SOL    HW293690   5.717   5.672  11.473  1.2064 -1.6765 -0.4200
29669SOL     OW93691   6.941   0.117   6.068 -0.2722  0.6663 -0.5035
29669SOL    HW193692   6.994   0.191   6.097 -1.4114  1.1458  0.4573
29669SOL    HW293693   6.886   0.152   5.999  0.5153  0.2124 -1.3826
29670SOL     OW93694   4.356   5.914   2.918 -0.2048  0.0359  0.0965
29670SOL    HW193695   4.384   5.833   2.961 -0.1004 -0.0776 -0.1827
29670SOL    HW293696   4.420   5.928   2.848  0.2815  0.8207  0.6801
29671SOL     OW93697   5.950   0.566   0.740 -0.4261  0.6427 -0.0104
29671SOL    HW193698   5.873   0.621   0.728 -1.4963 -0.5319  1.1590
29671SOL    HW293699   5.928   0.482   0.700 -0.2056 -0.0431  1.2214
29672SOL     OW93700  11.300   3.492   9.258 -0.5716 -0.4145  0.2933
29672SOL    HW193701  11.386   3.509   9.297 -0.4685 -0.1506 -0.0428
29672SOL    HW293702  11.308   3.525   9.169 -1.1612 -0.0037  0.3918
29673SOL     OW93703  10.217   8.822   8.722 -0.7367 -0.3704 -0.0174
29673SOL    HW193704  10.193   8.883   8.792 -2.1764  0.0048 -0.7929
29673SOL    HW293705  10.313   8.821   8.723 -0.6950 -0.7244  2.2292
29674SOL     OW93706   0.557   7.523   9.167 -0.9847  0.4847 -0.5230
29674SOL    HW193707   0.600   7.438   9.163 -0.1805  0.6248  2.8150
29674SOL    HW293708   0.627   7.585   9.185 -2.1039  1.1224  2.0870
29675SOL     OW93709   8.401   8.611   2.872  0.5977  0.0908  0.5267
29675SOL    HW193710   8.335   8.567   2.926 -0.9374 -0.9039 -1.9960
29675SOL    HW293711   8.374   8.703   2.871 -2.3466 -0.6030 -2.3121
29676SOL     OW93712   6.083   5.306   0.176 -0.5650  0.4376  0.0819
29676SOL    HW193713   6.010   5.245   0.174  0.2963 -0.6381  0.6369
29676SOL    HW293714   6.161   5.251   0.181  0.2482  1.5713  0.3497
29677SOL     OW93715   0.398   8.158  10.220 -0.3840 -0.0278  0.5887
29677SOL    HW193716   0.463   8.209  10.171  1.9868 -0.3853  3.1089
29677SOL    HW293717   0.352   8.222  10.274 -0.3256 -0.0674  0.6866
29678SOL     OW93718   4.886   8.588   1.609 -0.5475 -0.1295  0.0478
29678SOL    HW193719   4.908   8.504   1.650 -1.2933 -0.4268 -0.1463
29678SOL    HW293720   4.881   8.568   1.516  2.4842  0.8245 -0.4198
29679SOL     OW93721   8.563   4.452   0.869 -0.0138 -0.1858 -0.0531
29679SOL    HW193722   8.604   4.404   0.797 -2.8407 -0.2760 -1.7607
29679SOL    HW293723   8.531   4.384   0.928  0.6859 -0.1616  0.3729
29680SOL     OW93724   9.590   0.391   0.332  0.1256 -0.5115 -0.1458
29680SOL    HW193725   9.629   0.304   0.343  2.7093  0.4921 -0.7369
29680SOL    HW293726   9.655   0.441   0.283 -0.7766  2.1265  1.1504
29681SOL     OW93727   9.143   8.802   3.870 -0.0365 -0.2296  0.5829
29681SOL    HW193728   9.197   8.726   3.850 -1.2740 -0.5354 -1.9644
29681SOL    HW293729   9.199   8.877   3.850  0.0641 -0.5209 -0.2491
29682SOL     OW93730   5.848   5.966   8.582 -0.6592 -0.5030 -0.5142
29682SOL    HW193731   5.940   5.982   8.563 -0.6103 -0.2614 -0.0764
29682SOL    HW293732   5.806   5.962   8.496 -0.3825  0.2109 -0.6883
29683SOL     OW93733   8.066  11.994   2.819  0.4900 -0.1028  0.1943
29683SOL    HW193734   8.098  12.025   2.904 -0.4012 -0.6460  0.7509
29683SOL    HW293735   7.990  11.940   2.841 -1.6458  2.1692 -1.1366
29684SOL     OW93736   3.008   0.940   0.999  0.0696 -0.0892 -0.2617
29684SOL    HW193737   2.978   0.970   0.914 -1.9056 -0.2142  0.3320
29684SOL    HW293738   2.986   0.847   1.001 -0.8048  0.1178  0.7275
29685SOL     OW93739   3.112  10.342  11.535  0.0120  0.3658  0.1703
29685SOL    HW193740   3.152  10.268  11.488  1.4505  2.0716 -1.4610
29685SOL    HW293741   3.031  10.307  11.570  2.4294 -3.1492  3.0036
29686SOL     OW93742   4.654   1.766   8.544 -0.1515 -0.7128 -0.0204
29686SOL    HW193743   4.651   1.740   8.451 -0.1014 -0.8658  0.0192
29686SOL    HW293744   4.625   1.687   8.591 -0.9014 -0.3985  0.0526
29687SOL     OW93745   7.175  10.502   3.254 -0.6888  0.2675 -0.2081
29687SOL    HW193746   7.244  10.568   3.264  0.3629 -0.5623 -1.7263
29687SOL    HW293747   7.142  10.515   3.165 -2.1533  0.2969  0.3095
29688SOL     OW93748   9.862  10.052   3.401 -0.5101  0.3098 -0.3435
29688SOL    HW193749   9.871  10.108   3.478 -0.0842  0.2354 -0.3382
29688SOL    HW293750   9.880   9.964   3.433 -1.7774  0.0736 -0.2224
29689SOL     OW93751   1.654   9.363   1.475 -0.5748  0.0763  0.0807
29689SOL    HW193752   1.657   9.281   1.426  2.8687 -1.9335  3.0636
29689SOL    HW293753   1.598   9.344   1.550  0.2366  0.3833  0.7872
29690SOL     OW93754   8.946   0.753   1.707 -0.3975 -0.9534 -0.1030
29690SOL    HW193755   8.997   0.701   1.768  1.3660  1.2283  0.3988
29690SOL    HW293756   8.896   0.813   1.762  0.8316  0.6995 -0.6962
29691SOL     OW93757  10.026   9.262   9.911  0.4554  0.4998  0.1664
29691SOL    HW193758  10.066   9.283   9.995  2.1028  0.7882 -0.6251
29691SOL    HW293759  10.022   9.346   9.865  1.6868  0.0307 -0.8583
29692SOL     OW93760   8.927   1.987   8.614 -0.2141  0.4609 -0.4301
29692SOL    HW193761   8.863   1.946   8.672  0.7632 -1.6102 -0.7145
29692SOL    HW293762   8.898   1.961   8.526 -0.1603  1.2856 -0.6938
29693SOL     OW93763   4.047   6.177  10.091 -0.4901 -0.3311  0.1800
29693SOL    HW193764   4.009   6.166  10.178 -1.5192 -0.6984 -0.3087
29693SOL    HW293765   3.974   6.204  10.036  0.1782  0.0003 -0.5520
29694SOL     OW93766  10.873   4.570   5.647 -0.5985  0.5982 -0.1464
29694SOL    HW193767  10.838   4.655   5.619 -1.9162  0.3198  0.5872
29694SOL    HW293768  10.830   4.506   5.590 -2.8139  0.0833  1.9435
29695SOL     OW93769   7.490   4.558  11.635  0.4968  0.0338 -0.2815
29695SOL    HW193770   7.446   4.492  11.583  0.2130  0.2375 -0.3054
29695SOL    HW293771   7.447   4.640  11.611  0.1363  0.0898  0.5056
29696SOL     OW93772   8.509   5.972   3.773  0.2290  0.1616 -0.0208
29696SOL    HW193773   8.538   5.947   3.685  0.6848  0.0433  0.1628
29696SOL    HW293774   8.471   5.892   3.809  0.9345 -0.0456  0.2576
29697SOL     OW93775   0.834   4.042   2.141  0.3006  0.0678 -0.3737
29697SOL    HW193776   0.805   3.976   2.204  1.8882  0.7029  1.0958
29697SOL    HW293777   0.867   4.114   2.195 -0.4985  1.7003 -1.9411
29698SOL     OW93778   9.253  11.169   7.345 -0.6073 -0.3094  0.1094
29698SOL    HW193779   9.275  11.076   7.354 -1.1360 -0.6739 -1.9057
29698SOL    HW293780   9.335  11.215   7.361 -0.6019 -1.0033  2.3875
29699SOL     OW93781   5.835   8.443   4.799  0.0295 -0.2825 -0.5902
29699SOL    HW193782   5.805   8.363   4.756  0.4326  0.3672 -2.1726
29699SOL    HW293783   5.923   8.457   4.763 -0.1406  0.9997 -0.5339
29700SOL     OW93784   9.195   7.420   0.470 -0.1289  0.1165  0.1175
29700SOL    HW193785   9.124   7.365   0.437 -0.1740  0.7939 -0.9755
29700SOL    HW293786   9.230   7.372   0.544  1.2069 -2.4250 -2.0095
29701SOL     OW93787   7.005   6.920   1.384  0.0438  0.0791 -0.4792
29701SOL    HW193788   6.995   6.877   1.299 -0.0070 -0.5988 -0.1332
29701SOL    HW293789   6.921   6.907   1.428  0.5139 -0.7278  0.1999
29702SOL     OW93790  11.901   6.857   1.715  0.2112 -0.5726 -0.1309
29702SOL    HW193791  11.878   6.777   1.763 -1.3103 -0.3654 -0.4725
29702SOL    HW293792  11.958   6.905   1.775 -3.0035  0.5310  2.3149
29703SOL     OW93793   8.746   9.275   2.222 -0.4483 -0.1434  0.1089
29703SOL    HW193794   8.674   9.238   2.272 -1.3781 -0.2798 -1.2760
29703SOL    HW293795   8.709   9.353   2.181  0.7545  0.8849  0.9089
29704SOL     OW93796   9.810   2.657   7.826  0.1961 -0.0416 -0.0464
29704SOL    HW193797   9.869   2.713   7.877  0.0045  0.8019 -0.7207
29704SOL    HW293798   9.830   2.568   7.854 -0.5373  0.4374  2.1764
29705SOL     OW93799   1.895   4.275  11.412 -0.5998 -0.1347 -0.1823
29705SOL    HW193800   1.830   4.321  11.360 -0.4255 -0.9287 -1.1209
29705SOL    HW293801   1.978   4.317  11.390 -0.6233  0.0435  0.0581
29706SOL     OW93802   4.721   3.785   5.655  0.1864  0.4794 -0.1239
29706SOL    HW193803   4.673   3.829   5.726 -0.4317 -1.9122  1.0348
29706SOL    HW293804   4.671   3.705   5.638  1.2344  0.1951 -2.1625
29707SOL     OW93805   8.174   6.506   5.162  0.0031  0.6568 -0.0625
29707SOL    HW193806   8.113   6.507   5.088 -2.5482  1.0734  1.9010
29707SOL    HW293807   8.120   6.532   5.237  2.4642  0.2297  1.9617
29708SOL     OW93808   2.366   4.231   5.396 -0.9429  0.0855  0.2747
29708SOL    HW193809   2.374   4.236   5.300 -0.2848 -2.0698  0.1638
29708SOL    HW293810   2.290   4.286   5.416 -2.6492 -1.3271 -1.7775
29709SOL     OW93811   8.274  10.554   1.977 -0.5771 -0.5176 -0.2670
29709SOL    HW193812   8.345  10.509   2.022  0.6037  0.2248 -1.2998
29709SOL    HW293813   8.254  10.629   2.033  2.2094  1.5211 -1.7042
29710SOL     OW93814   7.737  10.186   3.857 -0.2113 -0.0108  1.0967
29710SOL    HW193815   7.643  10.206   3.854 -0.2500 -0.2406 -0.9404
29710SOL    HW293816   7.742  10.099   3.896 -0.7308  0.3996  2.1362
29711SOL     OW93817   3.090   0.459   1.791  0.1575 -0.9432  0.0335
29711SOL    HW193818   3.101   0.441   1.885 -3.8074  0.9528  1.0819
29711SOL    HW293819   3.109   0.553   1.783  0.9003 -1.1789 -1.2176
29712SOL     OW93820   4.110   5.504   4.656 -0.1252  0.3607  0.6680
29712SOL    HW193821   4.191   5.503   4.604 -0.9362 -0.7515 -0.6342
29712SOL    HW293822   4.068   5.587   4.632  0.9219  1.2804  1.8806
29713SOL     OW93823   4.566   1.787   6.496 -0.2852 -0.4236 -0.0769
29713SOL    HW193824   4.630   1.847   6.535 -1.5110  0.5941  0.4517
29713SOL    HW293825   4.561   1.813   6.404 -0.9388  0.4295  0.1885
29714SOL     OW93826   5.485   4.129   5.340  0.1774 -0.1470 -0.4690
29714SOL    HW193827   5.556   4.069   5.317  1.3766  1.2088 -0.4679
29714SOL    HW293828   5.418   4.116   5.273  0.1341 -1.8993 -0.1123
29715SOL     OW93829   6.283  10.112  11.910 -0.2294  1.0007 -0.1730
29715SOL    HW193830   6.372  10.100  11.879  0.2522  1.0776  1.1147
29715SOL    HW293831   6.247  10.023  11.916  0.5876  0.7369  1.5551
29716SOL     OW93832   4.992   5.684   9.399  0.0160  0.4710  0.0184
29716SOL    HW193833   4.959   5.604   9.439  1.3762  0.9103  2.1607
29716SOL    HW293834   4.920   5.715   9.343 -1.0557 -1.4663  0.2609
29717SOL     OW93835   7.633   3.707   8.775 -0.4461  0.3309  0.0816
29717SOL    HW193836   7.673   3.776   8.723 -0.3059 -0.2076 -0.5522
29717SOL    HW293837   7.621   3.745   8.862  0.3982  0.8712 -0.0267
29718SOL     OW93838   7.308   2.875   4.904 -0.3990  0.0690  0.0300
29718SOL    HW193839   7.315   2.879   4.809 -0.4258  0.7689  0.0563
29718SOL    HW293840   7.277   2.786   4.922  0.3315 -0.3251 -0.5694
29719SOL     OW93841  11.450   5.576   2.527 -0.1418 -0.0278  0.3707
29719SOL    HW193842  11.451   5.589   2.621 -1.8905 -1.6624  0.6719
29719SOL    HW293843  11.494   5.492   2.514  0.7126  0.5124 -0.3606
29720SOL     OW93844   9.942   4.632   1.963  0.2322  0.0042 -0.2214
29720SOL    HW193845   9.872   4.580   1.924 -1.4807  1.6479  0.5070
29720SOL    HW293846   9.972   4.689   1.892  0.6674 -0.5098 -0.4587
29721SOL     OW93847   0.166   0.371  11.245 -0.0373  0.0015 -0.1943
29721SOL    HW193848   0.136   0.364  11.155 -0.9573  1.4275 -0.0351
29721SOL    HW293849   0.256   0.404  11.238  0.4067 -1.2432 -0.5967
29722SOL     OW93850   6.766   9.857  10.346  0.0447 -0.1353  0.3171
29722SOL    HW193851   6.767   9.818  10.433  0.3781  0.2338  0.4838
29722SOL    HW293852   6.733   9.946  10.359  1.8200  0.5728  0.3737
29723SOL     OW93853   7.980   3.060   0.435 -0.3773  0.2123 -0.2440
29723SOL    HW193854   7.995   3.070   0.529  0.9891 -0.2780 -0.3911
29723SOL    HW293855   7.979   3.150   0.401 -0.9351  0.3922  0.2338
29724SOL     OW93856  10.099   0.616   1.798 -0.0828 -0.5432 -0.4480
29724SOL    HW193857  10.063   0.687   1.852  1.6058 -0.4524  0.6596
29724SOL    HW293858  10.188   0.645   1.777  0.4994 -2.1189 -0.3231
29725SOL     OW93859  11.492   2.547   1.821  0.0608  0.3307  0.4341
29725SOL    HW193860  11.415   2.494   1.841 -0.9097  1.7377  0.5762
29725SOL    HW293861  11.566   2.495   1.853 -0.8715 -0.7378  0.9348
29726SOL     OW93862  11.816   7.744   2.154  0.1625 -0.4524  0.5410
29726SOL    HW193863  11.901   7.785   2.139  0.5241 -1.6168 -0.8028
29726SOL    HW293864  11.826   7.696   2.237  0.9077 -0.7960  0.2563
29727SOL     OW93865   0.505   5.846   6.589  0.4470  0.2168 -1.1673
29727SOL    HW193866   0.579   5.896   6.623  0.1686 -0.0425 -0.1534
29727SOL    HW293867   0.525   5.755   6.611 -1.3375  0.3521  1.4917
29728SOL     OW93868   9.922  11.367   1.634  0.3560 -0.3219 -0.2396
29728SOL    HW193869   9.997  11.337   1.686 -1.0519  1.7130  3.3788
29728SOL    HW293870   9.955  11.443   1.587  0.4589  1.3720  2.3457
29729SOL     OW93871  10.971   7.285  10.926 -0.5990  0.2268  0.5160
29729SOL    HW193872  10.925   7.207  10.956 -2.5289  1.0025 -0.2400
29729SOL    HW293873  11.060   7.275  10.960 -1.2280 -1.4893  1.8235
29730SOL     OW93874   5.417   9.982   2.095  0.2876  0.3875 -0.0711
29730SOL    HW193875   5.443   9.895   2.127  0.9607  0.3407 -0.7144
29730SOL    HW293876   5.405  10.034   2.174 -1.8209 -0.7232  0.4265
29731SOL     OW93877   7.734   8.871   3.661 -0.1621 -0.7850  0.1037
29731SOL    HW193878   7.653   8.849   3.707 -0.1052 -0.1685  0.5032
29731SOL    HW293879   7.802   8.866   3.728 -0.3504  2.1464  0.6312
29732SOL     OW93880   5.437   4.981   0.271 -0.3560  0.6279  0.1479
29732SOL    HW193881   5.448   5.036   0.348 -2.0137 -0.0935  0.9472
29732SOL    HW293882   5.447   5.042   0.197 -3.1998  2.3453  0.9977
29733SOL     OW93883  10.532   5.892  10.906  0.2198  0.4925 -0.2950
29733SOL    HW193884  10.445   5.890  10.945  0.4242  1.6029  0.2769
29733SOL    HW293885  10.565   5.980  10.926  1.6853 -0.0865 -0.0079
29734SOL     OW93886  10.006   9.500   3.709 -0.0162 -0.0888  0.0377
29734SOL    HW193887   9.931   9.442   3.697  0.3604 -0.8377  1.2651
29734SOL    HW293888   9.973   9.587   3.683 -1.3011 -0.4087  0.5621
29735SOL     OW93889   0.211   4.090   9.514 -0.1924 -0.3653 -0.1699
29735SOL    HW193890   0.166   4.027   9.458 -1.9047  0.2935  0.4053
29735SOL    HW293891   0.286   4.118   9.462  0.3005 -2.4183 -0.6711
29736SOL     OW93892   3.052   4.251  10.528 -0.0757 -0.9654  0.3090
29736SOL    HW193893   3.039   4.162  10.560 -0.6840 -0.7693  0.6239
29736SOL    HW293894   2.975   4.270  10.476 -0.5750 -0.1715  1.2966
29737SOL     OW93895   3.273   6.624   2.015  0.3487  0.6331 -0.1619
29737SOL    HW193896   3.272   6.647   2.108  1.0593 -0.6466  0.1889
29737SOL    HW293897   3.190   6.577   2.001  0.8294 -0.3188  0.1461
29738SOL     OW93898   1.092   9.281  11.000  0.6828  0.2260 -0.1529
29738SOL    HW193899   1.051   9.362  11.030  0.7430  0.9763 -1.9566
29738SOL    HW293900   1.182   9.286  11.032  0.1252 -0.1926  1.5911
29739SOL     OW93901   7.158   4.408   9.689 -0.3085 -0.1814  0.2494
29739SOL    HW193902   7.248   4.379   9.703  0.2112  1.2589  0.0928
29739SOL    HW293903   7.132   4.447   9.773  0.8412  3.4064 -0.8882
29740SOL     OW93904   6.562   3.943   6.010 -0.0033 -0.0907  0.3803
29740SOL    HW193905   6.496   3.932   5.941  0.4674 -1.6304  0.1261
29740SOL    HW293906   6.512   3.950   6.091 -0.5152 -0.1835  0.0762
29741SOL     OW93907   1.646  11.670   9.345  0.3311 -0.1165  0.3127
29741SOL    HW193908   1.609  11.662   9.433  1.1063 -0.2121  0.6454
29741SOL    HW293909   1.685  11.758   9.344 -1.1260  0.5584 -0.5276
29742SOL     OW93910   4.913   6.294   6.008 -0.5579 -0.6052  0.9878
29742SOL    HW193911   4.943   6.203   6.001 -1.8237 -0.9149 -1.5977
29742SOL    HW293912   4.824   6.293   5.973 -0.2585  1.7772 -0.0555
29743SOL     OW93913   8.513   9.297   2.640  0.4421  0.4855  0.0269
29743SOL    HW193914   8.577   9.357   2.678  0.3426 -0.2542  1.4269
29743SOL    HW293915   8.553   9.269   2.557  0.7238  2.0468 -0.3893
29744SOL     OW93916   3.605   0.475   5.882 -0.2322  0.5240  0.5270
29744SOL    HW193917   3.570   0.539   5.821  1.1633 -0.3481 -1.2828
29744SOL    HW293918   3.527   0.436   5.922 -1.2511  0.6141 -1.2465
29745SOL     OW93919   5.157  10.871   9.414 -0.2509  0.2525  0.2297
29745SOL    HW193920   5.075  10.822   9.421 -0.9026  0.0668 -4.8032
29745SOL    HW293921   5.218  10.824   9.471 -2.3233 -2.9286  0.0957
29746SOL     OW93922   0.244   9.964   9.354 -0.6143 -0.0585 -0.3778
29746SOL    HW193923   0.260  10.015   9.434  0.9464 -0.9251 -0.0814
29746SOL    HW293924   0.323   9.910   9.345 -0.9176 -0.2220 -2.3356
29747SOL     OW93925   2.546   4.831   3.878 -0.4204  0.1179 -0.0938
29747SOL    HW193926   2.469   4.872   3.917 -1.1317 -1.5133  0.3083
29747SOL    HW293927   2.617   4.850   3.939 -1.2024 -1.1101  1.2532
29748SOL     OW93928   0.230   7.032   9.145 -0.0437  0.5390  0.6022
29748SOL    HW193929   0.314   7.054   9.105 -1.0634 -0.2553 -2.2229
29748SOL    HW293930   0.185   7.115   9.155 -1.4277  0.6574 -4.1883
29749SOL     OW93931   0.826   9.350  10.483 -0.2588  0.6663 -0.4786
29749SOL    HW193932   0.812   9.299  10.562 -1.7086 -0.4835 -1.4307
29749SOL    HW293933   0.866   9.432  10.514 -0.8169  0.2650  1.4163
29750SOL     OW93934   0.081  11.851   9.109 -0.6207  0.2110  0.1998
29750SOL    HW193935   0.160  11.810   9.145  0.4604  1.0949 -1.0470
29750SOL    HW293936   0.009  11.796   9.139  0.5505 -1.1376  0.6517
29751SOL     OW93937   6.309   4.970   7.183  0.1933  0.3621 -0.1852
29751SOL    HW193938   6.246   4.986   7.253 -0.1404  1.2054 -0.6576
29751SOL    HW293939   6.301   4.876   7.165 -0.9521  0.4454 -0.2351
29752SOL     OW93940   1.085  10.762   2.876  0.1880 -0.3452  0.2508
29752SOL    HW193941   1.014  10.786   2.816  0.5312  0.4578  0.1577
29752SOL    HW293942   1.156  10.733   2.818  0.8585  1.3293  0.2027
29753SOL     OW93943   3.762   9.274   4.952 -0.5397  0.0039  0.2783
29753SOL    HW193944   3.692   9.336   4.972 -0.0088  0.3518  1.1229
29753SOL    HW293945   3.724   9.188   4.967 -1.3203  0.0937 -1.0120
29754SOL     OW93946   5.795   8.538   0.613 -0.5390  0.0087 -0.0550
29754SOL    HW193947   5.868   8.528   0.674  0.2681 -0.1960 -1.0230
29754SOL    HW293948   5.834   8.580   0.536 -1.5873  0.4984 -0.3369
29755SOL     OW93949   9.596   6.662   8.821 -0.3306 -0.1158  1.0399
29755SOL    HW193950   9.600   6.578   8.866 -0.1942 -0.9391 -0.4461
29755SOL    HW293951   9.677   6.706   8.847 -0.4052 -0.4317  1.8365
29756SOL     OW93952   9.462   6.472   8.406 -0.1660  0.1909  0.7138
29756SOL    HW193953   9.530   6.449   8.342 -0.0438  0.5916  0.6935
29756SOL    HW293954   9.509   6.478   8.489  0.1701  2.0953  0.4415
29757SOL     OW93955   2.941   3.711  11.679  0.8378  0.1946  0.6668
29757SOL    HW193956   2.951   3.786  11.621  1.1307  0.6156  1.2504
29757SOL    HW293957   3.015   3.717  11.740  0.8529 -0.5555  0.7322
29758SOL     OW93958  10.725   9.086   3.873  0.4369 -0.4268  0.3704
29758SOL    HW193959  10.761   9.057   3.957 -2.0316  1.1055  2.0904
29758SOL    HW293960  10.780   9.161   3.848 -1.3626  1.9609  3.0057
29759SOL     OW93961   1.009   0.379   5.592  0.0235  0.4470 -0.2652
29759SOL    HW193962   0.988   0.335   5.674  1.1154  0.1905 -0.1070
29759SOL    HW293963   0.954   0.336   5.527 -0.6675  0.4814  0.2819
29760SOL     OW93964   5.208   4.447   0.082  0.4745  0.8539 -0.6874
29760SOL    HW193965   5.225   4.532   0.042  1.8520  1.0046  0.1449
29760SOL    HW293966   5.115   4.430   0.065  0.3067  2.2704 -1.3126
29761SOL     OW93967   3.409   1.908   4.106  0.2985  0.6974  0.4498
29761SOL    HW193968   3.499   1.938   4.123  0.1770  1.7671 -0.6684
29761SOL    HW293969   3.419   1.839   4.041  0.2298  2.1364 -1.1742
29762SOL     OW93970   9.555   7.501   2.436  0.0052  0.5993  0.1971
29762SOL    HW193971   9.559   7.423   2.491 -1.3488 -0.0904 -0.6345
29762SOL    HW293972   9.473   7.544   2.459 -0.1330  0.7960 -0.6111
29763SOL     OW93973   8.747  10.311   3.448 -0.4402 -0.0592 -0.7626
29763SOL    HW193974   8.834  10.317   3.408  0.2927  0.2206  0.7971
29763SOL    HW293975   8.736  10.217   3.466 -0.3927 -0.0719 -0.7984
29764SOL     OW93976   4.669  11.100   2.565  0.3716 -0.1685 -0.1113
29764SOL    HW193977   4.604  11.097   2.634  0.4508 -0.5239 -0.0482
29764SOL    HW293978   4.752  11.117   2.610  0.3397  0.1615 -0.1780
29765SOL     OW93979   3.707   0.539   9.981  0.0310 -0.5777 -0.2391
29765SOL    HW193980   3.772   0.558  10.048 -0.6452 -0.3919  0.3781
29765SOL    HW293981   3.732   0.594   9.906 -1.0845  1.7948  1.0231
29766SOL     OW93982  10.964   3.861   7.446  0.2311  0.2109 -0.3584
29766SOL    HW193983  10.990   3.887   7.535  0.5903 -1.3502  0.0147
29766SOL    HW293984  10.944   3.944   7.402 -0.0722  1.0106  1.2086
29767SOL     OW93985   4.197  10.585   7.790 -0.0610 -0.6223  0.4055
29767SOL    HW193986   4.176  10.675   7.763 -0.7787 -0.5429  1.1791
29767SOL    HW293987   4.288  10.574   7.765 -0.4831 -0.3327 -1.4018
29768SOL     OW93988   3.233   2.217   4.315  0.1094 -0.1369  0.1900
29768SOL    HW193989   3.230   2.268   4.234 -0.8293 -0.3831  0.0655
29768SOL    HW293990   3.326   2.198   4.327  0.2658 -0.0529 -0.7948
29769SOL     OW93991   9.859   9.571  11.041 -0.5647  0.4232  0.3883
29769SOL    HW193992   9.848   9.618  11.124 -2.0534  1.9881 -0.6246
29769SOL    HW293993   9.924   9.623  10.993  1.3176 -1.2166  1.0196
29770SOL     OW93994  10.790   4.762   8.754 -0.1181 -0.4434  0.0615
29770SOL    HW193995  10.798   4.680   8.706  0.5254 -1.2011  1.4061
29770SOL    HW293996  10.880   4.786   8.776  0.2012  2.7286 -3.5602
29771SOL     OW93997   7.220   4.879   7.402  0.1257  0.0282  0.7077
29771SOL    HW193998   7.228   4.842   7.490 -0.9038 -1.0340  0.3768
29771SOL    HW293999   7.132   4.855   7.374  0.8813 -0.7816 -1.1230
29772SOL     OW94000   9.426  11.181   5.606  0.7269  0.0739  0.6507
29772SOL    HW194001   9.402  11.147   5.520  0.2097 -0.7691  1.1180
29772SOL    HW294002   9.440  11.275   5.591  0.4218 -0.0208 -0.3038
29773SOL     OW94003  10.016   0.419   6.820  0.1486 -0.2286 -0.1614
29773SOL    HW194004   9.938   0.379   6.782  1.1985 -0.8162 -1.8574
29773SOL    HW294005  10.043   0.359   6.889 -0.9384  0.0361  0.5116
29774SOL     OW94006   5.617  11.077   3.134 -0.4017 -0.0576  0.5851
29774SOL    HW194007   5.608  11.168   3.105  0.5588 -0.1773 -0.1510
29774SOL    HW294008   5.710  11.057   3.121 -0.3652 -0.7952  1.8043
29775SOL     OW94009   3.592   4.559  11.195  0.4670 -0.1502  0.3513
29775SOL    HW194010   3.543   4.485  11.232  1.4286 -0.0061  1.9982
29775SOL    HW294011   3.626   4.606  11.271  0.9142  1.2949 -0.7008
29776SOL     OW94012   9.515   1.171   0.777  0.2945  0.1511 -0.2272
29776SOL    HW194013   9.500   1.078   0.788  2.6261 -0.2686 -0.1027
29776SOL    HW294014   9.463   1.212   0.846  2.4514 -1.3761  2.4727
29777SOL     OW94015   7.738  11.530  10.906 -0.6356 -0.2252  0.0497
29777SOL    HW194016   7.710  11.608  10.955  1.1187  0.4537  0.0391
29777SOL    HW294017   7.664  11.469  10.914 -1.3027  0.7257  1.6274
29778SOL     OW94018  11.128   5.264   9.493 -0.4857  0.2313 -0.1615
29778SOL    HW194019  11.192   5.200   9.526 -0.5668 -0.8149 -1.8881
29778SOL    HW294020  11.179   5.345   9.484  0.2168 -0.1873 -0.0859
29779SOL     OW94021   1.685   2.650   9.594 -0.2826 -0.2870  0.1222
29779SOL    HW194022   1.771   2.618   9.568 -0.1633 -1.8803  2.2474
29779SOL    HW294023   1.678   2.736   9.552  2.4859  0.0572  0.1858
29780SOL     OW94024   7.510   1.212   1.600 -0.3739  0.2856 -0.1476
29780SOL    HW194025   7.491   1.213   1.506 -0.7714 -4.3166 -0.3245
29780SOL    HW294026   7.424   1.215   1.641 -0.5130 -1.7631 -0.1911
29781SOL     OW94027   8.410   2.802   5.830  0.3536 -0.5022 -0.4012
29781SOL    HW194028   8.384   2.730   5.773  0.9197 -1.4715  0.5307
29781SOL    HW294029   8.343   2.870   5.815  0.0273 -1.0572 -1.5726
29782SOL     OW94030   6.740   8.077   3.099 -0.1414  0.1293 -0.0234
29782SOL    HW194031   6.671   8.113   3.155 -1.0323 -2.2697  0.5455
29782SOL    HW294032   6.715   7.986   3.086  1.8957 -0.2882 -1.4927
29783SOL     OW94033  10.312  11.026   2.849  0.6510  0.2350 -0.1045
29783SOL    HW194034  10.315  11.046   2.942  0.3628 -1.3487  0.2742
29783SOL    HW294035  10.219  11.031   2.826  0.8172  1.6803 -0.5877
29784SOL     OW94036   8.566   3.399   1.531  0.2058 -0.0790  0.0942
29784SOL    HW194037   8.556   3.304   1.523 -0.9777  0.1278 -1.4976
29784SOL    HW294038   8.618   3.424   1.455 -1.5999  0.7702 -0.9456
29785SOL     OW94039   9.792   2.113   5.286  0.1392  0.4993 -0.4188
29785SOL    HW194040   9.819   2.062   5.362  0.7316 -0.1413 -1.0448
29785SOL    HW294041   9.722   2.062   5.246 -0.5005  1.0696 -0.0434
29786SOL     OW94042  10.683   4.614   6.375  0.0363 -0.1822  0.2222
29786SOL    HW194043  10.664   4.632   6.283 -1.4057  0.3535  0.6141
29786SOL    HW294044  10.773   4.581   6.374 -0.2139 -0.9381 -1.4698
29787SOL     OW94045   9.059   6.265  11.486  0.0869  0.4078  0.4050
29787SOL    HW194046   8.995   6.292  11.552 -0.2633  0.5549  0.0061
29787SOL    HW294047   9.057   6.335  11.421 -0.0695 -0.0791 -0.1178
29788SOL     OW94048   3.417   7.378   5.196 -0.3933 -0.5863  0.2816
29788SOL    HW194049   3.496   7.427   5.175  0.3384 -1.4806  0.9014
29788SOL    HW294050   3.359   7.392   5.121 -1.0433  2.8460  1.2500
29789SOL     OW94051   2.997   4.781   7.515 -0.0391  0.3571  0.2780
29789SOL    HW194052   3.014   4.729   7.594 -0.6738 -1.5887 -0.8022
29789SOL    HW294053   3.083   4.813   7.489  0.2917  0.3396  1.2915
29790SOL     OW94054   4.727   9.638  11.928  0.4615  0.4815  0.3966
29790SOL    HW194055   4.812   9.600  11.904 -0.1312 -0.6178 -0.0014
29790SOL    HW294056   4.690   9.668  11.845  0.2069  0.4325  0.4935
29791SOL     OW94057  11.028   8.814   3.417 -0.7724 -0.3441  0.2429
29791SOL    HW194058  11.080   8.785   3.342  0.3086  0.3527  0.6926
29791SOL    HW294059  11.005   8.734   3.464 -1.2124 -0.7595 -0.6664
29792SOL     OW94060  10.456   2.189  10.799  0.3587  0.0047 -0.1715
29792SOL    HW194061  10.390   2.247  10.836 -0.1685  0.1259 -1.2851
29792SOL    HW294062  10.495   2.145  10.875 -1.2418 -0.3411  0.4801
29793SOL     OW94063  10.511   4.100   7.829  0.5180 -0.5024  0.2304
29793SOL    HW194064  10.527   4.082   7.922  1.1667  0.2035  0.2670
29793SOL    HW294065  10.420   4.075   7.816  0.6477 -1.3919  0.8561
29794SOL     OW94066   0.643   7.400   3.395 -0.3353 -0.1131 -0.2221
29794SOL    HW194067   0.696   7.332   3.437 -1.0786 -1.0655 -0.7832
29794SOL    HW294068   0.554   7.383   3.427 -0.3321  1.4328  0.6796
29795SOL     OW94069   3.845   8.726   6.711  0.2853  0.2258 -0.2309
29795SOL    HW194070   3.765   8.717   6.659 -0.2009  0.4285  0.4636
29795SOL    HW294071   3.877   8.814   6.691 -0.1192  0.4551  0.1012
29796SOL     OW94072   6.131   5.968   9.699 -0.3620 -0.1016  0.1515
29796SOL    HW194073   6.112   5.889   9.748  0.3428 -0.5209 -0.2318
29796SOL    HW294074   6.197   5.942   9.635 -0.3997  0.7042 -0.2403
29797SOL     OW94075   6.924   7.975   2.083  0.4917 -0.4682 -0.4180
29797SOL    HW194076   6.989   8.013   2.024  1.0576 -0.9859 -0.1375
29797SOL    HW294077   6.965   7.896   2.116  0.1391 -0.2415  0.5986
29798SOL     OW94078   7.035   0.446   4.512 -0.7484 -0.0976  0.3721
29798SOL    HW194079   7.017   0.352   4.507  1.5020 -0.6873  1.9906
29798SOL    HW294080   7.091   0.457   4.588  1.7746  2.0865 -1.5676
29799SOL     OW94081   4.111   8.909  10.664  0.1735  0.1118 -0.6089
29799SOL    HW194082   4.138   8.828  10.707 -0.1346 -1.1849 -2.6971
29799SOL    HW294083   4.106   8.973  10.735  2.6834 -1.0876  0.7979
29800SOL     OW94084  10.198   6.164   0.353 -0.3089 -0.4041 -0.0117
29800SOL    HW194085  10.278   6.213   0.335  0.4157 -0.2712  3.0227
29800SOL    HW294086  10.146   6.173   0.273  1.4971  1.8917 -1.0566
29801SOL     OW94087   9.218   0.130   6.221  0.0041 -0.1115 -0.1709
29801SOL    HW194088   9.180   0.164   6.140 -0.6279  1.2395  0.6488
29801SOL    HW294089   9.311   0.118   6.201 -0.4117 -1.3614 -1.5534
29802SOL     OW94090   7.620  11.997   9.479  0.7896 -0.0198  0.0947
29802SOL    HW194091   7.589  12.087   9.475 -0.3284 -0.2264  2.2144
29802SOL    HW294092   7.585  11.964   9.562  1.4761 -2.2926 -0.4480
29803SOL     OW94093   7.784   2.963  11.469  0.2044 -0.6160 -0.7790
29803SOL    HW194094   7.704   3.006  11.439 -0.5193 -0.7147  0.8963
29803SOL    HW294095   7.816   3.019  11.540  0.1623 -1.9097  0.3166
29804SOL     OW94096  11.533   9.519   3.316  0.1522  0.8748 -0.4371
29804SOL    HW194097  11.459   9.548   3.370 -1.5905 -0.9637 -1.6749
29804SOL    HW294098  11.506   9.536   3.226  1.6502  0.9939 -0.8954
29805SOL     OW94099   1.931   0.481  11.547  0.4379  0.1101  0.3067
29805SOL    HW194100   1.899   0.537  11.617  0.1550  0.1351  0.1610
29805SOL    HW294101   1.981   0.412  11.591 -0.6302 -0.4861  0.6159
29806SOL     OW94102   3.068   2.296   1.667  0.0355 -0.6082 -0.8678
29806SOL    HW194103   3.063   2.225   1.731 -1.3229 -1.6297 -2.0220
29806SOL    HW294104   3.000   2.357   1.694 -0.7405 -1.1845 -1.4510
29807SOL     OW94105   9.924   6.401   6.682  0.1521  0.0551 -0.4655
29807SOL    HW194106   9.860   6.336   6.655  1.1039 -1.0436 -0.1708
29807SOL    HW294107  10.004   6.377   6.636  0.5809  0.9076 -0.1929
29808SOL     OW94108   0.521  10.598   3.772 -0.7282  0.0292  0.0468
29808SOL    HW194109   0.449  10.545   3.736 -1.2096  2.1578 -2.4190
29808SOL    HW294110   0.480  10.649   3.842 -1.2913  0.1188 -0.3348
29809SOL     OW94111   7.509   1.132   2.731  0.1810  0.1585  0.1366
29809SOL    HW194112   7.550   1.217   2.747  0.2184  0.2846 -0.5898
29809SOL    HW294113   7.542   1.076   2.801 -0.7949  1.0520  1.3578
29810SOL     OW94114   0.449  10.960   6.764  0.2615 -0.4190  0.4424
29810SOL    HW194115   0.488  11.033   6.717  1.5657 -1.1405  0.3461
29810SOL    HW294116   0.498  10.956   6.846  0.7128 -1.6012  0.1398
29811SOL     OW94117   8.255   8.611   8.743  0.3244  0.1092 -0.2594
29811SOL    HW194118   8.186   8.650   8.689 -0.5648  0.2820  0.9726
29811SOL    HW294119   8.208   8.557   8.807  1.2581  0.8238  1.0784
29812SOL     OW94120   3.099   0.224   3.070 -0.2876  0.8031  0.8006
29812SOL    HW194121   3.149   0.257   3.144 -0.5137  1.3054  0.7380
29812SOL    HW294122   3.091   0.130   3.085  0.4865  0.7541  0.9184
29813SOL     OW94123   1.394  10.682   8.664  0.8931  0.4104 -0.0293
29813SOL    HW194124   1.324  10.746   8.650  0.5741  0.2460  0.7408
29813SOL    HW294125   1.357  10.621   8.728  1.0307 -0.7801 -1.0361
29814SOL     OW94126   4.230   5.918   4.698 -0.2103  0.0388  0.2961
29814SOL    HW194127   4.308   5.869   4.672 -0.3699  0.0790 -0.2724
29814SOL    HW294128   4.156   5.864   4.668 -0.3840  0.9896 -1.0676
29815SOL     OW94129  10.085  10.747   3.709  0.0121  0.0672  0.2076
29815SOL    HW194130  10.027  10.777   3.639  0.0644  0.8316  0.4843
29815SOL    HW294131  10.026  10.708   3.774 -0.0964 -0.0726  0.0253
29816SOL     OW94132   2.033   3.081   2.078 -0.1668  0.2002 -0.4920
29816SOL    HW194133   2.104   3.142   2.060 -0.4893  0.2133 -1.8060
29816SOL    HW294134   1.988   3.118   2.154  0.2643  1.0440 -0.6359
29817SOL     OW94135   1.284   4.329   0.950 -0.0609  0.3624  0.4072
29817SOL    HW194136   1.237   4.287   0.879  0.3012  0.5385  0.0595
29817SOL    HW294137   1.215   4.362   1.009 -0.3369 -0.9897  0.8612
29818SOL     OW94138   4.504   2.363  10.073 -0.0775 -0.0235 -0.0420
29818SOL    HW194139   4.585   2.395  10.033  0.1152  2.0107  1.7561
29818SOL    HW294140   4.519   2.270  10.090  1.2022 -0.0638 -1.2813
29819SOL     OW94141  11.244   8.103   2.795  0.1254  0.5979 -0.7455
29819SOL    HW194142  11.322   8.048   2.803  0.3968  1.1130  0.3481
29819SOL    HW294143  11.274   8.182   2.751 -0.5782 -0.6686 -3.7472
29820SOL     OW94144   1.556   6.088   3.809  0.4158 -0.0886  0.2243
29820SOL    HW194145   1.648   6.104   3.829  1.0233 -1.1165 -1.5735
29820SOL    HW294146   1.542   6.130   3.725 -0.3581 -1.1612 -0.2059
29821SOL     OW94147   1.893   9.165   7.755 -0.0159  0.1608 -0.2143
29821SOL    HW194148   1.980   9.126   7.747 -0.5879 -1.0305 -0.9162
29821SOL    HW294149   1.833   9.094   7.733 -1.1476  1.1346 -0.3592
29822SOL     OW94150   0.706   9.094   5.649 -0.1230 -0.2411 -0.4699
29822SOL    HW194151   0.656   9.162   5.605 -0.6570 -0.4437 -0.1800
29822SOL    HW294152   0.793   9.097   5.608  0.1487  1.2246  0.1591
29823SOL     OW94153   2.546   2.207   3.583  0.0069  0.2465 -0.5297
29823SOL    HW194154   2.496   2.125   3.579  2.1738 -1.1938 -0.1722
29823SOL    HW294155   2.496   2.263   3.642 -2.2338 -0.2860 -1.8304
29824SOL     OW94156   2.735   3.036   4.834  0.5778 -0.3084  0.4120
29824SOL    HW194157   2.640   3.032   4.822  0.6096  0.6298 -0.2459
29824SOL    HW294158   2.770   3.007   4.750  0.8636  0.1372  0.3748
29825SOL     OW94159   3.832   5.182  10.932 -0.3715  0.5143 -0.4626
29825SOL    HW194160   3.779   5.106  10.907  0.8838 -1.0234  1.2496
29825SOL    HW294161   3.777   5.230  10.994  0.0277 -0.9326  1.1096
29826SOL     OW94162   5.644   8.880   3.046  0.7091  0.4910 -0.2755
29826SOL    HW194163   5.569   8.835   3.085  0.3691  0.0761 -1.3724
29826SOL    HW294164   5.697   8.908   3.121  1.0514 -1.9467  0.4850
29827SOL     OW94165  10.352   4.092  10.662 -0.3701  0.1953 -0.3578
29827SOL    HW194166  10.425   4.146  10.692 -1.2202  0.5637  1.1027
29827SOL    HW294167  10.367   4.083  10.567  0.7673  1.4643 -0.3304
29828SOL     OW94168   0.810  10.380   5.924  0.3198  0.2027  0.0184
29828SOL    HW194169   0.715  10.363   5.920  0.5622 -1.1133 -2.0179
29828SOL    HW294170   0.839  10.332   6.001 -0.7195  0.9907  0.9343
29829SOL     OW94171   3.771   2.926  11.462 -0.1198  0.1326 -0.6775
29829SOL    HW194172   3.711   2.853  11.450 -0.3247  0.3189 -0.8133
29829SOL    HW294173   3.858   2.888  11.454 -0.1756 -0.4027  0.9640
29830SOL     OW94174   0.256  10.873   2.690 -0.2759 -0.4231  0.8968
29830SOL    HW194175   0.195  10.851   2.619  2.4066 -2.0982 -1.0876
29830SOL    HW294176   0.260  10.794   2.743 -0.1873 -0.1488  1.3000
29831SOL     OW94177  10.901   7.634   6.437  0.2542 -0.0843 -0.3507
29831SOL    HW194178  10.838   7.686   6.387 -2.3615 -0.7753  1.9463
29831SOL    HW294179  10.926   7.691   6.510 -1.0116 -1.1838  1.0189
29832SOL     OW94180   7.249   3.017   4.178 -0.1348  0.3858 -0.2467
29832SOL    HW194181   7.218   3.063   4.256  1.1403  1.1756 -0.1713
29832SOL    HW294182   7.170   2.993   4.131 -0.9045  0.5024  0.9450
29833SOL     OW94183   2.797   4.984   0.920  0.1628  0.1158 -0.9117
29833SOL    HW194184   2.781   4.951   1.009  0.6211  0.6125 -0.6397
29833SOL    HW294185   2.751   4.922   0.863  0.0774 -0.3540 -0.3449
29834SOL     OW94186   3.093   4.187   4.032 -0.8633 -0.1587 -0.4283
29834SOL    HW194187   3.061   4.106   4.072  0.2921 -0.1205  0.6435
29834SOL    HW294188   3.169   4.160   3.981  0.2350  0.3708  0.8639
29835SOL     OW94189   7.235  10.802   1.803  0.7273 -0.6175 -0.1363
29835SOL    HW194190   7.158  10.857   1.790  0.0604 -1.0545  1.6788
29835SOL    HW294191   7.214  10.719   1.760 -0.0995 -0.9496  0.8710
29836SOL     OW94192   7.695  10.491  10.089 -0.2040 -0.2488  0.4872
29836SOL    HW194193   7.729  10.539  10.014 -0.3576 -1.2083 -0.2212
29836SOL    HW294194   7.652  10.558  10.143  0.3269  0.5248 -0.0272
29837SOL     OW94195   3.003   4.635   7.735 -0.8807 -0.5737 -0.4318
29837SOL    HW194196   3.067   4.581   7.782 -0.3256  0.0196 -0.5014
29837SOL    HW294197   2.956   4.682   7.804 -1.5980 -1.3757 -0.3481
29838SOL     OW94198   1.881   7.374   0.595 -0.1653 -0.4220 -0.8404
29838SOL    HW194199   1.962   7.355   0.548  0.6906  0.2748  0.3033
29838SOL    HW294200   1.871   7.301   0.656 -1.1708 -1.2239 -1.9194
29839SOL     OW94201   7.444   1.198   0.545  0.0248 -0.3284  0.3381
29839SOL    HW194202   7.538   1.188   0.561  0.4545  0.3501 -1.5574
29839SOL    HW294203   7.411   1.244   0.622  1.0638 -1.3334  1.4236
29840SOL     OW94204  11.954  11.299   4.522 -0.1170  0.8596  0.3527
29840SOL    HW194205  11.931  11.261   4.607  1.6122 -0.6070  0.2315
29840SOL    HW294206  11.915  11.239   4.458 -0.6759  1.4788  0.1003
29841SOL     OW94207   4.784   9.274   4.509  0.1073 -0.1938 -0.1378
29841SOL    HW194208   4.788   9.191   4.555  0.1610  0.1731  0.5321
29841SOL    HW294209   4.835   9.260   4.429  2.2279 -0.1064  1.1104
29842SOL     OW94210   6.077   8.293  10.374  0.1119 -0.4128 -0.5008
29842SOL    HW194211   6.003   8.330  10.423 -1.0628 -1.4894 -1.3921
29842SOL    HW294212   6.091   8.354  10.302  0.1143 -0.2001 -0.3223
29843SOL     OW94213   9.972   3.014   0.759  0.0130 -0.2667 -0.7355
29843SOL    HW194214   9.962   3.081   0.692  1.5474  1.8395  1.0278
29843SOL    HW294215   9.944   3.056   0.840  1.2276 -1.6538  0.4694
29844SOL     OW94216  11.610   2.851   3.441  0.4181 -0.4474 -1.4844
29844SOL    HW194217  11.541   2.785   3.431  0.1287 -0.1575 -1.4249
29844SOL    HW294218  11.692   2.802   3.432  0.2627 -1.1363  0.3231
29845SOL     OW94219   7.791   9.499   3.610  0.0196 -0.3950 -0.1105
29845SOL    HW194220   7.766   9.537   3.695  0.6133  0.1428 -0.1698
29845SOL    HW294221   7.749   9.413   3.609 -1.3198  0.2403  0.0381
29846SOL     OW94222   9.811   3.736   5.929 -0.1745  0.0083 -0.2676
29846SOL    HW194223   9.779   3.647   5.919 -0.3567 -0.0553  0.7374
29846SOL    HW294224   9.840   3.741   6.020  0.5405  0.7507 -0.5236
29847SOL     OW94225  10.813   7.482   0.039  0.3998 -1.2606  0.4518
29847SOL    HW194226  10.762   7.553   0.079 -2.6954 -2.7637 -0.4793
29847SOL    HW294227  10.872   7.525  -0.022 -0.8510  0.5736  0.4764
29848SOL     OW94228   8.838  10.714   0.939  0.0198  0.5786  0.4532
29848SOL    HW194229   8.744  10.732   0.934 -0.0648 -0.1517 -1.1156
29848SOL    HW294230   8.878  10.798   0.962 -0.6289  2.1366 -3.4387
29849SOL     OW94231  11.470   1.057   0.442  0.2647 -0.8253  0.1544
29849SOL    HW194232  11.476   1.116   0.518  3.5764  1.1998 -1.4191
29849SOL    HW294233  11.405   1.098   0.385 -1.9943 -2.1772  1.6325
29850SOL     OW94234   1.849  11.818   3.130  0.4881 -0.6865 -0.3862
29850SOL    HW194235   1.825  11.743   3.077 -1.4675 -1.5208  1.5384
29850SOL    HW294236   1.778  11.881   3.116  0.3533 -0.6035  0.6219
29851SOL     OW94237   0.105   7.372   1.248  0.0679 -0.1157 -0.1647
29851SOL    HW194238   0.126   7.289   1.293  1.2608 -0.5914 -1.5313
29851SOL    HW294239   0.013   7.388   1.269 -0.4847 -2.3223 -0.6849
29852SOL     OW94240   8.557   0.891   2.579 -0.0717  0.4234  0.1173
29852SOL    HW194241   8.582   0.846   2.499 -1.0389 -0.3452  0.2365
29852SOL    HW294242   8.539   0.981   2.552  0.4011  0.3724 -0.3786
29853SOL     OW94243   4.636   5.444   6.810  0.5375  0.3085  0.4409
29853SOL    HW194244   4.599   5.511   6.752  1.5767  1.2405  0.8254
29853SOL    HW294245   4.716   5.416   6.765  0.4876 -0.1600  0.6383
29854SOL     OW94246  10.169   5.137   8.366  0.0753  0.7223  0.3297
29854SOL    HW194247  10.239   5.082   8.400 -0.9021  0.7624  2.5639
29854SOL    HW294248  10.155   5.106   8.276  0.3353 -1.8841  1.1158
29855SOL     OW94249   2.959  10.582   6.979 -0.0169  0.2362 -0.0662
29855SOL    HW194250   2.977  10.632   6.899  1.2628  1.9836  1.2606
29855SOL    HW294251   2.966  10.646   7.050 -0.3641 -1.4227  1.5284
29856SOL     OW94252   4.962   2.585   7.700 -0.0074 -0.2191  0.6052
29856SOL    HW194253   4.966   2.510   7.641  0.9245 -1.5791  2.3164
29856SOL    HW294254   4.868   2.600   7.714 -0.2145 -1.8293  1.1163
29857SOL     OW94255   2.033   9.301   7.496  0.3926  0.8031 -0.2444
29857SOL    HW194256   1.962   9.293   7.432 -0.2662 -0.7266  0.6198
29857SOL    HW294257   1.991   9.287   7.581  1.3106  2.4507  0.5245
29858SOL     OW94258  10.165   2.976   7.330  0.5372  0.4207  0.5942
29858SOL    HW194259  10.106   3.052   7.323  1.7352  1.4601  1.2431
29858SOL    HW294260  10.107   2.902   7.347 -0.7783  0.9574 -1.3200
29859SOL     OW94261   5.606   3.933   6.351  0.1219  0.3240 -0.2809
29859SOL    HW194262   5.622   3.934   6.257  0.6911  1.5527 -0.1811
29859SOL    HW294263   5.520   3.973   6.362  0.4367  0.9829 -0.2123
29860SOL     OW94264   7.702  10.609   9.455 -0.6179 -0.0333  0.2256
29860SOL    HW194265   7.760  10.532   9.456 -3.1413 -2.1834 -1.7497
29860SOL    HW294266   7.685  10.624   9.362 -4.4896 -0.7300  0.6239
29861SOL     OW94267  11.652   3.567   2.153  0.1105 -0.4354  0.0027
29861SOL    HW194268  11.618   3.627   2.087 -0.0674  0.4851  0.9186
29861SOL    HW294269  11.709   3.508   2.104  1.6731  1.5394 -0.6679
29862SOL     OW94270  11.118   0.525   9.658  0.5253  0.2069 -0.4510
29862SOL    HW194271  11.055   0.596   9.654 -1.6366 -1.6719 -1.6326
29862SOL    HW294272  11.183   0.555   9.722  0.1813  3.5342 -1.4707
29863SOL     OW94273   2.712   5.968  10.148  0.2505 -0.3764  0.0289
29863SOL    HW194274   2.645   5.989  10.213  0.5140  0.9205 -0.0931
29863SOL    HW294275   2.671   5.902  10.092  0.1619 -1.7972  1.7094
29864SOL     OW94276   8.489   0.919   0.922  0.0811  0.4536 -0.0021
29864SOL    HW194277   8.557   0.943   0.985 -0.5206  2.1387  0.0684
29864SOL    HW294278   8.513   0.964   0.842 -1.4202  1.9287  0.3053
29865SOL     OW94279   0.706  11.368   9.693 -0.9302 -0.2219  0.1713
29865SOL    HW194280   0.676  11.280   9.674  0.9627 -0.9417  0.2469
29865SOL    HW294281   0.679  11.420   9.617 -2.4519 -0.7389  0.3364
29866SOL     OW94282  10.871   8.778   2.816  0.4206 -0.1744  0.4227
29866SOL    HW194283  10.918   8.696   2.801 -4.1412 -2.9664 -0.5828
29866SOL    HW294284  10.856   8.814   2.729  0.4436  0.5102  0.6962
29867SOL     OW94285  10.122   7.604   8.622 -0.3485  0.0309  0.0069
29867SOL    HW194286  10.113   7.670   8.553  1.0975 -0.0170 -0.2543
29867SOL    HW294287  10.089   7.523   8.583 -1.6383  0.4565  0.1555
29868SOL     OW94288   3.814  11.921   9.633  0.3182 -0.0735  0.0387
29868SOL    HW194289   3.765  11.959   9.705 -0.7363  2.3639 -1.8276
29868SOL    HW294290   3.768  11.839   9.614  0.5657 -0.7233  1.9917
29869SOL     OW94291   4.481   6.107   5.038 -0.5270  0.0817  0.5474
29869SOL    HW194292   4.533   6.029   5.051 -0.5647  0.0022  0.2374
29869SOL    HW294293   4.391   6.076   5.033 -0.4014 -0.1164 -1.5457
29870SOL     OW94294   2.155   0.149  10.911  0.0500  0.0909  0.2768
29870SOL    HW194295   2.206   0.090  10.966 -0.4624 -0.9430 -0.3161
29870SOL    HW294296   2.066   0.112  10.912  0.0609 -0.0532 -1.3436
29871SOL     OW94297   2.333   4.484   8.281  0.1545 -0.0463 -0.0482
29871SOL    HW194298   2.266   4.546   8.310 -0.4042 -0.3531 -0.6665
29871SOL    HW294299   2.407   4.538   8.255  0.4926  0.2656  1.4714
29872SOL     OW94300   9.056   8.207  11.049  0.3900 -0.4236  0.3827
29872SOL    HW194301   9.114   8.202  10.973 -0.7586 -0.8531 -0.4847
29872SOL    HW294302   9.102   8.157  11.117 -0.0837 -3.0111 -1.0672
29873SOL     OW94303   3.247   6.309   6.799  0.2454  0.2523  0.6410
29873SOL    HW194304   3.300   6.347   6.870 -0.7387  1.9862  0.4921
29873SOL    HW294305   3.180   6.258   6.844 -0.9181  2.0581  1.0679
29874SOL     OW94306   9.455  10.603   6.584 -0.3046  0.0002  0.3760
29874SOL    HW194307   9.386  10.668   6.597  0.1990  0.3395  1.4090
29874SOL    HW294308   9.506  10.604   6.665  2.2115  1.3057 -1.0881
29875SOL     OW94309   2.101   4.887   3.654 -0.3541  0.3889 -0.3292
29875SOL    HW194310   2.009   4.884   3.629 -0.0443 -0.7579 -1.4773
29875SOL    HW294311   2.104   4.847   3.741 -1.1308  2.0234  0.4861
29876SOL     OW94312   4.318   7.662  11.125 -0.1210 -0.0720  0.4071
29876SOL    HW194313   4.263   7.739  11.113  1.1817  0.9984  1.0815
29876SOL    HW294314   4.389   7.692  11.182  0.1497 -1.8998  1.0856
29877SOL     OW94315  11.686   5.751   0.193 -0.9308  0.1246  0.6846
29877SOL    HW194316  11.766   5.764   0.142 -2.4868  3.2094 -1.3108
29877SOL    HW294317  11.712   5.772   0.283  0.7089 -0.0271  0.2806
29878SOL     OW94318  11.618   3.279   5.377 -0.0480  0.8261 -0.5466
29878SOL    HW194319  11.639   3.186   5.381  1.3906  1.0573 -1.7478
29878SOL    HW294320  11.525   3.284   5.398 -0.4849 -1.0299 -1.7772
29879SOL     OW94321   7.480   9.015   4.958  0.5280  0.7560  0.1405
29879SOL    HW194322   7.387   9.036   4.968  0.6853  1.9379 -0.6034
29879SOL    HW294323   7.517   9.023   5.046 -0.4157 -1.6708  0.8117
29880SOL     OW94324  11.698  10.559   1.572 -0.4447 -0.4502  0.2943
29880SOL    HW194325  11.668  10.525   1.657 -0.6665  2.9645  1.7538
29880SOL    HW294326  11.665  10.496   1.508 -0.2933 -3.1644  2.6867
29881SOL     OW94327   9.730   5.061   1.462  0.1807  0.8092  0.4948
29881SOL    HW194328   9.805   5.015   1.499  0.0487 -1.3261 -1.6505
29881SOL    HW294329   9.672   5.076   1.537  1.3278 -0.4054  1.6709
29882SOL     OW94330   9.645   6.155   7.190  0.3348 -0.5153 -0.1961
29882SOL    HW194331   9.659   6.203   7.272  0.3704 -0.5110 -0.2043
29882SOL    HW294332   9.561   6.187   7.157  0.6914  0.0803 -0.5676
29883SOL     OW94333   5.495   5.215   2.204  0.1719 -0.0591  0.3091
29883SOL    HW194334   5.408   5.178   2.193 -0.0543  0.7213 -0.5992
29883SOL    HW294335   5.490   5.264   2.286 -0.7768  1.3993 -0.5810
29884SOL     OW94336   2.944   3.045   1.163 -0.4649 -0.3063 -0.1237
29884SOL    HW194337   3.009   2.980   1.137 -0.5740 -0.6237  0.3774
29884SOL    HW294338   2.924   3.093   1.083  0.1798 -0.3866 -0.3396
29885SOL     OW94339   8.087   1.458   4.388 -0.1975 -0.2602  0.0575
29885SOL    HW194340   8.008   1.462   4.334 -0.5424 -1.0301  0.4827
29885SOL    HW294341   8.081   1.534   4.445  0.3113  0.7227 -1.1534
29886SOL     OW94342   1.840  10.739   0.557  0.0549 -0.1402 -0.2625
29886SOL    HW194343   1.878  10.660   0.596  0.9896  0.2380 -0.3816
29886SOL    HW294344   1.762  10.709   0.511  0.8650 -1.1370 -1.0211
29887SOL     OW94345   4.994  10.934   6.737 -0.4604 -0.0094 -0.2191
29887SOL    HW194346   5.049  10.920   6.660 -1.5075 -0.8213 -0.8412
29887SOL    HW294347   4.944  10.853   6.746 -0.0291 -0.1202  1.6073
29888SOL     OW94348   9.254   9.361   2.029 -0.9248  0.1452  0.1279
29888SOL    HW194349   9.230   9.414   2.105 -0.7609 -0.3237  0.5125
29888SOL    HW294350   9.332   9.404   1.993 -2.4608  1.9202 -1.3669
29889SOL     OW94351  10.150  11.679   1.777  0.2230  0.0344  0.1610
29889SOL    HW194352  10.174  11.710   1.864 -2.1836  1.9725  0.2466
29889SOL    HW294353  10.158  11.756   1.720 -2.0936 -0.0753 -0.4409
29890SOL     OW94354   9.904   0.807   5.438 -0.0464  0.0511 -0.0787
29890SOL    HW194355   9.847   0.864   5.490  0.8670  1.0387 -0.1514
29890SOL    HW294356   9.857   0.723   5.436 -1.2203  0.6767  0.3448
29891SOL     OW94357  11.820  10.763  11.087  0.1330 -0.4334 -0.3770
29891SOL    HW194358  11.760  10.837  11.096 -0.1026 -0.7149  0.4868
29891SOL    HW294359  11.881  10.773  11.161  0.2832 -0.9357 -0.4290
29892SOL     OW94360   1.274   4.982   8.753 -0.0020  0.6878  0.0420
29892SOL    HW194361   1.271   5.073   8.722 -2.4391  1.0878  1.1927
29892SOL    HW294362   1.319   4.987   8.837  2.0673  0.3833 -0.9852
29893SOL     OW94363   9.267   5.392   7.587  0.4193 -0.0303 -0.6005
29893SOL    HW194364   9.309   5.430   7.510  0.6311 -2.3014 -1.6902
29893SOL    HW294365   9.240   5.305   7.559 -1.9410  0.0620  1.1205
29894SOL     OW94366  10.343   9.817   7.438 -0.1043 -0.1320  0.3311
29894SOL    HW194367  10.378   9.755   7.375 -0.7274 -1.9873  1.6993
29894SOL    HW294368  10.320   9.763   7.514  0.1653  1.9123  1.9608
29895SOL     OW94369   3.754   4.946  10.813 -0.5614 -0.3475 -0.2359
29895SOL    HW194370   3.821   4.899  10.863 -0.3084  0.0079 -0.2315
29895SOL    HW294371   3.780   4.936  10.722 -0.2259  0.1952 -0.2056
29896SOL     OW94372   0.823   2.735   7.132  0.5940  0.3095  0.0958
29896SOL    HW194373   0.787   2.815   7.092 -0.3616 -0.8748 -1.5034
29896SOL    HW294374   0.759   2.667   7.113  2.0845 -1.1729  0.1463
29897SOL     OW94375   0.836   1.637   7.207 -0.3524 -0.6226  0.5127
29897SOL    HW194376   0.909   1.575   7.207 -0.6104 -0.9273  0.8008
29897SOL    HW294377   0.762   1.588   7.242 -0.3369  0.1070  1.6312
29898SOL     OW94378   3.069  11.969   6.051  0.0676  0.0035  0.1062
29898SOL    HW194379   3.121  12.031   6.103  0.5406  0.5306 -0.9665
29898SOL    HW294380   2.991  12.018   6.027 -0.8204 -0.6903  1.4584
29899SOL     OW94381   1.059   9.052   3.589 -0.8604 -0.0345 -0.0154
29899SOL    HW194382   1.052   8.987   3.520 -1.5184 -0.3516  0.3464
29899SOL    HW294383   1.134   9.106   3.564 -1.9385  0.7606 -1.7448
29900SOL     OW94384   8.917   6.958   0.865  0.2397 -0.6537 -0.2512
29900SOL    HW194385   8.829   6.996   0.862  1.0291  1.2986 -0.2619
29900SOL    HW294386   8.948   6.963   0.774  1.2488  1.0256  0.1373
29901SOL     OW94387  11.294   9.412   5.508 -0.2395 -0.3316 -0.2462
29901SOL    HW194388  11.341   9.338   5.543 -0.8201 -1.2584 -1.3431
29901SOL    HW294389  11.296   9.400   5.413 -1.7640  0.1413 -0.3841
29902SOL     OW94390   6.595   2.812   5.069  0.3713  0.8446  0.2342
29902SOL    HW194391   6.596   2.894   5.119 -1.1349  0.4746  0.9515
29902SOL    HW294392   6.663   2.758   5.111 -1.9638 -0.1098  3.2087
29903SOL     OW94393  11.110   9.906   6.408 -0.1830 -1.1962  0.2500
29903SOL    HW194394  11.025   9.946   6.390 -0.6072 -1.4453  1.5971
29903SOL    HW294395  11.165   9.978   6.439  0.0763 -1.0640 -0.4836
29904SOL     OW94396   9.203   1.730   6.953 -0.3231  0.0019 -0.4179
29904SOL    HW194397   9.242   1.705   6.869 -0.1065  0.7593 -0.5475
29904SOL    HW294398   9.161   1.650   6.984 -0.8763 -0.1487 -1.5040
29905SOL     OW94399   0.574   4.399   1.612 -0.2394  0.4808 -0.2496
29905SOL    HW194400   0.519   4.378   1.688 -1.1248  0.5783 -0.8490
29905SOL    HW294401   0.614   4.483   1.633  0.3606  0.0027  0.5611
29906SOL     OW94402   3.743   1.981   2.001  0.3635  0.1182 -0.0119
29906SOL    HW194403   3.753   2.029   2.083 -2.2581  1.9638 -0.6208
29906SOL    HW294404   3.649   1.986   1.983  0.8416 -0.2835 -3.0673
29907SOL     OW94405   2.184   4.889   9.195 -0.5401  0.4275  0.0906
29907SOL    HW194406   2.260   4.913   9.142 -0.9848  2.0811  0.1513
29907SOL    HW294407   2.154   4.806   9.157  1.1244 -0.1280 -0.0887
29908SOL     OW94408   2.139   5.470  10.009 -0.2850 -0.0991 -0.2279
29908SOL    HW194409   2.233   5.481   9.991 -0.1515 -0.2124  0.3650
29908SOL    HW294410   2.112   5.554  10.048 -0.2796 -0.2831  0.1834
29909SOL     OW94411   8.637   5.574   2.623  0.4425  0.0247  0.0330
29909SOL    HW194412   8.589   5.521   2.559 -0.9666  0.7390  0.4503
29909SOL    HW294413   8.630   5.664   2.589 -0.0112  0.3616  0.9909
29910SOL     OW94414   1.942   3.098   0.246  0.3626  0.2777  0.1058
29910SOL    HW194415   1.910   3.031   0.185  1.5919  0.0579 -0.3183
29910SOL    HW294416   1.933   3.180   0.196  0.3645  0.2318  0.0289
29911SOL     OW94417  10.697   4.509   2.998 -0.0385 -0.1199  0.6160
29911SOL    HW194418  10.761   4.485   3.064  0.6149 -0.2428 -0.0423
29911SOL    HW294419  10.706   4.441   2.931  0.9536  1.2302 -0.6897
29912SOL     OW94420   5.488   9.357   7.449 -0.9911  0.1893 -0.4889
29912SOL    HW194421   5.485   9.433   7.508 -1.6593 -0.2555  0.0612
29912SOL    HW294422   5.421   9.298   7.483 -2.7280  0.6933 -2.7491
29913SOL     OW94423   1.859   1.394   2.111 -0.0610  0.5563 -0.2908
29913SOL    HW194424   1.903   1.478   2.102 -1.0130  0.9783 -1.2408
29913SOL    HW294425   1.781   1.412   2.163 -0.1558  0.2229 -0.3131
29914SOL     OW94426   4.671   8.934   9.175  0.1747  0.3482  0.0259
29914SOL    HW194427   4.657   9.028   9.187 -2.7919  0.0367 -0.3043
29914SOL    HW294428   4.702   8.904   9.260 -0.6410  1.3503  0.7026
29915SOL     OW94429   2.549  10.905   1.277 -0.5309 -0.1423  0.7014
29915SOL    HW194430   2.579  10.950   1.198 -0.6971  0.0236  0.7322
29915SOL    HW294431   2.575  10.814   1.263 -0.5470 -0.1127  0.4602
29916SOL     OW94432   2.724   2.644   9.151  0.1532 -0.5167  0.2390
29916SOL    HW194433   2.754   2.656   9.061  0.4047 -0.7632  0.2884
29916SOL    HW294434   2.780   2.574   9.186 -0.1903 -0.6827  0.4699
29917SOL     OW94435   8.499   1.131   2.530  0.2320  0.4306 -0.2107
29917SOL    HW194436   8.493   1.214   2.482  1.7637  1.8180  1.8371
29917SOL    HW294437   8.421   1.130   2.586 -0.9239 -0.6118 -1.7702
29918SOL     OW94438   5.964   2.419  11.159 -0.2673 -0.2809  0.3598
29918SOL    HW194439   6.034   2.451  11.217 -0.1950  1.0816 -0.4636
29918SOL    HW294440   5.912   2.361  11.215 -0.2303  1.0412  1.8381
29919SOL     OW94441   5.157   0.756   6.750  0.2981  0.1170  0.4086
29919SOL    HW194442   5.107   0.674   6.754 -1.9118  1.3003 -1.2105
29919SOL    HW294443   5.118   0.811   6.818 -0.1733  0.8275 -0.4306
29920SOL     OW94444   3.416   6.715   6.136  0.0350 -0.1299  0.8334
29920SOL    HW194445   3.455   6.690   6.220  1.3735 -0.1370  0.2336
29920SOL    HW294446   3.375   6.635   6.104  3.2195 -1.4105 -0.4897
29921SOL     OW94447   0.098   3.155   3.064  0.0664  0.5599 -0.4338
29921SOL    HW194448   0.022   3.100   3.048  0.2957 -0.0124  0.3854
29921SOL    HW294449   0.127   3.132   3.152  1.5045  0.3876 -0.9133
29922SOL     OW94450   6.803   5.453   9.162  0.1597  0.3738  0.4377
29922SOL    HW194451   6.885   5.421   9.125 -1.0322 -1.1652 -1.0347
29922SOL    HW294452   6.742   5.452   9.089 -1.2418  1.2880  1.5431
29923SOL     OW94453   3.847   1.898   9.913  0.1729  0.4503 -0.1636
29923SOL    HW194454   3.883   1.987   9.901 -0.4368  0.8204  0.6572
29923SOL    HW294455   3.756   1.912   9.936 -0.1103 -0.4350 -0.7007
29924SOL     OW94456   0.081   4.334   5.361 -0.6558  0.4561  0.2670
29924SOL    HW194457   0.077   4.243   5.389  0.6383  0.7182  1.4581
29924SOL    HW294458  -0.003   4.371   5.388 -0.5095  0.0245  1.3933
29925SOL     OW94459   3.386   4.648   4.964 -0.0457 -0.1970 -0.2887
29925SOL    HW194460   3.468   4.687   4.994  0.2575 -0.0634 -1.2674
29925SOL    HW294461   3.404   4.618   4.875 -0.3683 -2.2803  0.2902
29926SOL     OW94462   4.345   1.197   0.088  0.5685 -0.0658  0.7006
29926SOL    HW194463   4.277   1.140   0.124  0.6621 -0.1141  0.8013
29926SOL    HW294464   4.421   1.182   0.144  0.9834 -0.7942 -0.0400
29927SOL     OW94465   8.637   5.693   3.491  0.0868  0.4781 -0.1163
29927SOL    HW194466   8.559   5.638   3.495 -0.7061  1.5675  3.3011
29927SOL    HW294467   8.603   5.783   3.492  1.3528  0.9828  0.3595
29928SOL     OW94468   0.594   2.018   4.506 -0.0022 -0.6876  0.2379
29928SOL    HW194469   0.631   2.103   4.529  0.1971 -1.3556  2.6447
29928SOL    HW294470   0.609   1.963   4.583  0.5080 -3.1457 -1.4742
29929SOL     OW94471   2.597   6.158   8.884  0.2169 -0.0766  0.8393
29929SOL    HW194472   2.515   6.117   8.855  0.1742 -0.8296  1.9508
29929SOL    HW294473   2.657   6.145   8.811 -1.5002  3.4374 -1.4638
29930SOL     OW94474   1.555   6.917   8.167 -1.0213 -0.3505  0.2194
29930SOL    HW194475   1.640   6.890   8.131 -0.5335  1.0495  0.2529
29930SOL    HW294476   1.491   6.879   8.108 -0.3230 -0.3255 -0.5700
29931SOL     OW94477   0.838   4.312   4.792 -0.1338  0.3060 -0.5776
29931SOL    HW194478   0.883   4.345   4.870  0.4777 -0.6939 -0.4784
29931SOL    HW294479   0.895   4.242   4.760 -0.5868  0.4240 -1.6894
29932SOL     OW94480  10.338   2.712   3.059  0.0296  0.2874  0.0510
29932SOL    HW194481  10.382   2.780   3.008  0.7392 -0.6189 -0.5886
29932SOL    HW294482  10.245   2.734   3.053 -0.2242 -1.0077 -3.7297
29933SOL     OW94483   1.143  10.576   7.299  0.1195 -0.0098 -0.4886
29933SOL    HW194484   1.081  10.649   7.306  0.3107  0.0740  0.3767
29933SOL    HW294485   1.093  10.500   7.329  0.3296  0.0014 -0.1049
29934SOL     OW94486   2.530  11.300   1.172  0.2921 -0.3365  0.3620
29934SOL    HW194487   2.507  11.261   1.087 -0.1892  1.3185 -0.3079
29934SOL    HW294488   2.458  11.277   1.230 -0.4401  0.3339 -0.2727
29935SOL     OW94489   9.930   9.325   5.424  0.7028  0.3106 -0.0091
29935SOL    HW194490   9.886   9.409   5.438  0.3462 -0.2854  3.3837
29935SOL    HW294491   9.940   9.289   5.512  2.7494 -2.2713 -1.1765
29936SOL     OW94492   9.863   7.317   7.866  0.3912 -0.3621 -0.4913
29936SOL    HW194493   9.880   7.352   7.779 -1.7120  1.7469 -0.1486
29936SOL    HW294494   9.768   7.319   7.875  0.4434 -2.3049  1.1842
29937SOL     OW94495   3.638   1.817   6.364  0.1610 -0.0661  0.0586
29937SOL    HW194496   3.651   1.723   6.380 -0.3971 -0.1093  0.2905
29937SOL    HW294497   3.705   1.859   6.418 -1.0305 -0.2582  1.7811
29938SOL     OW94498  11.856   3.989   8.905  0.1390 -0.4930 -0.3667
29938SOL    HW194499  11.906   3.907   8.906 -1.1010 -1.2912  0.7554
29938SOL    HW294500  11.804   3.983   8.825 -0.8071 -1.3904  0.2859
29939SOL     OW94501   4.117   7.535  11.688  0.1389  0.6156 -0.4581
29939SOL    HW194502   4.094   7.518  11.779 -0.0269 -1.1539 -0.7933
29939SOL    HW294503   4.064   7.473  11.638 -0.4776  2.1757 -1.8594
29940SOL     OW94504   0.157   9.572   7.282 -0.2441 -0.9153  0.3457
29940SOL    HW194505   0.234   9.624   7.304 -0.6756 -0.7077  1.4356
29940SOL    HW294506   0.192   9.489   7.250  0.4732  0.3259 -2.3607
29941SOL     OW94507   7.933   0.886   5.498  0.7887 -0.2658 -0.3603
29941SOL    HW194508   7.895   0.921   5.578  0.6074 -0.7903 -0.2090
29941SOL    HW294509   8.019   0.928   5.491  0.6580  0.0472 -0.0837
29942SOL     OW94510   5.482  11.852   6.775  0.3847  0.0844 -0.1423
29942SOL    HW194511   5.574  11.837   6.798  0.5542  0.7994 -0.3421
29942SOL    HW294512   5.443  11.764   6.776  1.2270 -0.3132 -0.7264
29943SOL     OW94513   5.210   6.113   0.558 -0.1068 -0.7536  0.6548
29943SOL    HW194514   5.265   6.046   0.598 -0.5164 -1.0911  0.6640
29943SOL    HW294515   5.121   6.089   0.584 -0.1030  1.3296  3.0363
29944SOL     OW94516  10.552   6.042   8.303  0.0254 -0.2956  0.3565
29944SOL    HW194517  10.541   6.054   8.398 -1.2999  0.5468  0.1198
29944SOL    HW294518  10.498   5.966   8.283  0.0099 -0.2482  0.2208
29945SOL     OW94519   3.814   0.270   3.118  0.1302  0.4325 -0.0433
29945SOL    HW194520   3.841   0.245   3.206  2.3862 -2.1189 -1.3236
29945SOL    HW294521   3.742   0.210   3.097  1.2235 -0.6653 -0.7671
29946SOL     OW94522  10.640   3.757   4.692 -0.2494  0.6505  0.7488
29946SOL    HW194523  10.570   3.692   4.691  0.1025  0.2743  0.6632
29946SOL    HW294524  10.645   3.785   4.784 -0.8804  1.0869  0.6598
29947SOL     OW94525   9.773   4.844   1.637  0.1973 -0.0131 -0.1448
29947SOL    HW194526   9.684   4.856   1.671  1.1438 -0.8359  2.9658
29947SOL    HW294527   9.793   4.752   1.657  1.6849  0.1074 -0.9805
29948SOL     OW94528  10.875   3.202   5.873  0.3500  0.0118  0.1232
29948SOL    HW194529  10.860   3.108   5.863  0.3401  0.0309 -0.0431
29948SOL    HW294530  10.788   3.239   5.888  0.4007 -0.0537  0.5920
29949SOL     OW94531   2.924   0.388   7.905  0.0117  0.0253  0.2514
29949SOL    HW194532   2.864   0.424   7.839  1.7388  0.4286 -1.1816
29949SOL    HW294533   2.983   0.461   7.926  1.2624 -0.9083  0.0797
29950SOL     OW94534   3.996   2.010   4.730  0.5042  0.0307  0.6887
29950SOL    HW194535   3.928   1.948   4.756  2.2256 -2.3465 -0.1067
29950SOL    HW294536   4.034   2.039   4.813 -0.8620  0.7136  1.1058
29951SOL     OW94537   8.317  11.500   5.773  0.2948 -0.4128 -0.1447
29951SOL    HW194538   8.320  11.522   5.866 -0.9543  0.1620 -0.2282
29951SOL    HW294539   8.366  11.571   5.731 -1.2671  0.7279 -0.1345
29952SOL     OW94540   5.321   7.074  11.395 -0.1316  0.4044  0.3414
29952SOL    HW194541   5.275   7.087  11.478 -0.3619 -1.1953  0.5034
29952SOL    HW294542   5.397   7.020  11.418  1.3368  2.1800 -0.0818
29953SOL     OW94543   9.819  10.188   2.427  0.1910  0.3149 -0.9260
29953SOL    HW194544   9.911  10.160   2.430  0.5580  1.5247  0.4388
29953SOL    HW294545   9.802  10.221   2.515 -1.3470  0.7754 -1.3787
29954SOL     OW94546  11.666   4.434   6.154  0.4594 -0.1771  0.0835
29954SOL    HW194547  11.733   4.501   6.142 -0.2589  0.5210 -0.1233
29954SOL    HW294548  11.715   4.353   6.172  1.3290  0.4179  0.4312
29955SOL     OW94549   1.887   7.827   4.859  0.3905  0.3894  0.2789
29955SOL    HW194550   1.972   7.829   4.815  0.9760 -0.6613  1.3026
29955SOL    HW294551   1.853   7.740   4.839 -1.5525  1.5628 -2.0462
29956SOL     OW94552  10.046  11.642   8.200  0.5691 -0.8209 -0.5764
29956SOL    HW194553  10.101  11.670   8.272  0.7113 -0.0655 -0.9771
29956SOL    HW294554  10.086  11.561   8.168  1.3404 -0.3795 -0.7419
29957SOL     OW94555   3.654   8.772  10.344  0.1599  0.0975  0.0028
29957SOL    HW194556   3.714   8.789  10.417 -2.4850 -0.0137  2.3850
29957SOL    HW294557   3.607   8.854  10.332  0.5388  0.1051 -1.6309
29958SOL     OW94558   2.514  11.614   4.823  0.1006  0.7134  0.2634
29958SOL    HW194559   2.495  11.533   4.870 -0.5513  0.2295 -0.8152
29958SOL    HW294560   2.468  11.682   4.873 -2.8205 -0.1522 -1.1030
29959SOL     OW94561   6.641  10.357   3.710  0.2287 -0.7810  0.1732
29959SOL    HW194562   6.566  10.399   3.669 -0.5426 -1.0220  1.2926
29959SOL    HW294563   6.659  10.281   3.656 -0.2131 -0.6131 -0.2145
29960SOL     OW94564   6.089   1.886   6.599 -0.2447 -0.2730 -0.3030
29960SOL    HW194565   6.008   1.907   6.646  0.7411  2.5698  0.3493
29960SOL    HW294566   6.137   1.827   6.658  0.0442  1.5675  1.3886
29961SOL     OW94567   7.843   4.231   4.143  0.6054  0.2948 -0.8254
29961SOL    HW194568   7.791   4.166   4.191  0.9521  1.0509  0.6184
29961SOL    HW294569   7.796   4.313   4.156  0.6100  0.4868 -1.9599
29962SOL     OW94570   7.899   3.226  11.160  0.0585 -0.1617  0.4629
29962SOL    HW194571   7.927   3.150  11.211 -0.1388 -2.3327 -2.3960
29962SOL    HW294572   7.806   3.209  11.142  0.2765  0.1754 -1.0753
29963SOL     OW94573   5.535   0.378   5.283  0.0318  0.5862 -0.2150
29963SOL    HW194574   5.507   0.296   5.242  2.3222 -0.3561 -0.0512
29963SOL    HW294575   5.537   0.441   5.211 -4.0469  1.3222  0.0294
29964SOL     OW94576  11.670   0.621   2.619 -0.4945  0.2731 -0.2456
29964SOL    HW194577  11.662   0.550   2.683  0.7035 -1.4104 -1.8490
29964SOL    HW294578  11.612   0.689   2.652 -1.5642 -1.3623  1.4951
29965SOL     OW94579   3.283   3.470   6.976  0.1551  0.1642  0.0251
29965SOL    HW194580   3.367   3.431   6.995 -0.2524 -0.7669 -0.0518
29965SOL    HW294581   3.245   3.490   7.062  0.8111  1.4032  0.0504
29966SOL     OW94582   8.410   3.659   0.552  0.0128  0.5420  0.6496
29966SOL    HW194583   8.461   3.580   0.539  0.1417  1.0696 -2.9249
29966SOL    HW294584   8.338   3.632   0.609  1.5867 -1.3723  1.8474
29967SOL     OW94585   6.196  11.939   0.445 -0.3285 -0.2765  0.0856
29967SOL    HW194586   6.177  11.846   0.438 -0.8347 -0.1548 -0.2252
29967SOL    HW294587   6.291  11.946   0.434 -0.3634 -0.6955 -0.4884
29968SOL     OW94588   8.246   4.471   6.237 -0.0058  0.6406  0.3073
29968SOL    HW194589   8.336   4.488   6.209 -0.2537 -1.5622 -2.3335
29968SOL    HW294590   8.249   4.382   6.272 -1.0289  0.8405  0.9337
29969SOL     OW94591   9.850   7.474   9.864 -0.8444 -0.9558 -0.9980
29969SOL    HW194592   9.873   7.411   9.933 -0.8148  0.5704  0.4593
29969SOL    HW294593   9.758   7.457   9.845 -1.0904 -0.8578  0.0475
29970SOL     OW94594   0.587   8.322   8.554 -0.0472 -0.2189  0.2457
29970SOL    HW194595   0.569   8.402   8.604 -0.8885 -0.7980  0.8899
29970SOL    HW294596   0.539   8.253   8.601 -1.7601 -0.6129 -1.9225
29971SOL     OW94597   2.616   3.972   2.319 -0.5197  0.2953 -0.1770
29971SOL    HW194598   2.566   4.008   2.393  0.1102 -1.4330  1.1782
29971SOL    HW294599   2.695   4.026   2.315 -1.0286  1.0407 -0.2539
29972SOL     OW94600   3.487  10.089   2.405 -0.5856  0.2284  0.6093
29972SOL    HW194601   3.519  10.160   2.461  0.6265  0.2584 -0.0894
29972SOL    HW294602   3.548  10.087   2.332  1.0970 -3.3320  1.9133
29973SOL     OW94603   1.502  10.958   8.799  0.1458  0.3003 -0.6212
29973SOL    HW194604   1.592  10.952   8.833  0.2824  0.3669 -0.9679
29973SOL    HW294605   1.502  10.902   8.722 -0.5280 -0.9187  0.2328
29974SOL     OW94606   7.058   2.426  10.829 -0.0441  0.2639  0.2427
29974SOL    HW194607   7.079   2.496  10.890  1.4612  0.0611  0.0098
29974SOL    HW294608   7.042   2.349  10.885 -1.1661  0.6414  0.4699
29975SOL     OW94609   2.003   2.481   4.344  0.4869  0.2945 -0.4190
29975SOL    HW194610   2.040   2.393   4.330  1.2782  0.3395  1.1450
29975SOL    HW294611   2.073   2.541   4.318  0.4470  0.4334 -0.2107
29976SOL     OW94612  10.027   7.214   4.658 -0.4932  0.3050  0.4149
29976SOL    HW194613   9.970   7.278   4.699  1.1412  1.5885  0.7787
29976SOL    HW294614  10.016   7.229   4.564  0.4535  1.6963  0.5002
29977SOL     OW94615   2.928   0.177   0.031 -0.2359 -0.3537  0.4008
29977SOL    HW194616   2.887   0.212   0.109 -0.5985 -1.6919  0.8362
29977SOL    HW294617   3.011   0.224   0.024 -0.2183 -0.1858  1.5608
29978SOL     OW94618   8.934   0.150   4.795 -0.0908  0.0333 -0.5886
29978SOL    HW194619   9.030   0.144   4.793 -0.1094 -0.3020 -0.4374
29978SOL    HW294620   8.913   0.166   4.887 -0.1830  0.0531 -0.6135
29979SOL     OW94621   6.874   2.613   9.179  0.8840  0.2995  0.3088
29979SOL    HW194622   6.863   2.705   9.205  1.7661  0.9125 -1.4082
29979SOL    HW294623   6.802   2.597   9.118  0.8983 -0.0960  0.3915
29980SOL     OW94624   4.674   5.292   3.735 -0.2223  0.0035 -0.2895
29980SOL    HW194625   4.726   5.250   3.667 -1.1953 -0.1606 -0.9489
29980SOL    HW294626   4.590   5.246   3.734 -0.8370  1.0765 -0.1032
29981SOL     OW94627   6.421   4.370   0.498  0.2213 -0.6063  0.4194
29981SOL    HW194628   6.482   4.308   0.460  1.3879  1.0532 -0.5166
29981SOL    HW294629   6.410   4.438   0.432 -0.7491  0.3818  1.5322
29982SOL     OW94630   8.638   3.098   2.776  0.0695 -0.0884  0.0104
29982SOL    HW194631   8.554   3.095   2.731  0.8287  2.5172 -1.8139
29982SOL    HW294632   8.622   3.149   2.855 -0.2206 -0.2463  0.0521
29983SOL     OW94633   8.621   5.715  10.613 -0.2181 -0.0419  0.1345
29983SOL    HW194634   8.670   5.648  10.565  0.3171  0.5124 -0.1110
29983SOL    HW294635   8.563   5.753  10.547 -2.1638 -1.7465  0.7574
29984SOL     OW94636   1.716   3.701  10.751  0.4723 -0.6326  0.0713
29984SOL    HW194637   1.749   3.771  10.695 -0.5300  0.3539  0.6806
29984SOL    HW294638   1.788   3.683  10.812 -0.0314  1.5050  1.4019
29985SOL     OW94639   1.729   3.215   4.998 -0.2366 -0.5382  0.0833
29985SOL    HW194640   1.642   3.189   5.031  0.3945 -1.4618  1.1070
29985SOL    HW294641   1.786   3.143   5.024  0.6663 -0.4282 -1.4982
29986SOL     OW94642   9.366   4.577  11.837 -0.1076  0.4385  0.2991
29986SOL    HW194643   9.329   4.593  11.924 -0.2037  1.0450  0.1505
29986SOL    HW294644   9.385   4.664  11.803 -0.0073  0.1979 -0.2616
29987SOL     OW94645   1.024   2.695   2.206 -0.3880 -0.4038 -0.3558
29987SOL    HW194646   0.935   2.684   2.240  0.1590 -1.0445  0.9313
29987SOL    HW294647   1.038   2.790   2.207 -0.3078 -0.4015  1.5067
29988SOL     OW94648   1.614   9.382   3.226  0.5522 -0.2034  0.7571
29988SOL    HW194649   1.643   9.426   3.306  1.8627  0.5725 -0.1192
29988SOL    HW294650   1.662   9.299   3.227 -0.3153 -0.7163  1.3384
29989SOL     OW94651   3.952   9.164   6.376  0.4302  0.3247  0.1563
29989SOL    HW194652   4.003   9.186   6.298  1.4650  2.2703  1.2974
29989SOL    HW294653   3.861   9.167   6.346  0.7928  1.2180 -0.9449
29990SOL     OW94654   9.406   4.848   7.532 -0.2380 -0.1947 -0.3489
29990SOL    HW194655   9.496   4.821   7.518 -0.2560 -0.9360  0.8208
29990SOL    HW294656   9.412   4.913   7.602 -0.6754 -0.8049  0.2655
29991SOL     OW94657   2.750  10.656  11.934 -0.3312  0.5090 -0.3613
29991SOL    HW194658   2.656  10.643  11.946 -0.4354  0.3791 -1.2881
29991SOL    HW294659   2.772  10.730  11.990 -0.6500 -0.5538  1.2474
29992SOL     OW94660   7.074   8.248   8.413  0.1386  0.2211  0.6735
29992SOL    HW194661   7.082   8.312   8.484 -4.5106  0.8010  0.9479
29992SOL    HW294662   7.095   8.164   8.456  0.3185  0.8774  1.9370
29993SOL     OW94663   1.925   3.794   7.686  0.5384  0.3122 -0.3674
29993SOL    HW194664   1.959   3.769   7.771 -0.1778 -0.5325 -0.3218
29993SOL    HW294665   1.834   3.763   7.685  0.0190  1.7448 -0.8148
29994SOL     OW94666  11.942   6.636   0.084 -0.1603  0.0227  0.0521
29994SOL    HW194667  11.917   6.673  -0.001 -0.0140 -0.3202 -0.1420
29994SOL    HW294668  11.893   6.554   0.089  1.1779 -0.8269 -0.4771
29995SOL     OW94669  10.643   0.012   3.527  0.6383 -0.2058 -0.3416
29995SOL    HW194670  10.706   0.054   3.585  0.9701  0.4099 -1.1423
29995SOL    HW294671  10.561   0.015   3.576  1.1858 -0.9087  0.6579
29996SOL     OW94672   3.850   9.475   8.655  0.4120  0.1705  0.4127
29996SOL    HW194673   3.901   9.403   8.617  1.3697  1.8221 -1.6200
29996SOL    HW294674   3.906   9.509   8.725  0.5096 -0.2628  0.5500
29997SOL     OW94675   0.389   2.532   7.900  0.1231  0.1104 -0.1427
29997SOL    HW194676   0.427   2.522   7.813 -0.2652 -0.0522 -0.2970
29997SOL    HW294677   0.379   2.442   7.932 -1.2347  0.0824 -0.5903
29998SOL     OW94678  11.470   2.349   3.893 -0.9063 -0.2377 -0.1920
29998SOL    HW194679  11.516   2.420   3.848 -1.1690 -0.3831 -0.6919
29998SOL    HW294680  11.535   2.279   3.899 -0.7115 -0.0332  0.1163
29999SOL     OW94681  11.560   6.891   2.685 -0.1465  0.1224  0.2515
29999SOL    HW194682  11.583   6.823   2.748 -1.3647 -1.5039 -0.9297
29999SOL    HW294683  11.640   6.942   2.673  1.0666 -1.5997  0.6339
30000SOL     OW94684   0.733   5.626   0.770  0.0025  0.3097 -0.1970
30000SOL    HW194685   0.798   5.682   0.813  0.6458 -0.2220 -0.4656
30000SOL    HW294686   0.785   5.558   0.727 -0.7848 -0.6374  0.3214
30001SOL     OW94687   8.810   3.646   3.114 -0.1973  0.3147  0.2404
30001SOL    HW194688   8.885   3.621   3.168  0.5829 -0.2272 -1.0519
30001SOL    HW294689   8.814   3.742   3.111  0.3006  0.3039  0.3814
30002SOL     OW94690   9.263   1.274   6.944  0.2552  0.0916  0.1345
30002SOL    HW194691   9.324   1.238   7.008 -0.0174 -0.1323  0.2727
30002SOL    HW294692   9.195   1.206   6.935 -0.1324  0.4665  0.2150
30003SOL     OW94693   4.923   9.689   7.433 -0.6498  0.5113 -0.0451
30003SOL    HW194694   4.896   9.597   7.427  0.7589 -0.0626  1.5942
30003SOL    HW294695   4.984   9.700   7.361  1.1699 -0.6398  1.2366
30004SOL     OW94696   2.799   1.473   0.202  0.1536 -0.8410  0.8026
30004SOL    HW194697   2.839   1.494   0.118  0.4350  0.0407  1.1523
30004SOL    HW294698   2.816   1.549   0.258 -2.1253 -0.3495  0.9294
30005SOL     OW94699   7.367   0.039   3.219 -0.2165  0.2937  0.0992
30005SOL    HW194700   7.370   0.116   3.276 -0.8987 -0.0494  0.6321
30005SOL    HW294701   7.372  -0.035   3.280 -0.9505 -0.0834 -0.2883
30006SOL     OW94702  10.068   5.087   3.697 -0.2285  0.6117 -0.0065
30006SOL    HW194703   9.986   5.081   3.648 -0.6227  0.4057  0.6790
30006SOL    HW294704  10.074   5.179   3.724 -1.1030  0.2717  1.4219
30007SOL     OW94705   5.141   8.231   3.673  0.0652  0.1499 -0.7622
30007SOL    HW194706   5.051   8.224   3.642 -0.9723 -0.2055  2.0265
30007SOL    HW294707   5.195   8.226   3.594 -2.3754  1.4479 -2.6188
30008SOL     OW94708   6.522  10.863  10.397  0.0343  0.0966  0.2283
30008SOL    HW194709   6.448  10.922  10.409 -0.7035 -0.6002 -0.7289
30008SOL    HW294710   6.504  10.817  10.315  1.6865  0.1310 -0.2052
30009SOL     OW94711   6.049   0.082   1.159  0.0715 -0.2822  0.4485
30009SOL    HW194712   6.077   0.072   1.068  0.8144  1.3628  0.4544
30009SOL    HW294713   6.092   0.163   1.188 -0.5919 -0.4897  2.0907
30010SOL     OW94714   7.719   7.848   2.277  0.1251 -0.2848 -0.1321
30010SOL    HW194715   7.654   7.785   2.246 -0.1385  0.0809 -0.3368
30010SOL    HW294716   7.668   7.915   2.322  0.5338 -0.9589  1.3856
30011SOL     OW94717   1.843   4.430   9.316 -0.1470 -0.0857 -0.2987
30011SOL    HW194718   1.759   4.427   9.361 -0.0298  0.8892 -0.0056
30011SOL    HW294719   1.899   4.485   9.371  1.0718 -1.6851  0.1433
30012SOL     OW94720   4.177   6.658   9.112 -0.5190 -0.5572 -0.1004
30012SOL    HW194721   4.172   6.617   9.198  0.0465  0.4534  0.4349
30012SOL    HW294722   4.105   6.619   9.063 -0.1228 -2.0448  0.4222
30013SOL     OW94723  11.345   9.028   2.731  0.0271 -0.0437  0.7012
30013SOL    HW194724  11.285   9.089   2.689  0.9675  0.9450  0.7657
30013SOL    HW294725  11.320   9.030   2.824 -0.4488 -0.3690  0.5855
30014SOL     OW94726   4.768   0.963   2.774  0.3465 -0.3292 -0.2159
30014SOL    HW194727   4.830   1.035   2.770 -0.6467  0.5945  0.4396
30014SOL    HW294728   4.763   0.931   2.684 -0.2962  1.3970 -0.8335
30015SOL     OW94729  10.093   8.530   7.159 -0.4292 -0.2739 -0.0611
30015SOL    HW194730  10.037   8.466   7.116 -0.9103  0.5614 -0.7065
30015SOL    HW294731  10.182   8.507   7.130 -0.7918  0.6551 -2.0815
30016SOL     OW94732   3.303   5.201   1.681  0.4314 -0.2203 -0.3286
30016SOL    HW194733   3.374   5.228   1.739  0.5529  0.3220 -0.7208
30016SOL    HW294734   3.282   5.112   1.708  0.9688 -0.2280  0.0746
30017SOL     OW94735   3.609   0.162   6.188 -0.3497 -0.1618 -0.1038
30017SOL    HW194736   3.558   0.192   6.113  0.3953 -2.2444 -1.5243
30017SOL    HW294737   3.698   0.193   6.170  0.0953 -1.7164 -0.7921
30018SOL     OW94738   0.709   4.219   3.491  0.4148  0.2591  0.4675
30018SOL    HW194739   0.764   4.142   3.475  2.2029  1.6391 -0.4281
30018SOL    HW294740   0.639   4.213   3.426  1.5799  0.2839 -0.8389
30019SOL     OW94741   2.953   7.336   9.233 -0.2632  0.3261  0.1916
30019SOL    HW194742   2.890   7.308   9.299 -0.3152 -0.2023 -0.0778
30019SOL    HW294743   2.971   7.257   9.182  0.7551  0.4204  0.3769
30020SOL     OW94744  10.599   9.410   0.026 -0.8206 -0.3474 -0.0976
30020SOL    HW194745  10.694   9.405   0.024 -0.6990  1.1561 -2.6710
30020SOL    HW294746  10.580   9.498   0.059 -1.3333 -0.7199  0.6208
30021SOL     OW94747   7.925   1.116   1.948  0.2069 -0.5208 -0.2767
30021SOL    HW194748   7.867   1.045   1.977 -0.7086  0.6084  0.7782
30021SOL    HW294749   7.939   1.168   2.026 -0.3748  1.2871 -1.3238
30022SOL     OW94750   2.397   5.816   2.325 -0.2917  0.2380  0.1947
30022SOL    HW194751   2.388   5.863   2.242 -0.4257  0.7483  0.4983
30022SOL    HW294752   2.424   5.728   2.299 -1.3594  0.0805 -0.4596
30023SOL     OW94753   9.606   4.288   9.314  0.2322 -0.0900 -0.4356
30023SOL    HW194754   9.560   4.223   9.261 -2.1683  1.1437 -0.0481
30023SOL    HW294755   9.665   4.237   9.370 -1.3177 -1.9191 -0.3710
30024SOL     OW94756   8.337   4.538   3.820 -0.6533 -0.2053 -0.0032
30024SOL    HW194757   8.269   4.564   3.758 -0.2643 -1.0939 -0.8441
30024SOL    HW294758   8.357   4.448   3.796  0.9128  0.0811  0.1334
30025SOL     OW94759   5.790   1.260   0.462 -0.6892 -0.1982 -0.1258
30025SOL    HW194760   5.797   1.216   0.378  0.1838 -0.0885 -0.1223
30025SOL    HW294761   5.701   1.242   0.492 -0.7894 -0.7890 -0.7644
30026SOL     OW94762   4.655   2.699   0.872 -0.0213  0.3369 -0.1016
30026SOL    HW194763   4.593   2.656   0.931  1.2862  1.6423  2.4013
30026SOL    HW294764   4.621   2.788   0.863  0.1805  0.3517 -0.7515
30027SOL     OW94765   2.013   7.509   7.061  0.4822 -0.1383  0.6651
30027SOL    HW194766   1.924   7.478   7.078 -0.0664  1.7916  1.5600
30027SOL    HW294767   2.002   7.583   7.002  1.5916 -0.4166  0.0755
30028SOL     OW94768   5.625   9.577  11.272 -0.7983  0.4382  0.3599
30028SOL    HW194769   5.577   9.641  11.220  1.5090 -0.4142 -3.1296
30028SOL    HW294770   5.717   9.604  11.264 -0.0474 -1.6197  1.3191
30029SOL     OW94771   0.541   1.691   5.494  0.1762  0.4317  0.0803
30029SOL    HW194772   0.527   1.682   5.400  0.1617 -1.0643  0.1979
30029SOL    HW294773   0.454   1.700   5.532  0.0924 -0.1799  0.0447
30030SOL     OW94774   7.051  10.954   9.113  0.3138  0.1012 -0.1217
30030SOL    HW194775   7.028  11.040   9.078  1.8207  0.4248 -0.4134
30030SOL    HW294776   7.101  10.972   9.192 -0.2364 -0.5419  0.3827
30031SOL     OW94777   2.445   9.383   0.126  0.0520  0.4361  0.1316
30031SOL    HW194778   2.461   9.477   0.126  0.8737  0.3346  1.7072
30031SOL    HW294779   2.351   9.374   0.147 -0.3030  0.9070 -1.2116
30032SOL     OW94780   3.593  11.887   6.609 -0.5954  0.0923  0.1508
30032SOL    HW194781   3.513  11.882   6.661 -0.4698 -0.8430  0.2711
30032SOL    HW294782   3.647  11.814   6.640 -0.6661 -0.7233 -1.5474
30033SOL     OW94783   5.320   4.157  11.511 -0.0952 -0.7127 -0.3943
30033SOL    HW194784   5.297   4.120  11.426 -0.3590 -1.0626 -0.1761
30033SOL    HW294785   5.288   4.247  11.507 -1.1040 -1.0501 -0.2719
30034SOL     OW94786   4.058  10.527   2.452 -0.2367  0.3362  0.4024
30034SOL    HW194787   4.146  10.556   2.476 -0.0048  0.6921 -0.8086
30034SOL    HW294788   4.000  10.573   2.513  0.4523 -0.7633  1.9511
30035SOL     OW94789   2.007   2.005   3.908 -0.2499  0.0649  0.1196
30035SOL    HW194790   1.934   2.036   3.961  0.0273 -0.7484  0.9990
30035SOL    HW294791   1.966   1.967   3.830 -1.1764 -3.9978  2.3017
30036SOL     OW94792   8.987   1.460   9.702  0.3854 -0.1914  0.7470
30036SOL    HW194793   8.919   1.392   9.711  2.1463 -2.4889 -1.7002
30036SOL    HW294794   9.069   1.413   9.713  1.7350  1.2289 -2.1924
30037SOL     OW94795   9.537   3.539   2.316 -0.2742  0.1172  0.2478
30037SOL    HW194796   9.602   3.551   2.386  0.9265 -1.0484 -0.6177
30037SOL    HW294797   9.572   3.467   2.264 -2.7553 -1.1842  0.2760
30038SOL     OW94798  11.257   1.172   8.477 -0.0109  0.0820 -0.0686
30038SOL    HW194799  11.309   1.138   8.405  0.3053 -0.7373  0.5361
30038SOL    HW294800  11.286   1.263   8.487  1.3753 -0.3835  0.3036
30039SOL     OW94801   8.598   3.680   9.703 -0.7408 -0.1282  0.0572
30039SOL    HW194802   8.577   3.683   9.796  1.0142 -0.8966  0.5214
30039SOL    HW294803   8.612   3.587   9.685 -1.2576 -0.0130 -1.0388
30040SOL     OW94804   5.453   1.492   2.798 -0.2164  0.2739 -0.1493
30040SOL    HW194805   5.368   1.521   2.830 -0.6359 -0.8241 -0.2144
30040SOL    HW294806   5.513   1.510   2.870 -1.2140 -2.5449  1.5625
30041SOL     OW94807  10.176  10.013  11.138  0.3916  0.5160 -0.0408
30041SOL    HW194808  10.122  10.090  11.152  1.6532  1.4872 -0.2694
30041SOL    HW294809  10.149   9.980  11.052  0.3345  1.1311 -0.2597
30042SOL     OW94810   7.381   4.937   4.912  0.6049  0.3541 -0.3887
30042SOL    HW194811   7.317   4.867   4.901 -0.7559  1.1787  1.7359
30042SOL    HW294812   7.374   4.989   4.832  0.5569 -1.0234 -1.3204
30043SOL     OW94813   1.208   4.522  10.657  0.0166 -0.1560  0.4665
30043SOL    HW194814   1.215   4.448  10.597 -0.1279  0.5112 -0.4061
30043SOL    HW294815   1.118   4.518  10.691 -1.0420  1.2751 -1.8826
30044SOL     OW94816  10.433   3.377   9.885 -0.2991  0.6308 -0.0383
30044SOL    HW194817  10.380   3.456   9.888 -0.2738  0.9103 -3.2281
30044SOL    HW294818  10.388   3.315   9.942 -1.4705  2.2736  0.8905
30045SOL     OW94819   2.214   4.139   4.595  0.0020  0.0600  0.3583
30045SOL    HW194820   2.234   4.112   4.684 -1.4497  2.0969  1.3796
30045SOL    HW294821   2.300   4.150   4.553  0.6777 -2.3334  0.9866
30046SOL     OW94822   2.902   7.899   4.976  0.2198  0.1431 -0.1282
30046SOL    HW194823   2.886   7.826   4.917  1.8675  0.5154 -1.1009
30046SOL    HW294824   2.993   7.887   5.004  0.1594  1.2069  0.5810
30047SOL     OW94825   7.137   6.989  10.243  0.4184  0.3452  0.7376
30047SOL    HW194826   7.109   6.905  10.206 -0.5193  0.1087  1.9145
30047SOL    HW294827   7.187   6.965  10.321  2.6930  0.8243 -0.5168
30048SOL     OW94828   2.147   8.061   2.317  0.2521 -0.4460 -0.2698
30048SOL    HW194829   2.139   8.149   2.280 -1.9229 -0.5289 -0.1076
30048SOL    HW294830   2.237   8.056   2.348  0.5225  1.5847 -0.6088
30049SOL     OW94831   8.113   7.607   3.741 -0.1430  0.7724  0.1055
30049SOL    HW194832   8.187   7.610   3.681  0.1803 -0.6055  0.3910
30049SOL    HW294833   8.081   7.517   3.735 -0.4909  0.7749  1.5257
30050SOL     OW94834  10.051   7.820   5.791 -0.2499  0.2030 -0.3599
30050SOL    HW194835  10.073   7.794   5.702 -1.4555  1.0396 -0.9389
30050SOL    HW294836  10.131   7.806   5.841  0.2032 -1.0890 -1.3806
30051SOL     OW94837   2.870  10.044   1.518  0.2448  0.1661 -0.0475
30051SOL    HW194838   2.957  10.076   1.494  0.8343 -0.4645  1.1810
30051SOL    HW294839   2.861  10.063   1.611 -0.9602  0.2667 -0.1701
30052SOL     OW94840  11.106   8.008   8.895 -0.2747 -0.5964  0.1042
30052SOL    HW194841  11.038   8.075   8.900  0.3596  0.0352  0.3197
30052SOL    HW294842  11.057   7.925   8.900 -1.1498 -0.1823 -1.2007
30053SOL     OW94843   6.360   0.606  10.206 -0.8642  0.3241 -0.0831
30053SOL    HW194844   6.286   0.549  10.184 -0.3713  0.2321 -1.5548
30053SOL    HW294845   6.367   0.666  10.132 -0.0355  0.9266  0.4750
30054SOL     OW94846   2.441   8.054   1.470 -0.3272 -0.1601 -0.3103
30054SOL    HW194847   2.473   8.116   1.537  1.2580 -1.1110 -0.1413
30054SOL    HW294848   2.396   7.986   1.520 -0.3267 -0.1762 -0.3320
30055SOL     OW94849   3.468   5.532   9.242  0.5455 -0.3698  0.0605
30055SOL    HW194850   3.519   5.463   9.199  3.1623  0.4556  1.5830
30055SOL    HW294851   3.417   5.571   9.171  0.8382 -2.2741 -1.2917
30056SOL     OW94852   9.105  10.633   6.256 -0.3863 -0.0102  0.0762
30056SOL    HW194853   9.152  10.586   6.324 -0.9589 -0.0326  0.4705
30056SOL    HW294854   9.143  10.603   6.174  0.4693  0.1890  0.3922
30057SOL     OW94855   2.827   0.474   0.881 -0.0065  0.5825 -0.3373
30057SOL    HW194856   2.776   0.405   0.839 -1.2478  0.4649  1.2656
30057SOL    HW294857   2.873   0.517   0.809  1.4639 -2.3844 -1.3476
30058SOL     OW94858   6.681   6.521  11.823 -0.5439 -0.5059  0.1095
30058SOL    HW194859   6.683   6.617  11.830  2.6737 -0.5512  1.8194
30058SOL    HW294860   6.688   6.504  11.729  1.0061  1.0276 -0.1124
30059SOL     OW94861   5.741   4.550   3.058 -0.0478  0.0013  0.1270
30059SOL    HW194862   5.661   4.566   3.008  0.2426  2.0308  0.2346
30059SOL    HW294863   5.803   4.514   2.995 -0.6295 -0.3442 -0.2503
30060SOL     OW94864   8.521   7.926   6.296  0.4118 -0.4737 -0.2043
30060SOL    HW194865   8.493   7.944   6.207 -0.9910  0.6213  0.4145
30060SOL    HW294866   8.441   7.935   6.348  1.6437  1.4130  1.4926
30061SOL     OW94867   6.417   8.292   1.085 -0.2783 -0.0659 -0.1378
30061SOL    HW194868   6.363   8.241   1.025  0.1624 -0.8423  0.0974
30061SOL    HW294869   6.412   8.243   1.168  0.8123 -0.1834 -0.1285
30062SOL     OW94870   3.538   6.758   4.802 -0.3860  0.0855 -0.0026
30062SOL    HW194871   3.470   6.737   4.737 -0.7689  0.2408  0.3465
30062SOL    HW294872   3.492   6.803   4.872 -0.0675 -0.5659  0.6368
30063SOL     OW94873   9.993   2.001  10.963  0.5457  0.1559 -0.2621
30063SOL    HW194874   9.939   1.958  11.029 -0.6933  2.5332  0.3964
30063SOL    HW294875  10.083   1.979  10.987  0.1175  0.7052  2.1014
30064SOL     OW94876   1.725   6.893   3.539  0.3969  0.3683  0.3065
30064SOL    HW194877   1.764   6.885   3.452 -0.2553  0.4784 -0.0018
30064SOL    HW294878   1.766   6.824   3.591 -0.1370 -0.5308 -0.4377
30065SOL     OW94879   8.636   3.824   3.884 -0.2426 -0.0388  0.8245
30065SOL    HW194880   8.549   3.786   3.876 -0.1161 -0.3874  1.0782
30065SOL    HW294881   8.690   3.754   3.922  0.2422  0.0342  0.2822
30066SOL     OW94882   3.942   5.015  11.596 -0.2517  0.8989  0.2285
30066SOL    HW194883   3.875   4.969  11.545 -1.8193  3.2318 -0.0049
30066SOL    HW294884   3.930   4.983  11.685 -1.2671  0.8022  0.0706
30067SOL     OW94885   6.005   1.459   6.928  0.1359 -0.4309 -0.2806
30067SOL    HW194886   5.996   1.532   6.867  1.0505  0.6421  0.8204
30067SOL    HW294887   6.061   1.493   6.998 -0.7255 -1.6748  1.0613
30068SOL     OW94888  11.995   5.497   6.980  0.4500 -0.3877  0.5145
30068SOL    HW194889  11.985   5.565   7.047 -0.8675  0.7966 -0.7962
30068SOL    HW294890  11.977   5.415   7.026 -1.3950  0.4740  1.4563
30069SOL     OW94891   0.266   2.705   3.669  0.1603 -0.1132 -0.1590
30069SOL    HW194892   0.232   2.634   3.725  0.6811  0.0786  0.4173
30069SOL    HW294893   0.299   2.660   3.592  1.5647 -0.6529  0.7123
30070SOL     OW94894   5.638   1.781  10.005 -0.3253 -0.0707  0.0759
30070SOL    HW194895   5.561   1.729  10.028 -0.8367  1.0208  0.9516
30070SOL    HW294896   5.658   1.757   9.914 -1.6976 -0.3659 -0.1604
30071SOL     OW94897   0.921   5.472   4.230 -1.3027 -0.8675 -0.2934
30071SOL    HW194898   0.933   5.560   4.265 -0.3023 -1.6076  1.3593
30071SOL    HW294899   0.846   5.479   4.171 -1.5633  0.9668  0.2113
30072SOL     OW94900   6.167   6.020  11.336  0.0045 -0.4843 -0.1410
30072SOL    HW194901   6.087   6.004  11.287  0.5215 -1.0617 -0.8296
30072SOL    HW294902   6.208   5.934  11.344 -0.0856 -0.4154  1.3731
30073SOL     OW94903   1.543   7.845   0.793  0.3295  0.3016 -0.6392
30073SOL    HW194904   1.620   7.821   0.845 -0.0671 -1.2171 -0.7014
30073SOL    HW294905   1.532   7.939   0.809  0.2908 -0.0723  1.9500
30074SOL     OW94906   9.524   7.212  11.567 -0.6883 -0.0503 -0.5368
30074SOL    HW194907   9.509   7.183  11.477  0.1582  1.8762 -1.3696
30074SOL    HW294908   9.502   7.306  11.565 -0.5730  0.0420  1.2488
30075SOL     OW94909   2.084   9.041  11.517 -0.2202  0.0730 -0.1552
30075SOL    HW194910   1.997   9.003  11.509  0.5352 -2.1670  1.1650
30075SOL    HW294911   2.082   9.089  11.600 -0.6389  1.5049 -0.9507
30076SOL     OW94912   6.353   2.855  11.512 -0.2732 -0.3783  0.3518
30076SOL    HW194913   6.281   2.896  11.560 -0.1627  1.1263 -0.6937
30076SOL    HW294914   6.331   2.868  11.420  1.1488 -0.2336  0.0110
30077SOL     OW94915   7.467   3.054  11.884 -0.0465  0.3325 -0.0791
30077SOL    HW194916   7.556   3.072  11.913  1.2398 -1.3438 -2.5684
30077SOL    HW294917   7.424   3.014  11.960  1.6507  0.2141  0.8594
30078SOL     OW94918   6.925   0.532   9.045  0.9253 -0.6546 -0.2703
30078SOL    HW194919   6.866   0.472   8.999  0.2822 -1.7602  1.8765
30078SOL    HW294920   6.899   0.619   9.015 -1.9120 -1.0887  0.6524
30079SOL     OW94921  10.693   7.385   8.704  0.0653 -0.0974 -1.2315
30079SOL    HW194922  10.767   7.357   8.650 -1.0123 -0.2318 -2.6980
30079SOL    HW294923  10.680   7.313   8.766  0.1851 -0.7814 -1.9927
30080SOL     OW94924   3.503   9.735   4.339 -0.3770 -0.1485 -0.3326
30080SOL    HW194925   3.576   9.782   4.378  0.1130  0.6142 -2.0476
30080SOL    HW294926   3.474   9.791   4.267 -2.6201 -0.4683  0.2376
30081SOL     OW94927   8.508  10.215   7.895 -0.0400  0.2606 -0.2823
30081SOL    HW194928   8.568  10.286   7.918 -0.6328  0.5646  0.3668
30081SOL    HW294929   8.421  10.256   7.898 -0.6488 -1.0593  2.5796
30082SOL     OW94930   5.522   2.080   0.747 -0.2904 -0.1591  0.4556
30082SOL    HW194931   5.494   2.150   0.806 -0.6816  0.6203 -0.6128
30082SOL    HW294932   5.442   2.056   0.700 -0.0163 -0.8684  0.3474
30083SOL     OW94933  10.936   0.687   8.824  0.1265  0.1026 -0.0232
30083SOL    HW194934  10.895   0.762   8.781  0.0768  0.4071  0.5454
30083SOL    HW294935  10.863   0.629   8.844  0.2242 -0.3616 -0.9568
30084SOL     OW94936   6.220   6.034  11.620 -0.4992  0.2861  0.0296
30084SOL    HW194937   6.213   5.940  11.640  0.6090  0.2165  0.1632
30084SOL    HW294938   6.178   6.043  11.534  2.3936 -0.9914 -1.6883
30085SOL     OW94939   7.352   9.657   9.020  0.0517 -0.1776  0.0049
30085SOL    HW194940   7.302   9.720   9.072 -0.3670 -0.3072 -0.2371
30085SOL    HW294941   7.318   9.666   8.931  0.7112 -0.0160 -0.2378
30086SOL     OW94942   7.108  11.020   7.528 -0.1328 -0.2474 -0.1667
30086SOL    HW194943   7.059  10.948   7.489 -1.0335  0.0036  0.4680
30086SOL    HW294944   7.087  11.096   7.473 -1.7914  0.2128  1.0296
30087SOL     OW94945   1.438  10.798   1.213  0.1540  0.0146 -0.1421
30087SOL    HW194946   1.382  10.722   1.227  1.0693 -0.5828  0.3476
30087SOL    HW294947   1.508  10.767   1.155 -0.6883  1.0866 -1.8143
30088SOL     OW94948  11.773   1.411   9.207 -0.4645  0.0386 -0.1087
30088SOL    HW194949  11.808   1.415   9.296  0.8532 -0.1129 -0.5998
30088SOL    HW294950  11.780   1.500   9.174  1.2208 -0.3245 -0.8334
30089SOL     OW94951   4.127   1.762  11.856 -0.2690 -0.4279 -0.4865
30089SOL    HW194952   4.147   1.847  11.895 -4.0328  0.4457 -0.0727
30089SOL    HW294953   4.205   1.741  11.804  1.3910  2.5430  0.5244
30090SOL     OW94954   0.919   6.141   5.344 -0.2224 -0.1037 -0.7515
30090SOL    HW194955   0.836   6.102   5.372  0.2082  1.5765  3.6746
30090SOL    HW294956   0.903   6.236   5.349  2.0017  0.2666  0.6191
30091SOL     OW94957   2.775   3.739  11.936 -0.5918 -0.9566 -0.3900
30091SOL    HW194958   2.836   3.803  11.973 -0.2266 -1.9134  0.7112
30091SOL    HW294959   2.812   3.718  11.850 -0.7561  0.3539 -0.7949
30092SOL     OW94960  10.452   9.283   5.384  0.2650  0.1100  0.1633
30092SOL    HW194961  10.512   9.344   5.428  0.8559  0.3275 -0.8963
30092SOL    HW294962  10.398   9.247   5.455  1.0453  0.5883  1.0302
30093SOL     OW94963   0.588   9.172   9.642 -0.0516 -0.2869 -0.0660
30093SOL    HW194964   0.605   9.104   9.578  1.6670 -0.2509  0.3162
30093SOL    HW294965   0.519   9.135   9.698 -0.6772 -0.8073 -1.1397
30094SOL     OW94966   3.446   0.014  11.995  0.2202  0.6717  0.3525
30094SOL    HW194967   3.488  -0.048  12.055  0.9191  0.5199 -0.2813
30094SOL    HW294968   3.393  -0.041  11.938  0.3023  0.7244  0.2257
30095SOL     OW94969   6.486   9.668   4.833  0.5458 -0.2054  0.1487
30095SOL    HW194970   6.566   9.616   4.842  0.2229 -1.0691 -1.5724
30095SOL    HW294971   6.490   9.704   4.745 -0.5668  0.4429  0.3389
30096SOL     OW94972   8.622   0.088  10.169  0.1371 -0.1397 -0.0588
30096SOL    HW194973   8.600   0.021  10.234  1.6429 -0.7698 -0.1409
30096SOL    HW294974   8.717   0.101  10.180  0.2649  0.3449 -1.5733
30097SOL     OW94975   0.628   9.687   6.149  0.3810  0.3037 -0.0279
30097SOL    HW194976   0.662   9.775   6.166  1.3504  0.0157 -0.3770
30097SOL    HW294977   0.670   9.662   6.066 -1.1238  0.1333 -0.7743
30098SOL     OW94978   5.317   8.005   1.668  0.3466  0.6131 -0.6111
30098SOL    HW194979   5.241   7.979   1.719 -0.6964  0.0895 -2.3457
30098SOL    HW294980   5.317   8.100   1.671 -1.2263  0.6812 -1.7261
30099SOL     OW94981   0.843   3.049   3.589  0.4004 -0.5496 -0.0320
30099SOL    HW194982   0.750   3.026   3.580  0.4242 -0.3850 -0.7927
30099SOL    HW294983   0.847   3.104   3.668 -0.2495 -0.0438 -0.3392
30100SOL     OW94984  10.418   8.013   9.121  0.5298 -1.1694 -0.2615
30100SOL    HW194985  10.337   8.021   9.069 -0.6398 -1.7229  1.3927
30100SOL    HW294986  10.417   7.922   9.152  0.5192 -0.5364  1.7200
30101SOL     OW94987   6.960   3.787  10.986 -0.3704 -0.0487 -0.4854
30101SOL    HW194988   6.870   3.805  11.014 -0.7561 -1.3965 -0.7618
30101SOL    HW294989   7.010   3.779  11.067 -0.5752  0.3254 -0.3192
30102SOL     OW94990   0.500   9.556   9.859 -0.1418  0.2317  0.5883
30102SOL    HW194991   0.555   9.483   9.888 -1.9649 -0.4141  2.6824
30102SOL    HW294992   0.528   9.630   9.913  0.4181  0.6074 -0.1998
30103SOL     OW94993   0.976   5.595   9.374 -0.4307 -0.0809 -0.2025
30103SOL    HW194994   0.922   5.583   9.452 -1.2026 -0.5814 -0.7892
30103SOL    HW294995   0.955   5.683   9.343 -1.2070 -0.4032 -0.6275
30104SOL     OW94996   1.950   0.776   4.375 -0.0162  0.1562  0.3117
30104SOL    HW194997   1.939   0.810   4.286  1.6687 -0.4536 -0.1616
30104SOL    HW294998   2.038   0.802   4.400  0.2689 -1.3916  1.0166
30105SOL     OW94999   2.979  10.963   1.696  0.1222 -0.3213  0.0586
30105SOL    HW195000   2.950  10.905   1.766  0.0156  0.0600  0.3288
30105SOL    HW295001   2.935  11.046   1.713 -1.1197 -0.6510 -1.3108
30106SOL     OW95002   6.913   5.572  11.280 -0.2020 -0.1209 -0.0899
30106SOL    HW195003   6.957   5.638  11.227 -1.2052  0.1704 -0.5784
30106SOL    HW295004   6.822   5.601  11.284 -0.4392 -0.9121  0.5889
30107SOL     OW95005   8.799   8.740   5.916  0.0524  0.1857 -0.0474
30107SOL    HW195006   8.856   8.807   5.954  1.7153 -1.4656  0.5045
30107SOL    HW295007   8.755   8.700   5.991  0.1635 -0.2924 -0.2327
30108SOL     OW95008   9.618   4.797   8.090 -0.2922  0.1373 -0.0161
30108SOL    HW195009   9.561   4.724   8.066 -0.9967  1.2237 -1.8830
30108SOL    HW295010   9.650   4.830   8.006  1.4121  0.8977  0.8882
30109SOL     OW95011   0.716   4.752  11.690  0.6351  0.1827  0.0693
30109SOL    HW195012   0.736   4.727  11.780  1.2046  0.0375 -0.0945
30109SOL    HW295013   0.680   4.841  11.697  1.9954  0.7315  0.3158
30110SOL     OW95014   0.365   7.724   9.056 -0.8000 -0.0516  0.0479
30110SOL    HW195015   0.433   7.657   9.057 -0.9319 -0.1909  0.7807
30110SOL    HW295016   0.387   7.781   8.983 -0.0608 -0.2593  0.1047
30111SOL     OW95017   1.853   2.815   3.648  0.7507  0.2727 -0.5918
30111SOL    HW195018   1.767   2.823   3.691  0.9920  2.4412 -0.4386
30111SOL    HW295019   1.900   2.751   3.701 -0.4974 -0.4072 -0.2546
30112SOL     OW95020  10.646   9.378   1.025 -0.0785 -0.5810 -0.4424
30112SOL    HW195021  10.578   9.435   1.060  0.9808  0.8668 -0.6533
30112SOL    HW295022  10.711   9.373   1.095 -0.1093 -1.4626 -0.4681
30113SOL     OW95023   5.588   0.384   9.950 -0.1500  0.2219  0.3425
30113SOL    HW195024   5.542   0.377   9.865  0.5164 -0.6534  0.0364
30113SOL    HW295025   5.636   0.302   9.957 -0.4634  0.1402  1.7416
30114SOL     OW95026   0.178   2.838  10.756 -0.3712  0.2509 -0.1997
30114SOL    HW195027   0.107   2.792  10.801  0.4498 -0.7344  0.1258
30114SOL    HW295028   0.252   2.777  10.758  0.5181  1.2835 -0.4621
30115SOL     OW95029   9.110   3.193   5.591 -0.3171  0.3671  0.2075
30115SOL    HW195030   9.133   3.231   5.676 -2.6581 -0.7772  1.4699
30115SOL    HW295031   9.131   3.261   5.527  0.0263  1.9092  1.8785
30116SOL     OW95032   9.524   0.023  10.072  0.0394  0.0227 -0.0840
30116SOL    HW195033   9.527   0.117  10.060  0.0993  0.2310  1.3667
30116SOL    HW295034   9.527  -0.013   9.983 -0.2954  1.3792 -0.6666
30117SOL     OW95035   9.064  11.803   0.093 -0.3937 -0.6286 -0.1471
30117SOL    HW195036   9.009  11.807   0.171 -1.1869 -1.3089 -0.6617
30117SOL    HW295037   9.095  11.893   0.081 -1.3146 -0.2558  0.1970
30118SOL     OW95038   2.200   3.800   0.495  0.6777  0.3526 -0.2697
30118SOL    HW195039   2.179   3.868   0.559 -1.0595 -0.7021  0.3448
30118SOL    HW295040   2.195   3.844   0.410 -1.0592  0.8685  0.0727
30119SOL     OW95041   1.773   8.322  11.621 -0.4403  0.1900  0.4260
30119SOL    HW195042   1.738   8.269  11.693  2.3871 -2.1554  0.2914
30119SOL    HW295043   1.777   8.411  11.657 -2.3035 -0.2270  1.8783
30120SOL     OW95044   1.927   0.199   8.931  0.5330 -0.3534 -0.4169
30120SOL    HW195045   1.979   0.149   8.868  0.8010  1.5535 -1.8213
30120SOL    HW295046   1.836   0.180   8.908  0.6100 -1.5009  0.1906
30121SOL     OW95047   8.599   1.603   1.122 -0.1974 -0.0073  0.1005
30121SOL    HW195048   8.658   1.678   1.115 -0.5309  0.2381 -0.0800
30121SOL    HW295049   8.612   1.555   1.039  1.4409 -1.2135  0.9884
30122SOL     OW95050   2.720   2.200  10.034  0.0418  0.2443 -0.2064
30122SOL    HW195051   2.777   2.124  10.019  0.6500  0.5443  0.5323
30122SOL    HW295052   2.639   2.163  10.069  0.4220 -0.0544  0.3733
30123SOL     OW95053   1.908  10.808   5.746  0.3201  0.7334 -0.0126
30123SOL    HW195054   1.921  10.892   5.702  0.4929 -0.2633 -2.0198
30123SOL    HW295055   1.983  10.755   5.718  0.3582 -0.0102  1.4444
30124SOL     OW95056   9.002   9.652   8.370 -0.1091 -0.4992  0.1317
30124SOL    HW195057   9.040   9.740   8.376 -0.3650 -0.4699  1.8085
30124SOL    HW295058   9.073   9.594   8.396 -0.1252 -0.7346 -0.3563
30125SOL     OW95059   6.689   0.658   2.021 -0.2445 -0.2952  0.0404
30125SOL    HW195060   6.737   0.587   1.978  0.9798  1.1998 -1.1871
30125SOL    HW295061   6.741   0.679   2.098  0.0368  0.0216 -0.2303
30126SOL     OW95062   8.414   5.388   2.266 -0.4023  0.8946 -0.1957
30126SOL    HW195063   8.356   5.433   2.205 -0.3736 -1.8963 -2.4908
30126SOL    HW295064   8.355   5.345   2.327 -0.8378 -1.1818 -1.9694
30127SOL     OW95065   8.271   3.162   0.539  0.1285 -0.0173 -0.3360
30127SOL    HW195066   8.364   3.141   0.539 -0.3093 -2.2115 -1.4784
30127SOL    HW295067   8.229   3.088   0.584 -1.0474  1.2249  0.7371
30128SOL     OW95068   3.805  11.548   7.844 -0.5643  0.0033 -0.0964
30128SOL    HW195069   3.867  11.476   7.848 -0.0030  0.5180  0.6599
30128SOL    HW295070   3.842  11.616   7.900 -1.1958  0.8002 -0.6072
30129SOL     OW95071  10.904   6.185  11.521 -0.2461  0.7874  0.3257
30129SOL    HW195072  10.817   6.150  11.539 -0.4252  0.4230 -1.1628
30129SOL    HW295073  10.957   6.154  11.595 -1.0839 -0.0585  0.6011
30130SOL     OW95074   5.220   5.346   7.482 -0.6156 -0.1118  0.0591
30130SOL    HW195075   5.277   5.289   7.431 -0.8409 -0.5798  0.3193
30130SOL    HW295076   5.233   5.319   7.573  0.6633  1.4948  0.3991
30131SOL     OW95077  10.654   5.242   8.092  0.5573 -0.0243  0.2078
30131SOL    HW195078  10.688   5.286   8.015 -0.4197  1.9335  0.8382
30131SOL    HW295079  10.684   5.151   8.083  0.7596  0.2233 -2.2650
30132SOL     OW95080   9.269   2.382   0.921  0.1133 -0.3256  0.2869
30132SOL    HW195081   9.195   2.413   0.974 -0.8259 -1.8687 -0.0411
30132SOL    HW295082   9.341   2.372   0.983 -0.3419 -0.0736  0.8670
30133SOL     OW95083   6.855   0.209   0.785 -0.5161 -0.0179 -0.1630
30133SOL    HW195084   6.848   0.194   0.691  0.0529 -0.2498 -0.1750
30133SOL    HW295085   6.938   0.255   0.795 -2.5900  4.2477 -0.2569
30134SOL     OW95086   5.230   7.942  11.973 -0.5128 -0.4856 -0.4206
30134SOL    HW195087   5.296   7.890  11.927 -0.8064  0.2559 -1.7526
30134SOL    HW295088   5.242   7.921  12.066  2.5802  0.7111 -0.4465
30135SOL     OW95089   0.674   3.864   4.366  0.4918  0.0600  0.7314
30135SOL    HW195090   0.660   3.912   4.285  0.1434 -0.8442  0.2435
30135SOL    HW295091   0.715   3.928   4.425  1.8112  0.4050 -0.5124
30136SOL     OW95092   0.715   9.048   6.710 -0.0824 -0.4231  0.1909
30136SOL    HW195093   0.757   9.086   6.633  0.8841 -1.3456  0.2337
30136SOL    HW295094   0.758   9.092   6.784  0.5599 -1.0813  0.2262
30137SOL     OW95095  10.546  11.430   6.292 -0.0719  0.1318  0.0182
30137SOL    HW195096  10.517  11.445   6.203 -0.2381 -0.2827  0.0034
30137SOL    HW295097  10.638  11.457   6.292 -0.2024  0.5880 -0.1548
30138SOL     OW95098   2.056   0.528   3.850 -0.4350  0.3213  0.2375
30138SOL    HW195099   2.143   0.521   3.890 -0.1369  0.9582 -0.2889
30138SOL    HW295100   2.026   0.617   3.872  0.0278  0.9476 -1.5093
30139SOL     OW95101   3.680   3.692   0.698 -0.2815 -0.8785 -0.2200
30139SOL    HW195102   3.623   3.644   0.639 -0.3283  1.6184 -2.3838
30139SOL    HW295103   3.650   3.782   0.693  4.0733  0.7423 -1.9904
30140SOL     OW95104   0.357   4.890   3.093 -0.0917 -0.0076 -0.2577
30140SOL    HW195105   0.421   4.878   3.022 -0.6259  0.1390 -0.7724
30140SOL    HW295106   0.308   4.808   3.095  0.0892 -0.1092  0.1182
30141SOL     OW95107  10.663   4.636   0.483 -0.5708 -0.2280 -0.0085
30141SOL    HW195108  10.718   4.710   0.455 -0.5297 -0.6329 -1.0247
30141SOL    HW295109  10.723   4.561   0.485 -1.0359 -0.6446 -0.9972
30142SOL     OW95110   7.296   7.297   4.198 -0.4669  0.1792  0.1702
30142SOL    HW195111   7.359   7.267   4.133  0.3895  0.0134  1.0607
30142SOL    HW295112   7.284   7.390   4.178 -1.1400 -0.1332 -0.9657
30143SOL     OW95113  11.934   7.799   0.450  0.1381 -0.4936 -0.0843
30143SOL    HW195114  11.956   7.735   0.518  1.6657  0.2126  0.1214
30143SOL    HW295115  11.856   7.844   0.484  0.9847 -0.0198  1.3243
30144SOL     OW95116  11.272   7.120   1.085  0.0231  0.3161  0.0887
30144SOL    HW195117  11.199   7.062   1.108 -0.2073  0.4716 -0.2384
30144SOL    HW295118  11.348   7.081   1.129 -0.2110  0.0143  0.2323
30145SOL     OW95119   3.880   2.864   7.805 -0.2863 -0.1021 -0.0421
30145SOL    HW195120   3.943   2.935   7.800 -0.1091 -0.3159 -1.2167
30145SOL    HW295121   3.798   2.906   7.830  0.4248  0.0845  2.2219
30146SOL     OW95122   2.511   1.801  10.235  0.1670  0.3124  0.5453
30146SOL    HW195123   2.453   1.749  10.290  0.8421  1.7625  2.7395
30146SOL    HW295124   2.475   1.792  10.146 -0.2793 -3.0356  0.9581
30147SOL     OW95125   7.714   1.462  10.737 -0.3649 -0.0150  0.2213
30147SOL    HW195126   7.692   1.371  10.755  1.3526 -0.7894 -1.1623
30147SOL    HW295127   7.646   1.492  10.678  0.2497 -1.1944 -1.1591
30148SOL     OW95128   2.394   3.119   6.605  0.1639  0.5579  0.0280
30148SOL    HW195129   2.382   3.029   6.574 -1.7669  0.6793  0.2847
30148SOL    HW295130   2.305   3.153   6.615  0.8116  1.9427  1.5748
30149SOL     OW95131   8.938  11.907  11.239  0.0232  0.2421  0.7460
30149SOL    HW195132   9.024  11.926  11.278  0.4816 -1.8261  0.8389
30149SOL    HW295133   8.908  11.829  11.284 -0.4461 -0.9233 -1.4547
30150SOL     OW95134   0.555  10.164  10.086  0.1274  0.2169 -0.4325
30150SOL    HW195135   0.620  10.176  10.155 -0.8136  0.4459  0.4204
30150SOL    HW295136   0.517  10.078  10.103 -0.1215  0.2810 -0.6562
30151SOL     OW95137   0.237  11.097   5.544  0.2637  0.2534 -0.8423
30151SOL    HW195138   0.195  11.076   5.627 -2.4957 -0.6338 -2.3365
30151SOL    HW295139   0.312  11.038   5.539  1.0208  0.9266  1.3296
30152SOL     OW95140   4.175   5.425   4.306  0.0193  0.3290 -0.3825
30152SOL    HW195141   4.145   5.452   4.219  3.2821  0.7712 -1.5089
30152SOL    HW295142   4.198   5.332   4.295  0.8209  0.4906 -0.1387
30153SOL     OW95143   6.422   3.647   1.409  0.0485 -0.4214  0.3108
30153SOL    HW195144   6.407   3.741   1.403 -2.2793 -0.6895  0.9115
30153SOL    HW295145   6.459   3.633   1.497 -0.1958 -0.1415  0.4559
30154SOL     OW95146   1.394   3.423   9.583 -0.3344 -0.1357 -0.1270
30154SOL    HW195147   1.489   3.423   9.588 -0.3141 -0.2844 -0.5115
30154SOL    HW295148   1.365   3.442   9.672  0.0387 -1.8587  0.3960
30155SOL     OW95149   4.229   9.089   9.961 -0.3821  0.5604  0.2744
30155SOL    HW195150   4.305   9.122   9.914  0.2238 -3.7974 -2.3518
30155SOL    HW295151   4.263   9.070  10.049  2.2503 -2.4837 -1.1572
30156SOL     OW95152  11.572  11.487   6.903  0.0456 -0.1670  0.0459
30156SOL    HW195153  11.532  11.444   6.828 -1.2928 -0.5175  0.9243
30156SOL    HW295154  11.534  11.574   6.905  0.9105  0.2303 -0.3039
30157SOL     OW95155   1.652   0.466   8.851  0.4116  1.0878 -0.2262
30157SOL    HW195156   1.633   0.379   8.818 -0.0503  1.0940  0.0133
30157SOL    HW295157   1.601   0.525   8.796 -0.1432  1.1195  0.3050
30158SOL     OW95158   1.447   2.352   4.638 -0.1953  0.7946  0.1777
30158SOL    HW195159   1.368   2.299   4.639  1.4296 -1.8160  0.7029
30158SOL    HW295160   1.474   2.354   4.546 -1.8876  3.5397 -0.3849
30159SOL     OW95161   9.042   3.300   4.445 -0.1153  0.0048 -0.3569
30159SOL    HW195162   8.984   3.253   4.504  0.4571 -0.2068  0.0501
30159SOL    HW295163   9.129   3.261   4.460  0.3683  1.1633 -0.0292
30160SOL     OW95164   7.569   3.523   9.265 -0.1167 -0.2423 -0.4516
30160SOL    HW195165   7.524   3.450   9.307 -1.3233 -0.1374 -1.4902
30160SOL    HW295166   7.552   3.511   9.172  1.5629  0.1406 -0.8445
30161SOL     OW95167  10.143   3.606   0.068 -0.1011 -0.8538 -0.2812
30161SOL    HW195168  10.139   3.693   0.107 -0.0803 -0.9151 -0.1435
30161SOL    HW295169  10.214   3.562   0.114  0.1460 -0.8114 -0.6187
30162SOL     OW95170   5.115   3.275  10.191 -0.7068 -0.0208  0.1756
30162SOL    HW195171   5.143   3.358  10.154  1.3642 -0.6183  0.2360
30162SOL    HW295172   5.162   3.269  10.275 -0.9719 -1.1332  0.2674
30163SOL     OW95173  11.860   8.347   8.607 -0.7544  0.6935 -0.0747
30163SOL    HW195174  11.818   8.416   8.658 -0.4216  0.1666  0.9185
30163SOL    HW295175  11.877   8.388   8.522 -1.2557  1.5898  0.2428
30164SOL     OW95176   0.048   1.383   1.296 -0.4258 -0.7324  0.0232
30164SOL    HW195177   0.016   1.419   1.213 -0.9823  0.8740  0.8987
30164SOL    HW295178  -0.032   1.354   1.341 -0.1308 -1.5662  0.0244
30165SOL     OW95179   1.143  10.424   4.779  0.0371 -0.5345  0.1210
30165SOL    HW195180   1.153  10.519   4.781  0.7835 -0.6136  0.6832
30165SOL    HW295181   1.233  10.390   4.777 -0.1433 -1.2385  1.8121
30166SOL     OW95182  10.817   0.119   3.701 -0.2226 -0.3357 -0.3695
30166SOL    HW195183  10.879   0.053   3.671  1.4221  2.3365 -3.4355
30166SOL    HW295184  10.869   0.181   3.752 -0.5202  1.2664 -1.9066
30167SOL     OW95185   8.694  11.741   4.554  0.7451 -0.3760 -0.1814
30167SOL    HW195186   8.707  11.751   4.648  1.4992 -0.6350 -0.2559
30167SOL    HW295187   8.776  11.705   4.522  0.6825  0.2045 -1.0177
30168SOL     OW95188   6.115   4.916  10.052  0.3679  0.3669  0.2767
30168SOL    HW195189   6.078   4.955   9.972  0.1265  0.0403  0.2265
30168SOL    HW295190   6.114   4.987  10.115  1.0071  0.7606 -0.1522
30169SOL     OW95191   7.154   5.189   1.744 -0.1667  0.0106 -0.2754
30169SOL    HW195192   7.187   5.180   1.654  0.1054 -1.2743 -0.0739
30169SOL    HW295193   7.169   5.103   1.783 -0.7645  0.3991  0.8471
30170SOL     OW95194   7.291   4.069   4.010 -0.2327  0.1441 -0.2489
30170SOL    HW195195   7.269   3.976   4.014 -2.0784  0.5850  1.7381
30170SOL    HW295196   7.373   4.077   4.059  0.7272 -0.5584 -1.6462
30171SOL     OW95197  11.789  10.511   1.957 -0.7312 -0.4124 -0.1993
30171SOL    HW195198  11.726  10.568   1.915 -0.6213 -0.3648 -0.2983
30171SOL    HW295199  11.748  10.487   2.041 -0.2602  0.7857  0.3899
30172SOL     OW95200   8.162   5.662   8.006  0.9473 -0.2796  0.4400
30172SOL    HW195201   8.130   5.738   8.055 -0.8458 -0.4355 -0.4019
30172SOL    HW295202   8.172   5.593   8.072 -0.2921 -0.1481  0.7877
30173SOL     OW95203  10.926   8.880   9.675  0.5628  0.5745 -0.4972
30173SOL    HW195204  10.985   8.943   9.716  1.6539 -0.6541 -0.1139
30173SOL    HW295205  10.841   8.899   9.714  0.7829  2.0444 -0.6784
30174SOL     OW95206  10.324   7.512   7.886  0.5973  0.1286 -0.2551
30174SOL    HW195207  10.306   7.586   7.828  0.7807 -0.2275 -0.7702
30174SOL    HW295208  10.408   7.534   7.927 -0.6435  1.5082  1.7017
30175SOL     OW95209  10.406   3.697   5.439  0.0418 -0.0170 -0.9124
30175SOL    HW195210  10.484   3.722   5.489 -0.9347 -0.5556  0.9807
30175SOL    HW295211  10.357   3.641   5.499 -0.5147 -1.9307 -3.0147
30176SOL     OW95212   8.953   5.690  11.433  0.2469  0.0551 -0.1000
30176SOL    HW195213   8.951   5.628  11.360 -1.8986 -0.9128  0.7059
30176SOL    HW295214   9.034   5.669  11.480 -0.1461 -1.8177 -0.1628
30177SOL     OW95215   1.637   2.162   5.773  0.1042  0.3431  0.3901
30177SOL    HW195216   1.672   2.088   5.824  1.1541  0.3859 -0.2286
30177SOL    HW295217   1.711   2.223   5.767 -0.2136  0.6437 -0.5924
30178SOL     OW95218   2.140   8.171   5.832  0.0988 -0.2164  0.1727
30178SOL    HW195219   2.059   8.128   5.807 -1.1392  0.8829  2.0280
30178SOL    HW295220   2.180   8.198   5.750 -1.0260 -1.4279 -0.8080
30179SOL     OW95221   8.840   5.312   7.809 -0.1130  0.0737 -0.3442
30179SOL    HW195222   8.929   5.315   7.842 -0.2386  2.5577 -0.0565
30179SOL    HW295223   8.837   5.233   7.755  2.2324 -0.0843 -0.3368
30180SOL     OW95224   9.702   1.303   3.351  0.0277  0.0855  0.7554
30180SOL    HW195225   9.753   1.356   3.412 -0.0124 -0.6537  1.4541
30180SOL    HW295226   9.616   1.344   3.350  0.5793  1.3308 -0.4165
30181SOL     OW95227   2.080   6.889   7.271  0.2747  0.5090  0.2191
30181SOL    HW195228   1.998   6.878   7.320  0.5780 -0.9288  0.4218
30181SOL    HW295229   2.074   6.825   7.200  0.8773  0.9742 -0.2635
30182SOL     OW95230   6.327   5.905  11.063  0.0530 -0.5073 -0.8987
30182SOL    HW195231   6.237   5.881  11.086  0.2366 -0.2992  0.0603
30182SOL    HW295232   6.379   5.879  11.139  0.8424 -0.7894 -1.5160
30183SOL     OW95233   0.621   5.825   1.054  0.4548 -0.1350  0.5168
30183SOL    HW195234   0.652   5.892   0.993  0.1559 -1.1884 -0.8623
30183SOL    HW295235   0.562   5.771   1.001  1.5691 -2.1717  1.2555
30184SOL     OW95236   8.956   1.312   3.430  0.1660  0.0219  0.5287
30184SOL    HW195237   8.888   1.245   3.426  1.2366 -1.0611 -3.6671
30184SOL    HW295238   9.037   1.264   3.441  0.7654  0.7633 -0.4829
30185SOL     OW95239  11.890   6.722  11.433 -0.0406  0.3663  0.0109
30185SOL    HW195240  11.889   6.637  11.389 -1.9549  0.6718 -0.6639
30185SOL    HW295241  11.928   6.782  11.368  0.2076  0.2415  0.0392
30186SOL     OW95242  11.369   4.887   9.096  0.1794  0.2231 -0.1342
30186SOL    HW195243  11.366   4.795   9.124 -0.1385  0.5854  1.0399
30186SOL    HW295244  11.362   4.937   9.177 -2.8920  1.3334 -0.9423
30187SOL     OW95245   2.396   7.559  10.541  0.0382 -0.3857 -0.1623
30187SOL    HW195246   2.321   7.613  10.515 -0.1520 -0.9962 -0.9435
30187SOL    HW295247   2.469   7.620  10.545 -0.5225  0.2420  0.7512
30188SOL     OW95248   7.544   2.883   9.017  0.7965 -0.0222  0.1948
30188SOL    HW195249   7.508   2.825   9.084  0.0027 -0.1229 -0.3043
30188SOL    HW295250   7.519   2.842   8.934  2.1813 -0.1617 -0.1879
30189SOL     OW95251   4.228   7.131  10.361  0.0034  0.2983 -0.4408
30189SOL    HW195252   4.245   7.148  10.268 -0.2763 -2.3436 -1.0495
30189SOL    HW295253   4.140   7.168  10.376 -0.8536 -1.0495 -1.8177
30190SOL     OW95254   9.749  10.091   5.651  0.1402  0.1270  0.5873
30190SOL    HW195255   9.664  10.107   5.691 -0.2384  0.1737 -0.2003
30190SOL    HW295256   9.806  10.160   5.685 -0.0770 -0.0368  1.2913
30191SOL     OW95257   2.231  10.199   8.115 -0.0804 -0.2197 -0.6379
30191SOL    HW195258   2.271  10.235   8.035  0.7109 -1.5919 -0.8929
30191SOL    HW295259   2.304  10.159   8.162 -0.4412  1.0736  1.0980
30192SOL     OW95260   0.469  10.666  11.237 -0.0866  0.1927 -0.0334
30192SOL    HW195261   0.458  10.761  11.226 -1.2814  0.1452  0.5554
30192SOL    HW295262   0.479  10.632  11.148 -2.0470  0.6176 -0.4491
30193SOL     OW95263   9.653   2.865   3.073  0.3308  0.2126  0.5600
30193SOL    HW195264   9.677   2.921   2.999  0.5400 -0.0351  0.4400
30193SOL    HW295265   9.734   2.855   3.123  0.0891  0.7521  1.0777
30194SOL     OW95266   2.682   6.399   6.716 -0.0632  0.2680  0.2793
30194SOL    HW195267   2.718   6.310   6.708  0.3236  0.3494  0.9838
30194SOL    HW295268   2.627   6.410   6.639 -0.0397 -0.5550  0.1364
30195SOL     OW95269   2.451   4.432   3.801 -0.4504 -0.2327  0.6385
30195SOL    HW195270   2.499   4.360   3.841  0.1973 -0.8653 -1.1770
30195SOL    HW295271   2.359   4.414   3.821 -0.2617 -1.3786  0.5217
30196SOL     OW95272   2.362   0.253  10.760  0.6249 -0.0456  0.5533
30196SOL    HW195273   2.292   0.223  10.819  0.6694 -0.8242  0.2303
30196SOL    HW295274   2.323   0.327  10.713  0.1596 -0.2025  0.6822
30197SOL     OW95275   0.651   3.365  10.802 -0.0962 -0.0203 -0.3394
30197SOL    HW195276   0.663   3.437  10.740 -1.2398  1.3681  0.9677
30197SOL    HW295277   0.575   3.317  10.769 -1.7043  1.6461  0.7323
30198SOL     OW95278  11.359  11.027   1.181 -0.6668  0.6201  0.0338
30198SOL    HW195279  11.316  10.960   1.233 -0.2989  0.1631 -0.2489
30198SOL    HW295280  11.366  10.989   1.094 -1.2244  1.3562 -0.3435
30199SOL     OW95281   1.247   0.522  11.566 -0.5311  0.3113  0.1227
30199SOL    HW195282   1.331   0.510  11.610  0.2377 -1.1488 -1.6175
30199SOL    HW295283   1.188   0.461  11.609  0.2370 -1.1725 -0.8523
30200SOL     OW95284   7.614   0.671  11.285  0.4970  0.5579  1.0348
30200SOL    HW195285   7.621   0.616  11.363 -0.5119  1.7346  2.0046
30200SOL    HW295286   7.536   0.639  11.240  1.0177 -0.0508  0.5520
30201SOL     OW95287   9.924   3.782   6.222  1.1456  0.1866  0.3470
30201SOL    HW195288   9.962   3.863   6.255  1.6284 -0.2590  0.8885
30201SOL    HW295289   9.992   3.716   6.233  0.2785 -0.5915  1.2101
30202SOL     OW95290   1.734   0.916  11.768 -0.4079  0.0550 -0.2630
30202SOL    HW195291   1.728   0.994  11.824 -0.0704 -1.2439  1.6839
30202SOL    HW295292   1.816   0.874  11.794  0.1856 -0.1884 -2.3652
30203SOL     OW95293   0.315   5.243   8.685 -0.0917 -0.2102  0.3419
30203SOL    HW195294   0.269   5.187   8.623  0.7175  0.6867 -1.1121
30203SOL    HW295295   0.388   5.189   8.715 -0.3470 -0.5616  0.3434
30204SOL     OW95296   0.321  10.538  11.429  0.2967  0.2278  0.4433
30204SOL    HW195297   0.374  10.548  11.350  0.0644 -1.4010  0.0471
30204SOL    HW295298   0.385  10.542  11.501  0.5476  1.3974  0.1621
30205SOL     OW95299   2.818   3.438  11.865  0.1525 -0.1327  0.1974
30205SOL    HW195300   2.808   3.498  11.939 -0.9874  0.4080 -0.3773
30205SOL    HW295301   2.736   3.445  11.817  0.5251 -1.1640 -0.6257
30206SOL     OW95302   7.397   0.200   8.130  0.1494  0.3555 -0.3304
30206SOL    HW195303   7.322   0.226   8.184  0.9433 -0.3264  1.1655
30206SOL    HW295304   7.425   0.116   8.167  0.3921 -0.4358 -2.1854
30207SOL     OW95305   4.472   3.320  10.712  0.2429 -0.1866 -0.3169
30207SOL    HW195306   4.524   3.313  10.792  0.8022  0.0940 -0.6492
30207SOL    HW295307   4.435   3.408  10.715  1.8795  0.5936 -1.3084
30208SOL     OW95308   1.779   1.835   5.065 -0.3817 -0.4378  0.1260
30208SOL    HW195309   1.829   1.759   5.093 -1.4975 -0.7586  1.3695
30208SOL    HW295310   1.724   1.802   4.993 -1.1711 -0.9519  0.9386
30209SOL     OW95311   0.018   3.452   0.151  0.1745  0.3499  0.3405
30209SOL    HW195312   0.044   3.433   0.241  0.2097 -1.7628 -0.0666
30209SOL    HW295313  -0.078   3.456   0.154  0.1538 -0.1077  0.4255
30210SOL     OW95314   3.555   8.612   5.249  0.1871 -0.4830  0.1070
30210SOL    HW195315   3.570   8.531   5.298 -0.5353 -0.8041 -0.1798
30210SOL    HW295316   3.589   8.594   5.161  1.3725  0.0519  0.4407
30211SOL     OW95317   7.422   6.874   7.210  0.6002  0.3999 -0.1259
30211SOL    HW195318   7.462   6.951   7.169  1.0343  0.3407  0.1813
30211SOL    HW295319   7.368   6.909   7.280 -0.5012  0.5357 -1.0071
30212SOL     OW95320   7.252   5.110   2.605  0.0535  0.5430 -0.3304
30212SOL    HW195321   7.199   5.177   2.649 -1.1339 -0.6037  0.0349
30212SOL    HW295322   7.247   5.034   2.663  1.4743  0.1482 -0.6915
30213SOL     OW95323   3.582   7.608   1.196 -0.1615 -0.4286 -0.2968
30213SOL    HW195324   3.553   7.606   1.287  0.3814 -0.0811 -0.1151
30213SOL    HW295325   3.516   7.661   1.151 -0.3473 -0.4736 -0.0772
30214SOL     OW95326   6.219   1.316   9.385 -0.5197 -0.3817  0.2445
30214SOL    HW195327   6.190   1.407   9.384 -1.5128 -0.5419  3.3781
30214SOL    HW295328   6.308   1.319   9.351 -1.1435  1.4521 -1.3998
30215SOL     OW95329   8.925   6.218   0.082 -0.1162  0.1205 -0.4327
30215SOL    HW195330   8.905   6.147   0.021  0.5706  0.7822 -1.4729
30215SOL    HW295331   9.018   6.236   0.068  0.0086  0.3984  0.7024
30216SOL     OW95332   5.866   9.231   1.488  0.3930 -0.3048 -0.0683
30216SOL    HW195333   5.949   9.267   1.456 -0.7002  2.4132 -0.0718
30216SOL    HW295334   5.880   9.218   1.582  0.6361  0.7868  0.0554
30217SOL     OW95335   1.494   0.918   1.468 -0.1259 -0.1184 -0.5431
30217SOL    HW195336   1.488   0.988   1.533 -0.1779 -2.2351  1.8309
30217SOL    HW295337   1.585   0.888   1.473 -0.5870 -1.4956 -0.1315
30218SOL     OW95338   4.110   2.638   9.982  0.6391  0.6430  0.0702
30218SOL    HW195339   4.083   2.549  10.005  1.1457  0.4935  0.1064
30218SOL    HW295340   4.146   2.631   9.894  0.1372  0.9245 -0.1588
30219SOL     OW95341   7.924   0.013  10.265 -0.4560 -0.5297  0.2168
30219SOL    HW195342   7.980   0.069  10.211  0.5684 -1.1352  0.6140
30219SOL    HW295343   7.908   0.064  10.345 -0.7064 -0.2448 -0.0131
30220SOL     OW95344   9.434  10.226   6.879  0.0748  0.1430  0.0091
30220SOL    HW195345   9.490  10.148   6.877  0.8931  0.7079  0.3615
30220SOL    HW295346   9.446  10.266   6.793  0.5398  0.4892  0.2343
30221SOL     OW95347   2.719   1.764   0.546  0.2228  0.1231 -0.0227
30221SOL    HW195348   2.757   1.844   0.509  0.2278 -0.0996 -0.5073
30221SOL    HW295349   2.771   1.748   0.625 -0.3562  1.0851  0.5747
30222SOL     OW95350   0.600   1.370   1.686 -0.0121  0.7911  0.0815
30222SOL    HW195351   0.677   1.373   1.743  0.3831 -0.1856 -0.3719
30222SOL    HW295352   0.531   1.334   1.740  0.7701 -1.6748 -0.4492
30223SOL     OW95353   0.251   0.612   3.858 -0.1964  0.5979  0.6572
30223SOL    HW195354   0.279   0.522   3.844 -2.4784  0.0677 -1.0179
30223SOL    HW295355   0.331   0.657   3.886  1.3552 -1.6042  0.0927
30224SOL     OW95356   3.416   1.975  11.084  0.0006  0.2041  0.3086
30224SOL    HW195357   3.498   1.930  11.063  0.8143  2.1078 -0.8269
30224SOL    HW295358   3.364   1.968  11.004 -1.1499 -1.2685  1.1206
30225SOL     OW95359   5.766  10.358   6.007 -0.4381 -0.7563  0.2766
30225SOL    HW195360   5.684  10.317   6.032 -2.0928  1.4030 -1.1862
30225SOL    HW295361   5.773  10.434   6.065 -0.9181  0.5535 -1.2897
30226SOL     OW95362  11.069  11.723   1.862  0.5103 -0.2070 -0.1278
30226SOL    HW195363  11.110  11.748   1.945 -0.5199 -1.2435  0.7318
30226SOL    HW295364  11.106  11.637   1.843 -0.7611 -0.9016  0.3662
30227SOL     OW95365  11.661  10.235  11.027  0.2335  0.6014  0.6051
30227SOL    HW195366  11.619  10.149  11.039  0.9297  0.2060  0.2655
30227SOL    HW295367  11.588  10.297  11.029 -0.2657  0.0197  1.0017
30228SOL     OW95368   6.377   6.310   6.803 -0.2185  0.4646  0.0766
30228SOL    HW195369   6.385   6.237   6.865  0.6543  0.6500  0.2057
30228SOL    HW295370   6.323   6.275   6.732 -0.2034 -0.1559  0.3566
30229SOL     OW95371   7.755   1.128  10.553 -0.0748  0.4567 -0.1161
30229SOL    HW195372   7.823   1.187  10.587 -0.7452  0.7556  0.7465
30229SOL    HW295373   7.774   1.044  10.594 -0.1402  0.4997 -0.0002
30230SOL     OW95374   1.316   1.959  10.424 -0.9568 -0.2693 -0.2301
30230SOL    HW195375   1.241   1.901  10.434 -0.1984 -1.4339 -1.1121
30230SOL    HW295376   1.381   1.926  10.485 -0.3041 -0.7511 -1.1510
30231SOL     OW95377   4.283  11.573   2.640 -0.0128  0.9537  0.2275
30231SOL    HW195378   4.214  11.638   2.651 -0.6686  0.3385 -0.1556
30231SOL    HW295379   4.364  11.621   2.658 -0.4413  1.9930 -0.5058
30232SOL     OW95380   9.041   4.313  11.292  0.2291  0.6009 -0.1925
30232SOL    HW195381   9.097   4.380  11.332  2.6454 -0.4202 -1.6084
30232SOL    HW295382   9.102   4.257  11.244 -2.0714 -0.6047 -1.9076
30233SOL     OW95383  11.573   8.436   6.913 -0.1001  0.4080  0.3515
30233SOL    HW195384  11.652   8.430   6.967  0.0204 -1.7218  0.0028
30233SOL    HW295385  11.604   8.423   6.823 -0.9282 -1.4508  0.2989
30234SOL     OW95386   4.290   8.039   0.382 -0.0386 -0.6042  0.3949
30234SOL    HW195387   4.262   7.961   0.430  0.9253 -0.7768  0.6803
30234SOL    HW295388   4.383   8.027   0.368  0.4280  1.1328  1.6551
30235SOL     OW95389   0.210   8.220   8.198 -0.1002 -0.7566  0.2501
30235SOL    HW195390   0.271   8.216   8.272  1.7559 -3.3659 -1.2589
30235SOL    HW295391   0.266   8.210   8.121 -2.3365 -2.6885 -1.2435
30236SOL     OW95392   5.906   2.546   2.029  0.1631  1.0094 -0.6359
30236SOL    HW195393   5.888   2.510   1.942  0.0592 -0.9503  0.1322
30236SOL    HW295394   5.831   2.520   2.082  1.1529  0.3525  0.5068
30237SOL     OW95395   8.257   2.881   3.155  0.2763 -0.0037 -0.4962
30237SOL    HW195396   8.244   2.786   3.151 -1.0374  0.1803 -1.0267
30237SOL    HW295397   8.173   2.918   3.130  0.2092  1.3215  1.4776
30238SOL     OW95398  11.285  11.123  11.987 -0.1337  0.0790 -0.3328
30238SOL    HW195399  11.380  11.109  11.982 -0.3414 -1.2312 -1.0873
30238SOL    HW295400  11.251  11.084  11.907 -1.5330 -1.5897  0.9914
30239SOL     OW95401   4.055  10.803   4.164  0.3317 -0.7989 -0.1578
30239SOL    HW195402   4.143  10.831   4.140  0.2555 -1.8458 -1.8215
30239SOL    HW295403   4.061  10.708   4.175 -0.3231 -0.7249  1.0174
30240SOL     OW95404   4.313   9.469   1.343  0.7176 -0.2700 -0.0014
30240SOL    HW195405   4.220   9.471   1.318  0.4740  0.2757  0.9106
30240SOL    HW295406   4.313   9.436   1.433  1.4226 -0.3236 -0.0165
30241SOL     OW95407   7.213  10.191   9.905  0.0533 -0.5914 -0.1609
30241SOL    HW195408   7.261  10.199   9.987  1.3873 -2.4013 -0.7205
30241SOL    HW295409   7.242  10.109   9.867 -2.4987 -1.1157 -1.2195
30242SOL     OW95410   6.898  11.680   2.397 -0.2921  0.2320 -0.2785
30242SOL    HW195411   6.958  11.720   2.460 -0.8034  0.9870 -0.2591
30242SOL    HW295412   6.955  11.633   2.336  0.2204 -0.3876  0.6529
30243SOL     OW95413   8.282   2.915   8.008 -0.2013 -0.4685 -0.3260
30243SOL    HW195414   8.345   2.847   8.027 -0.9601 -1.3320 -0.8249
30243SOL    HW295415   8.286   2.927   7.913 -0.0581  0.2081 -0.2440
30244SOL     OW95416   9.235   3.648  11.209  0.4199  0.4569  0.5411
30244SOL    HW195417   9.219   3.670  11.118  0.4555 -0.2265  0.3598
30244SOL    HW295418   9.274   3.560  11.206 -0.8783 -0.1799  1.2842
30245SOL     OW95419   9.403   0.173   6.511 -0.4297 -0.5994 -0.0346
30245SOL    HW195420   9.333   0.135   6.457  0.1376 -0.1418 -1.1149
30245SOL    HW295421   9.461   0.215   6.449  0.0038  0.3552  0.9901
30246SOL     OW95422  11.854   8.336   7.887 -0.4327 -0.2008  0.0857
30246SOL    HW195423  11.849   8.430   7.870 -1.3426 -0.2567  0.0102
30246SOL    HW295424  11.805   8.324   7.968  0.6103 -0.4729  0.7021
30247SOL     OW95425  11.369  11.233  10.893  0.0798 -0.2077  0.0764
30247SOL    HW195426  11.452  11.252  10.849  0.2752  1.4976  1.0839
30247SOL    HW295427  11.306  11.293  10.852 -0.4200 -0.7421  0.0510
30248SOL     OW95428   9.542   1.070   5.829 -0.1097  0.0392 -0.1525
30248SOL    HW195429   9.581   1.130   5.892 -0.8626  0.5449 -0.1526
30248SOL    HW295430   9.556   1.113   5.744  0.1841 -0.2468 -0.2496
30249SOL     OW95431   3.840   6.478   0.628  0.1683  0.3210 -0.1242
30249SOL    HW195432   3.884   6.393   0.623  1.6731  1.1369 -1.2212
30249SOL    HW295433   3.889   6.535   0.569  0.8331  2.6978  2.4867
30250SOL     OW95434  10.960   4.785   2.054 -0.0705  0.0440  0.4555
30250SOL    HW195435  10.996   4.731   1.984 -1.3982 -0.8746  0.4456
30250SOL    HW295436  10.921   4.860   2.008 -0.4006 -0.2480  0.2502
30251SOL     OW95437  11.638   8.682   2.501 -0.3556 -0.0214 -0.2789
30251SOL    HW195438  11.646   8.772   2.531 -0.3798 -0.2267  0.3860
30251SOL    HW295439  11.633   8.631   2.582  0.5100 -0.6978 -0.6322
30252SOL     OW95440   8.804   4.750   8.248 -0.0134  0.1265 -0.2049
30252SOL    HW195441   8.721   4.754   8.296 -0.5460 -0.0406 -1.0791
30252SOL    HW295442   8.846   4.834   8.266 -0.7536  0.5500 -0.4115
30253SOL     OW95443   9.995   1.039   1.783 -0.1706  0.0611 -0.2833
30253SOL    HW195444   9.965   1.123   1.748 -0.2496 -0.2486 -0.9793
30253SOL    HW295445  10.067   1.014   1.725  1.3260  0.6809  1.2135
30254SOL     OW95446   9.486   5.940   2.106 -0.3386  0.7777 -0.4873
30254SOL    HW195447   9.480   5.853   2.067  1.5204  0.0593  0.6995
30254SOL    HW295448   9.396   5.962   2.130 -0.5755 -2.0701  1.7404
30255SOL     OW95449   3.485   4.144  11.596  0.3683 -0.4018 -0.6356
30255SOL    HW195450   3.470   4.050  11.585 -0.2084 -0.4580  0.4596
30255SOL    HW295451   3.539   4.151  11.675 -0.1663  0.2087 -0.3125
30256SOL     OW95452   1.068   7.218   7.575  0.0266  0.1809  0.2554
30256SOL    HW195453   1.162   7.204   7.572 -0.0699 -0.7695  1.0986
30256SOL    HW295454   1.051   7.250   7.663 -0.5315 -0.4820  0.3967
30257SOL     OW95455   3.143   2.886   5.762  0.2246 -0.6060 -0.0750
30257SOL    HW195456   3.148   2.981   5.754 -0.3220 -0.5785 -0.1243
30257SOL    HW295457   3.176   2.852   5.679  1.0171 -0.4791  0.1788
30258SOL     OW95458   0.382   8.560   8.419  0.0129  0.0028  0.3777
30258SOL    HW195459   0.425   8.551   8.335 -0.2631 -1.1455  0.3402
30258SOL    HW295460   0.290   8.573   8.398  0.1448  1.2361  0.4842
30259SOL     OW95461   1.191   6.394  11.112 -0.7181  0.3542 -0.5413
30259SOL    HW195462   1.182   6.489  11.105  0.6765  0.4173 -2.0118
30259SOL    HW295463   1.102   6.363  11.130 -0.8502  2.0769  2.3187
30260SOL     OW95464   0.236   8.640   5.778  0.0682  0.2165  0.2365
30260SOL    HW195465   0.291   8.596   5.843  1.0367 -0.4363 -0.9779
30260SOL    HW295466   0.239   8.732   5.802  0.8139  0.0453  0.8290
30261SOL     OW95467   3.553   1.705   9.830 -0.0109 -0.0923 -0.1544
30261SOL    HW195468   3.622   1.654   9.873 -0.4565 -0.3348  0.2857
30261SOL    HW295469   3.549   1.786   9.880 -0.3357 -0.2564  0.0884
30262SOL     OW95470   8.107   2.654   3.052 -0.0965  0.1656  0.3635
30262SOL    HW195471   8.105   2.684   2.961 -1.3772 -0.3766  0.1827
30262SOL    HW295472   8.168   2.581   3.052  0.1661  0.3801  0.0100
30263SOL     OW95473   7.780   7.846  10.223 -0.4273  0.0548  0.4611
30263SOL    HW195474   7.857   7.891  10.257 -0.8850  1.2868 -0.1023
30263SOL    HW295475   7.714   7.914  10.214 -2.1093 -1.1789  2.3428
30264SOL     OW95476   1.611   3.921   6.517  0.3795 -0.1129 -0.2772
30264SOL    HW195477   1.633   3.882   6.602 -0.1372 -0.8538 -0.4698
30264SOL    HW295478   1.563   4.001   6.538  1.6706  0.5801  0.1308
30265SOL     OW95479   4.624   8.705   2.631  0.0130  0.2743  0.7853
30265SOL    HW195480   4.679   8.750   2.695  0.2988 -0.8569  1.3642
30265SOL    HW295481   4.538   8.699   2.673  0.3874 -1.1243  1.4126
30266SOL     OW95482  11.277   2.469   2.128  0.3207 -1.0795 -0.1890
30266SOL    HW195483  11.313   2.456   2.216  0.2825  0.3571  0.0549
30266SOL    HW295484  11.183   2.456   2.138  0.0880  0.7061  0.3697
30267SOL     OW95485  10.816   5.999   2.256 -0.0904 -0.2343 -0.1183
30267SOL    HW195486  10.774   6.043   2.330 -0.5264  1.2118 -1.1634
30267SOL    HW295487  10.816   6.065   2.187  1.5188 -1.0943 -0.9907
30268SOL     OW95488   3.494  10.817   5.306  0.5469 -0.1391 -0.4136
30268SOL    HW195489   3.489  10.900   5.258  0.2706  0.5734  0.8007
30268SOL    HW295490   3.501  10.843   5.397  2.9056 -1.4191 -0.1512
30269SOL     OW95491   1.558  11.683   9.605  0.2057 -0.5194 -0.6654
30269SOL    HW195492   1.637  11.697   9.659  0.2169  0.3701 -0.8975
30269SOL    HW295493   1.553  11.588   9.594  1.5437 -0.5621 -1.0868
30270SOL     OW95494   6.291   8.527   0.472 -0.4072  0.0614  0.7426
30270SOL    HW195495   6.363   8.589   0.469  0.2321 -0.6977 -0.3702
30270SOL    HW295496   6.224   8.570   0.525  0.7059  0.9426  1.4792
30271SOL     OW95497   5.750   8.001   4.537  0.0874 -0.1026 -0.4638
30271SOL    HW195498   5.846   8.002   4.539  0.1209 -0.0147 -1.5913
30271SOL    HW295499   5.727   8.061   4.467 -0.9398  2.8794  2.2016
30272SOL     OW95500   9.906   3.901   4.639 -0.5964  0.0155  0.1568
30272SOL    HW195501   9.904   3.924   4.732  1.1858  0.4292  0.1203
30272SOL    HW295502   9.996   3.875   4.622 -0.9526 -0.3390 -1.4082
30273SOL     OW95503   5.392   0.996  10.466  0.2067  0.5787 -0.3183
30273SOL    HW195504   5.443   0.925  10.506  0.0629  1.3069  1.2429
30273SOL    HW295505   5.374   0.966  10.377 -0.3630 -1.5911  0.4818
30274SOL     OW95506   0.807   6.141   2.308  0.0634 -0.0902 -0.2629
30274SOL    HW195507   0.892   6.141   2.352  0.3884  0.8247 -0.8441
30274SOL    HW295508   0.781   6.233   2.307 -0.2021 -0.1674 -1.4646
30275SOL     OW95509   5.851   7.786   2.735  0.1673 -0.0227  0.0845
30275SOL    HW195510   5.930   7.778   2.787  1.3051 -0.2701 -1.5984
30275SOL    HW295511   5.882   7.791   2.645 -1.7974 -1.5608 -0.7516
30276SOL     OW95512   5.842   3.567   1.256 -0.0873 -0.2620  0.0685
30276SOL    HW195513   5.897   3.515   1.315  0.3576  1.1839  0.9969
30276SOL    HW295514   5.760   3.518   1.251  0.4923 -1.3217  0.4659
30277SOL     OW95515   3.132   0.710   9.351  0.3928  0.5378 -0.4466
30277SOL    HW195516   3.132   0.804   9.334  1.3319  0.5995 -0.1575
30277SOL    HW295517   3.056   0.695   9.407 -0.4217  0.9417 -1.4102
30278SOL     OW95518   2.926   4.863   7.872  0.6473 -0.2182 -0.2069
30278SOL    HW195519   3.022   4.855   7.872  0.9546  2.4811  0.8173
30278SOL    HW295520   2.908   4.934   7.810 -0.8152 -1.2677 -1.0563
30279SOL     OW95521   6.299   0.098   5.076 -0.2987  0.7427  0.0098
30279SOL    HW195522   6.335   0.184   5.058  0.4272  0.2405 -0.9931
30279SOL    HW295523   6.204   0.109   5.067 -0.1674  1.2917 -0.7170
30280SOL     OW95524   3.094   9.383   4.689 -0.2431 -0.6567 -0.0259
30280SOL    HW195525   3.152   9.452   4.721 -0.8415 -0.5559  0.8966
30280SOL    HW295526   3.142   9.341   4.618  0.1868  0.6198 -0.5156
30281SOL     OW95527   1.968   7.652  10.616  0.0715 -0.1352 -0.1047
30281SOL    HW195528   1.974   7.603  10.698 -0.4561  0.4574  0.3007
30281SOL    HW295529   2.058   7.676  10.595  0.0100  2.8687  2.2815
30282SOL     OW95530   7.861   5.411   7.965  0.1218  0.8164 -0.2877
30282SOL    HW195531   7.945   5.367   7.960  0.0663  0.6872 -0.0817
30282SOL    HW295532   7.834   5.401   8.056  0.5318  2.0636 -0.0129
30283SOL     OW95533   0.683   6.950  10.941  0.2025 -0.1657 -0.3318
30283SOL    HW195534   0.769   6.992  10.937  0.9524 -1.6372 -0.3221
30283SOL    HW295535   0.668   6.920  10.852 -0.1945 -0.1345 -0.2746
30284SOL     OW95536   4.443   1.505   3.823 -0.2899  0.7732 -0.1758
30284SOL    HW195537   4.488   1.423   3.804 -1.2660  0.1660  0.0531
30284SOL    HW295538   4.350   1.482   3.824 -0.5372  1.7360  0.6037
30285SOL     OW95539   1.471   2.855   0.033  0.3986 -0.0389  0.1884
30285SOL    HW195540   1.440   2.822   0.118 -0.3004  0.3987  0.1026
30285SOL    HW295541   1.431   2.941   0.024  1.1586  0.2833 -0.2018
30286SOL     OW95542   2.414  10.407   1.354  0.0182 -0.3951 -0.4994
30286SOL    HW195543   2.356  10.407   1.278  0.1954 -0.9771 -0.6414
30286SOL    HW295544   2.501  10.389   1.318  0.3605  0.8150 -0.3347
30287SOL     OW95545   4.815   0.205   4.391 -0.0308 -0.3785  0.1309
30287SOL    HW195546   4.890   0.242   4.345 -0.3303  1.0633  0.7485
30287SOL    HW295547   4.834   0.220   4.484 -2.0361  2.0859  0.2545
30288SOL     OW95548   2.761   1.049   7.443 -0.3746  0.3015  0.4763
30288SOL    HW195549   2.761   1.035   7.348  0.1548  1.9704  0.2079
30288SOL    HW295550   2.744   0.962   7.479  0.8590 -0.6547 -1.1015
30289SOL     OW95551  10.258   8.924   5.401 -0.0783 -0.2910 -0.2162
30289SOL    HW195552  10.312   8.846   5.419 -1.8181 -1.0993  1.9195
30289SOL    HW295553  10.247   8.924   5.306  1.9403 -1.2420 -0.5108
30290SOL     OW95554   9.991   3.834   4.142 -0.1073 -0.6775 -0.2412
30290SOL    HW195555   9.972   3.751   4.099 -0.1582 -0.8882  0.1763
30290SOL    HW295556   9.918   3.847   4.203 -1.3630  0.8456 -1.9426
30291SOL     OW95557  10.577   2.626   2.288  0.1976  0.0797  0.6625
30291SOL    HW195558  10.562   2.538   2.253 -0.3681  0.1619  0.6818
30291SOL    HW295559  10.495   2.672   2.271  0.7849  0.8598 -0.1126
30292SOL     OW95560   9.132   0.595   0.796  0.8266  0.5565 -0.1002
30292SOL    HW195561   9.141   0.650   0.873 -0.6723  0.0394  0.4900
30292SOL    HW295562   9.049   0.548   0.810  1.6526 -1.2532 -0.9295
30293SOL     OW95563   9.009   2.177   7.501  0.4691 -0.4864  0.4465
30293SOL    HW195564   8.993   2.160   7.594  2.1307 -1.4884  0.5828
30293SOL    HW295565   8.978   2.098   7.456 -2.0745  0.7321 -0.1001
30294SOL     OW95566   7.263   5.575   5.124 -0.0824  0.6099  0.2595
30294SOL    HW195567   7.308   5.531   5.052 -1.6303  0.4306 -0.6360
30294SOL    HW295568   7.234   5.504   5.181 -1.1330  0.5549 -0.3227
30295SOL     OW95569   4.636  11.665   5.867  0.4706 -0.1026 -0.5931
30295SOL    HW195570   4.646  11.586   5.919  1.4972  0.3125 -0.1426
30295SOL    HW295571   4.549  11.657   5.827 -1.3438  0.5557  2.8465
30296SOL     OW95572   5.672   9.772   9.497  1.0518  0.1157  0.0590
30296SOL    HW195573   5.683   9.816   9.413  0.8108 -0.8888 -0.5087
30296SOL    HW295574   5.659   9.844   9.560  0.3584  0.8375 -0.8841
30297SOL     OW95575   3.345   1.867   6.530  0.0347 -0.2197  0.2313
30297SOL    HW195576   3.437   1.889   6.516 -0.2592  0.1565 -1.2920
30297SOL    HW295577   3.323   1.910   6.613  0.7270  1.3712 -0.3619
30298SOL     OW95578   9.769   2.998   3.413 -0.2046  0.4065 -0.0981
30298SOL    HW195579   9.738   2.976   3.501  1.2032  2.8356  1.1096
30298SOL    HW295580   9.694   3.041   3.371 -0.7408 -0.3610  0.0484
30299SOL     OW95581  10.247  11.666   8.415 -0.1242 -0.6903  0.0449
30299SOL    HW195582  10.270  11.723   8.488 -0.2365 -1.3289  0.5850
30299SOL    HW295583  10.198  11.594   8.455  0.9523 -1.7507 -0.4672
30300SOL     OW95584   9.727   3.931   9.949  0.4279  0.0823 -0.4132
30300SOL    HW195585   9.735   3.954  10.041  0.6984 -1.3451 -0.0503
30300SOL    HW295586   9.768   4.003   9.902 -2.0694  2.2109  0.3853
30301SOL     OW95587   1.446   5.326   0.201  0.0321 -0.2629  0.1579
30301SOL    HW195588   1.403   5.346   0.118 -0.6365  0.5130  0.6748
30301SOL    HW295589   1.387   5.361   0.268  0.9426 -0.1557  0.9372
30302SOL     OW95590   2.527  10.338   0.986  0.7065  0.2773  0.2762
30302SOL    HW195591   2.448  10.285   0.993 -0.7024  2.4157  1.5053
30302SOL    HW295592   2.583  10.307   1.059  0.7334 -0.7329 -0.1518
30303SOL     OW95593   3.505   0.542   0.913 -0.4718  0.7960  0.1587
30303SOL    HW195594   3.507   0.478   0.841  1.1244  1.1733 -0.1656
30303SOL    HW295595   3.490   0.626   0.869 -2.1358  0.7380  0.5452
30304SOL     OW95596  11.312   6.040   6.908 -0.4830 -0.5796  0.3169
30304SOL    HW195597  11.301   6.076   6.820 -0.2508  0.3251  0.6521
30304SOL    HW295598  11.397   5.996   6.906 -1.6821 -3.0710 -0.7377
30305SOL     OW95599   7.208   4.414   6.801 -0.2472 -0.0727 -0.5514
30305SOL    HW195600   7.197   4.319   6.813 -4.5888 -0.2442 -3.5968
30305SOL    HW295601   7.211   4.449   6.890 -3.1848 -2.8130  0.8359
30306SOL     OW95602   2.734   6.582   5.025  0.0076  0.2672 -0.4220
30306SOL    HW195603   2.751   6.580   4.931  0.7433 -1.1833 -0.2970
30306SOL    HW295604   2.674   6.509   5.040  0.8722 -0.3080  0.3712
30307SOL     OW95605   8.020   6.766   8.180 -0.5149  0.1583  0.0398
30307SOL    HW195606   7.988   6.769   8.270 -0.2939 -0.7390  0.1583
30307SOL    HW295607   7.963   6.702   8.136 -0.4350  0.3710 -0.3804
30308SOL     OW95608  10.320   2.044   5.503  0.3106 -0.2237 -0.0685
30308SOL    HW195609  10.259   1.982   5.464  1.2667 -0.6603 -0.9278
30308SOL    HW295610  10.332   2.112   5.437  2.6842 -1.4665 -1.0353
30309SOL     OW95611   1.738   0.386   0.861 -0.1045  0.2370 -0.5018
30309SOL    HW195612   1.786   0.445   0.804 -1.3217  0.3896 -1.4038
30309SOL    HW295613   1.672   0.345   0.804 -0.4237 -0.6727  0.4796
30310SOL     OW95614   4.879  10.073   8.562 -0.0949 -0.5957 -0.2583
30310SOL    HW195615   4.961  10.054   8.517 -0.9810  0.5496 -2.4589
30310SOL    HW295616   4.888  10.163   8.592 -1.2017  0.1764 -2.1263
30311SOL     OW95617   4.404   8.677  11.135  0.5507 -0.0939 -0.6395
30311SOL    HW195618   4.460   8.743  11.177  0.8167 -1.3612  1.1281
30311SOL    HW295619   4.315   8.711  11.144  0.7965  0.6809 -1.0553
30312SOL     OW95620  11.993  10.491   6.546 -1.0201 -0.1764 -0.0079
30312SOL    HW195621  11.934  10.433   6.595 -1.0271  1.4162  1.9919
30312SOL    HW295622  11.934  10.556   6.507 -0.7402  0.7084  0.9925
30313SOL     OW95623  11.118   5.968   5.573  0.0533  0.1059  0.7273
30313SOL    HW195624  11.125   6.002   5.663 -1.0963 -0.4597  1.0565
30313SOL    HW295625  11.105   5.874   5.584  0.7824 -0.0978 -0.0813
30314SOL     OW95626   5.749   5.965   3.540 -0.2337  0.2634 -0.3208
30314SOL    HW195627   5.706   5.948   3.624 -0.1072 -0.0716 -0.3234
30314SOL    HW295628   5.709   5.903   3.480  1.8567 -1.6904  0.1735
30315SOL     OW95629   5.056   2.782   3.853 -0.0249 -0.0958 -0.3314
30315SOL    HW195630   5.096   2.718   3.794 -0.6282  0.5821 -1.5141
30315SOL    HW295631   5.078   2.867   3.816 -0.1110  0.3658  0.6379
30316SOL     OW95632   4.433   3.828   3.212 -0.1510  0.1653 -0.0649
30316SOL    HW195633   4.505   3.819   3.150  0.6002  0.3545  0.7548
30316SOL    HW295634   4.432   3.922   3.233 -0.4367  0.1111  0.1648
30317SOL     OW95635   1.277   0.814  10.408  0.6148  0.4160  0.4440
30317SOL    HW195636   1.232   0.878  10.463 -0.3744 -0.2840  0.4821
30317SOL    HW295637   1.330   0.867  10.349 -1.3311  1.3795 -0.5393
30318SOL     OW95638   8.418   7.768   0.876  0.2883  0.9386  0.1478
30318SOL    HW195639   8.350   7.702   0.893  0.7132 -0.6303 -3.3140
30318SOL    HW295640   8.496   7.717   0.855  1.0554  2.5601 -1.1892
30319SOL     OW95641   5.165  11.820   3.107 -0.5504 -0.4037  0.8102
30319SOL    HW195642   5.089  11.869   3.074  0.2857  1.2962  1.2861
30319SOL    HW295643   5.147  11.729   3.084 -2.0406  0.1514 -0.3964
30320SOL     OW95644  10.030   8.654   8.669  0.3321  0.0705  0.3870
30320SOL    HW195645  10.087   8.724   8.701 -1.1745  0.9827  1.2166
30320SOL    HW295646   9.987   8.620   8.747 -1.3630  0.4468 -0.3228
30321SOL     OW95647  11.742   1.507   7.752 -0.0238 -0.5204 -0.3448
30321SOL    HW195648  11.719   1.594   7.786  0.8805 -0.0864 -0.8086
30321SOL    HW295649  11.671   1.450   7.783 -1.1532  0.5546 -0.8627
30322SOL     OW95650   9.482  11.817   7.082  0.4370  0.3137 -0.0993
30322SOL    HW195651   9.436  11.761   7.020 -0.2421 -1.6868  2.0498
30322SOL    HW295652   9.560  11.847   7.035  1.0711 -2.8451 -1.2790
30323SOL     OW95653   9.740  11.211  11.325  0.1484  0.2938 -0.2671
30323SOL    HW195654   9.662  11.265  11.337 -0.8655 -1.2733  0.4830
30323SOL    HW295655   9.743  11.194  11.231 -0.7261 -0.0723 -0.2317
30324SOL     OW95656   4.646  11.217  11.531 -0.2787  0.2258  0.2234
30324SOL    HW195657   4.709  11.185  11.596 -0.3898  0.3923  0.4169
30324SOL    HW295658   4.642  11.148  11.465  0.8959  0.6624 -0.3367
30325SOL     OW95659   4.120   4.341   8.668  0.8657 -0.0438 -0.3383
30325SOL    HW195660   4.213   4.334   8.646  0.7294  0.7269 -1.2302
30325SOL    HW295661   4.119   4.356   8.762  1.6900  0.6842 -0.4301
30326SOL     OW95662   1.874   0.474   0.629  0.2027  0.4998  0.0673
30326SOL    HW195663   1.893   0.411   0.560  0.8638  0.3399  0.3897
30326SOL    HW295664   1.941   0.458   0.695 -0.0326  1.0897  0.4551
30327SOL     OW95665   8.550  10.507   2.692 -0.0328  0.2279 -0.0799
30327SOL    HW195666   8.469  10.484   2.647  1.7136 -1.3820 -2.6394
30327SOL    HW295667   8.579  10.588   2.651  0.5930 -0.2218 -0.5511
30328SOL     OW95668   4.529   6.008   8.308  0.4776  0.2327 -0.2446
30328SOL    HW195669   4.492   5.919   8.313 -0.3470  0.5336 -0.6856
30328SOL    HW295670   4.459   6.060   8.268  1.8492  0.5673 -2.3309
30329SOL     OW95671   9.930   3.709  11.144  0.2559 -0.3895  0.1542
30329SOL    HW195672  10.004   3.767  11.126  0.0429  1.2168  3.6406
30329SOL    HW295673   9.858   3.744  11.091  0.7048  1.2416  0.5678
30330SOL     OW95674   2.311  11.632   1.071  0.4401 -0.2492  0.3788
30330SOL    HW195675   2.405  11.648   1.072  0.0852  3.3678 -2.2350
30330SOL    HW295676   2.293  11.598   0.983 -0.7335 -0.5293  0.7067
30331SOL     OW95677  12.000   5.985   3.852 -0.1767  0.0912 -0.1191
30331SOL    HW195678  12.026   5.913   3.910  1.3868  0.7426  0.0544
30331SOL    HW295679  11.920   6.021   3.892  0.1821 -0.2587  0.9507
30332SOL     OW95680   5.988  11.941   3.799 -0.7077  0.1774  0.5494
30332SOL    HW195681   6.049  11.910   3.732 -0.6243  1.0727  0.1990
30332SOL    HW295682   5.923  11.872   3.806  0.2938 -0.7750  0.8855
30333SOL     OW95683   7.023  10.998   7.230  0.4154  0.6044 -0.2630
30333SOL    HW195684   7.048  10.924   7.175  0.4341  0.4079  0.0090
30333SOL    HW295685   6.959  10.962   7.291  1.2152  0.5539  0.5761
30334SOL     OW95686   6.855   2.327  11.940  0.4050 -0.0548  0.4494
30334SOL    HW195687   6.942   2.349  11.907 -0.0382  2.3835  0.6603
30334SOL    HW295688   6.805   2.409  11.930 -2.1438 -1.5995 -0.4985
30335SOL     OW95689   2.789   4.833   2.267  0.1886  0.1003 -0.3277
30335SOL    HW195690   2.748   4.920   2.261  0.0549  0.0410 -0.2810
30335SOL    HW295691   2.881   4.851   2.286  0.0964  0.2228  0.0011
30336SOL     OW95692   8.986   1.023   4.069  1.1316 -0.1432 -0.0623
30336SOL    HW195693   9.017   1.090   4.008  1.6462  0.3063  0.6675
30336SOL    HW295694   8.927   1.070   4.128 -0.0049 -0.7433 -0.6993
30337SOL     OW95695   9.957   2.534   2.920 -0.4954 -0.1935  0.0354
30337SOL    HW195696   9.966   2.475   2.995  0.3966  0.8142  0.7495
30337SOL    HW295697   9.999   2.615   2.948 -0.1692  0.2213 -1.5484
30338SOL     OW95698   2.352   4.672   3.628 -0.3698 -0.2293 -0.5046
30338SOL    HW195699   2.337   4.590   3.580 -2.3901 -0.1035 -0.1832
30338SOL    HW295700   2.281   4.729   3.599  1.0191  1.4335 -0.7289
30339SOL     OW95701   0.370   3.269   1.420  0.0464 -0.0224  0.5463
30339SOL    HW195702   0.444   3.274   1.361  0.3058 -1.0210  0.7687
30339SOL    HW295703   0.308   3.211   1.376 -0.9311  1.3564  0.0324
30340SOL     OW95704   2.649   2.502   7.855 -0.5837 -0.0248 -0.1940
30340SOL    HW195705   2.633   2.417   7.896 -1.0679 -0.1486 -0.6295
30340SOL    HW295706   2.576   2.557   7.883  0.4315  0.6744  1.1963
30341SOL     OW95707   8.775   4.658   7.875  0.1075 -0.2825 -0.5251
30341SOL    HW195708   8.808   4.618   7.955  1.4265 -0.1426 -0.9601
30341SOL    HW295709   8.695   4.611   7.855 -2.8953  2.5824  3.2838
30342SOL     OW95710   4.875   7.436  10.205 -0.5105 -0.0265  0.2294
30342SOL    HW195711   4.796   7.399  10.245  0.6573 -0.9428  1.7907
30342SOL    HW295712   4.898   7.375  10.135 -1.1226  0.1909 -0.1647
30343SOL     OW95713   9.949   3.719   1.530  0.2764 -0.3169  0.2810
30343SOL    HW195714   9.926   3.647   1.472  0.8389  0.4705 -0.9796
30343SOL    HW295715   9.951   3.681   1.617 -0.3576 -1.5975 -0.2416
30344SOL     OW95716   0.903  10.101   5.347 -0.2340 -0.4480  0.1140
30344SOL    HW195717   0.963  10.134   5.280 -0.1090  0.8430  0.8172
30344SOL    HW295718   0.931  10.145   5.427 -0.5226 -1.7826  0.9791
30345SOL     OW95719   6.423  10.947   2.893  0.0447  0.1344  0.0055
30345SOL    HW195720   6.417  10.852   2.890 -1.4508  0.1516  1.0519
30345SOL    HW295721   6.332  10.977   2.883  0.3003  1.3862  1.1158
30346SOL     OW95722   1.799   9.912   9.267  0.0105 -0.2767 -0.2308
30346SOL    HW195723   1.863   9.980   9.247  0.0779 -0.6658 -1.3846
30346SOL    HW295724   1.717   9.960   9.280  0.2693  0.1077  0.0094
30347SOL     OW95725  11.534   7.214   6.747 -0.0284  0.1725  0.5001
30347SOL    HW195726  11.572   7.166   6.820 -0.6281 -1.0252  0.0520
30347SOL    HW295727  11.464   7.266   6.786  2.0584  2.5453  1.3657
30348SOL     OW95728   0.873   5.949   5.893  0.0302 -0.4983  0.0181
30348SOL    HW195729   0.874   5.975   5.800 -1.7004 -0.9562 -0.1647
30348SOL    HW295730   0.945   5.887   5.900  1.5659  1.1237 -0.4915
30349SOL     OW95731   4.058   6.771   2.062 -0.2110  0.3505 -0.6976
30349SOL    HW195732   3.992   6.748   1.997  0.1303 -1.2110 -0.5235
30349SOL    HW295733   4.139   6.732   2.028 -0.2788 -1.7533  1.2910
30350SOL     OW95734  10.859   1.026   1.572  0.4151 -0.4091 -0.1334
30350SOL    HW195735  10.864   1.116   1.605  1.7939  0.0954 -1.5817
30350SOL    HW295736  10.768   1.015   1.547  0.1531  0.4533  0.3859
30351SOL     OW95737   2.698  11.070   3.870  0.5049 -0.0343 -0.1043
30351SOL    HW195738   2.717  11.048   3.779  0.5337  0.7202 -0.2915
30351SOL    HW295739   2.605  11.049   3.880  0.6880 -0.8514 -0.0755
30352SOL     OW95740  11.982   7.844   0.182 -0.1164  0.2900 -0.2228
30352SOL    HW195741  11.971   7.846   0.277  0.0041 -0.2947 -0.1931
30352SOL    HW295742  11.968   7.752   0.158 -0.2666  0.4558 -0.7846
30353SOL     OW95743   8.782   1.352   4.974  0.4640 -0.0498 -0.1019
30353SOL    HW195744   8.764   1.334   5.066  2.1298 -1.2847  0.0298
30353SOL    HW295745   8.872   1.384   4.972 -0.2576  2.1296 -1.1114
30354SOL     OW95746   3.147  11.156   1.996  0.5227 -0.4006  0.3840
30354SOL    HW195747   3.081  11.121   2.056 -0.6264 -2.2463 -1.8374
30354SOL    HW295748   3.100  11.220   1.943  1.1357  0.0586  0.3848
30355SOL     OW95749   3.242   5.802   8.571  0.0380  0.1080  0.3072
30355SOL    HW195750   3.315   5.792   8.633  1.3806 -0.7056 -1.3262
30355SOL    HW295751   3.171   5.751   8.610  1.1371 -1.1469  0.7672
30356SOL     OW95752   6.007   7.052   8.177  0.2784  0.2439 -0.0112
30356SOL    HW195753   5.919   7.016   8.167  0.5627  0.0280 -2.4214
30356SOL    HW295754   6.011   7.082   8.267 -1.8077 -0.9258  0.5376
30357SOL     OW95755   8.765  11.414   9.080 -0.2534 -0.6886  0.3945
30357SOL    HW195756   8.839  11.354   9.077 -0.3334 -0.7852  0.3244
30357SOL    HW295757   8.803  11.500   9.097 -0.1875 -0.8568  1.1447
30358SOL     OW95758  11.746   3.380  11.917  0.2097  0.3008  0.4849
30358SOL    HW195759  11.655   3.357  11.898  0.7577 -3.1417  1.4650
30358SOL    HW295760  11.741   3.433  11.997 -0.9355  0.4056  0.3637
30359SOL     OW95761  10.284   4.459   8.688 -0.3232 -0.3677 -0.0505
30359SOL    HW195762  10.297   4.417   8.772 -0.8660  0.8883  0.6866
30359SOL    HW295763  10.345   4.414   8.629 -0.0816 -1.3903  0.9542
30360SOL     OW95764  10.332  11.935   9.190 -0.1515  0.0872  0.8377
30360SOL    HW195765  10.365  12.021   9.217  0.0108  0.5464 -0.7065
30360SOL    HW295766  10.410  11.886   9.166 -0.2992 -0.2572  1.0490
30361SOL     OW95767   2.696   0.409  11.513  0.7976  0.2000 -0.1251
30361SOL    HW195768   2.743   0.479  11.560  2.0895 -0.8608  0.2013
30361SOL    HW295769   2.762   0.369  11.457  0.1225 -0.8937 -0.1589
30362SOL     OW95770   3.317   3.304   3.295  0.2641  0.4148  0.0291
30362SOL    HW195771   3.406   3.337   3.307 -0.3878  2.1991  0.2581
30362SOL    HW295772   3.313   3.225   3.349  1.6901  0.3108  0.0183
30363SOL     OW95773   3.234   7.515  10.332 -0.3222  0.7168  0.3400
30363SOL    HW195774   3.217   7.579  10.402 -0.8852  0.4616  0.4415
30363SOL    HW295775   3.329   7.503  10.334 -0.2102  1.5060  0.3587
30364SOL     OW95776   6.784  10.428   1.388 -0.3434 -0.1203  0.3795
30364SOL    HW195777   6.709  10.476   1.423 -0.1608 -0.6329  1.5156
30364SOL    HW295778   6.860  10.478   1.418 -0.1807  1.1112 -1.7941
30365SOL     OW95779   9.373   0.035   7.169  0.2634 -0.1302  0.1819
30365SOL    HW195780   9.402  -0.051   7.138  1.3030  0.9097 -1.8750
30365SOL    HW295781   9.439   0.060   7.234  1.0481 -0.0691 -0.6278
30366SOL     OW95782   3.408   0.607   7.387  0.0998 -0.1472 -0.3760
30366SOL    HW195783   3.428   0.526   7.339 -0.4966  0.2093 -1.2565
30366SOL    HW295784   3.396   0.579   7.478  0.9355 -0.8935 -0.4823
30367SOL     OW95785   3.791  11.932  10.027  0.3901 -0.3016  0.4166
30367SOL    HW195786   3.815  11.868   9.960 -0.3860  0.3427 -0.4888
30367SOL    HW295787   3.714  11.893  10.070  0.1421 -0.1431  0.1144
30368SOL     OW95788   3.427   2.826   1.529 -0.4900  0.3885 -0.4437
30368SOL    HW195789   3.408   2.851   1.438  0.5498 -0.2210 -0.8421
30368SOL    HW295790   3.522   2.817   1.532 -0.3178  2.2117  1.1999
30369SOL     OW95791  11.619  11.590   7.569  0.6644 -0.0591 -0.0110
30369SOL    HW195792  11.569  11.629   7.498 -1.6063 -1.1154  0.8850
30369SOL    HW295793  11.632  11.661   7.631  0.4344  0.2920 -0.3575
30370SOL     OW95794   4.449   0.634   2.143  0.2164 -0.2964 -0.1403
30370SOL    HW195795   4.452   0.730   2.149 -2.3290 -0.1824  0.5309
30370SOL    HW295796   4.541   0.607   2.148  0.9757  2.0721  0.1451
30371SOL     OW95797   0.461   8.935   5.381  0.2675 -0.2630  0.5691
30371SOL    HW195798   0.409   8.866   5.422 -1.9546 -0.1652 -1.8328
30371SOL    HW295799   0.421   9.017   5.410  0.5558 -0.0986  0.5067
30372SOL     OW95800   2.801   5.825   1.968 -0.6762 -0.1839 -0.0508
30372SOL    HW195801   2.769   5.841   2.057  0.1650  2.0857 -0.0902
30372SOL    HW295802   2.757   5.892   1.915 -1.4107 -1.7086 -1.4471
30373SOL     OW95803   8.380   7.504   8.344  0.1451 -0.2589  0.1086
30373SOL    HW195804   8.396   7.592   8.307 -1.0436 -0.1753 -0.2357
30373SOL    HW295805   8.287   7.503   8.365  0.3261 -1.1486  0.9308
30374SOL     OW95806   9.714   8.554   9.299 -0.1516 -0.1024  0.0388
30374SOL    HW195807   9.720   8.591   9.387 -0.5382 -0.3316  0.1630
30374SOL    HW295808   9.721   8.460   9.312  0.3679 -0.1074 -0.2334
30375SOL     OW95809   5.418   3.706   8.236  0.3055 -0.0618  0.6281
30375SOL    HW195810   5.385   3.654   8.311 -0.9724 -0.8278 -0.4143
30375SOL    HW295811   5.392   3.655   8.159  0.0513  1.5647 -0.4002
30376SOL     OW95812  11.912   5.460   0.799  0.1882  0.1931  0.5963
30376SOL    HW195813  12.004   5.465   0.774 -0.8567  1.5384 -3.6948
30376SOL    HW295814  11.898   5.536   0.855  1.3301  0.9884 -0.1682
30377SOL     OW95815   5.441  10.335   1.216 -0.4004  0.3414  0.0776
30377SOL    HW195816   5.351  10.304   1.208 -0.5544  0.1858  1.8686
30377SOL    HW295817   5.442  10.385   1.298  1.3944 -0.7348  0.7885
30378SOL     OW95818   5.589   2.714   0.745 -0.2157 -0.2172  0.5635
30378SOL    HW195819   5.517   2.722   0.808 -1.8892 -1.2650 -1.1121
30378SOL    HW295820   5.621   2.624   0.756  1.0335  0.2981  1.4315
30379SOL     OW95821   4.785   0.343  10.702 -0.4680 -0.0817 -0.5106
30379SOL    HW195822   4.820   0.324  10.789  0.8240 -2.2319 -1.4310
30379SOL    HW295823   4.692   0.363  10.718  0.1382  1.4699  1.5136
30380SOL     OW95824   4.181   4.326   4.824  0.5382  0.8190  0.1869
30380SOL    HW195825   4.226   4.295   4.903 -0.8535 -1.3955  0.1900
30380SOL    HW295826   4.128   4.399   4.854 -0.5017 -0.4189  1.4986
30381SOL     OW95827   3.957   8.490   7.389 -0.3700 -0.2424  0.6180
30381SOL    HW195828   3.886   8.544   7.423 -0.1921  0.2792  0.1693
30381SOL    HW295829   4.012   8.551   7.339 -0.1284 -0.8207  0.1673
30382SOL     OW95830   8.619   0.808   4.613  0.2446  0.7017 -0.1089
30382SOL    HW195831   8.714   0.812   4.622  0.3683 -1.1483 -0.2122
30382SOL    HW295832   8.600   0.715   4.600 -1.6940  0.8837  1.0793
30383SOL     OW95833   3.226   8.013   6.404 -0.0101  0.2830 -0.5617
30383SOL    HW195834   3.308   7.978   6.368 -0.0370  0.3573 -0.6969
30383SOL    HW295835   3.253   8.071   6.474 -0.0330 -1.7755  1.2442
30384SOL     OW95836   6.339   0.692   3.128  0.3681 -0.2159 -0.3564
30384SOL    HW195837   6.381   0.777   3.127 -1.2460  0.6176 -0.5327
30384SOL    HW295838   6.327   0.669   3.036  0.6977 -0.5984 -0.3101
30385SOL     OW95839   9.515   3.940   7.053 -0.1301  0.5242 -0.6611
30385SOL    HW195840   9.546   3.954   7.142  1.8187 -0.5380 -1.1215
30385SOL    HW295841   9.541   4.020   7.006 -0.3150  0.6825 -0.4972
30386SOL     OW95842   7.604   0.889   0.828 -0.1090  0.0831  0.2361
30386SOL    HW195843   7.666   0.841   0.773  0.9777  3.8207 -2.2056
30386SOL    HW295844   7.660   0.937   0.890 -0.7244  1.3301 -0.1326
30387SOL     OW95845   2.819   1.265   0.839 -0.2707  0.6794  0.5751
30387SOL    HW195846   2.793   1.288   0.929  0.7235  1.5727  0.6559
30387SOL    HW295847   2.841   1.172   0.843  1.1302  1.0304  1.6038
30388SOL     OW95848   1.166   8.696   7.314  0.2835  0.2100 -1.0200
30388SOL    HW195849   1.201   8.609   7.334 -0.1420  0.4326  0.8167
30388SOL    HW295850   1.181   8.747   7.394 -2.0785  0.9988 -1.0243
30389SOL     OW95851  11.338   6.328   2.909 -0.0459 -0.1370 -0.0496
30389SOL    HW195852  11.289   6.255   2.946 -0.6406  0.0730 -0.3991
30389SOL    HW295853  11.271   6.394   2.888  0.4165  0.2732 -0.2689
30390SOL     OW95854  10.815  11.300   1.291  0.0184  0.1664  0.5708
30390SOL    HW195855  10.849  11.363   1.227  0.4371 -1.2108 -0.6067
30390SOL    HW295856  10.893  11.260   1.330 -0.2470  0.1810  1.1326
30391SOL     OW95857   6.058   4.242   2.497  0.1939  0.0828 -0.0251
30391SOL    HW195858   6.069   4.184   2.572  3.0435 -0.6118 -0.8903
30391SOL    HW295859   6.050   4.329   2.536  1.2519 -0.3016  1.1184
30392SOL     OW95860   0.231   5.434   4.578  0.1863 -0.5834  0.0380
30392SOL    HW195861   0.223   5.529   4.566  0.7240 -0.7019 -1.4652
30392SOL    HW295862   0.324   5.420   4.598  0.4336 -0.9168 -1.2700
30393SOL     OW95863  10.934   0.983   8.293 -0.7982 -0.3714  0.2374
30393SOL    HW195864  10.894   1.007   8.377 -0.2120 -1.4610  0.8572
30393SOL    HW295865  10.860   0.975   8.233 -1.3106 -0.3555  0.8531
30394SOL     OW95866   7.705  10.525   3.683 -0.4581 -0.1231 -0.7385
30394SOL    HW195867   7.786  10.546   3.729 -0.6924 -0.1691 -0.3033
30394SOL    HW295868   7.733  10.472   3.609  0.0661  1.0960 -1.4399
30395SOL     OW95869   8.118   4.246   8.614  0.0639 -0.3715  0.4358
30395SOL    HW195870   8.191   4.186   8.626 -1.4037 -2.2697  0.3226
30395SOL    HW295871   8.097   4.276   8.702 -0.9386 -2.2732  0.9039
30396SOL     OW95872   9.857   3.052   2.984  0.3101 -0.1419  0.3410
30396SOL    HW195873   9.846   3.030   2.891 -0.1473  0.1381  0.3258
30396SOL    HW295874   9.884   3.143   2.984  3.2408 -0.9033  0.3519
30397SOL     OW95875   8.933   9.588   4.652 -0.6329  0.3016 -0.7378
30397SOL    HW195876   8.969   9.608   4.566  0.7881 -0.7713 -0.4455
30397SOL    HW295877   8.876   9.513   4.638 -1.3643  0.8899 -0.9273
30398SOL     OW95878   1.905   8.430  10.085 -0.3895 -0.7126 -0.1091
30398SOL    HW195879   1.857   8.363  10.133 -2.2605  1.7993  1.7822
30398SOL    HW295880   1.996   8.419  10.113 -0.8352 -1.7196  1.0428
30399SOL     OW95881   7.168  11.041   9.342  0.3139  0.2294 -0.6434
30399SOL    HW195882   7.138  11.132   9.351  1.4078  0.4424  1.6972
30399SOL    HW295883   7.180  11.011   9.432 -0.3169 -2.3775 -1.3464
30400SOL     OW95884   8.089   9.262   9.485 -0.0679  0.3498  0.7565
30400SOL    HW195885   8.179   9.294   9.479  0.4704 -1.1992 -0.0246
30400SOL    HW295886   8.050   9.315   9.555  1.7090  0.4552  1.7492
30401SOL     OW95887   3.744  10.785   6.760 -0.5917  0.5821 -0.5098
30401SOL    HW195888   3.710  10.872   6.740 -0.5438  0.2445 -2.1772
30401SOL    HW295889   3.800  10.763   6.685  0.6317 -0.2625  0.5984
30402SOL     OW95890   4.482  11.050   2.738  0.1137  0.2588 -0.7150
30402SOL    HW195891   4.394  11.065   2.703 -0.1042  0.4360 -0.0947
30402SOL    HW295892   4.470  11.048   2.833  1.0317  2.1155 -0.5112
30403SOL     OW95893   0.478   4.887  11.845 -0.1731 -0.0299 -0.5205
30403SOL    HW195894   0.490   4.792  11.854  0.5121  0.0310 -0.7981
30403SOL    HW295895   0.425   4.911  11.921  1.5812 -0.2682  0.8464
30404SOL     OW95896   4.677   3.838   9.510  0.3469 -0.1542 -0.3820
30404SOL    HW195897   4.731   3.762   9.532 -0.5243 -0.8875 -0.7228
30404SOL    HW295898   4.587   3.806   9.515 -0.0594  1.0097  0.0359
30405SOL     OW95899   4.821   8.003   6.282 -0.0580 -0.2623  0.1371
30405SOL    HW195900   4.879   8.058   6.334  0.1927  1.1945 -1.6044
30405SOL    HW295901   4.775   8.064   6.224 -0.4585 -1.7786 -1.2136
30406SOL     OW95902   4.553   5.154   7.909  0.7838  0.5911  0.4924
30406SOL    HW195903   4.566   5.067   7.946 -0.5942 -0.3842 -1.1629
30406SOL    HW295904   4.629   5.167   7.851  0.5172  0.0751  0.0205
30407SOL     OW95905   2.185   3.531   0.961  0.0417 -0.1338  0.0695
30407SOL    HW195906   2.260   3.578   0.996 -2.2740  3.2058  1.0367
30407SOL    HW295907   2.174   3.567   0.872  1.1362 -2.7136 -1.2297
30408SOL     OW95908   7.001   7.413   2.593 -0.9211  0.3785  0.1044
30408SOL    HW195909   6.912   7.376   2.590 -0.2917 -1.4189  1.3627
30408SOL    HW295910   7.046   7.374   2.518 -0.9807  0.6509 -0.0715
30409SOL     OW95911   1.599  11.797   2.933 -0.3778 -0.3987 -0.3296
30409SOL    HW195912   1.669  11.798   2.867  0.4998  0.7149  0.5586
30409SOL    HW295913   1.518  11.799   2.882  0.2708  0.2251 -1.3941
30410SOL     OW95914   9.289   6.003   1.666  0.0235  0.2268  0.6527
30410SOL    HW195915   9.238   6.084   1.658 -0.1217  0.0207 -0.9705
30410SOL    HW295916   9.380   6.032   1.663 -0.0269  0.3566  0.2425
30411SOL     OW95917   9.547   8.239   7.385 -0.3890  0.0771  0.5674
30411SOL    HW195918   9.498   8.166   7.423  0.0509 -1.1244 -1.0832
30411SOL    HW295919   9.604   8.268   7.456 -1.4529 -0.3332  1.6400
30412SOL     OW95920   3.041  10.122   0.018 -0.5919  0.4314  0.7420
30412SOL    HW195921   3.057  10.037  -0.023 -4.3118 -0.7732  1.3924
30412SOL    HW295922   3.028  10.182  -0.056  1.7833  0.4786  0.2781
30413SOL     OW95923   0.833   3.910   8.021  0.3454  0.5316 -0.1888
30413SOL    HW195924   0.925   3.927   8.002 -0.2534  2.5877 -1.6285
30413SOL    HW295925   0.804   3.850   7.953  0.5937 -0.0766  0.2357
30414SOL     OW95926   0.208   9.048   3.564 -0.5551 -0.3571 -0.1236
30414SOL    HW195927   0.256   9.130   3.563 -0.8560 -0.1840 -1.4324
30414SOL    HW295928   0.190   9.032   3.657  1.9369 -0.4064  0.3966
30415SOL     OW95929   5.184   9.137   1.661 -0.7867 -0.0098 -0.5420
30415SOL    HW195930   5.225   9.223   1.649  0.4578 -0.5289 -0.2306
30415SOL    HW295931   5.198   9.093   1.577  0.3608 -0.6066 -0.0548
30416SOL     OW95932   8.524   1.252   8.422 -0.1702 -0.1827  0.1426
30416SOL    HW195933   8.547   1.188   8.490 -1.7422  0.2918  1.1813
30416SOL    HW295934   8.451   1.212   8.375 -0.3240  0.3088 -0.0374
30417SOL     OW95935   1.755  11.351   5.079  0.0230 -0.7743 -0.0872
30417SOL    HW195936   1.757  11.399   5.162  0.8856  0.1672 -0.6232
30417SOL    HW295937   1.821  11.394   5.025  0.2095 -2.0391 -0.9105
30418SOL     OW95938   5.435   7.458  10.347 -0.2006 -0.2960  0.1189
30418SOL    HW195939   5.361   7.489  10.295 -1.6610 -1.5463  1.3321
30418SOL    HW295940   5.452   7.370  10.314 -0.3152 -0.6198  0.9096
30419SOL     OW95941   4.155   4.057   9.017 -0.4942 -0.2911  0.1526
30419SOL    HW195942   4.119   4.130   9.066 -2.5520  0.7937 -2.6879
30419SOL    HW295943   4.112   3.980   9.053 -2.6354  0.5605 -0.4115
30420SOL     OW95944  11.392   2.140   9.535 -0.0701  0.0348  0.0222
30420SOL    HW195945  11.369   2.165   9.446  0.9254 -0.5467 -0.4216
30420SOL    HW295946  11.385   2.045   9.536  0.3843 -0.0007  0.4301
30421SOL     OW95947   2.126   6.063  11.799 -0.6538  0.3698  0.1488
30421SOL    HW195948   2.151   6.023  11.882  1.7976 -1.2969 -1.2624
30421SOL    HW295949   2.137   6.157  11.813  0.4419  0.0709  1.5076
30422SOL     OW95950   0.874   7.678   1.207  0.1686  0.3874  0.5710
30422SOL    HW195951   0.915   7.655   1.290 -1.4612  0.0208  1.3091
30422SOL    HW295952   0.840   7.595   1.172  0.3173  0.6299 -0.1786
30423SOL     OW95953   7.714   9.323   7.927  0.0411  0.4133 -0.9771
30423SOL    HW195954   7.689   9.409   7.893  1.5085  1.1250 -0.3102
30423SOL    HW295955   7.689   9.325   8.019  0.5208  0.3181 -0.8412
30424SOL     OW95956   0.056  11.736   1.287  0.0466 -0.3063 -0.1571
30424SOL    HW195957  -0.032  11.756   1.255  0.8192  3.5097 -0.3932
30424SOL    HW295958   0.048  11.739   1.383 -0.0282  0.3669 -0.1827
30425SOL     OW95959  11.477  11.230   9.050 -0.1695  0.2060 -0.2894
30425SOL    HW195960  11.458  11.188   9.133 -0.4682 -0.1752 -0.5490
30425SOL    HW295961  11.402  11.287   9.033  0.3250  1.0064  0.1589
30426SOL     OW95962   6.002   2.495   1.092 -0.0451 -0.1662 -0.2677
30426SOL    HW195963   6.019   2.588   1.103 -0.9261 -0.0034 -0.2567
30426SOL    HW295964   5.919   2.480   1.137  1.4245 -1.4931  2.2046
30427SOL     OW95965  11.618   5.701  10.432 -0.1705  0.2664  0.3536
30427SOL    HW195966  11.604   5.796  10.436 -0.2391  0.2561  0.3651
30427SOL    HW295967  11.611   5.680  10.339 -1.6052  0.0567  0.4860
30428SOL     OW95968   2.734  11.035   1.042  0.3214 -0.2789 -0.4831
30428SOL    HW195969   2.750  11.127   1.064 -0.6633  0.2183 -1.7554
30428SOL    HW295970   2.818  11.004   1.008  0.4401  0.3975 -0.8377
30429SOL     OW95971   0.817  10.983   6.424  0.1335  0.0774  0.3722
30429SOL    HW195972   0.732  11.023   6.407 -0.5371 -0.4850  2.1899
30429SOL    HW295973   0.825  10.914   6.358 -1.3491 -0.6216  0.8922
30430SOL     OW95974   9.501   0.958   5.323 -0.5404 -0.8271  0.0719
30430SOL    HW195975   9.556   1.020   5.371 -1.6802  0.9623 -0.8216
30430SOL    HW295976   9.526   0.872   5.358  0.9047  0.1278  1.5624
30431SOL     OW95977   0.645  11.654   4.743 -0.1946  0.0303  0.0430
30431SOL    HW195978   0.704  11.596   4.695  0.5675  1.0141 -0.2623
30431SOL    HW295979   0.694  11.680   4.821 -0.5128  0.2651  0.1702
30432SOL     OW95980  10.836   8.252   6.228  0.3865  0.1488  0.0068
30432SOL    HW195981  10.800   8.337   6.202 -1.1728 -0.9875 -1.8170
30432SOL    HW295982  10.926   8.272   6.255 -0.5754  2.6746  1.7925
30433SOL     OW95983  10.957  10.599   4.418 -0.0948 -0.2720 -0.0132
30433SOL    HW195984  10.904  10.547   4.479  0.2825  0.3206  0.8305
30433SOL    HW295985  10.943  10.689   4.445  0.3977 -0.0253 -0.5623
30434SOL     OW95986   6.569   5.298   1.809  0.0731  0.6328 -0.0595
30434SOL    HW195987   6.481   5.331   1.826 -0.6927  0.4448 -3.0950
30434SOL    HW295988   6.558   5.204   1.799  0.6606  0.5829 -0.2683
30435SOL     OW95989   6.030   3.913   2.660 -0.3154 -0.1177  0.2559
30435SOL    HW195990   6.067   3.825   2.645 -1.3316 -0.2822 -1.7173
30435SOL    HW295991   6.106   3.969   2.675  0.3608 -1.3095  1.4643
30436SOL     OW95992   4.926   2.677   5.151  0.2078  0.4045 -0.3041
30436SOL    HW195993   4.838   2.705   5.175  0.2271 -0.3195  0.6731
30436SOL    HW295994   4.912   2.604   5.091  0.0954 -0.8603  1.2026
30437SOL     OW95995   9.896   6.225   7.736 -0.4022  0.4520 -0.4296
30437SOL    HW195996   9.809   6.265   7.744  0.0128  1.3410 -0.3210
30437SOL    HW295997   9.877   6.131   7.725 -1.5109  0.8913 -3.1916
30438SOL     OW95998   2.114   8.877   9.236 -0.0869  0.4798 -0.0867
30438SOL    HW195999   2.148   8.789   9.219 -2.8020 -0.4072 -1.6662
30438SOL    HW296000   2.162   8.933   9.175  0.3855 -0.2516 -0.4085
30439SOL     OW96001   1.915   2.493   3.482 -0.3242 -0.2234 -0.6044
30439SOL    HW196002   1.830   2.487   3.525 -0.0238  0.1321  0.0350
30439SOL    HW296003   1.916   2.580   3.442 -0.3081 -0.2783 -0.7269
30440SOL     OW96004  11.412   5.245   8.094  0.3558 -0.8262  0.0809
30440SOL    HW196005  11.412   5.161   8.140  0.6385  0.0837  1.8180
30440SOL    HW296006  11.335   5.291   8.126 -0.1133 -0.6251 -1.2822
30441SOL     OW96007   3.542   0.117   8.914  0.4515  0.3737 -0.2509
30441SOL    HW196008   3.474   0.184   8.924 -0.7871 -0.7445 -0.7684
30441SOL    HW296009   3.595   0.124   8.993 -0.1707  1.3892  0.0934
30442SOL     OW96010   4.251   3.465   0.471 -0.2280  0.2872 -0.3779
30442SOL    HW196011   4.291   3.489   0.387  0.4837 -0.0666 -0.1484
30442SOL    HW296012   4.215   3.546   0.505  1.1357  0.8137 -0.1461
30443SOL     OW96013  10.482   8.126   6.076 -0.2854 -0.2479  0.1018
30443SOL    HW196014  10.513   8.183   6.006  0.6402 -0.2435  0.5030
30443SOL    HW296015  10.543   8.053   6.077 -1.0540 -0.9071  0.0612
30444SOL     OW96016   5.655   1.442   7.713  0.6442 -0.0228 -0.3129
30444SOL    HW196017   5.687   1.441   7.803  0.5787 -0.2455 -0.2917
30444SOL    HW296018   5.679   1.529   7.680  0.5853  0.0955 -0.0510
30445SOL     OW96019  11.523   4.672  11.554  0.3091  0.3916 -0.6064
30445SOL    HW196020  11.523   4.655  11.648 -2.0933  1.1985 -0.3933
30445SOL    HW296021  11.558   4.592  11.515 -1.0640 -0.9849  0.8647
30446SOL     OW96022   6.666  10.836   6.524 -0.0222 -0.3472 -0.1609
30446SOL    HW196023   6.650  10.902   6.457 -2.0521  2.6334  2.9172
30446SOL    HW296024   6.605  10.765   6.504  0.4658 -0.2373 -2.2036
30447SOL     OW96025  11.017   9.510   7.913 -0.6005 -0.2345 -0.4878
30447SOL    HW196026  11.106   9.526   7.883 -1.0451  0.3397 -1.5814
30447SOL    HW296027  10.971   9.592   7.893 -1.8781 -1.2492 -1.9889
30448SOL     OW96028   9.725   4.083   8.142 -0.5124 -0.1783  0.1173
30448SOL    HW196029   9.701   3.991   8.149  1.4103 -0.7731 -0.3007
30448SOL    HW296030   9.788   4.097   8.212 -1.8053  1.2314  1.0637
30449SOL     OW96031   5.703   6.120   8.760  0.7935 -0.4054  0.3078
30449SOL    HW196032   5.637   6.056   8.789  0.7339 -0.1478  0.7528
30449SOL    HW296033   5.763   6.069   8.705  0.1213 -0.6046 -0.2573
30450SOL     OW96034   4.970  11.040  11.793 -0.2571 -0.7639  0.3183
30450SOL    HW196035   4.973  11.098  11.716 -0.0060  0.5051  1.2487
30450SOL    HW296036   5.003  10.956  11.761  0.9844  0.0702 -0.6799
30451SOL     OW96037  11.044   8.915   6.390  0.2439  0.1037 -0.4345
30451SOL    HW196038  11.006   8.828   6.373  0.9602 -0.2405 -0.2963
30451SOL    HW296039  10.991   8.974   6.337  1.0441 -0.6703 -2.1875
30452SOL     OW96040   1.597   4.756   2.831  0.1773  0.2103  0.1120
30452SOL    HW196041   1.642   4.777   2.913 -1.7151 -0.4603  1.3974
30452SOL    HW296042   1.624   4.825   2.770 -0.0194  1.9712  1.9445
30453SOL     OW96043   5.166  10.705   8.548  0.2499 -0.8490 -0.3608
30453SOL    HW196044   5.094  10.740   8.600 -0.0561 -0.4830 -1.0113
30453SOL    HW296045   5.218  10.655   8.610  0.0742 -0.1658  0.3665
30454SOL     OW96046   5.147   1.379  10.823  0.2984 -0.5553  0.1961
30454SOL    HW196047   5.234   1.345  10.844  1.3331  1.7595 -0.0189
30454SOL    HW296048   5.156   1.414  10.734 -0.6535  0.2396  0.3904
30455SOL     OW96049   2.658   4.311   0.058 -0.0345  0.3112 -0.1184
30455SOL    HW196050   2.732   4.252   0.049  0.0775  0.5686 -0.9426
30455SOL    HW296051   2.595   4.282  -0.008 -1.2678 -0.7599  1.4615
30456SOL     OW96052   5.063   8.115   1.315  0.5377 -0.0434 -0.3079
30456SOL    HW196053   5.032   8.173   1.384  0.1391 -0.6058 -0.0049
30456SOL    HW296054   5.078   8.031   1.360 -0.1753 -0.5479 -0.9805
30457SOL     OW96055   5.245   5.263   4.780  0.1655 -0.1449 -0.0092
30457SOL    HW196056   5.250   5.168   4.785  2.1370 -0.0234  1.4316
30457SOL    HW296057   5.195   5.280   4.700 -1.9308 -2.3689  0.7191
30458SOL     OW96058   1.104   2.614  11.758 -0.2348 -0.4088  0.4082
30458SOL    HW196059   1.129   2.695  11.803 -0.3995 -0.5642  0.7796
30458SOL    HW296060   1.118   2.545  11.822 -0.8116 -0.5895  0.3506
30459SOL     OW96061   0.359   6.016   0.930 -0.1237 -0.0038  0.1518
30459SOL    HW196062   0.416   6.092   0.923  0.4107 -0.4212 -0.0529
30459SOL    HW296063   0.321   6.024   1.018  1.5694 -0.6251  0.9912
30460SOL     OW96064   0.868   9.333   3.135  0.4960  0.3246 -1.2621
30460SOL    HW196065   0.875   9.304   3.226  0.7368  0.4428 -1.2403
30460SOL    HW296066   0.959   9.345   3.107  0.4219  0.2833 -1.5196
30461SOL     OW96067   9.867   4.996   6.555 -0.0037 -0.0389  0.1457
30461SOL    HW196068   9.817   4.926   6.598  1.0128 -0.8527  0.0627
30461SOL    HW296069   9.909   4.953   6.481  0.1486  0.8195 -0.2786
30462SOL     OW96070   3.317   0.622   8.392 -0.6796  0.2132  0.0123
30462SOL    HW196071   3.324   0.637   8.298  1.2160  0.2660  0.1280
30462SOL    HW296072   3.237   0.668   8.418 -0.6447  1.1113 -1.3850
30463SOL     OW96073   3.738   4.037  11.625  0.0038 -0.1293 -0.1283
30463SOL    HW196074   3.788   4.118  11.612 -0.0132 -0.2002 -0.6516
30463SOL    HW296075   3.700   4.046  11.712  0.4680  0.1762  0.0467
30464SOL     OW96076  10.638  10.604   2.416 -0.3489 -0.3247  0.0741
30464SOL    HW196077  10.674  10.686   2.450 -1.5350 -0.2454  1.2308
30464SOL    HW296078  10.694  10.536   2.452  0.8845 -0.0403 -1.2094
30465SOL     OW96079   3.312   7.599   1.845  0.4737  0.1154  0.0910
30465SOL    HW196080   3.392   7.637   1.881  0.7674  1.1075 -1.4852
30465SOL    HW296081   3.338   7.512   1.813  1.1481  0.7134 -1.0726
30466SOL     OW96082   6.537   7.268   4.702  0.1050 -0.1833 -0.0879
30466SOL    HW196083   6.593   7.311   4.637  0.6896  0.4832  0.8355
30466SOL    HW296084   6.452   7.309   4.692  1.2080  3.1185  2.4196
30467SOL     OW96085   8.409   2.334   4.884  0.5212  0.1181 -0.0940
30467SOL    HW196086   8.318   2.306   4.875  0.7864 -0.6800 -0.3613
30467SOL    HW296087   8.458   2.253   4.898  1.2159  0.5229 -0.1343
30468SOL     OW96088   5.141   0.742   3.175 -0.3833  0.3631 -0.1167
30468SOL    HW196089   5.143   0.813   3.239 -0.4625  0.4576 -0.2192
30468SOL    HW296090   5.049   0.722   3.163 -0.3469  0.0183  0.1580
30469SOL     OW96091   6.284   6.055   8.268 -0.1699  0.1414 -0.1885
30469SOL    HW196092   6.240   6.114   8.330 -0.2632  0.6304 -0.7189
30469SOL    HW296093   6.346   6.110   8.222  1.2160 -0.5954  0.7242
30470SOL     OW96094   8.069   3.799   1.033  0.0199 -0.3063 -0.2213
30470SOL    HW196095   8.037   3.871   1.086 -0.4429 -0.0644 -0.8154
30470SOL    HW296096   8.000   3.783   0.969 -0.0669 -1.5443  0.1423
30471SOL     OW96097   2.381  11.025   3.123  0.1739  0.5348 -0.5349
30471SOL    HW196098   2.316  11.063   3.181  0.1644  0.2168 -0.3358
30471SOL    HW296099   2.348  11.041   3.035  0.2921  1.2040 -0.4605
30472SOL     OW96100   4.641   7.070   8.550  0.1570  0.0249 -0.4121
30472SOL    HW196101   4.550   7.088   8.526 -0.1065  0.2834  0.6820
30472SOL    HW296102   4.645   7.090   8.644  1.6069  1.0748 -0.6595
30473SOL     OW96103   8.180   7.192   9.364 -0.0689 -0.0607  0.1772
30473SOL    HW196104   8.146   7.177   9.276  1.7207 -2.9816 -0.1431
30473SOL    HW296105   8.123   7.141   9.421 -0.0721  0.2577  0.4596
30474SOL     OW96106   6.007   2.971   6.870 -0.4731  0.3614  0.4079
30474SOL    HW196107   6.099   3.000   6.863 -0.0591 -0.3775  2.3238
30474SOL    HW296108   5.984   2.987   6.961 -1.9836 -0.2886  0.1597
30475SOL     OW96109  10.416   5.634   5.825 -0.0858  0.2686 -0.2095
30475SOL    HW196110  10.409   5.594   5.738  2.0992 -2.3575  0.6839
30475SOL    HW296111  10.494   5.689   5.820 -0.6746  1.1163 -0.2315
30476SOL     OW96112  10.052   7.596   2.797  0.4913 -0.2141  0.1496
30476SOL    HW196113  10.142   7.563   2.800  1.0032  0.9878 -0.9447
30476SOL    HW296114  10.031   7.596   2.703  0.0874  1.3937  0.2172
30477SOL     OW96115  11.458   7.963   2.339  0.1956  0.2172 -0.3641
30477SOL    HW196116  11.501   7.887   2.300  0.6365  1.6197 -2.8696
30477SOL    HW296117  11.380   7.927   2.383  2.1278 -1.9992  1.5370
30478SOL     OW96118  10.482   5.406   6.037  0.1275  0.1923 -0.4712
30478SOL    HW196119  10.397   5.382   6.073  0.9438 -2.3854 -0.0620
30478SOL    HW296120  10.462   5.467   5.966 -2.0777 -0.4671 -0.4828
30479SOL     OW96121   7.480   6.707  10.833  0.6611 -0.0746  0.1383
30479SOL    HW196122   7.517   6.678  10.750  1.8075  1.3003  0.1323
30479SOL    HW296123   7.426   6.783  10.810  0.3451 -0.1714  0.5458
30480SOL     OW96124   7.759   7.270   1.915  0.0145  0.1566  0.0083
30480SOL    HW196125   7.776   7.308   2.001  0.7435 -1.1022  0.4409
30480SOL    HW296126   7.685   7.320   1.881 -0.8202  0.1491  1.7107
30481SOL     OW96127   4.368   4.021   8.556 -0.6387  0.2206 -0.4729
30481SOL    HW196128   4.351   4.112   8.578  1.2300  0.4425  0.1878
30481SOL    HW296129   4.364   3.975   8.640  1.6909  0.2694 -0.2848
30482SOL     OW96130   4.539   1.417  10.630  0.4903 -0.0502 -0.0489
30482SOL    HW196131   4.587   1.391  10.709  0.7057  1.8008  0.4804
30482SOL    HW296132   4.585   1.373  10.558  2.7258  1.2145  0.5002
30483SOL     OW96133   4.153   4.946   0.616  0.8391  0.3664 -0.3281
30483SOL    HW196134   4.087   4.888   0.579  2.7019 -1.2058 -1.3912
30483SOL    HW296135   4.122   5.034   0.597 -0.4061 -0.3472 -1.7489
30484SOL     OW96136   1.589  11.333   4.733 -0.0446  0.1373 -0.1298
30484SOL    HW196137   1.681  11.328   4.708 -0.0481  0.0411 -0.1255
30484SOL    HW296138   1.589  11.385   4.813 -0.2121  1.9199 -1.2285
30485SOL     OW96139   6.840   3.393   8.130 -0.3127  0.5041 -0.8330
30485SOL    HW196140   6.916   3.435   8.171 -0.7600  1.3050 -0.7910
30485SOL    HW296141   6.809   3.330   8.195  0.1501  0.3780 -0.7373
30486SOL     OW96142   5.128   0.931   4.787 -0.5089  0.0721  0.3444
30486SOL    HW196143   5.194   0.885   4.840 -1.2414 -0.2994  0.9474
30486SOL    HW296144   5.150   1.023   4.796 -0.1913 -0.0360  0.6996
30487SOL     OW96145   8.782   7.693   9.324 -0.1147  0.5260 -0.2076
30487SOL    HW196146   8.690   7.698   9.352  0.2684 -0.9092  1.4866
30487SOL    HW296147   8.780   7.635   9.248 -0.5812  0.2959 -0.0232
30488SOL     OW96148   4.208  10.801  10.489  0.2713  0.8858  0.6395
30488SOL    HW196149   4.125  10.820  10.444  0.5481 -0.4748 -0.4918
30488SOL    HW296150   4.227  10.882  10.537 -1.4625  1.3985  0.5463
30489SOL     OW96151   1.584   1.039   4.211  0.0040  0.3195  0.0353
30489SOL    HW196152   1.575   1.027   4.116  1.0894 -1.9353  0.1318
30489SOL    HW296153   1.494   1.050   4.242 -0.3495  1.3809 -1.2633
30490SOL     OW96154   8.176   7.157  10.523 -0.0892 -0.3144  0.0734
30490SOL    HW196155   8.266   7.130  10.503 -0.2192  0.4595 -1.8414
30490SOL    HW296156   8.140   7.085  10.574  1.2959 -1.1161 -0.0092
30491SOL     OW96157   1.017   3.141  10.620 -0.0760 -0.1928 -0.6634
30491SOL    HW196158   0.935   3.105  10.654 -1.2433  0.6731 -2.4464
30491SOL    HW296159   1.086   3.095  10.669 -1.6023 -0.8971  0.9116
30492SOL     OW96160   9.678   6.139   2.891 -0.2518 -0.2588  0.3220
30492SOL    HW196161   9.761   6.141   2.939  0.7503  0.5115 -1.3335
30492SOL    HW296162   9.622   6.200   2.939  1.6171  2.6580 -0.8789
30493SOL     OW96163   7.912   4.851   4.279  0.3259 -0.3543 -0.0179
30493SOL    HW196164   7.887   4.759   4.281  0.6991 -0.4496  0.5632
30493SOL    HW296165   8.000   4.852   4.316 -0.1706  0.3862  1.1863
30494SOL     OW96166  11.084   3.655   1.770  0.6826  0.3477 -0.4519
30494SOL    HW196167  11.015   3.662   1.705 -1.1998 -0.7547  1.3136
30494SOL    HW296168  11.118   3.566   1.760 -0.0074 -0.0251  0.4071
30495SOL     OW96169   9.607   8.653   8.671 -0.3583 -0.0220 -0.1360
30495SOL    HW196170   9.589   8.583   8.608 -0.5476 -0.0557 -0.0436
30495SOL    HW296171   9.529   8.708   8.669 -0.4722 -0.1665  0.2634
30496SOL     OW96172   0.135   0.755   6.215  0.3671 -0.6757 -0.4475
30496SOL    HW196173   0.188   0.781   6.290 -0.7212 -0.7550  0.3759
30496SOL    HW296174   0.083   0.832   6.193  1.3571 -0.3478 -1.7506
30497SOL     OW96175   0.466   9.669   7.596  0.2245  0.2320  0.2653
30497SOL    HW196176   0.425   9.599   7.648 -0.8842 -0.6700 -1.7195
30497SOL    HW296177   0.504   9.728   7.662  0.3435 -1.6904  2.0478
30498SOL     OW96178   9.434   9.319   4.709  0.5577  0.2013 -0.0091
30498SOL    HW196179   9.527   9.300   4.722  0.9067  1.3093 -0.7389
30498SOL    HW296180   9.417   9.396   4.763 -0.0384 -0.2379  0.4337
30499SOL     OW96181   4.995  10.100   9.283  0.1580 -0.0869 -0.1036
30499SOL    HW196182   4.998  10.074   9.375  2.9518 -0.9477 -0.3494
30499SOL    HW296183   4.947  10.029   9.240 -0.1962 -0.2326  0.5090
30500SOL     OW96184  10.560   4.239   9.228  0.3924  0.0342 -0.2485
30500SOL    HW196185  10.569   4.217   9.135 -1.2557 -3.2690  0.2433
30500SOL    HW296186  10.641   4.209   9.268  0.4231 -0.0696 -0.3890
30501SOL     OW96187   7.503   9.946   0.295  0.2835  0.4817 -0.6565
30501SOL    HW196188   7.538   9.857   0.292 -2.3012 -0.7282  0.9805
30501SOL    HW296189   7.472   9.964   0.206 -0.4180 -0.8669 -0.7100
30502SOL     OW96190  11.816   8.012   9.622  0.5128  0.2690  0.3269
30502SOL    HW196191  11.820   7.919   9.643  2.0100 -0.1089 -1.3485
30502SOL    HW296192  11.908   8.040   9.619  0.3914  0.7643 -3.1665
30503SOL     OW96193   1.423   9.794   4.995 -0.7448  0.1247  0.0649
30503SOL    HW196194   1.484   9.867   4.991 -1.5913  0.9961  1.9898
30503SOL    HW296195   1.473   9.723   5.036 -1.2427  1.1802  2.6810
30504SOL     OW96196  10.163   1.997   6.705 -0.4713 -0.1058 -0.4999
30504SOL    HW196197  10.093   2.051   6.742 -0.2910 -0.3398  0.1947
30504SOL    HW296198  10.143   1.908   6.735  0.1948 -0.1562 -0.1978
30505SOL     OW96199   8.408   8.593   1.760  0.1970  0.3878  0.0233
30505SOL    HW196200   8.415   8.686   1.783 -2.2377  0.6378  0.0295
30505SOL    HW296201   8.374   8.594   1.670 -0.7697 -0.4712  0.3662
30506SOL     OW96202  10.227   0.485   7.666  0.3714  0.0341 -0.0380
30506SOL    HW196203  10.203   0.477   7.758  0.3501  0.1139 -0.0363
30506SOL    HW296204  10.145   0.472   7.619  0.6777 -1.8136 -0.1279
30507SOL     OW96205   4.260   8.619  10.600 -0.4115  0.2621 -0.0346
30507SOL    HW196206   4.222   8.652  10.681  1.2976  1.0984  0.4838
30507SOL    HW296207   4.340   8.574  10.627 -0.6204 -0.8344 -1.1296
30508SOL     OW96208   1.511  10.778  10.573 -0.5331  0.1870  0.2631
30508SOL    HW196209   1.523  10.828  10.653 -1.1306 -0.0654  0.5145
30508SOL    HW296210   1.438  10.719  10.592 -4.0387  3.3306 -1.9165
30509SOL     OW96211   0.410   7.145   7.047 -0.5004 -0.2168  0.2986
30509SOL    HW196212   0.372   7.074   7.098 -1.8030  0.8711  0.8929
30509SOL    HW296213   0.398   7.118   6.956  1.4273 -1.9592  0.4756
30510SOL     OW96214  11.607   4.717   7.521  0.1034 -0.5142  0.0733
30510SOL    HW196215  11.646   4.670   7.595 -0.2042  0.0277  0.5945
30510SOL    HW296216  11.566   4.794   7.561  0.9003  0.3959 -0.8004
30511SOL     OW96217   9.355   4.881   0.918  0.0725  0.0239  0.2602
30511SOL    HW196218   9.404   4.874   1.000 -0.9540 -1.0046  0.8173
30511SOL    HW296219   9.275   4.830   0.934  0.2536 -0.9418 -1.6838
30512SOL     OW96220   5.070  10.794  11.713 -0.6269 -0.2011  0.2300
30512SOL    HW196221   5.049  10.730  11.780 -3.0898 -0.2262 -0.4842
30512SOL    HW296222   5.122  10.746  11.649 -2.1051 -1.4075 -0.0975
30513SOL     OW96223   9.899  10.295   0.628 -0.2251  0.5572 -0.4986
30513SOL    HW196224   9.984  10.318   0.666  0.6160  1.3234 -2.6823
30513SOL    HW296225   9.853  10.379   0.619 -0.7977  0.2709 -0.3050
30514SOL     OW96226   0.142   2.681   7.917  0.3245 -0.7737 -0.0166
30514SOL    HW196227   0.083   2.656   7.846  1.4467  0.2880 -1.3828
30514SOL    HW296228   0.222   2.631   7.900  1.1574  0.6594 -0.4418
30515SOL     OW96229   8.548  10.906   7.326  0.2005  0.1411 -0.8618
30515SOL    HW196230   8.554  10.815   7.298  0.1734 -0.3445  0.6563
30515SOL    HW296231   8.474  10.908   7.386 -0.4800  1.3990 -1.7021
30516SOL     OW96232   5.050   2.359   7.527  0.0670  0.4001  0.0522
30516SOL    HW196233   5.084   2.270   7.517  1.4727  1.0398 -1.1072
30516SOL    HW296234   4.973   2.361   7.470  0.0546 -0.0591  0.0439
30517SOL     OW96235   3.607  11.845  10.240 -0.1845  0.0920 -0.5814
30517SOL    HW196236   3.552  11.923  10.235 -1.1120 -0.4136  1.0743
30517SOL    HW296237   3.675  11.867  10.304 -2.7204 -1.6290  3.1112
30518SOL     OW96238   3.700   9.602   4.133  0.4868 -0.2180 -0.4518
30518SOL    HW196239   3.669   9.589   4.044  1.8897  0.4798 -1.0875
30518SOL    HW296240   3.621   9.620   4.184 -0.4974 -2.0202 -1.2415
30519SOL     OW96241   4.366   8.235   4.911 -0.0279  0.3351  0.0194
30519SOL    HW196242   4.449   8.189   4.916 -0.0628  0.3337  0.7837
30519SOL    HW296243   4.310   8.178   4.857 -0.0665 -0.5343  0.9340
30520SOL     OW96244  10.869   1.317   9.895 -0.8591  0.2005 -0.0993
30520SOL    HW196245  10.803   1.301   9.963 -0.5330  0.6029  0.3246
30520SOL    HW296246  10.881   1.233   9.852 -0.9234 -0.1098  0.4843
30521SOL     OW96247   0.710   4.021   4.112 -0.4743  0.0640  0.6064
30521SOL    HW196248   0.664   4.101   4.087 -1.1835  0.0577  1.7929
30521SOL    HW296249   0.753   3.991   4.032 -0.8011  1.2316 -0.0211
30522SOL     OW96250   7.819  10.181   1.534 -0.0526 -0.2190 -0.2312
30522SOL    HW196251   7.865  10.264   1.524  1.3692 -0.6176  2.0980
30522SOL    HW296252   7.727  10.205   1.536  0.2948  1.2141 -0.3468
30523SOL     OW96253   7.218   9.474   9.257  0.1698  0.5655 -0.0235
30523SOL    HW196254   7.292   9.509   9.308  0.3401  0.4873 -0.2182
30523SOL    HW296255   7.182   9.404   9.312  1.1500 -0.3884 -0.5690
30524SOL     OW96256   7.144  11.009   2.850  0.2650 -0.1609  0.3917
30524SOL    HW196257   7.050  11.030   2.848 -0.0664 -1.4352  1.3827
30524SOL    HW296258   7.167  10.991   2.759  0.0846  2.2626 -0.2004
30525SOL     OW96259   1.101   7.872   7.808 -0.2439 -0.2038 -0.2570
30525SOL    HW196260   1.175   7.881   7.747 -0.5730 -0.7767 -0.7473
30525SOL    HW296261   1.065   7.961   7.815 -1.2004 -0.3903 -2.1656
30526SOL     OW96262   8.863   2.438   9.922  0.2175 -0.3438 -0.3900
30526SOL    HW196263   8.783   2.472   9.882  0.5702  1.8970  0.6739
30526SOL    HW296264   8.832   2.386   9.996 -0.3241  2.0147  1.1609
30527SOL     OW96265   4.400   0.589   4.246  0.6763  0.4473 -0.1050
30527SOL    HW196266   4.421   0.598   4.153 -0.5682 -0.7211 -0.5297
30527SOL    HW296267   4.312   0.626   4.255  0.9340  0.8891  0.6874
30528SOL     OW96268   8.919   7.695   2.214 -0.2574 -0.4821 -0.4697
30528SOL    HW196269   8.841   7.642   2.228 -1.5286  1.2107 -0.7320
30528SOL    HW296270   8.888   7.786   2.222  1.0886  0.3450 -3.3462
30529SOL     OW96271   2.040   0.757   0.917  0.8660  0.2133  0.1091
30529SOL    HW196272   1.988   0.723   0.989  1.2894  0.5386  0.5754
30529SOL    HW296273   1.990   0.832   0.884  0.7294  0.1338  0.1364
30530SOL     OW96274   4.686   8.637   8.741 -0.1965 -0.2518 -0.1658
30530SOL    HW196275   4.724   8.632   8.829  0.5413  1.4501 -0.3448
30530SOL    HW296276   4.704   8.727   8.712 -0.6225 -0.7033 -1.9687
30531SOL     OW96277   9.475  11.520   2.649 -0.4467  0.0652 -0.6194
30531SOL    HW196278   9.385  11.502   2.677 -0.1935  0.2747  0.3401
30531SOL    HW296279   9.483  11.616   2.655 -0.0649  0.0205 -0.4065
30532SOL     OW96280   9.782  10.287  11.721  0.3915  0.0199  0.4423
30532SOL    HW196281   9.875  10.310  11.713 -0.0473  1.3196 -1.7615
30532SOL    HW296282   9.760  10.309  11.812  2.3101 -0.7967  1.1778
30533SOL     OW96283   0.166   5.898   4.821 -0.2495  0.5803  0.8383
30533SOL    HW196284   0.114   5.879   4.899  0.7177 -1.7322  1.0098
30533SOL    HW296285   0.202   5.985   4.837 -1.7939  1.0704  1.9595
30534SOL     OW96286   1.909   0.944   6.716  0.0017 -0.2116  0.4350
30534SOL    HW196287   1.942   0.941   6.806  0.4686 -1.4181  0.2310
30534SOL    HW296288   1.930   1.033   6.687  0.3333  0.0200  1.3266
30535SOL     OW96289   1.299   3.400  10.162 -0.2062 -0.2651 -0.3580
30535SOL    HW196290   1.267   3.476  10.115 -1.1253  0.0549  0.7351
30535SOL    HW296291   1.330   3.434  10.245 -1.8826 -1.1978  0.7131
30536SOL     OW96292   5.427   5.108   3.056  0.4454  0.1590  0.0130
30536SOL    HW196293   5.446   5.054   2.979 -1.4641  0.1161 -0.4971
30536SOL    HW296294   5.473   5.065   3.128  1.1090 -0.6220 -0.8549
30537SOL     OW96295   8.387   0.118   2.659 -0.5628 -0.2182  0.1315
30537SOL    HW196296   8.422   0.033   2.687 -2.7238 -1.2967 -0.2208
30537SOL    HW296297   8.319   0.096   2.596 -0.3453  1.8680 -0.9131
30538SOL     OW96298   3.279  11.908   8.888 -0.1486  0.0428 -0.0207
30538SOL    HW196299   3.357  11.948   8.849  0.4767 -0.3504  0.7728
30538SOL    HW296300   3.208  11.930   8.829  0.6728 -0.1037 -1.0887
30539SOL     OW96301   5.012  11.492   3.306  0.1058 -0.1097 -0.6075
30539SOL    HW196302   5.056  11.458   3.384 -2.8275  0.1657  1.3246
30539SOL    HW296303   4.971  11.574   3.334 -2.6677 -0.9459 -1.7834
30540SOL     OW96304   8.484   4.743   4.280  0.4180 -0.6661 -0.2615
30540SOL    HW196305   8.567   4.761   4.237 -0.9394  0.6979 -2.5276
30540SOL    HW296306   8.464   4.824   4.328  0.6512 -1.2145  0.7929
30541SOL     OW96307   9.139   0.151   7.835 -0.0123  0.4166 -0.0810
30541SOL    HW196308   9.162   0.179   7.924 -2.7899  2.6960  0.0505
30541SOL    HW296309   9.087   0.072   7.848 -0.3198  0.6798  0.3371
30542SOL     OW96310   0.734  10.013  10.842  0.3224 -0.3973  0.1907
30542SOL    HW196311   0.710  10.090  10.894  2.3631  0.8894 -0.6320
30542SOL    HW296312   0.698  10.032  10.755 -1.8376 -1.8757  0.6862
30543SOL     OW96313   3.100   5.319  11.235 -0.1274  0.0531  0.1604
30543SOL    HW196314   3.192   5.304  11.258 -0.2342  1.3368  1.5750
30543SOL    HW296315   3.052   5.254  11.286 -0.0004 -1.1139 -1.1402
30544SOL     OW96316   9.820   9.650  10.531  0.3064 -0.8734 -0.0921
30544SOL    HW196317   9.745   9.700  10.563  0.2976 -0.3266 -0.9468
30544SOL    HW296318   9.839   9.587  10.601  1.5362  1.5685  1.9169
30545SOL     OW96319   7.086   9.816  10.011  0.3922  0.2865  0.0405
30545SOL    HW196320   7.162   9.834  10.067 -1.2463  0.8839  2.2125
30545SOL    HW296321   7.017   9.873  10.046 -0.7918  0.5724 -2.5461
30546SOL     OW96322   1.852   8.781   2.106  0.2281 -0.0259  0.0577
30546SOL    HW196323   1.924   8.791   2.168 -0.6336  0.1442  1.0505
30546SOL    HW296324   1.782   8.836   2.141 -0.8492 -1.2100 -0.1638
30547SOL     OW96325   3.263   2.162  10.779 -0.3901  0.4369 -0.5403
30547SOL    HW196326   3.356   2.141  10.767 -0.6762  0.2882 -3.1449
30547SOL    HW296327   3.228   2.086  10.827  0.7366  0.3252  0.1537
30548SOL     OW96328   6.218   6.287   2.899 -0.2470 -0.0240 -0.2736
30548SOL    HW196329   6.200   6.196   2.874  3.2997 -0.9245 -0.0801
30548SOL    HW296330   6.268   6.322   2.825  0.6789  0.9042  0.7689
30549SOL     OW96331   1.057   6.521   4.436 -0.1014 -0.4422 -0.2848
30549SOL    HW196332   0.994   6.451   4.455 -0.1296 -0.3834 -0.1604
30549SOL    HW296333   1.006   6.586   4.387 -0.2443 -0.2042  0.1708
30550SOL     OW96334   1.713  10.733   0.841  0.2810  0.1302  0.1726
30550SOL    HW196335   1.694  10.670   0.911  2.1968 -0.4391  0.2349
30550SOL    HW296336   1.725  10.679   0.763 -2.2067  0.7905 -0.7565
30551SOL     OW96337   5.960   9.555   4.479  0.2077  0.6951 -0.4213
30551SOL    HW196338   5.969   9.634   4.425 -0.0503  0.9003 -0.1616
30551SOL    HW296339   5.910   9.583   4.556  1.6955  0.7133  0.5736
30552SOL     OW96340   8.417   5.665  11.799  0.5338 -0.1079 -0.8785
30552SOL    HW196341   8.478   5.592  11.808  0.9325  0.2679 -0.4510
30552SOL    HW296342   8.466   5.741  11.832  0.4680  0.5351 -2.1825
30553SOL     OW96343   5.165  10.294   7.326 -0.1439  0.2288  0.0706
30553SOL    HW196344   5.177  10.359   7.395 -1.4114  1.2954 -0.6473
30553SOL    HW296345   5.076  10.260   7.340  1.2842 -3.1812  1.8642
30554SOL     OW96346   3.353   8.473  10.769  0.3737  0.1767  0.4465
30554SOL    HW196347   3.382   8.487  10.679  0.0575 -3.1191 -0.3164
30554SOL    HW296348   3.259   8.492  10.767  0.7703  2.3756  0.7317
30555SOL     OW96349  11.654   8.878   6.122  0.3840  0.1417 -0.0154
30555SOL    HW196350  11.637   8.901   6.213  1.4416  0.7948  0.0261
30555SOL    HW296351  11.727   8.816   6.125 -0.1029 -0.4709 -0.3766
30556SOL     OW96352   5.679   6.416   3.030  0.2968 -0.0776  0.0306
30556SOL    HW196353   5.693   6.460   2.946 -0.7978  0.9670  0.3678
30556SOL    HW296354   5.748   6.350   3.034  0.7579  0.2789 -1.3988
30557SOL     OW96355   6.655   2.315   9.681  1.0076  0.5787 -0.1190
30557SOL    HW196356   6.681   2.402   9.711 -0.4624  1.1387 -0.3809
30557SOL    HW296357   6.587   2.331   9.616 -1.8492 -0.7908  2.3034
30558SOL     OW96358   7.903  11.171   5.509  0.3153 -0.0318  0.2821
30558SOL    HW196359   7.976  11.194   5.453  1.6168  0.9100  2.2589
30558SOL    HW296360   7.918  11.079   5.532  0.1252 -0.2309 -0.3749
30559SOL     OW96361   1.814   1.522   2.920  0.2999 -0.0489 -0.1450
30559SOL    HW196362   1.825   1.609   2.957  0.8163 -0.6429  1.1556
30559SOL    HW296363   1.894   1.507   2.869  0.0115  0.3995 -0.7381
30560SOL     OW96364   1.181   0.375   3.771 -0.0000 -0.0511  0.3962
30560SOL    HW196365   1.129   0.300   3.742 -1.5298  0.8891  0.6098
30560SOL    HW296366   1.173   0.439   3.700  1.2083 -0.0243  0.2586
30561SOL     OW96367   2.737   6.996   8.203 -0.3484  0.0551 -0.2596
30561SOL    HW196368   2.729   7.049   8.124 -1.3620  0.7476  0.2683
30561SOL    HW296369   2.801   7.043   8.257 -0.6287  0.3138 -0.1421
30562SOL     OW96370  10.818   7.303   9.771 -0.5143 -0.1178  0.3446
30562SOL    HW196371  10.882   7.299   9.700 -1.8047 -0.3845 -0.8468
30562SOL    HW296372  10.871   7.295   9.851  1.0603  1.0284 -0.5145
30563SOL     OW96373   5.361  11.087   3.198  0.4380 -0.6736 -0.3662
30563SOL    HW196374   5.456  11.084   3.193  0.5478  1.7646 -1.4308
30563SOL    HW296375   5.342  11.143   3.273 -0.2511 -2.3506  0.7721
30564SOL     OW96376   5.278  10.949   6.538  0.2298 -0.3239  0.1929
30564SOL    HW196377   5.313  10.863   6.513  2.2692  0.3579  0.5173
30564SOL    HW296378   5.287  10.951   6.634 -0.7227 -0.1266  0.2803
30565SOL     OW96379   4.080   8.146   4.315  0.5368 -0.3956  0.3955
30565SOL    HW196380   3.997   8.114   4.352  0.3177  0.8511  1.0404
30565SOL    HW296381   4.054   8.192   4.235  0.8381 -1.6617 -0.4654
30566SOL     OW96382   3.339   4.510   7.494 -0.1799 -0.0375  0.0952
30566SOL    HW196383   3.260   4.457   7.499  0.0127 -0.3039  0.3649
30566SOL    HW296384   3.349   4.529   7.401 -0.4782 -0.1305  0.0426
30567SOL     OW96385   9.886   3.636   7.938 -0.1465  0.1666  0.3072
30567SOL    HW196386   9.796   3.628   7.969  0.8128 -2.1408  3.0622
30567SOL    HW296387   9.894   3.569   7.870 -0.6018  0.7426 -0.3300
30568SOL     OW96388   6.148   8.837   4.396 -0.4288  0.3854  0.3076
30568SOL    HW196389   6.196   8.916   4.417  1.9394 -1.1754  1.0996
30568SOL    HW296390   6.148   8.834   4.300  1.8460  0.0380  0.2664
30569SOL     OW96391   1.094  10.738   3.129  0.5631  0.6716  0.0607
30569SOL    HW196392   1.189  10.734   3.145  0.4058 -1.0092  0.8071
30569SOL    HW296393   1.086  10.743   3.034  1.4301 -1.8391 -0.2298
30570SOL     OW96394   0.710   7.668  11.204 -0.4136 -0.2585  0.4183
30570SOL    HW196395   0.736   7.643  11.292 -0.5024  0.4931  0.6600
30570SOL    HW296396   0.700   7.763  11.207 -0.2303 -0.1998 -0.4481
30571SOL     OW96397   6.542   4.428   3.576  0.0571  0.4046 -0.2220
30571SOL    HW196398   6.475   4.434   3.643  0.0868 -0.1967 -0.1292
30571SOL    HW296399   6.605   4.496   3.598  0.0862  0.1835  0.3867
30572SOL     OW96400   7.296   1.465   9.009 -0.4283 -0.1167  0.2062
30572SOL    HW196401   7.217   1.431   8.967 -0.5294 -0.0591  0.3475
30572SOL    HW296402   7.347   1.387   9.031 -0.3946 -0.1488  0.0150
30573SOL     OW96403   0.026  11.566   6.091 -0.1866  0.4480 -0.1259
30573SOL    HW196404  -0.025  11.517   6.156 -1.4414 -2.1068 -2.8037
30573SOL    HW296405   0.116  11.537   6.104 -0.3363  0.3430  0.7460
30574SOL     OW96406   7.115   6.738  11.315  0.3290  0.1688 -0.2749
30574SOL    HW196407   7.166   6.676  11.368 -0.5474  2.6470  3.8549
30574SOL    HW296408   7.179   6.805  11.289 -0.0634  1.5913  2.1633
30575SOL     OW96409   5.849   1.314   5.667  0.1738  0.1544  0.1959
30575SOL    HW196410   5.837   1.332   5.760 -0.4697  1.2678 -0.0784
30575SOL    HW296411   5.934   1.353   5.646 -0.6666  1.9129 -0.1285
30576SOL     OW96412   8.459  10.011  11.065 -0.1881 -0.3871 -0.0301
30576SOL    HW196413   8.455  10.081  10.999 -0.4836  1.0105  1.4115
30576SOL    HW296414   8.548   9.978  11.059  0.3111  0.8808 -0.0177
30577SOL     OW96415   8.035   6.674  11.654  0.0306 -0.2785 -0.0611
30577SOL    HW196416   8.119   6.629  11.644  0.1997  0.1828 -0.7806
30577SOL    HW296417   7.972   6.618  11.608  0.0777 -0.2469 -0.1643
30578SOL     OW96418  10.536   5.102   4.644  0.2653  1.1164  0.6886
30578SOL    HW196419  10.453   5.133   4.609  0.6316  2.4550  0.9310
30578SOL    HW296420  10.529   5.006   4.642 -0.9200  1.1946 -0.1146
30579SOL     OW96421   3.168   9.691   0.400  0.1508  0.2898 -0.1841
30579SOL    HW196422   3.231   9.680   0.472 -1.9086 -0.1073  1.6725
30579SOL    HW296423   3.131   9.778   0.413 -0.6642 -0.0174 -0.4011
30580SOL     OW96424   1.656   1.271   5.477 -0.3646  0.8802  0.2321
30580SOL    HW196425   1.623   1.280   5.566  0.7719 -0.6825  0.8433
30580SOL    HW296426   1.641   1.179   5.454  1.2003  0.7452 -0.4100
30581SOL     OW96427  11.334   6.533   9.576 -0.5775 -0.8667 -0.6188
30581SOL    HW196428  11.313   6.452   9.624 -3.1263 -0.2017 -0.4387
30581SOL    HW296429  11.268   6.596   9.606  0.9082  1.0914 -1.2799
30582SOL     OW96430   5.643  10.551   3.126 -0.2250  0.5707  0.6059
30582SOL    HW196431   5.616  10.523   3.213  3.0538 -1.5962  1.0847
30582SOL    HW296432   5.615  10.642   3.120 -0.2405  0.9068  4.0633
30583SOL     OW96433   1.655   5.478   0.152 -0.3021  0.1762  0.1925
30583SOL    HW196434   1.579   5.421   0.155  0.0084 -0.1922  1.8406
30583SOL    HW296435   1.722   5.427   0.108  0.1226 -0.9893  2.0664
30584SOL     OW96436   2.370   1.467   9.600 -0.3796 -0.8085  0.4426
30584SOL    HW196437   2.366   1.553   9.642  1.7882 -0.8019  0.6963
30584SOL    HW296438   2.444   1.423   9.640  0.7412 -1.4607 -2.1214
30585SOL     OW96439   9.954   1.932   7.134  0.2517  0.4886  0.4307
30585SOL    HW196440  10.018   1.952   7.202  0.3395 -1.1682  0.8588
30585SOL    HW296441   9.975   1.844   7.104  0.2795  1.1822 -1.8566
30586SOL     OW96442  10.843   9.173   8.305 -0.0856  0.2692  0.3730
30586SOL    HW196443  10.853   9.231   8.229  1.4043  0.0549  0.3771
30586SOL    HW296444  10.854   9.085   8.270  0.6231  0.1686  0.8147
30587SOL     OW96445   6.977  11.153   0.729  0.2752  0.0635  0.2411
30587SOL    HW196446   6.910  11.130   0.794  1.0802 -1.0136  0.7203
30587SOL    HW296447   7.033  11.216   0.773 -0.3416  0.8932 -0.1280
30588SOL     OW96448   9.826   2.568   6.193 -0.2824  0.2334  0.0434
30588SOL    HW196449   9.775   2.627   6.138 -1.6311 -1.3226 -0.4659
30588SOL    HW296450   9.823   2.608   6.280  3.2476  3.5967 -1.1286
30589SOL     OW96451  10.596   6.892   1.125 -0.8146 -0.6007 -0.3285
30589SOL    HW196452  10.503   6.901   1.105 -0.7582 -1.2456 -0.9461
30589SOL    HW296453  10.613   6.958   1.192 -1.9899 -1.3064  0.6978
30590SOL     OW96454  11.715   2.519  11.961  0.2491 -0.7065 -0.3911
30590SOL    HW196455  11.729   2.581  12.032  0.0921 -2.0654  0.8588
30590SOL    HW296456  11.656   2.564  11.901 -1.8025 -0.5129  1.6542
30591SOL     OW96457   7.446  11.700   7.192 -0.1121  0.4090  0.4666
30591SOL    HW196458   7.472  11.730   7.279 -2.5979  1.1594  1.0307
30591SOL    HW296459   7.390  11.769   7.158  2.2946  1.0594 -2.6303
30592SOL     OW96460   4.048   1.355   1.402  0.5375 -0.6856 -0.2443
30592SOL    HW196461   4.099   1.435   1.387  1.4568 -0.9603  1.1630
30592SOL    HW296462   4.112   1.284   1.399 -0.1240 -1.2766 -0.5991
30593SOL     OW96463  11.201   6.216   8.813 -0.2145  0.0144 -0.7176
30593SOL    HW196464  11.137   6.252   8.875 -1.0724 -0.4269 -1.3132
30593SOL    HW296465  11.213   6.125   8.842 -0.8147 -0.2708 -1.3299
30594SOL     OW96466  11.065   3.515   3.028  0.2383 -0.1894  0.1890
30594SOL    HW196467  11.133   3.582   3.032 -1.2892  1.5939 -1.4302
30594SOL    HW296468  11.084   3.466   2.948  0.0036 -0.1352  0.1001
30595SOL     OW96469   9.058   6.293   4.566 -0.5784  0.1739  0.0032
30595SOL    HW196470   9.137   6.247   4.537 -0.6963 -0.8282  1.2139
30595SOL    HW296471   9.066   6.380   4.526  0.4072 -0.3823 -1.0773
30596SOL     OW96472  11.105   9.943   8.810  0.4527 -0.1253 -0.2249
30596SOL    HW196473  11.120   9.854   8.779 -1.0980 -0.7696  0.7540
30596SOL    HW296474  11.026   9.972   8.765 -2.4348 -1.4375  3.4962
30597SOL     OW96475   2.248   5.316   1.350  0.2666  0.5237 -0.3261
30597SOL    HW196476   2.185   5.336   1.281 -1.0109 -1.1282  0.2920
30597SOL    HW296477   2.321   5.274   1.304  0.1354  0.8638 -0.8512
30598SOL     OW96478   5.898   5.527   2.838  0.1771  0.0475 -0.1442
30598SOL    HW196479   5.907   5.469   2.762 -0.9045 -0.3652  0.0268
30598SOL    HW296480   5.852   5.474   2.904 -2.7791  1.6511 -0.7145
30599SOL     OW96481   3.493   0.769   1.765 -0.0667 -0.5147 -0.1556
30599SOL    HW196482   3.554   0.829   1.808 -1.1596 -0.8000  1.9264
30599SOL    HW296483   3.486   0.695   1.824 -1.0151 -1.3458 -1.2449
30600SOL     OW96484   3.534   6.158   8.662  0.4873  0.3967  0.4486
30600SOL    HW196485   3.485   6.125   8.737  1.2605 -0.8891  0.4150
30600SOL    HW296486   3.601   6.092   8.645 -0.4940 -0.0602 -2.2079
30601SOL     OW96487  10.441  10.252   2.849 -0.2651  0.1276 -0.1589
30601SOL    HW196488  10.499  10.213   2.784  0.6599  2.5441 -0.9102
30601SOL    HW296489  10.441  10.345   2.828 -1.4908  0.7256  2.1377
30602SOL     OW96490   8.534  10.526   6.672  0.0478  0.8330  0.0198
30602SOL    HW196491   8.598  10.597   6.684 -0.3112  1.0906  0.4273
30602SOL    HW296492   8.449  10.566   6.690 -0.4052  0.8778 -2.0466
30603SOL     OW96493   1.888   2.623   0.792 -0.5843  0.3473  0.1310
30603SOL    HW196494   1.957   2.669   0.745 -0.4844  0.5684  0.4919
30603SOL    HW296495   1.848   2.566   0.726  1.7061 -1.8661  0.4879
30604SOL     OW96496   7.606   8.155  10.099  0.0972 -0.0608 -1.1246
30604SOL    HW196497   7.554   8.077  10.119 -2.3907  1.3856 -1.5558
30604SOL    HW296498   7.645   8.179  10.183 -0.6860 -0.6752 -0.5681
30605SOL     OW96499   3.768   6.846   3.953  0.1662 -0.4008  0.1676
30605SOL    HW196500   3.831   6.811   4.014  1.1620  2.4071  0.9050
30605SOL    HW296501   3.815   6.914   3.905 -2.0098  1.2176  0.1306
30606SOL     OW96502   5.040   9.523   9.248 -0.2555 -0.4083 -0.0835
30606SOL    HW196503   5.077   9.605   9.281  0.6491 -1.3295  1.3475
30606SOL    HW296504   4.978   9.496   9.316 -0.6139 -0.8498 -0.5848
30607SOL     OW96505   2.078   5.857  11.228  0.1124  0.3160  0.4803
30607SOL    HW196506   2.119   5.943  11.224 -0.2613  0.4731 -3.0290
30607SOL    HW296507   1.989   5.871  11.194  0.0555 -1.4548 -0.1832
30608SOL     OW96508   4.270   4.993   1.975  0.2456 -0.0285  0.3221
30608SOL    HW196509   4.246   4.901   1.981  0.4945 -0.0368  1.3797
30608SOL    HW296510   4.305   5.015   2.061  1.5951  0.6727 -0.3672
30609SOL     OW96511   3.856  11.374   2.470  0.0524 -0.2181 -0.1980
30609SOL    HW196512   3.909  11.411   2.540 -0.0114 -1.2610  0.4179
30609SOL    HW296513   3.894  11.288   2.454 -1.3715 -0.9606  0.2047
30610SOL     OW96514   5.729   2.092   0.562  0.1348  0.1805  0.2377
30610SOL    HW196515   5.647   2.100   0.611  0.4766  0.1949  0.8257
30610SOL    HW296516   5.725   2.006   0.521 -0.9361  0.8711 -1.1833
30611SOL     OW96517   1.064  11.382  10.464 -0.1167  0.1160  0.0063
30611SOL    HW196518   1.039  11.291  10.447  0.8313 -0.0750 -0.4179
30611SOL    HW296519   1.097  11.381  10.553  1.4251 -0.3097 -0.5374
30612SOL     OW96520   5.968   4.688   8.656 -0.2428  0.0986  0.2393
30612SOL    HW196521   5.910   4.720   8.726 -0.6414  1.7823 -0.7944
30612SOL    HW296522   5.918   4.703   8.576  1.7535  2.0566 -0.7368
30613SOL     OW96523   1.594   1.881  10.540 -0.0399 -0.7755  0.2075
30613SOL    HW196524   1.639   1.891  10.624  0.7189 -0.8395 -0.1776
30613SOL    HW296525   1.649   1.821  10.491 -1.6815 -2.6099  0.4845
30614SOL     OW96526   9.094   2.050   6.401 -0.4432 -0.1964  0.0526
30614SOL    HW196527   9.012   2.015   6.437 -0.0112 -1.2923 -0.0014
30614SOL    HW296528   9.069   2.135   6.364 -1.3684 -0.1137  0.8386
30615SOL     OW96529   7.665  10.259   1.008  0.0099 -0.0301  0.3338
30615SOL    HW196530   7.666  10.320   1.082 -2.3169 -1.7989  1.9837
30615SOL    HW296531   7.625  10.179   1.043  0.7639 -1.7212 -2.3274
30616SOL     OW96532  10.105   9.317   5.678  0.1782  0.8469 -0.3985
30616SOL    HW196533  10.164   9.250   5.643  1.8811  1.5664  0.9795
30616SOL    HW296534  10.149   9.400   5.658 -1.7198  1.5969 -1.7417
30617SOL     OW96535  10.824   1.241   2.220 -0.9069 -0.3837  0.4921
30617SOL    HW196536  10.887   1.169   2.213  0.2908  0.7226 -0.6940
30617SOL    HW296537  10.747   1.211   2.172  0.3818 -0.0964 -1.9078
30618SOL     OW96538   0.854   3.416   1.103 -0.5482 -0.3156 -0.2208
30618SOL    HW196539   0.790   3.367   1.051 -0.5976  0.5758 -1.0230
30618SOL    HW296540   0.887   3.483   1.044 -0.8786  0.9798  1.0012
30619SOL     OW96541   3.102   7.712   3.447  0.3573  0.1076  0.4108
30619SOL    HW196542   3.147   7.644   3.398  2.2000  0.7799  1.0549
30619SOL    HW296543   3.160   7.789   3.440 -0.6268  0.9864  1.4087
30620SOL     OW96544   8.907   2.682   8.147 -0.1184  0.3606 -0.3498
30620SOL    HW196545   8.930   2.601   8.101  0.9278 -2.4919  4.4748
30620SOL    HW296546   8.884   2.654   8.236 -1.0991  5.3147  1.2993
30621SOL     OW96547   0.562  11.170  10.271 -0.1548  0.2842  0.3111
30621SOL    HW196548   0.485  11.202  10.225 -0.9735 -1.7396  0.1521
30621SOL    HW296549   0.636  11.216  10.230 -1.0588  0.3153 -1.3684
30622SOL     OW96550  10.106   5.578   1.079 -0.0164 -0.0089 -0.0679
30622SOL    HW196551  10.133   5.527   1.003  0.4279 -0.5615  0.4526
30622SOL    HW296552  10.133   5.526   1.154 -0.9931  0.2425  0.4760
30623SOL     OW96553   3.158   2.211   0.476 -0.4663  0.2273  0.1795
30623SOL    HW196554   3.078   2.238   0.521 -0.0375  3.0965 -0.6301
30623SOL    HW296555   3.175   2.123   0.509 -2.7027  0.4180  2.0691
30624SOL     OW96556   3.005   4.112   7.082  0.0126 -0.3976 -0.2066
30624SOL    HW196557   2.960   4.028   7.072  0.9289 -0.8776 -0.4026
30624SOL    HW296558   3.093   4.097   7.047  0.2137  0.6260 -0.1829
30625SOL     OW96559   4.748   0.381   7.790  0.1637  0.3088  0.1663
30625SOL    HW196560   4.795   0.397   7.872  1.5446  0.0980 -0.5663
30625SOL    HW296561   4.688   0.308   7.810 -1.2369  1.7756  1.6138
30626SOL     OW96562   4.820   7.518   9.866 -0.3702 -0.6823  0.0993
30626SOL    HW196563   4.833   7.595   9.921 -1.7178 -0.1603 -0.2696
30626SOL    HW296564   4.842   7.444   9.923  1.7186 -0.0134  0.2135
30627SOL     OW96565   5.117   4.417  11.116  0.0871 -0.2867 -0.0838
30627SOL    HW196566   5.117   4.450  11.026  0.2339  0.5374  0.2176
30627SOL    HW296567   5.204   4.378  11.127  0.0411 -0.4605 -0.3246
30628SOL     OW96568   1.229   5.714   1.933 -0.1745 -0.1763  0.1213
30628SOL    HW196569   1.155   5.665   1.897 -0.4811  0.0665  0.4164
30628SOL    HW296570   1.189   5.787   1.981  0.2898  0.7094 -0.7983
30629SOL     OW96571   5.741   3.866  10.395  0.0189  0.0804  0.3428
30629SOL    HW196572   5.752   3.861  10.490 -1.7527  0.5877  0.6181
30629SOL    HW296573   5.649   3.889  10.383  0.4110  0.8826 -1.4805
30630SOL     OW96574   9.261   2.441   8.108 -0.7809  0.4199 -0.5692
30630SOL    HW196575   9.171   2.410   8.109 -1.2982  1.6423 -2.4324
30630SOL    HW296576   9.264   2.508   8.177  0.0035 -2.5934  2.5674
30631SOL     OW96577   1.777   2.247   4.208  0.2688 -0.1620 -0.2453
30631SOL    HW196578   1.774   2.189   4.132  2.0019 -0.0539 -0.4232
30631SOL    HW296579   1.755   2.333   4.173  0.2257 -0.2619 -0.4659
30632SOL     OW96580  11.949   8.676   3.910  0.2578  0.1729  0.2058
30632SOL    HW196581  11.892   8.687   3.986 -0.0789 -1.2578  0.1773
30632SOL    HW296582  11.909   8.606   3.859  1.3398  0.0261 -0.4819
30633SOL     OW96583   0.810   4.886   3.587  0.2679 -0.4290  0.0317
30633SOL    HW196584   0.809   4.852   3.498 -1.6760 -0.8865  0.1764
30633SOL    HW296585   0.887   4.942   3.591  0.8745 -1.0938 -1.6614
30634SOL     OW96586   7.906   8.575   7.765 -0.2968  0.3858  0.0976
30634SOL    HW196587   7.868   8.660   7.744  0.5451  0.9953  0.9634
30634SOL    HW296588   7.909   8.573   7.861  1.8108  0.3734  0.0798
30635SOL     OW96589   1.875   5.680   4.361 -0.3347  0.0326  0.5866
30635SOL    HW196590   1.927   5.666   4.440  0.4638 -0.3797  0.0008
30635SOL    HW296591   1.816   5.752   4.384 -0.5546 -0.4893  1.7604
30636SOL     OW96592   7.049   2.630  10.989 -0.4187  0.2846  0.3229
30636SOL    HW196593   7.039   2.626  11.084  0.6265 -2.3629  0.3944
30636SOL    HW296594   7.135   2.670  10.975  0.5575 -1.5877  0.6410
30637SOL     OW96595   2.529   6.353   9.651 -0.4840  0.6518 -0.2033
30637SOL    HW196596   2.462   6.410   9.615 -1.2319 -0.8378 -1.2459
30637SOL    HW296597   2.516   6.269   9.607  0.6705 -0.2946  1.1694
30638SOL     OW96598   9.344   9.280   5.630  0.6478 -0.0900 -0.4479
30638SOL    HW196599   9.300   9.351   5.677  0.4863  0.9447 -2.1102
30638SOL    HW296600   9.311   9.200   5.672 -0.4225  0.7605  0.3889
30639SOL     OW96601   0.660   1.026   0.920 -0.4578  0.0476  0.3660
30639SOL    HW196602   0.586   0.965   0.912  0.6543 -1.5129  1.2612
30639SOL    HW296603   0.738   0.969   0.918  0.7002  1.5675  0.1372
30640SOL     OW96604  10.466   9.829   1.997 -0.1065  0.4951  0.5189
30640SOL    HW196605  10.525   9.893   1.955 -0.1374  1.0564  1.3046
30640SOL    HW296606  10.472   9.849   2.090 -1.7642  0.7451  0.5989
30641SOL     OW96607  11.418   7.973   7.824  0.4613 -0.2126 -0.2018
30641SOL    HW196608  11.501   8.009   7.855  0.8060 -1.0946 -0.0504
30641SOL    HW296609  11.374   8.046   7.781  1.1091  0.3846  0.1291
30642SOL     OW96610   6.941   4.261   5.568  0.0148  0.0297 -0.8585
30642SOL    HW196611   6.940   4.354   5.545 -2.4123  0.1565 -0.5083
30642SOL    HW296612   6.886   4.219   5.502  0.5688 -1.0777 -0.6491
30643SOL     OW96613   2.204  10.419  11.825 -0.4119  0.3798 -0.3082
30643SOL    HW196614   2.218  10.326  11.843 -2.5787 -0.1051 -0.8118
30643SOL    HW296615   2.291  10.458  11.831  0.2638 -1.2323  2.3140
30644SOL     OW96616   9.170   0.333   6.744 -0.1953  0.3432  0.4930
30644SOL    HW196617   9.261   0.322   6.717 -0.2033 -1.0421  0.9229
30644SOL    HW296618   9.123   0.358   6.664  0.2296 -0.9552 -0.1898
30645SOL     OW96619   8.364   2.200   3.912 -0.8288 -0.4181 -0.3532
30645SOL    HW196620   8.323   2.213   3.998 -1.3464  1.2812 -0.8027
30645SOL    HW296621   8.334   2.275   3.861  0.5920 -0.6649 -1.5948
30646SOL     OW96622   8.437   6.400   7.145 -0.3838  0.5925  0.5197
30646SOL    HW196623   8.525   6.379   7.178  0.0700  0.6602 -0.5713
30646SOL    HW296624   8.441   6.493   7.123  0.1153  0.0685 -1.8812
30647SOL     OW96625  10.223   4.137   8.189  0.5191 -0.1162  0.0498
30647SOL    HW196626  10.303   4.094   8.157  0.7507 -0.9513  1.6904
30647SOL    HW296627  10.154   4.104   8.132  1.3599  0.9532 -1.6838
30648SOL     OW96628   1.800   0.001   7.820 -0.5431 -0.2452 -0.2825
30648SOL    HW196629   1.844   0.085   7.808  2.2695 -1.1676  2.4051
30648SOL    HW296630   1.830  -0.051   7.745  0.5946  0.1027 -0.1004
30649SOL     OW96631   6.379   1.203   7.798 -0.2845 -0.0227 -0.2977
30649SOL    HW196632   6.358   1.186   7.890  0.0230 -1.6246 -0.4883
30649SOL    HW296633   6.313   1.266   7.769 -0.1387  0.8201  1.1116
30650SOL     OW96634   4.396   4.930   6.123  0.3084  0.0083 -0.3165
30650SOL    HW196635   4.344   4.942   6.203  0.5625  0.8874 -0.2804
30650SOL    HW296636   4.333   4.899   6.058  0.0208 -0.3171  0.1060
30651SOL     OW96637   9.656   0.825   3.673 -0.3672 -0.3967 -0.0437
30651SOL    HW196638   9.683   0.859   3.758 -1.1153 -1.5998  0.6993
30651SOL    HW296639   9.733   0.839   3.616  1.5085 -2.6693  1.7056
30652SOL     OW96640   3.340   6.274   2.152 -1.0754 -0.1948 -0.1613
30652SOL    HW196641   3.396   6.331   2.099 -1.3456  0.4093  0.1836
30652SOL    HW296642   3.398   6.244   2.223 -0.6784 -1.1140 -0.8635
30653SOL     OW96643   6.744   0.090   7.135 -0.1496 -0.4269  0.0012
30653SOL    HW196644   6.796   0.086   7.216  1.0923  1.1374 -0.6650
30653SOL    HW296645   6.764   0.008   7.090 -1.0524 -1.4303  1.3580
30654SOL     OW96646   1.919   5.283   1.667 -0.2609 -0.1096  0.4561
30654SOL    HW196647   1.908   5.350   1.734  0.3712  2.6944 -2.0398
30654SOL    HW296648   2.014   5.279   1.653 -0.4195 -0.1702 -0.6895
30655SOL     OW96649   4.852   1.283   9.957 -0.3825 -0.2891 -0.5196
30655SOL    HW196650   4.820   1.354  10.013 -0.0869 -0.4874 -0.0936
30655SOL    HW296651   4.915   1.237  10.012  1.1686  0.5047 -1.5580
30656SOL     OW96652   2.746  11.979   4.234 -0.4035 -0.0998  0.0704
30656SOL    HW196653   2.802  11.907   4.263 -1.2262 -0.7137  0.1731
30656SOL    HW296654   2.766  12.050   4.294  2.1551  0.5914 -1.4686
30657SOL     OW96655   9.742   5.105   3.229 -0.1466 -0.6494  0.0952
30657SOL    HW196656   9.779   5.146   3.307 -0.8722 -3.8365  2.3286
30657SOL    HW296657   9.806   5.037   3.206 -1.3256 -1.6741 -0.2458
30658SOL     OW96658   4.604   0.530   4.439 -0.7571 -0.4235  0.1011
30658SOL    HW196659   4.696   0.554   4.424 -0.9711  0.4430  0.1773
30658SOL    HW296660   4.558   0.560   4.361 -1.2645  0.7406  0.8311
30659SOL     OW96661   4.735   0.097   5.047 -0.0578  0.0919 -0.3389
30659SOL    HW196662   4.708   0.168   4.989 -0.6763 -0.1262 -0.3241
30659SOL    HW296663   4.677   0.105   5.123  0.1535 -0.1670 -0.1501
30660SOL     OW96664   4.526   3.019   7.080 -0.6596  0.2691 -0.0289
30660SOL    HW196665   4.432   3.019   7.099 -0.5993  0.0272  0.2700
30660SOL    HW296666   4.551   2.927   7.081 -0.2719  0.3772  0.6340
30661SOL     OW96667   4.394   9.690   5.115  0.2404 -0.1115 -0.2400
30661SOL    HW196668   4.306   9.669   5.148  1.3175 -2.3806  1.4810
30661SOL    HW296669   4.437   9.606   5.108  2.3730  0.9723 -0.8274
30662SOL     OW96670   7.248   5.036   9.164  0.3414  0.1494  0.0289
30662SOL    HW196671   7.322   4.974   9.160  1.0387  1.0226 -1.1760
30662SOL    HW296672   7.277   5.102   9.228 -0.3874 -0.7038  1.2863
30663SOL     OW96673   7.674   8.391  10.630 -0.4174 -0.0277  0.0231
30663SOL    HW196674   7.760   8.427  10.652 -0.0948  1.0494 -2.5859
30663SOL    HW296675   7.656   8.425  10.542 -2.4947 -2.1029 -0.4516
30664SOL     OW96676   7.279  11.524  10.605  0.0891  0.3873 -0.0452
30664SOL    HW196677   7.303  11.613  10.631 -1.9165  1.0989 -0.4166
30664SOL    HW296678   7.224  11.493  10.677 -1.3012  0.4523 -1.0216
30665SOL     OW96679   8.013   0.098   5.265 -0.7372  0.1206 -0.1307
30665SOL    HW196680   7.962   0.154   5.206  0.0498 -0.4261 -1.3862
30665SOL    HW296681   7.968   0.013   5.263 -2.1632  0.7607  2.0881
30666SOL     OW96682   8.281   7.015   6.756  0.0746 -0.1389  0.3926
30666SOL    HW196683   8.187   7.000   6.758  0.1525 -0.5919  1.5206
30666SOL    HW296684   8.311   6.988   6.843  1.0945  0.9594  0.3988
30667SOL     OW96685  10.820   7.358   6.403  0.1687 -0.0151 -0.0142
30667SOL    HW196686  10.837   7.451   6.419 -1.2965  0.3258 -0.2720
30667SOL    HW296687  10.731   7.345   6.436  0.3123 -1.3082 -0.1039
30668SOL     OW96688   8.607   8.879   3.672  0.1977  0.4118  0.2148
30668SOL    HW196689   8.677   8.915   3.618  1.4246  0.4896  1.8008
30668SOL    HW296690   8.565   8.814   3.616 -0.9474  2.9350 -2.1159
30669SOL     OW96691   0.390  11.459   1.437 -0.1756  0.0593  0.4001
30669SOL    HW196692   0.460  11.496   1.490  0.2709  0.6722 -0.5878
30669SOL    HW296693   0.424  11.462   1.347 -1.0234 -0.6821  0.0389
30670SOL     OW96694  10.665   0.626   6.862  0.2942  0.3565 -0.4420
30670SOL    HW196695  10.683   0.538   6.895  0.3519 -0.0251 -1.4630
30670SOL    HW296696  10.733   0.681   6.901  1.2770 -0.3538 -1.1168
30671SOL     OW96697   3.083   6.966   9.355 -0.3923  0.5707 -0.5930
30671SOL    HW196698   3.178   6.977   9.347 -0.3835  0.8391 -0.1190
30671SOL    HW296699   3.049   6.996   9.270 -0.1856  2.1263 -0.1664
30672SOL     OW96700   7.106   4.476   5.058  0.1963  0.0317 -0.2216
30672SOL    HW196701   7.126   4.570   5.064 -1.4893  0.6320 -2.6206
30672SOL    HW296702   7.157   4.445   4.984  0.0413 -0.7689 -0.0023
30673SOL     OW96703   2.281   9.651   1.476 -0.3916  0.5454 -0.3573
30673SOL    HW196704   2.359   9.598   1.463 -1.2229 -0.9230  0.4346
30673SOL    HW296705   2.278   9.668   1.570 -0.6171  1.2460 -0.4842
30674SOL     OW96706   4.841  10.798   5.006  0.2961 -0.0539 -0.0182
30674SOL    HW196707   4.917  10.740   4.999  0.7870  0.4405  1.0546
30674SOL    HW296708   4.765  10.741   4.991  0.8819 -0.4497 -1.6435
30675SOL     OW96709   9.630   3.146   9.439  0.1093 -0.3148 -0.4735
30675SOL    HW196710   9.613   3.172   9.530 -1.1928 -1.5622 -0.3253
30675SOL    HW296711   9.583   3.063   9.429 -0.5182  0.2445 -2.5505
30676SOL     OW96712   6.157   7.090   9.356  0.2404  0.7596  0.7105
30676SOL    HW196713   6.201   7.010   9.386 -0.0325 -0.0416 -0.9133
30676SOL    HW296714   6.225   7.138   9.310  0.3398  1.3775  1.4757
30677SOL     OW96715   6.587   0.856   4.938 -0.4777 -0.1454  0.5873
30677SOL    HW196716   6.593   0.916   5.013  0.5539  0.2403  0.2090
30677SOL    HW296717   6.578   0.914   4.863 -0.7135 -0.5133  0.3280
30678SOL     OW96718   5.737   4.659   1.285 -0.9858 -0.6346 -0.3400
30678SOL    HW196719   5.791   4.674   1.208 -0.2938 -0.2331  0.2124
30678SOL    HW296720   5.685   4.581   1.264 -0.6291 -0.6702 -1.1047
30679SOL     OW96721   4.588   6.892   3.196  0.1597  0.1206 -0.1443
30679SOL    HW196722   4.679   6.922   3.194  1.2112 -2.5258  2.1228
30679SOL    HW296723   4.545   6.950   3.260  0.1373  1.4759 -1.3374
30680SOL     OW96724  10.139   2.960   2.497  0.3203 -0.2431 -0.3075
30680SOL    HW196725  10.178   3.039   2.459  1.4078 -0.8886 -0.5662
30680SOL    HW296726  10.046   2.965   2.472  0.0804  1.5909  0.7793
30681SOL     OW96727  11.939  11.827  10.583 -0.4207 -0.0446  0.4604
30681SOL    HW196728  12.021  11.785  10.609 -0.3946 -0.1325  0.2348
30681SOL    HW296729  11.905  11.773  10.512 -0.6045  0.0696  0.4579
30682SOL     OW96730   1.667   8.559   6.004  0.0564  0.1222 -0.1312
30682SOL    HW196731   1.710   8.488   6.051  1.7723  0.7282 -0.7115
30682SOL    HW296732   1.734   8.593   5.945 -0.7310  2.1700  0.0664
30683SOL     OW96733   9.136   6.919   8.595 -0.1683 -0.5889  0.1936
30683SOL    HW196734   9.081   6.975   8.540 -0.8409 -0.2460  1.1910
30683SOL    HW296735   9.214   6.971   8.612  0.4674 -1.0476 -1.1663
30684SOL     OW96736   2.743   7.533  10.436 -0.4875  0.2118 -0.3919
30684SOL    HW196737   2.803   7.459  10.447 -0.1857  0.4678 -0.3196
30684SOL    HW296738   2.677   7.521  10.505  0.1630  0.5968  0.3082
30685SOL     OW96739   8.115   0.500   7.119 -0.5608 -0.0581 -0.5602
30685SOL    HW196740   8.125   0.405   7.122 -0.0898 -0.0200 -0.8201
30685SOL    HW296741   8.056   0.520   7.191  1.6176 -0.2639  1.3834
30686SOL     OW96742   3.070   1.565   3.765 -0.0842 -0.4135  0.0846
30686SOL    HW196743   3.061   1.536   3.675 -1.1879 -0.9151  0.3363
30686SOL    HW296744   2.994   1.528   3.810  0.7367 -0.6483  1.3388
30687SOL     OW96745  11.855   2.345  11.458 -0.2084 -0.6099  0.0285
30687SOL    HW196746  11.817   2.300  11.534 -0.5283 -1.0629 -0.3965
30687SOL    HW296747  11.945   2.311  11.453 -0.5955 -1.6010 -0.5850
30688SOL     OW96748   2.565   4.021   6.573  0.7426 -0.0689 -0.2051
30688SOL    HW196749   2.477   3.985   6.578  0.8203 -0.1009  1.6343
30688SOL    HW296750   2.553   4.111   6.545  0.0528  0.0958  0.5655
30689SOL     OW96751   5.158  10.445   4.842  0.0173  0.4363  0.4670
30689SOL    HW196752   5.178  10.357   4.875 -0.8765  0.5337  1.3225
30689SOL    HW296753   5.243  10.485   4.827  0.4437 -0.9151 -0.8834
30690SOL     OW96754   4.739   0.478  11.774 -0.0999  0.4841  0.0974
30690SOL    HW196755   4.748   0.536  11.698 -2.8516  0.5792 -0.2739
30690SOL    HW296756   4.677   0.411  11.746  1.7635 -1.7859  1.0688
30691SOL     OW96757   3.214   3.364  10.420 -0.1822  0.9494  0.3030
30691SOL    HW196758   3.296   3.314  10.415 -0.5949 -0.1898  2.9627
30691SOL    HW296759   3.146   3.301  10.398 -0.5477  0.9472  1.3946
30692SOL     OW96760   5.496   1.102   3.392  0.9995 -0.0335 -0.5149
30692SOL    HW196761   5.497   1.081   3.299  0.2273  0.1528 -0.5745
30692SOL    HW296762   5.425   1.166   3.401  0.9652 -0.1662  0.2224
30693SOL     OW96763   7.561  11.583   0.211  0.6127 -0.4617 -0.3976
30693SOL    HW196764   7.614  11.570   0.132 -1.2490  0.4577 -1.8750
30693SOL    HW296765   7.531  11.674   0.204 -0.3171 -0.6525  0.9228
30694SOL     OW96766   5.972   7.247   2.314  0.0340  0.5088 -0.3752
30694SOL    HW196767   6.014   7.333   2.319  0.4077  0.3523 -0.7563
30694SOL    HW296768   5.993   7.216   2.226 -1.8274  0.9119 -1.0055
30695SOL     OW96769   5.313   1.762   4.348 -0.2260 -0.1925 -0.2258
30695SOL    HW196770   5.320   1.668   4.334 -1.2613 -0.3896  0.5083
30695SOL    HW296771   5.395   1.797   4.313  0.6119 -1.4587  0.3785
30696SOL     OW96772   8.144   7.219   2.071 -0.8183 -0.2013  0.0249
30696SOL    HW196773   8.181   7.283   2.011 -0.8159 -0.0410  0.1963
30696SOL    HW296774   8.219   7.184   2.119 -1.0842  2.1760  2.4140
30697SOL     OW96775   8.838   6.174   9.115 -0.2024 -0.4723  0.1215
30697SOL    HW196776   8.744   6.175   9.097 -0.0680  1.9753 -0.8601
30697SOL    HW296777   8.879   6.206   9.035  1.3591 -0.1086  1.0084
30698SOL     OW96778  10.959   6.447   2.376 -0.1742 -0.8536 -0.1869
30698SOL    HW196779  10.912   6.456   2.292  0.7444  1.0740 -0.5476
30698SOL    HW296780  11.045   6.412   2.352 -0.0235 -0.6122  0.0066
30699SOL     OW96781   0.836   9.093   1.630 -0.8815  0.0070  0.5920
30699SOL    HW196782   0.894   9.133   1.565 -3.1178  0.9986 -0.8984
30699SOL    HW296783   0.804   9.013   1.589  0.8527 -1.5937  2.1862
30700SOL     OW96784   9.307   1.406   7.345  0.0503  0.2203 -0.0839
30700SOL    HW196785   9.377   1.441   7.290  0.8445  0.0629  0.7939
30700SOL    HW296786   9.336   1.423   7.435 -1.3051  0.6449  0.2951
30701SOL     OW96787   7.988  10.818   4.931 -0.1019 -0.4283 -0.4117
30701SOL    HW196788   7.919  10.839   4.995 -0.1427  0.6222 -0.7867
30701SOL    HW296789   8.032  10.901   4.915  0.4816 -0.8590 -1.0919
30702SOL     OW96790   3.189   8.244   2.537 -0.0937  0.6867  0.2292
30702SOL    HW196791   3.270   8.292   2.519 -0.8273  1.7655 -0.3206
30702SOL    HW296792   3.141   8.248   2.454 -1.0417  0.7438  0.7712
30703SOL     OW96793   0.983   5.725  11.115 -0.1524  0.4661 -0.6227
30703SOL    HW196794   1.023   5.638  11.112 -0.6628  0.2114 -0.2575
30703SOL    HW296795   1.016   5.769  11.037 -0.5414 -0.3470 -1.2690
30704SOL     OW96796   9.419   0.492   1.005 -0.2078 -0.1148  0.0129
30704SOL    HW196797   9.396   0.495   0.912 -0.9478  0.8274  0.2168
30704SOL    HW296798   9.508   0.456   1.006 -0.2085 -0.1769 -1.0561
30705SOL     OW96799   6.957   8.435   6.899  0.1215 -0.6636 -0.5289
30705SOL    HW196800   6.985   8.526   6.899  0.8307 -0.8220 -2.9905
30705SOL    HW296801   6.863   8.438   6.883 -0.4034 -0.3458  2.1092
30706SOL     OW96802   7.397   2.269   7.645  0.1512 -0.0043 -0.0135
30706SOL    HW196803   7.377   2.223   7.727  1.1643  0.1858  0.3474
30706SOL    HW296804   7.487   2.245   7.626 -0.1406 -0.2253 -1.2099
30707SOL     OW96805   2.449   3.717   5.739  0.0452 -0.0359  0.3475
30707SOL    HW196806   2.365   3.757   5.718 -0.3552 -0.1176  1.6913
30707SOL    HW296807   2.489   3.776   5.802  1.1413  0.1397 -0.4784
30708SOL     OW96808   6.489   8.691  11.109 -0.2862  0.0344  0.8441
30708SOL    HW196809   6.444   8.722  11.031 -0.6130 -0.7725  0.7067
30708SOL    HW296810   6.558   8.634  11.077  0.3776  0.6845  1.0927
30709SOL     OW96811   9.616   6.057  11.674 -0.5179  0.4870  0.1319
30709SOL    HW196812   9.710   6.045  11.683 -0.6444  0.5653  1.9717
30709SOL    HW296813   9.589   5.993  11.609  0.7143  0.0568  0.0318
30710SOL     OW96814  10.536   1.979   2.987  0.0431 -0.2592  0.5548
30710SOL    HW196815  10.571   2.039   2.922 -2.6445 -1.2691 -1.9948
30710SOL    HW296816  10.556   1.892   2.953 -3.6307 -0.8607 -0.4140
30711SOL     OW96817   2.116   6.836   8.039  0.7576  0.3755 -0.0932
30711SOL    HW196818   2.211   6.835   8.052  0.8879 -0.4932 -1.0550
30711SOL    HW296819   2.091   6.927   8.058  1.6526  0.4369  0.9493
30712SOL     OW96820   4.290   8.483   9.842  0.5249 -0.0905  0.4055
30712SOL    HW196821   4.200   8.452   9.833  1.4834 -3.0857 -0.0955
30712SOL    HW296822   4.327   8.430   9.913  1.9872  0.8279  0.3660
30713SOL     OW96823   5.901   3.972   9.915  0.2081  0.2951 -0.3480
30713SOL    HW196824   5.848   3.989   9.838  0.6630  2.0732 -0.3011
30713SOL    HW296825   5.856   3.900   9.959  0.2050 -1.1058 -2.4910
30714SOL     OW96826  10.560   7.415   0.241 -0.0829  0.2876  0.3959
30714SOL    HW196827  10.652   7.396   0.259  0.3355  0.7307 -1.1588
30714SOL    HW296828  10.545   7.502   0.278  0.5727  0.8926 -0.7266
30715SOL     OW96829   6.591   5.617   9.483  0.3902  0.1867 -0.2432
30715SOL    HW196830   6.650   5.547   9.455  1.3035  0.8157  0.1038
30715SOL    HW296831   6.637   5.698   9.463  1.0938  0.6991  2.9720
30716SOL     OW96832   6.114  11.769   9.857  0.1766  0.2129  0.1772
30716SOL    HW196833   6.150  11.696   9.906  1.2319  0.6592  0.0822
30716SOL    HW296834   6.176  11.840   9.869 -0.4310  0.8588 -0.3792
30717SOL     OW96835  11.747   1.037   7.695  0.4830  0.2825  0.3184
30717SOL    HW196836  11.816   0.973   7.681  0.6944  0.7381 -0.8746
30717SOL    HW296837  11.669   0.986   7.716  0.8237 -0.3167  0.1260
30718SOL     OW96838  11.658   0.619  10.987  0.0366 -0.4527  0.1595
30718SOL    HW196839  11.573   0.664  10.987 -0.1995 -0.7253 -2.6134
30718SOL    HW296840  11.711   0.667  10.923  1.0524 -1.8458 -0.1050
30719SOL     OW96841   3.606   3.253   9.083  0.5986 -0.1381 -0.0808
30719SOL    HW196842   3.567   3.183   9.032 -0.6949  0.6386 -0.2006
30719SOL    HW296843   3.579   3.334   9.039  1.2631  0.4706  0.5876
30720SOL     OW96844   5.194   7.485   3.113 -1.0103  0.0307  0.2346
30720SOL    HW196845   5.188   7.547   3.041 -0.4260 -0.0538  0.1121
30720SOL    HW296846   5.235   7.535   3.184 -2.8594  0.5437  1.0006
30721SOL     OW96847   7.755   6.982   0.285 -0.1949 -0.2703 -0.0282
30721SOL    HW196848   7.785   6.900   0.245 -0.7773 -0.1946 -0.6512
30721SOL    HW296849   7.784   7.050   0.225  1.3817  0.1221  1.1103
30722SOL     OW96850   5.366   0.364   6.958  0.4098 -0.0700  0.1107
30722SOL    HW196851   5.412   0.290   6.997  1.6136  0.8584  0.5363
30722SOL    HW296852   5.341   0.334   6.871 -2.3805 -2.2184  1.5044
30723SOL     OW96853   0.626   4.110   3.125 -0.3556 -0.3278 -0.6784
30723SOL    HW196854   0.708   4.110   3.075 -0.1723  0.7660 -0.3985
30723SOL    HW296855   0.609   4.017   3.143  1.6528 -0.5081  0.6201
30724SOL     OW96856  10.781   4.088   7.853 -0.3980  0.1870  0.0140
30724SOL    HW196857  10.800   4.066   7.944  1.8308 -0.0713 -0.4366
30724SOL    HW296858  10.687   4.105   7.851 -0.2480  1.8936  2.6938
30725SOL     OW96859   6.411   9.261   6.799 -0.2909 -0.0555 -0.4982
30725SOL    HW196860   6.377   9.345   6.831  2.8634  1.3028 -0.3391
30725SOL    HW296861   6.459   9.283   6.720 -0.7586 -2.0438 -1.4112
30726SOL     OW96862   1.596   0.275  11.157  0.3432 -0.6284 -0.2504
30726SOL    HW196863   1.661   0.314  11.215  0.0905  1.2778 -1.1724
30726SOL    HW296864   1.559   0.203  11.208  0.9059  0.2562  1.5053
30727SOL     OW96865   8.944   1.578   7.808  0.5200  0.4179  0.0529
30727SOL    HW196866   8.885   1.547   7.739  1.0865 -0.2374 -0.1494
30727SOL    HW296867   8.930   1.673   7.811  0.2393  0.4077 -0.7308
30728SOL     OW96868   0.091   6.567   3.587  0.8708  0.3029  0.3077
30728SOL    HW196869   0.057   6.489   3.629  2.3750 -0.1959  0.6497
30728SOL    HW296870   0.048   6.640   3.632 -1.4196 -0.2878 -0.7691
30729SOL     OW96871  11.709   2.179   9.162 -0.1571 -0.3089 -0.2242
30729SOL    HW196872  11.677   2.236   9.232 -1.0174 -1.9566  0.7847
30729SOL    HW296873  11.637   2.173   9.100 -1.0619 -2.1781  0.9014
30730SOL     OW96874   0.586  10.238   3.853  0.0417 -0.1103  0.1383
30730SOL    HW196875   0.587  10.147   3.881 -1.1519 -0.1639  0.0508
30730SOL    HW296876   0.538  10.284   3.922  0.0549  0.3397 -0.1491
30731SOL     OW96877  10.068   0.390   2.298  0.2684  1.3034  0.1326
30731SOL    HW196878  10.127   0.331   2.252  1.0484  0.7664  1.7569
30731SOL    HW296879  10.071   0.472   2.247 -0.0226  0.3175 -1.5502
30732SOL     OW96880   3.345   7.761   5.279 -0.4071 -0.2730 -0.3937
30732SOL    HW196881   3.310   7.802   5.200  1.4227  0.3529 -0.9153
30732SOL    HW296882   3.434   7.795   5.287  0.8420 -3.2745 -0.2147
30733SOL     OW96883  10.103   2.585   2.392  0.5262 -0.1646 -0.1983
30733SOL    HW196884  10.039   2.537   2.341 -0.1116 -0.3916  0.7914
30733SOL    HW296885  10.061   2.598   2.477  1.7645 -0.2656  0.4479
30734SOL     OW96886  11.556  10.063   0.097 -0.0588 -0.4111 -0.3478
30734SOL    HW196887  11.651  10.060   0.106 -0.1998  0.1672  1.8506
30734SOL    HW296888  11.528   9.972   0.109  0.2376 -0.7167 -1.8026
30735SOL     OW96889   1.382  10.392   2.662 -1.0225  0.7103 -0.6116
30735SOL    HW196890   1.464  10.419   2.704  0.1007 -1.3738 -1.3257
30735SOL    HW296891   1.366  10.460   2.596 -1.0023  2.2167  0.8746
30736SOL     OW96892   6.658   4.223   7.629 -0.0801 -0.4412  0.4437
30736SOL    HW196893   6.604   4.260   7.559  0.1675 -3.2103 -1.4126
30736SOL    HW296894   6.748   4.235   7.598  0.1958  0.7303  1.6529
30737SOL     OW96895   7.732   6.345  11.160 -0.1251 -0.4596  0.5688
30737SOL    HW196896   7.736   6.421  11.102  2.8992 -0.4432  0.6287
30737SOL    HW296897   7.727   6.382  11.248  1.7494 -0.2371  0.6236
30738SOL     OW96898  11.589   0.055   2.889  0.2018 -0.3567  0.5575
30738SOL    HW196899  11.590  -0.037   2.863  0.8473 -0.3778  0.6238
30738SOL    HW296900  11.676   0.087   2.865 -1.1266  1.1826 -2.7602
30739SOL     OW96901   7.852   4.248   9.204 -0.3233 -0.0441  0.0038
30739SOL    HW196902   7.924   4.311   9.209 -1.5801  1.3784  1.0999
30739SOL    HW296903   7.862   4.206   9.119  2.8548 -1.2412  0.8130
30740SOL     OW96904  10.368   4.911   5.966 -0.1264  0.2900  0.0067
30740SOL    HW196905  10.289   4.959   5.988  0.5524  1.9363 -0.9504
30740SOL    HW296906  10.430   4.978   5.936  1.5902 -0.9443  0.5924
30741SOL     OW96907   1.036   3.861   6.134 -0.7087 -0.2493  0.4452
30741SOL    HW196908   1.002   3.792   6.192 -0.9369 -0.0194  0.5842
30741SOL    HW296909   0.998   3.942   6.168  1.9567  0.3737  2.1559
30742SOL     OW96910   3.297   1.545   7.609  0.0667 -0.4301  0.4343
30742SOL    HW196911   3.297   1.451   7.595 -0.2788 -0.1274 -2.1141
30742SOL    HW296912   3.205   1.570   7.604  0.2498  0.1699 -0.0300
30743SOL     OW96913  10.156   6.951   5.823 -0.2884  0.3255  0.7115
30743SOL    HW196914  10.127   6.970   5.912 -2.0669 -0.4181  0.3433
30743SOL    HW296915  10.215   6.876   5.832  0.1418  0.7291  1.3228
30744SOL     OW96916   4.369  10.879   1.389  0.3458  0.2773  0.0404
30744SOL    HW196917   4.431  10.883   1.462  1.2492 -1.2658 -0.6037
30744SOL    HW296918   4.284  10.901   1.429  0.4502 -2.3599  2.0250
30745SOL     OW96919   7.049   5.344   3.577 -0.3141 -0.6390  0.4075
30745SOL    HW196920   6.964   5.387   3.580 -0.7593 -1.5192  1.4949
30745SOL    HW296921   7.029   5.251   3.593  0.7650 -0.9912 -0.1870
30746SOL     OW96922   6.773   4.650   6.069 -0.3344  0.1782  0.0311
30746SOL    HW196923   6.798   4.732   6.026 -1.7635  1.8918  2.2524
30746SOL    HW296924   6.726   4.601   6.001 -0.5149  1.7336 -1.0245
30747SOL     OW96925   7.043   3.022  11.008 -0.0910 -0.6123  1.0077
30747SOL    HW196926   7.010   3.017  11.097  0.5421 -3.8860  1.1956
30747SOL    HW296927   7.118   2.962  11.007 -0.3470 -1.0370 -1.8110
30748SOL     OW96928   5.225  11.826   0.742 -0.3556 -0.0409 -0.0421
30748SOL    HW196929   5.227  11.731   0.733 -0.5233 -0.0281 -0.2234
30748SOL    HW296930   5.265  11.859   0.662 -0.0329  0.0368  0.1486
30749SOL     OW96931   3.271  11.978   1.093  0.1336 -0.0513 -0.3832
30749SOL    HW196932   3.211  11.991   1.167  0.3120 -1.5477  0.0654
30749SOL    HW296933   3.333  12.050   1.100 -0.1390  0.1110  0.6460
30750SOL     OW96934   6.573  10.584   4.593 -0.7197  0.6865  0.0586
30750SOL    HW196935   6.505  10.647   4.618  0.8587  1.6661  2.2230
30750SOL    HW296936   6.567  10.514   4.657 -0.5595  0.0957 -0.5592
30751SOL     OW96937   4.187   4.036   9.426  0.1289 -0.8548 -0.7152
30751SOL    HW196938   4.118   4.032   9.492  1.1737  0.0087  0.4668
30751SOL    HW296939   4.194   4.129   9.404  1.0296 -0.9169 -0.7003
30752SOL     OW96940   7.036   1.984  11.355  0.2398 -0.4122 -0.2846
30752SOL    HW196941   7.080   2.061  11.319  0.3683 -0.2521  0.2106
30752SOL    HW296942   7.095   1.952  11.422  0.3796 -1.1991 -0.7784
30753SOL     OW96943   3.946   0.569  10.107  0.4570  0.4476  0.0587
30753SOL    HW196944   3.965   0.505  10.176  0.4934 -1.4552 -1.6476
30753SOL    HW296945   4.022   0.565  10.049 -0.6944  0.1361 -1.4626
30754SOL     OW96946   3.885   6.524  10.256  0.0190  0.4900 -0.0170
30754SOL    HW196947   3.951   6.592  10.268  0.8513 -0.6387  2.8256
30754SOL    HW296948   3.829   6.531  10.334 -1.4145 -0.4674 -0.9139
30755SOL     OW96949  10.215  10.456   1.632  0.3969 -0.0608 -0.3805
30755SOL    HW196950  10.154  10.513   1.679 -0.6251 -0.4540 -1.1998
30755SOL    HW296951  10.276  10.517   1.590  0.2847  0.3586  0.0574
30756SOL     OW96952  11.052   5.025   5.425 -0.0062  0.6987 -0.3881
30756SOL    HW196953  10.996   5.073   5.485 -0.8697  0.4454 -0.9821
30756SOL    HW296954  11.008   5.031   5.340 -0.5999 -1.8197 -0.3521
30757SOL     OW96955  11.942   0.522   9.390  0.4221  0.2899 -0.5663
30757SOL    HW196956  11.877   0.542   9.323 -0.5832 -0.8363  0.0308
30757SOL    HW296957  11.953   0.604   9.438 -1.8266  0.1203  0.3583
30758SOL     OW96958   1.227   1.560   7.234  0.0833  0.2749 -0.2502
30758SOL    HW196959   1.220   1.644   7.189  0.7607  0.5033  0.0590
30758SOL    HW296960   1.301   1.571   7.294 -1.4217  0.3471  1.7269
30759SOL     OW96961  10.162   5.353   2.919 -0.2172 -0.3058 -0.3406
30759SOL    HW196962  10.106   5.353   2.997  1.1639 -0.2055  0.6952
30759SOL    HW296963  10.208   5.269   2.922  0.1983 -0.0998 -0.7627
30760SOL     OW96964   8.239   7.596   0.313 -0.0085  0.1848  0.0323
30760SOL    HW196965   8.316   7.653   0.315  1.2275 -1.3727 -0.6662
30760SOL    HW296966   8.165   7.656   0.306  1.0137  1.7890  2.0508
30761SOL     OW96967   1.504   6.094   3.172 -0.0082  0.0856  0.1065
30761SOL    HW196968   1.456   6.073   3.092 -1.3925 -0.4357  1.0402
30761SOL    HW296969   1.481   6.025   3.233 -0.9612  1.7721  1.7558
30762SOL     OW96970   2.423   5.126   1.737  0.1848  0.3737 -0.7803
30762SOL    HW196971   2.357   5.154   1.673 -0.8013 -1.3437 -0.6020
30762SOL    HW296972   2.462   5.048   1.698 -0.2127 -0.5246  0.5519
30763SOL     OW96973   1.949   4.880  10.796  0.0194  0.2984 -0.2132
30763SOL    HW196974   1.886   4.858  10.728  1.1653  2.6238 -2.1521
30763SOL    HW296975   1.895   4.913  10.868 -1.1418 -0.9866 -0.4485
30764SOL     OW96976  11.750   2.975   1.731  0.1635  0.3980  0.8696
30764SOL    HW196977  11.805   3.023   1.668 -0.4378  1.3867  1.0658
30764SOL    HW296978  11.750   2.885   1.699 -1.8778  1.2006 -1.8810
30765SOL     OW96979   1.535   9.573  11.776  0.0029  0.1103  0.1301
30765SOL    HW196980   1.569   9.565  11.865 -0.8233  0.6088  0.4964
30765SOL    HW296981   1.465   9.508  11.772  1.5802 -1.6253 -0.9393
30766SOL     OW96982   5.701  10.069   9.026  0.0983 -0.1847  0.6177
30766SOL    HW196983   5.703  10.130   8.952 -2.2883  2.0894  2.2251
30766SOL    HW296984   5.773  10.097   9.083 -1.2178  1.5589  1.5348
30767SOL     OW96985   0.988   1.900   0.686  0.1969 -0.3502  0.1219
30767SOL    HW196986   0.944   1.845   0.750  0.8339 -0.7638  0.2137
30767SOL    HW296987   0.953   1.988   0.701  0.5995 -0.3710  1.2788
30768SOL     OW96988   2.358   4.960   8.720  0.3114  0.4104 -0.0164
30768SOL    HW196989   2.263   4.963   8.733 -0.0826 -2.7482 -1.2972
30768SOL    HW296990   2.373   5.015   8.644 -0.7514 -0.2509 -0.7344
30769SOL     OW96991   0.577  10.095   9.422 -0.5261 -0.6029 -0.8548
30769SOL    HW196992   0.570  10.122   9.331 -0.2974 -0.5055 -0.8415
30769SOL    HW296993   0.653  10.037   9.425  0.1936  0.3499 -0.4921
30770SOL     OW96994   1.153   0.248  11.987  0.2385 -0.1632 -0.0202
30770SOL    HW196995   1.246   0.255  12.010  0.4903 -3.0686  0.2926
30770SOL    HW296996   1.110   0.219  12.067 -0.5719 -0.7983 -0.6585
30771SOL     OW96997   8.825  11.673   8.515 -0.3681  0.0491 -0.5463
30771SOL    HW196998   8.815  11.749   8.458  0.5112  0.0880 -0.6676
30771SOL    HW296999   8.843  11.601   8.455  1.3703  0.2388 -0.3022
30772SOL     OW97000   8.238  10.525   0.610 -0.4778 -0.0257  0.1587
30772SOL    HW197001   8.326  10.489   0.604 -1.1060 -1.4588 -0.9641
30772SOL    HW297002   8.240  10.604   0.557  0.3251  0.4032  0.8041
30773SOL     OW97003   7.800   9.672   5.274 -0.7172  0.1899  0.0208
30773SOL    HW197004   7.816   9.730   5.348 -0.5104  1.2760 -0.8490
30773SOL    HW297005   7.798   9.730   5.198  2.4414 -1.1893 -1.3195
30774SOL     OW97006   6.878   4.255  10.078 -0.5825  0.2431 -0.1641
30774SOL    HW197007   6.874   4.208   9.994  0.1730  0.8022 -0.5206
30774SOL    HW297008   6.965   4.236  10.112 -0.5154  0.8544  0.0064
30775SOL     OW97009   2.444  11.640   6.410 -0.1676  0.2532 -0.1788
30775SOL    HW197010   2.530  11.602   6.424 -0.4968 -0.3115  0.3621
30775SOL    HW297011   2.461  11.725   6.371  0.6668  0.4661  0.6170
30776SOL     OW97012   6.786  11.565   5.382 -0.6390 -0.1061  0.2015
30776SOL    HW197013   6.741  11.596   5.461 -2.1853  1.0904 -1.0526
30776SOL    HW297014   6.842  11.638   5.356  0.5825 -0.8518  0.6811
30777SOL     OW97015   7.406   1.884   6.576  1.0197  0.3145 -0.0141
30777SOL    HW197016   7.477   1.944   6.597 -0.6040  3.5391 -2.6761
30777SOL    HW297017   7.334   1.942   6.550 -2.5529 -2.7136  2.1598
30778SOL     OW97018   5.710   4.750  11.240 -0.1803 -0.3568  0.0474
30778SOL    HW197019   5.730   4.762  11.147 -1.1228  0.6290 -0.0550
30778SOL    HW297020   5.655   4.825  11.262  0.2789 -0.4185  1.4907
30779SOL     OW97021   6.499   3.986   5.302  0.1246 -0.4856  0.0887
30779SOL    HW197022   6.496   4.006   5.395  1.7832 -1.3264  0.3727
30779SOL    HW297023   6.469   4.066   5.259  2.9168  1.3457  1.2392
30780SOL     OW97024  10.212  11.364   9.524  0.0566  0.3491  0.2888
30780SOL    HW197025  10.154  11.291   9.548  2.1517 -1.9879 -1.2417
30780SOL    HW297026  10.165  11.410   9.454 -0.8695 -0.1380  0.5779
30781SOL     OW97027   9.459   1.799   6.466 -0.0865  0.1000 -0.2860
30781SOL    HW197028   9.448   1.802   6.371  1.4758  1.7290 -0.4718
30781SOL    HW297029   9.536   1.743   6.480  0.0231  0.3096 -0.0303
30782SOL     OW97030   7.550   9.369   5.628  0.1358  0.0749 -0.3473
30782SOL    HW197031   7.541   9.304   5.697  0.2664 -0.3155 -0.6954
30782SOL    HW297032   7.487   9.437   5.651 -1.1786 -0.9298 -0.8474
30783SOL     OW97033   8.771   4.636   9.243  0.0944  0.7633 -0.1638
30783SOL    HW197034   8.809   4.595   9.320  0.0465 -1.3701 -1.1941
30783SOL    HW297035   8.706   4.697   9.277  1.6145  1.5347  1.5007
30784SOL     OW97036   9.579   9.617   0.254 -0.0565  0.5458  0.4792
30784SOL    HW197037   9.503   9.671   0.276 -0.4212 -0.0389  0.6621
30784SOL    HW297038   9.557   9.576   0.170  0.1725  0.5894  0.3959
30785SOL     OW97039   3.440   0.529   1.616 -0.6584  0.1575 -0.2444
30785SOL    HW197040   3.400   0.598   1.669  1.0128  0.7609  0.3038
30785SOL    HW297041   3.388   0.451   1.636 -0.4710  0.4940  1.8820
30786SOL     OW97042   0.508  10.884  10.232 -0.1765  0.1922  0.4026
30786SOL    HW197043   0.537  10.975  10.225 -1.0942  0.4275 -0.6713
30786SOL    HW297044   0.418  10.885  10.198  0.0321 -1.2257 -0.2579
30787SOL     OW97045   6.686   8.303  10.146 -0.2463  0.1980  0.0662
30787SOL    HW197046   6.629   8.249  10.201 -2.1379  0.7105 -1.3049
30787SOL    HW297047   6.728   8.363  10.208  0.3497 -1.4948  1.3526
30788SOL     OW97048  10.237   6.921  10.262  0.2914  0.0394 -0.2683
30788SOL    HW197049  10.309   6.983  10.250 -0.1995  0.4177 -1.4796
30788SOL    HW297050  10.158   6.973  10.244 -0.1858 -0.7038 -0.3449
30789SOL     OW97051   1.786   8.780   6.930  0.5162 -0.6973 -0.0299
30789SOL    HW197052   1.705   8.730   6.935  1.6408 -2.4794  3.2927
30789SOL    HW297053   1.834   8.740   6.858 -1.6663  0.8564 -2.5482
30790SOL     OW97054   9.331   7.144   6.209 -0.1472  0.1532 -0.7990
30790SOL    HW197055   9.347   7.132   6.303 -1.3306 -0.7430 -0.6928
30790SOL    HW297056   9.383   7.221   6.186  1.8110 -0.7926  0.1441
30791SOL     OW97057   3.549   2.219   5.438 -0.1545 -0.0979  0.6110
30791SOL    HW197058   3.625   2.178   5.479 -0.0505 -0.0038  0.5101
30791SOL    HW297059   3.477   2.200   5.499 -0.5140 -2.0863 -0.3506
30792SOL     OW97060   7.015   2.321   9.656 -0.0303  0.3342  0.6651
30792SOL    HW197061   7.083   2.383   9.683  0.3390  0.6536 -0.8852
30792SOL    HW297062   6.956   2.373   9.601  0.1329 -0.6001 -0.4402
30793SOL     OW97063  11.345   3.599   0.540 -0.6798  0.2130 -0.3020
30793SOL    HW197064  11.349   3.555   0.455 -0.4272 -0.2505 -0.0554
30793SOL    HW297065  11.414   3.557   0.592  0.8279  2.1583 -0.6194
30794SOL     OW97066   0.451   0.858   1.528 -0.1413  0.7244  0.3204
30794SOL    HW197067   0.404   0.939   1.549 -0.3379  0.8483 -0.5586
30794SOL    HW297068   0.505   0.881   1.452  0.8225  0.3924  0.8912
30795SOL     OW97069   5.385   2.539   4.419  0.6464 -0.4072 -0.2021
30795SOL    HW197070   5.374   2.451   4.383 -0.5553 -0.7613  0.9395
30795SOL    HW297071   5.470   2.536   4.462  1.1772 -0.6139 -1.2571
30796SOL     OW97072   3.042   3.093   8.179 -0.2695 -0.1439 -0.1350
30796SOL    HW197073   2.979   3.048   8.235  1.3679 -2.9888 -0.3867
30796SOL    HW297074   2.989   3.133   8.111 -1.9906  0.1606  1.3019
30797SOL     OW97075  11.488   9.742   4.515 -0.3509 -0.0689  0.4511
30797SOL    HW197076  11.404   9.787   4.516 -0.1978  0.2200  0.5337
30797SOL    HW297077  11.503   9.720   4.423 -1.2518 -1.5299  0.6301
30798SOL     OW97078   8.367   9.423   3.454 -0.3804  0.6423  0.1437
30798SOL    HW197079   8.419   9.342   3.449  2.5413  2.2930  1.5942
30798SOL    HW297080   8.298   9.403   3.517  0.6181 -0.5869  0.8933
30799SOL     OW97081   0.349  11.052   9.344 -0.2645 -0.2182  0.2051
30799SOL    HW197082   0.265  11.072   9.386 -0.0013  0.8442  0.2757
30799SOL    HW297083   0.407  11.123   9.374  0.8355 -1.2861  0.6653
30800SOL     OW97084  11.626   3.322   6.095 -0.1577 -0.1556 -0.2938
30800SOL    HW197085  11.701   3.365   6.136 -0.0621 -0.5019 -0.1048
30800SOL    HW297086  11.581   3.393   6.048  0.1459  0.1001 -0.2043
30801SOL     OW97087   9.125   0.272   3.007  0.5415  0.0670 -0.2270
30801SOL    HW197088   9.079   0.188   3.010  1.8909 -0.7832 -1.6203
30801SOL    HW297089   9.107   0.306   2.919  0.8751  0.7093 -0.0507
30802SOL     OW97090  11.043  10.606   5.332  0.3880  0.1438  0.1041
30802SOL    HW197091  11.065  10.552   5.257 -0.1893 -1.2984  0.9273
30802SOL    HW297092  10.953  10.634   5.316  0.8433  1.3162 -0.5521
30803SOL     OW97093   0.245   7.805   4.352 -0.4324 -0.3519 -0.2075
30803SOL    HW197094   0.289   7.872   4.299  0.3302 -0.4261  0.3106
30803SOL    HW297095   0.201   7.748   4.288 -1.5312  0.9219 -0.6390
30804SOL     OW97096  10.638   8.444   0.836  0.0376  0.5989  0.2563
30804SOL    HW197097  10.718   8.446   0.784 -0.0444  1.1426  0.1415
30804SOL    HW297098  10.578   8.502   0.789 -1.1967 -1.4965 -0.8566
30805SOL     OW97099  10.647   3.722   5.539  0.7957  0.5638 -0.2520
30805SOL    HW197100  10.681   3.796   5.589 -0.0183  1.8483 -1.5347
30805SOL    HW297101  10.692   3.728   5.454 -0.8425  0.8872 -1.1343
30806SOL     OW97102   7.979   8.911  10.571  0.5364  0.1757  0.0423
30806SOL    HW197103   7.950   8.932  10.483  2.0602  1.9485 -0.1086
30806SOL    HW297104   7.900   8.885  10.618 -0.6854  1.5347 -1.2053
30807SOL     OW97105   5.200   9.362   4.383  0.3750  0.5561  0.3807
30807SOL    HW197106   5.217   9.311   4.304  2.8111  0.1046  1.1161
30807SOL    HW297107   5.118   9.325   4.417  1.9265 -2.9321  0.8023
30808SOL     OW97108   6.919   3.040  11.599 -0.0790  0.2848 -0.4351
30808SOL    HW197109   6.859   3.070  11.531 -2.2518 -0.9891  0.8106
30808SOL    HW297110   6.945   2.952  11.570 -1.6347 -0.5849  0.6911
30809SOL     OW97111   0.735   0.468   6.506  0.0090 -0.0388 -0.0626
30809SOL    HW197112   0.721   0.435   6.417  0.9191 -0.7820  0.0604
30809SOL    HW297113   0.802   0.535   6.496 -1.0866  1.0813 -0.1573
30810SOL     OW97114   6.060   9.373   2.496 -0.1626 -0.5173 -0.0918
30810SOL    HW197115   5.986   9.376   2.557 -0.0294  1.4720  0.0159
30810SOL    HW297116   6.123   9.436   2.531  0.7618 -0.7754 -1.2329
30811SOL     OW97117  10.142   4.804   1.505  0.7781  0.3880 -0.2659
30811SOL    HW197118  10.100   4.814   1.420  0.6923 -0.2318 -0.3033
30811SOL    HW297119  10.208   4.873   1.507  1.0976  0.1233 -1.0304
30812SOL     OW97120   0.763   8.894   1.461  0.2523 -0.6791  0.3136
30812SOL    HW197121   0.833   8.829   1.458 -1.7201 -2.9972  0.6633
30812SOL    HW297122   0.733   8.900   1.370  1.7190  1.3556 -0.0861
30813SOL     OW97123   8.780   1.826   6.336 -0.3896  0.3936 -0.0663
30813SOL    HW197124   8.791   1.738   6.372  1.8550  1.6155  2.5089
30813SOL    HW297125   8.804   1.817   6.244  0.0608 -1.6375  0.2023
30814SOL     OW97126   6.124   0.190   0.905 -0.2815 -0.1111  0.0128
30814SOL    HW197127   6.142   0.278   0.939 -0.3663  0.8940 -2.3359
30814SOL    HW297128   6.201   0.169   0.853 -1.6870  0.0894 -2.2505
30815SOL     OW97129  11.901   5.581   7.573 -0.3115 -0.2647 -0.2039
30815SOL    HW197130  11.893   5.556   7.481 -1.5115 -2.5427  0.4414
30815SOL    HW297131  11.865   5.670   7.577  0.5700  0.2306 -2.0273
30816SOL     OW97132   8.418   1.619  11.881  0.4528 -0.1997  0.1232
30816SOL    HW197133   8.442   1.590  11.793 -1.7445  0.3178 -0.7036
30816SOL    HW297134   8.343   1.564  11.904  0.4706  0.2611  1.3322
30817SOL     OW97135   7.983   0.287   8.092 -0.0058  0.0981 -0.2027
30817SOL    HW197136   7.920   0.318   8.026 -2.0048 -0.0471  1.5237
30817SOL    HW297137   7.949   0.202   8.119  2.0141 -0.8465 -0.5122
30818SOL     OW97138   7.416  11.015   1.263  0.3387 -0.2044  0.7591
30818SOL    HW197139   7.419  11.110   1.259  0.2150 -0.2324 -0.4532
30818SOL    HW297140   7.450  10.993   1.349  2.7279  0.8449  0.1611
30819SOL     OW97141  11.969   5.761   6.245  0.2810 -0.1236  0.0565
30819SOL    HW197142  12.056   5.749   6.209 -0.5354 -0.5208 -1.9099
30819SOL    HW297143  11.917   5.689   6.208 -1.5002  1.6230 -1.0310
30820SOL     OW97144   4.813   6.454   9.446  0.1050 -0.5452 -0.0376
30820SOL    HW197145   4.740   6.452   9.508 -0.3066 -1.6821 -0.5247
30820SOL    HW297146   4.856   6.538   9.462 -0.2818 -0.5999  1.4413
30821SOL     OW97147  11.643   4.009   5.306  0.6348  0.1376  0.7180
30821SOL    HW197148  11.691   4.060   5.241 -0.8798  1.3170  0.4715
30821SOL    HW297149  11.678   4.039   5.391  0.7797  0.5209  0.5258
30822SOL     OW97150   4.233   8.363   0.905  0.0431  0.2351 -0.1475
30822SOL    HW197151   4.148   8.384   0.944 -0.0322 -1.2912  0.5554
30822SOL    HW297152   4.270   8.297   0.962  1.3528  0.2696 -0.9209
30823SOL     OW97153   2.243  11.302   9.341 -0.3137 -0.2072 -0.1057
30823SOL    HW197154   2.308  11.359   9.381 -0.1840 -0.6104  0.2649
30823SOL    HW297155   2.267  11.214   9.369 -0.9620 -0.3723 -0.0375
30824SOL     OW97156   5.271   3.373   6.119 -0.3450 -0.1526 -0.1951
30824SOL    HW197157   5.219   3.398   6.196 -1.3007 -2.3644 -0.0278
30824SOL    HW297158   5.345   3.325   6.156 -1.2033 -1.8808 -0.6223
30825SOL     OW97159  11.652   1.589   0.452  0.6346  0.0119 -0.0266
30825SOL    HW197160  11.680   1.663   0.399  0.2898 -0.1743 -0.4683
30825SOL    HW297161  11.731   1.535   0.461  0.6949  0.0480 -0.3407
30826SOL     OW97162   6.421   5.135   8.013  0.0618  0.2750  0.3216
30826SOL    HW197163   6.509   5.138   7.974 -0.4905 -0.5137 -1.0864
30826SOL    HW297164   6.432   5.172   8.100  2.1017 -1.2205  0.7692
30827SOL     OW97165   9.041   1.646   9.901 -0.4351 -0.1297 -0.5013
30827SOL    HW197166   9.105   1.695   9.848  1.2298 -1.3803  0.2489
30827SOL    HW297167   9.020   1.569   9.849  0.3279 -0.7776  0.1034
30828SOL     OW97168   5.576   6.607   4.519 -0.3516  0.3133  0.2239
30828SOL    HW197169   5.651   6.620   4.577 -0.4644  0.6786  0.2902
30828SOL    HW297170   5.500   6.621   4.575 -0.4590  1.3426 -0.1620
30829SOL     OW97171  10.315   4.539   0.191 -0.2466  0.3252 -0.2416
30829SOL    HW197172  10.371   4.556   0.115  0.6699  0.5690  0.4725
30829SOL    HW297173  10.345   4.453   0.223 -0.9604 -0.0032 -0.4367
30830SOL     OW97174   2.248   8.145   3.260 -1.0243  0.0657 -0.1254
30830SOL    HW197175   2.333   8.131   3.302 -2.2914  0.7161  2.9208
30830SOL    HW297176   2.269   8.181   3.174  1.8007 -2.5420 -0.6968
30831SOL     OW97177  10.674   1.654   1.589 -0.2169  0.1491 -0.4716
30831SOL    HW197178  10.578   1.653   1.587 -0.2332 -0.4138  0.2391
30831SOL    HW297179  10.699   1.644   1.497 -0.8380  0.3895 -0.6766
30832SOL     OW97180   3.282   3.530   8.594 -0.0415  0.6388 -1.0870
30832SOL    HW197181   3.326   3.476   8.528  1.4034 -0.5110  0.7148
30832SOL    HW297182   3.354   3.565   8.647 -1.1101  2.3252 -0.7002
30833SOL     OW97183   4.892  11.179   0.444  0.1316  0.0888  0.2324
30833SOL    HW197184   4.923  11.204   0.531 -1.9134  2.1174  0.4646
30833SOL    HW297185   4.949  11.226   0.383  0.3654  0.1849  0.5256
30834SOL     OW97186   0.845  11.928   3.270 -0.0145 -1.0025  0.1121
30834SOL    HW197187   0.814  11.959   3.355 -1.2078  2.7709 -1.4806
30834SOL    HW297188   0.928  11.975   3.257 -0.1392 -1.0763 -1.0224
30835SOL     OW97189   2.667   6.718   5.984 -0.4105 -0.0801  0.1173
30835SOL    HW197190   2.632   6.683   5.902  0.1624 -0.2682 -0.0449
30835SOL    HW297191   2.620   6.801   5.996 -0.3053  0.0782 -0.5395
30836SOL     OW97192   5.614  10.453   8.408  1.0128 -0.0384 -0.0766
30836SOL    HW197193   5.691  10.500   8.440  0.1209  1.0821  0.5340
30836SOL    HW297194   5.629  10.443   8.314  0.9897  2.0264 -0.3422
30837SOL     OW97195   6.089   4.254   6.787  0.4696 -0.5270 -0.0134
30837SOL    HW197196   6.026   4.247   6.715  0.4212 -0.3141  0.0068
30837SOL    HW297197   6.081   4.171   6.834 -1.1207  0.1819  1.0640
30838SOL     OW97198   8.678  11.400   6.098  0.2402  0.1218 -0.0098
30838SOL    HW197199   8.625  11.447   6.034 -1.0358 -2.8296 -1.3575
30838SOL    HW297200   8.618  11.381   6.170  0.2012 -0.8284 -0.2719
30839SOL     OW97201   6.857   5.497   3.260 -0.2767  0.8145 -0.6592
30839SOL    HW197202   6.882   5.520   3.349 -1.8158 -0.2235  0.0897
30839SOL    HW297203   6.938   5.470   3.218  0.3091  0.2682  0.7647
30840SOL     OW97204  11.806   5.721   4.547 -0.1081  0.0425 -0.3078
30840SOL    HW197205  11.807   5.760   4.635  0.1421  1.0039 -0.7281
30840SOL    HW297206  11.854   5.639   4.558 -0.0863  0.1451  0.4592
30841SOL     OW97207   1.632   2.143  10.446  0.1644 -0.3394 -0.9740
30841SOL    HW197208   1.668   2.119  10.361  2.4453  0.6339 -0.3621
30841SOL    HW297209   1.645   2.065  10.501  3.0342  0.4871 -0.3198
30842SOL     OW97210  11.358   9.147   1.220  0.4481  0.1592  0.4494
30842SOL    HW197211  11.351   9.242   1.219  1.3252  0.2467 -1.0089
30842SOL    HW297212  11.443   9.129   1.258  0.4758 -0.0200  0.3071
30843SOL     OW97213   6.599   4.786   8.556 -0.0180  0.1116 -0.0530
30843SOL    HW197214   6.654   4.801   8.633  1.8729  1.9273 -1.6405
30843SOL    HW297215   6.629   4.701   8.522  0.4316  0.1671  0.1905
30844SOL     OW97216   9.755   5.948   1.765  0.9958 -0.8611 -0.0344
30844SOL    HW197217   9.776   5.995   1.685  0.0256  1.4906  0.9891
30844SOL    HW297218   9.689   5.883   1.739  2.1200 -1.4796 -1.4343
30845SOL     OW97219   9.676   4.199   1.188 -0.1705  0.4493  0.2180
30845SOL    HW197220   9.711   4.228   1.104  0.2125 -0.3436  0.0940
30845SOL    HW297221   9.584   4.181   1.171 -0.0882  0.2647 -0.0377
30846SOL     OW97222   4.209   2.437   5.987 -0.5076  0.4500  0.3331
30846SOL    HW197223   4.280   2.465   6.044  0.0036  1.0936 -0.5837
30846SOL    HW297224   4.163   2.518   5.965 -0.7134  0.2102 -0.1365
30847SOL     OW97225   5.608   3.213   4.953  0.0451  0.0137 -0.3646
30847SOL    HW197226   5.642   3.156   5.023  0.2461 -0.2394 -0.6594
30847SOL    HW297227   5.653   3.296   4.966  0.7861 -0.3135 -0.7380
30848SOL     OW97228   2.210   2.581   7.653 -0.3443  0.2514  0.1836
30848SOL    HW197229   2.181   2.594   7.563 -0.1686  0.8531  0.2108
30848SOL    HW297230   2.182   2.660   7.699 -0.7941 -0.2289  0.7526
30849SOL     OW97231   5.121   6.361   9.985 -0.3105  0.0897 -0.0555
30849SOL    HW197232   5.108   6.401   9.899  0.7805  2.5525  0.8292
30849SOL    HW297233   5.216   6.365   9.999 -0.6300  2.0222  2.2061
30850SOL     OW97234   7.236   3.257   0.490  0.0342  0.1829 -0.5750
30850SOL    HW197235   7.240   3.349   0.516  1.6602  0.1598 -0.5939
30850SOL    HW297236   7.186   3.214   0.559 -0.2323  0.9846 -0.2655
30851SOL     OW97237   1.054   6.643   0.522 -0.0814 -0.1140 -0.7227
30851SOL    HW197238   1.026   6.595   0.444  0.5650 -0.8553 -0.5130
30851SOL    HW297239   1.058   6.576   0.591 -0.3504  0.4777 -0.1213
30852SOL     OW97240   1.478  10.818   1.714 -0.0747  0.0280 -0.5621
30852SOL    HW197241   1.572  10.835   1.723 -0.1140 -0.0011 -0.0702
30852SOL    HW297242   1.456  10.849   1.626  0.5595 -0.7425 -1.0009
30853SOL     OW97243   1.646   6.208   0.960 -0.0783  0.5525 -0.0109
30853SOL    HW197244   1.572   6.148   0.948  0.6390 -0.0088 -2.3325
30853SOL    HW297245   1.721   6.150   0.975  0.5407  0.8014 -1.8126
30854SOL     OW97246   0.966   4.446   2.075 -0.2115 -0.0642  0.0872
30854SOL    HW197247   1.043   4.501   2.090  0.7797 -1.7170  1.5245
30854SOL    HW297248   0.896   4.487   2.125 -0.8595  2.4207 -2.5853
30855SOL     OW97249   0.141   5.471  11.932  0.3738  0.0032  0.1560
30855SOL    HW197250   0.104   5.383  11.931  1.1498 -0.3317 -1.4163
30855SOL    HW297251   0.209   5.468  11.999  1.2128 -0.9738 -0.7116
30856SOL     OW97252   4.999  10.109  11.004 -0.4065 -0.0559 -0.1373
30856SOL    HW197253   4.942  10.153  11.067 -2.0454 -1.2313 -0.7106
30856SOL    HW297254   4.951  10.114  10.922  0.2072 -1.3094 -0.5940
30857SOL     OW97255   0.183   9.785   9.646  0.6971  0.0799 -0.2592
30857SOL    HW197256   0.232   9.810   9.724  0.7550  0.8490 -0.5363
30857SOL    HW297257   0.247   9.740   9.590  1.1613  1.2509 -0.7057
30858SOL     OW97258   7.938   7.015   8.774 -0.1775 -0.0933  0.5841
30858SOL    HW197259   7.862   6.962   8.799  0.5684 -0.6543  1.7292
30858SOL    HW297260   8.005   6.951   8.752 -0.3410  0.3900 -1.4932
30859SOL     OW97261   8.928   2.160   8.294 -0.5891 -0.0606 -0.0563
30859SOL    HW197262   8.908   2.221   8.365 -1.0541 -1.0133  0.6547
30859SOL    HW297263   8.910   2.074   8.330 -1.5129 -0.5384 -1.5606
30860SOL     OW97264   7.623   0.293   9.881  0.1078 -0.7917  0.2383
30860SOL    HW197265   7.536   0.254   9.871 -0.5134  0.2471  1.3046
30860SOL    HW297266   7.607   0.378   9.922  1.6116 -0.4431  0.1821
30861SOL     OW97267   9.434  10.757   5.840 -0.1416 -0.3070  0.0384
30861SOL    HW197268   9.383  10.677   5.825  0.7330 -0.9146  0.2203
30861SOL    HW297269   9.515  10.743   5.791  0.6235 -0.1631  1.2308
30862SOL     OW97270   4.314  10.818  10.893 -0.4450  0.0264  0.0601
30862SOL    HW197271   4.275  10.897  10.854 -1.1458 -0.9143 -1.2009
30862SOL    HW297272   4.240  10.763  10.917  0.0309 -0.1227  1.2771
30863SOL     OW97273  10.280   2.446   3.884 -0.7357  0.0731 -0.2249
30863SOL    HW197274  10.218   2.380   3.916  1.4182 -1.7511  0.5029
30863SOL    HW297275  10.366   2.404   3.893  0.8658  3.2561  0.9370
30864SOL     OW97276   0.657   0.719   9.440  0.7804 -0.3127  0.3249
30864SOL    HW197277   0.744   0.752   9.465  0.3858  0.2107  1.0316
30864SOL    HW297278   0.618   0.691   9.523 -0.5571  1.4573  0.3400
30865SOL     OW97279   9.519   7.912   5.591  0.2288  0.0955 -0.1431
30865SOL    HW197280   9.461   7.847   5.631  0.4393 -1.2337 -1.8741
30865SOL    HW297281   9.468   7.949   5.519  0.1466  1.8397  0.7615
30866SOL     OW97282   8.332   6.274   9.051  0.3540 -0.0309 -0.7501
30866SOL    HW197283   8.406   6.291   9.109  0.4685 -0.4203 -0.7802
30866SOL    HW297284   8.258   6.259   9.110  0.9239 -2.6253 -0.6152
30867SOL     OW97285   1.356   2.416   6.215  0.5252 -0.5648 -0.3828
30867SOL    HW197286   1.357   2.505   6.251  1.2040 -0.0885 -1.5185
30867SOL    HW297287   1.411   2.421   6.137  1.6568 -2.2807  0.2317
30868SOL     OW97288   9.849   9.038  11.193  0.2773  0.2935 -0.2191
30868SOL    HW197289   9.772   8.997  11.151  0.1570 -0.7392  0.9743
30868SOL    HW297290   9.845   9.129  11.163 -0.6615 -0.0424 -1.2366
30869SOL     OW97291   2.964   1.800   3.842  0.1635 -0.0709  0.2138
30869SOL    HW197292   3.046   1.837   3.874 -0.2191  1.0433 -0.0232
30869SOL    HW297293   2.989   1.716   3.803  1.2161  0.3131  0.0218
30870SOL     OW97294   0.030   6.495   7.534  0.0349 -0.1041 -0.1693
30870SOL    HW197295   0.053   6.528   7.620 -1.8350 -0.0253  0.3499
30870SOL    HW297296  -0.000   6.572   7.485  0.4192 -0.2582 -0.6611
30871SOL     OW97297   6.214   6.330   9.540  0.0143 -0.1378  0.7451
30871SOL    HW197298   6.134   6.349   9.492 -0.4997  1.9122  2.3258
30871SOL    HW297299   6.271   6.288   9.474 -0.6005  2.5923 -1.7442
30872SOL     OW97300  11.514   5.165   6.959 -0.1501 -0.2855  0.2316
30872SOL    HW197301  11.489   5.130   7.045 -0.0455  1.1194  0.8662
30872SOL    HW297302  11.474   5.252   6.957 -1.5729 -0.9131 -1.8538
30873SOL     OW97303   1.531   8.122   0.814 -0.3903 -0.1205  0.3740
30873SOL    HW197304   1.508   8.213   0.794  1.4669  0.2727 -0.1607
30873SOL    HW297305   1.621   8.127   0.846  0.4683 -1.9544 -1.5066
30874SOL     OW97306  10.873   0.987   7.590  0.6523 -0.2698 -0.2976
30874SOL    HW197307  10.862   1.007   7.683 -0.9137  1.3775 -0.7701
30874SOL    HW297308  10.957   0.943   7.584  0.4213 -1.1287  1.9967
30875SOL     OW97309   1.349   3.018   7.841  0.6410  0.0985 -0.2133
30875SOL    HW197310   1.360   2.953   7.771 -0.3367  1.4304 -1.6794
30875SOL    HW297311   1.359   2.968   7.922  0.3487 -1.7899 -1.2775
30876SOL     OW97312  11.971   2.533   4.040  0.2689 -0.0079  0.1818
30876SOL    HW197313  11.876   2.530   4.025  0.0268  0.0842  1.5911
30876SOL    HW297314  11.987   2.469   4.110  0.9148  1.5283  1.5046
30877SOL     OW97315  10.754   0.002   1.681  0.3144 -0.4303 -0.5679
30877SOL    HW197316  10.756  -0.083   1.638 -0.2758 -0.7875  0.0760
30877SOL    HW297317  10.791  -0.014   1.768 -0.6680 -0.2472 -0.1033
30878SOL     OW97318   1.792  11.043  11.547  0.0697 -0.5545  0.2829
30878SOL    HW197319   1.696  11.045  11.548  0.0723 -0.7014  1.5654
30878SOL    HW297320   1.818  11.096  11.622  0.9833 -1.4911  0.6419
30879SOL     OW97321  11.731   4.994   9.231  0.2840  0.1207 -0.2163
30879SOL    HW197322  11.664   4.934   9.266 -0.7363  0.9122 -0.7811
30879SOL    HW297323  11.794   5.002   9.303 -0.2476 -0.5883  0.3562
30880SOL     OW97324   8.046   0.881   0.414 -0.0008 -0.4100  0.0545
30880SOL    HW197325   8.060   0.890   0.509 -0.2856 -1.2728  0.1859
30880SOL    HW297326   8.101   0.807   0.388 -1.2993 -1.3423 -0.1147
30881SOL     OW97327   9.417   9.495   7.803  0.3014 -0.0247 -0.2640
30881SOL    HW197328   9.492   9.436   7.793  0.2633 -0.3443  1.1221
30881SOL    HW297329   9.451   9.567   7.856  0.1250  0.8140 -1.2624
30882SOL     OW97330   2.209   3.155   9.421  0.0026  0.3481 -0.4081
30882SOL    HW197331   2.218   3.247   9.443 -1.8932  0.5084 -0.1550
30882SOL    HW297332   2.299   3.126   9.403  0.9873  1.5894  1.9923
30883SOL     OW97333   8.042   9.108   7.970  0.3508 -1.0583  0.2323
30883SOL    HW197334   8.090   9.080   8.048 -0.2610  0.5335  1.2377
30883SOL    HW297335   7.953   9.073   7.982  0.7166 -2.3597 -0.6763
30884SOL     OW97336   5.250   3.850   7.329  0.0873  0.2421 -0.0692
30884SOL    HW197337   5.184   3.851   7.398  1.7004  1.1468  1.5561
30884SOL    HW297338   5.221   3.917   7.267 -0.6099  0.4936  0.5121
30885SOL     OW97339  10.321  10.283  11.960 -0.6047 -0.3735 -0.1233
30885SOL    HW197340  10.405  10.287  11.915 -0.0691 -0.3497  0.8590
30885SOL    HW297341  10.330  10.343  12.034 -1.9377  0.6120 -0.7170
30886SOL     OW97342   9.862   6.736   3.164 -0.4301 -0.2759  0.3944
30886SOL    HW197343   9.855   6.830   3.147 -0.9295  0.0097  1.9918
30886SOL    HW297344   9.937   6.708   3.113 -0.0209  1.0818  0.2140
30887SOL     OW97345   8.546   8.653   0.525 -0.0376 -0.6071  0.0570
30887SOL    HW197346   8.500   8.670   0.443 -0.7793  1.7535  0.8720
30887SOL    HW297347   8.639   8.662   0.503 -0.2421  0.2487 -0.5084
30888SOL     OW97348   9.228   2.452   3.064 -0.1836 -0.4480  0.1873
30888SOL    HW197349   9.319   2.463   3.091  0.1942 -2.3117 -0.2138
30888SOL    HW297350   9.206   2.363   3.089 -2.2942  0.3334  1.3037
30889SOL     OW97351   3.308   4.717   8.148 -0.6022 -0.1132  0.1772
30889SOL    HW197352   3.400   4.729   8.171 -0.0151 -1.5376 -1.2738
30889SOL    HW297353   3.270   4.670   8.223  0.2011 -0.7903  0.1652
30890SOL     OW97354   3.950  11.165   1.695  0.7239  0.3737  0.3763
30890SOL    HW197355   3.879  11.141   1.754  0.9216  1.1295  0.9364
30890SOL    HW297356   3.991  11.082   1.671  0.1248 -0.0051  0.6419
30891SOL     OW97357  10.680   5.674   0.439 -0.6464  0.5080  0.3106
30891SOL    HW197358  10.616   5.641   0.375 -0.8841  0.1343  0.7329
30891SOL    HW297359  10.681   5.768   0.425  0.5900  0.3006 -1.4450
30892SOL     OW97360  10.465   3.165   7.365  0.3253  0.3953 -0.3583
30892SOL    HW197361  10.477   3.119   7.448 -3.9158 -2.4460 -1.0172
30892SOL    HW297362  10.534   3.131   7.309  0.4738 -1.1719  0.7155
30893SOL     OW97363   3.753   1.407   9.739 -0.1127  0.9118  0.2287
30893SOL    HW197364   3.797   1.469   9.680 -0.5620  2.6037  1.5835
30893SOL    HW297365   3.824   1.358   9.780  0.2373  0.2510 -1.0993
30894SOL     OW97366  10.836   2.433  11.422 -0.2884  0.1947 -0.1391
30894SOL    HW197367  10.841   2.366  11.354  1.4805 -0.9013  1.0001
30894SOL    HW297368  10.825   2.385  11.503 -1.2611  1.4245  0.4976
30895SOL     OW97369   4.210   4.008   1.167 -0.2755 -0.4153  0.1683
30895SOL    HW197370   4.249   3.926   1.198 -0.7197 -0.9980 -0.7668
30895SOL    HW297371   4.266   4.034   1.093 -1.1584 -0.8310 -0.6670
30896SOL     OW97372   5.321   5.057   6.159 -0.1385  0.0533  0.1318
30896SOL    HW197373   5.374   5.112   6.102  0.6067 -1.6092 -0.8653
30896SOL    HW297374   5.383   4.993   6.196 -1.3602 -1.9109 -1.0330
30897SOL     OW97375   1.581   6.028   9.554  0.0706 -0.3817  0.2721
30897SOL    HW197376   1.673   6.009   9.534 -0.0181 -0.5586  0.0279
30897SOL    HW297377   1.533   5.952   9.521 -0.2139 -0.0546 -0.0716
30898SOL     OW97378   4.504  10.387   3.241  0.4633  0.8394 -0.6542
30898SOL    HW197379   4.514  10.420   3.330  0.5402  0.2286 -0.4330
30898SOL    HW297380   4.522  10.463   3.186  0.6970  1.1555 -0.1563
30899SOL     OW97381   2.271  11.700   7.282  0.2840  0.3755 -0.4326
30899SOL    HW197382   2.199  11.645   7.250  0.7483 -0.3872 -0.1970
30899SOL    HW297383   2.268  11.691   7.377 -0.7781  2.2411 -0.2347
30900SOL     OW97384   1.691   3.689   4.850 -0.3276 -0.0524  0.4687
30900SOL    HW197385   1.765   3.743   4.823 -1.0067 -0.2416 -1.9627
30900SOL    HW297386   1.730   3.613   4.891  0.9010 -0.5029 -1.4409
30901SOL     OW97387   8.034   7.776   2.971  0.5552  0.2032  0.1746
30901SOL    HW197388   8.125   7.804   2.968  0.4237  0.6045 -0.0070
30901SOL    HW297389   8.039   7.680   2.979  0.9824  0.1140 -0.9648
30902SOL     OW97390   4.000   1.576  11.032  0.8028 -0.0737 -0.1288
30902SOL    HW197391   3.988   1.655  10.979  2.4473  0.3839  0.1233
30902SOL    HW297392   4.095   1.560  11.030  0.4318 -2.4854 -0.7923
30903SOL     OW97393   4.480  11.363  11.828 -0.0789 -0.1311  0.5484
30903SOL    HW197394   4.435  11.322  11.754  0.5845  0.2548 -0.0859
30903SOL    HW297395   4.414  11.367  11.897 -0.7181 -0.4755 -0.0318
30904SOL     OW97396   9.749   6.322   2.047  0.1593  0.6765 -0.0508
30904SOL    HW197397   9.703   6.253   2.000  0.3440  0.4537  0.0950
30904SOL    HW297398   9.808   6.276   2.107  1.6130  0.9457 -1.2191
30905SOL     OW97399   3.176   3.143   5.757  0.1472  0.2654 -0.1028
30905SOL    HW197400   3.224   3.221   5.730  2.3297 -0.5627  1.0543
30905SOL    HW297401   3.187   3.140   5.852  1.8802 -2.4109 -0.2528
30906SOL     OW97402   0.815   4.095   8.262 -0.3577  0.3097 -0.1463
30906SOL    HW197403   0.822   4.010   8.218 -0.4499  0.0137  0.3922
30906SOL    HW297404   0.865   4.084   8.343  0.1405  0.9714 -0.3577
30907SOL     OW97405   4.981   3.838   2.582  0.0099 -0.2873  0.1896
30907SOL    HW197406   5.073   3.865   2.586 -0.1087  0.0059  1.0555
30907SOL    HW297407   4.932   3.920   2.590 -0.3630 -0.7143  3.0744
30908SOL     OW97408  11.483   9.540   4.713  0.0292 -0.3605  0.3005
30908SOL    HW197409  11.487   9.595   4.635 -0.9050 -0.2768  0.3019
30908SOL    HW297410  11.508   9.598   4.785 -2.2823  0.5205  0.5076
30909SOL     OW97411   4.145  10.495  10.721 -0.4798 -0.0210 -0.4339
30909SOL    HW197412   4.227  10.543  10.711  0.6591 -1.6131  0.6466
30909SOL    HW297413   4.114  10.481  10.632  0.6099  0.3032 -0.8836
30910SOL     OW97414   2.829   7.853  11.511 -0.2172  0.3785 -0.1118
30910SOL    HW197415   2.762   7.901  11.560  1.2989  1.6218  0.8472
30910SOL    HW297416   2.899   7.916  11.497  1.2593 -1.1688 -0.0781
30911SOL     OW97417   1.787   4.078   8.373 -0.5045 -0.5478 -0.4554
30911SOL    HW197418   1.786   4.165   8.332  1.3029  0.1307  0.8110
30911SOL    HW297419   1.761   4.019   8.303  0.2929  0.7946 -1.9624
30912SOL     OW97420   2.928  10.916   5.014 -0.0435 -0.1507  0.1977
30912SOL    HW197421   2.906  10.998   4.971  3.5640  0.1663 -1.4894
30912SOL    HW297422   2.867  10.909   5.087 -2.1807  2.6569 -1.1180
30913SOL     OW97423   6.631   5.889  11.857  0.1390  0.1732  0.0264
30913SOL    HW197424   6.578   5.910  11.934 -0.6795  0.5293 -0.6202
30913SOL    HW297425   6.695   5.825  11.889  0.2624  0.8368  1.1573
30914SOL     OW97426   6.519   5.958   7.796 -0.1282  0.3114 -0.4019
30914SOL    HW197427   6.443   6.014   7.815 -0.5357 -0.4658  0.3450
30914SOL    HW297428   6.490   5.870   7.819  0.7225 -0.1234 -0.9367
30915SOL     OW97429  11.675   8.190   7.254 -0.0476  0.0736  0.1767
30915SOL    HW197430  11.681   8.145   7.338 -1.2277  0.3555  0.4249
30915SOL    HW297431  11.590   8.234   7.256  0.3947  1.0141 -0.7016
30916SOL     OW97432   2.386   4.277   7.870  0.2033  0.5396  0.5562
30916SOL    HW197433   2.439   4.356   7.864 -1.3581  1.6246  0.2687
30916SOL    HW297434   2.329   4.280   7.793 -0.0217 -0.7679  0.6416
30917SOL     OW97435   4.389   7.854  10.684  0.0575 -0.4218 -0.0451
30917SOL    HW197436   4.363   7.835  10.593  0.8622  1.1907 -0.6458
30917SOL    HW297437   4.356   7.779  10.734  0.6332 -1.9507 -1.8348
30918SOL     OW97438   5.172   6.546   1.198  0.7369  0.0244  0.2266
30918SOL    HW197439   5.110   6.563   1.127 -0.8815 -1.0265  1.3286
30918SOL    HW297440   5.212   6.631   1.216 -1.9953  1.2305  0.9483
30919SOL     OW97441   1.508   7.954   2.785  0.2985 -0.1496 -0.2956
30919SOL    HW197442   1.440   8.015   2.816  0.5523  1.1484 -2.1157
30919SOL    HW297443   1.584   7.975   2.839 -0.9581 -2.4894  2.6592
30920SOL     OW97444  11.785   4.300   9.742 -0.1555 -0.3616 -0.2325
30920SOL    HW197445  11.710   4.346   9.780  0.4344  0.2767  0.1997
30920SOL    HW297446  11.829   4.260   9.816 -0.2754 -1.0597 -0.5315
30921SOL     OW97447   0.327   6.540   0.590 -0.2262  0.0705 -0.4896
30921SOL    HW197448   0.335   6.482   0.515  0.1244 -1.3763  0.6064
30921SOL    HW297449   0.292   6.622   0.555 -0.1550 -0.5988 -2.1823
30922SOL     OW97450   3.618  11.955   6.961 -0.0803 -0.2886  0.1309
30922SOL    HW197451   3.557  12.001   7.018 -0.5456  0.6439 -1.0802
30922SOL    HW297452   3.562  11.911   6.896  0.4893  0.1897 -0.7070
30923SOL     OW97453   1.967   6.251   9.530 -0.5231  0.1980  0.0587
30923SOL    HW197454   2.033   6.189   9.497 -0.9055 -0.1706 -0.0228
30923SOL    HW297455   1.904   6.258   9.458 -1.8917 -1.3525  1.0288
30924SOL     OW97456   5.251   0.112   0.323  0.5321  0.2825 -0.4133
30924SOL    HW197457   5.252   0.156   0.238 -1.2419  0.0129 -0.6049
30924SOL    HW297458   5.167   0.135   0.362  0.5069 -1.1355  0.4503
30925SOL     OW97459  11.412   8.795   3.507 -0.2237 -0.2836 -0.0149
30925SOL    HW197460  11.421   8.725   3.572  1.9384 -0.9323 -0.9017
30925SOL    HW297461  11.452   8.759   3.427  1.9513  2.2686 -0.2255
30926SOL     OW97462   3.817  11.156  11.210  0.0947 -0.0104 -0.2190
30926SOL    HW197463   3.757  11.219  11.170  1.0545  0.6306 -0.6855
30926SOL    HW297464   3.799  11.162  11.304 -1.9525 -1.2947 -0.4889
30927SOL     OW97465   3.518   8.551   1.953  0.2707 -0.2772  0.2256
30927SOL    HW197466   3.512   8.458   1.976  0.8722 -0.5434 -0.6082
30927SOL    HW297467   3.590   8.584   2.006  1.0718 -0.6725 -0.5831
30928SOL     OW97468   1.300   3.416   4.507  0.1261 -0.3412  0.6881
30928SOL    HW197469   1.205   3.416   4.508  0.1241  0.2551  1.0698
30928SOL    HW297470   1.324   3.472   4.434  0.1942 -0.9964  0.1956
30929SOL     OW97471   3.893   2.106   3.503 -0.7537 -0.4446  0.0119
30929SOL    HW197472   3.947   2.034   3.469 -1.3717 -0.4124 -1.1098
30929SOL    HW297473   3.927   2.123   3.591  0.1137 -1.3760 -0.1263
30930SOL     OW97474  10.804  11.261   2.490  0.2480 -0.7871  0.6701
30930SOL    HW197475  10.860  11.189   2.521  2.0050  1.3207  2.8260
30930SOL    HW297476  10.847  11.292   2.410  1.0354 -0.5327  1.1678
30931SOL     OW97477   2.976   8.639   2.482  0.2923 -0.1997  0.8099
30931SOL    HW197478   3.049   8.633   2.421  1.0924 -1.5226  1.8472
30931SOL    HW297479   2.999   8.581   2.554 -1.7282 -0.5564  1.2408
30932SOL     OW97480   5.004   5.164   0.997  0.1918  0.1375 -0.2779
30932SOL    HW197481   5.016   5.106   1.071 -1.9597  1.1760  0.9814
30932SOL    HW297482   5.005   5.106   0.920 -2.2763 -1.6924  0.9381
30933SOL     OW97483   3.961   1.778   5.181  0.3966 -0.6071  0.7726
30933SOL    HW197484   4.015   1.702   5.158 -0.0167 -0.5706 -0.4093
30933SOL    HW297485   3.924   1.807   5.097 -2.1283 -1.1353  1.6122
30934SOL     OW97486   4.807  11.467   5.061  0.3449  0.1697  0.4375
30934SOL    HW197487   4.793  11.514   4.980  0.2679 -1.6044 -0.6379
30934SOL    HW297488   4.811  11.535   5.128  1.0367  1.7328 -1.1078
30935SOL     OW97489   0.577   9.758  10.022  0.1743 -0.1361  0.6296
30935SOL    HW197490   0.565   9.771  10.116  0.5822 -2.4519  1.0647
30935SOL    HW297491   0.672   9.766  10.008  0.2424 -0.8923  0.6257
30936SOL     OW97492   9.798  11.049   9.396 -0.1781  0.2354 -0.5288
30936SOL    HW197493   9.719  11.090   9.432 -0.1800 -0.2661  0.0733
30936SOL    HW297494   9.797  10.960   9.432  0.4869  0.1183 -0.7795
30937SOL     OW97495  10.324   8.245  10.994 -0.2719 -0.3533 -0.3519
30937SOL    HW197496  10.388   8.219  10.929  0.7988  0.1716  0.4604
30937SOL    HW297497  10.301   8.335  10.971  2.0690  0.7976  1.4203
30938SOL     OW97498   8.291  11.571   8.953 -1.0535  0.2386  0.8847
30938SOL    HW197499   8.273  11.546   9.044 -3.4876 -3.2259 -0.3642
30938SOL    HW297500   8.375  11.530   8.933 -1.2566 -0.3179  1.1419
30939SOL     OW97501   9.008   4.364   3.188  0.0473  0.3991  0.6189
30939SOL    HW197502   8.979   4.427   3.254 -1.4364 -1.0015  1.3712
30939SOL    HW297503   9.103   4.377   3.183 -0.0186  1.6264  1.8630
30940SOL     OW97504   9.724   1.156   7.997 -0.0677  0.3497  0.6293
30940SOL    HW197505   9.641   1.115   8.020 -0.2357 -0.8398 -1.7206
30940SOL    HW297506   9.788   1.085   8.000  0.2687  0.5881 -0.4288
30941SOL     OW97507   3.826   2.103  11.509 -0.3450  0.2468  0.0872
30941SOL    HW197508   3.826   2.089  11.414  0.8703  1.3173 -0.0842
30941SOL    HW297509   3.795   2.019  11.544 -0.3593 -0.3362 -1.2270
30942SOL     OW97510   1.896   6.043  10.523  0.0653  0.3940 -0.0125
30942SOL    HW197511   1.916   5.997  10.605 -0.7340 -0.8037 -0.4619
30942SOL    HW297512   1.883   5.972  10.459  0.7106  1.3038 -1.1939
30943SOL     OW97513   8.661   9.566  11.799  0.5956 -0.5291  0.3816
30943SOL    HW197514   8.584   9.573  11.743  0.7188  2.3080  0.4097
30943SOL    HW297515   8.734   9.551  11.739  0.5531  1.2008 -0.1423
30944SOL     OW97516  11.690  11.573   8.559 -0.1887  0.3067  0.5017
30944SOL    HW197517  11.637  11.650   8.536 -0.2375  0.2745  0.5085
30944SOL    HW297518  11.653  11.502   8.507 -0.6930  0.0945  1.1415
30945SOL     OW97519  10.182  11.291   6.178  0.2995 -0.0354 -0.1745
30945SOL    HW197520  10.208  11.227   6.111 -0.9222 -1.4128  0.6121
30945SOL    HW297521  10.155  11.368   6.129 -2.3220 -1.6347 -1.4363
30946SOL     OW97522   0.104  10.131   5.990  0.3859  0.1276  0.2594
30946SOL    HW197523   0.179  10.152   5.935  0.3911  1.0031  0.5746
30946SOL    HW297524   0.114  10.039   6.012  1.2759  0.1935  0.1540
30947SOL     OW97525   8.901  11.593   2.721 -0.5089 -0.4705  0.4766
30947SOL    HW197526   8.835  11.585   2.789  1.7155 -0.0683  2.8300
30947SOL    HW297527   8.886  11.679   2.682 -1.6554 -0.6076  0.6013
30948SOL     OW97528   3.505   8.021   1.486  0.5835  0.2168 -0.0067
30948SOL    HW197529   3.410   8.031   1.477  0.3955 -1.7247 -0.7412
30948SOL    HW297530   3.515   7.954   1.554  1.4571  0.7277  0.3833
30949SOL     OW97531   3.844   2.006   8.706 -0.3241  0.6481  0.3062
30949SOL    HW197532   3.753   1.984   8.729  0.1650  0.2225  1.9518
30949SOL    HW297533   3.847   1.996   8.611 -1.5507 -1.0753  0.3925
30950SOL     OW97534  10.711   8.235  11.513 -0.0018  0.0653  0.5123
30950SOL    HW197535  10.671   8.322  11.512  0.7392  0.4133 -1.1091
30950SOL    HW297536  10.641   8.175  11.486  0.4404  0.6484 -2.1421
30951SOL     OW97537   9.728   7.937   6.078 -0.2160 -0.4512  0.2682
30951SOL    HW197538   9.664   7.874   6.046 -0.9430  1.6797 -2.8999
30951SOL    HW297539   9.808   7.919   6.028  1.2442 -1.9542  2.9360
30952SOL     OW97540   5.970  10.414  11.490 -0.2317  0.6061 -0.4850
30952SOL    HW197541   6.043  10.473  11.508 -1.2180  1.9557 -0.8318
30952SOL    HW297542   5.995  10.371  11.408 -0.6365  2.4287 -1.6066
30953SOL     OW97543   9.582   2.069   1.019 -0.0414 -0.3624 -0.0545
30953SOL    HW197544   9.619   2.119   0.947 -0.4121 -1.5609 -1.1078
30953SOL    HW297545   9.541   2.135   1.075  2.5483  0.8912  0.5421
30954SOL     OW97546   7.403   7.448   7.664 -0.6459 -0.9009  0.3941
30954SOL    HW197547   7.486   7.490   7.642 -1.2000 -0.0901 -0.2281
30954SOL    HW297548   7.423   7.393   7.740 -0.0959  1.2481  1.8926
30955SOL     OW97549   9.246  10.629   2.441  0.0468  0.3360  1.0143
30955SOL    HW197550   9.174  10.569   2.458  0.9816 -0.3935  2.7659
30955SOL    HW297551   9.305  10.617   2.516  0.9763  2.4069  0.6912
30956SOL     OW97552   6.943   9.996   5.141 -0.0753 -0.0196  0.2509
30956SOL    HW197553   6.909   9.958   5.060  0.3517  0.3179 -0.0939
30956SOL    HW297554   7.031  10.026   5.117 -0.3782  1.1193  0.5370
30957SOL     OW97555   8.456  10.156   1.677  0.3873  0.5640  0.5445
30957SOL    HW197556   8.534  10.161   1.623  0.9227 -1.9429  0.9871
30957SOL    HW297557   8.388  10.198   1.624  1.5296  0.8202 -0.7740
30958SOL     OW97558   6.698   8.033   5.920  0.2882 -0.3256  0.4398
30958SOL    HW197559   6.699   7.960   5.981 -0.7205  0.8297  1.9192
30958SOL    HW297560   6.706   8.111   5.975  0.2571  0.7330 -0.9851
30959SOL     OW97561   1.038   1.008   1.064  0.0102 -0.1299 -0.1702
30959SOL    HW197562   1.017   0.950   1.137 -1.0950  0.4392 -0.0276
30959SOL    HW297563   1.126   0.981   1.037  0.6380 -0.0241  1.6720
30960SOL     OW97564   5.608   9.655   0.338 -0.2302 -0.1927 -0.3598
30960SOL    HW197565   5.605   9.734   0.284 -3.5687 -0.6077 -0.9903
30960SOL    HW297566   5.577   9.684   0.424 -0.0282 -0.5439 -0.1691
30961SOL     OW97567   5.474   6.931   5.992 -0.3972  0.8108  0.4454
30961SOL    HW197568   5.454   6.917   5.899 -0.1018  1.1074  0.3346
30961SOL    HW297569   5.563   6.897   6.003 -0.9011 -0.3937  0.9094
30962SOL     OW97570   6.609  11.761   9.173  0.0287 -0.3411 -0.6068
30962SOL    HW197571   6.579  11.688   9.119 -1.0906 -0.4486  0.1109
30962SOL    HW297572   6.562  11.837   9.140  1.6561  0.2170 -1.7584
30963SOL     OW97573   5.700   2.920   0.103  0.1717 -0.1283  0.2405
30963SOL    HW197574   5.655   3.004   0.113  1.0037  0.2134  1.3433
30963SOL    HW297575   5.793   2.943   0.098  0.4350 -0.9969  0.8422
30964SOL     OW97576   8.995   4.558   3.382  0.6326  0.5720 -0.0459
30964SOL    HW197577   9.088   4.571   3.400  0.5278  0.2134  0.7795
30964SOL    HW297578   8.950   4.606   3.451  0.1923  0.8322 -0.5005
30965SOL     OW97579   9.329  11.903   5.124 -0.4055  0.4172 -0.7427
30965SOL    HW197580   9.252  11.960   5.117 -1.6238 -0.7044  1.9165
30965SOL    HW297581   9.315  11.836   5.057 -0.8680  1.1843 -1.4288
30966SOL     OW97582   3.513  10.230   8.641  0.1579 -0.0814 -0.2588
30966SOL    HW197583   3.418  10.229   8.628  0.1300  1.0465 -0.3071
30966SOL    HW297584   3.528  10.301   8.704  1.0423  0.4078 -0.9865
30967SOL     OW97585   3.476   6.757   2.787 -0.1154 -0.7288 -0.3173
30967SOL    HW197586   3.502   6.695   2.718 -1.0504 -0.5579 -0.8314
30967SOL    HW297587   3.557   6.804   2.808  0.3546 -1.3434 -0.7271
30968SOL     OW97588   8.983   2.590   1.249  0.1559 -0.2200 -0.5046
30968SOL    HW197589   8.905   2.578   1.303  0.3013  3.3752  0.8112
30968SOL    HW297590   9.050   2.537   1.290 -0.7215 -0.5467  0.5267
30969SOL     OW97591   5.531   3.764   0.206  0.6181 -0.0786  0.3151
30969SOL    HW197592   5.616   3.773   0.163  1.4694  0.5079  2.0552
30969SOL    HW297593   5.494   3.852   0.206  0.2123 -0.2441 -0.0043
30970SOL     OW97594   7.780  10.636   1.934 -0.1761 -0.3131  0.0793
30970SOL    HW197595   7.828  10.710   1.972 -0.3470  0.1315 -0.5483
30970SOL    HW297596   7.841  10.598   1.871 -0.2696 -0.3918  0.0364
30971SOL     OW97597  11.607   3.464   4.132  0.3136  0.2742  0.3203
30971SOL    HW197598  11.513   3.446   4.135  0.3145 -0.3267 -1.7949
30971SOL    HW297599  11.627   3.499   4.219 -2.2807  2.5059  0.1541
30972SOL     OW97600   3.689   0.128  11.025  0.4993  0.1299 -0.7583
30972SOL    HW197601   3.746   0.062  11.065 -0.4711 -0.6436 -0.6209
30972SOL    HW297602   3.719   0.135  10.935  1.4745  0.4954 -0.4159
30973SOL     OW97603  11.604  11.059   3.184  0.3212 -0.2208 -0.5960
30973SOL    HW197604  11.597  10.964   3.173 -2.8826 -0.1998  0.2231
30973SOL    HW297605  11.577  11.096   3.100 -1.9535 -0.1151  0.1089
30974SOL     OW97606   0.644   8.977   2.536  0.6564  0.4856 -0.2314
30974SOL    HW197607   0.665   8.969   2.628  0.1846  0.7692 -0.0924
30974SOL    HW297608   0.548   8.976   2.533  0.6753 -0.0886 -0.7707
30975SOL     OW97609   1.597   4.932   6.642  0.7038 -0.4614 -0.1016
30975SOL    HW197610   1.599   5.017   6.686 -2.5180 -0.6003  0.5915
30975SOL    HW297611   1.679   4.889   6.667  1.9696  2.0206  0.3058
30976SOL     OW97612  11.754   4.745   5.489  0.1851  0.3394  0.3687
30976SOL    HW197613  11.715   4.759   5.403 -0.1392 -0.0541  0.4482
30976SOL    HW297614  11.699   4.796   5.549  0.1469  0.2637  0.3993
30977SOL     OW97615   6.741   1.550   4.739  0.0496 -0.4117 -0.1006
30977SOL    HW197616   6.650   1.572   4.757 -0.4389 -2.5296  0.2786
30977SOL    HW297617   6.781   1.541   4.826  0.0884 -1.4346 -0.2118
30978SOL     OW97618   9.552  10.364   3.989  0.2422  0.2919 -0.6934
30978SOL    HW197619   9.481  10.301   3.980 -0.8848  1.5377 -0.7420
30978SOL    HW297620   9.550  10.414   3.908  0.3226  1.1998 -0.1476
30979SOL     OW97621   4.718   4.343   0.901  0.0034 -0.3444  0.1963
30979SOL    HW197622   4.696   4.306   0.987  0.1406 -0.9513 -0.0303
30979SOL    HW297623   4.683   4.280   0.838 -1.3345  0.7701 -0.2353
30980SOL     OW97624  10.577  11.174   0.463  0.4714  0.5746 -0.1525
30980SOL    HW197625  10.606  11.090   0.427 -1.0599  0.7053 -1.8021
30980SOL    HW297626  10.485  11.160   0.486  0.3339  1.6642  0.0055
30981SOL     OW97627   4.087   6.976   0.598 -0.0550 -0.2796  0.7573
30981SOL    HW197628   4.010   6.921   0.582  0.8294 -1.7752  1.4340
30981SOL    HW297629   4.062   7.033   0.670 -0.4145 -1.0106  1.2127
30982SOL     OW97630   0.326   8.374   3.192  0.1561  0.1886  0.3683
30982SOL    HW197631   0.362   8.286   3.185 -0.3186 -0.1174  1.5805
30982SOL    HW297632   0.231   8.362   3.194  0.0799  0.7371  0.3899
30983SOL     OW97633   7.923  10.587   6.508 -0.1632  0.1919 -0.1455
30983SOL    HW197634   7.833  10.622   6.505  0.4923  1.9320 -0.7282
30983SOL    HW297635   7.927  10.528   6.433 -1.1529 -0.8295  0.5666
30984SOL     OW97636   8.910  10.860   8.507  0.9350 -0.4915 -0.0977
30984SOL    HW197637   9.004  10.870   8.519  1.2124  0.8710 -2.5936
30984SOL    HW297638   8.899  10.851   8.412 -1.4452 -0.6542  0.1346
30985SOL     OW97639   1.846   9.602   7.986 -0.0169  0.3344  0.7515
30985SOL    HW197640   1.924   9.571   8.033  0.0383  0.6433  0.8673
30985SOL    HW297641   1.880   9.664   7.922 -0.0838 -0.1671  0.2329
30986SOL     OW97642   4.749   4.526   8.402 -0.8806 -0.1015  0.0523
30986SOL    HW197643   4.815   4.469   8.441 -1.5981 -0.1862  1.1760
30986SOL    HW297644   4.799   4.596   8.361  0.0449 -1.7154 -1.7134
30987SOL     OW97645   7.527   9.162   3.191  0.3478  0.7009 -0.1294
30987SOL    HW197646   7.490   9.148   3.104 -0.9717  0.3497  0.4500
30987SOL    HW297647   7.530   9.257   3.200 -0.2882  0.7433 -0.2658
30988SOL     OW97648   8.032   9.743   8.764 -0.1436  0.1284  0.7059
30988SOL    HW197649   8.041   9.653   8.733  0.7487  1.3504 -3.2555
30988SOL    HW297650   8.122   9.777   8.764 -0.4681  1.0307  2.1279
30989SOL     OW97651   4.444  11.502  10.100  0.7854 -0.5329 -0.4055
30989SOL    HW197652   4.490  11.457  10.029 -0.6284 -1.7982 -0.5746
30989SOL    HW297653   4.414  11.432  10.158  0.0007  0.3221  0.2583
30990SOL     OW97654   4.920   5.438  11.399 -0.5173  0.5104  0.2648
30990SOL    HW197655   4.838   5.444  11.350  0.2638 -1.6406 -1.4997
30990SOL    HW297656   4.922   5.347  11.430  2.1202 -0.2206 -1.6643
30991SOL     OW97657   7.379   9.036  10.241  0.5510  0.1872  0.7158
30991SOL    HW197658   7.402   8.963  10.183  1.2476 -0.2690  1.5504
30991SOL    HW297659   7.305   9.078  10.197  0.5637 -0.6155 -0.1155
30992SOL     OW97660   6.180  10.935   1.728  0.2600  0.4000 -0.7619
30992SOL    HW197661   6.145  10.899   1.646 -1.0668  2.0043 -0.9503
30992SOL    HW297662   6.230  11.012   1.702 -0.9240  1.4602 -0.0485
30993SOL     OW97663   3.996   2.687   6.322  0.1729 -0.3599  0.2386
30993SOL    HW197664   4.059   2.752   6.351  0.3185 -0.0480 -0.7234
30993SOL    HW297665   4.021   2.606   6.367  2.1607 -0.6061 -1.1835
30994SOL     OW97666   4.225   1.077  10.981 -0.0146  0.1890 -0.1826
30994SOL    HW197667   4.187   1.104  10.897  0.3395 -0.0595 -0.4278
30994SOL    HW297668   4.279   1.001  10.959  0.6036  0.5206  0.1526
30995SOL     OW97669   1.460   6.868   0.075  0.2573  0.1135 -0.0332
30995SOL    HW197670   1.520   6.828   0.012 -0.2957 -1.2521  0.2734
30995SOL    HW297671   1.498   6.954   0.093  1.4000 -0.1984 -0.8377
30996SOL     OW97672   7.621   5.009   1.429  0.1744  0.0510  0.2160
30996SOL    HW197673   7.593   5.086   1.379 -1.7641  0.5368  1.8998
30996SOL    HW297674   7.697   5.040   1.480  0.8786  0.1320 -0.8595
30997SOL     OW97675   8.013   6.263   0.986 -0.1198  0.1248  0.1155
30997SOL    HW197676   8.094   6.267   1.037 -0.4953  2.8995  0.6271
30997SOL    HW297677   7.948   6.231   1.048  0.4725 -1.8380 -0.2176
30998SOL     OW97678   6.710   7.363  10.943  0.1619  0.7615 -0.2028
30998SOL    HW197679   6.702   7.382  11.036  2.0589  1.5393 -0.1489
30998SOL    HW297680   6.691   7.446  10.900  0.7706  0.7919 -0.4181
30999SOL     OW97681   7.296   3.533   4.376  0.1625  0.4269 -0.4030
30999SOL    HW197682   7.259   3.592   4.312  0.0501  0.4719 -0.2977
30999SOL    HW297683   7.349   3.471   4.325  0.6063  0.8634 -0.4736
31000SOL     OW97684   6.348   4.380   2.711  0.1041  0.5152 -0.0910
31000SOL    HW197685   6.335   4.465   2.670 -0.3182 -0.5451 -2.3160
31000SOL    HW297686   6.443   4.375   2.726  0.0533  1.6255  0.7004
31001SOL     OW97687   6.972   0.723   8.662  0.0673  0.2459 -0.3470
31001SOL    HW197688   6.886   0.714   8.705 -0.2140  0.7249 -0.7915
31001SOL    HW297689   7.010   0.636   8.665 -0.3343  0.0816  0.0760
31002SOL     OW97690  11.504   7.295  11.853 -0.0525  0.2680 -0.3248
31002SOL    HW197691  11.581   7.290  11.796  0.3772  0.2250  0.2424
31002SOL    HW297692  11.458   7.374  11.825  1.7869  2.0054  1.2600
31003SOL     OW97693   5.631  11.458   5.926  0.0580  0.6275 -0.3959
31003SOL    HW197694   5.620  11.547   5.893  1.1234  0.5501 -1.0074
31003SOL    HW297695   5.670  11.470   6.013  0.1708  0.7607 -0.4639
31004SOL     OW97696   8.717   0.364   7.271  0.2403  0.1636  0.6586
31004SOL    HW197697   8.742   0.330   7.357 -1.9728 -1.3978  0.7642
31004SOL    HW297698   8.659   0.438   7.289  1.9044  1.6129  0.4216
31005SOL     OW97699   7.440   4.723   4.619  0.0565  0.5247  0.3630
31005SOL    HW197700   7.406   4.713   4.708 -1.7487  0.7051 -0.2677
31005SOL    HW297701   7.521   4.774   4.630  0.3389 -0.2076  1.9579
31006SOL     OW97702   9.070   4.776   8.918 -0.2098  0.2181  0.7263
31006SOL    HW197703   8.997   4.734   8.965 -1.3181  0.8301 -0.3852
31006SOL    HW297704   9.065   4.740   8.830  1.7678 -0.8263  0.9831
31007SOL     OW97705   8.474   6.583   1.380 -0.3307  0.0799  0.0388
31007SOL    HW197706   8.516   6.584   1.467  0.3299  0.9428 -0.2780
31007SOL    HW297707   8.393   6.631   1.392  0.5972  1.7851 -0.1998
31008SOL     OW97708   1.565   1.670   8.400  0.3827  0.2252  0.2308
31008SOL    HW197709   1.621   1.711   8.334 -0.9660  1.4244 -0.2031
31008SOL    HW297710   1.485   1.646   8.353 -0.0065 -0.2839  1.1162
31009SOL     OW97711  10.116   0.791  11.698  0.3172 -0.1310 -0.3582
31009SOL    HW197712  10.059   0.716  11.686  0.0251 -0.1064  0.7876
31009SOL    HW297713  10.060   0.867  11.681  0.5185 -0.1487 -1.1479
31010SOL     OW97714   9.913   6.586   3.461  0.1843  0.3358 -0.0801
31010SOL    HW197715   9.845   6.612   3.400 -0.7044 -1.5689  0.0196
31010SOL    HW297716   9.965   6.665   3.475 -0.9805  1.3933 -1.4773
31011SOL     OW97717  11.376   1.671   5.499 -0.0154  0.0852 -0.3479
31011SOL    HW197718  11.440   1.602   5.509  0.2456  0.3186 -0.3981
31011SOL    HW297719  11.417   1.734   5.440 -1.1637 -0.8219 -2.1878
31012SOL     OW97720   0.310   9.805   4.137  0.1648 -0.7148  0.1566
31012SOL    HW197721   0.382   9.777   4.081  1.0371 -0.9339  1.3486
31012SOL    HW297722   0.352   9.838   4.216 -1.0270 -0.3249  0.6623
31013SOL     OW97723   3.391   1.642  11.424  0.5011  0.2441 -0.6446
31013SOL    HW197724   3.378   1.583  11.350 -0.5502 -0.9971  0.4851
31013SOL    HW297725   3.324   1.709  11.413 -0.8005 -0.8936  0.0646
31014SOL     OW97726   1.848   2.508   4.818  0.3314  0.0690 -0.9979
31014SOL    HW197727   1.882   2.594   4.844  1.2841 -0.2907 -1.0109
31014SOL    HW297728   1.901   2.484   4.742  1.3867 -1.3646  0.1303
31015SOL     OW97729   6.195  11.953   6.530  0.9118 -0.2912  0.7865
31015SOL    HW197730   6.244  12.026   6.568  1.1973  0.0423 -0.1923
31015SOL    HW297731   6.104  11.969   6.556  1.4045 -1.5599  3.6383
31016SOL     OW97732   9.312   2.767   9.465 -0.0116  0.3848 -0.0027
31016SOL    HW197733   9.237   2.814   9.500 -1.8715 -0.8290 -2.1363
31016SOL    HW297734   9.336   2.705   9.535 -0.7439  1.0233  0.8368
31017SOL     OW97735   7.629   0.972   2.939  0.1108  0.2628 -0.2526
31017SOL    HW197736   7.701   1.035   2.945  0.2678  0.0051  0.9670
31017SOL    HW297737   7.670   0.888   2.959 -0.5285  0.1235  0.5264
31018SOL     OW97738   5.335  11.859   1.314 -0.2584  0.0230  0.3576
31018SOL    HW197739   5.305  11.855   1.223 -0.9678  0.9265  0.5242
31018SOL    HW297740   5.394  11.785   1.324 -1.1751 -0.8488 -0.4797
31019SOL     OW97741   0.410   8.174   5.046 -0.2666  0.2674 -0.0497
31019SOL    HW197742   0.501   8.189   5.074 -0.4604  0.3424  0.5543
31019SOL    HW297743   0.405   8.080   5.031 -0.6022 -0.0688  1.8591
31020SOL     OW97744   0.472   5.635   2.131 -0.4937  0.1183  0.1771
31020SOL    HW197745   0.399   5.657   2.188  0.9965  0.4912  2.0315
31020SOL    HW297746   0.527   5.577   2.183  0.6260 -0.0209 -1.0984
31021SOL     OW97747   3.892   3.358   8.558 -0.0685 -0.1467  0.0875
31021SOL    HW197748   3.943   3.429   8.519  1.5820 -1.5440 -0.4183
31021SOL    HW297749   3.814   3.401   8.594 -0.0742  1.6455 -1.8846
31022SOL     OW97750   1.128   1.201   2.583  0.4955  0.2976 -0.5443
31022SOL    HW197751   1.152   1.115   2.548 -0.4044 -0.5900  0.9308
31022SOL    HW297752   1.152   1.263   2.513  1.7891 -1.0633 -1.3619
31023SOL     OW97753   2.643   6.672  10.062 -0.0706  0.3620  0.1745
31023SOL    HW197754   2.620   6.734  10.131 -0.3614  0.1056  0.3116
31023SOL    HW297755   2.673   6.726   9.989 -0.8396  0.6920  0.0920
31024SOL     OW97756   0.565   9.363   8.240  0.6209  0.2202 -0.7911
31024SOL    HW197757   0.471   9.346   8.239  0.6560 -0.1398 -2.7673
31024SOL    HW297758   0.606   9.277   8.237  1.0307  0.3655  0.2694
31025SOL     OW97759   9.533   9.101   8.780 -0.3717 -0.0345 -0.0873
31025SOL    HW197760   9.564   9.032   8.838  0.2668  0.9750  0.8143
31025SOL    HW297761   9.466   9.059   8.726  1.2287 -1.7932 -0.7901
31026SOL     OW97762   1.260   8.937   2.839  0.4500  0.4859 -0.0076
31026SOL    HW197763   1.351   8.910   2.843  0.5389  0.8606  0.6740
31026SOL    HW297764   1.211   8.859   2.867  0.5889  0.4084  0.0193
31027SOL     OW97765   5.117   8.188   3.356  0.0030 -0.0132 -0.0089
31027SOL    HW197766   5.049   8.226   3.301  1.2365  0.4154 -1.3072
31027SOL    HW297767   5.188   8.252   3.353  0.4107 -0.3617  1.4674
31028SOL     OW97768  11.145  10.078   6.065 -0.2500  0.5557  0.5104
31028SOL    HW197769  11.156  10.125   5.982 -1.1956  0.8085  0.5187
31028SOL    HW297770  11.217  10.015   6.066 -0.0863  0.7106 -0.3985
31029SOL     OW97771   5.911   8.134   4.883 -0.2285  0.4373  0.2360
31029SOL    HW197772   5.915   8.091   4.798  0.4267 -0.3034  0.6188
31029SOL    HW297773   5.820   8.128   4.910 -0.7227  1.8678 -0.9848
31030SOL     OW97774   6.100  11.381   5.598  0.1303 -0.5107 -0.5783
31030SOL    HW197775   6.068  11.307   5.649  0.0385 -0.9566 -1.2683
31030SOL    HW297776   6.055  11.373   5.514 -1.5612  1.5411  0.0401
31031SOL     OW97777   4.519   0.664   0.870 -0.0794 -0.5745  0.0432
31031SOL    HW197778   4.585   0.696   0.932  0.8085 -1.7445 -0.2469
31031SOL    HW297779   4.443   0.645   0.925 -0.6414  1.9129  0.2166
31032SOL     OW97780   4.209  11.564   1.679  0.2749  0.3889  0.4743
31032SOL    HW197781   4.295  11.566   1.637 -0.0701 -1.6363 -0.3982
31032SOL    HW297782   4.206  11.481   1.726 -0.8747  0.8422  1.2725
31033SOL     OW97783   2.130   6.387  11.402  0.5051 -0.0483 -0.3780
31033SOL    HW197784   2.181   6.323  11.352  1.6599  0.9934 -0.5690
31033SOL    HW297785   2.072   6.334  11.457  0.6888 -1.2348 -1.2931
31034SOL     OW97786   0.265   0.624   6.896  0.0814  0.6695  0.1138
31034SOL    HW197787   0.265   0.546   6.841  0.7751  2.6854 -2.9869
31034SOL    HW297788   0.174   0.634   6.924 -0.0668 -1.0456  0.3513
31035SOL     OW97789  11.209   9.274  11.042 -0.3504 -0.3769  0.0966
31035SOL    HW197790  11.217   9.367  11.019 -1.4081 -0.1894  0.4177
31035SOL    HW297791  11.184   9.232  10.960  0.7958 -0.4997 -0.2073
31036SOL     OW97792   8.026   4.037   4.242  0.6453 -0.0669  0.0379
31036SOL    HW197793   7.949   4.093   4.233 -0.3842 -1.5908 -1.3971
31036SOL    HW297794   8.021   4.003   4.331 -0.3461 -0.1093 -0.0213
31037SOL     OW97795   2.572   4.177   3.873 -0.0751 -0.5627 -0.2228
31037SOL    HW197796   2.610   4.145   3.956 -0.0047  0.1443  0.0288
31037SOL    HW297797   2.647   4.214   3.826  0.8768 -4.9915 -2.7134
31038SOL     OW97798   8.394   7.961   0.654 -0.0480 -0.9043  0.2400
31038SOL    HW197799   8.305   7.952   0.620 -0.2230  0.3830  0.3351
31038SOL    HW297800   8.402   7.890   0.718 -0.5493 -1.8369 -0.6971
31039SOL     OW97801  10.183   6.557   8.806  0.0293 -0.1326  0.1790
31039SOL    HW197802  10.107   6.541   8.750  0.4539 -0.4294 -0.3334
31039SOL    HW297803  10.173   6.647   8.837 -0.6281 -0.2396  0.2743
31040SOL     OW97804   7.362   7.856  10.500 -0.0673 -0.0305  0.0655
31040SOL    HW197805   7.331   7.837  10.412  1.2853  2.6986 -1.1227
31040SOL    HW297806   7.453   7.826  10.501 -0.5013 -1.4021  1.0749
31041SOL     OW97807   5.797   1.581   4.145 -0.2259  0.5277  0.3327
31041SOL    HW197808   5.781   1.649   4.080 -0.3047 -0.4005 -0.6473
31041SOL    HW297809   5.886   1.549   4.125 -0.5975 -0.3868  0.0724
31042SOL     OW97810   3.653   8.949   4.110  0.8386  0.3282 -0.3942
31042SOL    HW197811   3.614   8.862   4.104  0.8298  0.3233 -0.2658
31042SOL    HW297812   3.722   8.941   4.176 -0.8421  1.0242  1.5730
31043SOL     OW97813   0.701   4.873   6.490  0.1724 -0.3149  0.0720
31043SOL    HW197814   0.611   4.841   6.498  0.6594 -1.3427  2.0304
31043SOL    HW297815   0.728   4.847   6.402 -1.2474 -0.5093 -0.3228
31044SOL     OW97816   8.277  11.684   4.955 -0.0018 -0.5111 -0.7805
31044SOL    HW197817   8.356  11.690   5.008 -0.5760 -0.2489  0.0583
31044SOL    HW297818   8.213  11.639   5.011 -0.5793 -0.3482 -1.2919
31045SOL     OW97819   3.786  11.637   1.741  0.0282  0.0882 -0.1128
31045SOL    HW197820   3.823  11.549   1.730  1.9024  0.9254 -1.0310
31045SOL    HW297821   3.759  11.663   1.653  1.3227  1.1641 -0.2184
31046SOL     OW97822   9.457  10.013   9.591 -0.3386  0.0595 -0.2478
31046SOL    HW197823   9.482  10.016   9.499 -1.2697 -1.8286 -0.5974
31046SOL    HW297824   9.375  10.061   9.595 -0.2821  0.1688 -0.3873
31047SOL     OW97825  11.842   3.586   3.384  0.2867  0.4772  0.3944
31047SOL    HW197826  11.902   3.659   3.369  2.0232 -0.7862  0.8587
31047SOL    HW297827  11.857   3.562   3.476  0.3912 -0.9959  0.0155
31048SOL     OW97828   4.319   4.372   9.086 -0.2807 -0.4764  0.8433
31048SOL    HW197829   4.256   4.379   9.014  0.1666  0.8153  0.5490
31048SOL    HW297830   4.382   4.442   9.069 -1.0338  0.9134  3.3376
31049SOL     OW97831   4.435   8.838   7.749 -0.5129  0.5235 -0.0526
31049SOL    HW197832   4.417   8.923   7.710 -0.9426  0.2655 -0.4228
31049SOL    HW297833   4.388   8.840   7.832 -0.9028  0.4776 -0.2687
31050SOL     OW97834   7.696   0.484   5.619 -0.5456  0.4059  0.3212
31050SOL    HW197835   7.655   0.432   5.688 -2.5123 -0.0855 -1.1520
31050SOL    HW297836   7.766   0.428   5.586  0.2055  0.5123  1.6365
31051SOL     OW97837   8.087   0.134   3.428 -0.0353  0.0943  0.2861
31051SOL    HW197838   8.161   0.125   3.487 -0.8225  2.2655  1.7465
31051SOL    HW297839   8.020   0.179   3.480 -1.7140 -0.1292 -1.5299
31052SOL     OW97840   3.690   8.199  11.450  0.1850  0.5047 -0.1337
31052SOL    HW197841   3.751   8.125  11.453 -1.5669 -1.2105 -3.0689
31052SOL    HW297842   3.729   8.259  11.387 -0.6492 -0.1641 -1.3146
31053SOL     OW97843  10.032   5.686  10.647 -0.0286  0.3680  0.2353
31053SOL    HW197844  10.059   5.756  10.588 -1.2552  1.0216  0.4256
31053SOL    HW297845   9.941   5.670  10.625  0.0279 -0.6862  0.6911
31054SOL     OW97846   5.636   7.692   3.577 -0.2078  0.0925  0.4817
31054SOL    HW197847   5.653   7.785   3.586  3.0214 -0.5185  1.9959
31054SOL    HW297848   5.722   7.652   3.571 -1.4932 -2.8086 -0.3564
31055SOL     OW97849  11.714   9.340   3.508  0.1226  0.8081  0.1193
31055SOL    HW197850  11.704   9.422   3.459  0.8932  0.7063 -0.2179
31055SOL    HW297851  11.802   9.344   3.543  1.1085 -0.9536 -1.9289
31056SOL     OW97852   7.475   8.445  11.593 -0.0440 -0.0505  0.1179
31056SOL    HW197853   7.393   8.439  11.642 -0.0193  1.1393  0.3354
31056SOL    HW297854   7.537   8.394  11.644 -0.4692 -0.3498  0.3457
31057SOL     OW97855  10.153   8.640   9.020 -0.4563 -0.0387 -0.2554
31057SOL    HW197856  10.153   8.733   9.044  0.4492  0.0027 -0.3813
31057SOL    HW297857  10.216   8.634   8.948 -1.0978 -0.6265 -0.7826
31058SOL     OW97858   9.228   8.619  11.985 -0.4664  0.9261  0.3104
31058SOL    HW197859   9.306   8.563  11.981 -0.6430  0.7383 -2.2676
31058SOL    HW297860   9.164   8.567  12.033 -0.0886 -0.4359 -0.5858
31059SOL     OW97861   6.762   2.818   8.661 -0.8174 -0.1299 -0.3416
31059SOL    HW197862   6.829   2.871   8.704 -0.7351 -0.5408  0.0444
31059SOL    HW297863   6.808   2.739   8.634 -1.0682 -0.2570 -0.4015
31060SOL     OW97864   0.386   3.334   0.944 -0.4195 -0.4415 -0.1987
31060SOL    HW197865   0.354   3.402   1.003  1.0477 -0.1446  0.2926
31060SOL    HW297866   0.333   3.257   0.964 -0.1065 -0.2816  1.3680
31061SOL     OW97867  11.310   0.184   3.305 -0.0659  0.2033  0.0458
31061SOL    HW197868  11.253   0.138   3.244 -1.1984  1.8610 -0.2044
31061SOL    HW297869  11.261   0.182   3.388 -0.6666  1.8780 -0.2403
31062SOL     OW97870   5.062   5.551   1.304  0.4360 -0.0279 -0.1939
31062SOL    HW197871   5.023   5.465   1.292 -1.8874  0.9693 -0.3582
31062SOL    HW297872   5.087   5.554   1.396  1.3057 -1.1281 -0.3718
31063SOL     OW97873   4.124   1.211   0.581  0.1731 -0.0776 -0.1711
31063SOL    HW197874   4.205   1.178   0.620  1.0512  1.5939 -0.4647
31063SOL    HW297875   4.063   1.138   0.586  2.0833 -1.8338 -1.0906
31064SOL     OW97876   3.722   2.762   3.647  0.1032  0.4842 -0.1430
31064SOL    HW197877   3.805   2.789   3.688 -0.3441 -1.4079  2.2217
31064SOL    HW297878   3.748   2.701   3.578  0.7075  0.8475 -0.2473
31065SOL     OW97879   3.801   4.331   9.719 -0.6564 -0.1504  0.4648
31065SOL    HW197880   3.711   4.352   9.743 -1.2047 -1.5538 -0.2599
31065SOL    HW297881   3.832   4.273   9.789 -1.0261 -1.2990 -0.2931
31066SOL     OW97882   0.878   3.503   2.652  0.0237  0.1969  0.4446
31066SOL    HW197883   0.878   3.439   2.580  0.1720  1.2887 -0.5572
31066SOL    HW297884   0.788   3.500   2.686  0.2702 -1.1898  1.0246
31067SOL     OW97885   7.943  11.941   3.968  0.0761 -0.1427  0.2296
31067SOL    HW197886   7.987  11.952   3.884 -0.2025  2.1514  0.3379
31067SOL    HW297887   7.944  11.846   3.983 -1.1783 -0.8016 -3.0522
31068SOL     OW97888   7.116   7.121   1.565  0.0427  0.4112  0.1231
31068SOL    HW197889   7.085   7.068   1.492  0.3245  0.0744  0.2441
31068SOL    HW297890   7.120   7.060   1.639  0.4757  0.5697  0.2340
31069SOL     OW97891   0.813  11.589   5.321 -0.4849 -0.5035  0.3588
31069SOL    HW197892   0.777  11.534   5.391 -2.1728  0.1596  0.0469
31069SOL    HW297893   0.754  11.575   5.247  0.1086  0.3532 -0.2921
31070SOL     OW97894   1.693   5.773   5.110 -0.0408 -0.0878  0.5182
31070SOL    HW197895   1.786   5.754   5.104 -0.0674  0.2494 -1.8339
31070SOL    HW297896   1.664   5.728   5.190  1.9860 -0.7247  0.9385
31071SOL     OW97897   7.570   9.682   0.375  0.1494  0.2078  0.3146
31071SOL    HW197898   7.563   9.594   0.337  2.4894  0.2661 -0.4206
31071SOL    HW297899   7.631   9.672   0.447 -0.9691  0.9375  1.4101
31072SOL     OW97900   6.973   5.686  10.380  0.1952 -0.1538  0.6318
31072SOL    HW197901   7.015   5.663  10.297  1.3153 -0.0487  1.1596
31072SOL    HW297902   7.045   5.693  10.443 -0.7775 -2.5365  2.1740
31073SOL     OW97903   5.362   9.401   1.625  0.5947  0.3015  0.2108
31073SOL    HW197904   5.335   9.407   1.533  3.4942  0.5624 -0.7297
31073SOL    HW297905   5.454   9.427   1.625  1.0865 -1.0225  2.9899
31074SOL     OW97906   3.016   2.890  10.625  0.3908 -0.1175  0.4571
31074SOL    HW197907   3.005   2.986  10.628  1.5659  0.1518 -1.5912
31074SOL    HW297908   2.988   2.860  10.711  1.2122  2.2037  1.6166
31075SOL     OW97909   8.876   1.437   3.205 -0.4450  0.3072 -0.2063
31075SOL    HW197910   8.822   1.369   3.166  0.4669 -0.4938 -0.0969
31075SOL    HW297911   8.917   1.395   3.281  1.1012  0.5799 -0.8476
31076SOL     OW97912   5.215   1.304   6.383 -0.2119  0.1977 -0.4287
31076SOL    HW197913   5.231   1.388   6.340  0.8413  0.7677  1.0072
31076SOL    HW297914   5.172   1.251   6.316 -0.4184  1.6929 -1.5371
31077SOL     OW97915   2.566   5.157   9.095  0.5274  0.1894 -0.0341
31077SOL    HW197916   2.640   5.184   9.042  0.7439 -0.7793 -0.2432
31077SOL    HW297917   2.602   5.144   9.183  1.0439 -2.0085 -0.4928
31078SOL     OW97918   1.744   4.329   1.904  0.3236  0.5222  0.0474
31078SOL    HW197919   1.681   4.309   1.835 -0.7792  2.0500  0.5663
31078SOL    HW297920   1.825   4.350   1.857  0.4315 -1.2214 -0.6375
31079SOL     OW97921   1.068  10.274   6.368 -0.0377 -0.6805 -0.9485
31079SOL    HW197922   1.146  10.270   6.312  2.1932 -0.7594  1.9379
31079SOL    HW297923   1.079  10.354   6.418 -0.7345 -1.7210  0.9440
31080SOL     OW97924  10.921   0.588   4.313 -0.0854 -0.2778  0.3275
31080SOL    HW197925  10.992   0.647   4.340 -0.1385 -0.7628  1.5753
31080SOL    HW297926  10.934   0.577   4.219  2.4040 -1.4946  0.7320
31081SOL     OW97927   7.163   4.571  11.612 -0.3058 -0.2930  0.1475
31081SOL    HW197928   7.069   4.552  11.620  0.0093 -1.0153  2.7422
31081SOL    HW297929   7.178   4.642  11.674  0.9519 -0.4884  0.0827
31082SOL     OW97930   7.531   6.142   8.893 -0.5332  0.5817  0.3918
31082SOL    HW197931   7.463   6.201   8.926 -1.8679 -1.4412  1.4898
31082SOL    HW297932   7.511   6.057   8.934  2.0960 -0.3286 -0.0254
31083SOL     OW97933   9.089   1.641  10.450 -0.0724  0.2614 -0.6950
31083SOL    HW197934   9.003   1.677  10.471  0.3239  0.3864  0.8816
31083SOL    HW297935   9.085   1.551  10.483  0.6333  0.5076  0.1129
31084SOL     OW97936   2.101   5.080   8.723  0.0667  0.3217 -0.5682
31084SOL    HW197937   2.061   5.091   8.810 -0.9467 -0.9188 -0.8485
31084SOL    HW297938   2.132   5.168   8.700  1.1564  0.5187  1.4112
31085SOL     OW97939  10.512  11.692   9.125 -0.0471 -0.4647  0.2745
31085SOL    HW197940  10.504  11.635   9.048  1.6843  0.2474 -0.4766
31085SOL    HW297941  10.600  11.730   9.118 -1.0248  2.0985  0.9075
31086SOL     OW97942   2.312   8.902   5.495  0.1102 -0.0880  0.2943
31086SOL    HW197943   2.403   8.879   5.478 -0.7282 -2.1510 -2.0201
31086SOL    HW297944   2.269   8.895   5.410 -2.2151  0.9116  1.3020
31087SOL     OW97945   2.248   0.097   1.624  0.3004 -0.1494  0.3749
31087SOL    HW197946   2.179   0.142   1.673 -0.3975 -3.3045  2.5828
31087SOL    HW297947   2.205   0.018   1.590  1.5711  0.4358 -2.8841
31088SOL     OW97948   6.766   3.216   1.465 -0.2452  0.4433  0.3792
31088SOL    HW197949   6.722   3.290   1.422 -0.1702  0.2423 -0.0505
31088SOL    HW297950   6.701   3.181   1.526 -0.5280  0.4204  0.0652
31089SOL     OW97951   1.977  11.201   6.255  0.3092 -0.5674  0.1549
31089SOL    HW197952   1.994  11.282   6.208  0.8875  0.1984  1.6057
31089SOL    HW297953   1.990  11.132   6.190 -0.4883  0.4968 -1.1777
31090SOL     OW97954   4.338   5.786   0.042  0.5180 -0.0793  0.0201
31090SOL    HW197955   4.423   5.771   0.001  0.5014  0.2614 -0.1531
31090SOL    HW297956   4.276   5.785  -0.031  0.4509  0.2475  0.0674
31091SOL     OW97957   3.388   9.887  10.320  0.1788  0.7320  0.4874
31091SOL    HW197958   3.407   9.939  10.242 -3.9615 -0.2485 -1.3992
31091SOL    HW297959   3.416   9.798  10.298 -2.3431  0.1399 -0.6384
31092SOL     OW97960  11.036   4.236   9.534  0.4624 -0.5116 -0.5230
31092SOL    HW197961  10.984   4.162   9.505  0.0229 -0.0326 -0.9793
31092SOL    HW297962  11.086   4.203   9.609 -1.4451 -0.6561  0.7519
31093SOL     OW97963  11.018  10.963   9.921  0.2344  0.0032  0.1533
31093SOL    HW197964  11.043  10.875   9.893 -1.3745 -0.5317  0.3177
31093SOL    HW297965  10.922  10.964   9.918  0.2256  2.1158 -0.9501
31094SOL     OW97966   5.683  10.340  11.217 -0.3131  0.0618  0.5580
31094SOL    HW197967   5.689  10.345  11.313 -3.5753 -0.4635  0.9024
31094SOL    HW297968   5.657  10.249  11.200 -3.4010  1.0171 -0.4388
31095SOL     OW97969   9.099   0.736  11.811  0.0600 -0.5413 -0.4851
31095SOL    HW197970   9.005   0.745  11.825 -0.0340  1.3759 -1.9151
31095SOL    HW297971   9.137   0.733  11.899 -1.4093 -3.0344  0.1344
31096SOL     OW97972   2.131  11.138   7.868 -0.0996  0.0479 -0.9455
31096SOL    HW197973   2.196  11.208   7.863 -0.9779  0.8208 -1.8859
31096SOL    HW297974   2.126  11.118   7.962 -0.4431  1.8530 -0.5344
31097SOL     OW97975  10.276   6.291   8.170 -0.1233  0.4655 -0.1798
31097SOL    HW197976  10.205   6.227   8.178  0.2605  0.0581  0.0049
31097SOL    HW297977  10.248   6.349   8.100 -0.3156 -0.1172 -0.5957
31098SOL     OW97978  11.346   4.491   3.333 -0.2156  0.3185 -0.1578
31098SOL    HW197979  11.287   4.456   3.267 -0.2710 -1.8588  0.9731
31098SOL    HW297980  11.432   4.456   3.310  0.2389  1.5272 -0.4154
31099SOL     OW97981   3.421   4.854   7.151  0.7203 -0.6357 -0.3495
31099SOL    HW197982   3.366   4.777   7.163 -0.1717  0.2412  1.6257
31099SOL    HW297983   3.364   4.928   7.175  2.1226  0.4790 -0.3055
31100SOL     OW97984   1.053   4.410   1.095 -0.1675 -0.4532 -0.1380
31100SOL    HW197985   1.029   4.331   1.143 -0.9409 -1.4189 -2.0445
31100SOL    HW297986   0.982   4.472   1.112 -0.9613 -1.1532 -0.8425
31101SOL     OW97987   9.626   0.559   6.815 -0.2472  0.4255 -0.0201
31101SOL    HW197988   9.623   0.463   6.816 -0.2504  0.4279  0.3667
31101SOL    HW297989   9.536   0.585   6.794 -0.6931  0.3639  1.7217
31102SOL     OW97990  11.504   3.281  10.207 -0.3704  0.8218  0.3858
31102SOL    HW197991  11.536   3.219  10.272  0.1380  0.7315  0.0557
31102SOL    HW297992  11.477   3.226  10.133  2.3909  1.0621 -0.9309
31103SOL     OW97993   3.594   8.636   2.442  0.1197  0.0682  0.3158
31103SOL    HW197994   3.516   8.622   2.496  0.9330 -0.8308  1.3024
31103SOL    HW297995   3.591   8.729   2.419 -1.7038 -0.1411 -0.4294
31104SOL     OW97996   3.355   2.614   6.558 -0.3571 -0.3594 -0.7078
31104SOL    HW197997   3.405   2.533   6.568  1.4803  0.3677 -3.1156
31104SOL    HW297998   3.400   2.677   6.614 -0.1986 -0.3714 -0.8200
31105SOL     OW97999   1.125   6.868   1.287 -0.6547 -0.5140 -0.0592
31105SOL    HW198000   1.202   6.922   1.269 -1.2099 -0.4389 -2.7050
31105SOL    HW298001   1.055   6.931   1.307 -0.0513 -0.5944  2.6838
31106SOL     OW98002   2.423   1.194   5.698 -0.0608 -0.1939  0.1601
31106SOL    HW198003   2.494   1.168   5.639  1.2008  1.0484  1.0551
31106SOL    HW298004   2.401   1.284   5.670 -1.2580 -0.5377 -0.0597
31107SOL     OW98005   0.996   5.868   5.460  0.2900  0.6717 -0.2557
31107SOL    HW198006   0.988   5.776   5.439  0.6917  0.3452  0.9102
31107SOL    HW298007   0.906   5.897   5.477  0.1267  0.5857 -0.9757
31108SOL     OW98008   0.311   5.961  11.253 -0.3667  0.4412 -0.8783
31108SOL    HW198009   0.288   5.869  11.239  0.3349  0.2323 -0.7068
31108SOL    HW298010   0.316   5.999  11.165  1.1667 -0.1445 -1.0619
31109SOL     OW98011   4.804   2.489   9.229  0.3135 -1.0464  0.4113
31109SOL    HW198012   4.817   2.429   9.155 -1.8641  0.5489 -1.4337
31109SOL    HW298013   4.775   2.571   9.188  0.7626  0.5017  2.9704
31110SOL     OW98014  10.470  10.996   7.159 -0.6771 -0.1486  0.5324
31110SOL    HW198015  10.445  11.034   7.075 -0.2065  0.8781  0.8451
31110SOL    HW298016  10.388  10.994   7.209 -0.5207  1.5547  0.9203
31111SOL     OW98017   2.546   3.512  11.825  0.2792  0.5318 -0.2210
31111SOL    HW198018   2.546   3.597  11.868 -0.2365 -0.1223  1.1487
31111SOL    HW298019   2.518   3.529  11.736  0.8333  1.8776 -0.1539
31112SOL     OW98020   1.911   7.151   3.386 -0.2597  0.2738  0.2073
31112SOL    HW198021   1.857   7.214   3.434  1.8749  2.1071  0.3415
31112SOL    HW298022   1.887   7.165   3.294 -2.2777 -1.2321  0.4323
31113SOL     OW98023   2.898   9.607   6.777 -0.1294  0.3139 -0.4169
31113SOL    HW198024   2.862   9.583   6.862 -1.2309  1.4726 -0.5301
31113SOL    HW298025   2.989   9.575   6.780 -0.5332 -0.8198  0.6694
31114SOL     OW98026  11.556   2.866   5.804 -0.2193  0.8111 -0.2695
31114SOL    HW198027  11.561   2.770   5.806 -0.4799  0.8056  0.5788
31114SOL    HW298028  11.642   2.894   5.773 -0.1207  0.3040 -0.4596
31115SOL     OW98029   5.446   0.183   5.112  0.4754 -0.1220  0.2889
31115SOL    HW198030   5.374   0.141   5.065  1.0642 -2.7498  1.5627
31115SOL    HW298031   5.525   0.155   5.064  0.8193  0.7100  0.3485
31116SOL     OW98032   0.214   1.094  11.185 -0.3201 -0.5075 -0.0739
31116SOL    HW198033   0.121   1.100  11.164 -0.5941  1.3613  1.3778
31116SOL    HW298034   0.217   1.094  11.281  1.1978  1.8620 -0.0238
31117SOL     OW98035   1.906  10.494   2.341 -0.7818  0.6913  0.3666
31117SOL    HW198036   1.922  10.404   2.313 -1.3485  0.0482  2.0101
31117SOL    HW298037   1.850  10.530   2.272  0.0353  0.0409 -0.6765
31118SOL     OW98038   1.172   7.246   3.220  0.2956 -0.4021 -0.1007
31118SOL    HW198039   1.121   7.168   3.243  0.3748 -0.5723 -0.4836
31118SOL    HW298040   1.257   7.212   3.192  1.2398 -0.0292  2.1119
31119SOL     OW98041   0.037   5.689   1.451 -0.1507 -0.4626  0.6390
31119SOL    HW198042   0.095   5.738   1.392 -0.7386  1.8205  1.8598
31119SOL    HW298043  -0.045   5.681   1.402 -0.8561  1.9987  1.2794
31120SOL     OW98044   3.328   9.435   9.729  0.0104  0.0093 -0.3093
31120SOL    HW198045   3.288   9.489   9.796  0.6324 -0.9234  0.8401
31120SOL    HW298046   3.388   9.377   9.776 -0.9805 -2.0260 -1.3840
31121SOL     OW98047   6.072   9.147   9.482  0.4767 -0.0611 -0.5224
31121SOL    HW198048   6.087   9.059   9.449  0.8729 -0.9174  1.7216
31121SOL    HW298049   6.108   9.205   9.415  1.0068 -1.6356 -1.6407
31122SOL     OW98050   8.333   4.199   5.758 -0.4206  0.1658 -0.2613
31122SOL    HW198051   8.366   4.113   5.785  0.1655  0.6255  0.5515
31122SOL    HW298052   8.400   4.233   5.699 -0.2978  0.3664 -0.0062
31123SOL     OW98053  10.121   0.877   5.288  0.2165 -0.2593  0.0026
31123SOL    HW198054  10.080   0.835   5.213 -0.2226  1.4978 -0.7812
31123SOL    HW298055  10.065   0.853   5.362  0.0315 -1.1118 -0.4039
31124SOL     OW98056   0.270   4.741   4.837 -0.4192  0.2520  0.4757
31124SOL    HW198057   0.238   4.651   4.826  0.4055 -0.0954  0.7676
31124SOL    HW298058   0.333   4.735   4.909  0.8419  0.7401 -0.5430
31125SOL     OW98059   0.483   0.275   8.479  0.0327  0.3281 -0.1383
31125SOL    HW198060   0.546   0.269   8.407 -0.0988  0.2782 -0.2504
31125SOL    HW298061   0.458   0.368   8.480 -0.3582  0.2317 -0.4985
31126SOL     OW98062   6.977   8.355   5.646 -0.2522 -0.3984  0.1951
31126SOL    HW198063   6.976   8.369   5.551  2.9115  2.6650  0.4323
31126SOL    HW298064   6.996   8.261   5.656  1.9047 -0.3389 -2.2813
31127SOL     OW98065  11.616   0.509   4.154  0.3203 -0.7751  0.1446
31127SOL    HW198066  11.632   0.497   4.248  1.5714 -2.2535 -0.2073
31127SOL    HW298067  11.628   0.603   4.139  1.5508 -0.7275  1.2405
31128SOL     OW98068   4.435   5.151   9.919  0.1265 -0.6719 -0.0189
31128SOL    HW198069   4.507   5.203   9.953  0.7852 -1.8934  0.5391
31128SOL    HW298070   4.370   5.215   9.889 -0.0429  0.5098  2.5493
31129SOL     OW98071   3.715  10.160  10.742 -0.3521 -0.6122  0.3797
31129SOL    HW198072   3.661  10.138  10.667 -1.2412 -0.4604  0.9528
31129SOL    HW298073   3.653  10.165  10.815  0.0444  1.8769  0.6369
31130SOL     OW98074   9.457   2.929   7.180 -0.4226 -0.6827 -0.5807
31130SOL    HW198075   9.494   2.849   7.216  1.6411 -0.5629 -2.2513
31130SOL    HW298076   9.527   2.966   7.125 -1.4485  2.0299 -0.2387
31131SOL     OW98077  10.530  11.054   9.902 -0.4719 -0.2733 -0.0757
31131SOL    HW198078  10.568  11.116   9.839  0.0085  0.7421  1.1742
31131SOL    HW298079  10.449  11.024   9.861 -0.9002  1.4654 -0.5606
31132SOL     OW98080   3.973   1.877   1.149 -0.2009 -0.4579  0.5197
31132SOL    HW198081   4.028   1.812   1.105  0.1972 -0.3134  0.8001
31132SOL    HW298082   3.897   1.826   1.179 -0.4208 -0.5790 -0.2179
31133SOL     OW98083   0.666   9.304   3.997 -0.1988 -0.3867  0.3123
31133SOL    HW198084   0.598   9.251   3.955  1.5431 -0.7014 -2.3424
31133SOL    HW298085   0.664   9.387   3.949  2.0744 -0.8617 -0.7137
31134SOL     OW98086   5.792   7.182   4.841 -0.1409  0.2579  0.4042
31134SOL    HW198087   5.762   7.108   4.894 -0.3042 -0.1569 -0.2574
31134SOL    HW298088   5.732   7.253   4.864 -0.2214  0.0802  0.7613
31135SOL     OW98089   7.465  11.823   6.678 -0.2863 -0.0476  0.1380
31135SOL    HW198090   7.499  11.799   6.592 -1.0464 -2.0108  0.3301
31135SOL    HW298091   7.439  11.914   6.669  0.2339 -0.0265 -1.5170
31136SOL     OW98092   9.040   9.478   5.712  0.1852 -0.1648 -0.2961
31136SOL    HW198093   9.080   9.431   5.786 -0.4011  1.1016  0.8679
31136SOL    HW298094   9.108   9.536   5.681  0.8421 -1.5701 -1.6020
31137SOL     OW98095   7.797   7.327  11.692 -0.0705 -0.1183 -0.1714
31137SOL    HW198096   7.861   7.373  11.746 -0.0340 -2.0144  1.5224
31137SOL    HW298097   7.712   7.362  11.722  0.0225 -0.0576  0.0251
31138SOL     OW98098   2.123   5.213   9.900 -0.0913  0.1181  0.4372
31138SOL    HW198099   2.141   5.285   9.961  0.9028  0.3514 -0.1093
31138SOL    HW298100   2.038   5.180   9.927 -0.6477  1.5968  0.6217
31139SOL     OW98101   8.225   0.115   3.037  0.3212 -0.2289 -0.2831
31139SOL    HW198102   8.247   0.196   2.991  1.7460 -1.4784 -1.9601
31139SOL    HW298103   8.307   0.087   3.077 -0.1910 -0.7604  0.4123
31140SOL     OW98104   1.074   6.771   6.787 -0.3184 -1.0115 -0.0135
31140SOL    HW198105   1.036   6.858   6.793  0.8650 -0.4535 -0.3119
31140SOL    HW298106   1.008   6.713   6.825 -1.1627 -0.0045  0.0874
31141SOL     OW98107  11.235   5.451   3.495 -0.0114 -0.1809 -0.1078
31141SOL    HW198108  11.286   5.471   3.417 -0.4515  2.0770  0.1201
31141SOL    HW298109  11.151   5.420   3.462 -0.7527  2.2147 -0.6249
31142SOL     OW98110  10.863   5.726  11.561 -0.1482  0.2725  0.2930
31142SOL    HW198111  10.859   5.718  11.656  0.9202  0.5895  0.3797
31142SOL    HW298112  10.944   5.775  11.545 -0.1520 -0.0550 -0.7867
31143SOL     OW98113   2.086   6.632   4.341  0.0308  0.4497 -0.5228
31143SOL    HW198114   2.046   6.558   4.296 -0.8707  1.3930 -1.3331
31143SOL    HW298115   2.177   6.607   4.354 -0.9205 -2.1562  2.1607
31144SOL     OW98116   0.553   8.135   7.860 -0.3592  0.0060 -0.3536
31144SOL    HW198117   0.567   8.056   7.912  0.8420 -0.0885 -0.8084
31144SOL    HW298118   0.621   8.133   7.793 -2.5446 -0.4647 -2.6927
31145SOL     OW98119  11.643   0.412  11.159  0.3747  0.2056 -0.1738
31145SOL    HW198120  11.561   0.413  11.209  0.6017  0.3800  0.2039
31145SOL    HW298121  11.647   0.497  11.116  1.5892  1.2790  1.8834
31146SOL     OW98122   6.788   1.920   1.121  0.4059 -0.3923 -0.0345
31146SOL    HW198123   6.725   1.936   1.050  0.2174 -1.9542 -0.2493
31146SOL    HW298124   6.874   1.930   1.079  0.3454  1.5399  0.2119
31147SOL     OW98125   0.884   5.623   2.318  0.0671  0.3753 -0.3496
31147SOL    HW198126   0.976   5.649   2.316  0.0354  0.6434  1.0810
31147SOL    HW298127   0.838   5.696   2.278  0.6347 -0.7596 -3.3489
31148SOL     OW98128  10.170   9.880   9.179  0.5416 -0.6108 -0.0948
31148SOL    HW198129  10.238   9.943   9.203 -1.4609  0.8743  2.1387
31148SOL    HW298130  10.168   9.883   9.084  1.9349  1.1561 -0.1344
31149SOL     OW98131   1.294  11.766   6.858  0.5651 -0.0299  0.3514
31149SOL    HW198132   1.315  11.676   6.831  1.2239  0.0887  0.4640
31149SOL    HW298133   1.261  11.807   6.778 -2.7258 -1.2272  0.9320
31150SOL     OW98134  11.996  10.990  11.215  1.0290  1.0725 -0.1058
31150SOL    HW198135  12.082  10.967  11.249  0.2474 -2.3310  0.0012
31150SOL    HW298136  11.935  10.944  11.273 -0.5482 -1.0673 -3.1713
31151SOL     OW98137   9.722   8.614   3.641  0.5862  0.0713 -0.0102
31151SOL    HW198138   9.765   8.647   3.720  2.1673 -0.8801 -0.4364
31151SOL    HW298139   9.718   8.519   3.654  1.0145 -0.1149 -1.1315
31152SOL     OW98140   2.228   5.397  10.569 -0.3537 -0.1830 -0.5898
31152SOL    HW198141   2.291   5.462  10.538 -1.4424  0.5203 -1.4051
31152SOL    HW298142   2.153   5.448  10.599  0.0905 -0.9151  2.0204
31153SOL     OW98143  11.721   7.529   6.015 -0.8052 -0.3349 -0.0076
31153SOL    HW198144  11.728   7.608   6.069  1.6531 -0.6409  0.2344
31153SOL    HW298145  11.696   7.562   5.928  0.7597  0.8301 -0.0612
31154SOL     OW98146   1.363  10.863   4.364 -0.0616  0.1391  0.2733
31154SOL    HW198147   1.430  10.854   4.433  0.5310  0.2078 -0.2810
31154SOL    HW298148   1.291  10.808   4.394  0.5525 -0.5570  0.5197
31155SOL     OW98149   9.069   8.156  10.386  0.6602  0.5307  0.0634
31155SOL    HW198150   8.993   8.162  10.328 -0.1230  0.9015  1.1081
31155SOL    HW298151   9.127   8.227  10.358 -0.5744  1.9297  0.9465
31156SOL     OW98152  10.552   8.311   6.592  0.3481 -0.2906  0.1939
31156SOL    HW198153  10.467   8.341   6.561  0.4763  0.3289  0.4363
31156SOL    HW298154  10.606   8.389   6.595  0.3468 -0.3101  1.9463
31157SOL     OW98155   1.261   4.471   8.199  0.1297 -0.3902 -0.3503
31157SOL    HW198156   1.186   4.417   8.174 -0.6938  0.3660  0.4208
31157SOL    HW298157   1.312   4.415   8.258 -0.8493 -0.2573  0.6427
31158SOL     OW98158  10.918  11.773   7.527 -0.2410  0.0776 -0.1425
31158SOL    HW198159  10.919  11.841   7.594  0.0829 -0.5497  0.4987
31158SOL    HW298160  11.010  11.752   7.513 -0.3119  0.1528 -0.7381
31159SOL     OW98161  10.036   3.073   7.000  0.0779 -0.1306  0.1074
31159SOL    HW198162  10.026   2.980   7.017 -2.7404 -0.1130 -0.9754
31159SOL    HW298163  10.026   3.115   7.085 -2.1086 -0.6664  0.1501
31160SOL     OW98164   9.816   4.578   7.952  0.5542  0.4912 -0.5767
31160SOL    HW198165   9.800   4.490   7.985  1.1448  0.1364 -1.2177
31160SOL    HW298166   9.797   4.573   7.858 -1.3637  1.5548 -0.3033
31161SOL     OW98167   7.350   4.563   9.000  0.6217  0.1508  0.2745
31161SOL    HW198168   7.356   4.578   9.094  0.0457  1.7859  0.0920
31161SOL    HW298169   7.350   4.468   8.990  0.9259 -0.0435  1.9013
31162SOL     OW98170   8.895   3.589   3.805  0.1414  0.0417  0.2840
31162SOL    HW198171   8.841   3.533   3.861  1.4638 -2.1247 -0.4926
31162SOL    HW298172   8.973   3.608   3.857  1.0292 -1.3525 -0.4722
31163SOL     OW98173   3.654   0.612   5.152 -0.0065 -0.5078  0.6304
31163SOL    HW198174   3.593   0.546   5.185 -0.2146 -1.1576 -0.9742
31163SOL    HW298175   3.740   0.571   5.156 -0.3915 -1.9848 -2.7405
31164SOL     OW98176   1.083   0.232   7.498 -0.1391  0.0272 -0.2992
31164SOL    HW198177   1.065   0.140   7.483 -3.3563  0.3922  0.5194
31164SOL    HW298178   1.120   0.264   7.416  1.4023 -2.0118 -0.4605
31165SOL     OW98179   1.627   5.195   4.083  0.1598  0.2640  0.1364
31165SOL    HW198180   1.539   5.222   4.055 -0.0566 -1.4899 -1.0428
31165SOL    HW298181   1.685   5.260   4.044 -0.4471 -0.0345 -1.3560
31166SOL     OW98182   7.032   8.131   5.245 -0.1300  0.2525 -0.0017
31166SOL    HW198183   7.052   8.154   5.335  1.2100  1.2926 -0.5266
31166SOL    HW298184   7.089   8.187   5.192 -1.7510  0.5666 -1.5440
31167SOL     OW98185   3.556  10.425  10.181 -0.2030 -0.2602 -0.1073
31167SOL    HW198186   3.480  10.367  10.177  0.1143 -0.9049  1.9362
31167SOL    HW298187   3.550  10.466  10.268  1.7276 -0.2566  0.0634
31168SOL     OW98188   9.643  11.616   9.407  0.4442 -0.1600 -0.0445
31168SOL    HW198189   9.694  11.667   9.344  0.1208 -0.1397 -0.2953
31168SOL    HW298190   9.571  11.674   9.432  0.3204 -0.3326  0.0025
31169SOL     OW98191   6.432   3.784   7.938 -0.4951 -0.2151 -0.3258
31169SOL    HW198192   6.431   3.832   8.021  0.9286  1.1490 -1.0468
31169SOL    HW298193   6.524   3.756   7.928 -0.4203  0.4830 -1.8855
31170SOL     OW98194   9.055   1.657   4.685 -0.4850 -0.0894  0.1187
31170SOL    HW198195   9.115   1.583   4.676 -0.0830  0.2331  0.0627
31170SOL    HW298196   8.968   1.620   4.673 -0.3960 -0.7854  1.3861
31171SOL     OW98197  10.139   1.192   0.964  0.0187  0.5625  0.4044
31171SOL    HW198198  10.130   1.125   1.032  1.4003 -1.9844 -1.7016
31171SOL    HW298199  10.051   1.227   0.953 -0.5164  0.0210  2.4564
31172SOL     OW98200   3.188   2.060   3.590  0.0593 -0.4966  0.0990
31172SOL    HW198201   3.156   2.130   3.647  1.1263 -0.5838  0.8357
31172SOL    HW298202   3.112   2.035   3.538 -0.6600  0.3472  0.7124
31173SOL     OW98203   7.396  11.346   5.932  0.6924  0.5879  0.1790
31173SOL    HW198204   7.477  11.295   5.922 -1.3463 -2.8813 -0.0610
31173SOL    HW298205   7.328  11.281   5.949 -2.7666  2.8266 -3.2793
31174SOL     OW98206   2.464   0.719  11.260 -0.4755 -0.1311  0.2204
31174SOL    HW198207   2.446   0.650  11.324  3.0777  0.6710  2.3297
31174SOL    HW298208   2.413   0.794  11.291  1.2966  0.2871  2.3620
31175SOL     OW98209   4.304   1.358   8.292 -0.1572  0.3162  0.1435
31175SOL    HW198210   4.334   1.289   8.233  0.1682 -0.7694  1.5312
31175SOL    HW298211   4.288   1.433   8.234  2.3558  0.0427 -1.0752
31176SOL     OW98212   7.963   5.192  10.236  0.1546  0.1206 -0.6276
31176SOL    HW198213   7.945   5.243  10.315 -0.7883 -0.0745 -0.7034
31176SOL    HW298214   8.057   5.178  10.238  0.0017 -0.9892  1.1778
31177SOL     OW98215   1.369  11.730   0.956  0.2908  0.2676 -0.5226
31177SOL    HW198216   1.434  11.781   0.908  0.6349 -0.3537 -0.7245
31177SOL    HW298217   1.338  11.665   0.893  0.5870 -0.4136  0.0233
31178SOL     OW98218   9.223  11.990   1.431 -0.1578 -0.2328  0.3949
31178SOL    HW198219   9.261  11.968   1.516  0.1880 -2.3420 -0.2361
31178SOL    HW298220   9.136  11.951   1.433 -0.6095  0.7439  0.2048
31179SOL     OW98221   4.554   2.812   1.801  0.1422  0.0963 -0.5127
31179SOL    HW198222   4.530   2.875   1.870 -0.3215  0.2098 -0.7730
31179SOL    HW298223   4.625   2.855   1.754  0.9372 -0.2758  0.3183
31180SOL     OW98224   1.412   4.311  10.521 -0.2156 -0.0643 -0.2249
31180SOL    HW198225   1.355   4.302  10.445  1.0270  0.3285 -1.2266
31180SOL    HW298226   1.433   4.220  10.546 -1.4805 -0.2187  0.3344
31181SOL     OW98227   1.459   6.063   8.731  0.6334  0.3594 -0.4011
31181SOL    HW198228   1.502   6.082   8.647  1.1993 -0.4709 -0.3102
31181SOL    HW298229   1.530   6.066   8.795 -0.0798  2.9346  0.3957
31182SOL     OW98230   6.025   9.394   5.605 -0.2116  0.4530 -0.2184
31182SOL    HW198231   6.087   9.450   5.558 -0.4008  0.6372 -0.2504
31182SOL    HW298232   5.939   9.427   5.579 -0.3457 -0.5730 -1.1115
31183SOL     OW98233   4.512   7.529   2.867  0.0817 -0.0964 -0.0542
31183SOL    HW198234   4.448   7.574   2.922  0.7555 -0.4635  1.0730
31183SOL    HW298235   4.536   7.450   2.917  1.7711  0.2868 -0.1745
31184SOL     OW98236   8.095   0.295   5.868 -0.0639 -0.2646 -0.6909
31184SOL    HW198237   8.028   0.272   5.932  0.5989  1.3625  0.6633
31184SOL    HW298238   8.149   0.361   5.912  2.9786 -2.0884 -1.3555
31185SOL     OW98239   6.894   2.092   0.611  1.0956 -0.3584 -0.2945
31185SOL    HW198240   6.876   2.119   0.521  0.3441  0.7248  0.1578
31185SOL    HW298241   6.901   1.997   0.607  0.4571 -0.3717 -1.3884
31186SOL     OW98242  10.455   1.045   7.267  0.6645 -0.4664 -0.3493
31186SOL    HW198243  10.517   0.972   7.258 -1.1820 -2.1583  0.0468
31186SOL    HW298244  10.470   1.077   7.356  0.6339 -1.1772 -0.0848
31187SOL     OW98245  11.649   0.718   1.391  0.4146 -0.2503 -0.0359
31187SOL    HW198246  11.579   0.655   1.371 -0.1610  0.5012 -0.4551
31187SOL    HW298247  11.701   0.675   1.459 -1.1556 -0.3470  1.1702
31188SOL     OW98248   7.179   3.687   5.810  0.2327  0.1269  0.1127
31188SOL    HW198249   7.119   3.751   5.773  0.3176 -0.7337 -1.6332
31188SOL    HW298250   7.254   3.687   5.751 -0.0443 -1.9852 -0.3424
31189SOL     OW98251   4.044   1.630   2.019  0.5085  0.2243  0.1900
31189SOL    HW198252   3.965   1.579   2.035  0.7035 -1.6435 -3.5709
31189SOL    HW298253   4.012   1.712   1.981  0.3371  1.0417  2.0255
31190SOL     OW98254  11.830   4.354   7.581 -0.2794 -0.0414  0.2644
31190SOL    HW198255  11.917   4.328   7.612 -0.6583 -0.1050  1.3143
31190SOL    HW298256  11.816   4.301   7.503  0.4813 -0.2938  0.2919
31191SOL     OW98257   8.781   0.258  11.833 -0.8527  0.6772  0.3696
31191SOL    HW198258   8.784   0.166  11.807 -1.7625  0.6385  0.3922
31191SOL    HW298259   8.842   0.264  11.907  0.5037  0.4582 -0.7000
31192SOL     OW98260   0.480   0.297   6.042 -0.2733 -0.5852  0.1271
31192SOL    HW198261   0.575   0.307   6.034 -0.2610 -1.4659 -0.9846
31192SOL    HW298262   0.454   0.365   6.104  0.7386  1.5142 -1.6062
31193SOL     OW98263   6.483   3.019   4.431  0.5800  0.8932 -0.2052
31193SOL    HW198264   6.503   2.927   4.445  1.2850  0.8107 -1.5596
31193SOL    HW298265   6.540   3.065   4.493  2.4017  0.4965 -1.4839
31194SOL     OW98266  11.690   7.165   1.813 -0.1610 -0.1922 -0.3408
31194SOL    HW198267  11.645   7.082   1.800 -0.2782 -0.0698 -0.7587
31194SOL    HW298268  11.693   7.177   1.907 -0.5660 -0.4425 -0.2930
31195SOL     OW98269  11.561   3.377  11.345  0.6465 -0.2477  0.4999
31195SOL    HW198270  11.647   3.352  11.380  0.8383 -0.1490  0.1139
31195SOL    HW298271  11.520   3.295  11.320  0.8912 -0.2553  0.1023
31196SOL     OW98272   2.908   6.159   7.629  0.2703  0.4229 -0.1046
31196SOL    HW198273   3.003   6.161   7.645  1.1109  1.0589 -4.1955
31196SOL    HW298274   2.890   6.068   7.606  0.4266  0.7896 -1.7517
31197SOL     OW98275   9.273   1.458  10.049  0.2777  0.1108  0.0107
31197SOL    HW198276   9.331   1.446   9.973  2.4270 -1.9747  1.8244
31197SOL    HW298277   9.321   1.516  10.108  0.7631 -1.8678  1.6737
31198SOL     OW98278   5.199   4.765   3.024  0.1406 -0.1384 -0.1440
31198SOL    HW198279   5.288   4.749   3.056  0.9165  0.5840 -1.8099
31198SOL    HW298280   5.191   4.861   3.024 -1.5454 -0.1819  2.2268
31199SOL     OW98281   1.652  10.428   5.325 -0.3467 -0.2187  0.1036
31199SOL    HW198282   1.656  10.434   5.229 -1.3809  1.6071  0.1107
31199SOL    HW298283   1.694  10.345   5.346  0.7679 -0.2186 -1.8650
31200SOL     OW98284   8.732   1.895   9.958 -0.2256  0.1363  0.3913
31200SOL    HW198285   8.750   1.833   9.888 -1.9197  1.4505 -1.3058
31200SOL    HW298286   8.672   1.849  10.017 -0.2267 -0.3701 -0.0027
31201SOL     OW98287   1.546   3.306  10.882  0.7755  0.5255 -0.1003
31201SOL    HW198288   1.582   3.268  10.801  0.3880 -1.7802  0.7383
31201SOL    HW298289   1.454   3.323  10.862  0.6109 -0.3022 -0.0796
31202SOL     OW98290  10.583   8.911   1.734  0.0045 -0.0931 -0.1093
31202SOL    HW198291  10.530   8.890   1.657 -1.6143  1.2787  0.5802
31202SOL    HW298292  10.524   8.897   1.809  0.7622  0.9661  0.7229
31203SOL     OW98293   6.981  11.852  10.474  0.1300  0.2048  0.4690
31203SOL    HW198294   6.968  11.757  10.471  2.2679 -0.1051 -0.0605
31203SOL    HW298295   6.923  11.886  10.406 -3.0706 -0.3097  2.6601
31204SOL     OW98296   3.091   4.665   4.026  0.1996 -0.2236 -0.7189
31204SOL    HW198297   3.172   4.668   3.975  1.0676  0.1889  0.6215
31204SOL    HW298298   3.043   4.743   3.999  2.3658  2.1918  1.6906
31205SOL     OW98299   5.741  11.954   6.026  0.0832 -0.4032  0.4592
31205SOL    HW198300   5.721  11.860   6.030  1.4006 -0.7090  0.6862
31205SOL    HW298301   5.837  11.957   6.031  0.0319  0.9851  0.9686
31206SOL     OW98302  11.507   6.964   5.032 -0.1057  0.0578 -0.4793
31206SOL    HW198303  11.555   7.000   4.958  0.2017  0.8820  0.1021
31206SOL    HW298304  11.517   7.030   5.101 -2.0265  0.2398 -0.3273
31207SOL     OW98305   3.738  11.251   8.916  0.3904  0.1775  0.2387
31207SOL    HW198306   3.829  11.235   8.939  0.9066  1.3807 -0.8612
31207SOL    HW298307   3.742  11.308   8.839 -1.2894  0.1585  0.1000
31208SOL     OW98308   4.330  11.076  10.507  0.0941 -0.8447  0.0191
31208SOL    HW198309   4.278  11.154  10.527  0.3611 -0.8204  0.6513
31208SOL    HW298310   4.289  11.039  10.429 -0.4227 -0.4229  0.0833
31209SOL     OW98311   7.241   0.372   7.583 -0.1653  0.0365  0.1394
31209SOL    HW198312   7.199   0.458   7.576  0.1207  0.2332  0.7655
31209SOL    HW298313   7.313   0.386   7.645 -1.2744 -1.0974  1.7567
31210SOL     OW98314   5.045   0.404   8.168  0.0719  0.5431  0.1700
31210SOL    HW198315   5.122   0.420   8.113 -0.3349  0.4956 -0.4258
31210SOL    HW298316   5.078   0.353   8.241  0.3306 -0.8303 -0.8709
31211SOL     OW98317   9.188  10.397   1.157  0.1039 -0.4189  0.6264
31211SOL    HW198318   9.215  10.359   1.074 -0.4764  2.9532 -1.3162
31211SOL    HW298319   9.097  10.369   1.168  0.4412 -1.5742  0.6106
31212SOL     OW98320   4.230  10.543   1.016  0.4509 -0.6174 -0.3403
31212SOL    HW198321   4.193  10.603   0.952  4.1403  0.2176 -1.9297
31212SOL    HW298322   4.291  10.596   1.067  2.9599 -2.6444 -1.0137
31213SOL     OW98323  11.615   5.408   0.007  0.1939 -0.4673 -0.0812
31213SOL    HW198324  11.599   5.413  -0.087 -0.7350  0.8587  0.1268
31213SOL    HW298325  11.697   5.455   0.020  0.3682 -0.7268 -0.2363
31214SOL     OW98326   2.785   6.400   2.850 -0.0443  0.6488 -0.1553
31214SOL    HW198327   2.720   6.415   2.919  0.6016  3.3130 -0.0170
31214SOL    HW298328   2.792   6.305   2.844 -1.5946  0.3186  2.0557
31215SOL     OW98329   4.058   4.074   4.270  0.4974 -0.2532 -0.2593
31215SOL    HW198330   4.094   3.991   4.301  0.3721  0.3004  1.4579
31215SOL    HW298331   4.132   4.118   4.227  0.1712 -1.9025 -2.7020
31216SOL     OW98332  10.886  10.273   9.752 -0.4261 -0.3487 -0.3846
31216SOL    HW198333  10.913  10.364   9.741  1.3309 -0.8929 -1.0201
31216SOL    HW298334  10.883  10.238   9.664 -0.8279 -0.9808 -0.1253
31217SOL     OW98335   1.992   6.212  11.565 -0.0765  0.1094  0.0261
31217SOL    HW198336   1.924   6.197  11.632 -0.3477  0.3876 -0.1890
31217SOL    HW298337   2.074   6.201  11.613 -0.2471  1.5000  0.6969
31218SOL     OW98338   8.626   8.470  10.136 -0.5378  0.1716  0.1708
31218SOL    HW198339   8.619   8.486  10.042 -0.8847 -0.4569  0.0822
31218SOL    HW298340   8.583   8.385  10.149  1.8075 -1.0340  0.5191
31219SOL     OW98341   5.331   6.035   6.397 -0.0838  0.4183 -0.4680
31219SOL    HW198342   5.274   6.054   6.323 -1.9267 -0.5376  0.6353
31219SOL    HW298343   5.361   6.121   6.427 -4.1303  1.4342  1.3008
31220SOL     OW98344   0.980   7.531   6.505  0.1977  0.3501  0.0614
31220SOL    HW198345   1.002   7.448   6.462 -2.1111 -0.9634  1.2392
31220SOL    HW298346   0.938   7.583   6.436  1.6564  0.6060 -0.6840
31221SOL     OW98347  11.470  10.677   7.874 -0.3496 -0.1406  0.4016
31221SOL    HW198348  11.432  10.761   7.899 -0.4075 -0.6329  2.0754
31221SOL    HW298349  11.563  10.696   7.858 -0.6541  0.4941 -0.7395
31222SOL     OW98350   4.852  11.652   3.651  0.4120  0.0532  0.0826
31222SOL    HW198351   4.909  11.586   3.690  3.1035  1.9389 -0.3575
31222SOL    HW298352   4.821  11.703   3.726  1.9335  0.9301  0.1516
31223SOL     OW98353   1.954   5.596   0.593 -0.4402 -0.1740 -0.4700
31223SOL    HW198354   1.869   5.553   0.594 -0.8021  0.5257  0.0687
31223SOL    HW298355   2.014   5.531   0.555 -1.0937 -0.8845 -0.3048
31224SOL     OW98356   0.958  10.067   6.507  0.4100  1.0477  0.2084
31224SOL    HW198357   1.004  10.143   6.472 -0.6754  0.6460 -2.3270
31224SOL    HW298358   0.866  10.084   6.488  0.2949 -1.7857 -2.5113
31225SOL     OW98359   0.325   2.876   7.918  0.2385 -0.1744 -0.2036
31225SOL    HW198360   0.245   2.836   7.951  0.5246 -1.1686 -0.6541
31225SOL    HW298361   0.307   2.894   7.826  1.2225 -2.4672 -0.9248
31226SOL     OW98362   7.989   6.364   8.881 -0.0293 -0.2918 -0.0663
31226SOL    HW198363   7.920   6.368   8.815 -0.0596 -1.8930 -0.1712
31226SOL    HW298364   8.062   6.321   8.837  2.0158  3.3701 -0.7076
31227SOL     OW98365   1.127   3.387   4.897 -0.1019  0.4404  0.2841
31227SOL    HW198366   1.105   3.322   4.831  0.6326  0.5199 -0.0474
31227SOL    HW298367   1.072   3.463   4.876 -2.6701 -0.8167  2.0296
31228SOL     OW98368  10.943   8.156   7.000 -0.1809  0.1027 -0.3970
31228SOL    HW198369  10.893   8.182   6.923  1.0564 -0.8493 -1.5821
31228SOL    HW298370  11.034   8.153   6.969  0.2126 -1.4416  0.7686
31229SOL     OW98371   0.631   2.408   8.169  0.4186  0.2208  0.2019
31229SOL    HW198372   0.563   2.442   8.228  1.8740  1.8820  0.9970
31229SOL    HW298373   0.712   2.418   8.218  1.3193 -1.3023 -0.9124
31230SOL     OW98374   3.665   0.170   6.665  0.0947 -0.4415 -0.8161
31230SOL    HW198375   3.650   0.076   6.653 -2.1909 -0.4107  1.0985
31230SOL    HW298376   3.666   0.182   6.760  1.0728  1.4149 -1.0130
31231SOL     OW98377   1.383   8.745   8.974 -1.0074  0.1438  0.6504
31231SOL    HW198378   1.321   8.755   8.902 -0.3938  0.5928  0.1739
31231SOL    HW298379   1.353   8.668   9.021 -1.9888  0.4077  0.4879
31232SOL     OW98380   2.186   4.369   8.700  0.5160  0.4898 -1.2194
31232SOL    HW198381   2.119   4.322   8.651 -1.3542  1.0502  0.6257
31232SOL    HW298382   2.159   4.461   8.696  1.8038  0.8852 -1.3306
31233SOL     OW98383   4.634   8.500  10.436  0.3141  0.5796  0.1602
31233SOL    HW198384   4.690   8.516  10.512 -0.0722 -1.4608  0.9454
31233SOL    HW298385   4.692   8.459  10.371  1.0611  3.8241 -1.4305
31234SOL     OW98386  11.071   2.425   2.793 -0.1544 -0.0002 -0.4507
31234SOL    HW198387  11.152   2.419   2.843  0.0429 -2.1885 -0.9251
31234SOL    HW298388  11.096   2.459   2.708  0.4274 -1.4492 -0.8741
31235SOL     OW98389   7.200  11.180   6.013  0.5285 -0.1196  0.9607
31235SOL    HW198390   7.124  11.138   6.054 -0.2255  0.6386  0.3542
31235SOL    HW298391   7.272  11.118   6.029 -0.1762 -0.7880  1.6526
31236SOL     OW98392   5.514   4.539   1.020  0.1135  0.3140 -0.2794
31236SOL    HW198393   5.540   4.484   1.093 -0.7161 -1.8275 -1.5194
31236SOL    HW298394   5.419   4.539   1.022  0.0119  3.5452  0.9320
31237SOL     OW98395  11.910   8.342   6.881  0.3995  0.2896  0.0621
31237SOL    HW198396  11.919   8.400   6.805 -0.6957 -0.7242 -0.8757
31237SOL    HW298397  11.973   8.376   6.944  1.5105  1.0267 -1.3750
31238SOL     OW98398   3.161  11.681   5.294 -0.6492 -0.3297 -0.2128
31238SOL    HW198399   3.066  11.675   5.283 -1.3652 -0.0987  3.9191
31238SOL    HW298400   3.178  11.774   5.307 -0.2908 -0.5528  1.1479
31239SOL     OW98401   2.191   6.007   7.198  0.2870 -0.0370  0.1552
31239SOL    HW198402   2.280   6.034   7.220 -0.3566  2.0874  0.3018
31239SOL    HW298403   2.136   6.047   7.265 -0.7504 -2.0655  0.6143
31240SOL     OW98404   3.248   7.506   4.026  0.0929  0.1546  0.0707
31240SOL    HW198405   3.213   7.563   3.958 -0.2956 -0.7757 -0.5286
31240SOL    HW298406   3.267   7.565   4.100  0.0073  1.0907 -0.6400
31241SOL     OW98407   0.735   4.734   1.040  1.1331  0.3287 -0.1244
31241SOL    HW198408   0.778   4.672   0.981  2.4956  1.4336 -0.3425
31241SOL    HW298409   0.724   4.813   0.988  0.6563  0.7219  0.5534
31242SOL     OW98410   3.908   4.159   4.489 -0.0605 -0.0172 -0.4277
31242SOL    HW198411   3.947   4.108   4.560 -1.0456  0.1272  0.2396
31242SOL    HW298412   3.949   4.125   4.410  0.8646 -0.3683  0.1885
31243SOL     OW98413   3.799  11.222   7.007  0.4690 -0.0959  0.5731
31243SOL    HW198414   3.847  11.211   7.089 -1.4817 -2.1149  1.5487
31243SOL    HW298415   3.834  11.155   6.948  0.9943  0.5162  0.1780
31244SOL     OW98416   5.407   3.156  10.178 -0.6096  0.9087  0.2585
31244SOL    HW198417   5.486   3.168  10.229  1.0371 -3.2630 -0.9006
31244SOL    HW298418   5.336   3.156  10.242  0.8770  0.0975  1.9682
31245SOL     OW98419   9.970   2.622   2.646  0.4748 -0.2053  0.3543
31245SOL    HW198420   9.895   2.673   2.615  1.7296  1.0265 -0.8195
31245SOL    HW298421   9.946   2.594   2.734 -1.1166  0.6350  0.2202
31246SOL     OW98422  10.688   4.264   1.317  0.5731 -0.0151 -0.0201
31246SOL    HW198423  10.636   4.340   1.345 -0.0938 -0.7855  0.8671
31246SOL    HW298424  10.765   4.266   1.375  2.0092  1.5730 -1.8312
31247SOL     OW98425   3.357  11.633  11.685 -0.1712  0.1373 -0.1297
31247SOL    HW198426   3.313  11.565  11.735 -0.5633  2.0978  2.3740
31247SOL    HW298427   3.448  11.604  11.681 -0.1950 -0.2332  1.4849
31248SOL     OW98428  11.551   5.012   5.889  0.2143 -0.1477 -0.3515
31248SOL    HW198429  11.462   5.043   5.873 -0.6640 -1.9034  0.7837
31248SOL    HW298430  11.601   5.091   5.908 -1.3738  0.7710  0.1829
31249SOL     OW98431   1.232  11.797  11.490 -0.2420  0.1793  0.2214
31249SOL    HW198432   1.147  11.753  11.488  0.1732 -0.6289 -0.1179
31249SOL    HW298433   1.273  11.766  11.571  0.1641 -0.2923 -0.1579
31250SOL     OW98434   9.070   6.193   1.466 -1.0167 -0.0579 -0.0078
31250SOL    HW198435   8.992   6.245   1.485 -0.8817  0.4029 -0.6577
31250SOL    HW298436   9.139   6.231   1.519 -0.6351  1.2285 -1.3484
31251SOL     OW98437   0.465   6.336   6.275  0.3667  0.4210  0.0842
31251SOL    HW198438   0.551   6.299   6.293  0.4517  1.0262  1.0251
31251SOL    HW298439   0.449   6.396   6.349 -1.4387 -0.6644  0.6384
31252SOL     OW98440   2.917   7.672   2.654  0.3586  0.0554  0.1646
31252SOL    HW198441   2.841   7.669   2.595  1.0510  0.5940 -0.7914
31252SOL    HW298442   2.991   7.688   2.595  1.7107 -3.6377  0.6262
31253SOL     OW98443   7.090   7.077   3.548  0.2735  0.1883  0.4019
31253SOL    HW198444   7.167   7.132   3.537  0.6942 -0.5359 -0.4246
31253SOL    HW298445   7.035   7.124   3.611  1.7794  0.2887  1.6642
31254SOL     OW98446   0.558   0.880   1.959  0.4203  0.5633 -0.5569
31254SOL    HW198447   0.523   0.960   1.998 -0.3506  0.3270 -0.7426
31254SOL    HW298448   0.497   0.812   1.986  1.4142 -0.0799  0.1224
31255SOL     OW98449   3.764   7.067   4.848  0.2045  0.3094 -0.3462
31255SOL    HW198450   3.672   7.095   4.842  0.1468  0.2094  0.0194
31255SOL    HW298451   3.763   6.996   4.913  0.7323  1.1945  0.6596
31256SOL     OW98452  10.625  10.481   2.162  0.1500  0.1715 -0.0160
31256SOL    HW198453  10.620  10.526   2.247  0.2542  0.2274 -0.0395
31256SOL    HW298454  10.536  10.449   2.147  0.0305  0.5351 -0.0907
31257SOL     OW98455   9.825   3.303   9.099 -0.2235  0.1105  0.1313
31257SOL    HW198456   9.856   3.373   9.041 -0.9238 -0.0976 -0.5048
31257SOL    HW298457   9.894   3.294   9.165 -0.1693  1.4826  0.2954
31258SOL     OW98458   3.709   5.595   4.266  0.2451 -0.4695 -0.0212
31258SOL    HW198459   3.663   5.632   4.341 -1.2891 -1.3268 -0.5000
31258SOL    HW298460   3.760   5.522   4.301 -3.1627 -3.1578 -0.1849
31259SOL     OW98461   9.775   6.263   3.158  0.6890 -0.4555 -0.0642
31259SOL    HW198462   9.790   6.186   3.213 -0.9448 -1.0104 -0.3528
31259SOL    HW298463   9.681   6.263   3.141  0.3831  2.3721  1.0558
31260SOL     OW98464   3.628   0.198   5.089  0.4941 -0.2579  0.3349
31260SOL    HW198465   3.627   0.129   5.155 -0.8233  0.8656  1.5557
31260SOL    HW298466   3.563   0.261   5.120  0.9442  1.0411 -1.2632
31261SOL     OW98467   2.660   9.047   9.197 -0.4496 -0.4035 -0.1775
31261SOL    HW198468   2.631   8.968   9.151  1.3558 -0.9697 -0.3935
31261SOL    HW298469   2.706   9.098   9.130 -2.2807  1.2729 -0.2504
31262SOL     OW98470   5.037   9.758   9.607 -0.1613 -0.7001 -0.3587
31262SOL    HW198471   5.054   9.755   9.513  0.3069 -1.1719 -0.2665
31262SOL    HW298472   5.123   9.774   9.646 -0.5660  0.9538 -0.0775
31263SOL     OW98473   3.357   1.099   4.691  0.3195 -0.3514  0.4579
31263SOL    HW198474   3.358   1.178   4.636 -0.1279 -0.2345  0.6158
31263SOL    HW298475   3.349   1.133   4.781 -3.7290 -0.6156  0.3761
31264SOL     OW98476   8.905   3.199   8.388 -0.0457  0.2901 -0.1706
31264SOL    HW198477   8.824   3.215   8.341 -0.2928  1.0860  0.4931
31264SOL    HW298478   8.937   3.116   8.355 -0.1019  0.9218 -1.8863
31265SOL     OW98479   8.335   4.291   8.038 -0.2260  0.1171  0.2153
31265SOL    HW198480   8.278   4.368   8.041 -1.2981 -0.5955 -0.6875
31265SOL    HW298481   8.311   4.241   8.116  0.1451  0.4601  0.5570
31266SOL     OW98482  10.108   8.534   2.668 -0.3109  0.6579  0.2386
31266SOL    HW198483  10.090   8.626   2.647 -0.0918  0.2051 -2.2101
31266SOL    HW298484  10.167   8.505   2.599  1.5524 -0.7402  2.2684
31267SOL     OW98485   8.129   8.795   3.283 -0.0966 -1.0946  0.2207
31267SOL    HW198486   8.149   8.872   3.230 -0.9862 -2.2552 -1.9667
31267SOL    HW298487   8.074   8.828   3.354  0.5547  0.4472  0.0334
31268SOL     OW98488   3.314   9.621   6.515  0.0315 -0.3728  0.1383
31268SOL    HW198489   3.402   9.660   6.520  0.2036 -0.4173 -1.8353
31268SOL    HW298490   3.260   9.689   6.474 -0.8588 -0.3905  1.2367
31269SOL     OW98491   2.244   2.681   5.295 -0.0279 -0.0219  0.1219
31269SOL    HW198492   2.292   2.613   5.247  1.0311  0.3531  0.6323
31269SOL    HW298493   2.283   2.681   5.382 -0.8260  0.4396  0.4925
31270SOL     OW98494   5.693   0.172  10.989 -0.2122  0.7444 -0.2520
31270SOL    HW198495   5.774   0.121  10.981 -0.4060 -0.5829  3.8830
31270SOL    HW298496   5.632   0.128  10.930  1.0860 -0.4410 -0.7874
31271SOL     OW98497   6.889   0.228   3.137  0.4318  0.3588 -0.6697
31271SOL    HW198498   6.842   0.188   3.064  1.3126 -2.3707  0.1190
31271SOL    HW298499   6.839   0.202   3.214  1.3562  0.2503 -0.0841
31272SOL     OW98500   0.764   1.720   8.292 -0.0665  0.1550 -0.5146
31272SOL    HW198501   0.819   1.679   8.225 -0.5698 -1.0993 -0.2017
31272SOL    HW298502   0.724   1.795   8.248 -1.6433 -1.5321 -2.1874
31273SOL     OW98503   7.615   1.131   4.981 -0.4835 -0.0097 -0.9290
31273SOL    HW198504   7.700   1.152   5.019 -1.6394  0.2235  1.7745
31273SOL    HW298505   7.618   1.036   4.966 -0.3639 -0.3967  1.1285
31274SOL     OW98506  10.317   4.133   8.833 -0.6313  0.1731 -0.0546
31274SOL    HW198507  10.317   4.175   8.747  0.5129  0.0785 -0.1077
31274SOL    HW298508  10.230   4.152   8.868 -1.4639 -0.5811 -1.6044
31275SOL     OW98509   4.701   4.446   5.307  0.0927  0.5625  0.3955
31275SOL    HW198510   4.745   4.377   5.256 -0.4688  1.4475 -1.3800
31275SOL    HW298511   4.610   4.416   5.314 -0.0617  0.9030 -0.0427
31276SOL     OW98512   2.745   3.866   8.392 -0.3648  0.3787 -0.0449
31276SOL    HW198513   2.735   3.830   8.480 -2.9107  1.7664  0.3309
31276SOL    HW298514   2.829   3.913   8.394 -0.0295 -0.2490  1.3777
31277SOL     OW98515   3.956   0.722   3.906  0.2376  0.0873  1.1249
31277SOL    HW198516   3.925   0.813   3.900 -1.1077 -0.4377 -1.8041
31277SOL    HW298517   3.914   0.688   3.985 -0.4408  1.6078  1.4614
31278SOL     OW98518   8.659   4.378   6.344 -0.0912  0.3418  0.5610
31278SOL    HW198519   8.579   4.330   6.327  0.7062 -1.2137  0.9759
31278SOL    HW298520   8.709   4.373   6.263 -0.9907  2.6199 -0.2185
31279SOL     OW98521   4.766   5.178   2.811 -0.3286 -0.1516  0.3559
31279SOL    HW198522   4.755   5.197   2.718 -1.5411 -1.1807  0.2605
31279SOL    HW298523   4.831   5.108   2.813 -1.7885 -1.5596  0.1036
31280SOL     OW98524   3.626   7.623   9.886 -0.2143  0.1208  0.4861
31280SOL    HW198525   3.548   7.619   9.941 -1.5687 -2.3700 -1.4120
31280SOL    HW298526   3.687   7.562   9.927 -1.1785 -1.6447 -0.5702
31281SOL     OW98527   0.116   6.429   6.262 -0.2176  0.2600  0.4243
31281SOL    HW198528   0.025   6.455   6.248 -0.3967  0.9349  2.5150
31281SOL    HW298529   0.150   6.493   6.324  0.9438 -1.4056  1.5833
31282SOL     OW98530  11.686   7.316   5.342  0.3112 -0.0649  0.0516
31282SOL    HW198531  11.726   7.253   5.402  1.1267 -0.1681 -0.5865
31282SOL    HW298532  11.724   7.401   5.369  0.2647 -0.0374  0.0302
31283SOL     OW98533   6.404   7.712   6.580  0.3313 -0.0553 -0.1551
31283SOL    HW198534   6.444   7.778   6.523  1.5641 -0.0888  0.6420
31283SOL    HW298535   6.429   7.629   6.540 -0.3361 -0.0611 -0.5705
31284SOL     OW98536   6.397   2.367   7.500  0.0205 -0.0621  0.5554
31284SOL    HW198537   6.375   2.327   7.585  0.1715 -1.3418  0.0133
31284SOL    HW298538   6.423   2.293   7.445  0.7752  0.8575 -0.3508
31285SOL     OW98539  11.274   3.471   6.512 -0.1584  0.1296  0.2354
31285SOL    HW198540  11.229   3.467   6.596  0.1877 -0.1963  0.4104
31285SOL    HW298541  11.348   3.411   6.522  0.1074  0.3843 -0.1684
31286SOL     OW98542   2.879   2.855   8.501 -0.2998  0.2857 -0.2463
31286SOL    HW198543   2.974   2.844   8.502 -0.0274  2.2964  0.0431
31286SOL    HW298544   2.866   2.950   8.509 -2.3428 -0.0313  0.7525
31287SOL     OW98545   4.700   2.449   9.496 -0.3573 -0.1681 -0.7682
31287SOL    HW198546   4.706   2.436   9.401 -1.9487 -0.7862 -0.8153
31287SOL    HW298547   4.683   2.542   9.507 -2.5451 -0.4523 -1.2715
31288SOL     OW98548   7.927   0.438   7.317  0.3059  0.1400 -0.6592
31288SOL    HW198549   7.900   0.486   7.396  0.5144 -0.4178 -0.2435
31288SOL    HW298550   7.859   0.459   7.253 -2.0985 -2.4852  0.8383
31289SOL     OW98551   7.897   7.251   4.318  0.4657 -0.1532  0.0381
31289SOL    HW198552   7.991   7.245   4.303  0.4944 -1.7649  0.6965
31289SOL    HW298553   7.858   7.247   4.230  0.9626 -0.7380 -0.1588
31290SOL     OW98554   7.251   0.550  11.885  0.1778  0.2676 -0.4803
31290SOL    HW198555   7.193   0.475  11.873 -0.2605  0.4936  0.2063
31290SOL    HW298556   7.193   0.622  11.908  0.6603  0.6661 -0.4952
31291SOL     OW98557   8.132   6.342   3.457 -0.1483 -0.1433  0.5978
31291SOL    HW198558   8.153   6.257   3.494 -1.5667 -0.8043 -0.0591
31291SOL    HW298559   8.077   6.384   3.522  0.2579  0.1435  0.7640
31292SOL     OW98560  11.620   3.828   5.998  0.1101 -0.1778 -0.6740
31292SOL    HW198561  11.629   3.839   6.093 -1.3717 -0.2166 -0.5002
31292SOL    HW298562  11.531   3.858   5.979  0.8339  1.1046 -2.2746
31293SOL     OW98563   2.153   3.195   7.277  0.0063 -0.1384 -0.7146
31293SOL    HW198564   2.213   3.150   7.336 -2.8042 -0.3295  2.2823
31293SOL    HW298565   2.209   3.253   7.225  2.6879  0.8012  2.8436
31294SOL     OW98566   8.913  10.684   1.782  0.0082 -0.4692  0.4109
31294SOL    HW198567   8.977  10.613   1.788 -0.8981 -1.2994  0.5124
31294SOL    HW298568   8.947  10.752   1.841  1.2954 -0.4722 -0.2985
31295SOL     OW98569   8.528   4.954  10.871  0.2415 -0.0319 -0.5181
31295SOL    HW198570   8.524   4.860  10.853 -1.6555  0.3304 -2.4065
31295SOL    HW298571   8.466   4.968  10.943 -0.4014 -0.0874 -1.0521
31296SOL     OW98572   4.327   3.990   7.531 -0.1712 -0.0872 -0.5539
31296SOL    HW198573   4.375   4.012   7.611 -2.0774 -1.3029  1.0114
31296SOL    HW298574   4.249   4.045   7.534 -1.2253 -1.5137 -0.5138
31297SOL     OW98575   5.226   5.456   2.938  0.6300 -0.0737 -0.1570
31297SOL    HW198576   5.236   5.409   2.855  0.9381  0.8634 -0.6664
31297SOL    HW298577   5.132   5.462   2.951  0.5859 -0.5449 -0.2565
31298SOL     OW98578   1.648   8.933  10.485  0.0912 -0.4608 -0.2606
31298SOL    HW198579   1.556   8.911  10.477  0.0740 -0.2998 -0.5026
31298SOL    HW298580   1.687   8.905  10.402  0.4922 -1.6400  0.2991
31299SOL     OW98581  11.310  10.084   6.411  0.1532 -0.4685 -0.0922
31299SOL    HW198582  11.402  10.092   6.386  0.2031 -1.3313 -0.2265
31299SOL    HW298583  11.272  10.168   6.387  0.8329 -0.2259 -0.3592
31300SOL     OW98584   6.525  11.586   6.612  0.1529  0.3390 -0.4445
31300SOL    HW198585   6.458  11.601   6.545  1.4870  1.2899 -1.6155
31300SOL    HW298586   6.496  11.639   6.687 -0.5698  0.4699 -0.8125
31301SOL     OW98587   8.284   2.284   2.909  0.2475 -0.5057 -0.0583
31301SOL    HW198588   8.302   2.359   2.966 -0.4665 -0.5346  0.2132
31301SOL    HW298589   8.335   2.213   2.948  1.0654 -0.1310 -0.4148
31302SOL     OW98590   3.744   1.735   4.444 -0.2862 -0.1105  0.3005
31302SOL    HW198591   3.803   1.728   4.368 -0.0742 -1.4186  0.5509
31302SOL    HW298592   3.688   1.809   4.424  1.6082  1.3681  0.1824
31303SOL     OW98593   0.136   9.720   8.659 -0.0771 -0.3626  0.1021
31303SOL    HW198594   0.139   9.646   8.719  0.5622  1.9299  3.1608
31303SOL    HW298595   0.211   9.708   8.601  0.8768 -1.4238  1.4908
31304SOL     OW98596   3.591  11.585  10.589  0.3745 -0.2295  0.3825
31304SOL    HW198597   3.608  11.522  10.660 -0.4695 -0.0192  0.7760
31304SOL    HW298598   3.604  11.671  10.629  0.9824 -0.1284 -0.0136
31305SOL     OW98599   8.120   8.323   1.666  0.8118  0.1397  0.4627
31305SOL    HW198600   8.191   8.278   1.620  1.5718  0.5942  1.1689
31305SOL    HW298601   8.127   8.414   1.639  1.4450  0.4676  1.6686
31306SOL     OW98602   4.356   4.435   0.477 -0.5274  0.2771 -0.6452
31306SOL    HW198603   4.280   4.408   0.424  0.3904  0.9474 -2.3546
31306SOL    HW298604   4.432   4.408   0.426  0.4071  2.0517 -0.2750
31307SOL     OW98605   7.037   3.002   9.428 -0.0281  0.2234 -0.1806
31307SOL    HW198606   6.988   2.998   9.510  0.0965  0.0502 -0.1144
31307SOL    HW298607   7.074   2.915   9.417  0.1938  0.3272 -0.2746
31308SOL     OW98608  11.264   0.906   6.643  0.5588  0.3247 -0.3402
31308SOL    HW198609  11.246   0.964   6.717 -0.7473 -0.0731 -0.3272
31308SOL    HW298610  11.347   0.937   6.608 -0.0743  2.1618 -0.2951
31309SOL     OW98611  11.646   6.173   6.036  0.1822 -0.0918 -0.1532
31309SOL    HW198612  11.642   6.189   6.130  0.2815 -1.6846  0.1419
31309SOL    HW298613  11.711   6.236   6.004  1.1357 -0.4303  1.0509
31310SOL     OW98614  11.663   3.801   2.334 -0.3111  0.7293  0.7212
31310SOL    HW198615  11.723   3.766   2.400  0.3772 -0.6749 -0.5631
31310SOL    HW298616  11.641   3.725   2.280 -0.1402  1.9614 -1.1738
31311SOL     OW98617   5.598  11.659   3.114 -0.0748 -0.2553 -0.2246
31311SOL    HW198618   5.674  11.628   3.065 -0.7096 -0.4724 -1.1023
31311SOL    HW298619   5.545  11.580   3.128  0.2240 -0.2466  1.0735
31312SOL     OW98620   9.719   3.961   6.283 -0.6373  0.7767 -0.2398
31312SOL    HW198621   9.727   3.881   6.231  3.4724 -0.6825  2.1708
31312SOL    HW298622   9.797   4.012   6.259 -1.2342  2.3294  0.9749
31313SOL     OW98623  10.547   4.628   9.881 -0.2507  0.2448 -0.1129
31313SOL    HW198624  10.458   4.645   9.911 -0.4913 -0.1803 -0.5788
31313SOL    HW298625  10.538   4.558   9.816  0.1176  1.7826 -1.9153
31314SOL     OW98626   8.915   7.148  11.638 -0.4390  0.0631  0.1777
31314SOL    HW198627   8.847   7.215  11.635 -0.4971  0.0622 -3.8447
31314SOL    HW298628   8.870   7.066  11.617  0.4559 -0.3047 -0.3823
31315SOL     OW98629  10.031   2.404   8.329  0.4810 -0.5247  0.1453
31315SOL    HW198630  10.048   2.445   8.243  1.2026 -2.6739 -0.8014
31315SOL    HW298631   9.937   2.388   8.329  0.4333 -0.2682 -0.1226
31316SOL     OW98632   8.681   5.963  10.954 -0.0919 -0.3660 -0.6288
31316SOL    HW198633   8.718   5.877  10.936  0.5494  0.0277 -1.2811
31316SOL    HW298634   8.653   5.959  11.045  1.2194 -0.8144 -0.2191
31317SOL     OW98635   1.781  11.637   6.787  0.6357  0.3322 -0.1601
31317SOL    HW198636   1.833  11.572   6.834  0.0829 -0.1913 -0.2693
31317SOL    HW298637   1.737  11.588   6.718 -0.8170  0.5739  0.5601
31318SOL     OW98638   7.900   0.207   6.833  0.1027 -0.7650 -0.3070
31318SOL    HW198639   7.887   0.114   6.852 -0.8981 -1.0405 -2.0896
31318SOL    HW298640   7.828   0.230   6.774 -2.1781  2.2162  3.2272
31319SOL     OW98641  10.161   5.667   8.896 -0.0139  0.1692  0.3016
31319SOL    HW198642  10.217   5.729   8.848  0.5945 -0.4036  0.2472
31319SOL    HW298643  10.159   5.590   8.840 -1.7698  0.5468 -0.2177
31320SOL     OW98644   3.409   4.721   4.054  0.1352  0.1002  0.6197
31320SOL    HW198645   3.338   4.717   4.119 -0.6204  3.0926  0.1481
31320SOL    HW298646   3.364   4.741   3.971  1.2445 -1.7674 -0.4982
31321SOL     OW98647   9.371   2.270   3.941 -0.7346  0.0585  0.2689
31321SOL    HW198648   9.412   2.237   4.021 -1.6961 -0.5188  0.5406
31321SOL    HW298649   9.370   2.365   3.951 -0.7742 -0.0083  0.9065
31322SOL     OW98650   0.574   0.092   9.620 -0.2610 -0.1152 -0.9151
31322SOL    HW198651   0.553   0.183   9.638 -1.4829 -0.6850  0.7912
31322SOL    HW298652   0.508   0.064   9.556 -1.7870 -0.5599  0.7750
31323SOL     OW98653  11.878   7.149   7.071  0.3436 -0.0832 -0.1226
31323SOL    HW198654  11.789   7.113   7.071  0.7570 -1.2291 -1.4778
31323SOL    HW298655  11.932   7.080   7.109  0.6391  0.6973  0.9126
31324SOL     OW98656  11.539   4.102   5.762 -0.3108 -0.3886 -0.1414
31324SOL    HW198657  11.585   4.018   5.754  1.3211  0.3525  0.9178
31324SOL    HW298658  11.586   4.148   5.831 -1.4770  1.2223 -0.3788
31325SOL     OW98659   7.328   8.017   0.026 -0.9647  0.4158 -0.0605
31325SOL    HW198660   7.364   8.105   0.014 -0.8449  0.3413 -0.2535
31325SOL    HW298661   7.235   8.026   0.008 -0.6487  0.1150 -2.1243
31326SOL     OW98662   1.713   5.428   0.623  0.1384  0.0518  0.1934
31326SOL    HW198663   1.663   5.474   0.556 -0.0329 -0.2736  0.0922
31326SOL    HW298664   1.648   5.376   0.670  0.3112  0.0008  0.3777
31327SOL     OW98665  10.805   9.081  10.985 -0.3289 -0.4938  0.1524
31327SOL    HW198666  10.885   9.121  10.951 -0.4786 -1.0894 -0.9795
31327SOL    HW298667  10.783   9.132  11.062 -0.3330  1.3670 -1.0322
31328SOL     OW98668   9.124   7.757   5.963 -0.0437 -0.1878  0.5525
31328SOL    HW198669   9.202   7.708   5.938 -0.5972 -1.6969  1.6832
31328SOL    HW298670   9.156   7.844   5.986  0.9827 -0.0420 -1.2765
31329SOL     OW98671  10.773   5.429   4.126  0.5294 -0.2565  0.4032
31329SOL    HW198672  10.860   5.452   4.092 -0.3337  1.5444 -0.7546
31329SOL    HW298673  10.742   5.361   4.066 -0.0192  1.2307 -1.0867
31330SOL     OW98674   9.270   1.533   3.833 -0.2441 -0.2650 -0.0419
31330SOL    HW198675   9.177   1.511   3.838 -0.5200  0.8506 -0.1504
31330SOL    HW298676   9.273   1.628   3.838  0.8616 -0.2577 -0.5510
31331SOL     OW98677   9.894  10.971  11.900 -0.1413 -0.5327 -0.2085
31331SOL    HW198678   9.806  10.966  11.938 -1.0701  0.6173 -2.0508
31331SOL    HW298679   9.946  11.018  11.965 -1.4757  0.7365 -0.0215
31332SOL     OW98680  11.369   6.258   4.740 -0.1116 -0.3555 -0.3501
31332SOL    HW198681  11.409   6.341   4.715 -0.9138  0.0055 -0.4429
31332SOL    HW298682  11.431   6.221   4.804 -0.2154  0.7689  0.4395
31333SOL     OW98683   6.197  11.552  10.227 -0.0521 -0.1365 -0.0739
31333SOL    HW198684   6.254  11.602  10.169 -0.0191 -1.2001 -0.9979
31333SOL    HW298685   6.216  11.585  10.315  0.6180  0.8185 -0.5685
31334SOL     OW98686   9.061   7.442  11.287  0.0367  0.0199  0.1752
31334SOL    HW198687   9.049   7.504  11.359 -0.1193  0.2707 -0.0662
31334SOL    HW298688   9.004   7.475  11.218  1.6674  0.9151 -0.7948
31335SOL     OW98689  10.698   4.525   5.874  0.2693  0.1492  0.2572
31335SOL    HW198690  10.649   4.607   5.872  0.4287  0.2760 -2.4938
31335SOL    HW298691  10.764   4.535   5.806  0.2271 -2.3013 -0.2446
31336SOL     OW98692   5.232   2.109  11.878  0.2739 -0.1324  0.6358
31336SOL    HW198693   5.241   2.043  11.946  0.0268 -0.0048  0.7934
31336SOL    HW298694   5.182   2.066  11.809  0.2699 -0.1672  0.6613
31337SOL     OW98695   5.310   3.892   1.076 -0.5804  0.3560 -0.7145
31337SOL    HW198696   5.330   3.820   1.016  0.5832 -0.0685  0.1436
31337SOL    HW298697   5.215   3.900   1.073 -0.6655 -0.7123 -1.4072
31338SOL     OW98698   2.777  11.387  11.146  0.0810  0.2625 -0.5093
31338SOL    HW198699   2.818  11.470  11.170  1.1596  0.3863 -2.5306
31338SOL    HW298700   2.683  11.404  11.153  0.2462  1.9888 -1.7331
31339SOL     OW98701   9.097   9.233   9.078 -0.1567 -0.1354  0.6513
31339SOL    HW198702   9.132   9.317   9.109  0.2695  0.9389 -2.3977
31339SOL    HW298703   9.175   9.180   9.061 -0.0945  0.6378 -1.8788
31340SOL     OW98704   8.571   7.957   0.217 -0.2807  0.0393  0.8663
31340SOL    HW198705   8.557   7.967   0.311 -0.9211 -0.6337  0.8530
31340SOL    HW298706   8.532   7.872   0.196  1.4573 -0.6503  0.3129
31341SOL     OW98707   9.396   9.616   0.959  0.8847  0.3388  0.0961
31341SOL    HW198708   9.434   9.530   0.978  2.4984  0.8798 -0.4965
31341SOL    HW298709   9.335   9.632   1.031  1.5618 -0.7169  0.9364
31342SOL     OW98710   2.979   2.624  10.449 -0.2734 -0.0474  0.0753
31342SOL    HW198711   2.958   2.653  10.361  2.3362 -0.1545 -0.6700
31342SOL    HW298712   2.981   2.704  10.501  0.2162  0.2827 -0.4457
31343SOL     OW98713   0.053   1.245   3.928 -0.3200 -0.1923 -0.3829
31343SOL    HW198714   0.115   1.308   3.965 -1.3091  0.1968  0.6576
31343SOL    HW298715   0.109   1.180   3.886  0.7914  0.3599  0.1757
31344SOL     OW98716   9.282  11.555   2.210 -0.2262  0.0917 -0.0271
31344SOL    HW198717   9.293  11.639   2.254  0.3134 -0.1275  0.2706
31344SOL    HW298718   9.341  11.496   2.257 -1.3408 -0.7049  0.4396
31345SOL     OW98719   6.616   8.624   6.778 -0.4110  0.1311 -0.2770
31345SOL    HW198720   6.638   8.680   6.853 -0.0790 -0.6238  0.1994
31345SOL    HW298721   6.568   8.682   6.718 -0.9364  0.6669  0.6422
31346SOL     OW98722  11.424   5.863   4.502 -0.7193 -0.0426 -0.3335
31346SOL    HW198723  11.382   5.949   4.509  1.7186  1.1160  1.4376
31346SOL    HW298724  11.469   5.865   4.417 -0.7941  0.3804 -0.3643
31347SOL     OW98725   6.271   8.573   7.936  0.2930 -0.8718  0.6126
31347SOL    HW198726   6.355   8.533   7.956  0.9396  0.8929  1.6686
31347SOL    HW298727   6.290   8.667   7.929 -1.5403 -0.4508  0.6711
31348SOL     OW98728  11.136   1.275   7.581 -0.3501  1.0186  0.1523
31348SOL    HW198729  11.084   1.277   7.501  1.1129  0.4929 -0.8454
31348SOL    HW298730  11.117   1.358   7.624  0.1339  2.0859 -1.6069
31349SOL     OW98731   9.873  10.633   8.539  0.2119 -0.0133 -0.1420
31349SOL    HW198732   9.892  10.562   8.478  0.9137 -0.0401  0.0939
31349SOL    HW298733   9.884  10.594   8.626  1.0119  0.4753 -0.0098
31350SOL     OW98734   0.074   3.124   7.046  0.0504  0.4618 -0.2601
31350SOL    HW198735   0.097   3.032   7.038 -0.3265  0.5245 -2.7033
31350SOL    HW298736  -0.022   3.124   7.055  0.0790  0.6263  0.0981
31351SOL     OW98737   9.894   4.860   9.257  0.9368 -0.1926  0.0569
31351SOL    HW198738   9.862   4.856   9.347 -0.5331  1.7978 -0.3082
31351SOL    HW298739   9.967   4.922   9.260  1.0487 -0.3158 -0.0870
31352SOL     OW98740  10.516   0.197   3.813  0.2148  0.3901  0.3141
31352SOL    HW198741  10.482   0.120   3.858 -0.3945 -0.4476 -1.4918
31352SOL    HW298742  10.438   0.245   3.786  0.5808  1.1691  0.6133
31353SOL     OW98743  10.531   8.893  11.930  0.0530 -0.7152  0.5228
31353SOL    HW198744  10.567   8.815  11.888 -0.8607 -1.4983  1.1505
31353SOL    HW298745  10.514   8.953  11.858 -1.6055 -2.0844 -0.3090
31354SOL     OW98746   9.802  11.630   8.311 -0.3177  0.0659  0.2540
31354SOL    HW198747   9.880  11.590   8.272 -0.4762 -0.9191  0.9240
31354SOL    HW298748   9.788  11.709   8.259  1.6171  0.7235  0.6593
31355SOL     OW98749   3.569   0.530   2.505  0.4242 -0.3921 -0.6147
31355SOL    HW198750   3.526   0.449   2.479  0.4083 -0.5149 -0.2106
31355SOL    HW298751   3.657   0.524   2.467  0.2060 -0.2945 -1.1468
31356SOL     OW98752  10.927   2.180  11.556  0.0491 -0.0654  0.7758
31356SOL    HW198753  10.879   2.115  11.505  0.8928  1.0209 -1.5590
31356SOL    HW298754  10.952   2.134  11.636 -1.2863 -1.8877  0.2175
31357SOL     OW98755   8.832   1.765   8.978 -0.3528 -0.2476  0.1105
31357SOL    HW198756   8.881   1.727   8.905 -0.9615  1.3097 -1.1681
31357SOL    HW298757   8.846   1.704   9.051  2.0097 -0.7666 -0.6954
31358SOL     OW98758   3.813   3.012   9.314 -0.3714  0.5691 -0.4612
31358SOL    HW198759   3.824   3.000   9.408  1.7255 -1.0680 -0.8357
31358SOL    HW298760   3.800   3.106   9.303 -0.3092  0.8337  1.4190
31359SOL     OW98761   5.110  10.108   6.648  0.0177  0.0217 -0.3118
31359SOL    HW198762   5.025  10.074   6.679  0.0689 -0.0587 -0.2595
31359SOL    HW298763   5.102  10.108   6.552 -1.0969  2.7086 -0.2834
31360SOL     OW98764  10.610   3.500   5.315  0.0902 -0.1181 -0.1813
31360SOL    HW198765  10.693   3.544   5.298 -0.2798 -0.3021 -3.0078
31360SOL    HW298766  10.551   3.569   5.346  0.1052  1.0548 -2.5425
31361SOL     OW98767   0.827  11.305   0.752  0.3998  0.1627 -0.1133
31361SOL    HW198768   0.842  11.371   0.684  1.8903  0.1482  0.1596
31361SOL    HW298769   0.777  11.236   0.708 -1.0447  1.3815 -0.4417
31362SOL     OW98770   5.207   9.096   3.884 -0.0551 -0.2547  0.3687
31362SOL    HW198771   5.241   9.031   3.823 -1.1721 -1.4737  0.9959
31362SOL    HW298772   5.267   9.170   3.876  1.4535 -1.4846 -0.1153
31363SOL     OW98773   0.073   2.158   6.769 -0.1196  0.6407 -0.1623
31363SOL    HW198774   0.070   2.083   6.828 -1.3562  0.5368 -0.3198
31363SOL    HW298775   0.001   2.215   6.798  0.5970  1.6156 -0.2498
31364SOL     OW98776   5.251   2.850   9.723 -0.1239 -0.1538  0.1431
31364SOL    HW198777   5.200   2.870   9.801  0.2529 -2.1941  0.9788
31364SOL    HW298778   5.330   2.903   9.732 -0.1619 -0.2458  1.0779
31365SOL     OW98779  11.658   7.945   5.145 -0.3579  0.1220  0.0676
31365SOL    HW198780  11.632   7.859   5.175  0.1772  0.6605  2.2677
31365SOL    HW298781  11.577   7.995   5.140 -0.6712 -0.4753 -1.2418
31366SOL     OW98782   5.716   9.468   5.571 -0.2711  0.0029 -0.0295
31366SOL    HW198783   5.709   9.473   5.476  0.5316 -0.8854 -0.1545
31366SOL    HW298784   5.725   9.559   5.600  2.5746  0.1645 -1.0952
31367SOL     OW98785   2.960   8.089   5.346 -0.2873  0.4575 -0.6177
31367SOL    HW198786   3.022   8.138   5.292  0.1287 -1.4648 -1.9897
31367SOL    HW298787   2.982   7.997   5.330 -1.2257 -0.2091  1.6134
31368SOL     OW98788   0.761   0.950   4.755  0.2400 -0.1106 -0.2316
31368SOL    HW198789   0.804   0.944   4.670 -1.8403  2.4667 -1.6379
31368SOL    HW298790   0.744   0.859   4.780  0.9013 -0.9596 -2.5813
31369SOL     OW98791   0.999  10.529   6.481 -0.4308  0.0260  0.2326
31369SOL    HW198792   0.984  10.474   6.558  0.3131 -1.2616 -0.4945
31369SOL    HW298793   0.912  10.551   6.449 -0.7821  1.4890  2.0234
31370SOL     OW98794   3.267   9.203   7.317  0.4274 -0.2941 -0.8040
31370SOL    HW198795   3.316   9.235   7.393  0.1565 -0.3325 -0.6079
31370SOL    HW298796   3.246   9.112   7.338  1.0564 -0.5523 -1.2899
31371SOL     OW98797   4.046   7.019   2.204  0.3483 -0.3004  0.4683
31371SOL    HW198798   4.125   7.074   2.198  1.9773 -2.3334  1.7396
31371SOL    HW298799   4.074   6.934   2.168 -2.2359 -0.2470 -1.9792
31372SOL     OW98800  11.773   5.850   3.700 -0.0211  0.3027  0.4513
31372SOL    HW198801  11.724   5.844   3.781 -0.7086  0.5312  0.0614
31372SOL    HW298802  11.817   5.935   3.704  0.6921 -0.0878  0.9907
31373SOL     OW98803   6.503   5.174   3.030 -0.5477 -0.4979 -0.2499
31373SOL    HW198804   6.416   5.164   3.068 -0.7961 -0.4293 -0.7823
31373SOL    HW298805   6.503   5.112   2.956 -0.7489  0.6819 -1.2665
31374SOL     OW98806   2.016   4.433   5.790 -0.2654 -0.2882  0.1109
31374SOL    HW198807   2.061   4.513   5.760  0.3041 -0.6381  0.0126
31374SOL    HW298808   1.964   4.406   5.714 -0.5987  0.0883  0.2035
31375SOL     OW98809   4.865  10.488   8.148 -0.1319  0.1886 -0.4956
31375SOL    HW198810   4.858  10.547   8.223 -1.5564 -2.2435  1.4340
31375SOL    HW298811   4.955  10.455   8.151 -0.2119  0.0284  0.2233
31376SOL     OW98812   8.333   3.553   8.679 -0.0201 -0.0857  0.2427
31376SOL    HW198813   8.400   3.581   8.740  0.4087 -1.8400  0.6401
31376SOL    HW298814   8.373   3.562   8.593 -0.4702  1.9689  0.1896
31377SOL     OW98815   9.694   8.247   1.945  0.3448  0.2691  0.3700
31377SOL    HW198816   9.717   8.335   1.916  1.0329  0.2010  0.7030
31377SOL    HW298817   9.664   8.258   2.035  1.2292  0.0601  0.7004
31378SOL     OW98818   3.496   5.379  11.689 -0.1122  0.0713  0.0019
31378SOL    HW198819   3.440   5.303  11.673 -0.4094  0.7189 -2.5207
31378SOL    HW298820   3.528   5.404  11.602  0.5597  2.3858  0.8320
31379SOL     OW98821   9.920   4.871   3.843  0.8126 -0.2118 -0.0007
31379SOL    HW198822   9.834   4.908   3.822  0.3542 -2.1408 -1.8750
31379SOL    HW298823   9.915   4.852   3.937 -0.7102  0.0089 -0.0025
31380SOL     OW98824   7.496  10.146   5.965 -0.1656 -0.1907 -0.0268
31380SOL    HW198825   7.535  10.129   6.051 -0.7835  2.5727  0.9139
31380SOL    HW298826   7.402  10.152   5.982 -0.3028  0.3321 -0.8931
31381SOL     OW98827  10.530   1.699   8.972  0.1629 -0.4160 -0.1696
31381SOL    HW198828  10.598   1.680   9.037  0.4817 -0.1019 -0.4030
31381SOL    HW298829  10.499   1.613   8.944  1.1466 -0.5996 -0.7614
31382SOL     OW98830   8.660   9.941   8.019  0.8791 -0.0325 -0.2818
31382SOL    HW198831   8.708   9.978   8.094 -0.1441 -1.8291  1.3850
31382SOL    HW298832   8.568   9.956   8.040  0.5244 -1.7256 -0.4792
31383SOL     OW98833   8.234   6.524   0.214 -0.3340  0.5259 -0.2094
31383SOL    HW198834   8.319   6.483   0.227  0.0383  1.0111 -1.0574
31383SOL    HW298835   8.173   6.468   0.262 -0.1359 -2.1016 -2.7477
31384SOL     OW98836   2.773  10.952   5.947 -0.3035  0.0611 -0.0577
31384SOL    HW198837   2.781  11.013   5.873 -2.1024 -0.1269 -0.4679
31384SOL    HW298838   2.711  10.994   6.006  0.7706 -0.0080  1.1600
31385SOL     OW98839  10.991   3.380   7.833 -0.1274 -0.8027 -0.4747
31385SOL    HW198840  11.069   3.330   7.809  1.3483  1.3133 -0.3469
31385SOL    HW298841  10.973   3.356   7.923 -1.2882 -3.2903 -1.2819
31386SOL     OW98842   8.031   9.505   3.773  0.3421  0.0651 -0.0275
31386SOL    HW198843   8.014   9.512   3.680 -1.8932  2.2849  0.4356
31386SOL    HW298844   7.957   9.454   3.807 -0.2913  1.4527  0.7903
31387SOL     OW98845   4.690  10.691  10.697  0.2985 -0.4144  0.1841
31387SOL    HW198846   4.668  10.618  10.755  0.2200 -0.8980 -0.4400
31387SOL    HW298847   4.672  10.658  10.609  0.7272  0.1950 -0.1425
31388SOL     OW98848   3.501   1.516   9.397 -0.0098 -0.2750  0.0955
31388SOL    HW198849   3.582   1.470   9.377  0.7105  1.6806 -2.0294
31388SOL    HW298850   3.434   1.470   9.347  0.2642 -0.4348 -0.1261
31389SOL     OW98851   4.421   1.390   4.062 -0.2769 -0.7689 -0.3013
31389SOL    HW198852   4.356   1.429   4.119 -0.2526 -0.6521 -0.3526
31389SOL    HW298853   4.374   1.372   3.980  0.4084  2.0994 -1.4741
31390SOL     OW98854   2.081   4.830   3.234 -0.2701  0.1024  0.4060
31390SOL    HW198855   2.174   4.828   3.254 -0.0386 -3.1495 -0.4754
31390SOL    HW298856   2.043   4.884   3.303  2.1702  1.0859  1.0835
31391SOL     OW98857   3.030   6.035   5.709  0.6714 -0.1291 -0.1309
31391SOL    HW198858   3.073   5.997   5.632 -1.2503 -1.7997 -0.4635
31391SOL    HW298859   2.967   6.097   5.673  2.0025  1.5590  0.3095
31392SOL     OW98860  10.601   0.922   4.810 -0.3347  0.3440 -0.2792
31392SOL    HW198861  10.610   0.906   4.904  0.3211 -0.2655 -0.4386
31392SOL    HW298862  10.508   0.937   4.797 -0.7434 -1.5147  0.1905
31393SOL     OW98863   2.546   8.865   0.628 -0.3244 -0.3828 -0.3028
31393SOL    HW198864   2.461   8.820   0.624 -0.2108 -0.6329  0.1034
31393SOL    HW298865   2.522   8.957   0.641 -0.5147 -0.6557  1.4417
31394SOL     OW98866  10.319   4.780   4.885  0.6522 -0.8657  0.2410
31394SOL    HW198867  10.368   4.798   4.805  1.3012  0.0427  0.8208
31394SOL    HW298868  10.268   4.702   4.865  2.6902 -2.1426 -0.2636
31395SOL     OW98869   4.364   9.104   5.305 -0.1146  0.3122  0.6353
31395SOL    HW198870   4.393   9.036   5.244  1.4753 -0.2264  1.9193
31395SOL    HW298871   4.275   9.078   5.330 -0.4439  0.0601 -0.7294
31396SOL     OW98872   2.310   1.973   3.818  0.0161  0.6180  0.0264
31396SOL    HW198873   2.328   1.970   3.724 -0.9831 -1.2088 -0.1530
31396SOL    HW298874   2.389   2.011   3.856 -0.3259  3.3304 -1.6812
31397SOL     OW98875   0.551   5.233   1.236 -0.1736 -0.4830 -0.2475
31397SOL    HW198876   0.624   5.291   1.257 -0.2214 -0.4463 -0.1833
31397SOL    HW298877   0.478   5.292   1.218 -0.7282 -0.5402  1.6128
31398SOL     OW98878   1.868   2.925   4.399  0.1237 -0.1253  0.0559
31398SOL    HW198879   1.816   2.886   4.329  0.2261  0.0423 -0.1132
31398SOL    HW298880   1.867   3.019   4.380  0.5103 -0.1241  0.0339
31399SOL     OW98881   0.779   8.806   3.808 -0.2545  0.4088  0.6375
31399SOL    HW198882   0.776   8.823   3.714 -1.4771  0.5251  0.6798
31399SOL    HW298883   0.688   8.792   3.832  0.1917 -1.3605  1.4960
31400SOL     OW98884  10.621   9.542  10.079  0.1985  0.2077  0.3073
31400SOL    HW198885  10.585   9.617  10.127  0.7945  0.3867  0.4744
31400SOL    HW298886  10.628   9.572   9.988 -0.7750 -0.0769  0.1266
31401SOL     OW98887   6.725   8.290   7.142 -0.0156 -0.0827 -0.3433
31401SOL    HW198888   6.639   8.314   7.108  0.0542  0.2427 -0.2886
31401SOL    HW298889   6.741   8.202   7.106 -0.0779  0.1289 -0.8931
31402SOL     OW98890   4.493   5.123   3.999  0.5352 -0.9687 -0.0036
31402SOL    HW198891   4.497   5.150   4.091  0.0950 -1.3522  0.1326
31402SOL    HW298892   4.417   5.168   3.964  0.2325 -1.4499  0.0312
31403SOL     OW98893  10.897   0.530   4.052 -0.1302 -0.0288  0.2125
31403SOL    HW198894  10.806   0.524   4.022 -0.0258  2.2412 -0.7866
31403SOL    HW298895  10.942   0.459   4.006 -1.4761 -1.6971  1.3300
31404SOL     OW98896   9.219   3.985   1.337 -0.2406 -0.8919  0.2367
31404SOL    HW198897   9.282   3.936   1.390 -0.5507 -1.0434  0.4677
31404SOL    HW298898   9.160   3.918   1.302  0.2632 -0.8561 -0.7290
31405SOL     OW98899   2.154   5.298   3.654  0.2630 -0.4276  0.4480
31405SOL    HW198900   2.206   5.378   3.651 -0.2819 -0.0957 -1.4790
31405SOL    HW298901   2.217   5.227   3.666  1.0211  0.0887 -0.4150
31406SOL     OW98902  11.244   9.282   9.907  0.4137 -0.1884 -0.2382
31406SOL    HW198903  11.292   9.200   9.921  0.7341  0.3119  2.0585
31406SOL    HW298904  11.163   9.256   9.864  0.0817 -1.8713  1.2877
31407SOL     OW98905   7.116  11.948   8.054 -0.0775 -0.0208  0.4207
31407SOL    HW198906   7.132  12.042   8.059 -1.6578  0.2074  2.4717
31407SOL    HW298907   7.060  11.929   8.129 -0.9726 -2.3703 -0.7367
31408SOL     OW98908   7.879   5.422   3.700  0.3365 -0.3306 -0.0496
31408SOL    HW198909   7.786   5.441   3.706  0.1609 -1.5967  2.3275
31408SOL    HW298910   7.922   5.506   3.713 -0.4324  0.2724 -1.2174
31409SOL     OW98911   1.471   7.479   6.553 -0.4932 -0.5680  0.2195
31409SOL    HW198912   1.442   7.570   6.552 -0.2804 -0.5000 -0.8255
31409SOL    HW298913   1.428   7.441   6.629 -0.9162  0.2996  0.4269
31410SOL     OW98914   1.111   0.344   4.489 -0.5806 -0.3428  0.1715
31410SOL    HW198915   1.127   0.285   4.563  1.5314  0.5125  0.4570
31410SOL    HW298916   1.197   0.360   4.452 -1.3328  1.1023 -1.0634
31411SOL     OW98917   4.735   6.118   9.103  0.2273  0.3186  0.6192
31411SOL    HW198918   4.789   6.062   9.159  0.0942  0.9618  1.4123
31411SOL    HW298919   4.751   6.086   9.015  1.1951 -0.0943  0.9305
31412SOL     OW98920   2.536   2.205   0.378 -0.1083  0.1472  0.1294
31412SOL    HW198921   2.507   2.287   0.339  0.4378  0.3696  0.1795
31412SOL    HW298922   2.606   2.175   0.321  2.0773  1.4822  1.9459
31413SOL     OW98923   4.667  11.013   6.970  0.1940 -0.4931 -0.0405
31413SOL    HW198924   4.573  11.028   6.959  0.1940 -0.4681 -0.0090
31413SOL    HW298925   4.677  10.919   6.964  0.1893 -0.4823 -0.2189
31414SOL     OW98926   8.365  10.444   0.048  0.4943 -0.2250  0.4082
31414SOL    HW198927   8.332  10.357   0.069 -1.0676 -0.4304 -2.4823
31414SOL    HW298928   8.403  10.436  -0.040  1.9907  1.6450  0.7946
31415SOL     OW98929   5.970   2.233   6.189 -0.1437  0.1511  0.6145
31415SOL    HW198930   5.966   2.173   6.263 -1.2653  0.6501  0.9699
31415SOL    HW298931   5.881   2.236   6.155  0.2968  0.1555 -0.5817
31416SOL     OW98932   5.699  10.849  11.385 -0.6534 -0.2546 -0.2373
31416SOL    HW198933   5.642  10.916  11.422 -0.6045  0.1132 -0.8197
31416SOL    HW298934   5.698  10.865  11.291  0.4965 -0.1668 -0.2485
31417SOL     OW98935  10.659   0.654   4.305  0.1211 -0.3186  0.1583
31417SOL    HW198936  10.754   0.655   4.316  0.3475 -1.2178 -1.4615
31417SOL    HW298937  10.640   0.569   4.264 -1.4916 -0.5514  1.2850
31418SOL     OW98938  10.792   7.488   9.305 -0.0123 -0.3240  0.1600
31418SOL    HW198939  10.886   7.486   9.287  0.1523  3.2840 -0.2073
31418SOL    HW298940  10.782   7.558   9.370 -2.4482 -0.4784  0.0383
31419SOL     OW98941   8.093   1.965   6.544 -1.0711 -0.1064  0.0618
31419SOL    HW198942   8.120   1.978   6.453 -1.1095  1.3029  0.2227
31419SOL    HW298943   8.027   2.033   6.559 -0.6667  0.0349  1.2962
31420SOL     OW98944  11.025   8.025   6.724  0.3551  0.0598 -0.2387
31420SOL    HW198945  11.105   8.023   6.776 -0.4659  1.1009  1.1329
31420SOL    HW298946  10.981   7.943   6.743  1.4201 -0.8719 -1.6018
31421SOL     OW98947   0.893   7.841   4.520  0.2006  0.1138 -0.5243
31421SOL    HW198948   0.968   7.899   4.508  1.4597 -1.3225  0.2244
31421SOL    HW298949   0.832   7.892   4.574  0.6076  1.2846 -1.1302
31422SOL     OW98950   6.458   3.234   7.780  0.6643 -0.0762 -0.0208
31422SOL    HW198951   6.400   3.286   7.836  0.1448 -1.4376  0.7600
31422SOL    HW298952   6.430   3.255   7.691 -1.3018 -0.9354  0.3309
31423SOL     OW98953   2.306   8.631   1.265  0.0106 -0.0948  0.2159
31423SOL    HW198954   2.237   8.565   1.255  0.2355 -0.3249  0.1773
31423SOL    HW298955   2.291   8.693   1.193 -0.2880 -0.0249  0.3382
31424SOL     OW98956   1.820   6.319   3.036  0.1618  0.3189  0.6013
31424SOL    HW198957   1.827   6.224   3.036  1.4359  0.3100 -2.1480
31424SOL    HW298958   1.910   6.350   3.035 -0.2151  1.4775 -0.3890
31425SOL     OW98959   6.334   4.480   3.751  0.5250  0.2181 -0.0896
31425SOL    HW198960   6.310   4.452   3.839  1.6746 -0.4885  0.0149
31425SOL    HW298961   6.339   4.576   3.756 -3.9084  0.7155 -0.5563
31426SOL     OW98962   3.657   8.506  10.306  0.4571  0.3271 -1.2031
31426SOL    HW198963   3.743   8.464  10.315  0.6724  0.2479 -3.1399
31426SOL    HW298964   3.675   8.599  10.314  0.7105  0.3045 -1.4829
31427SOL     OW98965   4.553   5.852   9.656 -0.0088  0.0664  0.2784
31427SOL    HW198966   4.556   5.763   9.690  0.4183  0.0160  0.1103
31427SOL    HW298967   4.633   5.862   9.605  0.2182  0.7286  0.7495
31428SOL     OW98968   4.774   3.175   6.167 -0.1957 -0.0721 -0.0197
31428SOL    HW198969   4.845   3.214   6.219 -2.1163  1.7265  1.4134
31428SOL    HW298970   4.735   3.248   6.121 -0.0978 -1.2994 -2.1818
31429SOL     OW98971   9.206   5.143   5.705 -0.7502 -0.3614  0.0618
31429SOL    HW198972   9.223   5.063   5.654  1.4859  0.7135 -1.0106
31429SOL    HW298973   9.285   5.155   5.757 -1.1292  1.0791  0.3318
31430SOL     OW98974   9.596  11.454   8.138  0.3564  0.3656 -0.3020
31430SOL    HW198975   9.555  11.486   8.057  1.1992  1.6704 -0.2391
31430SOL    HW298976   9.683  11.425   8.111 -0.1288 -1.2878 -0.2211
31431SOL     OW98977   3.734   3.980   2.437 -1.0919 -0.3854 -0.2727
31431SOL    HW198978   3.709   3.930   2.359 -0.3049 -0.6672 -0.3475
31431SOL    HW298979   3.803   3.929   2.478 -0.6230  0.3885 -0.0749
31432SOL     OW98980   5.443   9.201   5.548 -0.1527 -0.1689 -0.5895
31432SOL    HW198981   5.451   9.109   5.525 -0.6670 -0.0663 -1.1976
31432SOL    HW298982   5.431   9.246   5.465 -1.1102  0.3166 -0.2050
31433SOL     OW98983   9.196   4.317  10.136 -0.2069  0.6716 -0.2769
31433SOL    HW198984   9.181   4.356  10.223  0.8523  1.0781 -0.2588
31433SOL    HW298985   9.291   4.321  10.125 -0.1705 -1.0253 -0.7130
31434SOL     OW98986   0.994   5.763   1.477 -0.2079  0.5120 -0.3759
31434SOL    HW198987   0.941   5.686   1.498  0.8512 -0.6161 -1.6363
31434SOL    HW298988   0.930   5.834   1.470 -1.3602 -0.4801 -0.3075
31435SOL     OW98989   8.737   9.631   5.950 -0.1176 -0.1051 -0.6083
31435SOL    HW198990   8.769   9.720   5.962  1.2767 -0.5055 -1.2235
31435SOL    HW298991   8.792   9.578   6.008 -0.8636 -0.5927 -0.3325
31436SOL     OW98992   7.094   2.299   1.011  0.2950 -0.2857 -0.3925
31436SOL    HW198993   7.104   2.394   1.015 -2.0456  0.2004 -2.6889
31436SOL    HW298994   7.182   2.266   0.994  1.2615  1.3705  1.0308
31437SOL     OW98995   2.278   0.225   7.712 -0.0168  0.1854  0.2764
31437SOL    HW198996   2.267   0.136   7.746 -1.2984  0.3730  0.4200
31437SOL    HW298997   2.271   0.281   7.790  1.5182  0.3898  0.2912
31438SOL     OW98998   7.350  11.034   4.788 -0.4185 -0.0767 -0.1533
31438SOL    HW198999   7.290  11.000   4.721 -1.8728 -0.1305  1.1374
31438SOL    HW299000   7.324  10.989   4.868 -0.7537  2.2041  1.0911
31439SOL     OW99001  10.915   8.554  11.063  0.3970  0.3000  0.6425
31439SOL    HW199002  10.837   8.533  11.012  0.9214 -1.0731  0.3638
31439SOL    HW299003  10.925   8.649  11.053  0.2254  0.1518 -1.4593
31440SOL     OW99004   6.691   3.004   8.461  0.0768 -0.1514 -0.1108
31440SOL    HW199005   6.689   2.931   8.523  0.3568  0.6052  0.8307
31440SOL    HW299006   6.654   2.969   8.380 -1.4462 -0.8497  0.8400
31441SOL     OW99007   3.311   1.842   3.335  0.1806  0.6404 -0.0601
31441SOL    HW199008   3.403   1.846   3.308  0.3710  1.8835  0.7111
31441SOL    HW299009   3.268   1.911   3.284 -0.5394 -0.5482 -1.1139
31442SOL     OW99010   8.428   5.916   1.695  0.0342  0.0418  0.0849
31442SOL    HW199011   8.340   5.889   1.668  0.1918 -1.3670  0.8771
31442SOL    HW299012   8.486   5.847   1.661  0.8497  0.9700 -0.4655
31443SOL     OW99013   1.671   9.059   8.392  0.3261  0.5017 -0.3111
31443SOL    HW199014   1.610   8.986   8.376  0.6327 -0.1022  1.1645
31443SOL    HW299015   1.693   9.090   8.304  0.9948 -1.8654 -1.0762
31444SOL     OW99016  10.995   3.965   7.689  0.3512 -0.4110 -0.4989
31444SOL    HW199017  10.956   3.965   7.776  0.5876 -1.1920 -0.3804
31444SOL    HW299018  11.007   4.057   7.667  0.8114 -0.2191  0.5244
31445SOL     OW99019   1.527   4.673   8.889 -0.0403 -0.0211 -0.2485
31445SOL    HW199020   1.480   4.655   8.807 -1.7941 -0.3053  0.7694
31445SOL    HW299021   1.550   4.586   8.922  1.8941  0.1337 -1.0758
31446SOL     OW99022   4.586   7.713  11.302 -0.9664  0.5070  0.2641
31446SOL    HW199023   4.569   7.622  11.281  1.3997  0.0955 -0.1536
31446SOL    HW299024   4.590   7.716  11.398 -0.1746 -0.0373  0.2586
31447SOL     OW99025  11.512   3.709   4.786 -0.1713 -0.1939  0.0228
31447SOL    HW199026  11.576   3.758   4.735 -1.5854  0.0500 -1.6032
31447SOL    HW299027  11.545   3.619   4.786 -0.0630 -0.1750 -1.2455
31448SOL     OW99028   5.855   1.023   9.356 -0.2656  0.1774 -0.7538
31448SOL    HW199029   5.820   0.992   9.273 -1.0772  0.8553 -0.6835
31448SOL    HW299030   5.947   0.996   9.356  0.1451  1.4516 -2.5379
31449SOL     OW99031   4.744   5.945   7.187 -0.1858  0.1597  0.6287
31449SOL    HW199032   4.717   5.866   7.234  1.2685 -2.5223 -2.6545
31449SOL    HW299033   4.833   5.962   7.218 -0.2747  0.1714  0.8847
31450SOL     OW99034   1.504   7.962   8.992 -0.2913 -0.1954 -0.2377
31450SOL    HW199035   1.535   7.895   8.932 -1.0781 -0.0843 -0.7831
31450SOL    HW299036   1.432   7.921   9.041  1.7478 -1.0391  2.2875
31451SOL     OW99037  10.754   3.348  11.814 -0.3085 -0.2749  0.1632
31451SOL    HW199038  10.718   3.389  11.893  1.1317  2.5986 -0.5504
31451SOL    HW299039  10.678   3.338  11.756 -1.3414 -2.1859  1.7025
31452SOL     OW99040   6.611   2.567   2.589  0.0196  0.5142 -0.2772
31452SOL    HW199041   6.616   2.484   2.542 -0.4292  1.4239 -2.0369
31452SOL    HW299042   6.702   2.599   2.590  0.1828  0.0479  0.3460
31453SOL     OW99043   2.041   0.382   5.569 -0.2764 -0.4504 -0.0937
31453SOL    HW199044   2.113   0.445   5.567  0.6738 -1.5113 -0.9726
31453SOL    HW299045   2.030   0.361   5.661  1.6522 -1.4304 -0.0253
31454SOL     OW99046  11.508   6.818  11.346 -0.4673 -0.1001  0.3024
31454SOL    HW199047  11.418   6.846  11.332 -0.2352  1.0529  0.9584
31454SOL    HW299048  11.523   6.833  11.440  1.2859  2.5955 -0.2842
31455SOL     OW99049   2.778   5.724   7.861  0.0872 -0.6172 -0.0537
31455SOL    HW199050   2.758   5.674   7.940 -1.2864 -0.7058 -0.4180
31455SOL    HW299051   2.822   5.803   7.892 -0.9615 -0.3684  0.8836
31456SOL     OW99052   9.875   9.750   1.447  0.0437  0.6187 -0.0417
31456SOL    HW199053   9.885   9.655   1.440  1.3467  0.7248  0.0201
31456SOL    HW299054   9.805   9.771   1.386  0.1961 -0.3212 -0.5661
31457SOL     OW99055  10.707   5.207  11.412  0.8569  0.3449  0.4631
31457SOL    HW199056  10.745   5.294  11.423 -0.6892  1.0631  0.2837
31457SOL    HW299057  10.728   5.162  11.493 -0.3208  1.6803  1.5613
31458SOL     OW99058   5.083  11.326   7.228 -0.7213 -0.1607 -0.4226
31458SOL    HW199059   5.065  11.376   7.149 -1.5347 -2.0083 -1.4474
31458SOL    HW299060   5.100  11.237   7.198  2.0895 -0.2987  1.2110
31459SOL     OW99061   2.246   4.779   7.534  0.1755  0.2340  0.3658
31459SOL    HW199062   2.323   4.834   7.518  0.7172 -0.8314 -0.8439
31459SOL    HW299063   2.198   4.779   7.451  0.2678 -1.2086  0.2914
31460SOL     OW99064   8.720  10.768   9.355  0.2515 -0.4840  0.5336
31460SOL    HW199065   8.781  10.694   9.363  0.0606 -0.7253 -0.1760
31460SOL    HW299066   8.772  10.837   9.315 -0.0065 -0.7831 -0.3363
31461SOL     OW99067   1.216   8.346   4.825 -0.1025 -0.1398  0.0433
31461SOL    HW199068   1.274   8.421   4.809  0.5756 -0.6750 -0.0386
31461SOL    HW299069   1.275   8.276   4.853 -0.5169 -1.1076 -1.3718
31462SOL     OW99070  10.891   2.797   7.583 -0.1135 -0.2179  0.1226
31462SOL    HW199071  10.971   2.758   7.550  0.7354  0.8229  0.8754
31462SOL    HW299072  10.827   2.784   7.513  0.0961 -2.9476  0.3600
31463SOL     OW99073   0.337   7.216   0.361  0.3947  0.0047  0.2991
31463SOL    HW199074   0.282   7.294   0.346  1.6982  0.6833 -1.3245
31463SOL    HW299075   0.425   7.244   0.335  0.9101 -2.0044 -0.2875
31464SOL     OW99076   4.555   4.729   4.963 -0.0711  0.2033  0.0619
31464SOL    HW199077   4.551   4.635   4.980 -2.3650  0.6206  2.5715
31464SOL    HW299078   4.613   4.763   5.031  0.0995  0.7210 -0.3353
31465SOL     OW99079   2.775   6.901   4.115 -0.4282  0.0463  0.5463
31465SOL    HW199080   2.846   6.838   4.107  0.6948  1.3822 -0.4045
31465SOL    HW299081   2.707   6.868   4.055 -1.0502 -1.7022  2.0968
31466SOL     OW99082   9.437   4.220   7.599 -0.5960 -0.0463  0.5760
31466SOL    HW199083   9.505   4.259   7.543 -1.6151  2.5441  0.9983
31466SOL    HW299084   9.485   4.184   7.673  0.3796  1.8689  0.9547
31467SOL     OW99085   6.430   3.059   3.432 -0.5991 -0.4013  0.3480
31467SOL    HW199086   6.445   3.150   3.408  0.0372 -0.2250  1.3948
31467SOL    HW299087   6.384   3.063   3.516  1.0726 -1.0413  1.3400
31468SOL     OW99088   3.743   5.709  11.658  0.8396 -0.2862 -0.2923
31468SOL    HW199089   3.806   5.737  11.724  1.4512 -0.6892 -0.6875
31468SOL    HW299090   3.785   5.634  11.616 -0.5447 -1.5461  0.4531
31469SOL     OW99091   3.779  11.614   0.141 -0.1396  0.5415 -0.5310
31469SOL    HW199092   3.706  11.671   0.166  0.5793  1.5117 -0.6078
31469SOL    HW299093   3.766  11.596   0.048 -0.7094  0.0537 -0.3651
31470SOL     OW99094   8.696   9.601   9.681  0.4761  0.5332  0.2361
31470SOL    HW199095   8.693   9.598   9.586  0.4355  0.5432  0.2374
31470SOL    HW299096   8.611   9.637   9.707  1.5968  3.4920  0.1515
31471SOL     OW99097   5.742   9.078  11.492 -0.2050  0.2989  0.1150
31471SOL    HW199098   5.779   9.166  11.498  1.1660 -0.2197 -0.3946
31471SOL    HW299099   5.652   9.091  11.461 -0.1479  1.5292  0.4351
31472SOL     OW99100   1.403   9.219   0.666 -0.2343 -0.7141 -0.2872
31472SOL    HW199101   1.497   9.221   0.680 -0.3475 -0.0676  0.4252
31472SOL    HW299102   1.391   9.250   0.576  0.0665  2.1661  0.5792
31473SOL     OW99103   4.671   5.518   7.869 -0.9163  0.3277 -0.0414
31473SOL    HW199104   4.764   5.537   7.880 -0.5243 -2.0337  1.4187
31473SOL    HW299105   4.626   5.593   7.908  0.3201  1.7372 -1.2195
31474SOL     OW99106   6.763   5.055  10.470  0.0979  0.0303 -0.1410
31474SOL    HW199107   6.828   5.120  10.441  0.9157 -0.7496 -0.0972
31474SOL    HW299108   6.735   5.012  10.389  0.1418 -0.1008 -0.0856
31475SOL     OW99109   0.830   8.389  10.522 -0.2635 -0.2480  0.3314
31475SOL    HW199110   0.797   8.367  10.435  0.4775  0.9254 -0.2768
31475SOL    HW299111   0.844   8.484  10.518  1.6474 -0.4596  1.0620
31476SOL     OW99112   4.379  10.614  10.694 -0.0798 -0.0164  0.2463
31476SOL    HW199113   4.398  10.707  10.708  1.8050 -0.5011  1.3556
31476SOL    HW299114   4.450  10.569  10.740 -0.2620 -1.9975 -1.3025
31477SOL     OW99115  11.924   9.335   4.205  0.4524 -0.2013  0.3363
31477SOL    HW199116  11.847   9.389   4.188  0.7848  0.6444  1.4224
31477SOL    HW299117  11.949   9.357   4.295  1.2115 -1.4083  0.4383
31478SOL     OW99118   8.387   1.433   3.038  0.0829 -0.2329  0.2167
31478SOL    HW199119   8.377   1.362   3.101  1.9161 -2.0398 -1.3950
31478SOL    HW299120   8.297   1.461   3.018 -0.7768 -2.8937  0.0632
31479SOL     OW99121   7.132   8.053   2.333  0.5796 -0.2637 -0.1191
31479SOL    HW199122   7.163   8.109   2.404  0.6261 -0.2597 -0.1425
31479SOL    HW299123   7.081   7.984   2.376  0.3723 -0.1021 -0.1036
31480SOL     OW99124   3.500   0.230   3.797  0.0762 -0.2622  0.0596
31480SOL    HW199125   3.520   0.312   3.753  1.7021 -0.3374  0.5958
31480SOL    HW299126   3.431   0.191   3.744  1.1012  0.2281 -1.7356
31481SOL     OW99127   3.209   5.271   7.923 -0.1107  0.0832 -0.0696
31481SOL    HW199128   3.140   5.337   7.911 -0.2396  0.0684  0.5724
31481SOL    HW299129   3.168   5.204   7.977  0.5876  0.3639  0.8291
31482SOL     OW99130  10.407   2.084  11.291  0.4941 -0.5093 -0.4478
31482SOL    HW199131  10.442   2.085  11.380  0.4285 -0.6476 -0.4191
31482SOL    HW299132  10.331   2.142  11.294  0.9228  0.0606 -0.5952
31483SOL     OW99133   4.346   8.027   4.735  0.3837  0.0052 -0.5729
31483SOL    HW199134   4.410   8.009   4.666 -1.0034 -0.0943 -1.9171
31483SOL    HW299135   4.284   8.088   4.694 -0.7672 -0.4578  0.4051
31484SOL     OW99136   9.410   6.062   6.157 -0.1020 -0.2426 -0.3189
31484SOL    HW199137   9.462   6.112   6.220  0.6814  0.4501 -1.4760
31484SOL    HW299138   9.475   6.021   6.100 -0.7930 -0.5573 -0.8986
31485SOL     OW99139   3.332   3.019   7.106 -0.4175  0.8513  0.1795
31485SOL    HW199140   3.358   2.987   7.019 -0.7591 -0.2643  0.4725
31485SOL    HW299141   3.349   2.945   7.164 -1.4496  1.1315  0.8529
31486SOL     OW99142   6.895   6.411   9.885 -0.3311 -0.3171  0.1910
31486SOL    HW199143   6.924   6.339   9.941  1.4334  0.4716  0.3571
31486SOL    HW299144   6.878   6.483   9.945  0.1351  0.0867 -0.1548
31487SOL     OW99145   8.676   1.679  11.032 -0.1241  0.1368 -0.1001
31487SOL    HW199146   8.681   1.586  11.011  0.2473  0.3347 -0.9159
31487SOL    HW299147   8.605   1.685  11.096 -0.3167 -0.6680 -0.2261
31488SOL     OW99148   1.306   5.260   1.468  0.4149 -0.2409 -0.1051
31488SOL    HW199149   1.355   5.329   1.424 -1.0692  0.6245 -0.4852
31488SOL    HW299150   1.255   5.219   1.398 -0.8365  0.1608  0.5284
31489SOL     OW99151   8.481   7.975   1.467  0.5185 -0.1280 -0.0050
31489SOL    HW199152   8.530   7.959   1.548 -0.6517 -0.4755  0.6555
31489SOL    HW299153   8.445   7.890   1.444 -0.5217  0.2926  0.0257
31490SOL     OW99154   8.484   4.723   5.447  0.1260  0.3125  0.1857
31490SOL    HW199155   8.540   4.738   5.524  1.2410 -1.3005 -0.2430
31490SOL    HW299156   8.542   4.739   5.373  0.8172 -3.4328 -0.2976
31491SOL     OW99157   4.979   6.240   6.999 -0.4958 -0.1492  0.0638
31491SOL    HW199158   5.051   6.184   6.972 -0.2851  0.0328  0.2450
31491SOL    HW299159   4.965   6.298   6.924  0.2041  0.4714  0.4055
31492SOL     OW99160   3.379  10.042  10.028  0.1667 -0.0249 -0.8280
31492SOL    HW199161   3.334  10.094   9.961  0.8756  0.1024 -1.2135
31492SOL    HW299162   3.400   9.960   9.985  2.4146  0.7887 -1.4473
31493SOL     OW99163   7.384  11.250   4.443 -0.3626  0.5150  0.1481
31493SOL    HW199164   7.471  11.287   4.457  1.4771 -2.7465 -1.4471
31493SOL    HW299165   7.358  11.279   4.356  0.4589 -0.7256 -0.5352
31494SOL     OW99166  10.054   3.651   2.285  0.2244  0.4535  0.4980
31494SOL    HW199167  10.078   3.596   2.211 -0.3443 -0.4651  0.9682
31494SOL    HW299168   9.958   3.647   2.287  0.1678  1.6395  0.4181
31495SOL     OW99169   0.802   5.957  11.791 -0.3685 -0.7283  0.3716
31495SOL    HW199170   0.877   5.911  11.753  0.2513  0.9760 -0.6027
31495SOL    HW299171   0.748   5.981  11.716 -0.7486 -0.0070  0.8663
31496SOL     OW99172   0.615   5.892   6.880 -0.1665 -0.0610 -0.5063
31496SOL    HW199173   0.631   5.809   6.836 -0.1086  0.1053 -0.8057
31496SOL    HW299174   0.675   5.892   6.954 -0.5544 -0.5244 -0.1856
31497SOL     OW99175   4.480  11.245   7.952  0.1933  0.7344  0.0625
31497SOL    HW199176   4.529  11.250   8.034  1.3852 -0.2136 -0.5623
31497SOL    HW299177   4.418  11.317   7.957  1.9286  2.2604  0.7055
31498SOL     OW99178   4.779  11.857   0.083  0.2220  0.1092 -0.1584
31498SOL    HW199179   4.763  11.916   0.156  0.5306 -1.3525  1.1430
31498SOL    HW299180   4.845  11.796   0.115 -0.6458 -1.4160 -1.1374
31499SOL     OW99181   7.022   9.872   7.498 -0.0491 -0.1338  0.2892
31499SOL    HW199182   7.029   9.797   7.557  0.6612 -1.1738 -1.0784
31499SOL    HW299183   7.066   9.944   7.545 -0.1333 -0.7308  1.3131
31500SOL     OW99184  11.048   5.264   2.136 -0.3410 -0.6033  0.3869
31500SOL    HW199185  10.959   5.297   2.147 -0.0335  0.4757 -0.1768
31500SOL    HW299186  11.074   5.235   2.223 -0.8744  0.0652  0.7796
31501SOL     OW99187  11.698   8.756  10.947 -0.6143 -0.0900  0.2541
31501SOL    HW199188  11.719   8.758  11.041  1.6924  1.0002 -0.2195
31501SOL    HW299189  11.624   8.816  10.937 -0.2257  0.5746  1.2409
31502SOL     OW99190   9.672   8.123   6.828 -0.3138  0.1207  0.1069
31502SOL    HW199191   9.665   8.043   6.881 -1.9667  0.0852 -0.1194
31502SOL    HW299192   9.741   8.174   6.870 -0.6431 -0.5240  1.4794
31503SOL     OW99193   4.243   6.628   1.491 -0.0487  0.0435  0.1745
31503SOL    HW199194   4.246   6.704   1.433  1.6477 -0.5434 -0.5782
31503SOL    HW299195   4.298   6.563   1.447  0.3920 -0.8143  1.9248
31504SOL     OW99196   1.251   8.313   5.323 -0.4684  0.3299 -0.4714
31504SOL    HW199197   1.160   8.342   5.319 -0.3053  1.1007  0.7376
31504SOL    HW299198   1.296   8.367   5.258 -0.9782 -0.5960 -1.6377
31505SOL     OW99199  10.009  11.674   6.199 -0.6260 -0.2835 -0.0675
31505SOL    HW199200   9.978  11.598   6.151  1.3131 -1.4723  0.4356
31505SOL    HW299201   9.939  11.694   6.261 -2.7692  0.7096 -2.6081
31506SOL     OW99202   8.328   0.208   0.398 -0.2305 -0.5404  0.2519
31506SOL    HW199203   8.398   0.155   0.436 -0.9397 -1.6649  0.0394
31506SOL    HW299204   8.320   0.178   0.308  0.2275  0.8670 -0.2932
31507SOL     OW99205   7.782   3.306   4.696  0.2574  0.2626 -0.2777
31507SOL    HW199206   7.866   3.264   4.716  0.1387  0.1897  0.0694
31507SOL    HW299207   7.717   3.238   4.712  0.1528  0.2424 -0.8027
31508SOL     OW99208   9.702  11.593  11.684  0.2108  0.1566 -0.2326
31508SOL    HW199209   9.740  11.616  11.600  0.8123  0.0499  0.0037
31508SOL    HW299210   9.679  11.678  11.724 -1.6505  0.1450 -1.2000
31509SOL     OW99211   2.878   7.545   3.802  0.1578 -0.0377 -0.6453
31509SOL    HW199212   2.971   7.567   3.797  0.0661  0.3753 -0.5263
31509SOL    HW299213   2.833   7.628   3.788 -0.1816 -0.0907  0.1017
31510SOL     OW99214   4.901   6.365   5.032  0.4204  0.4702  0.5627
31510SOL    HW199215   4.912   6.403   4.945 -1.5056  0.2058  0.1545
31510SOL    HW299216   4.860   6.435   5.084  1.1247  0.4718  1.1301
31511SOL     OW99217   9.444  10.452   5.928  0.0331 -0.4583  0.1763
31511SOL    HW199218   9.527  10.498   5.939  0.6826 -1.4112 -0.6500
31511SOL    HW299219   9.466  10.373   5.880 -1.2031 -1.2390  0.8433
31512SOL     OW99220  10.931   6.446   2.649  0.3957 -0.2179 -0.8272
31512SOL    HW199221  10.995   6.388   2.688 -0.2513 -1.2468 -1.2661
31512SOL    HW299222  10.940   6.431   2.554  0.3256  0.5155 -0.9598
31513SOL     OW99223   4.413   3.569   7.723  0.0633 -0.6062 -0.5292
31513SOL    HW199224   4.464   3.511   7.780 -1.3703 -1.2038  0.2030
31513SOL    HW299225   4.412   3.525   7.638 -0.4483 -1.3547 -0.1523
31514SOL     OW99226   3.814   2.724  10.520  0.4911  0.0262  0.3431
31514SOL    HW199227   3.831   2.703  10.612  0.4526  1.3801  0.6881
31514SOL    HW299228   3.741   2.787  10.524  1.5810  1.3880 -0.4865
31515SOL     OW99229   6.876   1.420   8.238  0.1798  0.3154  0.2829
31515SOL    HW199230   6.783   1.446   8.236  0.3192  0.8260 -1.0968
31515SOL    HW299231   6.890   1.386   8.326 -1.2952  0.3370  0.5516
31516SOL     OW99232   1.415   1.384  11.897  0.0150  0.4416 -0.0643
31516SOL    HW199233   1.436   1.443  11.969 -2.9508  1.6641 -0.0629
31516SOL    HW299234   1.323   1.362  11.910  0.3055 -2.0324 -1.6216
31517SOL     OW99235   2.226   8.103   0.463 -0.5942 -0.1369 -0.2408
31517SOL    HW199236   2.183   8.141   0.539  0.2861 -0.0882  0.2547
31517SOL    HW299237   2.162   8.108   0.393 -0.9727  0.9716  0.1771
31518SOL     OW99238   2.496   7.975   4.924  0.2857  0.1968 -0.4705
31518SOL    HW199239   2.475   7.988   4.832  0.8789  1.6322 -0.4262
31518SOL    HW299240   2.578   8.023   4.938 -0.8096  1.7604  1.2287
31519SOL     OW99241   5.620  10.988   7.337 -0.2043  0.4598 -0.0831
31519SOL    HW199242   5.613  11.084   7.344 -1.8964  0.3119  0.7073
31519SOL    HW299243   5.625  10.957   7.427  2.4252 -0.1405 -0.3503
31520SOL     OW99244  10.561   1.287   6.893 -0.2673 -0.1564 -0.2287
31520SOL    HW199245  10.562   1.198   6.856 -1.5133 -0.2006 -0.2083
31520SOL    HW299246  10.628   1.285   6.961  0.7987 -0.6113 -1.2468
31521SOL     OW99247   3.265   4.830   0.683  0.4491  0.2627 -0.2908
31521SOL    HW199248   3.318   4.773   0.628  1.6289  0.8382  0.2272
31521SOL    HW299249   3.326   4.866   0.748 -0.5077  1.1600  0.1498
31522SOL     OW99250   4.279   2.315   8.179 -0.6491  0.3090  0.0505
31522SOL    HW199251   4.201   2.356   8.218 -1.1421  0.4905 -1.0733
31522SOL    HW299252   4.294   2.365   8.099 -0.9095 -1.3380 -1.0583
31523SOL     OW99253   1.956   3.395  11.466 -0.3907  0.2834 -0.0381
31523SOL    HW199254   2.018   3.460  11.433  1.6351 -1.6866 -0.4190
31523SOL    HW299255   1.888   3.390  11.398  1.0473 -0.1091 -1.5218
31524SOL     OW99256   5.627   9.186   8.210  0.1200  0.3069 -0.5845
31524SOL    HW199257   5.642   9.193   8.116 -1.2147  1.1915 -0.7446
31524SOL    HW299258   5.572   9.261   8.232  0.3333  0.0644  0.8927
31525SOL     OW99259   5.945   8.083   0.270  0.0254 -0.5533  0.3761
31525SOL    HW199260   5.962   8.166   0.313 -0.7143 -0.4953  0.5580
31525SOL    HW299261   5.985   8.018   0.328  2.1839 -0.2421 -0.6218
31526SOL     OW99262   8.031   4.772   8.131 -0.1264 -0.3675 -0.1254
31526SOL    HW199263   7.963   4.706   8.113  0.8158 -1.4725  0.2205
31526SOL    HW299264   8.112   4.730   8.104  0.4605  0.8717 -0.3640
31527SOL     OW99265  11.393   3.350   6.740 -0.0915  0.3557 -0.0904
31527SOL    HW199266  11.382   3.442   6.762  1.0650  0.4455  0.1344
31527SOL    HW299267  11.323   3.305   6.788 -0.4623  1.0668  0.0437
31528SOL     OW99268   0.740   0.893  11.789 -0.4955 -0.3412  0.3876
31528SOL    HW199269   0.787   0.818  11.827  1.7959  1.8791  2.3510
31528SOL    HW299270   0.777   0.902  11.701 -1.6015 -2.0640 -0.3199
31529SOL     OW99271   5.352   2.340   1.480  0.0388  0.0008 -0.0622
31529SOL    HW199272   5.282   2.275   1.483  0.4602 -0.4868 -0.4511
31529SOL    HW299273   5.364   2.367   1.571 -1.0252  0.5048 -0.0633
31530SOL     OW99274   2.537  10.991   8.943 -0.0469  0.7332  0.1381
31530SOL    HW199275   2.571  11.026   8.860 -1.5542  0.9723 -0.4009
31530SOL    HW299276   2.561  11.056   9.008  2.0584  0.0756  0.1222
31531SOL     OW99277   6.723   1.093   7.326 -0.2236  0.8262 -0.7711
31531SOL    HW199278   6.777   1.088   7.405 -0.6231  0.6912 -0.4989
31531SOL    HW299279   6.650   1.033   7.344 -0.0311  0.3771 -1.4712
31532SOL     OW99280  11.088   1.199   1.734  0.4378 -0.2171 -0.6284
31532SOL    HW199281  11.069   1.260   1.663 -1.0074 -0.6869 -0.6749
31532SOL    HW299282  11.072   1.112   1.696  1.3937 -0.5734 -0.2434
31533SOL     OW99283   5.123   9.633  11.170 -0.2749  0.4261  0.2067
31533SOL    HW199284   5.098   9.663  11.083 -0.0463 -0.7864 -0.2970
31533SOL    HW299285   5.043   9.639  11.222 -0.4177  1.1281 -0.0777
31534SOL     OW99286   1.379  10.719   6.733  0.6087 -0.0720  0.1158
31534SOL    HW199287   1.432  10.666   6.673  0.3113 -1.2948  0.9041
31534SOL    HW299288   1.311  10.659   6.764 -0.3720  1.0722  0.2370
31535SOL     OW99289   4.505   7.570   9.762 -0.6694  0.2494  0.3211
31535SOL    HW199290   4.593   7.533   9.760  0.1736  1.9149  2.2855
31535SOL    HW299291   4.472   7.548   9.849 -1.0196  2.0323  0.6853
31536SOL     OW99292   3.928   3.110   8.749  0.6314 -0.5927 -0.3159
31536SOL    HW199293   3.903   3.169   8.678 -1.9755  0.5151  1.3781
31536SOL    HW299294   4.008   3.150   8.785  0.7617  0.0336 -1.2609
31537SOL     OW99295   2.411   4.351   8.524 -0.0549  0.4461 -0.2962
31537SOL    HW199296   2.358   4.335   8.602 -0.0324  1.4492 -0.0639
31537SOL    HW299297   2.359   4.411   8.471 -0.6403 -1.1776 -1.6803
31538SOL     OW99298   5.531   5.583  10.031 -0.2352 -0.2100 -0.0275
31538SOL    HW199299   5.596   5.523  10.068 -0.0923  0.5793  1.0225
31538SOL    HW299300   5.536   5.567   9.936  0.4283 -1.2122  0.1579
31539SOL     OW99301   0.221   8.075  10.978  0.3934 -0.3578 -0.5439
31539SOL    HW199302   0.245   8.076  11.071 -2.2906  0.8289  0.2337
31539SOL    HW299303   0.296   8.115  10.934  1.2026  0.2600  1.2733
31540SOL     OW99304   6.165   5.502  11.995  0.3247 -0.3961 -0.0379
31540SOL    HW199305   6.155   5.437  12.065  1.2115 -0.1877  0.2947
31540SOL    HW299306   6.082   5.499  11.948 -0.0179 -1.0569  0.5839
31541SOL     OW99307   4.477   1.853   4.199 -0.1637  0.3092 -0.4888
31541SOL    HW199308   4.489   1.759   4.214 -0.8702  0.1591 -0.8347
31541SOL    HW299309   4.383   1.867   4.211 -0.0339  1.0013 -0.2894
31542SOL     OW99310  11.323   1.902   0.286 -0.3186 -0.3834  0.2752
31542SOL    HW199311  11.410   1.911   0.248  0.0190  2.4430  1.3928
31542SOL    HW299312  11.339   1.859   0.371 -0.3404 -1.7991 -0.4175
31543SOL     OW99313   8.236   3.652   4.239 -0.0605  0.0552 -0.6146
31543SOL    HW199314   8.156   3.678   4.286  1.6061  2.2524  1.2072
31543SOL    HW299315   8.252   3.724   4.179  1.4550  0.5242  0.2985
31544SOL     OW99316   3.799   1.490   0.900 -0.3422 -0.2246 -0.3591
31544SOL    HW199317   3.767   1.568   0.854 -1.5819 -0.2015  0.5039
31544SOL    HW299318   3.720   1.447   0.932  0.2839 -2.1055 -1.2141
31545SOL     OW99319  10.909   4.607   9.287 -0.0987 -0.3607  0.2496
31545SOL    HW199320  10.915   4.656   9.369 -0.4031 -0.7200  0.4910
31545SOL    HW299321  10.980   4.543   9.293 -0.2444 -0.5174  0.3265
31546SOL     OW99322   6.599  11.052   8.164 -0.5172 -0.4961 -0.2274
31546SOL    HW199323   6.644  10.977   8.126  1.3181  0.6902 -0.4910
31546SOL    HW299324   6.660  11.087   8.229 -0.6774  1.6142 -1.1251
31547SOL     OW99325   3.200  11.578   9.847 -0.2415 -0.1265 -0.6469
31547SOL    HW199326   3.281  11.529   9.830  0.1836  0.2826  0.1532
31547SOL    HW299327   3.229  11.667   9.865 -0.7633 -0.2200  0.7779
31548SOL     OW99328   8.635  10.864   3.442 -0.6252 -0.6302 -0.1961
31548SOL    HW199329   8.581  10.937   3.472  1.5933  1.1350 -0.2743
31548SOL    HW299330   8.630  10.868   3.346  1.2685  0.9239 -0.2854
31549SOL     OW99331   0.884  11.811   3.546 -0.0179  0.3384  0.4568
31549SOL    HW199332   0.974  11.835   3.524  0.5873 -1.1006  1.2411
31549SOL    HW299333   0.874  11.835   3.638  0.3773 -1.6292  1.0594
31550SOL     OW99334   4.260   9.799   2.388 -0.1985  0.4320 -0.3716
31550SOL    HW199335   4.238   9.874   2.332 -1.2835  0.0796 -0.4412
31550SOL    HW299336   4.179   9.747   2.392  0.3723 -0.4506  0.1230
31551SOL     OW99337   9.404   7.956  10.857  0.2038 -1.1239 -0.3094
31551SOL    HW199338   9.359   7.953  10.942  1.1868  3.6798  0.6997
31551SOL    HW299339   9.336   7.934  10.793 -3.0296  2.7747  1.3270
31552SOL     OW99340   3.634   5.482   1.061  0.6033  0.2242  0.3382
31552SOL    HW199341   3.582   5.457   0.984  1.3098  1.0710 -0.4337
31552SOL    HW299342   3.589   5.440   1.135  0.1500 -0.9545 -0.5712
31553SOL     OW99343   2.616   0.557   6.746  0.1326  0.4632 -0.1205
31553SOL    HW199344   2.646   0.583   6.659  0.3806 -0.0710 -0.1978
31553SOL    HW299345   2.581   0.638   6.784  1.7178  1.1323 -0.0010
31554SOL     OW99346   6.306   4.293   1.586  0.6109 -0.0763 -0.2771
31554SOL    HW199347   6.325   4.291   1.679  1.5450 -0.1495 -0.4554
31554SOL    HW299348   6.210   4.299   1.580  0.3976 -1.8599  0.6737
31555SOL     OW99349  10.312  10.158   0.470 -0.0324 -0.0915 -0.7658
31555SOL    HW199350  10.283  10.148   0.379  1.2151 -0.2572 -1.1611
31555SOL    HW299351  10.386  10.219   0.466  0.9721 -1.2095 -0.0760
31556SOL     OW99352   3.509   8.729   6.032 -0.0084  0.5092  0.5134
31556SOL    HW199353   3.505   8.644   6.075  1.4206  0.2400  0.1794
31556SOL    HW299354   3.572   8.716   5.960 -0.5427  1.5744 -0.1735
31557SOL     OW99355   3.543   5.672   5.308 -0.0187  0.2818 -0.1162
31557SOL    HW199356   3.477   5.691   5.242 -0.4841  0.3335  0.3533
31557SOL    HW299357   3.573   5.758   5.338  1.0726  0.2711 -1.1029
31558SOL     OW99358   6.554   2.796   4.536 -0.3625 -0.3045 -0.2855
31558SOL    HW199359   6.524   2.708   4.558  0.0891 -0.5172 -0.5063
31558SOL    HW299360   6.561   2.841   4.620 -0.1860 -0.6107 -0.1366
31559SOL     OW99361   0.877   1.907   2.541  0.0942  0.0818  0.1583
31559SOL    HW199362   0.834   1.990   2.518  1.1904  0.1535 -1.8843
31559SOL    HW299363   0.970   1.929   2.546  0.3645 -0.9541 -0.1237
31560SOL     OW99364  10.484   1.198  11.357 -0.2564 -0.7960  0.4714
31560SOL    HW199365  10.559   1.248  11.389  0.6221 -2.0084  0.3571
31560SOL    HW299366  10.512   1.162  11.273 -0.8025 -1.6088  0.6237
31561SOL     OW99367   6.860   0.887   4.157 -0.0843 -0.0895  0.3320
31561SOL    HW199368   6.910   0.946   4.101  2.2357 -1.1656  1.1463
31561SOL    HW299369   6.809   0.834   4.096  0.2306  0.6205 -0.5749
31562SOL     OW99370   0.302   3.766   3.856 -0.4217 -0.2340 -0.2338
31562SOL    HW199371   0.330   3.787   3.945 -0.1774 -0.9177 -0.1388
31562SOL    HW299372   0.380   3.775   3.802 -0.4712 -0.2358 -0.3065
31563SOL     OW99373  11.656   6.474   6.499 -0.2569  0.1297  0.5416
31563SOL    HW199374  11.667   6.467   6.594  0.5137 -0.8433  0.3962
31563SOL    HW299375  11.578   6.527   6.488  0.1650  1.0492  1.7187
31564SOL     OW99376   5.234   2.855  10.269 -0.2997  0.1305  0.0751
31564SOL    HW199377   5.246   2.760  10.265  0.1876  0.1878  0.0774
31564SOL    HW299378   5.226   2.874  10.363 -1.4337 -0.0222  0.0225
31565SOL     OW99379   9.212   6.335   5.628  0.4554  0.1897  0.2026
31565SOL    HW199380   9.210   6.362   5.536 -1.7127 -0.5617 -0.0375
31565SOL    HW299381   9.219   6.417   5.677 -0.8193  0.8144 -0.6048
31566SOL     OW99382   5.815  11.147   3.451  0.3367 -0.6264 -0.3809
31566SOL    HW199383   5.800  11.087   3.378 -1.3992 -0.1234 -0.4740
31566SOL    HW299384   5.859  11.223   3.412  0.0362 -0.6533 -0.7690
31567SOL     OW99385   7.158   9.020   3.317  0.2854  0.8198  0.0782
31567SOL    HW199386   7.202   8.936   3.307 -0.4036  0.2680  1.5301
31567SOL    HW299387   7.125   9.040   3.229  0.1960 -0.5636 -0.2234
31568SOL     OW99388   7.583   5.060  10.508 -0.0504  0.0838  0.4181
31568SOL    HW199389   7.656   5.044  10.448  0.1058 -1.4424  0.9605
31568SOL    HW299390   7.599   5.000  10.581 -0.5167  1.5308  1.7584
31569SOL     OW99391  11.578   4.418  11.467  0.5275 -0.0749  0.2184
31569SOL    HW199392  11.631   4.341  11.488  0.3657  0.0906  1.2827
31569SOL    HW299393  11.634   4.472  11.411  0.6626 -0.9356 -0.4971
31570SOL     OW99394   2.847  11.258  10.716 -0.5428  0.2943  0.7423
31570SOL    HW199395   2.876  11.221  10.800  0.0956  0.5121  0.6262
31570SOL    HW299396   2.833  11.350  10.734 -1.4211  0.1456  0.8544
31571SOL     OW99397   1.666  11.650   0.982  0.5689  0.4312  0.3019
31571SOL    HW199398   1.604  11.722   0.992 -0.8320 -0.3872 -1.7978
31571SOL    HW299399   1.611  11.572   0.971  1.9862 -0.5352 -0.2649
31572SOL     OW99400   5.293   8.205   1.190  0.2601 -0.4751  0.1933
31572SOL    HW199401   5.265   8.199   1.099 -0.4276  0.5835  0.3095
31572SOL    HW299402   5.214   8.186   1.240  0.4871 -0.4530  0.5628
31573SOL     OW99403   7.045   2.530   4.587 -0.3032  0.0256  0.3329
31573SOL    HW199404   6.997   2.469   4.531  0.4008  0.2372 -0.5268
31573SOL    HW299405   6.981   2.557   4.653 -0.9721 -0.7081  0.0053
31574SOL     OW99406   6.993   8.360   6.320  0.7228  0.0414 -0.6034
31574SOL    HW199407   6.933   8.402   6.259 -0.1591 -0.7947 -0.3408
31574SOL    HW299408   6.995   8.418   6.396  0.3020  0.1046 -0.6404
31575SOL     OW99409   0.927   7.102  10.075  0.0141 -0.3266 -0.4595
31575SOL    HW199410   0.912   7.117   9.981 -0.2496 -0.0323 -0.3697
31575SOL    HW299411   0.996   7.036  10.077  0.5067  0.1698 -0.8587
31576SOL     OW99412   7.065   6.307  10.513  0.3347 -0.3150 -0.0719
31576SOL    HW199413   7.082   6.395  10.545 -0.2450 -0.0811 -0.3937
31576SOL    HW299414   7.011   6.266  10.580  1.6967 -0.8945  0.7196
31577SOL     OW99415   5.433  10.887   8.982 -0.1517 -0.5074 -0.5794
31577SOL    HW199416   5.438  10.817   9.047  0.7554  0.2031  0.1404
31577SOL    HW299417   5.343  10.882   8.948 -0.6605 -0.8676  0.7550
31578SOL     OW99418   7.684   4.574   1.814  0.8911  0.7243  0.7956
31578SOL    HW199419   7.613   4.625   1.853  1.3616  1.7371  0.3666
31578SOL    HW299420   7.648   4.543   1.731  0.7340  0.6755  0.8806
31579SOL     OW99421   3.706  10.965  11.020 -0.2689 -0.0551 -0.0643
31579SOL    HW199422   3.648  11.016  10.963  0.2016  0.1398 -0.3757
31579SOL    HW299423   3.733  11.028  11.087  2.1729  0.8429 -1.7449
31580SOL     OW99424   6.919   6.220   3.492 -0.4530 -0.1615  0.0489
31580SOL    HW199425   6.932   6.205   3.585 -1.2891  0.8209  0.3435
31580SOL    HW299426   7.003   6.257   3.462 -0.0278 -0.9018  0.3023
31581SOL     OW99427   3.782  10.584   0.589  0.1078 -0.2895 -0.5860
31581SOL    HW199428   3.832  10.570   0.670  0.0047 -2.3446 -0.8255
31581SOL    HW299429   3.836  10.545   0.520 -0.8637 -0.6736 -1.1512
31582SOL     OW99430   0.043   8.423  10.219  0.1620 -0.5038 -0.9358
31582SOL    HW199431   0.002   8.455  10.138 -0.9621  1.1672  0.2057
31582SOL    HW299432   0.137   8.429  10.202  0.0183  2.2846 -1.3303
31583SOL     OW99433   5.114   3.945   9.891  0.2600  0.0766  0.6302
31583SOL    HW199434   5.019   3.931   9.890  0.3568 -0.5904  0.6265
31583SOL    HW299435   5.147   3.882   9.955  0.8541 -0.6739 -0.3852
31584SOL     OW99436   2.386   5.712   0.725  0.1359 -0.3614 -0.2470
31584SOL    HW199437   2.313   5.729   0.665  0.5997  0.8673 -0.4847
31584SOL    HW299438   2.459   5.688   0.668  0.7135  1.2803 -0.2550
31585SOL     OW99439   2.386   2.650   9.492 -0.2626  0.2839 -0.1996
31585SOL    HW199440   2.374   2.743   9.515  1.0018  0.0027  1.9225
31585SOL    HW299441   2.427   2.612   9.570 -0.0175 -1.9038 -1.3293
31586SOL     OW99442   9.889   8.815   3.206  0.0825  0.2630  0.0579
31586SOL    HW199443   9.836   8.834   3.128 -0.4649  0.8377  0.5594
31586SOL    HW299444   9.873   8.890   3.264  1.0046  0.1637  0.4493
31587SOL     OW99445   4.531   4.163  11.904  0.1174  0.0023 -0.3367
31587SOL    HW199446   4.503   4.247  11.867 -1.3429 -0.4484 -0.3098
31587SOL    HW299447   4.492   4.160  11.991  0.2271 -0.6639 -0.3027
31588SOL     OW99448   3.119   7.585  11.189  0.1312 -0.3497 -0.3798
31588SOL    HW199449   3.179   7.659  11.179  1.5019 -1.5306 -1.2213
31588SOL    HW299450   3.175   7.511  11.210 -1.1156 -1.3575 -0.4862
31589SOL     OW99451   1.835   6.482   4.920 -0.1216 -0.1768 -0.0312
31589SOL    HW199452   1.785   6.416   4.871 -0.8504  1.0908 -1.0792
31589SOL    HW299453   1.780   6.560   4.918  0.6282  0.4255  1.3562
31590SOL     OW99454  10.311  10.197   7.085  0.1373 -0.2166 -0.1534
31590SOL    HW199455  10.356  10.172   7.165 -0.7298 -1.4041 -0.0134
31590SOL    HW299456  10.234  10.245   7.115  0.9710  1.3458 -0.3759
31591SOL     OW99457   2.226   0.119   5.142  0.4605 -0.0072 -0.5729
31591SOL    HW199458   2.259   0.050   5.200  1.7261  0.7438 -0.3556
31591SOL    HW299459   2.156   0.077   5.092 -0.9671 -0.5794  1.7622
31592SOL     OW99460   9.635   2.326   7.631  0.3592  0.0485 -0.3032
31592SOL    HW199461   9.650   2.326   7.726  0.2701 -2.1819 -0.2382
31592SOL    HW299462   9.720   2.350   7.593  0.0380  2.4034  0.3127
31593SOL     OW99463   8.657   1.287   7.991  0.0478 -0.6862 -0.1985
31593SOL    HW199464   8.666   1.339   7.912 -1.3239 -0.1208 -0.0110
31593SOL    HW299465   8.565   1.298   8.017 -0.1772 -2.8302  0.0966
31594SOL     OW99466   3.990   9.709   2.470 -0.3115  0.7673  0.1072
31594SOL    HW199467   4.035   9.737   2.550 -0.2405 -1.4117  0.9065
31594SOL    HW299468   3.903   9.749   2.477 -0.6763 -0.2098  1.8490
31595SOL     OW99469   9.072   3.533   7.071 -0.3192  0.1866  0.8644
31595SOL    HW199470   9.093   3.595   7.141 -0.6855  2.6743 -1.0906
31595SOL    HW299471   9.149   3.534   7.014 -0.8115 -0.1932  0.1697
31596SOL     OW99472   4.982   2.912   6.432 -0.4714  0.5818  0.2585
31596SOL    HW199473   4.899   2.887   6.472 -0.3832 -2.3470 -1.0896
31596SOL    HW299474   5.049   2.876   6.490 -0.3129 -1.5836 -1.1574
31597SOL     OW99475   6.438  11.130   8.978  0.3688 -0.0393 -0.2409
31597SOL    HW199476   6.413  11.041   8.955 -2.6932  0.4778  0.7170
31597SOL    HW299477   6.384  11.186   8.922  2.5370  1.2927 -1.1427
31598SOL     OW99478  10.276   2.840   0.831 -0.1302  0.0868  0.8715
31598SOL    HW199479  10.230   2.758   0.851 -1.3315  0.6170  0.3704
31598SOL    HW299480  10.365   2.812   0.806 -1.4674 -1.4468 -2.8176
31599SOL     OW99481   5.096  11.029   1.892 -0.0076 -0.1218  0.1166
31599SOL    HW199482   5.187  11.047   1.915 -0.0844 -0.3735  0.6388
31599SOL    HW299483   5.079  10.941   1.924 -0.2279 -0.3573 -0.6296
31600SOL     OW99484   2.180   6.736   0.598  0.1691  0.3797  0.3482
31600SOL    HW199485   2.157   6.796   0.527 -0.7357 -0.2455  0.1029
31600SOL    HW299486   2.235   6.670   0.557 -0.4452 -0.0438  0.1968
31601SOL     OW99487  10.460   6.064   6.585 -0.1627 -0.5762  0.3507
31601SOL    HW199488  10.425   6.087   6.671  1.2327 -0.9361  1.0465
31601SOL    HW299489  10.392   6.090   6.524 -1.6791 -1.3285  1.6371
31602SOL     OW99490  10.155   1.630   5.767  0.2568 -0.1193 -0.3333
31602SOL    HW199491  10.205   1.616   5.687 -0.5726  0.9828 -1.0792
31602SOL    HW299492  10.140   1.543   5.803  1.3239 -0.5622 -0.9469
31603SOL     OW99493   7.818   4.851   0.929 -0.1996 -0.1631  0.7276
31603SOL    HW199494   7.872   4.797   0.987 -0.4170  0.2594  1.3303
31603SOL    HW299495   7.806   4.933   0.977 -1.7532 -0.4119  0.8145
31604SOL     OW99496   5.745   0.241  10.250 -0.4873  0.3766 -0.1505
31604SOL    HW199497   5.749   0.336  10.248 -1.9144  0.4444 -0.5015
31604SOL    HW299498   5.757   0.214  10.159  2.5481  0.0372  0.2339
31605SOL     OW99499  11.834   6.573   6.847 -0.7313 -0.0467  0.2075
31605SOL    HW199500  11.907   6.524   6.809  0.6384  1.2343  1.0710
31605SOL    HW299501  11.757   6.543   6.798  0.5439 -0.4670 -1.6633
31606SOL     OW99502   0.303  11.286  11.101  0.3402  0.0384 -0.2704
31606SOL    HW199503   0.212  11.312  11.114 -0.2936 -0.9018 -2.4552
31606SOL    HW299504   0.306  11.195  11.129  1.4057  0.8635  2.6826
31607SOL     OW99505   2.924  11.084   3.259 -0.0791 -0.5395  0.3453
31607SOL    HW199506   2.951  11.000   3.224  1.4799  0.0155  0.1482
31607SOL    HW299507   2.895  11.134   3.183  1.7438  0.0836  0.0049
31608SOL     OW99508   9.040   2.753   7.711  0.3045 -0.1072  0.2890
31608SOL    HW199509   8.948   2.728   7.711 -0.3176  1.9544 -0.2803
31608SOL    HW299510   9.069   2.740   7.621  0.5200 -0.5668  0.4226
31609SOL     OW99511   9.898   0.671   0.516 -0.2505  0.1627 -0.0982
31609SOL    HW199512   9.990   0.692   0.533 -0.6162  1.1579  0.7886
31609SOL    HW299513   9.875   0.725   0.440 -0.4519  0.9668  0.5160
31610SOL     OW99514   9.350   2.239  11.860 -0.0154  0.4733 -0.6461
31610SOL    HW199515   9.392   2.273  11.939 -0.1552  1.0593 -0.8133
31610SOL    HW299516   9.256   2.253  11.875 -0.1289 -0.5147 -0.4159
31611SOL     OW99517   2.869   0.268   9.696 -0.2379  0.3212  0.3822
31611SOL    HW199518   2.789   0.294   9.651 -0.0789 -0.4592 -0.3922
31611SOL    HW299519   2.915   0.214   9.632  0.1752 -0.5060  1.3534
31612SOL     OW99520   0.794   2.325   4.151  0.1558 -0.3163  0.4604
31612SOL    HW199521   0.835   2.320   4.065  0.1300  0.7171  0.3761
31612SOL    HW299522   0.867   2.342   4.211  0.0696 -0.1765  0.5269
31613SOL     OW99523   1.300   5.633   4.043  0.4829 -0.4182  0.0758
31613SOL    HW199524   1.338   5.717   4.069 -0.3583 -0.1433  0.4446
31613SOL    HW299525   1.354   5.567   4.085  2.2827 -0.1505 -1.6608
31614SOL     OW99526   3.138   3.525   5.617  0.3466  0.1348 -0.5240
31614SOL    HW199527   3.143   3.464   5.543 -0.8837 -1.0839  0.3378
31614SOL    HW299528   3.205   3.493   5.678 -0.6559 -0.7357  0.1599
31615SOL     OW99529   5.097  11.072   9.845 -0.0120  0.0203 -0.5788
31615SOL    HW199530   5.094  11.075   9.749  2.7531  0.5006 -0.7437
31615SOL    HW299531   5.128  11.158   9.870  2.5640 -1.1134  0.4561
31616SOL     OW99532   3.294  11.184   0.298 -0.3351  0.5312  0.4593
31616SOL    HW199533   3.247  11.152   0.375 -0.1487  0.2395  0.4521
31616SOL    HW299534   3.306  11.106   0.244  0.6661  0.4900  0.7279
31617SOL     OW99535   1.331  11.949   0.358  0.1814  0.1962 -0.0080
31617SOL    HW199536   1.257  11.954   0.297 -0.8648  2.6564  1.3449
31617SOL    HW299537   1.333  12.034   0.402  2.0658 -0.7968  2.0537
31618SOL     OW99538   7.063   6.751  10.916 -0.0935 -0.6137  0.0486
31618SOL    HW199539   7.052   6.657  10.903  0.7832 -0.6786 -0.3060
31618SOL    HW299540   7.128   6.759  10.986 -0.0977 -0.2799  0.0181
31619SOL     OW99541  10.691   0.403  10.973 -0.3857  1.0036 -0.1552
31619SOL    HW199542  10.670   0.447  11.055 -1.1202  0.4890 -0.0600
31619SOL    HW299543  10.616   0.347  10.956  0.7316 -0.5790 -0.0355
31620SOL     OW99544  10.359   7.199   9.166 -0.1467  0.7620 -0.2711
31620SOL    HW199545  10.360   7.210   9.261  2.1016  1.6585 -0.3498
31620SOL    HW299546  10.376   7.286   9.131 -2.3704  0.7510 -1.6116
31621SOL     OW99547   0.807   9.455   2.892  0.1850 -0.4408  0.7496
31621SOL    HW199548   0.805   9.390   2.962  2.6292  0.1128  1.4061
31621SOL    HW299549   0.899   9.476   2.881 -0.3230  1.0018 -1.2557
31622SOL     OW99550   7.687   5.950   3.844 -0.1457  0.0081 -0.3667
31622SOL    HW199551   7.728   6.003   3.913 -1.4491  0.2913  0.2224
31622SOL    HW299552   7.708   5.860   3.867 -2.3462 -0.0842  1.7131
31623SOL     OW99553   9.290   5.281  11.151  0.3321 -0.2310  0.4226
31623SOL    HW199554   9.358   5.336  11.190 -0.1161  0.1820  0.6361
31623SOL    HW299555   9.316   5.273  11.060  0.8857 -0.4179  0.5918
31624SOL     OW99556  10.055   3.276   2.707 -0.1125  0.3764 -0.6201
31624SOL    HW199557  10.144   3.240   2.711 -0.1999  0.2233  0.0663
31624SOL    HW299558  10.049   3.316   2.620 -0.0856 -1.4710 -1.5196
31625SOL     OW99559   0.936   9.941   7.353  0.0083 -0.1182  0.3000
31625SOL    HW199560   0.965   9.910   7.439  1.6798  0.8050  0.1231
31625SOL    HW299561   0.904  10.030   7.369  0.3080  0.0500 -0.0017
31626SOL     OW99562  10.161   5.372   4.687  0.2903 -0.4223  0.2574
31626SOL    HW199563  10.108   5.349   4.763 -1.4281  0.0607 -0.7388
31626SOL    HW299564  10.123   5.455   4.656  2.3078  0.5010  0.0832
31627SOL     OW99565   7.854   2.238   1.633 -0.3330  0.4164  0.2451
31627SOL    HW199566   7.871   2.149   1.604 -1.0134  0.3806 -0.0795
31627SOL    HW299567   7.768   2.259   1.596 -0.1291  1.2510  0.2103
31628SOL     OW99568   4.804  11.340  10.912 -0.2094  0.3276  0.2540
31628SOL    HW199569   4.715  11.332  10.947 -0.5062 -2.2210 -0.8756
31628SOL    HW299570   4.838  11.251  10.913  1.8907  1.0682 -0.5065
31629SOL     OW99571   9.682   1.008   1.122  0.2665 -0.0842 -0.3465
31629SOL    HW199572   9.592   1.038   1.122  0.4419  0.5759  1.4163
31629SOL    HW299573   9.679   0.923   1.078 -1.3317 -0.3813  0.2677
31630SOL     OW99574   3.416   2.711   9.000 -0.0798 -0.4006  0.2667
31630SOL    HW199575   3.374   2.649   8.941  0.6992 -0.5450 -0.1536
31630SOL    HW299576   3.459   2.774   8.942 -1.0475  0.6827  0.6875
31631SOL     OW99577   8.491   7.459  10.865  0.0712 -0.5570  0.1261
31631SOL    HW199578   8.462   7.497  10.782  0.5997  1.2945  0.7313
31631SOL    HW299579   8.478   7.365  10.854 -1.3450 -0.2297 -1.4628
31632SOL     OW99580   4.871   1.499   4.263 -0.0068 -0.2971  0.6493
31632SOL    HW199581   4.944   1.499   4.201  0.8489 -1.7191  1.5829
31632SOL    HW299582   4.792   1.494   4.209  0.6118  0.5984 -0.3546
31633SOL     OW99583   4.044   8.968   0.841  0.1620 -0.0488 -0.3077
31633SOL    HW199584   3.975   9.034   0.852  0.1860 -0.0459 -0.1692
31633SOL    HW299585   4.040   8.944   0.748  0.2175  0.2178 -0.3783
31634SOL     OW99586   0.714   0.690   4.775 -0.3528 -0.0917 -0.3511
31634SOL    HW199587   0.636   0.635   4.777 -1.3400  1.2224 -1.2485
31634SOL    HW299588   0.765   0.656   4.701 -0.9863  0.2170 -0.9397
31635SOL     OW99589  11.464   9.888   5.522 -0.2703 -0.0903 -0.8663
31635SOL    HW199590  11.384   9.932   5.551  0.0828  1.7483 -2.4346
31635SOL    HW299591  11.457   9.799   5.556 -1.3470  0.9797  1.9390
31636SOL     OW99592   1.357   3.721   1.680  0.4337 -0.1842 -0.1052
31636SOL    HW199593   1.282   3.771   1.648  0.4184 -1.5205 -2.3626
31636SOL    HW299594   1.336   3.702   1.772 -1.3561  0.5766 -0.3180
31637SOL     OW99595   3.431   1.696   7.791 -0.2364  0.4892 -0.5990
31637SOL    HW199596   3.499   1.631   7.810  0.2768  1.1661 -0.0397
31637SOL    HW299597   3.382   1.659   7.718  0.4959 -0.1929 -0.7589
31638SOL     OW99598   1.754   8.956   0.547 -0.1074  0.4559 -0.1578
31638SOL    HW199599   1.729   8.864   0.560 -1.5489  0.9398  0.7271
31638SOL    HW299600   1.722   9.001   0.625 -0.2892  1.8752 -1.0135
31639SOL     OW99601   1.298   0.888   0.333  0.0042 -0.2311 -0.1009
31639SOL    HW199602   1.245   0.909   0.410 -0.1281 -1.2691  0.0955
31639SOL    HW299603   1.262   0.944   0.264 -0.8359 -0.3612  0.2214
31640SOL     OW99604   2.922  10.313  11.148  0.5031 -0.2006 -0.6496
31640SOL    HW199605   2.963  10.346  11.068 -0.3220  0.1840 -0.9306
31640SOL    HW299606   2.830  10.339  11.140 -0.1187 -2.2034 -0.6878
31641SOL     OW99607   2.585   0.192   1.395  0.1813  0.0265  0.4765
31641SOL    HW199608   2.632   0.202   1.478  0.5783 -1.3569  0.4390
31641SOL    HW299609   2.554   0.281   1.375  0.7656  0.5356  1.6857
31642SOL     OW99610   1.092   1.696   0.545 -0.8320  0.1148 -0.1274
31642SOL    HW199611   1.042   1.699   0.463  0.2912  0.6012 -0.8133
31642SOL    HW299612   1.072   1.778   0.588 -0.8908  0.1569 -0.2334
31643SOL     OW99613   9.286   3.790   7.074 -0.4436 -0.2648  0.1285
31643SOL    HW199614   9.369   3.826   7.043 -0.2995 -0.8803 -0.2242
31643SOL    HW299615   9.301   3.771   7.167 -0.3884  0.1893  0.2134
31644SOL     OW99616  10.117   8.770   7.921 -0.4154  0.8199 -0.0537
31644SOL    HW199617  10.130   8.778   7.826 -0.2623  0.7531 -0.0388
31644SOL    HW299618  10.145   8.681   7.941 -3.8636 -0.5102 -0.5083
31645SOL     OW99619   8.592  11.472   7.968  0.0197  0.5044 -0.2831
31645SOL    HW199620   8.536  11.419   8.024 -0.0481 -0.1545 -0.9564
31645SOL    HW299621   8.536  11.499   7.896  0.4117  0.2958 -0.6775
31646SOL     OW99622   7.200   2.358   3.948  0.3781  0.1645 -0.1102
31646SOL    HW199623   7.120   2.310   3.970 -0.0260  0.6058 -0.5936
31646SOL    HW299624   7.270   2.295   3.964 -0.1489 -0.6557 -0.8591
31647SOL     OW99625  10.403   5.267   7.847 -0.0275  0.2145  0.5238
31647SOL    HW199626  10.429   5.353   7.878  0.1466  0.1325  0.6072
31647SOL    HW299627  10.365   5.283   7.760  0.0808  0.3631  0.5033
31648SOL     OW99628   3.906   2.399   1.982  0.2486 -0.1882 -0.0278
31648SOL    HW199629   3.974   2.340   2.016  0.9848  1.2789  1.1584
31648SOL    HW299630   3.865   2.437   2.060 -1.1420 -0.1361 -0.7473
31649SOL     OW99631   2.437   9.223   9.129  0.4362 -0.1184  0.1309
31649SOL    HW199632   2.524   9.224   9.091 -0.0593 -0.7339 -1.0683
31649SOL    HW299633   2.445   9.168   9.207  0.6729 -2.0027 -1.1568
31650SOL     OW99634   0.469  11.595   9.881  0.2064 -0.1536 -0.4046
31650SOL    HW199635   0.430  11.645   9.809  1.0384  0.6071 -0.3529
31650SOL    HW299636   0.397  11.544   9.918 -1.1030  2.3174  0.6559
31651SOL     OW99637   0.522   3.504   8.822  0.4542  0.4736 -0.2028
31651SOL    HW199638   0.578   3.431   8.850  0.0814  0.6943  1.2055
31651SOL    HW299639   0.571   3.545   8.751  1.1414 -0.5417 -0.3439
31652SOL     OW99640   9.343   5.069   5.158  0.4850 -0.4654  0.2270
31652SOL    HW199641   9.304   4.991   5.119 -1.6731  0.0811  1.1677
31652SOL    HW299642   9.436   5.062   5.136 -0.0690 -1.9130 -1.9851
31653SOL     OW99643   5.785   1.430   5.219 -0.1369 -0.2034  0.3135
31653SOL    HW199644   5.862   1.374   5.227  0.4982  0.8432  2.0513
31653SOL    HW299645   5.802   1.483   5.141  0.3387 -0.7972  0.0072
31654SOL     OW99646   6.047   2.926   1.789 -0.0415  0.1756  0.8982
31654SOL    HW199647   6.073   2.863   1.721  0.1430  0.1338  1.0067
31654SOL    HW299648   6.082   3.010   1.759 -0.6227  0.3061  0.5569
31655SOL     OW99649   9.455   0.174  11.543 -0.1525  0.0289 -0.0657
31655SOL    HW199650   9.452   0.111  11.471  2.2264 -0.3329  0.0513
31655SOL    HW299651   9.473   0.122  11.621 -1.7616  0.5216  0.6838
31656SOL     OW99652   1.818   1.185  10.226  0.3011  0.3129 -0.3234
31656SOL    HW199653   1.902   1.149  10.196  0.3597 -0.2077  0.4441
31656SOL    HW299654   1.761   1.108  10.236  0.4495  0.3891  1.4203
31657SOL     OW99655  10.965   7.229   9.987  0.5554 -0.1786  0.5045
31657SOL    HW199656  10.985   7.297  10.051  0.4259  0.4007 -0.0559
31657SOL    HW299657  11.016   7.153  10.015 -0.2259 -0.2565  1.8456
31658SOL     OW99658   3.024   6.968   3.831 -0.0876 -0.1451  0.7284
31658SOL    HW199659   2.940   6.933   3.802 -0.4005  0.5870  0.7492
31658SOL    HW299660   3.015   7.063   3.824  0.2046  0.0130  2.1773
31659SOL     OW99661  11.079  11.331  10.006 -0.4487 -0.5248  0.4147
31659SOL    HW199662  11.146  11.267   9.983  0.2434  0.2462  0.2643
31659SOL    HW299663  11.121  11.416   9.994 -1.7536  0.0094 -0.7001
31660SOL     OW99664  11.886   7.793   4.029 -0.6576 -0.1913 -0.4220
31660SOL    HW199665  11.824   7.855   4.066 -0.2652  0.5255 -0.9340
31660SOL    HW299666  11.919   7.837   3.950  2.7532  0.8201  1.3486
31661SOL     OW99667   0.517  11.053   7.030  0.5050 -0.3171  0.1416
31661SOL    HW199668   0.605  11.023   7.050  0.3930 -0.2914  0.7003
31661SOL    HW299669   0.528  11.143   7.000  0.6166 -0.1167  0.7721
31662SOL     OW99670   7.216  10.340   2.243 -0.1801  0.0240  0.2544
31662SOL    HW199671   7.285  10.309   2.184 -0.3645  0.4680 -0.2027
31662SOL    HW299672   7.238  10.302   2.328 -0.3549 -1.2794 -0.2577
31663SOL     OW99673   9.328   9.814   3.257  0.0217 -0.1557 -0.8694
31663SOL    HW199674   9.423   9.803   3.263  0.1309  0.6364 -1.0196
31663SOL    HW299675   9.298   9.736   3.210  0.3071 -1.5403  1.1331
31664SOL     OW99676   2.270   8.932   1.500 -0.4009 -0.4221 -0.1090
31664SOL    HW199677   2.363   8.953   1.491 -0.7521  0.5067 -1.8963
31664SOL    HW299678   2.269   8.850   1.550  1.3220 -0.0526  0.5962
31665SOL     OW99679   6.309  10.558   3.771 -0.0988  0.0074  0.6755
31665SOL    HW199680   6.370  10.520   3.709  0.2804  1.1741  0.3106
31665SOL    HW299681   6.318  10.504   3.850  0.4967 -0.5792  0.2135
31666SOL     OW99682   5.645   8.506   9.845  0.3395  0.3308  0.7404
31666SOL    HW199683   5.568   8.499   9.901 -0.1621 -0.3178 -0.0042
31666SOL    HW299684   5.681   8.593   9.863 -0.1900  0.3839  1.5685
31667SOL     OW99685   1.390   1.529   6.909  0.4670 -0.0949  0.1997
31667SOL    HW199686   1.367   1.525   6.816 -0.2014  1.4848  0.2687
31667SOL    HW299687   1.311   1.561   6.952  0.7431 -0.8796  1.3491
31668SOL     OW99688  11.850   7.479  10.895  0.3587 -0.5835  0.1428
31668SOL    HW199689  11.778   7.535  10.926  0.1240 -0.7850 -0.0327
31668SOL    HW299690  11.925   7.538  10.888  0.0725 -0.2557 -0.1943
31669SOL     OW99691  11.257   9.519   5.101  0.0716  0.0213  0.1923
31669SOL    HW199692  11.280   9.607   5.074  2.1381 -0.8230 -1.0529
31669SOL    HW299693  11.314   9.500   5.175 -1.1042  0.0755  1.1340
31670SOL     OW99694  10.651  10.575   0.504 -0.4337  0.3131  0.4369
31670SOL    HW199695  10.598  10.599   0.580  0.8977  1.9343  0.9152
31670SOL    HW299696  10.742  10.582   0.535  0.0962 -1.0425 -0.7287
31671SOL     OW99697   1.854   8.132  10.075  0.0513 -0.0062  0.4212
31671SOL    HW199698   1.815   8.155   9.991  0.9103 -1.2588 -0.3781
31671SOL    HW299699   1.934   8.085  10.051  0.8913  0.5653  1.9630
31672SOL     OW99700   3.342  10.608   8.071  0.3180 -0.0769  0.1177
31672SOL    HW199701   3.323  10.700   8.090 -0.6778 -0.3147  0.3548
31672SOL    HW299702   3.277  10.559   8.123  0.0825 -0.8744 -0.8969
31673SOL     OW99703   3.180   9.403   0.173 -0.2706 -0.1651 -0.4919
31673SOL    HW199704   3.086   9.421   0.170 -0.4445 -0.8313  0.4379
31673SOL    HW299705   3.195   9.370   0.262  0.8678  0.0497 -0.5902
31674SOL     OW99706   8.599   7.464  11.285  0.2893 -0.2019 -0.4532
31674SOL    HW199707   8.637   7.496  11.203  2.0585 -0.4713  0.1953
31674SOL    HW299708   8.600   7.369  11.276 -0.2855 -0.2068 -0.4441
31675SOL     OW99709   3.949   9.801   6.472  0.5026 -0.0221 -0.5029
31675SOL    HW199710   3.910   9.770   6.554  1.4067  0.0749 -0.0256
31675SOL    HW299711   3.874   9.823   6.417 -0.1376 -1.1417 -0.1178
31676SOL     OW99712   1.584   2.598   9.298  0.4214  0.1680 -0.1366
31676SOL    HW199713   1.642   2.669   9.271 -1.1480  1.1908 -0.9073
31676SOL    HW299714   1.496   2.633   9.288 -0.3799 -1.6425  0.1778
31677SOL     OW99715   5.129   0.933   2.010 -0.7788  0.2049 -0.4017
31677SOL    HW199716   5.119   1.026   1.992  0.0133  0.2929 -0.4107
31677SOL    HW299717   5.100   0.923   2.101  0.2590  0.6757  0.0016
31678SOL     OW99718   4.160   2.901   6.406 -0.5159 -0.6560 -0.1486
31678SOL    HW199719   4.243   2.891   6.452 -0.2841 -1.4230 -0.7196
31678SOL    HW299720   4.116   2.973   6.452 -0.2742 -1.3567  1.2165
31679SOL     OW99721   7.643   0.391   2.347  0.6007 -0.1589 -0.0506
31679SOL    HW199722   7.694   0.462   2.308 -0.1122  0.7680  0.6458
31679SOL    HW299723   7.696   0.360   2.420  0.8455 -0.2427 -0.2629
31680SOL     OW99724   4.791   8.298   0.058  0.3192 -0.0312 -0.5397
31680SOL    HW199725   4.834   8.249   0.128 -0.0615  0.4872  0.0666
31680SOL    HW299726   4.713   8.247   0.038 -0.4586  0.6550  0.5879
31681SOL     OW99727  10.592   5.594  10.553 -0.6718  0.4565 -0.0509
31681SOL    HW199728  10.523   5.653  10.583 -0.3905 -0.0315  1.6662
31681SOL    HW299729  10.658   5.652  10.513 -0.4555  1.3148  1.4870
31682SOL     OW99730   0.522   6.483   8.434 -0.3890 -0.4765 -0.2923
31682SOL    HW199731   0.604   6.440   8.456 -1.5075 -1.4639  2.3993
31682SOL    HW299732   0.523   6.563   8.487 -0.1289  0.8188 -2.1580
31683SOL     OW99733   2.957   9.522   9.542  0.2580  0.1383 -0.2441
31683SOL    HW199734   2.896   9.566   9.602  0.1227  0.4828 -0.6262
31683SOL    HW299735   2.915   9.529   9.457 -0.1155 -1.3994 -0.1989
31684SOL     OW99736  11.619  11.520  10.059  0.0030 -0.0915  0.0318
31684SOL    HW199737  11.587  11.589  10.001 -0.2599 -0.0303  0.2476
31684SOL    HW299738  11.573  11.535  10.141 -0.9451 -1.2280 -0.2669
31685SOL     OW99739  11.228   7.462  10.604 -0.2579  0.3021  0.2235
31685SOL    HW199740  11.218   7.557  10.592  0.4015  0.3352 -0.1223
31685SOL    HW299741  11.297   7.453  10.669  0.3103  0.0588 -0.3997
31686SOL     OW99742   5.760   3.769  10.059 -0.0320  0.4432  0.3329
31686SOL    HW199743   5.690   3.738  10.002  0.9614 -1.5512  0.0963
31686SOL    HW299744   5.719   3.777  10.145 -0.6421 -0.3791  0.1344
31687SOL     OW99745   7.910  10.461   1.382  0.3455 -0.1472  0.4547
31687SOL    HW199746   7.830  10.512   1.366 -0.7846 -1.7769  0.6206
31687SOL    HW299747   7.951  10.454   1.296 -1.3785 -1.8993 -0.3112
31688SOL     OW99748  11.322   4.169  11.543  0.0767 -0.3057 -0.6478
31688SOL    HW199749  11.341   4.235  11.476  1.0298  0.1440  0.0503
31688SOL    HW299750  11.226   4.166  11.545  0.0218  0.3776 -1.3474
31689SOL     OW99751   9.832   8.431   7.801 -0.1950  0.2392 -0.3209
31689SOL    HW199752   9.859   8.348   7.840 -0.8393  0.0318 -0.2978
31689SOL    HW299753   9.820   8.490   7.876 -1.2260 -0.0984 -0.2051
31690SOL     OW99754   6.598   4.393   2.429 -0.0813  0.2291 -0.5254
31690SOL    HW199755   6.570   4.463   2.487 -1.0179 -0.1983 -0.4384
31690SOL    HW299756   6.557   4.413   2.345  0.9472  0.6319 -0.9507
31691SOL     OW99757   1.066   9.400   8.361 -0.8289  0.5992 -0.1311
31691SOL    HW199758   0.983   9.430   8.325  0.1919  0.2123 -3.0404
31691SOL    HW299759   1.133   9.449   8.312  0.7076 -0.1116  1.1379
31692SOL     OW99760   0.931   2.054  11.239  0.2182 -0.1047 -0.1217
31692SOL    HW199761   0.968   2.054  11.151  0.9647  0.7116  0.1774
31692SOL    HW299762   0.836   2.064  11.225  0.5719  3.6813 -0.7862
31693SOL     OW99763   6.865   3.091   8.073 -0.0903  0.0820  0.4851
31693SOL    HW199764   6.872   3.099   7.978  0.8749  0.4383  0.5782
31693SOL    HW299765   6.773   3.111   8.092 -0.7014 -1.5580 -0.5139
31694SOL     OW99766   5.340  11.772   2.042  0.1425  0.4710 -0.0836
31694SOL    HW199767   5.265  11.777   2.101  0.7776 -0.6452  0.8525
31694SOL    HW299768   5.396  11.845   2.068  0.6813 -0.3309  1.1114
31695SOL     OW99769   1.067   0.117   4.642  0.3933 -0.2760 -0.2091
31695SOL    HW199770   1.059   0.162   4.726 -2.0933 -0.4715 -0.2589
31695SOL    HW299771   0.978   0.088   4.622  0.7725  0.3771 -3.2641
31696SOL     OW99772   7.129   9.099  10.167  0.1674 -0.2595  0.4398
31696SOL    HW199773   7.094   9.039  10.102 -1.2776  0.3256  0.6222
31696SOL    HW299774   7.085   9.183  10.148  3.0970  1.1544 -0.6515
31697SOL     OW99775   2.783   4.540  11.657 -0.1556 -0.3945  0.0906
31697SOL    HW199776   2.715   4.479  11.684  0.3452 -1.2137 -0.4441
31697SOL    HW299777   2.861   4.485  11.646  0.4729  0.4516  0.2444
31698SOL     OW99778   2.709   5.447  10.687 -0.5257 -0.6215 -0.4218
31698SOL    HW199779   2.634   5.505  10.701  0.4380  0.1199  2.3086
31698SOL    HW299780   2.686   5.367  10.735  0.6817 -0.0815  1.1484
31699SOL     OW99781   4.432   9.000   2.133 -0.3059 -0.6745 -0.0320
31699SOL    HW199782   4.445   8.908   2.154 -1.9153 -0.5657  1.7515
31699SOL    HW299783   4.382   9.034   2.207 -1.8113  1.0767 -1.7497
31700SOL     OW99784  11.647   6.138   8.963  0.4954 -0.2228  0.6755
31700SOL    HW199785  11.580   6.184   8.912  0.2446  1.5963  2.5310
31700SOL    HW299786  11.728   6.151   8.913  0.2949  1.6944  0.7759
31701SOL     OW99787   5.119   6.629  10.171 -0.1207  0.0408  0.7361
31701SOL    HW199788   5.167   6.657  10.093  1.4793 -0.1640  1.6051
31701SOL    HW299789   5.093   6.539  10.151 -1.9288  0.7843 -0.5252
31702SOL     OW99790   2.782   2.943   2.761 -0.3616 -0.0481 -0.8207
31702SOL    HW199791   2.869   2.983   2.767 -0.3863 -0.1321  0.1460
31702SOL    HW299792   2.797   2.862   2.713  0.5213 -1.2006  1.2751
31703SOL     OW99793  11.920   3.127   0.250  0.5439 -0.4315 -0.5866
31703SOL    HW199794  11.949   3.109   0.339 -0.1092  1.5374  0.0927
31703SOL    HW299795  11.992   3.098   0.194  1.1700 -1.2570  0.6112
31704SOL     OW99796   3.260   1.258   5.594  0.1023 -0.3884 -0.2034
31704SOL    HW199797   3.281   1.311   5.517  0.8101 -0.3780 -0.0078
31704SOL    HW299798   3.177   1.215   5.572 -0.8368  1.2966 -0.1117
31705SOL     OW99799   1.569   3.836   3.171  0.3199 -0.1988  0.1775
31705SOL    HW199800   1.634   3.857   3.105 -0.6306 -0.7876 -0.9727
31705SOL    HW299801   1.591   3.747   3.199  1.5466  0.5273  1.6980
31706SOL     OW99802   1.289   4.855   5.860 -0.0345  0.1046 -0.3242
31706SOL    HW199803   1.300   4.874   5.953  0.2752 -2.2540  0.1978
31706SOL    HW299804   1.306   4.761   5.853 -3.7634 -0.6178 -2.1319
31707SOL     OW99805   2.256  10.424   5.497  0.3585 -0.3759  0.6413
31707SOL    HW199806   2.252  10.422   5.592 -0.4449 -1.3189  0.6154
31707SOL    HW299807   2.349  10.434   5.476  0.6509 -1.1098  1.5290
31708SOL     OW99808  10.525   9.573   1.944  0.2397  0.3621 -0.1729
31708SOL    HW199809  10.457   9.518   1.984 -0.1530  0.3236 -0.8836
31708SOL    HW299810  10.495   9.663   1.960  1.3116  0.4334  1.7501
31709SOL     OW99811   8.246   2.164   3.511  0.1193 -0.4408  0.0838
31709SOL    HW199812   8.215   2.238   3.459 -0.9745 -0.8071  0.1771
31709SOL    HW299813   8.179   2.152   3.579  0.8639 -0.7903  0.7737
31710SOL     OW99814  11.999   9.045   5.438 -0.1424  0.4980  0.0643
31710SOL    HW199815  11.938   9.032   5.510 -0.3140  0.3440 -0.1075
31710SOL    HW299816  12.000   9.140   5.424 -0.1732  0.5199  0.2153
31711SOL     OW99817   4.480   8.194   3.948 -0.0987 -0.2277 -0.6771
31711SOL    HW199818   4.494   8.205   3.854  0.4222  0.7456 -0.4981
31711SOL    HW299819   4.412   8.257   3.970 -1.9691 -2.0782 -0.7912
31712SOL     OW99820   1.218   6.165   8.651  1.0820  0.0720  0.2920
31712SOL    HW199821   1.249   6.200   8.567  1.6469 -1.4086 -0.1643
31712SOL    HW299822   1.295   6.123   8.689 -0.0017 -2.7030 -0.3178
31713SOL     OW99823   5.166   1.660   8.449  0.0804 -0.3084  0.3436
31713SOL    HW199824   5.258   1.684   8.454 -0.0581  0.2234  0.4383
31713SOL    HW299825   5.129   1.723   8.386 -0.1901 -0.6047  0.2035
31714SOL     OW99826   4.352   2.011  11.358 -0.6862 -0.1337  0.1648
31714SOL    HW199827   4.367   2.036  11.449 -0.4073  1.3778 -0.2600
31714SOL    HW299828   4.424   2.052  11.310 -0.5829 -1.2655 -0.7022
31715SOL     OW99829   1.799   6.094   6.013 -0.2073 -0.2395  0.1482
31715SOL    HW199830   1.795   5.999   6.011  0.5729 -0.2798  0.1246
31715SOL    HW299831   1.892   6.114   6.024  0.2333  0.5659 -3.6963
31716SOL     OW99832   7.187   5.929   4.844 -0.2066 -0.4416 -0.0897
31716SOL    HW199833   7.231   5.871   4.782 -0.7989 -0.3092 -0.6468
31716SOL    HW299834   7.139   5.991   4.789  0.0973  0.3342  0.4993
31717SOL     OW99835   0.359   4.119   7.954 -0.3823  0.4884 -0.0778
31717SOL    HW199836   0.303   4.054   7.997 -1.0520  0.5136 -0.9015
31717SOL    HW299837   0.444   4.109   7.998 -0.9593  0.3147  1.0562
31718SOL     OW99838   4.466   2.892   1.397  0.0752  0.6224  0.1836
31718SOL    HW199839   4.549   2.926   1.363  0.5738  0.0234  0.7743
31718SOL    HW299840   4.399   2.938   1.346  0.7754 -0.2280 -1.6068
31719SOL     OW99841   0.188   7.085   4.462  0.0356  0.0970 -0.3188
31719SOL    HW199842   0.175   7.010   4.403 -2.4290 -0.3761  0.6884
31719SOL    HW299843   0.271   7.066   4.506 -1.1846 -2.8916  0.9735
31720SOL     OW99844   4.841   0.060   0.599 -0.0508 -0.7764 -0.6844
31720SOL    HW199845   4.865   0.056   0.691 -0.1862  0.9897 -0.5455
31720SOL    HW299846   4.748   0.083   0.599  0.3456  0.9972 -1.2249
31721SOL     OW99847  10.528  10.487   5.203  0.2093 -0.0537  0.5763
31721SOL    HW199848  10.507  10.435   5.280  2.7093 -2.7645 -0.3915
31721SOL    HW299849  10.456  10.471   5.142  0.0405 -0.9005  0.9884
31722SOL     OW99850   9.879   1.675   6.258  0.4414 -0.5333  0.5129
31722SOL    HW199851   9.823   1.679   6.180 -0.4294 -0.4028  1.1226
31722SOL    HW299852   9.946   1.741   6.243 -0.7223  0.7232  0.6159
31723SOL     OW99853  11.341   5.401  10.513 -0.0792 -0.0634 -0.1093
31723SOL    HW199854  11.371   5.374  10.600 -1.6118  0.4708  0.6160
31723SOL    HW299855  11.368   5.493  10.506 -1.0266  0.2508  0.3102
31724SOL     OW99856   5.443   3.997   1.276 -0.3679 -0.5024 -0.1412
31724SOL    HW199857   5.368   3.989   1.335 -1.5074 -0.7985 -1.5573
31724SOL    HW299858   5.412   3.959   1.193  0.8645  0.7065 -1.1996
31725SOL     OW99859   5.614   4.305   5.479 -0.1277 -0.3554  0.5247
31725SOL    HW199860   5.565   4.234   5.437 -0.4600 -1.2619  2.3679
31725SOL    HW299861   5.561   4.383   5.465 -0.3162 -0.6570 -0.5518
31726SOL     OW99862   6.365  11.072  10.977 -0.1953 -0.2769 -0.1272
31726SOL    HW199863   6.279  11.054  11.015 -0.3623 -1.7804 -1.1263
31726SOL    HW299864   6.369  11.017  10.899  1.2208  0.6510 -0.7582
31727SOL     OW99865   3.788   3.112   4.559 -0.2196 -0.0582  0.4519
31727SOL    HW199866   3.861   3.052   4.542 -0.3808 -0.3133  0.6677
31727SOL    HW299867   3.824   3.199   4.539  0.1465 -0.1820  0.5632
31728SOL     OW99868   5.647  10.024   8.093  0.3951 -0.6814  0.4765
31728SOL    HW199869   5.739  10.004   8.105  0.5000  0.1163  1.1650
31728SOL    HW299870   5.601   9.970   8.157  0.4216 -0.7913  0.4019
31729SOL     OW99871   6.159   4.817  10.314 -0.1971  0.2479  0.4948
31729SOL    HW199872   6.241   4.857  10.344  0.3307 -1.3821  1.3682
31729SOL    HW299873   6.157   4.834  10.220  0.4213  1.5395  0.6916
31730SOL     OW99874   7.777   9.115  11.950 -0.7241 -0.0116 -0.4328
31730SOL    HW199875   7.761   9.206  11.977  0.6525  1.0826 -2.9299
31730SOL    HW299876   7.872   9.109  11.942 -0.7827 -1.7638 -0.0982
31731SOL     OW99877   7.895   7.488   7.447  0.3807 -0.0403  0.0374
31731SOL    HW199878   7.980   7.473   7.490 -0.2993  0.6356  1.6829
31731SOL    HW299879   7.878   7.406   7.401  1.7582 -0.3201 -0.0374
31732SOL     OW99880   5.811   0.495   2.097  0.0699  0.3735 -0.0992
31732SOL    HW199881   5.735   0.482   2.153 -0.3679 -0.0971 -0.7779
31732SOL    HW299882   5.840   0.406   2.076  1.8908  0.5126  1.5508
31733SOL     OW99883   0.641   8.432   5.834 -0.1269  0.4162  0.4910
31733SOL    HW199884   0.701   8.459   5.904  0.6964 -0.7912  0.2884
31733SOL    HW299885   0.626   8.511   5.783  0.1378  1.0671  1.3995
31734SOL     OW99886  10.196   1.052  10.283  0.0795  0.3352 -0.0524
31734SOL    HW199887  10.129   1.071  10.218 -0.2580  1.5686  0.6106
31734SOL    HW299888  10.259   0.996  10.238  0.5255  2.1709 -1.8373
31735SOL     OW99889  11.513  10.160   4.492 -0.4287  0.1832  0.1811
31735SOL    HW199890  11.519  10.136   4.400 -0.4006  1.3414 -0.1356
31735SOL    HW299891  11.597  10.131   4.529  0.2181  1.1099 -0.5134
31736SOL     OW99892   1.027   3.977   1.095  0.1363 -0.3921  0.3077
31736SOL    HW199893   1.075   3.946   1.172 -3.4654 -1.5500  2.3041
31736SOL    HW299894   0.966   3.906   1.074 -0.3274  0.6851 -2.4861
31737SOL     OW99895  11.663   9.150   9.998  0.0137  0.2568  0.8701
31737SOL    HW199896  11.730   9.083  10.014 -1.0013 -1.6833 -2.1291
31737SOL    HW299897  11.713   9.226   9.967  0.9270 -0.9312 -0.7045
31738SOL     OW99898   1.354   2.983   5.288 -0.5293 -0.4528  0.2202
31738SOL    HW199899   1.305   2.913   5.245 -2.5925  0.3643  1.0882
31738SOL    HW299900   1.370   2.950   5.376  1.4736 -1.1213 -0.3459
31739SOL     OW99901  10.237   1.932  11.073  0.1307  1.0743  0.0359
31739SOL    HW199902  10.276   1.992  11.137 -1.7526  0.9085  1.4031
31739SOL    HW299903  10.267   1.845  11.100 -1.4728  0.9017  1.3585
31740SOL     OW99904   9.558   0.940   6.492 -0.6758  0.1612  0.6088
31740SOL    HW199905   9.595   0.867   6.542 -0.6082 -0.3434 -0.1638
31740SOL    HW299906   9.634   0.986   6.456 -0.7476 -0.9651 -1.1063
31741SOL     OW99907   7.102   9.812   8.959  0.0448 -0.1100 -0.8928
31741SOL    HW199908   7.157   9.803   8.881  0.6876  0.9648 -0.5797
31741SOL    HW299909   7.090   9.906   8.969  0.9749 -0.1382  0.9808
31742SOL     OW99910   1.051   5.584  11.546 -0.2198  0.0647 -0.0546
31742SOL    HW199911   1.021   5.497  11.572  0.2147  0.2786  1.2295
31742SOL    HW299912   1.121   5.567  11.483 -1.0980 -0.4705 -0.9169
31743SOL     OW99913  10.591   0.052  11.206 -0.9282  0.1687 -0.0554
31743SOL    HW199914  10.506   0.073  11.244 -1.8682  0.2473 -2.0698
31743SOL    HW299915  10.654   0.101  11.259 -2.3346  1.7188  0.2518
31744SOL     OW99916   0.593   2.603   9.429  0.2469 -0.3508  0.4635
31744SOL    HW199917   0.506   2.606   9.468 -0.1141 -0.6385 -0.3033
31744SOL    HW299918   0.649   2.648   9.492 -0.3094 -0.8552  1.3357
31745SOL     OW99919   6.377   5.924   7.234  0.1778  0.3159  0.0038
31745SOL    HW199920   6.316   5.855   7.259  0.0032  0.1737 -0.7977
31745SOL    HW299921   6.434   5.935   7.310  1.0732 -1.6329 -0.3254
31746SOL     OW99922   5.140  11.520   3.036  0.1483 -0.3072  0.0203
31746SOL    HW199923   5.076  11.526   3.106  0.1418 -0.2447  0.0096
31746SOL    HW299924   5.091  11.545   2.957  0.1620 -0.3497 -0.0022
31747SOL     OW99925   2.399  10.738   6.896  0.2895  0.5489  0.3348
31747SOL    HW199926   2.463  10.804   6.872  1.1207 -0.8579 -1.5560
31747SOL    HW299927   2.316  10.786   6.899  1.1213  2.0369  1.0241
31748SOL     OW99928   4.166   2.545  11.252  0.2609  0.2162 -0.0497
31748SOL    HW199929   4.262   2.546  11.261  0.4028  0.0687 -1.2974
31748SOL    HW299930   4.140   2.457  11.278  0.3664  0.5111  1.0834
31749SOL     OW99931   8.064   0.174   9.728 -0.2593  0.0557 -0.4861
31749SOL    HW199932   8.018   0.091   9.741  0.0011  0.1479  1.3505
31749SOL    HW299933   8.155   0.154   9.750 -0.2254  0.8385  0.1532
31750SOL     OW99934  10.688  10.180   6.718 -0.3753  0.0760 -0.2823
31750SOL    HW199935  10.635  10.258   6.704  1.9787  1.8043 -0.2559
31750SOL    HW299936  10.670  10.154   6.809  0.4328  1.9917  0.4717
31751SOL     OW99937   5.177   6.197   7.507  0.1857  0.3673 -0.1059
31751SOL    HW199938   5.172   6.190   7.412  1.3970  0.8416 -0.2119
31751SOL    HW299939   5.269   6.215   7.526 -0.3457  2.1817  1.0190
31752SOL     OW99940  11.571  10.839   5.997 -0.5992  0.2042 -0.1902
31752SOL    HW199941  11.575  10.782   5.921 -3.3559  0.4708 -0.6362
31752SOL    HW299942  11.611  10.921   5.968 -0.8157  0.0078 -1.0671
31753SOL     OW99943   7.361  11.130   9.154  0.3733  0.4366  0.2162
31753SOL    HW199944   7.360  11.043   9.115  2.5335  1.0836 -1.4418
31753SOL    HW299945   7.325  11.117   9.242  1.2383 -2.2421  0.2576
31754SOL     OW99946   3.905   4.902  10.176 -0.3215  0.1353 -0.1291
31754SOL    HW199947   3.890   4.949  10.094 -0.9251 -0.6885 -0.5075
31754SOL    HW299948   3.843   4.829  10.174  0.9257 -0.9945  0.1865
31755SOL     OW99949   9.927   9.598   2.793 -0.3654 -0.0633 -0.1318
31755SOL    HW199950   9.981   9.523   2.770 -0.6351 -0.4160  0.3587
31755SOL    HW299951   9.969   9.672   2.749 -0.2196 -0.5292 -0.7926
31756SOL     OW99952   0.921   7.080  10.617 -0.6052 -0.2762  0.2024
31756SOL    HW199953   0.937   7.174  10.607 -0.7230 -0.1571  1.0560
31756SOL    HW299954   0.878   7.054  10.535  0.7135  0.1199 -0.6433
31757SOL     OW99955   4.515   7.289   4.121 -0.3602  0.7341 -0.1927
31757SOL    HW199956   4.498   7.345   4.197  2.4305 -1.0341  1.9216
31757SOL    HW299957   4.433   7.243   4.106 -1.6234  2.7169  0.2966
31758SOL     OW99958   1.518   4.125   5.607  0.5166  0.0200  0.2137
31758SOL    HW199959   1.438   4.092   5.565  0.1874  0.2087  0.6911
31758SOL    HW299960   1.557   4.183   5.542 -0.6884  1.3704  0.6456
31759SOL     OW99961   6.456   9.279   1.402  0.2350  0.4062 -0.4632
31759SOL    HW199962   6.548   9.282   1.375 -0.0405  0.9161 -1.4045
31759SOL    HW299963   6.437   9.186   1.413  0.9352  0.3151 -0.0149
31760SOL     OW99964   1.037   1.931   6.306 -1.0081  0.1557  0.2351
31760SOL    HW199965   0.990   1.848   6.304 -1.2343  0.2670  0.7594
31760SOL    HW299966   1.077   1.938   6.219 -0.1474 -0.9748  0.5064
31761SOL     OW99967   5.159   7.911  11.680  0.1011  0.1077  0.0854
31761SOL    HW199968   5.128   7.913  11.590 -2.4064 -2.2128  0.7547
31761SOL    HW299969   5.183   7.819  11.695 -0.1729  0.3063  1.9568
31762SOL     OW99970   6.156   2.299   4.302 -1.3592 -0.2982 -0.1167
31762SOL    HW199971   6.094   2.296   4.228 -0.9148 -0.7089 -0.4805
31762SOL    HW299972   6.195   2.212   4.304 -3.2610 -1.1931  2.2720
31763SOL     OW99973   5.944   8.151   1.584  0.1701  0.1696 -0.1215
31763SOL    HW199974   5.904   8.211   1.522 -0.3491 -0.2753 -0.2182
31763SOL    HW299975   5.891   8.159   1.663  0.1490 -0.1117 -0.1088
31764SOL     OW99976   7.774   7.309   3.558 -0.1654  0.0081  0.2421
31764SOL    HW199977   7.775   7.404   3.563 -1.5550  0.0089  1.0263
31764SOL    HW299978   7.809   7.289   3.471 -0.8327  1.2731 -0.3419
31765SOL     OW99979   8.171   7.529   3.032 -0.1745 -0.3786 -0.3404
31765SOL    HW199980   8.084   7.499   3.059 -0.1978  0.1734  0.2412
31765SOL    HW299981   8.189   7.484   2.950 -0.1620 -2.0564  0.5498
31766SOL     OW99982   5.803  10.709   5.808  0.2094 -1.2215 -0.1441
31766SOL    HW199983   5.711  10.723   5.831  0.2375  0.6170 -1.0036
31766SOL    HW299984   5.803  10.705   5.713  1.0136 -1.2929 -0.1436
31767SOL     OW99985   7.238   6.302   1.063  0.0038  0.0592  0.8166
31767SOL    HW199986   7.286   6.313   1.145  2.2497 -0.9306 -0.2680
31767SOL    HW299987   7.295   6.343   0.997 -0.0347 -2.1813 -0.7056
31768SOL     OW99988   5.503   9.017   4.071 -0.2116  0.4376  0.3777
31768SOL    HW199989   5.488   9.005   3.977 -1.0534 -0.2354  0.5920
31768SOL    HW299990   5.545   8.936   4.100 -0.0227  0.6131  0.6053
31769SOL     OW99991   8.990  11.891   0.838  0.0654 -0.2976 -0.4981
31769SOL    HW199992   8.921  11.868   0.901  0.3494  0.7911  0.2317
31769SOL    HW299993   9.070  11.857   0.877  0.2542  0.4539 -0.2038
31770SOL     OW99994   1.597   1.808   3.841  0.3518  0.2040 -0.1632
31770SOL    HW199995   1.580   1.772   3.928  0.8777 -1.0531 -0.5600
31770SOL    HW299996   1.517   1.792   3.792  0.7736 -0.9484 -0.4969
31771SOL     OW99997   2.075   1.029   8.867  0.2226 -0.0653  0.0581
31771SOL    HW199998   2.027   0.977   8.931 -0.4559  0.5014  0.0220
31771SOL    HW299999   2.165   1.032   8.900  0.3623 -1.5151 -0.1053
31772SOL     OW    0   9.163   8.800   2.941  0.0019 -0.4661  0.0234
31772SOL    HW1    1   9.185   8.804   2.848 -0.1914  1.3817  0.0077
31772SOL    HW2    2   9.247   8.801   2.986  0.1335 -2.4797 -0.1120
31773SOL     OW    3  10.836   4.873   2.551 -0.3354  0.7160 -0.0282
31773SOL    HW1    4  10.902   4.863   2.482  0.6345  2.4861  0.5768
31773SOL    HW2    5  10.785   4.949   2.525 -1.1563  0.2809  0.2871
31774SOL     OW    6   4.844   2.600   3.518  0.3081  0.1519  0.4598
31774SOL    HW1    7   4.893   2.635   3.593  1.9596 -1.1931  0.0836
31774SOL    HW2    8   4.853   2.668   3.450 -0.2204  0.8739  1.0999
31775SOL     OW    9   4.160   2.238   9.316 -0.8537 -0.0284  0.2415
31775SOL    HW1   10   4.214   2.292   9.374 -1.0190  0.0838  0.2916
31775SOL    HW2   11   4.147   2.157   9.365 -0.3446 -0.2342  0.0370
31776SOL     OW   12   9.091   5.461   0.463 -0.0581  0.0741 -0.3372
31776SOL    HW1   13   9.123   5.529   0.522 -0.9883 -0.1576  0.4611
31776SOL    HW2   14   9.043   5.508   0.395 -0.9949  0.2100  0.4040
31777SOL     OW   15   8.849  11.080   3.164  0.1967  0.5915  0.0757
31777SOL    HW1   16   8.891  11.078   3.250  1.1528 -0.4303 -0.3895
31777SOL    HW2   17   8.765  11.035   3.176  1.4225 -1.8567 -0.0426
31778SOL     OW   18   3.845   2.942   9.868 -0.0190 -0.7801  0.3896
31778SOL    HW1   19   3.826   2.993   9.947  0.3770  0.1179 -0.0867
31778SOL    HW2   20   3.758   2.922   9.831 -0.1585  1.2182 -0.4575
31779SOL     OW   21   0.983   8.845   9.480  0.6780  0.1771  0.1089
31779SOL    HW1   22   1.046   8.776   9.460 -0.5932 -1.1307  0.3994
31779SOL    HW2   23   0.916   8.837   9.412 -0.6198 -0.3946  1.3880
31780SOL     OW   24   8.808   4.668   7.282 -0.3593 -0.3272 -0.2591
31780SOL    HW1   25   8.792   4.754   7.322 -0.8319 -0.4596 -0.1553
31780SOL    HW2   26   8.739   4.612   7.318 -0.6709 -0.4991 -1.0919
31781SOL     OW   27   2.160   8.837   6.072  0.1612 -0.2812 -0.6821
31781SOL    HW1   28   2.101   8.913   6.066  0.9000  0.3650 -0.0501
31781SOL    HW2   29   2.177   8.813   5.981 -0.8254 -0.2942 -0.8800
31782SOL     OW   30   1.574   1.344   8.418 -0.0110 -0.4212 -0.0596
31782SOL    HW1   31   1.538   1.366   8.504  1.1421  0.4135  0.2351
31782SOL    HW2   32   1.643   1.409   8.403  0.2937 -0.9902 -1.3019
31783SOL     OW   33   9.050   0.943   6.324  0.1731  0.3439  0.2630
31783SOL    HW1   34   9.025   0.998   6.399 -1.3995  1.5529 -1.0743
31783SOL    HW2   35   9.144   0.927   6.337  0.0479  0.9103  2.2297
31784SOL     OW   36   5.523   8.618   0.033  0.2008  0.1169  0.6611
31784SOL    HW1   37   5.525   8.545  -0.029  0.0356  0.1524  0.6136
31784SOL    HW2   38   5.517   8.575   0.119 -1.7715  0.0821  0.5575
31785SOL     OW   39   6.454   6.606   8.882  1.0929 -0.2602  0.0738
31785SOL    HW1   40   6.414   6.597   8.796  2.6615 -2.3008 -0.5284
31785SOL    HW2   41   6.416   6.686   8.918 -0.2859  0.1613 -2.1201
31786SOL     OW   42  11.505  11.516   8.202 -0.1722  0.0769  0.6106
31786SOL    HW1   43  11.541  11.539   8.117  0.0041 -1.0913  0.3567
31786SOL    HW2   44  11.480  11.600   8.241  0.1080  0.6530 -0.4194
31787SOL     OW   45   5.382   7.537   4.772 -0.1151  0.0936  0.2410
31787SOL    HW1   46   5.397   7.477   4.845  1.0254 -1.2861 -1.0554
31787SOL    HW2   47   5.429   7.617   4.795  0.7396 -0.5433  0.7643
31788SOL     OW   48  10.011  10.522   8.768 -0.6742  0.1210  0.4571
31788SOL    HW1   49  10.032  10.439   8.725 -1.8599  0.3669 -0.6781
31788SOL    HW2   50   9.967  10.497   8.849  1.0318 -0.3504  1.2707
31789SOL     OW   51   8.136   5.613  10.402  0.4801 -0.3547 -0.1993
31789SOL    HW1   52   8.158   5.645  10.489  1.5817 -1.8259  0.0980
31789SOL    HW2   53   8.044   5.589  10.409  0.7011 -0.9840  0.7348
31790SOL     OW   54   5.100   2.425   6.497  0.0752  0.3770 -0.3253
31790SOL    HW1   55   5.185   2.404   6.535  0.1656  2.0560  0.4906
31790SOL    HW2   56   5.041   2.431   6.572 -0.7475 -0.6325 -0.8693
31791SOL     OW   57   0.575   1.253   0.113 -0.9852  0.1333 -0.2990
31791SOL    HW1   58   0.578   1.345   0.085  2.3863  0.0458 -0.6966
31791SOL    HW2   59   0.592   1.204   0.033 -0.2667 -0.6687  0.3369
31792SOL     OW   60   6.252  10.583   6.647  0.2214  0.1464  0.3930
31792SOL    HW1   61   6.161  10.578   6.620  0.5884 -1.2271 -0.7297
31792SOL    HW2   62   6.254  10.652   6.713 -2.3753 -2.3611  3.4683
31793SOL     OW   63   1.878   1.447   1.624 -0.0744  0.1565  0.0283
31793SOL    HW1   64   1.883   1.363   1.669  2.1974 -0.0146 -0.4286
31793SOL    HW2   65   1.886   1.425   1.531 -0.3550  0.8185 -0.1584
31794SOL     OW   66   8.590   8.078   2.092 -0.0161 -0.6655 -0.4751
31794SOL    HW1   67   8.499   8.106   2.084  0.2309  0.1072 -0.6995
31794SOL    HW2   68   8.589   7.986   2.068 -0.8934 -0.9211  0.4611
31795SOL     OW   69   9.757   3.176   0.900  0.3233  0.1761  0.0268
31795SOL    HW1   70   9.690   3.224   0.852 -0.1015  2.2595  2.4831
31795SOL    HW2   71   9.721   3.088   0.909 -1.2203  0.7239 -0.3611
31796SOL     OW   72   6.007   9.046  11.359  0.0206 -0.4167 -0.1109
31796SOL    HW1   73   5.985   8.954  11.373 -0.7173  0.0067  1.7850
31796SOL    HW2   74   5.941   9.095  11.408  1.7748  1.0621  0.9231
31797SOL     OW   75   5.825  10.009   6.004  0.5021 -0.5978 -0.1115
31797SOL    HW1   76   5.818  10.013   6.099 -0.6623 -0.0491 -0.2023
31797SOL    HW2   77   5.895  10.071   5.983  0.7021 -0.6507  0.3787
31798SOL     OW   78   2.053  11.614   2.534 -0.8459 -0.0132  0.2261
31798SOL    HW1   79   1.979  11.554   2.540 -1.6392  1.0344  1.4560
31798SOL    HW2   80   2.015  11.700   2.555  0.6822  0.5616  0.7239
31799SOL     OW   81   6.185   5.241   1.277  0.0079  0.2375 -0.3631
31799SOL    HW1   82   6.247   5.178   1.241  0.5748 -0.6810  1.9822
31799SOL    HW2   83   6.101   5.219   1.236  1.0212  1.0657 -3.0905
31800SOL     OW   84   3.109   1.045   8.973 -0.0254  0.0804  0.0616
31800SOL    HW1   85   3.038   1.006   8.923  0.3334  1.0781 -1.2808
31800SOL    HW2   86   3.077   1.132   8.997  0.8682  0.7186 -0.9415
31801SOL     OW   87   0.227   6.670  11.756  0.0172  0.0270  0.1101
31801SOL    HW1   88   0.220   6.588  11.708  0.7132  0.6208 -1.0595
31801SOL    HW2   89   0.218   6.738  11.689  1.3352  0.8844  0.7685
31802SOL     OW   90  10.949   7.488   3.112 -0.2035  0.2426  0.4552
31802SOL    HW1   91  10.990   7.564   3.154 -0.4645 -0.2234  1.5926
31802SOL    HW2   92  10.968   7.499   3.019  0.9427  0.9826  0.7512
31803SOL     OW   93   2.062   8.511   9.312  0.3915  0.4121  0.1467
31803SOL    HW1   94   1.996   8.571   9.278 -2.2675 -2.2637  0.0560
31803SOL    HW2   95   2.034   8.494   9.402  2.6465  1.2801  1.0695
31804SOL     OW   96   2.768   1.369  10.506 -0.6460  0.1493  0.2838
31804SOL    HW1   97   2.795   1.285  10.545 -0.3825  0.0028 -0.2098
31804SOL    HW2   98   2.741   1.422  10.581 -2.0507 -0.8158  0.5108
31805SOL     OW   99   2.299   0.404   4.048 -0.4957 -0.0733 -0.1989
31805SOL    HW1  100   2.377   0.370   4.091 -0.4068 -0.4356 -0.6419
31805SOL    HW2  101   2.274   0.481   4.100 -0.7174 -0.8216  0.8489
31806SOL     OW  102   8.479  11.280   2.275  0.4576 -0.3596 -0.8732
31806SOL    HW1  103   8.536  11.213   2.312  0.9141  0.1074 -0.7266
31806SOL    HW2  104   8.413  11.231   2.226 -0.3696 -1.0169  0.8132
31807SOL     OW  105   0.240   8.336   2.410  0.0304  0.1166 -0.0763
31807SOL    HW1  106   0.327   8.370   2.388 -1.0818  1.4214 -2.9670
31807SOL    HW2  107   0.214   8.384   2.488  1.9794 -0.5076  1.0196
31808SOL     OW  108   0.162   6.623   8.222  0.2759 -0.3164  0.2920
31808SOL    HW1  109   0.199   6.703   8.261  0.5539 -0.2236 -0.1553
31808SOL    HW2  110   0.202   6.552   8.271  1.9418 -0.2679 -0.8838
31809SOL     OW  111   3.642   3.050   8.464 -0.3004  0.4327  1.0259
31809SOL    HW1  112   3.668   3.078   8.551  1.8025  1.4619  0.1369
31809SOL    HW2  113   3.692   2.971   8.447  1.6051  1.8473 -0.3054
31810SOL     OW  114   3.073   2.177   5.591  0.3577 -0.1570  0.4639
31810SOL    HW1  115   3.078   2.257   5.539  0.9289 -0.0767  0.6301
31810SOL    HW2  116   2.984   2.175   5.625 -0.1905 -0.4472 -0.9040
31811SOL     OW  117  10.032   3.219   5.034 -0.1961 -0.0705  0.4278
31811SOL    HW1  118  10.053   3.274   4.958 -0.0703  1.4241  1.5009
31811SOL    HW2  119  10.113   3.219   5.086 -0.6104 -0.1943  1.0775
31812SOL     OW  120   7.745   0.328   9.162 -0.2556 -0.2475 -0.3352
31812SOL    HW1  121   7.700   0.387   9.221 -1.7094 -1.3964 -0.2511
31812SOL    HW2  122   7.838   0.344   9.179 -0.6114 -0.4102  2.1405
31813SOL     OW  123   7.986   1.517   9.750 -0.2450 -0.3927 -0.1327
31813SOL    HW1  124   8.027   1.544   9.832 -0.2881  0.5408 -0.3973
31813SOL    HW2  125   7.919   1.454   9.775  1.7234 -2.4214  0.2464
31814SOL     OW  126   3.286  10.171   8.933 -0.0887  0.1234  0.0176
31814SOL    HW1  127   3.212  10.192   8.989 -0.0328 -1.3926  0.7118
31814SOL    HW2  128   3.361  10.166   8.992  0.1221 -0.6882 -0.3022
31815SOL     OW  129   8.750   9.617   1.880  0.2736 -0.8249 -0.4028
31815SOL    HW1  130   8.836   9.576   1.889  0.5951 -0.4240 -1.4437
31815SOL    HW2  131   8.697   9.552   1.834  0.6195 -0.3205 -1.5499
31816SOL     OW  132   4.599   8.880   1.449 -0.3859 -0.2343  0.0352
31816SOL    HW1  133   4.514   8.844   1.473 -1.2440  1.2896 -0.6358
31816SOL    HW2  134   4.625   8.829   1.371 -0.8379 -0.4566  0.0277
31817SOL     OW  135   3.303  10.752   7.151  0.0045 -0.1278 -0.0376
31817SOL    HW1  136   3.283  10.834   7.196  0.4666  0.0333 -0.1243
31817SOL    HW2  137   3.383  10.720   7.192  1.1109  0.6320 -1.5145
31818SOL     OW  138   0.682   1.586   4.894  0.4370  0.3131 -0.0995
31818SOL    HW1  139   0.606   1.640   4.871 -1.6461 -0.5516  3.8686
31818SOL    HW2  140   0.692   1.527   4.819 -1.8321  1.4458 -1.4351
31819SOL     OW  141  11.068  11.370  11.366 -0.5771  0.7187  0.4671
31819SOL    HW1  142  11.110  11.332  11.289 -2.0607  0.4715 -0.2628
31819SOL    HW2  143  11.140  11.400  11.421  0.5626 -0.6869 -0.2013
31820SOL     OW  144   9.843   0.239  11.752 -0.2536 -0.7257 -0.0713
31820SOL    HW1  145   9.871   0.330  11.754  1.0937 -1.1163  0.0231
31820SOL    HW2  146   9.880   0.201  11.832 -1.5173 -1.1707  0.3251
31821SOL     OW  147   3.657   1.970   7.018  0.2811 -0.4435  0.2239
31821SOL    HW1  148   3.666   1.996   6.926 -0.1521 -2.1300 -0.3275
31821SOL    HW2  149   3.734   1.915   7.035  0.4969  0.0751  0.9556
31822SOL     OW  150   8.759   4.575   5.915  0.2340  0.4228 -0.4240
31822SOL    HW1  151   8.710   4.508   5.868  0.8358  0.3796 -1.0023
31822SOL    HW2  152   8.807   4.527   5.982 -0.9333  0.5296  0.5360
31823SOL     OW  153   7.678   1.482  10.085 -0.4440  0.4343  0.0251
31823SOL    HW1  154   7.753   1.469  10.144 -0.2989 -2.5517 -0.6693
31823SOL    HW2  155   7.602   1.468  10.141 -0.5366  2.3724  0.4762
31824SOL     OW  156   8.408   3.818  11.718  0.5622  0.6360  0.1891
31824SOL    HW1  157   8.464   3.879  11.670 -1.3357  1.7843 -0.7035
31824SOL    HW2  158   8.396   3.745  11.658  1.5892  0.0822  0.6410
31825SOL     OW  159   5.624   6.029   2.501  0.3183  0.5131  0.4555
31825SOL    HW1  160   5.677   6.052   2.424  1.5058 -1.6215  0.5474
31825SOL    HW2  161   5.683   6.043   2.575 -0.8090  2.5062  1.0384
31826SOL     OW  162   2.420   5.168   3.113  0.3133 -0.1372 -0.4871
31826SOL    HW1  163   2.514   5.168   3.131  0.1411  1.4080  0.5916
31826SOL    HW2  164   2.414   5.174   3.018  1.2770 -1.9216 -0.7022
31827SOL     OW  165   0.980   2.943   8.542  0.1948 -0.0010 -0.1900
31827SOL    HW1  166   0.970   2.879   8.472  0.9298  0.9493 -1.2056
31827SOL    HW2  167   1.066   2.924   8.580 -0.1590 -0.4512  0.3933
31828SOL     OW  168  10.741   6.704   9.585 -0.3899 -0.4279 -0.3706
31828SOL    HW1  169  10.663   6.654   9.561 -0.5487  0.3031 -1.4806
31828SOL    HW2  170  10.774   6.739   9.501  1.2568 -0.9018  0.0364
31829SOL     OW  171   2.330   3.442   0.017 -0.1588 -0.1318  0.1580
31829SOL    HW1  172   2.265   3.427  -0.051 -0.4472 -1.3567  0.6700
31829SOL    HW2  173   2.411   3.404  -0.019 -0.4540 -1.3275  0.7219
31830SOL     OW  174   6.577   6.476   1.698 -0.0389  0.2502  0.0948
31830SOL    HW1  175   6.662   6.468   1.742 -0.4578 -1.2290  0.7027
31830SOL    HW2  176   6.568   6.395   1.649 -2.3226 -1.0087  2.3502
31831SOL     OW  177   6.050  10.691  10.187  0.2068 -0.3216  0.0510
31831SOL    HW1  178   6.005  10.625  10.240 -0.1670 -1.0432 -1.1522
31831SOL    HW2  179   5.990  10.709  10.115  0.0385  1.7920  0.6613
31832SOL     OW  180   0.270   7.064   6.814 -0.1197 -0.6570 -0.1530
31832SOL    HW1  181   0.185   7.025   6.798  0.2198 -0.9207 -1.4910
31832SOL    HW2  182   0.332   7.006   6.768  0.5409  0.6264 -0.9484
31833SOL     OW  183   0.142   3.235   9.564 -0.2587  0.1397 -0.3803
31833SOL    HW1  184   0.201   3.301   9.528 -0.8960  0.3682 -1.0387
31833SOL    HW2  185   0.056   3.276   9.563 -0.3099  0.1170  1.3748
31834SOL     OW  186   7.821   2.238   2.380  0.2253 -0.0560 -0.0228
31834SOL    HW1  187   7.774   2.242   2.464  1.7486  0.5227  0.8514
31834SOL    HW2  188   7.753   2.239   2.314 -1.0611 -1.1286  1.2226
31835SOL     OW  189  10.837   1.553   6.791  0.2683  0.1427 -0.6524
31835SOL    HW1  190  10.874   1.517   6.871 -0.2241 -0.5169 -0.7120
31835SOL    HW2  191  10.771   1.615   6.821  0.3621  0.1936 -0.5494
31836SOL     OW  192   4.649   1.564   4.076 -0.3713  0.7081 -0.2355
31836SOL    HW1  193   4.666   1.614   3.996 -0.2127  1.8454  0.4985
31836SOL    HW2  194   4.588   1.495   4.048  1.4370 -0.3512 -1.8370
31837SOL     OW  195   1.675   3.654  10.323  0.0644  0.3175  0.3361
31837SOL    HW1  196   1.765   3.651  10.291 -0.2799 -1.1766 -0.6227
31837SOL    HW2  197   1.622   3.658  10.244 -0.7582 -1.7323  0.7136
31838SOL     OW  198   2.835   8.559  10.379 -0.1616 -0.0237  0.8372
31838SOL    HW1  199   2.849   8.464  10.376  1.0311  0.1707 -1.1084
31838SOL    HW2  200   2.803   8.581  10.291 -1.5188  1.2581  1.5969
31839SOL     OW  201  11.441   0.655   7.446  0.2938  0.6538 -0.1888
31839SOL    HW1  202  11.403   0.653   7.358  2.7871  0.5282 -1.3491
31839SOL    HW2  203  11.482   0.569   7.456  0.1464  0.7202  1.0570
31840SOL     OW  204   5.222   8.572   3.283  0.5121  0.0057  0.4859
31840SOL    HW1  205   5.251   8.534   3.366  1.2560  1.1436  0.7756
31840SOL    HW2  206   5.130   8.548   3.276  0.6753 -0.8729  1.1938
31841SOL     OW  207   7.632   0.323   2.070  0.3308 -0.0607 -0.0716
31841SOL    HW1  208   7.636   0.414   2.041  1.4476 -0.1473 -0.2117
31841SOL    HW2  209   7.625   0.330   2.166  1.1884  0.1728 -0.0166
31842SOL     OW  210   0.147   1.777  10.459  0.4137 -0.0463 -0.5081
31842SOL    HW1  211   0.091   1.768  10.381  0.5547 -1.1644 -0.4964
31842SOL    HW2  212   0.209   1.705  10.452  0.7009  0.1017  0.4232
31843SOL     OW  213   6.106  11.099   6.393 -0.0033  0.4168 -0.5336
31843SOL    HW1  214   6.197  11.107   6.420  0.0529 -1.6241  0.0446
31843SOL    HW2  215   6.110  11.083   6.299  0.3626 -1.0021 -0.3034
31844SOL     OW  216   2.403   9.931   3.605  0.0587  0.4444 -0.6611
31844SOL    HW1  217   2.449  10.015   3.603 -0.9070  1.1440  2.2207
31844SOL    HW2  218   2.314   9.952   3.576  0.2137  0.0542 -1.4642
31845SOL     OW  219   8.848   3.065   6.650  0.0533 -0.0934 -0.0452
31845SOL    HW1  220   8.915   3.062   6.582 -0.0541 -1.7260 -0.1390
31845SOL    HW2  221   8.889   3.113   6.723  0.8203  0.1106 -0.5995
31846SOL     OW  222   1.844   4.950   0.570  0.4152  0.6375 -0.3750
31846SOL    HW1  223   1.760   4.914   0.599  0.7478  0.8253  0.9025
31846SOL    HW2  224   1.827   5.044   0.558  0.1757  0.4937 -1.2286
31847SOL     OW  225   1.377   7.508   1.025  0.0817 -0.1133 -0.0668
31847SOL    HW1  226   1.467   7.537   1.034  0.4684 -1.1309 -0.5143
31847SOL    HW2  227   1.345   7.499   1.115  0.0867  1.2392  0.0794
31848SOL     OW  228   5.294  10.461   2.513  0.3142  0.1509  0.3880
31848SOL    HW1  229   5.228  10.428   2.574 -0.1575 -0.0474 -0.2102
31848SOL    HW2  230   5.278  10.411   2.432  1.0082  0.3132  0.1443
31849SOL     OW  231   3.206   8.757  10.303  0.2590 -0.4422 -0.0116
31849SOL    HW1  232   3.259   8.837  10.301  0.1329 -0.3060  1.1965
31849SOL    HW2  233   3.140   8.770  10.234  0.5754  0.2524 -0.1950
31850SOL     OW  234  11.738   5.448   6.866 -0.6475  1.1674 -0.0576
31850SOL    HW1  235  11.644   5.467   6.868 -0.7216  0.7570  0.6840
31850SOL    HW2  236  11.756   5.405   6.950 -0.2155 -0.6865 -1.0287
31851SOL     OW  237   6.597   9.390   3.074  0.2431 -0.1498  0.1441
31851SOL    HW1  238   6.535   9.336   3.122  2.1574 -0.0031  2.9971
31851SOL    HW2  239   6.608   9.468   3.128  1.5542  0.6657 -1.2221
31852SOL     OW  240   6.347  11.582   5.820  0.0805  0.0970 -0.4200
31852SOL    HW1  241   6.364  11.653   5.882 -0.8688  0.6482 -0.7734
31852SOL    HW2  242   6.323  11.507   5.875 -1.5345  0.8002 -0.1312
31853SOL     OW  243   8.294   8.512   8.430  0.2442 -0.4817  0.1370
31853SOL    HW1  244   8.219   8.502   8.488 -0.6044  1.0487 -0.6402
31853SOL    HW2  245   8.354   8.442   8.456  0.0724  0.3207  3.0684
31854SOL     OW  246  10.144   1.930   2.605  0.2330  0.1706  0.0990
31854SOL    HW1  247  10.188   2.013   2.626  0.9738  0.1385 -1.1959
31854SOL    HW2  248  10.200   1.863   2.642 -0.6029  0.2231  1.5537
31855SOL     OW  249   0.135   5.847   9.017 -0.5184  0.0785 -0.2829
31855SOL    HW1  250   0.134   5.766   8.967  1.9065 -1.0758  1.3115
31855SOL    HW2  251   0.201   5.902   8.973 -0.0517 -0.0118  0.2924
31856SOL     OW  252   8.555   4.183   7.289 -0.6137 -0.5181  0.3693
31856SOL    HW1  253   8.561   4.264   7.339 -1.1273  0.5164 -1.1785
31856SOL    HW2  254   8.646   4.154   7.280 -0.2034  0.9342 -0.6540
31857SOL     OW  255   5.306   8.063  10.786 -0.2032 -0.1177 -0.7178
31857SOL    HW1  256   5.394   8.032  10.768  0.0140 -0.1959  0.4213
31857SOL    HW2  257   5.299   8.064  10.881 -0.7572  1.7455 -0.7310
31858SOL     OW  258   1.683   3.915   5.725 -0.4871  0.3763  0.2322
31858SOL    HW1  259   1.661   3.920   5.818 -0.5139 -0.9308  0.3051
31858SOL    HW2  260   1.643   3.993   5.687 -0.6704  0.8038  1.2757
31859SOL     OW  261   6.118  11.856   3.580  0.2662 -0.6347 -0.3741
31859SOL    HW1  262   6.174  11.930   3.557  1.9988 -1.7309  0.0579
31859SOL    HW2  263   6.044  11.862   3.519  0.4851  1.2677 -0.5131
31860SOL     OW  264   5.231   4.330   4.948 -0.3420  0.4479 -0.1553
31860SOL    HW1  265   5.239   4.296   4.859  2.1127 -0.8931  0.4655
31860SOL    HW2  266   5.223   4.252   5.003  1.9839  0.9533  1.0392
31861SOL     OW  267   1.162   5.376   6.288  0.2193 -0.2272  0.4001
31861SOL    HW1  268   1.157   5.280   6.295 -1.7601 -0.1449  0.7131
31861SOL    HW2  269   1.112   5.397   6.209  0.7151  0.5576  0.2831
31862SOL     OW  270   4.099   9.412   5.968 -0.0434  0.6457 -0.4653
31862SOL    HW1  271   4.016   9.404   6.016  0.2188 -1.8650 -0.2666
31862SOL    HW2  272   4.089   9.352   5.893  1.8260 -0.3112 -0.0148
31863SOL     OW  273  11.001   2.047   2.044  0.2179  0.2967  0.2612
31863SOL    HW1  274  10.971   1.968   2.000  2.2767 -0.1333 -0.5023
31863SOL    HW2  275  10.963   2.119   1.994  0.7678 -0.2148 -0.9228
31864SOL     OW  276   3.569   3.314   5.612 -0.7051 -0.2180 -0.0087
31864SOL    HW1  277   3.586   3.342   5.522 -2.2659  1.6839  0.2212
31864SOL    HW2  278   3.536   3.225   5.604 -0.4022 -0.2362 -1.2592
31865SOL     OW  279  10.882   8.897   0.601 -0.3686 -0.3052  0.2293
31865SOL    HW1  280  10.832   8.951   0.540  0.7011  0.9005  0.3837
31865SOL    HW2  281  10.933   8.838   0.544 -0.2957 -0.0267  0.0044
31866SOL     OW  282   6.520   8.406   0.768 -0.3177 -0.4029 -0.3256
31866SOL    HW1  283   6.584   8.424   0.838  0.3085  1.3124 -1.2900
31866SOL    HW2  284   6.436   8.431   0.806 -0.3891 -2.0453  0.7174
31867SOL     OW  285   0.431   7.600   4.986 -0.1567 -0.1038  0.2045
31867SOL    HW1  286   0.513   7.565   4.952 -0.6207 -0.0511 -0.9942
31867SOL    HW2  287   0.394   7.529   5.038  1.3057  0.3361  1.9671
31868SOL     OW  288   8.850   4.199   5.397  0.0487  0.0719  0.7978
31868SOL    HW1  289   8.844   4.255   5.474  2.6194  2.6342 -0.6505
31868SOL    HW2  290   8.768   4.217   5.349  0.1667  1.5227  1.0862
31869SOL     OW  291   1.274   6.218   6.173 -0.0812  0.0130  0.2847
31869SOL    HW1  292   1.362   6.192   6.200 -0.4239 -0.5159  0.9461
31869SOL    HW2  293   1.283   6.308   6.143  0.6965 -0.0614  0.2764
31870SOL     OW  294   9.170  11.036   4.423 -0.7887 -0.5292  0.1454
31870SOL    HW1  295   9.156  11.102   4.490 -1.0429  0.0238 -0.4400
31870SOL    HW2  296   9.154  10.952   4.467 -0.7668 -0.1903  0.8108
31871SOL     OW  297   4.164  11.501   8.576 -0.0416 -0.0377 -0.9377
31871SOL    HW1  298   4.136  11.448   8.650  0.3424  0.6392 -0.2908
31871SOL    HW2  299   4.250  11.535   8.602 -0.3028  0.9339 -1.2992
31872SOL     OW  300   5.560   5.117   4.035  0.1651 -0.6768 -0.1616
31872SOL    HW1  301   5.477   5.164   4.047  1.3155  0.7648  3.0057
31872SOL    HW2  302   5.603   5.163   3.963 -1.0088 -0.3396 -0.6821
31873SOL     OW  303   6.875   0.279   9.865  0.1116  0.1754 -0.2724
31873SOL    HW1  304   6.949   0.301   9.808  0.3895  0.5937  0.2413
31873SOL    HW2  305   6.904   0.305   9.953 -0.4422 -0.1481  0.0110
31874SOL     OW  306   2.649   3.049   3.162  0.2888  0.0623 -0.2645
31874SOL    HW1  307   2.708   3.125   3.166 -1.5320  1.5421  0.0677
31874SOL    HW2  308   2.608   3.055   3.076 -1.0136  0.4234  0.3442
31875SOL     OW  309   1.649   4.692   5.376 -0.2693 -0.2510 -0.6709
31875SOL    HW1  310   1.707   4.736   5.438  0.4990 -1.0250 -0.8314
31875SOL    HW2  311   1.596   4.634   5.430 -0.7433  0.2764 -0.5544
31876SOL     OW  312   8.878   6.218   2.081  0.0087 -0.2668 -0.7269
31876SOL    HW1  313   8.813   6.286   2.062  0.0099  0.1460  0.6790
31876SOL    HW2  314   8.854   6.185   2.167  0.0623 -2.0155 -1.3502
31877SOL     OW  315  11.155   0.352   1.573  0.9632  0.2148 -0.4620
31877SOL    HW1  316  11.174   0.259   1.562 -2.6428 -0.6925 -0.4460
31877SOL    HW2  317  11.133   0.383   1.486 -2.5380 -0.3576  0.0403
31878SOL     OW  318   1.310   0.380   9.098  0.5665  0.0900 -0.1941
31878SOL    HW1  319   1.295   0.300   9.047  2.2559 -1.1657  1.1608
31878SOL    HW2  320   1.235   0.385   9.157 -0.2298  0.2839 -1.1958
31879SOL     OW  321   7.371   7.067  10.998 -0.2088  0.0144 -0.1992
31879SOL    HW1  322   7.304   7.112  10.946 -0.5350 -1.5552 -1.1908
31879SOL    HW2  323   7.426   7.138  11.033 -0.4246  1.1619 -2.0738
31880SOL     OW  324   0.986   8.622   3.427  0.2319 -0.1737 -0.1635
31880SOL    HW1  325   1.037   8.616   3.346  0.4164  1.4223 -0.1922
31880SOL    HW2  326   1.052   8.630   3.496  0.0567  0.5545 -0.0710
31881SOL     OW  327  10.100   3.077   4.550  0.3131 -0.3572 -0.0158
31881SOL    HW1  328  10.095   3.090   4.455 -0.5454 -1.3953 -0.1350
31881SOL    HW2  329  10.123   2.985   4.560 -2.4196 -1.0365  0.7671
31882SOL     OW  330   9.908  10.759   6.342  0.1347  0.0271 -0.0721
31882SOL    HW1  331   9.997  10.745   6.310  0.3673  1.3866 -0.0755
31882SOL    HW2  332   9.914  10.837   6.397 -0.6925 -0.9472  1.4751
31883SOL     OW  333   1.103   0.545   0.623  0.0635 -0.6253 -0.7454
31883SOL    HW1  334   1.092   0.540   0.528 -0.9409  1.5808 -0.8066
31883SOL    HW2  335   1.015   0.556   0.657  0.2338 -2.9202  0.6367
31884SOL     OW  336   8.491   1.691  11.242 -0.2545  0.1655 -0.1404
31884SOL    HW1  337   8.400   1.673  11.222  0.6211 -3.8739 -1.3075
31884SOL    HW2  338   8.494   1.696  11.338 -1.6705  0.2875 -0.0885
31885SOL     OW  339   5.900   7.096  11.534  0.0963 -0.0187  0.0567
31885SOL    HW1  340   5.836   7.061  11.596 -0.3187  0.2633 -0.2079
31885SOL    HW2  341   5.939   7.019  11.493 -0.0195 -0.1925  0.2689
31886SOL     OW  342  11.631   6.650   2.472 -0.4697  0.0553 -0.4282
31886SOL    HW1  343  11.646   6.583   2.405 -1.7596  0.6411 -1.3405
31886SOL    HW2  344  11.605   6.600   2.550  1.3566 -0.6511 -0.2342
31887SOL     OW  345   6.987  11.169   8.440  0.4950  0.1470  0.5725
31887SOL    HW1  346   7.028  11.085   8.458  0.5520  0.6148  3.0119
31887SOL    HW2  347   6.895  11.148   8.423  0.6480 -0.4449  0.4482
31888SOL     OW  348   8.568   3.990   4.180  0.0376 -0.3308  0.1925
31888SOL    HW1  349   8.495   3.959   4.126 -0.3423  0.6757  0.1083
31888SOL    HW2  350   8.595   4.072   4.140  0.4059 -0.0715  0.9477
31889SOL     OW  351  11.998   8.133  11.213  0.3754  0.5745 -0.2292
31889SOL    HW1  352  12.034   8.220  11.230 -1.0287  1.1313 -0.0026
31889SOL    HW2  353  11.985   8.094  11.299  0.7149  0.2441 -0.3224
31890SOL     OW  354  10.968  11.958   7.722  0.7960 -0.4629 -0.6579
31890SOL    HW1  355  11.010  11.917   7.797  0.1256 -0.4463 -0.2670
31890SOL    HW2  356  11.009  12.044   7.715  1.7016 -0.9133 -1.0468
31891SOL     OW  357   8.911   9.928  10.915 -0.3724  0.5404  0.0073
31891SOL    HW1  358   8.944  10.014  10.939  1.3401 -0.4495  1.4718
31891SOL    HW2  359   8.979   9.892  10.857 -0.5896 -0.2093  0.2132
31892SOL     OW  360   0.405   6.038   2.900  0.4134 -0.3689 -0.0945
31892SOL    HW1  361   0.450   5.988   2.831  0.1226 -0.4715 -0.2096
31892SOL    HW2  362   0.397   5.976   2.973  0.7166 -0.2621  0.0349
31893SOL     OW  363   5.396   1.262   7.242  0.1755 -0.1086 -0.0768
31893SOL    HW1  364   5.484   1.253   7.207 -0.1623 -0.1450 -0.9444
31893SOL    HW2  365   5.352   1.180   7.220 -0.2614  0.1569 -0.2257
31894SOL     OW  366   2.030   3.017   1.475  0.0126 -0.0970  0.2787
31894SOL    HW1  367   2.058   3.082   1.539  1.1403 -1.2965  1.0295
31894SOL    HW2  368   2.109   2.969   1.452 -0.7563 -1.0764 -0.4301
31895SOL     OW  369   8.665   5.214   8.231 -0.0993 -0.2219  0.5775
31895SOL    HW1  370   8.665   5.125   8.195 -1.8311  0.0662 -0.2005
31895SOL    HW2  371   8.574   5.242   8.227  0.6869  2.4871 -1.4287
31896SOL     OW  372   2.357   9.596   4.568  0.2633  0.4446 -0.2610
31896SOL    HW1  373   2.281   9.567   4.619  1.2855 -2.8259 -0.3687
31896SOL    HW2  374   2.396   9.666   4.622 -0.9128 -0.1590  1.4674
31897SOL     OW  375   9.899   0.448   8.548  0.0575  0.4436 -0.0316
31897SOL    HW1  376   9.832   0.462   8.615  0.4158 -1.1882  0.7374
31897SOL    HW2  377   9.973   0.410   8.597  0.8713  0.5581 -1.1399
31898SOL     OW  378   7.188   0.083   5.039  0.0148  0.5782 -0.1328
31898SOL    HW1  379   7.235   0.139   5.100  0.6711 -0.3158  0.1997
31898SOL    HW2  380   7.252   0.061   4.971 -0.5582  1.1306 -0.8660
31899SOL     OW  381   7.087   6.840   2.924  0.1735 -0.2649  0.3596
31899SOL    HW1  382   7.075   6.762   2.978  0.8348 -0.7054 -0.1049
31899SOL    HW2  383   7.182   6.853   2.923  0.1549 -0.1544 -0.5355
31900SOL     OW  384  11.583   7.518   0.139  0.3962  0.4266  0.6480
31900SOL    HW1  385  11.504   7.568   0.120  1.9785  2.7637 -0.2092
31900SOL    HW2  386  11.551   7.436   0.177 -2.3683  1.6694  1.2354
31901SOL     OW  387   4.101   9.679   5.794  0.3871 -0.6427  0.5271
31901SOL    HW1  388   4.116   9.624   5.871 -0.2033  0.6636  1.6337
31901SOL    HW2  389   4.153   9.758   5.811  0.7761 -0.5936 -0.7522
31902SOL     OW  390  10.255  11.590   2.660 -0.0440  0.2332 -0.0617
31902SOL    HW1  391  10.165  11.557   2.653 -0.1136  0.0577  1.3917
31902SOL    HW2  392  10.303  11.545   2.590 -0.2867 -2.4988  1.3820
31903SOL     OW  393  11.855   8.434  11.599 -0.1722  0.4053  0.6551
31903SOL    HW1  394  11.858   8.357  11.655  2.7978 -0.8196 -0.9585
31903SOL    HW2  395  11.786   8.415  11.534 -0.0174 -0.5311  0.7593
31904SOL     OW  396   6.258   5.389  10.894  0.1182 -0.0147  0.4040
31904SOL    HW1  397   6.193   5.320  10.902  0.0257  0.1242  0.9209
31904SOL    HW2  398   6.246   5.443  10.972 -0.4740  1.1689 -0.4738
31905SOL     OW  399   6.209   0.561  11.198  0.1734  0.3704  0.3689
31905SOL    HW1  400   6.154   0.503  11.145 -1.0479  0.9224  0.9854
31905SOL    HW2  401   6.239   0.628  11.137 -1.3558  1.0972  0.3831
31906SOL     OW  402   6.581   2.164  10.938  0.1141 -0.3650  0.0549
31906SOL    HW1  403   6.598   2.250  10.976  5.0193  0.2909 -2.7091
31906SOL    HW2  404   6.565   2.107  11.013 -1.0050  2.4757  2.1462
31907SOL     OW  405   1.724   8.914  10.219  0.0288  0.5133  0.2109
31907SOL    HW1  406   1.782   8.990  10.218 -0.2751  0.8179  2.0949
31907SOL    HW2  407   1.760   8.855  10.153  1.1329  1.6570 -0.2484
31908SOL     OW  408   2.277   4.844   7.225  0.1343  0.1523 -0.0518
31908SOL    HW1  409   2.344   4.846   7.293 -0.6394 -1.0825  0.7780
31908SOL    HW2  410   2.326   4.830   7.144  1.0593  1.5276  0.2141
31909SOL     OW  411  11.061   4.715  11.765 -0.2056  0.1815  0.3415
31909SOL    HW1  412  11.115   4.638  11.786 -1.1800 -0.3140  1.1313
31909SOL    HW2  413  11.051   4.760  11.849  0.2886  1.1459 -0.1022
31910SOL     OW  414   1.387   2.309   7.328  0.1210 -0.7272 -0.3109
31910SOL    HW1  415   1.377   2.402   7.312  0.3484 -0.8441 -1.1705
31910SOL    HW2  416   1.327   2.290   7.400  1.7068  0.4932  1.4356
31911SOL     OW  417   6.023   4.050   9.613  0.0751 -0.0439 -0.0714
31911SOL    HW1  418   5.954   4.087   9.668 -0.0316 -2.6052  1.6875
31911SOL    HW2  419   5.980   3.981   9.563  1.1716 -1.2178  0.5406
31912SOL     OW  420   1.867   7.454   7.451  0.0150 -0.2230 -0.2162
31912SOL    HW1  421   1.849   7.548   7.456 -1.4433 -0.5328  1.1467
31912SOL    HW2  422   1.812   7.416   7.520  1.2637 -1.9810 -0.1490
31913SOL     OW  423   2.069   9.395   3.133  0.0136  0.0931 -0.2719
31913SOL    HW1  424   2.071   9.308   3.171 -0.7327  0.6946  1.2337
31913SOL    HW2  425   1.980   9.404   3.098 -0.0510  0.4073 -0.0294
31914SOL     OW  426  10.653   0.477   1.811  0.7783 -0.1654 -0.0731
31914SOL    HW1  427  10.661   0.468   1.716 -0.4227 -0.8076 -0.1402
31914SOL    HW2  428  10.618   0.565   1.824  0.6129 -0.2052 -0.2502
31915SOL     OW  429   8.572   7.209   6.033  0.0248 -0.0629 -0.4893
31915SOL    HW1  430   8.646   7.259   6.068  1.0425 -1.4563 -0.5939
31915SOL    HW2  431   8.518   7.190   6.110  0.8070 -0.7194 -0.0866
31916SOL     OW  432  10.275   0.409   4.914  0.2595  0.3003 -0.4756
31916SOL    HW1  433  10.296   0.378   5.002  0.0463 -0.7019 -0.7750
31916SOL    HW2  434  10.335   0.361   4.856  1.0345  1.6020 -0.8188
31917SOL     OW  435  10.401   8.165   1.251  0.6259  0.3316  0.2382
31917SOL    HW1  436  10.420   8.229   1.182  1.8250 -0.0605  0.1937
31917SOL    HW2  437  10.342   8.211   1.310  1.2125  1.3763  0.0310
31918SOL     OW  438   3.854   8.745  10.533 -0.1312  0.1353  0.3566
31918SOL    HW1  439   3.929   8.805  10.531  0.3904 -0.4586  1.1056
31918SOL    HW2  440   3.885   8.667  10.487 -0.9114  0.5401 -0.8777
31919SOL     OW  441   6.142   1.964   0.679  0.0937  0.1223  0.3617
31919SOL    HW1  442   6.108   2.053   0.671 -0.3243  0.1293  1.9325
31919SOL    HW2  443   6.066   1.908   0.664  0.5292 -0.0389 -1.5280
31920SOL     OW  444  10.476   7.566  10.116 -0.2582 -0.1519  0.0918
31920SOL    HW1  445  10.544   7.500  10.100  1.3224  1.2597  0.6674
31920SOL    HW2  446  10.478   7.579  10.211 -1.5443 -0.2679  0.1506
31921SOL     OW  447   0.075   2.784   5.268  0.8799 -0.2851 -0.1721
31921SOL    HW1  448   0.039   2.696   5.252 -0.5820  0.2588 -0.0200
31921SOL    HW2  449   0.159   2.767   5.310 -0.7139 -1.6868  2.8450
31922SOL     OW  450   3.216   5.018   7.219 -0.2303 -0.2821  0.4775
31922SOL    HW1  451   3.169   4.951   7.170 -0.6046  0.4164 -0.1498
31922SOL    HW2  452   3.221   4.984   7.308  0.8135 -1.7620 -0.1042
31923SOL     OW  453  11.150  10.837   4.149 -0.8977 -0.1364  0.1228
31923SOL    HW1  454  11.058  10.830   4.173 -0.7480  0.0448  0.7696
31923SOL    HW2  455  11.197  10.825   4.232 -0.3770  0.7017 -0.0436
31924SOL     OW  456   7.248   0.338   4.200  0.3380  0.5850  0.3190
31924SOL    HW1  457   7.254   0.255   4.247  1.2152  0.9625  0.8985
31924SOL    HW2  458   7.186   0.321   4.129  1.2098 -0.8452 -0.1433
31925SOL     OW  459  11.946   2.796   8.093 -0.3299 -0.1828  0.6173
31925SOL    HW1  460  11.983   2.756   8.014 -0.0157  0.3825  0.4669
31925SOL    HW2  461  12.022   2.824   8.143 -0.5354 -0.3088  0.9981
31926SOL     OW  462   0.733  11.377   2.487 -0.2407  0.4001  0.0582
31926SOL    HW1  463   0.746  11.472   2.485 -0.7460  0.5654  2.1317
31926SOL    HW2  464   0.649  11.365   2.530  0.1810 -1.0096  0.5385
31927SOL     OW  465   4.023   7.340   4.296  0.2204  0.3500  0.1474
31927SOL    HW1  466   3.973   7.268   4.256  0.0452  0.2629  0.5217
31927SOL    HW2  467   4.043   7.398   4.223  0.7145 -0.2803 -0.2371
31928SOL     OW  468   8.005   1.711   3.782 -0.1692  0.4397  0.0410
31928SOL    HW1  469   8.046   1.660   3.712 -0.3002 -0.4822  0.6126
31928SOL    HW2  470   8.077   1.738   3.839 -0.1686  0.3480  0.0834
31929SOL     OW  471   5.797   7.343   2.901 -0.0603  0.3322 -0.2016
31929SOL    HW1  472   5.758   7.427   2.877  0.2970  0.3065 -0.8848
31929SOL    HW2  473   5.890   7.361   2.910 -0.2733  0.5799  2.2570
31930SOL     OW  474   8.869   6.639   0.237  0.0482  0.5478  0.3232
31930SOL    HW1  475   8.815   6.585   0.296  0.0160  1.1379  0.8458
31930SOL    HW2  476   8.881   6.721   0.285  1.2151  0.5157  0.1122
31931SOL     OW  477   8.219   1.390  11.911 -0.1513 -0.0645  0.0227
31931SOL    HW1  478   8.145   1.352  11.958 -0.9896 -0.5154 -1.5859
31931SOL    HW2  479   8.184   1.411  11.824  1.3136  0.8101 -0.3945
31932SOL     OW  480   2.290  10.718   0.453 -0.3890  0.0989 -0.4875
31932SOL    HW1  481   2.315  10.645   0.510  0.2218  0.1829 -0.6361
31932SOL    HW2  482   2.296  10.796   0.509 -1.5465 -0.0063 -0.1858
31933SOL     OW  483   2.171   0.959   1.120 -0.1386  0.0505  0.1869
31933SOL    HW1  484   2.146   0.869   1.099 -0.5474  0.6895 -2.3269
31933SOL    HW2  485   2.254   0.950   1.168 -0.5641 -1.6677  0.6800
31934SOL     OW  486   5.796   9.447   7.429  0.3197 -0.4596  0.1579
31934SOL    HW1  487   5.887   9.446   7.459  0.7362  1.7800 -0.8702
31934SOL    HW2  488   5.754   9.515   7.481 -0.0230  0.4556 -1.2404
31935SOL     OW  489   7.158   8.830   2.851  0.3750  0.5423  0.1031
31935SOL    HW1  490   7.152   8.746   2.804 -0.3364  1.6552 -1.9311
31935SOL    HW2  491   7.247   8.832   2.885  1.0155 -0.2401 -1.4281
31936SOL     OW  492   9.745   5.613  10.889 -0.3224 -0.1379  0.0204
31936SOL    HW1  493   9.778   5.695  10.853  1.8191 -0.6862  0.5639
31936SOL    HW2  494   9.674   5.587  10.830  1.2071  0.3972 -2.1975
31937SOL     OW  495   1.547   4.602   6.317 -0.7033  0.4251 -0.5289
31937SOL    HW1  496   1.514   4.632   6.401 -0.2907  0.9589 -0.5526
31937SOL    HW2  497   1.546   4.506   6.323  1.7395  0.4083  1.0610
31938SOL     OW  498  11.144   2.600   3.794  0.0195  0.2876  0.4845
31938SOL    HW1  499  11.230   2.562   3.778  0.2979  0.9255  0.4559
31938SOL    HW2  500  11.115   2.632   3.708  0.4613  1.5236  0.7773
31939SOL     OW  501   0.173   0.831   4.928  0.2454  0.3053 -0.3999
31939SOL    HW1  502   0.124   0.750   4.943  0.1936  0.5369  0.7826
31939SOL    HW2  503   0.186   0.867   5.015  2.1876  0.4513 -0.7138
31940SOL     OW  504  11.188   6.818  10.288 -0.0180 -0.1623  0.2085
31940SOL    HW1  505  11.247   6.876  10.241 -0.2721 -0.3954 -0.4108
31940SOL    HW2  506  11.244   6.769  10.348  0.2882  0.2461  0.2547
31941SOL     OW  507   4.139  10.685   0.144 -0.5665  0.7391  0.1781
31941SOL    HW1  508   4.174  10.608   0.188 -0.9628  0.4968  0.0776
31941SOL    HW2  509   4.202  10.705   0.075  1.7483  2.9694  2.6820
31942SOL     OW  510   9.546   9.129   0.159  0.0008  0.5208  0.5154
31942SOL    HW1  511   9.455   9.109   0.137  0.6797 -2.3817 -0.1081
31942SOL    HW2  512   9.573   9.192   0.092 -1.3159  0.7491  0.1729
31943SOL     OW  513   3.648  11.935   6.326 -0.2438  0.4343 -0.0419
31943SOL    HW1  514   3.613  12.008   6.277  0.3900  1.4384  0.9470
31943SOL    HW2  515   3.611  11.944   6.414 -0.9722 -1.0323 -0.1588
31944SOL     OW  516   1.640  10.227   4.329  0.2675  0.9854 -0.1094
31944SOL    HW1  517   1.564  10.259   4.378 -1.2708 -2.0096 -0.3637
31944SOL    HW2  518   1.686  10.170   4.390  0.8217  0.6873 -0.7951
31945SOL     OW  519   3.200   0.668   3.180 -0.0527 -0.6060  0.2330
31945SOL    HW1  520   3.247   0.744   3.143 -1.3827 -0.2605 -0.7946
31945SOL    HW2  521   3.129   0.651   3.119 -0.7889 -1.6482  1.3344
31946SOL     OW  522   1.876  11.170   3.240  0.3504  0.4348  0.5861
31946SOL    HW1  523   1.879  11.217   3.324  0.0856 -0.7926  1.3135
31946SOL    HW2  524   1.814  11.099   3.255  0.2556  0.2318 -0.6906
31947SOL     OW  525   2.828   6.598  10.273 -0.2075 -0.4364  0.0118
31947SOL    HW1  526   2.846   6.511  10.308  0.9722 -0.1233  0.2283
31947SOL    HW2  527   2.753   6.586  10.215  0.5832 -1.8092 -0.7813
31948SOL     OW  528   6.698   0.892  10.378 -0.3586  0.0227  0.1863
31948SOL    HW1  529   6.606   0.917  10.390 -0.6114 -0.7443 -0.0946
31948SOL    HW2  530   6.702   0.859  10.289  0.3129  0.5470  0.0219
31949SOL     OW  531   9.772   9.587   6.794  0.2078  0.0585 -0.5233
31949SOL    HW1  532   9.789   9.619   6.883 -1.8730 -1.0588  0.3401
31949SOL    HW2  533   9.753   9.666   6.743  1.4585  0.7131 -0.0270
31950SOL     OW  534   3.305  11.623   1.128  0.1935  0.1792 -0.2058
31950SOL    HW1  535   3.322  11.650   1.219  2.3566  1.1477 -0.8257
31950SOL    HW2  536   3.381  11.570   1.105 -0.9658 -1.1713 -1.0777
31951SOL     OW  537   1.336   3.676   0.843 -0.1883 -0.0822 -0.2377
31951SOL    HW1  538   1.272   3.651   0.776 -0.4988  0.1563 -0.0341
31951SOL    HW2  539   1.393   3.600   0.851  1.8738  1.0123 -3.0784
31952SOL     OW  540   7.099   9.093   6.564 -0.8059 -0.4030  0.1204
31952SOL    HW1  541   7.187   9.109   6.530 -0.7906  0.1452  0.4076
31952SOL    HW2  542   7.100   9.001   6.590 -0.0507 -0.1859  0.9053
31953SOL     OW  543   0.706   6.567  10.226 -0.3785  0.0468 -0.1810
31953SOL    HW1  544   0.619   6.527  10.221 -0.2068 -0.5914  1.2743
31953SOL    HW2  545   0.731   6.582  10.135 -1.8582 -0.0898 -0.6337
31954SOL     OW  546   9.511   2.598   5.573 -0.2553  0.4959 -0.1956
31954SOL    HW1  547   9.478   2.511   5.550  1.1262 -0.1840  0.2686
31954SOL    HW2  548   9.568   2.622   5.500 -0.2505  0.8057 -0.0913
31955SOL     OW  549   2.507   0.256   4.160 -0.0443 -0.2273  0.5762
31955SOL    HW1  550   2.600   0.278   4.160 -0.0201 -0.2177 -0.8065
31955SOL    HW2  551   2.502   0.171   4.118 -0.8410  0.8917 -1.7872
31956SOL     OW  552  11.494   8.642   6.224  0.2243  0.1583 -0.1855
31956SOL    HW1  553  11.536   8.653   6.138  0.7665 -1.8776 -0.2239
31956SOL    HW2  554  11.455   8.555   6.221 -0.1065  0.2106  1.5115
31957SOL     OW  555   6.626   7.584   3.998  0.2405  0.2945  0.0978
31957SOL    HW1  556   6.634   7.647   4.070 -0.6996  0.3314  0.1778
31957SOL    HW2  557   6.671   7.506   4.031 -0.2593  0.2795  0.7677
31958SOL     OW  558   3.702   9.075   0.093  0.2068 -0.7561 -0.5219
31958SOL    HW1  559   3.734   9.001   0.145  0.3036  0.0620  0.5977
31958SOL    HW2  560   3.662   9.034   0.016 -0.7089 -2.0386  0.6003
31959SOL     OW  561   8.438   1.173   3.733 -0.1297 -0.0034  0.1075
31959SOL    HW1  562   8.352   1.157   3.772 -0.2286 -0.4135 -0.2805
31959SOL    HW2  563   8.460   1.262   3.761 -1.0462  0.4203 -0.4744
31960SOL     OW  564   0.169   5.521   6.786  0.4480 -0.0551 -0.6270
31960SOL    HW1  565   0.162   5.610   6.751  1.3319  0.6278  0.8380
31960SOL    HW2  566   0.102   5.516   6.854 -0.5093 -0.9875 -1.6107
31961SOL     OW  567   8.951   1.068   1.030 -0.0945  0.1913  0.4237
31961SOL    HW1  568   8.981   1.158   1.041 -0.8778  0.3664  1.2482
31961SOL    HW2  569   8.993   1.038   0.949 -1.0470  1.8088 -0.7154
31962SOL     OW  570   0.741  10.422  10.198  0.0839 -0.1645 -0.0658
31962SOL    HW1  571   0.771  10.437  10.109  0.6730  0.6432  0.2605
31962SOL    HW2  572   0.710  10.507  10.228 -3.3775 -1.0467 -0.6629
31963SOL     OW  573  10.761  10.769   3.195  0.0802  0.1585 -0.1021
31963SOL    HW1  574  10.683  10.807   3.235 -1.2071 -1.9505 -0.4631
31963SOL    HW2  575  10.834  10.818   3.232 -1.4372  3.0863 -0.7222
31964SOL     OW  576   0.649  11.934   0.086 -0.5206 -0.2897 -0.8082
31964SOL    HW1  577   0.694  11.985   0.019  1.4316 -1.4285 -0.4346
31964SOL    HW2  578   0.627  11.852   0.041 -0.7662 -0.3756 -0.5299
31965SOL     OW  579   4.437   8.129  11.085 -0.3555 -0.7990 -0.4027
31965SOL    HW1  580   4.494   8.053  11.073  0.2198 -0.5834  0.8389
31965SOL    HW2  581   4.372   8.121  11.015 -0.4639 -2.5710 -0.1366
31966SOL     OW  582   0.441   3.124   8.513  0.2102 -0.5454  0.2211
31966SOL    HW1  583   0.458   3.033   8.487  0.8022  0.1350 -1.9843
31966SOL    HW2  584   0.365   3.150   8.462 -0.1621  0.1282  1.0848
31967SOL     OW  585   3.920   0.951   9.904  0.0637 -0.5026 -1.0360
31967SOL    HW1  586   3.911   1.044   9.885  0.9668  0.3978  2.3275
31967SOL    HW2  587   3.846   0.931   9.962 -1.1232 -2.3930 -3.0522
31968SOL     OW  588   1.530   4.989   2.573 -0.0631 -0.4606  0.5423
31968SOL    HW1  589   1.622   4.966   2.562  0.8817  2.8524  0.2860
31968SOL    HW2  590   1.505   5.031   2.491 -1.4272 -0.1776  1.0708
31969SOL     OW  591  11.486   3.566  10.186  0.5164  0.3821 -0.7248
31969SOL    HW1  592  11.567   3.596  10.227 -0.1589 -0.7873  1.6811
31969SOL    HW2  593  11.475   3.477  10.218 -2.5099  1.0323  0.3760
31970SOL     OW  594   1.343   8.250  10.697 -0.4852  0.1430  0.2547
31970SOL    HW1  595   1.338   8.338  10.736  1.8944  0.1252  0.7825
31970SOL    HW2  596   1.432   8.245  10.662 -0.9119 -1.7127 -0.6829
31971SOL     OW  597   4.642   5.033   3.094 -0.2962  0.6809  0.1374
31971SOL    HW1  598   4.660   5.003   3.184  0.8215  0.9220  0.0108
31971SOL    HW2  599   4.665   5.126   3.096 -0.3697  0.7079 -0.3751
31972SOL     OW  600  11.954   7.125   2.501  0.2097 -0.7161 -0.3654
31972SOL    HW1  601  11.909   7.206   2.476 -0.7204 -1.1895 -0.2962
31972SOL    HW2  602  11.940   7.119   2.596 -0.9563 -1.6487 -0.5680
31973SOL     OW  603  11.586   9.552   1.869 -0.6610  0.5339 -0.2167
31973SOL    HW1  604  11.609   9.474   1.819 -1.4716 -1.2657  1.9912
31973SOL    HW2  605  11.492   9.545   1.882 -0.8927  2.3789 -0.6782
31974SOL     OW  606   2.600   4.965  10.252 -0.1914 -0.1477 -0.5084
31974SOL    HW1  607   2.603   5.042  10.309 -2.3013 -0.3326 -0.0819
31974SOL    HW2  608   2.611   5.000  10.164  2.0077  0.2588 -0.1336
31975SOL     OW  609  11.768  10.055   1.044 -0.2466 -0.2952 -0.0478
31975SOL    HW1  610  11.688  10.007   1.023 -0.7348  0.2936  0.4305
31975SOL    HW2  611  11.784  10.110   0.967 -1.3275  0.9252  0.5639
31976SOL     OW  612   6.938   0.555   6.792  0.1322 -0.2703 -0.2504
31976SOL    HW1  613   6.900   0.559   6.879  0.9447 -0.1194  0.1088
31976SOL    HW2  614   6.863   0.555   6.733 -0.4212 -0.2237  0.4386
31977SOL     OW  615   6.511   3.005  11.114  0.1589 -0.2801 -0.1042
31977SOL    HW1  616   6.498   3.083  11.060  0.9681 -0.5729 -0.7454
31977SOL    HW2  617   6.537   3.039  11.200 -1.5804  0.2073  0.2684
31978SOL     OW  618   7.759   8.729   4.106 -0.0914 -0.1959 -0.2445
31978SOL    HW1  619   7.798   8.809   4.072 -0.3487  1.3179  2.6589
31978SOL    HW2  620   7.810   8.709   4.185 -3.2370  0.2447  2.1026
31979SOL     OW  621   5.210   1.892  11.114 -0.5095  0.6420  0.1694
31979SOL    HW1  622   5.203   1.804  11.151  1.2568 -0.1003 -1.1243
31979SOL    HW2  623   5.262   1.941  11.177  1.9042 -0.4223 -0.8511
31980SOL     OW  624   0.937   4.374  10.091 -0.0380 -0.2113 -0.0861
31980SOL    HW1  625   0.858   4.394  10.040  0.9809 -1.4077 -2.2871
31980SOL    HW2  626   0.919   4.288  10.129  0.3553 -0.6833 -0.9519
31981SOL     OW  627   7.236   8.293   5.095  0.6932 -0.2664  0.1499
31981SOL    HW1  628   7.190   8.370   5.062  0.3390 -0.0796  1.0625
31981SOL    HW2  629   7.278   8.322   5.176 -0.5812 -1.3727  1.2421
31982SOL     OW  630   3.720  11.389   3.514  0.0792  0.0228 -0.2847
31982SOL    HW1  631   3.741  11.410   3.605  0.0315  0.2937 -0.3351
31982SOL    HW2  632   3.624  11.381   3.513  0.0848 -0.0464 -0.2979
31983SOL     OW  633   0.587   9.857   0.669 -0.0275 -0.5782  0.1872
31983SOL    HW1  634   0.662   9.891   0.620 -0.6329  1.6237  0.6670
31983SOL    HW2  635   0.616   9.770   0.699  1.1185 -1.1394 -2.2385
31984SOL     OW  636   1.470  11.770   1.502  0.0803 -0.6273 -0.3247
31984SOL    HW1  637   1.451  11.790   1.410  0.2114  1.3224  0.0307
31984SOL    HW2  638   1.486  11.676   1.503 -3.0830 -1.3316 -1.7717
31985SOL     OW  639   0.164   5.066   9.665  0.0614  0.6123 -0.5572
31985SOL    HW1  640   0.122   5.044   9.748 -0.0386  1.4044 -0.3910
31985SOL    HW2  641   0.155   4.986   9.612  2.8957 -1.1139  1.2414
31986SOL     OW  642   0.635   6.991   2.216 -0.2319 -0.6645 -0.0274
31986SOL    HW1  643   0.629   7.073   2.265 -0.7131 -0.9264  0.3542
31986SOL    HW2  644   0.711   6.946   2.255 -1.3374 -1.4257  1.3476
31987SOL     OW  645   6.571  10.375  11.251  0.3461  0.4414  0.5564
31987SOL    HW1  646   6.615  10.439  11.195 -0.9843  0.7514 -0.1555
31987SOL    HW2  647   6.487  10.360  11.209  0.2233 -1.0081  1.2856
31988SOL     OW  648   0.333   1.523   0.239  0.0660 -0.0190 -0.4390
31988SOL    HW1  649   0.386   1.595   0.272  0.4341 -0.5349  0.1276
31988SOL    HW2  650   0.307   1.550   0.151  1.2907  0.2355 -0.7381
31989SOL     OW  651   5.199   3.996   2.623 -0.3156  0.5239 -0.3397
31989SOL    HW1  652   5.202   4.071   2.683  1.0761 -0.1479  0.4592
31989SOL    HW2  653   5.205   4.036   2.536 -0.6357  1.4037  0.0230
31990SOL     OW  654  10.845   5.336   4.355  0.1252 -0.5400 -0.0758
31990SOL    HW1  655  10.818   5.384   4.277 -1.8422 -1.1679  0.1750
31990SOL    HW2  656  10.834   5.244   4.332 -2.1134 -0.7188  1.4299
31991SOL     OW  657   4.303   4.576   6.150 -0.1680  0.8341  0.3404
31991SOL    HW1  658   4.224   4.529   6.179 -0.0109 -0.0953 -0.6818
31991SOL    HW2  659   4.375   4.534   6.198  0.1031 -0.7672 -1.3537
31992SOL     OW  660   9.973   8.238   3.321  0.8163  0.8329 -0.2107
31992SOL    HW1  661   9.903   8.279   3.271  1.2881  0.9156 -0.8230
31992SOL    HW2  662  10.053   8.258   3.271  1.4159  1.6569  1.0199
31993SOL     OW  663   0.855  11.966  10.438 -0.4077 -0.5566  0.2643
31993SOL    HW1  664   0.778  12.000  10.393 -0.5187 -0.6971  0.3478
31993SOL    HW2  665   0.826  11.884  10.477  0.3686 -1.8803 -1.7286
31994SOL     OW  666   0.232   1.948   4.586 -0.4134  0.1927 -0.1436
31994SOL    HW1  667   0.269   2.031   4.618 -0.8512  0.8736 -1.3446
31994SOL    HW2  668   0.292   1.881   4.618 -0.3992  0.8929  1.4136
31995SOL     OW  669   6.255   8.745   1.882 -0.3301  0.6027 -0.4407
31995SOL    HW1  670   6.163   8.719   1.892 -0.1711  0.3570  0.4705
31995SOL    HW2  671   6.269   8.809   1.951  0.8433 -1.1828  1.0696
31996SOL     OW  672   3.574   9.827   0.768 -0.4769  0.0099 -0.5561
31996SOL    HW1  673   3.517   9.755   0.743 -0.3285  0.2129 -1.5158
31996SOL    HW2  674   3.541   9.856   0.853  0.4060 -2.1891  0.6249
31997SOL     OW  675   9.358   8.068   3.776 -0.3553 -0.3778  0.1296
31997SOL    HW1  676   9.279   8.035   3.733 -1.5901  1.6123  0.7511
31997SOL    HW2  677   9.344   8.051   3.869 -0.1986  0.2438  0.2741
31998SOL     OW  678   7.572  10.129   4.247  0.1757 -0.4673 -0.1506
31998SOL    HW1  679   7.645  10.122   4.186  0.2322  1.2248 -0.3473
31998SOL    HW2  680   7.494  10.123   4.192  0.2274  1.5659 -0.5326
31999SOL     OW  681   7.818   8.298   1.754 -0.1236  0.5492 -0.9005
31999SOL    HW1  682   7.906   8.298   1.715  0.3797  1.1539  0.1773
31999SOL    HW2  683   7.791   8.390   1.752 -1.4560  0.1624 -2.7239
32000SOL     OW  684   9.955   9.201  10.573  0.2133  0.5111 -0.1506
32000SOL    HW1  685   9.929   9.209  10.664 -0.6426  1.9091 -0.4896
32000SOL    HW2  686   9.941   9.108  10.552 -0.1527  0.3060  0.9597
32001SOL     OW  687   8.923   4.288   6.804 -0.6433 -0.1274 -0.3078
32001SOL    HW1  688   8.898   4.330   6.886  0.4845  2.6394 -1.2472
32001SOL    HW2  689   9.004   4.242   6.824 -0.9260 -0.3356  0.3638
32002SOL     OW  690   0.607   5.261   6.261 -0.5833  0.4339 -0.2161
32002SOL    HW1  691   0.580   5.191   6.321 -0.7368  0.4134 -0.3086
32002SOL    HW2  692   0.585   5.227   6.174  0.5057  0.0582 -0.3681
32003SOL     OW  693   2.198   2.904   7.138 -0.1862  0.0078  0.5300
32003SOL    HW1  694   2.112   2.935   7.165  0.4231  2.2018  0.1496
32003SOL    HW2  695   2.196   2.907   7.042 -0.1055 -1.1589  0.4866
32004SOL     OW  696  11.920   7.740   9.648 -0.2674 -0.3145 -0.3138
32004SOL    HW1  697  11.958   7.793   9.578 -1.2562  1.4267  0.4150
32004SOL    HW2  698  11.866   7.675   9.602 -0.1714  0.2140 -1.1938
32005SOL     OW  699   9.224   8.631   7.908  0.3309 -0.3437 -0.5752
32005SOL    HW1  700   9.272   8.635   7.991  0.7419 -0.3854 -0.8052
32005SOL    HW2  701   9.220   8.722   7.878  1.3276 -0.4697 -1.1421
32006SOL     OW  702   6.337   4.159   6.021 -0.6476  0.4260 -0.9547
32006SOL    HW1  703   6.417   4.203   6.047 -0.9054  1.1056 -1.2637
32006SOL    HW2  704   6.283   4.157   6.101 -0.4726  0.3140 -0.8412
32007SOL     OW  705   4.473   5.474   8.466  0.3461 -0.1906  0.1487
32007SOL    HW1  706   4.427   5.390   8.456  0.8166 -0.3288 -0.9222
32007SOL    HW2  707   4.463   5.495   8.559 -0.0159 -1.2950  0.3779
32008SOL     OW  708   3.304   3.544  11.543  0.1619  0.4624  0.6588
32008SOL    HW1  709   3.279   3.453  11.556  0.6555  0.4017  1.1934
32008SOL    HW2  710   3.319   3.578  11.631 -0.7619  1.2804  0.5324
32009SOL     OW  711  11.978   0.276   5.108  0.8229 -0.0894 -0.2277
32009SOL    HW1  712  12.009   0.237   5.026  1.6310  0.7343 -0.3424
32009SOL    HW2  713  11.883   0.282   5.098  1.0851  3.0928 -2.6043
32010SOL     OW  714   7.155   9.770   9.272 -0.3412  0.6242 -0.9766
32010SOL    HW1  715   7.180   9.678   9.280 -0.2689  0.8043  1.7039
32010SOL    HW2  716   7.152   9.785   9.177  3.3768 -1.1227 -1.5780
32011SOL     OW  717  10.170   3.734   6.668 -0.9511 -0.4990 -0.4757
32011SOL    HW1  718  10.090   3.781   6.645  0.7588  2.7981 -0.2454
32011SOL    HW2  719  10.161   3.715   6.761 -1.1918  0.5157 -0.2783
32012SOL     OW  720   9.139   1.613   5.296  0.3973 -0.2145 -0.6214
32012SOL    HW1  721   9.202   1.684   5.284  1.4606 -1.0447 -0.0648
32012SOL    HW2  722   9.182   1.551   5.354 -1.2955 -0.3839  0.5253
32013SOL     OW  723   2.114   5.051   4.315  0.2799 -0.7310  0.0488
32013SOL    HW1  724   2.024   5.083   4.323  0.9010  1.0753  0.1358
32013SOL    HW2  725   2.123   4.988   4.386 -0.7831 -0.6162  0.3052
32014SOL     OW  726   0.675   1.684   4.512 -0.4273 -0.9384 -0.0094
32014SOL    HW1  727   0.603   1.737   4.546  0.2807 -0.4755  0.7724
32014SOL    HW2  728   0.633   1.626   4.448 -1.6106 -1.1372  0.9126
32015SOL     OW  729   2.737   7.466   5.169 -0.0445 -0.5399  0.0683
32015SOL    HW1  730   2.797   7.526   5.125 -1.4137 -0.7181 -2.1925
32015SOL    HW2  731   2.707   7.514   5.246  2.6650 -0.3207  1.1159
32016SOL     OW  732   7.284   5.855   0.263 -0.0196  0.3522  0.2579
32016SOL    HW1  733   7.325   5.908   0.331  0.3851  0.0904  0.2230
32016SOL    HW2  734   7.231   5.792   0.312 -1.2066  1.3343  0.2785
32017SOL     OW  735   6.674   7.475   1.979  0.3954 -0.0717 -0.3521
32017SOL    HW1  736   6.581   7.454   1.975 -0.0484  1.5894  0.3082
32017SOL    HW2  737   6.687   7.513   2.066  1.0504  2.3385 -1.3990
32018SOL     OW  738   1.813   0.657   7.209 -0.0868 -0.5549  0.5266
32018SOL    HW1  739   1.764   0.608   7.275 -1.4835  1.1948  0.8819
32018SOL    HW2  740   1.745   0.696   7.153  0.9936 -0.0362 -0.4756
32019SOL     OW  741   5.705   4.096  10.943  0.2055 -0.0685 -0.1940
32019SOL    HW1  742   5.654   4.092  10.862  0.8527  1.0839 -0.6963
32019SOL    HW2  743   5.773   4.029  10.933  0.8666  0.6999 -1.0555
32020SOL     OW  744   6.872   7.754   1.738 -0.3741 -0.4563  0.8036
32020SOL    HW1  745   6.899   7.845   1.726  2.4499 -1.2428  0.5750
32020SOL    HW2  746   6.776   7.758   1.746 -0.7072  2.1484 -2.5651
32021SOL     OW  747   6.607   4.358   7.180  0.5996  0.2294  0.9315
32021SOL    HW1  748   6.556   4.337   7.258 -2.6057  1.6392 -0.6301
32021SOL    HW2  749   6.579   4.293   7.115  0.5468  1.2445 -0.0773
32022SOL     OW  750   5.047  10.687   4.471 -0.5731 -0.2007  0.2164
32022SOL    HW1  751   5.086  10.708   4.555 -1.7552 -0.5264  0.8625
32022SOL    HW2  752   5.109  10.626   4.431  0.7004  1.0687  0.2086
32023SOL     OW  753   0.528   1.917   2.114 -0.3598  0.1366 -0.0565
32023SOL    HW1  754   0.557   1.838   2.068 -0.4548 -0.1443  0.3656
32023SOL    HW2  755   0.471   1.961   2.051  0.1341  0.1506 -0.4991
32024SOL     OW  756   5.869   7.966   1.932  0.0888  0.6259  0.6169
32024SOL    HW1  757   5.812   8.033   1.893 -1.3048 -1.0037 -0.3246
32024SOL    HW2  758   5.923   7.936   1.859  0.3365  0.3757  0.9024
32025SOL     OW  759  10.692   1.161   0.978  0.1489 -0.2572  0.1171
32025SOL    HW1  760  10.690   1.256   0.971 -0.3717 -0.2953 -0.3623
32025SOL    HW2  761  10.658   1.130   0.895  2.0605 -0.9049 -0.4822
32026SOL     OW  762   5.506   7.798   2.176  0.2019 -0.0373 -0.0231
32026SOL    HW1  763   5.566   7.776   2.104 -1.0869 -1.9675 -0.5728
32026SOL    HW2  764   5.563   7.807   2.253  1.3964  0.2402 -0.8947
32027SOL     OW  765   1.761   0.465  10.126 -0.5577  0.3376 -0.3002
32027SOL    HW1  766   1.668   0.488  10.123 -0.9556 -1.2252 -1.3250
32027SOL    HW2  767   1.806   0.544  10.096 -1.5862  0.9413 -0.3191
32028SOL     OW  768   9.720   5.347   2.566 -0.9790  0.3484 -0.0606
32028SOL    HW1  769   9.778   5.314   2.635  0.8624  2.4255 -0.5038
32028SOL    HW2  770   9.643   5.378   2.612 -1.2037 -1.1959  0.6884
32029SOL     OW  771   4.784   4.291  11.181  0.0108  0.3547  0.0973
32029SOL    HW1  772   4.733   4.214  11.206 -1.2646  1.3677  0.7592
32029SOL    HW2  773   4.724   4.344  11.128  1.0703  0.6156 -0.9041
32030SOL     OW  774  11.634   5.638   3.029  0.5991  0.2932 -0.1927
32030SOL    HW1  775  11.641   5.720   3.078  1.1489  1.0406 -1.4738
32030SOL    HW2  776  11.611   5.665   2.940 -0.8371 -1.0551 -0.2624
32031SOL     OW  777   5.778   1.724   7.683 -0.2277  0.3611  0.3572
32031SOL    HW1  778   5.725   1.784   7.630 -1.3870 -1.7460 -1.0325
32031SOL    HW2  779   5.772   1.759   7.772 -3.4330  0.6581  0.1411
32032SOL     OW  780   1.282  11.578   8.464 -0.2700  0.0514 -0.1709
32032SOL    HW1  781   1.293  11.625   8.547 -1.4629  1.3920 -0.7222
32032SOL    HW2  782   1.191  11.551   8.464 -0.6429  1.1892 -1.5736
32033SOL     OW  783   7.523   6.945   2.143 -0.3117  0.2958  0.0042
32033SOL    HW1  784   7.444   6.892   2.142 -0.5041  0.5068  1.4164
32033SOL    HW2  785   7.497   7.029   2.106 -0.5340  0.1009 -0.2840
32034SOL     OW  786  10.351   8.829   9.759 -0.4449 -0.1547  0.9963
32034SOL    HW1  787  10.338   8.735   9.764 -0.1471 -0.2981 -0.4944
32034SOL    HW2  788  10.263   8.865   9.757 -0.8082 -0.7564 -3.1156
32035SOL     OW  789   3.669   0.965   1.834  0.2664 -0.3383 -0.2008
32035SOL    HW1  790   3.701   0.924   1.753 -0.7312 -0.8631 -0.3612
32035SOL    HW2  791   3.635   1.050   1.806  1.4797  0.2222 -0.0280
32036SOL     OW  792   8.268   6.627   8.305  0.0714  0.1115 -0.0863
32036SOL    HW1  793   8.185   6.671   8.285 -1.8557 -2.8675  0.6304
32036SOL    HW2  794   8.320   6.693   8.351 -1.3821  2.4487 -1.5940
32037SOL     OW  795  10.417   5.081   7.105 -0.3470 -0.0679  0.0618
32037SOL    HW1  796  10.426   5.010   7.168 -1.6545  2.2214  3.1036
32037SOL    HW2  797  10.416   5.160   7.158 -3.0657  2.0013 -2.6980
32038SOL     OW  798   2.845   7.896   2.356  0.3370 -0.2597 -0.0249
32038SOL    HW1  799   2.809   7.808   2.360  1.5235 -0.8556 -1.4417
32038SOL    HW2  800   2.769   7.954   2.366 -0.4762 -1.4176  0.7511
32039SOL     OW  801   7.469   1.523  10.556  0.4645  0.6095  0.7249
32039SOL    HW1  802   7.388   1.476  10.574  0.0162  1.4347  0.9146
32039SOL    HW2  803   7.469   1.537  10.462 -0.5892  2.2915  0.9347
32040SOL     OW  804   5.036  10.309   1.444  0.1102 -0.6301 -0.1785
32040SOL    HW1  805   5.050  10.226   1.400 -0.2147 -1.9355  2.0349
32040SOL    HW2  806   5.050  10.290   1.537 -3.8067  0.7794  0.8939
32041SOL     OW  807   0.683   3.534   3.871  0.2569 -0.5515  0.2076
32041SOL    HW1  808   0.619   3.467   3.850 -0.1818 -0.0745 -0.0080
32041SOL    HW2  809   0.640   3.616   3.847  0.1316 -0.0512  2.0126
32042SOL     OW  810   1.711   2.809  10.770 -0.3649 -0.4445  0.2584
32042SOL    HW1  811   1.787   2.867  10.764 -0.9809  0.2687 -0.9298
32042SOL    HW2  812   1.644   2.861  10.813 -0.4535 -0.7896  0.5457
32043SOL     OW  813   1.606   5.803   6.178  0.5207  0.6073  0.6318
32043SOL    HW1  814   1.592   5.792   6.084  1.7884  0.1252  0.4894
32043SOL    HW2  815   1.518   5.813   6.214 -0.2321 -1.9868 -0.2527
32044SOL     OW  816  11.130  10.206   5.244 -0.6729  0.5220 -0.9520
32044SOL    HW1  817  11.118  10.146   5.170 -1.1739 -0.3066 -0.2240
32044SOL    HW2  818  11.216  10.183   5.280 -0.7347  0.4335 -0.8577
32045SOL     OW  819   2.751   5.895   6.628  0.5738 -0.1104 -0.2561
32045SOL    HW1  820   2.661   5.925   6.626  0.4715 -0.1735  1.5920
32045SOL    HW2  821   2.775   5.895   6.721  2.3021 -0.6050 -0.6497
32046SOL     OW  822   1.871   3.840   2.605 -0.2224 -0.3310 -0.8312
32046SOL    HW1  823   1.831   3.903   2.665  1.2896 -0.1684  0.0709
32046SOL    HW2  824   1.884   3.890   2.524 -2.2035 -0.5267 -1.3086
32047SOL     OW  825   2.850  11.576   5.490  0.5462  0.6418  0.3584
32047SOL    HW1  826   2.877  11.627   5.414  0.3656 -0.3077 -0.3558
32047SOL    HW2  827   2.915  11.506   5.497 -0.8161 -0.7678 -0.4657
32048SOL     OW  828   7.803   1.490   8.612  0.0748  0.2899 -0.3289
32048SOL    HW1  829   7.870   1.504   8.546 -2.3212 -0.2327 -3.0679
32048SOL    HW2  830   7.738   1.559   8.597 -1.2980 -0.7811  0.3959
32049SOL     OW  831   5.148   0.874   4.262 -0.3144 -0.0007  0.2429
32049SOL    HW1  832   5.159   0.969   4.249  1.0836 -0.0045  1.2405
32049SOL    HW2  833   5.212   0.834   4.204 -0.4597 -0.3245  0.3040
32050SOL     OW  834   9.269   5.111   7.452 -0.3978  0.0695 -0.4037
32050SOL    HW1  835   9.209   5.134   7.382 -0.7593 -1.1003 -0.5046
32050SOL    HW2  836   9.310   5.029   7.423 -0.6347 -0.4952  0.7794
32051SOL     OW  837   1.751  10.521   8.254 -0.1963  0.0390 -0.3145
32051SOL    HW1  838   1.837  10.517   8.295 -0.7732  2.0884  1.2404
32051SOL    HW2  839   1.704  10.446   8.290  1.1010 -1.5988 -1.8104
32052SOL     OW  840  10.277   7.783   7.779 -0.1348  0.4322  0.1273
32052SOL    HW1  841  10.362   7.758   7.815 -0.7674 -1.7468  0.2697
32052SOL    HW2  842  10.297   7.848   7.712  1.6387  0.0403  0.2256
32053SOL     OW  843  10.125   6.828   8.891 -0.4786  0.0692 -0.2064
32053SOL    HW1  844  10.031   6.833   8.910 -0.5258  0.2281 -0.4768
32053SOL    HW2  845  10.165   6.892   8.949 -0.6107  0.4769 -0.5591
32054SOL     OW  846   0.375  11.990   2.189  0.3393 -0.1806 -0.0190
32054SOL    HW1  847   0.445  12.015   2.250  0.0317  0.9529 -0.1065
32054SOL    HW2  848   0.420  11.974   2.107  0.5359  0.2312  0.0068
32055SOL     OW  849   9.358   2.437   4.436 -0.4932  0.4464  0.5204
32055SOL    HW1  850   9.446   2.422   4.471 -0.0992  0.8355 -0.2672
32055SOL    HW2  851   9.332   2.351   4.401  0.7238  0.8905 -1.7017
32056SOL     OW  852   2.189   4.057   3.253  0.1992 -0.1082 -0.0733
32056SOL    HW1  853   2.116   4.119   3.251  0.3382  0.0974  0.6532
32056SOL    HW2  854   2.149   3.971   3.237  0.2437  0.3140 -3.0242
32057SOL     OW  855   5.533   4.290  11.792 -0.3623 -0.2195  0.0197
32057SOL    HW1  856   5.590   4.225  11.751 -0.3207 -0.8684  1.0708
32057SOL    HW2  857   5.444   4.257  11.777 -0.3645 -0.2592  0.1179
32058SOL     OW  858   8.379   5.774   6.730  0.1663  0.0815 -0.0063
32058SOL    HW1  859   8.362   5.837   6.800 -2.9080 -1.4036  0.7821
32058SOL    HW2  860   8.396   5.691   6.775  0.7225 -0.3824 -1.0276
32059SOL     OW  861   3.133   6.254   0.131  0.3894  0.1006  0.2406
32059SOL    HW1  862   3.143   6.291   0.218  0.6066 -1.8268  1.0979
32059SOL    HW2  863   3.205   6.191   0.123 -1.0410 -1.5589 -0.3226
32060SOL     OW  864  10.423   1.425   6.451 -0.1235  0.6504  0.8367
32060SOL    HW1  865  10.481   1.429   6.527  2.8191 -1.4804 -1.0851
32060SOL    HW2  866  10.443   1.504   6.402  4.5894 -1.7509 -1.8152
32061SOL     OW  867   6.927   5.539   7.622  0.3539 -0.0295 -0.1849
32061SOL    HW1  868   6.912   5.630   7.648 -2.9472  0.2981 -2.5575
32061SOL    HW2  869   6.891   5.487   7.694  2.1698  0.4475  1.1381
32062SOL     OW  870   8.882   9.492   2.458 -0.0325 -1.3181  0.0800
32062SOL    HW1  871   8.808   9.432   2.468  1.8668 -3.9039 -0.2368
32062SOL    HW2  872   8.925   9.463   2.378  0.2111  1.4843 -0.9002
32063SOL     OW  873   4.775   0.360   4.074  0.0999  0.5587 -0.3063
32063SOL    HW1  874   4.720   0.313   4.136 -0.5455  1.9588  0.2268
32063SOL    HW2  875   4.858   0.372   4.119  0.0461  0.4873 -0.1894
32064SOL     OW  876   9.603   5.063   5.071  0.4984  0.1771  0.8581
32064SOL    HW1  877   9.635   5.143   5.030 -0.4513  0.1959  0.1240
32064SOL    HW2  878   9.578   5.007   4.998 -1.3985  0.2753  1.3884
32065SOL     OW  879  11.243   0.430   1.915 -0.1065  0.1847  0.1549
32065SOL    HW1  880  11.155   0.457   1.891 -0.2352  0.1615  0.5852
32065SOL    HW2  881  11.236   0.402   2.006  0.1703 -0.6628 -0.0745
32066SOL     OW  882   3.659   6.624   8.970  0.6847 -0.0655  0.9795
32066SOL    HW1  883   3.601   6.562   8.926  1.4260 -0.4642  0.5363
32066SOL    HW2  884   3.669   6.589   9.059 -1.1496  0.9647  1.6349
32067SOL     OW  885  11.597  11.587   3.627 -0.2548  0.0773 -0.0149
32067SOL    HW1  886  11.571  11.629   3.709  0.0143  0.1038  0.0580
32067SOL    HW2  887  11.649  11.512   3.654 -1.1346 -0.5850 -0.1340
32068SOL     OW  888   0.191   0.098   5.830  0.5856  0.0850  0.1991
32068SOL    HW1  889   0.188   0.021   5.886  0.1063  0.6490  0.9772
32068SOL    HW2  890   0.132   0.077   5.757 -1.0640  0.4231  1.3737
32069SOL     OW  891   0.601   9.126  11.043 -0.0188  0.2288  0.7868
32069SOL    HW1  892   0.515   9.133  11.001  0.5092  0.5542 -0.2642
32069SOL    HW2  893   0.581   9.105  11.134 -1.1878 -0.6941  0.3433
32070SOL     OW  894   0.182   5.492   5.139  0.2622  0.1635 -0.0898
32070SOL    HW1  895   0.199   5.534   5.055 -1.2028 -1.8902 -1.5166
32070SOL    HW2  896   0.224   5.406   5.131 -0.9536 -0.5326  0.7816
32071SOL     OW  897  10.335  11.408   9.115  0.2295 -0.0443  0.4480
32071SOL    HW1  898  10.240  11.403   9.101  0.0336  0.7201  1.3367
32071SOL    HW2  899  10.346  11.480   9.177  1.3956 -0.1567  0.4009
32072SOL     OW  900   4.280   0.854  11.918  0.3684  0.0934 -0.1474
32072SOL    HW1  901   4.274   0.782  11.980  1.0910  0.4119  0.3063
32072SOL    HW2  902   4.283   0.933  11.973 -2.4291  0.6761 -0.6520
32073SOL     OW  903   8.039   3.265  10.092 -0.0458  0.5876  0.3677
32073SOL    HW1  904   7.995   3.281  10.008 -1.6249 -0.8472  0.8758
32073SOL    HW2  905   7.984   3.308  10.157 -0.8434 -1.3537  1.0335
32074SOL     OW  906   2.604   0.221   0.343  0.5230 -0.1347 -0.0818
32074SOL    HW1  907   2.537   0.172   0.296  2.0065 -1.5677 -0.8138
32074SOL    HW2  908   2.602   0.187   0.432 -1.8810  2.1603  0.8841
32075SOL     OW  909  11.998   1.480   7.647 -0.5127 -0.2401 -0.4638
32075SOL    HW1  910  12.034   1.566   7.671  0.2721 -0.7204  0.1378
32075SOL    HW2  911  11.914   1.476   7.695  0.5175 -0.7271  1.4137
32076SOL     OW  912   6.506   6.272   0.825 -0.1922 -0.5481 -0.4445
32076SOL    HW1  913   6.587   6.224   0.844  0.1498 -1.0379 -2.7892
32076SOL    HW2  914   6.533   6.363   0.819 -0.1640 -0.4861  0.4536
32077SOL     OW  915   0.553   2.942   1.896  0.1031 -0.0960 -0.2550
32077SOL    HW1  916   0.472   2.913   1.937  0.9653 -2.2941  0.0057
32077SOL    HW2  917   0.605   2.979   1.967 -0.4023  0.7951 -0.3262
32078SOL     OW  918   9.852   0.144   1.419  0.8979 -0.1372 -0.1983
32078SOL    HW1  919   9.827   0.154   1.511  2.2887  2.9595 -0.0218
32078SOL    HW2  920   9.770   0.155   1.370  0.4909  0.5479  0.6201
32079SOL     OW  921   2.704  10.640  10.806  0.1473 -0.2889  0.3597
32079SOL    HW1  922   2.771  10.599  10.751  1.4563  0.4302  1.3420
32079SOL    HW2  923   2.649  10.689  10.745  3.1077  2.6922 -0.2641
32080SOL     OW  924   9.454   4.716   7.168 -0.6279 -0.1611  0.0068
32080SOL    HW1  925   9.543   4.726   7.203 -0.8836 -0.8488  0.8873
32080SOL    HW2  926   9.466   4.670   7.085 -0.0161  1.4575 -0.8601
32081SOL     OW  927   6.511   8.425   4.641 -0.4836 -0.3122 -0.1731
32081SOL    HW1  928   6.558   8.376   4.573 -1.1422 -0.4952 -0.5044
32081SOL    HW2  929   6.578   8.478   4.683 -0.0958 -0.0038 -1.1406
32082SOL     OW  930   8.736   4.644   0.667  0.7184 -0.6751  0.0861
32082SOL    HW1  931   8.648   4.625   0.636  1.2640  1.3711 -3.2541
32082SOL    HW2  932   8.723   4.694   0.748 -1.4252  1.7881 -1.6087
32083SOL     OW  933   0.148   7.993  10.565 -0.1492 -0.4184  0.4977
32083SOL    HW1  934   0.071   7.961  10.613  0.1427 -0.1023  1.1749
32083SOL    HW2  935   0.123   7.985  10.473 -2.4510  3.0659  0.6384
32084SOL     OW  936   1.318   4.305   5.226  0.3639  0.3466 -0.1045
32084SOL    HW1  937   1.261   4.255   5.286 -0.2591  1.3920  0.2059
32084SOL    HW2  938   1.272   4.388   5.214  0.7213  0.3353 -1.6775
32085SOL     OW  939   6.730   4.500   9.625  0.6556  0.0579 -0.0341
32085SOL    HW1  940   6.816   4.541   9.637  0.8315  0.1714 -1.5578
32085SOL    HW2  941   6.681   4.562   9.571  0.4405 -1.0664 -1.1705
32086SOL     OW  942   1.140  11.499   6.219 -0.0831  0.0403 -0.1644
32086SOL    HW1  943   1.200  11.429   6.245  0.6108  0.8684  0.5276
32086SOL    HW2  944   1.092  11.520   6.299  0.4127  1.0226 -0.1150
32087SOL     OW  945   9.017   2.427   8.998 -1.1145 -0.2392 -0.5653
32087SOL    HW1  946   8.968   2.422   9.080 -0.8572 -1.1023 -0.4576
32087SOL    HW2  947   8.960   2.475   8.938 -1.3635  0.2691  0.0725
32088SOL     OW  948  11.259   4.782   5.181  0.4779  0.1103 -0.0404
32088SOL    HW1  949  11.254   4.868   5.141  1.1190  0.1869  0.0309
32088SOL    HW2  950  11.174   4.770   5.224  0.6179  0.9932  0.5187
32089SOL     OW  951   5.189   1.691   6.613  0.2485 -0.0108  0.2319
32089SOL    HW1  952   5.231   1.620   6.662 -0.8104  0.5783  2.0861
32089SOL    HW2  953   5.144   1.743   6.679 -1.9666  0.3722 -1.4462
32090SOL     OW  954  11.983   0.467   3.612 -0.4933  0.2258  1.0289
32090SOL    HW1  955  11.951   0.382   3.641 -1.4483  1.0225  2.4157
32090SOL    HW2  956  12.030   0.502   3.687  2.1780 -0.1037 -0.3453
32091SOL     OW  957  10.102   9.547   6.272 -0.6807 -0.0767  0.4545
32091SOL    HW1  958  10.147   9.557   6.188 -1.3216  0.6269  0.1944
32091SOL    HW2  959  10.061   9.461   6.267  0.6799 -0.7835  0.7307
32092SOL     OW  960   8.874   4.135   0.824 -0.0238  0.1382  0.2054
32092SOL    HW1  961   8.797   4.161   0.773 -0.5598 -1.5466  0.0657
32092SOL    HW2  962   8.944   4.125   0.759  0.0565  0.7209  0.1981
32093SOL     OW  963   5.908   7.241   5.202  0.2885 -0.0613  0.5632
32093SOL    HW1  964   5.902   7.166   5.143  0.5534  0.3060  0.0580
32093SOL    HW2  965   5.835   7.297   5.177  0.8733  0.4790  0.0295
32094SOL     OW  966   4.599   0.707   9.793 -0.4958  0.7836 -0.0923
32094SOL    HW1  967   4.665   0.774   9.810 -0.3425  0.3308  1.1883
32094SOL    HW2  968   4.626   0.667   9.710  1.2159  0.1709  0.7124
32095SOL     OW  969   3.513   6.268  11.611  0.0525  0.3791 -0.0548
32095SOL    HW1  970   3.597   6.230  11.583 -0.4165 -0.7174 -0.0173
32095SOL    HW2  971   3.458   6.193  11.630 -1.2037  1.0807 -0.8001
32096SOL     OW  972   1.549   9.949   6.727  0.1033  0.1451  0.2453
32096SOL    HW1  973   1.472   9.940   6.784  0.5686  0.4299  0.9347
32096SOL    HW2  974   1.610   9.882   6.759  0.2039  0.0208 -0.2019
32097SOL     OW  975   0.047   0.218   6.999 -0.0988 -0.1176 -0.0238
32097SOL    HW1  976   0.084   0.249   7.082  1.4624  0.2498 -0.8029
32097SOL    HW2  977  -0.041   0.255   6.996  0.8734  2.3773  0.1338
32098SOL     OW  978   8.816   2.945   1.155 -0.5106 -0.3188  0.2793
32098SOL    HW1  979   8.782   2.883   1.090 -1.3312 -0.2520  0.6294
32098SOL    HW2  980   8.807   2.901   1.239 -0.0097 -0.1723  0.4138
32099SOL     OW  981  10.321   2.439   0.243 -0.1894 -0.1118 -0.2118
32099SOL    HW1  982  10.389   2.411   0.306 -0.3552  1.3413  0.6693
32099SOL    HW2  983  10.253   2.478   0.298 -1.4252 -0.8861 -1.1514
32100SOL     OW  984   7.577   6.947  11.851 -0.4179 -0.2354  0.3399
32100SOL    HW1  985   7.618   6.860  11.845 -0.2713 -0.2274  1.2050
32100SOL    HW2  986   7.645   7.007  11.822 -0.6771 -0.4375 -0.7441
32101SOL     OW  987  11.371   7.539   9.200  0.0073 -0.7959 -0.0093
32101SOL    HW1  988  11.373   7.444   9.205 -2.0165 -0.9306 -0.9992
32101SOL    HW2  989  11.362   7.558   9.106 -3.1997  0.1993  0.4046
32102SOL     OW  990   7.134   3.252  11.837 -0.4650 -0.7656 -0.3517
32102SOL    HW1  991   7.087   3.169  11.844 -0.8004 -0.6330 -1.0347
32102SOL    HW2  992   7.079   3.308  11.782  0.6120 -0.7029 -1.4201
32103SOL     OW  993   3.139   4.363   5.712 -0.5931 -0.4371  0.3479
32103SOL    HW1  994   3.063   4.400   5.756 -0.1010 -0.0056  0.8418
32103SOL    HW2  995   3.131   4.394   5.621  0.6264  2.2702  1.0520
32104SOL     OW  996  11.144   0.854   9.038 -0.1429 -0.4529  0.1896
32104SOL    HW1  997  11.225   0.873   9.085 -0.4069 -0.1101  0.5052
32104SOL    HW2  998  11.083   0.824   9.105 -0.3048 -0.6334 -0.0354
32105SOL     OW  999  10.807   1.336   8.373  0.4691 -0.3514  0.6629
32105SOL    HW1 1000  10.748   1.360   8.444 -1.9869 -4.4998  0.3995
32105SOL    HW2 1001  10.871   1.277   8.414  1.3283  0.1417  0.0524
32106SOL     OW 1002  10.971  10.812   8.434 -0.6367 -0.3484 -0.1688
32106SOL    HW1 1003  10.913  10.863   8.490 -1.7581 -1.1463 -0.5610
32106SOL    HW2 1004  11.023  10.877   8.386 -1.2995  0.3849  0.0931
32107SOL     OW 1005   0.735  10.679   1.119 -0.0504 -0.1844  0.2382
32107SOL    HW1 1006   0.781  10.679   1.203 -0.3460 -0.1853  0.4006
32107SOL    HW2 1007   0.804  10.696   1.054  0.9123 -3.7071  0.0972
32108SOL     OW 1008   6.361   3.106   9.774 -0.1706  0.1942 -0.0961
32108SOL    HW1 1009   6.271   3.076   9.763 -0.2780  0.4310  0.1174
32108SOL    HW2 1010   6.354   3.181   9.832  0.1925  0.0569  0.1293
32109SOL     OW 1011   5.102  10.211   5.422  0.6539 -0.4470  0.0226
32109SOL    HW1 1012   5.031  10.177   5.476 -0.0116 -0.0021 -0.5532
32109SOL    HW2 1013   5.135  10.134   5.375  0.7387 -0.7025  0.5009
32110SOL     OW 1014   6.280   9.524   6.853 -0.0637 -0.2199 -0.3071
32110SOL    HW1 1015   6.269   9.603   6.800 -0.7512 -0.0979  0.0102
32110SOL    HW2 1016   6.366   9.535   6.894 -0.1765  0.3857 -0.2280
32111SOL     OW 1017   0.119   1.924   9.383  0.2667 -0.5436  0.1838
32111SOL    HW1 1018   0.153   2.009   9.412  0.1807 -0.6881  0.7326
32111SOL    HW2 1019   0.033   1.917   9.425 -0.7498  0.0885 -1.6833
32112SOL     OW 1020   0.996  11.798   6.972  0.3079 -0.3734  0.4733
32112SOL    HW1 1021   1.072  11.742   6.989  0.2918 -0.5482 -0.0079
32112SOL    HW2 1022   0.933  11.741   6.928 -0.1109 -0.2305  0.8735
32113SOL     OW 1023   1.861   6.342   7.775  0.0683 -0.2174 -0.2174
32113SOL    HW1 1024   1.825   6.314   7.691 -1.5769 -0.3346  0.4771
32113SOL    HW2 1025   1.915   6.269   7.804 -0.0297 -0.5197 -0.7751
32114SOL     OW 1026  10.568   8.723   9.904  0.2239 -0.0908 -0.0257
32114SOL    HW1 1027  10.507   8.775   9.853  1.3117  1.8517  0.5416
32114SOL    HW2 1028  10.635   8.696   9.841 -0.8407 -1.7290 -0.5251
32115SOL     OW 1029   7.844   4.685  10.827 -0.2667 -0.0951 -0.4253
32115SOL    HW1 1030   7.876   4.625  10.759 -0.5372  0.8054 -1.3698
32115SOL    HW2 1031   7.922   4.735  10.854 -0.6933  1.7552 -2.3763
32116SOL     OW 1032   0.214   6.315  10.529  0.0401 -0.3348  0.4643
32116SOL    HW1 1033   0.135   6.295  10.579  0.0250 -0.6898  0.3025
32116SOL    HW2 1034   0.185   6.321  10.438  0.3944 -1.6852  0.2474
32117SOL     OW 1035   7.005  11.292   3.436 -0.3804 -0.0859 -0.0511
32117SOL    HW1 1036   6.945  11.225   3.404 -0.5735  0.0837 -0.0462
32117SOL    HW2 1037   7.002  11.362   3.371  1.0303 -0.7552 -0.8715
32118SOL     OW 1038   8.145   3.925  11.797  0.1763 -0.1319 -0.2712
32118SOL    HW1 1039   8.110   4.006  11.759 -0.6659  0.1672  1.0812
32118SOL    HW2 1040   8.238   3.926  11.774 -0.0267  0.6966 -1.1354
32119SOL     OW 1041  10.364   2.798   0.337  0.6091 -0.3744 -0.3778
32119SOL    HW1 1042  10.271   2.776   0.341  0.4477  0.4683  2.5385
32119SOL    HW2 1043  10.371   2.855   0.261 -0.9677 -1.5220 -1.4644
32120SOL     OW 1044   5.909   1.557   7.505  0.1470 -0.3463 -0.6777
32120SOL    HW1 1045   5.839   1.520   7.452 -0.0543 -1.4445  0.3212
32120SOL    HW2 1046   5.864   1.609   7.572  0.0233 -2.9555  1.4701
32121SOL     OW 1047  11.619   8.851   7.641  0.0700 -0.5101 -0.1737
32121SOL    HW1 1048  11.528   8.881   7.640 -0.1177 -1.0558 -1.0124
32121SOL    HW2 1049  11.613   8.756   7.631  0.7139 -0.6146  0.3604
32122SOL     OW 1050   6.982   8.870  10.325  0.4498 -0.1618 -0.0115
32122SOL    HW1 1051   7.063   8.896  10.367  0.0468  1.2131 -0.0370
32122SOL    HW2 1052   6.934   8.952  10.311 -0.4036 -0.8113 -1.1137
32123SOL     OW 1053   7.697   2.940   3.661 -0.2999  0.2518  0.4786
32123SOL    HW1 1054   7.624   2.899   3.615  1.2015 -0.7537 -1.1863
32123SOL    HW2 1055   7.754   2.972   3.591  0.7942  1.1097  1.7150
32124SOL     OW 1056   5.341   0.500  10.107 -0.9460 -0.5351 -0.1202
32124SOL    HW1 1057   5.332   0.546  10.024 -0.6867 -0.3559 -0.0496
32124SOL    HW2 1058   5.321   0.409  10.086 -2.7041 -0.1978 -0.0121
32125SOL     OW 1059   2.457   5.196   2.847  0.6037 -0.1200 -0.0701
32125SOL    HW1 1060   2.499   5.116   2.877 -2.8156 -2.9722 -2.0842
32125SOL    HW2 1061   2.502   5.217   2.765  0.0068 -1.4628 -0.7656
32126SOL     OW 1062   7.822   9.924   1.349  0.3981 -0.2794 -0.2772
32126SOL    HW1 1063   7.767   9.975   1.289 -1.5040 -0.1867  1.4317
32126SOL    HW2 1064   7.837   9.983   1.424  0.8092 -1.1494  0.3415
32127SOL     OW 1065   8.550   0.719  10.712 -0.5294  0.1191 -0.1738
32127SOL    HW1 1066   8.625   0.661  10.721 -1.3417 -1.0815 -0.9392
32127SOL    HW2 1067   8.475   0.666  10.740 -1.1880  1.0650 -0.1029
32128SOL     OW 1068   0.225   5.473   2.072  0.2720  0.0194  0.4756
32128SOL    HW1 1069   0.309   5.513   2.050  0.4188  0.0246  1.0448
32128SOL    HW2 1070   0.165   5.506   2.005  1.0805 -1.3075 -0.9751
32129SOL     OW 1071   3.638   3.848   2.838 -0.2450  0.1807  0.0457
32129SOL    HW1 1072   3.564   3.899   2.803 -0.3538  0.5819  0.8351
32129SOL    HW2 1073   3.624   3.848   2.933  0.2452 -0.5725  0.1256
32130SOL     OW 1074   4.112   0.670   6.877  0.1262  0.3085 -0.3130
32130SOL    HW1 1075   4.053   0.691   6.804  0.6572 -0.4818 -0.9909
32130SOL    HW2 1076   4.129   0.576   6.867  2.6616  0.7643 -1.0549
32131SOL     OW 1077   6.966   1.120   9.982 -0.2217 -0.2626 -0.1827
32131SOL    HW1 1078   7.060   1.118   9.964 -0.0905  2.4583 -0.1586
32131SOL    HW2 1079   6.960   1.140  10.076 -0.7593  1.7861 -0.6097
32132SOL     OW 1080   3.811  10.351   7.079  0.0033 -0.2958  0.6321
32132SOL    HW1 1081   3.790  10.443   7.068  0.5897 -0.1642  0.5782
32132SOL    HW2 1082   3.740  10.304   7.036  0.6652  0.1638 -1.0086
32133SOL     OW 1083   7.357  11.382   5.575 -0.5325  0.0587  0.7716
32133SOL    HW1 1084   7.403  11.313   5.527 -1.0070 -0.2570  0.7666
32133SOL    HW2 1085   7.317  11.337   5.649 -0.6874  0.3635  0.8742
32134SOL     OW 1086   1.366   6.700   4.158  0.1952  0.0660  0.2379
32134SOL    HW1 1087   1.378   6.675   4.250 -0.8417 -1.6235 -0.0380
32134SOL    HW2 1088   1.451   6.682   4.117  0.5048  0.3201  0.7663
32135SOL     OW 1089  11.155   6.345  10.993  0.5650 -0.0473  0.6251
32135SOL    HW1 1090  11.145   6.268  10.937  0.7048  0.3303  0.0740
32135SOL    HW2 1091  11.236   6.330  11.041  1.3350  0.3968 -0.5094
32136SOL     OW 1092  11.086   6.390   0.707  0.1052  0.1390  0.1888
32136SOL    HW1 1093  11.111   6.445   0.781  3.0758  0.2114 -0.6992
32136SOL    HW2 1094  11.089   6.450   0.632  1.1740 -0.7172 -0.4809
32137SOL     OW 1095  11.604   7.681   5.820  0.3838 -0.1024 -0.0083
32137SOL    HW1 1096  11.559   7.698   5.737 -1.4311 -1.2592  0.6726
32137SOL    HW2 1097  11.655   7.760   5.837  0.9842  0.0755 -2.3133
32138SOL     OW 1098   1.483   6.797  10.195 -0.1550 -0.6686 -0.2263
32138SOL    HW1 1099   1.454   6.819  10.107  0.5905  0.9330 -0.0995
32138SOL    HW2 1100   1.502   6.881  10.236 -1.0386 -1.3430  1.6716
32139SOL     OW 1101   6.646  11.585   5.622 -0.3163 -0.2892 -0.3589
32139SOL    HW1 1102   6.681  11.502   5.655  0.7877  0.7916  1.3537
32139SOL    HW2 1103   6.558  11.564   5.592 -0.1077 -2.0421  0.1727
32140SOL     OW 1104   0.414   9.718   9.130  0.3446 -0.2886 -0.7905
32140SOL    HW1 1105   0.358   9.783   9.087  0.4553  1.4531  1.5009
32140SOL    HW2 1106   0.496   9.720   9.080 -0.8515 -1.3624 -2.9213
32141SOL     OW 1107   8.323   5.851   7.222  0.2976 -0.0289 -0.4684
32141SOL    HW1 1108   8.240   5.848   7.271  1.2638 -0.0304  1.2493
32141SOL    HW2 1109   8.376   5.915   7.269  1.3687 -0.1951 -1.4095
32142SOL     OW 1110   3.227   0.788  10.401 -0.1101 -0.4214 -0.0766
32142SOL    HW1 1111   3.251   0.833  10.320  2.0084  0.8775  1.1780
32142SOL    HW2 1112   3.190   0.857  10.456 -1.7562 -1.3391  0.0270
32143SOL     OW 1113   2.061  10.755   2.703  0.1031 -0.4999  0.0701
32143SOL    HW1 1114   2.004  10.824   2.668 -1.1000 -0.2504  2.3359
32143SOL    HW2 1115   2.142  10.801   2.725  0.1208 -0.2625 -0.4778
32144SOL     OW 1116   0.167   3.740   0.402 -0.7263 -0.7348 -0.4700
32144SOL    HW1 1117   0.160   3.655   0.444  0.8919 -0.9439 -0.5484
32144SOL    HW2 1118   0.261   3.759   0.401 -1.0977  1.4457  0.3037
32145SOL     OW 1119   9.068   0.990   9.742 -0.1131  0.0222 -0.4113
32145SOL    HW1 1120   9.096   1.056   9.679  0.2087  0.2178 -0.0701
32145SOL    HW2 1121   8.997   1.031   9.791 -0.0689  0.0341 -0.3565
32146SOL     OW 1122   1.975   5.447  10.934 -0.3569 -0.4790 -0.5017
32146SOL    HW1 1123   1.959   5.513  10.867  0.1384  0.6588  0.4676
32146SOL    HW2 1124   2.015   5.374  10.886 -0.9374 -0.1109 -1.5937
32147SOL     OW 1125   0.804   4.322   7.937  0.1835 -0.1866 -0.6981
32147SOL    HW1 1126   0.813   4.399   7.881  0.4565 -0.3427 -0.8692
32147SOL    HW2 1127   0.803   4.358   8.026  1.0300 -0.0368 -0.7380
32148SOL     OW 1128  10.282   9.666   7.668  0.0438 -0.2686  0.5099
32148SOL    HW1 1129  10.187   9.658   7.674  0.0036  1.0414  2.6188
32148SOL    HW2 1130  10.315   9.584   7.705 -0.2864 -0.0836  1.2334
32149SOL     OW 1131   7.535   7.337  10.748 -0.2325 -0.5855 -0.5262
32149SOL    HW1 1132   7.603   7.404  10.752 -0.6976 -0.1027 -0.6719
32149SOL    HW2 1133   7.546   7.296  10.663  0.6181 -1.3007 -0.0869
32150SOL     OW 1134   9.608  10.993   5.942 -0.2572 -0.3730  0.0826
32150SOL    HW1 1135   9.646  10.913   5.976 -0.2709 -0.1076  0.7307
32150SOL    HW2 1136   9.628  10.991   5.848  0.0334 -0.9648  0.1530
32151SOL     OW 1137   9.128   7.056  11.813 -0.7374  0.5545 -0.3402
32151SOL    HW1 1138   9.047   7.083  11.770 -0.5412  3.9200  1.1244
32151SOL    HW2 1139   9.110   7.067  11.907  1.3648  1.3720  0.0197
32152SOL     OW 1140   6.063   9.822   6.095 -0.1687  0.0574 -0.0170
32152SOL    HW1 1141   6.022   9.763   6.032 -0.3884  0.0902  0.0977
32152SOL    HW2 1142   6.006   9.898   6.097  0.6291  0.7165 -0.9225
32153SOL     OW 1143   2.815  10.923   3.638 -0.2544  0.4339  0.0259
32153SOL    HW1 1144   2.887  10.893   3.582  0.5406  1.7877  0.2799
32153SOL    HW2 1145   2.796  10.849   3.695  1.9742  0.5286  0.9750
32154SOL     OW 1146   1.427   6.105   7.434 -0.2088 -0.0118  0.4523
32154SOL    HW1 1147   1.506   6.066   7.470  0.3082  0.4903 -0.1138
32154SOL    HW2 1148   1.422   6.191   7.474  0.0528  0.3222 -0.2161
32155SOL     OW 1149   0.686  10.599   3.492  0.2633 -0.6167  0.0423
32155SOL    HW1 1150   0.604  10.629   3.532  0.8932 -0.4142  1.2048
32155SOL    HW2 1151   0.674  10.505   3.478  0.1338 -0.7364  0.9449
32156SOL     OW 1152   1.878  10.603   9.015 -0.4283 -0.4073 -0.1075
32156SOL    HW1 1153   1.912  10.554   9.090 -1.0823 -1.2174 -0.3318
32156SOL    HW2 1154   1.812  10.661   9.051 -2.8287 -2.7930 -0.3487
32157SOL     OW 1155   1.219   8.461  10.983  0.0942  0.1238  0.0840
32157SOL    HW1 1156   1.311   8.472  10.959  0.6546  0.0294  2.0795
32157SOL    HW2 1157   1.220   8.405  11.060 -1.5388  1.2375  0.9668
32158SOL     OW 1158   2.180   2.398   8.819 -0.3849 -0.2480  0.0606
32158SOL    HW1 1159   2.223   2.342   8.884  1.4457 -1.7981 -2.2967
32158SOL    HW2 1160   2.217   2.485   8.834 -0.7055 -0.3403  1.6127
32159SOL     OW 1161   5.922   9.301  10.695 -0.1506  0.2945 -0.2648
32159SOL    HW1 1162   5.868   9.334  10.767  0.9382 -0.3105  0.8675
32159SOL    HW2 1163   5.876   9.222  10.665 -0.6834  0.6252 -0.3330
32160SOL     OW 1164   4.255   8.784  11.891 -0.0559 -0.0373 -0.0347
32160SOL    HW1 1165   4.292   8.776  11.803  1.1518  0.5732  0.3980
32160SOL    HW2 1166   4.179   8.726  11.890  0.3724 -0.6168 -1.2385
32161SOL     OW 1167   6.305   7.980  10.503 -0.5743  1.0006 -0.0227
32161SOL    HW1 1168   6.261   8.039  10.563 -0.6854  0.2376  0.6615
32161SOL    HW2 1169   6.398   7.992  10.521 -0.6133 -1.8252  2.9692
32162SOL     OW 1170   8.599   7.184   3.320  0.0630  0.3937 -0.4575
32162SOL    HW1 1171   8.666   7.128   3.281  0.5492 -0.7862  1.8930
32162SOL    HW2 1172   8.648   7.251   3.369 -0.4502  0.1167  0.4645
32163SOL     OW 1173   1.043   5.935  11.311 -0.2088  0.3250  0.2754
32163SOL    HW1 1174   0.957   5.976  11.320  0.0121  0.4689  2.3299
32163SOL    HW2 1175   1.030   5.863  11.250 -2.0499 -0.2952  1.3313
32164SOL     OW 1176  10.867   7.304  10.403 -0.1321  0.9100 -0.1461
32164SOL    HW1 1177  10.936   7.278  10.342  0.4044  1.3428  0.2578
32164SOL    HW2 1178  10.915   7.341  10.478 -0.7013 -0.6484  1.0531
32165SOL     OW 1179  11.401   0.482   6.097 -0.2928 -0.6338  0.1494
32165SOL    HW1 1180  11.466   0.494   6.166  0.0681 -0.1531 -0.2604
32165SOL    HW2 1181  11.405   0.389   6.076  1.2082 -0.3989 -0.7691
32166SOL     OW 1182   0.995   1.880   5.014 -0.6782  0.3032 -0.6700
32166SOL    HW1 1183   0.990   1.790   4.984  2.3544  0.3920 -1.8863
32166SOL    HW2 1184   1.037   1.874   5.101 -0.1117  0.5360 -0.9226
32167SOL     OW 1185   7.791   1.615   6.306 -0.5909 -0.4483 -1.2240
32167SOL    HW1 1186   7.730   1.636   6.378  0.1386  1.6260 -1.1254
32167SOL    HW2 1187   7.761   1.531   6.273 -0.1996 -2.1832  2.3305
32168SOL     OW 1188   7.277   8.141  10.653  0.4563 -0.2530  0.2921
32168SOL    HW1 1189   7.290   8.078  10.724  1.1708  1.5761  1.8725
32168SOL    HW2 1190   7.315   8.099  10.576  2.0116 -1.2643  1.5548
32169SOL     OW 1191   6.072   3.141   0.889 -0.2975  0.0209  0.3978
32169SOL    HW1 1192   5.992   3.103   0.852  1.0739 -0.7598 -1.9871
32169SOL    HW2 1193   6.066   3.235   0.868 -0.5830 -0.0252  0.2709
32170SOL     OW 1194   0.612  11.210  11.892 -0.4352 -0.2094  0.7652
32170SOL    HW1 1195   0.625  11.142  11.826  0.2129  1.6040 -1.0832
32170SOL    HW2 1196   0.700  11.229  11.925 -0.4948  0.2694  0.6682
32171SOL     OW 1197  10.202   7.384   5.545  0.0854 -0.2935  0.7426
32171SOL    HW1 1198  10.281   7.331   5.534  1.2154  1.6036 -1.2365
32171SOL    HW2 1199  10.149   7.364   5.467 -1.3022 -1.3025  1.8885
32172SOL     OW 1200   7.498   9.081   0.453 -0.0309 -0.0980 -0.0544
32172SOL    HW1 1201   7.460   9.158   0.494  0.1328  0.3744 -0.7607
32172SOL    HW2 1202   7.574   9.059   0.507 -0.2978  0.0085  0.3631
32173SOL     OW 1203   7.711   5.813   1.146  0.7504  0.0984 -0.1098
32173SOL    HW1 1204   7.662   5.875   1.091 -0.9130 -0.7165  0.4063
32173SOL    HW2 1205   7.743   5.866   1.219 -0.0538  0.5004 -0.0398
32174SOL     OW 1206   2.512   8.758   3.051 -0.6156 -0.5282  0.3184
32174SOL    HW1 1207   2.578   8.702   3.092 -1.3989 -0.9767  1.0173
32174SOL    HW2 1208   2.430   8.710   3.063 -0.9983 -0.2741 -1.0659
32175SOL     OW 1209  10.815   9.792   8.808  0.2852  0.1334  0.0859
32175SOL    HW1 1210  10.814   9.884   8.781  0.6497 -0.1125 -0.7981
32175SOL    HW2 1211  10.887   9.753   8.758 -2.6126 -1.6453 -3.1163
32176SOL     OW 1212   0.339  10.024  10.190 -0.5063  0.3709 -0.4354
32176SOL    HW1 1213   0.268  10.030  10.254 -0.6598 -1.6892 -0.3294
32176SOL    HW2 1214   0.297  10.039  10.105 -0.9063  0.0668 -0.2932
32177SOL     OW 1215   4.748   3.038   6.820  0.4805  0.2426  0.3859
32177SOL    HW1 1216   4.780   3.123   6.788 -1.9283  0.7309 -0.9847
32177SOL    HW2 1217   4.673   3.060   6.874 -1.2252 -1.0311 -1.3369
32178SOL     OW 1218   3.430   8.575   8.479  0.2399  0.0519  0.3049
32178SOL    HW1 1219   3.512   8.599   8.437 -0.0076 -0.5387 -0.5530
32178SOL    HW2 1220   3.433   8.616   8.565  1.2635  0.3445  0.1336
32179SOL     OW 1221  11.897   6.478   8.250 -0.4610 -0.4290 -0.6354
32179SOL    HW1 1222  11.905   6.439   8.163  1.1124 -2.0480  0.1700
32179SOL    HW2 1223  11.954   6.555   8.247 -0.1103 -0.6940 -0.9369
32180SOL     OW 1224   5.259   9.040   1.936 -0.0140 -0.1003  0.1453
32180SOL    HW1 1225   5.312   8.988   1.876  0.4794  0.7212 -0.1365
32180SOL    HW2 1226   5.222   9.110   1.883  1.4600  1.4045  0.9933
32181SOL     OW 1227   1.996  10.549   5.879  0.1119  0.7787 -0.1162
32181SOL    HW1 1228   1.999  10.455   5.895  1.8444  1.0434  1.5279
32181SOL    HW2 1229   1.903  10.568   5.865 -0.4053 -1.0197  0.5570
32182SOL     OW 1230  11.927  10.639  10.617  0.3089  0.5803 -0.1738
32182SOL    HW1 1231  11.909  10.709  10.680  1.0592  0.9238 -0.3275
32182SOL    HW2 1232  11.935  10.560  10.670  1.6445  0.9821  0.2654
32183SOL     OW 1233   2.609   0.194   8.773 -0.5858  0.1808  0.8181
32183SOL    HW1 1234   2.522   0.227   8.796 -1.3754 -0.7423 -0.6599
32183SOL    HW2 1235   2.606   0.101   8.796 -0.4902 -0.1585 -0.4574
32184SOL     OW 1236   1.831   3.603   7.960 -0.3429  0.3335  0.1488
32184SOL    HW1 1237   1.890   3.678   7.958 -0.2908  0.2764 -1.7399
32184SOL    HW2 1238   1.889   3.526   7.962 -0.1891  0.2245 -3.0116
32185SOL     OW 1239   3.390   9.322   8.926 -0.4507 -0.5819  0.1947
32185SOL    HW1 1240   3.341   9.398   8.956  3.1390  1.6420  1.0143
32185SOL    HW2 1241   3.407   9.339   8.833  0.8495 -0.0038  0.5144
32186SOL     OW 1242   4.447  11.046   3.003 -0.1340  0.1531  0.0522
32186SOL    HW1 1243   4.368  10.991   3.007 -1.0703  1.5203  1.1445
32186SOL    HW2 1244   4.418  11.132   3.033  1.6269  0.8845 -0.2370
32187SOL     OW 1245  11.773   9.148  11.768 -0.1430 -0.4657  0.1401
32187SOL    HW1 1246  11.861   9.183  11.783 -0.5085  0.5443 -0.0284
32187SOL    HW2 1247  11.776   9.059  11.804  0.7005 -0.1532  0.8594
32188SOL     OW 1248   7.654   1.706   2.072 -1.3550 -0.0130 -0.3761
32188SOL    HW1 1249   7.704   1.692   1.992 -2.8875  1.5107 -1.6912
32188SOL    HW2 1250   7.684   1.790   2.105 -0.1639 -0.9923  1.1551
32189SOL     OW 1251  11.432   4.326   8.928 -0.5005  0.1313 -0.3519
32189SOL    HW1 1252  11.459   4.343   9.019  0.3250 -0.5025 -0.4691
32189SOL    HW2 1253  11.514   4.309   8.882 -0.9589  0.0145 -1.1253
32190SOL     OW 1254   7.696   5.684   0.680  0.2930  0.3746  0.1855
32190SOL    HW1 1255   7.721   5.775   0.696  0.7599  0.4148 -0.7249
32190SOL    HW2 1256   7.677   5.649   0.767 -0.8579  1.6119  0.4804
32191SOL     OW 1257   0.784   1.598   5.358  0.0803 -0.0401  0.1062
32191SOL    HW1 1258   0.713   1.655   5.385  1.4339  1.2356  1.1088
32191SOL    HW2 1259   0.836   1.583   5.437  1.5619  0.0088 -0.8095
32192SOL     OW 1260   1.475   6.755   2.510 -0.3818 -0.2419  0.1381
32192SOL    HW1 1261   1.562   6.737   2.545  0.7165 -0.8712 -2.6145
32192SOL    HW2 1262   1.421   6.682   2.540  1.0289 -1.8673 -1.0954
32193SOL     OW 1263   7.634  11.104  10.266  0.0197  0.1424  0.4199
32193SOL    HW1 1264   7.567  11.161  10.304 -0.3227 -0.4832  0.7707
32193SOL    HW2 1265   7.715  11.130  10.309 -0.1871  0.1657  0.7998
32194SOL     OW 1266   6.841  11.439   1.364  0.3353  0.2164 -0.2114
32194SOL    HW1 1267   6.923  11.470   1.324  0.1396 -0.6709 -1.3737
32194SOL    HW2 1268   6.775  11.501   1.333  0.5516  0.9341  0.7284
32195SOL     OW 1269   7.603   1.067  11.622  0.5685  0.2207  0.1575
32195SOL    HW1 1270   7.570   1.155  11.604  2.2741  0.5991 -1.3188
32195SOL    HW2 1271   7.682   1.080  11.673 -0.1684 -0.5819  1.5785
32196SOL     OW 1272   7.098   4.449   2.460  0.1310  0.0363 -0.6092
32196SOL    HW1 1273   7.011   4.408   2.460  0.4014 -0.5947 -1.8399
32196SOL    HW2 1274   7.113   4.474   2.369  1.1488  0.3329 -0.3763
32197SOL     OW 1275   8.270  10.970   9.693  0.7539 -0.0287 -0.4541
32197SOL    HW1 1276   8.210  10.908   9.650  1.2546 -0.0672 -1.1158
32197SOL    HW2 1277   8.333  10.994   9.625  1.0241  0.6204  0.0119
32198SOL     OW 1278   9.040   2.112   0.479 -0.2265 -0.6381 -0.1310
32198SOL    HW1 1279   8.990   2.083   0.555 -0.3963 -0.2566 -0.0979
32198SOL    HW2 1280   9.121   2.147   0.516  0.1707 -1.4656 -0.1986
32199SOL     OW 1281   2.423  10.410   9.165  0.2752  0.0920  0.2695
32199SOL    HW1 1282   2.379  10.400   9.249  0.6804  0.1141  0.4885
32199SOL    HW2 1283   2.377  10.351   9.106  0.0901 -0.0457  0.5492
32200SOL     OW 1284   0.447   1.708   5.229 -0.2104  0.5147 -0.2783
32200SOL    HW1 1285   0.369   1.671   5.189 -1.3347  1.6404  0.7648
32200SOL    HW2 1286   0.458   1.793   5.186  1.3737 -0.2532 -1.4907
32201SOL     OW 1287   5.408   4.205  10.441 -0.4982  0.1100 -0.1176
32201SOL    HW1 1288   5.396   4.259  10.363 -0.4734 -1.0868 -0.9826
32201SOL    HW2 1289   5.447   4.124  10.408  0.7252  0.0709  1.3088
32202SOL     OW 1290   1.191   7.445   1.828 -0.4064  0.1806 -0.3125
32202SOL    HW1 1291   1.204   7.458   1.734  0.7815  3.5495  0.2065
32202SOL    HW2 1292   1.278   7.423   1.862 -1.1288 -2.8340 -0.1177
32203SOL     OW 1293   1.298  10.549   3.065  0.0083  0.4931 -1.2858
32203SOL    HW1 1294   1.340  10.621   3.112 -1.3929  0.6329 -0.1513
32203SOL    HW2 1295   1.369  10.490   3.042  0.9022  0.9791  0.0747
32204SOL     OW 1296   3.513  10.524   0.150 -0.0170  0.0490  0.0169
32204SOL    HW1 1297   3.442  10.460   0.150  0.2605 -0.2727  0.7448
32204SOL    HW2 1298   3.592  10.471   0.134 -0.0897  0.6068 -2.5376
32205SOL     OW 1299   9.970   4.530  10.451 -0.7293 -0.2908 -0.2899
32205SOL    HW1 1300   9.957   4.444  10.491 -0.2345  0.2298  1.0412
32205SOL    HW2 1301   9.974   4.513  10.357  0.6621 -1.9034  0.0175
32206SOL     OW 1302   9.419   2.458   0.432  0.6877 -0.3582 -0.1825
32206SOL    HW1 1303   9.395   2.486   0.521  0.2002 -0.4405 -0.2835
32206SOL    HW2 1304   9.496   2.402   0.444  1.7832  1.1403  0.0065
32207SOL     OW 1305   5.979   4.925   9.193 -0.5716  0.1064 -0.0100
32207SOL    HW1 1306   5.994   4.894   9.104 -1.1657 -0.0945 -0.0457
32207SOL    HW2 1307   5.931   5.007   9.182  1.3553  1.3031  0.0740
32208SOL     OW 1308   9.871   5.227   1.041  0.5974 -0.2346 -0.2843
32208SOL    HW1 1309   9.838   5.160   1.101  0.6462 -0.2849 -0.3128
32208SOL    HW2 1310   9.880   5.181   0.957  0.7545 -0.2249 -0.2724
32209SOL     OW 1311   7.213   3.432  10.803 -0.5735 -0.7681  0.1088
32209SOL    HW1 1312   7.187   3.340  10.798  0.7123 -1.1380 -0.0896
32209SOL    HW2 1313   7.134   3.480  10.779 -1.0712 -1.8414 -0.4753
32210SOL     OW 1314   1.349   6.850   9.897 -0.5011 -0.0766 -0.1173
32210SOL    HW1 1315   1.417   6.834   9.831 -0.8755 -1.3564 -0.2116
32210SOL    HW2 1316   1.273   6.879   9.847 -0.2145  0.8375 -0.0554
32211SOL     OW 1317   2.923   2.694  10.189  0.8353  0.2198 -0.2247
32211SOL    HW1 1318   2.920   2.725  10.098 -1.1451  1.7502  0.2892
32211SOL    HW2 1319   2.902   2.600  10.183  2.0113  0.0091 -1.4274
32212SOL     OW 1320   1.981   7.007   5.970 -0.3496  0.1051  0.0648
32212SOL    HW1 1321   2.062   6.959   5.955 -0.7592 -0.4066 -0.5904
32212SOL    HW2 1322   2.008   7.097   5.986  0.3602 -0.1097  0.0839
32213SOL     OW 1323   8.709   4.537   8.764  0.2017  0.1797  0.5720
32213SOL    HW1 1324   8.619   4.537   8.798 -0.2534  2.3128 -0.4396
32213SOL    HW2 1325   8.759   4.585   8.831  0.3864 -0.1843  0.6936
32214SOL     OW 1326   8.551   2.578   3.861 -0.5323 -0.1789  0.2727
32214SOL    HW1 1327   8.563   2.486   3.836  0.5273  0.1366 -0.4735
32214SOL    HW2 1328   8.607   2.626   3.800 -0.8136  0.9394  0.8761
32215SOL     OW 1329   9.702   4.744   7.253  0.2469  0.2839  0.5505
32215SOL    HW1 1330   9.796   4.730   7.248 -0.1541 -2.6386 -1.0449
32215SOL    HW2 1331   9.687   4.777   7.341  2.6379 -0.4476  1.3010
32216SOL     OW 1332   6.141   5.607  10.324  0.0938  0.0852  0.3073
32216SOL    HW1 1333   6.216   5.653  10.361  1.3005 -1.2609 -0.3713
32216SOL    HW2 1334   6.164   5.593  10.232  0.1893 -2.5146  0.6405
32217SOL     OW 1335   1.013   5.624  10.431  0.6480  0.6519  0.2271
32217SOL    HW1 1336   0.978   5.712  10.414 -1.3633  0.1095  1.2812
32217SOL    HW2 1337   1.062   5.633  10.513  2.9959  1.3716 -1.1578
32218SOL     OW 1338  11.343   4.194   6.754 -0.0685  0.2743  0.3188
32218SOL    HW1 1339  11.352   4.270   6.811 -1.1711 -0.2753  1.2753
32218SOL    HW2 1340  11.412   4.134   6.783 -0.7545 -0.0890  1.2622
32219SOL     OW 1341   6.871  10.409   4.234 -0.0131  0.4244 -0.2009
32219SOL    HW1 1342   6.844  10.390   4.324 -0.3866  1.2058 -0.1356
32219SOL    HW2 1343   6.789  10.432   4.189  0.2706  0.8302 -0.5244
32220SOL     OW 1344   0.472   3.514   8.030 -0.2849 -0.4481  0.2027
32220SOL    HW1 1345   0.479   3.419   8.040 -0.2312 -0.4892 -0.2255
32220SOL    HW2 1346   0.382   3.534   8.053 -0.0782 -0.4984  1.1065
32221SOL     OW 1347   6.662   5.321   3.460 -0.3940  0.8585  0.3028
32221SOL    HW1 1348   6.698   5.364   3.383 -1.0449  1.1710  0.1673
32221SOL    HW2 1349   6.631   5.236   3.429  1.8520 -0.1981  0.7751
32222SOL     OW 1350   4.801   6.070  11.625  0.1388 -0.1173 -0.5461
32222SOL    HW1 1351   4.774   6.161  11.643 -0.1734 -0.2086 -0.5414
32222SOL    HW2 1352   4.738   6.017  11.673  0.7616 -0.3308  0.0470
32223SOL     OW 1353   6.388  10.022   7.233  0.0219 -0.3063  0.5054
32223SOL    HW1 1354   6.301  10.037   7.198  0.6444 -1.3240 -1.6074
32223SOL    HW2 1355   6.381  10.046   7.326 -1.7804  2.2013 -0.1697
32224SOL     OW 1356  11.090   9.480   5.675 -0.0226 -0.0253  0.1754
32224SOL    HW1 1357  11.135   9.416   5.731 -0.2688 -0.8285 -0.5128
32224SOL    HW2 1358  11.147   9.490   5.599  0.7043  1.6725  0.8956
32225SOL     OW 1359   5.974   1.154   6.943  0.4243  0.1435  0.2157
32225SOL    HW1 1360   5.935   1.233   6.980 -0.2156  1.0142 -2.1166
32225SOL    HW2 1361   5.904   1.089   6.946  0.2891  0.2912  0.2684
32226SOL     OW 1362   5.836   3.022   3.382  0.3713 -0.8852  0.0357
32226SOL    HW1 1363   5.793   3.059   3.305  0.8768  1.0237  0.6282
32226SOL    HW2 1364   5.928   3.016   3.358  0.1479 -2.9992 -0.4816
32227SOL     OW 1365   2.689  11.346   3.903 -0.0483 -0.4315  0.3797
32227SOL    HW1 1366   2.696  11.251   3.889 -0.0387 -0.3712 -0.0222
32227SOL    HW2 1367   2.624  11.355   3.973  3.0546 -0.9807  3.6031
32228SOL     OW 1368   7.843   9.123   5.250  0.0769 -0.4989 -0.1494
32228SOL    HW1 1369   7.750   9.108   5.232  0.6356 -1.6616 -2.3994
32228SOL    HW2 1370   7.865   9.055   5.314 -0.1043 -1.8698 -1.4853
32229SOL     OW 1371   4.449   5.314   1.134  0.5096 -0.0110  0.0365
32229SOL    HW1 1372   4.401   5.234   1.113  0.1682  0.1442  0.2125
32229SOL    HW2 1373   4.476   5.349   1.049 -0.6549  0.4857 -0.1492
32230SOL     OW 1374   2.285   8.344   1.799  0.0376  0.0860  0.1577
32230SOL    HW1 1375   2.327   8.357   1.883 -1.1274 -1.4601  1.0424
32230SOL    HW2 1376   2.213   8.407   1.798  0.2345  0.3119  0.1849
32231SOL     OW 1377  10.154   4.311  10.711  0.1365 -0.3035 -0.2708
32231SOL    HW1 1378  10.152   4.283  10.802 -1.1481 -0.2745 -0.2816
32231SOL    HW2 1379  10.207   4.244  10.666  0.3746 -0.5702  0.4038
32232SOL     OW 1380   3.280  10.753   6.387  0.0299 -0.2240 -0.2023
32232SOL    HW1 1381   3.328  10.706   6.318 -1.2603  0.4122 -1.5882
32232SOL    HW2 1382   3.290  10.697   6.464  0.3667 -1.6867 -1.2474
32233SOL     OW 1383  10.066   7.015   9.323  0.0585  0.4695  0.0125
32233SOL    HW1 1384  10.135   6.983   9.380 -0.0827 -0.6412 -0.4056
32233SOL    HW2 1385  10.044   7.101   9.357  0.5881  0.1947  1.0804
32234SOL     OW 1386   6.450   5.094   6.122  0.5600  0.7035  0.7799
32234SOL    HW1 1387   6.401   5.037   6.181  1.1529 -1.0530 -0.3433
32234SOL    HW2 1388   6.383   5.130   6.063  0.4381 -0.8859 -0.1109
32235SOL     OW 1389   1.944   9.840  11.690 -0.1228  0.2949  0.1873
32235SOL    HW1 1390   1.918   9.920  11.645  1.2628  2.5105  2.9858
32235SOL    HW2 1391   1.875   9.825  11.755  0.3456  0.0785  0.6421
32236SOL     OW 1392   7.821  11.645   3.741 -0.2347 -0.2193  0.3194
32236SOL    HW1 1393   7.913  11.619   3.751 -0.2191  0.5727  3.4801
32236SOL    HW2 1394   7.789  11.594   3.667  2.0189 -2.6953  0.8944
32237SOL     OW 1395  11.970   1.161   3.594 -0.3863  0.1915  0.7209
32237SOL    HW1 1396  11.984   1.167   3.500 -3.1198  0.0302  0.1992
32237SOL    HW2 1397  11.996   1.072   3.617 -0.6806 -0.1178 -0.1082
32238SOL     OW 1398   4.014   4.048  11.472  0.0971 -0.1970  0.3672
32238SOL    HW1 1399   4.062   4.112  11.419  0.1251  0.1948  0.8640
32238SOL    HW2 1400   3.943   4.098  11.512 -0.1184 -0.5615  0.4480
32239SOL     OW 1401   8.432   9.578  11.644  0.7546 -0.4468 -0.7737
32239SOL    HW1 1402   8.403   9.588  11.554 -0.1143 -0.4519 -0.5044
32239SOL    HW2 1403   8.402   9.490  11.669 -3.8657  1.3448  1.1804
32240SOL     OW 1404   2.346   6.106   2.342 -0.3498 -0.1570 -0.2453
32240SOL    HW1 1405   2.281   6.151   2.395 -1.1555 -0.1872 -1.1830
32240SOL    HW2 1406   2.366   6.027   2.392 -1.1492 -0.2230 -0.0121
32241SOL     OW 1407   9.669   8.010   1.581 -0.0712 -0.3354 -0.2016
32241SOL    HW1 1408   9.730   8.024   1.654  0.2339  0.4028 -0.5788
32241SOL    HW2 1409   9.716   7.952   1.521  0.1512 -0.0024 -0.3539
32242SOL     OW 1410   9.967   0.678   7.590  0.2050 -0.0225 -0.1967
32242SOL    HW1 1411   9.991   0.590   7.616  1.8508  0.1799 -0.9117
32242SOL    HW2 1412   9.876   0.670   7.559  1.1849 -2.0836 -2.8964
32243SOL     OW 1413   5.318   0.518   0.041 -0.2251  0.1456 -0.3293
32243SOL    HW1 1414   5.252   0.547   0.104 -2.1796  1.2330 -2.6989
32243SOL    HW2 1415   5.273   0.518  -0.043  2.1041 -1.7359 -1.7112
32244SOL     OW 1416  11.384   5.727   0.463  0.0400  0.0428 -0.0584
32244SOL    HW1 1417  11.329   5.790   0.417 -0.1615 -0.3953 -0.4252
32244SOL    HW2 1418  11.406   5.662   0.397  1.4553  0.4888 -0.0662
32245SOL     OW 1419  11.542  11.375   3.961 -0.4030 -0.5934  0.6681
32245SOL    HW1 1420  11.528  11.455   4.011 -0.2528  1.3461 -2.1797
32245SOL    HW2 1421  11.633  11.350   3.978 -0.4358 -0.1481  1.5234
32246SOL     OW 1422   3.419   3.144   2.392 -0.3241  0.6274  0.4243
32246SOL    HW1 1423   3.448   3.053   2.390 -2.3884 -0.0829 -0.9107
32246SOL    HW2 1424   3.326   3.139   2.415 -0.3964  2.4181  0.6610
32247SOL     OW 1425   0.750  10.620   6.395  0.0888 -0.9920 -0.2042
32247SOL    HW1 1426   0.673  10.586   6.351 -1.7829  0.9822  1.3093
32247SOL    HW2 1427   0.796  10.670   6.328  0.3168 -2.5376 -1.2332
32248SOL     OW 1428   6.877   2.900   3.941 -0.7238 -0.3775  0.4871
32248SOL    HW1 1429   6.813   2.943   3.885  0.4437 -0.8677 -1.3217
32248SOL    HW2 1430   6.882   2.810   3.907  1.8929  0.0083 -0.4260
32249SOL     OW 1431   4.010   2.405   6.295 -0.2989 -0.5009  0.0484
32249SOL    HW1 1432   4.028   2.335   6.233  0.2677 -0.6359  0.3659
32249SOL    HW2 1433   3.994   2.482   6.240 -0.1128 -0.6885 -0.2697
32250SOL     OW 1434   3.319   9.902   8.839 -0.4718  0.2598  0.1551
32250SOL    HW1 1435   3.257   9.970   8.865 -0.6386  0.0508  0.2989
32250SOL    HW2 1436   3.356   9.934   8.756  0.2597  1.0520  0.7680
32251SOL     OW 1437  10.306   1.541   5.569 -0.0763  0.6113 -0.3401
32251SOL    HW1 1438  10.400   1.541   5.550  0.0560  1.9611  0.2348
32251SOL    HW2 1439  10.264   1.556   5.484  0.1180 -1.5719 -0.8841
32252SOL     OW 1440   6.595  10.097   4.382 -0.6594 -0.3685 -0.3168
32252SOL    HW1 1441   6.511  10.128   4.415 -1.4115 -1.7505 -0.8926
32252SOL    HW2 1442   6.576  10.014   4.339  0.7679 -0.0309 -1.6954
32253SOL     OW 1443   2.689   0.357   1.081 -0.0965 -0.2243  0.2675
32253SOL    HW1 1444   2.733   0.429   1.035 -0.5722  0.3148  0.6348
32253SOL    HW2 1445   2.626   0.401   1.138  0.3868 -0.8783  1.3416
32254SOL     OW 1446   2.005   6.310   6.268  0.2999  0.2170 -0.2627
32254SOL    HW1 1447   2.045   6.387   6.228 -0.5613  0.3732 -0.8572
32254SOL    HW2 1448   2.076   6.246   6.273  0.5560  0.3586 -1.6308
32255SOL     OW 1449   2.108   4.724   6.942 -0.2356  0.5167  0.0536
32255SOL    HW1 1450   2.031   4.694   6.990  0.5273  1.0724  1.7078
32255SOL    HW2 1451   2.155   4.644   6.919 -1.7834  0.0943 -1.9265
32256SOL     OW 1452   3.999   1.264   7.997 -0.1048  0.1592  0.3708
32256SOL    HW1 1453   3.969   1.334   8.055 -0.2268 -0.9887  1.7411
32256SOL    HW2 1454   4.084   1.293   7.966 -1.1895  2.0199 -1.0464
32257SOL     OW 1455  10.985   0.950   0.195  0.6673  0.0687 -0.5199
32257SOL    HW1 1456  10.963   0.987   0.109 -0.3242  1.4223  0.2685
32257SOL    HW2 1457  10.908   0.899   0.220  0.2582  1.0010  0.2268
32258SOL     OW 1458   7.922   1.917   4.540 -0.3063 -0.1884  0.3325
32258SOL    HW1 1459   7.900   1.920   4.447  3.4536 -1.2959 -0.7653
32258SOL    HW2 1460   7.914   2.008   4.569 -0.2642  0.4183 -1.4148
32259SOL     OW 1461  11.903   2.214   5.482  0.3866  0.0888  0.0917
32259SOL    HW1 1462  11.902   2.214   5.386  0.1090  0.2287  0.0924
32259SOL    HW2 1463  11.830   2.157   5.506  1.5033 -1.3457  0.2259
32260SOL     OW 1464   0.458   4.386   6.007 -0.0872 -0.4917 -0.0284
32260SOL    HW1 1465   0.530   4.323   5.995  0.2735 -0.5007  1.8966
32260SOL    HW2 1466   0.461   4.440   5.928  3.3113  0.7385  0.7353
32261SOL     OW 1467   0.789   3.305   7.989  0.1981  0.5335 -0.4455
32261SOL    HW1 1468   0.704   3.308   8.032  0.4945 -0.2497  0.2274
32261SOL    HW2 1469   0.774   3.344   7.903 -0.5374  1.5861  0.1425
32262SOL     OW 1470  10.050   8.250   1.095  0.1640  0.3353  0.1667
32262SOL    HW1 1471  10.101   8.226   1.172 -1.3276 -1.0855  0.7818
32262SOL    HW2 1472   9.959   8.253   1.126 -0.2850  1.5896 -1.1426
32263SOL     OW 1473   7.317   3.682  10.876 -0.6995 -0.2104  0.0770
32263SOL    HW1 1474   7.296   3.590  10.892 -1.0659 -0.2096 -0.3929
32263SOL    HW2 1475   7.411   3.682  10.859 -0.5435 -0.3870  0.8926
32264SOL     OW 1476   1.732   2.573   4.424  0.0971 -0.5727 -0.6177
32264SOL    HW1 1477   1.826   2.559   4.411  0.6613  1.0242  1.3174
32264SOL    HW2 1478   1.690   2.518   4.357  2.2820 -3.5734  0.2640
32265SOL     OW 1479  10.265   2.391  11.582  0.7721 -0.8512  0.0162
32265SOL    HW1 1480  10.320   2.313  11.572 -2.3584 -3.1403 -0.9391
32265SOL    HW2 1481  10.217   2.397  11.499 -1.6600 -0.0907  1.3672
32266SOL     OW 1482   8.354   9.016   7.534 -0.0966  0.0667  0.2170
32266SOL    HW1 1483   8.409   9.062   7.470  0.0273 -0.6185 -0.1717
32266SOL    HW2 1484   8.413   8.953   7.575 -1.0277 -2.1730 -1.6844
32267SOL     OW 1485   6.875   9.365   9.358 -0.3401 -0.1620 -0.3741
32267SOL    HW1 1486   6.955   9.317   9.378 -0.1892 -0.0130 -0.6093
32267SOL    HW2 1487   6.872   9.434   9.424  0.0278  0.1791 -0.7035
32268SOL     OW 1488   6.026   7.749   8.215  0.2608  1.0315  0.2108
32268SOL    HW1 1489   5.952   7.692   8.195 -0.7666  2.5679 -0.5925
32268SOL    HW2 1490   6.101   7.707   8.172 -0.1428 -0.4662  0.9118
32269SOL     OW 1491   3.922   8.008   1.272  0.2418 -0.2961 -0.0348
32269SOL    HW1 1492   3.853   8.012   1.338 -1.0294  1.1800 -1.3667
32269SOL    HW2 1493   4.002   7.995   1.322 -0.8985 -1.3774  1.6157
32270SOL     OW 1494   9.411   4.584   5.907 -0.1400  0.1515  0.1135
32270SOL    HW1 1495   9.350   4.652   5.877 -0.0355 -0.4438 -1.5286
32270SOL    HW2 1496   9.451   4.621   5.986 -0.0793  2.0035 -0.7352
32271SOL     OW 1497   6.527   6.954   9.643  0.2948 -0.7518  0.4409
32271SOL    HW1 1498   6.607   6.914   9.610  0.6934  0.6345 -0.3682
32271SOL    HW2 1499   6.457   6.918   9.589  0.6247 -0.5278 -0.1499
32272SOL     OW 1500  11.237   8.544   0.963 -0.5502  0.1433  0.4734
32272SOL    HW1 1501  11.246   8.516   0.872 -1.0602  0.2733  0.3811
32272SOL    HW2 1502  11.308   8.499   1.009  2.0891  2.8248 -0.5764
32273SOL     OW 1503   9.265  10.313  11.137 -0.0827  0.4694 -0.4644
32273SOL    HW1 1504   9.215  10.241  11.176 -0.6100  0.5014 -1.0690
32273SOL    HW2 1505   9.274  10.289  11.045  0.8972  0.5413 -0.3971
32274SOL     OW 1506   8.304   2.994   2.495 -0.3758  0.0606 -0.2342
32274SOL    HW1 1507   8.210   2.976   2.489 -0.8057  1.7193  0.8508
32274SOL    HW2 1508   8.323   3.046   2.416 -0.0044 -1.5343 -1.2412
32275SOL     OW 1509  11.889   9.614   8.807  0.2959 -0.4513  0.1484
32275SOL    HW1 1510  11.879   9.540   8.747 -1.2735 -0.4768  0.3937
32275SOL    HW2 1511  11.937   9.679   8.756 -0.9543 -0.4983 -1.1483
32276SOL     OW 1512   9.599   8.421   1.139 -0.2158 -0.2820 -0.3532
32276SOL    HW1 1513   9.536   8.464   1.080 -0.6920 -0.4363  0.0362
32276SOL    HW2 1514   9.580   8.459   1.225  0.3159 -0.2330 -0.2557
32277SOL     OW 1515   4.275   6.010  11.399 -0.1378  0.1073 -0.0910
32277SOL    HW1 1516   4.322   5.927  11.412 -1.2721 -0.4726  0.4598
32277SOL    HW2 1517   4.223   5.996  11.320  1.1915  1.0413 -1.1822
32278SOL     OW 1518   1.406   4.500   4.068  0.7211 -0.3954 -0.0492
32278SOL    HW1 1519   1.374   4.527   3.982  0.2354 -1.2159 -0.1340
32278SOL    HW2 1520   1.387   4.407   4.073  1.1444 -0.4487  0.7756
32279SOL     OW 1521   3.200  10.087   7.277 -0.0305 -0.2709 -0.3170
32279SOL    HW1 1522   3.226  10.121   7.363 -0.1044  1.7884 -1.0476
32279SOL    HW2 1523   3.125  10.141   7.251  1.0707  0.3853 -2.4129
32280SOL     OW 1524   0.021   1.086   5.451  0.0961 -0.2717  0.0252
32280SOL    HW1 1525  -0.060   1.051   5.412  0.1002 -1.5368  1.0588
32280SOL    HW2 1526   0.039   1.165   5.402 -1.1087 -0.6202 -1.0445
32281SOL     OW 1527   2.930   2.433   1.105  0.1945 -0.3009  0.0491
32281SOL    HW1 1528   2.895   2.518   1.077 -0.2836 -1.5084 -3.5219
32281SOL    HW2 1529   3.024   2.447   1.111  0.0202  0.7295  0.7447
32282SOL     OW 1530   6.289   5.523   1.529  0.1565  0.1255  0.0300
32282SOL    HW1 1531   6.307   5.529   1.623  1.4826  4.1358 -0.3207
32282SOL    HW2 1532   6.374   5.503   1.490  0.0346  0.5372 -0.4491
32283SOL     OW 1533   1.784   4.757   9.706 -0.3449  0.0987 -0.2788
32283SOL    HW1 1534   1.869   4.777   9.746 -0.5510  0.3296  0.0548
32283SOL    HW2 1535   1.771   4.827   9.642 -0.3897  0.1972 -0.1632
32284SOL     OW 1536  11.423   8.685   3.007  0.8094 -1.0203 -0.4312
32284SOL    HW1 1537  11.432   8.590   3.013 -0.6532 -1.1633 -0.2056
32284SOL    HW2 1538  11.512   8.718   3.021  1.1989 -2.3045  0.2930
32285SOL     OW 1539   2.926   6.429   2.405  0.3272 -0.4294  0.3273
32285SOL    HW1 1540   2.929   6.357   2.469 -0.9857 -2.0417 -1.3266
32285SOL    HW2 1541   3.014   6.431   2.367  0.6705 -0.4549  1.0883
32286SOL     OW 1542   6.333   0.352   7.110  0.0805 -0.2333 -0.1208
32286SOL    HW1 1543   6.275   0.425   7.132  0.6189  0.0702  0.3272
32286SOL    HW2 1544   6.406   0.360   7.172  0.6415 -0.5544 -0.7267
32287SOL     OW 1545   9.109   9.729   7.848  0.1151 -0.1114 -0.3463
32287SOL    HW1 1546   9.185   9.705   7.900 -1.6420 -0.6936  2.1506
32287SOL    HW2 1547   9.057   9.786   7.906 -2.6223 -1.8749 -0.8679
32288SOL     OW 1548  11.899   5.103   8.733 -0.0569  0.3322  0.1233
32288SOL    HW1 1549  11.938   5.114   8.646  0.3124  0.5631  0.3138
32288SOL    HW2 1550  11.906   5.010   8.751 -2.3557 -0.1541 -1.1183
32289SOL     OW 1551   6.549   6.288   7.911 -0.2823  0.5413 -0.0879
32289SOL    HW1 1552   6.613   6.301   7.981 -0.4506 -1.1457  0.4312
32289SOL    HW2 1553   6.587   6.218   7.858 -1.1905  0.2673 -0.3855
32290SOL     OW 1554   2.516  11.408   0.476  0.3048  0.3294 -0.5200
32290SOL    HW1 1555   2.503  11.475   0.408  3.7150  1.7996  0.1020
32290SOL    HW2 1556   2.585  11.351   0.441 -0.2429 -0.9240  0.3608
32291SOL     OW 1557   6.470   0.994   5.360  0.2719  0.2844 -0.6287
32291SOL    HW1 1558   6.491   1.020   5.271 -0.2797  2.0062 -0.3044
32291SOL    HW2 1559   6.543   1.028   5.413  0.9349 -1.2971 -0.4609
32292SOL     OW 1560   2.237   6.665   3.386 -0.1125 -0.1807 -0.4911
32292SOL    HW1 1561   2.199   6.607   3.320 -1.9131  1.3880 -0.9538
32292SOL    HW2 1562   2.164   6.722   3.411  1.4048  1.4812  0.3487
32293SOL     OW 1563   0.605   8.174   0.078 -0.9490 -0.3853 -0.2190
32293SOL    HW1 1564   0.612   8.101   0.016  1.0221 -0.4680  0.0154
32293SOL    HW2 1565   0.552   8.240   0.033  1.4810  0.0969 -2.6211
32294SOL     OW 1566  11.988   1.530   0.208 -0.3251  0.0565 -0.5082
32294SOL    HW1 1567  12.019   1.490   0.126  0.8499  1.3252 -0.7112
32294SOL    HW2 1568  12.016   1.470   0.276 -0.8413 -0.7456 -0.9854
32295SOL     OW 1569   0.222  11.546  10.237  0.6875 -0.0700  0.3084
32295SOL    HW1 1570   0.267  11.462  10.224  0.2148 -0.3463  0.4165
32295SOL    HW2 1571   0.292  11.610  10.244  1.0565 -0.4547  0.2060
32296SOL     OW 1572   5.378   5.208   6.836 -0.8327  0.1835  0.2041
32296SOL    HW1 1573   5.460   5.194   6.882 -1.2989  0.9654  1.3052
32296SOL    HW2 1574   5.362   5.126   6.790 -2.0279 -2.0478  4.1171
32297SOL     OW 1575   3.808   7.456  10.014  0.9253  0.1090  0.4753
32297SOL    HW1 1576   3.831   7.528  10.073 -0.0570  1.3113 -0.5568
32297SOL    HW2 1577   3.858   7.381  10.047  2.9116  1.5315  0.8962
32298SOL     OW 1578   6.684   7.599  11.940  0.4500 -0.2445 -0.0322
32298SOL    HW1 1579   6.632   7.521  11.921  0.0034  0.0670 -0.1293
32298SOL    HW2 1580   6.732   7.617  11.859  1.3174 -0.9835  0.3106
32299SOL     OW 1581   4.261   5.097   2.610 -0.3825  0.4644  0.0795
32299SOL    HW1 1582   4.312   5.021   2.640  0.6666  0.7062 -1.0194
32299SOL    HW2 1583   4.187   5.060   2.562 -0.7318  0.1233  0.8673
32300SOL     OW 1584   5.300   8.826   3.424 -0.0478  0.5962  0.4057
32300SOL    HW1 1585   5.276   8.740   3.388  0.0897  0.2088  1.2245
32300SOL    HW2 1586   5.337   8.873   3.349  1.2727 -0.5880  0.2685
32301SOL     OW 1587   9.755   8.012   8.501  0.1932  0.2420 -0.4436
32301SOL    HW1 1588   9.837   8.013   8.453  0.3334  0.5989 -0.1967
32301SOL    HW2 1589   9.754   8.094   8.550 -0.8116  0.7543 -1.2714
32302SOL     OW 1590   6.028   4.010   4.143  0.0463  0.1434 -0.1725
32302SOL    HW1 1591   6.065   4.099   4.139 -0.2633  0.3641  1.4076
32302SOL    HW2 1592   5.985   3.999   4.059 -1.8939  2.3882  0.4141
32303SOL     OW 1593   1.797  10.141   5.022  0.0541 -0.6364 -0.2239
32303SOL    HW1 1594   1.784  10.117   5.114 -0.7214 -1.6866 -0.5889
32303SOL    HW2 1595   1.815  10.058   4.978  1.3297 -0.0323 -0.8842
32304SOL     OW 1596   7.422  10.210   6.459 -0.2588 -0.1727  0.0439
32304SOL    HW1 1597   7.338  10.197   6.504 -0.4006  1.9301  0.4898
32304SOL    HW2 1598   7.410  10.291   6.409  1.4896  0.1183  0.0453
32305SOL     OW 1599  11.437  10.017  11.210 -0.0454 -0.1069  0.0487
32305SOL    HW1 1600  11.453  10.013  11.116 -0.1378  0.6281 -0.0012
32305SOL    HW2 1601  11.342  10.014  11.219 -0.0520  0.2380  0.0974
32306SOL     OW 1602   2.427   3.937   3.777  0.5607 -0.2176  0.0221
32306SOL    HW1 1603   2.434   4.031   3.797  0.0374 -0.3220  0.7371
32306SOL    HW2 1604   2.338   3.927   3.742  0.5619 -0.4629  0.0873
32307SOL     OW 1605   9.004   9.649   9.906 -0.2739 -0.5493  0.1387
32307SOL    HW1 1606   9.072   9.716   9.918  0.2954 -0.4899 -2.6264
32307SOL    HW2 1607   8.927   9.684   9.952 -0.2759  2.5518 -1.9090
32308SOL     OW 1608   7.374   2.622  10.560  0.0548  0.1305  0.1242
32308SOL    HW1 1609   7.334   2.677  10.493 -0.9964 -0.4344  0.2549
32308SOL    HW2 1610   7.312   2.550  10.571  1.4482 -1.1740 -0.1568
32309SOL     OW 1611   2.286   2.809  11.233 -0.3930 -0.5279  0.2604
32309SOL    HW1 1612   2.334   2.809  11.316 -1.3172  0.6458  0.8239
32309SOL    HW2 1613   2.316   2.888  11.188 -2.4731  0.7791  1.0597
32310SOL     OW 1614  10.572   9.635   1.654 -0.2685  0.2672  0.5978
32310SOL    HW1 1615  10.557   9.729   1.659 -0.2411  0.2671  0.6824
32310SOL    HW2 1616  10.555   9.603   1.743 -0.5117  0.1585  0.5130
32311SOL     OW 1617   6.883   1.364  10.949 -0.4546  0.2470 -0.7689
32311SOL    HW1 1618   6.859   1.442  10.898  0.3558  0.8909 -0.1869
32311SOL    HW2 1619   6.896   1.397  11.038  0.5879 -0.4261 -0.6574
32312SOL     OW 1620   3.653  11.677   3.344 -0.1873 -0.3926 -0.3151
32312SOL    HW1 1621   3.681  11.592   3.379  0.5429  0.1911  0.5862
32312SOL    HW2 1622   3.627  11.659   3.254 -0.9048 -1.7256  0.1338
32313SOL     OW 1623   2.970   8.685   7.887 -0.9008 -0.1154 -0.0732
32313SOL    HW1 1624   2.878   8.702   7.865 -0.9905  0.5369  0.7317
32313SOL    HW2 1625   2.986   8.741   7.963  0.1852 -0.1814 -0.2475
32314SOL     OW 1626   1.267   6.694   7.088 -0.6974  0.5827 -0.3203
32314SOL    HW1 1627   1.268   6.635   7.012  4.8973  1.6473 -1.5200
32314SOL    HW2 1628   1.227   6.775   7.055 -1.0447  0.0704 -1.1987
32315SOL     OW 1629   2.224   3.296   2.057 -0.3495 -0.5678  0.1542
32315SOL    HW1 1630   2.267   3.339   2.131 -0.4784  0.4332 -0.3318
32315SOL    HW2 1631   2.193   3.368   2.002 -0.2231 -1.2932 -0.8997
32316SOL     OW 1632   9.836   1.941   2.807 -0.2366  0.6631  0.2351
32316SOL    HW1 1633   9.921   1.905   2.831 -0.2117 -0.4235 -1.3172
32316SOL    HW2 1634   9.820   1.909   2.718 -1.8432  1.6221  0.1255
32317SOL     OW 1635   9.418  10.342   3.488  0.1882  0.8054 -0.2170
32317SOL    HW1 1636   9.362  10.286   3.542  0.4957  0.6306 -0.0782
32317SOL    HW2 1637   9.507  10.320   3.514  0.3271  1.0165 -0.5045
32318SOL     OW 1638   8.826   3.445   8.779  0.1874 -0.5059  0.7347
32318SOL    HW1 1639   8.868   3.391   8.846 -2.3598 -1.7586  1.4707
32318SOL    HW2 1640   8.776   3.382   8.726  0.7457  0.6632 -1.3225
32319SOL     OW 1641   3.607  11.097  10.813  0.0894  0.1556  0.2283
32319SOL    HW1 1642   3.564  11.178  10.788  0.5160  0.3751  0.1869
32319SOL    HW2 1643   3.609  11.044  10.734 -0.5489 -0.0609  0.3557
32320SOL     OW 1644   7.401   5.170   0.428  0.7543  0.1605  0.1072
32320SOL    HW1 1645   7.443   5.107   0.486  0.2649  1.1472  1.6080
32320SOL    HW2 1646   7.308   5.163   0.449  0.3722 -0.4649 -1.6191
32321SOL     OW 1647   5.530   8.269   4.061  0.2036 -0.2143  0.0099
32321SOL    HW1 1648   5.512   8.261   3.967 -1.2991 -1.0069  0.3223
32321SOL    HW2 1649   5.559   8.181   4.087 -1.9521 -0.7950  0.7268
32322SOL     OW 1650   6.138   7.041   7.635  0.2213 -0.1196 -0.0869
32322SOL    HW1 1651   6.081   7.038   7.559  0.3858  1.2402 -0.2910
32322SOL    HW2 1652   6.080   7.067   7.707  0.5866  1.3889 -0.3201
32323SOL     OW 1653  11.778   7.617   2.398  0.1666 -0.8426 -0.1569
32323SOL    HW1 1654  11.848   7.643   2.457  0.7680 -1.5718 -0.5363
32323SOL    HW2 1655  11.752   7.530   2.428 -0.8690 -0.4181  0.2353
32324SOL     OW 1656  10.088  10.410   1.261 -0.3899 -0.3925  0.3421
32324SOL    HW1 1657  10.002  10.376   1.286 -1.5567  0.9534 -1.5855
32324SOL    HW2 1658  10.119  10.350   1.193 -0.4696 -0.0772  0.0232
32325SOL     OW 1659   6.080   5.147  10.918 -0.7025  0.2833 -0.3268
32325SOL    HW1 1660   6.150   5.116  10.861 -0.0392 -0.1752  0.7072
32325SOL    HW2 1661   6.065   5.075  10.979  0.5601  1.7441  1.8429
32326SOL     OW 1662   1.439   8.826   0.437 -0.4199  0.2400  0.3898
32326SOL    HW1 1663   1.497   8.902   0.439 -0.6537  0.4083  2.3117
32326SOL    HW2 1664   1.353   8.861   0.458 -0.7960 -0.3523 -0.1369
32327SOL     OW 1665   7.256   4.120   5.423  0.1185 -0.5288  0.1736
32327SOL    HW1 1666   7.325   4.167   5.470 -0.6614  1.7125 -0.8297
32327SOL    HW2 1667   7.217   4.185   5.365 -1.9480 -2.0768 -0.2903
32328SOL     OW 1668  10.044   5.137  10.882  0.3880  0.1297 -0.5994
32328SOL    HW1 1669  10.007   5.077  10.818  1.2757 -0.9747 -0.1158
32328SOL    HW2 1670  10.117   5.179  10.836  1.4780 -1.1854 -0.1512
32329SOL     OW 1671   7.546   0.311  11.503 -0.6746 -0.0262  0.1786
32329SOL    HW1 1672   7.569   0.225  11.538 -0.4682 -0.2392 -0.4638
32329SOL    HW2 1673   7.595   0.318  11.421  1.3480  1.7621  1.4210
32330SOL     OW 1674   6.824  11.384  11.140  0.4419 -0.4761  0.4946
32330SOL    HW1 1675   6.734  11.407  11.118 -0.0437 -2.1619  0.5478
32330SOL    HW2 1676   6.877  11.454  11.102 -0.7946 -0.1447 -0.7139
32331SOL     OW 1677  11.031   3.678  11.995  0.2255  0.1373 -0.1247
32331SOL    HW1 1678  10.953   3.732  12.001  0.3038  0.2992 -0.5176
32331SOL    HW2 1679  11.052   3.655  12.086 -1.9117 -2.2900 -0.1498
32332SOL     OW 1680   6.537   2.485   9.485  0.1926  0.0678 -0.3700
32332SOL    HW1 1681   6.517   2.487   9.392 -1.5955 -2.1563 -0.1368
32332SOL    HW2 1682   6.489   2.558   9.522  1.8382  1.6762 -1.2708
32333SOL     OW 1683   2.171   3.142   8.042 -0.3012 -0.3637 -0.5061
32333SOL    HW1 1684   2.218   3.071   8.001 -0.5912 -0.4109 -0.7611
32333SOL    HW2 1685   2.124   3.101   8.115 -2.1406 -0.8547 -1.8886
32334SOL     OW 1686   7.539   3.044   4.930  0.0593  0.6015  0.1876
32334SOL    HW1 1687   7.524   3.068   4.838  0.9437  1.3754  0.2338
32334SOL    HW2 1688   7.460   2.994   4.954 -0.0991  0.2052 -1.0412
32335SOL     OW 1689   9.417   4.790   6.098 -0.2779 -0.0310  0.4433
32335SOL    HW1 1690   9.439   4.768   6.189  2.4154 -0.0521 -0.1346
32335SOL    HW2 1691   9.424   4.885   6.094  2.0088 -0.1548 -0.1959
32336SOL     OW 1692   6.851   6.467   7.800 -0.1544  0.5585  0.4340
32336SOL    HW1 1693   6.823   6.458   7.891  0.3122  1.7594  0.7174
32336SOL    HW2 1694   6.918   6.400   7.788  0.2950  0.8660  1.1910
32337SOL     OW 1695   1.903   0.523   5.899  0.1054 -0.5953  0.0927
32337SOL    HW1 1696   1.838   0.490   5.962  0.1751 -0.7649  0.0737
32337SOL    HW2 1697   1.957   0.448   5.878  0.7289 -0.3010  0.6220
32338SOL     OW 1698   1.410   8.169   2.214 -0.3058  0.3037 -0.0244
32338SOL    HW1 1699   1.328   8.209   2.245  0.5792  1.7894  0.4922
32338SOL    HW2 1700   1.423   8.207   2.127 -0.4949 -0.4577 -0.3973
32339SOL     OW 1701  10.579   9.369  11.136  0.0828 -0.3953  0.2484
32339SOL    HW1 1702  10.505   9.309  11.124  0.5251 -0.9159  0.0639
32339SOL    HW2 1703  10.641   9.319  11.190  0.2707  0.0609  0.4557
32340SOL     OW 1704  10.545   7.197   4.190 -0.3229  0.8854  0.0647
32340SOL    HW1 1705  10.499   7.118   4.161 -1.2118  0.6237  1.9986
32340SOL    HW2 1706  10.634   7.188   4.154 -0.1836 -1.3772  0.7824
32341SOL     OW 1707   1.988  10.548   8.423 -0.0479 -0.3382 -0.1649
32341SOL    HW1 1708   2.051  10.584   8.486 -0.0951  0.3590 -0.5107
32341SOL    HW2 1709   2.023  10.461   8.402  1.0967  0.2403 -0.7469
32342SOL     OW 1710   2.117   5.423   8.036  0.2323  0.2282  0.4556
32342SOL    HW1 1711   2.131   5.374   7.955  0.2722 -0.8442  1.0925
32342SOL    HW2 1712   2.063   5.498   8.010 -0.7164 -0.7084 -0.3770
32343SOL     OW 1713   8.662   7.737   6.930  0.1250  0.5971  0.1280
32343SOL    HW1 1714   8.571   7.709   6.932 -0.0192  0.9563 -0.7543
32343SOL    HW2 1715   8.712   7.659   6.954 -0.3080 -0.2132 -1.4372
32344SOL     OW 1716   7.925   2.694   1.942 -0.1884 -0.3820  0.1153
32344SOL    HW1 1717   7.927   2.782   1.980  1.5108 -0.5576  0.5340
32344SOL    HW2 1718   7.910   2.636   2.018  1.9956 -0.6451  0.4210
32345SOL     OW 1719  10.771   9.199   8.560  0.2775  0.3676  0.3637
32345SOL    HW1 1720  10.698   9.260   8.550  1.4722  1.7489 -0.3502
32345SOL    HW2 1721  10.808   9.191   8.472  1.1705 -0.0684  0.7639
32346SOL     OW 1722   6.394  11.123   5.829  0.1811 -0.1617 -0.3202
32346SOL    HW1 1723   6.354  11.142   5.745  1.1026 -0.5158 -0.8537
32346SOL    HW2 1724   6.439  11.039   5.816  0.6054 -0.0637  0.4300
32347SOL     OW 1725   7.138   0.890   2.921  0.0876  0.2161 -0.1288
32347SOL    HW1 1726   7.229   0.884   2.948  0.8433  2.0928 -1.9133
32347SOL    HW2 1727   7.134   0.844   2.837  0.1843  2.5723 -1.5305
32348SOL     OW 1728   9.763   7.097   8.749  0.3083  0.0038  0.0374
32348SOL    HW1 1729   9.814   7.089   8.830  0.2509  1.2373  0.2164
32348SOL    HW2 1730   9.828   7.088   8.679  0.6128  0.5032  0.2502
32349SOL     OW 1731   6.674   9.255   7.326 -0.0882 -0.7188 -0.6394
32349SOL    HW1 1732   6.659   9.343   7.293  3.1496 -0.3918 -1.5531
32349SOL    HW2 1733   6.650   9.260   7.419  0.3780  1.2487 -0.5863
32350SOL     OW 1734   1.609   0.091   2.813  0.2189 -0.6183 -0.0482
32350SOL    HW1 1735   1.538   0.061   2.870  0.0926 -0.2509 -0.0094
32350SOL    HW2 1736   1.645   0.011   2.776 -1.4370 -0.7537 -1.5537
32351SOL     OW 1737   3.936  11.079   5.066  0.2555  0.6080 -0.3668
32351SOL    HW1 1738   3.967  11.108   4.980  2.1292  0.7939  0.3224
32351SOL    HW2 1739   3.910  11.160   5.110  0.8460  0.7102 -0.1934
32352SOL     OW 1740  10.184   8.758   5.009  0.1187  0.0265 -0.0314
32352SOL    HW1 1741  10.103   8.780   4.963  0.1031 -0.2308 -0.1290
32352SOL    HW2 1742  10.243   8.724   4.941 -0.5371 -2.1016  0.3805
32353SOL     OW 1743  11.281   3.603   8.214 -0.5020 -0.1003 -0.1894
32353SOL    HW1 1744  11.198   3.579   8.172 -1.0436 -0.3375  0.9798
32353SOL    HW2 1745  11.260   3.607   8.307  0.6865  0.3672  0.0692
32354SOL     OW 1746   9.871   9.400   3.009  0.5425  0.0260 -0.3509
32354SOL    HW1 1747   9.896   9.488   3.036 -0.0651  0.5586 -1.4402
32354SOL    HW2 1748   9.924   9.383   2.931  0.1923 -0.3046 -0.5216
32355SOL     OW 1749   8.214   2.114   2.274  0.2280 -0.3169  0.2183
32355SOL    HW1 1750   8.121   2.095   2.265  0.3591 -0.9549  0.1755
32355SOL    HW2 1751   8.256   2.064   2.204  0.7357 -1.1436  1.0935
32356SOL     OW 1752   0.128   1.515   9.762  0.3639 -0.6516  0.8221
32356SOL    HW1 1753   0.069   1.500   9.688 -0.5652  0.7094  1.2583
32356SOL    HW2 1754   0.203   1.561   9.724 -0.1721  0.1651  0.7281
32357SOL     OW 1755   6.761   9.493   0.849 -0.2734  0.2910 -0.6292
32357SOL    HW1 1756   6.821   9.506   0.923  0.2279 -0.8558 -0.8074
32357SOL    HW2 1757   6.676   9.521   0.882 -0.6382 -2.6761  1.3703
32358SOL     OW 1758   7.436   2.287   3.079 -0.3503 -0.4504  0.5406
32358SOL    HW1 1759   7.350   2.248   3.092 -1.0154  0.1691 -1.6536
32358SOL    HW2 1760   7.492   2.214   3.055 -0.3894 -0.7521  1.3256
32359SOL     OW 1761  11.745   5.812  11.794  0.2557  0.1721 -0.1422
32359SOL    HW1 1762  11.710   5.900  11.798  1.0775  0.4996  0.1205
32359SOL    HW2 1763  11.689   5.766  11.732 -0.9407  0.5169  0.6461
32360SOL     OW 1764   0.020   9.092   7.693  0.2502  0.6880  0.0578
32360SOL    HW1 1765   0.085   9.053   7.751  1.6175  2.5495 -0.1532
32360SOL    HW2 1766  -0.063   9.052   7.720  1.1036  0.1719  2.0769
32361SOL     OW 1767   5.296   5.494   0.756  0.2920 -0.5925  0.4632
32361SOL    HW1 1768   5.329   5.570   0.805 -0.6663  0.0032  0.2138
32361SOL    HW2 1769   5.256   5.438   0.822  0.8955 -0.8365  0.6323
32362SOL     OW 1770   0.118   7.393   3.550  0.0418 -0.0434 -0.5925
32362SOL    HW1 1771   0.106   7.396   3.645  1.8840 -0.8741 -0.3047
32362SOL    HW2 1772   0.042   7.342   3.519 -0.8457  0.6521  0.3520
32363SOL     OW 1773   5.086   8.519   4.501 -0.0744 -0.0453  0.2108
32363SOL    HW1 1774   5.145   8.567   4.442 -0.4841  0.8716  0.5245
32363SOL    HW2 1775   5.028   8.587   4.536 -0.0997 -0.6443  1.3471
32364SOL     OW 1776   1.039  11.133   6.533 -0.4378  0.0752 -0.4184
32364SOL    HW1 1777   0.961  11.080   6.520 -1.4553  1.0441  1.3377
32364SOL    HW2 1778   1.069  11.110   6.622  1.8476 -0.9410 -1.3675
32365SOL     OW 1779   5.869   1.597   5.832 -0.5467  0.7045 -0.7201
32365SOL    HW1 1780   5.916   1.660   5.777  1.9325 -1.1162 -0.8477
32365SOL    HW2 1781   5.933   1.568   5.896 -1.6947 -1.3848 -0.4266
32366SOL     OW 1782   6.097   1.696   6.405  0.5449  0.0570 -0.1372
32366SOL    HW1 1783   6.068   1.774   6.452  0.7466 -0.3302  0.6595
32366SOL    HW2 1784   6.063   1.623   6.457  1.3740 -0.3896 -0.2033
32367SOL     OW 1785   4.310   7.767   4.546  0.2901  0.0356  0.2775
32367SOL    HW1 1786   4.281   7.806   4.463  0.9349 -0.2739 -0.1022
32367SOL    HW2 1787   4.229   7.748   4.593 -0.0689  0.6598 -0.0762
32368SOL     OW 1788  10.384   1.340   1.389 -0.0015 -0.1823  0.3245
32368SOL    HW1 1789  10.434   1.287   1.327 -0.6511 -0.7167  0.2474
32368SOL    HW2 1790  10.375   1.425   1.346  1.9710  0.3763  0.8978
32369SOL     OW 1791   0.291   2.142  11.761 -0.0802 -0.3597  0.2763
32369SOL    HW1 1792   0.283   2.235  11.739  0.4037  0.3350  2.7655
32369SOL    HW2 1793   0.228   2.098  11.703  0.3523  1.3577 -1.6080
32370SOL     OW 1794  11.476  10.754  10.147  0.2736  0.3349  0.0263
32370SOL    HW1 1795  11.532  10.682  10.118  1.6891  0.5396  2.0885
32370SOL    HW2 1796  11.469  10.743  10.242 -0.1979  2.4248  0.2816
32371SOL     OW 1797   7.067   7.597   1.192 -0.1048 -0.9162  0.7782
32371SOL    HW1 1798   7.031   7.609   1.280 -1.5142 -1.8937  0.3733
32371SOL    HW2 1799   7.154   7.637   1.196 -0.2043 -0.7953  2.5578
32372SOL     OW 1800   9.243   0.717   3.207  0.7152  0.1101  0.2967
32372SOL    HW1 1801   9.289   0.656   3.151  1.6155  0.3313  0.7822
32372SOL    HW2 1802   9.197   0.776   3.147  1.9088  0.5349 -0.2150
32373SOL     OW 1803   1.020  11.105  10.425 -0.2984 -0.3472  0.1439
32373SOL    HW1 1804   0.938  11.058  10.409 -0.3620 -0.3160  0.3765
32373SOL    HW2 1805   1.085  11.059  10.371 -0.0573 -1.6130  1.4573
32374SOL     OW 1806   7.733   7.483   1.504 -0.6671  0.1366  0.5857
32374SOL    HW1 1807   7.681   7.423   1.450  0.5047 -0.3034 -0.0959
32374SOL    HW2 1808   7.791   7.425   1.554  0.0381  0.6630  0.3915
32375SOL     OW 1809   9.844   9.959   3.141 -0.2425 -0.0325  0.6887
32375SOL    HW1 1810   9.856  10.008   3.222 -2.4683 -0.6861  1.4753
32375SOL    HW2 1811   9.874   9.871   3.162  0.2969  0.0771  0.4065
32376SOL     OW 1812   9.543   7.609   7.902  0.7683  0.7115  0.6286
32376SOL    HW1 1813   9.467   7.561   7.934 -0.9838  2.7414 -0.2025
32376SOL    HW2 1814   9.528   7.699   7.930  1.6860  1.6089 -1.5049
32377SOL     OW 1815  10.191   8.150  10.690  0.0514 -0.0054  0.9340
32377SOL    HW1 1816  10.191   8.245  10.679 -1.7879 -0.1494 -0.8577
32377SOL    HW2 1817  10.252   8.118  10.622 -0.4236 -0.1723  0.5827
32378SOL     OW 1818   9.350   5.086   0.738  0.1809  0.2447  0.1099
32378SOL    HW1 1819   9.327   5.019   0.803 -0.7997  0.9656  0.5393
32378SOL    HW2 1820   9.441   5.067   0.714  1.0827  0.7944  2.7576
32379SOL     OW 1821   6.476   2.082   4.725 -0.5090  0.3536  0.2155
32379SOL    HW1 1822   6.421   2.058   4.651 -0.2813 -1.0360  0.4805
32379SOL    HW2 1823   6.566   2.071   4.694 -0.3872  1.0859  0.2837
32380SOL     OW 1824   4.752   3.402   0.561  0.4097 -0.3157  1.0131
32380SOL    HW1 1825   4.757   3.442   0.474  0.7413  0.7665  1.5130
32380SOL    HW2 1826   4.779   3.311   0.547  0.1321 -0.2460 -0.0681
32381SOL     OW 1827   0.581   7.012   0.437  0.0976 -0.1595 -0.0695
32381SOL    HW1 1828   0.520   7.046   0.503  1.5172 -0.0778  1.2444
32381SOL    HW2 1829   0.587   7.082   0.373  0.6530  0.8444  1.0457
32382SOL     OW 1830  11.762   7.483  11.912  0.9316 -0.4302 -0.4572
32382SOL    HW1 1831  11.685   7.472  11.968  1.2955 -0.6688  0.0013
32382SOL    HW2 1832  11.747   7.424  11.838  0.9792 -0.9483 -0.0485
32383SOL     OW 1833  10.859  10.800   7.216  0.4627 -0.3439  0.4831
32383SOL    HW1 1834  10.766  10.782   7.212  0.1595  1.2574 -0.6391
32383SOL    HW2 1835  10.899  10.740   7.153 -0.2824  1.3280 -1.7194
32384SOL     OW 1836   0.703   0.517   2.693  0.1919  0.3644  0.7246
32384SOL    HW1 1837   0.707   0.476   2.606 -0.6778 -1.7315  1.6046
32384SOL    HW2 1838   0.634   0.583   2.685 -0.0554  0.0224 -0.1337
32385SOL     OW 1839   0.142   9.527   7.912 -0.1837 -0.5156 -0.1421
32385SOL    HW1 1840   0.106   9.490   7.832 -1.0931 -1.9444  0.8708
32385SOL    HW2 1841   0.236   9.532   7.896 -0.3334 -0.9173 -1.2326
32386SOL     OW 1842   5.979   7.090   0.608 -0.1566 -0.2633  0.0847
32386SOL    HW1 1843   5.917   7.031   0.651 -1.5744  0.1758 -1.2760
32386SOL    HW2 1844   5.942   7.104   0.521  2.5986 -1.1447 -1.3542
32387SOL     OW 1845   2.969   6.148   1.176 -0.6360  0.0220 -0.4414
32387SOL    HW1 1846   2.886   6.102   1.164 -0.1079 -1.2092  0.3724
32387SOL    HW2 1847   2.947   6.223   1.232 -1.3133  0.1066 -0.8092
32388SOL     OW 1848   4.895   3.760   6.001  0.3481  0.1514  0.1812
32388SOL    HW1 1849   4.868   3.851   6.013  0.6314  0.6383 -2.4371
32388SOL    HW2 1850   4.822   3.709   6.035  0.9765  1.2324  3.5414
32389SOL     OW 1851   5.013   9.380   3.197 -0.6468  0.0202  0.5247
32389SOL    HW1 1852   5.070   9.355   3.124 -2.1637 -1.6517 -0.1684
32389SOL    HW2 1853   4.926   9.349   3.171 -1.5838  1.0708  2.2339
32390SOL     OW 1854   8.459   6.156   7.916  0.1359  0.0351 -0.2741
32390SOL    HW1 1855   8.552   6.166   7.936  0.1939  0.3345 -0.6605
32390SOL    HW2 1856   8.456   6.154   7.820 -0.3007  0.5441 -0.2766
32391SOL     OW 1857  11.650   2.793   8.757 -0.4031 -0.1994  0.0296
32391SOL    HW1 1858  11.724   2.755   8.804 -2.1484 -4.5001 -0.1565
32391SOL    HW2 1859  11.647   2.745   8.675 -3.1592  0.0033 -0.0884
32392SOL     OW 1860  10.951   8.895   7.261  0.1880 -0.5077  0.0515
32392SOL    HW1 1861  10.994   8.868   7.180  1.4101  0.1511  0.4481
32392SOL    HW2 1862  10.860   8.911   7.236  0.1924 -1.7770 -0.8527
32393SOL     OW 1863  11.769   5.763   3.312  0.6894 -0.3304 -0.6166
32393SOL    HW1 1864  11.825   5.725   3.245  1.6058 -1.5527  0.7798
32393SOL    HW2 1865  11.696   5.803   3.263  1.8296 -0.2912 -2.3531
32394SOL     OW 1866   3.654   3.079  11.079 -0.2287 -0.1348 -0.0540
32394SOL    HW1 1867   3.617   3.092  11.166 -0.0584  0.0727 -0.0128
32394SOL    HW2 1868   3.748   3.090  11.091  0.1099 -2.7913  0.2678
32395SOL     OW 1869   4.119   5.128  10.914  0.0916  0.1449 -0.0537
32395SOL    HW1 1870   4.162   5.212  10.898  1.9182 -1.0166 -1.6213
32395SOL    HW2 1871   4.025   5.149  10.917  0.3375  1.9876 -2.3835
32396SOL     OW 1872   3.324   3.659   9.446 -0.1044 -0.2940 -0.0226
32396SOL    HW1 1873   3.324   3.606   9.366  1.0513 -0.5562  0.1485
32396SOL    HW2 1874   3.353   3.746   9.417  0.6171 -0.4709  0.1604
32397SOL     OW 1875   8.781   3.103  10.792 -0.8577  0.2100  0.1579
32397SOL    HW1 1876   8.852   3.110  10.856 -0.7718  0.2796  0.0549
32397SOL    HW2 1877   8.822   3.122  10.708 -0.4917 -1.9656 -0.2233
32398SOL     OW 1878   1.383  11.262  11.310  0.4207 -0.1347  0.1410
32398SOL    HW1 1879   1.367  11.338  11.255 -2.0418 -0.5489  0.1558
32398SOL    HW2 1880   1.403  11.191  11.248  0.8147  0.0967  0.0023
32399SOL     OW 1881   5.929  10.784   5.197  0.6263  0.5712 -0.4916
32399SOL    HW1 1882   5.958  10.718   5.260  1.1614  1.8637  0.6802
32399SOL    HW2 1883   5.848  10.749   5.161  0.0869 -0.0285  1.2288
32400SOL     OW 1884   5.953   9.980   9.421  0.0818  0.6970 -0.2079
32400SOL    HW1 1885   5.984   9.892   9.396 -0.8040  0.5603 -0.8498
32400SOL    HW2 1886   5.908  10.013   9.344 -0.6281  1.2434  0.4255
32401SOL     OW 1887   9.720  11.822   9.236  0.0346  0.4009  0.6122
32401SOL    HW1 1888   9.789  11.889   9.231  0.7667 -0.3705  0.1816
32401SOL    HW2 1889   9.656  11.850   9.171 -0.6544  1.7588  1.8197
32402SOL     OW 1890   7.719   4.275  10.550 -0.3467 -0.0258  0.0723
32402SOL    HW1 1891   7.676   4.201  10.593 -1.5813  0.1011 -0.9206
32402SOL    HW2 1892   7.669   4.352  10.577 -0.9838  0.0889 -1.3358
32403SOL     OW 1893   9.259   2.953   5.576 -0.0709 -0.0528  0.1830
32403SOL    HW1 1894   9.248   2.884   5.641  0.3040 -0.9975 -0.7189
32403SOL    HW2 1895   9.191   3.017   5.596  0.3766 -0.0365  1.8277
32404SOL     OW 1896  11.826   7.316   4.649 -0.0747  0.0144 -0.0943
32404SOL    HW1 1897  11.839   7.227   4.618  0.1591 -0.3714  1.0477
32404SOL    HW2 1898  11.915   7.350   4.664 -0.1831 -0.4445  1.8107
32405SOL     OW 1899   9.402  11.057   4.253 -0.1774 -0.6291 -0.4312
32405SOL    HW1 1900   9.350  11.084   4.329  0.8831  1.0145 -0.2375
32405SOL    HW2 1901   9.408  10.961   4.261 -0.1386 -0.5130  1.5559
32406SOL     OW 1902   8.804   6.631   9.106  0.1660  0.1478 -0.4089
32406SOL    HW1 1903   8.894   6.645   9.134 -0.1672 -0.6420  1.1306
32406SOL    HW2 1904   8.756   6.707   9.140 -0.1783 -0.6494  0.9474
32407SOL     OW 1905   1.771   5.264   0.000  0.4868  0.1242 -0.1625
32407SOL    HW1 1906   1.844   5.247  -0.060  0.3547  0.2685 -0.3642
32407SOL    HW2 1907   1.769   5.187   0.057 -0.0832 -0.5459 -1.0575
32408SOL     OW 1908   2.555  11.095  10.295 -0.6182 -0.3226  0.1422
32408SOL    HW1 1909   2.539  11.156  10.367 -0.2558 -0.8434  0.6621
32408SOL    HW2 1910   2.479  11.037  10.296 -0.2376 -0.8186  0.6056
32409SOL     OW 1911   5.543   2.597  11.748  0.0397  0.1761 -0.3216
32409SOL    HW1 1912   5.583   2.675  11.788 -0.1208 -0.3446  0.8887
32409SOL    HW2 1913   5.598   2.524  11.778  0.4778 -0.1636 -1.8315
32410SOL     OW 1914   8.804   9.883   8.473 -0.4119  0.0460 -0.4937
32410SOL    HW1 1915   8.777   9.791   8.470 -0.5561  0.1134 -1.9773
32410SOL    HW2 1916   8.898   9.881   8.454 -0.6298  0.2676 -1.6697
32411SOL     OW 1917   0.490  10.571  11.757 -0.2612  0.0806  0.2705
32411SOL    HW1 1918   0.533  10.497  11.714  1.1170  0.1062  1.5169
32411SOL    HW2 1919   0.559  10.637  11.765 -1.0581  0.9026  0.5980
32412SOL     OW 1920   7.367   6.933   9.546 -0.1790  0.2463  0.0398
32412SOL    HW1 1921   7.328   6.850   9.518  3.2466 -1.1337 -1.2097
32412SOL    HW2 1922   7.375   6.984   9.465  0.2198  0.6614  0.3389
32413SOL     OW 1923   7.153   4.268   1.765 -0.0169 -0.3118  0.3951
32413SOL    HW1 1924   7.220   4.278   1.697  1.0811  0.5348  1.5535
32413SOL    HW2 1925   7.072   4.299   1.724  0.7700  0.9004 -0.3058
32414SOL     OW 1926   6.540   0.926   7.430  0.2125 -0.8860  0.4165
32414SOL    HW1 1927   6.466   0.876   7.396 -0.6112  0.0727  0.7288
32414SOL    HW2 1928   6.520   0.937   7.523  0.0540  0.5095  0.2407
32415SOL     OW 1929   0.628   8.142   2.081 -0.3001 -0.1659  0.1137
32415SOL    HW1 1930   0.624   8.237   2.077  2.4167  0.1382  1.8964
32415SOL    HW2 1931   0.550   8.117   2.131  0.2373  1.3952  1.8543
32416SOL     OW 1932   0.300   8.296   9.859 -0.3030  0.4116  0.2012
32416SOL    HW1 1933   0.378   8.248   9.886 -0.0621  1.7082  1.9547
32416SOL    HW2 1934   0.247   8.231   9.813  1.5902 -0.5954 -0.6671
32417SOL     OW 1935   1.390   9.930   5.320  0.1562 -0.1733 -0.0503
32417SOL    HW1 1936   1.472   9.883   5.302  0.6311  0.7827 -0.4816
32417SOL    HW2 1937   1.326   9.890   5.261 -0.0149 -1.7566  1.1492
32418SOL     OW 1938   6.178   5.130   8.479 -0.1230 -0.2224 -0.7269
32418SOL    HW1 1939   6.128   5.176   8.547 -0.4578 -1.6118 -0.0083
32418SOL    HW2 1940   6.183   5.040   8.509  1.4441 -0.4594 -1.5924
32419SOL     OW 1941   7.281  11.384  10.360  0.5455 -0.5464  0.6847
32419SOL    HW1 1942   7.265  11.419  10.447  1.5891 -0.2512  0.7705
32419SOL    HW2 1943   7.194  11.361  10.327  0.0279  0.3595  1.3717
32420SOL     OW 1944   8.085   0.914   6.395  0.0922  0.2403 -0.0898
32420SOL    HW1 1945   8.155   0.855   6.367  0.4359  0.7237 -0.2683
32420SOL    HW2 1946   8.096   0.991   6.339 -0.3785  0.4520  0.1078
32421SOL     OW 1947   8.469   8.050   2.581 -0.0270 -0.1733  0.0324
32421SOL    HW1 1948   8.448   8.095   2.499  2.4327  0.3003 -0.4112
32421SOL    HW2 1949   8.493   7.961   2.554  1.8542  0.2886  0.0404
32422SOL     OW 1950   8.690  10.536   5.502  0.7926  0.5573  0.6755
32422SOL    HW1 1951   8.619  10.509   5.444  2.3979 -0.1542 -1.0428
32422SOL    HW2 1952   8.667  10.625   5.528 -1.5092 -0.1934  1.4992
32423SOL     OW 1953   0.560  10.388   4.374  0.1219 -0.1767 -0.2744
32423SOL    HW1 1954   0.624  10.341   4.321 -1.0799 -0.3054 -1.6617
32423SOL    HW2 1955   0.481  10.334   4.371 -0.4200  0.5369  0.4638
32424SOL     OW 1956   7.176   1.353  11.176  0.4528  0.4397  0.2869
32424SOL    HW1 1957   7.088   1.384  11.193  0.3994  0.1597  0.5302
32424SOL    HW2 1958   7.222   1.428  11.139  0.4305  0.9224  1.2023
32425SOL     OW 1959   1.249   0.082  10.162 -0.3759 -0.3549  0.1510
32425SOL    HW1 1960   1.228   0.108  10.073  1.3724 -1.5407 -0.6559
32425SOL    HW2 1961   1.183   0.017  10.185 -0.2151 -0.8239 -0.6922
32426SOL     OW 1962  11.697   9.818   4.683  0.0501 -0.6801 -0.1184
32426SOL    HW1 1963  11.636   9.787   4.750  0.9246 -1.9828  0.1144
32426SOL    HW2 1964  11.648   9.812   4.601 -0.0172 -2.1518  0.0008
32427SOL     OW 1965  10.902   2.451   7.645  0.1768 -0.1447 -0.1179
32427SOL    HW1 1966  10.925   2.523   7.704  0.3106 -0.8127  0.6680
32427SOL    HW2 1967  10.839   2.489   7.584  1.0598  0.9142 -0.3970
32428SOL     OW 1968   4.096   1.111   0.250 -0.1926  0.4623 -0.1400
32428SOL    HW1 1969   4.070   1.021   0.273  0.2432  0.5261  0.6730
32428SOL    HW2 1970   4.175   1.126   0.303 -2.0428  2.4752  2.2862
32429SOL     OW 1971   0.854   3.499   9.441 -0.3886 -0.4438  0.7518
32429SOL    HW1 1972   0.783   3.474   9.382 -0.1945  0.3443  0.1686
32429SOL    HW2 1973   0.859   3.427   9.505 -0.3857 -1.4716 -0.3751
32430SOL     OW 1974   2.538  10.145   6.645 -0.1213  0.0805 -0.2718
32430SOL    HW1 1975   2.467  10.199   6.610  0.5008  0.5470 -0.8443
32430SOL    HW2 1976   2.565  10.191   6.724  0.0267  0.3090 -0.4512
32431SOL     OW 1977   1.922   4.236  10.682 -0.7142 -0.3087 -0.0802
32431SOL    HW1 1978   1.891   4.322  10.652 -0.3414  0.8091  2.4596
32431SOL    HW2 1979   1.843   4.182  10.682 -1.7612  1.0993  1.6459
32432SOL     OW 1980   1.021   8.328   3.827  0.0756 -0.0429  0.2092
32432SOL    HW1 1981   0.991   8.282   3.905 -0.1703  1.2084  0.8763
32432SOL    HW2 1982   0.978   8.414   3.832  0.3437  0.1840 -1.1102
32433SOL     OW 1983  10.416   7.791   2.578 -0.4128  0.4226 -0.1872
32433SOL    HW1 1984  10.461   7.851   2.637 -0.2891  1.0992 -0.9480
32433SOL    HW2 1985  10.330   7.832   2.563 -0.9957 -0.4588  0.6242
32434SOL     OW 1986   3.031   0.573   4.023 -0.3385 -0.0145  0.2291
32434SOL    HW1 1987   3.121   0.572   3.992 -0.5529  0.4439 -0.4400
32434SOL    HW2 1988   3.036   0.543   4.114  0.2980 -1.4088 -0.2542
32435SOL     OW 1989   8.722   7.092   7.754  0.4001 -0.1993 -0.6236
32435SOL    HW1 1990   8.812   7.120   7.766  0.2697 -0.4532  1.1343
32435SOL    HW2 1991   8.719   7.002   7.786 -0.9295  0.5548  1.6374
32436SOL     OW 1992   4.010   7.815   0.418  0.1830  0.1330 -0.4882
32436SOL    HW1 1993   3.940   7.762   0.381 -1.4514  1.4560  0.5654
32436SOL    HW2 1994   3.969   7.861   0.492  2.6054 -0.3782  1.3179
32437SOL     OW 1995   7.678   6.235  11.532 -0.3708  0.2874 -0.0917
32437SOL    HW1 1996   7.670   6.147  11.568 -1.4356 -0.2946 -1.6204
32437SOL    HW2 1997   7.756   6.231  11.477  0.0066  0.5280  0.4209
32438SOL     OW 1998   8.958   2.128  11.320 -0.2323  0.1711 -0.3384
32438SOL    HW1 1999   9.009   2.142  11.399 -0.0807  1.5021 -0.6557
32438SOL    HW2 2000   8.895   2.059  11.344  1.7249 -1.5988  0.0230
32439SOL     OW 2001   8.843   6.837   7.322  0.1738  0.0838 -0.5723
32439SOL    HW1 2002   8.844   6.817   7.229  0.4213  3.9960 -1.5620
32439SOL    HW2 2003   8.934   6.824   7.351  0.6783  1.2584 -1.5444
32440SOL     OW 2004  11.814   2.372   7.604 -0.1376 -0.4386 -0.1949
32440SOL    HW1 2005  11.730   2.383   7.558 -0.2736  1.1180  0.3695
32440SOL    HW2 2006  11.880   2.394   7.538 -0.2663  0.1933 -0.1218
32441SOL     OW 2007   5.622   2.085   2.677  0.5062 -0.3212  0.4793
32441SOL    HW1 2008   5.546   2.136   2.706  1.1834 -0.3675  2.4895
32441SOL    HW2 2009   5.585   2.001   2.648 -0.3696  0.3759 -0.4878
32442SOL     OW 2010  11.037  10.120   2.491  0.5096  0.9662 -0.1670
32442SOL    HW1 2011  11.056  10.125   2.584  1.5441 -2.0456 -0.1123
32442SOL    HW2 2012  11.110  10.070   2.454 -1.4804 -0.7676 -2.0026
32443SOL     OW 2013   2.094   5.897   0.822 -0.6271 -0.4037  0.6147
32443SOL    HW1 2014   2.022   5.900   0.759 -0.7421 -1.3968  0.6810
32443SOL    HW2 2015   2.115   5.804   0.830  1.0549 -0.0949  0.1712
32444SOL     OW 2016   0.504   6.111   5.058  0.6014 -0.4275 -0.0401
32444SOL    HW1 2017   0.479   6.203   5.061  0.0892 -0.5808  0.8333
32444SOL    HW2 2018   0.483   6.083   4.969  0.5449  0.2419 -0.2375
32445SOL     OW 2019   6.900   4.522   4.698 -0.0539 -0.0408  0.3487
32445SOL    HW1 2020   6.833   4.555   4.758 -0.0897 -0.6226  0.6333
32445SOL    HW2 2021   6.895   4.580   4.622 -1.1338 -0.3086  0.1982
32446SOL     OW 2022  10.328   7.321   3.535  0.0951  0.4373 -0.5420
32446SOL    HW1 2023  10.330   7.366   3.619 -0.9478  0.9561 -0.7782
32446SOL    HW2 2024  10.420   7.301   3.516  0.5335  1.9064 -0.1245
32447SOL     OW 2025   3.637   5.949   9.108  0.6989  0.1200  0.2457
32447SOL    HW1 2026   3.613   6.033   9.146 -1.1582 -0.2330 -0.0285
32447SOL    HW2 2027   3.613   5.885   9.175  3.6562 -0.1767  1.1673
32448SOL     OW 2028   9.764   4.541  10.095 -0.2180 -0.3408 -0.3161
32448SOL    HW1 2029   9.847   4.576  10.063 -0.2136  0.5782  0.6590
32448SOL    HW2 2030   9.728   4.610  10.150 -1.1482 -1.1245  0.0933
32449SOL     OW 2031   1.955   8.217   5.074 -0.5068 -0.5290  0.3834
32449SOL    HW1 2032   1.914   8.262   5.000 -0.6042 -0.8194  0.2554
32449SOL    HW2 2033   2.041   8.191   5.041 -0.8826 -1.4280  0.0695
32450SOL     OW 2034   1.650   8.568   9.495  0.5206  0.2073  0.0132
32450SOL    HW1 2035   1.643   8.555   9.401  0.8836  0.2945 -0.0258
32450SOL    HW2 2036   1.562   8.593   9.522  0.2911 -0.3440 -0.2159
32451SOL     OW 2037   3.916   8.771   2.572 -0.2809 -0.3820 -0.1558
32451SOL    HW1 2038   3.979   8.843   2.561  0.8730 -0.5453  3.8122
32451SOL    HW2 2039   3.833   8.815   2.591 -0.1279 -0.1223 -0.0778
32452SOL     OW 2040   3.962   6.100  10.376 -0.6592 -0.3894  0.0542
32452SOL    HW1 2041   3.998   6.058  10.454 -1.3910 -0.1561  0.5231
32452SOL    HW2 2042   3.887   6.045  10.352  0.2849 -1.1790 -1.2242
32453SOL     OW 2043   2.657  11.791   8.008 -0.2272  0.0699  0.2638
32453SOL    HW1 2044   2.698  11.704   8.003 -1.1359 -0.3009 -1.8303
32453SOL    HW2 2045   2.726  11.851   7.981 -0.8663 -0.5535 -3.2612
32454SOL     OW 2046  11.563   9.704   2.783 -0.0092 -0.3771 -0.1601
32454SOL    HW1 2047  11.494   9.677   2.721 -0.5067 -1.6225  0.8793
32454SOL    HW2 2048  11.553   9.798   2.791 -0.1291 -0.2224 -1.7307
32455SOL     OW 2049   9.986   8.916   2.776  0.0544 -0.5329 -0.1002
32455SOL    HW1 2050  10.063   8.918   2.720 -0.0096  0.3826 -0.1638
32455SOL    HW2 2051   9.915   8.951   2.721 -0.0580  0.1455  0.4626
32456SOL     OW 2052   4.387  10.371   7.686  0.4223 -0.4211  0.0145
32456SOL    HW1 2053   4.435  10.400   7.763 -1.5248  0.5109  0.9721
32456SOL    HW2 2054   4.308  10.330   7.721 -1.8229  2.3005 -1.3610
32457SOL     OW 2055  11.207   6.245   8.306 -0.4944  0.2182 -0.0077
32457SOL    HW1 2056  11.298   6.258   8.332 -0.5907  2.1419 -0.4854
32457SOL    HW2 2057  11.156   6.278   8.379 -0.8284 -0.7651  0.2173
32458SOL     OW 2058   7.126   3.543   4.601  0.3234  0.0223 -0.2032
32458SOL    HW1 2059   7.173   3.525   4.520  1.3246 -1.5669  0.6754
32458SOL    HW2 2060   7.193   3.574   4.662 -0.1831 -0.0379  0.4018
32459SOL     OW 2061   3.272  11.016   4.678 -0.1756  0.0785 -0.1705
32459SOL    HW1 2062   3.303  10.951   4.614  0.5316  1.5722 -1.3995
32459SOL    HW2 2063   3.189  10.981   4.710 -0.4362 -0.8153 -1.7430
32460SOL     OW 2064   7.690   7.593   9.570 -0.1732 -0.0329  0.4526
32460SOL    HW1 2065   7.730   7.513   9.604  1.4692  1.1573  1.4546
32460SOL    HW2 2066   7.596   7.579   9.579  0.1027 -1.5961  1.1675
32461SOL     OW 2067  11.944   9.567  10.099  0.0809  0.1702 -0.0375
32461SOL    HW1 2068  12.002   9.497  10.070  1.5536 -0.3375  3.5898
32461SOL    HW2 2069  12.002   9.632  10.139 -1.5521  1.6220  0.1099
32462SOL     OW 2070  10.862   1.268   5.414  0.7183  0.2781  0.5214
32462SOL    HW1 2071  10.915   1.296   5.339 -1.7251  2.2680 -0.6082
32462SOL    HW2 2072  10.819   1.188   5.383  0.4426  0.5700  0.1343
32463SOL     OW 2073   0.871   1.827  11.964  0.1650 -0.2023 -0.5234
32463SOL    HW1 2074   0.855   1.918  11.940 -1.0491 -1.1041 -3.5074
32463SOL    HW2 2075   0.787   1.797  12.001  0.2583 -0.3733 -0.4479
32464SOL     OW 2076   9.546   6.705   7.769 -0.0385  0.2699  0.2548
32464SOL    HW1 2077   9.468   6.733   7.818 -0.1314 -1.9240  1.5251
32464SOL    HW2 2078   9.616   6.759   7.803 -0.5336  0.3588  1.1832
32465SOL     OW 2079   3.292   4.707  10.320  0.0746  0.1355  0.1997
32465SOL    HW1 2080   3.364   4.692  10.259 -0.1664 -1.3131  0.2322
32465SOL    HW2 2081   3.214   4.711  10.264 -0.0399 -0.2515  0.3319
32466SOL     OW 2082   0.164   1.753  11.805 -0.0882 -0.1275 -0.4130
32466SOL    HW1 2083   0.095   1.691  11.830  0.2974 -0.7487 -0.8637
32466SOL    HW2 2084   0.238   1.731  11.862 -0.0120  0.0444 -0.4449
32467SOL     OW 2085  10.843  11.141   6.436  0.1207  0.2793  0.7819
32467SOL    HW1 2086  10.756  11.110   6.459 -0.2498  0.7510  0.0647
32467SOL    HW2 2087  10.832  11.183   6.350  1.5313 -1.8661 -0.5673
32468SOL     OW 2088   0.051   2.396   0.627  0.5773  0.0374  0.2838
32468SOL    HW1 2089   0.066   2.319   0.683  1.1074 -0.0393  0.0427
32468SOL    HW2 2090  -0.025   2.372   0.574  0.0387  0.1255  0.9947
32469SOL     OW 2091   8.896   0.630  11.364  0.3429 -0.6396  0.3358
32469SOL    HW1 2092   8.848   0.659  11.287  0.6458 -0.8735  0.0577
32469SOL    HW2 2093   8.928   0.543  11.341  0.0851 -0.8851  0.8804
32470SOL     OW 2094   1.294  11.166   6.064  0.2665  0.5584 -0.5143
32470SOL    HW1 2095   1.251  11.168   6.149  0.0683 -1.3976 -0.5149
32470SOL    HW2 2096   1.222  11.171   6.000  0.0260 -1.6772 -0.5129
32471SOL     OW 2097   9.435  10.927   5.135 -1.1046  0.2383  0.3096
32471SOL    HW1 2098   9.397  10.960   5.053 -1.0241  0.4836  0.3708
32471SOL    HW2 2099   9.389  10.974   5.204 -0.3083  0.9580  0.3704
32472SOL     OW 2100  10.595   3.938  11.934 -0.2802 -0.0935 -0.1601
32472SOL    HW1 2101  10.650   3.959  11.859  0.5851 -0.7171  0.2777
32472SOL    HW2 2102  10.536   3.869  11.901  0.1038 -0.3753 -0.2620
32473SOL     OW 2103  10.701   3.569  10.091  0.0527 -0.2484 -0.1979
32473SOL    HW1 2104  10.698   3.481  10.053 -0.4200 -0.8783  1.2343
32473SOL    HW2 2105  10.647   3.564  10.170  0.9359  1.0096  0.5452
32474SOL     OW 2106   8.708   5.656  11.186 -0.1229  0.7340 -0.5401
32474SOL    HW1 2107   8.668   5.598  11.122 -1.5991  1.0035  0.1009
32474SOL    HW2 2108   8.802   5.651  11.168 -0.0830 -2.5362  0.0788
32475SOL     OW 2109   4.335   2.879   0.960 -0.0269  0.3130 -0.4346
32475SOL    HW1 2110   4.250   2.880   0.916 -0.5810  2.5753  0.5194
32475SOL    HW2 2111   4.317   2.842   1.046 -0.2245  1.4154  0.0148
32476SOL     OW 2112   8.316   4.176   6.814  0.3123  0.6011  0.1647
32476SOL    HW1 2113   8.236   4.219   6.844 -0.6747  0.6943 -2.3681
32476SOL    HW2 2114   8.287   4.092   6.778  0.9775  1.4051 -2.4763
32477SOL     OW 2115   7.775   8.224   8.480  0.2933  0.0555  0.6317
32477SOL    HW1 2116   7.710   8.186   8.420  0.6766  0.2420  0.0886
32477SOL    HW2 2117   7.727   8.238   8.562  0.1198 -1.5070  0.8271
32478SOL     OW 2118   6.267   3.084   3.683 -0.7172  0.3863  0.4952
32478SOL    HW1 2119   6.253   3.117   3.771  1.7802  2.1567  0.3362
32478SOL    HW2 2120   6.204   3.131   3.629  0.0325  1.8875  0.8855
32479SOL     OW 2121   6.599   3.430   3.245 -0.5464 -0.3729 -0.3868
32479SOL    HW1 2122   6.636   3.367   3.184  0.0010  0.2901 -0.7463
32479SOL    HW2 2123   6.537   3.480   3.193  0.8266  1.0197 -0.7308
32480SOL     OW 2124   7.099  11.180   8.783  0.4440 -0.2178 -0.6497
32480SOL    HW1 2125   7.013  11.143   8.767  0.1610  0.0159  0.2899
32480SOL    HW2 2126   7.160  11.108   8.765 -0.1423 -1.5215  2.0990
32481SOL     OW 2127  11.196   8.351   2.641 -0.2429  0.2527 -0.5469
32481SOL    HW1 2128  11.193   8.440   2.678  0.5999  0.3868 -0.7913
32481SOL    HW2 2129  11.117   8.346   2.587  0.6306  1.5141 -2.0172
32482SOL     OW 2130   5.087  11.115   9.284  0.0809 -0.5296 -0.5138
32482SOL    HW1 2131   5.068  11.032   9.329  0.0815 -0.6625 -0.7576
32482SOL    HW2 2132   5.002  11.160   9.282  0.7019  1.1564  2.9383
32483SOL     OW 2133   6.724   9.938   0.861 -0.4181 -0.1833 -0.4226
32483SOL    HW1 2134   6.752  10.007   0.922 -0.2084 -1.0871  0.5334
32483SOL    HW2 2135   6.798   9.877   0.860 -1.4358 -1.4559  0.3689
32484SOL     OW 2136  11.373   8.523   7.727  0.2872 -0.0884  0.0972
32484SOL    HW1 2137  11.319   8.601   7.711 -1.5863 -1.3348  0.0268
32484SOL    HW2 2138  11.355   8.501   7.819  0.2132 -0.8706 -0.1029
32485SOL     OW 2139   1.897   4.178   2.581  0.3641 -0.2535 -0.2511
32485SOL    HW1 2140   1.862   4.262   2.610  2.0160  0.4932 -0.3182
32485SOL    HW2 2141   1.953   4.149   2.653 -0.4129 -1.4717 -0.0939
32486SOL     OW 2142   1.272   1.311   9.542  0.5303  0.1315 -0.1219
32486SOL    HW1 2143   1.211   1.280   9.475  1.1524  0.2119 -0.7469
32486SOL    HW2 2144   1.222   1.374   9.593 -0.6400 -1.5752  0.9239
32487SOL     OW 2145  10.164   7.462   8.173 -0.4940  0.4568  0.0627
32487SOL    HW1 2146  10.154   7.544   8.223 -1.5985  1.6672 -2.0291
32487SOL    HW2 2147  10.224   7.485   8.102 -1.0358 -0.4662 -0.7107
32488SOL     OW 2148   2.627  10.772   0.967 -0.3922 -0.2368 -0.2063
32488SOL    HW1 2149   2.648  10.851   1.018  0.7583 -0.2241 -0.6749
32488SOL    HW2 2150   2.649  10.795   0.877  1.9954 -1.7384 -0.0885
32489SOL     OW 2151   8.147   1.322   9.279  0.4277 -0.3221  0.2403
32489SOL    HW1 2152   8.066   1.296   9.236  0.1372 -1.5184  1.4516
32489SOL    HW2 2153   8.170   1.405   9.238 -0.2540 -1.0097 -1.6239
32490SOL     OW 2154  10.751   1.065   8.082 -0.0972  0.2115 -0.2308
32490SOL    HW1 2155  10.711   0.992   8.035  0.9653 -0.3243 -0.3546
32490SOL    HW2 2156  10.679   1.124   8.101 -0.7805 -0.2560 -1.2567
32491SOL     OW 2157  10.049  11.761  11.786  0.0405 -0.2240  0.0578
32491SOL    HW1 2158  10.031  11.831  11.724 -1.1612  0.0969  0.7434
32491SOL    HW2 2159  10.143  11.745  11.778 -0.2364 -1.0516 -2.7297
32492SOL     OW 2160   9.083   1.467   6.958  0.3095 -0.1543  0.6360
32492SOL    HW1 2161   9.150   1.399   6.965  1.7615  1.3513  2.2929
32492SOL    HW2 2162   9.020   1.432   6.895  3.3873 -0.9938 -2.2396
32493SOL     OW 2163   2.811   7.126   0.378 -0.9473 -0.5080  1.2165
32493SOL    HW1 2164   2.764   7.045   0.396  2.1154 -3.0346 -1.0080
32493SOL    HW2 2165   2.885   7.124   0.438  0.0587 -0.2724  0.0270
32494SOL     OW 2166   3.100   1.641  10.227 -0.2914 -0.1813 -0.6591
32494SOL    HW1 2167   3.139   1.562  10.265 -0.7896  0.2979  0.9322
32494SOL    HW2 2168   3.011   1.644  10.263 -0.8206  0.2828 -1.9470
32495SOL     OW 2169   6.224   0.206   8.102 -0.3756 -0.2105  0.0428
32495SOL    HW1 2170   6.162   0.134   8.089 -3.0814  0.9668  4.2907
32495SOL    HW2 2171   6.244   0.203   8.196  2.2861  2.4300 -0.3028
32496SOL     OW 2172   7.204   3.251  11.384  0.4345  0.3244  0.0500
32496SOL    HW1 2173   7.252   3.202  11.317  1.1844  1.4326 -0.2460
32496SOL    HW2 2174   7.269   3.266  11.454  0.8356  2.5682 -0.7207
32497SOL     OW 2175   3.405  11.164   2.350 -0.4659  0.0234  0.5057
32497SOL    HW1 2176   3.467  11.096   2.325  0.7554  1.1674  0.3270
32497SOL    HW2 2177   3.438  11.198   2.433 -0.7786  0.7412  0.3450
32498SOL     OW 2178  11.013   2.927   2.486 -0.2293  0.7816 -0.1451
32498SOL    HW1 2179  10.931   2.909   2.440 -0.4770 -1.6165  1.0539
32498SOL    HW2 2180  11.079   2.877   2.437  0.1044  0.9260  0.1550
32499SOL     OW 2181   2.886   3.389   5.368  0.0110  0.3970  0.2061
32499SOL    HW1 2182   2.874   3.395   5.463 -0.8553 -2.1051  0.3356
32499SOL    HW2 2183   2.804   3.352   5.336  0.2309  1.3319 -1.5758
32500SOL     OW 2184   8.690   1.285   0.582  0.5844 -0.0790 -0.2624
32500SOL    HW1 2185   8.739   1.329   0.652 -1.6311  0.4915  1.0361
32500SOL    HW2 2186   8.734   1.312   0.501  0.1868  3.4950  0.5598
32501SOL     OW 2187   0.520   8.918   4.869 -0.0254 -0.0974 -0.1490
32501SOL    HW1 2188   0.481   8.911   4.956  0.3989  1.8398  0.2499
32501SOL    HW2 2189   0.449   8.949   4.813  0.3013  1.1501  0.0858
32502SOL     OW 2190   6.072  11.197   4.979 -0.7154 -0.4457  0.0554
32502SOL    HW1 2191   6.112  11.110   4.979 -0.3827 -0.2950 -0.1246
32502SOL    HW2 2192   5.995  11.187   5.034 -0.8200 -0.9177 -0.1663
32503SOL     OW 2193   2.286   6.711   2.366  0.0805 -0.0798  0.2868
32503SOL    HW1 2194   2.286   6.768   2.443 -1.2562  0.2981  0.0387
32503SOL    HW2 2195   2.258   6.626   2.400 -2.3095  0.5114 -0.0044
32504SOL     OW 2196   6.489   3.269   5.997  0.5286  0.2317 -0.0111
32504SOL    HW1 2197   6.530   3.213   6.062  0.1656 -0.1336 -0.0942
32504SOL    HW2 2198   6.552   3.274   5.925 -0.5617 -2.4040 -1.2847
32505SOL     OW 2199   3.523  11.835   5.862  0.3369  0.3165 -0.1791
32505SOL    HW1 2200   3.607  11.790   5.852  0.5575  0.5053  0.6777
32505SOL    HW2 2201   3.511  11.842   5.957 -0.7346  0.1386 -0.2884
32506SOL     OW 2202  11.230  11.039  11.005 -0.1831 -0.4259 -0.0916
32506SOL    HW1 2203  11.295  11.093  10.959 -0.7573 -0.4738 -0.9848
32506SOL    HW2 2204  11.206  11.091  11.082  0.5569 -0.1941 -0.0095
32507SOL     OW 2205   6.753   2.558   9.799  0.1253 -0.4178  0.8769
32507SOL    HW1 2206   6.754   2.654   9.798  1.2022 -0.4263  0.4327
32507SOL    HW2 2207   6.839   2.533   9.833 -1.1306 -1.2201  3.8263
32508SOL     OW 2208  10.929  11.481   1.117 -0.2396 -0.1332 -0.0714
32508SOL    HW1 2209  11.019  11.453   1.100 -0.3231 -0.1540 -0.4886
32508SOL    HW2 2210  10.926  11.570   1.083  0.2757  0.7530  2.0340
32509SOL     OW 2211   3.709   9.285   2.476  0.4774  0.2889 -0.5503
32509SOL    HW1 2212   3.785   9.265   2.529  1.1134  0.4283 -1.3881
32509SOL    HW2 2213   3.653   9.338   2.533 -0.3697 -2.1626  1.0693
32510SOL     OW 2214  10.411  11.811   6.315 -0.2829  1.1963 -0.9839
32510SOL    HW1 2215  10.499  11.795   6.348  0.4184  2.5271 -2.1088
32510SOL    HW2 2216  10.371  11.724   6.308  0.3383  0.7017  1.0850
32511SOL     OW 2217  11.259   0.330   8.398  0.5219 -0.4599  0.4652
32511SOL    HW1 2218  11.332   0.377   8.358 -2.0191  2.2546 -1.4223
32511SOL    HW2 2219  11.245   0.375   8.482 -0.1651  0.3558 -0.0729
32512SOL     OW 2220   6.654  10.822  10.667  0.3634  0.0732 -0.0574
32512SOL    HW1 2221   6.582  10.762  10.688 -1.8638  2.8464  0.8356
32512SOL    HW2 2222   6.645  10.838  10.573  0.5610 -0.4404 -0.1694
32513SOL     OW 2223   4.413   6.541   3.829 -0.5890 -0.5676  0.1730
32513SOL    HW1 2224   4.505   6.544   3.803 -0.6001  0.2381  0.1890
32513SOL    HW2 2225   4.370   6.494   3.757 -0.5025  1.0158 -0.9659
32514SOL     OW 2226   1.664  10.161   4.647 -0.1942  0.0866 -0.0958
32514SOL    HW1 2227   1.730  10.129   4.585 -1.0553  1.1215 -1.6353
32514SOL    HW2 2228   1.613  10.084   4.669  1.1649 -0.6222  0.6861
32515SOL     OW 2229   2.190   6.613   5.575  0.6685  0.1590  0.1246
32515SOL    HW1 2230   2.237   6.605   5.658  1.0472 -0.9619 -0.1760
32515SOL    HW2 2231   2.118   6.551   5.583  1.4936 -0.9828 -0.8817
32516SOL     OW 2232   0.966   7.645  11.743  0.1106  0.1324 -0.5286
32516SOL    HW1 2233   1.052   7.610  11.763  0.0661 -0.7734 -1.7868
32516SOL    HW2 2234   0.966   7.733  11.781  2.0101  0.5994 -1.4977
32517SOL     OW 2235   7.776   4.185   9.968  0.4486 -0.0955  0.5338
32517SOL    HW1 2236   7.725   4.112  10.005 -0.4701 -0.3906 -1.2154
32517SOL    HW2 2237   7.744   4.262  10.015 -0.7072 -0.4477  0.3762
32518SOL     OW 2238   7.683   1.791   8.029 -0.0602  0.5929  0.2924
32518SOL    HW1 2239   7.741   1.863   8.005  0.4414  0.3209  0.6666
32518SOL    HW2 2240   7.693   1.782   8.124 -0.5952  0.4349  0.3413
32519SOL     OW 2241   7.329   2.845   7.558 -0.2665  0.6472  0.3401
32519SOL    HW1 2242   7.366   2.764   7.593  1.5188  1.1008 -0.3879
32519SOL    HW2 2243   7.235   2.835   7.568 -0.1185 -1.6995 -0.0877
32520SOL     OW 2244   1.841   3.163   4.305  0.4145 -0.4960  0.2159
32520SOL    HW1 2245   1.859   3.205   4.221  1.9233  1.1052  1.2677
32520SOL    HW2 2246   1.818   3.234   4.364 -0.3192 -1.5551  1.2579
32521SOL     OW 2247   1.884   7.098   6.864  0.5490  0.2430  0.1933
32521SOL    HW1 2248   1.884   7.108   6.959  2.6429  0.0174  0.2591
32521SOL    HW2 2249   1.883   7.004   6.850 -3.3417  0.1814 -0.1526
32522SOL     OW 2250   0.758   7.770   3.964 -0.4780 -0.3416  0.0077
32522SOL    HW1 2251   0.759   7.789   4.058  0.3964  0.0731 -0.0765
32522SOL    HW2 2252   0.686   7.823   3.930 -1.1623 -0.9185  0.5174
32523SOL     OW 2253   4.782   9.303   1.825  0.1980 -0.2046  0.1685
32523SOL    HW1 2254   4.823   9.376   1.779  1.1274 -0.8181 -0.0143
32523SOL    HW2 2255   4.854   9.244   1.846 -0.6194 -1.5398 -0.5539
32524SOL     OW 2256   0.557   8.291  11.372 -0.4411  0.4099 -0.2156
32524SOL    HW1 2257   0.511   8.362  11.327 -1.7425 -0.6991 -0.7252
32524SOL    HW2 2258   0.518   8.288  11.459  0.3893  1.0113  0.1876
32525SOL     OW 2259   0.921  11.121   3.951 -0.2475 -0.2749 -0.2572
32525SOL    HW1 2260   0.934  11.206   3.909 -0.5524 -0.4550 -0.7177
32525SOL    HW2 2261   0.842  11.132   4.003 -0.0052 -0.1282  0.0891
32526SOL     OW 2262   9.513   4.538   4.642 -0.2634  0.5680  0.8316
32526SOL    HW1 2263   9.421   4.562   4.633 -0.3577 -0.2008 -0.6909
32526SOL    HW2 2264   9.514   4.469   4.708 -1.0293 -0.4996 -0.2181
32527SOL     OW 2265   6.752   3.521  11.649  0.2165  0.4471  0.0345
32527SOL    HW1 2266   6.744   3.450  11.585  0.4765  0.6045 -0.1751
32527SOL    HW2 2267   6.724   3.600  11.601 -0.1809  0.4675  0.3018
32528SOL     OW 2268   6.375   0.906   4.436  0.4494  0.2371 -0.0099
32528SOL    HW1 2269   6.314   0.971   4.402 -0.7738 -1.6616 -1.6369
32528SOL    HW2 2270   6.408   0.860   4.359  2.1052 -0.4124  1.0148
32529SOL     OW 2271   4.332   3.148   6.297 -0.5984 -0.1809 -0.4350
32529SOL    HW1 2272   4.269   3.213   6.265  1.4863  1.8451 -0.6941
32529SOL    HW2 2273   4.418   3.190   6.285  0.7048 -2.0452  1.6472
32530SOL     OW 2274   4.382   5.626   2.501 -0.1603  0.5659  0.6146
32530SOL    HW1 2275   4.436   5.586   2.433  0.4851  2.3167  0.0315
32530SOL    HW2 2276   4.439   5.631   2.578 -0.3366  0.1224  0.7776
32531SOL     OW 2277   0.249   7.239  11.342 -0.0750  0.3130 -0.4398
32531SOL    HW1 2278   0.176   7.177  11.346  2.1324 -2.5812 -1.2500
32531SOL    HW2 2279   0.256   7.273  11.431 -1.0429 -1.0720  0.2028
32532SOL     OW 2280   3.392   0.336   2.163 -0.7541  0.1503  0.3651
32532SOL    HW1 2281   3.426   0.346   2.252 -0.2356  1.9634  0.0039
32532SOL    HW2 2282   3.466   0.305   2.112 -0.5780  0.7506  0.2490
32533SOL     OW 2283   7.404   9.849   8.089  0.1280  0.0927 -0.3060
32533SOL    HW1 2284   7.488   9.843   8.135 -0.4671  0.9813  0.9533
32533SOL    HW2 2285   7.428   9.848   7.997  1.7364  2.5559 -0.0105
32534SOL     OW 2286  10.451   7.777   7.343 -0.1848 -0.3151  0.0115
32534SOL    HW1 2287  10.405   7.693   7.346  0.2696 -0.6601 -1.5797
32534SOL    HW2 2288  10.543   7.754   7.326  0.1170  0.4699  0.4970
32535SOL     OW 2289   5.032   8.125   0.758 -0.4824 -0.3720 -0.0238
32535SOL    HW1 2290   5.058   8.033   0.753  2.9947  0.3517  1.4385
32535SOL    HW2 2291   5.025   8.142   0.852 -0.3836  1.0281 -0.2554
32536SOL     OW 2292  11.056   3.795  10.422  0.1127  0.0516 -0.1502
32536SOL    HW1 2293  11.089   3.826  10.506 -0.1390  2.2324 -0.7819
32536SOL    HW2 2294  11.117   3.831  10.357 -0.9349  0.3361 -1.0225
32537SOL     OW 2295   7.971   5.465   0.224  0.2967  1.0773 -0.2965
32537SOL    HW1 2296   8.012   5.549   0.244  0.4140  0.8149  0.6110
32537SOL    HW2 2297   8.025   5.401   0.270 -0.3428  0.5995 -0.2027
32538SOL     OW 2298   3.932  10.180   5.652  0.5734 -0.2012 -0.5666
32538SOL    HW1 2299   3.907  10.162   5.561 -0.1766 -1.0849 -0.2035
32538SOL    HW2 2300   3.939  10.275   5.656  0.7511 -0.1569 -1.5820
32539SOL     OW 2301   0.501   3.985   6.288  0.1228 -0.3300 -0.3438
32539SOL    HW1 2302   0.507   3.898   6.327  2.7924 -0.5080 -0.9791
32539SOL    HW2 2303   0.590   4.019   6.290 -0.8712  2.5954  0.2440
32540SOL     OW 2304   6.333   8.125  11.229 -0.5264  0.3592 -0.1469
32540SOL    HW1 2305   6.347   8.174  11.310 -0.2321 -0.5759  0.3817
32540SOL    HW2 2306   6.298   8.041  11.258 -0.5717  0.0727 -1.0066
32541SOL     OW 2307   8.056   7.700  11.887 -0.5663  0.1492  0.6219
32541SOL    HW1 2308   8.090   7.651  11.962 -0.3027  1.0080  1.0719
32541SOL    HW2 2309   8.120   7.685  11.818 -0.5417 -0.2276  0.7245
32542SOL     OW 2310   1.830   0.947   2.135  0.0616  0.0274 -0.1108
32542SOL    HW1 2311   1.887   0.874   2.161 -0.7763 -0.3212  0.8278
32542SOL    HW2 2312   1.881   0.994   2.069  0.4682 -1.6402 -1.0724
32543SOL     OW 2313   7.194  11.353   2.311  0.4721  0.4726 -0.0500
32543SOL    HW1 2314   7.266  11.297   2.281 -0.8743 -1.1716 -0.3788
32543SOL    HW2 2315   7.162  11.310   2.390 -1.3394  0.0697 -0.9496
32544SOL     OW 2316   8.474   0.733   1.787 -0.5231 -0.1212 -0.5794
32544SOL    HW1 2317   8.385   0.768   1.787 -0.1673  0.8341 -1.2647
32544SOL    HW2 2318   8.528   0.804   1.753  0.8809  0.2028  2.0778
32545SOL     OW 2319   2.285   6.953   4.132  0.7463  0.1382 -0.7392
32545SOL    HW1 2320   2.197   6.915   4.129  0.4050  0.8498 -0.0294
32545SOL    HW2 2321   2.274   7.034   4.181  2.0913 -0.5639  0.7822
32546SOL     OW 2322   4.074   5.119   6.634  0.4697  0.2376 -0.1506
32546SOL    HW1 2323   4.048   5.180   6.565 -0.1443 -0.7109 -0.7744
32546SOL    HW2 2324   4.090   5.037   6.589 -1.1456 -0.7466  0.9470
32547SOL     OW 2325   0.547   8.209   5.498  0.0710  0.0897 -0.3748
32547SOL    HW1 2326   0.457   8.222   5.469  0.1758  0.9836 -0.3470
32547SOL    HW2 2327   0.579   8.136   5.446 -0.1774  0.7686 -1.5125
32548SOL     OW 2328   6.659   0.358   7.173 -0.0539  0.6253 -0.3412
32548SOL    HW1 2329   6.673   0.355   7.268  1.1292  2.1234 -0.4273
32548SOL    HW2 2330   6.688   0.272   7.142  2.1932  1.0479  0.3910
32549SOL     OW 2331   7.481   1.964  10.004 -0.2070 -0.0226  0.4211
32549SOL    HW1 2332   7.438   1.922  10.079  0.3285 -1.4627 -0.0426
32549SOL    HW2 2333   7.574   1.948  10.019 -0.0903 -0.1917 -0.4826
32550SOL     OW 2334   4.070   1.426   4.824 -0.1251 -0.2696  0.5253
32550SOL    HW1 2335   4.016   1.392   4.896 -0.9647  0.0533  0.0619
32550SOL    HW2 2336   4.008   1.445   4.754  0.7280 -0.9818 -0.4622
32551SOL     OW 2337   8.166   1.341  11.388  0.0833 -0.3067  0.0358
32551SOL    HW1 2338   8.149   1.426  11.429  0.7854  0.1355 -0.5595
32551SOL    HW2 2339   8.182   1.282  11.461  2.4619  0.7122  0.4439
32552SOL     OW 2340   1.188   8.161   4.553  0.3929 -0.0718 -0.4279
32552SOL    HW1 2341   1.136   8.205   4.620  0.8378 -0.5912  0.2752
32552SOL    HW2 2342   1.220   8.232   4.497 -0.5510  0.3068 -0.5096
32553SOL     OW 2343  11.921   2.429   8.005  0.2578 -0.2411  0.1152
32553SOL    HW1 2344  11.994   2.370   7.984  0.3422 -0.2316  0.3673
32553SOL    HW2 2345  11.926   2.498   7.940 -0.2241 -0.8386 -0.5711
32554SOL     OW 2346   6.543   7.548   0.828 -0.1468  0.0681  0.0402
32554SOL    HW1 2347   6.518   7.617   0.890  1.0869  0.3688  0.2159
32554SOL    HW2 2348   6.475   7.552   0.761  1.3737  3.4499 -1.5193
32555SOL     OW 2349   4.370   0.098   7.600 -0.0096  0.1265  0.1287
32555SOL    HW1 2350   4.382   0.038   7.526  0.3891  0.5649 -0.1702
32555SOL    HW2 2351   4.334   0.177   7.561 -3.1950 -0.8129  0.8667
32556SOL     OW 2352  11.314   6.186   6.672  0.1166  0.2967 -0.6956
32556SOL    HW1 2353  11.237   6.242   6.675  1.4420  2.2673 -1.2228
32556SOL    HW2 2354  11.355   6.206   6.587  1.3438 -0.4853 -0.3148
32557SOL     OW 2355   0.590   6.066   9.011 -0.1023 -0.2580  0.3434
32557SOL    HW1 2356   0.640   6.001   8.961  0.7146  0.2752  0.4534
32557SOL    HW2 2357   0.645   6.144   9.010 -0.5877  0.0997  1.1364
32558SOL     OW 2358   4.213   2.136   7.028 -0.0899  0.0145 -0.3825
32558SOL    HW1 2359   4.165   2.145   7.110 -0.0569  0.0678 -0.3697
32558SOL    HW2 2360   4.273   2.211   7.026  1.8988 -1.4407  0.8561
32559SOL     OW 2361   7.620  10.530   7.928  0.2012  0.2806 -0.0214
32559SOL    HW1 2362   7.686  10.600   7.935  0.4545 -0.0807  1.5721
32559SOL    HW2 2363   7.671  10.450   7.918 -0.0405  0.1138  0.0804
32560SOL     OW 2364   0.786   2.186   9.923 -0.0501  0.0996  0.0801
32560SOL    HW1 2365   0.735   2.106   9.915 -0.4512  0.3704 -0.1198
32560SOL    HW2 2366   0.864   2.160   9.972  0.4301 -0.6848 -1.0455
32561SOL     OW 2367   3.661   5.629  10.677 -0.0094  0.0089  0.0551
32561SOL    HW1 2368   3.659   5.677  10.760  0.8234  0.7400 -0.3251
32561SOL    HW2 2369   3.579   5.653  10.634 -0.5511 -0.5527  0.7541
32562SOL     OW 2370   3.173   2.810  10.978 -0.3315 -0.0699  0.6695
32562SOL    HW1 2371   3.184   2.846  11.066  0.2337 -0.3867  0.7341
32562SOL    HW2 2372   3.091   2.848  10.947 -0.7482 -0.2805  1.4871
32563SOL     OW 2373  10.157  10.206   1.886 -0.1353 -0.7454 -0.3553
32563SOL    HW1 2374  10.230  10.212   1.824  0.3592  0.0225  0.2825
32563SOL    HW2 2375  10.126  10.116   1.878  0.6026 -0.9558 -0.9576
32564SOL     OW 2376   5.099   7.925   2.421 -0.1876  0.1229 -0.4761
32564SOL    HW1 2377   5.153   7.871   2.363  0.2789 -0.3194  0.3419
32564SOL    HW2 2378   5.010   7.891   2.409  0.1706 -1.2243  0.4220
32565SOL     OW 2379   5.962  11.479   5.176 -0.5606 -0.2613  0.2284
32565SOL    HW1 2380   5.878  11.517   5.150 -1.0355 -1.1532  0.4343
32565SOL    HW2 2381   6.008  11.465   5.094 -0.0033  1.5488  0.1827
32566SOL     OW 2382   3.844   1.591   3.190 -0.3656 -0.1226  0.4914
32566SOL    HW1 2383   3.795   1.583   3.108  0.4843  1.8030 -0.2417
32566SOL    HW2 2384   3.891   1.673   3.182  1.0228 -0.6976  2.2473
32567SOL     OW 2385   1.204   9.720  11.638 -0.1346 -0.1162  0.0271
32567SOL    HW1 2386   1.275   9.781  11.618  0.3715 -0.6352  0.2023
32567SOL    HW2 2387   1.218   9.697  11.730 -0.8922  0.2425  0.2392
32568SOL     OW 2388   1.052  10.064  10.154  0.1396  0.6002  1.0513
32568SOL    HW1 2389   1.093   9.986  10.193  1.5854  1.0606  0.5269
32568SOL    HW2 2390   1.029  10.119  10.228 -0.7496 -0.2347  1.4197
32569SOL     OW 2391   2.420   5.878   4.429 -0.0607  0.2208 -0.4662
32569SOL    HW1 2392   2.354   5.827   4.382  0.4466  0.0311 -0.9991
32569SOL    HW2 2393   2.371   5.945   4.476 -0.9574 -1.8731  1.8058
32570SOL     OW 2394   5.631   5.040   2.423  0.3644  0.2468 -0.0648
32570SOL    HW1 2395   5.582   5.105   2.474 -0.8531 -1.2618  0.7788
32570SOL    HW2 2396   5.567   4.973   2.400  1.8330 -1.3682  0.2840
32571SOL     OW 2397   4.562   4.472   5.036  0.0761  0.1462  0.5344
32571SOL    HW1 2398   4.484   4.417   5.033  0.2274 -0.0502 -1.5143
32571SOL    HW2 2399   4.634   4.410   5.046  0.2533 -0.1606 -1.8516
32572SOL     OW 2400   4.233   0.339   0.246 -0.8154  0.1370  0.0764
32572SOL    HW1 2401   4.184   0.262   0.275  0.9027 -1.2150 -0.4514
32572SOL    HW2 2402   4.277   0.310   0.166  0.4472  1.4359  0.2709
32573SOL     OW 2403  10.708  11.897  11.725  0.6950  0.2554 -0.3248
32573SOL    HW1 2404  10.747  11.818  11.688 -0.6008 -0.0935 -1.0319
32573SOL    HW2 2405  10.664  11.939  11.650 -1.8758 -0.3908  0.7067
32574SOL     OW 2406   1.570   2.752  11.791  0.2983  0.1208  0.0585
32574SOL    HW1 2407   1.520   2.792  11.862 -0.0082  0.1917 -0.1969
32574SOL    HW2 2408   1.538   2.662  11.785  0.3121  0.1190  0.0023
32575SOL     OW 2409   8.912   1.590   6.340  0.7196 -0.0661 -0.0333
32575SOL    HW1 2410   8.973   1.620   6.407  0.1005  1.0478  0.0650
32575SOL    HW2 2411   8.961   1.526   6.288  1.5678 -0.0798  0.7748
32576SOL     OW 2412   3.626   5.696  10.932  0.6427 -0.2175  0.0641
32576SOL    HW1 2413   3.622   5.784  10.970  0.0795 -0.2145 -0.0007
32576SOL    HW2 2414   3.679   5.646  10.994  1.7308  0.3889 -0.3461
32577SOL     OW 2415   0.104  10.205   8.240 -0.1143 -0.2761  0.0336
32577SOL    HW1 2416   0.126  10.296   8.263  0.8089 -0.0832 -1.5032
32577SOL    HW2 2417   0.014  10.209   8.207  0.3674  0.3243 -1.2596
32578SOL     OW 2418   3.359   0.804   5.874 -0.1870  0.3830  0.8657
32578SOL    HW1 2419   3.316   0.773   5.953 -1.8125  0.8950  0.2092
32578SOL    HW2 2420   3.321   0.890   5.858 -0.4601 -0.0250 -0.8818
32579SOL     OW 2421   8.560  10.474   2.042 -0.8083 -0.4454 -0.0862
32579SOL    HW1 2422   8.651  10.449   2.028 -1.0779 -1.0574 -0.7888
32579SOL    HW2 2423   8.512  10.391   2.047 -1.1862 -0.1678  1.3322
32580SOL     OW 2424   5.432   2.682   6.111 -0.7039 -0.2662  0.4430
32580SOL    HW1 2425   5.352   2.654   6.067  0.6748 -1.8133 -1.2439
32580SOL    HW2 2426   5.416   2.667   6.204 -3.0923  1.4724  0.3990
32581SOL     OW 2427   5.833   1.942   5.347 -0.8012  0.6659 -0.1563
32581SOL    HW1 2428   5.814   1.894   5.427 -2.9147  1.1842 -0.2684
32581SOL    HW2 2429   5.914   1.989   5.365 -0.3002 -0.5947  1.0175
32582SOL     OW 2430   2.159   1.712   7.603  0.1291  0.0723 -0.0463
32582SOL    HW1 2431   2.220   1.675   7.540 -1.0977  0.2922 -1.4118
32582SOL    HW2 2432   2.209   1.717   7.685  0.4083 -4.6486  0.3604
32583SOL     OW 2433   6.097   6.754   2.770  0.3901  0.1382  0.5239
32583SOL    HW1 2434   6.014   6.798   2.752  0.1951  0.6095  2.3514
32583SOL    HW2 2435   6.087   6.718   2.858  2.1752  0.3427  0.8576
32584SOL     OW 2436  11.057   1.139   0.504 -0.2149 -0.2521  0.2327
32584SOL    HW1 2437  11.023   1.194   0.575 -2.0261  0.2998 -0.9878
32584SOL    HW2 2438  11.099   1.065   0.548  0.8025  1.2263  1.8925
32585SOL     OW 2439  11.722   2.054   3.095  0.6910 -0.6379  0.2325
32585SOL    HW1 2440  11.752   2.144   3.101  0.6044 -0.6664  1.3887
32585SOL    HW2 2441  11.736   2.018   3.183 -2.7269 -0.6263  0.9066
32586SOL     OW 2442   9.163   3.910  11.858 -0.6594 -0.0979 -0.7492
32586SOL    HW1 2443   9.186   3.850  11.787  0.2421 -1.3542  0.5359
32586SOL    HW2 2444   9.152   3.854  11.934 -2.0808  1.1589  0.0360
32587SOL     OW 2445   5.179   4.882   1.044 -0.0399 -0.0144  0.1489
32587SOL    HW1 2446   5.270   4.862   1.025 -0.3058  0.4297 -1.7466
32587SOL    HW2 2447   5.130   4.849   0.969 -1.6854 -1.8080  1.8888
32588SOL     OW 2448   2.148   5.136   7.655  0.2876  0.6584  0.6575
32588SOL    HW1 2449   2.197   5.148   7.574  0.9083 -0.4572  0.8506
32588SOL    HW2 2450   2.207   5.088   7.713 -1.6102 -2.4662  0.2403
32589SOL     OW 2451   1.622   9.798   9.890 -0.4435 -0.0385 -0.2673
32589SOL    HW1 2452   1.620   9.891   9.913 -2.3490  0.3711 -1.7603
32589SOL    HW2 2453   1.599   9.752   9.970 -0.1539  0.8125  0.3175
32590SOL     OW 2454   2.690   1.484   0.761  0.3489  0.2020 -0.4149
32590SOL    HW1 2455   2.753   1.415   0.783  1.2996  1.5983  1.6042
32590SOL    HW2 2456   2.656   1.513   0.845 -0.8570  1.4601 -1.2948
32591SOL     OW 2457  10.497  10.152   1.946  0.1063  0.4094  0.3587
32591SOL    HW1 2458  10.577  10.199   1.919 -0.4169  0.3629 -1.3854
32591SOL    HW2 2459  10.461  10.206   2.017  0.1424  2.0734 -0.8098
32592SOL     OW 2460   1.777   2.458   0.608  0.1653  0.1801 -0.2899
32592SOL    HW1 2461   1.739   2.491   0.526 -2.2394 -2.1305 -0.2168
32592SOL    HW2 2462   1.810   2.371   0.586 -1.7826 -1.0868  1.3922
32593SOL     OW 2463  10.727   2.387   2.470 -0.1331 -0.2232  0.0456
32593SOL    HW1 2464  10.744   2.324   2.540 -0.1855  0.7810  0.9802
32593SOL    HW2 2465  10.672   2.339   2.408 -0.7064 -0.8982  1.0466
32594SOL     OW 2466  11.464   1.105  11.533 -0.8042  0.7659 -0.1088
32594SOL    HW1 2467  11.441   1.181  11.586 -1.0675  0.7291 -0.1697
32594SOL    HW2 2468  11.451   1.134  11.443 -0.5954  0.7497 -0.1454
32595SOL     OW 2469   3.640  10.819  11.791  0.2015 -0.5714  0.7580
32595SOL    HW1 2470   3.625  10.771  11.710  0.3783 -0.6308  0.7610
32595SOL    HW2 2471   3.698  10.891  11.767 -0.0636 -0.3551  0.7532
32596SOL     OW 2472  11.748  10.692   8.673  0.3950 -0.9336  0.3062
32596SOL    HW1 2473  11.720  10.757   8.608  0.2677 -1.3483 -0.0552
32596SOL    HW2 2474  11.712  10.725   8.755  2.4687  0.8348  0.6103
32597SOL     OW 2475   1.903   8.053   3.952 -0.0884 -0.1654  0.4411
32597SOL    HW1 2476   1.884   8.147   3.947 -2.3998 -0.6676 -2.0854
32597SOL    HW2 2477   1.998   8.049   3.963  0.3180  2.4873 -1.2233
32598SOL     OW 2478  10.828   4.849   1.053  0.1300 -0.0223 -0.1566
32598SOL    HW1 2479  10.916   4.817   1.033  0.5908  0.3933  1.1253
32598SOL    HW2 2480  10.823   4.935   1.011 -0.0283 -0.4487 -1.0437
32599SOL     OW 2481   0.338   6.606   9.658  0.3713  0.0724  0.0002
32599SOL    HW1 2482   0.288   6.630   9.736  0.7283 -0.6761  0.4678
32599SOL    HW2 2483   0.272   6.599   9.589 -0.2837 -1.5680  0.7595
32600SOL     OW 2484  10.649   9.926  10.356 -0.4814 -0.0833 -0.0233
32600SOL    HW1 2485  10.601   9.973  10.425 -0.8906 -0.5594  0.0243
32600SOL    HW2 2486  10.677   9.994  10.295  0.6587  0.4599  1.0602
32601SOL     OW 2487   1.138  10.848   7.931 -0.5850 -0.8465  0.5081
32601SOL    HW1 2488   1.197  10.799   7.988  0.3045 -0.7881 -0.3263
32601SOL    HW2 2489   1.096  10.782   7.876  1.8644 -0.6544 -1.7795
32602SOL     OW 2490   8.427   0.299   9.120 -0.6382  0.1312 -0.0730
32602SOL    HW1 2491   8.408   0.360   9.049  1.7506 -1.0418 -1.8623
32602SOL    HW2 2492   8.368   0.225   9.105  0.5285 -0.5599 -1.5430
32603SOL     OW 2493   7.635   2.467   8.283 -0.0038 -0.1781 -0.7715
32603SOL    HW1 2494   7.660   2.545   8.234 -2.3347  1.2821  0.1760
32603SOL    HW2 2495   7.631   2.497   8.374  0.4426 -1.7929 -0.1908
32604SOL     OW 2496   3.039   5.120   4.266 -0.2754  0.4564 -0.1813
32604SOL    HW1 2497   2.970   5.175   4.303  0.6460  1.1127  0.5902
32604SOL    HW2 2498   2.993   5.041   4.237 -1.2163  0.4867  1.1513
32605SOL     OW 2499   7.125   8.023   3.260  0.1142 -0.4414 -0.0970
32605SOL    HW1 2500   7.200   7.981   3.217  0.7475 -1.5069  1.9449
32605SOL    HW2 2501   7.132   7.997   3.351 -2.0820  0.4611  0.3819
32606SOL     OW 2502   2.653   0.619   6.448 -0.0295  0.1420  0.4459
32606SOL    HW1 2503   2.728   0.677   6.438  0.1400 -0.1407  0.0489
32606SOL    HW2 2504   2.664   0.554   6.379 -1.1037  0.6013 -0.1824
32607SOL     OW 2505   8.511   4.511   9.466  0.0973 -0.8246 -0.1811
32607SOL    HW1 2506   8.575   4.498   9.536 -1.1904 -0.6758  1.0535
32607SOL    HW2 2507   8.426   4.507   9.509 -0.7179  2.8727 -1.1081
32608SOL     OW 2508   6.459   6.582   9.440  0.3418 -0.0128  0.1780
32608SOL    HW1 2509   6.412   6.529   9.376 -0.0983 -1.0710  1.3280
32608SOL    HW2 2510   6.417   6.561   9.524  3.3299 -1.6758  1.4263
32609SOL     OW 2511   3.499   2.832   6.636  0.5712  0.6420  0.3765
32609SOL    HW1 2512   3.573   2.831   6.696  2.1316  2.3530 -1.3976
32609SOL    HW2 2513   3.538   2.820   6.549 -1.4009  0.1582 -0.5123
32610SOL     OW 2514  10.975   9.156   9.829 -0.2371  0.5086 -0.3455
32610SOL    HW1 2515  10.901   9.210   9.857 -1.9532 -0.4117 -2.7079
32610SOL    HW2 2516  11.006   9.198   9.748  0.6939 -0.0824 -0.3124
32611SOL     OW 2517   6.748   2.963   3.713 -0.2767 -0.1453 -0.2189
32611SOL    HW1 2518   6.729   3.055   3.733  0.8986  0.3376 -1.1984
32611SOL    HW2 2519   6.733   2.957   3.618 -1.0998 -1.1791 -0.0430
32612SOL     OW 2520   0.426   2.652   2.123  0.8167  0.1884  0.4981
32612SOL    HW1 2521   0.409   2.622   2.212  0.2951 -1.0397  0.0189
32612SOL    HW2 2522   0.472   2.579   2.082 -1.1472 -0.3323 -0.9369
32613SOL     OW 2523   7.264   2.223   8.678 -0.0513 -0.4129  0.8545
32613SOL    HW1 2524   7.239   2.231   8.770 -0.8180  1.1605  0.5487
32613SOL    HW2 2525   7.252   2.311   8.642 -0.1447 -1.0740 -0.8417
32614SOL     OW 2526   5.623  11.151   8.685  0.0379  0.1789 -0.3993
32614SOL    HW1 2527   5.530  11.147   8.663  0.3736 -1.7516 -1.6352
32614SOL    HW2 2528   5.641  11.070   8.732  1.2099  0.3112 -0.5901
32615SOL     OW 2529   6.154   7.545   8.057  0.5529  0.3522  0.1470
32615SOL    HW1 2530   6.136   7.455   8.028  0.8268  0.0911  0.7680
32615SOL    HW2 2531   6.247   7.558   8.038  0.6918  0.2403  0.7209
32616SOL     OW 2532   3.394   0.180   0.855 -0.2302  0.0592 -0.2005
32616SOL    HW1 2533   3.421   0.205   0.943 -0.1597 -0.2691 -0.1264
32616SOL    HW2 2534   3.348   0.257   0.821  1.4047  0.8984 -0.5942
32617SOL     OW 2535   8.627   0.693   0.597 -0.1682  0.2121  0.0084
32617SOL    HW1 2536   8.690   0.704   0.525  1.0146  0.7613  1.1019
32617SOL    HW2 2537   8.676   0.714   0.676 -1.3047 -0.8796  1.0526
32618SOL     OW 2538  11.046   8.490   3.254 -0.0995 -0.7170  0.3851
32618SOL    HW1 2539  11.131   8.451   3.278  1.0833  2.3250  1.6882
32618SOL    HW2 2540  11.018   8.536   3.333 -1.5989  0.6092 -0.8519
32619SOL     OW 2541   0.928  10.225  11.119 -0.0905 -0.0842 -0.3361
32619SOL    HW1 2542   0.985  10.298  11.146 -0.0230 -0.6837  1.2398
32619SOL    HW2 2543   0.978  10.181  11.050  0.5861  0.4266 -0.1892
32620SOL     OW 2544   5.624   0.462   6.732 -0.3583  0.1292 -0.4147
32620SOL    HW1 2545   5.703   0.484   6.683  0.5098 -2.9110 -0.5518
32620SOL    HW2 2546   5.555   0.455   6.665 -0.1705  0.2501 -0.6213
32621SOL     OW 2547   3.161   6.035  11.104  0.0243  0.1736 -0.5647
32621SOL    HW1 2548   3.211   6.104  11.147 -1.3364  0.8535 -0.0105
32621SOL    HW2 2549   3.224   5.993  11.045  1.9984 -0.8364  2.0419
32622SOL     OW 2550   3.956  10.011   1.582 -0.1936 -0.6548  0.3668
32622SOL    HW1 2551   3.942   9.924   1.619  0.9864 -0.9802  0.0811
32622SOL    HW2 2552   3.973   9.995   1.489 -0.5356 -0.0642  0.1960
32623SOL     OW 2553   3.493   4.898  10.917 -0.7550  0.1679 -0.0670
32623SOL    HW1 2554   3.579   4.936  10.900 -0.8145  0.0387 -0.6695
32623SOL    HW2 2555   3.451   4.895  10.831 -1.2519 -0.0392  0.1801
32624SOL     OW 2556   3.010  10.167   9.876 -0.1877  0.3177 -0.0336
32624SOL    HW1 2557   3.098  10.195   9.849 -0.1819 -0.1763 -0.5564
32624SOL    HW2 2558   2.955  10.185   9.800 -0.2517 -0.7148 -0.2454
32625SOL     OW 2559   0.649   1.644   9.213 -0.0040  0.8980 -0.6804
32625SOL    HW1 2560   0.588   1.572   9.193  0.8095  0.2294 -0.8039
32625SOL    HW2 2561   0.628   1.668   9.304  2.3468 -2.2637  0.8932
32626SOL     OW 2562   7.673  11.370  10.621  0.1485  0.0067  0.1400
32626SOL    HW1 2563   7.696  11.361  10.714  1.9588 -1.9822 -0.4165
32626SOL    HW2 2564   7.583  11.339  10.616 -0.4779  1.4739  1.4023
32627SOL     OW 2565   1.276   0.614   1.989 -0.0343  0.0070  0.1823
32627SOL    HW1 2566   1.287   0.528   1.947  0.5936 -0.3210  0.9727
32627SOL    HW2 2567   1.362   0.633   2.026 -0.4214  0.5340  0.8298
32628SOL     OW 2568   8.317   9.277   1.725 -0.0704 -0.0451 -0.3631
32628SOL    HW1 2569   8.398   9.280   1.777  0.1979  0.5822 -0.8110
32628SOL    HW2 2570   8.247   9.289   1.789  0.1932 -0.5280  0.0207
32629SOL     OW 2571   2.569   8.250   4.667  0.3505 -0.9016 -0.1179
32629SOL    HW1 2572   2.547   8.309   4.595  0.0969  0.0075  0.6822
32629SOL    HW2 2573   2.645   8.290   4.709 -0.1524 -0.8459  0.7598
32630SOL     OW 2574   1.503   8.438  11.833 -0.0478 -0.1749 -0.1013
32630SOL    HW1 2575   1.452   8.378  11.779  0.0021  0.2015 -0.5759
32630SOL    HW2 2576   1.532   8.507  11.773 -2.2960  1.7875  0.9067
32631SOL     OW 2577   9.758   4.855   6.220  0.1252 -0.2917 -0.1444
32631SOL    HW1 2578   9.725   4.817   6.301  0.8848  0.1082  0.3710
32631SOL    HW2 2579   9.720   4.943   6.217  1.3366  0.2818  0.6056
32632SOL     OW 2580   6.633   0.402   4.464  0.2992  0.1413  0.0782
32632SOL    HW1 2581   6.612   0.469   4.528 -1.1548  1.8054 -1.9721
32632SOL    HW2 2582   6.728   0.406   4.454  0.3581  1.0322  0.9113
32633SOL     OW 2583   2.026   6.799  12.001  0.0156  0.6139  0.0147
32633SOL    HW1 2584   1.968   6.729  12.032 -1.6149  1.2690 -1.3846
32633SOL    HW2 2585   2.035   6.783  11.907  1.8711  0.7539  0.1226
32634SOL     OW 2586   1.030   2.072   8.109 -0.4409  0.5886  0.3786
32634SOL    HW1 2587   1.046   2.160   8.142 -3.1943  1.0885  0.5491
32634SOL    HW2 2588   0.996   2.024   8.185 -0.3286 -0.2340 -0.0763
32635SOL     OW 2589   4.411   4.198   0.137 -0.3231 -0.5712 -0.9220
32635SOL    HW1 2590   4.466   4.213   0.214 -0.2179  0.1332 -1.1263
32635SOL    HW2 2591   4.323   4.189   0.173 -0.6620  2.0896 -0.8455
32636SOL     OW 2592  11.782   7.788  11.057 -0.2547  0.6611  0.1696
32636SOL    HW1 2593  11.859   7.815  11.108 -1.0519  1.8043  0.8282
32636SOL    HW2 2594  11.736   7.870  11.040  0.8285  0.6132 -3.9464
32637SOL     OW 2595   7.253   8.191  10.178  0.5508  0.1161  0.1865
32637SOL    HW1 2596   7.309   8.220  10.250  0.0927  0.9251  0.2341
32637SOL    HW2 2597   7.210   8.113  10.212  0.9720  0.0100  0.4809
32638SOL     OW 2598   0.574  11.505   7.114  0.0239 -0.5943  0.3687
32638SOL    HW1 2599   0.514  11.580   7.116 -0.3247 -0.8785  0.5013
32638SOL    HW2 2600   0.632  11.519   7.190 -0.9770 -1.2303  1.2729
32639SOL     OW 2601   5.684  10.794   0.874  0.4796  0.0948  0.4106
32639SOL    HW1 2602   5.743  10.855   0.830 -2.2434  2.1529 -0.6657
32639SOL    HW2 2603   5.624  10.849   0.924  0.5046 -1.9736  2.9350
32640SOL     OW 2604   2.533   2.409   3.999  0.2681  0.5792 -0.4493
32640SOL    HW1 2605   2.472   2.455   3.941 -0.4868  0.2833  0.0968
32640SOL    HW2 2606   2.613   2.401   3.947 -1.1105 -1.8321 -2.4284
32641SOL     OW 2607   6.757   9.634   6.439  0.3127 -0.0639  0.2934
32641SOL    HW1 2608   6.687   9.692   6.471  0.3495 -0.0031  0.2637
32641SOL    HW2 2609   6.832   9.655   6.494  0.2887 -0.1779  0.3710
32642SOL     OW 2610   0.124   0.379   2.375 -0.3115 -0.2027 -0.2773
32642SOL    HW1 2611   0.062   0.364   2.446 -1.2015  0.8478 -0.8075
32642SOL    HW2 2612   0.149   0.291   2.346 -1.9382 -0.6572 -0.3765
32643SOL     OW 2613  11.758  10.759   1.192 -0.0722  0.0224 -0.0783
32643SOL    HW1 2614  11.813  10.683   1.174  2.2065  1.7017 -0.7429
32643SOL    HW2 2615  11.707  10.771   1.112  0.1766 -0.3137 -0.2897
32644SOL     OW 2616   9.984   8.990   9.652  0.0663 -0.1561  0.0891
32644SOL    HW1 2617   9.949   9.037   9.728 -2.4208 -1.0596 -0.4087
32644SOL    HW2 2618   9.913   8.991   9.588  1.2055 -1.5776 -1.2823
32645SOL     OW 2619   4.759  10.385   1.404 -0.1294 -0.4537 -0.1526
32645SOL    HW1 2620   4.701  10.316   1.436 -0.0434 -0.5450 -0.1945
32645SOL    HW2 2621   4.846  10.344   1.400 -0.0546 -0.3043 -0.0479
32646SOL     OW 2622   9.040   4.083   3.352 -0.0190 -0.5406  0.5882
32646SOL    HW1 2623   9.039   4.147   3.280 -0.7314 -0.6718  0.4708
32646SOL    HW2 2624   8.956   4.037   3.343 -1.1010  0.8595  2.7672
32647SOL     OW 2625   4.532   4.415  11.785 -0.2489  0.0941  0.2040
32647SOL    HW1 2626   4.470   4.475  11.742  0.3692  0.5001 -0.1255
32647SOL    HW2 2627   4.533   4.444  11.877 -1.7417 -0.9155  0.5844
32648SOL     OW 2628   7.040   8.990   5.486  0.0578  0.4491 -0.3621
32648SOL    HW1 2629   6.970   9.051   5.511  0.3941  0.5024  0.4779
32648SOL    HW2 2630   7.107   9.045   5.446  0.2845  0.6137  0.2364
32649SOL     OW 2631   2.947   8.471   7.356 -0.0710 -0.2257 -0.0723
32649SOL    HW1 2632   2.875   8.501   7.412  0.8571  0.0361  1.0143
32649SOL    HW2 2633   2.947   8.376   7.367  0.1977 -0.1635  0.4999
32650SOL     OW 2634   8.296   0.751   6.301  0.2099  0.2003 -0.7032
32650SOL    HW1 2635   8.361   0.688   6.269  0.0038  0.0390 -0.8046
32650SOL    HW2 2636   8.272   0.802   6.224 -0.0184  0.0497 -0.7348
32651SOL     OW 2637   2.537   7.251   9.285 -0.0377 -0.6889 -0.3341
32651SOL    HW1 2638   2.553   7.266   9.192 -0.2654  2.1173 -0.0294
32651SOL    HW2 2639   2.442   7.242   9.292 -0.4595  2.5936 -0.1296
32652SOL     OW 2640   1.809   3.056   0.909  0.2998  0.3316  0.3274
32652SOL    HW1 2641   1.860   3.137   0.917  0.9276 -0.0060 -0.1482
32652SOL    HW2 2642   1.862   3.001   0.851 -0.6696  0.0119 -0.2675
32653SOL     OW 2643   2.992   9.489  10.051  0.2869 -0.0610 -0.2188
32653SOL    HW1 2644   2.948   9.568  10.083  1.6908  0.8040 -0.3655
32653SOL    HW2 2645   2.944   9.417  10.093 -2.6190  0.6672 -1.9733
32654SOL     OW 2646   6.417   4.053   9.083 -0.1112  0.1406 -0.0036
32654SOL    HW1 2647   6.370   4.128   9.118  1.3691  0.2924  1.7796
32654SOL    HW2 2648   6.508   4.068   9.107  0.9291 -0.1883 -3.2393
32655SOL     OW 2649  10.441   9.202   7.620  0.8396  0.2387  0.3807
32655SOL    HW1 2650  10.382   9.129   7.603  0.3275  0.5997  0.5641
32655SOL    HW2 2651  10.529   9.165   7.613  0.5820 -0.5403  1.1289
32656SOL     OW 2652  10.596   5.388   1.490  0.2035  0.3934  0.3928
32656SOL    HW1 2653  10.675   5.406   1.440 -0.1416 -1.6629 -0.9974
32656SOL    HW2 2654  10.626   5.384   1.581  1.5856  0.1707 -0.0519
32657SOL     OW 2655  11.512   6.299   7.618 -0.3922  0.1248 -0.1535
32657SOL    HW1 2656  11.601   6.266   7.606  0.8757  3.0869  0.3098
32657SOL    HW2 2657  11.479   6.249   7.693  1.1949 -0.4536  0.2207
32658SOL     OW 2658   4.355   9.333   5.527  0.3908  0.6711 -0.1325
32658SOL    HW1 2659   4.429   9.274   5.511  0.6879  1.2378 -0.9465
32658SOL    HW2 2660   4.324   9.356   5.439 -0.7662  0.4424  0.1927
32659SOL     OW 2661   1.681   6.087   8.901 -0.0583 -0.4508 -0.1245
32659SOL    HW1 2662   1.771   6.067   8.877  0.1971  1.2808 -0.7657
32659SOL    HW2 2663   1.683   6.177   8.932 -1.3359 -0.8739  1.3490
32660SOL     OW 2664   6.216   6.169   5.946  0.1180  0.7326 -0.3119
32660SOL    HW1 2665   6.175   6.158   6.031  0.3260  1.7015 -0.0767
32660SOL    HW2 2666   6.257   6.084   5.928 -0.1241  0.4475  0.4320
32661SOL     OW 2667   6.684   5.359   7.233 -0.5931  0.6689  0.4960
32661SOL    HW1 2668   6.640   5.278   7.259  1.9627 -1.1998 -0.5705
32661SOL    HW2 2669   6.655   5.375   7.143 -0.3432  0.3763  0.3642
32662SOL     OW 2670   8.565   2.602   4.474 -0.1277 -0.0537 -0.3329
32662SOL    HW1 2671   8.652   2.575   4.506 -0.7275 -1.7711 -0.0253
32662SOL    HW2 2672   8.567   2.582   4.380  0.8223  2.7917 -0.9958
32663SOL     OW 2673  10.717   0.830   4.090 -0.1616 -0.5038 -0.2150
32663SOL    HW1 2674  10.687   0.781   4.166 -3.0336  1.4966  0.1337
32663SOL    HW2 2675  10.653   0.808   4.021  1.0925 -0.5896 -1.3873
32664SOL     OW 2676   0.533   8.494   4.298 -0.1471  0.0081  0.3188
32664SOL    HW1 2677   0.466   8.562   4.305  0.1863  0.3163  0.5882
32664SOL    HW2 2678   0.504   8.426   4.359  0.3125  0.6067  1.2372
32665SOL     OW 2679   5.497   6.258   6.280  0.3587  0.1035  0.7099
32665SOL    HW1 2680   5.584   6.282   6.249 -0.1550  0.0842 -0.8167
32665SOL    HW2 2681   5.467   6.192   6.217 -0.8635  0.2941  1.0764
32666SOL     OW 2682  11.715   6.341   9.755 -0.4851 -0.3236 -0.3941
32666SOL    HW1 2683  11.716   6.247   9.740  0.2912 -0.2751 -0.6705
32666SOL    HW2 2684  11.622   6.364   9.757 -0.6746 -1.0803 -0.3949
32667SOL     OW 2685   3.802   6.686  11.530  0.6054 -0.6475 -0.0834
32667SOL    HW1 2686   3.898   6.688  11.530  0.6592 -2.2634  0.2063
32667SOL    HW2 2687   3.777   6.778  11.540  2.1177 -0.1797 -0.2636
32668SOL     OW 2688   4.599   4.252   2.539  0.2962  0.3382 -0.2693
32668SOL    HW1 2689   4.523   4.195   2.553 -0.7581  1.7348 -0.0193
32668SOL    HW2 2690   4.569   4.315   2.473  1.8813 -0.1952 -1.5408
32669SOL     OW 2691   6.135   8.862   1.364  0.7588 -0.6393  0.2898
32669SOL    HW1 2692   6.171   8.921   1.430 -1.7297 -2.1255  3.2332
32669SOL    HW2 2693   6.178   8.778   1.383 -0.2314 -1.1589  0.2637
32670SOL     OW 2694   4.955   1.587   0.731 -0.1694 -0.3243 -0.1068
32670SOL    HW1 2695   4.969   1.501   0.769 -1.5320 -1.6040 -2.3080
32670SOL    HW2 2696   4.867   1.612   0.759 -0.0250  0.0693  0.0036
32671SOL     OW 2697   0.887  11.770   5.567 -0.3782  0.1907  0.1461
32671SOL    HW1 2698   0.820  11.745   5.504  1.3467  0.0248 -1.7318
32671SOL    HW2 2699   0.892  11.696   5.628 -2.1992  0.4342  0.6349
32672SOL     OW 2700   6.827   7.835  10.273  0.4420 -0.5153 -0.0843
32672SOL    HW1 2701   6.865   7.896  10.210 -2.7555  0.9268 -0.8142
32672SOL    HW2 2702   6.834   7.749  10.231  1.6677 -0.1292 -0.7008
32673SOL     OW 2703   0.134  10.624   7.429  0.3234  0.0228 -0.1403
32673SOL    HW1 2704   0.167  10.541   7.463 -0.3438  0.0980  0.7084
32673SOL    HW2 2705   0.089  10.601   7.348 -0.2522 -0.5068  0.3260
32674SOL     OW 2706   4.966   6.946   2.167 -0.2735  0.0843 -0.1797
32674SOL    HW1 2707   4.982   7.040   2.174  0.0353  0.0099  0.1218
32674SOL    HW2 2708   4.997   6.923   2.079  1.2089 -0.0340  0.3456
32675SOL     OW 2709   4.976   2.930   8.728  0.0844  0.1274 -0.2727
32675SOL    HW1 2710   4.931   2.920   8.644 -1.3494  1.1810  0.3365
32675SOL    HW2 2711   4.936   2.865   8.785 -0.4206  0.8187  0.1692
32676SOL     OW 2712   7.420   8.507   2.886  0.3212 -0.0511 -0.1441
32676SOL    HW1 2713   7.451   8.490   2.797 -0.5742 -0.8035 -0.3347
32676SOL    HW2 2714   7.397   8.600   2.886  0.4909 -0.0055 -0.6448
32677SOL     OW 2715   7.169  10.039   4.995  0.0050  0.3599  0.3963
32677SOL    HW1 2716   7.199   9.953   4.965 -3.2281 -0.5570 -0.6178
32677SOL    HW2 2717   7.225  10.101   4.949  0.2057 -1.1852 -1.5897
32678SOL     OW 2718   1.286   8.912   5.319 -0.0701  0.0938 -0.0770
32678SOL    HW1 2719   1.258   8.835   5.369  0.7049  0.5144  1.0393
32678SOL    HW2 2720   1.269   8.986   5.377 -0.1336  0.7104 -0.8580
32679SOL     OW 2721   7.587   2.531   9.381  0.7025 -0.3053 -0.3226
32679SOL    HW1 2722   7.632   2.446   9.375  1.4750  0.1853 -1.7662
32679SOL    HW2 2723   7.511   2.522   9.325  1.2585  0.2329 -1.1788
32680SOL     OW 2724   3.042   1.742  11.503 -0.1550  0.7656 -0.0098
32680SOL    HW1 2725   3.092   1.778  11.429  0.4499 -0.4781 -0.2212
32680SOL    HW2 2726   3.045   1.811  11.569 -0.0355  1.5853 -0.8418
32681SOL     OW 2727  11.004   9.983   4.488 -0.5722  0.1515  0.6612
32681SOL    HW1 2728  10.983  10.072   4.516 -2.2448  0.2780 -0.8406
32681SOL    HW2 2729  10.920   9.945   4.463  0.2506 -1.5191  0.2910
32682SOL     OW 2730   0.488   9.160   3.871 -0.1971  0.4142 -0.0570
32682SOL    HW1 2731   0.455   9.072   3.890 -2.4778  1.4702  1.3465
32682SOL    HW2 2732   0.409   9.211   3.852  0.7519  2.7888  1.9458
32683SOL     OW 2733   1.851   3.917   9.062  0.2255 -0.1446  0.2207
32683SOL    HW1 2734   1.843   3.988   9.125  1.1028 -0.5742  0.8311
32683SOL    HW2 2735   1.940   3.924   9.028 -0.5274  0.6952 -1.7399
32684SOL     OW 2736   6.486   1.679  11.253 -0.3075  0.2768 -0.2390
32684SOL    HW1 2737   6.514   1.732  11.328  0.6809 -0.7733  0.1499
32684SOL    HW2 2738   6.525   1.593  11.267 -1.2513 -0.3562 -1.2598
32685SOL     OW 2739   2.931   1.413   2.696  0.4288  0.3185 -0.3346
32685SOL    HW1 2740   2.839   1.394   2.679  0.2910 -0.9009  1.5140
32685SOL    HW2 2741   2.943   1.504   2.670 -1.7149  1.0228  0.9769
32686SOL     OW 2742   2.957   3.101   4.988 -0.2439 -0.4296 -0.4957
32686SOL    HW1 2743   2.877   3.115   4.937 -0.8565 -0.0950  0.5354
32686SOL    HW2 2744   2.957   3.007   5.008 -0.6965 -0.3279  0.0020
32687SOL     OW 2745  11.157   1.875   5.289  0.3049  0.1624  0.0893
32687SOL    HW1 2746  11.244   1.835   5.280  0.0553 -1.0129  2.1516
32687SOL    HW2 2747  11.134   1.862   5.381 -2.2131  0.1389 -0.4625
32688SOL     OW 2748   5.586   8.939   5.031  0.1304  0.2277 -0.0463
32688SOL    HW1 2749   5.527   8.868   5.005  0.1627 -0.2128  1.0325
32688SOL    HW2 2750   5.671   8.915   4.994 -0.3161  0.8079 -1.5157
32689SOL     OW 2751   5.740   4.203   1.766 -0.2241  0.1375  0.1526
32689SOL    HW1 2752   5.672   4.253   1.812 -0.2055  1.2870 -1.0142
32689SOL    HW2 2753   5.811   4.196   1.829 -0.4418  1.1339  0.5395
32690SOL     OW 2754   2.628   9.577   5.309  0.0242  0.3270 -0.3836
32690SOL    HW1 2755   2.658   9.569   5.399 -2.3963 -0.1052  0.4704
32690SOL    HW2 2756   2.535   9.555   5.313  0.0555 -0.7036 -3.1645
32691SOL     OW 2757   3.915   5.926   8.986 -0.0630  0.8095  0.0494
32691SOL    HW1 2758   3.823   5.919   9.011  0.2340 -0.0548  0.9595
32691SOL    HW2 2759   3.914   5.933   8.890 -1.0538  0.5420  0.0312
32692SOL     OW 2760   8.455  11.900   8.960 -0.3818 -0.0306  0.1877
32692SOL    HW1 2761   8.423  11.925   9.047 -0.3056  1.0004 -0.0708
32692SOL    HW2 2762   8.386  11.927   8.900  0.1989  0.5900 -0.2079
32693SOL     OW 2763   3.810   5.840   7.775 -0.1542 -0.4260  0.1461
32693SOL    HW1 2764   3.878   5.809   7.835  0.8084  0.0794 -0.6462
32693SOL    HW2 2765   3.853   5.908   7.723 -1.8550  1.3774  0.9779
32694SOL     OW 2766   6.420   9.327   8.711  0.0456 -0.3867 -0.1021
32694SOL    HW1 2767   6.515   9.316   8.701  0.0411 -1.9077  1.1142
32694SOL    HW2 2768   6.407   9.333   8.806 -1.0622 -0.0366 -0.2644
32695SOL     OW 2769   8.236   0.069   9.072 -0.0064  0.4145 -0.2767
32695SOL    HW1 2770   8.214   0.120   9.150  1.6501  0.4138  0.2365
32695SOL    HW2 2771   8.173  -0.002   9.071  1.0798 -0.7101  2.1902
32696SOL     OW 2772   0.084   7.757   7.871  0.5918  0.2845 -0.3129
32696SOL    HW1 2773   0.089   7.790   7.781 -1.7893  0.0106 -0.6203
32696SOL    HW2 2774  -0.006   7.775   7.897  0.8564 -0.8918  1.5459
32697SOL     OW 2775   6.491   6.977  10.694  0.7041 -0.2978 -0.5050
32697SOL    HW1 2776   6.527   7.003  10.779  0.8523 -1.9307 -0.0438
32697SOL    HW2 2777   6.550   7.017  10.630  0.7000  0.7944  0.1547
32698SOL     OW 2778   6.138   5.645   1.840 -0.6370 -0.0291  0.2251
32698SOL    HW1 2779   6.092   5.656   1.923 -1.3284  1.3718 -0.3142
32698SOL    HW2 2780   6.198   5.720   1.836 -1.3932  0.5377 -1.0193
32699SOL     OW 2781   3.663   7.810   6.471  0.4542 -0.4402  0.5796
32699SOL    HW1 2782   3.700   7.825   6.384  0.3737  0.3156  0.6627
32699SOL    HW2 2783   3.608   7.732   6.462 -1.0931  0.7196 -0.5265
32700SOL     OW 2784   3.990  11.569   0.321  0.7379 -0.1783  0.0256
32700SOL    HW1 2785   3.917  11.588   0.261  0.5984  0.6308  0.4353
32700SOL    HW2 2786   3.971  11.481   0.355  0.1852 -0.1502 -0.1999
32701SOL     OW 2787   2.170  10.459   9.940  0.7648  0.2672 -0.5117
32701SOL    HW1 2788   2.213  10.378   9.912 -0.3878  0.3582 -2.7178
32701SOL    HW2 2789   2.095  10.428   9.992  2.5852  0.0901  2.2252
32702SOL     OW 2790   7.728   9.113   5.543  0.2447  0.9159  0.0842
32702SOL    HW1 2791   7.666   9.152   5.604  0.7559  1.2749  0.3756
32702SOL    HW2 2792   7.684   9.033   5.512 -0.4911  1.3294  0.0427
32703SOL     OW 2793   4.856   1.819   3.892 -0.0441  0.2791  0.0817
32703SOL    HW1 2794   4.803   1.755   3.843 -0.0407  0.3290  0.0127
32703SOL    HW2 2795   4.946   1.790   3.879 -0.1391 -0.8495  1.6618
32704SOL     OW 2796   4.774   7.136   1.652 -0.3189 -0.1705 -0.4095
32704SOL    HW1 2797   4.732   7.077   1.715 -3.2219  2.0250 -0.1049
32704SOL    HW2 2798   4.717   7.136   1.576  0.5054  0.9617 -1.0675
32705SOL     OW 2799   5.700   1.016   7.729  0.1381 -0.7155  0.1833
32705SOL    HW1 2800   5.663   1.069   7.658  1.2392 -0.9091 -0.5644
32705SOL    HW2 2801   5.624   0.977   7.771 -0.5350 -1.2442 -1.4174
32706SOL     OW 2802   7.079   2.441   6.376 -0.1091 -0.0345  0.1140
32706SOL    HW1 2803   7.111   2.361   6.417 -1.3440 -0.8213 -0.4047
32706SOL    HW2 2804   7.157   2.492   6.357  0.6102 -0.3618  1.9609
32707SOL     OW 2805   4.624   0.946   6.011  0.2248  0.7969 -0.1170
32707SOL    HW1 2806   4.533   0.917   6.005  0.1033  0.6828  1.5978
32707SOL    HW2 2807   4.619   1.041   6.010  0.1244  0.7868 -0.4922
32708SOL     OW 2808  11.680   5.548   6.470  0.2785  0.8034 -0.7934
32708SOL    HW1 2809  11.720   5.632   6.447 -0.7963  1.4164 -0.4881
32708SOL    HW2 2810  11.616   5.570   6.538  0.9572 -0.4683  0.3109
32709SOL     OW 2811   7.275   3.479   9.604  0.0674 -0.1010 -0.0982
32709SOL    HW1 2812   7.270   3.569   9.574 -0.5185 -0.4309 -1.0388
32709SOL    HW2 2813   7.189   3.442   9.586  0.9238 -1.4484 -1.7751
32710SOL     OW 2814   1.291   6.667   1.192  0.3077  0.3554  0.7029
32710SOL    HW1 2815   1.207   6.712   1.182 -1.2106 -2.4456 -0.3274
32710SOL    HW2 2816   1.349   6.732   1.232 -1.9157  2.8594  0.1310
32711SOL     OW 2817  10.776   6.441   2.916  0.0503 -0.1185 -0.2885
32711SOL    HW1 2818  10.772   6.477   2.828  1.8462 -1.8922 -1.1634
32711SOL    HW2 2819  10.705   6.486   2.963 -0.9332  0.9030 -2.5793
32712SOL     OW 2820   4.401   0.395   0.987  0.4851 -0.3136 -0.3764
32712SOL    HW1 2821   4.340   0.363   1.054 -0.6957  1.6786 -0.4114
32712SOL    HW2 2822   4.345   0.432   0.919  1.6779  1.6832 -0.3686
32713SOL     OW 2823  10.648   0.701   7.728 -0.2691  0.1377  0.2648
32713SOL    HW1 2824  10.740   0.677   7.721 -0.4117 -0.3028 -0.1079
32713SOL    HW2 2825  10.601   0.619   7.721 -0.6341  0.1436  2.1413
32714SOL     OW 2826   6.397   0.266   9.809  0.0549  0.4514 -0.3373
32714SOL    HW1 2827   6.419   0.356   9.829 -0.4000  0.1562  1.7156
32714SOL    HW2 2828   6.384   0.265   9.714  3.1849  1.8119 -0.8988
32715SOL     OW 2829  11.085   9.502   3.763  0.0610 -0.3252  0.1522
32715SOL    HW1 2830  11.162   9.449   3.786 -0.0183 -0.1296  0.9040
32715SOL    HW2 2831  11.072   9.486   3.669 -0.7105 -2.6421  0.5795
32716SOL     OW 2832   9.239   4.360   9.509 -0.0524  0.3257  0.6235
32716SOL    HW1 2833   9.307   4.309   9.552  0.2610  1.6191  1.7408
32716SOL    HW2 2834   9.174   4.375   9.578 -0.4275  0.8843  0.1529
32717SOL     OW 2835   0.749   7.731   9.196 -0.1965 -0.1999 -0.3414
32717SOL    HW1 2836   0.723   7.796   9.131  1.2262  0.9681  0.1817
32717SOL    HW2 2837   0.843   7.717   9.178  0.1202 -0.1497  1.1833
32718SOL     OW 2838   2.904  10.810   2.772  0.2602  0.4153  0.1328
32718SOL    HW1 2839   2.877  10.724   2.740  0.0539  0.8781 -0.9652
32718SOL    HW2 2840   2.994  10.796   2.803  0.8859  0.1746 -1.6654
32719SOL     OW 2841   7.711   0.851   5.338 -0.1322 -0.2460  0.2338
32719SOL    HW1 2842   7.787   0.836   5.394 -0.2237 -2.2172 -0.1101
32719SOL    HW2 2843   7.722   0.941   5.305  1.1271  0.1003  1.5356
32720SOL     OW 2844   3.719   2.021  10.630  0.5919  0.1204 -0.0560
32720SOL    HW1 2845   3.798   2.072  10.612  0.5343 -0.0110 -0.7095
32720SOL    HW2 2846   3.727   1.945  10.573  0.4768 -0.4050  0.6094
32721SOL     OW 2847   3.315   5.921   2.033 -0.5610 -0.3987 -0.1428
32721SOL    HW1 2848   3.271   5.865   1.970 -1.6904 -1.6659  1.7141
32721SOL    HW2 2849   3.392   5.953   1.986 -0.1051 -3.1271 -1.4450
32722SOL     OW 2850   8.123   7.213   2.528  0.0656 -0.1638  0.1733
32722SOL    HW1 2851   8.066   7.145   2.492 -0.0266 -0.3725  0.6958
32722SOL    HW2 2852   8.063   7.272   2.574  0.1789  0.1012 -0.0192
32723SOL     OW 2853   0.473   5.025   7.046 -0.1410 -0.1135 -0.0862
32723SOL    HW1 2854   0.500   5.033   7.137  0.1470  1.2467 -0.2694
32723SOL    HW2 2855   0.551   5.049   6.996 -1.0192  1.8019 -0.6450
32724SOL     OW 2856   6.564   2.570   7.498 -0.1900 -0.2288  0.3727
32724SOL    HW1 2857   6.490   2.509   7.497  1.3784 -2.3433 -2.4530
32724SOL    HW2 2858   6.629   2.527   7.553 -0.6149  1.1628  2.0558
32725SOL     OW 2859   3.527   8.205   4.154 -0.4634  0.3786  0.7173
32725SOL    HW1 2860   3.544   8.112   4.174  0.4348  0.5437  0.7707
32725SOL    HW2 2861   3.607   8.250   4.182  0.7249  0.7259 -2.7277
32726SOL     OW 2862   2.157   0.313   0.571  0.0899  0.3250  0.9087
32726SOL    HW1 2863   2.192   0.235   0.614  0.2722  0.4836  1.0493
32726SOL    HW2 2864   2.157   0.291   0.477 -0.8097 -0.2196  1.0308
32727SOL     OW 2865   6.869   5.567   1.715 -0.3440 -0.9413 -0.1483
32727SOL    HW1 2866   6.806   5.638   1.729 -0.0346 -0.1369 -2.3189
32727SOL    HW2 2867   6.952   5.611   1.697  0.0096 -1.8639 -0.8973
32728SOL     OW 2868   5.286   1.206   0.211  0.4570 -0.1741  0.2437
32728SOL    HW1 2869   5.202   1.210   0.165 -0.6486 -1.2054  2.0143
32728SOL    HW2 2870   5.330   1.129   0.174  0.8836  0.6530 -1.0363
32729SOL     OW 2871   1.517   6.868  10.891 -0.4004  0.4741  0.2550
32729SOL    HW1 2872   1.441   6.849  10.946 -0.7664  1.0875 -0.0291
32729SOL    HW2 2873   1.526   6.791  10.834 -1.2715  0.7209 -0.2262
32730SOL     OW 2874   9.912  11.012   7.671  0.2115  0.6241 -0.0405
32730SOL    HW1 2875   9.835  10.964   7.642  0.0569  0.7378  0.1782
32730SOL    HW2 2876   9.917  11.088   7.613 -0.2935  1.0327  0.4459
32731SOL     OW 2877  11.789  11.024   8.317  0.7455  0.3221 -0.1280
32731SOL    HW1 2878  11.783  11.119   8.306  0.2535  0.3553  0.4135
32731SOL    HW2 2879  11.779  10.989   8.228  0.3658  0.7446 -0.2534
32732SOL     OW 2880   6.340   0.740   1.561 -0.3054  0.3738  0.9161
32732SOL    HW1 2881   6.340   0.685   1.639  0.3493  1.1630  1.4875
32732SOL    HW2 2882   6.365   0.827   1.593  0.4388  0.6085 -0.2386
32733SOL     OW 2883   7.740   6.791   8.673  0.5772 -0.2700  0.0435
32733SOL    HW1 2884   7.750   6.750   8.759  0.2864 -2.3451 -0.8488
32733SOL    HW2 2885   7.655   6.758   8.641  1.5480 -1.1098 -1.8192
32734SOL     OW 2886  11.097   7.763   7.316  0.7065  0.6687  0.1732
32734SOL    HW1 2887  11.146   7.687   7.286  2.0758  1.7439 -0.4060
32734SOL    HW2 2888  11.052   7.795   7.238 -0.3015  0.1703  0.5294
32735SOL     OW 2889   7.189   4.057   7.671 -0.0130  0.0963 -0.6896
32735SOL    HW1 2890   7.232   4.045   7.586  1.2355  1.1916 -0.2385
32735SOL    HW2 2891   7.173   3.967   7.702  3.9059 -0.4956  0.0600
32736SOL     OW 2892  11.780   0.980   5.874  0.2271 -0.2933  0.1581
32736SOL    HW1 2893  11.794   1.074   5.873  0.3190 -0.3111 -0.9264
32736SOL    HW2 2894  11.832   0.947   5.801  0.7089 -1.2629  0.9078
32737SOL     OW 2895   0.118   8.869   9.738  0.2552 -0.0793  0.0541
32737SOL    HW1 2896   0.099   8.950   9.691  0.6988  0.0195  0.0470
32737SOL    HW2 2897   0.206   8.881   9.774  0.6824 -0.9045 -0.6893
32738SOL     OW 2898   2.226   7.334  10.009  0.3374  0.0085 -0.7603
32738SOL    HW1 2899   2.237   7.287  10.091 -1.7795  1.6020  0.5289
32738SOL    HW2 2900   2.161   7.284   9.961 -2.6921  1.9178  1.0455
32739SOL     OW 2901   0.036   4.308  11.789  0.0334 -0.2492  0.0651
32739SOL    HW1 2902   0.128   4.286  11.803 -0.3220 -1.6208  0.4287
32739SOL    HW2 2903   0.021   4.292  11.696 -0.3325 -2.1827  0.4044
32740SOL     OW 2904   4.223   0.256   3.766  0.1447  0.0404  0.4824
32740SOL    HW1 2905   4.306   0.217   3.793 -0.6148 -2.3231 -0.3592
32740SOL    HW2 2906   4.163   0.238   3.839 -0.2334 -0.4795  0.0510
32741SOL     OW 2907   7.295   3.636   1.735  0.2493 -0.3657  0.2753
32741SOL    HW1 2908   7.273   3.606   1.823 -1.4834 -3.3325 -0.9823
32741SOL    HW2 2909   7.211   3.667   1.699  0.8922  0.6595 -0.3795
32742SOL     OW 2910   3.045   9.935   0.448 -0.0615 -0.7932  0.7757
32742SOL    HW1 2911   3.091  10.014   0.478  2.1403 -1.9488  0.6641
32742SOL    HW2 2912   3.011   9.959   0.362  1.5998 -0.2797  0.2168
32743SOL     OW 2913   0.494   2.814   3.823  0.1635 -0.1097 -0.0545
32743SOL    HW1 2914   0.467   2.871   3.895 -0.8189 -1.1302  0.4240
32743SOL    HW2 2915   0.412   2.781   3.787  0.6842 -0.5137 -0.8964
32744SOL     OW 2916   6.786   9.752   8.257  0.6443  0.1014  0.3269
32744SOL    HW1 2917   6.803   9.671   8.306  1.8447  0.0301 -0.1784
32744SOL    HW2 2918   6.784   9.724   8.165 -3.7902 -0.1659  0.2799
32745SOL     OW 2919   3.429   8.532  10.470 -0.4469  0.6153  0.0233
32745SOL    HW1 2920   3.509   8.547  10.420 -0.8366  1.1680 -0.4437
32745SOL    HW2 2921   3.359   8.532  10.405 -0.6192 -2.3600  0.0782
32746SOL     OW 2922   7.841   0.198   1.922  0.2663  0.1960 -0.0404
32746SOL    HW1 2923   7.764   0.215   1.976 -0.1320 -0.9845 -0.2035
32746SOL    HW2 2924   7.826   0.249   1.842 -0.6069 -0.4285 -0.2894
32747SOL     OW 2925   3.854   7.072   9.333  0.4066 -0.1372 -0.3003
32747SOL    HW1 2926   3.834   7.060   9.240  2.0451 -2.1974 -0.4467
32747SOL    HW2 2927   3.770   7.098   9.372 -0.6070 -0.4634 -2.1387
32748SOL     OW 2928   1.951  11.856   9.410 -0.4369  0.8424  0.1007
32748SOL    HW1 2929   1.998  11.890   9.486  2.2224  0.4065 -1.2276
32748SOL    HW2 2930   1.876  11.915   9.400  0.5019  2.3906  1.6111
32749SOL     OW 2931   5.076   5.069   4.379 -0.3362  0.1842 -0.3745
32749SOL    HW1 2932   5.171   5.074   4.373 -0.2349 -2.1682 -2.1614
32749SOL    HW2 2933   5.045   5.131   4.312 -0.0874  0.7951  0.0639
32750SOL     OW 2934  10.570   7.370   9.691 -0.1291 -0.2995 -0.5146
32750SOL    HW1 2935  10.661   7.395   9.704 -0.4549  0.3057  0.8392
32750SOL    HW2 2936  10.521   7.451   9.702 -1.0353 -1.0666  1.6871
32751SOL     OW 2937   1.131   3.945   3.854  0.4744 -0.0133  0.3776
32751SOL    HW1 2938   1.168   3.866   3.893  0.0166 -0.3280  0.1902
32751SOL    HW2 2939   1.075   3.913   3.783 -0.0749  0.4555  0.5910
32752SOL     OW 2940   2.467   0.136   2.055  0.4040 -0.0996 -0.5856
32752SOL    HW1 2941   2.448   0.075   2.126  0.6787  0.7397  0.2317
32752SOL    HW2 2942   2.555   0.168   2.073 -0.6619  2.4791  0.5104
32753SOL     OW 2943   0.180   1.297   7.702 -0.2257  0.1527  0.0182
32753SOL    HW1 2944   0.171   1.232   7.633 -0.9774 -0.9151  1.0926
32753SOL    HW2 2945   0.099   1.348   7.698 -1.7577 -1.9180  2.0662
32754SOL     OW 2946   4.953   1.348   5.116  0.2158 -0.4117  0.3660
32754SOL    HW1 2947   4.912   1.311   5.194  0.1567  0.7692  0.9158
32754SOL    HW2 2948   5.028   1.291   5.099  0.0631 -0.8496  1.1091
32755SOL     OW 2949   9.309   6.702   8.927  0.2651 -0.3287 -0.4051
32755SOL    HW1 2950   9.343   6.656   8.850 -0.3419  1.6819 -1.9536
32755SOL    HW2 2951   9.257   6.636   8.973  2.4941 -2.2100 -0.4205
32756SOL     OW 2952   3.393  11.641   0.350 -0.2917  0.2558 -0.7680
32756SOL    HW1 2953   3.463  11.590   0.391 -1.4252 -0.3736  0.4581
32756SOL    HW2 2954   3.334  11.663   0.422 -0.8724  1.6041 -1.6124
32757SOL     OW 2955   3.710   5.339   8.143  0.4873 -0.0419 -0.0924
32757SOL    HW1 2956   3.780   5.281   8.112 -0.8663 -1.4699 -0.5589
32757SOL    HW2 2957   3.723   5.344   8.238  0.0227 -1.9417  0.0927
32758SOL     OW 2958   8.125   3.351   7.419 -0.1280  0.1158 -0.0396
32758SOL    HW1 2959   8.051   3.296   7.443  0.2067 -0.4532 -0.2804
32758SOL    HW2 2960   8.131   3.417   7.489 -0.3487 -0.3357  0.4071
32759SOL     OW 2961   5.075   0.173   6.876 -0.0179 -0.1010  0.1671
32759SOL    HW1 2962   5.146   0.144   6.819  0.4947  1.7850 -0.2425
32759SOL    HW2 2963   5.001   0.188   6.817 -0.7840 -2.0083  0.5853
32760SOL     OW 2964  11.882   5.258   3.187  0.5976 -0.0275  0.1108
32760SOL    HW1 2965  11.795   5.295   3.173  0.2227 -1.5816 -2.2824
32760SOL    HW2 2966  11.867   5.182   3.244  0.8284  1.1955  1.8766
32761SOL     OW 2967   1.642   2.114  11.299 -0.2164 -0.3966 -0.2852
32761SOL    HW1 2968   1.599   2.131  11.382  0.8538 -1.4612  0.5266
32761SOL    HW2 2969   1.640   2.198  11.253 -3.0501 -0.3916 -0.2987
32762SOL     OW 2970   3.869   2.568   1.039  0.2483  0.8319 -0.9330
32762SOL    HW1 2971   3.908   2.570   0.952 -0.0179 -1.2400 -1.1395
32762SOL    HW2 2972   3.869   2.476   1.064  0.0922  1.3491  1.1787
32763SOL     OW 2973   4.363   5.338   2.699  0.1420 -0.2978 -0.4732
32763SOL    HW1 2974   4.287   5.391   2.675 -0.1411 -0.1131  0.7501
32763SOL    HW2 2975   4.343   5.250   2.668 -0.2669 -0.1000 -0.7677
32764SOL     OW 2976   2.430   9.578   4.916  0.9273 -0.0508  0.0102
32764SOL    HW1 2977   2.480   9.505   4.880 -2.3322 -1.0855 -3.0055
32764SOL    HW2 2978   2.451   9.652   4.858  0.9281  0.2262  0.3618
32765SOL     OW 2979   8.136   2.251   6.475  0.3180 -0.3562 -0.2236
32765SOL    HW1 2980   8.214   2.258   6.531 -0.1148  0.3401  0.3228
32765SOL    HW2 2981   8.129   2.337   6.434  0.1298 -0.5834 -0.6704
32766SOL     OW 2982   9.580  10.879   9.817  0.0287 -0.3742 -0.2375
32766SOL    HW1 2983   9.557  10.914   9.903  0.2216 -0.5968 -0.0905
32766SOL    HW2 2984   9.496  10.851   9.779 -0.1741  0.6209 -0.5327
32767SOL     OW 2985   7.238   3.330   1.134 -0.2994 -0.1517 -0.7916
32767SOL    HW1 2986   7.215   3.250   1.085 -1.8316  0.2837 -0.8249
32767SOL    HW2 2987   7.231   3.400   1.069 -2.0177  0.3900 -0.0861
32768SOL     OW 2988  10.370   3.647  11.730 -0.5978 -0.5342  0.3075
32768SOL    HW1 2989  10.443   3.604  11.686  0.7477  0.6370  1.2675
32768SOL    HW2 2990  10.292   3.606  11.694  0.3035  0.8643 -3.7914
32769SOL     OW 2991   9.656   5.472   8.948  0.0244  0.1063 -0.4957
32769SOL    HW1 2992   9.751   5.462   8.948  0.1585  1.1708  0.3186
32769SOL    HW2 2993   9.623   5.388   8.980  0.4966 -1.3220 -3.4050
32770SOL     OW 2994   1.697   9.398   2.631  0.1975 -0.3631  0.7324
32770SOL    HW1 2995   1.720   9.482   2.671  0.9432 -0.6997  1.0403
32770SOL    HW2 2996   1.781   9.353   2.622 -0.1274 -0.8308  0.0107
32771SOL     OW 2997   0.341   6.584   3.484  0.2283 -0.5155  0.2745
32771SOL    HW1 2998   0.386   6.579   3.568 -1.0541 -2.2754  0.9180
32771SOL    HW2 2999   0.248   6.578   3.506 -0.2206  0.4439 -1.1891
32772SOL     OW 3000   0.508   2.424   6.280  0.0097  0.0486  0.1315
32772SOL    HW1 3001   0.586   2.470   6.309  0.2046 -0.1224 -0.1209
32772SOL    HW2 3002   0.539   2.339   6.250 -0.2471  0.0520 -0.1527
32773SOL     OW 3003  10.858   8.422   5.298  0.0581 -0.8775  0.0942
32773SOL    HW1 3004  10.924   8.454   5.237  0.3451  0.6569  1.1571
32773SOL    HW2 3005  10.898   8.432   5.384 -0.7427 -1.9920  0.6159
32774SOL     OW 3006   9.304  10.700   2.103 -0.0039  0.2699  0.2675
32774SOL    HW1 3007   9.352  10.618   2.108 -0.4731  0.0707  1.7318
32774SOL    HW2 3008   9.300  10.719   2.009  0.5104 -1.1250 -0.0627
32775SOL     OW 3009   9.628   4.286   3.832 -0.2955  0.3705  0.5119
32775SOL    HW1 3010   9.636   4.312   3.740 -1.5603 -3.3034 -0.8133
32775SOL    HW2 3011   9.542   4.319   3.858 -0.3080  0.6856  0.0843
32776SOL     OW 3012  10.269   9.889   8.068  0.1140 -0.2743  0.4159
32776SOL    HW1 3013  10.230   9.811   8.029  0.2854 -1.0252  1.6976
32776SOL    HW2 3014  10.293   9.943   7.993  0.4341 -1.6627 -0.5370
32777SOL     OW 3015   8.968   2.211  10.213  0.0806 -0.1969 -0.1478
32777SOL    HW1 3016   8.891   2.204  10.157 -0.4146 -2.0750  0.6902
32777SOL    HW2 3017   8.942   2.276  10.279 -1.0043 -1.1624  0.4161
32778SOL     OW 3018  10.185   9.132  11.465  0.5570 -0.0898 -0.3725
32778SOL    HW1 3019  10.192   9.168  11.554 -0.2729  1.4339 -0.8849
32778SOL    HW2 3020  10.213   9.041  11.473  0.9656  0.1614  1.3542
32779SOL     OW 3021   6.884   0.704   9.394  0.4247 -0.4326  0.3704
32779SOL    HW1 3022   6.912   0.615   9.375  2.1381  0.0248  0.5720
32779SOL    HW2 3023   6.903   0.715   9.488  0.1922  0.1199  0.3558
32780SOL     OW 3024  10.348  10.246  10.722  0.2535 -0.5105  0.3889
32780SOL    HW1 3025  10.384  10.171  10.770  1.6244  0.5878  1.1270
32780SOL    HW2 3026  10.369  10.322  10.776 -0.6395  0.4787 -0.6054
32781SOL     OW 3027   2.433  10.818   8.656  0.0630 -0.1117  0.1748
32781SOL    HW1 3028   2.371  10.850   8.592  0.7965 -1.5740 -1.3409
32781SOL    HW2 3029   2.496  10.890   8.666  0.9257 -0.4742 -2.1136
32782SOL     OW 3030   8.412   4.311   8.556 -0.3207 -0.0460 -0.0167
32782SOL    HW1 3031   8.429   4.400   8.587  0.0134 -1.2312  3.7914
32782SOL    HW2 3032   8.317   4.308   8.544 -0.2664  0.9740 -0.7738
32783SOL     OW 3033  10.481  10.916   7.865 -0.1870  1.0398 -0.1373
32783SOL    HW1 3034  10.411  10.878   7.918 -0.9406  0.6047 -1.3857
32783SOL    HW2 3035  10.520  10.984   7.921 -0.4186  0.0794  1.2267
32784SOL     OW 3036   5.468   5.960   0.881 -0.2089 -0.6163 -0.4744
32784SOL    HW1 3037   5.550   5.977   0.834  0.2717  0.4893  0.7072
32784SOL    HW2 3038   5.424   6.045   0.885 -0.6663 -0.8804  0.2751
32785SOL     OW 3039  11.072   1.665   8.764 -0.0248  0.2691  0.5037
32785SOL    HW1 3040  11.133   1.737   8.781  1.2818 -0.8305  0.6353
32785SOL    HW2 3041  11.026   1.691   8.684  1.1487  0.7932 -0.0265
32786SOL     OW 3042   4.138   0.079   9.855  0.0831 -0.1493  0.4264
32786SOL    HW1 3043   4.202   0.129   9.804  0.0579  1.7552  2.0958
32786SOL    HW2 3044   4.188   0.043   9.928 -0.4464  0.0071  0.8763
32787SOL     OW 3045   7.479   7.413   7.933  0.5933 -0.0437  0.4938
32787SOL    HW1 3046   7.558   7.395   7.983  0.2760  1.4708  1.5998
32787SOL    HW2 3047   7.486   7.505   7.908  0.0055 -0.3568 -0.9599
32788SOL     OW 3048   7.560  11.671   4.388  0.4633  0.2376  0.4713
32788SOL    HW1 3049   7.606  11.681   4.471 -1.5393  0.2619  1.6359
32788SOL    HW2 3050   7.575  11.580   4.363 -1.2283 -0.6309  2.3686
32789SOL     OW 3051   9.888   4.225   1.350  0.5176  0.1131 -0.9218
32789SOL    HW1 3052   9.817   4.186   1.300  0.2578 -1.4732  0.5771
32789SOL    HW2 3053   9.901   4.164   1.423  3.8236  0.0156 -1.4591
32790SOL     OW 3054  10.663   4.631   9.202  0.1174  0.6846 -0.2464
32790SOL    HW1 3055  10.742   4.620   9.254 -0.1511  3.2426  0.8563
32790SOL    HW2 3056  10.681   4.584   9.121  1.2705 -1.8854  1.3660
32791SOL     OW 3057   2.526   7.159   0.852 -0.0846  0.1534 -0.6536
32791SOL    HW1 3058   2.495   7.171   0.942 -0.8163 -1.8186 -0.5920
32791SOL    HW2 3059   2.608   7.110   0.862 -0.3679 -0.4116 -1.0612
32792SOL     OW 3060   1.192   9.922   2.800 -0.2778  0.2331 -0.6001
32792SOL    HW1 3061   1.168   9.979   2.726 -0.8275  1.1162  0.2315
32792SOL    HW2 3062   1.117   9.863   2.810 -1.2681  1.6502  0.7033
32793SOL     OW 3063   9.713   3.007   5.035  0.2027 -0.7878 -0.2858
32793SOL    HW1 3064   9.779   3.052   5.086 -1.1684  1.4515 -0.3298
32793SOL    HW2 3065   9.741   3.018   4.944 -0.3179  0.3826 -0.3202
32794SOL     OW 3066   6.914   3.904   1.517 -0.3105 -0.3137  0.2548
32794SOL    HW1 3067   6.885   3.946   1.598 -1.2762 -0.3562 -0.0582
32794SOL    HW2 3068   6.835   3.898   1.463 -0.0878 -2.0257  0.0688
32795SOL     OW 3069   8.709   2.140  10.059 -0.2710  0.1830  0.1587
32795SOL    HW1 3070   8.727   2.056  10.016 -0.6103 -0.6668  1.6307
32795SOL    HW2 3071   8.667   2.117  10.141 -0.9441  1.8405  0.3145
32796SOL     OW 3072   6.591   0.656   4.640 -0.4316  0.1795 -0.2222
32796SOL    HW1 3073   6.536   0.727   4.672 -1.8731 -0.8670 -0.2928
32796SOL    HW2 3074   6.540   0.577   4.656  1.6973 -1.0204  1.1523
32797SOL     OW 3075   1.882   5.040   4.640  0.0746  1.1715 -0.0633
32797SOL    HW1 3076   1.888   5.121   4.691 -0.6622  0.1034  1.8176
32797SOL    HW2 3077   1.939   4.979   4.686 -0.3808  0.2502 -0.7091
32798SOL     OW 3078   1.038  10.497   5.855 -0.7700 -0.3098 -0.3069
32798SOL    HW1 3079   0.953  10.456   5.872 -1.5325  1.3749  0.1202
32798SOL    HW2 3080   1.031  10.583   5.896  1.1032 -0.0868 -0.4022
32799SOL     OW 3081  11.138   6.015   5.834  0.0889 -0.2198  0.5132
32799SOL    HW1 3082  11.210   5.980   5.887  0.6954  2.2170  1.4426
32799SOL    HW2 3083  11.060   5.972   5.869  0.8041 -0.8624  1.3830
32800SOL     OW 3084   8.800   7.882   5.468  0.2269  0.6103 -1.5184
32800SOL    HW1 3085   8.843   7.953   5.421  1.3501 -0.2517 -1.8207
32800SOL    HW2 3086   8.773   7.821   5.399  1.9686 -0.7127 -1.0812
32801SOL     OW 3087  10.762   6.946   2.018 -0.0847 -0.3364  0.4065
32801SOL    HW1 3088  10.669   6.954   2.040  0.0290 -0.8045  1.0816
32801SOL    HW2 3089  10.765   6.880   1.950 -0.4213  0.9957 -0.9535
32802SOL     OW 3090   1.827   8.333   4.849  0.1464 -0.3413  0.6237
32802SOL    HW1 3091   1.819   8.252   4.799  0.7454  0.9999 -1.8353
32802SOL    HW2 3092   1.737   8.360   4.866 -0.0539 -1.5268  1.5317
32803SOL     OW 3093   5.152   3.665   5.991  0.4743  0.5959  0.4780
32803SOL    HW1 3094   5.143   3.586   6.044 -0.2988 -0.3669 -0.9973
32803SOL    HW2 3095   5.066   3.707   5.997  0.9246  1.4226  1.3650
32804SOL     OW 3096   7.550  11.522   0.478 -0.3971  0.2885  0.2340
32804SOL    HW1 3097   7.572  11.610   0.509 -0.5435  1.0295 -1.6715
32804SOL    HW2 3098   7.529  11.533   0.386 -0.3355 -1.7758 -0.0748
32805SOL     OW 3099   5.814   4.192   9.742  0.5886  0.4992 -0.1443
32805SOL    HW1 3100   5.719   4.186   9.749  0.4982 -0.3150 -1.8163
32805SOL    HW2 3101   5.834   4.284   9.764 -0.3217  0.1891  2.3270
32806SOL     OW 3102   7.741   6.556   4.570 -0.1486  0.2396  0.3671
32806SOL    HW1 3103   7.833   6.566   4.547 -0.2564  0.4182  0.0037
32806SOL    HW2 3104   7.707   6.645   4.573 -0.6653  0.1202 -1.0267
32807SOL     OW 3105   4.100  10.678   3.346  0.1324  0.4414  0.1848
32807SOL    HW1 3106   4.091  10.754   3.403 -0.2932 -0.6624  1.6402
32807SOL    HW2 3107   4.160  10.620   3.393 -1.5210 -1.2190  0.3481
32808SOL     OW 3108   2.579   8.801   5.472 -0.2332  0.0578 -0.0394
32808SOL    HW1 3109   2.578   8.740   5.399 -2.1412  1.1504 -1.0097
32808SOL    HW2 3110   2.653   8.859   5.454  0.7841 -1.1178  0.2090
32809SOL     OW 3111  11.821   9.000   6.594 -0.0857  0.2958 -0.3127
32809SOL    HW1 3112  11.902   9.050   6.595  0.7502 -0.9508 -1.5761
32809SOL    HW2 3113  11.850   8.909   6.584 -1.6217 -0.2500 -0.0215
32810SOL     OW 3114   0.408   0.404   2.453 -0.0088  0.1086 -0.5080
32810SOL    HW1 3115   0.457   0.483   2.430  0.2378  0.3529  0.7979
32810SOL    HW2 3116   0.320   0.420   2.418  0.2634  0.6003 -0.9825
32811SOL     OW 3117   0.161   4.483   2.251  0.4228  0.4213 -0.7430
32811SOL    HW1 3118   0.137   4.484   2.158 -1.0628 -0.0685 -0.3936
32811SOL    HW2 3119   0.252   4.454   2.252  0.5001  0.5501 -2.0502
32812SOL     OW 3120  11.537   2.288   0.881 -0.3800 -0.2534 -0.7100
32812SOL    HW1 3121  11.566   2.213   0.828  2.0838  0.0407  0.0766
32812SOL    HW2 3122  11.550   2.363   0.824 -0.7891 -0.2193 -0.7612
32813SOL     OW 3123   3.648   7.021  10.049 -0.1922  0.7679  0.2775
32813SOL    HW1 3124   3.678   6.945  10.099  1.1861  0.6677 -0.6365
32813SOL    HW2 3125   3.663   7.096  10.108  3.2354  0.8948 -0.5203
32814SOL     OW 3126   7.542   8.962   2.115  0.6046 -0.2657 -0.6830
32814SOL    HW1 3127   7.609   9.025   2.141  0.4936  0.0397 -1.1138
32814SOL    HW2 3128   7.479   8.963   2.186 -0.2902  1.4166 -1.4342
32815SOL     OW 3129   9.481   3.560   4.447  0.5200  0.5773 -0.1908
32815SOL    HW1 3130   9.571   3.569   4.418  1.1071 -0.3767  1.2403
32815SOL    HW2 3131   9.470   3.630   4.511  0.1168  0.9149 -0.6209
32816SOL     OW 3132   1.550   9.666  10.102  0.2540  0.1238 -0.3802
32816SOL    HW1 3133   1.465   9.659  10.147  0.6379 -1.4929  0.1417
32816SOL    HW2 3134   1.591   9.580  10.114  0.4474 -0.3704 -3.7443
32817SOL     OW 3135   5.966  11.504   0.049  0.4299  0.2670  0.6765
32817SOL    HW1 3136   6.043  11.476   0.098  1.3526 -0.5591 -1.1488
32817SOL    HW2 3137   5.931  11.423   0.011  1.5694  1.1184 -2.4942
32818SOL     OW 3138  11.433   5.330   7.812  0.2963 -0.2257  0.0774
32818SOL    HW1 3139  11.397   5.319   7.900 -1.2519  1.2077 -0.3079
32818SOL    HW2 3140  11.523   5.299   7.818 -0.6863 -3.2063  1.3516
32819SOL     OW 3141   5.714   1.312   3.997  0.2669  0.9001 -0.0574
32819SOL    HW1 3142   5.763   1.329   4.078  1.4763 -0.2628 -0.5270
32819SOL    HW2 3143   5.761   1.361   3.930 -1.3874  2.8150  0.0544
32820SOL     OW 3144   0.398   4.732   9.589  0.5258  0.3481 -0.4303
32820SOL    HW1 3145   0.352   4.790   9.529 -0.5013  1.0993  1.0218
32820SOL    HW2 3146   0.447   4.790   9.647  0.5092 -0.2767  0.2317
32821SOL     OW 3147   1.779   4.953   9.501 -0.0797 -0.0115 -0.3782
32821SOL    HW1 3148   1.758   5.040   9.536 -0.8176 -0.3610  0.0840
32821SOL    HW2 3149   1.860   4.966   9.452  0.7088  0.6355  1.0007
32822SOL     OW 3150   2.874  10.745   9.658 -0.4349 -0.6635  0.3296
32822SOL    HW1 3151   2.968  10.747   9.678 -0.4102 -1.1817  0.2794
32822SOL    HW2 3152   2.839  10.676   9.714 -0.3323 -2.3328 -1.5474
32823SOL     OW 3153   6.243   3.092  10.289 -0.0354 -0.1441 -0.2442
32823SOL    HW1 3154   6.258   2.997  10.292  1.3117 -0.0689 -2.2601
32823SOL    HW2 3155   6.323   3.127  10.250 -0.4574  1.8683  0.5819
32824SOL     OW 3156   5.742   3.323   6.718 -0.0418 -0.3513  0.2661
32824SOL    HW1 3157   5.787   3.250   6.675 -1.7966 -2.1799  1.3093
32824SOL    HW2 3158   5.650   3.300   6.713 -0.7130  2.1101  0.2060
32825SOL     OW 3159   1.535  11.830   5.887  0.3716 -0.0087 -0.2704
32825SOL    HW1 3160   1.546  11.787   5.971  0.6253 -0.9140 -0.7482
32825SOL    HW2 3161   1.440  11.837   5.876  0.3430  0.4388  0.2474
32826SOL     OW 3162   7.581   7.261  11.031 -0.2581 -0.2633 -0.0702
32826SOL    HW1 3163   7.564   7.345  11.075 -1.7746 -0.7088  0.2554
32826SOL    HW2 3164   7.617   7.286  10.946 -0.9666  0.7388 -0.0936
32827SOL     OW 3165   2.514   9.440  10.488  0.1924 -0.4523 -0.4692
32827SOL    HW1 3166   2.575   9.368  10.501 -2.2754 -2.9275 -1.5430
32827SOL    HW2 3167   2.536   9.475  10.402  1.5336  0.2694  0.1399
32828SOL     OW 3168   1.408   8.610   3.447 -0.2621  0.2044 -0.1810
32828SOL    HW1 3169   1.434   8.669   3.377  0.2030  0.8587  0.5207
32828SOL    HW2 3170   1.489   8.562   3.468 -0.3501  0.1466  0.0276
32829SOL     OW 3171   6.916   6.681   7.656  0.2339 -0.2712  0.2139
32829SOL    HW1 3172   6.881   6.599   7.692 -2.2602  1.4244  2.0083
32829SOL    HW2 3173   6.869   6.693   7.574 -3.0400  1.5261  2.1684
32830SOL     OW 3174   4.802   1.721   2.777 -0.7530 -0.2673 -0.2070
32830SOL    HW1 3175   4.773   1.771   2.853  0.1557  0.0714 -0.0756
32830SOL    HW2 3176   4.724   1.675   2.748 -1.2966  0.2201  0.4523
32831SOL     OW 3177   7.534   8.075   3.374  0.2295  0.2526  0.2518
32831SOL    HW1 3178   7.506   7.991   3.338 -0.2213  0.1287  0.8546
32831SOL    HW2 3179   7.574   8.121   3.301  0.0144 -0.2831 -0.2106
32832SOL     OW 3180   1.042  10.046   5.821  0.5419  0.0760 -0.2180
32832SOL    HW1 3181   1.017  10.082   5.736  1.2289 -1.3205 -1.0647
32832SOL    HW2 3182   1.079  10.120   5.869 -3.2286  1.7941  0.3992
32833SOL     OW 3183   9.757   5.324   9.484 -0.2318 -0.2352  0.0723
32833SOL    HW1 3184   9.724   5.321   9.394 -1.1142  0.6648  0.3520
32833SOL    HW2 3185   9.706   5.393   9.526  0.8575  0.0361  0.9956
32834SOL     OW 3186   7.192  11.957   9.723 -0.0772 -0.8280  0.0270
32834SOL    HW1 3187   7.218  12.049   9.719  0.2930 -0.9746 -2.3038
32834SOL    HW2 3188   7.097  11.959   9.709 -0.1493 -0.7721  0.5173
32835SOL     OW 3189  11.995   2.084   6.132  0.5812 -0.2038 -0.2853
32835SOL    HW1 3190  11.940   2.105   6.207  1.9086  1.1089  0.3851
32835SOL    HW2 3191  11.986   1.989   6.120  0.7557 -0.5394  1.8942
32836SOL     OW 3192   0.196  10.801   7.976 -0.0896 -0.0584 -0.0135
32836SOL    HW1 3193   0.224  10.761   7.893  1.0129  1.5782 -0.4780
32836SOL    HW2 3194   0.250  10.758   8.042  1.0644  0.6149 -0.4991
32837SOL     OW 3195   9.589   9.398   7.249  0.3522  0.4951 -0.3462
32837SOL    HW1 3196   9.670   9.386   7.199  0.0562 -2.5649 -0.2895
32837SOL    HW2 3197   9.602   9.348   7.329 -1.3064  0.5458  0.0007
32838SOL     OW 3198   2.981   5.667   2.080 -0.1132  0.3553 -0.3666
32838SOL    HW1 3199   2.928   5.738   2.046 -1.2267 -0.2671  0.0119
32838SOL    HW2 3200   2.937   5.587   2.049  1.1316 -0.1752 -0.8261
32839SOL     OW 3201   2.381  10.253   7.809  0.1048  0.0375  0.3673
32839SOL    HW1 3202   2.459  10.203   7.837 -0.5875 -1.2106  0.1599
32839SOL    HW2 3203   2.399  10.276   7.718  0.0408 -0.6807  0.1643
32840SOL     OW 3204   5.036   1.701   1.461 -0.1263 -0.4434  0.0503
32840SOL    HW1 3205   5.126   1.732   1.452 -0.2824 -0.1881 -0.7016
32840SOL    HW2 3206   5.021   1.650   1.381 -0.6614 -0.4515  0.1561
32841SOL     OW 3207   4.953   6.421   7.557  0.8878 -0.4463  0.4185
32841SOL    HW1 3208   4.996   6.453   7.637 -1.3200 -0.2619  1.6179
32841SOL    HW2 3209   4.949   6.326   7.568  1.9123 -0.5680 -0.1989
32842SOL     OW 3210  10.333   6.571   0.907 -0.2864 -0.5526  0.4784
32842SOL    HW1 3211  10.367   6.660   0.921 -4.2039  1.2519  0.0748
32842SOL    HW2 3212  10.238   6.581   0.917 -1.2555 -3.9946 -3.1088
32843SOL     OW 3213   5.643   9.112   1.945 -0.6955  0.0026 -0.1123
32843SOL    HW1 3214   5.595   9.126   2.026 -3.4075  1.3215 -1.7943
32843SOL    HW2 3215   5.586   9.056   1.892  0.7620 -0.4237 -1.3282
32844SOL     OW 3216   9.401   8.812  10.459 -0.5934 -0.0166  0.6434
32844SOL    HW1 3217   9.421   8.902  10.485 -1.8397 -0.0086  1.6554
32844SOL    HW2 3218   9.468   8.759  10.503  0.2947  0.4014 -0.1489
32845SOL     OW 3219  11.715   1.810   0.979 -0.0662  0.0556  0.1058
32845SOL    HW1 3220  11.709   1.818   0.884  1.0724 -1.7454 -0.1615
32845SOL    HW2 3221  11.700   1.717   0.997  2.0192 -0.0963  1.4445
32846SOL     OW 3222  10.863   1.691   4.061 -0.4581 -0.0099 -0.0159
32846SOL    HW1 3223  10.921   1.668   3.989  0.9868  0.9105  0.8033
32846SOL    HW2 3224  10.907   1.763   4.106 -1.5788 -0.1845  1.4654
32847SOL     OW 3225  11.421   6.718   5.074  0.0388 -0.0898 -0.2550
32847SOL    HW1 3226  11.450   6.809   5.063  0.7595  0.0100  2.0564
32847SOL    HW2 3227  11.338   6.714   5.027  0.1604  1.6474 -0.7060
32848SOL     OW 3228   6.990   0.749   1.829  0.1016  0.0377  0.0650
32848SOL    HW1 3229   7.022   0.699   1.905  0.2995 -0.1398 -0.1316
32848SOL    HW2 3230   6.908   0.705   1.805 -0.3591  0.5669  0.6432
32849SOL     OW 3231   0.842  11.149   6.912  0.5434 -0.2981  0.2672
32849SOL    HW1 3232   0.831  11.080   6.977  0.6529  1.2838  2.0353
32849SOL    HW2 3233   0.920  11.197   6.941 -1.8404  3.1284  1.5746
32850SOL     OW 3234   6.232   4.518   5.685  0.2605  0.3214  0.2556
32850SOL    HW1 3235   6.298   4.509   5.616 -0.8842  0.5578 -0.9108
32850SOL    HW2 3236   6.275   4.571   5.752  1.3873  0.1330 -0.2978
32851SOL     OW 3237  10.874   6.200   4.108  0.0731  0.5412  0.2698
32851SOL    HW1 3238  10.868   6.107   4.129 -0.3140  0.9861  2.4731
32851SOL    HW2 3239  10.804   6.216   4.045 -0.0520 -0.6087  0.1099
32852SOL     OW 3240   2.174   2.589   3.697  0.0047  0.6441  0.0534
32852SOL    HW1 3241   2.119   2.604   3.620  0.1592 -1.4538 -0.5179
32852SOL    HW2 3242   2.112   2.572   3.768 -0.1318 -0.6233 -0.3471
32853SOL     OW 3243   6.020   9.929   4.655  0.0158 -1.1751 -0.1361
32853SOL    HW1 3244   5.966   9.901   4.582  2.3139 -1.5533 -1.8206
32853SOL    HW2 3245   6.065  10.008   4.623  2.0922 -2.1117  0.2875
32854SOL     OW 3246   6.371   5.079   1.201  0.0909 -0.3852 -0.4049
32854SOL    HW1 3247   6.450   5.062   1.150  0.5779  0.2123  0.1349
32854SOL    HW2 3248   6.378   5.019   1.276  0.5145  0.3320  0.1401
32855SOL     OW 3249   9.189   4.470   4.869  0.2210  0.1951 -0.3026
32855SOL    HW1 3250   9.203   4.563   4.854 -2.3259  0.4150 -1.8822
32855SOL    HW2 3251   9.226   4.428   4.791  0.7867 -0.0711  0.1049
32856SOL     OW 3252   2.204   9.964   9.896  0.1850 -0.2578  0.2923
32856SOL    HW1 3253   2.241  10.047   9.868 -1.0312  0.0158 -0.5970
32856SOL    HW2 3254   2.254   9.898   9.848  2.1035 -0.1790  2.0543
32857SOL     OW 3255   0.894   6.950   2.331  0.0712 -0.1266  0.2191
32857SOL    HW1 3256   0.929   7.035   2.357  0.4819 -0.2122 -0.0508
32857SOL    HW2 3257   0.969   6.904   2.293 -0.2609 -0.4319 -0.0662
32858SOL     OW 3258   9.296   7.070   4.580 -0.1717 -0.2459  0.5081
32858SOL    HW1 3259   9.357   7.093   4.651  1.1326 -2.0320  0.0358
32858SOL    HW2 3260   9.302   6.974   4.574 -1.7034 -0.2926 -0.7530
32859SOL     OW 3261   2.942   8.033  11.856  0.3268 -0.4584 -0.1953
32859SOL    HW1 3262   2.874   7.974  11.890  0.6251 -0.7539 -0.1162
32859SOL    HW2 3263   2.903   8.070  11.777 -0.3086  0.1118  0.3704
32860SOL     OW 3264   7.232   1.903  11.535 -0.2912  0.0027  0.0634
32860SOL    HW1 3265   7.297   1.970  11.516  1.4201 -2.0595 -2.0757
32860SOL    HW2 3266   7.257   1.869  11.621  0.6902  0.1039 -0.1689
32861SOL     OW 3267   0.640   0.328   0.718  0.4439 -0.0489 -0.1129
32861SOL    HW1 3268   0.725   0.287   0.738  1.1773  0.9685 -1.0090
32861SOL    HW2 3269   0.607   0.280   0.643  1.0312  0.6012 -0.8027
32862SOL     OW 3270   9.838  10.244   8.872 -0.1420  0.1329  0.7071
32862SOL    HW1 3271   9.763  10.273   8.821  0.4247  0.9400  0.3300
32862SOL    HW2 3272   9.807  10.245   8.963 -0.5802  0.4736  0.5536
32863SOL     OW 3273  10.353   5.783   1.827  0.0432  0.0625  0.2713
32863SOL    HW1 3274  10.267   5.742   1.821  0.9717 -1.7206 -1.9776
32863SOL    HW2 3275  10.335   5.877   1.825 -1.9018 -0.2230  1.6336
32864SOL     OW 3276   6.386   2.306   6.126 -0.1598 -0.1092  0.1712
32864SOL    HW1 3277   6.386   2.218   6.163  1.0096  0.4545  1.6109
32864SOL    HW2 3278   6.479   2.328   6.116 -0.2238  2.3028  3.3475
32865SOL     OW 3279  10.905   0.090  11.794  0.0158  0.0122  0.6097
32865SOL    HW1 3280  10.838   0.021  11.801 -0.7420  0.7964  1.4331
32865SOL    HW2 3281  10.968   0.056  11.731  0.6757 -2.2804  2.3825
32866SOL     OW 3282   9.695  10.803   8.822 -0.0257 -0.0351  0.2371
32866SOL    HW1 3283   9.641  10.879   8.843  0.3176 -0.3704  2.6506
32866SOL    HW2 3284   9.766  10.837   8.767 -1.3587  0.8374 -0.9875
32867SOL     OW 3285   9.270  10.200  10.813 -0.2180 -0.5110  0.0526
32867SOL    HW1 3286   9.207  10.173  10.880 -0.7270 -1.1382 -0.6601
32867SOL    HW2 3287   9.236  10.163  10.732  2.0573 -2.5791 -0.0929
32868SOL     OW 3288   0.906   9.485  10.095  0.1353  0.4065 -0.1791
32868SOL    HW1 3289   0.907   9.485  10.000 -0.4508 -0.2301 -0.1898
32868SOL    HW2 3290   0.994   9.456  10.120  0.4206  0.9590 -0.5110
32869SOL     OW 3291   6.755   7.857   8.248 -0.1634 -0.5310  0.5325
32869SOL    HW1 3292   6.793   7.945   8.249 -0.7543 -0.2774  0.5694
32869SOL    HW2 3293   6.819   7.805   8.199 -1.0720  0.4927 -1.9050
32870SOL     OW 3294   2.061   6.843   1.256  0.5220  0.2886 -0.1337
32870SOL    HW1 3295   1.968   6.827   1.240  0.1595  2.9782 -1.2762
32870SOL    HW2 3296   2.105   6.795   1.186  0.2346 -2.5330  1.4669
32871SOL     OW 3297  10.766   5.958   5.208  0.2069  0.5524  0.1265
32871SOL    HW1 3298  10.827   5.935   5.138  1.2532  2.4461  0.3728
32871SOL    HW2 3299  10.813   6.021   5.262 -1.3378  0.7178  1.3506
32872SOL     OW 3300   9.398   7.858   0.487 -0.2660 -0.0847 -0.1375
32872SOL    HW1 3301   9.465   7.891   0.545 -0.6007  2.2702 -0.9902
32872SOL    HW2 3302   9.395   7.764   0.504 -0.4317  0.4681  3.6952
32873SOL     OW 3303   7.310   1.578   9.431 -0.3625  0.4716 -0.4237
32873SOL    HW1 3304   7.385   1.623   9.391 -0.3453  1.9533  1.1353
32873SOL    HW2 3305   7.245   1.648   9.443 -1.1739 -0.3700  0.1576
32874SOL     OW 3306   8.549   0.920   5.766  0.0861  0.1642  0.1829
32874SOL    HW1 3307   8.532   1.005   5.807 -2.2867 -0.7627  1.3094
32874SOL    HW2 3308   8.472   0.868   5.787  0.6785 -1.7356 -1.9909
32875SOL     OW 3309   4.594   9.938   0.618  0.1027 -0.1882  0.6778
32875SOL    HW1 3310   4.557   9.851   0.600  0.4567 -0.1517 -0.2702
32875SOL    HW2 3311   4.542   9.998   0.565  1.0313 -0.0534 -0.1145
32876SOL     OW 3312   0.661   6.893   1.458  0.0030 -0.3524 -0.2725
32876SOL    HW1 3313   0.745   6.928   1.430 -0.1668  0.6391  0.3773
32876SOL    HW2 3314   0.598   6.926   1.394 -0.0737  0.0837  0.0173
32877SOL     OW 3315   7.366   8.654   3.607 -0.3969  0.8602 -0.0950
32877SOL    HW1 3316   7.281   8.694   3.624 -1.3779 -0.9258 -0.5254
32877SOL    HW2 3317   7.360   8.619   3.519 -0.4933 -2.1882  1.0002
32878SOL     OW 3318   9.034   8.233   8.559  0.2019  0.6525  0.6088
32878SOL    HW1 3319   9.057   8.180   8.635  0.2482  0.0996  0.2127
32878SOL    HW2 3320   9.035   8.323   8.592  0.4026  0.4338  1.2160
32879SOL     OW 3321   5.487   0.892   7.805 -0.1385  0.2816  0.3229
32879SOL    HW1 3322   5.470   0.810   7.759  0.8071  0.4088 -0.2706
32879SOL    HW2 3323   5.404   0.912   7.849  0.4394 -2.7231  3.2595
32880SOL     OW 3324   0.391   5.664   7.231 -0.0229 -0.1171 -0.2884
32880SOL    HW1 3325   0.441   5.595   7.187 -1.3617 -0.1378 -1.8422
32880SOL    HW2 3326   0.313   5.620   7.263  0.1198  0.2680  0.6271
32881SOL     OW 3327   4.304   9.503   0.204 -0.5868 -0.5082  0.2916
32881SOL    HW1 3328   4.326   9.478   0.114  0.6571 -3.3532  1.2684
32881SOL    HW2 3329   4.208   9.509   0.204 -0.5447  1.8204 -1.6608
32882SOL     OW 3330   8.890   8.872   2.170  0.4179  0.0561 -0.2596
32882SOL    HW1 3331   8.973   8.889   2.214  1.1239 -2.8909 -0.2365
32882SOL    HW2 3332   8.825   8.868   2.241  0.6132  0.3529 -0.0627
32883SOL     OW 3333   9.713  11.874   4.470  0.2664  0.5169 -0.0217
32883SOL    HW1 3334   9.748  11.940   4.411 -2.0447  0.1128 -1.9876
32883SOL    HW2 3335   9.676  11.923   4.543 -0.0794  1.2898 -0.7084
32884SOL     OW 3336  11.794   0.304   3.935  0.4463 -0.1362  0.3044
32884SOL    HW1 3337  11.734   0.377   3.949  0.5876  0.0626 -0.1108
32884SOL    HW2 3338  11.880   0.338   3.961  0.2241 -0.7881  2.0414
32885SOL     OW 3339   2.986   1.026   1.681 -0.3499  0.8100  0.6881
32885SOL    HW1 3340   3.056   1.041   1.745  0.9428  1.4771 -0.7907
32885SOL    HW2 3341   2.925   1.098   1.695  0.7353  1.8739  0.1858
32886SOL     OW 3342   6.679   9.801   7.477 -0.0386  0.4834  0.3401
32886SOL    HW1 3343   6.749   9.742   7.504 -1.9612 -2.8609 -1.3992
32886SOL    HW2 3344   6.599   9.750   7.486 -2.0592  3.3226 -0.0451
32887SOL     OW 3345   8.785   7.698   5.257 -0.8246 -0.2044  0.6726
32887SOL    HW1 3346   8.874   7.661   5.258 -0.5673  0.3578  2.8631
32887SOL    HW2 3347   8.768   7.714   5.164  2.0105  1.2158  0.2775
32888SOL     OW 3348   5.750   2.815   2.301 -0.0271  0.2470  1.4273
32888SOL    HW1 3349   5.785   2.797   2.213  0.5345  0.3672  1.6278
32888SOL    HW2 3350   5.657   2.834   2.285 -0.2536 -1.0660  0.9991
32889SOL     OW 3351   7.385   0.600  11.133  0.0035 -0.4532  0.0631
32889SOL    HW1 3352   7.391   0.507  11.112 -1.4041 -0.5606  0.0487
32889SOL    HW2 3353   7.326   0.636  11.067  1.0603  0.6084 -0.3544
32890SOL     OW 3354  10.789   9.998   5.361 -0.0655 -0.4775  0.2350
32890SOL    HW1 3355  10.804  10.025   5.271  0.1512 -0.6601  0.2170
32890SOL    HW2 3356  10.697   9.972   5.364  0.0956 -1.0753 -0.0814
32891SOL     OW 3357   5.720  10.466  10.825  0.3763 -0.5541 -0.8465
32891SOL    HW1 3358   5.812  10.460  10.800  1.0879 -2.9449  1.7772
32891SOL    HW2 3359   5.692  10.376  10.838 -2.5664  0.0612 -2.0722
32892SOL     OW 3360   9.727   9.448   4.686  0.0598 -0.2967  0.2823
32892SOL    HW1 3361   9.803   9.438   4.629  0.5582  0.6354  0.7625
32892SOL    HW2 3362   9.716   9.362   4.728 -0.9248 -1.3304 -1.9061
32893SOL     OW 3363   0.344   7.159   1.996 -0.2451 -0.1691  0.2965
32893SOL    HW1 3364   0.366   7.160   1.903  0.3243 -0.8989  0.4123
32893SOL    HW2 3365   0.408   7.218   2.036 -1.6172  1.5772  0.0134
32894SOL     OW 3366  10.455  10.668   8.724  0.5885 -0.6220 -0.1844
32894SOL    HW1 3367  10.436  10.583   8.764 -0.4059 -1.1983 -1.7739
32894SOL    HW2 3368  10.369  10.707   8.707  0.9399 -0.4887 -1.8732
32895SOL     OW 3369  11.999   5.954   6.468  0.0854 -0.1365  0.1199
32895SOL    HW1 3370  11.983   5.911   6.384 -0.2253  1.8859 -0.9255
32895SOL    HW2 3371  12.094   5.954   6.477  0.1000 -0.8186  0.0417
32896SOL     OW 3372   9.424   3.773   4.717 -0.2956  0.0938 -0.2994
32896SOL    HW1 3373   9.397   3.709   4.782  0.6618 -0.8701 -0.8413
32896SOL    HW2 3374   9.341   3.800   4.676 -0.8982  0.6045  1.1684
32897SOL     OW 3375   8.259  10.142   7.356 -0.1498  0.2223  0.7384
32897SOL    HW1 3376   8.167  10.162   7.337  0.2704  2.0785  0.4272
32897SOL    HW2 3377   8.304  10.226   7.345  1.7185 -0.8089  0.0897
32898SOL     OW 3378   7.047   3.891   5.417 -0.2001  0.6072 -0.1148
32898SOL    HW1 3379   7.098   3.973   5.416  1.7883 -0.5203  1.4500
32898SOL    HW2 3380   6.998   3.892   5.335  2.2066  1.9005 -1.6400
32899SOL     OW 3381   1.343   9.175   8.807  0.3329  1.0435 -0.1744
32899SOL    HW1 3382   1.270   9.237   8.813 -1.3223 -0.8756  0.6559
32899SOL    HW2 3383   1.359   9.147   8.897  1.3888  0.6245 -0.4710
32900SOL     OW 3384  10.390   7.460   6.222 -0.0773  0.6416 -0.0666
32900SOL    HW1 3385  10.299   7.485   6.207  0.0537  0.6345 -0.9427
32900SOL    HW2 3386  10.440   7.540   6.208  0.2404  0.1763 -1.7982
32901SOL     OW 3387   1.876   4.810   5.180 -0.1390  0.2079 -0.0377
32901SOL    HW1 3388   1.785   4.838   5.186 -0.0478  1.3696 -2.7462
32901SOL    HW2 3389   1.922   4.865   5.243 -1.2193 -0.1195  1.0850
32902SOL     OW 3390  10.762   7.046   9.096  0.0167  0.2672  0.2466
32902SOL    HW1 3391  10.734   7.107   9.165 -0.5868  1.6543 -1.1580
32902SOL    HW2 3392  10.690   6.984   9.088  0.4284 -0.3918  1.3627
32903SOL     OW 3393   3.368  10.533   8.452  0.3333 -0.6050  0.5245
32903SOL    HW1 3394   3.347  10.582   8.532  1.5824  0.6181  0.1459
32903SOL    HW2 3395   3.353  10.596   8.381  0.0212 -1.4232 -0.1414
32904SOL     OW 3396   6.899   4.350   3.462 -0.1106  0.9123  0.3391
32904SOL    HW1 3397   6.985   4.345   3.419 -0.9728  3.2280 -1.8928
32904SOL    HW2 3398   6.920   4.350   3.556  2.1576 -0.4075 -0.0710
32905SOL     OW 3399   0.720   2.843   4.174 -0.0857  0.2398 -0.5852
32905SOL    HW1 3400   0.787   2.879   4.232 -0.4565 -0.1502  0.0921
32905SOL    HW2 3401   0.669   2.784   4.229 -1.3125  0.9105 -0.9487
32906SOL     OW 3402   6.442   7.540   2.564 -0.1779  0.0907 -0.2312
32906SOL    HW1 3403   6.524   7.508   2.527 -0.0962 -0.3528  0.3205
32906SOL    HW2 3404   6.466   7.571   2.652 -0.6703 -0.4508  0.1049
32907SOL     OW 3405   5.884   5.276   4.625 -0.2640 -0.7336  0.0797
32907SOL    HW1 3406   5.814   5.211   4.622  0.2101 -1.2393 -0.1834
32907SOL    HW2 3407   5.960   5.229   4.660  0.2659 -0.5097 -0.7232
32908SOL     OW 3408   4.132   9.686   2.712  0.2221 -0.7610  0.4248
32908SOL    HW1 3409   4.055   9.692   2.769 -2.3923  1.7406 -2.9202
32908SOL    HW2 3410   4.190   9.756   2.742 -0.9092  0.2348  0.3698
32909SOL     OW 3411   9.340   0.527   3.031 -0.2482 -0.3778  0.1746
32909SOL    HW1 3412   9.428   0.511   3.065 -0.3461 -0.0955  0.5786
32909SOL    HW2 3413   9.299   0.441   3.031 -0.2890 -0.3635  0.9198
32910SOL     OW 3414   9.425   0.426  11.295  0.3790 -0.3457 -0.0987
32910SOL    HW1 3415   9.462   0.509  11.266 -1.0481  0.1145 -0.6603
32910SOL    HW2 3416   9.495   0.386  11.348  1.1302  1.1392  0.0777
32911SOL     OW 3417   7.518   3.892   2.828 -0.4962  0.3002 -0.2972
32911SOL    HW1 3418   7.608   3.898   2.797 -0.8746 -0.6264 -1.6540
32911SOL    HW2 3419   7.525   3.895   2.924  0.9142  0.7840 -0.3966
32912SOL     OW 3420   9.607   8.360  11.006 -0.4503  0.4436 -0.3366
32912SOL    HW1 3421   9.611   8.364  10.910 -1.4922 -1.1246 -0.4794
32912SOL    HW2 3422   9.514   8.364  11.026 -0.2256  0.9686  0.6420
32913SOL     OW 3423   5.867   5.712   6.756 -0.4373 -0.4707  0.5567
32913SOL    HW1 3424   5.944   5.656   6.765  0.0091 -0.1104 -0.7145
32913SOL    HW2 3425   5.828   5.714   6.843  0.6397 -1.1732  1.0780
32914SOL     OW 3426   1.053   8.014   9.209 -0.0001  0.1466  0.2927
32914SOL    HW1 3427   0.959   8.030   9.219 -0.6326 -1.4361 -2.0962
32914SOL    HW2 3428   1.079   8.073   9.138  0.2886 -0.9016 -0.4967
32915SOL     OW 3429   4.866   7.381   3.175  0.3678 -0.2448  0.0265
32915SOL    HW1 3430   4.953   7.415   3.194  0.5917 -0.9357  0.2712
32915SOL    HW2 3431   4.810   7.459   3.172  0.7682  0.1044  1.1151
32916SOL     OW 3432  10.780   6.148   2.882  0.3738  0.3967  0.5485
32916SOL    HW1 3433  10.765   6.231   2.926  0.5879 -0.1274  1.6432
32916SOL    HW2 3434  10.805   6.088   2.952 -3.1808 -1.5304  0.3700
32917SOL     OW 3435   2.733   4.694   4.206  0.1420 -0.1940  0.0904
32917SOL    HW1 3436   2.706   4.617   4.157  0.8505  0.6291 -1.6955
32917SOL    HW2 3437   2.679   4.765   4.172 -1.3617 -0.0363  2.5544
32918SOL     OW 3438  11.817  10.750   2.178  0.1382  1.1894  0.0742
32918SOL    HW1 3439  11.800  10.772   2.087 -1.7315  0.0168  0.0883
32918SOL    HW2 3440  11.741  10.785   2.225  0.6251  0.9694  1.0459
32919SOL     OW 3441  11.781   6.509   8.505  0.2339  0.2307  0.5481
32919SOL    HW1 3442  11.833   6.495   8.425  0.3235  0.2082  0.6095
32919SOL    HW2 3443  11.702   6.553   8.475 -0.7372 -1.6722  0.1245
32920SOL     OW 3444   2.628   4.925   8.808  0.1793  0.0364 -0.1270
32920SOL    HW1 3445   2.590   4.840   8.832 -0.7028 -0.2382 -2.2995
32920SOL    HW2 3446   2.565   4.964   8.748  1.2763  1.5987 -0.3320
32921SOL     OW 3447   1.039   8.254   5.917  0.4854  0.3132  0.3294
32921SOL    HW1 3448   1.058   8.211   5.834 -1.6355  0.4550 -0.2870
32921SOL    HW2 3449   0.944   8.245   5.928  0.1531  3.4241  0.9331
32922SOL     OW 3450   4.584   3.897   1.279 -0.2463  0.3889  0.3618
32922SOL    HW1 3451   4.679   3.902   1.280 -0.3074  1.7429  0.9247
32922SOL    HW2 3452   4.562   3.887   1.186  0.4443 -0.5595  0.2803
32923SOL     OW 3453   1.031   6.004   2.684  0.0844 -0.1513 -0.2472
32923SOL    HW1 3454   1.120   6.020   2.716 -0.2671  1.8845 -0.1130
32923SOL    HW2 3455   1.021   5.909   2.687  1.3887 -0.2801  2.0478
32924SOL     OW 3456   2.494   0.490   2.917  0.1480 -0.2262  0.4572
32924SOL    HW1 3457   2.421   0.547   2.940  1.8331  2.5301 -0.4841
32924SOL    HW2 3458   2.572   0.539   2.942  1.7701 -1.4831 -1.7462
32925SOL     OW 3459   9.930   7.948   8.774  0.3825  0.7163 -0.2262
32925SOL    HW1 3460  10.015   7.970   8.812  0.4917 -0.9290  0.5977
32925SOL    HW2 3461   9.947   7.870   8.721 -0.7147 -0.0441  0.5055
32926SOL     OW 3462   6.255   7.620   4.170  0.2541  0.1798 -0.3208
32926SOL    HW1 3463   6.214   7.610   4.084  0.9403  0.1229 -0.6422
32926SOL    HW2 3464   6.319   7.690   4.159  0.9372 -0.3989 -0.0776
32927SOL     OW 3465   3.344   0.158   6.478  0.2592  0.0400 -0.2825
32927SOL    HW1 3466   3.426   0.153   6.527  1.2151 -1.0835 -1.8895
32927SOL    HW2 3467   3.288   0.092   6.518  1.6368 -2.0925 -1.6575
32928SOL     OW 3468   0.244   8.437   9.021 -0.2175  0.0494 -0.3409
32928SOL    HW1 3469   0.192   8.381   9.079  0.3593 -0.2091 -0.0604
32928SOL    HW2 3470   0.278   8.506   9.079 -1.5585  1.1624 -0.8284
32929SOL     OW 3471  10.946   8.611  10.066  0.2066  0.1233  0.3636
32929SOL    HW1 3472  10.978   8.584  10.152 -0.1569 -2.0802 -0.1257
32929SOL    HW2 3473  10.876   8.673  10.085 -0.6025 -1.1321  1.7384
32930SOL     OW 3474   1.535  10.158   3.611  0.1332 -0.4451 -0.4597
32930SOL    HW1 3475   1.498  10.117   3.690  3.1410 -0.5766  1.0370
32930SOL    HW2 3476   1.611  10.207   3.643 -0.2809  2.0610 -2.9261
32931SOL     OW 3477   1.904   0.519   6.930 -0.2232 -0.0502 -0.1520
32931SOL    HW1 3478   1.881   0.501   7.021  0.2385  0.3723  0.0476
32931SOL    HW2 3479   1.999   0.518   6.928 -0.2312 -0.6473 -0.7535
32932SOL     OW 3480   3.647   4.282   6.774  0.2086 -0.0063 -0.5740
32932SOL    HW1 3481   3.660   4.269   6.869 -1.1248 -0.9541 -0.4992
32932SOL    HW2 3482   3.656   4.194   6.737  2.6685  0.6027 -1.6283
32933SOL     OW 3483   6.256  11.255   6.808 -0.5510 -0.7354  0.0735
32933SOL    HW1 3484   6.190  11.303   6.859 -1.1495  0.9366 -2.1169
32933SOL    HW2 3485   6.225  11.165   6.808  0.1340 -1.1356  3.5901
32934SOL     OW 3486  10.008   7.644   7.419  0.2950 -0.0774  0.2581
32934SOL    HW1 3487   9.930   7.590   7.409  0.0073  0.0356  1.6657
32934SOL    HW2 3488   9.976   7.734   7.412  0.5176 -0.0583 -0.5188
32935SOL     OW 3489   3.972   7.498   8.475 -0.3098 -0.3580  0.6174
32935SOL    HW1 3490   4.003   7.408   8.473  0.7933  0.0183  0.0021
32935SOL    HW2 3491   4.000   7.536   8.392 -1.0439  0.4674  0.7220
32936SOL     OW 3492  11.886   9.529  11.728  0.0379 -0.1811  0.2768
32936SOL    HW1 3493  11.793   9.509  11.735  0.0074 -0.1094  0.0979
32936SOL    HW2 3494  11.901   9.597  11.794 -0.3283  0.7775 -0.5979
32937SOL     OW 3495   2.738   6.501   3.303 -0.1148 -0.3132  0.0824
32937SOL    HW1 3496   2.816   6.477   3.253 -0.7383  0.3766 -1.2717
32937SOL    HW2 3497   2.745   6.450   3.384  0.5667 -2.0465 -0.9995
32938SOL     OW 3498   2.843   4.508  11.939  0.4986 -0.6313 -0.2316
32938SOL    HW1 3499   2.808   4.545  11.858  1.5434  1.4685  0.2134
32938SOL    HW2 3500   2.774   4.449  11.970 -0.7664  0.0526 -1.6074
32939SOL     OW 3501   0.020   2.272   2.946 -0.2293 -0.5156  0.5528
32939SOL    HW1 3502  -0.059   2.286   2.997 -1.4043 -2.2069 -0.7118
32939SOL    HW2 3503   0.051   2.360   2.924 -1.1211  0.1761  1.9844
32940SOL     OW 3504   2.625   7.050   2.897  0.0849  0.8027 -0.0811
32940SOL    HW1 3505   2.530   7.059   2.886  0.0820  0.4218 -0.3871
32940SOL    HW2 3506   2.638   7.047   2.992 -0.2671  0.2580 -0.0506
32941SOL     OW 3507  10.339   7.879   5.869  0.4746  0.6702 -0.3020
32941SOL    HW1 3508  10.300   7.863   5.955 -1.1511  0.9453 -0.9509
32941SOL    HW2 3509  10.434   7.872   5.884  0.1883 -2.2583  0.9094
32942SOL     OW 3510   8.685  10.381   0.302  0.0564 -0.1740 -0.0410
32942SOL    HW1 3511   8.728  10.363   0.218 -0.5247  1.0982 -0.6443
32942SOL    HW2 3512   8.645  10.298   0.326  1.4293 -0.9512 -0.2843
32943SOL     OW 3513  11.139  10.044   5.031 -0.5597  0.0795 -0.5765
32943SOL    HW1 3514  11.113   9.959   5.068  0.7222  0.0541  0.3296
32943SOL    HW2 3515  11.125  10.034   4.937  2.1404 -2.1542 -0.8598
32944SOL     OW 3516   6.749   8.583   7.190  0.2545  0.2342 -0.1162
32944SOL    HW1 3517   6.669   8.621   7.225  0.0376 -0.6053  0.3186
32944SOL    HW2 3518   6.738   8.488   7.199  0.7993  0.0477 -1.1398
32945SOL     OW 3519   0.062  10.781   8.702 -0.0069 -0.5606  0.0479
32945SOL    HW1 3520   0.065  10.685   8.704  1.2947 -0.5516 -0.2245
32945SOL    HW2 3521   0.011  10.801   8.624 -0.9181 -1.0219  0.5115
32946SOL     OW 3522   0.896   7.245   6.791 -0.2608  0.3144 -0.2759
32946SOL    HW1 3523   0.809   7.241   6.749  0.2145  0.6655 -1.3258
32946SOL    HW2 3524   0.954   7.279   6.723  0.6567  0.3559  0.5067
32947SOL     OW 3525  11.544   5.975   9.150 -0.1806  0.1006  0.0240
32947SOL    HW1 3526  11.479   6.012   9.211 -1.2134 -0.4768 -0.6836
32947SOL    HW2 3527  11.569   6.049   9.094  1.7521  0.9572  1.9007
32948SOL     OW 3528   6.676   7.856   6.953 -0.7346 -0.1972 -0.6498
32948SOL    HW1 3529   6.726   7.803   7.015 -0.6289  0.6982  0.0408
32948SOL    HW2 3530   6.629   7.791   6.899 -1.9270 -1.0109  1.2415
32949SOL     OW 3531   2.564   3.650   6.147  0.3875  0.1698 -0.0159
32949SOL    HW1 3532   2.487   3.707   6.139  0.0061  0.4643  4.0186
32949SOL    HW2 3533   2.635   3.709   6.175  1.3563 -0.5686 -0.8502
32950SOL     OW 3534   1.018   4.985   5.952  0.9810  0.0355 -0.3510
32950SOL    HW1 3535   0.959   5.009   5.881  0.8169  0.6192 -0.0288
32950SOL    HW2 3536   1.084   4.929   5.911  1.6041  1.3702 -1.2312
32951SOL     OW 3537   6.891  11.847   2.991  0.1748  0.1449  0.0356
32951SOL    HW1 3538   6.960  11.881   2.933  2.3600  3.5608  4.0893
32951SOL    HW2 3539   6.835  11.922   3.008 -2.0634 -1.4900  0.2706
32952SOL     OW 3540  11.252  10.054   3.049 -0.8642 -0.2123  0.7597
32952SOL    HW1 3541  11.204  10.029   2.970  1.9834  1.3442 -1.6489
32952SOL    HW2 3542  11.303   9.976   3.072 -0.6629 -0.2490  0.2051
32953SOL     OW 3543   5.805   0.787  11.134  0.2043 -0.7451 -0.5087
32953SOL    HW1 3544   5.789   0.882  11.139 -1.6189 -0.9527 -1.4924
32953SOL    HW2 3545   5.833   0.772  11.044  1.5342 -1.0248 -0.0604
32954SOL     OW 3546   6.959   6.490   3.707  0.1410  0.6629  0.7639
32954SOL    HW1 3547   6.961   6.569   3.761 -0.0667 -0.6638  2.7975
32954SOL    HW2 3548   6.865   6.473   3.693  0.1912  1.5266 -0.9083
32955SOL     OW 3549   8.504   2.226   1.618  0.5304 -0.5597  0.0048
32955SOL    HW1 3550   8.473   2.313   1.594 -0.3023 -0.2473  2.0400
32955SOL    HW2 3551   8.589   2.218   1.574  0.5179  1.1876 -0.4058
32956SOL     OW 3552   6.485   1.900   9.181 -0.6310  0.5166  0.0825
32956SOL    HW1 3553   6.501   1.977   9.127  2.1289 -1.3549 -2.1003
32956SOL    HW2 3554   6.433   1.842   9.126  0.8560 -0.7707 -0.0559
32957SOL     OW 3555  11.628   6.605  10.461 -0.3679 -0.3099 -0.4109
32957SOL    HW1 3556  11.681   6.533  10.497 -1.0638 -0.4753  0.3058
32957SOL    HW2 3557  11.604   6.574  10.374  0.2366 -0.4793 -0.5247
32958SOL     OW 3558   4.659   7.156   1.415  0.1410  0.4096 -0.5340
32958SOL    HW1 3559   4.644   7.134   1.323 -0.4251  2.5438 -1.0100
32958SOL    HW2 3560   4.601   7.230   1.431  0.9307  0.6764  1.2931
32959SOL     OW 3561   2.111   5.610   6.045 -0.7557  0.0958  0.3766
32959SOL    HW1 3562   2.030   5.577   6.086 -0.9662 -1.0912 -0.9092
32959SOL    HW2 3563   2.092   5.609   5.951  0.6331  0.1595  0.0823
32960SOL     OW 3564   5.873  11.602   6.397 -0.2443 -0.7131  0.3049
32960SOL    HW1 3565   5.943  11.582   6.459  0.4411 -0.3623 -0.3363
32960SOL    HW2 3566   5.824  11.672   6.440  0.0358 -0.6889  0.5948
32961SOL     OW 3567   4.540   1.062   9.245 -0.1565 -0.3010 -0.7410
32961SOL    HW1 3568   4.457   1.088   9.285  0.1056  0.7180 -0.8452
32961SOL    HW2 3569   4.599   1.135   9.261  1.0516 -1.4325  0.2414
32962SOL     OW 3570   3.773   1.526   0.580  0.1664 -0.1602 -0.1531
32962SOL    HW1 3571   3.800   1.558   0.494 -3.6091  1.8798 -0.7770
32962SOL    HW2 3572   3.759   1.605   0.633 -0.9944 -1.1880  1.1634
32963SOL     OW 3573   1.513   8.749   1.452 -0.1116  0.5011  0.1580
32963SOL    HW1 3574   1.561   8.831   1.464 -2.4619  1.9324  0.4692
32963SOL    HW2 3575   1.541   8.717   1.366  1.8306  0.8895  0.6058
32964SOL     OW 3576   0.256   4.155   5.067  0.2296  0.4383  0.4695
32964SOL    HW1 3577   0.279   4.245   5.089  0.0798  0.5908  0.0071
32964SOL    HW2 3578   0.221   4.160   4.979  0.4827 -0.1165  0.3337
32965SOL     OW 3579   8.469  11.598   6.225 -0.3710  0.0908  0.0116
32965SOL    HW1 3580   8.525  11.654   6.280 -1.2471 -0.3400  1.3909
32965SOL    HW2 3581   8.485  11.509   6.258  0.0106 -0.3421 -1.2838
32966SOL     OW 3582   8.518   8.842   9.546 -0.3320 -0.5392  0.1125
32966SOL    HW1 3583   8.510   8.912   9.481 -0.9339  1.3433  2.0694
32966SOL    HW2 3584   8.489   8.763   9.500 -2.1053  0.9510 -1.5066
32967SOL     OW 3585   4.677   6.039   9.845  0.3522 -0.5517  0.0195
32967SOL    HW1 3586   4.759   6.017   9.889 -0.7992 -1.4731  1.8254
32967SOL    HW2 3587   4.645   5.956   9.811 -0.5869 -0.5081  0.7391
32968SOL     OW 3588   7.355   0.959   6.413  0.2794 -0.7415 -0.2678
32968SOL    HW1 3589   7.362   1.053   6.397  1.1189 -0.8055 -0.3047
32968SOL    HW2 3590   7.372   0.919   6.328  1.6496 -0.9758  0.0991
32969SOL     OW 3591   7.707   7.206   2.419 -0.0955 -0.4504  0.0963
32969SOL    HW1 3592   7.789   7.168   2.388  0.2921  0.7325 -0.3676
32969SOL    HW2 3593   7.676   7.258   2.346 -1.3083 -0.9319  0.2464
32970SOL     OW 3594   4.018   9.247   9.987 -0.1899 -0.4385 -0.5331
32970SOL    HW1 3595   4.078   9.174   9.973 -0.5343 -1.1418  1.3322
32970SOL    HW2 3596   4.057   9.297  10.059 -1.9975 -1.1747  1.0345
32971SOL     OW 3597   6.173   3.292   6.623  0.2548 -0.2175 -0.1734
32971SOL    HW1 3598   6.260   3.274   6.587 -0.3462 -2.4350 -0.6432
32971SOL    HW2 3599   6.144   3.372   6.579  1.7613  0.1755 -0.4976
32972SOL     OW 3600   6.864   9.012  11.871 -0.3420 -0.3195  0.1091
32972SOL    HW1 3601   6.926   9.073  11.910 -1.5027  0.7372  0.3809
32972SOL    HW2 3602   6.786   9.065  11.854 -0.5558 -1.1717 -1.8889
32973SOL     OW 3603   5.754   7.649  11.046  0.3819  1.0874  0.2295
32973SOL    HW1 3604   5.662   7.658  11.023 -0.1287 -0.1679  1.6406
32973SOL    HW2 3605   5.800   7.697  10.977 -1.3343  2.3802 -0.0989
32974SOL     OW 3606   3.257   2.406   5.260  0.3966  0.2401  0.0286
32974SOL    HW1 3607   3.261   2.355   5.179  2.4916  0.9816 -0.3766
32974SOL    HW2 3608   3.254   2.497   5.231 -1.4621  0.4629  0.7844
32975SOL     OW 3609   0.754   7.995   3.675  0.0422  0.1250  0.2373
32975SOL    HW1 3610   0.766   7.939   3.751  0.4422  0.9530  0.7893
32975SOL    HW2 3611   0.659   7.999   3.663  0.0148 -1.3772 -0.3611
32976SOL     OW 3612   9.136   6.773   9.656 -0.1765 -0.0466 -0.5252
32976SOL    HW1 3613   9.042   6.768   9.638 -0.1843  0.3332 -0.5992
32976SOL    HW2 3614   9.148   6.722   9.736 -0.7310  1.4049  0.5220
32977SOL     OW 3615   9.102   9.515   1.154 -0.4993  0.2762 -0.0343
32977SOL    HW1 3616   9.157   9.532   1.231 -1.0329  2.2834 -0.0376
32977SOL    HW2 3617   9.055   9.597   1.140  0.8062  0.5943 -3.5000
32978SOL     OW 3618   1.576   2.264   7.518 -0.4485 -0.0980 -0.1266
32978SOL    HW1 3619   1.537   2.283   7.432 -1.4978 -3.3778 -0.5108
32978SOL    HW2 3620   1.513   2.206   7.560  0.6014  0.5103  2.4485
32979SOL     OW 3621  10.618   7.091   7.698  0.3028 -0.3071  0.0768
32979SOL    HW1 3622  10.529   7.098   7.664  0.4699  1.1502 -0.1055
32979SOL    HW2 3623  10.607   7.079   7.793 -0.1198  2.4720  0.4675
32980SOL     OW 3624   1.785   2.232   0.202  0.1688  0.1637 -0.0004
32980SOL    HW1 3625   1.749   2.294   0.140  0.4748 -0.7982 -1.1815
32980SOL    HW2 3626   1.775   2.147   0.160 -0.4308 -0.6342  1.6580
32981SOL     OW 3627   8.348   0.711   3.581 -0.8194  0.2525  0.1491
32981SOL    HW1 3628   8.435   0.740   3.553 -1.2293 -0.5063 -2.1492
32981SOL    HW2 3629   8.365   0.632   3.632 -0.1071  0.8412  0.8508
32982SOL     OW 3630  11.102  10.793   3.889  0.1696  0.2601  0.2275
32982SOL    HW1 3631  11.006  10.796   3.891  0.1948  1.5719  0.3338
32982SOL    HW2 3632  11.127  10.787   3.981  0.2098  1.8310  0.3382
32983SOL     OW 3633   7.842   7.807   5.364  0.1625 -0.4157  0.1830
32983SOL    HW1 3634   7.905   7.812   5.436 -0.3478  0.7911  0.5580
32983SOL    HW2 3635   7.892   7.766   5.293  0.2066 -3.1553  1.6705
32984SOL     OW 3636   3.908  10.163  11.489  0.6023  0.1691  0.2756
32984SOL    HW1 3637   3.866  10.134  11.408  0.7500 -0.0294  0.2703
32984SOL    HW2 3638   4.001  10.142  11.477  0.4142 -1.2597  1.0983
32985SOL     OW 3639   7.240   1.250   1.855 -0.0541 -0.3006  0.7253
32985SOL    HW1 3640   7.323   1.218   1.892  0.1960  0.2162  0.6309
32985SOL    HW2 3641   7.177   1.181   1.874  0.5281 -0.9831  0.2757
32986SOL     OW 3642   4.002  10.437  11.336  0.3804  0.0345  0.7196
32986SOL    HW1 3643   3.954  10.468  11.413  0.2239  0.0800  0.6034
32986SOL    HW2 3644   3.938  10.385  11.288  0.5961 -0.3399  0.8338
32987SOL     OW 3645   4.522  11.108  10.724 -0.3004 -0.1342  0.1282
32987SOL    HW1 3646   4.597  11.050  10.711  0.2224  0.6513 -0.4752
32987SOL    HW2 3647   4.454  11.072  10.666 -0.3215 -0.7121  0.5025
32988SOL     OW 3648  11.579   2.866  10.184 -0.9450  0.3609 -0.0552
32988SOL    HW1 3649  11.597   2.944  10.237  0.0412 -0.6427  1.1556
32988SOL    HW2 3650  11.546   2.802  10.246  0.3434 -0.8965 -0.5966
32989SOL     OW 3651   4.063   3.285   4.222 -0.1536 -0.4478  0.0558
32989SOL    HW1 3652   4.059   3.297   4.127 -0.5721 -0.9646 -0.0022
32989SOL    HW2 3653   3.979   3.243   4.244 -0.3604  0.3200  0.7545
32990SOL     OW 3654   4.440   2.338  11.429  0.0246  0.2905 -0.0225
32990SOL    HW1 3655   4.431   2.398  11.355 -0.3920  0.7582  0.3983
32990SOL    HW2 3656   4.480   2.260  11.392 -0.1241  0.5428 -0.7277
32991SOL     OW 3657   6.880   9.529   1.317  0.2832 -0.0921  0.4460
32991SOL    HW1 3658   6.939   9.506   1.388  2.2583 -1.3142 -1.4810
32991SOL    HW2 3659   6.806   9.469   1.327  1.0731 -1.0248  0.8451
32992SOL     OW 3660   0.702  11.411   1.547 -0.2259 -0.0721  0.3223
32992SOL    HW1 3661   0.679  11.450   1.631  1.1347  0.7770  0.3417
32992SOL    HW2 3662   0.796  11.430   1.536 -0.4182  0.0889 -1.4942
32993SOL     OW 3663   7.617   9.793   4.035 -0.3434  0.0381 -0.0922
32993SOL    HW1 3664   7.623   9.763   4.125  1.9889 -2.1727 -0.8710
32993SOL    HW2 3665   7.675   9.870   4.031 -0.8062  0.4177  0.3581
32994SOL     OW 3666   4.602   9.364   3.091 -0.7147  0.1550  0.3681
32994SOL    HW1 3667   4.547   9.338   3.165  0.7372 -0.1407  1.3936
32994SOL    HW2 3668   4.556   9.332   3.014 -1.6736 -0.6038  1.2270
32995SOL     OW 3669  10.484   3.505   4.191  0.5041 -0.3069 -0.1001
32995SOL    HW1 3670  10.504   3.588   4.233 -0.8272 -0.6317  1.2538
32995SOL    HW2 3671  10.474   3.527   4.098 -3.0506  1.7510  0.5925
32996SOL     OW 3672  10.300   5.284   9.951 -0.2103 -0.3638 -0.7132
32996SOL    HW1 3673  10.354   5.291   9.872 -3.1617 -0.1858 -2.8678
32996SOL    HW2 3674  10.257   5.370   9.958  0.3170 -0.2207  1.3994
32997SOL     OW 3675   5.170  10.493   8.024  0.0988 -0.2519 -0.2571
32997SOL    HW1 3676   5.237  10.532   7.968 -0.6855 -1.2410 -1.9323
32997SOL    HW2 3677   5.206  10.409   8.051  0.0281 -0.2416 -0.1263
32998SOL     OW 3678  11.660   9.781   6.097  0.5132  0.5993 -0.0563
32998SOL    HW1 3679  11.752   9.763   6.116  0.2435 -1.8430 -0.7295
32998SOL    HW2 3680  11.619   9.795   6.182  1.3117  0.6711  0.3155
32999SOL     OW 3681   0.194  10.340   1.979  0.6935 -0.1934  0.4847
32999SOL    HW1 3682   0.153  10.295   2.052 -0.3161  0.6817  0.4763
32999SOL    HW2 3683   0.122  10.360   1.919  1.5275 -1.0928 -0.8681
33000SOL     OW 3684   7.559   0.685   6.266 -0.1447  0.2247 -0.8879
33000SOL    HW1 3685   7.617   0.751   6.305 -0.5949  0.6514 -0.9232
33000SOL    HW2 3686   7.479   0.733   6.246 -0.7224 -0.4756 -0.3220
33001SOL     OW 3687   2.426   3.026   3.358  0.0017  0.6984 -0.9915
33001SOL    HW1 3688   2.428   3.072   3.442 -0.8065 -1.0138  0.0159
33001SOL    HW2 3689   2.507   3.054   3.314  2.1550 -0.7475  1.6922
33002SOL     OW 3690   3.091   1.359   7.881 -0.0227  0.1268 -0.0472
33002SOL    HW1 3691   3.083   1.371   7.786 -0.5797 -1.0862 -0.1708
33002SOL    HW2 3692   3.036   1.428   7.918 -0.5319  0.0457 -0.6352
33003SOL     OW 3693   0.299   3.419   3.095  0.1468 -0.7710  0.6989
33003SOL    HW1 3694   0.209   3.387   3.089 -0.4306  0.7294  1.0587
33003SOL    HW2 3695   0.318   3.421   3.189  0.5110 -0.9415  0.6329
33004SOL     OW 3696  11.857   1.446   8.539 -0.0022  0.1330  0.1811
33004SOL    HW1 3697  11.819   1.534   8.533  0.5692  0.8396  4.1601
33004SOL    HW2 3698  11.931   1.449   8.479 -1.2308  1.5778 -1.3919
33005SOL     OW 3699   4.800   1.910   1.048 -0.2929 -0.0005 -0.0075
33005SOL    HW1 3700   4.772   1.822   1.071  3.3201 -1.2436  0.2546
33005SOL    HW2 3701   4.803   1.911   0.953 -0.3925 -0.0939 -0.0118
33006SOL     OW 3702   3.612   7.714   4.296 -0.5436  0.1140 -0.0354
33006SOL    HW1 3703   3.682   7.657   4.265 -0.9436 -0.0686 -0.6285
33006SOL    HW2 3704   3.568   7.664   4.365 -0.4758 -0.0204 -0.0894
33007SOL     OW 3705   6.752   1.320   7.837 -0.0406  0.6511  0.7081
33007SOL    HW1 3706   6.727   1.404   7.877  1.9978  1.4529  0.3813
33007SOL    HW2 3707   6.790   1.344   7.753 -1.6739 -0.8266 -0.5356
33008SOL     OW 3708   5.684  11.965   1.014 -0.2817 -0.0263 -0.3296
33008SOL    HW1 3709   5.734  11.941   0.936  1.0754  0.0928  0.4580
33008SOL    HW2 3710   5.696  11.892   1.074 -2.3330 -0.6702 -0.6459
33009SOL     OW 3711   5.101   2.285  10.243  0.4368 -0.2379  0.3900
33009SOL    HW1 3712   5.168   2.262  10.179  0.7408 -1.4267  1.0952
33009SOL    HW2 3713   5.082   2.202  10.287 -2.6808 -0.3098 -0.8604
33010SOL     OW 3714   5.392   4.969   6.437  0.5196  0.4954  0.5435
33010SOL    HW1 3715   5.342   4.888   6.423  0.1543  0.9669 -1.0221
33010SOL    HW2 3716   5.476   4.953   6.395 -0.0145  1.3686 -0.9017
33011SOL     OW 3717   8.759   8.263   9.933 -0.4830  0.4830 -0.5976
33011SOL    HW1 3718   8.720   8.341   9.973  0.4545  0.5706  0.1795
33011SOL    HW2 3719   8.813   8.297   9.862  0.2307  0.5804 -0.0137
33012SOL     OW 3720   6.723   3.858   6.427  0.4239  0.3719  0.2513
33012SOL    HW1 3721   6.801   3.814   6.461  0.7192  0.5511 -0.1887
33012SOL    HW2 3722   6.738   3.864   6.332 -1.0600 -1.4897 -0.1724
33013SOL     OW 3723  11.591   3.957   2.664  0.0239 -0.5265  0.0458
33013SOL    HW1 3724  11.536   3.996   2.595 -0.1469 -0.8169  0.0176
33013SOL    HW2 3725  11.673   4.005   2.658 -0.1189 -0.2994 -0.1202
33014SOL     OW 3726   9.350   0.815   1.522 -0.3948 -0.2465  0.0664
33014SOL    HW1 3727   9.406   0.888   1.495 -0.4947 -0.4214 -0.6294
33014SOL    HW2 3728   9.268   0.856   1.548 -0.6798 -0.1484 -0.9427
33015SOL     OW 3729   5.821  11.201  11.030 -0.3784  0.0107  0.0577
33015SOL    HW1 3730   5.843  11.224  11.120 -1.1052  0.2532  0.1759
33015SOL    HW2 3731   5.765  11.124  11.038 -0.9902  0.4284 -0.1477
33016SOL     OW 3732   7.553   0.722   3.168 -0.1387 -0.1986  0.6290
33016SOL    HW1 3733   7.546   0.640   3.119  2.0822 -0.2514  0.3145
33016SOL    HW2 3734   7.477   0.773   3.140  0.4671 -0.6546 -2.0759
33017SOL     OW 3735   3.364   5.024  10.129 -0.0157 -0.2250  0.1709
33017SOL    HW1 3736   3.344   5.106  10.085  2.6489  0.6182  0.3648
33017SOL    HW2 3737   3.327   5.034  10.217 -1.1995  0.0276 -0.3397
33018SOL     OW 3738   4.651   3.293  10.922  0.2627  0.0245 -0.1049
33018SOL    HW1 3739   4.619   3.296  11.013 -1.5005  0.2289 -0.6905
33018SOL    HW2 3740   4.720   3.227  10.923 -0.1111 -0.3825  1.2806
33019SOL     OW 3741   3.347   3.540  11.823 -1.0958 -0.6370  0.5252
33019SOL    HW1 3742   3.434   3.580  11.827 -0.6017 -1.0749 -2.6816
33019SOL    HW2 3743   3.364   3.447  11.810 -1.9038 -0.5479 -1.6571
33020SOL     OW 3744   3.436   4.672   8.812  0.3004  0.6203 -0.3487
33020SOL    HW1 3745   3.371   4.663   8.881  0.2252  0.7992 -0.3952
33020SOL    HW2 3746   3.390   4.718   8.741  0.9728  2.3848  0.2969
33021SOL     OW 3747   6.095   7.160   2.770  0.2807  0.0696  0.2537
33021SOL    HW1 3748   6.180   7.182   2.731  1.4640 -2.7205  0.9876
33021SOL    HW2 3749   6.044   7.126   2.697  1.0957 -1.4797  0.3572
33022SOL     OW 3750   8.846   6.029   5.452  0.0201 -0.9678  0.0071
33022SOL    HW1 3751   8.848   5.951   5.506 -1.0706 -0.9133  0.1449
33022SOL    HW2 3752   8.914   6.014   5.386  1.9352 -0.6910  1.7944
33023SOL     OW 3753   0.815   0.843   3.703  0.1017 -0.5760 -0.5315
33023SOL    HW1 3754   0.819   0.814   3.795 -2.8505 -0.5603 -0.3101
33023SOL    HW2 3755   0.795   0.936   3.708  1.2429 -0.2828 -1.2194
33024SOL     OW 3756   3.555   2.463   1.902 -0.6052 -0.2787  0.2097
33024SOL    HW1 3757   3.555   2.557   1.918  0.5242  0.0260 -1.3862
33024SOL    HW2 3758   3.647   2.439   1.896 -0.8803 -1.0823 -1.4395
33025SOL     OW 3759  10.977   8.716   9.190  0.4690 -0.2014 -0.0526
33025SOL    HW1 3760  10.922   8.731   9.113 -1.7969  2.0407  1.8370
33025SOL    HW2 3761  10.942   8.635   9.227 -0.3642  0.2213  0.1212
33026SOL     OW 3762   4.693  11.632   6.893  0.2027  0.3092  0.1015
33026SOL    HW1 3763   4.668  11.621   6.985 -1.4194  1.2414 -0.1794
33026SOL    HW2 3764   4.654  11.557   6.848  0.9486 -0.1160  0.1464
33027SOL     OW 3765   9.177   7.005  10.059  0.3015  0.5699 -0.5315
33027SOL    HW1 3766   9.205   7.080  10.112 -0.6172  0.4596  0.1425
33027SOL    HW2 3767   9.161   7.042   9.972  1.5740  0.8057 -0.6792
33028SOL     OW 3768   8.210  11.381   9.815 -0.5783 -0.3625 -0.1652
33028SOL    HW1 3769   8.154  11.420   9.882 -2.1076 -0.1581 -1.4811
33028SOL    HW2 3770   8.242  11.455   9.764  0.1363 -0.5453  0.0163
33029SOL     OW 3771   4.856   3.492  10.853  0.2452 -0.2943 -0.1808
33029SOL    HW1 3772   4.826   3.580  10.833  1.1193 -0.1925 -1.1153
33029SOL    HW2 3773   4.777   3.444  10.877 -0.4068  0.4381 -0.8243
33030SOL     OW 3774   5.871   5.493   3.212  1.1430 -0.0944  0.3722
33030SOL    HW1 3775   5.881   5.432   3.139  0.1680  0.8025 -0.5525
33030SOL    HW2 3776   5.783   5.530   3.200  2.2975  2.7303 -0.0995
33031SOL     OW 3777   2.084   3.898   8.913  0.2378  0.3563 -0.5866
33031SOL    HW1 3778   2.063   3.805   8.917  1.6484  0.0290 -0.1518
33031SOL    HW2 3779   2.166   3.901   8.864  1.2573  1.1714  1.0795
33032SOL     OW 3780   1.708   9.860   4.073 -0.4452  0.6081 -0.4826
33032SOL    HW1 3781   1.733   9.873   3.982 -2.1594  0.5295 -0.9799
33032SOL    HW2 3782   1.620   9.897   4.080 -0.8325 -0.4801  0.8484
33033SOL     OW 3783   9.089   7.661  10.710  0.4467 -0.3255  0.3129
33033SOL    HW1 3784   9.041   7.589  10.751  0.9817  0.9024  3.4322
33033SOL    HW2 3785   9.030   7.736  10.717  1.0828  0.2155  0.0272
33034SOL     OW 3786   7.080   7.119   2.075  0.0031  0.2368 -0.5799
33034SOL    HW1 3787   7.109   7.199   2.031  0.7083  0.0985 -0.3796
33034SOL    HW2 3788   7.071   7.144   2.167 -0.7172  0.3285 -0.6714
33035SOL     OW 3789   8.097  10.906   4.639  0.0129 -0.0515  0.1897
33035SOL    HW1 3790   8.175  10.917   4.693 -0.1001 -0.5432  0.4627
33035SOL    HW2 3791   8.026  10.941   4.692  0.0375  0.3640 -0.0447
33036SOL     OW 3792   2.776   1.690  11.743  0.1695 -0.1642 -0.4803
33036SOL    HW1 3793   2.851   1.640  11.710 -0.4763 -0.8041 -1.0271
33036SOL    HW2 3794   2.700   1.648  11.702 -0.4777  0.5520 -0.0366
33037SOL     OW 3795  11.838  11.949   0.099 -0.0384 -0.4107 -0.8262
33037SOL    HW1 3796  11.746  11.962   0.121 -0.1907 -0.1880 -1.5447
33037SOL    HW2 3797  11.855  11.857   0.119 -0.5250 -0.5484 -1.0221
33038SOL     OW 3798  10.662   7.828   0.629 -0.0965 -0.1720  0.3401
33038SOL    HW1 3799  10.572   7.855   0.648  0.1933  1.7117 -0.7933
33038SOL    HW2 3800  10.704   7.906   0.594  1.3234 -1.6440 -1.4183
33039SOL     OW 3801   7.744   6.249   0.821  0.3441  0.5141 -0.1559
33039SOL    HW1 3802   7.729   6.326   0.766 -0.1481  0.1296 -0.5844
33039SOL    HW2 3803   7.829   6.264   0.862  0.5922  0.9483 -0.8092
33040SOL     OW 3804  11.563   5.651  11.652  0.1956 -0.2396 -0.7001
33040SOL    HW1 3805  11.590   5.559  11.653  0.2701 -0.3332 -3.7317
33040SOL    HW2 3806  11.471   5.649  11.678  0.6696 -0.8986  1.1205
33041SOL     OW 3807  10.603  11.788   2.052 -0.5337  0.4353 -0.1218
33041SOL    HW1 3808  10.633  11.835   2.130  1.4886  0.3758 -0.8299
33041SOL    HW2 3809  10.581  11.700   2.085 -0.5804  0.6847  0.5269
33042SOL     OW 3810   9.506   9.800  11.960  0.1279  0.0117  0.5273
33042SOL    HW1 3811   9.521   9.714  12.001 -0.2420  0.0876  0.8193
33042SOL    HW2 3812   9.414   9.819  11.977  0.0128  0.1198 -0.2041
33043SOL     OW 3813   6.223   3.200   6.238  0.2386 -0.1304  0.0090
33043SOL    HW1 3814   6.278   3.131   6.200 -1.4760 -2.2536  1.1327
33043SOL    HW2 3815   6.161   3.223   6.169  2.6177  2.6032 -1.4260
33044SOL     OW 3816  11.574   3.923   9.836 -0.0779 -0.3495  0.5771
33044SOL    HW1 3817  11.608   3.985   9.771  0.4832 -1.3219 -0.0698
33044SOL    HW2 3818  11.550   3.846   9.786  0.6355 -1.2296  1.5513
33045SOL     OW 3819   3.714   3.832   6.490  0.0014 -0.2659 -0.3036
33045SOL    HW1 3820   3.755   3.849   6.576  0.1904 -0.1300 -0.4203
33045SOL    HW2 3821   3.784   3.850   6.427 -0.0641 -0.6041 -0.4741
33046SOL     OW 3822   3.359   6.348   5.150  0.0937 -0.1710  0.5383
33046SOL    HW1 3823   3.368   6.427   5.096 -0.8361  0.4877  1.3277
33046SOL    HW2 3824   3.442   6.343   5.198 -0.6408  1.6096  2.1378
33047SOL     OW 3825  11.074   7.698   7.584 -0.2139 -0.1802 -0.5502
33047SOL    HW1 3826  11.066   7.603   7.583  0.2920 -0.2608  0.8981
33047SOL    HW2 3827  11.095   7.722   7.494  2.2197 -1.6905 -0.4542
33048SOL     OW 3828   9.479   1.794   7.774  0.1201 -0.0984  0.1380
33048SOL    HW1 3829   9.413   1.808   7.842 -0.0090  0.5012 -0.1048
33048SOL    HW2 3830   9.558   1.767   7.822 -0.1002 -0.1401  0.4812
33049SOL     OW 3831   3.546   8.388  11.180  0.1713 -0.4103 -0.1384
33049SOL    HW1 3832   3.478   8.376  11.247 -1.2301 -0.1424 -1.4352
33049SOL    HW2 3833   3.597   8.463  11.210 -1.3160  0.6115 -0.0184
33050SOL     OW 3834   6.247   1.122   8.798 -0.0990 -0.1046 -0.6212
33050SOL    HW1 3835   6.220   1.213   8.784  1.9482  1.1244  2.2961
33050SOL    HW2 3836   6.341   1.122   8.782  0.2377 -1.2513  1.0753
33051SOL     OW 3837   5.439   3.783  11.570  0.0589  0.4276 -0.1914
33051SOL    HW1 3838   5.498   3.720  11.528  0.4474  0.4584  0.2973
33051SOL    HW2 3839   5.461   3.867  11.530  0.7303  0.5306  0.3591
33052SOL     OW 3840   9.982  11.511   1.060  0.2912 -0.0933 -0.3703
33052SOL    HW1 3841  10.039  11.584   1.081  0.5910 -0.4461  0.0498
33052SOL    HW2 3842   9.980  11.509   0.964  0.2135  0.5076 -0.3874
33053SOL     OW 3843   2.869  11.192   6.657  0.2618 -0.3818  0.2079
33053SOL    HW1 3844   2.888  11.162   6.746  2.0797 -0.2425 -0.0984
33053SOL    HW2 3845   2.893  11.285   6.657 -0.4405 -0.1941 -0.2291
33054SOL     OW 3846   8.128   4.442  10.015  0.2744 -0.2341  0.0618
33054SOL    HW1 3847   8.214   4.413   9.984 -0.3728 -0.2636 -1.8578
33054SOL    HW2 3848   8.099   4.373  10.074  1.2522 -0.5687  0.1733
33055SOL     OW 3849   7.694   1.640   0.688 -0.5531  0.0747  0.1682
33055SOL    HW1 3850   7.683   1.581   0.762  0.7286  0.5967  0.7939
33055SOL    HW2 3851   7.653   1.594   0.614 -0.2593 -1.2351  0.8039
33056SOL     OW 3852  11.698   7.867   3.230 -0.1244 -0.2714  0.2245
33056SOL    HW1 3853  11.786   7.880   3.267  0.3789 -1.7274 -0.3654
33056SOL    HW2 3854  11.682   7.773   3.240 -1.4811 -0.0718  0.0137
33057SOL     OW 3855  11.281   0.062   0.551 -0.0753  0.3566  0.0409
33057SOL    HW1 3856  11.251   0.142   0.593  0.9001  0.8284 -0.1321
33057SOL    HW2 3857  11.304   0.089   0.462  0.0366 -0.1645 -0.0936
33058SOL     OW 3858   2.002   0.016   3.638 -0.2313 -0.0729 -0.3195
33058SOL    HW1 3859   2.050  -0.046   3.693  0.7665  0.6909 -0.3034
33058SOL    HW2 3860   2.069   0.077   3.607 -0.9915  0.2728 -1.3326
33059SOL     OW 3861   1.106   1.090   7.348 -0.2936  0.3488  0.4036
33059SOL    HW1 3862   1.051   1.016   7.322  1.1746 -0.7571  0.2816
33059SOL    HW2 3863   1.066   1.123   7.428 -0.9855 -0.5776  0.4597
33060SOL     OW 3864   6.812   0.200   8.001 -1.0520 -0.2055  0.2499
33060SOL    HW1 3865   6.722   0.232   8.001 -1.1568 -0.4399  1.4656
33060SOL    HW2 3866   6.807   0.114   8.044 -0.2432 -0.2115  0.3472
33061SOL     OW 3867   8.011   4.738   0.252  0.6896 -0.0427  0.8305
33061SOL    HW1 3868   8.081   4.685   0.215  1.0231  1.1253 -0.2590
33061SOL    HW2 3869   8.030   4.827   0.224 -1.2670  0.3104  0.4314
33062SOL     OW 3870   6.469  11.998   2.091  0.3297 -0.2805 -0.7857
33062SOL    HW1 3871   6.530  12.024   2.160  0.9075 -1.8366 -0.6671
33062SOL    HW2 3872   6.385  12.034   2.118  1.3942  3.3789 -1.7571
33063SOL     OW 3873   4.512  10.453   5.227  0.2822 -0.2736 -0.3833
33063SOL    HW1 3874   4.529  10.442   5.134  0.2117 -0.6045 -0.3597
33063SOL    HW2 3875   4.597  10.441   5.269  0.1136 -1.3491 -0.3121
33064SOL     OW 3876   2.255  11.843   8.206  0.3286 -0.2340  0.2780
33064SOL    HW1 3877   2.257  11.877   8.117  1.0871  2.8365  1.3269
33064SOL    HW2 3878   2.164  11.819   8.221  0.3503 -1.6822 -1.5653
33065SOL     OW 3879   3.868   2.928   3.829 -0.7631  0.2121  0.7144
33065SOL    HW1 3880   3.897   3.016   3.802 -4.0661  0.9674 -0.8519
33065SOL    HW2 3881   3.796   2.944   3.890 -0.2141 -1.4897  1.8818
33066SOL     OW 3882   3.127  11.397   7.177  0.0295 -0.0852  0.0969
33066SOL    HW1 3883   3.045  11.395   7.127 -1.1404  2.6841  1.6666
33066SOL    HW2 3884   3.186  11.339   7.129 -1.8534  0.2505 -2.8843
33067SOL     OW 3885   8.723   8.865   2.390  0.1197  0.0473  0.1412
33067SOL    HW1 3886   8.747   8.891   2.479 -0.3759 -0.8448  0.5510
33067SOL    HW2 3887   8.688   8.776   2.399 -1.4152  0.5161 -0.7051
33068SOL     OW 3888   2.169   9.857   4.351 -0.0402  0.1245 -0.8946
33068SOL    HW1 3889   2.245   9.838   4.297 -0.6257  0.2297 -1.7662
33068SOL    HW2 3890   2.102   9.888   4.290 -0.5202  0.8324 -0.0463
33069SOL     OW 3891   5.608   0.507   1.631 -0.1727 -0.2299  0.2225
33069SOL    HW1 3892   5.684   0.520   1.574 -0.6298 -1.3156 -0.6583
33069SOL    HW2 3893   5.543   0.570   1.599 -0.1387 -0.2684  0.0769
33070SOL     OW 3894   7.528   1.630   4.072  0.0659  0.8588  0.0115
33070SOL    HW1 3895   7.478   1.671   4.002 -0.8180 -1.6804 -0.9528
33070SOL    HW2 3896   7.609   1.601   4.030  0.2287  0.7008  0.4304
33071SOL     OW 3897   1.935   8.559   4.953 -0.4123  0.0599 -0.0793
33071SOL    HW1 3898   1.885   8.486   4.917 -0.2295  0.1459 -0.5058
33071SOL    HW2 3899   1.870   8.626   4.973 -0.4235  0.3811 -1.1309
33072SOL     OW 3900   0.578   2.953  11.382 -0.9779  0.3057  0.1295
33072SOL    HW1 3901   0.628   2.889  11.433 -1.5209 -1.0765 -1.0122
33072SOL    HW2 3902   0.621   3.037  11.401 -1.3086 -0.0602  3.0242
33073SOL     OW 3903   5.574   4.242   8.230 -0.7254  0.2204 -0.4605
33073SOL    HW1 3904   5.618   4.159   8.208 -0.6420  0.0723  0.2239
33073SOL    HW2 3905   5.615   4.307   8.173 -0.6336 -0.1713 -0.8483
33074SOL     OW 3906   7.202   3.553   9.251  0.2426  0.1942  0.0928
33074SOL    HW1 3907   7.253   3.632   9.234 -0.6183  0.8801  0.6518
33074SOL    HW2 3908   7.156   3.571   9.333 -1.5471 -0.0637 -0.8071
33075SOL     OW 3909  10.839   6.656  11.270 -0.3714 -0.6456 -0.2425
33075SOL    HW1 3910  10.896   6.727  11.300  1.2307 -1.7400 -0.5533
33075SOL    HW2 3911  10.762   6.700  11.235  1.0358  1.0228 -1.4142
33076SOL     OW 3912   4.379   9.301   0.945  0.4157 -0.0386  0.1929
33076SOL    HW1 3913   4.338   9.215   0.938  0.5876 -0.2265  1.2393
33076SOL    HW2 3914   4.346   9.351   0.871  0.3110 -1.0090 -0.4198
33077SOL     OW 3915   7.516  11.695   2.435 -0.4104  0.0346 -0.1477
33077SOL    HW1 3916   7.558  11.638   2.371 -0.0679 -2.1850  1.9019
33077SOL    HW2 3917   7.576  11.769   2.444  2.4678 -2.2675  1.5304
33078SOL     OW 3918   7.006   5.315   9.648  0.0224  0.1619  0.4321
33078SOL    HW1 3919   7.000   5.299   9.742 -0.4294  0.3455  0.4356
33078SOL    HW2 3920   6.953   5.393   9.634 -0.8924 -0.5551 -0.1569
33079SOL     OW 3921   9.772   9.427   1.026  0.3251 -0.6465 -0.6935
33079SOL    HW1 3922   9.844   9.369   1.003 -0.1480 -1.6259  0.2332
33079SOL    HW2 3923   9.697   9.393   0.977  0.0058 -0.9279 -0.0091
33080SOL     OW 3924   7.109   8.127   6.215 -0.1330  0.1304  0.3397
33080SOL    HW1 3925   7.056   8.189   6.265  0.6914  0.7267  0.4994
33080SOL    HW2 3926   7.077   8.136   6.125  0.9945  1.9573  0.0658
33081SOL     OW 3927   4.731  11.704   7.163 -0.1059  0.1130 -0.2150
33081SOL    HW1 3928   4.825  11.723   7.166 -0.3007  1.0277  0.5714
33081SOL    HW2 3929   4.691  11.788   7.139 -0.7431 -0.1881 -0.2034
33082SOL     OW 3930   1.240   0.970  10.988  0.4710 -0.4772  0.2149
33082SOL    HW1 3931   1.299   0.899  10.965  0.7250 -0.0245 -0.6077
33082SOL    HW2 3932   1.214   1.007  10.903  0.0092  0.1340  0.6137
33083SOL     OW 3933   7.656  11.743   9.748 -0.3818 -0.1673  0.2325
33083SOL    HW1 3934   7.715  11.770   9.818 -2.2943  0.7523  1.5881
33083SOL    HW2 3935   7.713  11.704   9.682  1.9343  2.2533  0.6477
33084SOL     OW 3936  11.997   3.759   5.076 -0.1735 -0.3120 -0.0084
33084SOL    HW1 3937  11.928   3.748   5.142  0.5102 -2.3397  0.4236
33084SOL    HW2 3938  12.076   3.725   5.118  0.3116 -1.4704 -1.7905
33085SOL     OW 3939  11.536   3.069   6.017 -0.2189  0.0484 -0.6139
33085SOL    HW1 3940  11.539   3.027   5.931 -0.8856  0.4112 -0.8238
33085SOL    HW2 3941  11.560   3.160   6.000 -1.2493  0.3443 -0.5794
33086SOL     OW 3942  10.195   5.035   0.289  0.0181  0.0669 -0.2429
33086SOL    HW1 3943  10.139   5.054   0.364  1.3680 -0.5087  0.9634
33086SOL    HW2 3944  10.192   4.940   0.280 -1.2747  0.2037 -1.8940
33087SOL     OW 3945   1.100   3.510   8.199  0.5471  0.0768  0.0077
33087SOL    HW1 3946   1.042   3.500   8.123  0.1709  2.1716 -0.0219
33087SOL    HW2 3947   1.182   3.543   8.163  1.0629 -0.8186  0.3134
33088SOL     OW 3948   6.968   2.759   1.410  0.7359 -0.5546 -0.4980
33088SOL    HW1 3949   7.021   2.742   1.488 -0.8788 -0.0079  0.7892
33088SOL    HW2 3950   6.934   2.673   1.385  0.5513 -0.6190 -0.0442
33089SOL     OW 3951   2.901  10.129   4.905  0.3284  0.2566  0.0307
33089SOL    HW1 3952   2.859  10.209   4.875 -0.8988 -0.4459 -0.2394
33089SOL    HW2 3953   2.994  10.150   4.912 -0.1343  2.0716  1.2630
33090SOL     OW 3954   8.728   8.655  10.761  0.4401  0.3683 -0.5259
33090SOL    HW1 3955   8.758   8.564  10.764 -0.3334  0.1125 -0.0919
33090SOL    HW2 3956   8.732   8.678  10.668 -1.1777 -0.7648 -0.9234
33091SOL     OW 3957   2.607   7.320   8.348 -0.5237  0.0806 -0.2297
33091SOL    HW1 3958   2.602   7.311   8.443  2.5396 -0.1932 -0.0088
33091SOL    HW2 3959   2.528   7.277   8.316 -1.6532  0.1938  2.1536
33092SOL     OW 3960   2.858  10.055   0.729  0.0670 -0.9521 -0.0456
33092SOL    HW1 3961   2.911   9.984   0.693  1.1517 -0.4772  0.5417
33092SOL    HW2 3962   2.910  10.089   0.801 -1.5647 -1.1694  1.2932
33093SOL     OW 3963   9.793   6.382   7.007  0.0391  0.1886  0.6859
33093SOL    HW1 3964   9.860   6.341   7.061  0.8941 -0.5583 -0.8738
33093SOL    HW2 3965   9.774   6.317   6.939 -1.7233  0.6981  0.6370
33094SOL     OW 3966   0.855   0.350   3.941 -0.8231 -0.0921 -0.1722
33094SOL    HW1 3967   0.815   0.305   4.016 -1.1474  0.6155  0.0880
33094SOL    HW2 3968   0.937   0.304   3.927 -0.9943 -0.5568  0.3023
33095SOL     OW 3969   0.057   3.774   5.783  0.5072 -0.1485 -0.4545
33095SOL    HW1 3970  -0.038   3.765   5.798  0.7912 -0.6833  1.3245
33095SOL    HW2 3971   0.071   3.868   5.771 -0.0825  0.1313  0.8442
33096SOL     OW 3972   8.485   6.149   6.614  0.2767 -0.6656 -0.3410
33096SOL    HW1 3973   8.457   6.181   6.528  0.0045 -0.6227 -0.2377
33096SOL    HW2 3974   8.544   6.077   6.595 -1.1423 -1.8185 -0.5569
33097SOL     OW 3975   3.477   3.460   8.955  0.0430 -0.3942 -0.0995
33097SOL    HW1 3976   3.422   3.402   8.903  1.1934 -0.3923 -1.3559
33097SOL    HW2 3977   3.473   3.544   8.909 -1.8222  0.6863  1.8369
33098SOL     OW 3978  10.590   5.008  10.623 -0.1877  0.2472  0.2523
33098SOL    HW1 3979  10.568   5.095  10.657  1.5668  1.2344 -0.9703
33098SOL    HW2 3980  10.607   4.955  10.701  0.7076  1.5895  1.0120
33099SOL     OW 3981  10.509   7.161   2.812  0.6388  0.3810 -0.0035
33099SOL    HW1 3982  10.433   7.140   2.757  0.4396  0.1823  0.3448
33099SOL    HW2 3983  10.535   7.249   2.784  1.0377 -0.0318 -0.9713
33100SOL     OW 3984   7.700   1.505   7.147  0.4592 -0.2653  0.1021
33100SOL    HW1 3985   7.715   1.463   7.232  1.7836 -0.1681 -0.0627
33100SOL    HW2 3986   7.726   1.439   7.083 -1.7514 -0.8247 -0.3073
33101SOL     OW 3987   4.159  11.664   0.964 -0.3049  0.0431 -0.0693
33101SOL    HW1 3988   4.206  11.748   0.961  0.4083 -0.1291  2.9149
33101SOL    HW2 3989   4.067  11.688   0.955 -0.1281  1.2419  0.9295
33102SOL     OW 3990   9.183   7.108   9.306  0.3693  0.0377  0.1367
33102SOL    HW1 3991   9.247   7.050   9.264  2.3161  1.3210  1.1941
33102SOL    HW2 3992   9.188   7.086   9.399  0.1774  1.0161  0.3810
33103SOL     OW 3993  10.196   1.866   7.705 -0.2594 -0.2349  0.1515
33103SOL    HW1 3994  10.244   1.929   7.652 -1.5146 -0.2261 -1.0445
33103SOL    HW2 3995  10.247   1.858   7.785  1.6334 -0.1243 -0.9809
33104SOL     OW 3996   9.499   6.946   1.940 -0.7391 -0.0290 -0.5409
33104SOL    HW1 3997   9.436   6.989   1.883 -2.5429 -0.8108  0.7513
33104SOL    HW2 3998   9.473   6.971   2.028  2.0307  1.2295  0.0209
33105SOL     OW 3999   6.332   5.009   1.647  0.1940 -0.3931 -0.2177
33105SOL    HW1 4000   6.310   4.960   1.568 -2.0345  0.1942 -0.0249
33105SOL    HW2 4001   6.305   5.099   1.627  2.0882  0.3362  0.2665
33106SOL     OW 4002  10.273  11.069   3.115  0.5035  0.4546 -0.1612
33106SOL    HW1 4003  10.186  11.030   3.122  0.8219 -0.4433 -0.9876
33106SOL    HW2 4004  10.303  11.075   3.206  0.5668 -1.5745 -0.0010
33107SOL     OW 4005   0.704   5.314  11.602 -0.1798 -0.0672  0.0416
33107SOL    HW1 4006   0.795   5.344  11.606  0.0516 -0.8285  0.5012
33107SOL    HW2 4007   0.709   5.219  11.613 -0.9945 -0.1727 -0.4138
33108SOL     OW 4008  10.764   2.986   9.764  0.2728  0.1279 -0.0081
33108SOL    HW1 4009  10.681   2.948   9.793  0.6082  0.3083  1.2308
33108SOL    HW2 4010  10.783   2.942   9.681 -1.3281  0.4863 -0.6025
33109SOL     OW 4011   8.298   9.010  10.959 -0.0837 -0.2024 -0.0979
33109SOL    HW1 4012   8.227   8.947  10.971 -0.1500 -0.5907 -2.1589
33109SOL    HW2 4013   8.367   8.960  10.915 -0.6658  1.3813 -3.0775
33110SOL     OW 4014   6.580   4.543   7.649  0.5359 -0.0506  0.1215
33110SOL    HW1 4015   6.520   4.483   7.606 -0.6469 -0.0089  1.6286
33110SOL    HW2 4016   6.530   4.625   7.656  0.8394  0.0486  1.2123
33111SOL     OW 4017   1.240   3.674  10.034 -0.6375  0.1085  0.2185
33111SOL    HW1 4018   1.198   3.758  10.016 -0.6935 -0.1843 -1.2019
33111SOL    HW2 4019   1.231   3.626   9.952  2.2938 -0.0339 -0.1344
33112SOL     OW 4020   9.259  10.003   4.956  0.5836 -0.7395 -0.0903
33112SOL    HW1 4021   9.240  10.071   5.020 -1.5350  1.4583 -2.7863
33112SOL    HW2 4022   9.323  10.043   4.897 -0.0979 -1.3409 -1.2757
33113SOL     OW 4023   3.875   0.446   5.170 -0.0938 -0.3431 -0.0370
33113SOL    HW1 4024   3.853   0.371   5.115  0.5521  0.6152 -1.6713
33113SOL    HW2 4025   3.971   0.448   5.170 -0.0506  1.6692 -1.8075
33114SOL     OW 4026   9.115   8.756   7.290  0.1059 -0.0673 -0.0431
33114SOL    HW1 4027   9.193   8.725   7.336 -0.2844  1.2125  1.6028
33114SOL    HW2 4028   9.042   8.717   7.339 -0.3083  0.7359 -0.0008
33115SOL     OW 4029   2.260   3.436   3.926 -0.6853 -0.5940 -0.5488
33115SOL    HW1 4030   2.245   3.440   3.832 -2.2551 -0.5734 -0.3305
33115SOL    HW2 4031   2.222   3.517   3.960 -0.5965 -0.8406  0.1561
33116SOL     OW 4032  11.456   4.318  10.358 -0.1699 -0.3258 -0.8367
33116SOL    HW1 4033  11.427   4.408  10.369 -0.0008 -0.5826  2.4720
33116SOL    HW2 4034  11.551   4.321  10.368 -0.2229 -0.9209 -0.0407
33117SOL     OW 4035  10.816   7.361   2.838  0.3900  0.3045 -0.1121
33117SOL    HW1 4036  10.828   7.287   2.899 -0.2647  1.1400  1.0874
33117SOL    HW2 4037  10.812   7.321   2.752  0.5054 -1.0216  0.4756
33118SOL     OW 4038   9.529   4.113   8.456 -0.5867  0.2019 -0.2216
33118SOL    HW1 4039   9.565   4.195   8.490 -2.3669  1.1788 -0.5482
33118SOL    HW2 4040   9.469   4.083   8.526  0.0853 -0.8641 -0.0831
33119SOL     OW 4041   5.009   5.677   4.883 -0.1431  0.5316 -0.2511
33119SOL    HW1 4042   4.941   5.710   4.943  2.7550  1.9369  2.5451
33119SOL    HW2 4043   5.036   5.594   4.922  1.1780  1.0363 -0.0571
33120SOL     OW 4044   6.537   4.061   9.471 -0.1078 -0.1739  0.0522
33120SOL    HW1 4045   6.591   3.984   9.450  0.4563  0.0906  0.5077
33120SOL    HW2 4046   6.554   4.122   9.400 -0.8465 -0.6050 -0.5115
33121SOL     OW 4047   4.894   8.982   0.858  0.7162  0.2642  0.5733
33121SOL    HW1 4048   4.914   8.961   0.949  1.0750  0.9570  0.6572
33121SOL    HW2 4049   4.801   9.006   0.858  1.2312  2.4251  1.1645
33122SOL     OW 4050   9.406   5.213   7.912 -0.2354 -0.3439  0.2403
33122SOL    HW1 4051   9.495   5.205   7.947 -0.3510 -0.2168  0.5653
33122SOL    HW2 4052   9.349   5.198   7.987 -0.4923  1.9428  0.5773
33123SOL     OW 4053   2.174  11.113  10.656  0.2757  0.3213  0.0147
33123SOL    HW1 4054   2.218  11.035  10.623  0.7627  0.0538  1.2305
33123SOL    HW2 4055   2.107  11.133  10.591 -0.0809 -1.3115 -0.1482
33124SOL     OW 4056   2.743   2.054   4.699  0.6094 -0.0097  0.2290
33124SOL    HW1 4057   2.796   2.099   4.765 -1.0758  1.0381  0.9060
33124SOL    HW2 4058   2.653   2.079   4.719  0.0390  0.3221 -2.4560
33125SOL     OW 4059   2.160  11.205   5.695  0.6028  0.0487  0.2943
33125SOL    HW1 4060   2.087  11.145   5.687  0.8653 -0.2884  0.4167
33125SOL    HW2 4061   2.197  11.186   5.781  0.6074  0.4743  0.3889
33126SOL     OW 4062  10.534   3.259   5.375 -0.0389  1.1024  0.0248
33126SOL    HW1 4063  10.548   3.351   5.355 -2.7314  1.4206 -0.7903
33126SOL    HW2 4064  10.530   3.255   5.471  3.6215  1.1336  0.3224
33127SOL     OW 4065   5.563  10.349   9.565  0.0838  0.5347  0.0494
33127SOL    HW1 4066   5.568  10.396   9.482 -0.2937  0.6753  0.1035
33127SOL    HW2 4067   5.483  10.382   9.606 -1.0210 -1.2590 -0.5749
33128SOL     OW 4068  10.124   3.333   5.591 -0.5694  0.2045 -0.1763
33128SOL    HW1 4069  10.088   3.354   5.505 -1.0378 -0.4937 -0.1551
33128SOL    HW2 4070  10.091   3.246   5.611 -1.5784  0.8788  1.3127
33129SOL     OW 4071   0.862   4.134  10.188 -0.7434 -0.0745  0.4724
33129SOL    HW1 4072   0.780   4.089  10.168  0.3954 -1.4416 -1.5675
33129SOL    HW2 4073   0.890   4.098  10.272 -1.6249 -0.4899  0.5946
33130SOL     OW 4074   3.377   7.524  11.265  0.9817  0.1155  0.1831
33130SOL    HW1 4075   3.387   7.528  11.170 -1.1797  0.9303 -0.0601
33130SOL    HW2 4076   3.380   7.430  11.285  0.1824 -0.1515 -0.8559
33131SOL     OW 4077   6.885   4.343   9.315 -0.5171 -0.5143  0.5229
33131SOL    HW1 4078   6.923   4.274   9.262 -3.4916 -1.3792 -0.6856
33131SOL    HW2 4079   6.903   4.424   9.267 -0.5042 -0.9364 -0.1925
33132SOL     OW 4080   8.342   3.865   1.003 -0.0172  0.1720 -0.1273
33132SOL    HW1 4081   8.340   3.923   1.079  1.2867  2.2299 -1.5484
33132SOL    HW2 4082   8.253   3.830   0.996 -0.6657  1.4557  1.2096
33133SOL     OW 4083   6.429  10.661  10.706 -0.4153 -0.0851 -0.6557
33133SOL    HW1 4084   6.468  10.597  10.646  0.7815 -0.4361  0.4491
33133SOL    HW2 4085   6.338  10.633  10.714 -0.4573 -0.3574 -1.8686
33134SOL     OW 4086   5.395   3.842   7.646  0.0169 -0.2484  0.3093
33134SOL    HW1 4087   5.395   3.928   7.605  0.2043 -0.0824  0.6524
33134SOL    HW2 4088   5.471   3.798   7.610  0.8108  0.2885  1.2716
33135SOL     OW 4089   0.006   3.585   6.602 -0.6899  0.1601 -0.7506
33135SOL    HW1 4090  -0.051   3.632   6.663 -1.2927  1.2302 -2.0616
33135SOL    HW2 4091   0.072   3.543   6.657 -1.8644  0.1327  0.6984
33136SOL     OW 4092  11.789   4.947  10.824 -0.8206 -0.3283  0.0950
33136SOL    HW1 4093  11.713   4.910  10.868  0.9799 -1.8002  2.1567
33136SOL    HW2 4094  11.813   5.023  10.878 -1.2479  0.6223 -1.0051
33137SOL     OW 4095   9.759   8.858   8.545  0.0439  0.1210 -0.1243
33137SOL    HW1 4096   9.827   8.829   8.606 -0.0426  0.9151  0.3527
33137SOL    HW2 4097   9.692   8.789   8.551 -0.1841  0.4127  1.0420
33138SOL     OW 4098   1.046   4.250   6.130 -0.4314  0.0568 -0.2048
33138SOL    HW1 4099   0.988   4.202   6.188  1.2558 -0.5294  1.0731
33138SOL    HW2 4100   1.032   4.342   6.153  0.8433 -0.2006  1.8362
33139SOL     OW 4101  10.908   1.653   8.219 -0.7313 -0.3717 -0.2218
33139SOL    HW1 4102  10.845   1.700   8.274 -0.6833 -1.0486  0.4195
33139SOL    HW2 4103  10.868   1.567   8.205 -0.5848 -0.3228 -0.9712
33140SOL     OW 4104   6.563   8.882  10.123 -0.7218 -0.4781  0.5509
33140SOL    HW1 4105   6.629   8.862  10.189  1.0015  1.4715 -0.4663
33140SOL    HW2 4106   6.512   8.954  10.160 -1.0378 -0.6961  0.5461
33141SOL     OW 4107   9.499   9.701   7.968 -0.6391 -0.0294 -0.3236
33141SOL    HW1 4108   9.513   9.641   8.041  0.7253 -0.8283 -1.1980
33141SOL    HW2 4109   9.464   9.781   8.009 -2.6257 -1.3984  0.8504
33142SOL     OW 4110   4.979   8.619   9.225 -0.6140 -0.0625  0.6675
33142SOL    HW1 4111   5.004   8.541   9.176 -1.8730 -0.8556  1.2314
33142SOL    HW2 4112   4.903   8.654   9.178  0.6917  1.6210 -0.3376
33143SOL     OW 4113   1.685   5.620   8.124 -0.0759  0.5489 -0.2628
33143SOL    HW1 4114   1.650   5.595   8.039  0.5943 -1.7963  0.0746
33143SOL    HW2 4115   1.612   5.608   8.185 -0.1486  0.8294 -0.2918
33144SOL     OW 4116   5.442   3.417   8.280 -0.8305 -0.3210 -0.2159
33144SOL    HW1 4117   5.504   3.484   8.255 -1.3022  0.3141  0.2657
33144SOL    HW2 4118   5.482   3.373   8.355 -1.3129  0.6372  0.6203
33145SOL     OW 4119  11.272   2.796   9.889 -0.4339  0.2327  0.1007
33145SOL    HW1 4120  11.283   2.889   9.905  0.9715 -0.1160  1.3126
33145SOL    HW2 4121  11.282   2.787   9.794  0.0428  1.2268  0.0472
33146SOL     OW 4122   8.051   9.522  10.592  0.3495 -0.2157 -0.0145
33146SOL    HW1 4123   7.980   9.519  10.527  0.8108  0.7764 -0.5890
33146SOL    HW2 4124   8.122   9.568  10.547  1.1737 -0.7309  0.7361
33147SOL     OW 4125  10.990   0.895   4.150 -0.4399 -0.5124 -0.3437
33147SOL    HW1 4126  10.916   0.849   4.111 -0.2444  0.9967 -2.6554
33147SOL    HW2 4127  11.067   0.864   4.102  0.2550 -0.8819  0.9550
33148SOL     OW 4128  10.792   4.341   9.624  0.0263  0.2763  0.6626
33148SOL    HW1 4129  10.764   4.432   9.616 -0.1200  0.2973  1.3242
33148SOL    HW2 4130  10.880   4.339   9.586 -0.9855  0.1264 -1.8121
33149SOL     OW 4131   6.939  10.362   1.116 -0.7558 -0.5117  0.8273
33149SOL    HW1 4132   6.901  10.393   1.199  2.2364  1.0343  1.7877
33149SOL    HW2 4133   6.957  10.443   1.067 -1.6341 -1.3674 -0.9955
33150SOL     OW 4134   5.516   0.477   3.262  0.3185 -0.2391  0.2402
33150SOL    HW1 4135   5.497   0.392   3.302  1.8959 -0.3112  0.9115
33150SOL    HW2 4136   5.430   0.514   3.243 -0.4937 -0.7659  2.5408
33151SOL     OW 4137   4.132  10.325  10.161  0.5637 -0.2531  0.1619
33151SOL    HW1 4138   4.226  10.339  10.170  0.5433  1.3036 -1.4487
33151SOL    HW2 4139   4.095  10.354  10.245  1.3709  0.9147  0.1311
33152SOL     OW 4140   0.111   9.310   0.653  0.1539  0.0871  0.2303
33152SOL    HW1 4141   0.102   9.215   0.647 -2.3574  0.3605 -2.2357
33152SOL    HW2 4142   0.204   9.324   0.670  0.6966 -2.7711  0.1611
33153SOL     OW 4143   9.220   0.926   7.023 -0.7209  0.4842 -0.3449
33153SOL    HW1 4144   9.127   0.921   7.045 -0.5669 -0.0621  0.2161
33153SOL    HW2 4145   9.265   0.897   7.102 -0.0784  0.4764 -0.7046
33154SOL     OW 4146   9.216   6.485  11.854 -0.0746  0.1715 -0.2442
33154SOL    HW1 4147   9.182   6.414  11.909  1.0706 -0.3872 -0.2177
33154SOL    HW2 4148   9.138   6.533  11.825 -0.9099 -1.3355 -0.5840
33155SOL     OW 4149   6.928   6.800   8.210  1.1808 -0.0366 -0.4073
33155SOL    HW1 4150   6.920   6.894   8.225 -1.9184 -0.3890  0.8540
33155SOL    HW2 4151   6.939   6.763   8.298  0.2585 -0.9786 -0.6775
33156SOL     OW 4152   2.411  10.730   7.914  0.0430 -0.3248  0.2171
33156SOL    HW1 4153   2.437  10.765   7.999 -0.1933  0.6528 -0.0994
33156SOL    HW2 4154   2.335  10.783   7.888 -0.0295 -0.7575 -0.4936
33157SOL     OW 4155   8.418  10.666   7.472 -0.2735 -0.6577  0.1818
33157SOL    HW1 4156   8.338  10.718   7.464 -0.3311 -0.8070 -0.2959
33157SOL    HW2 4157   8.450  10.658   7.382  1.8745  1.8599  0.5953
33158SOL     OW 4158   7.243  11.441   7.739 -0.3152 -0.3313 -0.0334
33158SOL    HW1 4159   7.259  11.479   7.825  0.2898  1.3210 -0.8431
33158SOL    HW2 4160   7.325  11.451   7.692 -0.8837 -0.4719 -1.0899
33159SOL     OW 4161   3.736  11.146   8.132 -0.2962  0.2861  0.1648
33159SOL    HW1 4162   3.696  11.207   8.070  0.1949  1.7917  1.2849
33159SOL    HW2 4163   3.813  11.113   8.087  0.3644  1.7846  0.1369
33160SOL     OW 4164   2.232   6.303   0.484 -0.5133 -0.3084 -0.1830
33160SOL    HW1 4165   2.214   6.287   0.577 -1.8757 -0.9792 -0.5452
33160SOL    HW2 4166   2.221   6.217   0.443 -0.7609  0.1586 -1.0966
33161SOL     OW 4167   6.915   6.284   9.561 -0.7508  0.3238 -0.3357
33161SOL    HW1 4168   6.976   6.348   9.523  2.0380 -2.1258 -0.2847
33161SOL    HW2 4169   6.909   6.309   9.653  1.9746 -0.6152  0.1527
33162SOL     OW 4170   8.710   1.206   5.298 -0.1941 -0.1506  0.2034
33162SOL    HW1 4171   8.737   1.166   5.215  2.0281  0.4131  0.5882
33162SOL    HW2 4172   8.716   1.135   5.362  0.8914  0.0532  0.3563
33163SOL     OW 4173   2.013   3.605   8.830 -0.3622  0.1380  0.9567
33163SOL    HW1 4174   2.090   3.580   8.882 -0.9400  0.0356  1.7959
33163SOL    HW2 4175   1.971   3.521   8.809  0.3338  0.1220 -0.4429
33164SOL     OW 4176  11.209   8.109   2.230 -0.2840 -0.6497 -0.1471
33164SOL    HW1 4177  11.278   8.131   2.293 -0.8533 -0.0318  0.2814
33164SOL    HW2 4178  11.252   8.111   2.145  0.0099  0.7735  0.0153
33165SOL     OW 4179   7.376   4.463   7.453 -0.5255  0.2658 -0.1311
33165SOL    HW1 4180   7.310   4.476   7.521  0.1181 -1.0800  0.7921
33165SOL    HW2 4181   7.414   4.550   7.441 -0.6587  0.5477  1.2497
33166SOL     OW 4182   6.177   7.970   5.265  0.4364  0.3806  1.0343
33166SOL    HW1 4183   6.266   7.994   5.288  0.7537  0.4702 -0.1940
33166SOL    HW2 4184   6.166   8.002   5.175 -1.4544  1.9957  1.7659
33167SOL     OW 4185  11.303   3.591   8.728  0.0835  0.3799 -0.3467
33167SOL    HW1 4186  11.391   3.554   8.713  0.3945 -0.0595  2.1859
33167SOL    HW2 4187  11.251   3.558   8.655  1.3692 -1.6836 -0.4239
33168SOL     OW 4188   1.274   6.953   2.555 -0.1912  0.6004  0.2192
33168SOL    HW1 4189   1.319   6.995   2.628  1.2124  0.4480 -0.5349
33168SOL    HW2 4190   1.289   6.860   2.568  0.3124  0.5859 -0.4015
33169SOL     OW 4191   9.185   8.312   9.591  0.3407 -0.3247 -0.3141
33169SOL    HW1 4192   9.096   8.282   9.571  0.7263 -0.8921 -1.1912
33169SOL    HW2 4193   9.203   8.379   9.525  0.7451 -0.5557 -0.4413
33170SOL     OW 4194   9.497   1.629   2.780  0.1123  0.3591  0.3155
33170SOL    HW1 4195   9.473   1.704   2.725  0.1863 -0.8272 -1.4246
33170SOL    HW2 4196   9.445   1.641   2.860 -0.4602  1.8442 -0.2261
33171SOL     OW 4197   6.163   2.459   9.477 -0.6625 -0.5701  0.2857
33171SOL    HW1 4198   6.181   2.494   9.390 -1.3687  1.1368  0.8005
33171SOL    HW2 4199   6.214   2.514   9.537 -0.5475 -1.4310  1.0027
33172SOL     OW 4200   6.320   3.109   6.989  0.6437 -0.0923  0.3324
33172SOL    HW1 4201   6.347   3.017   6.989 -1.1733 -0.6577  0.5109
33172SOL    HW2 4202   6.294   3.126   7.080  0.3220  0.3882  0.1546
33173SOL     OW 4203   0.262   1.256   7.363 -0.3735  0.1523 -0.2549
33173SOL    HW1 4204   0.191   1.319   7.355  0.6634  1.4954  0.6505
33173SOL    HW2 4205   0.307   1.259   7.279 -0.7831  0.0409 -0.4801
33174SOL     OW 4206   1.849   7.178  11.126 -0.4200 -0.5335  0.2776
33174SOL    HW1 4207   1.851   7.098  11.075 -0.7474  0.5341 -1.4930
33174SOL    HW2 4208   1.918   7.167  11.192 -1.2413 -2.7187  0.8714
33175SOL     OW 4209   9.549   0.746   3.202 -0.2639  0.4285  0.0463
33175SOL    HW1 4210   9.550   0.821   3.262  0.3928 -0.0485  0.6527
33175SOL    HW2 4211   9.487   0.685   3.243  0.5216 -0.0886  0.5042
33176SOL     OW 4212  11.232  11.783   6.781 -0.4250  0.3235 -0.2526
33176SOL    HW1 4213  11.313  11.772   6.831 -0.8702  0.6356  0.5549
33176SOL    HW2 4214  11.170  11.822   6.843 -1.4251 -0.5874 -0.6390
33177SOL     OW 4215   5.803   6.939   9.992 -0.2117 -0.6135  0.5603
33177SOL    HW1 4216   5.873   6.988   9.949  0.0457  0.1827  1.8344
33177SOL    HW2 4217   5.822   6.848   9.973  0.5941 -0.3515  0.0466
33178SOL     OW 4218   4.811   6.755   5.444  0.1072 -0.3997 -0.0045
33178SOL    HW1 4219   4.757   6.809   5.386  1.2279 -1.2307 -1.9119
33178SOL    HW2 4220   4.874   6.816   5.482  1.0555 -0.2363 -1.7682
33179SOL     OW 4221   1.473   9.379   7.947  0.5252 -0.6405  0.2651
33179SOL    HW1 4222   1.460   9.376   7.852 -1.0962  1.7692  0.3406
33179SOL    HW2 4223   1.561   9.415   7.957  0.9383 -1.4570 -0.3106
33180SOL     OW 4224   5.294   1.975  10.258 -0.0764  0.0305 -0.3679
33180SOL    HW1 4225   5.203   1.985  10.228  0.3867  1.0802 -1.5225
33180SOL    HW2 4226   5.292   2.004  10.349 -0.4334  2.7664 -1.1560
33181SOL     OW 4227   8.464   0.684   5.522  0.1236 -0.1952 -0.0542
33181SOL    HW1 4228   8.392   0.738   5.555  0.3505 -0.1927  0.4492
33181SOL    HW2 4229   8.512   0.658   5.601  0.7895 -0.0333 -0.3988
33182SOL     OW 4230   6.656   4.588   4.130  0.1216 -0.2702  0.3172
33182SOL    HW1 4231   6.612   4.507   4.106 -0.7887  0.0884  0.7517
33182SOL    HW2 4232   6.655   4.589   4.226 -0.6256  0.6539  0.3110
33183SOL     OW 4233   7.235   9.727   1.897 -0.5756 -0.1077 -0.0285
33183SOL    HW1 4234   7.316   9.731   1.845  0.3377  1.5792  1.4001
33183SOL    HW2 4235   7.261   9.680   1.977 -1.4981 -1.1184 -0.3038
33184SOL     OW 4236   6.758   8.580   2.380 -0.3891  0.1520  0.2066
33184SOL    HW1 4237   6.671   8.582   2.420 -1.0891 -1.6730 -1.1089
33184SOL    HW2 4238   6.753   8.511   2.314  1.2129  1.9144 -1.9054
33185SOL     OW 4239   7.232   4.201   8.796 -0.3170  0.1063 -0.2509
33185SOL    HW1 4240   7.194   4.261   8.732  0.2376  0.3237 -0.3737
33185SOL    HW2 4241   7.245   4.120   8.748 -0.3777  0.1120 -0.2773
33186SOL     OW 4242   9.201   3.530   9.996 -0.3005  0.4801 -0.5024
33186SOL    HW1 4243   9.255   3.571  10.063  0.0598 -1.0379  0.1895
33186SOL    HW2 4244   9.263   3.481   9.942 -0.8218 -0.1269 -0.5665
33187SOL     OW 4245   8.471   0.959   5.403 -1.2346 -0.7666 -0.2104
33187SOL    HW1 4246   8.477   0.863   5.401  0.0389 -0.6962 -1.0960
33187SOL    HW2 4247   8.557   0.987   5.434 -2.0415  0.0709  1.3653
33188SOL     OW 4248   0.201   7.383  10.074  0.7485  0.4154  0.7416
33188SOL    HW1 4249   0.263   7.320  10.038  0.1615  0.2907 -0.0763
33188SOL    HW2 4250   0.165   7.339  10.151  1.0433  0.1419  0.7273
33189SOL     OW 4251   1.150   5.240  10.088 -0.0642 -0.1603  0.1021
33189SOL    HW1 4252   1.086   5.278  10.026  0.1140 -1.9529 -1.2814
33189SOL    HW2 4253   1.232   5.285  10.068 -0.1718 -0.2102 -0.4949
33190SOL     OW 4254   8.416   8.977   3.924 -0.4780 -0.2379 -0.0715
33190SOL    HW1 4255   8.476   8.995   3.996 -2.9440  1.1675  1.8021
33190SOL    HW2 4256   8.436   9.044   3.859  2.0581 -1.7692 -0.9746
33191SOL     OW 4257   8.433   7.072  10.410 -0.3559 -0.4129 -0.4337
33191SOL    HW1 4258   8.412   6.979  10.397 -1.9830 -0.1932  0.4209
33191SOL    HW2 4259   8.445   7.106  10.322 -1.1532 -1.1273 -0.8332
33192SOL     OW 4260  10.655   4.604  10.132  0.3736 -0.1340  0.3316
33192SOL    HW1 4261  10.628   4.601  10.040  0.8752  0.5992  0.1571
33192SOL    HW2 4262  10.591   4.660  10.174  1.4757  1.4602 -0.0476
33193SOL     OW 4263   6.652   1.087  10.119  0.0651 -0.4411  0.3977
33193SOL    HW1 4264   6.703   1.100  10.039 -0.5946 -1.3911 -0.1983
33193SOL    HW2 4265   6.706   1.125  10.188 -0.1935  2.1104 -0.7103
33194SOL     OW 4266   8.998   6.186   4.804  0.6203 -0.2825  0.4122
33194SOL    HW1 4267   9.017   6.236   4.724  0.5888  0.7638  1.0414
33194SOL    HW2 4268   9.033   6.240   4.875  0.8688 -1.3207  1.0970
33195SOL     OW 4269   8.405  11.471   8.206  0.0119  0.3350 -0.3098
33195SOL    HW1 4270   8.318  11.482   8.167 -0.5765  0.9645  1.1160
33195SOL    HW2 4271   8.434  11.560   8.227 -0.1334 -0.0235  1.5681
33196SOL     OW 4272   3.808   6.630   8.515 -0.2985  0.2219 -0.1970
33196SOL    HW1 4273   3.724   6.634   8.560 -0.1958  0.8451 -0.0525
33196SOL    HW2 4274   3.871   6.606   8.583 -0.2206  0.6654 -0.1112
33197SOL     OW 4275   3.732   6.557  10.468 -0.0665  0.2537 -0.8787
33197SOL    HW1 4276   3.650   6.528  10.430 -1.0314  0.7992  0.6707
33197SOL    HW2 4277   3.709   6.586  10.556  1.5758  1.5527 -0.8061
33198SOL     OW 4278   7.622   5.069   8.455 -0.3415 -0.1903  0.5187
33198SOL    HW1 4279   7.657   4.981   8.442  0.6902  0.0466  1.5080
33198SOL    HW2 4280   7.636   5.114   8.371  4.3185  0.7216  1.5050
33199SOL     OW 4281  10.366   4.475   0.651  0.4172 -0.1155 -0.3357
33199SOL    HW1 4282  10.290   4.447   0.600 -1.4625  0.1086  2.1811
33199SOL    HW2 4283  10.406   4.393   0.682  0.7597 -0.2032 -0.9768
33200SOL     OW 4284   6.193   6.338   0.287 -0.2111 -0.4617  0.9127
33200SOL    HW1 4285   6.256   6.408   0.307 -0.4622 -0.3636  1.3888
33200SOL    HW2 4286   6.226   6.298   0.207 -0.9502  1.2657 -0.3274
33201SOL     OW 4287   6.339   7.794  10.874 -0.2086  0.2101  0.0048
33201SOL    HW1 4288   6.409   7.850  10.839 -1.5854  1.5306 -0.7286
33201SOL    HW2 4289   6.281   7.778  10.799  0.5100 -2.9128 -0.0408
33202SOL     OW 4290  11.303   1.628   6.674 -0.4076  0.0038  0.0910
33202SOL    HW1 4291  11.289   1.537   6.647 -0.4412  0.2453 -0.7237
33202SOL    HW2 4292  11.240   1.642   6.745 -1.6550 -0.0881 -0.9573
33203SOL     OW 4293   2.892   4.461   5.800  0.2676 -0.1978 -0.2075
33203SOL    HW1 4294   2.807   4.459   5.757 -0.2482 -0.5093  0.8011
33203SOL    HW2 4295   2.875   4.434   5.890  1.1833  1.2489  0.4460
33204SOL     OW 4296   0.870  10.800   6.853 -0.2602  0.1814  0.1992
33204SOL    HW1 4297   0.894  10.710   6.875  0.2362  0.5939  1.4238
33204SOL    HW2 4298   0.888  10.807   6.759  0.1957 -0.8351  0.1952
33205SOL     OW 4299  11.475  10.339   7.447 -0.0734  0.0721  0.0899
33205SOL    HW1 4300  11.494  10.429   7.422 -0.4368  0.0440 -0.3221
33205SOL    HW2 4301  11.523  10.325   7.528 -0.9632  1.0264  0.8239
33206SOL     OW 4302   1.599   5.563   7.579 -0.2374 -0.1948 -0.4824
33206SOL    HW1 4303   1.663   5.508   7.533  0.8006 -0.5300  1.3018
33206SOL    HW2 4304   1.516   5.516   7.568 -0.2679  0.2975 -2.9072
33207SOL     OW 4305  10.933   5.905  10.490 -0.2531 -0.7264 -0.7321
33207SOL    HW1 4306  10.892   5.940  10.569 -0.4044  0.8671 -1.4757
33207SOL    HW2 4307  11.012   5.958  10.479  0.5872 -1.9753 -0.8054
33208SOL     OW 4308   4.728  11.584   7.410 -0.6885 -0.4681  0.7850
33208SOL    HW1 4309   4.803  11.621   7.456 -1.2634  0.2957  1.1515
33208SOL    HW2 4310   4.722  11.635   7.329 -1.7511  0.5875  1.4952
33209SOL     OW 4311   0.594   1.568   2.808  0.1214  0.1344  0.0317
33209SOL    HW1 4312   0.676   1.522   2.787 -0.5227 -1.5246  0.9464
33209SOL    HW2 4313   0.573   1.617   2.729  1.0639 -0.8567 -0.8731
33210SOL     OW 4314   3.258   8.867   3.340  0.1776 -0.1834  0.2995
33210SOL    HW1 4315   3.215   8.860   3.425  0.6442 -0.7402  0.4996
33210SOL    HW2 4316   3.328   8.932   3.354  0.9686 -1.0878  0.6621
33211SOL     OW 4317   3.565   2.896   9.825  0.6638  0.2883 -0.2009
33211SOL    HW1 4318   3.525   2.813   9.803 -0.8298  0.8784  0.1971
33211SOL    HW2 4319   3.509   2.962   9.785  1.5865  1.1313 -0.1571
33212SOL     OW 4320  10.091   5.082   2.297  0.2630 -0.2303 -0.1905
33212SOL    HW1 4321  10.104   5.139   2.373  0.9833 -0.9267  0.2243
33212SOL    HW2 4322  10.004   5.044   2.309  0.2071 -0.0177  0.0663
33213SOL     OW 4323   3.442   4.282   9.504  0.5812 -0.5554  0.7027
33213SOL    HW1 4324   3.352   4.276   9.471  0.7253 -0.9493  0.3738
33213SOL    HW2 4325   3.496   4.274   9.426  0.8891  0.7990  0.7535
33214SOL     OW 4326   5.423  10.230   8.730  0.6511  0.5854 -0.5470
33214SOL    HW1 4327   5.367  10.153   8.735  1.3818 -0.0194 -1.4663
33214SOL    HW2 4328   5.429  10.261   8.821 -0.0096 -0.1659 -0.2361
33215SOL     OW 4329   1.436   5.707   2.326  0.3910 -0.1382 -0.8586
33215SOL    HW1 4330   1.511   5.707   2.267  1.2897  0.8758  0.2089
33215SOL    HW2 4331   1.462   5.649   2.398  0.3592  0.5358 -0.2839
33216SOL     OW 4332   5.992   1.610   8.134  0.3766 -0.8090  0.1324
33216SOL    HW1 4333   6.034   1.525   8.145 -0.1015 -1.2950 -1.4848
33216SOL    HW2 4334   5.901   1.595   8.162  0.1299 -1.0214 -0.7520
33217SOL     OW 4335   1.590   1.294   5.729 -0.0108  0.0177 -0.4526
33217SOL    HW1 4336   1.514   1.324   5.780 -0.7815 -0.8049 -1.1035
33217SOL    HW2 4337   1.625   1.221   5.780  0.4520  0.5083 -0.0644
33218SOL     OW 4338   4.088   8.958   2.401 -0.1639  0.4358 -0.3116
33218SOL    HW1 4339   4.130   8.879   2.368  2.1760  1.4513  0.0099
33218SOL    HW2 4340   4.044   8.995   2.325  2.1298  0.8736 -1.5127
33219SOL     OW 4341  11.668  10.119  11.568  0.1324 -0.0978  0.4251
33219SOL    HW1 4342  11.639  10.049  11.510  1.6799  0.4609 -1.1173
33219SOL    HW2 4343  11.762  10.126  11.551  0.0309  2.3292  0.5358
33220SOL     OW 4344   7.013   1.858   0.503 -0.7133  0.3317 -0.2147
33220SOL    HW1 4345   7.051   1.808   0.430 -0.1594  1.1242 -0.4795
33220SOL    HW2 4346   6.992   1.791   0.569 -1.7996 -0.4705 -1.3275
33221SOL     OW 4347  10.895   1.192   4.702 -0.6293 -0.1116 -0.3604
33221SOL    HW1 4348  10.959   1.260   4.685 -0.1610 -0.3537  0.4368
33221SOL    HW2 4349  10.919   1.155   4.787 -2.3468  0.3964  0.3903
33222SOL     OW 4350   2.533  10.300   3.207  0.1424  0.1027 -0.1040
33222SOL    HW1 4351   2.591  10.227   3.225  0.6890  0.2471 -1.2187
33222SOL    HW2 4352   2.484  10.274   3.129 -0.1889  0.6203 -0.0758
33223SOL     OW 4353   8.721   0.338   8.947 -0.6666 -0.8135  0.2811
33223SOL    HW1 4354   8.727   0.260   8.892 -0.8327  0.8896 -2.3318
33223SOL    HW2 4355   8.629   0.340   8.974 -0.4080 -2.0971  1.3626
33224SOL     OW 4356   6.037   8.986  11.077 -0.2022 -0.6863 -0.2499
33224SOL    HW1 4357   6.004   9.004  11.165 -2.6772  0.9716 -1.4090
33224SOL    HW2 4358   6.084   8.903  11.086 -0.1341 -0.4393  2.6535
33225SOL     OW 4359  10.920   4.566   1.599 -0.2307  0.0751 -0.4977
33225SOL    HW1 4360  10.954   4.522   1.676  0.0460 -1.9417 -1.7057
33225SOL    HW2 4361  10.862   4.634   1.634  1.4223  0.5676  1.4874
33226SOL     OW 4362   4.886   5.690   3.544 -0.2188  0.1279  0.0787
33226SOL    HW1 4363   4.947   5.762   3.531  0.4152 -0.5206 -0.6031
33226SOL    HW2 4364   4.824   5.723   3.609 -1.3599  2.1982 -1.8795
33227SOL     OW 4365   1.425   8.369   9.776 -0.5517 -0.0905  0.1706
33227SOL    HW1 4366   1.415   8.422   9.855 -0.3750  0.0845  0.0770
33227SOL    HW2 4367   1.511   8.394   9.742 -0.1289 -1.0134  0.5485
33228SOL     OW 4368   2.563   3.880   2.912  0.3481 -0.3634 -0.3347
33228SOL    HW1 4369   2.638   3.888   2.970 -0.8404  0.9091  1.1017
33228SOL    HW2 4370   2.532   3.969   2.899 -1.1702 -0.8751 -0.5197
33229SOL     OW 4371  10.361   0.849   9.704 -0.5307 -0.7666 -0.2000
33229SOL    HW1 4372  10.267   0.850   9.685 -0.6050  1.5815 -0.1120
33229SOL    HW2 4373  10.367   0.834   9.799 -0.8874 -0.1176 -0.0676
33230SOL     OW 4374   5.904   3.689   4.190 -0.4876 -0.2709 -0.1240
33230SOL    HW1 4375   5.947   3.733   4.264 -0.6282  0.1225 -0.2735
33230SOL    HW2 4376   5.976   3.660   4.134 -0.3692 -0.8272  0.3112
33231SOL     OW 4377  10.380   5.783   8.782 -0.2611 -0.5817 -0.4335
33231SOL    HW1 4378  10.445   5.770   8.713 -0.2629 -0.0130 -0.5415
33231SOL    HW2 4379  10.404   5.866   8.824 -0.6428 -0.5962 -0.1744
33232SOL     OW 4380   2.240   4.535   4.414  0.2500 -0.4038 -0.1316
33232SOL    HW1 4381   2.268   4.443   4.408 -1.6738 -1.0371 -0.0477
33232SOL    HW2 4382   2.167   4.542   4.354  0.7247  1.2597 -0.5638
33233SOL     OW 4383  11.640   3.470   5.193  0.2210 -0.2184  0.2987
33233SOL    HW1 4384  11.557   3.440   5.156  1.3459 -0.2433 -2.4486
33233SOL    HW2 4385  11.657   3.410   5.265 -1.3179 -1.2698 -0.1515
33234SOL     OW 4386   8.130  10.140   2.433 -0.3713 -0.8930 -0.1014
33234SOL    HW1 4387   8.114  10.183   2.350 -0.7115 -0.7116  0.0538
33234SOL    HW2 4388   8.056  10.166   2.488 -0.7794 -1.9575 -0.1167
33235SOL     OW 4389   1.356   9.724  10.661  0.0327  0.1214 -0.2383
33235SOL    HW1 4390   1.446   9.698  10.646  0.5060  0.8347  1.1270
33235SOL    HW2 4391   1.334   9.781  10.587  1.3840  1.4995  0.3591
33236SOL     OW 4392   9.395   9.082   0.818  0.6263  0.3996  0.0705
33236SOL    HW1 4393   9.370   9.120   0.734  1.0455 -0.8358 -0.6399
33236SOL    HW2 4394   9.410   8.990   0.799  1.3778  0.2267  1.3790
33237SOL     OW 4395   6.929  11.787   5.308 -0.3955  0.0315 -0.4132
33237SOL    HW1 4396   6.928  11.833   5.224 -3.5485  2.2113  0.6522
33237SOL    HW2 4397   6.897  11.851   5.371 -0.0871 -2.1520  2.1313
33238SOL     OW 4398   5.965   3.303   7.800  0.0986  0.1174  0.0334
33238SOL    HW1 4399   5.881   3.258   7.808 -0.0386 -0.0388 -1.8612
33238SOL    HW2 4400   6.030   3.234   7.809 -0.0162  0.0155  0.0899
33239SOL     OW 4401   2.330   1.858   7.025  0.1912 -0.2229  0.5700
33239SOL    HW1 4402   2.413   1.834   6.985  0.1161  1.3998 -0.6958
33239SOL    HW2 4403   2.352   1.926   7.088 -0.3060  1.8410 -1.3323
33240SOL     OW 4404   9.603   1.387   1.996 -0.4476 -0.0570 -0.6263
33240SOL    HW1 4405   9.551   1.461   2.028 -1.6716 -0.6372 -1.2158
33240SOL    HW2 4406   9.540   1.317   1.983  0.7575 -1.3580  0.2813
33241SOL     OW 4407   9.336   2.301   1.544 -0.1263  0.0344 -0.3865
33241SOL    HW1 4408   9.294   2.234   1.598 -0.7704  1.0423  0.3980
33241SOL    HW2 4409   9.409   2.333   1.598  3.1142 -3.0816 -2.4770
33242SOL     OW 4410   0.223   7.346   4.838 -0.2112 -0.4381  0.2599
33242SOL    HW1 4411   0.229   7.255   4.809  0.6529 -0.3779  0.2271
33242SOL    HW2 4412   0.258   7.344   4.927 -1.3032 -0.3381  0.6978
33243SOL     OW 4413   5.362   0.071   1.496 -0.6347 -0.0631  0.6056
33243SOL    HW1 4414   5.374   0.011   1.422  0.1577 -0.3196  0.9379
33243SOL    HW2 4415   5.382   0.018   1.573  1.2102  0.9233  0.8420
33244SOL     OW 4416   4.364   9.386   8.261 -0.1337  0.0248  0.5650
33244SOL    HW1 4417   4.409   9.373   8.344  0.2125 -2.2858  0.0703
33244SOL    HW2 4418   4.430   9.425   8.204 -0.1048  0.7540  1.0799
33245SOL     OW 4419   7.804   0.525   7.113  0.2386  0.7289 -0.5144
33245SOL    HW1 4420   7.769   0.450   7.066 -0.1574 -0.3474  1.3902
33245SOL    HW2 4421   7.761   0.601   7.074  0.1552 -0.0768 -2.0360
33246SOL     OW 4422   3.001   2.335   7.220  0.1988  0.1981 -0.7971
33246SOL    HW1 4423   2.994   2.295   7.306 -1.5017 -2.6630 -2.1303
33246SOL    HW2 4424   3.096   2.339   7.202  0.6234  1.5461  1.4011
33247SOL     OW 4425  10.932   7.569   5.436  0.7288 -0.2041 -0.2144
33247SOL    HW1 4426  10.970   7.517   5.365  1.1275 -0.1198 -0.0699
33247SOL    HW2 4427  10.933   7.511   5.511  0.7328 -0.1448 -0.1688
33248SOL     OW 4428   1.977   5.192  11.813 -0.1736 -0.2044  0.1181
33248SOL    HW1 4429   2.032   5.242  11.752 -2.8933  1.8839 -0.8243
33248SOL    HW2 4430   1.922   5.137  11.757 -2.7808  1.8097  0.4961
33249SOL     OW 4431  10.209   4.411   5.415 -0.3746  0.3243 -0.6142
33249SOL    HW1 4432  10.190   4.317   5.412  1.8531 -0.3187  1.4736
33249SOL    HW2 4433  10.127   4.454   5.392 -1.6989 -2.1220 -0.7393
33250SOL     OW 4434   3.896  10.909   9.381  0.7836 -0.0936  0.2436
33250SOL    HW1 4435   3.986  10.942   9.392  1.5966 -1.7402 -1.0147
33250SOL    HW2 4436   3.846  10.985   9.351  1.8492  0.7613  0.5749
33251SOL     OW 4437  10.525   3.827   1.292 -0.1776  0.0784  0.3225
33251SOL    HW1 4438  10.526   3.901   1.353 -0.1671  0.5178 -0.2063
33251SOL    HW2 4439  10.522   3.749   1.348  1.3406  0.4221  0.9464
33252SOL     OW 4440   1.354   1.461   4.934 -0.7589 -0.1016 -0.3520
33252SOL    HW1 4441   1.386   1.412   5.010 -2.1303  1.5782  1.4223
33252SOL    HW2 4442   1.265   1.486   4.958 -1.2753  0.4094 -2.6060
33253SOL     OW 4443   5.360   1.303   3.999 -0.0126 -0.0588  0.4569
33253SOL    HW1 4444   5.366   1.298   3.904 -1.8448  0.3168  0.3016
33253SOL    HW2 4445   5.452   1.305   4.028  0.5767  0.2109 -1.2975
33254SOL     OW 4446   2.411   0.625   7.747  0.2569 -0.8039  0.2366
33254SOL    HW1 4447   2.455   0.702   7.712 -0.3058 -0.0673  1.0980
33254SOL    HW2 4448   2.377   0.653   7.832 -0.0731 -1.9654  0.5133
33255SOL     OW 4449   9.405   4.057   3.754  0.1249 -0.4165 -0.0726
33255SOL    HW1 4450   9.476   4.034   3.694 -0.3749 -2.2147 -0.0287
33255SOL    HW2 4451   9.333   4.084   3.696 -0.1173 -1.4713 -0.2984
33256SOL     OW 4452  11.928  11.612   3.553 -0.2862  0.1298 -0.2224
33256SOL    HW1 4453  11.849  11.561   3.571 -0.2597  0.1715  0.0074
33256SOL    HW2 4454  11.896  11.702   3.541 -0.3361  0.0598 -0.6461
33257SOL     OW 4455   3.965   3.359   2.721 -0.2198 -0.2233 -0.2533
33257SOL    HW1 4456   3.881   3.317   2.735  0.4297 -0.8304  2.2450
33257SOL    HW2 4457   4.006   3.309   2.650 -0.5902 -2.0537  0.7880
33258SOL     OW 4458   4.077   9.452   1.034  0.0510  0.1348 -0.0096
33258SOL    HW1 4459   4.012   9.425   0.969  0.6496 -2.2824  0.2851
33258SOL    HW2 4460   4.161   9.434   0.992  0.5106  1.2531  0.3991
33259SOL     OW 4461  11.512   8.548   0.911 -1.0556  0.7562  0.3630
33259SOL    HW1 4462  11.574   8.547   0.984 -1.6361 -2.1166  0.8989
33259SOL    HW2 4463  11.481   8.458   0.903 -3.4507  1.6285 -1.3844
33260SOL     OW 4464   4.103  10.650   9.891  0.6411 -0.1645  0.6150
33260SOL    HW1 4465   4.133  10.695   9.970 -0.8689  2.3638 -0.1438
33260SOL    HW2 4466   4.051  10.577   9.924  1.7526 -0.4317  1.9000
33261SOL     OW 4467   4.066   6.324   2.644  0.1507 -0.2188 -0.2110
33261SOL    HW1 4468   4.017   6.288   2.569 -0.0458  1.6489 -1.0545
33261SOL    HW2 4469   4.078   6.416   2.621 -0.3717  0.5394  2.3241
33262SOL     OW 4470   6.233  11.693   0.166  0.2648 -0.4229  0.6390
33262SOL    HW1 4471   6.284  11.734   0.236  1.9674  1.3000 -1.4644
33262SOL    HW2 4472   6.155  11.747   0.159 -0.0959 -0.8214  1.3901
33263SOL     OW 4473   5.838   0.313   0.037  0.6747  0.2896  0.1826
33263SOL    HW1 4474   5.809   0.298  -0.053  0.6849  0.5966  0.1287
33263SOL    HW2 4475   5.760   0.345   0.082  0.6715  0.1443  0.2836
33264SOL     OW 4476  10.771   0.218   1.476  0.2635 -0.3200 -0.2903
33264SOL    HW1 4477  10.762   0.175   1.562 -0.2939 -1.1398 -0.7493
33264SOL    HW2 4478  10.862   0.201   1.451  0.7257  0.7806  0.5790
33265SOL     OW 4479   6.807  11.852   0.730  0.6955 -0.7280 -0.4910
33265SOL    HW1 4480   6.801  11.918   0.800  2.4127 -3.5543  2.6268
33265SOL    HW2 4481   6.887  11.803   0.751  0.7381 -2.4067 -3.9439
33266SOL     OW 4482   2.447   8.599   6.909 -0.5105 -0.2982 -0.9301
33266SOL    HW1 4483   2.513   8.651   6.953 -0.4534 -0.4670 -0.8183
33266SOL    HW2 4484   2.495   8.529   6.866 -0.5856 -0.2492 -1.0974
33267SOL     OW 4485   6.149   2.522   3.497 -0.0892  0.1154  0.0274
33267SOL    HW1 4486   6.153   2.617   3.494 -0.6594  0.2215  1.6484
33267SOL    HW2 4487   6.170   2.500   3.588  1.7436 -1.4310 -0.6997
33268SOL     OW 4488  10.502   1.468   2.069  0.0977 -0.2051 -0.4536
33268SOL    HW1 4489  10.439   1.521   2.019  1.1779  1.7527  0.1424
33268SOL    HW2 4490  10.528   1.524   2.142  1.7353 -1.3610 -0.0901
33269SOL     OW 4491   2.178   8.325   0.637  0.1147 -0.2657 -0.0857
33269SOL    HW1 4492   2.137   8.379   0.569 -0.5233 -1.5392 -0.7359
33269SOL    HW2 4493   2.248   8.381   0.672  1.1205  0.0882 -2.4697
33270SOL     OW 4494   8.933   9.611   2.134 -0.4498 -0.3004  0.3646
33270SOL    HW1 4495   8.942   9.704   2.111 -1.8308 -0.4733 -1.0502
33270SOL    HW2 4496   8.948   9.565   2.051 -1.5056 -1.2290  0.6666
33271SOL     OW 4497   9.389   3.115   6.191 -0.2262  0.0585 -0.4020
33271SOL    HW1 4498   9.386   3.140   6.283  1.0164 -0.7802 -0.0902
33271SOL    HW2 4499   9.475   3.073   6.181 -1.4810 -2.5797 -1.2030
33272SOL     OW 4500   8.485   2.243   4.598 -0.2617  0.1030  0.2721
33272SOL    HW1 4501   8.416   2.197   4.645 -0.4082  0.2987  0.2501
33272SOL    HW2 4502   8.566   2.202   4.628 -0.1917  1.5350  2.2704
33273SOL     OW 4503   9.188   6.526   3.063  0.2251 -0.5101  0.1896
33273SOL    HW1 4504   9.235   6.489   3.137  1.2588  0.8432  0.2448
33273SOL    HW2 4505   9.235   6.607   3.042 -0.8898 -0.1384 -1.0404
33274SOL     OW 4506   8.860   7.275  10.608 -0.1448 -0.2462  0.3233
33274SOL    HW1 4507   8.921   7.251  10.538 -0.4404 -1.1399  0.3557
33274SOL    HW2 4508   8.785   7.217  10.595  0.3880 -1.4246  2.2250
33275SOL     OW 4509   0.856   3.278   1.451 -0.2613 -0.0547  0.2249
33275SOL    HW1 4510   0.789   3.239   1.507  0.2841  1.3756  1.9798
33275SOL    HW2 4511   0.835   3.372   1.452  1.7017  0.4174  0.7918
33276SOL     OW 4512   8.775   5.355   0.749 -0.7765 -0.3086 -0.2749
33276SOL    HW1 4513   8.740   5.283   0.802 -1.1167 -0.1789 -0.3204
33276SOL    HW2 4514   8.747   5.335   0.660 -0.8107 -0.1576 -0.2980
33277SOL     OW 4515   3.582   4.495  10.379  0.0491 -0.3579 -0.0525
33277SOL    HW1 4516   3.561   4.415  10.427 -1.2877 -0.7108 -1.1766
33277SOL    HW2 4517   3.659   4.530  10.425 -1.5137 -0.3019  2.7523
33278SOL     OW 4518   4.219   2.816  10.354  0.0522 -0.0621 -0.0063
33278SOL    HW1 4519   4.182   2.856  10.433  0.6883 -0.9948  0.7780
33278SOL    HW2 4520   4.142   2.791  10.303 -0.4016  2.7512 -0.8895
33279SOL     OW 4521  11.475   1.309   3.221 -0.2469  0.1087  0.1211
33279SOL    HW1 4522  11.458   1.217   3.202  0.3300 -0.0565  0.3786
33279SOL    HW2 4523  11.570   1.317   3.219 -0.3141  0.8919 -0.7665
33280SOL     OW 4524   2.661   2.940   1.972  0.3321 -0.5186 -0.1320
33280SOL    HW1 4525   2.628   2.918   2.059 -2.7242  0.6138 -0.8817
33280SOL    HW2 4526   2.709   3.021   1.984 -1.9623  0.8597  0.2549
33281SOL     OW 4527   9.673  10.212   9.947  0.6647  0.3135 -0.2999
33281SOL    HW1 4528   9.654  10.304   9.966 -0.3530  0.0360  0.1242
33281SOL    HW2 4529   9.593  10.166   9.973  1.1258 -0.6793 -0.6043
33282SOL     OW 4530  10.589  10.615   7.628 -0.1691 -0.1053  0.5342
33282SOL    HW1 4531  10.560  10.583   7.713 -0.6803 -0.9829  0.0557
33282SOL    HW2 4532  10.525  10.682   7.604  1.2835  1.8335  1.8421
33283SOL     OW 4533   3.150   2.276   3.345  0.1984  0.0735  0.5843
33283SOL    HW1 4534   3.113   2.323   3.270 -0.2264 -0.4215  0.4726
33283SOL    HW2 4535   3.158   2.185   3.314 -0.1896 -0.1811  1.2025
33284SOL     OW 4536   0.205   9.926   6.500  0.4344  0.4363 -0.4316
33284SOL    HW1 4537   0.290   9.928   6.457  0.5259  1.6453 -0.2394
33284SOL    HW2 4538   0.168  10.013   6.484  1.2661  1.6901  3.4567
33285SOL     OW 4539   1.380   6.016   0.530  0.2606  0.0641 -0.0605
33285SOL    HW1 4540   1.319   6.008   0.604  1.8664 -2.5601  1.1263
33285SOL    HW2 4541   1.385   6.110   0.514 -3.2484  0.4948  0.4254
33286SOL     OW 4542   2.814  11.775   9.384  0.4908  0.2752  0.5020
33286SOL    HW1 4543   2.758  11.785   9.307 -0.6013  1.5128  1.4008
33286SOL    HW2 4544   2.897  11.817   9.359  0.5646 -0.3913 -0.3916
33287SOL     OW 4545   1.219   8.416   7.367  0.1017 -0.0726 -0.3738
33287SOL    HW1 4546   1.227   8.393   7.274  0.1601 -0.2120 -0.3342
33287SOL    HW2 4547   1.309   8.413   7.400  0.4534  2.5033 -0.9111
33288SOL     OW 4548   1.125  10.959   1.540  0.0568 -0.0808 -0.1383
33288SOL    HW1 4549   1.146  10.927   1.628 -0.6202 -1.8839 -0.5961
33288SOL    HW2 4550   1.057  11.024   1.554  1.3389  1.1130  0.8096
33289SOL     OW 4551  11.625   4.125   4.803 -0.3872  0.3670 -0.5432
33289SOL    HW1 4552  11.584   4.144   4.887 -0.1759 -2.4419  0.2645
33289SOL    HW2 4553  11.631   4.211   4.760 -2.5867  1.5568  1.3116
33290SOL     OW 4554   6.358   7.798   4.410 -0.2316 -0.6103 -0.4487
33290SOL    HW1 4555   6.325   7.719   4.367  1.1918 -0.8076 -1.2721
33290SOL    HW2 4556   6.318   7.870   4.362  0.1496 -0.8446 -1.1368
33291SOL     OW 4557   5.194   5.784   3.803 -0.1010  0.0513 -0.2466
33291SOL    HW1 4558   5.116   5.839   3.809  0.2698  0.4317  2.8691
33291SOL    HW2 4559   5.175   5.710   3.861  1.0147 -0.9863 -1.1680
33292SOL     OW 4560   7.232  11.139  10.178 -0.2153  0.7008  0.4647
33292SOL    HW1 4561   7.203  11.226  10.151  2.1442  1.0945 -1.1395
33292SOL    HW2 4562   7.193  11.126  10.264 -2.3510  2.4294 -0.1497
33293SOL     OW 4563   6.461  11.822   5.955 -0.1600 -0.1302 -0.6617
33293SOL    HW1 4564   6.544  11.781   5.930  1.2336  0.9984  1.7658
33293SOL    HW2 4565   6.484  11.913   5.973 -1.3411 -0.3479  2.4929
33294SOL     OW 4566   1.859   8.519  10.739 -0.0589  0.5475  0.8428
33294SOL    HW1 4567   1.791   8.585  10.730 -0.9063  0.0232  2.7457
33294SOL    HW2 4568   1.914   8.550  10.811  0.4765 -0.0283  0.6944
33295SOL     OW 4569   2.277   6.912   1.798  0.2480 -0.4870 -0.5518
33295SOL    HW1 4570   2.372   6.910   1.811  0.2323  0.0541 -0.3482
33295SOL    HW2 4571   2.241   6.929   1.885 -0.0038  0.0299 -0.7548
33296SOL     OW 4572   3.910   8.234   6.972 -0.4833 -0.2830 -0.4487
33296SOL    HW1 4573   3.985   8.226   7.030 -0.1996 -0.4542 -0.8386
33296SOL    HW2 4574   3.929   8.175   6.899 -1.6065 -1.3543  0.0890
33297SOL     OW 4575   1.243  10.975  10.297 -0.2898  0.4352 -0.1318
33297SOL    HW1 4576   1.282  10.928  10.224 -0.9064  1.3932 -1.1179
33297SOL    HW2 4577   1.227  10.908  10.364  0.7444 -0.3671 -0.6742
33298SOL     OW 4578   8.746   7.648   2.520  0.0129  0.3524  0.1917
33298SOL    HW1 4579   8.689   7.591   2.572 -0.1490  1.4425  1.2677
33298SOL    HW2 4580   8.689   7.720   2.494  0.8929  1.5438  1.4236
33299SOL     OW 4581   9.619  11.315   6.523  0.2692 -0.4231 -0.0254
33299SOL    HW1 4582   9.635  11.222   6.508  1.0474 -0.3162  0.0951
33299SOL    HW2 4583   9.647  11.331   6.613 -1.4130 -0.4019  0.5307
33300SOL     OW 4584   0.008   4.948   7.833 -0.1038 -0.0576  0.2304
33300SOL    HW1 4585   0.079   4.958   7.770  0.5490  0.3500  1.0130
33300SOL    HW2 4586   0.018   5.022   7.893 -2.5186  1.2791 -0.8860
33301SOL     OW 4587   4.906   0.281   0.064  0.1439 -0.1173  0.1790
33301SOL    HW1 4588   4.825   0.235   0.042  0.2032 -0.5607  0.8538
33301SOL    HW2 4589   4.883   0.333   0.141 -0.1698  1.7084 -1.0853
33302SOL     OW 4590   1.638   7.090   7.674 -0.6303 -0.3380 -0.0843
33302SOL    HW1 4591   1.672   7.007   7.708 -1.2052 -0.3732  0.4309
33302SOL    HW2 4592   1.544   7.086   7.692 -1.0692 -0.5876 -2.1525
33303SOL     OW 4593   6.929   8.633   0.964 -0.2764 -0.1644  0.0806
33303SOL    HW1 4594   6.932   8.665   0.874  0.1605  0.1945  0.2183
33303SOL    HW2 4595   6.893   8.545   0.957 -1.6726  0.4124 -0.2964
33304SOL     OW 4596   0.624   8.592   3.393 -0.5256 -0.7050  0.1219
33304SOL    HW1 4597   0.669   8.642   3.462 -0.4088 -0.1305 -0.3535
33304SOL    HW2 4598   0.532   8.596   3.416 -0.6154  0.5060 -0.3718
33305SOL     OW 4599   4.712   2.731   2.052 -0.0934  0.2856  0.2594
33305SOL    HW1 4600   4.693   2.773   2.136 -0.7934  0.2386  0.1319
33305SOL    HW2 4601   4.629   2.693   2.025 -0.1869  1.3518 -1.0644
33306SOL     OW 4602  10.381   9.983  10.760 -0.0507 -0.1232 -0.4940
33306SOL    HW1 4603  10.306   9.973  10.701  0.0164  0.7162 -0.7333
33306SOL    HW2 4604  10.434   9.905  10.744 -1.0257 -0.9007 -0.0758
33307SOL     OW 4605   2.629   0.339   3.723 -0.2690 -0.4805 -0.3323
33307SOL    HW1 4606   2.702   0.279   3.710 -1.0549 -0.9699 -3.1596
33307SOL    HW2 4607   2.654   0.390   3.800  2.1870 -1.8486 -0.1095
33308SOL     OW 4608   3.585   9.413   7.971  0.2640  0.5985 -0.3550
33308SOL    HW1 4609   3.659   9.417   8.031  0.6598  0.6674 -0.8392
33308SOL    HW2 4610   3.511   9.384   8.025  1.0502 -1.3176 -0.2462
33309SOL     OW 4611   5.670   5.120   5.695 -0.1628 -0.2093 -0.0961
33309SOL    HW1 4612   5.667   5.042   5.751 -0.7821 -0.1241  0.0006
33309SOL    HW2 4613   5.737   5.175   5.735 -0.5498 -0.1782  0.5425
33310SOL     OW 4614   0.022   3.785   7.672  0.7022 -0.6838  0.1400
33310SOL    HW1 4615   0.039   3.879   7.673  1.2072 -0.7413 -1.2298
33310SOL    HW2 4616  -0.015   3.768   7.585  1.2548 -1.8444  0.1105
33311SOL     OW 4617   4.797   5.092   9.226 -0.5683 -0.3002  0.4506
33311SOL    HW1 4618   4.850   5.091   9.306 -0.1839  0.2786  0.2140
33311SOL    HW2 4619   4.815   5.177   9.187 -2.0294  0.0987  0.5921
33312SOL     OW 4620   1.518   2.692   5.856  0.5270  0.5106 -0.4622
33312SOL    HW1 4621   1.529   2.684   5.951  1.0804 -1.0045 -0.6289
33312SOL    HW2 4622   1.429   2.660   5.839  0.9047 -0.4855 -0.5886
33313SOL     OW 4623   2.141   5.310   4.632 -0.0631  0.4055 -0.3534
33313SOL    HW1 4624   2.080   5.293   4.561  0.4841  2.2006 -1.3360
33313SOL    HW2 4625   2.087   5.311   4.711 -0.9746  0.0636 -0.9596
33314SOL     OW 4626   6.583   6.198  11.407 -0.0618  0.0724  0.5624
33314SOL    HW1 4627   6.556   6.157  11.325  1.7427  0.2632 -0.1758
33314SOL    HW2 4628   6.571   6.130  11.473 -0.0420 -0.6217 -0.1335
33315SOL     OW 4629   5.501   4.626   0.372  0.4144  0.2418 -0.0527
33315SOL    HW1 4630   5.565   4.601   0.439  0.3836  0.5061  0.0787
33315SOL    HW2 4631   5.416   4.602   0.410  0.3759  0.6428  0.1233
33316SOL     OW 4632   2.415   8.532   6.141  0.5703 -0.5060 -0.2747
33316SOL    HW1 4633   2.336   8.480   6.131  1.8546 -2.4267 -1.0341
33316SOL    HW2 4634   2.394   8.596   6.209 -1.1612 -1.8580  0.5240
33317SOL     OW 4635   0.634   8.066   8.705 -0.0782  0.3478 -0.6952
33317SOL    HW1 4636   0.726   8.040   8.711  0.1968  0.6781 -2.7562
33317SOL    HW2 4637   0.594   8.000   8.649 -0.8913  0.7045 -0.5494
33318SOL     OW 4638   1.265   7.429   5.072 -0.4179 -0.2024 -0.2880
33318SOL    HW1 4639   1.196   7.491   5.095  0.4820  0.9934 -0.7271
33318SOL    HW2 4640   1.346   7.470   5.103  0.1873 -1.2191 -0.4696
33319SOL     OW 4641   7.553   1.426   1.342 -0.3320 -0.2971 -0.1308
33319SOL    HW1 4642   7.597   1.506   1.314  1.1677 -0.9298  0.2872
33319SOL    HW2 4643   7.608   1.356   1.308  0.0532 -1.1116  2.0320
33320SOL     OW 4644   1.478   5.256   7.659 -0.2350  0.6578 -0.3348
33320SOL    HW1 4645   1.543   5.197   7.620 -1.0710  1.0147 -2.3707
33320SOL    HW2 4646   1.523   5.294   7.735  1.1834 -0.6935 -0.4455
33321SOL     OW 4647   8.457   0.153   1.792  0.6221  0.2491  0.0120
33321SOL    HW1 4648   8.376   0.204   1.784  0.4886 -0.1681 -1.7688
33321SOL    HW2 4649   8.520   0.214   1.830 -0.2535  0.8990  0.4555
33322SOL     OW 4650   1.469   0.773   3.658  0.2731  0.4035 -0.3998
33322SOL    HW1 4651   1.456   0.809   3.746 -1.6386  0.0671 -0.4986
33322SOL    HW2 4652   1.449   0.845   3.599 -0.2434  0.1187 -0.5733
33323SOL     OW 4653   2.361   9.301  11.435 -0.0140 -0.4389  0.0917
33323SOL    HW1 4654   2.444   9.325  11.476 -0.2980  2.0033 -0.6157
33323SOL    HW2 4655   2.294   9.338  11.493 -0.5245 -0.5116 -0.4417
33324SOL     OW 4656   9.645   7.037   7.758  0.1845 -0.0674 -0.3454
33324SOL    HW1 4657   9.557   7.012   7.729  0.8158  0.0407 -2.5169
33324SOL    HW2 4658   9.639   7.131   7.775 -0.1843 -0.1202 -0.1580
33325SOL     OW 4659   1.590   0.960   2.228 -0.1800  0.0064 -0.3688
33325SOL    HW1 4660   1.674   0.955   2.184 -0.3502 -0.8445 -0.6254
33325SOL    HW2 4661   1.607   1.009   2.308  0.3264  0.7727 -0.9324
33326SOL     OW 4662   1.890   0.705  10.014  0.1234 -0.0187  0.3637
33326SOL    HW1 4663   1.946   0.633   9.983  0.7713  0.3436  0.6628
33326SOL    HW2 4664   1.875   0.758   9.936  0.7784  0.2553  0.4150
33327SOL     OW 4665   8.204   1.863   3.931  0.2912  0.0490  0.4746
33327SOL    HW1 4666   8.169   1.947   3.903 -0.3846 -0.1500  0.7126
33327SOL    HW2 4667   8.247   1.882   4.014 -2.0267 -0.2648  1.8406
33328SOL     OW 4668   0.562   6.186   9.763  0.0359 -0.8034 -0.0884
33328SOL    HW1 4669   0.612   6.125   9.709  1.6229  0.1258  0.2760
33328SOL    HW2 4670   0.541   6.259   9.704 -0.4571 -0.9477 -0.1004
33329SOL     OW 4671   0.549   8.590   8.640 -0.0989 -0.0366 -0.4705
33329SOL    HW1 4672   0.489   8.581   8.566  0.0786  1.4999 -0.8325
33329SOL    HW2 4673   0.498   8.636   8.707 -0.2138 -1.2945  0.3310
33330SOL     OW 4674   8.356   9.682   8.062 -0.3960 -0.1405 -0.6152
33330SOL    HW1 4675   8.428   9.640   8.111  3.0791  1.1748 -4.0280
33330SOL    HW2 4676   8.308   9.609   8.024  1.7054 -1.1630 -1.4710
33331SOL     OW 4677   9.793   1.742   1.009  0.2065 -0.6832 -0.5221
33331SOL    HW1 4678   9.849   1.778   1.078 -1.4931 -0.5426  0.8774
33331SOL    HW2 4679   9.820   1.651   1.000  0.2237 -0.8075  0.6198
33332SOL     OW 4680   8.142   8.233  10.622 -0.7112 -0.1752  0.1745
33332SOL    HW1 4681   8.084   8.201  10.691  0.0281 -0.2942  0.7478
33332SOL    HW2 4682   8.212   8.168  10.618 -0.7574 -0.1829 -0.7137
33333SOL     OW 4683   6.851  10.940   8.180 -0.2583 -0.1862 -0.1173
33333SOL    HW1 4684   6.945  10.959   8.172 -0.0675 -0.3640  1.4346
33333SOL    HW2 4685   6.843  10.896   8.264 -1.5651 -1.3494 -0.8100
33334SOL     OW 4686   3.040   1.109   1.959 -0.0354  0.1351 -0.1407
33334SOL    HW1 4687   3.106   1.109   2.029  0.1804 -0.0216 -0.3440
33334SOL    HW2 4688   3.007   1.020   1.957 -1.1679  0.5138  0.8133
33335SOL     OW 4689   3.329  10.510   3.448 -0.1995  0.2626  0.8271
33335SOL    HW1 4690   3.415  10.508   3.488  0.6214  0.0086 -0.8633
33335SOL    HW2 4691   3.339  10.568   3.372 -1.0006 -1.2573 -0.4952
33336SOL     OW 4692  10.109   0.455   7.969 -0.4341  0.2389 -0.0273
33336SOL    HW1 4693  10.170   0.382   7.978  0.1793  0.5677 -1.2638
33336SOL    HW2 4694  10.028   0.424   8.010 -0.1032 -1.0226 -0.2781
33337SOL     OW 4695   0.342   4.205   1.409  0.2104 -0.0823 -0.2885
33337SOL    HW1 4696   0.365   4.297   1.403 -0.7369  0.2569  1.0294
33337SOL    HW2 4697   0.273   4.193   1.343 -1.3353  0.7375  1.0950
33338SOL     OW 4698  11.275   9.572   1.597 -0.2909 -0.4726  0.2917
33338SOL    HW1 4699  11.281   9.490   1.645 -1.7047  0.0261  1.4166
33338SOL    HW2 4700  11.184   9.599   1.608  0.0775  1.1126 -0.2622
33339SOL     OW 4701   5.992   4.418  10.609 -0.1004 -0.3732  0.2655
33339SOL    HW1 4702   5.897   4.409  10.604  0.1010 -2.2865 -1.6979
33339SOL    HW2 4703   6.018   4.453  10.524  0.9448  0.8392  1.0319
33340SOL     OW 4704   0.269   4.045   6.849 -0.1786 -0.5453  0.0702
33340SOL    HW1 4705   0.333   4.093   6.797 -1.4594 -0.8006 -1.8487
33340SOL    HW2 4706   0.227   4.112   6.902  0.2722 -0.0556 -0.1789
33341SOL     OW 4707   9.218   7.994  10.635 -0.0950  0.1258  0.0766
33341SOL    HW1 4708   9.248   7.970  10.548  2.3442 -1.4349  1.2307
33341SOL    HW2 4709   9.274   8.067  10.661 -0.2134  0.0272  0.6402
33342SOL     OW 4710  10.528   6.867   2.540  0.2298 -0.1846  0.0086
33342SOL    HW1 4711  10.526   6.958   2.510  1.0517 -0.1340  0.0593
33342SOL    HW2 4712  10.480   6.819   2.473 -0.8840  0.3778  0.3750
33343SOL     OW 4713   8.528   2.454   1.108  0.2938 -0.2554  0.1815
33343SOL    HW1 4714   8.499   2.441   1.018 -0.4526  0.2090  0.3450
33343SOL    HW2 4715   8.535   2.365   1.143 -0.2344 -0.4117 -0.0893
33344SOL     OW 4716  10.522   9.069   2.505 -0.3231  0.0875  0.0218
33344SOL    HW1 4717  10.475   9.146   2.535 -0.3527  0.1535 -0.1914
33344SOL    HW2 4718  10.502   9.064   2.411  0.2277  0.2073 -0.1023
33345SOL     OW 4719  11.371  11.083   1.749  0.0581 -0.6083 -0.2830
33345SOL    HW1 4720  11.381  11.144   1.676 -0.1551 -1.2533 -0.8625
33345SOL    HW2 4721  11.448  11.027   1.745  0.7172  0.1746  0.8020
33346SOL     OW 4722   8.013   7.331   8.575  0.0199  0.1346 -0.0315
33346SOL    HW1 4723   7.999   7.243   8.539 -0.0938  0.0286  0.2653
33346SOL    HW2 4724   7.977   7.326   8.664  0.2023  0.4212  0.0580
33347SOL     OW 4725   3.317   0.982   5.392  0.1686  0.0283  0.2815
33347SOL    HW1 4726   3.301   0.904   5.444 -2.2817  0.6292  0.5538
33347SOL    HW2 4727   3.265   0.970   5.313 -0.4477  1.4660  0.4417
33348SOL     OW 4728   0.130   5.175   3.779  0.0554 -0.1782  0.6682
33348SOL    HW1 4729   0.070   5.158   3.706  0.5274  1.7566 -0.2149
33348SOL    HW2 4730   0.197   5.233   3.743  2.0512 -1.6144  1.8586
33349SOL     OW 4731   4.584   2.520   1.817  0.0297 -0.1825 -0.1188
33349SOL    HW1 4732   4.673   2.502   1.785 -0.6925 -0.3771 -2.1674
33349SOL    HW2 4733   4.578   2.615   1.818 -0.2278 -0.1774 -1.4704
33350SOL     OW 4734   7.028   9.079   8.520  0.0783 -0.7079  0.5414
33350SOL    HW1 4735   6.941   9.118   8.509  0.3022 -0.0998  0.8342
33350SOL    HW2 4736   7.089   9.147   8.489  0.5074 -0.5419  1.6879
33351SOL     OW 4737   6.711   1.497   2.161 -0.5412 -0.2744  0.2082
33351SOL    HW1 4738   6.675   1.453   2.084  2.3750 -0.8627 -0.9330
33351SOL    HW2 4739   6.707   1.590   2.138 -1.2399 -0.3171  0.1099
33352SOL     OW 4740   4.435   4.129   8.915  0.1766 -0.2131  0.1602
33352SOL    HW1 4741   4.415   4.170   8.999 -2.6668  0.9129 -0.9620
33352SOL    HW2 4742   4.387   4.046   8.918  2.1824 -1.4395  0.5808
33353SOL     OW 4743   6.941   4.097   6.646 -0.1827  0.0475 -0.1079
33353SOL    HW1 4744   7.018   4.080   6.702 -0.8148 -0.3912  0.6434
33353SOL    HW2 4745   6.915   4.187   6.668 -1.2627 -0.5833  1.3666
33354SOL     OW 4746   1.391   2.250  11.658  0.0999 -0.3528 -0.3061
33354SOL    HW1 4747   1.348   2.193  11.721 -0.8411  0.1177 -0.5017
33354SOL    HW2 4748   1.485   2.239  11.675 -0.0925  1.8840  3.0954
33355SOL     OW 4749   6.626   4.631   2.853 -0.0726  0.0435 -0.1182
33355SOL    HW1 4750   6.627   4.683   2.773 -0.2856 -1.4076 -1.0904
33355SOL    HW2 4751   6.598   4.544   2.825 -0.7042 -0.3516  1.6312
33356SOL     OW 4752   2.250  11.042  11.289  0.2901  0.1768  0.4819
33356SOL    HW1 4753   2.221  11.005  11.206  1.2497  0.9830 -0.2428
33356SOL    HW2 4754   2.324  11.099  11.266  0.4513  0.5799  1.8602
33357SOL     OW 4755   6.403   5.385   0.281  0.1332 -0.1039 -0.1352
33357SOL    HW1 4756   6.391   5.295   0.312 -0.7956 -0.2076 -0.7805
33357SOL    HW2 4757   6.331   5.434   0.320 -0.5999 -0.0779 -1.4706
33358SOL     OW 4758   7.156   5.079   8.898  0.3675  0.7053 -0.1862
33358SOL    HW1 4759   7.195   4.998   8.867 -0.5468  0.8251 -1.7640
33358SOL    HW2 4760   7.177   5.082   8.991 -0.5006 -1.9021  0.1688
33359SOL     OW 4761   9.689   3.461   9.610  0.6676  0.3034  0.1338
33359SOL    HW1 4762   9.647   3.496   9.531  1.2986  0.0184 -0.3449
33359SOL    HW2 4763   9.621   3.408   9.652  0.2897  0.5470 -0.1663
33360SOL     OW 4764   1.118  11.065   3.778 -0.0023 -0.4984  0.2852
33360SOL    HW1 4765   1.184  11.007   3.816 -0.7251 -1.9912 -0.6485
33360SOL    HW2 4766   1.044  11.060   3.838 -0.1596 -0.7409  0.0702
33361SOL     OW 4767   4.449   1.708   7.962 -0.6835 -0.2302  0.3535
33361SOL    HW1 4768   4.419   1.765   7.891  0.5512  0.9715  0.7559
33361SOL    HW2 4769   4.453   1.621   7.922 -1.2830  0.1851 -0.6686
33362SOL     OW 4770   2.313   3.465   2.248  0.3866  0.0195  0.0157
33362SOL    HW1 4771   2.368   3.427   2.316  1.8658  2.9782  0.6550
33362SOL    HW2 4772   2.330   3.559   2.253 -3.1082  0.8861 -1.2721
33363SOL     OW 4773  10.428  11.679   1.634  0.2685 -0.0920  0.4688
33363SOL    HW1 4774  10.430  11.747   1.702  0.5607  1.2636 -0.8496
33363SOL    HW2 4775  10.454  11.599   1.680 -0.0461  0.6644  2.0618
33364SOL     OW 4776   2.434   3.435   0.749 -0.0817 -0.2404 -0.2831
33364SOL    HW1 4777   2.452   3.348   0.785  1.0846 -0.6727 -1.8089
33364SOL    HW2 4778   2.416   3.419   0.656  1.1810  1.2289 -0.8104
33365SOL     OW 4779   2.806   9.129   2.098 -0.9957 -0.2459 -0.4644
33365SOL    HW1 4780   2.821   9.149   2.006 -1.4212 -1.2194 -0.7611
33365SOL    HW2 4781   2.733   9.185   2.123  1.0163  2.2895  0.1639
33366SOL     OW 4782   5.152   3.508   5.537  0.4997 -0.1862  0.7998
33366SOL    HW1 4783   5.085   3.540   5.598 -0.7878 -1.2044 -0.0210
33366SOL    HW2 4784   5.113   3.429   5.500  2.7234 -1.5930  1.2955
33367SOL     OW 4785   7.889   0.259   3.544 -0.4570  0.6490  0.2505
33367SOL    HW1 4786   7.827   0.198   3.503  0.9641  0.1493 -1.3249
33367SOL    HW2 4787   7.836   0.315   3.599 -2.0288 -1.0682  0.5846
33368SOL     OW 4788  11.467   0.515  11.406 -0.2261 -0.2985  0.0661
33368SOL    HW1 4789  11.397   0.571  11.371  0.2133  0.9043  1.0612
33368SOL    HW2 4790  11.422   0.453  11.463 -0.7822 -1.3614 -1.4662
33369SOL     OW 4791   0.872   7.834   5.280  0.0587 -0.2845  0.1519
33369SOL    HW1 4792   0.841   7.753   5.241  0.0751 -0.4936  0.5722
33369SOL    HW2 4793   0.908   7.808   5.365  1.2065 -0.0228 -0.2375
33370SOL     OW 4794  11.916  10.149  10.523 -0.4184  0.3293  0.5077
33370SOL    HW1 4795  11.836  10.151  10.576 -1.2544  0.2441 -0.7071
33370SOL    HW2 4796  11.983  10.189  10.578 -1.3701  0.6559  1.4463
33371SOL     OW 4797   7.651   7.766   4.811  0.3128 -0.5645 -0.2043
33371SOL    HW1 4798   7.577   7.822   4.831 -0.5383 -1.9299  0.6472
33371SOL    HW2 4799   7.613   7.690   4.767  1.4701 -0.3666 -1.6161
33372SOL     OW 4800   9.456   7.329   6.869 -0.0056  0.1384  0.2632
33372SOL    HW1 4801   9.429   7.240   6.847  2.6267 -1.1870  1.8979
33372SOL    HW2 4802   9.517   7.353   6.799 -1.0993  0.9181 -0.4552
33373SOL     OW 4803   7.008   3.286   2.657 -0.0215  0.1134  0.0694
33373SOL    HW1 4804   7.052   3.369   2.678  0.8529 -0.2819 -0.1595
33373SOL    HW2 4805   6.971   3.257   2.741 -0.9731  1.0851  0.0104
33374SOL     OW 4806   4.002  11.069   8.861 -0.0596  0.4445  0.2977
33374SOL    HW1 4807   4.078  11.037   8.911  0.7633  0.2510 -1.0332
33374SOL    HW2 4808   3.970  10.992   8.814  0.3133  0.9715 -0.8704
33375SOL     OW 4809   5.852  10.989   6.787 -0.9108  0.0870 -0.4565
33375SOL    HW1 4810   5.890  11.064   6.742 -0.1551  0.2779  0.4875
33375SOL    HW2 4811   5.779  11.025   6.837 -2.3431 -0.2632 -2.1832
33376SOL     OW 4812   3.252   2.383   6.217 -0.0794 -0.0266  0.1946
33376SOL    HW1 4813   3.176   2.350   6.265 -0.2554  2.2059  1.5910
33376SOL    HW2 4814   3.327   2.359   6.271 -0.2218  1.8604  1.3111
33377SOL     OW 4815   4.530   1.121   2.798  0.0443 -0.1820 -0.3128
33377SOL    HW1 4816   4.480   1.100   2.720  0.2748 -0.7497 -0.3094
33377SOL    HW2 4817   4.607   1.064   2.794 -0.7321 -1.3954  1.1424
33378SOL     OW 4818   3.155  10.015   1.904 -0.3290 -0.5546  0.6010
33378SOL    HW1 4819   3.210  10.054   1.972 -0.2373 -0.2807  0.3726
33378SOL    HW2 4820   3.083  10.078   1.893  0.1011 -0.1766 -0.1460
33379SOL     OW 4821   4.617   5.646   1.849 -0.0623 -0.0323 -0.1635
33379SOL    HW1 4822   4.604   5.699   1.928  1.2043  0.6950 -0.4198
33379SOL    HW2 4823   4.636   5.710   1.781  0.9060 -0.7736 -0.6083
33380SOL     OW 4824   4.891   5.483   8.135 -0.2362 -0.2764  0.4500
33380SOL    HW1 4825   4.936   5.564   8.111 -0.7202 -0.3274 -0.6746
33380SOL    HW2 4826   4.807   5.512   8.171  0.4573 -0.2031  2.0954
33381SOL     OW 4827   2.714   4.420   4.576 -0.0770 -0.7335 -1.4555
33381SOL    HW1 4828   2.715   4.514   4.563 -0.4373 -0.0090  2.4365
33381SOL    HW2 4829   2.623   4.394   4.565 -0.4360 -0.1164 -0.0990
33382SOL     OW 4830   2.728   2.089   4.405  0.3495 -0.1854  0.5780
33382SOL    HW1 4831   2.739   2.083   4.500  1.6195  1.1558  0.5473
33382SOL    HW2 4832   2.783   2.163   4.379 -1.1939  0.4629 -1.0249
33383SOL     OW 4833   7.325  10.438   0.521  0.2730 -0.5138  0.2961
33383SOL    HW1 4834   7.236  10.444   0.486  0.2295 -1.2740  0.2601
33383SOL    HW2 4835   7.334  10.515   0.577  0.1564  0.4345 -0.9530
33384SOL     OW 4836   2.351   2.594   8.889  0.3801  0.3286  0.1284
33384SOL    HW1 4837   2.311   2.680   8.879 -0.3958 -0.2987 -3.4234
33384SOL    HW2 4838   2.435   2.601   8.844  0.2075 -0.8096 -0.4243
33385SOL     OW 4839   5.489   6.574  10.411  0.1224  0.7805  0.1308
33385SOL    HW1 4840   5.580   6.596  10.391 -0.0583  1.6090  0.1836
33385SOL    HW2 4841   5.487   6.479  10.412  1.6881  0.6522  3.1390
33386SOL     OW 4842   6.205   1.599  11.290  0.0408 -0.5768 -0.4599
33386SOL    HW1 4843   6.293   1.624  11.319 -0.0906 -1.1205  0.4277
33386SOL    HW2 4844   6.207   1.613  11.195  0.6505  0.7129 -0.2904
33387SOL     OW 4845  10.218   2.715   6.824 -0.2361 -0.2078 -0.7659
33387SOL    HW1 4846  10.236   2.804   6.854 -1.0085 -0.1771 -0.3842
33387SOL    HW2 4847  10.156   2.726   6.752 -1.1338 -0.4889 -0.0509
33388SOL     OW 4848   4.960   7.313   0.137  0.3768  0.2025 -0.2457
33388SOL    HW1 4849   5.034   7.371   0.117  0.5774 -0.2453 -0.8226
33388SOL    HW2 4850   4.936   7.275   0.052 -3.2439  3.4930 -0.9827
33389SOL     OW 4851   4.485   5.517   9.354  0.7294 -0.1656  0.2561
33389SOL    HW1 4852   4.439   5.483   9.430  2.3145 -0.1294  1.2622
33389SOL    HW2 4853   4.493   5.611   9.371  2.2271 -0.3556  0.6862
33390SOL     OW 4854   1.923   2.246   1.100  0.4878  0.2312  0.0730
33390SOL    HW1 4855   1.979   2.168   1.092 -2.1602 -1.8180  0.1738
33390SOL    HW2 4856   1.950   2.303   1.028  0.8296 -1.9442 -1.6221
33391SOL     OW 4857  10.341   4.935   6.866  0.5882  0.3001 -0.6572
33391SOL    HW1 4858  10.332   4.986   6.947 -0.8095 -0.1720 -0.4903
33391SOL    HW2 4859  10.383   4.854   6.893  1.2264  0.6412 -0.6197
33392SOL     OW 4860  10.785   4.000   4.980 -0.4768 -0.2054  0.3197
33392SOL    HW1 4861  10.828   4.019   5.063 -1.4734  0.1783  0.7607
33392SOL    HW2 4862  10.793   3.905   4.970  1.8183 -0.0144 -0.3923
33393SOL     OW 4863   2.257   8.819  11.191 -0.1815  0.4747 -0.1366
33393SOL    HW1 4864   2.339   8.770  11.203 -0.9616 -1.0450 -0.7521
33393SOL    HW2 4865   2.274   8.874  11.114  1.0515  2.0054  1.1550
33394SOL     OW 4866   5.848  10.946   5.408 -0.2668 -0.0396  0.8247
33394SOL    HW1 4867   5.852  10.987   5.322 -0.1604 -3.0453 -0.7535
33394SOL    HW2 4868   5.915  10.877   5.404 -0.0774 -0.0891  3.4465
33395SOL     OW 4869   1.432   4.534   1.337 -0.0111  0.1989  0.3748
33395SOL    HW1 4870   1.379   4.568   1.265 -0.1266 -0.4711  0.1442
33395SOL    HW2 4871   1.457   4.612   1.386 -1.0431  0.5492  0.3760
33396SOL     OW 4872   3.381   3.971   6.670 -0.5464 -0.6328  0.0488
33396SOL    HW1 4873   3.321   4.044   6.689 -0.7063 -0.2805 -1.6023
33396SOL    HW2 4874   3.465   3.999   6.706 -0.5201  0.5641 -0.8771
33397SOL     OW 4875   2.813   1.663   2.535 -0.0256 -0.0370  0.0183
33397SOL    HW1 4876   2.746   1.607   2.573 -1.1592  0.4232 -1.2490
33397SOL    HW2 4877   2.783   1.752   2.554  0.0584  0.1753 -0.8368
33398SOL     OW 4878   0.669   8.872  10.354  0.9387  0.2862 -0.3028
33398SOL    HW1 4879   0.626   8.829  10.428  0.1875 -2.7345 -2.2789
33398SOL    HW2 4880   0.762   8.851  10.364  0.6931 -1.1754 -0.7467
33399SOL     OW 4881   8.013   0.175  10.987  0.1393 -0.0744  0.0028
33399SOL    HW1 4882   8.058   0.091  10.981  1.4176  0.6311 -0.6365
33399SOL    HW2 4883   7.921   0.154  10.968  0.7276 -1.0898 -1.9804
33400SOL     OW 4884   1.942  11.985  10.969 -0.0110  0.2319  0.0146
33400SOL    HW1 4885   1.903  11.912  11.017 -0.7376 -0.4769 -1.5720
33400SOL    HW2 4886   1.905  11.978  10.881  0.7556  1.8739 -0.4735
33401SOL     OW 4887   9.986  11.578   1.477 -0.1910  0.1894 -0.7236
33401SOL    HW1 4888  10.080  11.585   1.464 -0.2868 -0.4358 -1.9637
33401SOL    HW2 4889   9.953  11.666   1.464  0.1623  0.2857 -0.9948
33402SOL     OW 4890   2.984   3.319   0.606  0.3004  0.3183 -0.3135
33402SOL    HW1 4891   2.912   3.271   0.645  0.6558  0.3796  0.4201
33402SOL    HW2 4892   2.971   3.410   0.634 -1.7444  1.2134 -3.6095
33403SOL     OW 4893   3.789   6.019   1.632 -0.0860 -0.2007  0.2683
33403SOL    HW1 4894   3.850   6.031   1.560  0.2253  1.3678  0.7567
33403SOL    HW2 4895   3.702   6.018   1.590  0.2104 -1.8144 -0.3577
33404SOL     OW 4896  11.865   1.247   1.047  0.2381 -0.4169  0.0586
33404SOL    HW1 4897  11.851   1.217   1.137 -0.3189 -0.0128  0.1154
33404SOL    HW2 4898  11.797   1.204   0.996 -2.5697  2.9380  0.6335
33405SOL     OW 4899   8.820   3.154   2.145  0.2485  0.2703  0.7480
33405SOL    HW1 4900   8.766   3.140   2.223  0.9819  1.2717  1.4573
33405SOL    HW2 4901   8.890   3.213   2.174  1.4890 -0.6465 -0.2539
33406SOL     OW 4902   3.762   2.601   3.071 -0.1281  0.7556  0.0231
33406SOL    HW1 4903   3.754   2.522   3.018 -0.6501  0.5081  0.4516
33406SOL    HW2 4904   3.802   2.666   3.013 -2.1832  0.9961 -1.1958
33407SOL     OW 4905   2.690   2.729   4.399  0.1560  0.1888  0.0515
33407SOL    HW1 4906   2.639   2.749   4.477 -0.0717 -1.1363  0.2706
33407SOL    HW2 4907   2.690   2.633   4.394 -0.6624  0.2292 -2.0859
33408SOL     OW 4908   4.673   7.613   4.798  0.0324  0.2642  0.5336
33408SOL    HW1 4909   4.630   7.679   4.853 -0.9523  0.0205  0.0799
33408SOL    HW2 4910   4.621   7.611   4.718  2.1226  1.4549 -0.9526
33409SOL     OW 4911   9.278  10.644   3.126  0.4944  0.2551 -0.2896
33409SOL    HW1 4912   9.289  10.560   3.169  0.7357  0.4380  0.0113
33409SOL    HW2 4913   9.280  10.623   3.032  2.3664  0.1159 -0.2579
33410SOL     OW 4914   4.541  11.196   1.646 -0.2587  0.0943 -0.4558
33410SOL    HW1 4915   4.544  11.101   1.644  0.9332  0.1266 -0.9511
33410SOL    HW2 4916   4.503  11.217   1.731  1.5980 -0.8077  0.6514
33411SOL     OW 4917   7.416   1.351   3.484 -0.1706 -0.0217 -0.0403
33411SOL    HW1 4918   7.449   1.320   3.400  0.4528  1.6793 -0.4679
33411SOL    HW2 4919   7.333   1.305   3.496 -1.0669  0.8335 -2.3665
33412SOL     OW 4920  11.548  10.040   9.829 -0.2031  0.1078 -0.0955
33412SOL    HW1 4921  11.515  10.003   9.911 -0.5747  2.2023  0.7723
33412SOL    HW2 4922  11.481  10.104   9.803  0.0074 -0.3695 -1.9415
33413SOL     OW 4923   2.474   4.876   7.434 -0.4043  0.4944  0.2649
33413SOL    HW1 4924   2.512   4.788   7.435 -0.9813  0.2362  0.0109
33413SOL    HW2 4925   2.527   4.925   7.497  0.6055  0.2627 -0.3780
33414SOL     OW 4926   2.681  10.064   1.319 -0.3920  0.3507  0.2179
33414SOL    HW1 4927   2.740  10.048   1.393 -1.1376  0.0668  0.7653
33414SOL    HW2 4928   2.594  10.037   1.351 -0.9704  1.5560 -0.2817
33415SOL     OW 4929  11.403   1.315   4.668 -0.3459 -0.1803  0.3564
33415SOL    HW1 4930  11.320   1.361   4.671  0.1049  0.6290  1.4814
33415SOL    HW2 4931  11.382   1.227   4.638 -1.2425  0.7100 -1.8116
33416SOL     OW 4932   6.480   1.412  10.372  0.1077  0.0914 -0.2286
33416SOL    HW1 4933   6.512   1.390  10.284  1.0783  2.0362 -0.4328
33416SOL    HW2 4934   6.559   1.426  10.423 -0.3833  2.1883  0.0406
33417SOL     OW 4935  10.973   6.586   0.517  0.0891 -0.1346  0.0068
33417SOL    HW1 4936  10.994   6.648   0.587 -0.2107 -0.2108  0.1653
33417SOL    HW2 4937  10.878   6.578   0.519  0.1245 -0.6175  0.0063
33418SOL     OW 4938   7.856   7.109   0.046  0.4830  0.1647  0.3145
33418SOL    HW1 4939   7.880   7.202   0.049 -1.0840  0.6016  0.2249
33418SOL    HW2 4940   7.932   7.066   0.006  0.5476  1.6663 -1.2998
33419SOL     OW 4941   2.001   6.887   8.880 -0.4853  0.4455  0.1300
33419SOL    HW1 4942   1.911   6.899   8.911 -0.7309 -0.2863 -0.2728
33419SOL    HW2 4943   1.998   6.917   8.789 -0.5264 -0.3301 -0.1332
33420SOL     OW 4944   4.219   4.313   1.607 -0.0141 -0.1153  0.0925
33420SOL    HW1 4945   4.244   4.238   1.662 -1.9603 -1.0200 -0.1668
33420SOL    HW2 4946   4.179   4.375   1.669  0.0117 -0.0537  0.0472
33421SOL     OW 4947   8.992   4.987   3.652 -0.2296  0.2225  0.0035
33421SOL    HW1 4948   8.994   4.987   3.556  2.3314  0.1842 -0.0067
33421SOL    HW2 4949   8.975   4.896   3.675 -0.0420  0.0690 -0.4425
33422SOL     OW 4950   6.937   8.660  11.691 -0.4008  0.0420  0.3546
33422SOL    HW1 4951   6.887   8.579  11.682  0.4990 -0.3486 -1.5688
33422SOL    HW2 4952   6.970   8.678  11.603  0.2443  1.9755  0.9445
33423SOL     OW 4953   0.386   2.454   2.856 -0.3069 -0.3691 -0.2776
33423SOL    HW1 4954   0.374   2.380   2.796 -0.7202  1.4699 -2.6062
33423SOL    HW2 4955   0.298   2.475   2.887  0.0063 -2.0085  2.0354
33424SOL     OW 4956   4.425   3.586   7.167  0.0003  0.2665  0.2624
33424SOL    HW1 4957   4.458   3.515   7.112 -0.6876  0.2439 -0.1357
33424SOL    HW2 4958   4.482   3.586   7.244  0.3926 -0.3069 -0.0247
33425SOL     OW 4959  11.739   4.512   0.729  0.2684 -0.3323 -0.4571
33425SOL    HW1 4960  11.795   4.526   0.653 -1.7685 -0.6869 -2.0996
33425SOL    HW2 4961  11.662   4.468   0.695 -2.4390  2.7543  1.0811
33426SOL     OW 4962   2.034  10.706   9.567  0.0289 -0.3237  0.0909
33426SOL    HW1 4963   1.955  10.658   9.542 -1.5618  2.5358 -0.8998
33426SOL    HW2 4964   2.015  10.740   9.654  0.9544 -1.1047  0.6115
33427SOL     OW 4965   6.657   6.585   7.003  0.4584 -0.9469 -0.7903
33427SOL    HW1 4966   6.713   6.619   7.073 -0.6957  0.2443 -0.4122
33427SOL    HW2 4967   6.704   6.607   6.922  0.0833  1.0017 -0.5258
33428SOL     OW 4968  11.057   5.111   9.778  0.5419  0.6562  0.2113
33428SOL    HW1 4969  10.985   5.063   9.819  1.1132 -0.0703  0.3871
33428SOL    HW2 4970  11.099   5.047   9.721  1.3519  0.9207  0.4965
33429SOL     OW 4971   5.371   0.357   0.900  0.5994  0.2977 -0.1465
33429SOL    HW1 4972   5.399   0.266   0.903  0.1142  0.0475 -1.9281
33429SOL    HW2 4973   5.296   0.357   0.840 -0.0586  1.7204  0.6082
33430SOL     OW 4974   7.634  11.351  10.017  0.4234 -0.3204 -0.0651
33430SOL    HW1 4975   7.593  11.362  10.103 -1.4770  0.1395 -0.9579
33430SOL    HW2 4976   7.689  11.428  10.007  1.5967 -0.9549  1.1880
33431SOL     OW 4977  11.557   9.642   8.280 -0.0549 -0.5780 -0.1316
33431SOL    HW1 4978  11.544   9.735   8.294  2.2338 -0.3529  0.9575
33431SOL    HW2 4979  11.575   9.634   8.186 -0.2991  0.0773 -0.2376
33432SOL     OW 4980   4.900  10.034   5.023 -0.0337  0.2534 -0.2828
33432SOL    HW1 4981   4.869  10.114   5.066 -1.2901 -1.0636  1.3877
33432SOL    HW2 4982   4.891  10.052   4.929 -2.3258  1.3294  0.0850
33433SOL     OW 4983   2.587   6.445   0.330  0.2693  0.4721  0.2152
33433SOL    HW1 4984   2.671   6.424   0.372  1.0328  1.3519 -0.8276
33433SOL    HW2 4985   2.606   6.443   0.236 -1.0088  0.1959 -0.0485
33434SOL     OW 4986  10.202   3.130   3.616  0.2783  0.3989  0.0876
33434SOL    HW1 4987  10.163   3.197   3.672 -0.3223  0.8879 -0.8838
33434SOL    HW2 4988  10.127   3.090   3.571  0.6722 -0.5965  0.2851
33435SOL     OW 4989   9.092   3.109   8.940  0.1050 -0.2383 -0.4146
33435SOL    HW1 4990   9.068   3.023   8.906 -1.7505 -0.5530  1.4716
33435SOL    HW2 4991   9.158   3.091   9.008  0.8154 -0.0062 -1.0302
33436SOL     OW 4992   2.724   3.510   1.988 -0.2842 -0.2407  0.5819
33436SOL    HW1 4993   2.639   3.506   1.944  0.1662  1.3019 -0.4975
33436SOL    HW2 4994   2.787   3.523   1.918  0.6308  0.7215  1.5377
33437SOL     OW 4995   9.859   0.216   1.031  0.3178  0.4414  0.3174
33437SOL    HW1 4996   9.893   0.150   0.970 -0.0509  0.1599  0.4145
33437SOL    HW2 4997   9.910   0.203   1.111 -1.4534 -1.4754  1.2465
33438SOL     OW 4998   6.649   5.714  11.072  0.0172  0.4222  0.0673
33438SOL    HW1 4999   6.596   5.704  10.993 -0.6145  1.6511  0.3101
33438SOL    HW2 5000   6.738   5.730  11.039  0.0969 -0.7740 -0.3501
33439SOL     OW 5001   3.641  11.318  10.489 -0.2047  0.0347 -0.1559
33439SOL    HW1 5002   3.631  11.413  10.497  0.2841  0.1496 -0.8030
33439SOL    HW2 5003   3.569  11.282  10.541 -1.9715  0.7735 -1.9529
33440SOL     OW 5004  10.958   7.153  11.604 -0.3223 -0.4889  0.3967
33440SOL    HW1 5005  10.962   7.215  11.531  2.0022 -1.4666 -0.3875
33440SOL    HW2 5006  10.872   7.169  11.644  0.1057  3.1345  0.2044
33441SOL     OW 5007   4.120   3.735   6.880  0.7001 -0.6191 -0.6406
33441SOL    HW1 5008   4.040   3.761   6.925  1.2427 -0.0947  0.0578
33441SOL    HW2 5009   4.156   3.817   6.847  0.4849 -0.9618 -1.7538
33442SOL     OW 5010  11.769   1.405  10.982 -0.1098  0.1572  0.5296
33442SOL    HW1 5011  11.748   1.394  10.889 -1.2776 -0.0844  0.8089
33442SOL    HW2 5012  11.749   1.497  11.000  1.2797  0.5377  0.2777
33443SOL     OW 5013   5.672   0.185   2.043 -0.0979 -0.4327  0.3344
33443SOL    HW1 5014   5.619   0.254   2.083  1.4755  1.3018 -0.4137
33443SOL    HW2 5015   5.756   0.188   2.088  0.3678 -1.1213 -0.4381
33444SOL     OW 5016   5.553   4.223   8.830 -0.2885  0.0841 -0.4626
33444SOL    HW1 5017   5.598   4.251   8.910  0.5680 -1.1606 -0.4899
33444SOL    HW2 5018   5.623   4.198   8.770 -0.9595 -0.0172 -1.2193
33445SOL     OW 5019   5.259   3.028   2.695  0.3559 -0.4681 -0.4092
33445SOL    HW1 5020   5.263   3.097   2.761 -0.8790 -0.7189 -0.0409
33445SOL    HW2 5021   5.340   2.978   2.708 -0.5060 -1.4006  1.9353
33446SOL     OW 5022   2.793   4.850   8.120  0.5133 -0.4312 -0.5673
33446SOL    HW1 5023   2.849   4.863   8.043 -1.0521  0.4690 -1.6042
33446SOL    HW2 5024   2.812   4.761   8.149  1.6113 -0.5542 -1.5856
33447SOL     OW 5025   9.281   9.911   7.577 -0.0683 -0.3143  0.0688
33447SOL    HW1 5026   9.363   9.959   7.567 -0.4999  0.6441  1.0165
33447SOL    HW2 5027   9.254   9.892   7.487  1.3932 -1.0347 -0.2564
33448SOL     OW 5028   0.472   4.606  10.524 -0.4865 -0.0927 -0.1924
33448SOL    HW1 5029   0.468   4.575  10.433 -0.0436  0.3024 -0.3523
33448SOL    HW2 5030   0.454   4.528  10.577 -2.8765  0.0981 -0.6550
33449SOL     OW 5031   0.518   2.515   7.596 -0.0068 -0.0084  0.3315
33449SOL    HW1 5032   0.541   2.600   7.559  1.5527 -1.2878 -1.9087
33449SOL    HW2 5033   0.592   2.493   7.653 -0.5780  0.2524  1.1993
33450SOL     OW 5034   1.874  10.214  10.456  0.2168 -0.2168  0.1059
33450SOL    HW1 5035   1.837  10.254  10.378  0.4737 -0.4277 -0.1283
33450SOL    HW2 5036   1.967  10.201  10.435  0.6795  1.2490  1.0545
33451SOL     OW 5037   1.308   2.470   5.355 -0.0124 -0.8558 -0.4584
33451SOL    HW1 5038   1.215   2.472   5.379 -0.1371 -1.8981 -0.8024
33451SOL    HW2 5039   1.354   2.505   5.431 -0.7898  1.4896 -0.9730
33452SOL     OW 5040   6.339   1.808   0.578  0.1614  0.1714 -0.1304
33452SOL    HW1 5041   6.313   1.883   0.631  0.2094 -0.6467  1.0987
33452SOL    HW2 5042   6.342   1.841   0.489  0.0481  1.5915  0.3693
33453SOL     OW 5043   4.899   1.702   5.265  0.7690  0.3167 -0.4726
33453SOL    HW1 5044   4.855   1.675   5.346  1.7772 -1.1261 -0.3636
33453SOL    HW2 5045   4.974   1.753   5.294  0.5783  0.6337 -0.5393
33454SOL     OW 5046  11.772   6.937   6.623  0.3029 -0.0746 -0.0001
33454SOL    HW1 5047  11.681   6.952   6.646  0.5947 -1.3536  2.3152
33454SOL    HW2 5048  11.778   6.842   6.610  1.6694 -0.3106  1.9664
33455SOL     OW 5049   6.181  11.082   0.111  0.6990  0.3906 -0.6358
33455SOL    HW1 5050   6.194  11.046   0.023 -0.4271 -1.9786  0.1131
33455SOL    HW2 5051   6.268  11.077   0.151  0.9091  0.0962 -1.1134
33456SOL     OW 5052  10.819   0.522   5.717 -0.4057 -0.1654 -0.9538
33456SOL    HW1 5053  10.906   0.504   5.753 -0.8417 -2.1944 -0.7947
33456SOL    HW2 5054  10.813   0.618   5.717  0.9953 -0.0058  1.0485
33457SOL     OW 5055  11.660  11.707   5.146  0.2228  0.0750  0.1685
33457SOL    HW1 5056  11.595  11.662   5.091  0.7384 -0.2633 -0.1806
33457SOL    HW2 5057  11.741  11.657   5.133  0.5780  0.5467  0.5184
33458SOL     OW 5058  10.370   8.877   1.939  0.2288 -0.1530  0.2934
33458SOL    HW1 5059  10.401   8.833   2.018  0.0741 -0.1114  0.3776
33458SOL    HW2 5060  10.276   8.887   1.952  0.4473  1.4449  0.9025
33459SOL     OW 5061   1.518  11.436   2.682  0.0994  0.5328  0.0357
33459SOL    HW1 5062   1.437  11.397   2.649  1.0988  2.0900 -5.3877
33459SOL    HW2 5063   1.587  11.374   2.657  0.9158  1.1590  0.6471
33460SOL     OW 5064   7.966  11.410   9.104  0.5531 -0.4000  0.2676
33460SOL    HW1 5065   7.931  11.494   9.134  0.9067  0.2771 -1.1643
33460SOL    HW2 5066   8.047  11.399   9.154  0.6591  0.2501  0.2433
33461SOL     OW 5067   6.939   1.497   5.337  0.0474 -0.5691  0.5416
33461SOL    HW1 5068   6.953   1.562   5.406  3.2850  0.6262 -1.0355
33461SOL    HW2 5069   6.988   1.420   5.365  0.7244 -0.3510  0.0133
33462SOL     OW 5070   0.894   4.908   9.293  0.4708  0.5802  0.2056
33462SOL    HW1 5071   0.962   4.847   9.321  1.2791  1.6593  0.6491
33462SOL    HW2 5072   0.938   4.993   9.288 -1.0506  1.5101  1.5190
33463SOL     OW 5073   9.453   4.011  10.722  0.3885  0.1331  0.3009
33463SOL    HW1 5074   9.391   4.063  10.672  0.5884  1.2179  1.1304
33463SOL    HW2 5075   9.512   3.974  10.656 -0.9890 -0.7510 -0.4742
33464SOL     OW 5076   0.474   5.939   3.495 -0.4491  0.4457 -0.2365
33464SOL    HW1 5077   0.558   5.979   3.472  0.0914  0.0709  0.9653
33464SOL    HW2 5078   0.498   5.867   3.554 -1.5912  0.1332 -0.1443
33465SOL     OW 5079   9.993   7.587   3.090 -0.1939 -0.0471  0.1976
33465SOL    HW1 5080  10.000   7.578   2.996 -2.3295  0.8935 -0.1184
33465SOL    HW2 5081  10.061   7.650   3.114 -0.4889  0.7296 -0.9347
33466SOL     OW 5082   8.982   0.325   9.340  0.5188  0.0729  0.3038
33466SOL    HW1 5083   9.000   0.305   9.431  5.0990 -1.0970 -0.6281
33466SOL    HW2 5084   8.951   0.242   9.303  0.1478  0.1381  0.4638
33467SOL     OW 5085  11.830   8.612   8.500  0.3642  0.1503 -0.4731
33467SOL    HW1 5086  11.741   8.645   8.510  0.2091 -0.7399  1.6667
33467SOL    HW2 5087  11.838   8.593   8.407 -1.5281  0.6743 -0.7821
33468SOL     OW 5088   0.784   2.736  11.314 -0.0653 -0.2042 -0.2169
33468SOL    HW1 5089   0.815   2.742  11.405 -0.3099  0.7650 -0.1848
33468SOL    HW2 5090   0.839   2.799  11.266 -2.4834  2.2813  0.0110
33469SOL     OW 5091   7.390   7.008   9.984 -0.2673 -0.2516 -0.4146
33469SOL    HW1 5092   7.393   6.939  10.050 -0.5023 -1.2007 -1.3680
33469SOL    HW2 5093   7.298   7.012   9.957  0.3154 -2.3464 -3.1536
33470SOL     OW 5094  10.513   0.557   8.673 -0.1843  0.0577 -0.7054
33470SOL    HW1 5095  10.546   0.605   8.597  0.9022 -0.9051 -0.8729
33470SOL    HW2 5096  10.556   0.472   8.668  0.5086  0.2119  1.3894
33471SOL     OW 5097   5.069   3.440   8.789  0.1011 -0.3243 -0.2150
33471SOL    HW1 5098   4.976   3.420   8.782 -0.2355  1.0024  0.1889
33471SOL    HW2 5099   5.108   3.399   8.712 -0.4839 -2.6148  0.6484
33472SOL     OW 5100   1.507   2.012   1.085  0.6008 -0.1349  0.2966
33472SOL    HW1 5101   1.566   2.073   1.131  0.3917  0.9414 -0.7904
33472SOL    HW2 5102   1.562   1.973   1.017  0.3005  0.1448 -0.1069
33473SOL     OW 5103   0.167   7.947   8.463  0.0636 -0.6524  0.2876
33473SOL    HW1 5104   0.095   7.974   8.407  0.4985  2.0062  0.8962
33473SOL    HW2 5105   0.125   7.914   8.542 -0.4947 -0.0072  0.2635
33474SOL     OW 5106   7.062   0.841   9.217 -0.5180 -0.1866 -0.1948
33474SOL    HW1 5107   7.087   0.914   9.161 -0.6582 -1.0667 -1.4305
33474SOL    HW2 5108   6.969   0.829   9.202 -0.4353 -0.8191 -0.2324
33475SOL     OW 5109   5.640   0.714   7.036 -0.4677 -0.0027 -0.1821
33475SOL    HW1 5110   5.578   0.714   6.963  0.6225  0.7509 -1.1520
33475SOL    HW2 5111   5.585   0.709   7.114 -1.6640 -0.9139 -1.0469
33476SOL     OW 5112   1.492   7.343   2.146  0.3114 -0.4979  0.1725
33476SOL    HW1 5113   1.579   7.342   2.185  0.2406  1.7043  0.5355
33476SOL    HW2 5114   1.433   7.358   2.220 -0.1498  0.2376 -0.3219
33477SOL     OW 5115   9.297   4.270   1.783  0.7067 -0.1307 -0.0896
33477SOL    HW1 5116   9.260   4.358   1.779  2.0040  0.5411  1.4235
33477SOL    HW2 5117   9.322   4.251   1.693 -1.2517  0.2583 -0.7716
33478SOL     OW 5118  10.092   8.734   0.428  0.3806 -0.1320 -0.6446
33478SOL    HW1 5119  10.048   8.744   0.343  0.8907 -0.3165 -0.9389
33478SOL    HW2 5120  10.160   8.669   0.411  1.5824  1.0530 -0.5296
33479SOL     OW 5121   4.785   3.964  11.565  0.2541  0.4301 -0.0713
33479SOL    HW1 5122   4.864   3.921  11.597 -0.8448 -0.8448  1.0248
33479SOL    HW2 5123   4.768   3.923  11.481  0.0538 -0.2283  0.2821
33480SOL     OW 5124   0.186   8.961  11.690 -0.1299  0.5190  0.2291
33480SOL    HW1 5125   0.200   8.867  11.677 -2.5356  0.0985  0.2086
33480SOL    HW2 5126   0.214   8.977  11.780  0.1691 -0.2412  0.2804
33481SOL     OW 5127   5.781   6.313  10.008 -0.1728  0.1470  0.1341
33481SOL    HW1 5128   5.704   6.343  10.056 -0.7452  0.2567 -0.8203
33481SOL    HW2 5129   5.842   6.285  10.076 -0.9895  0.2065  0.9177
33482SOL     OW 5130   7.317   3.535   1.332  0.2080  0.7170  0.8985
33482SOL    HW1 5131   7.284   3.508   1.246  0.1570  0.1492  1.0918
33482SOL    HW2 5132   7.294   3.628   1.338 -0.1647  0.6584  0.4720
33483SOL     OW 5133   1.707   2.796   4.196  0.0341  0.1185  0.0176
33483SOL    HW1 5134   1.664   2.713   4.217  0.7723  0.0994  1.5213
33483SOL    HW2 5135   1.635   2.860   4.193 -0.2293 -0.0789  1.5952
33484SOL     OW 5136   7.996   7.381   4.042 -0.4402 -0.2374  0.0183
33484SOL    HW1 5137   8.065   7.445   4.023  0.3702 -1.0102  0.3251
33484SOL    HW2 5138   7.919   7.435   4.062  0.6479  0.6975  1.9704
33485SOL     OW 5139   9.110  11.470   8.862 -0.4281  0.1346  0.4996
33485SOL    HW1 5140   9.083  11.498   8.775 -2.4457 -1.0134  0.6844
33485SOL    HW2 5141   9.198  11.434   8.850 -1.4427 -1.9017 -1.5303
33486SOL     OW 5142   9.833   6.899  11.739  0.3984 -0.3841  0.3161
33486SOL    HW1 5143   9.755   6.950  11.715  0.1348 -0.0586  1.7074
33486SOL    HW2 5144   9.798   6.819  11.778  0.5979  0.8453  3.2976
33487SOL     OW 5145   8.807   7.247   1.569 -0.4339  0.1275  0.0178
33487SOL    HW1 5146   8.725   7.242   1.619 -0.8317  1.1518 -0.4885
33487SOL    HW2 5147   8.822   7.157   1.539  0.4731 -0.7888  2.9327
33488SOL     OW 5148   9.837   6.908   5.834 -0.0036 -0.1179  0.6628
33488SOL    HW1 5149   9.805   6.843   5.897 -0.7129 -1.0715 -0.6229
33488SOL    HW2 5150   9.901   6.859   5.781  0.9433  0.7993  0.9383
33489SOL     OW 5151   6.304  10.918   9.166  0.0670  0.4701  0.0212
33489SOL    HW1 5152   6.398  10.902   9.170 -0.2132 -1.4839 -0.0646
33489SOL    HW2 5153   6.286  10.974   9.242  1.1578 -0.0528  0.6926
33490SOL     OW 5154   8.234   3.968   5.449 -0.4694  0.7585  0.3863
33490SOL    HW1 5155   8.224   3.965   5.353 -0.0983  0.5659  0.3499
33490SOL    HW2 5156   8.329   3.958   5.463 -0.8167 -2.8391  0.9152
33491SOL     OW 5157   9.489   4.373  10.424  0.5747 -0.7487  0.5197
33491SOL    HW1 5158   9.524   4.462  10.438 -0.2477 -0.1945 -0.7895
33491SOL    HW2 5159   9.394   4.384  10.428  0.4346 -1.3821 -0.6467
33492SOL     OW 5160   4.208   7.075   1.274 -0.2891  0.7125 -0.2202
33492SOL    HW1 5161   4.178   7.011   1.209 -0.1059  0.7981 -0.3911
33492SOL    HW2 5162   4.159   7.154   1.254 -2.4347 -0.0561  1.5813
33493SOL     OW 5163   6.847   6.345   0.321  0.0916  0.1525  0.4032
33493SOL    HW1 5164   6.803   6.403   0.258  0.2500  3.2357  2.9048
33493SOL    HW2 5165   6.775   6.311   0.375  0.2351  0.0976  0.5581
33494SOL     OW 5166   4.915   9.937   7.716  0.1839  0.4078  0.0915
33494SOL    HW1 5167   4.922   9.900   7.628 -3.2599  0.4897 -0.3672
33494SOL    HW2 5168   4.937   9.864   7.774  0.2533 -0.3283 -0.8338
33495SOL     OW 5169   0.825  11.321  11.088 -0.1325  0.3195  0.3511
33495SOL    HW1 5170   0.879  11.342  11.012 -0.5670  0.4370  0.0708
33495SOL    HW2 5171   0.811  11.226  11.082 -0.7057  0.4301 -0.0771
33496SOL     OW 5172   5.292   2.270  10.030  0.1845 -0.7684 -0.6491
33496SOL    HW1 5173   5.347   2.325   9.974 -0.5749  0.9570  0.1934
33496SOL    HW2 5174   5.236   2.222   9.969  2.0584 -2.0020 -1.4800
33497SOL     OW 5175   0.605   4.851   8.759  0.0181 -0.0497  0.5109
33497SOL    HW1 5176   0.662   4.881   8.688 -0.5931  0.8401  0.3799
33497SOL    HW2 5177   0.517   4.850   8.720 -0.1104 -1.0963  0.7998
33498SOL     OW 5178   2.741   1.860   9.342  0.2229 -0.1492 -0.6206
33498SOL    HW1 5179   2.819   1.861   9.398 -0.0286 -0.5096 -0.2526
33498SOL    HW2 5180   2.760   1.923   9.273  0.0725  1.2007  0.5114
33499SOL     OW 5181   7.522   2.021   2.518 -0.1771 -0.5772 -0.0401
33499SOL    HW1 5182   7.581   2.080   2.565  0.6771 -1.5425  0.1238
33499SOL    HW2 5183   7.443   2.074   2.503 -0.0909  0.0809  1.5845
33500SOL     OW 5184   8.419   3.915   9.635  0.0526 -0.1379 -0.0118
33500SOL    HW1 5185   8.440   3.822   9.640 -0.2214 -0.2194 -0.4260
33500SOL    HW2 5186   8.355   3.923   9.565 -0.6819  0.2287  0.6850
33501SOL     OW 5187   7.787  10.663   7.435 -0.1737 -0.0749  0.0290
33501SOL    HW1 5188   7.747  10.687   7.352 -0.5467 -1.0443 -0.0877
33501SOL    HW2 5189   7.873  10.629   7.412  0.4424  1.3039  0.2131
33502SOL     OW 5190   4.642   2.624   6.066 -0.1277 -0.5395  0.7552
33502SOL    HW1 5191   4.650   2.654   6.157  1.2181  0.1840  0.4175
33502SOL    HW2 5192   4.721   2.656   6.023 -0.2346 -1.7870 -0.4275
33503SOL     OW 5193   7.739   2.207   5.631 -0.4604  0.2473 -0.2855
33503SOL    HW1 5194   7.740   2.184   5.539 -2.2962  0.8325 -0.4876
33503SOL    HW2 5195   7.663   2.161   5.667  0.3545 -0.1621  1.0088
33504SOL     OW 5196   1.826   0.008  10.719 -0.0705  0.5646 -0.0939
33504SOL    HW1 5197   1.843  -0.080  10.683 -0.9436  0.2971  0.1236
33504SOL    HW2 5198   1.821   0.064  10.642 -0.9046  0.1686 -0.3423
33505SOL     OW 5199   9.929   2.339   5.917 -0.2894 -0.2440 -0.4768
33505SOL    HW1 5200   9.950   2.251   5.885  0.3421 -0.4614  0.5205
33505SOL    HW2 5201   9.870   2.325   5.991  0.0147  0.1674 -0.1544
33506SOL     OW 5202   8.301   4.107   1.803  0.2581  0.3541  0.1773
33506SOL    HW1 5203   8.206   4.100   1.803  0.2176  0.4160 -1.6731
33506SOL    HW2 5204   8.318   4.193   1.842 -0.6379  1.7092 -2.2355
33507SOL     OW 5205  10.737   4.345   8.676  0.2207  0.2282 -0.7535
33507SOL    HW1 5206  10.665   4.308   8.624 -1.6023  0.4037  1.4784
33507SOL    HW2 5207  10.778   4.409   8.617 -1.2495 -0.1089 -2.2259
33508SOL     OW 5208   6.374   0.566   1.776  0.1818 -0.7474 -0.4563
33508SOL    HW1 5209   6.417   0.531   1.855 -0.8270 -0.0747  0.4263
33508SOL    HW2 5210   6.293   0.515   1.769 -0.4692  0.2294 -0.1551
33509SOL     OW 5211   3.695  11.198   5.666  0.1652 -0.5088 -0.1918
33509SOL    HW1 5212   3.729  11.195   5.576  0.5153  0.5297 -0.1157
33509SOL    HW2 5213   3.676  11.107   5.688 -0.2813 -0.7435 -1.4528
33510SOL     OW 5214  11.586   9.492   9.331  0.1985  0.2664  0.3407
33510SOL    HW1 5215  11.633   9.565   9.371  1.9145 -0.3459 -0.4542
33510SOL    HW2 5216  11.605   9.417   9.388 -1.7907  0.4353  1.3209
33511SOL     OW 5217   0.093   6.980   6.050  0.1866 -0.7465 -0.4991
33511SOL    HW1 5218   0.007   7.021   6.062  1.1788  0.9569  1.5374
33511SOL    HW2 5219   0.073   6.891   6.023 -2.1787 -0.0252 -1.3828
33512SOL     OW 5220   7.729   4.300   4.548 -0.1046 -0.0606 -0.2268
33512SOL    HW1 5221   7.683   4.321   4.630  1.5759  0.1147  0.7193
33512SOL    HW2 5222   7.666   4.320   4.479 -1.4817  0.0420  1.0076
33513SOL     OW 5223   6.157  11.557   2.084  0.5502  0.7466  0.5506
33513SOL    HW1 5224   6.186  11.492   2.147  1.0236  0.8395  0.4278
33513SOL    HW2 5225   6.232  11.571   2.026 -0.2793 -0.2824 -0.8295
33514SOL     OW 5226   8.409   2.599   9.355 -0.1639 -0.2554  0.0946
33514SOL    HW1 5227   8.327   2.576   9.400 -0.1471 -0.3459  0.0789
33514SOL    HW2 5228   8.411   2.694   9.356  1.6381 -0.1746  3.5987
33515SOL     OW 5229  10.839   8.184  10.244 -0.1321 -0.0314 -0.2797
33515SOL    HW1 5230  10.877   8.113  10.295  1.5485  1.1321  0.1830
33515SOL    HW2 5231  10.836   8.151  10.154 -1.0647 -1.3092  0.2064
33516SOL     OW 5232   6.242   8.517   7.549 -0.2780  0.2087  0.0036
33516SOL    HW1 5233   6.191   8.590   7.513 -0.9873 -0.1104  0.3529
33516SOL    HW2 5234   6.302   8.559   7.611  0.1318  0.6236 -0.6633
33517SOL     OW 5235   8.705   8.958  10.851 -0.0838 -0.7889 -0.4171
33517SOL    HW1 5236   8.669   9.019  10.916 -0.9519 -0.3418 -1.3047
33517SOL    HW2 5237   8.800   8.973  10.855 -0.1225 -0.7639  0.7391
33518SOL     OW 5238   4.466   2.425  10.357 -0.0042 -0.1502  0.8944
33518SOL    HW1 5239   4.472   2.520  10.360  0.4953 -0.0393 -1.6100
33518SOL    HW2 5240   4.499   2.401  10.270 -1.8654 -2.4600  0.7181
33519SOL     OW 5241   0.038   2.518   4.779 -0.0097  0.4731 -0.2347
33519SOL    HW1 5242  -0.032   2.537   4.716 -0.0099  1.3124  0.0085
33519SOL    HW2 5243   0.042   2.596   4.835  0.6393  0.1362  0.2024
33520SOL     OW 5244   4.505   4.336   4.001  0.1138 -0.1851  0.0699
33520SOL    HW1 5245   4.521   4.418   3.954 -1.4034 -0.0149 -0.2126
33520SOL    HW2 5246   4.542   4.350   4.088 -2.1220  1.7275  0.8207
33521SOL     OW 5247   7.106   2.150  11.995 -0.2892  0.2596 -0.5533
33521SOL    HW1 5248   7.063   2.209  11.932  0.8426  1.3556 -0.3304
33521SOL    HW2 5249   7.197   2.178  11.995 -0.6453  2.0728  3.4574
33522SOL     OW 5250  11.657   4.592  10.180 -0.0277 -0.2307 -0.7823
33522SOL    HW1 5251  11.729   4.552  10.229 -0.3947  0.3964  0.2925
33522SOL    HW2 5252  11.695   4.672  10.143  0.0761 -0.3749 -0.9880
33523SOL     OW 5253   5.461   3.218  11.473 -0.5074  0.1908  0.2696
33523SOL    HW1 5254   5.372   3.185  11.487  0.3424 -1.7443  1.6873
33523SOL    HW2 5255   5.484   3.190  11.384 -1.7867  2.0079 -0.6808
33524SOL     OW 5256   7.955   0.791   9.543  0.5562  0.2858 -0.0787
33524SOL    HW1 5257   7.958   0.754   9.455 -0.2597  0.2729 -0.1112
33524SOL    HW2 5258   7.864   0.818   9.555  0.4810 -0.3644  1.0223
33525SOL     OW 5259   5.853   9.162   3.525  0.6706  0.2428  0.6337
33525SOL    HW1 5260   5.844   9.244   3.477  0.5232 -0.3176 -0.3227
33525SOL    HW2 5261   5.764   9.126   3.528  1.0653 -1.0464 -1.1137
33526SOL     OW 5262  11.246   6.457   5.336 -0.7675 -0.4139 -0.0247
33526SOL    HW1 5263  11.177   6.478   5.399  1.5620 -1.2920  3.0711
33526SOL    HW2 5264  11.325   6.496   5.373  0.6056 -0.0859 -3.0303
33527SOL     OW 5265  11.659   5.781   8.490  0.4804 -0.6098  0.0665
33527SOL    HW1 5266  11.578   5.829   8.509  1.4702  0.0305  3.2790
33527SOL    HW2 5267  11.687   5.816   8.405 -1.2975  0.9974  0.0517
33528SOL     OW 5268   2.158   3.151   9.890 -0.0453  0.7148 -0.1358
33528SOL    HW1 5269   2.111   3.166   9.808 -0.3246 -1.8571 -0.5248
33528SOL    HW2 5270   2.091   3.160   9.958 -0.3686  0.4210 -0.4097
33529SOL     OW 5271  10.180   4.890   8.572 -0.0012 -0.1915 -0.3955
33529SOL    HW1 5272  10.262   4.881   8.523  1.0218  0.8516  1.0371
33529SOL    HW2 5273  10.196   4.844   8.654 -1.2645 -0.9048 -0.5249
33530SOL     OW 5274   1.046   0.396   1.148  0.0954 -0.4077  0.3433
33530SOL    HW1 5275   1.035   0.463   1.215 -2.3218  0.2798 -0.6479
33530SOL    HW2 5276   1.010   0.435   1.068  1.7862 -1.6407 -1.1190
33531SOL     OW 5277  10.820   0.641  11.521  0.6341  0.4465  0.3384
33531SOL    HW1 5278  10.736   0.688  11.516  0.6884  0.5529  0.4166
33531SOL    HW2 5279  10.824   0.591  11.439  1.1508  1.5391 -0.3172
33532SOL     OW 5280  11.781   6.349  11.960  0.3006  0.2071 -0.4837
33532SOL    HW1 5281  11.816   6.272  11.916 -1.4846  0.3037 -2.2283
33532SOL    HW2 5282  11.762   6.410  11.889  0.3836  1.7234  0.7490
33533SOL     OW 5283   9.984   5.484   9.570 -0.4041 -0.2348  0.2077
33533SOL    HW1 5284   9.928   5.408   9.587 -1.3520  0.4821  0.3583
33533SOL    HW2 5285   9.995   5.485   9.475 -2.2491  0.6995 -0.0393
33534SOL     OW 5286   3.326   2.116   5.592 -0.4801 -0.5273  0.6329
33534SOL    HW1 5287   3.235   2.146   5.592  0.1644  1.5795  1.7518
33534SOL    HW2 5288   3.335   2.066   5.673 -0.4823 -0.2338  0.8135
33535SOL     OW 5289   4.619  10.126   3.520  0.5655 -0.1632  0.4445
33535SOL    HW1 5290   4.644  10.050   3.573  0.3897  1.1753  2.5197
33535SOL    HW2 5291   4.535  10.153   3.556 -0.5561 -0.3602 -1.8485
33536SOL     OW 5292   3.806   4.792   8.404 -0.1872 -0.8185 -0.2824
33536SOL    HW1 5293   3.718   4.753   8.399 -0.3131 -0.6702  0.6468
33536SOL    HW2 5294   3.865   4.717   8.401 -0.3856 -0.9952  0.0491
33537SOL     OW 5295   7.299   8.390   1.034  0.5289  0.2083  0.2043
33537SOL    HW1 5296   7.282   8.483   1.024 -0.2702 -0.0713 -1.3291
33537SOL    HW2 5297   7.393   8.381   1.021  0.5863  0.7851  0.2020
33538SOL     OW 5298   1.250   1.189   4.747 -0.5382  0.1377 -0.6605
33538SOL    HW1 5299   1.316   1.236   4.798 -0.6861 -1.0272  0.6740
33538SOL    HW2 5300   1.279   1.098   4.748 -1.2116 -0.1022 -1.6152
33539SOL     OW 5301   2.135   6.847   5.445  0.1186 -0.1488  0.5501
33539SOL    HW1 5302   2.166   6.763   5.480  2.6018 -0.1002 -1.2601
33539SOL    HW2 5303   2.196   6.867   5.374 -0.8323  2.8641  0.4514
33540SOL     OW 5304   2.548   3.849   9.391 -0.0457  0.1507  0.5432
33540SOL    HW1 5305   2.573   3.933   9.428  1.4014 -0.0630  0.1038
33540SOL    HW2 5306   2.588   3.784   9.450  0.7275 -0.2007 -0.3507
33541SOL     OW 5307   5.510   4.963   8.086  0.2695 -0.7655 -0.8329
33541SOL    HW1 5308   5.510   4.919   8.171  0.9238 -0.7759 -0.8315
33541SOL    HW2 5309   5.516   4.892   8.022  1.5971 -0.6908 -0.8223
33542SOL     OW 5310   8.733   7.780  11.731  0.0735  0.1719 -0.1426
33542SOL    HW1 5311   8.772   7.760  11.816  1.0908  0.9459 -0.4105
33542SOL    HW2 5312   8.807   7.781  11.670 -0.2224  2.3074 -0.5605
33543SOL     OW 5313   0.073   0.564   4.864 -0.3415  0.4156  0.2207
33543SOL    HW1 5314   0.066   0.563   4.768 -0.0743 -0.8217  0.1971
33543SOL    HW2 5315  -0.017   0.554   4.895 -0.2509 -1.2928  0.0514
33544SOL     OW 5316   7.066   6.581   0.091  0.4612 -0.3879 -0.0495
33544SOL    HW1 5317   7.076   6.630   0.009 -0.5884 -0.2163 -0.0921
33544SOL    HW2 5318   6.987   6.617   0.130  0.1253 -1.4942  0.3167
33545SOL     OW 5319   9.428   7.216   5.231  0.2480 -0.3278 -0.6274
33545SOL    HW1 5320   9.365   7.272   5.185  0.1699 -0.3128 -0.5008
33545SOL    HW2 5321   9.434   7.253   5.319 -0.6863 -1.1898 -0.1663
33546SOL     OW 5322   3.894  11.161   0.767  0.0945  0.2743 -0.1090
33546SOL    HW1 5323   3.813  11.149   0.816 -0.2387 -2.2650 -1.1207
33546SOL    HW2 5324   3.867  11.165   0.676  0.9840  1.3637 -0.3527
33547SOL     OW 5325  11.654  10.922   5.385 -1.1489  0.3965  0.0773
33547SOL    HW1 5326  11.694  10.971   5.457  1.2043 -0.7038 -0.3734
33547SOL    HW2 5327  11.695  10.958   5.306 -1.3956 -0.4782 -0.4665
33548SOL     OW 5328  10.774   0.218  10.031 -0.3718  0.6313  0.1868
33548SOL    HW1 5329  10.836   0.263  10.088  0.0692  2.1050 -1.3793
33548SOL    HW2 5330  10.725   0.161  10.090  1.7801  0.1311  1.6287
33549SOL     OW 5331  11.506   4.221   6.533  0.1841 -0.6729 -0.1620
33549SOL    HW1 5332  11.474   4.239   6.621 -0.2647 -2.0704 -0.0078
33549SOL    HW2 5333  11.516   4.307   6.492 -1.1002 -0.0706  0.7288
33550SOL     OW 5334   6.052   2.996   4.299  0.7119 -0.3175 -0.2729
33550SOL    HW1 5335   5.957   2.985   4.301  0.6954 -0.1034  0.7924
33550SOL    HW2 5336   6.080   2.952   4.219 -0.5030  1.4072 -1.7258
33551SOL     OW 5337   1.068  11.077   0.658  0.3092  0.6747  0.2930
33551SOL    HW1 5338   1.092  11.063   0.750  0.5458  0.9456  0.2750
33551SOL    HW2 5339   1.052  11.171   0.652  0.1536  0.6348  0.0867
33552SOL     OW 5340  11.856   8.641   0.508  0.6065 -0.2205 -0.3688
33552SOL    HW1 5341  11.871   8.571   0.444 -2.5718 -0.2708 -1.2005
33552SOL    HW2 5342  11.772   8.679   0.483  0.2835  1.2169  2.5329
33553SOL     OW 5343   3.024   0.615   6.879  0.0679  0.7543 -0.0111
33553SOL    HW1 5344   3.026   0.568   6.962  1.6395 -1.7470 -1.3278
33553SOL    HW2 5345   2.969   0.561   6.822  0.7035  1.2904 -1.1752
33554SOL     OW 5346   1.603   9.006   2.555 -0.3056  0.0038 -0.0520
33554SOL    HW1 5347   1.552   9.075   2.599 -0.3454 -1.1289  1.8101
33554SOL    HW2 5348   1.689   9.009   2.598  0.0075 -0.4771 -0.6356
33555SOL     OW 5349  11.037   2.616   8.460  0.3547  0.0445  0.3359
33555SOL    HW1 5350  11.107   2.605   8.395  0.3382 -1.7973  0.5757
33555SOL    HW2 5351  10.963   2.569   8.422 -0.3704  0.8845  0.6784
33556SOL     OW 5352   5.465   6.431   0.198  0.0679  0.2585  0.4253
33556SOL    HW1 5353   5.559   6.443   0.211 -0.1824  0.8272  1.8082
33556SOL    HW2 5354   5.433   6.394   0.280 -1.0191  0.6381  0.1913
33557SOL     OW 5355  10.023   0.148   7.599  0.3336  0.0140  0.4183
33557SOL    HW1 5356  10.106   0.122   7.559 -0.8918 -2.1845 -0.9007
33557SOL    HW2 5357  10.034   0.130   7.693  0.4588 -3.1320 -0.1002
33558SOL     OW 5358   0.934   6.717   4.314 -0.7065 -0.2992 -0.2446
33558SOL    HW1 5359   0.854   6.755   4.277  0.4468  3.2303  0.5523
33558SOL    HW2 5360   1.005   6.753   4.262  0.6160  0.5501  1.9892
33559SOL     OW 5361   5.848   9.911   6.547  0.1846 -0.3297  0.0546
33559SOL    HW1 5362   5.899   9.951   6.618  0.6704 -1.4636  0.3714
33559SOL    HW2 5363   5.853   9.974   6.476  0.9195  0.1835  0.5366
33560SOL     OW 5364   6.668   9.042   1.232  0.6918  0.0368 -0.1246
33560SOL    HW1 5365   6.705   9.097   1.162  0.2441 -0.6635 -0.9324
33560SOL    HW2 5366   6.741   9.025   1.291  1.1162  0.4997 -0.5126
33561SOL     OW 5367  10.339  11.030   0.170 -0.4379 -0.2202 -0.2451
33561SOL    HW1 5368  10.313  10.987   0.251  1.6539 -0.9144  0.1293
33561SOL    HW2 5369  10.328  11.123   0.186  1.3701 -0.2343  1.4527
33562SOL     OW 5370   2.672   9.264   9.380  0.1368  0.2880 -0.4806
33562SOL    HW1 5371   2.754   9.307   9.356 -0.0423 -0.2986 -2.2553
33562SOL    HW2 5372   2.672   9.182   9.332 -0.8547 -0.3953  0.6214
33563SOL     OW 5373   9.192   3.649   1.386  0.2251  0.4406 -0.4297
33563SOL    HW1 5374   9.176   3.715   1.318  1.1354  3.0488  1.7570
33563SOL    HW2 5375   9.287   3.641   1.389  0.2783  1.4051  1.4177
33564SOL     OW 5376   9.214  11.986  10.349 -0.5075  0.1968 -0.0594
33564SOL    HW1 5377   9.239  12.068  10.306 -0.2118 -0.4098 -1.0575
33564SOL    HW2 5378   9.288  11.927  10.333 -1.0044 -0.4773  0.0896
33565SOL     OW 5379   0.708   9.158   6.260  0.1552 -0.3116  0.5944
33565SOL    HW1 5380   0.703   9.218   6.186 -0.6182  0.0880  0.9687
33565SOL    HW2 5381   0.650   9.195   6.326  0.3458 -1.0027  1.1659
33566SOL     OW 5382   8.916   1.830   7.372  0.1269 -0.1023 -0.0032
33566SOL    HW1 5383   8.888   1.880   7.296  1.8972  0.0160 -0.6327
33566SOL    HW2 5384   8.987   1.774   7.340 -0.0478 -1.0872  1.2567
33567SOL     OW 5385   2.161   5.464   3.288  0.0931  0.1067 -0.5663
33567SOL    HW1 5386   2.237   5.522   3.282 -0.2656  0.4237 -2.9864
33567SOL    HW2 5387   2.093   5.518   3.328  0.1544  0.9844 -1.5818
33568SOL     OW 5388   6.688  10.527   7.307  0.1869 -0.1100 -0.6946
33568SOL    HW1 5389   6.782  10.515   7.324 -0.0002 -0.2983  0.2233
33568SOL    HW2 5390   6.645  10.464   7.364 -0.5253  0.2560 -0.8179
33569SOL     OW 5391   7.606   6.546   9.441 -0.3724 -0.7551 -0.1500
33569SOL    HW1 5392   7.579   6.523   9.530 -0.1261 -1.1054 -0.1648
33569SOL    HW2 5393   7.689   6.592   9.453 -0.5307 -0.4544 -0.1729
33570SOL     OW 5394   9.073   7.913   9.759 -0.2382  0.2406  0.6578
33570SOL    HW1 5395   9.166   7.892   9.768 -0.7605 -1.3813  3.2196
33570SOL    HW2 5396   9.071   7.984   9.695  2.5274 -1.2569 -1.3275
33571SOL     OW 5397  11.782   7.208  10.252 -0.8101 -0.2252 -0.3235
33571SOL    HW1 5398  11.695   7.184  10.284 -0.6709  0.0470  0.2602
33571SOL    HW2 5399  11.840   7.138  10.283 -0.6537  0.1044  0.1302
33572SOL     OW 5400   0.634   1.458   6.955  0.2852  0.5025  0.0172
33572SOL    HW1 5401   0.664   1.450   7.045  1.3762  0.9283 -0.2981
33572SOL    HW2 5402   0.579   1.536   6.955 -1.3572 -0.6044  0.7195
33573SOL     OW 5403   8.229  10.607   7.081  0.1085  0.7493 -0.1979
33573SOL    HW1 5404   8.197  10.697   7.076  0.0673  0.7205 -0.5226
33573SOL    HW2 5405   8.318  10.614   7.114 -0.3225  0.8100  0.9918
33574SOL     OW 5406   7.388   8.576   5.471 -0.5071  0.0329  0.3405
33574SOL    HW1 5407   7.454   8.644   5.458 -2.4691  1.8381 -0.7226
33574SOL    HW2 5408   7.309   8.623   5.498 -1.2151 -2.1312  2.3824
33575SOL     OW 5409   9.374   3.280   3.247 -0.3037  0.2150 -0.0768
33575SOL    HW1 5410   9.308   3.218   3.215  1.2092 -0.4936 -2.0276
33575SOL    HW2 5411   9.356   3.361   3.199  0.5247 -0.1507 -1.0601
33576SOL     OW 5412   7.552   4.560   2.461  0.5331  0.1048 -0.2248
33576SOL    HW1 5413   7.524   4.581   2.372  0.2794  1.3363  0.1310
33576SOL    HW2 5414   7.538   4.641   2.511 -1.6738 -1.2095  1.5118
33577SOL     OW 5415  11.496   1.402   6.016  0.1054 -0.0285  0.2660
33577SOL    HW1 5416  11.446   1.341   6.070 -0.6307 -0.4222 -0.8159
33577SOL    HW2 5417  11.525   1.349   5.941  1.3368  0.4284  0.4003
33578SOL     OW 5418   4.604   6.120  11.861 -0.0140  0.0147 -0.0562
33578SOL    HW1 5419   4.567   6.109  11.774  1.1439  1.9491 -0.8434
33578SOL    HW2 5420   4.533   6.094  11.921 -0.8199 -1.3685 -1.5256
33579SOL     OW 5421   9.922   5.054  11.695 -0.5473  0.1706  0.3142
33579SOL    HW1 5422   9.994   5.094  11.646 -0.1286  0.7178  1.3519
33579SOL    HW2 5423   9.843   5.085  11.652 -0.2073  1.3679  0.5264
33580SOL     OW 5424   6.523   8.550   1.603  0.2584  0.0398  0.0216
33580SOL    HW1 5425   6.472   8.470   1.612 -1.0261  0.9771  1.7973
33580SOL    HW2 5426   6.604   8.533   1.652  0.1659 -0.3026  0.0547
33581SOL     OW 5427   2.441   0.048   3.294  0.0929  0.3929  0.1337
33581SOL    HW1 5428   2.389   0.081   3.220  0.1863 -0.7748 -0.4685
33581SOL    HW2 5429   2.397  -0.033   3.320  0.0939  0.7630  1.3383
33582SOL     OW 5430   1.190   9.697   4.653 -0.3698 -0.0511 -0.3436
33582SOL    HW1 5431   1.162   9.653   4.573 -1.6985  1.4493 -0.7609
33582SOL    HW2 5432   1.141   9.780   4.653 -0.7986 -0.2118  2.2654
33583SOL     OW 5433   1.980  10.658   8.730  0.5066  0.6620 -0.2080
33583SOL    HW1 5434   2.031  10.587   8.691  0.0599  0.4690 -0.4487
33583SOL    HW2 5435   1.953  10.624   8.815 -1.7215 -0.4323 -1.2609
33584SOL     OW 5436  11.358   0.693   2.533 -0.3751  0.3492  0.1379
33584SOL    HW1 5437  11.265   0.714   2.541 -0.5563 -0.6493  0.8261
33584SOL    HW2 5438  11.361   0.599   2.517  0.4503  0.6829 -1.9811
33585SOL     OW 5439   3.003   0.505   0.631  0.0489 -0.1273  0.0011
33585SOL    HW1 5440   2.967   0.578   0.581  0.2803 -0.0513 -0.0544
33585SOL    HW2 5441   2.980   0.428   0.580  1.1753  0.0224 -0.7617
33586SOL     OW 5442   7.445   7.487   9.448  0.1038 -0.3491  0.2418
33586SOL    HW1 5443   7.389   7.514   9.375  0.4380  0.3568  0.2424
33586SOL    HW2 5444   7.445   7.392   9.444 -1.1952 -0.3668  0.3125
33587SOL     OW 5445   8.407   6.645   9.359 -0.0137 -0.4167  0.3208
33587SOL    HW1 5446   8.502   6.639   9.358  0.0022 -0.1996  0.3283
33587SOL    HW2 5447   8.377   6.559   9.389  0.1909 -0.3784  0.6385
33588SOL     OW 5448  11.607  11.819   4.659 -0.9897  0.0458 -0.5044
33588SOL    HW1 5449  11.519  11.796   4.629 -1.4074  0.7360  0.1641
33588SOL    HW2 5450  11.594  11.857   4.746  0.1228 -1.1824  0.2257
33589SOL     OW 5451   4.900  10.053   3.149  0.2760 -0.0935  0.1576
33589SOL    HW1 5452   4.885   9.993   3.076 -1.7284  1.0911 -0.4892
33589SOL    HW2 5453   4.943  10.000   3.215  0.0817 -1.7994 -1.0232
33590SOL     OW 5454   2.264   3.014   5.332 -0.3006 -0.1487 -0.4861
33590SOL    HW1 5455   2.243   2.959   5.256 -0.2768 -1.0873  0.1694
33590SOL    HW2 5456   2.182   3.060   5.351 -0.6537 -0.8321 -0.3394
33591SOL     OW 5457   2.783   5.417   5.859 -0.4199 -0.0961  0.0590
33591SOL    HW1 5458   2.738   5.380   5.783 -0.8904 -3.8215  1.8788
33591SOL    HW2 5459   2.712   5.439   5.920  0.0052 -1.0509  0.9313
33592SOL     OW 5460   7.160   0.303   7.132 -0.5070 -0.1533 -0.2068
33592SOL    HW1 5461   7.073   0.342   7.122  0.3496  2.2546  0.8472
33592SOL    HW2 5462   7.172   0.295   7.227  0.2616 -0.8595 -0.3518
33593SOL     OW 5463   4.646   3.603   2.792  0.2489  0.0740  0.6750
33593SOL    HW1 5464   4.557   3.611   2.756  0.7952  1.0067 -0.5591
33593SOL    HW2 5465   4.646   3.661   2.868 -0.2540 -0.0859  0.8056
33594SOL     OW 5466   8.833   7.959   7.720  0.2181 -0.0135  0.0928
33594SOL    HW1 5467   8.828   7.889   7.785  0.6451  2.0079  2.5210
33594SOL    HW2 5468   8.910   7.938   7.667 -1.0778 -2.5681 -0.8877
33595SOL     OW 5469  11.951   0.597  10.261  0.5206  0.4115  0.2783
33595SOL    HW1 5470  11.909   0.619  10.344 -2.9530 -0.4446 -1.0840
33595SOL    HW2 5471  11.922   0.507  10.243 -1.6281  1.6249 -3.2854
33596SOL     OW 5472   9.115  11.145   9.200 -0.0794  0.2980  0.3196
33596SOL    HW1 5473   9.052  11.171   9.133  0.8304  0.5454 -0.4502
33596SOL    HW2 5474   9.122  11.221   9.258  0.1502  0.5808 -0.0795
33597SOL     OW 5475   8.155   4.242   9.629  0.0090  0.0804  0.6438
33597SOL    HW1 5476   8.210   4.318   9.607 -0.7391  0.4990  0.1889
33597SOL    HW2 5477   8.148   4.193   9.547  1.6410 -1.2711  1.2437
33598SOL     OW 5478   9.522   6.675   2.999  0.4030  0.0391 -0.3958
33598SOL    HW1 5479   9.440   6.722   2.983  0.1826  0.3750  1.4741
33598SOL    HW2 5480   9.566   6.674   2.914 -1.0755  0.7458 -1.2077
33599SOL     OW 5481   4.347   2.193   3.707  0.7752 -0.3749 -0.3596
33599SOL    HW1 5482   4.411   2.132   3.744  0.8220  0.3301  0.7698
33599SOL    HW2 5483   4.316   2.243   3.782  1.2354  1.4714 -1.3361
33600SOL     OW 5484   1.025   0.695   0.380  0.0488  0.1004 -0.5019
33600SOL    HW1 5485   1.055   0.743   0.302  1.8751  0.3919  0.3154
33600SOL    HW2 5486   1.014   0.763   0.446  1.2753 -0.4179  0.2664
33601SOL     OW 5487   3.408   2.275   6.019 -0.0926 -0.2900 -0.0211
33601SOL    HW1 5488   3.329   2.315   6.055 -0.8659 -2.2513  0.5876
33601SOL    HW2 5489   3.478   2.337   6.041 -1.2297  0.7390  0.8222
33602SOL     OW 5490   9.887   0.976   8.255 -0.2251  0.4680 -0.0154
33602SOL    HW1 5491   9.930   0.925   8.186  0.1111  1.7173 -0.7743
33602SOL    HW2 5492   9.943   1.054   8.265 -1.2867  1.2093  0.3284
33603SOL     OW 5493   6.022   9.699   9.677 -0.7270  0.0127 -0.4643
33603SOL    HW1 5494   6.085   9.730   9.611 -0.5508  1.4491  0.3484
33603SOL    HW2 5495   6.016   9.605   9.661  0.3164  0.1172 -1.6768
33604SOL     OW 5496  10.739   1.260   6.498 -0.0376 -0.2272 -0.0825
33604SOL    HW1 5497  10.674   1.321   6.533  0.3152 -0.2675  0.6551
33604SOL    HW2 5498  10.824   1.300   6.520  0.1942 -0.7894  0.0724
33605SOL     OW 5499   9.025   4.808   8.065  0.3208  0.4117  0.0645
33605SOL    HW1 5500   9.096   4.745   8.059  0.0766  0.2384 -1.2380
33605SOL    HW2 5501   8.951   4.758   8.099  1.2616  1.0117  3.3400
33606SOL     OW 5502   0.722   9.615  10.883  0.7379 -0.5054  0.4715
33606SOL    HW1 5503   0.639   9.646  10.846  0.9200  0.2928  0.7127
33606SOL    HW2 5504   0.709   9.521  10.895 -0.6539 -0.1896  1.8255
33607SOL     OW 5505  10.677   5.600   2.118  0.4745 -0.5123 -0.7956
33607SOL    HW1 5506  10.752   5.640   2.072 -0.3260  0.3345 -1.4052
33607SOL    HW2 5507  10.604   5.609   2.058 -0.7671  1.1949  0.8368
33608SOL     OW 5508   7.090   0.952   8.528 -0.5570 -0.2485  0.5401
33608SOL    HW1 5509   7.034   0.976   8.455  0.3063  0.1482 -0.0153
33608SOL    HW2 5510   7.061   0.865   8.554 -0.6815 -0.5182 -0.4769
33609SOL     OW 5511   6.151   2.041   4.091  0.1278 -0.3934 -0.0595
33609SOL    HW1 5512   6.190   2.033   4.004  0.3004 -3.2912  0.2061
33609SOL    HW2 5513   6.226   2.053   4.150  0.1523 -0.1709 -0.1364
33610SOL     OW 5514   5.346   4.842  10.080 -0.2789  0.4577 -0.3318
33610SOL    HW1 5515   5.375   4.933  10.081  2.1468 -0.2370  1.4602
33610SOL    HW2 5516   5.396   4.801  10.009 -0.6339  0.3010 -0.4962
33611SOL     OW 5517   0.212   5.779   3.962  0.4275  0.2034 -0.1648
33611SOL    HW1 5518   0.272   5.842   3.920 -0.4711  0.0625 -1.7349
33611SOL    HW2 5519   0.208   5.807   4.053  0.2894  2.2719 -0.7508
33612SOL     OW 5520   1.377   2.076   3.654 -0.2390  0.2197 -0.2718
33612SOL    HW1 5521   1.372   1.981   3.643 -1.0023  0.2582 -0.3166
33612SOL    HW2 5522   1.286   2.105   3.653  0.0215  1.1653 -2.2099
33613SOL     OW 5523   6.111   4.557   7.293 -0.1108 -0.0584 -0.1283
33613SOL    HW1 5524   6.079   4.490   7.353 -0.2079 -0.5124 -0.6803
33613SOL    HW2 5525   6.031   4.595   7.255 -0.0816  0.7533  0.5773
33614SOL     OW 5526   7.208  10.222   7.423  0.1751  1.1787 -0.6454
33614SOL    HW1 5527   7.119  10.255   7.412 -0.1482  0.1747 -1.1307
33614SOL    HW2 5528   7.204  10.170   7.503  0.1795  0.6608 -0.9792
33615SOL     OW 5529   4.292   4.581   3.937  0.0586  0.1249  0.3016
33615SOL    HW1 5530   4.289   4.568   3.842 -0.3240 -0.2462  0.3592
33615SOL    HW2 5531   4.283   4.675   3.948  3.0470  0.5452 -0.1393
33616SOL     OW 5532   0.410   2.822   9.132 -0.1463 -0.3848 -0.1635
33616SOL    HW1 5533   0.401   2.834   9.038  0.9300  0.1623 -0.2153
33616SOL    HW2 5534   0.477   2.754   9.141  0.5761  0.3573  0.1999
33617SOL     OW 5535   5.650   9.859   0.040 -0.3529 -0.2819  0.3427
33617SOL    HW1 5536   5.619   9.768   0.046  1.2169 -0.8170  0.9781
33617SOL    HW2 5537   5.708   9.859  -0.036 -0.2268  0.1500  0.4393
33618SOL     OW 5538   9.167   1.698   7.515 -0.1785  0.1795 -0.1442
33618SOL    HW1 5539   9.095   1.639   7.535  2.0170 -2.5370  0.2471
33618SOL    HW2 5540   9.168   1.704   7.419  0.9573 -2.4233 -0.3685
33619SOL     OW 5541  11.364   5.981   9.430  0.6743 -0.0400  0.1881
33619SOL    HW1 5542  11.349   5.891   9.401 -0.6305  0.0353  0.5869
33619SOL    HW2 5543  11.451   5.978   9.470  1.6759 -0.5843 -1.8926
33620SOL     OW 5544   0.761   4.594   0.225  0.2852  0.0932  0.4323
33620SOL    HW1 5545   0.765   4.502   0.198  1.0212  0.0023  0.8146
33620SOL    HW2 5546   0.805   4.596   0.310  1.7338  1.0481 -0.2849
33621SOL     OW 5547   0.319   2.227   6.031  0.0911 -0.2762 -0.5937
33621SOL    HW1 5548   0.323   2.140   5.993  0.0214 -0.9457  0.8470
33621SOL    HW2 5549   0.324   2.212   6.126  2.2537  1.4289 -0.3617
33622SOL     OW 5550   7.754   4.545   2.078 -0.0203 -0.3873  0.0433
33622SOL    HW1 5551   7.756   4.554   1.982  1.0812 -0.0569  0.0860
33622SOL    HW2 5552   7.748   4.635   2.110  0.0331 -0.4714  0.2883
33623SOL     OW 5553  10.437   3.930  11.655 -0.0031  0.2622 -0.1159
33623SOL    HW1 5554  10.408   3.841  11.674 -0.5477  0.0967 -1.6460
33623SOL    HW2 5555  10.384   3.958  11.581  0.9737  1.4457 -0.4011
33624SOL     OW 5556   0.750   4.690   3.386 -0.3626  0.1290 -0.0269
33624SOL    HW1 5557   0.720   4.608   3.425  0.8829 -0.8915 -1.0981
33624SOL    HW2 5558   0.671   4.730   3.351 -1.2664  0.3246  2.1220
33625SOL     OW 5559   7.487   0.437   3.508  0.2798  0.0193 -0.8188
33625SOL    HW1 5560   7.414   0.464   3.565 -0.4207 -0.8067 -1.3012
33625SOL    HW2 5561   7.491   0.342   3.519  0.2532 -0.1324 -2.0032
33626SOL     OW 5562   0.291   1.799   3.096  0.5340 -0.2105 -0.3465
33626SOL    HW1 5563   0.298   1.841   3.010  1.4253 -0.3531 -0.3507
33626SOL    HW2 5564   0.365   1.833   3.145  0.9725 -1.3928 -0.1776
33627SOL     OW 5565  11.813   2.147   0.774 -0.4451  0.1051 -0.1321
33627SOL    HW1 5566  11.905   2.124   0.758 -0.6540 -0.8032 -0.0528
33627SOL    HW2 5567  11.804   2.143   0.869 -0.1773  1.7501 -0.0147
33628SOL     OW 5568   7.146   9.823   3.834 -0.3915 -0.0483 -0.3792
33628SOL    HW1 5569   7.124   9.739   3.794  0.2329 -0.1342 -0.5464
33628SOL    HW2 5570   7.240   9.818   3.851 -0.7316 -0.2935  1.7455
33629SOL     OW 5571   2.902  11.999   6.522 -0.4600  0.3214  0.0001
33629SOL    HW1 5572   2.897  12.094   6.509 -0.8341  0.2643 -0.2615
33629SOL    HW2 5573   2.867  11.985   6.610  2.5804  0.7654  1.4146
33630SOL     OW 5574   4.758   8.247   0.817  0.2279 -0.5292  0.3436
33630SOL    HW1 5575   4.838   8.224   0.864  1.8864  0.1360 -1.9289
33630SOL    HW2 5576   4.709   8.165   0.810  0.4473 -0.8596  2.1584
33631SOL     OW 5577   7.691   4.773   2.221 -0.7511 -0.3492 -0.1000
33631SOL    HW1 5578   7.712   4.853   2.172 -3.3156  0.7092  0.3986
33631SOL    HW2 5579   7.733   4.786   2.306 -0.2205 -0.0558 -0.4012
33632SOL     OW 5580   3.778   2.873   9.561  0.1487  0.3787  0.3552
33632SOL    HW1 5581   3.800   2.842   9.473  1.4075  1.1892  0.3725
33632SOL    HW2 5582   3.686   2.898   9.555 -0.5544 -2.0072 -0.0186
33633SOL     OW 5583   0.202   4.154   3.557  0.3523  0.0844 -0.0077
33633SOL    HW1 5584   0.224   4.243   3.529 -2.8184  1.1380  0.5348
33633SOL    HW2 5585   0.111   4.141   3.531  0.5408 -2.8665  0.3719
33634SOL     OW 5586   2.569   1.559   8.744 -0.2752  0.5647 -0.1969
33634SOL    HW1 5587   2.585   1.472   8.780  0.6569  1.7079  2.3541
33634SOL    HW2 5588   2.480   1.554   8.708 -0.6171 -1.1534  0.7827
33635SOL     OW 5589   7.183   3.833   8.867 -0.2785  0.1740  0.0779
33635SOL    HW1 5590   7.142   3.769   8.925 -1.8886  1.2452  0.1819
33635SOL    HW2 5591   7.174   3.916   8.912  0.3913  0.7102 -0.7449
33636SOL     OW 5592   8.484   0.317   2.192 -0.0646 -0.4079 -0.2209
33636SOL    HW1 5593   8.531   0.266   2.257  0.5381  1.6596  1.0546
33636SOL    HW2 5594   8.548   0.335   2.124  0.4732  0.7663  0.5737
33637SOL     OW 5595  11.177  10.102  10.383  0.0654 -0.2788 -0.3572
33637SOL    HW1 5596  11.167  10.047  10.306  1.3342 -0.8022 -0.1749
33637SOL    HW2 5597  11.149  10.047  10.456 -0.6705  0.0509 -0.3804
33638SOL     OW 5598   3.098   9.247   5.707  0.0319  0.4299  0.6317
33638SOL    HW1 5599   3.163   9.274   5.772  0.2303  1.9529 -0.1656
33638SOL    HW2 5600   3.135   9.275   5.624 -0.8869 -0.2040 -0.0030
33639SOL     OW 5601   6.944  10.488   7.430  0.2409  0.0163  0.4104
33639SOL    HW1 5602   6.999  10.476   7.353  2.7010  1.5937  1.7838
33639SOL    HW2 5603   6.941  10.401   7.471 -1.5357 -0.9637 -1.6286
33640SOL     OW 5604   4.685   6.049   8.812  0.4114 -0.0636  0.7179
33640SOL    HW1 5605   4.779   6.069   8.811  0.3910  0.0377  0.7311
33640SOL    HW2 5606   4.648   6.105   8.743  0.0927  1.3031  1.9424
33641SOL     OW 5607   0.206   3.468   8.297 -0.0626  0.0535  0.0965
33641SOL    HW1 5608   0.139   3.405   8.269  0.9011 -0.5679 -0.8813
33641SOL    HW2 5609   0.208   3.534   8.227  0.5401 -0.0880 -0.0267
33642SOL     OW 5610   6.858   0.845   4.596  0.2057 -0.0709 -0.2932
33642SOL    HW1 5611   6.811   0.811   4.672  0.6721 -1.9392 -0.7701
33642SOL    HW2 5612   6.866   0.939   4.612  1.6293 -0.5727  2.7143
33643SOL     OW 5613   3.644  11.019   6.612 -0.1877  0.2850  0.0023
33643SOL    HW1 5614   3.674  10.968   6.536  0.5410  0.8760 -0.1283
33643SOL    HW2 5615   3.691  11.102   6.604 -1.2146  0.9094  0.3095
33644SOL     OW 5616   8.455   0.770   3.015 -0.4379 -0.7876  0.1478
33644SOL    HW1 5617   8.431   0.856   3.051 -0.8708 -0.7010 -0.3408
33644SOL    HW2 5618   8.373   0.735   2.981 -0.2786 -1.4438  0.4408
33645SOL     OW 5619   1.936   1.679  11.165  0.1796 -0.0752  0.6777
33645SOL    HW1 5620   1.860   1.736  11.154  0.9741  0.8325 -0.3612
33645SOL    HW2 5621   1.920   1.605  11.106 -0.3385 -0.3956  1.2050
33646SOL     OW 5622   0.462   7.817   6.503 -0.0005  0.3717  0.0110
33646SOL    HW1 5623   0.426   7.866   6.577 -0.7599  0.9510 -0.7273
33646SOL    HW2 5624   0.556   7.814   6.520 -0.4509 -2.8186  2.9599
33647SOL     OW 5625   0.984   5.423   1.449 -0.7128 -0.2326  0.4234
33647SOL    HW1 5626   1.047   5.446   1.516 -0.3299  1.4126 -0.4504
33647SOL    HW2 5627   1.034   5.426   1.367 -1.8817  1.0646 -0.2759
33648SOL     OW 5628   1.713   4.138   0.385 -0.1584 -0.0601  0.1571
33648SOL    HW1 5629   1.790   4.095   0.422 -0.4951 -1.9044 -1.1432
33648SOL    HW2 5630   1.640   4.108   0.439 -0.2189  0.0882  0.1593
33649SOL     OW 5631   5.647   3.500   3.334 -0.8984  0.4180 -0.6756
33649SOL    HW1 5632   5.699   3.579   3.345 -0.8611  0.5189 -1.5248
33649SOL    HW2 5633   5.709   3.435   3.299 -1.2078  0.3689 -1.1367
33650SOL     OW 5634   9.667   4.214  10.300 -0.1593  0.5451  0.2013
33650SOL    HW1 5635   9.677   4.248  10.211 -0.5517 -2.2089 -0.9774
33650SOL    HW2 5636   9.589   4.258  10.334 -1.8347 -0.5372 -1.9893
33651SOL     OW 5637  10.560   4.724   0.748 -0.3604  0.1686  0.4103
33651SOL    HW1 5638  10.533   4.666   0.677  2.0428 -1.1503  0.4741
33651SOL    HW2 5639  10.566   4.666   0.825 -1.5477  1.2964  1.4177
33652SOL     OW 5640  11.550   6.589   1.999 -0.3120 -0.3967  0.3705
33652SOL    HW1 5641  11.502   6.520   2.043 -1.1177 -0.8374 -1.1123
33652SOL    HW2 5642  11.633   6.549   1.973 -0.8246 -0.8837 -0.5892
33653SOL     OW 5643  10.319   4.238   3.523 -0.3881  0.2384 -0.1717
33653SOL    HW1 5644  10.312   4.144   3.539  0.5408 -0.3194 -2.6187
33653SOL    HW2 5645  10.232   4.264   3.493 -0.4510  0.0025 -0.1954
33654SOL     OW 5646   2.058   0.358   3.412 -0.5546  0.1511  0.2431
33654SOL    HW1 5647   2.040   0.419   3.484  1.1373  1.6558 -0.5436
33654SOL    HW2 5648   2.140   0.388   3.374 -0.4375 -1.7368 -1.1664
33655SOL     OW 5649   4.412   3.449   6.486  0.0475 -0.6686  0.3434
33655SOL    HW1 5650   4.445   3.452   6.396 -0.6371  2.0595  0.0947
33655SOL    HW2 5651   4.317   3.449   6.477 -0.0276 -0.5879  1.0441
33656SOL     OW 5652   4.960   9.781   4.540 -0.1492  0.2001  0.1982
33656SOL    HW1 5653   4.916   9.854   4.497 -0.7982  0.2311  0.8983
33656SOL    HW2 5654   4.949   9.708   4.479 -2.8145 -0.2832  1.1344
33657SOL     OW 5655   4.473  11.258   8.710  0.4889  0.7092 -0.6204
33657SOL    HW1 5656   4.568  11.269   8.711  0.5742 -0.0498  0.7399
33657SOL    HW2 5657   4.457  11.193   8.642  0.9028  1.0593 -1.0623
33658SOL     OW 5658   9.915   7.262   4.404  0.1774  0.1749 -0.6881
33658SOL    HW1 5659   9.828   7.236   4.374  1.0423 -1.6870 -1.7279
33658SOL    HW2 5660   9.930   7.346   4.362  0.0195 -0.8354 -2.8886
33659SOL     OW 5661   7.022   8.165   5.962  0.5347 -0.2515 -0.0896
33659SOL    HW1 5662   6.975   8.137   5.884  0.5063  0.0920 -0.1957
33659SOL    HW2 5663   7.107   8.196   5.929  0.0791  1.0046 -0.1182
33660SOL     OW 5664   6.824   3.283   6.953 -0.4383  0.1318 -0.4749
33660SOL    HW1 5665   6.844   3.337   7.029  2.2807 -2.0022  0.4854
33660SOL    HW2 5666   6.803   3.346   6.884  1.3157  2.3697  0.8899
33661SOL     OW 5667   2.218   9.724  11.159  1.0061 -0.5332 -0.0321
33661SOL    HW1 5668   2.240   9.701  11.068 -0.8967 -0.0185 -0.6730
33661SOL    HW2 5669   2.203   9.639  11.202 -1.7021 -0.7810 -1.2353
33662SOL     OW 5670   1.767   1.291   1.878  0.2493  0.3170 -0.2782
33662SOL    HW1 5671   1.780   1.326   1.966 -0.6434  1.1474 -0.4674
33662SOL    HW2 5672   1.672   1.288   1.867  0.1690 -3.4087  0.2191
33663SOL     OW 5673   4.148  10.080   0.533  0.3077  0.8810 -0.3730
33663SOL    HW1 5674   4.083  10.113   0.596  1.0432 -0.9026  1.4469
33663SOL    HW2 5675   4.114   9.996   0.505  1.4723  0.2095  0.1199
33664SOL     OW 5676  10.025   1.437   4.302 -0.1369 -0.2653  0.7388
33664SOL    HW1 5677  10.026   1.392   4.218  0.5813 -0.0954  0.6454
33664SOL    HW2 5678  10.030   1.366   4.367 -0.2261 -0.3729  0.6290
33665SOL     OW 5679   2.987   9.782   4.405 -0.2101  0.0983  0.0896
33665SOL    HW1 5680   3.017   9.753   4.319  0.6384 -0.1041  0.4402
33665SOL    HW2 5681   2.949   9.869   4.389 -1.2707 -0.4786 -0.6944
33666SOL     OW 5682   5.418   2.319   4.854  0.1126  0.0986  0.1628
33666SOL    HW1 5683   5.377   2.252   4.799 -0.3256  0.7956 -0.3816
33666SOL    HW2 5684   5.386   2.402   4.819  0.7820  0.6068  0.7165
33667SOL     OW 5685   0.237   8.097   9.173 -0.3066 -0.2771  0.3332
33667SOL    HW1 5686   0.288   8.098   9.254 -0.4679 -0.3456  0.4361
33667SOL    HW2 5687   0.216   8.005   9.159  2.1624 -0.7128 -1.3324
33668SOL     OW 5688  11.651   5.545   9.595  0.2270 -0.3916  0.0198
33668SOL    HW1 5689  11.662   5.571   9.687 -1.0876  2.5567 -0.5674
33668SOL    HW2 5690  11.739   5.552   9.558  0.3510  0.9642  0.5035
33669SOL     OW 5691   3.142   1.843   4.138 -0.3568 -0.1963  0.1062
33669SOL    HW1 5692   3.163   1.767   4.085 -1.3637 -0.4693  0.0838
33669SOL    HW2 5693   3.227   1.883   4.158  0.1721 -1.2553  0.0294
33670SOL     OW 5694   2.237   9.307  10.584 -0.3413 -0.8847  0.3842
33670SOL    HW1 5695   2.237   9.220  10.544  0.2271 -1.2922  1.2537
33670SOL    HW2 5696   2.285   9.297  10.666 -1.6845 -0.1263  1.3074
33671SOL     OW 5697   4.491   5.969   7.017 -0.6549 -0.1755 -0.4989
33671SOL    HW1 5698   4.563   6.027   7.043 -1.1863  0.8040 -1.1544
33671SOL    HW2 5699   4.518   5.882   7.048  1.1941  0.0127 -1.4227
33672SOL     OW 5700   6.509  11.944   4.920 -0.0838  0.1031 -0.1516
33672SOL    HW1 5701   6.470  12.028   4.944  0.8283  0.5737 -0.2853
33672SOL    HW2 5702   6.491  11.935   4.827  0.3581  0.4558 -0.2761
33673SOL     OW 5703   9.795  10.261   9.650  0.3577  0.3383 -0.0347
33673SOL    HW1 5704   9.710  10.279   9.691 -0.0276 -1.6750  0.1488
33673SOL    HW2 5705   9.797  10.166   9.640  2.9041  0.2682  0.5885
33674SOL     OW 5706   2.517  10.128   4.261 -0.0737  0.3151 -0.4499
33674SOL    HW1 5707   2.546  10.148   4.350  0.1070 -1.7537  0.0216
33674SOL    HW2 5708   2.443  10.186   4.247  0.6261  1.5142  0.5950
33675SOL     OW 5709   3.044  10.029  11.260 -0.3592 -0.2843  0.1705
33675SOL    HW1 5710   3.081   9.955  11.307 -1.0501 -0.6119  0.2111
33675SOL    HW2 5711   2.980  10.067  11.321 -0.8178 -0.3416 -0.2710
33676SOL     OW 5712   6.146   7.429   9.461  0.0553 -0.1076  0.2417
33676SOL    HW1 5713   6.086   7.461   9.528  0.1374 -2.3400  1.4555
33676SOL    HW2 5714   6.110   7.344   9.435  1.6295 -0.5943 -0.4379
33677SOL     OW 5715   8.573   7.861   4.872  0.4664  0.5173 -0.8773
33677SOL    HW1 5716   8.543   7.771   4.881  1.0948  0.4847  2.4382
33677SOL    HW2 5717   8.664   7.859   4.901  1.0127  1.9992 -2.3192
33678SOL     OW 5718  10.084  10.354   3.925 -0.5197 -0.3462 -0.2169
33678SOL    HW1 5719  10.110  10.279   3.978  0.5123  0.3589  0.3093
33678SOL    HW2 5720  10.087  10.428   3.986 -2.0261  0.0570 -0.5893
33679SOL     OW 5721   3.151   6.840   2.454  0.5254 -0.2308  0.0335
33679SOL    HW1 5722   3.243   6.866   2.460  0.2350  0.7935  0.1887
33679SOL    HW2 5723   3.115   6.858   2.541 -0.0583  0.3096 -0.3148
33680SOL     OW 5724  11.340   6.023  11.440  0.2723 -0.4411  0.3432
33680SOL    HW1 5725  11.316   6.028  11.347 -0.7367  1.6475  0.6600
33680SOL    HW2 5726  11.422   5.972  11.441  1.2755  0.9884 -1.8905
33681SOL     OW 5727  10.705   0.376   6.964  0.5105 -0.2540  0.2852
33681SOL    HW1 5728  10.616   0.339   6.963 -0.2564  1.4731  0.1169
33681SOL    HW2 5729  10.763   0.300   6.958 -0.9453 -1.4466  0.5847
33682SOL     OW 5730   1.793   2.171   0.824  0.0413  0.0081 -0.4030
33682SOL    HW1 5731   1.883   2.201   0.813 -0.1729  0.1034 -2.1385
33682SOL    HW2 5732   1.796   2.113   0.900  1.0368  2.0302  1.2020
33683SOL     OW 5733   8.032  11.025   3.107 -0.1514 -0.5301  0.3686
33683SOL    HW1 5734   8.045  10.945   3.057  2.0965  1.2718 -2.1841
33683SOL    HW2 5735   7.976  11.080   3.051  0.3460  0.6122  0.9583
33684SOL     OW 5736   6.404  10.847   9.504 -0.1807 -0.2200 -0.2533
33684SOL    HW1 5737   6.388  10.843   9.410  1.8345  0.5659 -0.6886
33684SOL    HW2 5738   6.461  10.772   9.522  0.5670  0.4055  0.0542
33685SOL     OW 5739   8.285   2.503   8.498  0.2864 -0.1654  0.0157
33685SOL    HW1 5740   8.354   2.569   8.494 -0.2460  0.3593 -2.2388
33685SOL    HW2 5741   8.293   2.456   8.414 -0.6900 -1.5756  0.6675
33686SOL     OW 5742   6.873   1.069   4.391 -0.0205  0.0217 -0.1322
33686SOL    HW1 5743   6.791   1.114   4.372 -0.6643 -0.9849  0.1800
33686SOL    HW2 5744   6.895   1.097   4.480  0.0654  0.4103 -0.2716
33687SOL     OW 5745   5.858   5.808   2.637  0.6291  0.5098 -0.3473
33687SOL    HW1 5746   5.841   5.727   2.588 -2.5718  0.1811  1.0713
33687SOL    HW2 5747   5.852   5.782   2.729  0.9086  2.1051  0.1509
33688SOL     OW 5748   5.161   3.043  10.918  0.0584 -0.0631 -0.7870
33688SOL    HW1 5749   5.196   2.971  10.865 -0.5138 -0.6868 -0.3280
33688SOL    HW2 5750   5.166   3.011  11.008 -0.9480  0.1483 -0.6466
33689SOL     OW 5751  11.193   7.298   8.745 -0.4167 -0.2577 -0.5123
33689SOL    HW1 5752  11.183   7.378   8.694 -1.7717  0.4647  0.8193
33689SOL    HW2 5753  11.192   7.227   8.680  0.2407  0.7474 -1.6533
33690SOL     OW 5754  10.722   2.306   5.354 -0.5676 -0.4711 -0.0109
33690SOL    HW1 5755  10.721   2.211   5.347  0.9073 -0.5385  0.2886
33690SOL    HW2 5756  10.701   2.324   5.446 -1.3872 -0.4786 -0.1957
33691SOL     OW 5757  11.317   2.214  11.090 -0.1228  0.3489 -0.2433
33691SOL    HW1 5758  11.287   2.231  11.000 -1.2776 -0.0517  0.0528
33691SOL    HW2 5759  11.244   2.243  11.145  0.4227  0.2303  0.5558
33692SOL     OW 5760   3.504   0.144   8.183 -0.1046  0.0436  0.0824
33692SOL    HW1 5761   3.442   0.078   8.153  0.9915 -0.0528 -2.2018
33692SOL    HW2 5762   3.544   0.177   8.103  1.1470  1.7381  1.3315
33693SOL     OW 5763   0.856   6.279   9.620 -0.3029 -0.0019 -0.0303
33693SOL    HW1 5764   0.927   6.215   9.611  0.7954  0.9482  1.3598
33693SOL    HW2 5765   0.870   6.318   9.706 -0.8575  2.1767 -0.8486
33694SOL     OW 5766   5.657   0.209   1.188 -0.1234 -0.9155  0.6364
33694SOL    HW1 5767   5.563   0.217   1.200 -0.2729 -0.3728 -0.7389
33694SOL    HW2 5768   5.668   0.126   1.141  0.0509 -0.8531  0.5644
33695SOL     OW 5769   4.656  10.908   8.530 -0.2301 -0.3872  0.5439
33695SOL    HW1 5770   4.673  10.819   8.561  1.9688 -0.0233  0.5398
33695SOL    HW2 5771   4.730  10.959   8.562 -0.7712  1.1796 -0.5886
33696SOL     OW 5772  10.170   6.678   5.404 -0.1389  0.3030  0.3826
33696SOL    HW1 5773  10.175   6.761   5.357  0.0234  0.2709  0.3439
33696SOL    HW2 5774  10.241   6.682   5.468  0.5464 -0.2409 -0.3219
33697SOL     OW 5775   0.121   0.940   5.256  0.2302  0.1613 -0.0372
33697SOL    HW1 5776   0.115   1.001   5.330  1.4998 -0.0191  0.2490
33697SOL    HW2 5777   0.198   0.970   5.207 -1.3973  1.1517 -2.1325
33698SOL     OW 5778   2.249   6.887   9.038 -0.3178  0.5639  0.2092
33698SOL    HW1 5779   2.237   6.825   9.110  0.8836 -0.4060 -0.3894
33698SOL    HW2 5780   2.162   6.893   8.997 -1.0800  1.3209  1.8411
33699SOL     OW 5781   1.345   7.164   6.117  0.0533 -0.0063  0.0293
33699SOL    HW1 5782   1.272   7.133   6.063  1.4399 -1.7071 -0.9924
33699SOL    HW2 5783   1.330   7.125   6.203 -0.7507  0.4634  0.1033
33700SOL     OW 5784   2.028   9.688   2.905  0.1409  0.0213 -1.0348
33700SOL    HW1 5785   2.041   9.778   2.934  2.2542 -0.7055  0.5401
33700SOL    HW2 5786   1.966   9.652   2.969  1.0931 -0.2454 -0.2321
33701SOL     OW 5787  10.549   8.023   7.175 -0.0208  0.0235  0.7354
33701SOL    HW1 5788  10.506   7.945   7.210 -0.3730 -0.1175  0.0231
33701SOL    HW2 5789  10.520   8.094   7.232 -1.9772  0.0844 -0.2194
33702SOL     OW 5790   1.446   3.713  11.236 -0.2920  0.3456  0.0054
33702SOL    HW1 5791   1.477   3.626  11.213  0.0855  0.6065 -0.4766
33702SOL    HW2 5792   1.416   3.704  11.327  0.1170 -0.1888  0.0936
33703SOL     OW 5793   2.541   7.461   0.557 -0.4207 -0.4486  1.2876
33703SOL    HW1 5794   2.561   7.549   0.588  0.0365 -0.2683  0.5188
33703SOL    HW2 5795   2.612   7.406   0.591  0.2430 -0.1979  0.3455
33704SOL     OW 5796   9.520   8.802   0.306  0.2215  0.2293 -0.1932
33704SOL    HW1 5797   9.472   8.872   0.351 -0.6444 -0.0606 -0.6311
33704SOL    HW2 5798   9.478   8.797   0.219  0.5520 -0.5447 -0.3142
33705SOL     OW 5799   6.941  10.237   7.557  0.4692 -0.5930  0.4781
33705SOL    HW1 5800   6.903  10.173   7.497 -0.8296  0.9231 -0.4081
33705SOL    HW2 5801   7.001  10.187   7.612  0.4602 -2.3234 -1.0119
33706SOL     OW 5802   9.064   7.877  11.811  0.9204  0.1196 -0.1325
33706SOL    HW1 5803   9.052   7.813  11.741  0.7487 -0.1337  0.1294
33706SOL    HW2 5804   9.082   7.959  11.765  1.2179 -0.1296 -0.4676
33707SOL     OW 5805  10.519   7.019   2.120 -0.0568 -0.5813  0.2789
33707SOL    HW1 5806  10.450   7.059   2.067  0.4434 -0.6011 -0.3962
33707SOL    HW2 5807  10.491   7.034   2.210 -1.6631 -1.8019  0.0336
33708SOL     OW 5808   9.450  10.070  10.080  0.2574 -0.5138 -0.0980
33708SOL    HW1 5809   9.510   9.996  10.090  0.6015 -0.0628  1.7088
33708SOL    HW2 5810   9.393  10.065  10.157  0.7311  1.4480  0.4442
33709SOL     OW 5811  10.311  10.411   4.971  0.5257 -0.0619 -0.3420
33709SOL    HW1 5812  10.268  10.355   4.907  0.8529  1.2546 -1.7588
33709SOL    HW2 5813  10.348  10.483   4.920  4.2020 -0.9461  0.7992
33710SOL     OW 5814   2.269   8.025  10.576 -0.1174 -0.1611 -0.3140
33710SOL    HW1 5815   2.362   8.046  10.568 -0.5970  2.2806 -0.0556
33710SOL    HW2 5816   2.232   8.048  10.491 -0.5705 -0.7982 -0.3008
33711SOL     OW 5817   2.680  10.458   3.746 -0.4020 -0.1844  0.5368
33711SOL    HW1 5818   2.673  10.534   3.688  1.4792 -0.1544  0.3014
33711SOL    HW2 5819   2.617  10.476   3.817  0.0728  1.6456  0.5452
33712SOL     OW 5820   3.908   7.667   4.948  0.5012 -0.2475  0.0112
33712SOL    HW1 5821   3.946   7.609   5.014 -0.4214 -0.4478  0.3894
33712SOL    HW2 5822   3.923   7.622   4.865 -0.0135 -0.9392  0.2826
33713SOL     OW 5823   3.842   3.472   4.893 -0.2011 -0.2967  0.5188
33713SOL    HW1 5824   3.926   3.519   4.896  0.8479 -1.9127 -1.3132
33713SOL    HW2 5825   3.856   3.394   4.946  0.4981 -1.9883 -1.9711
33714SOL     OW 5826   9.774   9.791   9.480  0.0669 -0.6703 -0.0449
33714SOL    HW1 5827   9.693   9.830   9.446  0.8538  0.4968 -0.6521
33714SOL    HW2 5828   9.828   9.777   9.403  1.6398  1.4358  0.5968
33715SOL     OW 5829   7.423   3.924   5.822  0.7491  0.1559 -0.0160
33715SOL    HW1 5830   7.410   3.888   5.910 -1.6763  1.9160  0.4488
33715SOL    HW2 5831   7.397   3.853   5.764  2.7462 -1.1711  0.5816
33716SOL     OW 5832   9.066   7.757   9.265  0.4934  0.7141 -0.6196
33716SOL    HW1 5833   9.098   7.703   9.193 -0.9595 -0.5450 -0.3615
33716SOL    HW2 5834   8.971   7.749   9.261  0.3860  0.2328  1.7191
33717SOL     OW 5835  11.437  10.324   3.972  0.1755  0.0563  0.2927
33717SOL    HW1 5836  11.506  10.257   3.970  2.0136  1.8450 -1.4013
33717SOL    HW2 5837  11.373  10.294   3.909  0.6669 -0.4320  0.0170
33718SOL     OW 5838  11.139   5.740  10.993 -0.2803  0.1379 -0.1336
33718SOL    HW1 5839  11.224   5.759  10.952  0.4602 -1.9430  0.3375
33718SOL    HW2 5840  11.076   5.750  10.923  0.7460 -1.4469 -1.3399
33719SOL     OW 5841   8.704  10.670   7.573  0.2582 -0.1148  0.6882
33719SOL    HW1 5842   8.624  10.665   7.521  0.0757  2.1093  0.6589
33719SOL    HW2 5843   8.692  10.746   7.629  3.2362  1.7569 -0.9263
33720SOL     OW 5844   9.796  10.564   8.223  0.2400  0.0347 -0.3702
33720SOL    HW1 5845   9.720  10.547   8.278  1.1420  1.5799  1.4868
33720SOL    HW2 5846   9.868  10.519   8.268  1.3619  2.8762  0.9207
33721SOL     OW 5847  10.588   5.406  10.291  0.3197 -0.1382 -0.7405
33721SOL    HW1 5848  10.605   5.425  10.384  0.3108 -1.4673 -0.4447
33721SOL    HW2 5849  10.653   5.339  10.269 -0.4913 -0.7331 -1.3423
33722SOL     OW 5850  10.535   8.879  10.605 -0.3726  0.1560  0.4507
33722SOL    HW1 5851  10.614   8.863  10.554 -1.3475 -1.1382 -0.7172
33722SOL    HW2 5852  10.518   8.972  10.594 -0.7438 -0.1305 -1.9208
33723SOL     OW 5853   9.970   2.842   6.350  0.1219  0.3424  0.1181
33723SOL    HW1 5854  10.020   2.857   6.430 -0.1666 -0.2548  0.4139
33723SOL    HW2 5855  10.019   2.773   6.304  0.8347  1.3632 -0.7034
33724SOL     OW 5856   0.887   6.529   8.057 -0.0658 -0.5875 -0.0427
33724SOL    HW1 5857   0.808   6.582   8.045 -0.5504 -0.9676  1.1792
33724SOL    HW2 5858   0.950   6.588   8.097 -0.2373 -0.6401  0.3149
33725SOL     OW 5859   7.000   9.600   9.872  0.9705  0.1748 -0.9084
33725SOL    HW1 5860   7.048   9.673   9.911  2.3749 -0.6342 -1.0476
33725SOL    HW2 5861   6.908   9.626   9.877  1.3033  1.2067  0.5892
33726SOL     OW 5862   8.475  11.177   9.484  0.1651 -0.3562 -0.2307
33726SOL    HW1 5863   8.455  11.170   9.391 -0.0828  1.2141 -0.3237
33726SOL    HW2 5864   8.435  11.260   9.511 -0.2362 -1.0412  1.3958
33727SOL     OW 5865   0.881   7.287   5.059  0.2712 -1.1657  0.0688
33727SOL    HW1 5866   0.902   7.262   4.969  0.1119 -1.6675  0.1677
33727SOL    HW2 5867   0.905   7.211   5.112  0.6893 -0.7414  0.4971
33728SOL     OW 5868   5.812   3.030   6.338 -0.1395  0.3050  0.1692
33728SOL    HW1 5869   5.845   2.949   6.298 -0.7928 -0.5190  1.2398
33728SOL    HW2 5870   5.853   3.032   6.425  1.4321  2.1803 -0.5616
33729SOL     OW 5871   8.248   5.141   0.842 -0.1371  0.0787 -0.6428
33729SOL    HW1 5872   8.226   5.064   0.791 -0.8627 -0.4459  0.4442
33729SOL    HW2 5873   8.199   5.132   0.923  0.6383  1.1206 -0.0272
33730SOL     OW 5874   9.333   7.955   0.236  0.2797 -0.2126  0.7781
33730SOL    HW1 5875   9.340   7.913   0.321 -0.6125 -0.3217  0.8166
33730SOL    HW2 5876   9.239   7.956   0.218  0.3782  0.6896  0.2343
33731SOL     OW 5877   1.641   0.386   2.979  0.3694  0.0523 -0.8417
33731SOL    HW1 5878   1.733   0.361   2.971  0.1148 -0.5624 -2.0061
33731SOL    HW2 5879   1.593   0.305   2.964 -0.3818  0.3801 -0.2992
33732SOL     OW 5880   4.847   6.331   1.408  0.3391 -0.0147  0.3310
33732SOL    HW1 5881   4.920   6.357   1.350  0.6913  4.2694  2.3024
33732SOL    HW2 5882   4.890   6.299   1.487  0.1736  1.4548  1.0602
33733SOL     OW 5883   7.973   6.567   4.963  0.5286 -0.2826  0.4911
33733SOL    HW1 5884   7.886   6.607   4.967  0.6561 -0.0092  0.5591
33733SOL    HW2 5885   7.980   6.532   4.874 -0.3192 -1.8289  1.0104
33734SOL     OW 5886   1.943  10.409   0.526  0.3147  0.5146  0.2385
33734SOL    HW1 5887   1.992  10.467   0.468  0.7541 -0.8291 -0.7848
33734SOL    HW2 5888   1.933  10.459   0.607 -0.9102  2.7198 -1.1806
33735SOL     OW 5889   2.014   0.281   1.064 -0.2406 -0.1645 -0.5833
33735SOL    HW1 5890   1.968   0.307   0.984 -0.3727  0.7403 -0.2206
33735SOL    HW2 5891   2.101   0.319   1.054 -1.0319  2.1668  0.8325
33736SOL     OW 5892   2.943   6.471   6.028  0.0870  0.6753 -0.4329
33736SOL    HW1 5893   2.981   6.383   6.020  0.8561  1.0091 -0.5096
33736SOL    HW2 5894   2.854   6.455   6.059  0.2708 -0.1247 -0.2806
33737SOL     OW 5895  10.293   5.638   3.825 -0.3246  0.0102 -0.1627
33737SOL    HW1 5896  10.221   5.648   3.762  1.0835 -0.5344 -1.9275
33737SOL    HW2 5897  10.372   5.658   3.775  1.0219 -2.2148  0.8918
33738SOL     OW 5898  10.007   7.632   4.487  0.0872  0.2919 -0.2377
33738SOL    HW1 5899   9.959   7.684   4.552 -0.5868 -0.1561 -0.3679
33738SOL    HW2 5900  10.098   7.662   4.495  0.0730  0.0408  1.1127
33739SOL     OW 5901   1.120  10.679   0.609 -0.3002  0.6815 -0.2624
33739SOL    HW1 5902   1.118  10.686   0.513  0.0344  0.2429 -0.3062
33739SOL    HW2 5903   1.060  10.747   0.639  0.4111  1.5492 -0.7456
33740SOL     OW 5904  10.219   6.723   2.995 -0.1230  0.5489 -0.1604
33740SOL    HW1 5905  10.302   6.696   2.955 -1.1856 -2.2722 -0.7175
33740SOL    HW2 5906  10.233   6.709   3.089  0.2755  0.8717 -0.1666
33741SOL     OW 5907   5.042   5.421   2.520 -0.2693 -0.4529 -0.8610
33741SOL    HW1 5908   5.088   5.470   2.452 -0.9263  0.5430 -0.6059
33741SOL    HW2 5909   4.954   5.458   2.522 -1.0382 -2.1485 -1.1585
33742SOL     OW 5910   5.609   3.512  11.179 -0.2997  0.5508 -0.7075
33742SOL    HW1 5911   5.649   3.570  11.114 -0.0289  0.6321 -0.4694
33742SOL    HW2 5912   5.577   3.437  11.128  1.2891 -0.1389 -0.7633
33743SOL     OW 5913   8.229   5.978   4.478 -0.3017 -0.6050  0.2240
33743SOL    HW1 5914   8.165   6.045   4.505 -1.4710 -1.1093 -1.1637
33743SOL    HW2 5915   8.279   6.020   4.409 -2.0229 -1.5702 -1.7073
33744SOL     OW 5916   1.697   7.673   2.863 -0.3554  0.2667 -0.6437
33744SOL    HW1 5917   1.704   7.675   2.768  0.7176 -1.6746 -0.6648
33744SOL    HW2 5918   1.745   7.750   2.892  1.8221 -0.6249 -1.6382
33745SOL     OW 5919   1.507  10.381   7.343  0.6747  0.2624 -0.1238
33745SOL    HW1 5920   1.588  10.362   7.296 -0.3498 -1.8939 -1.1785
33745SOL    HW2 5921   1.452  10.425   7.279  0.3640  0.0870  0.0218
33746SOL     OW 5922   6.922   4.253   8.281  0.7472 -0.1000  0.3409
33746SOL    HW1 5923   6.904   4.174   8.229  0.4621 -0.1520  0.5166
33746SOL    HW2 5924   7.015   4.271   8.265  0.4631  0.3987 -0.9121
33747SOL     OW 5925   3.149   1.416   9.672 -0.0647 -0.2396  0.1118
33747SOL    HW1 5926   3.211   1.485   9.695 -0.0621  0.5234 -1.9492
33747SOL    HW2 5927   3.064   1.449   9.701  0.0856  0.1206  0.1472
33748SOL     OW 5928   5.842   7.610   0.599 -0.6877 -0.1367  0.4927
33748SOL    HW1 5929   5.877   7.671   0.665  0.9070  0.3231 -0.7189
33748SOL    HW2 5930   5.896   7.531   0.609 -0.7945 -0.2614  0.0988
33749SOL     OW 5931   7.568   5.060   4.337 -0.3600 -0.9519 -0.2020
33749SOL    HW1 5932   7.605   5.133   4.385 -0.3658  0.4786 -2.2296
33749SOL    HW2 5933   7.486   5.040   4.382  0.3801 -0.7542  1.2870
33750SOL     OW 5934  11.383  11.859   6.206 -0.3536 -0.4930  0.2344
33750SOL    HW1 5935  11.414  11.949   6.218  1.3953 -1.1072  0.6872
33750SOL    HW2 5936  11.306  11.867   6.150 -0.1698  1.2710  0.1820
33751SOL     OW 5937  10.457   5.284   7.298  0.1444 -0.2515 -0.1932
33751SOL    HW1 5938  10.456   5.376   7.323  1.4105 -0.1936 -0.2825
33751SOL    HW2 5939  10.488   5.238   7.376 -0.5437 -0.6071 -0.1295
33752SOL     OW 5940   8.407   6.230   9.934  0.2149 -0.1426 -0.3402
33752SOL    HW1 5941   8.417   6.316   9.974 -0.5829  0.2792 -1.0069
33752SOL    HW2 5942   8.485   6.218   9.881  1.7765 -1.1242  2.0066
33753SOL     OW 5943  10.744   6.768   5.937  0.0793  0.0732 -0.2735
33753SOL    HW1 5944  10.827   6.799   5.974 -0.0432 -1.8510  1.7626
33753SOL    HW2 5945  10.688   6.846   5.938  1.5123  1.1683 -0.7505
33754SOL     OW 5946  11.315   3.161   8.047  0.2518  0.3553 -0.1984
33754SOL    HW1 5947  11.374   3.089   8.024  0.8062  0.6387  0.3026
33754SOL    HW2 5948  11.340   3.232   7.988 -0.7952 -0.0771 -1.2064
33755SOL     OW 5949   5.810   8.021  10.442 -0.1225  0.1718  0.5144
33755SOL    HW1 5950   5.762   7.939  10.432  0.6914 -0.0358 -3.0890
33755SOL    HW2 5951   5.818   8.033  10.536 -2.7091 -2.3928  1.2060
33756SOL     OW 5952   8.370  11.881   5.336 -0.0685 -0.0312 -0.0586
33756SOL    HW1 5953   8.296  11.820   5.344  1.5267 -1.9190  1.8893
33756SOL    HW2 5954   8.426  11.842   5.269 -0.5310  1.0968 -1.1338
33757SOL     OW 5955  10.639  11.397   1.031  0.2068  0.6167  0.1735
33757SOL    HW1 5956  10.724  11.353   1.027 -0.2694 -0.2612 -1.2704
33757SOL    HW2 5957  10.592  11.354   1.103  0.3397 -0.1545 -0.1898
33758SOL     OW 5958   7.208   9.024   8.277  0.3515 -0.0063 -0.9694
33758SOL    HW1 5959   7.272   9.025   8.206  1.2384  2.2589 -0.2201
33758SOL    HW2 5960   7.260   9.045   8.355 -1.0737  0.3306 -0.0932
33759SOL     OW 5961   6.288   8.987   6.090  0.0451  0.0188 -0.3423
33759SOL    HW1 5962   6.293   9.073   6.048 -3.0719 -0.0347 -1.0224
33759SOL    HW2 5963   6.295   9.006   6.184  0.5730  0.8607 -0.5413
33760SOL     OW 5964   1.474   4.912   3.324  0.1415 -0.8644  0.1807
33760SOL    HW1 5965   1.448   4.851   3.255  1.0785 -0.5233 -0.4864
33760SOL    HW2 5966   1.502   4.856   3.396 -0.7855 -1.2244  0.2742
33761SOL     OW 5967   4.502   0.371   2.850  0.5015 -0.3461  0.3090
33761SOL    HW1 5968   4.468   0.335   2.768 -0.9518  0.3551  0.5682
33761SOL    HW2 5969   4.511   0.465   2.833  0.2507 -0.2044  0.9292
33762SOL     OW 5970   3.039   5.458   8.184  0.5077  0.4311  0.3526
33762SOL    HW1 5971   3.124   5.501   8.180  0.5142  0.3281 -0.7555
33762SOL    HW2 5972   3.004   5.464   8.095 -0.2291 -0.3631  0.5745
33763SOL     OW 5973   8.761   6.561   2.786 -0.0192  0.0064 -0.2273
33763SOL    HW1 5974   8.743   6.633   2.726 -1.2861  0.3497  0.5289
33763SOL    HW2 5975   8.750   6.598   2.873  0.9532 -0.6976  0.2192
33764SOL     OW 5976   9.038  10.439   2.860 -0.6357 -0.4284  0.5167
33764SOL    HW1 5977   8.994  10.522   2.842  0.0153 -0.4177 -1.3048
33764SOL    HW2 5978   9.043  10.396   2.775  0.5361 -1.5813  1.1340
33765SOL     OW 5979   1.637   6.029  10.272  0.0267 -0.3995  0.1825
33765SOL    HW1 5980   1.635   6.032  10.367 -2.2640 -0.1418  0.1923
33765SOL    HW2 5981   1.730   6.020  10.249  0.6226 -0.3394  2.4084
33766SOL     OW 5982   4.593   4.409   4.253  0.3648 -0.5393  0.0808
33766SOL    HW1 5983   4.596   4.497   4.291  2.1939 -0.0614 -1.0294
33766SOL    HW2 5984   4.532   4.361   4.309 -0.3350  1.2899  0.9927
33767SOL     OW 5985   7.655   2.772   3.159  0.6085  0.3092  0.2622
33767SOL    HW1 5986   7.616   2.850   3.199 -2.3450 -0.6118 -0.6023
33767SOL    HW2 5987   7.642   2.784   3.065  0.1252 -1.1977  0.1126
33768SOL     OW 5988   7.990   4.012   7.031 -0.1814  0.1302 -0.2541
33768SOL    HW1 5989   8.008   3.948   7.100  1.2464 -1.5868 -2.0987
33768SOL    HW2 5990   7.914   3.976   6.985 -0.9545  1.1260  0.2006
33769SOL     OW 5991   9.154   4.968   3.201  0.0356  0.2646  0.2407
33769SOL    HW1 5992   9.206   4.900   3.157  0.9147  1.0587  0.0280
33769SOL    HW2 5993   9.219   5.026   3.241 -0.6245  1.7648 -0.7517
33770SOL     OW 5994  10.480   9.684   4.010  0.5266 -0.1772  0.1942
33770SOL    HW1 5995  10.524   9.718   4.088  0.9182  1.3205 -0.6436
33770SOL    HW2 5996  10.433   9.759   3.974 -1.4482 -1.3619  0.1575
33771SOL     OW 5997  11.043   2.499   4.893 -0.5325 -0.5285 -0.3087
33771SOL    HW1 5998  11.057   2.568   4.828 -0.7253 -0.4613 -0.2800
33771SOL    HW2 5999  11.082   2.420   4.854  1.1401 -0.0701  0.3348
33772SOL     OW 6000   9.645   8.918  11.061  0.2223  0.2696  0.2448
33772SOL    HW1 6001   9.583   8.848  11.039 -0.4675  0.8153  0.4083
33772SOL    HW2 6002   9.590   8.990  11.090  0.9524  0.7177  0.5424
33773SOL     OW 6003   6.501   7.128   6.954  0.4140 -0.2164  0.7914
33773SOL    HW1 6004   6.557   7.205   6.955 -1.2567  1.0545  1.0227
33773SOL    HW2 6005   6.502   7.096   7.045  0.0646  0.3438  0.9955
33774SOL     OW 6006   2.859   8.813   9.078  0.2630  0.1565  0.4582
33774SOL    HW1 6007   2.775   8.775   9.102  0.0155 -0.6985 -1.5338
33774SOL    HW2 6008   2.837   8.883   9.017  0.9864 -0.1089 -0.1261
33775SOL     OW 6009   4.119   4.495  10.084 -0.3996  0.1485 -0.0105
33775SOL    HW1 6010   4.057   4.526  10.017 -0.9185 -0.7312  0.0535
33775SOL    HW2 6011   4.066   4.485  10.163 -0.9329 -3.4397 -0.6443
33776SOL     OW 6012   6.092   0.348  10.442 -0.3223  0.2488 -0.3421
33776SOL    HW1 6013   6.100   0.342  10.347 -1.0170 -0.2828 -0.3734
33776SOL    HW2 6014   6.121   0.437  10.463 -0.9327  0.6531 -1.1422
33777SOL     OW 6015   4.142   5.907  11.183 -0.6696 -0.2125  0.4155
33777SOL    HW1 6016   4.129   5.939  11.094 -0.2612  1.2990  0.8760
33777SOL    HW2 6017   4.188   5.823  11.171  0.1651  0.3858 -0.7659
33778SOL     OW 6018   8.944   2.739   2.637  0.4694 -0.5824 -0.2035
33778SOL    HW1 6019   8.912   2.674   2.700  0.5716 -0.6477 -0.2182
33778SOL    HW2 6020   9.031   2.762   2.669 -0.4162  1.2287  1.0873
33779SOL     OW 6021  11.912   7.054  11.991  0.2805 -0.4256 -0.3010
33779SOL    HW1 6022  11.849   7.117  11.954 -0.1389 -0.0140  1.0793
33779SOL    HW2 6023  11.983   7.052  11.927 -1.2685 -1.1853 -2.1128
33780SOL     OW 6024  10.595   1.548  11.277  0.0361  0.3767 -0.2274
33780SOL    HW1 6025  10.632   1.470  11.319 -0.5446 -0.9316 -2.0239
33780SOL    HW2 6026  10.630   1.547  11.189  0.8793  2.8113 -0.0012
33781SOL     OW 6027  11.478   5.111   0.977  0.2372 -0.1814  0.2625
33781SOL    HW1 6028  11.419   5.065   0.918  1.5607 -0.8771 -0.5624
33781SOL    HW2 6029  11.470   5.065   1.061 -1.5331  0.7157  0.6362
33782SOL     OW 6030   0.935   1.749  11.110 -0.4356 -0.2137  0.3996
33782SOL    HW1 6031   1.012   1.753  11.167 -1.0722  0.0590  1.2724
33782SOL    HW2 6032   0.970   1.752  11.021  0.4708  2.0940  0.7798
33783SOL     OW 6033  10.808   8.239   3.849  0.3380 -0.3972 -0.1716
33783SOL    HW1 6034  10.832   8.188   3.926  0.2883 -3.0554 -1.8048
33783SOL    HW2 6035  10.885   8.237   3.793 -0.0077  0.5314 -0.7151
33784SOL     OW 6036   8.769   5.612   2.310 -0.5014  0.6961  0.0651
33784SOL    HW1 6037   8.821   5.589   2.232  0.7263  2.6098  0.2600
33784SOL    HW2 6038   8.756   5.528   2.355 -0.6605 -0.3568 -1.8280
33785SOL     OW 6039   4.406   9.283   6.400 -0.5482  0.4725 -0.3470
33785SOL    HW1 6040   4.348   9.290   6.324 -0.2653  0.2140 -0.5907
33785SOL    HW2 6041   4.490   9.254   6.363 -0.5254 -0.0721  0.1175
33786SOL     OW 6042   9.459  10.748   9.131  0.5779 -0.3108 -0.0187
33786SOL    HW1 6043   9.480  10.673   9.187 -0.4674 -1.0256 -0.5528
33786SOL    HW2 6044   9.378  10.783   9.167  1.7064  1.4105  1.0179
33787SOL     OW 6045   8.849  10.883   1.559  0.0782  0.5749 -0.1271
33787SOL    HW1 6046   8.781  10.915   1.618 -2.7133 -2.1592 -1.5716
33787SOL    HW2 6047   8.886  10.807   1.604  0.1695  0.3640 -0.5533
33788SOL     OW 6048   3.042  10.251  10.604  0.3616 -0.6488 -0.2192
33788SOL    HW1 6049   3.131  10.272  10.633  0.4648  0.1308 -1.0496
33788SOL    HW2 6050   2.991  10.248  10.684  0.8947  0.1267  0.1661
33789SOL     OW 6051   8.007   8.138  10.032  0.0120 -0.5845  0.4926
33789SOL    HW1 6052   8.049   8.094  10.106  0.3543 -3.0370 -1.0528
33789SOL    HW2 6053   8.069   8.206  10.006  0.5411 -0.6390  1.5734
33790SOL     OW 6054  11.039   4.645   4.907 -0.5057  0.0658 -0.5090
33790SOL    HW1 6055  10.971   4.712   4.900 -0.3239  0.2627 -0.3644
33790SOL    HW2 6056  11.001   4.580   4.967 -1.5284 -0.9824 -2.1981
33791SOL     OW 6057   2.634   2.160   1.494  0.0118  0.1593 -0.2177
33791SOL    HW1 6058   2.724   2.175   1.465 -0.1408  1.4443 -0.1131
33791SOL    HW2 6059   2.595   2.248   1.498 -2.0358 -0.4757 -2.7663
33792SOL     OW 6060   0.351   3.294  10.880  0.2287 -0.1961  0.6315
33792SOL    HW1 6061   0.344   3.316  10.787  1.8196 -0.3743  0.4319
33792SOL    HW2 6062   0.261   3.279  10.908 -0.2382 -0.9488 -1.0869
33793SOL     OW 6063  10.364   8.105   8.570 -0.2415 -0.1318 -0.5092
33793SOL    HW1 6064  10.344   8.187   8.614  2.6260 -0.1924  1.1629
33793SOL    HW2 6065  10.326   8.038   8.628 -2.3124 -0.0941 -1.7182
33794SOL     OW 6066   1.729   8.989   7.983 -0.1158 -0.3863 -0.0257
33794SOL    HW1 6067   1.821   9.007   8.001 -0.1216 -0.7002  0.3253
33794SOL    HW2 6068   1.681   9.054   8.035 -0.0687  1.4185 -2.0798
33795SOL     OW 6069  10.412   8.131   7.785 -0.2367  0.2817 -0.0623
33795SOL    HW1 6070  10.504   8.152   7.799 -0.2552  0.4354 -0.1765
33795SOL    HW2 6071  10.413   8.041   7.752 -0.1463  0.1836  0.2081
33796SOL     OW 6072   4.188  11.864   4.914  0.4101 -0.0993 -0.2185
33796SOL    HW1 6073   4.171  11.791   4.974  1.9733 -1.1179 -0.9316
33796SOL    HW2 6074   4.150  11.940   4.957 -2.9415 -1.5469 -0.2821
33797SOL     OW 6075   7.544   5.637  11.758  0.0721  0.1938  0.3302
33797SOL    HW1 6076   7.607   5.669  11.822  1.0773 -0.0655 -0.5160
33797SOL    HW2 6077   7.493   5.572  11.807  0.2337  0.6358  1.1085
33798SOL     OW 6078   8.975   4.946   8.370 -0.3694  0.2797 -0.4233
33798SOL    HW1 6079   8.993   5.008   8.299 -0.1726  1.5938  0.7159
33798SOL    HW2 6080   9.058   4.903   8.387 -0.5642 -0.4977 -1.3902
33799SOL     OW 6081  10.898  11.817  10.765 -0.2573 -0.4547  0.4636
33799SOL    HW1 6082  10.981  11.865  10.766 -0.1356 -0.6577  1.1969
33799SOL    HW2 6083  10.870  11.818  10.857 -1.7718  0.8429  0.0406
33800SOL     OW 6084   9.033   1.936   9.989 -0.1177  0.3819  0.1530
33800SOL    HW1 6085   8.980   1.998   9.938  1.2306  1.6494  0.2420
33800SOL    HW2 6086   9.089   1.893   9.924 -1.3344 -1.0981  0.0339
33801SOL     OW 6087   3.533  11.186  10.155 -0.2676  0.6301 -0.7057
33801SOL    HW1 6088   3.549  11.157  10.065  1.1669  1.3541 -0.7025
33801SOL    HW2 6089   3.579  11.269  10.162  0.6104  0.0375  1.0352
33802SOL     OW 6090   3.691   6.903   4.437 -0.1717  0.4815 -0.3512
33802SOL    HW1 6091   3.638   6.904   4.357 -0.9510 -0.8392  0.1243
33802SOL    HW2 6092   3.642   6.959   4.498  0.2338  1.1925 -0.6673
33803SOL     OW 6093   3.455   8.068   5.036  0.3523  0.3636 -0.3691
33803SOL    HW1 6094   3.408   7.998   4.992  1.9319  0.4543 -2.3582
33803SOL    HW2 6095   3.480   8.032   5.121 -1.3867 -0.4049 -0.1522
33804SOL     OW 6096   9.887   3.035   8.965 -0.1774 -0.2491  0.9909
33804SOL    HW1 6097   9.871   3.063   8.875  0.8787  1.5536  1.3138
33804SOL    HW2 6098   9.874   3.114   9.018  1.7459 -0.6140  2.1026
33805SOL     OW 6099   1.433   7.632  11.533 -0.6458 -0.4799  0.5608
33805SOL    HW1 6100   1.383   7.683  11.470 -0.1243 -0.5055  0.1198
33805SOL    HW2 6101   1.479   7.697  11.587  1.0141 -0.4576 -0.8004
33806SOL     OW 6102   9.349   3.390   1.703 -0.4352 -0.7037 -0.9293
33806SOL    HW1 6103   9.382   3.472   1.667  1.4062 -1.5191 -1.2170
33806SOL    HW2 6104   9.256   3.389   1.682 -0.5111  1.3527 -0.7999
33807SOL     OW 6105   0.881   1.718   1.758 -0.3079  0.5141  0.0850
33807SOL    HW1 6106   0.936   1.792   1.785  1.8012 -1.1016  0.4651
33807SOL    HW2 6107   0.940   1.642   1.761 -2.5919 -1.3447  0.5895
33808SOL     OW 6108   1.971   7.040   3.654 -0.1253 -0.0048  0.0349
33808SOL    HW1 6109   1.880   7.028   3.680 -0.2388 -1.5883 -0.9307
33808SOL    HW2 6110   1.967   7.078   3.566  0.2137  2.2833  0.9512
33809SOL     OW 6111   3.394   5.259  10.463 -0.1927 -0.3978  0.5684
33809SOL    HW1 6112   3.410   5.317  10.389 -0.8901 -2.3228 -1.2043
33809SOL    HW2 6113   3.391   5.317  10.539 -1.4390  1.9622 -1.1350
33810SOL     OW 6114   3.565  11.291   2.552 -0.8827  0.4639 -0.2902
33810SOL    HW1 6115   3.542  11.357   2.618  1.2830  0.8328  0.1523
33810SOL    HW2 6116   3.657  11.307   2.533  0.2016 -3.3190  0.9042
33811SOL     OW 6117   9.705  11.143   2.736 -0.1685  0.0775  0.4517
33811SOL    HW1 6118   9.681  11.074   2.798 -0.4812  0.9158  1.2981
33811SOL    HW2 6119   9.686  11.224   2.783 -0.0789  0.7397 -0.6260
33812SOL     OW 6120   5.341   7.345   1.579 -0.1424 -0.4030  0.0058
33812SOL    HW1 6121   5.383   7.429   1.596  0.9612 -0.9620  0.1772
33812SOL    HW2 6122   5.316   7.349   1.487 -0.8471  0.4167  0.2247
33813SOL     OW 6123   2.092   5.354   7.770 -0.4311 -0.1587  0.1097
33813SOL    HW1 6124   2.130   5.408   7.701  1.1227  0.5922  1.4607
33813SOL    HW2 6125   2.115   5.265   7.745  2.3954  0.2442  0.8145
33814SOL     OW 6126   4.358   0.251   8.554  0.2537  0.2842  0.1471
33814SOL    HW1 6127   4.344   0.334   8.600  0.4200 -0.4445  1.5705
33814SOL    HW2 6128   4.448   0.226   8.577  0.0552 -0.5044  0.0786
33815SOL     OW 6129   5.993   4.157  10.293 -0.1414 -0.2207 -0.0826
33815SOL    HW1 6130   5.897   4.158  10.288 -0.1468 -0.3988 -0.0242
33815SOL    HW2 6131   6.017   4.248  10.305 -0.4124 -0.3356  1.6564
33816SOL     OW 6132   0.724   3.949   1.139  0.1619  0.5928  0.1846
33816SOL    HW1 6133   0.679   3.947   1.055 -1.0744  1.1054  0.8050
33816SOL    HW2 6134   0.670   4.006   1.194  0.2653 -0.7242  1.7112
33817SOL     OW 6135   4.832  10.298   6.027  0.2527 -0.6153 -0.6424
33817SOL    HW1 6136   4.807  10.216   5.983  0.3228 -0.6670 -0.5861
33817SOL    HW2 6137   4.749  10.341   6.045  0.1427 -1.2293  0.4016
33818SOL     OW 6138   4.206   6.476   8.823 -0.7580  0.3800 -0.1229
33818SOL    HW1 6139   4.165   6.560   8.802 -1.3881 -0.2700 -1.6628
33818SOL    HW2 6140   4.148   6.437   8.888 -1.3659  0.4324 -0.6286
33819SOL     OW 6141   0.288   6.715   8.653 -0.4053  0.0543  0.0203
33819SOL    HW1 6142   0.382   6.713   8.636 -0.6905  0.6824 -1.7239
33819SOL    HW2 6143   0.275   6.793   8.706  0.0899 -0.2860  0.6728
33820SOL     OW 6144   9.390   4.943   5.772  0.4794  0.0109  0.2182
33820SOL    HW1 6145   9.475   4.965   5.734  1.5837 -2.7271  0.8419
33820SOL    HW2 6146   9.384   4.997   5.851  1.8502 -0.0696  0.3944
33821SOL     OW 6147   4.858   9.998   5.358 -0.1135  0.3637 -0.0649
33821SOL    HW1 6148   4.846  10.074   5.414 -1.9145  1.5765 -1.9868
33821SOL    HW2 6149   4.770   9.974   5.329  0.7041 -0.3041 -2.2373
33822SOL     OW 6150  11.271  10.188   4.600  0.3004  0.1627 -0.4457
33822SOL    HW1 6151  11.239  10.252   4.536 -1.1085 -0.7670 -0.7239
33822SOL    HW2 6152  11.358  10.165   4.570  1.1698  2.5045  0.1018
33823SOL     OW 6153   8.689   4.593   3.270  0.5174 -0.0166 -0.1385
33823SOL    HW1 6154   8.775   4.602   3.228  1.2081  0.9429  1.4231
33823SOL    HW2 6155   8.675   4.676   3.315 -0.7987 -0.5273  0.4412
33824SOL     OW 6156   9.579   7.698  11.030 -0.1695  0.2145  0.7694
33824SOL    HW1 6157   9.513   7.704  10.961 -0.2899 -2.4061  0.5522
33824SOL    HW2 6158   9.537   7.646  11.099  0.7347  0.8443  1.8223
33825SOL     OW 6159   2.245  10.699  10.048 -0.0939  0.7946 -0.0157
33825SOL    HW1 6160   2.238  10.616  10.001  2.4173  0.9777 -0.9009
33825SOL    HW2 6161   2.222  10.679  10.138 -0.2363 -0.7051 -0.3703
33826SOL     OW 6162   4.181  10.895   1.785 -0.1325 -0.3740 -1.3223
33826SOL    HW1 6163   4.271  10.898   1.818 -0.2139  0.7624 -1.1606
33826SOL    HW2 6164   4.133  10.956   1.841 -1.0397 -1.0364 -1.3446
33827SOL     OW 6165  11.845   7.559   5.354  0.1400  0.8455  0.3617
33827SOL    HW1 6166  11.936   7.548   5.326  0.1021 -1.8011  0.9648
33827SOL    HW2 6167  11.845   7.529   5.445 -1.6878 -1.4049 -0.2974
33828SOL     OW 6168   3.950   6.412   2.235 -0.6263 -0.1142  0.4547
33828SOL    HW1 6169   4.044   6.414   2.253 -1.2544  0.1739  4.8521
33828SOL    HW2 6170   3.931   6.321   2.214  0.6016 -0.1214 -0.7591
33829SOL     OW 6171   6.346   6.112  10.763 -0.4153 -0.2262  0.5392
33829SOL    HW1 6172   6.436   6.106  10.797 -0.5916 -2.0057  0.7637
33829SOL    HW2 6173   6.322   6.204  10.777  1.3805  0.3141  0.4070
33830SOL     OW 6174   6.325   8.626  11.551 -0.4506 -0.6085 -1.0889
33830SOL    HW1 6175   6.362   8.585  11.473  0.4355 -0.2873 -0.8521
33830SOL    HW2 6176   6.315   8.554  11.613  1.9081 -0.4013 -0.3668
33831SOL     OW 6177  11.410   7.220   8.923 -0.1907 -0.0086 -0.3985
33831SOL    HW1 6178  11.381   7.203   9.013  2.8953 -1.3999  0.4872
33831SOL    HW2 6179  11.375   7.147   8.872 -1.5385  0.5167 -0.2643
33832SOL     OW 6180   4.482   5.808   0.306 -0.4029  0.1117  0.0181
33832SOL    HW1 6181   4.508   5.736   0.248 -1.3432 -0.7572  0.6330
33832SOL    HW2 6182   4.391   5.790   0.328  0.3420 -0.5960  3.1139
33833SOL     OW 6183   8.258   8.886   3.708  0.6240  0.1637  0.4488
33833SOL    HW1 6184   8.312   8.917   3.781  1.6591  0.3893 -0.3955
33833SOL    HW2 6185   8.297   8.927   3.631 -0.3305 -0.2450 -0.2568
33834SOL     OW 6186   6.787  10.938   7.385 -0.0564 -0.3466 -0.2787
33834SOL    HW1 6187   6.711  10.902   7.338 -0.8421  1.3580 -0.3942
33834SOL    HW2 6188   6.760  10.941   7.476 -0.5094  1.0662 -0.4282
33835SOL     OW 6189   6.347   8.469   4.321 -0.0959 -0.0693 -0.2714
33835SOL    HW1 6190   6.319   8.552   4.360 -0.5027 -0.2185 -0.2427
33835SOL    HW2 6191   6.394   8.424   4.392 -1.7676 -0.8113  0.4039
33836SOL     OW 6192   7.461   1.702   1.114  0.5155  0.0130  0.1205
33836SOL    HW1 6193   7.549   1.677   1.143  0.7778  1.3062  0.4766
33836SOL    HW2 6194   7.410   1.621   1.120  1.3750 -0.4714  1.1138
33837SOL     OW 6195   7.808   8.519  11.904  0.1947  0.2411  0.1384
33837SOL    HW1 6196   7.897   8.548  11.924  0.7649 -1.3426  0.0355
33837SOL    HW2 6197   7.814   8.482  11.816 -0.4207 -0.4526  0.3745
33838SOL     OW 6198   1.812   1.723   8.292 -0.0050  0.1673 -0.0841
33838SOL    HW1 6199   1.859   1.641   8.307 -1.0365 -0.7082 -1.3887
33838SOL    HW2 6200   1.841   1.752   8.206 -0.3708  0.6518 -0.0473
33839SOL     OW 6201   4.574   5.371   0.751  0.4107 -0.5402  0.2737
33839SOL    HW1 6202   4.513   5.321   0.697  1.9173  0.1466 -2.2304
33839SOL    HW2 6203   4.660   5.336   0.729  1.1757  0.3986  1.6041
33840SOL     OW 6204   7.176   7.972   4.863  0.6156  0.1930  0.3544
33840SOL    HW1 6205   7.133   7.888   4.878  1.0293 -0.0598  0.1151
33840SOL    HW2 6206   7.106   8.037   4.876  0.7123 -0.0411  2.5445
33841SOL     OW 6207   5.418   2.883   3.575  0.5558  0.6900 -0.2644
33841SOL    HW1 6208   5.497   2.831   3.561 -1.2836 -2.3461 -0.2871
33841SOL    HW2 6209   5.361   2.862   3.502 -0.9186  1.5135  0.5825
33842SOL     OW 6210   8.552   2.748   0.664 -0.2804  0.1124  0.2396
33842SOL    HW1 6211   8.459   2.744   0.640 -0.2154  0.8253 -0.1517
33842SOL    HW2 6212   8.599   2.751   0.581  0.1485 -1.0188  0.4216
33843SOL     OW 6213   7.077   3.003  11.301 -0.0324  0.0422 -0.1049
33843SOL    HW1 6214   6.986   3.031  11.312  0.0839  0.7868 -0.9704
33843SOL    HW2 6215   7.128   3.068  11.349  0.0881 -0.0006 -0.1737
33844SOL     OW 6216   7.544  11.855   4.898  0.4374  0.2492  0.0415
33844SOL    HW1 6217   7.630  11.851   4.940  0.4873  0.6457 -0.0166
33844SOL    HW2 6218   7.486  11.806   4.956  1.3147 -2.9460 -1.4919
33845SOL     OW 6219   3.454   0.922   7.858  0.2855 -0.0157  0.1742
33845SOL    HW1 6220   3.512   0.961   7.924 -0.5954  0.5045  0.6520
33845SOL    HW2 6221   3.513   0.873   7.801  1.0329 -0.7071  1.5027
33846SOL     OW 6222   5.172   3.037   5.991 -0.3310 -0.0794 -0.3137
33846SOL    HW1 6223   5.221   2.962   5.959 -0.7087 -0.1234 -0.7981
33846SOL    HW2 6224   5.128   3.005   6.070 -0.8072 -0.4868 -0.7354
33847SOL     OW 6225   3.950   5.312   3.293  0.4946 -0.1114 -0.1977
33847SOL    HW1 6226   3.907   5.234   3.326  1.5398 -0.3473  0.6972
33847SOL    HW2 6227   3.888   5.350   3.231 -0.9293 -0.4792  0.9428
33848SOL     OW 6228   2.377  11.067   5.144  0.2564 -0.2270 -0.4779
33848SOL    HW1 6229   2.337  10.981   5.160  3.7032 -1.6662  1.6100
33848SOL    HW2 6230   2.379  11.109   5.230  1.9577  0.3052 -0.7432
33849SOL     OW 6231   2.585   8.373   3.381  0.5145  0.4347 -0.4370
33849SOL    HW1 6232   2.679   8.357   3.380  0.6327  1.0777 -1.1074
33849SOL    HW2 6233   2.577   8.468   3.385 -0.0890  0.4316 -1.2477
33850SOL     OW 6234   4.323  11.693   7.546 -0.0740  0.1393  0.1452
33850SOL    HW1 6235   4.392  11.630   7.567 -1.5226 -1.0684  1.5460
33850SOL    HW2 6236   4.249  11.639   7.519 -0.9633  1.3094  0.1675
33851SOL     OW 6237  11.804   0.151   2.769 -0.1692  0.0776 -0.5022
33851SOL    HW1 6238  11.827   0.237   2.736  0.8273  0.3187  0.7698
33851SOL    HW2 6239  11.793   0.097   2.690  0.5339  1.0290 -1.2684
33852SOL     OW 6240  10.004   6.274   5.353  0.1487 -0.2877  0.0655
33852SOL    HW1 6241   9.958   6.323   5.284  1.2929  0.3837 -0.2513
33852SOL    HW2 6242  10.019   6.338   5.422  1.5019 -0.2056 -0.2765
33853SOL     OW 6243   7.942   5.630   1.715 -0.4243 -0.8041  0.7093
33853SOL    HW1 6244   7.932   5.540   1.743  1.0347 -1.1669  0.1632
33853SOL    HW2 6245   8.031   5.635   1.679 -1.2236  0.2659 -1.3484
33854SOL     OW 6246   9.609   7.470   8.192  0.0241  0.4662 -0.0900
33854SOL    HW1 6247   9.534   7.449   8.137  1.9403  0.8190 -3.0456
33854SOL    HW2 6248   9.638   7.557   8.162  2.5152 -0.3243 -0.1918
33855SOL     OW 6249   6.445  11.885   4.283  0.4718  0.3922 -0.3651
33855SOL    HW1 6250   6.468  11.812   4.225 -1.4843 -0.6814  0.1232
33855SOL    HW2 6251   6.503  11.874   4.359 -0.0893 -0.9680 -0.0951
33856SOL     OW 6252  10.582   7.231   3.444  0.2163 -0.2565  0.4167
33856SOL    HW1 6253  10.587   7.213   3.350 -3.0465 -0.3728  0.1384
33856SOL    HW2 6254  10.634   7.310   3.456 -0.4429  0.6019 -1.7861
33857SOL     OW 6255  11.386   2.390   5.315 -0.1419  1.0556  0.1871
33857SOL    HW1 6256  11.457   2.370   5.255  1.2339  1.0710  1.7426
33857SOL    HW2 6257  11.324   2.441   5.262 -0.5612 -1.5229 -2.0408
33858SOL     OW 6258   6.214   4.927   6.559 -0.0299 -0.1291 -0.2157
33858SOL    HW1 6259   6.308   4.937   6.544 -0.0623  0.1955 -0.2040
33858SOL    HW2 6260   6.208   4.857   6.624  0.2561  0.5697  0.5737
33859SOL     OW 6261  11.952   8.390   7.498  0.2108  0.0559 -0.1009
33859SOL    HW1 6262  11.872   8.344   7.523 -0.6457  0.7712 -1.4091
33859SOL    HW2 6263  11.988   8.423   7.580 -1.0001 -0.0416  0.4878
33860SOL     OW 6264   1.844   8.006  10.680 -0.2477  0.5015 -0.5900
33860SOL    HW1 6265   1.913   7.955  10.722 -1.4818  1.4306  2.9027
33860SOL    HW2 6266   1.770   7.945  10.673 -0.4498  0.7000 -0.1951
33861SOL     OW 6267   6.000   6.635   0.240 -0.1281  0.1298 -0.5355
33861SOL    HW1 6268   6.005   6.684   0.322 -0.5798 -1.1839  0.3057
33861SOL    HW2 6269   6.058   6.682   0.180  0.0390  1.2370  0.4646
33862SOL     OW 6270   7.756   2.233   9.107  0.1243  0.2684  0.0957
33862SOL    HW1 6271   7.736   2.152   9.060  0.5069 -1.1971  2.3015
33862SOL    HW2 6272   7.794   2.290   9.040 -0.5567 -1.1885 -1.6328
33863SOL     OW 6273   9.912   7.136   9.638 -0.0471 -0.3972 -0.7195
33863SOL    HW1 6274   9.847   7.194   9.677 -1.0839 -2.6924  1.1854
33863SOL    HW2 6275   9.975   7.118   9.708  1.0289 -0.5366 -1.6736
33864SOL     OW 6276   3.578  10.035   5.863  0.4053  0.0342 -0.1048
33864SOL    HW1 6277   3.580  10.069   5.774 -0.1661 -1.0776 -0.5707
33864SOL    HW2 6278   3.655   9.978   5.869  0.6712  0.4269  0.2531
33865SOL     OW 6279   7.289   7.526  11.219  0.3933 -0.3015  0.1680
33865SOL    HW1 6280   7.367   7.580  11.221 -0.4943  1.2051 -2.1669
33865SOL    HW2 6281   7.314   7.446  11.266  2.7081  0.8563  1.0651
33866SOL     OW 6282   3.163   4.342   7.127  0.1426  0.3711  0.0217
33866SOL    HW1 6283   3.095   4.278   7.108  0.4065 -0.4136  1.6203
33866SOL    HW2 6284   3.224   4.297   7.185  1.1873  1.5690 -0.0870
33867SOL     OW 6285   9.111   1.291   6.602  0.1770 -0.0525  0.0637
33867SOL    HW1 6286   9.051   1.258   6.535  0.8590 -1.4270  0.1063
33867SOL    HW2 6287   9.074   1.261   6.685  1.1236 -1.2800  0.0650
33868SOL     OW 6288   0.331   0.941   4.148  0.1013 -0.1001 -0.5549
33868SOL    HW1 6289   0.271   0.867   4.150 -1.1242  0.7988  2.6850
33868SOL    HW2 6290   0.415   0.904   4.178 -0.3105 -0.3360  0.3311
33869SOL     OW 6291   8.823   6.641   5.996 -0.0363  0.3327  0.4071
33869SOL    HW1 6292   8.820   6.553   5.958  0.7212  0.0055  1.0820
33869SOL    HW2 6293   8.886   6.635   6.067 -1.9918  0.7374  2.2634
33870SOL     OW 6294   2.815   4.835  10.390 -0.1380 -0.0311  0.1321
33870SOL    HW1 6295   2.746   4.865  10.330 -0.3113  2.7142  1.5445
33870SOL    HW2 6296   2.881   4.904  10.388 -0.2631  0.3217  3.2067
33871SOL     OW 6297   8.000  11.191   6.052 -0.2460 -0.0780  0.7562
33871SOL    HW1 6298   8.007  11.286   6.050  0.0329 -0.0923  0.8805
33871SOL    HW2 6299   7.981  11.166   5.962 -0.0180  0.0754  0.6654
33872SOL     OW 6300   9.461   5.816   3.520 -0.1505  0.1898 -0.8856
33872SOL    HW1 6301   9.553   5.800   3.540 -0.3696 -1.9061 -1.3302
33872SOL    HW2 6302   9.422   5.841   3.604  0.6351  0.1193 -0.4923
33873SOL     OW 6303   5.829   3.195   9.614  0.5797  0.7785 -0.2715
33873SOL    HW1 6304   5.788   3.201   9.700  0.6733  0.1801 -0.1830
33873SOL    HW2 6305   5.767   3.145   9.561  1.2960 -0.3680 -0.0606
33874SOL     OW 6306   0.240  10.386  11.069 -0.1926 -0.3817 -0.3532
33874SOL    HW1 6307   0.187  10.307  11.058 -0.9440  0.1738 -0.8845
33874SOL    HW2 6308   0.175  10.455  11.083  0.4055  0.3218 -1.0132
33875SOL     OW 6309   1.513   8.864   2.862  0.0599 -0.3438  0.0523
33875SOL    HW1 6310   1.540   8.791   2.806 -0.8331  0.8628 -2.0642
33875SOL    HW2 6311   1.595   8.906   2.888  0.4871 -0.7706 -0.5683
33876SOL     OW 6312   1.622  11.480   0.400 -0.0155  0.1727 -0.0609
33876SOL    HW1 6313   1.709  11.507   0.430  0.4546 -0.3871 -0.8867
33876SOL    HW2 6314   1.573  11.562   0.396  1.3632  0.9905 -2.4241
33877SOL     OW 6315   4.486   7.147  11.933 -0.1224 -0.3144 -0.3420
33877SOL    HW1 6316   4.433   7.070  11.954  0.3041 -0.6144 -0.3495
33877SOL    HW2 6317   4.568   7.134  11.982 -0.6379  0.9086  0.9442
33878SOL     OW 6318   7.129   2.664   7.278  0.4339 -0.5052 -0.2655
33878SOL    HW1 6319   7.074   2.670   7.357  1.3702  0.7296  0.3286
33878SOL    HW2 6320   7.174   2.580   7.287 -0.8265 -1.2201 -0.4213
33879SOL     OW 6321   1.087   1.050   6.507 -0.4297 -0.2893  0.4512
33879SOL    HW1 6322   1.127   1.017   6.587  0.8304 -1.3282 -0.5706
33879SOL    HW2 6323   1.143   1.019   6.436 -1.1299  1.1620 -0.8195
33880SOL     OW 6324  11.314   0.669   7.691 -0.1762 -0.5323 -0.2033
33880SOL    HW1 6325  11.346   0.658   7.601  0.6057  1.1715 -0.1733
33880SOL    HW2 6326  11.239   0.729   7.683  0.9982  1.0968  0.4128
33881SOL     OW 6327   6.431   2.641   2.890 -0.6709  0.0757  0.3144
33881SOL    HW1 6328   6.442   2.651   2.796  1.0082  0.4569  0.5149
33881SOL    HW2 6329   6.421   2.547   2.904  0.6212 -0.1508 -0.1361
33882SOL     OW 6330   1.744  10.563   1.938  0.5724  0.5235  1.0364
33882SOL    HW1 6331   1.752  10.643   1.887 -0.1399  0.1498  0.3271
33882SOL    HW2 6332   1.736  10.493   1.873 -1.3164  0.1345  1.6242
33883SOL     OW 6333   8.093   1.609   0.428  0.0322  0.3975  0.3047
33883SOL    HW1 6334   8.013   1.571   0.462 -1.2440 -0.1478 -2.9631
33883SOL    HW2 6335   8.142   1.535   0.393  0.8019  1.0021  0.0808
33884SOL     OW 6336   4.333  11.045   8.857  0.2776  0.0659  0.5821
33884SOL    HW1 6337   4.339  10.958   8.817 -2.1426  0.4280 -0.7203
33884SOL    HW2 6338   4.356  11.106   8.787 -1.1680  0.5753  0.5119
33885SOL     OW 6339   3.917   8.873   2.992  0.4290  0.2368 -0.0412
33885SOL    HW1 6340   3.953   8.879   3.080 -1.0982  1.7368  0.5342
33885SOL    HW2 6341   3.848   8.806   2.999 -0.2112  0.8958  0.1319
33886SOL     OW 6342   1.226   6.177   9.037 -0.4250 -0.2580  0.5470
33886SOL    HW1 6343   1.303   6.132   9.073 -0.0056 -0.2746 -0.3578
33886SOL    HW2 6344   1.176   6.107   8.994  1.5517  0.3811 -3.2367
33887SOL     OW 6345   0.783   9.820   8.799 -0.3957  0.4597  0.4448
33887SOL    HW1 6346   0.739   9.882   8.741 -1.6971  0.2320  1.1697
33887SOL    HW2 6347   0.750   9.734   8.771 -0.6785  0.3126  1.2208
33888SOL     OW 6348   4.757   9.476   5.023  0.2399 -0.1691 -0.5431
33888SOL    HW1 6349   4.733   9.569   5.015 -0.9603 -0.3530  0.6129
33888SOL    HW2 6350   4.725   9.437   4.941  0.1460  0.3224 -0.7463
33889SOL     OW 6351   9.922  10.334  10.612 -0.0664  0.3735 -0.3228
33889SOL    HW1 6352   9.882  10.366  10.532 -0.1676 -0.2099 -0.5123
33889SOL    HW2 6353   9.922  10.239  10.603  0.0583  0.3056  0.3025
33890SOL     OW 6354   4.589   5.103   8.378 -0.3639  0.1868 -0.6349
33890SOL    HW1 6355   4.651   5.111   8.450  1.5497 -2.2310 -1.8282
33890SOL    HW2 6356   4.645   5.099   8.300 -2.1537 -0.2024 -1.9589
33891SOL     OW 6357   7.306   9.356   3.109  0.7745  0.5747  0.2240
33891SOL    HW1 6358   7.339   9.296   3.041  0.1610  0.9409 -0.4044
33891SOL    HW2 6359   7.347   9.440   3.088 -0.1358  0.9069 -0.2500
33892SOL     OW 6360   5.824  10.372   1.652 -0.2121  0.1499 -0.2649
33892SOL    HW1 6361   5.822  10.277   1.651  0.4719  0.0942  0.7996
33892SOL    HW2 6362   5.745  10.398   1.700 -0.0299  0.0750  0.0820
33893SOL     OW 6363   8.382   1.014   3.148  0.2227 -0.0476  0.3111
33893SOL    HW1 6364   8.440   1.042   3.077 -0.8706  1.3892 -0.0709
33893SOL    HW2 6365   8.430   1.034   3.228 -0.0794  2.0671  0.0240
33894SOL     OW 6366   2.581  11.875   4.039  0.4061 -0.4583 -0.2465
33894SOL    HW1 6367   2.649  11.833   3.986  1.7693 -2.0321  2.5122
33894SOL    HW2 6368   2.625  11.895   4.122 -1.9950  0.4592  0.8938
33895SOL     OW 6369   1.959   2.194  11.264 -0.0377 -0.3529  0.3777
33895SOL    HW1 6370   1.945   2.164  11.174 -0.5098 -1.5599  0.8349
33895SOL    HW2 6371   1.876   2.233  11.290  0.3128  0.6276  0.0729
33896SOL     OW 6372   4.119   3.208   6.886  0.1311  0.7591 -0.1669
33896SOL    HW1 6373   4.030   3.185   6.861 -0.1534  1.0505  0.5477
33896SOL    HW2 6374   4.114   3.300   6.911  0.3735  0.4662  1.0314
33897SOL     OW 6375   9.195   1.837   4.544  0.0830  0.4107  0.1113
33897SOL    HW1 6376   9.129   1.787   4.592 -0.0791  0.3959 -0.1273
33897SOL    HW2 6377   9.272   1.834   4.600  0.5326 -1.3208 -0.5164
33898SOL     OW 6378   5.267   6.225   9.105  0.3658  0.3195  0.5803
33898SOL    HW1 6379   5.300   6.314   9.091 -4.2234  2.2292  0.1316
33898SOL    HW2 6380   5.310   6.195   9.185  3.3282  2.1619 -0.1663
33899SOL     OW 6381   6.935   7.142  11.137 -0.3040  0.4993  0.1675
33899SOL    HW1 6382   6.947   7.235  11.118  0.2967  0.2715 -0.6290
33899SOL    HW2 6383   6.997   7.123  11.207  1.2791  0.2021 -1.2551
33900SOL     OW 6384   6.196   0.935   7.551  0.1620  0.3406  0.1942
33900SOL    HW1 6385   6.110   0.911   7.586 -0.0219  0.0353 -0.4555
33900SOL    HW2 6386   6.180   0.953   7.458  0.7030  0.8132  0.1893
33901SOL     OW 6387  11.923   7.218   3.460  0.5555  0.0717 -0.1586
33901SOL    HW1 6388  11.953   7.127   3.450  0.1104 -0.2046  0.8272
33901SOL    HW2 6389  11.828   7.213   3.445  0.0965 -0.1160  2.3531
33902SOL     OW 6390   3.117   0.520   8.928  0.1306 -0.5799 -0.7267
33902SOL    HW1 6391   3.034   0.514   8.882  0.5181 -1.1182 -1.3835
33902SOL    HW2 6392   3.099   0.576   9.004 -0.6454 -0.1016 -1.2517
33903SOL     OW 6393   7.500   3.132   6.888 -0.1904  0.0799 -0.0440
33903SOL    HW1 6394   7.470   3.219   6.863 -1.2334 -0.3137 -0.2183
33903SOL    HW2 6395   7.498   3.082   6.806 -0.7051 -0.4098  0.2630
33904SOL     OW 6396   3.794   0.708   8.734  0.1609  0.1466  0.1941
33904SOL    HW1 6397   3.700   0.691   8.725 -0.1275  1.0456  1.3024
33904SOL    HW2 6398   3.806   0.730   8.826  1.4402  0.1852  0.0347
33905SOL     OW 6399   5.880   0.209   1.710  0.6594  0.4262 -0.2258
33905SOL    HW1 6400   5.829   0.264   1.770  0.8750  0.0357  0.3207
33905SOL    HW2 6401   5.947   0.267   1.675  0.7685  0.5583  0.2044
33906SOL     OW 6402   3.737   1.829   7.668 -0.2312  0.0019  0.0656
33906SOL    HW1 6403   3.787   1.747   7.662 -0.3585  0.0005 -1.3663
33906SOL    HW2 6404   3.649   1.801   7.690  0.0932 -0.0933  1.3239
33907SOL     OW 6405   8.933   1.030   1.373  0.1215  0.1372 -0.6444
33907SOL    HW1 6406   8.924   1.104   1.313  0.2973 -0.2871 -1.2079
33907SOL    HW2 6407   8.844   1.012   1.403 -0.1053 -0.2211 -1.4967
33908SOL     OW 6408   1.748   7.580   4.765 -0.2847 -0.2207  0.0561
33908SOL    HW1 6409   1.664   7.603   4.805 -1.2060 -0.3650 -1.6939
33908SOL    HW2 6410   1.725   7.524   4.691  1.3864 -0.4872 -0.3101
33909SOL     OW 6411   3.453   9.089   1.373 -0.5530 -0.4040 -0.0834
33909SOL    HW1 6412   3.536   9.066   1.415 -0.8790 -0.2669  0.6606
33909SOL    HW2 6413   3.477   9.121   1.287  0.2608  0.6450  0.5231
33910SOL     OW 6414   0.369   9.441   2.538  0.0864  0.6445  0.4191
33910SOL    HW1 6415   0.344   9.358   2.499  0.4878  0.5207  0.4226
33910SOL    HW2 6416   0.443   9.420   2.594  0.9827  1.1896 -0.5144
33911SOL     OW 6417   7.252   0.111   0.911 -0.0451  0.7323  0.7737
33911SOL    HW1 6418   7.287   0.133   0.997 -0.2108  0.3926  0.9278
33911SOL    HW2 6419   7.208   0.191   0.882 -0.0799  0.8123  1.0489
33912SOL     OW 6420   3.802   9.880   7.519 -0.3126 -0.3521  0.1542
33912SOL    HW1 6421   3.754   9.956   7.553 -1.7947 -0.6135 -1.2389
33912SOL    HW2 6422   3.865   9.918   7.458 -0.7158 -0.1937 -0.1707
33913SOL     OW 6423   6.217   2.297   5.930  0.2939 -0.8414 -0.5705
33913SOL    HW1 6424   6.288   2.321   5.991 -1.6568  1.8030  0.8774
33913SOL    HW2 6425   6.137   2.312   5.980 -1.3779 -2.0144 -2.7314
33914SOL     OW 6426   0.547  11.418   0.866  0.1344 -0.2657 -0.6505
33914SOL    HW1 6427   0.533  11.512   0.879  0.2504 -0.0750 -1.7736
33914SOL    HW2 6428   0.613  11.413   0.797  0.9821 -1.1801  0.2051
33915SOL     OW 6429   3.365   7.492   3.113 -0.4453  0.1793 -0.1633
33915SOL    HW1 6430   3.438   7.437   3.083  0.0935  1.0021 -0.3812
33915SOL    HW2 6431   3.298   7.481   3.046  0.2121  0.8970 -0.9522
33916SOL     OW 6432   2.261   3.648  10.571  0.3927  0.0964 -0.4855
33916SOL    HW1 6433   2.324   3.690  10.513  0.2354  1.4291  0.2706
33916SOL    HW2 6434   2.265   3.699  10.652  0.3575 -1.4925  0.5721
33917SOL     OW 6435   6.433   4.423   2.207  0.1859 -0.0440 -0.0995
33917SOL    HW1 6436   6.375   4.464   2.270  1.2930 -0.2888  1.1079
33917SOL    HW2 6437   6.390   4.340   2.185  0.6471 -0.8389  1.7789
33918SOL     OW 6438   1.702   0.678   1.086 -0.0376  0.0736 -0.1465
33918SOL    HW1 6439   1.792   0.669   1.117  0.1887  1.0332 -0.4633
33918SOL    HW2 6440   1.648   0.671   1.165  0.3965  0.6124  0.2041
33919SOL     OW 6441   6.049   0.189   0.475 -0.3932 -0.2507  0.0487
33919SOL    HW1 6442   6.120   0.127   0.460 -0.7178 -0.8635  0.9283
33919SOL    HW2 6443   6.026   0.221   0.388  0.7349 -0.2918 -0.2723
33920SOL     OW 6444  10.068   0.139   3.477  0.3333 -0.2375  0.4296
33920SOL    HW1 6445  10.150   0.107   3.440 -0.3222 -1.3326 -0.1052
33920SOL    HW2 6446  10.040   0.070   3.537 -0.7983 -0.4328 -0.2981
33921SOL     OW 6447   9.726   1.808   8.336 -0.1510  0.4107  0.1853
33921SOL    HW1 6448   9.670   1.876   8.299 -1.1670 -0.6947 -0.3997
33921SOL    HW2 6449   9.668   1.733   8.347  1.2670 -0.8845 -0.7132
33922SOL     OW 6450   5.015   0.224   0.431 -0.1295  0.1850 -0.1016
33922SOL    HW1 6451   4.937   0.267   0.397  0.1160  0.8286  0.1325
33922SOL    HW2 6452   4.982   0.148   0.479 -0.5329 -0.2350 -1.0175
33923SOL     OW 6453   8.879   1.468   7.533 -0.1999  0.3668  0.1644
33923SOL    HW1 6454   8.905   1.422   7.453 -0.2075  1.6896 -0.6274
33923SOL    HW2 6455   8.810   1.529   7.505  1.5012  2.6566  0.6092
33924SOL     OW 6456  10.635  11.581  11.686  0.2286  0.7811  0.4802
33924SOL    HW1 6457  10.605  11.517  11.622  0.4243  1.4042 -0.2476
33924SOL    HW2 6458  10.557  11.633  11.706  0.0233  0.1980  1.2195
33925SOL     OW 6459   9.257   9.201  11.811  0.3816  0.1749 -0.2072
33925SOL    HW1 6460   9.274   9.240  11.897 -0.4247  2.4547 -1.0272
33925SOL    HW2 6461   9.165   9.218  11.795 -0.0015 -2.0867 -0.6731
33926SOL     OW 6462   0.835   4.565   0.859 -0.1822  0.4351  0.5717
33926SOL    HW1 6463   0.849   4.470   0.866  1.7483  0.7201  1.2198
33926SOL    HW2 6464   0.759   4.574   0.802 -0.7352 -1.5155  0.9308
33927SOL     OW 6465   9.634   6.440  11.546 -0.1568  0.2467 -0.6851
33927SOL    HW1 6466   9.620   6.358  11.497 -1.3415  1.3105 -2.2291
33927SOL    HW2 6467   9.550   6.486  11.540 -0.0833  0.8387  1.6744
33928SOL     OW 6468   7.362   1.472   6.575 -0.2867  0.2070 -0.4919
33928SOL    HW1 6469   7.421   1.440   6.506 -1.8452 -0.8773 -1.3873
33928SOL    HW2 6470   7.305   1.534   6.531 -1.1581 -0.3282 -0.1360
33929SOL     OW 6471  11.122   8.635   2.729  0.1069 -0.0566 -0.7292
33929SOL    HW1 6472  11.197   8.695   2.722  2.6556 -2.9048  0.2396
33929SOL    HW2 6473  11.138   8.586   2.810 -1.6770 -2.2264 -1.6054
33930SOL     OW 6474   9.844   2.412   7.451 -0.2720  0.4423  0.2081
33930SOL    HW1 6475   9.773   2.445   7.396 -0.7790 -1.9093 -0.6468
33930SOL    HW2 6476   9.923   2.426   7.398 -0.2487  1.6049  0.5084
33931SOL     OW 6477   1.290  10.107   8.004 -0.1889 -0.2146  0.4154
33931SOL    HW1 6478   1.337  10.140   7.928 -1.5196 -1.2932 -0.9286
33931SOL    HW2 6479   1.356  10.102   8.073  0.9351  1.2866 -0.4858
33932SOL     OW 6480   3.735   3.547  10.158 -0.3352  0.0690 -0.2719
33932SOL    HW1 6481   3.802   3.494  10.202 -0.3279 -0.9319 -1.4452
33932SOL    HW2 6482   3.735   3.516  10.068 -1.0939  1.3500 -0.7370
33933SOL     OW 6483   9.268   0.756   4.124 -0.0236  0.5061 -0.2109
33933SOL    HW1 6484   9.275   0.846   4.154  0.9680  0.4250 -0.1551
33933SOL    HW2 6485   9.179   0.748   4.090 -0.8699  0.8894  1.7477
33934SOL     OW 6486  11.037   5.049   7.899  0.1466  0.2560  0.0703
33934SOL    HW1 6487  11.064   5.139   7.917  0.2888  0.1513  0.3929
33934SOL    HW2 6488  11.027   5.046   7.804  1.1976  0.3174 -0.0585
33935SOL     OW 6489   1.062   8.886   5.100 -0.1740 -0.3178  0.3521
33935SOL    HW1 6490   1.002   8.828   5.149  0.0794 -0.1748  0.8363
33935SOL    HW2 6491   1.140   8.891   5.155  0.1565 -0.2365 -0.1229
33936SOL     OW 6492   0.350   7.503   1.217  0.0079 -0.5436  0.2694
33936SOL    HW1 6493   0.415   7.435   1.199 -0.5261 -0.5152 -2.1484
33936SOL    HW2 6494   0.266   7.458   1.211 -0.2891 -0.0997  0.9561
33937SOL     OW 6495   2.348   7.909   0.633  0.6673 -0.0545  0.5198
33937SOL    HW1 6496   2.316   7.982   0.581 -0.8209 -1.2490 -0.3375
33937SOL    HW2 6497   2.280   7.895   0.699 -0.6401 -2.4701 -1.1684
33938SOL     OW 6498   0.510   6.023   6.321 -0.4622  0.1749  0.4930
33938SOL    HW1 6499   0.536   6.025   6.413  0.6050  1.0492  0.1796
33938SOL    HW2 6500   0.523   6.112   6.289 -0.1607 -0.2694 -0.6879
33939SOL     OW 6501   5.023  10.358   3.367 -0.6522 -0.2568  0.7768
33939SOL    HW1 6502   5.014  10.451   3.390 -1.5847 -0.5677  1.7561
33939SOL    HW2 6503   4.933  10.327   3.357 -0.3306 -0.5183 -1.9660
33940SOL     OW 6504  10.337   1.512   9.940  0.1554 -0.1472  0.1770
33940SOL    HW1 6505  10.244   1.535   9.935  0.1473 -0.2788 -0.3815
33940SOL    HW2 6506  10.383   1.590   9.910  0.1711 -0.4677 -0.6698
33941SOL     OW 6507   9.314   4.503   9.852  0.0025  0.0680 -0.0281
33941SOL    HW1 6508   9.294   4.517   9.945  0.8300  1.2634 -0.0194
33941SOL    HW2 6509   9.346   4.587   9.821 -0.8256 -0.1466 -1.5670
33942SOL     OW 6510   2.868   5.977  11.583  0.1009  0.1432 -0.0869
33942SOL    HW1 6511   2.808   6.004  11.652  2.5340 -2.1268  3.1896
33942SOL    HW2 6512   2.824   5.903  11.541 -0.5019  0.1757  0.4689
33943SOL     OW 6513  11.598   4.812   3.665  0.3204  0.0221  0.5683
33943SOL    HW1 6514  11.688   4.783   3.680  0.5750 -0.0241 -0.8986
33943SOL    HW2 6515  11.546   4.759   3.725  1.1551 -0.8881  0.5193
33944SOL     OW 6516   8.599   1.521   6.148 -0.1029  0.7303 -0.0460
33944SOL    HW1 6517   8.567   1.535   6.237 -0.0549  0.4239  0.0229
33944SOL    HW2 6518   8.595   1.426   6.136  0.2803  0.7325 -0.2233
33945SOL     OW 6519   9.019  10.756   6.623 -0.0378  0.3494  0.5204
33945SOL    HW1 6520   8.993  10.755   6.531 -0.9473 -2.6149  0.6988
33945SOL    HW2 6521   8.938  10.738   6.671  0.5492  1.1419  1.8875
33946SOL     OW 6522   4.557   0.793   9.311  0.2256  0.3524  0.4585
33946SOL    HW1 6523   4.597   0.806   9.397 -1.6194  1.3486  1.2082
33946SOL    HW2 6524   4.539   0.881   9.279 -0.6398 -0.0443 -0.1971
33947SOL     OW 6525   4.818   6.395   8.018 -0.0453  0.6617  0.4138
33947SOL    HW1 6526   4.892   6.450   7.990 -1.4639  1.6185 -1.7014
33947SOL    HW2 6527   4.830   6.313   7.971 -0.6865  1.0823 -0.5062
33948SOL     OW 6528   5.701   2.782   3.484 -0.1897 -0.1910 -0.4613
33948SOL    HW1 6529   5.703   2.723   3.408  2.5570  0.0605 -0.6789
33948SOL    HW2 6530   5.745   2.861   3.453 -0.9371  0.7490  0.8015
33949SOL     OW 6531   2.805   2.214   0.263 -0.2605 -0.1823 -0.2149
33949SOL    HW1 6532   2.868   2.286   0.264 -0.8458  0.3909 -1.2812
33949SOL    HW2 6533   2.781   2.205   0.170 -1.6878 -0.4081  0.1443
33950SOL     OW 6534  11.072   9.623   0.734 -0.6683  0.2125 -0.1149
33950SOL    HW1 6535  11.120   9.561   0.680 -0.5658 -0.4879  0.7665
33950SOL    HW2 6536  11.041   9.689   0.672  1.7011  0.8952 -0.6974
33951SOL     OW 6537   5.566   5.922  11.306  0.3313 -0.1089  0.2860
33951SOL    HW1 6538   5.654   5.930  11.343 -0.2394  0.0922  1.6416
33951SOL    HW2 6539   5.560   5.830  11.278  0.0035 -0.9488  2.8291
33952SOL     OW 6540   2.600   9.341   2.083  0.3860 -0.2173 -0.9103
33952SOL    HW1 6541   2.532   9.321   2.148  1.7074  1.6957  1.2158
33952SOL    HW2 6542   2.555   9.337   1.999 -1.7623 -1.3472  0.2053
33953SOL     OW 6543   7.294   2.167   2.430  0.4898 -0.0999 -0.6439
33953SOL    HW1 6544   7.235   2.106   2.386 -0.0414 -1.0100  1.2099
33953SOL    HW2 6545   7.299   2.242   2.371 -1.4212 -0.5735 -1.4924
33954SOL     OW 6546   5.836   8.367  11.914 -0.6253  0.5547  0.5139
33954SOL    HW1 6547   5.836   8.459  11.938 -0.9357  0.6073  0.3237
33954SOL    HW2 6548   5.883   8.323  11.985  0.7998  1.0310 -0.1087
33955SOL     OW 6549   0.304  10.896   1.101 -0.1169 -0.1458  0.4951
33955SOL    HW1 6550   0.230  10.867   1.048  0.9316 -1.8401 -0.1272
33955SOL    HW2 6551   0.297  10.992   1.103  0.1382  0.0972 -3.2792
33956SOL     OW 6552   1.025   3.749   5.121  0.1143  0.3797  0.0559
33956SOL    HW1 6553   0.972   3.824   5.093 -0.3317  0.0328 -0.0356
33956SOL    HW2 6554   1.080   3.783   5.192 -0.9073  0.4974  0.7978
33957SOL     OW 6555   8.007   7.150  10.295 -0.8891 -0.4617 -0.2211
33957SOL    HW1 6556   7.946   7.221  10.277 -1.1178 -0.5917  0.0472
33957SOL    HW2 6557   8.045   7.171  10.380 -0.7461 -0.5153 -0.2695
33958SOL     OW 6558  11.177   7.107   8.518  0.2451  0.7013 -0.1403
33958SOL    HW1 6559  11.225   7.168   8.462  2.7651 -1.0113  0.0164
33958SOL    HW2 6560  11.150   7.036   8.459  0.9806 -0.0347  0.3866
33959SOL     OW 6561   8.541   4.488   5.130 -0.4616 -0.3449 -0.4539
33959SOL    HW1 6562   8.516   4.488   5.223 -1.2290 -1.2300 -0.6432
33959SOL    HW2 6563   8.489   4.417   5.092  1.1836 -1.1819 -1.2072
33960SOL     OW 6564   5.432   7.300   0.843 -0.1150 -0.0179 -0.0951
33960SOL    HW1 6565   5.466   7.351   0.917 -0.6090  2.7912 -1.6698
33960SOL    HW2 6566   5.338   7.296   0.858 -0.2218  0.5992 -0.5669
33961SOL     OW 6567   0.081   5.944  10.780  0.2692 -0.3305 -0.3682
33961SOL    HW1 6568   0.083   5.880  10.851  0.6529 -0.5551 -0.5773
33961SOL    HW2 6569   0.151   6.005  10.800  1.2156 -1.1067 -1.1958
33962SOL     OW 6570   0.822   2.156   1.875 -0.1808 -0.7955 -0.1013
33962SOL    HW1 6571   0.749   2.134   1.817  0.0641 -0.6006 -0.4809
33962SOL    HW2 6572   0.822   2.251   1.879 -1.2520 -0.8191  1.5648
33963SOL     OW 6573   3.430   1.295   4.895  0.5472  0.3651  0.2039
33963SOL    HW1 6574   3.381   1.298   4.978 -1.7073 -0.5315 -0.9995
33963SOL    HW2 6575   3.449   1.386   4.875 -0.7312  0.7610  0.6976
33964SOL     OW 6576   9.502   7.370   6.330 -0.3101  0.0485 -0.0408
33964SOL    HW1 6577   9.421   7.377   6.381  0.1585 -0.3727  0.7827
33964SOL    HW2 6578   9.537   7.459   6.331  0.2167 -0.1493  1.2827
33965SOL     OW 6579   7.306   7.712   1.127  0.1112 -0.2395  0.5388
33965SOL    HW1 6580   7.359   7.763   1.188  0.1136 -0.6460  0.8829
33965SOL    HW2 6581   7.354   7.716   1.044  0.1288  0.2800  0.5688
33966SOL     OW 6582   8.369  11.135   3.111  0.4872 -0.1558 -0.0575
33966SOL    HW1 6583   8.275  11.124   3.123  0.3962 -0.1009 -0.6961
33966SOL    HW2 6584   8.397  11.186   3.187 -0.0976  0.3379 -0.1668
33967SOL     OW 6585   1.276  10.210   9.252  0.3903 -0.2899 -0.3738
33967SOL    HW1 6586   1.306  10.160   9.328  1.0065  0.7010  0.0542
33967SOL    HW2 6587   1.223  10.281   9.290  0.9235  0.3703 -0.8482
33968SOL     OW 6588   0.555   3.801   4.025  0.0220 -0.1524 -0.1857
33968SOL    HW1 6589   0.604   3.796   3.943  1.7929  0.2488  0.7989
33968SOL    HW2 6590   0.559   3.893   4.051 -0.5436 -0.2631  0.3458
33969SOL     OW 6591   9.561  10.093   8.779  0.2292  0.8270  0.8580
33969SOL    HW1 6592   9.602  10.044   8.852  0.0331  0.6785  0.8684
33969SOL    HW2 6593   9.550  10.182   8.814  3.3120  1.7166 -0.1361
33970SOL     OW 6594   9.498  11.486   0.647 -0.3134 -0.2296  0.0371
33970SOL    HW1 6595   9.480  11.509   0.739 -0.6139  0.2836 -0.1478
33970SOL    HW2 6596   9.412  11.487   0.605 -0.1279 -0.0774 -0.3404
33971SOL     OW 6597   9.219   3.915   9.379 -0.0845 -0.2899 -0.4875
33971SOL    HW1 6598   9.292   3.865   9.342  0.2196  1.5140 -2.5800
33971SOL    HW2 6599   9.162   3.850   9.418  1.2843 -2.0413 -1.2660
33972SOL     OW 6600   2.420   2.764   3.194  0.0602 -0.4135 -0.1188
33972SOL    HW1 6601   2.504   2.778   3.150  0.9251 -1.4251  1.1486
33972SOL    HW2 6602   2.414   2.836   3.257  0.2205 -0.6181  0.1328
33973SOL     OW 6603   5.457   0.094   0.872 -0.0968 -0.1230  0.0900
33973SOL    HW1 6604   5.455   0.062   0.782  0.7833 -1.7301  0.6027
33973SOL    HW2 6605   5.504   0.026   0.921 -0.8127  0.5691  1.8259
33974SOL     OW 6606   8.805  11.401   3.420  0.0461  0.5212 -0.0737
33974SOL    HW1 6607   8.729  11.428   3.472  0.2331  0.8360  0.0338
33974SOL    HW2 6608   8.879  11.443   3.461  0.2608  0.3589 -0.2899
33975SOL     OW 6609   5.670   1.635   7.168 -0.3784  0.1468  0.1408
33975SOL    HW1 6610   5.600   1.637   7.232  0.0755 -0.4522  0.6694
33975SOL    HW2 6611   5.626   1.629   7.083 -1.0137  2.1051  0.2916
33976SOL     OW 6612   8.200   4.596   7.331  0.2129 -0.5800  0.1129
33976SOL    HW1 6613   8.211   4.617   7.423  1.2521 -0.5788  0.0016
33976SOL    HW2 6614   8.164   4.507   7.330 -0.1037 -0.4540  0.5264
33977SOL     OW 6615   6.288   0.632   6.151 -0.0851 -0.1700  0.0559
33977SOL    HW1 6616   6.377   0.629   6.118  0.1456 -0.0532  0.6510
33977SOL    HW2 6617   6.242   0.564   6.103 -0.0092  0.6395 -1.2009
33978SOL     OW 6618   6.673   2.993   9.936  0.4308 -0.1003  0.0508
33978SOL    HW1 6619   6.629   2.923   9.888  2.1245 -2.2324  1.4334
33978SOL    HW2 6620   6.748   3.016   9.881  1.5251 -1.4896  0.9097
33979SOL     OW 6621   4.821   7.609   2.949  0.3180  0.1251  0.4504
33979SOL    HW1 6622   4.869   7.689   2.927  1.4328 -0.6209  0.0969
33979SOL    HW2 6623   4.884   7.539   2.935 -0.4228 -0.7683  1.4574
33980SOL     OW 6624   1.998  10.481   3.325  0.0522  0.0712  0.7493
33980SOL    HW1 6625   2.064  10.434   3.274 -1.5622 -2.2407  0.6177
33980SOL    HW2 6626   2.040  10.496   3.410  1.3326  0.2312  0.1112
33981SOL     OW 6627   6.736   2.208   5.423  0.5515 -0.2361 -0.1528
33981SOL    HW1 6628   6.667   2.199   5.357  1.8861 -0.1168 -1.6175
33981SOL    HW2 6629   6.717   2.291   5.467  0.5939  0.5448 -1.5732
33982SOL     OW 6630  10.806  11.331  11.107 -0.0999 -0.9349  0.0548
33982SOL    HW1 6631  10.751  11.395  11.151 -1.7689 -0.9809 -1.8540
33982SOL    HW2 6632  10.745  11.267  11.070  1.4610 -3.2356  1.1770
33983SOL     OW 6633  10.658   5.653   9.150  0.2768  0.0068  0.1916
33983SOL    HW1 6634  10.567   5.634   9.128  0.6029 -2.9505  1.0116
33983SOL    HW2 6635  10.694   5.691   9.069 -1.1848 -0.5732 -0.7766
33984SOL     OW 6636   7.922   3.236   3.265 -0.1329 -0.0171  0.0908
33984SOL    HW1 6637   7.975   3.301   3.218  1.8663 -0.6218  1.4258
33984SOL    HW2 6638   7.877   3.188   3.195 -0.8021  2.0083 -0.9774
33985SOL     OW 6639   8.186   2.163  11.567 -0.0047 -0.1900  1.0684
33985SOL    HW1 6640   8.179   2.120  11.482  0.3075  0.2446  0.8212
33985SOL    HW2 6641   8.154   2.098  11.630  0.9864 -0.9986  0.7609
33986SOL     OW 6642   0.702   6.127   1.766  0.0340 -0.4191 -0.1114
33986SOL    HW1 6643   0.759   6.054   1.742  0.6714 -0.4124  1.2715
33986SOL    HW2 6644   0.692   6.119   1.861 -1.6077  0.0699 -0.2153
33987SOL     OW 6645   8.857   1.581   1.437  0.5104 -0.0710 -0.1453
33987SOL    HW1 6646   8.764   1.571   1.413  0.7519 -3.4386 -0.1786
33987SOL    HW2 6647   8.857   1.649   1.504 -2.2044 -0.8352  0.7687
33988SOL     OW 6648   6.429   0.854   2.556 -0.2077 -0.2186  0.3967
33988SOL    HW1 6649   6.498   0.796   2.524 -1.0322  0.5099 -3.0349
33988SOL    HW2 6650   6.470   0.901   2.629  2.0494 -1.6220  0.1387
33989SOL     OW 6651  10.821   4.417   0.534 -1.0683  0.0544  0.4912
33989SOL    HW1 6652  10.846   4.387   0.446 -1.0768  1.1714  0.0947
33989SOL    HW2 6653  10.859   4.352   0.593  1.0268  0.5765 -0.1940
33990SOL     OW 6654   2.498   1.487   4.801  0.2176  0.4098 -0.1175
33990SOL    HW1 6655   2.500   1.528   4.715 -0.0277  0.8959  0.1061
33990SOL    HW2 6656   2.512   1.394   4.783  2.6263  0.7930 -0.4669
33991SOL     OW 6657   8.573   2.529   6.083  0.3854 -0.1983  0.3027
33991SOL    HW1 6658   8.575   2.625   6.079 -0.4545 -0.1812  0.1873
33991SOL    HW2 6659   8.556   2.501   5.993 -2.6613 -0.3181  0.8065
33992SOL     OW 6660   9.946   1.901   1.385 -0.2505 -0.4223  0.0150
33992SOL    HW1 6661   9.860   1.863   1.402  0.4555 -1.7516  0.8226
33992SOL    HW2 6662   9.951   1.978   1.442 -1.4593  0.5650 -1.1619
33993SOL     OW 6663  10.288   0.853   7.853 -0.4409  0.0652 -0.1268
33993SOL    HW1 6664  10.375   0.813   7.855 -1.3589 -2.2298 -1.6352
33993SOL    HW2 6665  10.273   0.874   7.760 -1.1084  1.3789  0.2555
33994SOL     OW 6666  10.655   8.783  11.064  0.4677 -0.5967  0.6124
33994SOL    HW1 6667  10.701   8.751  10.986 -1.0967 -0.3937 -0.4417
33994SOL    HW2 6668  10.636   8.875  11.044  0.0241 -0.5519  1.2274
33995SOL     OW 6669   8.955   6.357   1.068  0.3080 -0.2319 -0.9383
33995SOL    HW1 6670   8.872   6.364   1.115  0.3254 -1.9434 -0.5685
33995SOL    HW2 6671   8.967   6.443   1.027 -3.0408 -0.6958 -3.3543
33996SOL     OW 6672   8.844  10.010   4.706  0.2897  1.2199 -0.2003
33996SOL    HW1 6673   8.927  10.011   4.658 -0.2664  0.3012 -1.2040
33996SOL    HW2 6674   8.781   9.973   4.644 -0.3436 -0.5131  1.3994
33997SOL     OW 6675   8.511   8.074   7.270 -0.3008 -0.1033 -0.0314
33997SOL    HW1 6676   8.571   8.019   7.219 -0.1696 -0.7615  0.8135
33997SOL    HW2 6677   8.568   8.131   7.321 -0.4207  0.1457 -0.1738
33998SOL     OW 6678   4.677   4.184   5.992 -0.1088 -0.4578 -0.1195
33998SOL    HW1 6679   4.626   4.242   6.049 -4.0206 -0.9963 -2.6776
33998SOL    HW2 6680   4.743   4.242   5.952  0.3667  0.6748  2.1186
33999SOL     OW 6681  10.987   5.523   3.940  0.3175 -0.1212  0.2633
33999SOL    HW1 6682  11.049   5.481   3.881  0.2043  0.5465 -0.3584
33999SOL    HW2 6683  11.038   5.589   3.986  0.4217 -0.6973  0.9813
34000SOL     OW 6684   4.570   5.905   9.001  0.1611 -0.3428 -0.1337
34000SOL    HW1 6685   4.646   5.854   9.028 -1.3620 -2.9876 -0.5433
34000SOL    HW2 6686   4.602   5.963   8.933  1.7468 -1.6191 -0.5088
34001SOL     OW 6687  10.171   0.500   9.920 -0.0501 -0.5468 -0.2818
34001SOL    HW1 6688  10.181   0.552   9.999 -1.0617  0.3078 -0.6963
34001SOL    HW2 6689  10.259   0.496   9.882  0.7319 -2.1093  1.5461
34002SOL     OW 6690   1.544   9.986   9.705  0.1503  0.3320 -0.1418
34002SOL    HW1 6691   1.629  10.019   9.674  0.5665 -0.3466  0.2508
34002SOL    HW2 6692   1.566   9.906   9.752 -0.9787 -1.2221 -2.1278
34003SOL     OW 6693  10.244   9.486   4.900 -0.2348  0.5418  0.1994
34003SOL    HW1 6694  10.338   9.483   4.882 -0.2048  1.9346  0.0403
34003SOL    HW2 6695  10.214   9.569   4.863 -1.2305  0.8714  1.6351
34004SOL     OW 6696   0.750   6.093   2.742 -0.6287  0.1419 -0.0526
34004SOL    HW1 6697   0.803   6.040   2.681 -2.1961  0.9959 -2.2550
34004SOL    HW2 6698   0.687   6.031   2.778 -0.6715 -0.0715 -0.4834
34005SOL     OW 6699  10.225   6.842   0.644 -0.1201  0.6464  0.2820
34005SOL    HW1 6700  10.296   6.900   0.670  0.8430 -0.5588  0.4219
34005SOL    HW2 6701  10.252   6.808   0.558  0.1929 -0.9332  0.9743
34006SOL     OW 6702   4.666   9.882   8.548  0.0107 -0.3006 -0.5848
34006SOL    HW1 6703   4.644   9.909   8.637 -0.7860  0.2289 -0.9301
34006SOL    HW2 6704   4.736   9.943   8.521 -0.6011  0.3504 -0.7485
34007SOL     OW 6705   3.712   9.743   9.400  0.1281 -0.7726 -0.1695
34007SOL    HW1 6706   3.693   9.653   9.428  0.8830 -0.9663 -0.2748
34007SOL    HW2 6707   3.807   9.751   9.409  0.0715 -0.0130 -0.2485
34008SOL     OW 6708   6.760   1.612  10.465  0.2028  0.1393 -0.3132
34008SOL    HW1 6709   6.704   1.679  10.424  0.1547 -0.6826 -1.6364
34008SOL    HW2 6710   6.752   1.629  10.559 -0.6394  1.3309 -0.5751
34009SOL     OW 6711   7.711   0.063   9.736 -0.5407 -0.4119 -0.1154
34009SOL    HW1 6712   7.698   0.134   9.799 -0.6345 -1.0626  0.6048
34009SOL    HW2 6713   7.717   0.108   9.651  1.7667  0.6989  0.5492
34010SOL     OW 6714  10.897  10.077  10.519 -0.2213 -0.2549 -0.2322
34010SOL    HW1 6715  10.880  10.101  10.610 -1.0084 -0.6580 -0.2631
34010SOL    HW2 6716  10.871   9.985  10.513 -1.7052  0.1952 -1.2259
34011SOL     OW 6717   4.991   1.422  11.670 -0.1372 -0.0355 -0.5744
34011SOL    HW1 6718   5.051   1.481  11.715 -0.7992  0.0104  0.2564
34011SOL    HW2 6719   4.996   1.450  11.578 -1.1102  1.9152 -0.0801
34012SOL     OW 6720   6.894  10.467   3.491 -0.0608 -0.0645 -0.3527
34012SOL    HW1 6721   6.843  10.547   3.507 -0.6985 -0.8834  2.1346
34012SOL    HW2 6722   6.985  10.495   3.501 -0.3065  0.2215  1.4935
34013SOL     OW 6723   5.529   5.947   9.983 -0.0214  0.1483  0.2571
34013SOL    HW1 6724   5.470   5.924  10.054 -0.0203  2.0158  0.9272
34013SOL    HW2 6725   5.602   5.886   9.991 -0.4339 -0.2174  1.3291
34014SOL     OW 6726  10.085   0.244  11.149 -0.3988 -0.5261  0.5177
34014SOL    HW1 6727  10.021   0.290  11.202 -1.2871  0.9680 -1.7148
34014SOL    HW2 6728  10.090   0.294  11.067  2.6818 -1.3220  0.0878
34015SOL     OW 6729   7.653  10.208   5.746  0.7521 -0.1068 -0.5854
34015SOL    HW1 6730   7.593  10.192   5.818  0.4644  0.2969 -0.7304
34015SOL    HW2 6731   7.722  10.263   5.783 -0.2406  1.4749 -0.9892
34016SOL     OW 6732   8.335  10.169   8.950  0.7395  0.1616 -0.2688
34016SOL    HW1 6733   8.281  10.100   8.988  0.1910  1.3451  1.1776
34016SOL    HW2 6734   8.411  10.175   9.008  2.1605 -0.9994 -1.8804
34017SOL     OW 6735   2.358   0.662   7.186 -0.4197  0.1236 -0.3993
34017SOL    HW1 6736   2.336   0.738   7.133  0.1167 -0.6719 -1.8239
34017SOL    HW2 6737   2.452   0.669   7.201 -0.2161 -0.6707 -1.2417
34018SOL     OW 6738   4.804   1.881   4.174  0.0764 -0.0220  0.2620
34018SOL    HW1 6739   4.709   1.878   4.161 -0.0838  0.3456  1.2886
34018SOL    HW2 6740   4.840   1.837   4.097 -0.8593  1.2027 -0.9376
34019SOL     OW 6741   5.778   4.606  10.166 -0.7606  0.1805 -0.2979
34019SOL    HW1 6742   5.848   4.586  10.228 -0.0114  2.2326 -0.4090
34019SOL    HW2 6743   5.789   4.543  10.095  0.6831  0.1638 -0.0830
34020SOL     OW 6744  11.693   0.953   5.072  0.3054 -0.1936  0.8088
34020SOL    HW1 6745  11.760   1.019   5.089  1.2478 -0.4123 -1.6085
34020SOL    HW2 6746  11.615   1.003   5.051  0.6220  0.1484  0.4216
34021SOL     OW 6747   9.733   5.810   2.654  0.0760 -0.4405  0.5176
34021SOL    HW1 6748   9.687   5.891   2.635 -0.7427 -1.4232 -2.1487
34021SOL    HW2 6749   9.826   5.835   2.658  0.0199  0.4457 -1.9509
34022SOL     OW 6750   8.658  10.705   6.359 -0.7816 -0.0807 -0.0260
34022SOL    HW1 6751   8.610  10.774   6.405 -1.2886 -0.0605 -0.5689
34022SOL    HW2 6752   8.750  10.730   6.367 -1.0444  1.8216 -1.9882
34023SOL     OW 6753   5.332   9.359   9.215  0.3128  0.6253 -0.1330
34023SOL    HW1 6754   5.248   9.381   9.254 -0.6773 -1.8185 -0.6850
34023SOL    HW2 6755   5.396   9.411   9.263 -1.1120 -0.2180  2.8814
34024SOL     OW 6756   2.625   1.938   8.686 -0.2269  0.3417  0.0609
34024SOL    HW1 6757   2.691   1.869   8.693 -1.7927 -1.3507 -0.7322
34024SOL    HW2 6758   2.632   1.987   8.767  1.9985  0.2601 -0.0263
34025SOL     OW 6759   4.834  10.309   6.718 -0.5018  0.1889  0.4238
34025SOL    HW1 6760   4.773  10.380   6.737 -0.9723  0.2002 -1.0188
34025SOL    HW2 6761   4.897  10.346   6.657  0.4237 -0.0977  1.1692
34026SOL     OW 6762   4.918  10.758   0.327 -0.1009 -0.2203 -0.0582
34026SOL    HW1 6763   5.000  10.765   0.375 -0.9062 -1.0887  1.5174
34026SOL    HW2 6764   4.883  10.848   0.327  0.8449  0.1689 -0.8045
34027SOL     OW 6765  11.051   3.821   8.925  0.1404  0.1785  0.2530
34027SOL    HW1 6766  11.126   3.858   8.971  0.4505  0.1856 -0.2659
34027SOL    HW2 6767  11.024   3.747   8.980  1.2265 -0.5322 -0.1405
34028SOL     OW 6768   1.709   0.377   0.130  0.5825  0.2662  0.1825
34028SOL    HW1 6769   1.658   0.366   0.209  0.8729 -0.2514  0.3016
34028SOL    HW2 6770   1.770   0.303   0.129  1.5998  1.0759  0.2480
34029SOL     OW 6771  11.142   5.085  11.279  0.5467  0.0601 -0.4360
34029SOL    HW1 6772  11.163   5.175  11.252  1.0454 -0.1387 -0.7418
34029SOL    HW2 6773  11.211   5.032  11.238 -0.4426 -0.6030 -1.2632
34030SOL     OW 6774   8.374   5.010   9.514  0.0581  0.9832 -0.7429
34030SOL    HW1 6775   8.366   5.082   9.577 -0.5136 -0.0481  0.4070
34030SOL    HW2 6776   8.287   4.969   9.514 -0.2541  1.5031 -2.9240
34031SOL     OW 6777   2.821   4.603   8.554  0.5166  0.8883 -0.6250
34031SOL    HW1 6778   2.808   4.545   8.629  0.5758  1.9417  0.2224
34031SOL    HW2 6779   2.824   4.691   8.591 -0.9498  1.5953 -2.0147
34032SOL     OW 6780   1.369   6.225   4.494 -0.2111  0.6224 -0.1038
34032SOL    HW1 6781   1.330   6.230   4.581 -0.7423  0.2025 -0.3155
34032SOL    HW2 6782   1.295   6.234   4.434 -0.2616 -1.8126 -0.5164
34033SOL     OW 6783   9.960   6.745   0.601  0.0199 -0.4785  0.4258
34033SOL    HW1 6784   9.978   6.665   0.650 -1.2536 -0.6789  0.6126
34033SOL    HW2 6785  10.032   6.804   0.622  1.0940 -1.6387  0.1207
34034SOL     OW 6786   2.120   7.536  11.914  0.7238  0.4203 -0.8617
34034SOL    HW1 6787   2.051   7.478  11.945 -0.5514  2.5513  0.5762
34034SOL    HW2 6788   2.176   7.550  11.990  1.0509  1.0138 -1.1988
34035SOL     OW 6789   7.434   3.336   9.395 -0.7070 -0.0431  0.1078
34035SOL    HW1 6790   7.420   3.392   9.471 -1.4258  3.0147 -2.0623
34035SOL    HW2 6791   7.381   3.258   9.413  0.6099 -0.3459  3.4348
34036SOL     OW 6792   5.018   1.124  10.147  0.2154 -0.1305 -0.0700
34036SOL    HW1 6793   4.939   1.083  10.182  1.2683 -2.0292  0.2654
34036SOL    HW2 6794   5.045   1.066  10.075  0.9372  0.8504 -0.6083
34037SOL     OW 6795   7.821   9.964   3.991 -0.0948 -0.7412  0.7118
34037SOL    HW1 6796   7.861   9.899   3.933  0.9985  0.8943 -0.4721
34037SOL    HW2 6797   7.879   9.969   4.066  0.1779 -0.6875  0.4999
34038SOL     OW 6798   4.253   6.441   9.957 -0.6911  0.3135  0.5749
34038SOL    HW1 6799   4.302   6.396  10.025 -0.2612  0.4519  0.3606
34038SOL    HW2 6800   4.175   6.387   9.943  0.5300 -1.1923 -0.7297
34039SOL     OW 6801   9.812   3.850   6.508  0.5792  0.3994 -0.6730
34039SOL    HW1 6802   9.764   3.876   6.429  0.0857  0.8504 -0.2349
34039SOL    HW2 6803   9.874   3.784   6.478  2.7449  2.8837 -2.1149
34040SOL     OW 6804   1.748   7.379   1.791 -0.0188  0.5441  0.2883
34040SOL    HW1 6805   1.733   7.293   1.829 -1.0016  1.0780  1.1742
34040SOL    HW2 6806   1.839   7.400   1.814  0.2317 -0.2451  0.0532
34041SOL     OW 6807   1.732  11.091   8.603  0.4642 -0.2882 -1.1177
34041SOL    HW1 6808   1.750  11.011   8.652 -3.4812  0.4676  2.1173
34041SOL    HW2 6809   1.760  11.161   8.661 -2.8262  0.6314 -0.4252
34042SOL     OW 6810  10.970   0.101  10.286  0.2317  0.5489  0.2711
34042SOL    HW1 6811  10.881   0.068  10.274  1.0409 -1.7184 -0.0673
34042SOL    HW2 6812  10.993   0.077  10.375  0.5502  1.0234  0.3200
34043SOL     OW 6813   5.984   1.146  11.307  0.0782 -0.2656  0.1231
34043SOL    HW1 6814   6.044   1.218  11.326  0.2752 -0.8013  1.6541
34043SOL    HW2 6815   6.038   1.083  11.259  0.1293  0.1964 -0.4523
34044SOL     OW 6816   5.321   3.525  10.226  0.2416 -0.1184  0.1109
34044SOL    HW1 6817   5.400   3.483  10.191 -0.0245  0.5014 -1.2848
34044SOL    HW2 6818   5.349   3.613  10.250  0.3533 -0.4451  1.2146
34045SOL     OW 6819   0.001   0.779   1.452 -0.1385 -0.2747  0.5527
34045SOL    HW1 6820   0.065   0.719   1.413 -1.7038 -0.8447 -1.2555
34045SOL    HW2 6821  -0.056   0.722   1.503 -0.3659 -0.0257  0.5750
34046SOL     OW 6822   7.696   8.768  10.485  0.3396  0.5696  0.2774
34046SOL    HW1 6823   7.757   8.831  10.446  0.3947 -0.0146 -0.5978
34046SOL    HW2 6824   7.730   8.754  10.573  0.0188  2.1766  0.7024
34047SOL     OW 6825   4.801   3.624   1.400 -0.2743  0.0526 -0.3187
34047SOL    HW1 6826   4.752   3.649   1.323 -2.6238 -2.4006  0.2328
34047SOL    HW2 6827   4.871   3.567   1.367 -0.4943  0.0202 -0.7280
34048SOL     OW 6828  11.966  11.246   2.215 -0.1014 -0.1193  0.3714
34048SOL    HW1 6829  11.925  11.307   2.276 -0.5641 -1.3965  1.3667
34048SOL    HW2 6830  12.057  11.239   2.245 -0.9877 -3.0608  2.9637
34049SOL     OW 6831   9.607   3.438   9.960  0.0484  0.0392  0.5672
34049SOL    HW1 6832   9.615   3.523  10.001 -0.7229 -0.6757  2.2784
34049SOL    HW2 6833   9.693   3.422   9.920  0.2344  1.5336  0.3043
34050SOL     OW 6834   9.119  10.640   1.030 -0.1237  0.2068 -0.0038
34050SOL    HW1 6835   9.142  10.566   1.087 -0.3753  0.9970  1.1457
34050SOL    HW2 6836   9.042  10.610   0.983 -1.3066  0.3335  1.7482
34051SOL     OW 6837  10.371   1.007   4.714 -0.1630 -0.1944  0.6556
34051SOL    HW1 6838  10.333   1.026   4.800 -1.7885  1.3392 -0.3413
34051SOL    HW2 6839  10.338   1.076   4.657  1.4282 -0.7780 -1.0816
34052SOL     OW 6840   8.298  11.963  11.824  0.0496 -0.2889 -0.6601
34052SOL    HW1 6841   8.376  11.942  11.875 -0.3637  3.3433  1.8227
34052SOL    HW2 6842   8.327  12.028  11.760 -0.9777  1.9307  1.0075
34053SOL     OW 6843   4.067   5.315   9.066  0.4194 -0.1471 -0.2204
34053SOL    HW1 6844   3.982   5.355   9.047 -0.8129 -1.7789  1.4370
34053SOL    HW2 6845   4.047   5.248   9.132  3.1781  0.1615  1.0589
34054SOL     OW 6846   8.437   8.890   2.596 -0.3002  0.4725  0.1718
34054SOL    HW1 6847   8.400   8.930   2.674 -0.2438  1.2055 -0.1650
34054SOL    HW2 6848   8.528   8.921   2.594  0.3427 -1.2466  0.9518
34055SOL     OW 6849   7.454   3.793   8.208  0.5367  0.4975  0.0058
34055SOL    HW1 6850   7.426   3.809   8.118  0.3762 -2.1633 -0.5048
34055SOL    HW2 6851   7.373   3.789   8.259  0.3259 -1.2819 -0.3937
34056SOL     OW 6852   0.194  11.132   8.152  0.3568 -0.6828  0.0880
34056SOL    HW1 6853   0.155  11.152   8.237 -0.2499 -0.0755 -0.3229
34056SOL    HW2 6854   0.182  11.037   8.142  0.1539 -0.7077  0.5388
34057SOL     OW 6855   0.812   8.213  11.399 -0.0372 -0.0751 -0.2541
34057SOL    HW1 6856   0.818   8.118  11.393 -0.5245 -0.0192 -2.7221
34057SOL    HW2 6857   0.723   8.234  11.372 -0.1740  1.0805  0.9438
34058SOL     OW 6858   1.711   1.903   6.222 -0.8399  0.0199 -0.1782
34058SOL    HW1 6859   1.706   1.894   6.317 -3.0319 -1.2558 -0.3613
34058SOL    HW2 6860   1.682   1.819   6.187  0.1786  0.3570 -2.0108
34059SOL     OW 6861   5.187   6.320   0.746 -0.0741 -0.9588 -0.5194
34059SOL    HW1 6862   5.092   6.324   0.756 -0.0690  0.0887 -0.7369
34059SOL    HW2 6863   5.201   6.265   0.669 -0.5218 -0.7119 -0.7805
34060SOL     OW 6864  11.826   7.723  11.775 -0.1378 -0.1079  0.2823
34060SOL    HW1 6865  11.793   7.641  11.812 -0.8789 -0.0245 -0.1775
34060SOL    HW2 6866  11.921   7.713  11.776 -0.0876  0.0965  2.6462
34061SOL     OW 6867   2.666   6.101   8.418 -0.1135 -0.1149 -0.0247
34061SOL    HW1 6868   2.674   6.120   8.324 -0.8970  0.5565  0.0242
34061SOL    HW2 6869   2.669   6.006   8.424 -0.5272 -0.1830 -0.7898
34062SOL     OW 6870   5.103   0.358   6.476  0.1409  0.1699 -0.3344
34062SOL    HW1 6871   5.178   0.399   6.520  1.5407  0.5188 -2.8268
34062SOL    HW2 6872   5.138   0.275   6.444 -0.8695 -0.1448 -0.6520
34063SOL     OW 6873   8.401   4.554   8.664  0.2342 -0.2127  0.3959
34063SOL    HW1 6874   8.432   4.643   8.684  1.9197 -0.5748 -0.4765
34063SOL    HW2 6875   8.306   4.559   8.677  0.1609  1.9656 -0.5117
34064SOL     OW 6876   5.676   6.444   1.036 -0.7438  0.0682  0.0769
34064SOL    HW1 6877   5.647   6.452   0.945 -0.3264 -0.8279 -0.1401
34064SOL    HW2 6878   5.639   6.361   1.066  0.1771 -0.2647  0.3250
34065SOL     OW 6879   4.773  11.758   8.505  0.0414  0.4428  0.1766
34065SOL    HW1 6880   4.848  11.700   8.489  0.4976  1.0613  0.0362
34065SOL    HW2 6881   4.768  11.764   8.600 -0.4631 -0.4011  0.2117
34066SOL     OW 6882   5.750   5.622   0.671 -0.4711  0.3356  0.2570
34066SOL    HW1 6883   5.842   5.598   0.672 -0.2783  1.0376  1.3477
34066SOL    HW2 6884   5.741   5.682   0.596  0.0222  0.4826  0.3145
34067SOL     OW 6885   2.524  10.437   5.730 -0.7862 -0.2579 -0.4009
34067SOL    HW1 6886   2.561  10.502   5.671 -0.7486 -0.2757 -0.3957
34067SOL    HW2 6887   2.431  10.460   5.736 -0.3080  1.4732  1.7386
34068SOL     OW 6888  10.254   9.102   8.621  0.0503 -0.5046  0.3041
34068SOL    HW1 6889  10.188   9.040   8.650 -0.2591 -0.1937  0.2645
34068SOL    HW2 6890  10.305   9.123   8.700  0.4767 -1.1884  0.2213
34069SOL     OW 6891   3.498   4.577   1.149  0.4750 -0.1512 -0.4331
34069SOL    HW1 6892   3.533   4.666   1.155 -2.0203  0.9342 -0.6748
34069SOL    HW2 6893   3.475   4.567   1.057 -2.3544  0.3182  0.1316
34070SOL     OW 6894   7.900  10.413   6.296  0.3428 -0.0107 -0.2970
34070SOL    HW1 6895   7.907  10.409   6.201  1.4808  1.9466 -0.3530
34070SOL    HW2 6896   7.809  10.389   6.315  0.1047 -0.4244 -1.8741
34071SOL     OW 6897   1.079   8.627   6.311 -0.0085  0.0182 -0.2762
34071SOL    HW1 6898   1.071   8.679   6.391  0.5070 -0.2627 -0.0373
34071SOL    HW2 6899   0.989   8.599   6.291 -0.1034 -0.1481  0.3612
34072SOL     OW 6900   0.833   8.203   8.378  0.4309  0.4855 -0.6447
34072SOL    HW1 6901   0.750   8.185   8.421 -0.6521  1.7342 -2.0949
34072SOL    HW2 6902   0.889   8.238   8.447 -0.6833  0.8644  0.0931
34073SOL     OW 6903   4.158   6.037   9.084  0.1379 -0.1312 -1.1533
34073SOL    HW1 6904   4.182   5.946   9.102  1.3529  0.4541  0.3668
34073SOL    HW2 6905   4.074   6.031   9.039 -1.2844 -1.9391  1.4674
34074SOL     OW 6906   5.445   7.751  10.373  0.3509  0.3161 -0.1344
34074SOL    HW1 6907   5.461   7.657  10.371  2.1209  0.4686  2.1357
34074SOL    HW2 6908   5.354   7.760  10.401  0.2147 -0.7158 -0.2292
34075SOL     OW 6909  10.952   3.340  10.250 -0.1200  0.5225  0.2855
34075SOL    HW1 6910  11.021   3.362  10.188  0.0913  0.2126  0.4104
34075SOL    HW2 6911  10.932   3.423  10.294 -1.0020  0.9783 -0.9143
34076SOL     OW 6912  10.870   4.560   8.550  0.1289 -0.3744  0.1806
34076SOL    HW1 6913  10.848   4.609   8.471 -2.3858 -3.4821 -1.2717
34076SOL    HW2 6914  10.958   4.525   8.533  0.3175  0.3797 -0.4551
34077SOL     OW 6915   3.951   3.549   0.645 -0.0247  0.2891 -0.2616
34077SOL    HW1 6916   3.932   3.464   0.605 -1.7132 -0.6240  2.2230
34077SOL    HW2 6917   3.866   3.583   0.670  0.8286  1.4878  1.1594
34078SOL     OW 6918   8.033   0.108   0.090 -0.0807 -0.0584 -0.1092
34078SOL    HW1 6919   7.984   0.164   0.030  1.7128  0.7092 -0.9165
34078SOL    HW2 6920   8.036   0.158   0.172 -1.4590 -0.5634  0.2882
34079SOL     OW 6921  10.213   5.624   6.017  0.2530  0.1958 -0.2010
34079SOL    HW1 6922  10.139   5.614   5.957  0.8497  1.3649 -1.1739
34079SOL    HW2 6923  10.289   5.633   5.959  1.0673 -0.2481  0.7677
34080SOL     OW 6924   4.710   2.114   9.532  0.0716  0.0363  0.4534
34080SOL    HW1 6925   4.660   2.193   9.512  0.8003  0.1305 -1.2337
34080SOL    HW2 6926   4.734   2.079   9.446  1.3734 -0.9653  1.1816
34081SOL     OW 6927   1.831   1.264   3.897  0.1100 -0.0016 -0.1605
34081SOL    HW1 6928   1.749   1.233   3.934 -0.2252  0.0594 -0.8294
34081SOL    HW2 6929   1.872   1.315   3.967 -0.1508 -0.5069  0.3605
34082SOL     OW 6930   3.193   1.842   2.980  0.2605  0.3219  0.1433
34082SOL    HW1 6931   3.104   1.878   2.977  0.7765  1.7000  0.7802
34082SOL    HW2 6932   3.203   1.797   2.896 -1.4340 -0.8863  0.5125
34083SOL     OW 6933   1.004   7.220   6.533  0.2343 -0.1070 -0.0482
34083SOL    HW1 6934   1.065   7.237   6.461 -0.6295  0.3664 -0.6864
34083SOL    HW2 6935   0.959   7.139   6.508  0.2263 -0.1648  0.1533
34084SOL     OW 6936   9.739  11.566   1.259  0.1071 -0.3101 -0.7087
34084SOL    HW1 6937   9.807  11.557   1.326 -0.2943 -0.2507 -0.2933
34084SOL    HW2 6938   9.751  11.489   1.202  0.0387 -0.6989 -0.2017
34085SOL     OW 6939   6.992   8.577   9.056 -0.0021  0.0805  0.4908
34085SOL    HW1 6940   7.083   8.550   9.048 -0.4495 -1.0041 -1.5915
34085SOL    HW2 6941   6.942   8.496   9.057 -0.9939  0.6751  0.8367
34086SOL     OW 6942   6.503   6.070   9.669  0.2644 -0.1283  0.6629
34086SOL    HW1 6943   6.551   6.137   9.718 -0.5866 -0.2484  1.6983
34086SOL    HW2 6944   6.465   6.117   9.596  0.6744  0.2752  0.7015
34087SOL     OW 6945   2.923   6.127   9.378 -0.1610 -0.1104 -0.5628
34087SOL    HW1 6946   2.969   6.201   9.418  0.7095  0.5083 -2.5935
34087SOL    HW2 6947   2.830   6.144   9.395  0.0666  1.1188 -0.4906
34088SOL     OW 6948   9.365  11.713   8.616  0.5856 -0.0311  0.0125
34088SOL    HW1 6949   9.428  11.740   8.682  0.4099  0.6779 -0.0932
34088SOL    HW2 6950   9.401  11.746   8.533 -0.7923  2.0534  0.1677
34089SOL     OW 6951   3.440   6.747  11.411 -0.2822  0.0740  0.1946
34089SOL    HW1 6952   3.470   6.685  11.478  0.5008  1.4638  1.1790
34089SOL    HW2 6953   3.491   6.724  11.334  0.4357 -0.1386  0.7143
34090SOL     OW 6954   4.388  11.876  11.151 -0.3077  0.1114  0.2271
34090SOL    HW1 6955   4.350  11.853  11.235  1.1205  0.5747  1.0242
34090SOL    HW2 6956   4.320  11.928  11.107 -1.0151 -0.0421  1.1344
34091SOL     OW 6957   2.349   1.978   5.187  0.1317 -0.4072 -0.5314
34091SOL    HW1 6958   2.302   1.895   5.192  1.1106 -0.9805 -0.4660
34091SOL    HW2 6959   2.431   1.956   5.142  0.2279  0.6074 -0.8745
34092SOL     OW 6960   5.233  11.198   2.414 -0.2341  0.9309  0.3181
34092SOL    HW1 6961   5.147  11.178   2.378  0.9261  1.8339 -3.4362
34092SOL    HW2 6962   5.234  11.156   2.500 -4.1335  0.3856  0.2710
34093SOL     OW 6963   5.048   2.330   3.690 -0.0564 -0.5254 -0.1018
34093SOL    HW1 6964   5.081   2.280   3.616 -0.3519 -1.8735  0.6329
34093SOL    HW2 6965   4.961   2.292   3.707 -2.0206  2.7716 -1.8765
34094SOL     OW 6966   3.382   0.266   5.311 -0.1817  0.0732  0.5083
34094SOL    HW1 6967   3.423   0.189   5.351  0.0920 -1.2702 -2.1583
34094SOL    HW2 6968   3.446   0.336   5.320  2.1280 -1.5337 -2.0255
34095SOL     OW 6969   5.262   9.340   9.617  0.1004 -0.8094 -1.0866
34095SOL    HW1 6970   5.335   9.302   9.566  0.5447 -0.9337 -0.3749
34095SOL    HW2 6971   5.304   9.405   9.673 -0.2994 -1.0889 -0.4590
34096SOL     OW 6972   1.801   6.962   5.739 -0.0123 -0.0597 -0.2681
34096SOL    HW1 6973   1.852   6.966   5.821  1.2391 -0.9904 -0.9604
34096SOL    HW2 6974   1.733   6.898   5.757  0.4168 -0.4598 -0.0333
34097SOL     OW 6975   5.073   9.946   1.531 -0.0254  0.4293  0.7119
34097SOL    HW1 6976   5.015   9.977   1.461 -0.6552 -1.2831  0.4385
34097SOL    HW2 6977   5.159   9.941   1.489 -0.5563 -1.4639 -0.2732
34098SOL     OW 6978  11.986   7.689   8.403  0.2777  0.6819  0.2970
34098SOL    HW1 6979  11.979   7.757   8.337  4.5451  1.4713  0.4235
34098SOL    HW2 6980  11.950   7.610   8.361 -0.3426  1.9186 -1.5822
34099SOL     OW 6981   6.052   1.531   6.059  0.2594 -0.2447  0.1338
34099SOL    HW1 6982   6.143   1.508   6.042  0.8083  0.3051  2.0051
34099SOL    HW2 6983   6.053   1.626   6.069 -0.3563 -0.3108  0.9547
34100SOL     OW 6984   9.494   0.891  10.698  0.6018 -0.0213  0.9803
34100SOL    HW1 6985   9.457   0.857  10.779  1.2245  1.4830  1.9431
34100SOL    HW2 6986   9.576   0.842  10.686  0.3491 -0.4687  1.0811
34101SOL     OW 6987   6.138  11.491   9.956  0.1859 -0.2958  0.1832
34101SOL    HW1 6988   6.152  11.488  10.051  0.1946  0.5783  0.2212
34101SOL    HW2 6989   6.110  11.403   9.933 -2.3114  0.0760  1.4135
34102SOL     OW 6990   5.788  10.298   9.697  0.3761 -0.0479  0.7590
34102SOL    HW1 6991   5.830  10.369   9.649 -0.5148  1.2653  1.8360
34102SOL    HW2 6992   5.697  10.299   9.666  0.2604 -0.4459  1.0814
34103SOL     OW 6993   6.762  10.385  11.913 -0.1729  0.5956  0.0850
34103SOL    HW1 6994   6.730  10.295  11.920 -0.2887  0.7567  2.3722
34103SOL    HW2 6995   6.837  10.380  11.854 -0.1351 -1.0097  0.2377
34104SOL     OW 6996  11.198   6.294   2.294  0.1272 -0.3126  0.3749
34104SOL    HW1 6997  11.268   6.285   2.360  1.7978 -1.9656 -1.4808
34104SOL    HW2 6998  11.148   6.213   2.302 -0.4925  0.0749  0.4727
34105SOL     OW 6999   8.674   3.820   5.256  0.3680 -0.2479  0.0912
34105SOL    HW1 7000   8.667   3.764   5.178  1.0012  0.1415 -0.2554
34105SOL    HW2 7001   8.597   3.877   5.251 -0.4078 -1.2163  0.5689
34106SOL     OW 7002   5.021   3.571   9.306 -0.2960 -0.0366  0.5193
34106SOL    HW1 7003   4.926   3.576   9.297 -0.1366  0.2713 -1.4487
34106SOL    HW2 7004   5.052   3.545   9.219  1.5953  2.7271  0.2290
34107SOL     OW 7005   7.334   2.751   6.474  0.5352 -0.8205 -0.3456
34107SOL    HW1 7006   7.252   2.768   6.521 -0.6917 -2.5182 -1.7354
34107SOL    HW2 7007   7.337   2.820   6.407  0.9489  0.0383  0.5402
34108SOL     OW 7008   5.841   4.440   8.533  0.4743 -0.3214 -0.6728
34108SOL    HW1 7009   5.874   4.506   8.594 -1.1421 -1.3882  1.4876
34108SOL    HW2 7010   5.891   4.454   8.452 -0.5018  4.2082 -0.7359
34109SOL     OW 7011   0.930  10.785   8.351 -0.1183 -0.3320 -0.0457
34109SOL    HW1 7012   0.933  10.730   8.273 -0.4106 -0.7313  0.2218
34109SOL    HW2 7013   0.893  10.728   8.419 -1.1065  0.4065  0.0595
34110SOL     OW 7014   4.879   5.764   8.720  0.4153  0.0407  0.2987
34110SOL    HW1 7015   4.919   5.744   8.804  0.6047  0.5876  0.3470
34110SOL    HW2 7016   4.897   5.688   8.665 -0.2386 -0.5815  0.9312
34111SOL     OW 7017   4.551   6.341   4.842 -0.0117  0.5485 -0.1405
34111SOL    HW1 7018   4.508   6.294   4.770 -1.6795  2.4077 -0.4628
34111SOL    HW2 7019   4.500   6.319   4.919 -1.5111  2.5619 -0.4797
34112SOL     OW 7020   1.676   2.537   1.450  0.2128  0.5217  0.4402
34112SOL    HW1 7021   1.762   2.552   1.410 -0.5316 -1.3859 -2.0907
34112SOL    HW2 7022   1.693   2.470   1.517  0.8543  0.9244  0.6919
34113SOL     OW 7023   4.341   6.910   9.180  0.2625 -0.3088 -0.5598
34113SOL    HW1 7024   4.270   6.954   9.227  0.5982 -0.1312 -0.2128
34113SOL    HW2 7025   4.303   6.827   9.151  0.0252 -0.3871 -0.0370
34114SOL     OW 7026  10.897  10.225   4.531  0.6295 -0.3288 -0.1413
34114SOL    HW1 7027  10.910  10.319   4.541  0.1413 -0.0752 -1.6680
34114SOL    HW2 7028  10.867  10.214   4.441  1.6462 -2.0514 -0.3117
34115SOL     OW 7029   0.166   0.754   3.434 -0.4757  0.2151 -0.2850
34115SOL    HW1 7030   0.258   0.779   3.438 -0.2954  0.2181 -2.8321
34115SOL    HW2 7031   0.167   0.664   3.401 -1.3778 -0.0644  0.4115
34116SOL     OW 7032  11.109   8.407   6.266  0.1953  0.5986  0.3722
34116SOL    HW1 7033  11.203   8.394   6.275  0.2353  0.4716 -0.1784
34116SOL    HW2 7034  11.094   8.408   6.171 -0.3546  0.6148  0.4558
34117SOL     OW 7035   6.762   7.878   9.826 -0.0765 -0.0404  0.4285
34117SOL    HW1 7036   6.832   7.816   9.849 -0.1155 -0.4393 -0.4987
34117SOL    HW2 7037   6.757   7.874   9.731 -0.0498  1.4293  0.3383
34118SOL     OW 7038   0.588   0.966   9.958 -0.2265  0.2155 -0.0678
34118SOL    HW1 7039   0.675   1.001   9.938  0.3664  0.1623  2.2009
34118SOL    HW2 7040   0.536   0.986   9.880  1.8921 -0.0929 -1.6477
34119SOL     OW 7041   3.151  11.654  11.503 -0.0639 -0.5833  0.4324
34119SOL    HW1 7042   3.185  11.661  11.593  1.3229  1.0436 -0.1658
34119SOL    HW2 7043   3.224  11.617  11.453  0.6785  2.2447 -0.7422
34120SOL     OW 7044   4.127   4.193   7.510 -0.4883  0.1694  0.6971
34120SOL    HW1 7045   4.095   4.283   7.503 -0.7932  0.0704  0.8219
34120SOL    HW2 7046   4.050   4.141   7.532 -1.1124 -0.6874 -2.8199
34121SOL     OW 7047   5.942   4.982   0.377 -0.2596 -0.2898  0.2179
34121SOL    HW1 7048   5.859   4.941   0.403  0.2914 -0.3983  1.9162
34121SOL    HW2 7049   5.942   5.066   0.422  0.8201 -0.5621  0.7484
34122SOL     OW 7050   9.248   9.794   0.078 -0.5336  0.0188 -0.2429
34122SOL    HW1 7051   9.290   9.803   0.164 -2.5152  1.4773  0.6390
34122SOL    HW2 7052   9.171   9.740   0.094 -0.7691  0.0511 -1.1988
34123SOL     OW 7053  11.326   2.130   7.296 -0.3893  0.1716  0.3154
34123SOL    HW1 7054  11.233   2.146   7.285 -0.6874 -1.2413  0.5686
34123SOL    HW2 7055  11.331   2.049   7.348  0.9679 -0.2344 -0.3836
34124SOL     OW 7056  11.532   5.086   9.519  0.1050 -0.1345  0.0323
34124SOL    HW1 7057  11.591   5.161   9.510 -0.8681  0.3982 -2.6752
34124SOL    HW2 7058  11.476   5.108   9.594  0.4260  1.4058 -0.1559
34125SOL     OW 7059   8.619   8.347  10.540 -0.3127  1.0214 -0.2807
34125SOL    HW1 7060   8.596   8.397  10.619  0.1127  0.9402 -0.1041
34125SOL    HW2 7061   8.713   8.332  10.548 -0.8655 -2.7138  1.3996
34126SOL     OW 7062   6.444   1.109   9.678 -0.7969 -0.0130  0.4667
34126SOL    HW1 7063   6.475   1.022   9.700  0.9005  0.9095  2.0747
34126SOL    HW2 7064   6.523   1.163   9.674 -1.6595  1.2120 -1.8808
34127SOL     OW 7065   4.179   7.739   1.406  0.4375 -0.1634  0.3125
34127SOL    HW1 7066   4.179   7.698   1.319 -1.7425 -1.5271  0.8956
34127SOL    HW2 7067   4.205   7.669   1.466 -0.8789 -0.0386  1.0577
34128SOL     OW 7068   2.343   8.666   9.169  0.3563 -0.0879 -0.2181
34128SOL    HW1 7069   2.310   8.584   9.205 -0.9916  0.4279 -0.2239
34128SOL    HW2 7070   2.397   8.703   9.239 -0.7512  0.0338  0.5867
34129SOL     OW 7071   8.901   6.260  10.020 -0.2682  0.2793 -0.3349
34129SOL    HW1 7072   8.877   6.291  10.107 -2.8101 -0.4438 -0.7223
34129SOL    HW2 7073   8.867   6.327   9.960  0.7640  0.3749 -0.8454
34130SOL     OW 7074   5.311   7.889   0.484  0.0285  0.3662 -0.2478
34130SOL    HW1 7075   5.310   7.905   0.578  0.2939  1.3250 -0.3937
34130SOL    HW2 7076   5.378   7.822   0.471  0.6183  0.8656  0.1625
34131SOL     OW 7077   0.646  10.903   8.066 -0.0444 -0.6510 -0.1833
34131SOL    HW1 7078   0.587  10.895   7.991  1.3892 -0.9768 -1.3437
34131SOL    HW2 7079   0.732  10.923   8.026  0.1567  2.6297  1.5547
34132SOL     OW 7080  10.283   6.111   6.373 -0.0106  0.1810  0.1702
34132SOL    HW1 7081  10.201   6.061   6.370 -0.5540  1.0840 -0.6565
34132SOL    HW2 7082  10.316   6.108   6.284  0.9176 -0.2504  0.5228
34133SOL     OW 7083   4.862   9.613   0.792  0.1189 -0.9212  0.0956
34133SOL    HW1 7084   4.809   9.618   0.872  0.3856 -0.8768  0.2746
34133SOL    HW2 7085   4.928   9.682   0.804  0.2411 -1.0046 -0.1027
34134SOL     OW 7086   7.604  11.198   5.883 -1.0908 -0.5235  0.1783
34134SOL    HW1 7087   7.639  11.190   5.972  0.8974  0.8549 -0.4230
34134SOL    HW2 7088   7.626  11.114   5.842  1.0306  0.0415  0.0287
34135SOL     OW 7089   2.337   4.953   6.605 -0.5326 -0.4509 -0.0822
34135SOL    HW1 7090   2.299   4.866   6.593 -2.8607  0.4287  0.5026
34135SOL    HW2 7091   2.267   5.014   6.583  0.5295  1.2897  1.1055
34136SOL     OW 7092  11.939   4.766   8.607  0.7922 -0.3670 -0.4381
34136SOL    HW1 7093  12.017   4.731   8.649 -0.7054 -0.7876  2.2251
34136SOL    HW2 7094  11.870   4.702   8.626 -0.3715  0.3164 -2.0908
34137SOL     OW 7095   9.648   4.909   3.504 -0.0821 -0.0446 -0.9636
34137SOL    HW1 7096   9.690   4.849   3.442 -0.6870 -1.2414 -0.2637
34137SOL    HW2 7097   9.568   4.864   3.530 -0.2685  0.8191  0.0179
34138SOL     OW 7098   4.497   3.607   1.791  0.5995 -0.5876  0.0459
34138SOL    HW1 7099   4.562   3.671   1.760 -0.2844  0.2159 -0.2001
34138SOL    HW2 7100   4.438   3.595   1.717 -0.6001  0.1214  0.8459
34139SOL     OW 7101   1.099   6.638   2.972 -0.0150 -0.4151 -0.1612
34139SOL    HW1 7102   1.006   6.651   2.993 -0.1116  1.1450 -1.3864
34139SOL    HW2 7103   1.142   6.718   3.001  0.9994 -1.1863  0.5345
34140SOL     OW 7104   7.998   5.835   0.532  1.0798 -0.1119  0.5116
34140SOL    HW1 7105   7.979   5.760   0.588  1.0189 -0.8349 -0.4545
34140SOL    HW2 7106   7.998   5.799   0.443  0.2945  1.1709 -0.0381
34141SOL     OW 7107   4.181   3.725   3.609  0.1841 -0.2785 -0.2998
34141SOL    HW1 7108   4.197   3.809   3.566  1.3903  0.0120  0.6681
34141SOL    HW2 7109   4.212   3.737   3.699 -1.1728 -1.2454  0.3378
34142SOL     OW 7110  10.807   0.004   9.704 -0.0340  0.2601  0.3209
34142SOL    HW1 7111  10.712   0.007   9.718  0.0565 -0.4815  1.1568
34142SOL    HW2 7112  10.838  -0.062   9.765  0.8952 -0.3117 -0.7445
34143SOL     OW 7113   1.164  11.538   5.798  0.3801 -0.0662  0.4890
34143SOL    HW1 7114   1.183  11.621   5.753 -1.7691  0.4401  0.4316
34143SOL    HW2 7115   1.214  11.472   5.750  0.2543  0.8495 -0.9418
34144SOL     OW 7116   3.881  11.559  10.252 -0.1888 -0.1749 -0.4027
34144SOL    HW1 7117   3.905  11.608  10.173 -0.0120  1.0201  0.3566
34144SOL    HW2 7118   3.937  11.482  10.250  0.3217  0.1953 -1.0870
34145SOL     OW 7119   5.516   3.125   5.821  0.0397 -0.1532 -0.5466
34145SOL    HW1 7120   5.562   3.162   5.896  1.2065  0.4371 -1.5360
34145SOL    HW2 7121   5.545   3.034   5.818 -1.7329 -0.8538  1.0188
34146SOL     OW 7122  11.447   6.636  11.612  0.1402 -0.0115  0.2339
34146SOL    HW1 7123  11.417   6.555  11.569 -0.8798 -0.6618  2.0331
34146SOL    HW2 7124  11.517   6.668  11.556 -0.8203 -1.0165 -1.6521
34147SOL     OW 7125  11.502   8.935   1.545  0.2093  0.2365 -0.0586
34147SOL    HW1 7126  11.504   8.992   1.468 -2.6638  1.3338  0.5515
34147SOL    HW2 7127  11.434   8.870   1.524 -1.0524  0.9147  1.7205
34148SOL     OW 7128   0.787   0.483  11.485 -0.4946  0.6427  0.4087
34148SOL    HW1 7129   0.869   0.513  11.445 -0.5883  1.5853  0.9021
34148SOL    HW2 7130   0.778   0.393  11.455 -0.5612  1.3016 -1.7213
34149SOL     OW 7131   5.869  10.392   2.669 -0.6884 -0.0380 -0.5835
34149SOL    HW1 7132   5.894  10.307   2.705 -1.2836 -0.7260 -1.7332
34149SOL    HW2 7133   5.951  10.429   2.635 -0.5910 -0.6319 -1.0212
34150SOL     OW 7134   9.303   8.582   0.417 -0.1147  0.0646  0.0261
34150SOL    HW1 7135   9.364   8.647   0.382  0.7308 -0.9071 -0.3536
34150SOL    HW2 7136   9.218   8.604   0.378  0.1981  0.8236 -0.2308
34151SOL     OW 7137  11.167  11.680   2.124 -0.2630  0.0659  0.3806
34151SOL    HW1 7138  11.250  11.640   2.098 -0.4501  0.1253 -0.3365
34151SOL    HW2 7139  11.191  11.744   2.191  0.1011 -0.8690  1.1662
34152SOL     OW 7140   1.337   4.497   7.768  0.0746 -0.5441  0.3706
34152SOL    HW1 7141   1.400   4.569   7.774 -0.7381  0.1285  1.0502
34152SOL    HW2 7142   1.351   4.461   7.680  0.8069  0.1509  0.1891
34153SOL     OW 7143   7.013   4.594   8.606  0.0772 -0.1525  0.3931
34153SOL    HW1 7144   7.100   4.632   8.622  0.7114  0.2415 -3.1448
34153SOL    HW2 7145   6.952   4.656   8.646  1.3453  1.1595  0.3908
34154SOL     OW 7146   0.492  11.352   6.175  0.3508  0.0502  0.1102
34154SOL    HW1 7147   0.408  11.371   6.134  1.5677  1.8709 -1.6916
34154SOL    HW2 7148   0.471  11.338   6.268 -1.7525  1.8986 -0.0245
34155SOL     OW 7149  11.127   6.948  11.043 -0.3833  0.1564 -0.3401
34155SOL    HW1 7150  11.135   6.873  11.102  0.4198  0.7379  0.3158
34155SOL    HW2 7151  11.124   7.024  11.101  1.7187  0.8477 -1.0413
34156SOL     OW 7152  10.345  11.890   4.526 -0.1350  0.3002 -0.0659
34156SOL    HW1 7153  10.322  11.798   4.537 -0.5291  0.4633  0.4944
34156SOL    HW2 7154  10.394  11.893   4.443 -1.2560 -0.2000 -0.7656
34157SOL     OW 7155   9.899   3.071   1.558 -0.0182 -0.1289 -0.0457
34157SOL    HW1 7156   9.955   3.098   1.631  0.2011 -0.2843 -0.1540
34157SOL    HW2 7157   9.955   3.078   1.481 -0.4593  0.7207 -0.3003
34158SOL     OW 7158  11.829   6.296  11.593  0.2240 -0.4342  0.3061
34158SOL    HW1 7159  11.901   6.282  11.532 -0.1240  1.1404 -0.5324
34158SOL    HW2 7160  11.852   6.246  11.670  1.7264 -0.7635 -0.3227
34159SOL     OW 7161   4.161  11.615   5.070  0.2279  0.3469  0.3154
34159SOL    HW1 7162   4.092  11.571   5.021  0.4622 -0.2828  0.5415
34159SOL    HW2 7163   4.222  11.545   5.093  1.4201  1.0078 -0.6709
34160SOL     OW 7164   8.788   6.546   3.545 -0.2380 -0.0292 -0.7840
34160SOL    HW1 7165   8.710   6.526   3.596 -0.2055 -0.2824 -0.8338
34160SOL    HW2 7166   8.861   6.516   3.599 -0.1948 -0.1629 -0.9169
34161SOL     OW 7167   4.296   7.442  10.998 -0.0593  0.1653 -0.0066
34161SOL    HW1 7168   4.317   7.525  11.042  2.8344 -1.1369  1.3464
34161SOL    HW2 7169   4.305   7.376  11.067 -2.0805 -1.3611 -1.0926
34162SOL     OW 7170   3.197   3.710   1.712  0.0759 -0.2661 -0.5165
34162SOL    HW1 7171   3.220   3.799   1.742  1.1293 -0.4107 -0.8675
34162SOL    HW2 7172   3.253   3.652   1.764  1.2189 -0.5756 -2.0541
34163SOL     OW 7173   7.321  10.534  10.824  0.6093 -0.2486  0.1886
34163SOL    HW1 7174   7.282  10.573  10.902  1.1846  0.5369  0.1000
34163SOL    HW2 7175   7.404  10.497  10.854 -0.7508 -3.1985  0.6825
34164SOL     OW 7176   1.665   4.215   6.900  0.3623  0.3989 -0.0823
34164SOL    HW1 7177   1.587   4.183   6.854 -1.5618  0.3863  2.9117
34164SOL    HW2 7178   1.701   4.137   6.944 -0.0742  0.9946  1.3917
34165SOL     OW 7179  10.361  10.610  10.765 -0.0755  0.3885  0.1656
34165SOL    HW1 7180  10.331  10.595  10.675 -1.6861  0.4807  0.6570
34165SOL    HW2 7181  10.341  10.702  10.782  0.8661  0.5588  0.3920
34166SOL     OW 7182   4.360   7.514   0.194  0.1982 -0.3050  0.3036
34166SOL    HW1 7183   4.280   7.461   0.189  1.7235 -2.7821  0.7117
34166SOL    HW2 7184   4.429   7.453   0.219  2.6542  1.2875 -1.9763
34167SOL     OW 7185  10.145   4.836   2.518 -0.0192  0.4223 -0.0151
34167SOL    HW1 7186  10.137   4.762   2.458  0.6013 -1.2171  1.7931
34167SOL    HW2 7187  10.203   4.897   2.474  1.1270 -1.1273 -0.7504
34168SOL     OW 7188   4.784   9.380   1.380  0.2337  0.3013 -0.3592
34168SOL    HW1 7189   4.756   9.363   1.290  1.1058 -0.2287 -0.5437
34168SOL    HW2 7190   4.873   9.346   1.384  0.7202  1.5665  0.3066
34169SOL     OW 7191   9.702   1.431   0.733  0.4589 -0.7172 -0.2797
34169SOL    HW1 7192   9.644   1.433   0.657 -1.2645 -1.0557  0.9692
34169SOL    HW2 7193   9.690   1.344   0.770  0.5036 -0.2344  0.9308
34170SOL     OW 7194  11.532   8.383  11.138  0.0788  0.3933  0.4910
34170SOL    HW1 7195  11.623   8.412  11.145  0.5087 -0.9062  0.6164
34170SOL    HW2 7196  11.536   8.288  11.154 -1.1953  0.1832 -0.2988
34171SOL     OW 7197   2.131   7.117   0.257  0.1722  0.6137 -0.4090
34171SOL    HW1 7198   2.156   7.048   0.319 -1.1494  1.0583  0.6870
34171SOL    HW2 7199   2.209   7.132   0.204  0.0582 -2.8219 -1.7806
34172SOL     OW 7200   0.028   0.656   0.132 -0.3311  0.1683 -0.7766
34172SOL    HW1 7201  -0.045   0.717   0.146  0.3516  1.7026 -3.3336
34172SOL    HW2 7202  -0.011   0.583   0.082 -0.4346  0.2169 -0.7676
34173SOL     OW 7203  11.793   3.715   5.259  0.8283  0.4200  0.3122
34173SOL    HW1 7204  11.762   3.639   5.210  1.1148  0.6879 -0.3003
34173SOL    HW2 7205  11.715   3.768   5.274  0.5890 -0.0938  0.9361
34174SOL     OW 7206   7.872   8.667   8.322  0.7276 -0.1663  0.0970
34174SOL    HW1 7207   7.814   8.613   8.376  0.4529  1.0754  1.0686
34174SOL    HW2 7208   7.946   8.689   8.379  0.7828  0.5856 -0.2493
34175SOL     OW 7209   2.616   8.526   3.146  0.4346 -0.0637  0.0822
34175SOL    HW1 7210   2.533   8.529   3.194  1.5572 -0.0923  2.1252
34175SOL    HW2 7211   2.683   8.520   3.214  2.1941  0.9396 -1.4644
34176SOL     OW 7212   0.305   2.041   7.482  0.5109  0.0973  0.3674
34176SOL    HW1 7213   0.310   2.109   7.415 -0.7249  1.1568  1.2918
34176SOL    HW2 7214   0.233   1.985   7.455  1.3495 -0.7169 -0.2466
34177SOL     OW 7215   1.276   5.560   9.435 -0.1600 -0.4115  0.3727
34177SOL    HW1 7216   1.183   5.549   9.417 -0.6230  1.3414  1.5009
34177SOL    HW2 7217   1.309   5.609   9.359 -0.4707  0.1644  0.5986
34178SOL     OW 7218   9.066   3.479   7.499 -0.6113 -0.0077  0.2432
34178SOL    HW1 7219   9.107   3.493   7.584 -1.0757  0.1015  0.4512
34178SOL    HW2 7220   9.122   3.415   7.455 -0.0370  0.3823  0.3935
34179SOL     OW 7221   6.947   9.820   2.957  0.3027 -0.1903  0.2229
34179SOL    HW1 7222   6.942   9.736   3.002  1.1670 -0.3950 -0.0440
34179SOL    HW2 7223   7.023   9.812   2.900  0.2727  0.7000  0.0452
34180SOL     OW 7224   3.210   4.983   0.438 -0.4459  0.1089  0.6273
34180SOL    HW1 7225   3.219   5.076   0.458  1.7990  0.0196  0.3037
34180SOL    HW2 7226   3.222   4.938   0.521  2.7617  0.0065  0.2484
34181SOL     OW 7227   6.123  11.664   0.505 -0.0695 -0.1573 -0.6188
34181SOL    HW1 7228   6.031  11.643   0.487 -0.1801 -0.1830 -0.0619
34181SOL    HW2 7229   6.152  11.595   0.564 -0.0796  0.5561  0.2423
34182SOL     OW 7230   0.939   5.995   7.644  0.1595  0.3536 -0.1058
34182SOL    HW1 7231   1.030   5.965   7.633  0.3074  1.2790 -1.6734
34182SOL    HW2 7232   0.895   5.966   7.564 -0.5238  1.2959 -0.0809
34183SOL     OW 7233   7.012   4.477  10.340 -0.2667  0.4559  0.2045
34183SOL    HW1 7234   7.053   4.413  10.282 -1.9496 -1.5695  1.1050
34183SOL    HW2 7235   6.987   4.426  10.417 -1.5741  2.2498  1.0278
34184SOL     OW 7236   1.909   4.573   6.190  0.5023  0.6159  0.5696
34184SOL    HW1 7237   1.828   4.622   6.176  1.3993  1.8836 -0.4232
34184SOL    HW2 7238   1.952   4.618   6.263 -0.7623 -1.5394  2.7594
34185SOL     OW 7239   1.755   1.986   5.931  0.1796  0.4049  0.3654
34185SOL    HW1 7240   1.731   1.984   6.023  2.4242 -0.0914  1.0017
34185SOL    HW2 7241   1.765   1.894   5.906  0.4221  0.5575 -0.1236
34186SOL     OW 7242   6.702   1.649   1.147  0.1147 -0.6243 -0.1562
34186SOL    HW1 7243   6.616   1.632   1.184  0.5513  0.3118  1.3940
34186SOL    HW2 7244   6.714   1.744   1.157  0.9839 -0.6147 -1.1329
34187SOL     OW 7245  11.568  11.911   4.910 -0.3344  0.5111 -0.4571
34187SOL    HW1 7246  11.598  11.870   4.991  0.8736  3.2846  0.6473
34187SOL    HW2 7247  11.610  11.998   4.911  0.3772  0.3991 -4.4614
34188SOL     OW 7248   4.786  10.457   3.149 -0.7343  0.4650 -0.1095
34188SOL    HW1 7249   4.879  10.468   3.168 -0.5504 -0.7018 -0.2995
34188SOL    HW2 7250   4.750  10.414   3.227 -0.5259 -1.7344 -1.1623
34189SOL     OW 7251   8.823  11.021   4.163 -0.6392  0.2464 -0.1083
34189SOL    HW1 7252   8.781  10.984   4.085  0.5536  1.0016 -1.1610
34189SOL    HW2 7253   8.761  11.004   4.234 -1.7399 -0.5277 -1.1994
34190SOL     OW 7254   4.850   6.141   0.702  0.3122 -0.5885 -0.1856
34190SOL    HW1 7255   4.851   6.052   0.666  1.9801 -1.3052  1.4599
34190SOL    HW2 7256   4.902   6.135   0.782 -1.0190  1.5085  0.9240
34191SOL     OW 7257  10.269   8.411   6.278  0.4746  0.3451  0.0772
34191SOL    HW1 7258  10.193   8.438   6.330  1.2424  0.0652  1.3951
34191SOL    HW2 7259  10.236   8.343   6.220 -0.5135  1.0055 -0.1659
34192SOL     OW 7260   2.135   2.028   6.621 -0.4137  0.6252  0.6882
34192SOL    HW1 7261   2.143   1.934   6.636 -0.5939  0.2996 -1.0424
34192SOL    HW2 7262   2.051   2.038   6.576  0.2498  1.4140 -0.4229
34193SOL     OW 7263   7.495   1.505  11.882  0.1381 -0.1778 -0.6702
34193SOL    HW1 7264   7.423   1.506  11.818 -0.0019  1.0442 -0.5193
34193SOL    HW2 7265   7.574   1.518  11.830 -0.0040  1.1300 -0.5823
34194SOL     OW 7266   5.424   3.895   8.038 -0.3812 -0.0251  0.0025
34194SOL    HW1 7267   5.510   3.937   8.045 -1.2210  1.5177  2.3260
34194SOL    HW2 7268   5.415   3.847   8.121 -2.1845  0.7652  0.2962
34195SOL     OW 7269   7.026   9.131   9.848 -0.2071 -0.0361 -0.1237
34195SOL    HW1 7270   7.114   9.168   9.848 -0.0429 -0.4214  0.3682
34195SOL    HW2 7271   7.011   9.104   9.758  0.2752 -0.2060 -0.1552
34196SOL     OW 7272   1.700   1.282   4.263  0.2031  0.2371  0.4686
34196SOL    HW1 7273   1.632   1.284   4.330 -0.5975 -0.4278 -0.3061
34196SOL    HW2 7274   1.703   1.191   4.234 -0.2703  0.7264 -1.1983
34197SOL     OW 7275   1.888   2.453   3.180  0.0654  0.3545 -0.1232
34197SOL    HW1 7276   1.912   2.461   3.272 -1.2208  0.3272  0.2344
34197SOL    HW2 7277   1.892   2.543   3.146 -1.1245  0.6184  0.4067
34198SOL     OW 7278   6.446   0.521   9.810  0.6863  0.5297 -0.1092
34198SOL    HW1 7279   6.508   0.553   9.745  0.3216  2.0131  0.2385
34198SOL    HW2 7280   6.378   0.588   9.813  1.5520  1.4192  3.0279
34199SOL     OW 7281   9.000   9.685   3.414 -0.5578  0.0231  1.0938
34199SOL    HW1 7282   9.053   9.684   3.334 -0.3767  0.5513  1.1982
34199SOL    HW2 7283   8.910   9.679   3.384 -0.4543 -0.5934  0.8970
34200SOL     OW 7284   8.647   3.576   7.457 -0.6106  0.4601 -0.1302
34200SOL    HW1 7285   8.595   3.508   7.501 -0.9885  0.5042 -0.4938
34200SOL    HW2 7286   8.710   3.527   7.404 -0.5781  0.3947 -0.0297
34201SOL     OW 7287   8.439   2.199  11.299  0.2772  0.5636 -0.3918
34201SOL    HW1 7288   8.351   2.180  11.264 -0.0837  0.7160  0.3995
34201SOL    HW2 7289   8.493   2.127  11.267  0.2338  1.2797 -2.1789
34202SOL     OW 7290   0.914   2.231   6.749  0.1556  0.0506 -0.7515
34202SOL    HW1 7291   0.876   2.144   6.758  1.9544 -0.8549 -1.3066
34202SOL    HW2 7292   0.886   2.261   6.662 -0.4853  0.0491 -0.5485
34203SOL     OW 7293   0.353   9.124   9.794  0.0105 -0.6595  0.5872
34203SOL    HW1 7294   0.296   9.118   9.718  0.2230  0.0161  0.3613
34203SOL    HW2 7295   0.316   9.196   9.846  0.7492 -0.0856  0.3433
34204SOL     OW 7296   0.473  10.307  11.217 -0.4952  0.2229 -0.2969
34204SOL    HW1 7297   0.408  10.257  11.266  0.5971 -0.0213  0.9463
34204SOL    HW2 7298   0.422  10.352  11.149 -1.8096 -0.7725 -0.0184
34205SOL     OW 7299   1.516   2.292   2.690  0.3316 -0.4172 -0.4415
34205SOL    HW1 7300   1.461   2.367   2.669 -0.2444 -0.6595  0.1739
34205SOL    HW2 7301   1.602   2.330   2.708  0.8393 -0.1743 -2.9661
34206SOL     OW 7302   2.594   5.201   7.451 -0.0173  0.3463 -0.5166
34206SOL    HW1 7303   2.617   5.145   7.525 -0.3367 -0.0895 -0.7434
34206SOL    HW2 7304   2.637   5.159   7.376 -1.4740 -0.4546 -0.9422
34207SOL     OW 7305   3.594  10.310   2.733 -0.5147 -0.3798  0.4479
34207SOL    HW1 7306   3.591  10.366   2.811  2.0459  0.2956  0.1628
34207SOL    HW2 7307   3.633  10.228   2.764  1.5265  0.2690 -0.2278
34208SOL     OW 7308  11.026  10.115   5.677  0.1137  0.1181  0.2261
34208SOL    HW1 7309  11.082  10.038   5.660 -0.8375 -1.1158  2.2699
34208SOL    HW2 7310  10.993  10.140   5.591  0.4108 -1.8215 -0.5169
34209SOL     OW 7311   1.209   6.470   6.492 -0.2794 -0.0713  0.2340
34209SOL    HW1 7312   1.134   6.411   6.496 -0.9550  0.7525  0.0740
34209SOL    HW2 7313   1.186   6.533   6.423  0.2619  0.5734  0.6317
34210SOL     OW 7314   8.805   0.570   6.202 -0.0057 -0.3951  0.2885
34210SOL    HW1 7315   8.807   0.663   6.182  1.9960 -0.3678  0.4071
34210SOL    HW2 7316   8.892   0.538   6.176 -0.4802 -2.1277  0.7048
34211SOL     OW 7317   2.713  10.771   9.419  0.0265 -0.0227  0.2526
34211SOL    HW1 7318   2.646  10.717   9.460 -0.6403  2.2841  2.5217
34211SOL    HW2 7319   2.680  10.788   9.331 -0.9492 -1.2146  0.3615
34212SOL     OW 7320  10.671   4.822  11.627 -0.1312 -0.0966 -0.6697
34212SOL    HW1 7321  10.614   4.788  11.559 -0.8502 -0.4081  0.0650
34212SOL    HW2 7322  10.753   4.843  11.583 -0.4382 -0.7043 -1.5346
34213SOL     OW 7323   1.037   5.439   6.073 -0.3546 -0.4416  0.1651
34213SOL    HW1 7324   1.034   5.532   6.091 -0.2558 -0.9523  3.4542
34213SOL    HW2 7325   0.947   5.416   6.049 -0.5916  0.3430  0.2930
34214SOL     OW 7326   4.336   6.269  10.409 -0.6377 -0.5070  0.1147
34214SOL    HW1 7327   4.329   6.179  10.440 -0.5590 -0.4793  0.2150
34214SOL    HW2 7328   4.246   6.297  10.394 -0.5941 -1.2872 -1.9068
34215SOL     OW 7329  10.453   2.964   9.867 -0.2374  0.0764  0.1434
34215SOL    HW1 7330  10.470   3.012   9.948 -0.5642  0.4202  0.0102
34215SOL    HW2 7331  10.368   2.996   9.837 -0.0695  0.0333 -0.3901
34216SOL     OW 7332  11.856   4.173   0.428 -0.1742 -0.2358  0.4603
34216SOL    HW1 7333  11.811   4.172   0.343  1.4442  0.2580 -0.4374
34216SOL    HW2 7334  11.785   4.170   0.492 -1.5008  0.8902 -0.8812
34217SOL     OW 7335   7.195   7.962   8.759 -0.2316 -0.2197  0.1566
34217SOL    HW1 7336   7.143   7.886   8.785  0.1598 -1.2406 -1.8756
34217SOL    HW2 7337   7.285   7.939   8.783 -0.3236  0.4204  1.2081
34218SOL     OW 7338  10.635   4.523   4.488  0.5987 -0.7179 -0.0725
34218SOL    HW1 7339  10.655   4.529   4.581 -0.4329 -0.7351  0.1668
34218SOL    HW2 7340  10.705   4.469   4.452  1.9851  0.7193  0.3525
34219SOL     OW 7341  10.275   7.097   2.646  0.3802 -0.0007  0.5423
34219SOL    HW1 7342  10.242   7.173   2.597  1.1384 -0.2744 -0.4236
34219SOL    HW2 7343  10.248   7.113   2.736 -0.2234  0.9919  0.2040
34220SOL     OW 7344   4.076   6.517   4.875 -0.0267 -0.8433 -0.2112
34220SOL    HW1 7345   4.092   6.544   4.784  0.9186 -2.9341 -0.7512
34220SOL    HW2 7346   3.981   6.518   4.885 -0.1252 -0.2888 -1.1142
34221SOL     OW 7347   3.258   2.837   4.698 -0.0391 -0.1606  0.3260
34221SOL    HW1 7348   3.272   2.909   4.760  2.3563 -0.1229 -0.1571
34221SOL    HW2 7349   3.276   2.876   4.613  0.4501 -1.1215 -0.0174
34222SOL     OW 7350   8.270   4.456  11.255 -0.2647  0.2991 -0.3468
34222SOL    HW1 7351   8.275   4.546  11.220  0.5972  0.5720  0.4330
34222SOL    HW2 7352   8.191   4.419  11.215  0.2825  0.8355 -2.0112
34223SOL     OW 7353   7.654   9.077   0.230 -0.4351 -0.4443 -0.0160
34223SOL    HW1 7354   7.589   9.067   0.301  1.2353 -1.2321  1.4883
34223SOL    HW2 7355   7.724   9.129   0.269  0.9782 -1.7225 -0.7599
34224SOL     OW 7356   2.084   7.855   6.006  0.0208 -0.1190 -0.3156
34224SOL    HW1 7357   2.113   7.944   5.985  1.0956 -0.5773 -0.8293
34224SOL    HW2 7358   2.113   7.802   5.932  0.2887 -1.0752  0.4545
34225SOL     OW 7359   4.823  10.648   1.369 -0.0898 -0.4833  0.0737
34225SOL    HW1 7360   4.771  10.568   1.370 -0.1398 -0.4597 -0.3252
34225SOL    HW2 7361   4.914  10.618   1.362 -0.1854 -0.4884 -1.3643
34226SOL     OW 7362   4.015  11.728   5.475  0.6299 -0.2206 -0.2862
34226SOL    HW1 7363   4.109  11.738   5.487  0.7626 -2.1468  0.6704
34226SOL    HW2 7364   3.994  11.784   5.400  2.0150  2.3954  1.1342
34227SOL     OW 7365   4.571  10.908   4.734  0.1734 -0.1229  0.2589
34227SOL    HW1 7366   4.486  10.942   4.762  0.5060  0.5642  0.4625
34227SOL    HW2 7367   4.552  10.857   4.655 -0.4837 -0.3471  0.5526
34228SOL     OW 7368  11.711   3.960   8.672 -0.1865  0.3302  0.6001
34228SOL    HW1 7369  11.768   3.964   8.595  1.8408  0.9942  2.0415
34228SOL    HW2 7370  11.665   3.876   8.663 -0.0338  0.4145 -1.3272
34229SOL     OW 7371   4.915   6.801   0.273  0.3247  0.0770  0.3039
34229SOL    HW1 7372   4.976   6.729   0.255  0.5619  0.2273  0.5147
34229SOL    HW2 7373   4.940   6.870   0.212  0.6801  0.3221  0.7209
34230SOL     OW 7374   4.613  10.195   4.297 -0.1757  0.1255  0.0190
34230SOL    HW1 7375   4.675  10.179   4.367 -0.9546 -1.7144  0.3526
34230SOL    HW2 7376   4.557  10.117   4.295 -1.7849  1.2134 -0.9788
34231SOL     OW 7377  11.247  10.554   4.231  0.3015 -0.5259 -0.6283
34231SOL    HW1 7378  11.166  10.519   4.195 -0.4764  0.4242  0.1493
34231SOL    HW2 7379  11.230  10.564   4.325  0.8321  0.9342 -0.6607
34232SOL     OW 7380   8.406   5.759   4.377  0.0558  0.3870  0.0146
34232SOL    HW1 7381   8.349   5.745   4.301 -0.6443  0.0830  0.5770
34232SOL    HW2 7382   8.348   5.795   4.443  0.1482 -1.3315  1.1057
34233SOL     OW 7383   4.034  11.463   8.328  0.0705  0.6648  0.0937
34233SOL    HW1 7384   3.953  11.416   8.348 -1.3875  2.8849 -0.2168
34233SOL    HW2 7385   4.086  11.458   8.409 -1.2018  0.8199  0.9394
34234SOL     OW 7386   7.910   1.815   8.961  0.3305  0.0077 -0.0629
34234SOL    HW1 7387   7.920   1.768   8.877 -1.3539 -1.7955  0.6627
34234SOL    HW2 7388   7.937   1.751   9.027 -0.9214  0.4506  0.9056
34235SOL     OW 7389   7.282   8.550   9.261  0.1064 -0.5153  0.0663
34235SOL    HW1 7390   7.246   8.530   9.175 -1.6823 -2.8651  1.2427
34235SOL    HW2 7391   7.343   8.478   9.279 -2.0486 -2.0276  2.0135
34236SOL     OW 7392  10.875   0.955   9.291  0.1048  0.0725 -0.2901
34236SOL    HW1 7393  10.946   0.948   9.355  0.2657 -1.0309 -0.5699
34236SOL    HW2 7394  10.904   1.023   9.230 -0.6096  2.0677  1.4696
34237SOL     OW 7395   5.764   0.282  11.772 -0.1587 -0.2177  0.7655
34237SOL    HW1 7396   5.816   0.362  11.769  0.4251 -0.4183  3.4654
34237SOL    HW2 7397   5.785   0.237  11.690  2.1323  0.7992  0.7152
34238SOL     OW 7398   6.562   7.027   9.886 -0.6132 -0.0654  0.1634
34238SOL    HW1 7399   6.545   6.982   9.803 -0.1165 -1.2339  0.6721
34238SOL    HW2 7400   6.518   6.973   9.952  0.0377  0.1675  0.7985
34239SOL     OW 7401   1.782   7.398  11.703 -0.5611  0.2961 -0.0964
34239SOL    HW1 7402   1.724   7.352  11.764 -0.7951  1.7795  0.8696
34239SOL    HW2 7403   1.748   7.379  11.616  0.3943 -2.7400  0.0910
34240SOL     OW 7404  11.242   7.713   4.215  0.1288  0.5496  0.8432
34240SOL    HW1 7405  11.302   7.728   4.143 -0.7452  0.8715  0.1601
34240SOL    HW2 7406  11.157   7.697   4.173 -0.0268 -1.1771  1.7108
34241SOL     OW 7407   9.895   7.616   0.681 -0.0488 -0.2179  0.2459
34241SOL    HW1 7408   9.897   7.540   0.623  3.2002  1.2482 -1.8868
34241SOL    HW2 7409   9.953   7.591   0.754 -0.5653 -0.4576  0.5808
34242SOL     OW 7410   8.063   5.262  11.198  0.3579  0.2241  0.3859
34242SOL    HW1 7411   8.003   5.297  11.132  1.5373  0.9913 -0.3067
34242SOL    HW2 7412   8.106   5.189  11.156 -0.0042 -0.2710  0.8555
34243SOL     OW 7413   2.604   2.861   4.142 -0.4182 -0.9772 -0.8397
34243SOL    HW1 7414   2.638   2.805   4.212  0.7993  0.3525 -0.3185
34243SOL    HW2 7415   2.681   2.889   4.093 -1.0537 -0.2144 -1.4425
34244SOL     OW 7416   8.842   4.487  10.482  0.1549 -0.0128  0.3756
34244SOL    HW1 7417   8.868   4.572  10.446  2.4395 -0.1819  1.5116
34244SOL    HW2 7418   8.891   4.479  10.563 -2.3961 -1.0934  1.9165
34245SOL     OW 7419   3.178   4.087   0.372 -1.2831  0.2474 -0.2421
34245SOL    HW1 7420   3.117   4.020   0.402 -0.8292 -0.5265 -1.0120
34245SOL    HW2 7421   3.201   4.060   0.283 -0.2525  0.8325 -0.1662
34246SOL     OW 7422   8.934  11.516   7.484 -0.7082 -0.2200  0.4351
34246SOL    HW1 7423   8.962  11.453   7.549 -0.9126  0.6186  1.3593
34246SOL    HW2 7424   8.907  11.593   7.534  2.0267  1.6506 -0.6952
34247SOL     OW 7425   3.881   3.944   6.239  0.0702  0.4736  0.7913
34247SOL    HW1 7426   3.947   3.985   6.184 -0.8142  0.0091 -0.6524
34247SOL    HW2 7427   3.918   3.859   6.261  0.3132  0.5553  0.7016
34248SOL     OW 7428   9.366   4.285   3.908 -0.7386  0.2794 -0.0164
34248SOL    HW1 7429   9.309   4.266   3.982  1.6040 -0.9898  1.6291
34248SOL    HW2 7430   9.373   4.202   3.860 -1.9333  0.9901 -1.5035
34249SOL     OW 7431  10.810   4.355  10.061  0.3117  0.2101 -0.6021
34249SOL    HW1 7432  10.771   4.438  10.087  1.3943  0.4236  0.4436
34249SOL    HW2 7433  10.739   4.292  10.067 -0.8234  1.1969 -2.4594
34250SOL     OW 7434   7.715   2.277   4.221 -0.0404 -0.4307  0.5029
34250SOL    HW1 7435   7.653   2.251   4.152  1.9402 -0.2320 -1.4972
34250SOL    HW2 7436   7.702   2.214   4.291 -2.3880 -0.4434  0.1070
34251SOL     OW 7437   1.342  11.108   7.496 -0.0021  0.6260 -0.2539
34251SOL    HW1 7438   1.372  11.126   7.407  1.1283  1.5833  0.2906
34251SOL    HW2 7439   1.403  11.156   7.552  0.3737 -1.3502  1.1186
34252SOL     OW 7440   9.148   3.437  10.680 -0.1482 -0.0817 -0.3331
34252SOL    HW1 7441   9.178   3.364  10.626  1.1402  0.9216 -1.0478
34252SOL    HW2 7442   9.184   3.515  10.637 -2.3869  1.0854 -0.2181
34253SOL     OW 7443   4.799   5.250   0.585  0.1647 -0.5209 -0.6678
34253SOL    HW1 7444   4.724   5.198   0.614 -0.7348  1.9455  1.8425
34253SOL    HW2 7445   4.856   5.187   0.542 -1.4975 -3.2891  0.8755
34254SOL     OW 7446   6.865   9.320   3.726 -0.3014  0.6309 -0.4317
34254SOL    HW1 7447   6.899   9.404   3.696  4.2101 -0.5904  0.5249
34254SOL    HW2 7448   6.918   9.255   3.681 -1.8417 -1.6626  0.8689
34255SOL     OW 7449  10.746   6.240   1.737 -0.9800 -0.5175 -0.4788
34255SOL    HW1 7450  10.722   6.332   1.733  0.1963 -0.0716  1.4314
34255SOL    HW2 7451  10.826   6.233   1.684 -1.1436 -0.4841 -0.7323
34256SOL     OW 7452   7.295   6.715   3.481  0.2086 -0.2128 -0.1262
34256SOL    HW1 7453   7.333   6.640   3.435  0.8668  0.3271 -0.4887
34256SOL    HW2 7454   7.371   6.771   3.501  0.0091 -0.6404  2.0169
34257SOL     OW 7455   2.727   9.945   2.321 -0.0128 -0.5259 -0.4163
34257SOL    HW1 7456   2.791   9.975   2.386  1.4349 -2.2006 -0.9897
34257SOL    HW2 7457   2.676  10.023   2.299  0.8083  0.5182  1.2074
34258SOL     OW 7458  10.184   7.458   6.446 -0.6405 -0.1485 -0.5371
34258SOL    HW1 7459  10.231   7.380   6.416 -0.0300 -0.0679  0.1934
34258SOL    HW2 7460  10.158   7.503   6.366 -0.2601 -0.6660 -0.9540
34259SOL     OW 7461   5.278   2.578  10.246  0.1073  0.4825 -0.5940
34259SOL    HW1 7462   5.207   2.513  10.242 -0.2320  0.8805 -1.0198
34259SOL    HW2 7463   5.349   2.532  10.291  0.2530 -0.5521 -1.8326
34260SOL     OW 7464   0.421   9.141   1.829 -0.2161  0.0157  0.1680
34260SOL    HW1 7465   0.474   9.140   1.749 -0.3601 -1.7348  0.0598
34260SOL    HW2 7466   0.434   9.229   1.865 -0.7427  1.1057 -2.1353
34261SOL     OW 7467  10.301   6.325   9.885 -0.0356  0.7003 -0.0227
34261SOL    HW1 7468  10.334   6.343   9.973 -0.2588 -1.6251  0.6058
34261SOL    HW2 7469  10.253   6.404   9.861  1.8102  2.2204  1.0396
34262SOL     OW 7470   6.109   0.756   0.595 -0.4708 -0.4111  0.1732
34262SOL    HW1 7471   6.196   0.730   0.626  0.1869 -2.0572 -2.6957
34262SOL    HW2 7472   6.048   0.707   0.651  0.5874 -2.2993 -0.2369
34263SOL     OW 7473  11.535  11.209   6.204  0.7681  0.3585 -0.3449
34263SOL    HW1 7474  11.467  11.248   6.149  0.2900 -0.9020 -0.6751
34263SOL    HW2 7475  11.499  11.125   6.232  2.1502 -0.2950 -0.4245
34264SOL     OW 7476   9.646   3.888   0.685 -0.0385  0.0277 -0.3442
34264SOL    HW1 7477   9.629   3.982   0.680 -1.8984 -0.2876 -0.9548
34264SOL    HW2 7478   9.664   3.862   0.595  1.9896  0.0003  0.0226
34265SOL     OW 7479   0.694  11.631   4.028 -0.6342  0.0282  0.1256
34265SOL    HW1 7480   0.689  11.690   4.104  1.6159 -0.5945  0.8284
34265SOL    HW2 7481   0.657  11.549   4.059 -0.5778  0.0490  0.2491
34266SOL     OW 7482   7.647   9.412  11.605  0.1087  0.0320 -0.1619
34266SOL    HW1 7483   7.583   9.480  11.623 -0.6624  0.2128 -3.0989
34266SOL    HW2 7484   7.595   9.332  11.593  0.4504 -0.0234 -1.5416
34267SOL     OW 7485   1.524   8.194   0.349  0.4324 -0.7969 -0.1552
34267SOL    HW1 7486   1.563   8.256   0.411  0.0093 -0.8295  0.1440
34267SOL    HW2 7487   1.438   8.173   0.385  0.2791 -1.0100 -0.6235
34268SOL     OW 7488   1.455   9.747   4.724  0.4665 -0.2204 -0.2404
34268SOL    HW1 7489   1.373   9.701   4.705  1.4444 -2.1013 -0.0185
34268SOL    HW2 7490   1.445   9.775   4.815 -0.9747  1.9230 -0.9693
34269SOL     OW 7491   2.673  10.439  11.003 -0.5140  0.3447  0.1606
34269SOL    HW1 7492   2.582  10.453  11.030 -0.2719  1.0319  0.6434
34269SOL    HW2 7493   2.691  10.512  10.943 -0.4749 -0.1407 -0.4176
34270SOL     OW 7494   4.061  10.604   8.521 -0.6355 -0.0569  0.1519
34270SOL    HW1 7495   4.084  10.537   8.457 -0.4832  0.2290 -0.0947
34270SOL    HW2 7496   3.974  10.579   8.551 -0.2286 -0.8626  0.7147
34271SOL     OW 7497  10.933   2.249  10.057  0.0434 -0.5660 -0.4168
34271SOL    HW1 7498  11.021   2.272  10.089 -0.1614 -0.0874 -0.1920
34271SOL    HW2 7499  10.925   2.294   9.973  0.2241 -1.0657 -0.7055
34272SOL     OW 7500   3.298   0.684   9.131 -0.2073  0.2834 -0.2417
34272SOL    HW1 7501   3.227   0.680   9.196  0.0789  1.5982  0.1750
34272SOL    HW2 7502   3.359   0.748   9.167  0.2598  0.5839 -1.5272
34273SOL     OW 7503   2.010   7.508   4.798  0.2216 -0.1685 -0.1417
34273SOL    HW1 7504   1.917   7.510   4.772  0.3997 -0.7920 -0.8795
34273SOL    HW2 7505   2.011   7.450   4.875 -0.1636  0.8630  0.6745
34274SOL     OW 7506   4.524   9.179   8.608 -0.5141 -0.0202  0.0992
34274SOL    HW1 7507   4.546   9.249   8.546  0.2996 -0.3595 -0.0182
34274SOL    HW2 7508   4.430   9.166   8.597 -0.3523 -0.2352 -1.2595
34275SOL     OW 7509   0.071   8.293   9.180  0.2480  0.3177 -0.1619
34275SOL    HW1 7510   0.011   8.247   9.122  0.5386  0.0747 -0.2708
34275SOL    HW2 7511   0.144   8.232   9.193  0.1741  0.3541  0.4816
34276SOL     OW 7512  10.982   2.770   1.193 -0.7119  0.2647 -0.2693
34276SOL    HW1 7513  10.960   2.677   1.198 -0.5966  0.2829  1.3599
34276SOL    HW2 7514  11.000   2.786   1.101  1.2904 -1.8147 -0.3399
34277SOL     OW 7515   7.389   8.930   3.908 -0.7659 -0.2899  0.4758
34277SOL    HW1 7516   7.306   8.946   3.864 -1.0871 -0.8905  0.8546
34277SOL    HW2 7517   7.434   9.015   3.907 -0.1662 -0.5300 -2.2033
34278SOL     OW 7518   4.452   4.473   0.895 -0.5784  0.6101  0.0501
34278SOL    HW1 7519   4.502   4.481   0.976  0.1523  0.3856 -0.3709
34278SOL    HW2 7520   4.378   4.532   0.907 -0.4580  0.6107  0.8658
34279SOL     OW 7521   2.871   5.878   6.380 -0.2339  0.3191 -0.2072
34279SOL    HW1 7522   2.829   5.876   6.466  0.2719  0.3331  0.0477
34279SOL    HW2 7523   2.800   5.866   6.318 -0.4393 -1.1561  0.2626
34280SOL     OW 7524   5.545   6.849  11.604 -0.6385  0.2705  0.4152
34280SOL    HW1 7525   5.594   6.869  11.524 -0.1385 -0.8859  0.4145
34280SOL    HW2 7526   5.608   6.857  11.675 -0.8987  0.5659  0.6164
34281SOL     OW 7527  11.461   7.206   5.558  0.1410 -0.6808  0.2227
34281SOL    HW1 7528  11.380   7.207   5.609 -0.3162 -0.3713 -0.4943
34281SOL    HW2 7529  11.524   7.160   5.613 -0.0690  0.4934  1.4828
34282SOL     OW 7530   3.635  11.184   9.505 -0.1772 -0.1191  0.0473
34282SOL    HW1 7531   3.715  11.191   9.453 -0.5520  1.7184 -0.3542
34282SOL    HW2 7532   3.636  11.262   9.561 -1.0295 -0.7721  1.0088
34283SOL     OW 7533   1.883   2.800   0.517 -0.4815  0.2024  0.1281
34283SOL    HW1 7534   1.961   2.745   0.516 -0.9520 -0.4997  1.2008
34283SOL    HW2 7535   1.828   2.764   0.448 -0.9756 -0.9744  1.1093
34284SOL     OW 7536  11.682   0.254   9.336  0.1228  0.1046  0.6420
34284SOL    HW1 7537  11.701   0.212   9.252 -1.5469 -0.8437  0.6913
34284SOL    HW2 7538  11.587   0.263   9.338  0.2859  2.3709  1.4055
34285SOL     OW 7539   5.148  10.546   3.602 -0.1355  0.1371  0.3837
34285SOL    HW1 7540   5.133  10.487   3.676  1.5511  0.2869  0.8998
34285SOL    HW2 7541   5.243  10.547   3.592 -0.1945  1.8706 -0.3403
34286SOL     OW 7542   0.793   7.735   7.403 -0.3289  0.0707 -0.0449
34286SOL    HW1 7543   0.746   7.812   7.370 -0.9834 -0.5690 -0.6354
34286SOL    HW2 7544   0.757   7.662   7.355  0.2248 -0.6351  0.5764
34287SOL     OW 7545   8.751  10.772   4.819 -0.5632 -0.1352 -0.1070
34287SOL    HW1 7546   8.671  10.748   4.866 -0.6961  0.0348 -0.2499
34287SOL    HW2 7547   8.806  10.693   4.825 -1.8405 -1.2913 -2.4386
34288SOL     OW 7548   7.261   2.973   3.517  0.1413 -0.3167 -0.1139
34288SOL    HW1 7549   7.190   2.922   3.554 -2.0715  1.9439 -0.9692
34288SOL    HW2 7550   7.229   2.998   3.430  2.1308  0.5066 -0.6589
34289SOL     OW 7551   4.703   9.818  10.883  0.1498  0.5705  0.2602
34289SOL    HW1 7552   4.658   9.748  10.930 -0.5017  0.0701 -1.0542
34289SOL    HW2 7553   4.699   9.791  10.791  0.8399  1.8159 -0.1550
34290SOL     OW 7554   5.189   3.731   9.446  0.2500  0.4055  0.2580
34290SOL    HW1 7555   5.116   3.690   9.399 -0.3115 -0.3186  1.6789
34290SOL    HW2 7556   5.224   3.796   9.385 -0.9843  0.1153 -0.8096
34291SOL     OW 7557  11.719   1.304   5.539  0.0869 -0.3138  0.1489
34291SOL    HW1 7558  11.745   1.376   5.482 -0.4235  0.0110  0.3188
34291SOL    HW2 7559  11.703   1.231   5.479 -0.2578 -0.0309 -0.1083
34292SOL     OW 7560   4.428  10.582   6.148 -0.0102 -0.0032  0.4558
34292SOL    HW1 7561   4.464  10.626   6.225  0.0258 -0.3775  0.6573
34292SOL    HW2 7562   4.459  10.492   6.156  0.7337  0.1557 -0.4729
34293SOL     OW 7563  10.296   3.138   5.357 -0.4468  0.4283 -0.0450
34293SOL    HW1 7564  10.367   3.199   5.378  0.5371 -1.3098  2.1003
34293SOL    HW2 7565  10.340   3.059   5.326 -1.3811 -0.7004  1.3545
34294SOL     OW 7566  11.786   5.044   1.021 -0.6137  0.4801 -0.6828
34294SOL    HW1 7567  11.819   5.013   0.936 -0.4889  0.1752 -0.5273
34294SOL    HW2 7568  11.692   5.029   1.017 -0.8813  2.1819 -1.4709
34295SOL     OW 7569   7.657   3.302   1.460 -0.1288  0.4231 -0.0462
34295SOL    HW1 7570   7.596   3.365   1.499  0.2221  0.8484 -0.1783
34295SOL    HW2 7571   7.741   3.348   1.458  0.4206 -0.4794  1.0110
34296SOL     OW 7572   0.497   5.121  10.536 -0.2241  0.0040 -0.2197
34296SOL    HW1 7573   0.562   5.120  10.465  0.6272  1.5899  0.4784
34296SOL    HW2 7574   0.533   5.062  10.602 -0.6797 -0.9407 -0.7917
34297SOL     OW 7575   2.984   3.908   0.456  0.3240 -0.7272  0.0549
34297SOL    HW1 7576   2.904   3.961   0.458  0.1051 -1.0547  1.7249
34297SOL    HW2 7577   2.956   3.822   0.425 -0.8609 -2.0141  4.0041
34298SOL     OW 7578   6.490   2.683   3.553  0.2496 -0.1603  0.1345
34298SOL    HW1 7579   6.420   2.736   3.591  0.3934  1.1394 -1.3261
34298SOL    HW2 7580   6.445   2.607   3.516 -0.2176 -0.0079  0.3773
34299SOL     OW 7581   3.520   3.956   5.538  0.1551 -0.2016  0.0812
34299SOL    HW1 7582   3.557   4.022   5.597 -0.4146  0.4393 -0.2693
34299SOL    HW2 7583   3.588   3.943   5.472  0.4224 -0.2415  0.3596
34300SOL     OW 7584   7.120   2.581   4.091  0.1820  0.4845 -0.1192
34300SOL    HW1 7585   7.169   2.655   4.055 -0.2523  0.0336 -1.6950
34300SOL    HW2 7586   7.166   2.504   4.059 -0.8159  0.0663 -0.6029
34301SOL     OW 7587   4.033   6.504   3.805  0.3853  0.5098  0.5767
34301SOL    HW1 7588   4.073   6.473   3.724  1.7263  0.1036  1.3662
34301SOL    HW2 7589   3.971   6.435   3.829 -0.6657  1.0158 -0.5045
34302SOL     OW 7590   4.400   0.522   1.268  0.3085  0.1264  0.6444
34302SOL    HW1 7591   4.305   0.511   1.263  0.0555  2.2332 -0.0860
34302SOL    HW2 7592   4.435   0.442   1.228 -1.2049  0.1016 -0.7679
34303SOL     OW 7593  11.198   8.364   7.012  0.1030 -0.2801 -0.4783
34303SOL    HW1 7594  11.281   8.410   6.998  0.5349 -1.3028 -1.4842
34303SOL    HW2 7595  11.151   8.372   6.929  0.3913 -1.9781 -0.8516
34304SOL     OW 7596  11.056   2.981   1.723  0.2704  0.0439  0.0767
34304SOL    HW1 7597  11.020   3.035   1.652  1.6915  0.6283 -0.2178
34304SOL    HW2 7598  11.135   2.942   1.686  1.7410  1.3444  1.6720
34305SOL     OW 7599   0.170   9.828   6.024  0.1738 -0.0558  0.5779
34305SOL    HW1 7600   0.224   9.829   5.944 -1.0388 -1.0459 -0.2848
34305SOL    HW2 7601   0.220   9.774   6.085  0.1615 -1.0538 -0.2502
34306SOL     OW 7602   4.311  11.716  10.871  0.0037  0.0525 -0.7273
34306SOL    HW1 7603   4.303  11.669  10.954  0.5699  0.2536 -0.5578
34306SOL    HW2 7604   4.292  11.807  10.893 -0.6577 -0.0219 -0.9746
34307SOL     OW 7605   5.288   4.026   3.020  0.2297 -0.6597 -0.4113
34307SOL    HW1 7606   5.249   4.102   3.062 -1.3906 -1.4585 -0.4112
34307SOL    HW2 7607   5.230   3.954   3.042  0.9432 -1.6356 -1.6169
34308SOL     OW 7608  11.065   0.861   3.446  0.2470 -0.0241 -0.2071
34308SOL    HW1 7609  11.092   0.910   3.524 -0.1672 -2.4982  1.6200
34308SOL    HW2 7610  11.080   0.921   3.374  0.2504  2.5752  1.7921
34309SOL     OW 7611   8.305   4.224   4.641 -0.1735 -0.1269  0.0248
34309SOL    HW1 7612   8.248   4.262   4.709  0.5875  0.1195  0.5412
34309SOL    HW2 7613   8.309   4.131   4.663  1.3841  0.2057  1.3322
34310SOL     OW 7614   9.433   6.713   4.080 -0.4485 -0.5214 -0.7994
34310SOL    HW1 7615   9.401   6.754   4.161  0.2867 -1.5424  0.0381
34310SOL    HW2 7616   9.355   6.705   4.025 -1.1645 -0.7499  0.2188
34311SOL     OW 7617   8.901   4.883   5.591  0.3320 -0.1424  0.2509
34311SOL    HW1 7618   8.859   4.962   5.624  0.6207 -0.2963  1.0042
34311SOL    HW2 7619   8.995   4.904   5.588  0.2876 -0.0013 -0.8623
34312SOL     OW 7620   1.255   1.085  10.476  0.1216  0.1328 -0.4462
34312SOL    HW1 7621   1.299   1.167  10.452 -0.1165  1.0035  1.8510
34312SOL    HW2 7622   1.168   1.111  10.505  0.3319 -0.8009  1.1342
34313SOL     OW 7623  10.526   5.520   3.203  0.0820 -0.3946 -0.0798
34313SOL    HW1 7624  10.549   5.431   3.228 -2.0103 -1.0352 -0.2891
34313SOL    HW2 7625  10.441   5.535   3.243  0.3130  1.4658 -0.2040
34314SOL     OW 7626   5.965   5.454   1.720 -0.2687  0.1225 -0.4009
34314SOL    HW1 7627   6.006   5.408   1.793 -1.0947  0.7651  0.4975
34314SOL    HW2 7628   6.014   5.536   1.713 -1.4693  0.9856  0.8108
34315SOL     OW 7629   5.147   2.569   5.969 -0.0285  0.4284 -0.4582
34315SOL    HW1 7630   5.144   2.638   5.902  1.1690  0.1532 -0.8277
34315SOL    HW2 7631   5.163   2.489   5.920  1.7623  0.3418  0.1856
34316SOL     OW 7632   6.026   8.478   0.783  0.5312  0.1624 -0.3607
34316SOL    HW1 7633   6.110   8.438   0.762  1.7369  2.7235 -0.8081
34316SOL    HW2 7634   6.027   8.487   0.879  1.2120  1.0563 -0.4461
34317SOL     OW 7635  11.238   9.106   5.661 -0.4194  0.2488 -0.7346
34317SOL    HW1 7636  11.238   9.170   5.733  0.6881 -0.7709  0.2099
34317SOL    HW2 7637  11.315   9.128   5.610 -0.4640  0.1431 -0.8464
34318SOL     OW 7638   1.576   4.660   4.929  0.3033 -0.1013  0.4818
34318SOL    HW1 7639   1.492   4.623   4.900  0.7512 -1.7196  1.1522
34318SOL    HW2 7640   1.629   4.666   4.850 -0.3447  0.7050  0.0946
34319SOL     OW 7641   5.274   8.831   2.902 -0.1169 -0.3573  0.1090
34319SOL    HW1 7642   5.209   8.773   2.862 -0.1359  0.2787 -0.8193
34319SOL    HW2 7643   5.352   8.820   2.848 -0.0750  0.3571  0.0173
34320SOL     OW 7644   1.107   3.005   8.141  0.0658 -0.3755 -0.1618
34320SOL    HW1 7645   1.032   2.978   8.088 -0.6259 -0.9475  1.0461
34320SOL    HW2 7646   1.154   2.924   8.159 -0.8742 -0.5598  1.7798
34321SOL     OW 7647   1.884   0.487   9.673 -0.0392 -0.0997 -0.2406
34321SOL    HW1 7648   1.965   0.491   9.622 -0.4277 -1.9573 -1.0608
34321SOL    HW2 7649   1.854   0.397   9.664 -1.5898  0.2503  1.0250
34322SOL     OW 7650  11.913   1.145   6.399 -0.2551 -0.4642 -0.3956
34322SOL    HW1 7651  11.993   1.157   6.450 -0.4494  0.8554 -0.3792
34322SOL    HW2 7652  11.866   1.228   6.407 -1.5938 -1.1830 -0.4761
34323SOL     OW 7653  11.731   4.498   1.952 -0.4093  0.3043  0.4190
34323SOL    HW1 7654  11.777   4.417   1.978  1.5374  1.3542  0.4754
34323SOL    HW2 7655  11.684   4.474   1.872  2.6891 -0.1773 -1.4438
34324SOL     OW 7656   2.132   5.014   6.889 -0.2570  0.0523  0.3218
34324SOL    HW1 7657   2.227   5.012   6.879  0.3120  1.5053  3.7910
34324SOL    HW2 7658   2.106   4.922   6.892  0.7355 -0.3817 -2.1164
34325SOL     OW 7659   6.329   2.026   3.850  0.4047  0.2081  0.4460
34325SOL    HW1 7660   6.413   1.983   3.861  2.2876  3.4475  0.1142
34325SOL    HW2 7661   6.351   2.116   3.824 -3.1771  1.0835 -0.1628
34326SOL     OW 7662   8.739   4.061   4.719 -0.3235 -0.3352 -0.2701
34326SOL    HW1 7663   8.695   4.007   4.653 -1.3302  1.1449 -0.8743
34326SOL    HW2 7664   8.690   4.143   4.719  3.0309  1.9158 -1.8162
34327SOL     OW 7665   3.281   0.261   7.803  0.0227  0.1645  0.3519
34327SOL    HW1 7666   3.304   0.354   7.805  0.1265  0.1350  0.4861
34327SOL    HW2 7667   3.231   0.247   7.883 -0.1333  0.1404  0.2518
34328SOL     OW 7668   2.014   7.602   1.563 -0.2808 -0.6082  0.5347
34328SOL    HW1 7669   1.966   7.672   1.520  1.4921  0.1908 -0.2545
34328SOL    HW2 7670   2.087   7.647   1.607  2.3241 -2.0579 -1.9680
34329SOL     OW 7671   8.827  10.242   4.850 -0.5865 -0.4912  0.0786
34329SOL    HW1 7672   8.811  10.165   4.796 -0.7910 -1.4140  1.4100
34329SOL    HW2 7673   8.922  10.246   4.860 -0.1971  1.6034 -2.9842
34330SOL     OW 7674   7.507  11.957   8.238  0.0797  0.4141 -0.5807
34330SOL    HW1 7675   7.530  11.869   8.207 -0.8526 -0.6740  1.6110
34330SOL    HW2 7676   7.551  11.965   8.322 -0.3884  1.7855 -0.4446
34331SOL     OW 7677   7.016   4.492   2.163  0.6062 -0.1144 -0.3716
34331SOL    HW1 7678   6.955   4.565   2.174  0.0537 -0.4211 -1.2704
34331SOL    HW2 7679   7.085   4.526   2.107 -0.3174 -0.6332 -1.8661
34332SOL     OW 7680   3.165   3.491   7.202  0.8417 -0.2032  0.8835
34332SOL    HW1 7681   3.104   3.534   7.141  0.5491 -2.8425 -0.8552
34332SOL    HW2 7682   3.127   3.506   7.288  0.0050  1.7248  0.2442
34333SOL     OW 7683   1.081   9.948   2.389 -0.5443  0.1114  0.0368
34333SOL    HW1 7684   1.122   9.862   2.394 -1.3921 -0.3080 -0.1577
34333SOL    HW2 7685   1.113   9.994   2.467  0.9601  0.1061 -0.5394
34334SOL     OW 7686   2.029   3.437   1.841  0.0313  0.0449 -0.1897
34334SOL    HW1 7687   1.955   3.436   1.902 -0.0637  1.1758 -0.2621
34334SOL    HW2 7688   2.072   3.521   1.858  0.0451  0.3422 -1.6184
34335SOL     OW 7689   4.420   0.051   5.718 -0.1695  0.2986  0.4130
34335SOL    HW1 7690   4.326   0.034   5.710  0.1477 -0.5830 -3.0469
34335SOL    HW2 7691   4.450  -0.012   5.783 -1.5948 -1.4561 -0.5197
34336SOL     OW 7692   2.982   0.596  11.390  0.1174 -0.0252  0.1328
34336SOL    HW1 7693   2.907   0.636  11.346  1.1892  0.4503 -1.3614
34336SOL    HW2 7694   2.944   0.539  11.456 -1.5751 -0.1965 -0.9276
34337SOL     OW 7695   0.394   4.567   8.970  0.5629 -0.0018  0.0132
34337SOL    HW1 7696   0.474   4.588   8.921  1.5687  0.7492  1.8711
34337SOL    HW2 7697   0.326   4.622   8.931  0.8638 -0.7676 -1.6975
34338SOL     OW 7698   0.181   6.476   7.897 -0.0189 -0.5167 -0.1998
34338SOL    HW1 7699   0.216   6.464   7.986 -1.1559  0.1140  0.3672
34338SOL    HW2 7700   0.088   6.494   7.911 -0.1907 -0.2825 -1.5273
34339SOL     OW 7701   5.433  10.626   7.921  0.6119 -0.0921 -0.2914
34339SOL    HW1 7702   5.471  10.563   7.860 -0.0400 -0.9211  0.1290
34339SOL    HW2 7703   5.464  10.712   7.891  0.6052 -0.5221 -1.5518
34340SOL     OW 7704   4.521   9.428   4.178  0.1863 -0.0853  0.0165
34340SOL    HW1 7705   4.447   9.441   4.237  0.4726 -0.9317  0.5749
34340SOL    HW2 7706   4.598   9.438   4.234  0.5284  1.0697 -0.6084
34341SOL     OW 7707   5.985   6.490   5.549 -0.3573 -0.0997 -0.1660
34341SOL    HW1 7708   5.968   6.549   5.477 -1.7876 -0.8369 -0.4654
34341SOL    HW2 7709   6.006   6.547   5.623 -0.8851  0.7323 -0.6508
34342SOL     OW 7710  11.704   9.133   2.330 -0.2948  0.0959 -0.0750
34342SOL    HW1 7711  11.726   9.149   2.239 -0.5695  2.4534  0.2206
34342SOL    HW2 7712  11.774   9.176   2.380 -1.0616  0.3248  0.8267
34343SOL     OW 7713   4.493   0.156  11.448  0.2755  0.1658 -0.3932
34343SOL    HW1 7714   4.515   0.068  11.418  0.8556  0.2752 -0.2871
34343SOL    HW2 7715   4.470   0.203  11.368 -1.4149 -0.4586 -0.3191
34344SOL     OW 7716   6.991  10.648  10.782 -0.1306 -0.0823 -0.1870
34344SOL    HW1 7717   7.084  10.657  10.807  0.4154 -0.8284 -1.8386
34344SOL    HW2 7718   6.972  10.555  10.793 -0.6848  0.0651  0.1165
34345SOL     OW 7719   3.477   7.654  10.109 -0.2587 -0.0463 -0.5516
34345SOL    HW1 7720   3.502   7.610  10.190 -0.4136  0.1119 -0.4188
34345SOL    HW2 7721   3.487   7.747  10.128  0.2745 -0.0289 -0.9026
34346SOL     OW 7722  10.148   0.274   6.359 -0.4115 -0.2552  0.1681
34346SOL    HW1 7723  10.228   0.287   6.410 -0.1085  0.7662 -0.5410
34346SOL    HW2 7724  10.097   0.354   6.374 -1.9556 -1.4563  1.7252
34347SOL     OW 7725   3.179   0.996   4.254 -0.2546  0.2475 -0.3618
34347SOL    HW1 7726   3.163   1.086   4.282  0.6016  0.4999 -0.6420
34347SOL    HW2 7727   3.183   0.946   4.335  3.4025  1.1624  0.2193
34348SOL     OW 7728   9.893   1.253  11.510 -0.0967  0.4226 -0.0399
34348SOL    HW1 7729   9.975   1.302  11.500 -1.0178  2.0984  0.1425
34348SOL    HW2 7730   9.827   1.308  11.468 -1.0428 -1.2122 -0.7743
34349SOL     OW 7731   1.351   8.137   5.525  0.8602 -0.2549 -0.0711
34349SOL    HW1 7732   1.436   8.177   5.504  0.3505  0.4438 -0.8703
34349SOL    HW2 7733   1.292   8.169   5.456 -0.5440  0.8852  1.5928
34350SOL     OW 7734   9.096   2.668   3.160 -0.0384 -0.0225  0.3268
34350SOL    HW1 7735   9.069   2.617   3.236  0.8754 -0.7964  0.1392
34350SOL    HW2 7736   9.154   2.611   3.111  0.3953  0.9192 -0.2950
34351SOL     OW 7737   2.974   7.364  10.386  0.3133  0.3350 -0.0368
34351SOL    HW1 7738   2.973   7.338  10.293  3.2517 -0.4113  0.0490
34351SOL    HW2 7739   3.044   7.429  10.391 -1.0374  1.7369  1.3803
34352SOL     OW 7740   2.414   7.379   1.892 -0.7586  0.0396  0.6677
34352SOL    HW1 7741   2.472   7.322   1.841 -0.9382 -0.0340  0.5418
34352SOL    HW2 7742   2.460   7.462   1.896  0.0857 -0.4601  1.9233
34353SOL     OW 7743   8.698   3.689   4.992 -0.2845  0.5324  0.0500
34353SOL    HW1 7744   8.781   3.698   4.946 -0.7864  0.4526 -0.8857
34353SOL    HW2 7745   8.679   3.595   4.988 -0.7650  0.6473 -0.3484
34354SOL     OW 7746   2.905  11.448   1.348 -0.0365  0.1195  0.0259
34354SOL    HW1 7747   2.967  11.479   1.282  0.3143  1.0855  0.7807
34354SOL    HW2 7748   2.872  11.366   1.313  0.0603  0.6539 -1.4034
34355SOL     OW 7749   5.125   8.786  11.193  0.3493  0.3610 -0.3544
34355SOL    HW1 7750   5.085   8.774  11.107  2.4005  1.1153 -1.5008
34355SOL    HW2 7751   5.077   8.859  11.233 -1.0058 -0.3848 -0.5909
34356SOL     OW 7752   0.958   8.225   3.035  0.3975  0.9588 -1.3004
34356SOL    HW1 7753   0.957   8.262   2.946 -2.5878 -0.4371 -1.9627
34356SOL    HW2 7754   0.897   8.279   3.084 -0.5221 -0.2728 -1.0482
34357SOL     OW 7755   1.375   7.233  10.006 -0.6127  0.3324 -0.0785
34357SOL    HW1 7756   1.299   7.282  10.037 -1.0566  0.9410 -1.9584
34357SOL    HW2 7757   1.350   7.204   9.918  0.2798 -1.9125  0.3533
34358SOL     OW 7758   4.256   2.935   4.739  0.0855 -0.4342  0.2661
34358SOL    HW1 7759   4.195   3.008   4.736 -2.3666 -2.3953 -0.9421
34358SOL    HW2 7760   4.286   2.932   4.830 -0.1604  1.6914  0.4602
34359SOL     OW 7761   3.160   7.595   3.775 -0.0775  0.0754  0.8949
34359SOL    HW1 7762   3.207   7.666   3.733 -0.3515  0.3952  1.1271
34359SOL    HW2 7763   3.155   7.526   3.708  0.0307  0.3416  0.6129
34360SOL     OW 7764   3.665   4.449   1.301 -0.9855  0.4184  0.5020
34360SOL    HW1 7765   3.605   4.500   1.246 -1.5658 -0.2116  0.5295
34360SOL    HW2 7766   3.751   4.486   1.283 -1.1403  0.1580 -0.9421
34361SOL     OW 7767   0.321   4.775   0.111  0.0977  0.3239  0.2638
34361SOL    HW1 7768   0.255   4.823   0.161 -1.1862 -1.2421  0.1574
34361SOL    HW2 7769   0.404   4.794   0.155  0.0208  4.1339 -0.8844
34362SOL     OW 7770  11.067   7.608   0.761  0.1601 -0.0707  0.5137
34362SOL    HW1 7771  11.057   7.682   0.820 -1.0621  0.2016 -0.0070
34362SOL    HW2 7772  11.072   7.531   0.818 -0.7900  0.2099  0.9829
34363SOL     OW 7773   7.868  10.678   6.073 -0.1595  0.1904  0.7208
34363SOL    HW1 7774   7.847  10.771   6.080 -1.5052 -0.1023  0.8447
34363SOL    HW2 7775   7.919  10.658   6.151  1.9221  1.2462 -0.2959
34364SOL     OW 7776   8.977  11.090   7.486 -0.0757 -0.4889  1.1708
34364SOL    HW1 7777   8.882  11.097   7.492 -0.1672 -1.1093  0.5272
34364SOL    HW2 7778   9.003  11.161   7.427 -0.1604 -0.4653  1.1619
34365SOL     OW 7779   5.584   8.321   1.010 -0.1772 -0.2415  0.0066
34365SOL    HW1 7780   5.618   8.280   1.090  0.8807 -1.8915 -1.2078
34365SOL    HW2 7781   5.644   8.394   0.994 -0.5693  0.2853  0.8490
34366SOL     OW 7782   1.674  10.490   9.755 -0.0072 -0.5344 -0.3249
34366SOL    HW1 7783   1.700  10.555   9.690 -0.0490 -0.0255  0.1657
34366SOL    HW2 7784   1.603  10.441   9.712 -2.0570  1.6509  0.3641
34367SOL     OW 7785   9.712  11.535   0.026  0.4666  0.3067 -0.7230
34367SOL    HW1 7786   9.800  11.569   0.038  1.5118 -1.8473 -1.8718
34367SOL    HW2 7787   9.715  11.488  -0.058 -0.6821 -2.9869  0.9031
34368SOL     OW 7788  11.590   4.077   9.540 -0.0236  0.1630  0.0861
34368SOL    HW1 7789  11.679   4.093   9.511 -0.1430  0.3942 -0.1543
34368SOL    HW2 7790  11.551   4.023   9.471 -0.3973  0.9597 -0.3391
34369SOL     OW 7791   5.680  10.834  10.625 -0.0611  0.3970 -0.0820
34369SOL    HW1 7792   5.601  10.788  10.597 -0.7700  1.2892  0.3998
34369SOL    HW2 7793   5.703  10.793  10.709  1.7259 -1.8734 -1.5418
34370SOL     OW 7794   1.311  11.502   6.603 -0.2378 -0.1228 -0.0898
34370SOL    HW1 7795   1.226  11.545   6.600 -0.6729 -0.9931 -1.9736
34370SOL    HW2 7796   1.369  11.561   6.554  0.6518  1.1796  2.3989
34371SOL     OW 7797   5.593  10.874   1.909 -0.3194 -0.2624 -0.7071
34371SOL    HW1 7798   5.522  10.928   1.945 -0.1538  0.2073 -1.0649
34371SOL    HW2 7799   5.550  10.816   1.846 -0.5293 -0.6950 -0.1685
34372SOL     OW 7800   5.798  10.557   0.003  0.2877  0.2497 -0.1103
34372SOL    HW1 7801   5.869  10.547  -0.061  0.6355 -0.3336  0.3494
34372SOL    HW2 7802   5.755  10.638  -0.022 -0.8064 -0.8924 -2.2709
34373SOL     OW 7803  10.738  11.556   7.184  1.0598  0.5512 -0.1979
34373SOL    HW1 7804  10.655  11.570   7.139  1.2664  0.2801 -0.6686
34373SOL    HW2 7805  10.722  11.587   7.273  1.2204  2.9410 -0.9153
34374SOL     OW 7806   4.498   8.244   3.662  0.2012  0.2319  0.5350
34374SOL    HW1 7807   4.571   8.185   3.682  0.7262 -0.2282 -2.2905
34374SOL    HW2 7808   4.538   8.314   3.609 -1.0300  1.2198  0.8707
34375SOL     OW 7809   9.585   7.866   2.506 -0.4089  0.1807  0.3526
34375SOL    HW1 7810   9.594   7.933   2.574  0.7487  0.5264 -0.1045
34375SOL    HW2 7811   9.523   7.903   2.444  1.2270  1.4950 -0.5969
34376SOL     OW 7812   0.970   0.217   3.459 -0.3409 -0.3920 -0.7958
34376SOL    HW1 7813   0.988   0.162   3.536 -0.1412 -0.1651 -0.6791
34376SOL    HW2 7814   1.053   0.219   3.411 -0.4145 -0.3858 -0.9242
34377SOL     OW 7815   5.428   4.510   1.697 -0.3345 -0.3093  0.0662
34377SOL    HW1 7816   5.508   4.520   1.749  0.1792 -1.5535 -0.4542
34377SOL    HW2 7817   5.447   4.555   1.615  0.0639 -1.0507 -0.2680
34378SOL     OW 7818  11.347   1.871   1.601 -0.1227  0.1662  0.0612
34378SOL    HW1 7819  11.347   1.826   1.686 -0.9602 -0.4435 -0.2482
34378SOL    HW2 7820  11.438   1.898   1.588  0.4233 -1.5136  0.2147
34379SOL     OW 7821   8.473   6.375  10.375 -0.6275 -0.2718 -0.4574
34379SOL    HW1 7822   8.568   6.380  10.366 -0.6851  0.6454 -0.6276
34379SOL    HW2 7823   8.459   6.307  10.441  0.1225 -0.7409 -0.7662
34380SOL     OW 7824   2.760   0.796   9.929  0.5929 -0.0767 -0.0884
34380SOL    HW1 7825   2.676   0.754   9.909  0.9708 -1.3795  0.9653
34380SOL    HW2 7826   2.737   0.869   9.986  0.0978  0.1195 -0.5266
34381SOL     OW 7827   6.214   6.698   7.416  0.3577 -0.3569 -0.5961
34381SOL    HW1 7828   6.122   6.711   7.437  0.2503 -0.2058 -1.1407
34381SOL    HW2 7829   6.223   6.730   7.326  1.6087  2.6694  0.4781
34382SOL     OW 7830   9.313   7.792  10.032 -0.7021  0.0379 -0.1922
34382SOL    HW1 7831   9.317   7.710   9.984 -1.4335  0.5370 -1.1311
34382SOL    HW2 7832   9.220   7.811  10.041 -0.5480  0.6688  0.1747
34383SOL     OW 7833   2.927   1.482   3.511  0.7882  0.4052 -0.0213
34383SOL    HW1 7834   2.920   1.547   3.441  1.4843  0.2546 -0.2486
34383SOL    HW2 7835   2.841   1.479   3.551  0.2823  0.2762 -1.0828
34384SOL     OW 7836   9.280   6.759   1.783 -0.0302 -0.8320  0.0311
34384SOL    HW1 7837   9.341   6.813   1.833 -0.7180 -0.6532  0.6894
34384SOL    HW2 7838   9.312   6.670   1.796 -0.4713 -0.8405  1.2009
34385SOL     OW 7839   8.864   1.221   5.805  0.1980 -0.1175  0.6951
34385SOL    HW1 7840   8.772   1.198   5.816 -0.3561  0.5617 -1.9573
34385SOL    HW2 7841   8.867   1.315   5.824  0.4789 -0.2563  1.3623
34386SOL     OW 7842  11.655  10.980  11.165  0.7047  0.0714 -0.0100
34386SOL    HW1 7843  11.680  11.040  11.095 -0.9339 -0.3736 -1.0241
34386SOL    HW2 7844  11.659  11.034  11.245 -3.3544  2.5260 -1.1533
34387SOL     OW 7845   7.671   7.382   0.011  0.4191 -0.1322 -0.2020
34387SOL    HW1 7846   7.749   7.404   0.063  0.2090  0.3860 -0.0976
34387SOL    HW2 7847   7.629   7.311   0.060  0.6550 -0.1984 -0.0933
34388SOL     OW 7848   3.418   3.674  11.304  0.2884  0.4258  0.0678
34388SOL    HW1 7849   3.363   3.632  11.370 -0.4912 -0.0294 -0.8391
34388SOL    HW2 7850   3.489   3.611  11.289 -0.1504  0.0098 -0.3237
34389SOL     OW 7851   7.496   1.145   6.664 -0.2582  0.6273 -0.2556
34389SOL    HW1 7852   7.482   1.067   6.611  0.1069  1.6238 -1.8605
34389SOL    HW2 7853   7.589   1.163   6.656 -0.5385  1.9010 -0.8983
34390SOL     OW 7854  10.501  11.945   4.307  0.3695 -0.1603 -0.2199
34390SOL    HW1 7855  10.547  11.899   4.237  0.7243 -0.0499 -0.0594
34390SOL    HW2 7856  10.566  12.004   4.345  0.8376 -1.7357  1.6135
34391SOL     OW 7857   1.773   3.644   3.891  0.5424  0.0599  0.0910
34391SOL    HW1 7858   1.757   3.658   3.984  1.9123  3.2860 -0.0285
34391SOL    HW2 7859   1.720   3.711   3.847 -0.0892 -1.4033 -1.4989
34392SOL     OW 7860   4.911   0.438   9.439  0.2811  0.3545  0.0796
34392SOL    HW1 7861   4.959   0.361   9.410 -0.8343 -0.6537  0.8350
34392SOL    HW2 7862   4.929   0.504   9.372  0.4262 -0.8769 -1.1299
34393SOL     OW 7863   9.365   5.406  10.817 -0.1209 -0.3671  0.3795
34393SOL    HW1 7864   9.375   5.318  10.852  2.7170 -0.3107  0.0261
34393SOL    HW2 7865   9.336   5.459  10.891  1.7471 -0.9898  1.6491
34394SOL     OW 7866  10.094   1.839   2.895  0.3685  0.1978  0.3122
34394SOL    HW1 7867  10.135   1.758   2.927 -0.3098  0.1046  0.9755
34394SOL    HW2 7868  10.156   1.908   2.919  0.7212 -0.0715  0.1851
34395SOL     OW 7869   0.841   5.960   7.370 -0.4792 -0.2174  0.4190
34395SOL    HW1 7870   0.753   5.924   7.361 -0.7768  0.6450 -0.2851
34395SOL    HW2 7871   0.833   6.050   7.338  1.0417 -0.6755 -1.3923
34396SOL     OW 7872   0.370   3.940   5.536  0.0265  0.0655  0.2862
34396SOL    HW1 7873   0.367   3.980   5.449 -1.3586 -1.6953 -0.5442
34396SOL    HW2 7874   0.284   3.959   5.573 -0.8229 -2.2760 -0.2742
34397SOL     OW 7875   4.778  10.224   2.995  0.0029 -0.4048 -0.1917
34397SOL    HW1 7876   4.817  10.165   3.060 -0.7560 -1.3660 -0.5784
34397SOL    HW2 7877   4.754  10.302   3.046 -2.8304 -2.0717  1.3099
34398SOL     OW 7878   5.422   2.911  10.832 -0.0151  0.1222 -0.6556
34398SOL    HW1 7879   5.449   2.911  10.924  1.7598 -1.7749 -1.1005
34398SOL    HW2 7880   5.357   2.841  10.825  0.3759 -0.2220 -0.9494
34399SOL     OW 7881   2.292   9.389   3.597 -0.5432 -0.0166 -0.4000
34399SOL    HW1 7882   2.354   9.399   3.525  2.0358 -0.0332  1.6613
34399SOL    HW2 7883   2.286   9.476   3.637 -0.7736 -0.3175  0.2415
34400SOL     OW 7884   5.718   6.178  11.640  0.4280  0.3375 -0.0895
34400SOL    HW1 7885   5.693   6.256  11.688  4.0892  0.3779  2.1162
34400SOL    HW2 7886   5.763   6.123  11.704  0.4120 -2.3475 -2.1944
34401SOL     OW 7887   7.437   2.890   9.307 -0.2043 -0.2354  0.2018
34401SOL    HW1 7888   7.413   2.951   9.377 -0.8608 -0.7863  0.4646
34401SOL    HW2 7889   7.383   2.813   9.323  0.1841 -0.6550 -0.4815
34402SOL     OW 7890  10.081   5.026   9.350 -0.3437 -0.7489  0.3213
34402SOL    HW1 7891  10.045   5.109   9.321 -2.2487 -0.9327  1.9686
34402SOL    HW2 7892  10.173   5.030   9.324 -1.1229  0.4045 -2.6313
34403SOL     OW 7893   8.232  11.550  11.035 -0.7239 -0.5459  0.1042
34403SOL    HW1 7894   8.265  11.636  11.008  0.3844 -0.7614  0.7140
34403SOL    HW2 7895   8.297  11.488  11.001  0.0010 -0.9147  2.0630
34404SOL     OW 7896   2.973   2.896   0.405 -0.7098  0.1073  0.2600
34404SOL    HW1 7897   3.002   2.848   0.483  0.4938  0.5958  0.1389
34404SOL    HW2 7898   3.029   2.863   0.335 -1.5338 -0.0591 -0.3383
34405SOL     OW 7899   5.720  10.610   1.944  0.0255  0.1751 -0.2607
34405SOL    HW1 7900   5.746  10.518   1.949 -0.4340 -0.0848 -2.0102
34405SOL    HW2 7901   5.783  10.650   1.884  1.1528  1.4125  1.6076
34406SOL     OW 7902   1.603   9.159   8.130 -0.8613 -0.0327  0.1715
34406SOL    HW1 7903   1.643   9.246   8.138  0.1730 -0.2501 -1.9100
34406SOL    HW2 7904   1.509   9.177   8.128 -0.6526  1.1331 -0.8815
34407SOL     OW 7905   2.526   1.521   6.741  0.4944 -0.0887 -0.0733
34407SOL    HW1 7906   2.555   1.495   6.654  0.2279 -0.4990 -0.0396
34407SOL    HW2 7907   2.432   1.537   6.731  0.6627  0.9230 -0.1095
34408SOL     OW 7908   1.935   0.096   8.134  0.1385  0.5097  0.2686
34408SOL    HW1 7909   1.900   0.135   8.053 -0.0674  0.5122  0.3584
34408SOL    HW2 7910   2.027   0.123   8.136  0.4568 -0.4413 -0.5649
34409SOL     OW 7911   1.773   6.606   5.526  0.0817  0.1746 -0.0577
34409SOL    HW1 7912   1.680   6.584   5.530 -0.1759  0.4972 -2.6372
34409SOL    HW2 7913   1.779   6.697   5.555 -0.3615  0.1149  0.2232
34410SOL     OW 7914   6.416   4.593   5.463  0.8960 -0.4278  0.4627
34410SOL    HW1 7915   6.454   4.586   5.375  1.7553  0.9456  0.7042
34410SOL    HW2 7916   6.482   4.557   5.521  1.0094  0.1469  0.6965
34411SOL     OW 7917   9.606   6.557   0.118 -0.0443  0.0684  0.4350
34411SOL    HW1 7918   9.566   6.598   0.041  0.9312  0.2566  0.0086
34411SOL    HW2 7919   9.636   6.631   0.171  0.0686 -0.0722  0.5685
34412SOL     OW 7920   2.158   7.033   9.717  0.2497  0.3168  0.0325
34412SOL    HW1 7921   2.148   7.127   9.707 -0.6648  0.1817 -0.4836
34412SOL    HW2 7922   2.192   7.003   9.632 -0.1775  0.0945 -0.0615
34413SOL     OW 7923   6.000   5.217   8.705  0.3071  0.1852 -0.1468
34413SOL    HW1 7924   6.044   5.252   8.783  0.3028  0.8117 -0.4177
34413SOL    HW2 7925   5.914   5.190   8.736 -0.4779  2.3100 -0.3047
34414SOL     OW 7926   6.962   4.473   4.093 -0.5077 -0.2417  0.6003
34414SOL    HW1 7927   7.041   4.427   4.063 -0.0005  0.0283  1.4847
34414SOL    HW2 7928   6.891   4.433   4.044  0.1946 -0.3686 -0.3649
34415SOL     OW 7929   8.869  11.530   4.464 -0.3009 -0.1199  0.3225
34415SOL    HW1 7930   8.957  11.567   4.460  0.6457 -1.8876  2.5077
34415SOL    HW2 7931   8.856  11.488   4.378  1.7726 -1.4034  0.5814
34416SOL     OW 7932  11.051   5.823   6.050 -0.1276  0.1393  0.4825
34416SOL    HW1 7933  11.025   5.739   6.013  0.1954 -0.4133  1.4688
34416SOL    HW2 7934  11.146   5.827   6.035 -0.2504  0.6793 -0.2227
34417SOL     OW 7935   2.600   6.536   2.715  0.1139  0.0184 -0.1378
34417SOL    HW1 7936   2.616   6.630   2.718 -0.2309  0.0731  0.0112
34417SOL    HW2 7937   2.686   6.496   2.735  0.7151  0.2694 -2.0314
34418SOL     OW 7938   2.971   4.332   1.405  0.4718  1.0847  0.3535
34418SOL    HW1 7939   3.062   4.339   1.376  0.8839 -0.5231  1.1212
34418SOL    HW2 7940   2.978   4.319   1.500 -0.3902 -1.1600  0.1727
34419SOL     OW 7941   5.837   2.440   4.521  0.1727 -0.1480  0.4269
34419SOL    HW1 7942   5.832   2.346   4.503 -1.5480 -0.1050  0.5730
34419SOL    HW2 7943   5.843   2.445   4.617  1.2106 -0.1158  0.3744
34420SOL     OW 7944   8.220   1.365   1.497 -0.4267  0.3594  0.2939
34420SOL    HW1 7945   8.314   1.378   1.511  0.1890 -1.6128 -1.4983
34420SOL    HW2 7946   8.183   1.453   1.504  1.8590  1.5489 -1.0303
34421SOL     OW 7947   2.596   2.273   3.057 -0.5191  0.0491  0.3990
34421SOL    HW1 7948   2.636   2.187   3.065  0.6823  0.5844  0.4863
34421SOL    HW2 7949   2.517   2.269   3.110 -0.2855 -0.8926  0.6802
34422SOL     OW 7950   7.741  10.036   7.570  0.5770  0.1629 -0.3043
34422SOL    HW1 7951   7.650  10.028   7.598 -0.2681 -0.3434 -2.9524
34422SOL    HW2 7952   7.749  10.127   7.539  1.2885  0.4976  0.7832
34423SOL     OW 7953   5.128   9.231   3.595  0.0874  0.0890 -0.1814
34423SOL    HW1 7954   5.042   9.210   3.631  1.0327 -1.4644  1.3385
34423SOL    HW2 7955   5.112   9.303   3.535 -2.4797 -1.0775 -1.0303
34424SOL     OW 7956   0.814   6.747   7.224  0.1091 -0.0970 -0.3489
34424SOL    HW1 7957   0.846   6.729   7.135 -0.9220  1.2519 -1.0461
34424SOL    HW2 7958   0.882   6.801   7.264  0.2178 -0.0348 -0.6166
34425SOL     OW 7959  10.479   0.990   2.971 -1.0130 -0.0500  0.3810
34425SOL    HW1 7960  10.496   0.975   2.878 -1.3995  1.0724  0.1129
34425SOL    HW2 7961  10.397   1.039   2.973 -0.5478  0.7324  1.2576
34426SOL     OW 7962   0.565   2.533   3.541  1.4119 -0.0443 -0.0131
34426SOL    HW1 7963   0.553   2.492   3.626  1.9626  0.8173  0.4979
34426SOL    HW2 7964   0.643   2.587   3.551  0.2274  1.8309 -0.3694
34427SOL     OW 7965   3.136   3.500   5.138  0.2129 -0.3776  1.1815
34427SOL    HW1 7966   3.056   3.459   5.170 -0.6036  0.6841  0.5822
34427SOL    HW2 7967   3.176   3.539   5.215 -0.1421 -0.4218  1.3893
34428SOL     OW 7968   6.994   1.942  10.965  0.5624 -0.1011  0.1857
34428SOL    HW1 7969   7.008   1.863  11.017  0.8660  0.5501  1.1286
34428SOL    HW2 7970   7.017   1.917  10.876  1.2069 -0.9167  0.5687
34429SOL     OW 7971   7.410   1.383   6.310  0.0886 -0.0422  0.3601
34429SOL    HW1 7972   7.354   1.454   6.278  1.3047  1.0721  0.6337
34429SOL    HW2 7973   7.359   1.304   6.293 -1.0735  0.8366 -0.4682
34430SOL     OW 7974  11.765  10.578   9.493  0.0573  0.4993 -0.3638
34430SOL    HW1 7975  11.758  10.518   9.567 -1.9775 -0.4729 -1.2922
34430SOL    HW2 7976  11.782  10.663   9.534 -2.0935  0.1968  1.3619
34431SOL     OW 7977   4.993   4.568  11.324 -0.1485  0.1590 -0.2524
34431SOL    HW1 7978   5.060   4.636  11.335 -1.5180  1.4774  0.2776
34431SOL    HW2 7979   5.021   4.520  11.246  0.2128  2.1365 -1.4033
34432SOL     OW 7980   7.415  10.693   4.654 -0.6631 -0.3101  0.5625
34432SOL    HW1 7981   7.496  10.647   4.632  0.7810  1.6721  1.4312
34432SOL    HW2 7982   7.405  10.758   4.584 -0.4870  0.6421  1.4039
34433SOL     OW 7983  10.259  11.847   4.804 -0.0091  0.0243 -0.4682
34433SOL    HW1 7984  10.275  11.883   4.717 -1.3785  0.4400 -0.5719
34433SOL    HW2 7985  10.268  11.922   4.863  2.7978 -0.5933  0.0357
34434SOL     OW 7986   6.142   8.771   4.104  0.2679  0.5309 -0.1814
34434SOL    HW1 7987   6.151   8.746   4.012 -1.5453  0.7554 -0.4530
34434SOL    HW2 7988   6.072   8.715   4.137  0.1171  1.2490  0.7447
34435SOL     OW 7989   8.611   8.244   8.905 -0.3594  0.2376 -0.5559
34435SOL    HW1 7990   8.562   8.175   8.949  1.8509 -1.7354 -0.9961
34435SOL    HW2 7991   8.544   8.306   8.875 -2.2365 -0.3497  2.0586
34436SOL     OW 7992   3.380   4.988   2.369 -0.8917  0.1507  0.2153
34436SOL    HW1 7993   3.426   4.905   2.385 -0.2460  0.0895 -1.6879
34436SOL    HW2 7994   3.326   5.001   2.448  1.2858 -0.4932  1.9132
34437SOL     OW 7995   9.030   0.072   1.886 -0.8000  0.1400  0.5862
34437SOL    HW1 7996   9.010   0.132   1.815 -2.8300  1.8291  2.4417
34437SOL    HW2 7997   9.121   0.091   1.909 -0.9961  1.6119  0.2569
34438SOL     OW 7998   4.283   3.485   5.354 -0.6514 -0.0586  0.1572
34438SOL    HW1 7999   4.270   3.475   5.449  0.2133 -0.4389  0.2461
34438SOL    HW2 8000   4.378   3.488   5.343 -0.4991 -4.1699 -1.0682
34439SOL     OW 8001   4.482   1.782   5.227 -0.3728 -0.3959 -0.0428
34439SOL    HW1 8002   4.395   1.770   5.263  0.3867 -2.0733  1.3553
34439SOL    HW2 8003   4.476   1.751   5.137 -1.2351 -0.3848  0.0072
34440SOL     OW 8004  11.240   2.616   5.701  0.2173 -0.2016  0.3515
34440SOL    HW1 8005  11.255   2.689   5.761  1.5995 -0.1303 -0.0484
34440SOL    HW2 8006  11.211   2.659   5.620 -0.9848 -0.2543  0.7349
34441SOL     OW 8007   1.843   5.540   6.062  0.4824 -0.1516  0.0880
34441SOL    HW1 8008   1.858   5.497   5.978 -0.9060  1.3673 -0.9894
34441SOL    HW2 8009   1.757   5.508   6.089  0.9081 -0.6071  0.9486
34442SOL     OW 8010   2.924   4.123   1.066  0.0196  0.1745 -0.1335
34442SOL    HW1 8011   2.881   4.060   1.009 -2.2552  0.0879  1.5127
34442SOL    HW2 8012   2.967   4.070   1.133 -1.3191  0.2944  0.8621
34443SOL     OW 8013   3.718   4.129   5.302  0.4968  0.4030 -0.7552
34443SOL    HW1 8014   3.747   4.038   5.295 -0.3787  0.1223 -0.8279
34443SOL    HW2 8015   3.624   4.126   5.282 -0.0365  0.9768  1.3695
34444SOL     OW 8016   5.489   9.027   3.785  0.0577  0.5066  0.2176
34444SOL    HW1 8017   5.518   8.936   3.792 -0.2645  0.3301 -0.6391
34444SOL    HW2 8018   5.504   9.051   3.693  0.4961  1.4433  0.5179
34445SOL     OW 8019   2.392  11.982   5.653 -0.2558 -0.3087 -0.5718
34445SOL    HW1 8020   2.323  11.923   5.684  0.4557 -1.1136 -0.4493
34445SOL    HW2 8021   2.431  12.017   5.734 -1.2460  1.0475 -0.6520
34446SOL     OW 8022   6.784  11.007   4.825 -1.0982 -0.0696 -0.6015
34446SOL    HW1 8023   6.809  10.930   4.773 -0.0153 -0.9736  1.1654
34446SOL    HW2 8024   6.852  11.072   4.806  0.2139 -0.9714  0.8569
34447SOL     OW 8025  10.494   6.091  10.046 -0.3727 -0.1104 -0.0607
34447SOL    HW1 8026  10.458   6.153  10.110 -0.1187  0.6158 -0.6188
34447SOL    HW2 8027  10.437   6.015  10.053 -0.8297  0.2690  0.4680
34448SOL     OW 8028   0.424   3.252   7.209  0.2994  0.1119  0.1372
34448SOL    HW1 8029   0.465   3.200   7.140  0.0611  0.0704  0.0247
34448SOL    HW2 8030   0.487   3.251   7.281  1.2237  1.3987 -0.6039
34449SOL     OW 8031   2.008   8.265   6.580  0.0477  0.2407  0.2914
34449SOL    HW1 8032   1.935   8.315   6.543  0.2600 -0.1804 -0.7448
34449SOL    HW2 8033   2.039   8.317   6.653 -0.9224  0.7081  0.3798
34450SOL     OW 8034   7.059   5.429   2.292 -0.5815 -0.2193  0.0968
34450SOL    HW1 8035   7.045   5.425   2.198 -1.5628  0.8524  0.1730
34450SOL    HW2 8036   7.131   5.491   2.303  1.1435 -2.0699 -0.0250
34451SOL     OW 8037   1.756   6.646   1.613  0.0500  0.6631  0.3232
34451SOL    HW1 8038   1.828   6.642   1.675 -1.5714 -0.4330  2.2897
34451SOL    HW2 8039   1.737   6.739   1.603 -0.0560  0.8536  2.0402
34452SOL     OW 8040   5.475   3.246   6.729  0.0369 -0.0147  0.2903
34452SOL    HW1 8041   5.442   3.304   6.798 -0.3873 -1.1015  1.0325
34452SOL    HW2 8042   5.428   3.163   6.742  0.0165 -0.2792 -1.2611
34453SOL     OW 8043  11.640   3.684   1.251  0.0427  0.1946  0.8141
34453SOL    HW1 8044  11.689   3.708   1.172  0.4880 -1.2821  0.6044
34453SOL    HW2 8045  11.565   3.744   1.252 -0.1704  0.0097 -0.9445
34454SOL     OW 8046   0.592  10.245  10.719  0.0210 -0.0393 -0.0012
34454SOL    HW1 8047   0.604  10.265  10.812 -0.0044 -1.0275  0.2265
34454SOL    HW2 8048   0.626  10.321  10.673 -1.0914  1.0097  0.8466
34455SOL     OW 8049  10.557   7.736   1.869  0.0140 -0.8253 -0.0683
34455SOL    HW1 8050  10.559   7.734   1.965  1.0194 -1.1527 -0.0852
34455SOL    HW2 8051  10.474   7.779   1.848 -0.6525 -1.5656  0.9386
34456SOL     OW 8052   3.695   1.241   0.322  0.6494 -0.5701  0.4164
34456SOL    HW1 8053   3.699   1.222   0.228  0.3391  0.9800  0.0476
34456SOL    HW2 8054   3.622   1.189   0.355  1.1074 -1.5440 -0.0802
34457SOL     OW 8055  10.778   9.211  11.242 -0.4285 -0.3880 -0.0928
34457SOL    HW1 8056  10.868   9.225  11.272 -0.0500 -1.9125 -0.4380
34457SOL    HW2 8057  10.756   9.123  11.273 -2.4857  0.6202  1.5681
34458SOL     OW 8058   7.453   8.245   9.550  0.7319 -0.2551  0.0076
34458SOL    HW1 8059   7.545   8.235   9.526  1.3880  1.4313  1.5605
34458SOL    HW2 8060   7.455   8.290   9.635 -1.5226 -0.2032  0.0986
34459SOL     OW 8061   0.736   8.721   9.504 -0.0443  0.0949  0.4065
34459SOL    HW1 8062   0.711   8.628   9.503 -0.6674  0.2572 -1.1289
34459SOL    HW2 8063   0.824   8.721   9.543 -0.3285 -1.0456  1.1203
34460SOL     OW 8064   6.179  10.693   9.210 -0.0169 -0.1911 -0.7365
34460SOL    HW1 8065   6.206  10.783   9.191  1.1230 -0.6278 -1.2745
34460SOL    HW2 8066   6.153  10.657   9.125 -1.9141  0.0727 -0.2979
34461SOL     OW 8067   4.038  10.604   8.940 -0.5799 -0.2436  0.2147
34461SOL    HW1 8068   4.051  10.627   9.032 -2.8499  1.5310  0.1622
34461SOL    HW2 8069   3.961  10.548   8.940 -2.5579  2.3263 -0.8207
34462SOL     OW 8070   0.487   9.046   8.154  0.4858  0.0793 -0.1502
34462SOL    HW1 8071   0.548   9.014   8.221  1.6134  1.5741 -0.4163
34462SOL    HW2 8072   0.537   9.045   8.073 -0.0307  0.7429 -0.4878
34463SOL     OW 8073   4.438  10.091  10.814  0.4272  0.6291 -0.5093
34463SOL    HW1 8074   4.359  10.037  10.809 -1.5232  3.0444  1.5683
34463SOL    HW2 8075   4.425  10.157  10.746 -1.1200  3.0169  1.9323
34464SOL     OW 8076   7.095   5.097   4.197 -0.3701  0.0432  0.0892
34464SOL    HW1 8077   7.067   5.027   4.138  0.2681 -0.7245  0.6574
34464SOL    HW2 8078   7.151   5.153   4.144 -3.4337  2.0538 -1.2862
34465SOL     OW 8079   3.742  10.733  10.879  0.0693  0.3402 -0.0347
34465SOL    HW1 8080   3.725  10.798  10.948 -1.1136 -0.5211  0.5231
34465SOL    HW2 8081   3.698  10.654  10.910  1.1107 -0.6132 -0.9103
34466SOL     OW 8082   7.024   7.429  11.101  0.3605  0.2515  0.4695
34466SOL    HW1 8083   7.023   7.442  11.007  1.3868  1.1842  0.5727
34466SOL    HW2 8084   7.116   7.413  11.122 -0.1729 -2.8642  0.9643
34467SOL     OW 8085   9.104   3.076   5.279 -0.1740  0.4730  0.4707
34467SOL    HW1 8086   9.199   3.082   5.273 -0.1308  1.6601  1.7935
34467SOL    HW2 8087   9.088   3.015   5.350 -0.4060  0.1173  0.1144
34468SOL     OW 8088   5.072   9.507   1.839  0.2755  0.6642  0.5262
34468SOL    HW1 8089   5.020   9.475   1.765  0.3691  1.5314  0.0710
34468SOL    HW2 8090   5.071   9.602   1.829  1.8034  0.7125  0.5948
34469SOL     OW 8091   7.378  10.175   5.511  0.4777 -0.4936  0.3081
34469SOL    HW1 8092   7.416  10.260   5.486 -0.9767  0.0944  0.0343
34469SOL    HW2 8093   7.367  10.129   5.427 -1.4941  0.2443  0.1279
34470SOL     OW 8094   1.339   9.311   4.197 -0.0431 -0.4567  0.1802
34470SOL    HW1 8095   1.245   9.315   4.181 -0.6380 -1.1733  2.9784
34470SOL    HW2 8096   1.353   9.223   4.233  1.5783 -0.0814  0.5466
34471SOL     OW 8097   9.046   8.575   1.043  0.2848 -0.1055  0.7462
34471SOL    HW1 8098   8.967   8.608   1.086  0.7564  0.6939  1.0438
34471SOL    HW2 8099   9.049   8.621   0.959  0.2536 -0.3905  0.5876
34472SOL     OW 8100  11.388   5.899   0.859 -0.1766  0.3256 -0.1684
34472SOL    HW1 8101  11.483   5.900   0.855 -0.1966  0.1343 -0.8467
34472SOL    HW2 8102  11.366   5.815   0.899 -0.0544  0.5642  0.4090
34473SOL     OW 8103   6.301   5.394   3.299  0.4775  0.0569  0.6982
34473SOL    HW1 8104   6.371   5.367   3.239  1.7982  0.3944  2.0277
34473SOL    HW2 8105   6.258   5.312   3.324  0.1382 -0.1216 -0.3973
34474SOL     OW 8106   8.565   7.930   4.594 -0.0288 -0.1110  0.3742
34474SOL    HW1 8107   8.527   7.925   4.682  0.6682  1.0781  0.7634
34474SOL    HW2 8108   8.621   8.008   4.596  0.3713 -0.3335 -0.9829
34475SOL     OW 8109   8.715   1.470  11.263 -0.4220  0.7219  0.0700
34475SOL    HW1 8110   8.745   1.414  11.335  0.1532  1.0583  0.0984
34475SOL    HW2 8111   8.644   1.421  11.223  0.6536 -0.4633 -0.4777
34476SOL     OW 8112   3.738  11.545   0.545 -0.9889 -0.5726  0.4401
34476SOL    HW1 8113   3.766  11.488   0.474 -1.5022  0.0494 -0.2806
34476SOL    HW2 8114   3.743  11.634   0.508  0.8987 -0.0008  1.8799
34477SOL     OW 8115   6.008   8.623   1.931 -0.4366 -0.0175 -0.1112
34477SOL    HW1 8116   5.951   8.578   1.868 -0.0125  3.3502 -3.2412
34477SOL    HW2 8117   5.975   8.596   2.016 -3.5222 -2.0156 -1.7293
34478SOL     OW 8118   5.826   9.398   3.379  0.0537 -0.2834 -0.7338
34478SOL    HW1 8119   5.731   9.395   3.385  0.1218 -1.6316 -0.0568
34478SOL    HW2 8120   5.845   9.373   3.289 -0.2340  0.2992 -0.9610
34479SOL     OW 8121   2.197   2.366  10.264 -0.1162  0.0318  0.3653
34479SOL    HW1 8122   2.126   2.329  10.211  0.6783 -0.8014 -0.1443
34479SOL    HW2 8123   2.243   2.426  10.205  1.2068 -1.4344 -0.1689
34480SOL     OW 8124   8.304  10.998  10.113 -0.2418 -0.2711 -0.3534
34480SOL    HW1 8125   8.218  11.022  10.145 -0.4708 -0.9648 -0.4263
34480SOL    HW2 8126   8.341  11.079  10.079  0.0195  0.5003  1.6504
34481SOL     OW 8127   6.370   8.885   4.139 -0.3248 -0.1640 -0.4444
34481SOL    HW1 8128   6.292   8.830   4.144 -1.4988  1.4724  0.0588
34481SOL    HW2 8129   6.343   8.969   4.175  0.9207  1.2758 -2.5861
34482SOL     OW 8130   9.207   8.313  10.014  0.2855  0.0923  0.5342
34482SOL    HW1 8131   9.259   8.393  10.024  0.2735  0.2224 -0.3975
34482SOL    HW2 8132   9.225   8.263  10.094  1.3486  0.4160  0.5170
34483SOL     OW 8133  10.337   9.288   8.007 -0.1062 -0.2828 -0.5319
34483SOL    HW1 8134  10.278   9.213   8.005  0.2214 -0.5251 -2.2361
34483SOL    HW2 8135  10.368   9.292   8.098 -1.9848 -0.7089  0.1721
34484SOL     OW 8136   9.457   2.141   7.791  0.2111  0.3334  0.3824
34484SOL    HW1 8137   9.505   2.148   7.709  1.3111  1.7076  1.1025
34484SOL    HW2 8138   9.502   2.071   7.839  0.2986  0.3347  0.3015
34485SOL     OW 8139   1.861  10.964  10.020  0.1356 -0.3365  0.0368
34485SOL    HW1 8140   1.954  10.977  10.038  0.6095 -1.0881 -1.6733
34485SOL    HW2 8141   1.833  10.901  10.086  0.8999 -0.2561  0.4513
34486SOL     OW 8142  11.457   8.229   3.846  0.4628 -0.1234  0.0512
34486SOL    HW1 8143  11.403   8.307   3.833  0.9941  0.4376  1.0809
34486SOL    HW2 8144  11.411   8.179   3.912  1.1519  0.3261  0.8856
34487SOL     OW 8145   6.574   7.580   9.847 -0.1894  0.4680 -0.2448
34487SOL    HW1 8146   6.579   7.490   9.880  3.5625 -0.0522 -1.8026
34487SOL    HW2 8147   6.587   7.634   9.925  1.2556 -0.4940  0.2220
34488SOL     OW 8148   4.721   6.782   0.017 -0.1833 -0.5494 -0.0199
34488SOL    HW1 8149   4.775   6.730  -0.042  0.8335 -1.6947  1.7930
34488SOL    HW2 8150   4.776   6.795   0.094 -1.9349 -0.4295  1.2828
34489SOL     OW 8151   1.900   7.301   3.724  0.0301 -0.1909  0.3975
34489SOL    HW1 8152   1.854   7.223   3.755 -0.9117 -0.7811 -2.1975
34489SOL    HW2 8153   1.831   7.366   3.710  0.4981  0.2893  0.2729
34490SOL     OW 8154  11.054  11.160   5.970 -0.1202  0.0343 -0.0681
34490SOL    HW1 8155  11.081  11.251   5.984 -2.2361  0.7635 -0.3965
34490SOL    HW2 8156  11.060  11.120   6.056  1.6456  0.1966 -0.0659
34491SOL     OW 8157   7.586   2.369   4.763  0.2962  0.0860  0.3075
34491SOL    HW1 8158   7.646   2.375   4.688  0.5665  0.1594  0.5271
34491SOL    HW2 8159   7.600   2.450   4.811  1.6866 -0.8515  1.5920
34492SOL     OW 8160  11.140   9.387   8.981  0.8709 -0.3386 -0.1724
34492SOL    HW1 8161  11.170   9.476   9.002  1.0546 -0.4752  0.1436
34492SOL    HW2 8162  11.080   9.365   9.052 -2.8910  1.3185 -2.5347
34493SOL     OW 8163  10.693   6.501  10.638 -0.2808 -0.0626 -0.9035
34493SOL    HW1 8164  10.750   6.438  10.682 -0.9161 -0.5060 -0.7093
34493SOL    HW2 8165  10.753   6.562  10.595  0.3485 -1.2759 -1.7733
34494SOL     OW 8166  11.755   9.086   6.929  0.4398  0.3421 -0.0822
34494SOL    HW1 8167  11.841   9.046   6.943 -0.1236 -0.6941  0.5810
34494SOL    HW2 8168  11.699   9.048   6.998 -0.0798  2.4986  0.7771
34495SOL     OW 8169   1.626  11.002   0.900 -0.0351 -0.1216  0.1999
34495SOL    HW1 8170   1.650  11.029   0.989  1.8847  0.0167 -0.3358
34495SOL    HW2 8171   1.649  10.909   0.896 -0.3606 -0.1922 -0.0772
34496SOL     OW 8172   5.219   5.268   7.098 -0.1743 -0.9856 -0.3646
34496SOL    HW1 8173   5.265   5.233   7.021 -1.5711 -2.5209 -0.5467
34496SOL    HW2 8174   5.153   5.202   7.119  1.1478 -1.4314  3.1401
34497SOL     OW 8175  10.293   4.907  11.620 -0.1304 -0.3859  0.2554
34497SOL    HW1 8176  10.353   4.949  11.681 -1.7864  0.7234  1.1813
34497SOL    HW2 8177  10.262   4.978  11.563 -0.6732 -0.9115 -0.1202
34498SOL     OW 8178   4.688  11.891   8.280  0.0614 -0.2883  0.5960
34498SOL    HW1 8179   4.765  11.942   8.256  1.1149 -1.5978  1.0377
34498SOL    HW2 8180   4.716  11.840   8.356 -0.6989 -2.0051 -0.2111
34499SOL     OW 8181   9.180   9.749   9.026  0.0592 -0.0322 -0.8028
34499SOL    HW1 8182   9.259   9.715   8.983 -0.5105 -0.5467 -1.4666
34499SOL    HW2 8183   9.184   9.844   9.012  0.7144 -0.0194 -0.5571
34500SOL     OW 8184   6.916  11.000   9.868 -0.0425  0.1292  0.0515
34500SOL    HW1 8185   6.978  11.073   9.861 -0.3802  0.4743  0.5357
34500SOL    HW2 8186   6.859  11.010   9.792  0.2756  0.0221 -0.2021
34501SOL     OW 8187   2.217   4.836   4.515  0.0573  0.6161  0.0636
34501SOL    HW1 8188   2.169   4.817   4.595 -2.1809  1.0122 -1.1104
34501SOL    HW2 8189   2.209   4.756   4.463 -0.2228  1.0349 -0.5544
34502SOL     OW 8190   9.272   6.125   5.851  0.2296 -0.2499  0.2505
34502SOL    HW1 8191   9.314   6.040   5.867 -0.9269 -0.8731  0.0429
34502SOL    HW2 8192   9.228   6.115   5.767  2.4649  1.5267 -1.2806
34503SOL     OW 8193   0.925   4.684   0.415 -0.2575  0.0994 -0.0597
34503SOL    HW1 8194   0.842   4.724   0.442  0.1575  1.0899 -0.1946
34503SOL    HW2 8195   0.972   4.755   0.371  0.3159 -0.6825 -0.7314
34504SOL     OW 8196   6.679   7.032   0.339  0.0564 -0.2028 -0.4646
34504SOL    HW1 8197   6.663   7.126   0.325 -0.3661 -0.1271  0.4780
34504SOL    HW2 8198   6.615   6.988   0.283 -1.3086  0.0915  0.8155
34505SOL     OW 8199  11.818   4.514  11.858  0.1523 -0.1703 -0.1802
34505SOL    HW1 8200  11.856   4.484  11.941  2.2464 -0.5154 -1.1894
34505SOL    HW2 8201  11.891   4.510  11.796 -2.0252 -3.0384 -2.8713
34506SOL     OW 8202   1.054   3.132   9.119  0.4459  0.1279 -0.2719
34506SOL    HW1 8203   1.137   3.176   9.102  0.5149 -0.0778 -0.4745
34506SOL    HW2 8204   1.063   3.047   9.076 -1.1435  1.3499 -3.3291
34507SOL     OW 8205   6.674   4.059   8.294  0.2788  0.7294 -0.5909
34507SOL    HW1 8206   6.722   3.987   8.334 -1.6071 -0.0788  0.3344
34507SOL    HW2 8207   6.593   4.020   8.263 -0.7861  2.4408 -0.0871
34508SOL     OW 8208   0.606   2.536  11.652  0.1542 -0.0605 -0.3051
34508SOL    HW1 8209   0.690   2.580  11.658 -0.6395  1.5517 -0.3024
34508SOL    HW2 8210   0.571   2.538  11.741 -0.2931  0.1466 -0.4807
34509SOL     OW 8211   9.586   2.296   3.389  0.0248 -0.2285  0.8494
34509SOL    HW1 8212   9.627   2.221   3.346  1.5218  0.7668  0.4599
34509SOL    HW2 8213   9.571   2.359   3.319 -1.0438 -0.0586  1.2019
34510SOL     OW 8214   2.751  11.440   9.170 -0.1996  0.1289  0.2489
34510SOL    HW1 8215   2.813  11.497   9.126 -0.4422  0.4067  0.2669
34510SOL    HW2 8216   2.726  11.375   9.103  0.6429 -0.4152  0.4457
34511SOL     OW 8217   8.699   5.977   6.543 -0.7181 -0.7700  0.4334
34511SOL    HW1 8218   8.711   5.886   6.515  2.2059 -0.7319  1.2169
34511SOL    HW2 8219   8.759   6.027   6.488 -0.7281  0.3847  1.4314
34512SOL     OW 8220  10.541   5.161   3.741 -0.1703  0.2102 -0.3405
34512SOL    HW1 8221  10.567   5.074   3.709  0.2321  0.1201  0.2281
34512SOL    HW2 8222  10.589   5.222   3.684  1.6152  0.0491  0.8992
34513SOL     OW 8223   1.646   6.242   2.181 -0.6364  0.2191  0.8404
34513SOL    HW1 8224   1.633   6.318   2.237  2.6409  0.6093  1.2777
34513SOL    HW2 8225   1.718   6.266   2.124 -0.7310 -1.9189 -0.2970
34514SOL     OW 8226  10.895   7.730  11.563  0.4558 -0.1503 -0.2418
34514SOL    HW1 8227  10.884   7.742  11.468  0.6129  3.3146  0.0778
34514SOL    HW2 8228  10.815   7.765  11.601  1.0812  0.0008  0.9846
34515SOL     OW 8229   8.149   3.136   5.207 -0.3109  0.5985 -0.3536
34515SOL    HW1 8230   8.186   3.077   5.142 -0.5134 -1.7312  1.5165
34515SOL    HW2 8231   8.082   3.185   5.159  1.1367  0.6825 -2.4004
34516SOL     OW 8232   0.937  10.382   6.708  0.2667 -0.3907  0.3366
34516SOL    HW1 8233   0.859  10.439   6.705  1.7288  1.8094  1.3506
34516SOL    HW2 8234   0.924  10.329   6.787  2.0318  3.7389  3.8222
34517SOL     OW 8235  11.994   2.635  10.861 -1.0024 -0.0056  0.0717
34517SOL    HW1 8236  11.969   2.543  10.852  0.3385 -0.4065  0.3335
34517SOL    HW2 8237  11.977   2.656  10.953  1.2457 -0.8076  0.7258
34518SOL     OW 8238   8.388   7.303   6.707 -0.0463  0.1025 -0.0531
34518SOL    HW1 8239   8.451   7.266   6.770 -0.9592  1.0089  1.4614
34518SOL    HW2 8240   8.334   7.228   6.681  0.6301 -0.3728 -0.1026
34519SOL     OW 8241   9.469   1.678   9.350 -0.3798  0.0528  0.5504
34519SOL    HW1 8242   9.559   1.652   9.371  0.0783  2.3957  1.8749
34519SOL    HW2 8243   9.470   1.691   9.255  0.8360  0.5030  0.6054
34520SOL     OW 8244   8.826   9.977   6.469 -0.7349 -0.4968  0.3265
34520SOL    HW1 8245   8.847   9.885   6.452 -1.9627 -0.6258 -0.7302
34520SOL    HW2 8246   8.900  10.025   6.432 -0.6358 -1.0259 -0.1899
34521SOL     OW 8247   3.230   9.104   6.121  1.0405 -0.0178 -0.4008
34521SOL    HW1 8248   3.159   9.157   6.086  0.7955  0.3360  0.5992
34521SOL    HW2 8249   3.189   9.052   6.190  2.0836  1.5186  1.4488
34522SOL     OW 8250   7.170   4.820   7.810 -0.2026  0.9993  0.2085
34522SOL    HW1 8251   7.152   4.913   7.796 -1.4605  0.7509  0.0023
34522SOL    HW2 8252   7.118   4.797   7.887 -0.0774  0.4146  0.1249
34523SOL     OW 8253   7.269   6.725   2.379 -0.1879  0.1204 -0.0985
34523SOL    HW1 8254   7.351   6.769   2.354  0.7241 -0.7416  1.2181
34523SOL    HW2 8255   7.221   6.791   2.428 -0.4813  0.7616 -1.2210
34524SOL     OW 8256   4.928   8.739   8.243  0.1789 -0.0902  0.1255
34524SOL    HW1 8257   4.923   8.776   8.332  0.8721 -3.6303  1.7998
34524SOL    HW2 8258   4.862   8.669   8.243  0.4819 -0.4344 -2.0473
34525SOL     OW 8259   6.460   3.390   9.066 -0.1587  0.2685  0.0123
34525SOL    HW1 8260   6.409   3.314   9.038 -1.4014  1.6231 -1.6374
34525SOL    HW2 8261   6.517   3.410   8.992  0.7463  0.4708  0.7485
34526SOL     OW 8262   9.478   5.017  11.499 -0.3201  0.4907 -0.6112
34526SOL    HW1 8263   9.502   5.110  11.499 -2.9531  1.2423 -0.4734
34526SOL    HW2 8264   9.432   5.004  11.417  0.0627 -0.7218 -0.6423
34527SOL     OW 8265   4.493   6.060   0.174 -0.2837 -0.5414  0.3271
34527SOL    HW1 8266   4.585   6.041   0.194 -0.5626 -1.1050  1.0978
34527SOL    HW2 8267   4.452   5.974   0.170 -0.8593 -0.2693  0.3545
34528SOL     OW 8268   2.916   7.889   7.393 -0.4094 -0.1858 -0.4775
34528SOL    HW1 8269   2.848   7.829   7.362 -0.6924  0.0567 -0.3225
34528SOL    HW2 8270   2.897   7.972   7.349 -0.6225  0.0743  0.1033
34529SOL     OW 8271  11.329   5.002   6.682  0.0595  0.1753 -0.0965
34529SOL    HW1 8272  11.388   4.960   6.744 -0.9138  2.3795  2.5489
34529SOL    HW2 8273  11.380   5.074   6.645 -0.5082  1.3988  1.3648
34530SOL     OW 8274   4.089   9.776   5.507  0.5765  0.0367 -0.1769
34530SOL    HW1 8275   4.078   9.744   5.417  1.0992  1.4692 -0.7819
34530SOL    HW2 8276   4.081   9.697   5.561 -1.8175 -0.5921 -1.2883
34531SOL     OW 8277  10.275   4.014   7.778  0.2352  0.6934 -0.0509
34531SOL    HW1 8278  10.197   4.000   7.724  2.1012  0.1989 -2.8065
34531SOL    HW2 8279  10.258   3.965   7.859 -1.4485 -1.1739 -1.4501
34532SOL     OW 8280   6.611   5.456   0.114 -0.4617 -0.2073 -0.3159
34532SOL    HW1 8281   6.553   5.439   0.189  1.6040  0.0776  1.4605
34532SOL    HW2 8282   6.670   5.525   0.145  1.7737 -1.5081 -1.4231
34533SOL     OW 8283   6.600   9.543   5.112 -0.1035 -0.0137 -0.2392
34533SOL    HW1 8284   6.583   9.604   5.183 -0.3444  1.6867 -1.6793
34533SOL    HW2 8285   6.513   9.523   5.077  0.1429  2.9097 -2.9627
34534SOL     OW 8286   8.591   8.414   9.174 -0.1647 -0.5139 -0.0618
34534SOL    HW1 8287   8.640   8.414   9.092  0.6913 -0.3591  0.4339
34534SOL    HW2 8288   8.557   8.325   9.181  0.2891 -0.7121 -0.2809
34535SOL     OW 8289   4.376  11.219   7.358  0.1713 -0.4194 -0.2320
34535SOL    HW1 8290   4.438  11.237   7.429 -1.4813  1.0895  0.9284
34535SOL    HW2 8291   4.420  11.251   7.280  1.4944 -0.8516  0.3132
34536SOL     OW 8292   3.016  11.519   7.542  0.2384 -0.5890 -0.5049
34536SOL    HW1 8293   2.940  11.556   7.587 -0.1596 -1.1160 -0.7396
34536SOL    HW2 8294   3.031  11.435   7.585  0.0073 -0.9842 -1.1825
34537SOL     OW 8295   4.559   4.970   2.440  0.5077 -0.1631 -0.5085
34537SOL    HW1 8296   4.498   4.964   2.514 -1.9694 -0.1778 -2.4143
34537SOL    HW2 8297   4.643   4.942   2.476 -1.1065 -2.6692  1.6906
34538SOL     OW 8298   3.099   4.067   4.817  0.7490 -0.2698 -0.8801
34538SOL    HW1 8299   3.070   4.145   4.770  3.3554  0.6839 -1.0286
34538SOL    HW2 8300   3.180   4.040   4.773  0.0390 -2.9996 -0.7312
34539SOL     OW 8301   4.946   8.931   8.049 -0.0477 -0.0305  0.3323
34539SOL    HW1 8302   5.007   8.874   8.002 -2.6145 -1.8689 -1.0499
34539SOL    HW2 8303   4.946   8.897   8.139  0.7436 -0.1481  0.2992
34540SOL     OW 8304   4.910   2.244  10.632  0.0992 -0.6441  0.6285
34540SOL    HW1 8305   4.857   2.199  10.566 -0.3457  0.5237  0.1612
34540SOL    HW2 8306   4.915   2.334  10.601 -0.2055 -0.0392  2.2409
34541SOL     OW 8307   5.665  11.343  11.556  0.6493  0.2120  0.0032
34541SOL    HW1 8308   5.736  11.397  11.522 -0.3842  0.6482 -1.5916
34541SOL    HW2 8309   5.691  11.321  11.646  1.8715  1.9698  0.1150
34542SOL     OW 8310   2.953   9.392   1.527 -0.7180 -0.0479 -0.7818
34542SOL    HW1 8311   2.964   9.299   1.547  1.1502  0.1911 -0.5898
34542SOL    HW2 8312   2.926   9.431   1.611  1.0208 -0.0321 -0.1967
34543SOL     OW 8313   7.368   9.451   9.949 -0.0106 -0.1002 -0.6367
34543SOL    HW1 8314   7.316   9.422   9.874 -1.8067 -0.7408  0.7582
34543SOL    HW2 8315   7.422   9.375   9.971  1.0628  0.3393 -1.6953
34544SOL     OW 8316  10.126   3.254  11.481 -0.0386  0.1600 -0.4593
34544SOL    HW1 8317  10.170   3.201  11.414 -1.3236 -0.5826 -0.7394
34544SOL    HW2 8318  10.033   3.237  11.468 -0.5241  2.5092 -0.5730
34545SOL     OW 8319   2.950   1.534   1.452 -0.1959 -0.1059  0.0988
34545SOL    HW1 8320   2.989   1.618   1.427 -0.7931 -0.1559 -1.0994
34545SOL    HW2 8321   3.015   1.493   1.508  0.0067  1.2603  0.9215
34546SOL     OW 8322   0.834  10.678   5.939  0.5924  0.3872  0.3553
34546SOL    HW1 8323   0.788  10.594   5.950  0.9914  0.1608  0.3092
34546SOL    HW2 8324   0.764  10.743   5.935  0.2545  0.0012 -0.1476
34547SOL     OW 8325   9.190   5.176   4.542  0.0466  0.2025  0.3956
34547SOL    HW1 8326   9.168   5.269   4.529  0.0300  0.0128 -1.0161
34547SOL    HW2 8327   9.272   5.178   4.592  1.3951  1.0500 -1.7186
34548SOL     OW 8328   6.204  10.989   1.293 -0.1414  0.8788 -0.1843
34548SOL    HW1 8329   6.176  10.924   1.357 -1.6139  0.9039 -0.7530
34548SOL    HW2 8330   6.292  10.962   1.268 -0.1361 -0.0040  0.7195
34549SOL     OW 8331   3.069  10.439  11.790  0.1220  0.5262 -0.3194
34549SOL    HW1 8332   3.094  10.388  11.713  1.2627  1.6083 -0.7080
34549SOL    HW2 8333   2.997  10.495  11.759 -0.2054  0.1375 -0.2684
34550SOL     OW 8334   4.347   1.983  10.685  0.4386  0.1752  0.0653
34550SOL    HW1 8335   4.378   1.961  10.773  0.8114 -1.4483 -0.4270
34550SOL    HW2 8336   4.272   1.924  10.672  1.2390 -0.5981 -1.1974
34551SOL     OW 8337   1.856   9.696   9.423 -0.1994  0.6798  0.0966
34551SOL    HW1 8338   1.951   9.700   9.435 -0.1150 -1.1441  0.2304
34551SOL    HW2 8339   1.834   9.780   9.382  1.6784  0.5500 -1.3257
34552SOL     OW 8340   6.575   4.302   6.107  0.2539 -0.7877  0.0954
34552SOL    HW1 8341   6.570   4.396   6.090 -0.8835 -0.8500 -0.0232
34552SOL    HW2 8342   6.630   4.268   6.037  2.8520  0.1004  1.5943
34553SOL     OW 8343   8.429   0.221   4.403 -0.1171  0.2792 -0.9343
34553SOL    HW1 8344   8.479   0.187   4.328 -0.4780  2.6544 -2.3581
34553SOL    HW2 8345   8.480   0.196   4.480  0.5664 -1.7689 -1.9768
34554SOL     OW 8346   1.824   7.276   8.035 -0.0556 -0.1177  0.2442
34554SOL    HW1 8347   1.813   7.249   8.127  0.2601  1.7643  0.8838
34554SOL    HW2 8348   1.744   7.324   8.015  0.4701  0.6584 -0.0130
34555SOL     OW 8349  11.508   8.075   3.618 -0.0013  0.2659  0.9087
34555SOL    HW1 8350  11.492   8.123   3.700  0.3142 -0.3466  1.3378
34555SOL    HW2 8351  11.437   8.010   3.615 -0.2308  0.5302  0.5012
34556SOL     OW 8352   7.186   9.484   1.750 -0.1008 -0.5679 -0.0528
34556SOL    HW1 8353   7.205   9.570   1.787  3.6593 -0.1152 -2.4359
34556SOL    HW2 8354   7.185   9.425   1.825  2.5734  0.8784  1.2669
34557SOL     OW 8355   7.167   1.895   6.115 -0.3589 -0.2167  0.5854
34557SOL    HW1 8356   7.128   1.966   6.064  1.0076 -0.6807 -1.2015
34557SOL    HW2 8357   7.099   1.827   6.117 -0.7162  0.1184  0.0582
34558SOL     OW 8358   0.656   7.317   0.634 -0.1090 -0.3558 -0.0958
34558SOL    HW1 8359   0.582   7.304   0.693  0.9452  1.7473  1.9036
34558SOL    HW2 8360   0.729   7.273   0.677  0.4527  0.2542 -0.4019
34559SOL     OW 8361   7.479   4.944  11.892  0.3835  0.3108 -0.0391
34559SOL    HW1 8362   7.388   4.942  11.924  0.3459 -0.9528 -0.1695
34559SOL    HW2 8363   7.494   5.035  11.867 -1.0253  0.4444 -0.4880
34560SOL     OW 8364   2.056   4.960   5.352  0.2213 -0.0958  0.4515
34560SOL    HW1 8365   2.127   4.898   5.363  1.3941  1.1845  0.3741
34560SOL    HW2 8366   2.028   4.981   5.441  2.3167  1.9865  0.7091
34561SOL     OW 8367   0.347   1.569  10.488 -0.0368  0.6407  0.5075
34561SOL    HW1 8368   0.382   1.563  10.400 -2.1382  0.7745 -0.4003
34561SOL    HW2 8369   0.340   1.479  10.518 -1.6315  0.4050 -0.4769
34562SOL     OW 8370   6.346   6.274   1.570  0.3706  0.0537  0.0815
34562SOL    HW1 8371   6.392   6.215   1.510  1.2094 -0.5914  1.3219
34562SOL    HW2 8372   6.294   6.331   1.513  1.2635 -0.4345 -1.2549
34563SOL     OW 8373   2.885   6.273   4.934  0.0059  0.4000 -0.1046
34563SOL    HW1 8374   2.876   6.254   4.840 -1.2033  0.7140 -0.0701
34563SOL    HW2 8375   2.924   6.361   4.936  0.1770  0.3307 -0.3049
34564SOL     OW 8376   5.761   2.183  10.037  0.1947  0.4213 -0.8844
34564SOL    HW1 8377   5.758   2.279  10.039 -0.0140  0.3964  0.6730
34564SOL    HW2 8378   5.776   2.157  10.128 -0.6581 -1.0580 -1.1370
34565SOL     OW 8379   8.391   3.323   9.237 -0.0763 -0.0556 -0.4728
34565SOL    HW1 8380   8.387   3.372   9.155  3.5574 -1.9499 -2.0546
34565SOL    HW2 8381   8.333   3.248   9.224 -1.2722  0.8087 -0.3029
34566SOL     OW 8382  11.408   3.541   5.602  0.0575 -0.3627  0.2604
34566SOL    HW1 8383  11.364   3.510   5.681 -1.7840 -0.1416 -0.6183
34566SOL    HW2 8384  11.384   3.634   5.596  0.8181 -0.1840 -0.1478
34567SOL     OW 8385   3.585  11.526  11.804  0.3208 -0.0094  0.2588
34567SOL    HW1 8386   3.668  11.571  11.824  0.5578 -0.0766 -0.5432
34567SOL    HW2 8387   3.521  11.568  11.861  0.2642  2.2623 -1.3694
34568SOL     OW 8388   1.417   6.503   9.959 -0.5572 -0.2168  0.2727
34568SOL    HW1 8389   1.506   6.525   9.930 -1.1333  1.3927 -0.4306
34568SOL    HW2 8390   1.388   6.437   9.897  0.0852 -0.6371  0.4056
34569SOL     OW 8391   0.855   4.420   7.269  0.5699 -0.4901 -0.0368
34569SOL    HW1 8392   0.898   4.338   7.290 -0.3637 -1.0010 -0.0855
34569SOL    HW2 8393   0.816   4.405   7.183 -0.3216 -0.2881  0.3237
34570SOL     OW 8394   0.732  10.770   2.539  0.2055  0.0688 -0.2135
34570SOL    HW1 8395   0.659  10.768   2.476 -0.2819  1.3884  0.2683
34570SOL    HW2 8396   0.705  10.711   2.609  0.4067 -0.8091 -0.8489
34571SOL     OW 8397   0.365  10.140   4.212  0.2842 -0.7849 -0.4769
34571SOL    HW1 8398   0.299  10.085   4.252 -0.4865  0.0552 -0.5662
34571SOL    HW2 8399   0.427  10.079   4.172 -0.9422 -1.5802 -1.2139
34572SOL     OW 8400   8.982   0.889   7.146 -0.0802  0.5487  0.3406
34572SOL    HW1 8401   8.919   0.956   7.119 -1.7876 -1.0333  0.1995
34572SOL    HW2 8402   8.929   0.822   7.188  1.7348 -0.1641  1.6141
34573SOL     OW 8403  10.094   8.069  11.627  0.3779 -0.0488  0.3207
34573SOL    HW1 8404  10.069   8.068  11.534  3.7751  0.3422 -0.7273
34573SOL    HW2 8405  10.107   8.162  11.647  3.3425 -0.2914 -0.0426
34574SOL     OW 8406   4.169   3.364   1.781  1.0054  0.2422  0.0438
34574SOL    HW1 8407   4.090   3.314   1.760 -0.0797  1.0869  1.8557
34574SOL    HW2 8408   4.212   3.378   1.697 -1.4866  0.9085 -1.1986
34575SOL     OW 8409   8.571   9.627   7.683  0.3399 -0.3650 -0.2475
34575SOL    HW1 8410   8.615   9.636   7.767 -0.6968  0.4609  0.2452
34575SOL    HW2 8411   8.487   9.586   7.704  0.2847 -0.6336 -0.9537
34576SOL     OW 8412   8.534   2.135   6.590 -0.8828  0.3868  0.4473
34576SOL    HW1 8413   8.493   2.218   6.566  0.2160  0.3325 -2.0042
34576SOL    HW2 8414   8.573   2.104   6.508  1.2381 -1.1160  1.9156
34577SOL     OW 8415   1.070   7.906   3.033  0.2230 -0.1892 -0.1596
34577SOL    HW1 8416   1.033   7.826   3.072 -1.1823  0.7121  0.4131
34577SOL    HW2 8417   1.029   7.977   3.081  0.5325  0.9166 -1.4945
34578SOL     OW 8418   8.767   4.432  10.177  0.4640 -0.0030  0.0892
34578SOL    HW1 8419   8.788   4.468  10.263  1.8961 -0.5213 -0.0218
34578SOL    HW2 8420   8.678   4.463  10.159  0.6880  1.3139  1.1151
34579SOL     OW 8421   5.664   8.810   0.400 -0.0487 -0.1072 -0.3831
34579SOL    HW1 8422   5.724   8.881   0.422 -0.5011  0.0238  0.4862
34579SOL    HW2 8423   5.601   8.809   0.473 -0.9645 -0.3825 -1.1529
34580SOL     OW 8424   7.426   9.494   6.203 -0.4842 -0.2249  0.3533
34580SOL    HW1 8425   7.521   9.488   6.206 -0.4839 -0.0514  0.7520
34580SOL    HW2 8426   7.408   9.570   6.148 -0.4596 -2.4361 -3.0411
34581SOL     OW 8427   7.302   8.130   4.052 -0.5414  0.0112 -0.2060
34581SOL    HW1 8428   7.231   8.186   4.020 -1.2929 -2.4117 -3.2753
34581SOL    HW2 8429   7.262   8.077   4.120  0.2732  3.1516  3.0151
34582SOL     OW 8430   8.184  11.379   0.284  0.6316  0.2932 -0.0341
34582SOL    HW1 8431   8.094  11.390   0.253 -0.3304 -1.5623  1.8383
34582SOL    HW2 8432   8.233  11.351   0.207 -0.9551 -1.0853 -0.5979
34583SOL     OW 8433  11.147   1.525  11.845  0.7535  0.4003  0.4586
34583SOL    HW1 8434  11.201   1.602  11.864  1.2943  0.0090  0.5201
34583SOL    HW2 8435  11.210   1.456  11.826  0.2582  0.1511 -0.2975
34584SOL     OW 8436   8.936  10.235  10.649  0.0274  0.4617 -0.3971
34584SOL    HW1 8437   8.971  10.246  10.561  0.9486  1.0997  0.0360
34584SOL    HW2 8438   8.851  10.194  10.636 -0.0966  1.0669 -1.6280
34585SOL     OW 8439   0.460  11.254   5.020 -0.1748  0.4678 -0.0636
34585SOL    HW1 8440   0.411  11.193   5.074 -2.0702  0.6207 -1.5206
34585SOL    HW2 8441   0.518  11.198   4.967 -0.2755  0.1158  0.1949
34586SOL     OW 8442   9.681   5.937   7.517 -0.1221  0.0249  0.3665
34586SOL    HW1 8443   9.589   5.919   7.534 -0.6710 -1.4909 -3.1933
34586SOL    HW2 8444   9.720   5.850   7.505  1.7653  0.6500  1.5392
34587SOL     OW 8445   1.303   5.247  11.299 -0.0991  0.0952  0.3206
34587SOL    HW1 8446   1.312   5.229  11.392  2.0064  0.1749  0.1637
34587SOL    HW2 8447   1.328   5.338  11.289  1.1875 -0.3233 -0.5036
34588SOL     OW 8448   2.242   9.763   7.145 -0.0133 -0.2328  0.3507
34588SOL    HW1 8449   2.255   9.731   7.056  0.6314 -0.2470  0.4449
34588SOL    HW2 8450   2.148   9.782   7.150  0.3397  2.3217 -1.1744
34589SOL     OW 8451   6.449   2.848   4.149  0.0222  0.0577 -0.3509
34589SOL    HW1 8452   6.498   2.848   4.066  0.4327 -1.4124 -0.1474
34589SOL    HW2 8453   6.512   2.878   4.214  0.6824 -1.7307 -0.1071
34590SOL     OW 8454   6.613   1.955   0.870 -0.1522  0.5059 -0.2411
34590SOL    HW1 8455   6.599   1.888   0.804  2.6043  1.0279 -1.4907
34590SOL    HW2 8456   6.525   1.981   0.896 -1.3514 -0.5570 -2.8398
34591SOL     OW 8457   8.004   1.804   5.543 -0.4011  0.0625 -0.3794
34591SOL    HW1 8458   8.087   1.821   5.587  1.1959 -0.0026 -3.1342
34591SOL    HW2 8459   7.969   1.891   5.523 -0.2607  0.0922 -0.4966
34592SOL     OW 8460  11.501   5.426   5.577  0.4233  0.0124 -0.2270
34592SOL    HW1 8461  11.518   5.473   5.495  1.1698 -1.8791 -1.2217
34592SOL    HW2 8462  11.425   5.371   5.557  0.7381 -0.6122  0.2748
34593SOL     OW 8463   4.087   8.990   4.616  0.0162 -0.0540  0.0304
34593SOL    HW1 8464   4.053   8.909   4.577 -0.3089 -0.0143  0.2316
34593SOL    HW2 8465   4.163   9.012   4.561  1.2975 -1.5256  1.1104
34594SOL     OW 8466  11.265   8.425  11.155 -0.3557 -0.6414  0.5145
34594SOL    HW1 8467  11.239   8.437  11.247  1.0202  1.6701  0.6924
34594SOL    HW2 8468  11.361   8.420  11.159 -0.2721 -0.2660 -0.8089
34595SOL     OW 8469   6.485   1.485  11.575  0.0553  0.2092 -0.4351
34595SOL    HW1 8470   6.480   1.447  11.487  1.4408 -0.2691 -0.3203
34595SOL    HW2 8471   6.530   1.419  11.628  2.2041  1.7966 -0.1448
34596SOL     OW 8472   8.301   7.506   7.735  0.8704  0.1334  0.5692
34596SOL    HW1 8473   8.329   7.528   7.824 -0.1213  0.6318  0.7744
34596SOL    HW2 8474   8.373   7.534   7.679  0.9608  1.0133  1.1106
34597SOL     OW 8475   3.132   0.674   4.544  0.3735  0.1121 -0.6410
34597SOL    HW1 8476   3.112   0.734   4.615  2.7035  0.4488 -0.2022
34597SOL    HW2 8477   3.122   0.587   4.582  0.3505  0.2744 -0.2758
34598SOL     OW 8478   9.354   0.021   5.775 -0.4821  0.3963  0.2411
34598SOL    HW1 8479   9.328   0.104   5.734  0.2736 -0.2093 -1.5771
34598SOL    HW2 8480   9.450   0.020   5.768 -0.5695 -1.4301 -1.5008
34599SOL     OW 8481  11.214  10.017   1.475 -0.1985  0.3089 -0.4299
34599SOL    HW1 8482  11.243   9.973   1.396  0.0545 -3.4501  1.5648
34599SOL    HW2 8483  11.120  10.029   1.462 -0.3439 -1.1771 -0.9480
34600SOL     OW 8484   7.521   7.324   8.414 -0.0282 -0.3595  0.3128
34600SOL    HW1 8485   7.610   7.359   8.416  0.2014 -0.8153 -0.8312
34600SOL    HW2 8486   7.466   7.395   8.446  0.7694 -0.1821  1.3411
34601SOL     OW 8487   4.625  11.141   4.864 -0.2811  0.7247  0.5113
34601SOL    HW1 8488   4.610  11.046   4.863 -1.8606  0.8557  2.9144
34601SOL    HW2 8489   4.584  11.173   4.785  1.5402 -0.6854 -1.1162
34602SOL     OW 8490   6.853   2.119   6.170  0.2176 -0.2480  0.4214
34602SOL    HW1 8491   6.850   2.189   6.235  1.3064 -0.2517  0.4810
34602SOL    HW2 8492   6.853   2.039   6.221  1.4281 -0.2464  0.4438
34603SOL     OW 8493   3.165  10.199   4.867  0.5577 -0.5970 -0.1919
34603SOL    HW1 8494   3.153  10.236   4.780  2.0550 -1.6305 -0.8812
34603SOL    HW2 8495   3.195  10.272   4.921 -1.8440  0.4211 -0.0952
34604SOL     OW 8496   4.954  11.142   4.944 -0.4217  0.0779  0.1471
34604SOL    HW1 8497   5.048  11.125   4.938 -0.5550 -0.2943 -1.1172
34604SOL    HW2 8498   4.918  11.064   4.986  0.1464  1.4098  3.4173
34605SOL     OW 8499  10.648  10.179   6.977 -0.1188  0.4614  0.5310
34605SOL    HW1 8500  10.638  10.269   7.008  0.7542  0.5793  0.5021
34605SOL    HW2 8501  10.707  10.138   7.041  1.7416  0.7174 -0.9424
34606SOL     OW 8502   3.593   5.356   0.568 -0.5991  0.8966  0.0379
34606SOL    HW1 8503   3.645   5.435   0.552  0.3511  0.3444  0.2982
34606SOL    HW2 8504   3.656   5.284   0.560 -1.3928  0.1792  0.0673
34607SOL     OW 8505   8.674   6.203   4.424  0.4012 -0.9234  0.3413
34607SOL    HW1 8506   8.737   6.138   4.456  0.5685 -0.9088  0.0386
34607SOL    HW2 8507   8.716   6.241   4.347 -0.2104 -1.2799 -0.1687
34608SOL     OW 8508  11.761   3.432   5.840  0.1028 -0.0059 -0.1367
34608SOL    HW1 8509  11.712   3.360   5.800 -0.5818  0.2796  0.1686
34608SOL    HW2 8510  11.749   3.506   5.781  1.1492 -0.2352 -0.6655
34609SOL     OW 8511   3.673  10.726   5.027 -0.1790  0.0889  0.0796
34609SOL    HW1 8512   3.673  10.665   5.101  1.8858 -1.1259 -0.8524
34609SOL    HW2 8513   3.763  10.756   5.019 -0.7011  1.5220 -0.9203
34610SOL     OW 8514   3.183  11.164   3.341 -0.0634 -0.0262 -0.6820
34610SOL    HW1 8515   3.179  11.233   3.407  0.3583 -0.8045  0.1800
34610SOL    HW2 8516   3.097  11.122   3.346 -0.5642  0.8355 -1.6761
34611SOL     OW 8517   4.912  10.566   3.899 -0.0831  0.0534 -0.8113
34611SOL    HW1 8518   4.982  10.614   3.854  0.0542  0.4462 -0.1930
34611SOL    HW2 8519   4.952  10.537   3.981 -0.6488  0.2849 -0.4538
34612SOL     OW 8520   4.161   4.463   9.801  0.0786  0.1697  0.3854
34612SOL    HW1 8521   4.176   4.429   9.713 -1.3463  1.9878 -0.6451
34612SOL    HW2 8522   4.069   4.490   9.802 -0.7556 -2.1414  3.3389
34613SOL     OW 8523   5.660   4.848   7.743  0.1799  0.4153 -0.3584
34613SOL    HW1 8524   5.708   4.874   7.664 -0.2316 -0.8906 -1.0529
34613SOL    HW2 8525   5.706   4.770   7.774  0.2104  0.7932  0.6020
34614SOL     OW 8526   9.816   2.618  11.300 -0.2256 -0.2531 -0.3116
34614SOL    HW1 8527   9.750   2.556  11.332  0.5165 -0.5439  0.7011
34614SOL    HW2 8528   9.817   2.605  11.205 -0.2579 -1.6192 -0.1492
34615SOL     OW 8529   8.228   6.203  11.527  0.4862 -0.5191  0.4087
34615SOL    HW1 8530   8.311   6.244  11.551 -1.7142  3.2890  2.5394
34615SOL    HW2 8531   8.217   6.226  11.434  1.6296 -0.7921  0.1873
34616SOL     OW 8532   3.926  10.217   4.629  0.4314 -0.6115 -0.4385
34616SOL    HW1 8533   3.873  10.248   4.556  0.5363  0.9233  0.1045
34616SOL    HW2 8534   4.003  10.274   4.630 -0.1600  0.2493  1.5969
34617SOL     OW 8535   8.549   0.344  10.389 -0.5969  0.9123 -0.3870
34617SOL    HW1 8536   8.587   0.294  10.462 -2.3110  2.0410  1.3798
34617SOL    HW2 8537   8.593   0.310  10.311  1.9027  0.1555  1.2090
34618SOL     OW 8538   0.111   4.230   6.089  0.0232  0.3703 -0.0206
34618SOL    HW1 8539   0.165   4.158   6.056 -0.9537 -0.7335  0.7106
34618SOL    HW2 8540   0.168   4.278   6.149  0.8952  0.6341 -1.0382
34619SOL     OW 8541   9.336   7.326   4.519 -0.0555  0.0879  0.2439
34619SOL    HW1 8542   9.351   7.325   4.424 -0.7668 -1.8189  0.1078
34619SOL    HW2 8543   9.301   7.239   4.539 -0.7157  0.7317  2.1372
34620SOL     OW 8544   2.283   8.924  11.737 -0.4180  0.4637 -0.2109
34620SOL    HW1 8545   2.237   8.969  11.808  1.3352  1.6902  0.2287
34620SOL    HW2 8546   2.317   8.844  11.778  0.1843  0.9333  0.2246
34621SOL     OW 8547   0.586   4.855   9.770 -0.3338 -1.0441 -0.4137
34621SOL    HW1 8548   0.656   4.908   9.732 -1.4649 -1.2777 -2.9931
34621SOL    HW2 8549   0.565   4.898   9.853  0.1539  1.3678 -1.4700
34622SOL     OW 8550   5.541   6.506   8.812 -0.2834 -0.4700 -0.1035
34622SOL    HW1 8551   5.521   6.599   8.820 -0.3670 -0.4016 -1.0615
34622SOL    HW2 8552   5.631   6.499   8.842 -0.5346 -0.2125  0.7434
34623SOL     OW 8553   9.741   3.420   6.428  0.9464  0.5204 -0.5077
34623SOL    HW1 8554   9.811   3.482   6.408  1.9135 -0.4122 -0.1004
34623SOL    HW2 8555   9.727   3.430   6.523  1.8556 -0.6171 -0.2371
34624SOL     OW 8556   1.837   7.988   8.485  0.0193 -0.0138 -0.7514
34624SOL    HW1 8557   1.832   8.057   8.418  3.0744  0.0379 -1.0856
34624SOL    HW2 8558   1.931   7.973   8.496 -0.4314 -1.2898  2.2851
34625SOL     OW 8559   5.788   7.161   3.117  0.4558  0.0528  0.1069
34625SOL    HW1 8560   5.802   7.247   3.077  0.5733 -0.8471 -1.9420
34625SOL    HW2 8561   5.694   7.146   3.111  0.3523  0.2971  1.0531
34626SOL     OW 8562  10.044  10.264  11.133  0.4072  0.2977  0.3287
34626SOL    HW1 8563   9.950  10.266  11.151  0.6937  0.9705  1.9651
34626SOL    HW2 8564  10.060  10.344  11.082 -0.0694 -0.4241 -0.9856
34627SOL     OW 8565   3.908   6.627   9.760 -0.0893  0.2542 -0.1269
34627SOL    HW1 8566   3.823   6.585   9.745 -0.7027  1.8584 -1.4192
34627SOL    HW2 8567   3.886   6.716   9.789  1.1656  0.4966  0.1526
34628SOL     OW 8568   1.829   3.117   2.563 -0.2935 -0.0751 -0.0803
34628SOL    HW1 8569   1.902   3.166   2.600 -0.7847  0.0327  0.7743
34628SOL    HW2 8570   1.752   3.149   2.610 -1.0876  0.7347 -1.8412
34629SOL     OW 8571   5.649  10.023   3.792 -0.2314  0.3817  0.3475
34629SOL    HW1 8572   5.556  10.042   3.779  0.0038  1.0618 -0.4516
34629SOL    HW2 8573   5.694  10.100   3.757  0.6110  0.5259  1.6929
34630SOL     OW 8574  11.919   5.781   0.009 -0.8214 -0.1308 -0.0233
34630SOL    HW1 8575  11.865   5.795  -0.070 -0.3168 -0.6089 -0.4630
34630SOL    HW2 8576  12.009   5.797  -0.020 -0.7228  0.7653  0.7348
34631SOL     OW 8577   4.862   5.795   4.505 -0.0550 -0.2766  0.5832
34631SOL    HW1 8578   4.810   5.836   4.574  1.0841  0.8954  0.7877
34631SOL    HW2 8579   4.834   5.839   4.424  1.0034  0.8056  0.7731
34632SOL     OW 8580   4.196  10.539   5.622  0.5002 -0.4776 -0.0156
34632SOL    HW1 8581   4.166  10.625   5.650 -0.4478 -0.0013 -2.3359
34632SOL    HW2 8582   4.291  10.542   5.635  0.2614  0.0028  2.1225
34633SOL     OW 8583   5.637   4.354  10.046 -0.1405  0.3142  0.1439
34633SOL    HW1 8584   5.556   4.401  10.068  0.5414  1.6398 -0.0825
34633SOL    HW2 8585   5.638   4.353   9.950 -1.0342 -1.7805  0.1167
34634SOL     OW 8586   4.202  10.379   5.964 -0.0653  0.9197 -0.6423
34634SOL    HW1 8587   4.140  10.449   5.942 -0.8384  0.0896 -1.1566
34634SOL    HW2 8588   4.214  10.331   5.882 -1.2987 -0.9061  0.1682
34635SOL     OW 8589  10.663   5.754   9.968  0.5201  0.2708 -0.4436
34635SOL    HW1 8590  10.587   5.807   9.947  0.3372  0.8320  1.4607
34635SOL    HW2 8591  10.669   5.692   9.895  0.0361  2.0840 -2.1287
34636SOL     OW 8592   1.154   8.536   5.763  0.6188  0.0008  0.3585
34636SOL    HW1 8593   1.140   8.446   5.793  0.1061  0.3188  1.0995
34636SOL    HW2 8594   1.245   8.555   5.784  0.5668 -0.1519  0.7204
34637SOL     OW 8595  10.653   0.197   4.954  0.3512 -0.3324 -0.1936
34637SOL    HW1 8596  10.691   0.204   4.867  0.2515 -1.5975 -0.3620
34637SOL    HW2 8597  10.690   0.116   4.990 -1.0255 -0.8121  0.2012
34638SOL     OW 8598   7.583   6.165   4.129  0.1507  0.3960  0.3255
34638SOL    HW1 8599   7.541   6.080   4.119 -0.4720  0.9544 -2.6800
34638SOL    HW2 8600   7.673   6.151   4.097  0.2060  0.7381  0.3271
34639SOL     OW 8601   6.810   3.058   6.802  0.1922 -0.5119 -0.1224
34639SOL    HW1 8602   6.885   3.093   6.755 -0.3268  0.2903 -0.3705
34639SOL    HW2 8603   6.775   3.132   6.852 -1.7599 -0.2393 -1.7439
34640SOL     OW 8604   8.890  10.843   5.957 -0.0213  0.3438 -0.2557
34640SOL    HW1 8605   8.907  10.873   5.868 -1.3835  0.0268 -0.6470
34640SOL    HW2 8606   8.855  10.755   5.947  0.9060 -0.1497  0.6836
34641SOL     OW 8607   1.494   7.142   7.416 -0.4580 -0.1106 -0.2635
34641SOL    HW1 8608   1.456   7.113   7.334  2.0645 -0.2976 -1.4516
34641SOL    HW2 8609   1.524   7.062   7.459 -1.5460  0.0060  0.7494
34642SOL     OW 8610   2.890   0.161   5.105 -0.2662  0.8236 -0.1662
34642SOL    HW1 8611   2.938   0.079   5.096 -0.7699  0.4807  0.2040
34642SOL    HW2 8612   2.945   0.216   5.161 -0.9648 -0.1149  1.5135
34643SOL     OW 8613   5.196   4.209   6.530  0.7510  0.1823 -0.0637
34643SOL    HW1 8614   5.232   4.125   6.500 -0.1440 -0.4942  0.6901
34643SOL    HW2 8615   5.174   4.255   6.450  0.0421 -0.8585 -0.4863
34644SOL     OW 8616  10.123   1.432   9.546 -0.1949 -0.1120 -0.2690
34644SOL    HW1 8617  10.119   1.369   9.617 -0.2701  0.7085  0.4736
34644SOL    HW2 8618  10.216   1.454   9.538 -0.2236  0.0398 -0.1972
34645SOL     OW 8619   4.534   8.456  10.970 -0.3965 -0.1451  0.3228
34645SOL    HW1 8620   4.513   8.403  11.046 -0.3902 -0.7155 -0.0691
34645SOL    HW2 8621   4.512   8.546  10.996 -1.1176 -0.4321  0.7249
34646SOL     OW 8622   8.221   9.967  10.032  0.0986  0.1467  0.2729
34646SOL    HW1 8623   8.311   9.965  10.064  0.1869 -0.5981  0.0006
34646SOL    HW2 8624   8.229   9.980   9.938 -0.1597  2.3219  0.4966
34647SOL     OW 8625  11.535   8.999   3.878  0.4055  0.0378 -0.4551
34647SOL    HW1 8626  11.466   9.007   3.812 -0.1246 -0.8740 -0.0204
34647SOL    HW2 8627  11.610   8.965   3.829 -0.0598 -0.8682 -0.5652
34648SOL     OW 8628   1.040   2.739   9.828  0.0674  0.2702 -0.7938
34648SOL    HW1 8629   1.099   2.811   9.805 -0.4897  0.1388 -2.8129
34648SOL    HW2 8630   0.997   2.715   9.746 -2.3075 -0.1056  0.4488
34649SOL     OW 8631   1.189   5.009   2.583 -0.3458  0.0382  0.1328
34649SOL    HW1 8632   1.236   4.931   2.554 -1.3362 -0.0862 -1.2042
34649SOL    HW2 8633   1.104   4.975   2.614  0.4157  0.2365  2.6564
34650SOL     OW 8634   0.602   1.353   8.948  0.0782  0.9042 -0.1025
34650SOL    HW1 8635   0.617   1.292   9.020 -0.3285  1.8569  0.8166
34650SOL    HW2 8636   0.516   1.329   8.913  0.8078 -0.3702 -1.1350
34651SOL     OW 8637  11.834   2.265   6.862 -0.2115  0.2709 -0.2211
34651SOL    HW1 8638  11.781   2.302   6.934  1.2677 -0.1870  1.1660
34651SOL    HW2 8639  11.814   2.172   6.863 -0.0561  0.2366 -0.2824
34652SOL     OW 8640   1.036   5.995   6.845  0.1310 -0.2289 -0.0579
34652SOL    HW1 8641   1.053   5.902   6.834 -2.4382 -0.7491 -0.2337
34652SOL    HW2 8642   1.004   6.004   6.934 -0.7931  0.2531 -0.4185
34653SOL     OW 8643   0.627   6.889   3.587 -0.3127 -0.1336  0.1798
34653SOL    HW1 8644   0.613   6.853   3.675  0.3646 -1.7963 -0.3710
34653SOL    HW2 8645   0.611   6.816   3.528  0.6771  0.5767 -1.0091
34654SOL     OW 8646   6.229   1.097   7.091  0.0163  0.4823 -0.2754
34654SOL    HW1 8647   6.246   1.182   7.130 -1.2269  1.4841 -1.7818
34654SOL    HW2 8648   6.170   1.115   7.018 -0.2782 -1.6774 -0.6542
34655SOL     OW 8649   7.020   8.315   7.171 -0.2153  0.2891 -0.2466
34655SOL    HW1 8650   7.020   8.352   7.083 -0.8861  0.2474 -0.2719
34655SOL    HW2 8651   6.930   8.283   7.183  0.0662 -0.3739  0.1691
34656SOL     OW 8652   2.340   3.622   7.897  0.3379 -0.5503  0.1238
34656SOL    HW1 8653   2.280   3.554   7.867 -0.4398  0.1940 -0.0583
34656SOL    HW2 8654   2.327   3.695   7.835 -1.3065  1.0360  2.2048
34657SOL     OW 8655   3.168   2.675   1.568 -0.2223 -0.5690 -0.2972
34657SOL    HW1 8656   3.262   2.695   1.569 -0.2770 -0.0712 -1.8440
34657SOL    HW2 8657   3.160   2.600   1.509 -0.7408 -1.0327  0.3443
34658SOL     OW 8658   8.062   8.768   2.220 -0.2420  0.6604 -0.0733
34658SOL    HW1 8659   7.998   8.793   2.286 -1.0320  0.2070 -0.6540
34658SOL    HW2 8660   8.143   8.754   2.269 -1.1431 -1.0838  1.0161
34659SOL     OW 8661  10.823  10.923  11.638  0.1443 -0.6608 -0.0385
34659SOL    HW1 8662  10.769  10.845  11.650 -1.6644  0.4457 -0.5721
34659SOL    HW2 8663  10.844  10.952  11.727 -0.2974 -1.0232  0.1888
34660SOL     OW 8664  10.086   3.476   4.029  0.3674  0.3373 -0.1500
34660SOL    HW1 8665  10.156   3.496   3.967 -0.0848  0.3012 -0.6836
34660SOL    HW2 8666  10.011   3.527   3.998  0.1352  0.3235  0.3741
34661SOL     OW 8667   9.664  10.301   3.580 -0.0973 -0.2980  0.4329
34661SOL    HW1 8668   9.734  10.287   3.644  0.9472 -0.2151 -0.6513
34661SOL    HW2 8669   9.698  10.262   3.499 -2.2138 -2.2418  0.3727
34662SOL     OW 8670   1.051   0.551   7.585  0.7604  0.2939  0.1614
34662SOL    HW1 8671   0.992   0.595   7.524 -0.3135 -2.4899 -0.9880
34662SOL    HW2 8672   0.995   0.488   7.630  2.2150 -0.0019  1.6528
34663SOL     OW 8673  11.495   8.124   1.180  0.2037  0.2081 -0.3424
34663SOL    HW1 8674  11.570   8.067   1.199 -0.5062  0.0573  2.4676
34663SOL    HW2 8675  11.477   8.167   1.263 -2.8739  0.2106 -0.9124
34664SOL     OW 8676   9.793   0.071   4.308 -0.3871  0.1772  0.2448
34664SOL    HW1 8677   9.870   0.122   4.333 -0.1689 -0.5033  1.0406
34664SOL    HW2 8678   9.823   0.015   4.237  0.6827 -2.0095  2.2614
34665SOL     OW 8679   5.622   8.865   5.314  0.3088 -0.4361 -0.2313
34665SOL    HW1 8680   5.563   8.892   5.244  0.9077  1.2173 -0.1459
34665SOL    HW2 8681   5.656   8.780   5.285 -0.5830 -0.4774 -1.2246
34666SOL     OW 8682  11.689   1.127   7.220 -0.2026  0.0939  0.6412
34666SOL    HW1 8683  11.743   1.048   7.217  1.8090  1.4049  0.1674
34666SOL    HW2 8684  11.712   1.169   7.302  0.0241  0.9997  0.1302
34667SOL     OW 8685   6.715   1.446   6.362 -0.1316 -0.5122 -0.0864
34667SOL    HW1 8686   6.654   1.375   6.382 -0.8785 -0.0405 -0.6704
34667SOL    HW2 8687   6.800   1.412   6.391 -0.7215 -0.9731  1.2260
34668SOL     OW 8688   0.938   7.188   2.718  0.0875  0.2939  0.0989
34668SOL    HW1 8689   0.987   7.110   2.745  1.0652  0.6364 -0.6288
34668SOL    HW2 8690   0.846   7.162   2.726  0.3876 -0.9430 -0.1638
34669SOL     OW 8691  11.445   3.984   9.101  0.5359 -0.0443  0.4767
34669SOL    HW1 8692  11.539   3.998   9.108  0.4213  0.9586  0.1255
34669SOL    HW2 8693  11.436   3.908   9.044  1.1142  0.4051 -0.2197
34670SOL     OW 8694   8.705   2.871   8.175  0.2233 -0.4881  0.0826
34670SOL    HW1 8695   8.766   2.800   8.156 -0.0982 -0.3763 -1.5238
34670SOL    HW2 8696   8.756   2.951   8.161 -0.0327 -0.4008 -0.3751
34671SOL     OW 8697   1.033   3.118   5.163 -0.1860 -0.3840  0.3340
34671SOL    HW1 8698   1.112   3.126   5.111 -1.0354 -0.2423 -0.9658
34671SOL    HW2 8699   0.986   3.200   5.150 -1.0449 -0.8759  0.2527
34672SOL     OW 8700  11.901   2.799   0.094  0.2165 -0.4003 -0.1363
34672SOL    HW1 8701  11.821   2.791   0.146  0.0477 -0.9317 -0.4635
34672SOL    HW2 8702  11.870   2.811   0.004  0.5043 -0.3869 -0.2349
34673SOL     OW 8703   5.804   0.231   3.382  0.0148  0.9058  0.0162
34673SOL    HW1 8704   5.789   0.219   3.475  0.8727  1.5612  0.2513
34673SOL    HW2 8705   5.746   0.304   3.357 -2.6810 -1.3004 -0.7031
34674SOL     OW 8706   8.122   2.577   4.456  0.9645  0.3127  0.1795
34674SOL    HW1 8707   8.085   2.648   4.508 -0.3201 -0.8361  0.8872
34674SOL    HW2 8708   8.161   2.518   4.521 -0.5755 -1.0914 -0.0982
34675SOL     OW 8709   3.483   2.143  10.182 -0.1185  0.0871 -0.0751
34675SOL    HW1 8710   3.430   2.145  10.102 -1.2874 -0.4118  0.6715
34675SOL    HW2 8711   3.423   2.168  10.252 -0.1827 -3.2146  1.2111
34676SOL     OW 8712   2.637   4.057   8.874 -0.2341  0.4655 -0.1926
34676SOL    HW1 8713   2.585   3.987   8.912  0.9984 -0.3193  0.0849
34676SOL    HW2 8714   2.716   4.014   8.841 -0.0869  1.5108 -1.2868
34677SOL     OW 8715   0.116   4.145   0.581 -0.0383 -0.1223  0.7925
34677SOL    HW1 8716   0.113   4.218   0.642  0.0038  1.0813 -0.6118
34677SOL    HW2 8717   0.041   4.158   0.524  0.4000 -0.7431  0.0529
34678SOL     OW 8718   0.795  11.874   9.947 -0.0594  0.4415 -0.4320
34678SOL    HW1 8719   0.757  11.857   9.861  0.8974 -0.2493 -0.7289
34678SOL    HW2 8720   0.866  11.811   9.955 -0.4012  0.2045  1.0507
34679SOL     OW 8721   6.613   2.063   6.027 -0.1935  0.3017 -0.7517
34679SOL    HW1 8722   6.563   2.066   6.109 -1.3227 -1.7509 -1.2870
34679SOL    HW2 8723   6.701   2.091   6.052 -0.8433  1.0377  0.8662
34680SOL     OW 8724   9.755   1.419   9.195 -0.0178  0.7656  0.4371
34680SOL    HW1 8725   9.747   1.484   9.265  1.5189  0.9393  0.4844
34680SOL    HW2 8726   9.664   1.396   9.174 -0.5689  2.0542  1.2231
34681SOL     OW 8727   5.516   2.428  10.346 -0.3350 -0.5330  0.0360
34681SOL    HW1 8728   5.540   2.402  10.435  0.2346  0.6633  0.2567
34681SOL    HW2 8729   5.503   2.346  10.299  1.5182 -1.2236  0.6544
34682SOL     OW 8730  11.136   7.027   6.956  0.0789 -0.2305 -0.5074
34682SOL    HW1 8731  11.153   6.955   6.895  0.7745  0.9429 -1.7600
34682SOL    HW2 8732  11.044   7.048   6.944 -0.1199 -0.8788 -0.1582
34683SOL     OW 8733  11.395   9.432   9.160 -0.4086  1.1562  0.1048
34683SOL    HW1 8734  11.352   9.352   9.192  1.1529 -1.3220 -3.4211
34683SOL    HW2 8735  11.463   9.450   9.225 -1.0529 -0.1127  1.1901
34684SOL     OW 8736  11.201   1.120   4.076 -0.1722  0.7613  0.0507
34684SOL    HW1 8737  11.113   1.092   4.101  0.0018  0.5519  0.4500
34684SOL    HW2 8738  11.254   1.040   4.085  0.1191  0.9656  0.1495
34685SOL     OW 8739   0.130   0.080   7.495 -0.3060  0.3843 -0.3182
34685SOL    HW1 8740   0.215   0.043   7.473  0.2443  1.6981 -0.5407
34685SOL    HW2 8741   0.070   0.044   7.431  0.0421 -0.6698 -0.0741
34686SOL     OW 8742   9.646  11.626   6.050  0.1930  0.3386  0.0942
34686SOL    HW1 8743   9.640  11.602   6.143 -0.2238 -0.6446 -0.1724
34686SOL    HW2 8744   9.557  11.616   6.017  0.0341  2.1247 -0.0966
34687SOL     OW 8745   2.554   6.667   5.722 -0.5864  0.5173 -0.3633
34687SOL    HW1 8746   2.537   6.597   5.659  0.2313  1.3409 -1.5377
34687SOL    HW2 8747   2.542   6.748   5.672 -1.2265  1.2281  0.8970
34688SOL     OW 8748  10.868  11.000  11.917 -0.3578  0.2148  0.0625
34688SOL    HW1 8749  10.821  11.000  12.000  0.8805  0.6370  0.8029
34688SOL    HW2 8750  10.955  10.966  11.939 -0.4038 -0.8891 -1.3164
34689SOL     OW 8751   6.933   7.833   8.494  0.1242 -0.0641 -0.3875
34689SOL    HW1 8752   6.954   7.889   8.568  0.3987  1.1679 -1.3726
34689SOL    HW2 8753   6.945   7.888   8.417  0.1248 -1.3876 -1.3821
34690SOL     OW 8754   0.243   7.349   2.652 -0.0541  0.1238  0.2835
34690SOL    HW1 8755   0.153   7.316   2.652 -0.8476  2.1686  0.8511
34690SOL    HW2 8756   0.272   7.338   2.742  0.5268 -1.1267 -0.0363
34691SOL     OW 8757   2.977   9.692  10.566  0.1577  0.1877  0.4887
34691SOL    HW1 8758   3.036   9.766  10.562 -0.4870  0.8040  1.6288
34691SOL    HW2 8759   2.899   9.720  10.517 -0.3790  0.5847  1.5246
34692SOL     OW 8760  10.289   5.482   2.007  0.0653 -0.2275 -0.2911
34692SOL    HW1 8761  10.220   5.456   2.067  0.3259  0.3369  0.2603
34692SOL    HW2 8762  10.336   5.401   1.987  0.0170 -0.4114  0.3192
34693SOL     OW 8763   1.668   0.239  11.589  0.5387  0.3702 -0.2766
34693SOL    HW1 8764   1.641   0.272  11.504 -1.8061 -0.4065  0.0752
34693SOL    HW2 8765   1.613   0.287  11.652  0.2452 -0.9780  0.5523
34694SOL     OW 8766   0.827   5.208   2.846  0.3982  0.2491  0.0109
34694SOL    HW1 8767   0.908   5.213   2.897 -0.4416 -1.1410  1.5876
34694SOL    HW2 8768   0.848   5.152   2.772  1.2290  1.0479 -0.3808
34695SOL     OW 8769  10.685   4.647   2.296  0.6430 -0.1767  0.0548
34695SOL    HW1 8770  10.756   4.608   2.347  0.3761  0.9759  1.3843
34695SOL    HW2 8771  10.729   4.692   2.224  1.0503 -1.5994 -0.6223
34696SOL     OW 8772   4.689   6.227   7.197 -0.3525 -0.2870 -0.0940
34696SOL    HW1 8773   4.768   6.253   7.149  0.3112  0.4691  1.3608
34696SOL    HW2 8774   4.687   6.132   7.191 -1.2350 -0.2096 -3.0388
34697SOL     OW 8775  10.495   1.230   8.074 -0.2001  0.4276  0.1911
34697SOL    HW1 8776  10.444   1.286   8.132  0.0187  0.6385  0.1859
34697SOL    HW2 8777  10.433   1.201   8.007 -0.7157 -0.7092  1.1319
34698SOL     OW 8778   4.701   4.431  10.286  0.1183  0.6267  0.2214
34698SOL    HW1 8779   4.618   4.476  10.303  0.6560  1.3096  1.1898
34698SOL    HW2 8780   4.754   4.450  10.364  1.5521  1.0817 -0.8269
34699SOL     OW 8781   5.670   9.720  10.862 -0.1900 -0.5078  0.2098
34699SOL    HW1 8782   5.754   9.691  10.828 -0.1576  0.5870 -0.7288
34699SOL    HW2 8783   5.655   9.804  10.819 -1.7869 -0.7004  0.3347
34700SOL     OW 8784   5.120   7.579   1.506  0.0982  0.1243  0.4522
34700SOL    HW1 8785   5.192   7.583   1.569 -0.5840 -0.8673  1.3470
34700SOL    HW2 8786   5.091   7.487   1.509 -0.8574  0.3856 -0.2727
34701SOL     OW 8787   3.250   5.073  11.365  0.2347  0.3758 -0.1676
34701SOL    HW1 8788   3.266   5.058  11.272  0.9397  1.1106 -0.1787
34701SOL    HW2 8789   3.282   5.162  11.381 -0.6134  0.5606  0.6099
34702SOL     OW 8790  11.771   8.883   4.623 -0.5538  0.1173  0.8153
34702SOL    HW1 8791  11.867   8.879   4.623 -0.5283  0.1437 -0.6112
34702SOL    HW2 8792  11.744   8.801   4.664  0.1224 -1.5724 -1.8224
34703SOL     OW 8793   6.689  11.034   2.329  0.4731  0.1904  0.0070
34703SOL    HW1 8794   6.639  10.952   2.334 -1.5321  1.2532 -1.5107
34703SOL    HW2 8795   6.732  11.030   2.243 -0.0316  0.9510 -0.2807
34704SOL     OW 8796   1.237   9.755  10.124 -0.5740 -0.5165 -0.0915
34704SOL    HW1 8797   1.224   9.807  10.045 -0.1966  0.3764  0.4224
34704SOL    HW2 8798   1.244   9.819  10.195 -2.3822 -1.3274  0.9043
34705SOL     OW 8799   9.710   3.263   1.491 -0.9046  0.0227  0.4145
34705SOL    HW1 8800   9.675   3.260   1.402  0.5177 -0.5826 -0.1592
34705SOL    HW2 8801   9.725   3.172   1.514 -2.1914  0.1015  1.6941
34706SOL     OW 8802   1.078   9.779   9.039  0.6482 -0.2589 -0.0525
34706SOL    HW1 8803   1.006   9.734   8.995  2.1237 -1.1310 -1.7248
34706SOL    HW2 8804   1.151   9.775   8.977  1.7550  1.8325  0.9863
34707SOL     OW 8805   4.572  10.051  11.179  0.0646  0.5338  0.3573
34707SOL    HW1 8806   4.624  10.050  11.098 -2.2797  1.1437 -1.2533
34707SOL    HW2 8807   4.596   9.969  11.223 -2.0716 -2.4731 -3.3770
34708SOL     OW 8808   7.830  10.482   8.700  0.5451  0.1054 -0.7608
34708SOL    HW1 8809   7.860  10.479   8.791  1.6612 -0.6089 -1.1213
34708SOL    HW2 8810   7.854  10.569   8.670 -0.4719  0.6030 -0.1813
34709SOL     OW 8811   0.011   8.540   9.278  0.4670  0.0834 -0.1434
34709SOL    HW1 8812   0.065   8.586   9.215  0.5051  0.2299 -0.0037
34709SOL    HW2 8813   0.016   8.448   9.252 -0.4169  0.2668 -1.0272
34710SOL     OW 8814   2.113  10.960  11.721  0.4783  0.0167 -0.3103
34710SOL    HW1 8815   2.099  11.026  11.789 -1.2186 -2.0117  1.4285
34710SOL    HW2 8816   2.116  10.877  11.768  2.6393 -1.2215 -2.4133
34711SOL     OW 8817   5.053   3.984   9.292  0.3039  0.1404  0.4165
34711SOL    HW1 8818   5.149   3.987   9.299  0.5820 -2.3819 -1.0793
34711SOL    HW2 8819   5.037   3.977   9.198 -1.3969  1.0765  0.6155
34712SOL     OW 8820   7.895   4.496   6.689  0.2236  0.2532 -0.4059
34712SOL    HW1 8821   7.873   4.407   6.717 -1.3346  0.8169  0.2855
34712SOL    HW2 8822   7.833   4.514   6.618 -0.6305  1.3673  0.5900
34713SOL     OW 8823   0.347  10.030   3.848 -0.3019  0.0068 -0.5664
34713SOL    HW1 8824   0.272  10.084   3.872  1.6726  2.9840 -0.5653
34713SOL    HW2 8825   0.337  10.016   3.753 -1.0192  0.0646 -0.5056
34714SOL     OW 8826   3.908   0.220   6.564 -0.2167  0.1281  0.3251
34714SOL    HW1 8827   3.939   0.282   6.630  0.9760  0.3243 -0.3797
34714SOL    HW2 8828   3.817   0.203   6.588  0.2844 -0.1010  2.2195
34715SOL     OW 8829   6.080   4.832   9.637  0.3121 -0.2790  0.1448
34715SOL    HW1 8830   6.003   4.864   9.590 -0.6168 -3.1671 -0.5298
34715SOL    HW2 8831   6.147   4.822   9.570  0.3724 -0.3815  0.2184
34716SOL     OW 8832   2.936   9.475  10.938  0.0500  0.4262 -0.4495
34716SOL    HW1 8833   2.918   9.568  10.936  0.9204  0.6209  0.0830
34716SOL    HW2 8834   2.960   9.453  10.848 -2.1241  0.2753 -1.0316
34717SOL     OW 8835   8.701   2.910   5.817 -0.1785 -0.6386 -0.3980
34717SOL    HW1 8836   8.712   2.815   5.809 -1.2845 -0.8569  0.4811
34717SOL    HW2 8837   8.626   2.930   5.761 -0.2662 -0.3657 -0.1844
34718SOL     OW 8838   3.168   6.854   1.553  0.2221 -0.2074 -0.1000
34718SOL    HW1 8839   3.124   6.769   1.544 -0.6967  0.2890 -0.4546
34718SOL    HW2 8840   3.118   6.899   1.622  0.5894  0.1127 -0.0448
34719SOL     OW 8841   2.322   6.621   2.738 -0.2073 -0.0096  0.1409
34719SOL    HW1 8842   2.268   6.551   2.702  1.3994 -0.5096 -1.5018
34719SOL    HW2 8843   2.399   6.576   2.773  0.5113  0.8495 -0.2867
34720SOL     OW 8844   5.533   3.040   7.023  0.1003  0.0859  0.1451
34720SOL    HW1 8845   5.505   2.973   7.084 -2.1868  0.4546 -0.4180
34720SOL    HW2 8846   5.455   3.061   6.972  1.3762  1.3703 -1.4075
34721SOL     OW 8847   2.059   0.309  10.674 -0.0470 -0.3486 -0.1068
34721SOL    HW1 8848   2.103   0.310  10.759  1.9151  1.7027 -1.0194
34721SOL    HW2 8849   1.967   0.327  10.693  0.5295  1.0980  1.5228
34722SOL     OW 8850   7.287   2.787   8.248 -0.0690 -0.5720  0.3702
34722SOL    HW1 8851   7.224   2.753   8.185 -0.4588  0.2088  0.3269
34722SOL    HW2 8852   7.330   2.859   8.202  0.9139 -1.1451  0.3752
34723SOL     OW 8853  10.667   8.169   4.493 -0.1550 -0.2657  0.1600
34723SOL    HW1 8854  10.577   8.142   4.474 -0.8000  1.7321  0.2178
34723SOL    HW2 8855  10.688   8.123   4.575 -0.4705 -2.0582 -0.7054
34724SOL     OW 8856   9.473   0.249   1.887 -0.8034 -0.4756 -0.3316
34724SOL    HW1 8857   9.459   0.165   1.930 -0.3208 -0.2158  0.3465
34724SOL    HW2 8858   9.463   0.314   1.957 -3.1612  0.2033 -1.1855
34725SOL     OW 8859  10.394   7.593   6.601  0.1315  0.0921 -0.5075
34725SOL    HW1 8860  10.417   7.668   6.546 -1.5697 -0.5014 -2.1269
34725SOL    HW2 8861  10.353   7.531   6.541 -1.1047 -0.9275  1.2978
34726SOL     OW 8862   5.058   3.244   8.007  0.6958 -0.9602  0.0368
34726SOL    HW1 8863   5.021   3.164   8.046 -0.3454 -0.7807 -0.5470
34726SOL    HW2 8864   4.982   3.299   7.988  1.2187 -0.7287 -1.5377
34727SOL     OW 8865   1.607   0.252   9.255  0.5754  0.5161  0.0181
34727SOL    HW1 8866   1.613   0.329   9.199 -1.6246  0.9439  0.2709
34727SOL    HW2 8867   1.561   0.283   9.333  0.0162 -0.9503  0.3120
34728SOL     OW 8868   4.635   9.803   2.484 -0.1526 -0.2081 -0.0811
34728SOL    HW1 8869   4.569   9.866   2.512 -2.5428 -1.7155 -1.9053
34728SOL    HW2 8870   4.648   9.822   2.391  0.4219 -1.2527 -0.2348
34729SOL     OW 8871   2.158  10.689  10.997  0.1849 -0.7426  0.1372
34729SOL    HW1 8872   2.145  10.779  11.025  1.0701 -1.1691  2.0670
34729SOL    HW2 8873   2.235  10.693  10.939  2.0464 -0.5815  2.4742
34730SOL     OW 8874   0.949   1.960  11.488  0.4756 -0.4161 -0.8128
34730SOL    HW1 8875   0.856   1.980  11.496  1.1641  3.0635  0.3508
34730SOL    HW2 8876   0.965   1.957  11.394 -0.3769  2.0043 -1.1047
34731SOL     OW 8877  10.279   8.013  11.845 -0.3117  0.3187 -0.3143
34731SOL    HW1 8878  10.250   8.042  11.759  1.1193  0.8003 -0.6672
34731SOL    HW2 8879  10.241   8.075  11.907 -2.2661 -0.6613 -0.4378
34732SOL     OW 8880   9.154   9.204   4.595  1.2500  0.2276  0.0979
34732SOL    HW1 8881   9.204   9.165   4.523  0.3732 -0.8860  0.0656
34732SOL    HW2 8882   9.221   9.235   4.657  2.0125  1.0205 -1.0795
34733SOL     OW 8883   9.525   5.510   1.330  0.4002 -0.1492  0.8388
34733SOL    HW1 8884   9.558   5.497   1.419  0.9318  1.6390  0.9360
34733SOL    HW2 8885   9.576   5.583   1.295 -0.9808  0.3262 -0.3077
34734SOL     OW 8886   7.912   5.649  11.929 -0.5336 -0.7651 -0.2551
34734SOL    HW1 8887   7.895   5.702  12.007 -0.0842 -1.0755  0.0578
34734SOL    HW2 8888   7.860   5.569  11.943 -0.8970 -0.5847 -0.5415
34735SOL     OW 8889  10.342   9.901   2.491  0.0541  0.3695  0.6580
34735SOL    HW1 8890  10.264   9.948   2.521  0.4248  0.6645  1.1846
34735SOL    HW2 8891  10.363   9.842   2.562 -0.6386 -0.9170 -0.1640
34736SOL     OW 8892  11.366   2.093   6.718 -0.0303 -0.0151 -0.2415
34736SOL    HW1 8893  11.425   2.042   6.773 -0.2828 -0.3945 -0.3196
34736SOL    HW2 8894  11.343   2.035   6.646 -1.5920 -0.3738  0.5113
34737SOL     OW 8895   2.244   1.753   8.760  0.0826  0.2550 -0.5561
34737SOL    HW1 8896   2.268   1.845   8.770  0.1961  0.2683 -0.9404
34737SOL    HW2 8897   2.149   1.753   8.764  0.0274  0.5223 -1.5864
34738SOL     OW 8898   5.086   8.062   0.367  0.1733  0.3539 -0.0458
34738SOL    HW1 8899   5.148   8.036   0.435 -1.3515 -1.4523  0.7549
34738SOL    HW2 8900   5.101   8.155   0.354  1.5488  0.4155  1.6591
34739SOL     OW 8901   6.736   0.769  10.136  0.4647  0.1696  0.4455
34739SOL    HW1 8902   6.741   0.815  10.052 -1.6843 -0.7303 -0.2629
34739SOL    HW2 8903   6.827   0.761  10.165  1.1406  1.7733 -1.0766
34740SOL     OW 8904   0.105   5.703   9.634  0.0250 -0.0112 -0.8163
34740SOL    HW1 8905   0.178   5.747   9.677 -1.0171  0.7439  0.2171
34740SOL    HW2 8906   0.102   5.741   9.546  0.7548  0.0730 -0.8112
34741SOL     OW 8907   3.928  10.830   3.128  0.2041  0.2260 -0.1231
34741SOL    HW1 8908   3.901  10.918   3.101 -0.2966  0.1133 -0.0084
34741SOL    HW2 8909   3.894  10.821   3.217 -1.6825 -0.8772 -0.8885
34742SOL     OW 8910   0.345  10.459   1.245  0.2972  0.5257  0.1444
34742SOL    HW1 8911   0.373  10.406   1.170  1.6013  0.3951  0.6909
34742SOL    HW2 8912   0.369  10.549   1.221 -0.3201  0.6396 -0.0576
34743SOL     OW 8913   0.575   4.291   4.902  0.1328  0.1111 -0.0898
34743SOL    HW1 8914   0.561   4.212   4.850  2.1509  0.0879 -0.6999
34743SOL    HW2 8915   0.660   4.324   4.872  0.4349  1.2094  1.8318
34744SOL     OW 8916  11.054   2.121  10.408 -0.1097 -0.3583  0.1759
34744SOL    HW1 8917  10.973   2.143  10.362 -0.1479 -2.5592 -0.9261
34744SOL    HW2 8918  11.026   2.076  10.487  0.0199 -1.1532 -0.2240
34745SOL     OW 8919   2.725   8.664   2.384  0.8933 -0.4065 -0.0807
34745SOL    HW1 8920   2.725   8.755   2.356  0.7302  0.0201  1.2366
34745SOL    HW2 8921   2.803   8.655   2.439  0.4316 -0.8121  0.5295
34746SOL     OW 8922   6.600   3.637   6.090  0.0584 -0.1615 -0.0489
34746SOL    HW1 8923   6.684   3.594   6.076 -0.5198 -0.8341 -1.6477
34746SOL    HW2 8924   6.617   3.730   6.071  0.9640  0.1457  1.9895
34747SOL     OW 8925   3.629   4.330   7.715 -0.0859 -0.3411 -0.4600
34747SOL    HW1 8926   3.708   4.319   7.768 -1.0116  1.0824  1.3189
34747SOL    HW2 8927   3.653   4.396   7.651  0.2827 -0.1616 -0.1454
34748SOL     OW 8928  10.212   4.060   9.259 -0.0059 -0.2182 -0.1034
34748SOL    HW1 8929  10.288   4.002   9.256 -0.0930 -0.3462  0.1439
34748SOL    HW2 8930  10.190   4.066   9.352 -2.0823 -2.5516 -0.3303
34749SOL     OW 8931   2.591   8.868   8.476  0.4661 -0.2443 -0.6005
34749SOL    HW1 8932   2.597   8.960   8.451  0.3735 -0.1721 -0.3558
34749SOL    HW2 8933   2.598   8.820   8.393 -0.7924  0.0280 -0.8775
34750SOL     OW 8934   7.721   3.347  11.426 -0.6279  0.1588 -0.4521
34750SOL    HW1 8935   7.748   3.286  11.494 -2.5327 -1.8671 -1.3858
34750SOL    HW2 8936   7.802   3.387  11.396  0.7789 -2.1264  0.0326
34751SOL     OW 8937  10.842  11.554   3.484  0.4336  0.5306 -0.1739
34751SOL    HW1 8938  10.922  11.602   3.462  0.5195  0.4549 -0.0306
34751SOL    HW2 8939  10.792  11.552   3.403  1.6019 -1.3773 -0.9116
34752SOL     OW 8940   4.241   4.745   7.080 -0.5393  0.0625  0.3569
34752SOL    HW1 8941   4.253   4.676   7.015  1.4154 -0.3209  1.0722
34752SOL    HW2 8942   4.207   4.820   7.030 -1.1495 -0.8906 -0.6937
34753SOL     OW 8943   0.372   6.097  10.590 -0.3182  0.4947 -0.4046
34753SOL    HW1 8944   0.448   6.155  10.603  0.2788  0.0545 -1.8033
34753SOL    HW2 8945   0.300   6.156  10.569 -0.3338  0.8984  0.6997
34754SOL     OW 8946   9.460   6.916   8.853 -0.3858  0.0488  0.2374
34754SOL    HW1 8947   9.404   6.851   8.895 -0.3873  1.1414  2.0262
34754SOL    HW2 8948   9.534   6.865   8.819 -1.6978 -1.2120 -0.8927
34755SOL     OW 8949   5.094   9.217  11.615  0.4898  0.3156 -0.8278
34755SOL    HW1 8950   5.044   9.266  11.549 -0.3393  0.7728  0.1038
34755SOL    HW2 8951   5.138   9.149  11.566 -1.8762 -0.7651 -1.6194
34756SOL     OW 8952  10.825   9.582   8.231 -0.2158  0.1957  0.1760
34756SOL    HW1 8953  10.762   9.594   8.161 -0.9359 -2.1548  0.3039
34756SOL    HW2 8954  10.771   9.574   8.310  0.2672 -0.9629  0.4114
34757SOL     OW 8955   7.552  10.195   8.450 -0.5524 -0.2676 -0.3901
34757SOL    HW1 8956   7.625  10.179   8.389 -0.4226 -1.1334 -0.0161
34757SOL    HW2 8957   7.541  10.290   8.448 -0.1718 -0.2255 -1.3289
34758SOL     OW 8958   6.173   8.619   1.502  0.4582 -0.1143  0.4479
34758SOL    HW1 8959   6.080   8.598   1.495  0.5743 -0.1872 -1.3348
34758SOL    HW2 8960   6.201   8.576   1.583 -0.9912 -0.3032  0.8821
34759SOL     OW 8961   7.906   5.935   9.172 -0.2290  0.4705  0.4786
34759SOL    HW1 8962   7.843   5.938   9.100 -0.9069  2.2819  1.0995
34759SOL    HW2 8963   7.859   5.890   9.243 -0.4306  0.8541  0.5870
34760SOL     OW 8964   2.225   1.120   0.111 -0.0485  0.0455  0.0389
34760SOL    HW1 8965   2.140   1.111   0.066  0.3204  0.5496 -0.7767
34760SOL    HW2 8966   2.248   1.212   0.100 -0.1389  0.2809  1.6484
34761SOL     OW 8967   2.770   7.489   9.940 -0.0154  0.0648  0.2626
34761SOL    HW1 8968   2.713   7.427   9.895  1.5680 -0.1591 -1.5909
34761SOL    HW2 8969   2.753   7.573   9.897 -0.5566  0.4841  1.2581
34762SOL     OW 8970  10.431   6.750   8.872 -0.6437 -0.2832 -0.2635
34762SOL    HW1 8971  10.446   6.706   8.788  0.5910  0.4071 -0.4199
34762SOL    HW2 8972  10.336   6.766   8.874 -0.9065 -1.6420 -0.8424
34763SOL     OW 8973   2.003   0.777  10.281 -0.0425  0.1279  0.2891
34763SOL    HW1 8974   1.998   0.698  10.336  1.1630 -0.2709 -0.1285
34763SOL    HW2 8975   1.969   0.749  10.196 -0.1934  0.2379  0.3126
34764SOL     OW 8976   6.386   4.868   1.404 -0.5498  0.9241 -0.1389
34764SOL    HW1 8977   6.479   4.883   1.386 -0.5535  0.7830 -0.2667
34764SOL    HW2 8978   6.378   4.773   1.413 -0.3679  1.0213  1.5105
34765SOL     OW 8979   4.650   4.373   2.996 -0.3470  0.9763  0.5727
34765SOL    HW1 8980   4.562   4.375   2.959 -0.5089 -1.1388  0.7098
34765SOL    HW2 8981   4.708   4.387   2.922 -0.7724  0.5387  0.1527
34766SOL     OW 8982   8.127   0.095   9.348  0.0942  0.5866 -0.2800
34766SOL    HW1 8983   8.053   0.054   9.393  0.7470  1.4811  1.7328
34766SOL    HW2 8984   8.150   0.170   9.403  2.0398  0.7662 -1.2421
34767SOL     OW 8985   6.145   2.856  10.516  0.3530 -0.4023  0.2665
34767SOL    HW1 8986   6.220   2.805  10.549 -0.8095 -1.9288  0.6515
34767SOL    HW2 8987   6.076   2.842  10.581 -0.5771  0.1706 -0.5829
34768SOL     OW 8988  11.635   1.020   9.253  0.3307 -0.4827  0.0859
34768SOL    HW1 8989  11.659   0.964   9.327 -1.1400  0.3491  1.2595
34768SOL    HW2 8990  11.676   0.979   9.177  0.6763 -2.2036  1.1524
34769SOL     OW 8991   6.057   9.193   5.828 -0.2855 -0.3587 -0.3350
34769SOL    HW1 8992   6.043   9.263   5.765 -0.0773  1.0090  1.0634
34769SOL    HW2 8993   6.134   9.220   5.879 -0.1552 -1.6338  0.2093
34770SOL     OW 8994  11.349   6.749   9.073 -0.6642  0.3425 -0.0413
34770SOL    HW1 8995  11.295   6.674   9.048 -3.1834  2.0872 -0.1634
34770SOL    HW2 8996  11.309   6.781   9.154  0.7502  1.2103  0.3450
34771SOL     OW 8997   0.056   0.292   2.906 -0.0891  0.3691 -0.7236
34771SOL    HW1 8998   0.025   0.351   2.975 -1.2090 -2.1259  1.0394
34771SOL    HW2 8999  -0.023   0.254   2.868  0.5527  0.9921 -2.8150
34772SOL     OW 9000   1.238  11.425   1.811  0.2285 -0.2618 -0.0285
34772SOL    HW1 9001   1.210  11.508   1.773 -0.1607 -0.8095 -0.9614
34772SOL    HW2 9002   1.316  11.401   1.761  0.4484 -0.3865  0.3619
34773SOL     OW 9003   8.356   2.254  10.612 -0.2093 -0.3309  0.0417
34773SOL    HW1 9004   8.318   2.219  10.531  1.1769 -0.6148 -0.5168
34773SOL    HW2 9005   8.386   2.176  10.659 -0.9366 -0.1611  0.8182
34774SOL     OW 9006   7.899   4.089   3.227 -0.2260  0.1825 -0.2846
34774SOL    HW1 9007   7.967   4.022   3.215 -0.3175 -0.5006  2.4778
34774SOL    HW2 9008   7.874   4.082   3.319 -0.5822  3.7022  0.0235
34775SOL     OW 9009   3.022   7.103   0.552  0.0646  0.2916 -0.4619
34775SOL    HW1 9010   3.041   7.025   0.603 -1.7520 -0.5107 -0.9309
34775SOL    HW2 9011   3.106   7.148   0.545  1.0589 -1.3621  0.2278
34776SOL     OW 9012   1.109   6.058   6.363 -0.1863  0.2544  0.2439
34776SOL    HW1 9013   1.072   5.974   6.335  0.3044 -0.3197  1.2632
34776SOL    HW2 9014   1.158   6.090   6.287  1.4625 -1.4693  0.4969
34777SOL     OW 9015   5.159   0.665   8.336 -0.0384  0.5421  0.0349
34777SOL    HW1 9016   5.228   0.646   8.399  0.9808 -0.5015 -1.3309
34777SOL    HW2 9017   5.079   0.670   8.388  1.0384  1.7393  1.6461
34778SOL     OW 9018   1.720   5.001   5.848  0.3980  1.0353 -0.0633
34778SOL    HW1 9019   1.701   4.907   5.847 -1.0760  1.2707 -2.4638
34778SOL    HW2 9020   1.815   5.007   5.858  0.5158 -0.7077  0.0817
34779SOL     OW 9021   1.116   6.568   4.020  0.5917  0.0588 -0.4976
34779SOL    HW1 9022   1.081   6.632   3.958 -1.0677  0.9418  1.2753
34779SOL    HW2 9023   1.202   6.603   4.044  0.1670  1.0715 -0.3837
34780SOL     OW 9024   6.427   7.684   2.801 -0.2666 -0.3636 -0.1478
34780SOL    HW1 9025   6.438   7.673   2.895 -0.5651  1.1610  0.0887
34780SOL    HW2 9026   6.450   7.776   2.785 -1.0551 -0.3720 -1.4297
34781SOL     OW 9027  11.856  11.690   2.531  0.0359  0.5232 -0.4994
34781SOL    HW1 9028  11.819  11.776   2.512  0.7056  1.2056  1.0998
34781SOL    HW2 9029  11.941  11.709   2.569  1.1780 -0.9451 -2.1379
34782SOL     OW 9030   6.875   2.970   1.608  0.2864  0.6018  0.5489
34782SOL    HW1 9031   6.820   2.893   1.626 -0.8209  1.6570  2.0051
34782SOL    HW2 9032   6.865   2.985   1.514  0.6890 -1.1220  0.1861
34783SOL     OW 9033  12.001   6.369   5.471  0.0171 -0.0297  0.1336
34783SOL    HW1 9034  12.063   6.439   5.451  0.3768 -0.6666 -1.0273
34783SOL    HW2 9035  12.054   6.298   5.507 -0.1942 -0.1369  0.2388
34784SOL     OW 9036   4.199   2.587   7.699 -0.2240 -0.5670 -0.0864
34784SOL    HW1 9037   4.131   2.610   7.762 -0.7515 -0.0815 -0.8209
34784SOL    HW2 9038   4.152   2.551   7.625  0.4624 -2.1332  0.1994
34785SOL     OW 9039   6.499  11.094   7.204  0.1714  0.6822  0.6876
34785SOL    HW1 9040   6.520  11.010   7.244  1.3389  0.7750  0.3060
34785SOL    HW2 9041   6.498  11.078   7.110  0.0716  1.0300  0.6251
34786SOL     OW 9042   1.511   6.577   6.510  0.1631 -0.0373  0.2662
34786SOL    HW1 9043   1.538   6.488   6.533 -1.5250 -0.1657  1.9665
34786SOL    HW2 9044   1.482   6.570   6.419 -0.8124 -1.4601  0.6546
34787SOL     OW 9045  11.579   2.095  10.464 -0.0752  0.2469 -0.2886
34787SOL    HW1 9046  11.596   2.113  10.372  1.7278  1.1975  0.1775
34787SOL    HW2 9047  11.653   2.040  10.491 -0.2782  0.4597  0.7328
34788SOL     OW 9048   2.399  10.299   1.614  0.0534 -0.5291 -0.3688
34788SOL    HW1 9049   2.388  10.305   1.519  0.4992  0.5526 -0.3664
34788SOL    HW2 9050   2.317  10.333   1.650  1.3902  3.2952 -0.3879
34789SOL     OW 9051   6.030   5.295   9.551 -0.5161  0.6621 -0.2140
34789SOL    HW1 9052   6.114   5.249   9.554 -0.7897  0.1673  0.1548
34789SOL    HW2 9053   6.012   5.308   9.458 -0.7376 -0.5691 -0.3599
34790SOL     OW 9054   7.058   0.859   5.560 -0.3122 -0.0225  0.2101
34790SOL    HW1 9055   7.143   0.883   5.597  0.3191  1.2731 -1.8833
34790SOL    HW2 9056   7.046   0.919   5.486 -3.4358  0.3848  0.8964
34791SOL     OW 9057   9.736   7.300   3.582  0.1243  0.8614  0.2165
34791SOL    HW1 9058   9.748   7.343   3.666 -0.3230  1.0895  0.1680
34791SOL    HW2 9059   9.788   7.352   3.520  0.3424  0.7739  0.3267
34792SOL     OW 9060   3.979   4.697   5.872  0.4551 -0.3196  0.1679
34792SOL    HW1 9061   3.916   4.631   5.845 -1.2549  0.5777  1.7420
34792SOL    HW2 9062   3.937   4.780   5.851  1.2604  0.2989  0.9307
34793SOL     OW 9063   0.028  11.551  11.472  0.3092 -0.0325  0.1368
34793SOL    HW1 9064  -0.032  11.610  11.427  1.8505  0.5612 -1.2447
34793SOL    HW2 9065   0.042  11.592  11.558  0.1616  0.8126 -0.2296
34794SOL     OW 9066   3.380  10.755   6.840 -0.4432 -0.3551 -0.4176
34794SOL    HW1 9067   3.406  10.709   6.921 -0.4372  0.0074 -0.2130
34794SOL    HW2 9068   3.401  10.847   6.857 -0.6665 -0.2445 -0.7422
34795SOL     OW 9069   8.278   3.940   7.612 -0.4962 -0.0034 -0.0645
34795SOL    HW1 9070   8.293   4.034   7.608 -4.3063  0.9515  2.6013
34795SOL    HW2 9071   8.205   3.924   7.552  1.1387 -1.6323 -1.7220
34796SOL     OW 9072   7.558   9.049   5.215  0.0769 -0.1370 -0.4752
34796SOL    HW1 9073   7.512   9.013   5.291  2.3002  1.8193  1.9997
34796SOL    HW2 9074   7.517   9.134   5.200 -0.4056 -0.5465 -1.5891
34797SOL     OW 9075   7.740   3.080   1.057  0.6158 -0.2683 -0.1182
34797SOL    HW1 9076   7.710   3.079   1.148  0.0391  1.0279 -0.2773
34797SOL    HW2 9077   7.693   3.153   1.017  1.0846 -0.6434 -1.3856
34798SOL     OW 9078   4.866  11.404  11.374 -0.4332  0.2182  0.0845
34798SOL    HW1 9079   4.957  11.399  11.344 -0.2341 -2.0386  0.8705
34798SOL    HW2 9080   4.823  11.329  11.331 -1.4256  0.1150  1.2316
34799SOL     OW 9081   5.388   0.582  10.370  0.3116  0.2938 -0.0828
34799SOL    HW1 9082   5.441   0.502  10.379 -0.6379 -0.3417  0.0384
34799SOL    HW2 9083   5.358   0.581  10.279 -0.7823 -0.1998  0.2714
34800SOL     OW 9084   5.109   0.386   2.932 -0.2424 -0.1970  0.3181
34800SOL    HW1 9085   5.129   0.457   2.872  1.1855  0.3350  1.3531
34800SOL    HW2 9086   5.083   0.313   2.876  0.1281  0.5608 -0.8701
34801SOL     OW 9087  10.464   5.836   4.270  0.2805 -0.5950  0.0029
34801SOL    HW1 9088  10.458   5.741   4.256  0.5731 -0.5361 -0.5554
34801SOL    HW2 9089  10.432   5.874   4.188 -1.3793 -0.1806  0.7872
34802SOL     OW 9090   0.820   3.026   8.026 -0.4072  0.2453 -0.2252
34802SOL    HW1 9091   0.817   3.120   8.010  3.1122  0.2784 -1.5343
34802SOL    HW2 9092   0.784   2.988   7.946 -0.1044  0.4617 -0.4648
34803SOL     OW 9093   8.152   5.077  11.017 -0.2731 -0.3563 -0.6704
34803SOL    HW1 9094   8.077   5.050  10.965 -0.0626 -0.0436 -1.1523
34803SOL    HW2 9095   8.209   5.123  10.954 -0.6813  1.3285  0.1179
34804SOL     OW 9096   4.660   1.121   3.441 -0.4919 -0.7636 -0.2888
34804SOL    HW1 9097   4.733   1.072   3.404  0.8706  0.5311  0.5614
34804SOL    HW2 9098   4.680   1.125   3.535 -0.9960  0.6500 -0.2182
34805SOL     OW 9099   3.675   6.239   3.728  0.3219 -0.2521 -0.0769
34805SOL    HW1 9100   3.674   6.271   3.638  0.6285 -0.6625 -0.2289
34805SOL    HW2 9101   3.654   6.146   3.721  1.9539 -0.6650  0.1068
34806SOL     OW 9102  11.865   9.732   4.267  0.4858 -0.4322  0.2191
34806SOL    HW1 9103  11.939   9.723   4.207 -0.7611 -1.1065 -1.2919
34806SOL    HW2 9104  11.893   9.686   4.346  1.4950 -1.1111 -0.5067
34807SOL     OW 9105   3.110   1.972   5.365 -0.4674  0.6489  0.4663
34807SOL    HW1 9106   3.032   1.983   5.419 -0.3105  0.9025  0.6434
34807SOL    HW2 9107   3.149   1.890   5.396 -0.8153  0.3690  0.1801
34808SOL     OW 9108   6.100   0.387   7.957  0.1145 -0.4131  0.3613
34808SOL    HW1 9109   6.048   0.337   7.894 -2.2044 -0.3736  2.1073
34808SOL    HW2 9110   6.166   0.325   7.989  0.8099 -0.6644 -1.4411
34809SOL     OW 9111  10.833   0.655   8.170 -0.1468 -0.2783 -0.1919
34809SOL    HW1 9112  10.760   0.702   8.209 -0.3406  0.0337 -0.9030
34809SOL    HW2 9113  10.893   0.638   8.243 -0.5420  0.1926  0.2524
34810SOL     OW 9114   2.508   4.872   5.375 -0.0981 -0.4703  0.0005
34810SOL    HW1 9115   2.522   4.875   5.281  0.2502  0.6274  0.0738
34810SOL    HW2 9116   2.552   4.950   5.409 -1.0319 -0.3231  0.9530
34811SOL     OW 9117   6.672   2.441   5.560 -0.2049 -0.0678 -0.0699
34811SOL    HW1 9118   6.734   2.514   5.562  1.1365 -1.1119  3.0092
34811SOL    HW2 9119   6.595   2.477   5.517  2.2391  1.4506 -3.6562
34812SOL     OW 9120  11.161   6.711  11.719  0.3758  0.0687 -0.2724
34812SOL    HW1 9121  11.175   6.788  11.663 -0.5058  0.3934 -0.0515
34812SOL    HW2 9122  11.113   6.649  11.663 -0.9015  0.5676  0.2476
34813SOL     OW 9123   9.475   1.575   0.847 -0.2992  0.3211 -0.2814
34813SOL    HW1 9124   9.543   1.589   0.781 -0.1908  1.6285  0.0810
34813SOL    HW2 9125   9.492   1.642   0.913 -1.4501  0.1286  0.2287
34814SOL     OW 9126   5.526   3.044   9.947 -0.5738 -0.1046  0.1595
34814SOL    HW1 9127   5.567   2.959   9.963 -1.8959 -1.1586 -1.7182
34814SOL    HW2 9128   5.463   3.054  10.019  0.1900 -0.2767  0.8711
34815SOL     OW 9129   1.264   2.995   6.119 -0.1044 -0.2877  0.0731
34815SOL    HW1 9130   1.325   3.040   6.062  0.5049  1.7693  2.1844
34815SOL    HW2 9131   1.320   2.946   6.180 -0.6649 -0.7782  0.2028
34816SOL     OW 9132   1.855  10.030   2.913 -0.1199  0.0565 -0.1122
34816SOL    HW1 9133   1.857   9.975   2.991  0.4226 -0.0667 -0.2116
34816SOL    HW2 9134   1.830  10.117   2.945  0.0450 -0.0067  0.1892
34817SOL     OW 9135   2.807   0.909  10.725  0.3882  0.4639  0.1893
34817SOL    HW1 9136   2.833   0.913  10.817 -0.4671  1.2175  0.4175
34817SOL    HW2 9137   2.760   0.991  10.710 -0.8019 -0.3123 -0.4976
34818SOL     OW 9138   4.225   4.213   6.776 -0.1921  0.3110  0.2357
34818SOL    HW1 9139   4.254   4.207   6.867 -0.3661 -1.1607  0.2184
34818SOL    HW2 9140   4.295   4.263   6.732  1.0571 -0.9352  0.7274
34819SOL     OW 9141   4.948   5.978   7.347  0.1452  0.1109  0.4918
34819SOL    HW1 9142   4.937   5.893   7.389 -0.2857  0.7266  1.6874
34819SOL    HW2 9143   4.940   6.041   7.419 -3.0635  1.3830 -0.7841
34820SOL     OW 9144   9.034   6.946  10.651 -0.5713  0.3864  0.4336
34820SOL    HW1 9145   9.101   7.008  10.620 -0.3267  1.1779  2.3537
34820SOL    HW2 9146   9.012   6.894  10.574 -0.7135  2.7835 -1.2726
34821SOL     OW 9147   9.012   2.610   7.421 -0.1588  0.0443 -0.0784
34821SOL    HW1 9148   9.043   2.545   7.484 -0.1789 -2.7271 -2.7031
34821SOL    HW2 9149   9.091   2.639   7.375 -0.4823 -0.6596 -1.1137
34822SOL     OW 9150   8.421   6.261   4.448 -0.0268 -0.0639  0.2046
34822SOL    HW1 9151   8.515   6.245   4.453  0.2747  1.6120  0.5590
34822SOL    HW2 9152   8.391   6.208   4.374  1.4323  0.4010 -0.7483
34823SOL     OW 9153   0.338   1.962   6.915  0.2191  0.1481  0.2448
34823SOL    HW1 9154   0.259   2.014   6.932  0.6540  0.1255  2.7286
34823SOL    HW2 9155   0.333   1.889   6.977  1.9137 -0.1519  0.0803
34824SOL     OW 9156  10.232   0.007   0.763  0.0426  0.4508 -0.1135
34824SOL    HW1 9157  10.161  -0.024   0.819  0.3793  0.0104  0.0719
34824SOL    HW2 9158  10.205  -0.016   0.674 -0.4545  1.0776 -0.1346
34825SOL     OW 9159   8.064   8.691   1.820 -0.0771  0.3921 -0.5735
34825SOL    HW1 9160   8.041   8.634   1.893 -0.2379  0.1245 -0.8349
34825SOL    HW2 9161   8.151   8.726   1.843 -0.5521  1.0846  0.2101
34826SOL     OW 9162   9.038   3.117   0.195 -0.4990 -0.8874  0.3528
34826SOL    HW1 9163   9.038   3.213   0.192  2.3841 -0.8482 -1.3560
34826SOL    HW2 9164   9.130   3.092   0.188 -1.2645 -3.8055 -1.0088
34827SOL     OW 9165   4.998   1.109   6.124 -0.6006  0.5275 -0.2222
34827SOL    HW1 9166   4.960   1.117   6.212 -0.8352 -0.4750 -0.2140
34827SOL    HW2 9167   5.017   1.015   6.115  1.0650  0.8768 -0.5665
34828SOL     OW 9168   4.189   6.611   0.936 -0.4247 -0.1519  0.1663
34828SOL    HW1 9169   4.103   6.652   0.944  0.5098  2.0061 -0.1088
34828SOL    HW2 9170   4.197   6.589   0.844 -0.7348 -0.4774  0.2170
34829SOL     OW 9171   4.023   9.206   8.748  0.1602 -0.1860 -0.2482
34829SOL    HW1 9172   3.931   9.204   8.775  0.0623 -1.4886 -0.5879
34829SOL    HW2 9173   4.069   9.157   8.817  0.2667 -1.3694 -1.1270
34830SOL     OW 9174   6.599   0.061   9.884 -0.2512 -0.8102 -0.6610
34830SOL    HW1 9175   6.676   0.116   9.870  0.5874 -1.2926  1.5690
34830SOL    HW2 9176   6.527   0.109   9.841  0.9511  0.5852 -1.1949
34831SOL     OW 9177   7.486   0.450   4.070 -0.8533  0.0115  0.2054
34831SOL    HW1 9178   7.430   0.418   4.141 -0.0694 -0.3296  0.6877
34831SOL    HW2 9179   7.509   0.540   4.096  1.5810 -0.9522  1.7974
34832SOL     OW 9180  10.077   5.479   5.379 -0.4675  0.2292  0.0663
34832SOL    HW1 9181  10.129   5.537   5.323 -2.0016  1.1393 -0.4848
34832SOL    HW2 9182  10.141   5.439   5.438  1.7421 -2.9376 -3.9510
34833SOL     OW 9183   9.889   2.838  10.504  0.6339 -0.2402 -0.0590
34833SOL    HW1 9184   9.848   2.756  10.480 -0.2157 -0.0269  0.6296
34833SOL    HW2 9185   9.973   2.838  10.457  0.4135 -1.2523 -0.4639
34834SOL     OW 9186  10.332   8.256   8.976 -0.1360 -0.4462 -0.7327
34834SOL    HW1 9187  10.423   8.248   9.004  0.1176  1.3765 -0.9508
34834SOL    HW2 9188  10.317   8.178   8.921  0.9837 -1.2352  0.0464
34835SOL     OW 9189   8.641  10.520   2.947  0.1875 -0.2841  0.3234
34835SOL    HW1 9190   8.619  10.491   2.859 -0.3660 -1.8826  0.9611
34835SOL    HW2 9191   8.571  10.486   3.002  0.6715  0.4494  1.4272
34836SOL     OW 9192   5.916   5.533  11.916  0.4287 -0.4540  0.2230
34836SOL    HW1 9193   5.874   5.570  11.994 -2.9802  1.4507 -2.2341
34836SOL    HW2 9194   5.885   5.442  11.913 -0.4992 -0.1601  0.4673
34837SOL     OW 9195   2.907   3.096  10.993  0.0799 -0.1212 -0.8324
34837SOL    HW1 9196   2.865   3.158  11.053  0.9868 -0.2194 -0.0684
34837SOL    HW2 9197   2.835   3.061  10.940 -0.5146  1.2429 -0.9817
34838SOL     OW 9198  10.655   6.134  10.593  0.5321 -0.0680 -0.4300
34838SOL    HW1 9199  10.686   6.200  10.532  1.0053  1.4444  1.3277
34838SOL    HW2 9200  10.565   6.116  10.567  0.2037  1.7218 -0.6441
34839SOL     OW 9201   0.250   8.808   4.297 -0.7287 -0.5667 -0.0883
34839SOL    HW1 9202   0.293   8.791   4.213 -0.1521  1.8441 -0.3477
34839SOL    HW2 9203   0.310   8.866   4.344 -2.3587  0.5418  0.7392
34840SOL     OW 9204   2.173   7.838   5.747 -0.1470 -0.1117  0.5748
34840SOL    HW1 9205   2.171   7.755   5.700  1.5346 -0.9092  1.8362
34840SOL    HW2 9206   2.128   7.899   5.688 -2.1160 -2.0228 -0.0671
34841SOL     OW 9207   2.557   6.054   9.151  0.3062  0.3420  0.0804
34841SOL    HW1 9208   2.583   6.072   9.061  2.1010 -0.5636  0.3771
34841SOL    HW2 9209   2.573   5.961   9.163 -2.6026 -0.2029  0.5268
34842SOL     OW 9210   3.708  10.931   8.308  0.0610  0.0495 -0.6385
34842SOL    HW1 9211   3.695  11.002   8.246 -0.6832  0.6648  0.1934
34842SOL    HW2 9212   3.675  10.853   8.262 -1.4648  0.6687 -0.6571
34843SOL     OW 9213  11.876   8.187   2.215  0.1783  0.0803 -0.1319
34843SOL    HW1 9214  11.848   8.266   2.170 -1.4736 -0.8276 -0.7898
34843SOL    HW2 9215  11.798   8.157   2.262  1.3073 -0.1156  1.6894
34844SOL     OW 9216   4.467   2.783  10.857 -0.0117 -0.0746 -0.2523
34844SOL    HW1 9217   4.471   2.708  10.797 -1.7385 -0.1740 -0.2966
34844SOL    HW2 9218   4.460   2.859  10.800  0.3047  0.0083 -0.1847
34845SOL     OW 9219   3.040   1.490   4.530 -0.4274 -0.0767 -0.1302
34845SOL    HW1 9220   3.028   1.475   4.624  2.5733  0.0472  0.3870
34845SOL    HW2 9221   3.021   1.583   4.518 -2.0134 -0.3464  0.0656
34846SOL     OW 9222  10.574   7.867   9.398  0.4803  0.0272 -0.2958
34846SOL    HW1 9223  10.493   7.907   9.430  1.5442  0.8036  1.5487
34846SOL    HW2 9224  10.603   7.927   9.329 -0.7644 -0.5655 -1.3942
34847SOL     OW 9225   6.393   2.951   1.956 -1.0787 -0.2961 -0.8189
34847SOL    HW1 9226   6.342   2.871   1.965 -1.4407 -0.1000 -1.1211
34847SOL    HW2 9227   6.390   2.971   1.863 -0.8673 -0.0104 -0.7638
34848SOL     OW 9228   8.359   4.618  11.778  0.1791 -0.6477 -0.0201
34848SOL    HW1 9229   8.322   4.686  11.834  1.4595 -0.0740  0.1725
34848SOL    HW2 9230   8.283   4.579  11.733 -0.6901  0.0421  0.8159
34849SOL     OW 9231   2.592   7.566  11.114  0.2014  0.5183  0.2129
34849SOL    HW1 9232   2.570   7.615  11.036 -0.1176  0.5679  0.3332
34849SOL    HW2 9233   2.552   7.615  11.186  0.4014  0.4174  0.3960
34850SOL     OW 9234   3.112   0.287   5.206  0.1249  0.6817 -0.3503
34850SOL    HW1 9235   3.179   0.261   5.269  0.6492  1.4716 -0.5566
34850SOL    HW2 9236   3.158   0.345   5.145 -0.5456  0.5283 -1.0172
34851SOL     OW 9237   2.466  10.007   5.865 -0.5973 -0.1050  0.3016
34851SOL    HW1 9238   2.438  10.077   5.806 -2.6437 -1.9739 -1.0981
34851SOL    HW2 9239   2.387   9.982   5.913 -0.4359 -2.7063 -0.6329
34852SOL     OW 9240   9.247   4.331   8.307 -0.1231 -0.4660  0.0769
34852SOL    HW1 9241   9.268   4.345   8.399 -1.8401 -0.0230  0.4381
34852SOL    HW2 9242   9.221   4.239   8.302  1.1355 -0.8193 -0.2258
34853SOL     OW 9243   9.939   2.165  11.323  0.2536 -0.1015 -0.4079
34853SOL    HW1 9244   9.859   2.187  11.370  0.0200 -0.4566 -0.6352
34853SOL    HW2 9245   9.924   2.076  11.291  0.4323  0.1133 -1.0948
34854SOL     OW 9246   7.716   6.974   7.922  0.4767 -0.2592 -0.0585
34854SOL    HW1 9247   7.630   6.998   7.957  1.3779  1.7562  0.9572
34854SOL    HW2 9248   7.730   6.885   7.952 -0.7391 -0.1743  0.8285
34855SOL     OW 9249   8.984   6.698   8.855  0.2234  0.1785  0.6176
34855SOL    HW1 9250   9.042   6.625   8.875 -1.4864 -2.1633 -2.1108
34855SOL    HW2 9251   8.912   6.690   8.918  1.0521  0.8764  1.6816
34856SOL     OW 9252   0.634   3.820   5.537 -0.3004  0.7233  0.3537
34856SOL    HW1 9253   0.556   3.877   5.537  0.7231  2.2368  2.0116
34856SOL    HW2 9254   0.629   3.773   5.454 -2.4772  1.4694 -0.0109
34857SOL     OW 9255  10.295  11.819   2.474 -0.2408  0.2328  0.5832
34857SOL    HW1 9256  10.273  11.762   2.547 -1.7293  0.4454  0.3355
34857SOL    HW2 9257  10.285  11.764   2.396  1.7550 -0.1169  0.5238
34858SOL     OW 9258   7.739   7.913   2.885  0.4093 -0.3074 -0.2159
34858SOL    HW1 9259   7.771   7.829   2.919 -0.8473 -1.1046 -0.9390
34858SOL    HW2 9260   7.711   7.961   2.963  1.1975 -0.5130  0.2138
34859SOL     OW 9261   5.202   8.425  11.444  0.6010  0.8085 -0.5263
34859SOL    HW1 9262   5.257   8.382  11.509  0.6064 -1.0426 -1.6744
34859SOL    HW2 9263   5.127   8.458  11.493  0.4743 -0.7736  0.3805
34860SOL     OW 9264  10.575   9.981   1.375 -0.0766 -0.2097  0.1558
34860SOL    HW1 9265  10.513  10.051   1.359 -1.4125 -0.9981  1.6345
34860SOL    HW2 9266  10.657  10.012   1.335 -0.7920  1.8512  0.1728
34861SOL     OW 9267   7.721   4.844   0.416 -0.0067 -0.0873 -0.4498
34861SOL    HW1 9268   7.733   4.839   0.511 -1.3826  0.7085 -0.2064
34861SOL    HW2 9269   7.715   4.753   0.387 -1.9056 -0.3471  0.5822
34862SOL     OW 9270   9.382  10.479   6.320  0.5098 -0.2170 -0.4322
34862SOL    HW1 9271   9.443  10.537   6.276  0.1937  0.6652  0.2494
34862SOL    HW2 9272   9.400  10.492   6.413 -1.7062  1.2398 -0.1312
34863SOL     OW 9273   1.057   5.138   9.327  0.4764 -0.3208  0.2942
34863SOL    HW1 9274   0.992   5.170   9.390  0.4888  0.0472  0.1246
34863SOL    HW2 9275   1.128   5.202   9.332  1.6859 -1.6990  1.8341
34864SOL     OW 9276   6.091   4.711   1.603  0.6034  0.2417  0.0915
34864SOL    HW1 9277   6.175   4.674   1.629 -0.1667 -0.5274  1.6304
34864SOL    HW2 9278   6.046   4.729   1.685 -1.0882 -0.1814 -0.6900
34865SOL     OW 9279   2.022   4.244   3.525 -0.3922 -0.2867 -0.0596
34865SOL    HW1 9280   1.934   4.275   3.548 -0.9699 -3.4149  2.9409
34865SOL    HW2 9281   2.007   4.175   3.460 -0.3621 -1.4197  1.0798
34866SOL     OW 9282   0.749   7.374   4.036 -0.2679 -0.4656 -0.4208
34866SOL    HW1 9283   0.717   7.327   3.959 -1.3986 -1.2728  0.5213
34866SOL    HW2 9284   0.683   7.442   4.051 -0.3848 -0.7090  0.1971
34867SOL     OW 9285   7.917   1.339   5.756  0.2698 -0.3779 -0.1157
34867SOL    HW1 9286   7.982   1.407   5.739  1.5156 -1.4577  0.1450
34867SOL    HW2 9287   7.874   1.367   5.837  0.0581  0.5915 -0.5482
34868SOL     OW 9288   0.401  10.987   1.779 -0.4831 -0.1964  0.0696
34868SOL    HW1 9289   0.435  11.063   1.732 -0.6910  0.1604  0.4936
34868SOL    HW2 9290   0.454  10.913   1.747 -2.4633 -0.5040 -2.8950
34869SOL     OW 9291   3.748   3.206   1.568 -0.1034  0.2084 -0.6719
34869SOL    HW1 9292   3.767   3.138   1.502  1.5079  1.6792 -1.8295
34869SOL    HW2 9293   3.741   3.287   1.517 -0.9162  1.0990  0.7874
34870SOL     OW 9294   8.076   8.779   3.953 -0.0687 -0.0198  0.2545
34870SOL    HW1 9295   7.992   8.824   3.939 -0.3851 -1.0685 -1.4964
34870SOL    HW2 9296   8.131   8.809   3.881  0.3214 -1.0361  0.1142
34871SOL     OW 9297   9.145   5.856  10.601  0.1721 -0.3324 -0.5329
34871SOL    HW1 9298   9.084   5.802  10.551 -0.6711 -1.3979  1.5298
34871SOL    HW2 9299   9.094   5.888  10.675  1.1597  1.8459 -0.7068
34872SOL     OW 9300   3.910   1.628   6.893 -0.9731  0.3518 -0.0366
34872SOL    HW1 9301   3.829   1.581   6.913 -0.1995 -1.1584 -0.3572
34872SOL    HW2 9302   3.964   1.566   6.844  0.9102  0.8803  1.2476
34873SOL     OW 9303   1.676   5.819  11.465  0.1935  0.3126  0.4033
34873SOL    HW1 9304   1.649   5.848  11.378  2.6162 -1.1968 -0.9598
34873SOL    HW2 9305   1.596   5.783  11.504 -1.1403  1.8249 -0.7897
34874SOL     OW 9306   7.566   0.360  11.881 -0.1809  0.2830 -0.1643
34874SOL    HW1 9307   7.543   0.341  11.972 -1.1202  1.0378 -0.2238
34874SOL    HW2 9308   7.580   0.274  11.841 -1.8499 -0.1814  0.1688
34875SOL     OW 9309   5.624   1.218   7.563 -0.1830 -0.3856 -0.1386
34875SOL    HW1 9310   5.622   1.263   7.479 -0.6599 -1.0358 -0.4795
34875SOL    HW2 9311   5.612   1.289   7.627  1.0929  0.2286 -0.5486
34876SOL     OW 9312   6.649   6.238   2.164  0.2957 -0.0397  0.0357
34876SOL    HW1 9313   6.611   6.152   2.180  1.2088 -0.2702  1.0094
34876SOL    HW2 9314   6.573   6.297   2.157 -0.2825 -0.6830  0.7818
34877SOL     OW 9315   2.822  10.120   9.119  0.5809 -0.0416 -0.1322
34877SOL    HW1 9316   2.774  10.189   9.164  0.9299 -0.7006  1.3393
34877SOL    HW2 9317   2.808  10.042   9.174  1.6003 -0.7296 -0.8127
34878SOL     OW 9318   4.768   4.044   5.321  0.0457 -0.3524 -0.0533
34878SOL    HW1 9319   4.678   4.054   5.352  0.2272  1.0667  0.1057
34878SOL    HW2 9320   4.821   4.045   5.400  0.3495  1.1428 -0.2439
34879SOL     OW 9321   7.594   1.757   8.329 -0.0098 -0.4879  0.0679
34879SOL    HW1 9322   7.517   1.772   8.274  0.1556  1.4624  0.2983
34879SOL    HW2 9323   7.593   1.828   8.392  2.2675 -0.0969 -0.2423
34880SOL     OW 9324   0.505   2.379   1.808  0.7396 -0.0710 -0.3526
34880SOL    HW1 9325   0.591   2.420   1.803  0.2324  1.0097 -0.4745
34880SOL    HW2 9326   0.459   2.411   1.730 -0.7903  1.8220  1.2125
34881SOL     OW 9327  10.086   3.434   0.865 -0.0500  0.3534 -0.3641
34881SOL    HW1 9328  10.173   3.466   0.842  0.0810 -0.7086 -1.3831
34881SOL    HW2 9329  10.033   3.514   0.874  0.5347  0.9276 -1.7644
34882SOL     OW 9330  10.764   8.973   7.853  0.3416  0.4354  0.3638
34882SOL    HW1 9331  10.854   9.005   7.849  1.2663 -1.9989 -0.1914
34882SOL    HW2 9332  10.719   9.033   7.913  2.2343  1.9120  0.3724
34883SOL     OW 9333   9.310  10.979   0.282 -0.0286  0.1797 -0.3528
34883SOL    HW1 9334   9.330  11.069   0.304  0.1541  0.8490 -3.0199
34883SOL    HW2 9335   9.218  10.968   0.308 -0.3182  1.4039 -0.8332
34884SOL     OW 9336   6.209   3.354   2.642  0.0696  0.1324 -0.4377
34884SOL    HW1 9337   6.262   3.434   2.642 -0.3381  0.4115  0.0471
34884SOL    HW2 9338   6.249   3.299   2.709 -0.9332  0.8262  0.7823
34885SOL     OW 9339  11.894   7.083   4.503 -0.2976  0.1414  0.4944
34885SOL    HW1 9340  11.835   7.130   4.444 -1.3593  0.0070  1.4131
34885SOL    HW2 9341  11.982   7.107   4.474 -0.8038  2.0111  0.3871
34886SOL     OW 9342   4.290   8.517   5.818 -0.1550 -0.3046 -0.1776
34886SOL    HW1 9343   4.341   8.586   5.860 -1.2456  0.4533 -0.0692
34886SOL    HW2 9344   4.229   8.487   5.885  1.8666 -3.1303  0.6000
34887SOL     OW 9345   8.785   1.635   4.888  0.5336 -0.2273  0.0234
34887SOL    HW1 9346   8.818   1.611   4.802 -0.8088 -1.5135 -0.1615
34887SOL    HW2 9347   8.853   1.604   4.949 -0.8221 -4.2959 -0.2357
34888SOL     OW 9348   9.621   0.183  11.007 -0.6767  0.1719 -0.6282
34888SOL    HW1 9349   9.707   0.167  10.968 -0.9510 -1.1204 -0.7384
34888SOL    HW2 9350   9.593   0.266  10.968  0.4113  0.4970 -0.7621
34889SOL     OW 9351  10.203  11.963  10.472  0.2074  0.4228  0.1131
34889SOL    HW1 9352  10.125  12.000  10.432 -0.2256 -0.5609  0.0267
34889SOL    HW2 9353  10.264  12.037  10.478 -0.9930  1.3755  0.8981
34890SOL     OW 9354   8.963   7.422   4.275  0.0584  0.1946 -0.1214
34890SOL    HW1 9355   8.869   7.440   4.271  0.0092 -0.0145  0.0872
34890SOL    HW2 9356   8.983   7.384   4.189 -0.0059  0.4323 -0.2439
34891SOL     OW 9357   2.048   9.173   9.112 -0.0332 -1.0696 -0.0961
34891SOL    HW1 9358   2.088   9.104   9.060 -0.5462 -1.7072  0.3391
34891SOL    HW2 9359   1.956   9.173   9.084 -0.4996 -1.9418  1.3204
34892SOL     OW 9360   6.525   9.628  10.865 -0.0159 -0.0141 -0.5072
34892SOL    HW1 9361   6.529   9.617  10.960  0.0259  0.5685 -0.4404
34892SOL    HW2 9362   6.569   9.551  10.830 -0.7888 -0.6705 -0.0777
34893SOL     OW 9363  11.823   3.499   6.230 -0.2281 -0.3593 -0.4832
34893SOL    HW1 9364  11.758   3.568   6.217 -0.2958  0.6048  3.7033
34893SOL    HW2 9365  11.905   3.538   6.202 -0.6411  0.4786 -0.5648
34894SOL     OW 9366   4.080   8.527   8.874  0.5051  0.1948  0.0290
34894SOL    HW1 9367   4.050   8.560   8.789  0.6525  1.4074  0.4316
34894SOL    HW2 9368   4.007   8.544   8.933  1.1109  1.0992  0.5355
34895SOL     OW 9369   9.127  11.356   1.067  0.4193 -0.1393  0.3063
34895SOL    HW1 9370   9.185  11.423   1.103 -2.0102  3.3056 -1.6622
34895SOL    HW2 9371   9.050  11.404   1.035 -0.5628 -3.5810 -3.3776
34896SOL     OW 9372   7.136   3.699   4.221  0.4844 -0.2681 -0.3370
34896SOL    HW1 9373   7.080   3.757   4.273  1.5718 -1.6815  2.6688
34896SOL    HW2 9374   7.216   3.749   4.207  0.4575 -0.1249  0.0108
34897SOL     OW 9375   9.057   9.671   3.697 -0.5940 -0.0081 -0.1730
34897SOL    HW1 9376   9.028   9.690   3.607 -1.9179 -2.2896 -0.3033
34897SOL    HW2 9377   8.997   9.722   3.752 -2.9258 -2.1341 -0.5444
34898SOL     OW 9378  10.863   3.145   8.301 -0.3605  0.3472  0.3229
34898SOL    HW1 9379  10.829   3.059   8.274  2.1325 -0.3504 -0.9393
34898SOL    HW2 9380  10.902   3.129   8.387 -0.4003  0.3425  0.3397
34899SOL     OW 9381  11.342   9.730   6.544 -0.3988  0.9827 -0.6674
34899SOL    HW1 9382  11.380   9.745   6.457 -0.2338  0.3890 -0.7017
34899SOL    HW2 9383  11.384   9.796   6.600  0.8049  0.2489 -0.6736
34900SOL     OW 9384   2.135   8.227   0.035  0.4648  0.0832  0.2921
34900SOL    HW1 9385   2.218   8.264   0.067  1.0382  0.1025 -1.1644
34900SOL    HW2 9386   2.082   8.304   0.014 -0.1021  0.0759  1.5954
34901SOL     OW 9387  11.352  11.191   5.828 -0.0833  0.1064 -0.1631
34901SOL    HW1 9388  11.295  11.260   5.793 -0.1452  0.3635  0.4288
34901SOL    HW2 9389  11.364  11.214   5.920  0.5417 -0.2409 -0.1485
34902SOL     OW 9390  10.079   0.128  11.962  0.0016  0.0693  0.3348
34902SOL    HW1 9391  10.033   0.061  12.012 -1.2486  1.1139  0.6117
34902SOL    HW2 9392  10.167   0.091  11.949 -0.5346 -1.4546  0.7889
34903SOL     OW 9393   2.202   9.134   2.581  0.0377  0.0291 -0.3636
34903SOL    HW1 9394   2.201   9.094   2.494 -1.3017  0.2359 -0.4631
34903SOL    HW2 9395   2.249   9.217   2.568 -1.5434  0.8447 -1.2913
34904SOL     OW 9396   8.020   4.463   9.192 -0.1367  0.3614  0.2552
34904SOL    HW1 9397   8.026   4.521   9.268  0.2124 -1.2435  1.4866
34904SOL    HW2 9398   8.107   4.466   9.152 -0.5855  1.9657 -0.7187
34905SOL     OW 9399   1.255   7.389   5.871 -0.0992  0.3445 -0.6887
34905SOL    HW1 9400   1.253   7.332   5.947 -1.0069  0.4681 -0.6096
34905SOL    HW2 9401   1.169   7.431   5.870  0.0838  0.7227 -1.4928
34906SOL     OW 9402  10.779   0.474   8.896  0.1856 -0.2488 -0.5505
34906SOL    HW1 9403  10.699   0.442   8.937 -0.5899  2.1381 -0.0490
34906SOL    HW2 9404  10.837   0.495   8.970  1.3632 -2.0027 -0.9068
34907SOL     OW 9405   6.103   4.107   0.978 -0.5769  0.0079  0.0419
34907SOL    HW1 9406   6.152   4.044   1.032  0.8900  1.7499  0.8725
34907SOL    HW2 9407   6.154   4.114   0.898 -0.9073 -0.0909 -0.1766
34908SOL     OW 9408   1.029   3.300   7.421  0.4516 -0.0524  0.0226
34908SOL    HW1 9409   1.017   3.235   7.490 -1.8795 -1.0539 -1.2347
34908SOL    HW2 9410   1.055   3.380   7.468  1.3867 -1.3248  1.7819
34909SOL     OW 9411  11.110   2.488  11.963 -0.0044  0.4732 -0.1692
34909SOL    HW1 9412  11.204   2.507  11.974  0.5408 -2.1907  0.5307
34909SOL    HW2 9413  11.101   2.467  11.871 -0.0788  1.3125 -0.3681
34910SOL     OW 9414   7.364   3.040   5.933  0.3738 -0.0021  0.3635
34910SOL    HW1 9415   7.304   3.096   5.982  0.1352  0.0760 -0.0113
34910SOL    HW2 9416   7.330   3.041   5.843  0.8763 -0.0388  0.1680
34911SOL     OW 9417   7.630   6.842   2.873  0.2154  0.1595  0.2049
34911SOL    HW1 9418   7.576   6.818   2.798  0.1983 -1.0516  0.5816
34911SOL    HW2 9419   7.635   6.937   2.870  0.1912  0.1370 -1.3082
34912SOL     OW 9420   6.964   6.422   9.006  0.2110 -0.3494 -0.8990
34912SOL    HW1 9421   6.888   6.477   8.991 -0.0475  0.6623  3.0080
34912SOL    HW2 9422   6.939   6.336   8.971 -2.6681  0.0161  0.0323
34913SOL     OW 9423   3.460   8.559   1.683 -0.1996 -0.2161  0.3692
34913SOL    HW1 9424   3.387   8.497   1.674  1.3292 -2.1106  0.1920
34913SOL    HW2 9425   3.498   8.538   1.769  1.9312 -1.4346 -0.7862
34914SOL     OW 9426   5.587   2.447   5.761 -0.1902  0.0663  0.4918
34914SOL    HW1 9427   5.512   2.459   5.702 -0.4824  0.0984  0.8673
34914SOL    HW2 9428   5.625   2.363   5.735  0.3555  0.5884 -0.4761
34915SOL     OW 9429   1.932  10.758   9.818 -0.7314  0.1615 -0.2624
34915SOL    HW1 9430   1.913  10.671   9.854  0.1806  0.0547 -0.0260
34915SOL    HW2 9431   1.959  10.810   9.894 -0.2579  0.3566 -0.5635
34916SOL     OW 9432   2.485   5.551   4.855 -0.3138  0.7986  0.1536
34916SOL    HW1 9433   2.472   5.607   4.778 -0.4383  1.1784  0.4477
34916SOL    HW2 9434   2.573   5.572   4.885 -0.2949  0.7081  0.1609
34917SOL     OW 9435   5.589   6.172  11.942 -0.4780 -0.2838 -0.0175
34917SOL    HW1 9436   5.630   6.256  11.923  0.8470 -0.9081 -0.0436
34917SOL    HW2 9437   5.639   6.109  11.890 -0.2103 -1.3257  1.4537
34918SOL     OW 9438   7.419   3.758   3.192  0.0344  0.1209  0.3425
34918SOL    HW1 9439   7.502   3.742   3.238  0.4106 -0.5829 -0.5582
34918SOL    HW2 9440   7.393   3.672   3.158  0.0835  0.7241 -1.2940
34919SOL     OW 9441  11.341   1.874   5.045  0.3373 -0.1661  0.2275
34919SOL    HW1 9442  11.369   1.825   4.968 -1.4409 -0.6993 -0.1329
34919SOL    HW2 9443  11.265   1.826   5.078 -1.2928  2.1370  0.0616
34920SOL     OW 9444   5.806   2.398   8.833  1.1347  0.3851  0.1033
34920SOL    HW1 9445   5.869   2.393   8.905 -0.9002 -1.1345  1.8997
34920SOL    HW2 9446   5.749   2.471   8.857  0.2400 -0.3494  0.2275
34921SOL     OW 9447  11.636   1.112   0.069  0.3291 -0.3372  0.4304
34921SOL    HW1 9448  11.679   1.141  -0.011 -1.2442  1.7310  0.2504
34921SOL    HW2 9449  11.597   1.191   0.106 -0.6400 -1.5650  2.2047
34922SOL     OW 9450  11.500   5.422   8.498 -0.2508 -0.1539 -0.8048
34922SOL    HW1 9451  11.443   5.477   8.551  0.6020  3.4185 -3.2666
34922SOL    HW2 9452  11.587   5.434   8.536 -0.3238 -1.5291 -0.1398
34923SOL     OW 9453   1.491   7.884   3.894  0.5440 -0.3586 -0.4378
34923SOL    HW1 9454   1.549   7.889   3.818  0.9020 -1.2065 -0.2337
34923SOL    HW2 9455   1.534   7.822   3.952 -0.1454 -0.3409  0.0943
34924SOL     OW 9456   7.537   9.692   5.590  0.1990 -0.2782 -0.2343
34924SOL    HW1 9457   7.493   9.649   5.516 -0.2559 -0.0648 -0.0946
34924SOL    HW2 9458   7.499   9.780   5.591  1.7978  0.4566 -1.1006
34925SOL     OW 9459   7.118   5.722   8.832 -0.3066  0.4229  0.3924
34925SOL    HW1 9460   7.129   5.751   8.922 -0.4358  0.3858  0.4201
34925SOL    HW2 9461   7.147   5.797   8.779 -0.5778  0.5764  0.4643
34926SOL     OW 9462   3.454  11.704   5.073 -0.1893  0.0749  0.1774
34926SOL    HW1 9463   3.438  11.780   5.129 -1.5525 -0.6213  0.7600
34926SOL    HW2 9464   3.531  11.729   5.021 -1.0412  2.1314 -0.1785
34927SOL     OW 9465   3.809   5.465  10.011 -0.3268  0.0553  0.1094
34927SOL    HW1 9466   3.763   5.501  10.087 -0.3220 -1.6290  0.9685
34927SOL    HW2 9467   3.743   5.459   9.942 -0.9755 -0.6594  0.7700
34928SOL     OW 9468   1.659   7.632   8.175  0.6372 -0.2633 -0.9179
34928SOL    HW1 9469   1.568   7.656   8.196  0.7610  0.1875 -0.8826
34928SOL    HW2 9470   1.697   7.712   8.140  1.8023  0.3688  1.5471
34929SOL     OW 9471   1.002   6.064   1.087  0.5339  0.2737 -0.0794
34929SOL    HW1 9472   1.078   6.094   1.036  0.2316  2.1353  0.4943
34929SOL    HW2 9473   1.017   5.970   1.099  2.4294  0.4804 -0.5019
34930SOL     OW 9474   2.780  10.298   2.609  0.1130  0.1693  0.0010
34930SOL    HW1 9475   2.700  10.315   2.559  0.7789 -1.0581 -1.6022
34930SOL    HW2 9476   2.751  10.245   2.684 -0.6522  0.2170 -0.2478
34931SOL     OW 9477   3.639   6.752   0.441 -0.1859  0.4192  0.1586
34931SOL    HW1 9478   3.569   6.816   0.437  0.6708  1.4027  0.5486
34931SOL    HW2 9479   3.674   6.747   0.352  0.1000  0.9094  0.2398
34932SOL     OW 9480  10.256   5.900   5.028 -0.1748  0.5733 -0.2039
34932SOL    HW1 9481  10.270   5.980   5.078 -0.0863  1.5012 -1.6735
34932SOL    HW2 9482  10.326   5.900   4.963  0.1647 -1.0020  0.1196
34933SOL     OW 9483   8.351   2.543  11.069  0.1871 -0.1680 -0.6979
34933SOL    HW1 9484   8.445   2.524  11.074  0.1396 -0.6306 -1.3786
34933SOL    HW2 9485   8.315   2.469  11.021 -0.2565  0.8539 -2.0021
34934SOL     OW 9486  10.417   4.794   3.258 -0.8115  0.5198 -0.2323
34934SOL    HW1 9487  10.386   4.847   3.331 -1.4205  0.3832 -0.3781
34934SOL    HW2 9488  10.417   4.853   3.183 -0.7681  0.5065 -0.2431
34935SOL     OW 9489  11.716   8.777  11.226  0.0786 -0.3642 -0.1011
34935SOL    HW1 9490  11.733   8.871  11.229  2.6291 -0.7796  0.5491
34935SOL    HW2 9491  11.763   8.741  11.301  1.5650 -2.4620 -1.9232
34936SOL     OW 9492   3.593   6.919   4.180  0.6313  0.1258  0.0915
34936SOL    HW1 9493   3.631   6.869   4.108 -0.1053  0.3528 -0.4668
34936SOL    HW2 9494   3.662   6.980   4.206  0.8187  0.2119 -0.5921
34937SOL     OW 9495   6.999   7.294   7.410  0.0999  0.8010 -0.2585
34937SOL    HW1 9496   7.041   7.350   7.345 -0.0954  1.5180  0.2272
34937SOL    HW2 9497   7.067   7.276   7.475 -0.1251  1.3417  0.1326
34938SOL     OW 9498   2.921   5.088   4.827 -0.2228  0.4339  0.0184
34938SOL    HW1 9499   2.835   5.047   4.839 -0.3463 -0.0870 -2.2896
34938SOL    HW2 9500   2.983   5.016   4.826  0.0142  0.6400 -0.2592
34939SOL     OW 9501  10.010   9.141   0.403 -0.5822 -0.1631  0.0907
34939SOL    HW1 9502   9.931   9.090   0.384 -1.1008  0.0423  1.5357
34939SOL    HW2 9503  10.079   9.100   0.351 -1.7225 -0.0677 -1.5529
34940SOL     OW 9504   8.147   9.657   9.718 -0.1567 -0.4373  0.1581
34940SOL    HW1 9505   8.067   9.694   9.679 -0.4937 -0.6049  0.6696
34940SOL    HW2 9506   8.134   9.669   9.812  0.7561  0.1894  0.2121
34941SOL     OW 9507   3.575   8.031   4.470 -0.5436  0.3966  0.4871
34941SOL    HW1 9508   3.549   7.991   4.387 -0.2235  2.5855 -0.7386
34941SOL    HW2 9509   3.493   8.037   4.520 -0.4498 -2.5812  1.1563
34942SOL     OW 9510  10.837   5.897   0.577  0.2891  0.2255 -0.7400
34942SOL    HW1 9511  10.747   5.930   0.580  0.6482  1.1719  0.3083
34942SOL    HW2 9512  10.878   5.947   0.506 -0.1967 -0.7861 -1.7781
34943SOL     OW 9513   1.345   4.932   6.882  0.2553 -0.5643 -0.0173
34943SOL    HW1 9514   1.402   4.999   6.844  1.2670 -0.8356  0.9912
34943SOL    HW2 9515   1.308   4.973   6.960 -0.3332 -0.6601 -0.2405
34944SOL     OW 9516   6.166   9.235   4.832 -0.1340 -0.3401 -0.0936
34944SOL    HW1 9517   6.115   9.232   4.751 -1.2882  0.6545  0.5650
34944SOL    HW2 9518   6.193   9.326   4.839  1.3521 -0.7485 -0.1666
34945SOL     OW 9519   8.488   6.579   4.026 -0.3340  0.0108  0.0368
34945SOL    HW1 9520   8.528   6.651   4.075 -2.7796  2.2447 -0.9901
34945SOL    HW2 9521   8.439   6.622   3.956 -0.0939 -2.8350 -2.0665
34946SOL     OW 9522   2.216   0.882   8.506  0.1265 -0.6237  0.5868
34946SOL    HW1 9523   2.232   0.974   8.526  0.0074 -0.8612  1.8812
34946SOL    HW2 9524   2.258   0.868   8.421  0.3905  0.5503  0.5077
34947SOL     OW 9525   6.140   3.670   6.927  0.0909 -0.2439  0.2601
34947SOL    HW1 9526   6.089   3.589   6.924  0.2763 -0.4062  1.2311
34947SOL    HW2 9527   6.134   3.700   7.018 -0.7269  1.3305 -0.2743
34948SOL     OW 9528   1.204  11.977   1.152 -0.3450  0.1563  0.0883
34948SOL    HW1 9529   1.180  11.974   1.059  1.2118 -0.8999 -0.3165
34948SOL    HW2 9530   1.224  12.069   1.169 -2.3713  0.6807 -0.1184
34949SOL     OW 9531   0.519   8.368   6.281 -0.2376  0.2682  0.4675
34949SOL    HW1 9532   0.528   8.297   6.216 -0.2680 -1.6845  2.4705
34949SOL    HW2 9533   0.513   8.447   6.228  2.1335 -0.9360 -1.8595
34950SOL     OW 9534   1.107   4.263  10.511 -0.1227 -0.3140  0.0331
34950SOL    HW1 9535   1.065   4.266  10.597  2.5892 -0.2574  1.4257
34950SOL    HW2 9536   1.136   4.173  10.501  2.4282  0.3561  0.7088
34951SOL     OW 9537   4.188   1.037   4.706 -0.2306  0.5662  0.2191
34951SOL    HW1 9538   4.242   1.059   4.782  0.4007 -0.2055  0.0053
34951SOL    HW2 9539   4.250   1.004   4.641 -1.1099 -2.8692  0.8781
34952SOL     OW 9540   7.823   5.482  11.571 -0.4100 -0.3820  0.6641
34952SOL    HW1 9541   7.758   5.544  11.539  0.5101 -0.4353 -1.4854
34952SOL    HW2 9542   7.790   5.454  11.657 -2.0396  1.2537  0.6228
34953SOL     OW 9543   6.342   0.663   0.995  0.1930 -0.2387 -0.8160
34953SOL    HW1 9544   6.417   0.617   1.032  0.3970  0.5531 -0.2148
34953SOL    HW2 9545   6.346   0.750   1.034 -2.3664 -0.8501  1.0314
34954SOL     OW 9546   3.133   9.558   2.122  0.1049  0.2141 -0.0919
34954SOL    HW1 9547   3.162   9.624   2.059 -1.0518 -0.7325 -1.6966
34954SOL    HW2 9548   3.038   9.554   2.109  0.2131 -2.1689 -0.4923
34955SOL     OW 9549   9.605  10.986   6.281  0.2403 -0.2807 -0.1066
34955SOL    HW1 9550   9.575  11.035   6.204 -1.1379  0.5493  0.9224
34955SOL    HW2 9551   9.611  10.895   6.250 -4.4279 -0.7843 -0.2547
34956SOL     OW 9552   6.884   3.897   1.168  0.0872 -0.0428 -0.1402
34956SOL    HW1 9553   6.840   3.906   1.083  1.7642 -0.5563 -1.1056
34956SOL    HW2 9554   6.865   3.979   1.213  1.9498  1.8000 -2.4172
34957SOL     OW 9555  11.298  11.811   9.487  0.0044 -0.3416 -0.4070
34957SOL    HW1 9556  11.205  11.836   9.486 -0.2093 -1.0432  0.4908
34957SOL    HW2 9557  11.297  11.716   9.498  0.8275 -0.2256  0.8294
34958SOL     OW 9558   5.072  11.613  10.582 -0.2153 -0.2760  0.0423
34958SOL    HW1 9559   5.165  11.616  10.604 -0.7061 -0.7723  2.4547
34958SOL    HW2 9560   5.032  11.679  10.638 -1.1871  1.0632 -2.0879
34959SOL     OW 9561   6.214   0.401   6.021 -0.2705  0.1384 -0.1026
34959SOL    HW1 9562   6.136   0.362   5.980  0.1249  1.8032 -2.6197
34959SOL    HW2 9563   6.225   0.351   6.102 -2.2588 -2.0694 -1.0610
34960SOL     OW 9564  10.444   6.991   0.766 -0.0266  0.4496 -0.4033
34960SOL    HW1 9565  10.442   7.056   0.837  0.8610  0.7188 -0.6120
34960SOL    HW2 9566  10.490   6.916   0.803 -2.3141 -0.7013  0.3235
34961SOL     OW 9567   9.568   3.711   1.727 -0.4077 -0.2290 -0.5619
34961SOL    HW1 9568   9.556   3.804   1.713 -1.0619 -0.2788 -0.3462
34961SOL    HW2 9569   9.576   3.701   1.822  0.2296 -0.3345 -0.6156
34962SOL     OW 9570   4.885   8.380  11.783  0.1450  0.3267 -0.0854
34962SOL    HW1 9571   4.923   8.298  11.753 -0.7208 -0.7673  1.6760
34962SOL    HW2 9572   4.849   8.361  11.869 -2.0587  1.9720 -0.5284
34963SOL     OW 9573   9.671   7.367   4.344 -0.0175 -0.3817 -0.0310
34963SOL    HW1 9574   9.602   7.364   4.278  0.8335 -1.0634 -0.9170
34963SOL    HW2 9575   9.699   7.458   4.345  0.0878 -0.3994 -0.7633
34964SOL     OW 9576   7.328   2.282   9.442 -0.1976  0.1915 -0.2904
34964SOL    HW1 9577   7.399   2.259   9.382 -0.6865 -3.3331  0.2666
34964SOL    HW2 9578   7.251   2.292   9.385  0.0121  0.2518 -0.5628
34965SOL     OW 9579  10.155   3.012   8.902  0.4335  0.6023 -0.1662
34965SOL    HW1 9580  10.121   3.031   8.814  2.3775 -0.4073 -1.1913
34965SOL    HW2 9581  10.079   2.980   8.950 -0.0670 -2.1419 -2.5286
34966SOL     OW 9582   2.197   2.176   9.650 -0.0004 -0.2612  0.5506
34966SOL    HW1 9583   2.233   2.250   9.602  0.6510 -0.2616  1.0242
34966SOL    HW2 9584   2.187   2.208   9.740 -2.2845  0.1117  0.2363
34967SOL     OW 9585   9.722   2.489   2.405  0.1658  0.0831 -0.4483
34967SOL    HW1 9586   9.640   2.505   2.359  0.4215  0.7567 -0.6844
34967SOL    HW2 9587   9.732   2.565   2.463 -0.2301 -0.8187  0.8503
34968SOL     OW 9588   9.192   1.990   0.306 -0.3355  0.2378 -0.2282
34968SOL    HW1 9589   9.129   2.015   0.374  1.2193  0.6057  1.1286
34968SOL    HW2 9590   9.195   1.894   0.310  0.4453  0.2906  0.9188
34969SOL     OW 9591  10.731   6.268   0.610 -0.5236  0.5568 -0.6588
34969SOL    HW1 9592  10.777   6.228   0.683  1.7945 -1.1399 -2.8566
34969SOL    HW2 9593  10.647   6.222   0.606  0.0620 -0.6022 -0.1078
34970SOL     OW 9594   4.707  11.822  10.799  0.2064  0.4593  0.2214
34970SOL    HW1 9595   4.691  11.841  10.891 -0.1906  2.7426 -0.2655
34970SOL    HW2 9596   4.798  11.846  10.784 -0.0824  1.2892 -0.2509
34971SOL     OW 9597   0.914   4.905   4.450 -0.2541  0.2375  0.3864
34971SOL    HW1 9598   0.838   4.958   4.424  1.1752  0.6504 -3.7624
34971SOL    HW2 9599   0.894   4.818   4.417  1.1333  0.4391 -1.0805
34972SOL     OW 9600   0.014   7.669   3.519 -0.2532  0.3741 -0.3892
34972SOL    HW1 9601   0.087   7.685   3.459 -1.1711 -0.0306 -1.6620
34972SOL    HW2 9602  -0.000   7.575   3.515 -1.7826  0.6204 -1.3184
34973SOL     OW 9603  10.111  10.572   4.092  0.2484  0.1021 -0.2146
34973SOL    HW1 9604  10.042  10.638   4.093 -0.8369 -0.8595 -2.5289
34973SOL    HW2 9605  10.113  10.537   4.181 -0.9034  1.4783  0.3856
34974SOL     OW 9606   4.060   1.405   7.314 -0.1615 -0.0056 -0.5482
34974SOL    HW1 9607   3.989   1.358   7.271 -0.3182  0.0983 -0.4037
34974SOL    HW2 9608   4.036   1.406   7.406 -0.3053  0.6131 -0.5900
34975SOL     OW 9609   1.862   2.279   7.920  0.1379 -0.5372 -0.0888
34975SOL    HW1 9610   1.923   2.207   7.933 -0.6481 -1.2192 -0.0689
34975SOL    HW2 9611   1.853   2.320   8.006  0.3037 -0.6475 -0.0200
34976SOL     OW 9612   0.863   1.663   3.819  0.5614  0.8568  0.6032
34976SOL    HW1 9613   0.867   1.729   3.750 -0.8838 -0.0591 -0.4118
34976SOL    HW2 9614   0.897   1.584   3.778 -1.0921  0.0920  0.6498
34977SOL     OW 9615   0.092   3.028   5.892  0.3088 -0.0336 -0.6045
34977SOL    HW1 9616   0.106   3.122   5.882  1.2440 -0.1807 -0.7764
34977SOL    HW2 9617   0.115   3.011   5.984 -1.1954  0.1191 -0.1749
34978SOL     OW 9618   1.032  10.289   7.173  0.3476  0.6477  0.8436
34978SOL    HW1 9619   0.996  10.255   7.091  0.3643 -1.3768  1.6151
34978SOL    HW2 9620   1.097  10.224   7.199  1.1814  1.8486  1.8942
34979SOL     OW 9621   1.056  10.410  10.199 -0.0905 -0.6212  0.1771
34979SOL    HW1 9622   1.031  10.336  10.254  1.0418 -0.1890  1.2998
34979SOL    HW2 9623   1.151  10.407  10.196 -0.1007 -0.6790 -1.8658
34980SOL     OW 9624   4.906   0.844  10.757 -0.1883  0.1483  0.3636
34980SOL    HW1 9625   4.882   0.926  10.715 -2.3390 -1.4308 -1.7805
34980SOL    HW2 9626   5.000   0.836  10.744 -0.4323  0.7872 -2.3810
34981SOL     OW 9627   7.356   1.010  11.681 -0.0050  0.1932  0.3129
34981SOL    HW1 9628   7.448   1.026  11.658 -0.4117  2.4576  0.0459
34981SOL    HW2 9629   7.314   0.989  11.597  0.1303 -0.2045  0.3404
34982SOL     OW 9630   1.420  10.076  10.920 -0.4374 -0.1747 -0.3451
34982SOL    HW1 9631   1.359  10.018  10.966 -0.5912  0.2097 -0.0588
34982SOL    HW2 9632   1.460  10.020  10.853 -2.5494  0.0425 -1.8833
34983SOL     OW 9633   1.381   2.326   1.999 -0.7990 -0.9254  0.2788
34983SOL    HW1 9634   1.297   2.341   1.954 -1.6292 -0.1419  1.9819
34983SOL    HW2 9635   1.425   2.411   1.996 -2.0381 -0.0314  3.0940
34984SOL     OW 9636   0.648   9.605   8.665  0.3804  0.2436  0.3137
34984SOL    HW1 9637   0.620   9.515   8.647  1.9095  0.0358 -1.4217
34984SOL    HW2 9638   0.572   9.659   8.644 -1.3357 -0.6948  3.5489
34985SOL     OW 9639   3.251   0.511   2.788  0.3609  0.4743 -0.7774
34985SOL    HW1 9640   3.242   0.510   2.693  0.6442 -0.3697 -0.8051
34985SOL    HW2 9641   3.163   0.531   2.820  0.1877  0.4117 -1.2081
34986SOL     OW 9642   6.749   0.734   3.531 -0.2637 -0.4466 -0.2788
34986SOL    HW1 9643   6.841   0.750   3.553 -0.0676 -1.3156 -0.4461
34986SOL    HW2 9644   6.718   0.817   3.493  0.1713  0.1704  0.6812
34987SOL     OW 9645   5.454   4.657   3.337 -0.1870 -0.0093  0.3783
34987SOL    HW1 9646   5.465   4.696   3.424 -1.0825  1.7759 -0.2599
34987SOL    HW2 9647   5.366   4.620   3.338  0.4845 -1.6810  0.8178
34988SOL     OW 9648  10.084   2.134   3.153  0.2441  0.4578  0.2227
34988SOL    HW1 9649  10.147   2.084   3.101  0.7723 -0.4953  1.7132
34988SOL    HW2 9650   9.999   2.098   3.129  0.5005 -0.1433  0.1973
34989SOL     OW 9651  11.490   6.939   1.724 -0.1144  0.2735  0.1068
34989SOL    HW1 9652  11.469   6.905   1.811 -1.0190 -0.2212 -0.2923
34989SOL    HW2 9653  11.571   6.894   1.698  0.9897  1.4994  1.2790
34990SOL     OW 9654   2.613   0.921   8.119  0.1408  0.1368 -0.2261
34990SOL    HW1 9655   2.541   0.983   8.109  0.4078  0.4024 -0.5202
34990SOL    HW2 9656   2.608   0.866   8.041 -0.4371 -0.5796  0.2978
34991SOL     OW 9657   8.145   1.051   4.030 -0.6228  0.2090 -0.5422
34991SOL    HW1 9658   8.186   0.976   3.988 -1.6612 -0.6477 -0.0494
34991SOL    HW2 9659   8.219   1.101   4.065  0.1305 -0.0955 -1.6443
34992SOL     OW 9660   8.742   9.122   0.035  0.3029 -0.2370 -0.5027
34992SOL    HW1 9661   8.663   9.075   0.061  1.0094 -0.7622  0.7877
34992SOL    HW2 9662   8.710   9.203  -0.006 -0.9385 -1.6412 -2.5153
34993SOL     OW 9663   3.984   6.020   4.296  0.4372 -0.4694 -0.1291
34993SOL    HW1 9664   4.055   6.061   4.345  0.3029 -1.7956  1.2534
34993SOL    HW2 9665   4.009   5.928   4.291 -0.7949 -0.8123 -0.3129
34994SOL     OW 9666   7.490  11.689   1.899 -0.2157  0.1806  0.0640
34994SOL    HW1 9667   7.573  11.641   1.905  0.0355  0.7042  0.9604
34994SOL    HW2 9668   7.442  11.644   1.829  1.2822  0.6012 -1.3050
34995SOL     OW 9669   5.456   9.696   8.982 -0.4370  0.6913  0.4468
34995SOL    HW1 9670   5.437   9.787   9.005 -1.7681  0.1198  1.7952
34995SOL    HW2 9671   5.370   9.655   8.973  0.1240 -0.7494  1.2929
34996SOL     OW 9672   2.413   1.925  11.298  0.7100 -0.5702 -0.2258
34996SOL    HW1 9673   2.449   2.013  11.290  2.2530 -1.2837 -1.8095
34996SOL    HW2 9674   2.318   1.937  11.295  0.7883  1.2002  1.9133
34997SOL     OW 9675   6.442   0.536   3.310 -0.0244  0.7194  0.2668
34997SOL    HW1 9676   6.401   0.584   3.238  1.2133  2.0796  0.4357
34997SOL    HW2 9677   6.408   0.577   3.389 -0.9876 -0.4445  0.4968
34998SOL     OW 9678   7.114  11.738   3.151  0.1160 -0.4972  0.2907
34998SOL    HW1 9679   7.046  11.714   3.088  0.6272 -1.1406 -0.0277
34998SOL    HW2 9680   7.068  11.785   3.220 -0.5223 -0.1608 -0.3484
34999SOL     OW 9681   0.410   6.751   0.988 -0.2517  0.8197  0.2592
34999SOL    HW1 9682   0.363   6.711   1.060 -2.4036  0.8955 -1.0098
34999SOL    HW2 9683   0.424   6.680   0.926  0.5627  0.9859  0.2364
35000SOL     OW 9684   3.406   5.442   7.240  0.2757 -0.1077  0.3717
35000SOL    HW1 9685   3.311   5.426   7.244  0.4535 -2.0405 -1.3309
35000SOL    HW2 9686   3.440   5.367   7.192  2.6882  0.6098  0.8523
35001SOL     OW 9687  11.579   4.159   6.946  0.3654 -0.1459  0.1622
35001SOL    HW1 9688  11.529   4.165   7.028  0.0479  1.6569 -0.1240
35001SOL    HW2 9689  11.583   4.249   6.914  3.3432 -0.3042 -0.1256
35002SOL     OW 9690   8.409  10.934   2.163  0.0333  0.5428  0.2163
35002SOL    HW1 9691   8.331  10.879   2.155  1.0370 -0.9069  0.1450
35002SOL    HW2 9692   8.389  11.010   2.108 -0.7986 -0.4324 -0.9025
35003SOL     OW 9693   1.911   5.160   8.052 -0.5340 -0.2918 -0.3525
35003SOL    HW1 9694   1.877   5.154   7.962 -1.3040  1.3208 -0.2066
35003SOL    HW2 9695   1.842   5.205   8.100  1.5158  2.6223  0.0946
35004SOL     OW 9696  11.276   3.414   5.797  0.2100  0.4748 -0.0012
35004SOL    HW1 9697  11.182   3.431   5.807 -0.5068 -2.8964  0.1381
35004SOL    HW2 9698  11.311   3.423   5.886 -0.5042 -0.6008  0.4204
35005SOL     OW 9699   2.200  10.127   3.357 -0.3418 -0.4489  0.0505
35005SOL    HW1 9700   2.219  10.061   3.289  0.8717 -1.0648  0.9565
35005SOL    HW2 9701   2.187  10.208   3.308 -1.2188 -1.2082 -1.0444
35006SOL     OW 9702   3.845   4.592   8.055 -0.0451  0.1820  0.4576
35006SOL    HW1 9703   3.936   4.620   8.054  0.1552 -0.4432 -1.2797
35006SOL    HW2 9704   3.802   4.647   7.989 -0.6648 -0.3282  0.4274
35007SOL     OW 9705  11.973   6.551   2.880 -0.1057 -0.6897  0.0709
35007SOL    HW1 9706  12.011   6.527   2.795 -1.9469  1.9148 -1.6412
35007SOL    HW2 9707  11.881   6.528   2.872 -0.4904  0.4256  0.9953
35008SOL     OW 9708   4.457   3.006   2.351 -0.0334  0.6052  0.3828
35008SOL    HW1 9709   4.376   2.982   2.305  0.7373 -1.1130 -0.1403
35008SOL    HW2 9710   4.496   3.074   2.297 -0.3132  0.2831 -0.2291
35009SOL     OW 9711   0.185   8.413  11.354 -0.7519  0.1686  0.0052
35009SOL    HW1 9712   0.250   8.347  11.331 -0.2221  0.5407  0.4080
35009SOL    HW2 9713   0.195   8.481  11.287  0.1940  0.8429  0.7946
35010SOL     OW 9714   3.917   2.328  11.084  0.2156 -0.1805 -0.1677
35010SOL    HW1 9715   3.927   2.314  11.178 -1.5601  0.0251  0.0800
35010SOL    HW2 9716   3.837   2.281  11.060 -0.7293  1.7579 -1.0743
35011SOL     OW 9717   8.655   3.190   1.151  0.0927 -0.2222 -0.2957
35011SOL    HW1 9718   8.691   3.106   1.181 -0.0738 -0.0242  0.4677
35011SOL    HW2 9719   8.560   3.177   1.154  0.0493  0.2242  0.5188
35012SOL     OW 9720   8.953   3.897   4.237 -0.1913 -0.2271 -0.3517
35012SOL    HW1 9721   9.026   3.837   4.253 -0.3779 -0.8751 -1.7733
35012SOL    HW2 9722   8.931   3.931   4.323  1.4338 -0.4271  0.1759
35013SOL     OW 9723   2.489   9.630   8.243 -0.0936 -0.5479  0.0042
35013SOL    HW1 9724   2.403   9.635   8.284 -0.4757 -1.0540 -0.7212
35013SOL    HW2 9725   2.473   9.587   8.159  0.5989  0.8691 -0.8847
35014SOL     OW 9726   1.478   2.836   6.918  0.8810 -0.2156  0.4371
35014SOL    HW1 9727   1.538   2.863   6.849  1.2151 -0.4680  0.6226
35014SOL    HW2 9728   1.466   2.743   6.904 -1.1503  0.2027 -0.8760
35015SOL     OW 9729   7.781  11.866   8.971 -0.4911  0.3506 -0.2265
35015SOL    HW1 9730   7.760  11.950   8.931  0.8800  0.8635  0.0973
35015SOL    HW2 9731   7.744  11.871   9.059 -0.6971  0.4788 -0.3193
35016SOL     OW 9732   9.727   7.687   8.809 -0.0125  0.1705  0.1864
35016SOL    HW1 9733   9.654   7.746   8.827  1.6215  1.9758  1.3564
35016SOL    HW2 9734   9.707   7.650   8.723 -2.5939  0.0507  0.7593
35017SOL     OW 9735   7.945  11.589  11.112 -0.0404  0.2929  0.4268
35017SOL    HW1 9736   7.895  11.555  11.039 -1.8983  3.0719  0.2541
35017SOL    HW2 9737   8.034  11.598  11.078 -0.3522 -0.6678 -0.6933
35018SOL     OW 9738   6.132   9.686  11.024  0.0191  0.0113 -0.3578
35018SOL    HW1 9739   6.178   9.768  11.007  0.1482 -0.4430 -2.4325
35018SOL    HW2 9740   6.127   9.681  11.120  0.7657  1.9966 -0.1677
35019SOL     OW 9741   8.677   4.862   3.307  0.5728 -0.4024  0.2302
35019SOL    HW1 9742   8.619   4.907   3.245  2.5841  1.4586 -0.4615
35019SOL    HW2 9743   8.640   4.882   3.393 -0.3310 -0.0542 -0.2195
35020SOL     OW 9744   9.774   5.407   5.488  0.4363  0.3247 -0.4124
35020SOL    HW1 9745   9.832   5.331   5.490  1.0464  0.7901  0.7280
35020SOL    HW2 9746   9.686   5.369   5.484  0.7658 -0.4097 -0.9822
35021SOL     OW 9747  10.007   1.389   6.130  0.4261 -0.1982  0.3140
35021SOL    HW1 9748  10.037   1.480   6.138  0.2970  0.1567 -2.3369
35021SOL    HW2 9749   9.930   1.394   6.074  1.1231 -2.0466 -0.9044
35022SOL     OW 9750   6.657   1.257  11.550  0.0347  0.2776 -0.4362
35022SOL    HW1 9751   6.657   1.195  11.623  0.0836  0.2295 -0.4767
35022SOL    HW2 9752   6.590   1.223  11.490 -0.2362  0.4995 -0.2599
35023SOL     OW 9753   2.581   5.811   1.175 -0.5312 -0.0132 -0.6321
35023SOL    HW1 9754   2.661   5.781   1.218 -0.5955  0.2723 -0.3170
35023SOL    HW2 9755   2.594   5.905   1.164 -0.3624 -0.1332 -1.5497
35024SOL     OW 9756   4.128  11.639   3.629 -0.2300 -0.3860  0.0165
35024SOL    HW1 9757   4.120  11.562   3.572 -0.6529 -0.1106 -0.2960
35024SOL    HW2 9758   4.038  11.668   3.643 -0.0603  0.1568 -0.0044
35025SOL     OW 9759   2.327   7.272   5.106 -0.5329 -0.1889 -0.8041
35025SOL    HW1 9760   2.241   7.301   5.137 -0.6350 -0.1832 -1.0906
35025SOL    HW2 9761   2.319   7.177   5.098  0.2199 -0.5108  1.4652
35026SOL     OW 9762   1.509   5.245  11.877  0.3702  0.6194 -0.2660
35026SOL    HW1 9763   1.454   5.317  11.907  0.1761  0.7670 -0.9787
35026SOL    HW2 9764   1.594   5.261  11.920  0.7084  1.9658 -1.3732
35027SOL     OW 9765   8.119   7.033   1.217  0.4175  0.3091 -0.5897
35027SOL    HW1 9766   8.061   7.002   1.286 -0.0356 -0.7992 -1.4240
35027SOL    HW2 9767   8.089   6.987   1.138  0.5079  2.0105 -1.6638
35028SOL     OW 9768  10.387   8.277   0.953  0.5071 -0.5646 -0.4906
35028SOL    HW1 9769  10.420   8.340   0.888 -0.6129  0.3195 -0.2412
35028SOL    HW2 9770  10.304   8.246   0.916  0.7566 -1.4468 -0.3236
35029SOL     OW 9771   7.627   4.116   3.314 -0.1784  0.2939  0.1311
35029SOL    HW1 9772   7.687   4.142   3.245  0.5851 -1.1315  0.1993
35029SOL    HW2 9773   7.682   4.064   3.374 -0.9895  0.8495  1.3874
35030SOL     OW 9774   3.466   9.578  10.950  0.1892 -0.9059  0.2059
35030SOL    HW1 9775   3.403   9.648  10.930  2.0897  0.8533  0.0697
35030SOL    HW2 9776   3.411   9.501  10.965 -2.0345  0.6268  0.5614
35031SOL     OW 9777  10.078   6.056   3.229  0.4397 -0.5777  0.0060
35031SOL    HW1 9778  10.022   6.057   3.306 -1.0025 -2.0866 -0.9463
35031SOL    HW2 9779  10.149   5.996   3.252  1.4284  0.9147  1.0173
35032SOL     OW 9780   8.435  11.747   1.489 -0.0621  0.1500 -0.3920
35032SOL    HW1 9781   8.458  11.819   1.548 -0.8844  0.4211 -0.3870
35032SOL    HW2 9782   8.518  11.703   1.471  0.1923 -0.0235  1.0653
35033SOL     OW 9783   3.265   9.983   6.146  0.4457  0.4969  0.6633
35033SOL    HW1 9784   3.222   9.906   6.107 -0.9682 -0.1394  3.2625
35033SOL    HW2 9785   3.201  10.053   6.136  1.1836  1.0448 -0.4760
35034SOL     OW 9786  11.660   0.777   3.899  0.6452  0.4909  0.1998
35034SOL    HW1 9787  11.692   0.734   3.820 -0.0225  0.4905 -0.0764
35034SOL    HW2 9788  11.647   0.869   3.873 -0.5963  0.2811 -0.0149
35035SOL     OW 9789   9.591   8.340   2.836  0.6620  0.3075  0.8340
35035SOL    HW1 9790   9.657   8.370   2.773 -1.3446 -0.3384 -1.7902
35035SOL    HW2 9791   9.606   8.246   2.843 -1.0371 -0.2201 -1.3487
35036SOL     OW 9792   6.621   2.881   4.803  0.2947  0.2036  0.1433
35036SOL    HW1 9793   6.704   2.929   4.811  0.4231 -0.1325  0.9710
35036SOL    HW2 9794   6.613   2.835   4.887  0.7252 -2.0817 -0.9901
35037SOL     OW 9795   2.393   7.991   9.014 -0.0137  0.1582 -0.0617
35037SOL    HW1 9796   2.449   8.006   8.938 -1.2537  1.4575 -0.7748
35037SOL    HW2 9797   2.315   8.044   8.997 -0.8263 -0.4387  1.5814
35038SOL     OW 9798   3.125  10.340   0.746  0.2997 -0.1389 -0.4577
35038SOL    HW1 9799   3.082  10.426   0.742  0.8249  0.1138 -0.7747
35038SOL    HW2 9800   3.204  10.356   0.797  1.1433 -0.1054 -1.7282
35039SOL     OW 9801   3.819   9.461   6.095  0.3520 -0.2222  0.6316
35039SOL    HW1 9802   3.763   9.464   6.172 -1.3346 -0.0577 -0.5485
35039SOL    HW2 9803   3.759   9.451   6.021  1.8199  0.7239 -0.7777
35040SOL     OW 9804   3.159   4.307   3.131  0.2970  0.0504  0.2563
35040SOL    HW1 9805   3.093   4.251   3.091 -0.6196  2.1303 -1.3206
35040SOL    HW2 9806   3.239   4.288   3.083 -0.3757  1.1515 -1.4186
35041SOL     OW 9807   7.904   8.334  11.613 -0.0096 -0.3204 -0.3762
35041SOL    HW1 9808   7.966   8.263  11.632 -0.8980 -1.5237 -1.7552
35041SOL    HW2 9809   7.822   8.306  11.653 -0.7358 -0.8070 -2.0870
35042SOL     OW 9810   9.620   4.562   6.950 -0.2660 -0.8119 -0.4617
35042SOL    HW1 9811   9.701   4.601   6.918  0.0190  0.0510  1.2023
35042SOL    HW2 9812   9.584   4.515   6.874  0.9733  0.0941 -1.6557
35043SOL     OW 9813   2.732  11.253   0.433 -0.3752 -0.0330 -0.2197
35043SOL    HW1 9814   2.805  11.193   0.450 -0.9272 -0.4245  0.8692
35043SOL    HW2 9815   2.748  11.326   0.493 -1.5375 -0.7159  0.9778
35044SOL     OW 9816   1.628   8.878   5.286  0.5773 -0.7799  0.0570
35044SOL    HW1 9817   1.682   8.957   5.276  0.4086 -0.7701 -0.8128
35044SOL    HW2 9818   1.543   8.902   5.249  0.6536 -1.4956 -0.6034
35045SOL     OW 9819   5.579   1.472   9.510 -0.1914 -0.1127 -0.5299
35045SOL    HW1 9820   5.632   1.424   9.446 -1.2055 -0.0079 -1.4792
35045SOL    HW2 9821   5.492   1.433   9.503 -0.2251 -0.3840  1.1160
35046SOL     OW 9822   1.507   5.808   3.168  0.2269  0.2144 -0.3486
35046SOL    HW1 9823   1.452   5.746   3.120 -0.7180  1.1522 -0.5144
35046SOL    HW2 9824   1.446   5.851   3.229  0.9098  0.8113 -0.0798
35047SOL     OW 9825   8.873   3.417   6.903  0.2981 -0.3047  0.4070
35047SOL    HW1 9826   8.889   3.323   6.909 -0.3719 -0.4093  0.6232
35047SOL    HW2 9827   8.940   3.457   6.959  0.3682 -0.6746  0.5851
35048SOL     OW 9828   3.134   6.020   5.454 -0.0865 -0.6070  0.0092
35048SOL    HW1 9829   3.229   6.022   5.465  0.0164  1.2847 -0.9568
35048SOL    HW2 9830   3.109   6.111   5.438 -2.0783 -1.0606  0.2416
35049SOL     OW 9831   9.345   0.194  11.149  0.0609  0.0136  0.4867
35049SOL    HW1 9832   9.421   0.205  11.092 -0.8327  0.0139 -0.7412
35049SOL    HW2 9833   9.348   0.270  11.207 -0.2059  1.2111 -1.0053
35050SOL     OW 9834   2.195  11.636   3.512  0.0814  0.3482  0.3660
35050SOL    HW1 9835   2.100  11.645   3.511  0.0744  0.3137  0.6556
35050SOL    HW2 9836   2.212  11.549   3.475  0.0433  0.6842 -0.4628
35051SOL     OW 9837   8.742   7.079   5.583 -0.4195 -0.0311  0.5813
35051SOL    HW1 9838   8.814   7.069   5.646  1.3223 -0.1672 -1.3323
35051SOL    HW2 9839   8.748   7.170   5.555 -2.1466  0.4588  1.6388
35052SOL     OW 9840   8.186  10.676   8.009 -0.3263  0.1446 -0.4031
35052SOL    HW1 9841   8.118  10.618   8.044  1.1580 -0.4644  1.7061
35052SOL    HW2 9842   8.145  10.762   8.005 -1.7331 -0.5312 -0.8916
35053SOL     OW 9843   1.387  11.705   2.768 -0.2118  0.2377 -0.2219
35053SOL    HW1 9844   1.370  11.613   2.787 -1.4268  0.2028 -1.3477
35053SOL    HW2 9845   1.317  11.731   2.708  1.9695  0.9668 -2.6634
35054SOL     OW 9846   1.632   4.835   2.009  0.0600  0.0421 -0.1505
35054SOL    HW1 9847   1.559   4.845   2.070 -0.9240 -1.1670 -1.0717
35054SOL    HW2 9848   1.591   4.831   1.923  1.3322  0.6163 -0.8081
35055SOL     OW 9849   2.584   8.963   6.242  0.4155  0.3777  0.0983
35055SOL    HW1 9850   2.588   9.003   6.155 -2.5190 -0.3873 -0.5086
35055SOL    HW2 9851   2.572   9.036   6.302  2.4634  0.9103 -0.0825
35056SOL     OW 9852   7.858  11.532   7.135  0.4294  0.5166  0.3853
35056SOL    HW1 9853   7.941  11.553   7.092 -0.0710  0.8731 -0.4237
35056SOL    HW2 9854   7.791  11.573   7.080 -0.2885  0.2264  1.0235
35057SOL     OW 9855   5.294   0.591  10.628  0.1180  0.0988 -0.3012
35057SOL    HW1 9856   5.221   0.529  10.623  0.6039 -0.4359 -0.8986
35057SOL    HW2 9857   5.328   0.594  10.538  0.9942  0.1504  0.0293
35058SOL     OW 9858   3.334   0.293   1.730 -0.3615 -0.1710 -0.2889
35058SOL    HW1 9859   3.276   0.244   1.671 -1.3998  0.9769 -0.2749
35058SOL    HW2 9860   3.295   0.281   1.817 -0.3110  0.2096 -0.2097
35059SOL     OW 9861  11.532   2.546   6.269  0.2212 -0.1246  0.3588
35059SOL    HW1 9862  11.600   2.510   6.212 -0.6568  0.0050 -0.8058
35059SOL    HW2 9863  11.485   2.608   6.214 -1.8802 -1.4069  0.6145
35060SOL     OW 9864   4.407   6.394   9.576 -0.0754  0.3028 -0.1945
35060SOL    HW1 9865   4.369   6.443   9.649 -1.4041  1.0503 -1.3452
35060SOL    HW2 9866   4.472   6.337   9.617 -1.3023  0.1612  1.6574
35061SOL     OW 9867   5.513   0.034   6.137  0.1117  0.3101  0.3145
35061SOL    HW1 9868   5.550  -0.006   6.215  0.9860  0.2011 -0.1344
35061SOL    HW2 9869   5.589   0.055   6.083 -0.5133 -0.5578 -0.9560
35062SOL     OW 9870   9.580  10.354   8.514  0.1636 -0.1001 -0.2762
35062SOL    HW1 9871   9.598  10.427   8.454 -0.4651  1.8159  1.7045
35062SOL    HW2 9872   9.508  10.306   8.473 -1.3112  2.0717 -0.4247
35063SOL     OW 9873   8.230   7.143   3.013 -0.5489  0.0466 -0.4371
35063SOL    HW1 9874   8.264   7.146   2.923  1.6663  0.4098  0.3419
35063SOL    HW2 9875   8.286   7.203   3.061 -1.5926 -0.2681  1.2285
35064SOL     OW 9876   3.172   4.321   9.464  0.7130  0.0822 -0.2432
35064SOL    HW1 9877   3.131   4.335   9.549 -3.2183  0.4318 -1.9926
35064SOL    HW2 9878   3.190   4.409   9.431 -0.4787  0.1001 -0.9001
35065SOL     OW 9879   6.349  11.715  11.685 -0.3599  0.3826  0.1554
35065SOL    HW1 9880   6.340  11.765  11.604  0.6741  1.1636  0.5025
35065SOL    HW2 9881   6.317  11.774  11.753 -4.0666 -1.3032  0.0932
35066SOL     OW 9882   6.494   4.757  10.006  0.0520 -0.1111 -0.0050
35066SOL    HW1 9883   6.580   4.782  10.041 -1.1139  3.6322  0.6291
35066SOL    HW2 9884   6.502   4.773   9.912  0.5858 -1.7239 -0.2601
35067SOL     OW 9885   9.371  11.098   4.933 -0.4037 -0.1082 -0.0752
35067SOL    HW1 9886   9.293  11.148   4.956 -1.0697 -0.7614 -0.8180
35067SOL    HW2 9887   9.442  11.162   4.931 -0.6682  0.3007  1.7825
35068SOL     OW 9888   5.498   4.965   9.183  0.4643 -0.0018 -0.1678
35068SOL    HW1 9889   5.413   4.984   9.224  0.5056 -0.9305  0.3738
35068SOL    HW2 9890   5.533   4.891   9.233  1.3773  0.0558 -0.6972
35069SOL     OW 9891   0.297   0.768   1.738  0.6204  0.5344  0.2309
35069SOL    HW1 9892   0.362   0.807   1.680  0.9527  1.1939  1.0174
35069SOL    HW2 9893   0.232   0.837   1.751 -1.1486 -0.6234 -1.8222
35070SOL     OW 9894   2.499   4.448   8.791  0.0628  0.0587 -0.1129
35070SOL    HW1 9895   2.503   4.491   8.705  1.3456  0.0551 -0.0687
35070SOL    HW2 9896   2.418   4.397   8.788  0.3076 -0.2932 -1.5040
35071SOL     OW 9897   4.209   2.316   5.548  0.3243  0.2463  0.4609
35071SOL    HW1 9898   4.116   2.335   5.534  0.2091  1.2397  2.3256
35071SOL    HW2 9899   4.250   2.402   5.556  0.7145 -0.1191  3.6093
35072SOL     OW 9900   0.490   3.780   0.717 -0.3988 -0.5271 -0.0612
35072SOL    HW1 9901   0.487   3.875   0.730  0.7298 -0.3019 -1.2460
35072SOL    HW2 9902   0.421   3.762   0.654 -0.6548 -0.5105  0.2116
35073SOL     OW 9903   4.183   9.147   4.116 -0.1164  0.2051 -0.2335
35073SOL    HW1 9904   4.270   9.121   4.146 -0.0198  0.2803 -0.4496
35073SOL    HW2 9905   4.180   9.242   4.129 -0.0576  0.2443 -0.5050
35074SOL     OW 9906   3.019   1.206   7.443 -0.2777  0.5538 -0.1813
35074SOL    HW1 9907   2.989   1.259   7.370  1.0309  0.6006 -0.7217
35074SOL    HW2 9908   2.946   1.147   7.461 -1.3029  1.7166 -0.3440
35075SOL     OW 9909   0.065   7.667  10.616 -0.0186  0.3026  0.5834
35075SOL    HW1 9910   0.022   7.753  10.619  0.4470  0.5290  1.1775
35075SOL    HW2 9911   0.109   7.660  10.701  1.7532  0.4184 -0.2751
35076SOL     OW 9912  10.350   7.981   1.955 -0.2282 -0.5239  0.1915
35076SOL    HW1 9913  10.400   8.060   1.974 -0.7072 -0.2418  0.2978
35076SOL    HW2 9914  10.297   7.966   2.033 -0.5710 -0.6132 -0.0537
35077SOL     OW 9915   2.974   9.248   7.617  0.4945 -0.5970  0.1650
35077SOL    HW1 9916   3.059   9.220   7.649  0.3522  0.4863  1.5772
35077SOL    HW2 9917   2.975   9.343   7.625 -0.4974 -0.4848 -0.7385
35078SOL     OW 9918   9.368   9.774   0.345  0.4969  0.1230  0.4905
35078SOL    HW1 9919   9.355   9.858   0.388  0.5648 -0.1099  0.9787
35078SOL    HW2 9920   9.315   9.712   0.396  0.5993 -0.1652  0.2526
35079SOL     OW 9921   6.246   8.683   2.556 -0.3403 -0.0746  0.0298
35079SOL    HW1 9922   6.173   8.744   2.564 -2.1891 -2.2798  0.8234
35079SOL    HW2 9923   6.224   8.628   2.482  0.5019 -0.8125  0.3033
35080SOL     OW 9924  10.195   9.099   4.273  0.4157 -0.1689  0.5234
35080SOL    HW1 9925  10.117   9.098   4.329  0.7089 -1.8075  0.9528
35080SOL    HW2 9926  10.162   9.127   4.187 -0.4541  0.1587  0.9453
35081SOL     OW 9927   5.178   4.618   4.992  0.3073 -0.0882 -0.3675
35081SOL    HW1 9928   5.164   4.524   4.979  1.6648 -0.6209  1.4853
35081SOL    HW2 9929   5.226   4.646   4.914  1.4700 -1.3753 -0.1562
35082SOL     OW 9930   8.300   1.306   2.671  0.1235 -0.1436 -0.2439
35082SOL    HW1 9931   8.292   1.392   2.628  2.6984  0.0961 -0.4234
35082SOL    HW2 9932   8.383   1.311   2.718  0.0623 -2.3714  0.1862
35083SOL     OW 9933   2.785   2.854   7.744 -0.2148  0.4105  0.2816
35083SOL    HW1 9934   2.815   2.811   7.824 -0.3905 -1.4530 -0.5951
35083SOL    HW2 9935   2.809   2.793   7.674 -1.5364  1.2200 -0.9244
35084SOL     OW 9936   0.251   5.640   0.454 -0.0679  0.0076  0.1287
35084SOL    HW1 9937   0.207   5.608   0.533 -1.3777 -0.2326 -0.6661
35084SOL    HW2 9938   0.340   5.606   0.461 -0.2532 -0.2780  1.3466
35085SOL     OW 9939   7.340   0.215   1.172 -0.1636 -0.0828  0.0943
35085SOL    HW1 9940   7.330   0.267   1.252  2.2775  0.5323  0.0911
35085SOL    HW2 9941   7.337   0.124   1.201 -1.8503  0.0695  0.4835
35086SOL     OW 9942   8.325   8.494   4.038  0.3663 -0.0897 -0.3011
35086SOL    HW1 9943   8.346   8.526   3.950  1.6500  0.5132  0.2131
35086SOL    HW2 9944   8.266   8.559   4.074  1.1742  0.5476 -0.1042
35087SOL     OW 9945   8.366  10.422  10.538  0.3127 -0.0108  0.1295
35087SOL    HW1 9946   8.421  10.501  10.534  0.1741  0.0393 -0.9080
35087SOL    HW2 9947   8.328  10.425  10.626 -1.1868  2.1268 -0.4880
35088SOL     OW 9948  10.825   8.778   1.087 -0.0422  0.7178  0.4398
35088SOL    HW1 9949  10.824   8.791   1.182  0.6513  0.3592  0.5018
35088SOL    HW2 9950  10.733   8.783   1.061 -0.2431  0.7310  1.1421
35089SOL     OW 9951   3.984  10.179  10.748  0.8651  0.4258 -0.2755
35089SOL    HW1 9952   3.895  10.154  10.775  0.6397  2.8508  1.5484
35089SOL    HW2 9953   3.970  10.245  10.680  1.3419 -0.4041 -1.2000
35090SOL     OW 9954   2.165   3.841   3.778  0.3207 -0.1642  0.2989
35090SOL    HW1 9955   2.109   3.802   3.711  1.2819 -0.6787 -0.2272
35090SOL    HW2 9956   2.159   3.781   3.852  0.1701 -0.2149  0.2460
35091SOL     OW 9957   7.248  10.267  11.817  0.1867  0.1706  0.5083
35091SOL    HW1 9958   7.210  10.206  11.880  2.0028  0.0184  1.5207
35091SOL    HW2 9959   7.173  10.316  11.782 -1.1387 -1.5309  0.8338
35092SOL     OW 9960   9.136   7.803   4.936 -0.7612  0.5700  0.5161
35092SOL    HW1 9961   9.155   7.740   5.005 -0.7010 -0.6546 -0.5835
35092SOL    HW2 9962   9.115   7.750   4.860  3.1455  1.7321 -1.6352
35093SOL     OW 9963   9.067   6.429  11.269  0.3833  0.1595  0.2296
35093SOL    HW1 9964   9.105   6.362  11.212 -0.4340 -0.5253  0.4720
35093SOL    HW2 9965   8.996   6.467  11.218  1.0589  1.1007 -0.0372
35094SOL     OW 9966   0.825   5.621   4.602  0.7042  0.0893 -0.6368
35094SOL    HW1 9967   0.795   5.588   4.687  2.3378  0.1366 -0.0120
35094SOL    HW2 9968   0.811   5.716   4.606  2.6893  0.3768  0.4327
35095SOL     OW 9969  10.244  10.711   1.935  0.6289  0.2643  0.5564
35095SOL    HW1 9970  10.307  10.652   1.893 -0.5622 -0.2280 -0.6191
35095SOL    HW2 9971  10.174  10.653   1.965  0.4461  0.8661  1.3436
35096SOL     OW 9972   4.709   5.935   3.206  0.3993 -0.1522 -0.0427
35096SOL    HW1 9973   4.690   5.961   3.296 -1.1808  1.3361 -0.7574
35096SOL    HW2 9974   4.718   6.017   3.158  1.0627 -0.9140 -1.2985
35097SOL     OW 9975   8.912   0.329   4.118 -0.3972  0.3788  0.2794
35097SOL    HW1 9976   8.835   0.285   4.151  0.1687 -2.7313 -2.0745
35097SOL    HW2 9977   8.881   0.378   4.041 -0.4242  1.3566  0.8907
35098SOL     OW 9978   9.549   2.920   5.257 -0.1208  0.1883 -0.0797
35098SOL    HW1 9979   9.618   2.967   5.304 -0.3682  0.8349 -0.3618
35098SOL    HW2 9980   9.584   2.909   5.168 -0.4055  0.5776 -0.2418
35099SOL     OW 9981   4.762  10.295   3.391  0.0868  0.2710 -0.0798
35099SOL    HW1 9982   4.713  10.358   3.444 -0.3723 -0.8132  0.8248
35099SOL    HW2 9983   4.720  10.211   3.408 -0.4062 -0.0666 -2.5923
35100SOL     OW 9984   2.158   7.563   9.695  0.1023 -0.2331  0.4869
35100SOL    HW1 9985   2.105   7.641   9.678 -1.7080 -1.1517  1.5972
35100SOL    HW2 9986   2.186   7.571   9.786  0.8973 -0.3461  0.2673
35101SOL     OW 9987   4.458   5.651   1.201  0.2697  0.3013  0.6289
35101SOL    HW1 9988   4.531   5.624   1.257  0.7605 -0.0558 -0.1634
35101SOL    HW2 9989   4.476   5.608   1.117  1.8689  4.1044 -1.2252
35102SOL     OW 9990   1.557   1.398  11.402  0.1546 -0.5067 -0.0375
35102SOL    HW1 9991   1.595   1.473  11.446 -1.4944  0.1228  0.3972
35102SOL    HW2 9992   1.495   1.361  11.465 -1.2850 -0.3831 -1.3063
35103SOL     OW 9993   1.098   2.912  10.247 -0.1642  0.4329 -0.3578
35103SOL    HW1 9994   1.131   2.996  10.278 -1.3468  0.2328  1.6446
35103SOL    HW2 9995   1.028   2.889  10.309  0.7661 -2.5053 -0.2361
35104SOL     OW 9996   4.870   6.059  11.921 -0.6693 -0.0444  0.6952
35104SOL    HW1 9997   4.861   5.983  11.864 -1.8470 -0.9760  2.0742
35104SOL    HW2 9998   4.790   6.109  11.908 -0.5825  0.1602  0.9318
35105SOL     OW 9999   1.593  11.434   9.613 -0.3313  0.4250  0.1957
35105SOL    HW110000   1.616  11.376   9.686 -0.9161 -1.0894 -0.7768
35105SOL    HW210001   1.658  11.413   9.546 -0.1359  1.4143  0.0667
35106SOL     OW10002   7.496   9.446   9.090  0.2733  0.1487  0.1960
35106SOL    HW110003   7.434   9.387   9.132 -0.2011  0.6943  0.2784
35106SOL    HW210004   7.443   9.521   9.063  0.4772 -0.3888 -1.8191
35107SOL     OW10005   6.629   6.265   8.716 -0.4201 -0.1426 -0.4662
35107SOL    HW110006   6.574   6.252   8.639 -0.9765 -2.1467  0.1945
35107SOL    HW210007   6.567   6.276   8.788  0.0881  0.4828 -0.1106
35108SOL     OW10008  10.134   8.961  11.219  0.2606 -0.5809 -0.1490
35108SOL    HW110009  10.133   8.949  11.124 -1.2816  1.9616 -0.5636
35108SOL    HW210010  10.042   8.949  11.245  0.8624 -2.6468  1.3231
35109SOL     OW10011   8.464   7.301   8.507 -0.2797 -0.0847  0.2629
35109SOL    HW110012   8.391   7.243   8.530  0.2987 -0.4424  1.3222
35109SOL    HW210013   8.431   7.356   8.437 -1.4587 -0.4520  0.5096
35110SOL     OW10014  11.383   0.155   0.969  0.6116  0.6545  0.1100
35110SOL    HW110015  11.444   0.145   1.042 -0.1528 -0.0947  0.6773
35110SOL    HW210016  11.305   0.194   1.008  0.2870  0.4798 -0.3481
35111SOL     OW10017  10.013   7.851   5.102  0.0536  0.3794 -0.2331
35111SOL    HW110018  10.045   7.938   5.127  1.4229 -0.2007  0.1446
35111SOL    HW210019  10.092   7.797   5.100 -1.0556 -1.5926  2.5957
35112SOL     OW10020   4.393   8.364  10.332  0.1074 -0.0360 -0.0649
35112SOL    HW110021   4.461   8.366  10.264  0.5140  1.1108  0.3449
35112SOL    HW210022   4.440   8.386  10.413  0.2480 -4.2084  1.2175
35113SOL     OW10023  10.763  10.329   5.217  0.7093  0.1105  0.4554
35113SOL    HW110024  10.772  10.279   5.298  0.0543 -0.5301  0.1464
35113SOL    HW210025  10.691  10.389   5.234  0.6186  0.0241  0.3785
35114SOL     OW10026   5.977   5.082   9.873  0.5944 -0.0433 -0.5576
35114SOL    HW110027   5.901   5.059   9.819  1.3059  0.6107 -1.8795
35114SOL    HW210028   5.941   5.140   9.941 -0.3543 -1.0626 -0.1686
35115SOL     OW10029   6.141  10.783   8.184 -0.4887 -0.4514  0.2934
35115SOL    HW110030   6.104  10.749   8.266 -0.5020 -0.8850  0.1108
35115SOL    HW210031   6.219  10.831   8.211 -0.4073 -0.7225  0.5490
35116SOL     OW10032   4.737   8.913   3.763  0.0346 -0.0151 -0.3471
35116SOL    HW110033   4.816   8.930   3.815 -0.0032  0.1093 -0.3288
35116SOL    HW210034   4.686   8.852   3.815 -0.0368  0.1644 -0.2035
35117SOL     OW10035   5.845   1.860   5.599 -0.1084 -0.2365 -0.5481
35117SOL    HW110036   5.891   1.863   5.684 -0.2442 -1.3371 -0.4189
35117SOL    HW210037   5.784   1.934   5.603  0.8351  0.5656 -0.2591
35118SOL     OW10038   0.201   5.265   7.164  0.3360 -0.1766  0.2636
35118SOL    HW110039   0.210   5.173   7.142 -0.8456  0.2365 -2.1861
35118SOL    HW210040   0.238   5.312   7.089 -0.3542  1.3492  0.8265
35119SOL     OW10041   5.210   0.631   9.625  0.1806  0.0740  0.5135
35119SOL    HW110042   5.120   0.659   9.609 -0.0409 -0.8734  0.0158
35119SOL    HW210043   5.264   0.693   9.575 -0.3178 -0.6504 -0.9719
35120SOL     OW10044  10.523   2.421   7.084 -0.2987  0.3852 -0.3721
35120SOL    HW110045  10.451   2.393   7.028 -0.5151  1.1599 -0.4803
35120SOL    HW210046  10.530   2.515   7.070  1.3389  0.1970 -1.0915
35121SOL     OW10047   0.695   0.400   9.670 -0.1725  0.4463  0.1853
35121SOL    HW110048   0.721   0.387   9.578  0.9703  2.0893  0.2300
35121SOL    HW210049   0.767   0.451   9.708 -1.8667  2.1723  1.2614
35122SOL     OW10050  11.974   7.900   5.844  0.8525  0.0906 -0.1883
35122SOL    HW110051  11.956   7.917   5.937  0.2453  0.6112 -0.3964
35122SOL    HW210052  11.989   7.986   5.807  1.2756 -0.1331 -0.5443
35123SOL     OW10053   6.899   5.316   4.886  0.5738  0.0687  0.8294
35123SOL    HW110054   6.943   5.314   4.801  1.1694  1.6429  1.0701
35123SOL    HW210055   6.969   5.307   4.950  0.4772  1.6201  1.1915
35124SOL     OW10056   3.720   2.631  11.936 -0.3360  0.2833  0.1784
35124SOL    HW110057   3.803   2.656  11.976  0.2761 -0.3896 -0.6149
35124SOL    HW210058   3.733   2.647  11.842 -1.0249 -0.0118  0.0279
35125SOL     OW10059   0.092   9.361   5.140 -0.1667  0.0977  0.2537
35125SOL    HW110060   0.109   9.447   5.101 -0.3385 -0.4812 -1.1419
35125SOL    HW210061   0.170   9.310   5.121  0.4902  0.2917  2.2024
35126SOL     OW10062   5.896   0.831   6.022  0.1194 -0.7377 -0.2806
35126SOL    HW110063   5.884   0.736   6.023  0.5539 -0.9010 -2.9054
35126SOL    HW210064   5.848   0.862   6.099  1.4593 -3.1909  1.6883
35127SOL     OW10065   8.744   5.600  10.265 -0.6304 -0.3275  0.6637
35127SOL    HW110066   8.743   5.690  10.235 -1.1180 -0.3269  0.6832
35127SOL    HW210067   8.656   5.567  10.248 -0.5151 -0.7386  0.8413
35128SOL     OW10068  11.677   5.558   0.660 -0.1491  0.5242 -0.0275
35128SOL    HW110069  11.756   5.546   0.713  0.0028 -2.0866 -0.6874
35128SOL    HW210070  11.616   5.493   0.694 -1.0613  0.7183 -1.2243
35129SOL     OW10071   3.267   4.855   6.527  0.5370  0.2325 -0.0007
35129SOL    HW110072   3.216   4.900   6.595 -0.1982 -2.1912  1.1702
35129SOL    HW210073   3.203   4.833   6.460  0.4527 -0.7944  0.3948
35130SOL     OW10074   8.132   3.559   2.115 -0.3442 -0.5143 -0.4116
35130SOL    HW110075   8.097   3.471   2.131  0.6878 -0.6694  1.2246
35130SOL    HW210076   8.054   3.614   2.103 -1.0013 -1.6066 -1.2891
35131SOL     OW10077   4.963   8.337   1.485 -0.3201  0.5644 -0.6775
35131SOL    HW110078   4.990   8.296   1.567 -1.0094  1.3304 -0.0459
35131SOL    HW210079   5.043   8.376   1.450 -0.5265  3.0613  1.3125
35132SOL     OW10080   3.720   2.822   9.107  0.1787  0.4766 -0.2620
35132SOL    HW110081   3.626   2.839   9.120  0.1319  0.1857 -0.2209
35132SOL    HW210082   3.763   2.878   9.171  0.1118  1.9635 -1.4704
35133SOL     OW10083   1.089  11.627   5.294 -0.1933  0.0373  0.1900
35133SOL    HW110084   0.993  11.624   5.291 -0.2701 -0.6954  1.9195
35133SOL    HW210085   1.114  11.544   5.334  1.1234  0.4940  0.3641
35134SOL     OW10086  10.197   3.334   8.269 -0.4593 -0.1222  0.1480
35134SOL    HW110087  10.153   3.381   8.339 -0.3906  0.7769 -0.3961
35134SOL    HW210088  10.205   3.398   8.198  0.0562 -0.8169 -0.4419
35135SOL     OW10089   3.423   2.394   1.628 -0.0840 -0.2158  0.2497
35135SOL    HW110090   3.445   2.468   1.684 -1.0407  0.6568 -0.4919
35135SOL    HW210091   3.405   2.322   1.689  0.6320  0.2068  0.9801
35136SOL     OW10092  11.723   9.400   0.539  0.3851 -0.1864 -0.1821
35136SOL    HW110093  11.672   9.465   0.585 -0.8089 -1.1667 -0.0628
35136SOL    HW210094  11.702   9.317   0.582 -0.2116 -1.0262 -1.9853
35137SOL     OW10095   7.562  10.714   8.857  0.3552 -0.1449 -0.4347
35137SOL    HW110096   7.494  10.652   8.833 -3.1165  2.1625  2.4015
35137SOL    HW210097   7.554  10.785   8.794 -0.1365  0.3009  0.1276
35138SOL     OW10098   1.070  10.897   9.073 -0.1555  0.3641  0.1309
35138SOL    HW110099   1.061  10.840   8.997 -0.2308 -1.5889  1.5380
35138SOL    HW210100   0.981  10.915   9.101 -0.1392  1.3468 -0.3803
35139SOL     OW10101   0.611   2.184   7.973 -0.2306  0.0302 -0.4901
35139SOL    HW110102   0.564   2.122   8.027  1.9327 -0.1674  1.3033
35139SOL    HW210103   0.618   2.263   8.027  2.7292 -0.4584  0.0313
35140SOL     OW10104   8.692   9.653   0.720  0.4352  0.1989  0.4782
35140SOL    HW110105   8.645   9.648   0.636  2.3055  0.7465 -0.6559
35140SOL    HW210106   8.642   9.596   0.779 -1.8166  0.9893 -0.5442
35141SOL     OW10107   7.866   6.732   8.435  0.0291 -0.5211 -0.0166
35141SOL    HW110108   7.909   6.647   8.442  1.7721  0.3304 -0.0189
35141SOL    HW210109   7.845   6.756   8.525 -0.7656 -1.0836 -0.0437
35142SOL     OW10110   3.203   7.002   1.348  0.3376 -0.1415 -0.2697
35142SOL    HW110111   3.175   6.942   1.279 -0.0521 -0.1645 -0.0931
35142SOL    HW210112   3.203   6.948   1.428  1.8487 -0.4091 -0.4181
35143SOL     OW10113   6.019   4.240   3.116  0.0825 -0.3578  0.4034
35143SOL    HW110114   6.083   4.243   3.187 -0.4512 -1.3298  0.9562
35143SOL    HW210115   6.023   4.149   3.084 -2.1393 -0.9542  1.5609
35144SOL     OW10116   1.697   2.379  10.279  0.4850 -0.4135  0.0148
35144SOL    HW110117   1.621   2.377  10.221  0.2196  0.3332  0.3259
35144SOL    HW210118   1.720   2.287  10.293 -2.4200 -0.9070  2.5960
35145SOL     OW10119   4.063   6.326  11.182 -0.2046  0.0142  0.0922
35145SOL    HW110120   4.129   6.298  11.245  0.9075  1.5151 -0.3422
35145SOL    HW210121   4.097   6.297  11.097 -0.3049  0.4047 -0.0854
35146SOL     OW10122   3.635  11.235   7.710  0.6139  0.1306 -0.3452
35146SOL    HW110123   3.646  11.262   7.801 -3.3820  0.3797  0.2508
35146SOL    HW210124   3.619  11.316   7.663  0.6706 -0.1709 -0.8851
35147SOL     OW10125  10.609   5.824   2.501 -0.3076  0.1558 -0.2725
35147SOL    HW110126  10.529   5.806   2.453  0.0631 -1.4695 -0.3395
35147SOL    HW210127  10.602   5.771   2.581  0.3661  0.5745  0.0780
35148SOL     OW10128   0.709   1.180   5.453  0.0365 -0.1102  0.6198
35148SOL    HW110129   0.745   1.146   5.372 -0.8958  1.0750 -0.3388
35148SOL    HW210130   0.783   1.226   5.495 -0.2259  2.2587 -1.2948
35149SOL     OW10131   8.874   3.564  11.926 -0.0579 -0.8004  0.5167
35149SOL    HW110132   8.814   3.560  12.001  2.2358 -0.6048  2.4580
35149SOL    HW210133   8.869   3.655  11.897 -1.6510 -1.0825 -0.2681
35150SOL     OW10134  10.704   3.079  11.957 -0.2545  0.3149  0.0520
35150SOL    HW110135  10.729   3.135  11.884 -0.2243  0.6094  0.2891
35150SOL    HW210136  10.617   3.046  11.933  1.2675 -2.7428 -2.0128
35151SOL     OW10137  10.165   3.174   3.991  0.0587  0.3646  0.3663
35151SOL    HW110138  10.124   3.261   3.987  1.2828  0.9828  0.9165
35151SOL    HW210139  10.241   3.180   3.934  0.1736 -0.3468  0.4331
35152SOL     OW10140   3.885  11.375   3.292 -0.2729  0.3168 -0.0043
35152SOL    HW110141   3.828  11.366   3.215  2.0331 -0.3747 -1.7146
35152SOL    HW210142   3.825  11.363   3.366 -2.6523  1.2941 -1.6135
35153SOL     OW10143  10.796   7.452   5.680 -0.0977 -0.4803  0.2039
35153SOL    HW110144  10.830   7.401   5.607  0.4492 -0.2509  0.2927
35153SOL    HW210145  10.788   7.389   5.752  0.1809 -0.5302  0.1937
35154SOL     OW10146  11.290   2.394   7.655  0.2199 -0.2856  0.2521
35154SOL    HW110147  11.214   2.371   7.602 -0.5615 -1.6182  1.8562
35154SOL    HW210148  11.364   2.388   7.595 -0.9545  1.8343 -1.5662
35155SOL     OW10149   6.806   0.979   0.912 -0.5137 -0.5154  0.0192
35155SOL    HW110150   6.861   1.047   0.949 -0.6793 -0.3950  0.0490
35155SOL    HW210151   6.854   0.947   0.835 -0.2828 -0.5954  0.1964
35156SOL     OW10152   3.322   6.163  10.170  0.4228 -0.6516  0.3120
35156SOL    HW110153   3.289   6.249  10.145 -0.1751 -1.3187 -1.3291
35156SOL    HW210154   3.264   6.101  10.125  1.1199 -1.9075  1.0904
35157SOL     OW10155   6.729  11.243  10.340  0.4731  0.3501  0.3737
35157SOL    HW110156   6.755  11.151  10.343  1.0682  0.4995  0.0861
35157SOL    HW210157   6.652  11.248  10.395  0.4285 -0.3257  0.3852
35158SOL     OW10158   2.926   7.470   9.671 -0.6722 -0.1288 -0.4442
35158SOL    HW110159   2.991   7.531   9.636  0.4678  0.1465  1.9451
35158SOL    HW210160   2.978   7.400   9.710 -1.7045  0.3667  1.9902
35159SOL     OW10161   9.496   4.140   1.477 -0.0725 -0.6869 -0.2692
35159SOL    HW110162   9.538   4.093   1.405 -2.5070 -0.6412 -1.8565
35159SOL    HW210163   9.438   4.203   1.434 -1.6038 -0.6154  1.7288
35160SOL     OW10164   8.848   1.877   2.739  0.1115 -0.1314 -0.2440
35160SOL    HW110165   8.920   1.878   2.802  0.5966  0.5642 -0.7980
35160SOL    HW210166   8.769   1.884   2.793  0.5283  0.6926  0.2786
35161SOL     OW10167  11.838   3.149   8.543 -0.3299 -0.4947 -0.1715
35161SOL    HW110168  11.785   3.109   8.612 -0.5768  0.4219  0.1868
35161SOL    HW210169  11.831   3.089   8.469 -1.7471 -0.4689 -0.0816
35162SOL     OW10170  11.447   5.009   3.456 -0.4185 -0.0492  0.3407
35162SOL    HW110171  11.521   4.987   3.400 -0.2215  0.8044  0.2396
35162SOL    HW210172  11.387   4.935   3.448 -0.3205 -0.0227 -0.8841
35163SOL     OW10173   8.125   0.347  11.774  0.0169  0.1320 -0.5800
35163SOL    HW110174   8.194   0.383  11.719 -1.0633  2.3464 -0.5917
35163SOL    HW210175   8.128   0.400  11.854 -1.0703 -0.3561 -0.1996
35164SOL     OW10176  11.392  11.610   2.423  0.1413  0.2036  0.6384
35164SOL    HW110177  11.449  11.572   2.489  1.6300 -0.4968 -0.9847
35164SOL    HW210178  11.360  11.535   2.372 -0.9333  0.7297  0.5016
35165SOL     OW10179   1.790  11.338   1.035  0.4538 -0.2528  0.3094
35165SOL    HW110180   1.784  11.425   1.074  0.9517  0.7248 -1.6415
35165SOL    HW210181   1.876  11.336   0.993  0.0111 -1.2695 -0.6022
35166SOL     OW10182  11.815   0.532   2.204 -0.2486  0.2130 -0.4105
35166SOL    HW110183  11.860   0.590   2.266  0.7325  0.8039 -1.6124
35166SOL    HW210184  11.823   0.445   2.242  0.2382  0.5721  0.3392
35167SOL     OW10185   3.184   0.629   0.239  0.3117 -0.4025 -0.1658
35167SOL    HW110186   3.116   0.606   0.175  1.4946  0.7178 -1.9214
35167SOL    HW210187   3.239   0.550   0.244 -1.1276 -1.3858  1.4101
35168SOL     OW10188   3.176   3.822   8.590 -0.2819  0.2296  0.3086
35168SOL    HW110189   3.206   3.799   8.502  1.4700  0.4347  0.8233
35168SOL    HW210190   3.152   3.738   8.630  0.3714 -0.0368  0.1428
35169SOL     OW10191   5.356   7.136   4.231 -0.1037 -0.3656 -0.4511
35169SOL    HW110192   5.263   7.127   4.252  0.1127 -1.9835 -0.0787
35169SOL    HW210193   5.399   7.063   4.276  1.3161  0.1485 -0.8868
35170SOL     OW10194   6.511   4.062   7.156  0.0564  0.3088  0.3516
35170SOL    HW110195   6.493   3.998   7.225  1.0014 -0.2364  0.1072
35170SOL    HW210196   6.546   4.010   7.084 -0.4148  0.9458 -0.3538
35171SOL     OW10197   2.138   1.574   1.624 -0.0284 -0.1310 -0.1140
35171SOL    HW110198   2.047   1.549   1.610 -0.3951  0.4093  1.0982
35171SOL    HW210199   2.138   1.670   1.617 -0.1288  0.1353  2.5305
35172SOL     OW10200   4.486   6.686   3.042  0.0703 -0.4163 -0.0663
35172SOL    HW110201   4.507   6.758   3.102  0.6697  0.2725 -1.0786
35172SOL    HW210202   4.571   6.654   3.012 -0.2238 -0.7018 -0.6065
35173SOL     OW10203  10.128   8.181   1.990 -0.3555 -0.6632 -0.0119
35173SOL    HW110204  10.077   8.106   2.022  0.1263 -1.5004 -1.1179
35173SOL    HW210205  10.088   8.202   1.905 -0.3332  0.2032  0.1825
35174SOL     OW10206   5.592   5.400   8.853  0.4348  0.2668  0.5681
35174SOL    HW110207   5.677   5.400   8.897  0.8769 -1.1793 -0.2169
35174SOL    HW210208   5.544   5.329   8.895 -0.2337  0.7964  0.7092
35175SOL     OW10209   1.505   5.447   5.132 -0.2073  0.2765  0.0759
35175SOL    HW110210   1.526   5.505   5.058  0.9663  0.8857  0.8535
35175SOL    HW210211   1.580   5.387   5.137  0.0238  0.6454  1.1553
35176SOL     OW10212   7.951   3.727   5.717 -0.4936 -0.8235 -0.1486
35176SOL    HW110213   7.969   3.763   5.804  1.0069 -0.5768 -0.5296
35176SOL    HW210214   7.877   3.778   5.684 -1.4281 -1.2742  1.1708
35177SOL     OW10215   0.511   4.575  11.047 -0.0052  0.1790 -0.2223
35177SOL    HW110216   0.420   4.595  11.028  0.5341  1.9097 -1.2228
35177SOL    HW210217   0.530   4.621  11.128 -0.0384 -0.2706  0.0442
35178SOL     OW10218  10.610   2.392   9.763 -0.4436  0.1559 -0.3131
35178SOL    HW110219  10.534   2.395   9.704 -0.4541 -3.0420 -0.6327
35178SOL    HW210220  10.583   2.332   9.833  1.0106  0.7427  0.7935
35179SOL     OW10221   4.827   0.321   7.332 -0.1017 -0.0787 -0.4738
35179SOL    HW110222   4.789   0.239   7.302 -0.8048  0.9496 -2.6119
35179SOL    HW210223   4.755   0.384   7.329  0.9210  1.1058 -1.1147
35180SOL     OW10224   2.881   3.616   3.180  0.2738  0.2670 -0.1598
35180SOL    HW110225   2.958   3.580   3.224  0.2250  0.6177  0.2123
35180SOL    HW210226   2.817   3.545   3.182  0.5058  0.0502 -0.2743
35181SOL     OW10227   1.318  11.212   7.066 -0.8891 -0.3252 -0.1321
35181SOL    HW110228   1.276  11.133   7.098 -1.3895  0.0666  0.2094
35181SOL    HW210229   1.387  11.231   7.131 -0.8504 -0.4128 -0.1480
35182SOL     OW10230  11.496   6.228   0.877 -0.2289  0.2611  0.0271
35182SOL    HW110231  11.556   6.178   0.932 -0.3772  1.6406  1.5089
35182SOL    HW210232  11.413   6.226   0.924 -0.3497  1.4924 -0.1071
35183SOL     OW10233   8.684   2.159   6.809  0.4027 -0.0860  0.5560
35183SOL    HW110234   8.621   2.158   6.737 -0.0129  0.6273  0.9076
35183SOL    HW210235   8.768   2.178   6.767  0.3190 -0.5694  0.1502
35184SOL     OW10236   8.139   4.436   8.381 -0.2053 -0.2482  0.0453
35184SOL    HW110237   8.114   4.363   8.438  0.1038 -1.9077 -1.8457
35184SOL    HW210238   8.056   4.473   8.352 -0.3776 -0.4135  0.3179
35185SOL     OW10239  11.393   9.026   7.618  0.4688  0.1894 -0.0548
35185SOL    HW110240  11.435   9.066   7.694  0.0559 -1.8550  1.3272
35185SOL    HW210241  11.300   9.029   7.637  0.4373 -1.4902  0.1560
35186SOL     OW10242   0.460   8.124   6.909 -0.0203 -0.1378  0.5424
35186SOL    HW110243   0.511   8.078   6.842  0.6410  0.6548  0.4822
35186SOL    HW210244   0.415   8.194   6.861 -0.8772 -0.5967  0.6595
35187SOL     OW10245   4.100  11.439   9.015  0.1739  0.1684  0.0307
35187SOL    HW110246   4.129  11.530   9.003 -0.5606  0.4531  0.3193
35187SOL    HW210247   4.124  11.396   8.933  0.6944  0.5781 -0.0420
35188SOL     OW10248   1.248   4.689   7.389 -0.0887  0.0469 -0.6502
35188SOL    HW110249   1.174   4.678   7.328  0.7696 -3.2133 -1.2651
35188SOL    HW210250   1.311   4.742   7.339 -1.1441  1.1535 -0.8713
35189SOL     OW10251   1.019   9.224   5.299  0.3244  0.5002 -0.4928
35189SOL    HW110252   1.015   9.319   5.297 -0.2719  0.5035  0.2779
35189SOL    HW210253   1.097   9.202   5.249  1.8644  1.5061  1.3173
35190SOL     OW10254   5.060   0.294  11.221  0.0633  0.3582 -0.2679
35190SOL    HW110255   5.018   0.359  11.276 -1.5107 -0.4240 -0.5011
35190SOL    HW210256   5.149   0.286  11.256  0.0327  2.0053  0.2671
35191SOL     OW10257   7.116   8.813   6.574 -0.0502 -0.2172 -0.4480
35191SOL    HW110258   7.170   8.789   6.499 -0.4853 -1.4825 -0.3918
35191SOL    HW210259   7.167   8.784   6.650  0.7786  1.8358 -0.1714
35192SOL     OW10260   6.911   7.814   3.790 -0.0087 -0.6135 -0.5809
35192SOL    HW110261   6.885   7.837   3.879  0.0220 -0.9496 -0.4824
35192SOL    HW210262   7.007   7.817   3.791  0.0170 -1.4141 -0.3816
35193SOL     OW10263   9.936   9.309   4.169  0.3183 -0.0166 -0.0058
35193SOL    HW110264   9.884   9.284   4.093  0.5942 -0.5708 -0.0177
35193SOL    HW210265  10.005   9.365   4.134 -0.2673  0.7475  0.0140
35194SOL     OW10266   4.440  10.327  11.925  0.5540 -0.2000 -0.3279
35194SOL    HW110267   4.479  10.338  11.838 -1.4391  0.3818 -1.2121
35194SOL    HW210268   4.454  10.234  11.946  0.8966 -0.3944 -1.3685
35195SOL     OW10269  10.141   9.856   0.364  0.5353  0.2343 -0.2163
35195SOL    HW110270  10.051   9.832   0.346  0.0859  1.3559  0.4070
35195SOL    HW210271  10.149   9.852   0.460  0.8246  1.1908 -0.1911
35196SOL     OW10272   2.746   6.588   4.158 -0.1613 -0.5276  0.6754
35196SOL    HW110273   2.827   6.575   4.109 -0.4224 -0.5728  0.2532
35196SOL    HW210274   2.695   6.649   4.106  0.2457  0.7346  1.7100
35197SOL     OW10275  10.161   0.289   9.202  0.0150  0.2082 -0.2546
35197SOL    HW110276  10.121   0.278   9.116 -2.0443  2.0010  0.3528
35197SOL    HW210277  10.224   0.361   9.191 -1.8248  1.9720  0.0870
35198SOL     OW10278   8.564   9.130  11.018  0.5372  0.0306  0.0982
35198SOL    HW110279   8.570   9.203  11.079 -0.9937 -0.5284  0.9935
35198SOL    HW210280   8.474   9.134  10.985  1.0502 -0.2585 -1.3886
35199SOL     OW10281   5.125   9.596  11.534 -0.6209  0.2407 -0.5921
35199SOL    HW110282   5.176   9.536  11.587 -2.8479 -0.5825  0.7903
35199SOL    HW210283   5.128   9.559  11.446  0.4153 -0.2535 -0.3619
35200SOL     OW10284   7.171   9.816   4.513  0.0827 -0.2391  0.3632
35200SOL    HW110285   7.222   9.829   4.593  1.2394 -1.0633 -0.2104
35200SOL    HW210286   7.082   9.838   4.538  0.4725 -0.1728  1.7966
35201SOL     OW10287   0.305   0.954   5.533 -0.3250 -0.7441  0.0135
35201SOL    HW110288   0.216   0.984   5.516 -0.2587 -0.9462 -0.7624
35201SOL    HW210289   0.298   0.897   5.609 -0.7066 -0.0349  0.5160
35202SOL     OW10290   1.961   6.819   6.190 -0.0802  0.6107  0.2352
35202SOL    HW110291   1.951   6.842   6.098 -0.5148  0.2749  0.1930
35202SOL    HW210292   1.878   6.777   6.214  0.8303 -1.3681  0.1645
35203SOL     OW10293   6.886   5.881   4.718 -0.0798 -0.3823  0.1864
35203SOL    HW110294   6.791   5.893   4.728 -0.0499 -0.2521  0.3141
35203SOL    HW210295   6.913   5.837   4.798 -0.0016 -0.2514  0.2311
35204SOL     OW10296   7.843  11.086   9.353  0.6706 -0.2106 -0.1778
35204SOL    HW110297   7.784  11.067   9.426  2.1970 -0.2209  1.0891
35204SOL    HW210298   7.819  11.175   9.326 -0.7310 -0.6595 -0.5287
35205SOL     OW10299   7.994   6.256   0.063 -1.0566 -0.1931 -0.0857
35205SOL    HW110300   8.084   6.266   0.033 -0.7868 -0.6223  0.5748
35205SOL    HW210301   7.989   6.307   0.144 -1.6558  0.5738 -0.5941
35206SOL     OW10302  10.424  10.177   1.239 -0.3560  0.8058 -0.3224
35206SOL    HW110303  10.397  10.142   1.154  1.7873 -0.3758 -0.5928
35206SOL    HW210304  10.343  10.188   1.288 -1.4584 -0.5202 -1.7751
35207SOL     OW10305   3.891   3.645   5.640 -0.5182  0.7929 -0.4018
35207SOL    HW110306   3.864   3.573   5.697  0.5341  0.5492 -0.1916
35207SOL    HW210307   3.921   3.602   5.560  0.7029  0.9212 -0.0445
35208SOL     OW10308   5.001   7.212   3.866  0.3625  0.3574 -0.6566
35208SOL    HW110309   4.926   7.240   3.919  0.3177 -0.4290 -0.2851
35208SOL    HW210310   4.982   7.245   3.778 -0.4893  0.0571 -0.5959
35209SOL     OW10311   2.241   1.257  11.466 -0.4646  0.0866  0.0491
35209SOL    HW110312   2.163   1.308  11.484 -0.1662  0.3106  0.7386
35209SOL    HW210313   2.310   1.300  11.516 -0.0006 -0.3967 -0.1651
35210SOL     OW10314   5.312   8.408   3.779  0.7911 -0.3095 -0.2755
35210SOL    HW110315   5.279   8.498   3.776  1.6312  0.1294  1.8701
35210SOL    HW210316   5.240   8.356   3.743  0.5758  1.2238 -2.2884
35211SOL     OW10317   2.711   4.662   7.261 -0.0735 -0.0757 -0.0315
35211SOL    HW110318   2.653   4.630   7.330 -1.8444 -0.9866 -1.8264
35211SOL    HW210319   2.663   4.737   7.223  0.3644 -0.2300 -0.9118
35212SOL     OW10320   4.791   0.095   7.927  0.2688 -0.2235  0.0047
35212SOL    HW110321   4.790   0.180   7.972  3.0182  0.7420 -1.5107
35212SOL    HW210322   4.715   0.099   7.868  1.5111  2.2070 -1.6101
35213SOL     OW10323   0.987   4.092   0.613  0.1824  0.4844  0.1514
35213SOL    HW110324   0.935   4.160   0.571 -2.7668 -0.4927  1.8950
35213SOL    HW210325   1.012   4.130   0.698 -1.1906 -0.4232  0.9896
35214SOL     OW10326   4.771   1.945   6.985  0.2526  0.2792  0.2253
35214SOL    HW110327   4.714   2.013   6.949 -1.3191 -0.3123  1.4646
35214SOL    HW210328   4.794   1.978   7.072  1.5530  0.3442 -0.1250
35215SOL     OW10329   0.709   2.071   4.113 -0.2541  0.2910  0.2678
35215SOL    HW110330   0.739   2.149   4.159 -0.2097 -0.0509  0.8277
35215SOL    HW210331   0.623   2.094   4.079  0.1220  0.8726 -0.3134
35216SOL     OW10332   2.027   7.984   5.556  0.2611 -0.5739  0.0288
35216SOL    HW110333   2.073   7.993   5.472  1.3911 -0.1827  0.6704
35216SOL    HW210334   1.980   8.066   5.566  0.0010 -0.6815 -0.2892
35217SOL     OW10335   7.036   7.947  10.780  0.2698 -0.2733 -0.3262
35217SOL    HW110336   7.035   8.041  10.800  0.6815 -0.6282  1.5173
35217SOL    HW210337   6.962   7.911  10.829  1.2146 -1.1736  0.4802
35218SOL     OW10338   1.879   2.929   2.357  0.1869 -0.1180  0.2400
35218SOL    HW110339   1.963   2.972   2.341  0.6867 -1.0810  0.1750
35218SOL    HW210340   1.842   2.976   2.432  1.4613 -0.6010  1.2006
35219SOL     OW10341   4.530   1.244   4.351 -0.2089 -0.0586  0.2095
35219SOL    HW110342   4.521   1.255   4.446  0.9056  0.1193  0.3060
35219SOL    HW210343   4.525   1.333   4.316  0.0122 -0.0660  0.1595
35220SOL     OW10344   7.349   3.895   0.733 -0.6691  0.3623  0.5195
35220SOL    HW110345   7.269   3.933   0.767 -1.0441 -0.9663  1.2132
35220SOL    HW210346   7.321   3.842   0.658 -0.3567  0.3614  0.3986
35221SOL     OW10347   8.431   8.629   0.276 -0.1790 -0.4467 -0.1925
35221SOL    HW110348   8.477   8.580   0.207 -1.7532 -2.4210  0.0485
35221SOL    HW210349   8.422   8.717   0.241  0.1635 -1.0865 -1.9913
35222SOL     OW10350  10.619  11.346  10.719  0.0110  0.0990  0.3661
35222SOL    HW110351  10.563  11.329  10.644  1.9817  2.0377 -1.7333
35222SOL    HW210352  10.572  11.412  10.769  0.1016  1.3053 -1.0631
35223SOL     OW10353   2.763   5.858   9.426 -0.6118  0.0779  0.1626
35223SOL    HW110354   2.855   5.836   9.440 -0.8006 -0.6602  0.2690
35223SOL    HW210355   2.754   5.863   9.330 -0.8233 -1.5267  0.0623
35224SOL     OW10356   7.022   8.538   5.823  0.3951  0.4407  0.2172
35224SOL    HW110357   7.023   8.466   5.759 -1.6459 -0.3023  0.9481
35224SOL    HW210358   7.114   8.552   5.844  1.1505  0.6535 -2.7824
35225SOL     OW10359   7.256  10.911   5.008 -0.0051  0.5068  0.1255
35225SOL    HW110360   7.199  10.844   4.971  2.0532 -0.9807 -0.5393
35225SOL    HW210361   7.197  10.969   5.057 -1.8086 -2.1773  1.3409
35226SOL     OW10362   9.104   7.086   6.102  0.5192 -0.4301  0.4484
35226SOL    HW110363   9.187   7.121   6.133  1.0093 -1.5271  0.4538
35226SOL    HW210364   9.129   7.023   6.033 -0.2319 -1.4398  1.0636
35227SOL     OW10365   5.809  10.159   3.177  0.0140 -0.0123 -0.0258
35227SOL    HW110366   5.775  10.201   3.098  1.1451 -1.5245 -1.3849
35227SOL    HW210367   5.833  10.233   3.234 -1.3352  1.1051 -0.8331
35228SOL     OW10368  10.592   6.509  11.750  0.3389 -0.5547 -0.4178
35228SOL    HW110369  10.525   6.491  11.684  1.7722 -0.4899 -1.9781
35228SOL    HW210370  10.670   6.531  11.698  1.1321  0.9491  1.3429
35229SOL     OW10371   7.800  10.401   3.456  0.4172 -0.1228  0.2236
35229SOL    HW110372   7.850  10.429   3.380  0.2299  1.2571  0.5824
35229SOL    HW210373   7.865  10.358   3.513  0.6342 -0.7887 -0.5132
35230SOL     OW10374   9.395   6.123   8.652 -0.5422  0.4957 -0.1971
35230SOL    HW110375   9.448   6.050   8.621  2.5564  2.0543  0.8992
35230SOL    HW210376   9.379   6.104   8.744 -0.9524  0.5540 -0.2543
35231SOL     OW10377   2.182  10.517   8.592 -0.2152 -0.0887 -0.5829
35231SOL    HW110378   2.203  10.438   8.543  0.6640 -0.1406 -0.1344
35231SOL    HW210379   2.249  10.522   8.660 -0.2672  1.0354 -0.5956
35232SOL     OW10380  10.051   5.593  11.429  0.1339 -0.1119 -0.1015
35232SOL    HW110381  10.109   5.518  11.415 -1.3181 -1.0461 -1.3266
35232SOL    HW210382   9.963   5.558  11.422 -0.5923  1.6216 -0.1749
35233SOL     OW10383   9.605   5.653   7.566  0.1253  0.8038 -0.3657
35233SOL    HW110384   9.543   5.700   7.510 -0.4931 -0.9675 -1.2333
35233SOL    HW210385   9.603   5.563   7.534  1.0499  0.0978  1.4255
35234SOL     OW10386   1.328   3.043   4.527 -0.1014 -0.1692  0.1652
35234SOL    HW110387   1.368   3.102   4.463  0.1454 -1.0413 -0.5033
35234SOL    HW210388   1.382   2.964   4.524 -0.1567 -0.2667  1.3804
35235SOL     OW10389   2.577   8.634   3.401 -0.1692 -0.2004  0.2880
35235SOL    HW110390   2.645   8.690   3.438 -1.6359  2.5952 -0.9172
35235SOL    HW210391   2.505   8.639   3.464 -0.6558  0.1206 -0.2751
35236SOL     OW10392  11.147   7.125   6.079  0.5385  0.4399 -0.1801
35236SOL    HW110393  11.115   7.123   5.988 -2.3644  0.9456  0.7331
35236SOL    HW210394  11.201   7.204   6.083  0.7007  0.4181 -1.4768
35237SOL     OW10395   4.451  11.319   3.038 -0.1000 -0.2262  0.2296
35237SOL    HW110396   4.498  11.335   2.957 -0.2378 -0.1935  0.1556
35237SOL    HW210397   4.395  11.395   3.049 -0.8423 -0.7056 -0.1804
35238SOL     OW10398   6.608   7.074   0.793 -0.3297  0.6664 -0.1462
35238SOL    HW110399   6.541   7.045   0.855  1.6717 -2.3014  0.7912
35238SOL    HW210400   6.690   7.068   0.841  1.1141 -0.1278 -2.5561
35239SOL     OW10401   6.268   6.101   9.053  0.0947  0.1973 -0.4265
35239SOL    HW110402   6.250   6.013   9.020  0.2933  0.1977 -0.5370
35239SOL    HW210403   6.359   6.118   9.028 -0.1588  0.7140 -1.0366
35240SOL     OW10404   1.357   3.907   2.253 -0.3731  0.2912  0.4045
35240SOL    HW110405   1.336   3.816   2.272 -1.3227  0.4253  0.0405
35240SOL    HW210406   1.447   3.918   2.284  0.2171 -1.1109 -0.7254
35241SOL     OW10407   2.539   3.706   7.586 -0.3814 -0.1975  0.3414
35241SOL    HW110408   2.627   3.739   7.563 -0.0741 -1.2023  0.0293
35241SOL    HW210409   2.539   3.703   7.682  0.0686 -0.5494  0.3347
35242SOL     OW10410   2.609   7.490   7.475  0.1499  0.0012 -0.3691
35242SOL    HW110411   2.542   7.459   7.537  0.8201 -1.0727 -0.1527
35242SOL    HW210412   2.644   7.409   7.436  2.3676  0.4277  0.6300
35243SOL     OW10413   5.706  10.962   6.144 -0.1300 -0.8000  0.0303
35243SOL    HW110414   5.801  10.960   6.143 -0.1133 -0.3678  0.5911
35243SOL    HW210415   5.682  10.925   6.229 -0.4667 -0.9554 -0.1274
35244SOL     OW10416   9.743   0.379   0.675 -0.2129 -0.5303  0.0471
35244SOL    HW110417   9.657   0.337   0.683 -0.4123 -0.4587 -1.3438
35244SOL    HW210418   9.770   0.360   0.585  1.0581 -0.2120  0.3462
35245SOL     OW10419   6.379   5.549   5.492  0.2042 -0.0669  0.2763
35245SOL    HW110420   6.397   5.463   5.453  0.6839  0.9124 -1.7710
35245SOL    HW210421   6.317   5.590   5.432  0.0845  1.0828  1.1578
35246SOL     OW10422   8.942   6.720   3.071  0.2541 -0.9648  1.0262
35246SOL    HW110423   8.995   6.712   2.992 -1.9903 -2.4111 -0.4382
35246SOL    HW210424   8.992   6.675   3.139  1.7928 -0.4958  0.2455
35247SOL     OW10425   7.723  10.720   8.227 -0.3796 -0.3203  0.8649
35247SOL    HW110426   7.785  10.651   8.252 -0.3347  0.0605  1.8374
35247SOL    HW210427   7.742  10.792   8.287 -2.9457 -0.8150  2.3808
35248SOL     OW10428   8.843   0.466   4.518 -0.4582 -0.2825  0.9862
35248SOL    HW110429   8.885   0.390   4.478  1.1203  1.6776 -1.3126
35248SOL    HW210430   8.877   0.467   4.608  2.1272 -0.4964  0.0890
35249SOL     OW10431   1.614  10.805   3.911  0.2302 -0.6258  0.3166
35249SOL    HW110432   1.700  10.769   3.932 -0.3254 -1.7683  0.7302
35249SOL    HW210433   1.605  10.880   3.969  1.6253  0.5535 -0.9132
35250SOL     OW10434   0.658   7.924  11.247 -0.1416 -0.2588 -0.1990
35250SOL    HW110435   0.590   7.893  11.306 -1.6413 -0.0573 -1.7596
35250SOL    HW210436   0.614   7.986  11.189  1.6160  0.7252 -0.5708
35251SOL     OW10437   8.728   6.349  10.399  0.0863 -0.1868  0.3483
35251SOL    HW110438   8.751   6.429  10.351 -1.0383  1.1221  1.8596
35251SOL    HW210439   8.775   6.357  10.482 -0.2489 -0.9649  0.6153
35252SOL     OW10440   2.893   8.486   0.465 -0.1070  0.2013 -0.3221
35252SOL    HW110441   2.808   8.467   0.426 -0.3777 -0.9891  0.7842
35252SOL    HW210442   2.947   8.409   0.447  0.1212  0.1286  0.6184
35253SOL     OW10443   8.010   4.140   8.050 -0.6832  0.1484  0.3754
35253SOL    HW110444   8.066   4.173   7.980  0.7564 -0.2806  1.2667
35253SOL    HW210445   8.037   4.049   8.062 -2.0552 -0.2851  0.4037
35254SOL     OW10446   8.434   7.208   4.215 -0.0872 -0.8622 -0.1999
35254SOL    HW110447   8.500   7.219   4.284 -0.0257 -3.7917  0.3376
35254SOL    HW210448   8.476   7.242   4.136  1.3803 -1.0060  0.4829
35255SOL     OW10449   9.572   4.086   2.576 -0.0672  0.4277 -0.2495
35255SOL    HW110450   9.596   4.081   2.669  1.5805  0.4912 -0.6383
35255SOL    HW210451   9.532   4.173   2.567  1.4803  1.2120  0.0661
35256SOL     OW10452  11.468   2.385   0.037  0.5260  0.1088  0.0166
35256SOL    HW110453  11.441   2.294   0.045  1.2684 -0.0436  0.9968
35256SOL    HW210454  11.564   2.381   0.034  0.5330  0.7793 -1.1256
35257SOL     OW10455   1.475  11.531  10.623 -0.5749  0.6385  0.0332
35257SOL    HW110456   1.539  11.483  10.571 -0.4341 -0.0085  0.7855
35257SOL    HW210457   1.442  11.599  10.564 -0.4609 -0.1014 -0.9064
35258SOL     OW10458   0.049  11.025   2.062  1.2311 -0.6361 -0.0534
35258SOL    HW110459   0.114  11.096   2.064  0.2125  0.3667  2.2658
35258SOL    HW210460   0.006  11.031   2.148 -1.6624 -1.4903 -1.3295
35259SOL     OW10461   3.529   0.995   8.497  0.4363  0.4156  0.3460
35259SOL    HW110462   3.438   1.008   8.524  0.5116 -0.2221  0.9314
35259SOL    HW210463   3.531   0.906   8.461  0.8570  0.3748  0.4642
35260SOL     OW10464   0.463   6.164   4.631 -0.0038 -0.2865 -0.1111
35260SOL    HW110465   0.464   6.179   4.537 -0.9787  1.5878  0.1339
35260SOL    HW210466   0.552   6.136   4.653  0.5610  0.4264 -1.4128
35261SOL     OW10467  10.585   5.345  10.719 -0.3764  0.4187 -0.5563
35261SOL    HW110468  10.677   5.358  10.743 -0.4798  0.1224  0.0270
35261SOL    HW210469  10.566   5.416  10.658  0.4256  0.0889 -1.2091
35262SOL     OW10470   8.040   6.097   0.473  0.5056  0.3322 -0.4705
35262SOL    HW110471   8.027   6.006   0.500  0.4558  0.4162 -0.2049
35262SOL    HW210472   8.073   6.091   0.383 -0.8923  0.0904 -0.9953
35263SOL     OW10473   6.448  10.250   0.696  0.7274  0.0540  0.1572
35263SOL    HW110474   6.369  10.223   0.744 -0.1821 -0.0737 -1.3362
35263SOL    HW210475   6.496  10.169   0.681  1.3216  0.1721  1.3396
35264SOL     OW10476   5.245   8.803   0.556 -0.1026 -0.0891  0.8194
35264SOL    HW110477   5.172   8.781   0.614 -0.3334  0.8088  0.8840
35264SOL    HW210478   5.321   8.807   0.614 -0.2953  0.5895  1.0437
35265SOL     OW10479   5.390   3.625   9.635 -0.1517  0.4427  0.6146
35265SOL    HW110480   5.312   3.674   9.607 -0.6139 -0.1566  0.8442
35265SOL    HW210481   5.446   3.622   9.557 -1.6390 -1.6525 -0.4548
35266SOL     OW10482   6.909   8.184   1.353  0.5457  0.0596 -0.2112
35266SOL    HW110483   6.982   8.220   1.303  1.6446 -3.5391 -1.5165
35266SOL    HW210484   6.936   8.194   1.445  0.5640  2.7003 -0.4381
35267SOL     OW10485   3.972  10.618   2.212  0.4945  0.0372 -0.3113
35267SOL    HW110486   4.054  10.641   2.167  1.3746 -2.8736 -0.4025
35267SOL    HW210487   3.994  10.623   2.305  0.0331  1.5143 -0.2516
35268SOL     OW10488   6.232   8.129   5.882  0.2730 -0.5942 -0.1552
35268SOL    HW110489   6.292   8.190   5.839 -1.1183  1.0571  0.0853
35268SOL    HW210490   6.152   8.181   5.895  0.0484 -1.5203  2.8958
35269SOL     OW10491   8.755   4.078  10.765  0.1431 -0.1805 -0.3113
35269SOL    HW110492   8.741   4.140  10.692  0.9596 -0.8117 -1.0345
35269SOL    HW210493   8.798   4.003  10.724 -2.9886 -2.3523  0.0674
35270SOL     OW10494  11.953   3.245   9.823  0.4469  0.1600  0.4604
35270SOL    HW110495  12.006   3.320   9.850 -0.3173  1.4036 -1.3243
35270SOL    HW210496  11.937   3.259   9.730  0.2056 -2.2017  0.1021
35271SOL     OW10497   9.791  11.286   1.403 -0.1456 -0.0993  0.6093
35271SOL    HW110498   9.841  11.298   1.484 -1.1887 -0.2646  1.3038
35271SOL    HW210499   9.834  11.214   1.358  0.4411 -0.0174  1.0292
35272SOL     OW10500  10.216   7.885   3.517  0.0929 -0.1304 -0.1020
35272SOL    HW110501  10.195   7.975   3.494 -0.3479 -0.6462 -1.9268
35272SOL    HW210502  10.216   7.883   3.612  1.8447  2.1663  0.0211
35273SOL     OW10503  10.943   4.978   8.456  0.4138 -0.1291 -0.3346
35273SOL    HW110504  10.867   5.035   8.461 -0.7509 -1.4962 -1.3854
35273SOL    HW210505  11.003   5.022   8.396  0.6994  1.1691  0.8377
35274SOL     OW10506   4.710   8.939   1.701  0.1237  0.4995  0.6216
35274SOL    HW110507   4.721   9.033   1.710  0.6153  0.4530  0.5253
35274SOL    HW210508   4.640   8.929   1.637 -0.6036  0.7998  1.3467
35275SOL     OW10509   4.250  10.133   6.361  0.6774 -0.4214 -0.0768
35275SOL    HW110510   4.196  10.165   6.433  0.3563 -1.3525  0.1127
35275SOL    HW210511   4.265  10.210   6.306 -0.2546  0.0038  0.2420
35276SOL     OW10512   7.956   1.613   9.132 -0.6236  0.5637  0.5343
35276SOL    HW110513   7.881   1.639   9.186 -2.1627  0.1575 -1.3260
35276SOL    HW210514   7.934   1.525   9.101  0.6210  0.4502 -0.0940
35277SOL     OW10515   1.803   9.752   6.129 -0.2230  0.0323  0.0743
35277SOL    HW110516   1.884   9.708   6.157  0.5253  1.0690 -0.3867
35277SOL    HW210517   1.806   9.837   6.174 -0.8857  0.2089 -0.2096
35278SOL     OW10518   6.353  11.110   8.088 -0.1887  0.2165 -0.0849
35278SOL    HW110519   6.441  11.088   8.118 -0.1374  1.3971  0.6659
35278SOL    HW210520   6.345  11.065   8.003  1.2146  0.2997 -0.2827
35279SOL     OW10521  10.533  10.112   2.627  0.5473 -0.5172  0.2576
35279SOL    HW110522  10.469  10.068   2.571  1.2027  0.5807 -1.4200
35279SOL    HW210523  10.596  10.150   2.566  1.0672  1.0852  1.7248
35280SOL     OW10524   9.526   1.486  11.217  0.0751  0.4532 -0.4768
35280SOL    HW110525   9.490   1.568  11.250  0.0478  0.2518  0.0057
35280SOL    HW210526   9.561   1.507  11.131  1.6098  1.3536  0.3473
35281SOL     OW10527  11.674   8.294   7.601 -0.2197 -0.2299  0.4227
35281SOL    HW110528  11.667   8.287   7.697  0.6251  0.2911  0.5342
35281SOL    HW210529  11.625   8.218   7.568 -1.6040  0.2769  1.2172
35282SOL     OW10530  10.166  11.902   6.236  0.0006  0.2282  0.3553
35282SOL    HW110531  10.120  11.824   6.203 -0.1369  0.3983  0.1416
35282SOL    HW210532  10.254  11.872   6.255  0.0256  0.0816  0.0143
35283SOL     OW10533   7.594   4.513   3.387 -0.1116  0.3446  0.3751
35283SOL    HW110534   7.565   4.582   3.328  1.3650 -0.0704 -0.8881
35283SOL    HW210535   7.687   4.502   3.369 -0.3270 -2.1169  0.3536
35284SOL     OW10536   3.459  10.631  11.260  0.3947  0.3915  0.3810
35284SOL    HW110537   3.551  10.655  11.270  0.6951  0.0280 -1.2394
35284SOL    HW210538   3.440  10.577  11.336  0.9568  2.0168  1.7422
35285SOL     OW10539   9.688   7.114   6.592  0.2596 -0.0889 -0.0752
35285SOL    HW110540   9.740   7.102   6.671 -0.2462 -0.8751  0.1588
35285SOL    HW210541   9.679   7.026   6.556 -0.2040  0.1514 -0.5591
35286SOL     OW10542  10.830   4.508   6.787  0.5124 -0.3657 -0.0263
35286SOL    HW110543  10.897   4.517   6.719  2.3810 -0.3171  1.7333
35286SOL    HW210544  10.816   4.414   6.794  1.1610 -0.4429  0.2929
35287SOL     OW10545   4.832   4.003   2.252 -0.4545 -0.6626  0.6386
35287SOL    HW110546   4.922   4.025   2.228 -0.3393 -1.6477  0.1323
35287SOL    HW210547   4.828   4.020   2.346  0.3858 -1.0021  0.7467
35288SOL     OW10548   2.424  10.170  10.391 -0.3054 -0.5778  0.3386
35288SOL    HW110549   2.454  10.117  10.464  1.6621 -0.3964 -0.2863
35288SOL    HW210550   2.504  10.198  10.346 -1.4066  0.1804 -1.2754
35289SOL     OW10551  11.648   2.710   9.147 -0.6980 -0.4785 -0.4194
35289SOL    HW110552  11.598   2.752   9.218 -0.8794 -0.0278 -0.8059
35289SOL    HW210553  11.642   2.772   9.074 -0.1730 -0.7518 -0.6998
35290SOL     OW10554   1.875   0.237   2.166 -0.3594  0.0023 -0.4029
35290SOL    HW110555   1.814   0.301   2.130 -1.1253 -0.4188  0.1200
35290SOL    HW210556   1.902   0.274   2.250 -1.5515 -0.7672  0.3592
35291SOL     OW10557  11.430   2.500   8.692 -0.3086 -0.2286 -0.4865
35291SOL    HW110558  11.373   2.571   8.660 -1.4670 -1.1200 -0.4583
35291SOL    HW210559  11.431   2.437   8.620 -1.1542 -1.2364  0.3557
35292SOL     OW10560   4.779   3.312   7.929  0.6150  0.6205  0.9565
35292SOL    HW110561   4.689   3.333   7.903  1.1419  1.1776 -0.5714
35292SOL    HW210562   4.796   3.371   8.002 -0.2865  0.4526  1.3184
35293SOL     OW10563   4.536  10.962  10.999  0.1122  0.0899  0.2655
35293SOL    HW110564   4.575  11.031  10.944 -0.0156 -0.3580 -0.4049
35293SOL    HW210565   4.463  10.930  10.947  0.0791 -0.4525  0.6464
35294SOL     OW10566   4.035   7.015  11.168 -0.0919  0.3083 -0.7159
35294SOL    HW110567   4.125   7.006  11.137  0.3565  0.6573  0.4302
35294SOL    HW210568   4.016   6.932  11.213 -0.1166  0.4791 -0.4072
35295SOL     OW10569   9.559  11.363   2.873  0.3664  0.1055  0.1249
35295SOL    HW110570   9.493  11.389   2.938 -0.4247 -0.2668 -0.5171
35295SOL    HW210571   9.547  11.424   2.801  0.8033  0.1093  0.0573
35296SOL     OW10572   3.630   6.725   9.657  0.1847  0.2073  0.1033
35296SOL    HW110573   3.614   6.787   9.727 -0.6552  0.3474 -0.2079
35296SOL    HW210574   3.638   6.640   9.701 -0.3673  0.2885  0.3633
35297SOL     OW10575   2.683  11.250   4.892  0.1430 -0.7043 -0.1506
35297SOL    HW110576   2.764  11.276   4.936 -0.6251  2.4372 -0.3758
35297SOL    HW210577   2.705  11.247   4.799 -0.1471  1.0947 -0.3098
35298SOL     OW10578   7.256   4.077   0.104  0.2075 -0.0600 -0.5908
35298SOL    HW110579   7.207   3.998   0.124 -0.5642 -0.0088 -2.1492
35298SOL    HW210580   7.269   4.120   0.189  0.1649 -1.5534  0.2079
35299SOL     OW10581   2.644   1.405  11.405  0.1329  0.2881 -0.2983
35299SOL    HW110582   2.581   1.391  11.334  0.2225 -1.2932 -0.0910
35299SOL    HW210583   2.724   1.434  11.360 -0.3083  0.9543 -0.6791
35300SOL     OW10584   5.746   6.758   2.504  0.0598  0.1190  0.0914
35300SOL    HW110585   5.754   6.664   2.494  1.8374  0.4655 -3.0498
35300SOL    HW210586   5.824   6.794   2.463 -1.1010  3.0173  0.1296
35301SOL     OW10587   3.571   6.730   6.361  0.3730  0.5682  0.1925
35301SOL    HW110588   3.575   6.721   6.456  1.5666 -1.2831  0.0127
35301SOL    HW210589   3.633   6.800   6.341  2.3619 -0.9923  0.5984
35302SOL     OW10590   0.362   6.241   3.795  0.1841 -0.1697 -0.0322
35302SOL    HW110591   0.399   6.197   3.719 -0.1242 -0.8288  0.1869
35302SOL    HW210592   0.353   6.171   3.860  0.2155  0.3366  0.5219
35303SOL     OW10593   7.179   9.414   4.340 -0.5712  0.0978  0.3288
35303SOL    HW110594   7.104   9.442   4.393 -0.4826 -1.2607  1.2275
35303SOL    HW210595   7.239   9.489   4.342 -1.8378  1.1596 -0.3254
35304SOL     OW10596   5.231   0.425   2.043  0.4329 -0.1091 -0.3067
35304SOL    HW110597   5.197   0.494   1.987  0.0376 -0.0828 -0.0396
35304SOL    HW210598   5.321   0.411   2.013  0.1212 -0.3313 -1.1720
35305SOL     OW10599   6.765   2.438   3.044 -0.2374  0.5860 -0.2612
35305SOL    HW110600   6.675   2.422   3.018 -0.1548  0.5452 -0.5199
35305SOL    HW210601   6.809   2.353   3.036 -0.2390  0.5442  0.1271
35306SOL     OW10602   7.872  11.689   4.034  0.3727 -0.2349  0.2438
35306SOL    HW110603   7.845  11.651   3.951 -0.0886  0.4769  0.0549
35306SOL    HW210604   7.938  11.629   4.068  1.2775 -0.0362 -1.0843
35307SOL     OW10605   2.658   7.418   3.685  0.3423  0.0228  0.1840
35307SOL    HW110606   2.745   7.452   3.703  0.8499 -1.4113  0.6032
35307SOL    HW210607   2.659   7.329   3.720 -0.9073 -0.4372 -0.8458
35308SOL     OW10608  11.222   5.631   9.698  0.3077 -0.5448 -0.3676
35308SOL    HW110609  11.180   5.710   9.666 -0.5139 -1.6680 -2.2547
35308SOL    HW210610  11.159   5.593   9.759  0.2046 -0.3389 -0.3465
35309SOL     OW10611  11.519   5.619  10.661  0.2790  1.0216  0.0196
35309SOL    HW110612  11.520   5.645  10.569 -0.0770  2.6091  0.4380
35309SOL    HW210613  11.605   5.644  10.694  0.0163  1.4745  0.3738
35310SOL     OW10614   6.221   8.389  10.119  0.0919 -0.0939  0.0119
35310SOL    HW110615   6.316   8.401  10.115 -0.1322  1.5893 -2.3737
35310SOL    HW210616   6.188   8.474  10.150 -0.7093 -0.0038 -1.0478
35311SOL     OW10617   0.962   5.041   2.248  0.4269  0.4369  0.2332
35311SOL    HW110618   0.946   5.112   2.309 -1.1841 -0.8504  1.3800
35311SOL    HW210619   0.882   5.034   2.197 -0.9335 -2.6821  2.4599
35312SOL     OW10620   3.965   2.233  10.329  0.2351  0.3991 -0.0758
35312SOL    HW110621   3.951   2.324  10.304  0.2930  0.2416 -0.7111
35312SOL    HW210622   4.058   2.218  10.314 -0.1370 -0.3267 -1.9558
35313SOL     OW10623   1.474   1.340   5.140  0.4312  0.3966  0.6613
35313SOL    HW110624   1.473   1.245   5.136 -0.3292  0.3492  1.5990
35313SOL    HW210625   1.565   1.363   5.158  0.6851 -0.1224  0.0780
35314SOL     OW10626  11.574   5.506   8.987 -0.3671 -0.5875  0.0239
35314SOL    HW110627  11.617   5.421   8.979  1.1000  0.1399 -0.1287
35314SOL    HW210628  11.595   5.552   8.905 -0.7447  0.0922  0.2933
35315SOL     OW10629   9.194   7.782   2.137 -0.0703  0.0076 -0.6551
35315SOL    HW110630   9.119   7.727   2.116 -0.0558  0.0316 -0.7684
35315SOL    HW210631   9.269   7.737   2.097  0.2632 -0.9991  0.9998
35316SOL     OW10632   7.830   3.839  11.491  0.0492 -0.0037  0.4564
35316SOL    HW110633   7.833   3.928  11.457  1.9814  0.4250  1.5634
35316SOL    HW210634   7.873   3.845  11.577  0.5660 -2.0626  0.3949
35317SOL     OW10635   3.599   5.970  11.019 -0.3356  0.2802  0.1457
35317SOL    HW110636   3.680   6.017  10.995 -0.1400 -0.1948 -0.1365
35317SOL    HW210637   3.591   5.983  11.113 -0.3114  0.9251  0.0695
35318SOL     OW10638   1.912   7.606   0.382  0.3905 -0.0879 -0.0544
35318SOL    HW110639   1.958   7.580   0.462  0.2608 -1.7132 -0.4564
35318SOL    HW210640   1.860   7.529   0.360 -0.3444  0.7129 -1.1536
35319SOL     OW10641   4.799   3.683   6.605 -0.5758  0.0208 -0.1363
35319SOL    HW110642   4.745   3.708   6.680 -0.4537  0.0115 -0.0460
35319SOL    HW210643   4.796   3.588   6.604  2.4259 -0.2226  2.0931
35320SOL     OW10644   7.563   8.286   1.847  0.2143 -0.1910  0.1775
35320SOL    HW110645   7.650   8.255   1.820 -0.2454 -0.3397 -1.2229
35320SOL    HW210646   7.523   8.318   1.766 -0.5917  0.9847  1.0099
35321SOL     OW10647   1.811   7.990   7.391  0.0871  0.7034 -0.3593
35321SOL    HW110648   1.798   7.922   7.456 -0.4047  1.3110  0.1914
35321SOL    HW210649   1.795   7.947   7.307  1.6253 -0.3157 -0.1630
35322SOL     OW10650   0.119   6.366   5.061  0.6928 -0.2314 -0.4444
35322SOL    HW110651   0.032   6.372   5.102  0.9130 -0.2321  0.0279
35322SOL    HW210652   0.125   6.445   5.007  1.0540  0.6373  0.8228
35323SOL     OW10653   5.223   0.061   2.264  0.1358  0.0794 -0.0779
35323SOL    HW110654   5.239   0.058   2.169 -0.3386  0.4195 -0.1727
35323SOL    HW210655   5.309   0.043   2.303  0.6488  1.2727 -0.5722
35324SOL     OW10656  11.177   0.388   4.783 -0.0126  0.0717  0.0046
35324SOL    HW110657  11.237   0.365   4.854 -1.4372  0.6385  1.4686
35324SOL    HW210658  11.230   0.437   4.721  1.4208 -0.9483  0.3698
35325SOL     OW10659   6.641   9.613   3.949 -0.1653  0.4070 -0.4986
35325SOL    HW110660   6.701   9.684   3.971  0.3116  0.1065 -0.8071
35325SOL    HW210661   6.555   9.654   3.946 -0.1012  0.6684  0.8364
35326SOL     OW10662   3.191   1.253   9.908  0.0944  0.0505  0.4206
35326SOL    HW110663   3.188   1.158   9.909 -0.7377  0.0650  0.1862
35326SOL    HW210664   3.189   1.277   9.816  1.3393  0.2879  0.4346
35327SOL     OW10665   6.119   6.165   2.491  0.1206 -0.7371 -0.4690
35327SOL    HW110666   6.133   6.202   2.404 -1.6765  0.9373 -0.1222
35327SOL    HW210667   6.142   6.073   2.482  0.2283 -0.5539 -2.6382
35328SOL     OW10668   7.318   6.540   9.823 -0.2850 -0.6131 -1.0806
35328SOL    HW110669   7.374   6.517   9.898 -0.9571  0.3238 -0.2518
35328SOL    HW210670   7.346   6.629   9.800 -1.4728 -0.1042 -0.6037
35329SOL     OW10671   6.108  11.115   5.377 -0.1974 -0.4322 -0.3621
35329SOL    HW110672   6.172  11.174   5.337 -0.6939  0.0881 -0.4102
35329SOL    HW210673   6.029  11.168   5.386 -1.7171 -1.9378 -3.3303
35330SOL     OW10674   0.936   1.219   0.167  1.0544  0.0536 -0.1469
35330SOL    HW110675   0.927   1.185   0.077  0.9058  0.2680 -0.2134
35330SOL    HW210676   0.936   1.141   0.222 -0.7133 -0.0164 -0.1786
35331SOL     OW10677   6.918   9.695   5.141 -0.4897 -0.0127  0.0022
35331SOL    HW110678   6.925   9.745   5.060  4.9599  0.9872  0.6808
35331SOL    HW210679   6.901   9.761   5.208 -0.9594 -0.2304  0.0964
35332SOL     OW10680   7.836  11.675  10.678 -0.6291  0.1047 -0.2206
35332SOL    HW110681   7.796  11.611  10.737 -0.5858 -0.7132 -1.0596
35332SOL    HW210682   7.764  11.705  10.623  0.0002 -2.2290 -2.5235
35333SOL     OW10683   9.760  10.579   2.295 -0.2458  0.5349  0.1968
35333SOL    HW110684   9.685  10.607   2.243 -1.8521 -2.2527  0.7773
35333SOL    HW210685   9.722  10.552   2.379  1.4240 -0.7241  0.6022
35334SOL     OW10686  11.733   4.611   8.684  0.4493 -0.1575 -0.2159
35334SOL    HW110687  11.705   4.579   8.770 -0.4130  0.3272 -0.3089
35334SOL    HW210688  11.667   4.577   8.623 -0.1553  1.2763 -0.3914
35335SOL     OW10689   9.023   4.010   2.760 -0.4120  0.0446  0.4449
35335SOL    HW110690   8.970   4.090   2.753  0.7006  0.7334 -0.5937
35335SOL    HW210691   8.966   3.940   2.729 -0.2122  1.0327 -2.5435
35336SOL     OW10692   0.139   5.268   1.291 -0.1609 -0.2971 -0.0221
35336SOL    HW110693   0.066   5.272   1.352 -0.1078 -0.6693  0.0710
35336SOL    HW210694   0.181   5.184   1.309  0.3588 -0.0354  0.0067
35337SOL     OW10695   3.301  10.231   9.833 -0.2000 -0.6254  0.2697
35337SOL    HW110696   3.397  10.233   9.831 -0.1829 -0.6698  0.8577
35337SOL    HW210697   3.274  10.287   9.760  0.2770  1.8616  1.8727
35338SOL     OW10698   0.264   4.464   0.277 -0.4234  0.2325 -0.2643
35338SOL    HW110699   0.219   4.382   0.300 -0.6428  0.6037  0.7043
35338SOL    HW210700   0.292   4.500   0.362 -0.3894  1.1898 -0.6697
35339SOL     OW10701  10.040   3.592  10.789 -0.1074  0.3863 -0.2651
35339SOL    HW110702  10.020   3.661  10.852 -1.3659 -0.7877  0.6811
35339SOL    HW210703  10.115   3.625  10.740 -0.8193  2.5214 -0.0199
35340SOL     OW10704   1.622   9.487   0.048  0.3018  0.3409 -0.0198
35340SOL    HW110705   1.654   9.555   0.107  1.3481 -0.4667  0.3650
35340SOL    HW210706   1.546   9.450   0.093  0.5794  0.3109  0.4240
35341SOL     OW10707   5.387  10.788   1.719  0.1418  0.7514  0.4315
35341SOL    HW110708   5.402  10.697   1.695 -0.3621  0.9184 -0.5925
35341SOL    HW210709   5.292  10.798   1.719  0.2015  1.3996  0.0083
35342SOL     OW10710   7.823   7.686  11.740  0.0173 -0.0044  0.1752
35342SOL    HW110711   7.893   7.680  11.805 -0.2797 -0.8732  0.4279
35342SOL    HW210712   7.745   7.655  11.786 -0.0777 -1.2092 -0.7619
35343SOL     OW10713  11.340   1.329   3.450  0.4356  0.1576 -0.4726
35343SOL    HW110714  11.351   1.422   3.471  1.4113 -0.3636  1.5491
35343SOL    HW210715  11.376   1.320   3.362 -0.4610  1.8223 -1.0517
35344SOL     OW10716   9.293   7.579   0.913 -0.1928 -0.2097  0.0897
35344SOL    HW110717   9.382   7.567   0.881 -0.4128 -0.6475 -0.3700
35344SOL    HW210718   9.246   7.500   0.885 -1.0376  0.5739 -0.7772
35345SOL     OW10719   5.421   3.787   4.815  0.8955  0.5724 -0.3452
35345SOL    HW110720   5.454   3.699   4.797  0.9837  0.7744 -1.2296
35345SOL    HW210721   5.350   3.774   4.878 -0.5346 -0.3805 -2.0594
35346SOL     OW10722   9.351   1.969   1.548 -0.1086 -0.4432 -0.1603
35346SOL    HW110723   9.292   1.940   1.617 -0.2887  0.3517  0.0309
35346SOL    HW210724   9.414   2.026   1.593 -0.3498  0.2448 -0.6774
35347SOL     OW10725   4.198   3.132   9.789  0.2282 -0.4251 -0.2345
35347SOL    HW110726   4.186   3.038   9.800 -1.3435 -0.7429 -3.4139
35347SOL    HW210727   4.268   3.155   9.849  0.3142 -3.5117  1.0059
35348SOL     OW10728   9.659  10.561  10.881 -0.3199 -0.0756 -0.1466
35348SOL    HW110729   9.719  10.557  10.806 -0.6925 -1.5031 -0.3860
35348SOL    HW210730   9.716  10.550  10.958 -0.2126 -1.0927 -0.3578
35349SOL     OW10731   0.227   8.110  11.461  0.6219 -0.0676 -0.0210
35349SOL    HW110732   0.137   8.141  11.458  0.5646 -0.2969 -1.2957
35349SOL    HW210733   0.219   8.015  11.466  0.7958 -0.0721  0.1854
35350SOL     OW10734   7.856   3.839   8.434 -0.0653 -0.5483 -0.3859
35350SOL    HW110735   7.870   3.919   8.384 -0.9958 -1.1285 -1.6153
35350SOL    HW210736   7.911   3.773   8.391  0.7747 -0.5729  0.6767
35351SOL     OW10737   1.002   0.576   4.371 -0.7332 -0.4619 -0.7713
35351SOL    HW110738   1.018   0.504   4.432 -1.4746  1.1704  1.4988
35351SOL    HW210739   0.908   0.572   4.355 -0.7694 -0.0413 -0.6664
35352SOL     OW10740   1.313   3.428   5.097  0.1351 -0.3302  0.3803
35352SOL    HW110741   1.236   3.415   5.041 -0.2939 -0.0083  0.8864
35352SOL    HW210742   1.387   3.407   5.040 -0.3696 -1.9721  0.2658
35353SOL     OW10743   5.193   4.099  11.282  0.1668  0.2853  0.0220
35353SOL    HW110744   5.238   4.134  11.205 -0.8906 -0.0259 -0.7634
35353SOL    HW210745   5.228   4.011  11.292  2.3087  1.2261  1.5764
35354SOL     OW10746   0.251   2.647  11.623 -0.3368  0.4251 -0.2656
35354SOL    HW110747   0.156   2.642  11.634 -0.2607 -2.2034 -0.1137
35354SOL    HW210748   0.263   2.679  11.533 -1.4808 -1.5210 -1.1949
35355SOL     OW10749   5.214   3.083   1.456  0.0392  0.9388 -0.2131
35355SOL    HW110750   5.232   3.009   1.514 -1.0537 -0.6440 -1.7649
35355SOL    HW210751   5.211   3.045   1.368  2.3703  3.3559 -1.4880
35356SOL     OW10752   1.908   9.635  11.492  0.1524  0.2803 -0.0304
35356SOL    HW110753   1.952   9.709  11.535 -0.1870  0.7502 -0.4811
35356SOL    HW210754   1.869   9.585  11.564 -0.3840  1.0420  0.2163
35357SOL     OW10755  10.621   4.929  10.877  0.0372 -0.5428  0.4503
35357SOL    HW110756  10.678   4.988  10.925  0.6078 -1.4572  0.9333
35357SOL    HW210757  10.534   4.945  10.914 -0.0903  1.0406 -0.4717
35358SOL     OW10758   1.923   1.498   9.031 -0.5470  0.6940 -0.1452
35358SOL    HW110759   1.901   1.507   9.124  0.6301  0.0135  0.2166
35358SOL    HW210760   1.878   1.417   9.004 -2.1500  1.6896 -0.5913
35359SOL     OW10761   2.073  10.317   8.326 -0.2402 -0.2098 -0.0486
35359SOL    HW110762   2.028  10.244   8.368 -0.4165 -0.5117 -0.7470
35359SOL    HW210763   2.098  10.283   8.240  1.4558 -0.1047  0.3700
35360SOL     OW10764   3.377   2.168  11.335 -0.1153  0.7610  0.4893
35360SOL    HW110765   3.392   2.260  11.355  1.5942  0.8962 -1.1945
35360SOL    HW210766   3.461   2.135  11.304 -1.2490 -0.7432 -1.2550
35361SOL     OW10767   7.272   2.007   5.319  0.5563 -0.1083 -0.0544
35361SOL    HW110768   7.214   1.957   5.261  0.8910  0.1130 -0.5829
35361SOL    HW210769   7.309   1.941   5.377  1.6888 -0.6342 -1.3307
35362SOL     OW10770   5.410   2.691   3.106  0.5796  0.0506 -0.8643
35362SOL    HW110771   5.369   2.702   3.020  0.2402 -1.8039 -0.9709
35362SOL    HW210772   5.408   2.597   3.122  0.1539  0.4085  1.4404
35363SOL     OW10773   4.355   2.600   6.404 -0.2751 -0.0912 -0.3477
35363SOL    HW110774   4.272   2.592   6.452 -0.1002  0.1124 -0.0100
35363SOL    HW210775   4.405   2.666   6.453 -0.2354  0.3744 -1.0068
35364SOL     OW10776   7.899   0.685   9.294  0.2856  0.2492  0.0568
35364SOL    HW110777   7.978   0.643   9.259  0.2219  0.4647 -0.3558
35364SOL    HW210778   7.849   0.709   9.216  0.0078  0.4896  0.3072
35365SOL     OW10779   3.682  10.284   0.236 -0.0763  0.3190 -0.6691
35365SOL    HW110780   3.649  10.198   0.210  0.6298  0.0906 -0.8222
35365SOL    HW210781   3.629  10.308   0.312  0.7333 -0.9276  0.3211
35366SOL     OW10782   8.015   4.389   3.752  0.4212  0.6277  0.0749
35366SOL    HW110783   7.923   4.370   3.773 -0.4200  3.7083 -0.3558
35366SOL    HW210784   8.061   4.375   3.835 -0.4940 -0.4452  0.4351
35367SOL     OW10785   6.147   1.638   3.474 -0.1822  0.3978 -0.0016
35367SOL    HW110786   6.105   1.722   3.495  1.1603  0.9102  0.7002
35367SOL    HW210787   6.074   1.582   3.448 -1.0008  2.1102 -1.6744
35368SOL     OW10788   6.344   4.678   7.366 -0.3367 -1.5537  0.2640
35368SOL    HW110789   6.354   4.673   7.461 -2.1122  3.0160  0.9829
35368SOL    HW210790   6.259   4.640   7.348 -1.6320  0.7150  1.1903
35369SOL     OW10791   0.173  11.889   6.714  0.2191 -0.2521 -0.2294
35369SOL    HW110792   0.267  11.884   6.734  0.0427 -1.3484  0.4073
35369SOL    HW210793   0.169  11.886   6.618  0.8590  0.5203 -0.2945
35370SOL     OW10794   8.620   3.631   8.770 -0.3673 -0.8437 -0.4823
35370SOL    HW110795   8.695   3.572   8.760 -0.3616 -0.5786 -2.5738
35370SOL    HW210796   8.615   3.677   8.686 -2.8386 -0.8019 -0.3851
35371SOL     OW10797   5.052   0.845   6.040 -0.7083 -0.0891 -0.0904
35371SOL    HW110798   5.044   0.866   5.947  1.1468 -0.5882 -0.4224
35371SOL    HW210799   4.972   0.797   6.061 -0.8780 -0.5270 -1.6034
35372SOL     OW10800   0.532   7.541   8.397  1.0177  0.2720  0.0134
35372SOL    HW110801   0.463   7.604   8.375 -1.6373 -2.1183  0.7936
35372SOL    HW210802   0.585   7.535   8.317  1.0211  2.9593 -0.2705
35373SOL     OW10803   5.207   8.900   9.011  0.3369  0.1051 -0.5903
35373SOL    HW110804   5.222   8.994   9.014 -0.7227  0.2785 -0.5139
35373SOL    HW210805   5.163   8.880   9.094 -0.8380 -0.1971 -1.2641
35374SOL     OW10806  10.771   4.254   2.368 -0.4168 -0.3961 -0.5152
35374SOL    HW110807  10.858   4.218   2.380  0.4072  1.4154 -0.7142
35374SOL    HW210808  10.751   4.298   2.450 -0.3411  0.7732 -1.1077
35375SOL     OW10809   6.211   2.464   8.698 -0.6178  0.1685  0.2859
35375SOL    HW110810   6.150   2.420   8.639 -0.4316 -0.3107  0.4533
35375SOL    HW210811   6.156   2.526   8.746 -1.2237 -1.1618  1.3551
35376SOL     OW10812   0.061   0.289   8.448  0.3826  0.6728  0.1406
35376SOL    HW110813  -0.017   0.266   8.397 -0.2005  1.2124  0.7564
35376SOL    HW210814   0.096   0.368   8.407  1.2865 -0.2157 -0.8331
35377SOL     OW10815   2.716   6.583   7.536  0.4620  0.4011 -0.3667
35377SOL    HW110816   2.685   6.521   7.470  0.3926  0.5874 -0.5077
35377SOL    HW210817   2.786   6.536   7.582 -0.5568 -0.3329  0.4890
35378SOL     OW10818   7.120   9.929   3.534  0.1365  0.4696 -0.7080
35378SOL    HW110819   7.158   9.922   3.621  1.1642  1.2677 -1.0797
35378SOL    HW210820   7.033   9.889   3.543 -0.7692  2.5947  1.2812
35379SOL     OW10821   5.045   4.756   0.209  0.3923  0.7634 -0.0353
35379SOL    HW110822   5.056   4.732   0.301 -0.4113  1.0691  0.1463
35379SOL    HW210823   5.116   4.819   0.192  0.7652  0.4323  0.2657
35380SOL     OW10824   2.086   4.282   0.413  0.0329 -0.2417  0.5980
35380SOL    HW110825   2.172   4.287   0.453 -0.4916 -0.0628  1.7447
35380SOL    HW210826   2.025   4.287   0.487 -0.9592 -0.2359 -0.2026
35381SOL     OW10827   8.711  10.045   3.458  0.3744  0.4053 -0.6541
35381SOL    HW110828   8.633  10.057   3.405 -0.4629 -0.1911  0.4021
35381SOL    HW210829   8.688   9.975   3.520  1.5459  0.6047  0.0448
35382SOL     OW10830   8.696   2.502   7.930 -0.4166 -0.4327  0.3262
35382SOL    HW110831   8.606   2.469   7.923 -0.4088 -0.3172 -0.4134
35382SOL    HW210832   8.746   2.449   7.867 -0.0158 -0.3326  0.5554
35383SOL     OW10833   3.327   5.356   2.512  0.2267  0.2653  0.3871
35383SOL    HW110834   3.347   5.317   2.427 -0.6407  1.4690 -0.4192
35383SOL    HW210835   3.350   5.289   2.576 -1.4407 -1.6726 -0.9036
35384SOL     OW10836   7.782   8.362   7.580 -0.6207 -0.3081 -0.1666
35384SOL    HW110837   7.734   8.399   7.506  0.9293 -0.9458 -1.5537
35384SOL    HW210838   7.803   8.438   7.635 -0.5230  0.3860 -1.1430
35385SOL     OW10839  11.261   4.091   4.069 -0.3805  0.0095  0.6045
35385SOL    HW110840  11.259   4.184   4.046  1.8682  0.5333  2.1294
35385SOL    HW210841  11.349   4.078   4.104  0.0534 -3.1698 -1.3311
35386SOL     OW10842   7.354   4.460   0.282  0.6130  0.2385 -0.2633
35386SOL    HW110843   7.291   4.501   0.224 -0.5211  0.0973  0.8179
35386SOL    HW210844   7.363   4.522   0.355  2.3093  0.6033 -0.7206
35387SOL     OW10845   9.024   1.555  11.446 -0.2427 -0.0237 -0.0114
35387SOL    HW110846   8.981   1.631  11.408 -1.5091 -0.1367  1.1251
35387SOL    HW210847   8.959   1.485  11.442  0.6363 -0.8430 -0.3453
35388SOL     OW10848   5.136   4.522   2.903  0.0296  0.1021 -0.2581
35388SOL    HW110849   5.221   4.480   2.920  0.0548  0.4834  0.5727
35388SOL    HW210850   5.130   4.592   2.968 -0.4618  0.7524 -0.9864
35389SOL     OW10851   2.013   5.876   9.662 -0.0551  0.2040  0.3008
35389SOL    HW110852   2.008   5.813   9.734  2.0797 -0.8269 -0.3710
35389SOL    HW210853   2.063   5.950   9.698  1.0743 -0.3421 -0.0945
35390SOL     OW10854   9.193   1.252   9.724 -0.4948  0.0960  0.3095
35390SOL    HW110855   9.249   1.204   9.663 -0.0082  0.1273  0.7282
35390SOL    HW210856   9.207   1.208   9.808 -0.1668  0.8760  0.6651
35391SOL     OW10857   3.642  11.349   7.968 -0.3178 -0.6910  0.0027
35391SOL    HW110858   3.570  11.381   8.022 -0.4157 -1.4348  0.3202
35391SOL    HW210859   3.708  11.419   7.974 -0.5369 -0.5320  0.6626
35392SOL     OW10860  11.124  11.994   0.175 -0.0107 -0.1928 -0.0730
35392SOL    HW110861  11.190  11.953   0.232 -0.7462 -0.0965  0.8740
35392SOL    HW210862  11.041  11.979   0.220 -0.4988  0.7635 -0.6280
35393SOL     OW10863   5.446   1.493   8.966  0.2759  0.5187 -0.1538
35393SOL    HW110864   5.513   1.555   8.939  1.2761 -0.6238 -0.4029
35393SOL    HW210865   5.494   1.425   9.013 -0.0563 -2.2997 -3.5001
35394SOL     OW10866  11.085   7.857   6.491  0.9506 -0.1494 -0.0923
35394SOL    HW110867  11.151   7.803   6.535 -0.0748 -0.0124  1.6980
35394SOL    HW210868  11.066   7.927   6.554 -1.0120 -0.2855 -0.4819
35395SOL     OW10869   6.753  11.412   6.673  0.2416 -0.1988 -0.6238
35395SOL    HW110870   6.674  11.365   6.701 -0.2486  1.8434  1.8215
35395SOL    HW210871   6.721  11.474   6.607 -0.4029  0.9485  0.6891
35396SOL     OW10872   4.858   8.990  11.031 -0.0351  0.0772  0.4849
35396SOL    HW110873   4.932   8.955  10.981 -0.5145 -0.3563  0.0648
35396SOL    HW210874   4.844   9.078  10.994  0.4119  0.2485  0.7212
35397SOL     OW10875   1.656   3.028  10.371 -0.2238 -0.2276  0.5715
35397SOL    HW110876   1.674   2.953  10.429 -0.7754  0.4400  1.6242
35397SOL    HW210877   1.570   3.010  10.334  0.4715 -1.0679 -0.7508
35398SOL     OW10878   0.576  11.468   5.143  0.0605 -0.0596  0.0027
35398SOL    HW110879   0.627  11.475   5.062  1.8134 -1.5272  0.9045
35398SOL    HW210880   0.513  11.399   5.125 -3.9902  3.7570 -2.1903
35399SOL     OW10881   9.643   6.301   8.181 -0.4569  0.3725 -0.3626
35399SOL    HW110882   9.605   6.270   8.098  1.1981 -0.3028 -0.9080
35399SOL    HW210883   9.706   6.234   8.205 -1.1548  0.3652  1.6886
35400SOL     OW10884  10.095   3.869   5.049 -0.0292 -0.4058 -0.1542
35400SOL    HW110885  10.171   3.866   5.107 -1.0685 -0.6052  1.2417
35400SOL    HW210886  10.133   3.881   4.962  1.5160  1.1633  0.6677
35401SOL     OW10887  10.694   1.172   0.678 -0.2147  0.3970  0.5419
35401SOL    HW110888  10.737   1.132   0.602  0.0966 -3.0423  2.3236
35401SOL    HW210889  10.666   1.258   0.647 -0.5016 -0.9488 -3.5877
35402SOL     OW10890   5.359   2.384   6.618 -0.1690  0.0487  0.3986
35402SOL    HW110891   5.406   2.466   6.635 -0.8274  0.0724  2.3904
35402SOL    HW210892   5.391   2.324   6.685  0.9490 -1.6640 -1.5567
35403SOL     OW10893   8.469   5.724   0.843  0.4408  0.2572  0.1189
35403SOL    HW110894   8.421   5.747   0.763  1.1479 -0.3150 -0.4853
35403SOL    HW210895   8.404   5.680   0.898  0.1454 -0.0897 -0.4923
35404SOL     OW10896   2.065   6.797   4.090  0.5689  0.2557 -1.2306
35404SOL    HW110897   2.071   6.736   4.017  0.3556 -0.3770 -0.7330
35404SOL    HW210898   2.056   6.741   4.168  2.4019  0.8552 -0.5323
35405SOL     OW10899   3.366   9.410  11.374  0.6218 -0.2189 -0.3536
35405SOL    HW110900   3.432   9.468  11.413  0.1156 -0.5131  0.9716
35405SOL    HW210901   3.325   9.366  11.448 -0.8296 -0.3091 -1.1742
35406SOL     OW10902   9.138   2.610  11.506  0.7838 -0.2556  0.1957
35406SOL    HW110903   9.117   2.661  11.428  1.9004 -0.5744 -0.3232
35406SOL    HW210904   9.140   2.675  11.577 -1.1686 -0.0992  0.1693
35407SOL     OW10905   0.467   4.888   0.795 -0.0142  0.8542  0.1061
35407SOL    HW110906   0.405   4.890   0.723 -0.6816  1.2554  0.6772
35407SOL    HW210907   0.430   4.948   0.860  0.8121  0.8620  0.5840
35408SOL     OW10908  10.808   3.871   1.609 -0.2964 -0.0701  0.9523
35408SOL    HW110909  10.825   3.959   1.642  0.7108  0.7870 -1.6168
35408SOL    HW210910  10.734   3.882   1.549  0.2122 -0.8441  0.1622
35409SOL     OW10911   9.759   1.553   2.817 -0.4283  0.1420  0.4026
35409SOL    HW110912   9.687   1.609   2.787 -1.2947 -1.1044  0.1102
35409SOL    HW210913   9.809   1.534   2.737 -1.4234 -1.2986  0.0834
35410SOL     OW10914   6.444  11.945   5.597  0.1381 -0.0967 -0.1034
35410SOL    HW110915   6.476  11.925   5.509  1.1276 -1.5933  0.5673
35410SOL    HW210916   6.519  11.980   5.643 -0.3999  0.7630  0.1405
35411SOL     OW10917   8.952   2.235   3.626 -0.2610  0.2544  0.1395
35411SOL    HW110918   9.010   2.276   3.690 -0.1131  0.5753 -0.1884
35411SOL    HW210919   8.980   2.144   3.622  1.9473  0.9047 -1.8250
35412SOL     OW10920   1.559  11.335   5.934  0.3838  0.1140  0.0752
35412SOL    HW110921   1.468  11.366   5.937  0.1805 -0.4919  0.2395
35412SOL    HW210922   1.591  11.347   6.023  0.7114  1.0323 -0.1519
35413SOL     OW10923   7.001   7.773   4.587 -0.3777 -0.2251 -0.0039
35413SOL    HW110924   7.008   7.722   4.507 -0.3127  1.3198 -1.0229
35413SOL    HW210925   7.074   7.835   4.582 -1.5143  1.1773  0.2773
35414SOL     OW10926   1.769   4.826  11.498  0.6211 -0.5427 -0.5470
35414SOL    HW110927   1.673   4.828  11.489  0.4649 -3.4398 -0.2093
35414SOL    HW210928   1.800   4.789  11.416  1.3011 -1.4658  0.1124
35415SOL     OW10929  10.913   7.646   7.089  0.0551 -0.1714 -0.1325
35415SOL    HW110930  10.909   7.614   6.999 -2.5568 -0.6355  0.0589
35415SOL    HW210931  10.981   7.593   7.131  0.1195 -1.1398 -1.4092
35416SOL     OW10932   9.027   7.669  10.112  0.4666 -0.0567  0.1675
35416SOL    HW110933   8.978   7.703  10.188 -0.4653 -1.5600  0.2863
35416SOL    HW210934   9.091   7.609  10.150 -0.1574 -0.9941 -0.2056
35417SOL     OW10935   4.162  10.244   7.831 -0.1680  0.1957 -0.0972
35417SOL    HW110936   4.180  10.245   7.925 -0.3714 -0.1034 -0.0518
35417SOL    HW210937   4.068  10.224   7.825 -0.5004  1.7217 -0.3255
35418SOL     OW10938  11.827   9.838   6.660  0.4684  0.4221  0.1734
35418SOL    HW110939  11.830   9.746   6.688 -1.2288  0.5414  0.9121
35418SOL    HW210940  11.839   9.887   6.741 -1.5478  0.8027  0.2861
35419SOL     OW10941   4.322   1.097   4.266 -0.0223 -0.1380  0.3425
35419SOL    HW110942   4.401   1.148   4.283 -1.2036  1.9668 -0.2463
35419SOL    HW210943   4.255   1.161   4.244 -1.0869 -2.0011 -2.4715
35420SOL     OW10944   2.027   9.044   1.465  0.4946 -1.0356 -0.4744
35420SOL    HW110945   2.117   9.011   1.466  1.3480  1.1436  0.6410
35420SOL    HW210946   2.031   9.125   1.415 -0.5189 -0.1364  0.8330
35421SOL     OW10947   2.956   1.937   2.923 -0.2885  0.3592  0.3363
35421SOL    HW110948   2.892   1.972   2.861 -1.2100 -0.7377  0.6413
35421SOL    HW210949   2.921   1.959   3.009  1.2933  2.4303  0.5449
35422SOL     OW10950  10.874   5.337  10.772 -0.1850  0.6805  0.3703
35422SOL    HW110951  10.921   5.420  10.776  0.5657  0.3557 -1.1109
35422SOL    HW210952  10.916   5.288  10.702 -1.7702 -0.2356 -0.0111
35423SOL     OW10953  11.690  11.466  11.590 -0.6672  0.4792  0.0433
35423SOL    HW110954  11.772  11.426  11.615 -0.9303 -0.4052 -0.4717
35423SOL    HW210955  11.666  11.522  11.664 -0.2950 -0.3091  0.7667
35424SOL     OW10956   4.354   5.755   0.831 -0.4211 -0.2196  0.2010
35424SOL    HW110957   4.325   5.745   0.921 -0.7277  0.5083  0.1856
35424SOL    HW210958   4.319   5.839   0.803  0.2503 -0.1233 -0.3802
35425SOL     OW10959   7.221   2.629   4.948 -0.0603  0.7909  0.2494
35425SOL    HW110960   7.257   2.576   5.019 -0.3155  0.8776  0.4419
35425SOL    HW210961   7.211   2.568   4.875 -2.8878 -0.1019  1.2454
35426SOL     OW10962   0.951  11.725  11.129 -0.2119 -0.0040  0.4998
35426SOL    HW110963   0.992  11.773  11.057  2.7711  0.9612  2.6812
35426SOL    HW210964   0.870  11.692  11.091  0.4736  1.6823 -2.8589
35427SOL     OW10965   9.677   8.796   6.686  0.2639  0.2482 -0.6216
35427SOL    HW110966   9.595   8.747   6.683  0.7806 -0.7231  0.4120
35427SOL    HW210967   9.667   8.864   6.619 -0.8588 -0.6476 -1.3969
35428SOL     OW10968  10.144   0.604   2.144  0.2019  0.3851 -0.0244
35428SOL    HW110969  10.106   0.658   2.074  0.7334  0.9998  0.1518
35428SOL    HW210970  10.230   0.578   2.110  0.3792  0.5187  0.3184
35429SOL     OW10971   3.832   0.754   1.054  0.3984 -0.2879  0.2191
35429SOL    HW110972   3.861   0.818   1.119  1.0001  1.3801 -1.5917
35429SOL    HW210973   3.745   0.726   1.085  1.5437 -1.2992  2.8753
35430SOL     OW10974   1.974   6.434   5.548 -0.1093 -0.4557 -0.2579
35430SOL    HW110975   1.930   6.362   5.504 -0.7290 -0.8460  0.9551
35430SOL    HW210976   1.917   6.510   5.531  0.5626 -0.2192 -1.5631
35431SOL     OW10977   3.586   3.789   1.417  0.7520  0.7199 -0.1210
35431SOL    HW110978   3.521   3.728   1.382 -0.8073  1.4706  1.3445
35431SOL    HW210979   3.666   3.738   1.421  0.2610 -0.2968 -1.8178
35432SOL     OW10980   6.185   1.199   0.167 -0.0479  0.5990 -0.2059
35432SOL    HW110981   6.153   1.209   0.078 -1.5121  1.8470  0.4255
35432SOL    HW210982   6.156   1.112   0.194  1.2263 -0.1817 -1.2254
35433SOL     OW10983   4.241  11.490  10.705  0.0946  0.5626  0.5788
35433SOL    HW110984   4.324  11.443  10.718 -1.7081 -2.3739  2.7780
35433SOL    HW210985   4.245  11.563  10.767  0.6400 -0.1457  1.3977
35434SOL     OW10986  10.755   1.979   6.754 -0.1009 -0.8346 -0.0565
35434SOL    HW110987  10.670   1.946   6.726 -0.3980 -1.0818  1.0763
35434SOL    HW210988  10.751   2.073   6.739 -0.3706 -0.9166 -0.5046
35435SOL     OW10989  10.358   3.849   6.307  0.4150 -0.1835 -0.5599
35435SOL    HW110990  10.348   3.889   6.394 -0.7861 -0.5739 -0.4930
35435SOL    HW210991  10.443   3.806   6.310 -0.1510 -1.2954  0.9049
35436SOL     OW10992   7.064  11.305   9.330  0.3792  0.3017  0.5092
35436SOL    HW110993   7.058  11.400   9.319 -1.1504  0.1974  0.1962
35436SOL    HW210994   7.026  11.289   9.416 -1.8945 -0.2087 -0.4976
35437SOL     OW10995   2.912   4.471   3.936 -0.1824 -0.0719  0.1630
35437SOL    HW110996   2.956   4.542   3.982 -1.0785  0.2672  0.5193
35437SOL    HW210997   2.828   4.461   3.982 -0.4520 -0.7367 -0.4593
35438SOL     OW10998   7.595   1.993   8.485 -0.0543 -0.0602 -0.1054
35438SOL    HW110999   7.608   2.055   8.557  1.0552 -1.0534  0.5775
35438SOL    HW211000   7.501   1.974   8.488 -0.0486 -0.0293  1.0508
35439SOL     OW11001   9.925   7.655  10.859 -0.2563 -0.6390 -0.1357
35439SOL    HW111002   9.907   7.666  10.766 -1.5229 -1.0131  0.0511
35439SOL    HW211003   9.988   7.583  10.863  0.5013 -0.0360 -0.7402
35440SOL     OW11004   8.964   9.853   9.419 -0.1245  0.0824  0.1140
35440SOL    HW111005   8.924   9.859   9.506 -0.5661 -2.4215  0.1365
35440SOL    HW211006   8.894   9.820   9.363  0.3681  0.9833 -1.0738
35441SOL     OW11007   6.995   3.219   2.166  0.5654 -0.3037 -0.1653
35441SOL    HW111008   6.954   3.295   2.125 -0.4518 -0.0277  1.2846
35441SOL    HW211009   6.978   3.146   2.106  1.2611  0.5226 -1.4029
35442SOL     OW11010   0.483   1.229   6.099 -0.1668 -0.7324  0.5543
35442SOL    HW111011   0.439   1.236   6.014 -0.2858 -1.7346  0.5176
35442SOL    HW211012   0.497   1.135   6.110  1.4820 -0.4721  0.8243
35443SOL     OW11013   4.991   5.901   6.102 -0.2773 -0.0802 -0.1327
35443SOL    HW111014   4.967   5.809   6.113  0.3326 -0.2511 -0.2277
35443SOL    HW211015   5.019   5.907   6.010  3.8624 -0.7880  0.9005
35444SOL     OW11016   7.280   1.341   9.585 -0.0825 -0.1497 -0.0022
35444SOL    HW111017   7.284   1.434   9.560  0.1199  0.0903  0.8834
35444SOL    HW211018   7.364   1.305   9.557 -0.6343 -0.3747 -1.4619
35445SOL     OW11019  10.638  11.011   2.352 -0.5985  0.0082 -0.4268
35445SOL    HW111020  10.664  11.036   2.440 -0.4355 -2.2166  0.2024
35445SOL    HW211021  10.542  11.014   2.353 -0.6398 -1.1361  0.2041
35446SOL     OW11022   3.621   8.396   9.769  0.1171 -0.1113  0.1902
35446SOL    HW111023   3.619   8.365   9.859 -1.9595 -1.6975 -0.3051
35446SOL    HW211024   3.627   8.491   9.775  0.0970 -0.2010  1.9674
35447SOL     OW11025   4.720  11.568  11.098  0.1282 -0.1369 -0.0769
35447SOL    HW111026   4.718  11.660  11.071 -2.5024 -0.3668 -0.9965
35447SOL    HW211027   4.779  11.526  11.036  1.2164  0.8758  0.2382
35448SOL     OW11028  10.327   0.243   7.968 -0.4707  0.0789  0.1089
35448SOL    HW111029  10.363   0.294   8.040 -2.2564  2.0603 -0.3101
35448SOL    HW211030  10.401   0.233   7.907  1.2468 -2.1959  2.3656
35449SOL     OW11031   4.306   1.373   7.199  0.1205  0.0487  0.6801
35449SOL    HW111032   4.224   1.415   7.225  0.5285  0.3801  1.4810
35449SOL    HW211033   4.297   1.358   7.105 -0.9436 -0.1157  0.7937
35450SOL     OW11034   6.387  11.620   1.897  0.1306 -0.2708  0.0008
35450SOL    HW111035   6.462  11.680   1.901 -0.2424  0.1267  2.3647
35450SOL    HW211036   6.332  11.656   1.827  0.7244  1.1932  0.2404
35451SOL     OW11037   1.054   6.989   2.927 -0.4742 -0.0783  0.8362
35451SOL    HW111038   1.018   6.911   2.886 -2.8318  1.0659  0.5506
35451SOL    HW211039   1.044   6.974   3.021  0.2927 -0.6228  0.8428
35452SOL     OW11040   3.804   6.540   4.893  0.2854 -0.7999 -0.6055
35452SOL    HW111041   3.756   6.571   4.969  0.9403  0.1283 -0.5518
35452SOL    HW211042   3.785   6.604   4.824  1.1201 -0.6145 -0.6866
35453SOL     OW11043   6.252   5.021   3.989 -0.1357 -0.9774 -0.3191
35453SOL    HW111044   6.271   5.021   4.083  0.9705 -0.0625 -0.5135
35453SOL    HW211045   6.169   5.068   3.982  1.1832  1.5969  0.0168
35454SOL     OW11046   9.515   8.894   9.432 -0.0083  0.1678 -0.3388
35454SOL    HW111047   9.487   8.813   9.390 -0.5701  0.4940 -0.6083
35454SOL    HW211048   9.486   8.886   9.523 -0.8052  0.4074 -0.5613
35455SOL     OW11049   7.699   1.309   1.824  0.1643 -0.4441  0.1748
35455SOL    HW111050   7.625   1.302   1.764  0.5094 -0.3297 -0.2699
35455SOL    HW211051   7.663   1.287   1.910 -0.7944  1.2621  0.2632
35456SOL     OW11052   8.644   2.151   7.662 -0.5035 -0.7066  0.2925
35456SOL    HW111053   8.702   2.079   7.638 -0.7075 -0.3612 -1.3706
35456SOL    HW211054   8.697   2.229   7.650 -0.9003 -0.4716  0.0412
35457SOL     OW11055  10.027  11.195   7.281  0.0936  0.3697 -0.5509
35457SOL    HW111056  10.105  11.210   7.335 -0.1385 -0.8808  0.1612
35457SOL    HW211057  10.022  11.100   7.271 -1.4539  0.4068 -0.4227
35458SOL     OW11058   6.187   9.824   9.464 -0.6849  0.3413 -0.0670
35458SOL    HW111059   6.131   9.794   9.393 -0.1255 -0.1485 -0.3116
35458SOL    HW211060   6.276   9.797   9.438 -0.3155  1.2229  0.2443
35459SOL     OW11061   8.032   3.224   4.739  0.1807 -0.0566 -0.0042
35459SOL    HW111062   8.096   3.287   4.705 -0.6866 -0.0505 -1.7457
35459SOL    HW211063   8.078   3.140   4.736 -0.0265 -0.1489 -1.8196
35460SOL     OW11064   0.376   0.787   0.563  0.0551  0.1660  0.2490
35460SOL    HW111065   0.315   0.745   0.624 -0.1575  1.7448  1.1610
35460SOL    HW211066   0.413   0.714   0.512  2.2784 -1.6376  4.0097
35461SOL     OW11067  11.026   4.354   0.102  0.8904  0.6296 -0.2096
35461SOL    HW111068  11.024   4.313   0.188 -0.1761 -0.6087 -0.7895
35461SOL    HW211069  11.113   4.334   0.067  1.7512  2.1006  0.9906
35462SOL     OW11070   3.325   2.862   1.779  0.0429 -0.9566  0.4756
35462SOL    HW111071   3.232   2.842   1.782 -0.8065  2.2967 -0.1668
35462SOL    HW211072   3.345   2.867   1.685  0.7938 -1.3494  0.6098
35463SOL     OW11073   5.775   5.027   7.224 -0.9219 -0.1776  0.4154
35463SOL    HW111074   5.710   4.996   7.160 -0.9988  0.0451  0.3847
35463SOL    HW211075   5.776   5.122   7.213  0.1913 -0.2596 -0.3326
35464SOL     OW11076   1.139   1.762  11.296 -0.2132 -0.2355 -0.5521
35464SOL    HW111077   1.137   1.686  11.354 -2.1227  0.9416  1.0983
35464SOL    HW211078   1.198   1.823  11.340 -1.9904  0.8270  0.5375
35465SOL     OW11079   9.909   4.302   4.437 -0.2627  0.3890  0.0045
35465SOL    HW111080   9.968   4.360   4.388  1.1878 -1.3221 -0.4023
35465SOL    HW211081   9.961   4.273   4.512 -1.9048  1.6805  1.7137
35466SOL     OW11082  11.766   6.896   9.374  0.5408  0.5691 -0.2583
35466SOL    HW111083  11.849   6.933   9.343  1.1170 -0.8676 -0.5375
35466SOL    HW211084  11.700   6.955   9.340  1.2925  0.2329 -2.5173
35467SOL     OW11085   0.677   1.896  11.690 -0.2279  0.5822 -0.2659
35467SOL    HW111086   0.612   1.942  11.636 -1.0729  0.5771  0.7217
35467SOL    HW211087   0.706   1.961  11.753 -0.6308  0.0780  0.4542
35468SOL     OW11088   1.350   8.693   1.121  0.0208  0.1423 -0.3178
35468SOL    HW111089   1.292   8.629   1.081  1.1060 -0.9795 -0.1739
35468SOL    HW211090   1.422   8.702   1.058  1.0511 -0.5918  0.7214
35469SOL     OW11091  10.532  10.430  10.236  0.4940 -0.2321  0.0600
35469SOL    HW111092  10.441  10.414  10.259  0.1447  0.0116 -1.0979
35469SOL    HW211093  10.576  10.347  10.253 -0.1215 -0.6221 -0.2134
35470SOL     OW11094  10.915   5.742   2.376 -0.0047  0.3180 -0.4267
35470SOL    HW111095  10.844   5.693   2.417  0.3123  0.6705  0.5665
35470SOL    HW211096  10.873   5.818   2.337 -0.1079  0.8579  0.7057
35471SOL     OW11097   7.158   6.095   9.682  0.2536  0.0407 -0.2179
35471SOL    HW111098   7.064   6.096   9.669  0.3375 -1.1316 -1.1567
35471SOL    HW211099   7.174   6.022   9.741  0.4665  1.2174  1.2364
35472SOL     OW11100   2.018   8.994  10.495  0.3552  0.0540  0.4474
35472SOL    HW111101   1.986   9.070  10.447  0.1775 -0.0596  0.3856
35472SOL    HW211102   2.109   8.985  10.468  0.0381 -0.4873 -0.4715
35473SOL     OW11103   1.993   7.600   6.605 -0.5329  0.1438 -0.5829
35473SOL    HW111104   1.994   7.590   6.700  1.7265  1.7744 -0.3471
35473SOL    HW211105   1.954   7.687   6.591 -1.3577 -0.3160 -1.2076
35474SOL     OW11106   4.648  10.514  10.482 -0.1459  0.2758  0.2253
35474SOL    HW111107   4.658  10.423  10.512 -1.0603  0.6184  1.6500
35474SOL    HW211108   4.700  10.518  10.401  1.2746 -1.0701  1.0099
35475SOL     OW11109   3.526  10.007   7.024 -0.0714 -0.2873  0.0014
35475SOL    HW111110   3.603   9.988   7.077  0.9567  0.6735 -1.1017
35475SOL    HW211111   3.452   9.978   7.078  0.9938 -0.3791  1.4645
35476SOL     OW11112   6.293   1.676  11.586  0.6834 -0.1997  0.0086
35476SOL    HW111113   6.245   1.601  11.552  0.5846  0.3106 -0.9988
35476SOL    HW211114   6.377   1.640  11.614 -0.4652 -1.2268  2.4084
35477SOL     OW11115  10.543   0.795   3.402  0.2499 -0.1971  0.9112
35477SOL    HW111116  10.632   0.766   3.423 -0.0574 -1.5702  0.4488
35477SOL    HW211117  10.493   0.778   3.481  0.4858  1.0767  1.3561
35478SOL     OW11118   8.136   8.499   0.672 -0.4519 -0.4667 -0.1972
35478SOL    HW111119   8.175   8.415   0.645 -0.6548 -0.5610 -0.1983
35478SOL    HW211120   8.071   8.476   0.737 -0.2296 -0.2694  0.1005
35479SOL     OW11121   6.865   6.783   7.180  0.4255 -0.0348 -0.5707
35479SOL    HW111122   6.864   6.745   7.268  1.5799 -0.6421 -0.8045
35479SOL    HW211123   6.855   6.877   7.194  1.5205 -0.0382  0.2707
35480SOL     OW11124   7.651   7.522  10.539 -0.2786 -0.3821  0.9699
35480SOL    HW111125   7.741   7.541  10.512  0.3788  0.2526  3.3663
35480SOL    HW211126   7.613   7.476  10.464  1.7300  0.1584 -0.4739
35481SOL     OW11127   8.133   1.629   9.982 -0.8056 -0.1795  0.7972
35481SOL    HW111128   8.115   1.553  10.037  0.7280 -0.2985  1.1872
35481SOL    HW211129   8.156   1.699  10.044  0.6031 -0.2168  0.3489
35482SOL     OW11130   2.740   9.637   7.388  0.1215 -0.4572 -0.0527
35482SOL    HW111131   2.788   9.620   7.306 -0.3226 -1.5589 -0.0929
35482SOL    HW211132   2.661   9.684   7.360  0.2961 -0.2330 -0.1786
35483SOL     OW11133   4.663   4.411   6.603 -0.6374  0.0001 -0.3590
35483SOL    HW111134   4.702   4.376   6.684  1.0576  2.5411  0.0416
35483SOL    HW211135   4.715   4.372   6.533 -1.6237 -1.6121 -0.2649
35484SOL     OW11136   1.052   6.558   6.029  0.2340 -0.5904  0.4156
35484SOL    HW111137   1.054   6.643   5.986 -0.8241 -1.1773 -0.8934
35484SOL    HW211138   1.022   6.575   6.118 -1.0669  0.2897 -0.1696
35485SOL     OW11139   7.687  11.435   6.116 -0.0136 -0.1064 -0.2437
35485SOL    HW111140   7.754  11.498   6.143  0.3415  0.1265 -1.6024
35485SOL    HW211141   7.654  11.469   6.033 -0.8276 -0.9740 -0.2929
35486SOL     OW11142   8.821   1.596   6.999  0.2976 -0.1501 -0.4319
35486SOL    HW111143   8.845   1.551   6.918 -0.2930  0.0405 -0.7183
35486SOL    HW211144   8.871   1.678   6.996 -0.0487  0.0483 -0.8111
35487SOL     OW11145   4.388   0.043   0.226  0.5626  0.0491 -0.3488
35487SOL    HW111146   4.320   0.077   0.285  0.5297 -1.7136  0.6971
35487SOL    HW211147   4.363  -0.048   0.211  1.5762 -0.0444 -1.6695
35488SOL     OW11148  11.372   9.509   9.963  0.1413 -0.3220  0.2126
35488SOL    HW111149  11.376   9.492  10.058  0.9953 -0.2019  0.2095
35488SOL    HW211150  11.326   9.433   9.927  0.8758 -0.9726  0.5965
35489SOL     OW11151   1.044   2.749   5.334  0.1386  0.2357  0.7326
35489SOL    HW111152   1.017   2.660   5.356 -0.1162  0.3061  0.7068
35489SOL    HW211153   1.129   2.739   5.291  0.1095  0.0067  0.7309
35490SOL     OW11154   3.819   6.343  10.635 -0.0817  0.3738  0.3039
35490SOL    HW111155   3.799   6.394  10.557  1.5532 -0.6911 -0.8828
35490SOL    HW211156   3.733   6.318  10.670 -0.8560  1.5518 -0.6751
35491SOL     OW11157   0.614   6.264   7.692  0.4745  0.3098  0.5969
35491SOL    HW111158   0.553   6.222   7.632  0.7497 -1.0681  1.2564
35491SOL    HW211159   0.673   6.314   7.636  0.3375 -0.4430 -0.2219
35492SOL     OW11160   9.452  11.577   3.747  0.6399 -0.1258  0.2888
35492SOL    HW111161   9.434  11.484   3.759 -3.1109  0.7165  2.6693
35492SOL    HW211162   9.466  11.610   3.835  1.3626  1.7036 -0.4648
35493SOL     OW11163   5.715   6.297   2.081  0.3684 -0.7360  0.1177
35493SOL    HW111164   5.664   6.294   2.000 -1.7226  0.8750  1.2724
35493SOL    HW211165   5.744   6.387   2.088  2.0036 -1.2492  0.3502
35494SOL     OW11166   1.846   9.237   6.280 -0.2690  0.0985  0.3145
35494SOL    HW111167   1.806   9.152   6.259  0.5396 -0.7199  1.9200
35494SOL    HW211168   1.932   9.215   6.314 -0.3925  1.5029  1.6395
35495SOL     OW11169   5.204   6.510   7.683  0.1638  0.7149  0.0236
35495SOL    HW111170   5.273   6.460   7.726 -1.4968 -0.3627  1.5278
35495SOL    HW211171   5.215   6.490   7.590  2.2452  1.0798  0.1499
35496SOL     OW11172  10.212  10.349   6.674 -0.7300  0.2413 -0.0651
35496SOL    HW111173  10.256  10.363   6.758 -0.8434  2.2981 -0.2946
35496SOL    HW211174  10.176  10.261   6.680  0.6449 -0.2685  1.3976
35497SOL     OW11175   1.349  10.804   0.654  0.0948  0.0860  0.0470
35497SOL    HW111176   1.268  10.765   0.621  1.0299 -1.2148 -0.7987
35497SOL    HW211177   1.349  10.893   0.617 -1.0315  0.1749  0.2350
35498SOL     OW11178   6.798   9.984   9.343 -0.3472  0.9880 -0.6454
35498SOL    HW111179   6.802   9.924   9.270 -0.2665  1.5146 -1.0809
35498SOL    HW211180   6.717  10.034   9.329 -0.5235  0.8427 -0.1751
35499SOL     OW11181  10.250   1.257   5.307 -0.2146  0.4010 -0.1946
35499SOL    HW111182  10.297   1.176   5.328 -0.3348 -0.2093 -2.0965
35499SOL    HW211183  10.316   1.326   5.315 -0.1911  0.2005  1.7772
35500SOL     OW11184   8.623   1.637   7.184  0.8155 -0.3010 -0.1212
35500SOL    HW111185   8.667   1.609   7.264 -0.2408 -0.8120  0.2958
35500SOL    HW211186   8.689   1.624   7.115  2.1077  1.1469  0.7738
35501SOL     OW11187   3.381   1.322   7.940 -0.1039 -0.1885  0.5020
35501SOL    HW111188   3.298   1.360   7.913  0.8501 -0.5882 -3.5286
35501SOL    HW211189   3.357   1.238   7.980 -1.6931  0.5881  1.2665
35502SOL     OW11190   7.544   8.337   3.238 -0.1346  0.0418  0.3068
35502SOL    HW111191   7.605   8.398   3.197  0.6378 -0.7122  0.3064
35502SOL    HW211192   7.584   8.317   3.323  0.4810 -1.7228 -0.3625
35503SOL     OW11193   4.336   5.611   3.259  0.2824  0.2515 -0.0157
35503SOL    HW111194   4.337   5.566   3.343 -0.9340 -0.9876 -0.6156
35503SOL    HW211195   4.325   5.703   3.280  1.8666  0.1858  1.2317
35504SOL     OW11196   6.401   1.650   3.346 -0.5416 -0.0831 -0.6836
35504SOL    HW111197   6.457   1.710   3.394 -1.2046  0.0493 -0.0458
35504SOL    HW211198   6.322   1.643   3.400 -1.5338  0.4809 -1.9993
35505SOL     OW11199  10.568   0.877   2.690  0.0473 -0.2238 -0.0042
35505SOL    HW111200  10.605   0.853   2.604 -0.6478  0.3422 -0.4727
35505SOL    HW211201  10.597   0.807   2.748  2.7507  0.6847 -0.0893
35506SOL     OW11202   8.208   3.926   3.800 -0.0663 -0.2566 -0.3142
35506SOL    HW111203   8.154   3.991   3.844  2.1498  0.6086  1.3563
35506SOL    HW211204   8.235   3.967   3.719 -0.9279 -0.2386 -0.6011
35507SOL     OW11205   2.523   3.197   3.659 -0.0130 -0.0970 -0.2930
35507SOL    HW111206   2.440   3.153   3.677  0.2673 -0.8836 -0.8668
35507SOL    HW211207   2.504   3.290   3.672 -0.8980 -0.2885 -0.1261
35508SOL     OW11208   9.823   7.448   8.431 -0.2110 -0.2224 -0.1857
35508SOL    HW111209   9.839   7.427   8.339 -0.3034 -0.9854 -0.0345
35508SOL    HW211210   9.763   7.523   8.428  1.8941  1.5766 -0.7571
35509SOL     OW11211   2.293   8.383   0.219 -0.2246 -0.0388 -0.1566
35509SOL    HW111212   2.221   8.363   0.277  0.3444  0.8101  0.8768
35509SOL    HW211213   2.303   8.478   0.224  1.1015 -0.1557 -0.1026
35510SOL     OW11214   6.739   1.572   0.411 -0.0710 -0.0323 -0.5519
35510SOL    HW111215   6.655   1.529   0.424 -0.7991  1.6403  0.5280
35510SOL    HW211216   6.720   1.666   0.417  2.0062  0.3701  0.7737
35511SOL     OW11217  10.150   6.837   0.932  0.3513  0.6986 -0.1876
35511SOL    HW111218  10.120   6.901   0.867 -0.2016 -1.1663 -1.8567
35511SOL    HW211219  10.116   6.753   0.901  0.5633 -0.3711  2.2351
35512SOL     OW11220   0.756   6.940   1.794  0.2706 -0.2287 -0.5259
35512SOL    HW111221   0.728   7.017   1.745 -0.9853 -1.0756 -1.1922
35512SOL    HW211222   0.740   6.867   1.735  3.5630 -0.8764 -0.7931
35513SOL     OW11223   7.795   0.377   3.773 -0.5374  0.4910  0.1729
35513SOL    HW111224   7.720   0.436   3.779 -1.3223 -0.4681 -0.0823
35513SOL    HW211225   7.767   0.297   3.818 -0.3173 -0.5234 -1.4324
35514SOL     OW11226   7.755   7.727   1.739 -0.5107 -0.0878 -0.1743
35514SOL    HW111227   7.837   7.753   1.697 -0.3813 -1.2080 -0.6356
35514SOL    HW211228   7.691   7.725   1.667 -0.5192 -1.0247 -0.1486
35515SOL     OW11229   8.305   3.706   6.617 -0.3288 -0.4173 -0.0208
35515SOL    HW111230   8.332   3.798   6.607  0.4921 -0.5368  0.9030
35515SOL    HW211231   8.256   3.687   6.537  0.0356  0.6389 -0.5262
35516SOL     OW11232   4.475   9.956   4.255 -0.1618  0.0285 -0.1448
35516SOL    HW111233   4.544   9.927   4.195  0.0936  0.4486 -0.0560
35516SOL    HW211234   4.406   9.891   4.245  0.2251 -0.3639 -0.2754
35517SOL     OW11235   5.719   3.007   4.542 -0.2149 -0.0364 -0.9246
35517SOL    HW111236   5.647   2.956   4.504 -0.1460 -0.2824 -0.7292
35517SOL    HW211237   5.772   3.033   4.467 -0.7894  0.5912 -1.1244
35518SOL     OW11238   6.803   6.755  11.900  0.2613 -0.8382  0.1548
35518SOL    HW111239   6.775   6.835  11.945 -0.5840 -2.0613  1.9422
35518SOL    HW211240   6.898   6.766  11.887 -0.0917  1.0873 -1.0858
35519SOL     OW11241   6.101   4.657  10.855  0.0340  0.5003  0.5691
35519SOL    HW111242   6.023   4.630  10.903  0.5129 -3.3549 -0.4928
35519SOL    HW211243   6.168   4.593  10.881  0.8518 -0.5704 -3.5628
35520SOL     OW11244  10.980   2.023   3.043  0.4968  0.0839  0.2051
35520SOL    HW111245  10.903   2.059   3.086 -0.1524 -0.1987 -0.6801
35520SOL    HW211246  11.044   2.094   3.044 -0.4150  0.9371 -0.6452
35521SOL     OW11247   9.994   9.581  11.688 -0.3305 -0.3402 -0.2400
35521SOL    HW111248   9.926   9.540  11.742 -1.7395  0.6626 -1.1616
35521SOL    HW211249  10.062   9.606  11.749 -1.8254  0.6822  1.1008
35522SOL     OW11250   7.563   0.377   5.830 -0.1373 -0.2262  0.2846
35522SOL    HW111251   7.478   0.337   5.812  0.0808 -0.7575  0.4329
35522SOL    HW211252   7.610   0.312   5.882  0.8721 -0.5000 -0.9212
35523SOL     OW11253   6.111  10.837   5.390  0.0270  0.0041  0.0041
35523SOL    HW111254   6.191  10.810   5.346  2.3093  2.8182  2.0006
35523SOL    HW211255   6.098  10.928   5.364 -0.6557  0.5910  2.1244
35524SOL     OW11256   0.242   0.964   2.902 -0.0338 -0.0032 -0.1671
35524SOL    HW111257   0.309   0.912   2.946 -1.0362 -0.4790  0.8386
35524SOL    HW211258   0.283   1.049   2.887  0.9109 -0.3988  0.0937
35525SOL     OW11259   1.517  11.844   4.256  0.4104 -0.2573 -0.2461
35525SOL    HW111260   1.575  11.920   4.250  0.4130  0.0276  2.1676
35525SOL    HW211261   1.485  11.846   4.346 -2.5984 -0.9772 -1.1894
35526SOL     OW11262  11.928  11.569  10.722  0.2088 -0.5256  0.5900
35526SOL    HW111263  11.922  11.614  10.807  1.5087  0.7954  0.0268
35526SOL    HW211264  11.999  11.506  10.734  1.1833  0.4600  0.1772
35527SOL     OW11265   8.178  10.492   3.894 -0.1877  0.2937 -0.0550
35527SOL    HW111266   8.092  10.523   3.862  0.2237  0.8082 -0.6919
35527SOL    HW211267   8.173  10.397   3.888 -1.1516  0.2480  1.0632
35528SOL     OW11268   7.894   9.220  10.440  0.1024 -0.6213  0.3725
35528SOL    HW111269   7.847   9.303  10.449 -1.0809 -1.2313  0.1134
35528SOL    HW211270   7.929   9.203  10.528 -0.1407 -0.1261  0.5720
35529SOL     OW11271  10.060   7.793   7.123  0.9715 -0.1721  0.0239
35529SOL    HW111272  10.148   7.764   7.149  0.3008 -0.6322  1.9124
35529SOL    HW211273  10.022   7.830   7.202 -0.1026  1.2181 -1.0794
35530SOL     OW11274   9.349   3.258   2.738 -0.1003  0.4878 -0.3115
35530SOL    HW111275   9.378   3.207   2.663  1.6038  0.3194  0.4286
35530SOL    HW211276   9.312   3.338   2.700  0.8378  0.4527 -1.3326
35531SOL     OW11277   0.829   9.475   5.507  0.4978  0.0605  0.5832
35531SOL    HW111278   0.894   9.459   5.576  1.5459 -1.7627 -0.7436
35531SOL    HW211279   0.882   9.499   5.431 -0.1814 -2.7536 -0.9048
35532SOL     OW11280  11.862   3.289   9.534  0.2980 -0.1854 -0.5011
35532SOL    HW111281  11.880   3.335   9.451 -1.2598  2.3601  0.4676
35532SOL    HW211282  11.791   3.229   9.512  0.9100 -0.6425 -1.3204
35533SOL     OW11283  11.658  10.963   9.975 -0.4322  0.2215  0.2292
35533SOL    HW111284  11.663  10.891   9.913 -0.3255 -0.1798  0.7045
35533SOL    HW211285  11.701  11.036   9.930  1.7612 -0.6923  0.7290
35534SOL     OW11286   0.799   4.420  11.822  0.0031  0.1576 -0.3014
35534SOL    HW111287   0.776   4.406  11.914 -2.4873  1.0074 -0.7198
35534SOL    HW211288   0.894   4.434  11.823 -0.0626  0.9498  2.2330
35535SOL     OW11289   1.167   1.863   2.323  0.0001 -0.1841  0.2831
35535SOL    HW111290   1.147   1.945   2.369  0.0234 -0.5662  0.9937
35535SOL    HW211291   1.246   1.882   2.273  0.8912 -0.1866  1.6276
35536SOL     OW11292   8.199   8.609  10.361 -0.3359  0.0724 -0.1150
35536SOL    HW111293   8.188   8.615  10.456 -1.2222  0.0596 -0.2074
35536SOL    HW211294   8.243   8.690  10.336 -0.9771  0.5207  0.1882
35537SOL     OW11295   3.291  11.311   8.531 -0.6200 -0.6192  0.6502
35537SOL    HW111296   3.371  11.264   8.556 -0.6515  0.2205  2.4739
35537SOL    HW211297   3.285  11.299   8.437  2.4417  0.4460  0.2007
35538SOL     OW11298   7.980   7.740   5.077 -0.4130  0.1793 -0.4286
35538SOL    HW111299   8.069   7.714   5.102  0.7778  1.9442 -2.5173
35538SOL    HW211300   7.958   7.685   5.002 -0.8456  0.1630 -0.2940
35539SOL     OW11301   5.910   0.229   0.716  0.3635  0.1125 -0.0393
35539SOL    HW111302   5.971   0.219   0.643 -0.2356  0.7200 -0.6441
35539SOL    HW211303   5.964   0.224   0.794  1.1036  0.0729 -0.5470
35540SOL     OW11304   5.477   9.631   1.293  0.0580 -0.5292  0.0206
35540SOL    HW111305   5.522   9.633   1.378 -0.8399 -0.8271  0.5265
35540SOL    HW211306   5.391   9.669   1.312  0.5272  1.2373 -1.1959
35541SOL     OW11307   1.535   3.115   3.722  0.4897  0.1711  0.3635
35541SOL    HW111308   1.594   3.141   3.652  0.9163 -0.6197  0.4237
35541SOL    HW211309   1.454   3.163   3.704  1.0488  1.0594  0.1395
35542SOL     OW11310   0.691   0.557   8.439 -0.0817 -0.1870 -0.9604
35542SOL    HW111311   0.709   0.511   8.357  0.3835 -0.6881 -0.5820
35542SOL    HW211312   0.654   0.641   8.411 -0.1309 -0.4373 -1.6767
35543SOL     OW11313   4.853   4.532  10.501  0.3246  0.1050 -0.0076
35543SOL    HW111314   4.811   4.614  10.475 -2.8995 -1.2624  0.4086
35543SOL    HW211315   4.831   4.523  10.594 -0.0875 -1.6055 -0.2471
35544SOL     OW11316   1.408   8.505   0.313  0.0619 -0.0838 -0.1948
35544SOL    HW111317   1.438   8.449   0.242 -1.2307  0.2203 -1.0290
35544SOL    HW211318   1.464   8.582   0.309  1.0893 -0.7821  0.2215
35545SOL     OW11319   2.443   9.775   4.736  0.2228  0.3247  0.0538
35545SOL    HW111320   2.391   9.850   4.764 -0.4937  0.8457 -2.4586
35545SOL    HW211321   2.524   9.813   4.702 -0.9137  0.2809 -3.0426
35546SOL     OW11322   5.433  11.445  11.942  0.9847  0.2831 -0.5378
35546SOL    HW111323   5.487  11.429  12.019  0.2041  0.2041  0.0031
35546SOL    HW211324   5.443  11.539  11.925 -0.9891  0.9167  1.3524
35547SOL     OW11325   9.786   0.902   0.688 -0.5310  0.3604 -0.0327
35547SOL    HW111326   9.842   0.835   0.648 -0.1387  0.5582  0.1850
35547SOL    HW211327   9.744   0.857   0.761 -1.6223 -0.1435 -0.9205
35548SOL     OW11328   6.467   0.353   8.575 -0.1719  0.2956  0.1063
35548SOL    HW111329   6.485   0.439   8.615  0.2598  0.1181  0.3037
35548SOL    HW211330   6.552   0.308   8.577 -0.0481  0.4301 -1.3896
35549SOL     OW11331   9.953  11.936   4.112  0.5514 -0.5820 -0.6096
35549SOL    HW111332   9.953  11.893   4.026 -0.5552  0.6004 -1.2396
35549SOL    HW211333  10.038  11.979   4.118  0.4980 -0.3749 -1.2772
35550SOL     OW11334   2.876   5.304   9.151  0.0995  0.1123  0.4629
35550SOL    HW111335   2.965   5.325   9.178  0.3235  0.1720 -0.3214
35550SOL    HW211336   2.884   5.225   9.099 -0.2911  0.1922  0.2795
35551SOL     OW11337   0.682   1.571   5.691 -0.1228 -0.3960  0.4295
35551SOL    HW111338   0.623   1.600   5.760  0.5346  1.6736  0.1861
35551SOL    HW211339   0.635   1.588   5.610  0.2783  0.0573  0.2842
35552SOL     OW11340   2.529   6.411  11.741  0.6161  0.2685  0.0768
35552SOL    HW111341   2.553   6.490  11.790  1.1547  0.0825  0.1275
35552SOL    HW211342   2.524   6.343  11.807  0.3552  0.2177  0.0051
35553SOL     OW11343   1.144   4.182   4.707  0.4573 -0.1780 -0.3005
35553SOL    HW111344   1.176   4.202   4.795 -1.6199  0.9230  0.2698
35553SOL    HW211345   1.169   4.091   4.692 -0.6458 -0.9715  2.1711
35554SOL     OW11346   9.522   7.040   3.941  0.0643 -0.0924  0.2171
35554SOL    HW111347   9.543   7.116   3.997  1.2038  0.5291 -1.0041
35554SOL    HW211348   9.563   6.966   3.986  1.6141  0.5180 -0.1434
35555SOL     OW11349   0.107   9.912  11.722 -0.2219  0.4418 -0.0498
35555SOL    HW111350   0.192   9.883  11.688 -0.1920  0.3396  0.1101
35555SOL    HW211351   0.112  10.007  11.721 -0.7868  0.4794 -1.7665
35556SOL     OW11352   7.151   0.102  11.435 -0.4801 -0.1881 -0.0979
35556SOL    HW111353   7.176   0.022  11.388  1.5478 -1.9896  3.5887
35556SOL    HW211354   7.229   0.158  11.430 -0.4511 -0.1617  0.5761
35557SOL     OW11355   1.277   0.264   7.283  0.4090 -0.3931  0.2204
35557SOL    HW111356   1.344   0.208   7.321  1.7863 -0.6237 -2.3246
35557SOL    HW211357   1.324   0.340   7.250 -0.9723  0.6805  0.6212
35558SOL     OW11358  11.350   3.248   2.110 -0.4205 -0.5127 -0.1965
35558SOL    HW111359  11.411   3.276   2.041  0.3418 -1.9893 -0.1696
35558SOL    HW211360  11.403   3.193   2.168 -1.5229 -0.9175  0.4543
35559SOL     OW11361   0.195   8.204   4.345  0.1496  0.6958 -0.3113
35559SOL    HW111362   0.177   8.170   4.433 -2.2560 -0.9743 -1.3567
35559SOL    HW211363   0.276   8.162   4.319 -0.8403 -1.4720 -0.1133
35560SOL     OW11364   3.356  11.357   4.011 -0.3626 -0.0373  0.1559
35560SOL    HW111365   3.263  11.339   4.027 -0.7614  1.9259  0.3092
35560SOL    HW211366   3.360  11.452   3.998  1.4365 -0.2579 -1.2472
35561SOL     OW11367   6.270   4.959   5.446 -0.2286 -0.2538 -0.6722
35561SOL    HW111368   6.265   4.912   5.363 -0.6611 -3.3810  0.9882
35561SOL    HW211369   6.211   4.912   5.504 -1.3285  2.9161  0.9940
35562SOL     OW11370   9.515   2.115   2.403  0.7938 -0.1778  0.3800
35562SOL    HW111371   9.426   2.139   2.376  0.9010  1.7497  1.5337
35562SOL    HW211372   9.504   2.084   2.493  1.4032  1.1906  0.9474
35563SOL     OW11373   9.800  11.078   3.152 -0.1415 -0.1873  0.2698
35563SOL    HW111374   9.809  11.136   3.227  0.5210 -0.2609  0.2511
35563SOL    HW211375   9.842  11.124   3.080  0.1149 -0.5479  0.1816
35564SOL     OW11376  10.796   1.036   3.310  0.0776 -0.2422 -0.2935
35564SOL    HW111377  10.812   0.948   3.343  2.0182  0.2399  0.2326
35564SOL    HW211378  10.808   1.093   3.387 -1.0809  0.4862 -0.6363
35565SOL     OW11379   7.802   1.450  11.256  0.3830 -0.1754  0.2322
35565SOL    HW111380   7.786   1.371  11.204  0.1133  0.0131  0.0279
35565SOL    HW211381   7.806   1.419  11.346  2.0194 -0.6876  0.0264
35566SOL     OW11382   4.629   9.567   1.983  0.0845  0.2932 -0.3445
35566SOL    HW111383   4.679   9.521   2.050  0.9854  1.5978 -0.0755
35566SOL    HW211384   4.696   9.605   1.926 -0.6480 -1.1304 -2.2601
35567SOL     OW11385   6.761   2.057   4.919  0.1366 -0.3547 -0.2697
35567SOL    HW111386   6.737   2.097   4.836 -1.6216  1.2278  0.9283
35567SOL    HW211387   6.745   2.125   4.985  1.0586 -1.6834  1.4246
35568SOL     OW11388   8.233  11.449   9.226 -0.4291  0.4091  0.0542
35568SOL    HW111389   8.313  11.395   9.225 -0.2722  0.5927  0.9413
35568SOL    HW211390   8.187  11.421   9.305 -0.0372  1.9860  0.8822
35569SOL     OW11391   7.914  11.795   5.867  0.0482 -0.8089  0.9122
35569SOL    HW111392   7.823  11.815   5.846  0.7621  2.0898  0.0819
35569SOL    HW211393   7.923  11.701   5.850 -2.4150 -0.8957 -0.2995
35570SOL     OW11394   3.460   9.782   1.312  0.0120 -0.3903 -0.3160
35570SOL    HW111395   3.545   9.796   1.354  0.2569 -0.0227 -0.9263
35570SOL    HW211396   3.411   9.862   1.331 -0.2104 -0.6142  0.0597
35571SOL     OW11397   1.665   6.403   4.485  0.4117  0.0411 -0.4328
35571SOL    HW111398   1.739   6.343   4.480  1.8256  1.5867  0.5970
35571SOL    HW211399   1.655   6.438   4.396  0.0794 -1.1009 -0.8539
35572SOL     OW11400   8.439   6.467   1.124 -0.4001 -0.2064  0.2307
35572SOL    HW111401   8.478   6.480   1.211  0.3261 -0.7452 -0.0038
35572SOL    HW211402   8.345   6.463   1.141 -0.3780  1.2011  0.7994
35573SOL     OW11403   4.362   2.641   6.806 -0.0122  0.1518 -0.0986
35573SOL    HW111404   4.361   2.640   6.902  0.5516 -0.7076 -0.1026
35573SOL    HW211405   4.318   2.560   6.781  0.8742 -0.1975 -0.5563
35574SOL     OW11406  11.864  10.195   8.118 -0.0890  0.0080  0.3267
35574SOL    HW111407  11.770  10.176   8.114 -0.2202  0.5328  0.8673
35574SOL    HW211408  11.872  10.286   8.091  0.1207  0.3578  1.5017
35575SOL     OW11409  11.137   7.712   9.091 -0.1132  0.1468 -0.4355
35575SOL    HW111410  11.079   7.727   9.016  0.6716 -0.8215 -1.2593
35575SOL    HW211411  11.215   7.764   9.072 -0.8575  1.8443  0.9119
35576SOL     OW11412  10.333   3.396   7.316  0.0431  0.3695  0.1771
35576SOL    HW111413  10.390   3.471   7.297 -0.7317  0.6053 -1.3644
35576SOL    HW211414  10.392   3.321   7.318  0.7659  0.9357  1.3088
35577SOL     OW11415   7.837   9.227   0.374 -0.2524  0.0030 -0.5236
35577SOL    HW111416   7.795   9.256   0.455 -0.6610 -4.1066  0.9967
35577SOL    HW211417   7.929   9.216   0.398 -0.0916  0.1952 -1.0614
35578SOL     OW11418   3.962   6.281   7.470 -0.0373 -0.1382  0.1460
35578SOL    HW111419   4.014   6.359   7.492  0.7239 -0.2128 -1.3039
35578SOL    HW211420   3.872   6.312   7.471  0.2390  0.7068 -0.1259
35579SOL     OW11421   3.578   3.688   9.567  0.2955  0.0881  0.3277
35579SOL    HW111422   3.530   3.673   9.486 -2.2610 -0.2896  1.8081
35579SOL    HW211423   3.661   3.641   9.555 -0.3449 -0.6136 -1.7324
35580SOL     OW11424   6.632   1.716   3.833 -0.1075 -0.0887 -0.1050
35580SOL    HW111425   6.642   1.638   3.779  1.2127 -0.0790  0.0824
35580SOL    HW211426   6.719   1.730   3.871 -0.9053  0.0921  1.7588
35581SOL     OW11427   6.423   6.818  11.810  0.2306  0.2757  0.1945
35581SOL    HW111428   6.356   6.880  11.780  0.8197  0.3173 -1.1119
35581SOL    HW211429   6.475   6.800  11.732  2.1966  0.8027  1.3075
35582SOL     OW11430   5.317   0.937   5.551 -0.4894 -0.3441  0.2067
35582SOL    HW111431   5.268   0.881   5.490 -0.3755 -0.6236  0.3678
35582SOL    HW211432   5.358   1.003   5.496 -0.9742 -0.1639  0.0612
35583SOL     OW11433   8.818   2.437  11.160  0.6850  0.1235  0.2889
35583SOL    HW111434   8.899   2.488  11.163  0.9128 -0.2430  0.5460
35583SOL    HW211435   8.848   2.347  11.147  0.2707  0.1031 -0.5308
35584SOL     OW11436   4.607  10.621   4.398 -0.6613 -0.5492 -0.5616
35584SOL    HW111437   4.671  10.657   4.337  2.1340 -1.5160  1.5917
35584SOL    HW211438   4.568  10.698   4.439  0.8049  0.0856 -0.3032
35585SOL     OW11439   7.127  11.486  11.399 -0.0332 -0.1093 -0.3090
35585SOL    HW111440   7.070  11.409  11.403  0.5724 -0.5772 -0.4258
35585SOL    HW211441   7.121  11.525  11.486  1.8349 -1.9191  0.7228
35586SOL     OW11442   7.600   1.397   2.744  0.0449 -0.7436  0.9031
35586SOL    HW111443   7.687   1.416   2.708 -0.5899  1.1854  0.2345
35586SOL    HW211444   7.593   1.454   2.821 -0.3542 -1.4362  1.3852
35587SOL     OW11445   2.901   1.980  10.573  0.7076 -0.1789  0.4751
35587SOL    HW111446   2.984   1.954  10.534  0.1011 -0.1060 -0.9592
35587SOL    HW211447   2.858   2.032  10.505 -0.8779 -0.9454  0.8166
35588SOL     OW11448   9.344   6.158   6.601  0.6910  0.0837  0.0162
35588SOL    HW111449   9.403   6.091   6.635  0.6965  0.2160  0.2695
35588SOL    HW211450   9.262   6.144   6.649 -0.4411 -1.9110 -2.2790
35589SOL     OW11451  11.919   9.452   1.315  0.1033  0.1983 -0.1643
35589SOL    HW111452  11.832   9.448   1.356  0.9965  0.8117  1.9375
35589SOL    HW211453  11.956   9.534   1.346  1.8987 -0.6388  0.0280
35590SOL     OW11454  11.670  11.421   8.995 -0.3052  0.2820  0.2148
35590SOL    HW111455  11.592  11.365   8.999 -1.2727  1.4498 -0.9703
35590SOL    HW211456  11.655  11.488   9.062 -0.1008  0.2445  0.2983
35591SOL     OW11457   7.832   7.984   1.066 -0.1814  0.4546 -0.6320
35591SOL    HW111458   7.817   7.963   1.158 -1.2267 -0.3007 -0.9536
35591SOL    HW211459   7.922   8.017   1.063  0.2023 -0.4290  0.5019
35592SOL     OW11460  10.525   5.258   9.264  0.0298  0.1231 -0.1420
35592SOL    HW111461  10.555   5.190   9.203 -2.8018 -0.1061 -1.4922
35592SOL    HW211462  10.579   5.246   9.342  0.8679 -2.5053 -1.0010
35593SOL     OW11463   7.802   5.121   3.718 -0.2092  0.0508 -0.1248
35593SOL    HW111464   7.745   5.093   3.789  0.3861 -0.3938  0.1888
35593SOL    HW211465   7.824   5.212   3.739  1.8060 -0.7263  1.5478
35594SOL     OW11466  10.785   1.957   9.564  0.1244 -0.0237 -0.3598
35594SOL    HW111467  10.750   1.968   9.653  0.2764 -0.6928 -0.2108
35594SOL    HW211468  10.741   2.024   9.512 -1.2136 -0.7072 -0.1380
35595SOL     OW11469   2.776   6.542   0.064  0.0447  0.1290  0.5774
35595SOL    HW111470   2.769   6.587   0.148 -0.1769  0.2503  0.4932
35595SOL    HW211471   2.706   6.579   0.011 -0.1294 -0.3046  0.5050
35596SOL     OW11472   9.163   7.436   3.862 -0.1971  0.1562 -0.2895
35596SOL    HW111473   9.240   7.489   3.883  0.3961 -0.4966 -0.7428
35596SOL    HW211474   9.172   7.417   3.768 -2.0980  1.9520 -0.8999
35597SOL     OW11475   4.320   5.414   7.452  0.5513 -0.1066 -0.0272
35597SOL    HW111476   4.384   5.389   7.517 -0.4021 -1.4386  0.4471
35597SOL    HW211477   4.243   5.360   7.471 -0.5611  1.0972 -0.8482
35598SOL     OW11478   0.693   9.401   4.831  0.0175  0.3839  0.0685
35598SOL    HW111479   0.683   9.305   4.832 -1.2822  0.4579  2.6855
35598SOL    HW211480   0.603   9.434   4.835  0.4983  1.6846  0.4694
35599SOL     OW11481   8.393   4.010   9.915 -0.1387 -0.0469  0.6790
35599SOL    HW111482   8.386   3.917   9.937 -1.0535 -0.1437  0.0061
35599SOL    HW211483   8.370   4.015   9.823 -0.0584  0.8549  0.6981
35600SOL     OW11484   5.223   7.561   2.565 -0.4450  0.7031  0.0274
35600SOL    HW111485   5.236   7.541   2.473  1.1652 -0.5435  0.4648
35600SOL    HW211486   5.135   7.528   2.585 -0.0618 -0.8189 -0.6358
35601SOL     OW11487   1.039   7.239  11.307 -0.3950 -0.1378  0.3563
35601SOL    HW111488   1.054   7.218  11.399 -1.6081  0.7861  0.7943
35601SOL    HW211489   0.965   7.183  11.282 -0.0922 -0.3606 -0.0583
35602SOL     OW11490   7.198   2.216   1.300  0.5080 -0.2312  0.1515
35602SOL    HW111491   7.285   2.244   1.273  0.9502 -2.6218 -1.1913
35602SOL    HW211492   7.166   2.163   1.227 -1.8170  0.0301  0.8891
35603SOL     OW11493   7.393   1.193  11.234  0.3588 -0.2360  0.1349
35603SOL    HW111494   7.343   1.267  11.200  0.1767 -0.1518  0.5781
35603SOL    HW211495   7.479   1.230  11.255  0.4289 -0.2601 -0.1044
35604SOL     OW11496   8.971   3.626   6.078 -0.9652  0.3193  0.7128
35604SOL    HW111497   8.939   3.674   6.155 -1.1284 -0.3501  1.0666
35604SOL    HW211498   9.023   3.555   6.114 -1.9674 -0.6810  0.2571
35605SOL     OW11499  11.436   3.380   5.037  0.3725  0.0848  0.0492
35605SOL    HW111500  11.429   3.355   4.945 -0.4903 -0.5204  0.2662
35605SOL    HW211501  11.347   3.405   5.062  0.3211 -1.0456  1.0723
35606SOL     OW11502   2.870   6.219   6.917 -0.2111 -0.7186  0.0881
35606SOL    HW111503   2.892   6.135   6.959  0.2449 -0.7959 -0.2934
35606SOL    HW211504   2.849   6.195   6.826  0.7968 -0.3271 -0.2649
35607SOL     OW11505   3.296  10.569   5.668 -0.1002  0.3298 -0.0296
35607SOL    HW111506   3.382  10.611   5.662 -0.2794  1.2546  2.5407
35607SOL    HW211507   3.242  10.615   5.604  1.1108  0.2236 -1.1671
35608SOL     OW11508   3.228   6.479   5.402  0.2434 -0.9960  0.4371
35608SOL    HW111509   3.287   6.434   5.342 -0.3992 -0.0290 -0.9569
35608SOL    HW211510   3.257   6.570   5.401  0.4379 -1.0179  1.8830
35609SOL     OW11511  10.929   8.225   3.437 -0.3756  0.8544 -0.4702
35609SOL    HW111512  10.962   8.214   3.526 -1.7504  1.3654  0.1254
35609SOL    HW211513  10.995   8.279   3.394  0.8795 -0.3290 -0.1410
35610SOL     OW11514   7.244   3.700  10.037  0.0880  0.3071 -0.3266
35610SOL    HW111515   7.190   3.642  10.091 -1.0565  0.0090 -1.7506
35610SOL    HW211516   7.185   3.771  10.012  0.8116  0.8182 -0.6193
35611SOL     OW11517   6.773   3.056  10.374 -0.1444  0.4112 -0.1855
35611SOL    HW111518   6.829   3.068  10.450 -0.5005  1.3301 -0.0630
35611SOL    HW211519   6.759   3.145  10.340 -0.7327  0.0972 -0.7828
35612SOL     OW11520   8.346  11.449   1.489  0.5834 -0.3715 -0.2710
35612SOL    HW111521   8.286  11.406   1.549 -1.7538 -0.1417 -2.2645
35612SOL    HW211522   8.357  11.537   1.525  0.7576 -0.8090  0.7745
35613SOL     OW11523   5.373   5.480   3.774 -0.0577 -0.1360  0.1016
35613SOL    HW111524   5.302   5.445   3.827 -0.8725  2.3400  0.7771
35613SOL    HW211525   5.449   5.477   3.830 -0.0713 -0.8917  0.0947
35614SOL     OW11526   4.241  10.366   5.175 -0.1188  0.2682  0.1969
35614SOL    HW111527   4.258  10.320   5.093 -0.3418  0.9595 -0.2430
35614SOL    HW211528   4.324  10.409   5.196 -0.0027 -0.0724  0.4431
35615SOL     OW11529   9.108  10.857   2.250  0.2851 -0.2291 -0.3989
35615SOL    HW111530   9.077  10.809   2.327 -1.2359  3.9909  1.9563
35615SOL    HW211531   9.188  10.811   2.223  0.2068 -2.6352  2.9134
35616SOL     OW11532   3.315   7.033   0.076 -0.4971  0.3814  0.4009
35616SOL    HW111533   3.270   7.110   0.110 -3.1273 -1.9040  2.5322
35616SOL    HW211534   3.254   6.995   0.013  0.6936 -0.0975 -0.5155
35617SOL     OW11535   3.673   6.177   5.762  0.0989  0.7411 -0.4650
35617SOL    HW111536   3.707   6.256   5.720  1.4182  0.3426 -0.2120
35617SOL    HW211537   3.715   6.176   5.848  0.3380 -0.3807 -0.5793
35618SOL     OW11538   6.696   1.033   7.875 -0.1676  0.5868  0.0412
35618SOL    HW111539   6.779   0.991   7.895  0.0994  1.0236 -0.1332
35618SOL    HW211540   6.719   1.123   7.852 -0.5880  0.4408 -1.0091
35619SOL     OW11541   7.953   6.333   9.411 -0.0745 -0.7770  0.0697
35619SOL    HW111542   7.934   6.381   9.330 -0.7155 -1.9689 -0.5195
35619SOL    HW211543   7.920   6.390   9.481 -1.1912 -0.5266 -0.6285
35620SOL     OW11544   0.058   6.472   4.500  0.8393  0.4043  0.4544
35620SOL    HW111545   0.059   6.381   4.473 -0.4590  0.2996  0.7003
35620SOL    HW211546   0.125   6.478   4.568  0.2549 -0.6121  1.1491
35621SOL     OW11547  11.408   0.189  11.389  0.0298 -0.7102  0.3203
35621SOL    HW111548  11.367   0.176  11.474 -1.0928 -1.7165 -0.3478
35621SOL    HW211549  11.495   0.223  11.409 -0.1736 -1.0440  1.8623
35622SOL     OW11550   1.898  11.072   4.529 -0.5888  0.3608  0.4958
35622SOL    HW111551   1.831  11.059   4.462  0.2718 -0.6079 -0.2044
35622SOL    HW211552   1.910  11.167   4.533 -0.9479  0.4489 -0.4091
35623SOL     OW11553   0.604   1.752   6.733 -0.6425 -0.4922  0.5974
35623SOL    HW111554   0.577   1.800   6.655  1.7476  0.7762  0.4496
35623SOL    HW211555   0.542   1.779   6.800 -1.1937  0.4101 -0.2504
35624SOL     OW11556  11.256   7.230   7.357  0.5788 -0.0326 -0.3751
35624SOL    HW111557  11.234   7.144   7.321 -0.7684 -0.7836  2.0244
35624SOL    HW211558  11.263   7.287   7.280  1.2194 -2.1938 -2.0061
35625SOL     OW11559   6.350   3.978   9.668 -0.0273  0.1174 -0.2283
35625SOL    HW111560   6.400   3.977   9.750  1.1479 -0.9372 -0.9195
35625SOL    HW211561   6.400   4.035   9.610  2.0793 -3.1062 -1.8561
35626SOL     OW11562   3.611   4.583   5.880 -0.3237  0.0783  0.7999
35626SOL    HW111563   3.548   4.512   5.866 -0.4284  0.3437 -0.1111
35626SOL    HW211564   3.694   4.547   5.850 -0.5738  0.6961 -0.7229
35627SOL     OW11565   7.505   8.877   8.340  0.0344  0.4577 -0.2455
35627SOL    HW111566   7.447   8.801   8.348 -0.1344  0.5606 -0.4926
35627SOL    HW211567   7.469   8.940   8.403 -1.9156  1.6630 -2.3953
35628SOL     OW11568   5.284   5.390  11.424 -0.4385  0.2702 -0.4636
35628SOL    HW111569   5.323   5.467  11.466  0.3154  0.5537 -1.6261
35628SOL    HW211570   5.225   5.426  11.358 -0.3821 -0.1425 -0.7428
35629SOL     OW11571   2.950   0.925   9.503  0.1193 -0.3636  0.2805
35629SOL    HW111572   2.978   1.017   9.500 -0.0886 -0.2005  2.0770
35629SOL    HW211573   2.887   0.917   9.431 -0.0709  0.9878  0.2575
35630SOL     OW11574   5.820   4.396   4.876 -0.8005  0.1351 -0.6506
35630SOL    HW111575   5.812   4.306   4.845  0.5336  0.2834 -1.5009
35630SOL    HW211576   5.819   4.449   4.796  0.1600  0.7282 -0.2888
35631SOL     OW11577  10.472   6.739  10.110  0.2620  0.6189  0.6174
35631SOL    HW111578  10.512   6.826  10.116  1.2920  0.2091 -0.1007
35631SOL    HW211579  10.432   6.725  10.196 -0.9570  2.2775  0.3828
35632SOL     OW11580   7.924   5.945   0.999 -0.5346  0.5628 -0.2769
35632SOL    HW111581   7.890   5.951   0.910  0.4134 -0.7981 -0.7755
35632SOL    HW211582   7.859   5.891   1.045  1.0091 -2.5115 -1.3725
35633SOL     OW11583   9.073   4.853   0.055  0.2185 -0.0295 -0.2722
35633SOL    HW111584   9.119   4.769   0.045  0.3937  0.1962 -1.5353
35633SOL    HW211585   8.991   4.841   0.007  0.5880  0.7589 -1.1380
35634SOL     OW11586   5.102   7.770   5.681  0.4020  0.5239  0.5296
35634SOL    HW111587   5.088   7.675   5.680 -0.2155  0.6140 -0.1521
35634SOL    HW211588   5.137   7.788   5.768  1.3610 -0.4476  0.3725
35635SOL     OW11589   7.652   8.570   1.060  0.2591 -0.5724 -0.5014
35635SOL    HW111590   7.726   8.521   1.096 -0.3825 -3.4551 -2.6788
35635SOL    HW211591   7.631   8.635   1.127  3.2069 -1.2000  1.2256
35636SOL     OW11592   2.171   2.370  11.705  0.6498  0.4734  0.2963
35636SOL    HW111593   2.120   2.291  11.720  1.3081 -0.3162 -1.4108
35636SOL    HW211594   2.106   2.436  11.678  0.4249 -0.3520 -1.2713
35637SOL     OW11595   9.073   1.757   8.122 -0.1907 -0.4493 -0.0581
35637SOL    HW111596   8.987   1.730   8.156  0.4960 -0.8084  1.4972
35637SOL    HW211597   9.130   1.758   8.199  1.5430 -1.5315 -1.2525
35638SOL     OW11598   0.790   8.614   7.687  0.3265  0.6227  0.0588
35638SOL    HW111599   0.846   8.666   7.629  1.6239  0.8470  1.4583
35638SOL    HW211600   0.787   8.528   7.645  0.1827  1.1128 -0.9843
35639SOL     OW11601  11.301   4.936   0.888 -0.5358  0.2648 -0.7426
35639SOL    HW111602  11.234   4.894   0.941  0.0203 -1.5362 -1.3892
35639SOL    HW211603  11.298   4.889   0.804  0.1842  1.4818 -1.4840
35640SOL     OW11604   1.194   7.031  10.465 -0.5813  0.0206 -0.4477
35640SOL    HW111605   1.159   7.043  10.553  0.3615 -0.5205  0.0184
35640SOL    HW211606   1.246   7.110  10.449 -1.2900  0.4248 -0.7938
35641SOL     OW11607   6.788   8.235   4.620 -0.0438 -0.2433  0.3607
35641SOL    HW111608   6.815   8.326   4.611  1.5327 -0.5656  1.3582
35641SOL    HW211609   6.754   8.211   4.534  0.1737  1.0885 -0.1116
35642SOL     OW11610   4.485   8.524   2.977  0.1771  0.0188 -0.2483
35642SOL    HW111611   4.433   8.593   2.935  0.0028 -0.3157 -0.5829
35642SOL    HW211612   4.429   8.492   3.048  1.5491  2.5431  2.1822
35643SOL     OW11613   8.225   4.322   4.870  0.5148 -0.0395 -0.4941
35643SOL    HW111614   8.303   4.350   4.917 -1.9920  3.8209  1.9834
35643SOL    HW211615   8.182   4.259   4.928 -0.6527  1.8005  0.7479
35644SOL     OW11616   8.816   4.044   3.903  0.5616 -0.1921 -0.0384
35644SOL    HW111617   8.761   4.109   3.946 -0.6305  0.0948 -1.8760
35644SOL    HW211618   8.766   3.962   3.909  1.3140 -0.6076  0.8404
35645SOL     OW11619   3.416   3.399   2.511  0.1646 -0.1228 -0.0584
35645SOL    HW111620   3.466   3.363   2.585 -0.7549 -0.9675  0.1768
35645SOL    HW211621   3.432   3.338   2.439  0.2696  0.1615 -0.2781
35646SOL     OW11622   7.674   3.794   4.260 -0.4072  0.3008  0.1265
35646SOL    HW111623   7.720   3.767   4.180  0.2789 -1.6663  1.1202
35646SOL    HW211624   7.740   3.786   4.329 -1.6139 -0.4120  1.2472
35647SOL     OW11625   5.372   2.983   7.817  0.2462 -0.0777  0.2979
35647SOL    HW111626   5.377   3.067   7.862 -1.1801  0.3830 -0.3487
35647SOL    HW211627   5.279   2.971   7.798  0.6698 -0.7002 -1.6686
35648SOL     OW11628  11.902  11.015   6.145 -0.5743  0.6052 -1.1305
35648SOL    HW111629  11.829  11.015   6.207 -0.9042  0.5486 -1.5159
35648SOL    HW211630  11.973  11.059   6.192 -0.4269 -0.5225 -0.2517
35649SOL     OW11631  11.027   9.672   8.682 -0.0662  0.1346 -0.0885
35649SOL    HW111632  11.010   9.586   8.643 -1.0910 -0.5052  1.6465
35649SOL    HW211633  11.118   9.692   8.659 -0.2600 -0.7390 -1.7211
35650SOL     OW11634  11.122  11.006  10.534 -0.3691 -0.3397  0.2372
35650SOL    HW111635  11.082  11.067  10.596  0.5373  1.4658 -0.8716
35650SOL    HW211636  11.049  10.971  10.484 -0.7423  2.1628 -1.1035
35651SOL     OW11637   8.120   2.528   6.409  0.1688 -0.6975 -0.1377
35651SOL    HW111638   8.065   2.604   6.428  0.6799 -0.4425  0.3472
35651SOL    HW211639   8.203   2.547   6.453  0.0890 -1.8258  0.5333
35652SOL     OW11640  10.009   7.807   0.071  0.4172 -0.3672  0.1793
35652SOL    HW111641  10.054   7.769  -0.004  0.7422 -0.2280  0.3029
35652SOL    HW211642   9.940   7.861   0.032  0.3603 -0.5775 -0.0099
35653SOL     OW11643   6.555   4.900   9.108  0.1682  0.3660  0.2402
35653SOL    HW111644   6.625   4.863   9.054  0.2835 -0.5571  0.9890
35653SOL    HW211645   6.559   4.994   9.091  1.4403  0.3042  0.0840
35654SOL     OW11646  11.874   2.587   4.561 -0.4139  0.5268  0.3652
35654SOL    HW111647  11.844   2.505   4.521  2.0207  0.1320 -0.8143
35654SOL    HW211648  11.951   2.612   4.510 -0.2242  2.7849  1.6396
35655SOL     OW11649   9.507   8.276   4.068  0.2464 -0.2292  0.3786
35655SOL    HW111650   9.464   8.287   3.983 -0.5541 -2.5178  0.3971
35655SOL    HW211651   9.587   8.327   4.062  0.5081 -0.8029 -1.9890
35656SOL     OW11652   1.374   8.866   2.117 -0.4363  0.1248  0.3260
35656SOL    HW111653   1.430   8.941   2.094 -1.5181  0.5908 -0.9029
35656SOL    HW211654   1.366   8.871   2.212 -1.7395  2.5299  0.1860
35657SOL     OW11655   8.949   7.066   5.296 -0.5050 -0.1663  0.0997
35657SOL    HW111656   8.910   7.061   5.208 -2.2131 -0.0088  0.8037
35657SOL    HW211657   8.919   7.150   5.331  0.4531 -0.0664  0.7053
35658SOL     OW11658   2.664  10.326   7.190 -0.7213 -0.6415  0.4741
35658SOL    HW111659   2.696  10.265   7.257 -3.5400 -0.4475  2.1435
35658SOL    HW211660   2.585  10.285   7.157  0.5548 -0.7094 -2.8600
35659SOL     OW11661   2.350   4.714   2.619 -0.1362  0.5552 -0.1577
35659SOL    HW111662   2.433   4.741   2.579  0.8321 -1.5278  0.2977
35659SOL    HW211663   2.288   4.782   2.594  1.6980  2.1761 -0.5253
35660SOL     OW11664   3.628   9.208  11.407 -0.2917  0.4630  0.5538
35660SOL    HW111665   3.633   9.116  11.380  0.1379  0.8511 -0.7365
35660SOL    HW211666   3.718   9.230  11.431 -0.0091  1.0907 -1.0261
35661SOL     OW11667   9.460   1.287   8.746  0.2462  0.1271  0.0968
35661SOL    HW111668   9.488   1.363   8.797  1.9505 -0.9261  0.8346
35661SOL    HW211669   9.470   1.314   8.655  0.6401  0.8578  0.3528
35662SOL     OW11670   0.193   6.275  10.238 -0.6039  0.2943  0.7132
35662SOL    HW111671   0.286   6.301  10.233 -0.3794 -0.5558  0.2571
35662SOL    HW211672   0.194   6.181  10.217 -1.2835 -0.3243  3.1914
35663SOL     OW11673  11.464   6.389  11.015  0.1550  0.1983 -0.2261
35663SOL    HW111674  11.495   6.302  11.039  2.2929  0.7936 -0.6251
35663SOL    HW211675  11.502   6.447  11.081 -0.6419  0.9272 -0.3874
35664SOL     OW11676   5.964   3.746   5.409  0.5560 -0.4623  0.0014
35664SOL    HW111677   5.955   3.735   5.503  0.8416  2.8276  0.5183
35664SOL    HW211678   5.902   3.682   5.371 -0.7755 -0.7293  2.4365
35665SOL     OW11679   3.714   1.980   9.407 -0.6456  0.2404 -0.1935
35665SOL    HW111680   3.673   2.061   9.437 -0.1900 -0.0879  1.3980
35665SOL    HW211681   3.661   1.911   9.447  1.6109 -0.2030  2.3157
35666SOL     OW11682   6.135   3.637   7.553 -0.2550 -0.3848  0.1630
35666SOL    HW111683   6.053   3.589   7.543  0.1257 -1.2966  1.2978
35666SOL    HW211684   6.175   3.601   7.632  0.7930  0.7118  0.1579
35667SOL     OW11685  10.921   2.327   8.018 -0.2380  0.5887  0.2934
35667SOL    HW111686  10.977   2.342   8.094  1.4632 -1.8656 -0.3270
35667SOL    HW211687  10.868   2.251   8.042  0.4787 -0.3655 -0.9541
35668SOL     OW11688   6.991  11.930  10.729  0.3495 -0.5234  0.3233
35668SOL    HW111689   6.964  11.920  10.637 -0.1063 -0.7147  0.4777
35668SOL    HW211690   6.958  12.015  10.755  1.8131  0.2286 -0.1452
35669SOL     OW11691   5.430   1.356   5.540  0.5707  0.7566  0.4189
35669SOL    HW111692   5.518   1.393   5.528  1.2657 -0.5765  1.1992
35669SOL    HW211693   5.423   1.339   5.634  0.0167 -0.4117  0.1890
35670SOL     OW11694   8.382  11.668  10.554 -0.5815  0.0023 -0.2025
35670SOL    HW111695   8.289  11.687  10.568  0.0796  2.1921  1.9114
35670SOL    HW211696   8.411  11.736  10.492  0.1711  1.1939  1.3953
35671SOL     OW11697  11.480   2.047  11.468 -0.2858 -0.0313 -0.3969
35671SOL    HW111698  11.549   2.039  11.402  2.9882  1.9290  2.4476
35671SOL    HW211699  11.509   1.991  11.540 -2.8960 -0.8433  0.1258
35672SOL     OW11700   9.271  11.317   8.117 -0.2118  0.6861  0.0241
35672SOL    HW111701   9.316  11.312   8.201 -0.8718 -0.5748  0.3323
35672SOL    HW211702   9.198  11.376   8.132  2.0888  4.0939 -0.9095
35673SOL     OW11703   6.214   6.430   8.986  0.9781  0.4708 -0.1027
35673SOL    HW111704   6.281   6.378   8.942  0.4416  0.6257 -1.1150
35673SOL    HW211705   6.244   6.434   9.077  1.0448 -1.5756  0.0019
35674SOL     OW11706  10.824   0.941   6.573 -0.1793 -0.2146 -0.0661
35674SOL    HW111707  10.783   1.023   6.600 -0.4762 -0.1365 -0.7440
35674SOL    HW211708  10.758   0.874   6.591  0.1095 -0.3282  0.6034
35675SOL     OW11709  11.243   1.000   5.134 -0.4796 -0.5804  0.1958
35675SOL    HW111710  11.201   0.973   5.215  0.5549  1.2652  1.4252
35675SOL    HW211711  11.321   0.946   5.128  1.5491  1.7932  2.6025
35676SOL     OW11712   5.990   7.156   2.049 -0.1998 -0.3209  0.0005
35676SOL    HW111713   5.913   7.143   1.994 -1.1707 -0.0844  1.2558
35676SOL    HW211714   6.057   7.099   2.011 -0.5567  0.4733 -1.9064
35677SOL     OW11715  11.459   9.031   5.998  0.2491  0.4029 -0.1881
35677SOL    HW111716  11.522   9.100   5.979 -0.4349  1.0858  0.0053
35677SOL    HW211717  11.485   8.998   6.084  0.8336  0.1199 -0.4670
35678SOL     OW11718   4.411   9.927   6.195 -0.1559  0.2950 -0.6880
35678SOL    HW111719   4.381   9.995   6.135  0.8683 -0.0348 -1.6201
35678SOL    HW211720   4.331   9.883   6.224 -0.7723  1.4432 -0.6221
35679SOL     OW11721   7.313   9.731   0.200 -1.0387  0.0296 -0.1710
35679SOL    HW111722   7.310   9.819   0.162 -2.7304  0.0419 -0.0547
35679SOL    HW211723   7.392   9.731   0.254  1.1178  0.2317 -3.0884
35680SOL     OW11724   4.094   3.284  11.252 -0.0313 -0.1236  0.0500
35680SOL    HW111725   4.177   3.332  11.242  0.7660 -1.1064  1.5642
35680SOL    HW211726   4.120   3.197  11.281 -1.6182 -0.4504  0.5847
35681SOL     OW11727   1.572  10.644   0.556  0.5517  0.1573  0.4808
35681SOL    HW111728   1.515  10.625   0.481 -0.0972  3.8220 -0.1296
35681SOL    HW211729   1.536  10.725   0.593  5.2085  2.7071  0.1043
35682SOL     OW11730   8.790   0.842   9.032 -0.3923 -0.1464 -0.1863
35682SOL    HW111731   8.870   0.878   8.993  0.5019 -0.7697  1.0155
35682SOL    HW211732   8.722   0.858   8.966  0.0304  3.2873  0.0622
35683SOL     OW11733   2.632   2.706   2.973 -0.0998  0.0357  0.3247
35683SOL    HW111734   2.686   2.628   2.986 -1.1173 -0.6547  0.5476
35683SOL    HW211735   2.676   2.754   2.903 -0.6667 -1.9294 -1.5271
35684SOL     OW11736   2.549   7.540   6.344 -0.4207  0.8498  0.1671
35684SOL    HW111737   2.489   7.612   6.323 -0.2901  0.0010 -4.1554
35684SOL    HW211738   2.493   7.475   6.387 -1.0896  2.4211  1.8310
35685SOL     OW11739  11.586   0.800   6.987  0.2172 -0.2454 -0.1760
35685SOL    HW111740  11.676   0.821   6.961  0.6166  0.3164  1.4877
35685SOL    HW211741  11.566   0.718   6.943  1.7345 -0.6416 -0.1737
35686SOL     OW11742   6.858   4.786   6.946 -0.0589  0.1947  0.0113
35686SOL    HW111743   6.929   4.760   6.886 -0.2310  1.1025 -0.5998
35686SOL    HW211744   6.814   4.704   6.967  0.9646 -0.3430  0.1366
35687SOL     OW11745   2.344   6.758   6.634 -0.0643  0.6430 -0.0622
35687SOL    HW111746   2.397   6.830   6.668 -0.3448  0.1045  1.6092
35687SOL    HW211747   2.391   6.678   6.660 -0.3106  0.1897 -0.9494
35688SOL     OW11748   6.109   0.364   1.238  0.4595  0.0595  0.0454
35688SOL    HW111749   6.154   0.429   1.292  1.4671 -0.1721 -0.4920
35688SOL    HW211750   6.119   0.396   1.149  1.4354 -1.0945 -0.2790
35689SOL     OW11751   9.033  10.673   7.976 -0.4025  0.0630  0.6097
35689SOL    HW111752   8.982  10.698   7.899  1.3197  0.6332 -0.4158
35689SOL    HW211753   9.069  10.587   7.954  0.5839  0.4925  0.5075
35690SOL     OW11754  10.502   0.997   1.155  0.1480  0.3697  0.7511
35690SOL    HW111755  10.561   1.019   1.083  1.1779 -0.9376  1.1561
35690SOL    HW211756  10.417   1.032   1.128  0.7695  0.9355 -0.5528
35691SOL     OW11757   2.828   4.822   8.985 -0.1236  0.5500 -0.1890
35691SOL    HW111758   2.887   4.888   9.022  1.2425  0.2053 -1.6496
35691SOL    HW211759   2.752   4.873   8.954 -0.0197  1.1705  0.5513
35692SOL     OW11760   8.827  10.733   5.263  0.5786 -0.1036  0.3321
35692SOL    HW111761   8.738  10.726   5.230  1.0078 -0.6399 -0.7424
35692SOL    HW211762   8.867  10.648   5.246  0.4722 -0.9343  3.4576
35693SOL     OW11763   4.868   0.997   4.156  0.2152  0.1337 -0.0409
35693SOL    HW111764   4.926   1.066   4.124  0.3730 -0.0766 -0.2022
35693SOL    HW211765   4.926   0.923   4.174 -0.2277 -0.7679 -2.0886
35694SOL     OW11766   5.804   0.678   5.260 -0.2241  0.1463 -0.2724
35694SOL    HW111767   5.718   0.708   5.291 -0.3444 -0.1070 -0.3566
35694SOL    HW211768   5.851   0.759   5.240 -0.5168  0.2821 -0.4227
35695SOL     OW11769   7.714   6.571  10.980 -0.2287 -0.4211 -0.1887
35695SOL    HW111770   7.707   6.663  11.007 -2.6451 -1.2402  2.5809
35695SOL    HW211771   7.635   6.556  10.927  0.7305 -0.6624 -1.5853
35696SOL     OW11772   3.930   2.229   4.328  0.4450 -0.6293 -0.0873
35696SOL    HW111773   3.874   2.305   4.309 -1.5306 -2.0711 -0.3491
35696SOL    HW211774   3.892   2.191   4.406  0.9607 -1.7768 -0.3824
35697SOL     OW11775   6.124  10.290   4.128 -0.6511  0.2345 -0.3786
35697SOL    HW111776   6.034  10.298   4.159 -0.6492  1.1687 -0.5715
35697SOL    HW211777   6.132  10.200   4.097 -0.9006 -0.5032  1.5399
35698SOL     OW11778   4.255   6.280   7.785 -0.1728 -0.4140 -0.1672
35698SOL    HW111779   4.201   6.228   7.844  1.0486 -0.6781  0.7789
35698SOL    HW211780   4.283   6.355   7.838  1.8122 -1.2030 -0.0189
35699SOL     OW11781   7.409   4.069   9.632 -0.3306 -0.5469 -0.4110
35699SOL    HW111782   7.504   4.059   9.645 -0.4341 -0.9008  0.0718
35699SOL    HW211783   7.394   4.163   9.640  0.3451 -0.1374 -2.9350
35700SOL     OW11784   9.236   1.960   8.593 -0.3077 -0.0877 -0.0384
35700SOL    HW111785   9.144   1.976   8.574 -0.4897 -1.8157 -0.7609
35700SOL    HW211786   9.235   1.904   8.671  0.2267  1.3691  1.0695
35701SOL     OW11787   0.637   8.100   4.169 -0.1937 -0.7660  0.4339
35701SOL    HW111788   0.722   8.102   4.125 -0.3902 -1.3414  0.0145
35701SOL    HW211789   0.657   8.110   4.262  0.1195  2.6192  0.1402
35702SOL     OW11790  11.231   9.492   8.228  0.7284  0.7383 -0.3969
35702SOL    HW111791  11.304   9.490   8.167  0.6606  0.3848 -0.4670
35702SOL    HW211792  11.160   9.447   8.183  1.0863 -0.7550  0.4510
35703SOL     OW11793   9.933   7.072   7.278 -0.6240  0.3221 -0.1421
35703SOL    HW111794   9.999   7.010   7.310  1.0697  1.7344 -0.7248
35703SOL    HW211795   9.849   7.033   7.303  0.3944 -1.7700  0.2478
35704SOL     OW11796   2.909   1.289  11.645  0.2815 -0.3301  0.1518
35704SOL    HW111797   2.943   1.376  11.667 -0.3065 -0.4520  1.6726
35704SOL    HW211798   2.814   1.299  11.647  0.2028 -1.0563  0.6088
35705SOL     OW11799   9.452   1.389   3.387 -0.0542 -0.1177 -0.0470
35705SOL    HW111800   9.471   1.452   3.457  1.0677  1.1837 -1.4593
35705SOL    HW211801   9.389   1.328   3.426  1.0223  0.1651  2.3016
35706SOL     OW11802   3.071   8.779   8.422 -0.3969 -0.3620  0.5755
35706SOL    HW111803   3.073   8.868   8.457 -0.6063 -0.1345  0.0274
35706SOL    HW211804   2.983   8.770   8.386  0.0255 -0.3499 -0.4860
35707SOL     OW11805   5.513   4.240   9.800 -0.1511  0.8899 -0.5088
35707SOL    HW111806   5.460   4.320   9.808 -0.4862  0.6092  0.1630
35707SOL    HW211807   5.454   4.177   9.757 -0.7306  0.2713  1.1226
35708SOL     OW11808  10.774   7.744   8.020 -0.0491  0.2286 -0.2391
35708SOL    HW111809  10.762   7.688   8.098  0.9783  1.4845  0.8753
35708SOL    HW211810  10.846   7.703   7.972 -0.9341 -0.7660 -0.7662
35709SOL     OW11811   2.456  11.286  11.013  0.2005  0.2594 -0.0897
35709SOL    HW111812   2.485  11.334  10.935  3.6986 -0.7288  0.4587
35709SOL    HW211813   2.439  11.197  10.981  0.5428  0.1337  0.0741
35710SOL     OW11814   4.221   4.911   3.132 -0.1416  0.1275  0.1312
35710SOL    HW111815   4.226   4.983   3.069 -0.7107  0.7348  0.7499
35710SOL    HW211816   4.288   4.931   3.197  1.3928 -1.2211 -0.9622
35711SOL     OW11817   1.443   3.109   8.245  0.6404  0.4461  0.5274
35711SOL    HW111818   1.350   3.125   8.256  0.0481 -2.2250  0.0896
35711SOL    HW211819   1.482   3.197   8.239 -1.7274  1.6346  1.2999
35712SOL     OW11820   6.897   9.292   3.026  0.2833 -0.2300 -0.0800
35712SOL    HW111821   6.818   9.339   3.000 -1.5148 -3.1116 -0.3109
35712SOL    HW211822   6.910   9.315   3.117 -1.2501 -0.1805  0.1603
35713SOL     OW11823   5.581   8.832  11.442  0.1909 -0.2805 -0.2458
35713SOL    HW111824   5.540   8.876  11.367 -0.7463 -1.1179 -0.2397
35713SOL    HW211825   5.510   8.822  11.506  1.2954  1.8363  1.4582
35714SOL     OW11826   2.827   0.257  11.804  0.2184  0.2824 -0.8671
35714SOL    HW111827   2.871   0.219  11.881  0.1979 -1.3696 -1.6273
35714SOL    HW211828   2.836   0.352  11.816 -0.7195  0.1309  1.6994
35715SOL     OW11829  10.662   8.237   1.018 -0.5441 -0.0527 -0.0823
35715SOL    HW111830  10.690   8.302   0.954  0.7549  0.8272  1.3160
35715SOL    HW211831  10.567   8.230   1.004 -0.2174 -0.3815 -2.4888
35716SOL     OW11832   8.951   9.167   1.174 -0.0810  0.2374  0.3926
35716SOL    HW111833   9.002   9.159   1.254  2.4310  1.2598 -0.9878
35716SOL    HW211834   8.969   9.086   1.126 -0.2470  0.3331  0.1680
35717SOL     OW11835  10.747   8.959   2.596  0.2729  0.1901  0.0724
35717SOL    HW111836  10.818   9.017   2.568 -0.1578  0.7083  0.0284
35717SOL    HW211837  10.668   9.001   2.563 -0.3118  1.0301  2.3410
35718SOL     OW11838  11.408  10.196   7.208 -0.2141 -0.5638 -0.3850
35718SOL    HW111839  11.424  10.277   7.256  1.7159 -0.6021 -0.8655
35718SOL    HW211840  11.376  10.135   7.274  1.2211 -0.2638  0.6281
35719SOL     OW11841   0.038   1.813  10.194 -0.1183  0.0548  0.5104
35719SOL    HW111842   0.003   1.899  10.218  1.0733  1.3995 -2.1415
35719SOL    HW211843  -0.035   1.767  10.154 -0.1003  0.9697 -0.6154
35720SOL     OW11844   0.160  10.927   0.695 -0.1141  0.3099  0.0363
35720SOL    HW111845   0.242  10.957   0.733  0.9975 -0.9333 -1.2597
35720SOL    HW211846   0.154  10.973   0.611 -0.9203  0.6376  0.2672
35721SOL     OW11847   1.933   5.373   9.352  0.0428 -0.4853 -0.2026
35721SOL    HW111848   2.011   5.428   9.340  0.1545 -0.0924  1.9814
35721SOL    HW211849   1.954   5.317   9.426 -2.2309  0.6020  1.3730
35722SOL     OW11850   6.918   4.006   0.386 -0.2778  0.1497  0.0673
35722SOL    HW111851   6.889   3.921   0.416 -2.7705  0.6366 -0.7160
35722SOL    HW211852   6.949   3.991   0.296  2.1093 -0.3661  0.8973
35723SOL     OW11853   0.557  10.558   2.282 -0.6146 -0.0134  0.3939
35723SOL    HW111854   0.632  10.515   2.242 -0.0869 -0.2581  1.5906
35723SOL    HW211855   0.484  10.542   2.222 -0.2277 -1.7777  0.3333
35724SOL     OW11856   3.996   4.838   0.137  0.5331 -0.2942 -0.2059
35724SOL    HW111857   3.965   4.831   0.047 -1.9637  0.6030  0.4879
35724SOL    HW211858   3.933   4.786   0.188 -0.8226  2.7688  1.4839
35725SOL     OW11859  10.486  10.812  10.485 -0.0812  0.5575  0.2099
35725SOL    HW111860  10.408  10.756  10.486 -0.8952  1.5587 -1.8884
35725SOL    HW211861  10.452  10.900  10.468  1.4787  1.0796 -0.3936
35726SOL     OW11862   6.768   9.255   6.717 -0.3851  0.1536 -0.4148
35726SOL    HW111863   6.716   9.335   6.709  0.4647  0.6660 -0.8599
35726SOL    HW211864   6.796   9.235   6.628 -0.0347 -0.2687 -0.2161
35727SOL     OW11865   2.948  11.808   2.954 -0.3926  0.3303 -0.2185
35727SOL    HW111866   2.972  11.852   3.036  1.1932 -0.6635 -0.1055
35727SOL    HW211867   2.866  11.849   2.928  0.3662  2.4639  0.5296
35728SOL     OW11868   6.091   3.127   9.497 -0.0685 -0.6097  0.2679
35728SOL    HW111869   6.142   3.143   9.418  0.1256 -1.1682  0.2797
35728SOL    HW211870   6.044   3.209   9.512  2.6506  0.8166  1.6486
35729SOL     OW11871   6.393   0.652   2.244 -0.4159  0.4319 -0.0239
35729SOL    HW111872   6.387   0.742   2.210  1.4214  0.4709 -0.3825
35729SOL    HW211873   6.462   0.656   2.310 -1.2999 -0.4529  0.9952
35730SOL     OW11874   0.511   6.757   3.793 -0.0112  0.1643  0.2667
35730SOL    HW111875   0.481   6.670   3.820 -1.6844  1.3706  2.6374
35730SOL    HW211876   0.441   6.816   3.820  1.6865  2.4192  0.0168
35731SOL     OW11877   0.735   6.750   9.506 -0.0459 -0.4659 -0.4535
35731SOL    HW111878   0.664   6.778   9.564  1.2048 -0.6511  1.2517
35731SOL    HW211879   0.788   6.828   9.493  0.3381 -0.7030 -0.3439
35732SOL     OW11880   6.180   1.840   5.512 -0.0573 -0.5851 -0.2713
35732SOL    HW111881   6.136   1.925   5.510  0.3603 -0.3469 -2.5052
35732SOL    HW211882   6.267   1.858   5.475 -0.4326 -2.1641 -2.0646
35733SOL     OW11883   2.953   1.180  10.665 -0.1277  1.0690 -0.7533
35733SOL    HW111884   2.980   1.235  10.739 -1.7987  0.1265  0.6366
35733SOL    HW211885   2.922   1.099  10.706 -1.9838  0.8803 -2.4099
35734SOL     OW11886   6.127   7.960   9.502  0.4255  0.3015 -0.5703
35734SOL    HW111887   6.116   7.912   9.585 -0.6486 -0.7303 -1.2713
35734SOL    HW211888   6.044   7.948   9.457  0.6200  1.7579 -1.3571
35735SOL     OW11889   7.043   9.509  10.168 -0.4881 -0.3653 -0.2225
35735SOL    HW111890   7.022   9.453  10.093  0.7894 -0.6098 -0.4353
35735SOL    HW211891   7.127   9.550  10.145 -1.0190  1.0592  0.2621
35736SOL     OW11892   5.582   3.235   8.460  0.7649  0.2331 -0.1649
35736SOL    HW111893   5.643   3.301   8.494 -1.4856  1.4856  1.7595
35736SOL    HW211894   5.578   3.168   8.528 -0.2897  0.4024 -0.0338
35737SOL     OW11895   1.927  10.103   7.746  0.8016 -0.0532 -0.0601
35737SOL    HW111896   1.875  10.183   7.733 -0.8100 -1.2570 -1.5041
35737SOL    HW211897   2.018  10.134   7.750  0.3046  1.7705 -1.5044
35738SOL     OW11898   9.182   8.129   7.590 -0.1883  0.2565  0.0611
35738SOL    HW111899   9.236   8.099   7.516 -1.5444  0.5220 -1.0821
35738SOL    HW211900   9.154   8.048   7.633  1.5374  0.1288  1.0150
35739SOL     OW11901   4.696   0.090   3.109  0.0132 -0.8515  0.4274
35739SOL    HW111902   4.605   0.117   3.118  0.1953 -0.0543  0.0346
35739SOL    HW211903   4.746   0.165   3.140  0.5341 -1.1984  0.4331
35740SOL     OW11904   8.702   5.102  10.174  0.1093 -0.1214 -0.5171
35740SOL    HW111905   8.675   5.048  10.248 -1.5531  0.9428 -0.2897
35740SOL    HW211906   8.781   5.147  10.205  1.0247 -1.7092 -0.4105
35741SOL     OW11907   0.843   9.168   6.516 -0.0465 -0.6684  0.2005
35741SOL    HW111908   0.927   9.208   6.538  0.1529 -0.6074 -0.6651
35741SOL    HW211909   0.827   9.191   6.425 -1.1752 -0.3868  0.4461
35742SOL     OW11910   0.623   6.783   6.742  0.2433  0.9695 -0.4632
35742SOL    HW111911   0.638   6.877   6.753 -0.1984  1.1145 -1.0823
35742SOL    HW211912   0.533   6.770   6.769  0.6042  0.5468  0.5935
35743SOL     OW11913   3.291   6.537   6.657 -0.1605 -0.3089 -0.0721
35743SOL    HW111914   3.269   6.451   6.691  0.3706 -1.2963 -2.0469
35743SOL    HW211915   3.248   6.541   6.571 -1.9147  2.2543  0.7958
35744SOL     OW11916   2.640   0.865   5.536 -0.4461  0.3480 -0.1083
35744SOL    HW111917   2.725   0.880   5.495  0.9903  0.3558  2.5967
35744SOL    HW211918   2.660   0.852   5.629 -3.3102 -0.8106  0.4790
35745SOL     OW11919  10.725   8.509   4.001  0.3634 -0.9319  0.4773
35745SOL    HW111920  10.811   8.521   4.041  0.0884 -1.6639  1.3327
35745SOL    HW211921  10.688   8.597   3.995  1.9489 -0.3260 -1.7872
35746SOL     OW11922  11.000   3.867   2.006  0.0585  0.2504 -0.4113
35746SOL    HW111923  10.974   3.833   1.921  1.2623 -0.3166 -0.5671
35746SOL    HW211924  10.983   3.796   2.067  1.0473 -0.0745 -0.4934
35747SOL     OW11925   2.894   0.207   0.301 -0.3561  0.0134 -0.3767
35747SOL    HW111926   2.799   0.200   0.309 -0.3330 -1.1524 -1.0138
35747SOL    HW211927   2.928   0.177   0.386 -0.5803  2.1610  0.5376
35748SOL     OW11928   6.820  10.384   9.304  0.2982 -0.3689 -0.2658
35748SOL    HW111929   6.878  10.413   9.233 -0.1392 -0.4091 -0.6493
35748SOL    HW211930   6.811  10.461   9.360 -0.8695  0.2792 -1.2867
35749SOL     OW11931   1.771   8.010   2.551  0.1122 -0.4147 -0.3263
35749SOL    HW111932   1.736   8.049   2.471  1.2685 -0.7226 -1.0049
35749SOL    HW211933   1.719   8.049   2.622  0.0865  1.0143 -1.1081
35750SOL     OW11934   8.392  11.469   2.758  0.3709  0.2072  0.0036
35750SOL    HW111935   8.448  11.443   2.684  0.4899  1.0872 -0.2306
35750SOL    HW211936   8.447  11.456   2.835  0.2468 -0.7149 -0.0524
35751SOL     OW11937   4.675   5.039   6.830 -0.0786  0.2832  0.2436
35751SOL    HW111938   4.744   5.008   6.888 -0.2837  1.2000  0.9860
35751SOL    HW211939   4.597   5.042   6.884 -0.5477 -0.0260 -0.3999
35752SOL     OW11940   2.177   3.865   4.999 -0.4377  0.4750  0.2426
35752SOL    HW111941   2.234   3.928   4.955 -0.5231 -0.1458 -0.7993
35752SOL    HW211942   2.166   3.900   5.088 -0.8110  2.1257 -0.4164
35753SOL     OW11943   6.890   2.728   5.866 -0.1468  0.5758  0.1010
35753SOL    HW111944   6.939   2.719   5.948  1.6698 -3.0135 -1.1466
35753SOL    HW211945   6.806   2.686   5.883  0.7562 -1.4514 -0.1310
35754SOL     OW11946   7.159   0.376   2.009  0.4892 -0.1527 -0.0179
35754SOL    HW111947   7.136   0.325   2.087  1.6675 -0.5144  0.1000
35754SOL    HW211948   7.159   0.312   1.938 -1.8317  0.3875 -0.5938
35755SOL     OW11949   1.939   0.043   5.295 -0.2582 -0.1580 -0.3114
35755SOL    HW111950   2.000   0.057   5.367 -0.8688  0.4073  0.1149
35755SOL    HW211951   1.884  -0.030   5.324  1.0938 -1.6478 -1.3077
35756SOL     OW11952   0.619   5.775   1.337 -0.1192  0.0086  0.5552
35756SOL    HW111953   0.618   5.789   1.243 -1.2408 -1.8157  0.2587
35756SOL    HW211954   0.708   5.798   1.364  0.3853  0.0121 -1.0296
35757SOL     OW11955   1.477   5.447   4.194  0.2282 -0.1218  0.0154
35757SOL    HW111956   1.458   5.366   4.241  0.7704 -0.1966  0.1083
35757SOL    HW211957   1.569   5.466   4.213  0.1283  0.4821 -0.0563
35758SOL     OW11958   8.624   2.733   3.141  0.1763 -0.0255 -0.0570
35758SOL    HW111959   8.598   2.817   3.179  2.8576  1.3355 -0.9898
35758SOL    HW211960   8.596   2.739   3.049  1.8086  0.6174 -0.5520
35759SOL     OW11961  10.831   9.306   0.353 -0.0349 -0.1437 -0.3035
35759SOL    HW111962  10.815   9.397   0.377 -3.1059 -0.7686  0.3769
35759SOL    HW211963  10.849   9.309   0.259  0.4632  1.1946 -0.1875
35760SOL     OW11964   7.934   6.975   1.436  0.3864 -0.2555 -0.1801
35760SOL    HW111965   7.972   6.949   1.519  0.9101  1.0316  0.0010
35760SOL    HW211966   7.880   7.051   1.456  1.1851  0.6023 -1.1218
35761SOL     OW11967  10.902   6.205   9.512  0.1832 -0.1424 -0.0847
35761SOL    HW111968  10.965   6.230   9.445 -1.3449 -0.3694 -1.6871
35761SOL    HW211969  10.908   6.110   9.518  1.9061  0.0227  1.8103
35762SOL     OW11970   0.488   4.659   6.172 -0.3710  0.2922 -0.0976
35762SOL    HW111971   0.532   4.579   6.143  1.2229  1.1968 -0.2839
35762SOL    HW211972   0.441   4.689   6.094 -0.5503 -0.1847 -0.1768
35763SOL     OW11973   0.057   0.926   5.879 -0.0044  0.3565  0.1540
35763SOL    HW111974   0.031   0.925   5.971 -0.0442  1.1858  0.1595
35763SOL    HW211975   0.122   0.856   5.871  0.8847  1.0522  1.0694
35764SOL     OW11976   5.051   7.100   4.519  0.2607  0.0510 -0.2391
35764SOL    HW111977   5.118   7.169   4.520  0.5139 -0.1941  0.0224
35764SOL    HW211978   4.986   7.130   4.455  0.7532  0.1706 -0.6916
35765SOL     OW11979  10.691   3.878   0.706  0.1541  0.9761 -0.1179
35765SOL    HW111980  10.759   3.822   0.743  0.5757  0.4230 -1.6617
35765SOL    HW211981  10.664   3.935   0.778  2.0772  1.0354  0.5933
35766SOL     OW11982  11.890   9.641   4.707 -0.5265 -0.1889 -0.0363
35766SOL    HW111983  11.856   9.568   4.654  0.4533 -0.2214 -0.6496
35766SOL    HW211984  11.819   9.705   4.708 -1.5012 -1.2250  0.6998
35767SOL     OW11985   5.011   8.034  10.351  0.4938 -0.3661 -0.3716
35767SOL    HW111986   5.063   8.080  10.417  0.4381  0.1245 -0.6663
35767SOL    HW211987   5.036   8.075  10.268 -1.2926  0.7681 -0.4055
35768SOL     OW11988   5.514   9.621   4.794 -0.3673 -0.5281  0.1841
35768SOL    HW111989   5.447   9.594   4.857 -0.1709 -1.5812 -0.0451
35768SOL    HW211990   5.549   9.539   4.759 -0.5869  0.0347 -1.4261
35769SOL     OW11991   0.470   6.293  10.206 -0.2091  0.2550  0.0865
35769SOL    HW111992   0.548   6.252  10.243  0.2673  1.0579 -0.0034
35769SOL    HW211993   0.431   6.225  10.151 -0.5210 -0.7155  1.4438
35770SOL     OW11994  10.493   6.333   8.333 -0.1970  0.7627  0.0395
35770SOL    HW111995  10.414   6.337   8.279 -0.0693 -0.7727 -0.3219
35770SOL    HW211996  10.529   6.246   8.315  0.4559  0.6461  1.7795
35771SOL     OW11997   3.159   6.975   5.988 -0.0015 -0.2833  0.1912
35771SOL    HW111998   3.094   6.911   6.015 -1.5106  0.9413 -0.3949
35771SOL    HW211999   3.153   6.975   5.892  0.3706  0.3485  0.1661
35772SOL     OW12000   1.595   8.332   5.530 -0.9275 -0.3077  0.1173
35772SOL    HW112001   1.609   8.325   5.436  1.1623 -0.7476  0.3962
35772SOL    HW212002   1.591   8.426   5.548  0.0888 -0.1847 -0.2614
35773SOL     OW12003   5.478   0.695   0.274 -0.0105 -0.1157  0.0643
35773SOL    HW112004   5.432   0.679   0.357  0.6010 -0.4635  0.3419
35773SOL    HW212005   5.421   0.656   0.208  0.2884 -1.3349  0.4944
35774SOL     OW12006   1.597   5.275   8.987  0.2596 -0.0436 -0.4570
35774SOL    HW112007   1.671   5.262   9.046  0.7938 -0.9789 -1.3007
35774SOL    HW212008   1.616   5.218   8.912 -0.8379  0.4407 -1.1237
35775SOL     OW12009   2.300   8.906   8.185 -0.3196 -0.1418  0.0967
35775SOL    HW112010   2.229   8.872   8.240 -0.9751 -0.5127 -0.9643
35775SOL    HW212011   2.380   8.867   8.222 -0.8223 -0.9480  0.3437
35776SOL     OW12012   9.510  11.093   7.690  0.2962  0.2369 -0.1489
35776SOL    HW112013   9.493  11.151   7.616  1.2201  0.2513 -0.3604
35776SOL    HW212014   9.491  11.147   7.767 -0.8618  0.1601 -0.3619
35777SOL     OW12015   0.443   7.556   5.897  0.3469  0.1289  0.6079
35777SOL    HW112016   0.429   7.508   5.815  0.3815 -0.0883  0.7274
35777SOL    HW212017   0.399   7.502   5.963  1.8557 -0.6506  1.0261
35778SOL     OW12018  11.477   9.022   9.102  0.1564 -0.2845  0.0334
35778SOL    HW112019  11.559   9.038   9.149  0.4386 -1.6992  0.0696
35778SOL    HW212020  11.498   8.953   9.040 -1.1038 -0.9503  0.3059
35779SOL     OW12021   6.637   1.622   4.293 -0.1976 -0.2298 -0.8088
35779SOL    HW112022   6.679   1.538   4.276 -1.2295 -1.0757  0.5767
35779SOL    HW212023   6.544   1.607   4.274 -0.4036  0.5845 -0.5203
35780SOL     OW12024   0.550   9.325   5.556 -0.0530 -0.1779  0.5278
35780SOL    HW112025   0.478   9.312   5.494 -0.7051 -0.1940  1.2786
35780SOL    HW212026   0.614   9.378   5.507 -0.4477 -0.3874 -0.2336
35781SOL     OW12027   4.075  10.804  11.176  0.8310  0.5853  0.7238
35781SOL    HW112028   4.058  10.731  11.235  0.4867  1.4574  1.7501
35781SOL    HW212029   4.055  10.770  11.088  1.1652 -0.6765  1.1200
35782SOL     OW12030   7.922   4.311   9.788  0.8254  0.2715 -0.0205
35782SOL    HW112031   8.003   4.262   9.770 -0.1744 -1.4736 -0.0365
35782SOL    HW212032   7.889   4.274   9.870 -0.2705  0.4799 -0.3466
35783SOL     OW12033  10.940   8.416   7.347  0.0433  0.1707 -0.2991
35783SOL    HW112034  11.022   8.389   7.307 -0.4037 -2.2039  0.1961
35783SOL    HW212035  10.872   8.376   7.291 -0.6931  0.4245  0.3942
35784SOL     OW12036   8.129   3.291   3.857  0.0100  0.2211 -0.5530
35784SOL    HW112037   8.041   3.296   3.819  0.6855  0.9016 -2.1174
35784SOL    HW212038   8.143   3.197   3.873 -0.2458 -0.1403 -2.2460
35785SOL     OW12039  10.632   3.635   3.452  0.7582  0.2743  0.3236
35785SOL    HW112040  10.703   3.677   3.499  0.9998 -1.9059  2.1007
35785SOL    HW212041  10.661   3.544   3.441 -0.8369 -0.1393 -0.8419
35786SOL     OW12042   9.663   6.028   6.026  0.2684 -0.0162 -0.0262
35786SOL    HW112043   9.732   6.082   6.064  1.6229  0.3857 -2.8215
35786SOL    HW212044   9.649   6.065   5.939 -2.7729 -0.7672  0.0256
35787SOL     OW12045   3.985  11.238   2.144  0.3020  0.4364  0.4333
35787SOL    HW112046   3.924  11.299   2.104  0.2443  0.4831  0.5903
35787SOL    HW212047   4.071  11.263   2.110  0.2278  0.3397  0.1772
35788SOL     OW12048   9.158   0.058   0.018 -0.1948 -0.1684 -0.3627
35788SOL    HW112049   9.124   0.108  -0.056 -0.8429 -1.1003 -0.7276
35788SOL    HW212050   9.186   0.123   0.082 -1.6961  0.6585 -0.5107
35789SOL     OW12051   1.935   2.046   6.290 -0.1711  0.6668  0.0685
35789SOL    HW112052   1.853   2.019   6.247 -0.6178 -0.5289  1.5700
35789SOL    HW212053   1.908   2.077   6.376  0.9094  0.7427  0.3958
35790SOL     OW12054   1.172  10.813   8.588 -0.3256  0.3391  0.1416
35790SOL    HW112055   1.083  10.789   8.616 -0.2136 -0.0599  0.1554
35790SOL    HW212056   1.172  10.797   8.494  0.1637 -1.0434  0.3515
35791SOL     OW12057   8.891   3.477  11.675 -0.5767 -0.1815 -0.0549
35791SOL    HW112058   8.907   3.480  11.770  2.2780 -2.9203 -0.2688
35791SOL    HW212059   8.922   3.561  11.642 -2.5123  1.2061  1.4710
35792SOL     OW12060   9.921   1.076  10.451  0.1809  0.0524 -0.5434
35792SOL    HW112061   9.908   1.123  10.368 -2.7553  0.4970  0.0622
35792SOL    HW212062   9.924   0.984  10.425 -0.3421  0.2094 -1.2012
35793SOL     OW12063   4.781   1.719   8.912 -0.0849  0.4268 -0.5424
35793SOL    HW112064   4.829   1.696   8.992 -0.0215  0.9342 -0.4291
35793SOL    HW212065   4.848   1.754   8.853 -0.0778 -0.2338 -0.9445
35794SOL     OW12066   4.118   4.903   4.478 -0.4378  0.1215 -0.2268
35794SOL    HW112067   4.185   4.947   4.426 -0.4900  0.6611  0.1610
35794SOL    HW212068   4.142   4.810   4.474  0.4653  0.3301  0.0948
35795SOL     OW12069   4.043   8.286   6.316  0.7008  0.1827  1.1181
35795SOL    HW112070   4.132   8.253   6.308  0.5811  0.1969 -0.6739
35795SOL    HW212071   4.052   8.381   6.318  0.7033  0.1946  0.5548
35796SOL     OW12072   2.688   8.615  11.385  0.3904  0.5238 -0.6628
35796SOL    HW112073   2.763   8.562  11.360  0.6201  0.5830 -0.0965
35796SOL    HW212074   2.716   8.662  11.463 -1.5374 -2.4339  2.0386
35797SOL     OW12075   3.004   0.701   3.002  0.1973 -0.3486  0.1453
35797SOL    HW112076   2.982   0.646   2.926  0.2218  1.7347 -1.4699
35797SOL    HW212077   3.060   0.770   2.966 -0.6539  1.3180  1.8259
35798SOL     OW12078   1.807   9.265  11.921  0.0315  0.2052 -0.0348
35798SOL    HW112079   1.872   9.310  11.974 -1.3873  0.0548  1.9288
35798SOL    HW212080   1.725   9.311  11.939 -0.9430 -1.4309 -0.1074
35799SOL     OW12081   3.771   8.301   7.332  0.3886 -0.5836 -0.9157
35799SOL    HW112082   3.835   8.372   7.344  0.9773 -1.3654  0.9890
35799SOL    HW212083   3.819   8.222   7.357 -1.4269 -1.1424  1.0128
35800SOL     OW12084   6.380   6.098   8.625  0.0494  0.0999  0.1713
35800SOL    HW112085   6.332   6.169   8.669  0.2590  0.5528 -0.3140
35800SOL    HW212086   6.325   6.021   8.636 -1.2532  0.7824 -1.1313
35801SOL     OW12087   2.963   8.777   2.212  0.8263  0.4924 -0.5420
35801SOL    HW112088   3.007   8.848   2.258  1.4122 -0.5665  0.5786
35801SOL    HW212089   2.870   8.799   2.218  0.9307  0.6502  0.6839
35802SOL     OW12090   9.046   2.166   4.976 -0.3126 -0.4064 -0.1992
35802SOL    HW112091   9.000   2.196   5.054 -0.0544  0.3398 -0.3320
35802SOL    HW212092   9.137   2.193   4.990 -0.6720  1.8290 -1.7871
35803SOL     OW12093   4.161   7.308   0.770 -0.1974  0.6852 -0.2386
35803SOL    HW112094   4.255   7.293   0.756 -0.3035  0.6982 -1.0135
35803SOL    HW212095   4.135   7.363   0.696 -0.6814  1.2279  0.3244
35804SOL     OW12096   0.753   9.925   8.233  0.1000 -0.2868  0.2227
35804SOL    HW112097   0.667   9.944   8.270 -0.2921 -1.4374 -0.0500
35804SOL    HW212098   0.778   9.841   8.271  0.8089 -0.2827 -0.2026
35805SOL     OW12099   9.921  11.047  11.011 -0.1834  0.7009 -0.7094
35805SOL    HW112100   9.927  11.099  10.931 -0.4420  2.9085  0.6208
35805SOL    HW212101   9.989  11.082  11.068 -1.0840  0.3357  0.6391
35806SOL     OW12102   0.944   1.084   9.995 -0.1831  0.2107  0.1612
35806SOL    HW112103   0.908   1.093  10.083 -0.7547  1.2056 -0.1581
35806SOL    HW212104   0.975   0.994   9.990  1.6035  0.6440  2.0382
35807SOL     OW12105   3.157   7.888   8.791  0.1815  0.1235 -0.3376
35807SOL    HW112106   3.138   7.864   8.881  1.2334 -0.8606 -0.3562
35807SOL    HW212107   3.242   7.931   8.795 -0.5560  1.6690 -0.6461
35808SOL     OW12108   0.710   1.819   1.355 -0.0855 -0.1211 -0.0932
35808SOL    HW112109   0.739   1.887   1.416 -0.5860 -0.1620  0.1968
35808SOL    HW212110   0.731   1.737   1.399  1.0046 -0.1661 -0.6751
35809SOL     OW12111   0.836   1.674   3.263  0.1047 -0.0021 -0.4175
35809SOL    HW112112   0.812   1.700   3.174 -0.5384  0.2962 -0.1615
35809SOL    HW212113   0.777   1.724   3.320  0.5996 -0.0840  0.1849
35810SOL     OW12114   3.188   0.272   7.156 -0.3657  0.8459 -0.2442
35810SOL    HW112115   3.096   0.296   7.147 -0.0466  1.7426 -1.3333
35810SOL    HW212116   3.186   0.179   7.182 -1.5767  1.3795  1.7831
35811SOL     OW12117   0.737   3.759   4.948  0.1867 -0.3876  0.0010
35811SOL    HW112118   0.646   3.787   4.950 -0.3732 -1.9447 -1.5983
35811SOL    HW212119   0.781   3.824   4.892 -0.0321  0.0531  0.3285
35812SOL     OW12120   2.507   0.514   8.173 -0.0105 -0.1847  0.0932
35812SOL    HW112121   2.601   0.533   8.167 -0.0071 -0.3308 -0.3658
35812SOL    HW212122   2.503   0.427   8.213  0.0726 -0.3965 -0.3473
35813SOL     OW12123   2.353   7.319   3.540  0.2014  0.3109  0.0847
35813SOL    HW112124   2.266   7.352   3.518  0.4131 -0.7937 -2.8624
35813SOL    HW212125   2.352   7.311   3.636 -2.8004  0.6537  0.1765
35814SOL     OW12126   2.503  10.918  10.657 -0.0330  0.0884 -0.6376
35814SOL    HW112127   2.578  10.912  10.598  0.7730  1.1548  0.2379
35814SOL    HW212128   2.485  11.012  10.663 -0.5346 -0.0615  0.2861
35815SOL     OW12129   1.823   0.725   5.394  0.1203 -0.3925 -0.3359
35815SOL    HW112130   1.914   0.744   5.372  0.5831 -2.4012 -0.3034
35815SOL    HW212131   1.798   0.796   5.453  1.1984  0.9609 -1.4197
35816SOL     OW12132  11.566   0.077  11.068  0.0650 -0.0298  0.2613
35816SOL    HW112133  11.654   0.110  11.052  0.5458 -1.1551  0.5495
35816SOL    HW212134  11.571   0.032  11.152 -0.9721  0.5371  0.6503
35817SOL     OW12135   0.615  10.883   5.995  0.3221  0.2433 -0.4824
35817SOL    HW112136   0.641  10.965   6.037  2.1736 -0.3947 -0.2545
35817SOL    HW212137   0.614  10.903   5.901 -1.5005  1.0720 -0.3215
35818SOL     OW12138  11.506   8.846   5.558  0.3432  0.3276 -0.3752
35818SOL    HW112139  11.451   8.859   5.480 -0.0858  2.1761  0.1751
35818SOL    HW212140  11.444   8.824   5.628  0.5163  0.5302 -0.1564
35819SOL     OW12141   1.778   8.666   4.612  0.3927 -0.1164 -0.0055
35819SOL    HW112142   1.805   8.757   4.597  0.8032 -0.4928 -1.7263
35819SOL    HW212143   1.842   8.614   4.564 -0.8162 -1.2400 -0.4379
35820SOL     OW12144   3.683   2.879   7.280  0.2815 -0.7436  0.0054
35820SOL    HW112145   3.739   2.957   7.287  0.8300 -1.1119 -0.1817
35820SOL    HW212146   3.658   2.860   7.370  0.1642 -0.3667  0.0550
35821SOL     OW12147   8.764   1.615   2.700  0.0000  0.3951  0.4030
35821SOL    HW112148   8.778   1.530   2.741  1.9311 -0.3966 -1.6691
35821SOL    HW212149   8.848   1.660   2.707 -0.6182  1.6299  0.3236
35822SOL     OW12150   3.802   1.731   8.351 -0.7011  0.1871 -0.1562
35822SOL    HW112151   3.757   1.815   8.340 -0.6512 -0.0371 -2.5249
35822SOL    HW212152   3.734   1.670   8.378 -0.7403  0.9380  1.5864
35823SOL     OW12153   2.483   6.214  11.926  0.4753  1.0920 -0.4101
35823SOL    HW112154   2.506   6.163  12.004 -1.6597  0.0166 -0.4351
35823SOL    HW212155   2.409   6.268  11.952 -0.1490  0.8685 -1.6470
35824SOL     OW12156   7.713  11.131   4.548  0.6104  0.3607 -0.8733
35824SOL    HW112157   7.701  11.054   4.492  3.2083 -0.1841 -0.8345
35824SOL    HW212158   7.653  11.118   4.621  1.3551 -1.9428 -0.5864
35825SOL     OW12159   3.996   3.900  11.809  0.7077 -0.2491  0.1021
35825SOL    HW112160   3.987   3.995  11.799  0.0154 -0.3208  0.0234
35825SOL    HW212161   3.975   3.883  11.901  1.2663 -0.2798  0.2288
35826SOL     OW12162   9.762   8.595   3.332  0.0329 -0.1751 -0.4292
35826SOL    HW112163   9.769   8.634   3.420  2.5530 -2.3370  0.4503
35826SOL    HW212164   9.828   8.642   3.281  0.4198 -0.6734 -0.3995
35827SOL     OW12165   3.011  11.536   3.342 -0.1677  0.6394  0.3491
35827SOL    HW112166   2.941  11.601   3.336 -0.2561  0.5456  0.3582
35827SOL    HW212167   2.975  11.458   3.302  0.0236  0.6652  0.1267
35828SOL     OW12168   8.744   2.595  10.932  0.6635  0.3112  0.0718
35828SOL    HW112169   8.730   2.530  11.001 -2.6382 -0.0663 -0.7833
35828SOL    HW212170   8.798   2.549  10.867  0.5338 -0.6776  0.6299
35829SOL     OW12171   2.030   6.716   1.707 -0.2802  0.3290 -0.1157
35829SOL    HW112172   2.093   6.651   1.736 -0.7624 -0.6703 -1.2392
35829SOL    HW212173   2.082   6.796   1.694  0.3885  0.0698  0.8493
35830SOL     OW12174   7.889   8.226   3.830  0.3158  0.7049 -0.6135
35830SOL    HW112175   7.850   8.308   3.860  1.6757  0.4284  2.3631
35830SOL    HW212176   7.971   8.253   3.788  0.9045  0.9122  0.6188
35831SOL     OW12177   0.926   3.992   9.536  0.1354 -0.0560  0.4805
35831SOL    HW112178   0.879   4.021   9.458 -1.5006 -1.2854  0.9589
35831SOL    HW212179   1.005   3.950   9.503 -0.8708 -1.1913 -0.5859
35832SOL     OW12180   2.247   8.144   6.109 -0.0492  0.6302 -0.1919
35832SOL    HW112181   2.209   8.151   6.022 -1.0107 -0.3631  0.1290
35832SOL    HW212182   2.233   8.229   6.149 -2.2178  0.2146  0.0186
35833SOL     OW12183   0.694   0.102   1.367 -0.1183 -0.0673  0.0674
35833SOL    HW112184   0.722   0.109   1.458  1.0411  0.2876 -0.3096
35833SOL    HW212185   0.646   0.183   1.350  0.9789  0.5728 -0.0723
35834SOL     OW12186   9.059   7.286   1.435 -0.6860 -0.0468 -0.3491
35834SOL    HW112187   9.072   7.200   1.395  2.0570  0.6524 -1.1934
35834SOL    HW212188   8.968   7.285   1.465 -1.2083 -2.6405 -1.7089
35835SOL     OW12189   0.196   8.418   0.632  0.5865  0.0455 -0.1885
35835SOL    HW112190   0.262   8.468   0.585  1.4430  0.2891  1.2145
35835SOL    HW212191   0.216   8.433   0.725 -1.4047  0.1096  0.2901
35836SOL     OW12192   2.877   4.635   3.048  0.5893  0.2532 -1.1004
35836SOL    HW112193   2.889   4.671   3.136 -1.0692  0.8546 -1.0863
35836SOL    HW212194   2.804   4.684   3.012  0.2136 -1.0686 -2.2270
35837SOL     OW12195   4.713   1.053   6.631 -0.5625  0.3890 -0.7342
35837SOL    HW112196   4.691   0.961   6.644  3.5259 -0.8463 -0.9767
35837SOL    HW212197   4.649   1.101   6.684 -2.3496 -2.6033  0.0643
35838SOL     OW12198   0.629   3.004   7.275  0.5335 -0.3461 -0.3044
35838SOL    HW112199   0.538   2.974   7.274 -0.1876  1.6988 -1.3366
35838SOL    HW212200   0.654   3.007   7.183  1.3395  0.0036 -0.0772
35839SOL     OW12201   0.155   8.535  10.475  0.0991 -0.1136 -0.3378
35839SOL    HW112202   0.088   8.550  10.408  1.8109  1.0385 -1.8877
35839SOL    HW212203   0.176   8.442  10.468 -0.5584 -0.2519 -0.5589
35840SOL     OW12204   1.128   0.325  10.908  0.7097 -0.2704  0.7557
35840SOL    HW112205   1.113   0.261  10.839 -0.3533  1.4897 -0.7464
35840SOL    HW212206   1.216   0.306  10.940  1.3966 -0.9004 -1.3833
35841SOL     OW12207   1.848   8.091   3.576  0.2291 -0.0278 -0.3163
35841SOL    HW112208   1.782   8.043   3.526  1.9489 -0.9917 -1.7824
35841SOL    HW212209   1.924   8.094   3.518  1.4314  1.1949  1.2422
35842SOL     OW12210   2.152   6.331  11.795 -0.5079  0.0587  0.4851
35842SOL    HW112211   2.195   6.406  11.753 -0.3922  0.3959  1.2013
35842SOL    HW212212   2.095   6.370  11.861 -0.1947 -0.4994  1.0935
35843SOL     OW12213  10.223   3.831   9.073  0.5579 -0.0376 -0.0205
35843SOL    HW112214  10.197   3.896   9.138  2.0915 -0.1525  0.7557
35843SOL    HW212215  10.292   3.874   9.022  0.2944 -0.4189 -0.7247
35844SOL     OW12216   6.756   5.100   1.568  0.0833 -0.1747  0.6508
35844SOL    HW112217   6.773   5.181   1.617 -0.6228  0.7198 -0.5195
35844SOL    HW212218   6.836   5.087   1.517 -0.6950  1.1814 -0.9978
35845SOL     OW12219  11.015   1.723   3.584 -0.7390 -0.4960  0.0283
35845SOL    HW112220  10.925   1.727   3.616 -0.9110 -0.3995 -0.4617
35845SOL    HW212221  11.008   1.682   3.497 -0.3059 -0.5297  0.0055
35846SOL     OW12222   6.776   3.565   1.609  0.4260 -0.2474  0.3677
35846SOL    HW112223   6.772   3.568   1.513 -2.7577  0.6678  0.3888
35846SOL    HW212224   6.865   3.589   1.631  0.7919  1.2683 -2.3522
35847SOL     OW12225   0.327   9.655   6.574  0.1830  0.0127  0.5353
35847SOL    HW112226   0.342   9.581   6.632 -0.7201  0.6951  1.6980
35847SOL    HW212227   0.236   9.682   6.592  0.1341  0.7431 -0.6267
35848SOL     OW12228   6.353   5.123   2.064 -0.8230 -0.3276  0.3667
35848SOL    HW112229   6.302   5.129   2.145 -0.0982  0.6369  0.7718
35848SOL    HW212230   6.419   5.192   2.072 -1.1726  0.2638 -1.3478
35849SOL     OW12231   4.872   9.498   1.629 -0.2610 -0.3477 -0.2345
35849SOL    HW112232   4.951   9.529   1.584 -0.6941 -0.6146 -1.2252
35849SOL    HW212233   4.814   9.473   1.558 -1.4066  0.2444  0.4661
35850SOL     OW12234   5.029   5.644   2.747 -0.3663  0.8838  0.2387
35850SOL    HW112235   5.094   5.640   2.677 -0.2319  0.3038  0.3891
35850SOL    HW212236   4.959   5.585   2.718  0.0416  0.0308  0.9338
35851SOL     OW12237  10.032   8.981   7.255 -0.0451 -0.1756 -0.2312
35851SOL    HW112238  10.047   8.922   7.182 -1.5070 -2.3202  1.0645
35851SOL    HW212239  10.116   8.987   7.300  0.7991  0.9699 -1.8744
35852SOL     OW12240   6.440   3.466  10.968 -0.0183  0.7046 -0.1536
35852SOL    HW112241   6.457   3.471  11.062  1.3814  1.0493 -0.4062
35852SOL    HW212242   6.348   3.493  10.959 -0.2861  0.2953  1.1395
35853SOL     OW12243  10.360   8.755  11.266 -0.4301 -0.0616 -0.7870
35853SOL    HW112244  10.381   8.837  11.222  1.7611 -0.0470  0.1563
35853SOL    HW212245  10.378   8.687  11.201 -1.3750  0.1392 -1.2726
35854SOL     OW12246   2.465   4.602   4.902 -0.4308  0.2784  0.3823
35854SOL    HW112247   2.408   4.548   4.847 -0.7754  0.7109  0.3058
35854SOL    HW212248   2.493   4.673   4.845  0.1904  0.0696  0.4227
35855SOL     OW12249   4.644   0.726   4.179  0.3940  0.1870 -0.4675
35855SOL    HW112250   4.701   0.714   4.254 -0.1996 -0.1399 -0.0577
35855SOL    HW212251   4.634   0.820   4.169 -0.4114  0.2277  0.5607
35856SOL     OW12252   1.064   4.465   4.074 -0.0545 -0.5274  0.4834
35856SOL    HW112253   1.056   4.553   4.113 -0.4225 -1.0394  1.6251
35856SOL    HW212254   1.130   4.475   4.006 -0.4103  0.7410  0.2840
35857SOL     OW12255  10.439   6.763   2.782 -0.6464  0.1483 -0.4219
35857SOL    HW112256  10.476   6.820   2.850  0.2731 -1.7875  0.8000
35857SOL    HW212257  10.484   6.789   2.702  1.1809 -0.0710  0.4633
35858SOL     OW12258   9.658   1.439   1.155  0.4828 -0.3737 -0.4844
35858SOL    HW112259   9.602   1.421   1.080  0.2996  0.4457 -0.5519
35858SOL    HW212260   9.738   1.389   1.137  1.1407  1.1311 -2.0944
35859SOL     OW12261  11.051   3.047   7.664  0.1951 -0.0851  0.0183
35859SOL    HW112262  11.034   3.026   7.756  1.3690 -0.0036  0.2668
35859SOL    HW212263  11.019   2.971   7.616  0.1267 -0.3928  0.5370
35860SOL     OW12264   0.050  10.984   5.349 -0.2887  0.0185 -0.3627
35860SOL    HW112265  -0.012  11.048   5.314  0.0639 -0.1509 -1.3277
35860SOL    HW212266   0.101  11.032   5.413 -2.1765 -0.1223  1.3486
35861SOL     OW12267   3.654  10.915   6.271  0.1570 -0.2036  0.6167
35861SOL    HW112268   3.579  10.906   6.212  0.7991 -0.6919 -0.1427
35861SOL    HW212269   3.701  10.832   6.263 -1.2948 -1.5498  4.0373
35862SOL     OW12270   6.827   0.285   5.893  0.0906 -0.2174  0.0469
35862SOL    HW112271   6.747   0.305   5.845 -0.3662 -1.3800  0.3027
35862SOL    HW212272   6.897   0.319   5.837 -0.4817 -0.7264 -1.0170
35863SOL     OW12273  10.831   4.845   5.524  0.8249  0.5758 -0.5232
35863SOL    HW112274  10.882   4.841   5.443 -0.2029  2.3279 -1.3057
35863SOL    HW212275  10.894   4.874   5.590  0.9635  2.5278 -1.4361
35864SOL     OW12276   7.180  11.883  11.248 -0.2445 -1.5467 -0.3278
35864SOL    HW112277   7.090  11.875  11.281 -0.3634 -0.8417 -0.4737
35864SOL    HW212278   7.170  11.887  11.153 -0.3229  1.4729 -0.2809
35865SOL     OW12279   1.368   5.180   7.984 -0.2128 -0.4231 -0.1961
35865SOL    HW112280   1.441   5.224   7.940  0.6833 -0.8646  0.7882
35865SOL    HW212281   1.291   5.204   7.934  0.3963  1.3766 -0.3330
35866SOL     OW12282   0.801   0.223   2.908 -0.4078 -0.1117  0.4097
35866SOL    HW112283   0.886   0.231   2.953  0.7382  0.1647 -1.6968
35866SOL    HW212284   0.811   0.274   2.828 -2.4220 -0.4900 -0.1371
35867SOL     OW12285   3.800   0.026   8.178  0.3143 -0.3766 -0.1139
35867SOL    HW112286   3.733   0.094   8.167  0.4551 -0.1867  0.2094
35867SOL    HW212287   3.752  -0.056   8.166  0.0288 -0.2398  0.0832
35868SOL     OW12288   4.301   0.700   5.053 -0.0246  0.7800  1.1367
35868SOL    HW112289   4.374   0.670   4.997 -0.0915  2.5213  0.0152
35868SOL    HW212290   4.333   0.782   5.091 -0.9638  0.9434  1.5982
35869SOL     OW12291   5.157   2.230   8.660 -0.5413  0.4719 -0.4995
35869SOL    HW112292   5.125   2.314   8.626  0.7377  0.6705 -1.2892
35869SOL    HW212293   5.183   2.250   8.750 -1.6333  0.5503 -0.1913
35870SOL     OW12294   1.635   1.722   1.366 -0.1941 -0.4008  0.1572
35870SOL    HW112295   1.615   1.646   1.311  1.4799  0.2873 -1.5069
35870SOL    HW212296   1.651   1.685   1.453  0.6108 -1.9661 -0.6217
35871SOL     OW12297   6.381   4.388   8.759 -0.6209  0.0000 -0.1636
35871SOL    HW112298   6.446   4.324   8.787 -0.1539 -0.0614 -1.3512
35871SOL    HW212299   6.418   4.473   8.784 -0.5207 -0.0916  0.0025
35872SOL     OW12300  10.282   5.506  10.611  0.1066 -0.5514 -0.0213
35872SOL    HW112301  10.292   5.501  10.515  2.8329  0.7116  0.0907
35872SOL    HW212302  10.214   5.572  10.624 -0.0428 -0.4608 -1.1002
35873SOL     OW12303   8.548   1.209   8.715  0.2415 -0.0855  0.0721
35873SOL    HW112304   8.490   1.222   8.790 -0.1765  1.2374 -0.4605
35873SOL    HW212305   8.611   1.281   8.720  0.3892 -0.1535 -0.6847
35874SOL     OW12306  10.539   1.360  10.959 -0.1255 -0.4637 -0.1101
35874SOL    HW112307  10.481   1.288  10.935  0.3699 -1.1605  0.7531
35874SOL    HW212308  10.607   1.320  11.013  0.3463  0.5872  0.1009
35875SOL     OW12309   8.604   2.412   0.647  0.3591  0.2352 -0.0390
35875SOL    HW112310   8.585   2.499   0.612  2.1058  0.5862 -0.2510
35875SOL    HW212311   8.578   2.352   0.577  0.9784  0.7356 -0.7192
35876SOL     OW12312  10.667   3.988   6.432  0.3370 -0.5421 -0.2681
35876SOL    HW112313  10.657   3.910   6.486  0.3409 -1.8246 -2.0247
35876SOL    HW212314  10.589   3.989   6.376 -0.2653  1.4051  0.5178
35877SOL     OW12315   9.512   8.076   2.691  0.3111 -0.2661 -0.1125
35877SOL    HW112316   9.425   8.063   2.653  0.4593 -0.9238 -0.2268
35877SOL    HW212317   9.504   8.045   2.781  0.4547 -0.4152 -0.1511
35878SOL     OW12318  11.224   4.747   8.777 -0.4359  0.6411  0.2517
35878SOL    HW112319  11.298   4.703   8.734 -0.0558  1.0157  0.5033
35878SOL    HW212320  11.264   4.793   8.851 -0.3661  3.4223 -1.3477
35879SOL     OW12321   9.282   1.173   3.000 -0.2512  0.3857 -0.1138
35879SOL    HW112322   9.219   1.243   3.016  0.7514  0.9910  1.4356
35879SOL    HW212323   9.368   1.214   3.014  0.3435 -1.3577  1.8729
35880SOL     OW12324   6.974   3.028   8.635  0.4931  0.8920  0.2965
35880SOL    HW112325   6.952   3.089   8.565  0.9895 -0.6346 -1.2256
35880SOL    HW212326   7.068   3.042   8.650  1.0887 -0.8505 -1.4770
35881SOL     OW12327  10.856   0.000   4.996  0.2592  0.3054  0.2467
35881SOL    HW112328  10.877  -0.016   5.087  0.8829 -3.0403 -0.3688
35881SOL    HW212329  10.941   0.001   4.951 -0.0035  2.3083 -0.3125
35882SOL     OW12330   1.488   1.396   7.097  0.6320 -0.5926  0.3038
35882SOL    HW112331   1.480   1.395   7.002 -0.1757 -2.7797  0.3262
35882SOL    HW212332   1.469   1.486   7.122 -1.0187 -0.3615 -1.4957
35883SOL     OW12333   5.151  10.061   8.881 -0.0838  0.9584  0.1560
35883SOL    HW112334   5.057  10.075   8.870 -0.1328  0.4972 -0.0643
35883SOL    HW212335   5.168  10.082   8.972 -0.4140  0.9825  0.2153
35884SOL     OW12336   3.504   0.997   2.586 -0.1982 -0.0148 -0.5839
35884SOL    HW112337   3.490   0.927   2.650 -0.5292 -1.3736 -2.0834
35884SOL    HW212338   3.578   0.966   2.533 -1.0863  0.2109 -1.9904
35885SOL     OW12339   6.143   3.457   5.509 -0.4786 -0.4922  0.1668
35885SOL    HW112340   6.217   3.404   5.537  2.0733  1.9609 -1.3196
35885SOL    HW212341   6.125   3.428   5.420 -0.0877  0.0515 -0.0999
35886SOL     OW12342  11.604   6.287   2.021  0.4067  0.4396  0.6046
35886SOL    HW112343  11.674   6.245   1.972  0.5460  1.5143 -0.1660
35886SOL    HW212344  11.533   6.222   2.022  0.9186 -0.1377  0.1933
35887SOL     OW12345   9.579   3.107   4.795 -0.1902  0.2563  0.1236
35887SOL    HW112346   9.670   3.117   4.767 -1.0660  1.7392 -2.6420
35887SOL    HW212347   9.568   3.013   4.807  1.7977  0.0860  1.0164
35888SOL     OW12348  11.048   1.828   9.901  0.1055  0.4690 -0.0883
35888SOL    HW112349  10.981   1.872   9.954  0.9698  0.1134  1.3387
35888SOL    HW212350  11.001   1.754   9.862 -0.9916  1.7433 -1.3317
35889SOL     OW12351   7.326  11.964   1.233 -0.8152 -0.0756  0.9263
35889SOL    HW112352   7.327  11.884   1.181 -0.8255 -0.4066  1.4273
35889SOL    HW212353   7.280  11.939   1.314  0.9227 -0.1122  1.9440
35890SOL     OW12354   3.323   5.705   0.899 -0.3026 -0.2350  0.3029
35890SOL    HW112355   3.350   5.639   0.835 -1.6175  0.0830 -0.6119
35890SOL    HW212356   3.280   5.655   0.968 -0.4680 -0.4208  0.0670
35891SOL     OW12357  11.208   6.872   2.338  0.4196 -0.0476  0.1002
35891SOL    HW112358  11.156   6.916   2.272  0.9156 -0.4279 -0.5584
35891SOL    HW212359  11.226   6.785   2.301  0.6384 -0.2892  0.7594
35892SOL     OW12360   6.339   7.223   2.639  0.2544 -0.0825  0.4034
35892SOL    HW112361   6.406   7.289   2.655 -1.0146  0.6779  3.2726
35892SOL    HW212362   6.354   7.194   2.549  3.7144  0.7720  0.5928
35893SOL     OW12363  10.180   2.521   4.973 -0.1334  0.2787 -0.4922
35893SOL    HW112364  10.259   2.502   4.923  0.2552 -1.3326  0.6513
35893SOL    HW212365  10.156   2.437   5.013 -2.7733  0.5828 -1.2816
35894SOL     OW12366   8.283   5.847   6.464 -0.8316  0.4792  0.1468
35894SOL    HW112367   8.299   5.938   6.440  1.8597 -0.1004 -0.5934
35894SOL    HW212368   8.314   5.840   6.554  1.8363 -0.2583 -0.7257
35895SOL     OW12369   5.664   3.895   6.073  0.5463  0.5672  0.4424
35895SOL    HW112370   5.730   3.831   6.047  0.4845 -0.2729  2.1815
35895SOL    HW212371   5.582   3.859   6.040  0.6401  0.2613  0.5358
35896SOL     OW12372   9.782   3.847   5.684  1.1160  0.1546 -0.3684
35896SOL    HW112373   9.767   3.788   5.758  0.9976  1.6736  0.8622
35896SOL    HW212374   9.766   3.793   5.607 -1.3099 -0.8314  0.7271
35897SOL     OW12375  10.879   0.074   5.289 -0.7270  0.8140  0.1611
35897SOL    HW112376  10.918   0.085   5.375 -0.3961 -1.2036  0.3188
35897SOL    HW212377  10.896   0.156   5.244  1.4214  0.9527  1.1305
35898SOL     OW12378   6.757   6.604   8.994  0.4808 -0.5266 -0.3915
35898SOL    HW112379   6.777   6.682   9.045 -0.6790 -0.1218 -0.5292
35898SOL    HW212380   6.672   6.622   8.955  0.2081 -1.8558 -0.4534
35899SOL     OW12381   3.658   6.081  10.628 -0.0504  0.1810  0.8508
35899SOL    HW112382   3.615   6.120  10.704  2.0460  0.7433  1.8029
35899SOL    HW212383   3.750   6.101  10.639  0.3418  0.2892 -1.8598
35900SOL     OW12384   3.438  10.387   2.524  0.4998 -0.7060  0.1036
35900SOL    HW112385   3.495  10.363   2.597  0.0390  1.3146  1.2207
35900SOL    HW212386   3.473  10.471   2.494 -0.2644 -0.7622 -0.9883
35901SOL     OW12387   7.970  10.689   0.180 -0.4747  0.4623  0.2726
35901SOL    HW112388   7.931  10.766   0.139  1.0409  0.9881 -0.2849
35901SOL    HW212389   7.988  10.716   0.270 -3.1324 -0.4486  1.1495
35902SOL     OW12390   8.495  11.103   2.651  0.1155  0.2369  0.1571
35902SOL    HW112391   8.509  11.189   2.612  2.7297 -0.4788 -0.6747
35902SOL    HW212392   8.411  11.073   2.614 -0.5169  2.1169 -0.0350
35903SOL     OW12393   1.566   4.737   3.512 -0.3709  0.2466 -0.4155
35903SOL    HW112394   1.605   4.784   3.585 -2.9429 -0.4718  1.5810
35903SOL    HW212395   1.568   4.645   3.538 -1.7303  0.0224 -0.9839
35904SOL     OW12396   5.867   2.073   3.424 -0.1976 -0.0710  0.0251
35904SOL    HW112397   5.817   2.139   3.472  1.2955  1.5649 -0.5431
35904SOL    HW212398   5.831   2.076   3.335  0.8862  1.1633 -0.4044
35905SOL     OW12399   8.583   1.852   1.586 -0.9567  0.0077  0.5080
35905SOL    HW112400   8.498   1.820   1.616 -0.9128 -0.2510  0.3629
35905SOL    HW212401   8.582   1.838   1.492 -2.6059  4.2931 -0.3179
35906SOL     OW12402   8.468   1.011   1.551  0.1662  0.1018 -0.0547
35906SOL    HW112403   8.383   1.006   1.508 -0.3945 -0.4946  1.0851
35906SOL    HW212404   8.452   1.062   1.630  1.0639  0.7180 -0.2476
35907SOL     OW12405   7.335   8.136  11.743  0.3895 -0.8985 -0.4512
35907SOL    HW112406   7.307   8.149  11.833  0.4667  0.6883 -0.6254
35907SOL    HW212407   7.428   8.112  11.749  0.9311  1.1071 -0.1533
35908SOL     OW12408   1.343   2.089   3.285 -0.6182  0.2779 -0.2555
35908SOL    HW112409   1.284   2.067   3.214  0.8371 -0.4822 -1.2793
35908SOL    HW212410   1.398   2.160   3.251  0.6269 -0.6332 -0.2250
35909SOL     OW12411   6.099   4.801   4.216  0.0878 -0.1907 -0.1624
35909SOL    HW112412   6.010   4.812   4.183  0.1879  1.8940  0.1514
35909SOL    HW212413   6.128   4.890   4.236  1.3335 -1.0531  2.1283
35910SOL     OW12414   3.423   3.376   0.657  0.4037  0.0422  0.4639
35910SOL    HW112415   3.354   3.391   0.593  2.4957  0.4843 -1.8510
35910SOL    HW212416   3.453   3.287   0.640  0.3028 -0.2235  1.5825
35911SOL     OW12417   0.445   7.983   9.723 -0.3753  0.0172 -0.0713
35911SOL    HW112418   0.460   7.924   9.649  0.3192  2.8619 -2.3940
35911SOL    HW212419   0.357   8.019   9.707 -0.7339 -0.2368  1.2297
35912SOL     OW12420   3.281   0.646   1.106 -1.0071 -0.2087  0.2731
35912SOL    HW112421   3.346   0.589   1.065  0.1877  0.3630  1.3282
35912SOL    HW212422   3.275   0.615   1.196 -0.4574  1.2014  0.8232
35913SOL     OW12423   9.520   9.381   0.922 -0.0262  0.0781  0.7657
35913SOL    HW112424   9.467   9.307   0.954 -1.8001  1.3184  0.8408
35913SOL    HW212425   9.495   9.390   0.831  2.0516 -0.9152  0.0262
35914SOL     OW12426   7.547   5.829   5.848 -0.0910 -0.3482 -0.0415
35914SOL    HW112427   7.607   5.900   5.870  0.1222 -0.1405 -1.2321
35914SOL    HW212428   7.597   5.749   5.866  0.0931 -0.1810  0.1780
35915SOL     OW12429   6.124   0.779  10.691  0.1471  0.1644 -0.3297
35915SOL    HW112430   6.069   0.847  10.652 -0.5085  0.8897  1.7209
35915SOL    HW212431   6.198   0.826  10.727 -1.3704  0.2612  3.0824
35916SOL     OW12432   5.477   3.072   2.991  0.0341  0.5338 -0.8042
35916SOL    HW112433   5.422   3.148   2.970 -2.4002 -0.7678  0.4301
35916SOL    HW212434   5.450   3.005   2.928 -1.9127 -0.9816  1.4403
35917SOL     OW12435   7.554   9.744  10.629 -0.3267  0.0195  0.2645
35917SOL    HW112436   7.591   9.662  10.663 -1.8820 -0.1376  1.7186
35917SOL    HW212437   7.628   9.788  10.588  1.0300 -1.1452  1.3444
35918SOL     OW12438   9.096   0.675   7.936  0.1527  1.0865  0.4907
35918SOL    HW112439   9.170   0.719   7.895 -0.1682  1.4867  0.3323
35918SOL    HW212440   9.073   0.731   8.010 -0.5294  1.4190  0.0345
35919SOL     OW12441   5.997   9.805  10.573  0.0608 -0.1959  0.2284
35919SOL    HW112442   5.931   9.840  10.513 -0.6650 -1.8548  0.0156
35919SOL    HW212443   6.038   9.883  10.611 -1.7430  0.8908  0.0702
35920SOL     OW12444  11.211   8.601   3.965  0.2107 -0.6713  0.5132
35920SOL    HW112445  11.163   8.649   3.898  0.2054  0.2439  1.1587
35920SOL    HW212446  11.260   8.667   4.013 -0.3378 -1.1970  1.8624
35921SOL     OW12447   1.601   9.260   4.463  0.3318 -0.1813 -0.1697
35921SOL    HW112448   1.605   9.195   4.392 -0.1010 -0.1406 -0.2344
35921SOL    HW212449   1.683   9.308   4.456  0.3826 -0.3135 -0.5139
35922SOL     OW12450  11.393   3.021   2.758  0.0029  0.3921  0.0995
35922SOL    HW112451  11.435   3.082   2.818 -0.7142 -0.4564  1.5290
35922SOL    HW212452  11.465   2.978   2.713  0.5503  1.2925  0.0977
35923SOL     OW12453   7.876   6.483   2.977 -0.1940 -0.4265  0.6982
35923SOL    HW112454   7.920   6.459   3.059 -0.2276 -1.6909  0.3706
35923SOL    HW212455   7.925   6.558   2.945  0.1545 -0.2466  1.6064
35924SOL     OW12456   3.098   6.674   2.257  0.1146  0.0832  0.4208
35924SOL    HW112457   3.131   6.728   2.329  0.8835  0.3042 -0.0938
35924SOL    HW212458   3.105   6.584   2.290  1.4278  0.1105  0.2519
35925SOL     OW12459   4.840   9.147   7.606 -0.1286  0.0563 -0.7905
35925SOL    HW112460   4.850   9.052   7.614 -0.7673 -0.0789 -1.5300
35925SOL    HW212461   4.775   9.170   7.673  1.1914  0.2191  0.4915
35926SOL     OW12462   5.826  10.098   4.478  0.2227  0.0790 -0.1612
35926SOL    HW112463   5.740  10.071   4.447  0.3742 -1.6564  0.7714
35926SOL    HW212464   5.809  10.138   4.564  0.3492 -0.5241  0.1527
35927SOL     OW12465   1.464   0.408   5.310  0.3235 -0.4697 -0.0965
35927SOL    HW112466   1.455   0.314   5.301 -2.4539 -0.2344 -0.7253
35927SOL    HW212467   1.528   0.433   5.244 -1.1703 -1.6330 -2.0905
35928SOL     OW12468   3.776  10.938   9.672 -0.4552  0.1826 -0.1085
35928SOL    HW112469   3.721  10.935   9.593  0.2249 -1.4299 -0.5599
35928SOL    HW212470   3.715  10.960   9.743 -1.7543 -1.6322 -0.5783
35929SOL     OW12471  11.451   0.529   8.526 -0.6219  0.0089 -0.1882
35929SOL    HW112472  11.468   0.623   8.525 -1.1196  0.1657 -3.0055
35929SOL    HW212473  11.452   0.504   8.433 -1.0245 -2.6656  0.4615
35930SOL     OW12474   9.025   5.940   5.265  0.2026 -0.0091 -0.0694
35930SOL    HW112475   9.107   5.903   5.297  0.0106 -0.7694 -0.4393
35930SOL    HW212476   8.979   5.866   5.225 -0.1554  0.6365 -0.8963
35931SOL     OW12477   9.354   6.371  10.813 -0.0727  0.2013 -0.0313
35931SOL    HW112478   9.348   6.454  10.860  0.9964 -0.1167  0.7081
35931SOL    HW212479   9.264   6.338  10.811 -0.0565 -0.1758  2.5825
35932SOL     OW12480   2.442   1.314  11.662 -0.2014  0.0179 -0.0450
35932SOL    HW112481   2.505   1.275  11.722  0.5660 -1.2723 -1.6069
35932SOL    HW212482   2.489   1.387  11.622  0.1864 -0.6629 -0.8727
35933SOL     OW12483   4.318   4.935  11.034 -0.0158 -0.0875  0.7738
35933SOL    HW112484   4.285   4.917  11.122 -0.1624  0.5223  0.8487
35933SOL    HW212485   4.241   4.966  10.986 -0.1250 -1.2398  0.1795
35934SOL     OW12486   8.817   3.794  11.061  0.0370  0.3689  0.0337
35934SOL    HW112487   8.897   3.820  11.106  0.9449 -0.2906 -1.1054
35934SOL    HW212488   8.808   3.857  10.990 -0.8650  0.8606  0.5714
35935SOL     OW12489   5.310   3.720   5.786 -0.1868  0.6601  0.3003
35935SOL    HW112490   5.239   3.696   5.846 -0.2460  1.4258  0.5467
35935SOL    HW212491   5.285   3.679   5.703  0.6608 -1.6925  1.1220
35936SOL     OW12492  11.200   7.062   6.566  0.1487 -0.0649 -0.0586
35936SOL    HW112493  11.280   7.015   6.590  0.2316  0.2624  0.3274
35936SOL    HW212494  11.129   7.006   6.598  0.1514 -1.1569 -1.8353
35937SOL     OW12495   7.381   8.789  11.856 -0.0316  0.0869 -0.1324
35937SOL    HW112496   7.286   8.795  11.863 -0.0717 -1.5457  1.4249
35937SOL    HW212497   7.413   8.842  11.929  0.1135 -1.5791  1.0904
35938SOL     OW12498   1.893  10.298   6.686 -0.0449  0.1962  0.1384
35938SOL    HW112499   1.860  10.376   6.641  1.0543  0.8942  0.4993
35938SOL    HW212500   1.975  10.278   6.641 -1.1723 -1.8848 -1.1628
35939SOL     OW12501   6.975  10.685   7.753 -0.7977  0.1007 -0.2981
35939SOL    HW112502   7.021  10.725   7.679  1.0413 -0.3237  0.5697
35939SOL    HW212503   7.031  10.704   7.828 -1.6150 -1.2123  0.6587
35940SOL     OW12504  11.727   0.289   6.034 -0.3789  0.6194 -0.3492
35940SOL    HW112505  11.732   0.194   6.022 -2.8104  0.6359 -2.6016
35940SOL    HW212506  11.800   0.324   5.984  0.9791 -0.0389  1.1064
35941SOL     OW12507   5.553   2.356  10.599 -0.4572  0.0400  0.0629
35941SOL    HW112508   5.573   2.280  10.653 -2.8211 -0.0036  1.0120
35941SOL    HW212509   5.489   2.406  10.651  0.8225  2.5538 -0.6453
35942SOL     OW12510   8.055   6.676   3.307  0.1851  0.0634  0.1131
35942SOL    HW112511   8.125   6.737   3.284 -0.9579  1.0897 -0.7232
35942SOL    HW212512   8.051   6.680   3.403  0.5282  0.8485  0.1030
35943SOL     OW12513   7.091  11.814   9.983 -0.1613 -0.0442  0.8533
35943SOL    HW112514   7.166  11.844   9.932 -0.7224 -0.8615 -0.5007
35943SOL    HW212515   7.095  11.718   9.976 -2.7306 -0.0992 -1.4210
35944SOL     OW12516   7.574   0.020  10.951  0.0882  0.0101  0.7654
35944SOL    HW112517   7.511   0.055  10.888  0.2189  1.5355  1.4467
35944SOL    HW212518   7.563   0.075  11.029  3.7117  1.7806  0.2292
35945SOL     OW12519   4.500   8.229   2.972  0.0845  0.0768 -0.0264
35945SOL    HW112520   4.513   8.323   2.985  0.2842 -0.1008  1.2802
35945SOL    HW212521   4.407   8.220   2.951  0.2323  0.6248 -0.9660
35946SOL     OW12522   7.026   2.323   2.677 -0.3928  0.5766  0.2218
35946SOL    HW112523   7.101   2.379   2.660  0.7215 -1.2268 -1.0777
35946SOL    HW212524   6.961   2.382   2.715  1.2323  2.4261  0.3018
35947SOL     OW12525   8.393   1.272   8.937 -0.1884 -0.3081 -0.5549
35947SOL    HW112526   8.303   1.290   8.908 -1.4510 -1.0451  2.5436
35947SOL    HW212527   8.421   1.354   8.978  0.7568  0.0274 -1.8009
35948SOL     OW12528   2.051   3.791   9.969 -1.1277  0.1967  0.2725
35948SOL    HW112529   2.136   3.834   9.977 -1.1403 -0.1244  3.2513
35948SOL    HW212530   1.990   3.862   9.949 -0.3963  0.6360 -0.4731
35949SOL     OW12531   2.235   7.875   8.035  0.2303  0.0234 -0.2710
35949SOL    HW112532   2.205   7.919   8.115 -1.4120 -1.2652 -0.1023
35949SOL    HW212533   2.252   7.785   8.063 -0.4637 -0.4705 -1.3598
35950SOL     OW12534  10.182   8.436  11.189  0.3382  0.7447 -0.5270
35950SOL    HW112535  10.145   8.462  11.104  0.0494  0.4585 -0.4910
35950SOL    HW212536  10.273   8.464  11.185  0.7212 -0.5517 -1.4994
35951SOL     OW12537   7.580   0.104  11.813 -0.0933  0.7991 -0.9618
35951SOL    HW112538   7.658   0.055  11.837  0.3137  0.9707 -1.8973
35951SOL    HW212539   7.575   0.096  11.718 -1.7340  0.0107 -0.8524
35952SOL     OW12540   9.415   8.885   0.638 -0.0956 -0.0552  0.0441
35952SOL    HW112541   9.507   8.861   0.632  0.1768  1.1657 -1.4043
35952SOL    HW212542   9.389   8.900   0.547 -0.9508  2.3178  0.6079
35953SOL     OW12543   2.428   2.544   9.740 -0.2250 -0.3294  0.5005
35953SOL    HW112544   2.342   2.556   9.781 -1.2163  0.2911 -1.6630
35953SOL    HW212545   2.461   2.462   9.778 -1.9884 -0.8561  1.0003
35954SOL     OW12546   3.682   4.516   5.550  0.0619  0.1874  0.0287
35954SOL    HW112547   3.624   4.441   5.564 -0.5368  0.5024 -0.6553
35954SOL    HW212548   3.761   4.478   5.511 -0.6176 -0.0033 -1.2254
35955SOL     OW12549   9.520   9.719   8.610 -0.2890 -0.1941  0.3792
35955SOL    HW112550   9.556   9.794   8.658  2.4211 -0.2926 -1.3000
35955SOL    HW212551   9.588   9.695   8.548 -2.0390 -2.5942 -0.7846
35956SOL     OW12552  11.599   4.750   0.076 -0.2813  0.5190 -0.0458
35956SOL    HW112553  11.568   4.705   0.155  2.4167  0.6622  1.1923
35956SOL    HW212554  11.608   4.841   0.103  2.2695  0.2850  0.0694
35957SOL     OW12555   8.102   9.371   2.410  0.4293  0.3930  0.0296
35957SOL    HW112556   8.114   9.386   2.316  0.2549  0.3945  0.0072
35957SOL    HW212557   8.029   9.310   2.416  0.5454  0.2651  0.1593
35958SOL     OW12558   1.083   2.453  10.580  0.0369  0.0048 -0.1996
35958SOL    HW112559   1.071   2.487  10.491 -0.3773  2.7602  0.7919
35958SOL    HW212560   1.001   2.475  10.625  0.5099 -0.6842  1.0549
35959SOL     OW12561  10.639   2.715   9.802 -0.0687  0.4178  0.2707
35959SOL    HW112562  10.605   2.634   9.839 -0.3954  0.1521 -0.5789
35959SOL    HW212563  10.726   2.692   9.768 -1.2505 -0.3559 -2.5034
35960SOL     OW12564   0.560   0.925   5.456  0.4837 -0.3548 -0.1191
35960SOL    HW112565   0.607   1.007   5.469 -1.0714  0.4046  1.1712
35960SOL    HW212566   0.470   0.945   5.482 -0.3391 -2.0044 -1.4762
35961SOL     OW12567   8.971   1.251   4.654 -0.1797 -0.7359 -0.1968
35961SOL    HW112568   9.008   1.306   4.723 -1.1326 -1.9896  1.3731
35961SOL    HW212569   9.046   1.204   4.617  0.0569 -2.1503  1.9306
35962SOL     OW12570   5.648  11.759  10.725  0.0046 -0.0818 -0.2000
35962SOL    HW112571   5.639  11.785  10.634 -1.3549  0.5538  0.0962
35962SOL    HW212572   5.743  11.759  10.741  0.1956  3.0287 -0.7168
35963SOL     OW12573   2.756   1.636   4.133 -0.2203  0.1386  0.4425
35963SOL    HW112574   2.679   1.642   4.077  0.7774 -0.4399 -1.0389
35963SOL    HW212575   2.754   1.717   4.184  0.0905  1.9128 -2.1457
35964SOL     OW12576  10.246   4.128   1.080  0.1701 -0.6589 -0.1022
35964SOL    HW112577  10.339   4.114   1.098  0.2756 -0.3828 -0.4310
35964SOL    HW212578  10.234   4.096   0.990 -0.1363 -1.0552  0.0727
35965SOL     OW12579   1.514   4.081   7.388  0.5807 -1.1593 -0.4953
35965SOL    HW112580   1.513   4.129   7.305  0.0232 -1.4559 -0.6680
35965SOL    HW212581   1.436   4.112   7.435  0.7026 -1.2459 -0.2319
35966SOL     OW12582  10.213   9.868   2.165 -0.6079  0.4909 -0.0045
35966SOL    HW112583  10.184   9.777   2.168 -2.8752  1.1108 -1.0312
35966SOL    HW212584  10.293   9.866   2.112 -1.0926 -0.7881 -0.7192
35967SOL     OW12585   1.126   3.807   4.185 -0.3960  0.1042 -0.4712
35967SOL    HW112586   1.112   3.747   4.259 -1.5692  1.7069  0.6621
35967SOL    HW212587   1.041   3.815   4.143 -0.1476  0.6264 -0.8978
35968SOL     OW12588   7.831  10.593   4.824  0.3680 -0.3213  0.3577
35968SOL    HW112589   7.885  10.670   4.841  2.5493 -1.7398  0.2507
35968SOL    HW212590   7.843  10.576   4.730  0.0535 -0.8875  0.4166
35969SOL     OW12591  10.001   5.226   6.390  0.1377  0.3922 -0.0072
35969SOL    HW112592   9.925   5.172   6.370  0.6361 -0.5904  0.7055
35969SOL    HW212593   9.985   5.258   6.479 -1.0156  2.9523 -1.0060
35970SOL     OW12594   1.088   7.210   1.982 -0.7456 -0.2406 -0.4024
35970SOL    HW112595   1.113   7.288   1.932 -1.5204  0.1986 -0.1142
35970SOL    HW212596   0.992   7.210   1.980 -0.9681  1.2249  3.2444
35971SOL     OW12597   0.780   9.150   4.530  0.3878  0.4635 -0.1552
35971SOL    HW112598   0.757   9.125   4.620  0.1259  0.9165 -0.0922
35971SOL    HW212599   0.875   9.137   4.525 -0.0066 -3.2612 -0.9812
35972SOL     OW12600   2.173   4.666   0.639  0.1985 -0.1679  0.1216
35972SOL    HW112601   2.160   4.761   0.650  0.7586 -0.2928  2.2108
35972SOL    HW212602   2.173   4.653   0.544  2.2008  2.2491 -0.3243
35973SOL     OW12603   0.458   1.091  10.656  0.1886 -0.7613 -0.4370
35973SOL    HW112604   0.437   1.133  10.739  3.5395 -3.1050  1.8289
35973SOL    HW212605   0.422   1.002  10.664 -0.7197 -0.5948 -2.1854
35974SOL     OW12606   9.546   3.075   4.428 -0.5040 -0.3989  0.4082
35974SOL    HW112607   9.492   3.098   4.352 -1.0986  0.0387  0.9572
35974SOL    HW212608   9.527   3.143   4.492  0.3851 -0.4771  0.7696
35975SOL     OW12609   1.370   9.131   2.683 -0.5758  0.4984 -0.4958
35975SOL    HW112610   1.365   9.219   2.720 -1.0912  0.5767 -0.7397
35975SOL    HW212611   1.317   9.077   2.742 -1.6993  0.6924 -1.2880
35976SOL     OW12612   9.498   1.448   3.693  0.4660  0.0001 -0.5836
35976SOL    HW112613   9.421   1.488   3.734  0.6282 -0.7972  0.5694
35976SOL    HW212614   9.491   1.355   3.715  1.1792 -0.2653 -1.4240
35977SOL     OW12615   4.776  11.285   7.138 -0.1234  0.2415  0.6599
35977SOL    HW112616   4.820  11.231   7.073 -0.9678 -0.7093  0.8581
35977SOL    HW212617   4.847  11.324   7.189  0.5372  0.6449 -0.5243
35978SOL     OW12618   2.549   2.557  10.312  0.0786  0.5191 -0.4749
35978SOL    HW112619   2.546   2.581  10.220  0.4939  2.0112 -0.1367
35978SOL    HW212620   2.555   2.641  10.358 -2.2030 -0.0443  1.0305
35979SOL     OW12621  11.035   8.067   5.369  0.1640  0.0323 -0.3325
35979SOL    HW112622  11.064   8.054   5.459 -0.6275 -1.1453 -0.2312
35979SOL    HW212623  11.039   7.979   5.330 -0.5336  0.3449 -1.1266
35980SOL     OW12624   0.790   5.960   1.490  0.3143 -0.4874  0.2061
35980SOL    HW112625   0.839   5.997   1.563 -0.1389 -0.3715  0.4548
35980SOL    HW212626   0.717   6.021   1.476  0.1582 -0.7325 -0.0677
35981SOL     OW12627   1.989   3.969   6.305  0.2044  0.5138 -0.0376
35981SOL    HW112628   2.004   3.951   6.212  0.1080  0.0352  0.0335
35981SOL    HW212629   1.974   3.882   6.344  0.9374  0.6334  0.5481
35982SOL     OW12630   1.422   1.510  10.127 -0.1531 -0.3073  0.0237
35982SOL    HW112631   1.359   1.510  10.056 -0.4761  0.3356  0.3088
35982SOL    HW212632   1.432   1.602  10.151  0.1796 -0.4913  0.6124
35983SOL     OW12633   2.796   1.710   8.712  0.1412 -0.1112 -0.5610
35983SOL    HW112634   2.718   1.659   8.736  0.2886 -1.1771 -2.2473
35983SOL    HW212635   2.832   1.666   8.636  0.2563  2.5463 -2.1714
35984SOL     OW12636   4.226   9.743   3.379 -0.7667 -0.1748 -0.2478
35984SOL    HW112637   4.182   9.762   3.462 -0.9186  2.1536 -0.7979
35984SOL    HW212638   4.319   9.740   3.402 -0.8750 -0.6774  0.1650
35985SOL     OW12639   6.509   2.591  10.098  0.2532  0.1618  0.1740
35985SOL    HW112640   6.553   2.507  10.086 -0.8718 -0.6581  1.3771
35985SOL    HW212641   6.430   2.585  10.045 -0.0212  0.2946  0.5592
35986SOL     OW12642   9.270   3.992  11.466 -0.1893 -0.8627 -0.1840
35986SOL    HW112643   9.308   3.970  11.381  1.0174  0.5764 -0.0573
35986SOL    HW212644   9.345   4.006  11.523 -0.8346  2.0354  0.0901
35987SOL     OW12645   2.204  11.319  11.405 -0.1551  0.0996 -0.1516
35987SOL    HW112646   2.218  11.381  11.333 -0.8455 -0.4270 -0.7610
35987SOL    HW212647   2.229  11.234  11.369 -2.6434 -0.5430 -0.5876
35988SOL     OW12648   1.898   4.923   6.682 -0.0977 -0.0970 -0.4281
35988SOL    HW112649   1.882   4.833   6.709 -3.0251  0.7873  1.2265
35988SOL    HW212650   1.945   4.915   6.599  0.0252 -3.1107 -0.1742
35989SOL     OW12651   3.129   7.139  11.140 -0.2125  0.1653 -0.0219
35989SOL    HW112652   3.112   7.164  11.231  0.8079 -0.0363  0.2325
35989SOL    HW212653   3.167   7.052  11.145  1.4592  0.8276 -0.5007
35990SOL     OW12654   1.738   8.191   3.300 -0.5377  0.1672 -0.6101
35990SOL    HW112655   1.708   8.118   3.355 -0.7915  0.4539 -0.3688
35990SOL    HW212656   1.802   8.151   3.241  0.4417  0.0153  0.5033
35991SOL     OW12657   0.496   3.120   8.799 -0.3448 -0.0517  0.6183
35991SOL    HW112658   0.511   3.108   8.706  2.2926  0.8669  0.8385
35991SOL    HW212659   0.425   3.184   8.805 -1.4558 -1.1099 -0.6913
35992SOL     OW12660  11.129  11.044   7.302 -0.2523  0.0021 -0.5704
35992SOL    HW112661  11.217  11.023   7.272  0.5972  1.5231  0.6918
35992SOL    HW212662  11.126  11.140   7.303 -1.7015 -0.0226 -0.0144
35993SOL     OW12663  11.573   2.149   7.212 -0.4314 -0.7740  0.0102
35993SOL    HW112664  11.483   2.143   7.247  0.3005  1.3778  2.6860
35993SOL    HW212665  11.573   2.229   7.160 -0.0652 -0.7145  0.0972
35994SOL     OW12666   1.384   7.297   9.002 -0.0900  0.0767  0.0651
35994SOL    HW112667   1.374   7.377   8.950 -0.7074 -1.6552 -2.6858
35994SOL    HW212668   1.419   7.327   9.086  0.5655  3.1096 -1.1641
35995SOL     OW12669   7.767   1.819   7.611 -0.3981  0.6520  0.1252
35995SOL    HW112670   7.772   1.897   7.666  0.5950  0.9288 -0.3475
35995SOL    HW212671   7.787   1.850   7.523  2.0237 -0.4381  0.2275
35996SOL     OW12672   9.846  11.739   2.649  0.5858 -0.0565 -0.6494
35996SOL    HW112673   9.875  11.821   2.608  0.0152  0.5628  0.1480
35996SOL    HW212674   9.777  11.766   2.710  1.5687 -0.8989  0.8968
35997SOL     OW12675  10.182   2.239  11.229  0.3400  0.6468 -0.3239
35997SOL    HW112676  10.182   2.331  11.256  0.0574  0.6514 -0.3317
35997SOL    HW212677  10.109   2.200  11.277  0.3743  0.4580 -0.4233
35998SOL     OW12678   2.866   9.866   6.867 -0.0880  0.0414 -0.0651
35998SOL    HW112679   2.953   9.905   6.879 -0.7284  0.9812  1.8811
35998SOL    HW212680   2.884   9.778   6.833  1.5998  0.4086 -0.2101
35999SOL     OW12681   5.813   7.170   6.049 -0.2875 -0.3322  0.1088
35999SOL    HW112682   5.828   7.186   5.956 -0.2849  0.0536  0.1743
35999SOL    HW212683   5.789   7.077   6.054  2.9691 -1.3018  0.0960
36000SOL     OW12684   0.614   6.270   0.197  0.3779 -0.2000  0.4171
36000SOL    HW112685   0.691   6.322   0.175  0.4616 -0.4917  0.0236
36000SOL    HW212686   0.650   6.188   0.231  0.2425 -0.1021  0.8066
36001SOL     OW12687   1.330   9.615   0.544 -0.4756  0.8628 -0.0614
36001SOL    HW112688   1.283   9.532   0.540 -1.6504  1.5363 -0.5133
36001SOL    HW212689   1.271   9.675   0.588 -0.2556  1.8527 -1.0568
36002SOL     OW12690  11.098   7.619   6.708 -0.0303 -0.2000 -0.2781
36002SOL    HW112691  11.078   7.528   6.686 -1.9897  0.4604 -1.4753
36002SOL    HW212692  11.021   7.650   6.755  1.3529  0.3776  1.7577
36003SOL     OW12693   6.409   8.741   9.721  0.5566 -0.3336  0.2603
36003SOL    HW112694   6.374   8.688   9.793 -2.6015  0.3181 -0.6355
36003SOL    HW212695   6.452   8.814   9.764  1.3263 -1.4434  1.4636
36004SOL     OW12696   2.661   7.261   4.147  0.2108 -0.0929 -0.3706
36004SOL    HW112697   2.754   7.276   4.167  0.2120  0.5368 -0.8216
36004SOL    HW212698   2.636   7.187   4.203  1.3988 -1.3197 -1.3977
36005SOL     OW12699   0.352  11.620   5.216 -0.0026  0.2690  0.4863
36005SOL    HW112700   0.389  11.708   5.208  1.9232 -0.2584  2.5092
36005SOL    HW212701   0.422  11.562   5.184 -1.1877 -0.5758 -0.6690
36006SOL     OW12702   6.185  10.336  10.513  0.5416 -0.3344  0.3242
36006SOL    HW112703   6.222  10.408  10.462  0.4438  0.6236  1.5604
36006SOL    HW212704   6.179  10.263  10.451  0.2831  0.8237 -1.0468
36007SOL     OW12705   1.925   1.689   8.800 -0.5239 -0.0154 -0.2787
36007SOL    HW112706   1.897   1.618   8.858  0.6280 -1.4636 -1.3943
36007SOL    HW212707   1.860   1.692   8.731 -1.0949  0.7046  0.2727
36008SOL     OW12708   5.649   9.946   9.279  0.3402  0.0187  0.7352
36008SOL    HW112709   5.666   9.957   9.186 -0.6239 -0.4652  0.4866
36008SOL    HW212710   5.649  10.035   9.314 -0.0247  0.2678  0.1258
36009SOL     OW12711   1.284   4.515  10.165 -0.5800  0.3947 -0.5972
36009SOL    HW112712   1.375   4.501  10.192 -0.7655  0.6114  0.1607
36009SOL    HW212713   1.252   4.428  10.140 -0.0955  0.3563 -1.1028
36010SOL     OW12714  11.451   6.185  11.639  0.5637  0.3359 -0.1206
36010SOL    HW112715  11.426   6.144  11.557  0.3005 -1.2474  0.7051
36010SOL    HW212716  11.412   6.130  11.707 -0.5808  2.4928  1.0756
36011SOL     OW12717   5.690   8.471   4.151  0.2544 -0.4974 -0.1208
36011SOL    HW112718   5.618   8.415   4.124  0.9682 -1.4774 -0.0195
36011SOL    HW212719   5.674   8.490   4.243  0.4231 -1.1881  0.0550
36012SOL     OW12720   9.357   8.292   6.016  0.1684  0.2400 -1.0422
36012SOL    HW112721   9.441   8.259   6.047  0.5328  2.4090  0.5436
36012SOL    HW212722   9.314   8.327   6.094 -1.5203  0.6456 -2.0751
36013SOL     OW12723   4.001   7.023   3.864 -0.0333  0.1325  0.2668
36013SOL    HW112724   4.037   6.945   3.821  0.6231 -0.4369  1.8122
36013SOL    HW212725   4.013   7.007   3.957  1.4521  2.7012  0.6059
36014SOL     OW12726  11.896   0.234   5.722 -0.1688 -0.0947 -0.3948
36014SOL    HW112727  11.952   0.175   5.672  0.7493  1.2164 -0.9762
36014SOL    HW212728  11.888   0.312   5.666 -0.8443  0.5811  0.6095
36015SOL     OW12729   4.100   9.261   0.010  0.1004  0.4140  0.0500
36015SOL    HW112730   4.015   9.294  -0.020  0.1580  0.6035  0.0936
36015SOL    HW212731   4.102   9.170  -0.018 -0.2691  0.3069  0.3548
36016SOL     OW12732   1.104   6.687   7.911  0.2229 -0.1015  0.0061
36016SOL    HW112733   1.069   6.703   7.998  0.2645  3.1054 -0.4419
36016SOL    HW212734   1.038   6.723   7.852  1.2569 -0.0469 -1.1689
36017SOL     OW12735   4.014   6.744  11.295  0.2162  0.1319 -0.1015
36017SOL    HW112736   4.068   6.691  11.354  2.1500  2.7400  0.6353
36017SOL    HW212737   3.977   6.681  11.234  2.5773 -2.0400  0.5378
36018SOL     OW12738   2.127   3.965  11.753  0.2851  0.7706 -0.0029
36018SOL    HW112739   2.120   3.912  11.832 -1.0534  1.6492  0.5096
36018SOL    HW212740   2.056   3.935  11.697  2.6883 -1.6021 -2.0645
36019SOL     OW12741   6.716   1.422   9.152  0.9300  0.1439 -0.0395
36019SOL    HW112742   6.712   1.327   9.161 -0.3563  0.0861 -0.9966
36019SOL    HW212743   6.729   1.454   9.241 -3.2445 -0.7208  1.0686
36020SOL     OW12744   7.798   0.655   4.251 -0.4380  0.0653  0.1010
36020SOL    HW112745   7.800   0.747   4.279 -0.2861 -0.2548  1.1707
36020SOL    HW212746   7.885   0.622   4.270  0.2964  0.2775 -2.4374
36021SOL     OW12747   3.945   0.331   1.065  0.1641 -0.3128 -0.2585
36021SOL    HW112748   3.950   0.354   0.973  0.4430 -0.8260 -0.3784
36021SOL    HW212749   3.862   0.368   1.095 -0.1641 -0.5694 -0.8369
36022SOL     OW12750   3.425   6.890   2.557  0.0455 -0.1126  0.0512
36022SOL    HW112751   3.448   6.974   2.596  1.8773  0.1850 -1.4760
36022SOL    HW212752   3.401   6.834   2.631 -1.6989  1.8369  1.0732
36023SOL     OW12753   5.491   7.269   2.780 -0.4444  0.0363  0.1876
36023SOL    HW112754   5.487   7.364   2.792  0.4391 -0.0677  1.5664
36023SOL    HW212755   5.563   7.256   2.718  0.1688  0.2352  0.8375
36024SOL     OW12756   0.912   0.600   3.829  0.0870 -0.3685 -0.5344
36024SOL    HW112757   0.898   0.508   3.852  1.8412 -0.6103 -0.3276
36024SOL    HW212758   0.992   0.600   3.777  0.5912  1.1401  0.1853
36025SOL     OW12759   6.064   3.415   8.253  0.2796  0.1111 -0.4792
36025SOL    HW112760   6.028   3.326   8.260 -1.4657  0.7434 -1.0356
36025SOL    HW212761   6.059   3.436   8.160  2.1131  0.2569 -0.5778
36026SOL     OW12762   4.086  11.412   3.491 -0.3036  0.0104 -0.0690
36026SOL    HW112763   4.052  11.346   3.551  1.3950 -1.2668 -0.4059
36026SOL    HW212764   4.037  11.399   3.410 -2.3224  1.4721  0.8285
36027SOL     OW12765   6.374   1.809   1.962  0.2025 -0.2141  0.4828
36027SOL    HW112766   6.437   1.873   1.995  0.6485 -0.3515 -0.0905
36027SOL    HW212767   6.310   1.860   1.913  0.3572 -0.1743  0.3257
36028SOL     OW12768   5.045   1.388   5.544 -0.1234  0.5071 -0.4212
36028SOL    HW112769   5.080   1.357   5.628 -0.3196  1.3083 -0.0357
36028SOL    HW212770   5.120   1.429   5.500 -0.2814  1.1075 -0.1372
36029SOL     OW12771   0.381   6.140  10.001 -0.0080 -0.2180  0.1845
36029SOL    HW112772   0.426   6.088   9.934  0.4713  0.7583 -0.2702
36029SOL    HW212773   0.289   6.115   9.993 -0.0256  0.1815 -1.1439
36030SOL     OW12774   5.114   5.759   1.102  0.4092  0.4840 -0.1247
36030SOL    HW112775   5.125   5.674   1.144  0.4284  0.0632 -0.9474
36030SOL    HW212776   5.066   5.812   1.165  1.5500  0.2851  0.9388
36031SOL     OW12777  10.436   9.790   0.570 -0.4651 -0.8762  0.0680
36031SOL    HW112778  10.522   9.818   0.538  1.0650 -0.8057  3.7382
36031SOL    HW212779  10.400   9.869   0.612 -0.9415 -1.6637  1.1789
36032SOL     OW12780   5.242  11.807   8.710 -0.0068  0.1493  0.0520
36032SOL    HW112781   5.298  11.740   8.671 -0.7158 -1.9089  2.3079
36032SOL    HW212782   5.232  11.873   8.641  1.8307 -1.3835 -1.8202
36033SOL     OW12783   5.454   6.604   2.408 -0.0389 -0.3005 -0.1090
36033SOL    HW112784   5.366   6.599   2.448  0.4935 -1.4086  0.9931
36033SOL    HW212785   5.486   6.515   2.411  1.7595  0.3385  0.9677
36034SOL     OW12786  10.474   6.543   0.480 -0.6133  0.1060 -0.6117
36034SOL    HW112787  10.568   6.526   0.481 -0.6167  0.0429 -1.0987
36034SOL    HW212788  10.467   6.638   0.473 -0.5902  0.1702  0.1558
36035SOL     OW12789   0.720   2.349   6.927  0.2586  0.3107 -0.2732
36035SOL    HW112790   0.652   2.288   6.899  0.2986  0.7768 -1.4282
36035SOL    HW212791   0.794   2.329   6.870 -0.7273  3.5001 -2.9579
36036SOL     OW12792  10.826   0.345   2.372 -0.2060  0.8958 -0.4315
36036SOL    HW112793  10.813   0.251   2.377 -0.5993  1.0194  1.9459
36036SOL    HW212794  10.881   0.358   2.295  1.0885 -1.4180  0.0314
36037SOL     OW12795   5.126   8.701   8.078  0.0383 -0.1066 -0.0214
36037SOL    HW112796   5.084   8.646   8.012 -0.7458  0.4218  0.0068
36037SOL    HW212797   5.054   8.725   8.137  0.5204  0.2820  0.4142
36038SOL     OW12798  11.532   8.056   7.478 -0.2124 -0.0475 -0.5113
36038SOL    HW112799  11.595   7.988   7.455 -0.9728 -1.7011  1.8798
36038SOL    HW212800  11.448   8.010   7.483 -0.6801  0.9201  1.6129
36039SOL     OW12801   6.952  10.892  11.197 -0.5713  0.3476 -0.3678
36039SOL    HW112802   6.942  10.973  11.148  0.1969  0.8319  0.2339
36039SOL    HW212803   7.045  10.889  11.219  0.2581 -2.5407 -3.4802
36040SOL     OW12804   4.777  11.801   2.668  0.1955  0.2139 -0.0472
36040SOL    HW112805   4.764  11.891   2.697  1.9795  0.3382  0.4544
36040SOL    HW212806   4.842  11.807   2.598 -0.7865 -0.5575 -1.0712
36041SOL     OW12807   0.242   9.144   6.699  0.7267  0.0478 -0.3540
36041SOL    HW112808   0.154   9.181   6.707  1.0286  0.5208  1.3003
36041SOL    HW212809   0.237   9.059   6.742  1.0664  0.0564 -0.2893
36042SOL     OW12810   6.359   9.100  10.891  0.4240 -0.1255 -0.0426
36042SOL    HW112811   6.291   9.048  10.934  1.1857 -0.9637  0.1838
36042SOL    HW212812   6.398   9.153  10.961  0.7180 -0.4414  0.0340
36043SOL     OW12813   6.225   4.257   9.676  0.0099 -0.3842  0.1138
36043SOL    HW112814   6.264   4.245   9.763  0.7193 -0.3710 -0.1913
36043SOL    HW212815   6.164   4.184   9.666 -2.8835  1.5518  2.0729
36044SOL     OW12816   1.599   5.670   4.465  0.1786  0.0901 -0.1435
36044SOL    HW112817   1.621   5.593   4.413  1.2214  0.9211 -0.9751
36044SOL    HW212818   1.545   5.724   4.407  0.2898  0.4372  0.0687
36045SOL     OW12819   1.324   6.764   1.655  0.3692 -0.1308 -0.2304
36045SOL    HW112820   1.409   6.752   1.697 -0.2642  0.9252  1.4763
36045SOL    HW212821   1.262   6.727   1.718 -0.5525  0.7295 -0.6174
36046SOL     OW12822   1.069   1.272  11.372 -0.2502  0.0630  0.3875
36046SOL    HW112823   0.990   1.320  11.397  0.1089  0.8549  0.0353
36046SOL    HW212824   1.051   1.182  11.399 -1.3051  0.2089  0.2471
36047SOL     OW12825   8.959  10.200  10.925 -0.1245 -0.3887  0.2003
36047SOL    HW112826   8.955  10.210  10.830  0.3152 -0.6517  0.1513
36047SOL    HW212827   8.965  10.290  10.958  0.4125 -0.3292 -0.0559
36048SOL     OW12828   3.412   8.019   1.977  0.3149 -0.0189  0.4236
36048SOL    HW112829   3.496   7.975   1.988  0.1396 -0.3651  0.3619
36048SOL    HW212830   3.436   8.109   1.953  0.6633 -0.5447 -1.3417
36049SOL     OW12831   1.928   8.534   3.065  0.0397 -0.5682 -0.1019
36049SOL    HW112832   1.972   8.541   3.150  0.2342  1.6793 -0.3216
36049SOL    HW212833   1.964   8.454   3.027  2.2786 -0.0378  0.6852
36050SOL     OW12834   3.946   6.626   4.051  0.4090  0.3630  0.2565
36050SOL    HW112835   3.988   6.625   3.965 -0.6921  1.4904 -0.3352
36050SOL    HW212836   4.005   6.677   4.106  0.7653  0.2616 -0.0279
36051SOL     OW12837   6.209   3.807   7.360  0.3326 -0.5777 -0.9568
36051SOL    HW112838   6.134   3.808   7.300 -1.6294  0.1975  1.3379
36051SOL    HW212839   6.189   3.736   7.421  0.2997  1.0384  0.9986
36052SOL     OW12840   8.844   5.190   1.661  0.2772 -0.1519 -0.0793
36052SOL    HW112841   8.931   5.174   1.698 -0.1691 -0.5554  0.8428
36052SOL    HW212842   8.787   5.200   1.738 -0.4791  0.1539 -0.6682
36053SOL     OW12843  10.446   4.340   1.952  0.1427 -0.3410  0.0204
36053SOL    HW112844  10.469   4.415   1.898 -0.4551 -0.0345  0.1885
36053SOL    HW212845  10.510   4.341   2.023 -0.8078  0.9462  0.8992
36054SOL     OW12846  11.784  11.127   9.327  0.0983  0.5236 -0.1313
36054SOL    HW112847  11.835  11.208   9.323  2.8208 -1.0034  0.5959
36054SOL    HW212848  11.817  11.075   9.253 -0.9100 -0.2872 -0.0269
36055SOL     OW12849  11.839   3.322   4.562  0.3462 -0.1269 -0.0890
36055SOL    HW112850  11.912   3.342   4.620  0.0512  0.5373  0.0605
36055SOL    HW212851  11.830   3.399   4.506  0.0679 -0.4034 -0.4299
36056SOL     OW12852   3.473   6.384   6.936 -0.4334  0.4219 -0.2125
36056SOL    HW112853   3.503   6.354   7.022 -1.6062  0.4887  0.2341
36056SOL    HW212854   3.534   6.453   6.912 -0.5358  0.9090  0.9080
36057SOL     OW12855   4.611   4.603   3.894  0.6251  0.2208 -0.3076
36057SOL    HW112856   4.679   4.608   3.962  1.7974  0.1593 -1.4389
36057SOL    HW212857   4.586   4.694   3.879 -0.5397  0.1616  1.0429
36058SOL     OW12858  10.191   9.515   4.584 -0.1223 -0.0136  0.2146
36058SOL    HW112859  10.263   9.553   4.533  0.3411 -0.5194  0.4868
36058SOL    HW212860  10.175   9.579   4.653  0.8738 -0.4390  0.8642
36059SOL     OW12861   5.648   8.917   9.815 -0.6540 -0.2036  0.2253
36059SOL    HW112862   5.705   8.850   9.853  0.1171 -0.3120 -1.0510
36059SOL    HW212863   5.562   8.900   9.852  0.3964  0.9791  3.5305
36060SOL     OW12864   4.843   4.796   0.578  0.1756  0.3261 -0.3676
36060SOL    HW112865   4.774   4.739   0.613  0.0291  1.0033  0.4856
36060SOL    HW212866   4.808   4.828   0.495 -0.9829  1.4330  0.5076
36061SOL     OW12867   5.935   6.009  11.178  0.3562 -0.0224 -0.0647
36061SOL    HW112868   5.922   6.066  11.102 -1.0390 -1.3715 -0.8905
36061SOL    HW212869   5.874   6.042  11.244  0.9438  0.6096  0.1748
36062SOL     OW12870   1.261   5.955  11.686 -0.5626  0.2489  0.2457
36062SOL    HW112871   1.183   5.903  11.667 -0.1598  0.3100 -1.8553
36062SOL    HW212872   1.257   6.028  11.624  0.7803  0.6687  0.6175
36063SOL     OW12873   0.540   8.974   4.135  0.1122 -0.3541 -0.2441
36063SOL    HW112874   0.584   8.918   4.071  0.1630 -0.5977  0.0051
36063SOL    HW212875   0.609   9.033   4.166 -0.1239  0.4059 -1.1180
36064SOL     OW12876   3.660   2.455   5.492  0.0828  0.0991  0.0514
36064SOL    HW112877   3.604   2.388   5.452  0.2905 -0.3593  0.5197
36064SOL    HW212878   3.619   2.474   5.577 -0.6705  1.4749 -0.5814
36065SOL     OW12879   6.999   4.533   7.137  0.1368  0.4776  0.5877
36065SOL    HW112880   6.991   4.478   7.215  0.0067  1.9483  1.6605
36065SOL    HW212881   6.909   4.553   7.112  0.0247 -2.4521 -1.8498
36066SOL     OW12882   5.197   9.073   2.957 -0.3484  0.1271  0.5624
36066SOL    HW112883   5.230   8.988   2.928 -0.6315 -0.1942  1.1705
36066SOL    HW212884   5.104   9.059   2.970 -0.5038  0.6960  0.0809
36067SOL     OW12885  10.118   3.319   0.293 -0.9832  0.2831  0.4242
36067SOL    HW112886  10.109   3.314   0.198 -0.7215  0.8335  0.3679
36067SOL    HW212887  10.149   3.232   0.319 -1.4182  0.0129  0.0522
36068SOL     OW12888   7.619   9.520   1.056 -0.1618  0.8057 -0.0913
36068SOL    HW112889   7.548   9.519   1.120  1.2566 -0.8577  1.5921
36068SOL    HW212890   7.624   9.430   1.024 -0.0860  1.3595 -1.7045
36069SOL     OW12891   2.501   7.516   8.762 -0.2631  0.8502  0.1944
36069SOL    HW112892   2.513   7.449   8.830  0.5545  0.4490 -0.3294
36069SOL    HW212893   2.583   7.565   8.762  0.1501  0.2281 -1.1451
36070SOL     OW12894   6.373   3.321  11.376  0.0670 -0.1820 -0.0566
36070SOL    HW112895   6.316   3.387  11.337  0.9608 -0.0368 -1.1848
36070SOL    HW212896   6.329   3.295  11.457 -0.1102  2.1175  0.6624
36071SOL     OW12897  10.151   2.831   8.136 -0.4657 -0.6731 -0.1324
36071SOL    HW112898  10.181   2.762   8.078 -0.3836 -1.3916  0.7499
36071SOL    HW212899  10.228   2.886   8.151 -0.0757 -1.3909  0.5519
36072SOL     OW12900   0.055   9.605   4.431 -0.0900  0.1485 -0.1594
36072SOL    HW112901  -0.006   9.554   4.484  0.2288  0.8600  0.9202
36072SOL    HW212902   0.128   9.545   4.415 -0.7493 -0.4781 -0.8689
36073SOL     OW12903   7.144   4.065  11.640 -0.1206  0.4547  0.6546
36073SOL    HW112904   7.193   4.139  11.677  1.2957 -1.1729  2.1796
36073SOL    HW212905   7.210   4.010  11.598 -0.8514 -0.9067  1.2225
36074SOL     OW12906   6.004   6.335   3.046  0.3546  0.0051 -0.1552
36074SOL    HW112907   6.066   6.355   2.976  1.0301  0.6824  0.6184
36074SOL    HW212908   5.943   6.272   3.006  0.4134  0.7540 -1.4988
36075SOL     OW12909   9.826   9.601   2.428 -0.0597  0.4860  0.2736
36075SOL    HW112910   9.909   9.647   2.440 -0.2122  0.6636  0.6843
36075SOL    HW212911   9.826   9.534   2.496 -0.4133  0.7280  0.5206
36076SOL     OW12912  10.689   4.708   6.654 -0.9088 -0.1220  0.2278
36076SOL    HW112913  10.736   4.657   6.721 -1.2443  1.3009  1.5994
36076SOL    HW212914  10.677   4.647   6.582  2.9509 -0.6648 -0.2028
36077SOL     OW12915   3.250   4.621  11.459 -0.7122 -0.0891  0.1925
36077SOL    HW112916   3.304   4.688  11.417  0.4980 -0.2167  1.4645
36077SOL    HW212917   3.305   4.543  11.458 -1.8400 -0.8962 -0.6490
36078SOL     OW12918  10.387   0.177   6.733 -0.2737 -0.0339 -0.6167
36078SOL    HW112919  10.426   0.262   6.752  1.0144 -0.3083 -1.8996
36078SOL    HW212920  10.336   0.191   6.653 -0.9124 -0.2332 -0.2493
36079SOL     OW12921   4.245   5.285   8.878  0.0695 -0.1526  0.5197
36079SOL    HW112922   4.167   5.305   8.930  0.3778  3.3330 -0.0728
36079SOL    HW212923   4.318   5.312   8.934  0.7600 -1.4767  0.2924
36080SOL     OW12924  10.507  11.547   5.097 -0.6845  0.2412 -0.2287
36080SOL    HW112925  10.459  11.601   5.034 -3.2749 -0.1552  1.2845
36080SOL    HW212926  10.467  11.461   5.092 -0.1954 -0.0990  1.1370
36081SOL     OW12927   6.130   3.807   0.590 -0.2326 -0.1661 -0.3907
36081SOL    HW112928   6.104   3.895   0.617 -0.3283 -0.2551 -0.1932
36081SOL    HW212929   6.157   3.817   0.499  1.0176  0.3214  0.0108
36082SOL     OW12930   0.994   1.628   0.271 -0.6685  0.5140  0.4194
36082SOL    HW112931   0.914   1.577   0.260 -0.9171  0.8050  0.8404
36082SOL    HW212932   1.060   1.582   0.218 -1.4207  0.9923 -0.9734
36083SOL     OW12933   8.626   9.137   2.418  0.2963  0.2238 -0.1962
36083SOL    HW112934   8.704   9.104   2.463 -0.7654  0.4277  1.9269
36083SOL    HW212935   8.597   9.064   2.363  1.5082 -0.1284 -0.4083
36084SOL     OW12936   9.628  11.753   3.660 -0.0079 -0.5451  0.1425
36084SOL    HW112937   9.612  11.748   3.566  1.4575 -2.2936 -0.0763
36084SOL    HW212938   9.572  11.684   3.697  0.4978 -0.8353  0.3731
36085SOL     OW12939   8.554   1.395   1.792 -0.2456 -0.0952 -0.6766
36085SOL    HW112940   8.600   1.479   1.785  0.1809 -0.3272 -0.6652
36085SOL    HW212941   8.470   1.417   1.833 -0.4542  0.4381 -1.3707
36086SOL     OW12942   1.559  11.599   3.780 -0.3567  0.1130  0.4259
36086SOL    HW112943   1.535  11.652   3.856  1.1718  1.5071 -0.0211
36086SOL    HW212944   1.643  11.634   3.751 -0.6531 -0.7108 -1.6107
36087SOL     OW12945   5.600  10.088   6.242 -0.7686 -0.5644  0.1375
36087SOL    HW112946   5.658  10.136   6.302 -0.1377 -0.6007 -0.4274
36087SOL    HW212947   5.604  10.138   6.160 -1.4603 -0.6294  0.0597
36088SOL     OW12948   2.105   9.011   4.981  0.2565 -0.5671  0.2887
36088SOL    HW112949   2.077   8.991   4.891  1.6514 -1.9820  0.1245
36088SOL    HW212950   2.190   8.969   4.989  0.1455 -0.4899  2.3037
36089SOL     OW12951  10.333   0.029  11.961 -0.4549 -0.2940  0.4193
36089SOL    HW112952  10.398  -0.041  11.955 -0.3749 -0.1754 -0.1455
36089SOL    HW212953  10.310   0.033  12.054 -0.1502 -0.7863  0.5182
36090SOL     OW12954   0.657  10.926   0.930 -0.0693 -0.0701 -0.5959
36090SOL    HW112955   0.660  10.849   0.987  0.5910  0.2409 -0.2125
36090SOL    HW212956   0.658  10.889   0.841 -0.1683 -0.5160 -0.4157
36091SOL     OW12957   5.127   6.207   7.766  0.1314 -0.3020 -0.2528
36091SOL    HW112958   5.209   6.230   7.809 -1.0887  0.4107  1.8290
36091SOL    HW212959   5.145   6.219   7.672  1.3319  3.6082  0.3058
36092SOL     OW12960   1.504   7.210   6.481  0.4863 -0.4097 -0.4636
36092SOL    HW112961   1.542   7.184   6.565 -0.8626 -0.6792  0.0917
36092SOL    HW212962   1.479   7.301   6.494 -0.8041 -0.7812 -0.1273
36093SOL     OW12963   3.928   5.991   0.314  0.2975 -0.1933  0.3650
36093SOL    HW112964   3.965   5.926   0.373  1.2180 -0.0747 -0.0749
36093SOL    HW212965   3.844   6.013   0.354  0.2571 -1.1677  0.8632
36094SOL     OW12966   0.987   2.040   7.414 -0.0718 -0.2595 -0.4932
36094SOL    HW112967   1.074   2.005   7.392  0.6723  0.5146  1.0417
36094SOL    HW212968   0.932   1.963   7.424  0.6320 -0.8051 -0.7467
36095SOL     OW12969   2.733   8.005   7.216  0.0827  0.1534  0.1195
36095SOL    HW112970   2.697   7.942   7.154  1.5883  0.7498 -1.4501
36095SOL    HW212971   2.684   7.991   7.297  1.8174 -4.6507  0.6584
36096SOL     OW12972   7.838   4.676   2.606 -0.7295  0.8364  0.1444
36096SOL    HW112973   7.927   4.652   2.634  0.7333  2.5041 -2.5691
36096SOL    HW212974   7.807   4.599   2.558 -1.0194  0.0480  1.5427
36097SOL     OW12975  10.168   4.079  11.994  0.2698 -0.2055  0.3421
36097SOL    HW112976  10.204   4.168  11.991  1.1842 -0.5803 -0.0436
36097SOL    HW212977  10.117   4.071  11.914 -1.9401  0.8268  1.5655
36098SOL     OW12978   0.868   2.825   8.304 -0.3326  0.5350  0.1094
36098SOL    HW112979   0.819   2.743   8.306 -0.8865  0.8732  0.6189
36098SOL    HW212980   0.883   2.841   8.211 -0.6929  0.1323 -0.0211
36099SOL     OW12981  10.193   7.966   3.782 -0.0210  0.6694  0.1033
36099SOL    HW112982  10.264   8.028   3.793 -0.0773  0.4688  1.8806
36099SOL    HW212983  10.215   7.893   3.840 -0.5938 -0.3991 -0.9685
36100SOL     OW12984   4.341   5.805   2.178 -0.1016 -0.4299  1.0990
36100SOL    HW112985   4.296   5.876   2.225  0.2884 -0.1738  1.0912
36100SOL    HW212986   4.431   5.808   2.212  0.6922  0.9302 -0.9309
36101SOL     OW12987   2.691   3.283   4.580  0.1546  0.7125 -0.0761
36101SOL    HW112988   2.681   3.201   4.531  0.0527  0.6547  0.0392
36101SOL    HW212989   2.628   3.342   4.540  0.2393  0.7392 -0.1702
36102SOL     OW12990  10.777   8.808   7.588  0.3148 -0.2771 -0.4427
36102SOL    HW112991  10.821   8.873   7.534  2.5701 -1.3133  0.0171
36102SOL    HW212992  10.758   8.854   7.670  1.7347 -0.1130 -0.1785
36103SOL     OW12993   6.055   1.008   3.279  0.0022  0.2050 -0.0393
36103SOL    HW112994   5.966   1.035   3.303  0.3252  0.7535  0.5917
36103SOL    HW212995   6.098   1.088   3.251  0.4447  0.0315  0.1295
36104SOL     OW12996   9.163  10.242   5.945  0.3128  0.7513 -0.0044
36104SOL    HW112997   9.117  10.173   5.897  0.0646 -1.8526  3.5589
36104SOL    HW212998   9.256  10.223   5.933  0.2907  0.9836 -0.5613
36105SOL     OW12999  11.202   5.663   6.563  0.1034  0.0198 -0.1166
36105SOL    HW113000  11.176   5.707   6.483 -1.9300  0.7069  0.8522
36105SOL    HW213001  11.152   5.581   6.563  0.2472 -0.0747  0.3463
36106SOL     OW13002   6.894   2.012   3.794  0.5454 -0.0816 -0.0530
36106SOL    HW113003   6.839   1.950   3.746  0.0866 -0.4309  0.9118
36106SOL    HW213004   6.904   2.086   3.733  1.1247 -1.0783 -1.2256
36107SOL     OW13005   7.125   3.882   7.090  0.5598 -0.3927  0.1159
36107SOL    HW113006   7.059   3.860   7.024  1.9010  0.1870 -1.5071
36107SOL    HW213007   7.205   3.841   7.058  0.4502 -4.1262  3.7942
36108SOL     OW13008   4.348   3.411   1.989 -0.0308  0.2438  0.0172
36108SOL    HW113009   4.305   3.439   2.069  1.3102  0.1023  0.8236
36108SOL    HW213010   4.277   3.392   1.928 -1.0418  2.4021  0.4463
36109SOL     OW13011   9.849   1.684   3.639 -0.2075 -0.2294  0.2598
36109SOL    HW113012   9.862   1.687   3.734 -0.5587  1.5190  0.2974
36109SOL    HW213013   9.937   1.694   3.603 -0.1725  0.0526  0.4183
36110SOL     OW13014   4.420   1.727  10.955  0.2100 -0.3330 -0.3317
36110SOL    HW113015   4.370   1.803  10.983 -0.3873 -1.2555  1.2144
36110SOL    HW213016   4.372   1.652  10.990  1.9414 -1.3254  0.0425
36111SOL     OW13017   8.231   4.745  11.190 -0.1795 -0.3311  0.2995
36111SOL    HW113018   8.300   4.778  11.249  0.7923 -2.8226  0.6775
36111SOL    HW213019   8.153   4.740  11.245 -0.4190  1.3867  0.1808
36112SOL     OW13020   0.299   9.213   2.383  0.0788 -0.0957 -0.4186
36112SOL    HW113021   0.214   9.232   2.345  0.0649  1.2741  0.2574
36112SOL    HW213022   0.359   9.211   2.308 -0.2713  0.6260 -0.7273
36113SOL     OW13023  11.700   1.605   2.742 -0.1075 -0.4540  0.5801
36113SOL    HW113024  11.652   1.673   2.694  1.4354 -0.5472 -1.2158
36113SOL    HW213025  11.708   1.640   2.831  0.6926  1.7981 -0.3003
36114SOL     OW13026   8.227   8.650  10.893 -0.1876  0.2264 -0.0574
36114SOL    HW113027   8.179   8.719  10.939  1.4237  0.2676  1.6739
36114SOL    HW213028   8.267   8.598  10.962  0.8961 -0.7985 -1.3927
36115SOL     OW13029   7.797   3.553  10.891  0.1274 -0.0523 -0.3554
36115SOL    HW113030   7.819   3.602  10.970 -0.5414  1.8287 -1.2795
36115SOL    HW213031   7.843   3.470  10.901  0.5718  0.3807  1.7051
36116SOL     OW13032   3.486   1.820   8.572  0.1483  0.5395 -0.3464
36116SOL    HW113033   3.573   1.780   8.567  0.4526  1.2444 -0.7932
36116SOL    HW213034   3.430   1.760   8.522 -0.2672 -1.4685  2.2749
36117SOL     OW13035   3.522   8.339   5.874 -0.4254  0.0978 -0.2303
36117SOL    HW113036   3.554   8.394   5.946 -2.2534  1.9553 -0.7590
36117SOL    HW213037   3.471   8.270   5.917  0.7972 -0.4978  0.3510
36118SOL     OW13038   0.688   3.693  10.156 -0.1888 -0.1048  0.3254
36118SOL    HW113039   0.778   3.665  10.139 -0.6302 -1.3951  0.0280
36118SOL    HW213040   0.694   3.788  10.168  1.4093 -0.3407  1.6992
36119SOL     OW13041   0.228   7.624   8.049 -0.7067  0.5595 -0.3370
36119SOL    HW113042   0.166   7.553   8.064 -1.3028  1.4627  1.8058
36119SOL    HW213043   0.190   7.675   7.978 -0.0958 -1.3704 -2.1694
36120SOL     OW13044   5.983   0.910   5.511 -1.0464  0.5164  0.2416
36120SOL    HW113045   5.905   0.964   5.526  0.0127  2.0329  0.4467
36120SOL    HW213046   6.033   0.957   5.445 -0.7306 -0.9322 -0.6001
36121SOL     OW13047   2.305   3.237   4.819  0.1660  0.5356 -0.5955
36121SOL    HW113048   2.374   3.279   4.871  1.0592 -1.1588 -0.3406
36121SOL    HW213049   2.315   3.274   4.732  0.5030  1.3117 -0.2398
36122SOL     OW13050   0.981   6.814  10.611  0.3004  0.5915 -0.2913
36122SOL    HW113051   0.955   6.899  10.648  0.5012  0.0290  1.2075
36122SOL    HW213052   0.905   6.757  10.626  1.1051 -0.1719  1.1128
36123SOL     OW13053   1.516   5.941  11.807 -0.0091  0.1894  0.3395
36123SOL    HW113054   1.426   5.921  11.778 -0.0028 -0.6308  0.8482
36123SOL    HW213055   1.509   6.028  11.848 -0.4299  0.4369 -0.2475
36124SOL     OW13056   2.526   8.559   2.058 -0.4514 -0.2155 -0.1916
36124SOL    HW113057   2.608   8.552   2.010  0.4894 -0.0625  1.2946
36124SOL    HW213058   2.478   8.630   2.015  0.9505  0.8364 -0.1024
36125SOL     OW13059   9.762  10.898  11.259 -0.3426  0.5774  0.8236
36125SOL    HW113060   9.675  10.935  11.242  0.1530  1.0647 -0.8322
36125SOL    HW213061   9.819  10.974  11.270  0.3905  0.3419 -1.0218
36126SOL     OW13062   8.683   3.546   0.878 -0.2039  0.5670 -0.2879
36126SOL    HW113063   8.741   3.519   0.950 -0.4837 -1.1263 -0.6465
36126SOL    HW213064   8.619   3.475   0.871 -0.8455  1.2264 -1.5028
36127SOL     OW13065   9.635   6.381   5.934  0.1866  0.7975  0.3986
36127SOL    HW113066   9.671   6.318   5.997 -1.4540  0.2195  0.7950
36127SOL    HW213067   9.690   6.459   5.945  0.3107  0.5136  2.1473
36128SOL     OW13068   3.124   0.219   8.753 -0.2091  0.2792  0.0324
36128SOL    HW113069   3.031   0.216   8.777 -0.0995 -2.1777  0.4929
36128SOL    HW213070   3.138   0.136   8.707  1.5805  1.0058 -0.7947
36129SOL     OW13071   9.380   1.148   2.344  0.4366  0.7671 -0.5614
36129SOL    HW113072   9.359   1.233   2.382  0.6260  0.3547  0.4753
36129SOL    HW213073   9.365   1.085   2.414  2.0778  0.1294 -0.7302
36130SOL     OW13074   7.852   7.931   2.660 -0.4815  0.1934  0.6408
36130SOL    HW113075   7.830   7.921   2.753  2.4361 -2.5329  1.1844
36130SOL    HW213076   7.926   7.991   2.659 -0.0798 -0.3084  0.1411
36131SOL     OW13077   4.533  10.389   9.260 -0.1380  0.4503  0.2081
36131SOL    HW113078   4.628  10.390   9.247  0.4685 -2.4117  3.0287
36131SOL    HW213079   4.509  10.296   9.254 -2.9094  1.1396 -0.9380
36132SOL     OW13080  10.916   4.728   7.300 -0.0194  0.2274  0.2661
36132SOL    HW113081  10.879   4.803   7.254  0.9516 -0.4707 -1.7917
36132SOL    HW213082  10.841   4.671   7.317 -0.4987  0.7940  0.0979
36133SOL     OW13083   8.657  11.549   1.113  0.0282 -0.4736 -0.0768
36133SOL    HW113084   8.716  11.504   1.174  0.6044  0.4103  0.0338
36133SOL    HW213085   8.648  11.637   1.150 -0.3295 -0.2075 -0.7952
36134SOL     OW13086   8.245   8.996   9.145  0.0666 -0.1613  0.1909
36134SOL    HW113087   8.210   8.980   9.232 -2.3712  2.0767 -0.2569
36134SOL    HW213088   8.169   9.021   9.092  1.2111 -2.6697 -2.9912
36135SOL     OW13089   2.104   1.622   2.270  0.0624  0.2276 -0.1267
36135SOL    HW113090   2.139   1.582   2.350  0.9974 -0.5346 -0.8753
36135SOL    HW213091   2.017   1.652   2.294  0.5768  0.6356  1.3614
36136SOL     OW13092   2.733   7.699   0.130 -0.0213 -0.1788 -0.2998
36136SOL    HW113093   2.711   7.769   0.191  1.0241  0.3772 -0.5407
36136SOL    HW213094   2.670   7.629   0.150 -0.8722  0.6937  0.1562
36137SOL     OW13095   9.930   8.095   8.265  0.2001  0.4555  0.0106
36137SOL    HW113096   9.989   8.153   8.313  1.3876 -0.3649 -0.4163
36137SOL    HW213097   9.967   8.091   8.176 -1.4578  1.2590 -0.7702
36138SOL     OW13098   5.698   6.852   0.477  0.0270 -0.5158 -0.8280
36138SOL    HW113099   5.742   6.869   0.560 -0.8605 -1.8391 -0.0525
36138SOL    HW213100   5.738   6.914   0.416  3.3067 -1.9497 -0.3030
36139SOL     OW13101  10.294   9.619   9.220  0.4033 -0.1739  0.2538
36139SOL    HW113102  10.381   9.630   9.182  0.4958 -1.7380 -0.0474
36139SOL    HW213103  10.258   9.708   9.224  1.1885  0.2669 -1.5780
36140SOL     OW13104   5.470   6.898   6.817 -0.2206  0.0567 -0.4988
36140SOL    HW113105   5.554   6.897   6.772  0.3570 -0.4486  0.5471
36140SOL    HW213106   5.430   6.982   6.793  0.7126  0.4292 -0.7610
36141SOL     OW13107   4.530  10.198   8.301  0.4975 -0.2714 -0.4151
36141SOL    HW113108   4.579  10.231   8.226  3.0604 -1.7460  0.5024
36141SOL    HW213109   4.526  10.273   8.361  3.0022 -0.4862  0.1044
36142SOL     OW13110   5.274   4.487   9.828 -0.0639  0.3134 -0.2298
36142SOL    HW113111   5.248   4.577   9.846 -0.6543  0.5067 -1.8504
36142SOL    HW213112   5.319   4.492   9.743 -0.7562 -1.0047 -0.7056
36143SOL     OW13113   0.518   6.114   8.024 -0.5531  0.3466  0.0702
36143SOL    HW113114   0.465   6.038   8.000 -2.2593  1.1933  1.0332
36143SOL    HW213115   0.508   6.122   8.119  1.5012  0.4214  0.3327
36144SOL     OW13116   6.460   5.130   7.004 -0.1047 -0.2801 -0.5336
36144SOL    HW113117   6.519   5.068   6.962  1.5651 -0.2808  1.6185
36144SOL    HW213118   6.403   5.075   7.058 -0.1289 -0.0987 -0.3735
36145SOL     OW13119   5.031   0.455   7.199  0.6116 -0.1130 -0.0248
36145SOL    HW113120   4.988   0.533   7.164  0.4597 -0.6817 -1.1569
36145SOL    HW213121   4.959   0.397   7.224  0.6815 -0.7824 -1.2767
36146SOL     OW13122   7.755   7.487   0.821  0.1131  0.4655  0.3167
36146SOL    HW113123   7.809   7.417   0.858  0.4931  0.2307 -0.6559
36146SOL    HW213124   7.799   7.568   0.849  1.0475  0.2758 -0.5489
36147SOL     OW13125   3.203   8.932   2.360  0.2521 -0.3778  0.1779
36147SOL    HW113126   3.243   8.936   2.274 -0.0966 -0.0329  0.0324
36147SOL    HW213127   3.119   8.976   2.350  0.0867 -0.5852  0.6236
36148SOL     OW13128   5.998   4.157   1.923  0.3709  0.0176 -0.0256
36148SOL    HW113129   6.072   4.164   1.864  0.6061 -0.1382  0.2487
36148SOL    HW213130   6.014   4.077   1.973  0.8616  0.8146  1.1610
36149SOL     OW13131  11.826   4.230   6.510  0.1190 -0.1399  0.1686
36149SOL    HW113132  11.848   4.200   6.422 -0.7682 -0.4827  0.0565
36149SOL    HW213133  11.747   4.282   6.499  0.7840  0.9864  0.5809
36150SOL     OW13134  10.169   5.276   7.416  0.3268 -0.0646 -0.7630
36150SOL    HW113135  10.173   5.327   7.497  0.7922 -1.5525  0.1977
36150SOL    HW213136  10.205   5.333   7.349 -1.7693  1.9027 -0.3350
36151SOL     OW13137   0.397  10.678   5.026 -0.3134  0.4995 -0.3164
36151SOL    HW113138   0.339  10.648   4.956 -1.8760  0.5444  0.8967
36151SOL    HW213139   0.443  10.753   4.989  1.6830 -1.6320 -2.4959
36152SOL     OW13140  11.890   3.552  11.270 -0.3548  0.2003 -0.4639
36152SOL    HW113141  11.871   3.465  11.304  2.8549 -1.4639 -2.4540
36152SOL    HW213142  11.889   3.609  11.348 -0.3863 -2.0148  1.2384
36153SOL     OW13143   3.012   0.549   0.030  0.1819 -0.3034  0.3624
36153SOL    HW113144   2.916   0.555   0.024  0.0057 -1.3251  1.7813
36153SOL    HW213145   3.037   0.498  -0.047 -0.5774 -1.3258  0.7740
36154SOL     OW13146   9.185   4.301   2.383  0.0364  0.0462  0.1795
36154SOL    HW113147   9.219   4.377   2.335 -0.4640 -1.2120 -2.3618
36154SOL    HW213148   9.099   4.329   2.415  0.1803  0.7863 -0.0618
36155SOL     OW13149   6.747   6.330   8.080  0.1575 -0.2164  0.0666
36155SOL    HW113150   6.811   6.259   8.084 -0.7007 -0.9831  0.5258
36155SOL    HW213151   6.763   6.382   8.158  2.3142  1.4938 -1.3905
36156SOL     OW13152   0.506  11.756   2.338  0.5426  0.0531 -0.0542
36156SOL    HW113153   0.506  11.850   2.319  0.4421  0.2447  0.8483
36156SOL    HW213154   0.418  11.737   2.368  0.4908 -0.3858 -0.4791
36157SOL     OW13155   5.205   0.664   0.742 -0.7023 -0.3975  0.4938
36157SOL    HW113156   5.238   0.664   0.831  0.1307 -0.4940  0.1897
36157SOL    HW213157   5.119   0.621   0.748 -0.5226 -0.6607  1.1967
36158SOL     OW13158   1.162   9.382   3.113 -0.2115 -0.0677 -0.0419
36158SOL    HW113159   1.131   9.415   3.198 -0.8096  1.0151 -0.6453
36158SOL    HW213160   1.242   9.432   3.096 -0.8912  0.8200 -0.7669
36159SOL     OW13161  10.339   7.901  10.780 -0.3646  0.2247 -0.4688
36159SOL    HW113162  10.359   7.936  10.867  0.5582 -0.7389 -0.2706
36159SOL    HW213163  10.418   7.917  10.728 -0.2136 -0.8065 -0.5956
36160SOL     OW13164   1.185   7.545   9.191  0.0613 -0.4518  0.3804
36160SOL    HW113165   1.147   7.526   9.276 -0.6814  0.6295  0.3090
36160SOL    HW213166   1.275   7.570   9.210 -0.3151  0.5279  0.9412
36161SOL     OW13167   0.720  11.677   2.487  0.2151 -0.0491 -0.0051
36161SOL    HW113168   0.634  11.695   2.451 -0.6369  1.0857  2.3921
36161SOL    HW213169   0.771  11.756   2.472  0.0830  0.1589  0.6128
36162SOL     OW13170   2.704   9.644   8.890  0.4510 -0.0988 -0.2252
36162SOL    HW113171   2.765   9.613   8.823  1.1906  1.2556 -0.1972
36162SOL    HW213172   2.641   9.697   8.842  0.0657 -0.3885 -0.0510
36163SOL     OW13173   0.888  10.786   6.213  0.1613  0.0194  0.0639
36163SOL    HW113174   0.938  10.866   6.202  1.0675 -0.6182 -0.6286
36163SOL    HW213175   0.892  10.743   6.128 -0.5271 -0.6370  0.3474
36164SOL     OW13176   4.298   7.877   2.720 -0.3237 -0.4422  0.0928
36164SOL    HW113177   4.328   7.807   2.777  1.4764  0.3325  0.1738
36164SOL    HW213178   4.258   7.941   2.779  1.1217  0.1436  0.4887
36165SOL     OW13179   6.684   6.022   9.008 -0.5913 -0.1322  0.2070
36165SOL    HW113180   6.756   6.045   8.949 -0.1622 -0.0548  0.7505
36165SOL    HW213181   6.608   6.015   8.951 -0.0229 -0.8899 -0.4875
36166SOL     OW13182   2.104   5.851   8.156  0.4285  0.0205 -0.5435
36166SOL    HW113183   2.170   5.854   8.226 -0.6056 -0.8216  0.5019
36166SOL    HW213184   2.026   5.816   8.198 -0.4364  0.1529 -1.9769
36167SOL     OW13185   3.344   6.862   4.052  0.5710 -0.6211  0.3323
36167SOL    HW113186   3.354   6.768   4.067  1.3511 -0.7025 -0.6265
36167SOL    HW213187   3.414   6.902   4.104 -0.7222 -0.4266  2.0145
36168SOL     OW13188  11.480   3.439   7.105 -0.2681 -0.0897  0.5647
36168SOL    HW113189  11.531   3.469   7.030 -0.8182 -0.9869 -0.1949
36168SOL    HW213190  11.477   3.514   7.164  0.8241  0.3855  0.0449
36169SOL     OW13191   0.378   7.681   3.544 -0.4490 -0.1616 -0.2539
36169SOL    HW113192   0.396   7.715   3.457 -0.5744  1.2431  0.2380
36169SOL    HW213193   0.460   7.641   3.572  0.3399  1.4944 -0.1028
36170SOL     OW13194   2.961   8.238   9.489 -0.3001 -0.5313  0.5572
36170SOL    HW113195   2.874   8.268   9.465 -0.4911  0.6878  2.5263
36170SOL    HW213196   2.959   8.231   9.585  2.0688  0.6346  0.7805
36171SOL     OW13197  11.345   3.456   0.024  0.5136  0.2373  0.7938
36171SOL    HW113198  11.280   3.516  -0.012  1.5735  0.9709  0.0405
36171SOL    HW213199  11.372   3.402  -0.050 -0.5049 -1.2868  1.4886
36172SOL     OW13200   7.492   7.543   2.481  0.3498 -0.0136 -0.0692
36172SOL    HW113201   7.510   7.563   2.389  2.2452  1.9454  0.6577
36172SOL    HW213202   7.416   7.596   2.503 -0.3251 -0.7513 -0.5645
36173SOL     OW13203  10.584  11.729  10.433  0.5626  0.6169 -0.3735
36173SOL    HW113204  10.654  11.690  10.380  1.3897  0.6844  0.6434
36173SOL    HW213205  10.612  11.820  10.445  0.1531  0.7200 -0.1929
36174SOL     OW13206   0.548   5.131   4.612  0.2197 -0.2911  0.1508
36174SOL    HW113207   0.640   5.111   4.601  0.3473 -1.0088  2.1678
36174SOL    HW213208   0.508   5.048   4.638 -1.7532 -0.9599 -4.1062
36175SOL     OW13209   8.131  11.621   4.263 -0.3603  0.4833 -0.4694
36175SOL    HW113210   8.068  11.680   4.304 -0.5004 -0.3070  0.4840
36175SOL    HW213211   8.141  11.549   4.325 -1.1970 -1.1714 -2.1448
36176SOL     OW13212   5.296   4.302   3.327  0.1072  0.5759 -0.3106
36176SOL    HW113213   5.243   4.380   3.344 -0.3452  1.1012 -3.5471
36176SOL    HW213214   5.382   4.337   3.302  0.0127  0.0390 -1.4165
36177SOL     OW13215  10.027   2.579   4.024 -0.6153  0.1662 -0.0326
36177SOL    HW113216  10.013   2.600   3.932  0.0448 -1.3562 -0.5008
36177SOL    HW213217   9.951   2.526   4.048 -0.4365 -0.0225  0.1145
36178SOL     OW13218   3.712   1.746   0.765 -0.1510  0.0283 -0.2868
36178SOL    HW113219   3.761   1.795   0.699  0.5130  0.8904  0.8115
36178SOL    HW213220   3.718   1.800   0.844 -0.7507 -1.0765  0.5407
36179SOL     OW13221   4.508   7.128  10.111 -0.0145 -0.0849  0.3059
36179SOL    HW113222   4.414   7.129  10.127  0.1444 -0.5669  1.3367
36179SOL    HW213223   4.517   7.095  10.021 -0.8136 -0.1052  0.2266
36180SOL     OW13224   4.483   4.554   7.210  0.0984  0.5727 -0.5982
36180SOL    HW113225   4.560   4.509   7.174  1.9786  2.0889  1.2588
36180SOL    HW213226   4.507   4.647   7.207  0.2235  0.8909  3.7925
36181SOL     OW13227  10.965   8.645   4.673  0.0722 -0.6830  0.2186
36181SOL    HW113228  10.896   8.659   4.739  0.0910  0.6517 -0.0103
36181SOL    HW213229  10.940   8.702   4.600  1.4042 -0.1756  0.1307
36182SOL     OW13230   4.553   4.892   9.646  0.5162  0.3045  0.2947
36182SOL    HW113231   4.576   4.981   9.616 -0.5160  0.2198 -0.8603
36182SOL    HW213232   4.548   4.899   9.741  3.0415  0.8325  0.4412
36183SOL     OW13233   1.265   7.351   8.056 -0.2600 -0.4168 -0.7124
36183SOL    HW113234   1.222   7.417   8.002 -1.2946  0.2589  0.8424
36183SOL    HW213235   1.298   7.400   8.132 -0.2215 -1.5314  0.0189
36184SOL     OW13236   2.166   7.088   7.608  0.0384 -0.2143  0.0114
36184SOL    HW113237   2.102   7.082   7.679 -0.2671 -1.3781 -0.3320
36184SOL    HW213238   2.120   7.134   7.538  1.1849  3.3832  1.4009
36185SOL     OW13239  11.908   4.357   4.822  0.0516  0.4123  0.0163
36185SOL    HW113240  11.869   4.321   4.742 -0.2640 -0.8960  0.7445
36185SOL    HW213241  11.852   4.432   4.844 -1.4357 -0.7742  0.4328
36186SOL     OW13242  10.176   7.717  11.873  0.3296 -0.0514  0.0844
36186SOL    HW113243  10.223   7.638  11.847  0.8389  0.0078  0.8102
36186SOL    HW213244  10.242   7.786  11.869  0.7762 -0.2315  2.6684
36187SOL     OW13245   9.206   6.273   0.043 -0.4186  0.3560 -0.8865
36187SOL    HW113246   9.297   6.298   0.025 -0.0931 -0.1184  0.0214
36187SOL    HW213247   9.187   6.314   0.128 -0.2118 -1.5571  0.1446
36188SOL     OW13248   8.022   8.724  11.560 -0.5696  0.1474 -0.3285
36188SOL    HW113249   7.942   8.680  11.533  0.2556 -1.7718  0.1534
36188SOL    HW213250   8.038   8.693  11.649  0.3211  1.0731 -0.1373
36189SOL     OW13251   6.637   3.111   8.700 -0.6936 -0.6566  0.1284
36189SOL    HW113252   6.675   3.105   8.612 -2.1788  0.5475 -0.6355
36189SOL    HW213253   6.710   3.135   8.756  0.2537 -1.3043 -0.7859
36190SOL     OW13254   3.871  11.733   8.044  0.3394 -0.8856  0.2938
36190SOL    HW113255   3.790  11.723   8.094  0.4521  0.0081  0.6708
36190SOL    HW213256   3.851  11.803   7.981  0.7326 -0.8615  0.1976
36191SOL     OW13257   5.257   1.503   2.180  0.2757 -0.1152  0.8047
36191SOL    HW113258   5.175   1.529   2.221 -0.0079  0.4389 -0.0884
36191SOL    HW213259   5.277   1.417   2.218  2.1824  1.9797  5.2550
36192SOL     OW13260   9.063   1.448   6.161 -0.6341 -0.3299  0.0926
36192SOL    HW113261   9.083   1.449   6.067 -2.7139 -0.1175 -0.4016
36192SOL    HW213262   9.140   1.407   6.201 -0.1480 -1.4376 -1.8209
36193SOL     OW13263   1.658   6.159   5.538 -0.2547  0.6375 -0.3569
36193SOL    HW113264   1.634   6.095   5.471  0.5157  0.2208 -0.2498
36193SOL    HW213265   1.696   6.232   5.489  0.0009  0.4759 -0.4024
36194SOL     OW13266  11.462   1.751   9.385  0.2579  0.4821 -0.4943
36194SOL    HW113267  11.517   1.673   9.396  1.5383  1.6558  2.2527
36194SOL    HW213268  11.373   1.717   9.380  0.7748 -1.1622  0.7754
36195SOL     OW13269   2.447   8.981   8.903 -0.1288 -0.1534  0.3419
36195SOL    HW113270   2.472   9.072   8.886 -0.7523  0.2160  1.3296
36195SOL    HW213271   2.355   8.976   8.878  0.3179 -0.9759 -1.3115
36196SOL     OW13272   5.374  11.783  11.378 -0.5456  0.0684  0.4037
36196SOL    HW113273   5.407  11.866  11.415 -0.8371  0.1516  0.4817
36196SOL    HW213274   5.409  11.716  11.436 -1.0987  0.2073  0.9118
36197SOL     OW13275  11.214   2.911   2.008 -0.2738  0.1444  0.1883
36197SOL    HW113276  11.231   2.819   1.991 -0.9032 -0.1983  1.3320
36197SOL    HW213277  11.264   2.958   1.940  0.9581 -0.9782  0.2877
36198SOL     OW13278   3.948   0.171  11.885 -0.1108 -0.4617  0.4374
36198SOL    HW113279   3.891   0.102  11.851 -0.8042  0.9343 -1.3303
36198SOL    HW213280   3.908   0.196  11.968 -0.1893 -1.7409  0.8154
36199SOL     OW13281  10.860   9.613   1.110 -0.1979  0.1320  0.3986
36199SOL    HW113282  10.839   9.584   1.199 -1.6870 -1.1649 -0.3269
36199SOL    HW213283  10.889   9.704   1.120  0.0141 -0.0980  2.2308
36200SOL     OW13284   4.522   1.185   0.313 -0.0733  0.3838  0.7466
36200SOL    HW113285   4.526   1.265   0.365 -1.3653  0.7444  0.3298
36200SOL    HW213286   4.437   1.147   0.334  0.2235 -0.5095  0.3882
36201SOL     OW13287  11.683   7.218   8.576 -0.2987  0.5089 -0.4391
36201SOL    HW113288  11.628   7.290   8.546 -0.3016  0.0540 -1.5588
36201SOL    HW213289  11.771   7.257   8.582 -0.2795  0.5878 -1.1403
36202SOL     OW13290   3.514   1.133   0.714 -0.1443 -0.0521  0.6859
36202SOL    HW113291   3.582   1.187   0.675 -0.6322 -1.2647 -2.1220
36202SOL    HW213292   3.562   1.061   0.756  0.3909 -0.7911 -1.0906
36203SOL     OW13293   6.825   9.906   5.825 -0.1994  0.2755 -0.2273
36203SOL    HW113294   6.865   9.849   5.758 -0.9809 -1.1506  0.4627
36203SOL    HW213295   6.732   9.888   5.819 -0.3884  0.9662  0.5092
36204SOL     OW13296  10.918  11.651   6.393  0.0557 -0.3397 -0.4399
36204SOL    HW113297  10.972  11.638   6.471 -1.7793 -0.8342  0.8161
36204SOL    HW213298  10.971  11.705   6.335  1.0519  0.9729  1.6097
36205SOL     OW13299  10.999   2.181   1.116  0.6249  0.4220  0.2000
36205SOL    HW113300  11.013   2.086   1.121 -0.8928  0.1203 -0.6901
36205SOL    HW213301  11.075   2.213   1.067  0.8739 -0.4007  0.0152
36206SOL     OW13302   9.541   9.446   2.026  0.1047  0.1590 -0.5518
36206SOL    HW113303   9.536   9.426   2.119  0.0183  0.1990 -0.5473
36206SOL    HW213304   9.633   9.467   2.010  0.2327 -0.4181 -0.5965
36207SOL     OW13305   2.735   9.381  11.231 -0.5959  0.1317  0.8663
36207SOL    HW113306   2.715   9.298  11.190  1.1881  0.8284 -1.6494
36207SOL    HW213307   2.697   9.447  11.173 -0.0029  1.1299  1.5679
36208SOL     OW13308   5.830  10.347   3.443 -0.2523 -0.1830  0.5319
36208SOL    HW113309   5.909  10.379   3.400 -1.7995  3.7946  0.2026
36208SOL    HW213310   5.849  10.256   3.465  3.2912 -0.2519 -2.0442
36209SOL     OW13311   6.912   2.199  10.924 -0.5153 -0.0835 -0.4837
36209SOL    HW113312   6.848   2.197  10.995  0.1896 -1.7977  0.1463
36209SOL    HW213313   6.945   2.110  10.918  2.6662  0.9371 -0.0195
36210SOL     OW13314   4.088   6.100   9.602 -0.5419  0.1745 -0.1862
36210SOL    HW113315   4.111   6.152   9.525 -2.3908  0.4413 -0.5843
36210SOL    HW213316   4.043   6.160   9.661 -0.7734 -0.4592  0.3029
36211SOL     OW13317   7.367  10.066   1.547  0.2557 -0.1116 -0.0411
36211SOL    HW113318   7.417  10.139   1.584 -0.7479  0.6254 -0.1003
36211SOL    HW213319   7.367  10.082   1.453 -1.1253  0.5952  0.0542
36212SOL     OW13320  10.041   6.662   2.769 -0.2798 -0.7778 -0.4703
36212SOL    HW113321  10.108   6.691   2.708 -1.1462  1.6787 -0.3606
36212SOL    HW213322  10.082   6.671   2.855 -0.2612 -0.7333 -0.4839
36213SOL     OW13323   8.207   7.740   7.909  0.5247  0.7734 -0.0989
36213SOL    HW113324   8.218   7.817   7.853  2.7478  0.9100  0.4052
36213SOL    HW213325   8.180   7.775   7.994 -2.8299  0.5685 -0.9589
36214SOL     OW13326   1.213   1.841   7.188 -0.8369  0.0620  0.3090
36214SOL    HW113327   1.228   1.857   7.281  0.2705 -3.2450  0.8340
36214SOL    HW213328   1.284   1.888   7.144 -1.4552  1.7805  1.0295
36215SOL     OW13329  11.264  11.921   4.979 -0.4514  0.5860  0.2854
36215SOL    HW113330  11.266  11.908   5.074  0.7480 -0.6127  0.1312
36215SOL    HW213331  11.273  11.833   4.943  0.7417  1.1591 -0.9167
36216SOL     OW13332   8.959   2.774   0.249  0.3399  0.5374 -0.3520
36216SOL    HW113333   8.940   2.840   0.183  0.6417  0.6907 -0.2911
36216SOL    HW213334   9.030   2.813   0.302  0.9822 -0.1037 -0.7264
36217SOL     OW13335   8.729   0.859   8.730 -0.9430 -0.0152 -0.1241
36217SOL    HW113336   8.781   0.779   8.742 -1.8549 -0.5132  0.7340
36217SOL    HW213337   8.794   0.928   8.713  0.2170 -0.2352  2.7829
36218SOL     OW13338   0.097   3.153   2.134 -0.5373  0.1014 -0.2036
36218SOL    HW113339   0.163   3.112   2.078  0.0474 -0.8797  1.1484
36218SOL    HW213340   0.123   3.245   2.138  2.1481 -0.6340  2.0799
36219SOL     OW13341   1.266   7.771   2.037 -0.4051 -0.4627  0.6762
36219SOL    HW113342   1.211   7.848   2.052  0.7135  0.6450 -0.6862
36219SOL    HW213343   1.354   7.806   2.023  0.3982 -2.0963  1.3811
36220SOL     OW13344   9.110   3.300   5.855 -0.2405  0.0045 -0.6561
36220SOL    HW113345   9.099   3.385   5.814  1.7475  0.3591 -0.5550
36220SOL    HW213346   9.041   3.295   5.921  0.4050  2.0993  0.2368
36221SOL     OW13347   6.698   5.534  10.619  0.2157  0.1921 -0.0989
36221SOL    HW113348   6.609   5.517  10.651  0.9572  0.2222  2.1295
36221SOL    HW213349   6.711   5.628  10.631  0.7088  0.1088  0.0557
36222SOL     OW13350   0.242   7.971  10.078 -0.7032  0.3795 -0.0074
36222SOL    HW113351   0.311   8.020  10.122  1.0076 -0.1672 -1.9426
36222SOL    HW213352   0.262   7.879  10.096 -1.1921  0.2206 -0.2410
36223SOL     OW13353   2.797  10.672   2.232 -0.3092 -0.0359  0.7120
36223SOL    HW113354   2.766  10.617   2.161  2.5336 -1.1727  0.2133
36223SOL    HW213355   2.728  10.667   2.298 -1.5010 -1.7091 -0.5732
36224SOL     OW13356   1.364  11.409   3.934 -0.4096  0.6747 -0.3913
36224SOL    HW113357   1.415  11.483   3.901  0.4687  0.5376  0.5823
36224SOL    HW213358   1.344  11.356   3.857  1.5801  0.3422 -0.7300
36225SOL     OW13359   3.573   4.264   9.263  0.3590 -1.1046  0.4687
36225SOL    HW113360   3.526   4.258   9.180  0.2282 -1.6391  0.5708
36225SOL    HW213361   3.629   4.340   9.254 -0.5129 -0.4614  0.3316
36226SOL     OW13362   5.422   7.470   6.381  0.5529  0.1341 -0.0455
36226SOL    HW113363   5.399   7.494   6.291 -0.0007 -0.0363  0.0470
36226SOL    HW213364   5.491   7.405   6.371 -0.4627 -0.9170 -0.3958
36227SOL     OW13365   6.961   2.024  11.658  0.0579 -0.8181  0.0868
36227SOL    HW113366   7.051   2.042  11.684  0.7899 -1.5131 -1.7496
36227SOL    HW213367   6.963   1.935  11.622 -1.4662 -1.0171  0.4135
36228SOL     OW13368   9.049   6.370   3.400  0.3463 -0.4168 -0.5338
36228SOL    HW113369   8.984   6.401   3.338  1.1332 -2.5429 -2.5733
36228SOL    HW213370   9.001   6.313   3.459 -0.1123  0.3234 -0.1734
36229SOL     OW13371   0.839   1.344   7.671 -0.2337  0.3088 -0.3572
36229SOL    HW113372   0.756   1.392   7.667 -0.3071  0.3306  1.1542
36229SOL    HW213373   0.905   1.411   7.689  0.3786  0.5167 -2.8735
36230SOL     OW13374   1.178  10.228  10.558 -0.4103 -0.4063  0.1185
36230SOL    HW113375   1.145  10.278  10.633 -0.8202  0.5737 -0.6839
36230SOL    HW213376   1.264  10.265  10.541 -0.6046 -0.1429 -0.3142
36231SOL     OW13377  10.182   8.584   1.330  0.3116  0.2006 -0.1303
36231SOL    HW113378  10.110   8.618   1.277 -0.1488  0.4146  0.6187
36231SOL    HW213379  10.204   8.655   1.390  2.2816  0.7747 -1.4231
36232SOL     OW13380   2.123   9.989   5.435 -0.3226  0.1132  0.0932
36232SOL    HW113381   2.130  10.025   5.346 -0.3242 -1.2995 -0.5034
36232SOL    HW213382   2.175   9.909   5.433 -0.5353 -0.0741  1.3034
36233SOL     OW13383   6.292   6.865   9.479  0.0754 -0.3620  0.1427
36233SOL    HW113384   6.351   6.818   9.421  2.1869  0.4288  1.5221
36233SOL    HW213385   6.236   6.798   9.518  1.2971 -1.3936  0.1515
36234SOL     OW13386   6.614   1.154   4.777  0.2343 -0.3986 -0.1155
36234SOL    HW113387   6.677   1.170   4.848  1.7590  0.5222 -1.6194
36234SOL    HW213388   6.532   1.193   4.809  1.0290  0.4934  0.9003
36235SOL     OW13389   6.805  10.830  10.077 -0.2916 -0.2796 -0.4082
36235SOL    HW113390   6.869  10.761  10.092 -0.3266 -0.7265 -2.0919
36235SOL    HW213391   6.843  10.884  10.009  0.4286  2.3619  1.9176
36236SOL     OW13392   9.821   1.059   6.436  0.0827  0.1446 -0.1353
36236SOL    HW113393   9.838   1.036   6.345 -2.2725  0.6285 -0.7624
36236SOL    HW213394   9.888   1.124   6.457 -0.2033  1.1195 -2.0307
36237SOL     OW13395   9.632   9.197   7.495 -0.2623 -0.3598 -0.2650
36237SOL    HW113396   9.699   9.163   7.436 -0.3861  0.8940 -1.1701
36237SOL    HW213397   9.560   9.133   7.489  1.0291 -2.0787  1.2295
36238SOL     OW13398  11.382   4.627   2.789  0.0617  0.0329 -0.5103
36238SOL    HW113399  11.453   4.579   2.831  0.3883  1.1462  0.2629
36238SOL    HW213400  11.385   4.600   2.697  1.7620  0.3678 -0.5820
36239SOL     OW13401   8.133  10.308   9.178 -0.5147 -0.1412 -0.4010
36239SOL    HW113402   8.190  10.385   9.170 -0.8761  0.0251 -1.7314
36239SOL    HW213403   8.192  10.233   9.162  0.3127 -0.3992  3.0208
36240SOL     OW13404   9.325   2.569   8.693  0.5359 -0.2953  0.2448
36240SOL    HW113405   9.333   2.616   8.776 -0.0334  0.6102 -0.2050
36240SOL    HW213406   9.316   2.477   8.719 -0.6995  0.0812  1.2473
36241SOL     OW13407   3.045   0.456  10.957  0.5158 -0.1725 -0.0784
36241SOL    HW113408   2.969   0.494  11.000 -1.7482 -1.6421 -2.5349
36241SOL    HW213409   3.096   0.532  10.927 -0.6063  0.8549  0.5458
36242SOL     OW13410   6.430   0.507   8.261 -0.1268  0.0265 -0.2969
36242SOL    HW113411   6.337   0.481   8.263  0.1510 -1.1584  2.4186
36242SOL    HW213412   6.444   0.542   8.173 -3.7911  2.7596 -0.0186
36243SOL     OW13413  10.529   9.334   1.671  0.2440  0.4464 -0.2170
36243SOL    HW113414  10.488   9.263   1.722  1.0011  0.0703 -0.1227
36243SOL    HW213415  10.461   9.360   1.608 -1.2435  1.8539  1.8184
36244SOL     OW13416   7.199   9.945   3.044 -0.0496 -0.1483 -0.2787
36244SOL    HW113417   7.148  10.022   3.067  1.3989  0.7724 -0.0050
36244SOL    HW213418   7.203   9.947   2.949 -1.6682 -1.0249 -0.3935
36245SOL     OW13419   1.459  10.392   6.378  0.3435  0.0512 -0.5398
36245SOL    HW113420   1.480  10.322   6.440 -0.0267  0.1359 -0.3134
36245SOL    HW213421   1.402  10.350   6.313  0.7613 -0.0468 -0.8538
36246SOL     OW13422   9.475   9.629   2.991 -0.5134  0.3383 -0.2616
36246SOL    HW113423   9.547   9.593   2.940  0.9570  0.4528  1.6107
36246SOL    HW213424   9.449   9.708   2.944 -0.8340 -0.7757 -2.0616
36247SOL     OW13425   9.911   7.805   4.860 -0.8310  0.1015 -0.5689
36247SOL    HW113426   9.923   7.841   4.948  0.0728  2.2319 -1.4864
36247SOL    HW213427   9.968   7.729   4.857  0.2305  0.8405  0.2645
36248SOL     OW13428   1.609   9.916   8.646 -0.1688 -0.0696  0.3109
36248SOL    HW113429   1.592   9.841   8.590 -1.0087  0.1706  0.2188
36248SOL    HW213430   1.545   9.907   8.718 -2.8872  2.4061 -1.5456
36249SOL     OW13431   2.828   7.517   9.008 -0.7381  0.4383  0.0152
36249SOL    HW113432   2.861   7.533   9.097  0.9933 -0.6879 -0.3855
36249SOL    HW213433   2.771   7.441   9.017  2.1062 -1.9238 -0.2687
36250SOL     OW13434   2.978   8.173   2.723  0.5672 -0.2285  0.0008
36250SOL    HW113435   3.064   8.193   2.686  0.6642 -2.0369 -0.8725
36250SOL    HW213436   2.915   8.200   2.656  0.2473  2.8754  1.4001
36251SOL     OW13437   4.384   4.101   3.231  0.2386  0.1218 -0.3202
36251SOL    HW113438   4.348   4.156   3.300 -1.2441 -0.9908 -0.1435
36251SOL    HW213439   4.345   4.135   3.150 -0.5758 -0.5484 -0.2250
36252SOL     OW13440   3.304   4.301   3.476 -0.4302 -0.0033 -0.3572
36252SOL    HW113441   3.316   4.229   3.414  0.4699  0.0164 -0.2149
36252SOL    HW213442   3.393   4.330   3.498 -0.6910 -0.3754  1.3681
36253SOL     OW13443  10.136   3.543   1.992  0.2804  0.4338  0.0230
36253SOL    HW113444  10.126   3.454   2.026  1.2439  0.0591 -0.6377
36253SOL    HW213445  10.218   3.541   1.943 -0.0656  1.4959 -0.6260
36254SOL     OW13446   8.307   9.586   7.686 -0.0937 -0.0453  0.2822
36254SOL    HW113447   8.244   9.658   7.688  0.5721  0.6097 -0.6996
36254SOL    HW213448   8.289   9.535   7.765 -2.1351 -0.1565 -0.1977
36255SOL     OW13449   6.521   5.196  10.525  0.2028 -0.1278  0.0552
36255SOL    HW113450   6.486   5.247  10.452 -1.8807 -1.2413  0.1716
36255SOL    HW213451   6.594   5.147  10.487  0.3769  0.7448 -0.7717
36256SOL     OW13452   6.162  11.036   2.893 -0.0871 -0.1036 -0.1280
36256SOL    HW113453   6.164  11.132   2.899 -0.2562 -0.0489 -0.8538
36256SOL    HW213454   6.071  11.016   2.870  0.0985 -0.3987 -0.6007
36257SOL     OW13455   4.672   4.129  10.526  0.4067  0.0157  0.3798
36257SOL    HW113456   4.727   4.141  10.448  2.7525 -0.4693  1.8542
36257SOL    HW213457   4.700   4.198  10.586 -1.5156  0.5156  0.7655
36258SOL     OW13458  11.612   6.373   9.087 -0.0934  0.3720  0.1770
36258SOL    HW113459  11.563   6.372   9.169 -0.2646  2.1680  0.1396
36258SOL    HW213460  11.602   6.463   9.054  1.9249  0.3590 -0.6241
36259SOL     OW13461  10.541   0.462   9.586  0.8508  0.0540 -0.7810
36259SOL    HW113462  10.479   0.452   9.514  0.6765  1.9804 -0.9657
36259SOL    HW213463  10.623   0.488   9.543  1.2578 -0.5407 -0.3918
36260SOL     OW13464   7.205  10.100   1.987  0.0748 -0.0459  0.0304
36260SOL    HW113465   7.222  10.039   2.060 -2.3688  0.3072  1.0043
36260SOL    HW213466   7.280  10.159   1.988  1.6250 -1.8980  0.2310
36261SOL     OW13467   0.214   3.394   1.608  0.1222 -0.0971  0.2320
36261SOL    HW113468   0.157   3.329   1.648 -1.2507  0.7852 -0.2525
36261SOL    HW213469   0.276   3.342   1.556 -0.4501 -1.0513  0.4760
36262SOL     OW13470  10.909   0.839  11.083  0.0369 -0.5849  0.3411
36262SOL    HW113471  10.836   0.784  11.112 -0.6627 -0.0767 -0.4194
36262SOL    HW213472  10.881   0.928  11.104  1.1335 -0.4975  1.5003
36263SOL     OW13473   6.193   6.659   0.594  0.1016 -0.4514 -0.4669
36263SOL    HW113474   6.194   6.731   0.530  0.6375 -0.1478 -0.1318
36263SOL    HW213475   6.115   6.676   0.648  0.6395  0.3309  0.0944
36264SOL     OW13476   6.909   4.494   4.350  0.2170 -0.1348  0.3189
36264SOL    HW113477   6.917   4.477   4.256  1.3750 -2.2560  0.7322
36264SOL    HW213478   6.970   4.432   4.390  1.1605  1.9759  2.3921
36265SOL     OW13479   6.396   3.933   8.841 -0.1391  0.1609  0.2366
36265SOL    HW113480   6.320   3.981   8.807  1.7961  2.6561 -0.8159
36265SOL    HW213481   6.404   3.963   8.931  0.5156  1.1511 -0.1388
36266SOL     OW13482   6.868   2.974  10.137 -0.0580  0.2465  0.3857
36266SOL    HW113483   6.831   2.993  10.224 -2.0024 -3.0193  0.4316
36266SOL    HW213484   6.794   2.982  10.077  0.5799 -0.3349 -0.4995
36267SOL     OW13485   3.414   3.683   5.522  0.0007 -1.3354 -0.2455
36267SOL    HW113486   3.452   3.770   5.513 -0.6537 -1.1273 -1.0536
36267SOL    HW213487   3.364   3.687   5.604 -1.1253 -0.5218 -0.9429
36268SOL     OW13488   9.634   4.780   2.752 -0.1416  0.2574  0.3898
36268SOL    HW113489   9.637   4.757   2.844  1.8597  1.3881  0.6738
36268SOL    HW213490   9.632   4.876   2.752 -0.5722  0.2593 -0.7361
36269SOL     OW13491   8.466   6.879   3.256 -0.4998  0.2123 -0.0121
36269SOL    HW113492   8.553   6.841   3.247 -1.4444 -1.5899 -2.7784
36269SOL    HW213493   8.476   6.970   3.226  0.3990 -0.0572 -0.5610
36270SOL     OW13494   8.267   4.208   6.087  0.1610  0.1258  0.4698
36270SOL    HW113495   8.190   4.224   6.142  0.8046  0.6060  1.2601
36270SOL    HW213496   8.246   4.248   6.003 -0.3897  0.3937  0.7324
36271SOL     OW13497   4.610   9.767  10.586 -0.3432  0.1696  0.0186
36271SOL    HW113498   4.630   9.851  10.544 -0.6014  0.5273  0.5924
36271SOL    HW213499   4.517   9.773  10.608 -0.9717 -1.2157 -2.0347
36272SOL     OW13500   7.070  11.918   3.339  0.3715 -0.7150  0.0836
36272SOL    HW113501   7.149  11.946   3.293  0.6545  1.6862  1.8222
36272SOL    HW213502   7.080  11.952   3.428 -3.3516  1.3324 -0.0684
36273SOL     OW13503   7.914   6.324  10.976 -0.5434 -0.0739 -0.3828
36273SOL    HW113504   7.927   6.419  10.976 -1.9726  0.1433 -0.5465
36273SOL    HW213505   7.854   6.308  11.049  0.7457 -1.0289  0.4898
36274SOL     OW13506   8.907   5.996   8.760 -0.0410 -0.0514 -0.6451
36274SOL    HW113507   8.940   6.004   8.671 -0.0589  2.0698 -0.5047
36274SOL    HW213508   8.922   6.082   8.799 -0.8456 -0.6662  1.1261
36275SOL     OW13509   6.919   1.685   3.847  0.4725 -0.2102 -0.1756
36275SOL    HW113510   7.004   1.726   3.838 -0.6517  1.7136 -4.5445
36275SOL    HW213511   6.929   1.598   3.808  0.5309 -0.1185 -0.3653
36276SOL     OW13512   2.198   2.247   9.912 -0.7623  0.1576 -0.5052
36276SOL    HW113513   2.277   2.300   9.922 -0.3586 -0.0394 -2.3253
36276SOL    HW213514   2.129   2.299   9.954  0.2630  0.4313  0.9213
36277SOL     OW13515   1.477  10.196   6.562  0.0489  0.2173 -0.8574
36277SOL    HW113516   1.413  10.135   6.525  0.2593 -0.2974 -0.3933
36277SOL    HW213517   1.543  10.140   6.603 -0.6806  0.7186  1.1550
36278SOL     OW13518   3.362   7.201   9.831  1.1996  0.2955  0.4496
36278SOL    HW113519   3.455   7.192   9.811  1.4589  0.1281  1.6686
36278SOL    HW213520   3.360   7.249   9.914  0.2330 -0.2490  0.7547
36279SOL     OW13521   4.797   1.840   4.692  0.3629  0.7323 -0.1091
36279SOL    HW113522   4.860   1.799   4.751  0.5159  1.4417  0.2235
36279SOL    HW213523   4.819   1.804   4.606  2.1195  1.9625 -0.2376
36280SOL     OW13524   3.327   5.814   3.446  0.0150 -0.0183 -0.0331
36280SOL    HW113525   3.376   5.895   3.445  1.7578 -0.9864 -2.5123
36280SOL    HW213526   3.246   5.834   3.398  1.1496 -0.0735 -2.0621
36281SOL     OW13527   2.920  10.744   1.179 -0.1814  0.7316 -0.8376
36281SOL    HW113528   2.876  10.670   1.137 -0.2040  0.9780 -1.2514
36281SOL    HW213529   2.932  10.808   1.109 -0.2670  1.1697 -0.4528
36282SOL     OW13530   2.076   8.553   8.421  0.0486  0.4510  0.2794
36282SOL    HW113531   2.114   8.555   8.333 -1.1719  2.8808 -0.2970
36282SOL    HW213532   2.030   8.469   8.426 -1.4349  1.0047 -2.1869
36283SOL     OW13533   7.807  11.422   7.750 -0.2436 -0.6286  0.4461
36283SOL    HW113534   7.762  11.369   7.683 -0.9374 -0.5904  0.8702
36283SOL    HW213535   7.737  11.450   7.808  0.2822 -0.1797  0.8652
36284SOL     OW13536   2.095   2.107   5.541 -0.1517  0.2429 -0.2438
36284SOL    HW113537   2.176   2.067   5.509  0.8153  2.3194 -0.6048
36284SOL    HW213538   2.077   2.063   5.624  1.6977  0.1160  0.1400
36285SOL     OW13539   3.942  11.792   2.196  0.1751 -0.3772  0.4695
36285SOL    HW113540   3.967  11.799   2.104 -0.4178  0.6503  0.3813
36285SOL    HW213541   3.862  11.740   2.195 -0.9674  1.3025  0.1861
36286SOL     OW13542   5.870   1.054   8.922  0.5929 -0.4145  0.6940
36286SOL    HW113543   5.963   1.041   8.941  0.3397 -1.3676  1.3311
36286SOL    HW213544   5.853   1.145   8.947  1.5000 -0.0154 -0.0732
36287SOL     OW13545   0.146   7.842   9.201  0.2818 -0.4692  0.2177
36287SOL    HW113546   0.232   7.805   9.182  1.1593  1.3062  0.4642
36287SOL    HW213547   0.095   7.825   9.122  1.1614 -0.7293 -0.3122
36288SOL     OW13548   9.663   5.961   2.320 -0.9356  0.0889 -0.1882
36288SOL    HW113549   9.634   5.894   2.381  2.3054 -2.5491 -1.1894
36288SOL    HW213550   9.607   5.949   2.243  0.1086 -2.2032 -0.6762
36289SOL     OW13551   3.049   8.566   3.492 -0.7630 -0.0710 -0.4405
36289SOL    HW113552   3.074   8.482   3.530 -1.8786 -0.9262 -1.4815
36289SOL    HW213553   3.126   8.595   3.444 -0.7386 -1.1325 -1.0860
36290SOL     OW13554  10.092   3.774   7.811 -1.0850  0.3787  0.2690
36290SOL    HW113555  10.074   3.731   7.727  1.3498  1.4705 -0.8971
36290SOL    HW213556  10.040   3.724   7.875 -1.6808 -1.5569 -1.6094
36291SOL     OW13557   2.155   0.188   4.808 -0.1501 -0.1833 -0.4804
36291SOL    HW113558   2.215   0.140   4.751  2.2026  0.0136  1.6502
36291SOL    HW213559   2.212   0.246   4.860 -2.3998  1.4466  0.3454
36292SOL     OW13560   5.880   4.969   8.930  0.5943  1.0053  0.0748
36292SOL    HW113561   5.832   5.049   8.908  0.4183  1.0943  0.7665
36292SOL    HW213562   5.846   4.903   8.869  0.0039  1.2128  0.1729
36293SOL     OW13563   0.679   4.941   8.244  0.3261  0.3151  0.1740
36293SOL    HW113564   0.601   4.982   8.208  1.8383  1.7809 -1.5955
36293SOL    HW213565   0.748   5.006   8.235  1.9485 -1.1795  1.0020
36294SOL     OW13566   1.876  10.667   3.893 -0.3283  0.2969 -0.3833
36294SOL    HW113567   1.905  10.603   3.829 -1.5095 -0.1589 -0.4922
36294SOL    HW213568   1.876  10.619   3.976  1.0742  0.8477 -0.0356
36295SOL     OW13569  11.004   2.897   6.522 -0.4456  0.4031 -0.2597
36295SOL    HW113570  11.045   2.980   6.495 -0.5027  1.6746  3.1258
36295SOL    HW213571  11.077   2.835   6.525 -0.6153 -0.2277 -4.1993
36296SOL     OW13572  10.843   4.745   8.345 -0.1716  0.0420 -0.7613
36296SOL    HW113573  10.872   4.822   8.393  1.0886 -0.7984 -0.1082
36296SOL    HW213574  10.870   4.761   8.254 -0.2877  0.5471 -0.7072
36297SOL     OW13575   1.309  10.686   8.050  0.5615 -0.1408  0.2390
36297SOL    HW113576   1.360  10.650   7.977 -0.4831  1.0406 -1.1512
36297SOL    HW213577   1.361  10.666   8.128  1.9011 -1.1537 -0.8561
36298SOL     OW13578  11.076   0.624   0.857  0.0473  0.0305 -0.8242
36298SOL    HW113579  11.036   0.539   0.843 -0.0948 -0.1524  0.5248
36298SOL    HW213580  11.164   0.616   0.822  0.1542 -0.7971 -0.3784
36299SOL     OW13581   8.754   0.475   0.024 -0.8694  0.0912  0.4268
36299SOL    HW113582   8.849   0.472   0.034 -0.5608  2.1765 -1.1199
36299SOL    HW213583   8.720   0.456   0.112  0.9273 -0.9991  0.9490
36300SOL     OW13584  11.492   5.789   8.206  0.1190  0.2240  0.0861
36300SOL    HW113585  11.422   5.823   8.149  1.6796 -0.0828 -2.1519
36300SOL    HW213586  11.453   5.711   8.246 -0.4534 -0.7203 -2.1557
36301SOL     OW13587   5.895   6.815   8.181  0.2433  1.1236  0.0686
36301SOL    HW113588   5.891   6.775   8.268  0.3060 -0.6908 -0.7012
36301SOL    HW213589   5.976   6.780   8.143 -1.8949 -1.8453 -2.3207
36302SOL     OW13590  11.496   4.912  10.586  0.0363  0.4008 -0.0769
36302SOL    HW113591  11.562   4.843  10.583  0.9797  1.2377  0.6280
36302SOL    HW213592  11.542   4.991  10.556 -0.2075  1.3003  1.7667
36303SOL     OW13593   8.845   1.728  10.499 -0.1982 -0.5781  0.2160
36303SOL    HW113594   8.863   1.798  10.561 -1.5446  0.6426 -0.7136
36303SOL    HW213595   8.759   1.695  10.523  0.6272 -2.3107  0.9570
36304SOL     OW13596   3.861   7.728  11.552 -0.0091  0.5266  0.2911
36304SOL    HW113597   3.773   7.709  11.584  0.1912  1.6063  1.5921
36304SOL    HW213598   3.883   7.654  11.495 -1.1786 -0.4992  1.1141
36305SOL     OW13599   2.547   4.893  11.029  0.1108  0.3802  0.8159
36305SOL    HW113600   2.489   4.818  11.018 -0.4790  1.0426 -0.9247
36305SOL    HW213601   2.627   4.869  10.982  0.4856  0.2723  1.4973
36306SOL     OW13602   8.662   2.777   0.927 -0.2242  0.3851  0.2809
36306SOL    HW113603   8.746   2.735   0.910 -1.3657 -2.0499  0.2045
36306SOL    HW213604   8.612   2.761   0.847 -1.7245 -0.8860  1.4121
36307SOL     OW13605   3.139  11.332  10.652  0.7891 -0.2358  0.0389
36307SOL    HW113606   3.060  11.307  10.605 -0.4966 -1.4191  2.6192
36307SOL    HW213607   3.120  11.419  10.686 -0.1350 -1.1264  1.9553
36308SOL     OW13608   1.884   7.973   8.765  0.0699  0.0838 -0.3429
36308SOL    HW113609   1.865   8.008   8.678 -0.2354  2.7083  0.6875
36308SOL    HW213610   1.979   7.956   8.763 -0.1581 -1.2166 -1.5779
36309SOL     OW13611   7.932   0.345   2.248  0.1156  0.1890  0.6118
36309SOL    HW113612   8.016   0.372   2.285  2.5389 -1.0630 -3.3568
36309SOL    HW213613   7.928   0.390   2.164 -1.4825 -2.4544 -0.8444
36310SOL     OW13614   3.692   9.846   1.451  0.5709  0.0824 -0.0978
36310SOL    HW113615   3.782   9.858   1.419 -0.0463  2.4158 -1.1700
36310SOL    HW213616   3.701   9.843   1.546  1.9238 -1.4576 -0.2273
36311SOL     OW13617   6.480   5.890   0.100 -0.2396  0.2896  0.0357
36311SOL    HW113618   6.418   5.821   0.079 -0.5352  0.2870  0.8918
36311SOL    HW213619   6.552   5.846   0.144 -1.0398  0.6631  1.8081
36312SOL     OW13620  10.539   0.811   5.656  0.0700 -0.2215 -0.3490
36312SOL    HW113621  10.486   0.875   5.704  0.4819  0.8731 -1.3075
36312SOL    HW213622  10.480   0.774   5.590  0.4153  0.8766 -1.3075
36313SOL     OW13623  11.119   1.971   6.418  0.2857  0.2321 -0.0839
36313SOL    HW113624  11.196   1.955   6.473  0.3208 -0.8079 -0.4210
36313SOL    HW213625  11.155   2.007   6.337  0.6892 -2.2460 -1.1088
36314SOL     OW13626   2.357   8.365   6.743 -0.3879  0.0532 -0.1355
36314SOL    HW113627   2.309   8.284   6.759 -1.3298  0.4273 -1.0096
36314SOL    HW213628   2.309   8.431   6.793 -0.9852  0.4865 -1.2688
36315SOL     OW13629   8.815   6.356  10.662 -0.2927 -0.5889 -0.1505
36315SOL    HW113630   8.815   6.264  10.686  0.2650 -0.1357  1.7892
36315SOL    HW213631   8.777   6.401  10.737  1.5887  0.9518 -0.0233
36316SOL     OW13632   1.356   3.891   2.872  0.2341  0.0890 -0.2270
36316SOL    HW113633   1.309   3.892   2.955  0.2362 -0.2131 -0.2221
36316SOL    HW213634   1.412   3.813   2.876  1.2475  0.8168  0.0520
36317SOL     OW13635   1.448  11.325   5.398 -0.2385 -0.2653 -0.3648
36317SOL    HW113636   1.363  11.328   5.442  0.3034 -0.4393  0.7254
36317SOL    HW213637   1.443  11.248   5.341 -1.4900  0.8256 -1.7703
36318SOL     OW13638   2.435  10.170   5.226 -0.2610  0.1391 -0.2980
36318SOL    HW113639   2.465  10.128   5.306 -0.5581  0.5646  0.0421
36318SOL    HW213640   2.490  10.249   5.219 -0.9460  0.6597  0.0613
36319SOL     OW13641   3.528  10.879   3.421 -0.2701 -0.1117  0.2646
36319SOL    HW113642   3.591  10.809   3.437  0.2492  0.4550  0.6859
36319SOL    HW213643   3.461  10.837   3.366  0.9363 -0.4725 -0.9893
36320SOL     OW13644   8.765   5.744   6.821  0.0847  0.0630  0.0981
36320SOL    HW113645   8.857   5.762   6.801 -0.7008  1.4700 -2.6405
36320SOL    HW213646   8.756   5.768   6.914  2.5949 -0.8096  0.6430
36321SOL     OW13647   7.396   6.183   9.523  0.6087  0.4639 -0.0504
36321SOL    HW113648   7.321   6.161   9.579  0.4452 -0.9472 -0.7884
36321SOL    HW213649   7.442   6.252   9.572 -1.9359  2.4730 -0.2367
36322SOL     OW13650   9.116   1.208   5.073 -0.0884  0.3171  0.3644
36322SOL    HW113651   9.072   1.244   5.151 -0.6505 -0.1765  0.2825
36322SOL    HW213652   9.158   1.128   5.104  0.1458  0.4081  0.2802
36323SOL     OW13653   9.552   4.896   9.277 -0.1385 -0.4537 -0.4641
36323SOL    HW113654   9.571   4.867   9.188 -0.9365 -0.6152 -0.5915
36323SOL    HW213655   9.636   4.929   9.310  0.5439 -1.9281 -0.6716
36324SOL     OW13656   5.887   5.417   3.911 -0.8493  0.2018  0.5743
36324SOL    HW113657   5.903   5.475   3.837 -0.9776  0.9287  1.1152
36324SOL    HW213658   5.974   5.392   3.942 -0.7426  1.7493  1.6231
36325SOL     OW13659   1.790   7.243   4.981 -0.4598  0.2802 -0.3860
36325SOL    HW113660   1.816   7.321   5.029  0.3046  0.1687 -0.6088
36325SOL    HW213661   1.733   7.196   5.041 -1.2912  1.2193 -0.4100
36326SOL     OW13662   3.464   3.053   1.180  0.2881  0.6645 -0.4938
36326SOL    HW113663   3.444   3.118   1.247 -1.2542 -1.8036  1.6212
36326SOL    HW213664   3.392   3.060   1.117 -1.4069 -0.6845  1.1700
36327SOL     OW13665   6.711   1.328   4.583  0.0187 -0.7884  0.1107
36327SOL    HW113666   6.676   1.250   4.627  0.7298 -0.8782  0.5283
36327SOL    HW213667   6.725   1.391   4.653  0.4436 -0.6620 -0.0862
36328SOL     OW13668   3.049   1.312  10.905 -0.3905 -0.7817  0.2850
36328SOL    HW113669   3.014   1.384  10.852 -0.5865 -1.2985 -0.2882
36328SOL    HW213670   3.143   1.331  10.910 -0.7321  0.8078  2.1380
36329SOL     OW13671   4.149  10.627   3.879 -0.4214 -0.5098  0.1621
36329SOL    HW113672   4.194  10.600   3.960  0.0347  0.0474  0.0961
36329SOL    HW213673   4.195  10.706   3.851 -1.7923  0.3949  0.3838
36330SOL     OW13674   8.924  11.389   7.008  0.2787 -0.6214 -0.3869
36330SOL    HW113675   8.970  11.332   6.946  0.5302 -1.4751  0.5536
36330SOL    HW213676   8.981  11.392   7.085  0.4904  1.2909 -0.5677
36331SOL     OW13677   7.659   5.591   5.931  0.1757  0.0820 -0.1845
36331SOL    HW113678   7.719   5.593   6.005 -1.3875 -0.7488  1.1479
36331SOL    HW213679   7.629   5.501   5.926  0.2642  0.1136 -1.8765
36332SOL     OW13680  11.882   7.337   7.875  0.4862 -0.5388 -0.2998
36332SOL    HW113681  11.808   7.281   7.898 -0.2012  0.4125 -0.1104
36332SOL    HW213682  11.841   7.419   7.846  1.4741  0.2302  0.4166
36333SOL     OW13683   8.583   4.315   5.948  0.2317  0.1081 -0.3033
36333SOL    HW113684   8.572   4.257   5.872 -0.8563 -0.7693  0.5059
36333SOL    HW213685   8.628   4.261   6.013  0.3269  0.5689  0.0163
36334SOL     OW13686  11.559   6.833   5.494 -0.1508  0.2321 -0.5312
36334SOL    HW113687  11.527   6.908   5.444  0.6694  2.0251  1.4498
36334SOL    HW213688  11.636   6.803   5.446 -1.5130 -0.5910 -2.3311
36335SOL     OW13689  10.618   0.263   8.275 -0.4564 -0.3500 -0.4994
36335SOL    HW113690  10.538   0.259   8.327 -0.5451 -1.0413 -0.6819
36335SOL    HW213691  10.675   0.195   8.313 -0.1816 -0.2535 -0.7371
36336SOL     OW13692   2.357   5.891   8.273 -0.1192 -0.3266 -0.5552
36336SOL    HW113693   2.435   5.837   8.286  0.4521  0.4273 -0.8113
36336SOL    HW213694   2.376   5.972   8.319 -1.2525 -0.5810  0.4126
36337SOL     OW13695  10.584   2.291   0.522  0.5100 -0.0613 -0.0189
36337SOL    HW113696  10.671   2.266   0.553 -0.4130 -1.6480  1.4995
36337SOL    HW213697  10.590   2.283   0.427  1.2433 -3.2845  0.1552
36338SOL     OW13698  10.042   7.397  11.660  0.6756  0.0688  0.0006
36338SOL    HW113699  10.041   7.468  11.596 -0.1015  0.4649  0.4339
36338SOL    HW213700  10.005   7.322  11.614 -0.6446  0.5708  0.2135
36339SOL     OW13701   1.591   4.399   8.912 -0.4196  0.5989 -0.3317
36339SOL    HW113702   1.565   4.318   8.955  0.9524  0.1537 -0.3046
36339SOL    HW213703   1.563   4.389   8.821  1.5165 -0.7954 -0.8299
36340SOL     OW13704   4.434   8.135   6.173  0.5625 -0.7107  0.2273
36340SOL    HW113705   4.430   8.212   6.116  0.8279 -1.9423 -1.5694
36340SOL    HW213706   4.523   8.135   6.208  0.7993 -0.5634 -0.3554
36341SOL     OW13707   1.738   4.294   8.219  0.3002 -0.6577 -0.5376
36341SOL    HW113708   1.705   4.281   8.130 -0.0245  0.0516 -0.5300
36341SOL    HW213709   1.743   4.389   8.229 -0.2689 -0.7079  0.4112
36342SOL     OW13710  11.779   5.800   6.507 -0.0019 -0.3142  0.3850
36342SOL    HW113711  11.718   5.851   6.453 -0.5153  0.0671  1.2981
36342SOL    HW213712  11.863   5.844   6.495 -0.7981  2.0710  2.7108
36343SOL     OW13713   9.230  10.173   9.545  0.1502 -0.0411  0.5784
36343SOL    HW113714   9.293  10.238   9.575  0.5915 -0.4781  0.6247
36343SOL    HW213715   9.147  10.219   9.543  0.7423  1.0582 -1.1686
36344SOL     OW13716  11.684   2.608   4.779 -0.6237  0.3283 -0.6929
36344SOL    HW113717  11.761   2.614   4.723 -1.2708 -1.5764 -1.8585
36344SOL    HW213718  11.611   2.635   4.724 -1.0626  0.0828 -0.2444
36345SOL     OW13719   1.543   2.182   2.234 -0.3818  0.0134 -0.3636
36345SOL    HW113720   1.638   2.193   2.228 -0.4708  2.8764  1.3539
36345SOL    HW213721   1.507   2.248   2.175 -1.3094 -0.5833 -0.4933
36346SOL     OW13722   5.093   0.940   1.582  0.1295  0.1648  0.2181
36346SOL    HW113723   5.150   1.008   1.547  2.4100 -0.2922  2.6724
36346SOL    HW213724   5.149   0.891   1.642 -2.1357 -2.2112  0.5764
36347SOL     OW13725   5.174   8.864   0.262 -0.0757 -0.3601 -0.4561
36347SOL    HW113726   5.173   8.788   0.203 -0.1932 -1.3957  0.8263
36347SOL    HW213727   5.178   8.826   0.350  0.9536  1.1568  0.1957
36348SOL     OW13728   3.502  11.575   8.850  0.0507 -0.4956 -0.2252
36348SOL    HW113729   3.510  11.656   8.900  0.1914 -1.7053  1.8211
36348SOL    HW213730   3.589  11.537   8.851 -0.8549 -2.9846  3.1459
36349SOL     OW13731   8.235   0.969   3.495  0.3323  0.5413 -0.4227
36349SOL    HW113732   8.272   0.882   3.509 -0.1856  0.0442 -1.9414
36349SOL    HW213733   8.152   0.967   3.543  0.9122  0.6532  0.6011
36350SOL     OW13734   8.951   7.187   2.555 -0.6057 -0.3490  0.2587
36350SOL    HW113735   9.000   7.212   2.476  0.1222  0.4558  0.9439
36350SOL    HW213736   8.931   7.270   2.598  1.1984 -0.8346  2.1916
36351SOL     OW13737   1.959   2.319   6.140 -0.4737  0.4048  0.1830
36351SOL    HW113738   1.892   2.276   6.194  1.1300 -1.3252  0.8894
36351SOL    HW213739   2.042   2.288   6.175  0.7496  2.6038 -0.5929
36352SOL     OW13740   0.174   0.470   5.515  0.0691  0.3130 -0.3781
36352SOL    HW113741   0.207   0.380   5.515  2.3436  1.0523  1.3800
36352SOL    HW213742   0.165   0.492   5.422  1.3878 -1.0694 -0.8686
36353SOL     OW13743  11.431   5.016   4.602  0.1216 -0.2171  0.5748
36353SOL    HW113744  11.388   5.037   4.520  2.2196 -0.2412 -0.5981
36353SOL    HW213745  11.415   4.922   4.614  2.9055 -1.1627 -1.8932
36354SOL     OW13746   4.021   4.706   9.666  0.2857 -0.6249 -0.2309
36354SOL    HW113747   4.112   4.736   9.662 -0.0434  0.4774  0.1421
36354SOL    HW213748   3.983   4.733   9.583  0.0562 -0.2059  0.0029
36355SOL     OW13749  11.198   0.317  11.989 -0.0933 -0.7378 -0.1323
36355SOL    HW113750  11.228   0.228  11.972  0.3250 -0.2804 -1.9808
36355SOL    HW213751  11.199   0.360  11.903  0.7555  1.3664  0.8569
36356SOL     OW13752   6.023  11.908   9.091 -0.4455 -0.2123  0.8810
36356SOL    HW113753   6.043  11.907   9.185  0.2163  2.4593  0.8703
36356SOL    HW213754   6.078  11.978   9.056 -1.0484 -0.8172 -1.4270
36357SOL     OW13755   4.746   8.566   5.821 -0.0920 -0.0096  0.2138
36357SOL    HW113756   4.678   8.599   5.880 -0.2495 -2.7135  1.6986
36357SOL    HW213757   4.699   8.506   5.763  0.4525  0.9298 -1.2457
36358SOL     OW13758   5.942   8.671   0.412 -0.2631 -0.3049  0.0480
36358SOL    HW113759   6.010   8.726   0.449 -1.3296  0.3633  1.0939
36358SOL    HW213760   5.879   8.733   0.374 -2.2970 -0.6117  2.6388
36359SOL     OW13761   1.584   1.686   3.400 -0.0058  0.3495 -0.1310
36359SOL    HW113762   1.677   1.709   3.410  0.2532 -0.5728 -0.3663
36359SOL    HW213763   1.568   1.620   3.466 -1.1659  2.2621  1.6143
36360SOL     OW13764  11.505  11.329   4.705 -0.0409  0.3177  0.1741
36360SOL    HW113765  11.532  11.260   4.645 -0.6167  0.8720 -0.7480
36360SOL    HW213766  11.415  11.307   4.728 -0.0695  0.5108  0.2518
36361SOL     OW13767   7.810   5.348   1.627 -0.4236 -0.5724  0.5242
36361SOL    HW113768   7.789   5.259   1.654  0.1741 -1.0663 -0.6095
36361SOL    HW213769   7.892   5.341   1.578 -0.5274  0.5509  0.1485
36362SOL     OW13770   6.214   0.379   2.571  0.0243  0.0481  0.4267
36362SOL    HW113771   6.256   0.298   2.542  0.2420  0.4402 -0.3700
36362SOL    HW213772   6.120   0.360   2.565  0.0077  0.5104 -1.8283
36363SOL     OW13773   6.318   1.572   5.582  0.0406  0.3838  0.1947
36363SOL    HW113774   6.369   1.652   5.568  2.2298 -0.5313  2.2008
36363SOL    HW213775   6.360   1.507   5.525 -1.2452  0.4170 -0.8453
36364SOL     OW13776   3.921   0.432  11.469  0.0835 -0.1054 -0.3120
36364SOL    HW113777   3.856   0.503  11.470  0.9374  0.6961 -0.7278
36364SOL    HW213778   4.003   0.475  11.445  1.6251 -0.3650  3.7465
36365SOL     OW13779   6.832   2.764  10.624 -0.5650 -0.5045  0.3934
36365SOL    HW113780   6.756   2.780  10.567  0.1808  1.5265 -0.1342
36365SOL    HW213781   6.830   2.837  10.686 -0.4567 -1.8314  2.0398
36366SOL     OW13782   7.142   2.160   5.516  0.1525  0.7282  0.2139
36366SOL    HW113783   7.190   2.100   5.459  1.1381  1.4624  0.2417
36366SOL    HW213784   7.070   2.108   5.551  0.8045 -0.3435 -0.0082
36367SOL     OW13785   5.194  11.295   7.645  0.1007  0.1619 -0.0747
36367SOL    HW113786   5.100  11.276   7.639  0.4410 -1.3601 -1.2329
36367SOL    HW213787   5.205  11.374   7.592 -0.5854  0.6542  0.4916
36368SOL     OW13788   4.001   1.386   6.780  0.4648  0.1054 -0.1265
36368SOL    HW113789   4.041   1.371   6.695  0.8757 -0.5415  0.1710
36368SOL    HW213790   3.921   1.334   6.778  0.5235  0.0130 -0.0838
36369SOL     OW13791  10.330  11.838   5.140 -0.5007 -0.2218 -0.2658
36369SOL    HW113792  10.412  11.830   5.188 -0.8908  0.1715  0.4981
36369SOL    HW213793  10.347  11.906   5.075 -0.4652  0.4653  0.4474
36370SOL     OW13794   8.915   8.811   0.621  0.1520  0.3904 -0.1704
36370SOL    HW113795   8.857   8.789   0.694 -1.7926  1.8093 -1.1885
36370SOL    HW213796   9.002   8.819   0.660 -0.2706 -1.8984  1.4163
36371SOL     OW13797   4.689   8.263   6.169 -0.1865 -0.3210  0.0843
36371SOL    HW113798   4.719   8.309   6.247 -0.7232  0.8293 -0.3523
36371SOL    HW213799   4.742   8.300   6.098 -1.5884  0.6880 -0.4819
36372SOL     OW13800   3.876   5.029   9.912 -0.1080  0.6924  0.2744
36372SOL    HW113801   3.908   5.014   9.823  0.6490  0.1050  0.6337
36372SOL    HW213802   3.787   4.995   9.911  0.3557 -0.5699  0.0981
36373SOL     OW13803  10.576   1.622   5.476 -0.2461  0.1940 -0.5695
36373SOL    HW113804  10.609   1.625   5.387 -1.4731 -3.2913 -1.3192
36373SOL    HW213805  10.549   1.711   5.495  1.8809  1.4626 -2.8787
36374SOL     OW13806   6.839   4.351  10.795  0.0866 -0.1115  0.6391
36374SOL    HW113807   6.763   4.409  10.793 -0.1672 -0.4501  0.4478
36374SOL    HW213808   6.812   4.277  10.849 -0.3246 -1.0651 -0.8242
36375SOL     OW13809   1.297   3.311   1.130 -0.5791  0.4226  0.3037
36375SOL    HW113810   1.245   3.282   1.204 -2.0123  1.7691 -0.1253
36375SOL    HW213811   1.250   3.280   1.053 -0.4439  1.1492 -0.0839
36376SOL     OW13812   1.624   3.525   2.066  0.3920 -0.1611 -0.1166
36376SOL    HW113813   1.705   3.557   2.105  0.0768 -0.4164  0.7684
36376SOL    HW213814   1.646   3.437   2.035 -0.1823 -1.2993  2.4473
36377SOL     OW13815   3.134   7.680   8.384  0.4426 -0.2846  0.3656
36377SOL    HW113816   3.109   7.771   8.394  1.1708 -0.0560  0.1623
36377SOL    HW213817   3.160   7.652   8.472 -0.2696 -0.4533  0.5294
36378SOL     OW13818   0.793   8.510   8.562 -0.3223 -0.2830 -0.6084
36378SOL    HW113819   0.713   8.552   8.590  0.8203  0.7533  1.2711
36378SOL    HW213820   0.776   8.416   8.573 -0.6657 -0.0008  1.6019
36379SOL     OW13821   1.413   0.779   5.058 -0.0591 -0.1327  0.1474
36379SOL    HW113822   1.403   0.704   5.000 -1.8016 -0.6733  1.0499
36379SOL    HW213823   1.490   0.759   5.111 -0.3147 -1.1425  0.1579
36380SOL     OW13824   4.100   3.229   0.425  0.4367  0.2606  0.0342
36380SOL    HW113825   4.145   3.311   0.445  1.6861 -0.4173  0.1060
36380SOL    HW213826   4.049   3.209   0.504  1.6991 -0.0312  0.8143
36381SOL     OW13827   1.501   6.205   3.556  0.1229  0.7704 -0.3913
36381SOL    HW113828   1.526   6.153   3.480  0.6523  0.5265 -0.0564
36381SOL    HW213829   1.441   6.271   3.521 -0.7269 -0.1808 -0.7984
36382SOL     OW13830   9.039   5.496  10.460 -0.0633 -0.1555 -0.5578
36382SOL    HW113831   8.945   5.505  10.480 -0.2016 -1.1166 -0.7330
36382SOL    HW213832   9.057   5.567  10.399 -0.6486  0.1091 -0.4374
36383SOL     OW13833   8.113   2.984   0.764  0.3031 -0.1359 -0.4826
36383SOL    HW113834   8.046   3.044   0.729  0.0898 -0.4978 -0.7072
36383SOL    HW213835   8.156   3.034   0.833 -0.2252  0.0894 -0.3112
36384SOL     OW13836   6.700   5.496   5.511  0.3011  0.2174  0.0783
36384SOL    HW113837   6.685   5.522   5.420  0.2015  1.0280  0.3235
36384SOL    HW213838   6.712   5.401   5.506  0.8667  0.3146 -0.8558
36385SOL     OW13839   5.555   9.848   6.346  0.4408 -0.0359 -0.2248
36385SOL    HW113840   5.627   9.850   6.410  0.0581  1.4925  0.2046
36385SOL    HW213841   5.555   9.936   6.308 -2.3154  0.6444  1.0829
36386SOL     OW13842   9.933   1.608   2.063  0.7096  1.2558  0.0471
36386SOL    HW113843   9.902   1.698   2.074  1.0768  1.2493  1.3654
36386SOL    HW213844  10.014   1.605   2.113  0.1811 -0.0602  0.8706
36387SOL     OW13845   2.398  11.880   6.654  0.3401  0.2278  0.3652
36387SOL    HW113846   2.307  11.856   6.638 -0.2182  2.3681 -0.0386
36387SOL    HW213847   2.437  11.802   6.694 -1.8792 -0.4731  1.3294
36388SOL     OW13848   7.608   1.557   7.600 -0.1083  0.3686 -0.2145
36388SOL    HW113849   7.579   1.562   7.691 -2.9200  1.4811 -1.0675
36388SOL    HW213850   7.672   1.629   7.592 -0.1379  0.5189  0.7767
36389SOL     OW13851  10.093   4.751   4.198 -0.4755  0.4752  0.1640
36389SOL    HW113852  10.024   4.797   4.149 -0.8889  0.6020  0.8399
36389SOL    HW213853  10.066   4.760   4.289 -0.7114 -1.3621  0.2978
36390SOL     OW13854   6.386   9.926   3.802 -0.0963 -0.0734  0.4910
36390SOL    HW113855   6.467   9.954   3.759 -1.5207  0.7756 -1.8313
36390SOL    HW213856   6.338   9.877   3.735 -0.7503 -2.1698  2.3800
36391SOL     OW13857   5.009  11.435   3.794 -0.2457  0.0017  0.1960
36391SOL    HW113858   4.965  11.408   3.874 -1.7167  0.6529 -0.3599
36391SOL    HW213859   5.100  11.409   3.807 -0.1324  1.2761  2.6610
36392SOL     OW13860   8.575  10.271   6.257 -0.0813 -0.1572  0.2122
36392SOL    HW113861   8.601  10.337   6.321  1.2770 -0.3172 -0.1517
36392SOL    HW213862   8.654  10.255   6.205 -0.2754 -2.2903  0.4853
36393SOL     OW13863   9.744   4.448   7.140 -0.7073 -0.4367  0.2621
36393SOL    HW113864   9.701   4.487   7.064  0.8577  0.6290 -0.1197
36393SOL    HW213865   9.766   4.523   7.195  3.0392 -0.5485 -0.8208
36394SOL     OW13866   6.292   4.674   7.049  0.0105 -0.0434 -0.4270
36394SOL    HW113867   6.286   4.589   7.004  0.3493  0.3562 -1.2426
36394SOL    HW213868   6.235   4.664   7.126 -1.2380 -0.4730 -1.3616
36395SOL     OW13869  11.841   7.418   7.011  0.5017  0.0224  0.1002
36395SOL    HW113870  11.784   7.418   6.934  3.3578 -0.9513 -2.2307
36395SOL    HW213871  11.854   7.325   7.031  0.0032  0.2649  1.6454
36396SOL     OW13872   7.246   6.055   8.176 -1.0048 -0.2870 -0.1159
36396SOL    HW113873   7.223   6.025   8.264  0.4143  1.2460  0.8385
36396SOL    HW213874   7.342   6.060   8.176 -1.0382  1.4478 -1.1172
36397SOL     OW13875  11.428   9.440  11.976  0.1703  0.5380  0.3017
36397SOL    HW113876  11.458   9.363  11.928 -0.2436  1.6660 -1.9106
36397SOL    HW213877  11.402   9.406  12.062  0.0762 -1.7577 -0.5553
36398SOL     OW13878   6.738   3.208   5.454 -0.1143  0.0999  0.0417
36398SOL    HW113879   6.794   3.274   5.495  1.4100 -0.4689 -1.0619
36398SOL    HW213880   6.770   3.124   5.487 -0.9749 -0.2050  0.1553
36399SOL     OW13881  10.047   7.761   1.548  0.0099 -0.3792  0.2365
36399SOL    HW113882  10.141   7.739   1.544  0.4221  1.1578  0.8111
36399SOL    HW213883  10.038   7.811   1.629 -1.7815 -2.4796  1.4459
36400SOL     OW13884   7.235   3.757   3.479 -0.0902  0.7698  0.0040
36400SOL    HW113885   7.189   3.781   3.559 -0.2411  1.4789 -0.2860
36400SOL    HW213886   7.303   3.824   3.470  1.2909 -0.4846  0.6529
36401SOL     OW13887   1.783   7.816   5.996  0.2151 -0.2639  0.3677
36401SOL    HW113888   1.755   7.869   5.921  0.5362 -0.3910  0.1558
36401SOL    HW213889   1.868   7.853   6.021  0.2193 -0.3744  0.5184
36402SOL     OW13890   3.503   7.059   4.562  0.0940  0.4312  0.4000
36402SOL    HW113891   3.494   7.045   4.656  0.1344  0.3038  0.3854
36402SOL    HW213892   3.413   7.065   4.530  0.0551 -0.5453  0.2987
36403SOL     OW13893   2.712   6.007   7.845  0.1381 -1.0484  0.2349
36403SOL    HW113894   2.695   5.936   7.783  0.1754 -0.1767 -0.7971
36403SOL    HW213895   2.803   6.032   7.829 -0.8108  1.4721 -1.8402
36404SOL     OW13896   6.607   6.968   8.785 -0.1385  0.1924  0.6524
36404SOL    HW113897   6.650   7.048   8.754 -1.8162  2.1643  3.0554
36404SOL    HW213898   6.601   6.979   8.880 -2.1716 -1.9283  0.8658
36405SOL     OW13899   9.278   9.638   1.343 -0.5988  0.1427  0.0375
36405SOL    HW113900   9.367   9.665   1.322 -0.2900 -1.5967 -1.1484
36405SOL    HW213901   9.266   9.662   1.435  1.8768 -1.4695  0.8884
36406SOL     OW13902   1.931  11.749   7.739  0.2379 -0.0206  0.4926
36406SOL    HW113903   1.956  11.657   7.743  0.4794  0.0511  0.6844
36406SOL    HW213904   1.934  11.779   7.830 -0.0766  0.1146  0.4591
36407SOL     OW13905   4.109   3.464   6.964  0.0738  0.2142 -0.2470
36407SOL    HW113906   4.135   3.550   6.929  1.3186  0.0467  0.1946
36407SOL    HW213907   4.128   3.470   7.058  1.9538 -1.1360 -0.4850
36408SOL     OW13908   6.357   5.231  11.487 -0.0496  0.0466  0.4460
36408SOL    HW113909   6.316   5.177  11.555  1.2089  0.0380  1.2266
36408SOL    HW213910   6.357   5.319  11.522  0.8614 -0.0031  0.5987
36409SOL     OW13911   9.039   5.824   4.253 -0.1325  0.0118 -0.1252
36409SOL    HW113912   8.949   5.793   4.265 -0.4476  1.6182  2.4281
36409SOL    HW213913   9.037   5.871   4.169 -1.3311 -1.0066 -0.7009
36410SOL     OW13914   8.747  10.464   4.606 -0.1284  0.1977 -0.2166
36410SOL    HW113915   8.750  10.469   4.702 -1.3547 -1.0577 -0.0854
36410SOL    HW213916   8.824  10.513   4.577  1.1489 -0.7395  1.4553
36411SOL     OW13917   0.418   3.727  11.018 -0.1592 -0.5755  0.1586
36411SOL    HW113918   0.390   3.767  10.936 -0.4062  1.3898  1.1425
36411SOL    HW213919   0.491   3.671  10.994 -0.3308 -0.1602 -1.4306
36412SOL     OW13920   2.142   9.370  11.605 -0.5130  0.1993  0.3161
36412SOL    HW113921   2.165   9.325  11.686 -3.8920  0.3222  1.4690
36412SOL    HW213922   2.125   9.460  11.631 -1.0104  0.4031 -0.6485
36413SOL     OW13923   8.431   0.891   0.614  0.2337  0.0120  0.1581
36413SOL    HW113924   8.498   0.947   0.574 -0.2872  0.3334 -0.2758
36413SOL    HW213925   8.479   0.813   0.641  1.0806  0.8935  1.3024
36414SOL     OW13926   2.781  11.806   2.500 -0.0290 -0.3953 -0.6995
36414SOL    HW113927   2.737  11.724   2.478 -0.0249 -0.0824 -1.9472
36414SOL    HW213928   2.872  11.780   2.516 -0.4444 -0.9214  1.0500
36415SOL     OW13929   7.122   2.203   9.277 -0.5769 -0.1164  0.0355
36415SOL    HW113930   7.049   2.144   9.298 -0.1590 -0.5913  0.1643
36415SOL    HW213931   7.173   2.156   9.211 -0.6097  0.3951 -0.3661
36416SOL     OW13932   7.625   2.580   8.556 -0.0093  0.1222 -0.0636
36416SOL    HW113933   7.678   2.657   8.537 -0.3299  0.1184 -1.0250
36416SOL    HW213934   7.535   2.609   8.546 -0.1608 -1.1151 -3.9420
36417SOL     OW13935   7.689   8.482   2.039 -0.0229 -0.4062  0.1781
36417SOL    HW113936   7.673   8.573   2.012 -0.3384 -0.2469  0.8888
36417SOL    HW213937   7.631   8.430   1.984 -1.8853  0.0388  1.6393
36418SOL     OW13938   1.626   6.079  10.539 -0.4057  0.1903  0.1959
36418SOL    HW113939   1.712   6.107  10.569 -0.5449  0.9795 -0.1044
36418SOL    HW213940   1.608   5.999  10.588  1.4193 -1.2319 -1.3449
36419SOL     OW13941  11.040   5.489   3.069 -0.2111  0.4033  0.2297
36419SOL    HW113942  11.122   5.538   3.061  0.0106  0.2143  1.2115
36419SOL    HW213943  10.982   5.528   3.004  1.2051 -0.6157 -1.7612
36420SOL     OW13944   5.213   3.396  11.076  0.3475 -0.4382 -0.0627
36420SOL    HW113945   5.131   3.347  11.072 -0.3104  0.5486  0.8107
36420SOL    HW213946   5.213   3.447  10.995 -0.7869  0.8590  0.7008
36421SOL     OW13947   9.413   5.772   3.807 -0.3415  0.0337 -0.1114
36421SOL    HW113948   9.338   5.734   3.851  0.1742 -1.9516 -0.8629
36421SOL    HW213949   9.485   5.710   3.823  0.4228  0.4453 -1.7571
36422SOL     OW13950   4.360   8.840   5.811  0.2335 -0.4964  0.4876
36422SOL    HW113951   4.399   8.857   5.725  0.3506 -0.4031  0.5597
36422SOL    HW213952   4.426   8.790   5.858  1.4939  2.1110  1.6569
36423SOL     OW13953  11.660   5.904   0.852 -0.4571 -0.1538 -0.0507
36423SOL    HW113954  11.704   5.928   0.934 -1.1985  0.4454  0.1851
36423SOL    HW213955  11.732   5.881   0.793  0.3266  2.1564 -0.1353
36424SOL     OW13956   6.471   7.439   6.670  0.1960  0.4124  0.6836
36424SOL    HW113957   6.406   7.374   6.697  0.7117 -0.1621  0.5510
36424SOL    HW213958   6.456   7.449   6.576  1.0666 -0.6070  0.4166
36425SOL     OW13959   5.711   6.738   5.717  0.1183  0.1483  0.2780
36425SOL    HW113960   5.698   6.694   5.633 -0.0575  0.1590  0.2984
36425SOL    HW213961   5.626   6.732   5.760  0.0234  0.7209  0.1780
36426SOL     OW13962   2.868   5.347   5.179  0.1444 -0.2680  0.2396
36426SOL    HW113963   2.896   5.395   5.256  0.5138 -0.0542 -0.0252
36426SOL    HW213964   2.912   5.390   5.106 -0.0581 -0.5810 -0.0728
36427SOL     OW13965   9.218  11.464   1.970 -0.0299 -0.1590 -0.5594
36427SOL    HW113966   9.191  11.372   1.975  1.0313 -0.4632 -0.1832
36427SOL    HW213967   9.237  11.488   2.060  1.1048 -0.0211 -0.8138
36428SOL     OW13968   3.550  10.352   4.384 -0.2483  0.1787  0.3103
36428SOL    HW113969   3.623  10.290   4.376  0.1663  0.3178  2.4654
36428SOL    HW213970   3.511  10.354   4.296  1.7217 -0.6314 -0.6541
36429SOL     OW13971  10.141   3.318   2.157 -0.0016  0.1377 -0.0797
36429SOL    HW113972  10.221   3.283   2.118  0.2143  0.1082  0.3787
36429SOL    HW213973  10.101   3.242   2.200  0.3123  0.3865  0.6590
36430SOL     OW13974   5.177   7.238   2.805  0.5826  0.0334 -0.1583
36430SOL    HW113975   5.202   7.206   2.718  0.2596 -0.8665  0.0707
36430SOL    HW213976   5.260   7.248   2.852  0.6985 -0.3202 -0.2865
36431SOL     OW13977   9.834   4.688   7.658 -0.3830 -0.1338 -0.4699
36431SOL    HW113978   9.900   4.726   7.716 -0.1505  0.4000 -1.0674
36431SOL    HW213979   9.872   4.605   7.629  0.0381  0.1795 -0.8234
36432SOL     OW13980   9.814  11.782   3.879  0.1033  0.1167  0.3784
36432SOL    HW113981   9.789  11.857   3.825 -3.5930 -0.6175  0.8587
36432SOL    HW213982   9.776  11.707   3.835  2.9003 -1.4886  0.4404
36433SOL     OW13983   2.862   1.939   1.610  0.3402  0.2153 -0.7731
36433SOL    HW113984   2.947   1.943   1.567 -0.1844  1.6469 -1.7442
36433SOL    HW213985   2.803   1.906   1.542 -0.0716  0.1903 -0.4044
36434SOL     OW13986   0.354   8.286   6.742 -0.4239  0.8737  0.4965
36434SOL    HW113987   0.285   8.324   6.796 -2.0713  0.5668 -1.2868
36434SOL    HW213988   0.335   8.316   6.653  1.6299  0.5747 -0.0998
36435SOL     OW13989   3.002   5.048   9.052  0.5672 -0.1047  0.0704
36435SOL    HW113990   3.062   5.050   9.126  0.3753  2.3670  0.2555
36435SOL    HW213991   3.049   5.000   8.984  1.8063 -0.1712  0.9425
36436SOL     OW13992   9.455   8.673   1.787  0.2278 -0.0647  0.9165
36436SOL    HW113993   9.381   8.718   1.747  1.9040  0.2171 -2.0970
36436SOL    HW213994   9.524   8.739   1.793  1.4071 -1.1879  0.2576
36437SOL     OW13995   4.964  11.029   7.859  0.1443 -0.0165 -0.7515
36437SOL    HW113996   5.027  11.011   7.789  0.9666  0.1002 -0.0636
36437SOL    HW213997   4.972  11.123   7.876  1.2658 -0.3414  0.6983
36438SOL     OW13998   3.988  11.004   6.205 -0.0519  0.6196  0.3408
36438SOL    HW113999   4.061  11.062   6.185  0.1003  0.4409  0.3696
36438SOL    HW214000   4.028  10.917   6.212 -0.1216  0.6623  1.3012
36439SOL     OW14001   5.963   6.379  11.233  0.1226 -0.2398 -0.2198
36439SOL    HW114002   5.892   6.412  11.178 -0.1112  1.2037  0.8911
36439SOL    HW214003   5.920   6.324  11.298 -0.3025  2.0896  1.5956
36440SOL     OW14004  10.905   0.992   0.990  0.0182 -0.1047  0.4924
36440SOL    HW114005  10.949   0.983   0.905  2.0399  1.0390  1.3337
36440SOL    HW214006  10.836   1.056   0.975 -0.0596 -0.3842 -0.4186
36441SOL     OW14007  10.395   5.292   8.562 -0.5295 -0.0623 -0.4062
36441SOL    HW114008  10.318   5.249   8.601  0.3320 -0.1702  1.2585
36441SOL    HW214009  10.426   5.351   8.629  0.6102  0.2969 -1.2228
36442SOL     OW14010   8.952   1.317   8.308  0.6076  0.2679 -0.3941
36442SOL    HW114011   8.880   1.257   8.289 -0.5089  1.3872  0.1658
36442SOL    HW214012   8.913   1.404   8.301  1.3182  0.8716  2.1215
36443SOL     OW14013   1.014   0.064   9.992  0.3127  0.2305 -0.0623
36443SOL    HW114014   0.932   0.016   9.998 -0.3446  1.2011 -0.9263
36443SOL    HW214015   1.079  -0.002   9.970 -0.1678 -0.6027  0.9920
36444SOL     OW14016   1.011  10.368   1.403  0.4416 -0.3636 -0.6082
36444SOL    HW114017   0.993  10.460   1.419  0.3015 -0.7300  1.7230
36444SOL    HW214018   1.088  10.348   1.457 -0.4335 -1.9318  0.1441
36445SOL     OW14019   0.655   2.800   8.756 -1.0412  0.0737  1.1085
36445SOL    HW114020   0.678   2.739   8.826  1.3107 -0.7373 -0.2794
36445SOL    HW214021   0.575   2.843   8.787 -0.7755 -1.1434  3.7077
36446SOL     OW14022   5.112   1.023  11.639 -0.0438  0.5389  0.0036
36446SOL    HW114023   5.173   1.078  11.690 -0.0494 -0.5122  1.2123
36446SOL    HW214024   5.026   1.061  11.656  0.1445  1.3323 -0.7690
36447SOL     OW14025   4.286   7.242   2.212  0.0629 -0.0594  0.6332
36447SOL    HW114026   4.289   7.335   2.190  0.3826 -0.0378  0.7630
36447SOL    HW214027   4.306   7.238   2.305  0.0336 -0.2550  0.6316
36448SOL     OW14028   2.556   6.829   9.290  0.5110 -0.0271  0.3477
36448SOL    HW114029   2.548   6.804   9.198  0.9456  1.0972 -0.0063
36448SOL    HW214030   2.613   6.906   9.289  0.2968  0.1600  1.5346
36449SOL     OW14031   9.031   5.151   3.859 -0.0299 -0.3612  0.5372
36449SOL    HW114032   8.947   5.184   3.889 -0.8191 -1.8234  0.0647
36449SOL    HW214033   9.009   5.094   3.785  1.4671 -0.0474 -0.1767
36450SOL     OW14034   2.037  11.978   0.736 -0.0031  0.1845 -0.5508
36450SOL    HW114035   1.963  12.031   0.764  1.2252  0.6642  2.1304
36450SOL    HW214036   2.024  11.894   0.779  0.4928 -0.0694 -0.8886
36451SOL     OW14037  11.227   3.044   7.049  0.1918 -0.1305 -0.6655
36451SOL    HW114038  11.213   3.013   6.959  2.4667  0.3980 -1.2864
36451SOL    HW214039  11.290   2.981   7.086  0.3907  0.4794  0.0468
36452SOL     OW14040  10.680   1.470   8.595 -0.2998  0.4622  0.1449
36452SOL    HW114041  10.733   1.443   8.670  1.4516  0.6557 -0.9931
36452SOL    HW214042  10.671   1.565   8.604  0.6431  0.6002 -0.3520
36453SOL     OW14043   8.353   2.753   4.536 -0.1729  0.1354  0.0068
36453SOL    HW114044   8.423   2.688   4.539  0.7987  1.1794  0.6784
36453SOL    HW214045   8.351   2.782   4.445 -1.1295 -1.3409 -0.4802
36454SOL     OW14046  10.121   4.392   4.026  0.3296 -0.5127 -0.1589
36454SOL    HW114047  10.125   4.306   3.984  2.3629 -0.8750  0.6091
36454SOL    HW214048  10.089   4.374   4.114 -2.3380  0.0146 -0.9558
36455SOL     OW14049  11.014   3.303   1.245 -0.4618 -0.2250  0.0880
36455SOL    HW114050  11.010   3.221   1.295 -0.2036 -0.7854 -0.7993
36455SOL    HW214051  10.940   3.297   1.184 -1.3237  0.8560  0.9805
36456SOL     OW14052   4.063   0.758   4.222  0.3338  0.4105  0.2452
36456SOL    HW114053   4.117   0.795   4.152  1.1847 -1.1060  0.0512
36456SOL    HW214054   4.091   0.805   4.301  1.3974  0.1957  0.0142
36457SOL     OW14055   1.053   9.766   4.945 -0.1478 -0.1921 -0.2636
36457SOL    HW114056   0.975   9.783   4.891 -1.0607 -1.1173  0.7170
36457SOL    HW214057   1.083   9.680   4.917  0.7041  0.2809 -0.8301
36458SOL     OW14058   0.920   9.082  10.985  0.0742 -0.2073  0.2790
36458SOL    HW114059   0.961   9.007  10.943 -1.8467 -0.4923 -1.2735
36458SOL    HW214060   0.986   9.151  10.981  1.2685 -1.3124  0.1898
36459SOL     OW14061   2.576   5.263   7.007 -0.3673  0.0996  0.0759
36459SOL    HW114062   2.615   5.177   7.026 -1.4630 -0.1934  1.2145
36459SOL    HW214063   2.621   5.323   7.066 -0.0059  0.2003 -0.3019
36460SOL     OW14064   3.804   5.643   7.278  0.8507  0.1129  0.2472
36460SOL    HW114065   3.891   5.655   7.315  1.4722 -2.5556 -0.1999
36460SOL    HW214066   3.783   5.552   7.294 -1.9160  0.6952  0.3628
36461SOL     OW14067   8.576   4.866   8.910  0.0119  0.1828  0.2168
36461SOL    HW114068   8.512   4.844   8.978  2.2816 -0.3054  2.3200
36461SOL    HW214069   8.602   4.956   8.930  1.0428 -0.1252  0.3522
36462SOL     OW14070   3.600  10.592   8.751  0.0930  0.3796 -1.1236
36462SOL    HW114071   3.686  10.555   8.732  0.9602 -0.0269  2.6993
36462SOL    HW214072   3.554  10.523   8.799 -1.3831  1.5076 -0.8357
36463SOL     OW14073   4.030   8.077   7.686 -0.3067 -0.4163 -0.5019
36463SOL    HW114074   4.064   8.018   7.753  0.2268 -1.8950 -2.0068
36463SOL    HW214075   4.106   8.126   7.655 -0.0217 -1.6281 -1.8199
36464SOL     OW14076   8.051  10.487   1.133 -0.0044  0.3105  0.3935
36464SOL    HW114077   8.134  10.521   1.098  0.0187  0.8960  0.9942
36464SOL    HW214078   8.003  10.459   1.055  1.6771 -2.2628  0.1655
36465SOL     OW14079   9.328   0.429   2.580  0.1181 -0.3346 -0.1053
36465SOL    HW114080   9.333   0.368   2.506  2.3636  0.4383 -0.6694
36465SOL    HW214081   9.352   0.378   2.656  0.6386 -0.4892 -0.3692
36466SOL     OW14082   2.095   3.171  10.608  0.3350  0.3517  1.2178
36466SOL    HW114083   2.171   3.134  10.563 -2.1830 -2.5294 -1.1853
36466SOL    HW214084   2.107   3.146  10.700  1.1718 -2.3257  0.4739
36467SOL     OW14085   7.518  11.223   1.035 -0.2047  0.2952 -0.5114
36467SOL    HW114086   7.496  11.136   1.001  0.0749 -0.1092  0.3306
36467SOL    HW214087   7.441  11.248   1.087  0.1411  0.0937  0.1080
36468SOL     OW14088   0.833   4.580   9.776  0.1348 -0.2655  0.8071
36468SOL    HW114089   0.832   4.629   9.858 -2.3583  0.9332  0.1703
36468SOL    HW214090   0.798   4.642   9.712  0.8367 -1.5877 -0.9165
36469SOL     OW14091  10.911  10.303  10.962 -0.0377 -0.3993 -0.7031
36469SOL    HW114092  10.892  10.235  11.027  1.7802  0.2824  0.6096
36469SOL    HW214093  11.006  10.304  10.955  0.0432  2.3772 -0.2431
36470SOL     OW14094   3.101  10.422   5.414 -0.5636  0.6922  0.0512
36470SOL    HW114095   3.155  10.501   5.420 -0.4123  0.5520  0.6809
36470SOL    HW214096   3.022  10.443   5.465  0.8467 -0.6268  3.0526
36471SOL     OW14097   4.080   7.280   3.306  0.3848 -0.2805 -0.3173
36471SOL    HW114098   4.121   7.332   3.375  1.3380 -1.1709 -0.1939
36471SOL    HW214099   4.150   7.261   3.244 -0.3868  0.2260 -1.3899
36472SOL     OW14100   1.712   5.411   3.278 -0.6109 -0.3039 -0.3521
36472SOL    HW114101   1.644   5.344   3.267 -2.0535  1.0037  0.1789
36472SOL    HW214102   1.761   5.410   3.196 -3.0608  0.5967 -1.9538
36473SOL     OW14103   8.952   2.262   4.002 -0.1306 -0.1888  0.1335
36473SOL    HW114104   8.921   2.185   4.050 -0.2218  0.0507  0.4577
36473SOL    HW214105   9.000   2.225   3.927  0.3655 -0.5700  0.6278
36474SOL     OW14106  11.335   3.793   5.689  0.4075  0.6241 -0.6705
36474SOL    HW114107  11.265   3.852   5.659  0.9095  1.0210 -1.0737
36474SOL    HW214108  11.350   3.819   5.780  0.6943  1.1876 -0.8755
36475SOL     OW14109   1.394  10.197   5.320 -0.6186  0.3804  0.3481
36475SOL    HW114110   1.376  10.103   5.316  0.1664  0.1505  1.5221
36475SOL    HW214111   1.483  10.202   5.356  0.1996  1.5284 -1.6677
36476SOL     OW14112   5.780   2.361   5.245  0.2474  0.1978  0.5303
36476SOL    HW114113   5.852   2.417   5.215  0.5552 -0.8219 -0.7172
36476SOL    HW214114   5.804   2.273   5.216 -1.6807 -0.1169 -0.2899
36477SOL     OW14115   6.888   9.964  11.726 -0.0288  0.1900  0.1272
36477SOL    HW114116   6.821   9.963  11.794 -0.7755 -0.6455 -0.5948
36477SOL    HW214117   6.870  10.043  11.675  0.0232  0.3737  0.3876
36478SOL     OW14118   9.332   0.059   9.537  0.0900  0.5007  0.1164
36478SOL    HW114119   9.312  -0.006   9.605 -0.7501  1.3203  0.6898
36478SOL    HW214120   9.425   0.047   9.519 -0.0753 -0.9425  0.1096
36479SOL     OW14121  11.797   3.486   7.509  0.1677 -0.0572  0.1805
36479SOL    HW114122  11.760   3.447   7.430 -0.1659 -0.0283  0.3201
36479SOL    HW214123  11.749   3.568   7.520  0.0099 -0.2006  0.5733
36480SOL     OW14124   4.068   2.199   2.085  0.4590  0.5291  0.0335
36480SOL    HW114125   4.002   2.137   2.115  1.5319 -1.1016 -0.8163
36480SOL    HW214126   4.124   2.213   2.161 -0.3580  1.3062  0.5233
36481SOL     OW14127   1.911   3.166   7.147 -0.0124 -0.3985  0.4839
36481SOL    HW114128   1.916   3.248   7.098  1.4601 -0.8866 -0.2103
36481SOL    HW214129   1.994   3.161   7.195  1.5211 -3.0788 -2.1193
36482SOL     OW14130   4.558   7.026   9.846 -0.6222  0.2429  0.6447
36482SOL    HW114131   4.632   6.984   9.804 -0.1772  0.0965  1.5584
36482SOL    HW214132   4.481   6.982   9.809 -0.3057  0.7695 -0.7210
36483SOL     OW14133  11.454   7.760   5.233 -0.1120  0.1807 -0.5148
36483SOL    HW114134  11.360   7.759   5.248  0.1971 -2.1103  2.0366
36483SOL    HW214135  11.489   7.812   5.306  0.7128 -0.5618 -0.3665
36484SOL     OW14136   7.915   0.612   5.746 -0.5446  0.2009  0.0325
36484SOL    HW114137   7.895   0.585   5.836  0.4679 -1.0756 -0.1019
36484SOL    HW214138   7.833   0.600   5.698 -0.8351 -0.0131  0.5732
36485SOL     OW14139   3.753   8.900   6.954 -0.3178  0.0124 -0.1824
36485SOL    HW114140   3.773   8.938   7.039  0.3156 -1.2928  0.2779
36485SOL    HW214141   3.785   8.965   6.891  0.5333  0.3494  0.5721
36486SOL     OW14142   4.236   3.475   1.130 -0.6040  0.7067  0.3450
36486SOL    HW114143   4.161   3.532   1.141 -1.9189 -0.8037 -0.3887
36486SOL    HW214144   4.199   3.386   1.129  0.9799 -0.0082 -1.5198
36487SOL     OW14145   5.224   9.244   8.500  0.0126  0.3637  0.2056
36487SOL    HW114146   5.320   9.236   8.499 -0.0349 -0.2571  0.3261
36487SOL    HW214147   5.203   9.274   8.588  0.1788  1.7030 -0.1894
36488SOL     OW14148   6.049   1.446   5.561 -0.0896 -0.3032  0.1096
36488SOL    HW114149   6.037   1.511   5.491  1.2506  0.4121  0.5073
36488SOL    HW214150   6.143   1.445   5.576  0.0921 -3.1263 -0.5983
36489SOL     OW14151   2.792   5.545   4.655  0.3276 -0.0482  0.5867
36489SOL    HW114152   2.833   5.525   4.740  0.3020  0.9863  0.8575
36489SOL    HW214153   2.866   5.553   4.595  0.5761  1.7495  1.0615
36490SOL     OW14154   6.396  11.329  10.321 -0.1050 -0.2432 -0.3796
36490SOL    HW114155   6.428  11.375  10.244 -1.4422 -0.4026 -1.0528
36490SOL    HW214156   6.375  11.241  10.290  0.9551 -0.8705  0.5632
36491SOL     OW14157  11.564   5.202   5.308  0.1469 -0.4627 -0.4799
36491SOL    HW114158  11.608   5.236   5.385 -1.9948  1.2523  0.1242
36491SOL    HW214159  11.479   5.170   5.340 -1.9808  2.7443 -2.2637
36492SOL     OW14160   3.158   9.246   8.158 -0.1590 -0.2109 -0.1732
36492SOL    HW114161   3.122   9.207   8.238 -0.2473  0.3613  0.0730
36492SOL    HW214162   3.115   9.199   8.087 -1.2613  0.3254  0.1158
36493SOL     OW14163  10.221   4.051   8.476 -0.0643 -0.5476  0.1060
36493SOL    HW114164  10.295   4.105   8.502 -0.8925  0.8174 -0.2420
36493SOL    HW214165  10.200   4.080   8.387 -1.1764 -0.7022  0.2981
36494SOL     OW14166   2.192   9.282   4.802 -0.7193  0.1320 -0.3020
36494SOL    HW114167   2.274   9.258   4.846 -0.7557  1.7979  0.7649
36494SOL    HW214168   2.130   9.215   4.828 -0.3934  0.3653  1.2082
36495SOL     OW14169   0.793  11.958  11.260  0.5416  0.0447 -0.3266
36495SOL    HW114170   0.854  12.007  11.204  1.0292 -0.0882  0.0837
36495SOL    HW214171   0.845  11.886  11.294 -0.1941 -0.8106 -0.9886
36496SOL     OW14172   6.567   0.275   1.594 -0.4304 -0.3795  0.2655
36496SOL    HW114173   6.516   0.263   1.674 -1.0806  2.2672  0.3144
36496SOL    HW214174   6.653   0.304   1.625  0.1430 -1.7500  0.0458
36497SOL     OW14175   1.082   4.909   0.136 -0.7186 -0.2643  0.0321
36497SOL    HW114176   1.030   4.938   0.212 -1.2430 -0.1309 -0.3719
36497SOL    HW214177   1.041   4.826   0.110 -1.2134  0.2050 -0.7440
36498SOL     OW14178  11.309   6.483   6.756  0.3625 -0.5121 -0.0870
36498SOL    HW114179  11.324   6.460   6.848 -1.2494  0.6843  0.5166
36498SOL    HW214180  11.238   6.426   6.728  0.1676 -0.1792 -0.2793
36499SOL     OW14181   2.923   7.281   5.897 -0.1159  0.1670  0.2812
36499SOL    HW114182   2.844   7.234   5.873 -0.4193  1.9837 -2.8050
36499SOL    HW214183   2.987   7.257   5.830 -0.0452  3.3601 -0.9834
36500SOL     OW14184   7.315   2.388   2.280  0.1939 -0.2494 -0.7376
36500SOL    HW114185   7.347   2.358   2.195  1.8280  0.1742 -0.3165
36500SOL    HW214186   7.250   2.455   2.259 -0.8861 -1.5312 -1.6449
36501SOL     OW14187   2.677   9.493   5.926 -0.1508  0.1688  0.3856
36501SOL    HW114188   2.743   9.528   5.867  0.2874  0.1503  0.8525
36501SOL    HW214189   2.669   9.401   5.903 -1.2151  0.5306 -0.7638
36502SOL     OW14190   1.997   8.682   0.073  0.4654 -0.1557  0.2808
36502SOL    HW114191   1.994   8.605   0.130 -0.8083  0.5840  1.2402
36502SOL    HW214192   1.909   8.690   0.037  0.7040  0.6011 -0.1709
36503SOL     OW14193  10.697   5.442   5.153  0.5761 -0.1058 -0.0170
36503SOL    HW114194  10.662   5.427   5.064  0.6745 -0.2935 -0.0243
36503SOL    HW214195  10.766   5.506   5.141 -0.7294  1.3951  0.1884
36504SOL     OW14196   8.647   3.091   2.339  0.2826 -0.1116 -0.3487
36504SOL    HW114197   8.594   3.150   2.392 -0.4990 -1.5228  0.4833
36504SOL    HW214198   8.650   3.010   2.389  1.1793 -0.8477 -1.5512
36505SOL     OW14199  11.878   0.567   6.781  0.0193  0.0014  0.3026
36505SOL    HW114200  11.854   0.480   6.751  0.6416  0.1324 -0.6041
36505SOL    HW214201  11.905   0.614   6.702 -0.3501  1.0337  0.7661
36506SOL     OW14202   7.105   7.047   7.191 -0.0638 -0.4167 -0.2293
36506SOL    HW114203   7.163   7.116   7.158  1.3349 -0.8158  1.2565
36506SOL    HW214204   7.161   6.995   7.249 -1.3233 -2.2561 -0.5937
36507SOL     OW14205   8.649   1.236   6.116  0.2557  0.3030  0.0511
36507SOL    HW114206   8.598   1.161   6.147 -1.2304  1.0858 -0.4037
36507SOL    HW214207   8.739   1.205   6.117 -0.4122 -1.9276 -1.2635
36508SOL     OW14208   9.248   9.998   7.048 -0.1798  0.0203  0.5131
36508SOL    HW114209   9.342   9.987   7.058 -0.2293 -0.0050  0.9630
36508SOL    HW214210   9.234  10.092   7.051 -0.1932  0.0135  0.6711
36509SOL     OW14211   5.970   8.923   1.661 -0.4557 -0.2900  0.3562
36509SOL    HW114212   5.949   9.016   1.662 -1.1623 -0.4372 -0.0262
36509SOL    HW214213   5.910   8.886   1.596  1.3443 -0.6448 -1.1931
36510SOL     OW14214   9.328   2.173   7.026  0.0569  0.5286 -0.1861
36510SOL    HW114215   9.327   2.150   6.933 -0.9404  0.4388 -0.1709
36510SOL    HW214216   9.332   2.089   7.071 -0.0062  0.5457 -0.1483
36511SOL     OW14217   7.141   5.155   0.489  0.2060  0.3169 -0.2287
36511SOL    HW114218   7.075   5.100   0.447  1.3543 -0.9377 -0.4401
36511SOL    HW214219   7.091   5.228   0.526 -1.2712 -0.5080 -0.5209
36512SOL     OW14220   7.330  11.666   6.844  0.3669 -0.6587 -0.3316
36512SOL    HW114221   7.324  11.709   6.929  1.8833 -1.2805  0.1179
36512SOL    HW214222   7.377  11.729   6.789 -0.4992 -0.3106 -0.6926
36513SOL     OW14223   9.960  10.060  10.559  0.5309 -0.3669 -0.3442
36513SOL    HW114224   9.918  10.020  10.483  0.6236 -2.5050  0.6645
36513SOL    HW214225  10.042  10.011  10.570  1.1487  0.7794  0.3653
36514SOL     OW14226   8.738   3.239   5.504 -0.0627  0.6082  0.7447
36514SOL    HW114227   8.700   3.224   5.418  2.4404  1.4995 -0.6303
36514SOL    HW214228   8.763   3.152   5.535  1.7566  0.4964 -0.8642
36515SOL     OW14229  10.650  10.175   7.579 -0.0919 -0.4497 -0.9577
36515SOL    HW114230  10.665  10.261   7.539  1.5418 -0.0578  0.4151
36515SOL    HW214231  10.608  10.193   7.662 -2.1245 -1.1845 -1.7562
36516SOL     OW14232   0.567   5.345   2.676  0.2055  0.2007 -0.2482
36516SOL    HW114233   0.569   5.336   2.772  3.0415 -1.3415 -0.3485
36516SOL    HW214234   0.621   5.273   2.644 -0.3001  0.9427 -3.0061
36517SOL     OW14235   5.545  11.925  10.471 -0.2827  0.6765 -0.3842
36517SOL    HW114236   5.608  11.900  10.403  1.9439 -0.4830  1.9157
36517SOL    HW214237   5.586  12.000  10.514 -1.6107  1.3410 -0.2614
36518SOL     OW14238   0.457   8.790   0.541 -0.5735  0.0530 -0.1658
36518SOL    HW114239   0.464   8.722   0.608 -1.6344 -1.8800 -1.9195
36518SOL    HW214240   0.369   8.781   0.505 -0.1364  1.1943 -1.6608
36519SOL     OW14241   9.381   9.063  10.007 -0.4105  0.4158 -0.3979
36519SOL    HW114242   9.436   8.999  10.053 -0.7309  0.0625 -0.5023
36519SOL    HW214243   9.299   9.063  10.055 -0.2179  1.1614 -0.0682
36520SOL     OW14244   2.227  11.912   1.856 -0.2312 -0.4003  0.1126
36520SOL    HW114245   2.296  11.978   1.859 -0.2982 -0.3415  0.3671
36520SOL    HW214246   2.159  11.951   1.801 -0.0437 -0.4764 -0.1761
36521SOL     OW14247  11.623   5.668   8.754 -0.1334  0.3372 -0.2580
36521SOL    HW114248  11.638   5.682   8.661  2.2757 -0.9001 -0.1302
36521SOL    HW214249  11.677   5.735   8.797  0.9351 -0.8007  0.2293
36522SOL     OW14250  10.068   2.958   6.614 -0.3754  0.8563 -0.3214
36522SOL    HW114251   9.998   2.931   6.673  0.1400  1.7892  0.7576
36522SOL    HW214252  10.056   3.052   6.603  1.4705  1.3036  0.9926
36523SOL     OW14253   0.204   6.995   2.959 -0.0418  0.2226 -0.3863
36523SOL    HW114254   0.211   6.988   3.054 -0.5982  0.6079 -0.3112
36523SOL    HW214255   0.247   6.916   2.926  0.6057  0.3417  0.1632
36524SOL     OW14256   1.633   4.288  11.622 -0.0546 -0.6641  0.2725
36524SOL    HW114257   1.720   4.296  11.585 -0.7452 -0.2802 -1.3393
36524SOL    HW214258   1.607   4.197  11.603 -0.3958 -0.4781 -0.1627
36525SOL     OW14259   0.204   2.914  11.776 -0.2403 -0.4996 -0.4287
36525SOL    HW114260   0.137   2.981  11.766  0.4897 -0.0185 -2.5781
36525SOL    HW214261   0.175   2.842  11.721  0.8530 -0.3966 -1.1572
36526SOL     OW14262   9.569   7.370  10.583 -0.3196 -0.4626  0.0881
36526SOL    HW114263   9.636   7.407  10.524 -0.8432  1.2118  0.5085
36526SOL    HW214264   9.583   7.415  10.666 -0.9428 -1.2837  0.6434
36527SOL     OW14265   8.279   0.488   8.261 -0.2575 -0.6327  0.4896
36527SOL    HW114266   8.360   0.444   8.287  1.2540  2.4968  1.6015
36527SOL    HW214267   8.235   0.508   8.343 -1.2707 -0.6742 -0.0226
36528SOL     OW14268   4.513   0.362   3.766 -0.5565 -0.5584 -0.1145
36528SOL    HW114269   4.589   0.340   3.713 -0.4688 -1.1365  0.2476
36528SOL    HW214270   4.472   0.435   3.720  1.5959  1.4797  0.9774
36529SOL     OW14271  10.026   4.800   9.028  0.0414  0.4167  0.5652
36529SOL    HW114272  10.097   4.735   9.031 -1.4907 -1.2844  2.0281
36529SOL    HW214273   9.975   4.783   9.107 -1.8291  1.8217 -0.2789
36530SOL     OW14274  11.789   8.917   5.611  0.7758 -0.4902 -0.0382
36530SOL    HW114275  11.784   8.927   5.706  1.5464 -1.9705  0.1933
36530SOL    HW214276  11.698   8.905   5.583  0.5828 -0.4152  0.5551
36531SOL     OW14277  11.139   6.449   9.944  0.1624 -0.2308 -0.2964
36531SOL    HW114278  11.157   6.510  10.016 -1.2640  0.5554 -0.5697
36531SOL    HW214279  11.091   6.501   9.880  0.0056 -1.3382 -1.1145
36532SOL     OW14280   9.149   4.399  10.388  0.2145 -0.1187 -0.7514
36532SOL    HW114281   9.130   4.316  10.432 -0.7300 -1.0088 -2.7190
36532SOL    HW214282   9.109   4.466  10.444  2.9396 -0.6391  2.0906
36533SOL     OW14283   7.639   8.826   1.707 -0.3302  0.1740  0.0597
36533SOL    HW114284   7.669   8.917   1.711 -1.1468  0.4138  1.3151
36533SOL    HW214285   7.544   8.833   1.693 -0.5872 -0.4352  1.3408
36534SOL     OW14286   2.879   5.735   1.707  0.3068  0.2575  0.9733
36534SOL    HW114287   2.805   5.689   1.668 -0.3982  2.7707 -0.9457
36534SOL    HW214288   2.848   5.762   1.793 -0.2104 -0.5356  1.0407
36535SOL     OW14289  10.910   4.396   3.982  1.0582  0.0760 -0.3843
36535SOL    HW114290  10.927   4.322   4.040  1.3088  0.7673  0.4482
36535SOL    HW214291  10.831   4.372   3.934  1.5875 -1.0716 -0.7210
36536SOL     OW14292  10.945   4.566   3.566 -0.2520 -0.1651  0.1885
36536SOL    HW114293  10.860   4.545   3.527  0.4595 -2.0832 -0.4505
36536SOL    HW214294  10.959   4.658   3.546 -2.2676  0.2372  0.5009
36537SOL     OW14295   2.270   0.980   5.644 -0.3248  0.5899  0.3626
36537SOL    HW114296   2.307   1.066   5.667 -0.5420  0.8702 -0.2983
36537SOL    HW214297   2.258   0.936   5.727 -0.0049  1.1258  0.6973
36538SOL     OW14298   0.359   8.513   3.449 -0.5175 -0.0674  0.2506
36538SOL    HW114299   0.284   8.560   3.486 -0.5650 -0.2722  0.4219
36538SOL    HW214300   0.339   8.505   3.356 -1.8526 -2.1725  0.6491
36539SOL     OW14301   2.766   2.671   1.092  0.1078  0.5715  0.1807
36539SOL    HW114302   2.735   2.732   1.159 -1.2692 -0.6605  0.7033
36539SOL    HW214303   2.691   2.615   1.073  1.4019 -1.1759 -0.0620
36540SOL     OW14304   6.510   9.640   8.380 -0.1014 -0.2347  0.8924
36540SOL    HW114305   6.490   9.560   8.332  0.9777  0.1865 -0.3282
36540SOL    HW214306   6.479   9.710   8.323  2.8442  0.3561 -0.1958
36541SOL     OW14307   4.042   5.097   0.189 -0.2210 -0.2909  0.3443
36541SOL    HW114308   4.016   5.014   0.150  0.7471 -0.7761  0.7196
36541SOL    HW214309   4.137   5.091   0.199 -0.1651  0.7573  0.6213
36542SOL     OW14310   7.416   2.612   7.648 -0.2623 -0.5679  0.7166
36542SOL    HW114311   7.496   2.564   7.665  0.3877  0.2555  0.0973
36542SOL    HW214312   7.359   2.549   7.604  0.1740 -1.0647  0.8568
36543SOL     OW14313   8.889   9.751   6.317 -0.2005 -0.3421 -0.0362
36543SOL    HW114314   8.958   9.695   6.352  0.4532 -0.1416 -0.9848
36543SOL    HW214315   8.903   9.751   6.222  1.1143  3.0293  0.0138
36544SOL     OW14316  10.306   6.527   9.593  0.2236 -0.0143 -0.2672
36544SOL    HW114317  10.226   6.478   9.573  0.0616 -0.0170  0.3661
36544SOL    HW214318  10.307   6.534   9.688  1.3690 -0.6636 -0.2130
36545SOL     OW14319   9.560   8.489   8.929 -0.4116 -0.0678  0.0352
36545SOL    HW114320   9.613   8.501   8.851 -0.7247 -0.0187 -0.1715
36545SOL    HW214321   9.604   8.419   8.977  1.9570  2.4336  1.7348
36546SOL     OW14322  11.611   0.250   8.331  0.3738 -0.1695 -0.0930
36546SOL    HW114323  11.654   0.297   8.403 -4.3228  1.6849  1.9655
36546SOL    HW214324  11.596   0.318   8.264  1.1028 -0.9046 -1.0205
36547SOL     OW14325  11.685   3.213   3.544  0.2771  0.0724 -0.9410
36547SOL    HW114326  11.645   3.275   3.604 -0.6337 -1.4316  0.0783
36547SOL    HW214327  11.689   3.259   3.460 -2.5317  0.7038 -0.7970
36548SOL     OW14328   1.152   4.009  10.487 -0.4875 -0.7789  0.1645
36548SOL    HW114329   1.232   3.990  10.536 -0.0959  1.6782  0.6368
36548SOL    HW214330   1.088   3.947  10.521  0.0117  0.1744  3.2259
36549SOL     OW14331   5.067   6.736  11.578  0.4523 -0.1771 -0.4915
36549SOL    HW114332   5.070   6.641  11.570 -0.6417 -0.4582  1.5812
36549SOL    HW214333   4.977   6.759  11.555  0.2178  0.1222  0.6644
36550SOL     OW14334   1.032   2.534   6.462 -0.7741 -0.2102  0.6336
36550SOL    HW114335   1.096   2.578   6.406 -1.2434 -1.9769 -1.4421
36550SOL    HW214336   1.073   2.452   6.486 -1.3707 -0.3432  1.2369
36551SOL     OW14337   1.947   6.391  11.151  0.6928 -0.3018 -0.0759
36551SOL    HW114338   1.975   6.414  11.240 -2.4159 -2.1816  1.5746
36551SOL    HW214339   1.935   6.475  11.107  0.8909  0.7572  1.7854
36552SOL     OW14340  11.755  10.469   2.227 -0.4281 -0.3733  0.1257
36552SOL    HW114341  11.694  10.449   2.297  1.1786  1.3549  2.1483
36552SOL    HW214342  11.756  10.565   2.223  0.6186 -0.4079 -1.2648
36553SOL     OW14343   2.090   5.721   6.711  0.0969  0.0166 -0.3260
36553SOL    HW114344   2.107   5.650   6.773  2.0233  0.5096 -0.2261
36553SOL    HW214345   2.080   5.677   6.626  0.5557 -0.4389 -0.1498
36554SOL     OW14346  10.585   5.794   6.587 -0.1858 -0.0780 -0.2463
36554SOL    HW114347  10.508   5.744   6.561 -1.0952 -0.4845  2.8160
36554SOL    HW214348  10.554   5.885   6.594 -0.0802 -0.0473 -0.1544
36555SOL     OW14349   4.687  11.762  10.069 -0.2555  0.7171 -0.2436
36555SOL    HW114350   4.641  11.741   9.987  0.2828  1.7794 -0.8376
36555SOL    HW214351   4.649  11.702  10.133  0.8876 -1.7930 -1.7248
36556SOL     OW14352   8.584   5.198  10.628 -0.2131  0.1330 -1.2299
36556SOL    HW114353   8.608   5.105  10.619 -0.0569  0.0414  0.0382
36556SOL    HW214354   8.651   5.235  10.685 -1.2713  0.6083 -0.2530
36557SOL     OW14355   7.880   6.450   1.933  0.0436  0.0913  0.2698
36557SOL    HW114356   7.912   6.370   1.974 -0.2516 -1.2985 -2.0173
36557SOL    HW214357   7.785   6.447   1.945  0.0095 -0.0266 -0.0255
36558SOL     OW14358   6.180   2.585   9.237  0.1875 -0.0032  0.1252
36558SOL    HW114359   6.218   2.662   9.195  2.1231  0.4094  2.4242
36558SOL    HW214360   6.198   2.513   9.176 -0.5229  1.1137 -1.4674
36559SOL     OW14361   3.384   5.537   1.995 -0.3436 -0.0389 -0.0372
36559SOL    HW114362   3.477   5.514   2.002  0.2153  2.0512  0.1096
36559SOL    HW214363   3.368   5.596   2.069 -1.7356 -0.2169 -0.1775
36560SOL     OW14364   2.239   0.648  11.713  0.3666 -0.2662  0.4988
36560SOL    HW114365   2.298   0.626  11.640  0.5502  0.7518  0.3269
36560SOL    HW214366   2.294   0.696  11.775 -0.3174  0.8822  0.2403
36561SOL     OW14367   1.004   0.206   4.895  0.4634  0.6250  0.4346
36561SOL    HW114368   1.023   0.233   4.986 -0.9510 -2.3507  1.7477
36561SOL    HW214369   0.909   0.216   4.887  0.5263  0.4486 -0.5985
36562SOL     OW14370  11.855   8.986   9.865 -0.6004  0.2473 -0.0396
36562SOL    HW114371  11.822   8.927   9.933 -2.7933  1.2369 -0.1513
36562SOL    HW214372  11.943   8.954   9.847 -1.0409 -1.8818  1.1462
36563SOL     OW14373   1.325  10.323   1.936 -0.8420  0.2013  0.1896
36563SOL    HW114374   1.275  10.257   1.984 -0.2452  0.0094  0.5604
36563SOL    HW214375   1.274  10.404   1.944 -2.0289 -0.3910 -1.0152
36564SOL     OW14376   2.194   4.959   1.576 -0.0923  0.5169 -0.0472
36564SOL    HW114377   2.177   4.915   1.659  2.8368 -0.1536  0.2989
36564SOL    HW214378   2.165   4.896   1.509 -0.5328  0.1909  0.4424
36565SOL     OW14379  10.265   5.128   4.617  0.3367 -0.0244  0.3107
36565SOL    HW114380  10.223   5.214   4.617  1.9788  0.8070  0.3002
36565SOL    HW214381  10.245   5.093   4.704 -1.8598 -0.4560 -0.2965
36566SOL     OW14382   6.162   6.833   5.484  0.0386 -0.2886 -0.0614
36566SOL    HW114383   6.193   6.820   5.574 -0.3740 -0.1914  0.0983
36566SOL    HW214384   6.218   6.776   5.431  0.7686  0.2034  0.1627
36567SOL     OW14385   3.986   7.461   9.365 -0.1777 -0.4285 -0.2938
36567SOL    HW114386   4.068   7.508   9.378 -0.5823  0.6338 -1.4145
36567SOL    HW214387   4.011   7.382   9.317  0.1486  0.0974 -1.0064
36568SOL     OW14388   5.734   5.570   1.053  0.5760  0.5169  0.4960
36568SOL    HW114389   5.679   5.492   1.047  1.6499 -0.1259 -2.3010
36568SOL    HW214390   5.750   5.579   1.147  0.2616 -2.5233  0.9670
36569SOL     OW14391   2.619   4.024   3.325 -0.8024 -0.2000  0.2185
36569SOL    HW114392   2.568   4.078   3.265 -0.0209  0.2051 -0.0917
36569SOL    HW214393   2.562   4.014   3.402 -0.9643  1.0917  0.2938
36570SOL     OW14394   1.337   6.512   4.389 -0.0321 -0.0455 -0.5126
36570SOL    HW114395   1.243   6.505   4.402 -0.0983  2.7529  1.6384
36570SOL    HW214396   1.373   6.431   4.425 -1.5442 -0.4833  0.0585
36571SOL     OW14397   0.309   6.591   1.199  0.3819  0.3095  0.0231
36571SOL    HW114398   0.216   6.606   1.218  0.3242 -1.1020  0.9674
36571SOL    HW214399   0.315   6.498   1.180  1.8008  0.0988  1.3158
36572SOL     OW14400  11.373   7.267   3.047  1.2393 -0.3204  0.2004
36572SOL    HW114401  11.298   7.216   3.078  0.7388  0.1380 -0.2467
36572SOL    HW214402  11.420   7.291   3.127  0.9179 -0.6172  0.4847
36573SOL     OW14403   6.983   5.261   1.159 -0.3151 -0.0252  0.2193
36573SOL    HW114404   6.943   5.174   1.154 -0.6533 -0.1196  3.0464
36573SOL    HW214405   7.075   5.244   1.179 -0.3685  0.2554  0.7229
36574SOL     OW14406   4.567   3.172   4.243  0.2982 -0.0957 -0.3485
36574SOL    HW114407   4.564   3.139   4.332  3.8957 -1.7246 -0.6786
36574SOL    HW214408   4.598   3.263   4.252  0.3375 -0.1507  0.0698
36575SOL     OW14409   3.749   5.203   1.187  0.0964  0.7160  0.0310
36575SOL    HW114410   3.752   5.227   1.280  0.2266  1.0349 -0.0556
36575SOL    HW214411   3.839   5.181   1.165 -0.2549 -1.5173  0.5388
36576SOL     OW14412   8.624   0.454   7.814 -0.0130 -0.0826 -0.0836
36576SOL    HW114413   8.590   0.415   7.894 -2.2975  2.1441  0.1310
36576SOL    HW214414   8.675   0.530   7.844  2.4856 -1.4201 -0.6178
36577SOL     OW14415   5.192   9.510  10.794  0.2497 -0.0278 -0.6300
36577SOL    HW114416   5.277   9.532  10.833 -0.1604 -0.5813  0.6053
36577SOL    HW214417   5.160   9.436  10.845 -0.8094 -0.0869 -1.3415
36578SOL     OW14418   8.509   7.570   0.557  0.6373 -0.0972  0.2081
36578SOL    HW114419   8.435   7.509   0.551  0.5540  0.0904 -0.8870
36578SOL    HW214420   8.574   7.534   0.496  1.0993  0.2222  0.5045
36579SOL     OW14421   3.808   0.473   2.368  0.1132  0.6472 -0.1149
36579SOL    HW114422   3.880   0.470   2.432 -0.7617 -0.9327  0.8835
36579SOL    HW214423   3.817   0.391   2.319 -0.0335  1.2191 -1.1115
36580SOL     OW14424   8.618   0.065   8.832  0.2199  0.5184  0.3454
36580SOL    HW114425   8.692   0.005   8.838  0.8152  1.3496  1.9666
36580SOL    HW214426   8.550   0.024   8.887 -0.7721 -0.5126 -1.5610
36581SOL     OW14427   6.079   7.805   9.794  0.4532 -0.3044 -0.2597
36581SOL    HW114428   6.154   7.749   9.811 -0.4046 -1.3448  0.2002
36581SOL    HW214429   6.070   7.860   9.872  1.0946  0.2683 -0.5760
36582SOL     OW14430   7.746  11.956   6.229 -0.0009  0.1232  0.7361
36582SOL    HW114431   7.707  12.029   6.182 -2.4141 -1.4387  0.1545
36582SOL    HW214432   7.728  11.974   6.321  0.1061  0.6114  0.6648
36583SOL     OW14433   9.809   9.959   9.675 -0.0123  0.0729  0.3729
36583SOL    HW114434   9.728   9.955   9.726  0.4135 -1.7484  0.9537
36583SOL    HW214435   9.797   9.895   9.605  1.3592 -1.1020  1.1622
36584SOL     OW14436   1.261   3.286  11.722 -0.1388  0.2073 -0.5123
36584SOL    HW114437   1.229   3.220  11.783 -0.0953  1.2105  0.6233
36584SOL    HW214438   1.345   3.314  11.758  0.8628 -0.6034 -2.1217
36585SOL     OW14439   8.973   0.618  10.659  0.1408 -0.1582  1.0425
36585SOL    HW114440   8.994   0.535  10.616 -0.6275  0.4674 -0.6109
36585SOL    HW214441   8.893   0.600  10.708 -1.7117  0.2821 -1.6504
36586SOL     OW14442   6.124   8.463   5.967  0.1368 -0.1101 -0.1300
36586SOL    HW114443   6.087   8.389   5.918 -0.0130 -0.6304  0.7439
36586SOL    HW214444   6.182   8.507   5.905  0.8207 -1.4156 -0.4501
36587SOL     OW14445   5.745   4.407   8.073 -0.1994 -0.2851  0.0380
36587SOL    HW114446   5.811   4.367   8.017  0.4438  2.2152 -1.1596
36587SOL    HW214447   5.668   4.416   8.017 -0.4198 -0.0999  0.3673
36588SOL     OW14448   1.330  11.692   6.186 -0.2091  0.8034  0.3877
36588SOL    HW114449   1.278  11.741   6.249 -2.0706 -0.6902  0.0806
36588SOL    HW214450   1.294  11.604   6.187  1.0742  0.1958 -1.2677
36589SOL     OW14451   6.335  11.492   3.482  0.1116 -0.3035  0.8218
36589SOL    HW114452   6.422  11.522   3.455 -0.6694  0.7625 -0.6298
36589SOL    HW214453   6.300  11.448   3.405 -0.8495 -0.2517  1.2177
36590SOL     OW14454   9.641   0.231   1.235  0.3372 -0.0509 -0.2188
36590SOL    HW114455   9.684   0.259   1.154  0.9645  0.5400  0.3096
36590SOL    HW214456   9.568   0.292   1.246  2.2651  2.1707  1.4476
36591SOL     OW14457   6.769   6.713   1.545  0.2044 -0.2164  0.2356
36591SOL    HW114458   6.810   6.628   1.562  0.0547 -0.2965  0.1950
36591SOL    HW214459   6.808   6.771   1.611  0.3350 -0.3061  0.2406
36592SOL     OW14460  10.593   8.793   4.952  0.2590  0.3717 -0.5224
36592SOL    HW114461  10.644   8.735   4.895 -0.0537 -0.5854  0.1391
36592SOL    HW214462  10.534   8.839   4.893  2.0086  1.6716 -1.3377
36593SOL     OW14463  10.811   5.133   8.733  0.1019  0.1605 -0.2300
36593SOL    HW114464  10.827   5.039   8.721 -1.4997 -0.1643 -0.0003
36593SOL    HW214465  10.765   5.160   8.654 -0.3569  0.5166  0.1494
36594SOL     OW14466   2.279  10.546   9.699  0.0909  0.0740  0.3829
36594SOL    HW114467   2.267  10.523   9.791 -2.1382 -2.5019 -0.4016
36594SOL    HW214468   2.198  10.591   9.675  1.4097  2.4400  0.0348
36595SOL     OW14469  11.742  10.439   8.022 -0.0432 -0.0045 -0.1551
36595SOL    HW114470  11.659  10.461   7.980  0.1279  1.3515  0.1787
36595SOL    HW214471  11.807  10.449   7.953  0.0609  0.7729  0.0515
36596SOL     OW14472  11.188   6.926  10.788  0.3041 -0.1835 -0.4909
36596SOL    HW114473  11.170   6.938  10.881  0.3512 -0.9610 -0.3787
36596SOL    HW214474  11.106   6.948  10.745  0.0137 -0.6721 -0.1971
36597SOL     OW14475   2.950   5.652   7.266  0.4661  0.1469  0.2361
36597SOL    HW114476   2.962   5.596   7.343 -0.5767  1.7834  1.6536
36597SOL    HW214477   3.007   5.728   7.282  2.9618 -0.9990 -2.3215
36598SOL     OW14478   8.322   9.885   3.425 -0.6574 -0.4034 -0.3457
36598SOL    HW114479   8.349   9.950   3.360 -0.0740 -0.5395 -0.2431
36598SOL    HW214480   8.238   9.853   3.393  0.2281 -1.4364 -1.7747
36599SOL     OW14481  10.482   4.116   0.116  0.3360  0.3910  0.1296
36599SOL    HW114482  10.543   4.083   0.182 -1.7155  0.8383  2.4102
36599SOL    HW214483  10.489   4.054   0.043  2.2763 -0.4778  0.9866
36600SOL     OW14484  11.205   1.159   1.477  0.1933  0.2876  0.0377
36600SOL    HW114485  11.247   1.240   1.446 -0.0128 -0.2111 -1.6504
36600SOL    HW214486  11.276   1.095   1.481  0.1355  0.2316  0.1826
36601SOL     OW14487   2.576  11.442   6.728 -0.0571  0.2949 -0.0881
36601SOL    HW114488   2.587  11.536   6.742  3.7017 -0.0223  0.3536
36601SOL    HW214489   2.593  11.430   6.635 -0.2435  0.0181 -0.0861
36602SOL     OW14490  11.028   7.695   3.975  0.3572 -0.4310  0.6827
36602SOL    HW114491  11.053   7.760   3.909 -0.8368  0.4225  1.0316
36602SOL    HW214492  10.933   7.697   3.976  0.3392 -0.1621  2.6738
36603SOL     OW14493   5.841   1.704  11.719  0.0563 -0.7926  0.8162
36603SOL    HW114494   5.803   1.775  11.772 -1.9918 -1.7659  0.7474
36603SOL    HW214495   5.929   1.692  11.756  1.4479  3.2253 -0.5970
36604SOL     OW14496  10.781   8.766   1.866  0.3498  0.2469  0.1664
36604SOL    HW114497  10.711   8.822   1.834 -0.2604 -0.0507  0.9540
36604SOL    HW214498  10.751   8.677   1.845  0.9347  0.1663 -0.3468
36605SOL     OW14499   1.472   1.981   5.991  0.2138  0.4864 -0.1591
36605SOL    HW114500   1.438   2.044   6.055 -0.9036 -0.1131 -0.1324
36605SOL    HW214501   1.437   2.010   5.907  0.9219  0.7464 -0.3677
36606SOL     OW14502   2.710   2.199   3.342 -0.1555 -0.2905  0.4080
36606SOL    HW114503   2.734   2.106   3.346 -0.5875 -0.3817  1.0516
36606SOL    HW214504   2.646   2.210   3.413 -1.2123  0.1733 -0.5963
36607SOL     OW14505   3.413   1.200   0.013  0.0655 -0.5118 -0.7247
36607SOL    HW114506   3.433   1.208  -0.080 -0.2265  1.0888 -0.6922
36607SOL    HW214507   3.468   1.266   0.055 -1.1525  0.0729  0.0025
36608SOL     OW14508   3.629   3.766   8.272 -0.6299  0.0031  0.4266
36608SOL    HW114509   3.557   3.771   8.210  0.8170  0.6422 -1.2828
36608SOL    HW214510   3.664   3.677   8.262  0.2699  0.4440 -0.4964
36609SOL     OW14511   6.067  10.421   6.857 -0.2527 -0.3897 -0.4679
36609SOL    HW114512   6.126  10.433   6.782 -1.5692  0.3561 -1.4216
36609SOL    HW214513   5.996  10.368   6.823  0.0949 -1.7269  0.8182
36610SOL     OW14514  10.301  11.603   4.897 -0.1855 -0.0649  0.0211
36610SOL    HW114515  10.222  11.608   4.951  0.2568 -0.6756  0.7284
36610SOL    HW214516  10.299  11.684   4.845 -0.6033  0.5311  0.9465
36611SOL     OW14517   1.296   1.536   0.424  0.4601  0.0446 -0.1559
36611SOL    HW114518   1.209   1.562   0.455  0.6447 -0.3750  0.7595
36611SOL    HW214519   1.350   1.614   0.435  0.1047  0.4479 -1.1637
36612SOL     OW14520  11.919   1.517   8.800 -1.1801 -0.1093  0.1825
36612SOL    HW114521  11.844   1.468   8.833 -1.5653 -0.2045 -0.7954
36612SOL    HW214522  11.925   1.492   8.708  0.0923 -0.1416  0.2669
36613SOL     OW14523   1.989  11.462   1.536  0.3706  0.6930 -0.7523
36613SOL    HW114524   1.909  11.474   1.587 -0.5084 -2.0383 -1.2779
36613SOL    HW214525   2.058  11.450   1.602 -0.2838 -0.2436 -0.2133
36614SOL     OW14526   5.115  10.937   5.049  0.2310  0.2837 -0.3977
36614SOL    HW114527   5.079  10.848   5.051  0.0874  0.3603  0.3816
36614SOL    HW214528   5.178  10.939   5.121  0.4041  0.7456 -0.5603
36615SOL     OW14529   6.173   0.769   2.423 -0.0118 -0.0451 -0.0020
36615SOL    HW114530   6.240   0.708   2.393 -0.2745 -0.0514 -0.5815
36615SOL    HW214531   6.221   0.831   2.478  0.5474  0.1863 -0.7318
36616SOL     OW14532  10.096   3.300  11.999  0.2078 -0.2316  0.3368
36616SOL    HW114533  10.155   3.258  11.936  0.5403  1.5017 -0.5871
36616SOL    HW214534  10.114   3.394  11.989 -2.0912  0.3082  0.6494
36617SOL     OW14535  10.128   5.228   5.064  0.5398 -0.4091  0.0736
36617SOL    HW114536  10.112   5.242   5.158  1.6242  1.0737  0.0819
36617SOL    HW214537  10.056   5.273   5.020  0.8727  0.2376  0.1840
36618SOL     OW14538   7.792   4.998   2.105  0.3263 -0.0423  0.5348
36618SOL    HW114539   7.803   4.969   2.015  0.4190 -0.3620  0.6482
36618SOL    HW214540   7.872   5.048   2.124 -0.5505  1.7261 -0.1958
36619SOL     OW14541   6.620   4.349   2.833  0.5248 -0.6002 -0.1810
36619SOL    HW114542   6.655   4.350   2.922  0.9269 -1.4064 -0.3205
36619SOL    HW214543   6.585   4.260   2.822 -0.1637 -0.2902 -0.5859
36620SOL     OW14544   9.239   5.318  10.586 -0.9832  0.0233  0.1405
36620SOL    HW114545   9.265   5.359  10.669  2.3463  0.8927 -1.2052
36620SOL    HW214546   9.181   5.382  10.545  2.1605  2.5137 -0.7932
36621SOL     OW14547   0.008  11.656   7.318 -0.1734  0.3342  0.0917
36621SOL    HW114548  -0.001  11.605   7.238 -2.3454 -1.2905  1.2657
36621SOL    HW214549   0.077  11.611   7.367 -1.1782 -0.7290  0.5573
36622SOL     OW14550   4.854   3.004  10.345 -0.0618  0.1083  1.0264
36622SOL    HW114551   4.796   3.070  10.307  0.1351  0.0710  0.6589
36622SOL    HW214552   4.921   3.054  10.390 -0.0309  0.1586  0.9244
36623SOL     OW14553   4.130   2.586   0.254  0.6536  0.1652  0.3015
36623SOL    HW114554   4.046   2.620   0.287  0.0894 -0.1991 -0.7134
36623SOL    HW214555   4.193   2.655   0.276 -0.4084  1.8086 -1.4169
36624SOL     OW14556   2.893   4.331   8.691  0.2838 -0.3115 -0.3883
36624SOL    HW114557   2.851   4.363   8.771  0.2726  1.3708 -1.0190
36624SOL    HW214558   2.987   4.340   8.707  0.3268 -1.2696 -0.0701
36625SOL     OW14559  11.165   9.201   0.262 -0.3019  0.0962  0.4045
36625SOL    HW114560  11.106   9.156   0.322  0.5431 -0.7339  0.6350
36625SOL    HW214561  11.171   9.143   0.186 -0.0239  0.3174  0.2543
36626SOL     OW14562  11.088   3.615   8.513  0.5183 -0.1612  0.5687
36626SOL    HW114563  11.045   3.535   8.485  1.0704 -1.5763  3.3932
36626SOL    HW214564  11.029   3.651   8.580  2.0118 -0.2700  1.9949
36627SOL     OW14565   0.957   7.265   3.017  0.4843  0.4241  0.2947
36627SOL    HW114566   0.972   7.175   3.046  0.1744  0.2200 -0.1666
36627SOL    HW214567   1.045   7.304   3.012  0.7695 -0.3149 -0.9677
36628SOL     OW14568   9.349  11.262   0.355 -0.0541  0.5515 -0.2949
36628SOL    HW114569   9.441  11.242   0.374 -0.8575 -4.3296 -0.2915
36628SOL    HW214570   9.320  11.314   0.429  1.7136 -1.5602  2.0659
36629SOL     OW14571   5.297   4.000   4.720 -0.0066  0.0301  0.0564
36629SOL    HW114572   5.346   4.082   4.731 -1.3169  0.7613  0.7605
36629SOL    HW214573   5.350   3.934   4.765  0.9292  0.5256 -0.2767
36630SOL     OW14574   6.270   5.354   2.733 -0.3811 -0.0054  0.1656
36630SOL    HW114575   6.307   5.290   2.671  0.1824  0.1598  0.3188
36630SOL    HW214576   6.204   5.305   2.782 -1.8383  0.2172 -1.4929
36631SOL     OW14577   5.230  11.608   1.489 -0.6028 -0.3244 -0.1395
36631SOL    HW114578   5.270  11.532   1.448 -0.6479 -0.4771  0.1039
36631SOL    HW214579   5.146  11.577   1.522  0.1207 -0.6133  1.5203
36632SOL     OW14580   8.149   2.986   4.726  0.8125 -0.2378 -0.4469
36632SOL    HW114581   8.078   2.938   4.769  0.5483  0.5814  0.0420
36632SOL    HW214582   8.135   2.969   4.632 -0.1933  0.1371 -0.3754
36633SOL     OW14583  10.592   4.252  10.845 -0.0384  0.2599 -0.3595
36633SOL    HW114584  10.641   4.233  10.764  2.0321 -0.3013  0.9457
36633SOL    HW214585  10.583   4.347  10.846 -0.1642  0.2694 -1.2735
36634SOL     OW14586   4.704   9.396   2.718 -0.4680  0.6916  0.1860
36634SOL    HW114587   4.738   9.451   2.647 -0.0592  0.5038  0.2341
36634SOL    HW214588   4.689   9.457   2.790 -1.9116  1.0697 -0.3947
36635SOL     OW14589   9.385  11.743   1.694  0.4954 -0.1751 -0.6640
36635SOL    HW114590   9.424  11.658   1.672  0.4500 -0.6151  0.8512
36635SOL    HW214591   9.461  11.800   1.709  0.5802 -0.6372  0.8047
36636SOL     OW14592   5.435   6.066   5.455  0.5059 -0.2499 -0.0558
36636SOL    HW114593   5.460   6.157   5.437 -0.7875 -0.3686 -3.0627
36636SOL    HW214594   5.359   6.074   5.513 -0.0768  0.6826 -0.9003
36637SOL     OW14595  10.822   9.679   0.079  0.0616  0.1521 -0.2557
36637SOL    HW114596  10.900   9.725   0.109 -0.1697  0.3179  0.0950
36637SOL    HW214597  10.758   9.691   0.149 -0.7288  1.1601 -1.0969
36638SOL     OW14598   0.394   0.558  11.350  0.2361 -0.3103  0.2655
36638SOL    HW114599   0.355   0.632  11.303  1.0349 -0.1319 -0.1274
36638SOL    HW214600   0.336   0.545  11.425  0.7805  1.5744  1.0964
36639SOL     OW14601  11.048   2.504   9.145 -0.1049 -0.0818  0.3835
36639SOL    HW114602  10.971   2.558   9.127  0.6772  0.6879 -0.7514
36639SOL    HW214603  11.113   2.532   9.081  1.9106  0.8287  2.6950
36640SOL     OW14604   2.998   1.922   8.114  0.3242 -0.0341  0.2869
36640SOL    HW114605   3.031   2.008   8.138 -1.8220  1.2627 -1.1644
36640SOL    HW214606   2.912   1.938   8.075 -0.5726 -2.9232  0.8167
36641SOL     OW14607   8.817   6.406   7.961  0.4820  0.1623 -0.3944
36641SOL    HW114608   8.800   6.459   7.883 -1.1754  0.0021 -0.1951
36641SOL    HW214609   8.765   6.327   7.947 -0.0572  0.2505  0.9838
36642SOL     OW14610   6.041   0.173   5.116  0.1127 -0.4082  0.1879
36642SOL    HW114611   6.015   0.249   5.064 -1.0193 -1.2176 -0.4734
36642SOL    HW214612   6.011   0.193   5.205 -0.1334 -0.0707  0.0295
36643SOL     OW14613   3.573   1.901   2.238 -0.1339  0.3595  0.1330
36643SOL    HW114614   3.518   1.952   2.178 -0.2578  0.1540  0.0740
36643SOL    HW214615   3.643   1.865   2.183 -0.2907  0.1079  0.0992
36644SOL     OW14616   5.252   3.784   7.852  0.7191  0.2172 -0.0737
36644SOL    HW114617   5.310   3.802   7.778 -0.6689 -0.8818 -1.5117
36644SOL    HW214618   5.280   3.845   7.920  3.2039  0.0659 -0.8568
36645SOL     OW14619   6.674   5.643   8.618 -0.1443 -0.1309  0.1029
36645SOL    HW114620   6.644   5.599   8.538 -0.9216 -0.0168  0.3243
36645SOL    HW214621   6.721   5.720   8.587  1.5066 -1.2396 -0.3024
36646SOL     OW14622   6.706  10.594   7.009 -0.3029  0.4868 -0.0732
36646SOL    HW114623   6.733  10.617   7.098 -1.7978  1.7987  0.0716
36646SOL    HW214624   6.774  10.631   6.953  0.8526 -0.6808  0.5067
36647SOL     OW14625   8.325   5.928   0.053 -0.2303  0.0357 -0.6282
36647SOL    HW114626   8.418   5.948   0.052 -0.0490 -0.7514 -1.1349
36647SOL    HW214627   8.295   5.948  -0.036  0.4278 -3.7567 -1.8923
36648SOL     OW14628   5.259  11.611   7.724  0.3581  0.1224  0.0564
36648SOL    HW114629   5.250  11.568   7.639  2.1129  0.9274 -0.6030
36648SOL    HW214630   5.170  11.633   7.750 -0.1725  0.8463 -2.1331
36649SOL     OW14631   7.345   3.752   7.962  0.3770  0.1098  0.4945
36649SOL    HW114632   7.275   3.776   7.901  0.1663 -0.1323  0.6394
36649SOL    HW214633   7.328   3.660   7.983  0.6047  0.1162  0.7125
36650SOL     OW14634   4.715   2.529   8.815  0.3083 -0.2595 -0.1548
36650SOL    HW114635   4.736   2.610   8.861 -1.3441 -0.5649  1.1984
36650SOL    HW214636   4.748   2.460   8.872 -0.4754 -0.6007 -0.1054
36651SOL     OW14637   2.861   7.052   2.411 -0.6747 -0.2617 -0.0814
36651SOL    HW114638   2.912   7.113   2.464 -0.7246 -0.8656  0.6817
36651SOL    HW214639   2.798   7.015   2.472 -0.2291 -1.5501 -0.3735
36652SOL     OW14640   4.614   1.747   4.859  0.0371  0.2275 -0.6638
36652SOL    HW114641   4.547   1.814   4.875 -0.9437 -0.5989 -1.2178
36652SOL    HW214642   4.656   1.775   4.778 -1.5501 -0.6783 -1.8841
36653SOL     OW14643   5.980   5.480   4.456 -0.1856  0.5224 -0.6513
36653SOL    HW114644   6.000   5.423   4.381  0.7917 -0.7142  0.5004
36653SOL    HW214645   5.944   5.421   4.522 -0.5375  1.4992  0.0575
36654SOL     OW14646   6.571  11.478   3.859  0.4772  0.8244 -0.7154
36654SOL    HW114647   6.576  11.502   3.951  0.3631  0.7389 -0.6856
36654SOL    HW214648   6.546  11.385   3.860  2.6417  0.1727 -0.7862
36655SOL     OW14649   4.943   7.996   3.277 -0.0140 -0.6905  0.4942
36655SOL    HW114650   4.869   7.982   3.337 -0.9967  0.9652 -0.2661
36655SOL    HW214651   4.999   8.059   3.322 -0.2943 -0.1334  0.0734
36656SOL     OW14652   9.845   1.567   3.261  1.0634 -0.0890 -0.1024
36656SOL    HW114653   9.831   1.517   3.341 -0.6764  1.7091  0.8219
36656SOL    HW214654   9.905   1.637   3.287 -0.0094  0.8827 -0.1249
36657SOL     OW14655  10.273   8.183   3.481 -0.3069  0.3270  0.0788
36657SOL    HW114656  10.260   8.267   3.437  0.2820 -0.1259 -1.0023
36657SOL    HW214657  10.361   8.190   3.518  0.4552 -0.4265 -1.5009
36658SOL     OW14658  10.748   9.295   9.083  0.1482 -0.2605 -0.3042
36658SOL    HW114659  10.692   9.281   9.159 -0.2147  0.1901 -0.4830
36658SOL    HW214660  10.837   9.288   9.117 -0.0049  0.6184  0.2993
36659SOL     OW14661   2.675   7.839   8.111 -0.8104 -0.0514  0.0043
36659SOL    HW114662   2.654   7.832   8.018  0.1126  0.9508 -0.3042
36659SOL    HW214663   2.592   7.864   8.152 -1.0574  0.2657 -0.6668
36660SOL     OW14664   0.271   7.799   5.281 -0.3070  0.0446 -0.2614
36660SOL    HW114665   0.267   7.871   5.218  0.7190 -1.1019 -1.7072
36660SOL    HW214666   0.358   7.761   5.268 -0.7231 -1.2959  0.6561
36661SOL     OW14667   1.094   6.199   4.398 -0.2869  0.5337  0.9127
36661SOL    HW114668   1.026   6.265   4.392 -1.2713 -0.4707  0.6746
36661SOL    HW214669   1.062   6.138   4.464  0.7294  0.4238  1.3269
36662SOL     OW14670   4.908   5.498  10.601 -0.1807 -0.8848 -0.1835
36662SOL    HW114671   4.883   5.571  10.657  0.6599 -0.2659 -0.5973
36662SOL    HW214672   4.829   5.478  10.551 -0.9635 -1.4761  1.2190
36663SOL     OW14673   4.455   7.313  10.484 -0.2064  0.1267 -0.1228
36663SOL    HW114674   4.387   7.269  10.433 -0.7525  2.5495 -1.6326
36663SOL    HW214675   4.507   7.242  10.521 -2.4031 -1.7880 -0.4852
36664SOL     OW14676  11.264   4.722   6.613  0.1368  0.1410  0.2377
36664SOL    HW114677  11.350   4.726   6.571  0.5014  0.0086  0.9533
36664SOL    HW214678  11.203   4.754   6.546  0.5623 -1.0620 -0.7552
36665SOL     OW14679   5.189   0.382   7.904 -0.1252  0.2434  0.3050
36665SOL    HW114680   5.276   0.414   7.926 -0.4475  0.7377  0.8957
36665SOL    HW214681   5.171   0.420   7.818  0.0268  0.5855  0.4205
36666SOL     OW14682   1.843   6.817   2.367 -0.0087  0.0360  0.3870
36666SOL    HW114683   1.848   6.905   2.329 -0.8923 -0.2394 -0.3886
36666SOL    HW214684   1.881   6.760   2.301  1.9061 -0.0407  1.4647
36667SOL     OW14685   1.188  10.773   1.038  0.0348 -0.3380 -0.1432
36667SOL    HW114686   1.168  10.682   1.017 -1.3205 -0.8249  2.6677
36667SOL    HW214687   1.262  10.768   1.099  1.3874  0.6560 -1.6335
36668SOL     OW14688   6.244   0.108   3.770  0.2492  0.0691  0.3729
36668SOL    HW114689   6.224   0.201   3.772 -0.8211 -0.1531  0.4501
36668SOL    HW214690   6.159   0.065   3.773  0.7609 -0.9411  2.0899
36669SOL     OW14691   1.541   1.586  10.446  0.2958 -0.3908 -0.2795
36669SOL    HW114692   1.542   1.505  10.395 -0.3026 -0.8254  0.3884
36669SOL    HW214693   1.633   1.607  10.460  0.4614 -1.6417  0.6110
36670SOL     OW14694   9.296   4.810   7.843 -0.6718  0.4873  0.0107
36670SOL    HW114695   9.311   4.878   7.777 -0.9309  1.2386  0.7143
36670SOL    HW214696   9.224   4.757   7.806 -2.4513  2.3033  0.6984
36671SOL     OW14697   6.386   0.608   8.624 -0.3717  0.0984 -0.2492
36671SOL    HW114698   6.311   0.614   8.683 -0.0383 -0.3760  0.2372
36671SOL    HW214699   6.354   0.642   8.540 -0.7907  1.0145  0.2584
36672SOL     OW14700   5.795   8.714  11.286 -0.1718  0.2208  0.7773
36672SOL    HW114701   5.767   8.774  11.355  2.8635  2.8882 -0.0674
36672SOL    HW214702   5.884   8.688  11.312 -0.6742 -2.4755  0.1061
36673SOL     OW14703   9.861   9.508   1.313 -0.1707 -0.1488  0.3782
36673SOL    HW114704   9.821   9.429   1.349 -0.5007  0.2140  0.8227
36673SOL    HW214705   9.839   9.505   1.220 -0.0570 -0.6511  0.3625
36674SOL     OW14706   0.732  10.373   5.140 -0.4265 -0.8461 -0.2187
36674SOL    HW114707   0.724  10.278   5.144  0.9487 -0.9330  2.1818
36674SOL    HW214708   0.826  10.389   5.141 -0.6479  0.5503  1.3011
36675SOL     OW14709  10.800  11.967   1.952  0.7726 -0.2830  0.3310
36675SOL    HW114710  10.722  11.913   1.968  0.5358 -0.2153 -0.5347
36675SOL    HW214711  10.834  11.987   2.039 -0.6291  0.3430  0.7600
36676SOL     OW14712   0.059   9.703   4.078 -0.0053  0.0333  0.0207
36676SOL    HW114713   0.061   9.682   3.985 -0.5212  0.4845 -0.0950
36676SOL    HW214714   0.145   9.742   4.096  0.4956 -1.0097 -0.0273
36677SOL     OW14715   6.524   7.711   5.118  0.3509 -0.1075  0.0318
36677SOL    HW114716   6.482   7.639   5.070  0.1076  0.5355 -0.7508
36677SOL    HW214717   6.529   7.782   5.054  1.1140  0.3814  0.6220
36678SOL     OW14718   0.475   4.861   8.047 -0.5510  0.0947 -0.1551
36678SOL    HW114719   0.497   4.771   8.022 -1.5411  0.2419 -1.6475
36678SOL    HW214720   0.488   4.912   7.967  0.5586  1.4151  0.8174
36679SOL     OW14721   6.084  10.970   4.470  0.7519  0.2932 -0.3769
36679SOL    HW114722   6.155  10.909   4.450 -1.3989 -1.9390 -1.6038
36679SOL    HW214723   6.061  10.952   4.561 -0.2226 -1.1856 -0.8860
36680SOL     OW14724   6.406   5.427  11.682 -0.7703 -0.4536  0.0562
36680SOL    HW114725   6.410   5.481  11.761  1.6103 -0.6567  0.1330
36680SOL    HW214726   6.466   5.355  11.698  0.3070 -0.1511 -2.1723
36681SOL     OW14727   5.865   3.879  11.456  0.4382 -0.4613  0.2702
36681SOL    HW114728   5.913   3.962  11.458  2.3594 -1.5349  0.8272
36681SOL    HW214729   5.814   3.879  11.538 -0.4568  0.6182 -0.2551
36682SOL     OW14730   8.280  10.446  10.778  0.1616 -0.1678 -0.2505
36682SOL    HW114731   8.185  10.445  10.795 -0.1719 -1.6982 -1.8891
36682SOL    HW214732   8.319  10.473  10.861 -1.6760 -0.1884  0.6742
36683SOL     OW14733  11.447   4.472   6.029 -0.0463  0.6452  0.4833
36683SOL    HW114734  11.535   4.451   6.061  0.3533  2.0410  0.3647
36683SOL    HW214735  11.440   4.567   6.038 -1.6224  0.5469  0.6661
36684SOL     OW14736   9.390  10.016   9.087  0.1824 -0.2204  0.2339
36684SOL    HW114737   9.484  10.013   9.070  0.3431  0.1268  1.0111
36684SOL    HW214738   9.374   9.941   9.145 -0.3327 -1.3205 -1.2587
36685SOL     OW14739   0.122   1.696   7.776  0.0247  0.1425  0.1834
36685SOL    HW114740   0.075   1.758   7.832 -0.6572 -0.2842  0.0996
36685SOL    HW214741   0.205   1.739   7.757  0.2459  0.3256  1.4718
36686SOL     OW14742   0.460   3.629   1.422 -1.1527 -0.8603 -0.3675
36686SOL    HW114743   0.366   3.619   1.436 -0.9854 -0.3126  1.4079
36686SOL    HW214744   0.473   3.607   1.330 -2.9962 -1.0448 -0.6225
36687SOL     OW14745   9.774  10.974   4.878 -0.0403 -0.2922 -0.0676
36687SOL    HW114746   9.731  10.897   4.915 -0.1039 -0.2554 -0.0645
36687SOL    HW214747   9.826  10.940   4.805  0.8731 -0.5066  0.6701
36688SOL     OW14748   2.340   6.415   9.067  0.2706  0.2866  0.2982
36688SOL    HW114749   2.327   6.330   9.110  2.7662  0.1975  1.0539
36688SOL    HW214750   2.360   6.475   9.139 -0.6964  1.3473 -0.3000
36689SOL     OW14751   1.639   8.956   1.518  0.0006  0.7117  0.0887
36689SOL    HW114752   1.693   9.002   1.582  0.5865  0.7392 -0.4177
36689SOL    HW214753   1.630   9.019   1.445 -0.7228  0.7132  0.1717
36690SOL     OW14754   7.681   5.914   4.699  0.0959  0.0113 -0.0140
36690SOL    HW114755   7.660   5.850   4.631 -1.5081  0.9451 -0.4545
36690SOL    HW214756   7.713   5.991   4.652  2.3980 -0.5424  0.5321
36691SOL     OW14757   3.438   0.402  10.394  0.8508 -0.2166  0.2900
36691SOL    HW114758   3.464   0.449  10.473  1.4973 -1.2514  0.7198
36691SOL    HW214759   3.441   0.468  10.325 -1.3747  1.1151  1.3720
36692SOL     OW14760   1.524   2.257   4.372  0.5126  0.1337  0.0592
36692SOL    HW114761   1.472   2.201   4.315  0.0221  1.2046 -0.5832
36692SOL    HW214762   1.590   2.295   4.315  0.4468  0.6846  0.3336
36693SOL     OW14763   5.426  11.600  10.380 -0.9364 -0.2881  0.1236
36693SOL    HW114764   5.416  11.682  10.332 -1.8840 -1.0549 -1.0485
36693SOL    HW214765   5.390  11.618  10.467 -1.3576  0.4654 -0.2008
36694SOL     OW14766  11.153   0.003   2.033 -0.1122 -0.1523 -0.2300
36694SOL    HW114767  11.073  -0.005   2.086  0.8804  1.0306  1.5566
36694SOL    HW214768  11.124   0.048   1.953 -1.8038 -2.6707 -1.1708
36695SOL     OW14769   1.902   2.316   5.197 -0.3586 -0.3340  0.1754
36695SOL    HW114770   1.833   2.356   5.143  0.3916 -1.8244 -1.9897
36695SOL    HW214771   1.972   2.296   5.136  1.3748 -0.3563  2.0672
36696SOL     OW14772   6.246   0.270  11.373  0.0891 -0.1674 -0.6145
36696SOL    HW114773   6.229   0.277  11.279 -0.4685  0.2565 -0.4945
36696SOL    HW214774   6.337   0.296  11.384  0.7775 -2.1374 -1.2552
36697SOL     OW14775  10.044   4.220   5.887  0.1781 -0.2256 -0.1487
36697SOL    HW114776  10.063   4.307   5.920 -0.9399  0.0475 -0.1969
36697SOL    HW214777  10.072   4.161   5.957  0.9695  0.1602 -0.1316
36698SOL     OW14778   0.834   6.474   9.408 -0.0989  0.3744  0.0061
36698SOL    HW114779   0.828   6.441   9.497 -0.0722  2.1658  0.7159
36698SOL    HW214780   0.756   6.440   9.364 -1.0408  0.9091  1.2239
36699SOL     OW14781   6.123   4.553   0.105 -0.4270  0.0824 -0.4299
36699SOL    HW114782   6.030   4.573   0.099 -0.5605 -0.4694 -0.3290
36699SOL    HW214783   6.134   4.474   0.052 -0.5473 -1.4452  1.6474
36700SOL     OW14784  11.768   3.287   1.904  0.0906 -0.7647  0.8814
36700SOL    HW114785  11.803   3.315   1.989  0.0827 -0.8333  0.9082
36700SOL    HW214786  11.734   3.367   1.864  2.0196 -0.3368  0.0091
36701SOL     OW14787   4.651   4.601   0.619  0.0620 -0.5993  0.2048
36701SOL    HW114788   4.667   4.552   0.538 -0.1422 -1.2213  0.5339
36701SOL    HW214789   4.683   4.543   0.688  1.6944  0.5722  0.4861
36702SOL     OW14790   7.075   8.814   7.567  0.0879 -0.1659 -0.0173
36702SOL    HW114791   7.068   8.897   7.521  3.2387 -0.5303 -1.3923
36702SOL    HW214792   7.002   8.762   7.533  1.1272  0.2778 -3.2702
36703SOL     OW14793   2.722   5.940  10.618  0.1986 -0.1482  0.0577
36703SOL    HW114794   2.762   6.008  10.673 -0.2023 -0.9981  1.4676
36703SOL    HW214795   2.778   5.863  10.632  0.2486 -0.3129 -0.9784
36704SOL     OW14796   4.934   3.997   5.572 -0.2785  0.0217  0.1841
36704SOL    HW114797   4.927   3.912   5.615  0.2549 -1.0439 -1.7534
36704SOL    HW214798   5.020   3.996   5.530 -0.3419  1.4457 -0.0529
36705SOL     OW14799   4.801   6.887  10.266 -0.0243  0.3080 -0.0795
36705SOL    HW114800   4.728   6.892  10.204 -0.2803  0.8296  0.2668
36705SOL    HW214801   4.769   6.832  10.337 -0.4003  1.2701  0.5052
36706SOL     OW14802   2.548   7.432   0.278  0.0226  0.1044  0.0143
36706SOL    HW114803   2.544   7.436   0.374  3.4586 -0.4445  0.3243
36706SOL    HW214804   2.508   7.348   0.256  1.6727 -1.1267  1.3379
36707SOL     OW14805   3.720   8.028   8.854  0.1236 -0.1034 -0.1747
36707SOL    HW114806   3.812   8.019   8.876  0.2539 -0.1433 -0.7203
36707SOL    HW214807   3.700   7.951   8.800 -0.8114 -1.3083  1.7703
36708SOL     OW14808   2.156   3.058   2.761  0.8163 -0.1895  0.4005
36708SOL    HW114809   2.211   2.990   2.800  1.5933 -0.3974 -0.9931
36708SOL    HW214810   2.209   3.093   2.689 -1.1053 -0.8644 -1.4388
36709SOL     OW14811   4.130   4.104   2.275 -0.7311 -0.2192 -0.0049
36709SOL    HW114812   4.081   4.055   2.209  1.3189  0.6512 -2.3627
36709SOL    HW214813   4.191   4.041   2.312  0.2158 -0.1028 -1.2633
36710SOL     OW14814   6.419   7.964   2.764  0.2013 -0.1622  0.1697
36710SOL    HW114815   6.333   7.982   2.726 -0.6871 -2.5707  0.8120
36710SOL    HW214816   6.480   8.017   2.713 -1.5834  1.0909 -0.7463
36711SOL     OW14817   2.207  11.361   3.493 -0.4039 -0.3751 -0.3008
36711SOL    HW114818   2.282  11.301   3.495  0.3687  0.5621 -0.2092
36711SOL    HW214819   2.132  11.306   3.517  0.4218 -1.0962  0.7499
36712SOL     OW14820   1.952   7.735   6.917  0.2048 -0.2116  1.0715
36712SOL    HW114821   1.878   7.705   6.864  0.5458  1.0086 -0.1486
36712SOL    HW214822   1.925   7.821   6.950  1.4817  0.8125 -0.3803
36713SOL     OW14823   4.174   8.116   5.268 -0.3637  0.5850 -0.1579
36713SOL    HW114824   4.081   8.138   5.267 -0.3885  0.4946 -1.3833
36713SOL    HW214825   4.218   8.194   5.234 -0.0646  0.3501 -0.3200
36714SOL     OW14826   2.198   2.658   9.826  0.0031  0.3179  0.4195
36714SOL    HW114827   2.193   2.742   9.871 -1.8259 -0.5838  2.0572
36714SOL    HW214828   2.107   2.635   9.810  0.5100 -0.9516 -0.8168
36715SOL     OW14829   2.290   3.804   7.705  0.5136 -0.7261 -0.4414
36715SOL    HW114830   2.205   3.848   7.701  0.0787 -1.3861  1.0661
36715SOL    HW214831   2.337   3.838   7.629 -0.7062  0.4487 -0.7226
36716SOL     OW14832   5.925   4.047   3.866  0.1983  0.4623  0.3635
36716SOL    HW114833   5.901   4.131   3.827  0.1833  0.7929  1.0722
36716SOL    HW214834   5.873   3.982   3.818  0.4270  0.8222 -0.3828
36717SOL     OW14835   4.248  10.722   9.686 -0.1214 -0.3872 -0.1727
36717SOL    HW114836   4.195  10.709   9.764  1.9488  0.1066  1.4121
36717SOL    HW214837   4.217  10.655   9.625 -0.7904 -1.8174  1.6287
36718SOL     OW14838   6.760   3.498   3.854  0.0959  0.1676 -0.1773
36718SOL    HW114839   6.768   3.504   3.949  0.4063 -0.2467 -0.1788
36718SOL    HW214840   6.666   3.484   3.839  0.2228 -1.0475  0.1318
36719SOL     OW14841  11.494   2.551   0.437 -0.1543 -0.2914  0.3098
36719SOL    HW114842  11.531   2.570   0.523 -0.3790 -0.9783  0.5600
36719SOL    HW214843  11.419   2.494   0.454 -0.4160 -0.1492 -0.3145
36720SOL     OW14844   9.691   7.351  11.201  0.1458 -0.0643  0.1369
36720SOL    HW114845   9.731   7.323  11.283  0.1430  1.5913  0.7310
36720SOL    HW214846   9.617   7.291  11.189  1.3688 -1.6670  0.2234
36721SOL     OW14847   8.535   6.752  11.616 -0.1282 -0.3969  0.8440
36721SOL    HW114848   8.602   6.692  11.583  0.1870 -0.4284  1.5286
36721SOL    HW214849   8.583   6.815  11.669 -0.4117  0.6923 -0.1481
36722SOL     OW14850   9.734   6.315   0.989 -0.0777 -0.1367 -0.0648
36722SOL    HW114851   9.808   6.281   1.039  1.1147  0.9263 -1.0372
36722SOL    HW214852   9.768   6.392   0.944 -1.9969  0.8818  0.0840
36723SOL     OW14853   5.748   0.934   9.137  0.0232  0.0285 -0.3833
36723SOL    HW114854   5.781   0.973   9.056  0.0041  1.0006  0.0597
36723SOL    HW214855   5.670   0.886   9.110  0.9495 -1.0570 -1.1996
36724SOL     OW14856   1.756   3.680   6.008 -0.5457  0.1783  0.0950
36724SOL    HW114857   1.673   3.686   6.054  0.5144 -0.5798  2.2745
36724SOL    HW214858   1.791   3.594   6.033 -0.0449 -0.4789 -2.5143
36725SOL     OW14859   1.114   0.569   3.602 -0.0870  0.7472  0.6728
36725SOL    HW114860   1.149   0.657   3.619  0.9725  0.7222 -1.1527
36725SOL    HW214861   1.082   0.573   3.512 -1.1110 -0.4332  0.9522
36726SOL     OW14862  11.769   2.459   0.392  0.0013 -0.0219  0.4679
36726SOL    HW114863  11.683   2.497   0.375  0.9785  1.3436 -2.0605
36726SOL    HW214864  11.763   2.369   0.360  0.2842  1.0021 -2.9860
36727SOL     OW14865   9.237   1.764   9.040  0.2690  0.2357 -0.2925
36727SOL    HW114866   9.333   1.762   9.050  0.3322  0.7234 -0.7212
36727SOL    HW214867   9.205   1.801   9.122  0.4350 -0.0773 -0.0839
36728SOL     OW14868   4.813   1.941  10.100  0.7273  0.1686  0.0477
36728SOL    HW114869   4.730   1.925  10.145  1.2129  0.0798  0.9448
36728SOL    HW214870   4.791   1.997  10.026 -0.0925  0.3518  0.4297
36729SOL     OW14871  10.483   4.288   3.745 -0.3296 -0.0020  0.2650
36729SOL    HW114872  10.417   4.257   3.683  2.1335  0.4118 -2.7857
36729SOL    HW214873  10.451   4.375   3.772 -0.6464  0.6115 -1.8899
36730SOL     OW14874   8.681  11.277   6.931 -0.4886 -0.8001 -0.1381
36730SOL    HW114875   8.769  11.305   6.954 -0.1871 -0.2902 -1.7548
36730SOL    HW214876   8.671  11.190   6.970  0.3340 -0.4295  0.9245
36731SOL     OW14877   9.147  11.883   2.613  0.1859  0.0070  0.3054
36731SOL    HW114878   9.052  11.892   2.624  0.5326  1.0699  3.1483
36731SOL    HW214879   9.169  11.803   2.660  0.7359 -0.1880 -0.2722
36732SOL     OW14880   2.183   8.058  10.336 -0.5895  0.0707 -0.5165
36732SOL    HW114881   2.113   7.995  10.350 -1.9817  1.6782  0.0556
36732SOL    HW214882   2.175   8.083  10.244 -1.0165  0.5134 -0.3643
36733SOL     OW14883   5.718  10.406   7.115  0.0763 -0.2681 -0.4264
36733SOL    HW114884   5.676  10.320   7.109  0.1048 -0.1613 -4.3894
36733SOL    HW214885   5.645  10.468   7.122 -0.0749 -0.4293 -0.5841
36734SOL     OW14886   8.038   9.731   6.071  0.0248 -0.6616  0.4310
36734SOL    HW114887   8.055   9.702   5.981 -0.8309 -0.8035  0.3058
36734SOL    HW214888   8.118   9.776   6.097 -0.5614  1.5300 -1.2620
36735SOL     OW14889   2.148   4.114  11.306  0.4023 -0.1844 -0.4186
36735SOL    HW114890   2.241   4.130  11.292  0.8542 -0.0330  2.3079
36735SOL    HW214891   2.122   4.178  11.371 -1.3375 -1.0161 -0.2300
36736SOL     OW14892   9.546   7.662   5.777  0.4999 -0.2542 -0.1415
36736SOL    HW114893   9.530   7.682   5.869  0.5996 -1.7357  0.2244
36736SOL    HW214894   9.641   7.652   5.771  0.7446  1.9854 -0.9032
36737SOL     OW14895   7.753   9.179   9.697 -0.3169  0.1183  0.4864
36737SOL    HW114896   7.791   9.188   9.609  0.8375  1.2146  1.0709
36737SOL    HW214897   7.789   9.096   9.730  0.8203  0.6670  0.6588
36738SOL     OW14898   1.409   3.438   5.708 -0.0971  0.2601 -0.3299
36738SOL    HW114899   1.458   3.371   5.661 -1.7471 -0.2420 -1.4491
36738SOL    HW214900   1.472   3.508   5.724  0.7129  0.1495 -2.7074
36739SOL     OW14901   7.591   8.685   5.717  0.4878  0.0719 -0.2869
36739SOL    HW114902   7.572   8.591   5.710 -0.6539  0.3363 -1.1706
36739SOL    HW214903   7.683   8.689   5.743  1.5574 -1.2992 -3.4016
36740SOL     OW14904   9.540   7.671   1.536 -0.0381  0.1494 -0.7492
36740SOL    HW114905   9.512   7.621   1.460  0.1419 -1.4430  0.1798
36740SOL    HW214906   9.478   7.744   1.541 -0.1988  0.1499 -2.2552
36741SOL     OW14907  10.950   6.496   1.381  0.1278 -0.2186  0.5923
36741SOL    HW114908  10.925   6.415   1.336  1.8215  0.0769 -1.0115
36741SOL    HW214909  10.872   6.552   1.374 -0.1869 -0.7720 -0.6066
36742SOL     OW14910   2.417   6.930  11.803  0.2789 -0.3161  0.0148
36742SOL    HW114911   2.502   6.970  11.782 -0.1551  0.5899 -0.0786
36742SOL    HW214912   2.439   6.842  11.833  1.3812  0.3836  1.4026
36743SOL     OW14913   1.349   2.587   3.373  0.0536  0.3608  0.1433
36743SOL    HW114914   1.356   2.528   3.298  0.9981 -1.5273  1.6547
36743SOL    HW214915   1.438   2.620   3.386 -0.1611  0.8998  0.2799
36744SOL     OW14916   1.914   7.449   6.152  0.3497  0.0676  0.1449
36744SOL    HW114917   1.831   7.494   6.166 -0.9018 -2.4600  1.6187
36744SOL    HW214918   1.978   7.500   6.203 -0.4211  1.5898 -0.3423
36745SOL     OW14919  10.817   9.726  11.106  0.5378  0.6233  0.4748
36745SOL    HW114920  10.800   9.784  11.179 -0.3417 -0.0112  0.7876
36745SOL    HW214921  10.757   9.755  11.037  0.7353  0.6556  0.3149
36746SOL     OW14922   0.174   2.927   9.254  0.3366 -0.1774  0.5927
36746SOL    HW114923   0.266   2.919   9.227 -0.0586  0.9971 -1.2735
36746SOL    HW214924   0.169   3.012   9.297 -0.2318  0.7465 -1.1790
36747SOL     OW14925   0.782   3.113  10.431 -0.1155 -0.4110 -0.3935
36747SOL    HW114926   0.842   3.056  10.480 -0.3016  0.4781  0.9405
36747SOL    HW214927   0.695   3.079  10.451 -0.2096  0.1317  0.1648
36748SOL     OW14928   1.971   5.493  10.602 -0.1341 -0.4316  0.2840
36748SOL    HW114929   1.924   5.487  10.519  1.3058 -1.0354 -0.5024
36748SOL    HW214930   1.907   5.533  10.662 -1.2897 -0.2595 -1.0122
36749SOL     OW14931   3.889   1.055  11.593 -0.1450 -0.2167 -0.3419
36749SOL    HW114932   3.973   1.011  11.578 -0.4210 -0.3162 -1.7078
36749SOL    HW214933   3.900   1.142  11.553 -1.0591 -0.6380 -1.5521
36750SOL     OW14934   9.906   1.654   0.383  0.5428 -0.0981 -0.1966
36750SOL    HW114935   9.899   1.706   0.463 -0.2834 -0.7421  0.1595
36750SOL    HW214936   9.925   1.718   0.315 -1.6010  0.8484  0.0280
36751SOL     OW14937   3.261   9.809  10.896 -0.1569  0.0319  0.5683
36751SOL    HW114938   3.204   9.849  10.831 -0.5997  0.4550  1.2109
36751SOL    HW214939   3.202   9.774  10.963  0.2771 -0.6492  0.6124
36752SOL     OW14940   7.746  10.768  10.506  0.6494 -0.0204  0.2453
36752SOL    HW114941   7.738  10.819  10.587  0.5726 -0.9993  0.8734
36752SOL    HW214942   7.799  10.823  10.449 -0.3844  1.2518  0.4753
36753SOL     OW14943   4.309   7.054  10.842  0.2296 -0.0369  0.4890
36753SOL    HW114944   4.234   6.998  10.820 -1.2144  1.6775  0.8056
36753SOL    HW214945   4.385   7.003  10.817 -1.0797 -0.2265 -3.9640
36754SOL     OW14946   5.091   5.123   0.233  0.1232  0.4281  0.0566
36754SOL    HW114947   5.121   5.114   0.143 -0.3949 -0.4773 -0.0428
36754SOL    HW214948   5.088   5.217   0.249  2.8138  0.5721  0.0232
36755SOL     OW14949  11.599   5.804   6.873  0.3523  0.4743  0.6157
36755SOL    HW114950  11.662   5.774   6.808 -0.7649  0.4124 -0.4808
36755SOL    HW214951  11.614   5.899   6.879  0.4061  0.4947  0.1905
36756SOL     OW14952  11.667   8.391   9.091 -0.2641  0.2949 -0.3681
36756SOL    HW114953  11.685   8.309   9.138 -1.9407 -0.6741 -1.3623
36756SOL    HW214954  11.699   8.460   9.151 -0.1473 -0.9998  1.1215
36757SOL     OW14955   1.894   8.911   3.326 -0.4578 -0.6739  0.0596
36757SOL    HW114956   1.849   8.860   3.393  0.9705 -0.5851  1.1250
36757SOL    HW214957   1.987   8.890   3.337  0.0224  1.0133 -0.4577
36758SOL     OW14958   3.396  10.762  10.402 -0.3309 -0.6138  0.0443
36758SOL    HW114959   3.376  10.853  10.421 -1.8053 -0.5789 -1.4441
36758SOL    HW214960   3.440  10.764  10.317 -1.7242 -1.3742 -0.7252
36759SOL     OW14961  11.317   7.887   9.023  0.2288 -0.5279 -0.2035
36759SOL    HW114962  11.251   7.950   8.995  1.8027  0.2758 -2.4252
36759SOL    HW214963  11.374   7.936   9.082 -0.4823 -0.9055  0.8254
36760SOL     OW14964  10.771   0.860   1.203  0.0532 -0.4455 -0.3050
36760SOL    HW114965  10.695   0.915   1.182  0.4146 -0.1031 -0.7447
36760SOL    HW214966  10.846   0.910   1.171  0.8289  0.7490  2.9702
36761SOL     OW14967   4.894   5.129   7.025  0.1310 -0.1884 -0.3618
36761SOL    HW114968   4.953   5.079   6.969  0.0920  0.2357 -0.7887
36761SOL    HW214969   4.922   5.108   7.114  0.8586 -0.0808 -0.5574
36762SOL     OW14970   6.464   8.658   7.680 -0.0439  0.4452  0.3242
36762SOL    HW114971   6.494   8.671   7.770 -0.2815  1.1419  0.3109
36762SOL    HW214972   6.453   8.747   7.645  0.4716  0.1866 -0.5427
36763SOL     OW14973   1.353   7.449   1.296  0.6213  0.7201  0.5612
36763SOL    HW114974   1.381   7.358   1.285  1.3466  0.8867  0.9491
36763SOL    HW214975   1.352   7.462   1.390 -0.1378  0.9229  0.5294
36764SOL     OW14976   8.681   1.065  11.535 -0.0523  0.1224 -0.1496
36764SOL    HW114977   8.714   1.012  11.462  0.1849 -2.7325  1.8536
36764SOL    HW214978   8.603   1.108  11.501  1.6241  1.2313 -2.8785
36765SOL     OW14979   0.652   7.932  11.954 -0.4833  0.6698 -0.6835
36765SOL    HW114980   0.742   7.905  11.940 -1.8168 -3.6672 -2.7506
36765SOL    HW214981   0.621   7.878  12.026 -1.3326  2.6087  0.4975
36766SOL     OW14982  11.962   4.836  11.155 -0.1387  0.4556  0.1003
36766SOL    HW114983  11.874   4.823  11.119  0.6722  0.0574 -1.8828
36766SOL    HW214984  12.021   4.823  11.080  1.6451  0.3161  1.4505
36767SOL     OW14985  10.847   2.889   1.509 -0.0005 -0.4043  0.1373
36767SOL    HW114986  10.881   2.949   1.443  1.7567 -0.4842  0.9011
36767SOL    HW214987  10.772   2.934   1.548  1.6613  1.6175  1.1484
36768SOL     OW14988   2.645  10.842   6.764  0.1261 -0.3118  0.7997
36768SOL    HW114989   2.656  10.749   6.741 -0.6617 -0.4530  0.9322
36768SOL    HW214990   2.612  10.882   6.684  1.7828  0.1503  0.3228
36769SOL     OW14991   6.643   9.815   8.954  0.0818  0.1579 -0.0566
36769SOL    HW114992   6.550   9.837   8.947  0.1189  0.3573  0.0633
36769SOL    HW214993   6.677   9.826   8.865  0.0605  0.4133 -0.0343
36770SOL     OW14994   8.324   7.363   0.942 -0.1469  0.3855  0.1097
36770SOL    HW114995   8.307   7.282   0.894 -0.2261 -0.9518  2.2776
36770SOL    HW214996   8.418   7.361   0.960 -0.2634  0.4197  0.7463
36771SOL     OW14997   0.778   3.513   8.640  0.4842  0.0616 -0.4627
36771SOL    HW114998   0.869   3.519   8.611 -0.1546  3.3267 -2.2744
36771SOL    HW214999   0.726   3.515   8.559 -1.2523  0.1508  0.6008
36772SOL     OW15000   4.745   1.509   2.351  0.3046 -0.4701  0.2150
36772SOL    HW115001   4.740   1.509   2.255 -0.1159  1.0009  0.2171
36772SOL    HW215002   4.686   1.579   2.378  0.8851 -0.4641  1.5221
36773SOL     OW15003   4.440   2.907   9.613 -0.0132 -0.2819 -0.4412
36773SOL    HW115004   4.345   2.909   9.605 -0.2602 -1.0061  1.7576
36773SOL    HW215005   4.472   2.924   9.524 -2.1847 -1.5904 -1.5349
36774SOL     OW15006   5.049   5.408   0.267  0.1927  0.1564 -0.4081
36774SOL    HW115007   5.103   5.459   0.206  0.3498  0.7977  0.2530
36774SOL    HW215008   5.095   5.414   0.350 -0.5608  0.1587  0.0136
36775SOL     OW15009   2.388   1.475   9.937 -0.3912 -0.0626  0.2593
36775SOL    HW115010   2.337   1.407   9.893  2.0186 -0.8444 -1.5756
36775SOL    HW215011   2.361   1.556   9.895  0.3497 -0.5593 -1.2641
36776SOL     OW15012   1.364   0.427   0.291 -0.5736 -0.3293 -0.1968
36776SOL    HW115013   1.397   0.479   0.364  1.4304 -0.7592 -0.7328
36776SOL    HW215014   1.362   0.488   0.217  2.6031 -1.0419 -1.0429
36777SOL     OW15015  10.712   9.403   5.945 -0.2629 -0.0613 -0.8366
36777SOL    HW115016  10.745   9.428   6.031 -0.2253 -2.0396 -0.2122
36777SOL    HW215017  10.619   9.428   5.948  0.1423  1.5873 -0.9703
36778SOL     OW15018   0.488   8.034   6.275  0.3099 -0.4246  0.1382
36778SOL    HW115019   0.556   8.055   6.211  0.2849  0.7827  0.4831
36778SOL    HW215020   0.531   7.974   6.336 -0.1965 -3.1887 -1.9895
36779SOL     OW15021   4.267   4.670   1.025 -0.1193  0.1507  0.6448
36779SOL    HW115022   4.270   4.695   1.117 -0.5124  1.1686  0.3919
36779SOL    HW215023   4.259   4.753   0.977  2.3759 -0.1588 -0.4580
36780SOL     OW15024   6.132   6.144   5.293 -0.2456 -0.9826  0.8600
36780SOL    HW115025   6.133   6.054   5.261 -0.0565 -0.5944 -0.3011
36780SOL    HW215026   6.082   6.141   5.374 -1.5775 -1.8644  0.0357
36781SOL     OW15027   1.355   4.107   3.824 -0.7577  0.6764 -0.3891
36781SOL    HW115028   1.263   4.083   3.810 -1.4358  1.9226  1.4940
36781SOL    HW215029   1.359   4.131   3.917  1.0471  2.4717 -0.8766
36782SOL     OW15030   1.897  10.428   4.036 -0.3763  0.1246 -0.2048
36782SOL    HW115031   1.806  10.402   4.048 -0.6445  0.9018 -0.5089
36782SOL    HW215032   1.935  10.424   4.124 -1.1858  1.5178  0.2528
36783SOL     OW15033   7.577   3.186  10.073  0.1529  0.0600 -0.0440
36783SOL    HW115034   7.508   3.229  10.124  0.5826  0.6384  0.0606
36783SOL    HW215035   7.580   3.236   9.991  0.3804 -0.0279 -0.0894
36784SOL     OW15036  10.883   3.966   6.266  0.0563 -0.0154 -0.4836
36784SOL    HW115037  10.828   3.996   6.339  0.1812 -1.0182  0.0459
36784SOL    HW215038  10.945   4.037   6.252 -0.5575  0.5837 -0.2257
36785SOL     OW15039  10.775   9.148   6.422  0.6577  0.4118 -0.0366
36785SOL    HW115040  10.783   9.099   6.504 -2.5839  0.8737  0.7052
36785SOL    HW215041  10.695   9.200   6.433  0.5576  1.1213 -3.1925
36786SOL     OW15042   1.834   7.789   2.120 -0.0988 -0.3709  0.0943
36786SOL    HW115043   1.810   7.696   2.120  1.0474 -0.6932 -0.5893
36786SOL    HW215044   1.860   7.806   2.211 -0.8822 -0.5453  0.3645
36787SOL     OW15045   3.664   2.759   6.839 -0.2149 -0.3785 -0.7301
36787SOL    HW115046   3.759   2.751   6.842 -0.2777 -1.8012 -1.6751
36787SOL    HW215047   3.631   2.671   6.856 -1.3280 -0.1641 -1.5778
36788SOL     OW15048   0.168   8.825   3.866  0.3180  0.7414 -0.1277
36788SOL    HW115049   0.204   8.764   3.802  0.8788 -0.3463  1.1642
36788SOL    HW215050   0.083   8.787   3.890  0.4286  0.7394  0.2819
36789SOL     OW15051  10.759  10.068   8.329  0.4252 -0.4272  0.0953
36789SOL    HW115052  10.830  10.004   8.338  0.1408 -0.7289  0.2346
36789SOL    HW215053  10.785  10.142   8.384  1.1070 -0.1061 -0.6428
36790SOL     OW15054   0.860   8.452   6.023  0.3405  0.6495 -0.4625
36790SOL    HW115055   0.882   8.488   6.109 -0.2013  0.3416 -0.1900
36790SOL    HW215056   0.933   8.395   6.002 -0.2072 -0.4545  0.4872
36791SOL     OW15057   9.856   4.483   5.186 -0.0307  0.1480 -0.5160
36791SOL    HW115058   9.914   4.458   5.113  1.5379  0.3520  0.6020
36791SOL    HW215059   9.802   4.406   5.202  1.8982 -1.1277  0.2145
36792SOL     OW15060   0.423   0.283   4.256 -0.1359 -0.0048 -0.0426
36792SOL    HW115061   0.429   0.295   4.351 -0.4044  0.7314 -0.1076
36792SOL    HW215062   0.332   0.258   4.240  0.1973 -1.3306 -0.0039
36793SOL     OW15063   0.578   3.738   6.400 -0.0967 -0.3864  0.3318
36793SOL    HW115064   0.644   3.669   6.406  1.4282  0.7064 -2.0169
36793SOL    HW215065   0.497   3.692   6.379  1.1487 -1.5040 -2.6028
36794SOL     OW15066   2.479   0.964   3.206 -0.4698  0.8237 -0.4858
36794SOL    HW115067   2.544   0.954   3.276 -0.3808  0.0830 -0.6739
36794SOL    HW215068   2.395   0.966   3.251 -0.8140 -3.7093 -0.5379
36795SOL     OW15069   3.584   6.610   4.322 -0.1395  0.2853 -0.7037
36795SOL    HW115070   3.631   6.678   4.371  0.1737  0.4019 -1.1575
36795SOL    HW215071   3.654   6.560   4.280 -0.2754 -1.1887  0.7367
36796SOL     OW15072   1.427   5.834   1.265  0.0159  0.4699  0.1340
36796SOL    HW115073   1.503   5.890   1.276 -1.0398  1.9377  0.2570
36796SOL    HW215074   1.353   5.894   1.264 -1.2444 -0.9776  1.0282
36797SOL     OW15075   2.923   2.796   0.927  0.1786  0.1558 -0.1506
36797SOL    HW115076   2.863   2.743   0.980  0.1763  1.4656  1.2514
36797SOL    HW215077   2.894   2.784   0.837 -1.4298 -0.1888  0.3847
36798SOL     OW15078   9.187   1.273   1.098 -0.7425 -0.1521 -0.3575
36798SOL    HW115079   9.227   1.244   1.179 -0.3060  1.3086 -0.0210
36798SOL    HW215080   9.105   1.315   1.125 -1.0017 -0.3886 -0.7593
36799SOL     OW15081   5.101  11.298   6.344 -0.1553 -0.2142  0.0485
36799SOL    HW115082   5.064  11.266   6.427 -2.1791  0.2127 -0.6175
36799SOL    HW215083   5.179  11.347   6.370 -1.0524  0.4059  1.7925
36800SOL     OW15084   0.200   0.058   0.969  0.3664 -0.0640  0.3706
36800SOL    HW115085   0.194   0.101   0.884  1.9259  0.6426  0.5779
36800SOL    HW215086   0.111   0.060   1.004  0.0744  1.3691 -0.4010
36801SOL     OW15087   1.579   4.871   7.520  0.1235 -0.5804  0.3990
36801SOL    HW115088   1.602   4.781   7.494  0.6094 -0.1232 -0.8349
36801SOL    HW215089   1.631   4.926   7.462 -0.3145  0.5068  1.0233
36802SOL     OW15090   2.309   2.794   3.552  0.2475 -0.2496 -0.2778
36802SOL    HW115091   2.405   2.800   3.549  0.2383  0.9481  1.0076
36802SOL    HW215092   2.291   2.730   3.620  0.1392  0.8392  0.7426
36803SOL     OW15093   4.141  11.371   0.774 -0.0320 -0.0866  0.3749
36803SOL    HW115094   4.103  11.457   0.753 -0.3654 -0.2367  0.3603
36803SOL    HW215095   4.070  11.323   0.817 -0.1809 -0.7320 -0.5599
36804SOL     OW15096   3.418   1.918  11.874  0.0942 -0.7341  0.2272
36804SOL    HW115097   3.431   2.000  11.828 -0.8525 -1.8925 -2.2569
36804SOL    HW215098   3.443   1.937  11.965  2.5269  1.5308 -0.7973
36805SOL     OW15099   8.993   3.572   2.382 -0.4385  0.1285  0.2702
36805SOL    HW115100   9.077   3.600   2.347 -0.0988 -0.1338  0.8548
36805SOL    HW215101   8.956   3.650   2.421 -1.6503  0.8865 -2.1919
36806SOL     OW15102   4.829   2.967   2.797 -0.5805 -0.0665 -0.1583
36806SOL    HW115103   4.777   2.911   2.855  0.0925  1.3613  1.9321
36806SOL    HW215104   4.798   3.055   2.813  1.2617  0.6358 -0.1728
36807SOL     OW15105  11.050   7.757   3.167 -0.1840 -0.2857 -0.1039
36807SOL    HW115106  11.118   7.816   3.198  0.3231 -1.5289  1.2344
36807SOL    HW215107  10.970   7.788   3.211  0.2730 -1.1847  1.4328
36808SOL     OW15108   3.760  10.541   7.805  0.1230  0.3171 -0.3597
36808SOL    HW115109   3.828  10.562   7.740  0.0939 -0.3702 -0.6182
36808SOL    HW215110   3.717  10.625   7.822  0.9351  0.7369 -0.3041
36809SOL     OW15111   0.749  11.154   9.378 -0.1865 -0.1137  0.1138
36809SOL    HW115112   0.767  11.061   9.394  0.1134  0.4285  3.6326
36809SOL    HW215113   0.827  11.185   9.332 -0.2312 -1.5495 -1.0124
36810SOL     OW15114   1.746  10.098   8.470 -0.0505  0.2073 -0.1767
36810SOL    HW115115   1.841  10.086   8.475  0.0306 -1.3145 -3.4147
36810SOL    HW215116   1.712  10.052   8.547  1.7800  0.4445  0.8281
36811SOL     OW15117   8.970   9.100  10.902 -0.1685 -0.4911 -0.1327
36811SOL    HW115118   8.958   9.177  10.956  0.0079  0.4161 -1.3443
36811SOL    HW215119   9.065   9.092  10.892 -0.1904 -0.7826 -0.1383
36812SOL     OW15120   9.923   9.395   2.580  0.1439  0.7229 -0.2996
36812SOL    HW115121  10.010   9.381   2.543  0.1375 -0.4073  0.0651
36812SOL    HW215122   9.922   9.341   2.659 -0.4307  1.7682  0.4275
36813SOL     OW15123   6.593   3.233   2.644 -0.2004  0.0002 -0.0137
36813SOL    HW115124   6.638   3.236   2.559 -2.9308 -0.8752 -1.6123
36813SOL    HW215125   6.643   3.293   2.699  1.4765  0.9024 -2.3373
36814SOL     OW15126   8.357  11.339   6.076 -0.0717  0.0955  0.2013
36814SOL    HW115127   8.374  11.363   6.166 -1.5678  1.4615  0.1512
36814SOL    HW215128   8.290  11.400   6.046  0.0682 -0.6021 -1.7023
36815SOL     OW15129   2.160   5.245   3.054 -0.4080 -0.1305 -0.2164
36815SOL    HW115130   2.251   5.234   3.083 -0.2747 -0.3648 -0.6931
36815SOL    HW215131   2.119   5.300   3.120 -0.5125 -1.8123  1.1872
36816SOL     OW15132   1.555   9.915   4.543  0.0150 -0.1207  0.0631
36816SOL    HW115133   1.598   9.871   4.469  2.0524 -0.4993  1.3908
36816SOL    HW215134   1.526   9.844   4.599 -1.6821  0.1636 -0.4088
36817SOL     OW15135  11.668   8.699   5.233 -0.4539  0.0985  0.2271
36817SOL    HW115136  11.674   8.794   5.225 -0.1146  0.0206 -0.5673
36817SOL    HW215137  11.581   8.678   5.198 -0.1393  0.0292 -0.5208
36818SOL     OW15138   6.695   5.487   4.836 -0.5487  0.7840 -0.6600
36818SOL    HW115139   6.775   5.438   4.857 -0.1942  2.5345  2.8579
36818SOL    HW215140   6.702   5.507   4.743  1.9853 -1.0379 -0.9565
36819SOL     OW15141   0.879   4.012   5.077 -0.3026  0.2639  0.5861
36819SOL    HW115142   0.806   4.063   5.114 -1.1711 -0.3987 -0.1543
36819SOL    HW215143   0.958   4.056   5.108 -0.9888  0.2655  2.4849
36820SOL     OW15144   9.631   4.137   0.646 -0.4035  0.2672 -0.2393
36820SOL    HW115145   9.585   4.149   0.563  0.8197  1.0183 -0.8406
36820SOL    HW215146   9.707   4.194   0.639 -0.3935  0.5072  1.5034
36821SOL     OW15147   8.933   6.768   0.582  0.6991  0.0954 -0.0614
36821SOL    HW115148   8.902   6.807   0.501 -0.5183 -0.1731  0.2537
36821SOL    HW215149   8.984   6.837   0.624  0.4675  0.5828 -0.5657
36822SOL     OW15150  10.036   0.061  10.073  0.0622  0.2356 -0.3691
36822SOL    HW115151  10.121   0.017  10.064  0.2360  0.2363  1.0718
36822SOL    HW215152  10.040   0.134  10.011  0.8125 -0.2100 -0.8611
36823SOL     OW15153   8.759   1.070   7.149  0.3736  0.2169 -0.7378
36823SOL    HW115154   8.728   1.151   7.110 -0.5112  0.3470  0.1940
36823SOL    HW215155   8.753   1.085   7.244  0.9955 -0.6305 -0.5495
36824SOL     OW15156   7.973   6.653   2.071  0.1077 -0.2855 -0.5916
36824SOL    HW115157   8.039   6.689   2.012  0.3527 -0.4371 -0.4147
36824SOL    HW215158   7.926   6.588   2.018  1.0052 -1.1655 -0.3412
36825SOL     OW15159   0.698  11.486   2.980  0.1471 -0.3128  0.3998
36825SOL    HW115160   0.688  11.535   2.899  0.3768  0.2728  0.7249
36825SOL    HW215161   0.717  11.396   2.951 -0.9082 -0.3640 -0.1959
36826SOL     OW15162   3.828   4.828   1.174  0.1705  0.0379 -0.1866
36826SOL    HW115163   3.840   4.806   1.081 -0.4842  1.3896 -0.6181
36826SOL    HW215164   3.746   4.877   1.177  0.3922  0.3734  1.0521
36827SOL     OW15165   5.627   7.517   5.479  0.2884  0.1942 -0.0276
36827SOL    HW115166   5.640   7.423   5.489  1.7305  0.2389 -1.2208
36827SOL    HW215167   5.666   7.555   5.558  1.0841 -0.1346 -0.2510
36828SOL     OW15168   5.088   2.673   6.883 -0.3239 -0.5499  0.4396
36828SOL    HW115169   5.020   2.612   6.854  1.0426 -2.7136  1.4927
36828SOL    HW215170   5.041   2.742   6.929 -2.0781  0.1801 -2.2257
36829SOL     OW15171   3.701   8.254   1.689  0.8289 -0.2096  0.3917
36829SOL    HW115172   3.764   8.194   1.648  0.1710 -0.6063 -0.0633
36829SOL    HW215173   3.684   8.320   1.622 -1.5306 -1.7818 -0.7124
36830SOL     OW15174   5.201   9.960   8.440  0.1062  0.0027 -0.1517
36830SOL    HW115175   5.230   9.889   8.383  2.3681  1.0637 -0.4579
36830SOL    HW215176   5.238  10.039   8.400 -1.1445  1.1941  0.9356
36831SOL     OW15177   6.089  10.313   7.778 -0.0277  0.0658  0.0884
36831SOL    HW115178   6.020  10.250   7.800  0.1853 -0.5283 -0.8689
36831SOL    HW215179   6.158  10.297   7.843 -1.1073  1.2606  1.6042
36832SOL     OW15180  11.698   8.151   6.646 -0.1071  0.0305 -0.0552
36832SOL    HW115181  11.621   8.098   6.626 -0.5438  0.5201  0.2897
36832SOL    HW215182  11.740   8.105   6.719 -0.6212  0.2805  0.4073
36833SOL     OW15183   8.486   6.315   0.904  0.6346 -0.0961 -0.4288
36833SOL    HW115184   8.493   6.348   0.994 -0.9300  1.3589 -0.7884
36833SOL    HW215185   8.572   6.331   0.866  0.6223  1.5308  0.1316
36834SOL     OW15186   7.890   5.187   9.980 -0.3011 -1.0845  0.0639
36834SOL    HW115187   7.933   5.177  10.065  1.2395 -1.7040 -0.7458
36834SOL    HW215188   7.830   5.261   9.992 -0.3791 -1.3946  1.7763
36835SOL     OW15189   4.094   9.107   7.866 -0.0051  0.3441  0.3763
36835SOL    HW115190   4.133   9.050   7.932 -0.9992  1.1603  1.7164
36835SOL    HW215191   4.133   9.193   7.882 -1.1222  0.8120  0.7035
36836SOL     OW15192   7.711  11.482  11.462  0.3814  0.8212 -0.0074
36836SOL    HW115193   7.631  11.516  11.421  0.3011  0.4392 -0.1767
36836SOL    HW215194   7.781  11.535  11.424  0.1302  1.8947  0.9512
36837SOL     OW15195   1.892   6.250   4.431  0.5821 -0.1281 -0.3287
36837SOL    HW115196   1.984   6.277   4.423  0.9622 -1.3029 -0.0956
36837SOL    HW215197   1.870   6.211   4.347  0.6317 -0.8164 -0.0284
36838SOL     OW15198   1.216   8.273   1.939  1.2532 -0.1818  0.2178
36838SOL    HW115199   1.301   8.315   1.952  0.4969  2.0686 -1.5720
36838SOL    HW215200   1.197   8.285   1.846 -0.6116 -1.5157  0.3628
36839SOL     OW15201  11.746   3.856   1.990 -0.0178  0.4786  0.6811
36839SOL    HW115202  11.740   3.949   1.971  1.1136  0.1416 -1.7152
36839SOL    HW215203  11.656   3.828   2.003 -0.7316  1.3709 -1.7738
36840SOL     OW15204   4.595   9.927   1.063 -0.5804 -0.1816  0.4707
36840SOL    HW115205   4.653   9.851   1.067 -0.3819 -0.2008 -1.7416
36840SOL    HW215206   4.612   9.966   0.977  0.4292  3.2628  2.0499
36841SOL     OW15207   0.857   9.617   9.655  0.2040 -0.1720 -0.5498
36841SOL    HW115208   0.802   9.692   9.633  0.7925  0.6518  0.6861
36841SOL    HW215209   0.795   9.547   9.676 -0.3668  0.3019 -0.6218
36842SOL     OW15210   4.326   1.700   2.868  1.0493 -0.0432 -0.2317
36842SOL    HW115211   4.329   1.699   2.963  1.0378 -1.4012 -0.2316
36842SOL    HW215212   4.235   1.681   2.846  1.2254 -0.5878 -0.5126
36843SOL     OW15213   9.534   6.253   0.831  0.6584  0.1231  0.3642
36843SOL    HW115214   9.506   6.342   0.809  1.0256 -0.1692 -1.4526
36843SOL    HW215215   9.595   6.264   0.903 -1.3047  1.0824  1.9690
36844SOL     OW15216   6.646   0.660   1.746  0.0271  0.0091 -0.3946
36844SOL    HW115217   6.669   0.669   1.838 -1.2134  0.1605 -0.0756
36844SOL    HW215218   6.551   0.644   1.747  0.2719 -1.7934 -1.5408
36845SOL     OW15219   6.770   7.754   1.016  0.2416  0.0815  0.7897
36845SOL    HW115220   6.798   7.695   1.085  1.2904  0.0914  0.3848
36845SOL    HW215221   6.674   7.749   1.018  0.3019 -1.4509  0.9079
36846SOL     OW15222   1.103   6.880   4.162  0.3706  0.1877 -0.8351
36846SOL    HW115223   1.080   6.861   4.071 -0.9074  0.1277 -0.5200
36846SOL    HW215224   1.199   6.875   4.164  0.3551 -1.1568 -1.8784
36847SOL     OW15225  10.038   5.539   3.446 -0.5095 -0.4289  0.2916
36847SOL    HW115226   9.960   5.561   3.395 -2.3795 -1.4845  2.5304
36847SOL    HW215227  10.059   5.620   3.493 -1.1430 -0.5392  0.7716
36848SOL     OW15228   3.987  11.935   1.523 -0.0523  0.0853  0.5447
36848SOL    HW115229   4.081  11.952   1.516 -0.1082  0.2718  0.2625
36848SOL    HW215230   3.957  11.929   1.433 -0.5147  1.1118  0.6167
36849SOL     OW15231   6.445   1.675   7.765  0.3391 -0.3059 -0.0064
36849SOL    HW115232   6.375   1.709   7.820 -1.5079  0.0510 -2.4251
36849SOL    HW215233   6.475   1.751   7.715  1.2297 -0.8330 -0.2930
36850SOL     OW15234   6.853   1.414   9.683 -0.1938 -0.1089 -0.5776
36850SOL    HW115235   6.889   1.354   9.618 -1.2092 -1.1205 -0.2391
36850SOL    HW215236   6.896   1.498   9.666  1.0130 -0.8525 -1.2699
36851SOL     OW15237   5.150   0.297   0.741 -0.0651  1.2912 -0.0558
36851SOL    HW115238   5.115   0.213   0.770  2.2680  0.5261  0.7324
36851SOL    HW215239   5.119   0.306   0.650 -0.4276 -0.3702 -0.1245
36852SOL     OW15240   7.312   9.587   5.377  0.4297  0.0492 -0.3091
36852SOL    HW115241   7.271   9.656   5.325  0.5200 -0.1594 -0.6632
36852SOL    HW215242   7.384   9.556   5.322  0.8583  0.1863  0.1652
36853SOL     OW15243   0.766   1.640  10.147 -0.2726 -0.0204  0.3589
36853SOL    HW115244   0.798   1.725  10.176  0.0965 -0.5893  1.7041
36853SOL    HW215245   0.736   1.655  10.057 -0.3513  1.5477  0.6171
36854SOL     OW15246  10.565   8.539   8.419  0.7961 -0.1228 -0.0256
36854SOL    HW115247  10.521   8.492   8.490 -2.2901  2.1981 -0.1845
36854SOL    HW215248  10.508   8.526   8.343  1.5277  1.2278 -0.8471
36855SOL     OW15249   4.971  11.086  10.929  0.3099 -0.0676 -0.3847
36855SOL    HW115250   4.924  11.013  10.890 -0.8278  1.1910 -1.4835
36855SOL    HW215251   4.996  11.055  11.016 -0.4334 -1.6302 -0.6996
36856SOL     OW15252   9.121   4.117   7.075  0.4561 -0.3094 -0.0732
36856SOL    HW115253   9.087   4.028   7.083  1.7086 -1.0484 -2.1068
36856SOL    HW215254   9.155   4.122   6.986 -0.8578  2.7069 -0.5274
36857SOL     OW15255   7.506   0.701   3.434 -0.3918 -0.0525 -0.3884
36857SOL    HW115256   7.529   0.713   3.342 -1.4732  0.5901 -0.5897
36857SOL    HW215257   7.525   0.609   3.451 -1.9803 -0.7208 -1.8209
36858SOL     OW15258   4.383   9.441  11.632  0.1941  0.3627 -0.2601
36858SOL    HW115259   4.366   9.534  11.618  0.6352  0.4194 -0.4498
36858SOL    HW215260   4.414   9.409  11.547  0.2966  0.1028 -0.1274
36859SOL     OW15261   0.774   6.687   2.135  0.0067  0.5338 -0.1750
36859SOL    HW115262   0.869   6.680   2.133 -0.1112 -2.2874 -1.1646
36859SOL    HW215263   0.753   6.744   2.060  0.8939  1.0350 -0.0583
36860SOL     OW15264   8.417   0.067   7.940 -0.7532 -0.6833 -0.0162
36860SOL    HW115265   8.472   0.034   7.869 -0.8276  2.1872 -1.5602
36860SOL    HW215266   8.332   0.080   7.900 -0.9434  0.5049  0.7448
36861SOL     OW15267   5.291   5.723   4.280 -0.0675  0.7839 -0.6835
36861SOL    HW115268   5.288   5.818   4.271  0.1349  0.9215  0.6248
36861SOL    HW215269   5.205   5.699   4.315  0.1065  0.5586 -0.4037
36862SOL     OW15270   6.370   2.815   5.525 -0.5520  0.4038 -0.3681
36862SOL    HW115271   6.456   2.826   5.487 -0.9026  1.0790 -0.9989
36862SOL    HW215272   6.336   2.905   5.534 -0.7553  0.2186  0.8765
36863SOL     OW15273   6.938   3.652  11.323  0.4488  0.0198 -0.6839
36863SOL    HW115274   6.847   3.644  11.352  0.9592 -0.4705  0.8743
36863SOL    HW215275   6.968   3.562  11.311  1.1347  0.1124  0.2169
36864SOL     OW15276   8.609   6.366   5.262  0.3225  0.0017 -0.1338
36864SOL    HW115277   8.543   6.390   5.197 -0.8178  0.0558  1.0084
36864SOL    HW215278   8.648   6.285   5.228 -0.7386 -0.3504 -0.5434
36865SOL     OW15279   6.539   7.133  10.927  0.0893  0.0165 -0.6038
36865SOL    HW115280   6.521   7.133  11.021  0.0630 -1.2629 -0.5827
36865SOL    HW215281   6.607   7.200  10.915  2.9852 -2.3668  0.9598
36866SOL     OW15282   6.005   5.048  10.506 -0.3514  0.3502  0.1296
36866SOL    HW115283   6.007   4.973  10.567 -0.7243 -0.3460 -0.7034
36866SOL    HW215284   6.054   5.117  10.552  0.0662 -0.4269  0.8815
36867SOL     OW15285  11.494   3.334  11.820 -0.3888  0.4243  0.4826
36867SOL    HW115286  11.506   3.397  11.749 -1.4165  0.0602 -0.0340
36867SOL    HW215287  11.454   3.258  11.778 -0.4396 -0.0350  1.3481
36868SOL     OW15288   1.076   9.613   2.872  0.3949  0.0181  0.2287
36868SOL    HW115289   1.034   9.696   2.891  0.5827 -0.0251  0.8616
36868SOL    HW215290   1.164   9.621   2.910  0.2745 -0.6153  0.6608
36869SOL     OW15291   3.682   9.183   2.923 -0.1181  0.5186 -0.1019
36869SOL    HW115292   3.667   9.208   3.014 -0.7360 -0.1286 -0.0148
36869SOL    HW215293   3.776   9.197   2.910  0.3037 -0.8779  1.1165
36870SOL     OW15294   8.843   2.657  10.330 -0.2380 -0.4201  0.1316
36870SOL    HW115295   8.836   2.728  10.265 -0.4671  1.3136  1.9379
36870SOL    HW215296   8.760   2.661  10.378  0.2847 -1.0451  1.1151
36871SOL     OW15297   2.658   3.165   6.124 -0.2330  0.1091 -0.0012
36871SOL    HW115298   2.623   3.253   6.140  0.3478  0.1511  1.1652
36871SOL    HW215299   2.747   3.168   6.159  0.1179 -0.6838 -0.7864
36872SOL     OW15300   4.365   4.655   0.208  0.1083  0.3523  0.1922
36872SOL    HW115301   4.315   4.585   0.251  0.3189 -0.0694 -0.2463
36872SOL    HW215302   4.326   4.736   0.242 -1.3699  0.0466 -0.6934
36873SOL     OW15303  10.418   1.921   6.239 -0.0571 -0.6011 -0.0221
36873SOL    HW115304  10.489   1.985   6.230  1.6649 -2.1792  1.4667
36873SOL    HW215305  10.367   1.952   6.313  0.3871 -0.5980  0.2869
36874SOL     OW15306   7.088   0.674   2.773 -0.7713  0.5714  0.1685
36874SOL    HW115307   7.124   0.592   2.740  0.2658  0.8782  0.5146
36874SOL    HW215308   6.994   0.657   2.781 -0.9124  0.1714 -1.9483
36875SOL     OW15309   7.840   9.843   5.457 -0.6595 -0.4838 -0.2486
36875SOL    HW115310   7.928   9.845   5.495 -0.6169 -3.3798  0.1076
36875SOL    HW215311   7.786   9.892   5.519  0.5081  0.2996  0.1785
36876SOL     OW15312  11.406   3.152  11.234 -0.0969 -0.4267  0.5075
36876SOL    HW115313  11.354   3.074  11.251  1.3344 -1.2446  1.3151
36876SOL    HW215314  11.422   3.151  11.140 -1.9933  0.1844  0.1240
36877SOL     OW15315   2.502   6.478   2.123  0.2443  0.0030 -0.0557
36877SOL    HW115316   2.581   6.484   2.176  0.5937  1.1350 -0.6817
36877SOL    HW215317   2.518   6.536   2.049 -0.1344 -1.7289 -1.5512
36878SOL     OW15318   8.183   4.283  11.827 -0.3797 -0.0233 -0.3000
36878SOL    HW115319   8.196   4.220  11.756  1.0853  0.3023 -0.3639
36878SOL    HW215320   8.215   4.366  11.791  0.7716  0.0707  0.8404
36879SOL     OW15321   2.351   6.338   2.925 -0.3192 -0.6026 -0.1417
36879SOL    HW115322   2.406   6.361   3.000 -0.7135 -2.4577  0.7917
36879SOL    HW215323   2.412   6.298   2.862  0.3921  2.7275 -1.8260
36880SOL     OW15324   9.394   5.273   9.442 -0.2477 -0.2098 -0.3729
36880SOL    HW115325   9.303   5.248   9.430 -0.5602 -0.1206  1.5303
36880SOL    HW215326   9.391   5.353   9.494  0.9109  0.3396 -1.0908
36881SOL     OW15327  11.155   9.063   6.891  0.2091  0.4770 -0.2135
36881SOL    HW115328  11.111   9.001   6.833  0.5134 -0.9381  1.0016
36881SOL    HW215329  11.099   9.141   6.890 -0.1500  0.2330 -1.8218
36882SOL     OW15330   9.452   3.131   2.961  0.1256  0.2553 -0.0369
36882SOL    HW115331   9.420   3.168   2.878 -0.6539 -0.6199 -0.1466
36882SOL    HW215332   9.373   3.118   3.013  0.6639  1.2939  1.0727
36883SOL     OW15333   5.118   9.088   0.042 -0.0036  0.1598  0.3125
36883SOL    HW115334   5.200   9.134   0.059  0.7451 -0.7507 -0.6888
36883SOL    HW215335   5.063   9.152  -0.003  0.7301  0.3285 -0.3665
36884SOL     OW15336   9.297  10.637   8.888  0.3210 -0.0468 -0.5461
36884SOL    HW115337   9.263  10.566   8.942 -0.7437  0.3032 -0.7436
36884SOL    HW215338   9.366  10.676   8.941 -0.3275 -0.0658  0.3262
36885SOL     OW15339   4.586   9.992   5.318  0.1458 -0.1568  0.0403
36885SOL    HW115340   4.572  10.075   5.363  1.2623  1.1765 -1.9192
36885SOL    HW215341   4.511   9.938   5.344  0.2179  0.8616  2.5961
36886SOL     OW15342   9.600   0.608   3.991  0.0990 -0.7106 -0.6445
36886SOL    HW115343   9.631   0.655   4.068  1.0832  0.2570 -1.6138
36886SOL    HW215344   9.551   0.673   3.941  0.5191 -1.0029 -1.4475
36887SOL     OW15345   7.429   5.516   2.719  0.4766  0.2591 -0.9556
36887SOL    HW115346   7.465   5.549   2.637  0.7431  0.3378 -0.8067
36887SOL    HW215347   7.446   5.586   2.782  1.9166 -0.5586 -0.4019
36888SOL     OW15348   3.663   7.077   2.304 -0.3096 -0.0730 -0.2176
36888SOL    HW115349   3.584   7.126   2.281 -0.3677 -0.7381 -1.5057
36888SOL    HW215350   3.734   7.142   2.297 -0.4118 -0.0749 -1.6930
36889SOL     OW15351   3.255   7.009   3.509  0.0558  0.0979  0.9462
36889SOL    HW115352   3.161   7.004   3.496 -0.2293  1.2815  2.2800
36889SOL    HW215353   3.271   6.963   3.591  0.6773 -0.3077  0.6063
36890SOL     OW15354   8.144   0.478   4.668  0.5621 -0.2438  0.6131
36890SOL    HW115355   8.173   0.454   4.580 -0.4932  0.1508  0.1360
36890SOL    HW215356   8.201   0.428   4.727  0.2414 -1.7632 -0.3082
36891SOL     OW15357   7.884   3.874   2.007 -0.3899  0.3617  0.0107
36891SOL    HW115358   7.896   3.788   1.966 -1.3926 -0.6494  1.7405
36891SOL    HW215359   7.947   3.931   1.962  0.6129 -1.3752 -0.8792
36892SOL     OW15360   4.707   8.852   5.579  1.0012  0.4138  0.0543
36892SOL    HW115361   4.652   8.790   5.531  0.3329  0.4953  0.6863
36892SOL    HW215362   4.683   8.838   5.671  0.7846  1.6498  0.2054
36893SOL     OW15363   9.529   5.321   0.576 -0.4666  0.5848 -0.2298
36893SOL    HW115364   9.438   5.321   0.607 -0.6964 -3.1684 -0.4592
36893SOL    HW215365   9.522   5.308   0.482  0.2523 -1.6458 -0.0208
36894SOL     OW15366  11.933   4.571   0.531  0.5299 -0.2643  0.0137
36894SOL    HW115367  11.994   4.596   0.600  1.6340  0.2886 -1.1338
36894SOL    HW215368  11.983   4.513   0.474 -0.7682 -1.8026  0.3695
36895SOL     OW15369   4.327   8.977   8.950  0.0769  0.0382 -0.2991
36895SOL    HW115370   4.247   9.023   8.974  0.3874  0.5216 -0.1680
36895SOL    HW215371   4.310   8.885   8.971 -1.0726 -0.1447 -1.8993
36896SOL     OW15372   6.263   3.064   5.567  0.1083 -0.4248 -0.3644
36896SOL    HW115373   6.244   3.039   5.658  0.5305  0.4815 -0.0112
36896SOL    HW215374   6.286   3.157   5.573  2.1527 -0.8451 -1.1211
36897SOL     OW15375   4.653   0.537   1.865 -0.0828  0.0688  0.6400
36897SOL    HW115376   4.700   0.618   1.887 -1.6618  1.8003 -1.8207
36897SOL    HW215377   4.720   0.482   1.823  0.2033  1.8827 -1.4663
36898SOL     OW15378  10.587   6.869   1.739  0.0208 -0.1470 -0.5902
36898SOL    HW115379  10.513   6.815   1.765 -0.6673  0.6302 -0.8985
36898SOL    HW215380  10.664   6.817   1.762 -0.6066 -0.7407  0.2112
36899SOL     OW15381   2.570  10.144  10.886  0.0899 -0.1088 -0.6094
36899SOL    HW115382   2.649  10.195  10.906  0.1500 -0.1661 -0.7012
36899SOL    HW215383   2.500  10.209  10.888 -0.1978 -0.4022  1.6291
36900SOL     OW15384   5.801   6.173   8.080 -1.0005  0.5104  0.1525
36900SOL    HW115385   5.801   6.101   8.143 -0.4770  1.5526  1.4085
36900SOL    HW215386   5.741   6.145   8.011  0.2785 -1.7303 -0.1630
36901SOL     OW15387   8.466  11.908   7.429 -0.8644 -0.1314  0.0750
36901SOL    HW115388   8.542  11.964   7.441  0.0141 -0.6935 -2.2955
36901SOL    HW215389   8.458  11.898   7.334 -1.1551 -3.7344  0.3430
36902SOL     OW15390   9.614  10.697   4.013 -0.0986  0.7069  0.2120
36902SOL    HW115391   9.623  10.743   3.930  1.8820  0.4060  0.2035
36902SOL    HW215392   9.525  10.660   4.011 -0.2904  1.1764 -1.5119
36903SOL     OW15393   4.956  11.609   7.527  0.8440 -0.9010  0.0891
36903SOL    HW115394   5.013  11.536   7.505  0.7118 -1.1189  0.4548
36903SOL    HW215395   5.010  11.687   7.513  1.3881 -1.1201  0.8563
36904SOL     OW15396   7.418   1.913   2.108  0.5159  0.2385  0.5467
36904SOL    HW115397   7.380   1.890   2.023  0.7656 -3.3893  1.2543
36904SOL    HW215398   7.512   1.918   2.091  0.5718 -0.5498  0.5906
36905SOL     OW15399  11.197   9.003   1.015  0.7407  0.5773 -0.4738
36905SOL    HW115400  11.270   8.959   0.972  0.2424  0.2465 -1.0049
36905SOL    HW215401  11.229   9.023   1.103  1.2407 -0.1769 -0.4731
36906SOL     OW15402   0.445  10.345   4.053  0.1970 -0.0879  0.1815
36906SOL    HW115403   0.362  10.373   4.013 -0.6849 -2.0309  0.5136
36906SOL    HW215404   0.420  10.271   4.109  2.3483 -1.6621 -0.8192
36907SOL     OW15405   8.016   3.740   4.089  0.2872  0.2252 -0.1372
36907SOL    HW115406   7.939   3.753   4.033 -0.2976  1.3409  0.8826
36907SOL    HW215407   7.980   3.705   4.171  1.2012 -2.0850 -0.6267
36908SOL     OW15408   7.585   4.644   5.156 -0.2860  0.5849 -0.1357
36908SOL    HW115409   7.548   4.727   5.185 -1.8599 -0.5285  1.2559
36908SOL    HW215410   7.556   4.581   5.222 -2.4593 -1.7872 -3.0808
36909SOL     OW15411   6.410   5.564   5.077 -0.7318  0.1650  0.2489
36909SOL    HW115412   6.343   5.546   5.011 -0.5378 -0.6079  0.2497
36909SOL    HW215413   6.477   5.498   5.061  0.6768  1.7188 -0.6052
36910SOL     OW15414   3.225   7.909   4.323 -0.1096  0.2455  0.2609
36910SOL    HW115415   3.206   7.970   4.252  0.3182  0.0247 -0.0471
36910SOL    HW215416   3.266   7.962   4.391 -0.5202  0.4568  0.3440
36911SOL     OW15417   1.818  11.938   9.741  0.1719  0.3805  1.1732
36911SOL    HW115418   1.900  11.987   9.735  0.4906 -0.0892  1.5597
36911SOL    HW215419   1.837  11.855   9.696 -0.3370  0.5811  0.5845
36912SOL     OW15420   4.662   0.124   6.895  0.1353  0.4604 -0.1929
36912SOL    HW115421   4.701   0.208   6.920 -0.6815  0.7400  0.1590
36912SOL    HW215422   4.596   0.147   6.830 -0.8031  0.2193  0.6509
36913SOL     OW15423   2.786   1.813   4.602  0.4132  0.0012 -0.0617
36913SOL    HW115424   2.778   1.893   4.654 -1.1217  0.0994 -0.4036
36913SOL    HW215425   2.821   1.843   4.518 -1.4633  0.5832 -0.6952
36914SOL     OW15426   2.706   0.869   1.629 -0.0368 -0.2558 -0.0015
36914SOL    HW115427   2.680   0.862   1.721  0.3415 -0.8433  0.0693
36914SOL    HW215428   2.761   0.946   1.625  0.8232 -0.8267  0.4894
36915SOL     OW15429   1.422   5.311   6.606  0.0538  0.2036  0.1134
36915SOL    HW115430   1.494   5.373   6.619  1.6912 -1.4347 -0.6498
36915SOL    HW215431   1.424   5.256   6.684 -1.1739  0.8524  0.6300
36916SOL     OW15432   9.754   3.565   4.426  0.6135 -0.1595 -0.5959
36916SOL    HW115433   9.835   3.559   4.477  0.0422  0.3188  0.4065
36916SOL    HW215434   9.765   3.502   4.355  1.0139 -1.6528  0.7282
36917SOL     OW15435   7.014   3.578   7.073 -0.0585  0.1301 -0.2649
36917SOL    HW115436   6.925   3.560   7.102  0.0773 -0.3382 -0.1309
36917SOL    HW215437   7.037   3.660   7.116 -0.1684 -0.1190  0.2812
36918SOL     OW15438   1.514   8.813  11.317 -1.0125 -0.0894  0.0234
36918SOL    HW115439   1.518   8.722  11.344  0.1865 -0.2898 -0.7684
36918SOL    HW215440   1.487   8.860  11.396 -0.9002 -1.0312  0.6454
36919SOL     OW15441   4.742   3.764   2.415  0.0673 -0.5684 -0.2921
36919SOL    HW115442   4.768   3.732   2.329  1.1658  1.1363 -0.6499
36919SOL    HW215443   4.825   3.785   2.459 -0.5322  0.2687  0.4812
36920SOL     OW15444   1.190   3.841   1.309  0.3650 -0.0539  0.0614
36920SOL    HW115445   1.205   3.779   1.237  2.1564  0.2537  0.1336
36920SOL    HW215446   1.187   3.787   1.388 -0.6825 -0.2978 -0.1373
36921SOL     OW15447   8.020   7.483   9.130  0.0937 -0.2130  0.4852
36921SOL    HW115448   8.103   7.519   9.161  0.0143 -0.5731  1.1474
36921SOL    HW215449   7.976   7.454   9.210 -0.4336 -0.5175  0.0867
36922SOL     OW15450   7.830  11.387   9.757  0.3081 -0.3772 -0.0156
36922SOL    HW115451   7.845  11.440   9.679 -0.7333 -0.0737 -0.0328
36922SOL    HW215452   7.830  11.449   9.829 -1.2702 -0.2595 -0.0726
36923SOL     OW15453   1.233   7.602   6.307 -0.4505  0.2612 -0.0886
36923SOL    HW115454   1.208   7.627   6.218  0.0857 -1.9217 -0.9336
36923SOL    HW215455   1.316   7.555   6.296 -0.8994 -0.9750  1.4137
36924SOL     OW15456   4.181   1.717   4.262  0.1224  0.0811  0.4918
36924SOL    HW115457   4.232   1.689   4.338 -0.0010 -0.5919  0.3300
36924SOL    HW215458   4.172   1.812   4.273  0.2145  0.0067  1.2485
36925SOL     OW15459   7.880   8.850   0.066 -0.8409  0.0690  0.8278
36925SOL    HW115460   7.867   8.782  -0.001  2.5421 -1.1194  1.1865
36925SOL    HW215461   7.872   8.804   0.149  0.1068  0.3629  1.0975
36926SOL     OW15462   9.825  10.571  10.654 -0.5882 -0.1672 -0.2604
36926SOL    HW115463   9.894  10.628  10.690 -1.5773  0.3516  0.9147
36926SOL    HW215464   9.866  10.485  10.646  0.1148  0.0538  0.7370
36927SOL     OW15465   5.694   6.698   9.212 -0.3852 -0.2461  0.2609
36927SOL    HW115466   5.728   6.692   9.302  1.0578  1.0829 -0.1416
36927SOL    HW215467   5.763   6.658   9.158  0.0996  1.4850 -0.4753
36928SOL     OW15468   3.572   3.563   1.655 -0.2488  0.3832  0.0091
36928SOL    HW115469   3.592   3.639   1.709  0.3358  0.5283 -0.4081
36928SOL    HW215470   3.550   3.494   1.718  0.2973  0.5858  0.4319
36929SOL     OW15471  10.191   2.177   3.476 -0.5653  0.6207 -0.3793
36929SOL    HW115472  10.167   2.125   3.399  1.4987 -1.4087  0.2024
36929SOL    HW215473  10.171   2.267   3.452 -0.0992  0.0536 -3.2787
36930SOL     OW15474  10.819   9.185   2.862 -0.2415 -0.4151 -0.2390
36930SOL    HW115475  10.802   9.268   2.904  1.7032  0.6254 -1.3233
36930SOL    HW215476  10.796   9.119   2.927 -0.5328  1.0040  1.1424
36931SOL     OW15477   2.545   9.212   9.596  0.1442 -0.0617  0.2688
36931SOL    HW115478   2.572   9.228   9.506 -1.3657 -0.5023 -0.3065
36931SOL    HW215479   2.618   9.242   9.650  1.2683 -0.2419 -1.1180
36932SOL     OW15480   1.557   6.850   9.411 -0.4140  0.5584  0.2819
36932SOL    HW115481   1.537   6.917   9.346  0.7910 -0.9223 -1.7044
36932SOL    HW215482   1.483   6.789   9.405 -0.4045  0.5285  0.4667
36933SOL     OW15483   4.463   2.075   8.594  0.3532  0.1759 -0.0943
36933SOL    HW115484   4.430   2.121   8.516 -1.0361 -0.3234  0.1688
36933SOL    HW215485   4.476   2.144   8.658 -1.2178  0.3153  0.1248
36934SOL     OW15486   2.256   2.697  11.692  0.1331  0.5017 -0.4018
36934SOL    HW115487   2.236   2.791  11.686 -1.1383  0.1642 -2.7253
36934SOL    HW215488   2.171   2.654  11.684  0.6992 -0.8876  0.6227
36935SOL     OW15489   8.200   3.768   0.163 -0.1804  0.0787  0.3125
36935SOL    HW115490   8.257   3.786   0.088  0.0502 -1.5642  0.0531
36935SOL    HW215491   8.124   3.824   0.149  0.6815  1.1885 -0.1407
36936SOL     OW15492  10.027   2.450   1.043 -0.8400 -0.6155 -0.7361
36936SOL    HW115493   9.952   2.406   1.084 -1.8590  1.3683 -0.3542
36936SOL    HW215494  10.066   2.502   1.113  1.0789 -1.7424 -0.8869
36937SOL     OW15495   6.207   8.324   7.740 -0.4167  0.1705  0.2472
36937SOL    HW115496   6.157   8.376   7.677  0.1889  0.7884  0.2696
36937SOL    HW215497   6.246   8.388   7.799 -0.3222 -0.3606  0.7701
36938SOL     OW15498   5.527   1.599  11.790 -0.2526  0.9360 -0.2162
36938SOL    HW115499   5.586   1.611  11.864 -2.2381  2.2354  1.2278
36938SOL    HW215500   5.529   1.682  11.743  0.0348  0.5390 -0.9338
36939SOL     OW15501   3.385   2.424   8.842 -0.2417  0.3700 -0.4500
36939SOL    HW115502   3.295   2.436   8.872 -0.0349  1.4233 -0.2076
36939SOL    HW215503   3.426   2.372   8.910 -0.4994  0.4310 -0.2441
36940SOL     OW15504  10.380   3.389  10.760 -0.2059 -0.4547  0.6344
36940SOL    HW115505  10.452   3.451  10.767  1.9397 -2.8726  1.4336
36940SOL    HW215506  10.333   3.416  10.681  3.2062 -0.3158 -1.5622
36941SOL     OW15507   8.695   5.122   8.933  0.5007 -0.4813 -0.1639
36941SOL    HW115508   8.790   5.120   8.929  0.5144 -0.0665 -0.1292
36941SOL    HW215509   8.668   5.161   8.849  0.4370  0.7909  0.4164
36942SOL     OW15510   7.614   4.111   0.528  0.1583 -0.1261 -0.1159
36942SOL    HW115511   7.655   4.195   0.506 -0.5429  0.3747  0.4414
36942SOL    HW215512   7.520   4.126   0.517  0.1000 -1.3536 -1.6859
36943SOL     OW15513   7.767   0.633   0.711  0.2421  0.4944  0.3694
36943SOL    HW115514   7.743   0.655   0.621 -1.2893 -0.0528  0.6129
36943SOL    HW215515   7.862   0.639   0.713  0.4887 -1.5125 -1.8322
36944SOL     OW15516   7.379   2.522  10.983 -0.2591  0.9627 -0.4910
36944SOL    HW115517   7.453   2.562  10.938  0.6929 -0.0729  0.0618
36944SOL    HW215518   7.397   2.538  11.076  0.6032 -1.3432 -0.1886
36945SOL     OW15519   3.952   1.677  10.323  0.2072 -0.4332  0.2516
36945SOL    HW115520   3.947   1.630  10.240  0.8559  1.4240 -0.8996
36945SOL    HW215521   4.028   1.638  10.368  1.6705  0.4315 -1.3329
36946SOL     OW15522   1.912  11.386  11.202  0.1641 -0.0289  0.0661
36946SOL    HW115523   1.999  11.400  11.241 -0.2625  0.1884  0.9553
36946SOL    HW215524   1.929  11.379  11.108  1.1379  0.0844  0.2237
36947SOL     OW15525   8.417  10.096   9.512 -0.3826 -0.0514 -0.6117
36947SOL    HW115526   8.496  10.129   9.555 -0.8943 -0.7052  0.9106
36947SOL    HW215527   8.445  10.014   9.471 -0.0616  0.1895 -0.8748
36948SOL     OW15528   2.060   7.428   8.037  0.1258  0.1682 -0.5099
36948SOL    HW115529   2.018   7.510   8.011  0.9613  0.7357 -0.0880
36948SOL    HW215530   1.988   7.365   8.040 -0.4498  0.7606 -1.3210
36949SOL     OW15531  10.022   3.224  11.189 -0.1291 -0.0650 -0.0202
36949SOL    HW115532  10.089   3.161  11.161  1.0108  0.3190  1.6784
36949SOL    HW215533   9.941   3.174  11.190  0.5906 -1.2768  0.4179
36950SOL     OW15534   5.894  10.709   3.003 -0.0522  0.0656  0.0199
36950SOL    HW115535   5.800  10.724   2.994 -0.1770  0.6622  1.8693
36950SOL    HW215536   5.901  10.637   3.066  0.7477  0.5596  0.5082
36951SOL     OW15537   0.657   2.688   6.603  0.7292  0.1794 -0.2978
36951SOL    HW115538   0.702   2.710   6.684  0.4962 -1.2181  0.2418
36951SOL    HW215539   0.570   2.726   6.612  1.3686  1.8599 -0.8349
36952SOL     OW15540   2.450   9.915   2.713  0.0286  0.4146 -0.0830
36952SOL    HW115541   2.509   9.840   2.707 -0.1464  0.2731 -0.0771
36952SOL    HW215542   2.504   9.987   2.746 -0.2324 -0.2271  1.8829
36953SOL     OW15543   0.016   1.433   4.498  0.2455  0.6411  0.0995
36953SOL    HW115544  -0.035   1.387   4.432 -1.5211  2.0021  0.4644
36953SOL    HW215545   0.107   1.414   4.475 -0.3751 -1.7024 -0.6653
36954SOL     OW15546   9.453   2.773   3.322 -0.3375  0.4960  0.2767
36954SOL    HW115547   9.487   2.781   3.411 -0.6113 -1.1266  0.5559
36954SOL    HW215548   9.364   2.808   3.327 -0.9478 -1.0486  1.0691
36955SOL     OW15549   7.957   0.022   4.490  0.8276  0.2641  0.4734
36955SOL    HW115550   7.976   0.063   4.406  1.6794 -0.5646  0.2409
36955SOL    HW215551   7.983   0.088   4.555  2.1258  0.1519  0.1041
36956SOL     OW15552   2.755  10.595  11.477  0.6943 -0.2385 -0.2675
36956SOL    HW115553   2.718  10.507  11.470 -0.3787  0.2156 -0.5579
36956SOL    HW215554   2.784  10.616  11.388  1.1437 -0.3664 -0.1565
36957SOL     OW15555   5.020  10.932   5.413 -0.5685  0.3884  0.3835
36957SOL    HW115556   5.076  11.003   5.384  0.5361 -0.3234  0.7015
36957SOL    HW215557   5.010  10.945   5.507  0.2706 -0.2860  0.5780
36958SOL     OW15558   9.178   7.629   8.571  0.4199  0.1931  0.5195
36958SOL    HW115559   9.138   7.553   8.529  0.5968  0.4081 -0.0490
36958SOL    HW215560   9.272   7.618   8.557  0.4271  0.6500  0.1955
36959SOL     OW15561   0.248   3.803   3.235 -0.4265  0.0223 -0.3022
36959SOL    HW115562   0.300   3.748   3.176 -0.8355 -0.4759 -0.2152
36959SOL    HW215563   0.296   3.803   3.317 -0.5054 -0.3647 -0.2492
36960SOL     OW15564  11.202  10.932   4.681 -0.1434  0.1273 -0.1192
36960SOL    HW115565  11.108  10.923   4.698 -0.2641  2.0415  0.4447
36960SOL    HW215566  11.236  10.980   4.756  1.1880 -0.0776 -0.5642
36961SOL     OW15567   0.451   3.370   7.758  0.2832 -0.1449  0.3663
36961SOL    HW115568   0.415   3.446   7.802 -0.5726 -0.6256  0.5053
36961SOL    HW215569   0.446   3.299   7.822 -0.8349 -0.8147 -0.4178
36962SOL     OW15570   4.274   7.745   0.360  0.2463  0.4987  0.3434
36962SOL    HW115571   4.266   7.674   0.297 -0.2179  0.4232  0.4893
36962SOL    HW215572   4.184   7.766   0.386  0.4463  0.2680  1.2738
36963SOL     OW15573   3.095   5.659  10.868 -0.4676 -0.4380 -0.1063
36963SOL    HW115574   3.048   5.611  10.937 -0.9230 -1.3673 -1.0329
36963SOL    HW215575   3.187   5.639  10.884 -0.5701 -0.6317  0.2592
36964SOL     OW15576   4.428  10.950   2.434  0.3043 -0.2297 -0.0669
36964SOL    HW115577   4.378  11.023   2.399 -0.2674 -0.4987  0.1728
36964SOL    HW215578   4.499  10.991   2.482  0.0264  0.1691  0.0124
36965SOL     OW15579  10.353  11.241  10.209  0.0353  0.6532  0.1097
36965SOL    HW115580  10.354  11.290  10.127  1.3956  0.2408 -0.1324
36965SOL    HW215581  10.393  11.157  10.188 -3.6178 -1.3256  0.1136
36966SOL     OW15582  10.963   1.654   3.305  0.2974 -0.6147 -0.4468
36966SOL    HW115583  10.956   1.558   3.300  0.4152 -0.8092  1.8737
36966SOL    HW215584  10.876   1.685   3.281 -0.7599 -1.5444  1.8583
36967SOL     OW15585   0.600   1.931   2.816 -0.2057 -0.1087  0.1007
36967SOL    HW115586   0.506   1.915   2.820 -0.1229 -0.5333  0.4102
36967SOL    HW215587   0.638   1.850   2.782  0.0439  0.0793 -0.0771
36968SOL     OW15588  11.683   7.762  10.787 -0.5789 -0.2442  0.4559
36968SOL    HW115589  11.711   7.769  10.878  1.2267 -2.0389  0.1273
36968SOL    HW215590  11.668   7.852  10.759  0.9075  0.5293  1.9550
36969SOL     OW15591   7.996   0.659   7.546 -0.6952 -0.2322  0.1518
36969SOL    HW115592   8.003   0.730   7.482 -1.1294  0.0148  0.3752
36969SOL    HW215593   8.086   0.633   7.563 -0.6031 -0.9234 -1.2575
36970SOL     OW15594   3.681   0.696   8.214  0.3367  0.4922 -0.0009
36970SOL    HW115595   3.720   0.784   8.212 -0.6268  1.0681  2.4809
36970SOL    HW215596   3.634   0.693   8.298  0.5372 -2.4866  0.0988
36971SOL     OW15597   3.529   9.730  10.087  0.1994 -0.2166 -0.0932
36971SOL    HW115598   3.607   9.770  10.125 -0.6572 -0.8408  2.5029
36971SOL    HW215599   3.506   9.659  10.147 -1.5609 -0.9612 -1.5453
36972SOL     OW15600   1.847   8.913   9.155 -0.0077  0.4309 -0.8237
36972SOL    HW115601   1.790   8.838   9.175 -0.7133  1.3485  0.8187
36972SOL    HW215602   1.916   8.908   9.220  0.3112  0.8461 -1.1250
36973SOL     OW15603  11.385   7.403   4.322  0.4145 -0.3449  0.0347
36973SOL    HW115604  11.387   7.374   4.231  1.6789 -0.0010 -0.0650
36973SOL    HW215605  11.477   7.412   4.347  0.0863 -0.2818  1.3022
36974SOL     OW15606  10.797   7.550   5.008  0.7926 -0.0456 -0.6631
36974SOL    HW115607  10.710   7.556   5.048  1.1549  0.1252  0.1121
36974SOL    HW215608  10.779   7.546   4.913 -0.1134 -1.2383 -0.4697
36975SOL     OW15609   2.992  10.961   5.632  0.1583 -0.2909  0.2755
36975SOL    HW115610   2.998  10.887   5.693  0.2454 -1.5479 -1.1699
36975SOL    HW215611   3.022  10.924   5.549 -1.8285  0.7944 -0.9821
36976SOL     OW15612   7.457   1.596   6.049  0.5683  0.2158 -0.5941
36976SOL    HW115613   7.520   1.525   6.062 -1.9002 -2.0402 -0.1708
36976SOL    HW215614   7.437   1.627   6.137 -0.8591 -0.9318 -0.4878
36977SOL     OW15615   9.146  10.038   3.008  0.3107  0.0697 -0.2980
36977SOL    HW115616   9.070  10.025   3.065  0.4440  1.8582  0.3487
36977SOL    HW215617   9.215  10.070   3.066  1.0079  0.2085 -1.1765
36978SOL     OW15618   5.721  10.525   9.049  0.2933  0.0546  0.9215
36978SOL    HW115619   5.781  10.533   8.975  0.2292  1.2016  0.9633
36978SOL    HW215620   5.642  10.484   9.012 -0.4421  2.2254 -0.1265
36979SOL     OW15621   5.008   1.166   1.867 -0.6884  0.5257 -0.0930
36979SOL    HW115622   4.961   1.230   1.921  0.9698  1.1591  0.6757
36979SOL    HW215623   5.073   1.218   1.820  1.0370 -0.6274  0.9361
36980SOL     OW15624   1.533   6.114   6.204 -0.0016  0.3876  0.4337
36980SOL    HW115625   1.521   6.059   6.281  1.4463  0.5725  0.8195
36980SOL    HW215626   1.625   6.140   6.207 -0.2884  1.6127 -0.5526
36981SOL     OW15627  10.463   1.522   4.333  0.2433 -0.4561  0.6319
36981SOL    HW115628  10.556   1.516   4.355  0.1738 -0.3053  0.9652
36981SOL    HW215629  10.419   1.473   4.402  0.2177 -2.4141 -0.6769
36982SOL     OW15630   3.871   8.882   9.376 -0.9377  0.2006  0.6070
36982SOL    HW115631   3.849   8.974   9.390  0.3357  0.5295  0.5594
36982SOL    HW215632   3.948   8.885   9.319 -1.3544 -0.9204 -0.0451
36983SOL     OW15633  10.405  11.340   3.813 -0.0763 -0.9595  0.6594
36983SOL    HW115634  10.468  11.372   3.748 -0.3199 -0.4987  0.6522
36983SOL    HW215635  10.320  11.353   3.773 -0.1871 -1.5145  0.7040
36984SOL     OW15636   7.370  11.337   5.011 -0.2199 -0.4685 -0.9287
36984SOL    HW115637   7.303  11.394   5.049  0.5697  0.2452 -0.5719
36984SOL    HW215638   7.357  11.344   4.917 -0.2226  0.2017 -0.8854
36985SOL     OW15639  11.384   1.781   1.218  0.0737  0.1312  0.1033
36985SOL    HW115640  11.479   1.779   1.210 -0.0844  0.4151 -2.9571
36985SOL    HW215641  11.367   1.850   1.282  1.9126 -0.1978  1.0050
36986SOL     OW15642   9.566   2.839   4.827 -0.0117  0.2992 -0.0316
36986SOL    HW115643   9.589   2.746   4.831 -0.0282  0.3035  0.2141
36986SOL    HW215644   9.474   2.841   4.853 -0.8321  0.0950 -2.6386
36987SOL     OW15645  10.069   6.348   0.732 -0.0885 -0.0990 -0.2067
36987SOL    HW115646  10.066   6.257   0.762  2.1483 -0.3716 -0.6173
36987SOL    HW215647  10.163   6.370   0.733 -0.4277  1.6195 -1.8292
36988SOL     OW15648   5.597   8.881  10.966 -0.0106  0.0112 -0.0319
36988SOL    HW115649   5.503   8.891  10.952  0.0663  0.9771  0.0535
36988SOL    HW215650   5.604   8.830  11.047 -0.4788  1.0359  0.6775
36989SOL     OW15651   6.729   3.250   3.073 -0.4771 -0.3329  0.8518
36989SOL    HW115652   6.808   3.209   3.108  1.0376 -1.0800 -3.0276
36989SOL    HW215653   6.663   3.181   3.078 -0.3019 -0.4498  2.0006
36990SOL     OW15654   9.108  10.536   7.391  0.2637 -0.3664 -0.0757
36990SOL    HW115655   9.118  10.619   7.439  0.8388 -1.1874  1.2823
36990SOL    HW215656   9.145  10.470   7.450  1.7066 -1.3338 -1.9741
36991SOL     OW15657   5.729   2.372   6.445  0.1897  0.1939  0.0396
36991SOL    HW115658   5.662   2.439   6.457 -0.1406  0.0416 -0.8604
36991SOL    HW215659   5.812   2.419   6.452 -0.0046  0.4257  0.9200
36992SOL     OW15660  11.255   4.733   0.113 -0.2651  0.3618 -0.3146
36992SOL    HW115661  11.288   4.763   0.029 -0.5051 -0.2265 -0.6220
36992SOL    HW215662  11.301   4.787   0.178  0.9108 -0.0860 -0.7578
36993SOL     OW15663   4.785   4.101  10.863  0.0115  0.0228  0.0610
36993SOL    HW115664   4.860   4.065  10.911  1.3377  1.0306 -1.1718
36993SOL    HW215665   4.713   4.041  10.883  0.4699  0.3150  3.2042
36994SOL     OW15666   6.353   7.900   6.793  0.4651 -0.4414 -0.0489
36994SOL    HW115667   6.417   7.870   6.857  1.0432  1.0743  0.1450
36994SOL    HW215668   6.330   7.822   6.743  1.5310 -1.2641  0.6936
36995SOL     OW15669   9.648   9.003   4.132  0.1788 -0.3322 -0.0591
36995SOL    HW115670   9.715   9.050   4.083  0.3667  0.9302  1.3365
36995SOL    HW215671   9.575   9.065   4.139  0.2198 -0.4117  1.3522
36996SOL     OW15672   8.429   1.543   0.421 -0.2924 -0.1493  0.1425
36996SOL    HW115673   8.433   1.634   0.451 -4.7208  0.8086 -1.3426
36996SOL    HW215674   8.427   1.550   0.325 -0.1850 -1.8631 -0.0178
36997SOL     OW15675  10.263   0.453  11.275  0.1572 -0.3995  0.0996
36997SOL    HW115676  10.280   0.361  11.256  0.0061 -0.1473 -1.3842
36997SOL    HW215677  10.176   0.454  11.316  0.4027 -0.9570  0.6396
36998SOL     OW15678   7.132   5.665   7.797 -0.0088  0.4651  0.0242
36998SOL    HW115679   7.227   5.665   7.786  0.1804 -3.4844  0.1380
36998SOL    HW215680   7.099   5.698   7.713  1.4977  0.0663 -0.7760
36999SOL     OW15681   1.340   7.499   6.860 -0.3169 -0.0151  0.3233
36999SOL    HW115682   1.303   7.449   6.787 -0.8353  1.0016 -0.1340
36999SOL    HW215683   1.393   7.436   6.908 -2.2380 -1.4155  0.7145
37000SOL     OW15684   3.684   4.422   2.240  0.1111  0.2260 -0.4088
37000SOL    HW115685   3.767   4.396   2.200  0.9042  0.8911  0.7397
37000SOL    HW215686   3.632   4.456   2.168  1.3753  1.0873 -0.9469
37001SOL     OW15687   8.625   5.217   6.566  0.0831 -0.0405  0.7108
37001SOL    HW115688   8.716   5.189   6.566 -0.3563 -1.5495  1.3311
37001SOL    HW215689   8.591   5.191   6.480  0.2813  0.7329  0.3889
37002SOL     OW15690   9.397   9.185   9.053 -0.1512  0.1664  0.0552
37002SOL    HW115691   9.436   9.176   9.140  0.8250  0.4406 -0.3454
37002SOL    HW215692   9.418   9.274   9.026 -0.5475  0.1231 -0.4254
37003SOL     OW15693   7.300   5.890   7.464 -0.0235  0.2692 -0.0411
37003SOL    HW115694   7.347   5.915   7.543 -1.4739  1.6197  0.4463
37003SOL    HW215695   7.306   5.967   7.407  0.5345 -0.4875 -1.0285
37004SOL     OW15696   2.124   6.856   0.376  0.4446 -0.4565  0.2737
37004SOL    HW115697   2.135   6.796   0.302 -0.4793  1.2013 -1.3076
37004SOL    HW215698   2.033   6.883   0.372  1.1484  2.1548 -0.0394
37005SOL     OW15699   6.214   1.877   6.214  0.0110  0.7115 -0.0105
37005SOL    HW115700   6.287   1.860   6.155 -1.2237 -1.1332 -1.0997
37005SOL    HW215701   6.221   1.808   6.281 -2.0624 -1.0896 -1.5153
37006SOL     OW15702   6.559   8.684   3.249 -0.0145 -0.0955 -0.0330
37006SOL    HW115703   6.540   8.591   3.257  0.5824 -0.4702 -2.1626
37006SOL    HW215704   6.515   8.725   3.323 -0.6297 -2.0192  0.7117
37007SOL     OW15705  10.236  11.066   2.168 -0.2413  0.0161  0.0554
37007SOL    HW115706  10.168  11.088   2.103 -0.0166 -0.4665 -0.3531
37007SOL    HW215707  10.281  11.148   2.184 -0.4223  0.1826 -0.2603
37008SOL     OW15708   0.064   7.136   9.449  0.4726 -0.0443  0.1780
37008SOL    HW115709   0.123   7.178   9.511  0.1283 -0.3056  0.6921
37008SOL    HW215710   0.061   7.196   9.374  0.1793  0.7353  0.7964
37009SOL     OW15711   4.490   3.099   3.051  0.0121  0.3742  0.4724
37009SOL    HW115712   4.480   3.076   2.959  0.7195 -0.4671  0.5945
37009SOL    HW215713   4.495   3.015   3.097 -1.2529  0.7656  1.3979
37010SOL     OW15714   6.668   7.796  11.243  0.5989  0.0078  0.0903
37010SOL    HW115715   6.596   7.734  11.227  0.9788 -0.4976  0.2914
37010SOL    HW215716   6.744   7.740  11.258  0.7788  0.5048  1.1601
37011SOL     OW15717   8.976   6.234   8.913  0.8211  0.0716  0.0487
37011SOL    HW115718   9.011   6.242   8.825 -0.6188  1.7193 -0.4187
37011SOL    HW215719   8.992   6.319   8.954 -1.8460  0.6889  0.0336
37012SOL     OW15720   6.100   7.100   1.663 -0.5125  0.4566  0.0642
37012SOL    HW115721   6.122   7.020   1.709  1.5070  0.2434 -1.1323
37012SOL    HW215722   6.062   7.071   1.580 -0.1302  0.7405 -0.2127
37013SOL     OW15723  11.297  11.671   4.854 -0.2019 -0.4291  0.0073
37013SOL    HW115724  11.365  11.694   4.790 -0.7338 -0.5956 -0.6241
37013SOL    HW215725  11.345  11.628   4.925  0.5784  0.9779  0.3665
37014SOL     OW15726   3.723   6.009   4.404  0.3061 -0.1018 -0.7633
37014SOL    HW115727   3.802   5.978   4.361  1.0580  0.0788  0.4454
37014SOL    HW215728   3.754   6.070   4.471 -0.6095 -1.9885  1.5133
37015SOL     OW15729   0.300   4.320  10.903 -0.4172  0.2551  0.3365
37015SOL    HW115730   0.386   4.306  10.941  0.0920  2.0461 -0.0751
37015SOL    HW215731   0.317   4.345  10.812 -1.4292 -0.2809 -0.0188
37016SOL     OW15732   9.999  10.736  10.802  0.4241 -0.0990 -0.0829
37016SOL    HW115733   9.936  10.775  10.862 -0.3174  0.5540 -1.2501
37016SOL    HW215734  10.081  10.782  10.820  0.0305  0.6107 -0.0843
37017SOL     OW15735   4.626   4.358   3.280 -0.3498 -0.2253  0.7635
37017SOL    HW115736   4.630   4.344   3.185  0.8979 -0.1765  0.7962
37017SOL    HW215737   4.562   4.429   3.291  1.3940  1.6153 -0.2815
37018SOL     OW15738   3.666   0.641   7.942 -0.3206  0.0106  0.2253
37018SOL    HW115739   3.664   0.642   8.038 -0.9712  0.9262  0.2164
37018SOL    HW215740   3.750   0.601   7.920 -1.3990 -3.0325  1.1512
37019SOL     OW15741   0.340   8.205   7.462 -0.5041 -0.1417  0.5490
37019SOL    HW115742   0.327   8.200   7.556  2.4564 -0.4884  1.0327
37019SOL    HW215743   0.332   8.299   7.441 -0.8341 -0.0241  1.1943
37020SOL     OW15744   4.230   1.809   5.331  0.2914  0.7311  0.2509
37020SOL    HW115745   4.217   1.791   5.424  0.6561  1.6875  0.5051
37020SOL    HW215746   4.196   1.732   5.287  0.4098  0.1191  1.1897
37021SOL     OW15747   9.525   4.802   1.798 -0.2461  0.3272 -0.4949
37021SOL    HW115748   9.436   4.803   1.833  0.4322  1.5067  1.3619
37021SOL    HW215749   9.527   4.725   1.741 -2.2600 -0.1014 -0.0742
37022SOL     OW15750   5.601   5.310   5.123 -0.6051  0.0784 -0.0025
37022SOL    HW115751   5.591   5.235   5.181  0.3966 -0.3234 -0.3189
37022SOL    HW215752   5.648   5.375   5.175 -0.7771  0.1826  0.0227
37023SOL     OW15753   1.642  11.540   8.289 -0.2155 -0.4104 -0.1716
37023SOL    HW115754   1.571  11.602   8.277  0.1865  0.4321  1.4988
37023SOL    HW215755   1.614  11.461   8.242 -1.4351  0.4942 -1.0107
37024SOL     OW15756  10.047   8.296   0.511  0.2029  0.0150  0.0613
37024SOL    HW115757  10.034   8.322   0.419 -3.2249  1.4968  0.8008
37024SOL    HW215758  10.047   8.201   0.509 -1.0992  0.0005 -1.4121
37025SOL     OW15759  10.734   5.371   0.753 -0.0075  0.2513 -0.5508
37025SOL    HW115760  10.651   5.359   0.707 -0.5380  1.7645 -0.0363
37025SOL    HW215761  10.786   5.427   0.695  0.1166  0.4763 -0.2235
37026SOL     OW15762   1.826   0.002   8.649  1.0927  0.1924  0.2689
37026SOL    HW115763   1.772   0.006   8.728  0.1805  0.5162 -0.3528
37026SOL    HW215764   1.916  -0.007   8.682  0.6129 -1.2984  1.3226
37027SOL     OW15765   0.117  11.437   8.796 -0.2218 -0.1722 -0.1965
37027SOL    HW115766   0.147  11.527   8.803 -0.8556  0.1645 -1.5201
37027SOL    HW215767   0.025  11.440   8.820 -0.4448 -0.3173 -0.9951
37028SOL     OW15768   6.494   7.904   8.159  0.3013 -0.6737 -0.0991
37028SOL    HW115769   6.493   7.989   8.116  0.8652 -0.6931 -0.1536
37028SOL    HW215770   6.587   7.884   8.173  0.1568 -1.0468  0.3727
37029SOL     OW15771   3.143   4.672   4.607  0.0618 -0.3371  0.5119
37029SOL    HW115772   3.236   4.656   4.589 -0.3219  0.1689 -2.3678
37029SOL    HW215773   3.098   4.648   4.526 -2.5558 -1.9618  2.2831
37030SOL     OW15774   0.945   5.625   0.509 -0.1581  0.1399  0.1558
37030SOL    HW115775   0.996   5.700   0.478 -0.6808  0.5276  0.2280
37030SOL    HW215776   1.007   5.574   0.561  0.6536 -0.3510 -1.2243
37031SOL     OW15777   0.018   4.301  11.504  0.1199 -0.0432 -0.2924
37031SOL    HW115778   0.105   4.340  11.516 -0.8544  1.7357  1.6461
37031SOL    HW215779  -0.016   4.341  11.424  0.7548 -0.0901 -0.5874
37032SOL     OW15780   0.810   5.481  10.316 -0.0662 -0.1055  0.0293
37032SOL    HW115781   0.896   5.516  10.342 -0.4934  0.4177  0.7643
37032SOL    HW215782   0.801   5.506  10.224  0.1680  0.6578  0.2069
37033SOL     OW15783   9.239  11.241   0.835  0.0891 -0.4371 -0.1928
37033SOL    HW115784   9.174  11.171   0.845 -0.5734  0.0622 -0.8648
37033SOL    HW215785   9.232  11.292   0.915  0.9791 -1.4502  0.5544
37034SOL     OW15786   0.399   7.036   5.031  0.3500 -0.4044  0.0687
37034SOL    HW115787   0.406   6.975   5.104  0.0267 -0.1007  0.3573
37034SOL    HW215788   0.382   7.121   5.072  1.5943  0.0431 -0.2695
37035SOL     OW15789  11.768   1.430   3.777 -0.3396  0.8520 -0.6234
37035SOL    HW115790  11.690   1.439   3.723  1.0080 -2.4244 -3.4652
37035SOL    HW215791  11.840   1.458   3.721  0.7662  1.8855  1.2156
37036SOL     OW15792  11.015   1.648   5.729  0.1317 -0.3136 -0.0043
37036SOL    HW115793  11.038   1.556   5.721  3.5180  0.2210  1.8239
37036SOL    HW215794  10.970   1.653   5.814  0.8789 -0.1866  0.3961
37037SOL     OW15795   8.330   2.668   3.597  0.7880 -0.4387  0.0030
37037SOL    HW115796   8.235   2.676   3.611  1.0547  1.3964  1.1275
37037SOL    HW215797   8.354   2.749   3.552  1.5109 -1.9611 -2.5386
37038SOL     OW15798   6.728   7.897   9.551  0.1135  0.1822  0.1952
37038SOL    HW115799   6.687   7.811   9.550 -2.6906  1.4256  0.4889
37038SOL    HW215800   6.753   7.912   9.459  0.4349 -0.8151  0.1013
37039SOL     OW15801   9.139   6.529   0.708 -0.1000 -0.1181  0.4370
37039SOL    HW115802   9.076   6.599   0.725  0.7679  0.3271  2.1338
37039SOL    HW215803   9.088   6.459   0.669 -1.5289  0.4417  1.2302
37040SOL     OW15804  11.055  10.140   7.582 -0.1029 -0.3822 -0.3278
37040SOL    HW115805  11.118  10.067   7.578  1.3808  0.6723  1.5868
37040SOL    HW215806  11.110  10.218   7.595 -1.6537  1.0971 -2.0388
37041SOL     OW15807   4.781   4.951   6.578 -0.3451 -0.3785 -0.2804
37041SOL    HW115808   4.727   4.993   6.645 -0.9290 -1.4605 -0.0474
37041SOL    HW215809   4.722   4.887   6.537  0.2639 -0.3544 -1.2229
37042SOL     OW15810   1.540   9.286   6.900 -0.5084  0.1616 -0.5149
37042SOL    HW115811   1.575   9.210   6.947  0.9380 -0.0372 -1.8278
37042SOL    HW215812   1.483   9.249   6.834 -0.3928  0.2604 -0.6702
37043SOL     OW15813   0.778   9.583   5.929 -0.7375 -0.0798  0.1677
37043SOL    HW115814   0.767   9.540   5.845 -0.0564 -0.4491  0.2563
37043SOL    HW215815   0.866   9.558   5.957 -1.3078 -0.7616  1.4418
37044SOL     OW15816   5.465   7.054   1.079 -0.0113  0.7346 -0.5046
37044SOL    HW115817   5.424   7.032   0.996  1.1519  1.8961 -1.4281
37044SOL    HW215818   5.392   7.062   1.141 -0.7395 -2.2527 -0.8375
37045SOL     OW15819   7.816   1.107   7.304  0.2233 -0.4570 -0.5284
37045SOL    HW115820   7.840   1.179   7.246  2.2000 -0.5459  0.0808
37045SOL    HW215821   7.898   1.058   7.315 -0.8035 -2.1055  0.0206
37046SOL     OW15822   6.842   2.641   0.770  0.1890 -0.8059  0.8730
37046SOL    HW115823   6.783   2.582   0.818 -0.4144 -0.0857  1.0333
37046SOL    HW215824   6.785   2.688   0.710  0.0301  2.0824  3.1001
37047SOL     OW15825   1.527   7.704   3.236  0.1124  0.2828  0.4083
37047SOL    HW115826   1.487   7.785   3.205  1.0264 -0.1189 -2.0691
37047SOL    HW215827   1.485   7.686   3.320 -0.0361  3.3435  1.0782
37048SOL     OW15828   2.336   4.230   8.133  0.0476  0.2427 -0.6137
37048SOL    HW115829   2.336   4.261   8.043  0.1950 -1.0836 -1.0897
37048SOL    HW215830   2.328   4.310   8.186  0.8863  1.1110 -1.7581
37049SOL     OW15831  11.376   4.739   4.064  0.0382  0.4952 -0.1818
37049SOL    HW115832  11.406   4.770   4.149  0.0756  0.2573 -0.1075
37049SOL    HW215833  11.443   4.677   4.036 -0.4933 -0.2304  0.1016
37050SOL     OW15834   8.497   8.466  10.761 -0.0781 -0.8750 -0.0423
37050SOL    HW115835   8.442   8.403  10.809  0.8706 -1.0308  0.8766
37050SOL    HW215836   8.569   8.485  10.821  0.1545  0.3672 -0.6934
37051SOL     OW15837   7.871   0.300   5.501  0.1990  0.1346 -0.1064
37051SOL    HW115838   7.840   0.214   5.474 -1.6018  0.8650 -0.5604
37051SOL    HW215839   7.881   0.349   5.419  0.8842  0.4654  0.1629
37052SOL     OW15840   6.394   7.719   0.597 -0.3789  0.4911 -0.2443
37052SOL    HW115841   6.400   7.800   0.547 -1.2189  0.7738  0.0896
37052SOL    HW215842   6.381   7.651   0.531 -2.4189  0.9692 -0.3976
37053SOL     OW15843   4.890  11.750   3.383  0.4298  0.0956 -0.0525
37053SOL    HW115844   4.902  11.746   3.478 -2.2181 -0.2280  0.3582
37053SOL    HW215845   4.820  11.814   3.370  1.4848  0.9587 -1.9080
37054SOL     OW15846   3.367   6.124  11.272  0.1597  0.5183  0.3940
37054SOL    HW115847   3.389   6.199  11.217 -0.1671 -0.6650 -1.4419
37054SOL    HW215848   3.437   6.060  11.255 -1.7588 -1.2499 -1.5026
37055SOL     OW15849   1.028   5.904   3.250 -0.4154 -0.8213 -0.1586
37055SOL    HW115850   0.944   5.906   3.295 -0.0447  0.5609  0.5071
37055SOL    HW215851   1.046   5.995   3.226  0.3537 -1.2504 -1.3332
37056SOL     OW15852   5.528   5.876   6.853  0.2242  0.3736  0.0544
37056SOL    HW115853   5.596   5.847   6.914  0.2426  1.2385  0.4650
37056SOL    HW215854   5.450   5.827   6.880 -0.1034  1.6921  1.6563
37057SOL     OW15855   5.499  10.621   2.580 -0.0763  0.3784 -0.2693
37057SOL    HW115856   5.433  10.566   2.539 -0.0879  0.5333 -0.4543
37057SOL    HW215857   5.459  10.649   2.663 -0.6275  1.2748 -0.8213
37058SOL     OW15858   3.516   4.911   6.161  0.5522  0.3092 -0.3200
37058SOL    HW115859   3.519   4.994   6.208 -0.1703  0.8568 -1.2006
37058SOL    HW215860   3.423   4.899   6.141  0.0261 -2.4645  2.8267
37059SOL     OW15861   8.849   3.108   8.004 -0.3715  0.0970 -0.3544
37059SOL    HW115862   8.920   3.044   8.002 -0.3160  0.1703 -0.8184
37059SOL    HW215863   8.790   3.081   7.933 -0.1104  0.8329 -0.8608
37060SOL     OW15864   7.364   7.781   3.514 -0.1408  0.1553  0.0758
37060SOL    HW115865   7.457   7.756   3.518 -0.3374 -0.7493 -0.5396
37060SOL    HW215866   7.358   7.836   3.436 -0.0760  0.4115  0.2525
37061SOL     OW15867   4.623  11.424   5.992  0.0980 -0.9203 -0.3069
37061SOL    HW115868   4.571  11.440   6.071 -2.2135  0.1936 -1.9251
37061SOL    HW215869   4.629  11.329   5.985 -1.3767 -1.0699  0.1894
37062SOL     OW15870   2.963   7.589   5.086 -0.2070 -0.0748 -0.0076
37062SOL    HW115871   3.053   7.597   5.117 -0.2780 -0.7879  0.4039
37062SOL    HW215872   2.959   7.644   5.007  0.3959  0.5105  0.3605
37063SOL     OW15873   7.090   3.432   5.914  0.2368  0.1400  0.0028
37063SOL    HW115874   7.100   3.363   5.848  1.3505  0.5562 -0.2803
37063SOL    HW215875   7.110   3.513   5.866 -2.4222  0.8600 -0.0500
37064SOL     OW15876  11.415  10.818   3.416 -0.2220 -0.1355 -0.1531
37064SOL    HW115877  11.472  10.837   3.491  0.2419 -0.3326 -0.4574
37064SOL    HW215878  11.467  10.841   3.339 -1.2655  1.6779 -0.3939
37065SOL     OW15879   5.793   2.566   4.121  0.4566 -0.2621  0.3555
37065SOL    HW115880   5.744   2.495   4.163 -1.1198  0.5234 -0.0993
37065SOL    HW215881   5.865   2.585   4.182  0.7285 -2.0081  0.6290
37066SOL     OW15882   9.009   9.036   1.422 -0.7175 -0.1505  0.2106
37066SOL    HW115883   8.959   9.094   1.480  1.2305  2.1830 -0.2735
37066SOL    HW215884   9.093   9.024   1.465  0.0905  0.0934 -1.2148
37067SOL     OW15885   5.511   9.676   6.157 -0.1197  0.1781 -0.3535
37067SOL    HW115886   5.488   9.598   6.209 -1.2534  0.5899 -0.2108
37067SOL    HW215887   5.522   9.745   6.222 -2.4418  0.9143 -0.6729
37068SOL     OW15888   1.741   7.042   2.870 -0.5209  0.6561  0.3753
37068SOL    HW115889   1.808   7.100   2.908 -1.0628  2.2796 -1.0230
37068SOL    HW215890   1.755   7.048   2.776 -0.4788 -1.7083  0.1755
37069SOL     OW15891   4.045   9.765   4.762 -0.2189 -0.0548  0.1769
37069SOL    HW115892   3.976   9.700   4.751 -0.7590  0.2559  1.5771
37069SOL    HW215893   4.120   9.715   4.792  0.2408 -0.4083 -1.4424
37070SOL     OW15894   7.550   5.290   5.351 -0.2963 -0.8031 -0.0037
37070SOL    HW115895   7.613   5.227   5.384 -1.1538 -1.4938  0.3609
37070SOL    HW215896   7.555   5.364   5.412  0.0355 -0.9308  0.1218
37071SOL     OW15897   6.980   1.952   9.290  0.8293 -0.3270 -0.0172
37071SOL    HW115898   6.941   1.896   9.223  1.3731 -1.1292  0.3209
37071SOL    HW215899   6.906   1.998   9.329  0.1503 -2.0496  0.8442
37072SOL     OW15900   7.440   3.483   3.124  0.1507 -0.4752  0.5861
37072SOL    HW115901   7.516   3.455   3.174 -0.1897 -1.9188  0.3355
37072SOL    HW215902   7.462   3.461   3.033  0.4877  1.4966  0.1431
37073SOL     OW15903   2.949   2.091   6.948 -0.3547 -0.3919  0.1244
37073SOL    HW115904   2.920   2.036   6.875 -0.4597  0.5500 -0.5579
37073SOL    HW215905   2.871   2.102   7.003 -0.3142 -0.9685  0.3116
37074SOL     OW15906  11.520  10.324   6.652  0.0773 -0.0462  0.6110
37074SOL    HW115907  11.435  10.281   6.659  0.8044 -1.3642  1.9549
37074SOL    HW215908  11.522  10.386   6.725 -0.8536  2.2049 -1.1552
37075SOL     OW15909   4.550  11.340   2.170  0.0439 -0.1724  0.0918
37075SOL    HW115910   4.563  11.325   2.264 -0.8104 -1.4638  0.0139
37075SOL    HW215911   4.623  11.294   2.128 -0.3029 -0.6924  0.0580
37076SOL     OW15912   4.872  10.686   6.725  0.3708  0.6445  0.0837
37076SOL    HW115913   4.925  10.627   6.672 -0.9289 -0.3297 -0.1938
37076SOL    HW215914   4.842  10.632   6.798 -2.2306  0.3876 -1.0569
37077SOL     OW15915   1.427   1.642   0.857 -0.7676  0.2991  0.2079
37077SOL    HW115916   1.460   1.674   0.773 -0.5372 -1.0289 -0.2299
37077SOL    HW215917   1.381   1.717   0.894  0.8820  1.5452 -0.1515
37078SOL     OW15918   1.355   2.587   8.135 -0.2920 -0.4555  0.1504
37078SOL    HW115919   1.333   2.575   8.227 -1.3047 -2.1577 -0.2645
37078SOL    HW215920   1.278   2.630   8.097  0.0330  0.0450  0.0475
37079SOL     OW15921   7.219   3.245   7.950  0.6437 -0.4280 -0.6598
37079SOL    HW115922   7.280   3.282   8.013 -2.2195 -0.0334  2.1762
37079SOL    HW215923   7.181   3.320   7.906  0.8820 -0.5472 -1.0698
37080SOL     OW15924   0.351   4.701   7.578  0.4815 -0.0835  0.3641
37080SOL    HW115925   0.319   4.711   7.488 -2.1590 -0.6209  1.1608
37080SOL    HW215926   0.431   4.649   7.569 -1.1727 -2.5627 -1.5439
37081SOL     OW15927   1.480  10.425   8.538 -0.6474 -0.3040  0.2836
37081SOL    HW115928   1.403  10.376   8.567 -1.5204  1.3287  0.8637
37081SOL    HW215929   1.469  10.512   8.576 -0.0552  0.9036 -2.0784
37082SOL     OW15930   8.412   2.037   2.659  0.2036 -0.1269 -0.6120
37082SOL    HW115931   8.376   2.103   2.718  0.1402 -0.3810 -0.3601
37082SOL    HW215932   8.340   2.015   2.600  0.6219  1.0090 -1.5830
37083SOL     OW15933   4.791   8.994   4.576 -0.3840  0.4024  1.3707
37083SOL    HW115934   4.797   8.943   4.495 -1.3083  1.4008  0.6558
37083SOL    HW215935   4.866   8.964   4.628 -0.8655 -1.6252  0.9567
37084SOL     OW15936   2.303   6.104   4.569  0.5379  0.3068 -0.0278
37084SOL    HW115937   2.236   6.145   4.514 -0.2579 -0.7805  0.1009
37084SOL    HW215938   2.370   6.172   4.579  0.1143  0.9517 -1.2938
37085SOL     OW15939   0.983   4.847   7.414  0.2043  0.3736  0.0317
37085SOL    HW115940   0.966   4.782   7.346  1.1091  1.0747 -0.8911
37085SOL    HW215941   1.033   4.800   7.481  0.6782  0.0760 -0.5323
37086SOL     OW15942   8.564   1.364   2.738 -0.1603  0.1929  0.1948
37086SOL    HW115943   8.648   1.320   2.751 -0.2139 -0.5548 -1.7662
37086SOL    HW215944   8.568   1.398   2.649 -1.3651  1.4602  0.5974
37087SOL     OW15945   4.855   0.472   5.375 -0.1414 -0.5079  0.1563
37087SOL    HW115946   4.933   0.494   5.426 -0.1818  0.6683 -0.2681
37087SOL    HW215947   4.815   0.399   5.423  0.7696 -0.5886  0.8253
37088SOL     OW15948   1.964   0.925   8.611 -0.3967  0.2000 -0.0027
37088SOL    HW115949   1.990   0.971   8.691 -0.1659 -0.4901  0.3282
37088SOL    HW215950   2.039   0.869   8.591 -1.3287 -1.2938  0.5602
37089SOL     OW15951   8.598   6.522   8.148  0.2618  0.2672 -0.0277
37089SOL    HW115952   8.640   6.469   8.081 -0.6093 -0.3930 -0.0687
37089SOL    HW215953   8.599   6.468   8.227  0.8295  0.8403  0.3681
37090SOL     OW15954   2.542  10.543   2.253  0.4053  0.4967  0.0834
37090SOL    HW115955   2.508  10.574   2.169 -1.6817 -1.9071 -0.0839
37090SOL    HW215956   2.469  10.493   2.291  1.7093  0.4541  2.7675
37091SOL     OW15957  10.577   2.347   2.745 -0.9322 -0.2340 -0.2683
37091SOL    HW115958  10.535   2.433   2.750 -0.5607 -0.0477 -0.3751
37091SOL    HW215959  10.519   2.296   2.688 -0.9842  0.0421 -0.4662
37092SOL     OW15960  10.375  11.996   3.954  0.1915 -0.0368 -0.2189
37092SOL    HW115961  10.349  11.960   3.869  0.4017 -0.0493 -0.2777
37092SOL    HW215962  10.459  11.956   3.972  1.4181  1.9319 -1.2373
37093SOL     OW15963   8.410   3.808  11.990  0.2630 -0.0049 -0.0949
37093SOL    HW115964   8.489   3.860  12.001 -0.5407  0.8237  2.6508
37093SOL    HW215965   8.390   3.814  11.897  1.8931  2.0492 -0.3966
37094SOL     OW15966   1.001   8.120   1.521  0.1182 -0.2325 -0.5479
37094SOL    HW115967   0.922   8.066   1.524  0.6474 -0.9964  0.1303
37094SOL    HW215968   1.071   8.058   1.501  0.7857  0.1238  0.5826
37095SOL     OW15969   9.367   7.056  10.836 -0.3867  0.8453 -0.7410
37095SOL    HW115970   9.416   7.089  10.761 -0.0750 -0.0221 -0.9362
37095SOL    HW215971   9.360   6.962  10.820  1.9134  0.1622  1.5240
37096SOL     OW15972   2.625  10.902   0.694 -0.6385 -0.0887 -0.2352
37096SOL    HW115973   2.679  10.877   0.618  0.6114 -0.5211  0.7526
37096SOL    HW215974   2.656  10.990   0.717  0.0206 -0.5234  0.6197
37097SOL     OW15975  11.921   6.395   2.527 -0.6968 -0.3840 -0.5494
37097SOL    HW115976  11.944   6.422   2.438 -2.1828  2.4162 -0.1994
37097SOL    HW215977  11.991   6.431   2.582 -1.0615  0.0813 -0.3787
37098SOL     OW15978   7.331   0.797   6.185 -0.5346  0.3240 -0.4667
37098SOL    HW115979   7.291   0.816   6.100  0.1937 -0.7559 -1.0851
37098SOL    HW215980   7.288   0.717   6.215 -1.5721  1.2963  0.7394
37099SOL     OW15981   4.854   6.383  11.920 -0.5039  0.0984  0.2379
37099SOL    HW115982   4.898   6.302  11.947 -0.4224 -0.0192 -0.2360
37099SOL    HW215983   4.780   6.391  11.980 -0.8614 -0.6476 -0.0824
37100SOL     OW15984   4.773   0.115   9.806 -0.3418  0.1738 -0.5100
37100SOL    HW115985   4.852   0.120   9.860  0.7296 -0.0853 -1.9967
37100SOL    HW215986   4.772   0.198   9.758 -0.5839 -0.1075 -0.9988
37101SOL     OW15987   9.827   6.134   8.946  0.1530 -0.1063 -0.0643
37101SOL    HW115988   9.839   6.224   8.916 -0.5766 -0.0834 -0.2864
37101SOL    HW215989   9.786   6.089   8.872  2.3619 -1.1563 -0.7730
37102SOL     OW15990   2.605   0.219   6.384 -0.2548 -0.5710 -0.5665
37102SOL    HW115991   2.697   0.211   6.409 -0.1639 -1.1726 -1.0614
37102SOL    HW215992   2.560   0.246   6.464 -0.1080 -3.1617  0.4893
37103SOL     OW15993   3.326  10.160   3.948  0.3469 -0.2855  0.0489
37103SOL    HW115994   3.243  10.205   3.930  1.5751  1.6411 -1.2886
37103SOL    HW215995   3.302  10.069   3.960 -2.3389  0.6208  3.0225
37104SOL     OW15996   7.848   4.621   4.826  0.0757 -0.2659  0.1616
37104SOL    HW115997   7.923   4.592   4.877  0.5027 -0.1976 -0.4124
37104SOL    HW215998   7.886   4.653   4.744 -0.2994  2.4373  0.9526
37105SOL     OW15999   0.706   0.726   5.371 -0.0590  0.8425 -0.3713
37105SOL    HW116000   0.667   0.806   5.406 -0.7831  0.6083 -0.6141
37105SOL    HW216001   0.798   0.747   5.358 -0.2213  1.5937 -0.3112
37106SOL     OW16002   2.819   8.663   5.914  0.8135  0.1485 -0.0401
37106SOL    HW116003   2.867   8.599   5.861 -2.0411 -3.4731  1.3050
37106SOL    HW216004   2.781   8.723   5.850  1.1197 -1.3555 -1.7419
37107SOL     OW16005   6.010  11.551   4.175 -0.3178  0.1065 -0.2248
37107SOL    HW116006   6.015  11.526   4.083  0.5543  0.1181 -0.1899
37107SOL    HW216007   6.013  11.647   4.174 -1.3559  0.1484 -0.2330
37108SOL     OW16008   7.727   3.663   6.540  0.1672 -0.0504 -0.1537
37108SOL    HW116009   7.785   3.664   6.464  1.2227  1.7659  0.6084
37108SOL    HW216010   7.786   3.667   6.616 -0.8833 -1.0190  0.7610
37109SOL     OW16011  11.789   8.713   2.916  0.5675  0.2188 -0.0994
37109SOL    HW116012  11.770   8.713   3.010  0.6217  1.2914 -0.0721
37109SOL    HW216013  11.843   8.791   2.903 -0.3610  0.7093 -1.1878
37110SOL     OW16014   5.833   9.762   1.810 -0.5867 -0.1292 -0.3107
37110SOL    HW116015   5.817   9.857   1.809 -0.5437 -0.1249 -0.8075
37110SOL    HW216016   5.907   9.750   1.751  0.3351 -0.3138  0.8310
37111SOL     OW16017   8.661   3.608   5.918  0.2526 -0.5505  0.6633
37111SOL    HW116018   8.727   3.540   5.936  1.4461  0.1784 -0.7375
37111SOL    HW216019   8.618   3.578   5.838  0.8727  0.3849 -0.0316
37112SOL     OW16020   1.835   4.709   5.600  0.0319  0.9497  0.0276
37112SOL    HW116021   1.818   4.675   5.688 -0.5449  1.4196  0.1032
37112SOL    HW216022   1.875   4.636   5.553  0.6131  0.7856  0.7665
37113SOL     OW16023  11.738  10.168   8.419  0.0092 -0.0326 -0.6710
37113SOL    HW116024  11.704  10.254   8.443  1.1388  0.1625  0.3175
37113SOL    HW216025  11.743  10.170   8.324  0.6418  1.2557 -0.6352
37114SOL     OW16026   0.095   8.911   0.398  0.2468  0.2507 -0.0332
37114SOL    HW116027   0.124   8.952   0.479 -0.9074  2.0598 -0.4794
37114SOL    HW216028   0.000   8.903   0.407 -0.4143  3.4537 -2.3486
37115SOL     OW16029   3.703  10.719   9.275  0.1965  0.2568  0.0574
37115SOL    HW116030   3.776  10.762   9.318 -0.2155  1.8992 -0.7859
37115SOL    HW216031   3.626  10.770   9.301 -0.3718 -0.2048 -0.6708
37116SOL     OW16032  10.065   2.401   1.767 -0.0283  0.3495  0.7812
37116SOL    HW116033  10.086   2.399   1.860 -0.4460  0.7634  0.8932
37116SOL    HW216034   9.997   2.335   1.756 -1.7593  1.9389  1.2626
37117SOL     OW16035   7.556   1.770   2.407  0.3896  0.3714 -0.7041
37117SOL    HW116036   7.566   1.862   2.432  1.4649  0.0945 -0.0391
37117SOL    HW216037   7.528   1.773   2.316  0.0516  1.3655 -0.5799
37118SOL     OW16038   5.308   6.590   0.716 -0.0763 -0.0272  0.0612
37118SOL    HW116039   5.228   6.643   0.713 -0.1048  0.0291  1.3979
37118SOL    HW216040   5.277   6.500   0.725 -0.0280 -0.3420 -2.2036
37119SOL     OW16041   8.304   8.469   7.784 -0.3296  0.1407  0.6856
37119SOL    HW116042   8.375   8.405   7.796  1.6018  1.4588 -2.2403
37119SOL    HW216043   8.309   8.525   7.861  1.1724 -0.3995  1.0221
37120SOL     OW16044   0.195  11.640   2.989  0.2216  0.0043 -0.3981
37120SOL    HW116045   0.251  11.701   2.942 -0.8616  0.9181 -0.5514
37120SOL    HW216046   0.123  11.693   3.021  0.1926 -0.8677  1.0738
37121SOL     OW16047   0.535   0.160  10.493 -0.2297  0.1109 -0.0142
37121SOL    HW116048   0.572   0.184  10.408 -0.0512 -0.2755 -0.0476
37121SOL    HW216049   0.449   0.201  10.494 -0.6374 -0.6908 -0.7915
37122SOL     OW16050   7.058  11.773   2.589  0.5078 -0.5053 -0.1989
37122SOL    HW116051   7.093  11.687   2.611 -1.1806 -1.1263  0.2497
37122SOL    HW216052   7.066  11.824   2.670 -0.1692 -0.8530  0.0989
37123SOL     OW16053   7.660  11.524   9.083 -0.1822 -0.0038 -0.1456
37123SOL    HW116054   7.729  11.578   9.123 -1.2171  0.4949  1.0189
37123SOL    HW216055   7.653  11.448   9.140 -2.3616  1.1888  1.3393
37124SOL     OW16056   8.542   2.954   2.115  0.0940  0.2349  0.3721
37124SOL    HW116057   8.606   2.883   2.111 -0.1588  0.0069  0.4180
37124SOL    HW216058   8.583   3.019   2.172  0.5274  0.3303 -0.0319
37125SOL     OW16059  11.273   7.808   5.844  0.0381  0.5634 -0.3575
37125SOL    HW116060  11.218   7.802   5.922  1.6768  0.5246  0.8424
37125SOL    HW216061  11.356   7.767   5.869  1.1671  1.9708 -1.5919
37126SOL     OW16062   7.889   9.968   6.598 -0.1239  0.0892 -0.8398
37126SOL    HW116063   7.961  10.012   6.552 -0.5466  0.1655 -1.4375
37126SOL    HW216064   7.871  10.025   6.672  1.8824 -1.0278  0.6063
37127SOL     OW16065   4.391  11.138   1.893  0.0616  0.3440 -0.6888
37127SOL    HW116066   4.475  11.178   1.915  0.2296 -0.6944  0.7327
37127SOL    HW216067   4.388  11.059   1.946 -2.2489  0.8701  0.1000
37128SOL     OW16068   8.559   9.823   8.709 -0.2347 -0.4626  0.0427
37128SOL    HW116069   8.597   9.902   8.747 -1.5148  0.3175 -0.2317
37128SOL    HW216070   8.580   9.754   8.771  1.4433 -0.0470 -0.0131
37129SOL     OW16071   3.178   3.993   3.610 -0.3291  0.4126  0.3565
37129SOL    HW116072   3.242   3.997   3.538  0.0195 -0.3352  0.6134
37129SOL    HW216073   3.200   4.068   3.665 -0.6254  1.0160 -0.3351
37130SOL     OW16074   6.809   5.973   8.740  0.0729  0.2755  0.2904
37130SOL    HW116075   6.755   5.967   8.661 -1.6158 -0.9975  1.4455
37130SOL    HW216076   6.895   5.940   8.714 -0.6975 -0.9302 -0.8378
37131SOL     OW16077   1.930  11.741   1.599 -0.0997  0.9212  0.8473
37131SOL    HW116078   1.986  11.816   1.577 -0.9028  1.3895  0.3657
37131SOL    HW216079   1.955  11.673   1.536  0.0263  1.0725  0.7333
37132SOL     OW16080   0.919   7.308   0.198 -0.4751 -0.1048 -0.0582
37132SOL    HW116081   0.948   7.374   0.136  2.4941 -1.6572 -0.5313
37132SOL    HW216082   0.941   7.344   0.284 -2.9896  1.3005  0.0899
37133SOL     OW16083   8.400  11.731   3.841  0.3513  0.0855 -0.0200
37133SOL    HW116084   8.334  11.732   3.910  2.7255  1.5402  2.4158
37133SOL    HW216085   8.454  11.655   3.860 -0.1269 -0.6866 -1.5738
37134SOL     OW16086  11.638   2.994   9.753 -0.1646  0.3334 -0.1037
37134SOL    HW116087  11.592   2.918   9.719 -0.4182  1.2207 -1.8872
37134SOL    HW216088  11.711   2.959   9.802 -0.4925 -1.0664 -0.5790
37135SOL     OW16089   2.500   9.543  10.749  0.4370  0.0076  0.4123
37135SOL    HW116090   2.482   9.501  10.665  1.9452  1.6947 -0.8102
37135SOL    HW216091   2.550   9.477  10.798  2.4957  0.1488 -1.3506
37136SOL     OW16092  10.920   9.057   6.200  0.4908  0.0863  0.0804
37136SOL    HW116093  10.950   9.148   6.194  0.0853  0.1414 -1.6634
37136SOL    HW216094  10.833   9.064   6.240  1.3946  0.2140  2.1389
37137SOL     OW16095   5.468   3.097   0.564 -0.5054 -0.7203  0.4844
37137SOL    HW116096   5.462   3.130   0.653 -0.3615  0.9215 -0.0846
37137SOL    HW216097   5.445   3.172   0.508  2.7076 -0.6524 -0.9725
37138SOL     OW16098   5.911  10.336   4.299  1.0795 -0.0023  0.0073
37138SOL    HW116099   5.901  10.269   4.367 -0.1585 -0.0680 -0.2053
37138SOL    HW216100   5.838  10.396   4.313  1.7802  0.9283 -0.2365
37139SOL     OW16101   8.268   8.707   0.933  0.4717 -0.0791 -0.4700
37139SOL    HW116102   8.174   8.726   0.933  0.7672  1.5479 -0.2051
37139SOL    HW216103   8.276   8.626   0.984 -0.9157 -1.0886 -1.7566
37140SOL     OW16104  11.084  10.736   8.847 -0.8923 -0.1346  0.1707
37140SOL    HW116105  11.036  10.813   8.814  1.1557  0.6142 -1.2093
37140SOL    HW216106  11.087  10.750   8.942 -1.7073  0.7878  0.0846
37141SOL     OW16107   4.675   2.428   6.947 -0.4392 -0.8651 -0.1693
37141SOL    HW116108   4.618   2.506   6.955 -0.0331 -0.5509 -0.3069
37141SOL    HW216109   4.751   2.459   6.898  0.5836 -0.8740  1.3181
37142SOL     OW16110  11.440   3.324   7.448  0.4950  0.3794 -0.3045
37142SOL    HW116111  11.407   3.283   7.368  0.4895  0.0422 -0.1306
37142SOL    HW216112  11.529   3.352   7.427  0.7928 -0.4439 -0.1811
37143SOL     OW16113   9.893   4.150   2.241 -0.1483  0.6585 -0.5582
37143SOL    HW116114   9.913   4.230   2.191  0.7248  0.9700  0.2534
37143SOL    HW216115   9.882   4.181   2.331 -0.7844 -0.0231 -0.3922
37144SOL     OW16116   0.849  10.121   2.401  0.6357  0.2663  0.5011
37144SOL    HW116117   0.920  10.074   2.357  0.0134 -0.0078 -0.2381
37144SOL    HW216118   0.842  10.078   2.486  2.5084  1.4513  1.3069
37145SOL     OW16119   7.120   4.205  11.347 -0.5231 -0.4439 -0.0558
37145SOL    HW116120   7.101   4.111  11.336 -0.6712 -0.5245  0.8425
37145SOL    HW216121   7.214   4.209  11.360 -0.4581 -0.4224 -0.5111
37146SOL     OW16122   2.886   7.121   5.385  0.3743 -0.4742 -0.1994
37146SOL    HW116123   2.799   7.120   5.344  0.2524 -0.9829  0.0609
37146SOL    HW216124   2.921   7.208   5.364  0.0339 -0.4701 -0.7867
37147SOL     OW16125   3.054   1.031   7.134  0.0976  0.1535 -0.2708
37147SOL    HW116126   2.994   1.038   7.060 -0.2646 -0.0736 -0.0023
37147SOL    HW216127   3.008   0.975   7.198  0.5925 -0.0273 -0.0639
37148SOL     OW16128   4.195   0.968  10.704  0.0046  0.5434 -0.0316
37148SOL    HW116129   4.199   1.064  10.701 -1.3816  0.6463 -4.0869
37148SOL    HW216130   4.257   0.940  10.637 -1.8395 -1.1921 -1.1153
37149SOL     OW16131   1.614   8.320  10.286  0.0302 -0.0247  0.0488
37149SOL    HW116132   1.687   8.381  10.294  0.1346  0.0767 -1.4117
37149SOL    HW216133   1.642   8.241  10.332  0.0928  0.8365  1.5354
37150SOL     OW16134  10.686   5.337   7.108 -0.7056  0.2459  0.7179
37150SOL    HW116135  10.662   5.256   7.063 -1.8495  0.4526  0.9259
37150SOL    HW216136  10.657   5.323   7.198 -0.3835  0.6747  0.8901
37151SOL     OW16137   2.563  11.957  10.574  0.1562  0.1155  0.4621
37151SOL    HW116138   2.584  11.971  10.667  0.9740  0.3478  0.2493
37151SOL    HW216139   2.579  12.041  10.533 -0.8709  0.2028  0.2144
37152SOL     OW16140   7.046  10.581   5.033 -0.3194 -0.3127 -0.3817
37152SOL    HW116141   7.036  10.664   4.984  0.8994 -0.0313 -0.1820
37152SOL    HW216142   7.132  10.549   5.008  0.5566  0.0686  1.9101
37153SOL     OW16143   8.017   1.504  10.534 -0.1492 -0.5797 -0.0850
37153SOL    HW116144   7.987   1.525  10.623  0.2168 -0.2540 -0.0342
37153SOL    HW216145   8.024   1.409  10.533  1.1353 -0.5244  0.6703
37154SOL     OW16146  10.267   0.286  10.608  0.5752 -0.0386  0.1090
37154SOL    HW116147  10.275   0.272  10.514 -2.3425  1.1886 -0.3993
37154SOL    HW216148  10.304   0.206  10.647  2.8595 -0.1185 -1.9460
37155SOL     OW16149   8.991   2.889   7.948 -0.2934  0.7437 -0.3495
37155SOL    HW116150   8.958   2.825   8.011 -2.4883  2.0599 -0.0553
37155SOL    HW216151   9.024   2.836   7.875 -0.7127 -0.7368  0.4910
37156SOL     OW16152   3.065   6.456   4.943  0.1160 -0.7810 -0.5479
37156SOL    HW116153   3.144   6.445   4.890  0.5241  0.0507 -0.1244
37156SOL    HW216154   3.047   6.550   4.941  0.7625 -0.5611  1.6365
37157SOL     OW16155   1.933   6.427   4.216  0.0928 -0.4515  0.6645
37157SOL    HW116156   1.839   6.435   4.233  0.2886  0.0472  1.5578
37157SOL    HW216157   1.938   6.383   4.131 -0.9516  0.0423  0.3281
37158SOL     OW16158   2.143   8.971   2.043 -0.3138 -0.5369  0.2770
37158SOL    HW116159   2.084   9.046   2.037 -0.6135 -0.7861  0.0621
37158SOL    HW216160   2.176   8.974   2.132 -0.8255 -0.5189  0.4708
37159SOL     OW16161   5.218   9.625   7.704  0.3037 -0.1339  0.0124
37159SOL    HW116162   5.288   9.665   7.755 -2.6670  2.6815  2.3964
37159SOL    HW216163   5.248   9.630   7.613  2.0577  3.7081  0.5888
37160SOL     OW16164   5.990   7.659   9.580  0.0982  0.0201 -0.1597
37160SOL    HW116165   5.904   7.625   9.607  0.6679 -1.9219 -0.6373
37160SOL    HW216166   6.025   7.701   9.659 -0.3841 -1.1045  0.6921
37161SOL     OW16167  10.518   4.638   3.780  0.0473 -0.3332  0.3339
37161SOL    HW116168  10.510   4.587   3.699  0.5702 -2.6178  1.6363
37161SOL    HW216169  10.611   4.631   3.803 -0.1699 -0.0659  1.3382
37162SOL     OW16170   4.504   5.931   4.519  0.3287 -0.4222  0.0667
37162SOL    HW116171   4.560   5.912   4.594  0.6857  0.6185  0.0799
37162SOL    HW216172   4.564   5.930   4.444  0.5380  1.3608  0.1588
37163SOL     OW16173  11.818  11.953   3.196  0.0371 -0.1940 -0.0277
37163SOL    HW116174  11.751  11.886   3.183 -0.1832  0.2795 -1.5934
37163SOL    HW216175  11.778  12.033   3.163  0.8217  0.4222  0.4836
37164SOL     OW16176   0.957   5.630   5.372 -0.1104  0.5234 -0.0419
37164SOL    HW116177   0.983   5.633   5.280 -0.6526 -1.6973 -0.3071
37164SOL    HW216178   0.873   5.584   5.372  0.1108  0.0798  1.6074
37165SOL     OW16179  11.335   5.876   3.875  0.0523  0.6141  0.5166
37165SOL    HW116180  11.276   5.867   3.800 -0.7744 -1.5399  1.3520
37165SOL    HW216181  11.405   5.932   3.843 -1.7124  2.1552 -0.9595
37166SOL     OW16182   9.341   7.095   2.463  0.0474  0.4264  0.6743
37166SOL    HW116183   9.315   7.082   2.555 -2.1264 -3.4354 -0.2408
37166SOL    HW216184   9.285   7.166   2.432 -1.5656 -0.3732  1.6062
37167SOL     OW16185   2.603  10.132   2.135 -0.0196  0.2715 -0.4644
37167SOL    HW116186   2.549  10.173   2.068  0.1458 -0.4877 -1.0761
37167SOL    HW216187   2.627  10.204   2.195 -1.5391  0.6526 -0.2821
37168SOL     OW16188   6.681   7.003  11.216 -0.2040  0.1634 -0.4939
37168SOL    HW116189   6.705   6.911  11.221 -0.4572  0.1594  2.4379
37168SOL    HW216190   6.762   7.048  11.190  0.1161 -0.7806 -1.1816
37169SOL     OW16191   1.750   5.525   2.786 -0.3777 -0.0912  0.1226
37169SOL    HW116192   1.828   5.521   2.731 -1.0440 -0.2126 -0.8375
37169SOL    HW216193   1.684   5.476   2.737 -2.0879  2.9002 -0.7798
37170SOL     OW16194   8.316   3.811  11.242 -0.4538 -0.1312 -0.5371
37170SOL    HW116195   8.323   3.822  11.147  0.9096 -2.0288 -0.7161
37170SOL    HW216196   8.402   3.838  11.275 -1.0014  0.7435  0.2062
37171SOL     OW16197  11.152   0.019   6.603 -0.1111 -0.6564  0.1808
37171SOL    HW116198  11.158  -0.074   6.624  0.3667 -0.4610  0.9491
37171SOL    HW216199  11.078   0.051   6.654  0.3427 -0.4152  0.6957
37172SOL     OW16200   7.976   6.457   9.136  0.1824  0.2457  0.1928
37172SOL    HW116201   8.023   6.533   9.170 -2.1383  2.8231 -1.9084
37172SOL    HW216202   8.010   6.446   9.047 -0.1492 -0.6129  0.1634
37173SOL     OW16203  11.534   3.433   9.627  0.2712  0.1502 -0.3319
37173SOL    HW116204  11.456   3.394   9.668  0.4138  0.1828 -0.0279
37173SOL    HW216205  11.599   3.437   9.697  0.1072  1.3903 -0.2295
37174SOL     OW16206  10.514   7.733   1.509  0.2226  0.4473  0.0162
37174SOL    HW116207  10.515   7.804   1.445  1.4846 -1.0218 -1.6896
37174SOL    HW216208  10.605   7.703   1.512 -0.3689 -1.3843  0.3229
37175SOL     OW16209   6.572   5.408   6.987  0.2401 -0.0177 -0.6903
37175SOL    HW116210   6.547   5.317   6.970 -0.0750 -0.0775  0.0851
37175SOL    HW216211   6.607   5.439   6.903  2.5390 -1.5560 -0.3730
37176SOL     OW16212   5.469   1.271   0.457  0.4315 -0.1156 -0.2476
37176SOL    HW116213   5.407   1.225   0.400 -1.4225  1.0112  0.7900
37176SOL    HW216214   5.453   1.364   0.440  1.1713  0.2047  0.7303
37177SOL     OW16215   6.700   9.693   2.868 -0.6116  0.2432  0.0579
37177SOL    HW116216   6.786   9.709   2.907 -1.8205  1.6282  2.4369
37177SOL    HW216217   6.701   9.743   2.786  0.0376  2.4520  1.3171
37178SOL     OW16218  11.200   1.002  11.154 -0.2216  0.1201 -0.1557
37178SOL    HW116219  11.221   1.023  11.063  2.2661  0.8577  0.5015
37178SOL    HW216220  11.202   0.906  11.157 -1.1641  0.0549 -1.0122
37179SOL     OW16221   8.845   5.946   6.004 -0.3439 -0.2641 -0.4856
37179SOL    HW116222   8.911   6.015   5.995  1.3910 -2.0635 -2.9991
37179SOL    HW216223   8.878   5.891   6.075  0.7643 -0.9895 -1.5320
37180SOL     OW16224   0.263   9.230   6.170 -0.8377  0.0129 -0.3184
37180SOL    HW116225   0.196   9.297   6.158 -1.9975 -1.2122 -0.8913
37180SOL    HW216226   0.289   9.239   6.261 -1.2428  0.9844 -0.2818
37181SOL     OW16227   4.263   4.030   0.557  0.0063 -0.1613 -0.1835
37181SOL    HW116228   4.356   4.022   0.535  0.1702  0.7788  0.1366
37181SOL    HW216229   4.261   4.035   0.652 -0.4948 -1.5393 -0.0991
37182SOL     OW16230   4.100   1.773   3.125 -0.3453 -0.2522  0.3910
37182SOL    HW116231   4.107   1.776   3.030  0.6172  0.5831  0.4766
37182SOL    HW216232   4.166   1.709   3.152 -1.9596 -2.0218  0.4091
37183SOL     OW16233   3.021  11.012   0.105 -0.0633 -0.2916  0.2380
37183SOL    HW116234   2.969  11.069   0.048  1.0028 -1.0275 -1.5519
37183SOL    HW216235   2.964  10.938   0.124 -1.2798  1.0640  2.1638
37184SOL     OW16236   5.398   4.410   6.274  0.0722 -0.2622  0.1148
37184SOL    HW116237   5.330   4.437   6.335 -1.0132 -0.5350 -0.9211
37184SOL    HW216238   5.447   4.491   6.254  1.2180 -0.3806  2.1928
37185SOL     OW16239   4.444  11.092   8.511 -0.4422 -0.7978  0.3205
37185SOL    HW116240   4.465  11.121   8.422  1.8866  0.6534  1.2282
37185SOL    HW216241   4.475  11.002   8.515  0.5404 -0.4987 -0.0733
37186SOL     OW16242   2.604  10.665   5.571 -0.1470  0.0522 -0.0774
37186SOL    HW116243   2.616  10.629   5.483  2.1056 -0.2314  0.2770
37186SOL    HW216244   2.647  10.750   5.568 -1.1009  0.5745  0.4547
37187SOL     OW16245   8.930   4.818  11.427 -0.2044  0.2851  0.2273
37187SOL    HW116246   9.022   4.822  11.402  0.0863 -1.1695  0.9155
37187SOL    HW216247   8.885   4.783  11.350  0.0686 -0.4045  0.3688
37188SOL     OW16248   6.245   7.757   1.323  0.2776  0.3284  0.1899
37188SOL    HW116249   6.170   7.710   1.360  0.3930  0.8425  1.1052
37188SOL    HW216250   6.207   7.836   1.284  0.2643  0.2375  0.0172
37189SOL     OW16251  11.352   8.108   4.101 -0.4251  0.3200  0.2429
37189SOL    HW116252  11.401   8.173   4.151 -0.9904 -0.2372  1.5785
37189SOL    HW216253  11.262   8.141   4.100 -0.1577  1.1146 -1.8082
37190SOL     OW16254  10.440   4.637   2.437 -0.4570 -0.3383  0.3423
37190SOL    HW116255  10.511   4.637   2.372 -1.2014  0.4777 -0.5061
37190SOL    HW216256  10.362   4.614   2.386 -0.7775 -1.5001  1.3128
37191SOL     OW16257   1.036   4.418   0.528 -0.1412 -0.3927 -0.2826
37191SOL    HW116258   1.127   4.428   0.556  0.0048 -0.0602 -0.8560
37191SOL    HW216259   1.019   4.496   0.476 -1.2391  0.3286  1.0705
37192SOL     OW16260   7.094  10.091   8.979  0.0636 -0.3892 -0.4795
37192SOL    HW116261   7.120  10.080   9.070 -0.9247  0.7161 -0.0475
37192SOL    HW216262   7.127  10.177   8.954  0.3488 -0.6945 -1.1750
37193SOL     OW16263   0.570   7.898   7.413 -0.0342  0.1938  0.2102
37193SOL    HW116264   0.490   7.926   7.459  1.0822  2.2499  1.0289
37193SOL    HW216265   0.538   7.852   7.335 -1.9921 -0.3893  1.2860
37194SOL     OW16266  11.265   1.274   8.006 -0.1420  0.0850  0.0030
37194SOL    HW116267  11.176   1.299   8.031  0.1305 -1.8276  3.4059
37194SOL    HW216268  11.253   1.214   7.932 -1.7407 -0.3961  0.6031
37195SOL     OW16269   3.904  11.381   5.797 -0.4005  0.0111 -0.0009
37195SOL    HW116270   3.874  11.464   5.760 -2.6405 -0.6511  0.2020
37195SOL    HW216271   3.849  11.366   5.873  2.5324  0.1520  2.3351
37196SOL     OW16272  10.048   3.550   8.133  0.3420  0.1221 -0.2396
37196SOL    HW116273  10.030   3.630   8.182  1.0881 -0.0204  0.2876
37196SOL    HW216274  10.003   3.562   8.050  1.6393  1.7634 -0.7688
37197SOL     OW16275   7.984   7.400   2.669  0.0913  0.3804 -0.7976
37197SOL    HW116276   8.015   7.488   2.692  1.9380 -0.8520  1.9142
37197SOL    HW216277   7.889   7.408   2.671  0.2057  2.2409 -0.1796
37198SOL     OW16278  10.042  11.136   9.552  0.6561  0.0177 -0.5572
37198SOL    HW116279   9.968  11.153   9.493  0.7733 -1.4546 -1.1632
37198SOL    HW216280  10.092  11.067   9.509  0.0600 -2.0264  1.8155
37199SOL     OW16281  10.389   1.813   1.777 -0.5074  0.3294 -0.4814
37199SOL    HW116282  10.391   1.753   1.703  0.2389  1.9310 -1.8415
37199SOL    HW216283  10.411   1.760   1.852  2.0333 -0.7678 -1.8867
37200SOL     OW16284   0.494   8.697   7.234 -0.0984 -0.2043  0.2339
37200SOL    HW116285   0.502   8.712   7.329 -0.6608 -0.7926  0.3728
37200SOL    HW216286   0.562   8.633   7.215 -0.2839 -0.4243  0.3156
37201SOL     OW16287   6.664   7.934   7.599 -0.4477  0.1425  0.2799
37201SOL    HW116288   6.742   7.887   7.629 -1.0221 -0.8801  0.2180
37201SOL    HW216289   6.698   8.001   7.540  0.2607 -1.5299 -1.2867
37202SOL     OW16290   9.743   0.466   0.123  0.1012  0.0408 -0.3004
37202SOL    HW116291   9.707   0.483   0.036 -0.4778 -0.2894 -0.1342
37202SOL    HW216292   9.837   0.458   0.110 -0.0304 -0.5094 -0.9823
37203SOL     OW16293   6.719   3.237  11.979  0.2171 -0.2104 -0.1884
37203SOL    HW116294   6.744   3.219  12.069 -0.7070 -1.1938 -0.1123
37203SOL    HW216295   6.746   3.328  11.964 -0.0341  0.1138  1.2227
37204SOL     OW16296   1.392   6.295   5.386  0.1722 -0.1501  0.3934
37204SOL    HW116297   1.409   6.258   5.300  0.9180 -0.5537  0.7052
37204SOL    HW216298   1.382   6.220   5.444  0.8529  0.1133  0.8721
37205SOL     OW16299   3.883   3.707   0.292  0.3093 -0.5888  0.4158
37205SOL    HW116300   3.877   3.625   0.340  0.6998 -0.3836  0.8219
37205SOL    HW216301   3.892   3.774   0.360  0.3572 -0.2467  0.0763
37206SOL     OW16302   8.776   8.378   0.874 -0.1372 -0.1141  0.3750
37206SOL    HW116303   8.771   8.396   0.780 -2.0572 -0.9214  0.2886
37206SOL    HW216304   8.688   8.353   0.899  0.6973 -1.6187  2.0630
37207SOL     OW16305   2.840   9.222   5.283  0.3442  0.3371  0.7465
37207SOL    HW116306   2.889   9.297   5.249  0.4379 -0.3749 -0.7721
37207SOL    HW216307   2.764   9.215   5.226  1.3086 -1.8468 -0.3848
37208SOL     OW16308   7.532   8.239   3.990 -0.0124 -0.4440 -0.2404
37208SOL    HW116309   7.455   8.192   4.024 -0.3873 -0.5003 -1.1536
37208SOL    HW216310   7.495   8.313   3.942  0.4662 -0.9100 -1.3534
37209SOL     OW16311   4.881   2.396   9.851  0.2362 -0.6506 -0.0925
37209SOL    HW116312   4.828   2.476   9.854 -0.6991 -1.3002  0.7226
37209SOL    HW216313   4.971   2.429   9.843 -0.1880  0.4720 -0.5378
37210SOL     OW16314   4.228   9.951   8.605  0.0902 -0.3335  0.2290
37210SOL    HW116315   4.244  10.032   8.556 -2.3896  0.4240  0.5309
37210SOL    HW216316   4.137   9.930   8.587  0.1277 -2.0044  1.7242
37211SOL     OW16317   0.111   7.541   5.272  0.0561  0.3472 -0.7727
37211SOL    HW116318   0.148   7.628   5.286  1.1345 -0.2088 -0.0586
37211SOL    HW216319   0.181   7.491   5.231  0.5333 -1.0151  1.5228
37212SOL     OW16320   7.900   8.896  11.736 -0.0779  0.2340 -0.1296
37212SOL    HW116321   7.967   8.850  11.786 -1.1147 -0.2001  0.9230
37212SOL    HW216322   7.925   8.884  11.645 -0.1082 -2.1447  0.1129
37213SOL     OW16323   6.150   8.328  11.063  0.3848 -0.2740 -0.0952
37213SOL    HW116324   6.153   8.309  10.969  0.3261  0.4815 -0.2563
37213SOL    HW216325   6.209   8.264  11.102  0.4208 -0.5902 -0.6440
37214SOL     OW16326   1.235   4.799  10.018  0.4504  0.0517 -0.0966
37214SOL    HW116327   1.258   4.706  10.014 -2.2811 -0.6900 -0.3788
37214SOL    HW216328   1.199   4.811  10.106 -0.0973  0.5876 -0.3863
37215SOL     OW16329   6.306   5.875   9.473 -0.3730 -0.0180  0.5910
37215SOL    HW116330   6.321   5.813   9.545 -0.0801  0.7263  1.1869
37215SOL    HW216331   6.337   5.830   9.395 -0.2111 -0.6420  1.0111
37216SOL     OW16332   6.622   8.726  11.554  0.3731  0.6097 -0.0944
37216SOL    HW116333   6.546   8.744  11.499  0.9379 -0.7975 -1.4208
37216SOL    HW216334   6.585   8.713  11.641 -0.9367 -0.0918 -0.7142
37217SOL     OW16335   8.534   5.895   7.873 -0.1118  0.1184  0.0699
37217SOL    HW116336   8.521   5.982   7.911  1.4551 -0.3945  1.9108
37217SOL    HW216337   8.627   5.893   7.851  0.3486 -1.7557  1.9237
37218SOL     OW16338   2.879   2.324   8.829  0.2557  0.3416  0.0461
37218SOL    HW116339   2.791   2.316   8.792 -0.4150 -1.5590  1.8686
37218SOL    HW216340   2.873   2.397   8.890  0.4252  1.2742 -1.0296
37219SOL     OW16341   1.345   1.001   1.212 -0.2998  0.8768 -0.7861
37219SOL    HW116342   1.296   1.083   1.206 -2.6858 -0.4334 -0.6287
37219SOL    HW216343   1.337   0.975   1.303 -0.7836 -0.1987 -1.1215
37220SOL     OW16344  11.318   8.919   3.737  0.6898 -0.4700 -0.1498
37220SOL    HW116345  11.262   8.850   3.772 -0.2152  0.1154 -0.4058
37220SOL    HW216346  11.367   8.877   3.666  2.2532 -1.5618  1.4967
37221SOL     OW16347  10.040   9.405   8.065 -0.1801  0.1711  0.4802
37221SOL    HW116348  10.011   9.369   7.981  0.1367 -0.5285  0.6682
37221SOL    HW216349  10.124   9.362   8.082 -0.2254  0.3367  1.1372
37222SOL     OW16350   2.980   6.696   3.413  0.4579  0.5167 -0.0759
37222SOL    HW116351   2.935   6.632   3.357  0.6575  0.2898  0.0225
37222SOL    HW216352   2.990   6.652   3.497  0.6211  0.6684 -0.0152
37223SOL     OW16353   0.378   8.769  10.450  0.1700 -0.7783  0.3014
37223SOL    HW116354   0.301   8.714  10.466 -0.5608  0.1345  0.0383
37223SOL    HW216355   0.437   8.749  10.522  0.4881 -2.8442 -0.4688
37224SOL     OW16356   1.364   5.761   9.581 -0.2010 -0.1345  0.0487
37224SOL    HW116357   1.425   5.728   9.647  0.9613  0.5937 -0.6294
37224SOL    HW216358   1.344   5.685   9.526  0.3757 -0.3062  0.0719
37225SOL     OW16359   5.155   0.913   3.397 -0.4973  0.0220  0.5944
37225SOL    HW116360   5.115   0.903   3.484  0.7901 -0.5799  1.1467
37225SOL    HW216361   5.214   0.988   3.407  0.3136 -0.5980  0.4980
37226SOL     OW16362   5.137   7.341   1.794  0.3063  0.2686 -0.3098
37226SOL    HW116363   5.158   7.385   1.877  1.0471 -0.9335  0.1800
37226SOL    HW216364   5.218   7.346   1.744  0.1691  0.1088 -0.5460
37227SOL     OW16365   6.758   9.284   1.393 -0.0502  0.8215  0.7590
37227SOL    HW116366   6.746   9.293   1.488 -0.9295 -0.7912  0.8444
37227SOL    HW216367   6.800   9.198   1.383 -0.1991  0.8683 -0.3352
37228SOL     OW16368   2.469   7.287  10.801  0.1520  0.2620  0.3916
37228SOL    HW116369   2.451   7.204  10.759 -2.2997  0.7423  0.3491
37228SOL    HW216370   2.495   7.264  10.891  0.2703 -0.5588  0.1469
37229SOL     OW16371   1.433   9.848   1.474  0.4810  0.3184  0.4829
37229SOL    HW116372   1.416   9.878   1.384 -0.8614  0.1402  0.6491
37229SOL    HW216373   1.347   9.822   1.506  1.2300 -1.4452  1.1775
37230SOL     OW16374   5.551   8.827   2.789  0.8068  0.4703  0.2069
37230SOL    HW116375   5.572   8.855   2.879 -0.5690  1.0109  0.3862
37230SOL    HW216376   5.590   8.894   2.733  1.3232  0.3479  0.4121
37231SOL     OW16377   4.364   9.705  11.546  0.1682  0.1231 -0.2181
37231SOL    HW116378   4.345   9.676  11.457  2.2990  0.0792 -0.7241
37231SOL    HW216379   4.280   9.734  11.581 -0.9440 -1.0614 -1.7855
37232SOL     OW16380   2.397   1.106   2.263  0.6169 -0.0190  0.2319
37232SOL    HW116381   2.320   1.161   2.250  0.2933 -0.1593  1.4503
37232SOL    HW216382   2.462   1.140   2.201  0.0129  0.9437  0.1155
37233SOL     OW16383  11.169   5.536   1.315 -0.3529  0.0077 -0.1446
37233SOL    HW116384  11.091   5.583   1.283 -0.7805 -0.3457  0.3577
37233SOL    HW216385  11.139   5.492   1.394  0.3355 -0.2348 -0.0148
37234SOL     OW16386   8.846   0.616   8.820  0.0611  0.4499 -0.3896
37234SOL    HW116387   8.939   0.631   8.835  0.5853  0.4937 -3.0918
37234SOL    HW216388   8.827   0.534   8.866  2.0334 -0.7941 -1.6276
37235SOL     OW16389   3.623   2.149   8.016 -0.0932 -0.2208 -0.4654
37235SOL    HW116390   3.639   2.056   8.005 -0.8377 -0.8261  2.5576
37235SOL    HW216391   3.699   2.181   8.065 -0.7863  0.2592  0.3428
37236SOL     OW16392  11.295   0.074   5.838 -0.3393  0.0845 -0.4299
37236SOL    HW116393  11.274   0.081   5.932 -1.2158  0.4469 -0.6402
37236SOL    HW216394  11.371   0.017   5.835  0.8958  1.5772  0.6473
37237SOL     OW16395   4.511   7.525   1.877  0.0893 -0.8105  0.8511
37237SOL    HW116396   4.592   7.511   1.928  0.1136  0.0319  1.0524
37237SOL    HW216397   4.478   7.609   1.908  0.3480 -0.0518 -0.8778
37238SOL     OW16398   1.701   7.405   2.944  0.3436  0.2111  0.1953
37238SOL    HW116399   1.699   7.500   2.928 -0.5976  0.1718  0.0130
37238SOL    HW216400   1.702   7.366   2.857  0.1655  0.0515  0.2645
37239SOL     OW16401   3.002   0.620  10.282  0.1649 -0.2817  0.1530
37239SOL    HW116402   3.024   0.698  10.333 -2.1694  0.2559  0.4919
37239SOL    HW216403   3.059   0.623  10.206  1.0242  1.0460  0.8208
37240SOL     OW16404   3.314  10.010   9.486 -0.1372 -0.3814  0.5353
37240SOL    HW116405   3.376   9.970   9.426 -1.7915 -1.5310 -0.5071
37240SOL    HW216406   3.315   9.953   9.563  1.1231  0.4322  1.1565
37241SOL     OW16407   8.037  10.739   6.263 -0.4160 -0.4823 -0.6875
37241SOL    HW116408   8.035  10.757   6.357 -0.0510 -0.8339 -0.6095
37241SOL    HW216409   8.100  10.801   6.227  0.0899 -0.9232 -0.5691
37242SOL     OW16410   2.753   0.171   2.390 -0.2311  0.2163  0.4076
37242SOL    HW116411   2.791   0.146   2.306 -0.0141  0.4538  0.4340
37242SOL    HW216412   2.775   0.264   2.400 -2.1045  0.7832 -0.2845
37243SOL     OW16413   6.577   4.486   1.201  0.0923  0.4081  0.1331
37243SOL    HW116414   6.590   4.553   1.134  2.4574  1.9624  2.0061
37243SOL    HW216415   6.507   4.521   1.257  0.2770  0.6014  0.2442
37244SOL     OW16416   7.124  11.819   4.920 -0.0209  0.6951 -0.1019
37244SOL    HW116417   7.182  11.831   4.844 -1.4887 -0.0722 -1.4004
37244SOL    HW216418   7.112  11.907   4.955  1.7733  0.8991  0.1241
37245SOL     OW16419  10.614   5.911   1.666 -0.4390 -0.0299  0.4132
37245SOL    HW116420  10.605   5.943   1.756 -1.0651  0.3325  0.2323
37245SOL    HW216421  10.548   5.842   1.659  0.5374 -1.0061  0.6361
37246SOL     OW16422   5.420  11.632   0.348 -0.3439 -0.0019  0.6315
37246SOL    HW116423   5.498  11.600   0.392 -0.3934 -1.8065 -0.5271
37246SOL    HW216424   5.450  11.662   0.262 -0.7518  0.3491  0.6058
37247SOL     OW16425   3.059   9.756   3.907  0.2572 -0.2782  0.4739
37247SOL    HW116426   3.053   9.669   3.868 -3.5850  0.7639 -1.7603
37247SOL    HW216427   2.972   9.794   3.896  2.1319  4.5939 -0.4491
37248SOL     OW16428  10.139   1.645   7.559  0.0919 -0.8060  0.0803
37248SOL    HW116429  10.135   1.724   7.613 -0.8592 -0.7154 -0.1079
37248SOL    HW216430  10.233   1.633   7.542  0.1924  0.8505 -0.7245
37249SOL     OW16431   6.837  11.720   0.385  0.3776  0.6871  0.2515
37249SOL    HW116432   6.914  11.694   0.334  1.5395  1.4635  1.5322
37249SOL    HW216433   6.832  11.656   0.455 -0.9144 -0.0845 -0.5224
37250SOL     OW16434  11.484   4.333   7.408 -0.0565 -0.7737 -0.2282
37250SOL    HW116435  11.552   4.278   7.448  0.0800 -0.2171  0.3125
37250SOL    HW216436  11.532   4.392   7.351 -0.0981 -0.4696  0.0503
37251SOL     OW16437   1.314   4.186   2.348  0.4934 -0.2321  0.0735
37251SOL    HW116438   1.231   4.160   2.388  0.2686 -0.2770 -0.4129
37251SOL    HW216439   1.343   4.108   2.299 -1.0589  0.8574 -2.8620
37252SOL     OW16440   1.398   2.504  10.153 -0.3093 -0.1369 -0.4895
37252SOL    HW116441   1.315   2.532  10.114 -0.3104 -0.7342 -0.9206
37252SOL    HW216442   1.372   2.440  10.219 -0.3111  0.8694  0.5383
37253SOL     OW16443   4.660   1.569   6.168 -0.6612 -0.7984 -0.1742
37253SOL    HW116444   4.629   1.549   6.256 -1.0557 -0.7135 -0.2900
37253SOL    HW216445   4.588   1.541   6.111 -2.1208  2.5994 -0.2531
37254SOL     OW16446   1.351   9.189   3.346 -0.5242  0.1878  0.3087
37254SOL    HW116447   1.429   9.181   3.291 -0.0284 -1.6146  1.1799
37254SOL    HW216448   1.364   9.270   3.395 -0.2150  0.9818 -1.0306
37255SOL     OW16449   7.720  10.947   5.765 -0.1607 -0.6697  0.6021
37255SOL    HW116450   7.757  10.859   5.770  2.3262  0.2727  0.1695
37255SOL    HW216451   7.683  10.951   5.676  1.9181 -0.5347 -0.3181
37256SOL     OW16452   0.260   4.502   3.844  0.3670 -0.1781  0.1354
37256SOL    HW116453   0.286   4.411   3.852  0.4778 -0.2487 -0.8589
37256SOL    HW216454   0.243   4.514   3.750 -2.2012  0.1348  0.5617
37257SOL     OW16455   8.429   4.743   1.057  0.7297 -0.0832 -0.4030
37257SOL    HW116456   8.338   4.771   1.061  1.8502  4.0766  0.5097
37257SOL    HW216457   8.426   4.649   1.072 -3.3415 -0.0682 -0.1004
37258SOL     OW16458   5.278   8.619   7.699 -0.2081 -0.3158 -0.4851
37258SOL    HW116459   5.183   8.634   7.691 -0.2906 -1.3782 -2.1388
37258SOL    HW216460   5.287   8.558   7.772 -0.6086  1.0688  0.7791
37259SOL     OW16461   8.397   5.498   3.298 -0.1135 -0.1858  0.1204
37259SOL    HW116462   8.471   5.543   3.257  1.2765 -1.2217  1.3477
37259SOL    HW216463   8.433   5.413   3.324 -0.5289  0.7675  4.4139
37260SOL     OW16464   3.380   8.678  10.989  0.1275 -0.2072  0.5525
37260SOL    HW116465   3.301   8.683  10.936  0.1860 -0.2085  0.4658
37260SOL    HW216466   3.426   8.600  10.957 -0.4065 -0.8937  1.3869
37261SOL     OW16467   0.983  11.424   9.448 -0.1509  0.0418  0.1715
37261SOL    HW116468   0.891  11.447   9.458 -0.4108 -0.8063 -0.1342
37261SOL    HW216469   1.004  11.446   9.357 -0.7488 -1.9638 -0.5167
37262SOL     OW16470   5.492   6.675   2.725  0.0021 -0.5725  0.0447
37262SOL    HW116471   5.489   6.751   2.784  1.1166 -0.5857  0.1456
37262SOL    HW216472   5.500   6.712   2.638 -0.6982 -0.5624 -0.0151
37263SOL     OW16473   6.712  10.123  11.967  0.0528  0.0151 -0.1580
37263SOL    HW116474   6.748  10.036  11.981  0.7266 -0.1349 -2.4415
37263SOL    HW216475   6.639  10.110  11.906 -1.3388  0.8001  1.2718
37264SOL     OW16476   0.052   7.538   2.240 -0.1715 -0.1846 -0.3247
37264SOL    HW116477   0.060   7.571   2.330  1.6773  1.0358 -0.8863
37264SOL    HW216478  -0.014   7.469   2.246  0.2232 -0.4505  2.0667
37265SOL     OW16479   5.260   5.118  11.148 -0.5597  0.5885  0.0588
37265SOL    HW116480   5.200   5.105  11.074 -0.5631  3.2859 -0.5102
37265SOL    HW216481   5.204   5.147  11.219 -0.2008  0.8706  0.2262
37266SOL     OW16482   8.347   0.880   9.783  0.1323  0.2539 -0.1673
37266SOL    HW116483   8.276   0.944   9.774 -0.8707 -0.5838  1.3034
37266SOL    HW216484   8.384   0.899   9.870  3.7256  2.5756 -1.9666
37267SOL     OW16485  11.074   9.203   2.711 -0.5982 -0.0912 -0.2961
37267SOL    HW116486  11.088   9.285   2.663 -0.6284 -0.6113 -1.2071
37267SOL    HW216487  10.987   9.213   2.751 -1.3427 -0.3462 -1.7947
37268SOL     OW16488   3.365   3.230   8.726 -0.0637  0.0168  0.1525
37268SOL    HW116489   3.276   3.258   8.748 -0.3747 -1.7589  1.4551
37268SOL    HW216490   3.352   3.164   8.658  0.2215 -0.3998  0.4968
37269SOL     OW16491  10.252   7.139  11.882 -0.0701 -0.7509  0.1786
37269SOL    HW116492  10.181   7.075  11.894 -0.9767  0.3000  0.5945
37269SOL    HW216493  10.239   7.202  11.953  0.1699  0.4517 -0.8137
37270SOL     OW16494   2.497  11.180   0.844 -0.5437 -0.0831 -0.4392
37270SOL    HW116495   2.459  11.096   0.818 -0.6522  0.0651 -0.7636
37270SOL    HW216496   2.590  11.172   0.824 -0.3031 -0.6199  0.7935
37271SOL     OW16497   1.382   0.573   7.274  0.4537 -0.1558  0.2828
37271SOL    HW116498   1.431   0.517   7.214 -0.1969 -1.0781  0.5837
37271SOL    HW216499   1.434   0.653   7.280  0.5578 -0.0496 -1.4672
37272SOL     OW16500   8.070   3.925   9.173  0.0805  1.0108  0.1225
37272SOL    HW116501   8.031   3.917   9.086 -0.2584 -2.6139  0.4744
37272SOL    HW216502   8.164   3.930   9.156 -0.0306  1.1134 -0.4827
37273SOL     OW16503   3.295   3.019   8.248  0.2908  0.3604  0.2884
37273SOL    HW116504   3.221   3.076   8.229  0.5020  0.8916  1.0269
37273SOL    HW216505   3.323   2.986   8.162 -0.8698  0.0492  0.0169
37274SOL     OW16506   2.816   4.514   6.658  0.2232 -0.0022 -0.4285
37274SOL    HW116507   2.763   4.524   6.737 -0.1514  0.0379 -0.6832
37274SOL    HW216508   2.901   4.483   6.690  0.1378  0.2081  0.0069
37275SOL     OW16509   4.353   8.785   5.527 -0.4276 -0.7375 -0.0378
37275SOL    HW116510   4.269   8.831   5.527 -0.3682 -0.3957  3.2055
37275SOL    HW216511   4.331   8.693   5.513 -0.9325 -0.3323 -2.4423
37276SOL     OW16512   7.419  11.280  10.648  0.0516 -0.2637  0.3480
37276SOL    HW116513   7.365  11.360  10.648 -0.0074 -0.2837 -0.6104
37276SOL    HW216514   7.358  11.211  10.622  0.2594 -0.4970  0.4879
37277SOL     OW16515  10.426   3.700   0.343  0.4320 -0.4748  0.3231
37277SOL    HW116516  10.448   3.736   0.429  1.8205  1.7690 -0.8905
37277SOL    HW216517  10.353   3.754   0.312 -0.0322 -1.2433  0.0528
37278SOL     OW16518   7.844   6.568  10.403  0.2735  0.4886 -0.7591
37278SOL    HW116519   7.775   6.528  10.350 -1.3930 -1.4013  2.5179
37278SOL    HW216520   7.925   6.547  10.356 -1.0625 -0.9359 -2.5994
37279SOL     OW16521   9.539   6.758   5.157  0.2680  0.2697 -0.0631
37279SOL    HW116522   9.544   6.842   5.203  1.3735  0.6734 -0.8897
37279SOL    HW216523   9.446   6.748   5.137  0.2023  1.6843 -0.6109
37280SOL     OW16524   1.112   8.198   6.913  0.1179 -0.2949  0.3089
37280SOL    HW116525   1.187   8.255   6.898 -0.1026  0.6802  2.5572
37280SOL    HW216526   1.043   8.233   6.857  0.4987  0.6271  0.4041
37281SOL     OW16527   3.631   3.882   3.644  0.2646  0.4209 -0.2741
37281SOL    HW116528   3.602   3.923   3.563 -0.8952  0.8197  0.3175
37281SOL    HW216529   3.706   3.935   3.672 -0.2001  1.1445 -0.3713
37282SOL     OW16530   8.199   6.227   2.942 -0.2272  0.2491  0.5822
37282SOL    HW116531   8.259   6.201   3.012  0.0165 -0.4371  0.1272
37282SOL    HW216532   8.120   6.176   2.957  0.2199 -0.7375 -0.2600
37283SOL     OW16533   0.888   0.946   5.847 -0.2552 -0.6486 -0.4479
37283SOL    HW116534   0.944   0.871   5.826 -1.2597 -0.8469 -2.7738
37283SOL    HW216535   0.916   1.014   5.785 -0.6316  0.2760  0.3682
37284SOL     OW16536  11.819   9.301   7.678  0.8209 -0.0373 -0.1794
37284SOL    HW116537  11.880   9.231   7.701  2.0869  0.6564 -1.2754
37284SOL    HW216538  11.809   9.293   7.583 -0.3830  0.2196 -0.0918
37285SOL     OW16539   4.838   6.443   9.173  0.3303  0.2292 -0.3097
37285SOL    HW116540   4.895   6.368   9.154 -2.2984 -2.0379  0.0397
37285SOL    HW216541   4.823   6.438   9.268  0.5232  1.5743 -0.1873
37286SOL     OW16542   7.263   9.219  11.348  0.0042  0.9350  1.4178
37286SOL    HW116543   7.234   9.310  11.348  0.1925  1.0022  0.5020
37286SOL    HW216544   7.192   9.171  11.391 -1.8379  0.9948 -1.2864
37287SOL     OW16545   1.399  11.146  10.497 -0.0031  0.3541 -0.7167
37287SOL    HW116546   1.382  11.101  10.414  0.5059 -1.1422 -0.0347
37287SOL    HW216547   1.351  11.096  10.563  0.3428  0.9872  0.0406
37288SOL     OW16548   7.526   2.063   4.568  0.1645  0.1238 -0.2691
37288SOL    HW116549   7.567   2.110   4.640 -0.5517  0.6000 -0.1600
37288SOL    HW216550   7.493   1.983   4.609  2.2588 -1.0111 -0.6486
37289SOL     OW16551   6.943   7.408   4.014  0.0640  0.9831 -0.2741
37289SOL    HW116552   6.976   7.355   4.086 -1.1561 -0.2655 -0.5790
37289SOL    HW216553   7.020   7.450   3.977  0.9444  0.1921  0.6059
37290SOL     OW16554   7.561   7.118   0.108  0.7699 -0.3823  0.1261
37290SOL    HW116555   7.588   7.079   0.024  0.5144 -1.0556  0.3540
37290SOL    HW216556   7.566   7.046   0.170 -1.1443 -0.4190  0.2693
37291SOL     OW16557   3.602   4.976   4.545 -0.1606 -0.1907 -0.1294
37291SOL    HW116558   3.671   5.041   4.531 -1.4639  0.7501 -2.9791
37291SOL    HW216559   3.632   4.898   4.498  0.0157 -0.6665  0.7309
37292SOL     OW16560  10.445   4.265   2.572  0.5081 -0.2213  0.2408
37292SOL    HW116561  10.489   4.183   2.553 -1.3318 -1.3411  0.5295
37292SOL    HW216562  10.387   4.280   2.497  2.6247  2.2247 -1.0715
37293SOL     OW16563   7.711   2.409   5.841  0.0642  0.0400  0.3928
37293SOL    HW116564   7.724   2.503   5.853  1.6535 -0.0383 -0.4574
37293SOL    HW216565   7.779   2.383   5.779 -1.5871 -1.3269 -0.9337
37294SOL     OW16566   6.636   1.662   3.115 -0.0286  0.1712  0.3747
37294SOL    HW116567   6.576   1.605   3.164  0.3920 -0.3888  0.2382
37294SOL    HW216568   6.692   1.602   3.066  0.2062  0.7112 -0.0249
37295SOL     OW16569   3.374  11.711   1.426 -0.2594  0.2039 -0.0174
37295SOL    HW116570   3.315  11.671   1.491  2.1133 -0.2067  2.0562
37295SOL    HW216571   3.435  11.641   1.403  1.2601  1.3833  0.2740
37296SOL     OW16572  10.723   5.112  11.109  0.2002  0.1182 -0.2913
37296SOL    HW116573  10.680   5.105  11.194 -1.0222  0.8550 -0.8153
37296SOL    HW216574  10.813   5.082  11.124  0.1285  0.6429  1.3398
37297SOL     OW16575   8.021   7.759   0.242 -0.5741 -0.6143 -0.0423
37297SOL    HW116576   8.082   7.831   0.233 -1.6429  0.0982 -2.1629
37297SOL    HW216577   7.942   7.799   0.279 -0.4021 -1.1856  0.9971
37298SOL     OW16578  10.199   0.668  10.535 -0.5454 -0.3838  0.2081
37298SOL    HW116579  10.125   0.658  10.595  0.0406 -1.1831  0.8106
37298SOL    HW216580  10.183   0.603  10.466  0.0547 -1.2230  0.8338
37299SOL     OW16581   0.433   8.182   2.598 -0.4399 -0.0617  0.1695
37299SOL    HW116582   0.442   8.273   2.570 -2.7007  0.0374 -0.4667
37299SOL    HW216583   0.396   8.188   2.686 -2.2399 -0.2806 -0.5169
37300SOL     OW16584   4.275   6.395   4.421  0.2512  0.6816 -0.6291
37300SOL    HW116585   4.290   6.432   4.508  0.5896 -2.2770  0.6835
37300SOL    HW216586   4.357   6.413   4.374  1.6991 -1.1116  1.0514
37301SOL     OW16587  10.515   8.441  10.470  0.0914 -0.3363  0.1824
37301SOL    HW116588  10.465   8.522  10.481  0.7137  0.5232 -2.5012
37301SOL    HW216589  10.454   8.381  10.427  0.5384 -0.1757 -0.7062
37302SOL     OW16590   3.212   9.768   2.334  0.1404  0.4077 -0.1838
37302SOL    HW116591   3.264   9.797   2.259  0.8316 -0.7019 -0.1580
37302SOL    HW216592   3.239   9.677   2.348 -1.7328 -0.1766 -0.1031
37303SOL     OW16593   6.782   3.413   4.513 -0.0480  0.4726  0.6106
37303SOL    HW116594   6.730   3.350   4.463 -0.4847  0.4569  1.0793
37303SOL    HW216595   6.776   3.494   4.463  0.6675  0.0976 -0.0934
37304SOL     OW16596   4.243   9.811   9.980  0.1384  0.5167  0.2641
37304SOL    HW116597   4.199   9.897   9.988 -2.5369 -0.4908 -1.9181
37304SOL    HW216598   4.226   9.768  10.064 -2.9135  0.3596 -0.3118
37305SOL     OW16599   1.946   0.249   3.924  0.3031 -0.3892 -0.2586
37305SOL    HW116600   2.031   0.237   3.881  0.5429 -0.8465  0.3149
37305SOL    HW216601   1.888   0.187   3.882  0.8291 -1.6723  0.8180
37306SOL     OW16602   8.073   3.086   7.853 -0.1760  0.5205  0.1106
37306SOL    HW116603   7.987   3.117   7.824 -0.0063  1.4079  0.5202
37306SOL    HW216604   8.066   3.081   7.948 -0.4007 -1.3684  0.0231
37307SOL     OW16605  11.951   9.627   7.119 -0.0313  0.4903  0.1503
37307SOL    HW116606  11.949   9.722   7.111 -0.3061  0.6495  1.7437
37307SOL    HW216607  12.019   9.610   7.185  0.3554 -0.4534 -0.4646
37308SOL     OW16608  11.348   1.005   6.092 -0.8072  0.8149 -0.0771
37308SOL    HW116609  11.362   0.945   6.020  1.0648  0.9055  0.1637
37308SOL    HW216610  11.335   0.949   6.169 -1.2236  0.7208 -0.2163
37309SOL     OW16611   6.598   6.447   1.386  0.0477  0.2896  0.3724
37309SOL    HW116612   6.606   6.371   1.327 -0.2083  1.9379 -1.9206
37309SOL    HW216613   6.680   6.448   1.436  0.0070 -1.5269  0.5516
37310SOL     OW16614   1.478   2.393   6.656  0.1296 -0.1491  0.6610
37310SOL    HW116615   1.496   2.416   6.748  3.8331 -0.6779  0.2283
37310SOL    HW216616   1.446   2.303   6.660  0.0348 -0.0897  1.4700
37311SOL     OW16617   3.963   2.954   0.136  0.0228 -0.1528 -0.1635
37311SOL    HW116618   4.004   2.998   0.062  1.7288 -0.4783  0.5375
37311SOL    HW216619   3.942   2.867   0.102  0.7460 -0.2846 -0.2957
37312SOL     OW16620   4.409   6.727  11.203 -0.1138  0.5250  0.4279
37312SOL    HW116621   4.420   6.637  11.233 -0.4118  0.5560  0.6390
37312SOL    HW216622   4.443   6.781  11.275  1.3568  0.5611 -0.2708
37313SOL     OW16623   6.210   7.826  11.233 -0.3350  0.8782  0.5193
37313SOL    HW116624   6.289   7.778  11.206  0.6620  1.7473  1.7542
37313SOL    HW216625   6.140   7.788  11.180  0.7708 -0.4590 -0.0640
37314SOL     OW16626   8.477   1.395  10.075  0.0626  0.1235  0.1069
37314SOL    HW116627   8.421   1.463  10.038  2.3634  1.9218 -0.2553
37314SOL    HW216628   8.442   1.381  10.163  0.6652  3.2854  0.9811
37315SOL     OW16629   5.086   6.157   9.350  0.6829 -0.4733 -0.2040
37315SOL    HW116630   5.085   6.168   9.255 -0.0227  2.2657  0.0393
37315SOL    HW216631   4.994   6.151   9.374  0.5912  2.2884  0.5128
37316SOL     OW16632   4.289   1.459   0.008  0.3523  0.3536  0.3443
37316SOL    HW116633   4.303   1.366   0.027 -0.2526  0.2114  0.1225
37316SOL    HW216634   4.254   1.495   0.089 -3.0482 -0.4294 -0.5997
37317SOL     OW16635   5.724   3.818  11.080  0.3924  0.2146  0.1701
37317SOL    HW116636   5.682   3.778  11.003 -0.0184  0.7699  0.0969
37317SOL    HW216637   5.669   3.894  11.100  0.4817  0.0556  1.0359
37318SOL     OW16638  11.409   3.233  10.927  0.7875  0.2721 -0.0851
37318SOL    HW116639  11.415   3.315  10.878 -0.8511 -0.5072 -1.7264
37318SOL    HW216640  11.329   3.243  10.979  1.0370  0.0401  0.3406
37319SOL     OW16641   8.266   7.380   2.358 -0.5177  0.1498 -0.2051
37319SOL    HW116642   8.221   7.329   2.425  0.4898  0.9139  1.1025
37319SOL    HW216643   8.309   7.315   2.302  0.0838 -0.4673  0.9474
37320SOL     OW16644   9.181   9.074   1.961 -0.3761 -0.2087 -0.4596
37320SOL    HW116645   9.227   9.152   1.993 -0.5376 -1.4364  3.2806
37320SOL    HW216646   9.097   9.107   1.930 -0.6573  1.1209  1.5240
37321SOL     OW16647   3.472  11.773   0.605 -0.5715  0.2332  0.5777
37321SOL    HW116648   3.505  11.695   0.648  0.2713  1.0735  1.5180
37321SOL    HW216649   3.412  11.812   0.668 -0.0404  0.9800  0.6436
37322SOL     OW16650   2.471   0.245  10.279  0.7472  0.3119 -1.1998
37322SOL    HW116651   2.550   0.199  10.306 -0.1349 -0.4177  0.2197
37322SOL    HW216652   2.482   0.334  10.314  1.6233  0.6949 -2.3765
37323SOL     OW16653   0.461   8.515   7.893 -0.7274 -0.1028 -0.0965
37323SOL    HW116654   0.528   8.470   7.945 -1.8545 -1.8627 -0.0943
37323SOL    HW216655   0.490   8.506   7.803  0.3687  1.4873  0.0590
37324SOL     OW16656   7.598   7.146   1.654  0.1116  0.0155 -0.1979
37324SOL    HW116657   7.689   7.177   1.659  0.9082 -2.0476 -0.8117
37324SOL    HW216658   7.604   7.060   1.613 -1.7709 -1.6346  2.6001
37325SOL     OW16659   1.536   0.393   9.489 -0.3057 -0.0548  0.1667
37325SOL    HW116660   1.577   0.457   9.547  0.5352  0.8349 -1.3589
37325SOL    HW216661   1.446   0.425   9.477 -0.3761 -0.0535  0.6680
37326SOL     OW16662   6.162   6.875   1.876  0.1506  0.0788 -0.0385
37326SOL    HW116663   6.192   6.812   1.810 -0.4161  0.5715 -0.7876
37326SOL    HW216664   6.074   6.898   1.848  0.2840  1.0747  0.3303
37327SOL     OW16665   1.644   2.648   8.938  0.1340  0.6360  0.3600
37327SOL    HW116666   1.638   2.694   8.854  0.6034  0.9751  0.5120
37327SOL    HW216667   1.553   2.633   8.963 -0.0372  1.8307  0.4954
37328SOL     OW16668   6.388   3.960  11.971 -0.4063  0.7213 -0.0879
37328SOL    HW116669   6.339   4.008  11.905  0.6939  0.5278 -1.0738
37328SOL    HW216670   6.461   3.921  11.923 -0.0728 -0.1569  1.0818
37329SOL     OW16671   5.857  11.895   9.954  0.0621  0.6410 -0.2492
37329SOL    HW116672   5.765  11.871   9.964  0.3008 -0.1005  0.2520
37329SOL    HW216673   5.893  11.830   9.894  0.1304  1.3052 -0.9571
37330SOL     OW16674   3.253   1.895   8.921  0.1384  0.8758 -0.1026
37330SOL    HW116675   3.296   1.918   8.839  0.9651 -1.7469 -0.4881
37330SOL    HW216676   3.163   1.872   8.896  0.2746  0.4687 -0.2240
37331SOL     OW16677  10.807   9.958   0.247  0.6680 -0.5373 -0.4471
37331SOL    HW116678  10.726  10.006   0.231 -0.0972 -1.4220  0.5593
37331SOL    HW216679  10.870  10.025   0.271 -0.0897  0.0689 -0.0906
37332SOL     OW16680  11.526   3.073   7.767 -0.5575  0.6388  0.3387
37332SOL    HW116681  11.568   3.118   7.694 -2.6448 -0.5521 -1.7441
37332SOL    HW216682  11.436   3.107   7.768 -0.9484 -0.3402  1.5139
37333SOL     OW16683   1.769  10.526   2.594 -0.3634  0.1235 -0.1902
37333SOL    HW116684   1.735  10.614   2.578  0.1461 -0.0666 -2.5563
37333SOL    HW216685   1.810  10.500   2.512 -1.7242 -2.9005 -0.0302
37334SOL     OW16686   0.060   2.540   1.297 -0.7773 -0.5956 -0.0721
37334SOL    HW116687   0.114   2.486   1.240 -2.4088 -0.7842 -1.5437
37334SOL    HW216688  -0.030   2.523   1.268 -1.6058  0.0521  1.9499
37335SOL     OW16689   2.538   6.706   1.131  0.4162  0.3278  0.2201
37335SOL    HW116690   2.566   6.658   1.209  0.2572  0.8189  0.5880
37335SOL    HW216691   2.571   6.654   1.058  0.8012 -0.0019  0.6181
37336SOL     OW16692   3.753   2.347   2.889 -0.1377 -0.0968  0.1380
37336SOL    HW116693   3.809   2.306   2.823  0.5063 -0.3619  0.8311
37336SOL    HW216694   3.751   2.285   2.961 -0.6645  0.2813  0.4613
37337SOL     OW16695   9.422   7.071   7.423  0.2394  0.7317 -0.3766
37337SOL    HW116696   9.411   6.984   7.461  0.3331 -0.5316 -3.0456
37337SOL    HW216697   9.350   7.081   7.361  0.6702  2.2418 -0.6968
37338SOL     OW16698  11.788   4.802   2.962 -0.3077  0.0361 -0.2128
37338SOL    HW116699  11.716   4.859   2.937 -0.8940 -0.5043  0.2113
37338SOL    HW216700  11.866   4.847   2.930 -0.6671  1.5138  0.8820
37339SOL     OW16701   8.277   9.077  11.745  0.3258  0.2278 -0.1195
37339SOL    HW116702   8.266   9.163  11.784 -0.1353  0.7554 -1.3486
37339SOL    HW216703   8.362   9.046  11.777  0.5762  1.2190  0.1977
37340SOL     OW16704   2.658  10.637   3.548  0.0942  0.4334 -0.2930
37340SOL    HW116705   2.655  10.568   3.482  3.0997 -0.9742  0.8627
37340SOL    HW216706   2.659  10.718   3.497  0.3143 -0.5054 -1.8689
37341SOL     OW16707  10.328  10.412   7.374 -0.2115  0.4260 -0.2651
37341SOL    HW116708  10.262  10.385   7.310 -1.9941  2.1809  0.7219
37341SOL    HW216709  10.341  10.505   7.358  0.4323  0.5697  0.9542
37342SOL     OW16710   2.259   2.555   4.259 -0.0829 -0.2126 -0.1858
37342SOL    HW116711   2.299   2.632   4.218  2.5060 -0.2384  1.9608
37342SOL    HW216712   2.317   2.482   4.234 -0.8850 -0.9764  0.1166
37343SOL     OW16713   7.151   0.117   1.521  0.2986  0.2200 -0.1996
37343SOL    HW116714   7.066   0.137   1.482 -0.5219 -0.9763  0.8563
37343SOL    HW216715   7.137   0.032   1.565  1.8426  0.3364  0.5767
37344SOL     OW16716  10.369  10.382   8.737  0.0151 -0.1650 -0.1576
37344SOL    HW116717  10.292  10.403   8.684  1.0097 -0.6302 -1.8414
37344SOL    HW216718  10.416  10.316   8.687  0.5427 -1.3106  1.7591
37345SOL     OW16719   0.723   6.393   1.723 -0.3139  0.0838  1.1231
37345SOL    HW116720   0.726   6.299   1.737  0.1533 -0.0847 -0.0221
37345SOL    HW216721   0.654   6.424   1.782 -0.1220 -0.8990  1.8714
37346SOL     OW16722   5.450   4.269   2.519  0.0544 -0.6763  0.2198
37346SOL    HW116723   5.521   4.271   2.583  0.6799 -0.6180 -0.4696
37346SOL    HW216724   5.372   4.297   2.569  0.3289 -1.5767  1.1866
37347SOL     OW16725   5.485   5.997   4.851 -0.1285 -0.0529  0.4994
37347SOL    HW116726   5.436   5.921   4.817  1.6532 -0.5083 -1.2154
37347SOL    HW216727   5.545   5.959   4.916  0.3622 -0.0346  0.0595
37348SOL     OW16728   3.212  10.328   1.660 -0.3725  0.0695 -0.3718
37348SOL    HW116729   3.268  10.401   1.631 -0.5313 -0.3109 -1.6954
37348SOL    HW216730   3.123  10.357   1.640 -0.7270  0.7540  1.9063
37349SOL     OW16731   8.845  10.615   4.201  0.2918 -0.5849 -0.0903
37349SOL    HW116732   8.881  10.694   4.159 -1.9055 -0.7725 -2.5725
37349SOL    HW216733   8.900  10.544   4.168  0.4830 -0.3998 -0.1752
37350SOL     OW16734   7.680  10.181   0.392 -0.5694 -0.0588 -0.5205
37350SOL    HW116735   7.759  10.158   0.343 -0.6845  0.1581 -0.8124
37350SOL    HW216736   7.612  10.127   0.354 -0.5275 -0.3828 -0.1417
37351SOL     OW16737  11.560   4.161  11.689 -0.2457  0.1693  0.4390
37351SOL    HW116738  11.577   4.131  11.599  0.1683  0.3277  0.4626
37351SOL    HW216739  11.465   4.175  11.692 -0.0411  2.2264 -0.6307
37352SOL     OW16740   3.793   8.341   6.500 -0.5368  0.4524  0.1732
37352SOL    HW116741   3.854   8.383   6.560  0.0060  1.6230 -1.1424
37352SOL    HW216742   3.844   8.271   6.459 -0.6330  0.2451  0.4052
37353SOL     OW16743   3.866   9.947   4.670 -0.2154 -0.1268  0.4489
37353SOL    HW116744   3.902  10.032   4.643  0.2319 -0.3465  0.3439
37353SOL    HW216745   3.943   9.892   4.684 -0.4218 -0.0763  2.0237
37354SOL     OW16746   9.577   5.981   0.622 -0.2826  0.0457 -0.1734
37354SOL    HW116747   9.489   5.954   0.647 -0.9705  1.2019 -1.2360
37354SOL    HW216748   9.567   6.022   0.537  1.2222  0.6380 -0.1071
37355SOL     OW16749   0.396  11.319   7.287  0.4469  0.5130  0.4189
37355SOL    HW116750   0.422  11.238   7.242 -0.5516  0.1001  0.5747
37355SOL    HW216751   0.427  11.389   7.229  0.4078  0.0095 -0.2219
37356SOL     OW16752   5.521   3.638   6.697  0.4734  0.4492 -0.0030
37356SOL    HW116753   5.576   3.643   6.619  0.2450 -1.0998 -0.3050
37356SOL    HW216754   5.583   3.626   6.769  0.6647  1.5643  0.0383
37357SOL     OW16755   8.354   8.750   9.033  0.1314  0.0500  0.0659
37357SOL    HW116756   8.318   8.833   9.065 -0.0110 -0.2655  0.7465
37357SOL    HW216757   8.412   8.775   8.961 -0.1400  0.7109  0.0668
37358SOL     OW16758  10.578   2.191   9.046 -0.3418 -0.4441 -0.4822
37358SOL    HW116759  10.625   2.249   8.986  0.0798 -0.6324 -0.3329
37358SOL    HW216760  10.646   2.147   9.096 -0.6326 -1.4284 -0.9220
37359SOL     OW16761   3.928  10.816   5.014  0.6136 -0.1041 -0.1909
37359SOL    HW116762   3.901  10.904   5.040 -0.9637 -0.8173  0.7187
37359SOL    HW216763   4.020  10.825   4.990  0.8097  1.5558  1.0386
37360SOL     OW16764   5.856   3.795   8.004 -0.5514 -0.2613 -0.4585
37360SOL    HW116765   5.824   3.706   7.990 -0.6972 -0.5787  1.5835
37360SOL    HW216766   5.951   3.787   8.001 -0.5680 -0.4400 -0.5068
37361SOL     OW16767   2.289   0.269   9.752  0.1536 -0.2003 -0.0485
37361SOL    HW116768   2.301   0.200   9.686  0.5889 -0.5289  0.3608
37361SOL    HW216769   2.231   0.229   9.818 -2.4203  1.0032 -1.4682
37362SOL     OW16770   5.391   6.207   4.162 -0.6277  0.0411 -0.3824
37362SOL    HW116771   5.389   6.169   4.074  1.8810  0.4645 -0.7161
37362SOL    HW216772   5.341   6.288   4.154  0.7760  0.8329 -1.9065
37363SOL     OW16773   8.611   2.122   5.941  0.6362 -0.1702 -0.2967
37363SOL    HW116774   8.555   2.045   5.946  1.2242 -0.5249  1.1527
37363SOL    HW216775   8.615   2.155   6.031  0.2204  1.6869 -0.9156
37364SOL     OW16776   7.078   2.648  10.658 -0.1546  0.0398 -0.3393
37364SOL    HW116777   7.097   2.614  10.745  0.6381  0.1383 -0.4691
37364SOL    HW216778   6.985   2.671  10.662 -0.6227 -1.7532 -0.1407
37365SOL     OW16779   9.200   7.066   6.934  0.6248  0.2053  0.5497
37365SOL    HW116780   9.128   7.018   6.893 -0.4306  1.8105  0.4202
37365SOL    HW216781   9.279   7.019   6.908 -0.3715 -1.7519  0.8820
37366SOL     OW16782   1.038   3.817  11.142  0.4470 -0.3810 -0.0437
37366SOL    HW116783   0.972   3.803  11.074  1.3601  1.4539 -1.3844
37366SOL    HW216784   1.100   3.746  11.131  0.1872 -0.5230 -0.6162
37367SOL     OW16785   1.259   2.295   7.804 -0.1344  0.0220  0.1930
37367SOL    HW116786   1.320   2.249   7.862 -0.9710  0.2185  1.2628
37367SOL    HW216787   1.286   2.387   7.809 -0.2847  0.0578  0.3927
37368SOL     OW16788   9.626   7.847   9.438 -0.1619  0.1585  0.1330
37368SOL    HW116789   9.560   7.900   9.483  0.4351 -1.0069  2.5291
37368SOL    HW216790   9.587   7.760   9.433  0.0307  0.1267 -1.1508
37369SOL     OW16791   7.892  11.838   4.668  0.8852 -0.0087 -0.6384
37369SOL    HW116792   7.949  11.831   4.744 -0.8198 -1.5044  0.5909
37369SOL    HW216793   7.916  11.921   4.627  2.0715  0.6811  1.3471
37370SOL     OW16794   8.898   4.429  11.086 -0.4732  0.0712  0.2413
37370SOL    HW116795   8.937   4.350  11.049  1.0028  0.5998  0.5912
37370SOL    HW216796   8.930   4.432  11.176  0.1947  1.4974 -0.0103
37371SOL     OW16797   7.677  11.059   0.069 -0.6019 -0.2482 -0.3804
37371SOL    HW116798   7.631  10.980   0.041 -0.9473 -0.2305  0.1326
37371SOL    HW216799   7.769  11.032   0.075 -0.9270 -1.0843  1.4197
37372SOL     OW16800   6.151   4.977   7.826  0.2732 -0.2795 -0.0982
37372SOL    HW116801   6.095   4.902   7.806  1.8659 -1.9439  1.3831
37372SOL    HW216802   6.206   4.987   7.747  0.0213 -0.6305 -0.3213
37373SOL     OW16803   5.184  10.892  10.598 -0.1445 -0.1012 -0.4399
37373SOL    HW116804   5.184  10.977  10.641 -1.0243 -0.7243  0.8540
37373SOL    HW216805   5.119  10.841  10.646  0.5996 -1.6138 -0.9797
37374SOL     OW16806   4.540   7.659  10.169  0.1841  0.3526  0.1514
37374SOL    HW116807   4.565   7.640  10.259  3.5055 -1.0179 -0.9043
37374SOL    HW216808   4.600   7.729  10.141  0.3299 -0.3564 -1.4418
37375SOL     OW16809   9.280  11.427   5.849 -0.5053  0.2568  1.0397
37375SOL    HW116810   9.310  11.352   5.900 -0.4044 -0.7355 -0.4137
37375SOL    HW216811   9.295  11.503   5.906  4.0843 -0.1910  0.7943
37376SOL     OW16812   3.323   7.833   3.768  0.4333  0.0634 -0.2847
37376SOL    HW116813   3.347   7.819   3.860 -1.6784 -3.4626 -0.0788
37376SOL    HW216814   3.404   7.819   3.720  1.3515  0.8867  0.9510
37377SOL     OW16815   3.177  10.787  11.794 -0.7657  0.3577 -0.5792
37377SOL    HW116816   3.087  10.754  11.791 -0.6255  0.0397 -1.3331
37377SOL    HW216817   3.212  10.753  11.877 -0.9979 -0.4306 -0.7943
37378SOL     OW16818   8.441   4.828   0.560  0.0424 -0.5506 -0.2335
37378SOL    HW116819   8.440   4.909   0.509  0.4445 -0.4082 -0.0220
37378SOL    HW216820   8.480   4.854   0.644 -0.1733 -0.8838 -0.0267
37379SOL     OW16821   1.475   8.874   8.001  0.2190 -0.6904  0.2017
37379SOL    HW116822   1.419   8.947   7.973  1.1606  1.5697  3.5518
37379SOL    HW216823   1.564   8.907   7.989  0.7269 -2.0557  0.0884
37380SOL     OW16824   6.067   0.955   1.358  0.0840  0.5147  0.0372
37380SOL    HW116825   6.152   0.937   1.318  0.2123 -0.0312  0.5469
37380SOL    HW216826   6.034   0.869   1.385 -0.1957  0.8190  0.6973
37381SOL     OW16827  10.409   7.197   6.018  0.0933 -0.1568  0.0651
37381SOL    HW116828  10.326   7.220   5.977 -0.3350 -0.2202  0.8661
37381SOL    HW216829  10.433   7.275   6.069  1.6319  0.6744 -1.8340
37382SOL     OW16830  11.602   0.807   9.972 -0.3279  0.2638  0.7199
37382SOL    HW116831  11.559   0.890   9.956 -2.5886 -1.0197 -0.2542
37382SOL    HW216832  11.601   0.762   9.887  0.6936 -0.8482  1.2542
37383SOL     OW16833  11.605   2.121   7.617 -0.0995  0.0146 -0.1602
37383SOL    HW116834  11.519   2.092   7.646  0.1976  0.8645  1.7491
37383SOL    HW216835  11.651   2.144   7.698  1.2531  1.3653 -1.2402
37384SOL     OW16836   4.391   5.107   1.548  0.2984 -0.5624  0.3248
37384SOL    HW116837   4.361   5.028   1.594 -1.0942 -0.2267  0.0256
37384SOL    HW216838   4.311   5.156   1.529  1.1066  0.7177  0.1062
37385SOL     OW16839   5.026   9.534   2.118  0.4509  0.1422 -0.3894
37385SOL    HW116840   4.933   9.511   2.120  0.1256  1.0151 -2.3871
37385SOL    HW216841   5.058   9.496   2.036  1.8910 -0.2485  0.3318
37386SOL     OW16842   5.702   0.137  10.505 -0.1742  0.0285  0.2336
37386SOL    HW116843   5.773   0.160  10.565  0.0142  0.2130 -0.0557
37386SOL    HW216844   5.721   0.186  10.425 -2.1000  2.2062  1.0151
37387SOL     OW16845   9.848   3.241   5.232  0.0669 -0.4087 -0.3258
37387SOL    HW116846   9.897   3.310   5.278 -0.7122  1.2013 -1.7961
37387SOL    HW216847   9.895   3.227   5.150 -1.5464  0.7850 -1.5219
37388SOL     OW16848   3.265   6.793   2.971  0.4192  0.4162 -0.4611
37388SOL    HW116849   3.285   6.886   2.984 -0.2687  0.3525  1.3377
37388SOL    HW216850   3.324   6.765   2.901  0.1627  2.3583 -1.5244
37389SOL     OW16851   5.745   6.592   2.121  0.3141 -0.1113 -0.1056
37389SOL    HW116852   5.672   6.654   2.123  1.9852  1.9548  1.6017
37389SOL    HW216853   5.795   6.616   2.043  0.3624 -0.0668 -0.0607
37390SOL     OW16854   7.004   7.458  10.546  0.2655  0.4105  0.4345
37390SOL    HW116855   6.980   7.379  10.595 -0.5956  0.5728  0.2832
37390SOL    HW216856   6.928   7.515  10.554  0.4370  0.7681 -0.4221
37391SOL     OW16857   6.519   4.537   9.237  0.1509  0.5486 -0.1805
37391SOL    HW116858   6.425   4.551   9.222  0.1395  1.8721  0.8257
37391SOL    HW216859   6.525   4.447   9.268 -1.0974  1.0430  1.6993
37392SOL     OW16860   4.454   4.519   6.834 -0.7827  0.1657  0.8598
37392SOL    HW116861   4.512   4.592   6.855  0.3295 -0.4799  0.1390
37392SOL    HW216862   4.369   4.560   6.821 -0.0082  1.4885 -0.4056
37393SOL     OW16863   6.005   4.800   3.051  0.0302  0.1832  0.2034
37393SOL    HW116864   6.081   4.843   3.090  0.3096  1.3346 -1.4606
37393SOL    HW216865   6.038   4.765   2.968 -0.7120 -1.4789  0.5647
37394SOL     OW16866   4.445  11.776   2.424  0.0314 -0.0953  0.3187
37394SOL    HW116867   4.363  11.747   2.384 -0.5763  0.1219  1.3627
37394SOL    HW216868   4.468  11.706   2.485  0.7488 -0.2556 -0.1190
37395SOL     OW16869   8.632   8.166   9.238  0.0502  0.4070  0.0117
37395SOL    HW116870   8.722   8.145   9.216 -0.1265 -0.1762 -0.1836
37395SOL    HW216871   8.611   8.106   9.310 -0.0971  0.7277  0.2397
37396SOL     OW16872  11.188   6.326   1.299 -0.9732  0.0577 -0.5252
37396SOL    HW116873  11.208   6.318   1.205 -2.6635  2.1486 -1.1679
37396SOL    HW216874  11.209   6.417   1.320 -0.4498 -0.4288  1.2025
37397SOL     OW16875   3.882   4.820  11.904  0.2434  0.5916  0.9078
37397SOL    HW116876   3.869   4.914  11.909 -0.1673  0.7907 -1.9892
37397SOL    HW216877   3.803   4.787  11.861  1.9756 -0.4434 -1.7711
37398SOL     OW16878   3.038  10.405   2.853 -0.0207 -0.7455  0.8791
37398SOL    HW116879   3.115  10.431   2.903 -3.0731  1.5192  5.0191
37398SOL    HW216880   3.000  10.487   2.822 -1.8554 -1.5643  0.8220
37399SOL     OW16881  10.859   2.119   6.032  0.1083  0.4455  0.1223
37399SOL    HW116882  10.798   2.060   6.077 -0.2063  0.2932 -0.4952
37399SOL    HW216883  10.902   2.167   6.103 -2.0120  1.8798  0.5488
37400SOL     OW16884   8.175   7.206   7.403 -0.4348 -0.0072 -0.2526
37400SOL    HW116885   8.246   7.144   7.385 -2.3441 -1.8964 -1.9098
37400SOL    HW216886   8.121   7.162   7.469 -0.2099  1.3135  0.8557
37401SOL     OW16887   9.121  11.743   1.584 -0.0638  0.2395  0.2319
37401SOL    HW116888   9.198  11.765   1.636  1.2449 -0.9331 -1.1018
37401SOL    HW216889   9.063  11.697   1.645  0.5743  0.5647  1.1047
37402SOL     OW16890   8.277   0.737   0.880 -0.4401 -0.1229  0.0354
37402SOL    HW116891   8.249   0.776   0.962 -0.6177  0.3576 -0.2473
37402SOL    HW216892   8.349   0.793   0.850  0.1724 -0.7716  0.2666
37403SOL     OW16893   2.254   7.893   9.487 -0.2615 -0.1478  0.3473
37403SOL    HW116894   2.348   7.874   9.480 -0.2088  0.4553 -1.0184
37403SOL    HW216895   2.218   7.864   9.403 -1.0129  1.1043  0.2083
37404SOL     OW16896   7.239   4.755   5.755  0.5375  0.2955  0.5668
37404SOL    HW116897   7.228   4.755   5.660  0.8287 -1.6672  0.4947
37404SOL    HW216898   7.192   4.678   5.785  0.4006  0.9170  2.0410
37405SOL     OW16899   0.020   2.849   2.151 -0.0793  0.0138  0.1287
37405SOL    HW116900   0.014   2.876   2.059  1.5316  0.3499  0.0911
37405SOL    HW216901  -0.070   2.827   2.175 -0.4622 -0.5576 -1.6671
37406SOL     OW16902   2.748   4.691   9.587 -0.1596  0.1018 -0.7314
37406SOL    HW116903   2.831   4.735   9.606 -0.4243  0.7935 -1.1189
37406SOL    HW216904   2.766   4.641   9.507  0.1278 -0.4622 -0.3193
37407SOL     OW16905  10.521  10.311  11.751 -0.2482 -0.8548 -0.6230
37407SOL    HW116906  10.573  10.233  11.735  2.2394  0.5083  0.2719
37407SOL    HW216907  10.567  10.358  11.821 -0.6527  2.2322 -2.2349
37408SOL     OW16908   9.843   7.255   6.991 -0.0821 -0.2448 -0.7104
37408SOL    HW116909   9.837   7.181   6.930 -0.5395 -1.2076  0.4494
37408SOL    HW216910   9.859   7.331   6.935  1.0247 -1.2977 -1.8907
37409SOL     OW16911   5.813   2.375   8.566 -0.3450  0.2153 -0.3167
37409SOL    HW116912   5.798   2.383   8.660 -0.9164  0.5984 -0.4306
37409SOL    HW216913   5.768   2.451   8.529  1.2739  0.9878 -0.7680
37410SOL     OW16914   0.142   8.130   0.761  0.0088  0.0919 -0.3286
37410SOL    HW116915   0.071   8.121   0.825  0.4848  0.4431  0.2648
37410SOL    HW216916   0.198   8.198   0.799  1.3496 -1.0866 -0.1529
37411SOL     OW16917   5.254   0.421  10.878 -0.1260  0.4216 -0.3905
37411SOL    HW116918   5.262   0.485  10.807  0.5219  0.6621 -0.1103
37411SOL    HW216919   5.343   0.386  10.889 -0.5256 -0.7731 -0.7549
37412SOL     OW16920   8.653  10.473   1.010 -0.5999 -0.0038 -0.3783
37412SOL    HW116921   8.672  10.518   1.092  1.2714 -0.7011 -0.3585
37412SOL    HW216922   8.626  10.385   1.037  1.1746 -0.6325 -0.4453
37413SOL     OW16923   7.733   3.719   3.988 -0.5347 -0.2877 -0.0274
37413SOL    HW116924   7.744   3.633   3.947 -0.4987 -0.6364  0.6944
37413SOL    HW216925   7.665   3.762   3.936 -1.1432 -1.0751  0.0955
37414SOL     OW16926  11.963   3.625  10.458  0.4569  0.2772 -0.1291
37414SOL    HW116927  12.003   3.638  10.543  0.4036  0.3619 -0.1168
37414SOL    HW216928  11.876   3.592  10.477  0.3834  0.4568 -0.1457
37415SOL     OW16929  11.467   2.939   1.817  0.0214  0.0130  0.0904
37415SOL    HW116930  11.493   3.031   1.811  0.8562 -0.1634  0.8502
37415SOL    HW216931  11.527   2.894   1.757  0.2250 -0.1523  0.4165
37416SOL     OW16932   9.177  11.641   2.716  0.0892 -0.0504 -0.0426
37416SOL    HW116933   9.086  11.625   2.688 -0.4770  1.6553  0.6987
37416SOL    HW216934   9.196  11.570   2.777 -1.0358  0.0164  0.4068
37417SOL     OW16935   7.332   2.698   3.096 -0.0103 -0.5780  0.1076
37417SOL    HW116936   7.314   2.791   3.079 -1.0740 -0.9958 -1.1964
37417SOL    HW216937   7.366   2.665   3.012  2.6787 -0.8708  1.1965
37418SOL     OW16938   0.181   9.061   3.160  0.2429 -0.3234 -0.0317
37418SOL    HW116939   0.117   9.091   3.223  2.4567 -3.5587  4.3383
37418SOL    HW216940   0.246   9.131   3.156 -1.4642  1.2993 -1.4988
37419SOL     OW16941   2.005   6.444  11.977 -0.6110 -0.0293  0.1198
37419SOL    HW116942   2.068   6.455  12.048 -1.9021  1.0077  1.1678
37419SOL    HW216943   1.939   6.385  12.012 -1.2199  0.4296 -0.2329
37420SOL     OW16944  11.079   2.965   9.631  0.0133  0.5730  0.2184
37420SOL    HW116945  10.990   2.973   9.666 -0.1730  2.0692 -0.5474
37420SOL    HW216946  11.135   3.000   9.701  0.0755 -0.8580  0.9188
37421SOL     OW16947   9.157   0.315   7.266  0.5043 -0.2164 -0.2189
37421SOL    HW116948   9.097   0.390   7.262  1.0104  0.2687  0.8730
37421SOL    HW216949   9.161   0.293   7.359  1.1773 -0.9344 -0.4139
37422SOL     OW16950  11.888   1.925  11.729  0.1560  0.0942 -0.1457
37422SOL    HW116951  11.870   1.864  11.801  2.2517 -0.8765 -0.3546
37422SOL    HW216952  11.824   1.995  11.740 -0.3194 -0.5950  1.9782
37423SOL     OW16953   0.958   9.981   6.772 -0.2227  0.0086 -0.0646
37423SOL    HW116954   0.912   9.897   6.779 -1.1601  0.4453 -0.8202
37423SOL    HW216955   0.946  10.008   6.681  1.4311  0.2159 -0.2611
37424SOL     OW16956   6.362  10.693   8.799 -0.0977 -0.0477  0.0928
37424SOL    HW116957   6.428  10.660   8.737  0.2515  0.5917  0.1142
37424SOL    HW216958   6.404  10.687   8.884 -0.1241  0.2043  0.1250
37425SOL     OW16959   1.752   1.312   6.829  0.3681 -0.0159  0.0349
37425SOL    HW116960   1.706   1.358   6.758  0.9335 -0.8270 -0.8876
37425SOL    HW216961   1.688   1.250   6.863  0.1161  0.3291  0.1985
37426SOL     OW16962   4.609   0.069  10.696 -0.4530  0.1216 -0.4640
37426SOL    HW116963   4.555  -0.002  10.732 -1.1045  0.6829 -0.3238
37426SOL    HW216964   4.653   0.107  10.773 -1.4460  0.9843 -0.3004
37427SOL     OW16965   3.459  11.456   1.707 -0.3047 -0.3477  0.1519
37427SOL    HW116966   3.399  11.490   1.774 -0.9295  2.0310 -1.4996
37427SOL    HW216967   3.409  11.386   1.665 -1.4538  0.7214 -0.3309
37428SOL     OW16968   8.439  10.521   1.771  0.4241 -0.3581  0.4199
37428SOL    HW116969   8.506  10.562   1.826  0.6548  1.7424 -1.2972
37428SOL    HW216970   8.360  10.521   1.824  1.4303 -1.5978  1.9785
37429SOL     OW16971   0.893   0.659  10.369  0.1232 -0.1866 -0.0726
37429SOL    HW116972   0.844   0.610  10.303 -0.7083 -1.2871  1.3047
37429SOL    HW216973   0.965   0.601  10.394  0.8449  0.5076 -0.4793
37430SOL     OW16974   1.288   0.492  10.715 -0.1334  0.1689  0.0208
37430SOL    HW116975   1.243   0.508  10.632  1.5064  0.1284 -0.9160
37430SOL    HW216976   1.371   0.451  10.690  0.4428  0.2472  1.6811
37431SOL     OW16977   5.433   0.222   6.345 -0.1685  0.1528  0.3267
37431SOL    HW116978   5.381   0.150   6.383  0.7243 -0.3660  0.5952
37431SOL    HW216979   5.447   0.196   6.254 -0.8669  0.5815  0.0864
37432SOL     OW16980  11.934   5.878   0.727 -0.3478  0.3238  0.0306
37432SOL    HW116981  12.018   5.832   0.720 -0.4401  0.2370 -0.6337
37432SOL    HW216982  11.934   5.939   0.653 -0.1118  1.6103  1.0497
37433SOL     OW16983   7.370  11.304  11.798  0.3146  0.0480 -0.1465
37433SOL    HW116984   7.420  11.348  11.729 -1.1366 -0.2270 -1.4153
37433SOL    HW216985   7.291  11.273  11.755 -1.5760  1.5002  2.0379
37434SOL     OW16986   6.755  11.346   9.957 -0.7168  0.3002 -0.9570
37434SOL    HW116987   6.818  11.282   9.989 -1.7271  0.3209  1.2772
37434SOL    HW216988   6.683  11.294   9.922  0.5047  0.2759 -3.6361
37435SOL     OW16989   7.255   0.451   5.572 -0.0885 -0.3703  0.6432
37435SOL    HW116990   7.185   0.396   5.607  0.5754 -1.0720  0.8801
37435SOL    HW216991   7.298   0.487   5.649  0.9896 -1.4300  0.5586
37436SOL     OW16992   6.885   1.725   5.808 -0.5574 -0.3559 -0.1998
37436SOL    HW116993   6.908   1.713   5.716  0.4164  0.5452 -0.0910
37436SOL    HW216994   6.815   1.791   5.807 -0.4737 -0.2685 -0.2988
37437SOL     OW16995   8.964   6.235   2.391 -0.2718  0.3352  0.3503
37437SOL    HW116996   8.872   6.229   2.365 -0.1215  1.0486 -0.3744
37437SOL    HW216997   8.961   6.255   2.485 -0.8248 -1.7882  0.8548
37438SOL     OW16998   0.428   8.530   2.974  0.0885  0.0621  0.0918
37438SOL    HW116999   0.449   8.484   3.056  0.4842 -1.5769 -0.8847
37438SOL    HW217000   0.333   8.544   2.978  0.1051  0.0164  0.8376
37439SOL     OW17001   8.448   4.600   4.674 -0.5542 -0.2883 -0.0356
37439SOL    HW117002   8.445   4.553   4.591  0.5243 -0.6697  0.1335
37439SOL    HW217003   8.426   4.534   4.739 -0.1959 -0.2821  0.0933
37440SOL     OW17004   2.457   3.761   3.483  0.4415  0.1342  0.1019
37440SOL    HW117005   2.480   3.733   3.572 -1.3667  0.5070  0.7290
37440SOL    HW217006   2.421   3.848   3.494  0.4023  0.2763 -1.0509
37441SOL     OW17007   6.555  10.043   7.544  0.1320  0.0412 -0.0462
37441SOL    HW117008   6.596   9.962   7.515 -0.3464  0.1225 -0.9662
37441SOL    HW217009   6.548  10.033   7.639  0.8828 -0.6127 -0.0455
37442SOL     OW17010   9.297   8.439   1.892  0.0058 -0.4784  0.2233
37442SOL    HW117011   9.311   8.443   1.987  1.6824 -1.4658  0.0724
37442SOL    HW217012   9.338   8.518   1.858 -1.2187  0.2365  0.3475
37443SOL     OW17013   7.655   0.166   8.967  0.0287 -0.4406 -0.3732
37443SOL    HW117014   7.706   0.216   9.031  2.4222 -1.2666 -1.5030
37443SOL    HW217015   7.612   0.233   8.913  0.4469  0.3134  0.2096
37444SOL     OW17016   8.208   1.609   7.983 -0.0231 -0.3746  0.1325
37444SOL    HW117017   8.284   1.618   7.926 -1.0533 -2.0601 -1.6421
37444SOL    HW217018   8.133   1.631   7.927 -0.9256  0.2172  1.5272
37445SOL     OW17019  10.894   6.602   3.640 -0.0513 -0.0465  0.1832
37445SOL    HW117020  10.985   6.578   3.660  0.4071  1.4228  0.0197
37445SOL    HW217021  10.901   6.691   3.604 -1.2635 -0.9706 -2.5432
37446SOL     OW17022   0.238   2.465  10.943  0.1560 -0.4552 -0.6735
37446SOL    HW117023   0.153   2.447  10.984  0.1429  1.2225  0.1146
37446SOL    HW217024   0.301   2.456  11.014  0.2112  1.7896 -0.3588
37447SOL     OW17025   5.480  11.987   2.108  0.0531 -0.7204  0.0721
37447SOL    HW117026   5.544  12.051   2.077 -0.5499 -0.1677 -0.0552
37447SOL    HW217027   5.465  12.010   2.199  0.2641 -1.0421  0.1895
37448SOL     OW17028   8.035  11.621  11.712  0.0702  0.2498 -0.8308
37448SOL    HW117029   8.102  11.608  11.645  0.2604  2.8778 -1.2441
37448SOL    HW217030   8.078  11.674  11.779 -1.0365  0.2993 -0.1331
37449SOL     OW17031  10.745   8.511   6.155  0.1659 -0.1450  0.0627
37449SOL    HW117032  10.653   8.512   6.179  0.5964 -0.2610  1.8586
37449SOL    HW217033  10.748   8.556   6.071 -1.8193 -2.3145 -1.2819
37450SOL     OW17034  11.827  11.797   7.495 -0.1488 -0.2680 -1.2044
37450SOL    HW117035  11.888  11.741   7.447 -0.3946 -0.4156 -1.3508
37450SOL    HW217036  11.877  11.829   7.570 -0.5637 -2.2763 -0.0014
37451SOL     OW17037  10.351  10.577   3.998 -0.8048 -0.1227  0.0224
37451SOL    HW117038  10.259  10.560   4.015 -0.7029  0.6566  1.4699
37451SOL    HW217039  10.370  10.660   4.042  0.4863 -0.0475 -0.6031
37452SOL     OW17040   3.217   1.843   8.236 -0.1717  0.1179  0.0445
37452SOL    HW117041   3.249   1.767   8.189 -1.3658  0.1418 -0.8644
37452SOL    HW217042   3.132   1.862   8.196  0.4350  2.4140 -0.3068
37453SOL     OW17043   2.586   8.667   4.489 -0.3817 -0.6465  0.0625
37453SOL    HW117044   2.491   8.671   4.503 -0.0708 -1.0952  2.7970
37453SOL    HW217045   2.614   8.759   4.489 -0.6771 -0.5548  0.3908
37454SOL     OW17046   9.618  10.583   8.952 -0.0756 -0.1185  0.7698
37454SOL    HW117047   9.652  10.667   8.920  2.6102 -1.4503 -0.2242
37454SOL    HW217048   9.652  10.576   9.042 -0.5423 -0.0224  0.9551
37455SOL     OW17049   5.996  11.374   8.793  0.4218  0.0294 -0.0881
37455SOL    HW117050   6.090  11.354   8.797  0.4900  0.4488  0.8477
37455SOL    HW217051   5.953  11.289   8.805  0.6198 -0.6157 -3.1791
37456SOL     OW17052   3.150   5.159   3.064 -0.5141  0.4091  0.0590
37456SOL    HW117053   3.197   5.235   3.029  0.2584 -0.5297 -1.0007
37456SOL    HW217054   3.083   5.197   3.120 -1.3855  1.9974 -1.9042
37457SOL     OW17055  11.892   4.945   7.187  0.0955 -0.1821 -0.1718
37457SOL    HW117056  11.968   5.003   7.189  0.8564 -1.1405 -0.2133
37457SOL    HW217057  11.880   4.918   7.278 -1.5826  1.6606  0.2116
37458SOL     OW17058   1.029  10.023   3.118  0.5889  0.4161 -0.3488
37458SOL    HW117059   0.993   9.962   3.054 -2.6178 -0.8092  2.3361
37458SOL    HW217060   1.111   9.982   3.146  1.0641  0.0060 -2.1739
37459SOL     OW17061  10.957   7.511   0.501 -0.2899 -0.7874  0.0069
37459SOL    HW117062  11.033   7.518   0.443 -1.3767  1.5837 -1.2745
37459SOL    HW217063  10.980   7.564   0.577  0.2079 -1.9914  0.7306
37460SOL     OW17064   8.379   1.491   4.000  0.2319  0.0631  0.3740
37460SOL    HW117065   8.395   1.570   3.947  0.7643  0.1437  0.6474
37460SOL    HW217066   8.306   1.447   3.956  0.0743  0.5935  0.0901
37461SOL     OW17067   5.227   9.039   1.412  0.0996  0.4171  0.1442
37461SOL    HW117068   5.233   8.951   1.374 -1.9952  0.6757 -0.9482
37461SOL    HW217069   5.285   9.092   1.358  1.5789 -0.3069  0.9705
37462SOL     OW17070  11.635   2.919   7.361  0.0193 -0.3158 -0.1505
37462SOL    HW117071  11.600   2.998   7.320 -1.5882 -1.6418 -1.4877
37462SOL    HW217072  11.705   2.889   7.303  0.2591 -0.1803  0.0660
37463SOL     OW17073   1.940   4.015   0.569 -0.2519 -0.1997  0.2266
37463SOL    HW117074   1.946   4.110   0.572 -2.6516  0.0462 -0.3910
37463SOL    HW217075   1.982   3.985   0.650  0.9866  1.3356  0.1810
37464SOL     OW17076   9.376   2.148   1.773  0.3351 -0.0276 -0.1549
37464SOL    HW117077   9.383   2.145   1.868 -0.5460 -0.5404 -0.1038
37464SOL    HW217078   9.457   2.107   1.742  0.8857  0.6526  0.3594
37465SOL     OW17079   0.480   7.644   3.219 -0.7990 -0.5924 -0.0106
37465SOL    HW117080   0.473   7.635   3.124 -3.0557 -1.5345  0.1833
37465SOL    HW217081   0.514   7.733   3.232  3.0696 -1.5919 -1.6796
37466SOL     OW17082   4.785  10.810   3.317 -0.7108 -0.6243  0.6350
37466SOL    HW117083   4.757  10.869   3.246  0.6112  0.8227  1.2502
37466SOL    HW217084   4.753  10.852   3.397  1.8925  0.3991  1.2457
37467SOL     OW17085   0.708   7.511   8.150  0.4015 -0.3894  0.5993
37467SOL    HW117086   0.758   7.509   8.232  1.5786 -1.9865 -0.1110
37467SOL    HW217087   0.728   7.597   8.113  0.4235  0.0752  1.6423
37468SOL     OW17088   8.592   7.978  11.627 -0.6762 -0.0169 -0.1176
37468SOL    HW117089   8.647   7.916  11.676 -0.9248 -0.0969  0.0581
37468SOL    HW217090   8.504   7.965  11.662 -1.2123 -1.3600 -1.8286
37469SOL     OW17091  11.630   9.108   1.344  0.0210  0.0236 -0.1048
37469SOL    HW117092  11.649   9.142   1.257 -0.1652 -0.2998 -0.2741
37469SOL    HW217093  11.715   9.105   1.388  0.1807 -0.2323 -0.4257
37470SOL     OW17094   4.488   4.649   3.115  0.5404 -0.1590  0.1311
37470SOL    HW117095   4.553   4.593   3.073 -0.2410 -0.6826 -0.4034
37470SOL    HW217096   4.467   4.715   3.050 -2.7794 -2.6091 -1.5400
37471SOL     OW17097  11.337   9.093   0.469 -0.2900  0.0705 -0.3241
37471SOL    HW117098  11.327   9.134   0.556  0.2902  1.0719 -0.7050
37471SOL    HW217099  11.278   9.143   0.413  1.6304  1.5193 -1.1428
37472SOL     OW17100   3.872   3.892   7.251  0.2760  0.0426 -0.4275
37472SOL    HW117101   3.831   3.831   7.313 -1.2281  1.2145 -0.2076
37472SOL    HW217102   3.964   3.895   7.277 -0.0212 -0.6482  0.7721
37473SOL     OW17103   3.279   0.619   3.912  0.2859  0.3374 -0.5540
37473SOL    HW117104   3.311   0.650   3.997  1.0129  0.4678 -0.8645
37473SOL    HW217105   3.337   0.662   3.849  1.2919 -1.6187 -1.0156
37474SOL     OW17106  10.918   7.074   2.197 -0.0969  0.0891 -0.0986
37474SOL    HW117107  10.858   7.028   2.138  1.0898 -0.5019 -0.8854
37474SOL    HW217108  10.913   7.024   2.279 -0.2519 -0.2961 -0.3378
37475SOL     OW17109   3.922   6.669   5.756 -0.7174  0.0384  0.5528
37475SOL    HW117110   3.923   6.719   5.837 -0.9834 -0.9508  1.1774
37475SOL    HW217111   3.956   6.730   5.690 -0.8211  0.9586  1.3312
37476SOL     OW17112   5.060   2.075   6.181  0.0357 -0.1505 -0.2050
37476SOL    HW117113   4.976   2.109   6.152 -1.2686 -1.4366  1.8069
37476SOL    HW217114   5.116   2.152   6.187 -1.1059  0.7901 -1.2280
37477SOL     OW17115   8.894   4.346   7.498 -0.0649 -0.2413  0.2407
37477SOL    HW117116   8.944   4.336   7.417  0.3284  2.1197  0.1226
37477SOL    HW217117   8.816   4.396   7.472 -1.0484 -1.3545  0.9527
37478SOL     OW17118   5.094  10.493  11.834 -0.2318 -0.0838 -0.1094
37478SOL    HW117119   5.151  10.521  11.906  0.2188 -1.0738 -0.0608
37478SOL    HW217120   5.138  10.416  11.797 -0.8381 -0.0367 -0.9682
37479SOL     OW17121   0.462  11.171   1.328 -0.2748  0.5542 -0.4646
37479SOL    HW117122   0.502  11.194   1.244  0.4965  0.1483 -0.2146
37479SOL    HW217123   0.483  11.245   1.386 -1.4580  1.2020 -0.8108
37480SOL     OW17124   3.854   1.367   5.865 -0.6764  0.2954 -0.0899
37480SOL    HW117125   3.837   1.322   5.947  0.1432  1.2026  0.5939
37480SOL    HW217126   3.783   1.431   5.857  0.7078  2.1254  1.3454
37481SOL     OW17127   2.109   2.860   4.254 -0.0881 -0.0908 -0.2735
37481SOL    HW117128   2.024   2.854   4.297 -0.6518  0.7928 -1.2347
37481SOL    HW217129   2.171   2.869   4.326 -0.7913 -0.7030  0.4392
37482SOL     OW17130   8.397   2.893   8.862  0.4631  1.0341  0.4542
37482SOL    HW117131   8.349   2.901   8.780 -1.1525 -0.6846  1.1680
37482SOL    HW217132   8.436   2.806   8.859  0.3142  0.9129  1.5437
37483SOL     OW17133   2.782   2.547   5.022 -0.4130  0.4832 -0.5026
37483SOL    HW117134   2.841   2.508   4.958  0.0280 -0.1535  0.2744
37483SOL    HW217135   2.712   2.483   5.033  0.7383 -0.5149  1.3869
37484SOL     OW17136   1.761   4.630   8.092 -0.3394  0.0797 -0.0785
37484SOL    HW117137   1.687   4.570   8.081  1.2713 -1.7304 -1.7825
37484SOL    HW217138   1.812   4.591   8.162  0.3828 -0.2102 -0.7556
37485SOL     OW17139   8.846   4.469   0.496 -0.4208  0.3638 -0.7461
37485SOL    HW117140   8.813   4.516   0.572 -0.7810  1.6510 -1.6569
37485SOL    HW217141   8.770   4.421   0.462 -1.0819  2.1601 -1.9837
37486SOL     OW17142   7.482   9.084  10.772  0.0435  0.0345  0.2975
37486SOL    HW117143   7.505   9.056  10.683  1.3058  1.0811  0.2529
37486SOL    HW217144   7.414   9.150  10.759 -1.9094 -1.8672  0.3257
37487SOL     OW17145   4.465   0.680  10.663 -0.3110  0.2524  0.2256
37487SOL    HW117146   4.557   0.690  10.690 -0.4607 -1.1375  1.3985
37487SOL    HW217147   4.441   0.592  10.693 -1.4738 -0.1732 -1.7890
37488SOL     OW17148  11.867  11.199   1.831 -0.1729  0.2620 -0.6237
37488SOL    HW117149  11.936  11.142   1.865 -0.4375  0.4846  0.2935
37488SOL    HW217150  11.879  11.282   1.877 -0.4292  0.6240 -1.2000
37489SOL     OW17151   2.132   8.718   1.939  0.1819 -0.7026 -0.3502
37489SOL    HW117152   2.119   8.660   2.014  1.2792  0.2598  0.6236
37489SOL    HW217153   2.081   8.797   1.960 -1.1393 -1.1724 -1.5735
37490SOL     OW17154   0.256   2.055   6.262 -0.0126 -0.7300  0.3282
37490SOL    HW117155   0.170   2.067   6.221  1.3995  2.2671 -2.1270
37490SOL    HW217156   0.249   2.101   6.345  0.0209  2.4847 -1.2887
37491SOL     OW17157   5.529   7.121   9.856 -0.9690  0.2376  0.9135
37491SOL    HW117158   5.558   7.105   9.766 -1.2406  1.8237  0.5137
37491SOL    HW217159   5.520   7.033   9.894 -0.8753 -0.4689 -0.6074
37492SOL     OW17160   8.003   5.750   5.999  0.5374  0.0188 -0.3589
37492SOL    HW117161   8.058   5.696   5.943  0.2873 -0.2196 -0.3786
37492SOL    HW217162   8.063   5.812   6.040  1.2437 -1.8845  1.6266
37493SOL     OW17163   2.084   9.513   5.576 -0.0079  0.2142  0.5979
37493SOL    HW117164   2.139   9.477   5.506 -0.2929  0.6611  0.1350
37493SOL    HW217165   2.078   9.443   5.640 -1.3004 -0.9204 -0.6985
37494SOL     OW17166   1.030   9.818   0.985  0.0597  0.2460 -0.3286
37494SOL    HW117167   0.947   9.770   0.983 -0.8093  1.6636  0.3557
37494SOL    HW217168   1.088   9.762   1.037 -0.7532 -0.3215 -0.0034
37495SOL     OW17169   0.454   7.014   3.149  0.2398  0.0409  0.0984
37495SOL    HW117170   0.469   7.074   3.077  0.4275  0.5468  0.5472
37495SOL    HW217171   0.393   7.060   3.206 -0.2734 -0.5467  0.0342
37496SOL     OW17172   7.967   4.783  11.603  0.3289  0.3103  0.4736
37496SOL    HW117173   7.882   4.746  11.624 -0.4201  2.3286  1.2875
37496SOL    HW217174   7.999   4.819  11.686  1.1361  1.1709 -0.1807
37497SOL     OW17175  11.917   2.046   1.841 -0.1741  0.2155  0.1048
37497SOL    HW117176  11.963   1.999   1.772  0.0377  1.4162 -0.6150
37497SOL    HW217177  11.855   1.983   1.877 -2.0766  0.1897 -2.8599
37498SOL     OW17178   0.841   2.285   9.667 -0.7435  0.2866  0.0927
37498SOL    HW117179   0.925   2.249   9.638 -1.5527 -0.1978 -1.7396
37498SOL    HW217180   0.830   2.250   9.756  1.1050  0.6101  0.5037
37499SOL     OW17181   9.990   0.034   2.289  0.0570 -0.1161 -0.1609
37499SOL    HW117182   9.982  -0.015   2.206  0.6136 -0.7124  0.1224
37499SOL    HW217183  10.066   0.091   2.276  0.8604 -1.0406  0.3237
37500SOL     OW17184   0.852   8.477   4.601 -1.3377 -0.2400 -0.2034
37500SOL    HW117185   0.860   8.572   4.613 -1.0931 -0.0837 -1.4006
37500SOL    HW217186   0.839   8.467   4.506 -1.2920 -1.4086 -0.0937
37501SOL     OW17187   9.335   6.008  10.472  0.2333  0.1053 -0.4152
37501SOL    HW117188   9.248   5.969  10.481 -0.8150  1.9063 -1.9767
37501SOL    HW217189   9.387   5.965  10.538 -1.9047 -0.9138  0.7158
37502SOL     OW17190   7.404   2.640   7.940 -0.1526 -0.3817  0.2819
37502SOL    HW117191   7.387   2.667   7.849 -3.2514 -1.6234  0.3938
37502SOL    HW217192   7.392   2.720   7.991 -2.5190 -0.4205 -0.0792
37503SOL     OW17193   0.551   2.103   6.823 -0.3274  0.1866  0.0446
37503SOL    HW117194   0.625   2.064   6.870 -0.5797  1.7481  1.8905
37503SOL    HW217195   0.477   2.047   6.846 -0.4031  0.7972  1.4256
37504SOL     OW17196  11.770   8.011   4.751 -0.1870  0.1395  1.2404
37504SOL    HW117197  11.861   7.991   4.777  0.2406  0.2862 -0.0914
37504SOL    HW217198  11.718   7.942   4.792  0.8614 -1.7188 -0.4088
37505SOL     OW17199   0.364  10.650   7.041 -0.5420  0.0480 -0.1818
37505SOL    HW117200   0.322  10.733   7.015 -0.2477 -0.3366 -2.0859
37505SOL    HW217201   0.402  10.668   7.127  0.4975  2.3032 -1.0098
37506SOL     OW17202   0.090   5.883   3.022 -0.5758  0.1952 -0.2409
37506SOL    HW117203   0.169   5.883   3.076 -1.8077  1.8819  1.7222
37506SOL    HW217204   0.119   5.849   2.937  2.4646  1.5836  0.1058
37507SOL     OW17205   8.119  11.182   2.285  0.4244 -0.4331 -0.1629
37507SOL    HW117206   8.138  11.160   2.194 -1.0722  0.4761 -0.7388
37507SOL    HW217207   8.032  11.221   2.282 -0.3763 -1.8810  1.8935
37508SOL     OW17208   2.253   4.981   1.239  0.0748  0.4526 -0.0966
37508SOL    HW117209   2.335   4.990   1.190 -0.0709 -0.2490 -0.4811
37508SOL    HW217210   2.221   4.894   1.216 -1.1993  1.0337 -0.6031
37509SOL     OW17211   1.654   5.608  11.846 -0.1581  0.6784 -0.4889
37509SOL    HW117212   1.716   5.562  11.903 -0.9387 -1.0510 -0.9569
37509SOL    HW217213   1.679   5.700  11.852  0.3574  0.4460  1.9070
37510SOL     OW17214   0.439   5.022   9.179 -0.3554  0.0799 -0.2498
37510SOL    HW117215   0.531   5.038   9.158 -0.8046 -0.0607 -2.6088
37510SOL    HW217216   0.390   5.069   9.112 -2.1520  2.1957  2.3166
37511SOL     OW17217   5.740   9.660   4.631 -0.0296  0.0224 -0.0889
37511SOL    HW117218   5.674   9.700   4.688 -1.0047 -2.3117  0.5222
37511SOL    HW217219   5.712   9.683   4.543  0.2652  1.8422  0.2511
37512SOL     OW17220   9.431  10.517   9.297 -0.2022 -0.2858 -0.1014
37512SOL    HW117221   9.376  10.504   9.374 -0.8458  2.1712 -0.0506
37512SOL    HW217222   9.378  10.486   9.224 -1.0305  0.5708  0.1168
37513SOL     OW17223   2.512   2.808   7.757  0.1703 -0.1394 -0.2172
37513SOL    HW117224   2.607   2.801   7.755  0.0780 -1.9665 -0.4558
37513SOL    HW217225   2.486   2.751   7.830 -0.6994  1.2917  0.6384
37514SOL     OW17226   7.233  11.385   6.246 -0.0412  0.1061 -0.3619
37514SOL    HW117227   7.188  11.452   6.194 -2.2001 -0.4262  0.7177
37514SOL    HW217228   7.211  11.303   6.203  1.9020 -0.0435 -1.1823
37515SOL     OW17229  11.481   1.410   2.779 -0.2550 -0.3591 -0.5821
37515SOL    HW117230  11.470   1.354   2.855 -1.2893  1.6160  0.8119
37515SOL    HW217231  11.559   1.463   2.799 -0.9938  0.7229 -0.5149
37516SOL     OW17232   4.581   5.783   2.960  0.2928 -0.0959 -0.3360
37516SOL    HW117233   4.674   5.783   2.940  0.4021 -0.4225  0.1719
37516SOL    HW217234   4.575   5.818   3.049  0.0047 -0.8441 -0.0532
37517SOL     OW17235   1.972   3.594   2.593 -0.5807 -0.7925 -0.3428
37517SOL    HW117236   1.942   3.684   2.580  0.1968 -0.2523  1.3395
37517SOL    HW217237   1.897   3.540   2.567 -1.4642  0.3773 -0.3091
37518SOL     OW17238   0.671   7.307   7.099  1.0240 -0.1140  0.1281
37518SOL    HW117239   0.681   7.339   7.010  0.3849 -2.5382 -0.8889
37518SOL    HW217240   0.580   7.279   7.105  0.6461  1.2598  2.0465
37519SOL     OW17241   1.379  11.245  11.723 -0.0425  0.2772  0.4271
37519SOL    HW117242   1.358  11.336  11.745 -2.0655  0.0742 -0.4732
37519SOL    HW217243   1.466  11.250  11.682  0.1763  1.6976  0.9969
37520SOL     OW17244   0.480   7.878   8.021  0.0456  0.0198  0.4841
37520SOL    HW117245   0.502   7.817   7.951  0.4930  1.7513 -0.9410
37520SOL    HW217246   0.392   7.852   8.049 -2.5740  2.4307 -4.4042
37521SOL     OW17247   0.966   8.860   5.443 -0.1023  0.8379 -0.2962
37521SOL    HW117248   0.870   8.868   5.438 -0.0062  1.6216 -1.4194
37521SOL    HW217249   0.991   8.921   5.512 -0.4335  0.4544  0.1647
37522SOL     OW17250   0.649   2.730  10.328 -0.1420  0.0959 -0.2693
37522SOL    HW117251   0.651   2.826  10.319 -0.7001  0.0534 -0.9633
37522SOL    HW217252   0.593   2.714  10.403 -0.3376  0.3072 -0.3693
37523SOL     OW17253  10.655   8.615  11.328  0.0996 -0.3106  0.6137
37523SOL    HW117254  10.725   8.665  11.370  0.1082  0.4504 -0.2742
37523SOL    HW217255  10.609   8.679  11.274 -0.5277 -1.0592  0.2436
37524SOL     OW17256   6.816  10.463   7.729 -0.0550  0.3231 -0.4682
37524SOL    HW117257   6.879  10.437   7.662  0.9361  0.0457  0.5376
37524SOL    HW217258   6.856  10.540   7.771 -0.0861 -0.2032  0.5664
37525SOL     OW17259  11.439   5.920   0.102  0.1904 -0.4348  0.4207
37525SOL    HW117260  11.518   5.869   0.120 -0.4106 -1.0237  1.4626
37525SOL    HW217261  11.375   5.889   0.166 -1.0539 -0.3282 -0.7184
37526SOL     OW17262   1.409  10.167   0.264 -0.1160  0.0268 -0.0718
37526SOL    HW117263   1.383  10.211   0.344  0.4386 -1.8046  1.1806
37526SOL    HW217264   1.335  10.179   0.204 -0.5863  1.3163  0.7375
37527SOL     OW17265   1.986   7.114   1.264  0.4973  0.3479 -0.3138
37527SOL    HW117266   1.987   7.026   1.301  1.2187  0.6628  0.4523
37527SOL    HW217267   2.020   7.103   1.175  1.4313 -0.0260  0.0793
37528SOL     OW17268   6.779  11.073   1.663 -0.6772  0.1444 -0.4451
37528SOL    HW117269   6.827  11.105   1.587  3.1604  0.2418  1.7504
37528SOL    HW217270   6.773  11.147   1.723 -0.7758 -0.6823  0.6218
37529SOL     OW17271   9.857   0.978   7.447 -0.1673  0.6706  0.2315
37529SOL    HW117272   9.764   0.991   7.466 -0.7338  2.2962 -2.9922
37529SOL    HW217273   9.860   0.897   7.396  0.3011  0.3360  0.7744
37530SOL     OW17274   2.668   7.257   2.478 -0.2893  0.5406  0.2017
37530SOL    HW117275   2.651   7.319   2.549 -0.3041  0.3443  0.3700
37530SOL    HW217276   2.657   7.171   2.518 -0.3690  0.4292 -0.0573
37531SOL     OW17277   3.565   3.757   8.997  0.7165  0.4916  0.0406
37531SOL    HW117278   3.549   3.720   8.910 -2.3825  1.4429  0.0749
37531SOL    HW217279   3.598   3.845   8.980  0.9727  0.3552 -0.1687
37532SOL     OW17280   9.668   0.430   5.509 -0.2640 -0.4962  0.1707
37532SOL    HW117281   9.614   0.457   5.583  0.4995  1.8485 -0.0310
37532SOL    HW217282   9.608   0.428   5.435 -0.4078  0.5887  0.2366
37533SOL     OW17283   5.909   0.450   8.157 -0.0350 -0.2857 -0.3813
37533SOL    HW117284   5.970   0.436   8.085 -1.1388  0.0663 -1.4333
37533SOL    HW217285   5.824   0.459   8.114 -0.5041  1.5730  0.8407
37534SOL     OW17286   5.024   3.553   7.382 -0.1058 -0.4126 -0.1171
37534SOL    HW117287   5.025   3.500   7.461  2.2919  0.7843  0.7694
37534SOL    HW217288   5.100   3.611   7.391 -1.4212  1.7884 -1.9423
37535SOL     OW17289  11.801   3.087   4.288  0.2978  0.2286 -0.2521
37535SOL    HW117290  11.787   3.001   4.328 -1.2743  0.3372 -0.5220
37535SOL    HW217291  11.870   3.127   4.342 -0.1345 -0.5348  0.9096
37536SOL     OW17292   8.237   4.026  10.176 -0.5861  0.4149  0.2853
37536SOL    HW117293   8.179   4.098  10.198 -1.4083 -0.4948  1.1809
37536SOL    HW217294   8.185   3.971  10.117  0.7157  1.5179 -2.0685
37537SOL     OW17295   8.439   0.228   7.320  0.1268  0.0584 -0.5223
37537SOL    HW117296   8.513   0.173   7.344 -1.6512 -2.1800  0.2718
37537SOL    HW217297   8.440   0.299   7.383 -0.1594 -1.6901  1.5735
37538SOL     OW17298   8.912  11.827   1.973  0.9162  0.3690 -0.2060
37538SOL    HW117299   8.946  11.907   1.933 -0.0520  1.6047  1.2992
37538SOL    HW217300   8.938  11.833   2.065  2.1651 -1.8534 -0.3479
37539SOL     OW17301   5.967   3.839   1.412  0.3016  0.4726  0.3970
37539SOL    HW117302   5.966   3.757   1.363  0.8901  0.2029  0.8182
37539SOL    HW217303   5.875   3.863   1.421  0.2071  1.0174 -1.6294
37540SOL     OW17304  10.643   2.428   9.277  0.2990 -0.2073  0.0285
37540SOL    HW117305  10.572   2.440   9.213  0.2247 -1.2412 -0.0944
37540SOL    HW217306  10.673   2.338   9.263  2.1235  0.4258 -0.4048
37541SOL     OW17307   1.519   0.459   1.101  0.3385 -0.2512  0.8224
37541SOL    HW117308   1.577   0.523   1.059  2.3781 -0.7263  2.7415
37541SOL    HW217309   1.451   0.512   1.142  0.1892  0.4257 -0.2453
37542SOL     OW17310  10.565  11.413   0.618  0.6182  0.0892 -0.4843
37542SOL    HW117311  10.534  11.327   0.588  0.9927 -0.6170  1.0362
37542SOL    HW217312  10.498  11.442   0.680  2.5054 -1.1636  2.3604
37543SOL     OW17313   2.281  10.946   0.927 -0.3863  0.1190 -0.4246
37543SOL    HW117314   2.314  10.936   1.017 -2.8773 -3.2319  0.2983
37543SOL    HW217315   2.199  10.995   0.937 -0.6699 -0.2593 -0.8427
37544SOL     OW17316   1.507   9.987   1.711  0.6179  0.5838 -0.3719
37544SOL    HW117317   1.533   9.934   1.636  1.9387  0.7365 -0.0594
37544SOL    HW217318   1.425   9.949   1.741  1.0472 -0.6825 -0.7414
37545SOL     OW17319   6.864   3.208   1.149 -0.7077 -0.1585  0.0890
37545SOL    HW117320   6.798   3.267   1.185 -1.7078 -0.5240 -1.0589
37545SOL    HW217321   6.938   3.215   1.209 -0.9949  1.8296  0.2692
37546SOL     OW17322   7.886   0.299   8.483 -0.1238 -0.4216 -0.9684
37546SOL    HW117323   7.834   0.374   8.454 -1.7774 -0.3981  1.6842
37546SOL    HW217324   7.977   0.326   8.468 -0.6751  1.9544 -0.5229
37547SOL     OW17325   0.943   3.680   9.236 -0.0507 -0.2431 -0.0376
37547SOL    HW117326   0.938   3.623   9.159 -0.3660  0.6194 -0.6737
37547SOL    HW217327   0.892   3.634   9.303  1.0040 -1.4604 -0.0244
37548SOL     OW17328  11.216   2.430  10.901  0.4914 -0.2955 -0.2600
37548SOL    HW117329  11.272   2.453  10.826 -0.7797  3.8942 -0.1950
37548SOL    HW217330  11.128   2.455  10.873 -0.4934 -1.4835  1.5997
37549SOL     OW17331   4.868   6.080   4.142  0.3575  0.3937  0.1460
37549SOL    HW117332   4.870   6.150   4.207  0.1657 -0.1258  0.7202
37549SOL    HW217333   4.818   6.010   4.184  0.9639 -0.2708 -0.2347
37550SOL     OW17334  11.142  10.594   7.262 -0.2941 -0.1162 -0.0228
37550SOL    HW117335  11.121  10.658   7.329  1.6474  0.4281  0.1326
37550SOL    HW217336  11.117  10.510   7.301  1.5004  0.0989  1.7778
37551SOL     OW17337   0.870   3.215   2.137 -0.0858  0.5699  0.4437
37551SOL    HW117338   0.800   3.186   2.078 -1.1944  0.7780  1.6060
37551SOL    HW217339   0.869   3.310   2.130 -0.1977  0.5939  0.7656
37552SOL     OW17340   6.383   4.751  10.994  0.8266 -0.1337  0.3241
37552SOL    HW117341   6.473   4.721  11.007  0.3967 -0.4832  3.1471
37552SOL    HW217342   6.337   4.673  10.963  1.8536  0.6534 -3.7794
37553SOL     OW17343   0.296  11.126   0.224  0.2261 -0.0626  0.0792
37553SOL    HW117344   0.348  11.159   0.151 -0.1517  2.2785  0.7772
37553SOL    HW217345   0.211  11.105   0.186  0.8558 -1.5383 -0.6056
37554SOL     OW17346   2.702   9.095  10.213 -0.8033  0.1609 -0.4172
37554SOL    HW117347   2.632   9.090  10.148 -0.9481  1.1414 -0.3512
37554SOL    HW217348   2.713   9.006  10.244 -2.0719  0.0073 -0.3827
37555SOL     OW17349  10.503   9.347   0.421  0.3530  0.2156 -0.7243
37555SOL    HW117350  10.514   9.376   0.511  0.2164  1.0276 -0.9570
37555SOL    HW217351  10.528   9.423   0.368  1.3054 -0.5445 -1.3950
37556SOL     OW17352   2.250   9.114  11.293 -0.4022  0.3912 -0.2399
37556SOL    HW117353   2.165   9.158  11.295 -0.7476 -0.2893  0.8297
37556SOL    HW217354   2.307   9.169  11.347 -0.7472 -0.2611  0.8227
37557SOL     OW17355   7.596   9.575   7.904 -0.1422  0.1293 -0.0581
37557SOL    HW117356   7.614   9.605   7.993  2.4597 -1.1134 -0.0657
37557SOL    HW217357   7.608   9.652   7.850  2.0380  0.1161  0.3372
37558SOL     OW17358   3.563   2.818   7.568 -0.3478 -0.2802 -0.2079
37558SOL    HW117359   3.498   2.778   7.626 -1.0360  1.3331  0.1865
37558SOL    HW217360   3.530   2.906   7.552  1.4191  0.3680 -0.5368
37559SOL     OW17361   5.527   4.030   1.640  0.5802 -0.7160 -0.1240
37559SOL    HW117362   5.477   3.975   1.701  1.7036 -0.2505  1.2578
37559SOL    HW217363   5.596   4.070   1.694  1.7838 -0.4981 -1.7472
37560SOL     OW17364   5.602   2.882   1.091  0.3882  0.0397 -0.1756
37560SOL    HW117365   5.525   2.832   1.064  0.6976  0.4320 -1.8870
37560SOL    HW217366   5.676   2.826   1.069  0.6434 -0.2078  1.1857
37561SOL     OW17367  10.257   4.153   4.956 -0.8909  0.2047  0.6060
37561SOL    HW117368  10.307   4.143   5.037 -0.1972 -0.2366  0.1262
37561SOL    HW217369  10.286   4.236   4.919  1.6195 -1.3299 -1.1072
37562SOL     OW17370   4.891  10.600   9.894  0.1605 -0.1275 -0.1601
37562SOL    HW117371   4.903  10.599   9.989 -0.4014 -0.8127 -0.0855
37562SOL    HW217372   4.861  10.689   9.874 -2.4232 -0.7003  0.6896
37563SOL     OW17373   1.555   0.688   7.855  0.4684 -0.0598 -0.5356
37563SOL    HW117374   1.535   0.764   7.801  3.3911  0.0991 -1.5595
37563SOL    HW217375   1.647   0.671   7.840  0.5921 -2.1418  1.8298
37564SOL     OW17376   2.335   2.203  11.562  0.3130 -0.4002 -0.4515
37564SOL    HW117377   2.259   2.259  11.580  0.3265 -0.4929 -0.0921
37564SOL    HW217378   2.329   2.183  11.469 -0.0209 -0.2836 -0.4558
37565SOL     OW17379  11.095   2.966   3.705  0.0254  0.1837  0.7094
37565SOL    HW117380  11.152   3.004   3.772  0.0004  2.6953 -0.5495
37565SOL    HW217381  11.153   2.950   3.630 -0.1511 -1.5035  0.8959
37566SOL     OW17382   4.843   6.614  11.218  0.1154 -0.2796  0.0283
37566SOL    HW117383   4.807   6.526  11.228 -1.5607  0.4055  0.3245
37566SOL    HW217384   4.921   6.602  11.163 -0.8975 -1.7751 -1.1788
37567SOL     OW17385   7.382   8.786   9.350  0.2419  0.3884  0.0459
37567SOL    HW117386   7.323   8.722   9.311  0.4103  0.9366 -1.1612
37567SOL    HW217387   7.368   8.778   9.445 -1.2750  0.0448 -0.1891
37568SOL     OW17388  11.476   1.712  10.893  0.1522  0.6978  0.4213
37568SOL    HW117389  11.459   1.725  10.800 -0.5291 -1.0436  0.2644
37568SOL    HW217390  11.435   1.788  10.936 -1.3328  0.4959 -0.5506
37569SOL     OW17391   0.957   2.488   8.781  0.4387 -0.5478  0.0682
37569SOL    HW117392   0.936   2.418   8.719 -1.0710 -0.6984  0.6902
37569SOL    HW217393   0.871   2.524   8.806  1.1636  1.5158 -0.2103
37570SOL     OW17394   3.743   1.694   9.601  0.5200 -0.2916  0.2427
37570SOL    HW117395   3.666   1.643   9.627  2.3605 -2.9015  0.9158
37570SOL    HW217396   3.772   1.736   9.681  0.2387  0.1000  0.1427
37571SOL     OW17397   6.850   8.849   6.483  0.1137 -0.1561 -0.4835
37571SOL    HW117398   6.802   8.868   6.564  1.8063 -0.4673  0.6298
37571SOL    HW217399   6.942   8.859   6.506  0.6638 -0.8526 -2.2187
37572SOL     OW17400  10.969   2.641   9.707  0.0427 -0.7028  0.0771
37572SOL    HW117401  11.043   2.685   9.665 -0.1000  0.0927  0.6446
37572SOL    HW217402  10.928   2.592   9.636  0.8727 -0.8397 -0.3304
37573SOL     OW17403   0.665   3.157   6.805  0.8563 -0.1529 -0.2458
37573SOL    HW117404   0.654   3.097   6.732 -0.3502 -0.2743  0.0122
37573SOL    HW217405   0.672   3.244   6.764 -0.7841 -0.1010 -0.5147
37574SOL     OW17406   7.707   1.459   5.106  0.7757  0.7657 -0.3099
37574SOL    HW117407   7.765   1.400   5.056  1.6887  0.7765  0.7112
37574SOL    HW217408   7.753   1.543   5.107  1.4990  0.3977  1.7585
37575SOL     OW17409   3.130  11.659  10.741  0.1498  0.4912  0.0287
37575SOL    HW117410   3.218  11.621  10.739  0.0660  0.2319  0.7893
37575SOL    HW217411   3.117  11.683  10.833 -0.2163  1.3826 -0.2532
37576SOL     OW17412   0.731  11.959  10.866  0.1260 -0.0004 -0.1378
37576SOL    HW117413   0.672  11.923  10.800 -1.2721 -0.6915  1.4171
37576SOL    HW217414   0.803  11.895  10.872  0.8090  0.5903 -1.6819
37577SOL     OW17415   3.710  11.403   9.649  0.2944  0.0684  0.3456
37577SOL    HW117416   3.730  11.403   9.743 -0.5384 -0.3913  0.5274
37577SOL    HW217417   3.796  11.406   9.607  0.6540  1.4876  1.1121
37578SOL     OW17418   1.557   4.101   9.739  0.0132 -0.2712  0.4995
37578SOL    HW117419   1.465   4.130   9.736  0.4426  1.3062  1.3262
37578SOL    HW217420   1.584   4.099   9.647 -0.1278  1.8705  0.3599
37579SOL     OW17421   6.416  10.787   8.243 -0.0603 -0.0601 -0.2635
37579SOL    HW117422   6.477  10.732   8.292  0.4932 -0.3626 -1.2819
37579SOL    HW217423   6.437  10.771   8.151  0.0441  1.7786 -0.5862
37580SOL     OW17424   8.856   5.707   6.189  0.0700  0.4490 -0.2881
37580SOL    HW117425   8.773   5.746   6.219  1.7634  4.2381  0.0373
37580SOL    HW217426   8.900   5.679   6.270  0.0236  0.4661 -0.2570
37581SOL     OW17427  10.905   7.686   8.421 -0.2415  0.2680  0.0417
37581SOL    HW117428  10.827   7.738   8.402 -0.8282  0.3301  2.2792
37581SOL    HW217429  10.969   7.715   8.356 -1.0721  2.5927  0.1420
37582SOL     OW17430   4.733   1.342   7.934 -0.5997 -0.1026  0.9842
37582SOL    HW117431   4.826   1.351   7.954 -0.4124  1.4124 -0.3369
37582SOL    HW217432   4.711   1.423   7.887 -1.9723 -1.5390 -1.0120
37583SOL     OW17433   1.623   8.493   3.821  0.2145 -0.0095  0.0108
37583SOL    HW117434   1.616   8.458   3.909  1.2360 -0.9279 -0.2517
37583SOL    HW217435   1.626   8.415   3.764 -0.7673  0.5605 -0.8754
37584SOL     OW17436   1.692   4.854   8.777 -0.0414  0.2182  0.4272
37584SOL    HW117437   1.770   4.824   8.822 -0.5013  2.1150  2.7126
37584SOL    HW217438   1.620   4.803   8.815 -0.2737  0.8288  0.8253
37585SOL     OW17439   3.102   9.143   9.308  0.2429 -0.8572  0.3010
37585SOL    HW117440   3.123   9.155   9.216 -0.5342 -0.5973  0.1491
37585SOL    HW217441   3.067   9.054   9.313 -3.9744  0.5057 -0.5391
37586SOL     OW17442  10.143   3.830  10.137 -0.1319  0.1911 -0.8691
37586SOL    HW117443  10.168   3.877  10.216 -0.9623  2.0389 -1.6348
37586SOL    HW217444  10.208   3.761  10.128 -0.4377 -0.5536  1.8095
37587SOL     OW17445   7.366   9.084   8.047 -0.3054 -0.2463 -0.1658
37587SOL    HW117446   7.372   9.179   8.037 -2.6643 -0.1797 -2.1484
37587SOL    HW217447   7.427   9.050   7.981  0.1098 -0.0958  0.1391
37588SOL     OW17448   2.132   7.728   3.739 -0.6219 -0.2942  0.3160
37588SOL    HW117449   2.181   7.648   3.757 -0.8804 -0.4746  0.2148
37588SOL    HW217450   2.070   7.704   3.671  0.6661  0.5029 -1.2010
37589SOL     OW17451   3.626   2.510   6.659 -0.7553 -0.5794  0.0893
37589SOL    HW117452   3.630   2.440   6.595 -1.8766 -0.3151 -0.2867
37589SOL    HW217453   3.574   2.475   6.731 -0.2262 -0.5777  0.4783
37590SOL     OW17454   6.147   7.435   6.430  0.2864  0.1219 -0.5965
37590SOL    HW117455   6.235   7.471   6.414  0.1167  0.6112 -0.4467
37590SOL    HW217456   6.102   7.445   6.346  0.4001 -0.2028 -0.6958
37591SOL     OW17457   3.212   9.130   0.113 -0.0152 -0.1760  0.4928
37591SOL    HW117458   3.202   9.225   0.108  2.0527  0.0340 -2.4515
37591SOL    HW217459   3.304   9.117   0.134  0.4563 -1.4026 -1.9861
37592SOL     OW17460   9.612   5.003   3.884  0.1244 -0.6890 -0.2623
37592SOL    HW117461   9.655   5.031   3.965 -0.4986 -2.1030  0.6036
37592SOL    HW217462   9.521   5.032   3.894  0.3357  0.3530 -1.1091
37593SOL     OW17463   1.842   7.784   5.489  0.3006 -0.3578  1.0786
37593SOL    HW117464   1.916   7.839   5.511 -0.1797  0.5770  0.4377
37593SOL    HW217465   1.767   7.824   5.534 -0.1283 -0.2062  0.2653
37594SOL     OW17466   9.311   8.246  10.245 -0.3950 -0.2316  0.1325
37594SOL    HW117467   9.352   8.327  10.276 -0.7495 -0.8998  2.5524
37594SOL    HW217468   9.379   8.180  10.252 -0.9881 -0.7494  1.3074
37595SOL     OW17469   0.771   1.919  10.159  0.3934  0.4804  0.2261
37595SOL    HW117470   0.766   1.971  10.239  0.1935  0.7131  0.0631
37595SOL    HW217471   0.684   1.926  10.119  0.9199  1.6612 -0.8017
37596SOL     OW17472   1.066   9.590   2.617 -0.0793 -0.3451 -0.1620
37596SOL    HW117473   1.065   9.581   2.712 -2.2444 -1.7733 -0.2480
37596SOL    HW217474   0.974   9.596   2.592  0.4145 -0.3628 -2.2242
37597SOL     OW17475   0.282   7.203   3.291 -0.2698 -0.1256  0.5388
37597SOL    HW117476   0.206   7.257   3.269 -0.1336 -0.2726 -0.3304
37597SOL    HW217477   0.333   7.256   3.352 -1.1974 -0.1357  1.3471
37598SOL     OW17478  10.372   9.255  11.979 -0.0539 -0.1464  0.0353
37598SOL    HW117479  10.400   9.182  12.034  1.6795  0.2723 -0.2272
37598SOL    HW217480  10.453   9.300  11.957 -0.9074  0.7743 -1.3414
37599SOL     OW17481   4.974   5.303   1.265  0.4454 -0.4316 -0.0572
37599SOL    HW117482   4.932   5.270   1.344  1.8815  0.5909  1.1829
37599SOL    HW217483   5.017   5.226   1.227 -0.5115 -0.9917 -0.0489
37600SOL     OW17484  11.625   5.906   5.976  0.6964  0.1182  0.3453
37600SOL    HW117485  11.715   5.926   5.951  0.8530 -0.0622  0.7492
37600SOL    HW217486  11.583   5.991   5.983  0.8695  0.2110  0.2683
37601SOL     OW17487   3.063   0.001   7.177  0.1929 -0.0047  0.4701
37601SOL    HW117488   2.987  -0.055   7.192 -0.2559  0.7150  0.9699
37601SOL    HW217489   3.104   0.010   7.264  0.1623  0.5601  0.4327
37602SOL     OW17490   5.127   9.801   2.499 -0.3263 -0.3037 -0.4762
37602SOL    HW117491   5.162   9.881   2.459 -1.4209 -0.5446 -2.0087
37602SOL    HW217492   5.166   9.730   2.448  0.9896 -0.8104  1.1580
37603SOL     OW17493   1.597  11.155  10.757  0.2678  0.2660  0.0910
37603SOL    HW117494   1.523  11.199  10.798 -0.7942 -0.4513 -1.0057
37603SOL    HW217495   1.605  11.196  10.670 -0.2337 -1.1122 -0.6388
37604SOL     OW17496   1.316   9.167   8.103 -0.5594 -0.5591 -0.8327
37604SOL    HW117497   1.281   9.131   8.022 -0.8051 -1.4591 -0.3497
37604SOL    HW217498   1.337   9.258   8.083 -1.6812 -0.4474 -1.5810
37605SOL     OW17499   4.148   7.360   1.646  0.3012 -0.1588  0.1017
37605SOL    HW117500   4.071   7.340   1.592 -0.4034 -1.3267  1.4651
37605SOL    HW217501   4.219   7.311   1.604 -0.4233 -1.7729  0.6576
37606SOL     OW17502   3.171   5.809   1.843 -0.4698 -0.6539  0.1198
37606SOL    HW117503   3.085   5.840   1.815 -0.4019 -1.7926 -1.5304
37606SOL    HW217504   3.168   5.714   1.828  1.4507 -0.5721 -1.0593
37607SOL     OW17505   7.390   4.820   7.650 -0.4536 -0.0268 -0.2106
37607SOL    HW117506   7.322   4.846   7.712 -0.5772 -0.1231 -0.3028
37607SOL    HW217507   7.451   4.894   7.647 -0.8739  0.3098 -0.5742
37608SOL     OW17508  11.884  11.155   5.238  0.0752 -0.3368 -0.1039
37608SOL    HW117509  11.881  11.250   5.251  0.4837 -0.4694  1.0803
37608SOL    HW217510  11.872  11.143   5.143  0.3395  0.9119 -0.3111
37609SOL     OW17511   2.918   1.240   0.292 -0.5843  0.3005 -0.1827
37609SOL    HW117512   2.997   1.243   0.237  0.1746 -2.2852  0.6400
37609SOL    HW217513   2.869   1.318   0.267  1.5092  1.1926 -1.8177
37610SOL     OW17514   5.846   4.414   3.274 -0.1459 -0.1476  0.7560
37610SOL    HW117515   5.821   4.465   3.197 -4.2822 -0.8066  1.4320
37610SOL    HW217516   5.907   4.347   3.241 -0.1859  0.8566 -1.4765
37611SOL     OW17517   9.386  11.385   3.188  0.7808 -0.5052 -0.3355
37611SOL    HW117518   9.387  11.291   3.200 -3.2716 -0.7306 -0.2563
37611SOL    HW217519   9.382  11.421   3.277  1.7737 -0.2624 -0.3802
37612SOL     OW17520   5.391  10.453   0.642 -0.4831  0.7218  0.1132
37612SOL    HW117521   5.477  10.443   0.600 -0.9153 -2.2106 -0.3066
37612SOL    HW217522   5.399  10.403   0.723 -2.2651 -1.2185 -0.8054
37613SOL     OW17523  10.994   6.136   5.233 -0.8443  0.3738 -0.2464
37613SOL    HW117524  10.996   6.196   5.159  0.0869  0.0135 -0.5364
37613SOL    HW217525  11.073   6.083   5.222  1.1631  2.4273  2.7554
37614SOL     OW17526   7.864   4.623   6.109  0.2388 -0.4683  0.8122
37614SOL    HW117527   7.954   4.650   6.091  0.1791  1.1591  2.5627
37614SOL    HW217528   7.810   4.682   6.057  0.1711  0.0726  1.4813
37615SOL     OW17529   1.428   8.406   1.551 -0.4062 -0.2608  0.0241
37615SOL    HW117530   1.454   8.475   1.613  2.4423 -0.9048 -0.2888
37615SOL    HW217531   1.378   8.452   1.484  1.3334  1.5789 -0.1324
37616SOL     OW17532   0.483   9.867   6.452  0.1908  0.3026 -0.3684
37616SOL    HW117533   0.568   9.829   6.434  0.6115  0.4283  1.1906
37616SOL    HW217534   0.430   9.794   6.484 -0.2086  0.2799 -1.0649
37617SOL     OW17535  10.635   4.948   9.920  0.0258  0.0249  0.4940
37617SOL    HW117536  10.589   4.867   9.939 -0.5145  0.0282 -0.6991
37617SOL    HW217537  10.610   4.969   9.830  0.1217  1.5349  0.7916
37618SOL     OW17538   5.465  10.251   9.018  0.4264  0.3972 -0.0127
37618SOL    HW117539   5.387  10.209   9.055  0.2082 -0.9632 -1.8956
37618SOL    HW217540   5.538  10.201   9.051  0.2137 -1.0126 -1.5566
37619SOL     OW17541   0.439   1.288   4.865 -0.4277  0.1783  0.0795
37619SOL    HW117542   0.509   1.281   4.929 -0.0057 -0.5195 -0.4352
37619SOL    HW217543   0.446   1.208   4.812 -1.9668 -0.1944  0.3714
37620SOL     OW17544   7.584  11.711   8.178  0.0031  0.1703 -0.0266
37620SOL    HW117545   7.613  11.741   8.092 -1.0845 -0.5614 -0.6690
37620SOL    HW217546   7.653  11.651   8.207  0.7097  0.9361 -0.0598
37621SOL     OW17547   9.652  10.159   4.337  0.7754  0.2574  0.1732
37621SOL    HW117548   9.689  10.224   4.278  1.3585  1.7131  2.0256
37621SOL    HW217549   9.576  10.203   4.377  0.8701 -0.3692  1.0843
37622SOL     OW17550   9.466   6.603  11.873 -0.2277 -0.5177 -0.0917
37622SOL    HW117551   9.488   6.630  11.784  2.0766 -1.5197  0.0896
37622SOL    HW217552   9.391   6.544  11.863  0.7842 -1.6143 -1.5435
37623SOL     OW17553   0.172   6.917   3.230 -0.7249  0.7342  0.4805
37623SOL    HW117554   0.232   6.847   3.202 -0.7890  1.4714 -1.6922
37623SOL    HW217555   0.214   6.955   3.306  0.7067  0.0899  0.0589
37624SOL     OW17556  11.448   1.557   2.106  0.5539  0.0231 -0.2437
37624SOL    HW117557  11.403   1.637   2.135  1.6144  0.3772  0.4891
37624SOL    HW217558  11.377   1.499   2.077 -0.3232  0.8015  0.2758
37625SOL     OW17559  11.031   5.919   4.607  0.6583  0.3722 -0.4468
37625SOL    HW117560  11.105   5.870   4.643  2.2091  2.2441 -0.9264
37625SOL    HW217561  10.996   5.862   4.539  0.1474 -1.5263  1.2980
37626SOL     OW17562   5.940   5.683   2.009  0.6146  0.1636 -0.3870
37626SOL    HW117563   5.855   5.638   2.007  1.0378 -0.7414  0.8233
37626SOL    HW217564   5.918   5.774   2.028 -0.0728 -0.1015  0.1451
37627SOL     OW17565   3.826   3.902   1.096  0.4276 -0.6683  0.2374
37627SOL    HW117566   3.858   3.827   1.146  1.5290 -0.3932 -0.0188
37627SOL    HW217567   3.853   3.884   1.006  2.3538  0.8347  0.4347
37628SOL     OW17568   9.857   0.128   6.435 -0.1447  0.3290 -0.5009
37628SOL    HW117569   9.845   0.172   6.519 -0.7291  1.2620 -1.0586
37628SOL    HW217570   9.929   0.067   6.450  0.4258  1.1968  0.3994
37629SOL     OW17571   5.873   1.210   8.106 -0.6995  0.1357  0.4294
37629SOL    HW117572   5.906   1.211   8.016 -0.6499  1.2083  0.4559
37629SOL    HW217573   5.951   1.202   8.160 -0.7826 -1.5481  0.3805
37630SOL     OW17574  11.819   2.557   3.760 -0.0654 -0.1188  0.3949
37630SOL    HW117575  11.788   2.550   3.850  1.3804  0.6682  0.9893
37630SOL    HW217576  11.881   2.630   3.762 -0.3246  0.1778 -1.3334
37631SOL     OW17577   0.383  11.853   3.997 -0.2020  0.3532  0.0597
37631SOL    HW117578   0.386  11.790   4.070 -0.0791 -2.0433 -1.8633
37631SOL    HW217579   0.455  11.913   4.014 -1.4882  1.2564  2.9818
37632SOL     OW17580   8.090   6.901  10.629 -0.7606 -0.0354 -0.4702
37632SOL    HW117581   8.005   6.887  10.587 -1.1432 -1.4646  0.7304
37632SOL    HW217582   8.127   6.814  10.638  0.6236  0.5263 -0.4880
37633SOL     OW17583   4.383  11.711   0.401 -0.4331  0.0287 -0.4100
37633SOL    HW117584   4.416  11.702   0.491  0.0860 -1.5871 -0.7339
37633SOL    HW217585   4.289  11.725   0.412 -0.2925  0.3913  0.4053
37634SOL     OW17586   9.075  10.557  10.399 -0.0013  0.0354  0.2397
37634SOL    HW117587   9.089  10.463  10.386 -0.0217 -0.0231  0.6193
37634SOL    HW217588   9.162  10.592  10.419 -0.1185 -0.0319  0.8599
37635SOL     OW17589   4.161   3.705  10.126  0.4399  0.4166  0.3742
37635SOL    HW117590   4.238   3.754  10.096 -0.3831  2.0113  0.7171
37635SOL    HW217591   4.158   3.721  10.220 -0.8318  1.2120  0.2230
37636SOL     OW17592   6.934   5.475   1.358  0.0192 -0.2701  0.4575
37636SOL    HW117593   6.967   5.399   1.311 -1.9901 -0.7097 -0.3497
37636SOL    HW217594   6.931   5.447   1.449 -0.6200 -1.1479  0.1811
37637SOL     OW17595  10.678   0.216   9.494  0.2684 -0.9039 -0.7328
37637SOL    HW117596  10.666   0.271   9.571  0.2579 -0.6307 -0.9302
37637SOL    HW217597  10.645   0.130   9.521  0.0714 -0.7569 -0.5016
37638SOL     OW17598   4.832   8.577   5.474 -0.0389  0.1373  0.4998
37638SOL    HW117599   4.768   8.628   5.424  1.0272 -0.4135 -1.5114
37638SOL    HW217600   4.779   8.529   5.538 -1.6448 -0.1870 -1.0056
37639SOL     OW17601   3.005   7.718   4.221  0.0101 -0.1976 -0.1116
37639SOL    HW117602   3.086   7.769   4.218  0.7752 -1.3422  0.2637
37639SOL    HW217603   2.957   7.744   4.143  0.5059  0.8652 -0.0808
37640SOL     OW17604   9.423   4.807   8.595  0.3573  0.2157  0.4553
37640SOL    HW117605   9.470   4.759   8.528  0.9367 -0.4261  1.3086
37640SOL    HW217606   9.468   4.786   8.676 -1.2019 -0.1714  1.2611
37641SOL     OW17607   6.170   2.754   6.021 -0.0722  0.5077  0.1076
37641SOL    HW117608   6.193   2.673   6.065  0.5390  0.6989  0.1487
37641SOL    HW217609   6.162   2.819   6.091  0.6130  0.7458 -0.0237
37642SOL     OW17610   6.280   4.612   7.839  0.2514  0.1061  0.2949
37642SOL    HW117611   6.315   4.662   7.765  3.6925  0.5106  1.9564
37642SOL    HW217612   6.277   4.522   7.809  3.2157  0.0003  0.0155
37643SOL     OW17613  10.372   0.888  11.052  0.0784  0.2281 -0.0580
37643SOL    HW117614  10.325   0.818  11.097 -0.7795  0.1581 -1.0409
37643SOL    HW217615  10.416   0.937  11.123 -0.7000 -0.2695  0.7844
37644SOL     OW17616   7.345  10.076   9.151 -0.1544  0.1683  0.1998
37644SOL    HW117617   7.425  10.043   9.194 -1.1897  0.1783  2.2616
37644SOL    HW217618   7.348  10.037   9.063  0.0649 -3.3487  1.5743
37645SOL     OW17619   1.506   0.446   7.039  0.4042  0.0973 -0.0332
37645SOL    HW117620   1.417   0.449   7.004  0.3012 -0.9341  0.1084
37645SOL    HW217621   1.562   0.455   6.962  0.2223 -4.3241 -0.9621
37646SOL     OW17622   5.706   3.048   3.129  0.2505  0.3140  0.0053
37646SOL    HW117623   5.627   3.059   3.077  0.7159  0.6867 -0.6343
37646SOL    HW217624   5.774   3.092   3.078  1.0436 -0.7569  0.1226
37647SOL     OW17625  11.381   7.608   7.485 -0.8717  0.0542 -0.2501
37647SOL    HW117626  11.445   7.539   7.505 -2.2660 -0.8665  1.3105
37647SOL    HW217627  11.340   7.581   7.404 -0.8912 -0.5725 -0.0334
37648SOL     OW17628   6.214   9.841  11.984 -0.8239 -0.4655 -0.1090
37648SOL    HW117629   6.134   9.796  11.958 -0.7779 -0.1085 -0.9196
37648SOL    HW217630   6.247   9.791  12.059 -0.1899 -2.5080 -1.6290
37649SOL     OW17631   6.391   8.079   3.023  0.4986  0.2757  1.0826
37649SOL    HW117632   6.411   8.048   2.935  0.3841  1.8658  0.4657
37649SOL    HW217633   6.296   8.089   3.024  0.3246 -1.2163  1.9225
37650SOL     OW17634   4.797   8.520   2.048  0.3480 -0.7515 -0.1389
37650SOL    HW117635   4.770   8.592   1.992 -2.1386 -2.1223 -0.8453
37650SOL    HW217636   4.750   8.535   2.130  2.0977 -0.0588  0.7869
37651SOL     OW17637   3.112   6.063   8.524 -0.2199 -0.7133  0.5656
37651SOL    HW117638   3.153   5.978   8.506  0.0999 -0.5440  0.4891
37651SOL    HW217639   3.057   6.048   8.601 -0.2505 -1.0163  0.4838
37652SOL     OW17640   1.263   8.315   0.454  0.2594  0.3298  0.4270
37652SOL    HW117641   1.235   8.334   0.544 -0.7547 -0.0002  0.1906
37652SOL    HW217642   1.308   8.394   0.426  0.2813  0.5650  1.1045
37653SOL     OW17643  10.791   9.560   5.699  0.4287 -0.5949 -0.0279
37653SOL    HW117644  10.882   9.537   5.682  0.0538 -1.9281 -0.3455
37653SOL    HW217645  10.761   9.494   5.762 -0.6193 -0.8726 -0.7884
37654SOL     OW17646   2.851   4.104   5.982  0.1780 -0.8547  0.2671
37654SOL    HW117647   2.882   4.033   5.925 -0.9364 -1.1313 -0.0233
37654SOL    HW217648   2.766   4.128   5.946  0.6652  0.8619  0.1781
37655SOL     OW17649   3.500   9.628  10.565  0.3979 -0.5743 -0.8394
37655SOL    HW117650   3.501   9.724  10.562 -1.2435 -0.4349  0.8538
37655SOL    HW217651   3.565   9.605  10.631  0.7005 -0.6294 -1.1545
37656SOL     OW17652   0.002   9.389   5.817 -0.4250  0.1042  0.4371
37656SOL    HW117653   0.083   9.359   5.857 -0.0757 -0.3525 -0.5855
37656SOL    HW217654   0.001   9.483   5.832 -0.0212  0.0289  0.9882
37657SOL     OW17655   4.732   3.922   4.570  0.3197  0.1971  0.1191
37657SOL    HW117656   4.694   3.837   4.545 -0.3687  0.6409 -0.3730
37657SOL    HW217657   4.711   3.930   4.663  0.7891 -0.3762  0.2825
37658SOL     OW17658   1.916  11.566   7.168 -0.3359 -0.0843  0.1777
37658SOL    HW117659   1.884  11.645   7.124 -0.0183 -0.0954 -0.0722
37658SOL    HW217660   1.903  11.584   7.262 -1.1752 -0.1340  0.0754
37659SOL     OW17661  11.393   0.078   6.685  0.3228 -0.3625  0.0345
37659SOL    HW117662  11.300   0.060   6.668  0.4418 -0.3628 -0.6508
37659SOL    HW217663  11.440   0.026   6.620  0.7762  0.1433 -0.0507
37660SOL     OW17664   1.762  11.852   3.657  0.2178 -0.1402 -0.0588
37660SOL    HW117665   1.841  11.886   3.616  0.0625 -0.3513 -0.5282
37660SOL    HW217666   1.768  11.883   3.748 -0.3009  1.8098 -0.6479
37661SOL     OW17667   3.078   5.058   8.075  0.2474 -0.7039 -0.0989
37661SOL    HW117668   2.991   5.093   8.095  0.4597 -0.1393 -0.1459
37661SOL    HW217669   3.115   5.037   8.161  0.9811  1.2964  0.1376
37662SOL     OW17670   0.732   1.731   3.004 -0.1557  0.1319  0.3028
37662SOL    HW117671   0.776   1.736   2.919  0.6908 -0.7277  0.6748
37662SOL    HW217672   0.660   1.669   2.990  0.6659 -0.8879  0.4838
37663SOL     OW17673  10.815   1.468   9.591  0.0478  0.2424  0.2637
37663SOL    HW117674  10.731   1.440   9.626  0.4091  0.3614  1.2641
37663SOL    HW217675  10.835   1.405   9.522 -2.0146  1.6484 -1.7694
37664SOL     OW17676   2.943   8.193   3.467  0.1069 -0.2914 -0.2018
37664SOL    HW117677   2.901   8.279   3.474  0.9018  0.0901  0.0812
37664SOL    HW217678   2.902   8.141   3.536 -0.9226 -0.3868 -0.8658
37665SOL     OW17679  10.661   8.224  10.575 -0.4845 -0.6821  0.5214
37665SOL    HW117680  10.740   8.268  10.609 -1.8282  0.2932  2.6051
37665SOL    HW217681  10.624   8.287  10.512  2.0549 -2.5285 -3.2210
37666SOL     OW17682   4.059   1.640   6.491 -0.1918 -0.3088 -0.1493
37666SOL    HW117683   3.978   1.616   6.447  0.8717 -0.4047 -2.1957
37666SOL    HW217684   4.113   1.561   6.484  1.6713  1.0235 -2.8831
37667SOL     OW17685   0.948  10.668   1.680 -0.5681 -0.2840 -0.6414
37667SOL    HW117686   1.036  10.637   1.660  0.2797  0.9893  0.8149
37667SOL    HW217687   0.963  10.744   1.737 -2.6334 -1.1780  1.2444
37668SOL     OW17688   6.155   2.715   7.057 -0.1335  0.3031  0.6161
37668SOL    HW117689   6.087   2.648   7.061 -0.0311  0.2482  1.8775
37668SOL    HW217690   6.117   2.783   7.001 -1.1271  0.1554  1.0742
37669SOL     OW17691   1.777   7.436   4.513 -0.3032 -0.0304  0.5625
37669SOL    HW117692   1.861   7.466   4.477 -0.2497 -0.7740  0.0319
37669SOL    HW217693   1.771   7.345   4.485 -1.7334  0.2780 -0.2482
37670SOL     OW17694   9.615   5.404   4.566 -0.0774 -0.2898  0.0269
37670SOL    HW117695   9.672   5.453   4.626  1.1022  0.6948 -1.7900
37670SOL    HW217696   9.554   5.470   4.532  0.1120 -0.5440 -0.8161
37671SOL     OW17697   3.571   3.912   7.997 -0.4511  0.2289  0.3801
37671SOL    HW117698   3.532   3.983   8.049 -0.9209 -0.9473  1.6957
37671SOL    HW217699   3.512   3.838   8.011 -0.0997 -0.3630 -1.1745
37672SOL     OW17700   9.480  11.286   7.446  0.2101 -0.1379 -0.0353
37672SOL    HW117701   9.569  11.274   7.413  0.4447  0.9495  0.1567
37672SOL    HW217702   9.486  11.361   7.506 -0.7210 -0.4121  0.4304
37673SOL     OW17703   0.292   5.936   6.157 -0.3472  0.4506 -0.5448
37673SOL    HW117704   0.361   5.919   6.221 -1.1102 -2.1967 -0.2764
37673SOL    HW217705   0.269   6.028   6.169  1.7939  0.8882  0.6680
37674SOL     OW17706   8.245   5.302   2.456 -0.2263 -0.5827 -0.1098
37674SOL    HW117707   8.203   5.345   2.530 -1.1628  1.1089 -1.5374
37674SOL    HW217708   8.185   5.231   2.432 -0.9452  0.1251 -0.4584
37675SOL     OW17709   9.124   0.635   2.640 -0.1598 -0.0012 -0.0121
37675SOL    HW117710   9.188   0.577   2.597 -0.6483  0.4917 -1.4370
37675SOL    HW217711   9.171   0.668   2.717  1.7686  1.2822 -1.6373
37676SOL     OW17712  10.652   1.559   2.710 -0.3274 -0.2772  0.5614
37676SOL    HW117713  10.575   1.520   2.669 -0.8202  0.4330  0.8104
37676SOL    HW217714  10.722   1.495   2.694 -0.7265 -0.4643 -0.5349
37677SOL     OW17715   3.793   4.951   2.478 -0.3891  0.1686 -0.2317
37677SOL    HW117716   3.878   4.908   2.478 -1.0455 -1.1638 -0.0276
37677SOL    HW217717   3.813   5.045   2.472  1.1452  0.0344  1.8420
37678SOL     OW17718  10.609  11.142   5.928 -0.1583 -0.1356 -0.2970
37678SOL    HW117719  10.579  11.065   5.880 -0.6974 -0.0034 -0.1769
37678SOL    HW217720  10.546  11.211   5.905 -0.1997  0.0312  0.2989
37679SOL     OW17721   3.686   2.764   2.657  0.2673 -0.5878  0.1426
37679SOL    HW117722   3.780   2.749   2.660  0.6085  1.0108 -0.8777
37679SOL    HW217723   3.647   2.680   2.679  1.9240 -1.2488  0.7137
37680SOL     OW17724  11.607   5.137   3.980  0.2249 -0.6238 -0.0441
37680SOL    HW117725  11.515   5.125   4.001  0.3577 -0.1175  0.8584
37680SOL    HW217726  11.610   5.134   3.884 -0.7898 -0.2323 -0.0984
37681SOL     OW17727   7.599   3.427   1.903 -0.0175  0.3336  0.3072
37681SOL    HW117728   7.645   3.433   1.986 -0.7998  0.3691  0.7552
37681SOL    HW217729   7.663   3.455   1.838  0.8317 -0.3814  0.8123
37682SOL     OW17730  11.979   9.816  11.457 -0.5950  0.1251 -0.4212
37682SOL    HW117731  12.037   9.802  11.532 -1.6727  1.5461  0.7270
37682SOL    HW217732  11.969   9.729  11.418 -1.7229 -1.1272  2.3596
37683SOL     OW17733   1.070  10.049   1.734 -0.4980 -0.2702 -0.2220
37683SOL    HW117734   1.077  10.144   1.748 -0.7894 -0.0302 -1.6015
37683SOL    HW217735   1.052  10.014   1.822  0.3962  0.8547  0.4489
37684SOL     OW17736   8.640   3.824   8.520 -0.8868 -0.6039  0.2430
37684SOL    HW117737   8.603   3.797   8.436 -1.8506 -1.6172  0.9573
37684SOL    HW217738   8.612   3.915   8.530 -0.2886 -0.2969 -0.7750
37685SOL     OW17739   1.275   2.191   1.112  0.1052  0.2821 -0.0410
37685SOL    HW117740   1.307   2.236   1.191 -0.6304 -0.1038  0.4768
37685SOL    HW217741   1.315   2.105   1.115  0.4954  0.4429 -0.3764
37686SOL     OW17742   9.305   3.211   7.669  0.4833 -0.9441  0.1375
37686SOL    HW117743   9.228   3.243   7.717  0.7177  0.4418 -0.3557
37686SOL    HW217744   9.276   3.128   7.631 -0.7404 -0.5341  0.1019
37687SOL     OW17745   0.106   6.848  11.549 -0.4276  1.1685 -0.1604
37687SOL    HW117746   0.032   6.792  11.524 -1.1305  1.8985  0.2193
37687SOL    HW217747   0.067   6.914  11.606  0.6531  1.1371  0.6620
37688SOL     OW17748   0.984   7.326   3.879  1.2036  0.3830  0.6158
37688SOL    HW117749   1.029   7.253   3.921  0.2406  0.0725  1.1410
37688SOL    HW217750   0.923   7.358   3.946  0.6667  0.8051 -0.0579
37689SOL     OW17751   2.904   4.540  10.945 -0.1845  0.1606  0.0483
37689SOL    HW117752   2.848   4.476  10.900  1.6956  0.3312 -2.8019
37689SOL    HW217753   2.990   4.499  10.945  0.2457  0.9904  1.9679
37690SOL     OW17754  10.030   2.579   4.398 -0.2054  0.4303  0.1051
37690SOL    HW117755   9.967   2.568   4.327  1.0576 -3.1378 -0.6212
37690SOL    HW217756   9.976   2.584   4.477 -1.5103  1.9794 -0.8181
37691SOL     OW17757   6.791   4.862   2.682 -0.0272  0.0162 -0.0486
37691SOL    HW117758   6.720   4.860   2.618 -0.0964  1.9882 -0.1124
37691SOL    HW217759   6.850   4.792   2.654 -0.9709 -0.3659 -1.1795
37692SOL     OW17760   1.498   4.064   0.531  0.3082  0.1177 -0.1483
37692SOL    HW117761   1.404   4.079   0.539  0.2266 -0.1187 -0.6651
37692SOL    HW217762   1.526   4.042   0.620 -0.2502 -0.5396 -0.1268
37693SOL     OW17763  11.656   5.790   0.502 -0.1413 -0.0272 -0.1435
37693SOL    HW117764  11.673   5.708   0.550  0.4799  0.5026  0.5547
37693SOL    HW217765  11.560   5.793   0.495 -0.2939  0.0842  1.4669
37694SOL     OW17766   6.850   1.842   2.174 -0.0858 -0.4079  0.1963
37694SOL    HW117767   6.912   1.785   2.219  1.8749  1.9450  0.6172
37694SOL    HW217768   6.851   1.924   2.223  3.2981  2.9312 -4.5952
37695SOL     OW17769   8.298   8.283   0.661  0.3893 -0.4401  0.0012
37695SOL    HW117770   8.386   8.311   0.638  1.0336 -2.2784  0.0662
37695SOL    HW217771   8.310   8.198   0.702 -1.5804 -1.7771 -1.9539
37696SOL     OW17772  11.486   7.391   3.280  0.2638  0.1068 -0.2897
37696SOL    HW117773  11.531   7.470   3.249  0.6302  1.6071  3.4998
37696SOL    HW217774  11.396   7.420   3.296  0.3006 -0.2987  0.7359
37697SOL     OW17775   3.367   2.447   2.097  0.1109 -0.1447  0.0381
37697SOL    HW117776   3.433   2.450   2.028 -0.6645  0.6049 -0.6995
37697SOL    HW217777   3.388   2.521   2.154  0.6000 -0.6157  0.4917
37698SOL     OW17778   2.299   5.732   5.558 -0.2215  0.3488 -0.2806
37698SOL    HW117779   2.250   5.711   5.479  0.3062 -0.0915 -0.5023
37698SOL    HW217780   2.332   5.647   5.589  0.3595  0.6250 -0.1217
37699SOL     OW17781   1.329   5.208   5.172 -0.0107  1.3077  0.2443
37699SOL    HW117782   1.259   5.175   5.116 -0.9412  0.5343  1.7571
37699SOL    HW217783   1.409   5.181   5.129 -0.7173 -0.9249  0.1800
37700SOL     OW17784   4.616   2.682   6.691 -0.8799 -0.2005  0.2219
37700SOL    HW117785   4.683   2.614   6.699 -2.3670 -2.5250 -3.6497
37700SOL    HW217786   4.534   2.637   6.715 -1.6279  0.9744 -0.0438
37701SOL     OW17787   4.297  11.566   9.605  0.2256 -0.0567  0.3032
37701SOL    HW117788   4.289  11.643   9.661 -0.9696 -0.0668  0.1792
37701SOL    HW217789   4.281  11.598   9.516  2.0776 -0.0463 -0.0705
37702SOL     OW17790   5.815   4.466   9.767  0.3407 -0.1803  0.5470
37702SOL    HW117791   5.798   4.560   9.768  0.3481 -0.1792  0.9206
37702SOL    HW217792   5.880   4.453   9.699 -0.5091 -0.0691 -0.3083
37703SOL     OW17793   5.230   7.911   6.570 -0.4274 -0.4730  0.1549
37703SOL    HW117794   5.257   7.819   6.570  0.4546 -0.2320 -0.4246
37703SOL    HW217795   5.258   7.944   6.484  0.6107  0.6905  0.8985
37704SOL     OW17796   6.151   0.538   8.308 -0.0024 -0.0932 -0.2607
37704SOL    HW117797   6.070   0.512   8.264  0.4497  0.8653 -1.7454
37704SOL    HW217798   6.129   0.620   8.351 -0.1228 -0.4111  0.2812
37705SOL     OW17799  11.305   2.327   9.710 -0.4980  0.0155  0.0878
37705SOL    HW117800  11.217   2.327   9.673  0.1967 -0.4188 -1.6346
37705SOL    HW217801  11.356   2.270   9.652  1.5593  2.3743 -0.5884
37706SOL     OW17802   9.358   2.807   2.991  0.0716 -0.1141 -0.1191
37706SOL    HW117803   9.386   2.886   2.944 -1.2317  2.3828  2.9575
37706SOL    HW217804   9.262   2.807   2.983 -0.0108 -0.8312  0.6969
37707SOL     OW17805   6.250   0.536   1.423 -0.1896 -0.3111 -0.2712
37707SOL    HW117806   6.281   0.621   1.456  1.0950 -0.8411 -0.0566
37707SOL    HW217807   6.219   0.490   1.500  0.7539 -0.6951 -0.1028
37708SOL     OW17808   7.567  10.363  11.042 -0.1254 -0.3050  0.0915
37708SOL    HW117809   7.520  10.283  11.065 -0.1023  0.2222  2.1812
37708SOL    HW217810   7.524  10.432  11.093  0.6492  0.8071 -0.7038
37709SOL     OW17811   6.436   8.851   9.182  0.3021 -0.4984  0.4545
37709SOL    HW117812   6.456   8.799   9.260  0.7199  0.9750  1.3596
37709SOL    HW217813   6.513   8.839   9.125  0.9632  0.1044  1.1979
37710SOL     OW17814   2.738   5.554   9.174  0.1709 -0.1140 -0.0576
37710SOL    HW117815   2.789   5.473   9.167  1.4275  0.7095 -0.8567
37710SOL    HW217816   2.804   5.624   9.171 -0.9938  0.9899 -0.9903
37711SOL     OW17817   2.052   2.361   5.600 -0.0787  0.3374  0.1736
37711SOL    HW117818   1.994   2.410   5.542  1.5796 -0.2099 -2.0690
37711SOL    HW217819   2.044   2.270   5.570  0.7372  0.0170  0.8951
37712SOL     OW17820   6.960   2.119   6.986  0.0130  1.1725  0.6844
37712SOL    HW117821   6.993   2.047   7.040 -1.3900 -0.8091 -0.9420
37712SOL    HW217822   6.994   2.100   6.898 -0.8817  2.1679  0.1001
37713SOL     OW17823   4.267   6.117   8.612  0.1641  0.3563  0.1154
37713SOL    HW117824   4.321   6.185   8.651 -0.0603  0.6351 -0.0614
37713SOL    HW217825   4.321   6.038   8.617  0.8987  0.7864 -0.7703
37714SOL     OW17826   6.660   6.670   0.282  0.4540  0.2952  0.7036
37714SOL    HW117827   6.694   6.601   0.226 -0.2409  0.7477 -0.3045
37714SOL    HW217828   6.717   6.745   0.267 -1.0872  1.1692 -1.2615
37715SOL     OW17829   7.714   1.523   5.986 -0.1062  0.1497 -0.4948
37715SOL    HW117830   7.760   1.444   6.014 -3.2086 -1.2528  1.2016
37715SOL    HW217831   7.683   1.503   5.898  0.9258  0.3770 -0.9195
37716SOL     OW17832   0.470   7.723  11.033 -0.6584  1.2034 -0.2867
37716SOL    HW117833   0.430   7.691  11.114 -1.3413 -0.0771 -1.0967
37716SOL    HW217834   0.563   7.706  11.043 -0.8952 -0.1531 -0.2880
37717SOL     OW17835   2.824   1.469   9.401 -0.2166 -0.4021 -0.4481
37717SOL    HW117836   2.770   1.515   9.465 -0.3997  1.0151 -1.5696
37717SOL    HW217837   2.870   1.538   9.354  1.8196 -1.5150 -0.2273
37718SOL     OW17838   7.179   0.087   5.871  0.4420 -0.0073  0.1375
37718SOL    HW117839   7.106   0.052   5.921  1.7637 -1.9126  0.8547
37718SOL    HW217840   7.193   0.023   5.801  0.7319  0.8976 -0.6530
37719SOL     OW17841   8.999   8.166  11.709 -0.2903  0.0265  0.8039
37719SOL    HW117842   9.051   8.222  11.767 -0.4796 -1.4145  2.4458
37719SOL    HW217843   8.918   8.149  11.757 -0.4331 -1.2592  0.1743
37720SOL     OW17844   5.087   4.160   1.977  0.1399  0.3308 -0.5572
37720SOL    HW117845   5.123   4.219   1.911  0.2227  0.8822 -0.0310
37720SOL    HW217846   4.996   4.147   1.950  0.2587  0.3029 -0.9508
37721SOL     OW17847   7.436   2.360   1.221  0.5324  0.1128  0.0518
37721SOL    HW117848   7.471   2.347   1.133  0.7201 -1.6765  0.3685
37721SOL    HW217849   7.501   2.414   1.266  0.9522  0.1271 -0.5712
37722SOL     OW17850   6.647   8.237  10.576 -0.2636 -0.4976 -0.0310
37722SOL    HW117851   6.590   8.266  10.648  0.3983 -0.6798  0.5832
37722SOL    HW217852   6.736   8.241  10.613  0.2730  1.1136 -1.4084
37723SOL     OW17853   8.251   1.766   3.144 -0.0317 -0.4061  0.2997
37723SOL    HW117854   8.218   1.780   3.233  0.2308  0.9129  0.2085
37723SOL    HW217855   8.345   1.749   3.156  0.0011 -0.2423  0.2858
37724SOL     OW17856   1.057   8.961   4.179  0.0718  0.0577  0.3432
37724SOL    HW117857   1.008   9.012   4.115  0.9106  0.4528  0.0056
37724SOL    HW217858   0.998   8.890   4.203 -0.1629 -0.2562 -1.0668
37725SOL     OW17859   3.182   9.237  10.604 -0.0190  0.1535 -0.2642
37725SOL    HW117860   3.121   9.305  10.574 -0.2677 -0.0795 -0.2950
37725SOL    HW217861   3.268   9.275  10.593 -0.0457 -0.2262 -2.1027
37726SOL     OW17862   6.236   9.747   7.059 -0.3964  0.1571  0.0438
37726SOL    HW117863   6.206   9.834   7.034 -3.9276 -1.0872 -0.7119
37726SOL    HW217864   6.278   9.712   6.981  1.1703  1.1634  0.3961
37727SOL     OW17865  10.573   7.997  11.812  0.0024  0.2600 -0.9734
37727SOL    HW117866  10.540   8.085  11.794 -1.3199 -0.1237 -0.6113
37727SOL    HW217867  10.498   7.951  11.850  0.5632 -1.1225 -1.4559
37728SOL     OW17868   1.984   8.675   8.081 -0.0712  0.1432 -0.1100
37728SOL    HW117869   2.014   8.730   8.009  0.2087 -0.2641 -0.3043
37728SOL    HW217870   1.901   8.638   8.051  0.1586 -0.2071 -0.3147
37729SOL     OW17871   6.590   4.787   5.666 -0.1786 -0.4739 -0.9186
37729SOL    HW117872   6.599   4.696   5.637 -0.4056 -0.1829 -1.9677
37729SOL    HW217873   6.521   4.785   5.731  0.9903 -1.3095  0.3540
37730SOL     OW17874   6.492   0.093   5.992 -0.1510 -0.2761  0.2424
37730SOL    HW117875   6.506   0.178   6.034 -2.8125  0.3477  0.0525
37730SOL    HW217876   6.474   0.114   5.901  0.9037 -1.2140 -0.1952
37731SOL     OW17877   6.578  11.680   8.640 -0.2187  0.1206 -0.0910
37731SOL    HW117878   6.665  11.643   8.656 -0.0084  0.9674  0.8121
37731SOL    HW217879   6.555  11.649   8.552  0.2573 -1.5183  0.3210
37732SOL     OW17880   6.325   8.840   7.967  0.4445 -0.2981 -0.4209
37732SOL    HW117881   6.278   8.903   7.914 -3.0961  0.1337  2.8311
37732SOL    HW217882   6.385   8.893   8.021 -0.9874  0.1657  0.7902
37733SOL     OW17883   6.609   4.502  10.777  0.0864 -0.7090 -0.0115
37733SOL    HW117884   6.619   4.537  10.688 -1.2138  0.2136  0.1706
37733SOL    HW217885   6.545   4.431  10.767 -1.1216  0.2830  0.3525
37734SOL     OW17886   6.736   9.353   8.790  0.0084 -0.0682  0.1384
37734SOL    HW117887   6.684   9.399   8.856  0.3090  0.2750  0.1405
37734SOL    HW217888   6.728   9.407   8.711 -0.8437 -0.7949 -0.2828
37735SOL     OW17889   6.850   0.258   4.367 -0.7438  0.1195  0.4919
37735SOL    HW117890   6.865   0.208   4.447 -2.5857 -1.4434 -0.0560
37735SOL    HW217891   6.784   0.207   4.320 -1.2751  2.1115 -1.0197
37736SOL     OW17892   6.107   4.748   3.781  0.0035  0.1173 -0.9529
37736SOL    HW117893   6.034   4.810   3.779  1.8572  2.4759 -0.5205
37736SOL    HW217894   6.076   4.677   3.838 -1.3384  1.8777  0.6636
37737SOL     OW17895   5.997   8.816   5.176 -0.3402  0.2238  0.4274
37737SOL    HW117896   6.077   8.868   5.171  0.3701 -0.9627 -1.9443
37737SOL    HW217897   5.944   8.847   5.103 -0.8091 -0.8978  0.2738
37738SOL     OW17898   5.506   1.374  10.251  0.7745 -0.0494 -0.5764
37738SOL    HW117899   5.503   1.359  10.346 -0.6204  1.0112 -0.4198
37738SOL    HW217900   5.437   1.318  10.216 -0.9680  1.9629 -0.5497
37739SOL     OW17901   9.575   1.732   2.295 -0.4946  0.1130 -0.2031
37739SOL    HW117902   9.591   1.642   2.321  0.8564  0.3350 -0.2218
37739SOL    HW217903   9.512   1.726   2.223 -2.5411 -0.6446  1.5103
37740SOL     OW17904   9.275   2.830   6.351  0.1050 -0.3276 -0.0239
37740SOL    HW117905   9.365   2.848   6.379  0.2176 -1.1083  0.1530
37740SOL    HW217906   9.242   2.767   6.415 -0.1959 -0.8754 -0.6989
37741SOL     OW17907   6.730   9.285  10.206 -0.1014 -0.3495  0.2193
37741SOL    HW117908   6.814   9.319  10.175 -0.2723  0.5241  0.6815
37741SOL    HW217909   6.708   9.341  10.281 -1.4998 -0.0110 -0.4194
37742SOL     OW17910  10.213   3.500   8.523  0.0348 -0.0909 -0.4355
37742SOL    HW117911  10.270   3.568   8.560 -0.3968 -0.4965  1.0435
37742SOL    HW217912  10.270   3.424   8.512  0.0371 -0.1544 -0.0062
37743SOL     OW17913  10.489   8.887   7.449 -0.5075 -0.1699  0.3763
37743SOL    HW117914  10.530   8.858   7.530 -2.3643  0.0262  1.4420
37743SOL    HW217915  10.423   8.820   7.431 -2.0095  1.1843  0.5884
37744SOL     OW17916   9.855   1.247   1.653 -0.4698 -0.0955 -0.2644
37744SOL    HW117917   9.849   1.328   1.704 -0.5554  0.1898 -0.7265
37744SOL    HW217918   9.766   1.211   1.655 -0.4556 -0.1238 -0.1491
37745SOL     OW17919   2.471   3.393   0.475 -0.0383  0.1475 -0.0157
37745SOL    HW117920   2.449   3.485   0.463  0.5047  0.3764  0.6887
37745SOL    HW217921   2.559   3.384   0.438  1.1120  0.5741  2.4224
37746SOL     OW17922   3.410  11.288  10.715 -0.1317 -0.1500  0.1449
37746SOL    HW117923   3.416  11.346  10.790  0.0704  1.8666 -1.3545
37746SOL    HW217924   3.321  11.298  10.682  0.4461  0.8031 -1.2242
37747SOL     OW17925   8.462   3.540   8.426 -0.2431 -0.0218  0.5170
37747SOL    HW117926   8.537   3.500   8.382 -0.2791  0.3211  0.1361
37747SOL    HW217927   8.464   3.632   8.398 -0.1038  0.2673  1.4615
37748SOL     OW17928  11.784  10.168  10.771 -0.0706  0.0853  0.2657
37748SOL    HW117929  11.807  10.079  10.800 -1.4727 -0.0443  1.0498
37748SOL    HW217930  11.737  10.206  10.845  1.4156  1.8889  0.3566
37749SOL     OW17931   7.360   3.742   6.435 -0.4701 -0.0971  0.0087
37749SOL    HW117932   7.367   3.662   6.487  2.0599 -0.8126 -1.2637
37749SOL    HW217933   7.390   3.812   6.494  1.3647 -0.7457 -0.1061
37750SOL     OW17934   9.396   3.602   3.941 -0.5043  0.2696 -0.2384
37750SOL    HW117935   9.398   3.698   3.947 -0.0340  0.3255 -1.1389
37750SOL    HW217936   9.405   3.584   3.848 -1.1935 -0.6445 -0.1400
37751SOL     OW17937   6.144   1.134  10.049 -0.0805  0.0576  0.6421
37751SOL    HW117938   6.094   1.211  10.077  0.3376  0.8204 -0.6150
37751SOL    HW217939   6.233   1.167  10.037  0.7238 -1.2218  2.6114
37752SOL     OW17940   5.199  11.263   9.075  0.0004 -0.7872  0.0084
37752SOL    HW117941   5.159  11.202   9.137 -0.0755  0.8170  1.5965
37752SOL    HW217942   5.292  11.259   9.095  0.2013 -1.5332 -0.9810
37753SOL     OW17943   0.977   3.235   9.642  0.0932 -0.0146  0.1869
37753SOL    HW117944   0.987   3.293   9.717  0.5887  0.3695 -0.1622
37753SOL    HW217945   1.030   3.277   9.573  2.2515 -1.9433  0.5421
37754SOL     OW17946   3.493   5.708   3.820 -0.3256 -0.1459 -0.3802
37754SOL    HW117947   3.546   5.765   3.764 -2.0894  1.8546 -0.0956
37754SOL    HW217948   3.556   5.671   3.882  1.5105 -1.6214 -2.9257
37755SOL     OW17949   5.607   1.917  10.814  0.3035 -0.0601 -0.6939
37755SOL    HW117950   5.526   1.967  10.803 -0.1881 -0.3946  1.0175
37755SOL    HW217951   5.616   1.868  10.733 -1.4139 -0.2738 -0.8043
37756SOL     OW17952   7.306  11.635   4.166  0.0411 -0.2746 -0.3837
37756SOL    HW117953   7.393  11.598   4.179  0.2637  0.0722 -0.8541
37756SOL    HW217954   7.272  11.647   4.254  1.4211  1.8128 -0.0723
37757SOL     OW17955   5.878   4.673   8.063  0.3039  0.2639 -0.1640
37757SOL    HW117956   5.902   4.761   8.035 -0.5391  0.6649  0.3324
37757SOL    HW217957   5.783   4.669   8.053  0.4074 -0.8522 -0.8774
37758SOL     OW17958   2.635   5.597   4.321 -0.3035 -0.9550  1.2517
37758SOL    HW117959   2.663   5.673   4.372 -1.0405 -0.0694  0.3766
37758SOL    HW217960   2.630   5.526   4.385 -0.3463 -0.0872  2.2416
37759SOL     OW17961   3.011   4.685   5.721 -1.0540 -0.9042 -0.3175
37759SOL    HW117962   2.977   4.600   5.749  1.0332 -1.3163  1.2858
37759SOL    HW217963   3.101   4.667   5.694 -1.4976  0.3436 -2.9713
37760SOL     OW17964   9.311   4.330   5.817 -0.2443 -0.1253  0.3107
37760SOL    HW117965   9.351   4.273   5.883  0.7544 -0.6406 -0.7012
37760SOL    HW217966   9.353   4.415   5.829 -0.0981 -0.2068  0.3764
37761SOL     OW17967  11.567   8.433  10.214  0.1142  0.1364  0.3258
37761SOL    HW117968  11.552   8.344  10.181  1.3844 -0.3033  0.8674
37761SOL    HW217969  11.614   8.477  10.143 -0.5032  0.3868  0.0623
37762SOL     OW17970   7.294   7.835   2.288 -0.2994 -0.8288  0.2693
37762SOL    HW117971   7.247   7.914   2.265 -0.4007 -0.9410  0.0844
37762SOL    HW217972   7.228   7.766   2.287 -0.1572 -0.9650  0.1383
37763SOL     OW17973   6.890   4.837   0.004 -0.4820 -0.5254 -0.5429
37763SOL    HW117974   6.899   4.783  -0.075  2.9352  1.0307 -1.3794
37763SOL    HW217975   6.890   4.773   0.076  0.4629 -1.8200 -1.6256
37764SOL     OW17976   8.048  10.720   4.461 -0.3022 -0.0333 -0.0366
37764SOL    HW117977   8.075  10.799   4.507 -0.8155  0.4013 -0.4639
37764SOL    HW217978   8.036  10.654   4.529  2.2686 -0.4129  0.1746
37765SOL     OW17979   9.376  11.947   4.301 -0.0964  0.1770 -0.1168
37765SOL    HW117980   9.415  12.034   4.288 -0.7057  0.4228 -0.3536
37765SOL    HW217981   9.443  11.886   4.270 -0.6300  0.6578 -2.4128
37766SOL     OW17982   2.974   3.154  10.666  0.0556 -1.0290  0.1710
37766SOL    HW117983   2.998   3.207  10.591 -0.2563 -0.6236  0.3532
37766SOL    HW217984   3.040   3.174  10.733 -0.9470  0.3566  0.7975
37767SOL     OW17985   2.581   8.290   5.904 -0.3208 -0.3668  0.1579
37767SOL    HW117986   2.668   8.259   5.878 -0.0354  1.1999 -0.8954
37767SOL    HW217987   2.599   8.360   5.968 -0.7693  0.2115 -0.3354
37768SOL     OW17988   7.831   5.586   6.145  0.3798  0.1459  0.0312
37768SOL    HW117989   7.806   5.643   6.218 -1.2358  0.7451 -0.9333
37768SOL    HW217990   7.902   5.634   6.101 -0.2252  0.8976 -0.1414
37769SOL     OW17991   2.346   0.488   9.867 -0.3135 -0.0579 -0.5695
37769SOL    HW117992   2.352   0.514   9.775 -0.2102  0.5077 -0.4106
37769SOL    HW217993   2.348   0.393   9.866 -0.3281 -0.0537 -1.1552
37770SOL     OW17994   2.814   4.129   4.341  0.3513 -0.1472 -0.3214
37770SOL    HW117995   2.837   4.175   4.421  3.0277  0.9648 -1.6280
37770SOL    HW217996   2.802   4.038   4.369  1.8820  0.0865  1.2565
37771SOL     OW17997   9.434   3.578  10.175 -0.0748 -0.1964  0.5325
37771SOL    HW117998   9.502   3.626  10.129 -0.6822 -0.0364 -0.2227
37771SOL    HW217999   9.419   3.628  10.255  0.4547 -0.0534  0.5439
37772SOL     OW18000   2.601   7.676   4.180  0.6275 -0.4864  0.9368
37772SOL    HW118001   2.641   7.628   4.253  1.4385 -0.2404  0.6754
37772SOL    HW218002   2.675   7.723   4.140  0.0685 -0.0436  0.4060
37773SOL     OW18003   7.257   1.099   3.835  0.1306  0.1038  0.2792
37773SOL    HW118004   7.235   1.132   3.748 -0.9074 -2.1127 -0.3963
37773SOL    HW218005   7.330   1.039   3.819  0.9852  0.8653  1.2110
37774SOL     OW18006   8.623   5.087   2.847 -0.0446  0.3159 -0.3471
37774SOL    HW118007   8.558   5.124   2.786  0.5572 -1.4680 -2.1807
37774SOL    HW218008   8.692   5.154   2.851  0.0512  0.3533 -1.9318
37775SOL     OW18009  10.425  11.914   6.004 -0.5798 -0.2874 -0.4105
37775SOL    HW118010  10.431  11.956   6.090 -2.2812 -2.2819  0.8116
37775SOL    HW218011  10.498  11.852   6.003  0.5838  1.0422 -1.2665
37776SOL     OW18012   0.622   5.587   5.846  0.2488  0.3834  0.7787
37776SOL    HW118013   0.683   5.638   5.792 -0.9511  0.2329 -0.7796
37776SOL    HW218014   0.582   5.525   5.785 -0.8766 -0.0705  1.9381
37777SOL     OW18015  10.741   1.863   0.895 -0.1573 -0.4631 -0.1651
37777SOL    HW118016  10.795   1.910   0.831  0.6046 -0.6111  0.3633
37777SOL    HW218017  10.659   1.846   0.848 -0.9731  2.4615 -0.0085
37778SOL     OW18018   0.763   6.767   4.100 -0.0722 -0.4565  0.4110
37778SOL    HW118019   0.813   6.784   4.020 -0.5785  0.9106  0.3564
37778SOL    HW218020   0.726   6.852   4.124  0.0431 -0.8456  2.0982
37779SOL     OW18021   7.792  10.889   5.098  0.1533  0.0291 -0.1687
37779SOL    HW118022   7.736  10.882   5.176 -1.4848  0.7105 -1.2209
37779SOL    HW218023   7.742  10.945   5.038  1.5932 -0.0768 -1.5231
37780SOL     OW18024   2.392  10.372   4.193  0.2647  0.0860  0.3906
37780SOL    HW118025   2.374  10.410   4.107  1.1805 -0.6656 -0.1500
37780SOL    HW218026   2.461  10.426   4.230  0.9810 -0.5196 -0.0281
37781SOL     OW18027   0.934   9.847   2.889  0.1578 -0.0262  0.5603
37781SOL    HW118028   0.878   9.919   2.859 -1.0152 -0.9515  0.4312
37781SOL    HW218029   0.882   9.804   2.958  0.8699 -0.7022  0.6856
37782SOL     OW18030   2.573  10.574   6.775 -0.1079  0.1022 -0.2274
37782SOL    HW118031   2.503  10.619   6.821  0.5854  0.7486  0.2207
37782SOL    HW218032   2.616  10.521   6.842  0.8412  0.9633 -0.1222
37783SOL     OW18033  11.519   7.029   8.480 -0.2611  0.2246  0.6784
37783SOL    HW118034  11.464   7.085   8.426 -0.5198  0.2904  1.0107
37783SOL    HW218035  11.575   7.090   8.528 -0.1431  0.1712  0.6112
37784SOL     OW18036  11.882   9.642   3.494 -0.0168  0.5772  0.1133
37784SOL    HW118037  11.931   9.567   3.460 -0.0629  0.9296 -0.7704
37784SOL    HW218038  11.849   9.614   3.579 -0.7497 -0.7063 -0.5691
37785SOL     OW18039   9.496   3.946   7.917  0.3515 -0.1038  0.1124
37785SOL    HW118040   9.466   3.859   7.893  0.8349 -0.0222 -0.8372
37785SOL    HW218041   9.565   3.931   7.981  0.8763 -0.4559 -0.5250
37786SOL     OW18042   1.915   7.083   0.114 -0.2024  0.2401 -0.5854
37786SOL    HW118043   1.969   7.008   0.091 -0.2573  0.2543 -0.7622
37786SOL    HW218044   1.970   7.136   0.171 -0.6401 -0.6250  0.6881
37787SOL     OW18045   5.052   9.738   0.007  0.1282  0.1541 -0.4161
37787SOL    HW118046   4.992   9.805   0.039  1.2927  0.3734  1.4358
37787SOL    HW218047   5.072   9.763  -0.083 -0.0256  1.8826  0.0134
37788SOL     OW18048   3.596   3.516   4.565  0.4086  0.0041 -0.5274
37788SOL    HW118049   3.620   3.578   4.496 -0.3940  0.2533 -0.5922
37788SOL    HW218050   3.597   3.569   4.645  0.3575 -0.0535 -0.4887
37789SOL     OW18051  10.987  10.464   2.967 -0.2286 -0.2772  0.3977
37789SOL    HW118052  10.992  10.547   2.920 -1.2941 -0.4873 -0.1246
37789SOL    HW218053  11.049  10.473   3.039 -0.9090  1.2823  0.8262
37790SOL     OW18054   3.111  11.218   9.617 -0.0424 -0.2010 -0.2101
37790SOL    HW118055   3.098  11.171   9.534 -3.1604  0.4934 -0.2216
37790SOL    HW218056   3.125  11.309   9.591  2.4659 -0.4582 -0.0281
37791SOL     OW18057   2.372   0.370   9.078  0.2272 -0.5037 -0.2484
37791SOL    HW118058   2.395   0.356   8.987 -1.7115  1.0456 -1.0579
37791SOL    HW218059   2.276   0.369   9.080  0.2042 -0.0662  1.6895
37792SOL     OW18060   3.192   7.637   8.661  0.2879 -0.0318 -0.1099
37792SOL    HW118061   3.161   7.577   8.727 -1.1072  0.1107 -0.5998
37792SOL    HW218062   3.156   7.722   8.686  2.3571  0.6862  0.6638
37793SOL     OW18063   0.400   7.217   9.364 -0.3054  0.3841  0.0325
37793SOL    HW118064   0.495   7.220   9.374 -0.1682  0.6529 -1.1906
37793SOL    HW218065   0.382   7.263   9.282 -1.4486 -0.0739 -0.0097
37794SOL     OW18066   3.129   4.961   5.695  0.4729  0.1880  0.2673
37794SOL    HW118067   3.155   4.907   5.620  2.0809  0.4445  0.5885
37794SOL    HW218068   3.087   4.901   5.756  0.9125 -0.4201 -0.0202
37795SOL     OW18069   1.310  10.584   5.726  0.0910 -0.1560 -0.3341
37795SOL    HW118070   1.232  10.576   5.781  0.0710 -1.4862 -0.5144
37795SOL    HW218071   1.382  10.592   5.788  0.0005 -0.9580 -0.1151
37796SOL     OW18072   9.109   5.496  10.112 -0.1362  0.4973  0.0885
37796SOL    HW118073   9.083   5.588  10.106 -1.1947  0.1806 -0.4163
37796SOL    HW218074   9.101   5.475  10.206  0.5722  1.0458  0.2741
37797SOL     OW18075   1.534   1.740   6.688 -0.6880 -0.0226 -0.2211
37797SOL    HW118076   1.576   1.748   6.773  0.7961  1.5533 -1.0394
37797SOL    HW218077   1.451   1.786   6.698 -1.3713 -1.4043  0.8404
37798SOL     OW18078   8.721  11.397   5.730  0.5974  0.1387  0.4461
37798SOL    HW118079   8.657  11.452   5.776  0.9833  0.4603  0.6024
37798SOL    HW218080   8.799  11.400   5.785  0.7394 -0.2800  0.2712
37799SOL     OW18081  10.478   1.394   5.339 -0.4328  0.1622 -0.1225
37799SOL    HW118082  10.515   1.482   5.344 -0.7248  0.3023 -0.4166
37799SOL    HW218083  10.525   1.353   5.266  0.2615 -0.1951  0.5073
37800SOL     OW18084   4.082  11.173   9.445  0.4893  0.6576 -0.1986
37800SOL    HW118085   4.117  11.086   9.464 -0.3198 -0.1388 -2.1062
37800SOL    HW218086   4.119  11.196   9.360 -0.8115  1.3373 -0.6073
37801SOL     OW18087   4.959   9.603   4.334  0.1805  0.5407  0.8744
37801SOL    HW118088   5.035   9.554   4.304 -0.2479  0.4378 -0.0670
37801SOL    HW218089   4.885   9.543   4.323 -0.3156  1.2913 -0.0511
37802SOL     OW18090   2.707   5.775   9.693 -0.0013 -0.1908 -0.4910
37802SOL    HW118091   2.719   5.803   9.602  0.5633 -1.6830 -0.9183
37802SOL    HW218092   2.722   5.680   9.690 -0.1480 -0.2861  1.1353
37803SOL     OW18093   1.875   8.501   3.969 -0.2945  0.2483  0.0016
37803SOL    HW118094   1.787   8.515   4.004 -0.5298 -0.8217 -0.1349
37803SOL    HW218095   1.898   8.412   3.995  0.2854  0.1051 -0.9522
37804SOL     OW18096   6.898   6.854   7.860  0.1288  0.3743 -0.0141
37804SOL    HW118097   6.973   6.815   7.904 -1.0887 -0.7719  1.1674
37804SOL    HW218098   6.883   6.798   7.784  0.9441  1.0941 -0.7221
37805SOL     OW18099   0.141   0.496   4.590  0.0104 -0.0482 -0.5902
37805SOL    HW118100   0.236   0.487   4.601  0.0910 -0.6554 -1.6232
37805SOL    HW218101   0.114   0.413   4.550 -0.0905  2.0314 -5.4534
37806SOL     OW18102   2.028   4.763   6.363  0.4169 -0.2780  0.0310
37806SOL    HW118103   1.964   4.722   6.422  0.5183 -2.1266 -1.0688
37806SOL    HW218104   2.112   4.749   6.406  0.6146 -2.6095 -0.9918
37807SOL     OW18105   7.662   4.236   0.182 -0.0831 -0.6321 -0.0449
37807SOL    HW118106   7.619   4.215   0.099 -2.9813 -0.5538  1.3098
37807SOL    HW218107   7.690   4.327   0.171 -1.5035 -0.2241 -0.5803
37808SOL     OW18108   4.947   8.212  11.308 -0.8705 -0.4263 -0.7094
37808SOL    HW118109   4.900   8.130  11.323 -0.7564 -0.3131  0.3731
37808SOL    HW218110   4.890   8.280  11.346 -0.5796 -0.1033 -0.8407
37809SOL     OW18111   4.708   3.684  11.729  0.4887  0.0808 -0.0413
37809SOL    HW118112   4.773   3.650  11.791 -1.5216  1.3950  3.0135
37809SOL    HW218113   4.719   3.779  11.731 -2.0574  0.4289  1.3551
37810SOL     OW18114   4.428   8.238   8.124 -0.0626 -0.1817 -0.3797
37810SOL    HW118115   4.434   8.278   8.211 -0.0541 -0.3077 -0.3217
37810SOL    HW218116   4.336   8.250   8.098 -0.5819 -1.9026  0.5093
37811SOL     OW18117   7.227   7.860   0.482 -0.1146  0.6806  0.0662
37811SOL    HW118118   7.297   7.801   0.507 -2.6183 -2.8312 -0.4572
37811SOL    HW218119   7.177   7.873   0.563 -1.5956 -1.0144 -0.5154
37812SOL     OW18120   3.975   3.379   9.457 -0.1542 -0.0030 -0.0705
37812SOL    HW118121   3.972   3.471   9.431 -2.5618  0.0091  0.0265
37812SOL    HW218122   3.911   3.336   9.400  1.5895 -1.8462 -0.7718
37813SOL     OW18123   1.235   6.488  10.336  0.0168 -0.1995 -0.1034
37813SOL    HW118124   1.217   6.581  10.321  1.8986  0.0932 -0.7694
37813SOL    HW218125   1.148   6.449  10.349 -0.9150  1.4340 -1.0496
37814SOL     OW18126   2.189   5.224   1.584 -0.6484 -0.0088  0.1117
37814SOL    HW118127   2.174   5.129   1.582 -0.9713  0.0356  0.3541
37814SOL    HW218128   2.202   5.248   1.492 -0.5858 -0.2836  0.0473
37815SOL     OW18129   4.484   0.868   7.386 -0.7066 -0.1623 -0.4637
37815SOL    HW118130   4.417   0.833   7.445 -1.4843 -0.6002 -1.5846
37815SOL    HW218131   4.566   0.852   7.432 -1.2090 -1.5528 -0.0042
37816SOL     OW18132   9.425   8.119   8.668  0.3462 -0.3713 -0.0224
37816SOL    HW118133   9.401   8.070   8.747 -0.3033 -0.8821 -0.5281
37816SOL    HW218134   9.408   8.058   8.596 -0.0028  0.4244 -0.6230
37817SOL     OW18135   3.854   4.191   5.744  0.0466 -0.1201 -0.3240
37817SOL    HW118136   3.891   4.102   5.739 -0.1359 -0.2515  0.5637
37817SOL    HW218137   3.762   4.177   5.762  0.3105  0.2667  1.4544
37818SOL     OW18138   0.330   2.133   0.895  0.1068 -0.7117 -0.3352
37818SOL    HW118139   0.389   2.092   0.832 -0.0221 -0.3809 -0.6722
37818SOL    HW218140   0.320   2.067   0.964 -4.0108 -3.4579 -3.1079
37819SOL     OW18141  10.132  10.377   7.171 -0.3018  0.2739  0.3178
37819SOL    HW118142  10.083  10.345   7.247 -0.3544  0.4733  0.3699
37819SOL    HW218143  10.070  10.433   7.124 -0.5748 -0.6078 -0.3986
37820SOL     OW18144   3.413   4.634   6.448 -0.0044  0.6013 -0.0188
37820SOL    HW118145   3.342   4.691   6.476 -0.1978 -0.5258  1.9484
37820SOL    HW218146   3.389   4.608   6.359 -3.7632 -2.0845  1.5038
37821SOL     OW18147   7.843   2.670   3.502  0.3046 -0.4583 -0.1088
37821SOL    HW118148   7.758   2.713   3.504  0.9348  0.8475 -0.4392
37821SOL    HW218149   7.826   2.584   3.462 -1.1316 -0.9178  1.4136
37822SOL     OW18150   5.192   6.008  11.630 -0.3273 -0.3832 -0.2434
37822SOL    HW118151   5.204   5.962  11.547  2.7236  0.8234 -0.6136
37822SOL    HW218152   5.277   6.001  11.674 -1.6746 -0.5277  2.5943
37823SOL     OW18153   5.351   1.631   5.689  0.2802 -0.5312 -0.7974
37823SOL    HW118154   5.329   1.724   5.676  1.8950 -0.0297 -0.1759
37823SOL    HW218155   5.446   1.627   5.677  0.3082 -2.0199 -0.2793
37824SOL     OW18156   0.130   7.763   6.625 -0.8297  0.3914  0.5223
37824SOL    HW118157   0.205   7.823   6.630 -0.0333 -0.2367 -2.1681
37824SOL    HW218158   0.061   7.815   6.584 -0.7823  0.0599  0.0123
37825SOL     OW18159   5.538   1.979   8.803 -0.1019 -0.3281 -0.0457
37825SOL    HW118160   5.585   1.907   8.845  0.6960  0.4756  0.4932
37825SOL    HW218161   5.598   2.054   8.811 -0.8666  0.3701 -0.6792
37826SOL     OW18162   2.764   7.755   2.887  0.2338 -0.0516 -0.1917
37826SOL    HW118163   2.677   7.787   2.865  0.6470  0.7294 -0.7532
37826SOL    HW218164   2.803   7.732   2.803 -0.2523 -2.6849  0.2108
37827SOL     OW18165   2.713   4.270   6.533  0.0394  0.1127 -0.3784
37827SOL    HW118166   2.722   4.358   6.571 -2.5747  0.3534 -0.1663
37827SOL    HW218167   2.668   4.285   6.449 -0.1272 -0.9936 -0.4946
37828SOL     OW18168   9.727  10.047   2.128 -0.8431  0.0853  0.2419
37828SOL    HW118169   9.760  10.070   2.215 -0.1502  0.7161 -0.1740
37828SOL    HW218170   9.729   9.951   2.126  3.7631 -0.0487 -0.7113
37829SOL     OW18171   6.137  11.520   1.457 -0.4946 -0.0941  0.8364
37829SOL    HW118172   6.157  11.560   1.541  1.2314 -0.2117  0.5227
37829SOL    HW218173   6.215  11.468   1.436  0.0685  1.6522 -1.8224
37830SOL     OW18174  10.410   3.199   3.444 -0.8260  0.1281 -0.2060
37830SOL    HW118175  10.326   3.206   3.490 -0.0096  0.9093  1.2444
37830SOL    HW218176  10.402   3.120   3.391 -2.3869  0.0635  0.0734
37831SOL     OW18177   2.435   7.118   0.407 -0.1848 -0.6934  0.3864
37831SOL    HW118178   2.440   7.025   0.431 -0.2869 -1.0865 -1.0109
37831SOL    HW218179   2.500   7.128   0.337 -0.6242  0.1376  0.0833
37832SOL     OW18180  10.652   6.751  11.086  0.0304  0.4377 -0.3507
37832SOL    HW118181  10.613   6.664  11.091  1.7423 -0.3100  3.5799
37832SOL    HW218182  10.598   6.797  11.022 -2.8312 -2.5689 -0.3976
37833SOL     OW18183   0.220  10.094   0.008  0.3052 -1.1080  0.3999
37833SOL    HW118184   0.145  10.035  -0.000  0.8097 -1.6772 -0.1556
37833SOL    HW218185   0.297  10.038  -0.001  0.8058 -0.5156  0.8604
37834SOL     OW18186   7.013   7.839   2.469  0.3760 -0.5661 -0.1410
37834SOL    HW118187   6.985   7.899   2.537 -0.0252  0.4368 -1.1624
37834SOL    HW218188   6.951   7.766   2.473  0.0946 -0.3045  0.2755
37835SOL     OW18189   0.868   6.270   3.808 -0.5103  0.3900  0.3443
37835SOL    HW118190   0.842   6.260   3.900 -0.7259 -2.1289  0.0997
37835SOL    HW218191   0.953   6.315   3.812 -0.7743  0.8250  1.7271
37836SOL     OW18192   0.384   5.388   1.749 -0.7869  0.1890  0.0642
37836SOL    HW118193   0.317   5.425   1.692 -0.0706 -0.5908 -1.3336
37836SOL    HW218194   0.435   5.463   1.779 -0.9719  0.5715 -0.5769
37837SOL     OW18195   7.831   4.551   8.343  0.6514 -0.6770 -0.0259
37837SOL    HW118196   7.777   4.549   8.422 -0.4862  1.0215 -0.7187
37837SOL    HW218197   7.807   4.470   8.296 -0.7903 -0.3094  0.0263
37838SOL     OW18198  11.991   8.668   0.946 -0.2033  0.3742 -0.1672
37838SOL    HW118199  11.937   8.594   0.973 -0.5634  1.0576  1.0800
37838SOL    HW218200  11.986   8.668   0.850  0.8325 -1.9479 -0.2944
37839SOL     OW18201   8.314   5.165   6.049  0.0034 -0.1234  0.5145
37839SOL    HW118202   8.274   5.240   6.092 -2.3347 -0.2027 -1.2740
37839SOL    HW218203   8.381   5.202   5.992  0.0532  0.4151  0.9205
37840SOL     OW18204   6.286  10.977   8.451 -0.3224  0.2097 -0.0714
37840SOL    HW118205   6.343  10.946   8.381  1.2299  2.1435  0.2425
37840SOL    HW218206   6.340  10.976   8.529 -1.0628  0.9728  0.4732
37841SOL     OW18207   7.805   5.409   5.495 -0.0922 -0.0590 -0.0674
37841SOL    HW118208   7.804   5.315   5.478 -0.8312 -0.0988  0.1661
37841SOL    HW218209   7.828   5.416   5.588  2.0107  0.0876 -0.5336
37842SOL     OW18210   3.366  11.151   5.843  0.4116 -0.3303  0.7426
37842SOL    HW118211   3.313  11.075   5.822 -0.5772  0.8601 -1.4275
37842SOL    HW218212   3.410  11.128   5.925 -0.3871 -2.9143  0.5373
37843SOL     OW18213   0.599   9.944   1.658  0.2099 -0.1162  0.1846
37843SOL    HW118214   0.544   9.938   1.737 -2.0187  0.8829 -1.1996
37843SOL    HW218215   0.655  10.020   1.674  0.0452 -0.1502  0.9556
37844SOL     OW18216   3.740   4.025   7.045 -0.1150  0.3009 -0.5239
37844SOL    HW118217   3.809   4.039   6.980 -0.9586 -0.3971 -1.6011
37844SOL    HW218218   3.780   3.971   7.113  1.2298  2.2875  0.3590
37845SOL     OW18219   1.522   6.794   1.867 -0.0502 -0.2142 -0.4197
37845SOL    HW118220   1.616   6.798   1.884 -0.1384  1.4938 -0.1292
37845SOL    HW218221   1.485   6.865   1.920 -1.5300 -0.9607 -0.3929
37846SOL     OW18222  11.975   3.818   4.176  0.1911 -0.1369 -0.0817
37846SOL    HW118223  12.046   3.769   4.219 -1.3849 -0.6043  2.1357
37846SOL    HW218224  11.920   3.751   4.137 -0.5308  0.0089  0.6559
37847SOL     OW18225   7.041  11.540   1.224 -0.0620 -0.3185 -0.1564
37847SOL    HW118226   7.044  11.557   1.130 -0.1200 -1.2103 -0.3267
37847SOL    HW218227   7.106  11.471   1.238 -0.0368 -0.1747  0.4617
37848SOL     OW18228   8.755  10.237  11.120  0.0203  0.2517  0.0478
37848SOL    HW118229   8.761  10.183  11.042  0.3854  0.6621 -0.2153
37848SOL    HW218230   8.802  10.317  11.098  1.6664 -0.3104  1.2723
37849SOL     OW18231   5.977  10.659   8.008  0.5688 -0.0567 -0.7126
37849SOL    HW118232   6.059  10.695   8.042 -0.6068  1.9123  0.2349
37849SOL    HW218233   5.911  10.689   8.070 -1.0911 -0.0265 -2.4231
37850SOL     OW18234   3.736   1.954   0.924 -0.0284 -0.2616 -0.0872
37850SOL    HW118235   3.812   1.985   0.973  1.5649 -1.0721 -1.9186
37850SOL    HW218236   3.686   2.033   0.904  1.3321  0.5499 -0.4372
37851SOL     OW18237   6.984   0.669  10.183 -0.2050  0.7084 -0.5772
37851SOL    HW118238   7.012   0.629  10.101 -0.0900  1.3085 -0.8379
37851SOL    HW218239   6.993   0.600  10.248  1.4359  0.7248 -0.7318
37852SOL     OW18240   7.043   6.249   8.126 -0.2612 -0.2845  0.1371
37852SOL    HW118241   7.099   6.314   8.167  0.7502 -0.2530 -1.2450
37852SOL    HW218242   7.098   6.171   8.117 -0.7947 -0.6320 -0.2081
37853SOL     OW18243  10.982   7.155   5.818 -0.3652  0.6757  0.9058
37853SOL    HW118244  10.963   7.108   5.736  0.5260  0.8508  0.5918
37853SOL    HW218245  10.896   7.187   5.847 -0.8942 -0.5384  0.7575
37854SOL     OW18246   2.073   4.316   1.275 -0.3165  0.1542  0.1604
37854SOL    HW118247   2.145   4.328   1.214 -0.2859 -0.3750  0.0883
37854SOL    HW218248   2.006   4.270   1.225  0.1954 -1.4114  0.8573
37855SOL     OW18249   4.645   3.805   0.728 -0.3067  0.6935 -0.4366
37855SOL    HW118250   4.729   3.827   0.768 -0.2012  0.3450 -0.4636
37855SOL    HW218251   4.634   3.711   0.746 -1.8576  1.2219  1.7581
37856SOL     OW18252   7.888  11.916   0.262  0.1158  0.2520  0.7412
37856SOL    HW118253   7.936  11.965   0.196  1.4367 -1.6848  0.1461
37856SOL    HW218254   7.797  11.941   0.250  0.3629  0.2946 -1.5430
37857SOL     OW18255   9.075   9.898  10.663 -0.0961  0.0060  0.2258
37857SOL    HW118256   9.153   9.944  10.634 -0.0936  0.3746  0.8117
37857SOL    HW218257   9.013   9.908  10.590  0.4949 -0.5435 -0.3656
37858SOL     OW18258   2.170   5.952   0.058 -0.1030 -0.3933 -0.4644
37858SOL    HW118259   2.191   5.859   0.071 -0.1529 -0.5388 -1.3457
37858SOL    HW218260   2.194   5.994   0.140 -0.4153 -1.2460  0.0650
37859SOL     OW18261   4.125  10.280  11.874  0.1830 -0.1763 -0.1742
37859SOL    HW118262   4.214  10.316  11.874  1.0225 -2.1074  0.4441
37859SOL    HW218263   4.069  10.353  11.898  1.6803  0.9225  0.1008
37860SOL     OW18264   8.235   8.384   4.396  0.8516 -0.4775 -0.0476
37860SOL    HW118265   8.289   8.311   4.426 -0.3395 -1.0494  0.8271
37860SOL    HW218266   8.252   8.391   4.303  2.6479 -0.4279  0.2561
37861SOL     OW18267  11.072   5.545   9.917 -0.6539 -0.6126 -0.0760
37861SOL    HW118268  11.071   5.617   9.980 -1.3439 -0.8036  0.1345
37861SOL    HW218269  11.006   5.484   9.949 -0.4165 -1.1130 -0.5235
37862SOL     OW18270   3.279  11.921   5.552 -0.3390  0.3081  0.1429
37862SOL    HW118271   3.361  11.877   5.532  0.4765  2.5327 -1.8656
37862SOL    HW218272   3.277  11.926   5.648  0.9674 -1.3169  0.3025
37863SOL     OW18273   5.347   7.558   5.429 -0.2178 -0.6132  0.6250
37863SOL    HW118274   5.315   7.571   5.340  2.0592  2.3509  0.0703
37863SOL    HW218275   5.427   7.505   5.419  1.1252  1.3080  0.5450
37864SOL     OW18276   7.715   5.116   5.887 -0.2984  0.0940  0.2740
37864SOL    HW118277   7.669   5.067   5.819  0.2726 -1.6812  1.1004
37864SOL    HW218278   7.786   5.058   5.915  0.1939  1.2537  1.5662
37865SOL     OW18279   1.130   8.020   2.060  0.3315  0.0266  0.4044
37865SOL    HW118280   1.041   8.030   2.092  0.8117 -1.0144  2.1992
37865SOL    HW218281   1.165   8.110   2.058 -0.5757  0.3832  0.1711
37866SOL     OW18282   9.665   8.222   2.216 -0.4930  0.2705 -0.3708
37866SOL    HW118283   9.599   8.225   2.286 -1.4064  0.8582 -1.2236
37866SOL    HW218284   9.721   8.148   2.239 -1.2996 -0.0821  0.5256
37867SOL     OW18285   4.764   6.596   9.746 -0.4185  0.2552  0.4041
37867SOL    HW118286   4.786   6.610   9.838  2.2296 -2.7799  0.3833
37867SOL    HW218287   4.845   6.615   9.698 -0.9937 -0.6526 -1.0106
37868SOL     OW18288   5.007   9.094   6.167 -0.0918 -0.4693  0.5894
37868SOL    HW118289   5.100   9.073   6.159 -0.1281 -0.9318  1.3284
37868SOL    HW218290   4.972   9.080   6.079  0.4287 -0.8252  0.4324
37869SOL     OW18291  11.691   3.390   7.294 -0.1028  0.3972  0.4039
37869SOL    HW118292  11.609   3.413   7.250 -0.1684 -0.4455  0.0583
37869SOL    HW218293  11.735   3.331   7.233  0.5916  0.5425  0.7526
37870SOL     OW18294  10.670   7.783   8.324  0.0444  0.2252  0.1621
37870SOL    HW118295  10.609   7.763   8.253 -1.3936  0.1080  1.3836
37870SOL    HW218296  10.624   7.847   8.378  1.3111  0.6843  0.7459
37871SOL     OW18297  10.910   8.783   1.348  0.0011 -0.4069  0.1299
37871SOL    HW118298  10.994   8.823   1.369  0.0960 -1.2219  1.3800
37871SOL    HW218299  10.847   8.826   1.405 -0.1076 -1.1136  0.5593
37872SOL     OW18300   2.369  11.503   9.485  0.0759 -0.4961  0.6049
37872SOL    HW118301   2.457  11.528   9.511 -0.4415  1.4982  0.6404
37872SOL    HW218302   2.315  11.579   9.507 -1.5358 -1.4060 -0.0166
37873SOL     OW18303   0.359  11.095   2.565  0.0143  0.3291 -0.2448
37873SOL    HW118304   0.335  11.031   2.632 -0.0104  0.4574 -0.1307
37873SOL    HW218305   0.449  11.073   2.541 -0.0326  0.1849 -0.2825
37874SOL     OW18306   3.598  10.589   2.149 -0.7168 -0.2115  0.2468
37874SOL    HW118307   3.508  10.582   2.182 -1.1783 -3.2494 -1.2268
37874SOL    HW218308   3.588  10.616   2.057 -0.3350 -2.1397 -0.4123
37875SOL     OW18309   8.211   0.298   0.963 -0.3791  0.1140 -0.4826
37875SOL    HW118310   8.144   0.234   0.986 -0.5248  0.8110  1.1560
37875SOL    HW218311   8.207   0.363   1.032  0.0238  1.7170 -1.9104
37876SOL     OW18312   3.812   0.400   7.041  0.0842 -0.1581 -0.1412
37876SOL    HW118313   3.895   0.414   7.088  0.7642  0.1005 -1.3758
37876SOL    HW218314   3.763   0.480   7.055  0.3961  0.0277 -0.0898
37877SOL     OW18315   2.010   7.323   1.543 -0.0478 -0.4343  0.2238
37877SOL    HW118316   1.988   7.416   1.544  1.2492 -0.0339 -1.4447
37877SOL    HW218317   2.098   7.319   1.580 -0.0431 -0.9784  0.1628
37878SOL     OW18318   2.364  10.811   9.562  0.1167 -0.0844  0.1838
37878SOL    HW118319   2.383  10.782   9.472  2.4337  0.6345  0.3614
37878SOL    HW218320   2.302  10.746   9.595  1.0850 -1.7999 -1.1530
37879SOL     OW18321  10.652   7.240   9.276 -0.7270  0.2160 -0.0068
37879SOL    HW118322  10.572   7.224   9.325 -0.5905 -1.2681 -0.2147
37879SOL    HW218323  10.667   7.334   9.283 -1.9716  0.3666  0.8182
37880SOL     OW18324   1.154   2.360   1.487  0.1178 -0.2349 -0.2675
37880SOL    HW118325   1.206   2.373   1.565  0.0006  0.3928 -0.2906
37880SOL    HW218326   1.217   2.332   1.420  0.3798  0.2682 -0.2288
37881SOL     OW18327   2.639   4.363  11.287 -0.1084  0.5195 -0.6045
37881SOL    HW118328   2.601   4.439  11.330  0.7349  0.5592  0.0954
37881SOL    HW218329   2.621   4.377  11.194 -2.4149  0.1699 -0.2716
37882SOL     OW18330   4.396   3.038   7.390  0.3944  0.1934 -0.4909
37882SOL    HW118331   4.395   3.133   7.399 -0.8608  0.0763  1.0207
37882SOL    HW218332   4.446   3.007   7.465  0.7840 -0.3478 -0.9657
37883SOL     OW18333   6.958   0.142  10.356  0.0200 -0.1816  0.1502
37883SOL    HW118334   7.034   0.099  10.315  0.4466  0.2523  0.4783
37883SOL    HW218335   6.993   0.184  10.434 -0.1281  1.7977 -0.7952
37884SOL     OW18336   2.838   8.897   1.403  0.4394  0.0892 -0.6562
37884SOL    HW118337   2.820   8.883   1.496 -0.0112  0.7404 -0.6378
37884SOL    HW218338   2.768   8.956   1.374 -1.0590 -2.1736 -2.0333
37885SOL     OW18339   1.437   0.151   8.249  0.1203  0.0096  0.3602
37885SOL    HW118340   1.447   0.059   8.223 -2.0359 -0.0193 -0.6182
37885SOL    HW218341   1.469   0.201   8.174  1.4462  0.0833  0.9579
37886SOL     OW18342   9.396   6.484   0.799 -0.4756  0.3199  0.3968
37886SOL    HW118343   9.392   6.580   0.801 -1.6906  0.2860  0.5271
37886SOL    HW218344   9.306   6.457   0.782 -0.5996 -0.8477  2.5702
37887SOL     OW18345   0.058  10.595  11.086 -0.3430 -0.6403 -0.1270
37887SOL    HW118346  -0.030  10.621  11.057 -0.0635 -0.3228 -0.7047
37887SOL    HW218347   0.113  10.671  11.068  0.4089 -1.4745 -1.4905
37888SOL     OW18348   0.613   1.317  11.459  0.6327  0.3376  0.4758
37888SOL    HW118349   0.606   1.267  11.378 -3.1179 -1.2712  1.6112
37888SOL    HW218350   0.572   1.401  11.439 -0.2887 -0.0576  0.6820
37889SOL     OW18351   7.329   7.219   3.508  0.2228  0.3470 -0.0922
37889SOL    HW118352   7.377   7.289   3.553  0.9539  0.5265 -1.1071
37889SOL    HW218353   7.387   7.194   3.435 -1.1913  0.5143 -1.3150
37890SOL     OW18354   7.333  10.694   6.317  0.0834 -0.0968  0.5591
37890SOL    HW118355   7.257  10.750   6.304 -0.4187 -1.1490 -1.5628
37890SOL    HW218356   7.403  10.736   6.268 -0.0615 -0.8181 -0.3008
37891SOL     OW18357  11.611   8.728   3.340 -0.0223 -0.3559  0.4732
37891SOL    HW118358  11.664   8.789   3.289  0.5500 -0.8660  0.4456
37891SOL    HW218359  11.635   8.642   3.307  0.2241 -0.6907  1.4688
37892SOL     OW18360   8.086   2.907  10.192 -0.1417 -0.2709 -0.0723
37892SOL    HW118361   8.181   2.895  10.199 -0.1004 -0.6566 -1.1947
37892SOL    HW218362   8.075   3.000  10.171  0.1047 -0.5704 -1.6659
37893SOL     OW18363   1.601   6.764   3.810 -0.1682  0.1247  0.5922
37893SOL    HW118364   1.608   6.728   3.898 -0.4719  0.2020  0.6501
37893SOL    HW218365   1.691   6.761   3.775 -0.1161 -0.2743  0.7542
37894SOL     OW18366   3.869   0.690   9.466 -0.2047  0.6228  0.5013
37894SOL    HW118367   3.838   0.771   9.425 -0.3394  0.2174 -0.2322
37894SOL    HW218368   3.875   0.710   9.559 -1.8422  0.9906  0.5645
37895SOL     OW18369   2.590   1.594   4.560 -0.1258  0.1480  0.1839
37895SOL    HW118370   2.649   1.531   4.519 -0.2245 -0.7935  1.4043
37895SOL    HW218371   2.642   1.673   4.571  0.7059 -0.4525  0.6368
37896SOL     OW18372   2.846   9.816   6.561  0.1972  0.0691  0.0900
37896SOL    HW118373   2.818   9.902   6.529 -0.0406  0.0686  0.2976
37896SOL    HW218374   2.892   9.836   6.643  1.4424  0.1468 -0.5850
37897SOL     OW18375  11.686   7.680   7.111  0.7733 -0.1138 -0.1109
37897SOL    HW118376  11.778   7.672   7.085  1.3074 -0.4657  1.7448
37897SOL    HW218377  11.661   7.592   7.137 -0.5898 -0.3455 -1.9614
37898SOL     OW18378   1.720   1.104   0.110 -0.6035  0.1819 -0.0390
37898SOL    HW118379   1.676   1.153   0.179 -1.1356  0.3284 -0.4703
37898SOL    HW218380   1.744   1.020   0.150  1.2770  1.1658  1.0185
37899SOL     OW18381   2.545   5.283   7.868 -0.0604 -0.1221 -0.4088
37899SOL    HW118382   2.601   5.232   7.809  1.4045  0.9735 -0.0233
37899SOL    HW218383   2.505   5.349   7.811  0.1907  0.0076 -0.4370
37900SOL     OW18384   3.524   4.356   9.746  0.2706  0.1753  0.2423
37900SOL    HW118385   3.439   4.333   9.783  0.2406 -0.6791 -0.3351
37900SOL    HW218386   3.513   4.344   9.652  0.8352  0.7341  0.0980
37901SOL     OW18387   8.689   5.104   6.058  0.5939 -0.2509 -0.3704
37901SOL    HW118388   8.771   5.103   6.007 -0.1403 -0.5557 -1.5753
37901SOL    HW218389   8.635   5.036   6.018 -0.2561 -0.0641  0.4269
37902SOL     OW18390   2.453   5.552  10.858  0.6540  0.1808 -0.2833
37902SOL    HW118391   2.419   5.575  10.772  1.3734 -0.8736 -0.8704
37902SOL    HW218392   2.440   5.631  10.911 -1.1260  0.3694 -0.9285
37903SOL     OW18393   5.281   9.174   7.567 -0.4708 -0.5631 -0.1782
37903SOL    HW118394   5.223   9.216   7.631 -1.0378 -0.5803 -0.6742
37903SOL    HW218395   5.284   9.082   7.593 -0.2208 -0.4513  0.1804
37904SOL     OW18396  11.004   6.080   0.314 -0.8310 -0.1176  0.3193
37904SOL    HW118397  10.921   6.120   0.289 -0.4866 -0.3081 -1.2538
37904SOL    HW218398  11.040   6.137   0.382 -2.1243  0.0830  0.8653
37905SOL     OW18399   5.094   1.407   2.731  0.3415 -0.4580 -0.6004
37905SOL    HW118400   5.158   1.462   2.775 -1.0365 -0.8437  2.1424
37905SOL    HW218401   5.029   1.468   2.697 -0.7073 -0.2036  1.6431
37906SOL     OW18402   7.413   7.660   1.975  0.5308  0.2435 -0.3399
37906SOL    HW118403   7.424   7.631   1.884  1.2226 -0.0355 -0.1757
37906SOL    HW218404   7.320   7.648   1.993  0.7906 -1.9850 -0.2470
37907SOL     OW18405  10.678   4.785   7.651 -0.2364 -0.3345 -0.3555
37907SOL    HW118406  10.610   4.717   7.651 -0.7869  0.1030  1.9904
37907SOL    HW218407  10.760   4.736   7.656 -0.6714 -1.0200  3.2537
37908SOL     OW18408   0.578   9.355   6.407  0.3544 -0.3038  0.1876
37908SOL    HW118409   0.546   9.301   6.479 -0.4629 -1.3241 -0.9046
37908SOL    HW218410   0.498   9.384   6.362  0.7810  1.5308  0.5076
37909SOL     OW18411   6.873  10.874   9.360 -0.2521 -0.0068 -0.3462
37909SOL    HW118412   6.952  10.920   9.332  0.5735 -0.5850  0.9527
37909SOL    HW218413   6.811  10.944   9.382  0.2301  0.4662 -0.4682
37910SOL     OW18414  10.567  11.697   5.683 -0.3896 -0.4932  0.3279
37910SOL    HW118415  10.660  11.718   5.671 -0.3610 -0.6472  0.2786
37910SOL    HW218416  10.561  11.671   5.775 -0.3060 -0.8741  0.2296
37911SOL     OW18417  10.459  10.916   2.638 -0.1730  0.1527  0.0427
37911SOL    HW118418  10.407  10.937   2.715 -1.1177 -0.1992 -0.4905
37911SOL    HW218419  10.409  10.950   2.564  0.3255 -0.2340 -0.4907
37912SOL     OW18420   2.790   8.850   0.750  0.3861  0.2057 -0.0421
37912SOL    HW118421   2.715   8.878   0.697 -0.9005 -0.5524  1.3151
37912SOL    HW218422   2.848   8.807   0.688 -1.4747 -1.4279 -0.7482
37913SOL     OW18423   0.365   8.594  10.704  0.3403 -0.6986 -0.0877
37913SOL    HW118424   0.443   8.625  10.659 -1.0704  0.8702 -1.6393
37913SOL    HW218425   0.334   8.520  10.653  0.4434 -0.8805  0.1143
37914SOL     OW18426  11.728   8.649  10.596 -0.0173  0.3376  0.6676
37914SOL    HW118427  11.683   8.581  10.647 -0.6765  0.8207  0.7358
37914SOL    HW218428  11.762   8.603  10.519  0.3951 -0.2619  1.1964
37915SOL     OW18429  10.521   5.197   4.910 -0.1956  0.7788  0.6787
37915SOL    HW118430  10.479   5.163   4.831  0.1571 -0.6731  1.0987
37915SOL    HW218431  10.471   5.160   4.982  1.1990 -0.2280  1.1714
37916SOL     OW18432  10.688   3.648   2.567  0.1285  0.1527 -0.2618
37916SOL    HW118433  10.743   3.612   2.637 -0.1989  1.0097  0.4614
37916SOL    HW218434  10.651   3.571   2.523  0.1367 -0.4013  0.6749
37917SOL     OW18435   5.117   4.348   3.971  0.1873 -0.0693  0.1339
37917SOL    HW118436   5.188   4.318   3.914 -0.0231  1.7666 -1.1789
37917SOL    HW218437   5.074   4.268   4.000  2.0236 -1.1740 -0.0218
37918SOL     OW18438   6.879   4.455  11.879  0.3454 -0.4114  0.1790
37918SOL    HW118439   6.969   4.424  11.891  0.1822 -0.5147  1.2457
37918SOL    HW218440   6.840   4.392  11.818  1.1627 -0.0031 -0.8069
37919SOL     OW18441  11.347   2.123   5.423 -0.3042  0.6643 -0.8105
37919SOL    HW118442  11.347   2.214   5.393 -0.3472  0.1542 -2.5177
37919SOL    HW218443  11.260   2.109   5.460 -0.0942  1.4738  0.0019
37920SOL     OW18444   1.293   1.343  11.238  0.1497 -0.4911 -0.2697
37920SOL    HW118445   1.333   1.257  11.227 -0.3921 -1.0317  1.6618
37920SOL    HW218446   1.211   1.326  11.284 -0.0551  1.0447  0.0051
37921SOL     OW18447   8.723   8.504   1.943  0.0716  0.8281  0.3423
37921SOL    HW118448   8.740   8.458   2.025 -1.2247  0.7289  0.5809
37921SOL    HW218449   8.806   8.502   1.896  0.7488  0.6136  1.5165
37922SOL     OW18450   0.640   6.440   2.901 -0.2231  0.5925 -0.1919
37922SOL    HW118451   0.656   6.351   2.932 -0.3906  0.4081 -0.6276
37922SOL    HW218452   0.547   6.455   2.917  0.0617  1.1349  1.0002
37923SOL     OW18453   5.104   2.537   0.074 -0.0254  0.3973 -0.2415
37923SOL    HW118454   5.162   2.488   0.133 -0.1081  0.0500 -0.4451
37923SOL    HW218455   5.072   2.610   0.127  0.3031  0.3788 -0.0128
37924SOL     OW18456  10.932   0.778   2.229 -0.4959  0.0487  0.4781
37924SOL    HW118457  10.884   0.846   2.183  0.8215 -0.1325 -1.2644
37924SOL    HW218458  10.891   0.696   2.201  0.4978 -0.0818 -0.7229
37925SOL     OW18459   6.073   7.893   4.755  0.1778 -0.9122  0.1928
37925SOL    HW118460   6.083   7.913   4.662 -1.1428 -0.7001  0.0657
37925SOL    HW218461   6.160   7.868   4.784  0.2491 -3.0458 -1.5872
37926SOL     OW18462  11.698   4.828  11.080 -0.0333 -0.4596 -1.0763
37926SOL    HW118463  11.621   4.771  11.083 -0.2326 -0.1562  0.9843
37926SOL    HW218464  11.667   4.912  11.116  0.8987  0.1403 -1.6267
37927SOL     OW18465   8.414   7.308   8.904  0.3234  0.3982 -0.1836
37927SOL    HW118466   8.341   7.352   8.861 -0.0291  0.7491  0.7531
37927SOL    HW218467   8.379   7.280   8.989  1.3419  0.8237  0.3968
37928SOL     OW18468   5.525  11.612  10.949  0.4494 -0.3778  0.1134
37928SOL    HW118469   5.553  11.673  11.017 -0.4042 -0.8198  0.8827
37928SOL    HW218470   5.575  11.639  10.871 -0.3247  1.6848  0.2584
37929SOL     OW18471  10.449   3.041   0.498 -0.3257 -0.2401  0.5881
37929SOL    HW118472  10.425   3.015   0.587 -2.4324 -0.0898  0.1146
37929SOL    HW218473  10.487   2.962   0.459 -2.3811 -1.3230  0.6294
37930SOL     OW18474   3.667   4.024  10.483 -0.0561  0.1863 -0.5574
37930SOL    HW118475   3.724   4.034  10.406  0.0457 -0.0470 -0.5114
37930SOL    HW218476   3.638   4.113  10.502  2.1523  0.6846  0.8553
37931SOL     OW18477   4.198   3.809  11.168  0.1426 -0.0483 -0.7346
37931SOL    HW118478   4.213   3.719  11.194  1.6975  0.9519  2.2876
37931SOL    HW218479   4.102   3.819  11.173  0.1132 -0.8410  1.7697
37932SOL     OW18480   7.656   7.500   7.620 -0.0318  0.0834 -0.1588
37932SOL    HW118481   7.696   7.421   7.654  1.5544  0.8263 -0.2009
37932SOL    HW218482   7.722   7.537   7.562 -1.9345 -0.1971 -2.6881
37933SOL     OW18483  11.601  10.610   7.116 -0.8990  0.0590  0.1801
37933SOL    HW118484  11.662  10.677   7.083  0.2997 -0.1817  1.7790
37933SOL    HW218485  11.515  10.642   7.090 -0.1875  0.9625 -1.2367
37934SOL     OW18486   9.463   7.516  11.239 -0.1091 -0.3845 -0.1576
37934SOL    HW118487   9.558   7.523  11.252 -0.2332  0.9214  0.1849
37934SOL    HW218488   9.431   7.475  11.320  0.0164  0.4460  0.3218
37935SOL     OW18489   0.919  10.770   7.389  0.1905  0.1489 -0.2296
37935SOL    HW118490   0.919  10.713   7.466  0.4137  0.4001 -0.0397
37935SOL    HW218491   0.840  10.745   7.341 -0.3612  0.5077  0.4688
37936SOL     OW18492   3.113  10.889  11.391  0.1011 -0.0218 -0.0328
37936SOL    HW118493   3.080  10.977  11.371  0.9025  0.0502 -1.1614
37936SOL    HW218494   3.066  10.831  11.331 -1.5506 -0.6208  1.7441
37937SOL     OW18495   2.585   4.233   9.960 -0.6421  0.0757 -0.4221
37937SOL    HW118496   2.592   4.147   9.919  1.8195 -0.6329  1.2524
37937SOL    HW218497   2.500   4.233  10.003 -0.4534 -1.7687  0.0220
37938SOL     OW18498   5.893   6.200   5.091 -0.4538  0.0045  0.0315
37938SOL    HW118499   5.913   6.215   5.183 -0.2188 -0.8900  0.1378
37938SOL    HW218500   5.970   6.154   5.056 -0.9724 -0.6132 -0.3416
37939SOL     OW18501   7.911  11.186  11.038  0.1469  0.1038  0.0073
37939SOL    HW118502   7.964  11.108  11.022  0.3756 -0.4892  3.0120
37939SOL    HW218503   7.974  11.250  11.073 -0.4364  0.8622 -0.2938
37940SOL     OW18504   0.212   9.917   2.730  0.3864  0.3108  0.0722
37940SOL    HW118505   0.261   9.840   2.759 -1.2704 -0.6045  0.6106
37940SOL    HW218506   0.225   9.920   2.636  0.1698 -0.8742 -0.0104
37941SOL     OW18507   4.109   1.977  10.440 -0.1875  0.1952  0.0184
37941SOL    HW118508   4.029   1.996  10.489 -0.9298 -1.7139 -0.3510
37941SOL    HW218509   4.153   1.909  10.491  2.0923  2.2923  1.0604
37942SOL     OW18510   7.641   0.248   0.408 -0.2195 -0.0447 -0.6894
37942SOL    HW118511   7.639   0.286   0.496 -0.2126  2.0583 -1.5415
37942SOL    HW218512   7.733   0.237   0.388 -0.0671  1.9021 -1.3430
37943SOL     OW18513   1.640  10.566   6.231  0.1782 -0.1383 -0.5371
37943SOL    HW118514   1.570  10.516   6.272  1.2903 -0.8668  0.5249
37943SOL    HW218515   1.720  10.520   6.255  1.2683  2.1415  0.5082
37944SOL     OW18516   5.903   8.847   8.717 -0.5392 -0.6435 -0.3736
37944SOL    HW118517   5.892   8.936   8.752 -0.0617 -0.8243  0.2422
37944SOL    HW218518   5.829   8.836   8.657 -0.5550  0.2007 -0.5261
37945SOL     OW18519  11.262   9.236   3.898 -0.2948 -0.0276  0.8175
37945SOL    HW118520  11.271   9.271   3.810  0.0424  0.2468  0.9588
37945SOL    HW218521  11.235   9.145   3.885  0.6987 -0.2750  0.4126
37946SOL     OW18522   9.647  10.756   4.277 -0.0903 -0.4827 -0.4567
37946SOL    HW118523   9.553  10.776   4.284  0.1377  0.5397 -0.1128
37946SOL    HW218524   9.656  10.715   4.191 -0.9211 -1.0034 -0.3032
37947SOL     OW18525   6.305   8.392  11.737  0.4666  0.2074  0.0995
37947SOL    HW118526   6.364   8.413  11.809  0.6691 -0.1864  0.0526
37947SOL    HW218527   6.255   8.316  11.768 -0.1795  0.6761  0.2310
37948SOL     OW18528   3.992   6.691   8.768 -0.4828 -0.5671  0.0367
37948SOL    HW118529   3.944   6.650   8.840 -0.4285 -0.2676  0.2417
37948SOL    HW218530   3.938   6.767   8.743  1.1287  1.3406  1.9799
37949SOL     OW18531   9.346   4.122   4.782 -0.4662 -0.5413  0.4426
37949SOL    HW118532   9.407   4.195   4.771 -1.1063 -0.0586  0.0093
37949SOL    HW218533   9.396   4.044   4.756  0.4318 -0.3582  1.5340
37950SOL     OW18534   2.128   9.173   9.388 -0.0628  0.2087  0.8382
37950SOL    HW118535   2.085   9.176   9.302 -1.0074 -0.0045  1.2844
37950SOL    HW218536   2.207   9.121   9.373  0.5384  1.3706 -0.2074
37951SOL     OW18537   7.599  11.926   8.524 -0.4032  0.1796 -0.2471
37951SOL    HW118538   7.574  11.837   8.550 -0.1538 -0.2620 -1.4342
37951SOL    HW218539   7.520  11.978   8.538 -1.3811 -0.7559 -1.9077
37952SOL     OW18540  10.716   7.969   8.670 -0.3979  0.4850  0.4841
37952SOL    HW118541  10.640   7.946   8.616  0.5072 -0.2249 -0.5510
37952SOL    HW218542  10.681   8.024   8.739 -2.1909 -1.3966  1.1768
37953SOL     OW18543   5.221   6.529   6.367  0.4756  0.4724 -0.1521
37953SOL    HW118544   5.165   6.606   6.371  0.3983  0.4345 -0.5028
37953SOL    HW218545   5.161   6.457   6.347  0.8167  0.6257 -1.8570
37954SOL     OW18546  10.661  11.231   5.141 -0.2393 -0.2010  0.2643
37954SOL    HW118547  10.616  11.221   5.057 -1.0193  1.2352  0.4805
37954SOL    HW218548  10.715  11.309   5.130 -2.6710  1.8879  1.9956
37955SOL     OW18549  10.414   6.514   6.019  0.1631 -0.0823 -0.5637
37955SOL    HW118550  10.489   6.495   6.076 -0.0097 -0.1523 -0.3620
37955SOL    HW218551  10.341   6.468   6.059  0.3618 -1.4947 -1.7168
37956SOL     OW18552   7.414   2.269   9.690 -0.4427 -0.1370  0.0822
37956SOL    HW118553   7.377   2.181   9.693 -0.9102 -0.0504 -1.7809
37956SOL    HW218554   7.378   2.307   9.610  2.9989  0.2670 -1.4182
37957SOL     OW18555   7.085   6.188   4.770 -0.0351  0.3210 -0.8001
37957SOL    HW118556   7.100   6.176   4.676  1.2240  1.2712 -0.7469
37957SOL    HW218557   6.993   6.168   4.782 -0.0722 -0.4421 -2.1330
37958SOL     OW18558   1.868   8.256   9.168 -0.0251 -0.1496  0.6523
37958SOL    HW118559   1.915   8.340   9.172  2.9970 -1.6615 -0.0823
37958SOL    HW218560   1.852   8.233   9.259 -0.5805  1.0185  0.8756
37959SOL     OW18561  11.860   5.307   7.640 -0.2092 -0.0008 -0.5893
37959SOL    HW118562  11.849   5.399   7.618 -0.4890 -0.2845 -1.6971
37959SOL    HW218563  11.955   5.296   7.652 -0.2764  0.6706  0.7634
37960SOL     OW18564   4.249   8.851   4.819  0.2385 -0.2247 -0.1370
37960SOL    HW118565   4.187   8.788   4.780  0.2596 -0.4078  0.1217
37960SOL    HW218566   4.310   8.872   4.748  0.7661 -1.1773  0.0197
37961SOL     OW18567   2.688   7.398   5.562 -0.1240  0.7656 -0.4933
37961SOL    HW118568   2.639   7.463   5.612 -1.7548 -0.5802 -0.2320
37961SOL    HW218569   2.739   7.449   5.499 -0.4013  2.3277  0.4886
37962SOL     OW18570   2.310   5.580  11.919  0.2740  0.6713  0.2534
37962SOL    HW118571   2.296   5.595  12.013  3.1114  3.3511  0.4169
37962SOL    HW218572   2.232   5.616  11.877  0.1222  1.9367  1.5240
37963SOL     OW18573   5.765   3.823   1.158  0.4348  0.1247 -0.2065
37963SOL    HW118574   5.806   3.738   1.169  1.1328  0.3710 -0.8432
37963SOL    HW218575   5.692   3.807   1.099  1.0083  0.0912 -0.9182
37964SOL     OW18576   0.506   2.022  10.410 -0.1185  0.2727 -0.0349
37964SOL    HW118577   0.525   2.089  10.344  0.3017  0.5099  0.3238
37964SOL    HW218578   0.560   2.046  10.485  0.9823 -1.1317 -0.3209
37965SOL     OW18579   1.333  11.044   5.271 -0.0918  0.2386 -0.0200
37965SOL    HW118580   1.245  11.074   5.252 -0.3832 -1.0371 -0.8203
37965SOL    HW218581   1.323  10.988   5.348  0.2952  1.3642  0.8771
37966SOL     OW18582  11.395   5.559   9.901 -0.1896  0.3584 -0.4491
37966SOL    HW118583  11.455   5.629   9.929  0.9462 -0.6290 -0.3318
37966SOL    HW218584  11.359   5.590   9.818  1.3139  0.5226 -1.0617
37967SOL     OW18585   0.640   2.996   6.584 -0.4369  0.4262  0.3192
37967SOL    HW118586   0.635   2.905   6.612  3.3960  0.3375  1.3273
37967SOL    HW218587   0.606   2.996   6.495  1.1714 -2.4321 -0.3974
37968SOL     OW18588   0.349   4.849  10.511 -0.0756  0.7108  0.2657
37968SOL    HW118589   0.390   4.766  10.533  1.2218  0.9655 -1.0111
37968SOL    HW218590   0.420   4.914  10.521 -1.0997  1.7139  1.4154
37969SOL     OW18591   7.089   5.944   0.674  0.2102  0.1115  0.1434
37969SOL    HW118592   7.036   6.024   0.672 -1.7822 -1.1286 -1.3588
37969SOL    HW218593   7.169   5.967   0.627 -0.1746  1.3196  0.0492
37970SOL     OW18594   6.924   2.578   6.093  0.2503 -0.5287 -0.3768
37970SOL    HW118595   6.933   2.581   6.188 -1.2767  0.8329 -0.2290
37970SOL    HW218596   7.014   2.571   6.061  0.8471 -0.1922  1.1381
37971SOL     OW18597   6.201   7.840   5.571 -0.0764  0.3080  0.4624
37971SOL    HW118598   6.147   7.865   5.496  1.5723 -1.0673 -1.3048
37971SOL    HW218599   6.285   7.883   5.555  0.6068 -0.8019  0.9611
37972SOL     OW18600  10.453   9.067   9.077 -0.2603  0.6495  0.4635
37972SOL    HW118601  10.461   9.133   9.145  1.7896  0.0174  0.8862
37972SOL    HW218602  10.540   9.060   9.039 -1.2890  0.9082 -2.2086
37973SOL     OW18603   5.503   3.991  10.293  0.3826 -0.0250  0.4235
37973SOL    HW118604   5.534   3.990  10.203  1.0187  0.5650  0.6234
37973SOL    HW218605   5.460   3.906  10.305  0.4592 -0.1829 -0.3703
37974SOL     OW18606   6.177  10.428   7.557 -0.4712  0.3572  0.0328
37974SOL    HW118607   6.104  10.398   7.503 -0.7817 -0.2877  0.7969
37974SOL    HW218608   6.155  10.398   7.646  0.9345 -0.2454  0.1986
37975SOL     OW18609   0.039   0.031   1.409  0.5180 -0.1279  0.4362
37975SOL    HW118610   0.053  -0.045   1.353 -0.4531 -0.2435  0.3283
37975SOL    HW218611   0.044  -0.003   1.498 -0.8026 -0.5206  0.3898
37976SOL     OW18612   6.069   0.749   9.039 -0.3294  0.1480  0.2731
37976SOL    HW118613   6.052   0.742   9.133  0.5476 -0.9410  0.3774
37976SOL    HW218614   5.985   0.727   8.998 -0.3215 -0.9492  0.7985
37977SOL     OW18615   2.177   9.572   2.669 -0.5430 -0.2097 -0.1020
37977SOL    HW118616   2.133   9.624   2.736  0.9066  2.1052 -0.8257
37977SOL    HW218617   2.149   9.610   2.586  1.7909  0.5947 -0.6138
37978SOL     OW18618  10.664   6.833  10.787 -0.0420  0.3100 -0.7312
37978SOL    HW118619  10.607   6.856  10.714 -1.6748 -1.0902  0.0402
37978SOL    HW218620  10.712   6.756  10.757  1.4480  1.4350 -1.3463
37979SOL     OW18621  10.251   2.201   1.442 -0.2993  0.2462 -0.2142
37979SOL    HW118622  10.223   2.183   1.352 -1.3232  0.6138  0.0258
37979SOL    HW218623  10.269   2.115   1.479  3.1589  0.1688 -1.6812
37980SOL     OW18624   2.726   0.696   7.900 -0.1473  0.1930 -0.1691
37980SOL    HW118625   2.743   0.631   7.832 -2.0890  0.1706 -0.6725
37980SOL    HW218626   2.738   0.648   7.982 -1.3766 -0.7747 -0.5300
37981SOL     OW18627  11.621   8.973   5.228  0.6684  0.1775  0.1956
37981SOL    HW118628  11.550   8.935   5.280  0.1056  0.8512 -0.0662
37981SOL    HW218629  11.650   9.049   5.278  3.1010 -1.5815  1.6970
37982SOL     OW18630   6.289  10.657   6.258 -0.3866 -0.4710  0.1348
37982SOL    HW118631   6.204  10.625   6.227  0.0275  0.6148 -2.3637
37982SOL    HW218632   6.321  10.711   6.187  3.3886 -2.4996  0.0670
37983SOL     OW18633   6.524   2.097   9.020  0.3614  0.3719  0.2768
37983SOL    HW118634   6.508   2.068   8.930  0.8569  0.0012  0.3019
37983SOL    HW218635   6.520   2.192   9.016 -1.4079  0.3215  0.2106
37984SOL     OW18636   9.553   0.759   9.041 -0.2063 -0.1832 -0.5324
37984SOL    HW118637   9.498   0.726   9.111  0.7072 -1.0443 -0.2041
37984SOL    HW218638   9.608   0.825   9.082  2.4206 -2.7236  0.3463
37985SOL     OW18639   9.566   1.265  11.355 -0.3073  0.2225  0.6521
37985SOL    HW118640   9.581   1.347  11.308  0.5611 -0.6287 -0.6126
37985SOL    HW218641   9.540   1.293  11.443 -0.2936  1.8490  0.1767
37986SOL     OW18642  11.060  11.811   8.751 -0.0658  0.1444  0.2503
37986SOL    HW118643  11.049  11.895   8.707  1.8224 -0.7944 -2.3117
37986SOL    HW218644  10.992  11.755   8.713 -0.3191  0.1007  0.7639
37987SOL     OW18645  10.462  11.800   0.786 -0.8965  0.1040  0.1111
37987SOL    HW118646  10.552  11.827   0.801 -0.8929  0.2715 -0.1969
37987SOL    HW218647  10.419  11.878   0.749 -2.0203  1.1453  3.3215
37988SOL     OW18648   9.733   6.606  11.829 -0.1518  0.1022 -0.5548
37988SOL    HW118649   9.647   6.645  11.816 -0.0758 -0.1118 -1.7800
37988SOL    HW218650   9.719   6.512  11.819  0.2271  0.0679 -0.7885
37989SOL     OW18651   8.992   9.326  11.693  0.4047  0.8358 -0.2984
37989SOL    HW118652   9.032   9.282  11.618  0.4919  1.0123 -0.3543
37989SOL    HW218653   8.948   9.402  11.655  1.5515  1.6597 -0.0064
37990SOL     OW18654  11.563   9.809   6.363 -0.1985 -0.2593  0.2874
37990SOL    HW118655  11.645   9.846   6.396 -0.9477 -0.3127  2.3704
37990SOL    HW218656  11.507   9.885   6.348  0.1860 -0.2251 -1.0966
37991SOL     OW18657   3.123   1.269   2.535 -0.3910 -0.0608 -0.0281
37991SOL    HW118658   3.182   1.326   2.485 -1.3057  1.0718  0.1326
37991SOL    HW218659   3.065   1.330   2.581 -0.3171 -1.0999  1.5138
37992SOL     OW18660   1.388   7.833   5.693 -0.4516 -0.1875  0.2082
37992SOL    HW118661   1.333   7.795   5.624 -0.0761  1.2469 -0.9419
37992SOL    HW218662   1.369   7.781   5.771 -1.6726 -1.2047 -0.7316
37993SOL     OW18663  10.918  11.610   8.621  0.2674 -0.1952  0.1793
37993SOL    HW118664  10.825  11.616   8.639  0.3270 -1.3014  0.9970
37993SOL    HW218665  10.925  11.538   8.558  0.6041 -0.5592  0.6203
37994SOL     OW18666   9.278   3.938   2.635 -0.3406  0.3564 -0.2687
37994SOL    HW118667   9.298   3.983   2.717  0.5271  0.2602 -0.4201
37994SOL    HW218668   9.188   3.907   2.646 -0.3126  0.5478  0.5543
37995SOL     OW18669   7.212   2.595   5.821  0.8118  0.0874  0.1635
37995SOL    HW118670   7.191   2.625   5.909 -0.3205 -2.4828  0.8634
37995SOL    HW218671   7.277   2.526   5.833  1.9579  0.8726 -1.1894
37996SOL     OW18672   7.341   6.201   0.257  0.0495  0.2595 -0.3043
37996SOL    HW118673   7.248   6.181   0.266  0.0965  0.4867  0.7828
37996SOL    HW218674   7.356   6.199   0.163 -0.3412 -2.8881 -0.3853
37997SOL     OW18675   0.412   4.511   3.055  0.5658  0.3438 -0.2633
37997SOL    HW118676   0.471   4.453   3.103 -1.4790 -1.1627  0.5381
37997SOL    HW218677   0.359   4.453   3.001  0.2046  1.7034 -1.4473
37998SOL     OW18678   9.199  11.420   2.485  0.0002 -0.3774 -0.1880
37998SOL    HW118679   9.205  11.363   2.562  1.9395  1.1771  0.8844
37998SOL    HW218680   9.273  11.394   2.430  0.3670  0.4805 -0.1138
37999SOL     OW18681   9.474   1.076   8.136 -0.7446  0.7501 -0.1657
37999SOL    HW118682   9.444   1.132   8.064 -0.3978  0.2011 -0.7487
37999SOL    HW218683   9.427   1.109   8.213 -0.5068  1.8793 -0.4797
38000SOL     OW18684   4.201   0.097   0.869  0.1668  0.0949 -0.9156
38000SOL    HW118685   4.200   0.127   0.778  3.0814 -0.3088 -1.2084
38000SOL    HW218686   4.274   0.145   0.909 -1.9143  1.3237  1.6805
38001SOL     OW18687   9.027   3.872   7.067  0.5176 -0.0229  0.5839
38001SOL    HW118688   8.991   3.828   7.144  0.1463 -0.9316 -0.0985
38001SOL    HW218689   9.115   3.835   7.058  0.5749  0.1117  0.5878
38002SOL     OW18690   8.660   0.789   8.053  0.3092 -0.4342  0.2980
38002SOL    HW118691   8.672   0.880   8.079 -1.0366 -0.2398  0.3249
38002SOL    HW218692   8.724   0.775   7.983 -0.3182  0.9276 -0.5879
38003SOL     OW18693   2.926   7.350   6.171  0.1037 -0.0822  0.0249
38003SOL    HW118694   2.848   7.406   6.166  1.6029  2.1303 -0.0385
38003SOL    HW218695   2.950   7.333   6.080  0.7693  0.8812  0.0059
38004SOL     OW18696   8.791   8.235  10.977  0.3138 -0.1302  0.0558
38004SOL    HW118697   8.741   8.163  11.016 -0.4639  1.0513  1.3325
38004SOL    HW218698   8.879   8.224  11.013  0.1661 -0.3725  0.3560
38005SOL     OW18699   7.753   0.892   9.995  0.2699 -0.3319 -0.0400
38005SOL    HW118700   7.823   0.914  10.056  1.0730  1.0376 -1.3985
38005SOL    HW218701   7.776   0.805   9.962  1.6980  0.3556 -0.9345
38006SOL     OW18702  11.260   1.863   8.776 -0.1923 -0.1988  0.2326
38006SOL    HW118703  11.204   1.915   8.834 -1.0627 -0.0705 -0.6902
38006SOL    HW218704  11.308   1.927   8.724 -0.0228 -0.3088  0.2543
38007SOL     OW18705   7.520   2.007  11.561 -0.1500  0.2100 -0.0248
38007SOL    HW118706   7.580   2.032  11.491 -0.5739  0.0741 -0.4420
38007SOL    HW218707   7.506   1.913  11.547  0.1649  0.0721  0.5533
38008SOL     OW18708   4.904   7.329   1.146 -0.4110 -0.0601 -0.8526
38008SOL    HW118709   4.845   7.376   1.087  0.0039 -0.7104 -1.8071
38008SOL    HW218710   4.907   7.383   1.225  2.3093  3.1474 -2.8931
38009SOL     OW18711   3.999   3.048   3.021  0.6186  0.5655 -0.5444
38009SOL    HW118712   4.001   3.082   3.110 -1.0595 -0.2016 -0.1882
38009SOL    HW218713   4.063   3.101   2.974  0.7989  1.6540  0.8653
38010SOL     OW18714   3.011   5.090   2.733 -0.3808  0.1401 -0.1973
38010SOL    HW118715   3.009   5.164   2.672  1.0421 -0.8415 -1.5009
38010SOL    HW218716   2.955   5.117   2.805  0.3604  2.6106 -0.4797
38011SOL     OW18717   2.490   2.564  11.378  0.1257 -0.0423  0.1268
38011SOL    HW118718   2.528   2.509  11.446 -1.4142 -0.9585  0.3036
38011SOL    HW218719   2.439   2.504  11.323  1.6630  0.5960 -2.1423
38012SOL     OW18720   1.634   4.469   6.948  0.1999 -0.1508 -0.2328
38012SOL    HW118721   1.660   4.380   6.925  1.8597 -0.3081  1.9424
38012SOL    HW218722   1.547   4.479   6.910  0.6408 -2.0694 -1.9743
38013SOL     OW18723  11.403  10.529   9.308  0.1002  0.3292  0.5675
38013SOL    HW118724  11.314  10.497   9.292  0.1727  0.3056  0.2149
38013SOL    HW218725  11.460  10.461   9.273  0.2781 -0.2250  1.8638
38014SOL     OW18726   2.324   4.212   2.501  0.4838  0.3102  0.0373
38014SOL    HW118727   2.320   4.290   2.556  3.4979  1.0228 -0.5498
38014SOL    HW218728   2.256   4.226   2.435 -2.0665  0.2178  2.4634
38015SOL     OW18729  10.165   1.861   9.836  0.8213  0.6746  0.2239
38015SOL    HW118730  10.126   1.812   9.763 -0.9302  0.1400  1.4489
38015SOL    HW218731  10.258   1.840   9.833  0.5606 -0.3885 -1.0484
38016SOL     OW18732   8.468  11.647   4.461 -0.7836 -0.2603 -0.1248
38016SOL    HW118733   8.558  11.674   4.478 -1.1825  0.9164  0.2371
38016SOL    HW218734   8.428  11.639   4.547 -0.9594 -1.0622 -0.2719
38017SOL     OW18735  11.351  10.570   2.713  0.2328  0.0969  0.1757
38017SOL    HW118736  11.358  10.642   2.775 -2.0009  1.6415 -1.2066
38017SOL    HW218737  11.268  10.586   2.667  1.2246 -1.5417 -2.4316
38018SOL     OW18738   3.870   1.307   1.187 -0.2058 -0.1280  0.1204
38018SOL    HW118739   3.921   1.370   1.239 -1.2019  0.8025 -0.0035
38018SOL    HW218740   3.795   1.286   1.242  0.1719 -1.3308  0.2113
38019SOL     OW18741   8.963  11.315   2.717  0.1474 -0.0218  0.2688
38019SOL    HW118742   8.964  11.294   2.810  0.7923 -1.1273  0.0257
38019SOL    HW218743   8.971  11.410   2.714  1.5808 -0.0761  1.3114
38020SOL     OW18744  11.125   4.862   6.806  0.0361  0.2331 -0.4831
38020SOL    HW118745  11.167   4.790   6.759  0.2235  0.2741 -0.3792
38020SOL    HW218746  11.136   4.938   6.748  0.8784  0.4349 -0.0621
38021SOL     OW18747   7.911  10.297  11.279 -0.1764  0.2959 -0.7028
38021SOL    HW118748   7.930  10.291  11.373 -1.6423  1.2106 -0.3068
38021SOL    HW218749   7.995  10.317  11.239  0.5377 -0.4017  0.3712
38022SOL     OW18750   5.415   5.858   6.158  0.3662 -0.3389  0.0591
38022SOL    HW118751   5.446   5.942   6.123 -0.0326 -0.4696 -0.6351
38022SOL    HW218752   5.465   5.845   6.238 -0.5406  1.2402  0.9518
38023SOL     OW18753   7.162   2.157   9.935 -0.3477  0.0284  0.2822
38023SOL    HW118754   7.154   2.080   9.992 -2.0361 -1.1708 -1.4584
38023SOL    HW218755   7.158   2.232   9.995 -1.1747 -1.1824  1.8182
38024SOL     OW18756   0.931   1.709   8.095 -0.3951 -0.5348 -0.6635
38024SOL    HW118757   1.014   1.676   8.061  0.6957 -0.1432  1.4359
38024SOL    HW218758   0.877   1.722   8.018  1.9550  0.4733 -2.2567
38025SOL     OW18759   1.437  11.038   3.457 -0.0737 -0.7196 -0.3371
38025SOL    HW118760   1.403  11.118   3.417  0.8680 -0.5083 -0.7318
38025SOL    HW218761   1.361  10.980   3.463 -0.3084 -0.6643 -2.1928
38026SOL     OW18762   2.701   8.254   2.244  0.2802 -0.1730  0.0684
38026SOL    HW118763   2.778   8.301   2.213 -0.0793  1.2772  1.2822
38026SOL    HW218764   2.635   8.322   2.258 -0.5016 -1.1171  1.2049
38027SOL     OW18765   5.665  10.422   4.146  0.1610  0.3579 -0.0499
38027SOL    HW118766   5.676  10.423   4.051  2.4589 -0.5686  0.1556
38027SOL    HW218767   5.680  10.513   4.172  2.1573  0.1640 -0.3762
38028SOL     OW18768  11.508   2.059   5.128  0.0815 -0.2855 -0.8131
38028SOL    HW118769  11.472   2.147   5.132 -0.2969 -0.4682  1.9047
38028SOL    HW218770  11.441   2.007   5.083 -1.6813  0.0287  1.3216
38029SOL     OW18771   0.724   0.660   8.165  0.2623 -0.0454  0.1414
38029SOL    HW118772   0.641   0.663   8.118  0.5713  0.4894 -0.3897
38029SOL    HW218773   0.756   0.750   8.162  1.1110 -0.3429 -0.1245
38030SOL     OW18774   5.169   8.959  11.793  0.0846  0.2911 -0.1088
38030SOL    HW118775   5.080   8.964  11.757 -0.5966 -0.2472  1.3791
38030SOL    HW218776   5.164   9.010  11.874  0.1634 -2.3253  1.6922
38031SOL     OW18777   1.273   7.185   9.686 -0.1072  0.1555 -0.2397
38031SOL    HW118778   1.339   7.223   9.629  0.0574 -0.5619 -0.5443
38031SOL    HW218779   1.298   7.093   9.693 -0.3449  0.1537  0.6871
38032SOL     OW18780   0.956  10.285   3.119 -0.0056  0.2114 -0.2069
38032SOL    HW118781   0.983  10.335   3.042 -0.9499 -0.9447 -1.3355
38032SOL    HW218782   1.000  10.201   3.109 -0.4019 -0.0665  0.3498
38033SOL     OW18783   9.692   0.718   6.576  0.5197 -0.2141  0.1803
38033SOL    HW118784   9.755   0.652   6.546  0.1249 -0.0294 -1.0965
38033SOL    HW218785   9.665   0.688   6.662  0.6021 -1.5388 -0.2385
38034SOL     OW18786   7.543   0.721   9.123 -0.2401 -0.0535 -0.4700
38034SOL    HW118787   7.577   0.750   9.038  2.3908 -1.3736  0.0085
38034SOL    HW218788   7.497   0.639   9.103 -0.5584  0.1951 -0.7584
38035SOL     OW18789   0.680  11.570  11.057 -0.0843 -0.1391 -0.4388
38035SOL    HW118790   0.612  11.563  10.990 -1.1765  0.4280  0.5491
38035SOL    HW218791   0.729  11.488  11.051  0.6976  0.4239 -2.7544
38036SOL     OW18792   4.600   2.679   7.457 -0.1630  0.3364  0.4009
38036SOL    HW118793   4.572   2.731   7.532 -0.6352  1.0304 -0.2371
38036SOL    HW218794   4.666   2.733   7.413 -0.8843  0.5463 -0.4452
38037SOL     OW18795   1.104  10.967   4.607  0.0516  0.1640  0.3430
38037SOL    HW118796   1.190  10.981   4.568 -1.1142  0.4761 -2.2707
38037SOL    HW218797   1.095  10.872   4.610 -0.6981  0.1023 -2.2946
38038SOL     OW18798   7.448  10.573  11.162  0.4700  0.1500 -0.2992
38038SOL    HW118799   7.501  10.646  11.192  0.0798 -0.2004  1.3752
38038SOL    HW218800   7.373  10.614  11.118  1.2401  0.6833 -1.1318
38039SOL     OW18801   3.716   8.038   0.110 -0.0220  0.0238 -0.6501
38039SOL    HW118802   3.656   7.967   0.133 -0.4008  1.0006  1.7665
38039SOL    HW218803   3.798   8.015   0.154  0.2224  0.4852 -0.8543
38040SOL     OW18804   2.438   4.668   1.597  0.0343 -0.1687 -0.1474
38040SOL    HW118805   2.519   4.630   1.562  1.4821  2.0249  0.6549
38040SOL    HW218806   2.432   4.635   1.686  0.7888  0.6969  0.2366
38041SOL     OW18807   9.041   4.427   0.774 -0.1095  0.2249 -0.2295
38041SOL    HW118808   9.121   4.427   0.826 -0.5072  0.6649  0.3930
38041SOL    HW218809   8.977   4.472   0.828 -0.8833 -0.4374 -0.5762
38042SOL     OW18810   3.383   5.118   5.627 -0.0278  0.3428 -0.4876
38042SOL    HW118811   3.298   5.076   5.640 -0.9327  1.5463 -2.1078
38042SOL    HW218812   3.416   5.081   5.545  1.0926 -0.1856  0.1720
38043SOL     OW18813  11.578   7.576   1.072 -0.1369  0.3460  0.6281
38043SOL    HW118814  11.642   7.588   1.002 -1.6676  0.9034 -0.7470
38043SOL    HW218815  11.578   7.482   1.090 -1.3460 -0.2107 -1.8302
38044SOL     OW18816   8.611   1.315   4.435  0.4041 -0.3056  0.3898
38044SOL    HW118817   8.658   1.258   4.374 -1.1731  0.0961 -1.2961
38044SOL    HW218818   8.525   1.275   4.443  0.0169  0.6208  0.9804
38045SOL     OW18819   0.026   3.332   5.899 -0.3174  0.9149 -0.4633
38045SOL    HW118820   0.070   3.322   5.815  0.5477  0.3967  0.0277
38045SOL    HW218821  -0.063   3.358   5.877 -0.2920  0.1388 -1.5541
38046SOL     OW18822   7.377   3.238   9.737 -0.1591 -0.1771 -0.1324
38046SOL    HW118823   7.466   3.270   9.754 -0.8500  1.2305  1.0697
38046SOL    HW218824   7.325   3.317   9.727 -1.3951 -0.9797 -0.2189
38047SOL     OW18825   9.823   6.905   8.002 -0.3299 -0.2286 -0.1538
38047SOL    HW118826   9.799   6.943   8.086  1.0070  2.1567 -0.7776
38047SOL    HW218827   9.776   6.956   7.937  0.3824 -0.5750 -0.9711
38048SOL     OW18828   8.145   8.019  10.257  0.3337  0.6214 -0.1332
38048SOL    HW118829   8.192   7.936  10.255 -0.4720  0.1464 -1.8653
38048SOL    HW218830   8.213   8.086  10.251  0.9147  0.0250 -0.2984
38049SOL     OW18831  10.661  10.060  11.725  0.0355  0.3444 -0.4380
38049SOL    HW118832  10.601  10.018  11.787 -0.7902  1.5906 -0.3606
38049SOL    HW218833  10.714   9.988  11.691  0.1401 -0.4496  1.2998
38050SOL     OW18834   5.548   3.765   2.015  0.1872 -0.3309  0.4804
38050SOL    HW118835   5.544   3.669   2.017 -0.4496 -0.2959  1.1674
38050SOL    HW218836   5.641   3.785   2.023  0.2793 -0.8815  0.8751
38051SOL     OW18837   5.551  10.352   0.437  0.0383  0.3899 -0.1064
38051SOL    HW118838   5.596  10.436   0.425 -0.0153  0.8876  2.5194
38051SOL    HW218839   5.619  10.293   0.469 -0.5216  0.3190  1.0081
38052SOL     OW18840   2.109  11.096   2.417 -0.3393 -0.1845 -0.5983
38052SOL    HW118841   2.113  11.075   2.324  0.4614 -1.6993 -0.2633
38052SOL    HW218842   2.201  11.101   2.444 -0.5652 -0.1111  0.1827
38053SOL     OW18843   1.044   1.309   4.140 -0.0499 -0.1534  0.0966
38053SOL    HW118844   1.046   1.315   4.045 -1.0449 -0.0360  0.0683
38053SOL    HW218845   1.134   1.326   4.168  0.3733 -0.7748 -0.8461
38054SOL     OW18846   1.691   7.891   5.273 -0.4265 -0.4946  0.0479
38054SOL    HW118847   1.771   7.910   5.225 -1.5127  0.2588 -1.5325
38054SOL    HW218848   1.721   7.861   5.359  1.5240  0.2599 -0.3280
38055SOL     OW18849   5.459   0.456   7.901  0.1192  0.2939 -0.8378
38055SOL    HW118850   5.463   0.502   7.817  0.3187 -0.3109 -1.1610
38055SOL    HW218851   5.497   0.518   7.964 -1.3302  1.3141 -0.9301
38056SOL     OW18852  11.013   7.984   4.447 -0.5009  0.1528 -0.0344
38056SOL    HW118853  11.106   7.970   4.427 -0.8636 -3.5161  0.1788
38056SOL    HW218854  11.014   8.041   4.524  1.5418  0.3893 -0.1768
38057SOL     OW18855  10.872   6.575   4.795 -0.1589 -0.3279  0.7004
38057SOL    HW118856  10.885   6.664   4.829 -0.4097 -0.0945  0.2040
38057SOL    HW218857  10.821   6.531   4.863  0.9227 -0.4445  1.4607
38058SOL     OW18858   2.861   4.867   8.648  0.2110  0.0095 -0.3058
38058SOL    HW118859   2.816   4.907   8.721  3.8115  3.1568  0.4974
38058SOL    HW218860   2.862   4.935   8.580  1.7474 -0.7280 -1.0749
38059SOL     OW18861   8.984   6.033   8.508 -0.3969 -0.1008 -0.2542
38059SOL    HW118862   8.920   5.973   8.472  0.9267 -1.6675 -0.1380
38059SOL    HW218863   8.974   6.114   8.457 -1.1788 -0.9461 -1.4803
38060SOL     OW18864  11.227   2.831   6.235 -0.3484  0.0470 -0.0455
38060SOL    HW118865  11.134   2.828   6.212 -0.3528 -1.1820  0.0556
38060SOL    HW218866  11.232   2.790   6.322  0.3026 -0.0137 -0.1048
38061SOL     OW18867   2.969   8.569   9.368  0.0607  0.1838  0.4314
38061SOL    HW118868   2.952   8.524   9.450 -0.0156 -1.9790 -0.7094
38061SOL    HW218869   2.981   8.499   9.304 -0.0146  1.7951 -1.4330
38062SOL     OW18870  10.946   0.643   3.205 -0.3444  0.4473 -0.2892
38062SOL    HW118871  11.013   0.575   3.195  1.0459  1.7179  0.0117
38062SOL    HW218872  10.950   0.693   3.123 -2.0911 -0.4285 -0.9484
38063SOL     OW18873  11.108   5.811   8.110 -0.1294 -0.2951 -0.0218
38063SOL    HW118874  11.044   5.746   8.140 -0.9982 -0.5816 -2.3380
38063SOL    HW218875  11.163   5.763   8.048 -0.6959  1.0997 -1.6689
38064SOL     OW18876   0.309   1.898   2.810  0.4268 -0.2399  0.0969
38064SOL    HW118877   0.264   1.981   2.794  1.4078  0.2633 -0.0794
38064SOL    HW218878   0.276   1.839   2.742  0.1823  0.1799 -0.1511
38065SOL     OW18879   3.358  10.228  10.219 -0.0807  0.2008  0.5638
38065SOL    HW118880   3.340  10.169  10.292 -0.2489  0.9042  1.1103
38065SOL    HW218881   3.361  10.172  10.142 -1.7454 -0.3449  0.8506
38066SOL     OW18882   7.883   0.253   6.058  0.1279  0.6545 -0.2441
38066SOL    HW118883   7.910   0.260   6.149  0.6631  0.4497 -0.3839
38066SOL    HW218884   7.803   0.201   6.061 -0.1684  1.1309  0.1579
38067SOL     OW18885   2.702   2.590  11.801 -0.4573 -0.2297  0.0438
38067SOL    HW118886   2.679   2.681  11.816 -0.5444 -0.1658 -0.4616
38067SOL    HW218887   2.618   2.546  11.785 -0.7689 -0.9746  3.0399
38068SOL     OW18888   5.710   1.599   8.189 -0.2894 -0.6691 -0.4769
38068SOL    HW118889   5.736   1.667   8.251  2.6153 -2.6408  0.6704
38068SOL    HW218890   5.670   1.531   8.243  1.6573 -2.1138 -0.7353
38069SOL     OW18891   3.476   6.003   7.036  0.3951 -0.9274  0.1859
38069SOL    HW118892   3.444   5.997   7.126  1.0763 -2.3421  0.3543
38069SOL    HW218893   3.404   5.968   6.983  0.3044 -0.8188  0.2353
38070SOL     OW18894  10.382   6.897   3.427 -0.3020 -0.0889  0.2012
38070SOL    HW118895  10.325   6.939   3.491  0.0682 -0.3317  0.6998
38070SOL    HW218896  10.470   6.905   3.464 -0.2814 -1.8143  0.6066
38071SOL     OW18897   5.753   4.026   5.314  0.2895  0.1476 -0.1410
38071SOL    HW118898   5.752   3.943   5.266 -1.9569 -0.1416  0.2678
38071SOL    HW218899   5.775   4.002   5.403 -2.3316 -0.3925  0.4361
38072SOL     OW18900  11.367   0.869   9.194 -0.2496 -0.2271 -0.1027
38072SOL    HW118901  11.411   0.954   9.189 -0.0368 -0.3980 -1.5511
38072SOL    HW218902  11.437   0.806   9.211 -0.3293 -0.1863  0.3913
38073SOL     OW18903  10.154   3.314   6.866  0.0892 -0.5745 -0.1794
38073SOL    HW118904  10.208   3.362   6.929  0.5289  0.8482 -1.5602
38073SOL    HW218905  10.098   3.259   6.919 -2.2768  3.2767  1.7619
38074SOL     OW18906  11.086  10.179   1.212 -0.1003  0.7671  0.1901
38074SOL    HW118907  11.038  10.254   1.177 -0.3233  0.4002 -0.3158
38074SOL    HW218908  11.031  10.145   1.282 -1.2969 -0.4893 -1.2903
38075SOL     OW18909   1.924   2.387   9.716  0.3243  0.2026 -0.6122
38075SOL    HW118910   1.864   2.331   9.766  0.1125  1.3324  0.4466
38075SOL    HW218911   1.897   2.375   9.625 -0.8506 -0.0840 -0.2448
38076SOL     OW18912   2.850   0.290   6.511  0.2609 -0.1854  0.0132
38076SOL    HW118913   2.843   0.307   6.605  0.7329 -1.5359  0.3179
38076SOL    HW218914   2.922   0.346   6.482 -1.3626  2.0016 -0.0539
38077SOL     OW18915  11.814   8.732   4.144  0.2278  0.1050 -0.4820
38077SOL    HW118916  11.726   8.699   4.159  0.6084 -2.4484 -2.9611
38077SOL    HW218917  11.855   8.732   4.231 -1.5947 -0.4734  0.4347
38078SOL     OW18918   2.059  10.524   2.862 -0.2948  0.2299 -0.1513
38078SOL    HW118919   2.048  10.593   2.796 -1.3722  1.6270  1.4094
38078SOL    HW218920   2.115  10.459   2.820 -0.2296  1.4831 -2.1158
38079SOL     OW18921   1.194   7.897   5.486  0.5190 -0.0727 -0.0800
38079SOL    HW118922   1.265   7.931   5.431  1.6439 -2.0293  0.0424
38079SOL    HW218923   1.199   7.949   5.567 -0.1642  1.7941 -1.1714
38080SOL     OW18924   1.951   2.317   6.486  0.2551  0.1871 -0.0520
38080SOL    HW118925   1.964   2.356   6.572 -1.0460  1.3493 -0.3421
38080SOL    HW218926   2.009   2.367   6.428 -0.5953  0.9959 -0.2312
38081SOL     OW18927   6.758   9.390   9.782  0.4464 -0.2462 -0.2047
38081SOL    HW118928   6.711   9.463   9.741 -1.6825 -0.9070  0.8775
38081SOL    HW218929   6.691   9.346   9.835  2.1161 -1.8583  0.6717
38082SOL     OW18930   9.870   4.767   0.914  0.3383  0.3215 -0.0219
38082SOL    HW118931   9.796   4.799   0.864  0.3346  0.9419  0.3640
38082SOL    HW218932   9.928   4.843   0.922  1.0111 -0.1536 -0.3190
38083SOL     OW18933   7.772   7.528  10.810  0.3949  0.0318 -0.1684
38083SOL    HW118934   7.724   7.546  10.729  1.3616 -0.4486 -0.8614
38083SOL    HW218935   7.739   7.593  10.872  1.0264  1.6662 -1.4986
38084SOL     OW18936   6.828  10.495   5.437  0.2214  0.1993  0.0248
38084SOL    HW118937   6.742  10.522   5.468 -0.0322 -0.7650  0.1912
38084SOL    HW218938   6.854  10.424   5.496  0.3090 -0.7759 -1.1512
38085SOL     OW18939   6.273   2.334   9.754 -0.0846 -0.0491  0.4520
38085SOL    HW118940   6.204   2.353   9.817  0.8159  1.6891  0.9602
38085SOL    HW218941   6.342   2.396   9.774  1.6089 -1.6742 -0.1132
38086SOL     OW18942   0.788   6.220   0.996 -0.1544  0.8808  0.4264
38086SOL    HW118943   0.780   6.302   1.045 -0.2031  0.3299  1.3688
38086SOL    HW218944   0.870   6.182   1.028 -0.1725  0.5260  0.0521
38087SOL     OW18945   9.223   2.170   2.469 -0.1676  0.5072 -0.8226
38087SOL    HW118946   9.187   2.169   2.380  0.4607  1.6242 -1.1049
38087SOL    HW218947   9.265   2.255   2.477 -3.3714  2.0361  1.8760
38088SOL     OW18948   4.394   1.441   5.681  0.2936  0.3598 -0.2495
38088SOL    HW118949   4.320   1.416   5.735  0.1739  0.7759 -0.2161
38088SOL    HW218950   4.371   1.410   5.593  0.6432 -0.6244 -0.0090
38089SOL     OW18951   0.828   4.276   0.443 -0.0193 -0.2900 -0.4739
38089SOL    HW118952   0.862   4.234   0.364 -0.0476 -1.7690  0.2509
38089SOL    HW218953   0.899   4.333   0.473  0.1506 -0.0496 -1.3264
38090SOL     OW18954   3.092  10.067   6.579  0.0915  0.1549  0.1526
38090SOL    HW118955   3.009  10.085   6.535  0.1443 -1.5408 -0.7573
38090SOL    HW218956   3.152  10.135   6.548 -1.1642  2.0602  1.6570
38091SOL     OW18957   5.599   4.950   2.055  0.1421 -0.1205  0.1454
38091SOL    HW118958   5.580   4.859   2.030 -0.3731  0.3529 -1.3049
38091SOL    HW218959   5.546   4.964   2.133 -0.6307 -0.7559 -0.2438
38092SOL     OW18960   3.641   7.135   3.010  0.7697  0.2911 -0.7061
38092SOL    HW118961   3.676   7.049   2.988 -0.7742 -0.4263 -0.5012
38092SOL    HW218962   3.597   7.123   3.094 -3.6689 -0.0894 -2.7689
38093SOL     OW18963   9.470   3.883  11.689  0.1276 -0.2526 -0.1499
38093SOL    HW118964   9.418   3.843  11.759 -0.0289 -0.0525 -0.1502
38093SOL    HW218965   9.503   3.809  11.638 -0.4441 -0.3701 -0.3552
38094SOL     OW18966   0.916  11.030   5.378 -0.3417  0.2618 -0.7732
38094SOL    HW118967   0.960  11.089   5.317 -0.4404  1.3013  0.1166
38094SOL    HW218968   0.824  11.030   5.350 -0.1568 -0.2784 -1.3871
38095SOL     OW18969   4.567  11.695   9.050  0.1592  0.2591  1.2056
38095SOL    HW118970   4.613  11.763   9.100  2.0229 -0.3402  0.3995
38095SOL    HW218971   4.478  11.728   9.041  1.0219  2.7042  0.7287
38096SOL     OW18972   2.756   6.256   6.343  0.1494 -0.1639  0.3569
38096SOL    HW118973   2.771   6.327   6.280  0.4778 -0.5689 -0.0263
38096SOL    HW218974   2.679   6.285   6.393 -1.6372 -0.8808 -1.8072
38097SOL     OW18975   4.837   8.480   0.675  0.0558 -0.4784 -0.5478
38097SOL    HW118976   4.763   8.533   0.644  0.0632  0.7058  1.2346
38097SOL    HW218977   4.796   8.408   0.723  0.0074  0.3556  0.7158
38098SOL     OW18978   2.802   8.140   8.279  0.1369 -0.2867 -0.4570
38098SOL    HW118979   2.755   8.193   8.215 -0.5244  0.5762  0.7037
38098SOL    HW218980   2.871   8.198   8.312 -1.8002  0.6749  2.2694
38099SOL     OW18981  10.676   2.202   9.511 -0.5488 -0.1567  0.1444
38099SOL    HW118982  10.720   2.266   9.567  0.4016 -2.0297  1.6644
38099SOL    HW218983  10.584   2.227   9.515 -0.3116  0.6491  1.3829
38100SOL     OW18984   2.328   8.329   4.522 -0.3258  0.1451  0.1113
38100SOL    HW118985   2.312   8.291   4.609 -1.6304 -2.4045 -1.1211
38100SOL    HW218986   2.305   8.259   4.461 -0.4986  2.1950 -2.3458
38101SOL     OW18987   4.644  11.875  11.040  0.4374  0.4233 -0.0597
38101SOL    HW118988   4.552  11.849  11.049  0.4802  0.8013  2.2403
38101SOL    HW218989   4.644  11.969  11.060  1.2739  0.4932 -0.3551
38102SOL     OW18990   2.723   3.680   5.276 -0.4101  0.1131 -0.0088
38102SOL    HW118991   2.802   3.627   5.263  1.0126  2.4934 -1.8001
38102SOL    HW218992   2.698   3.663   5.367  1.3359 -1.7882  0.1854
38103SOL     OW18993   3.880   1.936   5.373 -0.3427  0.0328  0.3541
38103SOL    HW118994   3.816   1.875   5.409 -0.0511  0.0534  0.9386
38103SOL    HW218995   3.927   1.886   5.306 -0.9076 -0.0052 -0.0135
38104SOL     OW18996  11.343   4.531   8.641 -0.5720 -0.2797 -0.5000
38104SOL    HW118997  11.412   4.495   8.697 -1.1824  0.2319  0.6056
38104SOL    HW218998  11.384   4.538   8.554  0.3413 -1.2134 -0.1556
38105SOL     OW18999   7.820  10.916  11.170  0.0939 -0.1808 -0.4837
38105SOL    HW119000   7.874  10.970  11.227 -0.5617 -0.1866  0.1594
38105SOL    HW219001   7.771  10.860  11.230 -0.3616 -0.4203 -1.0701
38106SOL     OW19002   2.609   1.755   6.545  0.2220 -0.3689  0.4386
38106SOL    HW119003   2.621   1.667   6.508  0.8495 -0.6090  1.2035
38106SOL    HW219004   2.658   1.754   6.627  0.8423  0.9315  0.1030
38107SOL     OW19005   9.151   1.641   2.835  0.4603  0.7108  0.0802
38107SOL    HW119006   9.211   1.668   2.905  0.6637  0.3496  0.0468
38107SOL    HW219007   9.184   1.686   2.757  1.4405 -0.4387 -0.2014
38108SOL     OW19008   0.714   3.376  10.421  0.2098  0.0177 -0.1671
38108SOL    HW119009   0.730   3.282  10.420  0.8596  0.1236 -0.4196
38108SOL    HW219010   0.687   3.397  10.332 -1.7628 -0.2101  0.3278
38109SOL     OW19011   3.497   3.080   7.550  0.0357 -0.4533 -0.1397
38109SOL    HW119012   3.528   3.135   7.622  0.9058 -0.8740 -0.1850
38109SOL    HW219013   3.509   3.135   7.472 -1.2657  0.1488  0.0486
38110SOL     OW19014   2.979  10.710   0.798  0.1621 -0.2371  0.1067
38110SOL    HW119015   2.888  10.682   0.809 -0.6855  2.1705 -0.0501
38110SOL    HW219016   2.980  10.755   0.714  1.2153  0.6947  0.5936
38111SOL     OW19017   9.095   8.439  10.390 -0.5862  0.2582 -0.5294
38111SOL    HW119018   9.074   8.509  10.452  0.2471  0.7064 -0.7325
38111SOL    HW219019   9.084   8.478  10.304  1.7682  0.7832 -0.6521
38112SOL     OW19020   9.191   7.095   9.808  0.3005 -0.1910  0.2445
38112SOL    HW119021   9.222   7.184   9.823  0.4998 -0.2502  0.1905
38112SOL    HW219022   9.269   7.040   9.819  0.5198 -0.2165 -1.2683
38113SOL     OW19023   9.050   5.340   6.659  1.0299 -0.2791  0.0600
38113SOL    HW119024   9.130   5.345   6.712  0.7982 -0.4419  0.4298
38113SOL    HW219025   8.994   5.409   6.695  1.4439  0.6257 -0.9554
38114SOL     OW19026   9.721   3.309   0.031 -0.3515 -0.2134  0.1615
38114SOL    HW119027   9.805   3.272   0.004 -0.6257 -1.5102  0.9981
38114SOL    HW219028   9.742   3.398   0.058  0.5337 -0.1054 -0.8176
38115SOL     OW19029   8.339   0.876   6.642 -0.0735  0.8193  0.1440
38115SOL    HW119030   8.318   0.859   6.734 -1.9871 -0.2500 -0.4304
38115SOL    HW219031   8.378   0.794   6.611 -0.9948  0.5673 -0.3902
38116SOL     OW19032   1.963   5.538   7.370  0.1445 -0.3941 -0.1603
38116SOL    HW119033   1.881   5.493   7.389  0.3140 -0.2712  0.9425
38116SOL    HW219034   1.947   5.630   7.392  0.5501 -0.3611  0.0252
38117SOL     OW19035   2.305   1.855  11.028  0.6462  0.1657 -0.0586
38117SOL    HW119036   2.307   1.951  11.018 -0.8948  0.3838  1.2481
38117SOL    HW219037   2.361   1.838  11.104 -0.7693  0.3133  1.0762
38118SOL     OW19038   9.120   4.414   5.432  0.4568 -0.3272 -0.0736
38118SOL    HW119039   9.208   4.447   5.415  0.1563  0.5661  0.0501
38118SOL    HW219040   9.108   4.427   5.526 -0.4073  1.1337 -0.3430
38119SOL     OW19041  10.205   9.876  10.273 -0.0943  0.0725  0.4390
38119SOL    HW119042  10.162   9.808  10.326 -0.0374 -0.8139 -0.6094
38119SOL    HW219043  10.172   9.860  10.184  1.1290  0.4275 -0.0858
38120SOL     OW19044   6.477   3.754   9.344  0.1562  0.2954  0.3272
38120SOL    HW119045   6.406   3.780   9.285  0.6572  0.5789 -0.1631
38120SOL    HW219046   6.442   3.767   9.432 -0.5912 -0.1096  0.0877
38121SOL     OW19047   6.457  10.721  11.175  0.2061 -0.0746 -0.0319
38121SOL    HW119048   6.505  10.640  11.161  2.8782  1.3205  0.3576
38121SOL    HW219049   6.381  10.715  11.117  0.9412 -2.3446 -0.8458
38122SOL     OW19050   8.420   0.038   2.085 -0.7828  0.0291  0.0097
38122SOL    HW119051   8.401   0.084   2.004 -0.4522  2.1192  1.0602
38122SOL    HW219052   8.506   0.070   2.112 -1.8252  1.1202  2.2944
38123SOL     OW19053   5.628  11.935  11.504  0.0462 -0.0749  0.8793
38123SOL    HW119054   5.644  12.028  11.516 -1.8043  0.2006  1.6189
38123SOL    HW219055   5.704  11.892  11.543  0.1529  1.1089  2.0432
38124SOL     OW19056   4.847   0.309   2.044  0.8063  0.0226  0.3931
38124SOL    HW119057   4.880   0.322   2.133  0.8781  0.5564  0.2924
38124SOL    HW219058   4.760   0.270   2.057 -0.3230  2.4803  0.8201
38125SOL     OW19059   1.720   7.507   3.713 -0.3618 -0.4367  0.2729
38125SOL    HW119060   1.736   7.512   3.808 -0.5808  1.1719  0.2559
38125SOL    HW219061   1.638   7.554   3.700  0.2605  0.3941 -0.8333
38126SOL     OW19062  11.972   2.581   2.088 -0.1455  0.3330 -0.1095
38126SOL    HW119063  11.952   2.671   2.114  0.9544  0.1896  1.3520
38126SOL    HW219064  12.063   2.584   2.059 -0.0342 -0.3318  0.1440
38127SOL     OW19065   7.391   6.089  10.660  0.0366 -0.2822 -0.6605
38127SOL    HW119066   7.445   6.164  10.683 -1.5395  0.5969  0.3600
38127SOL    HW219067   7.435   6.049  10.585  1.5712  0.9158 -0.4350
38128SOL     OW19068   7.308   2.372   0.798 -0.3193  0.6493 -0.3035
38128SOL    HW119069   7.361   2.298   0.827 -1.2433 -0.2410 -0.8651
38128SOL    HW219070   7.363   2.449   0.816  0.9765 -0.2176 -0.4572
38129SOL     OW19071   8.469   7.533   2.431  0.2480 -0.0631  0.4656
38129SOL    HW119072   8.395   7.474   2.418  0.9652 -0.9706  0.3655
38129SOL    HW219073   8.437   7.599   2.492 -0.1109 -1.4553  1.8318
38130SOL     OW19074  11.521   2.774   5.372 -0.0130  0.3174  0.0961
38130SOL    HW119075  11.536   2.710   5.441  0.0525  0.2438  0.0148
38130SOL    HW219076  11.435   2.753   5.337  1.0271 -1.3666 -1.6533
38131SOL     OW19077  11.189   8.586   4.354  0.2334  0.4434  0.6084
38131SOL    HW119078  11.186   8.680   4.338  2.9861  0.1994 -2.6826
38131SOL    HW219079  11.273   8.572   4.399 -0.2104 -0.4308  1.1958
38132SOL     OW19080   9.768   1.000   8.814  0.4339 -0.2978 -0.0047
38132SOL    HW119081   9.760   0.989   8.909 -3.3998  0.9127  0.0123
38132SOL    HW219082   9.759   0.912   8.779 -1.3776 -0.4500  0.7440
38133SOL     OW19083   1.960   9.361   4.135 -0.2880 -0.7005  0.3943
38133SOL    HW119084   1.955   9.390   4.044 -0.6958  0.5046  0.7868
38133SOL    HW219085   1.915   9.429   4.185  2.2186  0.0680  1.8068
38134SOL     OW19086   0.208   5.864   1.310 -0.0335 -0.0677 -0.3422
38134SOL    HW119087   0.138   5.889   1.250  1.6739  0.9994 -1.9734
38134SOL    HW219088   0.277   5.928   1.296  2.2132 -2.3407 -0.4722
38135SOL     OW19089   2.750  10.447   6.532  0.3496 -1.0440  0.4237
38135SOL    HW119090   2.672  10.438   6.586 -0.2128  0.0996 -0.1829
38135SOL    HW219091   2.823  10.427   6.591 -0.2345  0.3723  1.6746
38136SOL     OW19092   9.919  11.641   8.636  0.0551  0.6171  0.0709
38136SOL    HW119093   9.977  11.579   8.591  0.5189  1.7380 -0.9594
38136SOL    HW219094   9.831  11.606   8.622  0.2649  0.4740 -0.9780
38137SOL     OW19095   8.385   5.264   4.140 -0.2841  0.0795 -0.3830
38137SOL    HW119096   8.408   5.329   4.074 -1.6220  1.0588  0.0894
38137SOL    HW219097   8.290   5.271   4.150 -0.7112 -2.9508 -1.3564
38138SOL     OW19098   8.227   3.475   9.983  0.0450 -0.0316  0.1477
38138SOL    HW119099   8.167   3.536  10.026 -1.5326 -1.6372  0.3522
38138SOL    HW219100   8.212   3.392  10.028  0.6984 -1.0220 -1.3870
38139SOL     OW19101   0.230   6.117   2.290  0.2505 -0.3022 -0.4860
38139SOL    HW119102   0.234   6.023   2.270  1.5711 -0.1823 -0.8549
38139SOL    HW219103   0.293   6.157   2.231  1.1584  0.5824  1.0174
38140SOL     OW19104   5.083   2.513   8.075 -0.6924  0.3122  0.6502
38140SOL    HW119105   5.049   2.569   8.144 -1.1646  1.2501 -0.3139
38140SOL    HW219106   5.163   2.475   8.112 -1.7670 -0.4940  2.2856
38141SOL     OW19107   4.272   1.786   0.412 -0.0112 -0.1279  0.8441
38141SOL    HW119108   4.293   1.755   0.500 -0.5035  0.8011  1.2930
38141SOL    HW219109   4.324   1.866   0.401  0.2533 -0.3788  0.1809
38142SOL     OW19110  10.713  10.765  11.346  0.0931 -0.5440 -0.3060
38142SOL    HW119111  10.628  10.778  11.389  1.1758 -0.1461  1.8452
38142SOL    HW219112  10.731  10.850  11.305 -0.4135 -0.5414 -0.5325
38143SOL     OW19113   0.354   4.174   0.869 -0.4370 -0.1884 -0.6854
38143SOL    HW119114   0.286   4.106   0.875 -0.0053 -0.5710  0.0481
38143SOL    HW219115   0.405   4.149   0.792  0.0241 -1.0013 -0.1339
38144SOL     OW19116   8.200   8.335   9.967  0.2500 -0.3661 -0.1101
38144SOL    HW119117   8.260   8.304   9.899  0.6728 -1.0628  0.5623
38144SOL    HW219118   8.234   8.421   9.993 -0.2267  0.1462 -1.1423
38145SOL     OW19119   8.278   0.572   8.944 -0.1138 -0.0834  0.0976
38145SOL    HW119120   8.333   0.621   8.882 -0.9402  1.1364  0.3071
38145SOL    HW219121   8.283   0.481   8.913  0.6449  0.2743 -0.8977
38146SOL     OW19122   5.350  11.397   3.099 -0.0486  0.3306 -0.1369
38146SOL    HW119123   5.274  11.453   3.079 -0.4185 -0.7592 -2.0299
38146SOL    HW219124   5.329  11.358   3.184 -2.2963 -0.9368 -1.1704
38147SOL     OW19125   6.495   8.709   0.471 -0.0479  0.1505  0.1642
38147SOL    HW119126   6.548   8.756   0.535  0.9261 -0.5162 -0.1293
38147SOL    HW219127   6.523   8.742   0.386  1.2192 -1.4679 -0.0939
38148SOL     OW19128   6.612  10.658   7.690 -0.1634 -0.2442  0.0817
38148SOL    HW119129   6.681  10.592   7.681 -0.7249 -0.7021 -1.0914
38148SOL    HW219130   6.592  10.658   7.784  2.7226  1.3088  0.7997
38149SOL     OW19131   6.081   9.756   3.977  0.3732 -0.1955  0.5615
38149SOL    HW119132   6.063   9.767   4.071  1.5857 -2.5126  1.1321
38149SOL    HW219133   6.012   9.806   3.934 -1.7041 -1.0465  2.6842
38150SOL     OW19134   1.568   1.389  11.069  0.9889  0.1557  0.2416
38150SOL    HW119135   1.575   1.304  11.026 -2.1768  0.5399 -1.3468
38150SOL    HW219136   1.654   1.430  11.056  1.6358 -1.6264 -1.6006
38151SOL     OW19137   9.782  10.292   4.111 -0.0715  0.3390 -0.2740
38151SOL    HW119138   9.817  10.363   4.165 -0.4122  0.0860  0.2881
38151SOL    HW219139   9.699  10.326   4.078 -1.1698 -0.4670  1.5285
38152SOL     OW19140   7.185  10.970   0.687 -0.0047 -0.3060 -0.2305
38152SOL    HW119141   7.100  11.010   0.708  0.4451  0.9549 -0.7213
38152SOL    HW219142   7.164  10.908   0.616 -0.5311 -0.0691 -0.2918
38153SOL     OW19143  10.308   0.206   9.658  0.1838  0.5506  0.3486
38153SOL    HW119144  10.325   0.243   9.572 -0.8605  0.6208  0.1572
38153SOL    HW219145  10.217   0.176   9.653  0.2569  0.1512  1.2799
38154SOL     OW19146   4.158   2.467   0.820  0.0086  0.9835 -0.0914
38154SOL    HW119147   4.093   2.529   0.787  0.8050  1.7323 -0.3144
38154SOL    HW219148   4.202   2.435   0.741  0.5208  1.1965  0.0985
38155SOL     OW19149  11.488   5.362  10.754 -0.1931  0.2652 -0.0009
38155SOL    HW119150  11.501   5.321  10.839  1.5105 -1.5800 -1.0586
38155SOL    HW219151  11.498   5.456  10.771 -0.8987  0.0354  1.9683
38156SOL     OW19152   0.247   0.547   7.994  0.2663  0.3767 -0.4167
38156SOL    HW119153   0.204   0.510   8.071  1.4979 -1.1990 -0.4302
38156SOL    HW219154   0.175   0.562   7.932 -0.3434 -2.3845 -0.5355
38157SOL     OW19155   5.186   0.570  11.273  0.4345  0.6699  0.5303
38157SOL    HW119156   5.152   0.540  11.357 -0.6650  0.5037  0.0442
38157SOL    HW219157   5.132   0.647  11.252  0.9009  0.8907  0.1133
38158SOL     OW19158  11.435  10.337   3.102  0.1059 -0.5903  0.0141
38158SOL    HW119159  11.494  10.263   3.090 -0.5337 -1.0243 -0.4227
38158SOL    HW219160  11.354  10.299   3.137 -0.6302 -0.2575 -1.2790
38159SOL     OW19161   1.097   3.499   0.952  0.0072 -0.2494  0.4366
38159SOL    HW119162   1.050   3.474   0.872 -2.4979 -0.2408  1.8087
38159SOL    HW219163   1.091   3.422   1.008 -0.7216  0.6665  1.6547
38160SOL     OW19164   5.585   0.766  10.526  0.2144 -0.4149 -0.1337
38160SOL    HW119165   5.614   0.801  10.442  0.8663 -0.8873 -0.1217
38160SOL    HW219166   5.612   0.674  10.524 -0.4518 -0.6315  0.2828
38161SOL     OW19167   3.636   0.406   1.830 -0.5208 -0.3213 -0.1514
38161SOL    HW119168   3.581   0.399   1.752 -0.5142  1.7085 -0.4066
38161SOL    HW219169   3.602   0.483   1.877 -0.0412 -1.0432  1.4613
38162SOL     OW19170   1.927   3.762   5.702 -0.1883 -0.3167  0.1026
38162SOL    HW119171   1.846   3.803   5.733 -0.1125  1.3473 -1.7120
38162SOL    HW219172   1.914   3.749   5.609  1.7473  0.3166 -0.3111
38163SOL     OW19173   6.986   8.181   8.917 -0.0541 -0.2954  0.4006
38163SOL    HW119174   7.044   8.184   8.842  1.4671 -1.7876  1.4550
38163SOL    HW219175   7.033   8.129   8.982 -1.7338  0.1194  2.0325
38164SOL     OW19176   7.698   8.937   2.565 -0.1096 -0.0454 -0.5289
38164SOL    HW119177   7.669   8.846   2.558 -0.0956 -0.1986  1.0080
38164SOL    HW219178   7.782   8.938   2.519  1.5255 -1.6610  2.0916
38165SOL     OW19179   5.715   0.509   2.415  0.3801 -0.4875 -0.1526
38165SOL    HW119180   5.763   0.450   2.473  1.7513 -1.1968 -1.8823
38165SOL    HW219181   5.760   0.593   2.422 -0.5365 -0.0753  1.0627
38166SOL     OW19182   5.342   4.700  10.330 -0.3522 -0.1569  0.0594
38166SOL    HW119183   5.333   4.716  10.236 -1.6424 -1.2704 -0.0400
38166SOL    HW219184   5.430   4.732  10.352 -0.6728  1.7090 -1.1616
38167SOL     OW19185   7.763   5.448   1.270  0.2591  0.2252  0.1028
38167SOL    HW119186   7.669   5.466   1.267  0.2462  0.0394 -0.6842
38167SOL    HW219187   7.776   5.379   1.206  1.1322  1.1240 -0.7127
38168SOL     OW19188   6.709   0.478   8.180 -0.3893 -0.5575  0.0760
38168SOL    HW119189   6.750   0.480   8.266 -0.3414 -0.1559  0.0464
38168SOL    HW219190   6.621   0.444   8.196  0.2903 -2.4731 -0.0155
38169SOL     OW19191   6.863   4.445   5.211  0.5316 -0.2265  0.4197
38169SOL    HW119192   6.819   4.361   5.197  0.4711 -0.0971 -0.2099
38169SOL    HW219193   6.942   4.440   5.157 -0.7796  1.1166 -1.8043
38170SOL     OW19194   7.890  10.692   9.225  0.0121  0.0969 -0.1162
38170SOL    HW119195   7.847  10.776   9.210 -0.3870 -0.1015 -0.0802
38170SOL    HW219196   7.832  10.627   9.184  0.3168 -0.1625 -0.1415
38171SOL     OW19197   6.105   4.442   8.854  0.3784  0.2595  0.1671
38171SOL    HW119198   6.101   4.497   8.777 -0.0120 -0.3239 -0.2394
38171SOL    HW219199   6.188   4.394   8.845 -0.1863 -0.6142 -0.4584
38172SOL     OW19200   0.124   4.658   3.433 -0.1357 -0.0811  0.0279
38172SOL    HW119201   0.181   4.728   3.465  0.8199 -0.6774 -0.3352
38172SOL    HW219202   0.134   4.588   3.498 -1.4524  0.2691  0.6453
38173SOL     OW19203   6.231   5.995   0.704  0.0913  0.1786 -0.0104
38173SOL    HW119204   6.221   5.905   0.673  0.7619  0.9781 -2.8727
38173SOL    HW219205   6.189   6.049   0.637  2.1928  2.1271  0.0979
38174SOL     OW19206   3.032   1.848   3.439  0.4991  0.0096  0.3915
38174SOL    HW119207   3.104   1.809   3.389  0.8975 -0.3335  1.2099
38174SOL    HW219208   2.961   1.857   3.375  0.8038 -0.9406 -0.1086
38175SOL     OW19209   0.974   0.862   2.592  0.0362 -0.6913  0.1192
38175SOL    HW119210   0.957   0.900   2.678  2.1058  0.6908 -0.0220
38175SOL    HW219211   0.913   0.907   2.533  0.0549 -0.1226  0.5286
38176SOL     OW19212   6.317   2.583   3.157  0.5410  0.0505 -0.2088
38176SOL    HW119213   6.331   2.627   3.073  0.6111 -1.6728 -1.1487
38176SOL    HW219214   6.223   2.593   3.175  0.8612  2.1193  0.5419
38177SOL     OW19215   9.168   2.834   0.888  0.3226 -0.1720  0.3180
38177SOL    HW119216   9.197   2.911   0.839  0.1390 -0.1970  0.1704
38177SOL    HW219217   9.248   2.784   0.902  0.7032  0.7485  1.6776
38178SOL     OW19218   6.902   6.345   1.745 -0.0463 -0.2071 -0.1293
38178SOL    HW119219   6.891   6.425   1.796 -0.0056 -0.0851 -0.3107
38178SOL    HW219220   6.886   6.274   1.808 -0.2741 -0.0552 -0.0123
38179SOL     OW19221   9.282   9.620   9.341 -0.0022  0.1780 -0.3530
38179SOL    HW119222   9.213   9.590   9.400 -0.2646  0.6135 -0.4354
38179SOL    HW219223   9.242   9.691   9.291  0.3908  0.1828 -0.6661
38180SOL     OW19224  11.062   7.554  11.192  0.2907 -0.0667 -0.0421
38180SOL    HW119225  10.980   7.523  11.230 -0.1262  0.6843 -0.3070
38180SOL    HW219226  11.052   7.540  11.098  0.4560  0.0472 -0.0782
38181SOL     OW19227   1.271   1.131   9.801 -0.0957  0.1421 -0.0347
38181SOL    HW119228   1.247   1.204   9.858 -1.4829  0.0524 -0.4676
38181SOL    HW219229   1.273   1.169   9.713  0.5786 -0.0479 -0.1104
38182SOL     OW19230  10.173   1.982   7.350 -0.3434  0.3319 -0.9514
38182SOL    HW119231  10.230   1.965   7.424 -0.6222  2.0202 -0.3079
38182SOL    HW219232  10.221   1.947   7.274  1.3921  1.3531 -0.3842
38183SOL     OW19233   1.982   6.144   6.890 -0.0976 -0.7870  0.2216
38183SOL    HW119234   2.015   6.085   6.822 -0.3391 -1.2459  0.4934
38183SOL    HW219235   1.920   6.090   6.940  1.2524 -0.9468  1.8073
38184SOL     OW19236   9.418   7.611  11.807  0.4184 -0.0236 -0.2981
38184SOL    HW119237   9.404   7.696  11.766  1.8686 -0.4850 -1.8465
38184SOL    HW219238   9.510   7.591  11.790  0.8943 -0.6706  2.4718
38185SOL     OW19239  11.334   4.974   8.170  0.2864 -0.0473 -0.2754
38185SOL    HW119240  11.356   4.886   8.202 -2.4437 -0.4440  0.7494
38185SOL    HW219241  11.297   4.959   8.083 -2.9345 -0.4104  1.0082
38186SOL     OW19242   4.219  10.975   0.961 -0.4018  0.3145 -0.0250
38186SOL    HW119243   4.267  11.006   0.884 -0.0420 -0.4124 -0.1016
38186SOL    HW219244   4.268  11.008   1.036  0.1291 -0.2669 -0.1044
38187SOL     OW19245   9.408   1.580   7.137 -0.0752 -0.3375  0.2245
38187SOL    HW119246   9.391   1.528   7.058 -1.5598 -0.4616  0.6001
38187SOL    HW219247   9.489   1.628   7.117  0.4367 -1.5430 -0.7590
38188SOL     OW19248   7.863  11.670   7.889 -0.0225 -0.2121  0.0467
38188SOL    HW119249   7.883  11.582   7.920  1.4544  0.2552  0.5129
38188SOL    HW219250   7.889  11.670   7.797  1.8166  0.2566  0.5308
38189SOL     OW19251   8.455   9.144   9.691  0.4597  0.2426  0.6486
38189SOL    HW119252   8.516   9.150   9.618  0.2646 -1.4831  0.3053
38189SOL    HW219253   8.509   9.121   9.766  0.1433 -3.4373 -0.0502
38190SOL     OW19254   5.923   7.966   6.268 -0.1129  0.0469  0.2144
38190SOL    HW119255   5.992   7.990   6.331 -0.6078 -1.9415  1.6113
38190SOL    HW219256   5.953   7.883   6.230 -0.8271  0.1623 -0.6236
38191SOL     OW19257   4.542   1.610   2.686  0.1880  0.5177 -0.2673
38191SOL    HW119258   4.480   1.607   2.759  1.3621  2.1066  0.8582
38191SOL    HW219259   4.539   1.522   2.648 -1.4532  0.0590  0.8221
38192SOL     OW19260   5.735   7.756  11.280  0.2922 -0.0280 -0.2757
38192SOL    HW119261   5.730   7.695  11.207  1.4242  0.6749 -0.9653
38192SOL    HW219262   5.643   7.779  11.298 -0.1151 -1.5166 -0.3193
38193SOL     OW19263   6.260  10.256   3.521 -0.0965 -0.4395  0.3359
38193SOL    HW119264   6.184  10.239   3.464 -0.9070  0.4112  1.1257
38193SOL    HW219265   6.320  10.306   3.467  0.8829 -2.8592 -0.9848
38194SOL     OW19266  10.382   6.014   1.122  0.4516 -0.0879  0.1605
38194SOL    HW119267  10.458   5.969   1.159  0.3702 -0.2094  0.1799
38194SOL    HW219268  10.311   5.950   1.127  0.9448 -0.9321 -2.2525
38195SOL     OW19269  11.352   4.476   0.217  0.2663 -0.3782  0.2953
38195SOL    HW119270  11.295   4.474   0.140  1.2779 -0.9528 -0.4742
38195SOL    HW219271  11.440   4.486   0.180  0.6475  0.8537  1.4663
38196SOL     OW19272   2.637   7.624   5.371 -0.2937  0.0310 -0.2409
38196SOL    HW119273   2.588   7.655   5.448  1.6164  0.5379  0.8352
38196SOL    HW219274   2.625   7.694   5.306  0.7502  1.2336  0.7918
38197SOL     OW19275  11.958   5.054   9.372  0.0081 -0.2956  0.1275
38197SOL    HW119276  12.033   4.994   9.370  0.9417  0.7852  1.1178
38197SOL    HW219277  11.992   5.134   9.413 -2.1223 -0.3543  2.2044
38198SOL     OW19278   5.853   0.086  11.261  0.2288 -0.1529  0.3312
38198SOL    HW119279   5.801   0.109  11.184  1.8210  0.5111 -0.6075
38198SOL    HW219280   5.937   0.059  11.226  1.9673  2.7371  1.8501
38199SOL     OW19281   3.647   4.862   5.804  0.0265 -0.1595  0.2743
38199SOL    HW119282   3.610   4.793   5.858 -0.3819 -0.4354 -0.3422
38199SOL    HW219283   3.708   4.817   5.746  0.2913  0.0978  0.3508
38200SOL     OW19284   9.451   4.051   6.261  0.5364 -0.4367 -0.1892
38200SOL    HW119285   9.385   3.986   6.284 -0.5240  0.9342  0.8240
38200SOL    HW219286   9.534   4.012   6.289 -0.0110 -1.5091  0.0143
38201SOL     OW19287   9.877  10.554   3.785  0.1079  0.0478  0.1413
38201SOL    HW119288   9.950  10.508   3.743  0.2768  0.1985  0.2701
38201SOL    HW219289   9.839  10.489   3.844  0.0634 -0.0670 -0.0127
38202SOL     OW19290  10.311   8.762  10.938 -0.5385  0.1522 -0.2585
38202SOL    HW119291  10.383   8.819  10.967  0.0321 -0.5471 -0.2677
38202SOL    HW219292  10.233   8.818  10.941  0.4725  2.0195 -3.5754
38203SOL     OW19293   9.567   6.963  11.655  0.3532  0.0207  0.4490
38203SOL    HW119294   9.502   6.966  11.725 -1.6044  1.5813 -1.2999
38203SOL    HW219295   9.550   7.041  11.603  1.4475 -1.2583 -2.0113
38204SOL     OW19296   6.405   7.940   9.799 -0.1860  0.1784 -0.4492
38204SOL    HW119297   6.427   7.881   9.728 -1.6036 -0.3584 -0.4701
38204SOL    HW219298   6.388   8.024   9.756  1.3350  0.4924 -0.4699
38205SOL     OW19299   3.397   4.403  11.495  0.2741 -0.5109  0.2721
38205SOL    HW119300   3.411   4.361  11.410  0.7533  1.7792 -0.8740
38205SOL    HW219301   3.397   4.331  11.558  1.7097 -2.1351 -1.4618
38206SOL     OW19302   7.404  11.222   1.945  0.1160 -0.4605  0.2221
38206SOL    HW119303   7.413  11.201   2.038  1.7995 -0.5810  0.0665
38206SOL    HW219304   7.446  11.149   1.900 -0.8310 -0.4806 -0.6487
38207SOL     OW19305   7.267   5.078   3.299 -0.6935  0.1149 -0.0981
38207SOL    HW119306   7.303   5.160   3.330 -1.2386 -0.1190  1.2226
38207SOL    HW219307   7.173   5.083   3.319 -0.6525 -1.0224  0.5018
38208SOL     OW19308  11.801   1.886   2.395  0.7386  0.4092  0.4085
38208SOL    HW119309  11.709   1.876   2.418  0.3659  1.1991 -0.6606
38208SOL    HW219310  11.847   1.883   2.479 -0.2441 -0.0768  0.9445
38209SOL     OW19311   9.158   8.314   3.103  0.4611  0.3193 -0.0697
38209SOL    HW119312   9.113   8.240   3.144  0.5651  1.3859  2.0964
38209SOL    HW219313   9.237   8.275   3.065  0.3453 -0.7612  0.7317
38210SOL     OW19314  10.041   6.961  11.936 -0.1033 -0.0041  0.0855
38210SOL    HW119315  10.003   6.898  11.875 -2.3899  1.7964 -0.4584
38210SOL    HW219316   9.983   7.037  11.933  2.2322  1.9708  1.1110
38211SOL     OW19317   6.080  11.555   2.558  0.0230  0.0666 -0.3444
38211SOL    HW119318   6.152  11.586   2.504  0.1562 -1.6560 -1.2129
38211SOL    HW219319   6.004  11.604   2.526  0.5535  0.8926 -0.3598
38212SOL     OW19320   7.229   4.521   1.965  0.1372  0.0494 -0.6399
38212SOL    HW119321   7.233   4.582   1.891  0.3809  1.1153  0.2259
38212SOL    HW219322   7.302   4.461   1.951  0.8005  0.8650 -0.7510
38213SOL     OW19323   7.669   6.570   9.178 -0.3228 -0.2821  0.3749
38213SOL    HW119324   7.642   6.567   9.269  0.5187 -0.8486  0.6196
38213SOL    HW219325   7.669   6.478   9.150  0.2608 -0.1944  0.0692
38214SOL     OW19326  11.238   9.802  10.273 -0.2724  0.2404 -0.2002
38214SOL    HW119327  11.324   9.779  10.239 -0.1829  0.3443 -0.0400
38214SOL    HW219328  11.226   9.746  10.350  1.0263  2.4927  1.7536
38215SOL     OW19329   6.258   3.617   7.786 -0.4962  0.0619 -0.1425
38215SOL    HW119330   6.317   3.688   7.812  1.0944 -0.7803 -1.2800
38215SOL    HW219331   6.290   3.540   7.832 -1.1024 -0.2998 -0.3017
38216SOL     OW19332   8.235   5.197  10.242  0.3201 -0.2409 -0.2256
38216SOL    HW119333   8.314   5.156  10.208 -0.1147 -0.0045 -1.5800
38216SOL    HW219334   8.255   5.290  10.245  0.3889 -0.2715  0.2586
38217SOL     OW19335  10.592   8.129   5.633 -0.2240 -0.3604  0.5074
38217SOL    HW119336  10.590   8.188   5.557 -0.8855 -0.2106  0.6338
38217SOL    HW219337  10.508   8.082   5.629 -0.9699  0.7725  2.0240
38218SOL     OW19338   3.152   8.000   7.436  0.1126 -0.6713 -0.0384
38218SOL    HW119339   3.208   8.019   7.360 -0.7721  0.3488 -0.4638
38218SOL    HW219340   3.088   7.937   7.402 -0.6272  0.2091 -0.3211
38219SOL     OW19341   4.640  10.173   2.102 -0.1446  0.4264  0.0383
38219SOL    HW119342   4.605  10.089   2.130  1.6770 -0.5867 -0.5338
38219SOL    HW219343   4.611  10.182   2.011 -0.2993  0.3837  0.0842
38220SOL     OW19344   1.030   3.502   8.478 -0.3838  0.5265  0.5746
38220SOL    HW119345   1.073   3.523   8.395 -0.9664  1.4193  0.4769
38220SOL    HW219346   1.081   3.429   8.514 -1.4408 -1.4517 -1.6307
38221SOL     OW19347   1.339   8.954   0.100  0.3203  0.3633  0.6443
38221SOL    HW119348   1.246   8.973   0.087  0.5345  1.1004  0.1226
38221SOL    HW219349   1.357   8.880   0.042  0.2022  0.6391  0.2484
38222SOL     OW19350   6.889   7.614  11.274  0.3041  0.2515  0.0522
38222SOL    HW119351   6.849   7.578  11.353 -0.0518 -1.3364 -0.8031
38222SOL    HW219352   6.963   7.555  11.256  0.5251  0.7283 -0.6527
38223SOL     OW19353   1.145   5.782   3.016 -0.4414 -0.7998 -0.5590
38223SOL    HW119354   1.113   5.828   3.094 -0.0053 -1.5270  0.0557
38223SOL    HW219355   1.203   5.714   3.050  0.2687 -0.7170 -1.5563
38224SOL     OW19356  11.978   9.477   0.473  0.2895  0.0299  0.3546
38224SOL    HW119357  11.887   9.479   0.503  0.5317  1.0792  1.0792
38224SOL    HW219358  12.021   9.416   0.533  0.0232 -0.6633 -0.1463
38225SOL     OW19359   2.919   3.643   2.882 -0.3028  0.1671  0.1589
38225SOL    HW119360   2.851   3.576   2.878  0.7355 -1.0880  2.0827
38225SOL    HW219361   2.904   3.688   2.965  1.0414  0.0296  0.4969
38226SOL     OW19362   9.091   3.845  10.258  0.0863 -0.1406 -0.4918
38226SOL    HW119363   9.000   3.830  10.230  0.3992 -1.0608 -1.0567
38226SOL    HW219364   9.126   3.905  10.193 -0.2899  0.7110  0.0773
38227SOL     OW19365   5.702   7.624  10.432  0.2127  0.3511  0.4896
38227SOL    HW119366   5.686   7.575  10.512  1.4788 -2.1647 -0.6886
38227SOL    HW219367   5.656   7.575  10.364 -1.5630  2.9000 -0.2881
38228SOL     OW19368   1.615  10.782   5.726 -0.4330  0.0384  0.2769
38228SOL    HW119369   1.567  10.859   5.757 -0.2531  0.6211 -0.8312
38228SOL    HW219370   1.702  10.816   5.702 -0.7330 -0.2586 -1.3454
38229SOL     OW19371   5.046   1.263   4.727 -0.4505  0.2519  0.1245
38229SOL    HW119372   5.071   1.254   4.635 -0.5689  0.7446  0.0444
38229SOL    HW219373   5.129   1.274   4.773 -0.5127  2.1497 -0.1726
38230SOL     OW19374   0.355   5.975   8.887 -0.4895  0.0282  0.2494
38230SOL    HW119375   0.380   5.896   8.839 -0.5892 -0.1943  0.5623
38230SOL    HW219376   0.432   6.032   8.881  0.1084 -0.6585  1.2135
38231SOL     OW19377   9.604   9.863  11.509  0.4821 -0.1121 -0.7339
38231SOL    HW119378   9.523   9.826  11.544  0.4471  0.8712  0.3079
38231SOL    HW219379   9.649   9.789  11.468 -0.1791 -1.0204  0.1252
38232SOL     OW19380   4.336  11.066   1.176 -0.1523 -0.2491  0.4677
38232SOL    HW119381   4.390  11.144   1.192  0.1255 -0.0281 -1.3134
38232SOL    HW219382   4.356  11.007   1.249  0.5113  0.8783  1.2267
38233SOL     OW19383  11.832   0.814   6.868  0.7897 -0.2636  0.2384
38233SOL    HW119384  11.870   0.866   6.798  0.8668 -0.3951  0.1813
38233SOL    HW219385  11.828   0.725   6.832 -2.2275  0.2002 -0.8451
38234SOL     OW19386   3.173   3.726   8.233  0.0691 -0.0517 -0.1433
38234SOL    HW119387   3.179   3.634   8.261  1.1593 -0.3519 -1.2697
38234SOL    HW219388   3.079   3.745   8.232 -0.4376 -2.0838 -2.6462
38235SOL     OW19389   7.554   3.892  11.437 -0.0854  0.0020  0.4010
38235SOL    HW119390   7.553   3.898  11.341  3.2314 -1.7066  0.1027
38235SOL    HW219391   7.620   3.955  11.464 -1.1068  0.5744  1.6183
38236SOL     OW19392   8.536   2.513  10.220 -0.1613  0.3092 -0.4114
38236SOL    HW119393   8.496   2.578  10.278 -1.0221  1.4544 -2.1875
38236SOL    HW219394   8.532   2.431  10.270 -1.7939  1.0281  0.7502
38237SOL     OW19395  10.874   9.803   7.134 -0.3218  0.3612 -0.0947
38237SOL    HW119396  10.784   9.772   7.131 -0.2506  0.2726 -2.0304
38237SOL    HW219397  10.925   9.726   7.162 -0.6519 -0.0379 -0.5930
38238SOL     OW19398   1.536   2.235   8.160  0.0567  0.4211  0.0941
38238SOL    HW119399   1.462   2.176   8.170 -0.0806  0.7891  1.5185
38238SOL    HW219400   1.502   2.308   8.109 -1.7834  2.4117  3.7714
38239SOL     OW19401   5.184   6.496   1.470  0.4978 -0.3310 -0.0855
38239SOL    HW119402   5.173   6.515   1.377  0.5051 -0.3779 -0.0961
38239SOL    HW219403   5.273   6.526   1.490  0.2095  0.4319  0.0983
38240SOL     OW19404   7.447   4.169   4.565  0.4170  0.1524  0.1505
38240SOL    HW119405   7.409   4.107   4.628 -1.5911  0.9866 -0.1608
38240SOL    HW219406   7.483   4.239   4.620  0.0282  0.1507  0.4092
38241SOL     OW19407   4.301   4.689   8.257 -0.6806 -0.6078  0.7847
38241SOL    HW119408   4.387   4.730   8.262 -0.9393 -0.1260  1.6715
38241SOL    HW219409   4.242   4.752   8.299 -1.5876 -0.6325 -0.3740
38242SOL     OW19410   8.471  11.576   2.320  0.2508 -0.2948 -0.0392
38242SOL    HW119411   8.528  11.521   2.373 -1.2502 -0.6975  1.2458
38242SOL    HW219412   8.390  11.526   2.312  0.6208 -0.5591 -3.3623
38243SOL     OW19413   7.504   7.270   3.098 -0.2863  0.2030  0.1717
38243SOL    HW119414   7.411   7.278   3.077 -0.3782  1.2994  0.9246
38243SOL    HW219415   7.545   7.342   3.050  0.2817 -0.6264 -0.6340
38244SOL     OW19416   8.100   4.594   5.754 -0.0200  0.0138  0.4902
38244SOL    HW119417   8.139   4.647   5.685  1.5307  0.5346  1.6972
38244SOL    HW219418   8.086   4.655   5.826 -1.6120 -0.5133  0.6763
38245SOL     OW19419   6.041   4.894  11.028  0.0410 -0.0439 -0.1147
38245SOL    HW119420   6.117   4.872  10.974  1.4203  1.2546  1.2009
38245SOL    HW219421   5.968   4.848  10.987  1.0972  0.5053 -2.7875
38246SOL     OW19422   5.564   2.769   7.845 -0.0331 -0.2396  0.1031
38246SOL    HW119423   5.516   2.847   7.817 -0.7328 -1.0465 -1.0005
38246SOL    HW219424   5.656   2.791   7.828 -0.1903  0.4767  0.1395
38247SOL     OW19425   1.144   1.204   8.361 -0.1379  0.1367  0.2418
38247SOL    HW119426   1.232   1.170   8.342 -0.1552 -0.1034  0.5741
38247SOL    HW219427   1.156   1.255   8.442 -0.7792 -2.0293  1.7816
38248SOL     OW19428   7.517   3.230   5.657 -0.2557  0.9537  0.2783
38248SOL    HW119429   7.599   3.197   5.693  0.9166  2.9178 -0.3933
38248SOL    HW219430   7.525   3.325   5.663 -0.2835  1.4456 -4.3026
38249SOL     OW19431   5.387   6.948   0.857  0.4008 -0.2699  0.1314
38249SOL    HW119432   5.352   6.974   0.772  0.3759 -0.3386  0.1202
38249SOL    HW219433   5.431   6.865   0.841  0.1949 -0.4010  0.2295
38250SOL     OW19434  10.453   2.935   0.124  0.2902 -0.3212  0.2933
38250SOL    HW119435  10.380   2.888   0.082 -0.8633  0.8968  0.8653
38250SOL    HW219436  10.433   3.027   0.110  2.4169  0.0513 -0.6388
38251SOL     OW19437   4.617   0.674   1.617 -0.3995 -0.4381 -0.1530
38251SOL    HW119438   4.590   0.651   1.707 -0.8769 -1.7104 -0.5919
38251SOL    HW219439   4.549   0.636   1.562  0.1254 -0.0458 -1.0879
38252SOL     OW19440  11.859   6.871   9.658  0.2392  0.3951 -0.0303
38252SOL    HW119441  11.834   6.959   9.685 -0.4039  0.2762 -0.2094
38252SOL    HW219442  11.817   6.859   9.573  0.1496 -0.1595  0.0877
38253SOL     OW19443   9.952  11.180   2.368 -0.1812  0.3096  0.0106
38253SOL    HW119444   9.929  11.087   2.375 -0.9503  0.3731 -1.3900
38253SOL    HW219445  10.013  11.184   2.294  0.6111  0.8126  0.6733
38254SOL     OW19446   7.644   4.069   0.983  0.0087  0.3871  0.7298
38254SOL    HW119447   7.721   4.083   0.928  0.5451 -2.9963  0.4008
38254SOL    HW219448   7.571   4.102   0.932  0.7636 -0.5003 -0.9971
38255SOL     OW19449   6.960   0.699   7.892 -0.4243  0.3657  0.4041
38255SOL    HW119450   6.889   0.646   7.928 -1.2313  2.2689  1.7580
38255SOL    HW219451   6.950   0.785   7.933  0.5510  1.7426 -2.0463
38256SOL     OW19452   0.949   8.343  11.055 -0.4121 -0.1753 -0.2880
38256SOL    HW119453   0.867   8.323  11.010 -0.7424 -0.1606  0.2914
38256SOL    HW219454   1.016   8.332  10.989 -0.7339 -1.6889 -0.3893
38257SOL     OW19455   5.381  10.134   2.361  0.2975  0.4870  0.3105
38257SOL    HW119456   5.290  10.152   2.385  0.1705 -1.1229  1.2206
38257SOL    HW219457   5.418  10.091   2.439  1.6301  0.4869 -0.2949
38258SOL     OW19458  11.856  10.828  10.830  0.1170  0.4874 -0.0646
38258SOL    HW119459  11.916  10.894  10.865  0.9216 -0.8268  1.1282
38258SOL    HW219460  11.844  10.766  10.901  0.9654 -1.7445 -1.7373
38259SOL     OW19461   5.918   0.675   1.074 -0.0298 -0.1527 -0.4194
38259SOL    HW119462   5.946   0.674   1.165 -0.0063 -1.4123 -0.4199
38259SOL    HW219463   5.876   0.590   1.061 -0.7343  0.3182 -1.3716
38260SOL     OW19464   6.164   7.587   5.663  0.3882  0.0881  0.0169
38260SOL    HW119465   6.222   7.659   5.636 -1.0873  2.1362  1.9370
38260SOL    HW219466   6.077   7.613   5.633 -0.2606 -0.6390  1.1783
38261SOL     OW19467   0.068   6.241  11.426 -0.3928  0.2932 -0.6729
38261SOL    HW119468   0.030   6.212  11.343 -1.0499 -2.6435  0.5398
38261SOL    HW219469   0.162   6.238  11.411 -0.5037  0.0159 -1.3702
38262SOL     OW19470   6.757  11.377  10.676  0.0741 -0.1890  0.0603
38262SOL    HW119471   6.694  11.374  10.604  2.2176 -1.2213 -1.9125
38262SOL    HW219472   6.765  11.470  10.698  0.3269  0.3297 -2.0167
38263SOL     OW19473   5.351   2.837   8.536  0.1805  0.1637 -0.2009
38263SOL    HW119474   5.378   2.755   8.577  0.4369 -0.2909 -1.2421
38263SOL    HW219475   5.332   2.814   8.445 -2.6750  0.6599  0.1602
38264SOL     OW19476   6.707   2.224   3.931  0.0198 -0.0677 -0.2731
38264SOL    HW119477   6.802   2.228   3.938  0.0055 -0.0539 -0.1015
38264SOL    HW219478   6.675   2.290   3.992 -0.0650  0.7951 -1.2298
38265SOL     OW19479   7.851   7.147   4.033  0.4229 -0.0609 -0.4608
38265SOL    HW119480   7.920   7.088   4.063  0.2653 -0.4593 -0.8625
38265SOL    HW219481   7.891   7.234   4.035  1.0675 -0.3316 -1.0496
38266SOL     OW19482   4.358  11.880   0.964 -0.2311  0.4532 -0.5336
38266SOL    HW119483   4.307  11.947   0.918 -0.1834  1.6956  1.1079
38266SOL    HW219484   4.348  11.903   1.057  0.5007 -1.3334  0.0192
38267SOL     OW19485   1.317   9.775   7.885  0.0491  0.0298  0.0201
38267SOL    HW119486   1.381   9.830   7.930 -0.0119  0.4473 -0.3882
38267SOL    HW219487   1.256   9.748   7.953  0.6751 -0.4047  0.4245
38268SOL     OW19488   3.341   9.543  10.173  0.0757  0.3195 -0.4960
38268SOL    HW119489   3.333   9.458  10.129 -0.2115 -0.1497  0.4271
38268SOL    HW219490   3.337   9.521  10.266  1.8978  1.1525 -0.1912
38269SOL     OW19491   3.626   1.658  10.630  0.8693 -0.3636  0.1277
38269SOL    HW119492   3.544   1.612  10.611  1.0436 -0.6096 -0.0211
38269SOL    HW219493   3.645   1.708  10.551  0.4428  0.3307  0.4464
38270SOL     OW19494   0.725   1.097  10.918  0.0457 -0.1866  0.4379
38270SOL    HW119495   0.663   1.170  10.920  0.4066  0.1155  0.6248
38270SOL    HW219496   0.678   1.025  10.958 -0.3550 -0.0895  0.1494
38271SOL     OW19497   6.595   2.291   6.847  0.0074  0.2015 -0.2071
38271SOL    HW119498   6.573   2.373   6.892 -0.5734  0.6298 -1.2187
38271SOL    HW219499   6.669   2.313   6.791 -0.6052  0.2450 -1.0258
38272SOL     OW19500  11.190   1.014   1.144  0.6066  0.0872  0.3634
38272SOL    HW119501  11.138   1.060   1.078  0.6226 -0.2189  0.1306
38272SOL    HW219502  11.134   1.009   1.221 -0.0236 -0.9425 -0.1414
38273SOL     OW19503   4.738   3.280  11.736  0.2458  0.4335 -0.1819
38273SOL    HW119504   4.803   3.235  11.791 -0.6506  0.3296  0.8197
38273SOL    HW219505   4.710   3.355  11.788 -0.7303  0.2528 -0.4249
38274SOL     OW19506  10.673   3.301   8.899  0.6552 -0.2961  0.5437
38274SOL    HW119507  10.753   3.270   8.857 -0.2502 -0.1896 -1.4133
38274SOL    HW219508  10.661   3.243   8.974  2.4124 -0.4648  0.7285
38275SOL     OW19509   3.136   9.075   3.198  1.1075  0.6689 -0.3404
38275SOL    HW119510   3.167   8.987   3.220  1.2158  0.5740 -0.8613
38275SOL    HW219511   3.158   9.086   3.106  0.5723  1.0215 -0.4326
38276SOL     OW19512   5.668   8.245  11.067 -0.0404 -0.4762 -0.0341
38276SOL    HW119513   5.654   8.321  11.010 -1.7748 -0.4407  0.3781
38276SOL    HW219514   5.682   8.283  11.154  0.1188 -0.6011 -0.0059
38277SOL     OW19515   6.470   4.931   4.657 -0.3776 -0.4075 -0.1929
38277SOL    HW119516   6.564   4.930   4.671 -0.6860 -0.7453  2.2486
38277SOL    HW219517   6.435   4.979   4.732 -2.1779 -0.4492 -0.9510
38278SOL     OW19518   5.489  11.457   9.025  0.0699  0.7723  0.0614
38278SOL    HW119519   5.438  11.376   9.033 -0.0061  0.4761 -2.5502
38278SOL    HW219520   5.425  11.526   9.044 -0.0214  0.2895  1.6871
38279SOL     OW19521   2.659   2.523   3.417  0.2495  0.0354  0.3854
38279SOL    HW119522   2.647   2.435   3.382 -1.6243 -0.0344  1.0858
38279SOL    HW219523   2.587   2.574   3.381  1.8477  1.5947 -0.8017
38280SOL     OW19524   4.335   6.503   8.006  0.5693 -0.4450  0.3542
38280SOL    HW119525   4.366   6.559   8.077  1.6492 -0.0680 -0.3969
38280SOL    HW219526   4.246   6.480   8.032  0.2399  1.2694  0.8854
38281SOL     OW19527   5.757   3.910   8.700  0.6600  0.6003 -0.6326
38281SOL    HW119528   5.673   3.891   8.657  1.1564 -0.1946 -1.2662
38281SOL    HW219529   5.759   4.006   8.707 -1.5428  0.5682  1.9049
38282SOL     OW19530   2.649   6.837   7.555 -0.3017  0.3516 -0.7998
38282SOL    HW119531   2.561   6.833   7.594 -0.4692  0.3204 -1.1679
38282SOL    HW219532   2.677   6.746   7.550 -1.1060  0.1397 -2.5424
38283SOL     OW19533   1.773   7.306   0.321 -0.1427 -0.0340 -0.1384
38283SOL    HW119534   1.717   7.233   0.292 -1.5402  1.0666 -0.3251
38283SOL    HW219535   1.802   7.281   0.408  0.9836 -1.6625 -0.9197
38284SOL     OW19536   7.151   4.910  11.359  0.1381 -0.0014 -0.4070
38284SOL    HW119537   7.190   4.826  11.336  0.1432 -0.3488  0.7906
38284SOL    HW219538   7.134   4.904  11.453  0.3716  1.4273 -0.2448
38285SOL     OW19539   0.133   2.783   2.473  0.0617  0.2379  0.5866
38285SOL    HW119540   0.157   2.765   2.383 -1.7494  1.1638 -0.1213
38285SOL    HW219541   0.043   2.752   2.481  0.7275 -1.4268  2.6084
38286SOL     OW19542   3.866  10.614   4.395 -0.2863  0.2551  0.1459
38286SOL    HW119543   3.782  10.644   4.361 -1.2969 -1.8988  0.5782
38286SOL    HW219544   3.888  10.677   4.464 -1.8658  0.5054  0.4564
38287SOL     OW19545   5.529   6.339   2.476 -0.2290  0.0685 -0.4977
38287SOL    HW119546   5.465   6.348   2.546 -0.2111  1.5729 -0.6419
38287SOL    HW219547   5.613   6.326   2.521 -0.3919 -0.2292 -0.2789
38288SOL     OW19548   4.077   3.404  10.568 -0.1232 -0.6246  0.6391
38288SOL    HW119549   4.143   3.450  10.620 -0.0763  0.7122 -0.5347
38288SOL    HW219550   4.125   3.374  10.490 -0.7946  0.0605 -0.0600
38289SOL     OW19551   9.201   3.725   0.108  0.1359 -0.0268  0.1850
38289SOL    HW119552   9.109   3.710   0.131 -0.3237  1.4190 -0.6040
38289SOL    HW219553   9.234   3.783   0.177  0.2259  0.1159  0.0228
38290SOL     OW19554   3.396   7.781   6.306 -0.0469  0.4655  0.5024
38290SOL    HW119555   3.360   7.781   6.217  2.4521  1.5959 -0.6285
38290SOL    HW219556   3.468   7.718   6.302  0.1553  0.5996  1.7105
38291SOL     OW19557   4.493   2.632   1.108  0.0286  0.0340  0.2146
38291SOL    HW119558   4.453   2.703   1.158  0.1959 -0.3664  0.9328
38291SOL    HW219559   4.422   2.568   1.096  0.1377 -0.1275  0.4329
38292SOL     OW19560   9.812   8.253   8.800  0.4523 -0.6054  0.1430
38292SOL    HW119561   9.770   8.267   8.715  2.3310 -1.3665 -0.9573
38292SOL    HW219562   9.849   8.165   8.794  1.1385 -0.4377  1.5352
38293SOL     OW19563   3.658   5.987   0.387  0.1520 -0.2622  0.2019
38293SOL    HW119564   3.663   5.924   0.459  1.0399 -0.3625  0.0751
38293SOL    HW219565   3.649   6.071   0.430  1.3458 -0.2514  0.4877
38294SOL     OW19566   1.514  10.118   8.157  0.0214 -0.4910 -0.0730
38294SOL    HW119567   1.587  10.120   8.095  0.9731  0.6370  1.0387
38294SOL    HW219568   1.532  10.188   8.218 -1.2310 -1.1635  1.1337
38295SOL     OW19569   2.529   9.132   0.600 -0.3461  0.5007 -0.7322
38295SOL    HW119570   2.498   9.185   0.673  1.8152 -0.6229  1.1265
38295SOL    HW219571   2.537   9.194   0.527 -0.6937  2.0767  0.5114
38296SOL     OW19572   5.680   0.875  10.287  0.3145  0.1622  0.1475
38296SOL    HW119573   5.644   0.837  10.207 -0.2174 -2.6846  1.6217
38296SOL    HW219574   5.772   0.848  10.287  0.4664  0.6687  0.2236
38297SOL     OW19575   9.005  10.061   5.780  0.1215 -0.5126 -0.1273
38297SOL    HW119576   9.052   9.988   5.821 -1.0569 -1.1862  0.0379
38297SOL    HW219577   9.043  10.068   5.692  0.9007 -0.6886  0.1831
38298SOL     OW19578   1.559  11.407   8.649 -0.0276  0.2885 -0.1708
38298SOL    HW119579   1.487  11.413   8.712  0.7453 -1.1175  0.9033
38298SOL    HW219580   1.550  11.319   8.611  0.3913  0.5721 -0.9431
38299SOL     OW19581   7.365   9.134   2.951  0.1189  0.1504  0.2896
38299SOL    HW119582   7.354   9.050   2.907  0.3458  0.1425  0.2459
38299SOL    HW219583   7.449   9.167   2.919 -1.3996  1.9116 -2.2747
38300SOL     OW19584   4.835   6.500   4.568 -0.2812 -0.3286  0.1308
38300SOL    HW119585   4.746   6.497   4.531  0.1673 -0.3682 -0.9744
38300SOL    HW219586   4.868   6.412   4.557  0.4347  0.0479 -0.8462
38301SOL     OW19587   3.312   9.519   4.208  0.0516 -0.3694 -0.2397
38301SOL    HW119588   3.220   9.541   4.192 -0.1213 -2.0555 -1.9233
38301SOL    HW219589   3.332   9.559   4.293 -1.6822  1.5852 -0.6831
38302SOL     OW19590   5.263  11.807   3.614  0.5389 -0.3928 -0.4141
38302SOL    HW119591   5.287  11.714   3.620  0.2511 -0.4043  0.7189
38302SOL    HW219592   5.180  11.814   3.661  1.3459  0.7073  0.9467
38303SOL     OW19593   1.952   6.867   3.133  0.1148 -0.1725 -0.0223
38303SOL    HW119594   1.917   6.882   3.045 -0.6726 -2.3230 -0.1525
38303SOL    HW219595   2.016   6.797   3.121  0.6088  0.0865  1.0128
38304SOL     OW19596   6.496   1.837   2.879  0.1306 -0.4194  0.6358
38304SOL    HW119597   6.578   1.792   2.859  0.1555 -0.7710  1.4456
38304SOL    HW219598   6.454   1.781   2.945 -0.6765 -0.1518  0.3635
38305SOL     OW19599   3.932   2.531  10.380  0.2254 -0.1461 -0.2831
38305SOL    HW119600   3.915   2.606  10.436 -0.4668 -1.1272  0.8606
38305SOL    HW219601   3.949   2.569  10.293 -1.9789  1.2308 -0.1808
38306SOL     OW19602   4.841   4.868  10.222  0.3137  0.2078  0.1599
38306SOL    HW119603   4.879   4.781  10.233  0.9123  0.3304 -0.8110
38306SOL    HW219604   4.746   4.854  10.223  0.4069 -0.4217  0.2031
38307SOL     OW19605   9.873   7.966   1.207  0.4486  0.4892  0.0220
38307SOL    HW119606   9.950   7.959   1.263  0.1098 -0.3646  0.4024
38307SOL    HW219607   9.850   8.059   1.208  0.7746  0.5640  0.8515
38308SOL     OW19608   8.548   2.185   3.613  0.5028  0.2154 -0.2439
38308SOL    HW119609   8.456   2.201   3.631  0.9978  1.8475  1.0079
38308SOL    HW219610   8.574   2.255   3.553  1.7340  2.0096  2.2060
38309SOL     OW19611  10.449   5.829   4.827 -0.7380 -0.0191  0.0799
38309SOL    HW119612  10.535   5.848   4.788 -0.4420  2.3967  1.6326
38309SOL    HW219613  10.387   5.878   4.773 -1.0970 -1.2889 -0.6900
38310SOL     OW19614   5.808   0.408   1.041 -0.8021  0.4348 -0.1072
38310SOL    HW119615   5.880   0.346   1.032 -1.5853 -0.3438 -1.3616
38310SOL    HW219616   5.783   0.403   1.133 -0.4878 -0.7040 -0.0700
38311SOL     OW19617   4.814   6.477   0.434 -0.0290 -0.4215  0.2142
38311SOL    HW119618   4.719   6.484   0.444 -0.1555 -1.3319 -0.2605
38311SOL    HW219619   4.840   6.562   0.398 -0.9110 -0.7493 -1.3165
38312SOL     OW19620  10.445   0.684   5.929  0.4860 -0.1771 -0.7105
38312SOL    HW119621  10.498   0.613   5.893 -0.2396  0.3035 -2.9276
38312SOL    HW219622  10.359   0.645   5.945  0.8438 -0.4191  0.6869
38313SOL     OW19623   7.361  10.333   5.728  0.6375  0.0456  0.2502
38313SOL    HW119624   7.370  10.267   5.660  0.7196  0.8822 -0.5632
38313SOL    HW219625   7.368  10.284   5.810  2.3555 -0.7453 -0.3309
38314SOL     OW19626   8.209  10.146  11.165 -0.2521 -0.2200  0.2639
38314SOL    HW119627   8.271  10.079  11.140  0.0276  0.2770 -0.4223
38314SOL    HW219628   8.213  10.210  11.094  0.0805  0.9223  1.2703
38315SOL     OW19629   4.117  11.769   2.671  0.4453 -0.1717  0.1996
38315SOL    HW119630   4.078  11.814   2.746  2.5323 -0.4063  1.4915
38315SOL    HW219631   4.098  11.826   2.597 -1.5692  0.1367  0.8781
38316SOL     OW19632   5.268  11.421   5.568 -0.3540 -0.4239  0.2034
38316SOL    HW119633   5.268  11.505   5.613 -0.7689  0.1586 -0.8632
38316SOL    HW219634   5.271  11.356   5.639 -0.4689  0.4692  1.0452
38317SOL     OW19635   2.855   3.950   4.640  0.1356 -0.6377 -0.0178
38317SOL    HW119636   2.893   4.032   4.610 -0.1996 -0.2804  0.5306
38317SOL    HW219637   2.897   3.933   4.725 -0.6354 -0.4343  0.4148
38318SOL     OW19638   1.302   7.629   4.484  0.3258 -0.3672 -0.3359
38318SOL    HW119639   1.341   7.703   4.439 -0.8703 -0.3144 -1.3402
38318SOL    HW219640   1.210   7.628   4.455  0.2403 -2.0696 -0.1471
38319SOL     OW19641   6.464   6.479   2.483  0.0119 -0.4821  0.2594
38319SOL    HW119642   6.445   6.557   2.430 -0.9936 -1.0441 -0.2269
38319SOL    HW219643   6.559   6.469   2.477  0.2765  1.2142  1.0695
38320SOL     OW19644   7.274   1.876   9.232  0.6026  0.3810 -0.4173
38320SOL    HW119645   7.198   1.896   9.177  0.8221  0.5047 -0.6811
38320SOL    HW219646   7.253   1.917   9.317 -0.6936 -1.6436  0.3010
38321SOL     OW19647   4.688   9.258   0.137  0.0455  0.3380 -0.1811
38321SOL    HW119648   4.597   9.228   0.134  0.0736  0.0147  1.2148
38321SOL    HW219649   4.692   9.312   0.216  1.6363 -1.7195  1.2488
38322SOL     OW19650   3.676   4.680   8.995 -1.3609  0.2365 -0.0037
38322SOL    HW119651   3.595   4.702   8.949 -0.5013  0.8492 -1.2891
38322SOL    HW219652   3.689   4.752   9.056 -1.3579  0.5830 -0.4043
38323SOL     OW19653   5.040  10.722   6.416  0.1539  0.0855 -0.4368
38323SOL    HW119654   5.116  10.709   6.359  0.2256  0.0641 -0.3372
38323SOL    HW219655   5.009  10.810   6.394  1.3196  0.8562  0.8091
38324SOL     OW19656  10.369   9.427   5.640 -1.0545  0.2932 -0.5856
38324SOL    HW119657  10.375   9.332   5.646 -1.0857  0.2924 -0.5668
38324SOL    HW219658  10.408   9.460   5.721 -0.1725  0.3269 -1.0184
38325SOL     OW19659   9.631   3.910   6.713 -0.0692 -0.1326  0.5598
38325SOL    HW119660   9.693   3.896   6.642 -1.0822 -0.3744 -0.3003
38325SOL    HW219661   9.673   3.974   6.770  2.0756 -2.1650  1.3830
38326SOL     OW19662  11.556   6.755   9.634  0.0741 -0.1839  0.1421
38326SOL    HW119663  11.582   6.831   9.581  1.0003 -0.1322  0.6415
38326SOL    HW219664  11.527   6.690   9.570 -1.6860  0.9221 -0.2447
38327SOL     OW19665   1.340   9.592   2.649 -0.3893  0.2947  0.4955
38327SOL    HW119666   1.346   9.613   2.742  0.2251 -2.9093  1.2942
38327SOL    HW219667   1.252   9.556   2.638 -0.4596  0.6576 -0.1652
38328SOL     OW19668   6.856   3.347   5.666  0.2137 -0.5031 -0.2205
38328SOL    HW119669   6.887   3.436   5.647  1.9535 -1.5338 -2.7258
38328SOL    HW219670   6.935   3.300   5.693 -0.5813 -1.4767  0.5066
38329SOL     OW19671   2.655   6.861   6.310  0.0152  0.6954  1.0394
38329SOL    HW119672   2.698   6.886   6.228  0.4481  0.5177  1.2063
38329SOL    HW219673   2.575   6.914   6.312 -0.3447  0.2129  0.1838
38330SOL     OW19674   7.247   9.450   5.070  0.0949 -0.2390  0.0178
38330SOL    HW119675   7.192   9.528   5.076 -1.1023 -0.9426 -1.4334
38330SOL    HW219676   7.283   9.452   4.982 -0.7612 -1.8245 -0.4082
38331SOL     OW19677   4.185   6.089   2.313  0.0078  0.3024  0.2166
38331SOL    HW119678   4.245   6.163   2.325 -1.6897  1.9292 -0.8680
38331SOL    HW219679   4.123   6.119   2.246 -2.3304 -1.0959  1.6444
38332SOL     OW19680   1.682   6.784   6.062 -0.9486 -0.4516 -0.3004
38332SOL    HW119681   1.713   6.871   6.086 -1.8166 -0.5659  1.3919
38332SOL    HW219682   1.588   6.785   6.083 -0.6783 -2.2821  1.3414
38333SOL     OW19683   0.607   4.975  10.730 -0.9649 -0.3027  0.3308
38333SOL    HW119684   0.609   5.015  10.817  1.9697  2.9048 -0.9643
38333SOL    HW219685   0.694   4.936  10.719 -1.8714 -2.1879 -0.6168
38334SOL     OW19686   6.501  11.918   2.897  0.2155 -0.1689  0.3183
38334SOL    HW119687   6.484  11.946   2.807  1.5403  2.0541  0.7087
38334SOL    HW219688   6.559  11.842   2.887  0.7877  0.3775 -0.7177
38335SOL     OW19689  11.622   1.291   4.826  0.2185  0.0528 -0.6045
38335SOL    HW119690  11.553   1.300   4.761 -0.8755 -0.5857  0.4357
38335SOL    HW219691  11.685   1.231   4.786 -1.6510 -2.3402 -0.1828
38336SOL     OW19692  11.246   3.907  10.273  0.7280 -0.5892 -0.5119
38336SOL    HW119693  11.208   3.991  10.248 -1.0380 -1.1325  0.1178
38336SOL    HW219694  11.335   3.908  10.238  0.0967  0.7383 -2.2110
38337SOL     OW19695   7.041  11.175   1.937  0.0931 -0.2220 -0.2753
38337SOL    HW119696   7.109  11.238   1.913 -1.1994  0.8671 -1.2600
38337SOL    HW219697   7.070  11.093   1.897  1.0494  0.1115 -0.2909
38338SOL     OW19698   5.036   4.146   7.023 -0.1818 -0.1390  0.4429
38338SOL    HW119699   4.944   4.154   7.000 -0.7481 -0.6318  2.3663
38338SOL    HW219700   5.083   4.181   6.947 -1.8945 -0.9309 -1.0542
38339SOL     OW19701   8.420   5.520   3.627 -0.2322  0.2148 -0.0715
38339SOL    HW119702   8.374   5.444   3.591  2.2779 -0.9883 -1.0640
38339SOL    HW219703   8.365   5.595   3.606 -2.0750 -1.1761 -0.4358
38340SOL     OW19704   6.817   9.579   1.687 -0.7409  0.4600  0.4251
38340SOL    HW119705   6.887   9.624   1.638 -0.3521 -0.4050  0.1782
38340SOL    HW219706   6.799   9.500   1.636 -1.7858  0.5736  0.5843
38341SOL     OW19707   9.957   1.239   5.314  0.5135  0.7382  0.3954
38341SOL    HW119708   9.959   1.214   5.221 -3.1227 -0.2480  0.4345
38341SOL    HW219709  10.040   1.207   5.349  1.3538 -0.2011 -2.1986
38342SOL     OW19710   1.463   2.844   7.665  0.2949  0.1702 -1.1264
38342SOL    HW119711   1.534   2.908   7.653  2.2248 -1.3863  0.9983
38342SOL    HW219712   1.485   2.772   7.606  0.6274 -0.3908 -0.3376
38343SOL     OW19713   0.395   8.998  10.857  0.5683 -0.0801 -0.3702
38343SOL    HW119714   0.462   8.930  10.851  0.0211 -0.4791 -3.2100
38343SOL    HW219715   0.380   9.025  10.767 -2.4538  0.6414  0.2418
38344SOL     OW19716   4.753  10.739   8.992  0.0386 -0.7450  0.9822
38344SOL    HW119717   4.696  10.751   9.068  0.0316  2.9425  0.5528
38344SOL    HW219718   4.694  10.736   8.917  0.1823  2.8213  0.5621
38345SOL     OW19719   7.713   9.324   6.480  0.5513 -0.1304  0.1814
38345SOL    HW119720   7.789   9.343   6.534  0.2894 -1.6258  1.1140
38345SOL    HW219721   7.700   9.404   6.428  0.2679  1.7564  2.9499
38346SOL     OW19722  10.485   3.601   7.219  0.0240  0.3711  0.1143
38346SOL    HW119723  10.521   3.690   7.210  0.4558  0.1280 -0.6551
38346SOL    HW219724  10.496   3.562   7.132  1.1149 -0.9210  0.7911
38347SOL     OW19725   5.440   2.378   3.158  0.5905  0.0849  0.3103
38347SOL    HW119726   5.368   2.331   3.117 -0.0450  1.1282  0.1828
38347SOL    HW219727   5.519   2.333   3.127 -0.0248 -1.9579  1.5915
38348SOL     OW19728   7.955   2.287   2.080 -0.0679  0.5287 -0.1149
38348SOL    HW119729   7.935   2.377   2.055 -2.4548 -0.0671 -0.6504
38348SOL    HW219730   8.002   2.294   2.163  0.0698  2.2597 -0.3151
38349SOL     OW19731   6.807   6.749  11.286 -0.2087  0.5494  0.3820
38349SOL    HW119732   6.899   6.724  11.284 -0.2645  0.3265 -1.6241
38349SOL    HW219733   6.760   6.667  11.303 -0.1309  0.2471 -0.8166
38350SOL     OW19734   6.107   0.661   7.739  0.4973 -0.2739 -0.0953
38350SOL    HW119735   6.137   0.640   7.827  1.0645  1.0398  0.0453
38350SOL    HW219736   6.048   0.735   7.751  0.4233 -0.2143 -0.7964
38351SOL     OW19737   1.037   4.403   2.529 -0.0475 -0.0141  0.4812
38351SOL    HW119738   1.127   4.435   2.526  0.6449 -1.6762  1.7208
38351SOL    HW219739   1.039   4.331   2.592 -2.3661  0.2310  0.9357
38352SOL     OW19740   7.903   3.544   1.017  0.1271 -0.1720  0.1929
38352SOL    HW119741   7.934   3.633   1.027  1.2641 -0.2210 -2.1474
38352SOL    HW219742   7.925   3.500   1.099  0.3590  1.4401  1.0205
38353SOL     OW19743   4.639   6.962   2.044  0.8692  0.0757 -0.0621
38353SOL    HW119744   4.698   7.036   2.057  0.7246  0.1863 -0.0379
38353SOL    HW219745   4.670   6.896   2.106  0.3833  0.4776  0.6135
38354SOL     OW19746   9.033   0.480   3.647 -0.1631 -0.6375 -0.1714
38354SOL    HW119747   8.984   0.433   3.580 -1.0470 -0.1135  0.0950
38354SOL    HW219748   9.123   0.481   3.613 -0.4520 -1.0199 -0.9941
38355SOL     OW19749   7.253   2.794   9.620  0.4962 -1.1666 -0.2555
38355SOL    HW119750   7.182   2.840   9.666  1.1004 -1.1368  0.6600
38355SOL    HW219751   7.321   2.860   9.610  1.2963 -1.7826  0.9003
38356SOL     OW19752   0.156  11.485   8.475 -0.3403  0.2803  0.0613
38356SOL    HW119753   0.246  11.456   8.464 -0.4091  0.1160 -0.0659
38356SOL    HW219754   0.114  11.416   8.525 -0.7458 -0.3013 -1.0529
38357SOL     OW19755   3.831   3.109   0.912  0.1454 -0.0410 -0.0408
38357SOL    HW119756   3.810   3.045   0.844 -0.3700  0.3093 -0.2108
38357SOL    HW219757   3.780   3.081   0.988  2.1023 -1.5210  0.8230
38358SOL     OW19758   7.034   1.282   6.056  0.4354  0.0313  0.1826
38358SOL    HW119759   7.068   1.321   5.975 -0.7250  0.2521 -0.2149
38358SOL    HW219760   6.981   1.208   6.027 -0.0440  0.1517  0.7292
38359SOL     OW19761   5.317   4.708   7.501 -0.1477  0.2814 -0.3836
38359SOL    HW119762   5.349   4.798   7.493 -0.1726  0.3038 -0.2308
38359SOL    HW219763   5.223   4.718   7.520 -0.1834  0.2207 -0.5243
38360SOL     OW19764   4.402   3.693   5.858 -0.2085  0.5680 -0.2037
38360SOL    HW119765   4.477   3.635   5.852 -0.6806  0.0559 -3.9472
38360SOL    HW219766   4.334   3.641   5.902  0.4520 -0.4011 -0.3062
38361SOL     OW19767   3.931   6.870  11.992  0.1048 -0.0970  0.1299
38361SOL    HW119768   3.943   6.850  11.899  0.0369 -1.0700  0.3110
38361SOL    HW219769   4.009   6.833  12.034 -0.5493 -0.9711  0.6152
38362SOL     OW19770   8.466   0.876  11.854  0.3710 -0.6196 -0.4745
38362SOL    HW119771   8.413   0.842  11.926 -0.6586 -0.3731 -1.1002
38362SOL    HW219772   8.519   0.945  11.893 -1.4691  0.7432 -0.2881
38363SOL     OW19773  11.550   6.453   4.689  0.4872  1.1074  0.8315
38363SOL    HW119774  11.634   6.410   4.676 -0.5396 -1.0867  1.0075
38363SOL    HW219775  11.571   6.532   4.740  2.6708  1.8547 -1.0354
38364SOL     OW19776   8.916   5.040   7.961 -0.6411  0.5398 -0.0483
38364SOL    HW119777   8.828   5.047   7.998 -0.9777 -0.4720 -0.6130
38364SOL    HW219778   8.948   4.956   7.994  0.2317  1.0330  0.3870
38365SOL     OW19779   2.454  10.658   9.329  0.3954 -0.1840  0.5832
38365SOL    HW119780   2.472  10.592   9.261  0.3679 -0.3211  0.7092
38365SOL    HW219781   2.469  10.742   9.285  0.7405 -0.2810  0.5107
38366SOL     OW19782   0.392   5.923  10.810 -0.0105  0.3558  0.4532
38366SOL    HW119783   0.373   5.950  10.720  1.5383  0.4599  0.1309
38366SOL    HW219784   0.352   5.991  10.865  0.7857  1.3853 -0.2296
38367SOL     OW19785   8.357   7.751   9.876  0.2001 -0.1142  0.8430
38367SOL    HW119786   8.371   7.750   9.781  0.8032 -0.6519  0.9324
38367SOL    HW219787   8.381   7.663   9.904 -0.4289 -0.1048  1.4361
38368SOL     OW19788   9.647   3.555   8.036 -0.2793  0.0049  0.5728
38368SOL    HW119789   9.564   3.522   8.071  0.6134 -0.2888  2.5673
38368SOL    HW219790   9.714   3.507   8.085  1.0729  0.7048 -0.5265
38369SOL     OW19791  10.753   1.670   1.306 -0.1906 -0.3186  0.0905
38369SOL    HW119792  10.771   1.604   1.238 -0.5286 -0.5637  0.2402
38369SOL    HW219793  10.840   1.690   1.342  0.0402  0.0752 -0.6553
38370SOL     OW19794   7.520   7.280   0.525 -0.0649  0.1054  0.5538
38370SOL    HW119795   7.492   7.355   0.577 -1.0978  1.2188 -1.4870
38370SOL    HW219796   7.447   7.264   0.465  1.9825  0.4677 -2.2065
38371SOL     OW19797   8.832   0.680   5.884  0.1106 -0.0914 -0.7361
38371SOL    HW119798   8.891   0.682   5.959  0.5190  2.6322 -1.0144
38371SOL    HW219799   8.744   0.690   5.922  0.2377  0.3437 -0.5445
38372SOL     OW19800   8.116   2.718   1.182 -0.5932 -0.2367  0.9330
38372SOL    HW119801   8.149   2.633   1.208  0.8777  0.2092  0.6051
38372SOL    HW219802   8.025   2.701   1.154  0.2356 -2.0553 -0.9599
38373SOL     OW19803   7.131   9.203   5.040  0.8427 -0.3125  0.2549
38373SOL    HW119804   7.187   9.276   5.068 -0.0263  0.7240 -0.6440
38373SOL    HW219805   7.067   9.194   5.110  1.6102 -0.9699  0.8991
38374SOL     OW19806   3.610   8.487   4.274 -0.0538  0.5050 -0.5356
38374SOL    HW119807   3.586   8.442   4.355  1.2501 -1.3527 -1.1086
38374SOL    HW219808   3.667   8.425   4.229 -0.5763  1.5745 -2.7902
38375SOL     OW19809   0.975   9.109   0.581  0.5320 -0.3950 -0.4893
38375SOL    HW119810   0.958   9.191   0.534  1.4517  1.0910  1.6157
38375SOL    HW219811   0.991   9.136   0.671  2.2207 -2.7911  0.0123
38376SOL     OW19812   9.221   1.719   0.279 -0.0794  0.1141 -0.2792
38376SOL    HW119813   9.145   1.677   0.239  0.4402 -1.8084  0.6788
38376SOL    HW219814   9.295   1.662   0.258  0.9326  1.3226 -0.1678
38377SOL     OW19815   5.266   8.233  10.423 -0.4508 -0.0590  0.5026
38377SOL    HW119816   5.282   8.219  10.516 -2.7534  0.5516  1.0614
38377SOL    HW219817   5.287   8.325  10.408  1.6204 -0.5708 -0.0429
38378SOL     OW19818   6.709   1.522   9.412 -0.0950 -0.0238 -1.0921
38378SOL    HW119819   6.735   1.558   9.496 -2.7145 -0.4060 -0.0253
38378SOL    HW219820   6.720   1.595   9.350 -0.2151  0.9479 -0.0040
38379SOL     OW19821   9.521   6.143   1.151  0.3100 -0.1191  0.1237
38379SOL    HW119822   9.430   6.124   1.172 -0.2939  2.3770  0.0539
38379SOL    HW219823   9.536   6.101   1.066  0.7818 -4.6115  2.1035
38380SOL     OW19824  10.118   6.067  11.855  0.0151  0.4220  0.1723
38380SOL    HW119825  10.213   6.072  11.845  0.0217  1.4341  0.6301
38380SOL    HW219826  10.101   6.101  11.943 -0.8925  1.8785 -0.5142
38381SOL     OW19827  10.004   1.914   8.133  0.1310  0.0700  0.2028
38381SOL    HW119828   9.925   1.961   8.160  0.1486 -0.4886  1.2705
38381SOL    HW219829  10.037   1.875   8.213  0.9968 -0.4624 -0.3975
38382SOL     OW19830   5.794   3.836   3.639 -0.3956  0.5204 -0.0196
38382SOL    HW119831   5.753   3.843   3.553 -0.2855  0.3713 -0.0859
38382SOL    HW219832   5.736   3.780   3.689 -0.8654  1.2454  0.2547
38383SOL     OW19833   8.912   2.590   5.058 -0.8107  0.5021 -0.3394
38383SOL    HW119834   9.002   2.575   5.087 -1.1079  0.3119  0.5276
38383SOL    HW219835   8.917   2.668   5.003 -0.2695  1.1002  0.5232
38384SOL     OW19836   3.352   3.934   5.990 -0.7945  0.2969 -0.2715
38384SOL    HW119837   3.298   3.895   5.921 -0.7210  0.1505 -0.2460
38384SOL    HW219838   3.352   3.868   6.060 -0.4324  0.2174 -0.3433
38385SOL     OW19839   0.724   5.912   8.109 -0.7550  0.1669  0.3125
38385SOL    HW119840   0.714   5.954   8.023  1.2771  0.6059  0.2447
38385SOL    HW219841   0.781   5.971   8.157 -0.1703 -1.1146  1.2340
38386SOL     OW19842   2.921   5.266   1.080 -0.0871 -0.4068 -0.0950
38386SOL    HW119843   2.893   5.348   1.121 -0.1395 -0.7337  0.5308
38386SOL    HW219844   3.008   5.251   1.116 -0.8597 -1.6528  1.3466
38387SOL     OW19845   6.415   5.514   4.303 -0.1294  0.1759 -0.1451
38387SOL    HW119846   6.464   5.438   4.270 -0.4083 -0.2422  0.3793
38387SOL    HW219847   6.455   5.533   4.388 -0.4749  0.2146  0.0101
38388SOL     OW19848  11.003   0.429   0.155 -0.4509 -0.1339 -0.0028
38388SOL    HW119849  11.090   0.409   0.121  0.1481 -0.5358  1.6856
38388SOL    HW219850  10.957   0.345   0.152  0.0618 -0.4924  1.4052
38389SOL     OW19851   4.897  11.264   6.128 -0.2814 -0.1053 -0.2785
38389SOL    HW119852   4.907  11.347   6.083 -0.5264 -1.3242 -2.7663
38389SOL    HW219853   4.972  11.259   6.187  0.1827  1.4865 -0.6971
38390SOL     OW19854   6.504   1.534   1.635  0.2327 -0.1883  0.5988
38390SOL    HW119855   6.467   1.557   1.721  0.1836  0.6120  0.3702
38390SOL    HW219856   6.502   1.616   1.586  1.7786 -0.2580  0.3760
38391SOL     OW19857   9.755   8.094   0.555 -0.4165  0.0875  0.0972
38391SOL    HW119858   9.835   8.087   0.502 -0.2032  0.1685  0.4036
38391SOL    HW219859   9.725   8.004   0.566 -0.8562  0.1213 -0.7479
38392SOL     OW19860   3.742   6.237   8.421 -0.5967 -0.0240  0.2466
38392SOL    HW119861   3.675   6.283   8.372 -0.4162  0.7700  0.7351
38392SOL    HW219862   3.701   6.154   8.447 -1.8322  0.9737  1.6119
38393SOL     OW19863   2.477   2.780   9.050  0.1046 -0.3807 -0.4709
38393SOL    HW119864   2.489   2.853   8.990  0.3727 -0.2914 -0.3101
38393SOL    HW219865   2.566   2.756   9.077 -0.0076 -0.4935 -0.1984
38394SOL     OW19866   5.082   5.313   8.366  0.0759 -0.3525 -0.5285
38394SOL    HW119867   5.052   5.363   8.290 -0.3236 -1.9909 -1.5103
38394SOL    HW219868   5.152   5.366   8.403  1.2098 -0.0873 -2.8369
38395SOL     OW19869   3.384   1.468   2.108  0.8372 -0.9591 -0.4052
38395SOL    HW119870   3.346   1.485   2.194  2.8933  0.8583  0.2315
38395SOL    HW219871   3.328   1.515   2.047  1.4934  1.0003  0.4220
38396SOL     OW19872   8.598   5.874   5.209  0.2228  0.0285  0.1573
38396SOL    HW119873   8.553   5.821   5.275  0.0416  0.6488  0.5493
38396SOL    HW219874   8.593   5.822   5.128 -0.8285 -0.1097  0.2936
38397SOL     OW19875   6.945   9.206   8.922 -0.0666 -0.7296 -0.2747
38397SOL    HW119876   6.875   9.264   8.891  0.1593 -2.0767 -3.7292
38397SOL    HW219877   7.020   9.265   8.935 -0.6268  0.1552 -0.8848
38398SOL     OW19878   8.721   6.916   2.028 -0.0534  0.2909 -0.0957
38398SOL    HW119879   8.808   6.879   2.022 -0.4777 -0.7555  0.0332
38398SOL    HW219880   8.685   6.880   2.109 -1.9315 -2.2515 -1.9201
38399SOL     OW19881   5.506   7.686   1.419  0.3154 -0.5629 -0.1474
38399SOL    HW119882   5.447   7.615   1.395  0.7234 -1.1400  0.5291
38399SOL    HW219883   5.512   7.740   1.340 -1.9415  0.1151  0.0772
38400SOL     OW19884   4.797   9.178   5.652  0.6335  0.8875 -0.1265
38400SOL    HW119885   4.762   9.207   5.736  0.8460 -0.9539  0.6424
38400SOL    HW219886   4.721   9.147   5.603  0.5015  2.0142 -0.6605
38401SOL     OW19887   5.623   6.899   1.456  0.5383  0.2486  0.5912
38401SOL    HW119888   5.663   6.853   1.382  1.7904  2.0543  0.0872
38401SOL    HW219889   5.663   6.857   1.533 -1.0570 -1.8967  0.3505
38402SOL     OW19890   2.604   2.862  11.202 -0.1935 -0.3589  0.1507
38402SOL    HW119891   2.584   2.929  11.137 -0.3565 -0.3051  0.2568
38402SOL    HW219892   2.555   2.888  11.280  0.5475 -0.0415  0.5242
38403SOL     OW19893   5.282   4.182   0.047  0.2822  0.3403 -0.3362
38403SOL    HW119894   5.265   4.271   0.079  1.5812  0.3601  0.3930
38403SOL    HW219895   5.277   4.190  -0.048 -0.4175  1.0127 -0.2558
38404SOL     OW19896   7.142   7.497   0.227 -0.3126 -0.2889 -0.8593
38404SOL    HW119897   7.236   7.484   0.238 -0.4224 -0.2264  0.3231
38404SOL    HW219898   7.104   7.465   0.310 -1.4552 -1.6292 -1.8509
38405SOL     OW19899   0.824   4.077   1.862 -0.1942 -0.0449  0.2130
38405SOL    HW119900   0.884   4.152   1.858  1.2105 -1.1090  0.5460
38405SOL    HW219901   0.826   4.050   1.954 -0.2309 -0.8523 -0.0197
38406SOL     OW19902   4.711   9.280  10.322 -0.5838  0.2281 -0.0072
38406SOL    HW119903   4.648   9.340  10.281 -0.6333  0.6972  0.7462
38406SOL    HW219904   4.787   9.335  10.341 -0.2378 -0.1744 -0.2129
38407SOL     OW19905   1.263   6.466   7.833 -0.0269 -0.4288  0.3246
38407SOL    HW119906   1.203   6.538   7.852  0.6406  0.2560 -0.0907
38407SOL    HW219907   1.244   6.400   7.900 -1.5532 -0.4311 -0.0892
38408SOL     OW19908   8.153   5.325   1.789  0.4151 -0.0897  0.5761
38408SOL    HW119909   8.093   5.367   1.850  2.7903  1.0915  2.2715
38408SOL    HW219910   8.150   5.233   1.812 -1.5189 -0.2598 -0.1581
38409SOL     OW19911  11.112   4.759   8.192  0.4353  0.3847 -0.2806
38409SOL    HW119912  11.074   4.840   8.159  0.1327 -0.0257 -0.9572
38409SOL    HW219913  11.131   4.707   8.114  1.1632  0.0347  0.1119
38410SOL     OW19914   6.873  10.073   7.351  0.0554  0.4959 -0.5560
38410SOL    HW119915   6.786  10.035   7.343 -0.1172  0.8688 -0.4553
38410SOL    HW219916   6.933   9.999   7.339 -0.2816  0.0640  0.3083
38411SOL     OW19917   7.847   5.956   2.370  0.1183  0.1209 -0.0878
38411SOL    HW119918   7.816   6.041   2.399 -0.2969 -0.0757  0.0534
38411SOL    HW219919   7.917   5.933   2.431 -0.3795 -0.0429  0.4279
38412SOL     OW19920   2.868  10.875   8.870 -0.5234  0.0713 -0.6406
38412SOL    HW119921   2.889  10.968   8.861  0.0947 -0.2117 -2.5066
38412SOL    HW219922   2.842  10.865   8.962  0.0951  1.9336 -0.2248
38413SOL     OW19923   5.197   3.293   5.875 -0.4621 -0.3269 -0.2488
38413SOL    HW119924   5.191   3.200   5.898 -1.4051 -0.4806 -1.0505
38413SOL    HW219925   5.219   3.337   5.958 -1.5127 -1.1129  0.4799
38414SOL     OW19926   3.913   6.295   0.317  0.0601 -0.5304 -0.1759
38414SOL    HW119927   4.001   6.317   0.348  0.5513 -0.8828 -1.2528
38414SOL    HW219928   3.913   6.200   0.310  0.1860 -0.4457 -1.7669
38415SOL     OW19929   0.731   5.754   2.537 -0.0149  0.0044 -0.4173
38415SOL    HW119930   0.769   5.669   2.559  0.3312  0.2712  0.0331
38415SOL    HW219931   0.735   5.758   2.442 -1.6822 -1.2406 -0.5821
38416SOL     OW19932   1.831   2.178   0.517 -0.3631  0.2427  0.1378
38416SOL    HW119933   1.796   2.196   0.430 -0.3720 -0.3077  0.0256
38416SOL    HW219934   1.767   2.119   0.557  0.5460 -0.9940 -0.1630
38417SOL     OW19935   9.269   9.574   2.477 -0.1078  0.4193 -0.7195
38417SOL    HW119936   9.333   9.628   2.431  1.6299 -0.6744  0.2672
38417SOL    HW219937   9.217   9.533   2.408 -0.3985  2.0392 -1.5148
38418SOL     OW19938   5.702  10.577  11.465  0.5831  0.3890 -0.5180
38418SOL    HW119939   5.711  10.670  11.447 -0.0237  1.2850  3.1064
38418SOL    HW219940   5.791  10.545  11.471  0.8075  0.9601 -0.7465
38419SOL     OW19941   0.045   5.109   4.567 -0.6593  0.2327 -0.1613
38419SOL    HW119942  -0.047   5.101   4.592 -1.2152 -0.4935 -2.2387
38419SOL    HW219943   0.043   5.164   4.488  1.0240  2.7426  1.4109
38420SOL     OW19944   9.543   9.825   9.765 -0.0802 -0.1995 -0.1623
38420SOL    HW119945   9.525   9.747   9.712  1.1407 -0.3855 -0.3289
38420SOL    HW219946   9.506   9.897   9.714 -0.2872 -0.5445 -0.5143
38421SOL     OW19947  10.269   2.968   6.909 -0.3909  0.9505  0.3135
38421SOL    HW119948  10.340   3.031   6.899  0.5522  0.0213  0.8771
38421SOL    HW219949  10.193   3.020   6.933  0.4847  1.8188  1.2708
38422SOL     OW19950  11.329   9.522   5.976 -0.0472  0.2853 -0.8288
38422SOL    HW119951  11.239   9.499   5.998 -0.3359  0.3434 -1.8694
38422SOL    HW219952  11.324   9.612   5.943  0.6029  0.7688  0.3405
38423SOL     OW19953   3.741   2.974  11.918 -0.0277  0.0944 -0.1310
38423SOL    HW119954   3.725   2.898  11.974 -2.9732  0.6952  0.0117
38423SOL    HW219955   3.803   2.943  11.852 -0.9651 -2.3740  0.0493
38424SOL     OW19956   4.692   6.034   0.357 -0.4039 -0.3716 -0.2886
38424SOL    HW119957   4.710   5.949   0.397  1.5749 -0.1218 -0.5517
38424SOL    HW219958   4.772   6.085   0.371 -1.1739  1.1047 -1.0193
38425SOL     OW19959   0.995   1.447   3.672  0.0555  0.4059  0.3338
38425SOL    HW119960   1.055   1.379   3.641 -1.6425 -1.1179  0.2333
38425SOL    HW219961   0.913   1.401   3.688 -1.1082  2.4155  0.4588
38426SOL     OW19962   2.449   7.848   2.780 -0.0542  0.5873  0.2054
38426SOL    HW119963   2.390   7.830   2.708 -0.1471 -0.9148  0.6363
38426SOL    HW219964   2.462   7.943   2.777 -0.2132  0.5830 -1.6438
38427SOL     OW19965  11.720   8.976   5.879  0.3283  0.3894  0.0697
38427SOL    HW119966  11.753   9.056   5.921 -0.2009  0.7645 -0.2067
38427SOL    HW219967  11.688   8.923   5.952 -0.3103  0.9071  0.1848
38428SOL     OW19968   9.204   0.624  11.544  0.1090 -0.4408 -0.2964
38428SOL    HW119969   9.203   0.645  11.451 -0.6723 -1.4964 -0.5399
38428SOL    HW219970   9.200   0.528  11.548 -2.1022 -0.3621  0.8366
38429SOL     OW19971  11.579   0.087   7.868 -0.1791  0.3619  0.2541
38429SOL    HW119972  11.637   0.020   7.903 -1.5205 -1.5604 -1.0690
38429SOL    HW219973  11.633   0.136   7.805  0.6068  0.0917  0.7060
38430SOL     OW19974   1.080   0.573   1.555 -0.3264 -0.1518 -0.2078
38430SOL    HW119975   1.167   0.611   1.567 -0.9756  1.1085  0.9605
38430SOL    HW219976   1.020   0.647   1.570 -1.6070 -1.1142 -0.3908
38431SOL     OW19977   9.021   3.121  11.813 -0.5053  0.8020  0.4584
38431SOL    HW119978   9.003   3.173  11.734  0.4956  1.1059  0.4158
38431SOL    HW219979   9.109   3.148  11.840 -1.4690  1.9555  2.6617
38432SOL     OW19980   8.667   3.152   8.238 -0.6411 -0.0578 -0.0464
38432SOL    HW119981   8.623   3.067   8.238 -0.7492  0.0001  0.3692
38432SOL    HW219982   8.697   3.163   8.147  0.1713 -0.9593  0.0990
38433SOL     OW19983   9.178   7.722   3.251 -0.7853 -0.2461 -0.3694
38433SOL    HW119984   9.256   7.676   3.220 -0.3578 -1.3054  2.0276
38433SOL    HW219985   9.199   7.814   3.240 -0.6776 -0.5176 -3.0435
38434SOL     OW19986   9.071   3.781   9.750 -0.0631 -0.1094 -0.2532
38434SOL    HW119987   9.165   3.787   9.770  0.2150  0.3869 -1.6183
38434SOL    HW219988   9.028   3.799   9.834  1.0538 -1.6471  0.7025
38435SOL     OW19989   3.185   6.057   3.163 -0.2769 -0.0618 -0.1104
38435SOL    HW119990   3.135   5.983   3.197  0.9898 -0.5644  0.7386
38435SOL    HW219991   3.271   6.021   3.145 -0.4253  0.5768 -2.3671
38436SOL     OW19992   1.617   5.886  11.212  0.7219  0.3672  0.1132
38436SOL    HW119993   1.538   5.850  11.171  1.3717 -1.6987  0.5245
38436SOL    HW219994   1.640   5.960  11.157 -0.8531  0.3162 -0.6928
38437SOL     OW19995   0.326   4.426   3.314  0.0051 -0.1201  0.6853
38437SOL    HW119996   0.298   4.338   3.289 -1.2479 -0.1239  1.9771
38437SOL    HW219997   0.290   4.484   3.247  0.6905 -0.5453 -0.0762
38438SOL     OW19998   8.384   1.822   9.793 -0.6859 -0.3837  0.1522
38438SOL    HW119999   8.415   1.771   9.718 -0.9814 -0.0619 -0.1929
38438SOL    HW220000   8.310   1.872   9.759 -0.4622  0.2049  0.5065
38439SOL     OW20001   6.069  11.443  11.105  0.0140  0.1187 -0.1596
38439SOL    HW120002   6.100  11.489  11.027  2.4764  0.6350  1.0278
38439SOL    HW220003   6.029  11.511  11.159 -1.4545 -0.1938 -0.8078
38440SOL     OW20004   8.607   7.006   9.611  0.1010  0.6873  0.4267
38440SOL    HW120005   8.692   6.988   9.649 -1.0196  0.3149  2.9408
38440SOL    HW220006   8.618   7.090   9.566  2.2698 -0.3283 -1.1143
38441SOL     OW20007  10.392   7.797   3.345 -0.1138  0.0653 -0.1438
38441SOL    HW120008  10.451   7.873   3.348 -1.1989  0.9230  1.8747
38441SOL    HW220009  10.316   7.824   3.397 -1.4820 -1.6762 -1.1223
38442SOL     OW20010   0.578  10.536  11.030  0.0652 -0.2030  0.1207
38442SOL    HW120011   0.554  10.445  11.013 -0.0997 -0.0410 -0.5600
38442SOL    HW220012   0.654  10.531  11.087  1.3926 -0.8256 -1.6018
38443SOL     OW20013   7.618   9.615   7.047 -0.2648 -0.0696  1.2106
38443SOL    HW120014   7.703   9.656   7.060 -0.9450  1.4333  1.0582
38443SOL    HW220015   7.575   9.620   7.132 -0.3355 -0.5430  1.2090
38444SOL     OW20016   3.880  11.382   9.151  0.2358 -0.0442 -0.1197
38444SOL    HW120017   3.795  11.412   9.120  0.5402  2.1377  0.9314
38444SOL    HW220018   3.942  11.411   9.083  0.3065 -0.3188 -0.1753
38445SOL     OW20019   4.807   0.695  11.367  0.2061 -0.0501 -0.7424
38445SOL    HW120020   4.736   0.756  11.346  0.2356  0.5497  0.7794
38445SOL    HW220021   4.884   0.734  11.325 -0.1463 -0.1166 -1.4641
38446SOL     OW20022   5.644   1.253  11.572  0.2077  0.4149 -0.5032
38446SOL    HW120023   5.608   1.164  11.577  0.8238  0.0754 -1.6961
38446SOL    HW220024   5.715   1.253  11.636 -1.8857  1.1415  1.9909
38447SOL     OW20025   1.005   9.573   8.868 -0.6099  0.0716  0.5099
38447SOL    HW120026   0.921   9.546   8.832 -0.2360  0.8934 -1.0472
38447SOL    HW220027   1.042   9.631   8.802  1.1303 -0.1744  1.2239
38448SOL     OW20028   6.675  10.640   8.184  0.1196 -0.3469  0.2263
38448SOL    HW120029   6.676  10.610   8.094  4.2537 -0.0056 -0.0184
38448SOL    HW220030   6.709  10.729   8.181  2.1308 -0.9507  2.2196
38449SOL     OW20031   7.984  10.591   8.350 -0.3059  0.2660  0.0652
38449SOL    HW120032   8.010  10.510   8.308  1.1095  0.4488  0.5416
38449SOL    HW220033   8.041  10.598   8.427 -0.1050  1.9011 -0.1938
38450SOL     OW20034   2.861  11.814   7.236 -0.7028  0.0255  0.1603
38450SOL    HW120035   2.922  11.744   7.256  1.6504  1.7427 -0.5154
38450SOL    HW220036   2.841  11.854   7.320 -0.4782 -0.2373  0.3383
38451SOL     OW20037   6.886  11.266   5.360 -0.4079  0.0683  0.2006
38451SOL    HW120038   6.893  11.256   5.266  0.3559 -0.4283  0.3041
38451SOL    HW220039   6.838  11.348   5.372  0.3040  0.6118 -0.6040
38452SOL     OW20040   8.770   5.465  10.495 -0.3366  0.3057 -0.2770
38452SOL    HW120041   8.770   5.516  10.413 -0.4959 -1.3136 -1.3236
38452SOL    HW220042   8.683   5.425  10.497 -1.2360  2.1268  1.9124
38453SOL     OW20043   0.326  10.228   8.612  0.1945 -0.1647  0.2318
38453SOL    HW120044   0.320  10.141   8.572 -0.1382 -1.0395  2.0722
38453SOL    HW220045   0.318  10.289   8.539 -2.3286 -1.6372 -0.8564
38454SOL     OW20046   3.066   9.267   6.993 -0.0542  0.0192  0.0692
38454SOL    HW120047   3.079   9.336   7.058  2.3816  0.7203 -1.0255
38454SOL    HW220048   3.048   9.189   7.044  3.4837  0.1539  1.8654
38455SOL     OW20049   8.446  10.573   1.301 -0.6044  0.0070 -0.2935
38455SOL    HW120050   8.412  10.607   1.218 -0.3786  0.4372 -0.2136
38455SOL    HW220051   8.539  10.597   1.300 -0.2132 -1.4531 -0.6635
38456SOL     OW20052   2.478   3.460  10.828  0.1134 -0.5192 -0.7455
38456SOL    HW120053   2.441   3.545  10.854  0.0870 -0.4621 -0.9669
38456SOL    HW220054   2.551   3.447  10.889  0.7351  0.1299 -1.3280
38457SOL     OW20055   1.350   1.418   5.820  0.0370 -0.3913  0.7697
38457SOL    HW120056   1.310   1.503   5.801 -0.1043 -0.5707  0.2490
38457SOL    HW220057   1.290   1.377   5.881  0.2329 -0.0197  1.2252
38458SOL     OW20058   6.297   7.067   2.019 -0.0491 -0.1947  0.3736
38458SOL    HW120059   6.255   7.004   1.961  1.1444 -2.5169  1.8916
38458SOL    HW220060   6.381   7.086   1.977 -0.2053  0.0219  0.1562
38459SOL     OW20061   6.398   4.592   1.394  0.3154  0.2459 -0.2681
38459SOL    HW120062   6.311   4.561   1.417 -0.5808  1.5031 -1.8457
38459SOL    HW220063   6.449   4.581   1.475 -1.1303 -1.0182  0.5168
38460SOL     OW20064   5.777   0.559  10.279  0.1180 -0.0906 -0.2203
38460SOL    HW120065   5.740   0.536  10.364  2.4529 -0.7922  0.6791
38460SOL    HW220066   5.818   0.644  10.293  1.2228 -0.5788 -0.3705
38461SOL     OW20067  10.275   5.098   6.382  0.2122  0.0602  0.2454
38461SOL    HW120068  10.258   5.020   6.436  0.1984  0.1015  0.3011
38461SOL    HW220069  10.188   5.137   6.371  0.1771 -0.0890 -0.0214
38462SOL     OW20070   1.229   3.198   1.747 -0.2146  0.2509  0.3941
38462SOL    HW120071   1.303   3.241   1.790 -0.6448  1.0508  0.3514
38462SOL    HW220072   1.181   3.155   1.818  0.8706 -1.1859  0.2938
38463SOL     OW20073   2.089   9.817   0.762  0.1786  0.0833 -0.0233
38463SOL    HW120074   2.166   9.861   0.728  0.4027 -1.0187 -0.9916
38463SOL    HW220075   2.015   9.866   0.724  0.3935  0.6298  0.2484
38464SOL     OW20076   5.809   9.145   9.429  0.4359  0.4171  0.4249
38464SOL    HW120077   5.755   9.152   9.508  1.0016 -2.6029  1.1859
38464SOL    HW220078   5.898   9.162   9.460  0.4370  1.3185 -0.0299
38465SOL     OW20079   1.622  10.646   4.744  0.5735  0.0920 -0.0054
38465SOL    HW120080   1.695  10.687   4.790  0.8897 -0.0385 -0.3820
38465SOL    HW220081   1.620  10.557   4.779 -0.1062  0.4140  0.8041
38466SOL     OW20082   2.077   7.189   5.210 -0.1667 -0.3580  0.1158
38466SOL    HW120083   2.004   7.236   5.251 -0.8249 -0.7331 -0.5827
38466SOL    HW220084   2.132   7.162   5.283  0.4491  1.8144  0.5240
38467SOL     OW20085   6.071   1.676   4.366  0.4514  0.6142  0.0108
38467SOL    HW120086   5.992   1.663   4.419  0.8044  1.8786  0.9039
38467SOL    HW220087   6.049   1.751   4.310  0.2948 -0.3418 -1.2394
38468SOL     OW20088  11.259  10.770   2.183  0.2213  0.0419 -0.6530
38468SOL    HW120089  11.316  10.735   2.115 -0.5464 -1.6786 -0.4481
38468SOL    HW220090  11.170  10.750   2.152 -0.1624 -0.1137  0.5059
38469SOL     OW20091   1.085   0.475   6.579  0.0224  0.0039  0.7251
38469SOL    HW120092   1.071   0.518   6.664  0.6000  1.8341 -0.0606
38469SOL    HW220093   1.104   0.547   6.519 -1.2836 -1.1622 -1.1810
38470SOL     OW20094   1.082   0.282   9.843 -0.0885  0.2692 -0.1493
38470SOL    HW120095   1.056   0.212   9.903  1.2465  1.2751  1.7218
38470SOL    HW220096   1.166   0.313   9.878  0.1270  1.7408 -1.8486
38471SOL     OW20097   7.869   5.069  10.850  0.1185 -1.3359 -0.1540
38471SOL    HW120098   7.916   5.037  10.773 -4.4834 -3.1465 -2.6017
38471SOL    HW220099   7.825   5.148  10.820 -2.4109 -2.5120  0.2019
38472SOL     OW20100   8.458   1.131   1.827 -0.1210  0.7881 -0.3097
38472SOL    HW120101   8.365   1.127   1.848  0.1570 -0.4724  0.8074
38472SOL    HW220102   8.481   1.223   1.840 -0.7552  0.7156  1.5269
38473SOL     OW20103   5.742   9.884   0.668  0.1098 -0.1567 -0.2159
38473SOL    HW120104   5.680   9.913   0.734  1.7489 -1.4171  2.0127
38473SOL    HW220105   5.712   9.796   0.643  0.1871 -0.1891 -0.1991
38474SOL     OW20106   2.288   1.182   3.871 -0.0977  0.3784 -0.4142
38474SOL    HW120107   2.316   1.272   3.887 -0.6979  0.5154 -0.0907
38474SOL    HW220108   2.369   1.132   3.867  0.1992  0.7765  0.3869
38475SOL     OW20109   2.482   2.722   2.607  0.0990  0.0394  0.0414
38475SOL    HW120110   2.455   2.679   2.688  0.4937 -1.7641 -0.7214
38475SOL    HW220111   2.421   2.688   2.541  0.2663  0.8747 -0.5528
38476SOL     OW20112   3.410   5.434  11.102 -0.4860  0.2156  0.3342
38476SOL    HW120113   3.395   5.339  11.098 -0.7129  0.2578  0.1960
38476SOL    HW220114   3.463   5.446  11.180  1.6931 -0.3262 -0.9546
38477SOL     OW20115   5.056   0.097   1.235 -0.7900  0.3330 -0.1754
38477SOL    HW120116   5.104   0.088   1.153  2.1420 -0.3742  1.4645
38477SOL    HW220117   5.086   0.024   1.289 -1.8025  1.3379  1.8973
38478SOL     OW20118   7.650   4.717  11.901 -0.6523  0.0362 -0.3253
38478SOL    HW120119   7.598   4.797  11.904  0.1704  0.5590  0.6871
38478SOL    HW220120   7.586   4.646  11.901 -1.3841  0.6809 -0.9767
38479SOL     OW20121   2.954  11.569   4.997  0.4777  0.9053 -0.0474
38479SOL    HW120122   3.028  11.577   4.936 -0.4455  0.3975 -1.2768
38479SOL    HW220123   2.949  11.475   5.015 -0.8366  0.6955 -1.2743
38480SOL     OW20124   9.933   7.133   1.203  0.1595  0.0239 -0.1825
38480SOL    HW120125   9.986   7.054   1.209 -0.0473 -0.1677 -0.7760
38480SOL    HW220126   9.866   7.122   1.271  1.6576  0.8969  1.5065
38481SOL     OW20127   8.500  10.711   0.551 -0.1900  0.3343  0.5638
38481SOL    HW120128   8.442  10.696   0.477  0.9374  0.6213 -0.4047
38481SOL    HW220129   8.488  10.803   0.574 -0.8067  0.1562  0.9951
38482SOL     OW20130   5.699   7.278  10.791 -0.3280 -0.4527  0.4112
38482SOL    HW120131   5.662   7.190  10.789 -1.7945  0.1276  0.6238
38482SOL    HW220132   5.735   7.287  10.879 -2.2400 -0.0708  1.2049
38483SOL     OW20133   2.075  10.277   6.390  0.9531 -0.2340  0.5476
38483SOL    HW120134   2.087  10.234   6.474  1.8281  0.7356  0.9417
38483SOL    HW220135   2.135  10.352   6.392 -0.6599  1.1560  0.0124
38484SOL     OW20136   1.344   2.988   1.277 -0.0036 -0.6085  0.0032
38484SOL    HW120137   1.410   3.054   1.255 -0.8342 -0.2415 -1.5441
38484SOL    HW220138   1.323   3.005   1.369  0.6314  0.5421 -0.0376
38485SOL     OW20139   1.907   4.514   7.433  0.2526  0.3164  0.4104
38485SOL    HW120140   1.981   4.512   7.373 -0.3440 -1.6764 -0.3446
38485SOL    HW220141   1.924   4.443   7.495 -1.2944 -0.5862 -0.1491
38486SOL     OW20142   5.118   0.173   5.187 -0.0647  0.2506  0.0934
38486SOL    HW120143   5.154   0.168   5.098  0.4627  0.9397  0.2501
38486SOL    HW220144   5.050   0.240   5.182 -0.6142 -0.3030  0.0331
38487SOL     OW20145  10.057   8.312  10.141 -0.0481  0.4063 -0.3220
38487SOL    HW120146   9.971   8.283  10.172  0.7561 -0.4386  1.2257
38487SOL    HW220147  10.089   8.239  10.087  0.4459 -0.0906  0.6124
38488SOL     OW20148   7.007   4.815   9.136  0.2269 -0.1290  0.2295
38488SOL    HW120149   7.094   4.856   9.134 -0.5062  1.4757 -1.0327
38488SOL    HW220150   6.961   4.860   9.207 -0.1569  0.3359 -0.3059
38489SOL     OW20151  10.270   9.674  10.027 -0.3308  0.0771  0.2614
38489SOL    HW120152  10.211   9.601  10.047 -0.8548  0.3550 -0.2260
38489SOL    HW220153  10.342   9.664  10.088 -0.1231 -1.1663 -0.1637
38490SOL     OW20154   3.647  11.972   3.297 -0.4390  0.3389 -0.1611
38490SOL    HW120155   3.737  11.981   3.265 -0.6898 -1.4483 -1.5406
38490SOL    HW220156   3.635  11.878   3.309 -1.8321  0.6286  0.9792
38491SOL     OW20157   2.360   1.782   4.723  0.1976 -0.0612 -0.2539
38491SOL    HW120158   2.404   1.705   4.760  1.3443  0.7352  0.0802
38491SOL    HW220159   2.299   1.810   4.791 -0.1481 -0.6174 -0.3350
38492SOL     OW20160   3.065   9.055   5.159  0.6641  0.2615 -0.3324
38492SOL    HW120161   3.004   9.004   5.212  0.8442 -1.5922 -1.8105
38492SOL    HW220162   3.027   9.143   5.157 -1.8861 -0.7647 -1.0157
38493SOL     OW20163   4.116   5.660   7.361 -0.6296  0.5668 -0.0784
38493SOL    HW120164   4.204   5.641   7.393 -0.7618  1.0060  0.5720
38493SOL    HW220165   4.127   5.737   7.305 -0.5261  0.3189 -0.3988
38494SOL     OW20166   8.321   2.091   4.712 -0.7391  0.3878 -0.7122
38494SOL    HW120167   8.351   2.071   4.801  0.2583  0.0848 -1.1113
38494SOL    HW220168   8.314   2.006   4.669  0.7632  0.6576 -1.5397
38495SOL     OW20169  10.967   0.057   8.936  0.2865 -0.1946  0.2889
38495SOL    HW120170  11.031  -0.015   8.932  0.1806 -0.2761  0.0659
38495SOL    HW220171  11.016   0.134   8.907 -0.1783 -0.5737 -1.6812
38496SOL     OW20172   6.274  11.773   2.705 -0.1634  0.3991  0.0120
38496SOL    HW120173   6.323  11.855   2.707  0.2352  0.1592  0.1782
38496SOL    HW220174   6.225  11.772   2.787 -0.7771  0.8274 -0.3298
38497SOL     OW20175   2.625   6.558   1.360  0.0141  0.3609 -0.0222
38497SOL    HW120176   2.662   6.505   1.290 -0.1087 -0.4188  0.4899
38497SOL    HW220177   2.699   6.611   1.391  0.4242 -0.3330  0.2091
38498SOL     OW20178   5.407   9.037   7.227  0.0265  0.4444  0.3989
38498SOL    HW120179   5.457   8.995   7.296  0.2681 -1.6975 -0.9672
38498SOL    HW220180   5.344   8.970   7.199  0.1594  1.0838 -1.6348
38499SOL     OW20181  10.604  11.227   4.573 -0.4664  0.3859  0.8652
38499SOL    HW120182  10.605  11.321   4.559  0.2826  0.0967 -1.5386
38499SOL    HW220183  10.574  11.191   4.489  1.0440 -1.5784  1.1030
38500SOL     OW20184   1.125   0.109  10.736 -0.1351  0.0640  0.1409
38500SOL    HW120185   1.198   0.128  10.677 -0.7348 -0.3169 -0.7442
38500SOL    HW220186   1.048   0.115  10.680 -0.8616  1.2709  1.2460
38501SOL     OW20187   8.759   7.538  11.084  0.2476 -0.1023 -0.1746
38501SOL    HW120188   8.791   7.558  10.996  2.8941  0.9243  0.9187
38501SOL    HW220189   8.784   7.447  11.098  0.3047 -0.1056 -0.2968
38502SOL     OW20190   0.028   3.211   3.684  0.4012  0.0915 -0.0767
38502SOL    HW120191   0.081   3.162   3.622 -3.0795 -1.2980 -2.2440
38502SOL    HW220192   0.017   3.151   3.758 -1.2505 -1.3089 -1.3566
38503SOL     OW20193   3.636  10.223   6.312 -0.0804  0.3847 -0.4144
38503SOL    HW120194   3.629  10.281   6.236  1.6727 -0.7296 -1.5122
38503SOL    HW220195   3.726  10.190   6.308 -0.1572 -0.2222  1.7890
38504SOL     OW20196   8.515  11.190   0.431 -0.2608  0.7419 -0.1252
38504SOL    HW120197   8.460  11.169   0.355 -1.6460  0.6136  0.8663
38504SOL    HW220198   8.571  11.262   0.401 -2.1778  2.0828 -0.6938
38505SOL     OW20199   9.379   0.226   2.413  0.0465  0.6046 -0.0696
38505SOL    HW120200   9.364   0.142   2.457 -0.2689  0.9373  0.4743
38505SOL    HW220201   9.445   0.207   2.347  0.8760  0.1844  0.8545
38506SOL     OW20202   9.881   5.061  10.681  0.0374 -0.3220  0.8664
38506SOL    HW120203   9.856   4.973  10.653  0.8513 -0.3205  0.0979
38506SOL    HW220204   9.925   5.099  10.605  0.4033  0.4567  1.4547
38507SOL     OW20205   6.643   8.514   1.020 -0.3648 -0.1276 -0.1538
38507SOL    HW120206   6.585   8.462   1.076 -0.5840 -0.2126 -0.4569
38507SOL    HW220207   6.730   8.476   1.033 -0.7831 -1.7743 -1.7341
38508SOL     OW20208   5.281   0.334   7.295 -0.2501  1.0508  0.3112
38508SOL    HW120209   5.192   0.370   7.287  0.0112  1.3994 -1.6495
38508SOL    HW220210   5.334   0.389   7.237  1.0791  0.3117  0.7942
38509SOL     OW20211   8.577  11.349  10.791 -0.3283 -0.0434  0.4968
38509SOL    HW120212   8.594  11.396  10.709 -0.3515 -1.5084 -0.3889
38509SOL    HW220213   8.611  11.261  10.775 -3.3889 -1.3781  0.8137
38510SOL     OW20214   0.129   5.338   6.318 -0.3174 -0.0517 -0.0878
38510SOL    HW120215   0.194   5.337   6.389 -0.7199  1.2633  0.3319
38510SOL    HW220216   0.050   5.300   6.357 -0.1483 -0.5741 -0.2472
38511SOL     OW20217   4.974   2.685   9.640  0.4517  0.6797  0.6649
38511SOL    HW120218   5.016   2.655   9.720  2.0731  0.2106 -0.3244
38511SOL    HW220219   4.997   2.619   9.574 -3.3016 -0.5850  0.4023
38512SOL     OW20220   4.625   6.622   8.007 -0.0630  0.0413  0.3496
38512SOL    HW120221   4.548   6.603   7.954 -0.7686 -0.6237  1.5597
38512SOL    HW220222   4.679   6.543   8.000 -0.1193 -0.0151  0.5571
38513SOL     OW20223   1.058   7.654   4.386  0.2516 -0.6812 -0.4704
38513SOL    HW120224   1.044   7.692   4.299  2.4570  0.8762 -0.2469
38513SOL    HW220225   0.996   7.700   4.443 -0.5201 -0.9975 -1.0459
38514SOL     OW20226   8.451   3.046  11.079 -0.7010  0.4074 -0.7869
38514SOL    HW120227   8.459   3.138  11.104 -0.4351 -0.0209  0.7941
38514SOL    HW220228   8.440   2.999  11.162  0.1015 -1.0907 -1.4860
38515SOL     OW20229   4.985   4.206   0.669  0.1685 -0.1318  0.4624
38515SOL    HW120230   5.062   4.187   0.722  0.6723  0.4486 -0.0464
38515SOL    HW220231   5.020   4.234   0.585 -0.6082 -0.1518  0.1216
38516SOL     OW20232   7.233   9.345   8.429  0.4537  0.0871  0.4664
38516SOL    HW120233   7.232   9.433   8.390  0.9018  0.3231  0.9670
38516SOL    HW220234   7.284   9.355   8.509 -0.4462 -0.3942  1.1192
38517SOL     OW20235   2.737   9.026   3.884 -0.0151 -0.3000  0.3410
38517SOL    HW120236   2.764   9.052   3.972 -1.7081  1.0697  0.5117
38517SOL    HW220237   2.644   9.049   3.880  0.6857  2.7673 -2.8712
38518SOL     OW20238   4.736   8.637   9.606 -0.0608 -0.3282 -0.0658
38518SOL    HW120239   4.649   8.600   9.624 -0.3338  0.5112  0.3805
38518SOL    HW220240   4.723   8.731   9.606  0.8767 -0.1871  0.0939
38519SOL     OW20241   4.763   7.171   0.782  0.2015  0.2155  0.0889
38519SOL    HW120242   4.718   7.248   0.817 -0.5498 -0.9099  1.6981
38519SOL    HW220243   4.798   7.126   0.858  1.4446 -0.5557 -0.9048
38520SOL     OW20244   3.864   4.460   3.985 -0.3782  0.4547 -0.7703
38520SOL    HW120245   3.865   4.530   4.050  0.2648  0.7434 -1.0820
38520SOL    HW220246   3.950   4.420   3.991 -0.7624 -0.3660 -0.5472
38521SOL     OW20247   1.578   3.481  11.104 -0.2422 -0.5822 -0.0138
38521SOL    HW120248   1.557   3.412  11.041  0.1638 -2.3751  1.7361
38521SOL    HW220249   1.625   3.437  11.174  1.9667  1.8441  0.2082
38522SOL     OW20250   7.788   1.029   9.767  0.6040  0.0032 -0.7757
38522SOL    HW120251   7.774   0.963   9.698 -3.8092  0.4535 -0.5903
38522SOL    HW220252   7.778   0.980   9.849 -0.0787  0.4428 -0.5924
38523SOL     OW20253   9.807   9.266   5.993 -0.3417  0.4611 -0.0011
38523SOL    HW120254   9.899   9.273   6.021 -0.0256 -0.1434 -0.8283
38523SOL    HW220255   9.807   9.299   5.903 -1.2447  1.9063  0.5089
38524SOL     OW20256  11.090   3.391   4.364  0.3120  0.0304  0.4266
38524SOL    HW120257  11.044   3.370   4.282 -0.1511 -0.7939  0.8763
38524SOL    HW220258  11.131   3.308   4.390  0.4531  0.2807  1.0244
38525SOL     OW20259   2.469   9.200   7.921 -0.3325  0.3077  0.0391
38525SOL    HW120260   2.511   9.121   7.886  1.5356  1.2576  0.0232
38525SOL    HW220261   2.418   9.234   7.848 -0.6137 -0.5205 -0.1614
38526SOL     OW20262   2.204   8.603   5.025  0.0362 -0.2392  0.5472
38526SOL    HW120263   2.242   8.605   4.937  0.6097 -1.6124  0.7331
38526SOL    HW220264   2.112   8.581   5.011 -0.2732  1.1478  0.2167
38527SOL     OW20265  11.676   2.126   3.938  0.2115  0.0819 -0.0888
38527SOL    HW120266  11.602   2.070   3.914 -0.3345  0.0176  1.6231
38527SOL    HW220267  11.751   2.087   3.893 -0.5045 -0.8483 -0.5107
38528SOL     OW20268   1.938   3.437   7.031 -0.3206 -0.3120  0.1034
38528SOL    HW120269   1.856   3.486   7.028  0.0558  0.2941 -0.7743
38528SOL    HW220270   2.006   3.504   7.043  0.0533 -0.8115  0.9059
38529SOL     OW20271   8.571   8.601  11.481 -0.1176 -0.4335  0.2504
38529SOL    HW120272   8.637   8.667  11.459  0.3422 -0.7392  0.6851
38529SOL    HW220273   8.598   8.567  11.566 -1.3499  0.0683  0.8670
38530SOL     OW20274   2.657   9.398   7.518  0.0901  0.8623 -0.1026
38530SOL    HW120275   2.579   9.388   7.463  0.6364  0.1673 -0.7605
38530SOL    HW220276   2.704   9.472   7.480 -0.8340  2.1150  1.0433
38531SOL     OW20277   5.003   8.111   6.004  0.2195 -0.2478  0.1140
38531SOL    HW120278   4.930   8.116   5.941  0.8607  0.4592 -0.5860
38531SOL    HW220279   4.988   8.184   6.063  1.0650  0.7102 -0.8210
38532SOL     OW20280   3.700   7.776   2.599 -0.5938 -0.0366  0.1646
38532SOL    HW120281   3.617   7.810   2.565 -0.9980  1.1545  2.1780
38532SOL    HW220282   3.690   7.681   2.594 -0.5312  0.0372 -3.0676
38533SOL     OW20283   5.800   4.481   1.499  0.6615  0.8869 -0.7069
38533SOL    HW120284   5.888   4.448   1.516  0.6682  1.2005 -0.0866
38533SOL    HW220285   5.813   4.556   1.440  0.7332  0.4237 -1.2822
38534SOL     OW20286   1.950  10.135   0.753  0.2471 -0.6094  0.1816
38534SOL    HW120287   1.902  10.077   0.693  0.8865 -1.4869  0.4907
38534SOL    HW220288   2.041  10.131   0.722  0.5450 -0.8936  1.0522
38535SOL     OW20289   2.345   9.628   4.064  0.4929  0.5461  0.2256
38535SOL    HW120290   2.332   9.596   4.154  3.4990  0.8093  0.8685
38535SOL    HW220291   2.358   9.722   4.074  0.0285  0.7019 -0.6138
38536SOL     OW20292   8.293   1.154  10.112  0.4470  0.0416  0.2736
38536SOL    HW120293   8.286   1.172  10.205 -1.2610 -2.8207  0.8195
38536SOL    HW220294   8.233   1.080  10.097 -0.6806  1.4576 -3.4123
38537SOL     OW20295  10.633  11.460   1.701 -0.1999  0.6037  0.2535
38537SOL    HW120296  10.695  11.529   1.726 -0.0512  0.4608  0.2874
38537SOL    HW220297  10.578  11.448   1.778 -1.1627  1.6816 -0.2458
38538SOL     OW20298   3.624   5.147   3.251  0.0298 -0.1734  0.8578
38538SOL    HW120299   3.531   5.137   3.272 -0.6637  1.2632 -1.2496
38538SOL    HW220300   3.632   5.236   3.218  1.7524 -0.9427 -0.9615
38539SOL     OW20301   5.369   9.092   4.859 -0.1036  0.1981  0.2095
38539SOL    HW120302   5.404   9.029   4.922  1.2226 -0.0194 -0.6997
38539SOL    HW220303   5.388   9.053   4.774 -1.3602  0.7590 -0.3529
38540SOL     OW20304   4.570   2.889  10.113  0.2756  0.6145 -0.2102
38540SOL    HW120305   4.571   2.950  10.187 -0.0586  1.6447 -1.0280
38540SOL    HW220306   4.481   2.895  10.079  0.1213 -0.6528 -0.0636
38541SOL     OW20307   6.178   0.473   7.324  0.2938 -0.3409  0.2938
38541SOL    HW120308   6.097   0.459   7.373  0.7766 -0.8962  0.9470
38541SOL    HW220309   6.245   0.425   7.373  1.0159  0.0796 -0.2557
38542SOL     OW20310  10.129   2.296   4.744  0.4779  0.1440 -0.5403
38542SOL    HW120311  10.148   2.221   4.688  0.6864 -0.8979  0.8524
38542SOL    HW220312  10.200   2.295   4.809 -0.9944 -0.1186  1.1220
38543SOL     OW20313   8.324  10.799   9.930  0.0054 -0.0470  0.2614
38543SOL    HW120314   8.303  10.857   9.857  0.3113  1.1862  1.1105
38543SOL    HW220315   8.305  10.852  10.008 -0.7029 -1.4543  1.0956
38544SOL     OW20316   8.104   0.706   4.219  0.2775 -0.0702  0.3060
38544SOL    HW120317   8.082   0.786   4.170 -0.4074 -0.9305 -0.8327
38544SOL    HW220318   8.072   0.723   4.308 -1.2937  0.3248 -0.3099
38545SOL     OW20319  11.840   5.772   2.278  0.4195 -0.4168 -0.2284
38545SOL    HW120320  11.876   5.855   2.247  1.1647 -0.7827 -0.3486
38545SOL    HW220321  11.753   5.768   2.238 -0.4228  1.1826  1.2563
38546SOL     OW20322  11.619  10.414   9.157  0.4078  0.2894  0.1763
38546SOL    HW120323  11.625  10.321   9.133  0.7279 -0.0675  1.5674
38546SOL    HW220324  11.710  10.441   9.169  0.2250  0.1776  1.9568
38547SOL     OW20325   8.943  11.765   8.092  0.2924  0.1717  0.0381
38547SOL    HW120326   9.019  11.757   8.150 -0.0200  2.2479  0.8408
38547SOL    HW220327   8.896  11.683   8.103  1.2786 -0.2717  1.2406
38548SOL     OW20328   0.746   6.330   8.296 -0.1021  0.3905  0.4114
38548SOL    HW120329   0.755   6.408   8.241  0.3869  0.7988  1.0661
38548SOL    HW220330   0.657   6.300   8.279  0.4509 -0.2919 -1.6495
38549SOL     OW20331   5.894   2.419   2.383  0.0327 -1.0002  0.0708
38549SOL    HW120332   5.989   2.426   2.381  0.1277 -1.1564  2.2824
38549SOL    HW220333   5.876   2.329   2.411 -0.7888 -1.0553 -0.5692
38550SOL     OW20334  11.859   0.882   0.134 -0.3838  0.3973  0.0711
38550SOL    HW120335  11.775   0.866   0.090  0.0009  0.9833 -0.9010
38550SOL    HW220336  11.903   0.947   0.079  0.8350 -0.1064  0.4233
38551SOL     OW20337   9.732   0.888   3.942  0.0920 -0.0478  0.1361
38551SOL    HW120338   9.703   0.900   4.033  1.6515  1.4253  0.5025
38551SOL    HW220339   9.826   0.905   3.945  0.6582 -2.5022 -1.3396
38552SOL     OW20340   2.173   9.566   4.826  0.2779 -0.3758 -0.9587
38552SOL    HW120341   2.256   9.578   4.870 -0.3959 -0.0389  0.2534
38552SOL    HW220342   2.138   9.484   4.862  0.2485 -0.7205 -1.7438
38553SOL     OW20343   8.676   6.726   1.842 -0.1093 -0.5831 -0.1954
38553SOL    HW120344   8.748   6.664   1.857  0.6782 -0.0491 -1.5571
38553SOL    HW220345   8.687   6.792   1.910 -0.8355 -1.7940  1.1482
38554SOL     OW20346   0.851  10.693   5.518  0.2141  0.2180  0.0320
38554SOL    HW120347   0.883  10.758   5.580 -0.6321 -1.2671  2.1542
38554SOL    HW220348   0.925  10.633   5.505 -0.0272 -0.2504  0.7506
38555SOL     OW20349   0.334   9.017   0.179  0.1394  0.1574 -0.2447
38555SOL    HW120350   0.392   9.046   0.249  1.1378 -1.7061 -0.2520
38555SOL    HW220351   0.273   8.956   0.222  1.2469 -1.6079 -1.0784
38556SOL     OW20352   6.015   8.832   4.754  0.5472 -0.0109 -0.2133
38556SOL    HW120353   6.011   8.868   4.665  0.5996  1.2169  0.2569
38556SOL    HW220354   6.041   8.741   4.742  1.5041  0.3913 -1.4006
38557SOL     OW20355   0.944   8.700  11.970  0.3024  0.3429  0.0625
38557SOL    HW120356   0.919   8.673  11.882  0.6139 -0.5494  0.2363
38557SOL    HW220357   0.868   8.679  12.025  1.4620 -2.8254  0.6770
38558SOL     OW20358   9.967   5.537   4.498 -0.0511  0.1088  0.1812
38558SOL    HW120359   9.981   5.611   4.557  2.1926 -1.1471  1.3637
38558SOL    HW220360  10.055   5.512   4.470 -0.5565 -3.0991  1.1058
38559SOL     OW20361   5.270   9.646   5.408 -0.0277  0.2827  0.3557
38559SOL    HW120362   5.266   9.552   5.389  0.1408  0.0017  1.5951
38559SOL    HW220363   5.187   9.681   5.374  0.3105 -0.1376 -0.9449
38560SOL     OW20364   2.428   1.467   2.171  1.2114 -0.1638 -0.4798
38560SOL    HW120365   2.429   1.533   2.241  0.3117 -1.1410  0.4967
38560SOL    HW220366   2.383   1.510   2.098 -1.0432 -0.2256  0.7704
38561SOL     OW20367  11.531   1.067  10.226  0.0562  0.2073 -0.4290
38561SOL    HW120368  11.507   1.090  10.316  0.5145  1.1233 -0.5213
38561SOL    HW220369  11.455   1.093  10.174  0.2242  0.7253 -0.4255
38562SOL     OW20370   1.504  10.387   0.122  0.4953  0.4657 -0.5382
38562SOL    HW120371   1.471  10.312   0.171  0.8139  1.1520  0.7794
38562SOL    HW220372   1.600  10.381   0.130  0.5151  1.1605 -0.1608
38563SOL     OW20373   1.357   7.361   3.846  0.0073 -0.2140 -0.1100
38563SOL    HW120374   1.280   7.305   3.851 -0.0993 -0.0965 -0.4209
38563SOL    HW220375   1.411   7.334   3.920  0.0290 -0.8364 -0.3416
38564SOL     OW20376   4.031   7.478   2.467  0.4761  0.3574 -0.0836
38564SOL    HW120377   4.082   7.558   2.457  0.9709  0.2130  1.1379
38564SOL    HW220378   4.095   7.407   2.460 -0.1355 -0.0570 -2.5308
38565SOL     OW20379   8.768  11.106   3.734 -0.4403  0.8346  0.1682
38565SOL    HW120380   8.775  11.011   3.718 -2.3214  1.0138 -2.3645
38565SOL    HW220381   8.856  11.139   3.719 -0.3591 -0.2070 -2.1107
38566SOL     OW20382   4.127   6.057   2.927 -0.5481  0.5479 -0.2500
38566SOL    HW120383   4.193   5.988   2.922  1.1036  2.0415 -0.3666
38566SOL    HW220384   4.046   6.012   2.947  0.6576 -1.3065  0.7582
38567SOL     OW20385  11.825  10.395   4.923  0.6500 -0.6090  0.0391
38567SOL    HW120386  11.838  10.332   4.993 -1.3128 -1.4758 -0.3101
38567SOL    HW220387  11.739  10.434   4.940  0.9111  0.4584 -0.9081
38568SOL     OW20388   3.894   2.080   8.383  0.6092 -0.3988 -0.2197
38568SOL    HW120389   3.868   2.168   8.355  1.0483  0.3144  1.4732
38568SOL    HW220390   3.817   2.026   8.368 -0.0968  0.5507 -0.1317
38569SOL     OW20391   2.431   7.775   6.261 -0.2799  0.6378 -0.5217
38569SOL    HW120392   2.368   7.824   6.315 -0.0787  1.0065 -0.6119
38569SOL    HW220393   2.493   7.842   6.230 -0.2223  0.3861 -0.9687
38570SOL     OW20394  10.151   7.101   6.815 -0.0667  0.0046 -0.0769
38570SOL    HW120395  10.140   7.105   6.910  0.5836 -0.1649  0.0140
38570SOL    HW220396  10.130   7.189   6.784  3.7544  1.3911  0.6968
38571SOL     OW20397  11.127   1.177   0.257  0.6949  0.1341  0.2313
38571SOL    HW120398  11.120   1.184   0.352 -0.0460  0.9068  0.1284
38571SOL    HW220399  11.088   1.093   0.235 -1.4704  1.0472  0.3948
38572SOL     OW20400   9.154   6.135   0.554 -0.5036  0.3319 -0.4202
38572SOL    HW120401   9.210   6.161   0.627 -1.6351 -0.4186  0.7650
38572SOL    HW220402   9.095   6.209   0.541 -1.4902 -0.2297  0.6760
38573SOL     OW20403   4.521   9.241   9.030 -0.4299  0.1213 -0.2698
38573SOL    HW120404   4.582   9.171   9.006  0.3221  1.3294 -2.1072
38573SOL    HW220405   4.462   9.200   9.093  0.2500 -2.0467 -0.9296
38574SOL     OW20406   4.640   4.311   6.226  0.0551 -0.0385 -0.1289
38574SOL    HW120407   4.623   4.240   6.288 -0.9411 -0.0949 -0.4334
38574SOL    HW220408   4.733   4.328   6.233  0.7675 -2.7549 -1.4667
38575SOL     OW20409   7.881  10.807   2.895 -0.1096 -0.6427 -0.1960
38575SOL    HW120410   7.827  10.750   2.840 -0.1139 -1.1192  0.2987
38575SOL    HW220411   7.818  10.856   2.947 -0.1016 -2.8422  2.0700
38576SOL     OW20412   7.137  11.051   3.565 -0.2227 -0.6263 -0.3884
38576SOL    HW120413   7.105  11.139   3.547  1.7299  0.0390 -0.7996
38576SOL    HW220414   7.120  11.003   3.483  1.6804  0.3213 -1.4207
38577SOL     OW20415  10.983   2.264   3.867  0.4093 -0.1781 -0.0053
38577SOL    HW120416  10.905   2.305   3.831 -1.4539 -1.5251  2.2263
38577SOL    HW220417  10.969   2.170   3.856  0.9976 -0.5076  1.7294
38578SOL     OW20418   5.204   8.045   4.501  0.0028  0.6408  0.5341
38578SOL    HW120419   5.148   8.059   4.424 -1.0446  2.1330  1.5243
38578SOL    HW220420   5.273   7.988   4.469 -1.0171  0.3067 -1.2387
38579SOL     OW20421   3.765   1.347   7.186 -0.6012 -0.0393  0.3236
38579SOL    HW120422   3.747   1.371   7.095 -2.1621 -0.2520  0.5467
38579SOL    HW220423   3.728   1.259   7.194 -1.5172  0.4287  1.4574
38580SOL     OW20424  10.975   0.335   3.857 -0.0545 -0.3349  0.1342
38580SOL    HW120425  10.953   0.413   3.806 -0.3629  0.3057  1.2126
38580SOL    HW220426  11.070   0.325   3.848 -0.1997 -0.6718 -1.1535
38581SOL     OW20427   6.966  10.089   6.199  0.2235 -0.0755 -0.0403
38581SOL    HW120428   6.891  10.131   6.156  1.1555 -0.6155 -2.3119
38581SOL    HW220429   6.958  10.115   6.291 -2.6634 -0.0249 -0.2263
38582SOL     OW20430   2.131   1.480   5.270  0.1070 -0.1649  0.2621
38582SOL    HW120431   2.109   1.431   5.191 -0.9612  0.5786  0.0905
38582SOL    HW220432   2.072   1.445   5.337 -0.2753  0.5030  0.2740
38583SOL     OW20433   3.475   7.974  11.313  0.0512  0.3510  0.6279
38583SOL    HW120434   3.457   7.935  11.227 -1.3433 -0.2483  1.1493
38583SOL    HW220435   3.554   8.025  11.300 -0.7910  1.2774 -1.3455
38584SOL     OW20436   6.431   3.385  10.469  0.2514  0.5119  0.1600
38584SOL    HW120437   6.401   3.308  10.517  0.7339  0.0816 -0.2147
38584SOL    HW220438   6.479   3.350  10.394  0.4555  1.1773 -0.0328
38585SOL     OW20439   5.186   1.505   3.233 -0.4226  0.3111 -0.4023
38585SOL    HW120440   5.243   1.466   3.299  0.5180  1.8499 -0.2570
38585SOL    HW220441   5.122   1.555   3.284  1.0574  2.5338 -0.5983
38586SOL     OW20442   0.449   3.989  10.347 -0.1339 -0.5824 -0.3648
38586SOL    HW120443   0.404   3.979  10.263  0.2490  1.1032 -0.8121
38586SOL    HW220444   0.541   3.971  10.327  0.0317  0.3040 -0.4271
38587SOL     OW20445   4.523   1.685   4.538 -0.0176 -0.3523 -0.0573
38587SOL    HW120446   4.554   1.644   4.619 -1.4074 -2.2205 -0.4016
38587SOL    HW220447   4.518   1.778   4.559  0.1777 -0.7237  1.8403
38588SOL     OW20448   0.099   4.782   3.149  0.0761 -0.1361  0.5751
38588SOL    HW120449   0.127   4.707   3.203 -0.9218 -0.3898  0.7738
38588SOL    HW220450   0.125   4.859   3.200  0.7221 -0.3485  0.5761
38589SOL     OW20451  11.203  10.493   0.355  0.1979 -0.1762  0.0964
38589SOL    HW120452  11.115  10.524   0.333  0.2044 -1.0089 -1.1824
38589SOL    HW220453  11.261  10.547   0.301  0.5335  0.6748  1.2596
38590SOL     OW20454   1.436   0.753   9.396  0.0399 -0.3759 -0.0352
38590SOL    HW120455   1.452   0.672   9.444  1.9002 -0.5798 -0.8941
38590SOL    HW220456   1.360   0.734   9.341  0.7556 -1.7450 -0.5990
38591SOL     OW20457   8.082   1.241   0.093 -0.9227 -0.2142 -0.3065
38591SOL    HW120458   8.113   1.299   0.163 -1.1485 -0.0317 -0.3560
38591SOL    HW220459   8.050   1.163   0.138  2.4425 -1.8220 -0.3615
38592SOL     OW20460   7.758   4.089  11.792  0.4287  0.3934  0.3113
38592SOL    HW120461   7.762   4.118  11.701  0.7511  1.4216  0.6389
38592SOL    HW220462   7.761   3.994  11.787  0.8484  0.4456 -0.7314
38593SOL     OW20463  10.169   6.264   2.494 -0.5136  0.1915  0.5492
38593SOL    HW120464  10.176   6.284   2.588 -0.8344 -0.3530  0.6932
38593SOL    HW220465  10.090   6.210   2.487 -0.5991  0.3925 -0.0632
38594SOL     OW20466   6.980   1.304   6.751 -0.1263 -0.3698 -0.4673
38594SOL    HW120467   7.057   1.258   6.785  0.9210 -0.1498 -2.4115
38594SOL    HW220468   6.983   1.390   6.792  0.7800 -0.2976 -0.6723
38595SOL     OW20469   9.167   9.054   7.359 -0.4597 -0.2933  0.2002
38595SOL    HW120470   9.096   9.115   7.337  0.9986  1.3651 -0.1319
38595SOL    HW220471   9.126   8.968   7.359 -2.6042  0.6713  0.6594
38596SOL     OW20472   9.047   8.018   6.196  0.1722  0.6089  0.1380
38596SOL    HW120473   9.074   7.964   6.270 -0.0958  1.7784  1.1348
38596SOL    HW220474   9.128   8.033   6.147  1.1940  2.8656  2.2790
38597SOL     OW20475   8.919   9.906   2.068  0.5291  0.8076  0.1289
38597SOL    HW120476   8.947   9.992   2.037 -0.0740  0.5204 -1.2680
38597SOL    HW220477   8.905   9.854   1.989 -0.7012 -0.0811  0.8782
38598SOL     OW20478   1.531   8.891   5.608 -0.2332 -0.6315  0.5432
38598SOL    HW120479   1.439   8.896   5.635 -0.5313  2.4229 -0.6236
38598SOL    HW220480   1.527   8.877   5.514  0.3215  2.2148  0.0177
38599SOL     OW20481   1.319   2.489   2.667 -0.3490  0.2434 -0.0884
38599SOL    HW120482   1.254   2.500   2.597 -0.6418  0.3991  0.2078
38599SOL    HW220483   1.338   2.578   2.696 -1.4192  0.1072  1.1170
38600SOL     OW20484   6.845   2.824   6.688 -0.3167  0.2006  0.4820
38600SOL    HW120485   6.849   2.761   6.759  0.1765  1.3362  1.4891
38600SOL    HW220486   6.810   2.904   6.728  0.5773  1.0554 -0.3789
38601SOL     OW20487  11.010   3.458  11.810  0.0923 -0.0619 -0.1642
38601SOL    HW120488  10.921   3.428  11.826  1.0066 -2.8529  0.3695
38601SOL    HW220489  11.023   3.530  11.871 -1.5944 -0.0365  0.2026
38602SOL     OW20490   8.309   7.060   4.925  0.2163  0.2852  0.4557
38602SOL    HW120491   8.393   7.038   4.885 -0.1826 -1.1867  0.3631
38602SOL    HW220492   8.303   7.155   4.917  2.2084  0.5350  1.1611
38603SOL     OW20493  11.005  10.405   5.117  0.4232  0.6673  0.3763
38603SOL    HW120494  10.918  10.383   5.150  0.1604  1.0147 -0.0888
38603SOL    HW220495  11.064  10.348   5.167  0.0485  1.2900  1.5807
38604SOL     OW20496   0.221   2.082  11.037 -0.4504  0.3987  0.2578
38604SOL    HW120497   0.231   2.161  11.090  0.2460  0.8112 -0.4685
38604SOL    HW220498   0.234   2.111  10.947 -0.4234 -0.5065 -0.0473
38605SOL     OW20499  10.237  10.779   4.701  0.2429 -0.4165  0.2392
38605SOL    HW120500  10.256  10.814   4.614  2.3899 -0.3930  0.6534
38605SOL    HW220501  10.150  10.812   4.722  0.4355  1.0951 -1.1651
38606SOL     OW20502   7.011  10.156   7.961  0.2517  0.2660 -0.0145
38606SOL    HW120503   7.038  10.114   7.879 -0.5453 -0.5842  0.1472
38606SOL    HW220504   7.040  10.247   7.952 -0.5420  0.3981 -1.5980
38607SOL     OW20505  11.297   8.295   0.671  0.1987 -0.3238 -0.3326
38607SOL    HW120506  11.309   8.286   0.765 -0.6063  3.1150  0.2039
38607SOL    HW220507  11.382   8.269   0.634  0.8425 -0.8081  1.3731
38608SOL     OW20508   7.379   0.652   8.562 -0.5702  0.2733  0.1819
38608SOL    HW120509   7.309   0.665   8.498 -1.6236 -1.1447  0.9703
38608SOL    HW220510   7.454   0.625   8.510 -0.2397  2.8161 -0.7822
38609SOL     OW20511   4.779   3.777   7.407  0.3667  0.4400  0.2054
38609SOL    HW120512   4.711   3.840   7.387 -0.2703 -0.5560 -0.9246
38609SOL    HW220513   4.852   3.802   7.350  0.3155  0.4912  0.1618
38610SOL     OW20514   6.090   6.473   7.458  0.1438  0.8722 -0.0771
38610SOL    HW120515   6.057   6.446   7.372 -0.5276  0.3288  0.3346
38610SOL    HW220516   6.135   6.556   7.442  0.0127  0.7841 -0.9484
38611SOL     OW20517   5.429   8.002   6.092 -0.2456  0.1377 -0.2900
38611SOL    HW120518   5.509   7.958   6.066 -0.9371 -1.1125 -0.3751
38611SOL    HW220519   5.446   8.095   6.074  1.2759 -0.0603 -0.0046
38612SOL     OW20520   7.089   1.854   5.174  0.2157 -0.0142  0.5484
38612SOL    HW120521   7.122   1.764   5.172 -0.3323 -0.2079 -0.3323
38612SOL    HW220522   7.022   1.856   5.106 -0.1910  0.9082  0.9695
38613SOL     OW20523   5.946   2.060  10.841 -0.2577 -0.0212  0.1985
38613SOL    HW120524   5.873   2.051  10.781 -1.5773 -0.8300  1.8354
38613SOL    HW220525   5.906   2.058  10.928  1.7315 -0.8684  1.1656
38614SOL     OW20526   9.273   4.451   2.130  0.2105  0.1632  0.1059
38614SOL    HW120527   9.263   4.379   2.068 -2.5681 -0.2558  0.9079
38614SOL    HW220528   9.365   4.448   2.157  0.5673 -1.9704 -1.1686
38615SOL     OW20529   5.067   0.754   5.696 -0.8072  0.0874 -0.0054
38615SOL    HW120530   5.138   0.817   5.709 -1.7023  0.7769  1.7690
38615SOL    HW220531   5.005   0.799   5.639  0.4111 -0.7818 -2.1807
38616SOL     OW20532   6.236   0.458   3.855 -0.7024 -0.0694 -0.8030
38616SOL    HW120533   6.144   0.477   3.871 -0.4517  0.0780  0.5415
38616SOL    HW220534   6.258   0.389   3.917  0.1623  0.1069 -0.8982
38617SOL     OW20535   9.836   1.639   4.262  0.2533  0.0734 -0.0722
38617SOL    HW120536   9.904   1.575   4.283 -0.2597 -1.5877 -2.9633
38617SOL    HW220537   9.876   1.697   4.198  0.5933  2.6118  2.2528
38618SOL     OW20538   5.205   3.015  11.189 -0.7383  0.4050 -0.3348
38618SOL    HW120539   5.138   3.032  11.255 -0.3569  0.1541  0.1170
38618SOL    HW220540   5.281   3.067  11.217  0.1811 -1.3918  0.6420
38619SOL     OW20541  10.909   5.514   5.942  0.6574  0.2461 -0.2436
38619SOL    HW120542  10.997   5.480   5.951  0.0405 -1.2368  0.4199
38619SOL    HW220543  10.890   5.555   6.026  0.9974  1.3142 -0.6705
38620SOL     OW20544   2.810   5.697  10.733  0.2899  0.2781 -0.8581
38620SOL    HW120545   2.905   5.690  10.720  0.4857 -0.3461  0.7255
38620SOL    HW220546   2.776   5.611  10.709  0.1772  0.3472 -0.9479
38621SOL     OW20547   9.706   9.807   6.650 -0.2258  0.2633 -0.2436
38621SOL    HW120548   9.628   9.805   6.593  0.5583 -0.9519 -1.3426
38621SOL    HW220549   9.777   9.834   6.592  0.4569 -0.2458  0.3422
38622SOL     OW20550   2.073   8.904   3.037  0.2584 -0.1176  0.1980
38622SOL    HW120551   2.133   8.850   3.088  0.4800 -0.1474 -0.0880
38622SOL    HW220552   2.120   8.987   3.025 -0.1537  0.2053  0.7868
38623SOL     OW20553   7.704   1.128   7.611 -0.4373 -0.2894  0.5409
38623SOL    HW120554   7.644   1.067   7.654 -1.1475  0.1919  0.2543
38623SOL    HW220555   7.745   1.076   7.542 -3.2095  0.2096 -1.6530
38624SOL     OW20556  11.049   7.426   8.380 -0.5148 -0.0035  0.1846
38624SOL    HW120557  11.032   7.515   8.412 -1.9555  0.0184 -0.5502
38624SOL    HW220558  10.977   7.374   8.415 -0.1439 -0.7079 -0.0863
38625SOL     OW20559   5.323   5.497   1.124 -0.2096 -0.1041  0.2118
38625SOL    HW120560   5.238   5.492   1.080 -0.1054  0.7692 -0.1163
38625SOL    HW220561   5.312   5.447   1.205 -1.3447  0.8374  0.6608
38626SOL     OW20562   8.300   9.982   4.552  0.0219 -0.2782  0.1026
38626SOL    HW120563   8.304   9.907   4.612  0.6349 -1.2916 -1.1611
38626SOL    HW220564   8.354   9.956   4.478  2.3877  2.4621  0.7109
38627SOL     OW20565  10.136   7.458  10.843 -0.7302 -0.6194 -0.1303
38627SOL    HW120566  10.150   7.496  10.929 -1.2789 -2.0843  0.6384
38627SOL    HW220567  10.213   7.403  10.828  0.0952  0.7469 -1.2674
38628SOL     OW20568   3.046  11.835   1.719  0.1709 -0.3719  0.3634
38628SOL    HW120569   2.999  11.901   1.770  0.8312  1.4366 -1.2707
38628SOL    HW220570   3.065  11.766   1.783 -1.8571  0.2822  1.7972
38629SOL     OW20571   4.246   3.765   1.993 -0.5877 -0.5451  0.1123
38629SOL    HW120572   4.208   3.759   1.905  0.8039  0.0678 -0.5675
38629SOL    HW220573   4.333   3.726   1.984 -0.1531  0.1760  1.0394
38630SOL     OW20574   9.389   1.495   0.226  0.3405 -0.2327  0.4944
38630SOL    HW120575   9.478   1.529   0.228 -0.2537  1.5090 -0.5003
38630SOL    HW220576   9.378   1.461   0.137  0.4234 -1.7132  1.0180
38631SOL     OW20577   3.576   1.737   6.090 -0.5611  0.3451 -0.1700
38631SOL    HW120578   3.585   1.727   6.185  2.9444 -3.0671 -0.6049
38631SOL    HW220579   3.586   1.831   6.075  1.1647  0.7539  2.7145
38632SOL     OW20580   5.168   1.282   8.792 -0.2457 -0.5132  0.5374
38632SOL    HW120581   5.190   1.190   8.809 -1.4838 -0.9831 -0.2339
38632SOL    HW220582   5.135   1.314   8.875 -0.3274 -0.9347  0.6712
38633SOL     OW20583  11.744   2.249   1.203  0.0936 -0.1155 -0.2265
38633SOL    HW120584  11.779   2.214   1.121  2.2287 -0.0884  0.6104
38633SOL    HW220585  11.673   2.188   1.226  0.3795 -0.9173 -1.3698
38634SOL     OW20586   3.066   6.169   1.816  0.0735 -0.3495  0.5762
38634SOL    HW120587   3.017   6.130   1.744  0.4441 -1.0930  0.7195
38634SOL    HW220588   3.091   6.095   1.871  1.3621  0.0058  0.4998
38635SOL     OW20589   2.604   6.023   6.188  0.4843 -0.5651  0.2225
38635SOL    HW120590   2.584   6.113   6.163  0.6361 -0.7719 -0.6873
38635SOL    HW220591   2.526   5.994   6.235 -0.8420 -0.8877 -2.0313
38636SOL     OW20592   6.652   7.206   9.636 -0.0028 -0.1276 -0.0639
38636SOL    HW120593   6.607   7.283   9.671 -0.2908 -0.6239  0.6798
38636SOL    HW220594   6.583   7.155   9.595  0.4399  0.8284 -2.1467
38637SOL     OW20595   2.386   6.068   6.854  0.1283 -0.0916 -0.7476
38637SOL    HW120596   2.409   6.132   6.922 -0.4137 -1.1646  0.4821
38637SOL    HW220597   2.292   6.055   6.864  0.3821 -1.8407 -0.2546
38638SOL     OW20598   9.368   0.811  11.664 -0.0501  0.5690  0.3864
38638SOL    HW120599   9.305   0.744  11.638  0.3264  0.3022  0.1342
38638SOL    HW220600   9.370   0.806  11.760 -0.2607  0.4382  0.3843
38639SOL     OW20601   0.468   0.127   1.741  0.1989  0.1652  0.2691
38639SOL    HW120602   0.441   0.192   1.806 -0.6304  0.9564 -0.8212
38639SOL    HW220603   0.484   0.047   1.792  2.8848  1.5994  1.8875
38640SOL     OW20604  11.471  10.368   9.747  0.3701 -0.5330 -0.0659
38640SOL    HW120605  11.531  10.329   9.811 -0.2601  0.2364  1.0207
38640SOL    HW220606  11.445  10.451   9.786 -1.8900 -1.1052 -0.2216
38641SOL     OW20607   7.781   8.754   1.386  0.0203 -0.4177  0.0798
38641SOL    HW120608   7.826   8.793   1.461  0.2424  0.7110 -0.6131
38641SOL    HW220609   7.790   8.659   1.399 -1.9619 -0.3605  2.7003
38642SOL     OW20610   9.899   3.493   1.408  0.4566  0.1043 -0.0589
38642SOL    HW120611   9.885   3.432   1.335  0.9503  1.8704 -1.6998
38642SOL    HW220612   9.857   3.450   1.483 -0.5173 -1.5551 -1.4717
38643SOL     OW20613  11.040   2.928   6.848  0.2603 -0.2519  0.1849
38643SOL    HW120614  10.978   2.878   6.901 -0.1655  0.3866  0.3129
38643SOL    HW220615  11.005   2.922   6.759 -0.5125  0.8473  0.3893
38644SOL     OW20616   9.630   9.643  10.849 -0.0250 -0.0164 -0.1303
38644SOL    HW120617   9.638   9.693  10.930  1.1163 -0.1211 -0.1534
38644SOL    HW220618   9.608   9.708  10.783  0.6634  0.3500 -0.0153
38645SOL     OW20619   9.614   4.990   4.565 -0.0613  0.1621  0.2569
38645SOL    HW120620   9.692   5.045   4.566 -1.2890  2.0221 -0.8688
38645SOL    HW220621   9.615   4.947   4.480 -0.7897  1.0396 -0.2134
38646SOL     OW20622   4.173   7.443  10.177 -0.5172  0.1004 -0.0419
38646SOL    HW120623   4.168   7.535  10.149  1.9321  0.7444  1.3403
38646SOL    HW220624   4.234   7.402  10.115 -0.3847 -0.1889  0.2756
38647SOL     OW20625   0.113   1.063   1.202 -0.1148  0.3748  0.0767
38647SOL    HW120626   0.087   0.972   1.193  1.4860  0.1150 -3.6848
38647SOL    HW220627   0.032   1.111   1.219 -1.2396 -1.5116  0.1989
38648SOL     OW20628   7.941   2.214  10.238 -0.3367 -1.0810 -0.4714
38648SOL    HW120629   7.986   2.224  10.153 -0.6006 -0.5309 -0.5467
38648SOL    HW220630   7.848   2.208  10.215 -0.4332 -0.6354 -0.2007
38649SOL     OW20631   9.018   1.973   3.661 -0.2675  0.2448  0.3165
38649SOL    HW120632   9.050   2.001   3.747  0.3594 -1.3134  0.6115
38649SOL    HW220633   8.941   1.920   3.681  1.3898 -2.3885  0.1756
38650SOL     OW20634   2.221  10.995  10.997  0.1713 -0.3915  0.3065
38650SOL    HW120635   2.192  11.011  10.907 -0.1615 -0.4700  0.3983
38650SOL    HW220636   2.315  10.977  10.989  0.5040  1.2514  0.1628
38651SOL     OW20637   2.303   3.373  10.646 -0.2035  0.2318  0.0808
38651SOL    HW120638   2.364   3.398  10.715 -1.1830  1.2528  0.6097
38651SOL    HW220639   2.249   3.450  10.632 -2.1800 -1.0008  0.4902
38652SOL     OW20640   4.566  10.674  11.954 -0.4353 -0.2605  0.3487
38652SOL    HW120641   4.572  10.671  11.858 -1.6194  2.9310  0.0695
38652SOL    HW220642   4.657  10.689  11.982 -0.3481  0.7875 -0.4327
38653SOL     OW20643  11.971  11.700  10.972  0.2720  0.2598  0.4441
38653SOL    HW120644  12.034  11.744  11.029  0.9776 -1.5396  1.1108
38653SOL    HW220645  11.938  11.628  11.024  0.9597 -1.4832 -1.4035
38654SOL     OW20646   5.340   1.050   8.153 -0.1109  1.0918 -0.2106
38654SOL    HW120647   5.300   1.064   8.239  2.5859 -1.3812  1.6162
38654SOL    HW220648   5.387   1.131   8.135 -1.0352  1.7900  0.4385
38655SOL     OW20649   2.236  10.527   4.504  0.1165  0.0226  0.2163
38655SOL    HW120650   2.215  10.441   4.468 -0.8986  0.3154  0.0661
38655SOL    HW220651   2.212  10.588   4.434  0.9429  0.4272  0.2739
38656SOL     OW20652   2.807  10.364  12.000  0.0782 -0.1458  0.2698
38656SOL    HW120653   2.771  10.304  11.935  1.0533  1.1152 -1.5383
38656SOL    HW220654   2.769  10.449  11.978  0.8327  0.4066  1.0165
38657SOL     OW20655  10.132  11.291  10.711 -0.3536  0.1878 -0.1058
38657SOL    HW120656  10.148  11.351  10.638 -1.7545  1.3183  0.4729
38657SOL    HW220657  10.118  11.206  10.669  0.1816  0.5562 -1.0524
38658SOL     OW20658   2.653  11.765   9.147 -0.1559 -0.8362  0.2945
38658SOL    HW120659   2.672  11.673   9.164 -1.6470 -1.0180  1.1338
38658SOL    HW220660   2.580  11.764   9.086  0.4327 -0.1902 -0.4348
38659SOL     OW20661   9.517   1.099   3.831  0.0779  0.1410  0.0794
38659SOL    HW120662   9.582   1.111   3.762  1.8293  1.4775  1.8326
38659SOL    HW220663   9.543   1.018   3.874 -0.2244 -0.0078 -0.0153
38660SOL     OW20664   7.953   7.333   4.945 -0.5109 -0.3111  0.1057
38660SOL    HW120665   7.940   7.401   4.880 -1.3525  0.7955  1.3864
38660SOL    HW220666   8.048   7.331   4.960 -0.5162  0.8722  0.3481
38661SOL     OW20667   7.213   4.453   3.767 -0.1932 -0.0107  0.1887
38661SOL    HW120668   7.242   4.423   3.854  1.7687 -1.6780 -0.9354
38661SOL    HW220669   7.193   4.372   3.720 -0.4968  0.8232 -1.1641
38662SOL     OW20670   8.953   2.409   4.340 -0.2438 -0.7998  0.2922
38662SOL    HW120671   8.896   2.434   4.412 -1.2650 -1.8966 -0.1060
38662SOL    HW220672   8.908   2.439   4.261  0.3139 -0.6094  0.0381
38663SOL     OW20673  10.988   9.381   8.136  0.5774  0.5082 -0.6402
38663SOL    HW120674  10.922   9.436   8.179  1.6228  1.8104 -0.6068
38663SOL    HW220675  11.005   9.425   8.053 -0.0420 -0.9446 -1.5778
38664SOL     OW20676   1.137   1.446   0.115 -0.0615  0.1117 -0.0765
38664SOL    HW120677   1.095   1.365   0.142 -2.0483  1.1260  0.0630
38664SOL    HW220678   1.229   1.434   0.138 -0.9104 -0.5918  3.7200
38665SOL     OW20679   0.499   4.533   2.535 -0.4837  0.4549  0.0691
38665SOL    HW120680   0.458   4.454   2.569 -1.0194 -0.2315 -2.0344
38665SOL    HW220681   0.592   4.512   2.530 -0.5117  0.2688  0.3400
38666SOL     OW20682   4.747   3.079   7.795 -0.2062 -0.0620 -0.0708
38666SOL    HW120683   4.727   3.151   7.854  1.2936 -0.5721  1.1217
38666SOL    HW220684   4.835   3.098   7.762  0.3255 -1.4649  0.4786
38667SOL     OW20685   4.551   4.916   9.922  0.1812 -0.2692 -0.3810
38667SOL    HW120686   4.499   4.996   9.934  1.9609  1.0301 -1.0760
38667SOL    HW220687   4.552   4.876  10.009  0.5451  1.2766  0.3558
38668SOL     OW20688   1.815   3.352   8.526 -0.0908 -0.1812  0.0239
38668SOL    HW120689   1.838   3.340   8.618 -1.5143  0.3545  0.4719
38668SOL    HW220690   1.822   3.447   8.512  1.9002 -0.4212 -0.9449
38669SOL     OW20691   9.350   0.812   8.837 -0.5480  0.4597  0.0996
38669SOL    HW120692   9.315   0.900   8.827 -1.8388 -0.0996 -0.6495
38669SOL    HW220693   9.422   0.821   8.899 -2.4229  1.6223  2.2760
38670SOL     OW20694   3.940   3.626   2.792 -0.3279 -0.0934 -0.2150
38670SOL    HW120695   3.876   3.666   2.733 -0.0275 -2.0403 -1.9989
38670SOL    HW220696   3.952   3.537   2.757  2.8110 -0.0306  0.4542
38671SOL     OW20697   5.332   6.165  10.275 -0.7027  0.3320 -0.1193
38671SOL    HW120698   5.411   6.180  10.223 -1.5093  0.4866 -1.3633
38671SOL    HW220699   5.363   6.124  10.355  0.4846 -1.2635 -1.3337
38672SOL     OW20700   5.775   4.515   2.617 -0.7379  0.4801  0.6770
38672SOL    HW120701   5.752   4.532   2.709 -2.8009  1.2592  0.0772
38672SOL    HW220702   5.699   4.547   2.568 -0.9886 -2.5544 -1.1474
38673SOL     OW20703   2.975   5.034   6.851 -0.0292 -0.2886 -0.5966
38673SOL    HW120704   2.946   4.945   6.834 -2.5058  0.3244 -0.0727
38673SOL    HW220705   3.024   5.028   6.933  0.9690 -1.3289 -1.2414
38674SOL     OW20706   3.145   6.041   2.870  0.0592  0.5003  0.1186
38674SOL    HW120707   3.216   5.981   2.894  0.8229 -0.7277 -4.2979
38674SOL    HW220708   3.065   5.992   2.889  0.5544 -0.3224  0.1418
38675SOL     OW20709   4.244   7.436   5.038 -0.1077 -0.2661 -0.5690
38675SOL    HW120710   4.325   7.444   5.089 -0.6112 -0.2335  0.2396
38675SOL    HW220711   4.189   7.507   5.070 -0.9538 -1.0749 -0.1715
38676SOL     OW20712   3.156   6.294   4.552  0.2389  0.3542  0.5036
38676SOL    HW120713   3.184   6.251   4.632 -0.5469  1.7297  1.5624
38676SOL    HW220714   3.160   6.387   4.572  1.0325  0.7772 -1.4172
38677SOL     OW20715  10.604   2.582   1.869  0.3379  0.3804 -0.1406
38677SOL    HW120716  10.598   2.587   1.774 -0.6719 -0.6841 -0.1465
38677SOL    HW220717  10.518   2.552   1.898  0.5341  0.9630  1.1382
38678SOL     OW20718   7.334  11.174   3.254 -0.2759 -0.0663 -0.0549
38678SOL    HW120719   7.354  11.158   3.162  1.0315 -0.8047  0.3269
38678SOL    HW220720   7.328  11.269   3.260  1.8023  0.1667 -0.5398
38679SOL     OW20721   9.597   2.063  11.429 -0.2893 -0.0658  0.2194
38679SOL    HW120722   9.512   2.044  11.471  1.7066 -1.8788  3.9953
38679SOL    HW220723   9.627   2.143  11.471  0.0450  0.3751 -0.8398
38680SOL     OW20724   3.647   4.513   8.629 -0.0950 -0.0899  0.1318
38680SOL    HW120725   3.716   4.576   8.650 -0.3011  0.4920 -0.8730
38680SOL    HW220726   3.592   4.511   8.707 -1.1116  2.3434 -0.4316
38681SOL     OW20727   3.488   5.765   8.200 -0.0632 -0.4692 -0.3266
38681SOL    HW120728   3.509   5.792   8.111 -2.1733  0.8807 -0.4988
38681SOL    HW220729   3.513   5.841   8.254 -3.2434  0.8340 -0.4450
38682SOL     OW20730   3.408   9.660   2.928 -0.2326 -1.1172 -0.3005
38682SOL    HW120731   3.322   9.698   2.946 -0.7798 -2.3698 -0.1701
38682SOL    HW220732   3.413   9.658   2.832 -1.5215 -3.4496 -0.4026
38683SOL     OW20733   0.288   1.070   1.565 -0.0191 -0.3791 -0.1822
38683SOL    HW120734   0.306   1.156   1.526 -0.7979  0.5795  1.4514
38683SOL    HW220735   0.194   1.070   1.581  0.4082  0.0159  3.0937
38684SOL     OW20736   0.678   0.792   4.477  0.2879 -0.1037 -0.5131
38684SOL    HW120737   0.603   0.828   4.524  0.8915  0.9140 -0.3098
38684SOL    HW220738   0.662   0.697   4.475 -0.0775 -0.1034  1.1741
38685SOL     OW20739  11.778   3.521   8.673  0.0006  0.3421  0.3102
38685SOL    HW120740  11.712   3.507   8.606  0.5298 -0.1722 -0.1157
38685SOL    HW220741  11.768   3.448   8.734  1.5371 -0.9712 -0.9055
38686SOL     OW20742   9.405   3.707   7.812  0.4431  0.1765 -0.1120
38686SOL    HW120743   9.320   3.662   7.822  0.7552 -0.2308  0.9059
38686SOL    HW220744   9.469   3.641   7.839  0.8576  1.4876  2.4339
38687SOL     OW20745  10.139   3.925   7.284  0.6611 -0.1999 -0.3351
38687SOL    HW120746  10.062   3.939   7.228  1.1626 -0.4827 -1.0983
38687SOL    HW220747  10.157   4.012   7.321  0.0056 -0.1217 -0.1872
38688SOL     OW20748  10.050   2.710   8.730 -0.5758  0.0423  0.2344
38688SOL    HW120749  10.047   2.628   8.680 -0.4010  0.5608 -0.6450
38688SOL    HW220750  10.143   2.730   8.736 -0.6478  0.4651 -0.0378
38689SOL     OW20751  10.077   2.181   9.791 -0.1265  0.0373 -0.3903
38689SOL    HW120752   9.989   2.151   9.768  0.3141 -1.3643 -0.3420
38689SOL    HW220753  10.115   2.108   9.839 -0.0477  1.8143  2.4823
38690SOL     OW20754  10.102   6.981   6.083  0.5664  0.1162 -0.1099
38690SOL    HW120755  10.104   6.885   6.084  0.1047  0.0959 -0.6658
38690SOL    HW220756  10.022   7.005   6.129 -0.0549  0.1873 -1.1971
38691SOL     OW20757   3.139   3.091   2.383 -0.4554 -0.4983 -0.2390
38691SOL    HW120758   3.153   3.093   2.288  0.6136  0.2279 -0.0864
38691SOL    HW220759   3.044   3.086   2.393 -0.5759 -0.6229 -1.3528
38692SOL     OW20760   9.676  11.287   3.923  0.7535 -0.4112 -0.4560
38692SOL    HW120761   9.589  11.307   3.889 -0.1836 -2.8326  0.3271
38692SOL    HW220762   9.697  11.359   3.982 -0.9362 -0.0543 -0.2616
38693SOL     OW20763  11.695   4.503   3.531  0.1498  0.7436 -0.5002
38693SOL    HW120764  11.781   4.516   3.493  0.6943  1.0545  0.7786
38693SOL    HW220765  11.712   4.485   3.624 -1.2454  3.8562  0.4960
38694SOL     OW20766  10.680   5.679  10.894 -0.2522  0.5587  0.2708
38694SOL    HW120767  10.621   5.753  10.900 -2.5003 -1.1776  1.0777
38694SOL    HW220768  10.712   5.667  10.984  0.1322  0.5604  0.1366
38695SOL     OW20769   9.342   8.948  11.705  0.2999  0.1456 -0.1876
38695SOL    HW120770   9.263   8.920  11.660 -0.7051  0.5668  1.2469
38695SOL    HW220771   9.314   9.023  11.758  2.2997  2.2307 -1.8706
38696SOL     OW20772   0.778   4.741  11.969 -0.6580 -0.1278 -0.2960
38696SOL    HW120773   0.767   4.821  12.021 -0.2731  0.3915 -1.0082
38696SOL    HW220774   0.773   4.671  12.034 -0.9118  0.4714  0.3531
38697SOL     OW20775   7.481   7.020   2.443  0.2518  0.1659 -0.0307
38697SOL    HW120776   7.528   6.965   2.380 -0.3249  0.0570 -0.3707
38697SOL    HW220777   7.514   7.109   2.427  1.7073 -0.1653  0.9990
38698SOL     OW20778  10.567  10.540   6.790 -0.0647  0.4759 -0.4247
38698SOL    HW120779  10.599  10.513   6.703 -0.0762 -0.0208 -0.2812
38698SOL    HW220780  10.639  10.517   6.849 -0.1208  0.6669 -0.2856
38699SOL     OW20781   8.341   6.571   8.659  0.8518 -0.1038  0.1768
38699SOL    HW120782   8.411   6.579   8.724  2.8302 -1.1292 -1.7189
38699SOL    HW220783   8.320   6.478   8.657  0.3973  0.0006 -0.2653
38700SOL     OW20784   8.538   7.228   5.094  0.2092  0.0169  0.2957
38700SOL    HW120785   8.557   7.298   5.156  0.1360 -0.9314  1.4314
38700SOL    HW220786   8.496   7.272   5.020 -2.1473  0.9111  2.0350
38701SOL     OW20787   3.153   8.795  11.098 -0.2805 -0.6738 -0.2528
38701SOL    HW120788   3.160   8.822  11.006 -0.0877  2.4425  0.5589
38701SOL    HW220789   3.242   8.770  11.122  0.0805  0.3495 -0.4554
38702SOL     OW20790   3.381   9.456   7.488 -0.0105  0.1764 -0.1370
38702SOL    HW120791   3.295   9.499   7.491  0.4932  1.1797  0.6986
38702SOL    HW220792   3.425   9.484   7.568  1.6796  0.9403 -1.2638
38703SOL     OW20793   6.862   3.118   7.794 -0.3770 -0.5398 -0.7835
38703SOL    HW120794   6.934   3.071   7.753  0.2744 -1.3301  1.1429
38703SOL    HW220795   6.786   3.097   7.741  0.5471 -0.8578 -2.0216
38704SOL     OW20796   4.521   8.242  10.607  0.0400 -0.3039 -0.1102
38704SOL    HW120797   4.572   8.171  10.645  0.0087  0.2937  1.1016
38704SOL    HW220798   4.568   8.322  10.632  0.3352  0.1110 -1.8430
38705SOL     OW20799   0.662   2.945  10.130  0.3577 -0.7320 -0.1502
38705SOL    HW120800   0.625   3.021  10.085  0.7315 -1.3570 -1.5597
38705SOL    HW220801   0.585   2.892  10.152  0.2933 -1.8478 -2.7443
38706SOL     OW20802   2.357   2.008   8.731 -0.1775  0.1068 -0.2267
38706SOL    HW120803   2.437   2.004   8.679 -1.2151 -0.4008 -1.8890
38706SOL    HW220804   2.295   2.054   8.674 -1.5981 -1.1693  0.2186
38707SOL     OW20805  11.247   1.735   7.736  0.4769 -0.6012  0.2280
38707SOL    HW120806  11.207   1.801   7.794  1.7875 -0.6270  1.2035
38707SOL    HW220807  11.327   1.777   7.704 -1.0672  0.1454 -3.1390
38708SOL     OW20808   3.596   0.665   1.156  0.7983 -0.0967 -0.5585
38708SOL    HW120809   3.519   0.718   1.178  0.2823 -1.0958  0.0975
38708SOL    HW220810   3.575   0.626   1.072 -0.4838 -2.2666  0.6872
38709SOL     OW20811   4.659   5.238   7.498  0.2457  0.4308  0.1450
38709SOL    HW120812   4.729   5.175   7.508 -0.9278 -0.9527 -0.0946
38709SOL    HW220813   4.687   5.295   7.426  0.4304 -1.0714 -1.0042
38710SOL     OW20814   4.046   7.701   7.917 -0.0274 -0.3889  0.3314
38710SOL    HW120815   4.087   7.703   7.831  1.2228 -0.0912  0.9091
38710SOL    HW220816   3.994   7.782   7.921 -2.2584 -1.6281 -1.0985
38711SOL     OW20817  11.502   7.044   9.826 -0.0599 -0.3640 -0.2322
38711SOL    HW120818  11.547   7.129   9.829 -1.5429  0.5230 -1.4942
38711SOL    HW220819  11.570   6.982   9.799  0.9411  0.4922  0.2367
38712SOL     OW20820   2.005   4.757   1.433  0.0032  0.0689  0.0828
38712SOL    HW120821   2.081   4.702   1.451 -0.7939 -1.5686 -1.2605
38712SOL    HW220822   1.930   4.698   1.442 -1.0989  1.4852  0.7558
38713SOL     OW20823   8.556   4.675  10.824 -0.5307 -0.3335  0.5263
38713SOL    HW120824   8.608   4.600  10.855 -0.6326 -0.4241  0.4790
38713SOL    HW220825   8.473   4.667  10.871 -0.0408  0.5297  1.5613
38714SOL     OW20826   5.439   4.967   1.675  0.7353 -0.3256  0.4696
38714SOL    HW120827   5.439   5.039   1.738  0.7232  0.6009 -0.5799
38714SOL    HW220828   5.528   4.933   1.677  0.7819 -0.1850  0.8530
38715SOL     OW20829   4.946   5.785  11.389 -0.0222 -0.4421 -0.4877
38715SOL    HW120830   5.038   5.760  11.394  0.3476  0.8219 -0.6419
38715SOL    HW220831   4.913   5.736  11.314 -0.2152 -3.0090  1.1233
38716SOL     OW20832   8.771   2.934  11.218  0.0743 -0.3394 -0.1945
38716SOL    HW120833   8.820   2.890  11.149  1.4091  0.0542  0.4788
38716SOL    HW220834   8.781   3.027  11.199  1.5986 -0.1633  1.2409
38717SOL     OW20835  10.269   0.205   2.923  0.3633 -0.3317 -0.4538
38717SOL    HW120836  10.328   0.248   2.862  1.2734 -0.4116  0.3484
38717SOL    HW220837  10.246   0.274   2.986  1.2934 -0.8169  0.4470
38718SOL     OW20838   4.952   8.952   1.148  0.0821 -0.4554 -0.2971
38718SOL    HW120839   5.040   8.973   1.116 -0.6441  1.3545 -1.2557
38718SOL    HW220840   4.926   9.029   1.198 -1.6447 -0.1492 -1.5852
38719SOL     OW20841   0.634   7.031   5.850 -0.6234  0.2184  0.1603
38719SOL    HW120842   0.680   6.977   5.913  0.2788 -1.6785 -1.9972
38719SOL    HW220843   0.689   7.109   5.840  0.2287 -0.3672  0.2548
38720SOL     OW20844   0.936   5.232   8.570  0.1732  0.8336  0.2901
38720SOL    HW120845   1.018   5.271   8.601 -0.0505  0.1820  1.8025
38720SOL    HW220846   0.938   5.143   8.603 -0.3609  0.2553 -1.1693
38721SOL     OW20847  10.169   2.239   4.314  0.2669  0.6061  0.0857
38721SOL    HW120848  10.200   2.172   4.253  0.5968 -0.5575  1.4703
38721SOL    HW220849  10.205   2.321   4.280  1.0035 -0.1038 -0.9010
38722SOL     OW20850   5.182  10.406   1.116  0.1665  0.0019  0.4413
38722SOL    HW120851   5.101  10.447   1.145  0.4654  2.2502 -1.6409
38722SOL    HW220852   5.155  10.345   1.047  0.2682  1.2451 -0.7235
38723SOL     OW20853   9.980  11.628   4.998  0.2544  0.0696 -0.1469
38723SOL    HW120854   9.957  11.700   4.939 -0.1978 -1.0492 -1.3601
38723SOL    HW220855   9.913  11.562   4.983  0.9280 -0.8154  0.6167
38724SOL     OW20856   3.508   7.937   2.477  0.4045 -0.1607 -0.4996
38724SOL    HW120857   3.502   7.965   2.386  0.9880  0.2909 -0.4077
38724SOL    HW220858   3.420   7.950   2.512  0.6370  1.5271 -0.4814
38725SOL     OW20859   9.424   5.110   2.908 -0.3804  0.0087 -0.1004
38725SOL    HW120860   9.398   5.024   2.873 -0.9064  0.7401 -1.6159
38725SOL    HW220861   9.341   5.152   2.930 -0.4264  1.3921 -2.5723
38726SOL     OW20862   9.681   4.934   5.686 -0.2805  0.6870  0.4018
38726SOL    HW120863   9.750   4.901   5.629 -1.0788  1.6104 -1.1558
38726SOL    HW220864   9.676   4.869   5.757 -1.4009 -2.3381 -2.1905
38727SOL     OW20865   0.136   0.218   7.949 -0.6582  0.2674  0.1749
38727SOL    HW120866   0.205   0.273   7.913 -1.4261  1.9698  1.2128
38727SOL    HW220867   0.180   0.136   7.972  0.2143 -0.2772 -2.8670
38728SOL     OW20868   1.362   7.540   1.576 -0.2664  0.9055  0.1057
38728SOL    HW120869   1.437   7.559   1.633  1.5752 -0.7002 -1.6278
38728SOL    HW220870   1.330   7.626   1.549 -0.0336  1.6543  2.0420
38729SOL     OW20871  11.050   1.275   6.884 -0.1937 -0.3067 -0.3978
38729SOL    HW120872  11.134   1.228   6.884  0.1618  0.2833 -1.8103
38729SOL    HW220873  11.020   1.269   6.974  3.3053  2.8523  1.2981
38730SOL     OW20874   5.045   4.851   0.776  0.1151  1.1218 -0.4618
38730SOL    HW120875   4.960   4.816   0.749 -0.7311  2.1121  0.7329
38730SOL    HW220876   5.109   4.803   0.724 -0.9879 -1.5441  0.4485
38731SOL     OW20877   8.984   2.146   9.144  0.0544  0.0889  1.0075
38731SOL    HW120878   8.983   2.195   9.226  0.9435  1.8948 -0.0038
38731SOL    HW220879   9.012   2.057   9.170 -0.7222  0.3188  2.7671
38732SOL     OW20880  11.340   5.637   8.647 -0.3005 -0.0134 -0.3012
38732SOL    HW120881  11.257   5.657   8.689  0.2099  2.5876 -0.3950
38732SOL    HW220882  11.406   5.680   8.701  0.9199 -1.2384 -0.7484
38733SOL     OW20883   2.237   6.362   4.758 -0.4538 -0.1125  0.3908
38733SOL    HW120884   2.312   6.303   4.768 -0.5930 -0.8564 -2.1993
38733SOL    HW220885   2.171   6.327   4.818  0.8799 -0.0197  1.9873
38734SOL     OW20886   4.210   2.934   0.281  0.1028 -0.1812 -0.0312
38734SOL    HW120887   4.130   2.976   0.251 -0.4712 -2.3294 -1.8038
38734SOL    HW220888   4.207   2.941   0.376 -2.3476 -0.4382 -0.0381
38735SOL     OW20889   0.588   6.684  11.559  0.3107  0.8378 -0.4133
38735SOL    HW120890   0.536   6.604  11.568 -0.5844  1.4975  0.5292
38735SOL    HW220891   0.528   6.748  11.521  0.3044  1.6917  0.9365
38736SOL     OW20892  11.602   2.617   5.560 -0.2443 -0.2432  0.8617
38736SOL    HW120893  11.541   2.543   5.560  0.7256 -1.0877 -0.1542
38736SOL    HW220894  11.643   2.615   5.646  0.6116 -1.6571  0.4587
38737SOL     OW20895   4.543   4.026   5.463 -0.5096  0.9228 -0.1282
38737SOL    HW120896   4.498   4.031   5.548  1.0248  0.7268  0.7212
38737SOL    HW220897   4.526   3.937   5.433  0.6133  0.3089  0.9637
38738SOL     OW20898   4.329   8.362   2.624  0.3690  0.1800  0.9082
38738SOL    HW120899   4.339   8.275   2.584 -0.5536  0.1731  0.6672
38738SOL    HW220900   4.234   8.377   2.626  0.3917  0.2944  2.8827
38739SOL     OW20901   7.900   3.241   3.690  0.0727  0.2539  0.3502
38739SOL    HW120902   7.823   3.289   3.660  0.3219 -0.6719 -1.9333
38739SOL    HW220903   7.925   3.186   3.616  3.5366  1.2520  0.6098
38740SOL     OW20904  11.046   4.618   0.597  0.4443 -0.7804 -0.6324
38740SOL    HW120905  11.076   4.616   0.506 -0.8783  1.3158 -1.1767
38740SOL    HW220906  10.952   4.605   0.592  0.3400 -0.5106  0.4410
38741SOL     OW20907   3.610   5.540   1.455  0.5525 -0.1524  0.9528
38741SOL    HW120908   3.703   5.523   1.443  0.8487  1.3369  0.9102
38741SOL    HW220909   3.573   5.456   1.479  1.4785 -1.3362 -1.4651
38742SOL     OW20910  10.563   0.073  11.570  0.1399  0.7646 -0.2300
38742SOL    HW120911  10.500   0.144  11.558  0.0415  0.5924 -0.7624
38742SOL    HW220912  10.644   0.106  11.532  0.3107  0.8973  0.2459
38743SOL     OW20913   0.675   7.117   2.707  0.3060  0.3181 -0.4469
38743SOL    HW120914   0.610   7.116   2.637 -1.5936  1.1929  1.2083
38743SOL    HW220915   0.652   7.043   2.763  1.4573 -0.0309 -0.3888
38744SOL     OW20916   4.330   8.025   7.535  0.5644 -0.3083  0.0034
38744SOL    HW120917   4.324   8.112   7.575 -2.0863 -1.2757  1.9826
38744SOL    HW220918   4.347   7.966   7.608  2.9978 -1.4894 -1.3839
38745SOL     OW20919   0.220   5.385  10.351 -0.7731  0.4311 -0.0433
38745SOL    HW120920   0.285   5.399  10.282  0.7154  0.1908  1.2460
38745SOL    HW220921   0.230   5.460  10.410 -1.7760  0.4663  0.0994
38746SOL     OW20922   5.149   0.510   8.658 -0.6737 -0.7399  0.6095
38746SOL    HW120923   5.161   0.433   8.602 -0.4300 -0.2188 -0.0765
38746SOL    HW220924   5.226   0.564   8.641 -2.0464  0.8743 -0.9473
38747SOL     OW20925   4.904  11.675   9.926 -0.4774  0.2757 -0.1691
38747SOL    HW120926   4.869  11.718   9.848 -0.9003  1.9409  0.8815
38747SOL    HW220927   4.843  11.699   9.996  0.6216 -0.0489  0.9351
38748SOL     OW20928   6.750   1.216   5.256  0.2960  0.4582  0.6925
38748SOL    HW120929   6.845   1.214   5.263  0.5135 -1.7729 -1.5501
38748SOL    HW220930   6.719   1.167   5.332  0.9349  0.7159  1.1294
38749SOL     OW20931   7.142  10.707   7.960  0.6399 -0.1239  0.1036
38749SOL    HW120932   7.104  10.683   8.045 -1.2165  0.5579 -0.4838
38749SOL    HW220933   7.194  10.785   7.978 -1.1849  1.0979  0.3778
38750SOL     OW20934  10.345  10.962   9.418  0.3508  0.1108  0.1926
38750SOL    HW120935  10.257  10.929   9.399  0.2974  0.5032 -0.2542
38750SOL    HW220936  10.389  10.889   9.461 -0.2924  0.0132  0.7083
38751SOL     OW20937  11.530   5.630   7.894 -0.1313  0.3322  0.2800
38751SOL    HW120938  11.574   5.707   7.857 -0.5927  0.5262  0.1313
38751SOL    HW220939  11.503   5.579   7.817  0.0239  0.1041  0.3754
38752SOL     OW20940   4.392   1.768  11.751  0.1558 -0.3897 -0.1933
38752SOL    HW120941   4.424   1.827  11.683  0.6524  0.5158  0.7902
38752SOL    HW220942   4.468   1.713  11.772  0.5904  0.5651  0.8843
38753SOL     OW20943   1.989   6.102   7.844  0.5367  0.3026 -0.0329
38753SOL    HW120944   1.910   6.062   7.881 -1.1155  2.5967 -0.8244
38753SOL    HW220945   2.048   6.029   7.830 -0.1996 -1.1728  3.4233
38754SOL     OW20946   8.370  11.809   3.593 -0.0194 -0.3783  0.0506
38754SOL    HW120947   8.392  11.784   3.682 -0.6020 -0.9592  0.0435
38754SOL    HW220948   8.303  11.746   3.566 -1.3855  1.0657 -0.0659
38755SOL     OW20949   6.111   5.825   5.554  0.1826  0.2045  0.0912
38755SOL    HW120950   6.137   5.761   5.488  0.5053  1.0867 -0.6597
38755SOL    HW220951   6.030   5.790   5.591 -0.5107  0.1567 -1.4360
38756SOL     OW20952   9.912   7.681   1.093  0.0580  0.0654 -0.5877
38756SOL    HW120953   9.995   7.727   1.085 -0.0965  0.6746  0.8266
38756SOL    HW220954   9.936   7.591   1.113  0.6622  1.0557  4.8557
38757SOL     OW20955   2.189   7.596   1.978 -0.4858 -0.5405  1.3864
38757SOL    HW120956   2.163   7.658   2.047  1.0061  1.2419  0.4483
38757SOL    HW220957   2.281   7.616   1.962 -0.6688 -1.1958 -0.8282
38758SOL     OW20958  11.154   4.737   5.776  0.2178  0.3517 -0.2713
38758SOL    HW120959  11.072   4.692   5.795  0.1086  0.5070 -0.3713
38758SOL    HW220960  11.201   4.677   5.717  0.5191 -0.0916  0.4023
38759SOL     OW20961   7.148   3.991   9.131  0.1079 -0.0899  0.1488
38759SOL    HW120962   7.124   4.080   9.106 -0.9345 -0.7508 -1.3272
38759SOL    HW220963   7.196   4.001   9.214 -0.1203  1.8090  0.0834
38760SOL     OW20964   1.096   7.087   0.647  0.1872 -0.0234 -0.3223
38760SOL    HW120965   1.151   7.105   0.572 -0.9853  0.5337 -1.0715
38760SOL    HW220966   1.147   7.116   0.722  0.7883  0.7485 -1.0195
38761SOL     OW20967   8.824   7.338   8.100  0.0264  0.2643 -0.1638
38761SOL    HW120968   8.764   7.413   8.100 -2.7451 -1.8067  0.2962
38761SOL    HW220969   8.816   7.302   8.011  0.6757  0.0041 -0.1192
38762SOL     OW20970   9.776   6.661   4.744  0.1840  0.8984 -0.3221
38762SOL    HW120971   9.734   6.745   4.762  0.8553  1.9258 -3.0369
38762SOL    HW220972   9.869   6.683   4.732  0.8879 -0.7206  1.6947
38763SOL     OW20973  11.052   3.349  11.567 -0.4016  0.2409  0.2159
38763SOL    HW120974  11.009   3.264  11.577 -1.4668  0.7452  0.0345
38763SOL    HW220975  11.076   3.375  11.655 -0.5446 -0.0069  0.3279
38764SOL     OW20976   9.838  11.191   5.529 -0.2903 -0.2231 -0.5449
38764SOL    HW120977   9.860  11.241   5.451 -0.8151 -0.0433 -0.5839
38764SOL    HW220978   9.846  11.254   5.601 -0.6133 -0.1694 -0.5534
38765SOL     OW20979   5.527  10.935   6.786 -0.2563  0.0753  0.4260
38765SOL    HW120980   5.489  10.985   6.858 -0.8594  0.2416  0.0008
38765SOL    HW220981   5.546  10.849   6.824  0.4240  0.4922  1.0560
38766SOL     OW20982  11.901   1.856   7.574 -0.6833 -0.0957 -0.6762
38766SOL    HW120983  11.883   1.904   7.655 -0.6941  0.6435 -1.1092
38766SOL    HW220984  11.824   1.873   7.519 -2.2613 -3.2645  0.3477
38767SOL     OW20985   4.898   1.167   5.403  0.3272  1.3436 -0.1762
38767SOL    HW120986   4.959   1.233   5.436 -0.6352  1.7873  0.7781
38767SOL    HW220987   4.812   1.201   5.426 -0.1990 -0.1501  0.1556
38768SOL     OW20988   6.820   3.534   4.103 -0.3120  0.7257 -0.5058
38768SOL    HW120989   6.849   3.470   4.168 -0.0747 -0.8857 -2.1030
38768SOL    HW220990   6.792   3.610   4.154  0.3287 -0.2713  1.4221
38769SOL     OW20991   2.658   8.287  10.411  0.4684  0.5944 -0.0771
38769SOL    HW120992   2.563   8.276  10.412  0.1588  2.7487  1.3846
38769SOL    HW220993   2.681   8.288  10.318 -0.7320 -1.1861 -0.4248
38770SOL     OW20994   4.442   5.673   7.387 -0.1986 -0.4584 -0.2822
38770SOL    HW120995   4.417   5.583   7.407  0.9385 -0.2853  2.3510
38770SOL    HW220996   4.401   5.726   7.455  0.7602  0.7845 -0.6162
38771SOL     OW20997   3.786  11.090   4.636  0.9352 -0.1102 -0.1910
38771SOL    HW120998   3.731  11.110   4.560  0.7993  0.3525  0.0232
38771SOL    HW220999   3.750  11.009   4.671  1.0894 -0.4046 -0.7037
38772SOL     OW21000   7.704   7.328   4.534 -0.5068  0.0442 -0.0696
38772SOL    HW121001   7.670   7.258   4.589 -0.8680 -0.5934 -1.0817
38772SOL    HW221002   7.762   7.284   4.472 -1.7916  0.4261 -1.5922
38773SOL     OW21003   6.159  11.722   7.086  0.1597  0.1863 -0.3262
38773SOL    HW121004   6.147  11.687   6.998  1.7625 -1.1224 -0.0749
38773SOL    HW221005   6.251  11.748   7.090  0.1341  0.1763  0.9749
38774SOL     OW21006   1.911   8.498   1.451  0.0038 -0.5142 -0.1999
38774SOL    HW121007   1.920   8.406   1.477 -0.5282 -0.3921  0.4295
38774SOL    HW221008   1.889   8.544   1.532  0.5111  0.2102 -0.4625
38775SOL     OW21009   3.300   4.624   1.385  0.1401 -0.0699 -0.4371
38775SOL    HW121010   3.376   4.627   1.326 -0.0211  0.5931 -0.6142
38775SOL    HW221011   3.285   4.530   1.399  0.0433 -0.2501 -1.6415
38776SOL     OW21012   2.442  11.741   3.315  0.1207 -0.2214 -0.1893
38776SOL    HW121013   2.405  11.791   3.388  0.4582 -0.0952 -0.1049
38776SOL    HW221014   2.489  11.805   3.262 -0.1759 -0.3020 -0.5594
38777SOL     OW21015   3.044  10.868   5.382 -0.0152 -0.7299  0.3308
38777SOL    HW121016   2.961  10.908   5.355  0.5284 -0.0875 -0.4313
38777SOL    HW221017   3.094  10.859   5.301  0.7496 -0.9167  0.8130
38778SOL     OW21018   2.716   6.352   7.084 -0.0109 -1.0175  0.6303
38778SOL    HW121019   2.639   6.314   7.043  0.3688 -0.5840 -0.5385
38778SOL    HW221020   2.789   6.325   7.028  0.3253  0.9780  0.0103
38779SOL     OW21021   1.751   3.750   4.190 -0.2761  0.7682 -0.5082
38779SOL    HW121022   1.832   3.699   4.184 -1.1900 -0.7515 -0.3547
38779SOL    HW221023   1.773   3.822   4.249  0.3269 -0.9831  1.5410
38780SOL     OW21024   2.576   7.401   3.409  0.2081 -0.2663 -0.0415
38780SOL    HW121025   2.628   7.412   3.489  1.4115 -3.5232 -0.2361
38780SOL    HW221026   2.491   7.368   3.439  0.6946 -1.5868 -0.0475
38781SOL     OW21027   3.262  10.882   5.933  0.1790 -0.4888  0.2307
38781SOL    HW121028   3.218  10.802   5.904 -0.8897 -0.4941  1.7497
38781SOL    HW221029   3.192  10.936   5.970  0.5029  2.0809 -2.5596
38782SOL     OW21030   5.490   2.589   6.745  0.0352 -0.0462 -0.0994
38782SOL    HW121031   5.516   2.617   6.657 -1.8849 -0.8008 -0.9742
38782SOL    HW221032   5.567   2.546   6.780  2.1820  3.6390  0.2003
38783SOL     OW21033   8.900   8.585   2.822  0.0682 -0.0868 -0.3584
38783SOL    HW121034   8.928   8.596   2.913  0.9527  1.5713 -0.8057
38783SOL    HW221035   8.964   8.524   2.785  1.2063  1.1325 -0.4886
38784SOL     OW21036  10.484  11.387   2.987 -0.1191 -0.4884 -0.4682
38784SOL    HW121037  10.449  11.391   3.076  1.7064 -1.2058  0.3250
38784SOL    HW221038  10.407  11.372   2.932 -1.4802  1.3217  0.8043
38785SOL     OW21039  10.325   8.382   4.710  0.2516 -0.0557 -0.2822
38785SOL    HW121040  10.300   8.464   4.667 -0.1906 -0.0808 -0.0769
38785SOL    HW221041  10.376   8.410   4.786 -1.6818  0.1365  0.9960
38786SOL     OW21042   0.302   8.079   4.708 -0.1708 -0.8647 -0.2582
38786SOL    HW121043   0.275   8.161   4.666 -0.1910 -0.8266 -0.1726
38786SOL    HW221044   0.243   8.071   4.783  1.0810  0.0669  0.8957
38787SOL     OW21045   7.220  11.839   7.055 -0.3982  0.3930 -0.1265
38787SOL    HW121046   7.180  11.921   7.026 -2.1112 -0.4741 -0.3660
38787SOL    HW221047   7.168  11.813   7.131  0.2218 -0.3916  0.0408
38788SOL     OW21048  10.740   8.811   5.454 -0.0952 -0.7189 -0.1713
38788SOL    HW121049  10.697   8.877   5.509  0.7751  0.5383 -0.9310
38788SOL    HW221050  10.685   8.805   5.376  0.4237 -0.0063 -0.6093
38789SOL     OW21051   6.535   4.998   5.494  0.8677 -0.0323  0.1708
38789SOL    HW121052   6.554   4.934   5.562 -0.0617  1.0095  1.4702
38789SOL    HW221053   6.441   4.989   5.478  0.8245  0.6531  0.0124
38790SOL     OW21054   4.377   4.283   9.354 -0.0097 -0.5745 -0.0792
38790SOL    HW121055   4.330   4.303   9.273  1.6031  0.9266 -0.6853
38790SOL    HW221056   4.458   4.240   9.326  0.5083 -0.1669  0.7386
38791SOL     OW21057   2.556   1.036   9.774  0.2056 -0.6621 -0.4687
38791SOL    HW121058   2.602   1.118   9.756 -0.5540 -0.2129 -0.4113
38791SOL    HW221059   2.543   1.036   9.869  1.0544 -1.3194 -0.3431
38792SOL     OW21060  11.924   8.285   1.862 -0.0080 -0.3850  0.2012
38792SOL    HW121061  11.974   8.349   1.912 -0.7661  1.2341 -1.0519
38792SOL    HW221062  11.977   8.267   1.785 -0.2404 -0.5212  0.0697
38793SOL     OW21063   8.563   6.203   0.007 -0.0063 -0.1458 -0.6122
38793SOL    HW121064   8.640   6.154   0.038 -1.1374 -0.7586  1.3878
38793SOL    HW221065   8.531   6.152  -0.067  0.6280 -0.7255 -0.5042
38794SOL     OW21066   0.486   6.680   4.709 -0.1282  0.7379 -0.0053
38794SOL    HW121067   0.493   6.709   4.618  2.4657  0.5221  0.0629
38794SOL    HW221068   0.575   6.685   4.743  0.0563 -4.2075  0.9602
38795SOL     OW21069   3.905  11.667   4.268  0.0289  0.3024  0.2386
38795SOL    HW121070   3.942  11.645   4.182  0.9213  0.7709  0.4886
38795SOL    HW221071   3.962  11.736   4.301 -0.4817  0.3236  1.0936
38796SOL     OW21072   0.780   6.024  11.269  1.0395  0.5003  0.1589
38796SOL    HW121073   0.760   5.999  11.179 -0.7927  1.4059  0.2865
38796SOL    HW221074   0.762   6.118  11.273 -0.5532  0.1757  1.8827
38797SOL     OW21075  11.139   6.268   6.102  0.0525  0.4034  0.0274
38797SOL    HW121076  11.069   6.205   6.081  0.3247 -0.1780  0.8192
38797SOL    HW221077  11.205   6.253   6.035  0.1034 -0.1497  0.1930
38798SOL     OW21078   2.937  10.501   9.520 -0.5494  0.5272  0.4108
38798SOL    HW121079   2.905  10.590   9.509  0.2154  0.6825 -0.6799
38798SOL    HW221080   2.971  10.477   9.434  0.4936 -0.3266  1.0403
38799SOL     OW21081   7.227   7.983   7.917 -0.9926  0.1633 -0.1002
38799SOL    HW121082   7.290   8.011   7.851  1.5123 -0.6755  1.7979
38799SOL    HW221083   7.227   7.887   7.911 -2.6247  0.1480 -0.4661
38800SOL     OW21084  11.572   6.499  11.237 -0.2963 -0.6369  0.2915
38800SOL    HW121085  11.609   6.575  11.192 -0.2007 -0.6399  0.3662
38800SOL    HW221086  11.637   6.476  11.303 -0.0885 -1.0937 -0.0623
38801SOL     OW21087   1.820  10.881   3.015 -0.4407 -0.4101  0.2396
38801SOL    HW121088   1.840  10.819   3.085  0.4207 -0.7302 -0.2854
38801SOL    HW221089   1.851  10.965   3.049  2.2399 -0.9456 -0.6943
38802SOL     OW21090   1.804   2.589   5.618 -0.1128  0.0498  0.0046
38802SOL    HW121091   1.716   2.624   5.605  0.4472  0.8534 -2.0177
38802SOL    HW221092   1.807   2.509   5.566  0.7205  0.7043 -0.9848
38803SOL     OW21093  11.239   9.902   9.886 -0.1401  0.1661 -0.2939
38803SOL    HW121094  11.282   9.982   9.855 -0.6336  0.5168 -0.0841
38803SOL    HW221095  11.290   9.876   9.963  1.0564 -0.6728 -1.3260
38804SOL     OW21096   5.983   9.672   6.527 -0.4022 -0.2147  0.3595
38804SOL    HW121097   6.049   9.705   6.588 -1.3754 -0.0911  1.3854
38804SOL    HW221098   5.918   9.743   6.521 -0.6605 -0.5004 -0.2803
38805SOL     OW21099   3.133   7.556  10.006 -0.9420 -0.4394 -0.7295
38805SOL    HW121100   3.138   7.637  10.058  2.8273 -0.7425 -0.3688
38805SOL    HW221101   3.087   7.494  10.062  1.1040 -0.1101  1.4612
38806SOL     OW21102   2.340   4.863  11.896  0.6139  0.2456 -0.0447
38806SOL    HW121103   2.326   4.921  11.971  1.9856  0.0226  0.4225
38806SOL    HW221104   2.423   4.819  11.916  0.7950 -0.1224 -1.5091
38807SOL     OW21105   4.143   0.984   3.328 -0.1928  0.2570 -0.0925
38807SOL    HW121106   4.066   1.020   3.371 -0.5734 -0.6513 -0.0080
38807SOL    HW221107   4.110   0.911   3.276  0.7054 -0.6533  0.5709
38808SOL     OW21108   4.601   3.905  10.885 -0.5869  0.0270  0.0033
38808SOL    HW121109   4.597   3.890  10.791 -1.2730 -0.1833  0.0531
38808SOL    HW221110   4.611   3.817  10.922  4.1102  0.3607  0.0030
38809SOL     OW21111   1.493   9.433   9.286 -0.0772  0.0620 -0.4240
38809SOL    HW121112   1.557   9.461   9.352  0.7082 -0.2023 -1.0747
38809SOL    HW221113   1.467   9.514   9.242  1.1228 -0.0246 -1.3319
38810SOL     OW21114  10.473   2.354   4.808  0.4625 -0.1001 -0.3421
38810SOL    HW121115  10.477   2.328   4.715 -1.2105 -2.5718  0.1708
38810SOL    HW221116  10.529   2.289   4.852  1.5692  1.2992  0.3765
38811SOL     OW21117  10.742   4.242   5.650  0.2034 -0.2121  0.0107
38811SOL    HW121118  10.666   4.261   5.705 -0.0343  0.1961 -0.4529
38811SOL    HW221119  10.726   4.292   5.570  0.3838 -1.0552 -0.5598
38812SOL     OW21120   4.292   8.165   5.592 -0.0494  0.1479 -0.5095
38812SOL    HW121121   4.304   8.247   5.544  1.4125 -0.0865 -0.5707
38812SOL    HW221122   4.197   8.149   5.588 -0.3219  1.6734 -0.7373
38813SOL     OW21123   7.778   3.239   3.954  0.1012  0.4106 -0.0596
38813SOL    HW121124   7.826   3.236   3.871  0.2215 -0.1562  0.0280
38813SOL    HW221125   7.748   3.149   3.968 -0.3923  0.6129  0.2387
38814SOL     OW21126   3.636   8.141  11.156 -0.8567 -0.0033 -0.1125
38814SOL    HW121127   3.626   8.233  11.182 -0.7726 -0.0536  0.0949
38814SOL    HW221128   3.592   8.136  11.071 -1.5062  0.0597  0.2157
38815SOL     OW21129   8.723   0.782   4.999  0.0585 -0.2951  0.2766
38815SOL    HW121130   8.814   0.810   5.003  0.1643 -0.5489 -0.2413
38815SOL    HW221131   8.722   0.713   4.932 -0.7781  0.7352 -0.8308
38816SOL     OW21132   4.926   2.847   7.005  0.0561  0.1425  0.1509
38816SOL    HW121133   4.968   2.913   7.061  3.1577 -1.6115  0.1213
38816SOL    HW221134   4.882   2.898   6.937  0.0458  2.2119  1.6176
38817SOL     OW21135   9.734   3.344   0.585 -0.0398 -0.0387  0.3794
38817SOL    HW121136   9.813   3.298   0.613  0.9461  0.7738 -0.9350
38817SOL    HW221137   9.751   3.436   0.604  0.1883  0.3916 -1.6814
38818SOL     OW21138   4.814   1.797   7.882 -0.2226 -0.8384 -0.0396
38818SOL    HW121139   4.775   1.860   7.942 -0.3513 -0.1508 -0.8243
38818SOL    HW221140   4.907   1.797   7.904  0.1971  1.3565 -1.4967
38819SOL     OW21141   3.232  10.827   2.485 -0.6810 -0.4469 -0.6208
38819SOL    HW121142   3.209  10.917   2.508 -2.6656 -0.6477 -1.6438
38819SOL    HW221143   3.189  10.773   2.551 -0.0360 -0.6945 -0.3901
38820SOL     OW21144   9.207  10.540   6.014  0.2118  0.3012  0.0692
38820SOL    HW121145   9.291  10.496   6.000 -0.3569 -1.2191  1.1669
38820SOL    HW221146   9.154  10.516   5.939  0.1570 -0.2804  0.2907
38821SOL     OW21147   9.956  11.175  11.727  0.2094  0.4359  0.1861
38821SOL    HW121148   9.932  11.112  11.795  0.9067  0.3279  0.3498
38821SOL    HW221149   9.873  11.211  11.697 -0.1454  0.0814  0.7095
38822SOL     OW21150   7.983   3.172   1.155  1.2554 -0.0436  0.0622
38822SOL    HW121151   7.982   3.122   1.237  1.0197 -1.2394 -0.6478
38822SOL    HW221152   7.898   3.155   1.115  0.9560  1.3760  0.0337
38823SOL     OW21153   9.762   8.662   7.086 -0.7249  0.0728  0.1780
38823SOL    HW121154   9.667   8.649   7.083 -0.7728  0.5066 -0.4208
38823SOL    HW221155   9.798   8.581   7.049 -0.9674  0.8896 -2.0194
38824SOL     OW21156  10.815  11.255  11.790  0.2189 -0.0665  0.4474
38824SOL    HW121157  10.836  11.165  11.813  0.7483 -0.3329 -1.0335
38824SOL    HW221158  10.726  11.268  11.824 -0.3570 -1.5512 -0.4313
38825SOL     OW21159   7.539   3.765  10.073  0.0988 -0.0740  0.2104
38825SOL    HW121160   7.552   3.796   9.983  0.0172 -0.0755  0.1985
38825SOL    HW221161   7.444   3.758  10.083  0.1470 -2.2012 -0.4368
38826SOL     OW21162   5.564   8.463  10.921  0.1301 -0.1634  0.1919
38826SOL    HW121163   5.600   8.548  10.946  0.0010  0.0455 -0.3273
38826SOL    HW221164   5.538   8.473  10.830 -0.2013 -0.6572  0.2247
38827SOL     OW21165   2.237   7.863   9.819 -0.0645  0.2863 -0.2607
38827SOL    HW121166   2.173   7.918   9.864 -0.5629 -0.1614 -0.4172
38827SOL    HW221167   2.220   7.878   9.726  0.3941  0.5536 -0.3013
38828SOL     OW21168   3.706   9.983   0.566 -0.3147 -0.0866  0.1433
38828SOL    HW121169   3.658   9.912   0.609  0.1282 -1.8015 -2.0307
38828SOL    HW221170   3.788   9.989   0.615 -1.4845  0.9192  2.0957
38829SOL     OW21171  11.286   5.722  11.299  0.1855 -0.0327  0.2103
38829SOL    HW121172  11.305   5.808  11.261  0.8561  0.1313  0.8875
38829SOL    HW221173  11.369   5.675  11.293 -0.6852 -1.4093 -2.0558
38830SOL     OW21174   8.527   4.758   2.421 -0.5708  0.5528 -0.6157
38830SOL    HW121175   8.438   4.736   2.393 -1.0642  1.9026 -0.1915
38830SOL    HW221176   8.517   4.794   2.509  0.8085 -2.4514  0.9417
38831SOL     OW21177   8.605  11.619   8.665 -0.1091  0.3649  0.1951
38831SOL    HW121178   8.639  11.663   8.742  0.9194 -0.1392  0.0522
38831SOL    HW221179   8.674  11.629   8.599 -0.7079  0.2607 -0.4598
38832SOL     OW21180  10.905   0.506  11.741  0.1469  0.1779 -0.4774
38832SOL    HW121181  10.999   0.491  11.728  0.4548  2.0098 -0.6247
38832SOL    HW221182  10.878   0.558  11.665 -0.2397  2.4240  1.0739
38833SOL     OW21183  10.946   9.586   4.369  0.6331 -0.4566  0.6248
38833SOL    HW121184  10.898   9.507   4.343 -2.0637  1.2761 -0.1282
38833SOL    HW221185  11.021   9.590   4.309 -0.6403 -1.1328 -1.1053
38834SOL     OW21186   1.899   2.625   8.839  0.2462  0.2213 -0.2008
38834SOL    HW121187   1.808   2.620   8.868  0.6042 -1.8287  0.7369
38834SOL    HW221188   1.950   2.595   8.914  1.4281 -2.4113 -1.9063
38835SOL     OW21189  11.852  10.406   0.668 -0.4805  0.4076  0.3889
38835SOL    HW121190  11.874  10.488   0.713  0.9367  0.5737 -0.5413
38835SOL    HW221191  11.867  10.424   0.576  0.9057 -1.1895  0.2442
38836SOL     OW21192   9.699   4.372   8.745  0.1726  0.2183 -0.2212
38836SOL    HW121193   9.754   4.446   8.772  0.3937  0.8104 -2.1220
38836SOL    HW221194   9.617   4.384   8.792  1.0278  0.3331  1.2889
38837SOL     OW21195   5.818   6.923   0.729  0.1861  0.3509 -0.0034
38837SOL    HW121196   5.853   6.834   0.739 -0.9585 -0.2086 -0.8158
38837SOL    HW221197   5.764   6.936   0.806 -1.9122 -0.7695 -1.2096
38838SOL     OW21198   0.906   0.346   7.681 -0.2805  0.3892  0.2317
38838SOL    HW121199   0.967   0.307   7.618  0.9580  0.2114  1.4943
38838SOL    HW221200   0.901   0.282   7.752  0.3599  1.6635  1.4803
38839SOL     OW21201   2.239   1.572   8.372  0.5837  0.2596 -0.3438
38839SOL    HW121202   2.331   1.579   8.346  0.6691  0.9153  0.0988
38839SOL    HW221203   2.240   1.586   8.467 -0.0249  0.7558 -0.4030
38840SOL     OW21204   7.557   9.531   5.246 -0.1440  0.4067  0.1658
38840SOL    HW121205   7.625   9.571   5.300 -0.0384 -1.0939  1.1983
38840SOL    HW221206   7.553   9.585   5.168  1.9749  0.7358  0.2497
38841SOL     OW21207   0.671   9.524   2.168 -0.4260  0.6428  0.0500
38841SOL    HW121208   0.654   9.430   2.161  0.2944  0.5336 -0.3253
38841SOL    HW221209   0.740   9.531   2.233 -0.1290  0.8730 -0.2869
38842SOL     OW21210   8.067   6.242  10.084  0.4408 -0.5606  0.3983
38842SOL    HW121211   8.154   6.203  10.091  1.2392  0.9483 -0.5422
38842SOL    HW221212   8.053   6.253   9.990 -0.2928  0.1678  0.5826
38843SOL     OW21213   9.604  11.668   5.214  0.2546  0.0959  0.1988
38843SOL    HW121214   9.570  11.720   5.286 -0.4933  1.5159 -1.1148
38843SOL    HW221215   9.589  11.722   5.136  1.2747 -1.2540 -0.9957
38844SOL     OW21216   8.705  10.703   3.140  0.0337  0.2729  0.0334
38844SOL    HW121217   8.662  10.641   3.199  0.3213  1.5182  1.6472
38844SOL    HW221218   8.701  10.662   3.054 -3.6229 -0.1198  0.1994
38845SOL     OW21219   7.401  11.700   3.113  0.2428  0.5308 -0.5127
38845SOL    HW121220   7.425  11.646   3.188  1.5217  0.3159 -1.0563
38845SOL    HW221221   7.308  11.720   3.127  0.2244 -0.2588  0.6465
38846SOL     OW21222   1.885   5.442   1.913 -0.3502  0.2519  0.4998
38846SOL    HW121223   1.951   5.390   1.959 -1.6196 -1.2061  0.7186
38846SOL    HW221224   1.917   5.532   1.920  2.9393 -0.5883 -1.5449
38847SOL     OW21225   7.926   7.843   9.870  0.5126  0.0739 -0.4122
38847SOL    HW121226   7.918   7.935   9.895 -0.7599 -0.2209  0.3741
38847SOL    HW221227   7.842   7.822   9.829  0.0975 -1.1803  0.9944
38848SOL     OW21228  10.735   7.122   2.945  0.3787 -0.0391 -0.9297
38848SOL    HW121229  10.780   7.061   2.887  0.5576  0.2103 -1.0561
38848SOL    HW221230  10.653   7.142   2.900 -0.2490 -1.1403 -0.3089
38849SOL     OW21231   3.130   1.968   2.659 -0.1407  0.4785 -0.1526
38849SOL    HW121232   3.068   2.042   2.660 -1.4923 -0.6111  0.3494
38849SOL    HW221233   3.215   2.008   2.677 -0.8265  1.9299  0.0207
38850SOL     OW21234   3.720   9.751   6.284 -0.7494 -0.3175  0.2344
38850SOL    HW121235   3.798   9.773   6.234  0.0434 -2.2059  0.5335
38850SOL    HW221236   3.649   9.753   6.220 -0.1696 -0.1725 -0.4102
38851SOL     OW21237   9.079  10.827   4.616 -0.5791  0.2611 -0.1309
38851SOL    HW121238   9.014  10.834   4.686  0.0522 -1.7790  0.7283
38851SOL    HW221239   9.042  10.762   4.556 -1.4393  2.4824 -2.1402
38852SOL     OW21240   8.906   5.607   3.704 -0.2687  0.4286 -0.4770
38852SOL    HW121241   8.867   5.634   3.621  0.3577 -0.5534 -1.1049
38852SOL    HW221242   8.988   5.563   3.680  1.2231  2.3568  0.8019
38853SOL     OW21243   5.139   8.972   2.293  0.7852  0.5929  0.7807
38853SOL    HW121244   5.102   9.044   2.346  0.9535  0.2555  1.3711
38853SOL    HW221245   5.116   8.995   2.203 -1.0502  0.3062  1.1267
38854SOL     OW21246   2.684   7.674   4.944 -0.1770 -0.3115 -0.0053
38854SOL    HW121247   2.713   7.704   4.858  1.7638  0.7885  0.9612
38854SOL    HW221248   2.608   7.619   4.926  0.7330 -0.8857 -2.4963
38855SOL     OW21249   3.082   1.586   3.137 -0.1759 -0.1364 -0.3446
38855SOL    HW121250   3.126   1.516   3.088  0.4514  0.2749 -0.3873
38855SOL    HW221251   3.154   1.636   3.176 -0.6481 -0.3368  0.8462
38856SOL     OW21252  11.760   4.426   5.821  0.4025  0.4301  0.0040
38856SOL    HW121253  11.772   4.337   5.854  0.9785  0.9509  1.2445
38856SOL    HW221254  11.814   4.481   5.878 -0.9363  1.7485  0.0600
38857SOL     OW21255   9.527   4.708   8.371  0.1038  0.2036  0.1036
38857SOL    HW121256   9.528   4.616   8.397 -2.8058 -0.6560 -2.1756
38857SOL    HW221257   9.580   4.711   8.292 -0.8008  0.1737 -0.5189
38858SOL     OW21258   1.895   9.189   8.689  0.0984  0.3611 -0.1110
38858SOL    HW121259   1.883   9.220   8.779  0.0954  0.0001  0.0117
38858SOL    HW221260   1.984   9.215   8.666  0.1188  0.4033  0.0156
38859SOL     OW21261   8.396   5.994   8.330  0.0656 -0.4528  0.1265
38859SOL    HW121262   8.332   6.021   8.264 -0.7635 -0.6667  0.8261
38859SOL    HW221263   8.424   6.075   8.371 -0.2688 -0.4118  0.2773
38860SOL     OW21264   6.915  10.727   1.274  0.2089 -0.1510  0.1966
38860SOL    HW121265   6.988  10.692   1.222 -0.1672  0.4910 -0.7789
38860SOL    HW221266   6.917  10.675   1.355  2.5887  0.7407  0.8059
38861SOL     OW21267   5.115  10.816   1.606  0.2896 -0.3840  0.3537
38861SOL    HW121268   5.133  10.802   1.513 -0.5999 -1.5524  0.3350
38861SOL    HW221269   5.072  10.901   1.610  2.7772  0.9852  0.0522
38862SOL     OW21270  11.861   9.934  10.863 -0.3565  0.8146 -0.4132
38862SOL    HW121271  11.884   9.944  10.956 -0.0048  2.3910 -0.6363
38862SOL    HW221272  11.860   9.839  10.849 -0.4816  0.5338  1.2092
38863SOL     OW21273  10.517   9.084  11.421 -0.0155 -0.3787 -0.4033
38863SOL    HW121274  10.555   9.045  11.342 -1.3349 -0.4161 -1.0501
38863SOL    HW221275  10.481   9.168  11.391 -3.6380 -1.8531 -0.7415
38864SOL     OW21276   8.195   7.439   6.998 -0.3625 -0.5073  0.0119
38864SOL    HW121277   8.284   7.419   7.025 -0.5674  0.8665  1.8771
38864SOL    HW221278   8.156   7.483   7.073 -1.4653  2.2678 -2.0239
38865SOL     OW21279   5.312   2.673   7.252  0.2065  0.1789  0.4467
38865SOL    HW121280   5.238   2.630   7.294  0.5418 -1.6726 -0.7484
38865SOL    HW221281   5.311   2.641   7.161  0.8632  2.2452 -0.3565
38866SOL     OW21282   8.851   0.053   1.205  0.5651  0.1074 -0.0133
38866SOL    HW121283   8.772   0.108   1.204  0.6127  0.1737 -0.6139
38866SOL    HW221284   8.912   0.100   1.262 -0.5103 -0.9457  2.1031
38867SOL     OW21285  10.824   3.830   0.075  0.9143  0.4189  0.3568
38867SOL    HW121286  10.858   3.906   0.122  0.0771 -0.1342  1.9255
38867SOL    HW221287  10.755   3.866   0.019 -1.6629  0.5636  3.3388
38868SOL     OW21288   7.122  11.720  10.870 -0.2460 -0.2592 -0.7146
38868SOL    HW121289   7.195  11.761  10.917  0.3584 -1.0226 -0.9542
38868SOL    HW221290   7.085  11.790  10.816  0.3273  0.1359 -0.6007
38869SOL     OW21291   7.030   7.980   8.217 -0.8338  0.3423 -0.3278
38869SOL    HW121292   7.079   7.903   8.188 -2.0530 -0.8033  0.5552
38869SOL    HW221293   7.098   8.043   8.242  0.2418 -1.2686  1.0447
38870SOL     OW21294   3.081   8.467  11.114 -0.5790 -0.7652 -0.2433
38870SOL    HW121295   3.148   8.411  11.151 -1.0591 -0.6278  0.8674
38870SOL    HW221296   3.054   8.524  11.186 -0.5530  0.4738 -1.1688
38871SOL     OW21297   0.539  10.876   5.205  0.2389  0.2455 -0.2960
38871SOL    HW121298   0.615  10.882   5.263 -1.1048  0.5126  1.5214
38871SOL    HW221299   0.500  10.791   5.228 -0.6185  0.6083 -0.4110
38872SOL     OW21300   5.303   4.760   5.223  0.1964  0.0688 -0.4489
38872SOL    HW121301   5.398   4.761   5.234  0.0950 -1.4646  1.0603
38872SOL    HW221302   5.290   4.732   5.133  1.1855 -0.7629 -0.3563
38873SOL     OW21303   5.458   5.474  11.941  0.5737 -0.7600 -0.2067
38873SOL    HW121304   5.514   5.514  11.874 -0.7365  0.5003 -0.6100
38873SOL    HW221305   5.516   5.459  12.015  1.8012 -1.0619 -1.1992
38874SOL     OW21306   7.114   6.959   2.393  0.0068 -0.1680 -0.0446
38874SOL    HW121307   7.018   6.958   2.398  0.0030  0.9334  0.4210
38874SOL    HW221308   7.136   7.050   2.374  0.8618 -0.9327 -3.1772
38875SOL     OW21309   2.180   9.462   6.554  0.4061  0.0498  0.1159
38875SOL    HW121310   2.094   9.501   6.570 -0.3765 -0.6681 -1.9693
38875SOL    HW221311   2.241   9.519   6.601 -1.2269  0.2028  2.2082
38876SOL     OW21312   7.159  10.027   0.987 -0.6671  0.1454 -0.3637
38876SOL    HW121313   7.117  10.083   0.921 -0.3397  1.4365  0.4882
38876SOL    HW221314   7.146  10.074   1.070  1.6301  0.1296  0.0659
38877SOL     OW21315   7.563   7.251  10.500  0.0334  0.2585  0.0837
38877SOL    HW121316   7.553   7.163  10.464 -3.3581 -0.0113  1.3665
38877SOL    HW221317   7.553   7.309  10.424 -1.2380 -0.4042 -0.2693
38878SOL     OW21318   9.993   6.928   7.732  0.3670  0.5416 -0.3901
38878SOL    HW121319   9.947   6.942   7.649 -0.8752  2.0929  0.4892
38878SOL    HW221320   9.940   6.864   7.779  0.8200  0.0106 -0.5869
38879SOL     OW21321   6.949   5.182   7.245 -0.3435 -0.4469 -0.7299
38879SOL    HW121322   6.956   5.172   7.340 -1.3429 -0.5626 -0.6571
38879SOL    HW221323   6.898   5.262   7.234 -2.2165 -1.6380 -1.1076
38880SOL     OW21324   0.380   2.565  11.181 -0.3058  0.1202  0.4288
38880SOL    HW121325   0.446   2.543  11.247  1.4976 -0.1267 -1.3638
38880SOL    HW221326   0.383   2.661  11.175  0.7418  0.0479 -0.4378
38881SOL     OW21327   9.663   7.913   3.488 -0.4549 -1.0567 -0.0269
38881SOL    HW121328   9.663   7.859   3.410  0.4536 -0.2645 -0.5994
38881SOL    HW221329   9.744   7.964   3.483  0.0409 -1.5609  1.8381
38882SOL     OW21330   8.886   6.070  11.760 -0.4866  0.3952 -0.1836
38882SOL    HW121331   8.872   5.999  11.698 -1.1409 -1.5781  2.0846
38882SOL    HW221332   8.961   6.043  11.812  0.1248  2.0585 -0.1257
38883SOL     OW21333   6.980   4.400   7.366 -0.3095  0.3271  0.3373
38883SOL    HW121334   6.988   4.305   7.378 -0.4199  0.4071  1.0849
38883SOL    HW221335   7.010   4.437   7.448  2.5376  1.0866 -0.9196
38884SOL     OW21336   0.483   0.980   3.641  0.0248  0.1764  0.6747
38884SOL    HW121337   0.471   0.931   3.560  0.1853 -0.7513  1.1940
38884SOL    HW221338   0.414   0.947   3.699 -0.3727  1.1544  0.7708
38885SOL     OW21339   9.230   2.535   6.802 -0.5775  0.4716  0.1396
38885SOL    HW121340   9.284   2.595   6.750 -0.6341 -0.7207 -1.3912
38885SOL    HW221341   9.179   2.591   6.860 -0.3667  1.8697 -0.9881
38886SOL     OW21342   7.614   4.113   5.745  0.2395  0.4176  0.3295
38886SOL    HW121343   7.692   4.129   5.799  0.1692 -0.1361  0.6071
38886SOL    HW221344   7.560   4.054   5.798  0.5344 -0.8003 -0.6742
38887SOL     OW21345   6.204   6.494   9.922  0.0059  0.6369 -0.6113
38887SOL    HW121346   6.136   6.541   9.872 -2.0464 -0.9678  0.5287
38887SOL    HW221347   6.171   6.405   9.929  2.6689 -0.4272 -0.6708
38888SOL     OW21348   3.471   8.306   2.538  0.3275 -0.0750 -1.2192
38888SOL    HW121349   3.516   8.301   2.453  0.2457  0.4343 -1.2930
38888SOL    HW221350   3.542   8.319   2.601  0.2007  2.3004 -1.4876
38889SOL     OW21351   3.216   2.846   6.018 -0.5756  0.4426 -0.6164
38889SOL    HW121352   3.137   2.831   6.071 -0.0754 -1.0864 -0.2391
38889SOL    HW221353   3.182   2.882   5.935 -1.3223  3.4209  0.8405
38890SOL     OW21354   6.891   4.302   2.740 -0.1540  0.1011  0.2446
38890SOL    HW121355   6.958   4.283   2.804 -0.2545  0.4257  0.4507
38890SOL    HW221356   6.810   4.313   2.791 -0.2345  0.3581  0.0696
38891SOL     OW21357   8.069   5.231   0.370 -0.5925 -0.4125  0.1131
38891SOL    HW121358   8.031   5.181   0.443  0.9613 -0.1051  1.1722
38891SOL    HW221359   8.156   5.256   0.401  0.5056 -1.0733 -2.2054
38892SOL     OW21360  11.036   2.284   3.386  0.1883 -0.1348 -0.0574
38892SOL    HW121361  11.022   2.283   3.292 -0.7852  1.0399  0.0550
38892SOL    HW221362  11.077   2.199   3.405 -0.3236 -0.7104 -1.4130
38893SOL     OW21363   6.426   1.783   5.410  0.4359  0.2743  0.2669
38893SOL    HW121364   6.421   1.829   5.327  3.0734  0.1959 -0.0166
38893SOL    HW221365   6.517   1.793   5.438  0.1248 -1.4117  2.1486
38894SOL     OW21366   3.884   2.786   2.924 -0.1640  0.4992  0.6255
38894SOL    HW121367   3.958   2.841   2.950  1.7855 -2.4636  1.8952
38894SOL    HW221368   3.881   2.795   2.828  0.2893  2.4686  0.7477
38895SOL     OW21369   0.573   0.236   6.680  0.0985  0.2089  0.2529
38895SOL    HW121370   0.600   0.274   6.596 -1.0024 -1.0584 -0.7241
38895SOL    HW221371   0.641   0.172   6.700 -0.0012 -0.0093 -0.0771
38896SOL     OW21372  10.782   2.998  10.433  0.0270  0.6185  0.1874
38896SOL    HW121373  10.728   2.919  10.435  1.3092 -0.2846  0.4340
38896SOL    HW221374  10.725   3.067  10.465 -1.1081 -0.2216  0.0380
38897SOL     OW21375   0.352   8.306  11.147  0.1421 -0.3426  0.1185
38897SOL    HW121376   0.426   8.356  11.112 -0.2426 -0.8253 -1.4951
38897SOL    HW221377   0.392   8.226  11.182  0.4852 -0.1256  0.2251
38898SOL     OW21378  10.722  11.914   7.067  0.5948  0.5557  0.0036
38898SOL    HW121379  10.766  11.989   7.027  2.3459  0.2668  1.2658
38898SOL    HW221380  10.766  11.903   7.152 -2.3173  0.5645  1.6210
38899SOL     OW21381   2.266   4.243   5.120  0.5529  0.0115 -0.7077
38899SOL    HW121382   2.231   4.226   5.033 -0.4558  0.9571 -0.5218
38899SOL    HW221383   2.239   4.333   5.139 -1.4117 -0.9401  1.5604
38900SOL     OW21384   7.983   3.273  11.886 -0.0733  0.4622  0.1508
38900SOL    HW121385   7.999   3.280  11.980  1.1338 -1.4564  0.1469
38900SOL    HW221386   8.070   3.282  11.847  0.0924 -2.6436 -0.4455
38901SOL     OW21387  10.243   4.127   2.419  0.1664  0.3332  0.2013
38901SOL    HW121388  10.180   4.113   2.490 -0.1984 -0.3248 -0.2393
38901SOL    HW221389  10.266   4.039   2.390 -1.5119  0.5664 -2.0736
38902SOL     OW21390   8.931   6.433   8.213 -0.3814 -0.0784 -0.2271
38902SOL    HW121391   8.906   6.412   8.123 -0.3022  0.6013 -0.4153
38902SOL    HW221392   8.911   6.526   8.222 -1.2514 -0.3361  0.7505
38903SOL     OW21393   6.901   7.546  11.765  0.0384  0.6988 -0.7877
38903SOL    HW121394   6.934   7.473  11.818  0.4717  0.7134 -1.0314
38903SOL    HW221395   6.979   7.597  11.743  0.0728 -0.0324 -2.5512
38904SOL     OW21396   9.903   9.749   9.825  0.0710 -0.6802 -0.3006
38904SOL    HW121397   9.876   9.813   9.759 -0.9725 -1.4023 -0.5998
38904SOL    HW221398   9.926   9.801   9.901  0.6813  0.1290 -1.0184
38905SOL     OW21399   9.202   5.590   0.869 -0.2836 -0.6198 -0.0178
38905SOL    HW121400   9.254   5.574   0.947  0.1976 -0.4422 -0.2996
38905SOL    HW221401   9.229   5.522   0.807  0.4222  0.1229 -0.5542
38906SOL     OW21402   0.679   3.692   2.164 -0.1481 -0.1008 -0.2530
38906SOL    HW121403   0.738   3.619   2.146  0.9975  0.2178  1.8299
38906SOL    HW221404   0.722   3.740   2.235 -1.4156  1.9668 -0.7963
38907SOL     OW21405   8.695   0.821   0.222 -0.2362  0.2827 -0.0671
38907SOL    HW121406   8.699   0.913   0.196 -1.9280  0.7345  1.0909
38907SOL    HW221407   8.739   0.819   0.307  3.1325 -0.7423 -1.6557
38908SOL     OW21408   7.011   8.364   2.687 -0.2111 -0.2541  0.0390
38908SOL    HW121409   7.017   8.294   2.752 -0.0364 -0.9320 -0.6921
38908SOL    HW221410   7.092   8.414   2.698 -0.3738 -0.1095  0.6186
38909SOL     OW21411   0.363   9.306   1.051 -0.1416  0.4344 -0.0196
38909SOL    HW121412   0.446   9.337   1.087  0.0112  0.1329 -0.1058
38909SOL    HW221413   0.363   9.338   0.961 -0.6100  1.3495  0.2989
38910SOL     OW21414   2.384  10.848   5.677  0.8869 -0.7893  1.1447
38910SOL    HW121415   2.426  10.790   5.615 -0.7685 -0.6598 -0.1665
38910SOL    HW221416   2.432  10.931   5.669 -1.3121  0.3667 -2.6223
38911SOL     OW21417   3.127   1.095   4.541 -0.0074  0.1602  0.6736
38911SOL    HW121418   3.200   1.089   4.603  0.5676 -0.1360 -0.0250
38911SOL    HW221419   3.049   1.084   4.596  0.4884 -0.1197  1.3440
38912SOL     OW21420  10.453   6.793  10.394 -0.2591  0.2817 -0.8792
38912SOL    HW121421  10.369   6.833  10.371 -0.0394  1.6421  0.5332
38912SOL    HW221422  10.429   6.714  10.443 -0.7084  0.0498 -1.4669
38913SOL     OW21423  10.923   7.997   5.008  0.0570  0.2765  0.3056
38913SOL    HW121424  10.879   7.945   5.075 -0.6141 -1.9984 -1.7316
38913SOL    HW221425  10.994   7.940   4.977  2.7133  2.6888  1.4660
38914SOL     OW21426   3.958   2.271   1.155 -0.2025 -0.5624  0.1085
38914SOL    HW121427   4.037   2.225   1.182 -1.1503 -3.1108 -1.0943
38914SOL    HW221428   3.890   2.238   1.213 -1.0506 -1.3032 -1.2485
38915SOL     OW21429   6.735   9.639  10.163 -0.4941  0.5262 -0.2108
38915SOL    HW121430   6.825   9.626  10.134 -0.0948 -0.1081  1.2130
38915SOL    HW221431   6.737   9.719  10.216 -0.2082 -0.7603  1.8360
38916SOL     OW21432   9.959  10.681   0.580  0.5006  0.6036 -0.3237
38916SOL    HW121433   9.914  10.627   0.515  0.6281 -0.5340  0.5013
38916SOL    HW221434   9.907  10.671   0.660  0.2749  2.0782 -0.2588
38917SOL     OW21435   6.408   0.369   0.691  0.3160 -0.3232  0.8187
38917SOL    HW121436   6.476   0.336   0.749  1.6613  0.6908 -0.1017
38917SOL    HW221437   6.365   0.439   0.741  0.7177 -0.2105  1.0072
38918SOL     OW21438   0.742   4.245   5.151  0.0210  0.2801 -0.5951
38918SOL    HW121439   0.804   4.314   5.129  0.0884 -0.3339 -2.4577
38918SOL    HW221440   0.681   4.242   5.078  0.3746 -2.0066 -0.8927
38919SOL     OW21441   0.804   4.541   1.267 -0.3650  0.4512 -0.0448
38919SOL    HW121442   0.726   4.595   1.278  1.1641  3.2252 -1.7117
38919SOL    HW221443   0.877   4.602   1.278  1.5031 -1.3228 -1.7733
38920SOL     OW21444  11.330  11.799   7.730 -0.0835  0.1455 -0.0839
38920SOL    HW121445  11.347  11.714   7.771  1.4043  0.5905  0.2418
38920SOL    HW221446  11.287  11.851   7.798  1.4413  0.5361  0.6150
38921SOL     OW21447   9.395   3.425   9.801 -0.3197  0.1950 -0.6867
38921SOL    HW121448   9.404   3.344   9.751 -0.7509 -0.5642  0.4346
38921SOL    HW221449   9.458   3.416   9.873 -1.7171 -0.0232  0.5580
38922SOL     OW21450  10.934   9.550   2.715 -1.0918 -0.4088 -0.3068
38922SOL    HW121451  10.876   9.508   2.779 -0.0348  1.5396  2.1083
38922SOL    HW221452  10.918   9.643   2.726  0.3759  0.0464 -1.7259
38923SOL     OW21453   5.305   9.821   4.231 -0.0265 -0.4900  0.5921
38923SOL    HW121454   5.328   9.816   4.323  1.0459  1.6674  0.4953
38923SOL    HW221455   5.219   9.863   4.230 -0.9198 -2.2256  0.6420
38924SOL     OW21456   6.467  10.253   6.797 -0.0146  0.1340 -0.6458
38924SOL    HW121457   6.448  10.292   6.883  0.6742  1.2587 -0.9735
38924SOL    HW221458   6.476  10.160   6.814 -2.0921  0.0249  0.1301
38925SOL     OW21459  10.440   3.577   4.755 -0.0138 -0.2232  0.4012
38925SOL    HW121460  10.363   3.532   4.790  0.7218 -0.8813  1.2110
38925SOL    HW221461  10.481   3.512   4.697 -1.0055  0.7175 -1.4750
38926SOL     OW21462  10.190   4.388   0.479 -0.4927  0.6359  0.2283
38926SOL    HW121463  10.228   4.346   0.402 -1.9480  0.6190 -0.5276
38926SOL    HW221464  10.140   4.318   0.522  1.3371  0.3143  1.9558
38927SOL     OW21465   4.075   0.462   2.670 -0.2363 -0.0723 -0.0454
38927SOL    HW121466   4.131   0.512   2.611  1.7991 -1.3525  0.6990
38927SOL    HW221467   3.997   0.517   2.681  0.5857  1.5179 -1.5910
38928SOL     OW21468   6.854   4.291   2.125 -0.2249  0.1689  0.6482
38928SOL    HW121469   6.910   4.364   2.152  0.1430 -0.1652  0.7907
38928SOL    HW221470   6.826   4.251   2.207  0.5020 -0.5516  0.5499
38929SOL     OW21471   5.929   7.637   5.500 -0.2473 -0.1810  0.0070
38929SOL    HW121472   5.967   7.681   5.424  0.6971  0.0809  0.6151
38929SOL    HW221473   5.860   7.696   5.530 -0.4043 -0.1302 -0.4420
38930SOL     OW21474  10.323   0.562   4.464  0.2835  0.2253  0.0073
38930SOL    HW121475  10.361   0.594   4.382  2.3099 -0.3547  0.6425
38930SOL    HW221476  10.362   0.617   4.531 -1.7022  0.9834  0.5941
38931SOL     OW21477  11.359   3.886  11.644 -0.5324 -0.0185  0.1291
38931SOL    HW121478  11.329   3.977  11.635  0.1818  0.2951  0.8334
38931SOL    HW221479  11.278   3.835  11.646 -0.9428  0.5881 -0.3768
38932SOL     OW21480   4.530   7.822   5.895  0.0590 -0.3797 -0.0114
38932SOL    HW121481   4.622   7.809   5.873 -0.3359 -0.9886 -1.3467
38932SOL    HW221482   4.507   7.744   5.945 -0.0492 -0.8032 -0.7163
38933SOL     OW21483   2.282   9.669   2.125  0.2595  0.0879 -1.0111
38933SOL    HW121484   2.193   9.636   2.108  0.4323 -0.4771 -0.8313
38933SOL    HW221485   2.288   9.673   2.220  0.6431 -0.4797 -1.0089
38934SOL     OW21486   2.549   8.598  11.989  0.0239 -0.0779 -0.0131
38934SOL    HW121487   2.575   8.689  12.001 -1.0484  0.2271  0.1335
38934SOL    HW221488   2.472   8.602  11.933  0.0255 -0.9050 -0.0920
38935SOL     OW21489  10.862   1.412  11.914 -0.7243  0.4727  0.0527
38935SOL    HW121490  10.951   1.446  11.903 -0.3771  0.0850  1.4284
38935SOL    HW221491  10.866   1.358  11.993 -1.5970 -1.6213 -1.2392
38936SOL     OW21492   2.945   8.395   4.440  0.3159 -0.1221  0.1730
38936SOL    HW121493   2.909   8.345   4.512 -1.0290 -0.3905 -0.6434
38936SOL    HW221494   3.028   8.429   4.473 -0.7839  0.7540  2.2603
38937SOL     OW21495  10.938   8.861   8.562 -0.4385 -0.2168  0.2121
38937SOL    HW121496  10.976   8.899   8.482 -0.8044 -0.8075 -0.2545
38937SOL    HW221497  10.933   8.934   8.623 -1.9071  0.6962 -0.9300
38938SOL     OW21498  10.595   2.111   5.800  0.2525 -0.2585  0.5267
38938SOL    HW121499  10.665   2.058   5.762  0.2744 -0.0840  0.3257
38938SOL    HW221500  10.607   2.101   5.894  0.9373  0.2790  0.5016
38939SOL     OW21501   2.064   1.411   6.413  0.4955  0.2449 -0.9353
38939SOL    HW121502   2.078   1.460   6.494 -1.2923 -0.4604 -0.1292
38939SOL    HW221503   2.147   1.366   6.397  0.3412 -1.1473  1.6299
38940SOL     OW21504   7.469   4.108   1.953 -0.4623  0.6152  0.4112
38940SOL    HW121505   7.460   4.103   2.048 -1.1033 -0.2760  0.3269
38940SOL    HW221506   7.512   4.026   1.929 -2.7154 -0.4476 -0.2846
38941SOL     OW21507   0.405   7.537   7.336  0.5055  0.4588 -0.1546
38941SOL    HW121508   0.356   7.586   7.402  2.2801  0.9673  0.8690
38941SOL    HW221509   0.341   7.478   7.296 -0.7185  0.4768  1.6937
38942SOL     OW21510   0.496   4.021  10.769  0.1509  0.4060  0.3215
38942SOL    HW121511   0.425   4.041  10.707  0.4788  0.3933 -0.0584
38942SOL    HW221512   0.450   3.996  10.850 -0.2833  2.4368  0.7619
38943SOL     OW21513   1.822  10.223   3.707  0.2293 -0.8466  0.0699
38943SOL    HW121514   1.913  10.211   3.678  0.2664 -1.5283  0.4421
38943SOL    HW221515   1.796  10.307   3.670  0.7298 -1.0463 -0.7595
38944SOL     OW21516   3.408   3.084  10.788  0.2299 -0.0716 -0.1523
38944SOL    HW121517   3.474   3.150  10.765 -0.3314  1.2475  1.7173
38944SOL    HW221518   3.340   3.134  10.834 -1.4885 -1.5879 -0.9252
38945SOL     OW21519   0.397   7.101   1.621  0.2243 -0.7204 -1.0314
38945SOL    HW121520   0.378   7.122   1.530 -0.3579 -0.3735 -0.8404
38945SOL    HW221521   0.328   7.039   1.646 -1.0954  1.0174 -0.1475
38946SOL     OW21522  10.827   4.655   9.852 -0.5366 -0.0416 -0.5286
38946SOL    HW121523  10.735   4.631   9.860 -0.5362  0.3105  0.6178
38946SOL    HW221524  10.851   4.691   9.937  0.2717  1.2286 -1.2598
38947SOL     OW21525   8.611   1.850   8.021 -0.0808 -0.0559 -0.0197
38947SOL    HW121526   8.679   1.821   8.082 -0.2554  0.2051  0.2940
38947SOL    HW221527   8.530   1.843   8.070 -0.2023  0.3223 -0.1658
38948SOL     OW21528   8.489  11.304   9.242  0.3224 -0.3674 -0.2663
38948SOL    HW121529   8.519  11.392   9.264  0.7017 -0.3341 -0.8894
38948SOL    HW221530   8.569  11.253   9.231  0.0981 -0.9092  0.5294
38949SOL     OW21531   7.207   9.211   4.020 -0.4442  0.0710 -0.0093
38949SOL    HW121532   7.115   9.199   4.045 -0.8653 -0.7142 -1.7923
38949SOL    HW221533   7.219   9.155   3.944  1.4590  0.3766  0.0145
38950SOL     OW21534  11.853   4.585   1.613 -0.3652 -0.1160  0.7422
38950SOL    HW121535  11.874   4.502   1.654 -0.7798 -0.1832  0.8216
38950SOL    HW221536  11.938   4.628   1.601 -0.0031 -1.1446 -0.5942
38951SOL     OW21537  11.149   3.927   0.934  0.0148 -0.1436 -0.1785
38951SOL    HW121538  11.144   3.844   0.980 -2.2725 -1.0438 -1.8149
38951SOL    HW221539  11.174   3.904   0.845  1.2737  1.1742 -0.2056
38952SOL     OW21540   1.356   1.819   8.186  0.0212  0.3522  0.3196
38952SOL    HW121541   1.315   1.761   8.250 -0.7958 -0.6397 -1.0534
38952SOL    HW221542   1.348   1.773   8.103 -0.1649  2.1985 -0.7396
38953SOL     OW21543   4.697   1.582   5.840 -0.6754 -0.3552 -0.8951
38953SOL    HW121544   4.655   1.630   5.770  0.9748 -0.7727 -2.2525
38953SOL    HW221545   4.727   1.500   5.799  0.8288 -0.3642  0.1147
38954SOL     OW21546  11.683   8.555   9.994  0.0834 -0.0730  0.2285
38954SOL    HW121547  11.750   8.513   9.941  0.6202  1.7015 -0.6020
38954SOL    HW221548  11.600   8.525   9.957  0.3879  2.2130 -2.7657
38955SOL     OW21549   4.109  11.377  11.740  0.0773  0.2717 -0.5078
38955SOL    HW121550   4.062  11.295  11.754 -0.9129  1.0396  0.8993
38955SOL    HW221551   4.199  11.349  11.722 -0.0039 -1.1287  0.9338
38956SOL     OW21552   5.414   1.703  10.422 -0.0413  0.3777  0.0397
38956SOL    HW121553   5.435   1.619  10.464  1.4112  0.0194 -1.3016
38956SOL    HW221554   5.327   1.690  10.385 -0.9113  0.3452  1.9608
38957SOL     OW21555   9.341   9.589  11.327 -0.1342 -0.2334 -0.0632
38957SOL    HW121556   9.393   9.543  11.393  1.1203  0.0936 -0.7807
38957SOL    HW221557   9.398   9.593  11.250 -1.1932  0.2489 -0.8521
38958SOL     OW21558   2.358   4.002   3.465 -0.0490  0.2501 -0.0880
38958SOL    HW121559   2.287   4.007   3.400 -0.5213  0.7655  0.4515
38958SOL    HW221560   2.334   4.067   3.531  2.7705  3.1541 -1.6686
38959SOL     OW21561  10.024  11.783   7.889 -0.2564 -0.6339 -0.0853
38959SOL    HW121562  10.021  11.846   7.960  1.6931  0.0521 -0.5544
38959SOL    HW221563   9.950  11.806   7.832  0.2694  1.0564 -0.1094
38960SOL     OW21564   6.479   3.615   2.394 -0.3589  0.8463 -0.2704
38960SOL    HW121565   6.534   3.676   2.443  1.9284 -3.3558  3.1233
38960SOL    HW221566   6.541   3.565   2.341 -1.1712 -1.9246  1.1917
38961SOL     OW21567   2.470   0.324   6.606  0.1040  0.4932 -0.6006
38961SOL    HW121568   2.500   0.389   6.670 -0.5070  1.0516 -0.8752
38961SOL    HW221569   2.503   0.241   6.640 -1.0177  0.6438  0.9738
38962SOL     OW21570   9.474   7.994  10.281 -0.1651 -0.1232 -0.1438
38962SOL    HW121571   9.387   7.962  10.303 -0.3520  0.7295  0.4128
38962SOL    HW221572   9.466   8.029  10.192  0.1216 -1.8443 -0.9018
38963SOL     OW21573   9.771   0.797  10.625 -0.0258 -0.1304  0.0367
38963SOL    HW121574   9.786   0.859  10.553  1.2321 -0.1390  0.2775
38963SOL    HW221575   9.728   0.722  10.583  1.2288 -0.3858 -0.8349
38964SOL     OW21576   6.083   7.028   7.918  0.1710  0.1662 -0.3953
38964SOL    HW121577   6.058   7.034   8.010  3.0477 -1.0149  0.5904
38964SOL    HW221578   6.060   6.938   7.893  0.6663  0.0273 -0.3675
38965SOL     OW21579   6.709   9.609   0.193  0.8841  0.8010  0.2782
38965SOL    HW121580   6.706   9.580   0.102  1.8213 -0.6209  0.6666
38965SOL    HW221581   6.711   9.528   0.244  1.3753  1.5661  1.5187
38966SOL     OW21582   7.757   9.438   2.774  0.3690 -0.8036  0.0051
38966SOL    HW121583   7.675   9.431   2.822  1.0148 -0.3688  1.2277
38966SOL    HW221584   7.787   9.528   2.790  1.3932 -1.1496  0.1293
38967SOL     OW21585   1.042   3.123  11.270  0.3192  0.0170  0.3462
38967SOL    HW121586   1.067   3.212  11.294 -1.0502 -0.1638  2.6989
38967SOL    HW221587   1.098   3.067  11.324  0.4547 -0.5438 -0.3610
38968SOL     OW21588   1.084   4.509  11.513  0.0637  0.3484 -0.3073
38968SOL    HW121589   1.131   4.550  11.585 -0.5548  0.7609 -0.1302
38968SOL    HW221590   1.150   4.455  11.469  0.2720 -0.5432  1.0342
38969SOL     OW21591   5.847   9.854   3.389 -0.6440 -0.4746 -0.0316
38969SOL    HW121592   5.940   9.863   3.408 -0.7408  0.3659  0.1104
38969SOL    HW221593   5.836   9.763   3.362  0.4438 -0.2397 -1.3567
38970SOL     OW21594   2.341   8.873   4.977  0.7622 -0.1747  0.2164
38970SOL    HW121595   2.365   8.793   4.930  0.7510 -1.1240  1.7395
38970SOL    HW221596   2.380   8.862   5.064 -0.2786  0.9303  0.8553
38971SOL     OW21597   1.414   9.887  11.618  0.0887  0.4328  0.0308
38971SOL    HW121598   1.396   9.956  11.554  0.5167 -0.7600 -1.4248
38971SOL    HW221599   1.487   9.921  11.669  0.4113  0.9912 -0.7781
38972SOL     OW21600   5.044  11.088  10.137 -0.6382 -0.2247  0.3816
38972SOL    HW121601   4.951  11.068  10.123 -0.2867 -2.4988  1.0226
38972SOL    HW221602   5.087  11.063  10.056 -0.4764  0.1859  0.3365
38973SOL     OW21603   2.512  10.592   7.706 -0.8301 -0.4532 -0.0612
38973SOL    HW121604   2.539  10.668   7.655 -0.8194 -0.4755 -0.0888
38973SOL    HW221605   2.457  10.629   7.775 -0.6977 -0.4046  0.0181
38974SOL     OW21606  10.657   9.223   2.083  0.5209  0.4420 -0.1376
38974SOL    HW121607  10.720   9.262   2.144  1.1029 -1.1755  0.3402
38974SOL    HW221608  10.712   9.188   2.012  0.2127 -1.1682  0.3844
38975SOL     OW21609   5.415  10.389  10.533 -0.0094  0.1110  0.0117
38975SOL    HW121610   5.385  10.380  10.442  0.2890  1.1478 -0.1989
38975SOL    HW221611   5.338  10.421  10.580 -0.5211 -1.5670  0.3890
38976SOL     OW21612   9.855   8.097   1.797 -0.1151 -0.2205 -0.0464
38976SOL    HW121613   9.898   8.042   1.863  1.5739 -0.2352 -1.1031
38976SOL    HW221614   9.795   8.152   1.847 -2.3031 -3.3341  1.0378
38977SOL     OW21615   5.275  11.574   7.084  0.0120 -0.4305 -0.1964
38977SOL    HW121616   5.227  11.657   7.077  0.8136  0.0088 -0.5714
38977SOL    HW221617   5.207  11.507   7.075 -0.4782  0.1741 -1.2808
38978SOL     OW21618   8.914  11.052   7.167 -0.6030 -0.0040  0.1660
38978SOL    HW121619   8.978  10.984   7.190 -0.2688 -0.1078 -1.0239
38978SOL    HW221620   8.927  11.121   7.232  2.6126  1.2009 -1.5378
38979SOL     OW21621  11.147   9.860   6.732  0.5990 -0.5763  0.1762
38979SOL    HW121622  11.102   9.901   6.806 -1.3522 -2.2659  0.0143
38979SOL    HW221623  11.187   9.934   6.685 -0.3677  0.8159  1.4346
38980SOL     OW21624   3.296   0.838   4.980 -0.1759  0.1948  0.5048
38980SOL    HW121625   3.361   0.810   5.044  0.0706 -1.2061 -0.3275
38980SOL    HW221626   3.241   0.901   5.028  0.7154  0.0837  1.7219
38981SOL     OW21627   2.228   5.852   4.213 -0.1305 -0.5867 -0.4924
38981SOL    HW121628   2.217   5.757   4.213 -2.6263 -0.3712 -0.2210
38981SOL    HW221629   2.144   5.886   4.244  0.9825  1.7027  0.2598
38982SOL     OW21630   4.891  11.396   8.901 -0.0736  0.0166 -0.3656
38982SOL    HW121631   4.976  11.433   8.924 -0.8729  0.9156  1.3216
38982SOL    HW221632   4.871  11.335   8.972 -1.7468  1.3918  0.4266
38983SOL     OW21633  10.287   4.857   6.599  0.3333 -0.3117 -0.1886
38983SOL    HW121634  10.274   4.835   6.691 -0.5394  0.0025 -0.2321
38983SOL    HW221635  10.334   4.781   6.563  2.9250  0.5935  1.0364
38984SOL     OW21636   4.627  11.979   2.843  0.1389 -0.5100  0.7887
38984SOL    HW121637   4.660  12.031   2.916 -1.9881  0.2333  1.3004
38984SOL    HW221638   4.548  11.936   2.877 -0.0471 -1.3797 -0.6299
38985SOL     OW21639   8.282  11.307   3.357 -0.3484  0.1749  0.2957
38985SOL    HW121640   8.226  11.366   3.307 -0.6916  0.3472  0.8677
38985SOL    HW221641   8.221  11.245   3.398  0.1114 -1.6861 -1.6695
38986SOL     OW21642   0.634   9.854   1.006 -0.2420 -0.2446  0.4169
38986SOL    HW121643   0.713   9.803   0.988  0.0609  0.2732  0.2731
38986SOL    HW221644   0.653   9.941   0.973 -0.2605  0.3335  1.8434
38987SOL     OW21645   5.026  10.523   5.968  0.3316  0.0651 -0.2821
38987SOL    HW121646   4.967  10.449   5.983  0.6957 -0.2105 -0.1734
38987SOL    HW221647   5.089  10.518   6.041  0.1002  0.7417 -0.0342
38988SOL     OW21648   4.710   1.627   5.461  0.2248 -0.1457 -0.2001
38988SOL    HW121649   4.654   1.622   5.539  0.4829 -1.3149 -0.0696
38988SOL    HW221650   4.651   1.610   5.388  0.1966 -0.2482 -0.1543
38989SOL     OW21651   1.882   9.571   7.330  0.0726  1.0585 -0.2382
38989SOL    HW121652   1.799   9.616   7.312 -0.3421  0.2779 -0.3545
38989SOL    HW221653   1.894   9.513   7.254  0.4514  0.7768  0.0348
38990SOL     OW21654   7.189  10.989   9.635 -0.3483 -0.4807  0.2772
38990SOL    HW121655   7.122  11.038   9.682  1.1588  1.7234  0.2545
38990SOL    HW221656   7.244  10.951   9.703 -0.0351  0.0079  0.2979
38991SOL     OW21657   9.464   7.331   7.379 -0.3101  0.0398 -0.0863
38991SOL    HW121658   9.542   7.316   7.326 -0.5084 -0.9667 -0.1087
38991SOL    HW221659   9.438   7.244   7.409 -0.2661  0.5708  1.5833
38992SOL     OW21660   7.128  11.666   8.475  0.4361 -0.1362 -0.5811
38992SOL    HW121661   7.108  11.586   8.524 -0.4115  0.3479 -0.1104
38992SOL    HW221662   7.223  11.677   8.484  0.5969 -1.2060 -0.8460
38993SOL     OW21663   2.784   1.056   5.967 -0.5735  0.0166 -0.1533
38993SOL    HW121664   2.819   1.075   6.053 -0.0445  1.3383 -0.6407
38993SOL    HW221665   2.765   1.142   5.928 -3.1757 -0.5782 -0.4200
38994SOL     OW21666  10.953  10.207   5.433 -0.7956  0.0965  0.1836
38994SOL    HW121667  11.016  10.207   5.361 -0.3316  0.3380  0.5953
38994SOL    HW221668  10.900  10.128   5.417  0.5814 -0.9812  0.6835
38995SOL     OW21669   9.597   1.460   2.386 -0.1645 -0.0765 -0.3427
38995SOL    HW121670   9.605   1.374   2.428  0.3654 -0.1710 -0.6261
38995SOL    HW221671   9.679   1.470   2.337 -0.2144  0.6012 -0.2932
38996SOL     OW21672   1.210   6.401   1.760 -0.4026  0.2202  0.8051
38996SOL    HW121673   1.220   6.434   1.849 -0.3554 -0.0725  0.9085
38996SOL    HW221674   1.250   6.314   1.762 -0.0338  0.3760  0.4012
38997SOL     OW21675   2.301  11.596  11.765 -0.5499 -0.5536 -0.1403
38997SOL    HW121676   2.375  11.656  11.778 -1.9258  0.8015  2.2458
38997SOL    HW221677   2.333  11.530  11.704  2.3873  0.3455  0.3073
38998SOL     OW21678   4.467   1.376   3.004 -0.1870  0.0932 -0.3759
38998SOL    HW121679   4.507   1.334   2.928  1.3358  0.5546  0.1316
38998SOL    HW221680   4.411   1.308   3.042  1.1768 -1.0574 -0.3338
38999SOL     OW21681  11.507   2.985   2.438 -0.3907  0.5584  0.2957
38999SOL    HW121682  11.488   2.987   2.344 -2.2062 -1.0492  0.5649
38999SOL    HW221683  11.466   3.065   2.472  0.8020  1.4652 -0.3230
39000SOL     OW21684  11.600   0.182   2.478  0.0364  0.2143  0.2034
39000SOL    HW121685  11.571   0.255   2.424 -0.9830  1.1915  1.9699
39000SOL    HW221686  11.530   0.170   2.542 -0.0075 -2.5789 -0.2336
39001SOL     OW21687   2.796   6.222  10.746 -0.1373 -0.7236  0.4729
39001SOL    HW121688   2.836   6.295  10.698  0.5271 -1.5073 -0.2199
39001SOL    HW221689   2.855   6.206  10.819 -0.4863 -0.3318  0.8466
39002SOL     OW21690   0.349   1.929   3.696  0.5914 -0.1094 -0.4121
39002SOL    HW121691   0.262   1.892   3.716 -0.2487  1.6962 -0.5256
39002SOL    HW221692   0.410   1.860   3.721 -0.7717 -0.6702  1.6556
39003SOL     OW21693   8.536   6.224   1.419  0.0440  0.1217 -0.0212
39003SOL    HW121694   8.516   6.262   1.504  0.5622 -0.9593  0.6110
39003SOL    HW221695   8.451   6.210   1.378 -0.1432  2.8595 -0.7338
39004SOL     OW21696  11.328  11.839   0.243 -0.2695  0.2058  0.4224
39004SOL    HW121697  11.352  11.767   0.301  0.8217 -0.4854 -0.8280
39004SOL    HW221698  11.408  11.891   0.235 -0.7057  0.8806  0.3524
39005SOL     OW21699   4.769  11.667   7.714  0.0251 -0.0341  0.1291
39005SOL    HW121700   4.832  11.649   7.644  0.3831  0.6272  0.2792
39005SOL    HW221701   4.714  11.737   7.680 -1.8196 -1.7998 -0.7312
39006SOL     OW21702   8.829   6.015   9.938 -0.3982  0.6657  0.2794
39006SOL    HW121703   8.903   6.009   9.877  0.9184  0.3203  1.8512
39006SOL    HW221704   8.836   6.103   9.975  0.9844 -0.3023  2.5019
39007SOL     OW21705   3.599  10.064   7.588  0.3054  0.2557  0.1843
39007SOL    HW121706   3.593  10.133   7.654 -0.4972  0.9322 -0.5733
39007SOL    HW221707   3.517  10.015   7.599 -0.1031  0.7275 -0.6816
39008SOL     OW21708   0.599   0.050   3.729  0.0125  0.7371  0.2356
39008SOL    HW121709   0.581   0.143   3.715 -0.2424  0.8328  1.1448
39008SOL    HW221710   0.640   0.047   3.815 -2.4733 -0.2771  1.4607
39009SOL     OW21711   8.341   7.720   8.812 -0.4434  0.0891  0.2335
39009SOL    HW121712   8.413   7.672   8.853 -0.9938 -0.3750  0.6841
39009SOL    HW221713   8.352   7.810   8.841  0.3628  0.1646 -0.2763
39010SOL     OW21714   4.799  10.927   1.852  0.4319 -0.1567  0.0363
39010SOL    HW121715   4.868  10.976   1.807 -1.1975 -0.2127 -2.7932
39010SOL    HW221716   4.797  10.842   1.808 -1.6100 -0.0319 -0.2097
39011SOL     OW21717   3.713   9.303  10.113 -0.0596  0.3668  0.0093
39011SOL    HW121718   3.700   9.371  10.047  0.5228 -0.8252 -1.3940
39011SOL    HW221719   3.708   9.221  10.064 -0.7556 -0.6140  1.6558
39012SOL     OW21720   4.500   1.236   7.818 -0.0489 -0.4064 -0.1909
39012SOL    HW121721   4.438   1.242   7.890 -0.9686  1.0718 -1.0612
39012SOL    HW221722   4.571   1.295   7.842 -1.3728  1.7942 -1.3990
39013SOL     OW21723  10.703  10.815   2.186 -0.5558  0.2887 -0.1433
39013SOL    HW121724  10.702  10.893   2.242 -1.0223  1.2670 -1.4459
39013SOL    HW221725  10.627  10.765   2.214  0.0351  0.0301  1.0504
39014SOL     OW21726   2.786   4.609   1.041  0.3406 -0.5082 -0.0011
39014SOL    HW121727   2.868   4.624   0.995 -0.6667 -0.3159 -1.8168
39014SOL    HW221728   2.804   4.536   1.100  1.9154 -0.1970 -0.0591
39015SOL     OW21729   8.860   9.414   1.271  0.8497  0.0163  0.4415
39015SOL    HW121730   8.883   9.322   1.254  2.1628  0.4834 -0.4809
39015SOL    HW221731   8.932   9.464   1.232 -0.0071  1.4551  0.6436
39016SOL     OW21732  10.553   6.637   9.878  0.3775  0.3109 -0.2526
39016SOL    HW121733  10.500   6.690   9.938  0.3127  2.0272 -1.7615
39016SOL    HW221734  10.546   6.681   9.794  0.9577 -1.7043 -1.4272
39017SOL     OW21735   3.679   7.714   6.051 -0.8005 -0.2086 -0.4155
39017SOL    HW121736   3.715   7.665   5.976 -0.3323 -1.2256  0.4551
39017SOL    HW221737   3.665   7.648   6.119 -0.9329  0.7474  0.5113
39018SOL     OW21738   6.193   1.473   7.755 -0.2996 -0.4997  0.3555
39018SOL    HW121739   6.268   1.523   7.788 -0.1575 -0.5035  0.0391
39018SOL    HW221740   6.121   1.537   7.752 -0.1880 -0.3827  0.2073
39019SOL     OW21741  10.002   1.581  10.377 -0.3857 -0.1200 -0.6699
39019SOL    HW121742   9.985   1.673  10.400  0.1088 -0.1118 -0.3412
39019SOL    HW221743   9.923   1.554  10.328 -1.3368 -0.0608  0.7817
39020SOL     OW21744  10.213   9.970  11.410 -0.4111  0.3094  0.5036
39020SOL    HW121745  10.283  10.034  11.423  1.2741 -1.0858 -1.1181
39020SOL    HW221746  10.187   9.982  11.318 -0.2534 -1.1080  0.2490
39021SOL     OW21747   5.805  10.592   5.008 -0.2411 -0.0793  0.2797
39021SOL    HW121748   5.764  10.562   4.927 -1.4827  2.7184 -0.2137
39021SOL    HW221749   5.790  10.520   5.070 -1.5126 -1.2078 -1.2463
39022SOL     OW21750   4.573   4.764  11.436 -0.0863 -0.4055 -0.2626
39022SOL    HW121751   4.601   4.814  11.512 -0.9202  1.6554 -1.2513
39022SOL    HW221752   4.632   4.688  11.435 -0.2240 -0.6623  2.5350
39023SOL     OW21753  11.871   6.770   4.246  0.4498  0.4432  0.1460
39023SOL    HW121754  11.785   6.809   4.230  0.4311  0.1427 -0.4931
39023SOL    HW221755  11.861   6.724   4.329  0.1204  0.7637  0.2878
39024SOL     OW21756   5.614   3.479   3.643 -0.4450  0.8464 -0.1559
39024SOL    HW121757   5.528   3.500   3.607 -1.2362 -0.2897  0.9826
39024SOL    HW221758   5.625   3.540   3.716 -1.6834 -0.9521  1.6304
39025SOL     OW21759   0.461   2.870   4.714 -0.4405 -0.2400  0.6509
39025SOL    HW121760   0.435   2.784   4.682 -2.1552  0.2667  0.5962
39025SOL    HW221761   0.411   2.883   4.794 -1.6043  1.3932 -0.2677
39026SOL     OW21762  11.077   3.364   4.708  0.0964  0.0205  0.3874
39026SOL    HW121763  11.089   3.459   4.721  2.1625 -0.0306 -0.7390
39026SOL    HW221764  11.165   3.328   4.718 -0.4816 -1.6539 -0.3314
39027SOL     OW21765   6.735   0.593   0.941 -0.2686  0.2035  0.2254
39027SOL    HW121766   6.672   0.663   0.962 -0.1637  0.4572 -0.2810
39027SOL    HW221767   6.797   0.634   0.880 -0.8923 -0.6633 -1.0295
39028SOL     OW21768   2.493   1.345   0.430  0.3082 -0.8134 -0.2222
39028SOL    HW121769   2.576   1.337   0.478  0.6600  2.0471 -0.2064
39028SOL    HW221770   2.452   1.424   0.464 -0.2547  0.4130 -3.3579
39029SOL     OW21771   9.626   9.953   4.668  0.2445 -0.6545  0.0559
39029SOL    HW121772   9.577   9.871   4.661 -0.8171 -0.0768  0.4862
39029SOL    HW221773   9.698   9.932   4.728 -2.0172 -0.4502  3.1171
39030SOL     OW21774   9.252   3.100   4.694  0.2567  0.2270 -0.4684
39030SOL    HW121775   9.258   3.113   4.789  0.5771 -1.4142 -0.2277
39030SOL    HW221776   9.326   3.149   4.658  0.3431  0.5738  0.1700
39031SOL     OW21777   6.461   0.736   8.995 -0.3419 -0.7541 -0.3195
39031SOL    HW121778   6.426   0.649   8.977 -1.0416 -0.5111 -0.1784
39031SOL    HW221779   6.500   0.764   8.913  1.0823 -1.7295 -0.0110
39032SOL     OW21780   0.953   4.136  10.989 -0.3718 -0.5216  0.4327
39032SOL    HW121781   0.877   4.114  11.043 -0.4016  0.2565  0.7218
39032SOL    HW221782   1.011   4.183  11.048  1.1526 -2.5979  0.6868
39033SOL     OW21783  11.346  10.812   2.427 -0.6281 -0.5794 -0.3864
39033SOL    HW121784  11.284  10.758   2.476 -0.1553 -2.0461 -1.3334
39033SOL    HW221785  11.332  10.787   2.335  0.8300 -0.3960 -0.6787
39034SOL     OW21786   5.785   6.694   1.592  0.5586  0.4803  0.4522
39034SOL    HW121787   5.719   6.636   1.630  0.7157  0.7103  1.0938
39034SOL    HW221788   5.865   6.642   1.591  0.4151  0.2651 -0.1516
39035SOL     OW21789   3.764   8.314   4.142 -0.1807  0.4242 -0.9557
39035SOL    HW121790   3.843   8.331   4.195 -0.6257 -1.2693  0.3444
39035SOL    HW221791   3.798   8.285   4.057  0.6385 -0.4999 -0.3432
39036SOL     OW21792   6.264   5.721   3.100 -0.9066 -0.3933  0.5293
39036SOL    HW121793   6.283   5.672   3.020 -0.3986  1.3686 -0.4865
39036SOL    HW221794   6.348   5.760   3.125 -1.5988  1.3683  0.2694
39037SOL     OW21795  11.134   2.250   0.881  0.2832 -0.2675 -0.1937
39037SOL    HW121796  11.140   2.200   0.799 -2.1222  0.7957 -1.1193
39037SOL    HW221797  11.137   2.341   0.853 -1.3799  0.1221  0.7744
39038SOL     OW21798   4.556   7.068   8.812 -0.2041 -0.0333 -0.1587
39038SOL    HW121799   4.494   7.102   8.876  1.2914 -0.7298  1.7353
39038SOL    HW221800   4.639   7.110   8.834  0.2387  0.2196 -2.0937
39039SOL     OW21801   6.633   2.165  10.632  0.3837 -0.2419  0.9906
39039SOL    HW121802   6.699   2.112  10.588 -1.1679 -2.0723  0.7470
39039SOL    HW221803   6.681   2.215  10.697  1.9949 -1.4973  0.8090
39040SOL     OW21804   3.700   8.830   4.596  0.3118  0.0695  0.0618
39040SOL    HW121805   3.642   8.754   4.588 -0.5281  0.5575  1.1732
39040SOL    HW221806   3.685   8.879   4.515  0.9353 -0.9627 -0.7126
39041SOL     OW21807  10.567   1.515   4.935  0.2918  0.0008 -0.3347
39041SOL    HW121808  10.631   1.476   4.994 -1.0938 -1.2813  0.3956
39041SOL    HW221809  10.553   1.448   4.868  0.4494  0.6830 -1.0630
39042SOL     OW21810   5.575  10.020   4.417 -0.1826  0.0230 -0.7666
39042SOL    HW121811   5.541   9.967   4.489 -1.5632  0.9816 -0.6708
39042SOL    HW221812   5.523  10.100   4.421  1.0191  0.8696 -1.6648
39043SOL     OW21813   7.185   4.879   1.085  0.3664 -0.4953  0.1339
39043SOL    HW121814   7.128   4.956   1.082  1.6656  0.4876 -0.2007
39043SOL    HW221815   7.157   4.831   1.163 -0.6547  0.1552  0.1803
39044SOL     OW21816   9.809   4.170   0.049 -0.0123 -0.0181 -0.0673
39044SOL    HW121817   9.716   4.157   0.032  0.2743 -1.3087 -0.8058
39044SOL    HW221818   9.853   4.124  -0.022  1.2022  1.3989 -0.2827
39045SOL     OW21819   8.846  11.057   2.084  0.0667 -0.0183 -0.3286
39045SOL    HW121820   8.777  11.021   2.140  0.5317 -0.0100  0.2532
39045SOL    HW221821   8.869  11.140   2.125  0.9759 -0.3872 -0.0624
39046SOL     OW21822   2.312   5.336   2.125  0.0854 -0.1790  0.0500
39046SOL    HW121823   2.376   5.396   2.085  1.1268 -1.6600 -0.6024
39046SOL    HW221824   2.332   5.251   2.086 -1.5084 -0.9163  0.7779
39047SOL     OW21825   6.029   3.081   4.741  0.1245 -0.2047  0.0967
39047SOL    HW121826   6.084   3.071   4.663  0.7032 -0.6036  0.5443
39047SOL    HW221827   6.033   2.995   4.785 -2.9334 -1.1420 -1.1660
39048SOL     OW21828   4.906   7.991   9.973 -0.0032  0.3540  0.6705
39048SOL    HW121829   4.931   8.083   9.972  0.0224  0.3416 -0.1677
39048SOL    HW221830   4.984   7.944   9.944 -0.4725  0.1906 -0.3718
39049SOL     OW21831   4.125   4.424  11.984  0.4841  0.2311 -0.2049
39049SOL    HW121832   4.068   4.498  11.963  0.0151 -0.7889 -2.8022
39049SOL    HW221833   4.212   4.452  11.958  0.3073 -0.1032 -1.1832
39050SOL     OW21834   5.657   5.957   1.256 -0.1736 -0.2822  0.1571
39050SOL    HW121835   5.564   5.967   1.238  0.0400  0.0210 -0.8364
39050SOL    HW221836   5.661   5.906   1.336 -1.1916 -0.4567  0.1023
39051SOL     OW21837   0.760   4.347   0.105  0.1436  0.4371  0.2573
39051SOL    HW121838   0.675   4.346   0.149 -0.4560  1.1834 -0.8530
39051SOL    HW221839   0.799   4.262   0.128 -1.5204 -0.5600 -0.3772
39052SOL     OW21840   0.777   0.922   2.397 -0.3326 -0.1579 -0.3874
39052SOL    HW121841   0.741   1.011   2.394  0.0290 -0.0142 -0.5091
39052SOL    HW221842   0.781   0.894   2.306  2.1966  0.7841 -0.6603
39053SOL     OW21843   8.848   4.530   8.094 -0.6143 -0.1826  0.0668
39053SOL    HW121844   8.822   4.596   8.158 -1.0898  0.9577 -1.2471
39053SOL    HW221845   8.906   4.471   8.142 -0.7737  0.7572  1.4704
39054SOL     OW21846   0.815  11.915   2.881 -0.7613  0.1609  0.8297
39054SOL    HW121847   0.818  12.010   2.892 -0.8738  0.3972 -0.8968
39054SOL    HW221848   0.783  11.882   2.964 -1.7027  1.7128  1.1202
39055SOL     OW21849   4.297   2.422   1.063 -0.1171 -0.2844 -0.1199
39055SOL    HW121850   4.363   2.354   1.047 -0.7718 -1.0008  0.1585
39055SOL    HW221851   4.242   2.421   0.984 -0.5461 -0.5766  0.1758
39056SOL     OW21852   8.964  10.436   3.136 -0.0150  0.5952 -0.1357
39056SOL    HW121853   8.980  10.433   3.041 -1.2851 -0.1920 -0.3416
39056SOL    HW221854   8.953  10.530   3.155  0.2989  0.7638 -0.7612
39057SOL     OW21855   2.537   6.340   6.498 -0.2636 -0.4435 -0.9301
39057SOL    HW121856   2.459   6.387   6.470 -0.7074 -0.5515  0.0590
39057SOL    HW221857   2.503   6.255   6.529  0.3182 -0.7218 -1.0408
39058SOL     OW21858  10.531   5.157   5.928 -0.0579 -0.1426 -0.2443
39058SOL    HW121859  10.534   5.181   5.835  0.7066 -0.3580 -0.2784
39058SOL    HW221860  10.523   5.241   5.973  1.3900  0.1106 -0.4258
39059SOL     OW21861   5.348   0.452   9.448  0.3347  0.1108  0.6928
39059SOL    HW121862   5.299   0.447   9.366  1.3554  0.5967  0.0266
39059SOL    HW221863   5.292   0.502   9.507 -0.0124  0.5777 -0.0189
39060SOL     OW21864  11.342   5.658   9.385  0.1467 -0.1647 -0.0843
39060SOL    HW121865  11.370   5.619   9.468  1.1978  1.8133  0.5472
39060SOL    HW221866  11.423   5.667   9.335  0.0920  1.7877  0.0868
39061SOL     OW21867   6.883   0.785   8.964 -0.4512 -0.3490 -0.6124
39061SOL    HW121868   6.839   0.870   8.963  0.4178  0.1522  0.9153
39061SOL    HW221869   6.974   0.805   8.946 -0.2480 -0.9660 -0.3042
39062SOL     OW21870   6.061   4.011  10.523  0.0568 -0.9960 -0.4451
39062SOL    HW121871   6.035   4.044  10.437 -1.8436 -1.2290  0.0002
39062SOL    HW221872   6.098   3.924  10.505 -0.7170 -1.2218 -0.9976
39063SOL     OW21873   6.428   1.697   4.030 -0.2310  0.0101 -0.3751
39063SOL    HW121874   6.421   1.614   4.077 -0.4824  0.0544 -0.3327
39063SOL    HW221875   6.467   1.674   3.945 -1.6009 -0.3622 -0.9231
39064SOL     OW21876   8.516   0.684   8.802  0.1855 -0.8087 -0.0351
39064SOL    HW121877   8.513   0.639   8.718 -1.1007  3.3823 -2.5741
39064SOL    HW221878   8.589   0.745   8.794  0.3504 -0.6470  2.1340
39065SOL     OW21879   5.558  10.441   6.507 -0.0538  0.1130 -0.0612
39065SOL    HW121880   5.477  10.430   6.457 -0.3451  1.5978  0.0565
39065SOL    HW221881   5.627  10.424   6.443 -0.4020  2.5138 -1.1927
39066SOL     OW21882  11.881   4.624   7.658  0.0777  0.1196  0.1354
39066SOL    HW121883  11.839   4.542   7.634 -0.3175  0.6352 -1.0068
39066SOL    HW221884  11.859   4.637   7.751 -0.9353 -0.4184 -0.0251
39067SOL     OW21885  10.810   7.231  11.932 -0.0401  0.3688 -0.5802
39067SOL    HW121886  10.787   7.313  11.977  0.3503 -0.8653  2.0597
39067SOL    HW221887  10.775   7.242  11.844 -2.3347  2.3263  0.4551
39068SOL     OW21888   0.603   9.829   7.079 -0.7082 -0.2765 -0.6902
39068SOL    HW121889   0.583   9.758   7.019 -0.2056 -0.1947 -0.9578
39068SOL    HW221890   0.679   9.799   7.129 -0.0551  0.3471 -1.2903
39069SOL     OW21891   7.087   0.438   1.175  0.2979  0.0160  0.3377
39069SOL    HW121892   7.128   0.367   1.225  1.8699  0.8720  0.3229
39069SOL    HW221893   6.997   0.408   1.160  0.5323 -1.3639  1.4923
39070SOL     OW21894   8.508  10.767   9.555 -0.2674  0.7541 -0.0598
39070SOL    HW121895   8.575  10.764   9.486  0.5049  2.7671  0.5274
39070SOL    HW221896   8.556  10.750   9.636 -1.2188 -1.9105  0.0602
39071SOL     OW21897   1.238   7.882   4.173 -0.4101  0.1618 -0.5368
39071SOL    HW121898   1.236   7.789   4.149  2.2462  0.4320 -2.0687
39071SOL    HW221899   1.318   7.892   4.224 -1.5651  1.3284  1.1473
39072SOL     OW21900   1.738  10.478   7.979  0.0140 -0.5142  0.7040
39072SOL    HW121901   1.826  10.508   7.954  0.3764 -0.6980  1.7114
39072SOL    HW221902   1.736  10.487   8.074 -1.2779  0.0217  0.6319
39073SOL     OW21903   7.345   0.422   9.564 -0.4071 -0.0241 -0.4369
39073SOL    HW121904   7.360   0.345   9.619 -1.3396 -1.0073 -1.5167
39073SOL    HW221905   7.266   0.401   9.514 -1.2053  1.9883 -0.1411
39074SOL     OW21906   9.870  11.282  10.812 -0.0217  0.0503 -0.2604
39074SOL    HW121907   9.833  11.231  10.739  0.1274  0.4881 -0.6501
39074SOL    HW221908   9.928  11.345  10.769  0.2089  0.1930  0.2551
39075SOL     OW21909   4.804   0.025   4.139  0.0974 -0.1565 -0.1807
39075SOL    HW121910   4.808   0.055   4.230  0.7197 -0.3076 -0.1518
39075SOL    HW221911   4.868   0.080   4.093  1.5138 -1.6024 -0.0612
39076SOL     OW21912   6.557   8.732   3.977 -0.3483  0.3890 -0.0532
39076SOL    HW121913   6.540   8.796   4.045  0.8205  0.1777  0.4612
39076SOL    HW221914   6.513   8.653   4.006 -0.7711  0.6073 -0.0927
39077SOL     OW21915  11.632  10.744   6.246  0.0536 -0.3416  0.2867
39077SOL    HW121916  11.579  10.664   6.244 -3.3528  1.7234  0.4153
39077SOL    HW221917  11.615  10.785   6.161  1.7662  0.3058  0.2245
39078SOL     OW21918   2.221   3.079   5.659 -0.3892 -0.2145 -0.1758
39078SOL    HW121919   2.273   3.088   5.579  1.1959 -0.1603  0.8121
39078SOL    HW221920   2.268   3.131   5.724  0.0204 -2.5865  1.5478
39079SOL     OW21921   7.082  10.415   7.903  0.1818 -0.2543 -0.5699
39079SOL    HW121922   7.032  10.449   7.828 -0.9051  0.5616  0.4912
39079SOL    HW221923   7.143  10.485   7.925 -0.7384  0.2772  0.4060
39080SOL     OW21924  10.309   1.612   9.162 -0.4293  0.1740  0.3743
39080SOL    HW121925  10.296   1.707   9.159  0.9965  0.3672 -1.1239
39080SOL    HW221926  10.396   1.601   9.201  1.7451 -0.1275 -3.9010
39081SOL     OW21927   0.620   1.740   2.579  0.7789  0.2010 -0.1587
39081SOL    HW121928   0.701   1.758   2.533  0.8094  0.3941 -0.0307
39081SOL    HW221929   0.552   1.779   2.524  0.3359 -3.1181 -2.2335
39082SOL     OW21930   9.187  11.901   9.052  0.5072 -0.1143 -0.4951
39082SOL    HW121931   9.199  11.962   8.979  0.5587 -0.8539 -1.1273
39082SOL    HW221932   9.202  11.953   9.130 -0.8289  1.0132 -0.9460
39083SOL     OW21933   4.892   4.176   1.224  0.0680  0.6305  0.0565
39083SOL    HW121934   4.936   4.115   1.165 -1.1478 -0.8985  0.6768
39083SOL    HW221935   4.800   4.174   1.197 -0.5917 -0.4012  2.1779
39084SOL     OW21936   7.315   1.467   5.375 -0.2716  0.4467  0.3422
39084SOL    HW121937   7.380   1.404   5.345  0.2218  1.3199 -0.4993
39084SOL    HW221938   7.253   1.416   5.426  0.3906 -0.6196  0.1020
39085SOL     OW21939   4.554   1.806   9.934 -0.3118 -0.1377 -0.6573
39085SOL    HW121940   4.481   1.769   9.884 -2.2334  2.0001  0.3850
39085SOL    HW221941   4.588   1.876   9.878 -0.0387 -0.1420 -0.4984
39086SOL     OW21942   0.165  11.277   7.499  0.1147 -0.8620  0.3817
39086SOL    HW121943   0.167  11.266   7.404 -2.7850 -1.3309  0.2970
39086SOL    HW221944   0.193  11.193   7.534 -0.5651 -1.2832 -0.0778
39087SOL     OW21945   9.247   8.836   1.717  0.0853 -0.5610 -0.5063
39087SOL    HW121946   9.175   8.805   1.661 -2.1327  0.3095  1.6717
39087SOL    HW221947   9.261   8.927   1.690 -2.5572  0.6195  1.6351
39088SOL     OW21948   5.889   1.915   8.942 -0.1739 -0.3972 -0.2077
39088SOL    HW121949   5.840   1.991   8.911  0.3063 -0.3640 -0.9404
39088SOL    HW221950   5.827   1.843   8.938  0.0496 -0.5368 -1.9983
39089SOL     OW21951   7.962   2.089   5.788 -0.1235 -0.1533 -0.4634
39089SOL    HW121952   7.941   2.064   5.698 -1.5738 -0.8116  0.0183
39089SOL    HW221953   7.877   2.093   5.832  0.5658  0.0624  0.9021
39090SOL     OW21954   2.506   4.240   1.335 -0.4615  0.0235  0.0439
39090SOL    HW121955   2.419   4.199   1.325 -1.0499  1.3118 -0.2613
39090SOL    HW221956   2.567   4.167   1.323 -1.4633 -0.6948 -0.9983
39091SOL     OW21957   8.231   1.334   1.138 -0.4394 -1.0922  0.6208
39091SOL    HW121958   8.236   1.360   1.046  1.1009 -2.1367  0.3841
39091SOL    HW221959   8.250   1.415   1.186  0.3075 -0.8696 -0.0193
39092SOL     OW21960  10.222   3.406   1.636  0.0473 -0.0266  0.3133
39092SOL    HW121961  10.131   3.418   1.665 -0.0418  1.5507 -0.5626
39092SOL    HW221962  10.256   3.494   1.624  1.4129 -0.6064 -0.3023
39093SOL     OW21963   3.512   8.939   8.044 -0.1657 -0.3459 -0.3052
39093SOL    HW121964   3.438   8.989   8.011 -0.4909 -1.4585 -1.3396
39093SOL    HW221965   3.473   8.855   8.072  0.5119 -0.4334  0.4128
39094SOL     OW21966  10.537   9.612  11.720 -0.4027  0.5909 -0.5779
39094SOL    HW121967  10.554   9.658  11.637 -0.6807 -0.3937 -1.2078
39094SOL    HW221968  10.619   9.620  11.769 -0.1183  0.9201 -1.0933
39095SOL     OW21969   3.335   8.669   3.698 -0.0287 -0.3489 -0.0913
39095SOL    HW121970   3.392   8.616   3.754 -0.1257 -0.5425 -0.1764
39095SOL    HW221971   3.303   8.608   3.632  1.7869  0.2850 -1.6792
39096SOL     OW21972  11.181   6.061   4.251 -0.0006  0.2290 -0.1249
39096SOL    HW121973  11.212   6.078   4.340 -0.2148 -0.2824  0.0513
39096SOL    HW221974  11.150   6.146   4.220  1.7536  0.7978 -0.3860
39097SOL     OW21975   9.217  10.131   2.401  0.5819  0.0565 -0.5914
39097SOL    HW121976   9.191  10.039   2.404 -1.6446  0.6248 -1.1923
39097SOL    HW221977   9.252  10.143   2.312  1.9410 -0.4474 -0.1447
39098SOL     OW21978   1.795   6.135   1.669  0.5366 -0.0154  0.4847
39098SOL    HW121979   1.838   6.100   1.591  0.3666  3.1895 -1.2112
39098SOL    HW221980   1.705   6.101   1.664  0.9595 -1.1154  0.1913
39099SOL     OW21981   1.745   7.797   9.804 -0.0605 -0.0050  0.0509
39099SOL    HW121982   1.659   7.793   9.844 -0.5262  2.5845 -0.5200
39099SOL    HW221983   1.791   7.721   9.839 -2.7432 -1.8490 -0.1579
39100SOL     OW21984   1.035   6.232   6.696  0.0306 -0.0265  0.3567
39100SOL    HW121985   1.027   6.149   6.744 -1.6011 -0.2669 -0.2815
39100SOL    HW221986   1.128   6.238   6.673  0.1334 -1.7738  0.2381
39101SOL     OW21987   1.751   3.492   6.585 -0.3649 -0.2878  0.1146
39101SOL    HW121988   1.668   3.447   6.572 -0.6686 -0.0042  0.9584
39101SOL    HW221989   1.750   3.516   6.678  0.6345 -0.2308  0.1188
39102SOL     OW21990  10.809   2.086   8.127 -0.5081  0.2945  0.0240
39102SOL    HW121991  10.727   2.067   8.082 -1.4881 -0.2227  1.9242
39102SOL    HW221992  10.783   2.132   8.207  0.9595 -0.5984  1.0769
39103SOL     OW21993   6.177   6.693   4.976 -0.4376  0.1359  0.0679
39103SOL    HW121994   6.138   6.636   5.042  0.2957  1.3099  1.5803
39103SOL    HW221995   6.265   6.658   4.962  0.5658  1.6083  2.0824
39104SOL     OW21996   5.513   3.359   3.873  0.5778  0.2395  0.6511
39104SOL    HW121997   5.595   3.340   3.829  0.3977  1.4809 -0.2752
39104SOL    HW221998   5.445   3.328   3.813  0.3427  0.2041  0.9287
39105SOL     OW21999   9.614   8.227   7.104  0.1591  0.0598  0.0435
39105SOL    HW122000   9.697   8.269   7.080 -0.4752  1.3147  0.0259
39105SOL    HW222001   9.594   8.261   7.191 -0.9715  0.7549 -0.4732
39106SOL     OW22002   1.753   6.064   9.887 -0.1027 -0.0673 -0.0718
39106SOL    HW122003   1.686   5.998   9.870 -1.0709  0.1781  2.3886
39106SOL    HW222004   1.817   6.021   9.943 -0.1749  0.7371  0.6603
39107SOL     OW22005  10.763   4.971   7.267 -0.0027  0.5081  0.2230
39107SOL    HW122006  10.772   5.016   7.350  0.4685  1.2245 -0.2055
39107SOL    HW222007  10.808   5.028   7.204  0.0457 -0.2454 -0.4367
39108SOL     OW22008   2.657   2.354   2.474 -0.2602 -0.2518 -0.5273
39108SOL    HW122009   2.723   2.410   2.516 -0.0673 -0.9285  0.0965
39108SOL    HW222010   2.578   2.368   2.527 -0.2155 -0.5535 -0.3797
39109SOL     OW22011   4.433   3.030   8.501 -0.7164  0.0951 -0.0924
39109SOL    HW122012   4.513   2.981   8.488 -0.3142  1.0081 -1.2276
39109SOL    HW222013   4.406   3.009   8.590  2.1286  1.6374  1.2884
39110SOL     OW22014   1.777   4.400   4.981  0.2594 -0.0680  0.9983
39110SOL    HW122015   1.770   4.473   4.919 -0.7871 -0.8712  0.1208
39110SOL    HW222016   1.792   4.441   5.066 -2.3902  1.3118  0.8824
39111SOL     OW22017   4.318   8.899   0.574 -0.0147  0.2470 -0.1129
39111SOL    HW122018   4.366   8.850   0.507  1.1103 -0.1164  0.9327
39111SOL    HW222019   4.286   8.832   0.634  0.8779  0.7164  0.9110
39112SOL     OW22020   6.370   1.435   3.182  0.0690 -0.2967  0.5535
39112SOL    HW122021   6.377   1.514   3.235  0.5986  0.1806 -0.1991
39112SOL    HW222022   6.442   1.380   3.210  0.9119  0.3489 -0.2830
39113SOL     OW22023   5.849   7.357  11.690  0.5295  0.2503  0.1597
39113SOL    HW122024   5.911   7.413  11.643  0.1519 -0.0244 -0.6871
39113SOL    HW222025   5.878   7.268  11.669 -0.6320  0.1059 -0.9378
39114SOL     OW22026  11.575   5.927   7.529  0.0411 -0.0563  0.0257
39114SOL    HW122027  11.518   5.878   7.588 -0.1456  0.7087  0.4895
39114SOL    HW222028  11.521   5.940   7.450 -0.6636  1.1717  0.6813
39115SOL     OW22029   5.453   8.937  10.473 -0.3758 -0.1909  0.1710
39115SOL    HW122030   5.444   9.024  10.436  0.6906 -0.6435 -1.2379
39115SOL    HW222031   5.466   8.880  10.398 -1.4970 -1.6511  1.0189
39116SOL     OW22032   0.867   2.674   0.664  0.4742 -0.0717 -0.0812
39116SOL    HW122033   0.943   2.699   0.716  0.5236  0.4065 -0.3787
39116SOL    HW222034   0.881   2.714   0.579 -0.8530  1.3798  0.3358
39117SOL     OW22035   4.433   1.672  10.695 -0.3774  0.0845 -0.0203
39117SOL    HW122036   4.432   1.687  10.789 -0.2316  0.8871 -0.1330
39117SOL    HW222037   4.475   1.587  10.684  0.5544  0.4535  0.5875
39118SOL     OW22038  11.139  10.647  11.243 -0.5446  0.5860 -0.0325
39118SOL    HW122039  11.107  10.718  11.187  1.4360  1.0624 -0.6541
39118SOL    HW222040  11.063  10.591  11.257 -1.4543  1.2585 -1.9665
39119SOL     OW22041   8.053   1.670   4.536 -0.2655  0.1909 -0.7420
39119SOL    HW122042   8.139   1.687   4.573 -0.4155  1.4202 -0.9269
39119SOL    HW222043   8.000   1.746   4.561 -1.2933 -0.5175 -0.6627
39120SOL     OW22044   3.694  10.683   8.236  0.4440 -0.0415 -0.0411
39120SOL    HW122045   3.607  10.648   8.218 -0.4350  1.1145  1.6515
39120SOL    HW222046   3.752  10.607   8.236 -1.2321 -1.4713  2.7013
39121SOL     OW22047  10.815  10.014   7.441 -0.4623 -0.0004  0.1603
39121SOL    HW122048  10.890  10.066   7.470 -0.3149  0.5471 -1.1632
39121SOL    HW222049  10.739  10.059   7.477 -0.2526  0.3834  0.1250
39122SOL     OW22050   1.141  11.440   2.625 -0.2512 -0.9670 -0.5702
39122SOL    HW122051   1.206  11.438   2.695 -1.0716 -1.3061  0.1999
39122SOL    HW222052   1.107  11.530   2.625  1.8859 -0.0585 -2.5876
39123SOL     OW22053   4.006   1.636   0.077 -0.2636  0.0251 -0.9407
39123SOL    HW122054   4.055   1.557   0.101  1.7700  1.6588  0.7305
39123SOL    HW222055   4.054   1.671   0.002 -0.8990 -0.0620 -1.3985
39124SOL     OW22056   9.420  10.138   3.900 -0.2062  0.6702 -0.2443
39124SOL    HW122057   9.373  10.148   3.817  1.3808 -0.0704 -1.2866
39124SOL    HW222058   9.492  10.079   3.879 -0.0310  0.0872  1.8001
39125SOL     OW22059   6.821   7.131   9.884 -0.6766  0.2512 -0.2802
39125SOL    HW122060   6.821   7.141   9.789 -1.0551 -1.5008 -0.5025
39125SOL    HW222061   6.739   7.085   9.903 -0.0116 -0.5849  0.7310
39126SOL     OW22062   0.880   9.571   0.300 -0.3215 -0.3654 -0.6663
39126SOL    HW122063   0.817   9.606   0.363 -0.4908 -0.9128 -0.5216
39126SOL    HW222064   0.850   9.605   0.215  0.7591  1.5798 -0.3173
39127SOL     OW22065   4.472  10.992   4.213 -0.3464  0.4372  0.3015
39127SOL    HW122066   4.489  11.082   4.186 -0.7617  0.7508  1.0246
39127SOL    HW222067   4.545  10.941   4.178  0.1696  1.1449  0.3302
39128SOL     OW22068   6.880   2.351   0.213  0.4905 -0.0642 -0.4474
39128SOL    HW122069   6.849   2.426   0.162  1.2786 -0.6869 -1.9087
39128SOL    HW222070   6.914   2.290   0.147 -0.6360 -1.9527  0.6561
39129SOL     OW22071   2.115   9.352   6.048 -0.2441 -0.7729  0.2284
39129SOL    HW122072   2.173   9.388   5.982 -2.2959  3.2245  0.3013
39129SOL    HW222073   2.149   9.385   6.131 -0.1439 -2.1794  0.7901
39130SOL     OW22074   8.698  11.444   5.141 -0.0384  0.0247 -0.0512
39130SOL    HW122075   8.718  11.437   5.047 -1.1947  0.4661 -0.3473
39130SOL    HW222076   8.664  11.533   5.151  0.3568  0.0832  0.8529
39131SOL     OW22077   7.444   9.712  10.388  0.2521  0.2001 -0.2443
39131SOL    HW122078   7.374   9.650  10.409  0.4821 -0.0508 -0.2082
39131SOL    HW222079   7.469   9.751  10.471 -0.3976  0.8878 -0.3664
39132SOL     OW22080  11.766  11.348  11.309 -0.4071  0.1792  0.3648
39132SOL    HW122081  11.672  11.332  11.317 -0.7189  2.1574  1.1461
39132SOL    HW222082  11.793  11.375  11.397  0.8767 -0.2033  0.1121
39133SOL     OW22083   2.729   5.856   5.931 -0.2455  0.4109 -0.3247
39133SOL    HW122084   2.725   5.948   5.957 -2.2218 -0.3712  2.7266
39133SOL    HW222085   2.662   5.848   5.863  0.4878  1.3250 -1.1899
39134SOL     OW22086   7.256   0.764  10.954  0.8026  0.2250 -0.4466
39134SOL    HW122087   7.171   0.745  10.993  0.5262  1.6177 -0.3057
39134SOL    HW222088   7.273   0.856  10.977  2.0899  0.1358 -0.9375
39135SOL     OW22089  10.680  11.745   6.328  0.7540 -0.5472 -0.0474
39135SOL    HW122090  10.687  11.757   6.233  0.1982  1.1137  0.0881
39135SOL    HW222091  10.767  11.718   6.356  0.8243 -1.4384 -1.0655
39136SOL     OW22092  11.440   0.759   5.325 -0.4875 -0.2948 -0.1617
39136SOL    HW122093  11.457   0.669   5.353  0.7229 -0.0706 -0.1412
39136SOL    HW222094  11.431   0.753   5.230 -1.2927 -0.5575 -0.0782
39137SOL     OW22095  11.580   3.582   8.428  0.1464  0.1199 -0.1302
39137SOL    HW122096  11.609   3.638   8.356  0.9000  0.2287  0.2479
39137SOL    HW222097  11.599   3.493   8.399  0.6516  0.1757  0.0105
39138SOL     OW22098  11.604   7.237  11.050  0.5198  0.1105 -0.1459
39138SOL    HW122099  11.613   7.332  11.038 -0.4569  0.3280  0.6236
39138SOL    HW222100  11.668   7.199  10.990  2.0758  1.2885  0.6719
39139SOL     OW22101  10.462   6.938   4.536  0.0100 -0.4216  0.1622
39139SOL    HW122102  10.415   6.904   4.460 -1.2756 -1.1960  1.2724
39139SOL    HW222103  10.454   6.869   4.602 -1.8230  1.5627  2.1594
39140SOL     OW22104  11.611   4.902   6.543 -0.3649 -0.3090  0.0525
39140SOL    HW122105  11.576   4.851   6.469  0.4743 -1.7635  0.6327
39140SOL    HW222106  11.545   4.891   6.612 -0.4211 -0.1840  0.0200
39141SOL     OW22107   4.780  10.748   1.645 -0.6011 -0.0179  0.3290
39141SOL    HW122108   4.790  10.660   1.680  0.2504 -0.0530  0.0215
39141SOL    HW222109   4.828  10.747   1.562 -0.4933  0.7606  0.3713
39142SOL     OW22110   0.124   5.743   6.610 -0.1410  0.0591 -0.4931
39142SOL    HW122111   0.137   5.675   6.544 -0.9355 -1.1917  0.5911
39142SOL    HW222112   0.197   5.804   6.596 -0.2419 -0.1896 -2.4587
39143SOL     OW22113   7.369   9.806  10.144 -0.3214 -0.2278 -0.0144
39143SOL    HW122114   7.381   9.768  10.231  1.3860  0.5441  0.1185
39143SOL    HW222115   7.411   9.744  10.085  1.5142  0.8495  0.0933
39144SOL     OW22116   1.144   0.667   3.050 -0.4302  0.4892  0.4961
39144SOL    HW122117   1.139   0.717   3.131  0.8604  1.2626  0.1341
39144SOL    HW222118   1.064   0.690   3.002 -0.3282  1.4400  0.7722
39145SOL     OW22119   5.542  10.781   3.187  0.3912 -0.0273  0.2759
39145SOL    HW122120   5.462  10.776   3.239  1.0156 -0.0637  1.2596
39145SOL    HW222121   5.579  10.867   3.208 -0.1495  0.6592 -1.3592
39146SOL     OW22122  11.210   3.900   0.249 -0.4735 -0.1390 -0.1433
39146SOL    HW122123  11.202   3.807   0.270  0.4457 -0.8023 -2.4303
39146SOL    HW222124  11.261   3.936   0.321  2.4813 -2.2475 -0.9807
39147SOL     OW22125  10.376   1.006  11.529 -0.5737 -0.0764  0.4108
39147SOL    HW122126  10.294   1.001  11.482  0.0384 -0.8205 -0.6172
39147SOL    HW222127  10.436   1.053  11.470 -0.1893  0.2626  1.0482
39148SOL     OW22128   0.346   3.801   8.321  0.2706  0.2844 -0.5673
39148SOL    HW122129   0.348   3.722   8.375  0.0131  0.2370 -0.6275
39148SOL    HW222130   0.433   3.839   8.331  1.2246 -1.2369 -2.3729
39149SOL     OW22131   8.676   4.944  10.637 -0.5428 -0.0986 -0.8961
39149SOL    HW122132   8.727   4.863  10.648 -2.8840 -2.1536 -3.5585
39149SOL    HW222133   8.623   4.949  10.717  0.3924 -0.5959 -0.2224
39150SOL     OW22134   1.314  10.011   3.520 -0.6713 -0.4632  0.0446
39150SOL    HW122135   1.399  10.045   3.547  0.1907 -1.7312 -0.9546
39150SOL    HW222136   1.315  10.019   3.424 -1.5559 -0.7596  0.0020
39151SOL     OW22137   9.674   4.503   5.778  0.4012  0.7025 -0.0624
39151SOL    HW122138   9.707   4.413   5.783  0.1839  0.6366  0.2542
39151SOL    HW222139   9.605   4.506   5.845  1.3882  1.5188  0.9540
39152SOL     OW22140   5.083  11.401   3.554 -0.6288 -0.3218  0.5271
39152SOL    HW122141   5.036  11.420   3.635  0.2378  1.0550  0.7474
39152SOL    HW222142   5.158  11.461   3.555  0.0619 -1.1169 -0.7208
39153SOL     OW22143   3.637  10.718   4.219  0.1279  0.5409 -0.7105
39153SOL    HW122144   3.548  10.683   4.226 -0.2452  1.7837  1.3617
39153SOL    HW222145   3.639  10.762   4.134 -0.2932 -1.8350 -2.0681
39154SOL     OW22146   5.884  11.220   6.592 -0.2412  0.3275  0.0402
39154SOL    HW122147   5.935  11.209   6.512 -0.0448 -0.6771  0.2767
39154SOL    HW222148   5.905  11.308   6.623 -1.1419  1.1400 -1.5554
39155SOL     OW22149  10.951   3.072   8.563  0.2561 -0.2466  0.0563
39155SOL    HW122150  11.046   3.082   8.568  0.3100 -0.3748 -0.5446
39155SOL    HW222151  10.919   3.103   8.647  0.7937  0.2593  0.0844
39156SOL     OW22152   1.261   5.455   9.689 -0.2932 -0.3908  0.2563
39156SOL    HW122153   1.244   5.361   9.693  0.1234 -0.4858 -0.1517
39156SOL    HW222154   1.265   5.475   9.596  2.6199 -0.5469  0.2512
39157SOL     OW22155  11.053   3.785   3.324 -0.0669  0.1201 -0.7572
39157SOL    HW122156  11.057   3.785   3.420  1.1886 -0.7031 -0.7870
39157SOL    HW222157  11.016   3.870   3.302  0.9157  0.8801  0.4145
39158SOL     OW22158   8.200  11.272   4.973 -0.1621  0.1172 -0.0828
39158SOL    HW122159   8.160  11.291   4.888 -0.5232  1.5777  0.3939
39158SOL    HW222160   8.294  11.266   4.955 -0.3995 -2.2736 -1.0216
39159SOL     OW22161   2.311  11.970  11.069 -0.0809  0.5310  1.0481
39159SOL    HW122162   2.403  11.989  11.051 -0.2386  1.3765  1.1346
39159SOL    HW222163   2.314  11.902  11.137  0.4737  0.7734  1.2687
39160SOL     OW22164  10.677   4.838   1.989 -0.2801  0.3294  0.2834
39160SOL    HW122165  10.689   4.777   1.916  2.0241  0.3514  0.5691
39160SOL    HW222166  10.636   4.915   1.950 -0.4217 -0.2194 -0.6769
39161SOL     OW22167   0.712   8.369   1.710 -0.1052 -0.7742 -0.4530
39161SOL    HW122168   0.738   8.289   1.755 -1.5964 -0.3521  1.2559
39161SOL    HW222169   0.713   8.346   1.617 -3.5430 -3.8430  0.0577
39162SOL     OW22170   2.342   5.000   9.976 -0.1426  0.4538 -0.3400
39162SOL    HW122171   2.267   5.030  10.028 -0.2618  0.7739 -0.6938
39162SOL    HW222172   2.410   5.066   9.992  0.3889 -0.3197  0.7095
39163SOL     OW22173   5.734   6.501   0.310  0.0246 -0.6499 -1.0880
39163SOL    HW122174   5.805   6.563   0.292 -0.3448 -0.3346 -1.4827
39163SOL    HW222175   5.685   6.543   0.381  0.3293 -0.9526 -0.6920
39164SOL     OW22176   2.294   6.177   5.081  0.2705 -0.0109  0.4064
39164SOL    HW122177   2.219   6.229   5.052 -0.4067 -0.3949  1.4029
39164SOL    HW222178   2.359   6.189   5.013 -1.3446 -1.1197 -1.4402
39165SOL     OW22179   7.427   2.424   5.863 -0.1639  0.1286  0.3543
39165SOL    HW122180   7.407   2.380   5.946  0.2787 -1.5173 -0.3671
39165SOL    HW222181   7.518   2.401   5.846 -0.2666  0.4127 -0.6100
39166SOL     OW22182  10.074   7.110   3.280 -0.0386 -0.1270 -0.2694
39166SOL    HW122183  10.062   7.203   3.263  3.7198  0.5414 -0.2155
39166SOL    HW222184  10.065   7.101   3.375 -0.1031  0.2549 -0.2393
39167SOL     OW22185   3.277   7.860   0.468  0.0377  0.1378  0.0195
39167SOL    HW122186   3.267   7.950   0.500 -0.7771  0.1930 -0.3619
39167SOL    HW222187   3.220   7.856   0.392  0.1356 -0.6866 -0.0141
39168SOL     OW22188  10.629   1.619   1.014  0.3996 -0.3130  0.0018
39168SOL    HW122189  10.578   1.687   0.970  0.8326 -0.9733 -1.5867
39168SOL    HW222190  10.580   1.538   0.998  0.0968 -0.4514  1.5312
39169SOL     OW22191   5.678  11.171   6.949  0.4767  0.5765 -0.5011
39169SOL    HW122192   5.743  11.232   6.985 -0.8783  1.2977  0.8618
39169SOL    HW222193   5.611  11.228   6.910 -0.5318 -0.0347  0.3051
39170SOL     OW22194  10.073   4.534   0.068  0.4519  0.1947 -0.1763
39170SOL    HW122195  10.075   4.593  -0.007  2.3600 -0.7797 -0.9381
39170SOL    HW222196  10.148   4.561   0.121  0.0739 -0.1905  0.5678
39171SOL     OW22197   1.650  10.921   1.385 -0.3067  0.3405  0.2726
39171SOL    HW122198   1.568  10.873   1.372 -0.3385  0.5653 -0.4315
39171SOL    HW222199   1.663  10.967   1.302 -0.0653  1.2194  0.7867
39172SOL     OW22200   5.856   6.922   2.756  0.1710  0.4234  0.2461
39172SOL    HW122201   5.867   7.010   2.719  1.1800 -0.4456 -1.7102
39172SOL    HW222202   5.776   6.889   2.716  1.1733 -0.4609 -1.1231
39173SOL     OW22203   1.674   8.959   2.264 -0.0097  0.2689  0.5261
39173SOL    HW122204   1.731   9.035   2.276 -0.6556  0.8313  0.0597
39173SOL    HW222205   1.654   8.931   2.354 -1.1806  1.7334  0.7719
39174SOL     OW22206   0.257   5.272  11.054 -0.1582  0.3767  0.0332
39174SOL    HW122207   0.220   5.221  10.981 -0.1802  0.3028  0.0950
39174SOL    HW222208   0.342   5.232  11.071 -0.2232  0.2876  0.1552
39175SOL     OW22209   5.177   1.195   5.097 -0.3363 -0.0588  0.1586
39175SOL    HW122210   5.232   1.222   5.024  0.4589 -0.9041  0.4282
39175SOL    HW222211   5.227   1.219   5.175 -0.1341 -1.2425  0.4056
39176SOL     OW22212   5.368   3.652   6.459  0.0806 -0.3835 -0.2351
39176SOL    HW122213   5.398   3.639   6.549  0.0875 -0.3070 -0.2260
39176SOL    HW222214   5.395   3.741   6.438 -4.2290  1.5958  1.4435
39177SOL     OW22215  11.615   7.373   1.342 -0.2625  0.0921 -0.0146
39177SOL    HW122216  11.596   7.354   1.434 -0.5367 -0.2399 -0.1370
39177SOL    HW222217  11.529   7.379   1.300 -0.1259 -1.0634 -0.5064
39178SOL     OW22218   5.361   8.775   1.598 -0.0430 -0.2407  0.1445
39178SOL    HW122219   5.267   8.782   1.617  0.2197 -1.6254  2.2652
39178SOL    HW222220   5.369   8.697   1.543 -0.0717 -0.5323  0.5516
39179SOL     OW22221   9.819   1.099   2.132  0.4389 -0.1360 -0.0515
39179SOL    HW122222   9.904   1.075   2.096  0.1524 -1.8516  0.2832
39179SOL    HW222223   9.791   1.175   2.081  1.5155 -0.4672 -1.1804
39180SOL     OW22224  10.635   4.235   4.679  0.1366 -0.4206  0.0002
39180SOL    HW122225  10.619   4.167   4.614 -1.0660  0.8213 -1.0855
39180SOL    HW222226  10.722   4.268   4.658  0.0313 -0.4903 -0.5825
39181SOL     OW22227   5.151   1.134   0.891  0.5319 -0.3923  0.1772
39181SOL    HW122228   5.093   1.082   0.946 -0.8108  0.8491  0.0189
39181SOL    HW222229   5.192   1.071   0.832  1.8301 -1.7184  2.4107
39182SOL     OW22230  10.663   0.568   8.433 -0.3212  0.0681  0.6059
39182SOL    HW122231  10.756   0.575   8.453 -0.6805  0.8117  2.2187
39182SOL    HW222232  10.649   0.475   8.415  0.4891 -0.2991  1.7712
39183SOL     OW22233   3.233   7.880   5.534  0.4745 -0.6909 -0.1629
39183SOL    HW122234   3.140   7.854   5.535  0.3575 -0.4901 -1.9303
39183SOL    HW222235   3.263   7.853   5.447  2.3024 -1.4593  0.6687
39184SOL     OW22236   1.584  11.538  10.868 -0.0091 -0.0434  0.3456
39184SOL    HW122237   1.540  11.470  10.920  1.9834 -2.2256 -0.6688
39184SOL    HW222238   1.535  11.541  10.786  1.6915 -2.6787 -0.9027
39185SOL     OW22239   4.651  10.699   7.673  0.2687 -0.0184 -0.0821
39185SOL    HW122240   4.720  10.751   7.714 -0.8828  2.5352 -1.1592
39185SOL    HW222241   4.588  10.683   7.743  0.1758  0.9473  0.0748
39186SOL     OW22242  11.434  11.540   1.306  0.2145 -0.0997 -0.3384
39186SOL    HW122243  11.462  11.621   1.263  0.7772 -0.8340 -1.4307
39186SOL    HW222244  11.505  11.478   1.287  0.0671 -0.6876  0.9641
39187SOL     OW22245   6.024   6.041   8.208  0.2150 -0.1643 -0.5469
39187SOL    HW122246   6.009   5.981   8.135  0.0121 -0.4978 -0.2363
39187SOL    HW222247   6.116   6.065   8.200  0.6091 -1.4304 -0.0049
39188SOL     OW22248  10.924   7.040   5.559 -0.1785  0.0164  0.2631
39188SOL    HW122249  10.841   6.997   5.541 -0.1694 -0.1288  0.5656
39188SOL    HW222250  10.989   6.970   5.558  0.0465  0.2160 -0.6347
39189SOL     OW22251   2.961   0.740   9.052  0.1133  0.4644  0.5220
39189SOL    HW122252   2.902   0.783   8.990  0.8986  0.1384 -0.4877
39189SOL    HW222253   3.030   0.804   9.068  0.1519  0.3762  0.7139
39190SOL     OW22254   4.798   7.055   6.014  0.3450 -0.0027  0.1459
39190SOL    HW122255   4.733   7.047   5.944 -0.5967 -0.7137  1.0690
39190SOL    HW222256   4.856   6.981   6.001  1.1490  0.7655 -0.8237
39191SOL     OW22257   7.643   6.707   2.087  0.0805 -0.0222 -0.7240
39191SOL    HW122258   7.589   6.785   2.078 -2.3903 -1.7103 -1.6708
39191SOL    HW222259   7.717   6.723   2.028 -0.1808  1.6968 -0.6492
39192SOL     OW22260   0.547   7.319   2.113  0.5418  0.1479 -0.0590
39192SOL    HW122261   0.493   7.389   2.149 -0.7491 -1.0800  0.4732
39192SOL    HW222262   0.624   7.316   2.169 -0.7747 -0.7845  1.7847
39193SOL     OW22263   4.527   5.806   9.360 -0.1928 -0.3621  0.2962
39193SOL    HW122264   4.504   5.889   9.318  1.6491  0.0073 -0.1045
39193SOL    HW222265   4.581   5.831   9.435  1.1121 -1.1908 -0.3211
39194SOL     OW22266  10.001   7.681  10.576  0.1377 -0.1071  0.5785
39194SOL    HW122267   9.934   7.686  10.508 -1.9309 -0.5505  2.4735
39194SOL    HW222268  10.059   7.610  10.548 -0.5415 -0.1405 -0.7978
39195SOL     OW22269   7.486   0.893   4.374 -0.3731 -0.3819  0.0405
39195SOL    HW122270   7.508   0.861   4.462 -1.1045 -1.8819 -0.2771
39195SOL    HW222271   7.415   0.956   4.389  0.1815  0.1249  0.5919
39196SOL     OW22272   0.928   8.798   7.545  0.3035 -0.4016  0.5444
39196SOL    HW122273   1.023   8.813   7.547  0.2099  0.8144 -1.3816
39196SOL    HW222274   0.902   8.824   7.456 -2.0080  0.3949  1.3819
39197SOL     OW22275   1.429   3.368   9.897 -0.4434 -0.2659  0.0614
39197SOL    HW122276   1.506   3.337   9.944 -0.7657  0.6869  1.2740
39197SOL    HW222277   1.362   3.378   9.965 -0.4347  2.8176 -0.2485
39198SOL     OW22278  11.245   3.311   0.639 -0.4120 -0.4255 -0.4192
39198SOL    HW122279  11.253   3.378   0.707 -0.3493 -0.1457 -0.7007
39198SOL    HW222280  11.231   3.360   0.558  0.8444 -0.7133 -0.8219
39199SOL     OW22281   2.840   8.132   0.735 -0.3057  0.1563 -0.7118
39199SOL    HW122282   2.767   8.109   0.792  1.0179  1.3358  1.6431
39199SOL    HW222283   2.816   8.216   0.697  0.2661  1.1962  1.0888
39200SOL     OW22284   5.703   7.624   4.367  0.5431 -0.8729 -0.0681
39200SOL    HW122285   5.716   7.717   4.347 -2.2866 -0.6106 -1.1512
39200SOL    HW222286   5.672   7.586   4.285 -0.5734 -2.2614  0.9407
39201SOL     OW22287   4.632  10.010  10.155  0.0274  0.8973  0.0813
39201SOL    HW122288   4.554  10.064  10.152 -0.3399  0.8160  3.5432
39201SOL    HW222289   4.704  10.072  10.170  0.3370  0.7781 -0.8317
39202SOL     OW22290   7.204   2.159   1.873 -0.6580  0.3987  0.0307
39202SOL    HW122291   7.152   2.130   1.947  0.1936 -0.2963  0.3789
39202SOL    HW222292   7.175   2.105   1.800 -1.4522  1.0397 -0.1356
39203SOL     OW22293   2.957  11.456   6.670  0.5609  0.1481 -0.5668
39203SOL    HW122294   2.948  11.489   6.759  0.0429  0.0114 -0.5618
39203SOL    HW222295   2.912  11.520   6.615  0.5164  0.0221 -0.6805
39204SOL     OW22296  10.106   9.042   1.483  0.5452 -0.1142  0.1419
39204SOL    HW122297  10.091   9.089   1.401  0.3096 -0.0770  0.2056
39204SOL    HW222298  10.170   8.974   1.460 -0.5257 -0.9815 -0.3998
39205SOL     OW22299   0.421   2.781   1.032 -0.2185  0.3859  0.2106
39205SOL    HW122300   0.476   2.754   1.105 -1.0302 -2.6893 -0.1568
39205SOL    HW222301   0.478   2.776   0.956 -0.6920 -2.0934 -0.0681
39206SOL     OW22302   7.454  11.779   0.873  0.1666 -0.5524  0.0260
39206SOL    HW122303   7.502  11.760   0.953  0.3570 -0.1445  0.0130
39206SOL    HW222304   7.394  11.850   0.897 -0.1950 -0.8308 -0.0426
39207SOL     OW22305  10.558   1.968   8.043  0.4335 -0.7876  0.1100
39207SOL    HW122306  10.581   1.875   8.048  1.7953 -0.5019 -0.5039
39207SOL    HW222307  10.478   1.975   8.095 -0.3408 -2.5063 -0.7560
39208SOL     OW22308   1.888   7.983   6.951  0.0820  0.4776 -0.5347
39208SOL    HW122309   1.916   8.059   7.002  2.2890 -0.9395  0.4846
39208SOL    HW222310   1.912   8.004   6.861  2.5697  0.2079  0.0158
39209SOL     OW22311  10.047   9.047  11.851  0.6537  0.5657  0.2973
39209SOL    HW122312  10.024   9.060  11.759  0.8808 -2.7800 -0.3288
39209SOL    HW222313  10.010   9.124  11.896 -2.6746  0.5330 -2.0698
39210SOL     OW22314   9.466  11.770   8.362 -0.2559 -0.0399 -0.1408
39210SOL    HW122315   9.540  11.831   8.364 -0.5476  0.3704 -1.1775
39210SOL    HW222316   9.502  11.690   8.321  0.0752 -0.5133  1.0365
39211SOL     OW22317   4.711   8.391  11.331 -0.9767 -0.2088  0.3460
39211SOL    HW122318   4.687   8.372  11.421  0.7577 -1.4308  0.6000
39211SOL    HW222319   4.627   8.398  11.285 -1.9433  1.5332  2.2047
39212SOL     OW22320   1.392   3.554   5.341 -0.2785  0.0113 -0.5074
39212SOL    HW122321   1.403   3.479   5.399 -2.9567 -0.0652  0.0222
39212SOL    HW222322   1.392   3.517   5.253 -2.0482 -0.7560 -0.2290
39213SOL     OW22323   3.372   2.134   7.203  0.4067  0.1251 -0.1256
39213SOL    HW122324   3.400   2.165   7.289  0.8782 -1.7593  0.4409
39213SOL    HW222325   3.425   2.056   7.186 -1.7792 -1.3304 -0.7521
39214SOL     OW22326   7.217   4.565  10.582 -0.1859  0.3216  0.1545
39214SOL    HW122327   7.196   4.597  10.670 -0.0995 -0.4410  0.4624
39214SOL    HW222328   7.157   4.492  10.569 -0.5623  0.7654 -0.6422
39215SOL     OW22329   4.653  11.559   3.502  0.1467 -0.1872  0.3887
39215SOL    HW122330   4.735  11.578   3.547 -0.4649 -0.5703  1.7116
39215SOL    HW222331   4.598  11.635   3.521 -0.0533 -0.2642  0.1190
39216SOL     OW22332   5.080   0.586   1.356  0.0159 -0.8670 -0.1932
39216SOL    HW122333   5.104   0.495   1.336  0.1838 -0.8839  0.0715
39216SOL    HW222334   5.004   0.579   1.414 -2.0482 -0.7875 -2.6960
39217SOL     OW22335   4.684   1.611  11.370 -0.2209  0.0356 -0.3256
39217SOL    HW122336   4.589   1.610  11.363 -0.2113  1.9539 -1.2848
39217SOL    HW222337   4.715   1.610  11.279  0.8085 -3.1620 -0.0671
39218SOL     OW22338   5.169   8.211  10.148 -0.1339  0.3620 -0.4585
39218SOL    HW122339   5.203   8.237  10.233  0.2032  1.2044 -0.8339
39218SOL    HW222340   5.245   8.181  10.099 -0.5350 -1.5680  0.0125
39219SOL     OW22341   3.225   2.850   0.774 -0.3019  0.5554 -0.3652
39219SOL    HW122342   3.284   2.847   0.698  1.5293  1.1433  0.9594
39219SOL    HW222343   3.150   2.797   0.748  1.0391 -0.6869 -1.9340
39220SOL     OW22344   7.288   4.655   8.590 -0.2843 -0.3482 -0.5221
39220SOL    HW122345   7.344   4.626   8.662 -1.9276 -1.0620  0.5364
39220SOL    HW222346   7.320   4.606   8.514  2.4418  1.5097 -0.7097
39221SOL     OW22347   8.413   0.577  10.365  0.8914 -0.2987 -0.4923
39221SOL    HW122348   8.474   0.650  10.368  0.6000  0.0425  4.3014
39221SOL    HW222349   8.459   0.505  10.409  0.1177 -2.1636 -2.5659
39222SOL     OW22350   8.810   3.416   1.097 -0.0546  0.3230 -0.2548
39222SOL    HW122351   8.800   3.464   1.179  1.3707  0.4136 -0.1017
39222SOL    HW222352   8.744   3.347   1.102 -1.5633  1.7274 -0.1042
39223SOL     OW22353   9.931   5.286   4.872 -0.4243 -0.1963 -0.1987
39223SOL    HW122354   9.937   5.217   4.806  1.5383 -0.8200  0.5599
39223SOL    HW222355   9.840   5.285   4.901 -0.1675 -3.5461  0.8785
39224SOL     OW22356   0.052  11.350   6.760 -0.2948  0.2577 -0.4242
39224SOL    HW122357  -0.038  11.364   6.791 -0.2389 -1.0507  0.3812
39224SOL    HW222358   0.058  11.405   6.682 -1.7845  0.4028 -0.4792
39225SOL     OW22359   2.453   9.884   7.938  0.4456  0.1334 -0.3350
39225SOL    HW122360   2.520   9.821   7.909 -0.7681 -2.5211  2.0998
39225SOL    HW222361   2.370   9.842   7.915 -0.4152  1.1959  0.7211
39226SOL     OW22362   7.321   1.842   0.771  0.2497  0.5960 -0.2335
39226SOL    HW122363   7.413   1.861   0.751  1.0719 -2.9632 -0.4844
39226SOL    HW222364   7.272   1.904   0.717  2.5227  0.8433 -2.1787
39227SOL     OW22365  10.029   4.303   7.015  0.7715 -0.7669 -0.3371
39227SOL    HW122366  10.093   4.241   6.980 -0.0197 -1.4199 -0.6547
39227SOL    HW222367   9.996   4.261   7.095 -0.1339 -0.9998 -0.8194
39228SOL     OW22368   6.451   8.146   7.968 -0.4956  0.0415 -0.2562
39228SOL    HW122369   6.466   8.228   7.922  0.0670  0.3618  0.4662
39228SOL    HW222370   6.444   8.079   7.899  2.8964  0.0625 -0.7885
39229SOL     OW22371  11.233   6.220  10.105  0.2976  0.0513  0.3386
39229SOL    HW122372  11.322   6.206  10.072  1.3831  0.4461  2.8932
39229SOL    HW222373  11.214   6.311  10.081  1.4021  0.6082  1.4546
39230SOL     OW22374   5.580  11.623  11.235 -0.1058  0.1680  0.3097
39230SOL    HW122375   5.664  11.670  11.239  0.5016 -0.8088 -0.4078
39230SOL    HW222376   5.515  11.686  11.265  0.9830  0.7354  1.5636
39231SOL     OW22377   2.527  11.132   2.032  0.2411 -0.0149  0.4962
39231SOL    HW122378   2.507  11.040   2.016  1.2410 -0.1771  0.0868
39231SOL    HW222379   2.451  11.165   2.079  0.0736 -1.1683  1.0727
39232SOL     OW22380   8.333  11.990   5.623  0.2616  0.0942 -0.0271
39232SOL    HW122381   8.246  11.996   5.663 -0.7343 -1.2728 -1.8095
39232SOL    HW222382   8.342  12.070   5.572 -0.9444 -0.6606 -1.5380
39233SOL     OW22383   2.375   4.477   1.288 -0.2606 -0.0158  0.7114
39233SOL    HW122384   2.430   4.403   1.314  0.6199  0.5362  0.4688
39233SOL    HW222385   2.438   4.547   1.268 -0.8935 -0.1707 -2.2182
39234SOL     OW22386   5.223   2.696   4.068  0.1242  0.1261 -0.0052
39234SOL    HW122387   5.148   2.741   4.030  0.5570 -0.7476 -1.9776
39234SOL    HW222388   5.254   2.637   3.999  2.4727  0.2785  0.8325
39235SOL     OW22389   8.007   4.921   5.698 -0.4010 -0.1270 -0.0626
39235SOL    HW122390   7.946   4.878   5.638 -0.1909 -0.6889  0.1137
39235SOL    HW222391   8.035   5.000   5.652 -1.8672  0.5613  0.1866
39236SOL     OW22392   9.554  11.477  10.581  0.1761  0.3762 -0.2078
39236SOL    HW122393   9.535  11.486  10.674 -0.0233  1.3740 -0.3354
39236SOL    HW222394   9.563  11.383  10.567  1.1846  0.2804  0.9988
39237SOL     OW22395   3.463   2.857   3.568 -0.1374  0.2189  0.2560
39237SOL    HW122396   3.526   2.789   3.591 -0.4164 -0.3047 -0.5133
39237SOL    HW222397   3.427   2.885   3.653 -0.2430 -0.8078  0.5658
39238SOL     OW22398   3.352  11.341   1.999 -0.0339 -0.3260 -0.0867
39238SOL    HW122399   3.320  11.254   1.975 -1.1466  0.4345 -1.5006
39238SOL    HW222400   3.422  11.324   2.062 -0.5344 -2.2185  0.0226
39239SOL     OW22401   6.283   0.328   3.574 -0.2052 -0.1896  0.2440
39239SOL    HW122402   6.345   0.393   3.608 -0.4282  0.8903 -1.3158
39239SOL    HW222403   6.212   0.379   3.536  0.0184 -1.2952 -1.8140
39240SOL     OW22404   0.598  10.942   4.908 -0.6775  0.0407 -0.0451
39240SOL    HW122405   0.675  10.928   4.963 -1.3764  1.1207  1.2483
39240SOL    HW222406   0.592  10.862   4.855  1.9333  0.3742 -0.9660
39241SOL     OW22407   1.579   4.949   0.623  0.0641  0.2629 -0.6206
39241SOL    HW122408   1.487   4.925   0.624  0.2644 -0.5254 -0.5542
39241SOL    HW222409   1.584   5.024   0.563 -0.6693  0.5534 -0.3289
39242SOL     OW22410   1.531  10.706   7.609  0.1703  0.1855  0.4377
39242SOL    HW122411   1.586  10.758   7.551 -0.5322  1.6360  1.0009
39242SOL    HW222412   1.441  10.723   7.579 -0.1566  0.3744  1.4650
39243SOL     OW22413   0.532   1.949   6.555  0.1930 -0.2670 -0.3909
39243SOL    HW122414   0.534   1.981   6.465  1.0792 -0.1355 -0.3330
39243SOL    HW222415   0.585   2.011   6.604 -1.8477  0.7879  0.6220
39244SOL     OW22416   8.373   6.210   0.659  0.2906 -0.0091  0.2786
39244SOL    HW122417   8.395   6.283   0.717 -1.3058 -0.2656  1.2727
39244SOL    HW222418   8.284   6.186   0.683  0.0055 -0.9185 -1.4928
39245SOL     OW22419   3.280  11.564   0.878 -0.1514 -0.2305 -0.4041
39245SOL    HW122420   3.371  11.538   0.863  0.5680  2.2702 -0.8878
39245SOL    HW222421   3.281  11.604   0.965 -0.3836  1.2508 -1.0453
39246SOL     OW22422   8.417   1.070   0.344 -0.6869 -0.8506  0.0321
39246SOL    HW122423   8.508   1.051   0.369 -0.6171  0.0031  0.4804
39246SOL    HW222424   8.369   0.990   0.364  0.0724 -1.5215 -0.7850
39247SOL     OW22425   6.631   6.626   7.540  0.0107 -0.4268 -0.0748
39247SOL    HW122426   6.704   6.588   7.492  0.1387  0.0872 -0.2992
39247SOL    HW222427   6.632   6.719   7.515 -1.6196 -0.6690 -1.2580
39248SOL     OW22428   1.083   2.883   3.627  0.1959  0.6096 -0.4331
39248SOL    HW122429   1.015   2.929   3.578  0.9793  1.8918 -0.3484
39248SOL    HW222430   1.100   2.938   3.704 -0.4884 -0.9889  0.9483
39249SOL     OW22431   9.206   4.764   7.296  0.0250 -0.1568  0.0109
39249SOL    HW122432   9.278   4.734   7.241  0.0824 -0.0982  0.0530
39249SOL    HW222433   9.249   4.796   7.376 -0.0893 -0.6779  0.2866
39250SOL     OW22434   1.054  10.911   0.146 -0.2043  0.5605 -0.5622
39250SOL    HW122435   1.038  11.000   0.177 -0.6417  1.0840 -2.1782
39250SOL    HW222436   1.143  10.891   0.176 -0.9010  0.6290  1.7662
39251SOL     OW22437   0.183  10.269   4.678 -0.1674 -0.2412 -0.3294
39251SOL    HW122438   0.217  10.235   4.761 -0.5415  0.6382  0.1992
39251SOL    HW222439   0.226  10.216   4.611  2.0792  0.6733  0.3131
39252SOL     OW22440   2.953   0.661   0.377  0.0460  0.3402  0.4728
39252SOL    HW122441   3.034   0.675   0.327 -0.2208 -1.0912 -0.4190
39252SOL    HW222442   2.898   0.610   0.318 -1.6153  1.4592  0.9824
39253SOL     OW22443  10.315   4.927   7.927 -0.1139 -0.2182 -0.2603
39253SOL    HW122444  10.267   5.001   7.889  0.6783  0.9206  0.8926
39253SOL    HW222445  10.387   4.912   7.866  0.1670  0.4728 -0.1013
39254SOL     OW22446   4.227   3.532  11.247 -0.8369  0.0351 -0.2654
39254SOL    HW122447   4.152   3.550  11.304 -1.1399 -1.3015 -0.2186
39254SOL    HW222448   4.290   3.487  11.302 -0.0752  0.9536 -0.3675
39255SOL     OW22449  10.709   0.338   3.531 -0.1339  0.3395  0.0482
39255SOL    HW122450  10.703   0.271   3.599  0.6218 -0.0333 -0.2453
39255SOL    HW222451  10.619   0.350   3.501 -0.1635 -1.2858 -0.6001
39256SOL     OW22452   3.317   5.123   8.752  0.1556  0.3232 -0.4186
39256SOL    HW122453   3.379   5.081   8.811  1.2521  0.0426 -1.7114
39256SOL    HW222454   3.232   5.085   8.774  0.9681 -1.9521 -0.9493
39257SOL     OW22455   9.841   5.505   1.037  0.7824  0.3211  0.2586
39257SOL    HW122456   9.923   5.532   1.079 -0.0820  0.2952  2.0728
39257SOL    HW222457   9.831   5.413   1.060 -0.3677  0.6474  1.1800
39258SOL     OW22458  11.633   5.557   5.762  0.8325  0.0991  0.3064
39258SOL    HW122459  11.571   5.524   5.697 -1.8634  0.6705  2.3883
39258SOL    HW222460  11.706   5.496   5.759 -0.6751 -1.7432 -1.0095
39259SOL     OW22461   3.373   3.367   1.917  0.3557  0.1572 -0.1458
39259SOL    HW122462   3.460   3.351   1.879  0.0560 -1.3313 -0.2452
39259SOL    HW222463   3.385   3.350   2.010  0.2963  0.5190 -0.0708
39260SOL     OW22464   2.692   4.338   6.853  0.7607  0.2619 -0.0452
39260SOL    HW122465   2.744   4.271   6.809  0.2002 -0.8791  0.9647
39260SOL    HW222466   2.602   4.321   6.825  0.4371 -0.2769  1.2095
39261SOL     OW22467   9.860   3.480   5.977  0.1586  0.3280  0.5048
39261SOL    HW122468   9.825   3.416   5.915 -1.0800  0.8664  0.6413
39261SOL    HW222469   9.853   3.437   6.062 -1.3846  0.8968  0.6977
39262SOL     OW22470   8.176   9.958   3.727  0.6371 -0.4059  0.5310
39262SOL    HW122471   8.203   9.954   3.635  0.7500  2.5867  0.3597
39262SOL    HW222472   8.082   9.943   3.725  0.8101 -1.5926  0.1131
39263SOL     OW22473  10.828   7.291   0.260 -0.3697 -0.6385 -0.2679
39263SOL    HW122474  10.920   7.296   0.286 -0.4184 -1.1772  0.0202
39263SOL    HW222475  10.830   7.291   0.164 -0.1618  0.9041 -0.2920
39264SOL     OW22476   0.705  10.278   1.548 -0.1957 -0.0549 -0.7250
39264SOL    HW122477   0.642  10.248   1.483 -0.9156 -1.0892  0.4087
39264SOL    HW222478   0.773  10.211   1.548  1.0408  1.1308 -2.0517
39265SOL     OW22479   7.010   9.396   0.475 -0.0292  0.3537 -0.8241
39265SOL    HW122480   6.995   9.456   0.548  0.0722  0.8882 -1.2400
39265SOL    HW222481   7.055   9.448   0.409 -1.3835  0.2852 -1.8658
39266SOL     OW22482   6.744   9.153   9.527 -0.1717  0.0591  0.3380
39266SOL    HW122483   6.816   9.142   9.464  1.5668  1.1937  2.0034
39266SOL    HW222484   6.689   9.221   9.488 -0.9516 -1.4914 -1.4174
39267SOL     OW22485   1.983   8.035   1.097 -0.1926  0.3343  0.3065
39267SOL    HW122486   2.021   8.094   1.033  1.2959 -1.4094 -0.5127
39267SOL    HW222487   1.972   8.088   1.176 -0.1922  2.0123 -0.7900
39268SOL     OW22488   3.770   1.913   8.073 -0.7576 -0.3593  0.3694
39268SOL    HW122489   3.731   1.832   8.040 -1.8836  0.8202 -1.3731
39268SOL    HW222490   3.861   1.909   8.043 -0.5991 -1.2831  0.9272
39269SOL     OW22491   2.906   1.790   1.201 -0.2790 -0.0231  0.6495
39269SOL    HW122492   2.954   1.809   1.281  0.5040 -0.4808  0.3093
39269SOL    HW222493   2.931   1.700   1.180  0.2159  0.3721 -0.5610
39270SOL     OW22494   4.622   3.322   1.869 -0.3109 -0.4084  0.0565
39270SOL    HW122495   4.699   3.321   1.813  0.8564 -0.0906  1.5707
39270SOL    HW222496   4.549   3.298   1.812  0.5328  1.4986 -1.9585
39271SOL     OW22497   9.112   9.710  10.435  0.2942 -0.2082 -0.4283
39271SOL    HW122498   9.053   9.701  10.509  0.4190 -0.2438 -0.3332
39271SOL    HW222499   9.078   9.783  10.384  0.0412 -0.3678 -0.4906
39272SOL     OW22500   1.260   1.048   8.927  0.1045 -0.0955 -0.3521
39272SOL    HW122501   1.189   1.080   8.983  0.3774  1.5793 -0.9135
39272SOL    HW222502   1.232   1.069   8.838  0.4009 -1.2757 -0.7409
39273SOL     OW22503   2.025   9.279   8.242 -0.0919  0.3069  0.2027
39273SOL    HW122504   1.996   9.190   8.222 -0.1366  0.3685 -0.0086
39273SOL    HW222505   2.117   9.268   8.266 -0.8701 -0.2500  3.4340
39274SOL     OW22506   0.290   9.717   2.156  0.1239  0.0856  0.0040
39274SOL    HW122507   0.250   9.649   2.102 -0.4665  1.6126 -1.5908
39274SOL    HW222508   0.262   9.696   2.245 -2.1623 -0.3505 -0.7387
39275SOL     OW22509   5.432   6.035   7.177  0.3160  0.4252 -0.5474
39275SOL    HW122510   5.384   6.090   7.239  0.3236  0.5201 -0.6276
39275SOL    HW222511   5.367   6.009   7.112 -0.5377 -2.2604  1.1785
39276SOL     OW22512   5.165   7.424   3.453 -0.6811 -0.2258  0.4023
39276SOL    HW122513   5.108   7.490   3.412  0.6210  1.5382  1.3141
39276SOL    HW222514   5.228   7.475   3.504  0.2065 -2.2143  1.3931
39277SOL     OW22515   1.416   0.206   0.179  0.5526  0.7520  0.0295
39277SOL    HW122516   1.386   0.284   0.225 -0.7414  0.7162 -0.7111
39277SOL    HW222517   1.456   0.151   0.247 -0.0042  1.3373  0.8348
39278SOL     OW22518   7.702  11.831   4.201 -0.3536  0.0698  0.3730
39278SOL    HW122519   7.770  11.781   4.156 -1.9854  0.3794 -2.7506
39278SOL    HW222520   7.640  11.765   4.232 -0.4250 -0.0598 -0.0407
39279SOL     OW22521   1.392  11.369   0.241 -0.4850  0.0257 -0.1200
39279SOL    HW122522   1.469  11.386   0.296  0.4136  0.3121 -1.4121
39279SOL    HW222523   1.334  11.443   0.256  0.2920  0.7173 -0.4374
39280SOL     OW22524   6.273   0.191   5.660  0.1970 -0.1701 -0.0759
39280SOL    HW122525   6.210   0.263   5.663 -2.1139 -2.1319  1.5924
39280SOL    HW222526   6.358   0.235   5.651 -1.2721  2.5996 -2.1478
39281SOL     OW22527   7.676   7.814   5.852 -0.0804  0.6092 -0.4853
39281SOL    HW122528   7.736   7.785   5.783  0.5592  4.2831 -1.7045
39281SOL    HW222529   7.730   7.824   5.930  0.0811  0.4073 -0.5719
39282SOL     OW22530   0.379   4.648   4.036  0.0126 -0.0264 -0.0625
39282SOL    HW122531   0.341   4.615   3.955  0.8368  0.3678 -0.6253
39282SOL    HW222532   0.433   4.576   4.069 -0.5878 -0.3048  0.3163
39283SOL     OW22533   2.618   5.193  11.472  0.4975  0.1389  0.3113
39283SOL    HW122534   2.531   5.202  11.511  1.5058  1.8102  2.4019
39283SOL    HW222535   2.615   5.110  11.425 -2.5443  0.6702 -0.6274
39284SOL     OW22536   5.690   4.171   1.293  0.0081 -0.2383 -0.0832
39284SOL    HW122537   5.622   4.103   1.296 -0.0872 -0.3324 -2.4585
39284SOL    HW222538   5.765   4.128   1.252  0.9567  0.3460  0.9828
39285SOL     OW22539   9.099  11.439   5.614  1.1224 -0.9623 -0.2074
39285SOL    HW122540   9.161  11.441   5.542  2.6508  0.5187  1.0544
39285SOL    HW222541   9.153  11.426   5.692  0.0173  1.1522  1.0127
39286SOL     OW22542   1.741   7.824   1.860  0.2145 -0.1975 -0.3091
39286SOL    HW122543   1.817   7.863   1.817  0.9470  0.7979  1.8175
39286SOL    HW222544   1.771   7.799   1.947 -1.5619 -1.0023  0.1385
39287SOL     OW22545   8.283   8.276   8.145  0.4282  0.5181 -1.0047
39287SOL    HW122546   8.329   8.195   8.165  0.9982  1.2506  0.9435
39287SOL    HW222547   8.353   8.342   8.140 -0.0423  0.9413 -2.3250
39288SOL     OW22548   8.937  11.937  10.149 -0.1634 -0.3794  0.1960
39288SOL    HW122549   8.869  11.876  10.179 -0.3737 -0.0436  0.4220
39288SOL    HW222550   8.973  11.973  10.230  1.0304 -1.3404  0.1091
39289SOL     OW22551   4.294   2.536   4.087 -0.4708 -0.3708 -0.5729
39289SOL    HW122552   4.351   2.597   4.135  0.2715 -0.3523 -1.4441
39289SOL    HW222553   4.240   2.592   4.031 -0.0146 -0.4781 -1.1352
39290SOL     OW22554   0.876   0.377   6.725  0.0898  0.4320  0.0837
39290SOL    HW122555   0.826   0.396   6.645  0.9054  1.8709 -0.1046
39290SOL    HW222556   0.885   0.461   6.768  2.3984  0.2489  0.0903
39291SOL     OW22557   3.100  11.181   3.973  0.3738  0.0194  0.0150
39291SOL    HW122558   3.083  11.133   3.892 -0.3072 -1.8254  1.1760
39291SOL    HW222559   3.020  11.171   4.024  0.3192  2.2205  0.4610
39292SOL     OW22560   6.283   0.907   1.188 -0.0930  0.3290 -0.6507
39292SOL    HW122561   6.356   0.859   1.226 -0.0709 -1.8529 -3.1461
39292SOL    HW222562   6.319   0.993   1.166  0.7665  0.4445  1.0304
39293SOL     OW22563   3.983   5.433   0.606 -0.1674  0.5230  0.0900
39293SOL    HW122564   4.061   5.444   0.661  0.3496 -0.9348 -0.3115
39293SOL    HW222565   4.004   5.360   0.548 -1.8482  0.0731 -0.0110
39294SOL     OW22566   2.968   9.166   0.477  0.0006  0.3218  0.6579
39294SOL    HW122567   2.988   9.254   0.447  1.0863  0.7474  2.5001
39294SOL    HW222568   2.888   9.142   0.429 -0.1543  2.1573 -0.0951
39295SOL     OW22569   2.918   9.924   9.604  0.3925 -0.3401  0.3296
39295SOL    HW122570   2.864   9.971   9.668 -0.2323 -1.0966  0.3770
39295SOL    HW222571   3.007   9.931   9.638  0.0400 -0.9702  1.4619
39296SOL     OW22572   9.565   6.578   4.600  0.0010 -0.3157  0.1392
39296SOL    HW122573   9.633   6.609   4.660  0.9631 -2.7119  0.4112
39296SOL    HW222574   9.611   6.558   4.519 -0.3368 -1.9873  0.3321
39297SOL     OW22575   3.598   4.308   3.846 -0.2358 -0.8342  0.1331
39297SOL    HW122576   3.678   4.255   3.846 -0.6418 -1.5302 -2.0647
39297SOL    HW222577   3.600   4.354   3.930  3.1192  0.1679 -0.3542
39298SOL     OW22578   3.310  10.975   7.324 -0.6961  0.0406  0.9691
39298SOL    HW122579   3.364  11.053   7.335 -0.7450  0.5016 -1.5094
39298SOL    HW222580   3.221  11.008   7.311 -0.6598 -0.3725 -0.4808
39299SOL     OW22581   7.483   5.229  10.970  0.0492  0.3516 -0.2451
39299SOL    HW122582   7.393   5.263  10.963 -0.5385 -0.7258  1.5885
39299SOL    HW222583   7.508   5.246  11.061  1.9489  1.1384 -0.8653
39300SOL     OW22584  10.548   3.213  10.571 -0.1639 -0.2702 -0.2177
39300SOL    HW122585  10.586   3.215  10.659 -0.3243 -3.2148  0.0029
39300SOL    HW222586  10.455   3.231  10.584  0.3471  2.9783 -0.3036
39301SOL     OW22587   6.664   0.768   4.407  0.1813  0.9660  0.4663
39301SOL    HW122588   6.603   0.717   4.354 -0.6045 -0.2791  2.4643
39301SOL    HW222589   6.661   0.727   4.493  1.7353  2.6385  1.3793
39302SOL     OW22590   4.604   0.947   1.897 -0.2886 -0.2657  0.2662
39302SOL    HW122591   4.622   1.022   1.841 -1.0812  0.3799  0.8537
39302SOL    HW222592   4.673   0.884   1.877  0.1258  0.4424 -0.5512
39303SOL     OW22593   3.999   1.784   0.341  0.4856  0.7045 -0.8159
39303SOL    HW122594   4.083   1.806   0.381  0.7494  2.3990 -2.1350
39303SOL    HW222595   4.011   1.697   0.304  0.6956 -0.2724  1.4341
39304SOL     OW22596   4.728   5.515   9.249 -0.1118  0.7096 -0.1009
39304SOL    HW122597   4.779   5.467   9.314  0.8349 -0.3711 -1.5867
39304SOL    HW222598   4.637   5.503   9.276  0.1120 -1.7927 -0.2958
39305SOL     OW22599   4.243   4.418   7.104 -0.0618 -0.3360  0.5761
39305SOL    HW122600   4.287   4.346   7.057  0.9018  0.2875  0.5001
39305SOL    HW222601   4.312   4.483   7.118 -0.6488  0.0583  1.7090
39306SOL     OW22602  11.608   4.989   5.614  0.4341 -0.1245 -0.9442
39306SOL    HW122603  11.611   4.981   5.710 -0.8098  0.0638 -0.8694
39306SOL    HW222604  11.517   5.013   5.595  0.9738  1.1216 -2.0909
39307SOL     OW22605   0.636   8.499   0.367 -0.3345 -0.6381 -0.3624
39307SOL    HW122606   0.673   8.573   0.416 -2.5371 -0.5238  1.2381
39307SOL    HW222607   0.568   8.538   0.313  1.3229 -0.9408 -2.8595
39308SOL     OW22608   8.326   1.037   2.766 -0.5259 -0.0498 -0.7007
39308SOL    HW122609   8.386   1.045   2.840 -0.7071  0.0127 -0.5591
39308SOL    HW222610   8.315   1.127   2.735 -1.7137  0.1538  0.2106
39309SOL     OW22611   9.100   3.993   8.740 -0.3683 -0.1103  0.5969
39309SOL    HW122612   9.016   4.040   8.738  0.0329  0.6098 -1.3629
39309SOL    HW222613   9.076   3.903   8.763 -1.6585  0.1242  0.2654
39310SOL     OW22614  10.748   5.192   3.965 -0.0209 -0.0063  0.6542
39310SOL    HW122615  10.676   5.137   3.936 -0.0501 -0.3551  1.3600
39310SOL    HW222616  10.796   5.214   3.885 -0.1515 -0.8571  0.3396
39311SOL     OW22617   1.222   5.014   2.175 -0.1261 -0.6472 -0.5495
39311SOL    HW122618   1.200   5.085   2.115  1.4799  0.0692 -0.3308
39311SOL    HW222619   1.140   4.996   2.221 -0.4312  1.5127 -0.1520
39312SOL     OW22620  10.710   5.120   1.040  0.4233  0.0533 -0.0963
39312SOL    HW122621  10.681   5.120   1.131  0.0943  1.1526 -0.1932
39312SOL    HW222622  10.673   5.200   1.002  1.7737  0.3930 -0.7915
39313SOL     OW22623   0.496   8.672   9.113 -0.1025 -0.0269 -0.0140
39313SOL    HW122624   0.576   8.679   9.165 -0.1606  1.2047 -0.0503
39313SOL    HW222625   0.463   8.584   9.132  1.4155 -0.6895 -0.2516
39314SOL     OW22626   7.555   0.480   2.983  0.5818  0.1756 -0.0916
39314SOL    HW122627   7.581   0.480   2.890  1.2629  3.1058 -0.0058
39314SOL    HW222628   7.620   0.425   3.026  1.6020  0.5575 -1.0827
39315SOL     OW22629   2.199   6.743   8.722 -0.3439 -0.4364 -0.0292
39315SOL    HW122630   2.281   6.792   8.722  0.9674 -2.4525  1.6133
39315SOL    HW222631   2.152   6.775   8.799  0.3349 -1.4002  0.8142
39316SOL     OW22632   4.437   9.076   4.138 -0.2919  0.0639  0.2188
39316SOL    HW122633   4.413   9.009   4.073  0.4790 -1.3665  1.3624
39316SOL    HW222634   4.503   9.129   4.094 -2.1161  1.2352 -1.3325
39317SOL     OW22635   0.121   7.800   6.259 -0.3847 -0.3646 -0.0918
39317SOL    HW122636   0.069   7.744   6.316  0.4046 -0.4637  0.5502
39317SOL    HW222637   0.210   7.766   6.267 -0.1802 -0.0684 -1.0091
39318SOL     OW22638   6.106  11.838   2.484 -0.1635 -0.9711  0.0003
39318SOL    HW122639   6.192  11.806   2.457  0.5089  1.2130 -0.6097
39318SOL    HW222640   6.106  11.828   2.579  1.9229  1.4915  0.3613
39319SOL     OW22641   5.249  11.042   6.269  0.1322  0.3308  0.2323
39319SOL    HW122642   5.268  11.004   6.355  1.7581  1.2037  0.2917
39319SOL    HW222643   5.224  11.133   6.288  2.4262  1.1281 -0.3009
39320SOL     OW22644  10.188   5.152   8.677  0.4120  0.2156  0.1198
39320SOL    HW122645  10.197   5.150   8.772  3.0138 -0.0810 -0.0579
39320SOL    HW222646  10.198   5.061   8.650 -2.9510 -0.1314 -0.3494
39321SOL     OW22647   0.139   9.566   4.777 -0.5682 -0.0548 -0.3754
39321SOL    HW122648   0.138   9.555   4.872 -0.7419  2.2822 -0.0470
39321SOL    HW222649   0.049   9.587   4.754 -0.3498  0.3008 -0.9232
39322SOL     OW22650   5.019   6.003   0.137  0.3257 -0.3354  0.3436
39322SOL    HW122651   5.063   6.087   0.147  0.3227 -0.3709  0.6651
39322SOL    HW222652   4.967   6.012   0.057  1.6698 -0.6308 -0.5832
39323SOL     OW22653   1.633   5.409   6.152 -0.4149 -0.1248 -0.0682
39323SOL    HW122654   1.554   5.423   6.204 -3.4192  1.4848 -4.4881
39323SOL    HW222655   1.624   5.319   6.119 -1.2870  0.5049 -1.6746
39324SOL     OW22656   5.041   3.423   1.950  0.7503 -0.1827 -0.2527
39324SOL    HW122657   5.084   3.340   1.972  1.0026  0.5037  2.0993
39324SOL    HW222658   5.112   3.476   1.913  1.1416 -0.2388  0.3930
39325SOL     OW22659   7.441   4.831   0.378  0.0410 -0.4056  0.4948
39325SOL    HW122660   7.408   4.759   0.432 -0.0147 -0.5836  0.2259
39325SOL    HW222661   7.536   4.818   0.377 -0.0286 -0.9743 -0.2384
39326SOL     OW22662  10.657  11.256   8.909 -0.3016  0.0124 -0.0648
39326SOL    HW122663  10.693  11.334   8.952  0.7979 -1.2172  1.3454
39326SOL    HW222664  10.685  11.264   8.818  0.9292  0.6187  0.3437
39327SOL     OW22665  10.802   6.057   3.493  0.4200 -0.1385  0.2697
39327SOL    HW122666  10.824   6.149   3.505 -0.3953  0.0995  0.0507
39327SOL    HW222667  10.885   6.010   3.501  0.8799  0.6403  0.1105
39328SOL     OW22668  11.910   5.971   2.634  0.0309  0.1487 -0.5642
39328SOL    HW122669  11.867   5.905   2.579  0.8159 -0.6641 -0.2318
39328SOL    HW222670  11.891   5.944   2.723  0.5230  0.2699 -0.4221
39329SOL     OW22671   6.767   1.973   7.906  0.3861 -0.0732 -0.0157
39329SOL    HW122672   6.769   2.055   7.855 -2.8201 -0.1064 -0.4202
39329SOL    HW222673   6.713   1.994   7.982  0.5091 -1.5185  0.4992
39330SOL     OW22674   2.705   2.147  11.639  0.1629  0.3133 -0.6575
39330SOL    HW122675   2.696   2.109  11.552  0.8404  1.7800 -1.4105
39330SOL    HW222676   2.717   2.241  11.623 -1.1214  0.8448  1.0777
39331SOL     OW22677   3.141   3.566   9.638 -0.0772  0.3464  0.0925
39331SOL    HW122678   3.081   3.635   9.667 -1.0426  0.2903 -1.6565
39331SOL    HW222679   3.203   3.611   9.580  0.1416 -0.0136  0.0451
39332SOL     OW22680   8.518   3.010   5.602  0.4428 -0.8565 -0.1597
39332SOL    HW122681   8.481   3.095   5.580  0.1944 -0.7480  0.6368
39332SOL    HW222682   8.475   2.948   5.543 -1.2296 -0.7797  0.9222
39333SOL     OW22683  11.179   0.511   5.129 -0.3959  0.1606  0.1383
39333SOL    HW122684  11.165   0.496   5.222  2.7404  1.6148  0.9691
39333SOL    HW222685  11.232   0.436   5.101  0.3463  0.7140  0.0369
39334SOL     OW22686   9.661   1.134   6.861  1.1496 -0.2406  0.5101
39334SOL    HW122687   9.721   1.177   6.921  0.9989 -0.1528  0.5996
39334SOL    HW222688   9.703   1.141   6.775  1.3162 -0.2749  0.5880
39335SOL     OW22689   4.373   1.761   1.155  0.1343  0.4500 -0.0075
39335SOL    HW122690   4.341   1.819   1.224 -0.6632 -0.8757  0.7734
39335SOL    HW222691   4.397   1.681   1.201 -2.9166 -1.4882 -1.4925
39336SOL     OW22692   7.149   2.081   9.681  0.0391 -0.3193 -0.1161
39336SOL    HW122693   7.100   2.158   9.655  1.0962  1.0081  1.5763
39336SOL    HW222694   7.158   2.089   9.776  0.9136 -2.0878  0.0046
39337SOL     OW22695   6.693   7.782   2.349  0.0426  0.1673  0.3464
39337SOL    HW122696   6.717   7.874   2.342 -3.5589  1.4912  2.4021
39337SOL    HW222697   6.745   7.750   2.423  0.0144  1.0896  0.7864
39338SOL     OW22698  11.405   2.170  11.821 -0.6944  0.3667  0.1417
39338SOL    HW122699  11.368   2.097  11.771  0.3143 -1.0744  1.3935
39338SOL    HW222700  11.347   2.179  11.897 -0.4367  0.4096  0.3364
39339SOL     OW22701   3.474  11.703   7.288  0.2581 -0.6011  0.3278
39339SOL    HW122702   3.553  11.716   7.234  0.4024  2.9584  1.1134
39339SOL    HW222703   3.403  11.734   7.232  0.1560  1.1546  1.3538
39340SOL     OW22704  10.653   2.969   3.801  0.2902 -0.0642  0.0728
39340SOL    HW122705  10.577   3.026   3.784  0.0544 -0.3372  0.1987
39340SOL    HW222706  10.615   2.881   3.806  0.6579 -0.2379 -0.1632
39341SOL     OW22707   4.323   9.926   5.430  0.6974 -0.7448  0.3424
39341SOL    HW122708   4.245   9.871   5.441 -0.0172  0.0497 -0.5005
39341SOL    HW222709   4.326   9.979   5.510 -0.7183  0.4962 -0.3653
39342SOL     OW22710   0.721   2.326   0.135  0.2018 -0.2132  0.3197
39342SOL    HW122711   0.681   2.360   0.055  1.7309  1.0215  0.0403
39342SOL    HW222712   0.666   2.360   0.205  0.2153  0.6887 -0.0952
39343SOL     OW22713   5.282   1.572   5.434 -0.3153 -0.1717  0.4013
39343SOL    HW122714   5.358   1.562   5.376  0.0728  2.7208  0.2505
39343SOL    HW222715   5.315   1.548   5.521 -0.0021 -1.4338 -0.0393
39344SOL     OW22716  10.790   0.538   3.707 -0.4049 -0.8845  0.1906
39344SOL    HW122717  10.716   0.599   3.698 -0.6334 -1.1673  0.1265
39344SOL    HW222718  10.770   0.468   3.644  1.0198  0.1151 -1.4665
39345SOL     OW22719   5.126  10.565   9.767  0.2744 -0.5096 -0.4904
39345SOL    HW122720   5.142  10.659   9.763  2.3478 -0.8346 -1.0220
39345SOL    HW222721   5.045  10.556   9.817  0.9223  1.4795  1.0241
39346SOL     OW22722   4.840  10.124   7.923 -0.0442  0.2542 -0.4754
39346SOL    HW122723   4.838  10.058   7.854 -0.6337 -1.0540  0.7451
39346SOL    HW222724   4.910  10.096   7.981  0.6783  1.5351 -0.7010
39347SOL     OW22725   1.989  11.283   3.611 -0.3001  0.2700  0.1805
39347SOL    HW122726   1.902  11.282   3.570 -0.3392  0.1745  0.2658
39347SOL    HW222727   1.997  11.373   3.645 -0.7341  0.0331  0.9462
39348SOL     OW22728   6.133   2.194   1.140  0.0566 -0.4731 -0.9461
39348SOL    HW122729   6.104   2.285   1.131  0.9597 -0.2114 -1.3154
39348SOL    HW222730   6.195   2.196   1.214 -0.9921 -1.0633 -0.0182
39349SOL     OW22731   2.276   0.997   3.629 -0.0070 -0.4548  0.4617
39349SOL    HW122732   2.347   0.988   3.693  1.5373 -0.8584 -1.2276
39349SOL    HW222733   2.254   1.090   3.631 -0.8173 -0.6348  2.3664
39350SOL     OW22734   7.877   2.418  11.035  0.7191 -0.0485 -0.3141
39350SOL    HW122735   7.876   2.349  10.969 -3.3707  0.6405 -1.2372
39350SOL    HW222736   7.844   2.376  11.114  1.4156  0.1459  0.0921
39351SOL     OW22737  11.000   1.175   9.112 -0.4185 -0.2670  0.1031
39351SOL    HW122738  11.061   1.158   9.183  0.0420  0.1784 -0.1765
39351SOL    HW222739  11.005   1.269   9.098  1.0637 -0.5467 -1.8643
39352SOL     OW22740   1.636   2.831   2.815  0.1634  0.0163 -0.3742
39352SOL    HW122741   1.624   2.924   2.798  0.3182 -0.0474 -0.8475
39352SOL    HW222742   1.728   2.815   2.795  0.7408  0.2231  1.8993
39353SOL     OW22743   0.424   2.424   8.344  0.3319 -0.3044 -0.1498
39353SOL    HW122744   0.398   2.502   8.393 -0.0708  0.7331 -1.9074
39353SOL    HW222745   0.343   2.395   8.301  0.7794 -0.7827 -0.6862
39354SOL     OW22746   6.481   0.057   3.579  0.1471 -0.4267  0.2661
39354SOL    HW122747   6.433  -0.025   3.570  0.6711 -0.7807  0.6145
39354SOL    HW222748   6.472   0.101   3.495 -0.4988 -0.6435  0.2211
39355SOL     OW22749   4.401   6.955   5.121  0.3756  0.5114 -0.1550
39355SOL    HW122750   4.404   6.861   5.103 -0.1131  0.4520  0.0742
39355SOL    HW222751   4.361   6.963   5.207 -2.1035  1.0442 -1.2618
39356SOL     OW22752   2.817   0.943   4.744 -0.4875 -0.1205  0.2149
39356SOL    HW122753   2.759   0.942   4.821  0.8107  0.7244  1.2377
39356SOL    HW222754   2.901   0.910   4.776 -0.3561 -1.3572 -1.2566
39357SOL     OW22755   9.050  10.084   5.513  0.3429 -0.4640 -0.3808
39357SOL    HW122756   9.014  10.170   5.534  0.2143 -0.5509 -0.2462
39357SOL    HW222757   9.095  10.097   5.429  1.3988  0.0314  0.2402
39358SOL     OW22758   7.915   7.720   2.480  0.5406 -0.4448 -0.0977
39358SOL    HW122759   7.884   7.719   2.390  1.2896  0.5011 -0.3863
39358SOL    HW222760   7.884   7.804   2.515 -1.4462 -1.6220  1.1695
39359SOL     OW22761  11.613   9.147   2.717  0.1686  0.4415  0.0099
39359SOL    HW122762  11.521   9.129   2.731  0.2052  0.1309 -0.1414
39359SOL    HW222763  11.644   9.074   2.663  0.9018 -0.4014  1.5019
39360SOL     OW22764   7.290   5.345   0.145 -0.5739 -0.1361 -0.1011
39360SOL    HW122765   7.284   5.384   0.232 -0.8820 -0.5310  0.0529
39360SOL    HW222766   7.346   5.268   0.157  0.1834  0.3471 -0.4399
39361SOL     OW22767   3.913   3.284   9.854 -0.0265  0.5133  0.3441
39361SOL    HW122768   3.842   3.222   9.873  1.4736 -1.8378 -1.1833
39361SOL    HW222769   3.980   3.263   9.919  0.3687  0.7774  0.0233
39362SOL     OW22770   1.057   6.728  11.371 -0.4908 -0.1741  0.6324
39362SOL    HW122771   1.127   6.715  11.307 -0.5812 -2.3818  0.9117
39362SOL    HW222772   1.033   6.821  11.362  2.1959  0.5510  0.3056
39363SOL     OW22773  11.809   6.499   5.623  0.0662 -0.2719  0.6932
39363SOL    HW122774  11.745   6.497   5.552 -0.2182  2.4440  0.7560
39363SOL    HW222775  11.891   6.470   5.582 -0.0956  1.2157 -0.8164
39364SOL     OW22776   7.195   7.850   9.637  0.2650 -0.2086  0.4621
39364SOL    HW122777   7.287   7.870   9.619 -0.2091 -0.0142 -2.1118
39364SOL    HW222778   7.147   7.921   9.594 -1.1099 -0.8302  0.9303
39365SOL     OW22779   0.090   6.201   4.509 -0.6597 -0.0259 -0.3129
39365SOL    HW122780   0.078   6.146   4.586  0.6053 -1.8291 -1.3239
39365SOL    HW222781   0.037   6.159   4.441 -0.5232  0.6269 -0.8304
39366SOL     OW22782   6.818  11.484   8.937 -0.3122 -0.0654 -0.9461
39366SOL    HW122783   6.734  11.504   8.979  0.5888 -0.3516  1.1420
39366SOL    HW222784   6.829  11.390   8.950  0.4722  0.0280 -0.8745
39367SOL     OW22785   8.946   4.020   9.338 -0.3663  0.3007 -0.8602
39367SOL    HW122786   8.943   4.023   9.434 -0.0376  0.1180 -0.8423
39367SOL    HW222787   8.922   3.930   9.316 -0.1711  0.2678 -0.9387
39368SOL     OW22788   8.290  11.645   6.031 -0.0532  0.5303 -0.3977
39368SOL    HW122789   8.314  11.724   5.982 -0.0225  0.4476 -0.5158
39368SOL    HW222790   8.350  11.643   6.105  0.7711 -0.0333 -1.0468
39369SOL     OW22791   3.487  10.349   3.671 -0.0682 -0.0212 -0.2039
39369SOL    HW122792   3.550  10.290   3.629  1.6217 -1.1592  3.4741
39369SOL    HW222793   3.406  10.298   3.675  0.2143 -0.5078 -0.5678
39370SOL     OW22794  11.848   2.805   0.817 -0.1561 -0.3109  0.0057
39370SOL    HW122795  11.873   2.795   0.725  0.1339 -0.1361  0.0618
39370SOL    HW222796  11.783   2.736   0.833 -0.3258 -0.2390 -0.3712
39371SOL     OW22797   9.265   2.644   8.305 -0.3332  0.1399 -0.3993
39371SOL    HW122798   9.230   2.711   8.363  0.8790  1.6933 -1.3694
39371SOL    HW222799   9.356   2.670   8.292 -0.0747 -1.2326 -1.4860
39372SOL     OW22800   9.334   2.107   1.179  0.2325 -0.5408 -0.3997
39372SOL    HW122801   9.327   2.045   1.251  2.2926 -0.3313  0.0483
39372SOL    HW222802   9.353   2.052   1.102  1.4261 -0.5245 -0.1239
39373SOL     OW22803   5.580  10.089   0.219 -0.1204 -0.5914 -0.2183
39373SOL    HW122804   5.567  10.003   0.178 -0.8866 -0.3479 -0.5082
39373SOL    HW222805   5.659  10.123   0.178  1.2815 -1.9168  1.2238
39374SOL     OW22806   1.443   5.559   8.845 -0.4541 -0.1883 -0.1038
39374SOL    HW122807   1.481   5.633   8.891 -0.6109 -0.0125 -0.2557
39374SOL    HW222808   1.412   5.500   8.915 -0.4078 -0.0707  0.0153
39375SOL     OW22809   3.665   8.193   3.794 -0.8389  0.1240 -0.1964
39375SOL    HW122810   3.609   8.120   3.820  0.4723 -1.4340 -1.4672
39375SOL    HW222811   3.739   8.188   3.854 -0.2921 -0.2305 -0.8799
39376SOL     OW22812  11.964  11.372   5.840 -0.0181 -0.5342  0.4562
39376SOL    HW122813  11.982  11.391   5.933  0.9279 -0.0132  0.1773
39376SOL    HW222814  11.879  11.327   5.841  1.1467 -2.8659  1.8051
39377SOL     OW22815   8.175   2.214  11.179 -0.5052  0.3227 -0.0465
39377SOL    HW122816   8.183   2.271  11.102 -1.0869 -1.6609 -1.6826
39377SOL    HW222817   8.128   2.138  11.147  1.4473 -1.7441  1.6491
39378SOL     OW22818   2.486  11.185   9.600  0.4613  0.0516  0.2143
39378SOL    HW122819   2.555  11.249   9.614  0.4333 -0.1612  1.4930
39378SOL    HW222820   2.516  11.106   9.646  0.1430 -0.5950 -0.6657
39379SOL     OW22821   9.562  11.253   5.181  0.5772 -0.4099  0.3003
39379SOL    HW122822   9.637  11.196   5.197 -0.9842 -2.8437 -0.5004
39379SOL    HW222823   9.488  11.207   5.221 -0.6978  1.4247  0.2084
39380SOL     OW22824  10.060   9.922   6.159 -0.2853 -0.4097 -0.0777
39380SOL    HW122825  10.108   9.943   6.239 -0.5337 -0.3751  0.0649
39380SOL    HW222826  10.119   9.947   6.088 -0.0109 -0.5590  0.0945
39381SOL     OW22827  10.793  11.049   7.385  0.2843 -0.4316  0.2775
39381SOL    HW122828  10.700  11.046   7.409 -0.3826 -0.7405 -2.0402
39381SOL    HW222829  10.804  11.134   7.343  0.4234 -1.3021 -1.5472
39382SOL     OW22830   5.767   2.832   2.919  0.0178 -0.2717  0.1224
39382SOL    HW122831   5.783   2.773   2.992 -2.3436  1.2857  2.0526
39382SOL    HW222832   5.819   2.910   2.938  2.1154 -1.1326 -1.7449
39383SOL     OW22833   2.562   4.069  11.809 -0.4676  0.0659 -0.4413
39383SOL    HW122834   2.503   4.145  11.812 -0.3957  0.3934 -3.5228
39383SOL    HW222835   2.588   4.063  11.717  0.2585 -3.1716 -0.1480
39384SOL     OW22836   1.143   0.829   0.731 -0.2974 -0.1047  0.0158
39384SOL    HW122837   1.184   0.842   0.816 -2.0059 -0.1774  0.8801
39384SOL    HW222838   1.164   0.738   0.708 -0.5884 -0.3765  0.7927
39385SOL     OW22839   5.643  10.376   8.778 -0.4097 -0.5077  0.2468
39385SOL    HW122840   5.572  10.320   8.747  0.6997 -1.9560  0.2158
39385SOL    HW222841   5.721  10.320   8.777  0.2636  0.2260  2.7675
39386SOL     OW22842   2.920  11.335   7.782  0.0709 -0.6193 -0.0398
39386SOL    HW122843   2.912  11.255   7.729  0.9940 -0.5174 -0.3545
39386SOL    HW222844   2.880  11.313   7.866 -1.2618 -0.8457 -0.7120
39387SOL     OW22845   3.896   8.160   5.272 -0.1858 -0.0795 -0.2030
39387SOL    HW122846   3.832   8.131   5.338  0.4629 -0.6317  0.1892
39387SOL    HW222847   3.861   8.244   5.241 -0.9851 -0.2609  0.1676
39388SOL     OW22848   3.774  11.092   9.961  0.4615  0.3088  0.5076
39388SOL    HW122849   3.702  11.031   9.943  0.1503  0.7517  0.2455
39388SOL    HW222850   3.853  11.038   9.951  0.1626 -0.2357  1.0366
39389SOL     OW22851   3.076  11.349   9.181 -0.0859  0.2979  1.3841
39389SOL    HW122852   3.007  11.396   9.135  0.9494 -0.0197 -0.6125
39389SOL    HW222853   3.146  11.414   9.190  0.6932 -0.3267  0.1439
39390SOL     OW22854   3.046   4.722  10.183 -0.0761 -0.4811 -0.1328
39390SOL    HW122855   3.064   4.806  10.140  0.2363 -0.6048 -0.2539
39390SOL    HW222856   2.970   4.688  10.137  1.5533 -1.6385 -2.1488
39391SOL     OW22857  10.362  10.579   8.181  0.5828  0.3284 -0.1863
39391SOL    HW122858  10.377  10.652   8.121 -2.4778 -0.1783 -1.8121
39391SOL    HW222859  10.310  10.616   8.252 -1.5600 -0.2327 -1.3486
39392SOL     OW22860   9.435   3.408   5.651 -0.4839  0.0848 -0.1234
39392SOL    HW122861   9.426   3.410   5.747 -0.2122  0.5312 -0.1035
39392SOL    HW222862   9.444   3.315   5.630 -2.2216 -0.1675  0.1133
39393SOL     OW22863   0.349   7.237   5.874  0.0935  0.0446  0.1073
39393SOL    HW122864   0.309   7.246   5.960  1.2791  0.8623  0.6061
39393SOL    HW222865   0.405   7.160   5.881  0.8292  0.5869  0.3551
39394SOL     OW22866   9.950   0.525   8.837  0.5546 -0.4477 -0.3575
39394SOL    HW122867  10.035   0.544   8.875 -0.2113  0.5020  0.9559
39394SOL    HW222868   9.915   0.453   8.890 -1.1623  1.8769  1.8875
39395SOL     OW22869  11.689  11.398   3.017  0.1131  0.1016 -0.0195
39395SOL    HW122870  11.757  11.389   2.950  0.4371 -0.0089  0.3203
39395SOL    HW222871  11.623  11.332   2.993  0.6235 -0.5074  0.2390
39396SOL     OW22872   0.408   9.288   4.135  0.1995 -0.1652 -0.1353
39396SOL    HW122873   0.497   9.294   4.171  0.3833 -0.4462 -0.5363
39396SOL    HW222874   0.396   9.195   4.118 -0.3180 -0.1752  0.2784
39397SOL     OW22875   7.195   4.656  10.829  0.7576 -0.0098 -0.3960
39397SOL    HW122876   7.281   4.648  10.872  0.8355 -1.7173 -0.7874
39397SOL    HW222877   7.146   4.581  10.863 -1.0197  1.5716  0.7123
39398SOL     OW22878  10.532   7.190  11.504 -0.0090  0.2083 -0.4983
39398SOL    HW122879  10.453   7.226  11.543  0.4439  0.7746 -0.0873
39398SOL    HW222880  10.521   7.096  11.509  0.2279  0.2550  1.4135
39399SOL     OW22881   0.571   6.833   8.936 -0.5272  0.1802 -0.1448
39399SOL    HW122882   0.567   6.752   8.987  1.7153  0.5829  0.7800
39399SOL    HW222883   0.594   6.805   8.848  0.3660 -0.2031  0.2000
39400SOL     OW22884   2.054   5.381   1.162 -0.5289  0.1695  0.1943
39400SOL    HW122885   1.988   5.451   1.164 -1.3773 -0.5938 -0.1008
39400SOL    HW222886   2.005   5.304   1.132  0.6626 -0.2566 -0.6926
39401SOL     OW22887   9.983   5.857   7.991 -0.6629 -0.0297 -0.2998
39401SOL    HW122888   9.902   5.826   7.950 -1.0402 -0.4643  0.7149
39401SOL    HW222889  10.009   5.785   8.049 -0.2173  0.5963  0.2912
39402SOL     OW22890   6.916   1.139   4.667  0.2412 -0.2892 -0.1481
39402SOL    HW122891   7.001   1.133   4.710  0.1160 -0.0194  0.1376
39402SOL    HW222892   6.856   1.169   4.735 -0.5058 -2.4334  0.2267
39403SOL     OW22893   5.152   4.063   8.250 -0.1729 -0.2635  0.1343
39403SOL    HW122894   5.109   4.137   8.207 -0.5973 -0.8445 -0.4574
39403SOL    HW222895   5.245   4.083   8.243 -0.1986  2.6668  4.2966
39404SOL     OW22896   0.513   3.266   8.044 -0.5253 -0.4427 -0.0599
39404SOL    HW122897   0.505   3.183   7.996  0.9228 -0.3510 -0.5374
39404SOL    HW222898   0.513   3.241   8.136 -0.1798 -0.9840 -0.1989
39405SOL     OW22899   3.657  10.577   2.416  0.3611  0.2637 -0.2089
39405SOL    HW122900   3.726  10.511   2.425  0.0551 -0.3102 -1.6334
39405SOL    HW222901   3.654  10.595   2.322 -1.2469  0.4427 -0.1581
39406SOL     OW22902   4.330   4.125  11.571 -0.3870 -0.3270  0.3681
39406SOL    HW122903   4.400   4.106  11.633 -0.2733  1.8609  0.9976
39406SOL    HW222904   4.264   4.058  11.588 -0.0864 -0.1514  2.4345
39407SOL     OW22905   9.927   7.998   6.717 -0.5215 -0.3574 -0.6944
39407SOL    HW122906   9.909   7.975   6.808  0.1817 -0.2988 -0.5347
39407SOL    HW222907   9.980   7.926   6.684 -0.6843 -0.3271 -1.0301
39408SOL     OW22908   5.721   0.725   0.702 -0.5730 -0.3631  0.1127
39408SOL    HW122909   5.668   0.768   0.635 -1.3715  0.3631  1.1781
39408SOL    HW222910   5.658   0.678   0.757 -0.1476  0.4612  1.3608
39409SOL     OW22911   7.041   8.003  11.943  0.5565 -0.1464 -0.1399
39409SOL    HW122912   6.955   7.984  11.980  0.7703 -0.2119  0.3240
39409SOL    HW222913   7.049   7.942  11.869  1.7007 -2.8030  1.9903
39410SOL     OW22914   4.299   9.057   3.383  0.5189 -0.1238 -0.4004
39410SOL    HW122915   4.219   9.007   3.397 -0.6711  1.6064 -0.6455
39410SOL    HW222916   4.370   8.993   3.389 -0.6876 -1.3287  2.2186
39411SOL     OW22917   6.005  11.866   9.618 -0.2804  0.3129  0.0202
39411SOL    HW122918   6.058  11.943   9.597 -0.4881  0.3638 -0.3248
39411SOL    HW222919   6.042  11.833   9.699  0.7636 -0.0831 -0.5954
39412SOL     OW22920  10.716   6.933   1.480 -0.1346  0.1584  0.2714
39412SOL    HW122921  10.797   6.970   1.516  0.0693 -0.2888  0.2719
39412SOL    HW222922  10.665   6.910   1.558  0.1779 -0.5267  0.2758
39413SOL     OW22923   7.842   5.540   3.329  0.0469 -0.3732  0.4261
39413SOL    HW122924   7.798   5.611   3.282 -0.3729 -1.0365 -0.2020
39413SOL    HW222925   7.882   5.487   3.260 -1.3869 -1.9157  0.7275
39414SOL     OW22926  10.351   7.940   7.555 -0.6179  0.2245  0.3496
39414SOL    HW122927  10.346   8.020   7.503  0.5041  0.1818  0.1451
39414SOL    HW222928  10.430   7.896   7.523  0.3273  0.3803  2.3526
39415SOL     OW22929   9.820   4.422   9.710 -0.0746  0.1308 -0.1976
39415SOL    HW122930   9.875   4.347   9.688 -0.7757 -0.6585  0.6764
39415SOL    HW222931   9.749   4.385   9.762 -0.3574  1.4193  0.3633
39416SOL     OW22932  11.375   5.773  10.861 -0.1228  0.0533  0.7635
39416SOL    HW122933  11.436   5.841  10.889  0.4499 -0.4338  0.7057
39416SOL    HW222934  11.417   5.732  10.785 -1.0521  0.4806 -0.0134
39417SOL     OW22935  11.864   4.262   8.586 -0.3195 -0.0639 -0.5668
39417SOL    HW122936  11.959   4.266   8.571  0.1389 -0.3415  1.8230
39417SOL    HW222937  11.837   4.180   8.545  1.1045 -1.6237  1.4228
39418SOL     OW22938  10.228  10.852   5.839 -0.3456 -0.5293  0.2234
39418SOL    HW122939  10.204  10.796   5.765 -0.6569  0.9008 -0.8017
39418SOL    HW222940  10.175  10.931   5.828  1.9539  1.1055  0.0668
39419SOL     OW22941   8.746   1.085   2.374  0.1597  0.0587  0.3615
39419SOL    HW122942   8.677   1.106   2.437 -0.2478 -2.1304  0.7342
39419SOL    HW222943   8.819   1.055   2.428  0.6919  0.4397 -0.1275
39420SOL     OW22944   4.818   9.335   6.990 -0.4239  0.0657 -0.2881
39420SOL    HW122945   4.757   9.391   7.038  0.4380  0.5157  0.3139
39420SOL    HW222946   4.889   9.318   7.053  0.9941  1.0992 -1.5351
39421SOL     OW22947   8.191   7.560   3.990 -0.4853 -0.2874  0.6569
39421SOL    HW122948   8.247   7.615   4.045 -1.0465 -1.5929  2.6339
39421SOL    HW222949   8.177   7.612   3.911  2.3330  0.6896  0.6708
39422SOL     OW22950   0.365   0.904   9.692 -0.4610  0.0950  0.0188
39422SOL    HW122951   0.367   0.840   9.764  2.1308  0.3472  0.2699
39422SOL    HW222952   0.290   0.878   9.640  0.5720 -3.3949 -0.0362
39423SOL     OW22953   6.623   4.241   5.638 -0.3772 -0.0638  0.3606
39423SOL    HW122954   6.533   4.246   5.607  0.3387  0.3942 -1.8146
39423SOL    HW222955   6.665   4.178   5.580  0.6810 -0.4160  1.4602
39424SOL     OW22956   2.700   0.072   3.044 -0.4081 -0.0021  0.2474
39424SOL    HW122957   2.618   0.106   3.006  0.6077 -0.6247 -2.7816
39424SOL    HW222958   2.754   0.150   3.058 -1.0951  0.3103  1.2857
39425SOL     OW22959   9.423   0.390   1.258  0.2073 -0.2678 -0.5885
39425SOL    HW122960   9.422   0.433   1.172 -1.7145 -0.0486 -0.5080
39425SOL    HW222961   9.356   0.322   1.251  1.5000 -1.6831  0.0880
39426SOL     OW22962   9.490   8.008  11.989 -0.2915 -0.0526  0.0719
39426SOL    HW122963   9.576   8.024  12.028 -0.4529 -0.2470  0.5089
39426SOL    HW222964   9.434   7.986  12.062 -0.6882 -0.0491 -0.2302
39427SOL     OW22965   4.628   6.542   1.511  0.2353  0.3456 -0.4553
39427SOL    HW122966   4.681   6.617   1.541  0.8693 -0.4837  0.5726
39427SOL    HW222967   4.690   6.470   1.504 -0.7637 -0.7102  1.0134
39428SOL     OW22968   3.185   1.167   2.981  0.3312 -0.4197  0.1312
39428SOL    HW122969   3.141   1.156   2.897  0.8478  2.0464 -0.5394
39428SOL    HW222970   3.113   1.178   3.044 -0.0446 -0.6714 -0.2486
39429SOL     OW22971  11.260   9.299   1.669  0.3490  0.1993 -0.1705
39429SOL    HW122972  11.274   9.242   1.594  0.1322  0.3614 -0.3360
39429SOL    HW222973  11.221   9.243   1.735  0.4070  0.0887 -0.2297
39430SOL     OW22974  11.270   1.034   2.476 -0.4362 -0.0715  0.3556
39430SOL    HW122975  11.263   1.110   2.417  1.4120  0.2223  0.4446
39430SOL    HW222976  11.282   0.959   2.418  0.0189  0.0341  0.3060
39431SOL     OW22977   3.827   3.510   9.731  0.4428  0.5210 -0.0254
39431SOL    HW122978   3.772   3.556   9.796 -3.0424 -1.5870 -1.1833
39431SOL    HW222979   3.873   3.444   9.782 -0.0121  0.7317  0.6821
39432SOL     OW22980   2.121   5.114   9.013 -0.1787 -0.5130  0.6403
39432SOL    HW122981   2.150   5.024   9.001 -0.8396 -0.4241 -2.1631
39432SOL    HW222982   2.201   5.166   9.016  0.1646 -0.7728 -2.1964
39433SOL     OW22983   6.556  11.389   6.074  0.1314  0.2309 -0.0896
39433SOL    HW122984   6.594  11.474   6.094 -0.4622 -0.1676  3.3842
39433SOL    HW222985   6.624  11.326   6.099 -0.6548 -0.3421  0.6771
39434SOL     OW22986   4.855   8.075   5.577 -0.5430  0.0563 -0.1754
39434SOL    HW122987   4.923   8.141   5.566 -1.8197  1.5803  0.6357
39434SOL    HW222988   4.784   8.103   5.519 -1.2245 -0.4239  0.4020
39435SOL     OW22989  11.092   4.684   0.339 -0.0172 -0.3722 -0.5609
39435SOL    HW122990  11.008   4.698   0.297 -0.5256  1.8697  1.0078
39435SOL    HW222991  11.156   4.686   0.268 -1.1153 -0.1594 -1.5615
39436SOL     OW22992   4.281   7.981   5.952 -0.3592 -0.5891  0.4146
39436SOL    HW122993   4.295   8.040   6.026 -2.3505  0.2937  0.1629
39436SOL    HW222994   4.368   7.948   5.930  0.3854 -0.2179  2.5875
39437SOL     OW22995   0.482   9.387  11.181  0.2890 -0.3251 -0.3103
39437SOL    HW122996   0.462   9.424  11.095  0.7050  1.8098  0.4404
39437SOL    HW222997   0.414   9.423  11.239 -0.9237 -2.9551  0.0378
39438SOL     OW22998   9.116   8.852   6.378 -0.3373  0.5029 -0.5487
39438SOL    HW122999   9.212   8.857   6.380 -0.3085  0.0977 -0.8213
39438SOL    HW223000   9.089   8.938   6.346 -0.0106  0.2419 -1.5730
39439SOL     OW23001   8.654   7.472   3.174 -0.5158 -0.1404  0.1035
39439SOL    HW123002   8.590   7.519   3.227  1.3583  1.8636  0.7757
39439SOL    HW223003   8.710   7.428   3.239 -1.4329 -2.2673 -0.4819
39440SOL     OW23004   1.504  11.776   0.041 -0.0097  0.4266  0.3130
39440SOL    HW123005   1.409  11.791   0.041 -0.3650 -1.5179  1.2458
39440SOL    HW223006   1.534  11.810   0.125 -0.1394 -0.2225  0.6324
39441SOL     OW23007  11.746  11.973   8.851  0.0273 -0.0768 -0.0614
39441SOL    HW123008  11.806  11.916   8.801 -0.4348 -0.6248 -0.0002
39441SOL    HW223009  11.702  12.025   8.784  0.4936  0.2585 -0.1141
39442SOL     OW23010   2.493   5.027   1.139  0.2008 -0.3135 -0.4446
39442SOL    HW123011   2.475   5.041   1.046 -1.9927 -0.2190 -0.0738
39442SOL    HW223012   2.572   4.973   1.141 -0.4129 -1.3949 -2.4358
39443SOL     OW23013  10.846   4.779  11.309 -0.1064 -0.4483  0.5011
39443SOL    HW123014  10.908   4.727  11.259 -0.2334 -1.2464  1.1412
39443SOL    HW223015  10.890   4.795  11.393  0.4943  1.6867 -0.1663
39444SOL     OW23016   5.897  11.832   6.910  0.1459 -0.2235  1.2502
39444SOL    HW123017   5.924  11.766   6.974  0.2785 -0.4284  0.9858
39444SOL    HW223018   5.974  11.887   6.899  1.1038 -1.8475 -0.8209
39445SOL     OW23019   5.388   9.014   0.189  0.4731  0.1333 -0.3164
39445SOL    HW123020   5.302   8.978   0.210  1.2361 -1.5102  0.2401
39445SOL    HW223021   5.421   8.958   0.118  1.0541  0.7865 -0.5790
39446SOL     OW23022  10.358  10.278   9.219 -0.2194 -0.4470  0.8076
39446SOL    HW123023  10.409  10.285   9.299 -1.0893  0.2399  1.3218
39446SOL    HW223024  10.286  10.219   9.240 -0.3309 -0.4364  0.4736
39447SOL     OW23025   1.879   2.311   8.702  0.3776  0.2088 -0.1413
39447SOL    HW123026   1.830   2.347   8.776  3.0364 -0.6338  2.2126
39447SOL    HW223027   1.958   2.365   8.696  0.7644 -0.4637 -1.6386
39448SOL     OW23028   4.231   4.261   4.559  0.1209 -0.0444 -0.7572
39448SOL    HW123029   4.276   4.326   4.506 -1.3828 -0.1572 -2.2532
39448SOL    HW223030   4.197   4.310   4.634  1.0838  0.3963 -0.6064
39449SOL     OW23031   6.288  10.500   5.759 -0.4727 -0.0047 -0.2409
39449SOL    HW123032   6.205  10.519   5.803  0.0178 -1.9576  1.6474
39449SOL    HW223033   6.324  10.586   5.738 -1.3321  1.0181  2.1314
39450SOL     OW23034   1.699   0.037   8.889  0.2222 -0.0862 -0.2541
39450SOL    HW123035   1.609   0.008   8.903  0.8943 -0.9589  3.2915
39450SOL    HW223036   1.752  -0.041   8.909  1.8071  0.9068 -0.4368
39451SOL     OW23037   5.911   7.816   4.953 -0.2309 -0.2398  0.3055
39451SOL    HW123038   5.945   7.843   4.868  0.6734 -1.3083  0.2985
39451SOL    HW223039   5.980   7.760   4.989 -1.2124 -0.9588  1.1108
39452SOL     OW23040   2.278  10.006  11.790  0.1251 -0.0004 -0.4236
39452SOL    HW123041   2.184  10.025  11.787  0.5257  2.2457 -1.9879
39452SOL    HW223042   2.299   9.980  11.700  1.2934  1.5462 -0.6415
39453SOL     OW23043   2.503   7.925   1.008  0.4927  0.0914 -0.0523
39453SOL    HW123044   2.435   7.956   0.948 -0.0540  1.1200  1.0599
39453SOL    HW223045   2.466   7.846   1.047  0.8437 -0.5757 -1.0081
39454SOL     OW23046   1.586  11.803   4.992  0.5338  0.2293  0.3066
39454SOL    HW123047   1.614  11.749   4.919 -2.6100  0.4344 -1.2347
39454SOL    HW223048   1.597  11.893   4.961  2.0522  0.4306  1.3368
39455SOL     OW23049   9.340  10.851   3.723  0.3464  0.0220  0.2733
39455SOL    HW123050   9.271  10.841   3.788 -0.7094 -0.8872 -0.9337
39455SOL    HW223051   9.313  10.926   3.670 -0.0128 -0.6475 -0.5199
39456SOL     OW23052   3.877   5.087  11.913 -0.3488 -0.1445 -0.3456
39456SOL    HW123053   3.926   5.169  11.913  0.6959 -0.6805 -2.5935
39456SOL    HW223054   3.790   5.111  11.881 -0.4453  0.2793  0.2275
39457SOL     OW23055   7.834  10.326  10.998  0.1992  0.1665 -0.7601
39457SOL    HW123056   7.865  10.312  11.087 -1.6968  1.6514  0.2068
39457SOL    HW223057   7.739  10.329  11.006 -0.0403 -0.1722 -2.9269
39458SOL     OW23058  11.967   2.891   7.352 -0.1864  0.3849  0.5376
39458SOL    HW123059  11.949   2.865   7.262 -0.1591 -0.6464  0.8183
39458SOL    HW223060  11.988   2.985   7.346  0.2408  0.2354 -0.5790
39459SOL     OW23061   9.234   0.926   7.672  0.2928  0.0740  0.3199
39459SOL    HW123062   9.250   0.888   7.758  1.6753 -0.2685 -0.0468
39459SOL    HW223063   9.284   1.007   7.672 -0.2231  0.3956  0.0630
39460SOL     OW23064   1.562   4.507  10.222 -0.0208  0.1379  0.5477
39460SOL    HW123065   1.560   4.459  10.139 -1.5129  0.2863  0.4666
39460SOL    HW223066   1.648   4.548  10.224  0.7318 -1.3571 -0.0640
39461SOL     OW23067   2.459  11.218   6.623 -0.7550  0.7845 -0.2659
39461SOL    HW123068   2.505  11.292   6.661 -1.0407 -0.2833  2.3685
39461SOL    HW223069   2.413  11.254   6.547  2.1079  2.4499 -1.3310
39462SOL     OW23070   8.098   5.294   7.972 -0.1887  0.0010  0.0679
39462SOL    HW123071   8.153   5.215   7.971 -1.1104 -0.6969  1.2564
39462SOL    HW223072   8.133   5.349   7.902  1.8141 -0.5468  0.5790
39463SOL     OW23073   6.503   3.571   6.354  0.0646 -0.3639  0.3913
39463SOL    HW123074   6.526   3.558   6.262 -0.2301 -1.4094  0.4440
39463SOL    HW223075   6.480   3.483   6.385 -1.1913  0.1842  1.0888
39464SOL     OW23076   6.794   9.759   3.403 -0.3693  0.2214  0.1536
39464SOL    HW123077   6.825   9.762   3.493 -1.2050 -3.7478  0.7412
39464SOL    HW223078   6.873   9.742   3.351 -0.0718  1.3003  0.2171
39465SOL     OW23079   6.526   1.280   3.358  0.1110  0.1871  0.2473
39465SOL    HW123080   6.612   1.305   3.393 -0.2827 -1.4495  2.6314
39465SOL    HW223081   6.518   1.187   3.380 -1.6237 -0.1066 -1.4158
39466SOL     OW23082   6.819  10.638   0.801 -0.7976 -0.1031 -0.4262
39466SOL    HW123083   6.860  10.614   0.718  0.1355  2.0614 -0.6681
39466SOL    HW223084   6.755  10.706   0.777 -0.7572  0.2960  0.5648
39467SOL     OW23085   7.720   1.904  10.146  0.1220 -0.1751  0.4044
39467SOL    HW123086   7.728   1.828  10.205 -1.1021 -1.8960 -1.4948
39467SOL    HW223087   7.804   1.906  10.100  0.0041 -0.6841  0.1529
39468SOL     OW23088  10.148   0.925   7.318 -0.4214  0.5501  0.1976
39468SOL    HW123089  10.142   0.830   7.330 -0.3402  0.5210  0.0093
39468SOL    HW223090  10.231   0.950   7.358 -0.5526  0.5762  0.4577
39469SOL     OW23091   1.972   1.468   1.353 -0.3217  0.1987 -0.2500
39469SOL    HW123092   1.957   1.487   1.261  4.8892 -0.9895 -1.6461
39469SOL    HW223093   1.980   1.373   1.358  1.1921  0.3516  1.0069
39470SOL     OW23094   2.073   7.803   9.254  0.3582  0.3413  0.5915
39470SOL    HW123095   2.163   7.781   9.229  0.2320  0.2039  0.2502
39470SOL    HW223096   2.068   7.898   9.246  0.0580  0.2309 -0.8321
39471SOL     OW23097   7.836  11.586   4.605  0.2215 -0.0572 -0.3355
39471SOL    HW123098   7.863  11.676   4.624  0.4690 -0.4930  1.6341
39471SOL    HW223099   7.769  11.566   4.670  0.4553 -1.4306 -0.4761
39472SOL     OW23100   4.893   6.972   3.189 -0.7373 -0.0996 -0.0878
39472SOL    HW123101   4.951   7.037   3.150  1.4602 -1.6929  0.2875
39472SOL    HW223102   4.896   6.991   3.283  0.7982 -1.3087  0.1535
39473SOL     OW23103   6.125   8.022  10.304 -0.0972  0.1650  0.0579
39473SOL    HW123104   6.142   8.112  10.332  3.1965 -0.4034  0.2094
39473SOL    HW223105   6.166   7.968  10.370 -1.1583 -1.4792 -0.5687
39474SOL     OW23106  10.422   7.644   7.063  0.5946 -0.4356  0.8500
39474SOL    HW123107  10.363   7.596   7.006  0.8706  0.1640  0.0422
39474SOL    HW223108  10.378   7.644   7.149 -1.6054  1.6904 -0.1375
39475SOL     OW23109  10.783   2.354   4.768 -0.4943 -0.1072  0.0299
39475SOL    HW123110  10.752   2.444   4.778  0.2473 -0.0320  2.0578
39475SOL    HW223111  10.828   2.335   4.850  0.4295 -1.9261 -0.8476
39476SOL     OW23112   9.664   9.451   0.483 -0.2188 -0.0381 -0.2721
39476SOL    HW123113   9.643   9.514   0.414 -1.9003 -0.2918 -0.0459
39476SOL    HW223114   9.650   9.498   0.565  1.7895  0.2660 -0.0549
39477SOL     OW23115  11.945   1.857   6.625  0.2051  0.1902  0.3633
39477SOL    HW123116  12.028   1.810   6.629  0.7153  1.0385  0.0764
39477SOL    HW223117  11.882   1.793   6.590  1.0103 -0.0923 -0.6012
39478SOL     OW23118   1.721   9.360   6.704  0.2314  0.2787 -0.1330
39478SOL    HW123119   1.644   9.343   6.758 -0.4491  0.0938 -1.1397
39478SOL    HW223120   1.786   9.297   6.735 -0.8243 -1.2548 -0.8828
39479SOL     OW23121   7.006  10.272  11.164  0.5312 -0.6588  0.2199
39479SOL    HW123122   7.062  10.200  11.192  0.5364  0.1260  2.4364
39479SOL    HW223123   7.021  10.341  11.229 -0.3993  0.8887 -1.1263
39480SOL     OW23124   5.113   3.016   1.192  0.4185 -0.2988  0.4112
39480SOL    HW123125   5.041   2.969   1.235 -0.8223 -0.4050 -1.6307
39480SOL    HW223126   5.162   2.947   1.147  0.8607 -0.0525  0.5177
39481SOL     OW23127   0.718   2.785  10.919  0.7458 -0.0352 -0.5002
39481SOL    HW123128   0.786   2.809  10.982  1.7650  2.1467 -2.2856
39481SOL    HW223129   0.763   2.728  10.856 -0.2343 -2.1091  0.5653
39482SOL     OW23130   0.509   2.096  11.587 -0.0139  0.2461  0.0875
39482SOL    HW123131   0.506   2.169  11.525 -2.7908  0.3228  0.1716
39482SOL    HW223132   0.431   2.108  11.641  1.0558 -1.1527  2.0654
39483SOL     OW23133   6.675  10.097  10.465 -0.2525 -0.1551 -0.2964
39483SOL    HW123134   6.728  10.134  10.536  2.9651 -1.2712 -1.9149
39483SOL    HW223135   6.617  10.168  10.439 -0.0698  0.9514  2.0308
39484SOL     OW23136  10.292   7.038  11.366 -0.1812  0.2338  0.2083
39484SOL    HW123137  10.306   7.131  11.350 -0.1699 -0.0248 -1.4632
39484SOL    HW223138  10.336   6.994  11.293 -0.6296 -1.0613  0.6877
39485SOL     OW23139   0.783   1.387   8.202  0.0458  0.3040  0.0302
39485SOL    HW123140   0.838   1.309   8.190 -0.8131 -0.1751 -0.9665
39485SOL    HW223141   0.716   1.359   8.265 -0.8259 -0.0966 -1.0395
39486SOL     OW23142  11.751   3.199   2.311 -0.3141 -0.9166 -0.5498
39486SOL    HW123143  11.780   3.139   2.380  0.5916 -0.4349 -0.4978
39486SOL    HW223144  11.776   3.156   2.230 -0.8860 -1.2287 -0.5660
39487SOL     OW23145  10.732   2.901   6.103  0.0207  0.4010 -0.5758
39487SOL    HW123146  10.670   2.969   6.078 -0.5820  0.5914  1.2532
39487SOL    HW223147  10.703   2.824   6.055  0.0107  1.1276 -1.7887
39488SOL     OW23148   8.560   2.284   8.977  0.3256 -0.6188  0.4475
39488SOL    HW123149   8.499   2.214   9.000 -1.0552  0.7514  1.1881
39488SOL    HW223150   8.530   2.360   9.028  1.4534  0.6455 -0.6726
39489SOL     OW23151   4.137  10.959   4.688 -0.0287 -0.3244 -0.3676
39489SOL    HW123152   4.057  10.909   4.669 -0.4306 -1.3441  3.2361
39489SOL    HW223153   4.107  11.050   4.696 -1.0716 -0.7991  1.7111
39490SOL     OW23154   4.128   9.147   2.137 -0.0980 -0.2652  0.7350
39490SOL    HW123155   4.075   9.221   2.168  0.3957  0.0401  0.8644
39490SOL    HW223156   4.067   9.094   2.086 -0.4603  0.2353  0.6321
39491SOL     OW23157   5.389  11.762   7.909 -0.7559  0.2606  0.0366
39491SOL    HW123158   5.331  11.838   7.922 -2.0205 -0.8074  0.9031
39491SOL    HW223159   5.342  11.707   7.846  0.6348  0.6471 -1.3882
39492SOL     OW23160  10.501   3.599   1.456 -0.0712  0.2172  0.0171
39492SOL    HW123161  10.483   3.506   1.442  0.8619 -0.2642  1.7410
39492SOL    HW223162  10.442   3.625   1.526  2.0562 -0.0395  2.0201
39493SOL     OW23163  10.582   4.043   3.857  0.3824  0.2228  0.6260
39493SOL    HW123164  10.563   4.111   3.793 -0.0587  0.0304  0.5506
39493SOL    HW223165  10.525   4.063   3.931  0.1338 -0.1592  0.5375
39494SOL     OW23166   7.103   2.610  11.287 -0.1394 -0.0421  0.0710
39494SOL    HW123167   7.169   2.659  11.337 -2.3050  0.0642  3.0520
39494SOL    HW223168   7.128   2.518  11.298 -1.1646 -0.1184  2.5027
39495SOL     OW23169   1.852   0.411   8.121 -0.2172  0.0534 -0.2065
39495SOL    HW123170   1.765   0.425   8.084 -0.2967 -1.3892 -0.6266
39495SOL    HW223171   1.836   0.391   8.213 -0.4620 -1.2941 -0.5112
39496SOL     OW23172   6.427   4.252   5.227 -0.1342  0.5232  0.3112
39496SOL    HW123173   6.417   4.338   5.185 -1.3030  0.4105  0.3208
39496SOL    HW223174   6.353   4.247   5.288 -0.1348 -0.5315  0.2308
39497SOL     OW23175   8.401   5.263   8.227 -0.3225 -0.4882  0.7204
39497SOL    HW123176   8.377   5.355   8.228 -0.3195 -0.4265 -1.2035
39497SOL    HW223177   8.317   5.217   8.223 -0.2930 -0.4719 -0.3907
39498SOL     OW23178   9.998   0.331   4.894  0.1678  0.4499  0.1999
39498SOL    HW123179  10.020   0.247   4.935 -1.0120 -0.1988 -0.4478
39498SOL    HW223180  10.083   0.368   4.869  0.8681  0.5065  2.4696
39499SOL     OW23181  10.935   2.890  11.087 -0.0972 -0.1072  0.4737
39499SOL    HW123182  10.885   2.904  11.007  1.9968  0.5854 -0.7578
39499SOL    HW223183  10.928   2.796  11.103  0.9289 -0.5674 -1.5547
39500SOL     OW23184   7.549   4.817   2.534  0.4019 -0.0321 -0.3109
39500SOL    HW123185   7.518   4.885   2.475 -0.2181  0.7123  0.8461
39500SOL    HW223186   7.630   4.853   2.571  0.7558 -0.4677 -0.6585
39501SOL     OW23187  11.344   6.874   4.206  0.3852 -0.2623  0.2569
39501SOL    HW123188  11.422   6.839   4.250  0.9964  0.3445 -0.3176
39501SOL    HW223189  11.273   6.862   4.270  0.6550 -2.0819  0.2555
39502SOL     OW23190   9.908   5.222   9.680 -0.0466  0.0245  0.1146
39502SOL    HW123191   9.861   5.240   9.598  2.2818  0.3095 -1.2609
39502SOL    HW223192   9.954   5.139   9.664  2.7693  1.4880 -0.0939
39503SOL     OW23193   5.890   9.910   5.337 -0.1036 -0.1506 -0.0850
39503SOL    HW123194   5.985   9.900   5.333 -0.0375 -0.1079  1.0448
39503SOL    HW223195   5.875  10.003   5.323  0.0299 -0.1219 -0.0361
39504SOL     OW23196   1.398   0.018   4.443  0.0964  0.0074 -0.6939
39504SOL    HW123197   1.320  -0.037   4.433  0.1598 -0.0132 -1.0796
39504SOL    HW223198   1.408   0.028   4.538 -1.1315  1.0868 -0.6384
39505SOL     OW23199   5.873   1.868   1.975 -0.3389  0.0271  0.0630
39505SOL    HW123200   5.951   1.922   1.964 -1.2280  0.8894 -2.8958
39505SOL    HW223201   5.872   1.811   1.899 -0.8813 -2.3553  1.7337
39506SOL     OW23202  11.074   0.443   7.123 -0.2939 -0.0995  0.7004
39506SOL    HW123203  11.065   0.483   7.036 -4.0707  0.6661  1.2744
39506SOL    HW223204  11.151   0.386   7.115 -0.0464  0.4905 -2.8869
39507SOL     OW23205   8.386   1.881   8.153 -0.5129  0.0543  0.1022
39507SOL    HW123206   8.336   1.909   8.077  1.1060  0.3377 -0.9136
39507SOL    HW223207   8.320   1.857   8.219 -1.9527 -0.2339 -1.3896
39508SOL     OW23208   9.704   5.106  11.037 -0.2169 -0.4343 -0.3488
39508SOL    HW123209   9.709   5.172  10.968  1.6624  0.1213  0.2720
39508SOL    HW223210   9.711   5.023  10.991  2.9724 -0.0404 -0.7837
39509SOL     OW23211   7.665  11.981   0.145  0.4593  0.1531 -0.4320
39509SOL    HW123212   7.590  11.950   0.195  1.8725 -0.5395  1.3729
39509SOL    HW223213   7.629  12.047   0.086 -1.8898 -1.5865 -1.0963
39510SOL     OW23214   9.743   4.533   3.457  0.1874  0.2739  0.9233
39510SOL    HW123215   9.778   4.558   3.371  1.2887  0.9417  1.5382
39510SOL    HW223216   9.772   4.443   3.470  0.9808  0.5386  1.0548
39511SOL     OW23217   3.065   8.339   2.297  0.3564  0.1532  0.3446
39511SOL    HW123218   3.063   8.259   2.245 -1.4291 -0.7611  1.7068
39511SOL    HW223219   3.015   8.402   2.245  1.5726  0.3616 -0.6262
39512SOL     OW23220   4.089   8.237  11.900 -0.0076  0.5001 -0.1263
39512SOL    HW123221   4.152   8.253  11.829  2.2470 -0.0310  1.6123
39512SOL    HW223222   4.144   8.212  11.975 -2.4102 -1.5091  1.1241
39513SOL     OW23223   8.359  10.224   1.165  0.0419 -0.4128  0.2512
39513SOL    HW123224   8.367  10.232   1.070  0.7646  2.0818  0.4499
39513SOL    HW223225   8.279  10.272   1.186  0.1009 -0.6125  0.9370
39514SOL     OW23226  10.622   6.625  11.987 -0.0849 -0.0317 -0.0219
39514SOL    HW123227  10.627   6.583  11.901  0.9211  1.7475 -0.8936
39514SOL    HW223228  10.534   6.661  11.991  0.0533  0.3784 -0.5679
39515SOL     OW23229   0.710   5.934   4.392 -0.5260  0.2297  0.0557
39515SOL    HW123230   0.661   6.013   4.370  0.6559  1.2167  0.8135
39515SOL    HW223231   0.779   5.930   4.326 -1.7891 -1.3715 -1.2474
39516SOL     OW23232   4.176   3.705   0.579  0.3708 -0.3528  0.7297
39516SOL    HW123233   4.093   3.667   0.610  0.5533 -0.2589  1.3631
39516SOL    HW223234   4.186   3.785   0.630  0.5773 -0.0761  0.2524
39517SOL     OW23235   3.190   2.016   9.872 -0.5990  0.1904  0.8366
39517SOL    HW123236   3.158   2.077   9.938 -2.0746  1.4990 -0.9862
39517SOL    HW223237   3.126   1.945   9.873  0.8133 -1.1740  2.5598
39518SOL     OW23238  11.570   7.151   2.384 -0.1177 -0.2528  0.0789
39518SOL    HW123239  11.494   7.166   2.329  0.1530  0.9695  0.0053
39518SOL    HW223240  11.599   7.062   2.363 -2.1143 -1.1416  0.8629
39519SOL     OW23241   7.371  11.980   6.247  0.7016 -0.1508  0.3733
39519SOL    HW123242   7.318  12.020   6.316 -0.9012 -1.0819 -0.2656
39519SOL    HW223243   7.424  11.915   6.293 -0.1460 -0.5611  0.7961
39520SOL     OW23244   6.953   0.176   2.752 -0.0166  0.2213  0.3075
39520SOL    HW123245   7.036   0.221   2.733  0.0276  0.8442  1.8802
39520SOL    HW223246   6.903   0.238   2.803 -1.3352 -0.2967 -0.3175
39521SOL     OW23247   2.159   8.945   4.489 -0.3269 -0.8977 -0.2943
39521SOL    HW123248   2.122   8.932   4.402 -0.6155  1.2772 -0.5484
39521SOL    HW223249   2.222   9.016   4.478 -0.0074 -0.9300  1.1819
39522SOL     OW23250   0.307   1.487   4.760  0.6102 -0.1084 -0.5055
39522SOL    HW123251   0.368   1.559   4.747  1.5642 -0.3270  2.1329
39522SOL    HW223252   0.357   1.421   4.808 -0.9217 -1.5093 -0.7476
39523SOL     OW23253   4.059   0.163   2.986 -0.2675 -0.9899  0.2706
39523SOL    HW123254   3.996   0.192   2.921 -1.6406 -0.9289  1.5626
39523SOL    HW223255   4.037   0.214   3.064  2.5651  0.3738  0.2966
39524SOL     OW23256   5.204   4.263   2.725  0.2140  0.0047  0.3245
39524SOL    HW123257   5.271   4.258   2.793 -0.3811 -1.7934  0.8422
39524SOL    HW223258   5.121   4.260   2.772 -0.2178  0.5110 -0.3904
39525SOL     OW23259   4.785  10.946   9.368  0.2563  0.4246  0.3422
39525SOL    HW123260   4.803  10.911   9.455 -0.7729  2.4147  1.4222
39525SOL    HW223261   4.790  11.041   9.378 -0.4000  0.7301 -1.6636
39526SOL     OW23262   2.763   1.684   5.678 -0.0908 -0.4604  0.7857
39526SOL    HW123263   2.734   1.645   5.761  0.8140 -1.5790  0.6000
39526SOL    HW223264   2.782   1.775   5.699 -1.0993 -0.4046  1.5122
39527SOL     OW23265   5.292  11.413   9.337 -0.4696 -0.1319  0.1321
39527SOL    HW123266   5.199  11.394   9.332 -0.7389  1.1518 -0.0601
39527SOL    HW223267   5.302  11.467   9.416 -0.1828  1.1703 -0.7539
39528SOL     OW23268   1.313  10.923  11.977  0.5122  0.4963 -0.1068
39528SOL    HW123269   1.310  10.954  12.068  2.3106  1.0723 -0.2045
39528SOL    HW223270   1.299  11.001  11.924 -1.7361 -0.0300 -0.3623
39529SOL     OW23271   3.150   4.740   5.979 -0.5573 -0.2840  0.1955
39529SOL    HW123272   3.108   4.654   5.988 -3.0438  0.5684 -1.9015
39529SOL    HW223273   3.214   4.729   5.909 -0.0787 -0.6707  0.6879
39530SOL     OW23274   2.301   1.391   0.049 -0.0437  0.6522 -0.3111
39530SOL    HW123275   2.239   1.415  -0.019 -1.2079 -2.5457 -0.5167
39530SOL    HW223276   2.386   1.390   0.005 -0.2332  2.0930 -0.7686
39531SOL     OW23277   6.671   8.871   5.499 -0.0608 -0.2940 -0.7338
39531SOL    HW123278   6.670   8.790   5.447 -2.3780 -0.6597 -0.2460
39531SOL    HW223279   6.749   8.863   5.554 -0.3451 -2.3354 -0.5314
39532SOL     OW23280   8.813   6.199   6.415 -0.0417  0.5226 -0.3217
39532SOL    HW123281   8.868   6.136   6.369  1.0678  0.1786  1.3975
39532SOL    HW223282   8.739   6.214   6.356  0.2058 -1.5596 -1.2280
39533SOL     OW23283   1.382   9.026   9.041 -0.4926  0.4432  0.1732
39533SOL    HW123284   1.321   9.049   9.112  0.1678  0.5982  0.6978
39533SOL    HW223285   1.366   8.933   9.025 -1.3373  0.6368 -0.1550
39534SOL     OW23286   7.144   1.716   2.014  0.3823  0.2582  0.0534
39534SOL    HW123287   7.208   1.712   1.943  0.4971  0.8094  0.1165
39534SOL    HW223288   7.160   1.637   2.065  0.6506  0.1211 -0.2379
39535SOL     OW23289   8.722   9.579   9.397  0.0654  0.3482  0.8716
39535SOL    HW123290   8.688   9.600   9.310 -0.1397 -1.4705  0.4678
39535SOL    HW223291   8.812   9.551   9.381 -0.0842 -0.3289  1.1797
39536SOL     OW23292   0.057   9.976   8.700  0.1062 -0.5111  0.1112
39536SOL    HW123293   0.101   9.896   8.671  1.5035  0.3018 -0.1552
39536SOL    HW223294   0.095   9.995   8.785  1.7363  1.1890 -0.9065
39537SOL     OW23295   2.456   9.254   6.749  0.1395  0.3869 -0.3152
39537SOL    HW123296   2.525   9.268   6.685  2.4592 -0.6898  1.7970
39537SOL    HW223297   2.484   9.301   6.827 -0.8411 -1.1218  1.0183
39538SOL     OW23298  10.823  10.231  11.950 -0.1554 -0.2536  0.2124
39538SOL    HW123299  10.785  10.165  11.892 -1.2497 -2.3500  3.1058
39538SOL    HW223300  10.912  10.199  11.967 -0.4848 -0.7268  1.1388
39539SOL     OW23301   7.962   7.744   7.198  0.2949  0.3835 -0.0839
39539SOL    HW123302   8.041   7.694   7.219 -0.0253  0.4661  1.4243
39539SOL    HW223303   7.930   7.775   7.283 -1.2664  0.4900 -0.6836
39540SOL     OW23304   7.961   3.276   9.053 -0.0540 -0.3213  0.1375
39540SOL    HW123305   7.879   3.227   9.049  0.2591 -0.8064 -0.4490
39540SOL    HW223306   8.013   3.243   8.979  0.6107  0.0819  0.4134
39541SOL     OW23307   9.325   8.044   7.373 -0.0524 -1.2143  0.1163
39541SOL    HW123308   9.343   7.953   7.353  1.9912 -0.9388  0.5189
39541SOL    HW223309   9.325   8.088   7.287  1.9974 -1.1393  0.0999
39542SOL     OW23310   6.971   3.744   0.865  0.5344 -0.0444 -0.1078
39542SOL    HW123311   6.890   3.794   0.878  0.4115 -0.3486  0.3420
39542SOL    HW223312   6.966   3.715   0.774 -1.5112 -2.8356  0.7573
39543SOL     OW23313   2.111   7.371  11.387  0.4861  0.2655 -0.5030
39543SOL    HW123314   2.133   7.302  11.324 -0.1371  0.1035 -0.5453
39543SOL    HW223315   2.059   7.326  11.454  0.9367  0.4846  0.0096
39544SOL     OW23316  10.181   0.948  11.324 -0.4442  0.2760  0.1364
39544SOL    HW123317  10.182   0.852  11.321 -0.7942  0.2451  0.8731
39544SOL    HW223318  10.122   0.973  11.253 -0.9685 -0.0884  0.4346
39545SOL     OW23319   4.636   2.267   4.988  0.1572  0.0138  0.5876
39545SOL    HW123320   4.626   2.321   4.909  1.1895  1.0948  1.1597
39545SOL    HW223321   4.637   2.177   4.956 -2.3996  0.2267 -0.3323
39546SOL     OW23322   4.905   4.322   1.646 -0.5825 -0.0178 -0.0337
39546SOL    HW123323   4.962   4.250   1.621  1.9677  1.6420  0.6108
39546SOL    HW223324   4.884   4.367   1.564  1.1656  0.7810 -0.0855
39547SOL     OW23325   1.912   8.339   1.051  0.1306 -0.3418  0.0200
39547SOL    HW123326   1.934   8.305   0.965  0.7488 -1.1786  0.4909
39547SOL    HW223327   1.823   8.307   1.068 -0.1246  0.1092 -0.4372
39548SOL     OW23328   6.791  11.978  11.794  0.0770 -0.1117 -0.4919
39548SOL    HW123329   6.805  11.932  11.876  0.7506 -0.3018 -0.7048
39548SOL    HW223330   6.789  12.071  11.819  1.2762 -0.0951 -0.3648
39549SOL     OW23331   9.027  11.256   1.538 -0.0486  0.2442  0.3816
39549SOL    HW123332   8.986  11.340   1.559 -0.6906 -0.2509  1.1449
39549SOL    HW223333   9.023  11.206   1.619  2.1078  0.1774  0.5018
39550SOL     OW23334  11.992   3.838   1.146  0.0273 -0.3679 -0.1164
39550SOL    HW123335  11.931   3.896   1.192 -0.5180  1.5216 -2.9659
39550SOL    HW223336  12.078   3.862   1.182 -0.4870  0.0358  0.8907
39551SOL     OW23337   1.633   1.582   9.631  0.1562  0.0148 -0.3244
39551SOL    HW123338   1.720   1.621   9.614 -0.7766  2.9033  0.8357
39551SOL    HW223339   1.636   1.558   9.724  0.2776 -1.6213 -0.7279
39552SOL     OW23340   4.727   4.243   7.958 -0.3725 -0.4876  0.1668
39552SOL    HW123341   4.672   4.183   7.908 -0.1840 -1.6766  1.3232
39552SOL    HW223342   4.707   4.329   7.923 -4.1594 -0.6216  1.4954
39553SOL     OW23343   7.087   1.968   4.101 -0.5456 -0.2556 -0.1605
39553SOL    HW123344   7.001   1.926   4.092 -1.0684  0.7738 -0.1398
39553SOL    HW223345   7.068   2.062   4.098 -0.1277  0.2952  4.8707
39554SOL     OW23346   2.301   0.384   3.646  0.6464 -0.1964  0.5127
39554SOL    HW123347   2.221   0.428   3.619  1.3841  1.4354  0.8210
39554SOL    HW223348   2.271   0.308   3.695 -0.7658  1.1161  1.8129
39555SOL     OW23349   1.182   7.978   3.709  0.1334  0.4037  0.8966
39555SOL    HW123350   1.120   8.019   3.649 -0.2007 -0.3735  0.6977
39555SOL    HW223351   1.132   7.961   3.789  0.8339  2.3742  1.8224
39556SOL     OW23352   5.004   9.805  10.961 -0.6911 -0.0327  0.5486
39556SOL    HW123353   4.909   9.808  10.955 -0.7227  0.9102  1.2060
39556SOL    HW223354   5.031   9.897  10.967  0.1300 -0.3220  1.9811
39557SOL     OW23355   7.602   9.259   0.995 -0.2493 -0.2308 -0.1336
39557SOL    HW123356   7.515   9.233   1.025 -1.1884 -1.1985 -3.3594
39557SOL    HW223357   7.656   9.182   1.008  0.1225  0.2940  1.6525
39558SOL     OW23358   4.506  10.008  11.502 -0.0104  0.2379  0.6870
39558SOL    HW123359   4.590   9.971  11.528 -1.5562 -2.3607  2.4135
39558SOL    HW223360   4.514  10.021  11.408  2.5827  0.9052  0.9237
39559SOL     OW23361   5.842   5.386   4.926  0.5014  0.2172 -0.1596
39559SOL    HW123362   5.824   5.292   4.931 -1.4998  0.5917  0.5148
39559SOL    HW223363   5.758   5.426   4.904  0.9588  1.9776  1.0382
39560SOL     OW23364   9.018   5.175   9.994  0.1508  0.7040 -0.1654
39560SOL    HW123365   9.019   5.260   9.951  2.0085  0.1635 -1.3180
39560SOL    HW223366   8.944   5.128   9.955  0.5827  0.9516 -1.3241
39561SOL     OW23367  10.809   1.970   7.543  0.0068  0.5223  0.3958
39561SOL    HW123368  10.752   1.956   7.619 -0.4750  2.0718  0.3476
39561SOL    HW223369  10.761   2.031   7.487  0.1525 -0.9220 -1.3986
39562SOL     OW23370   1.543   7.491  10.582  0.6259  0.6970 -0.3985
39562SOL    HW123371   1.626   7.462  10.618 -0.3246 -1.7091  0.0944
39562SOL    HW223372   1.553   7.482  10.487  0.4102 -1.3849 -0.2727
39563SOL     OW23373   0.299   3.874   7.355 -0.0493 -0.7555  0.7800
39563SOL    HW123374   0.237   3.941   7.327 -0.2443 -1.1215  0.3155
39563SOL    HW223375   0.315   3.893   7.448  0.9130  0.7229  0.3398
39564SOL     OW23376   1.737  11.664   4.470 -0.4850 -0.5102 -0.0893
39564SOL    HW123377   1.783  11.723   4.529 -1.1641  1.3251 -1.2894
39564SOL    HW223378   1.806  11.621   4.419 -0.0027  0.7061 -0.4966
39565SOL     OW23379   7.535   5.283   1.712  0.0425  0.4658  0.7804
39565SOL    HW123380   7.484   5.352   1.752 -0.0283 -0.6969  2.8023
39565SOL    HW223381   7.624   5.295   1.747  0.2281  0.0262  0.4753
39566SOL     OW23382   3.396   6.658   4.566 -0.0631 -1.1723  0.5565
39566SOL    HW123383   3.465   6.658   4.499  0.0917 -1.2698  0.7117
39566SOL    HW223384   3.319   6.691   4.522  0.3437 -0.0746  0.6532
39567SOL     OW23385   4.065   1.192   6.302 -0.1376  0.2639  0.3558
39567SOL    HW123386   4.098   1.104   6.320 -1.4829 -0.0822  1.1932
39567SOL    HW223387   4.075   1.201   6.207  1.2410 -0.2597  0.4139
39568SOL     OW23388   7.839   2.933   6.961  0.8771  0.1334  0.1603
39568SOL    HW123389   7.835   3.028   6.958 -0.1037  0.1519  1.2484
39568SOL    HW223390   7.881   2.914   7.045  1.2042 -0.3991 -0.1186
39569SOL     OW23391  11.448   1.213   7.444 -0.1191 -0.2102 -0.0300
39569SOL    HW123392  11.361   1.183   7.416  0.5643 -1.7488 -0.5685
39569SOL    HW223393  11.475   1.150   7.511 -0.0168  1.1258  1.2471
39570SOL     OW23394   6.147   3.171   1.704  0.2683 -0.2513 -0.1154
39570SOL    HW123395   6.155   3.235   1.632 -1.6945  0.3890  0.1801
39570SOL    HW223396   6.153   3.224   1.783 -0.8703 -0.4943  0.1416
39571SOL     OW23397   9.012   6.497   3.689 -0.3473  0.6737  0.0551
39571SOL    HW123398   9.027   6.589   3.709 -1.5219  1.3190 -1.7928
39571SOL    HW223399   9.085   6.472   3.632  0.4675  0.1663  1.2818
39572SOL     OW23400   1.488   4.981   1.301  0.0604  0.0937  0.4891
39572SOL    HW123401   1.478   4.942   1.388 -0.0567 -0.8507  0.0665
39572SOL    HW223402   1.537   4.916   1.251  0.0593  0.5915 -0.1775
39573SOL     OW23403   5.478   2.114   5.039  0.2555 -0.2981  0.0846
39573SOL    HW123404   5.456   2.198   4.999 -0.1833  0.0021  0.9392
39573SOL    HW223405   5.401   2.091   5.091  0.5859 -0.9626  0.2901
39574SOL     OW23406  11.540   9.412   4.383 -0.5299 -0.5137  0.2800
39574SOL    HW123407  11.518   9.440   4.471 -2.1337  0.5393 -0.4074
39574SOL    HW223408  11.523   9.318   4.382 -0.9574 -0.4479  0.9561
39575SOL     OW23409   1.417   7.965  10.410 -0.2436  0.5795 -0.0302
39575SOL    HW123410   1.481   8.022  10.452  0.7040 -0.4284 -0.0799
39575SOL    HW223411   1.469   7.906  10.356 -1.2871  0.4022 -0.8847
39576SOL     OW23412   3.007   7.234   2.559 -0.3729  0.1532 -0.1628
39576SOL    HW123413   2.956   7.201   2.633  0.3971 -2.0780 -0.5733
39576SOL    HW223414   3.097   7.208   2.578  0.1325  1.1885 -1.0103
39577SOL     OW23415   4.011   5.978   8.702 -0.4677  0.5623  0.6170
39577SOL    HW123416   4.096   6.009   8.669  0.0394  1.4222  2.5769
39577SOL    HW223417   4.001   5.891   8.664  1.0616  0.6477 -0.0689
39578SOL     OW23418   7.712   2.969   9.337  0.0701  0.3360 -0.0107
39578SOL    HW123419   7.746   2.892   9.383  1.7309  1.1398  0.2099
39578SOL    HW223420   7.631   2.939   9.296 -0.0317 -1.1445  1.1821
39579SOL     OW23421   9.827   0.499   1.995 -0.7746  0.0385 -0.1528
39579SOL    HW123422   9.838   0.574   2.054 -1.5930  0.6533 -0.7529
39579SOL    HW223423   9.735   0.474   2.005 -0.6554 -0.5141 -0.4000
39580SOL     OW23424   8.116   9.758   1.925 -0.5093  0.4048 -0.2025
39580SOL    HW123425   8.189   9.697   1.937 -1.2045 -0.4622 -0.2860
39580SOL    HW223426   8.084   9.740   1.836 -0.1805  1.5046 -0.5588
39581SOL     OW23427   2.270   1.606  11.463  0.0309 -0.3585 -0.0728
39581SOL    HW123428   2.247   1.642  11.548 -0.7244  0.9252 -0.7975
39581SOL    HW223429   2.212   1.530  11.452 -0.7942  0.2578 -0.0041
39582SOL     OW23430   3.656   7.492   0.093 -0.3402  0.1575  0.0366
39582SOL    HW123431   3.578   7.456   0.050 -0.4544  0.4697 -0.0188
39582SOL    HW223432   3.666   7.579   0.055 -0.0633  0.1844  0.1710
39583SOL     OW23433   3.332   9.248   4.263 -0.1938 -0.4829  0.0610
39583SOL    HW123434   3.427   9.234   4.265  0.0249  0.6276 -1.0253
39583SOL    HW223435   3.322   9.338   4.233 -1.6168 -1.1310 -1.5961
39584SOL     OW23436   8.801   5.994   7.753  0.9043 -0.0140 -0.4442
39584SOL    HW123437   8.727   6.029   7.705 -0.1667  0.7053  1.5818
39584SOL    HW223438   8.877   6.016   7.700  0.0033  2.8541 -0.7179
39585SOL     OW23439   0.015   6.983   6.746  0.0600 -0.7014 -0.0717
39585SOL    HW123440  -0.064   6.934   6.768 -0.5177  0.6709  1.1006
39585SOL    HW223441  -0.010   7.035   6.669 -1.6504  2.7380  2.5208
39586SOL     OW23442  10.039  10.651   1.454  0.0238  0.5450  0.4530
39586SOL    HW123443  10.009  10.651   1.544  1.3273  1.6328  0.9256
39586SOL    HW223444  10.056  10.559   1.434  0.1877  0.3446  1.4832
39587SOL     OW23445  11.980   5.140   9.117  0.1024  0.1432 -0.4272
39587SOL    HW123446  11.929   5.219   9.097  0.4137  0.1371 -1.3061
39587SOL    HW223447  11.968   5.126   9.211 -0.4021  0.9221 -0.3691
39588SOL     OW23448   5.283  10.245   0.467 -0.8137 -0.6178  0.5247
39588SOL    HW123449   5.325  10.307   0.526 -0.4217 -1.3060  0.9792
39588SOL    HW223450   5.191  10.244   0.496 -0.8256 -0.2563  0.5119
39589SOL     OW23451   3.881  11.589   8.580  0.1354 -0.9058  0.0663
39589SOL    HW123452   3.872  11.516   8.519 -0.4912 -0.7284 -0.0635
39589SOL    HW223453   3.976  11.604   8.586  0.2217  1.6241 -3.9572
39590SOL     OW23454  10.493   8.678   0.467  0.6288 -0.0498 -0.7012
39590SOL    HW123455  10.529   8.721   0.389 -0.4388  2.3752  0.0500
39590SOL    HW223456  10.438   8.608   0.432  1.5189 -0.1235 -2.0411
39591SOL     OW23457   3.560   1.004   0.955 -0.5321 -0.3519  0.4101
39591SOL    HW123458   3.593   0.975   1.040 -0.1125  1.1678  0.8051
39591SOL    HW223459   3.465   0.994   0.961 -0.4974 -0.3268  1.0349
39592SOL     OW23460   7.451   8.513  11.094  0.1497  0.0939  0.5346
39592SOL    HW123461   7.412   8.598  11.074 -2.1384 -1.5415 -2.7833
39592SOL    HW223462   7.525   8.506  11.034  0.5883 -0.0973  1.0937
39593SOL     OW23463   9.503   0.021   6.702 -0.0248 -0.9138  0.3502
39593SOL    HW123464   9.439   0.047   6.769 -1.3504 -1.4164 -0.6696
39593SOL    HW223465   9.485   0.080   6.628 -0.4109 -2.0921 -0.5256
39594SOL     OW23466   3.537   8.273   6.490 -0.0389 -0.2092  0.6252
39594SOL    HW123467   3.521   8.180   6.509  2.8191 -1.0574 -0.6401
39594SOL    HW223468   3.632   8.282   6.491 -0.1955  2.4892 -0.4372
39595SOL     OW23469   1.950   7.186   7.763  0.3132 -0.2132  0.5318
39595SOL    HW123470   1.935   7.209   7.854 -0.3445 -2.0878  0.9347
39595SOL    HW223471   1.864   7.163   7.729  0.7545 -0.9563 -0.1309
39596SOL     OW23472   5.689   3.801   2.411 -0.2057 -0.5680  0.3740
39596SOL    HW123473   5.735   3.879   2.442 -1.2287 -0.8729  2.9403
39596SOL    HW223474   5.607   3.834   2.375 -0.0553 -0.3666  0.2152
39597SOL     OW23475   1.327  10.696   1.900 -0.1073  0.2794  0.1346
39597SOL    HW123476   1.366  10.761   1.841  0.0677 -0.4702 -0.6048
39597SOL    HW223477   1.279  10.748   1.964 -0.7635  1.1210 -0.9897
39598SOL     OW23478   0.952   6.958   0.977  0.1980 -0.1561 -0.1468
39598SOL    HW123479   1.044   6.979   0.995  0.4928 -1.1415 -0.4007
39598SOL    HW223480   0.955   6.910   0.894 -0.5759  0.0075 -0.2717
39599SOL     OW23481   4.306   7.096   4.183 -0.2123 -0.0586  0.1610
39599SOL    HW123482   4.223   7.048   4.187 -0.0010 -0.4613 -0.1808
39599SOL    HW223483   4.356   7.063   4.257  0.0246 -0.5491 -0.2112
39600SOL     OW23484  11.326   8.698   8.301 -0.4429 -0.0476  0.0481
39600SOL    HW123485  11.246   8.745   8.324  0.2764  1.2860 -0.1038
39600SOL    HW223486  11.297   8.629   8.241 -1.5716 -0.0440  0.5784
39601SOL     OW23487   6.690  11.019   3.870  0.1724 -0.0372 -0.8299
39601SOL    HW123488   6.732  11.078   3.808  1.6565 -1.0502 -0.8313
39601SOL    HW223489   6.631  11.075   3.921  0.8397  1.2590 -1.4500
39602SOL     OW23490   0.766  10.863   9.186  0.8859 -0.2845 -0.0543
39602SOL    HW123491   0.745  10.778   9.147  2.1606 -0.3676 -0.5874
39602SOL    HW223492   0.709  10.925   9.139 -0.8170 -0.9343  1.0492
39603SOL     OW23493   1.326   4.474   2.377  0.1982  0.3964 -0.7461
39603SOL    HW123494   1.377   4.460   2.457 -0.4146 -0.0726 -0.4338
39603SOL    HW223495   1.306   4.386   2.346  0.3085  0.5782 -1.3428
39604SOL     OW23496   3.649   6.506   9.192 -0.1292 -0.0157 -0.2082
39604SOL    HW123497   3.642   6.570   9.263  0.0511  0.5166 -0.6649
39604SOL    HW223498   3.630   6.422   9.234  0.9153  0.1642  0.6763
39605SOL     OW23499   0.267   0.486   1.761 -0.4001 -0.4570  0.5639
39605SOL    HW123500   0.308   0.572   1.770 -0.3188  0.1695 -3.7111
39605SOL    HW223501   0.173   0.503   1.767 -0.4091  0.0976 -0.8323
39606SOL     OW23502   2.559   2.330   5.040 -0.0111 -0.5260  0.0928
39606SOL    HW123503   2.478   2.283   5.061  0.5922 -0.5728  2.5636
39606SOL    HW223504   2.611   2.268   4.990 -0.7136 -1.1862  0.1638
39607SOL     OW23505   7.734   8.400   4.089 -0.0041 -0.1797 -0.3877
39607SOL    HW123506   7.657   8.343   4.082  0.0667 -0.3656  0.2987
39607SOL    HW223507   7.731   8.454   4.010 -1.5552  0.7080  0.2357
39608SOL     OW23508   4.883   1.507   9.575  0.0050 -0.2798  0.8557
39608SOL    HW123509   4.936   1.575   9.533 -0.6669 -0.9343 -1.1712
39608SOL    HW223510   4.806   1.553   9.608  0.3117  0.1885  0.9230
39609SOL     OW23511   0.819   4.524   3.069 -0.1114 -0.0893 -0.5385
39609SOL    HW123512   0.856   4.590   3.127 -0.2661  0.6935 -1.3097
39609SOL    HW223513   0.741   4.492   3.115  0.4805 -0.4071  0.2525
39610SOL     OW23514   8.814   1.255  10.513  0.2004  0.5062  0.5149
39610SOL    HW123515   8.877   1.261  10.441 -0.2526 -2.9392 -0.3562
39610SOL    HW223516   8.729   1.277  10.473  0.1669  0.1077  0.3594
39611SOL     OW23517   9.605   7.653   5.311  0.1429 -0.0979 -0.3823
39611SOL    HW123518   9.665   7.727   5.319  0.7768 -0.2372 -2.8044
39611SOL    HW223519   9.650   7.581   5.356  1.3014  0.0902 -1.1869
39612SOL     OW23520  11.425   2.472   7.283  0.0910  0.6822 -0.0774
39612SOL    HW123521  11.417   2.516   7.368 -0.3105  2.4736 -0.9747
39612SOL    HW223522  11.335   2.468   7.250  0.2131 -0.2331 -0.3174
39613SOL     OW23523   3.855   9.974   2.111 -0.0698 -0.4404  0.5313
39613SOL    HW123524   3.862   9.995   2.204  0.7596 -0.4877  0.4877
39613SOL    HW223525   3.942   9.992   2.076 -0.6865  0.7534 -0.4878
39614SOL     OW23526   1.300   0.124   5.326  0.0156  0.1465 -0.1295
39614SOL    HW123527   1.223   0.098   5.376  1.0601 -0.0633  1.4169
39614SOL    HW223528   1.327   0.044   5.282 -0.6195  0.2185 -0.6772
39615SOL     OW23529   0.533   3.969   5.849 -0.1419 -0.2319 -0.0371
39615SOL    HW123530   0.582   3.910   5.907 -0.8173 -0.5968  0.1637
39615SOL    HW223531   0.485   3.912   5.791 -0.2730  0.1323 -0.2909
39616SOL     OW23532   8.341   9.864   6.088  0.6793  0.5217  0.6334
39616SOL    HW123533   8.428   9.905   6.091  1.4904 -0.9095 -1.0713
39616SOL    HW223534   8.339   9.820   6.003 -1.1066 -0.8450  1.3247
39617SOL     OW23535   6.527   5.708  10.230 -0.0936  0.1463  0.1584
39617SOL    HW123536   6.593   5.650  10.268 -0.0411  0.5802  0.7377
39617SOL    HW223537   6.561   5.729  10.143  0.4694  0.2605  0.4020
39618SOL     OW23538   1.983   4.793   8.917  0.7300  0.7164  0.7500
39618SOL    HW123539   1.985   4.758   8.828 -0.4227 -0.0574  0.9949
39618SOL    HW223540   2.059   4.756   8.960  1.7212  1.6940 -0.1022
39619SOL     OW23541   5.478   5.724   2.132  0.1393  0.1142 -0.3902
39619SOL    HW123542   5.404   5.664   2.127  0.2204 -0.1942  1.4686
39619SOL    HW223543   5.555   5.668   2.119  0.2182 -0.2541  1.3919
39620SOL     OW23544   0.852   1.691  11.608  0.4172  0.4455  0.8339
39620SOL    HW123545   0.909   1.762  11.578 -0.7815  1.2629  0.4346
39620SOL    HW223546   0.763   1.725  11.598 -0.2287 -1.3190  0.0818
39621SOL     OW23547   0.984   8.906   0.390 -0.6059  0.7176  0.1121
39621SOL    HW123548   0.973   8.942   0.477 -0.3137 -1.0294  0.9089
39621SOL    HW223549   1.067   8.859   0.393 -0.7057  0.4271 -1.0248
39622SOL     OW23550   6.422   1.183   9.092 -0.5128  0.1958  0.4099
39622SOL    HW123551   6.342   1.143   9.058  0.7045 -2.5903  0.4946
39622SOL    HW223552   6.480   1.108   9.110  2.5846  2.0835 -0.8558
39623SOL     OW23553   6.561   3.625   0.498  0.1712  0.0881  0.1599
39623SOL    HW123554   6.527   3.536   0.483 -0.5628  0.5165 -0.8132
39623SOL    HW223555   6.512   3.656   0.573 -0.0807 -0.0804  0.0702
39624SOL     OW23556   7.441   8.082   5.129  0.1337 -0.8158 -0.0094
39624SOL    HW123557   7.390   8.161   5.115  0.9626  0.0224  1.4310
39624SOL    HW223558   7.465   8.053   5.041 -0.7579  0.1366 -0.5856
39625SOL     OW23559   6.205   7.588   0.973 -0.0209 -0.1129  0.4320
39625SOL    HW123560   6.238   7.506   0.937  0.7902  0.9154 -1.3180
39625SOL    HW223561   6.237   7.590   1.063  2.0443 -0.6245 -0.2371
39626SOL     OW23562   8.852   9.854   2.800  0.6113  0.0555 -0.3736
39626SOL    HW123563   8.937   9.827   2.833  0.0753  0.0879  1.1296
39626SOL    HW223564   8.847   9.817   2.712  1.8254 -0.6598 -0.1601
39627SOL     OW23565   3.135   7.785   6.150  0.0645  0.3769  0.3603
39627SOL    HW123566   3.146   7.857   6.088 -0.3988  0.6166  0.5564
39627SOL    HW223567   3.053   7.803   6.195 -1.0596 -1.2493 -0.8796
39628SOL     OW23568   5.775   7.370  10.176  0.0580 -0.5069 -0.0908
39628SOL    HW123569   5.743   7.373  10.266 -0.0235 -1.7597 -0.0687
39628SOL    HW223570   5.870   7.361  10.185  0.0299 -0.8466 -0.1255
39629SOL     OW23571   0.697   9.932   0.302 -0.3824 -0.4390 -0.2101
39629SOL    HW123572   0.682   9.839   0.285 -1.8854 -0.7778  2.4213
39629SOL    HW223573   0.733   9.934   0.391 -0.1591  1.4927 -0.2992
39630SOL     OW23574   6.256   8.347   4.640  0.5920 -0.7123 -0.4842
39630SOL    HW123575   6.347   8.366   4.664 -0.0467  0.3324  1.3506
39630SOL    HW223576   6.221   8.301   4.717 -0.8552  0.3763 -0.4668
39631SOL     OW23577   7.823   0.071   2.307 -0.0046  0.5835 -0.5339
39631SOL    HW123578   7.885   0.051   2.376 -0.2223  0.1029 -0.4761
39631SOL    HW223579   7.824   0.167   2.301  0.6055  0.5862 -0.4151
39632SOL     OW23580   8.805   0.090   2.804  0.4025  0.0848 -0.6508
39632SOL    HW123581   8.730   0.139   2.769 -0.3876 -1.2482 -0.9020
39632SOL    HW223582   8.787   0.084   2.898  0.9092  0.9512 -0.4933
39633SOL     OW23583   2.525   4.443   9.606  0.6359  0.2369 -0.0479
39633SOL    HW123584   2.464   4.403   9.544  0.3584 -1.8054  1.4478
39633SOL    HW223585   2.484   4.430   9.692  2.6294 -0.1978  0.8895
39634SOL     OW23586   0.736  11.462   9.950  0.2232  0.0014  0.2501
39634SOL    HW123587   0.728  11.424   9.863 -1.1347 -0.1156  0.3943
39634SOL    HW223588   0.651  11.502   9.967  0.3629 -0.2101  1.6198
39635SOL     OW23589  11.224   5.321   6.823 -0.2216  0.7617  0.6836
39635SOL    HW123590  11.143   5.276   6.799 -0.8948  2.0494  0.4544
39635SOL    HW223591  11.287   5.293   6.757 -0.6523  0.2409  0.4837
39636SOL     OW23592   4.643  11.174   6.152 -0.4734  0.4249 -0.1181
39636SOL    HW123593   4.735  11.202   6.147 -0.4226  0.4201  0.6270
39636SOL    HW223594   4.598  11.247   6.196 -0.2833 -0.7104  2.1219
39637SOL     OW23595   8.352   0.853   1.240  0.1987 -0.8286  0.0679
39637SOL    HW123596   8.390   0.940   1.228 -0.1036 -0.3560  2.2030
39637SOL    HW223597   8.268   0.857   1.194  0.1571  0.0426  0.2017
39638SOL     OW23598   1.430   5.201   8.587  0.2759  0.3063 -0.8732
39638SOL    HW123599   1.364   5.183   8.520  0.5981  2.6460 -1.9055
39638SOL    HW223600   1.433   5.296   8.593  3.5193  0.3042 -0.8482
39639SOL     OW23601  10.070   8.021   0.486  0.0460 -0.0474 -0.4418
39639SOL    HW123602  10.041   7.938   0.525 -1.5060 -0.8693 -3.1486
39639SOL    HW223603  10.153   7.999   0.444  0.3290  0.1427  0.0099
39640SOL     OW23604  11.727   1.569   6.930 -0.1592  0.3674 -0.6277
39640SOL    HW123605  11.690   1.481   6.937 -1.6258  1.0474  0.5354
39640SOL    HW223606  11.682   1.608   6.855 -1.2023  0.8962  0.2570
39641SOL     OW23607   9.412   4.237   7.244  0.5514 -0.1092  0.0993
39641SOL    HW123608   9.349   4.220   7.174  0.4434  0.9379 -0.0657
39641SOL    HW223609   9.365   4.293   7.306  0.4498 -1.4868  1.3236
39642SOL     OW23610   0.194   3.710   2.820  0.9358  0.0095 -0.2212
39642SOL    HW123611   0.130   3.772   2.786  0.5959 -0.3533 -0.2471
39642SOL    HW223612   0.263   3.707   2.754  1.4928  1.1802  0.2868
39643SOL     OW23613  11.491   1.451   5.600  0.5499  0.1899  0.4094
39643SOL    HW123614  11.504   1.462   5.694  0.3072 -3.1136  0.9241
39643SOL    HW223615  11.543   1.374   5.577  1.1553  1.3086 -2.3445
39644SOL     OW23616  11.446   9.437   2.116 -0.0984  0.0418 -0.2959
39644SOL    HW123617  11.467   9.382   2.191  0.3707  0.0120 -0.4482
39644SOL    HW223618  11.436   9.375   2.044 -0.7896  0.0475 -0.2107
39645SOL     OW23619   2.747  10.677  11.214 -0.2383 -0.1517  0.2155
39645SOL    HW123620   2.682  10.745  11.230  0.6148  0.9961 -0.9686
39645SOL    HW223621   2.702  10.613  11.158 -0.7272 -0.0151  0.4527
39646SOL     OW23622   9.545  10.504   3.743  0.0159  0.4752 -0.4517
39646SOL    HW123623   9.602  10.448   3.690  1.0419  1.4111 -0.3816
39646SOL    HW223624   9.489  10.548   3.679 -0.4119 -0.1847 -0.5479
39647SOL     OW23625   7.530   5.430   3.090 -0.0044 -0.4182  0.2593
39647SOL    HW123626   7.498   5.511   3.129 -0.0820  0.3772 -1.3639
39647SOL    HW223627   7.451   5.386   3.058  0.2273  0.2259 -1.3038
39648SOL     OW23628   1.208   8.682   4.524 -0.1416 -0.7600 -0.0164
39648SOL    HW123629   1.160   8.760   4.550 -0.5348 -0.5437 -1.3117
39648SOL    HW223630   1.145   8.630   4.474  0.0324 -2.0464  1.0459
39649SOL     OW23631   1.981  11.784   8.245 -0.1994  0.1504  0.2914
39649SOL    HW123632   1.941  11.789   8.331  0.4417  0.0785  0.5953
39649SOL    HW223633   1.994  11.690   8.230  0.9006  0.2291  0.6870
39650SOL     OW23634   6.897   6.449  11.090  0.3784 -0.4032 -0.2729
39650SOL    HW123635   6.904   6.473  10.997  0.2874 -0.8537 -0.4009
39650SOL    HW223636   6.939   6.363  11.095  2.3821  0.5560  0.5193
39651SOL     OW23637   7.054   5.346   4.316  0.3210 -0.0219  0.3315
39651SOL    HW123638   7.042   5.331   4.410 -1.3270 -2.8751 -0.2150
39651SOL    HW223639   7.067   5.259   4.279 -1.2967  0.7369 -2.3147
39652SOL     OW23640   5.241  10.107   9.145  0.4439  0.0730 -0.1431
39652SOL    HW123641   5.162  10.104   9.199  1.0587 -0.2411  0.7581
39652SOL    HW223642   5.297  10.038   9.180  0.8066 -0.2364 -1.2848
39653SOL     OW23643  10.163   3.450   7.118  0.3364 -0.4188  0.3718
39653SOL    HW123644  10.219   3.440   7.196  1.3696  1.2277 -0.1141
39653SOL    HW223645  10.085   3.494   7.151  0.9044  0.5630  0.4654
39654SOL     OW23646   8.809   2.792   8.476  0.0834  0.1845 -0.0805
39654SOL    HW123647   8.768   2.789   8.390  1.1766 -2.6958 -0.5909
39654SOL    HW223648   8.741   2.826   8.534 -1.3578  0.1979 -1.7133
39655SOL     OW23649   2.085   4.152  11.024  0.3597 -0.0014 -0.7329
39655SOL    HW123650   2.070   4.129  11.116  0.5703  2.2364 -0.0896
39655SOL    HW223651   2.104   4.068  10.982  3.2084 -0.8747  1.8320
39656SOL     OW23652   5.568   3.589  10.587  0.7689 -0.2163 -0.4006
39656SOL    HW123653   5.632   3.551  10.526 -0.1741  1.3378 -2.4822
39656SOL    HW223654   5.560   3.680  10.559  0.1800  0.5538  2.0302
39657SOL     OW23655  11.860   5.404  10.839 -0.4076  0.0911 -0.1038
39657SOL    HW123656  11.842   5.455  10.760 -2.8330  1.1420  1.0260
39657SOL    HW223657  11.907   5.326  10.807  0.3976  1.3817 -2.2932
39658SOL     OW23658   3.304   6.092   3.583  0.0013 -0.1763  0.7198
39658SOL    HW123659   3.273   6.154   3.517  0.9081 -1.7891 -1.3551
39658SOL    HW223660   3.225   6.055   3.621 -0.5576  0.6149  0.3401
39659SOL     OW23661   8.258   4.389  10.968  0.4470 -0.1766 -0.2089
39659SOL    HW123662   8.243   4.358  10.879 -0.1115  1.8631 -0.8910
39659SOL    HW223663   8.172   4.382  11.010  0.4911 -0.2237 -0.1246
39660SOL     OW23664   4.175   5.040   8.945 -0.3360 -0.0392  0.4752
39660SOL    HW123665   4.191   5.133   8.961 -0.6431 -0.1227  1.3077
39660SOL    HW223666   4.085   5.025   8.974 -0.6995 -0.3554 -0.7456
39661SOL     OW23667   7.161   6.577   1.209  0.2259  0.0720 -0.0483
39661SOL    HW123668   7.123   6.628   1.281 -0.8325 -0.1753 -0.4111
39661SOL    HW223669   7.185   6.494   1.249 -3.2595 -1.3347 -0.4905
39662SOL     OW23670   3.916  10.156   6.341 -0.0734  0.6330  0.0030
39662SOL    HW123671   3.926  10.251   6.341 -1.4565  0.8041  0.3509
39662SOL    HW223672   3.979  10.124   6.405 -1.3065  1.5539  1.7463
39663SOL     OW23673  11.701   1.251   5.810  0.2697 -0.1557 -0.5032
39663SOL    HW123674  11.713   1.275   5.718  1.8208  0.8262 -0.0840
39663SOL    HW223675  11.611   1.218   5.814 -0.3619  1.2101 -2.0670
39664SOL     OW23676   1.276   2.963   6.820  0.8848  0.5434  0.0105
39664SOL    HW123677   1.297   2.955   6.727 -1.0768 -3.5285 -0.3302
39664SOL    HW223678   1.339   2.905   6.864 -0.4225 -0.4277  0.6917
39665SOL     OW23679   5.227   8.212   4.156 -0.4048  0.6938  0.7281
39665SOL    HW123680   5.171   8.243   4.227 -0.9248  1.1093  0.1473
39665SOL    HW223681   5.311   8.256   4.171 -0.4023  0.5132  1.2758
39666SOL     OW23682   3.333   9.543   1.430 -0.3832 -0.1138 -0.9720
39666SOL    HW123683   3.321   9.615   1.492 -0.3662 -0.6325 -0.3552
39666SOL    HW223684   3.416   9.562   1.386  0.2521 -0.3940  0.0703
39667SOL     OW23685   2.969   8.173   0.170 -0.6990 -0.4965  0.2250
39667SOL    HW123686   2.990   8.202   0.258 -1.2732  0.6549 -0.0031
39667SOL    HW223687   2.898   8.110   0.181  0.6141 -1.9683  0.7298
39668SOL     OW23688   9.983   0.669  10.796  0.0233  0.0972 -0.2993
39668SOL    HW123689  10.036   0.736  10.839  1.9541 -1.0382 -0.7981
39668SOL    HW223690   9.909   0.717  10.759  1.0756  1.8738 -0.2185
39669SOL     OW23691   2.677  11.831   5.858 -0.5777 -0.6230  0.2090
39669SOL    HW123692   2.609  11.764   5.848  0.7476 -1.9448 -0.3915
39669SOL    HW223693   2.683  11.871   5.771  0.9569 -2.1231 -0.4391
39670SOL     OW23694   4.921   6.829   5.878 -0.2820  0.4852  0.1038
39670SOL    HW123695   4.909   6.746   5.924 -0.0711 -0.2382 -1.1149
39670SOL    HW223696   5.015   6.831   5.858 -0.4179  0.6517 -0.5382
39671SOL     OW23697   5.138  11.994   1.805 -0.2078 -0.4464  0.2515
39671SOL    HW123698   5.113  11.996   1.897 -0.6757 -0.8739  0.1388
39671SOL    HW223699   5.233  12.004   1.805 -0.2270 -0.2709  0.7717
39672SOL     OW23700  10.356   3.124   6.158  0.2682  0.1738  0.0208
39672SOL    HW123701  10.385   3.094   6.072 -0.5703  0.9782 -0.5604
39672SOL    HW223702  10.331   3.044   6.204  1.2083 -0.3094 -0.2904
39673SOL     OW23703   9.237   1.436   5.464 -0.3849  0.0704 -0.1146
39673SOL    HW123704   9.181   1.380   5.518  1.6491 -0.4820  1.5491
39673SOL    HW223705   9.288   1.375   5.411  0.3274  0.4112  0.1547
39674SOL     OW23706   9.851   3.000  10.741 -0.4734  0.1349  0.8343
39674SOL    HW123707   9.879   2.952  10.663 -0.0377 -0.0133  1.0756
39674SOL    HW223708   9.903   3.081  10.739 -1.1744  0.5863  0.4523
39675SOL     OW23709   9.569  11.633  11.199  0.2249 -0.5682  0.2980
39675SOL    HW123710   9.612  11.567  11.146  0.6417 -1.0884  1.2676
39675SOL    HW223711   9.636  11.662  11.261 -0.1548  0.2652  0.3307
39676SOL     OW23712   4.626   9.398   0.828 -0.3266 -0.1306 -0.2283
39676SOL    HW123713   4.697   9.339   0.855 -0.5668 -0.1930  0.2996
39676SOL    HW223714   4.551   9.369   0.880 -0.3563  0.8780  0.3179
39677SOL     OW23715   9.378   3.238   6.435 -0.1225  0.1638  0.5723
39677SOL    HW123716   9.457   3.210   6.482 -0.3737  1.1387  1.5980
39677SOL    HW223717   9.310   3.238   6.501 -1.1247 -1.1147 -0.4025
39678SOL     OW23718   2.456   1.044  11.356  0.3288  0.4791  0.0097
39678SOL    HW123719   2.539   1.062  11.312  0.6005 -0.4066  0.1396
39678SOL    HW223720   2.454   1.105  11.429  1.1501  0.1143  0.3480
39679SOL     OW23721   9.133   6.229   4.118  0.1126 -0.4557 -0.8760
39679SOL    HW123722   9.114   6.150   4.068 -2.5616 -1.4062  1.4038
39679SOL    HW223723   9.086   6.299   4.071 -2.0041 -1.2511 -0.0615
39680SOL     OW23724   1.576  10.630   1.065  0.0701  0.3087  0.3977
39680SOL    HW123725   1.573  10.550   1.118  0.4418 -0.9152 -1.3513
39680SOL    HW223726   1.511  10.615   0.996  0.1845  1.5113  0.0062
39681SOL     OW23727   0.839   2.590   3.211 -0.0145  0.1675  0.1196
39681SOL    HW123728   0.860   2.678   3.180  0.8905 -0.3241 -0.7383
39681SOL    HW223729   0.923   2.554   3.240 -0.3673 -0.4217  0.4343
39682SOL     OW23730   4.487   3.950   4.801 -0.1158  0.3044 -0.2805
39682SOL    HW123731   4.487   4.003   4.881 -0.3424  1.1028 -0.8015
39682SOL    HW223732   4.547   3.878   4.821 -1.2416 -0.3088  1.1207
39683SOL     OW23733   7.486  11.728  11.943 -0.2087 -0.7644 -0.2818
39683SOL    HW123734   7.456  11.786  12.013 -2.6141 -0.4231 -1.4973
39683SOL    HW223735   7.580  11.720  11.957 -0.5412 -0.5413  2.8394
39684SOL     OW23736  10.304   9.112   1.747 -0.0671  0.1273  0.7291
39684SOL    HW123737  10.209   9.110   1.744 -0.0505 -0.0768  0.0111
39684SOL    HW223738  10.328   9.050   1.816 -0.4419 -0.3254  0.4608
39685SOL     OW23739   0.629   3.950  10.035 -0.1261  0.3346  0.0164
39685SOL    HW123740   0.567   4.023  10.035  1.7718  2.0633  1.4281
39685SOL    HW223741   0.663   3.948   9.946 -0.6222  0.7731 -0.1918
39686SOL     OW23742   4.380   8.629   4.667 -0.0153 -0.3746 -0.3305
39686SOL    HW123743   4.441   8.693   4.629 -0.4612  0.3373  0.1351
39686SOL    HW223744   4.435   8.554   4.690  0.0506 -1.7015 -4.1246
39687SOL     OW23745   7.795   8.345   2.261 -0.1684  0.3424  0.0774
39687SOL    HW123746   7.821   8.259   2.228  0.3319  1.0662 -1.4989
39687SOL    HW223747   7.738   8.381   2.192 -1.0203  0.9580  1.0772
39688SOL     OW23748  10.473   9.284   8.726  0.0689  0.8309 -0.6553
39688SOL    HW123749  10.518   9.308   8.645  1.9629 -2.5739 -0.8470
39688SOL    HW223750  10.537   9.228   8.772 -2.3150 -0.4305  1.3488
39689SOL     OW23751  11.117   0.819   1.730  0.1485  0.0277 -0.2626
39689SOL    HW123752  11.197   0.765   1.724  1.3608  1.5820  1.1158
39689SOL    HW223753  11.132   0.877   1.804 -2.7699 -0.3507  0.7440
39690SOL     OW23754  11.718   9.080  11.217 -0.1329 -0.3312 -0.3490
39690SOL    HW123755  11.779   9.154  11.211 -0.2425  0.1108  2.5951
39690SOL    HW223756  11.639   9.111  11.172  0.9221  0.0318 -2.0478
39691SOL     OW23757   5.560   4.709   9.887  0.1759 -0.2933  0.5982
39691SOL    HW123758   5.654   4.724   9.899  0.7191 -2.2790 -0.6628
39691SOL    HW223759   5.545   4.729   9.795 -0.7307  0.3050  0.8659
39692SOL     OW23760  11.007   2.747  11.472  0.1683 -0.4867  0.0642
39692SOL    HW123761  10.981   2.666  11.515 -1.0292  0.2740  0.8216
39692SOL    HW223762  11.101   2.755  11.492  0.9034 -2.8217 -1.9759
39693SOL     OW23763   7.470   2.238   9.985 -0.0242 -0.2769 -0.1611
39693SOL    HW123764   7.452   2.145   9.995  2.0157 -0.5924  1.2051
39693SOL    HW223765   7.477   2.252   9.891 -1.4157 -1.2572 -0.4320
39694SOL     OW23766   1.348   5.852   5.855 -0.2881 -0.0527 -0.1194
39694SOL    HW123767   1.368   5.927   5.911 -1.8275 -1.3925  2.4307
39694SOL    HW223768   1.433   5.821   5.823  0.4847  1.8111  0.0402
39695SOL     OW23769   1.723   4.690   6.743 -0.5733 -0.2369 -0.2713
39695SOL    HW123770   1.629   4.682   6.759 -0.4754  1.9765  1.9569
39695SOL    HW223771   1.763   4.652   6.821  0.3145  0.5604 -0.3303
39696SOL     OW23772   9.931   1.493   0.938  0.5958  0.2382 -0.3587
39696SOL    HW123773   9.982   1.483   0.858  1.4390 -1.6305  0.3405
39696SOL    HW223774   9.959   1.420   0.993 -2.4580 -0.5537  0.3132
39697SOL     OW23775   8.235   8.164   3.809  0.2848  0.1236  0.2349
39697SOL    HW123776   8.210   8.135   3.897  0.5967  1.8414  0.9403
39697SOL    HW223777   8.284   8.090   3.773 -0.0350 -0.7058  1.4252
39698SOL     OW23778   5.542   4.452   7.879  0.4086  0.0139 -0.3411
39698SOL    HW123779   5.531   4.438   7.785 -0.6602  0.9643 -0.3752
39698SOL    HW223780   5.456   4.430   7.916  0.9993 -0.9403  0.4957
39699SOL     OW23781   0.796   3.000   0.655 -0.1491 -0.2596  0.4077
39699SOL    HW123782   0.891   2.997   0.640 -0.2942  1.1355 -0.9427
39699SOL    HW223783   0.761   2.929   0.602  0.1370 -0.8660  1.0144
39700SOL     OW23784   8.180   2.637   7.139 -0.4609  0.0292  0.0573
39700SOL    HW123785   8.257   2.606   7.187  0.5267  2.1281 -0.0748
39700SOL    HW223786   8.207   2.636   7.047  0.5059  3.3076  0.1707
39701SOL     OW23787   1.024   5.195   3.096 -0.2167 -0.2442 -0.1382
39701SOL    HW123788   0.965   5.266   3.121 -1.6530 -1.3677 -0.1908
39701SOL    HW223789   1.096   5.238   3.051 -2.4097  0.9928 -2.7240
39702SOL     OW23790   6.827   9.204   0.154  0.2035 -0.3598  0.4822
39702SOL    HW123791   6.780   9.264   0.212  1.1882  2.9821 -1.9297
39702SOL    HW223792   6.758   9.154   0.110 -0.6350 -1.0595  2.4597
39703SOL     OW23793   0.594   2.194  10.220  0.4264 -0.1885 -0.2226
39703SOL    HW123794   0.595   2.289  10.230  0.9430 -0.3590  1.7030
39703SOL    HW223795   0.576   2.180  10.127  0.3034  1.7789 -0.5368
39704SOL     OW23796   3.410  10.278   3.126  0.5328 -0.0404  0.2278
39704SOL    HW123797   3.420  10.187   3.155 -0.0210 -0.0214  0.4792
39704SOL    HW223798   3.500  10.311   3.121  0.6658 -0.1816  1.4915
39705SOL     OW23799   5.530   7.813   4.775  0.5244  0.0260  0.3411
39705SOL    HW123800   5.496   7.902   4.771 -0.2448 -0.2052  1.4266
39705SOL    HW223801   5.578   7.809   4.858  2.9610  0.2301 -0.9737
39706SOL     OW23802   8.111   7.995   5.299 -1.0892  0.5870 -0.3525
39706SOL    HW123803   8.117   8.006   5.393 -0.7037  2.1027 -0.5346
39706SOL    HW223804   8.133   7.903   5.284  1.7980  1.0115  0.7913
39707SOL     OW23805   0.398   5.809   4.238  0.1898 -0.0419 -0.4392
39707SOL    HW123806   0.397   5.872   4.310 -0.5380 -1.6711  1.0462
39707SOL    HW223807   0.437   5.730   4.276 -1.8830 -1.5503 -1.2641
39708SOL     OW23808   4.344   8.910  11.552 -0.2753  0.1874  0.4088
39708SOL    HW123809   4.425   8.883  11.509 -0.8436  0.0899 -0.6344
39708SOL    HW223810   4.281   8.921  11.481 -1.1972  0.2152  1.1976
39709SOL     OW23811   1.139  10.134   0.440  0.4736 -0.3301 -0.3584
39709SOL    HW123812   1.110  10.100   0.525 -1.9143  0.5077 -0.7348
39709SOL    HW223813   1.103  10.073   0.376  1.4440 -0.4378 -0.8173
39710SOL     OW23814   9.886   6.185   2.232 -0.1758  0.0574  0.4850
39710SOL    HW123815   9.920   6.162   2.319 -0.9086 -3.9452 -0.0726
39710SOL    HW223816   9.962   6.179   2.175 -0.6303 -3.9878  0.0035
39711SOL     OW23817  11.588  10.909   1.698 -0.6605 -0.3369 -0.3348
39711SOL    HW123818  11.615  10.827   1.655  0.4565  0.4591 -1.2297
39711SOL    HW223819  11.624  10.978   1.641 -2.8751  0.8020 -0.4369
39712SOL     OW23820  11.975   2.816   1.854 -0.4192 -0.6295 -0.5235
39712SOL    HW123821  11.946   2.726   1.842 -2.2452 -0.1554 -0.0181
39712SOL    HW223822  11.897   2.869   1.836 -0.9446  0.5810  3.8966
39713SOL     OW23823   4.334   0.568   0.524  0.1536 -0.2242  0.5999
39713SOL    HW123824   4.254   0.560   0.472  0.7159 -0.9668 -0.1852
39713SOL    HW223825   4.399   0.517   0.475  0.6493 -1.1423  2.1657
39714SOL     OW23826   4.345   5.238   8.421  0.3566  0.3394 -0.4680
39714SOL    HW123827   4.280   5.195   8.476  0.1600  0.7648 -0.3595
39714SOL    HW223828   4.414   5.173   8.408 -0.6528 -0.5507 -1.5858
39715SOL     OW23829   5.383   1.106   3.787  0.3698  0.0891  0.1472
39715SOL    HW123830   5.362   1.186   3.738  2.2027 -0.0276 -0.9150
39715SOL    HW223831   5.299   1.060   3.794 -0.4443  1.3959 -0.5265
39716SOL     OW23832   8.309   3.514   7.737 -0.3944 -0.3755 -0.6859
39716SOL    HW123833   8.219   3.483   7.751 -0.0022 -0.9618  0.6118
39716SOL    HW223834   8.363   3.460   7.794  0.6034  1.0552 -0.2048
39717SOL     OW23835   2.956   9.642   6.343  0.2318 -0.1835 -0.9125
39717SOL    HW123836   2.900   9.600   6.408 -1.1854  0.8317 -1.4243
39717SOL    HW223837   3.010   9.702   6.394  1.4480 -1.7104 -0.3211
39718SOL     OW23838   7.979   4.665  10.037  0.0496  0.2431  0.3534
39718SOL    HW123839   8.038   4.593  10.014 -0.8323 -0.5926  0.6240
39718SOL    HW223840   7.911   4.662   9.971 -0.4581  0.2670  0.8676
39719SOL     OW23841   3.059   6.813   9.553  0.1905 -0.1164  0.1615
39719SOL    HW123842   3.069   6.725   9.516  0.6616  0.2356 -0.5600
39719SOL    HW223843   3.057   6.871   9.477  0.1865  0.5327  0.6504
39720SOL     OW23844   4.294   3.356   2.587 -0.0618 -0.4544 -0.5325
39720SOL    HW123845   4.236   3.355   2.510  1.3864  0.9355 -1.7051
39720SOL    HW223846   4.259   3.288   2.644 -2.9969  0.4521 -1.0735
39721SOL     OW23847   4.417   5.621  10.296 -0.4565 -0.2332  0.0491
39721SOL    HW123848   4.365   5.699  10.274 -0.6928 -0.3942  0.0377
39721SOL    HW223849   4.452   5.591  10.212  0.4916  0.4634  0.1774
39722SOL     OW23850   6.132   7.112   7.175 -0.2789  0.3347  0.0797
39722SOL    HW123851   6.148   7.121   7.081 -0.9709 -0.9686 -0.1843
39722SOL    HW223852   6.214   7.076   7.209 -0.8047 -1.4384 -0.4346
39723SOL     OW23853   1.386   8.580   2.793 -0.1542 -0.8022  0.2768
39723SOL    HW123854   1.408   8.569   2.886  0.0226  0.2019  0.3643
39723SOL    HW223855   1.293   8.600   2.793  0.0222  0.0671  0.3198
39724SOL     OW23856  10.434   1.486  10.749  0.0130  0.6348  0.8922
39724SOL    HW123857  10.417   1.426  10.677 -0.9229 -0.3592  1.8903
39724SOL    HW223858  10.463   1.430  10.821  0.5281  1.5461  1.4242
39725SOL     OW23859   1.689   5.022   1.041  0.5468 -0.0162  0.6430
39725SOL    HW123860   1.620   5.024   0.975 -1.7459 -2.1403  2.7168
39725SOL    HW223861   1.649   5.063   1.118  1.7389 -0.9211  1.7855
39726SOL     OW23862   4.104   4.674  11.850  0.6490 -0.7488 -0.3418
39726SOL    HW123863   4.168   4.720  11.904 -0.9483  0.1181  0.9377
39726SOL    HW223864   4.025   4.729  11.856 -0.8785 -2.8680  0.0136
39727SOL     OW23865   4.913   2.327   0.226  0.1604  0.4165  0.1963
39727SOL    HW123866   4.822   2.351   0.241  0.1447  0.5075 -0.0458
39727SOL    HW223867   4.942   2.385   0.156 -0.0013 -0.5646 -0.7037
39728SOL     OW23868   6.428  10.062  11.393 -0.3332 -0.0309 -0.1958
39728SOL    HW123869   6.455   9.984  11.441  0.4621  0.6015  0.4188
39728SOL    HW223870   6.489  10.066  11.319 -0.2297  0.1208 -0.1033
39729SOL     OW23871   6.464  11.623   2.201  0.2559 -0.5092  0.0057
39729SOL    HW123872   6.474  11.655   2.111  0.6653 -0.2207  0.1521
39729SOL    HW223873   6.518  11.681   2.254  0.1766 -0.7999  0.4153
39730SOL     OW23874   1.013   6.670   5.580  0.4283 -0.0302 -0.1924
39730SOL    HW123875   0.923   6.657   5.548 -0.0455  0.5218  0.8793
39730SOL    HW223876   1.041   6.751   5.539 -0.6572  1.3916  1.7387
39731SOL     OW23877  10.525   6.365   1.090 -0.5510  0.2639 -0.3041
39731SOL    HW123878  10.522   6.285   1.142  0.8927 -0.6066 -1.4733
39731SOL    HW223879  10.483   6.342   1.007  1.6392  0.0284 -1.4233
39732SOL     OW23880   7.001   9.179   7.184  0.1467  0.3757  0.3053
39732SOL    HW123881   7.053   9.259   7.177  0.2842  0.1649 -1.7430
39732SOL    HW223882   6.963   9.168   7.097 -1.9901 -0.3966  1.2603
39733SOL     OW23883   7.010   2.304   0.748  0.3734  0.0357  0.1452
39733SOL    HW123884   6.994   2.217   0.712 -0.9364  0.4851 -0.3934
39733SOL    HW223885   6.988   2.296   0.841 -1.5281  0.2103 -0.2468
39734SOL     OW23886   4.984   3.422   0.294 -0.3588 -0.1951  0.3956
39734SOL    HW123887   5.020   3.394   0.378  1.3517 -0.4130 -0.3729
39734SOL    HW223888   5.040   3.379   0.228 -2.2388 -0.8395 -0.8896
39735SOL     OW23889   1.614   4.377   3.310  0.1104 -1.1972 -0.1469
39735SOL    HW123890   1.589   4.298   3.261 -0.3965 -0.6847 -0.7349
39735SOL    HW223891   1.535   4.401   3.359  0.1053 -0.7731 -0.3575
39736SOL     OW23892   4.405   9.102  10.216 -0.4131  0.1946  0.2142
39736SOL    HW123893   4.489   9.072  10.251 -0.6878 -0.0161  0.7091
39736SOL    HW223894   4.341   9.038  10.249 -1.1334  1.7496  1.9971
39737SOL     OW23895   6.221   3.214   0.508 -0.1412  0.4669 -0.3925
39737SOL    HW123896   6.271   3.156   0.565  0.0505  1.3722  0.3900
39737SOL    HW223897   6.158   3.157   0.465  1.6555 -0.7364 -1.5561
39738SOL     OW23898  10.437   4.465   3.180  0.3975 -0.2314  0.1485
39738SOL    HW123899  10.502   4.485   3.114  0.4597  0.5828  0.4545
39738SOL    HW223900  10.463   4.516   3.256  1.1065 -2.1547  1.2877
39739SOL     OW23901  10.753   6.423  11.389 -0.2943 -0.5307 -0.3244
39739SOL    HW123902  10.829   6.378  11.427 -0.3194 -0.5315 -0.2757
39739SOL    HW223903  10.786   6.510  11.367 -1.2422  0.9566  3.4009
39740SOL     OW23904   1.587   3.432   3.161  0.0018 -0.3110 -0.4357
39740SOL    HW123905   1.561   3.465   3.247 -1.0851 -1.8062 -0.1365
39740SOL    HW223906   1.525   3.361   3.144  2.4475 -2.5251 -0.7887
39741SOL     OW23907  11.323   6.749   2.905 -0.0281 -0.9503 -0.1282
39741SOL    HW123908  11.418   6.736   2.908  0.3954  1.3128 -1.2757
39741SOL    HW223909  11.310   6.809   2.831 -2.2481 -0.3305  0.6945
39742SOL     OW23910   4.272   0.137   1.478 -0.3888  0.0085 -0.2703
39742SOL    HW123911   4.219   0.213   1.501 -0.9702  0.4949 -2.8406
39742SOL    HW223912   4.362   0.164   1.496 -0.7763  0.2441  1.4448
39743SOL     OW23913  11.586   9.712   7.850 -0.2575  0.6255 -0.1320
39743SOL    HW123914  11.681   9.725   7.856 -0.1691 -0.3394  0.9657
39743SOL    HW223915  11.573   9.663   7.769  0.4745 -1.3859  0.9031
39744SOL     OW23916   6.538   0.941   6.831  0.7620 -0.0696 -0.5819
39744SOL    HW123917   6.506   0.869   6.885  2.6781 -2.3073 -2.2473
39744SOL    HW223918   6.620   0.967   6.874  0.8353  0.0989 -0.8237
39745SOL     OW23919   5.964   7.479   4.858 -0.1748 -0.3138 -0.0119
39745SOL    HW123920   5.870   7.500   4.866 -0.2318  0.5349 -2.2277
39745SOL    HW223921   5.974   7.450   4.767  1.9998  1.3888 -0.3958
39746SOL     OW23922   2.868   0.016   5.395  0.2959  0.0524  0.6470
39746SOL    HW123923   2.800  -0.000   5.330  2.4756 -0.8486 -1.5488
39746SOL    HW223924   2.869   0.111   5.406 -1.7590  0.0553  1.3537
39747SOL     OW23925  11.173   2.338   0.229 -0.4575 -0.1050  0.3302
39747SOL    HW123926  11.191   2.347   0.135  0.7593 -2.4039  0.2698
39747SOL    HW223927  11.084   2.373   0.239 -0.4043  0.7363 -1.5478
39748SOL     OW23928   5.028   4.261   2.460 -0.6259 -0.2519  0.1282
39748SOL    HW123929   5.056   4.296   2.544 -0.8162 -2.8454  1.3657
39748SOL    HW223930   5.097   4.287   2.398 -0.1501  1.1297  1.1997
39749SOL     OW23931  11.572   9.040   1.792  0.0095 -0.1946  0.7112
39749SOL    HW123932  11.548   9.025   1.700  3.5555  0.8354 -0.5218
39749SOL    HW223933  11.583   8.952   1.828 -0.9350 -0.6054  0.0664
39750SOL     OW23934   2.118   5.883   4.977  0.5068 -0.4691 -0.1312
39750SOL    HW123935   2.165   5.868   4.895  1.0352 -0.6900  0.2122
39750SOL    HW223936   2.171   5.840   5.044  0.8630  0.9866  0.5533
39751SOL     OW23937  10.482   6.697   6.615  0.1328  0.2345  0.3067
39751SOL    HW123938  10.507   6.722   6.526 -0.6679 -0.3333 -0.0903
39751SOL    HW223939  10.498   6.603   6.620  2.7697  0.6682  1.6744
39752SOL     OW23940   7.941   3.015   5.739 -0.1734  0.5991 -0.1089
39752SOL    HW123941   7.955   3.097   5.691  0.9696 -0.1684 -1.1455
39752SOL    HW223942   8.028   2.975   5.745 -0.8606 -1.0889 -0.6876
39753SOL     OW23943   1.646   4.181  10.734 -0.1209  0.3073  0.0649
39753SOL    HW123944   1.644   4.123  10.659  2.3816 -0.7264  0.6723
39753SOL    HW223945   1.594   4.137  10.801  0.8319 -0.7515  0.1444
39754SOL     OW23946   9.535   8.794   7.854  0.1309 -0.1421 -0.6989
39754SOL    HW123947   9.483   8.875   7.857 -1.1043 -0.9166  0.0978
39754SOL    HW223948   9.564   8.782   7.945 -0.9461 -1.3342 -0.4807
39755SOL     OW23949   3.442  11.549   6.013  0.2850 -0.2449  0.3552
39755SOL    HW123950   3.410  11.636   6.036 -0.7160 -0.0537 -1.5130
39755SOL    HW223951   3.464  11.555   5.920 -2.1508 -2.5745 -0.5071
39756SOL     OW23952   6.750   8.924   0.288  0.3073  0.1288  0.0813
39756SOL    HW123953   6.766   8.862   0.216  0.8337 -0.1577  0.4383
39756SOL    HW223954   6.718   9.003   0.245 -0.4327 -0.4070 -0.3783
39757SOL     OW23955   2.159   0.949   4.419  1.0888  0.7322 -0.1342
39757SOL    HW123956   2.120   1.036   4.408  0.2540  0.2678 -0.9563
39757SOL    HW223957   2.232   0.964   4.479  1.0800  2.0355 -0.4094
39758SOL     OW23958   6.013   9.450   5.233 -0.7701 -0.6168 -0.0179
39758SOL    HW123959   5.929   9.480   5.268  0.3119  1.2789  1.1484
39758SOL    HW223960   6.046   9.524   5.181  0.0505 -1.4308 -0.7023
39759SOL     OW23961   7.773   1.360  10.360  0.2372 -0.4174  0.0613
39759SOL    HW123962   7.805   1.425  10.423  1.6225 -0.5427 -0.4904
39759SOL    HW223963   7.687   1.335  10.394  0.7486 -0.1448  1.6606
39760SOL     OW23964   3.763   3.265   9.314  0.2132 -0.3525 -0.1723
39760SOL    HW123965   3.701   3.298   9.249  0.1408  3.1208  1.4380
39760SOL    HW223966   3.712   3.259   9.395  1.6492  1.7033  0.9733
39761SOL     OW23967   3.403   9.770   9.055 -0.1076  0.3424  0.4180
39761SOL    HW123968   3.485   9.725   9.037 -1.6176 -2.1719 -0.7833
39761SOL    HW223969   3.376   9.806   8.970 -0.7758  0.1709  0.5531
39762SOL     OW23970   1.631   4.464   1.139 -0.3119 -0.6388  0.8002
39762SOL    HW123971   1.543   4.483   1.170 -0.5002 -0.6940  0.3173
39762SOL    HW223972   1.661   4.391   1.194 -0.5370 -0.5665  1.0199
39763SOL     OW23973   7.805   8.743   3.237  0.0142  0.6497 -0.3966
39763SOL    HW123974   7.900   8.756   3.229  0.3838 -0.8894  0.9019
39763SOL    HW223975   7.769   8.832   3.239  1.2555  1.2554 -2.4510
39764SOL     OW23976  10.920   0.197   0.064  0.1512  0.4254 -0.7011
39764SOL    HW123977  10.960   0.123   0.110  0.2503  1.6005  1.2357
39764SOL    HW223978  10.921   0.171  -0.028  1.0671 -1.5547 -0.2045
39765SOL     OW23979   8.532   1.591   6.536  0.4211 -0.5060  0.2306
39765SOL    HW123980   8.524   1.680   6.572 -0.6083  0.5006 -2.2225
39765SOL    HW223981   8.446   1.551   6.552  0.1992 -0.3056 -0.4095
39766SOL     OW23982   2.913   6.018   8.783  0.1714  0.5194  0.1965
39766SOL    HW123983   2.844   6.071   8.743 -0.1498  0.5327  0.7684
39766SOL    HW223984   2.866   5.950   8.832  0.5506 -1.1603 -1.6107
39767SOL     OW23985   4.556   5.042   1.930  0.8597 -0.2044  0.0442
39767SOL    HW123986   4.528   5.057   2.021  1.9940  1.0732  0.2021
39767SOL    HW223987   4.484   4.991   1.892 -0.1803  0.2376  1.3228
39768SOL     OW23988   1.110   2.745   4.181  0.0838  0.1091  0.0829
39768SOL    HW123989   1.116   2.838   4.159  0.6111  0.5884  2.0403
39768SOL    HW223990   1.022   2.734   4.216  0.0133 -0.1430 -0.1684
39769SOL     OW23991   5.709   4.800   3.493  0.3631  0.1860  0.2558
39769SOL    HW123992   5.691   4.789   3.400 -0.0570  0.7850  0.2576
39769SOL    HW223993   5.729   4.712   3.524  1.3820  0.1090 -0.5693
39770SOL     OW23994   5.161   2.223   1.234 -0.3261 -0.2033 -0.6691
39770SOL    HW123995   5.090   2.177   1.190  1.0347 -2.6117 -0.5455
39770SOL    HW223996   5.241   2.182   1.200  0.9942  1.7304 -0.0959
39771SOL     OW23997   7.611   5.354   3.974  0.2196 -0.1695  0.0611
39771SOL    HW123998   7.606   5.259   3.971  0.9088 -0.1902 -0.7640
39771SOL    HW223999   7.638   5.374   4.064  0.2468 -0.7615  0.1843
39772SOL     OW24000  11.712   8.406   2.096  0.2187 -0.5942  0.3365
39772SOL    HW124001  11.666   8.468   2.040 -1.2864 -0.7197  1.3775
39772SOL    HW224002  11.765   8.461   2.154  0.8204 -0.4117 -0.3805
39773SOL     OW24003   1.458  10.013  10.518 -0.3078 -0.2649  0.4727
39773SOL    HW124004   1.528   9.964  10.476 -0.6498 -0.2729 -0.0956
39773SOL    HW224005   1.464   9.988  10.611 -1.3797 -2.5235 -0.0036
39774SOL     OW24006   8.009  10.333   8.271  0.2394 -0.2210 -0.6713
39774SOL    HW124007   8.068  10.287   8.330  0.9115  2.4338  0.8999
39774SOL    HW224008   7.923  10.293   8.288  0.9200 -1.4833 -0.0629
39775SOL     OW24009   8.386   1.497  10.536  0.4677  0.5350  0.4424
39775SOL    HW124010   8.450   1.530  10.599  1.0855 -1.3071  0.8556
39775SOL    HW224011   8.301   1.523  10.572  0.8581  0.3915  1.5209
39776SOL     OW24012   3.633   4.559   7.494  0.2922  0.1222  0.1840
39776SOL    HW124013   3.645   4.550   7.400 -1.0201  1.3250 -0.1227
39776SOL    HW224014   3.539   4.551   7.508  0.6730 -3.1299  1.7927
39777SOL     OW24015   6.641  11.355   1.537  0.5801 -0.1346  0.0105
39777SOL    HW124016   6.688  11.321   1.613  1.6512 -1.8044 -1.3080
39777SOL    HW224017   6.709  11.396   1.483 -0.0340  0.3536 -0.4112
39778SOL     OW24018   8.113   9.591   2.195  0.0097  0.5360 -0.0419
39778SOL    HW124019   8.174   9.606   2.123  1.3194 -0.8431  0.7394
39778SOL    HW224020   8.027   9.613   2.158  0.4942 -1.2617 -2.4187
39779SOL     OW24021   8.945   0.796   2.782  0.6290  0.1406  0.5583
39779SOL    HW124022   9.005   0.743   2.729 -2.0178 -1.3046 -1.1720
39779SOL    HW224023   8.938   0.749   2.865  2.7710  1.0288  1.3302
39780SOL     OW24024   7.140   9.935   4.263  0.3832 -0.0701  0.9363
39780SOL    HW124025   7.116  10.028   4.266  6.3732  1.8896  0.4832
39780SOL    HW224026   7.175   9.916   4.350  1.7928 -0.9520  0.2126
39781SOL     OW24027   5.585   2.602   7.251  0.1038 -0.5236  0.4215
39781SOL    HW124028   5.568   2.536   7.183 -1.1249  2.5040 -2.4905
39781SOL    HW224029   5.498   2.625   7.284  0.4179  0.3019  0.7078
39782SOL     OW24030   2.382   0.332   3.360 -0.3354  0.3517  0.1891
39782SOL    HW124031   2.367   0.420   3.327 -0.2884  0.0258 -0.7402
39782SOL    HW224032   2.365   0.275   3.285  0.6471 -0.3576  0.4843
39783SOL     OW24033   0.171   5.709   4.584 -0.4242 -0.0921  0.3597
39783SOL    HW124034   0.084   5.700   4.544 -0.3207 -1.0295  0.3265
39783SOL    HW224035   0.152   5.726   4.677 -0.6601 -1.3745  0.5700
39784SOL     OW24036  10.704   3.609   3.056  0.5810 -0.1988  0.1229
39784SOL    HW124037  10.736   3.538   3.111 -0.0589  0.3154  1.2001
39784SOL    HW224038  10.773   3.676   3.061  0.3598 -0.0009  0.6268
39785SOL     OW24039   4.768   0.551   5.700 -0.2807  0.1512 -0.3644
39785SOL    HW124040   4.851   0.598   5.709  0.1432  0.1529 -3.2263
39785SOL    HW224041   4.790   0.460   5.723  0.7218  0.0247 -1.7026
39786SOL     OW24042   0.127   7.538   1.603 -0.1051  0.1938  0.1960
39786SOL    HW124043   0.134   7.621   1.650  1.7067 -0.4793  1.2065
39786SOL    HW224044   0.153   7.559   1.513  2.4793  0.3766  0.9148
39787SOL     OW24045   9.204   3.101   8.597  1.1634 -0.3711 -0.2544
39787SOL    HW124046   9.243   3.149   8.670  0.1409 -0.4953  0.3904
39787SOL    HW224047   9.180   3.168   8.533  1.7017 -0.2254 -0.3058
39788SOL     OW24048   2.274   3.310   4.565  0.4097  0.7958  0.4025
39788SOL    HW124049   2.315   3.268   4.489 -1.0128  1.3065 -0.6949
39788SOL    HW224050   2.322   3.392   4.576  1.1767  0.3274  0.6051
39789SOL     OW24051   9.989  10.310   3.362 -0.0984  0.5302 -0.8852
39789SOL    HW124052  10.036  10.333   3.443 -1.6814 -0.0584  0.2548
39789SOL    HW224053  10.049  10.253   3.315  0.5090  0.1249  0.3362
39790SOL     OW24054   9.423   1.639  10.175  0.2337  0.0625  0.0381
39790SOL    HW124055   9.477   1.644  10.096 -0.2287  2.7019 -0.1915
39790SOL    HW224056   9.486   1.633  10.247  0.6646 -3.4231 -0.4210
39791SOL     OW24057   0.885  11.723   3.854 -0.1706 -0.2606  0.4202
39791SOL    HW124058   0.964  11.673   3.874  0.6894  0.7513 -0.2992
39791SOL    HW224059   0.822  11.699   3.922  0.2824 -2.1093  0.2242
39792SOL     OW24060   6.868  11.094   2.139  0.6382  0.2069 -0.2213
39792SOL    HW124061   6.834  11.183   2.150  0.4833 -0.0248  1.2478
39792SOL    HW224062   6.928  11.101   2.064 -1.0685  1.0444 -1.5853
39793SOL     OW24063   3.955   2.849   1.126 -0.6889 -0.1795  0.3627
39793SOL    HW124064   3.941   2.754   1.119 -1.9646  0.0472 -0.6242
39793SOL    HW224065   3.880   2.880   1.176 -0.6076  0.3809  0.1430
39794SOL     OW24066   3.115   8.862   3.581 -0.2477 -0.4479  0.1668
39794SOL    HW124067   3.166   8.800   3.633  0.1238 -0.7554 -0.5558
39794SOL    HW224068   3.080   8.924   3.646  0.2294 -0.8023  0.7775
39795SOL     OW24069   5.881   0.633   6.702  0.0190  0.5938  0.2076
39795SOL    HW124070   5.922   0.602   6.783  0.2140 -1.6152 -0.6704
39795SOL    HW224071   5.948   0.618   6.634 -1.1921 -0.4220 -0.8053
39796SOL     OW24072   9.879   9.700   3.249  0.3206 -0.2820  0.4167
39796SOL    HW124073   9.783   9.689   3.251  0.3243 -0.3618  0.2315
39796SOL    HW224074   9.901   9.732   3.336  0.2951 -1.6998  0.9729
39797SOL     OW24075   0.216  11.757   2.464 -0.1501  0.3214  0.4075
39797SOL    HW124076   0.163  11.771   2.385  0.6707  2.1701  0.1281
39797SOL    HW224077   0.167  11.802   2.533  0.4035  0.9315  0.4083
39798SOL     OW24078   6.029   4.918   7.219  0.7725 -0.3213  0.1123
39798SOL    HW124079   6.026   4.824   7.206  2.1585 -0.2229 -1.1083
39798SOL    HW224080   5.937   4.943   7.231  0.3722 -1.7737  0.2594
39799SOL     OW24081   3.981   5.114  10.343 -0.0034 -0.0329  0.2139
39799SOL    HW124082   3.967   5.026  10.309 -0.0236 -0.3705  1.0741
39799SOL    HW224083   4.037   5.102  10.420 -1.3335  0.5292  1.3022
39800SOL     OW24084  11.581   0.102   1.127 -0.6787 -0.7929 -0.1525
39800SOL    HW124085  11.597   0.146   1.210  3.1205 -1.3902 -0.4003
39800SOL    HW224086  11.611   0.012   1.142 -1.6559 -1.4200 -1.6913
39801SOL     OW24087   7.004  11.438   3.690 -0.0780 -0.6692  0.1841
39801SOL    HW124088   7.063  11.501   3.648  0.4389 -0.6806  0.8646
39801SOL    HW224089   6.986  11.373   3.621  0.5735 -0.5730 -0.0927
39802SOL     OW24090   6.537   0.784   7.104  0.6878 -0.1939  0.3061
39802SOL    HW124091   6.447   0.779   7.136  0.6626 -0.8227  0.1459
39802SOL    HW224092   6.589   0.800   7.183  0.4308  0.2108  0.3918
39803SOL     OW24093   1.772   9.423   7.780  0.1843  0.2586  0.6686
39803SOL    HW124094   1.822   9.343   7.796 -1.1824 -0.3921  1.8609
39803SOL    HW224095   1.792   9.479   7.855  1.2759  1.1422 -0.2506
39804SOL     OW24096   0.713   9.218   2.068  0.3011  0.0161 -0.0445
39804SOL    HW124097   0.802   9.230   2.035  0.7461 -0.4384  0.9576
39804SOL    HW224098   0.723   9.168   2.149 -1.0420 -2.1799 -1.1224
39805SOL     OW24099   8.934   2.894   4.329  0.6074 -0.4554 -0.0365
39805SOL    HW124100   8.984   2.930   4.402  0.5800 -0.3913 -0.0493
39805SOL    HW224101   8.843   2.917   4.349  0.6367 -0.1557 -0.2566
39806SOL     OW24102   1.173   9.773   0.717 -0.4303  0.0206 -0.1101
39806SOL    HW124103   1.259   9.810   0.739 -0.4712  0.7524 -1.1221
39806SOL    HW224104   1.119   9.790   0.794  0.0489  0.4720  0.1328
39807SOL     OW24105   6.323   8.246   6.165  0.2107 -0.1895 -0.2785
39807SOL    HW124106   6.406   8.217   6.200 -0.2325 -1.1449  0.0066
39807SOL    HW224107   6.305   8.187   6.092 -0.6774 -0.6273  0.2736
39808SOL     OW24108   3.446  11.840   2.404  0.0219 -0.6391 -0.4703
39808SOL    HW124109   3.471  11.753   2.373  0.3641 -0.0028 -2.1071
39808SOL    HW224110   3.411  11.884   2.326 -2.9834 -0.2751  0.9508
39809SOL     OW24111   7.812   1.719   5.061 -0.2097  0.5235  0.1040
39809SOL    HW124112   7.895   1.714   5.014 -0.1714  0.3838  0.1853
39809SOL    HW224113   7.747   1.735   4.994 -0.3283 -0.9636 -0.1640
39810SOL     OW24114   0.300   6.780  10.662 -0.2958 -0.0545  0.0473
39810SOL    HW124115   0.304   6.783  10.567 -0.4280  0.9941  0.0657
39810SOL    HW224116   0.374   6.833  10.692  0.0766 -0.8255  0.5441
39811SOL     OW24117   4.202   0.864   5.523 -0.2550  0.1242 -0.3290
39811SOL    HW124118   4.191   0.777   5.485 -1.3558 -0.0786  0.3959
39811SOL    HW224119   4.261   0.851   5.597 -0.9787 -0.1557  0.2127
39812SOL     OW24120  10.554   6.861   5.220  0.0089 -0.0688 -0.3119
39812SOL    HW124121  10.496   6.799   5.175  0.0872 -0.9213  0.7392
39812SOL    HW224122  10.513   6.947   5.205 -1.1821 -0.5869 -0.1253
39813SOL     OW24123   5.731   5.795   7.020 -0.4627  0.4869 -0.0925
39813SOL    HW124124   5.679   5.783   7.099 -1.5046 -0.3972 -0.8747
39813SOL    HW224125   5.801   5.855   7.046  0.5141 -1.4578  2.0518
39814SOL     OW24126   0.496   7.676   4.394 -0.0658  0.4362 -0.3885
39814SOL    HW124127   0.406   7.710   4.399  0.1825  0.9286  1.0782
39814SOL    HW224128   0.489   7.585   4.423 -0.2242  0.1751 -1.2112
39815SOL     OW24129   2.463   0.120   3.620 -0.9233  0.8822 -0.5185
39815SOL    HW124130   2.460   0.059   3.693 -0.9064  1.4165 -0.0717
39815SOL    HW224131   2.414   0.076   3.550  0.1786 -0.2129 -0.6397
39816SOL     OW24132   8.117   4.740   3.698  0.2542 -0.4192  0.2079
39816SOL    HW124133   8.031   4.707   3.670 -1.0515  2.0686  1.0596
39816SOL    HW224134   8.170   4.739   3.618 -0.6523 -1.6341 -0.4092
39817SOL     OW24135  10.602   5.464   6.733  0.3613  0.4085  0.9727
39817SOL    HW124136  10.610   5.466   6.638  1.3869 -1.9800  0.9428
39817SOL    HW224137  10.563   5.379   6.752 -1.1860  1.4282  2.6547
39818SOL     OW24138   7.311   1.041   4.495 -0.2921  0.1066  0.0098
39818SOL    HW124139   7.269   1.126   4.484 -0.1442  0.2570  0.5593
39818SOL    HW224140   7.321   1.031   4.590 -0.5771 -0.6581 -0.0309
39819SOL     OW24141   8.153   3.363   3.554  0.0563 -0.5877  0.2986
39819SOL    HW124142   8.150   3.312   3.635  1.3683 -1.4698 -0.1683
39819SOL    HW224143   8.120   3.303   3.487  2.1972 -1.0976 -0.3636
39820SOL     OW24144   7.159   4.936  11.653  0.1742  0.3730  0.5412
39820SOL    HW124145   7.192   4.943  11.742  1.2628 -2.0455  0.3978
39820SOL    HW224146   7.067   4.914  11.662  0.4013 -0.3748  1.1009
39821SOL     OW24147   8.725   9.051   7.874 -0.5377  0.1545 -0.1588
39821SOL    HW124148   8.790   9.105   7.829 -1.5210  1.4067 -0.1439
39821SOL    HW224149   8.731   8.965   7.832  1.3711  0.1058  0.1017
39822SOL     OW24150   3.337   3.284   3.866  0.6137  0.3993  0.2473
39822SOL    HW124151   3.418   3.296   3.817  0.0253  1.3856 -0.5484
39822SOL    HW224152   3.305   3.373   3.881 -0.4383  0.0281  0.3164
39823SOL     OW24153   8.892   0.445   1.092  0.2814 -0.2942 -0.0005
39823SOL    HW124154   8.921   0.389   1.164 -1.3314 -0.6477  0.4068
39823SOL    HW224155   8.816   0.492   1.127  0.2223  0.4488 -1.0794
39824SOL     OW24156   5.051   6.849   1.910  0.1824 -0.8468  0.3793
39824SOL    HW124157   5.051   6.942   1.885 -2.0278 -0.7614  0.4224
39824SOL    HW224158   5.037   6.803   1.827  1.0625 -1.1288  0.3864
39825SOL     OW24159   5.835   0.511   9.136 -0.1058  0.1329  0.3452
39825SOL    HW124160   5.748   0.472   9.130  0.1125 -0.2210 -0.9122
39825SOL    HW224161   5.849   0.552   9.051  0.2841  1.6801  1.1174
39826SOL     OW24162  11.228   7.345   9.818  0.7795 -0.4635 -0.3850
39826SOL    HW124163  11.296   7.291   9.778  0.8787 -0.9406  0.4302
39826SOL    HW224164  11.167   7.283   9.858  0.3354 -0.0065 -0.3378
39827SOL     OW24165   7.458   4.883   5.879 -0.0510  0.0951 -0.0570
39827SOL    HW124166   7.474   4.955   5.819 -0.8680  0.1931 -0.1641
39827SOL    HW224167   7.398   4.825   5.833  2.0969 -1.6912 -0.7672
39828SOL     OW24168   3.143   1.397  10.362  0.4016  0.3924 -0.1160
39828SOL    HW124169   3.236   1.378  10.374  0.8515  1.2945 -1.8249
39828SOL    HW224170   3.101   1.366  10.442  2.3574  1.2834  1.3253
39829SOL     OW24171   6.917   0.358   5.474  0.2455  0.0336  0.1187
39829SOL    HW124172   6.944   0.362   5.566  1.2652  0.0692 -0.1598
39829SOL    HW224173   6.984   0.303   5.433 -1.0533 -1.2504 -0.3273
39830SOL     OW24174   6.471   0.233   2.255 -0.8319 -0.2102 -0.0821
39830SOL    HW124175   6.534   0.277   2.197  0.5375  1.1987  2.3139
39830SOL    HW224176   6.389   0.279   2.240 -0.8040 -0.5842 -1.6275
39831SOL     OW24177  11.431   2.850   8.946 -0.1210  0.0274  0.0020
39831SOL    HW124178  11.493   2.812   8.884 -1.0367 -2.0272  0.2474
39831SOL    HW224179  11.349   2.858   8.897 -0.3365  0.2711  0.3902
39832SOL     OW24180   3.047   7.831   0.674  0.0803 -0.3960 -0.8306
39832SOL    HW124181   3.137   7.822   0.703 -0.6127 -0.5711  1.4952
39832SOL    HW224182   3.047   7.802   0.583  1.9263 -2.8322 -0.1557
39833SOL     OW24183   8.129   6.215   4.114  0.5006 -0.2864 -0.0985
39833SOL    HW124184   8.137   6.306   4.144 -1.5979 -0.3784  0.9647
39833SOL    HW224185   8.127   6.221   4.019  3.2413  0.4481 -0.1773
39834SOL     OW24186   8.977   9.473   1.906 -0.2340  0.3896 -0.0769
39834SOL    HW124187   8.977   9.379   1.921 -1.2078  0.3757 -0.1122
39834SOL    HW224188   9.008   9.483   1.816  0.6750  0.1631  0.2012
39835SOL     OW24189   9.183   6.275   8.206  0.0114 -0.0842  0.1215
39835SOL    HW124190   9.232   6.278   8.288  1.2928  1.5769 -0.6369
39835SOL    HW224191   9.093   6.297   8.231  0.0845 -0.9498  1.2342
39836SOL     OW24192   8.209   2.105   8.357  0.4918  0.0795  0.2864
39836SOL    HW124193   8.299   2.135   8.368  0.4268  0.2851  0.2576
39836SOL    HW224194   8.178   2.150   8.278  0.6623 -0.6864 -0.2270
39837SOL     OW24195   7.494   7.435  10.299 -0.3223 -0.2987 -0.5517
39837SOL    HW124196   7.400   7.435  10.320 -0.7050 -3.4901 -1.7198
39837SOL    HW224197   7.497   7.470  10.209 -0.5924 -1.4815 -1.0355
39838SOL     OW24198   8.681   5.126   4.591 -0.8131  0.1057 -0.0802
39838SOL    HW124199   8.599   5.170   4.568 -0.2343  1.0197 -0.4498
39838SOL    HW224200   8.739   5.143   4.516 -0.2553 -0.4684  0.2075
39839SOL     OW24201   9.086   2.946   4.558 -0.3520  0.7663 -0.1164
39839SOL    HW124202   9.141   2.873   4.529  0.0253  0.5719  1.0237
39839SOL    HW224203   9.145   3.001   4.610 -1.5158 -0.3047  2.5603
39840SOL     OW24204   0.595  11.564  10.487 -0.1038  0.2184 -0.0908
39840SOL    HW124205   0.531  11.546  10.418 -0.9791 -0.8977  0.9628
39840SOL    HW224206   0.676  11.525  10.454 -0.4830 -0.2145 -0.5445
39841SOL     OW24207   0.280   5.988   6.486  0.3958 -0.0708  0.8799
39841SOL    HW124208   0.346   5.928   6.520  0.6969 -0.3109 -0.0767
39841SOL    HW224209   0.326   6.037   6.417 -0.5085 -0.5180 -0.0730
39842SOL     OW24210   2.502   1.927   2.421 -0.0103 -0.9077  0.3741
39842SOL    HW124211   2.584   1.973   2.437 -0.2961 -0.7288  1.3576
39842SOL    HW224212   2.445   1.992   2.379  0.4955 -1.1687 -0.7489
39843SOL     OW24213   8.151   1.256   7.862  0.2574 -0.1067 -0.0565
39843SOL    HW124214   8.144   1.294   7.949  2.7441  0.3666  0.0313
39843SOL    HW224215   8.064   1.266   7.824 -0.7362  0.1941  2.1440
39844SOL     OW24216   0.583   8.970   5.859 -0.1979  0.8057  0.0152
39844SOL    HW124217   0.538   9.039   5.908  0.1646  1.1116 -0.0723
39844SOL    HW224218   0.619   9.015   5.783 -1.1333  0.2498 -0.7815
39845SOL     OW24219   0.379  11.512   6.730 -0.4426 -0.0088  0.0882
39845SOL    HW124220   0.446  11.465   6.680 -0.9757 -1.0388  0.3195
39845SOL    HW224221   0.423  11.591   6.761  0.1870  0.1543 -1.1634
39846SOL     OW24222   9.885   3.146   0.354  0.7001  0.0580  0.4803
39846SOL    HW124223   9.974   3.128   0.384  1.1835  1.4957  0.0066
39846SOL    HW224224   9.853   3.215   0.413 -0.0069 -0.2390  0.4640
39847SOL     OW24225  10.620   6.130   5.054 -0.1425  0.1583  0.1381
39847SOL    HW124226  10.563   6.167   5.122  0.8229  1.4993  0.2537
39847SOL    HW224227  10.655   6.050   5.094 -0.7463  0.1324  0.6410
39848SOL     OW24228  11.418  10.532   1.091 -0.1899 -0.5004  0.0130
39848SOL    HW124229  11.338  10.561   1.048 -0.7661 -0.5375  1.0280
39848SOL    HW224230  11.405  10.439   1.107 -0.0150 -0.4745  0.3231
39849SOL     OW24231   8.099  11.174   2.005  0.0718  0.1406 -0.3097
39849SOL    HW124232   8.100  11.118   1.927 -2.1732  0.2045 -0.4510
39849SOL    HW224233   8.006  11.190   2.022  0.5355  0.9593  1.8015
39850SOL     OW24234   3.928   3.802   0.869  0.1315 -0.0905 -0.2625
39850SOL    HW124235   3.895   3.749   0.796  0.7766 -1.7878  0.6296
39850SOL    HW224236   3.987   3.865   0.827 -0.9762  0.2312 -1.3978
39851SOL     OW24237   3.932  10.341   3.954 -0.0349  0.3681 -0.0248
39851SOL    HW124238   3.897  10.339   3.865 -0.0275 -0.1064 -0.0185
39851SOL    HW224239   3.879  10.407   3.999 -0.6918 -0.0969 -0.1057
39852SOL     OW24240   8.499  10.833   9.220  0.5072 -0.0832 -0.0181
39852SOL    HW124241   8.450  10.835   9.302  1.8699  2.5194  0.8505
39852SOL    HW224242   8.585  10.799   9.244  0.5110 -0.5473 -0.6613
39853SOL     OW24243   4.241   5.998   1.004  0.3096  0.0765  0.1005
39853SOL    HW124244   4.330   5.966   1.015  0.5552  1.2384  1.7927
39853SOL    HW224245   4.237   6.027   0.913  0.9371 -2.0350 -0.6448
39854SOL     OW24246   8.472   3.566   1.152  0.1411 -0.0134  0.0577
39854SOL    HW124247   8.451   3.636   1.213  1.4687  0.1030  0.4287
39854SOL    HW224248   8.549   3.598   1.104  1.2940 -1.5078  0.8085
39855SOL     OW24249   3.468   8.012   9.426  0.4074  0.3502  0.5785
39855SOL    HW124250   3.389   7.976   9.468  0.8866  0.3747  1.5155
39855SOL    HW224251   3.539   7.991   9.486  1.0763  0.6389 -0.0941
39856SOL     OW24252   9.541   6.279   1.546  0.7546  0.0814 -0.0313
39856SOL    HW124253   9.460   6.234   1.522  0.8302  0.9162 -2.1325
39856SOL    HW224254   9.590   6.283   1.464  1.5042  2.3890  0.4690
39857SOL     OW24255  11.700  10.859   7.019 -0.9540  0.1329  0.1655
39857SOL    HW124256  11.674  10.877   7.109  0.0798  2.1096  0.1360
39857SOL    HW224257  11.791  10.886   7.014 -0.7881 -0.5713 -1.3166
39858SOL     OW24258  11.789   2.613   8.251  0.1603 -0.3090 -0.6980
39858SOL    HW124259  11.801   2.522   8.225  2.2553  0.1950 -1.6913
39858SOL    HW224260  11.837   2.664   8.186 -0.2512  1.4697  0.3098
39859SOL     OW24261   5.301   6.756   3.063 -0.0797 -0.6360 -0.3645
39859SOL    HW124262   5.372   6.693   3.077 -0.8682 -1.3306  0.6243
39859SOL    HW224263   5.274   6.782   3.151 -0.6593  0.0819 -0.7400
39860SOL     OW24264  11.449   5.149   7.586 -0.8937  0.3264  0.4561
39860SOL    HW124265  11.540   5.119   7.581 -1.5750 -1.9695  1.0262
39860SOL    HW224266  11.449   5.214   7.656  0.7600  2.3697 -1.2696
39861SOL     OW24267   9.324  10.842  11.271  0.0356 -0.5294 -0.2347
39861SOL    HW124268   9.312  10.929  11.308 -1.6707 -1.1143  0.7031
39861SOL    HW224269   9.385  10.799  11.331  1.7113  0.2968 -1.2659
39862SOL     OW24270   9.681   8.043  10.684 -0.0792  0.0945 -0.2681
39862SOL    HW124271   9.758   7.990  10.661 -1.0537 -1.2399 -0.5398
39862SOL    HW224272   9.650   8.006  10.767  0.1838  1.3424  0.4196
39863SOL     OW24273   7.592   0.580   4.766  0.2102  0.2034  0.7575
39863SOL    HW124274   7.568   0.619   4.850  1.9972 -0.2744  1.5405
39863SOL    HW224275   7.541   0.499   4.762  1.3686 -0.6701  2.2577
39864SOL     OW24276  11.279   9.987   0.830  0.8424  0.3711 -0.4386
39864SOL    HW124277  11.259   9.965   0.739  0.1135 -2.8302  0.3669
39864SOL    HW224278  11.194  10.007   0.868  1.0675  1.0403 -0.2714
39865SOL     OW24279   0.209  11.835   0.146 -0.1006 -0.0612 -0.4252
39865SOL    HW124280   0.278  11.897   0.127 -1.6286  1.8660 -0.0135
39865SOL    HW224281   0.226  11.806   0.236  0.5742 -0.2052 -0.5953
39866SOL     OW24282  10.696   5.145   2.969  0.0113 -0.1123  0.0894
39866SOL    HW124283  10.711   5.233   2.934 -0.2846 -0.4313 -0.8719
39866SOL    HW224284  10.767   5.092   2.932  1.1143  0.0295  1.9203
39867SOL     OW24285   6.663   1.816  10.292 -0.6062  0.2884  0.7366
39867SOL    HW124286   6.683   1.773  10.209  0.5401  1.8669  0.1389
39867SOL    HW224287   6.588   1.871  10.273 -0.9756 -0.1099  1.0297
39868SOL     OW24288   7.500   8.258  10.793  0.0874  0.0753 -0.2749
39868SOL    HW124289   7.566   8.301  10.739 -0.0557 -0.9316 -1.2932
39868SOL    HW224290   7.441   8.217  10.730 -0.2789 -0.8539  0.6477
39869SOL     OW24291   1.028   4.157   4.439 -0.5074  0.2061 -0.2618
39869SOL    HW124292   1.059   4.205   4.362 -2.4011  1.0743 -0.5586
39869SOL    HW224293   1.078   4.194   4.512  1.4229 -0.7407 -1.0563
39870SOL     OW24294  11.454  11.013  10.196  0.1926 -0.5665 -0.0484
39870SOL    HW124295  11.464  10.918  10.184 -0.0870 -0.4583 -1.3618
39870SOL    HW224296  11.492  11.051  10.116  0.2890  0.4246  0.4569
39871SOL     OW24297   4.719   7.730   8.299  0.3028  0.1460 -0.0541
39871SOL    HW124298   4.796   7.675   8.311 -0.2065 -0.3760  0.9632
39871SOL    HW224299   4.672   7.690   8.226  0.1013 -0.6058  0.4744
39872SOL     OW24300   4.405   9.674   1.686  0.3601 -0.0507  0.1232
39872SOL    HW124301   4.394   9.681   1.780  1.1520  1.1490  0.1466
39872SOL    HW224302   4.407   9.580   1.669 -1.3551 -0.3027  1.0826
39873SOL     OW24303   3.044   3.198   6.826  0.5284  0.1942 -0.7584
39873SOL    HW124304   3.100   3.220   6.751  1.5185 -2.8522 -1.0544
39873SOL    HW224305   3.099   3.216   6.902 -0.0130  2.0361 -0.7402
39874SOL     OW24306  10.218   1.145   5.029 -0.1980  0.4211 -0.0313
39874SOL    HW124307  10.186   1.056   5.017  0.1598  0.3064 -0.1334
39874SOL    HW224308  10.178   1.174   5.111  1.4541 -0.6211  1.1805
39875SOL     OW24309   9.246   9.078   0.167 -0.5215 -0.1531  0.0884
39875SOL    HW124310   9.160   9.118   0.161 -0.1737  0.6654  0.3016
39875SOL    HW224311   9.240   8.998   0.116 -1.1382  0.3683 -0.6737
39876SOL     OW24312   6.554  10.397   9.178  0.4373  0.0399  0.6803
39876SOL    HW124313   6.609  10.333   9.224  0.2739  0.3582  1.3182
39876SOL    HW224314   6.473  10.400   9.228 -0.8305 -1.5960 -1.1316
39877SOL     OW24315   9.990   8.063   9.884 -0.2177 -0.3375 -0.4016
39877SOL    HW124316  10.041   8.107   9.816  0.2611 -1.7731 -1.0006
39877SOL    HW224317   9.985   7.972   9.856  0.1595 -1.0158  1.5652
39878SOL     OW24318   9.669   6.773   0.661 -0.0270  0.4815 -0.2852
39878SOL    HW124319   9.646   6.765   0.568  0.7478  0.5257 -0.4881
39878SOL    HW224320   9.765   6.767   0.662 -0.1046 -3.7081  0.8650
39879SOL     OW24321  11.371   3.984   5.236 -0.6039 -0.3798  0.0705
39879SOL    HW124322  11.346   3.899   5.198 -0.0160 -1.1268  1.2681
39879SOL    HW224323  11.463   3.972   5.261 -0.6384  0.4713  0.6194
39880SOL     OW24324   4.987   5.395   5.572  0.1202  0.4272  0.4934
39880SOL    HW124325   5.083   5.389   5.565  0.0755  0.9425 -0.7424
39880SOL    HW224326   4.957   5.305   5.559  0.4559  0.1006  1.7595
39881SOL     OW24327   5.522   6.683   0.877 -0.0275  0.3458  0.0959
39881SOL    HW124328   5.577   6.619   0.832 -0.0553 -1.9556  3.0073
39881SOL    HW224329   5.432   6.652   0.862 -0.2991  1.5761 -1.0301
39882SOL     OW24330   7.068   0.631   2.050 -0.0119 -0.2606 -0.0485
39882SOL    HW124331   7.144   0.685   2.074  0.1653 -0.1831 -0.7776
39882SOL    HW224332   7.106   0.545   2.030 -0.3156 -0.7425  1.3356
39883SOL     OW24333   2.324   6.875   5.243 -0.4399  0.3305  0.0825
39883SOL    HW124334   2.398   6.814   5.239  0.6487  1.4449  1.7731
39883SOL    HW224335   2.316   6.909   5.154  0.1372 -0.8866 -0.4554
39884SOL     OW24336   5.987  10.316   8.370  0.1257  0.6406 -0.5585
39884SOL    HW124337   5.993  10.284   8.280  1.1331 -0.7665 -0.0327
39884SOL    HW224338   6.078  10.317   8.401 -0.2380  0.7941  0.5380
39885SOL     OW24339   3.926   7.932   2.518 -0.9048  0.0302  0.3166
39885SOL    HW124340   3.858   7.865   2.521 -2.6805  1.7591 -0.0514
39885SOL    HW224341   3.884   8.009   2.482  0.9638  1.5176  1.1067
39886SOL     OW24342  11.997   0.024   1.860  0.2679 -0.0317  0.2033
39886SOL    HW124343  11.910  -0.015   1.866 -0.1313  0.9010  0.7380
39886SOL    HW224344  12.055  -0.049   1.837 -0.9284 -0.2949 -2.3124
39887SOL     OW24345   9.937   9.190  10.869  0.2837  0.1301  0.5028
39887SOL    HW124346   9.876   9.223  10.935  1.2390  1.0830  0.9411
39887SOL    HW224347  10.001   9.260  10.859 -0.1247  0.2562 -1.8477
39888SOL     OW24348   1.569   2.068  10.969 -0.0258 -0.1752 -0.6025
39888SOL    HW124349   1.604   2.147  11.010 -0.2401  0.0395 -0.8336
39888SOL    HW224350   1.498   2.099  10.913  0.0088 -0.5112 -0.8353
39889SOL     OW24351  10.301   3.948   3.243 -1.1109 -0.2008 -0.3484
39889SOL    HW124352  10.277   3.957   3.150 -0.0297 -0.5973 -0.6785
39889SOL    HW224353  10.363   3.876   3.245 -0.8471  0.0380  0.6416
39890SOL     OW24354  10.619   5.642   3.991  0.3542 -0.3167  0.1197
39890SOL    HW124355  10.534   5.622   4.032  0.9326  0.0919  1.5855
39890SOL    HW224356  10.683   5.600   4.048  1.2006  0.1828 -0.4483
39891SOL     OW24357   3.771   1.257   2.181 -0.5361 -0.5123  0.7105
39891SOL    HW124358   3.820   1.219   2.109  0.4141 -0.7735  1.4784
39891SOL    HW224359   3.749   1.183   2.237 -0.6989 -0.2306  1.0229
39892SOL     OW24360   3.816  10.268   9.517 -0.3612  0.1224  0.8076
39892SOL    HW124361   3.904  10.243   9.545 -1.0456  0.2456  3.2834
39892SOL    HW224362   3.790  10.336   9.578 -0.9059  2.6589 -2.0298
39893SOL     OW24363   4.838   1.883  10.432  0.0074  0.1126 -0.4589
39893SOL    HW124364   4.767   1.848  10.486  0.4272  0.1965  0.1504
39893SOL    HW224365   4.823   1.978  10.432  0.6514  0.2318  0.4597
39894SOL     OW24366   7.003   1.909   1.876  0.1057 -0.3049  0.3380
39894SOL    HW124367   6.951   1.931   1.954  0.8186  1.3761  0.3806
39894SOL    HW224368   7.068   1.846   1.909 -0.3191 -0.5035  0.8295
39895SOL     OW24369   9.796   0.722   2.175  0.0826 -0.1383  0.1395
39895SOL    HW124370   9.712   0.770   2.180 -1.4267 -2.7045  1.3918
39895SOL    HW224371   9.850   0.763   2.242 -0.3098  1.2267 -0.3240
39896SOL     OW24372   5.930  11.213   0.164 -0.1665  0.3464 -0.7839
39896SOL    HW124373   5.873  11.137   0.180  1.3959 -0.2554  2.8774
39896SOL    HW224374   6.018  11.177   0.156  0.5529  1.6811  0.5715
39897SOL     OW24375   6.508   3.706  11.800  0.3557 -0.2103  0.1647
39897SOL    HW124376   6.495   3.614  11.822  0.6637 -0.4441 -0.5905
39897SOL    HW224377   6.599   3.724  11.821  0.4398 -0.2255 -0.1689
39898SOL     OW24378   2.833  11.633   7.806 -0.0832  0.2910 -0.1652
39898SOL    HW124379   2.898  11.699   7.783 -0.3098  0.7416  0.4580
39898SOL    HW224380   2.872  11.585   7.879 -0.6273  0.8520  0.5026
39899SOL     OW24381   4.788   2.371   8.586 -0.5213 -0.2561 -0.4203
39899SOL    HW124382   4.784   2.284   8.626  0.1692 -0.2141 -0.2393
39899SOL    HW224383   4.747   2.428   8.650  0.5555 -0.1938  0.2406
39900SOL     OW24384   2.481   0.191   7.984  0.0875 -0.4108  0.2415
39900SOL    HW124385   2.503   0.149   8.068  0.0448  0.1079  0.5154
39900SOL    HW224386   2.564   0.196   7.938  0.4387  0.8790  0.9751
39901SOL     OW24387   0.877   0.448  10.733  0.1536  0.3453  0.1059
39901SOL    HW124388   0.798   0.501  10.727 -1.1246 -1.3087  1.2872
39901SOL    HW224389   0.847   0.359  10.713  1.1458 -0.7622  2.9914
39902SOL     OW24390   6.427   9.410   5.573 -0.0387  0.3508 -0.1615
39902SOL    HW124391   6.478   9.337   5.538  1.0139  1.1715 -0.3839
39902SOL    HW224392   6.342   9.402   5.530  0.4991  0.0324 -1.1983
39903SOL     OW24393   4.167   3.413   9.732  0.1739 -0.1868 -0.3074
39903SOL    HW124394   4.184   3.438   9.823 -0.0907 -1.6326  0.1692
39903SOL    HW224395   4.138   3.494   9.690  2.2525  0.9867  0.3565
39904SOL     OW24396   4.334   9.374   1.613  0.5451  0.1665 -0.1767
39904SOL    HW124397   4.388   9.381   1.691  0.4013  1.2427 -0.1487
39904SOL    HW224398   4.352   9.287   1.578 -0.9820 -1.2142  2.2111
39905SOL     OW24399   5.460   1.964   4.154 -0.1124 -0.7303  0.1041
39905SOL    HW124400   5.495   2.011   4.230  0.4056  0.6765 -0.9763
39905SOL    HW224401   5.378   2.009   4.134  0.0974 -0.6594 -0.5948
39906SOL     OW24402  10.765   4.004   8.117 -0.1871 -0.2379  0.5149
39906SOL    HW124403  10.761   4.095   8.146  0.8519 -0.1871  0.5414
39906SOL    HW224404  10.704   3.958   8.175  1.3112 -0.0246  2.3727
39907SOL     OW24405   7.702   1.773  10.669 -0.0559 -0.9490 -0.1277
39907SOL    HW124406   7.624   1.822  10.694 -0.7907 -1.8213 -0.6622
39907SOL    HW224407   7.692   1.688  10.712 -0.6665 -1.9793 -2.2079
39908SOL     OW24408   1.786   5.234   1.393  0.4092 -0.3667  0.7298
39908SOL    HW124409   1.876   5.205   1.375  0.4173 -0.3912  0.8094
39908SOL    HW224410   1.783   5.246   1.488  0.1481 -0.9771  0.8008
39909SOL     OW24411   4.044   7.460   1.377 -0.1876 -0.6172  0.1837
39909SOL    HW124412   4.004   7.373   1.375 -0.2447 -0.6898  2.5068
39909SOL    HW224413   3.970   7.519   1.393  0.1011 -0.3261  0.4406
39910SOL     OW24414   8.652   5.710   6.576 -0.0469 -0.5437  0.1453
39910SOL    HW124415   8.560   5.726   6.598 -0.0730  1.4846 -1.2139
39910SOL    HW224416   8.700   5.729   6.657 -0.6114  1.0101  0.1386
39911SOL     OW24417   5.892   4.452   3.943 -0.6714 -0.0744  0.4754
39911SOL    HW124418   5.863   4.538   3.973 -0.4030 -0.4611  1.8924
39911SOL    HW224419   5.978   4.440   3.983 -1.2587 -1.5428  1.3921
39912SOL     OW24420  11.403   9.366   0.229 -0.2046  0.2763  0.2923
39912SOL    HW124421  11.322   9.313   0.230 -0.0135 -0.0568 -1.0617
39912SOL    HW224422  11.375   9.451   0.262 -0.9544 -0.0521  0.5455
39913SOL     OW24423   8.032   5.004  10.656 -0.4715 -0.0539 -0.4745
39913SOL    HW124424   8.110   5.039  10.612  0.1758  0.7246  1.1857
39913SOL    HW224425   8.054   4.913  10.676 -0.1674  0.0252 -0.4455
39914SOL     OW24426   2.833   0.820   0.568 -0.5758  0.0750  0.4933
39914SOL    HW124427   2.806   0.883   0.501 -0.6128  0.1508  0.5807
39914SOL    HW224428   2.874   0.749   0.518  0.1872  0.5361  0.4640
39915SOL     OW24429   7.886   3.487   8.119  0.4741  0.4719  0.1625
39915SOL    HW124430   7.929   3.470   8.203 -0.2124  1.0001  0.6308
39915SOL    HW224431   7.924   3.568   8.088 -1.3484  1.9034  1.4205
39916SOL     OW24432  11.013   6.096  11.764 -0.3114  0.0084  0.0228
39916SOL    HW124433  11.090   6.044  11.744 -0.9762 -0.1649 -2.3255
39916SOL    HW224434  10.962   6.042  11.825 -0.7832 -2.0117 -2.0143
39917SOL     OW24435   2.218   3.472   5.781 -0.0013 -0.5683 -0.3408
39917SOL    HW124436   2.265   3.423   5.715 -0.4378  1.2160 -2.0938
39917SOL    HW224437   2.243   3.563   5.766 -1.2006  0.0415  1.0422
39918SOL     OW24438   3.545   8.192   8.490  0.0484 -0.0287  0.3529
39918SOL    HW124439   3.626   8.149   8.462  0.6350  1.0483  0.3256
39918SOL    HW224440   3.575   8.264   8.545 -0.9988 -0.8652  2.0865
39919SOL     OW24441   7.309   0.898   5.634  0.3555  0.1496 -0.1065
39919SOL    HW124442   7.386   0.841   5.641  0.6050  0.6101  1.1116
39919SOL    HW224443   7.345   0.987   5.635 -0.0439  0.3731 -1.8047
39920SOL     OW24444   2.799   4.098   0.336  0.3820 -0.3819 -0.5765
39920SOL    HW124445   2.728   4.162   0.347 -0.4435 -1.3180 -0.2968
39920SOL    HW224446   2.841   4.123   0.254  1.5454  1.8901  0.5849
39921SOL     OW24447   9.575   6.254   5.294 -0.3666  0.4045  0.5897
39921SOL    HW124448   9.648   6.214   5.341  0.7273  0.5397 -0.9245
39921SOL    HW224449   9.609   6.270   5.206 -2.0336  1.0509  0.0249
39922SOL     OW24450   8.043  10.521   7.767 -0.1479 -0.5953  0.2885
39922SOL    HW124451   8.002  10.574   7.834  0.5615  0.3452 -0.0069
39922SOL    HW224452   8.136  10.520   7.790  0.0997 -0.2815 -0.6486
39923SOL     OW24453   0.979  11.907   5.300 -0.8337  0.0587 -0.2846
39923SOL    HW124454   1.004  11.826   5.345  0.1906  1.0558  1.0195
39923SOL    HW224455   1.008  11.895   5.210  3.5762  0.6659  0.8300
39924SOL     OW24456   1.058   8.562   9.774 -0.6746 -0.1471 -0.1076
39924SOL    HW124457   1.145   8.599   9.787 -1.0503  0.0922  1.9907
39924SOL    HW224458   1.069   8.468   9.789 -0.0873 -0.8006 -3.6546
39925SOL     OW24459  10.823   4.930   2.852 -0.3289 -0.4349  0.7280
39925SOL    HW124460  10.754   4.875   2.891  0.4527 -1.5758  0.5491
39925SOL    HW224461  10.825   4.903   2.760  0.0361 -0.0713  0.6300
39926SOL     OW24462   6.618   2.845  10.479  0.0861 -0.0472 -0.3067
39926SOL    HW124463   6.536   2.889  10.500 -0.5060 -1.3008  0.1409
39926SOL    HW224464   6.670   2.911  10.434 -0.8550  1.0117  0.1054
39927SOL     OW24465   4.272   6.673   1.966  0.2033 -0.0334  0.1097
39927SOL    HW124466   4.292   6.732   1.894 -0.0121 -0.6207 -0.4523
39927SOL    HW224467   4.355   6.631   1.987  0.1121 -0.4790 -0.3806
39928SOL     OW24468   1.995   8.293   4.134  0.8607 -0.2013  0.2636
39928SOL    HW124469   2.058   8.223   4.112  0.2994 -0.0067 -2.3941
39928SOL    HW224470   2.049   8.363   4.171  1.7307 -1.2593  1.0725
39929SOL     OW24471   9.617   2.244   4.264 -0.5074  0.0539  0.0101
39929SOL    HW124472   9.711   2.262   4.260 -0.0488 -2.2272 -0.7541
39929SOL    HW224473   9.588   2.288   4.343  1.0471  1.4070 -0.1117
39930SOL     OW24474  11.300   2.398   0.530  0.0176  0.0540 -0.9775
39930SOL    HW124475  11.265   2.441   0.607  0.3140  0.1803 -0.9110
39930SOL    HW224476  11.224   2.359   0.487 -0.1103 -0.2570 -0.4738
39931SOL     OW24477  11.874   2.303   1.779  0.0987 -0.2516 -0.2824
39931SOL    HW124478  11.895   2.215   1.810 -1.0655 -0.6957 -0.6658
39931SOL    HW224479  11.895   2.301   1.685  1.4564  0.3649 -0.0171
39932SOL     OW24480   1.872   1.465  10.994 -0.4864  0.0445 -0.1768
39932SOL    HW124481   1.868   1.444  10.901 -1.8201  0.2890 -0.1979
39932SOL    HW224482   1.882   1.381  11.038 -1.7206 -0.2679 -0.4627
39933SOL     OW24483   4.327   2.568   5.549  0.3805 -0.6201  0.7692
39933SOL    HW124484   4.383   2.574   5.626  1.7488  2.8697 -0.3265
39933SOL    HW224485   4.245   2.610   5.575  1.0359  1.0555  0.2574
39934SOL     OW24486   5.999   9.848   2.691 -0.3792  0.2858  0.0017
39934SOL    HW124487   5.954   9.795   2.757 -0.8603  1.8907  1.0372
39934SOL    HW224488   6.092   9.834   2.708 -0.4949 -0.8711 -0.2984
39935SOL     OW24489  11.174   6.405   4.518  1.1878  0.3951  0.0391
39935SOL    HW124490  11.247   6.459   4.487  0.5311  1.7121  0.7014
39935SOL    HW224491  11.136   6.368   4.439  4.0997 -2.5071 -0.2350
39936SOL     OW24492   4.363   2.147   1.349 -0.4677  0.4817 -0.5852
39936SOL    HW124493   4.296   2.105   1.295  1.1928 -0.0107 -2.3673
39936SOL    HW224494   4.372   2.235   1.314 -0.5804  0.7414  0.0234
39937SOL     OW24495   5.077   1.738   0.961  0.2864  0.1866 -0.0463
39937SOL    HW124496   5.155   1.790   0.945  0.9689 -0.8663 -0.2946
39937SOL    HW224497   5.059   1.696   0.876  1.3859 -2.0986  0.7646
39938SOL     OW24498   0.032   1.591   6.200  0.8229 -0.0978  0.3652
39938SOL    HW124499  -0.030   1.638   6.145  1.8119 -0.2583 -0.9397
39938SOL    HW224500   0.105   1.651   6.213  1.4280 -0.7239 -0.0639
39939SOL     OW24501  11.155   8.606   9.878 -0.6631  0.2211 -0.2981
39939SOL    HW124502  11.123   8.620   9.789 -0.9314 -1.0546 -0.4097
39939SOL    HW224503  11.077   8.613   9.933 -0.6854 -0.1151 -0.2830
39940SOL     OW24504   6.947  11.084   0.128 -0.5793 -0.3443 -0.1472
39940SOL    HW124505   7.020  11.039   0.085  0.5882 -2.1311  3.2784
39940SOL    HW224506   6.869  11.052   0.083  0.5886 -0.2007 -2.3919
39941SOL     OW24507  11.439   9.133   5.110  0.0078  0.7412  0.3219
39941SOL    HW124508  11.514   9.073   5.113  0.0851  0.8605  1.6292
39941SOL    HW224509  11.388   9.104   5.034  0.1338 -0.8854  0.8118
39942SOL     OW24510   9.392   4.271   6.600 -0.4658  0.7511 -0.3080
39942SOL    HW124511   9.296   4.274   6.600 -0.4919  0.1467 -0.3966
39942SOL    HW224512   9.413   4.190   6.648 -0.0377  0.1975 -1.3927
39943SOL     OW24513   6.283   5.568  11.460  0.1869  0.2744 -0.0782
39943SOL    HW124514   6.326   5.515  11.528  0.8136  1.5683  0.5699
39943SOL    HW224515   6.205   5.518  11.436  1.0032 -1.1737  0.1523
39944SOL     OW24516   7.631   5.429   3.462 -0.0682 -0.3796 -0.4277
39944SOL    HW124517   7.697   5.486   3.422  0.7823 -1.1013 -0.1073
39944SOL    HW224518   7.583   5.486   3.522  0.3793  0.1232 -0.5399
39945SOL     OW24519   0.589   0.484  10.747  0.3672  0.3225  0.4322
39945SOL    HW124520   0.606   0.397  10.711 -2.1542 -0.9830  2.1253
39945SOL    HW224521   0.527   0.524  10.687 -0.4938 -0.1358  0.9922
39946SOL     OW24522   2.654   6.807   2.810  0.1329  0.3655 -0.1852
39946SOL    HW124523   2.631   6.900   2.819  1.3025  0.5959  0.6207
39946SOL    HW224524   2.688   6.782   2.896 -2.5140 -1.5287  0.4336
39947SOL     OW24525   6.275   1.984   0.363 -0.3807  0.4762  0.1356
39947SOL    HW124526   6.354   2.016   0.318  1.4004 -1.4188  1.7279
39947SOL    HW224527   6.241   2.061   0.408 -0.6222  1.7728 -2.1085
39948SOL     OW24528  10.310  11.711  11.711  0.0607 -0.2323 -0.1112
39948SOL    HW124529  10.338  11.755  11.631  1.6225 -0.4475  0.2735
39948SOL    HW224530  10.375  11.739  11.777  0.5428 -2.3221  0.3784
39949SOL     OW24531   7.624   9.305   1.403 -0.2004  0.6772  0.2137
39949SOL    HW124532   7.553   9.242   1.412 -0.1864  0.4922 -0.8315
39949SOL    HW224533   7.657   9.318   1.492  0.3995 -1.4933  0.3604
39950SOL     OW24534   0.128   2.581   5.886  0.0683  0.3238  0.9787
39950SOL    HW124535   0.105   2.498   5.845 -1.6240  1.4835 -0.6098
39950SOL    HW224536   0.175   2.557   5.966 -0.3696 -2.1361  0.5615
39951SOL     OW24537  10.387   6.286   2.742 -0.0199  0.5814 -0.3804
39951SOL    HW124538  10.302   6.253   2.769 -0.7852  3.5765  1.2906
39951SOL    HW224539  10.434   6.302   2.824  2.1376 -0.7931 -1.2485
39952SOL     OW24540   2.187   6.834   6.307  0.1957  0.2909 -0.0401
39952SOL    HW124541   2.127   6.826   6.381  0.4261  0.3237  0.1519
39952SOL    HW224542   2.131   6.846   6.231  0.0046  1.7854  0.3163
39953SOL     OW24543  10.968   2.316   9.801 -0.1975  0.2752 -0.0936
39953SOL    HW124544  10.962   2.358   9.715  0.9190  1.9977  0.6246
39953SOL    HW224545  11.038   2.252   9.791  1.4758  2.0033  0.0790
39954SOL     OW24546   7.893   3.957   1.165  0.0609 -0.2801  0.1304
39954SOL    HW124547   7.799   3.957   1.147  0.1403 -0.3661 -0.2931
39954SOL    HW224548   7.919   4.049   1.154  0.3324 -0.5254 -1.4120
39955SOL     OW24549   9.096   7.629   2.752 -0.6649 -0.5766 -0.4060
39955SOL    HW124550   9.130   7.567   2.687 -2.0265 -1.8999  0.1155
39955SOL    HW224551   9.081   7.577   2.830 -0.8338  0.6347  0.3902
39956SOL     OW24552   6.283   0.439  10.760 -0.3153  0.0579 -0.1577
39956SOL    HW124553   6.198   0.447  10.717 -1.3495 -1.9959  1.2881
39956SOL    HW224554   6.278   0.497  10.836 -0.8230 -0.7253  0.4272
39957SOL     OW24555  10.233   9.080   9.364 -0.0329 -0.3397 -0.5714
39957SOL    HW124556  10.148   9.123   9.349  1.1186  1.9579 -0.9203
39957SOL    HW224557  10.228   8.999   9.312 -1.8353 -0.0576 -0.9277
39958SOL     OW24558   6.681   9.269   0.713 -0.2547 -0.7585 -0.3176
39958SOL    HW124559   6.602   9.313   0.683  0.4855 -1.1374 -3.0675
39958SOL    HW224560   6.726   9.335   0.767 -2.0774 -0.3476  0.8242
39959SOL     OW24561  10.198   2.879   0.098 -0.1369 -0.1369 -0.0231
39959SOL    HW124562  10.153   2.854   0.178 -2.1319 -0.1501 -1.0991
39959SOL    HW224563  10.133   2.928   0.048  1.8181  2.0526 -0.5898
39960SOL     OW24564   5.199   4.578   3.263 -0.0444 -0.3247 -0.0466
39960SOL    HW124565   5.114   4.579   3.307 -1.5262  0.3837 -2.7110
39960SOL    HW224566   5.191   4.642   3.193  2.6518 -0.3974 -0.5478
39961SOL     OW24567   4.659   6.914   4.089  0.1905  0.1429  0.3068
39961SOL    HW124568   4.705   6.846   4.040  0.1959  0.0554  0.4324
39961SOL    HW224569   4.592   6.867   4.139  0.3750  0.1977  0.6074
39962SOL     OW24570  10.527   7.676   1.208  0.0690  0.1760 -0.4977
39962SOL    HW124571  10.587   7.615   1.249 -0.4069 -0.6898 -1.0610
39962SOL    HW224572  10.558   7.763   1.235 -0.4987 -0.3556  2.0659
39963SOL     OW24573   4.299  11.982   1.204 -0.4243  0.0018 -0.7511
39963SOL    HW124574   4.280  12.038   1.278  1.3638  0.6380 -0.7283
39963SOL    HW224575   4.261  11.897   1.227 -1.8925  0.8067 -0.1518
39964SOL     OW24576   6.225   3.268  11.898 -0.2007  0.6012  0.3191
39964SOL    HW124577   6.307   3.313  11.915 -0.8191  2.2167 -0.6884
39964SOL    HW224578   6.223   3.258  11.803 -1.1061  0.4811  0.3427
39965SOL     OW24579   1.079   3.834   7.220 -0.7516 -0.0921 -0.8802
39965SOL    HW124580   1.124   3.759   7.259 -1.3332  0.3663  0.7913
39965SOL    HW224581   1.041   3.881   7.295 -0.3557  1.9121 -1.8501
39966SOL     OW24582   6.116   1.366   1.110 -0.1885 -0.1048  0.4200
39966SOL    HW124583   6.106   1.300   1.042 -0.8151  1.5313 -1.1763
39966SOL    HW224584   6.204   1.401   1.098  0.3345 -0.9655  1.5951
39967SOL     OW24585  11.266   2.028   6.200 -0.3857 -0.6013 -0.2649
39967SOL    HW124586  11.243   2.114   6.162 -0.2557 -0.3795  0.1541
39967SOL    HW224587  11.270   1.969   6.124  2.0265  0.2768 -0.9141
39968SOL     OW24588  11.439  10.323  10.215  0.1461  0.5420 -0.8590
39968SOL    HW124589  11.426  10.391  10.281 -1.3896  0.6650 -1.2663
39968SOL    HW224590  11.369  10.337  10.152 -2.4153 -3.4611  0.7436
39969SOL     OW24591   8.232   4.717   5.515  0.2473 -0.0745 -0.3493
39969SOL    HW124592   8.181   4.715   5.434  2.3467 -2.1803 -1.7383
39969SOL    HW224593   8.323   4.709   5.487  1.5218  3.3084  2.0083
39970SOL     OW24594   1.295   5.916   8.929  0.7865  0.0736  0.4474
39970SOL    HW124595   1.358   5.928   8.999  0.2847  0.5998  0.8132
39970SOL    HW224596   1.345   5.932   8.849  1.3132 -0.3493  0.6886
39971SOL     OW24597   0.795   0.962   0.589 -0.0466 -0.6625 -0.0420
39971SOL    HW124598   0.736   1.032   0.620  1.1977  0.1992  0.4528
39971SOL    HW224599   0.761   0.882   0.629 -1.7301 -0.4323 -0.9162
39972SOL     OW24600   6.186  11.602   8.677 -0.2712 -0.5943 -0.5918
39972SOL    HW124601   6.212  11.522   8.632  0.0880 -0.4095 -0.7167
39972SOL    HW224602   6.092  11.593   8.690  0.1557 -2.3067  1.9185
39973SOL     OW24603   9.305   3.834   8.396  0.2400 -0.4128  0.3340
39973SOL    HW124604   9.371   3.781   8.440 -1.3676 -1.3584  1.7315
39973SOL    HW224605   9.295   3.911   8.452 -2.9077 -2.3224  2.7239
39974SOL     OW24606   5.280   9.967   1.338  0.5856  0.0993 -0.0681
39974SOL    HW124607   5.280  10.017   1.257  0.8985  0.2002 -0.0078
39974SOL    HW224608   5.355  10.001   1.387  2.0086 -1.7491 -0.8445
39975SOL     OW24609  10.390  11.934   3.657 -0.0006  0.2032  0.2043
39975SOL    HW124610  10.299  11.953   3.639 -0.5283 -2.2692 -0.1417
39975SOL    HW224611  10.407  11.851   3.612  1.5923 -0.8382  2.4973
39976SOL     OW24612   8.444   3.343   1.799  0.3276 -0.4776 -0.6988
39976SOL    HW124613   8.423   3.403   1.871 -1.1326 -0.2816 -1.2541
39976SOL    HW224614   8.521   3.383   1.757 -0.4852  0.9212 -0.9245
39977SOL     OW24615  10.355   4.418   7.299  0.0017 -0.3140  0.1631
39977SOL    HW124616  10.403   4.488   7.342  2.1104 -1.4610 -0.2091
39977SOL    HW224617  10.303   4.462   7.231  1.0458  0.9066  0.1331
39978SOL     OW24618   7.026  10.270   7.223  0.2291 -0.0208  0.4671
39978SOL    HW124619   7.042  10.243   7.133 -0.9105 -1.1867  0.5846
39978SOL    HW224620   6.975  10.199   7.261 -0.7472  1.1967  1.5495
39979SOL     OW24621   6.580   2.224   8.727 -0.1109  0.5063  0.3644
39979SOL    HW124622   6.653   2.259   8.676 -0.0944  2.1921  1.4839
39979SOL    HW224623   6.539   2.160   8.669  0.5823  1.5388 -1.3254
39980SOL     OW24624   8.719   5.469   7.098 -0.0685 -0.0005  0.4716
39980SOL    HW124625   8.650   5.525   7.062  0.0324 -0.4577 -0.4746
39980SOL    HW224626   8.742   5.509   7.182  0.4241  1.7324 -0.4479
39981SOL     OW24627  11.120   3.234   6.758 -0.2201 -0.4854  0.1208
39981SOL    HW124628  11.041   3.238   6.811 -0.4291 -2.0403 -0.0305
39981SOL    HW224629  11.093   3.191   6.677  0.2351  1.2880 -1.0262
39982SOL     OW24630   1.914   1.557   1.098  0.4863  0.5201  0.3260
39982SOL    HW124631   1.822   1.564   1.070  0.4854  2.9659  0.7359
39982SOL    HW224632   1.964   1.581   1.020  0.7922 -0.3066  0.2554
39983SOL     OW24633   6.007  10.380   3.076 -0.5512  0.6635 -0.2751
39983SOL    HW124634   6.076  10.387   3.010  1.2349 -3.8790  0.8006
39983SOL    HW224635   5.934  10.339   3.029  0.2601 -1.3882  0.1814
39984SOL     OW24636   3.418   9.156   2.788 -0.3864  0.5087  0.2780
39984SOL    HW124637   3.497   9.184   2.833 -0.9952  0.7743  1.2130
39984SOL    HW224638   3.449   9.100   2.717  0.5783 -0.6007  1.5212
39985SOL     OW24639   4.917   1.138  10.670  0.4377 -0.2033 -0.5894
39985SOL    HW124640   5.006   1.161  10.643  1.3383  0.4903  2.5494
39985SOL    HW224641   4.905   1.183  10.753 -2.4341 -1.2699 -0.3245
39986SOL     OW24642   3.307   0.953  10.802 -0.1385 -0.4004  0.2593
39986SOL    HW124643   3.356   1.030  10.832  0.0193 -0.0093 -0.9368
39986SOL    HW224644   3.269   0.916  10.881  2.8704 -1.3035  1.4420
39987SOL     OW24645   8.942   3.025   3.125  0.4883  0.4043  0.3254
39987SOL    HW124646   8.935   3.109   3.171 -0.3379  0.5956 -0.1226
39987SOL    HW224647   8.899   2.962   3.183  0.1671  0.4924  0.1843
39988SOL     OW24648   7.373   3.826   4.272  0.5759 -0.2331  0.1963
39988SOL    HW124649   7.464   3.805   4.250  0.5742 -1.5764  1.3741
39988SOL    HW224650   7.377   3.914   4.309  0.9902  0.8368 -2.1710
39989SOL     OW24651   1.797  10.585   9.519  0.1718 -0.3994 -0.3033
39989SOL    HW124652   1.735  10.656   9.503  0.8339 -0.2439 -2.6135
39989SOL    HW224653   1.822  10.555   9.431  2.5374 -1.1589  0.5471
39990SOL     OW24654   2.416   0.177  11.597 -0.2054 -0.4729 -0.2181
39990SOL    HW124655   2.430   0.232  11.520 -1.0934  1.6830  1.0819
39990SOL    HW224656   2.384   0.094  11.561  1.3369 -0.2692 -2.2595
39991SOL     OW24657   4.828   9.255  10.989  0.5469 -0.4089 -0.0957
39991SOL    HW124658   4.842   9.315  11.063  1.5031  1.4127 -1.6563
39991SOL    HW224659   4.746   9.285  10.951 -0.9665 -2.5811  1.2727
39992SOL     OW24660   8.013  11.931   6.106  0.5206  0.2588  0.0566
39992SOL    HW124661   7.999  11.885   6.023  2.9292 -2.5829  1.0335
39992SOL    HW224662   7.928  11.930   6.148  0.1074 -2.0833 -0.6684
39993SOL     OW24663  11.529   2.309   2.553 -0.7738 -0.1112  0.3671
39993SOL    HW124664  11.521   2.276   2.464 -0.3323  0.2696  0.1799
39993SOL    HW224665  11.449   2.282   2.596 -1.9532  1.4365 -0.7176
39994SOL     OW24666   6.909   1.009   8.338  0.2597 -0.7487 -0.0428
39994SOL    HW124667   6.903   1.080   8.275  1.1075  1.5954  2.3484
39994SOL    HW224668   6.842   0.946   8.311  0.2032  0.4099 -2.8520
39995SOL     OW24669   6.072   2.655   2.965 -0.4231 -0.1854  0.0713
39995SOL    HW124670   5.990   2.624   3.002  0.1112 -2.0422 -0.1893
39995SOL    HW224671   6.067   2.630   2.872 -0.1453  0.9812 -0.2792
39996SOL     OW24672   6.649   4.964   1.320  0.0591  0.3162 -0.0422
39996SOL    HW124673   6.700   4.961   1.240 -0.8650  1.5684 -0.7156
39996SOL    HW224674   6.689   5.034   1.372 -0.0719  0.3096  0.0703
39997SOL     OW24675  11.178  10.758   9.099 -0.1721 -0.2075 -0.0538
39997SOL    HW124676  11.247  10.702   9.063 -2.6700 -3.5348 -0.1837
39997SOL    HW224677  11.169  10.729   9.190  0.0550  1.8111  0.6607
39998SOL     OW24678   7.587   4.725   3.777  0.1138  0.2412 -0.3525
39998SOL    HW124679   7.617   4.725   3.868  1.6879 -0.0258 -0.8358
39998SOL    HW224680   7.499   4.688   3.781  0.6205 -0.9178  0.9314
39999SOL     OW24681   8.652   1.091   6.425  0.3828 -0.2638 -0.5122
39999SOL    HW124682   8.684   1.029   6.360  0.8331 -0.6851  0.1037
39999SOL    HW224683   8.567   1.056   6.453 -0.2071  0.3515 -1.4500
40000SOL     OW24684   9.208  11.977  11.296 -0.5563  0.3597  0.5962
40000SOL    HW124685   9.252  12.053  11.259  1.4628 -0.2811  1.5577
40000SOL    HW224686   9.254  11.902  11.259  0.1928 -0.3187  2.7587
40001SOL     OW24687   9.803   7.212   5.393 -0.3492 -0.7164 -0.8405
40001SOL    HW124688   9.727   7.223   5.449 -0.8798 -1.7326 -1.3340
40001SOL    HW224689   9.794   7.280   5.326  0.3707  0.6068  0.3502
40002SOL     OW24690   4.771   4.326   2.168 -0.1853  0.0799 -0.3070
40002SOL    HW124691   4.845   4.269   2.187 -2.1702 -2.2054  1.2493
40002SOL    HW224692   4.735   4.293   2.086 -0.3182  0.2501 -0.3183
40003SOL     OW24693   9.198   6.640   5.657  0.0109  0.2108 -0.4171
40003SOL    HW124694   9.251   6.625   5.735 -0.4816  0.4979 -0.0195
40003SOL    HW224695   9.262   6.660   5.588  0.4447  0.0317 -0.0729
40004SOL     OW24696   4.458   7.781   2.447  0.2849  0.7639 -0.1491
40004SOL    HW124697   4.404   7.754   2.522  1.5428 -1.9190 -0.0830
40004SOL    HW224698   4.523   7.840   2.485  1.0116 -0.6876  1.0004
40005SOL     OW24699   7.385   8.299  11.975  0.4933  0.5268  0.5909
40005SOL    HW124700   7.328   8.359  12.023  0.6415  0.8570  0.3536
40005SOL    HW224701   7.474   8.330  11.992  0.4930  1.7733 -1.3443
40006SOL     OW24702   3.836  10.608   1.875  0.6601 -0.0623 -0.1118
40006SOL    HW124703   3.918  10.560   1.870 -0.0158 -1.2084 -0.5789
40006SOL    HW224704   3.821  10.640   1.785 -0.2433 -1.3380 -0.4429
40007SOL     OW24705   4.785   2.748   3.944  0.6643 -0.1817 -0.2543
40007SOL    HW124706   4.755   2.835   3.969 -0.1669 -0.4387 -0.3182
40007SOL    HW224707   4.865   2.763   3.893  1.4294  0.4436  1.0827
40008SOL     OW24708   0.911  10.909   4.368 -0.1832  0.5272  0.1274
40008SOL    HW124709   0.942  10.872   4.286 -1.4183 -0.8575  0.2472
40008SOL    HW224710   0.991  10.934   4.415  0.6151 -0.5533 -0.6233
40009SOL     OW24711   3.478   5.994   7.736 -0.1485  0.6985  0.3688
40009SOL    HW124712   3.526   5.912   7.750 -2.5071 -1.2954 -2.0765
40009SOL    HW224713   3.439   6.014   7.821  2.7288  0.9389  1.7291
40010SOL     OW24714   6.585   9.271   5.078 -0.0936 -0.3056  0.1683
40010SOL    HW124715   6.546   9.237   4.997 -1.0960  2.1294 -0.4607
40010SOL    HW224716   6.585   9.366   5.067  1.0085  0.0446  2.4935
40011SOL     OW24717   5.086   1.172   0.040  0.3187 -0.1819  0.1445
40011SOL    HW124718   5.032   1.111   0.090  0.4981 -0.1681  0.3589
40011SOL    HW224719   5.046   1.174  -0.046  0.4402 -0.7805  0.0654
40012SOL     OW24720   0.567   0.022   5.655  0.0639  0.0224 -0.3837
40012SOL    HW124721   0.493  -0.035   5.677  1.3305 -1.1185  1.2627
40012SOL    HW224722   0.540   0.109   5.684 -0.8572 -0.2610 -0.3523
40013SOL     OW24723   4.143  11.329   5.216  0.2930 -0.8953 -0.0428
40013SOL    HW124724   4.047  11.332   5.214  0.2740 -0.4174  0.7885
40013SOL    HW224725   4.167  11.392   5.284  1.2935  0.4022 -1.5446
40014SOL     OW24726   2.510  11.346   5.599  0.1390  0.1085 -0.3059
40014SOL    HW124727   2.576  11.351   5.669 -0.6189 -0.6886  0.5057
40014SOL    HW224728   2.443  11.409   5.625 -0.1124 -0.1399 -0.3502
40015SOL     OW24729   2.937   3.477   6.407 -0.2869  0.3550 -0.0353
40015SOL    HW124730   2.893   3.485   6.491 -0.2048 -0.5521  0.1087
40015SOL    HW224731   2.867   3.473   6.342 -0.4585 -1.0560  0.1899
40016SOL     OW24732   7.962   1.689   1.773 -0.3328  0.0907 -0.0084
40016SOL    HW124733   7.874   1.651   1.769 -0.6083  0.7911 -1.0716
40016SOL    HW224734   8.012   1.627   1.826 -0.4776 -2.4140 -2.5509
40017SOL     OW24735   8.737   9.098  11.352  0.4217  0.0846  0.6190
40017SOL    HW124736   8.719   9.072  11.261  0.7222  2.2140 -0.0942
40017SOL    HW224737   8.832   9.106  11.356  0.3406  0.9819  0.8296
40018SOL     OW24738  10.417   6.272   0.262 -0.2985 -0.8407 -0.6597
40018SOL    HW124739  10.417   6.277   0.167  0.9420 -0.1359 -0.6306
40018SOL    HW224740  10.486   6.332   0.290  0.2360 -1.9963  0.6293
40019SOL     OW24741   7.728  10.660   3.965  0.1273 -0.3165 -0.6478
40019SOL    HW124742   7.633  10.657   3.965  0.1286 -2.0375  1.0875
40019SOL    HW224743   7.751  10.693   4.052  1.1283  1.0353 -1.3948
40020SOL     OW24744   8.304   0.691  11.684 -0.6078 -0.4192  0.3842
40020SOL    HW124745   8.209   0.690  11.694 -0.5552  0.6123  1.1910
40020SOL    HW224746   8.330   0.778  11.714  0.4318 -0.0105 -1.5760
40021SOL     OW24747   6.110   3.743   8.030  0.2600  0.3164 -0.5668
40021SOL    HW124748   6.168   3.667   8.036  3.3928  2.3992 -1.8412
40021SOL    HW224749   6.113   3.783   8.116  0.8056  0.4342 -0.6359
40022SOL     OW24750   4.893   6.594   4.160 -0.4411  0.4757 -0.0150
40022SOL    HW124751   4.946   6.661   4.201 -0.7764  0.3097  0.6966
40022SOL    HW224752   4.906   6.607   4.066  1.2717  0.1075  0.1366
40023SOL     OW24753   9.755  10.397   6.546  0.0626 -0.4059 -0.2890
40023SOL    HW124754   9.836  10.398   6.496  1.9125 -0.4154  2.4753
40023SOL    HW224755   9.722  10.487   6.541  1.3090  0.0931  0.0658
40024SOL     OW24756   4.429   4.294  10.648 -0.3068 -0.3862  0.0541
40024SOL    HW124757   4.511   4.339  10.666 -0.3916 -0.2135  0.0109
40024SOL    HW224758   4.441   4.206  10.684 -0.1146 -0.3520  0.0734
40025SOL     OW24759   7.293  11.419   3.081  0.4634  0.1669 -0.4361
40025SOL    HW124760   7.215  11.406   3.026  0.0219  0.7743  0.0280
40025SOL    HW224761   7.346  11.483   3.033  0.1998  0.5005 -0.2897
40026SOL     OW24762   6.241   2.096   8.082  0.1315 -0.4785  0.1812
40026SOL    HW124763   6.245   2.110   7.988 -0.5989  2.1373  0.4602
40026SOL    HW224764   6.332   2.084   8.109  0.9526  3.2823 -0.3797
40027SOL     OW24765  10.655   6.040   1.892 -0.2300  0.3121 -0.0037
40027SOL    HW124766  10.582   6.057   1.952  1.0157  3.2122  0.8482
40027SOL    HW224767  10.652   6.112   1.830  0.3226 -1.0429 -1.6884
40028SOL     OW24768   4.745   7.768   6.162  0.0605  0.4478  0.0879
40028SOL    HW124769   4.654   7.786   6.140  0.5200  0.9452 -1.5989
40028SOL    HW224770   4.771   7.842   6.217 -0.3383  0.7235 -0.0842
40029SOL     OW24771   6.773   2.349   9.216 -1.0631  0.1252 -0.2025
40029SOL    HW124772   6.837   2.410   9.253  1.8766 -1.9203 -1.4858
40029SOL    HW224773   6.772   2.275   9.278 -0.1976 -0.9510 -1.4140
40030SOL     OW24774  10.639   9.849   3.025  0.4096 -0.2862  0.5318
40030SOL    HW124775  10.669   9.759   3.012 -1.9625 -1.0849  0.1173
40030SOL    HW224776  10.623   9.882   2.936 -0.0480  0.0516  0.7333
40031SOL     OW24777   7.818   5.171   3.260  0.5951  0.5125  0.4824
40031SOL    HW124778   7.889   5.209   3.313  1.7362  1.9768 -1.9242
40031SOL    HW224779   7.743   5.167   3.320  2.4745 -0.5076  2.9662
40032SOL     OW24780   9.482   9.139   9.315  0.5487 -0.0946  0.3815
40032SOL    HW124781   9.498   9.200   9.387  0.1786 -0.6579  0.9606
40032SOL    HW224782   9.504   9.053   9.352 -0.0186 -0.4327 -0.0472
40033SOL     OW24783   4.036   6.750   3.466 -0.2348 -0.9893  0.5052
40033SOL    HW124784   4.037   6.843   3.443  0.3349 -0.6563  1.8011
40033SOL    HW224785   3.944   6.731   3.483 -0.4032 -0.7587 -0.1075
40034SOL     OW24786   7.171   3.186   6.044  0.2112 -0.0448 -0.1315
40034SOL    HW124787   7.150   3.264   5.992 -0.1523  1.0774  1.6211
40034SOL    HW224788   7.101   3.182   6.109  0.7206 -1.3443  0.3512
40035SOL     OW24789   3.778   7.247   6.275 -0.4648 -0.4588 -0.1755
40035SOL    HW124790   3.802   7.238   6.183 -0.3084 -1.4045 -0.0475
40035SOL    HW224791   3.750   7.338   6.283  0.8559  0.0423 -0.8476
40036SOL     OW24792   9.443  11.523  10.845 -0.3332 -0.2508  0.0897
40036SOL    HW124793   9.372  11.565  10.894  0.5427 -0.6742  1.8006
40036SOL    HW224794   9.479  11.458  10.906  2.7354  1.1893 -0.0259
40037SOL     OW24795   0.589   5.270   3.537  0.2171  0.2832  0.3595
40037SOL    HW124796   0.642   5.242   3.611  0.1546  1.0507  0.7093
40037SOL    HW224797   0.575   5.191   3.485  2.4513  0.2065 -0.2345
40038SOL     OW24798   3.291  10.721   2.046 -0.1366  0.1535 -0.6704
40038SOL    HW124799   3.210  10.761   2.078  1.0636  1.8109  0.4574
40038SOL    HW224800   3.325  10.672   2.122  0.0383 -0.3587 -1.0727
40039SOL     OW24801   4.026   8.568   3.277 -0.1876 -0.0942  0.2195
40039SOL    HW124802   3.935   8.589   3.300 -0.1012 -1.1213  1.5660
40039SOL    HW224803   4.028   8.473   3.273  0.6372 -0.0548 -0.7352
40040SOL     OW24804   5.987   8.852   7.254  0.4137  0.2404 -0.8256
40040SOL    HW124805   5.994   8.937   7.296  2.1000  0.3966 -1.3626
40040SOL    HW224806   5.954   8.870   7.167 -2.6174 -0.0387  0.1620
40041SOL     OW24807   8.701  11.292   3.005  0.0277  0.3811 -0.1192
40041SOL    HW124808   8.722  11.214   2.954  0.7881  0.3975  0.1541
40041SOL    HW224809   8.755  11.284   3.084 -1.0636  0.3941  0.6484
40042SOL     OW24810  11.886   8.953   9.504 -0.3639 -0.2398  0.0392
40042SOL    HW124811  11.936   8.872   9.521 -0.7232 -0.5049 -0.1518
40042SOL    HW224812  11.953   9.021   9.494 -0.0225 -0.6269 -0.3926
40043SOL     OW24813   8.023   3.196   2.718 -0.2195  0.4245 -0.1301
40043SOL    HW124814   8.025   3.106   2.684 -1.0309 -0.1631  1.2959
40043SOL    HW224815   8.109   3.209   2.757 -0.3350  0.0039  0.2763
40044SOL     OW24816  10.175  10.009   8.572 -0.0970 -0.0573  0.0322
40044SOL    HW124817  10.183   9.915   8.561  1.6214  0.1790 -1.3494
40044SOL    HW224818  10.183  10.044   8.483 -0.5691  1.4035  0.5267
40045SOL     OW24819   6.711   1.061   5.488  0.6708 -0.4025  0.3135
40045SOL    HW124820   6.764   1.063   5.568  0.0798  0.1700  0.6923
40045SOL    HW224821   6.727   0.973   5.452  1.4300 -0.4414  0.7187
40046SOL     OW24822  10.398   0.135   1.586  0.6289 -0.1019  0.2136
40046SOL    HW124823  10.359   0.193   1.521  0.5519  0.0624  0.4053
40046SOL    HW224824  10.377   0.047   1.556  1.5223 -0.0664 -0.5762
40047SOL     OW24825   3.734   4.052   8.496  0.4008  0.1537 -0.7810
40047SOL    HW124826   3.709   4.142   8.475  0.4386 -0.6214 -4.8765
40047SOL    HW224827   3.824   4.059   8.527 -0.4619  1.6934  1.6568
40048SOL     OW24828  11.712   5.620   9.860 -0.0838 -0.5004 -0.1248
40048SOL    HW124829  11.656   5.697   9.856 -1.2407 -1.3612 -2.4447
40048SOL    HW224830  11.800   5.655   9.871 -0.7404  1.0532  0.4662
40049SOL     OW24831   0.099  10.754   4.790  0.6386 -0.7032 -0.0650
40049SOL    HW124832   0.114  10.791   4.877  1.9441 -0.2638 -0.4517
40049SOL    HW224833   0.164  10.684   4.783 -1.3354 -2.6756  0.3831
40050SOL     OW24834   2.918   4.446  10.161 -0.5319 -0.7198  0.0519
40050SOL    HW124835   2.825   4.467  10.148 -0.4269  0.2439  0.7829
40050SOL    HW224836   2.935   4.470  10.252  0.3370 -1.2966  0.0492
40051SOL     OW24837   2.881   3.068  11.400 -0.2384  0.1924 -0.0008
40051SOL    HW124838   2.960   3.051  11.451 -1.4649 -0.7397  1.7156
40051SOL    HW224839   2.869   2.990  11.347 -0.4664 -0.0598  0.4125
40052SOL     OW24840   7.456   2.809   3.559  0.1341 -0.6992 -0.2064
40052SOL    HW124841   7.368   2.846   3.562 -0.4115 -1.9488 -0.0520
40052SOL    HW224842   7.449   2.736   3.497  0.9831 -1.0061  0.0446
40053SOL     OW24843   0.950   6.932   7.350 -0.0461  0.0226 -0.0770
40053SOL    HW124844   0.912   7.019   7.344  1.4729  0.8119  1.0045
40053SOL    HW224845   1.017   6.929   7.281 -0.1816 -0.3464 -0.1982
40054SOL     OW24846   0.831   0.325   5.365 -0.2734 -0.2897 -0.2433
40054SOL    HW124847   0.838   0.324   5.269  0.1175  0.1653 -0.2256
40054SOL    HW224848   0.761   0.388   5.382  0.0087  0.0209 -0.2174
40055SOL     OW24849   4.832   5.840   2.863 -0.0445  0.0983 -0.7444
40055SOL    HW124850   4.864   5.927   2.889  1.9063 -1.2731  1.9479
40055SOL    HW224851   4.906   5.800   2.818  0.5024 -1.4480  1.3931
40056SOL     OW24852   4.639   4.271   9.765  0.3193  0.2975  0.6807
40056SOL    HW124853   4.674   4.212   9.698 -0.9739 -0.3905  0.5793
40056SOL    HW224854   4.675   4.357   9.742  1.3075 -0.2337  0.1522
40057SOL     OW24855   5.812   2.774   8.722 -0.3385 -0.9497  0.2840
40057SOL    HW124856   5.869   2.817   8.786  0.8597 -2.4403  0.2734
40057SOL    HW224857   5.740   2.738   8.773 -1.1485  0.6662  0.3440
40058SOL     OW24858  11.292   4.581  10.726  0.0698 -0.3015  0.1399
40058SOL    HW124859  11.264   4.646  10.791 -1.1457 -2.1875  1.6361
40058SOL    HW224860  11.363   4.533  10.769  0.6785 -0.2626 -0.7836
40059SOL     OW24861  11.722   0.374   8.575 -0.0498 -0.0300  0.0639
40059SOL    HW124862  11.801   0.407   8.617  0.3208 -0.1702 -0.5084
40059SOL    HW224863  11.654   0.438   8.597 -0.1197 -0.6358  1.7298
40060SOL     OW24864   0.891   3.472   2.139 -0.4003 -0.1550 -0.0021
40060SOL    HW124865   0.986   3.482   2.139 -0.5584  1.7004  0.3785
40060SOL    HW224866   0.868   3.466   2.232 -0.6535 -0.5722 -0.0912
40061SOL     OW24867  11.630  11.830   2.713 -0.4998  0.5189 -0.1393
40061SOL    HW124868  11.713  11.850   2.669 -0.5304 -0.9818 -0.9586
40061SOL    HW224869  11.563  11.855   2.649 -0.5657 -0.9049 -0.6765
40062SOL     OW24870   2.727   0.666   4.661 -0.4008  0.1429  0.3692
40062SOL    HW124871   2.645   0.641   4.703 -0.3147  1.0470  1.0932
40062SOL    HW224872   2.748   0.752   4.698  0.9068 -0.1102  0.2576
40063SOL     OW24873  11.736  11.490   4.502 -0.0536 -0.4996 -0.2753
40063SOL    HW124874  11.782  11.442   4.570 -1.0641 -2.5310 -0.9391
40063SOL    HW224875  11.801  11.551   4.467  1.3200 -1.4143  0.5876
40064SOL     OW24876   1.023   6.808   3.888  0.2853 -0.1252  0.0901
40064SOL    HW124877   0.944   6.772   3.848  0.0093 -1.0328  1.3610
40064SOL    HW224878   1.067   6.855   3.818 -0.3950 -1.2658 -1.1511
40065SOL     OW24879   8.304  11.097   1.010 -0.2605  0.2577 -0.5301
40065SOL    HW124880   8.324  11.054   0.927 -0.7958 -0.7241 -0.1608
40065SOL    HW224881   8.372  11.163   1.020  0.9542 -0.9248 -0.8090
40066SOL     OW24882   7.204   9.525   0.937  0.4339 -0.2403 -0.2338
40066SOL    HW124883   7.231   9.617   0.936 -1.5945  0.4644  1.6586
40066SOL    HW224884   7.117   9.526   0.977  0.9560 -3.1276  1.2279
40067SOL     OW24885   7.099   4.896   0.707  0.2686 -0.2994 -0.5100
40067SOL    HW124886   7.165   4.930   0.647 -2.2734  0.3537 -3.1258
40067SOL    HW224887   7.085   4.967   0.770  0.9372  0.1830 -0.8910
40068SOL     OW24888   4.162  10.072   3.110  0.4492  0.4031 -0.1779
40068SOL    HW124889   4.095  10.116   3.058  0.0643  3.2518  2.4535
40068SOL    HW224890   4.243  10.119   3.090  0.4866  0.8622  0.9634
40069SOL     OW24891  11.031   8.215   5.141  0.3780 -0.2109  0.3562
40069SOL    HW124892  10.982   8.157   5.082  2.0314 -0.2970 -1.0355
40069SOL    HW224893  11.033   8.168   5.224  0.4270 -1.4980 -0.3361
40070SOL     OW24894   1.257   8.195   8.443 -0.2773  0.2781 -0.9911
40070SOL    HW124895   1.311   8.246   8.504  0.4193  0.0374 -1.3984
40070SOL    HW224896   1.168   8.209   8.473  0.0255  0.5249 -0.1818
40071SOL     OW24897  11.029   3.250   5.539 -0.1806 -0.0513 -1.0416
40071SOL    HW124898  11.119   3.240   5.572 -0.3098  0.1895 -0.6029
40071SOL    HW224899  10.976   3.259   5.618 -0.9427 -2.7431 -1.1463
40072SOL     OW24900   8.204   0.802  11.997  0.1005 -0.0253  0.2479
40072SOL    HW124901   8.285   0.791  12.047 -0.5039 -0.2617  1.1875
40072SOL    HW224902   8.145   0.847  12.057 -0.6809 -0.4176 -0.2225
40073SOL     OW24903   9.042   0.749   9.424  0.2390 -0.0192 -0.4559
40073SOL    HW124904   9.074   0.659   9.427 -0.2465 -0.3053 -2.5427
40073SOL    HW224905   8.949   0.741   9.401 -0.2300  0.9782  0.9545
40074SOL     OW24906  10.493   0.186   3.125  0.7163  0.3862 -0.3531
40074SOL    HW124907  10.412   0.233   3.105 -0.1864  0.1271  2.3014
40074SOL    HW224908  10.479   0.097   3.092 -0.4178  0.1475  0.7055
40075SOL     OW24909   4.630   9.944   4.792 -0.3200 -0.3244  0.8260
40075SOL    HW124910   4.590   9.915   4.874  1.8893 -1.1872  1.6724
40075SOL    HW224911   4.709   9.990   4.819  1.1439 -1.7426 -0.8354
40076SOL     OW24912   3.505   7.016   0.425 -0.0987 -0.1751 -0.0178
40076SOL    HW124913   3.471   7.082   0.364 -0.8123  0.1217  0.6850
40076SOL    HW224914   3.455   7.029   0.505 -1.9252 -3.0724 -0.5524
40077SOL     OW24915   2.229   0.840   0.120  0.7956 -0.1501  0.0707
40077SOL    HW124916   2.253   0.925   0.156 -0.7524  0.3056  0.1164
40077SOL    HW224917   2.163   0.806   0.181  0.8628 -1.0626 -0.3450
40078SOL     OW24918   7.099   6.321   7.853 -0.0797 -0.6398 -0.2255
40078SOL    HW124919   7.073   6.311   7.944 -1.7657 -0.4981 -0.6525
40078SOL    HW224920   7.124   6.413   7.844 -1.4947 -0.2375 -0.2551
40079SOL     OW24921   8.673  11.017  11.239  0.1260  0.5782  0.6814
40079SOL    HW124922   8.601  11.010  11.302 -1.0645  1.7990 -0.4592
40079SOL    HW224923   8.752  11.004  11.291 -0.8987 -0.5603  2.0236
40080SOL     OW24924   8.691   0.677   9.669 -0.0654 -0.2689 -0.3247
40080SOL    HW124925   8.685   0.760   9.716 -1.4551  0.5460 -1.8373
40080SOL    HW224926   8.729   0.699   9.584 -0.7229 -1.1062 -0.8600
40081SOL     OW24927   2.884   0.198   3.751 -0.4497 -0.6125 -0.1599
40081SOL    HW124928   2.965   0.250   3.749 -1.4801  1.0609  0.1043
40081SOL    HW224929   2.883   0.161   3.840 -0.8285  0.8102  0.4520
40082SOL     OW24930   2.635   6.324   2.480  0.5226 -0.1221 -0.5903
40082SOL    HW124931   2.698   6.253   2.492  1.0505  0.6355  1.4955
40082SOL    HW224932   2.625   6.362   2.567 -2.0374  0.4703 -1.0623
40083SOL     OW24933   5.469   7.187  11.845 -0.4639  0.2124 -0.5205
40083SOL    HW124934   5.392   7.243  11.848  0.3853  1.4338 -0.3142
40083SOL    HW224935   5.497   7.190  11.753 -0.1870  0.4700 -0.4299
40084SOL     OW24936  10.033   5.988   9.319  0.2742 -0.2640  0.0564
40084SOL    HW124937  10.101   5.921   9.307  0.3491 -0.3226  0.7614
40084SOL    HW224938  10.018   6.022   9.231 -0.4262 -1.8484 -0.4717
40085SOL     OW24939   5.911  11.818   2.702 -0.1781  0.8085 -0.7248
40085SOL    HW124940   5.887  11.771   2.782  0.1992  2.0699  0.1729
40085SOL    HW224941   5.878  11.764   2.631  0.6344 -1.0219  0.2286
40086SOL     OW24942   3.718   2.109   1.258  0.1140  0.1252 -0.3313
40086SOL    HW124943   3.724   2.015   1.276  0.7319 -0.1457 -1.8321
40086SOL    HW224944   3.710   2.149   1.345  1.3001 -1.2012  0.4394
40087SOL     OW24945   6.650   0.083   6.621 -0.2418 -0.0366  0.5455
40087SOL    HW124946   6.659   0.114   6.711 -1.0871 -0.5085  0.8046
40087SOL    HW224947   6.702   0.003   6.617 -1.8158 -1.1309  1.2005
40088SOL     OW24948   2.715   0.182   1.618  0.0362 -0.3032 -0.4218
40088SOL    HW124949   2.777   0.186   1.691  0.2429  1.9295 -0.6383
40088SOL    HW224950   2.630   0.172   1.660 -0.0376  2.5329  0.3587
40089SOL     OW24951   0.669   1.138   9.301  0.6016 -0.3580 -0.1392
40089SOL    HW124952   0.610   1.193   9.352  0.7025  1.0547 -1.4673
40089SOL    HW224953   0.756   1.158   9.335  0.4905 -1.1238  0.6308
40090SOL     OW24954  11.983   5.207  11.874  0.3592 -0.1928  0.5441
40090SOL    HW124955  11.916   5.195  11.941 -0.9485 -0.1739 -0.6976
40090SOL    HW224956  12.026   5.122  11.866  0.2757 -0.2886  1.1429
40091SOL     OW24957   4.306   9.027   4.436 -0.1834 -0.1665  0.1184
40091SOL    HW124958   4.393   9.007   4.470  1.1800  0.4741 -2.6869
40091SOL    HW224959   4.289   8.958   4.372 -0.7659  0.8814 -0.8964
40092SOL     OW24960   0.885   3.346   0.819 -0.9139  0.3016 -0.3553
40092SOL    HW124961   0.801   3.321   0.856 -1.4147  0.7748 -1.1593
40092SOL    HW224962   0.865   3.380   0.731  0.2629 -1.0262 -1.1842
40093SOL     OW24963   4.243  10.770   8.843 -0.5024  0.4492  0.5162
40093SOL    HW124964   4.196  10.847   8.877 -2.3456 -0.9396  1.2846
40093SOL    HW224965   4.191  10.695   8.872  0.6507 -1.0693 -1.0984
40094SOL     OW24966  10.692   6.091   2.507  0.0370  0.2170 -0.2693
40094SOL    HW124967  10.669   6.123   2.594 -0.2356 -1.5347  0.3393
40094SOL    HW224968  10.651   6.005   2.501  1.1960 -0.2920 -1.5980
40095SOL     OW24969   8.808  10.133   2.470 -0.1035 -0.1955 -0.1796
40095SOL    HW124970   8.821  10.126   2.565  0.3143 -2.7887 -0.3465
40095SOL    HW224971   8.722  10.174   2.461 -0.2248 -0.0477  1.3173
40096SOL     OW24972   1.069  11.910   8.864 -0.2447  0.2554  0.1279
40096SOL    HW124973   1.102  11.826   8.831 -1.7342 -0.2276 -0.2034
40096SOL    HW224974   1.065  11.898   8.959  2.8044  1.1970  0.4780
40097SOL     OW24975   6.034   1.777   3.123 -0.2739 -0.4372 -0.3383
40097SOL    HW124976   6.127   1.798   3.124 -0.0144 -1.5258 -0.3027
40097SOL    HW224977   6.021   1.717   3.196 -0.1152 -3.7015 -2.7552
40098SOL     OW24978   2.293   1.408   1.261  0.1235  0.0321 -0.8764
40098SOL    HW124979   2.268   1.500   1.273 -1.4634 -0.5316  0.4337
40098SOL    HW224980   2.253   1.383   1.178 -1.0981  0.0060 -0.2941
40099SOL     OW24981   1.565   2.719   6.134 -0.1853 -0.3657 -0.4290
40099SOL    HW124982   1.633   2.652   6.144 -0.0280 -0.2815 -0.8835
40099SOL    HW224983   1.563   2.764   6.218  0.8475  0.1219 -0.6524
40100SOL     OW24984   3.279   0.835   6.990 -0.4275 -0.3008 -0.5340
40100SOL    HW124985   3.273   0.909   6.930 -2.4814 -0.9439 -1.1962
40100SOL    HW224986   3.205   0.846   7.050  0.6976 -0.4933  0.9384
40101SOL     OW24987   3.838   4.111   3.100  0.1116  0.0065  0.1909
40101SOL    HW124988   3.878   4.116   3.187  0.2044  0.5685  0.1182
40101SOL    HW224989   3.911   4.125   3.040 -0.2031  1.1745  0.0599
40102SOL     OW24990   4.389   8.180   3.392 -0.7468  0.2114 -0.3515
40102SOL    HW124991   4.440   8.109   3.352  0.4908  0.8729 -0.0001
40102SOL    HW224992   4.419   8.182   3.483 -2.2929 -0.1610  0.1828
40103SOL     OW24993   1.529   4.256   7.182  0.2093 -0.0171 -0.2012
40103SOL    HW124994   1.623   4.250   7.198  0.4356  2.0122 -0.4951
40103SOL    HW224995   1.520   4.326   7.117 -1.6461  1.9046  1.9283
40104SOL     OW24996   6.824   2.774   2.706  0.0202  0.3750  0.2704
40104SOL    HW124997   6.845   2.767   2.613 -0.1241 -1.3352  0.3460
40104SOL    HW224998   6.753   2.839   2.710 -1.2375 -0.8606 -1.0239
40105SOL     OW24999   7.703  11.230   3.170  0.2538  0.1608 -0.0173
40105SOL    HW125000   7.616  11.238   3.131  0.9495 -0.7813 -1.9012
40105SOL    HW225001   7.709  11.304   3.231 -1.5903  0.6348 -0.3501
40106SOL     OW25002   2.684   1.278   7.534  0.3863  0.3011 -0.0829
40106SOL    HW125003   2.712   1.200   7.486  0.8276 -0.5282  1.4431
40106SOL    HW225004   2.710   1.260   7.625 -1.6417  1.2002  0.7200
40107SOL     OW25005   3.220   8.203  10.644 -0.6555  0.0797 -0.2596
40107SOL    HW125006   3.194   8.288  10.680  1.2676  0.3394  0.6235
40107SOL    HW225007   3.302   8.220  10.598  0.6244 -1.5171  1.2649
40108SOL     OW25008   7.402   2.606   1.643  0.3759 -0.2382  0.6053
40108SOL    HW125009   7.384   2.514   1.661  0.4456 -0.7786 -1.7966
40108SOL    HW225010   7.496   2.608   1.623  0.7340  0.6720  2.1992
40109SOL     OW25011   0.980   0.262   8.414 -0.5495  0.5758  0.7605
40109SOL    HW125012   1.075   0.271   8.409 -0.6252  0.8680 -0.5074
40109SOL    HW225013   0.951   0.337   8.465 -0.2056  1.2075  0.0396
40110SOL     OW25014   0.695  11.875   6.970 -0.6733 -0.1675 -0.4733
40110SOL    HW125015   0.745  11.891   7.050 -1.3830  0.3599 -0.1263
40110SOL    HW225016   0.721  11.947   6.911 -0.0467 -0.6337 -0.7839
40111SOL     OW25017  11.552   5.292   4.384 -0.2518 -0.1269 -0.8140
40111SOL    HW125018  11.503   5.292   4.301  0.7034 -1.3312 -1.4129
40111SOL    HW225019  11.486   5.312   4.451 -1.1843  0.1628 -1.7894
40112SOL     OW25020   0.877   9.787   4.453 -0.2728 -0.4139  0.2860
40112SOL    HW125021   0.800   9.737   4.423  0.4627 -0.6784 -1.2824
40112SOL    HW225022   0.895   9.847   4.380 -0.2498  1.1436  1.5288
40113SOL     OW25023   9.797   9.455   9.155 -0.5494 -0.4789 -0.2393
40113SOL    HW125024   9.704   9.450   9.173 -0.5411  0.1732  0.0158
40113SOL    HW225025   9.839   9.442   9.240 -0.4149 -0.5837 -0.3219
40114SOL     OW25026   6.838   3.904   8.804  0.1767 -0.6988 -0.0458
40114SOL    HW125027   6.776   3.834   8.784 -1.0537  0.6042 -1.0168
40114SOL    HW225028   6.877   3.879   8.888 -1.2127 -1.8640  0.2803
40115SOL     OW25029   8.958   8.435   7.693 -0.3842 -0.2295 -0.0751
40115SOL    HW125030   8.899   8.359   7.689  1.1079 -1.3874 -0.8440
40115SOL    HW225031   9.043   8.398   7.714  0.0451  1.4581  1.3616
40116SOL     OW25032   5.618   1.779   5.116  0.4718 -0.0123 -0.4206
40116SOL    HW125033   5.701   1.740   5.145  0.5613 -1.0952 -2.0028
40116SOL    HW225034   5.621   1.775   5.020 -0.5888  1.7389 -0.5756
40117SOL     OW25035   5.502   2.154  11.108  0.3091  0.0106 -0.0175
40117SOL    HW125036   5.468   2.095  11.175  1.5915 -1.4096 -0.5534
40117SOL    HW225037   5.509   2.099  11.030 -0.5279  1.4626 -1.1422
40118SOL     OW25038   4.520   6.161   0.619  0.6091 -0.0886 -0.1396
40118SOL    HW125039   4.574   6.142   0.695 -0.2897 -0.1314  0.5045
40118SOL    HW225040   4.481   6.077   0.596 -1.8034  0.4981  1.4819
40119SOL     OW25041   8.842  11.384   1.279 -0.2228 -0.6776 -0.2155
40119SOL    HW125042   8.760  11.335   1.278 -0.3198 -0.6250  1.7969
40119SOL    HW225043   8.909  11.318   1.298  0.2328 -0.7011 -1.7388
40120SOL     OW25044   0.035   4.125   4.888  0.1109  0.2941  0.7453
40120SOL    HW125045  -0.048   4.104   4.931 -0.0691 -1.0351 -0.1961
40120SOL    HW225046   0.016   4.204   4.838 -0.5884  0.0396  0.5847
40121SOL     OW25047  10.037   2.985  11.722  0.1885  0.5671 -0.4819
40121SOL    HW125048  10.061   2.893  11.709  0.1019  0.6728 -1.5031
40121SOL    HW225049   9.951   2.982  11.762  0.8623  0.1991  1.0015
40122SOL     OW25050   9.050   8.308   3.592 -0.1607 -0.7414  0.2641
40122SOL    HW125051   9.086   8.331   3.678  0.9007  0.4391 -0.4607
40122SOL    HW225052   9.087   8.223   3.572  2.6852  0.5852 -0.6244
40123SOL     OW25053  10.690  10.356   2.558  0.4074 -0.5924 -0.2333
40123SOL    HW125054  10.766  10.381   2.506 -0.1810  1.5478 -0.1398
40123SOL    HW225055  10.698  10.408   2.638 -0.3507 -1.5181  0.4673
40124SOL     OW25056  11.444   5.567   3.304  0.6808 -0.0515 -0.5741
40124SOL    HW125057  11.417   5.566   3.212  1.8145  0.5429 -0.9232
40124SOL    HW225058  11.458   5.660   3.324  0.7345 -0.2039  0.1202
40125SOL     OW25059   7.985   9.296   2.723  0.1468  0.3826  0.2105
40125SOL    HW125060   7.953   9.217   2.766  0.5980 -0.3511 -0.7509
40125SOL    HW225061   7.908   9.352   2.717  0.0287  0.4335  1.7558
40126SOL     OW25062   2.885   2.002  11.121  0.0323 -0.0012  0.3600
40126SOL    HW125063   2.873   1.941  11.194 -0.3829 -1.2623 -0.7269
40126SOL    HW225064   2.961   2.054  11.147 -0.0180 -0.5037  1.6285
40127SOL     OW25065   4.504  10.727   7.214 -0.0091  0.2930 -0.3823
40127SOL    HW125066   4.427  10.701   7.265 -1.2774  1.4455 -1.6470
40127SOL    HW225067   4.537  10.805   7.258  0.8568 -0.5788  0.5464
40128SOL     OW25068   5.401  11.128   3.977  0.3241 -0.1155 -0.4725
40128SOL    HW125069   5.461  11.151   4.048 -1.9819  0.1184  1.5442
40128SOL    HW225070   5.318  11.169   4.002 -1.2396 -2.1086 -2.0262
40129SOL     OW25071   4.289   2.110   5.088  0.1310  0.1199  0.3124
40129SOL    HW125072   4.233   2.163   5.031 -1.3009  0.8153  2.2562
40129SOL    HW225073   4.232   2.086   5.161  1.5519 -1.7638  0.8668
40130SOL     OW25074   8.466   9.720   9.723  0.3307 -0.0549  0.0010
40130SOL    HW125075   8.412   9.755   9.652  0.7876  0.7339  0.0200
40130SOL    HW225076   8.404   9.693   9.790 -0.0403  0.9831  0.0882
40131SOL     OW25077   6.671   2.912   1.348  0.2325  0.1846  0.6241
40131SOL    HW125078   6.766   2.917   1.336  0.8409  2.0089  4.5980
40131SOL    HW225079   6.659   2.843   1.414 -1.3258 -0.5452 -0.3764
40132SOL     OW25080   0.848   9.989   9.423  0.3638 -0.5031 -0.0024
40132SOL    HW125081   0.888  10.070   9.456 -1.5508  0.1580  0.7990
40132SOL    HW225082   0.862   9.992   9.328  0.3997  0.7277  0.0331
40133SOL     OW25083  11.892   4.978   4.038  0.0178 -0.3298  0.0086
40133SOL    HW125084  11.843   4.899   4.013  0.1093 -0.5120  0.4083
40133SOL    HW225085  11.976   4.945   4.070  0.5803 -0.0013 -1.0635
40134SOL     OW25086   0.692   1.477   6.688 -0.0019  0.9433  0.1044
40134SOL    HW125087   0.694   1.571   6.709 -0.0544  0.9853 -0.0789
40134SOL    HW225088   0.682   1.434   6.773  1.7363  1.0340  0.3909
40135SOL     OW25089   8.522   1.348   7.303 -0.3151 -0.5254 -0.1006
40135SOL    HW125090   8.447   1.404   7.281 -1.3932 -2.4889 -1.8354
40135SOL    HW225091   8.578   1.351   7.226  0.4571 -0.5235  0.4509
40136SOL     OW25092  11.768   9.316  11.540  0.4847 -0.2205 -0.6538
40136SOL    HW125093  11.706   9.324  11.468 -1.0107  1.5612  0.7475
40136SOL    HW225094  11.736   9.243  11.592 -1.3641  1.5401  0.8190
40137SOL     OW25095  10.720  11.596   7.449 -0.3733  0.2625 -0.3434
40137SOL    HW125096  10.800  11.629   7.491 -0.0115 -1.3643  0.3225
40137SOL    HW225097  10.650  11.647   7.489  0.0148 -0.8787  1.9791
40138SOL     OW25098   1.133   0.026   2.626  0.3919 -0.4044  0.0702
40138SOL    HW125099   1.197   0.056   2.562  0.4945 -0.4456  0.1535
40138SOL    HW225100   1.060   0.088   2.617  1.4295  1.1303  1.6534
40139SOL     OW25101   5.210   3.921   6.481 -0.3992 -0.6902 -0.2114
40139SOL    HW125102   5.170   3.885   6.402 -0.6382 -2.0956  0.5106
40139SOL    HW225103   5.220   3.845   6.539 -0.5781  0.3563  1.2468
40140SOL     OW25104   3.936   2.396   3.904 -1.1186  0.8179  0.5709
40140SOL    HW125105   3.889   2.464   3.951 -0.5204  0.5469  1.5854
40140SOL    HW225106   4.029   2.411   3.924 -0.8713  0.5254 -0.2941
40141SOL     OW25107   3.007   6.236   3.003  0.1844 -0.4696  0.0341
40141SOL    HW125108   2.938   6.205   2.944  1.4995 -1.3889 -1.0787
40141SOL    HW225109   3.083   6.182   2.982  1.4273  0.9028  0.8063
40142SOL     OW25110   0.632   0.749   0.702  0.4718  0.1148 -0.7629
40142SOL    HW125111   0.609   0.740   0.794 -0.1908  0.1604 -0.9149
40142SOL    HW225112   0.552   0.782   0.661  1.2088  1.5184 -1.1099
40143SOL     OW25113   6.076   0.015  10.108  0.0093 -0.2823 -0.2471
40143SOL    HW125114   6.021  -0.051  10.067 -1.6572  0.8567  0.0379
40143SOL    HW225115   6.138   0.040  10.040  0.8354 -2.2594 -0.2885
40144SOL     OW25116   4.200   6.682   4.271  0.0418 -0.1086  1.0357
40144SOL    HW125117   4.222   6.616   4.205  1.5986  1.2679  0.1114
40144SOL    HW225118   4.196   6.633   4.353 -0.3650 -1.5892  0.1766
40145SOL     OW25119   4.673   1.893   5.927 -0.2907  0.6407 -0.9215
40145SOL    HW125120   4.716   1.947   5.860 -1.2681  0.2095 -1.9269
40145SOL    HW225121   4.585   1.879   5.893 -0.2585 -1.0796 -0.4029
40146SOL     OW25122  11.521   9.119   7.886  0.0554  0.3570  0.2027
40146SOL    HW125123  11.593   9.062   7.860 -0.0598  0.0640  0.5221
40146SOL    HW225124  11.478   9.073   7.958  0.7577  1.4582  1.3532
40147SOL     OW25125   0.837   8.067   4.657  0.1670  0.3105 -0.3427
40147SOL    HW125126   0.881   8.152   4.660  0.1342  0.3136  0.7515
40147SOL    HW225127   0.850   8.032   4.745 -1.1789 -0.1205 -0.3085
40148SOL     OW25128   2.541   1.655   7.005  0.3505  0.1401  0.3861
40148SOL    HW125129   2.557   1.636   6.912  0.7975  0.6131  0.3648
40148SOL    HW225130   2.577   1.743   7.018  1.2408 -0.3327  1.2487
40149SOL     OW25131   0.938   9.770   4.156 -0.5992  0.8209 -0.1929
40149SOL    HW125132   1.030   9.786   4.181 -0.3681  1.1447 -1.2082
40149SOL    HW225133   0.937   9.679   4.126 -0.7472  0.6225  0.4058
40150SOL     OW25134   8.007  10.529   1.836 -0.0974  0.6220  0.4524
40150SOL    HW125135   8.046  10.472   1.770 -0.1019  0.0490  0.9407
40150SOL    HW225136   8.082  10.564   1.885 -0.0693  1.3492 -0.0922
40151SOL     OW25137  11.314   3.204   4.104 -0.2165 -0.0103 -0.2116
40151SOL    HW125138  11.300   3.299   4.105 -0.9104 -0.1048  0.9826
40151SOL    HW225139  11.400   3.191   4.144 -0.9957  0.0299  1.5911
40152SOL     OW25140   1.620   2.428   3.862  1.0535 -0.2333  0.3828
40152SOL    HW125141   1.597   2.491   3.793  0.3305  1.3292  1.9934
40152SOL    HW225142   1.699   2.385   3.828  0.8653  0.6469 -1.3141
40153SOL     OW25143  11.689   5.437   6.182 -0.4568  0.0384 -0.2098
40153SOL    HW125144  11.644   5.482   6.254  0.8525 -0.7833  1.1752
40153SOL    HW225145  11.670   5.344   6.195  0.9808 -0.2526 -0.0486
40154SOL     OW25146   3.381  11.915   5.235 -0.2658  0.3331  0.3402
40154SOL    HW125147   3.447  11.958   5.289 -1.0324  1.0354  0.7515
40154SOL    HW225148   3.302  11.969   5.246 -1.4303 -1.4249  1.2570
40155SOL     OW25149   0.377   4.001   5.273  0.4814  0.2922 -0.3472
40155SOL    HW125150   0.466   4.028   5.250  0.5720  0.5278  0.2706
40155SOL    HW225151   0.322   4.047   5.209  0.9273 -1.7779 -2.3728
40156SOL     OW25152  11.921   4.060   9.296  0.0687 -0.2582 -0.4195
40156SOL    HW125153  12.008   4.036   9.263 -0.3325 -0.0701 -1.6723
40156SOL    HW225154  11.931   4.150   9.328  1.3962 -1.6150  3.6199
40157SOL     OW25155   1.916   1.113   9.462 -0.3709 -0.4070 -0.3069
40157SOL    HW125156   1.911   1.017   9.457 -2.7264 -0.2738 -2.3446
40157SOL    HW225157   1.896   1.133   9.553  2.0778 -1.8350  0.6682
40158SOL     OW25158   8.365   1.926   9.049 -0.0235  0.3739  0.6474
40158SOL    HW125159   8.269   1.924   9.048 -0.0385  1.0490  0.6310
40158SOL    HW225160   8.389   1.970   8.967  0.3092  0.0596  0.5724
40159SOL     OW25161  10.866   1.935   5.639 -0.0322  0.7116 -0.3580
40159SOL    HW125162  10.819   1.911   5.719  0.0949  0.2453 -0.4217
40159SOL    HW225163  10.952   1.894   5.647 -0.4350 -0.3714 -1.2675
40160SOL     OW25164  10.467  10.250   7.800  0.1836 -0.3822 -0.1441
40160SOL    HW125165  10.468  10.344   7.815  1.2738 -0.6533  1.7976
40160SOL    HW225166  10.384  10.234   7.754 -1.1450  1.2561  1.5324
40161SOL     OW25167   7.426   1.250   9.060 -0.0155  0.3825  0.0147
40161SOL    HW125168   7.375   1.176   9.094 -0.7962  0.1056 -1.6465
40161SOL    HW225169   7.516   1.228   9.081 -0.1938 -1.2467 -0.7184
40162SOL     OW25170   9.284   8.254   0.220  0.0243  0.1935  0.3414
40162SOL    HW125171   9.211   8.247   0.281 -1.9230  1.1246 -1.7216
40162SOL    HW225172   9.341   8.180   0.241 -1.4130 -0.4731  2.1352
40163SOL     OW25173   0.834   7.229   8.600 -0.0222  0.0289 -0.1020
40163SOL    HW125174   0.923   7.256   8.623  0.1248 -0.0401 -0.5746
40163SOL    HW225175   0.844   7.139   8.569 -0.7292 -1.2845  3.0633
40164SOL     OW25176   6.332   8.141   0.144 -0.2175 -0.6229 -0.6355
40164SOL    HW125177   6.305   8.212   0.202 -0.6171 -0.1094 -1.4458
40164SOL    HW225178   6.302   8.167   0.058 -1.0184 -2.1211 -0.8406
40165SOL     OW25179   8.807   7.287  11.139  0.0171 -0.0346 -0.0831
40165SOL    HW125180   8.888   7.242  11.164  0.1960 -0.5055 -1.4419
40165SOL    HW225181   8.737   7.227  11.165  0.2689 -1.3733 -2.2855
40166SOL     OW25182  10.155   8.399   3.837  0.2986  0.7629 -0.9543
40166SOL    HW125183  10.151   8.356   3.752 -0.1878  0.0229 -0.5667
40166SOL    HW225184  10.075   8.372   3.881 -0.1166  2.2211 -0.7635
40167SOL     OW25185   6.085  10.874   0.747 -0.6022  0.3471  0.4239
40167SOL    HW125186   6.061  10.784   0.766 -1.0993  0.4148  0.1526
40167SOL    HW225187   6.118  10.909   0.829  2.0887 -0.8398 -0.0487
40168SOL     OW25188   5.381   6.835   9.584  0.4186  0.3399 -0.3409
40168SOL    HW125189   5.462   6.885   9.592  0.4454  0.0617  1.4695
40168SOL    HW225190   5.397   6.755   9.633 -1.7820  1.3951  2.3493
40169SOL     OW25191   0.370   4.196   6.392 -0.8826 -0.4958 -0.2419
40169SOL    HW125192   0.417   4.116   6.369 -1.9230 -0.8938 -1.0547
40169SOL    HW225193   0.421   4.234   6.464 -0.7868 -2.2929  0.7036
40170SOL     OW25194   9.820   9.872   0.307 -0.0520  0.1357 -0.4498
40170SOL    HW125195   9.782   9.813   0.242  0.9064 -0.2624 -0.6752
40170SOL    HW225196   9.794   9.836   0.391  0.7911 -0.8305 -0.5727
40171SOL     OW25197   7.034   2.722  10.193  0.7188 -0.2253  0.3013
40171SOL    HW125198   7.007   2.808  10.225  2.3525  0.0034  1.1335
40171SOL    HW225199   7.001   2.661  10.259  0.4969 -0.1466  0.2654
40172SOL     OW25200   5.327  10.923   7.288  0.0369  0.1801  0.2277
40172SOL    HW125201   5.331  10.829   7.269 -2.1534 -0.2666  1.5336
40172SOL    HW225202   5.396  10.938   7.352  1.3782 -0.1938 -1.0891
40173SOL     OW25203  10.826  10.360   1.232 -0.3115  0.5446 -0.0172
40173SOL    HW125204  10.822  10.287   1.293  1.1172  0.2997 -0.1748
40173SOL    HW225205  10.743  10.357   1.185 -0.8670 -0.0836  0.9777
40174SOL     OW25206   0.383   5.684   1.402  0.0925  0.4050  0.0364
40174SOL    HW125207   0.472   5.709   1.374 -0.2649 -0.9832 -2.7135
40174SOL    HW225208   0.327   5.749   1.361 -0.2226  0.8470  1.1579
40175SOL     OW25209   1.502  10.878   8.342 -0.6602  0.2452  0.5278
40175SOL    HW125210   1.478  10.924   8.262  0.6974 -2.2934 -1.5057
40175SOL    HW225211   1.437  10.906   8.406 -2.5762  1.4957 -1.7791
40176SOL     OW25212   6.431   3.732   3.345 -0.9724  0.2239 -0.1635
40176SOL    HW125213   6.355   3.702   3.395 -0.5089 -0.3351  0.2301
40176SOL    HW225214   6.422   3.827   3.342 -2.0184  0.1249 -0.6780
40177SOL     OW25215   5.573  10.391   3.381 -0.2703 -0.2552  0.4121
40177SOL    HW125216   5.659  10.362   3.411  0.4814 -0.5878 -1.8598
40177SOL    HW225217   5.528  10.311   3.355 -0.7998  0.0159  0.4812
40178SOL     OW25218   4.396  11.588   3.060 -0.4612 -0.2047 -0.1207
40178SOL    HW125219   4.328  11.589   3.128 -0.1801  0.4137  0.1520
40178SOL    HW225220   4.478  11.580   3.108 -0.1114  2.0917 -0.2444
40179SOL     OW25221   7.839   5.452   4.850 -0.4720 -0.6407  0.6490
40179SOL    HW125222   7.882   5.537   4.861 -1.2828 -0.2088  0.5268
40179SOL    HW225223   7.890   5.392   4.905 -0.9120  0.2788  2.1074
40180SOL     OW25224   0.000   9.248   7.081 -0.4102  0.0317  0.6226
40180SOL    HW125225  -0.048   9.165   7.085 -0.8402  0.2238 -0.3360
40180SOL    HW225226  -0.064   9.314   7.107 -0.5591  0.2427 -0.2554
40181SOL     OW25227   4.982   3.331   2.739 -0.2262  0.3546  0.1679
40181SOL    HW125228   5.055   3.349   2.799 -0.4835 -0.7432  0.8238
40181SOL    HW225229   4.959   3.417   2.704  0.9876  0.8001  0.4082
40182SOL     OW25230  10.242   8.419   6.750  0.1421 -0.3047  0.0739
40182SOL    HW125231  10.148   8.402   6.749 -0.6153  2.9814  1.4611
40182SOL    HW225232  10.269   8.399   6.839  0.9590 -1.7709 -0.4619
40183SOL     OW25233   7.332   4.905   3.101  0.6800 -0.0859  0.0654
40183SOL    HW125234   7.414   4.867   3.133 -0.5950 -0.7452  2.7565
40183SOL    HW225235   7.309   4.972   3.165 -1.2850 -0.4328 -0.2221
40184SOL     OW25236   1.091   0.041   4.002  0.1918 -0.3889  0.0217
40184SOL    HW125237   1.150   0.100   4.050  1.0603 -1.4721  0.3455
40184SOL    HW225238   1.088  -0.039   4.056 -1.1177 -0.5727 -0.2964
40185SOL     OW25239   1.439   5.760  11.583 -0.7467  1.3552 -0.0843
40185SOL    HW125240   1.385   5.761  11.505  0.2669  2.2187 -0.8059
40185SOL    HW225241   1.404   5.831  11.637 -1.2646  0.9401  0.1433
40186SOL     OW25242  11.012   1.016   2.336 -0.2795 -0.3820  0.8252
40186SOL    HW125243  10.976   0.931   2.309 -1.1606 -0.1225  1.1542
40186SOL    HW225244  10.940   1.058   2.383  0.0228  0.7028  0.3347
40187SOL     OW25245   2.671   9.662   9.171 -0.1297 -0.2652 -0.0451
40187SOL    HW125246   2.654   9.656   9.077 -1.4332 -1.7735  0.2535
40187SOL    HW225247   2.734   9.593   9.189  0.0546 -0.0334  0.2113
40188SOL     OW25248   8.602   0.496   3.316 -0.1961  0.0130 -0.5552
40188SOL    HW125249   8.627   0.406   3.294 -2.6318 -0.9397  0.2821
40188SOL    HW225250   8.522   0.511   3.267 -0.4665  1.3103  0.2547
40189SOL     OW25251   6.281   4.407   6.925 -0.6350 -0.1862  0.1857
40189SOL    HW125252   6.233   4.337   6.883  0.3843 -1.2814  0.7800
40189SOL    HW225253   6.304   4.372   7.011 -1.3078  1.4040  1.0574
40190SOL     OW25254   0.916   5.615   7.074 -0.0956 -0.4260 -0.2626
40190SOL    HW125255   0.909   5.529   7.115 -0.6669  0.1604  0.9020
40190SOL    HW225256   0.919   5.677   7.147 -1.9291  0.7039 -1.0801
40191SOL     OW25257  10.946   0.734   0.638 -0.3150  0.3782 -0.3956
40191SOL    HW125258  11.000   0.688   0.702 -0.0365 -0.4429 -1.1813
40191SOL    HW225259  10.997   0.730   0.557 -0.9324  0.8383 -0.8152
40192SOL     OW25260   5.330   4.197   4.496  0.3430 -0.3377 -0.6837
40192SOL    HW125261   5.381   4.265   4.541 -1.3048  1.4484 -1.3481
40192SOL    HW225262   5.394   4.129   4.475  1.4995 -0.5500  2.8367
40193SOL     OW25263   0.669   7.020   4.148 -0.2699  0.0644  0.2575
40193SOL    HW125264   0.584   7.063   4.139 -0.1047  0.3257 -0.0600
40193SOL    HW225265   0.724   7.084   4.194 -0.2668 -0.1377  0.5414
40194SOL     OW25266   5.698   7.492   4.870 -0.4996  0.1330 -0.0828
40194SOL    HW125267   5.687   7.531   4.783  0.0708  0.3225 -0.0754
40194SOL    HW225268   5.623   7.432   4.879 -2.3174  2.3736  0.5620
40195SOL     OW25269  10.746   2.400  11.778 -0.7003  0.1925  0.3129
40195SOL    HW125270  10.715   2.484  11.812 -1.6996  0.4621 -1.1986
40195SOL    HW225271  10.694   2.335  11.825 -0.1400  0.4012  1.2645
40196SOL     OW25272   1.908  11.296   6.667 -0.3623  0.1377  0.0171
40196SOL    HW125273   1.848  11.260   6.733  1.9158 -0.1008  2.1292
40196SOL    HW225274   1.918  11.226   6.603 -1.0077 -0.4658  0.5541
40197SOL     OW25275   2.102   5.288  10.323 -0.0495 -0.1175  0.2005
40197SOL    HW125276   2.106   5.320  10.413 -0.6275 -2.3222  1.0721
40197SOL    HW225277   2.193   5.265  10.302 -0.2459 -1.9327  1.1730
40198SOL     OW25278   3.805   2.572   9.015  0.2505  0.2662  0.3851
40198SOL    HW125279   3.763   2.556   8.930 -0.4078  1.1869  0.5190
40198SOL    HW225280   3.775   2.660   9.040  2.1420  0.9243  0.5555
40199SOL     OW25281  10.193   4.832  10.169 -0.3599  0.3195  0.0106
40199SOL    HW125282  10.150   4.918  10.169 -0.8764  0.1116 -2.1683
40199SOL    HW225283  10.213   4.815  10.077  0.0486 -1.7538  0.4370
40200SOL     OW25284  11.542  11.555  11.819 -0.1342 -0.1760  0.0928
40200SOL    HW125285  11.484  11.594  11.885  2.0359  1.8160  0.9770
40200SOL    HW225286  11.588  11.486  11.867 -0.5450 -0.6211 -0.1451
40201SOL     OW25287   5.099   5.289   9.228  0.1676 -0.4374  0.0743
40201SOL    HW125288   5.051   5.340   9.294 -2.7478 -1.4481 -1.0873
40201SOL    HW225289   5.133   5.354   9.167 -3.2439  0.3512 -1.2439
40202SOL     OW25290   5.748   7.605   9.678 -0.1688 -0.2620  0.0920
40202SOL    HW125291   5.711   7.517   9.670  0.8787 -0.6961 -0.0943
40202SOL    HW225292   5.744   7.624   9.772 -1.1992 -0.1313  0.0410
40203SOL     OW25293  11.707   0.887   1.624  0.2869 -0.1711 -0.3511
40203SOL    HW125294  11.714   0.823   1.553  0.8126 -1.1709  0.5824
40203SOL    HW225295  11.684   0.969   1.579  1.2601 -0.6226 -1.7523
40204SOL     OW25296   2.280   9.887   0.575  0.2280 -0.4785 -0.5397
40204SOL    HW125297   2.301   9.970   0.531 -2.0824 -0.2045 -1.2692
40204SOL    HW225298   2.276   9.823   0.504 -0.8582 -0.5952 -0.3855
40205SOL     OW25299   9.068   2.688   6.970 -0.0483 -0.3867 -0.1939
40205SOL    HW125300   9.000   2.623   6.987 -0.6983  0.3081 -0.1275
40205SOL    HW225301   9.034   2.741   6.899  0.1571  0.3466  0.2491
40206SOL     OW25302   7.593   5.342   4.808  0.0350 -0.1601  0.0204
40206SOL    HW125303   7.669   5.400   4.811  0.1834 -0.3237 -0.4803
40206SOL    HW225304   7.576   5.320   4.900  0.2761  0.2847  0.1725
40207SOL     OW25305   2.146  10.818   3.364  0.5946  0.8859 -0.0443
40207SOL    HW125306   2.146  10.825   3.268  2.6660  0.0678 -0.1615
40207SOL    HW225307   2.057  10.841   3.390 -0.0377  1.0496 -2.1708
40208SOL     OW25308  11.000   4.823  10.503 -0.3720 -0.2519  0.0426
40208SOL    HW125309  10.924   4.867  10.463  0.6564  0.9009 -0.7123
40208SOL    HW225310  10.982   4.826  10.597  0.4268  3.4611  0.2272
40209SOL     OW25311   8.339   4.002   3.136 -0.3272  0.4427  0.3957
40209SOL    HW125312   8.321   4.029   3.046 -0.9867 -0.3766  0.2684
40209SOL    HW225313   8.415   3.944   3.129 -0.2958  0.4853  0.3849
40210SOL     OW25314   6.622   8.436   5.058 -0.0393 -0.7066 -0.2811
40210SOL    HW125315   6.596   8.409   5.146  1.4452 -1.8007 -0.1230
40210SOL    HW225316   6.548   8.486   5.025 -1.0508 -1.1449  1.1997
40211SOL     OW25317   4.586  11.629   3.237  0.5608 -0.5024  0.0204
40211SOL    HW125318   4.575  11.718   3.272 -1.3975  0.1170 -1.9489
40211SOL    HW225319   4.622  11.579   3.311  0.1047  1.5301  1.7276
40212SOL     OW25320   0.061   7.259   9.082  0.3894  0.7012  0.4955
40212SOL    HW125321   0.103   7.324   9.025 -2.5131  1.1144 -1.4005
40212SOL    HW225322   0.029   7.192   9.022 -1.1484  0.1655  1.8613
40213SOL     OW25323   4.343  10.620   2.226 -0.3800  0.6845  0.1061
40213SOL    HW125324   4.305  10.615   2.314 -1.6711 -0.7358 -0.4839
40213SOL    HW225325   4.270  10.642   2.169  0.0783 -0.1226 -0.8254
40214SOL     OW25326   5.305   5.363   1.364 -0.6830 -0.5428  0.1534
40214SOL    HW125327   5.252   5.405   1.433 -0.2146  1.0284 -0.3939
40214SOL    HW225328   5.367   5.308   1.412 -1.5380 -0.8986  0.8912
40215SOL     OW25329   9.017   8.491   0.160 -0.2491  0.0819  0.4101
40215SOL    HW125330   8.960   8.436   0.106  2.4139 -1.7386 -0.7435
40215SOL    HW225331   9.077   8.430   0.202  1.7979  1.9740  0.4105
40216SOL     OW25332   2.865   6.759  11.866  0.1724 -0.1402 -0.2343
40216SOL    HW125333   2.849   6.678  11.915 -0.6796 -0.6328 -1.2861
40216SOL    HW225334   2.779   6.783  11.832  0.8842 -0.3160 -2.2510
40217SOL     OW25335   4.203   9.871   8.062 -0.6647 -0.2898 -0.6989
40217SOL    HW125336   4.135   9.933   8.087 -0.7259 -0.2024 -1.0807
40217SOL    HW225337   4.280   9.898   8.113 -1.3845 -1.4752  1.1202
40218SOL     OW25338  11.585  11.469  10.905 -0.9729 -0.7191 -0.2972
40218SOL    HW125339  11.608  11.562  10.899 -2.1771 -0.4151 -0.5496
40218SOL    HW225340  11.595  11.436  10.815  0.2747 -1.0625 -0.0551
40219SOL     OW25341   7.643   2.855   2.904  0.1023 -0.2356 -0.0109
40219SOL    HW125342   7.582   2.813   2.843 -0.2812 -0.2910  0.4060
40219SOL    HW225343   7.677   2.930   2.855 -1.5520  0.7764  0.2933
40220SOL     OW25344   0.486  10.359   3.630 -0.3867 -0.2104  0.1541
40220SOL    HW125345   0.579  10.376   3.620 -0.6377  2.9458  1.9613
40220SOL    HW225346   0.479  10.303   3.707 -0.0041  0.0884  0.4068
40221SOL     OW25347   4.721   7.862   1.564  0.4798 -0.8307  0.6433
40221SOL    HW125348   4.698   7.846   1.655 -1.6380  0.9260  0.5346
40221SOL    HW225349   4.816   7.861   1.562  0.6678  1.0366  3.3211
40222SOL     OW25350   8.181   1.365   0.320 -0.0922  0.2213  0.3164
40222SOL    HW125351   8.190   1.327   0.408  1.9605 -0.3230 -0.0727
40222SOL    HW225352   8.268   1.354   0.280 -1.1152 -0.0562 -1.9905
40223SOL     OW25353   2.122   5.226   6.061 -0.4853  0.5414  0.1536
40223SOL    HW125354   2.191   5.285   6.092 -0.1525  0.5641 -0.5915
40223SOL    HW225355   2.144   5.141   6.100  0.0111  0.5334 -0.1362
40224SOL     OW25356  10.069   5.886   5.774 -0.0409 -0.3089  0.5589
40224SOL    HW125357  10.005   5.848   5.834  0.6249  2.4269  3.2668
40224SOL    HW225358  10.041   5.976   5.762  1.7431  0.1532 -0.5234
40225SOL     OW25359   2.715   8.849   0.400  0.0705 -0.5181 -0.3151
40225SOL    HW125360   2.797   8.815   0.436 -1.3702 -2.6211  1.2359
40225SOL    HW225361   2.648   8.824   0.464 -1.7128  1.8615 -1.0846
40226SOL     OW25362   1.953  11.273   4.053  0.2382  0.4665  0.4734
40226SOL    HW125363   1.886  11.288   3.986  1.1537 -0.7229 -0.7858
40226SOL    HW225364   1.904  11.259   4.134 -1.0732 -0.6704 -0.4632
40227SOL     OW25365   5.791   1.858   7.913  0.2735  0.1206  0.0851
40227SOL    HW125366   5.701   1.865   7.945  0.3269  2.1416 -0.0883
40227SOL    HW225367   5.842   1.912   7.973  1.3167 -0.7219 -0.0353
40228SOL     OW25368   8.216   7.391  10.661  0.2194 -0.3798 -0.0674
40228SOL    HW125369   8.132   7.393  10.706 -0.1146 -1.3757 -0.6023
40228SOL    HW225370   8.221   7.302  10.624  0.0635  0.6046 -2.6959
40229SOL     OW25371   2.712  11.172   7.160  0.0821 -0.2437  0.9815
40229SOL    HW125372   2.661  11.225   7.099  1.4565  0.8708  0.7633
40229SOL    HW225373   2.710  11.083   7.123 -2.0093 -0.3421  1.2088
40230SOL     OW25374   2.343  11.527   4.219 -0.1027 -0.3471 -0.5552
40230SOL    HW125375   2.341  11.553   4.311 -0.9779 -0.6995 -0.4570
40230SOL    HW225376   2.327  11.607   4.171  1.0833 -0.0266 -0.4455
40231SOL     OW25377   1.912  10.371  11.974 -0.3964  0.4196  0.2378
40231SOL    HW125378   1.954  10.444  11.929 -1.8362  0.1814 -1.5784
40231SOL    HW225379   1.976  10.300  11.969  0.0222  0.8160 -0.1610
40232SOL     OW25380  11.374   1.825   3.044  0.8020  0.1715  0.0468
40232SOL    HW125381  11.284   1.793   3.052  0.9678 -0.0149  1.4771
40232SOL    HW225382  11.375   1.907   3.092  1.5906 -0.2668  0.8136
40233SOL     OW25383   0.451   5.466   3.021  0.2671  0.7055 -0.1455
40233SOL    HW125384   0.514   5.399   2.994 -0.5563  0.3876 -1.3828
40233SOL    HW225385   0.414   5.433   3.103  1.6060  0.8515  0.5414
40234SOL     OW25386   0.723   0.093   5.935 -0.0087 -0.0385  0.7801
40234SOL    HW125387   0.712   0.163   5.871 -1.9268 -1.6062 -0.7563
40234SOL    HW225388   0.770   0.024   5.887 -2.2220 -1.5818  0.7011
40235SOL     OW25389  10.060   8.034   6.232 -0.0371  0.2203 -0.0229
40235SOL    HW125390  10.012   8.112   6.261  0.7041 -0.1544  2.4739
40235SOL    HW225391  10.006   7.960   6.259  1.7970 -0.2062  2.9005
40236SOL     OW25392   4.125   5.415   4.936  0.0447  0.2630  0.1655
40236SOL    HW125393   4.139   5.444   4.846 -1.2297  0.7556  0.1092
40236SOL    HW225394   4.213   5.392   4.968  0.8376  2.2600 -0.4466
40237SOL     OW25395   9.897   5.640   8.247 -0.0984 -0.1506  0.4830
40237SOL    HW125396   9.933   5.552   8.245  1.4218  0.4505 -0.6625
40237SOL    HW225397   9.964   5.692   8.291  0.7667  1.0965 -2.0897
40238SOL     OW25398   8.967   5.489   4.773 -0.6280  1.2554  0.3618
40238SOL    HW125399   9.018   5.556   4.726 -0.9923  0.5222 -1.1349
40238SOL    HW225400   8.905   5.457   4.709  0.7972 -1.9059  0.3820
40239SOL     OW25401   1.311   0.387   9.924 -0.0259 -0.1124  0.2080
40239SOL    HW125402   1.380   0.349   9.979 -0.2600 -1.8405 -0.6259
40239SOL    HW225403   1.355   0.456   9.875  0.6371  0.1433  1.1320
40240SOL     OW25404   1.194   2.937   6.546  0.2281  0.1972 -0.6016
40240SOL    HW125405   1.118   2.991   6.570 -0.3134 -0.4463 -0.8280
40240SOL    HW225406   1.173   2.850   6.581  1.2203  0.1886  0.0166
40241SOL     OW25407   6.167   4.901   8.629 -0.3720 -0.0657 -0.4952
40241SOL    HW125408   6.103   4.837   8.660 -1.0896 -0.3313 -2.4116
40241SOL    HW225409   6.244   4.850   8.604 -0.5414 -0.0750 -1.0084
40242SOL     OW25410   9.168   0.466   7.795  0.2464 -0.2464  0.3981
40242SOL    HW125411   9.083   0.431   7.766  0.4477  1.0980 -2.1098
40242SOL    HW225412   9.146   0.536   7.856 -0.4472 -0.1740  0.0737
40243SOL     OW25413   0.415   6.251   4.142 -0.1947 -0.0931  0.2657
40243SOL    HW125414   0.469   6.313   4.092 -1.1178  0.4387 -0.0998
40243SOL    HW225415   0.394   6.182   4.079  1.0615 -0.9600  0.7470
40244SOL     OW25416   3.085   3.609   2.166  0.1801  0.0567  0.0263
40244SOL    HW125417   3.147   3.596   2.094  1.9736  0.5774  1.3924
40244SOL    HW225418   3.052   3.698   2.154  0.4998  0.1539 -0.1436
40245SOL     OW25419   5.711   0.545   3.076  0.3843 -0.4211  0.4460
40245SOL    HW125420   5.727   0.624   3.128  0.6560  0.6211 -1.1490
40245SOL    HW225421   5.662   0.487   3.135  1.0297  0.5243  1.9813
40246SOL     OW25422   5.764  11.334   8.144  0.1488 -0.6682  0.3067
40246SOL    HW125423   5.726  11.421   8.130  0.9220 -0.0040  1.9876
40246SOL    HW225424   5.855  11.352   8.166  0.2623 -1.8974  0.9023
40247SOL     OW25425   3.475   3.610   2.214  0.3193 -0.0164  0.2520
40247SOL    HW125426   3.565   3.606   2.182  0.0620 -0.6678 -0.4212
40247SOL    HW225427   3.455   3.521   2.240  0.1794  0.3128  1.3213
40248SOL     OW25428   6.497   0.918   4.688 -0.3330  0.5337 -0.1061
40248SOL    HW125429   6.474   0.912   4.595 -0.7123 -0.1451  0.0266
40248SOL    HW225430   6.445   0.991   4.721  1.4316  2.2652 -0.8936
40249SOL     OW25431  11.245   2.704   8.272 -0.2142  0.3397 -0.6552
40249SOL    HW125432  11.288   2.780   8.232 -1.4742  1.7403  0.5112
40249SOL    HW225433  11.265   2.713   8.366 -0.8984 -0.4322 -0.4279
40250SOL     OW25434   6.822   0.650   2.678  0.0272  0.0197  0.1945
40250SOL    HW125435   6.796   0.567   2.636 -0.1711 -0.3277  0.9933
40250SOL    HW225436   6.780   0.648   2.764  0.1464  0.8880  0.2824
40251SOL     OW25437  11.707   6.739   8.749 -0.2955  0.2174 -0.0849
40251SOL    HW125438  11.642   6.701   8.808 -0.5380  0.3024 -0.2974
40251SOL    HW225439  11.791   6.703   8.779 -0.2643  1.1663  1.0659
40252SOL     OW25440  10.975   3.358   8.508  0.1421 -0.0990 -0.0853
40252SOL    HW125441  10.891   3.326   8.477  0.6781  0.3551 -2.1529
40252SOL    HW225442  10.960   3.379   8.601 -1.9986 -0.0258 -0.3970
40253SOL     OW25443   6.861   0.458   1.428 -0.5111  0.2318 -0.1456
40253SOL    HW125444   6.862   0.547   1.463  1.0869  0.1069  0.1997
40253SOL    HW225445   6.842   0.468   1.335  1.0708  1.0761 -0.4088
40254SOL     OW25446   0.371  11.757   1.960 -0.1011  0.1324 -0.3733
40254SOL    HW125447   0.439  11.822   1.977  0.0744 -0.3745  1.0028
40254SOL    HW225448   0.405  11.677   1.998 -1.0807 -0.3455 -0.4832
40255SOL     OW25449   0.639   5.216   5.190  0.1239  0.4606 -0.3290
40255SOL    HW125450   0.644   5.310   5.206  1.4088  0.2398  0.7130
40255SOL    HW225451   0.623   5.209   5.096  0.4988  1.7145 -0.5081
40256SOL     OW25452  10.627   2.617   7.846  0.3426  0.2373  0.1125
40256SOL    HW125453  10.714   2.587   7.820  0.3902  0.1142  0.4193
40256SOL    HW225454  10.621   2.600   7.940 -0.4002 -0.7022 -0.0859
40257SOL     OW25455   2.222  10.517   6.529 -0.5848  0.0132 -0.2085
40257SOL    HW125456   2.299  10.570   6.509  0.2311 -0.5378  1.2933
40257SOL    HW225457   2.151  10.581   6.539 -0.2606  0.5566 -1.2230
40258SOL     OW25458   3.334   6.521  10.333 -0.5217 -0.1876  0.0960
40258SOL    HW125459   3.267   6.493  10.270 -2.2538  0.2708  1.6134
40258SOL    HW225460   3.407   6.461  10.320 -1.5082 -1.1751 -1.1682
40259SOL     OW25461   6.606  10.909   3.141  0.1070  0.2558 -0.0737
40259SOL    HW125462   6.674  10.893   3.206 -0.1950 -1.4376 -0.1347
40259SOL    HW225463   6.650  10.893   3.057 -0.1855 -0.1516 -0.1489
40260SOL     OW25464  10.102  11.320   1.224 -0.0835  0.1974  0.4080
40260SOL    HW125465  10.056  11.399   1.251 -0.9291 -0.3313  0.5423
40260SOL    HW225466  10.101  11.324   1.128 -1.1508 -0.2106  0.3850
40261SOL     OW25467  11.157   5.523   7.747  0.3226 -0.3812  0.1345
40261SOL    HW125468  11.115   5.560   7.669 -0.9995 -1.2811  0.3760
40261SOL    HW225469  11.213   5.453   7.713 -0.9069 -1.3538  0.0015
40262SOL     OW25470   8.293   0.232   8.130 -0.2722 -0.3135  0.1754
40262SOL    HW125471   8.328   0.187   8.053  0.6074 -0.2136  0.4963
40262SOL    HW225472   8.293   0.165   8.198 -0.4670 -0.2433  0.2428
40263SOL     OW25473   5.697   8.096   6.367 -0.0792 -0.1143  0.0027
40263SOL    HW125474   5.785   8.092   6.330  0.1456 -1.1572  0.6151
40263SOL    HW225475   5.643   8.132   6.297  0.6361 -0.5274 -0.7743
40264SOL     OW25476   9.440   4.928  10.082 -0.4348  0.5334 -0.8022
40264SOL    HW125477   9.410   4.920   9.992 -1.5091 -0.0015 -0.4159
40264SOL    HW225478   9.468   5.020  10.090  1.1754  0.2074 -2.0946
40265SOL     OW25479   4.062   0.295   9.532 -0.2451  0.2035 -0.3245
40265SOL    HW125480   4.041   0.311   9.624  0.0857  0.1750 -0.2413
40265SOL    HW225481   4.066   0.200   9.525  1.2030  0.2249 -0.0198
40266SOL     OW25482  10.576   6.778   0.882 -0.4106 -0.7493 -0.2691
40266SOL    HW125483  10.608   6.689   0.892  0.9866 -0.1817  0.5144
40266SOL    HW225484  10.626   6.830   0.945 -0.4619  0.7627 -1.3976
40267SOL     OW25485   0.402   2.776   6.551 -0.3407 -0.1690  0.7184
40267SOL    HW125486   0.431   2.809   6.465 -3.3493 -0.0319 -0.3584
40267SOL    HW225487   0.378   2.685   6.535  1.5625 -0.9851  2.1238
40268SOL     OW25488   8.363   7.920  11.770 -0.5541 -0.1707  0.2924
40268SOL    HW125489   8.403   7.941  11.855  1.6305  1.9974 -1.1555
40268SOL    HW225490   8.285   7.976  11.766 -1.1367 -0.8787  1.1430
40269SOL     OW25491   4.752   8.100   2.212  0.4295  0.3376  0.1966
40269SOL    HW125492   4.704   8.121   2.132  0.0830  0.6230  0.4768
40269SOL    HW225493   4.741   8.005   2.221 -0.4167  0.4528  0.4633
40270SOL     OW25494   9.759  10.864  10.874  0.0662  0.1461 -0.1647
40270SOL    HW125495   9.808  10.917  10.937  1.6732 -0.6707 -0.6789
40270SOL    HW225496   9.676  10.911  10.864 -0.1451  0.4734  2.2943
40271SOL     OW25497  11.668   8.075   7.873 -0.3147 -0.2681 -0.4035
40271SOL    HW125498  11.734   8.140   7.898 -0.3558 -0.2791 -0.2671
40271SOL    HW225499  11.706   8.031   7.797 -0.4623  0.1904 -0.7469
40272SOL     OW25500  10.755   0.247   4.655 -0.6312  0.2520 -0.3615
40272SOL    HW125501  10.797   0.281   4.576 -0.6432 -1.5578 -1.1990
40272SOL    HW225502  10.809   0.280   4.727 -0.6079  1.9142 -1.0818
40273SOL     OW25503   8.154   1.807  10.194  0.4792 -0.3207  0.0355
40273SOL    HW125504   8.097   1.790  10.269  1.5614 -1.2677  0.6682
40273SOL    HW225505   8.162   1.903  10.192 -0.5341 -0.2169  0.3771
40274SOL     OW25506   2.310   9.503   0.525 -0.5220  0.0971 -0.3235
40274SOL    HW125507   2.256   9.546   0.592 -0.9522 -0.7062 -0.1460
40274SOL    HW225508   2.399   9.511   0.558 -0.4127  2.0679 -0.9586
40275SOL     OW25509  10.584   7.103   9.785 -0.0419 -0.0330 -0.1674
40275SOL    HW125510  10.578   7.195   9.759 -0.5746  0.1755  0.6584
40275SOL    HW225511  10.678   7.087   9.794  0.0285  0.6282  0.3531
40276SOL     OW25512   7.763   9.163   6.267  0.0724 -0.4079  0.1194
40276SOL    HW125513   7.709   9.196   6.339  0.9127  1.8331 -0.1721
40276SOL    HW225514   7.816   9.093   6.305  0.5083  0.7373  1.7120
40277SOL     OW25515   7.686   6.799   1.617  0.1601 -0.2187  0.2374
40277SOL    HW125516   7.654   6.710   1.628 -0.8787  0.2605  1.3312
40277SOL    HW225517   7.624   6.853   1.666  0.6741  1.1273 -0.5423
40278SOL     OW25518  11.436  10.434  10.929 -0.2308  0.4210  0.3222
40278SOL    HW125519  11.472  10.507  10.978  0.2707 -0.0690  0.7008
40278SOL    HW225520  11.462  10.451  10.838  1.4610 -0.1756  0.6423
40279SOL     OW25521   8.954   0.452   3.188  0.1303  0.5062 -0.0910
40279SOL    HW125522   9.026   0.393   3.164 -1.3339 -0.6074 -1.9919
40279SOL    HW225523   8.946   0.442   3.283 -0.1287 -2.5030 -0.3388
40280SOL     OW25524   0.686   2.195   6.561  0.0344 -0.3945 -0.4320
40280SOL    HW125525   0.648   2.283   6.557 -1.0446 -0.8642 -1.1451
40280SOL    HW225526   0.752   2.194   6.492 -0.9411 -0.5652 -1.3897
40281SOL     OW25527   6.817  11.100   3.398 -0.2771  0.1869  0.0485
40281SOL    HW125528   6.736  11.146   3.374  1.1367  1.3399 -3.1304
40281SOL    HW225529   6.818  11.023   3.341  1.1590  0.5745 -0.4926
40282SOL     OW25530  11.134   1.637   2.137  0.7096  0.1837 -0.3078
40282SOL    HW125531  11.069   1.650   2.205  0.1802 -0.0061 -0.7734
40282SOL    HW225532  11.114   1.705   2.072  1.3404  0.5005 -0.1849
40283SOL     OW25533   2.770   0.732   2.315 -0.9126 -0.5932  0.1441
40283SOL    HW125534   2.723   0.664   2.267 -0.2604 -0.4047 -0.7871
40283SOL    HW225535   2.756   0.812   2.264 -0.8807 -0.2244  0.7099
40284SOL     OW25536   6.674  11.111   1.100 -0.4121  0.0535  0.2213
40284SOL    HW125537   6.679  11.077   1.189 -1.4775  0.1950  0.3496
40284SOL    HW225538   6.698  11.038   1.044 -0.0066 -0.1133  0.6148
40285SOL     OW25539   0.747   9.719   3.041  0.2696 -0.1463  0.4417
40285SOL    HW125540   0.686   9.678   2.979 -0.9477  1.3336  0.5988
40285SOL    HW225541   0.694   9.737   3.119  1.3111 -0.2505  1.1934
40286SOL     OW25542   8.668   4.093   9.222  0.5081 -0.4790 -0.1723
40286SOL    HW125543   8.750   4.104   9.269  0.1792 -0.3450  0.3904
40286SOL    HW225544   8.642   4.181   9.197 -0.2819 -0.3059  1.1140
40287SOL     OW25545   2.855   3.942   1.715 -0.5218  0.1237  0.0591
40287SOL    HW125546   2.784   4.005   1.728 -2.2930 -1.8159  0.4768
40287SOL    HW225547   2.899   3.939   1.800 -0.2796  0.9168 -0.0264
40288SOL     OW25548  10.528   6.997  11.182 -0.3521  0.2402 -0.1453
40288SOL    HW125549  10.545   7.070  11.242 -0.1679 -0.6380  0.9070
40288SOL    HW225550  10.596   6.933  11.203  0.1348  0.1863 -1.7822
40289SOL     OW25551   7.487  10.448   1.782 -0.1621  0.1384 -0.4129
40289SOL    HW125552   7.397  10.479   1.781  0.2022  1.3389  0.7147
40289SOL    HW225553   7.517  10.466   1.871  0.9287 -1.0385 -0.5144
40290SOL     OW25554   5.511   8.013   1.473  0.0300  0.2328 -0.3104
40290SOL    HW125555   5.566   7.937   1.494  0.7728  0.7376 -0.4014
40290SOL    HW225556   5.436   8.005   1.532 -0.4695 -1.1816 -1.0883
40291SOL     OW25557   0.149   5.148   5.992  0.5716  1.1159 -0.1951
40291SOL    HW125558   0.153   5.240   5.970 -0.1687  1.4352  0.9052
40291SOL    HW225559   0.069   5.139   6.045 -0.3221 -0.4674 -1.6976
40292SOL     OW25560  11.599  11.045   4.158  0.2035  0.0058  0.0798
40292SOL    HW125561  11.668  10.980   4.169  0.6492  0.4462 -0.0760
40292SOL    HW225562  11.597  11.063   4.064  1.2778  1.4774  0.2937
40293SOL     OW25563   5.906   2.196   5.851  0.3052 -0.1171 -0.4334
40293SOL    HW125564   5.957   2.271   5.882 -0.8233  1.1704 -1.5587
40293SOL    HW225565   5.896   2.211   5.757 -1.8077 -0.5103 -0.3113
40294SOL     OW25566   0.529   4.556   5.805  0.3669 -0.1172  0.2792
40294SOL    HW125567   0.516   4.523   5.716 -0.1198 -0.9043  0.6279
40294SOL    HW225568   0.540   4.650   5.795  1.2660 -0.3076 -0.7056
40295SOL     OW25569   6.098  11.631  11.315 -0.6547 -0.6845 -0.3965
40295SOL    HW125570   6.048  11.578  11.377 -1.0942  0.7747  0.5235
40295SOL    HW225571   6.190  11.612  11.335 -0.7925 -1.7824 -0.7120
40296SOL     OW25572   7.148   6.381   8.480  0.3719 -0.3827  0.1662
40296SOL    HW125573   7.142   6.471   8.510 -4.2661 -1.1505  2.5048
40296SOL    HW225574   7.193   6.335   8.551  0.5979 -0.2672  0.0969
40297SOL     OW25575  11.946   1.695   3.957 -0.1615 -0.4695 -0.1586
40297SOL    HW125576  11.864   1.676   4.000  0.6466 -2.1154  0.7449
40297SOL    HW225577  12.013   1.657   4.014  1.5413  3.3369  0.7078
40298SOL     OW25578   7.498   8.793   4.506  0.0856 -0.1840 -0.5563
40298SOL    HW125579   7.591   8.801   4.529 -0.8274  0.2341  3.9606
40298SOL    HW225580   7.466   8.883   4.504 -0.5428 -0.3910 -0.1712
40299SOL     OW25581  11.100   4.517   7.516 -0.7459  0.2657 -0.1133
40299SOL    HW125582  11.036   4.577   7.555 -0.3914  1.0988 -0.7785
40299SOL    HW225583  11.058   4.431   7.520 -1.5597  0.6693  0.2184
40300SOL     OW25584  11.083   9.643   7.546 -0.0676  0.1665 -0.1575
40300SOL    HW125585  11.000   9.609   7.579  0.6104 -1.4064  0.0210
40300SOL    HW225586  11.090   9.607   7.458  0.9102 -0.6147  0.2231
40301SOL     OW25587  10.599   3.913  11.235 -0.2875  0.5822  0.2640
40301SOL    HW125588  10.613   3.822  11.208  1.1523  1.1606 -1.1311
40301SOL    HW225589  10.609   3.912  11.330  1.8193 -0.4044  0.0852
40302SOL     OW25590   3.911   0.227   3.369  0.4344 -0.4611  0.1552
40302SOL    HW125591   3.951   0.295   3.423 -1.2704  1.2934 -0.6985
40302SOL    HW225592   3.852   0.181   3.428  0.3853 -0.1353  0.3623
40303SOL     OW25593   2.947   2.647   4.773 -0.4891  0.3351 -0.5951
40303SOL    HW125594   2.857   2.663   4.744 -0.0379  1.7082 -1.3335
40303SOL    HW225595   2.957   2.704   4.849  0.7033  2.7011 -2.4077
40304SOL     OW25596  11.047   5.519   2.262  0.0335  0.3742 -0.2022
40304SOL    HW125597  11.004   5.585   2.317  0.8976  0.7818 -0.0003
40304SOL    HW225598  10.990   5.442   2.269 -0.6468  0.8841  0.0762
40305SOL     OW25599  10.553  10.054   5.087 -0.0868 -0.4368  0.0501
40305SOL    HW125600  10.645  10.078   5.094  0.4147 -1.3674 -2.3690
40305SOL    HW225601  10.524  10.091   5.003 -2.0151  0.0863  0.8915
40306SOL     OW25602   8.550   8.340   4.234  0.0120 -0.2243  0.1358
40306SOL    HW125603   8.524   8.253   4.202  0.5130  0.0721 -1.1482
40306SOL    HW225604   8.638   8.352   4.199  0.3014  0.4369  1.0720
40307SOL     OW25605   5.105   4.137   3.416 -0.2144 -0.0341  0.2679
40307SOL    HW125606   5.153   4.210   3.376 -1.6403 -0.0581 -1.6593
40307SOL    HW225607   5.082   4.169   3.503 -0.7593  1.8545 -0.4968
40308SOL     OW25608   3.721   9.426   5.837 -0.2302 -0.7034  0.4438
40308SOL    HW125609   3.639   9.438   5.790  0.6372 -0.5343 -1.0722
40308SOL    HW225610   3.789   9.461   5.779  0.5976  3.3742  3.3869
40309SOL     OW25611   8.559   3.820   2.734 -0.2659 -0.0111 -0.0852
40309SOL    HW125612   8.546   3.755   2.665 -0.3761  0.8416 -0.8913
40309SOL    HW225613   8.648   3.854   2.719 -0.2589  0.1194  0.2387
40310SOL     OW25614   2.819  11.201   7.393 -0.3016 -0.5757  0.1408
40310SOL    HW125615   2.824  11.297   7.393  2.5600 -0.6381 -0.1833
40310SOL    HW225616   2.770  11.179   7.314  1.7596  0.5984 -1.5394
40311SOL     OW25617   8.208   6.230   4.853  0.7795  0.2508 -0.2561
40311SOL    HW125618   8.131   6.208   4.905  0.8391  0.6791  0.0266
40311SOL    HW225619   8.275   6.168   4.880  1.0122  0.8939  0.6855
40312SOL     OW25620   6.510   3.975   4.826 -0.0186  0.0964  0.0749
40312SOL    HW125621   6.584   3.941   4.875 -0.8641  0.4898  1.6914
40312SOL    HW225622   6.517   4.070   4.834 -0.9839  0.1243  0.7099
40313SOL     OW25623   2.859   8.643   8.304 -0.3561 -0.2726 -0.1805
40313SOL    HW125624   2.867   8.572   8.240  0.7238  0.9046 -1.4118
40313SOL    HW225625   2.778   8.687   8.281  0.4331  0.6423 -1.3007
40314SOL     OW25626   9.248   0.750  11.245 -0.1610 -0.2819 -0.3643
40314SOL    HW125627   9.341   0.743  11.266 -0.3644 -1.0511  0.3325
40314SOL    HW225628   9.233   0.844  11.236  0.9083 -0.1993 -1.5869
40315SOL     OW25629   9.244  10.077   2.135 -0.5014  0.7024  0.4167
40315SOL    HW125630   9.328  10.105   2.098 -0.1514 -0.1323  0.5478
40315SOL    HW225631   9.249   9.981   2.135 -0.3963  0.6535  2.8266
40316SOL     OW25632   6.492   7.630  10.352 -0.4897 -0.0219  0.0561
40316SOL    HW125633   6.520   7.539  10.350  1.7295  0.6052  0.1729
40316SOL    HW225634   6.397   7.626  10.337 -0.2659 -2.2492 -1.2021
40317SOL     OW25635   5.837   1.129   1.902  0.1974 -0.2657  0.6305
40317SOL    HW125636   5.775   1.151   1.971 -0.4621  0.2144 -0.1108
40317SOL    HW225637   5.796   1.056   1.855 -0.3637  0.7998 -0.5787
40318SOL     OW25638   7.392   5.764   0.802 -0.1374 -0.1507 -0.1927
40318SOL    HW125639   7.378   5.817   0.723 -0.4968  0.1905  0.0971
40318SOL    HW225640   7.473   5.716   0.784  0.5326  0.9380 -0.2329
40319SOL     OW25641   9.920   7.362   4.019  0.5814  0.2740  0.3005
40319SOL    HW125642   9.898   7.410   4.099 -1.2491  0.0196 -0.0102
40319SOL    HW225643   9.871   7.407   3.950 -1.1997 -1.9531  0.0071
40320SOL     OW25644   4.675  11.528  11.884 -0.0664  0.1144  0.2752
40320SOL    HW125645   4.733  11.523  11.808  0.6345 -0.2403  0.8172
40320SOL    HW225646   4.612  11.457  11.871 -0.6110  0.7217 -0.4942
40321SOL     OW25647  10.545   0.286   1.342 -0.2086 -0.4457 -0.3465
40321SOL    HW125648  10.626   0.253   1.380  1.7828  1.2845 -2.7226
40321SOL    HW225649  10.524   0.224   1.272  0.1399  0.0512 -0.9071
40322SOL     OW25650   5.382   1.859   2.870  0.0940  0.0119  0.0531
40322SOL    HW125651   5.442   1.813   2.928 -0.9745 -0.2439  0.9776
40322SOL    HW225652   5.420   1.848   2.782  1.7647  0.4660  0.6796
40323SOL     OW25653   4.212   2.153   0.925 -0.6253 -0.6120  0.1864
40323SOL    HW125654   4.251   2.097   0.858  0.3653  0.0473  0.1936
40323SOL    HW225655   4.141   2.199   0.880 -0.9952 -1.3324  0.0080
40324SOL     OW25656   8.495  11.637   6.555 -0.6850 -0.1637 -0.1413
40324SOL    HW125657   8.488  11.549   6.591 -2.0216 -0.7638 -1.7412
40324SOL    HW225658   8.572  11.635   6.499  0.9678  0.5663  1.9360
40325SOL     OW25659   5.043  11.168   4.617  0.1864  0.1533  0.3808
40325SOL    HW125660   5.134  11.140   4.621 -0.0800 -0.9366 -0.4674
40325SOL    HW225661   5.046  11.264   4.623  1.5415  0.2820 -1.5278
40326SOL     OW25662   0.961   8.119   7.805  0.3602  0.3069  0.0391
40326SOL    HW125663   0.925   8.099   7.891 -0.1878 -1.6392 -0.5750
40326SOL    HW225664   1.009   8.201   7.816 -0.4528  0.5575  1.9613
40327SOL     OW25665   9.787   5.646   1.577 -0.6597 -0.1693 -0.8891
40327SOL    HW125666   9.796   5.551   1.589 -0.4915 -0.0877 -0.3247
40327SOL    HW225667   9.876   5.679   1.588 -0.9089  0.1844  0.2583
40328SOL     OW25668   2.638   4.157   1.785 -0.5865  0.1182  0.2996
40328SOL    HW125669   2.635   4.214   1.707  2.9392  0.9189  0.5734
40328SOL    HW225670   2.571   4.194   1.843 -0.7370  1.8869 -0.8887
40329SOL     OW25671   3.189   5.485   3.322 -0.2527 -0.0438 -0.4280
40329SOL    HW125672   3.270   5.503   3.275 -0.1274  0.6545  0.0415
40329SOL    HW225673   3.193   5.541   3.399 -1.7458  0.9397 -1.0126
40330SOL     OW25674   4.532   7.270   1.776  0.7602 -0.2490  0.0157
40330SOL    HW125675   4.569   7.282   1.688 -1.2321  0.3821 -0.7761
40330SOL    HW225676   4.521   7.358   1.810 -0.8800 -0.3591 -0.1651
40331SOL     OW25677   0.746   5.135  10.359  0.3591 -0.0315 -0.0834
40331SOL    HW125678   0.743   5.183  10.276  0.2215  0.6554  0.3051
40331SOL    HW225679   0.815   5.070  10.347 -0.5821 -0.8679 -1.2156
40332SOL     OW25680   4.452   4.916  11.756 -0.1452 -0.1825  0.1397
40332SOL    HW125681   4.401   4.913  11.675  0.9484 -0.4667 -0.5536
40332SOL    HW225682   4.541   4.938  11.727  0.5746 -1.6990  1.1094
40333SOL     OW25683   5.911  10.136   9.194  0.1216  0.1376  0.1384
40333SOL    HW125684   5.987  10.089   9.160 -0.6945 -0.3030 -1.1599
40333SOL    HW225685   5.931  10.228   9.178  0.2874  0.0094 -0.4219
40334SOL     OW25686  11.705   8.646   4.736 -0.2072  0.0360 -0.0412
40334SOL    HW125687  11.658   8.690   4.807  0.7631  0.4823  0.3476
40334SOL    HW225688  11.644   8.579   4.704 -0.8144  0.1010  0.9399
40335SOL     OW25689   8.205   2.830   0.316  0.4215 -0.1532 -0.3281
40335SOL    HW125690   8.215   2.810   0.409  0.0649 -0.8389 -0.4283
40335SOL    HW225691   8.117   2.868   0.309  1.3796  2.3301 -0.0168
40336SOL     OW25692  11.867   5.974   0.453 -0.2760  0.1972 -1.2429
40336SOL    HW125693  11.805   5.901   0.464 -1.1089  0.9353 -0.9680
40336SOL    HW225694  11.837   6.020   0.375  0.8363 -0.3006 -2.0055
40337SOL     OW25695   6.474   8.248   5.817 -0.6961  0.5211 -0.1942
40337SOL    HW125696   6.540   8.261   5.749  0.8457  0.9571  1.3208
40337SOL    HW225697   6.507   8.175   5.870 -1.2364  0.9745  0.8012
40338SOL     OW25698   3.231  10.219   3.649  0.4090 -0.0423 -0.2820
40338SOL    HW125699   3.213  10.299   3.699  0.0268 -1.2276  1.5414
40338SOL    HW225700   3.162  10.158   3.674  0.7554 -1.0025 -1.5594
40339SOL     OW25701  11.529   1.498  11.871  0.3181  0.2345 -0.2403
40339SOL    HW125702  11.563   1.465  11.954 -0.7901  1.2703  0.6641
40339SOL    HW225703  11.472   1.429  11.838 -1.2498  0.7880  1.1714
40340SOL     OW25704   2.603   7.691   0.678  0.2160  0.1512  0.1565
40340SOL    HW125705   2.661   7.765   0.659  1.3062 -0.6090  0.4151
40340SOL    HW225706   2.537   7.727   0.737 -0.1245  1.2524 -0.8510
40341SOL     OW25707   9.273   8.698  11.516 -0.0548  0.2547 -0.4472
40341SOL    HW125708   9.331   8.749  11.460  1.8305  0.5958  1.6584
40341SOL    HW225709   9.318   8.614  11.527  1.2350  1.2436  2.8624
40342SOL     OW25710   9.249  11.253  10.912  0.4457 -0.1568  0.5749
40342SOL    HW125711   9.181  11.211  10.964  0.2843  1.3555  1.6846
40342SOL    HW225712   9.321  11.267  10.974  1.3388 -0.7344 -0.3052
40343SOL     OW25713  10.399   7.449   1.103 -0.2774  0.0791 -0.4630
40343SOL    HW125714  10.408   7.513   1.032  0.6570  0.2128 -0.2288
40343SOL    HW225715  10.376   7.501   1.180 -0.6649  0.0030 -0.5259
40344SOL     OW25716   7.469   0.188  11.166  0.6596 -0.0280  0.6556
40344SOL    HW125717   7.388   0.235  11.183  0.1460 -1.0163  0.9758
40344SOL    HW225718   7.538   0.245  11.201  0.0935  0.7152  0.5670
40345SOL     OW25719  11.168   9.741   1.134 -0.1134  0.4114  0.6296
40345SOL    HW125720  11.224   9.799   1.185 -0.0629  0.7399  0.2128
40345SOL    HW225721  11.095   9.797   1.107  1.4465  1.2192 -2.4006
40346SOL     OW25722  11.982   9.904   3.706  0.0278  0.0231  0.0696
40346SOL    HW125723  11.932   9.936   3.781  0.7881 -0.3222  0.7279
40346SOL    HW225724  12.018   9.983   3.666 -1.7326  0.3711 -0.9423
40347SOL     OW25725   1.170   0.998   2.415  0.2584  0.0433 -0.3051
40347SOL    HW125726   1.115   0.932   2.458 -0.7675  2.0905  1.7932
40347SOL    HW225727   1.153   0.986   2.322 -1.1259 -1.6022  0.1021
40348SOL     OW25728  10.583   4.252   0.733  0.3380  0.0390  0.0498
40348SOL    HW125729  10.672   4.227   0.708 -0.0033 -1.2374  0.0624
40348SOL    HW225730  10.590   4.344   0.758  2.0230 -0.5357  1.8605
40349SOL     OW25731  11.184   5.661   1.594  0.5828  0.2034  0.1760
40349SOL    HW125732  11.109   5.635   1.540  1.5727 -0.1240 -1.0966
40349SOL    HW225733  11.163   5.749   1.624  0.2692  0.6678 -1.3094
40350SOL     OW25734   5.176  10.731   1.031  0.7221 -0.1654  0.1260
40350SOL    HW125735   5.128  10.674   0.971  1.5078  1.6215 -2.4064
40350SOL    HW225736   5.129  10.815   1.026  0.7135 -0.0011  2.2289
40351SOL     OW25737   8.583   1.903   1.336  0.7859 -0.0206 -0.1068
40351SOL    HW125738   8.622   1.981   1.377 -1.2554  0.6506  0.6452
40351SOL    HW225739   8.628   1.896   1.252  1.2185  1.8091 -0.0689
40352SOL     OW25740   6.253   3.503   4.879  0.2157  0.6756  0.3257
40352SOL    HW125741   6.285   3.585   4.915 -2.1825  0.7675  2.5770
40352SOL    HW225742   6.163   3.523   4.851  0.4182 -0.6091 -1.3400
40353SOL     OW25743   3.949   8.534  11.525  0.1111  0.6591  0.2102
40353SOL    HW125744   3.928   8.622  11.494 -0.1777  0.8426  0.9166
40353SOL    HW225745   4.000   8.548  11.604  2.4777  0.2257 -1.1214
40354SOL     OW25746   8.014   8.662   8.994 -0.2013  0.3897  0.1153
40354SOL    HW125747   7.941   8.720   9.014 -0.5093 -0.1436  0.5782
40354SOL    HW225748   8.090   8.719   8.986 -0.7243  0.9983 -0.7267
40355SOL     OW25749   6.835   9.765  10.644 -0.1862 -0.6351  0.1846
40355SOL    HW125750   6.840   9.672  10.669 -0.0848 -0.6885 -0.0318
40355SOL    HW225751   6.899   9.808  10.700  0.8896 -0.9298 -0.7901
40356SOL     OW25752   0.011   3.418   3.199  0.5123 -0.0840 -0.4552
40356SOL    HW125753  -0.018   3.332   3.229  0.9813 -1.0832 -2.5877
40356SOL    HW225754  -0.027   3.480   3.260  1.2377 -1.8612  1.9584
40357SOL     OW25755   1.875   1.608   5.168 -0.5379 -0.0598  0.0026
40357SOL    HW125756   1.830   1.523   5.163 -0.9689  0.2003 -0.6373
40357SOL    HW225757   1.858   1.639   5.257 -1.8035  0.1187 -0.2815
40358SOL     OW25758   4.276   9.610  10.498 -0.2733  0.3021 -0.4412
40358SOL    HW125759   4.181   9.596  10.507 -0.2997 -0.2418 -1.3922
40358SOL    HW225760   4.297   9.675  10.565 -1.3913  0.7406 -0.4838
40359SOL     OW25761   8.928   1.245   0.393 -0.6676  0.2483 -0.1194
40359SOL    HW125762   9.000   1.294   0.432 -1.1685 -1.2499  2.9407
40359SOL    HW225763   8.969   1.192   0.325  1.0667 -0.1097  1.1421
40360SOL     OW25764   6.758   3.987   1.747 -0.1498  0.5163  0.0242
40360SOL    HW125765   6.811   3.938   1.810 -0.4086  0.9597  0.5931
40360SOL    HW225766   6.699   4.040   1.801 -1.5503 -0.3494 -0.5760
40361SOL     OW25767  11.241   5.898   0.347 -0.6276 -0.6296  0.6575
40361SOL    HW125768  11.193   5.891   0.265  0.8044  2.2572 -0.5972
40361SOL    HW225769  11.182   5.944   0.406 -1.2112 -1.6017  0.8397
40362SOL     OW25770   5.504  10.320   2.758  0.0076  0.0560 -0.1181
40362SOL    HW125771   5.426  10.367   2.787  1.1893  0.4006  2.9248
40362SOL    HW225772   5.510  10.246   2.818  2.2427  0.3386  0.0844
40363SOL     OW25773   8.232   2.818   8.316 -0.1129 -0.0517 -0.0710
40363SOL    HW125774   8.260   2.805   8.225  0.9980 -2.1069  0.4763
40363SOL    HW225775   8.303   2.780   8.368  0.4283  3.1396  1.8109
40364SOL     OW25776   8.452   3.809   6.016 -0.5705  0.2943  0.6073
40364SOL    HW125777   8.443   3.801   6.111  0.2209 -1.8937  0.5650
40364SOL    HW225778   8.532   3.761   5.995 -1.9991 -1.4648 -1.3625
40365SOL     OW25779   4.439   3.485   9.565 -0.0129 -0.2057  0.1823
40365SOL    HW125780   4.469   3.394   9.559 -0.7670 -0.4112 -0.9642
40365SOL    HW225781   4.376   3.494   9.493  0.9588  1.5830 -0.5215
40366SOL     OW25782   9.149   3.301   8.443 -0.0269  0.4277 -0.4871
40366SOL    HW125783   9.162   3.391   8.474  1.4491 -0.4732  1.7810
40366SOL    HW225784   9.054   3.290   8.439 -0.2393  1.7375  0.3011
40367SOL     OW25785   5.045  10.443   0.439  0.1483  0.0631 -0.5019
40367SOL    HW125786   4.959  10.477   0.460 -1.0361 -2.0837 -1.4885
40367SOL    HW225787   5.105  10.516   0.453 -1.9781  1.9926 -0.9861
40368SOL     OW25788   0.593   8.731  10.617 -0.0261 -0.0359 -0.2831
40368SOL    HW125789   0.685   8.714  10.600  0.1776 -0.6605  1.2966
40368SOL    HW225790   0.592   8.786  10.696 -1.0046 -0.1350 -0.2105
40369SOL     OW25791   3.186   1.012   6.806 -0.2693 -0.4672  0.6762
40369SOL    HW125792   3.167   0.927   6.765 -1.1354 -0.1216  0.3480
40369SOL    HW225793   3.100   1.051   6.821  0.1450  0.9492 -0.4039
40370SOL     OW25794   8.668   2.704  10.581 -0.4910  0.0038  0.1383
40370SOL    HW125795   8.751   2.742  10.611 -0.7959 -0.2603  1.3764
40370SOL    HW225796   8.629   2.666  10.660 -1.6339 -0.1784 -0.4904
40371SOL     OW25797   7.592   8.033  11.727  0.6166  0.5975  0.1168
40371SOL    HW125798   7.552   7.964  11.675 -2.7291  1.8508  0.7513
40371SOL    HW225799   7.635   7.987  11.799 -1.1500 -0.9077  0.2924
40372SOL     OW25800   9.704   7.587   1.257  0.3844  0.2017 -0.7833
40372SOL    HW125801   9.625   7.539   1.233  1.1727 -1.0007 -1.0931
40372SOL    HW225802   9.743   7.534   1.328 -0.3972  2.1272  1.1838
40373SOL     OW25803   9.604   0.242   6.033 -0.9489  0.4765  0.3764
40373SOL    HW125804   9.570   0.174   5.974  0.9298 -1.7720  1.7606
40373SOL    HW225805   9.699   0.232   6.030 -0.4986  3.7567 -0.0862
40374SOL     OW25806   4.053   0.819  11.676  0.0519 -0.0117 -0.0241
40374SOL    HW125807   4.106   0.867  11.613  2.1779 -4.3652 -1.9886
40374SOL    HW225808   4.087   0.846  11.761  2.1187  0.8900 -1.0552
40375SOL     OW25809   1.125   1.178   1.578  0.0504 -0.5238 -0.2987
40375SOL    HW125810   1.105   1.128   1.499  0.5190 -1.6009  0.2522
40375SOL    HW225811   1.171   1.117   1.635 -0.5095  0.1487  0.9296
40376SOL     OW25812   5.262   4.337  10.632  0.5193 -0.2534  0.4036
40376SOL    HW125813   5.333   4.320  10.693  0.5082  0.5444  0.6415
40376SOL    HW225814   5.284   4.286  10.554  1.3455 -0.0208  0.4812
40377SOL     OW25815   0.590   4.678   6.731  0.0095  0.4719  0.0311
40377SOL    HW125816   0.573   4.608   6.667 -1.9433 -0.3018  1.3004
40377SOL    HW225817   0.675   4.656   6.769  0.4131  0.0074 -1.0993
40378SOL     OW25818   6.282  11.454  11.586  0.5711 -0.0985 -0.5585
40378SOL    HW125819   6.285  11.364  11.618 -2.5257  0.3736  1.4870
40378SOL    HW225820   6.340  11.502  11.646  1.0064 -0.4866 -0.6693
40379SOL     OW25821   4.431   1.514   5.100  0.0046 -0.2671  0.0593
40379SOL    HW125822   4.405   1.487   5.012  0.0014 -1.0604  0.2960
40379SOL    HW225823   4.527   1.513   5.098  0.0125 -1.0815  0.2866
40380SOL     OW25824   2.414   4.161   3.168  0.4090 -0.0208  0.0500
40380SOL    HW125825   2.397   4.146   3.076 -0.7535 -0.3466  0.3035
40380SOL    HW225826   2.347   4.110   3.214  0.9407  0.1686  1.0702
40381SOL     OW25827   1.554   1.645   9.035  0.1748 -0.4769 -0.0358
40381SOL    HW125828   1.593   1.677   9.117  0.2692  0.7598 -0.5562
40381SOL    HW225829   1.583   1.554   9.030  0.9751 -0.2887  0.8230
40382SOL     OW25830  11.519   6.191   0.094 -0.4726 -0.1014 -0.0291
40382SOL    HW125831  11.438   6.242   0.091  0.2429  1.1611  1.0525
40382SOL    HW225832  11.489   6.100   0.105 -1.7435  0.2037 -0.7126
40383SOL     OW25833   2.681   1.623   9.560  0.1064  0.4981  0.2244
40383SOL    HW125834   2.649   1.583   9.641  0.7153 -2.3293 -0.8059
40383SOL    HW225835   2.764   1.663   9.585 -0.3875  0.9231  1.2691
40384SOL     OW25836   3.550   0.092   0.649 -0.5016 -0.1661  0.4035
40384SOL    HW125837   3.521   0.155   0.583  1.2170 -0.4377 -0.6711
40384SOL    HW225838   3.477   0.087   0.710 -2.5767 -0.5682 -1.9299
40385SOL     OW25839   0.007   3.009   6.157  0.0639  0.3451  0.4299
40385SOL    HW125840  -0.087   3.008   6.172  0.4153 -0.6887  3.1942
40385SOL    HW225841   0.034   3.098   6.179 -0.2637  0.7086 -0.5883
40386SOL     OW25842  11.372   1.485   0.471 -0.0848  0.3997  0.1873
40386SOL    HW125843  11.329   1.466   0.388 -0.2136 -1.3831  0.6223
40386SOL    HW225844  11.463   1.503   0.447  0.0157 -0.6812 -0.3297
40387SOL     OW25845   3.479   7.844   1.685  0.2727  0.3106  0.1923
40387SOL    HW125846   3.493   7.901   1.761 -0.7396  0.7883  0.0409
40387SOL    HW225847   3.407   7.787   1.711 -0.1632  0.5571 -0.4317
40388SOL     OW25848  10.176   0.642   5.058  0.2335 -0.0917 -0.4614
40388SOL    HW125849  10.208   0.563   5.014  1.6061  1.1623 -1.8337
40388SOL    HW225850  10.201   0.630   5.149  1.2174 -0.8481 -0.8148
40389SOL     OW25851   9.912   8.873   6.815  0.0302  0.0579  0.5681
40389SOL    HW125852   9.831   8.838   6.779  0.0609 -0.7892  1.2890
40389SOL    HW225853   9.956   8.797   6.854  0.8531  0.6219  0.7689
40390SOL     OW25854   8.036   3.056   9.570 -0.1322 -0.7189  0.1645
40390SOL    HW125855   8.070   2.982   9.520 -0.8381 -1.1529  0.3046
40390SOL    HW225856   7.949   3.028   9.597  0.5475 -0.8767  2.4090
40391SOL     OW25857   9.394   2.624   0.170 -0.3204 -0.1684 -0.5699
40391SOL    HW125858   9.392   2.589   0.259  1.0235  0.2284 -0.3630
40391SOL    HW225859   9.409   2.718   0.182 -0.5640 -0.0425 -1.2118
40392SOL     OW25860   5.975   2.479   6.344  0.4042  0.4352 -0.3144
40392SOL    HW125861   5.923   2.497   6.266  0.6790  1.0263 -0.3674
40392SOL    HW225862   6.015   2.394   6.326  1.7673  1.2900 -1.5405
40393SOL     OW25863   0.180   6.213   1.490 -0.7700  0.0289  0.5175
40393SOL    HW125864   0.148   6.155   1.559 -1.0404 -0.5569 -0.0901
40393SOL    HW225865   0.144   6.177   1.409 -0.5640  0.7803  0.0761
40394SOL     OW25866   8.448   2.753   1.943  0.4372 -0.8025  0.2245
40394SOL    HW125867   8.433   2.846   1.961  1.5481 -0.8171  1.3030
40394SOL    HW225868   8.515   2.753   1.874 -0.9481 -0.8116 -1.1916
40395SOL     OW25869   2.437   1.167   8.806  0.3582 -0.2955  0.0381
40395SOL    HW125870   2.368   1.174   8.872  0.4961 -1.7235  0.3761
40395SOL    HW225871   2.497   1.238   8.825 -0.0478 -0.1798  0.9149
40396SOL     OW25872   4.611   4.171   9.253  0.1020  0.5742  0.1147
40396SOL    HW125873   4.699   4.187   9.286  0.4603 -0.7757 -0.1198
40396SOL    HW225874   4.617   4.188   9.159  1.0564 -2.6909 -0.5565
40397SOL     OW25875   6.438   2.166   2.556 -0.2730 -0.0070 -0.0940
40397SOL    HW125876   6.478   2.246   2.521  0.7561 -1.2955 -2.1479
40397SOL    HW225877   6.347   2.189   2.572 -0.1554  1.4230 -1.2392
40398SOL     OW25878  11.699   5.575   2.064 -0.7780 -0.0799 -0.2245
40398SOL    HW125879  11.635   5.615   2.123 -0.6411 -0.0123 -0.1206
40398SOL    HW225880  11.752   5.518   2.120 -0.1539  0.5719 -0.1404
40399SOL     OW25881  10.349   4.560   9.514 -0.4798 -0.3457  0.3251
40399SOL    HW125882  10.390   4.542   9.599  0.2948  0.5363  0.1568
40399SOL    HW225883  10.412   4.528   9.450 -1.0220 -0.9250  0.0737
40400SOL     OW25884   9.066   2.768   1.474  0.3315  0.1693 -0.5915
40400SOL    HW125885   9.038   2.717   1.398  0.7125 -0.3169 -0.4149
40400SOL    HW225886   9.113   2.843   1.437  0.5888 -0.1087 -0.8350
40401SOL     OW25887   4.612   0.898   9.022 -0.3458  0.5291 -0.9135
40401SOL    HW125888   4.602   0.953   9.100 -0.4892  0.9387 -1.2140
40401SOL    HW225889   4.699   0.920   8.988 -0.7772  1.2895 -1.5688
40402SOL     OW25890   7.428   8.526   2.616  0.1263 -0.3887  0.2086
40402SOL    HW125891   7.468   8.601   2.572 -0.2743  0.3983  1.1743
40402SOL    HW225892   7.457   8.451   2.564 -0.2521  0.4896 -1.3595
40403SOL     OW25893   4.540   6.602   3.467  0.9158 -0.0670 -0.2295
40403SOL    HW125894   4.489   6.566   3.394  0.6003  1.6863 -0.9255
40403SOL    HW225895   4.478   6.613   3.538 -0.0343  2.9158 -1.3590
40404SOL     OW25896   5.013   1.652   2.241 -0.1466 -0.2803  0.4088
40404SOL    HW125897   4.937   1.646   2.300 -1.0394 -0.8891 -0.7665
40404SOL    HW225898   4.979   1.693   2.162  1.0818  0.6683  0.3435
40405SOL     OW25899  11.401  11.044   2.186  0.7200 -0.1760 -0.2081
40405SOL    HW125900  11.390  10.959   2.143  0.1466 -0.3081  0.1814
40405SOL    HW225901  11.311  11.073   2.204  0.8005  1.3595 -1.9493
40406SOL     OW25902   5.256   5.353   4.299  0.0895  0.1019 -0.2130
40406SOL    HW125903   5.199   5.353   4.375 -0.4010  0.4707 -0.5751
40406SOL    HW225904   5.330   5.409   4.324  1.1094 -1.5914  0.8284
40407SOL     OW25905   8.475   5.392   4.802 -0.1946 -0.0470  0.3419
40407SOL    HW125906   8.466   5.331   4.728 -0.3853  0.5522 -0.1342
40407SOL    HW225907   8.525   5.465   4.767 -0.3094  0.2572  0.8048
40408SOL     OW25908  11.823   9.509   6.325  0.0264  0.5524 -0.2099
40408SOL    HW125909  11.857   9.423   6.297 -1.1584  0.0359 -0.1020
40408SOL    HW225910  11.876   9.572   6.276  2.6369 -0.1120  1.5439
40409SOL     OW25911   9.098  11.202   2.988 -0.5227 -0.0668 -0.0288
40409SOL    HW125912   9.061  11.128   3.037 -3.6432  0.5231 -1.2150
40409SOL    HW225913   9.107  11.272   3.052 -1.9049 -0.1374  0.2708
40410SOL     OW25914   1.760   4.329   9.785 -0.4473 -0.2025 -0.3838
40410SOL    HW125915   1.792   4.360   9.700  1.6953 -2.6490 -0.5768
40410SOL    HW225916   1.714   4.248   9.766  0.2137 -0.8823  0.7658
40411SOL     OW25917   3.004   9.905  11.837  0.4342  0.0756 -0.1828
40411SOL    HW125918   2.908   9.911  11.838  0.4702  1.0748 -1.0335
40411SOL    HW225919   3.023   9.819  11.873 -0.7067  0.6625  2.0361
40412SOL     OW25920   9.784   8.447   5.615  0.4928 -0.0702  0.3611
40412SOL    HW125921   9.716   8.502   5.655  0.6877 -0.9799  2.0490
40412SOL    HW225922   9.806   8.384   5.684  1.3772 -1.2699 -0.9895
40413SOL     OW25923   7.338  10.242   5.057  0.4444 -0.2057 -0.0761
40413SOL    HW125924   7.422  10.236   5.102  0.6381 -0.1423 -0.4294
40413SOL    HW225925   7.321  10.336   5.051  1.2279 -0.1366 -1.6247
40414SOL     OW25926  11.385   3.525  11.204 -0.7261 -0.5297 -0.2156
40414SOL    HW125927  11.324   3.479  11.261 -0.9300 -0.3100 -0.2517
40414SOL    HW225928  11.468   3.479  11.214 -0.4799  0.1728  1.0889
40415SOL     OW25929   2.178   5.465   7.531 -0.1354 -0.0891 -0.9154
40415SOL    HW125930   2.218   5.399   7.473 -1.8527 -0.6729 -1.4949
40415SOL    HW225931   2.105   5.500   7.480 -0.4582  0.8494  0.1589
40416SOL     OW25932   8.189   5.410   5.485  0.3514  0.0674  0.5816
40416SOL    HW125933   8.155   5.472   5.421  2.8037 -0.4554 -1.3506
40416SOL    HW225934   8.219   5.465   5.558 -0.4916  0.8369  0.3606
40417SOL     OW25935   5.688   9.201   7.830 -0.1660 -0.1217  0.1131
40417SOL    HW125936   5.622   9.270   7.832 -1.0703 -0.9601 -0.3899
40417SOL    HW225937   5.687   9.168   7.740  0.1617 -0.8864  0.3780
40418SOL     OW25938   9.592   4.551   1.638 -0.2065 -0.0166 -0.5164
40418SOL    HW125939   9.663   4.537   1.700 -0.2709  1.2213 -0.1366
40418SOL    HW225940   9.608   4.487   1.568  0.2372 -0.9716  0.4412
40419SOL     OW25941   0.948   0.682   9.518  0.5299 -0.3672  0.4008
40419SOL    HW125942   0.934   0.628   9.441  1.5491 -0.7417  0.4495
40419SOL    HW225943   0.951   0.619   9.591 -1.4413  0.0677  0.9158
40420SOL     OW25944   5.222   2.111   6.620 -0.2471  0.1423  0.2689
40420SOL    HW125945   5.284   2.126   6.549  1.3213 -1.2718  1.2618
40420SOL    HW225946   5.272   2.128   6.700 -1.3799 -0.1953  1.0753
40421SOL     OW25947  11.767   0.500   7.886  0.0385  0.2331  0.3892
40421SOL    HW125948  11.762   0.483   7.792 -0.1614 -1.4178  0.6733
40421SOL    HW225949  11.679   0.531   7.909 -0.3652 -0.8071  0.2865
40422SOL     OW25950   1.512   7.154   3.991  0.2793 -0.4677 -0.0213
40422SOL    HW125951   1.512   7.161   3.896  1.1969  1.8645  0.0942
40422SOL    HW225952   1.599   7.181   4.018 -0.5549  0.8538  1.5597
40423SOL     OW25953   7.626   2.592   6.266  0.3289 -0.5622  0.4922
40423SOL    HW125954   7.698   2.530   6.275  0.6190 -0.4282 -0.7635
40423SOL    HW225955   7.667   2.678   6.266  0.2129 -0.4950 -0.5039
40424SOL     OW25956  10.274   2.432   1.588  0.0862 -0.1132 -1.0642
40424SOL    HW125957  10.279   2.348   1.541  0.8262 -1.1516  0.7571
40424SOL    HW225958  10.208   2.418   1.655 -0.4633  1.1032 -1.3406
40425SOL     OW25959  11.464   4.746   0.581 -0.2698 -0.0292 -0.1765
40425SOL    HW125960  11.539   4.762   0.523  0.4089 -0.3651  0.5976
40425SOL    HW225961  11.502   4.741   0.669 -0.8410 -2.5354  0.0142
40426SOL     OW25962   4.264  11.416   0.313 -0.2492 -0.5312  0.5578
40426SOL    HW125963   4.204  11.484   0.344 -1.4784  0.2552 -3.0153
40426SOL    HW225964   4.227  11.334   0.346 -1.3937  0.1907  1.1436
40427SOL     OW25965   8.176   2.198   0.399  0.7751 -0.4227 -0.4802
40427SOL    HW125966   8.232   2.135   0.445  3.4840  0.7381 -1.9144
40427SOL    HW225967   8.108   2.145   0.359  1.9875 -2.2503 -0.2697
40428SOL     OW25968   1.222   5.248   3.345 -0.3463 -0.1821 -0.1130
40428SOL    HW125969   1.180   5.181   3.399  1.4352 -1.5583 -0.3111
40428SOL    HW225970   1.192   5.331   3.380 -1.8529 -1.0831  0.7948
40429SOL     OW25971   4.976   4.750   9.718 -0.2614  0.1619  0.1111
40429SOL    HW125972   4.999   4.720   9.806 -0.6439 -0.6538 -0.0574
40429SOL    HW225973   5.054   4.797   9.688 -0.3193  0.9142  1.0808
40430SOL     OW25974  10.688   6.517   0.897  0.1790  0.9397  0.0136
40430SOL    HW125975  10.658   6.461   0.969 -0.0877 -1.1089 -1.6022
40430SOL    HW225976  10.782   6.527   0.912  0.0229  1.1123  0.9749
40431SOL     OW25977   5.577   8.290  11.616  0.5598 -0.3440  0.0837
40431SOL    HW125978   5.611   8.250  11.536 -1.2126  0.7291 -1.2860
40431SOL    HW225979   5.482   8.280  11.610  0.0223  3.2668 -0.0468
40432SOL     OW25980   1.870   8.694   1.640  0.7109 -0.3592 -0.5152
40432SOL    HW125981   1.866   8.789   1.627  1.7327 -0.2606 -0.2383
40432SOL    HW225982   1.824   8.679   1.723  0.4200 -0.1275 -0.6321
40433SOL     OW25983   9.761  10.193   8.146  0.2443 -0.4526  0.4434
40433SOL    HW125984   9.834  10.151   8.101  0.3580  0.5313 -0.3289
40433SOL    HW225985   9.797  10.221   8.230  0.7522 -0.0078  0.0820
40434SOL     OW25986   8.478   0.141   5.029 -0.1523 -0.3774  0.2631
40434SOL    HW125987   8.563   0.143   5.073  0.1402  2.9436 -0.2048
40434SOL    HW225988   8.414   0.128   5.099  0.5975 -0.1539  0.9912
40435SOL     OW25989   3.575   0.265   0.054 -0.0188 -0.7378 -0.3493
40435SOL    HW125990   3.520   0.189   0.035 -0.7833 -0.5460  1.0299
40435SOL    HW225991   3.580   0.311  -0.030 -0.3223 -1.7844 -0.9755
40436SOL     OW25992   5.072  11.689   3.982 -0.4397  0.9840 -0.0064
40436SOL    HW125993   5.099  11.604   3.947  1.1776  1.9181 -1.1452
40436SOL    HW225994   5.071  11.747   3.906 -1.4579  2.0309  0.7600
40437SOL     OW25995   8.326   1.150  11.241  1.2327  0.3351  0.1212
40437SOL    HW125996   8.271   1.074  11.259  1.8641 -0.0807  0.3442
40437SOL    HW225997   8.300   1.215  11.305  0.7703  0.2665  0.0076
40438SOL     OW25998   6.199   8.127   1.714 -0.4860 -0.0442  0.6259
40438SOL    HW125999   6.105   8.143   1.703 -0.3187  0.4189 -0.2071
40438SOL    HW226000   6.226   8.084   1.634  0.3707  1.5645 -0.0036
40439SOL     OW26001  10.766   5.574   3.757  0.2106 -0.1341 -0.3234
40439SOL    HW126002  10.690   5.600   3.809  0.4144  0.3142 -0.2503
40439SOL    HW226003  10.832   5.550   3.821  0.2154 -0.2825 -0.3840
40440SOL     OW26004   6.757  10.824   2.902  0.6748 -0.1313  0.0119
40440SOL    HW126005   6.832  10.867   2.861 -0.7513  1.1034 -1.4570
40440SOL    HW226006   6.694  10.813   2.831 -0.3724 -1.5898  1.0936
40441SOL     OW26007   0.952   8.731   1.005 -0.5023 -0.0638 -0.6872
40441SOL    HW126008   1.003   8.795   1.056 -0.4747 -1.9999  1.9042
40441SOL    HW226009   0.873   8.718   1.056  0.0592 -2.9903 -0.4174
40442SOL     OW26010   1.568   6.850   6.357  0.6062 -0.3664 -0.0531
40442SOL    HW126011   1.551   6.796   6.434  3.2920  1.1075  1.7561
40442SOL    HW226012   1.623   6.795   6.301 -0.4757 -1.0606 -0.4767
40443SOL     OW26013   4.092   1.900   5.869 -0.0554 -0.6609  0.2136
40443SOL    HW126014   4.127   1.987   5.885  0.7298 -0.9920  0.3581
40443SOL    HW226015   4.145   1.866   5.797  0.5576 -1.5157  1.0304
40444SOL     OW26016   8.715   4.077  11.184  0.5057 -0.5210  0.4859
40444SOL    HW126017   8.686   3.986  11.186  0.2337 -0.4310  1.5606
40444SOL    HW226018   8.636   4.128  11.199  0.8591 -0.1746  1.2449
40445SOL     OW26019   4.850   4.793   5.454 -0.4731  1.0796  0.2149
40445SOL    HW126020   4.878   4.707   5.484  0.7076  1.4530  0.2551
40445SOL    HW226021   4.926   4.828   5.407 -1.4182  1.5232 -1.0463
40446SOL     OW26022  11.871   0.697   8.954  0.2667 -0.1545 -0.6747
40446SOL    HW126023  11.887   0.700   9.049 -0.8252 -2.1125 -0.3851
40446SOL    HW226024  11.958   0.699   8.915  0.7134  1.7214  0.2786
40447SOL     OW26025   4.238   5.621   0.243  0.1275 -0.0012  0.3418
40447SOL    HW126026   4.145   5.627   0.267 -0.0017 -0.3321 -0.0653
40447SOL    HW226027   4.250   5.692   0.179 -0.3488 -1.2183 -1.1581
40448SOL     OW26028   1.608   1.995   3.036  0.0107 -0.0215  0.2403
40448SOL    HW126029   1.641   2.084   3.023 -0.2103  0.1788  0.9653
40448SOL    HW226030   1.583   1.993   3.129  0.2280 -0.9065  0.2864
40449SOL     OW26031  11.936  11.200   3.738  0.1078 -0.5762 -0.0958
40449SOL    HW126032  11.885  11.279   3.755 -1.1362 -1.3889  0.0690
40449SOL    HW226033  11.872  11.136   3.709  1.3505 -1.0359 -1.9615
40450SOL     OW26034   6.250   0.932   6.456  0.1011 -0.1536 -0.0416
40450SOL    HW126035   6.181   0.924   6.522 -0.1833  1.4582 -0.0950
40450SOL    HW226036   6.215   0.888   6.379 -0.5103 -0.0821  0.1929
40451SOL     OW26037   6.888   0.956   6.183 -0.0665 -0.1780  0.1754
40451SOL    HW126038   6.887   0.864   6.211  2.1062 -0.7320 -1.2963
40451SOL    HW226039   6.838   1.002   6.250 -2.2269 -2.5712  0.3554
40452SOL     OW26040   4.248   9.910   5.822  0.5960 -0.3703  0.6688
40452SOL    HW126041   4.239   9.943   5.912 -2.9610  1.3251 -0.1154
40452SOL    HW226042   4.241   9.988   5.767 -0.0670 -1.6425 -1.1475
40453SOL     OW26043   8.788   6.434   9.456  0.0719 -0.4794 -0.5398
40453SOL    HW126044   8.717   6.434   9.521 -0.3311  0.4769 -0.9530
40453SOL    HW226045   8.781   6.520   9.414  1.2019 -0.5496 -0.8969
40454SOL     OW26046  11.622   3.989   6.614 -0.1171  0.3371 -0.4055
40454SOL    HW126047  11.607   4.079   6.586  1.0738  0.9116  0.7209
40454SOL    HW226048  11.668   3.948   6.540 -0.3318  0.7532 -0.7717
40455SOL     OW26049   3.872  11.174  10.887  0.0856 -0.0044 -0.5506
40455SOL    HW126050   3.889  11.108  10.955  0.4905  0.8882  0.2448
40455SOL    HW226051   3.779  11.163  10.866 -0.7186  1.2394  1.9107
40456SOL     OW26052   2.528   8.436   7.301 -1.2390 -0.2051  0.0963
40456SOL    HW126053   2.486   8.383   7.369 -0.0543 -0.3352  0.7532
40456SOL    HW226054   2.581   8.375   7.251  0.4745  0.3675  1.1218
40457SOL     OW26055   7.672   6.880   1.330 -0.3569  0.4246 -0.1037
40457SOL    HW126056   7.675   6.868   1.425 -1.4766  0.0693 -0.0887
40457SOL    HW226057   7.763   6.881   1.302 -0.0243 -1.5807  0.7266
40458SOL     OW26058   8.538   2.818   6.068 -0.6903 -0.2316 -0.5050
40458SOL    HW126059   8.500   2.830   5.981 -1.1276 -1.0798 -0.4472
40458SOL    HW226060   8.582   2.900   6.087 -0.3886 -0.1196 -1.6276
40459SOL     OW26061  10.181   3.651   6.311  0.2050  0.1264  0.1245
40459SOL    HW126062  10.229   3.588   6.257  0.6863  0.9685 -0.4531
40459SOL    HW226063  10.226   3.734   6.296  0.3125  0.4089  1.7648
40460SOL     OW26064   0.971   4.749   1.366 -0.3566  0.3248  0.2159
40460SOL    HW126065   0.918   4.828   1.378  1.5739  1.6494  0.3529
40460SOL    HW226066   1.019   4.765   1.285 -0.2244 -0.9096  0.0304
40461SOL     OW26067  10.176   7.446   0.340  0.0569 -0.1932  0.1767
40461SOL    HW126068  10.093   7.471   0.299 -0.4772 -0.9831  0.7579
40461SOL    HW226069  10.229   7.526   0.336 -0.2705 -0.0218 -1.3036
40462SOL     OW26070   1.799   5.410   4.260 -0.3003  0.0805  1.0407
40462SOL    HW126071   1.775   5.388   4.170 -0.6442 -0.4792  1.2663
40462SOL    HW226072   1.823   5.503   4.256  0.7156 -0.2028  0.1767
40463SOL     OW26073  10.083   3.913   7.540  0.1382  0.1547 -0.6934
40463SOL    HW126074  10.161   3.886   7.588  0.6523  0.6403 -1.2422
40463SOL    HW226075  10.108   3.906   7.448 -0.6472 -0.2145 -0.8865
40464SOL     OW26076   3.438  11.927   2.116 -0.5432  0.0632 -0.1852
40464SOL    HW126077   3.448  11.861   2.047 -0.2325  1.3312 -1.4065
40464SOL    HW226078   3.478  12.006   2.079 -0.6253  0.8550  1.3538
40465SOL     OW26079  10.464   3.385   2.354 -0.5929 -0.1554 -0.2917
40465SOL    HW126080  10.541   3.415   2.403 -0.1019 -0.7634 -0.6747
40465SOL    HW226081  10.445   3.457   2.294 -0.0391 -0.1890 -0.5106
40466SOL     OW26082   1.126  11.161   9.011  0.6018  0.1342 -0.0859
40466SOL    HW126083   1.215  11.181   8.982  1.1523 -0.6485  1.0042
40466SOL    HW226084   1.128  11.068   9.035 -0.6137  0.0067 -0.4054
40467SOL     OW26085   1.938   2.204   5.892 -0.9340  0.2147 -0.7690
40467SOL    HW126086   1.864   2.146   5.910 -1.2738  0.1971 -2.1050
40467SOL    HW226087   1.964   2.237   5.978 -0.7410 -1.8807  0.0527
40468SOL     OW26088   0.411  11.414   8.417  0.0399  0.1469  0.6309
40468SOL    HW126089   0.457  11.498   8.413 -1.3524  0.9670  1.2850
40468SOL    HW226090   0.425  11.376   8.330  0.0935  1.3825  0.0655
40469SOL     OW26091   9.375  11.114   3.196 -0.0101  0.0222 -0.2138
40469SOL    HW126092   9.436  11.076   3.133 -1.1076 -0.0491 -1.2735
40469SOL    HW226093   9.292  11.068   3.181 -1.1255  2.0761 -0.8534
40470SOL     OW26094   9.890   7.067   0.917  0.0340  0.0745 -0.0275
40470SOL    HW126095   9.978   7.084   0.883  0.9941 -1.4687  1.5146
40470SOL    HW226096   9.899   7.078   1.011 -1.8621  1.4485  0.0579
40471SOL     OW26097   4.310   5.411   8.152 -0.0080 -0.1647  0.1598
40471SOL    HW126098   4.315   5.360   8.232 -0.9128 -0.3682  0.1007
40471SOL    HW226099   4.391   5.390   8.105 -1.0678 -2.8755 -0.6276
40472SOL     OW26100   6.257  10.742   3.370  0.0722 -0.2421 -0.0809
40472SOL    HW126101   6.201  10.796   3.315  0.4638 -1.3252 -1.5872
40472SOL    HW226102   6.331  10.719   3.314  2.1402  1.1895  1.8336
40473SOL     OW26103   5.034   1.700   6.311  0.0879 -0.1190 -0.3830
40473SOL    HW126104   5.113   1.732   6.353 -0.2829  0.3226 -0.0173
40473SOL    HW226105   4.975   1.679   6.383 -1.0538  1.8974 -0.6412
40474SOL     OW26106   7.425   8.143   4.548  0.0668  0.4366  0.2000
40474SOL    HW126107   7.385   8.072   4.499 -0.9423  0.8926  0.3404
40474SOL    HW226108   7.420   8.219   4.489 -0.2975  0.7587  0.6314
40475SOL     OW26109   9.095   5.778   7.661 -0.9494 -0.2460  0.0340
40475SOL    HW126110   9.096   5.724   7.740  0.8050 -1.6815 -0.9168
40475SOL    HW226111   9.082   5.867   7.694  1.8774 -0.4887  2.1938
40476SOL     OW26112   9.030   6.083   1.893 -0.4788  0.6393 -0.2163
40476SOL    HW126113   9.053   6.153   1.832 -2.0307 -0.6025 -2.3895
40476SOL    HW226114   8.973   6.125   1.957 -1.6102  1.3986 -1.6369
40477SOL     OW26115   2.396   0.662   6.280 -0.4819 -0.6576 -0.3119
40477SOL    HW126116   2.304   0.661   6.254 -0.4501  2.0703 -0.8968
40477SOL    HW226117   2.394   0.674   6.375 -0.7511 -0.7909 -0.3013
40478SOL     OW26118   5.423   7.831   5.463  0.9232  0.1139 -0.1506
40478SOL    HW126119   5.437   7.834   5.558 -0.7275 -1.8768  0.2431
40478SOL    HW226120   5.419   7.737   5.443 -2.9148  0.3971 -1.4567
40479SOL     OW26121   5.440   2.088   9.670  0.4835 -0.4757 -0.1521
40479SOL    HW126122   5.477   2.014   9.622  0.4826  0.7024 -2.0446
40479SOL    HW226123   5.497   2.098   9.746  1.7974 -1.0639 -1.0234
40480SOL     OW26124   8.431   1.718   3.796 -0.5016 -0.5372  0.1207
40480SOL    HW126125   8.351   1.708   3.745 -0.0316 -1.1816 -0.5163
40480SOL    HW226126   8.436   1.811   3.815 -0.1943 -0.1033 -1.8678
40481SOL     OW26127  11.906  11.015   4.660 -0.3039  0.1178  0.3396
40481SOL    HW126128  11.829  10.982   4.614  0.9628 -0.8529 -1.1635
40481SOL    HW226129  11.908  10.966   4.742 -1.8741  0.9539  0.9176
40482SOL     OW26130   7.344   2.472   0.192 -0.3598 -0.4866  0.2059
40482SOL    HW126131   7.330   2.482   0.286 -0.4215 -1.4542  0.3148
40482SOL    HW226132   7.296   2.544   0.152 -1.9791 -1.1830  0.8161
40483SOL     OW26133  11.645   1.925   1.530  0.2399 -0.6079 -0.2189
40483SOL    HW126134  11.684   1.932   1.617  0.0904  0.7109 -0.2240
40483SOL    HW226135  11.718   1.903   1.473  0.6038 -0.1646  0.0612
40484SOL     OW26136   5.484   3.339   9.016 -0.1648  0.7686 -0.0481
40484SOL    HW126137   5.418   3.295   8.963  0.3147 -2.2000  1.5588
40484SOL    HW226138   5.557   3.353   8.956 -1.0338  1.0654 -1.0665
40485SOL     OW26139  10.142   1.043   3.391  0.1495  0.0418 -0.2394
40485SOL    HW126140  10.094   1.035   3.308  0.8478 -1.9694 -0.4980
40485SOL    HW226141  10.233   1.027   3.368  0.2108 -1.8146  1.0684
40486SOL     OW26142   8.594   4.509   8.285  0.0716 -0.1043 -0.2093
40486SOL    HW126143   8.637   4.481   8.204 -1.0242 -0.9054 -0.5533
40486SOL    HW226144   8.501   4.514   8.262 -0.4361 -1.5056  1.2640
40487SOL     OW26145   9.171   7.772  11.422  0.4386  0.2621 -0.8169
40487SOL    HW126146   9.113   7.847  11.406  0.6420  0.4430 -0.7095
40487SOL    HW226147   9.178   7.729  11.336  0.3396  0.3796 -0.8845
40488SOL     OW26148   3.528   9.356   4.510  0.4152  0.1014  0.0139
40488SOL    HW126149   3.449   9.384   4.463 -0.9054 -3.9257 -0.6224
40488SOL    HW226150   3.576   9.437   4.528 -2.8904  2.5856 -1.2764
40489SOL     OW26151  11.037  10.443  10.196  0.2697  0.2803 -0.2728
40489SOL    HW126152  11.007  10.356  10.223  1.1829  0.2803  0.8123
40489SOL    HW226153  11.035  10.495  10.276  1.3068  0.7978 -0.5652
40490SOL     OW26154   3.641   1.629   2.371  0.0743 -0.1494 -0.4988
40490SOL    HW126155   3.599   1.713   2.350 -2.4901 -1.0380  0.5770
40490SOL    HW226156   3.611   1.609   2.460  2.2834 -1.2745  0.0710
40491SOL     OW26157   4.723   9.504  10.645  0.0713 -0.2750  0.1490
40491SOL    HW126158   4.809   9.486  10.607  0.3833  1.3898 -0.0064
40491SOL    HW226159   4.678   9.557  10.580 -1.1964 -1.3123  0.1299
40492SOL     OW26160  10.810   4.175   9.319  0.1670  0.0398  0.1932
40492SOL    HW126161  10.859   4.256   9.336  0.5587 -0.3805  1.1708
40492SOL    HW226162  10.876   4.105   9.329 -0.1620 -0.4042 -0.6385
40493SOL     OW26163   0.478  10.211   7.811  0.1825 -0.3596 -0.4574
40493SOL    HW126164   0.549  10.247   7.864 -0.0045  0.5600 -0.8087
40493SOL    HW226165   0.415  10.179   7.875 -0.9279  2.4495 -0.0067
40494SOL     OW26166   1.847   3.082   8.823  0.6179 -0.9366  0.1390
40494SOL    HW126167   1.753   3.064   8.822  0.2970  0.5881 -1.8051
40494SOL    HW226168   1.885   3.011   8.771  0.3271 -0.5731 -0.5754
40495SOL     OW26169   1.179   9.550   4.397  0.0676 -0.0356  0.0468
40495SOL    HW126170   1.124   9.494   4.342 -1.2388  0.1700  1.0816
40495SOL    HW226171   1.249   9.492   4.427 -0.6585 -0.8389  0.2288
40496SOL     OW26172   4.268  10.192   8.065  0.0049  0.3309 -0.4644
40496SOL    HW126173   4.341  10.131   8.059  1.0220  1.5484 -0.9209
40496SOL    HW226174   4.297  10.259   8.126 -0.4816  1.1366 -1.0889
40497SOL     OW26175   3.732   9.969   5.135  0.1566  0.6422  0.1318
40497SOL    HW126176   3.719  10.040   5.073 -0.1505 -0.3365 -0.9502
40497SOL    HW226177   3.816   9.930   5.110 -0.3268 -0.2314 -0.1703
40498SOL     OW26178   2.563   5.161  10.002 -0.2227  0.0478 -0.2081
40498SOL    HW126179   2.623   5.174   9.928 -0.1737 -1.2657 -0.4202
40498SOL    HW226180   2.509   5.240  10.003 -0.8056 -0.2809 -2.2057
40499SOL     OW26181   9.275   6.282   8.465 -0.4420 -0.4388 -0.0204
40499SOL    HW126182   9.337   6.353   8.444 -1.2870  0.3799  0.1975
40499SOL    HW226183   9.318   6.233   8.536 -1.4818  2.2150  2.6636
40500SOL     OW26184   5.307   3.201   8.863  0.5212 -0.2083  0.6762
40500SOL    HW126185   5.275   3.265   8.799  1.2855  1.3543  1.7647
40500SOL    HW226186   5.285   3.116   8.826 -0.4526  0.6782 -0.8988
40501SOL     OW26187   7.246   7.450  10.377 -0.2062 -0.2070 -0.6383
40501SOL    HW126188   7.208   7.406  10.302 -2.1372 -0.0715  0.2157
40501SOL    HW226189   7.175   7.456  10.441  0.6732  1.8765  0.2586
40502SOL     OW26190   7.908   0.886   8.577  0.1421  0.2697 -0.5512
40502SOL    HW126191   7.970   0.861   8.646  0.7446 -1.6388 -1.6915
40502SOL    HW226192   7.823   0.881   8.619  0.5141 -0.6938  0.1321
40503SOL     OW26193   7.201   4.605  11.357  0.3308 -0.1331  0.3236
40503SOL    HW126194   7.188   4.594  11.451  1.0689 -0.1045  0.4311
40503SOL    HW226195   7.295   4.614  11.346  0.2273  0.1837 -0.3870
40504SOL     OW26196   1.518   7.899   2.270 -0.0025  0.4007  0.3708
40504SOL    HW126197   1.473   7.980   2.296  0.6912  0.9831 -0.1901
40504SOL    HW226198   1.481   7.832   2.327 -2.1138  0.7024 -0.5122
40505SOL     OW26199   6.189   5.221   1.545 -0.1293  0.3978 -0.2085
40505SOL    HW126200   6.218   5.223   1.454  2.6647 -0.2044  0.5722
40505SOL    HW226201   6.148   5.306   1.559 -1.2537  0.2434 -2.1730
40506SOL     OW26202  11.746   9.206  10.950  0.2480  0.8390  0.0392
40506SOL    HW126203  11.716   9.224  10.861  2.3723  1.9446 -0.5111
40506SOL    HW226204  11.748   9.291  10.993  1.8459  0.7134  0.2711
40507SOL     OW26205   4.393   4.660  10.995  0.7608  0.0536  0.1391
40507SOL    HW126206   4.330   4.598  10.958  2.0989 -0.7539 -0.8525
40507SOL    HW226207   4.347   4.744  10.993 -0.5722 -0.6462  0.1962
40508SOL     OW26208  10.416  10.794   7.546  0.6091 -0.2725  0.0300
40508SOL    HW126209  10.321  10.804   7.542  0.7241  0.5322 -0.9914
40508SOL    HW226210  10.449  10.884   7.554  1.3034 -0.5173 -0.0089
40509SOL     OW26211   3.095   2.165   7.873 -0.0921 -0.1495  0.4465
40509SOL    HW126212   3.165   2.118   7.829  0.0140  0.2719  0.1522
40509SOL    HW226213   3.020   2.157   7.813  0.3039  1.2049 -0.2933
40510SOL     OW26214   8.108   4.463   0.078 -0.6557 -0.0140  0.2834
40510SOL    HW126215   8.084   4.438  -0.011  2.3251 -4.4269  0.3524
40510SOL    HW226216   8.171   4.534   0.068 -0.6870 -0.1634 -1.1090
40511SOL     OW26217   1.358   9.582   3.195 -0.0606 -0.1164 -0.5749
40511SOL    HW126218   1.355   9.657   3.254 -2.2273  0.4701 -1.3544
40511SOL    HW226219   1.423   9.524   3.234 -1.1447  0.4000  2.2502
40512SOL     OW26220   2.018   6.637  11.521 -0.6620 -0.1389 -0.3610
40512SOL    HW126221   2.042   6.554  11.480  0.0639  0.9652 -2.2648
40512SOL    HW226222   1.969   6.684  11.454  2.4575  2.6595 -0.9328
40513SOL     OW26223   2.524   3.814  11.911 -0.4537 -0.0333 -0.9258
40513SOL    HW126224   2.521   3.904  11.880 -1.4507  0.5717  0.7676
40513SOL    HW226225   2.617   3.795  11.922 -0.2733  1.2067 -0.1907
40514SOL     OW26226   6.021  10.181   5.922  0.6291  0.5550 -0.4494
40514SOL    HW126227   5.998  10.229   5.842 -3.2814  0.7339  0.5675
40514SOL    HW226228   6.010  10.245   5.992 -0.4447 -0.6671  0.5609
40515SOL     OW26229   7.200   1.008   0.131  0.2033  0.5231 -0.4989
40515SOL    HW126230   7.121   1.059   0.151 -0.4009 -0.8392  0.7914
40515SOL    HW226231   7.269   1.049   0.183  0.1330  1.0921 -0.8414
40516SOL     OW26232   7.636  11.081   4.814  0.8304  0.4038  0.0831
40516SOL    HW126233   7.542  11.069   4.804  0.8150  1.1328 -0.7440
40516SOL    HW226234   7.646  11.132   4.894  0.3470  2.3477 -1.0271
40517SOL     OW26235   8.605   9.099   1.732 -0.0969 -0.4777  0.2290
40517SOL    HW126236   8.558   9.169   1.778  0.3434 -1.2410  1.9236
40517SOL    HW226237   8.642   9.045   1.802 -2.1425 -3.6435 -0.9258
40518SOL     OW26238   4.530   6.931  10.715 -0.0420 -0.1107 -0.5469
40518SOL    HW126239   4.618   6.909  10.746 -0.2270 -1.5338 -0.9431
40518SOL    HW226240   4.478   6.853  10.734 -1.0596  0.4429 -0.9611
40519SOL     OW26241   0.821   7.896   3.337  0.2203  0.4601 -0.5765
40519SOL    HW126242   0.799   7.811   3.376 -1.3076  1.5457  1.0718
40519SOL    HW226243   0.903   7.922   3.380  0.0558  0.3694 -0.2128
40520SOL     OW26244   9.178   5.639   2.695  0.3598 -0.4889 -0.3288
40520SOL    HW126245   9.267   5.651   2.661  0.5264  0.7135  0.4738
40520SOL    HW226246   9.128   5.606   2.620  1.0813  0.4903 -1.2666
40521SOL     OW26247   0.820   8.786   7.899 -0.2370  0.4232  0.3557
40521SOL    HW126248   0.816   8.728   7.823 -1.2369  0.9583 -0.0271
40521SOL    HW226249   0.868   8.737   7.966 -1.4321 -1.0081  0.1896
40522SOL     OW26250   4.861   3.102   3.742 -0.1951  0.3020  0.3868
40522SOL    HW126251   4.841   3.190   3.710 -0.7304 -0.6271 -2.0604
40522SOL    HW226252   4.945   3.080   3.702  0.6987  0.2151  2.2002
40523SOL     OW26253  11.333  10.597   9.858 -0.6129 -0.2651 -0.2194
40523SOL    HW126254  11.261  10.660   9.859  0.1312  0.7539 -3.2496
40523SOL    HW226255  11.316  10.541   9.934 -2.9074  1.7618  0.8965
40524SOL     OW26256   2.075   6.119   3.480  0.4398  0.7703 -0.0716
40524SOL    HW126257   2.154   6.068   3.500  0.2043  0.7579  0.8938
40524SOL    HW226258   2.073   6.124   3.385  1.0442 -0.1216 -0.1453
40525SOL     OW26259   1.073   3.965   3.212  0.0211  0.4165 -0.1741
40525SOL    HW126260   1.038   3.924   3.290  0.3901  0.8650  0.2339
40525SOL    HW226261   1.143   3.907   3.182  0.1495  0.4492  0.0640
40526SOL     OW26262   9.192   1.728   7.256  0.1996 -0.0597  0.6070
40526SOL    HW126263   9.249   1.692   7.188 -1.7298 -1.3900 -0.4122
40526SOL    HW226264   9.214   1.821   7.259  2.0383 -0.4338 -0.0687
40527SOL     OW26265   6.399   0.556   2.841 -0.8439 -0.1552  0.1857
40527SOL    HW126266   6.456   0.631   2.862 -0.8734 -0.0299 -0.1663
40527SOL    HW226267   6.324   0.595   2.797 -0.7459 -0.4105 -0.2214
40528SOL     OW26268   1.463   1.772   9.860 -0.9729 -0.1461 -0.8304
40528SOL    HW126269   1.461   1.808   9.772 -0.4472  0.4212 -0.6202
40528SOL    HW226270   1.496   1.683   9.849 -1.1924 -0.1788 -1.2370
40529SOL     OW26271   0.987   3.896   5.868  0.5042  0.0248 -0.3740
40529SOL    HW126272   0.991   3.901   5.963 -2.0616  0.0736 -0.1916
40529SOL    HW226273   1.058   3.836   5.844 -2.0764 -4.5563  2.0782
40530SOL     OW26274   1.375   9.421   7.304  0.2745 -0.0998  0.2924
40530SOL    HW126275   1.318   9.344   7.302  0.3741 -0.1902  0.8155
40530SOL    HW226276   1.383   9.447   7.213 -0.3007 -0.3115  0.1764
40531SOL     OW26277   3.487   8.000   6.546 -0.4189 -0.1980 -0.2653
40531SOL    HW126278   3.512   7.980   6.637 -2.2836  0.0266  0.3374
40531SOL    HW226279   3.542   7.942   6.493 -0.7027 -1.8132  1.1058
40532SOL     OW26280   9.732   1.753   5.858 -0.2140  0.3283  0.4791
40532SOL    HW126281   9.655   1.777   5.910 -1.2522  1.1668 -1.3528
40532SOL    HW226282   9.768   1.837   5.829  1.4880 -0.0496  1.3844
40533SOL     OW26283   3.564   3.953  11.201  0.5188 -0.0936  0.5537
40533SOL    HW126284   3.625   3.894  11.245  2.1256  0.0161 -1.4098
40533SOL    HW226285   3.478   3.917  11.219  1.3179 -1.7052  1.3042
40534SOL     OW26286   0.045   9.594   2.877  0.4751  0.1462 -0.4499
40534SOL    HW126287   0.129   9.587   2.832  0.9336  0.5382  0.3279
40534SOL    HW226288  -0.018   9.611   2.807  0.6338 -2.4900 -1.3852
40535SOL     OW26289   8.074   2.112   1.925  0.3243  0.1092  0.3066
40535SOL    HW126290   8.007   2.140   1.988 -0.5189 -0.4775 -0.3058
40535SOL    HW226291   8.036   2.036   1.882  0.5425  0.9693 -1.4702
40536SOL     OW26292  11.565   7.392  11.261 -0.1637  0.1280  0.3582
40536SOL    HW126293  11.586   7.324  11.197  1.0188  1.9672 -1.3083
40536SOL    HW226294  11.470   7.402  11.254  0.0534  1.2541 -2.2474
40537SOL     OW26295   1.995   7.949   1.752  0.4183 -0.3844  0.2008
40537SOL    HW126296   2.013   7.968   1.843  0.9082 -1.0432  0.2493
40537SOL    HW226297   2.081   7.944   1.710  0.1685  0.9253 -0.5188
40538SOL     OW26298   6.656   1.839   0.459  0.2937 -0.3062 -0.1536
40538SOL    HW126299   6.691   1.928   0.454  2.6564 -1.2454 -2.2193
40538SOL    HW226300   6.604   1.829   0.379 -0.1308 -0.7287  0.1670
40539SOL     OW26301   3.325   1.583   1.122  0.2691  0.2198  0.3071
40539SOL    HW126302   3.353   1.596   1.032 -0.5783 -0.1632 -0.0264
40539SOL    HW226303   3.384   1.515   1.155  0.4745  0.2400 -0.0066
40540SOL     OW26304   2.481   3.160   8.053  0.0919 -0.1829  1.0147
40540SOL    HW126305   2.386   3.170   8.047  0.0449 -0.7792  0.7438
40540SOL    HW226306   2.500   3.079   8.007  0.9196  0.7516 -0.3535
40541SOL     OW26307   9.250   2.042  10.891  0.5142 -0.0417 -0.0977
40541SOL    HW126308   9.236   1.947  10.894 -1.5667  0.2186 -0.5150
40541SOL    HW226309   9.290   2.057  10.805 -1.0593 -0.3523 -0.9175
40542SOL     OW26310   9.408   7.554   3.948 -0.2186  0.0968 -0.8849
40542SOL    HW126311   9.453   7.592   4.024 -0.0411 -0.1347 -0.8750
40542SOL    HW226312   9.437   7.607   3.874  0.7004 -0.5529 -1.0033
40543SOL     OW26313   3.977   5.161   0.477 -0.4262 -0.2183  0.6315
40543SOL    HW126314   3.981   5.167   0.382 -0.9656 -0.2487  0.6069
40543SOL    HW226315   3.918   5.088   0.494 -0.0912 -0.4124  0.9900
40544SOL     OW26316   3.178   8.644   2.051 -0.2922  0.5444 -0.1213
40544SOL    HW126317   3.225   8.703   1.993  1.1478  1.5196  1.9172
40544SOL    HW226318   3.111   8.699   2.093  0.3743  0.5256  1.0137
40545SOL     OW26319   6.682   3.225   1.933 -0.6630  0.6253 -0.0207
40545SOL    HW126320   6.703   3.291   1.999 -2.4725 -0.5074  1.8571
40545SOL    HW226321   6.760   3.170   1.928  0.5415  2.3295 -0.9815
40546SOL     OW26322   4.855  11.684   3.122 -0.4561 -0.6849 -0.4228
40546SOL    HW126323   4.874  11.730   3.203 -1.4092  0.8355 -1.0294
40546SOL    HW226324   4.801  11.609   3.149  0.9590 -1.3952  0.5486
40547SOL     OW26325   5.347   4.797   4.510 -0.1325  0.1685  0.4129
40547SOL    HW126326   5.276   4.744   4.474  0.5112 -0.3009 -0.1965
40547SOL    HW226327   5.365   4.759   4.596 -0.0253 -0.2740  0.1971
40548SOL     OW26328   1.601   5.074   4.557 -0.0917 -0.8230  0.5856
40548SOL    HW126329   1.685   5.050   4.597 -0.5737 -1.6361  1.1595
40548SOL    HW226330   1.556   4.990   4.546  0.2716 -0.7200 -2.3254
40549SOL     OW26331   9.441  10.417   8.206  0.0185  0.3246 -0.5063
40549SOL    HW126332   9.496  10.479   8.254  1.7230 -1.2833 -0.2817
40549SOL    HW226333   9.360  10.413   8.257  0.7693  0.6482  0.7505
40550SOL     OW26334   2.871   4.239  10.780  0.0035  0.0085 -0.0737
40550SOL    HW126335   2.832   4.215  10.696  0.5654 -1.1904 -0.0106
40550SOL    HW226336   2.955   4.194  10.781  0.1159  0.2197  1.0302
40551SOL     OW26337   5.038   2.868   2.663 -0.3266  0.6963 -0.1941
40551SOL    HW126338   4.980   2.898   2.733 -1.7367  0.1235 -1.0586
40551SOL    HW226339   5.113   2.928   2.666 -0.8224  1.2910  1.1484
40552SOL     OW26340  11.768   4.354   7.891  0.1871  0.0131 -0.1993
40552SOL    HW126341  11.683   4.315   7.913  0.2096  0.4290  0.6667
40552SOL    HW226342  11.763   4.371   7.797 -0.8609  0.4065 -0.0902
40553SOL     OW26343   4.573   3.777   7.860 -0.0352 -0.7731 -0.0776
40553SOL    HW126344   4.662   3.742   7.846  0.1359 -0.4103  0.1002
40553SOL    HW226345   4.519   3.730   7.796 -0.0865 -2.4853  1.1398
40554SOL     OW26346   2.971   5.824   9.827 -0.1775  0.3016  0.3061
40554SOL    HW126347   2.965   5.797   9.919 -1.1205 -0.8748 -0.0798
40554SOL    HW226348   2.889   5.796   9.788  0.7532 -0.4375 -1.2089
40555SOL     OW26349   1.789   5.717  10.188 -0.0066 -0.4056 -0.1463
40555SOL    HW126350   1.717   5.772  10.220 -0.2559 -1.4694  1.2632
40555SOL    HW226351   1.785   5.639  10.244  3.0138  0.0068  0.7902
40556SOL     OW26352   9.985   6.297  10.565 -0.2373 -0.1025  0.2098
40556SOL    HW126353   9.984   6.299  10.469 -1.9814 -1.0171  0.1784
40556SOL    HW226354   9.893   6.289  10.590  0.0298  1.5679  2.0204
40557SOL     OW26355   4.465  11.107   0.442 -0.0186 -0.4817 -0.3002
40557SOL    HW126356   4.439  11.027   0.486  0.3938  0.3333  1.5156
40557SOL    HW226357   4.388  11.135   0.393 -1.6543  0.2399  2.4809
40558SOL     OW26358  11.649   7.424   7.412 -0.3063 -0.6338  0.4578
40558SOL    HW126359  11.742   7.426   7.390 -0.1566  2.4202  0.9009
40558SOL    HW226360  11.642   7.359   7.482  1.3518 -1.4352 -0.0735
40559SOL     OW26361   7.546   7.191   4.798 -0.6625 -0.3220  0.1164
40559SOL    HW126362   7.621   7.193   4.857  0.8355  0.3472 -1.6776
40559SOL    HW226363   7.486   7.256   4.833  1.0472  1.4782 -0.1002
40560SOL     OW26364   8.658   8.800  11.170  0.1904  0.0897 -0.4956
40560SOL    HW126365   8.584   8.852  11.200 -0.1748 -0.9895  0.5257
40560SOL    HW226366   8.700   8.767  11.249  2.5521  1.6567 -0.9667
40561SOL     OW26367   3.342   9.097  11.125 -0.0773  0.3052 -0.6317
40561SOL    HW126368   3.390   9.177  11.150 -0.8734  0.3712  0.8077
40561SOL    HW226369   3.268   9.129  11.073 -0.9751  0.6391  0.8025
40562SOL     OW26370  11.041   6.760   1.665 -0.3905  0.3673  0.3739
40562SOL    HW126371  11.098   6.830   1.634 -1.2503  1.1436  0.4740
40562SOL    HW226372  11.100   6.691   1.694  0.5192  1.4287  1.1261
40563SOL     OW26373  11.058   2.703  10.374 -0.0701  0.7299  0.2837
40563SOL    HW126374  11.105   2.648  10.436  1.0552  0.1400 -1.0359
40563SOL    HW226375  11.072   2.792  10.406  0.3016  0.4320  0.9887
40564SOL     OW26376  10.904   0.342   4.862 -0.0149  0.3995 -0.0258
40564SOL    HW126377  10.895   0.309   4.951 -0.6703  2.7015  0.8252
40564SOL    HW226378  10.998   0.338   4.844  0.0754 -0.4865  0.5827
40565SOL     OW26379   7.599   2.671   0.376 -0.1936 -0.1775 -0.3945
40565SOL    HW126380   7.553   2.731   0.436 -0.3295 -1.3090  0.6697
40565SOL    HW226381   7.576   2.584   0.407  1.8404 -0.7915 -0.4825
40566SOL     OW26382   0.353  11.018   7.812  0.0569 -0.5695  0.4605
40566SOL    HW126383   0.401  11.100   7.824  2.4328 -1.7790 -0.0470
40566SOL    HW226384   0.329  10.991   7.901 -0.4373  0.4837  0.6552
40567SOL     OW26385   7.413  10.279   2.033  0.0435  0.1482 -0.0998
40567SOL    HW126386   7.470  10.356   2.038  1.4875 -0.9619  1.9004
40567SOL    HW226387   7.472  10.205   2.047 -1.6452 -1.1938  0.2108
40568SOL     OW26388   0.347  11.661   9.657  0.0322 -0.8863  0.1617
40568SOL    HW126389   0.289  11.589   9.630 -0.3798 -0.6963  0.5305
40568SOL    HW226390   0.306  11.739   9.620 -0.1104 -0.7174  0.6641
40569SOL     OW26391   1.901   2.048   4.902 -0.3350 -0.2888  0.1799
40569SOL    HW126392   1.869   2.001   4.979 -0.7663 -0.0097  0.1696
40569SOL    HW226393   1.847   2.016   4.830 -0.0394 -0.4288  0.0182
40570SOL     OW26394   3.539   5.138   7.997  0.0842 -0.3688  0.4075
40570SOL    HW126395   3.489   5.129   8.078  1.3268 -0.6624  1.1758
40570SOL    HW226396   3.564   5.230   7.994 -0.3769 -0.2521  0.0962
40571SOL     OW26397   6.358   0.011   1.021 -0.6468 -0.3657 -0.1834
40571SOL    HW126398   6.402   0.095   1.030  0.0282 -0.5475 -1.4399
40571SOL    HW226399   6.335   0.006   0.928 -2.3512 -0.7686  0.2251
40572SOL     OW26400   3.323   0.165  10.750  0.1279 -0.3627  0.4319
40572SOL    HW126401   3.376   0.219  10.691  0.7366 -1.5823 -0.1723
40572SOL    HW226402   3.237   0.208  10.751  0.0302 -0.4119 -1.5145
40573SOL     OW26403   1.820   0.413  10.754 -0.1759  0.4691  0.2563
40573SOL    HW126404   1.747   0.446  10.703 -0.7670  1.1416  1.4959
40573SOL    HW226405   1.779   0.356  10.820  0.4276  0.6442  0.7942
40574SOL     OW26406  11.386   1.183  11.295  0.3226  0.2996  0.0150
40574SOL    HW126407  11.419   1.148  11.212 -0.7668 -0.6206 -0.0529
40574SOL    HW226408  11.292   1.166  11.292  0.2368  0.4606  1.3549
40575SOL     OW26409  11.621   6.910  10.236 -0.0666  0.6810 -0.4652
40575SOL    HW126410  11.581   6.981  10.287 -1.1845 -0.2107 -0.0593
40575SOL    HW226411  11.697   6.883  10.289 -1.1989 -0.2172  0.7657
40576SOL     OW26412  11.090   2.497  10.200 -0.1843  0.3357 -0.2646
40576SOL    HW126413  11.098   2.563  10.131  0.9330  0.6881  0.1806
40576SOL    HW226414  11.067   2.547  10.279 -0.1251  0.1081 -0.1004
40577SOL     OW26415   5.782  10.995   7.694 -0.7553  0.0693  0.6067
40577SOL    HW126416   5.872  11.004   7.727  1.5451 -2.5552 -3.9337
40577SOL    HW226417   5.760  11.083   7.662 -0.2671  0.9630  2.5489
40578SOL     OW26418   9.118   3.657   3.934 -0.0265 -0.4536 -0.3852
40578SOL    HW126419   9.111   3.737   3.985  1.7514  0.2183 -1.1114
40578SOL    HW226420   9.165   3.596   3.991  1.7896  0.2351 -1.0510
40579SOL     OW26421   7.100  11.358   9.999  0.6260  0.0475  0.0873
40579SOL    HW126422   7.194  11.362   9.984  0.4556 -0.2478 -1.1707
40579SOL    HW226423   7.081  11.434  10.055  1.7614 -0.5372  1.3303
40580SOL     OW26424   4.900  10.675  11.338  0.2676 -0.1283 -0.2424
40580SOL    HW126425   4.898  10.706  11.429  0.9971 -2.9751  0.8452
40580SOL    HW226426   4.808  10.666  11.313  0.0645  0.1789  0.3804
40581SOL     OW26427  11.076  10.115   8.499  0.1936  0.1290  0.2409
40581SOL    HW126428  11.148  10.052   8.493 -0.2940 -0.3153 -1.3863
40581SOL    HW226429  11.051  10.132   8.408 -1.2502  0.8738  0.7445
40582SOL     OW26430   7.506   9.879   1.302  0.3512  0.4000 -0.8851
40582SOL    HW126431   7.457   9.950   1.343 -1.5491 -0.8032 -0.9755
40582SOL    HW226432   7.546   9.832   1.375  0.4206  0.7016 -0.7273
40583SOL     OW26433   6.568   1.592   8.920 -0.5655  0.1004 -0.1478
40583SOL    HW126434   6.488   1.625   8.962 -1.9464 -2.9817 -0.1284
40583SOL    HW226435   6.605   1.531   8.983  0.3139 -0.5603 -1.2703
40584SOL     OW26436   3.640   3.146  11.366 -0.4614 -0.7716 -0.5739
40584SOL    HW126437   3.698   3.080  11.406  2.1705  1.9297  0.5057
40584SOL    HW226438   3.679   3.230  11.391 -3.2984  1.2420 -2.3073
40585SOL     OW26439   3.959   0.992   3.005 -0.0463  0.1540 -0.7707
40585SOL    HW126440   4.024   0.937   3.049  0.8896  2.2248  0.6181
40585SOL    HW226441   3.888   1.001   3.068 -0.2387  0.4191 -1.0210
40586SOL     OW26442   7.394   0.899   3.037 -0.0006  0.9457  0.4076
40586SOL    HW126443   7.369   0.965   3.101  0.1218  1.1343  0.2606
40586SOL    HW226444   7.483   0.922   3.012 -0.0589  0.8895  0.1468
40587SOL     OW26445   4.888   4.870  11.345  0.4426 -0.3373  0.4298
40587SOL    HW126446   4.981   4.862  11.323  0.1844 -1.2310 -0.4098
40587SOL    HW226447   4.878   4.818  11.425  0.0210 -3.4640 -1.4693
40588SOL     OW26448  10.364   6.731  11.391  0.0676 -0.4137 -0.3316
40588SOL    HW126449  10.430   6.792  11.426  1.3467 -2.0383  0.2093
40588SOL    HW226450  10.295   6.730  11.458 -1.0107  1.9128 -1.2704
40589SOL     OW26451  10.922   6.930  10.303  0.3850  0.0432  0.2465
40589SOL    HW126452  10.874   6.858  10.263 -0.3177  0.8346 -0.3944
40589SOL    HW226453  11.014   6.907  10.292  0.1749 -0.4926 -0.4476
40590SOL     OW26454   9.446   6.581   7.533  0.3516  0.5421 -0.7114
40590SOL    HW126455   9.402   6.500   7.560 -0.6021  0.9109 -1.1274
40590SOL    HW226456   9.515   6.592   7.598 -1.0283  0.6642  0.8108
40591SOL     OW26457   7.477  10.096   2.434  0.1145  0.1926  0.1548
40591SOL    HW126458   7.500  10.039   2.508  0.9852 -1.1025 -1.0563
40591SOL    HW226459   7.404  10.148   2.466 -0.5389 -1.4205  1.4400
40592SOL     OW26460  11.297   0.697   3.440  0.5040  0.2036 -0.1254
40592SOL    HW126461  11.220   0.753   3.438 -0.0768 -0.5496  0.5967
40592SOL    HW226462  11.273   0.624   3.497  0.6115 -1.7043 -2.3784
40593SOL     OW26463   1.018   9.764   6.450  0.4393  0.1118  0.1071
40593SOL    HW126464   0.926   9.768   6.424 -0.4386  0.5537  2.9908
40593SOL    HW226465   1.044   9.856   6.458  1.3553 -0.0022 -1.2537
40594SOL     OW26466   7.842   7.022   7.436 -0.3476  0.5434 -0.1260
40594SOL    HW126467   7.876   7.002   7.523 -0.3508 -2.6901 -0.7376
40594SOL    HW226468   7.753   6.985   7.436 -1.2099  2.4710 -0.8525
40595SOL     OW26469   9.100   1.620  11.690  0.0194  0.0971 -0.3072
40595SOL    HW126470   9.072   1.589  11.604  1.8211 -0.1574 -0.8553
40595SOL    HW226471   9.021   1.658  11.729 -1.0570 -0.6268 -1.6759
40596SOL     OW26472   1.992   3.033   3.305 -0.2679 -0.2640 -0.1407
40596SOL    HW126473   1.922   3.043   3.241 -0.8894  2.2487  0.8082
40596SOL    HW226474   1.998   3.118   3.348 -0.1053 -1.8682  3.3865
40597SOL     OW26475  10.802   9.612   0.852  0.1355  0.2878  0.0509
40597SOL    HW126476  10.881   9.618   0.799  1.4433 -1.6414  1.6343
40597SOL    HW226477  10.833   9.584   0.938 -2.1266  1.1668  1.2274
40598SOL     OW26478   4.252   4.151   4.091  0.3566 -0.1085 -0.0146
40598SOL    HW126479   4.220   4.131   4.003 -0.4776 -0.3486  0.3382
40598SOL    HW226480   4.345   4.168   4.079  0.6900 -2.1662 -0.6460
40599SOL     OW26481   4.683   8.345   1.565  0.0435 -0.3881 -0.6958
40599SOL    HW126482   4.633   8.263   1.572 -1.7025  0.5618 -1.5283
40599SOL    HW226483   4.775   8.317   1.568 -0.4916 -2.1923  0.9887
40600SOL     OW26484   9.683   3.573   6.676 -0.7958 -0.0376  0.2541
40600SOL    HW126485   9.732   3.599   6.754 -1.9789  0.8764  0.7335
40600SOL    HW226486   9.671   3.655   6.628 -1.5318 -0.3081 -0.0323
40601SOL     OW26487   7.584   7.508   4.749 -0.0957 -0.3212  0.1424
40601SOL    HW126488   7.532   7.430   4.768 -1.8466  0.5819 -0.7549
40601SOL    HW226489   7.660   7.474   4.701 -0.2672 -1.5802  0.7078
40602SOL     OW26490   0.320   8.304   3.640 -0.5951  0.0969 -0.3261
40602SOL    HW126491   0.311   8.369   3.571  0.5181 -0.3071 -0.8859
40602SOL    HW226492   0.259   8.332   3.708 -1.0120  1.0390 -1.0651
40603SOL     OW26493   8.545   8.806   0.988  0.0040  0.1723  0.0861
40603SOL    HW126494   8.493   8.839   0.915 -1.5114  0.8571  1.3992
40603SOL    HW226495   8.551   8.880   1.049  2.5202  0.1038  0.0432
40604SOL     OW26496   3.976   0.682   7.102  0.5421  0.0632 -0.0739
40604SOL    HW126497   4.023   0.654   7.023  0.8044 -1.2382  0.5167
40604SOL    HW226498   3.884   0.686   7.076  0.6294 -0.3557 -0.4558
40605SOL     OW26499   1.910   1.849   9.047  0.3346  0.0928  0.1380
40605SOL    HW126500   1.910   1.778   8.982 -0.5680  0.8550 -0.7382
40605SOL    HW226501   1.999   1.882   9.046  0.7742 -1.0360  0.5770
40606SOL     OW26502   3.783   9.803  10.840 -0.3001 -0.8474 -0.2807
40606SOL    HW126503   3.711   9.866  10.834 -0.9168 -1.4605  0.4390
40606SOL    HW226504   3.742   9.719  10.816  0.0037 -1.3215  0.8234
40607SOL     OW26505   1.695  11.941   3.964 -0.0794  0.0538 -0.2115
40607SOL    HW126506   1.764  11.878   3.985 -2.2789 -3.2555 -2.1011
40607SOL    HW226507   1.613  11.895   3.981 -1.8878  2.9471 -0.3499
40608SOL     OW26508   7.286   5.194   5.186 -0.9789 -0.1197 -0.0586
40608SOL    HW126509   7.235   5.262   5.230  0.7301  1.0568  0.1952
40608SOL    HW226510   7.233   5.170   5.110 -2.1857  0.6027  0.5270
40609SOL     OW26511  11.627  10.576   2.898  0.2640  0.2339 -0.0919
40609SOL    HW126512  11.567  10.501   2.898  0.5848 -0.0309  0.4264
40609SOL    HW226513  11.623  10.610   2.808 -0.3271 -0.0450 -0.1773
40610SOL     OW26514   8.550   4.810   8.649  0.0337 -0.0935 -0.6682
40610SOL    HW126515   8.614   4.749   8.613 -0.0584  0.3611 -1.6431
40610SOL    HW226516   8.590   4.843   8.729  0.8274 -0.1308 -1.0452
40611SOL     OW26517   6.023   2.804  11.360 -0.0550  0.3293  0.1614
40611SOL    HW126518   5.965   2.876  11.385  0.1850  0.3392  0.6980
40611SOL    HW226519   6.099   2.846  11.320 -0.2918  0.3301 -0.2900
40612SOL     OW26520   5.389   3.417   9.274  0.0081 -0.2327 -0.3533
40612SOL    HW126521   5.442   3.491   9.302  1.3427 -1.3873  0.3053
40612SOL    HW226522   5.440   3.377   9.203 -1.9152  0.9152 -2.5236
40613SOL     OW26523   4.847   5.251   3.502  0.6083 -0.2149  0.0080
40613SOL    HW126524   4.885   5.322   3.451 -0.0408  0.3811  0.3412
40613SOL    HW226525   4.921   5.196   3.526  1.1431  0.4758 -0.0567
40614SOL     OW26526   7.597   7.105   2.863 -0.4659  0.0596 -0.2278
40614SOL    HW126527   7.629   7.177   2.809  1.1642 -0.2975  0.1776
40614SOL    HW226528   7.568   7.147   2.944  0.1835  0.3028 -0.1160
40615SOL     OW26529   7.800   7.752   7.889  0.3213  0.1987  0.2914
40615SOL    HW126530   7.716   7.717   7.859 -0.5007  1.0948  1.4441
40615SOL    HW226531   7.847   7.677   7.924 -0.3275 -0.1741  0.3631
40616SOL     OW26532   1.357   9.488   1.821  0.4035 -0.7222 -0.4610
40616SOL    HW126533   1.265   9.462   1.820  0.9043 -2.7018 -0.3764
40616SOL    HW226534   1.358   9.574   1.863 -1.1935 -1.5434  1.4149
40617SOL     OW26535   2.877   1.692  10.393  0.2199  0.2294 -0.4076
40617SOL    HW126536   2.832   1.767  10.355 -0.7242  0.3005  0.7946
40617SOL    HW226537   2.810   1.647  10.445  0.7305 -1.5145 -1.1768
40618SOL     OW26538   5.012   1.392   0.922 -0.6601  0.4446 -0.5200
40618SOL    HW126539   5.052   1.428   1.001 -1.7682 -0.6473  0.5817
40618SOL    HW226540   5.056   1.308   0.909  0.2276  1.0550 -1.6895
40619SOL     OW26541   9.934   8.953   5.999  0.1156 -0.0305 -0.5105
40619SOL    HW126542  10.020   8.959   5.958  0.7731 -0.9574  0.6521
40619SOL    HW226543   9.917   9.041   6.033  2.3435 -0.5508  2.4587
40620SOL     OW26544   3.457   2.974   6.086  0.6552 -0.3443 -0.4581
40620SOL    HW126545   3.399   2.898   6.085 -0.0458  0.1545  0.4352
40620SOL    HW226546   3.409   3.042   6.040  0.0473  0.3776  1.1556
40621SOL     OW26547   1.860   5.967   1.476  0.0353 -0.5467  0.2710
40621SOL    HW126548   1.932   5.985   1.416 -0.2251 -0.8102 -0.1255
40621SOL    HW226549   1.858   5.871   1.484 -3.0104 -1.0129 -3.2252
40622SOL     OW26550   3.017   3.546   2.459 -0.5668 -0.2129 -0.0140
40622SOL    HW126551   3.034   3.592   2.376 -0.4386 -0.5029 -0.1505
40622SOL    HW226552   2.932   3.504   2.446 -0.1468 -0.9860 -0.3281
40623SOL     OW26553   6.156  10.093   0.170 -0.1520 -0.3009 -0.7483
40623SOL    HW126554   6.223  10.145   0.126 -1.3150  0.6152 -1.4818
40623SOL    HW226555   6.130  10.027   0.106 -1.5120  0.7430 -1.3298
40624SOL     OW26556   4.544   4.962   8.654 -0.1845  0.2431 -0.4341
40624SOL    HW126557   4.454   4.954   8.621 -0.5479 -1.5759  0.8282
40624SOL    HW226558   4.536   5.019   8.730 -0.1369  0.6974 -0.7684
40625SOL     OW26559   2.538   5.833   7.027 -0.1160 -0.7944 -0.3578
40625SOL    HW126560   2.475   5.778   7.075 -0.8452  0.0713 -0.3011
40625SOL    HW226561   2.499   5.920   7.028  0.4311 -0.5189 -1.5083
40626SOL     OW26562   6.967   1.739   5.560  0.0204 -0.4887 -0.3842
40626SOL    HW126563   6.955   1.829   5.528 -2.5330 -0.8763 -0.7071
40626SOL    HW226564   7.059   1.735   5.586 -0.3008  2.9847  1.9781
40627SOL     OW26565   3.920   7.963   6.077  0.3423 -0.3815 -0.1971
40627SOL    HW126566   3.859   7.996   6.010  0.5165 -1.3756 -0.8746
40627SOL    HW226567   3.975   8.038   6.099 -0.9471  0.4641  0.2263
40628SOL     OW26568   6.853   2.863   2.136  0.2108 -0.0617 -0.3096
40628SOL    HW126569   6.802   2.878   2.056 -0.3169  0.5920  0.1326
40628SOL    HW226570   6.830   2.938   2.192  3.2762  1.4564 -0.8835
40629SOL     OW26571   6.514   1.421   8.516 -0.2467 -0.4293 -0.1822
40629SOL    HW126572   6.565   1.345   8.543  2.0302  1.2453  0.4845
40629SOL    HW226573   6.470   1.450   8.597  0.2608 -0.0484 -0.0375
40630SOL     OW26574   7.002   2.183   2.103  0.0205 -0.0938 -0.2688
40630SOL    HW126575   7.025   2.259   2.155 -1.2807 -0.5901  1.1083
40630SOL    HW226576   6.970   2.119   2.167  0.4135 -1.5486 -1.4543
40631SOL     OW26577   2.480   0.272   7.272  0.4090 -0.0831 -0.2324
40631SOL    HW126578   2.406   0.244   7.326  3.2704 -3.2068  2.4750
40631SOL    HW226579   2.487   0.366   7.288 -2.4448  0.1931 -0.0584
40632SOL     OW26580   1.760   7.206   4.134 -0.2807 -0.5647 -0.3380
40632SOL    HW126581   1.825   7.269   4.104 -0.1286  0.1490  1.3405
40632SOL    HW226582   1.808   7.124   4.144 -0.0717 -0.5083 -0.8850
40633SOL     OW26583   6.990   9.473   2.393 -0.3390  0.4534 -0.0215
40633SOL    HW126584   6.895   9.486   2.382 -0.2614 -0.8889 -3.8330
40633SOL    HW226585   7.030   9.531   2.328  1.2864 -0.7020 -0.1164
40634SOL     OW26586   9.854  10.343   1.378  0.1280  0.2548  0.0913
40634SOL    HW126587   9.799  10.408   1.421 -0.8997 -1.2465  1.1961
40634SOL    HW226588   9.795  10.300   1.316  0.3446 -0.5959  0.4597
40635SOL     OW26589   3.940   7.847   1.536 -0.4185  0.1059  0.0921
40635SOL    HW126590   3.864   7.836   1.479 -1.3825 -1.0581  1.5344
40635SOL    HW226591   4.002   7.780   1.508 -1.1110 -0.8221  0.7095
40636SOL     OW26592  11.378  10.339   8.322 -0.9624 -0.6277  0.3950
40636SOL    HW126593  11.348  10.351   8.412 -0.7323  0.5811  0.3315
40636SOL    HW226594  11.354  10.420   8.278  1.7025  0.1227  0.1508
40637SOL     OW26595  11.431   0.473  10.814  0.0927 -0.2378  0.2981
40637SOL    HW126596  11.522   0.448  10.830  0.4175  0.4090 -0.4504
40637SOL    HW226597  11.436   0.560  10.773 -0.9256  0.3747  1.4025
40638SOL     OW26598   1.487   7.360   7.090 -0.6868  0.7441 -0.3265
40638SOL    HW126599   1.448   7.273   7.102 -1.2121  0.7736 -1.5603
40638SOL    HW226600   1.507   7.390   7.178 -1.5861 -0.1494  0.2120
40639SOL     OW26601  11.725  11.040   5.892 -0.6037 -0.0846  0.0736
40639SOL    HW126602  11.698  11.129   5.870 -0.2421  0.1087  0.3965
40639SOL    HW226603  11.796  11.052   5.955 -0.5315 -0.6022  0.0905
40640SOL     OW26604  10.402   1.857   6.845 -0.1824  0.7394 -0.5473
40640SOL    HW126605  10.487   1.823   6.873 -1.1165 -1.7773 -0.4806
40640SOL    HW226606  10.412   1.871   6.751  0.6721  1.7381 -0.3233
40641SOL     OW26607   2.840   2.000   9.768 -0.2234 -0.1985  0.4111
40641SOL    HW126608   2.836   1.992   9.863  1.0311 -0.3639  0.4618
40641SOL    HW226609   2.872   2.089   9.752 -1.9281  0.4056  0.0861
40642SOL     OW26610   8.174  10.216   3.771 -0.1384 -0.2039 -0.1632
40642SOL    HW126611   8.270  10.225   3.770 -0.1570  0.0038 -0.8490
40642SOL    HW226612   8.159  10.124   3.792  0.2899 -0.8459 -2.4367
40643SOL     OW26613   0.001  10.567   0.452  0.4804 -0.3301  0.8562
40643SOL    HW126614   0.090  10.591   0.427 -0.1160  1.9994  0.7060
40643SOL    HW226615  -0.009  10.600   0.541 -0.8964  1.6596  0.0711
40644SOL     OW26616   6.477  10.827   1.013  0.0501 -0.1828 -0.2728
40644SOL    HW126617   6.534  10.750   1.009 -0.9533 -1.0092  0.7088
40644SOL    HW226618   6.490  10.863   1.100  0.6098  0.8565 -0.7729
40645SOL     OW26619   5.356   4.283   2.056 -0.5910  0.1230  0.1845
40645SOL    HW126620   5.352   4.187   2.052 -0.0168  0.0762  0.5657
40645SOL    HW226621   5.298   4.313   1.986 -1.5828 -0.4916  0.7047
40646SOL     OW26622   7.375   0.530   1.899  0.2916 -0.4029  0.3628
40646SOL    HW126623   7.454   0.538   1.952 -0.8247  3.1548  1.8272
40646SOL    HW226624   7.316   0.475   1.950  0.4876  0.0979  1.1424
40647SOL     OW26625  11.976   5.889   2.060 -0.3247  0.3390 -0.4680
40647SOL    HW126626  11.961   5.796   2.040 -1.2732  0.5356 -0.7353
40647SOL    HW226627  12.056   5.890   2.112 -2.3436 -1.1028  3.0634
40648SOL     OW26628   9.825   0.728   1.822 -0.1875  0.2630 -0.2993
40648SOL    HW126629   9.882   0.673   1.768 -0.6922 -0.0538 -0.5205
40648SOL    HW226630   9.787   0.668   1.886  1.0139  0.7811  0.9444
40649SOL     OW26631   1.203   5.948  11.961 -0.0559  0.0396  0.7965
40649SOL    HW126632   1.138   5.880  11.978 -0.1298 -0.4219 -1.1530
40649SOL    HW226633   1.220   5.943  11.867  1.5839  1.2555  0.9770
40650SOL     OW26634   6.376   0.979   1.708 -0.2834  0.1278 -0.6801
40650SOL    HW126635   6.387   1.064   1.664 -4.3541  1.1458 -0.2064
40650SOL    HW226636   6.412   0.992   1.796  0.6810  0.7549 -1.1519
40651SOL     OW26637   2.938  12.001  10.764 -1.2482  0.6860 -0.4394
40651SOL    HW126638   2.956  12.092  10.740 -0.9706  0.4215 -1.2873
40651SOL    HW226639   2.923  12.003  10.858 -1.3603  1.6271 -0.4706
40652SOL     OW26640   5.840  11.246   0.630  0.5796  0.0533 -0.2110
40652SOL    HW126641   5.762  11.207   0.590 -1.3746  1.8241  1.6026
40652SOL    HW226642   5.913  11.213   0.577 -1.1373 -3.3962 -0.7388
40653SOL     OW26643   6.554   4.255   4.904 -0.2114  0.6668  0.2601
40653SOL    HW126644   6.609   4.281   4.978 -0.6122 -0.0560  0.8270
40653SOL    HW226645   6.476   4.311   4.912  0.0190  1.0270  0.0118
40654SOL     OW26646   1.307   7.285  11.572 -0.1846  0.1700 -0.4568
40654SOL    HW126647   1.318   7.375  11.541 -0.8786  0.6798  0.6898
40654SOL    HW226648   1.367   7.234  11.518  0.5866  1.3850 -0.8138
40655SOL     OW26649   4.752   6.985   5.721 -0.1519  0.0363  0.1532
40655SOL    HW126650   4.804   6.929   5.778 -2.0244 -0.0011  1.9717
40655SOL    HW226651   4.813   7.052   5.691  1.2564 -0.8057  1.0121
40656SOL     OW26652   0.086   0.770   2.439 -0.4796 -0.2701  0.0246
40656SOL    HW126653   0.095   0.843   2.500  0.0511 -1.3151  1.2519
40656SOL    HW226654  -0.008   0.761   2.427 -0.7295 -1.1873  2.1919
40657SOL     OW26655   1.362   7.752   6.700 -0.8163  0.2877  0.1744
40657SOL    HW126656   1.353   7.671   6.751  1.5079  0.1031  0.4147
40657SOL    HW226657   1.317   7.818   6.752 -1.4009 -0.5453  0.7593
40658SOL     OW26658   8.101   4.953   2.578  0.4012 -0.2655 -0.2625
40658SOL    HW126659   8.032   5.003   2.622  0.9166  0.2162  0.0314
40658SOL    HW226660   8.177   4.963   2.636  0.1774 -2.5200  0.4955
40659SOL     OW26661   8.451   5.589   1.522  0.1513 -0.3238  0.5335
40659SOL    HW126662   8.456   5.610   1.429 -0.6376 -2.0779  0.0558
40659SOL    HW226663   8.534   5.545   1.541  0.7186  0.8781  0.9117
40660SOL     OW26664  11.158   6.574   8.527  0.4202 -0.5568 -0.0743
40660SOL    HW126665  11.089   6.606   8.468  0.5295  0.3863  0.2942
40660SOL    HW226666  11.184   6.651   8.578  2.1192 -0.7681 -0.5587
40661SOL     OW26667  10.930   6.581  11.617  0.0151 -0.3530  0.5341
40661SOL    HW126668  10.928   6.521  11.691  0.8536 -0.4673  0.4724
40661SOL    HW226669  10.971   6.531  11.546 -1.1491 -0.3904 -0.1525
40662SOL     OW26670   7.036  11.633   1.663  0.0442  0.2246  0.1524
40662SOL    HW126671   6.984  11.601   1.737 -1.3588 -0.1659 -0.9501
40662SOL    HW226672   7.029  11.564   1.598 -0.2701  1.3379 -1.0294
40663SOL     OW26673   2.505   5.188   9.375 -0.5700  0.0255  0.4358
40663SOL    HW126674   2.438   5.242   9.333  1.3587  1.6818 -0.7595
40663SOL    HW226675   2.461   5.107   9.399 -2.6076  0.3996 -1.7118
40664SOL     OW26676   3.037   5.474  10.652  0.3918 -0.3023  0.0694
40664SOL    HW126677   3.054   5.392  10.700  1.0203 -0.0888  0.2206
40664SOL    HW226678   2.958   5.456  10.601 -0.0953 -0.6524  0.9202
40665SOL     OW26679   4.809   8.552   2.441  0.1793 -0.3637 -0.2999
40665SOL    HW126680   4.903   8.554   2.423  0.3115 -1.0419  0.2977
40665SOL    HW226681   4.794   8.629   2.496  0.5432 -0.7292  0.3215
40666SOL     OW26682   6.687   2.293   1.523  0.2953  0.5395  0.2577
40666SOL    HW126683   6.635   2.363   1.483 -1.3942 -0.7027  0.1901
40666SOL    HW226684   6.696   2.318   1.615 -1.0192  0.4429  0.4208
40667SOL     OW26685   5.397   0.583   2.503  0.6707 -0.6193  0.2141
40667SOL    HW126686   5.468   0.519   2.498 -1.3162 -3.0047  0.3833
40667SOL    HW226687   5.333   0.552   2.438 -0.4228  1.1735  0.3743
40668SOL     OW26688   0.905   0.110  11.050 -0.0653 -0.2284 -0.0220
40668SOL    HW126689   0.978   0.061  11.013 -0.1461  0.0110 -0.4985
40668SOL    HW226690   0.831   0.090  10.993 -0.3023 -0.2237  0.2784
40669SOL     OW26691   2.474   2.799   5.858 -0.0303 -0.0908 -0.1806
40669SOL    HW126692   2.418   2.807   5.935  0.1057 -2.0855  0.1798
40669SOL    HW226693   2.534   2.728   5.880  0.8346  0.1628 -1.6434
40670SOL     OW26694   4.678   2.999   1.200  0.7852 -0.6472 -0.0463
40670SOL    HW126695   4.760   2.955   1.177  0.9297  0.2024 -1.2401
40670SOL    HW226696   4.630   3.007   1.117  0.8148  1.4899  0.0790
40671SOL     OW26697   3.164   1.781   6.137  0.0416  0.1990 -0.3186
40671SOL    HW126698   3.088   1.764   6.081 -0.7655 -0.5233  0.9631
40671SOL    HW226699   3.239   1.754   6.083 -0.8255 -2.0932 -0.4859
40672SOL     OW26700   2.901   3.436   0.290  0.2618  0.0132  0.2288
40672SOL    HW126701   2.926   3.403   0.377  0.4882 -1.6739 -0.4489
40672SOL    HW226702   2.826   3.383   0.265 -0.9494  1.7153  0.1328
40673SOL     OW26703   6.556   7.749   3.806  0.0945 -0.0569  0.0691
40673SOL    HW126704   6.516   7.821   3.854  0.3582 -0.0632  0.3022
40673SOL    HW226705   6.602   7.697   3.873 -0.0102 -0.3840 -0.1100
40674SOL     OW26706   0.140   8.623   6.561  0.5198 -0.1515 -0.3670
40674SOL    HW126707   0.205   8.674   6.513  0.3542 -0.3851 -0.8517
40674SOL    HW226708   0.179   8.535   6.567  0.6881 -0.0383  0.2278
40675SOL     OW26709   1.990   7.783   9.591 -0.0490  0.4590 -0.2978
40675SOL    HW126710   1.937   7.860   9.614  0.2823  1.0509 -1.4431
40675SOL    HW226711   2.075   7.820   9.564  0.5254 -0.3950  0.2847
40676SOL     OW26712   9.403   4.567   5.381  0.5471  0.1368 -0.3767
40676SOL    HW126713   9.429   4.476   5.366 -2.4586 -0.7681 -0.7331
40676SOL    HW226714   9.434   4.587   5.469  0.6602 -1.4965 -0.0233
40677SOL     OW26715   1.785   3.226   6.333  0.3930 -0.0899 -0.0607
40677SOL    HW126716   1.809   3.168   6.262  1.0497 -1.2493  1.0688
40677SOL    HW226717   1.792   3.172   6.412  2.5966  1.8953  1.2357
40678SOL     OW26718   4.908   5.639   6.042  0.5500  0.7466 -0.1349
40678SOL    HW126719   4.904   5.635   5.947 -0.4884 -1.3236 -0.0653
40678SOL    HW226720   4.979   5.579   6.066  1.2197  1.7184  0.4076
40679SOL     OW26721   6.752   8.846   3.791 -0.1050 -0.5004  0.1242
40679SOL    HW126722   6.700   8.841   3.711 -0.0084  0.4681 -0.0106
40679SOL    HW226723   6.692   8.881   3.857  0.4374  0.9312 -0.1105
40680SOL     OW26724   8.580   4.432  11.798 -0.3200 -0.0021  0.1067
40680SOL    HW126725   8.518   4.498  11.768 -1.0661 -0.3345  0.8619
40680SOL    HW226726   8.657   4.443  11.742 -0.3929  1.5576  0.2809
40681SOL     OW26727   5.791   0.971   3.540  0.0091 -0.2229  0.2658
40681SOL    HW126728   5.752   1.027   3.473 -0.2247  0.9094  1.3278
40681SOL    HW226729   5.848   1.028   3.590  1.7473 -1.4900 -0.1756
40682SOL     OW26730   8.450   2.575   7.235 -0.8048  0.4983  0.2154
40682SOL    HW126731   8.493   2.661   7.235 -0.3582  0.2777 -0.3117
40682SOL    HW226732   8.513   2.518   7.280 -0.7973  0.2970 -0.0527
40683SOL     OW26733   6.581  11.716  10.857  0.5820 -0.0705 -0.5074
40683SOL    HW126734   6.634  11.763  10.793  2.4457 -1.2927  0.0282
40683SOL    HW226735   6.600  11.759  10.940  1.1322 -0.8103 -0.2398
40684SOL     OW26736  10.669   3.290  10.014  0.0836 -0.3706 -0.2112
40684SOL    HW126737  10.665   3.233  10.091  0.0686  1.4502  1.2027
40684SOL    HW226738  10.578   3.301   9.987 -0.0789  0.3023  0.5644
40685SOL     OW26739   2.887  11.996   7.436  0.2425 -0.0492 -0.8590
40685SOL    HW126740   2.911  11.960   7.522  1.0345  2.6710  0.1907
40685SOL    HW226741   2.812  12.053   7.454 -0.5196 -0.5763 -2.2642
40686SOL     OW26742   9.110   9.486   1.672 -0.2622 -0.4840 -0.4313
40686SOL    HW126743   9.128   9.571   1.633 -0.9162 -0.1072  0.0780
40686SOL    HW226744   9.188   9.434   1.652  0.8607  0.7075  0.6311
40687SOL     OW26745   2.501   5.869   0.319  0.6260  0.1475  0.2784
40687SOL    HW126746   2.527   5.869   0.227 -2.1967  0.3077 -0.6159
40687SOL    HW226747   2.410   5.901   0.318 -0.4948 -2.5072  2.7955
40688SOL     OW26748   1.018   3.013   2.288 -0.2036  0.0243 -0.5774
40688SOL    HW126749   1.005   3.022   2.383 -0.1003 -1.5197 -0.3926
40688SOL    HW226750   0.955   3.073   2.249 -2.5461 -1.6462  0.4307
40689SOL     OW26751   8.986   4.679   6.747  0.1483  0.2790 -0.5443
40689SOL    HW126752   8.981   4.652   6.838  0.6944  0.2340 -0.5204
40689SOL    HW226753   8.917   4.629   6.703 -0.6691  0.9396 -0.0126
40690SOL     OW26754   5.961   2.171   0.666  0.1931  0.0094  0.1711
40690SOL    HW126755   5.950   2.139   0.755  0.1214 -0.7179 -0.0907
40690SOL    HW226756   5.888   2.131   0.617  0.8617 -0.4914 -0.4372
40691SOL     OW26757   3.818  11.579   7.315 -0.3023  0.1443 -0.4905
40691SOL    HW126758   3.779  11.636   7.248 -1.4286 -1.1163 -0.9286
40691SOL    HW226759   3.870  11.516   7.265 -0.8537 -0.5760 -0.1650
40692SOL     OW26760  11.690   1.405   8.891 -0.4690 -0.3627  0.1226
40692SOL    HW126761  11.655   1.481   8.938 -0.7193 -0.3161 -0.1371
40692SOL    HW226762  11.681   1.333   8.954  2.7517  0.3696  1.6289
40693SOL     OW26763   2.804   3.156   9.415 -0.2147 -0.0640 -0.3469
40693SOL    HW126764   2.759   3.114   9.488  1.8705  0.1322  1.1525
40693SOL    HW226765   2.811   3.248   9.441  0.4397  0.0338 -0.8309
40694SOL     OW26766   7.765  11.199  11.409 -0.8338  0.1852  0.0798
40694SOL    HW126767   7.743  11.291  11.424 -2.0733 -0.0735 -0.0371
40694SOL    HW226768   7.727  11.178  11.324 -0.1430 -0.3202 -0.1198
40695SOL     OW26769   8.502   6.941   7.006 -0.2331 -0.3389 -0.3051
40695SOL    HW126770   8.493   6.994   7.085 -0.4394 -0.8524  0.0209
40695SOL    HW226771   8.468   6.855   7.031 -0.2510 -0.5193 -0.9380
40696SOL     OW26772   2.845  11.254   8.050 -0.1072 -0.3990  0.3547
40696SOL    HW126773   2.778  11.206   8.098 -1.6368  0.5707 -0.7356
40696SOL    HW226774   2.925  11.242   8.102 -1.3280 -0.7047  2.2579
40697SOL     OW26775   2.762   0.234  10.801  0.2226  0.0123  0.2550
40697SOL    HW126776   2.797   0.258  10.715  1.3278 -2.0525  0.0676
40697SOL    HW226777   2.781   0.309  10.857 -0.4209  1.3517 -1.2435
40698SOL     OW26778  11.200   6.979   1.588 -0.1164  0.4044  0.2074
40698SOL    HW126779  11.203   7.039   1.513 -2.3507  0.9940  0.5259
40698SOL    HW226780  11.279   7.000   1.638  0.1292  1.7516 -0.6796
40699SOL     OW26781  10.964  10.709   2.103  0.3012  0.4333 -0.2707
40699SOL    HW126782  10.894  10.774   2.113 -1.3497 -1.2023 -0.6633
40699SOL    HW226783  10.986  10.711   2.010  0.4039  0.5765 -0.2436
40700SOL     OW26784   0.079   1.747   5.446 -0.2645 -0.1019  0.3935
40700SOL    HW126785  -0.013   1.743   5.473 -0.7235  1.1412 -0.8757
40700SOL    HW226786   0.090   1.671   5.388 -1.2264  1.1220 -1.4702
40701SOL     OW26787   4.417   1.109   3.598 -0.3879 -0.2226  0.7490
40701SOL    HW126788   4.504   1.082   3.629 -0.7467 -0.5020  1.5122
40701SOL    HW226789   4.392   1.042   3.535  1.4119  1.6051 -2.1375
40702SOL     OW26790  10.758   7.903   3.617 -0.5044 -0.2174  0.0184
40702SOL    HW126791  10.724   7.992   3.623 -1.7641 -0.6944  0.4282
40702SOL    HW226792  10.689   7.849   3.656  0.6303 -1.2786  0.6173
40703SOL     OW26793   4.868   5.892   0.608  0.3424  0.1704  0.2225
40703SOL    HW126794   4.899   5.837   0.537 -1.2532 -0.8250  0.2517
40703SOL    HW226795   4.796   5.842   0.648 -0.5889  1.8718  0.7988
40704SOL     OW26796   0.302   6.336   8.120 -0.8264 -0.5151 -0.3632
40704SOL    HW126797   0.295   6.259   8.063 -1.0589 -1.1514  0.5127
40704SOL    HW226798   0.297   6.301   8.209  1.6029  0.2461  0.1275
40705SOL     OW26799  11.111   6.029   2.044  0.8427  0.2102 -0.2359
40705SOL    HW126800  11.079   6.008   2.132  1.2598 -0.4392 -0.2310
40705SOL    HW226801  11.046   6.090   2.008 -1.0114 -1.8850 -0.6293
40706SOL     OW26802   5.186   8.513   1.400  0.2041  0.6134 -0.0558
40706SOL    HW126803   5.276   8.481   1.404 -0.4312 -1.2551  1.0865
40706SOL    HW226804   5.194   8.608   1.396  2.2200  0.4918  0.0261
40707SOL     OW26805   4.844   7.535  11.659  0.1914 -0.3045 -0.3215
40707SOL    HW126806   4.894   7.561  11.582 -0.5837  1.0010 -0.4135
40707SOL    HW226807   4.756   7.569  11.642 -0.6376 -2.1360  0.0312
40708SOL     OW26808   8.900   1.091   6.039  0.0216  0.3780  0.6095
40708SOL    HW126809   8.995   1.100   6.041  0.3602 -2.2912 -0.1021
40708SOL    HW226810   8.876   1.111   5.948 -0.2096  1.6301  0.9266
40709SOL     OW26811   7.553   6.843   4.040  0.0118 -0.0953  0.3022
40709SOL    HW126812   7.640   6.867   4.006  0.5541 -1.1325  0.9002
40709SOL    HW226813   7.497   6.840   3.962  1.0283 -1.5393 -0.4311
40710SOL     OW26814   9.129   2.881   0.431  0.2694  0.4482  0.4247
40710SOL    HW126815   9.151   2.855   0.520  0.6266 -0.1794  0.1598
40710SOL    HW226816   9.180   2.961   0.415  1.3003 -0.2176  0.2997
40711SOL     OW26817   4.773  10.286  10.795 -0.1933 -0.6321  0.4719
40711SOL    HW126818   4.691  10.328  10.770  0.9006  1.0287 -0.5374
40711SOL    HW226819   4.749  10.227  10.866 -2.4574 -1.1848 -0.6734
40712SOL     OW26820   5.472   1.905   4.797 -0.2621 -0.2501  0.1801
40712SOL    HW126821   5.380   1.887   4.783 -0.4047  1.3908 -1.4569
40712SOL    HW226822   5.476   1.948   4.883 -1.1574  0.4050 -0.0898
40713SOL     OW26823   3.346  11.473   7.384  0.9124 -0.2464  0.5001
40713SOL    HW126824   3.268  11.479   7.329  0.9492 -1.2882  0.3146
40713SOL    HW226825   3.391  11.556   7.369 -0.3165  0.5263  0.8732
40714SOL     OW26826   2.439   4.307   1.998 -0.4059  0.2768  0.1448
40714SOL    HW126827   2.503   4.304   2.069 -0.9409  3.4343  0.8995
40714SOL    HW226828   2.363   4.260   2.031  0.5030 -1.1888  0.2679
40715SOL     OW26829   0.006   1.907   9.718 -0.0540  0.3252 -0.0155
40715SOL    HW126830  -0.008   1.948   9.804  0.2587  1.5361 -0.5243
40715SOL    HW226831  -0.046   1.959   9.658 -1.3511 -1.3392 -0.3899
40716SOL     OW26832   9.996   2.018   3.761  0.2717  0.2047  0.3590
40716SOL    HW126833   9.966   2.005   3.671  1.3146  1.7566 -0.2303
40716SOL    HW226834  10.090   2.001   3.758  0.1506 -0.7907  1.4045
40717SOL     OW26835   0.274   9.343  11.817  0.0088  0.7397  0.5485
40717SOL    HW126836   0.303   9.328  11.727  0.5985  2.0238  0.5074
40717SOL    HW226837   0.225   9.425  11.814 -1.8498 -0.2817  1.0270
40718SOL     OW26838   2.002  11.490   1.954 -0.7514 -0.2954 -0.5953
40718SOL    HW126839   1.944  11.503   2.028 -2.5883 -0.2238 -1.9915
40718SOL    HW226840   1.983  11.562   1.894  0.6129 -0.4067 -1.2217
40719SOL     OW26841   2.744   9.225   9.788  0.0637 -0.1725 -0.6935
40719SOL    HW126842   2.793   9.146   9.809 -0.3115 -0.1625  0.2468
40719SOL    HW226843   2.660   9.214   9.832 -0.4086  0.2710 -1.4461
40720SOL     OW26844  10.038   6.386   4.875 -0.0915  0.2125  0.0549
40720SOL    HW126845  10.022   6.365   4.967 -4.8466  0.4254 -0.4542
40720SOL    HW226846  10.058   6.302   4.834 -0.1007 -0.2391  0.9507
40721SOL     OW26847   4.312   8.560   3.799 -0.4302  0.5957  0.1425
40721SOL    HW126848   4.226   8.519   3.790  0.2854 -1.3020  1.4258
40721SOL    HW226849   4.374   8.488   3.797  0.8455  1.4059  3.2511
40722SOL     OW26850   5.411   1.706   7.777  0.3807  0.2097 -0.2752
40722SOL    HW126851   5.405   1.800   7.758 -2.6518  0.3628  0.9647
40722SOL    HW226852   5.455   1.703   7.863 -0.1897  0.5506  0.0319
40723SOL     OW26853   9.535   5.909   8.038 -0.3422  0.3275 -0.2773
40723SOL    HW126854   9.604   5.945   8.093 -1.0348  0.3686  0.5949
40723SOL    HW226855   9.480   5.859   8.099 -2.1921  1.8817 -0.5659
40724SOL     OW26856   9.342   3.862   5.708  0.2724  0.2909  0.0194
40724SOL    HW126857   9.311   3.855   5.798 -0.4210  0.7756 -0.1755
40724SOL    HW226858   9.339   3.772   5.674 -1.2948  0.3796 -0.1151
40725SOL     OW26859   6.038  10.833   1.485  0.0969 -0.2313  0.2352
40725SOL    HW126860   5.957  10.876   1.516  0.8880  0.3716  1.5439
40725SOL    HW226861   6.016  10.740   1.480 -0.5144 -0.1437  1.1391
40726SOL     OW26862   7.950   1.085   1.327  0.2643  0.1630 -0.1416
40726SOL    HW126863   7.940   1.164   1.380 -0.1778  1.2602 -1.8104
40726SOL    HW226864   7.916   1.015   1.383 -1.7432  1.5095  0.4551
40727SOL     OW26865   3.580   9.500   9.403  0.2037 -0.5594 -0.7740
40727SOL    HW126866   3.636   9.443   9.351  1.1737  0.7677 -1.2143
40727SOL    HW226867   3.497   9.501   9.355  0.9715  0.3714 -2.1323
40728SOL     OW26868   7.127   2.003   6.393 -0.2102 -0.0912  0.5542
40728SOL    HW126869   7.155   1.946   6.321 -1.0013  1.4891 -1.1006
40728SOL    HW226870   7.037   1.976   6.411 -0.1267 -0.2572  0.7298
40729SOL     OW26871   9.118  11.600   8.632  0.0790  0.5972 -0.1006
40729SOL    HW126872   9.040  11.643   8.595  0.6595  1.3896 -0.4364
40729SOL    HW226873   9.190  11.660   8.612  0.6352  0.3241  1.0288
40730SOL     OW26874   7.069  11.938   2.794 -0.4184 -0.1631  0.2051
40730SOL    HW126875   7.149  11.955   2.844  0.4189 -1.6468 -0.5727
40730SOL    HW226876   7.036  12.025   2.772  1.1923  0.4921  0.2244
40731SOL     OW26877  10.807   5.378   2.213  0.0063 -0.3662 -0.2564
40731SOL    HW126878  10.733   5.318   2.208  0.8824 -1.3930 -3.6609
40731SOL    HW226879  10.770   5.464   2.191 -0.4514 -0.5365 -0.1616
40732SOL     OW26880   5.571   0.657   4.455 -0.2307 -0.3862  0.7977
40732SOL    HW126881   5.556   0.596   4.528  2.3139 -0.5711  1.2461
40732SOL    HW226882   5.617   0.605   4.389  0.4030  0.6097  0.4433
40733SOL     OW26883   1.564   3.109   0.850  0.7901 -0.7503 -0.4455
40733SOL    HW126884   1.647   3.073   0.881  0.1714 -0.5995  1.5839
40733SOL    HW226885   1.555   3.192   0.896 -0.2829 -0.5646 -0.9510
40734SOL     OW26886   7.697   0.611   8.591 -0.5339 -0.1489 -0.2416
40734SOL    HW126887   7.725   0.581   8.678 -2.0035 -0.3151  0.2098
40734SOL    HW226888   7.734   0.547   8.531  0.5388 -0.0127  0.2500
40735SOL     OW26889   1.506   8.832   9.919  0.0562 -0.2834 -0.4838
40735SOL    HW126890   1.586   8.796   9.881 -0.2075  0.1973 -1.5252
40735SOL    HW226891   1.529   8.922   9.944 -0.5707  0.4215 -2.2905
40736SOL     OW26892   7.618   9.795  11.550 -0.1338  0.0018  0.1509
40736SOL    HW126893   7.697   9.784  11.603  0.9857  0.0737 -1.4243
40736SOL    HW226894   7.560   9.724  11.577 -0.1320  0.7567  2.3179
40737SOL     OW26895   7.910  11.115  10.065  0.4601  0.8331 -0.3878
40737SOL    HW126896   7.944  11.105  10.154  0.4938 -1.0588 -0.5720
40737SOL    HW226897   7.988  11.115  10.009  0.3856  0.9439 -0.4928
40738SOL     OW26898   2.577   3.722   1.027  0.1023  0.5048 -0.0035
40738SOL    HW126899   2.620   3.806   1.041  1.7495 -0.6081  2.1204
40738SOL    HW226900   2.648   3.658   1.024 -1.0684 -0.8384 -1.9516
40739SOL     OW26901   9.853   1.908   9.845 -0.5652 -0.4487  0.0854
40739SOL    HW126902   9.885   1.859   9.920 -1.4977  0.4615  1.1087
40739SOL    HW226903   9.890   1.996   9.856 -0.3461 -0.4270 -0.7663
40740SOL     OW26904   8.331   9.098   8.300 -0.0928 -0.6109  0.1976
40740SOL    HW126905   8.239   9.086   8.278  0.0017 -1.5033  0.2471
40740SOL    HW226906   8.333   9.104   8.396 -0.1867  0.2570  0.1479
40741SOL     OW26907   7.864   3.117   0.170  0.1237  0.5009 -0.3381
40741SOL    HW126908   7.883   3.034   0.215  0.7680  0.7002 -0.2398
40741SOL    HW226909   7.939   3.173   0.190  1.0107  0.2208 -2.5900
40742SOL     OW26910   6.127   2.508   7.923  0.1813 -0.0041  0.4094
40742SOL    HW126911   6.075   2.452   7.981  0.8142  0.2418  1.2366
40742SOL    HW226912   6.212   2.516   7.968 -0.0453  1.9892  0.5523
40743SOL     OW26913   5.288  10.805  10.355  0.0720  0.3535  0.1349
40743SOL    HW126914   5.200  10.788  10.322  0.3020 -2.1247  0.6377
40743SOL    HW226915   5.274  10.849  10.439 -0.7401 -1.0431  0.7526
40744SOL     OW26916  11.048   8.778   0.391 -0.3620  0.4068 -0.2497
40744SOL    HW126917  11.111   8.795   0.462  1.2932  0.2837 -1.6304
40744SOL    HW226918  11.019   8.865   0.364  0.2550  0.5398 -0.4984
40745SOL     OW26919   9.891   2.658  10.955 -0.5097 -0.0687 -0.0295
40745SOL    HW126920   9.965   2.600  10.974 -0.4273  0.2578  0.6890
40745SOL    HW226921   9.931   2.742  10.934 -0.6669  0.0201  0.0248
40746SOL     OW26922   0.633   0.224   8.237 -0.3698  0.1076 -0.0575
40746SOL    HW126923   0.680   0.148   8.272 -0.5214  0.7232  1.5626
40746SOL    HW226924   0.701   0.275   8.193  0.2251  0.2839  1.0396
40747SOL     OW26925   5.534   9.392   2.078 -0.2876 -0.2606  0.0986
40747SOL    HW126926   5.455   9.368   2.127 -0.3540 -1.2119 -0.4553
40747SOL    HW226927   5.502   9.441   2.003 -0.2932 -0.0360  0.2461
40748SOL     OW26928   4.819   4.113  11.966 -0.7396 -0.1373 -0.1924
40748SOL    HW126929   4.728   4.119  11.939 -1.0705  0.9927  1.0599
40748SOL    HW226930   4.832   4.020  11.984 -1.1917 -0.5410 -1.7797
40749SOL     OW26931   1.581   9.481  10.417 -0.0502 -0.5304 -0.2714
40749SOL    HW126932   1.632   9.535  10.477  0.7487 -1.2934 -0.2375
40749SOL    HW226933   1.513   9.440  10.472 -0.0679 -0.2969 -0.1206
40750SOL     OW26934   1.108   8.616   5.241 -0.0148  0.2120 -0.4415
40750SOL    HW126935   1.127   8.671   5.317  1.1717 -0.3990 -0.2792
40750SOL    HW226936   1.192   8.603   5.198 -0.6063  0.1817 -1.6199
40751SOL     OW26937   5.795   6.996   5.669 -0.1367 -0.2733 -0.2729
40751SOL    HW126938   5.735   7.050   5.721 -0.7496 -1.4044  0.2419
40751SOL    HW226939   5.771   6.906   5.691  0.3253 -0.7766 -1.6979
40752SOL     OW26940   4.225   7.211   1.925  0.2879  0.2300 -0.2502
40752SOL    HW126941   4.272   7.209   2.008 -1.0694 -0.5174  0.5293
40752SOL    HW226942   4.268   7.281   1.875  1.1247  0.6935  1.0725
40753SOL     OW26943   9.706   6.728  10.201  0.3969 -0.2217  0.1717
40753SOL    HW126944   9.701   6.640  10.238  1.3234 -0.7271 -0.8261
40753SOL    HW226945   9.647   6.725  10.126  0.7970 -0.1516 -0.1492
40754SOL     OW26946   5.553  11.150  10.319  0.3244  0.5581  0.1848
40754SOL    HW126947   5.467  11.127  10.283 -0.3608  2.0473  0.8108
40754SOL    HW226948   5.615  11.104  10.262 -0.8633 -0.4739 -0.3378
40755SOL     OW26949   4.805   6.066   8.255  0.1668 -0.8689  0.2538
40755SOL    HW126950   4.834   6.046   8.344  0.0064  0.7609  0.6921
40755SOL    HW226951   4.715   6.034   8.251  0.5004 -1.8577  0.3342
40756SOL     OW26952   8.018   4.284   5.241 -0.2725 -0.5086  0.9928
40756SOL    HW126953   7.935   4.236   5.250 -1.3201  1.0834  0.4268
40756SOL    HW226954   8.060   4.246   5.164 -1.9683  0.6217 -0.5809
40757SOL     OW26955   1.637  11.137   5.231  0.0029 -0.2348 -0.4558
40757SOL    HW126956   1.660  11.122   5.323 -3.5442 -1.1310  0.4614
40757SOL    HW226957   1.708  11.191   5.197  1.2995  0.4635  2.9147
40758SOL     OW26958   9.811   7.349   2.848 -0.1239  0.8082 -0.8578
40758SOL    HW126959   9.738   7.410   2.854  0.3235  1.4376 -1.6710
40758SOL    HW226960   9.889   7.404   2.847  0.4703  0.1156  1.2791
40759SOL     OW26961  11.834   6.379   6.130  0.0815 -0.5504  0.5798
40759SOL    HW126962  11.864   6.298   6.171 -2.3212 -0.9014  1.7594
40759SOL    HW226963  11.777   6.420   6.194  0.0043  1.3364 -0.5984
40760SOL     OW26964   6.747   2.246   0.412 -0.1348  0.2812 -0.0482
40760SOL    HW126965   6.673   2.202   0.369 -0.3580  0.1584  0.4473
40760SOL    HW226966   6.801   2.278   0.340  0.1272 -0.9572 -0.4397
40761SOL     OW26967   0.486   6.115   5.845 -0.4221 -0.0059  0.3203
40761SOL    HW126968   0.495   6.107   5.750  3.3284 -0.8244  0.5961
40761SOL    HW226969   0.483   6.024   5.876  0.8182  0.1781  1.0634
40762SOL     OW26970   4.530   5.895   2.342  0.1993 -0.9643 -0.5427
40762SOL    HW126971   4.625   5.901   2.348  0.0761  1.3358 -0.0056
40762SOL    HW226972   4.499   5.927   2.426 -1.0595 -0.3728 -1.2080
40763SOL     OW26973   5.613   4.517   3.737  0.0063  0.3246  0.3551
40763SOL    HW126974   5.609   4.423   3.719 -1.8056  0.2912  0.7691
40763SOL    HW226975   5.689   4.547   3.687  0.5736 -1.3357  0.1425
40764SOL     OW26976   3.252   3.960   7.560  0.1802 -0.0702 -0.0853
40764SOL    HW126977   3.308   3.993   7.630  0.4170  1.9338 -1.1488
40764SOL    HW226978   3.168   3.942   7.603 -0.3210  2.9865  0.4674
40765SOL     OW26979   1.128   7.508  11.923  0.0677 -0.3057  0.2929
40765SOL    HW126980   1.223   7.514  11.934  0.0977  0.1462 -0.1743
40765SOL    HW226981   1.110   7.414  11.925  0.3482 -0.3510  1.7239
40766SOL     OW26982   6.419   9.779   9.674  1.0106 -0.4492  0.8963
40766SOL    HW126983   6.485   9.832   9.628  1.0371 -1.2160  0.0272
40766SOL    HW226984   6.382   9.723   9.606 -0.5904 -0.0025  1.3472
40767SOL     OW26985   6.742   7.368   8.894  0.0306 -0.2609  0.6426
40767SOL    HW126986   6.837   7.365   8.896 -0.0063 -1.6945  1.0655
40767SOL    HW226987   6.715   7.343   8.983 -0.7381  1.7126  1.0225
40768SOL     OW26988   5.711   6.491  11.121  0.1492  0.5031  0.0324
40768SOL    HW126989   5.720   6.494  11.026  2.3325  0.5098  0.2100
40768SOL    HW226990   5.629   6.538  11.138 -0.6767 -0.1438 -1.8652
40769SOL     OW26991   6.271   5.700   0.129 -0.1894  0.0810 -0.4441
40769SOL    HW126992   6.218   5.641   0.075  0.5449 -1.0822  0.0659
40769SOL    HW226993   6.284   5.652   0.211 -0.6809  1.5205  0.4993
40770SOL     OW26994   3.859   3.485  11.842  0.0823 -0.1347  0.0528
40770SOL    HW126995   3.794   3.516  11.905 -0.3887  0.4463 -0.7033
40770SOL    HW226996   3.871   3.393  11.864  0.1555  0.1279  1.1852
40771SOL     OW26997   6.322   3.655   9.990 -0.3957  0.4608  0.1597
40771SOL    HW126998   6.276   3.720   9.938  0.1804  0.3249 -0.5409
40771SOL    HW226999   6.262   3.581   9.996 -0.0282  0.0083 -1.3384
40772SOL     OW27000   3.875   4.885   1.447  0.0217 -0.1734  0.2691
40772SOL    HW127001   3.838   4.971   1.465 -0.5373 -0.6130  1.2654
40772SOL    HW227002   3.848   4.866   1.357 -0.0360  0.5937  0.1191
40773SOL     OW27003   4.064   3.899   5.366 -0.0031  0.2563  0.1515
40773SOL    HW127004   4.124   3.910   5.440  0.2308 -1.3110  0.2217
40773SOL    HW227005   3.977   3.917   5.402  0.2370  0.8379  0.4598
40774SOL     OW27006   8.866  10.953   6.898  0.0032  0.4186 -0.4564
40774SOL    HW127007   8.852  10.945   6.992 -1.4183  0.4636 -0.6328
40774SOL    HW227008   8.787  10.997   6.866  0.4704  0.4240 -1.6701
40775SOL     OW27009   4.148   6.105   7.993  0.1384  0.0275 -0.4458
40775SOL    HW127010   4.166   6.026   7.943  0.3165  0.8275 -1.6860
40775SOL    HW227011   4.055   6.123   7.978  0.1643  0.2119 -0.3944
40776SOL     OW27012   1.100   4.605   7.642  0.1814  0.7174 -0.4435
40776SOL    HW127013   1.171   4.598   7.705  0.5603  1.4565 -0.7758
40776SOL    HW227014   1.126   4.546   7.571 -0.4798 -0.4900  0.2817
40777SOL     OW27015  10.929   1.652   5.222 -0.0367 -0.4833  0.0988
40777SOL    HW127016  10.904   1.649   5.315 -0.0394 -1.1471  0.0797
40777SOL    HW227017  10.946   1.561   5.199  1.8999 -0.1422 -0.0332
40778SOL     OW27018   6.033   2.806   4.966  0.4242  0.3628  0.8350
40778SOL    HW127019   6.122   2.840   4.961  1.0943 -1.0782  2.1473
40778SOL    HW227020   6.024   2.750   4.889  0.5769  0.6604  0.5976
40779SOL     OW27021   5.714  11.162   3.919 -0.0880 -0.3161 -0.0223
40779SOL    HW127022   5.738  11.094   3.856  0.6509  1.2568 -1.5369
40779SOL    HW227023   5.657  11.221   3.870  1.0704  1.3439  0.5377
40780SOL     OW27024   4.939   8.414   3.233  0.1319  0.2904  0.4379
40780SOL    HW127025   4.855   8.368   3.234  0.8813 -1.1281  0.7959
40780SOL    HW227026   4.929   8.484   3.298 -0.1262 -1.1513  2.0390
40781SOL     OW27027   0.087   3.358   5.250  0.2589  0.6464 -0.3270
40781SOL    HW127028   0.124   3.286   5.300 -0.0536  0.6538 -0.0770
40781SOL    HW227029  -0.002   3.368   5.285 -0.1379  0.3341 -1.2130
40782SOL     OW27030   3.768  11.611   1.218 -0.4111 -0.4220  0.1135
40782SOL    HW127031   3.825  11.535   1.224 -0.2359 -0.3342 -0.4240
40782SOL    HW227032   3.804  11.663   1.146 -1.1191 -0.3345 -0.1873
40783SOL     OW27033  10.956   9.015   3.226  0.4843 -0.2223 -0.2136
40783SOL    HW127034  11.030   9.076   3.228 -1.7789  2.7544  0.5869
40783SOL    HW227035  10.983   8.943   3.282  2.5611  1.0140  0.5088
40784SOL     OW27036   0.423  10.184   7.547  0.2243  0.2521  0.3716
40784SOL    HW127037   0.447  10.207   7.636 -0.6749  0.7198  0.5087
40784SOL    HW227038   0.372  10.103   7.556  0.1988  0.2559  0.2703
40785SOL     OW27039   9.470   4.451   8.198 -0.2686  0.0872  0.5724
40785SOL    HW127040   9.392   4.400   8.219 -0.5984  0.8583  1.2608
40785SOL    HW227041   9.471   4.456   8.102 -0.9767 -0.0479  0.5566
40786SOL     OW27042   6.992   4.713   2.581 -0.3178  0.3880 -0.2533
40786SOL    HW127043   7.077   4.752   2.603 -0.9624  2.3118 -1.0169
40786SOL    HW227044   7.014   4.637   2.528  0.9223  1.7925 -1.8517
40787SOL     OW27045   3.171   9.878  10.476 -0.0326 -0.4934 -0.0118
40787SOL    HW127046   3.258   9.874  10.436 -0.0757 -1.7332 -0.0287
40787SOL    HW227047   3.176   9.950  10.539  1.2064 -0.9782  0.4599
40788SOL     OW27048   0.604   8.818   6.802  0.5013 -0.1259 -0.8725
40788SOL    HW127049   0.538   8.855   6.861 -1.3026  1.8883 -3.8999
40788SOL    HW227050   0.653   8.895   6.771  2.1206 -1.2583 -1.2375
40789SOL     OW27051   4.797  11.726   5.174 -0.4568  0.4230 -0.3143
40789SOL    HW127052   4.709  11.727   5.210  0.0610 -0.4204  1.0592
40789SOL    HW227053   4.819  11.818   5.163 -2.2923  0.6479 -2.7985
40790SOL     OW27054   2.495   8.154   4.346 -0.4253 -0.6937 -0.2869
40790SOL    HW127055   2.568   8.104   4.310 -1.1852 -1.8523 -0.2942
40790SOL    HW227056   2.436   8.087   4.382 -1.6212  0.1734 -0.5650
40791SOL     OW27057   7.085   3.510   3.989 -0.0718  0.1172  0.9201
40791SOL    HW127058   7.069   3.530   4.081 -3.8661 -0.8539  0.6388
40791SOL    HW227059   6.999   3.491   3.953  1.2794  0.1730 -2.8229
40792SOL     OW27060   2.592   2.797   3.543  0.4454  0.4529 -0.0757
40792SOL    HW127061   2.631   2.719   3.505  0.9800 -0.3915  2.0263
40792SOL    HW227062   2.615   2.868   3.484  1.5200 -0.7024 -1.0902
40793SOL     OW27063   4.811   5.936  10.657  0.8940  0.4589 -0.2438
40793SOL    HW127064   4.870   6.009  10.637 -0.7958  2.2214  0.8388
40793SOL    HW227065   4.758   5.926  10.578  2.3178 -0.8716 -1.0746
40794SOL     OW27066   6.930  10.224  10.582 -0.3135  0.0991  0.2207
40794SOL    HW127067   6.996  10.162  10.553 -2.5934 -1.5150 -1.9794
40794SOL    HW227068   6.890  10.183  10.658  0.2101  0.3762  0.6517
40795SOL     OW27069   5.566   4.861   1.340 -0.1433 -0.0527 -0.1316
40795SOL    HW127070   5.616   4.909   1.406 -0.1698 -0.6494  0.3304
40795SOL    HW227071   5.629   4.799   1.303  0.0917  0.7927 -1.2400
40796SOL     OW27072   8.123   4.864  11.851 -0.1044  0.3633  0.0846
40796SOL    HW127073   8.080   4.819  11.924 -1.7312  0.8481 -0.5258
40796SOL    HW227074   8.116   4.957  11.872 -0.2573  0.4910 -0.4935
40797SOL     OW27075   6.598   4.969  11.077 -0.2580  0.6910  0.0294
40797SOL    HW127076   6.643   4.947  11.159 -0.0922  1.7239  0.2324
40797SOL    HW227077   6.524   4.910  11.074  0.7654 -0.6384 -0.0032
40798SOL     OW27078  11.004  11.121   1.398 -0.0906 -0.1180  0.2907
40798SOL    HW127079  10.995  11.159   1.485 -0.5960 -2.1552  1.1955
40798SOL    HW227080  11.003  11.027   1.413 -0.5256 -0.5312 -1.9609
40799SOL     OW27081  10.035   9.358   6.621 -0.2149 -0.2356  0.2447
40799SOL    HW127082   9.961   9.319   6.669 -1.0833 -0.4675 -1.2172
40799SOL    HW227083  10.036   9.311   6.537 -0.1304  1.6155 -0.8435
40800SOL     OW27084   1.981   5.661   7.978  0.2312  0.1861 -0.1521
40800SOL    HW127085   2.004   5.726   8.044 -1.1322  0.9886 -0.4286
40800SOL    HW227086   1.904   5.616   8.014 -0.4988  0.6011 -1.1483
40801SOL     OW27087   1.797   2.937   3.969  0.2034 -0.1522 -0.3158
40801SOL    HW127088   1.791   2.884   4.049  2.1269  0.9382  0.6003
40801SOL    HW227089   1.890   2.953   3.957 -0.2586  3.5944 -0.1490
40802SOL     OW27090   2.960  10.260   7.228 -0.4546 -0.4942 -0.2020
40802SOL    HW127091   3.038  10.308   7.200  0.3062 -0.7332  1.3712
40802SOL    HW227092   2.895  10.278   7.161  0.1408  1.8147 -0.2490
40803SOL     OW27093   2.326   0.366   4.908  0.5057 -0.2301  0.2925
40803SOL    HW127094   2.304   0.403   4.994 -1.6204 -0.1400 -0.2195
40803SOL    HW227095   2.410   0.406   4.885  0.6140  0.5308  1.8699
40804SOL     OW27096   5.077   4.097   1.667  0.4321  0.2074  0.4479
40804SOL    HW127097   5.149   4.074   1.726  1.2315  2.3761  0.3876
40804SOL    HW227098   5.117   4.106   1.581 -0.5320 -1.7683 -0.2753
40805SOL     OW27099   1.972   6.528   2.635  0.4890  0.1916  0.0072
40805SOL    HW127100   1.928   6.453   2.675  0.3754  0.2505 -0.0094
40805SOL    HW227101   1.992   6.499   2.546 -0.2067  0.4415 -0.2361
40806SOL     OW27102   7.790   7.832   4.404  0.1387  0.2801  0.0428
40806SOL    HW127103   7.796   7.924   4.381 -0.1788  0.1360 -0.6788
40806SOL    HW227104   7.845   7.788   4.339 -2.3603 -0.3303 -1.8205
40807SOL     OW27105   9.298   2.263   8.705 -0.4740  0.2713  0.1798
40807SOL    HW127106   9.364   2.284   8.770  1.3009  2.9060 -2.2202
40807SOL    HW227107   9.282   2.169   8.715  1.7193  0.0550  2.5098
40808SOL     OW27108   6.233   3.596   2.305 -0.0002 -0.2193  0.9094
40808SOL    HW127109   6.240   3.556   2.219  0.6490  1.3887  0.1732
40808SOL    HW227110   6.321   3.590   2.342 -0.0270  0.0436  1.0194
40809SOL     OW27111   5.676  10.106   5.165  0.5704  0.7894  0.5350
40809SOL    HW127112   5.694  10.041   5.096  0.0309  0.5930  0.5743
40809SOL    HW227113   5.584  10.093   5.186  0.2163  2.1699 -0.0811
40810SOL     OW27114   5.345   7.649   6.564  0.4832  0.6599 -0.0112
40810SOL    HW127115   5.390   7.606   6.637  0.1753 -1.7146 -1.1250
40810SOL    HW227116   5.386   7.612   6.486  0.2718  2.5574 -1.0927
40811SOL     OW27117   6.366   4.344   8.490  0.3418  0.4044  0.2055
40811SOL    HW127118   6.320   4.407   8.435 -0.0266 -0.0682 -0.0345
40811SOL    HW227119   6.346   4.371   8.580 -0.4735  0.1494  0.1035
40812SOL     OW27120  11.785  10.138   1.547  0.0065 -0.0716  0.6113
40812SOL    HW127121  11.765  10.141   1.453 -0.4587 -0.1312  0.7039
40812SOL    HW227122  11.866  10.188   1.557  0.3965 -0.5826  0.0904
40813SOL     OW27123   1.372   0.551   8.279 -0.7574  0.6467  0.4760
40813SOL    HW127124   1.392   0.642   8.302  0.4580  0.1896  1.3423
40813SOL    HW227125   1.378   0.504   8.362  0.2528 -0.4967 -0.2176
40814SOL     OW27126   3.939   0.567   6.512  0.3469  0.2672  0.4762
40814SOL    HW127127   4.024   0.603   6.537  0.7902 -0.3102 -0.1542
40814SOL    HW227128   3.946   0.554   6.417  0.6491 -2.5373  0.8081
40815SOL     OW27129   9.801   9.699  11.272 -0.2410  0.4758 -0.4649
40815SOL    HW127130   9.864   9.746  11.327 -0.5167  1.1340 -0.7047
40815SOL    HW227131   9.761   9.767  11.217 -0.4426 -0.0774 -1.0186
40816SOL     OW27132   0.381   3.431   4.158 -0.0530 -0.1383  0.4066
40816SOL    HW127133   0.390   3.344   4.119 -0.1901  0.2576 -0.5366
40816SOL    HW227134   0.454   3.481   4.122 -1.4840  0.8937 -1.2093
40817SOL     OW27135   5.013   2.949   8.047  0.5849  0.2463 -0.0098
40817SOL    HW127136   5.003   2.983   8.136  2.1165 -1.3891  0.8542
40817SOL    HW227137   4.926   2.914   8.025  0.8743 -2.2712  2.2259
40818SOL     OW27138  10.380   9.148   4.923  0.6811 -0.3629  1.1051
40818SOL    HW127139  10.474   9.163   4.918  0.9553 -2.1939 -0.3542
40818SOL    HW227140  10.341   9.221   4.875  1.4835 -0.5387  0.1608
40819SOL     OW27141   3.738   5.001   0.401 -0.4262  0.0604  0.3584
40819SOL    HW127142   3.695   5.062   0.342  0.1942 -1.1953 -1.4873
40819SOL    HW227143   3.672   4.934   0.418  0.1000 -0.7937 -0.8313
40820SOL     OW27144   8.312   5.972  10.632 -0.4113 -0.2901  0.5677
40820SOL    HW127145   8.227   5.996  10.597 -0.2607 -0.5541 -0.0032
40820SOL    HW227146   8.304   5.879  10.654 -0.0719 -0.4967 -0.1401
40821SOL     OW27147   8.118   0.328   9.503  0.0332 -0.0538  0.0378
40821SOL    HW127148   8.162   0.407   9.535 -1.6379  0.9524 -0.0855
40821SOL    HW227149   8.060   0.302   9.574  0.4041 -1.0595 -0.0094
40822SOL     OW27150  10.783   1.664   0.367  0.2575  0.8775  0.6833
40822SOL    HW127151  10.742   1.584   0.333  2.4055 -0.5232  1.1221
40822SOL    HW227152  10.827   1.635   0.447  3.4002  1.7862 -0.5603
40823SOL     OW27153  10.170  10.068   6.891  0.1406  0.2052  0.0219
40823SOL    HW127154  10.192   9.977   6.908  0.6819  0.3551  0.1459
40823SOL    HW227155  10.216  10.117   6.960 -0.0356  0.5795 -0.1255
40824SOL     OW27156   2.107   2.274   2.707  0.2838 -0.2900 -0.6744
40824SOL    HW127157   2.150   2.194   2.677 -1.0962 -0.8004 -1.3801
40824SOL    HW227158   2.014   2.261   2.686 -0.0522  1.2620 -0.2893
40825SOL     OW27159   3.045   8.511   4.935  0.4700 -0.3306  0.1210
40825SOL    HW127160   3.033   8.581   4.872  1.6935  0.1015  0.3340
40825SOL    HW227161   3.080   8.554   5.013  0.2813 -1.0400  0.6125
40826SOL     OW27162   7.822   0.762   1.198  0.4296 -0.4465 -0.3439
40826SOL    HW127163   7.821   0.792   1.288  1.9759  0.2179 -0.5069
40826SOL    HW227164   7.778   0.677   1.200 -0.8371  0.2120  0.7560
40827SOL     OW27165  10.580   2.683   3.833 -0.2932  0.0764 -0.5364
40827SOL    HW127166  10.621   2.609   3.878 -1.0353  0.8919  1.6559
40827SOL    HW227167  10.494   2.690   3.874 -0.9400  1.0311 -2.0030
40828SOL     OW27168  10.989   4.729   5.268  0.4480  0.4244  0.5744
40828SOL    HW127169  10.986   4.701   5.176  3.0673  1.5109  0.0630
40828SOL    HW227170  10.955   4.654   5.316 -0.1107 -0.5441 -1.2152
40829SOL     OW27171   1.575   9.288   7.453 -0.0998  0.4823 -0.3011
40829SOL    HW127172   1.637   9.274   7.382  0.5485  3.0546 -0.3403
40829SOL    HW227173   1.506   9.342   7.415  0.2500  1.8960  0.9687
40830SOL     OW27174   5.241   5.807  11.048 -0.1802  0.0207  0.0125
40830SOL    HW127175   5.292   5.847  10.978  0.6521 -1.7491 -0.4242
40830SOL    HW227176   5.294   5.734  11.079 -1.1739 -0.1085  1.5319
40831SOL     OW27177   7.925   5.678   8.244 -0.6913  0.1724  0.1974
40831SOL    HW127178   7.970   5.752   8.204  0.8592  0.0351  1.5956
40831SOL    HW227179   7.855   5.718   8.295 -1.0277  0.5189 -0.5118
40832SOL     OW27180   7.625  11.813   7.931  0.2515  0.1694 -0.6730
40832SOL    HW127181   7.693  11.751   7.904 -0.0933 -1.0713  1.1131
40832SOL    HW227182   7.669  11.898   7.932  1.9824 -0.6796  0.9667
40833SOL     OW27183   2.035   9.333  10.792  0.0836  0.0034  0.2780
40833SOL    HW127184   1.992   9.274  10.855 -2.6513  0.6326 -0.8537
40833SOL    HW227185   2.018   9.421  10.826  0.2733  0.2777 -0.3318
40834SOL     OW27186   2.509   2.202   4.795 -0.4671 -0.6727  0.3517
40834SOL    HW127187   2.554   2.280   4.763  1.8502 -1.4864  1.3786
40834SOL    HW227188   2.451   2.234   4.864 -1.3849  0.3930 -0.8638
40835SOL     OW27189   5.748   8.864   1.505 -0.3501 -0.6203 -0.3090
40835SOL    HW127190   5.657   8.833   1.507  0.0709 -1.8822 -0.1901
40835SOL    HW227191   5.785   8.825   1.426  0.3533 -0.8985  0.1456
40836SOL     OW27192  11.652   5.009   2.856 -0.5898 -0.3350 -0.5823
40836SOL    HW127193  11.699   5.090   2.877 -0.7539 -0.4071  0.0965
40836SOL    HW227194  11.564   5.038   2.833 -1.1120 -0.3930  1.1450
40837SOL     OW27195   9.576   2.133   9.203  0.0657  0.5494  0.3858
40837SOL    HW127196   9.602   2.092   9.120  0.0711 -1.1774  1.1996
40837SOL    HW227197   9.641   2.202   9.218 -0.2168  1.2155 -1.2537
40838SOL     OW27198  11.925   9.724   6.156 -0.2790 -0.2394 -0.7474
40838SOL    HW127199  11.948   9.720   6.249 -1.9418 -0.1020 -0.3007
40838SOL    HW227200  12.001   9.766   6.114  0.9050 -1.1879  0.3790
40839SOL     OW27201  11.467   2.411   8.947 -0.2220  0.3983 -0.1868
40839SOL    HW127202  11.463   2.425   8.852  2.7336  0.1331 -0.4517
40839SOL    HW227203  11.429   2.324   8.960  0.7567 -0.2313 -1.3675
40840SOL     OW27204   8.674  10.425   7.981 -0.4206  0.4824 -0.1022
40840SOL    HW127205   8.671  10.520   7.971 -2.8417  0.5310  0.4592
40840SOL    HW227206   8.677  10.411   8.075 -1.8289  0.0454 -0.0961
40841SOL     OW27207   3.028   2.145   5.887 -0.5802  0.0499  0.4995
40841SOL    HW127208   3.093   2.191   5.833 -1.8117  1.0561 -0.1731
40841SOL    HW227209   3.053   2.053   5.881  1.4776  0.5058  1.2213
40842SOL     OW27210   2.926   5.705  10.097  0.3899 -0.8299  0.1877
40842SOL    HW127211   2.912   5.743  10.184 -1.0007 -1.5849  0.3156
40842SOL    HW227212   2.856   5.640  10.087  0.1642 -0.3429 -1.7427
40843SOL     OW27213   4.507   3.234   6.008 -0.1759  0.1189 -0.0156
40843SOL    HW127214   4.500   3.144   6.041  0.8464  0.3433  0.8506
40843SOL    HW227215   4.570   3.229   5.936  0.6148  0.2976  0.6579
40844SOL     OW27216  11.374   7.968  11.549 -0.2138  1.0131 -0.2363
40844SOL    HW127217  11.296   8.003  11.507 -1.0481  1.8726  1.8974
40844SOL    HW227218  11.370   7.874  11.531 -0.8519  1.2510 -1.4955
40845SOL     OW27219  11.806   2.154  11.065 -0.4369  0.1531  0.5255
40845SOL    HW127220  11.781   2.231  11.117  3.0784  2.1492 -0.4213
40845SOL    HW227221  11.886   2.123  11.106 -0.6859 -1.7808 -0.3747
40846SOL     OW27222  11.564   9.895  10.528 -0.2667 -0.4117 -0.0614
40846SOL    HW127223  11.557   9.941  10.444 -1.4191 -0.8363 -0.2239
40846SOL    HW227224  11.641   9.838  10.518 -0.4708 -0.5684 -0.8961
40847SOL     OW27225   5.545  10.361  11.721 -0.2706  0.9935  0.2287
40847SOL    HW127226   5.628  10.323  11.693 -1.3920 -1.1733 -0.3376
40847SOL    HW227227   5.503  10.390  11.640 -1.0257  0.0042  0.2522
40848SOL     OW27228   9.210  10.842   5.584 -1.1226 -0.3944  0.3583
40848SOL    HW127229   9.265  10.766   5.603 -0.8898 -0.1757  0.5570
40848SOL    HW227230   9.156  10.853   5.663 -1.1344 -0.3327  0.3415
40849SOL     OW27231  11.915   2.752   9.364  0.6027 -0.1891  0.1586
40849SOL    HW127232  11.863   2.708   9.431  1.6422 -2.4407 -0.4277
40849SOL    HW227233  12.003   2.755   9.400  0.6201  1.1768  0.0428
40850SOL     OW27234   0.647   1.221   7.934  0.1898  0.1465  0.2792
40850SOL    HW127235   0.725   1.271   7.909  0.9214 -0.3933  1.3918
40850SOL    HW227236   0.598   1.211   7.853  0.7596  1.4000 -0.2429
40851SOL     OW27237  11.051   2.211   7.085 -0.5940  0.6238 -0.2307
40851SOL    HW127238  11.069   2.121   7.113 -1.0574  0.6380  0.1216
40851SOL    HW227239  11.082   2.215   6.995  0.8595  0.5497  0.2388
40852SOL     OW27240   9.867   8.533   5.919 -0.4354  0.0942 -0.0043
40852SOL    HW127241   9.890   8.444   5.893  0.4234 -0.7058  3.0912
40852SOL    HW227242   9.945   8.567   5.962 -0.4644  2.7217 -1.7339
40853SOL     OW27243   9.764   2.287   6.142  0.3358  0.1067 -0.2687
40853SOL    HW127244   9.781   2.378   6.164  0.6424 -0.1270  0.4804
40853SOL    HW227245   9.669   2.282   6.132  0.3367  0.5482 -0.5213
40854SOL     OW27246   8.369   4.719   3.485 -0.1393  0.1667  0.5216
40854SOL    HW127247   8.446   4.667   3.506  0.2216  0.0464 -1.0116
40854SOL    HW227248   8.332   4.678   3.407  0.6465  2.6375 -1.2702
40855SOL     OW27249  11.406   4.678  10.195  0.0763 -0.1624 -0.3108
40855SOL    HW127250  11.495   4.650  10.174  0.1572 -0.2586  0.1339
40855SOL    HW227251  11.404   4.679  10.291 -0.7287 -1.2206 -0.2999
40856SOL     OW27252   0.524   4.726   3.687  0.3981  0.2893  0.0520
40856SOL    HW127253   0.611   4.722   3.726  1.1790  0.8042 -1.5717
40856SOL    HW227254   0.505   4.819   3.679  0.7911  0.2366 -1.8759
40857SOL     OW27255  11.748   5.361   7.144  0.2920  0.2955  0.1501
40857SOL    HW127256  11.800   5.300   7.093 -0.2372 -1.0369  1.1269
40857SOL    HW227257  11.676   5.308   7.178 -0.3029  1.5165  0.8698
40858SOL     OW27258   7.039   0.899   7.049 -0.6808  0.0940 -0.3018
40858SOL    HW127259   7.024   0.956   6.973 -2.4605  1.0916  0.7342
40858SOL    HW227260   7.134   0.883   7.049 -0.5027  0.9454 -2.1005
40859SOL     OW27261  11.123   6.207   3.224  0.6875  0.2133 -0.1334
40859SOL    HW127262  11.071   6.135   3.260  2.0540 -0.4462  0.5646
40859SOL    HW227263  11.059   6.277   3.212 -0.3997 -0.5975  0.5982
40860SOL     OW27264  10.631   0.479   5.928  0.1115 -0.0543 -0.1567
40860SOL    HW127265  10.686   0.493   5.850  0.0176  2.9718  0.2096
40860SOL    HW227266  10.692   0.453   5.996  1.1378  2.5507  0.0494
40861SOL     OW27267   6.000  11.472   8.207  0.1867 -0.3025 -0.2862
40861SOL    HW127268   6.028  11.563   8.193  0.4974 -0.0374  1.7545
40861SOL    HW227269   6.081  11.421   8.202  0.2253 -0.2744  0.0744
40862SOL     OW27270   3.312   7.112   3.014  0.1664 -0.2455 -0.2028
40862SOL    HW127271   3.254   7.162   3.071  0.3660 -2.7036  2.4400
40862SOL    HW227272   3.395   7.110   3.062  0.7561 -1.3199 -1.2321
40863SOL     OW27273   6.586   0.540   6.919  0.5254  0.1613 -0.1343
40863SOL    HW127274   6.622   0.476   6.981  0.1359 -0.7431 -0.8267
40863SOL    HW227275   6.582   0.621   6.969  2.2344 -0.0384  0.3803
40864SOL     OW27276   9.470   4.400   8.872  0.5490  0.6659 -0.1247
40864SOL    HW127277   9.466   4.380   8.966 -0.3700  1.3244 -0.0071
40864SOL    HW227278   9.448   4.493   8.866 -1.4862  0.1853 -1.1410
40865SOL     OW27279   8.957   1.544   5.089 -0.6366 -0.8662 -0.0622
40865SOL    HW127280   8.882   1.541   5.148 -0.9465  0.5383 -0.3373
40865SOL    HW227281   9.031   1.568   5.145 -1.4017  3.2650 -0.5117
40866SOL     OW27282   4.972   8.515   0.052 -0.7157 -0.3387  0.0542
40866SOL    HW127283   4.946   8.437   0.101 -0.3668  0.2093  1.1432
40866SOL    HW227284   4.899   8.533  -0.007 -1.1761 -0.9568  0.4334
40867SOL     OW27285   4.266  10.930   7.271  0.1314 -0.1079  0.0656
40867SOL    HW127286   4.314  10.970   7.344  0.3749 -0.7331  0.2574
40867SOL    HW227287   4.177  10.917   7.305  0.2169 -0.2993  0.2210
40868SOL     OW27288   7.345   6.189   9.250  0.1228  0.1765  0.6388
40868SOL    HW127289   7.273   6.131   9.272  1.1605 -0.8106  1.5540
40868SOL    HW227290   7.375   6.224   9.335  1.7565 -0.7237  0.4836
40869SOL     OW27291   9.597   6.422   8.952 -0.7392 -0.5805 -0.0979
40869SOL    HW127292   9.600   6.384   9.040 -0.2148  1.8574  1.0151
40869SOL    HW227293   9.685   6.409   8.917 -0.7545 -0.9386 -0.0116
40870SOL     OW27294   9.628  11.076   8.735 -0.2598 -0.4641  0.1560
40870SOL    HW127295   9.554  11.064   8.795 -0.2668 -0.4412  0.1512
40870SOL    HW227296   9.698  11.111   8.789 -0.0369 -1.1179  0.3015
40871SOL     OW27297   4.277   7.321   2.482 -0.3947 -0.1108 -0.4551
40871SOL    HW127298   4.325   7.401   2.501  0.1295  0.3547 -3.3340
40871SOL    HW227299   4.324   7.253   2.531  3.5765  0.2637 -3.2750
40872SOL     OW27300   6.143   1.789   9.933 -0.2629 -0.1227  0.3233
40872SOL    HW127301   6.082   1.786   9.859  1.5711  1.4986 -1.3916
40872SOL    HW227302   6.222   1.831   9.897  1.0047  0.0277  3.0308
40873SOL     OW27303  10.251   3.614   2.803  0.7758  0.1702 -0.3651
40873SOL    HW127304  10.301   3.676   2.749  1.1556  0.0980 -0.1027
40873SOL    HW227305  10.308   3.598   2.879 -0.1569  1.0182  0.5421
40874SOL     OW27306   0.650  10.425   7.007  0.1458 -0.5217 -0.0247
40874SOL    HW127307   0.661  10.330   6.996  1.0257 -0.3281 -0.9488
40874SOL    HW227308   0.570  10.433   7.059 -0.8339 -1.7226 -1.2616
40875SOL     OW27309  10.933   9.314   1.170  0.5815 -0.0472 -0.4978
40875SOL    HW127310  10.973   9.353   1.248 -1.0490  1.5179 -0.3813
40875SOL    HW227311  10.956   9.374   1.099 -2.1677  1.3884 -0.2763
40876SOL     OW27312   8.222   3.321  11.489 -0.1722 -0.7822  0.3509
40876SOL    HW127313   8.196   3.235  11.456 -0.5175 -0.5236 -0.0627
40876SOL    HW227314   8.311   3.333  11.457 -0.7309 -0.2446 -1.1079
40877SOL     OW27315   5.030   7.483   2.800  0.0234 -0.7334  0.6508
40877SOL    HW127316   5.084   7.404   2.803  1.6380  0.2529 -0.7751
40877SOL    HW227317   4.979   7.475   2.720 -0.3589 -0.6549  0.8822
40878SOL     OW27318   5.956   5.246   9.114 -0.2895 -0.2998  0.1868
40878SOL    HW127319   5.966   5.311   9.184 -0.8642 -0.4433  0.4116
40878SOL    HW227320   5.873   5.203   9.134 -1.0293  0.4168 -1.2081
40879SOL     OW27321   5.189   2.578   2.285 -0.2977  1.0445 -0.2948
40879SOL    HW127322   5.165   2.551   2.196  0.6585 -0.7085 -0.0651
40879SOL    HW227323   5.206   2.672   2.278 -3.1482  1.6079 -1.3017
40880SOL     OW27324   1.702   2.548   2.517 -0.4262 -0.0426 -0.2994
40880SOL    HW127325   1.651   2.629   2.512 -3.1567 -1.4841  1.5496
40880SOL    HW227326   1.651   2.485   2.466  0.3777 -1.1820  0.2723
40881SOL     OW27327   9.515   7.286   4.059  0.5035  0.3254 -0.1518
40881SOL    HW127328   9.456   7.317   4.128  1.4362 -0.1007  0.8687
40881SOL    HW227329   9.506   7.350   3.988  0.8796  1.7867  1.0872
40882SOL     OW27330   0.357   9.816  11.653  0.3218 -0.1338 -0.0583
40882SOL    HW127331   0.441   9.860  11.667 -0.1365  1.0461 -0.8866
40882SOL    HW227332   0.356   9.795  11.560 -0.0479 -0.7096  0.0666
40883SOL     OW27333   9.975   6.482   5.506  0.0400  0.0034  0.0207
40883SOL    HW127334   9.911   6.547   5.474  0.8240  0.5956 -0.3886
40883SOL    HW227335  10.059   6.527   5.501  0.8069 -1.5100 -1.6094
40884SOL     OW27336  11.256  10.750   4.457 -0.4844  0.3807  0.5057
40884SOL    HW127337  11.340  10.771   4.417 -0.9056  0.6701 -0.2392
40884SOL    HW227338  11.259  10.791   4.543  0.3914 -0.1662  0.7514
40885SOL     OW27339  11.634   3.434   8.101 -0.4450 -0.0828  0.1031
40885SOL    HW127340  11.695   3.364   8.125 -0.5933 -0.7432 -1.3221
40885SOL    HW227341  11.563   3.389   8.056 -1.0776  0.8833  0.1145
40886SOL     OW27342  10.996   1.922   4.937  0.0235  0.3118  0.4579
40886SOL    HW127343  11.013   1.992   5.000  1.3116  0.1186  0.3624
40886SOL    HW227344  11.040   1.845   4.975 -1.1222 -0.3824  0.4210
40887SOL     OW27345   7.681   6.035  10.861  0.4115  0.1378 -0.3507
40887SOL    HW127346   7.679   6.033  10.956  0.4422  0.0738 -0.3506
40887SOL    HW227347   7.760   5.986  10.838  0.3053 -0.0045 -0.4137
40888SOL     OW27348   1.588   0.295   1.591 -0.0165  0.1796  0.0483
40888SOL    HW127349   1.614   0.203   1.599 -0.7495  0.0949  2.1831
40888SOL    HW227350   1.503   0.292   1.546 -0.1203 -0.2055  0.2644
40889SOL     OW27351   7.465   3.473   1.565  0.5920  0.1402  0.4567
40889SOL    HW127352   7.415   3.488   1.485  2.2441 -1.6499 -0.9881
40889SOL    HW227353   7.449   3.552   1.618 -1.1973  1.0051 -1.2424
40890SOL     OW27354   2.881  11.035   2.043 -0.1078  0.2574  0.1761
40890SOL    HW127355   2.838  11.026   2.128 -1.1963 -0.6259 -0.4452
40890SOL    HW227356   2.893  10.946   2.012  1.8123  0.4971  0.1137
40891SOL     OW27357   4.831   7.545  11.166  0.1429 -0.0532 -0.3186
40891SOL    HW127358   4.926   7.531  11.164  0.2912  0.6697  0.8513
40891SOL    HW227359   4.814   7.587  11.250 -1.3590 -1.1899 -0.0044
40892SOL     OW27360   5.200   8.696   0.051  0.1053 -0.2182 -0.2874
40892SOL    HW127361   5.279   8.642   0.046  1.4880  1.5109  1.3034
40892SOL    HW227362   5.131   8.635   0.078  1.5304 -1.2968  1.1677
40893SOL     OW27363  11.462   9.671   6.920 -0.1627  0.1042 -0.1261
40893SOL    HW127364  11.369   9.672   6.941 -0.1381  0.1705 -0.0203
40893SOL    HW227365  11.470   9.606   6.850 -0.3911  0.5899 -0.6087
40894SOL     OW27366   0.159   3.581   1.853  0.2301  0.5487  0.1162
40894SOL    HW127367   0.149   3.662   1.903  0.0772  0.2906  0.5085
40894SOL    HW227368   0.113   3.598   1.770  1.0213  1.1992 -0.2008
40895SOL     OW27369   2.142  10.731   5.665 -0.2459  0.0203  0.2990
40895SOL    HW127370   2.210  10.798   5.666  0.0961 -0.2717 -1.0669
40895SOL    HW227371   2.182  10.654   5.705  0.6915 -0.5395 -1.6190
40896SOL     OW27372   2.470   2.052   5.916 -0.5290  0.0979 -0.1198
40896SOL    HW127373   2.556   2.094   5.921 -0.9325  0.8089  1.4340
40896SOL    HW227374   2.414   2.118   5.874 -0.4417 -0.1545 -0.6366
40897SOL     OW27375   4.703   1.807   2.325  0.3503  0.5137  0.4241
40897SOL    HW127376   4.776   1.868   2.319  1.8264 -0.9316  2.4015
40897SOL    HW227377   4.653   1.836   2.401 -1.1047  1.3982 -0.8244
40898SOL     OW27378  10.046   9.787   2.441  0.7385 -0.1140 -0.1469
40898SOL    HW127379  10.062   9.852   2.510 -0.5466  1.6548 -1.4094
40898SOL    HW227380  10.072   9.831   2.360  0.9081 -1.6192 -0.9507
40899SOL     OW27381   9.732  11.358   5.962  0.5239 -0.1376 -0.3073
40899SOL    HW127382   9.698  11.424   6.022 -0.2011 -2.4388  2.0154
40899SOL    HW227383   9.666  11.352   5.892 -0.4782  0.1422  0.5872
40900SOL     OW27384   6.707   8.452  10.828  0.0301  0.7358 -0.2921
40900SOL    HW127385   6.706   8.535  10.876  1.5996 -0.1246  1.3429
40900SOL    HW227386   6.799   8.438  10.806 -0.2714 -0.3683 -0.9226
40901SOL     OW27387  10.501   8.407   3.852 -0.1998 -0.6792  0.0098
40901SOL    HW127388  10.567   8.466   3.889 -0.6161 -0.0736 -0.2027
40901SOL    HW227389  10.423   8.462   3.842 -0.8076 -1.4369  0.4638
40902SOL     OW27390   2.308   7.544  11.462  0.3950 -0.1742 -0.1339
40902SOL    HW127391   2.271   7.595  11.534  1.4402  1.5478 -0.7359
40902SOL    HW227392   2.232   7.512  11.414 -0.3738  2.0891 -0.5637
40903SOL     OW27393   6.813   1.919   4.077 -0.8139 -0.3440  0.0299
40903SOL    HW127394   6.726   1.957   4.073 -0.4239  0.5215 -0.4654
40903SOL    HW227395   6.835   1.898   3.987  0.0851  0.8843 -0.0746
40904SOL     OW27396   4.916   0.789   6.320 -0.2175 -0.0566  0.4354
40904SOL    HW127397   4.891   0.698   6.335 -1.1223  0.1292  0.0996
40904SOL    HW227398   4.996   0.801   6.372  2.7928 -2.4210 -3.0366
40905SOL     OW27399   6.397   2.397   2.338 -0.2245 -0.4008 -0.6938
40905SOL    HW127400   6.471   2.457   2.342 -0.5506 -0.0608  0.8464
40905SOL    HW227401   6.434   2.314   2.308  1.0072 -0.5383  1.0788
40906SOL     OW27402   4.189   2.059  11.690 -0.0648 -0.2507 -0.0405
40906SOL    HW127403   4.278   2.079  11.662 -0.0221 -0.4651 -0.0605
40906SOL    HW227404   4.196   2.048  11.785 -0.2493  0.6898  0.0863
40907SOL     OW27405   3.041   0.268   9.049 -0.4788 -0.4426 -0.0943
40907SOL    HW127406   2.964   0.279   8.993  0.2542  0.2627 -1.0187
40907SOL    HW227407   3.104   0.331   9.014  0.4842 -0.9409  0.6983
40908SOL     OW27408   9.358   4.491  11.000  0.0318  0.9502  0.1560
40908SOL    HW127409   9.274   4.532  11.024 -0.5936 -0.6784  0.9396
40908SOL    HW227410   9.377   4.432  11.073  1.2246  0.3490 -0.6065
40909SOL     OW27411   2.755  11.339   9.876  0.0542  0.4186  0.6820
40909SOL    HW127412   2.740  11.358   9.784  0.2994 -2.2449  0.0013
40909SOL    HW227413   2.846  11.365   9.892  0.0380  0.8018  0.1682
40910SOL     OW27414   2.906   8.819   5.258  0.3430  0.3718 -0.4031
40910SOL    HW127415   2.991   8.806   5.301 -0.2953 -1.8772  0.2901
40910SOL    HW227416   2.880   8.732   5.229 -2.0115  0.8970 -0.0539
40911SOL     OW27417   8.034   7.937   7.025 -0.1589 -0.0781 -0.0646
40911SOL    HW127418   8.026   8.020   7.073  1.2230  0.4273 -0.6580
40911SOL    HW227419   7.996   7.872   7.083 -1.0582  0.9324  0.5193
40912SOL     OW27420  10.624   8.573   9.658 -0.9270  0.5524 -0.1449
40912SOL    HW127421  10.656   8.502   9.601 -1.5827  0.4983 -0.4495
40912SOL    HW227422  10.578   8.529   9.728  1.0197  0.5393  1.2103
40913SOL     OW27423   0.032   4.133   2.086 -0.3948 -0.1708  0.1377
40913SOL    HW127424   0.112   4.129   2.034  0.0288 -2.1880  0.8388
40913SOL    HW227425  -0.039   4.125   2.022 -0.0591  1.3419 -0.4578
40914SOL     OW27426   0.032   0.534   7.042  0.0811 -0.8625  0.0875
40914SOL    HW127427  -0.027   0.520   6.968  0.0304 -1.3910  0.2204
40914SOL    HW227428  -0.020   0.507   7.118  0.0541 -0.1120  0.3412
40915SOL     OW27429   1.370   3.928   5.100  0.2159 -0.0834  0.1331
40915SOL    HW127430   1.423   3.930   5.020  0.3508  0.5086  0.2304
40915SOL    HW227431   1.410   3.860   5.154  0.0866 -0.5316 -0.3198
40916SOL     OW27432   8.809   0.094  11.429  0.4086  0.4798 -0.6895
40916SOL    HW127433   8.730   0.041  11.441  1.9690 -1.7720  0.6079
40916SOL    HW227434   8.848   0.061  11.348  1.9979 -1.3918  0.7230
40917SOL     OW27435   3.033   3.172   1.391  0.9213  0.0850 -0.2775
40917SOL    HW127436   2.994   3.144   1.308  1.5384  0.1415 -0.5915
40917SOL    HW227437   2.958   3.189   1.448  0.4751 -2.4595  0.0418
40918SOL     OW27438   5.536   2.323   9.011  0.0824  0.2430 -0.3409
40918SOL    HW127439   5.558   2.414   8.992  0.4853  0.5291  1.2820
40918SOL    HW227440   5.564   2.311   9.102  0.8073 -1.7473 -0.7728
40919SOL     OW27441   0.251   5.032   2.207  0.2719 -0.7963 -0.3789
40919SOL    HW127442   0.169   4.990   2.182 -0.3304 -1.2788  2.2255
40919SOL    HW227443   0.308   4.959   2.232  0.4921 -0.3047  0.5876
40920SOL     OW27444   8.938   6.453   7.219 -0.2109 -0.6125 -0.3430
40920SOL    HW127445   9.019   6.449   7.270 -0.4285  1.5391  0.2608
40920SOL    HW227446   8.946   6.532   7.166 -2.5540  0.6005  0.9403
40921SOL     OW27447   5.184   9.676   0.302 -0.3092 -0.0675 -0.3742
40921SOL    HW127448   5.126   9.671   0.226  1.1866  1.6863 -1.7074
40921SOL    HW227449   5.237   9.596   0.297 -1.3828 -0.8203 -0.1362
40922SOL     OW27450  10.002  10.623   3.274  0.4775 -0.4839  0.5007
40922SOL    HW127451   9.935  10.566   3.236  1.1641 -1.1430  0.2578
40922SOL    HW227452   9.968  10.646   3.361  0.0906 -1.0832  0.5106
40923SOL     OW27453   3.981   2.794   4.975  0.2283  0.4725 -0.3965
40923SOL    HW127454   3.904   2.751   4.939 -1.9568  2.0426  1.9858
40923SOL    HW227455   3.985   2.878   4.928  1.5013 -0.2534 -1.6262
40924SOL     OW27456   6.429   0.012   7.341 -0.8275  0.2317  0.8135
40924SOL    HW127457   6.504   0.057   7.379 -0.1506 -0.8129  0.7487
40924SOL    HW227458   6.454  -0.080   7.340 -2.2234 -0.1805  1.0577
40925SOL     OW27459   3.621   7.777   4.632  0.0543  0.0422 -0.0177
40925SOL    HW127460   3.634   7.822   4.716  0.5614  0.0460 -0.0981
40925SOL    HW227461   3.709   7.760   4.599  0.1408 -4.7883  1.9421
40926SOL     OW27462   6.742   5.861   1.410  0.0819  0.6592 -0.2835
40926SOL    HW127463   6.810   5.814   1.363 -1.4430  1.3843 -3.4980
40926SOL    HW227464   6.784   5.943   1.437  0.9610  0.3167 -0.5765
40927SOL     OW27465   0.296   9.606   3.198 -0.1903  0.2860 -0.0084
40927SOL    HW127466   0.204   9.609   3.225 -0.3246 -0.8081 -0.3185
40927SOL    HW227467   0.300   9.536   3.132  1.1141 -0.5906  0.9533
40928SOL     OW27468   1.157   5.367   5.373  0.7805 -0.3611  0.4798
40928SOL    HW127469   1.114   5.393   5.455 -0.3191  0.2946 -0.2873
40928SOL    HW227470   1.168   5.272   5.381  2.0740 -0.1258  2.0259
40929SOL     OW27471   0.795   7.853   7.692  0.1336 -0.5207 -0.6866
40929SOL    HW127472   0.786   7.849   7.597  2.2198 -0.2646 -0.9551
40929SOL    HW227473   0.865   7.917   7.706  0.9557 -1.7191  0.9227
40930SOL     OW27474   1.181   0.449   8.106  0.3607  0.4659  0.0957
40930SOL    HW127475   1.224   0.453   8.021 -0.4320  2.3426 -0.2767
40930SOL    HW227476   1.251   0.467   8.169  0.8594 -0.4634 -0.1842
40931SOL     OW27477   0.948   8.548   0.225 -0.0553 -0.3423 -0.5898
40931SOL    HW127478   0.879   8.612   0.209  0.1441 -0.1014 -0.5061
40931SOL    HW227479   1.021   8.600   0.260  0.3471 -0.5122 -1.1601
40932SOL     OW27480   4.617   9.726   6.636 -0.5059  0.0948 -0.2503
40932SOL    HW127481   4.679   9.700   6.568 -0.0248  0.2468  0.1282
40932SOL    HW227482   4.536   9.743   6.588 -0.5003 -0.9276 -0.6439
40933SOL     OW27483  11.057   0.495  11.189  0.2563  0.0240 -0.0676
40933SOL    HW127484  11.116   0.420  11.192 -0.6581 -0.8196 -1.7341
40933SOL    HW227485  10.983   0.470  11.244  0.9293  0.6675  1.1907
40934SOL     OW27486   4.754   4.859   7.012  0.2318 -0.9673 -0.1753
40934SOL    HW127487   4.752   4.878   7.106  2.1629 -2.1841  0.1661
40934SOL    HW227488   4.827   4.798   7.001  0.9068  0.1258 -2.6356
40935SOL     OW27489   2.733   4.210   5.192  0.0864 -0.1868 -0.7067
40935SOL    HW127490   2.712   4.118   5.204  1.0512 -0.3278 -0.0725
40935SOL    HW227491   2.715   4.227   5.099 -1.9430 -0.5099 -0.4214
40936SOL     OW27492   8.102   9.701   9.978 -0.3193 -0.4266  0.4356
40936SOL    HW127493   8.121   9.659  10.062 -2.6166 -0.0841  1.1783
40936SOL    HW227494   8.007   9.705   9.973 -0.3883  4.6455  0.4378
40937SOL     OW27495  11.649   9.504   1.117  0.7127 -0.4516  0.2445
40937SOL    HW127496  11.675   9.412   1.114  1.8071 -0.1384 -0.3042
40937SOL    HW227497  11.597   9.511   1.197 -0.4295 -1.7934 -0.3336
40938SOL     OW27498   5.906   7.386   5.849 -0.0825 -0.3564  0.4417
40938SOL    HW127499   5.845   7.454   5.822  0.8101  0.2389 -0.1335
40938SOL    HW227500   5.937   7.346   5.768 -0.3571 -1.2510  0.7599
40939SOL     OW27501   7.197   6.864   4.652  0.0760 -0.1864 -0.1831
40939SOL    HW127502   7.285   6.890   4.623  0.2913 -1.3958 -0.6719
40939SOL    HW227503   7.212   6.819   4.736 -0.3211  1.4187  0.7940
40940SOL     OW27504   9.625   2.076   2.673  0.0225 -0.0737 -0.1450
40940SOL    HW127505   9.673   2.063   2.755 -0.8272 -0.4348  0.2991
40940SOL    HW227506   9.547   2.125   2.698 -0.4248 -0.4990 -0.6794
40941SOL     OW27507   6.521  10.616   4.291  0.7653  0.5837 -0.7373
40941SOL    HW127508   6.550  10.699   4.253  1.1457  1.0895  0.6096
40941SOL    HW227509   6.556  10.616   4.380  0.1888 -0.7184 -0.4794
40942SOL     OW27510   6.678   4.114   6.639  0.8190 -0.2949  0.4567
40942SOL    HW127511   6.770   4.102   6.662  1.0361 -0.3852 -0.4247
40942SOL    HW227512   6.630   4.082   6.715  1.5147 -0.3951  0.8598
40943SOL     OW27513  11.137   7.432   4.769  0.2447  0.3285  0.0141
40943SOL    HW127514  11.138   7.528   4.760 -0.0585  0.3373  0.0763
40943SOL    HW227515  11.116   7.400   4.681  2.0030  0.2582 -0.4228
40944SOL     OW27516   9.971   2.106   2.272  0.4412  0.2857 -0.0162
40944SOL    HW127517   9.922   2.093   2.191 -0.1247 -0.7793  0.4553
40944SOL    HW227518   9.907   2.086   2.341  1.1946  0.1085  0.6506
40945SOL     OW27519  10.738   4.697   4.156  0.0364  0.6559 -0.0554
40945SOL    HW127520  10.648   4.669   4.140 -0.4156  1.9445  0.1454
40945SOL    HW227521  10.756   4.761   4.087  0.1013  1.8549  1.0311
40946SOL     OW27522   6.415   7.639   3.060 -0.2564  0.2368  0.2017
40946SOL    HW127523   6.321   7.631   3.077 -0.1157  1.9601  2.3348
40946SOL    HW227524   6.454   7.565   3.107 -0.4857 -0.0546 -0.0622
40947SOL     OW27525   8.158   4.778   5.177  1.1897 -0.1238 -0.3630
40947SOL    HW127526   8.216   4.824   5.238  1.0751 -0.5248  0.0611
40947SOL    HW227527   8.180   4.686   5.189  0.5767 -0.2706 -0.3078
40948SOL     OW27528   0.847   8.924   6.253  0.6750  0.3587 -0.4352
40948SOL    HW127529   0.887   8.927   6.166  0.1268  0.4026 -0.6932
40948SOL    HW227530   0.804   9.009   6.263 -0.3416 -0.1070 -0.6606
40949SOL     OW27531   8.686   8.451   8.583 -0.3704 -0.3430  0.2499
40949SOL    HW127532   8.739   8.531   8.583 -0.8981  0.0132 -0.5342
40949SOL    HW227533   8.607   8.475   8.632  0.3616 -1.0145  1.8422
40950SOL     OW27534   5.879   2.166   4.441 -0.0237 -0.0104  0.4795
40950SOL    HW127535   5.915   2.174   4.353  0.8876  0.9786  0.9198
40950SOL    HW227536   5.812   2.097   4.434 -1.4899  1.5112 -1.4526
40951SOL     OW27537   1.740   5.391   5.840  0.3533  0.0393  0.5182
40951SOL    HW127538   1.710   5.320   5.896 -0.0478  0.1020  0.3876
40951SOL    HW227539   1.685   5.385   5.762  0.8012  0.0502  0.1990
40952SOL     OW27540   6.125  11.158   3.340  0.0146 -0.6460  0.1517
40952SOL    HW127541   6.164  11.109   3.412 -0.9735 -2.2815 -0.3851
40952SOL    HW227542   6.082  11.092   3.286 -0.2986  0.6807 -1.2923
40953SOL     OW27543  10.374   6.355   5.097 -0.3463  0.4045 -0.3502
40953SOL    HW127544  10.316   6.430   5.111  0.7154  1.4688 -1.4110
40953SOL    HW227545  10.384   6.350   5.002  0.9381 -0.0275 -0.2066
40954SOL     OW27546   2.675   3.596   7.268 -0.0748  0.2415  0.3803
40954SOL    HW127547   2.598   3.564   7.314  0.2601  0.6756  1.2752
40954SOL    HW227548   2.744   3.533   7.289 -0.2629 -0.3416 -0.7088
40955SOL     OW27549   8.628   7.381   0.972  0.2300 -0.1727  0.2977
40955SOL    HW127550   8.633   7.457   0.914  0.8039  1.7686  2.7107
40955SOL    HW227551   8.719   7.360   0.994  0.0654 -1.4126 -0.1083
40956SOL     OW27552   5.630   0.866   0.468  0.1342  0.1587  0.1933
40956SOL    HW127553   5.570   0.918   0.521  0.2663  0.0881  0.4135
40956SOL    HW227554   5.587   0.860   0.382  0.0221  0.4539  0.2270
40957SOL     OW27555   8.503   0.525   6.232 -0.0132 -0.5453  0.1800
40957SOL    HW127556   8.476   0.441   6.269  0.4252 -0.7905 -0.0483
40957SOL    HW227557   8.599   0.524   6.236  0.0357 -0.4345 -0.6322
40958SOL     OW27558   0.245   8.688   7.905 -0.4662  0.0206 -0.1500
40958SOL    HW127559   0.327   8.639   7.900  0.2066  0.8795  1.5334
40958SOL    HW227560   0.204   8.658   7.986 -0.2336  1.8818  0.7045
40959SOL     OW27561   2.070   0.766   1.530  0.1236  0.0116 -0.2259
40959SOL    HW127562   1.989   0.717   1.545 -0.5734  1.4072  0.9625
40959SOL    HW227563   2.044   0.839   1.474  0.3335  0.9243  0.8145
40960SOL     OW27564   9.114   7.163  10.895  0.1396 -0.1363 -0.2036
40960SOL    HW127565   9.116   7.135  10.987  0.1878  1.1442  0.2027
40960SOL    HW227566   9.200   7.140  10.861  0.8886  1.2321  0.6676
40961SOL     OW27567   1.080   6.936   5.445  0.4329 -0.1912 -0.1367
40961SOL    HW127568   1.109   7.000   5.380 -0.2565 -1.2281 -1.5171
40961SOL    HW227569   0.988   6.955   5.459  0.6306  0.1723  0.7453
40962SOL     OW27570  10.812   6.748   1.826  0.5310  0.0397 -0.3484
40962SOL    HW127571  10.882   6.752   1.761  0.3449 -1.2301 -0.6701
40962SOL    HW227572  10.828   6.666   1.873 -0.2101  0.1902  0.1754
40963SOL     OW27573   2.895   1.391   2.962 -0.8803 -0.4873  0.0434
40963SOL    HW127574   2.841   1.470   2.967 -2.5108 -1.6190  1.2683
40963SOL    HW227575   2.913   1.381   2.868 -1.2334  0.9362 -0.2078
40964SOL     OW27576  10.128   5.664   5.178  0.0303 -0.5624 -0.2441
40964SOL    HW127577  10.187   5.717   5.125 -0.1093  0.9778  1.0710
40964SOL    HW227578  10.049   5.656   5.124 -0.6369  2.1487  0.1692
40965SOL     OW27579  10.268   0.138   2.528 -0.0275 -0.8913 -0.6151
40965SOL    HW127580  10.230   0.106   2.610  2.9131 -2.1522  0.4075
40965SOL    HW227581  10.255   0.066   2.467  0.8732 -1.4250 -0.1964
40966SOL     OW27582   0.117  10.182   6.482  0.0065  0.3657 -0.3847
40966SOL    HW127583   0.087  10.177   6.391  0.4689  0.7781 -0.5639
40966SOL    HW227584   0.130  10.275   6.498  1.9601  0.1753 -0.5822
40967SOL     OW27585  10.200   4.796  11.110  0.4109  1.1002  0.3786
40967SOL    HW127586  10.247   4.721  11.145 -2.0524  0.3710  2.4126
40967SOL    HW227587  10.166   4.766  11.026  1.4816  0.8257  0.0256
40968SOL     OW27588   8.758   2.260   2.198  0.2297 -0.4798  0.2977
40968SOL    HW127589   8.735   2.171   2.225  1.1092 -0.5594  0.8118
40968SOL    HW227590   8.795   2.250   2.110 -0.0525 -0.5671  0.1881
40969SOL     OW27591   3.416  10.455  10.844 -0.0690  0.0135 -0.1584
40969SOL    HW127592   3.481  10.489  10.905 -0.0342 -0.3294 -0.0022
40969SOL    HW227593   3.335  10.450  10.895  0.1843 -1.2074  0.1562
40970SOL     OW27594   4.808   0.531   6.661  0.2705  0.3101  0.0372
40970SOL    HW127595   4.811   0.626   6.671 -1.7394  0.4357 -0.0506
40970SOL    HW227596   4.723   0.506   6.697  0.4417 -1.3618 -0.6328
40971SOL     OW27597  11.629  10.146   4.011 -0.2268  0.2395 -0.0537
40971SOL    HW127598  11.699  10.111   4.066 -1.3679 -2.0047  0.0480
40971SOL    HW227599  11.674  10.175   3.931  0.8887 -0.6229  0.2329
40972SOL     OW27600   2.778   9.015  10.823 -0.0345  0.1489  0.2792
40972SOL    HW127601   2.742   9.100  10.849  0.5521  0.4252  0.2181
40972SOL    HW227602   2.789   8.968  10.906 -0.3560  0.1338  0.3144
40973SOL     OW27603  11.037   3.163   9.410  0.3115 -0.1664  0.1001
40973SOL    HW127604  11.053   3.083   9.460  1.9297  0.2339  0.2879
40973SOL    HW227605  11.053   3.234   9.473  0.8719  0.3188 -0.5738
40974SOL     OW27606   5.847  10.836   3.401 -0.1740  0.4395 -0.0259
40974SOL    HW127607   5.854  10.823   3.495  1.2235 -0.2118 -0.1854
40974SOL    HW227608   5.882  10.755   3.363  1.6344  1.6280 -1.0652
40975SOL     OW27609   7.544   4.431   4.362 -0.4162  0.2105 -0.1289
40975SOL    HW127610   7.479   4.470   4.420  0.5782  0.7377  0.6683
40975SOL    HW227611   7.493   4.388   4.293 -1.7913 -2.5191  2.3524
40976SOL     OW27612   5.602   1.701   2.948  0.4338 -0.0955 -0.2049
40976SOL    HW127613   5.641   1.713   3.034 -0.2517 -1.9912  0.4105
40976SOL    HW227614   5.674   1.671   2.892  1.2353  2.5973 -0.7515
40977SOL     OW27615   8.590   0.165   6.137 -0.3177  0.0740 -0.1721
40977SOL    HW127616   8.587   0.105   6.062 -1.7323 -1.2931  0.8884
40977SOL    HW227617   8.683   0.175   6.156  0.0423 -0.0284 -1.7290
40978SOL     OW27618   3.526   3.511  10.835  0.1709 -0.2182 -0.0610
40978SOL    HW127619   3.559   3.543  10.919 -0.5152 -1.7873  0.8422
40978SOL    HW227620   3.567   3.425  10.824 -0.9722 -0.7240 -0.5475
40979SOL     OW27621   0.884   8.648   9.930  0.3560  0.0840 -0.2858
40979SOL    HW127622   0.869   8.570   9.984  1.4057 -0.4580 -0.7471
40979SOL    HW227623   0.947   8.620   9.864  0.5240  1.2519 -0.6462
40980SOL     OW27624  11.537   0.125  11.614  0.1553 -0.6139 -0.2479
40980SOL    HW127625  11.516   0.152  11.703 -0.3067 -0.0529 -0.5260
40980SOL    HW227626  11.579   0.040  11.624  0.0079 -0.6001  0.4974
40981SOL     OW27627   8.169   0.751   7.753 -0.5489 -0.4972  0.6000
40981SOL    HW127628   8.251   0.800   7.752  0.5524 -2.1443 -2.6801
40981SOL    HW227629   8.101   0.817   7.741  0.5188  0.6289  0.5346
40982SOL     OW27630   7.676   1.976   2.046  0.8191 -0.2077 -0.0062
40982SOL    HW127631   7.724   1.976   1.963  0.0598  2.7804 -0.5720
40982SOL    HW227632   7.741   2.004   2.111  0.7227  0.3284 -0.1358
40983SOL     OW27633   3.692   9.244   5.543 -0.1011  0.4253 -0.3924
40983SOL    HW127634   3.761   9.196   5.499 -0.6430 -1.0442  0.2833
40983SOL    HW227635   3.718   9.244   5.635 -1.0147 -0.2301 -0.1145
40984SOL     OW27636   4.955   6.985   3.661 -0.3525 -0.4312  0.0545
40984SOL    HW127637   4.936   7.049   3.729 -2.1157 -1.3472  0.4754
40984SOL    HW227638   5.030   6.936   3.695 -1.6193 -1.3292  1.7250
40985SOL     OW27639   9.575   1.955   9.760 -0.2073  0.3091  0.2390
40985SOL    HW127640   9.592   1.966   9.666  2.9935 -1.0722  0.5322
40985SOL    HW227641   9.657   1.981   9.802 -0.3084 -2.4382  2.3722
40986SOL     OW27642  10.234   9.063   0.585  0.1018  0.1897  0.4616
40986SOL    HW127643  10.168   9.076   0.516  1.4974  0.9147 -0.7908
40986SOL    HW227644  10.250   9.152   0.618  0.1922 -0.0320  1.0131
40987SOL     OW27645   7.786   8.608   2.668 -0.0968  0.2415  0.4835
40987SOL    HW127646   7.796   8.585   2.576  1.7883 -0.9732  0.9359
40987SOL    HW227647   7.719   8.548   2.701  0.2363 -0.2793  0.2187
40988SOL     OW27648   6.225  11.923  11.843  0.3848 -0.2895  0.6538
40988SOL    HW127649   6.173  12.003  11.850  1.1749  0.7018 -2.7542
40988SOL    HW227650   6.162  11.852  11.853 -1.0632  0.8222 -0.1992
40989SOL     OW27651  10.205  10.444   0.521  0.2011 -0.2845  0.1859
40989SOL    HW127652  10.135  10.483   0.469  0.4730  0.5370  0.4204
40989SOL    HW227653  10.259  10.397   0.458 -0.1282 -0.2704 -0.1063
40990SOL     OW27654   9.410   2.126   5.265  0.2543 -0.6950 -0.2551
40990SOL    HW127655   9.337   2.067   5.284  0.3446 -0.6395  0.2649
40990SOL    HW227656   9.471   2.074   5.213  0.3379 -1.0701  0.2125
40991SOL     OW27657   8.435  11.236   0.692  0.2518 -0.3296  0.3027
40991SOL    HW127658   8.493  11.263   0.621  0.6420 -0.6452  0.4983
40991SOL    HW227659   8.414  11.317   0.738 -0.0805 -0.1080 -0.2239
40992SOL     OW27660   1.977   8.966   5.765  0.0459  0.3827  0.3451
40992SOL    HW127661   1.937   9.030   5.707 -0.9288 -0.3122  0.2128
40992SOL    HW227662   1.977   9.007   5.851  0.5314  1.0123  0.0480
40993SOL     OW27663   6.973   9.648   6.913 -0.1427  0.4146  0.1262
40993SOL    HW127664   6.921   9.706   6.969  1.9133  2.4279  0.1202
40993SOL    HW227665   6.969   9.563   6.956 -1.3323  1.1227  1.5118
40994SOL     OW27666   6.974  11.230   9.041 -0.2253 -0.5716 -0.5900
40994SOL    HW127667   7.015  11.268   9.119  1.4500 -0.7490 -1.3253
40994SOL    HW227668   7.033  11.254   8.970  0.5451 -3.8445 -1.2170
40995SOL     OW27669   2.215   7.256   4.135 -0.5877 -0.1958 -0.0745
40995SOL    HW127670   2.261   7.338   4.116 -0.3925  0.0160  1.2307
40995SOL    HW227671   2.181   7.227   4.050 -0.3303  1.0380 -0.6159
40996SOL     OW27672  10.052   4.863   6.411 -0.2198 -0.0413 -0.0747
40996SOL    HW127673  10.134   4.852   6.459  0.0021  0.9329 -0.2176
40996SOL    HW227674  10.055   4.797   6.341  0.8441  0.5815 -0.6304
40997SOL     OW27675   2.898   2.809   5.051 -0.2969  1.1121 -0.1969
40997SOL    HW127676   2.907   2.714   5.062  0.0932  0.7375 -2.9209
40997SOL    HW227677   2.803   2.824   5.057 -0.2510  0.8811  1.9415
40998SOL     OW27678   9.730   0.724   8.842  0.5678  0.2682  0.0908
40998SOL    HW127679   9.801   0.660   8.843  0.4272  0.1062  1.7042
40998SOL    HW227680   9.704   0.733   8.934 -2.0747 -0.3164 -0.5124
40999SOL     OW27681   0.306   2.493   6.906 -0.3272  0.1284 -0.0299
40999SOL    HW127682   0.271   2.431   6.970  0.0078  1.1904  1.2387
40999SOL    HW227683   0.238   2.499   6.838 -2.1852  1.2904  1.8083
41000SOL     OW27684   8.979   6.607   5.017  0.0625  0.0953 -0.0008
41000SOL    HW127685   8.886   6.629   5.011  0.0808  0.5433  1.0553
41000SOL    HW227686   9.005   6.588   4.927 -1.3304 -1.2356 -0.1638
41001SOL     OW27687   2.792   7.071   0.758 -0.5289 -0.2564 -1.0551
41001SOL    HW127688   2.879   7.073   0.798 -1.4862 -1.4921  1.2826
41001SOL    HW227689   2.763   6.980   0.766 -2.3958  0.3005 -0.9070
41002SOL     OW27690   4.005   1.668   7.254 -0.0083  0.4704 -0.2875
41002SOL    HW127691   4.014   1.575   7.276 -1.0081  0.4822  0.2340
41002SOL    HW227692   4.054   1.678   7.172  2.5152  0.0975  1.0660
41003SOL     OW27693   4.363  10.282   1.499  0.3306 -0.1208  0.1261
41003SOL    HW127694   4.310  10.273   1.420  0.4685 -0.6305  0.0891
41003SOL    HW227695   4.393  10.373   1.498  0.6162 -0.2218 -0.5877
41004SOL     OW27696   3.105  10.980   8.473 -0.1884  0.2434  0.1731
41004SOL    HW127697   3.049  10.917   8.518  1.9665 -2.2554 -0.3812
41004SOL    HW227698   3.158  11.018   8.544  0.2734 -0.5189  0.2473
41005SOL     OW27699   1.318   1.181   0.234  0.1070 -0.3209  0.7423
41005SOL    HW127700   1.352   1.268   0.213 -0.9627  0.1397  0.8276
41005SOL    HW227701   1.292   1.187   0.326 -0.9794 -0.3703  0.4578
41006SOL     OW27702   5.879   7.588   6.491  0.1169  0.1065 -1.0947
41006SOL    HW127703   5.858   7.499   6.520 -1.5162  0.9584  0.5892
41006SOL    HW227704   5.859   7.589   6.398  0.7469 -1.4283 -1.2744
41007SOL     OW27705   9.372   9.886   8.081 -0.5386  0.2483 -0.1937
41007SOL    HW127706   9.345   9.919   7.996 -1.8213  1.3107  0.5901
41007SOL    HW227707   9.403   9.963   8.128  0.4068 -0.3691  0.2169
41008SOL     OW27708   7.102   4.721   6.856 -0.2310  0.3510 -0.2664
41008SOL    HW127709   7.133   4.645   6.904 -1.8681 -0.0903  0.1811
41008SOL    HW227710   7.138   4.711   6.768 -0.6701 -1.1460 -0.3111
41009SOL     OW27711   2.397   3.738   2.639  0.2853 -0.0136  0.2230
41009SOL    HW127712   2.392   3.830   2.613  0.0983 -0.0647  0.0731
41009SOL    HW227713   2.441   3.739   2.724  0.0011  0.2402  0.3698
41010SOL     OW27714  10.783  11.898   8.415 -0.1555  0.4817 -0.4390
41010SOL    HW127715  10.861  11.843   8.415 -0.4115  0.1149 -0.6702
41010SOL    HW227716  10.810  11.977   8.367  1.0007  1.7237  2.0699
41011SOL     OW27717   1.725   5.860   9.265  0.3269 -0.1644  0.1161
41011SOL    HW127718   1.689   5.774   9.285  1.0546 -0.4206  0.3728
41011SOL    HW227719   1.770   5.887   9.346 -0.8371  0.9592  0.4194
41012SOL     OW27720   5.661   7.618   4.637 -0.3066  0.0424  0.4325
41012SOL    HW127721   5.735   7.649   4.584  0.2664 -2.7327 -0.5315
41012SOL    HW227722   5.613   7.698   4.659  2.4918  1.8874  0.3960
41013SOL     OW27723   9.314  11.690   0.083 -0.2493 -0.3267 -0.3338
41013SOL    HW127724   9.231  11.736   0.081  0.4374  0.9445 -2.0913
41013SOL    HW227725   9.349  11.708   0.171 -1.2354  0.1846 -0.0325
41014SOL     OW27726   2.141   2.394  11.065 -0.1094 -0.5907  0.1996
41014SOL    HW127727   2.063   2.345  11.091 -1.4439  1.0503 -0.4820
41014SOL    HW227728   2.107   2.479  11.035  1.9865  0.3382  0.2696
41015SOL     OW27729   1.449   8.093   9.674  0.0990  0.9638  0.6793
41015SOL    HW127730   1.425   8.079   9.765  1.4072  2.3795  1.2789
41015SOL    HW227731   1.490   8.179   9.672  2.6329 -0.1515 -0.7203
41016SOL     OW27732   1.796   1.400   0.804 -0.2233  0.5895  0.0054
41016SOL    HW127733   1.749   1.372   0.725 -0.8741  0.2152  0.5102
41016SOL    HW227734   1.758   1.347   0.874  0.4205  0.8414  0.5529
41017SOL     OW27735   3.928   6.564   9.038 -0.1179  0.4293  0.2517
41017SOL    HW127736   3.929   6.469   9.026  1.4008  0.5424 -0.8423
41017SOL    HW227737   3.891   6.577   9.126  0.4615 -1.2106  0.7705
41018SOL     OW27738   6.666   9.244   1.637  0.1630 -0.0925  0.4738
41018SOL    HW127739   6.573   9.225   1.650  0.0873  1.4072  2.6439
41018SOL    HW227740   6.709   9.214   1.717  1.6948 -1.2799 -0.7106
41019SOL     OW27741   3.210   2.699   5.185  0.0965 -0.2058  0.0626
41019SOL    HW127742   3.288   2.675   5.133  0.6697  0.5845  0.5298
41019SOL    HW227743   3.206   2.794   5.178 -0.3096 -0.1673  0.7822
41020SOL     OW27744   1.504   7.010  10.645 -0.3782 -0.3058  0.4119
41020SOL    HW127745   1.436   7.076  10.662  2.3214  3.1735 -0.8663
41020SOL    HW227746   1.548   6.999  10.729 -2.0486 -2.1759  1.1173
41021SOL     OW27747   3.909   9.030   2.760  0.6769 -0.0617 -0.7360
41021SOL    HW127748   3.934   8.990   2.843 -0.1260 -0.7426 -0.8046
41021SOL    HW227749   3.830   8.982   2.733  1.2135 -0.2215 -2.1532
41022SOL     OW27750   3.329   1.140   7.240  0.1450  0.0164  0.0522
41022SOL    HW127751   3.310   1.183   7.323  0.1568 -0.1428  0.1374
41022SOL    HW227752   3.245   1.104   7.211 -0.0590  0.8847 -0.4739
41023SOL     OW27753   9.302  11.875   4.808  0.0328  0.5140 -0.4693
41023SOL    HW127754   9.308  11.828   4.725  0.9330 -0.6573  0.2239
41023SOL    HW227755   9.317  11.807   4.874 -1.1315  1.3340  0.6704
41024SOL     OW27756   7.028   2.677   8.081 -0.0768 -0.2339  0.0591
41024SOL    HW127757   7.046   2.698   7.989 -0.7970 -0.3757 -0.1241
41024SOL    HW227758   7.024   2.762   8.125 -0.3026 -0.1286 -0.1602
41025SOL     OW27759   2.568   2.179   9.352  0.3353 -0.2374 -0.1519
41025SOL    HW127760   2.492   2.153   9.300  0.5915  0.2796 -0.8042
41025SOL    HW227761   2.582   2.107   9.413 -0.9680 -0.1322  0.2989
41026SOL     OW27762   4.756   4.420   7.282 -0.1549 -0.2151 -0.2828
41026SOL    HW127763   4.715   4.338   7.257 -0.8285 -0.8398  2.5073
41026SOL    HW227764   4.711   4.446   7.362  3.0808  0.4526  1.5147
41027SOL     OW27765   7.185   1.439  10.173 -0.0983 -0.5223 -0.0021
41027SOL    HW127766   7.124   1.376  10.210 -0.5830  0.2949  0.6445
41027SOL    HW227767   7.131   1.496  10.118 -0.1135  0.7757  1.3021
41028SOL     OW27768   2.400   5.187   4.676  0.4786  0.4514  0.2414
41028SOL    HW127769   2.314   5.224   4.657 -0.1920 -1.1467  0.0159
41028SOL    HW227770   2.428   5.148   4.593  1.3307  0.7570  0.3717
41029SOL     OW27771   7.092   9.729   2.519 -0.5793 -0.6265  0.0307
41029SOL    HW127772   6.998   9.743   2.508 -0.3416  0.5164 -0.7823
41029SOL    HW227773   7.132   9.789   2.456  0.7251 -0.2654  1.1650
41030SOL     OW27774   0.812   5.200  10.103 -0.3651 -0.1061  0.1196
41030SOL    HW127775   0.902   5.229  10.090 -0.4309 -0.2178 -0.5782
41030SOL    HW227776   0.770   5.212  10.019 -0.2861 -2.6589 -0.3795
41031SOL     OW27777  11.907   0.987   9.963  0.6600 -0.1000 -0.0240
41031SOL    HW127778  11.839   1.035  10.009  1.1051  0.8263 -0.3196
41031SOL    HW227779  11.920   0.908  10.016 -1.7601 -1.1111 -0.8200
41032SOL     OW27780  11.970   9.898   4.834 -0.0260  0.4381 -0.4506
41032SOL    HW127781  11.950   9.854   4.751  0.1428  0.6496 -0.6052
41032SOL    HW227782  11.941   9.989   4.820  0.6200  0.6389 -0.5195
41033SOL     OW27783   3.496  11.125   4.886  0.3998 -0.3272 -0.5598
41033SOL    HW127784   3.520  11.063   4.817  0.9710 -0.0730 -0.5951
41033SOL    HW227785   3.571  11.184   4.892 -1.0427  1.8709 -2.2133
41034SOL     OW27786   6.303   8.503   7.277 -0.2728 -0.0390  0.1115
41034SOL    HW127787   6.261   8.535   7.357 -0.3760  0.3010 -0.0771
41034SOL    HW227788   6.315   8.581   7.223 -1.3887 -0.4215 -0.7520
41035SOL     OW27789  10.070   8.159   9.649  0.6215  0.1663  0.5091
41035SOL    HW127790  10.065   8.250   9.620 -1.9581  0.3372  1.3208
41035SOL    HW227791  10.036   8.108   9.575  1.2036 -0.0878  0.4069
41036SOL     OW27792   9.200   6.200   1.064  0.0284 -0.1429 -0.1531
41036SOL    HW127793   9.175   6.130   1.124 -3.1198  1.0938  0.1196
41036SOL    HW227794   9.121   6.251   1.052  1.2271  1.2064 -3.3353
41037SOL     OW27795  10.338   5.748  10.346  0.0934  0.3462 -0.1613
41037SOL    HW127796  10.408   5.753  10.411  1.7587 -1.0263 -1.6986
41037SOL    HW227797  10.263   5.790  10.387  1.4310  0.7017  2.0958
41038SOL     OW27798   6.584   9.361  10.813 -1.0704  0.4589  0.1960
41038SOL    HW127799   6.545   9.315  10.887 -0.8834 -0.3345 -0.1896
41038SOL    HW227800   6.543   9.322  10.736  0.7636 -0.7340 -0.2556
41039SOL     OW27801   9.157  11.450  11.392 -0.0922 -0.3429  0.7438
41039SOL    HW127802   9.108  11.385  11.442 -1.8499  2.6229  3.2375
41039SOL    HW227803   9.207  11.498  11.458  1.8593  0.3200 -1.0948
41040SOL     OW27804  10.641   0.455   1.535 -0.1139  0.1928 -0.5172
41040SOL    HW127805  10.706   0.445   1.466  0.3810  0.1346 -0.0452
41040SOL    HW227806  10.561   0.415   1.499 -0.2446  1.3676 -1.5689
41041SOL     OW27807   3.942   6.562  11.124  0.4788 -0.4639 -0.0918
41041SOL    HW127808   3.986   6.489  11.168  0.6082 -0.7467 -0.6893
41041SOL    HW227809   3.957   6.547  11.031 -2.0516 -1.3416 -0.4416
41042SOL     OW27810   5.387   5.535   8.714 -0.0382 -0.5302  0.1452
41042SOL    HW127811   5.446   5.580   8.653 -0.7962 -0.4257 -0.5256
41042SOL    HW227812   5.445   5.491   8.776  0.7279  0.7083  0.3302
41043SOL     OW27813   7.952   7.033   1.977 -0.3632  0.2079  0.7931
41043SOL    HW127814   7.903   7.108   1.942 -1.3515  0.3606  2.4145
41043SOL    HW227815   8.027   7.072   2.022 -0.8215  0.2333  1.5485
41044SOL     OW27816   7.280   1.875   1.041  0.3890  0.9798  0.2692
41044SOL    HW127817   7.290   1.843   0.951 -1.4869 -0.1199  0.4031
41044SOL    HW227818   7.342   1.824   1.092 -0.3619 -0.2744 -0.0299
41045SOL     OW27819  10.515   4.623   7.165 -0.3120  0.0489  0.5884
41045SOL    HW127820  10.497   4.641   7.073  0.9156  2.2465  0.7206
41045SOL    HW227821  10.592   4.566   7.164 -0.6868 -0.4604  0.2664
41046SOL     OW27822   7.108   9.027   7.390 -0.0544 -0.7260 -0.3802
41046SOL    HW127823   7.197   9.011   7.358 -0.1655 -1.2588 -0.4265
41046SOL    HW227824   7.069   9.085   7.324  0.6935  0.6579  0.3274
41047SOL     OW27825   2.200   4.454   6.311 -0.0855  0.0243  0.5955
41047SOL    HW127826   2.140   4.384   6.339 -0.8703  0.4338 -0.0227
41047SOL    HW227827   2.149   4.534   6.321  0.3192  0.3672 -0.0394
41048SOL     OW27828   5.396   9.747  10.530 -0.6369  0.6211 -0.1046
41048SOL    HW127829   5.336   9.700  10.589  0.8864 -0.0278  0.9928
41048SOL    HW227830   5.475   9.694  10.529 -0.9025  0.0465 -3.6126
41049SOL     OW27831   7.822  11.176   2.048 -0.2195 -0.5185  0.3173
41049SOL    HW127832   7.801  11.217   2.131 -0.6478  0.1540 -0.1119
41049SOL    HW227833   7.768  11.097   2.045  1.2320 -1.6137  1.5201
41050SOL     OW27834   6.421   6.955  11.231  0.0212  0.0789  0.2859
41050SOL    HW127835   6.508   6.996  11.231  0.2491 -0.3565 -1.2892
41050SOL    HW227836   6.437   6.865  11.260  0.2806 -0.3098 -1.0030
41051SOL     OW27837  11.325   8.419   7.966  0.6498 -0.1304  0.0675
41051SOL    HW127838  11.292   8.342   8.011 -0.6401  0.5103  0.2582
41051SOL    HW227839  11.280   8.493   8.008  2.3295  0.7987  0.3407
41052SOL     OW27840   0.899  11.697   9.040 -0.2169  0.3236  0.1281
41052SOL    HW127841   0.884  11.782   9.081 -0.1926  0.2449  0.2982
41052SOL    HW227842   0.811  11.660   9.029 -0.1948  0.1698  0.4769
41053SOL     OW27843   1.506   0.050   9.788 -0.2143  0.7721  0.3982
41053SOL    HW127844   1.495   0.086   9.700  1.3030  2.3567  0.8002
41053SOL    HW227845   1.431  -0.008   9.800 -0.1088 -0.0292 -2.1804
41054SOL     OW27846   3.604   6.588   1.142 -0.2373  0.4671  1.0595
41054SOL    HW127847   3.659   6.633   1.206  1.5160  0.6045 -0.4547
41054SOL    HW227848   3.633   6.622   1.057 -0.4284 -1.8213  0.0006
41055SOL     OW27849   7.033   3.533   8.681 -0.4851  0.6270  0.4086
41055SOL    HW127850   7.048   3.625   8.661 -0.2175  0.1664 -1.6747
41055SOL    HW227851   7.050   3.487   8.600  2.2866 -1.6433  2.0928
41056SOL     OW27852  10.071   8.777   8.412  0.0496 -0.1465 -0.4233
41056SOL    HW127853  10.035   8.749   8.496 -1.4033  0.0894 -0.9456
41056SOL    HW227854  10.124   8.703   8.383 -0.5379 -0.7684  0.0703
41057SOL     OW27855   1.188   3.327   6.946  0.0268 -0.5326 -0.0563
41057SOL    HW127856   1.168   3.357   7.035 -0.4207  1.2227 -0.7010
41057SOL    HW227857   1.280   3.301   6.950  0.7684  1.8916  0.3932
41058SOL     OW27858   0.691   3.519   5.246 -0.3674 -0.6347  0.2829
41058SOL    HW127859   0.600   3.503   5.275 -0.4025 -0.4586  0.2701
41058SOL    HW227860   0.700   3.614   5.249  0.3811 -0.7291  2.0319
41059SOL     OW27861  11.458   0.063  10.376  0.4855 -1.3357 -0.0973
41059SOL    HW127862  11.399   0.041  10.304  0.2304 -1.3688  0.1192
41059SOL    HW227863  11.416   0.025  10.454  0.5031 -0.8790  0.1415
41060SOL     OW27864   6.882   8.964  11.127 -0.0111  0.1186 -0.6039
41060SOL    HW127865   6.825   9.004  11.061  0.3640 -0.6788 -1.4281
41060SOL    HW227866   6.947   9.031  11.146  0.4688  0.0165 -1.7951
41061SOL     OW27867   7.129  10.090   0.002  0.0708  0.4273  0.1279
41061SOL    HW127868   7.075  10.011   0.002  0.3092  0.2562  0.5533
41061SOL    HW227869   7.087  10.147   0.067 -0.1640  0.6942 -0.2607
41062SOL     OW27870   4.158   7.410   8.097  0.4005 -0.1483 -0.1587
41062SOL    HW127871   4.103   7.384   8.023  1.0117 -0.5994 -0.4763
41062SOL    HW227872   4.115   7.487   8.134 -0.6072 -0.6823 -0.1916
41063SOL     OW27873   0.616   5.821   7.766  0.3802 -0.1102  0.3066
41063SOL    HW127874   0.531   5.825   7.723  2.0131 -0.9673 -3.4508
41063SOL    HW227875   0.623   5.731   7.798 -0.3604  0.1777  1.3288
41064SOL     OW27876   0.298   4.498   1.752  0.1179 -0.1472 -0.1396
41064SOL    HW127877   0.339   4.515   1.837 -1.2276  0.4230  0.4201
41064SOL    HW227878   0.307   4.580   1.704 -1.4182  0.4114  0.4593
41065SOL     OW27879   8.496  10.950  11.454  0.1068 -0.1645 -0.0697
41065SOL    HW127880   8.488  10.929  11.547 -0.8404 -2.9727 -0.7037
41065SOL    HW227881   8.410  10.930  11.417  1.2971 -2.1864 -2.0335
41066SOL     OW27882   0.245   0.756  11.225  0.4078  0.0571  0.0215
41066SOL    HW127883   0.272   0.840  11.190 -0.9956  0.5586  0.0725
41066SOL    HW227884   0.151   0.751  11.207  0.2899 -1.1055  0.7990
41067SOL     OW27885   8.997   8.459  10.751 -0.2761  0.4382 -0.0911
41067SOL    HW127886   9.032   8.533  10.703 -1.9538  1.2674 -0.0990
41067SOL    HW227887   9.057   8.447  10.824  0.9748  0.6753 -1.0514
41068SOL     OW27888   0.300   7.954   6.715  0.4209 -0.5042  0.0865
41068SOL    HW127889   0.226   8.015   6.717  0.2340 -0.7080 -0.2971
41068SOL    HW227890   0.377   8.009   6.707  0.2795 -0.3031  0.1044
41069SOL     OW27891   4.304   3.990  10.498  0.1549  0.2956 -0.4379
41069SOL    HW127892   4.395   3.961  10.490  0.3746  0.7743  0.2371
41069SOL    HW227893   4.272   3.948  10.578 -0.3683 -0.2365 -0.9153
41070SOL     OW27894   8.172   5.946   9.152  0.2960 -0.1957  0.6275
41070SOL    HW127895   8.180   6.041   9.142  0.1837 -0.2595 -0.1164
41070SOL    HW227896   8.081   5.932   9.177 -0.0236 -0.1918 -0.4873
41071SOL     OW27897   3.299   6.154   2.682  0.4300  0.5568  1.1050
41071SOL    HW127898   3.277   6.244   2.662 -0.3902  0.0970 -0.1375
41071SOL    HW227899   3.249   6.133   2.761  0.3553  1.0654  1.1933
41072SOL     OW27900   6.753   3.480   6.785  0.6681  0.0159 -0.3021
41072SOL    HW127901   6.706   3.562   6.798 -1.7011 -1.3597  0.5229
41072SOL    HW227902   6.715   3.443   6.705  1.3477 -0.5012 -0.3977
41073SOL     OW27903   7.397   0.495  10.442  0.4777 -0.8255  0.6423
41073SOL    HW127904   7.454   0.418  10.440 -2.1793 -2.9629  0.2123
41073SOL    HW227905   7.350   0.488  10.525  1.5349  1.5074  1.5207
41074SOL     OW27906  11.630  11.587   0.205 -0.0020  0.1608 -0.4150
41074SOL    HW127907  11.537  11.587   0.179 -0.4374 -0.6063  1.0183
41074SOL    HW227908  11.676  11.623   0.129 -1.6310  2.1939 -0.5390
41075SOL     OW27909   5.159   8.243   9.853  0.0046  0.0849  0.3454
41075SOL    HW127910   5.112   8.243   9.769  1.2806  0.0115 -0.3931
41075SOL    HW227911   5.137   8.159   9.893 -2.4770  1.0411  1.2073
41076SOL     OW27912   0.617   3.066   3.280 -0.1797  0.1481  0.2781
41076SOL    HW127913   0.698   3.017   3.289 -0.4367 -0.0049  2.1134
41076SOL    HW227914   0.590   3.051   3.189  2.7680  1.7602 -1.0024
41077SOL     OW27915  10.119   4.067   9.996 -0.0238  0.3240  0.3112
41077SOL    HW127916  10.198   4.111  10.029  2.4865 -2.3293 -1.5890
41077SOL    HW227917  10.117   3.984  10.043 -2.7495  0.9569  1.4827
41078SOL     OW27918   6.082   7.102   5.820  0.1527 -0.4284 -0.1278
41078SOL    HW127919   6.094   7.172   5.885 -3.4418 -0.2539  0.5777
41078SOL    HW227920   6.031   7.143   5.750  0.3065 -1.6928 -1.0077
41079SOL     OW27921   1.327   6.146   1.233  0.1249  0.2488  0.3336
41079SOL    HW127922   1.408   6.197   1.238  1.5776 -1.6760 -1.3795
41079SOL    HW227923   1.272   6.194   1.171  0.5518  0.8181  0.3875
41080SOL     OW27924   9.861   2.364   0.376  0.2832  0.6259 -0.4028
41080SOL    HW127925   9.828   2.336   0.462  0.9948  0.9559 -0.0175
41080SOL    HW227926   9.854   2.286   0.321  0.4162  0.2396  0.1262
41081SOL     OW27927  11.873   5.524   7.323 -0.2426 -0.2862  0.7921
41081SOL    HW127928  11.927   5.589   7.278 -2.0458  0.3661 -0.5651
41081SOL    HW227929  11.848   5.462   7.255 -2.8358  0.5724  0.8302
41082SOL     OW27930   7.256   1.478   2.299  0.0056  0.2189 -0.3651
41082SOL    HW127931   7.299   1.455   2.382 -0.5287  0.5475  0.0138
41082SOL    HW227932   7.323   1.525   2.250 -0.2782  1.8693  0.7480
41083SOL     OW27933  10.652   3.363   5.952  0.0954 -0.5626 -0.1529
41083SOL    HW127934  10.713   3.412   6.006  2.3290 -1.8523 -1.3406
41083SOL    HW227935  10.587   3.428   5.925  1.8659  1.3244 -0.1668
41084SOL     OW27936   0.891   9.216   9.280 -0.2076 -0.3108 -0.6163
41084SOL    HW127937   0.900   9.289   9.219 -1.6679  1.2464  0.9066
41084SOL    HW227938   0.956   9.234   9.349  1.3291 -1.9710 -1.5317
41085SOL     OW27939   3.568   5.480   6.614  0.5730  0.1364 -0.0496
41085SOL    HW127940   3.485   5.435   6.598  0.9397 -1.2397  1.5739
41085SOL    HW227941   3.568   5.496   6.709  1.9111  0.6069 -0.1175
41086SOL     OW27942   4.627   6.715   0.412  0.5861 -0.5987 -0.1538
41086SOL    HW127943   4.659   6.769   0.483 -4.5568  2.7801  0.1563
41086SOL    HW227944   4.624   6.773   0.336 -1.6660 -1.4812 -0.8409
41087SOL     OW27945   7.237   0.952   2.315 -1.2703  0.0527  0.0521
41087SOL    HW127946   7.206   1.035   2.277  0.9331  0.3258 -1.2810
41087SOL    HW227947   7.260   0.975   2.405 -1.9591  0.5363  0.1221
41088SOL     OW27948  11.038   6.986   0.850  0.5107  0.3388  0.0880
41088SOL    HW127949  11.070   7.035   0.925  1.3943  0.8573 -0.6048
41088SOL    HW227950  10.959   7.032   0.822 -0.1532 -0.1926  1.0257
41089SOL     OW27951   0.294  10.825   1.406  0.3485  0.1328  0.1092
41089SOL    HW127952   0.246  10.906   1.390 -0.6255 -0.8447 -2.4599
41089SOL    HW227953   0.337  10.806   1.323  0.1795 -2.2182  0.4910
41090SOL     OW27954   9.747   0.451  11.487  0.2400 -0.5154 -0.5220
41090SOL    HW127955   9.670   0.501  11.514 -0.0896 -1.2371 -0.1007
41090SOL    HW227956   9.813   0.470  11.553  1.0482  1.4988 -1.8110
41091SOL     OW27957   5.057   8.076   6.712  0.2724 -0.3634  0.1682
41091SOL    HW127958   5.010   8.033   6.783 -0.5542 -0.1087 -0.2169
41091SOL    HW227959   5.111   8.007   6.673 -0.4449 -0.8618  0.0535
41092SOL     OW27960   6.395  10.965   9.743 -0.0777 -0.0712  0.5646
41092SOL    HW127961   6.301  10.966   9.759 -0.2630  1.5586 -0.4105
41092SOL    HW227962   6.404  10.912   9.663  0.1553 -2.4302  2.0561
41093SOL     OW27963  10.420   5.592  11.667  0.0355  0.2909  0.0681
41093SOL    HW127964  10.362   5.641  11.726 -0.7853  1.9030 -1.9376
41093SOL    HW227965  10.360   5.548  11.607  0.8562  0.2563 -0.7425
41094SOL     OW27966  11.680  11.773  10.296 -0.9671 -0.3787 -0.1486
41094SOL    HW127967  11.598  11.799  10.340  0.1990  2.1856  0.7317
41094SOL    HW227968  11.713  11.700  10.347 -2.1148 -0.6683  0.2036
41095SOL     OW27969   6.557   9.621   5.858 -0.2727  0.0809  0.1187
41095SOL    HW127970   6.463   9.638   5.870  0.0829  0.4551  3.1856
41095SOL    HW227971   6.581   9.566   5.933  1.6276 -1.6131 -1.6121
41096SOL     OW27972   2.378   9.519   4.318 -0.3739 -0.0958  0.0010
41096SOL    HW127973   2.343   9.430   4.317  3.2840 -1.7160  1.5505
41096SOL    HW227974   2.346   9.556   4.401  0.2491 -0.9903  0.6602
41097SOL     OW27975   7.287   8.650   1.001 -0.3638 -0.3891  0.0464
41097SOL    HW127976   7.305   8.655   0.907 -2.6758 -0.7979 -0.4692
41097SOL    HW227977   7.288   8.741   1.030  4.6854 -0.3537  0.6682
41098SOL     OW27978   1.597  11.694   6.144  0.1489  0.1564  0.5547
41098SOL    HW127979   1.501  11.693   6.143  0.1116  1.0434  1.5284
41098SOL    HW227980   1.622  11.602   6.153 -0.4806 -0.5423 -3.2467
41099SOL     OW27981   9.193   0.101   8.258  0.2428 -0.4194 -0.3450
41099SOL    HW127982   9.264   0.131   8.315  1.7975  0.1728 -2.4381
41099SOL    HW227983   9.135   0.177   8.249  0.3860 -0.2841 -0.1364
41100SOL     OW27984   2.242   5.794   7.515 -0.1070  0.0480 -0.3221
41100SOL    HW127985   2.172   5.812   7.452 -0.1757  1.5201  0.1365
41100SOL    HW227986   2.198   5.753   7.589 -0.1503 -0.9089 -0.8506
41101SOL     OW27987   2.778   5.807   8.911 -0.2841  0.3234  0.0779
41101SOL    HW127988   2.820   5.721   8.911  1.2008  0.9969  1.2880
41101SOL    HW227989   2.705   5.799   8.972  1.9151  0.7657  2.9763
41102SOL     OW27990   2.745   5.145   3.177  0.1906 -0.6433 -0.7153
41102SOL    HW127991   2.719   5.054   3.163 -1.9768 -0.3282  0.7067
41102SOL    HW227992   2.759   5.179   3.088 -0.4389 -1.9652 -1.3668
41103SOL     OW27993   9.979   8.013   0.873  0.1007 -0.1471 -0.4138
41103SOL    HW127994   9.883   8.009   0.868  0.0833 -0.6793  0.2408
41103SOL    HW227995   9.997   8.045   0.962  0.5150  1.8873 -1.1641
41104SOL     OW27996   8.238   9.519   1.146  0.0619 -0.3654  0.1188
41104SOL    HW127997   8.164   9.463   1.124  0.7481 -1.8614  1.3910
41104SOL    HW227998   8.313   9.478   1.105  0.3609  0.5505 -0.2845
41105SOL     OW27999  10.997   1.611   6.150 -0.1672  0.5905  0.0130
41105SOL    HW128000  10.967   1.687   6.199 -0.8145  0.1906  0.2584
41105SOL    HW228001  11.036   1.553   6.216  1.2483  1.1277 -0.3095
41106SOL     OW28002   8.399   2.543  10.659  0.0339  0.0352 -0.3052
41106SOL    HW128003   8.371   2.505  10.576  1.6867 -0.3320 -0.7187
41106SOL    HW228004   8.365   2.483  10.725 -2.0374  0.7769 -0.6164
41107SOL     OW28005   3.063   0.684   3.420 -0.3119 -0.0758 -0.3328
41107SOL    HW128006   3.127   0.686   3.349 -1.0472 -1.5788 -1.1030
41107SOL    HW228007   3.009   0.762   3.407  0.2950  0.2847 -0.7143
41108SOL     OW28008   5.222   4.091   0.771  0.2584  0.2308 -0.6144
41108SOL    HW128009   5.260   4.011   0.736 -0.2052  0.9473 -2.9393
41108SOL    HW228010   5.177   4.064   0.850  0.1425 -1.8061 -1.3156
41109SOL     OW28011  11.065   7.933  10.018  0.2987  0.0556  0.3580
41109SOL    HW128012  11.066   8.013  10.071  0.3261 -0.6136  1.3885
41109SOL    HW228013  11.034   7.865  10.077  1.4480 -0.9418 -0.1527
41110SOL     OW28014  10.769  11.496   9.022 -0.0220 -0.1899  0.5890
41110SOL    HW128015  10.795  11.587   9.035  1.4000 -0.5157  0.1723
41110SOL    HW228016  10.791  11.453   9.104  0.4029 -0.3910  0.3719
41111SOL     OW28017  11.308   5.167   7.254  0.0730  0.0709  0.2428
41111SOL    HW128018  11.233   5.146   7.310  0.0656 -0.0542  0.1872
41111SOL    HW228019  11.272   5.171   7.166 -0.1368  1.4088  0.3668
41112SOL     OW28020   1.261   1.842   5.647 -0.4575 -0.3672 -0.0404
41112SOL    HW128021   1.198   1.870   5.581 -0.2888  0.0180 -0.0383
41112SOL    HW228022   1.212   1.781   5.703 -0.5451 -0.8677 -0.6437
41113SOL     OW28023   5.022   6.190   2.377 -0.7075  0.2877  0.1581
41113SOL    HW128024   5.004   6.133   2.302 -0.5948  0.3885  0.0537
41113SOL    HW228025   5.083   6.256   2.343  0.0500 -0.1825  0.5590
41114SOL     OW28026   0.361   9.911   7.174 -0.1789 -0.0413  0.0893
41114SOL    HW128027   0.341   9.850   7.245 -0.3864 -0.2625 -0.1565
41114SOL    HW228028   0.451   9.889   7.149 -1.1683 -2.2534 -1.9344
41115SOL     OW28029   8.765   7.567   1.617  0.0286 -0.2442  0.1883
41115SOL    HW128030   8.779   7.473   1.619  2.9485  0.0884  0.6296
41115SOL    HW228031   8.810   7.596   1.538 -0.5778  0.8287  0.2147
41116SOL     OW28032   8.788   4.796   3.850  0.1951  0.0367  0.4194
41116SOL    HW128033   8.724   4.726   3.860 -1.7033  1.5142 -0.7384
41116SOL    HW228034   8.736   4.876   3.848  1.9279  1.2220 -1.9202
41117SOL     OW28035  10.851  11.294   3.158  0.2234  0.3915  0.5838
41117SOL    HW128036  10.782  11.353   3.188 -1.1527 -0.7628 -0.2051
41117SOL    HW228037  10.858  11.229   3.228  0.6019  0.5608  0.7070
41118SOL     OW28038   1.234   2.687   0.911  0.0281 -0.3079 -0.0954
41118SOL    HW128039   1.304   2.710   0.972  0.1023 -0.0037 -0.2950
41118SOL    HW228040   1.196   2.607   0.948 -0.4942  0.3350  0.8078
41119SOL     OW28041   3.919   2.325   6.533 -0.5176 -0.5653  0.3823
41119SOL    HW128042   3.985   2.262   6.562  0.6027  0.6768  0.6281
41119SOL    HW228043   3.957   2.364   6.455 -0.7069  0.5605  0.8448
41120SOL     OW28044   0.125   8.402   1.205 -0.0781  0.3970  0.5835
41120SOL    HW128045   0.161   8.486   1.234 -0.6570  0.0718  2.3567
41120SOL    HW228046   0.165   8.337   1.263  0.3137 -0.5792 -0.7222
41121SOL     OW28047   3.078   0.048  11.735  0.3360 -0.1182  0.0201
41121SOL    HW128048   3.072   0.076  11.826 -1.1911 -1.5841  0.4020
41121SOL    HW228049   3.156  -0.008  11.732  1.0829  0.8800  0.1207
41122SOL     OW28050  11.677   6.741  11.936  0.4355  0.7872 -0.4900
41122SOL    HW128051  11.627   6.765  12.014  2.1318  2.0272  0.2605
41122SOL    HW228052  11.677   6.645  11.936 -0.8502  0.7716  0.1671
41123SOL     OW28053   5.639   7.362   1.565  0.0562 -0.2199 -0.3262
41123SOL    HW128054   5.583   7.323   1.497 -1.1451  0.9195 -0.0309
41123SOL    HW228055   5.713   7.399   1.517 -0.7865  0.5795 -1.0378
41124SOL     OW28056  11.236   1.998   1.383  0.0327 -0.0264  0.0382
41124SOL    HW128057  11.187   2.074   1.416 -0.8933 -1.0074  0.9884
41124SOL    HW228058  11.265   1.952   1.462  3.4037  1.0099 -0.4371
41125SOL     OW28059   9.949   4.939   5.597 -0.0609  0.4283  0.3468
41125SOL    HW128060  10.008   4.911   5.667  0.0663  0.4278  0.2399
41125SOL    HW228061   9.984   5.023   5.569  0.5144 -0.0527 -0.4352
41126SOL     OW28062   7.536   5.835   9.823  0.5149 -0.2601  0.1276
41126SOL    HW128063   7.622   5.837   9.866 -0.1857  1.0397  1.5847
41126SOL    HW228064   7.484   5.774   9.876 -0.0602  0.5775  0.5548
41127SOL     OW28065   8.926   0.279  10.347 -0.0213  0.0283 -0.0362
41127SOL    HW128066   8.875   0.209  10.388  1.7686 -1.8922 -0.9232
41127SOL    HW228067   8.894   0.282  10.257 -0.1956  0.4642  0.0390
41128SOL     OW28068   7.555  10.313   0.601  0.5201 -0.2661 -0.3374
41128SOL    HW128069   7.483  10.363   0.562  0.5141 -1.3866 -1.8357
41128SOL    HW228070   7.608  10.284   0.527  0.6408 -2.2874  0.4649
41129SOL     OW28071   4.335   0.243   2.166  0.4077 -0.3745  0.1507
41129SOL    HW128072   4.331   0.213   2.075 -1.5801  0.0890  0.0480
41129SOL    HW228073   4.266   0.194   2.211  0.0639  0.8060  0.9600
41130SOL     OW28074   6.916   1.383   3.814  0.1214 -0.2340  0.3571
41130SOL    HW128075   6.918   1.289   3.796 -0.1147  0.0208 -1.1966
41130SOL    HW228076   6.937   1.390   3.907 -0.1396 -1.8356  0.5784
41131SOL     OW28077   0.096   8.393   5.974 -0.1546  0.1003 -0.4379
41131SOL    HW128078   0.066   8.479   5.944 -1.3439 -0.0084  0.3761
41131SOL    HW228079   0.191   8.396   5.964 -0.3953  0.1413 -4.0083
41132SOL     OW28080   5.197  10.430  10.355  0.1159  0.1559  0.0353
41132SOL    HW128081   5.200  10.503  10.417  2.0829  0.0324  0.1467
41132SOL    HW228082   5.192  10.471  10.269 -1.0182  0.3580  0.1866
41133SOL     OW28083   9.495   4.388   0.242 -0.6195  0.4402 -0.6923
41133SOL    HW128084   9.533   4.471   0.213 -1.1421  1.5615  1.5573
41133SOL    HW228085   9.456   4.409   0.327 -3.3884 -1.4233 -1.3922
41134SOL     OW28086   8.764   6.303   8.653  0.3627  0.0104  0.0588
41134SOL    HW128087   8.849   6.297   8.696 -0.1626  0.3719  1.2133
41134SOL    HW228088   8.710   6.354   8.714 -0.6328 -0.0665 -0.7191
41135SOL     OW28089   1.007   3.987   8.477  0.2000 -0.3605 -0.5359
41135SOL    HW128090   0.956   3.923   8.427  0.0649 -0.1219 -0.7028
41135SOL    HW228091   1.077   3.935   8.517 -0.5343 -0.8068  0.2047
41136SOL     OW28092   2.693   3.344   3.160 -0.2939  0.3522 -0.4579
41136SOL    HW128093   2.603   3.367   3.182 -0.5302  0.2863 -1.3266
41136SOL    HW228094   2.704   3.373   3.070  0.0723 -1.0129 -0.8689
41137SOL     OW28095   5.568   5.943   3.860 -0.0478  0.8041 -0.3150
41137SOL    HW128096   5.509   5.878   3.823  1.0491  0.7141 -1.9937
41137SOL    HW228097   5.649   5.895   3.875  0.8205  1.7745 -1.7097
41138SOL     OW28098   1.041   1.624   1.440  0.4832  0.4019  0.1137
41138SOL    HW128099   0.958   1.621   1.486 -0.9839  1.8949 -2.2193
41138SOL    HW228100   1.049   1.715   1.411  3.0311  0.3308  0.3773
41139SOL     OW28101   8.488  10.802   5.217  0.5837 -0.5804  0.1923
41139SOL    HW128102   8.436  10.750   5.278 -0.1796 -0.9586 -0.7503
41139SOL    HW228103   8.478  10.757   5.133  1.8990 -0.2766 -0.1533
41140SOL     OW28104  10.055   4.687   5.345  0.3685 -0.4083 -0.2685
41140SOL    HW128105  10.018   4.635   5.415 -1.5518  1.9441  0.6122
41140SOL    HW228106   9.981   4.739   5.312  1.8505  0.7519 -1.9722
41141SOL     OW28107   1.644   0.977   5.426 -0.0412  0.0595 -0.0338
41141SOL    HW128108   1.710   0.989   5.358 -1.0343 -0.7577 -1.1893
41141SOL    HW228109   1.693   0.978   5.508  1.2884  0.2420 -0.8007
41142SOL     OW28110   3.275   3.404  10.132  0.2757  0.3522  0.4497
41142SOL    HW128111   3.329   3.482  10.149 -2.1159  2.4492 -0.9163
41142SOL    HW228112   3.238   3.382  10.218  0.3748  1.2069  0.7211
41143SOL     OW28113   2.656   1.818   1.810 -0.4717 -1.0009 -0.3194
41143SOL    HW128114   2.732   1.793   1.757  1.0242  2.7768 -0.2497
41143SOL    HW228115   2.592   1.850   1.747  0.5896  1.7469 -0.1392
41144SOL     OW28116  10.704   4.106   9.704  0.4257 -0.1992 -0.2556
41144SOL    HW128117  10.782   4.057   9.732  1.6590  1.1388 -1.1904
41144SOL    HW228118  10.739   4.186   9.664 -1.4717  0.8913  0.1334
41145SOL     OW28119   0.477   6.905   1.253 -0.3501 -0.0644  0.2669
41145SOL    HW128120   0.493   6.894   1.159  1.3169 -1.1723  0.6532
41145SOL    HW228121   0.389   6.869   1.266 -0.1408 -0.9849 -0.6939
41146SOL     OW28122   2.556  11.663   5.525 -0.0132  0.7097 -0.4037
41146SOL    HW128123   2.630  11.606   5.504 -0.9427 -1.1305  1.1076
41146SOL    HW228124   2.596  11.747   5.547  1.7133 -0.4206  1.0255
41147SOL     OW28125   8.610   0.132   7.544  0.4649 -0.0403  0.7120
41147SOL    HW128126   8.700   0.157   7.522  0.4220 -0.4515  0.0387
41147SOL    HW228127   8.570   0.212   7.577  1.5860 -0.2546  2.7628
41148SOL     OW28128   1.809   1.071  10.640  0.4218  0.3027  0.1091
41148SOL    HW128129   1.780   1.008  10.706 -0.3756 -0.5307 -1.0124
41148SOL    HW228130   1.730   1.095  10.592  0.5450  2.7589  0.9556
41149SOL     OW28131  10.676   2.046   4.226  0.5431  0.0516 -0.1449
41149SOL    HW128132  10.673   2.041   4.321  3.5579 -0.2863  0.0457
41149SOL    HW228133  10.625   1.971   4.196  0.1963 -0.2784  1.2164
41150SOL     OW28134   7.450   7.883   2.671  0.1561  0.2523 -0.0617
41150SOL    HW128135   7.499   7.880   2.589  0.7340  1.3837  0.2235
41150SOL    HW228136   7.393   7.960   2.661 -0.6975 -0.3510  0.0915
41151SOL     OW28137  10.415   5.482   4.751 -0.0320  0.0873 -0.3494
41151SOL    HW128138  10.409   5.482   4.847  0.5135 -0.9607 -0.2974
41151SOL    HW228139  10.344   5.423   4.723 -0.7736  1.1064 -0.6472
41152SOL     OW28140   5.234   6.418   4.693 -0.0144  0.1366  0.2130
41152SOL    HW128141   5.239   6.512   4.677  1.9181  0.0837  0.2128
41152SOL    HW228142   5.288   6.379   4.625  0.0344 -0.8913  0.8117
41153SOL     OW28143   2.874  10.119   5.180  0.6418  0.2342 -0.0076
41153SOL    HW128144   2.874  10.213   5.196  0.7751  0.1889  0.2575
41153SOL    HW228145   2.874  10.111   5.084  0.4916  0.5030 -0.0302
41154SOL     OW28146   9.768   2.336   1.579 -0.2081 -0.0797  0.5441
41154SOL    HW128147   9.760   2.334   1.675 -0.3135 -0.7996  0.5277
41154SOL    HW228148   9.719   2.414   1.553 -1.0797 -0.4458  1.0051
41155SOL     OW28149   2.248   0.058  10.324  0.1947  0.1944 -0.3146
41155SOL    HW128150   2.303   0.135  10.313 -0.8971  0.9690 -0.5897
41155SOL    HW228151   2.217   0.065  10.415  0.9916 -0.5500  0.0219
41156SOL     OW28152  11.946   7.610   9.314  0.4320  0.7386  0.1201
41156SOL    HW128153  12.004   7.686   9.316  0.0397  1.0501  2.4417
41156SOL    HW228154  11.899   7.618   9.230  0.6326  2.8782  0.1536
41157SOL     OW28155   9.868   6.659   6.379  0.3250  0.0989 -0.1446
41157SOL    HW128156   9.908   6.577   6.407 -0.0104  0.6518  2.1881
41157SOL    HW228157   9.788   6.633   6.332  0.1342 -0.9127  0.7177
41158SOL     OW28158  11.773   2.517  10.094  0.2146  0.3261 -0.5568
41158SOL    HW128159  11.828   2.457  10.144 -0.2602  1.9146  2.0352
41158SOL    HW228160  11.797   2.501  10.003  2.3794 -1.4986  0.2422
41159SOL     OW28161   0.947   2.073   3.146 -0.4695  0.3959 -0.0407
41159SOL    HW128162   0.857   2.053   3.118 -0.6664  2.3878 -1.0272
41159SOL    HW228163   0.936   2.132   3.221  0.0186  0.2206  0.1673
41160SOL     OW28164   1.043   6.221   4.876  0.1960 -0.0437 -0.3273
41160SOL    HW128165   0.961   6.184   4.909  0.0487  0.4467 -0.1272
41160SOL    HW228166   1.026   6.315   4.872  1.8336  0.5336  2.9929
41161SOL     OW28167   6.737   0.046   3.609  0.1198  0.2665  0.3200
41161SOL    HW128168   6.755  -0.048   3.602 -0.8515  0.0512  0.4922
41161SOL    HW228169   6.643   0.053   3.591  0.1561  1.1897  0.4630
41162SOL     OW28170   5.472   3.690   7.302  0.1334 -0.0513 -0.0156
41162SOL    HW128171   5.396   3.748   7.304  1.5913  1.9925 -0.2826
41162SOL    HW228172   5.512   3.700   7.388 -0.5632 -2.1391  0.6040
41163SOL     OW28173   0.397   6.153   2.529 -0.7162 -0.6228  0.4473
41163SOL    HW128174   0.304   6.134   2.514 -0.7032  0.1033 -0.6222
41163SOL    HW228175   0.431   6.073   2.570 -1.7734 -0.9630  0.6848
41164SOL     OW28176   8.377   5.534   5.646 -0.3441 -0.6264 -0.5979
41164SOL    HW128177   8.429   5.454   5.644  0.6772 -0.0345  0.5645
41164SOL    HW228178   8.442   5.605   5.643 -1.1094  0.1368  0.2997
41165SOL     OW28179   2.499   4.554  11.733 -0.1479  0.3547 -0.0617
41165SOL    HW128180   2.522   4.640  11.768 -3.9140  1.3219  0.4559
41165SOL    HW228181   2.468   4.571  11.644  0.6994 -0.7600 -0.5988
41166SOL     OW28182   7.734   8.132   5.596  0.2911  0.6628  1.1480
41166SOL    HW128183   7.758   8.040   5.590  1.4936  1.0537 -1.1640
41166SOL    HW228184   7.639   8.132   5.597  0.2672 -0.5966  0.6717
41167SOL     OW28185   7.548   2.072   3.315 -0.1240 -0.2373  0.6371
41167SOL    HW128186   7.460   2.107   3.303  0.2078  0.9290  1.3980
41167SOL    HW228187   7.606   2.140   3.280  0.4927 -0.7810  0.5715
41168SOL     OW28188   3.611   1.368   8.122 -0.8014  0.0594  0.6662
41168SOL    HW128189   3.535   1.390   8.068 -1.2003 -1.2195  0.6627
41168SOL    HW228190   3.574   1.319   8.196 -0.0854  0.3196  1.2091
41169SOL     OW28191   0.780   5.029   0.028  0.1844  0.0422 -0.3380
41169SOL    HW128192   0.838   5.025  -0.048 -1.1627  0.2434 -1.4274
41169SOL    HW228193   0.815   5.100   0.082 -0.2004  1.5860 -2.0063
41170SOL     OW28194   7.719   7.118   9.831 -0.2702 -0.0332 -0.3722
41170SOL    HW128195   7.715   7.022   9.831  1.5468 -0.1999  2.0939
41170SOL    HW228196   7.811   7.137   9.811 -0.5527  1.1871 -0.5370
41171SOL     OW28197   0.431   0.578  11.675  0.3425 -0.3651  0.0957
41171SOL    HW128198   0.469   0.511  11.619  0.4660 -0.2610  0.0548
41171SOL    HW228199   0.485   0.576  11.755 -0.4066 -1.1591  0.5962
41172SOL     OW28200   0.947   5.370   1.904 -0.3280 -0.1850 -0.8459
41172SOL    HW128201   0.857   5.354   1.876 -0.9199 -4.1837  2.3749
41172SOL    HW228202   1.001   5.321   1.842 -0.9321 -2.1097  0.0606
41173SOL     OW28203   7.421   5.684   5.309  0.0980  0.6642 -0.0777
41173SOL    HW128204   7.379   5.642   5.234  0.1920  1.4281 -0.5771
41173SOL    HW228205   7.421   5.777   5.286 -0.4499  0.9906  1.1569
41174SOL     OW28206   3.178   7.739   2.253  0.9859  0.0613 -0.1614
41174SOL    HW128207   3.156   7.777   2.338  1.6158  0.7467 -0.2950
41174SOL    HW228208   3.183   7.645   2.270 -0.9645 -0.0376  0.0824
41175SOL     OW28209   8.746  10.129   4.166  0.1952 -0.2853 -0.4422
41175SOL    HW128210   8.832  10.171   4.159  0.0832 -0.0188 -0.2279
41175SOL    HW228211   8.759  10.059   4.229  0.5870 -1.1013 -1.4044
41176SOL     OW28212   1.638   9.527   6.982  0.4874 -0.4628 -0.1441
41176SOL    HW128213   1.563   9.555   7.035  1.0934  0.4342  0.2625
41176SOL    HW228214   1.602   9.459   6.924 -0.8322  0.5446 -0.5660
41177SOL     OW28215   4.086   4.095   6.182  0.5486 -0.0462  0.0473
41177SOL    HW128216   4.170   4.090   6.228  0.6819 -0.2053 -0.2123
41177SOL    HW228217   4.102   4.154   6.109 -0.0892  1.5034  1.1081
41178SOL     OW28218  11.162   9.087   9.468  0.0071  0.5237 -0.2746
41178SOL    HW128219  11.202   9.034   9.537  0.6335  0.8694 -0.3672
41178SOL    HW228220  11.113   9.154   9.514 -0.3053  0.2265 -0.1642
41179SOL     OW28221  10.553   7.132   1.743  0.3761 -0.0796 -0.5791
41179SOL    HW128222  10.585   7.042   1.753  0.0851 -0.2343 -1.0149
41179SOL    HW228223  10.623   7.186   1.778 -0.2004 -0.5430  1.4523
41180SOL     OW28224   9.008   1.249   6.348  0.1406 -0.4213 -0.3908
41180SOL    HW128225   9.026   1.175   6.290  0.5440 -1.0628  0.5159
41180SOL    HW228226   8.988   1.322   6.289 -1.7821 -1.6005 -1.3047
41181SOL     OW28227  11.794   9.265   7.416 -0.0057  0.0007  0.0487
41181SOL    HW128228  11.791   9.342   7.360  0.4853  0.3589  0.5125
41181SOL    HW228229  11.840   9.199   7.364 -3.3744 -1.1864 -1.7786
41182SOL     OW28230   8.851   3.131   5.886  0.2183 -0.3026 -0.1822
41182SOL    HW128231   8.817   3.212   5.848  1.0665 -0.3691 -1.1152
41182SOL    HW228232   8.796   3.062   5.851 -0.3812 -0.1716  0.4600
41183SOL     OW28233  10.102   4.695  10.865 -0.2093 -0.4714 -0.4216
41183SOL    HW128234  10.142   4.644  10.795  0.1797 -0.8705  0.0849
41183SOL    HW228235  10.019   4.651  10.884  0.2277 -1.0586  0.1671
41184SOL     OW28236   7.148   8.642  11.306  0.0854 -0.1195  0.1316
41184SOL    HW128237   7.055   8.659  11.294  0.2866  0.6653 -0.4909
41184SOL    HW228238   7.153   8.553  11.341 -0.8178 -0.8995 -1.5996
41185SOL     OW28239   4.716   6.390  11.510 -0.2896  0.4802  0.2790
41185SOL    HW128240   4.628   6.418  11.535 -1.0995 -1.6822  0.0093
41185SOL    HW228241   4.707   6.359  11.420  0.8133  0.4320  0.1707
41186SOL     OW28242   4.127   8.749   5.689 -0.4684  0.3993 -0.6736
41186SOL    HW128243   4.102   8.657   5.688 -0.1492  0.2431  1.0629
41186SOL    HW228244   4.193   8.754   5.759  2.8402  1.1572 -3.5512
41187SOL     OW28245   6.627   4.085   2.598 -0.0694 -0.1598  0.2200
41187SOL    HW128246   6.646   4.139   2.522 -2.2684 -0.1639 -0.4035
41187SOL    HW228247   6.706   4.033   2.611  1.0962  1.2628 -0.8061
41188SOL     OW28248   2.679   3.687   1.679  0.0489  0.0926  0.4811
41188SOL    HW128249   2.632   3.725   1.753 -0.9292  0.9428 -0.5335
41188SOL    HW228250   2.746   3.752   1.657 -2.1284  1.7845 -1.7564
41189SOL     OW28251   4.225   3.800   7.743 -0.2536 -0.0269 -0.1702
41189SOL    HW128252   4.289   3.734   7.771  1.1049  1.5073  0.5819
41189SOL    HW228253   4.253   3.825   7.655  0.1913  0.6211  0.1460
41190SOL     OW28254  10.252   8.644   3.040  0.7247 -1.0005 -0.1514
41190SOL    HW128255  10.262   8.727   2.993 -0.4061 -2.0889 -2.4600
41190SOL    HW228256  10.339   8.604   3.036  1.3637  0.1307  1.2514
41191SOL     OW28257   0.493   0.779   7.285  0.4329  0.2534 -0.1004
41191SOL    HW128258   0.486   0.728   7.204 -1.3222  0.6122 -0.2180
41191SOL    HW228259   0.464   0.718   7.354  1.0131  0.2407  0.1373
41192SOL     OW28260   0.748   7.367   2.278  0.2720 -0.2053  0.3184
41192SOL    HW128261   0.705   7.367   2.364  0.7560 -1.0397  0.5636
41192SOL    HW228262   0.841   7.375   2.298  0.4754 -1.4757 -0.0768
41193SOL     OW28263   2.830   9.888   7.184  0.5297  0.2201  0.3997
41193SOL    HW128264   2.864   9.804   7.216  2.6518  1.0230  0.4518
41193SOL    HW228265   2.769   9.864   7.115 -0.5936 -1.4083  1.8646
41194SOL     OW28266   9.572   5.435   8.110 -0.4362  0.1952  0.2742
41194SOL    HW128267   9.492   5.462   8.065 -0.4311  1.1792  0.8285
41194SOL    HW228268   9.542   5.379   8.182 -0.5221 -0.4646 -0.2621
41195SOL     OW28269   3.811  11.088   3.060 -0.2103 -0.1919 -0.0620
41195SOL    HW128270   3.832  11.125   2.975  0.4726 -0.8567 -0.1996
41195SOL    HW228271   3.842  11.154   3.123  0.7107 -0.3743 -0.3068
41196SOL     OW28272   8.451   0.835   9.035  0.2674 -0.3060 -0.2600
41196SOL    HW128273   8.481   0.757   8.988 -0.2082 -0.5791 -0.1207
41196SOL    HW228274   8.454   0.810   9.127  1.4796  0.3276 -0.1039
41197SOL     OW28275   2.966   9.839   8.836 -1.0344  0.0555 -0.2496
41197SOL    HW128276   2.901   9.895   8.792 -1.0184  0.2359 -0.0473
41197SOL    HW228277   2.998   9.781   8.767 -1.0596  0.2924 -0.4642
41198SOL     OW28278  10.862   8.363   9.942 -0.1122  0.1201 -0.2866
41198SOL    HW128279  10.944   8.315   9.930  0.0273 -0.3072  1.8947
41198SOL    HW228280  10.889   8.452   9.965 -0.2193 -0.1163  0.8117
41199SOL     OW28281   0.755  10.031   7.875 -0.0803 -0.0904  0.2500
41199SOL    HW128282   0.667  10.015   7.839  0.3155 -0.1355 -0.7398
41199SOL    HW228283   0.777   9.949   7.919  0.0824 -0.6648 -0.8545
41200SOL     OW28284   7.304   3.768   6.038  0.4440  0.0900  0.3279
41200SOL    HW128285   7.243   3.728   5.976  1.8166 -1.8863  0.1818
41200SOL    HW228286   7.262   3.760   6.123  1.1916 -2.9410  0.5017
41201SOL     OW28287   6.167   1.577   8.446  0.3383 -0.0416 -0.0977
41201SOL    HW128288   6.116   1.537   8.375  0.9442  0.0283 -0.5857
41201SOL    HW228289   6.124   1.547   8.526 -1.2968  1.1067 -0.4936
41202SOL     OW28290   6.637   9.792   1.715 -0.1530  0.1219  0.1324
41202SOL    HW128291   6.669   9.811   1.627  1.3874  0.9913  0.8183
41202SOL    HW228292   6.689   9.717   1.744  0.1995  0.5745  0.7042
41203SOL     OW28293   5.043   5.239  11.847 -0.5352 -0.2410 -0.4077
41203SOL    HW128294   5.066   5.277  11.763  0.4757 -1.2934 -0.6300
41203SOL    HW228295   4.973   5.295  11.880  1.1137  2.0611 -0.5341
41204SOL     OW28296   8.312   1.459   9.829  0.5092 -0.1671 -0.1145
41204SOL    HW128297   8.317   1.553   9.809 -0.7505 -0.0289  0.1446
41204SOL    HW228298   8.231   1.449   9.879  1.4780 -1.1472  1.3253
41205SOL     OW28299  11.272   4.330   6.984  0.5515  0.4424  0.1428
41205SOL    HW128300  11.274   4.422   7.010  2.6865  0.3000  0.6888
41205SOL    HW228301  11.254   4.282   7.065 -0.3075  0.3486 -0.0938
41206SOL     OW28302   0.486   4.848   3.336  0.1842 -0.4258 -0.4796
41206SOL    HW128303   0.420   4.866   3.402  0.0472 -0.8614 -0.4969
41206SOL    HW228304   0.443   4.870   3.253  0.5163  0.5843 -0.4000
41207SOL     OW28305   4.037   8.852   3.244  0.2514 -0.1780 -0.3214
41207SOL    HW128306   4.017   8.894   3.327 -0.2908 -0.9125 -0.0772
41207SOL    HW228307   4.019   8.759   3.258 -2.8155  0.0129 -2.1054
41208SOL     OW28308   4.293  10.565   4.099  0.0783 -0.1302 -0.2549
41208SOL    HW128309   4.363  10.512   4.137 -0.7552 -0.1485  1.3191
41208SOL    HW228310   4.213  10.534   4.141 -0.5069  2.0001  0.3425
41209SOL     OW28311   1.151   5.359   8.671 -0.4497 -0.1851  0.2033
41209SOL    HW128312   1.236   5.399   8.653 -1.1346  1.6519  0.8679
41209SOL    HW228313   1.145   5.356   8.767 -0.8404 -0.9487  0.1598
41210SOL     OW28314   5.628   6.141   6.901  0.1887 -0.2261 -0.3801
41210SOL    HW128315   5.611   6.184   6.817  2.0589 -1.4172 -1.4260
41210SOL    HW228316   5.597   6.051   6.889 -2.0557  0.2297  1.1994
41211SOL     OW28317   5.191   6.821   5.889 -0.1121  0.0418  0.1661
41211SOL    HW128318   5.207   6.726   5.895  1.0236  0.0354 -1.9787
41211SOL    HW228319   5.226   6.856   5.971  0.8132 -1.2624  0.3640
41212SOL     OW28320   2.554   1.079   3.754  0.3582 -0.0143 -0.1722
41212SOL    HW128321   2.602   1.015   3.807  0.6214 -0.0384 -0.4393
41212SOL    HW228322   2.608   1.158   3.756 -0.3460  0.4611  0.8062
41213SOL     OW28323   7.444   4.887   1.589  0.2511 -0.1438 -0.5594
41213SOL    HW128324   7.470   4.927   1.672 -1.7138  1.6620 -0.7236
41213SOL    HW228325   7.513   4.911   1.527  1.7825 -1.5893  0.5066
41214SOL     OW28326   6.440   3.213  10.875 -0.2108  0.1441  0.4586
41214SOL    HW128327   6.397   3.296  10.897  0.4956  0.4728  0.6154
41214SOL    HW228328   6.498   3.234  10.803 -2.2880 -0.8768 -1.6448
41215SOL     OW28329   0.648   6.823   0.653  0.1434 -0.2129 -0.2023
41215SOL    HW128330   0.660   6.871   0.571  0.0074  2.1192  1.0662
41215SOL    HW228331   0.737   6.810   0.685  0.1235  1.5087  0.6642
41216SOL     OW28332  11.229   5.754   3.647  0.1071  0.2150 -0.7852
41216SOL    HW128333  11.150   5.795   3.611 -0.9678 -0.0120  1.1383
41216SOL    HW228334  11.226   5.664   3.616 -0.9602 -0.0584  0.0463
41217SOL     OW28335   8.054   5.191   5.622  0.4736  0.1606 -0.8598
41217SOL    HW128336   7.963   5.174   5.597  0.3916 -0.3087 -0.2546
41217SOL    HW228337   8.080   5.264   5.566 -0.4639  0.6987 -0.6171
41218SOL     OW28338   4.966   0.382   2.339 -0.3942 -0.1819  0.3355
41218SOL    HW128339   4.887   0.396   2.391  0.0058 -0.8753  1.1443
41218SOL    HW228340   5.013   0.313   2.385  0.4198 -0.1565 -0.4429
41219SOL     OW28341   2.185   0.927  10.641 -0.6131  0.5276  0.5226
41219SOL    HW128342   2.253   0.908  10.707 -0.3326  1.5788  0.5465
41219SOL    HW228343   2.135   0.999  10.679 -1.0450  0.5026 -0.0013
41220SOL     OW28344   4.316   6.793   5.518 -0.1483 -0.3114  0.2317
41220SOL    HW128345   4.319   6.698   5.504  0.3225 -0.3228  0.3939
41220SOL    HW228346   4.378   6.809   5.589  1.1094  0.3130 -0.9460
41221SOL     OW28347   9.705   0.004   3.747  0.0031  0.0149 -0.3353
41221SOL    HW128348   9.637   0.031   3.809  0.3174 -0.9397  0.4732
41221SOL    HW228349   9.663  -0.063   3.693 -0.2270  0.7432 -1.0792
41222SOL     OW28350   6.077   1.313   8.965  1.0121 -0.2797 -0.7369
41222SOL    HW128351   5.990   1.307   9.005  1.9529  0.1278  1.5400
41222SOL    HW228352   6.109   1.222   8.965  1.1722 -0.2347 -0.0756
41223SOL     OW28353  11.619  11.799  10.996  0.2638  0.0480 -0.1888
41223SOL    HW128354  11.675  11.822  10.922 -1.8946 -0.1888 -1.9777
41223SOL    HW228355  11.626  11.874  11.055  0.8851  0.9299 -1.3286
41224SOL     OW28356   5.039   3.077   0.266  0.2983 -0.4916  0.2548
41224SOL    HW128357   5.077   2.990   0.253  0.6615 -0.1692 -0.9630
41224SOL    HW228358   5.067   3.127   0.190  1.3519  1.1461  1.6523
41225SOL     OW28359  11.912   4.458   8.102 -0.1377  0.6419 -0.3536
41225SOL    HW128360  11.859   4.446   8.024  0.8822  1.4362 -1.1918
41225SOL    HW228361  12.001   4.473   8.070  0.7089 -1.0523  1.0228
41226SOL     OW28362   6.133   8.681  10.766  0.2800  0.3660 -0.1008
41226SOL    HW128363   6.043   8.657  10.790  0.9227 -0.7312  1.3649
41226SOL    HW228364   6.156   8.617  10.698 -0.4347  1.4298 -1.3899
41227SOL     OW28365  10.048   3.269   9.265  0.1323  0.1744  0.5518
41227SOL    HW128366  10.102   3.262   9.186 -0.7172  0.0487 -0.0273
41227SOL    HW228367  10.082   3.347   9.310  0.0356  0.7697 -0.3899
41228SOL     OW28368   0.206   5.129  11.576 -0.2453  0.3575 -0.2196
41228SOL    HW128369   0.169   5.128  11.665 -1.5487  1.3513 -0.7039
41228SOL    HW228370   0.140   5.086  11.522  0.8721 -0.9188 -0.6275
41229SOL     OW28371   6.816   7.245  11.789 -0.2686 -0.1888 -0.3316
41229SOL    HW128372   6.799   7.330  11.830 -0.7466 -0.8163  0.8203
41229SOL    HW228373   6.904   7.222  11.817 -1.2992 -1.5360  2.1298
41230SOL     OW28374   7.878   0.930   4.654 -0.0204  0.3899 -0.7401
41230SOL    HW128375   7.849   1.020   4.664 -1.2994 -0.1337  0.4932
41230SOL    HW228376   7.949   0.920   4.718 -0.2334  0.3713 -0.5076
41231SOL     OW28377   5.328   0.826   4.955 -0.0859  0.2294 -0.0499
41231SOL    HW128378   5.287   0.868   5.030 -1.3122  0.7843 -1.0013
41231SOL    HW228379   5.412   0.871   4.945  0.4546 -0.3822  1.4374
41232SOL     OW28380   7.142   4.386  11.924 -0.0659 -0.0806  0.3722
41232SOL    HW128381   7.173   4.328  11.854  0.1855  2.8987 -2.2188
41232SOL    HW228382   7.220   4.403  11.977  0.3185 -0.4901 -0.0477
41233SOL     OW28383  10.808   7.133   4.094  0.5383 -0.0530 -0.4706
41233SOL    HW128384  10.834   7.067   4.029  1.0414 -0.0002 -0.3287
41233SOL    HW228385  10.868   7.120   4.167  1.6304  1.5027 -1.0283
41234SOL     OW28386   8.998   9.303   2.632  0.0216  0.3710  0.4348
41234SOL    HW128387   8.995   9.348   2.548 -1.1315 -0.0737  0.2165
41234SOL    HW228388   8.923   9.338   2.681  0.3432  0.2073  1.0604
41235SOL     OW28389   4.238   1.718   7.083 -0.1911 -0.1383  0.2711
41235SOL    HW128390   4.218   1.765   7.002  0.0016  0.3059  0.4781
41235SOL    HW228391   4.261   1.629   7.054 -0.0124  0.0469 -0.1718
41236SOL     OW28392   6.774   4.308   0.138 -0.3031  0.2081  0.4436
41236SOL    HW128393   6.846   4.254   0.107 -1.0173  0.3412 -1.6326
41236SOL    HW228394   6.702   4.247   0.154 -0.0326  0.1766  1.6155
41237SOL     OW28395   7.082  10.007  11.144 -0.2432 -0.6147 -0.2211
41237SOL    HW128396   7.028   9.994  11.222  0.5075  0.4047  0.5065
41237SOL    HW228397   7.161   9.955  11.161  0.2381  0.1772  0.0580
41238SOL     OW28398   8.774   8.741   4.637  0.0205 -0.0338 -0.3504
41238SOL    HW128399   8.731   8.717   4.555  2.0692 -0.0403 -1.5093
41238SOL    HW228400   8.796   8.657   4.678  0.0476 -0.0497 -0.3970
41239SOL     OW28401   2.409   7.830   5.921 -0.1012  0.3607 -0.0001
41239SOL    HW128402   2.315   7.828   5.907 -0.1755  2.7013 -0.2096
41239SOL    HW228403   2.447   7.829   5.833  0.1017 -0.7283  0.0860
41240SOL     OW28404  10.043   5.106  11.157  0.2364  0.0174 -0.6537
41240SOL    HW128405  10.007   5.190  11.184 -1.2185 -0.5935 -0.5938
41240SOL    HW228406  10.027   5.102  11.062  0.4015 -0.1376 -0.6763
41241SOL     OW28407  11.379   5.636   1.076 -0.0914 -0.6889  0.3449
41241SOL    HW128408  11.363   5.627   1.170  1.6396 -0.9394  0.6603
41241SOL    HW228409  11.304   5.594   1.034 -0.4272 -1.4148  1.6368
41242SOL     OW28410   7.949  10.961   1.436 -0.0814 -0.0682  0.4714
41242SOL    HW128411   8.009  10.921   1.498 -0.0257 -1.9671 -0.7075
41242SOL    HW228412   7.863  10.957   1.479  0.2827  0.6600  1.2817
41243SOL     OW28413   3.503   6.478   5.596  0.1078 -0.0935  0.1405
41243SOL    HW128414   3.583   6.447   5.639  0.6354  0.5837 -0.3546
41243SOL    HW228415   3.513   6.452   5.505 -0.0514  0.3683 -0.0073
41244SOL     OW28416   7.174   6.481   0.718  0.7390 -0.5299  0.0925
41244SOL    HW128417   7.083   6.503   0.696  1.3216  0.1913 -1.8003
41244SOL    HW228418   7.200   6.545   0.784 -0.8048 -2.2034  2.5154
41245SOL     OW28419   0.833   6.177   5.641  0.2606  0.2068 -0.8302
41245SOL    HW128420   0.813   6.227   5.720 -1.4549 -0.0129 -1.0951
41245SOL    HW228421   0.874   6.240   5.582  0.8312  0.5618 -0.0704
41246SOL     OW28422   2.390   0.321  11.363  0.0125  0.0096 -0.4210
41246SOL    HW128423   2.385   0.406  11.407 -2.8435 -1.1506  1.8744
41246SOL    HW228424   2.335   0.332  11.285  0.8703  0.6367 -0.9582
41247SOL     OW28425   5.443   8.455   1.406 -0.3574  0.5631 -0.4699
41247SOL    HW128426   5.491   8.516   1.349  1.4248 -0.3137  0.0118
41247SOL    HW228427   5.487   8.371   1.394 -3.3388 -0.9331 -1.8041
41248SOL     OW28428   6.303   3.824  11.671  0.4717 -0.0563  0.0663
41248SOL    HW128429   6.369   3.768  11.712  0.9305 -0.3898 -1.0880
41248SOL    HW228430   6.250   3.765  11.617 -0.7496  0.2192  0.9322
41249SOL     OW28431   5.843   9.539  10.566 -0.1379 -0.3327  0.3585
41249SOL    HW128432   5.884   9.460  10.602 -1.2986 -0.7810  0.7713
41249SOL    HW228433   5.910   9.607  10.572  0.4002 -0.9324  1.3686
41250SOL     OW28434   1.783   9.419  11.650  0.4403  0.1761  0.2217
41250SOL    HW128435   1.788   9.354  11.720  0.3682  0.9376  0.9587
41250SOL    HW228436   1.700   9.465  11.666  0.9254  1.0569  0.2776
41251SOL     OW28437   9.182   7.489  11.740  0.7559 -0.1625 -0.0071
41251SOL    HW128438   9.178   7.394  11.739  0.4084 -0.1480 -0.0345
41251SOL    HW228439   9.276   7.509  11.743  0.8100 -0.5056  1.9842
41252SOL     OW28440   3.618   3.724   9.286 -0.2409  0.4150 -0.1529
41252SOL    HW128441   3.596   3.744   9.195 -2.0832  0.6162  0.2982
41252SOL    HW228442   3.632   3.809   9.326 -2.1000  0.5140  0.3539
41253SOL     OW28443   1.853   0.311   2.461 -0.8131  0.0294 -0.1847
41253SOL    HW128444   1.844   0.270   2.547  1.8027  1.5471  0.9050
41253SOL    HW228445   1.789   0.383   2.462 -0.0890  0.6842  0.9313
41254SOL     OW28446  10.200   1.549   4.754 -0.0642 -0.3759  0.3750
41254SOL    HW128447  10.251   1.625   4.725 -2.3116  0.8460 -0.7448
41254SOL    HW228448  10.129   1.587   4.806  0.7535 -2.0968  2.9507
41255SOL     OW28449  10.575   0.978  10.384 -0.0886 -0.1430  0.5715
41255SOL    HW128450  10.619   1.049  10.431  0.0348 -0.2592  0.6310
41255SOL    HW228451  10.537   1.021  10.308 -2.4092  0.5155  2.0229
41256SOL     OW28452   9.672   9.642   0.763 -0.5458 -0.1936  0.0278
41256SOL    HW128453   9.735   9.660   0.832 -1.5375 -0.4692  1.0450
41256SOL    HW228454   9.607   9.585   0.805 -1.4625  0.0853 -0.9727
41257SOL     OW28455  10.925   1.720  11.758  0.3984  0.2678 -0.2532
41257SOL    HW128456  10.969   1.721  11.844  0.4844 -2.0415 -0.2312
41257SOL    HW228457  10.969   1.790  11.709 -1.5075  3.6668  2.3722
41258SOL     OW28458   3.116   4.202   8.519 -0.3455  0.0134  0.3573
41258SOL    HW128459   3.193   4.184   8.464 -0.6754 -2.9079  0.6659
41258SOL    HW228460   3.151   4.252   8.593  0.9040  0.3414 -0.4163
41259SOL     OW28461   3.248   6.179   9.212 -0.8589 -0.0620 -0.4282
41259SOL    HW128462   3.340   6.190   9.232 -0.9533  1.5122 -0.7363
41259SOL    HW228463   3.225   6.094   9.250 -0.0564  0.9211  2.5385
41260SOL     OW28464   8.506   5.510   5.224  0.3779  0.3514  0.0645
41260SOL    HW128465   8.485   5.595   5.262  1.3323  0.6112  0.0237
41260SOL    HW228466   8.446   5.449   5.268  0.2360  0.9211  0.6715
41261SOL     OW28467   5.778  10.016   2.187  0.3073  0.1396 -0.1939
41261SOL    HW128468   5.721  10.092   2.199  0.9304  0.6390 -0.3118
41261SOL    HW228469   5.864  10.054   2.168  1.1580 -0.5504  1.9916
41262SOL     OW28470  11.041   2.983   4.715  0.2418 -0.1973  0.4987
41262SOL    HW128471  10.985   2.985   4.792  0.3415 -1.9209  0.6688
41262SOL    HW228472  10.989   2.935   4.650  0.7875 -0.1887  0.0495
41263SOL     OW28473   2.774   3.686   4.635 -0.2730  0.0079  0.3580
41263SOL    HW128474   2.803   3.773   4.607 -0.5034 -0.3880 -1.1651
41263SOL    HW228475   2.690   3.701   4.679 -0.5349  0.5005 -0.3029
41264SOL     OW28476   9.209   9.605   0.469 -0.2599 -0.1185  0.3187
41264SOL    HW128477   9.133   9.661   0.484 -0.5695 -1.2505  3.9107
41264SOL    HW228478   9.173   9.518   0.455  0.3208  0.0137 -2.5001
41265SOL     OW28479   1.006   3.688   6.366  0.3714 -0.2926 -0.0997
41265SOL    HW128480   1.094   3.651   6.373  0.5634 -0.0375 -1.0144
41265SOL    HW228481   0.985   3.717   6.455  1.5011  0.2920  0.0020
41266SOL     OW28482   4.093   0.986  11.208  0.4348  0.2252  0.0722
41266SOL    HW128483   4.135   1.022  11.130 -0.9662 -0.0643 -0.8538
41266SOL    HW228484   4.076   0.895  11.187  0.9972 -0.1449  1.1461
41267SOL     OW28485   4.844   3.729   2.155 -0.1240 -0.4260 -0.0581
41267SOL    HW128486   4.802   3.703   2.073  0.7944  0.4940 -0.8440
41267SOL    HW228487   4.841   3.825   2.154 -2.3005 -0.3517  2.1719
41268SOL     OW28488   3.314   1.147   3.539  0.0965 -0.0817  0.1479
41268SOL    HW128489   3.236   1.202   3.535  1.0247  1.1850 -1.7054
41268SOL    HW228490   3.388   1.208   3.536  1.1675 -1.3616 -1.7679
41269SOL     OW28491  10.786   0.205   6.372  0.5772  0.7198  0.1066
41269SOL    HW128492  10.722   0.134   6.371  0.2842  0.8976 -2.5849
41269SOL    HW228493  10.870   0.161   6.384  0.1115  0.4179  2.8923
41270SOL     OW28494   5.985   4.605  10.371  0.0896 -0.0944 -0.3878
41270SOL    HW128495   6.069   4.641  10.343 -0.9869  1.2951 -1.9609
41270SOL    HW228496   5.953   4.666  10.437  0.2174 -0.5559  0.1167
41271SOL     OW28497   1.961   7.843  11.238  0.1520 -0.3374 -0.1987
41271SOL    HW128498   2.032   7.779  11.244 -0.9637 -1.7375 -1.1772
41271SOL    HW228499   1.924   7.830  11.151 -0.6640  1.0725 -0.1029
41272SOL     OW28500   8.975   9.098   9.349  0.1314 -0.1032 -0.7394
41272SOL    HW128501   9.050   9.066   9.398 -1.5628 -0.9289  1.5065
41272SOL    HW228502   8.947   9.024   9.296  0.0207 -0.2963 -0.4159
41273SOL     OW28503   6.585   5.202  11.772 -0.1227  0.2182  0.8286
41273SOL    HW128504   6.548   5.119  11.744 -1.9690  1.0274  0.7036
41273SOL    HW228505   6.658   5.218  11.712 -1.2783 -0.1580 -0.7091
41274SOL     OW28506   2.686   6.132   4.709  0.5598 -0.6587  0.1725
41274SOL    HW128507   2.740   6.059   4.678 -0.2457 -0.7122 -1.1693
41274SOL    HW228508   2.723   6.209   4.667 -1.8794 -0.9743 -3.0214
41275SOL     OW28509   8.241   2.781  10.977 -0.3046  0.6130 -0.5889
41275SOL    HW128510   8.252   2.688  10.961 -0.5312  0.7200 -1.4298
41275SOL    HW228511   8.161   2.788  11.029  0.4649  0.2485  0.6779
41276SOL     OW28512   2.337  11.785   6.157 -0.1715 -0.0718 -0.3035
41276SOL    HW128513   2.364  11.858   6.213 -1.9245  0.2841  0.1123
41276SOL    HW228514   2.243  11.795   6.148 -0.5535 -2.6713  0.2984
41277SOL     OW28515   5.529   7.190   0.605  0.4903  0.7554  0.7094
41277SOL    HW128516   5.507   7.229   0.689  2.3075  0.8568  1.1708
41277SOL    HW228517   5.586   7.255   0.563  0.0238  0.4743 -0.3879
41278SOL     OW28518   2.076   8.586  11.314 -0.1574 -0.4391 -0.7070
41278SOL    HW128519   2.098   8.674  11.345  2.6261 -1.1935 -0.2455
41278SOL    HW228520   1.988   8.595  11.278  0.7803  3.0253 -2.6239
41279SOL     OW28521  10.673   1.453   8.135  0.3832  0.1216  0.0502
41279SOL    HW128522  10.641   1.375   8.089 -0.5064  0.6270 -0.2123
41279SOL    HW228523  10.686   1.424   8.225 -0.2936 -0.2488  0.0391
41280SOL     OW28524   1.027   3.775   4.486 -0.0476  0.5430  0.2092
41280SOL    HW128525   0.983   3.816   4.560 -0.7778  0.4220 -0.1515
41280SOL    HW228526   1.108   3.825   4.476  0.7605 -0.2949  1.9604
41281SOL     OW28527  11.711   2.989   9.018  0.1995  0.0055  0.1040
41281SOL    HW128528  11.801   2.965   9.039  0.3674  0.0382 -0.5317
41281SOL    HW228529  11.671   3.011   9.102  0.7484 -0.1313  0.4066
41282SOL     OW28530  11.329   9.826   3.601  0.4250 -0.3254 -0.3763
41282SOL    HW128531  11.416   9.851   3.633 -0.2109 -0.9128  2.0002
41282SOL    HW228532  11.321   9.734   3.626 -1.2876  0.0148  0.4204
41283SOL     OW28533   0.838   9.472  11.895 -0.7289 -0.0703 -0.4016
41283SOL    HW128534   0.749   9.453  11.864 -0.9662 -1.2256  0.8844
41283SOL    HW228535   0.894   9.462  11.818 -1.7084  0.8041 -1.2621
41284SOL     OW28536   1.332   7.684   0.756  0.4051  0.1415  0.2393
41284SOL    HW128537   1.329   7.636   0.839  0.6222  0.9643  0.7301
41284SOL    HW228538   1.415   7.730   0.757 -0.5472  1.9177  0.5736
41285SOL     OW28539   9.161   7.172   2.087 -0.3447 -0.6789 -0.1610
41285SOL    HW128540   9.202   7.133   2.010  0.0190  1.2669 -1.0295
41285SOL    HW228541   9.154   7.265   2.065 -0.0492 -0.0284  2.2263
41286SOL     OW28542   0.218   0.552  10.857  0.5124 -0.1715 -0.3554
41286SOL    HW128543   0.211   0.575  10.764  0.2925  0.0280 -0.2895
41286SOL    HW228544   0.301   0.591  10.885 -0.0282  0.8712 -0.1530
41287SOL     OW28545   7.165  10.159   8.215  0.5522  0.5295 -0.0139
41287SOL    HW128546   7.142  10.134   8.126 -2.0340  0.9855  0.4560
41287SOL    HW228547   7.105  10.111   8.270  2.2332  0.1036  1.5546
41288SOL     OW28548   5.054   3.898   3.805 -0.0449  0.5012  0.3462
41288SOL    HW128549   5.095   3.832   3.861  0.2594  1.6203  1.4701
41288SOL    HW228550   4.962   3.898   3.832  0.1102  1.0696  0.8909
41289SOL     OW28551   9.846  10.973   6.696  0.0227  0.0801  0.0686
41289SOL    HW128552   9.887  11.011   6.774  0.0439  0.8865 -0.3279
41289SOL    HW228553   9.829  11.047   6.639  0.4500 -0.5506 -0.9128
41290SOL     OW28554   5.714  11.340   4.858 -0.0509  0.5660 -0.3369
41290SOL    HW128555   5.750  11.303   4.777 -0.2390  1.5874 -0.9133
41290SOL    HW228556   5.750  11.429   4.861 -1.4430  1.1481 -0.2429
41291SOL     OW28557   8.185  10.361   6.338 -0.0599 -0.1874 -0.3744
41291SOL    HW128558   8.098  10.366   6.297 -0.8486 -0.4546  1.1996
41291SOL    HW228559   8.199  10.449   6.374 -0.2613 -0.5085  0.5024
41292SOL     OW28560   9.615   3.168   6.598  0.2668  0.5078 -0.0709
41292SOL    HW128561   9.670   3.124   6.662 -0.6191 -1.8929 -0.8770
41292SOL    HW228562   9.638   3.128   6.514 -1.3158  0.8327 -0.7001
41293SOL     OW28563   5.643   4.431   0.789 -0.2101  0.1829 -0.0487
41293SOL    HW128564   5.617   4.339   0.780 -2.2187  0.6540  0.5119
41293SOL    HW228565   5.588   4.465   0.859 -0.4882  2.1479 -1.1366
41294SOL     OW28566   5.814   5.086   1.434  0.0907 -0.0934  0.0256
41294SOL    HW128567   5.798   5.045   1.519  1.3846  0.1140  0.3883
41294SOL    HW228568   5.880   5.031   1.393  1.2650  1.1410  0.1910
41295SOL     OW28569   1.337   9.812   1.847 -0.3685  0.3077 -0.1142
41295SOL    HW128570   1.256   9.785   1.803 -1.9706  2.9840  0.9472
41295SOL    HW228571   1.318   9.799   1.940 -0.5729  3.0477  0.3236
41296SOL     OW28572   0.202   6.597   9.912  0.2582 -0.2109 -0.7273
41296SOL    HW128573   0.112   6.597   9.881 -0.0875  1.9132  0.1772
41296SOL    HW228574   0.201   6.648   9.992  2.0578 -1.2291  0.0175
41297SOL     OW28575   4.113   9.250   8.142  1.3269 -0.2994 -0.0242
41297SOL    HW128576   4.163   9.279   8.065  0.6218  0.4790 -0.1963
41297SOL    HW228577   4.158   9.291   8.216  1.5190 -0.3988 -0.0824
41298SOL     OW28578   1.768   3.557  11.930 -0.5959  0.0391  0.3591
41298SOL    HW128579   1.738   3.647  11.922 -0.3758  0.3362  2.2709
41298SOL    HW228580   1.687   3.505  11.929 -0.9846  0.5361  1.9937
41299SOL     OW28581   8.745   2.316   7.089 -0.0898 -0.5290  0.6879
41299SOL    HW128582   8.835   2.292   7.108  0.4255  1.2141  0.6374
41299SOL    HW228583   8.729   2.283   7.001  1.2759  1.0361 -0.2084
41300SOL     OW28584   7.814   4.559   9.644 -0.1656  0.0424  0.2226
41300SOL    HW128585   7.750   4.610   9.694  0.0438  0.8221 -0.2987
41300SOL    HW228586   7.825   4.478   9.696 -0.6777  0.4072  0.9253
41301SOL     OW28587   4.057   9.836   3.579  0.0022 -0.0582 -0.0373
41301SOL    HW128588   3.986   9.788   3.622 -0.6242  1.5812  0.8245
41301SOL    HW228589   4.025   9.926   3.572  1.6572  0.5367 -0.4477
41302SOL     OW28590  10.601   1.661   6.908  0.4762 -0.4336 -0.0969
41302SOL    HW128591  10.625   1.649   7.000 -0.1192  0.4962  0.1944
41302SOL    HW228592  10.515   1.618   6.901 -0.2709  0.9315  0.2219
41303SOL     OW28593   0.815  10.727   0.358  0.1658 -0.4644  0.4845
41303SOL    HW128594   0.811  10.707   0.451 -1.6870  0.0931  0.5577
41303SOL    HW228595   0.732  10.769   0.338  1.0277  0.6008 -1.1663
41304SOL     OW28596   2.217   6.392   9.654  0.1075  0.6799 -0.1052
41304SOL    HW128597   2.219   6.297   9.662  1.9402  0.6989  0.2364
41304SOL    HW228598   2.128   6.417   9.677  0.1329 -0.8064  1.8437
41305SOL     OW28599   5.285   8.567  11.240  0.7486 -0.1084  0.4534
41305SOL    HW128600   5.258   8.504  11.308 -0.9456  0.6474  0.5372
41305SOL    HW228601   5.228   8.642  11.254  0.9375  0.3962 -1.3158
41306SOL     OW28602   9.060   8.001  10.096  0.0994  0.2587 -0.1675
41306SOL    HW128603   9.071   8.027  10.005  0.7035 -0.5889 -0.3433
41306SOL    HW228604   8.984   8.052  10.126  1.1539  2.1313 -0.5197
41307SOL     OW28605   1.450   5.552   3.361  0.3063 -0.6853 -0.3153
41307SOL    HW128606   1.546   5.545   3.355  0.2186 -1.3669 -1.0580
41307SOL    HW228607   1.431   5.531   3.452  0.8552 -0.7345 -0.2039
41308SOL     OW28608   7.001  10.819   4.858  0.4087 -0.0795 -0.2568
41308SOL    HW128609   6.975  10.751   4.797 -1.4204  1.1805 -0.9699
41308SOL    HW228610   7.056  10.878   4.806  1.6892 -0.7745  0.2624
41309SOL     OW28611   8.074   0.900  10.478  0.6060  0.6864  0.0128
41309SOL    HW128612   7.991   0.865  10.511 -0.0477  0.5932 -1.6484
41309SOL    HW228613   8.134   0.891  10.552 -0.6040 -0.1415  0.9492
41310SOL     OW28614  10.397   1.124   6.541  0.5109  0.3636  0.1607
41310SOL    HW128615  10.319   1.165   6.578 -0.8392 -1.5261 -0.4388
41310SOL    HW228616  10.412   1.170   6.459 -1.7094 -1.0287 -1.1106
41311SOL     OW28617   4.396   2.162   5.672  0.3086  0.1981 -0.3089
41311SOL    HW128618   4.439   2.093   5.621  0.1471  0.5172 -0.8916
41311SOL    HW228619   4.345   2.211   5.607  0.8516  1.2036 -0.0037
41312SOL     OW28620   9.848   3.107   9.782 -0.7379 -0.1639  0.1708
41312SOL    HW128621   9.849   3.021   9.739 -3.0002  0.3772 -1.1209
41312SOL    HW228622   9.770   3.104   9.838 -0.7676  0.9904  0.2124
41313SOL     OW28623  10.772   4.971   6.737 -0.2285  0.5501 -0.2877
41313SOL    HW128624  10.744   4.881   6.721  0.6533  0.0599  0.7867
41313SOL    HW228625  10.772   5.012   6.650  1.7636 -1.2031 -1.2094
41314SOL     OW28626   5.720   1.929   0.877  0.5904  0.2959 -0.0465
41314SOL    HW128627   5.788   1.866   0.854  0.7383  0.1997  0.6511
41314SOL    HW228628   5.668   1.937   0.797 -0.1321 -1.5891  0.1730
41315SOL     OW28629   5.942   4.500   8.253 -0.4474  0.9181 -0.1117
41315SOL    HW128630   5.915   4.572   8.195 -0.7707 -0.5665 -1.9296
41315SOL    HW228631   5.885   4.426   8.227  0.0845 -0.0892  1.4563
41316SOL     OW28632   6.407   9.521  10.619 -0.0445 -0.1969  0.4102
41316SOL    HW128633   6.435   9.550  10.706 -1.4857 -0.2955  0.9357
41316SOL    HW228634   6.314   9.539  10.617 -0.1627 -0.8471 -0.8668
41317SOL     OW28635   8.718   3.098   9.131  0.5641  0.0043 -0.7068
41317SOL    HW128636   8.688   3.007   9.132  0.1577  0.1328  0.1355
41317SOL    HW228637   8.642   3.148   9.101 -0.1069  0.3241  1.3756
41318SOL     OW28638  10.787  10.723  10.031 -1.0735  0.7082 -0.3804
41318SOL    HW128639  10.759  10.759  10.115  0.7883 -0.6998  0.9238
41318SOL    HW228640  10.734  10.643  10.021 -0.6615  0.3968 -0.0919
41319SOL     OW28641   4.905  11.694   2.035 -0.0979  0.0618  0.6306
41319SOL    HW128642   4.812  11.712   2.049 -0.1888  0.8472 -0.8759
41319SOL    HW228643   4.909  11.600   2.018 -0.6594  0.0806  0.3882
41320SOL     OW28644   6.880   2.660   5.604 -0.3057 -0.3755  0.3927
41320SOL    HW128645   6.960   2.615   5.578 -0.6059  0.4273 -2.2876
41320SOL    HW228646   6.902   2.705   5.685  1.0476 -2.4646  1.2418
41321SOL     OW28647  10.131   4.551   1.543  0.3934 -0.1465 -0.2438
41321SOL    HW128648  10.158   4.519   1.457  2.7634 -0.2875  0.5014
41321SOL    HW228649  10.147   4.645   1.540 -2.1146  0.3325 -0.8227
41322SOL     OW28650   7.055   4.405  10.925  0.7369 -0.0208 -0.0994
41322SOL    HW128651   6.970   4.401  10.881  0.6666  1.4372 -0.1624
41322SOL    HW228652   7.034   4.400  11.018  0.4835  1.1139 -0.0777
41323SOL     OW28653   0.149   4.490   1.487  0.2503 -0.4289  0.8671
41323SOL    HW128654   0.210   4.474   1.415 -1.7010  0.5028 -1.1106
41323SOL    HW228655   0.178   4.573   1.525 -0.0423  0.2857 -0.4072
41324SOL     OW28656   9.865   9.053   9.985  0.7193 -0.1141  0.0716
41324SOL    HW128657   9.875   9.049  10.080  0.7008 -1.5664  0.0306
41324SOL    HW228658   9.907   9.136   9.960  1.8396 -0.3131  1.2070
41325SOL     OW28659  10.494   1.679   4.640  0.3655 -0.4539  0.2876
41325SOL    HW128660  10.562   1.723   4.691  1.1726 -1.2332 -0.0750
41325SOL    HW228661  10.541   1.610   4.592 -0.4986 -0.3035 -0.8346
41326SOL     OW28662   3.349   3.996   4.734  0.3630  0.6446  0.3441
41326SOL    HW128663   3.343   3.913   4.781 -0.5561  1.2698  1.3887
41326SOL    HW228664   3.408   3.978   4.661  2.7543 -0.1199  2.3031
41327SOL     OW28665  10.326   2.786  10.574 -0.0688  0.2510 -0.3272
41327SOL    HW128666  10.231   2.780  10.580 -0.0688  0.4430 -0.1597
41327SOL    HW228667  10.358   2.770  10.663  0.1255 -1.1470 -0.6185
41328SOL     OW28668   8.914   2.812  10.634 -0.2701 -0.0176 -0.1971
41328SOL    HW128669   8.932   2.864  10.555 -1.3924  0.3645 -0.2154
41328SOL    HW228670   8.960   2.859  10.704  1.0408 -0.5618 -0.6630
41329SOL     OW28671   6.079   0.983   9.835 -0.3393 -0.2082  0.2165
41329SOL    HW128672   6.106   1.053   9.775 -2.2746 -0.3126 -0.8954
41329SOL    HW228673   6.095   1.018   9.922  0.4856  0.8532 -0.3355
41330SOL     OW28674   2.819  11.994   6.802 -0.3282  0.2855 -0.3166
41330SOL    HW128675   2.788  11.943   6.877 -3.2771  1.6748 -0.4682
41330SOL    HW228676   2.835  12.081   6.837 -0.4099  0.5989 -1.0498
41331SOL     OW28677   3.373  10.467  11.452 -0.1607 -0.5070 -0.1005
41331SOL    HW128678   3.340  10.538  11.507  1.0100  0.3811 -0.5004
41331SOL    HW228679   3.310  10.396  11.464 -1.9375  0.9322 -0.4564
41332SOL     OW28680   7.221   7.958   4.569  0.2708 -0.0855 -0.1102
41332SOL    HW128681   7.191   8.044   4.540  1.0701  0.0897 -0.4315
41332SOL    HW228682   7.231   7.967   4.664 -0.1101  0.0260 -0.0778
41333SOL     OW28683   2.767   0.805   7.546 -0.1807  0.0792  0.0739
41333SOL    HW128684   2.731   0.739   7.487 -0.2935 -1.2842  1.5921
41333SOL    HW228685   2.820   0.755   7.608  0.3678  1.5212  0.8133
41334SOL     OW28686   3.401   6.688   0.227  0.2306  0.5551  0.4056
41334SOL    HW128687   3.393   6.718   0.137 -2.3052  0.3814  0.5080
41334SOL    HW228688   3.347   6.748   0.278 -0.9344 -1.1496  1.3136
41335SOL     OW28689   4.716   1.405  11.841  0.3128 -0.0882  0.1611
41335SOL    HW128690   4.799   1.364  11.867 -0.5062 -1.7829  0.2600
41335SOL    HW228691   4.737   1.454  11.762  1.5139 -0.1112  0.4525
41336SOL     OW28692   1.530   3.210   0.311  0.7067  0.0544  0.0713
41336SOL    HW128693   1.495   3.209   0.221 -0.2469  0.3101  0.4267
41336SOL    HW228694   1.611   3.159   0.306  0.5874 -0.0582 -0.9051
41337SOL     OW28695   4.357   4.561   2.421  0.5582 -0.3215  0.2437
41337SOL    HW128696   4.392   4.477   2.391  0.0084 -0.7706  0.8269
41337SOL    HW228697   4.270   4.567   2.382  0.8243  0.2661 -0.2814
41338SOL     OW28698   9.213   5.146   6.530  0.0642 -0.1373 -0.2091
41338SOL    HW128699   9.295   5.180   6.494  0.6931 -1.4551 -0.0885
41338SOL    HW228700   9.166   5.224   6.559  0.5002  0.8013 -1.8341
41339SOL     OW28701  11.603   5.501  10.999  0.2244 -0.1949 -0.1792
41339SOL    HW128702  11.631   5.590  11.023  0.3331 -0.0318 -0.8897
41339SOL    HW228703  11.668   5.472  10.935 -1.2019  0.2068 -1.8978
41340SOL     OW28704  11.367   1.749  10.637 -0.2604  0.2182  0.1316
41340SOL    HW128705  11.292   1.689  10.635  0.0110 -0.1151 -0.1293
41340SOL    HW228706  11.329   1.836  10.623 -0.4644 -0.0826 -1.3402
41341SOL     OW28707   6.360  10.858   0.102  0.2916 -0.0016  0.0657
41341SOL    HW128708   6.366  10.815   0.017  2.0630 -0.9047  0.5868
41341SOL    HW228709   6.399  10.944   0.089 -1.4352  0.7345 -0.5098
41342SOL     OW28710   0.771   3.003   0.327  0.1490  0.2698 -0.6569
41342SOL    HW128711   0.686   2.986   0.285  0.4985  0.1277 -1.3302
41342SOL    HW228712   0.756   3.080   0.382 -0.3708  0.3541 -0.9106
41343SOL     OW28713   1.788   6.759   1.915 -0.1060  0.3124  0.1440
41343SOL    HW128714   1.812   6.798   1.999 -1.8250 -1.7421  1.6975
41343SOL    HW228715   1.872   6.732   1.877  0.7880  2.1168  0.7004
41344SOL     OW28716   1.493   1.289   4.439  0.3550  0.3818 -0.2542
41344SOL    HW128717   1.453   1.234   4.507 -2.2402  2.1728 -0.1784
41344SOL    HW228718   1.521   1.368   4.485  1.2078  0.4505 -0.8560
41345SOL     OW28719   4.508   7.930   0.671 -0.9596  0.3001 -0.7567
41345SOL    HW128720   4.541   7.978   0.747 -0.2027  0.2544 -1.0457
41345SOL    HW228721   4.581   7.931   0.609 -1.6452  0.5293 -1.5726
41346SOL     OW28722   9.192   2.343   2.812  0.1787  0.1806 -0.5203
41346SOL    HW128723   9.111   2.372   2.770 -0.3867 -1.2751 -0.4738
41346SOL    HW228724   9.189   2.381   2.900  0.3751  1.5196 -1.0636
41347SOL     OW28725   8.869   0.241  10.064  0.2125 -0.4252  0.3266
41347SOL    HW128726   8.886   0.219   9.972 -0.6155 -0.5430  0.2008
41347SOL    HW228727   8.798   0.304  10.062  1.0983  0.6336  0.8242
41348SOL     OW28728   5.218   7.473   2.311 -0.4037  0.2602  0.0655
41348SOL    HW128729   5.237   7.384   2.342  0.2324  0.3631 -0.0168
41348SOL    HW228730   5.124   7.483   2.322 -0.2512  0.1791  1.6996
41349SOL     OW28731   2.720   7.503   6.135  0.4503  0.3622 -0.6205
41349SOL    HW128732   2.669   7.529   6.212  1.1676 -1.1022  0.3957
41349SOL    HW228733   2.676   7.546   6.061 -1.2253  0.4991  0.4093
41350SOL     OW28734  10.539   5.704   5.579  0.3976 -0.1163 -0.2030
41350SOL    HW128735  10.621   5.658   5.597  0.6671  0.0670 -0.9100
41350SOL    HW228736  10.549   5.735   5.489  0.3148  1.5301  0.3329
41351SOL     OW28737   9.099   4.090   1.683 -0.1082 -0.3572  0.2177
41351SOL    HW128738   9.022   4.147   1.691 -0.3827 -0.6443 -0.3000
41351SOL    HW228739   9.163   4.128   1.743 -0.9389 -0.5878  1.3000
41352SOL     OW28740  10.164   3.735   1.154  0.0249 -0.7862 -0.4361
41352SOL    HW128741  10.246   3.743   1.105 -0.2996 -0.2106 -0.9031
41352SOL    HW228742  10.102   3.700   1.090  0.0007 -1.6217  0.0301
41353SOL     OW28743  10.177   3.008   9.512  0.1077 -0.5927 -0.0304
41353SOL    HW128744  10.117   3.002   9.437  0.9212 -0.5367 -0.7036
41353SOL    HW228745  10.202   3.100   9.515  0.4617 -0.6900  0.0083
41354SOL     OW28746  10.307  11.706  10.440 -0.0430 -0.3806 -0.3669
41354SOL    HW128747  10.402  11.704  10.453  0.1201  0.5980 -1.2549
41354SOL    HW228748  10.279  11.790  10.477 -0.5327 -0.5842 -0.2639
41355SOL     OW28749   1.304  11.097   0.519  0.0180  0.2860 -0.3386
41355SOL    HW128750   1.329  11.180   0.559  0.7404 -0.6883  1.3078
41355SOL    HW228751   1.220  11.076   0.558  1.1573 -1.1330  1.4818
41356SOL     OW28752   6.523   9.754   0.513  0.1694  0.0827 -0.1225
41356SOL    HW128753   6.543   9.810   0.437  0.4052  1.9861  1.2726
41356SOL    HW228754   6.428   9.760   0.522 -0.0101 -1.1262 -0.9439
41357SOL     OW28755  11.031   8.444  11.300  0.2316 -0.2445  0.4052
41357SOL    HW128756  10.982   8.478  11.225  2.8449 -3.0725 -2.9076
41357SOL    HW228757  10.978   8.372  11.333 -0.8650  0.9285  1.3071
41358SOL     OW28758   3.138  11.311   4.610  0.2110  0.3683  0.2509
41358SOL    HW128759   3.181  11.275   4.688 -0.1497  0.1977  0.3734
41358SOL    HW228760   3.045  11.300   4.627  0.1419 -1.4611 -1.0487
41359SOL     OW28761  10.831   3.258   4.612 -0.7107 -0.2139 -0.8167
41359SOL    HW128762  10.920   3.292   4.612 -0.0942 -1.4680  2.1858
41359SOL    HW228763  10.830   3.193   4.542  0.8088 -0.3027 -0.7906
41360SOL     OW28764   0.802   6.663   7.523 -0.2048  1.1297 -0.6628
41360SOL    HW128765   0.818   6.692   7.433 -0.9020  1.8628 -0.5634
41360SOL    HW228766   0.718   6.703   7.547 -0.2599  0.5563  0.1517
41361SOL     OW28767   7.767   6.948  10.750  0.5370  0.0072 -0.7774
41361SOL    HW128768   7.687   7.001  10.748  2.2307  2.8125 -0.0421
41361SOL    HW228769   7.761   6.894  10.671 -2.4107 -0.4862 -0.3368
41362SOL     OW28770   6.933   5.347   0.555 -0.1204 -0.1730  0.1200
41362SOL    HW128771   6.887   5.277   0.601 -0.2149  0.3816  0.9014
41362SOL    HW228772   6.885   5.427   0.580  0.5524  0.2739  0.0062
41363SOL     OW28773  10.501   2.624   4.507 -1.0312  0.6125  0.5207
41363SOL    HW128774  10.468   2.594   4.422 -0.8748  0.0319  0.6640
41363SOL    HW228775  10.458   2.568   4.571 -2.2527  1.9729  0.9400
41364SOL     OW28776  10.957   2.283   6.218  0.6562 -0.2469 -0.1131
41364SOL    HW128777  11.049   2.296   6.198  0.7679 -1.7721 -0.7393
41364SOL    HW228778  10.949   2.304   6.311  1.8812 -1.1758  0.2354
41365SOL     OW28779   5.759  11.685   6.727 -0.1542  0.0355  0.2728
41365SOL    HW128780   5.805  11.747   6.784  0.1491  0.2217 -0.1673
41365SOL    HW228781   5.812  11.605   6.730  1.5785  0.9953 -2.0986
41366SOL     OW28782   0.649   9.985  11.967 -0.1082 -0.2708  0.2253
41366SOL    HW128783   0.740   9.992  11.937 -0.0706 -0.6131  0.2651
41366SOL    HW228784   0.628   9.892  11.960 -0.6060 -0.1307 -0.2218
41367SOL     OW28785   7.752   6.105  10.522  0.0708 -0.0428  0.1812
41367SOL    HW128786   7.686   6.040  10.500 -0.5084  0.1306  1.3467
41367SOL    HW228787   7.786   6.134  10.437  0.2033 -1.6950 -0.3708
41368SOL     OW28788   7.053   2.575   1.121  0.1842  0.0993 -0.2273
41368SOL    HW128789   6.958   2.572   1.115  0.0080  1.3975  1.2923
41368SOL    HW228790   7.077   2.662   1.087  0.7761 -0.0044 -0.0943
41369SOL     OW28791   2.551   1.723   1.394 -0.0479  0.2381  0.4944
41369SOL    HW128792   2.460   1.735   1.366  0.0820  0.2443  0.0717
41369SOL    HW228793   2.601   1.784   1.340  0.4540 -1.1684 -0.6889
41370SOL     OW28794   5.991   4.093   5.970 -0.0032 -0.0162 -0.3683
41370SOL    HW128795   5.910   4.139   5.990 -0.4246 -1.1017  0.4769
41370SOL    HW228796   6.023   4.135   5.890 -0.3034  1.8149  0.4244
41371SOL     OW28797   5.221   0.195  10.511  0.1011 -0.1380  0.0623
41371SOL    HW128798   5.168   0.275  10.510 -1.1475 -0.9512 -0.0301
41371SOL    HW228799   5.196   0.151  10.592 -0.1486 -1.0320 -0.4906
41372SOL     OW28800   6.757   8.038   2.332  0.0519 -0.6460 -0.2265
41372SOL    HW128801   6.801   8.030   2.247  0.9224 -0.4594  0.1907
41372SOL    HW228802   6.674   8.081   2.312  0.1876 -0.7247 -1.0011
41373SOL     OW28803   8.917   2.758   2.375 -0.1761 -0.4374 -0.3192
41373SOL    HW128804   8.825   2.786   2.380  0.7263  2.7033  3.1346
41373SOL    HW228805   8.939   2.734   2.465  1.9077 -3.3797 -1.4456
41374SOL     OW28806   3.499   4.307   6.457  0.1902 -0.2987  0.1176
41374SOL    HW128807   3.577   4.253   6.441 -0.6442 -1.7072  0.6250
41374SOL    HW228808   3.430   4.264   6.408 -0.9608 -0.9053  2.1734
41375SOL     OW28809   8.486  11.454   3.003 -0.0291  0.7667  1.2701
41375SOL    HW128810   8.558  11.391   2.998 -1.6107 -1.0406 -0.5035
41375SOL    HW228811   8.473  11.467   3.097  1.2732 -0.4622  1.6705
41376SOL     OW28812  10.676   3.554   9.494 -0.0999  0.5494 -0.5974
41376SOL    HW128813  10.728   3.565   9.574 -1.4068 -2.3479  0.7969
41376SOL    HW228814  10.610   3.488   9.517 -0.7717 -0.1339 -3.9763
41377SOL     OW28815   9.609   1.268   2.595  0.3644  0.1267  0.0545
41377SOL    HW128816   9.542   1.285   2.660  1.6411 -1.2430  1.8158
41377SOL    HW228817   9.591   1.179   2.564  0.8343  0.0882 -0.1181
41378SOL     OW28818   2.453   1.970   9.150 -0.4677 -0.3724 -0.0041
41378SOL    HW128819   2.486   1.997   9.064 -2.2553 -1.2070 -0.9937
41378SOL    HW228820   2.411   1.886   9.134  0.7499 -1.4379  2.0772
41379SOL     OW28821   8.996   0.345  11.194  0.9350 -0.2334 -0.0115
41379SOL    HW128822   9.066   0.381  11.140  0.8107 -2.1306 -1.5282
41379SOL    HW228823   8.954   0.279  11.139 -1.7874  0.4999  0.9781
41380SOL     OW28824   4.047   2.512   7.050  0.5281  0.5144  0.3477
41380SOL    HW128825   4.034   2.428   7.095  0.4431  0.8415  0.9513
41380SOL    HW228826   4.048   2.490   6.957  1.3078 -0.2718  0.5262
41381SOL     OW28827  11.944   1.156   2.637  0.9754  0.1137 -0.4740
41381SOL    HW128828  11.885   1.081   2.642  1.9678 -0.6445  0.2313
41381SOL    HW228829  11.889   1.231   2.659 -0.0792 -0.3584 -1.3827
41382SOL     OW28830   0.181   5.505   3.902  0.0559  0.2432  0.0800
41382SOL    HW128831   0.135   5.499   3.818 -1.3124 -0.2878  0.8254
41382SOL    HW228832   0.183   5.599   3.921 -1.5961  0.2238  0.4680
41383SOL     OW28833   4.193   8.086  10.335  0.6203 -0.1999  0.3947
41383SOL    HW128834   4.279   8.062  10.369 -0.0094  0.2601  2.5092
41383SOL    HW228835   4.192   8.182  10.337  0.6371 -0.1346 -1.2859
41384SOL     OW28836   7.404   2.712   6.152  0.0807 -0.0029  0.1115
41384SOL    HW128837   7.450   2.767   6.089 -0.5489 -1.6131 -1.8651
41384SOL    HW228838   7.473   2.673   6.206  0.6025  1.7250  0.7415
41385SOL     OW28839   0.946   5.971   8.788 -0.3900  0.4246  0.4480
41385SOL    HW128840   0.947   6.053   8.837 -0.9416  0.9625 -0.4027
41385SOL    HW228841   0.907   5.994   8.704 -0.1111 -0.6171  0.0140
41386SOL     OW28842   9.749   4.211   5.202 -0.3040 -0.1881 -0.4171
41386SOL    HW128843   9.718   4.173   5.285  0.6197 -0.4921 -0.1919
41386SOL    HW228844   9.838   4.178   5.193  0.0652  0.8916 -0.8878
41387SOL     OW28845   8.628   3.077   0.028 -0.2271  0.3392  0.2738
41387SOL    HW128846   8.588   3.118  -0.048 -1.2962 -0.4606  0.3830
41387SOL    HW228847   8.634   3.147   0.093  0.2577  0.9119 -0.3696
41388SOL     OW28848   0.462   7.306   7.791 -0.5280  0.0999 -0.3653
41388SOL    HW128849   0.489   7.370   7.725  1.2885 -0.0323  0.2078
41388SOL    HW228850   0.485   7.347   7.874 -1.1550 -0.5023  0.1189
41389SOL     OW28851   1.991   5.077   4.929  0.3801  0.7969  0.0374
41389SOL    HW128852   1.953   5.164   4.916  0.1473  0.8309  0.9048
41389SOL    HW228853   2.076   5.095   4.969 -0.6962  0.5832  2.6344
41390SOL     OW28854   8.456   9.896  10.620  0.4944 -0.4470 -0.0458
41390SOL    HW128855   8.398   9.880  10.546  0.8102  1.2181 -0.6804
41390SOL    HW228856   8.426   9.978  10.658  0.4428 -1.1845  1.6051
41391SOL     OW28857   8.154   0.663   8.549  0.9383 -0.3830 -0.0514
41391SOL    HW128858   8.224   0.724   8.572  0.9920 -0.6901  0.6111
41391SOL    HW228859   8.081   0.720   8.524  0.3728  0.0390  2.3346
41392SOL     OW28860  11.777   6.145   0.248  0.3987 -0.1416 -0.3762
41392SOL    HW128861  11.707   6.167   0.187  0.3904  0.5442 -0.1272
41392SOL    HW228862  11.857   6.150   0.195  0.2400 -1.2072 -0.7281
41393SOL     OW28863   4.373   6.568   8.333 -0.0028 -0.3889 -0.0333
41393SOL    HW128864   4.347   6.609   8.416  1.7897 -0.6206  0.6874
41393SOL    HW228865   4.335   6.480   8.337 -1.0561  0.0496 -0.0855
41394SOL     OW28866   6.429   5.736   0.789 -0.2211  0.1200  0.2001
41394SOL    HW128867   6.511   5.696   0.818 -1.6898 -2.2848  1.3349
41394SOL    HW228868   6.400   5.790   0.863 -0.4404 -0.3044  0.4254
41395SOL     OW28869  11.828   3.426   7.782  0.2972 -0.5971 -0.2026
41395SOL    HW128870  11.854   3.445   7.693  3.0172  0.2883  0.6855
41395SOL    HW228871  11.814   3.511   7.822 -0.9499 -0.9833  0.2494
41396SOL     OW28872   0.863   5.082  11.768 -0.0852 -0.1546  0.1716
41396SOL    HW128873   0.779   5.036  11.762  0.6218 -1.8786  2.2197
41396SOL    HW228874   0.892   5.090  11.677 -2.1315 -0.0893 -0.5406
41397SOL     OW28875   9.803   9.178   8.768  1.3088  0.2098 -0.3255
41397SOL    HW128876   9.843   9.092   8.774  0.4157 -0.2116 -0.1481
41397SOL    HW228877   9.712   9.160   8.743  0.7948  1.0244  0.8910
41398SOL     OW28878   2.164   2.108   4.682  0.5714  0.3866 -0.1051
41398SOL    HW128879   2.169   2.081   4.774  0.7106  1.6126  0.2713
41398SOL    HW228880   2.091   2.058   4.646  0.6267 -0.2389  0.6285
41399SOL     OW28881   7.156   3.557   2.543 -0.0383  0.1842  0.0236
41399SOL    HW128882   7.216   3.594   2.478  0.5209  1.1262  1.0389
41399SOL    HW228883   7.203   3.564   2.626 -1.9023  1.9832  1.0441
41400SOL     OW28884   1.022   3.236   3.954 -0.3569 -0.0874 -0.2787
41400SOL    HW128885   0.932   3.238   3.921 -0.0533  0.1165 -1.1201
41400SOL    HW228886   1.069   3.298   3.899  0.4523 -0.7126 -0.3092
41401SOL     OW28887   8.439  10.446   4.713 -0.1410  0.0092 -0.7403
41401SOL    HW128888   8.442  10.525   4.767 -2.9879  0.2571 -0.8251
41401SOL    HW228889   8.472  10.475   4.628 -0.0648  0.8066 -0.4513
41402SOL     OW28890   0.028   0.262   5.993 -0.0605 -0.3460  0.3690
41402SOL    HW128891   0.110   0.237   5.950  1.2126 -0.1073  2.5470
41402SOL    HW228892   0.004   0.344   5.951  1.8313  0.5487  0.9389
41403SOL     OW28893  11.598   1.998  11.147 -0.1160 -0.2265 -0.1809
41403SOL    HW128894  11.654   1.933  11.188 -0.9971 -1.1177 -0.3652
41403SOL    HW228895  11.658   2.067  11.119  0.6331 -0.0867  1.6225
41404SOL     OW28896   3.167  10.132   0.587  0.5103  0.2710 -0.1966
41404SOL    HW128897   3.141  10.192   0.658 -0.9496 -0.4905 -0.0390
41404SOL    HW228898   3.261  10.123   0.597  0.5134  1.1645  0.8752
41405SOL     OW28899  11.997   2.511   0.863 -0.0602  0.0179 -0.5428
41405SOL    HW128900  12.017   2.473   0.778  0.9180 -0.6510 -0.0413
41405SOL    HW228901  12.077   2.498   0.915 -0.6755  0.2762  0.5175
41406SOL     OW28902   9.177   7.438   9.536  0.7887  0.4306 -0.5789
41406SOL    HW128903   9.206   7.528   9.520  3.0424 -0.3322 -1.1394
41406SOL    HW228904   9.216   7.387   9.466  1.0540 -1.2633  0.7319
41407SOL     OW28905   2.447   8.669   5.867  0.3474  0.0308 -0.0151
41407SOL    HW128906   2.426   8.664   5.960  1.0141  1.6872  0.2601
41407SOL    HW228907   2.380   8.726   5.830  2.8085  3.5372  0.4628
41408SOL     OW28908   8.639   4.912   5.865  0.3678 -0.2884 -0.8171
41408SOL    HW128909   8.734   4.916   5.850  0.1716 -0.7740 -2.3014
41408SOL    HW228910   8.605   4.861   5.792 -0.6463 -3.3211  1.5436
41409SOL     OW28911  10.061   2.321   5.471 -0.3963  0.2530  0.2488
41409SOL    HW128912  10.041   2.345   5.381  2.2255 -0.8495 -0.7179
41409SOL    HW228913  10.142   2.368   5.492 -0.2837 -0.4740  1.6030
41410SOL     OW28914   3.341   6.754   0.931 -0.0014 -0.1188  0.0657
41410SOL    HW128915   3.320   6.663   0.951 -1.0203  0.2382  0.7132
41410SOL    HW228916   3.437   6.758   0.932  0.0974 -1.4640 -1.3785
41411SOL     OW28917   1.904  11.793   4.045  0.1211 -0.1952  0.2537
41411SOL    HW128918   1.935  11.847   4.118  0.3464 -1.4574  1.1209
41411SOL    HW228919   1.971  11.725   4.036 -0.2249 -0.4169 -0.7326
41412SOL     OW28920  10.498   6.949   2.984 -0.3729 -0.2472  0.1384
41412SOL    HW128921  10.498   7.036   2.944  1.1420  0.1642  0.9678
41412SOL    HW228922  10.430   6.953   3.051  0.0155  0.4659  0.4959
41413SOL     OW28923  10.667   8.556   4.366  0.1145  0.1071  0.0139
41413SOL    HW128924  10.715   8.506   4.432 -0.1493  0.3479  0.3912
41413SOL    HW228925  10.605   8.493   4.330 -0.4726  0.2431  0.7487
41414SOL     OW28926   7.845   8.967  10.345 -0.1562  0.4063 -0.5981
41414SOL    HW128927   7.844   8.962  10.249  1.3230 -0.5845 -0.6050
41414SOL    HW228928   7.874   9.057  10.364  1.7507 -0.0428 -1.1575
41415SOL     OW28929   1.197   7.330   3.475  0.5611  0.3145 -0.1852
41415SOL    HW128930   1.184   7.308   3.383 -0.3063  0.4072 -0.0941
41415SOL    HW228931   1.109   7.343   3.509  0.9136  1.0065  0.4881
41416SOL     OW28932   7.053   0.994  10.614 -0.0482  0.1879  0.3784
41416SOL    HW128933   7.056   0.903  10.583 -1.7583 -0.3187  1.5168
41416SOL    HW228934   7.017   0.987  10.703 -1.6042  2.0478 -0.0414
41417SOL     OW28935   4.493   5.490   4.094 -0.2491 -0.1946 -0.0924
41417SOL    HW128936   4.426   5.472   4.028  1.2443 -1.2558 -1.4351
41417SOL    HW228937   4.569   5.517   4.043 -0.1654  2.9123  1.4974
41418SOL     OW28938   5.756   1.965  11.795  0.2771 -0.1250  0.5562
41418SOL    HW128939   5.674   2.007  11.823  0.2173 -0.0904  0.3317
41418SOL    HW228940   5.818   1.984  11.865  0.8606  2.1960 -0.4995
41419SOL     OW28941   4.129   6.558   0.646 -0.2371  0.1711  0.0641
41419SOL    HW128942   4.105   6.648   0.623  0.1174 -0.1592 -1.7970
41419SOL    HW228943   4.211   6.542   0.599 -0.2186 -1.0743  0.4783
41420SOL     OW28944  11.134   7.233   9.030  0.5132  0.4125 -0.5278
41420SOL    HW128945  11.128   7.148   8.987  0.7508  0.6012 -0.9319
41420SOL    HW228946  11.167   7.293   8.963  0.0862  0.8840 -0.3255
41421SOL     OW28947   4.395   6.483   9.295  0.1397 -0.3128 -0.0541
41421SOL    HW128948   4.325   6.521   9.349 -0.4921  1.1008 -1.7594
41421SOL    HW228949   4.472   6.483   9.352 -0.7912 -0.1331  1.2669
41422SOL     OW28950   6.843   3.211   0.219  0.2097 -0.4519 -0.0300
41422SOL    HW128951   6.938   3.202   0.207  0.1252 -1.4062 -0.0689
41422SOL    HW228952   6.833   3.291   0.269  1.1504 -1.0888  1.2376
41423SOL     OW28953   2.003   4.226   0.124  0.0745 -0.0257  0.2238
41423SOL    HW128954   2.010   4.254   0.215  0.5891  0.6175 -0.0071
41423SOL    HW228955   1.917   4.184   0.119  0.7377 -1.6004  1.3983
41424SOL     OW28956   1.711   1.908  10.777  0.2225 -0.2198  0.3121
41424SOL    HW128957   1.682   1.978  10.836  0.9166 -0.5238  1.0237
41424SOL    HW228958   1.797   1.883  10.810  0.0260 -1.3387  0.0008
41425SOL     OW28959   2.463   7.696  11.305 -0.0980  0.2240  0.3573
41425SOL    HW128960   2.427   7.785  11.315 -1.4583  0.0068 -1.8059
41425SOL    HW228961   2.407   7.641  11.359 -0.1298  0.5007  0.6064
41426SOL     OW28962   1.417   0.090   1.740 -0.4951 -0.5838 -0.4945
41426SOL    HW128963   1.348   0.024   1.739  1.3494 -2.6833  0.9413
41426SOL    HW228964   1.460   0.082   1.655  0.1842 -1.8298 -0.0590
41427SOL     OW28965   0.427   6.157   1.792 -0.5262  0.1668  0.9023
41427SOL    HW128966   0.426   6.235   1.737  1.7002  0.8503  1.7576
41427SOL    HW228967   0.519   6.137   1.805 -0.9893 -0.7735  3.2640
41428SOL     OW28968   1.699   7.540  11.089 -0.1535 -0.2110  0.0277
41428SOL    HW128969   1.766   7.551  11.156 -0.9964  1.1863  0.6988
41428SOL    HW228970   1.618   7.527  11.138 -0.9530  1.8932 -0.6292
41429SOL     OW28971   5.394   2.642   5.288 -0.3189  0.3968  0.0585
41429SOL    HW128972   5.385   2.667   5.196 -0.4740  0.4292  0.0830
41429SOL    HW228973   5.442   2.559   5.285 -0.3949  0.3572 -0.0550
41430SOL     OW28974   1.590   2.710   0.760 -0.4792 -0.0372 -0.7245
41430SOL    HW128975   1.679   2.675   0.763 -0.6592 -0.5931 -1.6467
41430SOL    HW228976   1.569   2.729   0.852  0.5428  0.0001 -0.4856
41431SOL     OW28977   7.286   1.419   3.030 -0.1893 -0.2231 -0.2027
41431SOL    HW128978   7.286   1.486   2.962  2.2106 -0.7851 -0.8519
41431SOL    HW228979   7.241   1.344   2.992  1.0311 -0.4906 -1.1718
41432SOL     OW28980   2.399   7.557   1.491  0.5761 -0.3183 -0.5968
41432SOL    HW128981   2.308   7.584   1.497  0.0755 -1.5162 -2.1607
41432SOL    HW228982   2.448   7.638   1.482 -0.4354  0.2882 -0.7519
41433SOL     OW28983   6.210   5.068  11.644  0.2347  0.3413  0.2901
41433SOL    HW128984   6.224   5.048  11.737  0.7168 -0.4560  0.0530
41433SOL    HW228985   6.148   5.002  11.615  2.0385 -1.0815 -0.5636
41434SOL     OW28986   8.623   5.339   3.715  0.1837 -0.1446  0.4525
41434SOL    HW128987   8.576   5.260   3.688 -0.2837 -0.6724  2.6227
41434SOL    HW228988   8.580   5.410   3.668  0.4762 -1.1018 -1.3882
41435SOL     OW28989  10.362   1.269  11.930 -0.2285 -0.2581 -0.4024
41435SOL    HW128990  10.292   1.210  11.901 -0.6746  0.8763 -1.7221
41435SOL    HW228991  10.421   1.274  11.855 -0.5515  1.4843 -0.5822
41436SOL     OW28992   9.975  10.586  11.974 -0.1875  0.4596 -0.5707
41436SOL    HW128993   9.907  10.577  11.908 -0.2332  0.7857 -0.5707
41436SOL    HW228994   9.938  10.646  12.038 -0.4937 -0.5528  0.2220
41437SOL     OW28995   9.470   6.782   9.394 -0.6015 -0.2522  0.3973
41437SOL    HW128996   9.504   6.693   9.383  0.1905  0.1807 -0.8752
41437SOL    HW228997   9.547   6.834   9.417 -0.8120  0.3285 -0.1734
41438SOL     OW28998  10.763   8.122   5.277  0.1194  0.1804  0.6160
41438SOL    HW128999  10.832   8.060   5.300 -0.2849 -0.0146  1.3344
41438SOL    HW229000  10.810   8.202   5.254  0.7980 -1.0384 -2.7204
41439SOL     OW29001  11.792   7.340   2.419  0.3134  0.0989  0.3130
41439SOL    HW129002  11.723   7.275   2.431  1.0055 -0.3910  1.8724
41439SOL    HW229003  11.820   7.329   2.329 -1.9078  0.5960 -0.5061
41440SOL     OW29004   0.943  10.638   8.134 -0.1559 -0.5579  0.0338
41440SOL    HW129005   0.946  10.629   8.039 -0.1470  0.1635 -0.0422
41440SOL    HW229006   1.027  10.604   8.165  1.6329  2.8408 -0.5663
41441SOL     OW29007   4.554  10.777   2.233 -0.4019  0.3762  0.3233
41441SOL    HW129008   4.544  10.818   2.319 -1.8306 -0.6316  0.6847
41441SOL    HW229009   4.497  10.700   2.236 -0.0903  0.0231 -1.3567
41442SOL     OW29010   1.558   6.084   4.378 -0.0591 -0.1768  0.3285
41442SOL    HW129011   1.490   6.130   4.428  1.7302  1.4129  1.4479
41442SOL    HW229012   1.548   6.118   4.288 -0.4990  0.3154  0.5552
41443SOL     OW29013   5.885   7.741  10.803 -0.0535 -0.0685  0.0426
41443SOL    HW129014   5.963   7.789  10.776  0.7008  0.0819  2.2681
41443SOL    HW229015   5.915   7.651  10.815  0.4026  0.3693  2.9205
41444SOL     OW29016   9.118   4.349   1.194 -0.2598 -0.0551  0.1605
41444SOL    HW129017   9.103   4.442   1.208 -2.8874 -0.6869  2.5394
41444SOL    HW229018   9.048   4.321   1.136  0.3045 -0.6249 -0.2622
41445SOL     OW29019   4.977   5.349   9.945  0.1697 -0.0876 -0.2598
41445SOL    HW129020   4.993   5.260   9.914 -0.8744 -0.1879 -0.5632
41445SOL    HW229021   5.058   5.396   9.928  1.1874 -1.2710  1.0368
41446SOL     OW29022   2.378  11.953   2.239  0.1476 -0.2333  0.3234
41446SOL    HW129023   2.456  11.924   2.285 -0.1374  0.2687  1.1556
41446SOL    HW229024   2.333  12.011   2.302 -0.4891  0.1015 -0.4187
41447SOL     OW29025   8.846   0.532   0.817  0.7132 -0.1506 -0.0538
41447SOL    HW129026   8.876   0.494   0.899  2.4287  1.9454  0.3742
41447SOL    HW229027   8.833   0.625   0.836 -3.4482 -0.3190 -0.9990
41448SOL     OW29028   0.016   3.743   9.204  0.7360 -0.0009 -0.2589
41448SOL    HW129029  -0.009   3.708   9.119  0.7353 -0.8732  0.0881
41448SOL    HW229030  -0.060   3.728   9.260  1.8454 -2.3892  0.7219
41449SOL     OW29031   6.308   6.674   1.000  0.8032 -0.0267 -0.5259
41449SOL    HW129032   6.371   6.683   1.071  0.3223  1.2793 -0.2377
41449SOL    HW229033   6.304   6.580   0.983  0.4843 -0.4227  1.5708
41450SOL     OW29034   6.054   3.913   6.207 -0.1476  0.5827  0.0568
41450SOL    HW129035   6.002   3.949   6.135  1.7518  1.9741 -0.6989
41450SOL    HW229036   6.120   3.980   6.225  2.2924 -1.6360 -0.0003
41451SOL     OW29037  10.913   0.587   7.594  0.0047  0.0010 -0.1783
41451SOL    HW129038  10.954   0.500   7.595 -1.6969 -0.8399  0.0195
41451SOL    HW229039  10.880   0.597   7.505  0.0018  0.3619 -0.1385
41452SOL     OW29040   3.072   2.099   1.866 -0.0080 -0.2003 -0.0007
41452SOL    HW129041   3.101   2.086   1.957 -0.1585  1.1625  0.2620
41452SOL    HW229042   3.072   2.011   1.829  1.0639 -0.6701  1.0181
41453SOL     OW29043   4.329   6.946   0.036  0.2609 -0.0277  0.0605
41453SOL    HW129044   4.255   6.889   0.058 -1.3298  1.5061 -1.1503
41453SOL    HW229045   4.332   7.010   0.107  0.3690 -0.0213  0.0510
41454SOL     OW29046   1.392   6.449   2.235 -0.0438 -0.2012 -0.6393
41454SOL    HW129047   1.459   6.472   2.299 -1.1866 -0.0904  0.5515
41454SOL    HW229048   1.424   6.485   2.153  1.7975 -0.9539 -0.3058
41455SOL     OW29049   7.515   9.873   7.835  0.4045  0.2044 -0.1231
41455SOL    HW129050   7.498   9.943   7.772  1.6047 -0.6027 -1.3918
41455SOL    HW229051   7.608   9.852   7.824 -0.1635 -2.3755 -0.6234
41456SOL     OW29052   9.386   5.596   4.791 -0.1936  0.1715 -0.2394
41456SOL    HW129053   9.430   5.521   4.832  0.1633  0.5032  0.0009
41456SOL    HW229054   9.410   5.670   4.847  0.6319  0.7079 -1.2748
41457SOL     OW29055   1.537   3.993   0.046  0.4168  0.8964  0.4323
41457SOL    HW129056   1.509   3.946   0.124 -1.9945 -1.3840 -1.6057
41457SOL    HW229057   1.456   4.012  -0.001  1.8101  1.1414 -2.0521
41458SOL     OW29058   5.534   7.623   3.854 -0.3814  0.1763  0.3506
41458SOL    HW129059   5.462   7.584   3.805  0.0627 -1.1441  0.7122
41458SOL    HW229060   5.604   7.632   3.789 -0.2056 -0.4210  0.4526
41459SOL     OW29061  11.433   1.913   7.995 -0.7037 -0.2230  0.2307
41459SOL    HW129062  11.469   2.001   7.992  1.2122 -0.9363  0.9790
41459SOL    HW229063  11.343   1.922   7.962 -0.3537  1.8829 -0.2356
41460SOL     OW29064   5.061   1.826  11.546 -0.1025  0.2283  0.0884
41460SOL    HW129065   5.133   1.800  11.488 -1.8289 -1.8848 -1.2657
41460SOL    HW229066   5.003   1.877  11.490 -0.4442  0.5532  0.7280
41461SOL     OW29067   1.326   4.831   9.458  0.1340  0.4742  0.4299
41461SOL    HW129068   1.247   4.787   9.427  1.2365 -2.4218  1.4104
41461SOL    HW229069   1.381   4.838   9.379 -0.8348  2.0455 -0.1487
41462SOL     OW29070  11.824  10.022   0.208 -0.0351  0.1847 -0.4438
41462SOL    HW129071  11.883  10.095   0.226  0.0519  0.2066 -0.8096
41462SOL    HW229072  11.768  10.017   0.286 -0.6066  1.1870 -0.7796
41463SOL     OW29073   0.574   7.003   4.815 -0.5860 -0.0174  0.2777
41463SOL    HW129074   0.513   6.999   4.889  0.1159  1.5738  0.9863
41463SOL    HW229075   0.652   6.958   4.847 -0.2036  0.8570  0.6256
41464SOL     OW29076  11.361  11.554   9.520 -0.3524  0.2865  0.2310
41464SOL    HW129077  11.308  11.491   9.569  0.0939  1.3352  2.1722
41464SOL    HW229078  11.383  11.509   9.439 -1.6174 -1.3273  0.7311
41465SOL     OW29079   4.616   7.373   0.956  0.2441 -0.1434 -0.5044
41465SOL    HW129080   4.629   7.466   0.976 -2.6600  0.0294  1.0308
41465SOL    HW229081   4.556   7.342   1.023 -0.6586 -2.6046 -2.3020
41466SOL     OW29082   3.350  11.501  11.409  0.4775 -0.6259  0.1583
41466SOL    HW129083   3.331  11.438  11.478  1.0741  0.4133  1.3176
41466SOL    HW229084   3.441  11.483  11.383 -0.1444 -1.8415 -1.2897
41467SOL     OW29085   3.293  10.964   0.130 -0.3454  0.3738  0.0858
41467SOL    HW129086   3.203  10.996   0.126 -0.9488 -1.0606  1.1158
41467SOL    HW229087   3.288  10.875   0.095  0.5370  0.0438  0.7605
41468SOL     OW29088   3.286   9.653   8.693  0.0968 -0.3139 -0.3425
41468SOL    HW129089   3.357   9.650   8.629  0.8638 -1.0510  0.5146
41468SOL    HW229090   3.302   9.733   8.743  0.4143 -0.5534 -0.0577
41469SOL     OW29091  10.974   2.707   7.120  0.1151 -0.1836  0.0954
41469SOL    HW129092  11.002   2.758   7.196 -0.7362 -1.8339  1.5888
41469SOL    HW229093  10.900   2.757   7.085  3.0253  2.8885 -2.3993
41470SOL     OW29094   0.397   7.883   4.988 -0.0622 -0.4729  0.5822
41470SOL    HW129095   0.305   7.859   4.977 -0.1860 -0.9019  2.2828
41470SOL    HW229096   0.445   7.809   4.951 -0.3724 -0.0033 -0.8147
41471SOL     OW29097  11.003  10.900  10.815  0.2087  0.3053 -0.4283
41471SOL    HW129098  10.940  10.869  10.750 -0.4523 -0.6117  0.5948
41471SOL    HW229099  11.007  10.995  10.803  0.1985  0.1349 -1.8597
41472SOL     OW29100   0.442  10.069   4.894  0.4237  0.0481 -0.2898
41472SOL    HW129101   0.500  10.082   4.969 -1.2464  3.9282  0.5978
41472SOL    HW229102   0.358  10.043   4.933  0.4680 -1.6304 -1.2133
41473SOL     OW29103   4.997   7.627  11.443  0.3510 -0.7047 -0.5470
41473SOL    HW129104   4.959   7.709  11.410  0.3172 -0.5656 -0.1689
41473SOL    HW229105   5.053   7.597  11.372 -1.3310 -1.5265 -1.6052
41474SOL     OW29106   6.662   4.809   2.416  0.1848 -0.7433 -0.4042
41474SOL    HW129107   6.681   4.891   2.370 -1.2280  0.3572  0.8795
41474SOL    HW229108   6.625   4.752   2.348  1.0709 -0.2955 -1.2923
41475SOL     OW29109  11.622   6.114   9.413  0.4289  0.5218 -0.4076
41475SOL    HW129110  11.694   6.073   9.460  1.2041 -0.5068 -2.3853
41475SOL    HW229111  11.638   6.208   9.422  1.3505  0.3205  0.1352
41476SOL     OW29112   9.905   2.101   4.096  0.3866  0.1871  0.5391
41476SOL    HW129113   9.925   2.009   4.114 -0.0504  0.2387  1.3512
41476SOL    HW229114   9.818   2.100   4.056  0.6889  0.2009 -0.1394
41477SOL     OW29115   3.804   8.375  11.286 -0.0999 -0.1164  1.1959
41477SOL    HW129116   3.872   8.426  11.243  0.9461 -1.0686  1.6945
41477SOL    HW229117   3.753   8.440  11.336  0.1711  0.6508  0.4950
41478SOL     OW29118   2.469   0.164   9.345  0.1159 -0.1788 -0.8598
41478SOL    HW129119   2.387   0.174   9.297 -0.1890  0.8462 -0.1592
41478SOL    HW229120   2.493   0.072   9.334 -1.8651 -0.8503  0.0828
41479SOL     OW29121  11.533   6.593   8.915  0.4491 -0.2338  0.5261
41479SOL    HW129122  11.474   6.522   8.891 -0.3966  1.3911 -2.9415
41479SOL    HW229123  11.476   6.661   8.951  0.3988  0.5231 -0.8729
41480SOL     OW29124  11.352   1.561   8.894  0.0093 -0.0909  0.5705
41480SOL    HW129125  11.286   1.628   8.880  0.0946 -0.2620 -0.8273
41480SOL    HW229126  11.405   1.593   8.968 -0.2694  1.1122  0.2635
41481SOL     OW29127   7.989   4.850   9.144  0.2968  0.6660  0.6789
41481SOL    HW129128   7.978   4.816   9.233 -0.2262  0.4413  0.5347
41481SOL    HW229129   7.905   4.891   9.124  0.5335  1.0326  0.4164
41482SOL     OW29130   9.173   0.631   1.811 -1.0154  0.1269  0.1613
41482SOL    HW129131   9.263   0.626   1.779 -0.7233 -0.3154  1.0075
41482SOL    HW229132   9.182   0.652   1.904 -1.7559 -0.6054  0.4103
41483SOL     OW29133   8.047   9.189   4.028  0.3722  0.1129 -0.4062
41483SOL    HW129134   8.012   9.101   4.016  1.1866 -0.4415  0.9932
41483SOL    HW229135   8.104   9.204   3.952 -0.2099 -0.3286 -0.9340
41484SOL     OW29136   2.278   7.846   6.966 -0.5816  0.0597 -0.5119
41484SOL    HW129137   2.258   7.836   6.872  1.4945  1.4748 -1.1732
41484SOL    HW229138   2.225   7.921   6.993 -2.9592 -1.7155  0.1199
41485SOL     OW29139   6.113   6.112   7.292  0.5133  0.3168  0.2884
41485SOL    HW129140   6.110   6.200   7.253  0.4710  0.5079  0.7199
41485SOL    HW229141   6.093   6.053   7.219 -0.0133  0.6987  0.1172
41486SOL     OW29142  11.190  11.732   3.031  0.3917  0.1352  0.1137
41486SOL    HW129143  11.117  11.672   3.022  1.4991 -1.0359 -1.8526
41486SOL    HW229144  11.149  11.818   3.044 -1.3094 -0.5705 -0.2838
41487SOL     OW29145   3.813   8.939   4.316  0.1182  0.3292 -0.4849
41487SOL    HW129146   3.905   8.945   4.340 -0.3992  0.0058  1.7994
41487SOL    HW229147   3.772   9.013   4.361 -0.7056  0.6404 -1.7156
41488SOL     OW29148   2.083   2.557   5.814 -0.2209 -0.2284  0.1452
41488SOL    HW129149   2.084   2.495   5.741 -0.5649  2.5045 -2.3710
41488SOL    HW229150   2.105   2.641   5.774  0.1066  1.3362  3.3450
41489SOL     OW29151   7.871  11.797   2.874  0.1039 -0.3094  0.1115
41489SOL    HW129152   7.796  11.741   2.854 -0.0843 -0.7292  1.8063
41489SOL    HW229153   7.946  11.739   2.875  0.4275  0.0555 -1.2583
41490SOL     OW29154  11.394   5.353   9.580 -0.1946  0.1220  0.4045
41490SOL    HW129155  11.338   5.351   9.658  0.9423  0.1199  1.2475
41490SOL    HW229156  11.475   5.395   9.609  0.7521 -1.0255 -0.4296
41491SOL     OW29157   2.495   3.517  11.315  0.4889  0.2915 -0.5279
41491SOL    HW129158   2.512   3.490  11.225 -0.7403  0.2192 -0.7554
41491SOL    HW229159   2.444   3.598  11.306 -1.8562 -1.0431  0.0289
41492SOL     OW29160   8.434  10.564   7.921  0.3579  0.2970  0.0426
41492SOL    HW129161   8.507  10.624   7.907  0.8448 -0.4891 -0.9243
41492SOL    HW229162   8.361  10.620   7.947  0.9830  1.2261 -0.1725
41493SOL     OW29163   3.460   2.996   9.183  0.5213  0.0296 -0.0340
41493SOL    HW129164   3.423   3.032   9.103 -0.9947 -0.9950  0.1563
41493SOL    HW229165   3.534   3.053   9.204 -0.6767  1.9163 -0.7155
41494SOL     OW29166   2.185   6.064   9.803 -0.2831 -0.6973  0.0377
41494SOL    HW129167   2.115   6.113   9.847  0.0871 -0.0864 -0.0426
41494SOL    HW229168   2.238   6.028   9.874 -0.1599 -0.3997  0.0991
41495SOL     OW29169   3.392   4.326  11.937 -0.3265  0.1667 -0.3106
41495SOL    HW129170   3.482   4.328  11.970 -0.2201  1.3086 -0.6296
41495SOL    HW229171   3.376   4.415  11.906 -0.5164 -0.7287 -3.0594
41496SOL     OW29172   0.696   7.761   0.956 -0.3498  0.1807 -0.2225
41496SOL    HW129173   0.741   7.841   0.932 -0.0824 -0.0361 -0.4558
41496SOL    HW229174   0.766   7.697   0.968 -0.4289  0.3862  1.5728
41497SOL     OW29175  10.034   0.345   3.281 -0.0995  0.1269 -0.5454
41497SOL    HW129176   9.963   0.303   3.232  2.2725 -1.4866 -2.9009
41497SOL    HW229177  10.053   0.284   3.352 -0.9930  0.5247  0.0436
41498SOL     OW29178   0.423   4.456   3.557 -0.6754 -0.0276  0.4823
41498SOL    HW129179   0.432   4.549   3.578 -1.5170 -0.0369  0.9428
41498SOL    HW229180   0.380   4.455   3.472  1.1688 -0.0011 -0.4977
41499SOL     OW29181   3.366   6.683  10.565  0.4550 -0.0798 -0.5273
41499SOL    HW129182   3.342   6.626  10.492 -1.7898 -1.1565  0.9707
41499SOL    HW229183   3.289   6.737  10.581  0.0247 -1.3859  2.3928
41500SOL     OW29184   2.944   5.890   2.941  0.0188 -0.1742 -0.4063
41500SOL    HW129185   2.894   5.887   2.859  1.6330  0.8807 -1.4892
41500SOL    HW229186   2.957   5.798   2.964 -1.6821 -0.4695 -0.5341
41501SOL     OW29187  11.605   4.683   7.916  0.4857 -0.8302  0.1875
41501SOL    HW129188  11.570   4.758   7.867  0.2503 -0.4706  0.8795
41501SOL    HW229189  11.695   4.709   7.939  0.3240 -0.6493  0.6337
41502SOL     OW29190   3.053   5.686   8.713 -0.0139  0.6134 -0.4495
41502SOL    HW129191   3.023   5.605   8.753  1.0485  0.2198 -0.4365
41502SOL    HW229192   3.018   5.755   8.770 -2.2163  0.2822 -1.2922
41503SOL     OW29193  11.786   0.369   0.674 -0.1527 -0.0789 -0.1427
41503SOL    HW129194  11.836   0.429   0.618 -1.9601  1.0399 -0.6402
41503SOL    HW229195  11.696   0.401   0.669 -0.8174 -1.5781  1.3022
41504SOL     OW29196   6.239   9.582   1.033  0.5218 -0.1284 -0.2140
41504SOL    HW129197   6.157   9.573   1.081 -1.3524  2.7238 -2.5421
41504SOL    HW229198   6.283   9.656   1.075  1.3910 -0.8850  0.2556
41505SOL     OW29199  10.202   4.658   3.068  0.8019 -0.4641  0.0455
41505SOL    HW129200  10.118   4.629   3.105  0.6825  0.4668  0.5206
41505SOL    HW229201  10.266   4.639   3.136  1.0122 -1.2908 -0.3657
41506SOL     OW29202   1.116  11.347   0.602 -0.1804  0.1135 -0.1795
41506SOL    HW129203   1.101  11.392   0.685 -0.2628  0.5507 -0.4246
41506SOL    HW229204   1.044  11.376   0.546 -0.2987 -0.4175 -0.3060
41507SOL     OW29205   5.039   1.397   3.760  0.0198 -0.3003  0.1888
41507SOL    HW129206   5.113   1.457   3.774 -0.9681  0.9622  0.2092
41507SOL    HW229207   4.998   1.391   3.846 -0.1566 -0.6525  0.0784
41508SOL     OW29208   2.687   5.069   6.823  0.1239  0.3160 -0.0524
41508SOL    HW129209   2.734   5.096   6.745  2.1620 -0.6070  0.7887
41508SOL    HW229210   2.755   5.050   6.888 -1.4102 -0.7484  1.3565
41509SOL     OW29211  11.058   9.878   2.194  0.2414 -0.3474  0.0224
41509SOL    HW129212  10.993   9.826   2.146  1.7030 -1.8025 -0.5030
41509SOL    HW229213  11.088   9.819   2.263  1.3983  0.0628 -0.1113
41510SOL     OW29214   4.663   2.795   0.261 -0.2089  0.6665 -0.1589
41510SOL    HW129215   4.627   2.814   0.348 -0.8061  0.0276 -0.2631
41510SOL    HW229216   4.712   2.874   0.238  1.9268  0.0290  1.7417
41511SOL     OW29217   1.449   6.547   2.000 -0.3923  0.1346  0.1641
41511SOL    HW129218   1.426   6.628   1.954 -0.8746  0.4636  0.9635
41511SOL    HW229219   1.437   6.478   1.935  0.7542  0.7690 -0.7530
41512SOL     OW29220   9.956   7.981  10.625  0.4029 -0.2910  0.4323
41512SOL    HW129221  10.032   8.039  10.627  0.4212 -0.2579 -0.7844
41512SOL    HW229222   9.991   7.895  10.650  0.6318 -0.0666  0.8985
41513SOL     OW29223  11.061   6.692   3.265  0.1694  0.2253 -0.3018
41513SOL    HW129224  11.154   6.713   3.267 -0.1172  1.6725 -0.9387
41513SOL    HW229225  11.055   6.608   3.310  2.0256 -0.9607 -2.1161
41514SOL     OW29226   3.648   8.955   0.652  0.2357  0.2303 -0.0908
41514SOL    HW129227   3.616   8.878   0.700  1.0208 -0.9813 -1.4150
41514SOL    HW229228   3.592   8.960   0.575 -1.8501  2.9281  1.4516
41515SOL     OW29229   4.030   6.426   9.589  0.8005 -0.5757 -0.2751
41515SOL    HW129230   4.002   6.342   9.625  2.0279 -0.9262 -0.1003
41515SOL    HW229231   3.977   6.491   9.635 -0.0976 -1.2411 -0.3501
41516SOL     OW29232  10.670   5.361   2.595 -0.1533  0.2320  0.2583
41516SOL    HW129233  10.662   5.430   2.528 -0.1254 -1.2461 -1.3388
41516SOL    HW229234  10.581   5.349   2.627 -0.4329 -0.0407 -0.5837
41517SOL     OW29235   2.713   8.506   4.679 -0.6619 -0.1008  0.1600
41517SOL    HW129236   2.793   8.551   4.654 -0.5100  0.5891  1.7316
41517SOL    HW229237   2.644   8.549   4.628 -0.1967  0.2268 -0.1931
41518SOL     OW29238   5.510   3.867   3.113 -0.7713 -0.2466 -0.2246
41518SOL    HW129239   5.475   3.796   3.059 -0.9953 -0.3350  0.0368
41518SOL    HW229240   5.455   3.942   3.091  0.4391  0.2806 -1.6868
41519SOL     OW29241   2.554   0.091   6.709 -0.1194 -0.5160 -0.1174
41519SOL    HW129242   2.611   0.054   6.776 -2.0121 -1.4282  1.0794
41519SOL    HW229243   2.504   0.017   6.675 -1.7421  0.4337  0.0608
41520SOL     OW29244   2.226   2.270  10.797 -0.7823 -0.9667 -0.0291
41520SOL    HW129245   2.152   2.314  10.839 -1.6072 -1.7013 -0.6925
41520SOL    HW229246   2.230   2.308  10.709 -0.2780 -0.8342  0.0469
41521SOL     OW29247   6.468  10.854   1.291 -0.1137 -0.1638  0.6202
41521SOL    HW129248   6.450  10.811   1.374 -0.5551  0.2408  0.7388
41521SOL    HW229249   6.533  10.921   1.311 -1.9103  1.5057  1.1201
41522SOL     OW29250   8.352   2.689  11.303  0.1050  0.4165  0.5423
41522SOL    HW129251   8.326   2.642  11.224  0.6459  0.8772  0.0751
41522SOL    HW229252   8.385   2.621  11.362 -0.5740  0.0383  0.4845
41523SOL     OW29253   7.509   1.505   8.398  0.2416 -0.5632  0.4072
41523SOL    HW129254   7.541   1.484   8.486 -0.3184 -2.7179  0.1354
41523SOL    HW229255   7.534   1.597   8.385  1.8741 -0.7145  2.1156
41524SOL     OW29256   9.033   8.748   1.899 -0.7009  0.6656  0.3376
41524SOL    HW129257   8.980   8.794   1.965 -2.2521 -0.0345 -0.3863
41524SOL    HW229258   9.069   8.818   1.844  1.5679  1.3739  2.5036
41525SOL     OW29259   6.324   5.176  11.197 -0.7981 -0.0215  0.0217
41525SOL    HW129260   6.332   5.170  11.292 -0.6173  0.5756  0.0475
41525SOL    HW229261   6.245   5.125  11.176  0.5253 -2.3072  0.2231
41526SOL     OW29262  10.131   4.606   2.705  0.1106  0.5062  0.4180
41526SOL    HW129263  10.169   4.648   2.628 -0.1211  0.7640  0.4456
41526SOL    HW229264  10.205   4.598   2.766  0.3458  0.0997  0.0884
41527SOL     OW29265  11.984   9.475  10.908  0.3269 -0.3434 -0.2652
41527SOL    HW129266  11.989   9.387  10.944  2.2550  0.0909  0.6981
41527SOL    HW229267  12.034   9.529  10.970  1.2685  0.9694 -2.0705
41528SOL     OW29268   4.458   9.963   2.043 -0.4130  0.0082  0.0728
41528SOL    HW129269   4.408  10.044   2.029 -0.3293 -0.1356 -1.1644
41528SOL    HW229270   4.493   9.941   1.957  0.9776 -0.4319  0.7201
41529SOL     OW29271   2.124   2.469   6.926  0.1775  0.1047 -0.1915
41529SOL    HW129272   2.180   2.540   6.956  1.8763 -0.5955 -1.5467
41529SOL    HW229273   2.174   2.390   6.944 -0.4836 -0.5623 -1.1943
41530SOL     OW29274   6.141   7.368   4.177 -0.3390  0.0260 -0.1826
41530SOL    HW129275   6.059   7.411   4.199 -0.2807 -0.4081  0.9148
41530SOL    HW229276   6.206   7.438   4.176 -0.6004  0.2671 -0.4216
41531SOL     OW29277   3.906   8.942  11.366 -0.5889  0.2113 -0.2720
41531SOL    HW129278   3.811   8.933  11.376 -0.3545 -1.5543  0.9174
41531SOL    HW229279   3.917   8.994  11.286 -2.5451  1.4356  0.1693
41532SOL     OW29280   9.795   2.778   1.855  0.5502  0.2576 -0.4111
41532SOL    HW129281   9.880   2.732   1.857  0.7550  0.5810 -1.4052
41532SOL    HW229282   9.771   2.786   1.947  1.1235 -0.7160 -0.1544
41533SOL     OW29283   8.132   1.243   0.567  0.2081  0.7801  0.0755
41533SOL    HW129284   8.222   1.270   0.587  0.0689  0.5749  1.0292
41533SOL    HW229285   8.134   1.147   0.575  0.0297  0.7320 -0.4471
41534SOL     OW29286  11.058   0.816   8.483  0.2909 -0.1718  0.0586
41534SOL    HW129287  11.064   0.864   8.401  0.4513  0.1667  0.2669
41534SOL    HW229288  11.018   0.878   8.545  0.4737 -0.3144  0.3213
41535SOL     OW29289   9.676   0.573  10.503 -0.2706 -0.1588 -0.0915
41535SOL    HW129290   9.645   0.531  10.423 -0.2645 -1.1664  0.4295
41535SOL    HW229291   9.726   0.506  10.548  0.0398  0.5138  0.5894
41536SOL     OW29292   0.286   2.260   8.148 -0.3639 -0.0166 -0.0341
41536SOL    HW129293   0.230   2.324   8.192  1.0286  1.9368 -0.9492
41536SOL    HW229294   0.245   2.246   8.063 -0.1924  0.3986 -0.1891
41537SOL     OW29295   8.718   6.434   0.394 -0.3951 -0.4766  0.0304
41537SOL    HW129296   8.647   6.370   0.384 -0.9208  0.1767 -0.4708
41537SOL    HW229297   8.704   6.470   0.482 -0.6892 -0.3418 -0.0711
41538SOL     OW29298  10.303   2.908   5.598  0.2588 -0.2412 -0.2692
41538SOL    HW129299  10.280   2.815   5.602 -0.4349 -0.0464  0.5986
41538SOL    HW229300  10.342   2.919   5.511  1.0232 -1.4898 -0.1148
41539SOL     OW29301   0.427   7.641   2.932 -0.0142 -0.1858  0.1132
41539SOL    HW129302   0.467   7.555   2.920 -1.2101 -0.8214  0.5054
41539SOL    HW229303   0.367   7.650   2.858 -0.5661 -0.0845  0.5707
41540SOL     OW29304  10.642   3.779   6.628  0.6625 -0.0005  0.2116
41540SOL    HW129305  10.715   3.825   6.670  0.9997 -0.0297 -0.3235
41540SOL    HW229306  10.680   3.696   6.598  1.0379  0.9043 -2.0690
41541SOL     OW29307   1.478  10.983   5.914 -0.0004 -0.4003  0.3979
41541SOL    HW129308   1.424  11.049   5.958  1.7122  0.3908  1.4044
41541SOL    HW229309   1.512  10.929   5.985  1.9321  0.2196  0.0074
41542SOL     OW29310   1.380  10.862   1.463 -0.2351  0.4290 -0.1283
41542SOL    HW129311   1.303  10.915   1.486 -0.8022 -0.4459  0.0393
41542SOL    HW229312   1.380  10.860   1.367  0.1554  1.2317 -0.1597
41543SOL     OW29313   1.916  11.157   4.873 -0.4878  0.3059  0.3807
41543SOL    HW129314   1.980  11.120   4.812 -1.8909 -1.1712 -0.2616
41543SOL    HW229315   1.911  11.249   4.849 -0.6430 -0.1385 -1.4431
41544SOL     OW29316   8.238  11.783   9.222 -0.3579  0.3459  0.2509
41544SOL    HW129317   8.204  11.784   9.133  0.8430  0.2424 -0.2189
41544SOL    HW229318   8.160  11.769   9.277 -1.0508 -0.0164 -0.7955
41545SOL     OW29319   4.766   5.898   9.504 -0.0774  0.1252 -0.1830
41545SOL    HW129320   4.846   5.871   9.549  0.3555  0.5143 -0.6973
41545SOL    HW229321   4.789   5.982   9.463 -0.6754  0.1247 -0.5339
41546SOL     OW29322   2.621   2.757   5.056 -0.3665  0.4154 -0.2850
41546SOL    HW129323   2.610   2.787   5.147 -1.3906  1.3361 -0.6907
41546SOL    HW229324   2.674   2.678   5.063 -0.9102  0.1529  1.1661
41547SOL     OW29325   0.530   0.656   3.033  0.2194  0.4067  0.4395
41547SOL    HW129326   0.534   0.660   2.937  1.3207  1.7285  0.5048
41547SOL    HW229327   0.483   0.575   3.052 -0.1106  0.1752 -1.2181
41548SOL     OW29328   4.792  11.901   6.817  0.3244 -0.0013  0.2101
41548SOL    HW129329   4.749  11.827   6.860  0.9464 -0.6096 -0.1844
41548SOL    HW229330   4.736  11.976   6.836  0.4604 -0.2913  1.8673
41549SOL     OW29331   0.647   9.609   4.104  0.2540  0.0575  0.1953
41549SOL    HW129332   0.576   9.646   4.052  0.0547  3.1551  2.4128
41549SOL    HW229333   0.716   9.589   4.040 -1.0241  0.8971 -1.5289
41550SOL     OW29334   2.860   0.255   8.827  0.4075 -0.4972  0.2421
41550SOL    HW129335   2.776   0.219   8.801  0.4724  0.2427 -1.0955
41550SOL    HW229336   2.860   0.345   8.793  0.3468  0.7558  3.2616
41551SOL     OW29337   7.520   5.945   9.426 -0.5595  0.2590 -0.1545
41551SOL    HW129338   7.566   5.994   9.358  2.2155  1.3688  2.3297
41551SOL    HW229339   7.444   6.000   9.448  0.9560  2.1677  0.6123
41552SOL     OW29340   3.716   6.270   1.238 -0.4685 -0.9152 -0.4783
41552SOL    HW129341   3.631   6.235   1.264 -1.0759  0.5421 -0.4441
41552SOL    HW229342   3.711   6.363   1.257  0.0590 -0.2374 -3.1777
41553SOL     OW29343   5.402   1.031   1.222 -0.2419 -0.4304 -0.4108
41553SOL    HW129344   5.402   0.938   1.244  0.2620 -0.6098 -1.1587
41553SOL    HW229345   5.437   1.036   1.133  0.9873  0.5744  0.0902
41554SOL     OW29346   3.404   7.214  10.450  0.1423  0.0529 -0.0935
41554SOL    HW129347   3.495   7.184  10.444  0.0203 -0.1715 -1.0149
41554SOL    HW229348   3.399   7.258  10.535  0.2547 -2.7411  1.4794
41555SOL     OW29349   1.097   5.676   6.175  0.1109  0.4903 -0.2230
41555SOL    HW129350   1.031   5.630   6.228 -0.5305  1.0258 -0.5375
41555SOL    HW229351   1.180   5.655   6.217 -0.2583 -0.2058  0.1856
41556SOL     OW29352   5.349   2.166   7.089  0.2962  0.3333  0.4676
41556SOL    HW129353   5.270   2.215   7.113  0.7461  1.5335 -0.3822
41556SOL    HW229354   5.330   2.076   7.115 -1.1491  0.6915  0.7643
41557SOL     OW29355   2.525   0.084   5.878 -0.0249  0.2533  0.0984
41557SOL    HW129356   2.541   0.139   5.955  1.0528 -0.2958  0.2802
41557SOL    HW229357   2.555  -0.003   5.903  1.0407  0.2176 -1.1652
41558SOL     OW29358   5.871   2.118   3.862 -0.5611 -0.0744  0.1786
41558SOL    HW129359   5.782   2.103   3.829 -1.0414  0.5635  1.1388
41558SOL    HW229360   5.876   2.212   3.876  0.2618 -0.1090  0.1477
41559SOL     OW29361   0.016   8.645   5.348  0.1841 -0.6430  0.2161
41559SOL    HW129362   0.082   8.656   5.416  0.6269 -1.6396 -0.0306
41559SOL    HW229363  -0.039   8.573   5.379 -0.1252 -0.5375 -0.0817
41560SOL     OW29364   5.922   8.591   4.113  0.6043  0.4835  0.2721
41560SOL    HW129365   5.932   8.565   4.021 -0.2769 -0.0191  0.3142
41560SOL    HW229366   5.857   8.531   4.148  1.2676  0.3752  1.3594
41561SOL     OW29367   7.147   7.610   7.289 -0.2173 -0.4876 -0.4776
41561SOL    HW129368   7.165   7.628   7.381  0.1073  2.7247 -1.0826
41561SOL    HW229369   7.189   7.525   7.272 -0.1160 -1.0526  2.2207
41562SOL     OW29370  11.857  11.595   3.958  0.1892 -0.1882  0.1163
41562SOL    HW129371  11.948  11.624   3.967  0.0103  0.4217 -0.0007
41562SOL    HW229372  11.831  11.570   4.047 -0.5233  2.6837  0.8477
41563SOL     OW29373   9.605   1.853   1.848  0.0653 -0.0873  0.1100
41563SOL    HW129374   9.592   1.787   1.780 -0.7334 -2.0949  2.1182
41563SOL    HW229375   9.551   1.824   1.921  1.1184  1.8251  1.7462
41564SOL     OW29376   9.702   7.948  10.956  0.7731  0.0771  0.7199
41564SOL    HW129377   9.636   7.984  11.014  2.2216  0.9070  1.9467
41564SOL    HW229378   9.680   7.855  10.949 -1.5613  0.6645 -0.4418
41565SOL     OW29379   4.216   1.588   1.444  0.0944  0.0869 -0.2007
41565SOL    HW129380   4.204   1.681   1.424  0.4748  0.0733 -0.5141
41565SOL    HW229381   4.271   1.556   1.373 -1.3101 -0.7402 -0.9672
41566SOL     OW29382   9.219  10.875   1.099  0.3270 -0.5047  0.1749
41566SOL    HW129383   9.143  10.929   1.076  1.1361  0.7045  0.2612
41566SOL    HW229384   9.192  10.786   1.077 -0.9257 -0.0418 -0.2810
41567SOL     OW29385   6.209  11.589   6.850  0.1980  0.3998  0.2371
41567SOL    HW129386   6.251  11.514   6.892 -0.1315  0.1284  0.0860
41567SOL    HW229387   6.278  11.628   6.797  0.3278  0.1117  0.1932
41568SOL     OW29388  11.455   6.440   7.282  0.1581  0.2064 -0.2765
41568SOL    HW129389  11.419   6.353   7.261 -0.4314  0.7814 -1.8176
41568SOL    HW229390  11.408   6.467   7.361  0.6928 -1.0631  0.4999
41569SOL     OW29391   6.550   8.120   4.970  0.0009 -0.0796 -0.3600
41569SOL    HW129392   6.624   8.177   4.952 -0.9647  1.1691 -0.4640
41569SOL    HW229393   6.540   8.122   5.065  0.6308 -0.9533 -0.2639
41570SOL     OW29394  11.336   1.848   3.441  0.2262 -0.2661  0.0503
41570SOL    HW129395  11.418   1.867   3.487  0.6119 -1.1372 -0.2612
41570SOL    HW229396  11.354   1.767   3.393  0.0068  0.8830 -2.0642
41571SOL     OW29397   0.152   6.630   4.994  0.2836  0.2432  0.2756
41571SOL    HW129398   0.100   6.709   5.011 -1.0544 -0.5366  0.0187
41571SOL    HW229399   0.239   6.650   5.029 -0.2348  1.5343  0.9119
41572SOL     OW29400   2.092   8.374  11.072 -0.4079 -0.0276 -0.2334
41572SOL    HW129401   2.107   8.388  11.166  0.5375  0.5969 -0.4698
41572SOL    HW229402   2.031   8.300  11.069  0.7746 -1.0978  0.8484
41573SOL     OW29403   5.486   4.387  10.897 -0.0285 -0.3631 -0.3561
41573SOL    HW129404   5.474   4.467  10.949 -0.9301 -0.3280 -0.6118
41573SOL    HW229405   5.580   4.368  10.905  0.7209  2.0487 -2.2322
41574SOL     OW29406   5.090   9.071   8.363  0.0663 -0.1024 -0.4479
41574SOL    HW129407   5.155   9.132   8.397 -0.7887  0.2301  0.6410
41574SOL    HW229408   5.015   9.126   8.342  0.1064 -0.4829 -1.6822
41575SOL     OW29409   4.646   1.967  10.633 -0.1560  0.1396  0.3446
41575SOL    HW129410   4.553   1.984  10.620 -0.0079  0.2356 -0.6813
41575SOL    HW229411   4.681   2.049  10.669 -0.6094 -0.1853  1.5841
41576SOL     OW29412   1.493  11.546   6.853 -0.2398  0.3563  0.1685
41576SOL    HW129413   1.501  11.529   6.759  0.1697  0.1556  0.2402
41576SOL    HW229414   1.547  11.623   6.869 -0.6854  0.6737  0.1571
41577SOL     OW29415   9.286   3.064  10.325 -0.2393  0.2567  0.0907
41577SOL    HW129416   9.276   3.134  10.260 -2.5038 -0.2774 -0.1997
41577SOL    HW229417   9.368   3.020  10.300  0.0098  1.3515 -1.1216
41578SOL     OW29418   6.708   6.602   9.469 -0.4947 -0.8339 -0.1161
41578SOL    HW129419   6.616   6.595   9.444 -0.6310 -0.3385  0.2173
41578SOL    HW229420   6.733   6.513   9.493 -1.4684 -0.6525  1.7343
41579SOL     OW29421   4.998   0.382   4.216  0.3500  0.0514  0.5666
41579SOL    HW129422   5.070   0.434   4.182  1.2600 -0.6136  1.4153
41579SOL    HW229423   5.031   0.292   4.217 -1.0672 -0.5233 -0.5582
41580SOL     OW29424   8.630   1.959   4.059  0.3024  0.4768 -0.2819
41580SOL    HW129425   8.603   1.976   3.968 -1.1627 -3.4186 -0.7707
41580SOL    HW229426   8.549   1.959   4.109  0.6336 -0.9832  0.3014
41581SOL     OW29427   5.944  10.801   3.720  0.3296  0.6413  0.3858
41581SOL    HW129428   5.928  10.787   3.813 -1.8805  2.7255  0.4393
41581SOL    HW229429   6.039  10.802   3.711  0.6582 -2.7819  1.9746
41582SOL     OW29430  11.450   8.266   1.459  0.8673  0.2370 -0.3341
41582SOL    HW129431  11.356   8.282   1.448  0.2525 -1.7315  1.4875
41582SOL    HW229432  11.467   8.278   1.552  2.0336 -1.2283 -0.3156
41583SOL     OW29433   8.938   1.586   1.856  0.4261 -0.3093 -0.1219
41583SOL    HW129434   9.014   1.593   1.799  0.4869  0.3545  0.0378
41583SOL    HW229435   8.867   1.627   1.806  0.0345 -1.4073 -0.4991
41584SOL     OW29436  11.087  11.997   3.700 -0.1104 -0.1859 -0.4304
41584SOL    HW129437  11.145  12.020   3.773 -0.5853 -0.9223  0.1995
41584SOL    HW229438  11.111  11.906   3.678 -0.2844 -0.1234 -0.8938
41585SOL     OW29439   0.173   2.345   3.937 -0.3222 -0.3112  0.6435
41585SOL    HW129440   0.133   2.428   3.960  0.5018  0.2650  0.0354
41585SOL    HW229441   0.216   2.315   4.017  0.3667  0.4237  0.5556
41586SOL     OW29442   6.220   1.448   8.052 -0.0617 -0.4332 -0.1111
41586SOL    HW129443   6.189   1.463   7.963 -1.1436  0.1394  0.3409
41586SOL    HW229444   6.239   1.355   8.056  0.3146 -0.4065 -1.0352
41587SOL     OW29445   3.338  10.893   8.105 -0.3383 -0.1786  0.0002
41587SOL    HW129446   3.300  10.899   8.018  1.9695  0.4298 -1.0425
41587SOL    HW229447   3.350  10.984   8.132  0.5872 -0.3323  0.1547
41588SOL     OW29448   2.930   5.053   8.437 -0.1926 -0.2528 -0.1550
41588SOL    HW129449   3.013   5.024   8.399 -0.7025  1.1615 -2.5021
41588SOL    HW229450   2.956   5.121   8.500  0.5165 -1.1842  0.6073
41589SOL     OW29451   1.428   8.721   9.293 -0.3702 -0.2449 -0.4703
41589SOL    HW129452   1.470   8.807   9.291  1.2936 -1.0193 -0.3132
41589SOL    HW229453   1.411   8.706   9.386  1.0241 -0.8455 -0.2942
41590SOL     OW29454   7.731   3.805  11.782 -0.8757  0.4139 -0.4547
41590SOL    HW129455   7.651   3.762  11.751 -0.2105 -1.2689  0.0818
41590SOL    HW229456   7.729   3.794  11.877 -0.5240  1.3097 -0.3348
41591SOL     OW29457   9.542   4.904   3.203  0.0753  0.4332  0.3963
41591SOL    HW129458   9.458   4.938   3.235  0.1221  1.7967 -0.7904
41591SOL    HW229459   9.607   4.966   3.235  0.3742  0.5253 -0.3622
41592SOL     OW29460   5.098   2.439   4.587 -0.1388 -0.1105 -0.0811
41592SOL    HW129461   5.084   2.531   4.562 -0.8931 -0.2011 -0.0202
41592SOL    HW229462   5.172   2.442   4.648  0.8486  0.2645 -1.2501
41593SOL     OW29463   0.634   7.121   5.322 -0.4912 -0.3591 -0.3073
41593SOL    HW129464   0.559   7.113   5.380  0.7824  0.7088  1.6450
41593SOL    HW229465   0.624   7.207   5.282 -1.0673 -0.8509 -1.2391
41594SOL     OW29466   1.626   6.753   5.794  0.0113 -0.5674 -0.3451
41594SOL    HW129467   1.550   6.699   5.772  1.3979 -2.8422  0.1275
41594SOL    HW229468   1.633   6.747   5.889  0.3158  0.3372 -0.2933
41595SOL     OW29469   6.712   7.403   1.011  0.1530  0.1303  0.0769
41595SOL    HW129470   6.656   7.439   0.942 -1.3080 -0.3501  0.9524
41595SOL    HW229471   6.737   7.316   0.978 -0.5566 -0.1074  0.1474
41596SOL     OW29472   4.911   2.530  11.154  0.1768  0.5599  0.0115
41596SOL    HW129473   4.868   2.518  11.069  0.6859 -0.2726 -0.1444
41596SOL    HW229474   4.996   2.570  11.132 -0.3123  1.7884  0.2795
41597SOL     OW29475   2.809   2.436   3.893  0.5238 -0.1291  0.0686
41597SOL    HW129476   2.803   2.465   3.802 -1.4719  2.7317  0.9778
41597SOL    HW229477   2.892   2.470   3.924  0.4372  0.3533 -0.2268
41598SOL     OW29478  11.008   3.503   6.725 -0.0131  0.2124 -0.0180
41598SOL    HW129479  10.920   3.465   6.720 -0.7090  1.3602  2.2204
41598SOL    HW229480  11.065   3.428   6.737 -0.7928 -0.4661 -0.3790
41599SOL     OW29481   1.862   5.932   7.157  0.1230 -0.4231  0.4108
41599SOL    HW129482   1.919   5.874   7.106 -1.6556 -2.2197  0.3382
41599SOL    HW229483   1.881   5.912   7.248  0.5142 -0.0731  0.4083
41600SOL     OW29484   1.189  10.820   2.097  0.5683 -0.3014 -0.8095
41600SOL    HW129485   1.154  10.906   2.120 -1.4065 -0.4841 -2.7553
41600SOL    HW229486   1.179  10.768   2.177 -1.7729  0.2751 -0.6410
41601SOL     OW29487   6.049   2.379   5.550  0.0474  0.2724 -0.1740
41601SOL    HW129488   6.019   2.455   5.501 -1.4386  2.2489  3.4178
41601SOL    HW229489   6.131   2.408   5.591 -0.1557 -0.3231  0.6739
41602SOL     OW29490  11.839  11.661   0.001  0.1913 -1.2535 -0.7937
41602SOL    HW129491  11.921  11.645  -0.045 -0.5904 -0.8420 -2.3960
41602SOL    HW229492  11.785  11.709  -0.062  0.1023  2.0607  1.5527
41603SOL     OW29493   9.723   1.950   2.340  0.3458 -0.2527 -0.0822
41603SOL    HW129494   9.651   2.005   2.372  0.4093 -0.6493  0.7634
41603SOL    HW229495   9.683   1.865   2.321  0.5912 -0.4895  0.4356
41604SOL     OW29496   6.697  11.921   0.218  0.0261  0.1342 -0.3028
41604SOL    HW129497   6.746  11.871   0.283 -0.4057 -1.6997 -1.3254
41604SOL    HW229498   6.759  11.938   0.148  0.8690  3.2582  1.0462
41605SOL     OW29499   3.681   7.906   2.066 -0.2046 -0.3037  0.2520
41605SOL    HW129500   3.720   7.866   2.144  2.2416  1.0098 -0.1918
41605SOL    HW229501   3.753   7.913   2.005 -1.2811  1.7882 -0.8792
41606SOL     OW29502   2.851   2.796   9.654 -0.7817  0.3885  0.1755
41606SOL    HW129503   2.790   2.726   9.676  1.2885 -1.3755  0.6421
41606SOL    HW229504   2.796   2.874   9.646 -3.0336 -1.0390  0.7724
41607SOL     OW29505   0.240   7.488   0.452 -0.8928 -0.0891 -0.5448
41607SOL    HW129506   0.160   7.526   0.416 -0.0896  1.4749 -0.7397
41607SOL    HW229507   0.274   7.554   0.511 -0.6207 -1.4312  0.8590
41608SOL     OW29508   9.176   6.494   6.360 -0.0536 -0.0621  0.4848
41608SOL    HW129509   9.140   6.569   6.408  1.1551  0.4578  0.6090
41608SOL    HW229510   9.118   6.484   6.284 -0.2262  1.0094  0.4624
41609SOL     OW29511   1.292   9.261   9.780 -0.5503  1.1052 -0.0775
41609SOL    HW129512   1.342   9.260   9.699  0.3135  1.1236  0.4388
41609SOL    HW229513   1.204   9.233   9.755 -0.1770  0.6685 -0.9352
41610SOL     OW29514   7.258   1.929   4.886  0.1382  0.4986 -0.2082
41610SOL    HW129515   7.281   1.849   4.933 -1.8894 -0.1533 -0.2129
41610SOL    HW229516   7.341   1.974   4.872  1.0176 -0.0714  2.5700
41611SOL     OW29517  11.853   9.102   8.274 -0.0525 -0.0294  0.1999
41611SOL    HW129518  11.796   9.129   8.347 -1.2006  0.9717 -1.0006
41611SOL    HW229519  11.942   9.111   8.308 -0.5554  0.7699  1.3738
41612SOL     OW29520   8.851   3.050   9.544  0.8205  0.2853 -0.1352
41612SOL    HW129521   8.811   2.965   9.566  0.1987  0.3919 -0.8154
41612SOL    HW229522   8.869   3.043   9.450  0.3919  1.0533 -0.2786
41613SOL     OW29523  10.817   9.579   1.388 -0.3802  0.0122 -0.6212
41613SOL    HW129524  10.880   9.525   1.436 -0.3826  0.8190  0.3419
41613SOL    HW229525  10.827   9.666   1.427 -1.3619  0.3802 -1.1706
41614SOL     OW29526  11.103   0.280   0.994  0.3195 -0.4961  0.1301
41614SOL    HW129527  11.034   0.344   1.012 -0.8909 -1.8858  0.6572
41614SOL    HW229528  11.075   0.201   1.040 -0.3651 -2.7247 -3.6439
41615SOL     OW29529   8.922   0.223   0.066 -0.5055 -0.4793  0.3842
41615SOL    HW129530   8.963   0.307   0.044 -2.5291  0.1765 -1.2106
41615SOL    HW229531   8.934   0.214   0.160  0.1109  1.4233  0.5179
41616SOL     OW29532   1.616   1.132   3.690  0.5647  0.0446  0.2592
41616SOL    HW129533   1.704   1.169   3.700 -0.2692  1.9498  0.9236
41616SOL    HW229534   1.573   1.189   3.625 -1.2411  1.2768  2.3942
41617SOL     OW29535   0.432   6.296   8.801 -0.2436  0.0304  0.3981
41617SOL    HW129536   0.381   6.344   8.737 -1.1578  0.0890  1.1479
41617SOL    HW229537   0.380   6.300   8.882  1.5853  1.3167  1.5900
41618SOL     OW29538   0.629   7.696   7.848 -0.6268 -0.3650  0.6972
41618SOL    HW129539   0.585   7.633   7.791 -1.5166 -1.2689  2.3156
41618SOL    HW229540   0.666   7.760   7.787 -1.3076 -1.4012 -0.9058
41619SOL     OW29541   7.313   3.672   3.934 -0.1637 -0.2350  0.0279
41619SOL    HW129542   7.245   3.622   3.978 -1.3182 -1.8140 -3.2792
41619SOL    HW229543   7.357   3.609   3.878  2.8378  1.1579  0.6116
41620SOL     OW29544   4.321   5.283   7.806 -0.2407 -0.0211 -0.3394
41620SOL    HW129545   4.365   5.351   7.754 -0.5749  0.1759 -0.3715
41620SOL    HW229546   4.392   5.235   7.847  0.0717 -0.7189 -1.6352
41621SOL     OW29547   4.226  10.922   0.589  0.3823 -0.4596  0.2636
41621SOL    HW129548   4.179  10.960   0.514  1.4365 -0.3198 -0.3395
41621SOL    HW229549   4.173  10.847   0.614 -0.0647 -0.4280 -0.5403
41622SOL     OW29550   2.690   0.007   8.436  0.3407  0.4442  0.0639
41622SOL    HW129551   2.607   0.009   8.388  0.0827 -0.2208  0.4812
41622SOL    HW229552   2.709  -0.086   8.448  1.0406  0.5950  0.1566
41623SOL     OW29553   1.998   3.605  10.625 -0.4042 -0.1218 -0.2376
41623SOL    HW129554   2.084   3.631  10.591  0.0459 -1.6829 -0.3396
41623SOL    HW229555   1.971   3.532  10.570 -0.5312 -1.4597  1.5350
41624SOL     OW29556   7.835   8.499  10.177 -0.2779  0.6167 -0.2972
41624SOL    HW129557   7.899   8.457  10.233 -0.5609  1.2350  0.5173
41624SOL    HW229558   7.886   8.559  10.122 -0.0989  0.7381 -0.0014
41625SOL     OW29559   6.219   5.176   2.295 -0.2014  0.0328 -0.2261
41625SOL    HW129560   6.281   5.209   2.360  0.1051  0.7400 -0.8557
41625SOL    HW229561   6.135   5.215   2.320 -1.0121 -2.8633  2.0944
41626SOL     OW29562   0.496   7.909  10.320 -0.3652  0.6020  0.1120
41626SOL    HW129563   0.450   7.988  10.291 -1.7364 -0.2449 -0.0881
41626SOL    HW229564   0.533   7.933  10.405 -1.3229  1.2497  0.3546
41627SOL     OW29565   1.055   7.915   3.948  0.2201  0.2528  0.0330
41627SOL    HW129566   0.994   7.847   3.975 -0.3011  0.3256 -0.9335
41627SOL    HW229567   1.138   7.889   3.986 -0.4181  0.2087  1.4717
41628SOL     OW29568   2.868  11.626   5.887 -0.0754  0.4862  0.2544
41628SOL    HW129569   2.943  11.653   5.834  0.1502  1.4831  1.0551
41628SOL    HW229570   2.818  11.707   5.900  0.3500  0.4700  2.2885
41629SOL     OW29571   4.796   0.734   6.045  0.5422  0.0226 -0.0815
41629SOL    HW129572   4.726   0.795   6.020  2.1047  1.7960 -0.2941
41629SOL    HW229573   4.784   0.722   6.139  1.2576  2.1226  0.3231
41630SOL     OW29574  11.212   6.817   8.628 -0.5288  0.0231 -0.3246
41630SOL    HW129575  11.190   6.868   8.706 -0.5942 -0.4099 -0.0533
41630SOL    HW229576  11.235   6.882   8.562  0.0182  0.3746  0.2073
41631SOL     OW29577  11.387   4.477   0.506 -0.3852  0.0308  0.4293
41631SOL    HW129578  11.372   4.571   0.512 -0.3679  0.0153  0.7306
41631SOL    HW229579  11.403   4.461   0.413 -0.0918  0.3721  0.4200
41632SOL     OW29580   9.000   1.278   8.904  1.1934  0.1249 -0.0006
41632SOL    HW129581   9.014   1.360   8.951  0.1861  0.7847 -0.7993
41632SOL    HW229582   8.963   1.219   8.969 -1.2134  1.3558 -0.1483
41633SOL     OW29583  10.994   1.777   1.930 -0.2186  0.4916 -0.0955
41633SOL    HW129584  10.902   1.789   1.955 -0.4390 -0.0774 -0.6112
41633SOL    HW229585  10.992   1.775   1.834  0.2855  0.1121 -0.0989
41634SOL     OW29586  11.298   5.089   5.366 -0.1096 -0.1942  0.9588
41634SOL    HW129587  11.279   5.149   5.294  0.1768 -2.1239 -0.8015
41634SOL    HW229588  11.212   5.062   5.398 -0.2608 -0.5566  0.2613
41635SOL     OW29589   6.636   8.950   2.177  0.3804 -0.0574  0.6151
41635SOL    HW129590   6.645   9.033   2.224  0.4074  1.6469 -2.2155
41635SOL    HW229591   6.543   8.945   2.155  0.4522 -0.5960  0.4188
41636SOL     OW29592   7.607   9.678   8.175  0.1113  0.6092 -0.2687
41636SOL    HW129593   7.563   9.601   8.210 -0.0955  0.2322 -1.3137
41636SOL    HW229594   7.678   9.695   8.236 -0.6905  0.4533  0.7495
41637SOL     OW29595   2.291  11.667   5.489  0.2467 -0.1835 -0.0954
41637SOL    HW129596   2.387  11.676   5.494  0.4455 -1.2270 -1.6077
41637SOL    HW229597   2.274  11.576   5.511 -0.3920 -0.0423  0.0091
41638SOL     OW29598   3.850   9.906   8.238  0.1597  0.2203 -0.5169
41638SOL    HW129599   3.894   9.822   8.247  0.7744  0.5979  0.1658
41638SOL    HW229600   3.758   9.884   8.228  0.3800 -0.5490 -0.9227
41639SOL     OW29601   8.052  10.322   9.675  0.4247  0.0410  0.3035
41639SOL    HW129602   8.087  10.296   9.760  1.1684  0.9214  0.2853
41639SOL    HW229603   8.129  10.331   9.619  0.0243  0.3628 -0.2095
41640SOL     OW29604   5.525   5.665   3.622  0.3055  0.4946 -0.8754
41640SOL    HW129605   5.455   5.604   3.648  0.5624  0.1232 -1.0402
41640SOL    HW229606   5.529   5.655   3.526  0.5337  0.5700 -0.8724
41641SOL     OW29607   6.295   3.615   0.717 -0.1573  0.0203 -0.5176
41641SOL    HW129608   6.239   3.537   0.711 -0.1283 -0.0543  0.1333
41641SOL    HW229609   6.240   3.687   0.686 -1.1035  0.1848  1.3928
41642SOL     OW29610   5.510   7.174   1.422 -0.0314 -0.0120  0.5035
41642SOL    HW129611   5.564   7.098   1.443 -0.0204  0.6372  3.0835
41642SOL    HW229612   5.423   7.137   1.403  0.2455 -0.7384  0.6273
41643SOL     OW29613   6.013   1.277   5.223 -0.2692 -0.3378  0.0478
41643SOL    HW129614   6.079   1.306   5.159 -1.1066 -1.3797 -1.3468
41643SOL    HW229615   6.043   1.191   5.251  0.2227  0.2181  1.2921
41644SOL     OW29616   6.347   4.752   3.479 -0.2845  0.1846  0.5397
41644SOL    HW129617   6.395   4.714   3.405 -0.2136 -0.2068  0.7893
41644SOL    HW229618   6.401   4.733   3.555 -0.4826  0.3722  0.7275
41645SOL     OW29619   4.816   1.598   0.404  0.1000 -0.3379  0.6986
41645SOL    HW129620   4.773   1.584   0.320 -0.8586  0.8109  0.9698
41645SOL    HW229621   4.909   1.602   0.383 -0.2051  1.4494 -0.5671
41646SOL     OW29622   0.178   9.653   1.206  0.3957  0.0232  0.6623
41646SOL    HW129623   0.133   9.688   1.129  0.0213 -0.6469  0.5629
41646SOL    HW229624   0.271   9.659   1.184  0.2763 -0.9540 -0.2200
41647SOL     OW29625   4.924   1.627   9.125  0.0867  0.1188  0.1615
41647SOL    HW129626   4.903   1.585   9.209 -0.0675 -2.4842 -1.0882
41647SOL    HW229627   5.019   1.630   9.123  0.2287 -2.3417 -0.6115
41648SOL     OW29628   1.497   3.824   7.125  0.2383  0.8539 -0.5813
41648SOL    HW129629   1.481   3.828   7.220 -1.5458 -1.4677 -0.6687
41648SOL    HW229630   1.504   3.730   7.107  0.6504  1.2587 -2.7599
41649SOL     OW29631  10.387   0.823  11.738 -0.1384 -0.5092  0.0082
41649SOL    HW129632  10.300   0.810  11.776 -0.9088  2.0366 -0.6408
41649SOL    HW229633  10.372   0.886  11.667  2.3182  0.4596  0.2638
41650SOL     OW29634   1.323   5.866   6.711 -0.2277  0.0045 -0.3862
41650SOL    HW129635   1.353   5.776   6.721  1.0046  0.4925  0.6439
41650SOL    HW229636   1.230   5.859   6.687 -0.5683 -1.5296  1.2188
41651SOL     OW29637   1.672   0.742  10.313 -0.6188 -0.4279 -0.2188
41651SOL    HW129638   1.607   0.680  10.281 -0.1205 -0.0857 -1.9935
41651SOL    HW229639   1.665   0.817  10.254 -0.8699  1.0284  1.5758
41652SOL     OW29640  10.749   6.819   7.854 -0.4219  0.5284  0.1182
41652SOL    HW129641  10.756   6.767   7.934 -0.6055  2.1327  1.2284
41652SOL    HW229642  10.684   6.887   7.875  0.1226  1.4700 -1.1125
41653SOL     OW29643  11.627   9.854   7.015  0.0210 -0.2329 -0.6414
41653SOL    HW129644  11.577   9.784   6.972  2.4487 -1.6020 -1.4478
41653SOL    HW229645  11.624   9.927   6.953  0.3028 -0.8492 -1.4003
41654SOL     OW29646   0.458   6.629   5.527 -0.1587  0.3446  0.1023
41654SOL    HW129647   0.433   6.720   5.542  1.6009  0.6813  1.4313
41654SOL    HW229648   0.394   6.577   5.575  0.2051  1.0342  1.3736
41655SOL     OW29649   2.862   6.441   5.300 -0.1150  0.3929  0.2670
41655SOL    HW129650   2.914   6.521   5.291  0.0924  0.1917 -0.4227
41655SOL    HW229651   2.834   6.421   5.210  1.4457 -1.3562  0.1013
41656SOL     OW29652   9.818   9.533   2.160 -0.1522 -0.1220  0.5746
41656SOL    HW129653   9.796   9.564   2.248  0.4012 -0.4603  0.8374
41656SOL    HW229654   9.803   9.609   2.104 -0.6677  0.0501  0.9336
41657SOL     OW29655   3.301   0.269  10.020 -0.1079  0.1925  0.0883
41657SOL    HW129656   3.305   0.337  10.088  0.6314  1.7325 -1.4040
41657SOL    HW229657   3.223   0.291   9.969 -0.0630 -0.2964 -0.1882
41658SOL     OW29658   2.017   4.224   6.066  0.1400 -0.1889  0.4568
41658SOL    HW129659   2.002   4.245   6.158 -0.2476 -0.6263  0.4960
41658SOL    HW229660   1.973   4.295   6.018 -1.9194 -1.3222  0.5774
41659SOL     OW29661   8.569   3.456   9.481  0.3644  0.0991  0.0297
41659SOL    HW129662   8.550   3.424   9.393 -0.2898  1.7351 -0.4731
41659SOL    HW229663   8.526   3.394   9.539 -0.6158 -0.1111 -0.8863
41660SOL     OW29664   9.965   3.782   8.268 -0.2943  0.3288  0.2637
41660SOL    HW129665   9.874   3.805   8.250 -0.4827  0.2895  1.1102
41660SOL    HW229666   9.978   3.805   8.360  0.0879 -1.0748  0.5969
41661SOL     OW29667   7.259   3.262   3.965  0.4118  0.5250 -0.0990
41661SOL    HW129668   7.224   3.173   3.963 -0.2826  0.7977 -0.4372
41661SOL    HW229669   7.184   3.317   3.945  1.2934  1.0640 -2.1457
41662SOL     OW29670   4.071   0.066   8.175  0.5566 -0.4177 -0.3615
41662SOL    HW129671   3.982   0.051   8.206  0.0261  2.1485 -0.3764
41662SOL    HW229672   4.108   0.129   8.237  2.1604 -0.9442 -0.7208
41663SOL     OW29673   5.957   4.472   4.255  0.1592  0.2484  0.0698
41663SOL    HW129674   6.019   4.483   4.327 -0.2840 -0.6211  0.6040
41663SOL    HW229675   5.921   4.560   4.241  1.8491  0.8886 -0.5989
41664SOL     OW29676   4.710   7.306   3.377  0.3244 -0.2632 -0.2818
41664SOL    HW129677   4.640   7.253   3.339 -0.3420 -1.7417  2.6971
41664SOL    HW229678   4.763   7.334   3.302 -1.7027 -1.6455 -2.3461
41665SOL     OW29679   0.351   1.732   7.614 -0.2096  0.0087 -0.4435
41665SOL    HW129680   0.384   1.652   7.574  0.4599  0.0771 -0.0621
41665SOL    HW229681   0.302   1.776   7.545  0.8858  0.1028 -1.1799
41666SOL     OW29682   8.005   1.996   1.278 -0.9330  0.2896  0.2623
41666SOL    HW129683   8.058   2.021   1.354  1.1854 -0.3867 -0.9173
41666SOL    HW229684   7.939   2.065   1.272  1.1684  2.4835  0.5120
41667SOL     OW29685   8.865   1.182   2.117 -0.1999 -0.4058  0.8682
41667SOL    HW129686   8.843   1.139   2.200  1.5256 -1.3294  0.9020
41667SOL    HW229687   8.891   1.271   2.142 -1.5575 -0.0371  1.0607
41668SOL     OW29688   2.043  11.480   0.710 -0.0731 -0.2138  0.2022
41668SOL    HW129689   2.015  11.406   0.763 -1.9062  0.9905  1.0065
41668SOL    HW229690   2.115  11.446   0.657  1.4815 -1.6370  3.0194
41669SOL     OW29691   1.240   7.966   6.837 -0.1604 -0.4139  0.3002
41669SOL    HW129692   1.329   7.969   6.872 -0.3723 -0.5500  0.8476
41669SOL    HW229693   1.195   8.039   6.879 -0.7520 -1.3002  1.2409
41670SOL     OW29694  10.891   2.034   1.409 -0.8230 -0.0548  0.2579
41670SOL    HW129695  10.871   2.127   1.419 -0.6929  0.0392 -0.3222
41670SOL    HW229696  10.875   2.016   1.316  2.8243  0.2833 -0.5771
41671SOL     OW29697   0.048   4.833   2.869  0.5804 -0.3036  0.5644
41671SOL    HW129698   0.076   4.830   2.960 -2.1348 -1.1567  1.4625
41671SOL    HW229699   0.032   4.926   2.852  0.8495 -0.1669  1.0371
41672SOL     OW29700   9.733   7.305   7.272 -0.1069 -0.6395  0.2650
41672SOL    HW129701   9.762   7.258   7.350  1.8381  0.8980  0.5456
41672SOL    HW229702   9.760   7.249   7.199 -0.8731 -1.5196  0.6354
41673SOL     OW29703   3.090   4.855   2.202 -0.6019 -0.0045  0.1387
41673SOL    HW129704   3.093   4.871   2.297  2.1123  0.3582  0.0658
41673SOL    HW229705   3.170   4.806   2.183 -0.7459  0.5081 -2.0608
41674SOL     OW29706   6.919   2.997   5.835  0.5635 -0.4850  0.0001
41674SOL    HW129707   6.879   3.017   5.750 -0.4591  1.1662  0.8104
41674SOL    HW229708   6.898   2.905   5.850 -2.6401  0.1455  0.1387
41675SOL     OW29709   1.262   1.372   3.856  0.2738 -0.0230 -0.0877
41675SOL    HW129710   1.265   1.440   3.789  0.0669 -1.0602 -1.1786
41675SOL    HW229711   1.353   1.350   3.873  0.3069 -0.6034 -0.9409
41676SOL     OW29712   8.942   3.281   9.978 -0.6409 -0.2588 -0.0603
41676SOL    HW129713   8.959   3.243   9.892 -2.6698  1.0126 -1.1113
41676SOL    HW229714   8.939   3.376   9.961 -1.3647 -0.0142  1.3426
41677SOL     OW29715  10.837   8.234   4.827 -0.4210 -0.3373  0.9238
41677SOL    HW129716  10.910   8.225   4.766  0.2154 -0.1299  1.6510
41677SOL    HW229717  10.849   8.163   4.890 -1.3455 -0.8458  0.5485
41678SOL     OW29718   9.163   1.905   2.122 -0.7703  0.0381 -0.1938
41678SOL    HW129719   9.147   1.950   2.205 -1.4186 -1.5540  0.5766
41678SOL    HW229720   9.075   1.891   2.086 -0.4825  0.9745 -1.3132
41679SOL     OW29721   0.768   8.356   7.580 -0.1647 -0.1974  0.2877
41679SOL    HW129722   0.850   8.355   7.529  0.4107 -1.6550  1.1707
41679SOL    HW229723   0.713   8.289   7.538 -0.2777 -0.3322  0.6465
41680SOL     OW29724   1.113   4.972   5.112 -0.5670  0.2011  0.1350
41680SOL    HW129725   1.059   4.907   5.067 -0.5621  1.0185 -1.0957
41680SOL    HW229726   1.050   5.028   5.158 -0.7797  1.0221 -1.1231
41681SOL     OW29727   9.455   0.672   2.564 -0.2502  0.3129  0.0336
41681SOL    HW129728   9.414   0.586   2.560  0.3859  0.0461 -1.7046
41681SOL    HW229729   9.546   0.657   2.540  0.5084  1.1537  2.1115
41682SOL     OW29730   1.139   3.684  10.315 -0.2866  0.1819  0.1107
41682SOL    HW129731   1.198   3.747  10.274  0.2915 -0.9624 -0.8688
41682SOL    HW229732   1.197   3.617  10.351 -0.9714 -0.8532 -0.6820
41683SOL     OW29733   4.940   0.687   0.329 -0.4645  0.4083 -0.5838
41683SOL    HW129734   4.860   0.741   0.334  0.8468  2.6824 -2.2538
41683SOL    HW229735   4.991   0.713   0.405 -1.2254 -1.0550  0.4901
41684SOL     OW29736  11.227   0.455   3.845  0.4154 -0.7984 -0.3300
41684SOL    HW129737  11.187   0.542   3.841 -0.7667 -1.2185  1.1408
41684SOL    HW229738  11.304   0.467   3.901  1.3455 -0.3655 -1.6439
41685SOL     OW29739   9.700   8.983   0.545  0.4198 -0.1026 -0.0890
41685SOL    HW129740   9.726   9.039   0.618 -1.6041  0.8523 -0.0219
41685SOL    HW229741   9.639   9.037   0.494 -0.7409 -1.8441 -0.6486
41686SOL     OW29742   8.032   5.526   7.594  0.1278  0.1044  0.8710
41686SOL    HW129743   8.080   5.570   7.524 -3.4486 -0.8310 -2.5109
41686SOL    HW229744   7.963   5.588   7.619 -0.1086 -0.5266  1.8356
41687SOL     OW29745   8.436   8.032  11.991  0.3133 -0.3343 -0.2172
41687SOL    HW129746   8.499   7.990  12.050 -0.7505 -1.2060  0.3446
41687SOL    HW229747   8.377   8.080  12.049 -1.4319 -2.1113 -0.3877
41688SOL     OW29748   0.696   5.357   8.642 -0.0534  0.0558 -0.1497
41688SOL    HW129749   0.770   5.309   8.607  0.3947  0.2632  0.4958
41688SOL    HW229750   0.641   5.290   8.683 -0.7306 -0.2299 -1.4549
41689SOL     OW29751   8.279   2.821   0.052 -0.3824 -0.2787 -0.3436
41689SOL    HW129752   8.269   2.842   0.145 -1.8094 -0.2386 -0.4905
41689SOL    HW229753   8.270   2.906   0.008  0.5957 -0.2497 -0.5235
41690SOL     OW29754  11.039   3.771   4.669 -0.3464 -0.5190 -0.0936
41690SOL    HW129755  11.042   3.721   4.588 -0.3983 -0.9268  0.1482
41690SOL    HW229756  11.060   3.706   4.737 -1.5541 -0.4780  0.3446
41691SOL     OW29757   1.799   2.287   2.180  0.5000  0.2726 -0.2597
41691SOL    HW129758   1.784   2.376   2.212 -1.2476  0.3139 -1.0903
41691SOL    HW229759   1.877   2.294   2.125 -0.2363  1.5701 -1.2160
41692SOL     OW29760   1.063   9.856   1.974 -0.1704 -0.2784 -0.0418
41692SOL    HW129761   0.971   9.852   1.948 -0.4371 -1.8137  0.9977
41692SOL    HW229762   1.070   9.793   2.046  1.3245  1.0574  1.0532
41693SOL     OW29763   9.945  11.791   3.216  0.3987  0.2601 -0.4442
41693SOL    HW129764   9.948  11.705   3.173  0.1264  1.0376 -2.0741
41693SOL    HW229765   9.998  11.848   3.161 -0.8867  1.5693 -0.3999
41694SOL     OW29766   2.472   2.359   1.561 -0.4708  0.8320 -0.2752
41694SOL    HW129767   2.427   2.326   1.639  1.3317 -1.4126 -0.0841
41694SOL    HW229768   2.519   2.437   1.592 -1.5572  1.3048  0.2732
41695SOL     OW29769   2.836   8.999   9.944 -0.1189  0.4118 -0.2923
41695SOL    HW129770   2.752   8.954   9.945  0.8723 -1.5808 -0.0674
41695SOL    HW229771   2.831   9.064  10.014 -1.1643 -0.2874  0.2945
41696SOL     OW29772   5.386   0.301   0.466 -0.2062 -0.3060 -0.3245
41696SOL    HW129773   5.344   0.234   0.411  0.6879  0.1050 -1.5594
41696SOL    HW229774   5.465   0.258   0.498  1.4226  0.6830 -2.7170
41697SOL     OW29775  10.294   9.932   1.589 -0.1031  0.1232 -0.4725
41697SOL    HW129776  10.316  10.025   1.579 -2.1350  0.7363  0.2656
41697SOL    HW229777  10.249   9.909   1.507  1.6902 -0.6784 -1.2963
41698SOL     OW29778   3.997   9.188   9.565  0.1178  0.4745 -0.0650
41698SOL    HW129779   3.948   9.220   9.640  0.3933  1.4895 -0.3070
41698SOL    HW229780   3.932   9.143   9.511 -0.4520  1.3955 -0.1529
41699SOL     OW29781   1.539   9.845   8.067 -0.1499  0.2259 -0.5875
41699SOL    HW129782   1.610   9.874   8.011  0.9267 -1.5180 -0.1906
41699SOL    HW229783   1.521   9.920   8.124  1.2008  0.7747 -0.8502
41700SOL     OW29784   9.910   5.595   5.640  0.4095  0.4314 -0.5760
41700SOL    HW129785   9.833   5.649   5.620  0.4140 -0.6087 -4.0617
41700SOL    HW229786   9.894   5.512   5.595  1.6305 -1.5651  2.3733
41701SOL     OW29787  10.375   1.485   6.827  0.1554  0.2296  0.0688
41701SOL    HW129788  10.288   1.511   6.857  0.1840  0.4301 -0.0186
41701SOL    HW229789  10.408   1.428   6.896  0.1068  0.4622  0.2878
41702SOL     OW29790   1.670   2.200   1.214 -0.0826  0.4898  0.0036
41702SOL    HW129791   1.620   2.282   1.221  0.3761  0.7276  0.5010
41702SOL    HW229792   1.755   2.226   1.180  0.0521  0.2076  0.1220
41703SOL     OW29793   5.864   1.751   0.691 -0.3068  0.0239  0.3987
41703SOL    HW129794   5.818   1.794   0.619 -0.4482 -0.3015  0.2958
41703SOL    HW229795   5.893   1.667   0.656 -0.1667 -0.0346  0.6477
41704SOL     OW29796   4.394  10.753   3.251  0.0338  0.0131 -0.3202
41704SOL    HW129797   4.459  10.698   3.207  1.5375 -0.3889  2.1986
41704SOL    HW229798   4.329  10.773   3.183  1.4964 -1.6035 -2.3161
41705SOL     OW29799   2.252   3.527   3.676  0.0235 -0.3318 -0.9317
41705SOL    HW129800   2.252   3.445   3.628  2.3885 -1.4455  0.7757
41705SOL    HW229801   2.165   3.564   3.661 -1.1335 -3.1458 -1.7129
41706SOL     OW29802  10.252  10.751   0.688  0.5886 -1.1442 -0.0066
41706SOL    HW129803  10.162  10.718   0.690 -1.3203  3.3465  1.0470
41706SOL    HW229804  10.255  10.808   0.612  0.9141  2.2208  2.3147
41707SOL     OW29805   6.056   1.259   0.852  0.0877 -0.0541  0.0395
41707SOL    HW129806   6.130   1.281   0.796  0.1563  1.3981  0.6614
41707SOL    HW229807   5.989   1.323   0.830 -0.5760 -0.6548  0.2784
41708SOL     OW29808   0.821   3.267   9.166  0.5216  0.2797 -0.4131
41708SOL    HW129809   0.907   3.225   9.162  1.5892  2.0851  1.7998
41708SOL    HW229810   0.767   3.205   9.216  0.3668 -0.9955 -2.0580
41709SOL     OW29811   1.988  11.346   9.233  0.2610 -0.5994 -0.3868
41709SOL    HW129812   1.991  11.323   9.141 -0.4500 -2.4838  0.0122
41709SOL    HW229813   2.079  11.343   9.262  0.4931  0.0713 -1.0244
41710SOL     OW29814   3.919   5.706  10.768 -0.0250 -0.2463 -0.8741
41710SOL    HW129815   3.860   5.687  10.695 -0.7807 -0.1201 -0.3099
41710SOL    HW229816   3.913   5.629  10.825 -3.7806  1.7492  1.8804
41711SOL     OW29817   1.879   9.718  10.774  0.4034  0.7642 -0.1188
41711SOL    HW129818   1.903   9.799  10.819 -1.1991  0.8650  0.6244
41711SOL    HW229819   1.918   9.649  10.827 -0.3605  0.9478  0.7079
41712SOL     OW29820  10.417  11.884   1.829 -0.0689  0.0476  0.6075
41712SOL    HW129821  10.456  11.857   1.912 -0.6345 -1.5702  0.4033
41712SOL    HW229822  10.463  11.964   1.805  2.0915 -0.9761  1.0844
41713SOL     OW29823   9.963   0.614   8.357 -0.1991 -0.1930  0.1174
41713SOL    HW129824   9.924   0.607   8.270 -0.4928 -0.3039  0.2537
41713SOL    HW229825   9.957   0.525   8.392  0.7446 -0.3466 -0.0936
41714SOL     OW29826   2.278   6.582  11.728 -0.4190 -0.1895 -0.1535
41714SOL    HW129827   2.354   6.603  11.782 -1.0994 -0.9618  1.1673
41714SOL    HW229828   2.217   6.654  11.743  0.5856  1.2745 -2.4552
41715SOL     OW29829   5.042   2.413   1.366 -0.2154 -0.0326 -0.2596
41715SOL    HW129830   4.965   2.357   1.364  0.4714 -0.9789 -0.6806
41715SOL    HW229831   5.107   2.367   1.314  1.2539 -0.1440  1.5504
41716SOL     OW29832   3.377   0.956   3.344 -0.2775  0.3781  0.0689
41716SOL    HW129833   3.352   1.023   3.407  0.0795  0.1433  0.4678
41716SOL    HW229834   3.294   0.926   3.307 -0.4665  0.7549  0.1826
41717SOL     OW29835  11.670   2.053   8.512  0.3471  0.3941  0.4431
41717SOL    HW129836  11.642   2.033   8.423 -1.3205  1.7906  0.6018
41717SOL    HW229837  11.762   2.025   8.515 -0.1813 -1.7590 -0.9975
41718SOL     OW29838   6.706   8.828   0.004 -0.2887 -0.1580 -0.1039
41718SOL    HW129839   6.633   8.822  -0.059 -0.9919 -0.6945  0.7396
41718SOL    HW229840   6.771   8.882  -0.041 -0.6081 -0.8381 -1.4547
41719SOL     OW29841   3.504  11.500   6.929  0.7334  0.4368  0.0502
41719SOL    HW129842   3.464  11.586   6.917  3.1536  1.4139 -2.1151
41719SOL    HW229843   3.497  11.458   6.843  1.9233 -0.4300  0.3495
41720SOL     OW29844   2.045   9.772   3.784 -0.3446 -0.6331  0.0989
41720SOL    HW129845   2.086   9.838   3.841  1.1934 -0.9797 -0.5439
41720SOL    HW229846   1.974   9.818   3.741  0.8278  0.7019 -0.4980
41721SOL     OW29847   5.571   3.504   2.519 -0.0139 -0.3457 -0.5701
41721SOL    HW129848   5.513   3.513   2.595  1.4198  0.3015  0.4953
41721SOL    HW229849   5.616   3.588   2.514  2.0971 -1.4089 -0.2859
41722SOL     OW29850   1.934   3.482   4.684  0.2349 -0.4571  0.0625
41722SOL    HW129851   1.982   3.504   4.764  1.3165 -0.9795 -0.4277
41722SOL    HW229852   1.870   3.417   4.711  0.4199 -0.4381  0.5516
41723SOL     OW29853  10.679   7.723  10.011 -0.2574 -0.2683 -0.4919
41723SOL    HW129854  10.663   7.806  10.056  0.5735  0.4666 -1.5057
41723SOL    HW229855  10.617   7.662  10.051 -0.1162  0.5507  1.0621
41724SOL     OW29856   8.505   7.861   5.371 -0.0244 -0.0081 -0.3212
41724SOL    HW129857   8.519   7.948   5.333 -0.0461 -0.0140 -0.3428
41724SOL    HW229858   8.447   7.817   5.309  1.0249 -0.4992 -0.9912
41725SOL     OW29859   9.316   3.673  10.890 -0.0034 -0.1335  0.7709
41725SOL    HW129860   9.389   3.724  10.925 -0.2448  0.9031 -0.1743
41725SOL    HW229861   9.356   3.615  10.826 -0.0129  0.5560  0.1270
41726SOL     OW29862   5.304   9.817   9.749 -0.4588 -0.6379  0.3786
41726SOL    HW129863   5.331   9.848   9.835  1.4711  0.1907 -0.4662
41726SOL    HW229864   5.349   9.876   9.687 -1.0542 -1.7713 -1.1987
41727SOL     OW29865   9.780  11.622  10.935  0.7770  0.3514 -0.3370
41727SOL    HW129866   9.808  11.548  10.990 -1.0822 -0.5084 -0.4828
41727SOL    HW229867   9.817  11.603  10.849  1.8657  0.5743  0.0660
41728SOL     OW29868   6.317  10.292   8.905  0.6640 -0.3633  0.0460
41728SOL    HW129869   6.297  10.218   8.962  0.1727 -0.6309 -0.4696
41728SOL    HW229870   6.398  10.266   8.861  0.5817 -0.5241 -0.0117
41729SOL     OW29871   2.309   4.438  10.474  0.3559 -0.1450 -0.5789
41729SOL    HW129872   2.316   4.513  10.533 -1.2738 -0.4018 -0.0154
41729SOL    HW229873   2.305   4.362  10.532  3.9577 -0.9564 -1.1571
41730SOL     OW29874   8.150   1.456  11.104 -0.1309 -0.0618 -0.2911
41730SOL    HW129875   8.148   1.414  11.190 -0.3243 -1.6360 -1.0358
41730SOL    HW229876   8.072   1.423  11.059  0.0110  0.6768 -1.1022
41731SOL     OW29877   2.942   6.194   0.506 -0.2961 -0.6698 -0.3665
41731SOL    HW129878   2.859   6.163   0.471  0.1818 -1.1991 -1.0907
41731SOL    HW229879   3.001   6.119   0.496 -0.0340 -0.7150  1.2732
41732SOL     OW29880  10.066   8.986   1.880  0.0645  0.3274 -0.0399
41732SOL    HW129881  10.012   8.957   1.806 -2.3487 -2.5922  2.6093
41732SOL    HW229882  10.005   9.028   1.940  0.9640 -1.5462  2.3297
41733SOL     OW29883   8.654   2.388   5.456  0.7255 -0.1630  0.4345
41733SOL    HW129884   8.628   2.479   5.439 -1.8513 -0.7899  0.7125
41733SOL    HW229885   8.628   2.340   5.378  1.8314 -0.7495  0.4007
41734SOL     OW29886   1.029   4.395   3.717 -0.5211  0.0728  0.0433
41734SOL    HW129887   1.015   4.357   3.631  0.2862 -0.9968  0.3624
41734SOL    HW229888   0.942   4.394   3.758 -0.5442 -1.3258 -0.0090
41735SOL     OW29889   0.953   8.807  10.354 -0.3642  0.0332  0.3249
41735SOL    HW129890   1.023   8.817  10.289  1.1465 -4.4509  0.9218
41735SOL    HW229891   0.973   8.873  10.420  1.0189  1.3741 -1.3252
41736SOL     OW29892   2.315   3.979   8.774 -0.4150 -0.4730  0.2738
41736SOL    HW129893   2.383   3.925   8.816  0.6766  0.8930  0.3446
41736SOL    HW229894   2.323   3.960   8.681 -1.5422 -2.0544  0.4465
41737SOL     OW29895   4.159   0.302   3.236  0.6489  0.1501  0.7697
41737SOL    HW129896   4.133   0.379   3.186  0.7266 -0.3762 -0.0934
41737SOL    HW229897   4.076   0.260   3.260  0.6332 -0.2011  0.1158
41738SOL     OW29898   8.941   1.973   8.001  0.1602  0.0888  0.4199
41738SOL    HW129899   8.973   2.057   7.968  1.2325 -0.3091  0.4065
41738SOL    HW229900   8.972   1.970   8.091  0.6885 -0.5733  0.2186
41739SOL     OW29901   0.977   6.641   1.800 -0.3011 -0.5172 -0.2370
41739SOL    HW129902   1.043   6.703   1.833 -0.2502 -0.6842 -0.0222
41739SOL    HW229903   1.012   6.555   1.823 -1.3459 -0.5639  1.3363
41740SOL     OW29904   8.702   3.475   2.922 -0.5717  0.1178  0.0505
41740SOL    HW129905   8.772   3.485   2.857  1.7097 -3.2672  1.6458
41740SOL    HW229906   8.738   3.514   3.002 -1.4966  0.3708  0.3567
41741SOL     OW29907   1.815   8.027   5.818 -0.3084  0.2600  0.3028
41741SOL    HW129908   1.722   8.041   5.834 -0.3271  0.3280  0.1442
41741SOL    HW229909   1.835   8.085   5.744 -0.0763  0.4544  0.5172
41742SOL     OW29910   2.034   1.803   7.250 -0.4061  0.5487  0.4441
41742SOL    HW129911   2.014   1.717   7.288 -2.0890 -0.1484 -1.7962
41742SOL    HW229912   2.118   1.827   7.289  0.4166 -2.3740  0.7597
41743SOL     OW29913   3.943   3.767  11.019 -0.4269  0.6269  0.6583
41743SOL    HW129914   3.999   3.692  11.002  0.2743  1.4935 -1.0353
41743SOL    HW229915   3.897   3.744  11.100  0.6256 -1.1024  0.8189
41744SOL     OW29916   0.657  10.597   2.768 -0.4504 -0.0169  0.0880
41744SOL    HW129917   0.673  10.552   2.851  0.2918  0.6444  0.3120
41744SOL    HW229918   0.582  10.551   2.730  0.6720 -1.8746 -0.0056
41745SOL     OW29919   9.085   6.525   2.562 -0.0537  0.1283 -0.0494
41745SOL    HW129920   9.175   6.526   2.594 -0.6566  2.2312  1.8432
41745SOL    HW229921   9.043   6.452   2.608  0.6744 -0.9480 -1.0482
41746SOL     OW29922  11.683   1.559   2.432 -0.3339  0.3725 -0.1732
41746SOL    HW129923  11.762   1.545   2.379 -0.3396  4.0129 -1.4129
41746SOL    HW229924  11.717   1.591   2.516 -0.4555  1.2497 -0.4542
41747SOL     OW29925   7.913   6.715   7.839 -0.0780 -0.4787 -0.1911
41747SOL    HW129926   7.853   6.673   7.900  0.2357  0.8618  1.1059
41747SOL    HW229927   7.999   6.708   7.880 -0.2439  2.9839  1.1062
41748SOL     OW29928   7.593  10.378  10.379 -0.0547 -1.0762  0.5922
41748SOL    HW129929   7.684  10.347  10.382  0.0274 -0.8119  0.8649
41748SOL    HW229930   7.598  10.464  10.338  0.1302  0.0038  2.7322
41749SOL     OW29931   9.555   2.614   9.310 -0.8764  0.2675 -0.0923
41749SOL    HW129932   9.624   2.624   9.245 -1.0501 -0.7861 -0.4719
41749SOL    HW229933   9.566   2.688   9.369  1.8808 -0.9202  1.0503
41750SOL     OW29934   8.305  10.984   6.744 -0.4318  0.0927  0.7373
41750SOL    HW129935   8.281  11.063   6.793  0.5407 -0.0990  1.5666
41750SOL    HW229936   8.275  11.001   6.654 -1.9062  0.6079  1.3079
41751SOL     OW29937   6.814   3.933   7.412 -0.1663 -0.3352  0.1128
41751SOL    HW129938   6.817   4.000   7.345 -0.7824 -0.8633 -0.4576
41751SOL    HW229939   6.900   3.892   7.410 -0.5700 -1.1714 -1.2320
41752SOL     OW29940   6.832   6.104   1.538  0.1459 -0.5580  0.4987
41752SOL    HW129941   6.925   6.094   1.521 -0.0872 -1.1006 -0.5184
41752SOL    HW229942   6.797   6.147   1.460 -0.6973 -1.6864  0.2259
41753SOL     OW29943   8.868  10.406  11.350  0.0487  0.5304  0.7392
41753SOL    HW129944   8.832  10.440  11.268  1.4801  0.8484  0.2212
41753SOL    HW229945   8.884  10.313  11.333  1.2862  0.8058  0.2929
41754SOL     OW29946   4.658   6.912   5.274  0.1125 -0.0823  0.4533
41754SOL    HW129947   4.586   6.861   5.237 -1.2011  2.4506 -0.7511
41754SOL    HW229948   4.723   6.916   5.205  0.0827  0.0943  0.4340
41755SOL     OW29949   3.969  11.128   2.388  0.1235 -0.8167 -0.8296
41755SOL    HW129950   3.965  11.177   2.305  1.1882 -0.1793 -0.5240
41755SOL    HW229951   4.057  11.089   2.388 -0.3223 -1.8421 -0.5617
41756SOL     OW29952   1.420  10.401   9.611 -0.7259  0.0721 -0.0131
41756SOL    HW129953   1.356  10.441   9.552  0.6402 -0.3358 -1.8652
41756SOL    HW229954   1.396  10.309   9.615  0.8538 -0.5063 -2.3608
41757SOL     OW29955   2.999   7.103   0.939  0.4088 -0.3019  0.4906
41757SOL    HW129956   2.940   7.148   0.999 -1.4890 -0.7079 -0.9700
41757SOL    HW229957   3.058   7.053   0.996  1.1872  2.2075  2.0931
41758SOL     OW29958  10.150  10.825   4.420  0.3772 -0.3696 -0.3116
41758SOL    HW129959  10.240  10.794   4.424  0.6805  0.4611 -0.4175
41758SOL    HW229960  10.096  10.746   4.426  1.1141 -0.8978 -0.6284
41759SOL     OW29961   1.652   6.513   1.370 -0.1255  0.2050 -0.0892
41759SOL    HW129962   1.672   6.538   1.461  0.0357  1.4793 -0.4431
41759SOL    HW229963   1.595   6.584   1.338  3.2767  2.2376 -2.2922
41760SOL     OW29964  10.556   5.688   7.639 -0.1673  0.2404 -0.2549
41760SOL    HW129965  10.465   5.705   7.617  0.2005  0.3308 -1.7840
41760SOL    HW229966  10.573   5.746   7.714 -1.5967 -0.4805  0.6854
41761SOL     OW29967   3.982   0.481   2.008  0.4109  0.0917 -0.5519
41761SOL    HW129968   3.979   0.388   1.986 -0.4490  0.0307 -0.2383
41761SOL    HW229969   4.066   0.511   1.976  1.1468 -1.0297  0.2612
41762SOL     OW29970   6.115   5.231  10.658 -0.5781 -0.0924 -0.2875
41762SOL    HW129971   6.079   5.278  10.733  1.9517  0.0515  0.9330
41762SOL    HW229972   6.139   5.299  10.596 -0.7919 -0.0805 -0.3597
41763SOL     OW29973   4.798   0.079   5.852  0.0642  0.5054 -0.0785
41763SOL    HW129974   4.743   0.001   5.860  1.4094 -0.8475 -2.7000
41763SOL    HW229975   4.887   0.046   5.867  0.6669  1.4661 -1.3662
41764SOL     OW29976   0.949   8.718   8.646  0.2030  0.0346 -0.4053
41764SOL    HW129977   0.992   8.736   8.563  1.1581 -0.7807 -0.0997
41764SOL    HW229978   0.891   8.645   8.628  1.1057 -0.7583 -0.1501
41765SOL     OW29979   2.142   4.743   1.126 -0.0440 -0.2151  0.0421
41765SOL    HW129980   2.145   4.661   1.176 -0.5887  2.0574  4.2211
41765SOL    HW229981   2.049   4.760   1.115  0.0677 -0.5764 -1.7687
41766SOL     OW29982   3.739   3.054  10.602 -0.0999  0.1651 -0.5328
41766SOL    HW129983   3.798   3.110  10.552  0.3596  0.3157  0.1705
41766SOL    HW229984   3.657   3.055  10.552  0.3686  0.2410 -1.3273
41767SOL     OW29985   4.241  11.867  11.583 -0.0682  0.0962  0.2242
41767SOL    HW129986   4.150  11.890  11.603 -0.0132 -1.0739  1.9656
41767SOL    HW229987   4.289  11.886  11.663  1.5406  2.0488 -1.0975
41768SOL     OW29988   2.918   4.366   7.337 -0.2829  0.3465  0.1620
41768SOL    HW129989   2.951   4.447   7.298 -0.1382  1.5310  2.5538
41768SOL    HW229990   2.989   4.336   7.395 -1.4037  0.0890  1.4566
41769SOL     OW29991   9.089  10.284   2.615 -0.0594  0.1582 -0.5641
41769SOL    HW129992   9.158  10.235   2.571 -1.0484 -2.2560  0.3740
41769SOL    HW229993   9.012  10.274   2.558 -0.4510  0.0151 -0.0188
41770SOL     OW29994   5.306   0.080   4.434 -0.2618 -0.0627 -0.5724
41770SOL    HW129995   5.214   0.055   4.428 -0.0197 -0.8761 -1.0594
41770SOL    HW229996   5.354  -0.002   4.423  0.5145  0.2423  0.3712
41771SOL     OW29997   9.502   5.333   5.540  0.6062  0.3531  0.6290
41771SOL    HW129998   9.474   5.341   5.631  1.0696  0.8729  0.7277
41771SOL    HW229999   9.480   5.417   5.500 -0.4556 -0.1956  0.0108
41772SOL     OW30000   0.829   5.887   7.060  0.1102 -0.0171 -0.5294
41772SOL    HW130001   0.855   5.813   7.005  0.4950  1.3361 -2.2564
41772SOL    HW230002   0.911   5.913   7.104  0.3255  0.3505 -1.1383
41773SOL     OW30003   0.159   3.918   8.839 -0.3239 -0.3862 -0.2450
41773SOL    HW130004   0.151   3.965   8.755 -0.5354  1.8163  0.9312
41773SOL    HW230005   0.199   3.835   8.816  1.2947  0.8743 -2.3263
41774SOL     OW30006   3.280   3.488   2.912  0.3515 -0.0943 -0.2587
41774SOL    HW130007   3.260   3.497   2.819  0.9318 -1.1291 -0.5000
41774SOL    HW230008   3.279   3.578   2.945 -0.3823  0.2417 -1.1448
41775SOL     OW30009   4.401   8.306   6.587  0.3886 -0.0922 -0.0999
41775SOL    HW130010   4.352   8.351   6.655  0.6245  1.4934 -0.8988
41775SOL    HW230011   4.345   8.234   6.559 -0.4126  0.2290  0.6440
41776SOL     OW30012   4.783   9.027  10.538  0.0283 -0.4510  0.1257
41776SOL    HW130013   4.827   8.977  10.607  1.4043  0.6299  0.0921
41776SOL    HW230014   4.847   9.094  10.513 -1.0694  0.2016 -1.0631
41777SOL     OW30015   4.797   9.365   5.912 -0.0668  0.4292 -0.0669
41777SOL    HW130016   4.875   9.309   5.917 -0.2937 -0.0488 -1.4451
41777SOL    HW230017   4.782   9.393   6.002 -0.2012 -2.0967  0.7978
41778SOL     OW30018   8.831   7.588   5.694 -0.0307  0.1114  0.2990
41778SOL    HW130019   8.917   7.547   5.707 -0.2285 -0.0012  1.3802
41778SOL    HW230020   8.783   7.568   5.775 -0.3556  1.9195  0.5796
41779SOL     OW30021   3.529   2.758   5.554 -0.5834 -0.1551  0.5141
41779SOL    HW130022   3.523   2.779   5.461 -0.5305  1.3102  0.8232
41779SOL    HW230023   3.479   2.677   5.564 -0.7311 -0.2355 -0.7487
41780SOL     OW30024   3.655   9.540   0.014 -0.1080 -0.4531 -0.2457
41780SOL    HW130025   3.627   9.631   0.006 -0.3265 -0.2009  2.3652
41780SOL    HW230026   3.574   9.490   0.022  0.0440 -0.6306  0.2150
41781SOL     OW30027   2.564   7.764  10.922  0.0670  0.0807 -0.4407
41781SOL    HW130028   2.481   7.775  10.875 -0.2050  1.0760  0.2271
41781SOL    HW230029   2.561   7.831  10.991  0.9038 -0.6542  0.3386
41782SOL     OW30030   6.759   8.549  11.408  0.4225  0.0091  0.6112
41782SOL    HW130031   6.731   8.626  11.456  1.4056  1.1809 -0.6032
41782SOL    HW230032   6.812   8.584  11.336 -0.5057 -1.6783 -0.9686
41783SOL     OW30033   3.224   9.528   9.503 -0.1955  0.2144 -0.2348
41783SOL    HW130034   3.284   9.516   9.577  0.1435  1.4415 -0.2834
41783SOL    HW230035   3.140   9.496   9.534  0.3364 -0.9648  0.0469
41784SOL     OW30036   9.248   3.975  10.903 -0.4419  0.4436  0.0830
41784SOL    HW130037   9.304   4.022  10.840  0.6648  0.0018  0.7038
41784SOL    HW230038   9.258   3.883  10.879 -0.5584  0.3285  0.4794
41785SOL     OW30039   4.426  10.080   6.993  0.6289  0.6178 -0.1096
41785SOL    HW130040   4.439  10.069   7.087 -0.3578  0.8665  0.0670
41785SOL    HW230041   4.397   9.995   6.962  1.4175  0.4030 -0.2862
41786SOL     OW30042   1.165   4.646  11.285 -0.4040  0.8332 -0.5336
41786SOL    HW130043   1.190   4.642  11.378 -0.0247  0.0805 -0.6596
41786SOL    HW230044   1.218   4.716  11.249  1.3631 -0.5319 -0.7261
41787SOL     OW30045  10.651   0.050  10.699  0.2257  0.0346 -0.0863
41787SOL    HW130046  10.622   0.111  10.766  0.8439  0.1436  0.0899
41787SOL    HW230047  10.635  -0.036  10.736  0.8664  0.0920  0.3479
41788SOL     OW30048   9.642   9.053   2.098  0.1902 -0.0927  0.1740
41788SOL    HW130049   9.591   9.130   2.123  0.5132 -0.0147  0.6058
41788SOL    HW230050   9.598   9.019   2.021 -0.2441  0.2426  0.2710
41789SOL     OW30051   1.256   8.344   8.971 -0.3523  0.0062 -0.7809
41789SOL    HW130052   1.343   8.313   8.997  1.0501  2.9012 -1.5369
41789SOL    HW230053   1.231   8.407   9.039 -1.2792  0.1074 -1.2015
41790SOL     OW30054  10.813   7.910   0.019 -0.3645  0.6713 -0.2277
41790SOL    HW130055  10.791   7.884  -0.070  1.2223  0.7327 -0.6544
41790SOL    HW230056  10.740   7.966   0.046 -1.6691 -0.6590 -0.8724
41791SOL     OW30057  10.953  11.372  10.434 -0.4696 -0.0875 -0.0916
41791SOL    HW130058  10.957  11.417  10.518 -1.4777 -1.1811  0.5819
41791SOL    HW230059  10.871  11.322  10.437 -1.2084  0.8725 -2.2714
41792SOL     OW30060   3.256   3.560   4.846  0.0115  0.3853  0.4616
41792SOL    HW130061   3.320   3.541   4.915  0.0579  0.2491  0.3816
41792SOL    HW230062   3.196   3.486   4.848  0.4882 -0.0248 -0.1926
41793SOL     OW30063   5.094   4.484  10.827  0.0997  0.4412  0.6665
41793SOL    HW130064   5.131   4.421  10.766 -1.7736 -0.3770  0.3141
41793SOL    HW230065   5.106   4.569  10.785 -1.6657 -0.1515 -1.1781
41794SOL     OW30066   2.192   9.238   6.698  0.8137 -0.1834  0.4064
41794SOL    HW130067   2.171   9.316   6.646  2.1239  0.1599  0.3422
41794SOL    HW230068   2.286   9.245   6.712  0.9879 -1.8986  0.1987
41795SOL     OW30069   9.692   7.012   1.387 -0.8428 -0.2517  0.7153
41795SOL    HW130070   9.671   6.924   1.417  1.2191 -1.0803 -0.0881
41795SOL    HW230071   9.674   7.011   1.293 -0.5261  0.0885  0.6482
41796SOL     OW30072   8.509   2.986   3.237 -0.1188 -0.0485 -0.4399
41796SOL    HW130073   8.514   3.066   3.184  0.0220 -0.7213 -1.4729
41796SOL    HW230074   8.425   2.947   3.214 -0.6427  0.2938  0.8113
41797SOL     OW30075   5.686   3.325   0.678 -0.2231  0.4115 -0.1818
41797SOL    HW130076   5.681   3.397   0.615  0.5415 -0.7297 -1.6171
41797SOL    HW230077   5.764   3.276   0.651  0.1841 -0.0593  1.7522
41798SOL     OW30078   8.922  10.749  11.104  0.5522  0.4870  0.0877
41798SOL    HW130079   8.950  10.800  11.028  1.6034  0.8097  0.6598
41798SOL    HW230080   9.004  10.726  11.148 -0.0474  0.8752  1.4763
41799SOL     OW30081   5.389  11.892   9.409  0.2873  0.1190 -0.1462
41799SOL    HW130082   5.457  11.826   9.401  0.4383  0.1344  0.9023
41799SOL    HW230083   5.326  11.869   9.340  0.3331 -1.1286  0.1931
41800SOL     OW30084  10.907   1.195   3.831 -0.6079  0.4420 -0.2102
41800SOL    HW130085  10.868   1.279   3.806 -1.6075 -0.1674 -0.8252
41800SOL    HW230086  10.923   1.203   3.925 -2.0203  0.8336  0.0282
41801SOL     OW30087   5.471   8.810   7.665 -0.2072 -0.5245 -0.1745
41801SOL    HW130088   5.391   8.757   7.656  0.0645 -0.8070 -1.1275
41801SOL    HW230089   5.536   8.763   7.613  0.3045  0.2412 -0.2379
41802SOL     OW30090   1.365   6.219   9.515  0.0842 -0.3660  0.3056
41802SOL    HW130091   1.391   6.270   9.439 -0.8746 -0.7576 -0.2982
41802SOL    HW230092   1.441   6.165   9.535  1.4170  1.8079  1.4352
41803SOL     OW30093   8.957   3.626   0.255 -0.3007  0.0413  0.0438
41803SOL    HW130094   8.951   3.647   0.348 -2.7753  0.4680 -0.1453
41803SOL    HW230095   8.872   3.652   0.219 -0.3756 -2.4907 -1.8485
41804SOL     OW30096  11.264   6.612   2.284 -0.4907 -0.1804  0.1512
41804SOL    HW130097  11.285   6.544   2.220 -1.0101 -1.0089  0.8393
41804SOL    HW230098  11.282   6.571   2.369  0.5136  1.0043  0.5533
41805SOL     OW30099  11.489   4.627   8.906  0.3418 -0.2699  0.5884
41805SOL    HW130100  11.442   4.649   8.986  0.3764 -2.1006  1.1689
41805SOL    HW230101  11.484   4.531   8.901  0.5115 -0.2235 -1.4923
41806SOL     OW30102  10.334  10.964   2.408 -1.0970  0.2671  0.2275
41806SOL    HW130103  10.276  10.889   2.419 -0.1766 -0.5493 -0.3981
41806SOL    HW230104  10.299  11.011   2.332 -1.0815 -0.0778  0.0082
41807SOL     OW30105   0.011   7.644   0.658  0.0279  0.1333 -0.3613
41807SOL    HW130106   0.009   7.550   0.677 -0.0862  0.2254  0.1156
41807SOL    HW230107   0.100   7.660   0.628 -0.2887 -0.3352 -1.5937
41808SOL     OW30108  11.368   4.725   3.058  0.1326  0.2867  0.3090
41808SOL    HW130109  11.447   4.686   3.096  0.2167 -0.0985 -0.2490
41808SOL    HW230110  11.383   4.722   2.964 -0.9716 -0.6802  0.1491
41809SOL     OW30111   5.621  11.008  10.084  0.3911 -0.4482  0.1953
41809SOL    HW130112   5.639  11.089  10.037  0.4804 -0.3193  0.4497
41809SOL    HW230113   5.568  10.956  10.023 -1.4495  0.6424  0.7752
41810SOL     OW30114   0.066   0.386   8.863  0.8508  0.5893 -0.3295
41810SOL    HW130115   0.024   0.441   8.797 -0.4242 -0.5752 -0.5249
41810SOL    HW230116   0.015   0.401   8.943 -0.8134 -1.7501 -0.8600
41811SOL     OW30117   7.326   3.298   2.422  0.1038  0.0572 -0.1013
41811SOL    HW130118   7.253   3.359   2.418  0.4187  0.4410 -0.1406
41811SOL    HW230119   7.314   3.240   2.347  0.8350  1.2752 -1.2108
41812SOL     OW30120   0.402   5.270   2.144 -0.6158 -0.3633 -0.1670
41812SOL    HW130121   0.341   5.206   2.179 -1.8371 -0.1000 -1.6990
41812SOL    HW230122   0.347   5.345   2.119  0.4001  0.1273 -1.0448
41813SOL     OW30123   4.791   3.341   3.634 -0.0356  0.3675 -0.0709
41813SOL    HW130124   4.803   3.353   3.540  0.5299  0.0640 -0.0430
41813SOL    HW230125   4.699   3.363   3.649 -0.0308  0.8152 -0.6265
41814SOL     OW30126   0.636   4.111   7.977 -0.6632 -0.2902 -0.2632
41814SOL    HW130127   0.704   4.048   8.000 -1.1046 -0.1736  1.4316
41814SOL    HW230128   0.683   4.191   7.954 -0.2222  0.1799  2.0949
41815SOL     OW30129  10.695   5.411   1.739 -0.2392 -0.6350 -0.1113
41815SOL    HW130130  10.643   5.470   1.793  0.6161  0.9135 -0.8949
41815SOL    HW230131  10.784   5.447   1.744  0.1101 -1.2527 -1.4388
41816SOL     OW30132   9.570   5.809   1.647  0.0934  0.5569  0.0698
41816SOL    HW130133   9.632   5.755   1.597  0.7751  1.3119  0.0724
41816SOL    HW230134   9.533   5.868   1.581 -0.9886 -0.1970 -0.0184
41817SOL     OW30135   6.958   9.484   1.054 -0.3989  0.5473 -0.0405
41817SOL    HW130136   6.998   9.398   1.071 -0.8407  0.2296 -0.5590
41817SOL    HW230137   6.939   9.519   1.140  2.5679  1.4828  0.3420
41818SOL     OW30138  10.732  10.356   3.962  0.3206 -0.1311  0.9058
41818SOL    HW130139  10.660  10.394   4.013  0.5250  1.1754  0.2542
41818SOL    HW230140  10.692  10.281   3.917 -1.3103  1.8869 -1.2531
41819SOL     OW30141  11.558   4.478   2.917  0.4516 -0.0402 -0.5623
41819SOL    HW130142  11.581   4.388   2.893 -2.7939 -1.4191  0.8408
41819SOL    HW230143  11.578   4.484   3.011 -0.7586  0.1326 -0.2994
41820SOL     OW30144   7.320   0.621  10.729 -0.2066  0.1035  0.0178
41820SOL    HW130145   7.326   0.678  10.806  2.1251 -0.4092  0.2979
41820SOL    HW230146   7.261   0.551  10.756  1.3658 -0.6420  1.8130
41821SOL     OW30147   6.579   8.479   5.333  0.4269 -0.1112 -0.1222
41821SOL    HW130148   6.621   8.502   5.416  0.9750 -0.5711 -0.2649
41821SOL    HW230149   6.514   8.413   5.356 -0.1987  0.5646  0.0929
41822SOL     OW30150   9.564   1.785   4.459 -0.4922 -0.4928 -0.6752
41822SOL    HW130151   9.652   1.750   4.467 -0.3924 -0.1046 -0.0034
41822SOL    HW230152   9.564   1.833   4.375  0.2184  0.2847 -0.2425
41823SOL     OW30153   2.124   8.110   4.678 -0.2484 -0.0535 -0.3725
41823SOL    HW130154   2.172   8.033   4.648 -0.9156 -0.3910 -0.5888
41823SOL    HW230155   2.182   8.151   4.741  0.0223 -0.8611 -0.0831
41824SOL     OW30156   1.181   9.381   1.326 -0.3378 -0.6099 -0.3134
41824SOL    HW130157   1.203   9.381   1.419 -0.2840 -2.8827 -0.2574
41824SOL    HW230158   1.244   9.321   1.287 -0.9192 -0.3737 -1.6662
41825SOL     OW30159   7.658   4.426   9.093 -0.5254 -0.2707  0.7096
41825SOL    HW130160   7.590   4.389   9.037  0.6972 -1.2379 -0.1999
41825SOL    HW230161   7.673   4.360   9.160  0.8057 -0.9400 -0.2012
41826SOL     OW30162   0.966   0.536  11.029 -0.1435 -0.3597  0.4369
41826SOL    HW130163   0.947   0.518  11.121  0.0482  0.8460  0.7253
41826SOL    HW230164   0.895   0.494  10.981 -1.3968  0.7347  1.2695
41827SOL     OW30165   7.405  11.865   2.716  0.1300  0.6308  0.1883
41827SOL    HW130166   7.416  11.953   2.679  1.4801  0.4186  0.0051
41827SOL    HW230167   7.394  11.809   2.639  0.6310  0.4784  0.2243
41828SOL     OW30168   8.136   0.689   9.773 -0.3550 -0.2632  0.2950
41828SOL    HW130169   8.205   0.755   9.764  1.2824 -1.9349 -0.0582
41828SOL    HW230170   8.064   0.722   9.718  0.3378  1.2812  0.2589
41829SOL     OW30171   7.172   3.412   8.884 -0.0854 -0.3739 -0.2671
41829SOL    HW130172   7.154   3.438   8.794  0.6346 -1.0366 -0.6184
41829SOL    HW230173   7.126   3.329   8.895  1.2549 -1.2092 -0.6268
41830SOL     OW30174   1.122   4.698   1.594  0.3977 -0.0256  0.2027
41830SOL    HW130175   1.157   4.611   1.576  1.9200  0.2770  1.4952
41830SOL    HW230176   1.050   4.708   1.531  0.0880 -2.2461  0.1026
41831SOL     OW30177   9.289   0.299   8.579 -0.5947 -0.4030 -0.1545
41831SOL    HW130178   9.321   0.388   8.596 -0.2908 -0.8093  1.5969
41831SOL    HW230179   9.232   0.280   8.654 -0.9805 -1.5314 -0.7163
41832SOL     OW30180   4.168   6.304  10.943  0.6323  0.0642  0.0381
41832SOL    HW130181   4.254   6.263  10.955 -0.4772 -3.2241 -1.8387
41832SOL    HW230182   4.168   6.333  10.852 -0.0534  0.5688  0.1922
41833SOL     OW30183  11.544   7.712   2.252  0.0468 -0.5908  0.0090
41833SOL    HW130184  11.622   7.688   2.303 -0.8415 -1.3635  1.0557
41833SOL    HW230185  11.481   7.643   2.271 -0.3867 -0.8249 -2.0531
41834SOL     OW30186   7.869   2.561   5.542  0.2436  0.8677  0.5852
41834SOL    HW130187   7.793   2.619   5.543  0.2774  0.9252 -0.2118
41834SOL    HW230188   7.928   2.599   5.607 -0.0851  1.2505  0.6661
41835SOL     OW30189   3.189   4.394   8.701  0.3300 -0.0112 -0.2616
41835SOL    HW130190   3.240   4.423   8.626 -0.4388  0.7236 -0.5274
41835SOL    HW230191   3.198   4.464   8.765 -0.2454  0.0877 -0.2772
41836SOL     OW30192  10.081   6.383   9.523  0.3992  0.5327 -0.0405
41836SOL    HW130193  10.040   6.439   9.456  0.7891  0.2020 -0.5610
41836SOL    HW230194  10.128   6.316   9.473 -1.0099 -0.9786  0.5628
41837SOL     OW30195   5.779   5.300   8.397 -0.4647  0.7372 -0.0456
41837SOL    HW130196   5.738   5.368   8.344 -0.0181  0.1446 -1.1881
41837SOL    HW230197   5.815   5.347   8.472  1.4179  2.0969 -1.6749
41838SOL     OW30198   1.848   8.321   6.048 -0.2006  0.1954  0.2760
41838SOL    HW130199   1.858   8.382   6.122 -1.2860 -0.0998  0.6836
41838SOL    HW230200   1.930   8.329   5.999  0.8992 -0.1933  1.9648
41839SOL     OW30201   2.201   0.311   2.855 -0.3774  0.2710 -0.0816
41839SOL    HW130202   2.188   0.396   2.896 -0.6565  0.5633 -0.7628
41839SOL    HW230203   2.260   0.329   2.782  1.7904 -0.5733  1.3569
41840SOL     OW30204   8.722   0.517   1.887  0.0442  0.1831 -0.8720
41840SOL    HW130205   8.633   0.511   1.920  0.2306 -0.1574 -0.4231
41840SOL    HW230206   8.713   0.507   1.792 -0.4409  0.6497 -0.8768
41841SOL     OW30207   0.156  11.730   3.751  0.1977 -0.8227 -0.1286
41841SOL    HW130208   0.160  11.678   3.671  0.1260  0.5264 -1.0448
41841SOL    HW230209   0.225  11.795   3.741  0.7751 -1.1702  1.3280
41842SOL     OW30210   4.955   3.973   7.784  0.7806  0.4266  0.6122
41842SOL    HW130211   4.941   3.916   7.860 -0.8554  0.2231  0.2118
41842SOL    HW230212   5.011   4.043   7.817  1.8607 -0.7583  1.4331
41843SOL     OW30213   6.882   1.472   3.256 -0.0139 -0.2644 -0.0549
41843SOL    HW130214   6.836   1.482   3.173 -2.9060 -0.8180  1.3770
41843SOL    HW230215   6.880   1.378   3.274  0.2025 -0.1107  0.8361
41844SOL     OW30216   1.313  11.421   9.548 -0.0463 -0.1330 -0.5222
41844SOL    HW130217   1.387  11.415   9.608  0.8145  0.1586 -1.5269
41844SOL    HW230218   1.245  11.468   9.597  0.7171  0.2873  0.1423
41845SOL     OW30219   9.935   3.897   2.631 -0.6589 -0.7576  0.0469
41845SOL    HW130220   9.960   3.984   2.664  0.5594 -0.4639 -1.5434
41845SOL    HW230221   9.970   3.836   2.696 -1.2154 -0.1028  1.0007
41846SOL     OW30222   9.340   1.672   6.719  0.3665 -0.1567  0.0444
41846SOL    HW130223   9.385   1.686   6.635  0.4579  0.8871  0.2507
41846SOL    HW230224   9.399   1.615   6.768  1.2673  0.8140  0.1353
41847SOL     OW30225   3.222  10.680   0.389 -0.3167 -0.1134 -0.2878
41847SOL    HW130226   3.292  10.638   0.439  0.3083  0.2398 -0.8479
41847SOL    HW230227   3.192  10.612   0.328 -0.1739 -0.1404 -0.3286
41848SOL     OW30228   7.578   0.407   8.105  0.7434  0.0403  0.3876
41848SOL    HW130229   7.516   0.335   8.115  0.5324  0.1023 -0.4484
41848SOL    HW230230   7.522   0.485   8.103  0.9241  0.1761  0.6106
41849SOL     OW30231   3.014   6.749   9.880 -0.4151  0.1253 -0.2755
41849SOL    HW130232   2.939   6.690   9.869  0.2000 -0.9684  1.0274
41849SOL    HW230233   3.051   6.758   9.793 -1.3243 -0.3370 -0.7223
41850SOL     OW30234   8.536   2.516   1.513  0.0340 -0.1304  0.0273
41850SOL    HW130235   8.616   2.554   1.477  0.0925 -0.2141  0.0672
41850SOL    HW230236   8.468   2.538   1.449  0.4621 -1.8771 -1.1249
41851SOL     OW30237  11.632   1.390   3.490 -0.7356  0.5406 -0.2574
41851SOL    HW130238  11.639   1.297   3.469 -1.7857  0.5235 -0.5765
41851SOL    HW230239  11.656   1.435   3.409 -2.9215  0.4962 -0.9796
41852SOL     OW30240   9.954   0.471   4.630 -0.6052 -0.4188 -0.8332
41852SOL    HW130241   9.962   0.484   4.536  2.6564  0.6562 -0.5320
41852SOL    HW230242  10.043   0.484   4.664 -1.7268 -0.3607  2.4503
41853SOL     OW30243   6.558   1.206   6.986 -0.7421 -0.5628  0.1774
41853SOL    HW130244   6.640   1.158   7.001 -0.9256 -0.1120  3.0732
41853SOL    HW230245   6.492   1.156   7.033 -1.4801  0.9453  0.7841
41854SOL     OW30246   4.936   5.238   8.010 -0.2233  0.0289  0.2028
41854SOL    HW130247   5.028   5.234   8.037  0.2996 -0.4198 -1.4937
41854SOL    HW230248   4.911   5.330   8.020  1.1711  0.6561 -1.5528
41855SOL     OW30249   9.805   6.023  10.626  0.2464 -0.3808  0.1295
41855SOL    HW130250   9.815   6.010  10.720 -0.7030 -1.3595  0.1189
41855SOL    HW230251   9.890   6.000  10.590  0.9584  1.0575  0.8215
41856SOL     OW30252   8.999   1.816   3.410 -0.4195 -0.3254  0.1588
41856SOL    HW130253   8.929   1.771   3.458  0.6294 -1.0858  1.0578
41856SOL    HW230254   9.042   1.870   3.477  0.2894 -0.4295 -0.2057
41857SOL     OW30255   2.517   4.956   2.521  0.1683 -0.1495  0.2954
41857SOL    HW130256   2.577   5.012   2.571  2.6531 -1.6347 -0.7917
41857SOL    HW230257   2.454   5.016   2.482  0.7889  1.4954  1.6930
41858SOL     OW30258   0.986   6.212  11.062  0.1005  0.6188 -0.4155
41858SOL    HW130259   0.977   6.123  11.098  0.1982  0.2300 -1.3348
41858SOL    HW230260   1.031   6.200  10.979  2.3935  1.7772  0.5589
41859SOL     OW30261   3.898   3.912   2.746  0.1870  0.1060  0.3396
41859SOL    HW130262   3.894   3.867   2.661  0.5755  1.3988 -0.3997
41859SOL    HW230263   3.807   3.918   2.774 -0.0565  0.5644 -0.5000
41860SOL     OW30264   2.772   4.068   4.087  0.0780  1.0557  0.0123
41860SOL    HW130265   2.806   4.087   4.175  0.7729 -0.2778  0.0487
41860SOL    HW230266   2.850   4.061   4.032  0.0449 -2.6593  0.2108
41861SOL     OW30267   0.417  10.732   7.283 -0.4211 -0.6706  0.2766
41861SOL    HW130268   0.393  10.825   7.280  2.8368  0.3052 -0.5494
41861SOL    HW230269   0.410  10.708   7.375 -1.6633  0.2658  0.4542
41862SOL     OW30270   9.372   4.152   1.161  0.6763 -0.5561 -0.7102
41862SOL    HW130271   9.323   4.097   1.221 -0.9701  0.6552 -0.8669
41862SOL    HW230272   9.379   4.101   1.080 -1.1979 -0.4059 -0.9990
41863SOL     OW30273   4.466   1.197   8.864 -0.7014  0.4547 -0.0674
41863SOL    HW130274   4.545   1.241   8.894 -0.3884  0.2549 -0.5933
41863SOL    HW230275   4.402   1.268   8.853 -0.3903  0.7009 -0.2984
41864SOL     OW30276   4.139   3.129  11.959  0.1808  0.5186 -0.3324
41864SOL    HW130277   4.209   3.064  11.965  0.8372  1.2486  0.2603
41864SOL    HW230278   4.183   3.207  11.923 -0.8392  0.3054 -2.1932
41865SOL     OW30279   1.304   0.469   7.558 -0.4241 -0.1528  0.5824
41865SOL    HW130280   1.211   0.483   7.575 -0.4346  0.2385  0.2349
41865SOL    HW230281   1.317   0.503   7.469 -0.0994 -0.8705  0.3419
41866SOL     OW30282   8.039   7.266   0.670 -0.2480 -0.2062  0.1011
41866SOL    HW130283   8.023   7.211   0.593 -0.8242  0.8985 -0.5923
41866SOL    HW230284   7.997   7.220   0.742 -1.5380 -0.2377 -0.6367
41867SOL     OW30285   7.507   2.014   3.716 -0.2901 -0.0282  0.1756
41867SOL    HW130286   7.563   2.015   3.793 -0.1679  0.8579  0.0853
41867SOL    HW230287   7.448   2.088   3.728 -1.4518 -0.9486  0.2648
41868SOL     OW30288   0.629   2.124   5.706 -0.0090  0.6153 -0.0452
41868SOL    HW130289   0.543   2.164   5.696 -0.7618 -0.4046  1.8866
41868SOL    HW230290   0.690   2.188   5.669 -1.5652  1.3734 -1.4122
41869SOL     OW30291   0.092   9.347   5.458 -0.2982 -0.3325  0.0278
41869SOL    HW130292   0.048   9.389   5.384 -1.4068 -0.1661  0.7505
41869SOL    HW230293   0.104   9.418   5.522 -1.9728 -1.0006  1.1681
41870SOL     OW30294   9.047   3.977   3.758 -0.0169 -0.0585 -0.1577
41870SOL    HW130295   8.955   3.992   3.779 -0.9902 -3.2214 -1.4199
41870SOL    HW230296   9.094   3.996   3.839 -1.7676  1.5953  0.5370
41871SOL     OW30297   1.227  10.989  11.125 -0.5763  0.6376  0.5302
41871SOL    HW130298   1.220  10.916  11.064 -1.6714  0.5760  0.7057
41871SOL    HW230299   1.184  11.062  11.080 -1.2746  0.6256  1.1674
41872SOL     OW30300   8.843   7.740  11.993  0.1784 -0.3470 -0.2119
41872SOL    HW130301   8.827   7.798  12.068  1.5915  0.4823 -0.5156
41872SOL    HW230302   8.924   7.694  12.015  1.8781  1.5389 -2.1241
41873SOL     OW30303   0.392   4.060   0.615 -0.2503 -0.3394  0.2477
41873SOL    HW130304   0.302   4.062   0.583 -0.9149 -0.8881  1.9834
41873SOL    HW230305   0.441   4.114   0.553 -1.5030 -1.0912 -1.4775
41874SOL     OW30306   3.381   7.394  10.014  0.2646  0.1360  0.1813
41874SOL    HW130307   3.449   7.460  10.030 -0.4990  1.1430 -0.5555
41874SOL    HW230308   3.300   7.436  10.042 -0.0430 -1.1555  1.3004
41875SOL     OW30309   3.326   6.638   1.247 -0.1339  0.2287  0.1778
41875SOL    HW130310   3.356   6.677   1.329  0.3918  1.0668 -0.4022
41875SOL    HW230311   3.402   6.643   1.189 -0.8916  0.8510 -0.7779
41876SOL     OW30312  11.301   3.208   1.580 -0.2264  0.2603 -0.3829
41876SOL    HW130313  11.396   3.198   1.586 -0.4128 -1.3890  0.0072
41876SOL    HW230314  11.275   3.251   1.661  0.2374  1.3712 -0.7944
41877SOL     OW30315   1.982  10.964   3.956  0.3241  0.2119  0.0927
41877SOL    HW130316   1.931  11.041   3.929 -0.5647  0.0242  1.1850
41877SOL    HW230317   1.917  10.900   3.983  1.1320 -0.0947  1.3715
41878SOL     OW30318   2.665  11.160   8.207  0.6733  0.0832 -0.0061
41878SOL    HW130319   2.589  11.118   8.166 -0.0517  0.7466  0.6007
41878SOL    HW230320   2.657  11.138   8.300 -0.9580  3.1935  0.7509
41879SOL     OW30321   3.015   9.285   9.677  0.2945  0.1446  0.1430
41879SOL    HW130322   3.016   9.379   9.659 -1.6945  0.2921  0.6129
41879SOL    HW230323   2.926   9.257   9.655  0.7487 -1.5680  0.3333
41880SOL     OW30324   6.376   2.662   1.923 -0.0658 -0.0987  0.5194
41880SOL    HW130325   6.357   2.605   1.848  1.0317  0.0958  0.0835
41880SOL    HW230326   6.327   2.623   1.996 -0.0819 -1.0531  0.0128
41881SOL     OW30327   6.750   5.146   9.475  0.5142  0.5147  0.2245
41881SOL    HW130328   6.781   5.107   9.557 -1.3050 -1.8985 -0.1461
41881SOL    HW230329   6.811   5.112   9.409  0.6492  0.6412  0.2834
41882SOL     OW30330   4.159  10.896   8.032  0.0262 -0.7773 -0.5372
41882SOL    HW130331   4.096  10.828   8.055 -0.4849 -0.3109 -0.5658
41882SOL    HW230332   4.166  10.890   7.937 -2.0322  0.9497 -0.8669
41883SOL     OW30333  10.177   8.282  11.836 -0.3321  0.9132  0.4209
41883SOL    HW130334  10.148   8.340  11.765 -1.7605 -0.5306 -0.2581
41883SOL    HW230335  10.096   8.253  11.878  0.2949 -0.6693  0.6269
41884SOL     OW30336   3.604   6.967   8.408  0.3180 -0.0987  0.0983
41884SOL    HW130337   3.528   7.003   8.453 -0.6763  0.1110 -1.6465
41884SOL    HW230338   3.607   6.875   8.435  0.0755  0.1482  0.9798
41885SOL     OW30339   2.842  10.951   6.306  0.0525  0.0472 -0.2233
41885SOL    HW130340   2.804  10.884   6.248  0.0428 -0.5156  0.4243
41885SOL    HW230341   2.806  10.932   6.392  1.2278 -0.0523  0.2697
41886SOL     OW30342   6.751   0.657   2.936  0.1374  0.4722  0.6891
41886SOL    HW130343   6.717   0.595   3.001  0.5895 -1.1099 -0.5245
41886SOL    HW230344   6.827   0.698   2.979 -0.7027  0.8859  1.8322
41887SOL     OW30345   8.581   3.485  10.455  0.6914  0.2990 -0.6674
41887SOL    HW130346   8.518   3.485  10.527  1.1645  0.6828 -0.2464
41887SOL    HW230347   8.666   3.475  10.497  0.9285 -0.0516 -1.2222
41888SOL     OW30348   3.455   7.860   6.030 -0.0010 -0.5013 -0.3972
41888SOL    HW130349   3.536   7.810   6.045  0.6572  0.5444 -0.3541
41888SOL    HW230350   3.444   7.859   5.935  1.0619  0.8070 -0.5810
41889SOL     OW30351   7.416   8.858   5.374 -0.6788  0.1134 -0.6846
41889SOL    HW130352   7.352   8.889   5.438 -0.3442 -1.2720  0.3824
41889SOL    HW230353   7.364   8.815   5.307 -0.9125 -0.8037  0.0602
41890SOL     OW30354   4.412   6.776   7.857 -0.0123  0.0782  0.4289
41890SOL    HW130355   4.450   6.863   7.851 -1.1994  0.5170 -2.4631
41890SOL    HW230356   4.344   6.783   7.925  1.2173  0.8078  1.6158
41891SOL     OW30357   3.085  11.652   4.725 -0.1340 -0.0351 -0.3324
41891SOL    HW130358   3.128  11.712   4.786 -0.1266 -0.8386  0.4712
41891SOL    HW230359   3.137  11.658   4.645  0.1772  0.6249 -0.0877
41892SOL     OW30360   2.853   1.930   7.361 -0.5977  0.2180 -0.0830
41892SOL    HW130361   2.906   1.997   7.404  0.3097 -0.9815  0.7386
41892SOL    HW230362   2.853   1.856   7.422 -1.4387 -0.6020 -1.0300
41893SOL     OW30363   5.001   2.911   5.583  0.0793 -0.5168  0.0812
41893SOL    HW130364   4.986   2.985   5.641  1.1937  0.6080 -1.0093
41893SOL    HW230365   4.917   2.896   5.540 -0.0848  0.2945  0.1156
41894SOL     OW30366   1.205   8.824   2.586 -0.7416 -0.1811  0.4108
41894SOL    HW130367   1.164   8.745   2.623  1.6229 -1.5901  0.2195
41894SOL    HW230368   1.239   8.870   2.662 -0.8469 -0.1019  0.4105
41895SOL     OW30369   0.811   6.073   0.073  0.2926 -0.1311  0.3278
41895SOL    HW130370   0.743   6.133   0.043  0.5164  0.3292  0.7106
41895SOL    HW230371   0.823   6.011   0.001 -0.8466 -0.5028  0.4377
41896SOL     OW30372   8.170   3.363   6.268 -0.6246  0.0171 -0.1172
41896SOL    HW130373   8.091   3.318   6.299 -1.2999  1.0224 -0.3160
41896SOL    HW230374   8.172   3.346   6.174  0.7204 -1.9606  0.1955
41897SOL     OW30375   2.209   5.359   2.451 -0.0332  0.5783  0.4796
41897SOL    HW130376   2.265   5.437   2.454 -1.9991  2.0220  1.2675
41897SOL    HW230377   2.152   5.373   2.376 -1.1141  0.4220  1.2466
41898SOL     OW30378   6.987   1.668   0.700  0.3825  0.2027  0.9326
41898SOL    HW130379   6.911   1.658   0.757 -0.6023  0.9256 -0.2025
41898SOL    HW230380   6.976   1.600   0.633  0.5696  0.5247  0.5746
41899SOL     OW30381  11.077   1.199  11.999 -0.0687 -0.2786  0.1942
41899SOL    HW130382  11.094   1.221  12.090 -0.7961  1.9973 -0.1529
41899SOL    HW230383  10.982   1.209  11.988  0.1761  0.9479 -1.1327
41900SOL     OW30384   0.971   7.069   9.789 -0.2373  0.3221  0.0394
41900SOL    HW130385   1.032   6.995   9.796 -0.7555 -0.1566 -0.4078
41900SOL    HW230386   0.889   7.030   9.760 -0.2311  1.2159 -1.2851
41901SOL     OW30387   1.531   4.553   8.362  0.3569  0.4948 -0.2678
41901SOL    HW130388   1.609   4.573   8.413 -0.0056  1.8783 -0.2123
41901SOL    HW230389   1.534   4.615   8.289  0.0743 -0.4332 -1.0881
41902SOL     OW30390   6.396   4.845   4.150 -0.1414  0.1419 -0.0980
41902SOL    HW130391   6.413   4.795   4.230 -0.9961  0.2352  0.1583
41902SOL    HW230392   6.324   4.798   4.107  1.1556 -0.6311 -1.4796
41903SOL     OW30393   2.864   0.311   9.341 -0.6280  0.1616  0.2180
41903SOL    HW130394   2.822   0.381   9.390  1.1040  1.3915  0.0536
41903SOL    HW230395   2.809   0.300   9.263 -1.4700  0.6278  0.7301
41904SOL     OW30396   8.684   1.307   6.630  0.3970 -0.3432  0.8788
41904SOL    HW130397   8.658   1.375   6.568  0.3205 -0.5232  0.7130
41904SOL    HW230398   8.673   1.225   6.582  2.4350 -0.3744  0.3696
41905SOL     OW30399   9.210  10.897   3.995  0.5950 -0.3287 -0.4121
41905SOL    HW130400   9.145  10.894   4.065 -1.5966 -0.0457 -2.3025
41905SOL    HW230401   9.242  10.987   3.995 -1.0150  0.2794 -1.1001
41906SOL     OW30402   6.778   2.367  10.743  0.0495 -0.1744  0.2307
41906SOL    HW130403   6.849   2.413  10.699  0.7487 -0.4223  1.0837
41906SOL    HW230404   6.820   2.321  10.815 -0.9748 -0.3581  0.7232
41907SOL     OW30405   9.090   3.454  10.354  0.3144 -0.4856 -0.2436
41907SOL    HW130406   9.125   3.538  10.326  1.5659 -0.5529  1.0602
41907SOL    HW230407   9.167   3.399  10.369 -0.3100 -0.7974  2.2190
41908SOL     OW30408   1.045   2.837  10.898  0.4184 -0.0769  0.4635
41908SOL    HW130409   1.092   2.882  10.827  0.7214  0.5444  1.0528
41908SOL    HW230410   0.997   2.766  10.853 -0.5202  1.1541 -0.5752
41909SOL     OW30411   8.124   4.123   5.002  0.5377 -0.1048  0.3320
41909SOL    HW130412   8.207   4.084   5.031  0.1238 -1.2860 -0.0145
41909SOL    HW230413   8.097   4.069   4.928 -0.0361  0.9055 -0.2194
41910SOL     OW30414   9.857   6.997   3.145  0.4523 -0.5001  0.1467
41910SOL    HW130415   9.935   7.050   3.163 -0.4966  1.2119 -0.4747
41910SOL    HW230416   9.798   7.057   3.100 -0.0838 -2.5797 -2.0977
41911SOL     OW30417   3.893   6.489   5.420 -0.7627 -0.2422  0.2450
41911SOL    HW130418   3.805   6.470   5.387 -0.4497 -0.1632 -0.6657
41911SOL    HW230419   3.924   6.563   5.367  0.4835 -1.3195 -0.6076
41912SOL     OW30420   0.530   5.144   7.774  0.0375  0.5853  0.0841
41912SOL    HW130421   0.602   5.083   7.758  0.3847  1.2369 -0.9325
41912SOL    HW230422   0.519   5.190   7.691 -1.9794  0.0645  0.0248
41913SOL     OW30423  11.708   0.141  10.696  0.0733 -0.6250  0.0027
41913SOL    HW130424  11.761   0.107  10.768  3.0526  0.1662 -1.6737
41913SOL    HW230425  11.673   0.224  10.729 -2.0781 -2.1757  1.9015
41914SOL     OW30426   9.574   7.059   2.791 -0.5452  0.2858 -0.4381
41914SOL    HW130427   9.479   7.049   2.792 -0.4022 -2.9690  2.8845
41914SOL    HW230428   9.606   6.984   2.741  0.3514  2.0149 -2.5798
41915SOL     OW30429  10.923   8.991   0.288  0.3744 -0.4755 -0.1239
41915SOL    HW130430  10.881   9.062   0.335 -1.7908 -0.6465 -1.6572
41915SOL    HW230431  10.876   8.985   0.205  3.0683 -1.1345 -1.7376
41916SOL     OW30432   8.975  10.177   8.822 -0.3552  0.1298  0.1373
41916SOL    HW130433   9.071  10.170   8.822 -0.1816  1.2872  2.9474
41916SOL    HW230434   8.957  10.258   8.776 -0.2094 -1.1762 -2.3902
41917SOL     OW30435   7.717   1.317   0.186  0.9782 -0.3276 -0.0363
41917SOL    HW130436   7.745   1.238   0.232 -1.8841 -0.8390  1.0365
41917SOL    HW230437   7.659   1.285   0.117  2.2002  0.7046 -1.6172
41918SOL     OW30438   7.359   4.865   2.194  0.1352  0.0933  0.6684
41918SOL    HW130439   7.328   4.913   2.271 -2.3556 -2.0316  1.1402
41918SOL    HW230440   7.374   4.776   2.226 -3.0004 -1.4157 -1.5237
41919SOL     OW30441   9.574  10.613   8.362  0.6862  0.0597  0.4433
41919SOL    HW130442   9.563  10.634   8.455 -1.3454  1.6508 -0.0913
41919SOL    HW230443   9.575  10.697   8.318  0.9825 -0.6946 -1.0607
41920SOL     OW30444   0.988  11.931   5.032 -0.1710  0.5088  0.3659
41920SOL    HW130445   0.899  11.962   5.050 -0.4209  0.5110 -0.7986
41920SOL    HW230446   1.028  12.001   4.981  0.4343  0.4093  0.6924
41921SOL     OW30447   0.215   0.675   5.164 -0.1099 -0.0141  0.1652
41921SOL    HW130448   0.150   0.740   5.193 -0.0609 -0.0040  0.2533
41921SOL    HW230449   0.299   0.722   5.169 -0.2407  0.4643 -1.3724
41922SOL     OW30450   0.036  10.133   5.145  0.1300  0.2570  0.2770
41922SOL    HW130451   0.055  10.043   5.119 -0.6452 -0.2202  1.2836
41922SOL    HW230452  -0.051  10.129   5.185  0.8098  1.1334  1.9208
41923SOL     OW30453   8.810   9.202   9.593 -0.0621  0.3312  0.0021
41923SOL    HW130454   8.846   9.131   9.538 -1.5017 -1.8284  1.6773
41923SOL    HW230455   8.882   9.224   9.653  0.4799  0.4939 -0.6906
41924SOL     OW30456   8.230   8.822   7.944  0.6268 -0.1194 -0.5421
41924SOL    HW130457   8.300   8.850   7.885 -0.1943  1.7395 -0.6917
41924SOL    HW230458   8.271   8.824   8.031  0.7280  1.1215 -0.6071
41925SOL     OW30459   8.037   7.135   9.146 -0.2198 -0.3390  0.0753
41925SOL    HW130460   8.024   7.060   9.088  1.0060 -0.2058 -0.4073
41925SOL    HW230461   7.981   7.204   9.109 -2.4640 -1.3928  1.3498
41926SOL     OW30462   6.742   3.838  10.268  0.1126 -0.2142 -0.3478
41926SOL    HW130463   6.708   3.910  10.322 -0.5066 -0.7492 -0.0049
41926SOL    HW230464   6.835   3.836  10.287  0.1112  0.4125 -0.2578
41927SOL     OW30465   5.214   3.920  10.522 -0.1298 -0.4965  0.0700
41927SOL    HW130466   5.183   4.009  10.505  1.6520  0.4249  1.3235
41927SOL    HW230467   5.219   3.879  10.435 -0.7196  0.7063 -0.5529
41928SOL     OW30468   6.848  11.663   5.819  0.1797 -0.1150  0.1674
41928SOL    HW130469   6.764  11.620   5.803 -0.5038  1.3785 -0.4215
41928SOL    HW230470   6.845  11.744   5.767  2.7200 -0.8603 -1.3725
41929SOL     OW30471   1.149   9.907  11.414 -0.7602 -0.6924 -0.1672
41929SOL    HW130472   1.113   9.995  11.416 -0.6313 -0.6020 -1.2691
41929SOL    HW230473   1.108   9.862  11.488 -0.4953  0.4042  0.6729
41930SOL     OW30474   1.085  10.558   9.116 -0.3953 -0.0860  0.2088
41930SOL    HW130475   1.114  10.625   9.178 -0.2670 -0.0413  0.1019
41930SOL    HW230476   1.047  10.608   9.043  0.8577 -0.0708 -0.4656
41931SOL     OW30477   8.050   8.792   2.907  0.3871 -0.3870 -0.3465
41931SOL    HW130478   8.034   8.879   2.944 -2.6473 -1.2414  0.6929
41931SOL    HW230479   8.088   8.809   2.821  2.2982  1.8314  0.8277
41932SOL     OW30480   2.240   7.285   2.855  0.1419 -0.3144  0.1806
41932SOL    HW130481   2.298   7.358   2.833  0.7333 -0.5551  0.8977
41932SOL    HW230482   2.287   7.207   2.826  0.5396 -0.5674  1.4654
41933SOL     OW30483   0.514   1.562  11.397  0.2319  0.7018 -0.2514
41933SOL    HW130484   0.566   1.623  11.344 -0.0117  0.9137 -0.2483
41933SOL    HW230485   0.457   1.518  11.333  0.1479  0.7418 -0.2034
41934SOL     OW30486  11.782   1.811   1.923  0.3192 -0.0690  0.5345
41934SOL    HW130487  11.689   1.826   1.937 -0.2853 -1.1049 -1.9286
41934SOL    HW230488  11.814   1.782   2.009 -1.2013  1.9350  1.8834
41935SOL     OW30489  11.674   1.268   8.633 -0.5060  0.4752 -0.7725
41935SOL    HW130490  11.687   1.293   8.724  2.7355 -2.3936 -0.2006
41935SOL    HW230491  11.726   1.331   8.583  1.0382 -0.2441 -0.1504
41936SOL     OW30492   5.694   6.863   6.139 -0.0330 -0.1270 -0.4888
41936SOL    HW130493   5.688   6.871   6.234  0.4819  0.1474 -0.4753
41936SOL    HW230494   5.742   6.781   6.125  0.1326 -0.0257 -0.5084
41937SOL     OW30495   7.674   2.020   0.439 -0.2162  0.1834 -0.2587
41937SOL    HW130496   7.709   2.022   0.350  0.2249 -1.1003 -0.1252
41937SOL    HW230497   7.645   2.110   0.455  0.7254  0.6871 -1.2852
41938SOL     OW30498   8.573   7.877   5.656  0.3065 -0.5710  0.0267
41938SOL    HW130499   8.648   7.868   5.597 -2.0086  0.2448 -3.3218
41938SOL    HW230500   8.556   7.971   5.659 -1.1788 -0.7996 -0.1970
41939SOL     OW30501   2.223   1.263   3.283  0.5555  0.8055 -0.5421
41939SOL    HW130502   2.274   1.243   3.205  1.7208  0.5058  0.2825
41939SOL    HW230503   2.262   1.210   3.352 -2.0934 -0.9972 -0.2519
41940SOL     OW30504   6.889   7.754   4.944  0.1430  0.2372  0.2932
41940SOL    HW130505   6.794   7.761   4.932 -0.0538  0.0534  1.6473
41940SOL    HW230506   6.912   7.826   5.003  0.3959 -1.3325  2.1964
41941SOL     OW30507   2.848  11.861  11.730 -0.0964  0.2786  0.1816
41941SOL    HW130508   2.860  11.955  11.713  1.6741  0.0303 -0.2050
41941SOL    HW230509   2.902  11.844  11.807 -1.7721 -0.1286  1.3159
41942SOL     OW30510   7.987   7.741   1.615  0.2884  0.7762 -0.7017
41942SOL    HW130511   8.035   7.673   1.662 -2.1484 -0.3486  0.3039
41942SOL    HW230512   7.990   7.712   1.523  1.7723  0.9484 -0.7455
41943SOL     OW30513  11.682  10.355   6.429 -0.1246 -0.1921  0.0455
41943SOL    HW130514  11.605  10.360   6.486 -0.6052 -0.0790 -0.5993
41943SOL    HW230515  11.754  10.331   6.487 -0.5523  0.1957  0.7444
41944SOL     OW30516   2.527   2.821   0.893 -0.3460  0.2356  0.3543
41944SOL    HW130517   2.470   2.767   0.948 -0.4088  0.2199  0.2720
41944SOL    HW230518   2.469   2.884   0.851 -0.5023 -0.6319 -0.7804
41945SOL     OW30519   5.974   3.733   3.052  0.6889 -0.0110 -0.0656
41945SOL    HW130520   6.016   3.687   3.125 -0.5103  1.4609  1.6470
41945SOL    HW230521   5.911   3.670   3.016  1.0683 -0.6496  0.3759
41946SOL     OW30522   5.062   0.196   9.422  0.3119  0.0855  0.2398
41946SOL    HW130523   4.996   0.168   9.359  0.5054 -0.9725  0.4767
41946SOL    HW230524   5.144   0.195   9.372  0.6081 -1.6080  0.6696
41947SOL     OW30525  11.764   9.413  11.122  0.2029 -0.6393 -0.0089
41947SOL    HW130526  11.687   9.458  11.156  1.3298  2.3271 -1.0669
41947SOL    HW230527  11.832   9.426  11.188  0.6020 -0.6294 -0.4147
41948SOL     OW30528  11.321  10.114  10.916 -0.3914 -0.0211 -0.4956
41948SOL    HW130529  11.311  10.162  10.833  2.1466  0.7686 -0.4505
41948SOL    HW230530  11.314  10.182  10.984  3.0071  0.4579 -0.4233
41949SOL     OW30531   3.492   7.966   0.797  0.0224  0.1362 -0.1089
41949SOL    HW130532   3.583   7.953   0.773  0.6974 -0.3681  2.4610
41949SOL    HW230533   3.448   7.885   0.772  1.1331 -1.2456  2.1456
41950SOL     OW30534   6.696   8.152   8.149 -0.2435 -0.5186 -0.1470
41950SOL    HW130535   6.756   8.224   8.127  0.6797 -1.2901 -0.2257
41950SOL    HW230536   6.625   8.160   8.086  0.0720  0.0576 -0.4434
41951SOL     OW30537  11.761   1.394  10.707  0.3723  0.4187 -0.0051
41951SOL    HW130538  11.678   1.435  10.681  0.2889  2.1275  2.5843
41951SOL    HW230539  11.739   1.302  10.720 -0.8713  0.6429 -0.3765
41952SOL     OW30540   9.420   7.930   4.890  0.6575 -0.1230 -0.0471
41952SOL    HW130541   9.329   7.905   4.903  0.9027 -1.3033 -0.4831
41952SOL    HW230542   9.437   7.995   4.958 -0.2986 -0.4517  0.5251
41953SOL     OW30543   9.972   3.610   6.480 -0.5194 -0.2690  0.1072
41953SOL    HW130544   9.975   3.557   6.560  0.0528 -0.5696 -0.1092
41953SOL    HW230545  10.054   3.590   6.434 -0.1325  1.0461  0.1766
41954SOL     OW30546   8.662   6.742  11.992  0.0549 -0.2566 -0.3255
41954SOL    HW130547   8.687   6.826  11.952  0.5298 -0.8586 -1.3602
41954SOL    HW230548   8.744   6.693  11.997 -0.4786 -1.3146 -1.3832
41955SOL     OW30549  10.507  11.583   7.051  0.6623  0.7502 -0.0477
41955SOL    HW130550  10.433  11.554   7.104 -0.4136  0.7933 -1.4814
41955SOL    HW230551  10.506  11.526   6.974  0.4529  2.4933 -1.3874
41956SOL     OW30552   9.022   1.492   2.482 -0.1218  0.2034 -0.0814
41956SOL    HW130553   9.098   1.520   2.431  0.3281 -0.1017  0.4118
41956SOL    HW230554   9.052   1.413   2.528 -0.3984  0.6601  0.9186
41957SOL     OW30555   2.896   3.720  11.134  0.2595 -0.6575  0.2273
41957SOL    HW130556   2.962   3.744  11.200  1.6293  0.9193 -1.6167
41957SOL    HW230557   2.935   3.646  11.087  0.5656  0.0071 -0.5898
41958SOL     OW30558   7.748   1.714  11.337 -0.2182  0.1842 -0.0381
41958SOL    HW130559   7.783   1.636  11.294  0.5148  0.5897 -0.1865
41958SOL    HW230560   7.653   1.706  11.326 -0.1381 -0.5547 -0.2759
41959SOL     OW30561   3.985   9.659   9.128 -1.0198  0.4928  0.2823
41959SOL    HW130562   3.974   9.679   9.221  1.8232 -0.6917  0.9562
41959SOL    HW230563   4.060   9.712   9.100 -1.3634  0.2698 -1.1738
41960SOL     OW30564   9.608   8.636   6.208  0.1372 -0.3948  0.2139
41960SOL    HW130565   9.601   8.727   6.179  1.9826  0.5243  2.2733
41960SOL    HW230566   9.529   8.622   6.261  0.4418  0.4990  0.9500
41961SOL     OW30567  10.053   4.780   1.781 -0.3452  0.4656  0.2149
41961SOL    HW130568  10.048   4.870   1.813  2.9670  0.5640  0.8357
41961SOL    HW230569  10.086   4.788   1.692  1.9937 -0.0576  0.9474
41962SOL     OW30570   4.548   9.649   3.990 -0.9327  0.0563 -0.5225
41962SOL    HW130571   4.533   9.723   4.048 -1.3744  0.5040 -1.1982
41962SOL    HW230572   4.523   9.572   4.042  0.6018  0.2537  0.5779
41963SOL     OW30573   2.388   3.233   7.546 -0.3094 -0.5268 -0.3194
41963SOL    HW130574   2.437   3.230   7.628  0.4085  1.6354 -0.6100
41963SOL    HW230575   2.297   3.219   7.572 -0.0808  0.0349  0.8497
41964SOL     OW30576   8.688   2.314   4.118  0.2836  0.4242 -0.1916
41964SOL    HW130577   8.780   2.289   4.107  0.1821  0.0751 -0.2539
41964SOL    HW230578   8.654   2.320   4.028  0.2209  0.4572 -0.1656
41965SOL     OW30579   3.987   9.987   6.690  0.0450 -0.6172  0.0566
41965SOL    HW130580   3.935   9.941   6.756  0.7117 -2.5543 -0.7216
41965SOL    HW230581   3.984   9.930   6.613  0.2316  1.0483 -1.2427
41966SOL     OW30582   9.701   9.471   7.966  0.6461 -0.2800  0.5062
41966SOL    HW130583   9.656   9.421   8.034 -1.1135 -0.2291 -0.5582
41966SOL    HW230584   9.774   9.415   7.939  0.2251 -1.1243  1.0961
41967SOL     OW30585   6.000   0.731   7.172  0.9344  0.1957 -0.3740
41967SOL    HW130586   5.928   0.712   7.112 -1.3359  1.8378  1.6122
41967SOL    HW230587   6.042   0.809   7.136  0.4470  0.3772 -0.5554
41968SOL     OW30588  11.279   4.176   0.676  0.1139  0.0733 -0.2783
41968SOL    HW130589  11.228   4.173   0.757  0.3481 -2.8108 -0.1168
41968SOL    HW230590  11.318   4.264   0.675  0.0974  0.2280  2.7354
41969SOL     OW30591  11.259  11.334   6.906 -0.1140  0.0199 -0.4152
41969SOL    HW130592  11.310  11.352   6.827 -0.1094  0.4201 -0.3238
41969SOL    HW230593  11.180  11.291   6.875 -0.6568  1.2120 -0.7647
41970SOL     OW30594   4.945   0.799  11.954  0.3460 -0.0388  0.1802
41970SOL    HW130595   4.937   0.705  11.969  1.5721 -0.3297 -0.8281
41970SOL    HW230596   4.902   0.814  11.870  1.2622  0.0803 -0.2757
41971SOL     OW30597   5.410   3.726   4.103 -0.0600 -0.5002  0.6243
41971SOL    HW130598   5.442   3.672   4.175  1.0158  0.2172  0.7006
41971SOL    HW230599   5.475   3.796   4.094 -1.6615  1.0986  0.8716
41972SOL     OW30600   7.309   8.992   1.913 -0.2466  0.4145  0.6065
41972SOL    HW130601   7.220   8.963   1.930 -1.0368  2.3389 -0.0309
41972SOL    HW230602   7.362   8.947   1.979 -2.0283  1.1019  2.5919
41973SOL     OW30603   3.582   2.168   1.003  0.5589  0.9024  0.5493
41973SOL    HW130604   3.556   2.259   0.990 -1.0872  0.6381  1.7506
41973SOL    HW230605   3.618   2.166   1.092 -0.0411  0.2571  0.7847
41974SOL     OW30606   8.019   9.035   2.102 -0.3198  0.0233  0.1827
41974SOL    HW130607   8.029   8.940   2.093  0.9422  0.1207  0.3784
41974SOL    HW230608   8.083   9.060   2.169 -0.7647  0.9872  0.2665
41975SOL     OW30609   4.209   5.704   9.967 -0.0892 -0.4137  0.0566
41975SOL    HW130610   4.176   5.715  10.057 -1.3880 -0.7370 -0.3626
41975SOL    HW230611   4.131   5.709   9.912  0.8682  1.5796 -1.2351
41976SOL     OW30612   2.742   1.041   3.044  0.6008  0.5568 -0.1058
41976SOL    HW130613   2.663   0.990   3.063  1.2369  0.0409  1.3492
41976SOL    HW230614   2.769   1.074   3.129  1.8001  0.9479 -0.6260
41977SOL     OW30615   7.328   5.311   7.772  0.6569 -0.1874 -0.3458
41977SOL    HW130616   7.301   5.305   7.863 -0.4287 -0.4262 -0.6658
41977SOL    HW230617   7.424   5.316   7.775  0.5807  2.5574  0.9406
41978SOL     OW30618   1.731   7.067   3.807 -0.7221 -0.4422 -0.6276
41978SOL    HW130619   1.697   6.979   3.789  0.0038 -1.0949  1.0070
41978SOL    HW230620   1.797   7.054   3.875  1.7436  0.9524 -2.5708
41979SOL     OW30621   3.764   6.628   2.202  0.2923 -0.6558 -0.4190
41979SOL    HW130622   3.844   6.579   2.221  0.3995 -0.3681 -0.1015
41979SOL    HW230623   3.795   6.715   2.176  0.0791 -0.4733 -0.0800
41980SOL     OW30624   8.363  10.595   6.183 -0.1128  0.0182 -0.2103
41980SOL    HW130625   8.317  10.603   6.266  0.1213 -1.0462  0.0367
41980SOL    HW230626   8.456  10.606   6.206 -0.1033  0.4308 -0.4415
41981SOL     OW30627   8.592  11.867   6.139 -0.0223  0.9175  0.1184
41981SOL    HW130628   8.584  11.852   6.233 -0.7960  1.3095  0.1210
41981SOL    HW230629   8.507  11.903   6.113  0.2530  0.9995 -0.6934
41982SOL     OW30630   2.906   8.238   4.216  0.0023  0.8655 -0.4124
41982SOL    HW130631   2.976   8.290   4.176  1.6277  0.3819  1.6207
41982SOL    HW230632   2.896   8.274   4.304 -1.8946  0.4847 -0.4275
41983SOL     OW30633   4.391   0.895   3.426  0.2505  0.0880  0.6904
41983SOL    HW130634   4.388   0.823   3.490 -2.1159 -0.7857 -0.2839
41983SOL    HW230635   4.300   0.905   3.398  0.9256  1.7983 -1.0726
41984SOL     OW30636   5.410   6.039  10.487 -0.2212 -0.2713 -0.3012
41984SOL    HW130637   5.432   6.054  10.579 -0.6880 -1.0098 -0.0574
41984SOL    HW230638   5.466   5.965  10.461 -0.3562 -0.3042 -0.5030
41985SOL     OW30639   7.337   3.636   8.482 -0.1507  0.4910 -0.4156
41985SOL    HW130640   7.391   3.601   8.553  1.1406  2.3717 -0.3862
41985SOL    HW230641   7.340   3.568   8.415 -0.5617 -0.8903  0.8979
41986SOL     OW30642   0.787   9.677   8.018  0.0831 -0.1825 -0.2998
41986SOL    HW130643   0.814   9.663   7.927 -0.5261  0.2529 -0.5518
41986SOL    HW230644   0.691   9.683   8.014  0.1635  2.5011 -0.0250
41987SOL     OW30645   9.650   5.567   8.399 -0.6594  0.1269 -0.1002
41987SOL    HW130646   9.671   5.557   8.307  0.0745  1.2225 -0.0718
41987SOL    HW230647   9.718   5.519   8.445 -2.2834 -2.3547 -0.1365
41988SOL     OW30648   3.293   5.886   7.550 -0.2349  0.4813  0.3848
41988SOL    HW130649   3.369   5.904   7.605 -0.0500  1.2331 -0.1055
41988SOL    HW230650   3.279   5.792   7.558  0.1477  0.4935  1.2462
41989SOL     OW30651   0.532   1.988   6.293  0.0547  0.0396  0.4114
41989SOL    HW130652   0.441   1.996   6.267 -0.0472  2.0986  1.1790
41989SOL    HW230653   0.570   1.927   6.231 -1.7092 -0.4205 -0.2645
41990SOL     OW30654   8.202   8.522   2.475  0.8005  0.3689 -0.0395
41990SOL    HW130655   8.241   8.608   2.463 -0.7899  1.0897 -0.2675
41990SOL    HW230656   8.260   8.477   2.537  0.1381  2.6335  2.3762
41991SOL     OW30657   0.930   0.060   6.599  0.1518  0.7158  0.2305
41991SOL    HW130658   0.889   0.061   6.686 -0.4274  0.2383 -0.0394
41991SOL    HW230659   0.896  -0.018   6.556  1.0165  0.5362 -0.1584
41992SOL     OW30660   8.842  11.560  10.041 -0.2125  0.2177 -0.2390
41992SOL    HW130661   8.913  11.604  10.088 -1.8341  1.5399  1.0847
41992SOL    HW230662   8.873  11.557   9.950  1.0873  1.7625  0.0986
41993SOL     OW30663   2.899  11.683   5.232 -0.5341 -0.4856  0.1376
41993SOL    HW130664   2.838  11.753   5.208  1.6616  1.4996  0.0752
41993SOL    HW230665   2.935  11.653   5.148 -0.0356 -0.3337  0.2970
41994SOL     OW30666   3.033   3.110   2.119  0.2956 -0.1988 -0.3569
41994SOL    HW130667   2.997   3.197   2.138 -1.0713 -0.8425  0.0704
41994SOL    HW230668   3.109   3.128   2.062  2.0053  1.4760  2.2549
41995SOL     OW30669   2.183   1.310   9.796  0.5441  0.0957 -0.4818
41995SOL    HW130670   2.158   1.221   9.773 -0.4506 -0.5503  2.6163
41995SOL    HW230671   2.099   1.356   9.806  0.8873  0.4907  0.8618
41996SOL     OW30672  11.668   8.901   8.271 -0.0587 -0.1683 -0.1585
41996SOL    HW130673  11.733   8.970   8.283 -0.5757 -0.0317  2.5501
41996SOL    HW230674  11.714   8.832   8.224  1.7232  0.3758  0.7122
41997SOL     OW30675   2.205   0.389   2.351 -0.1297 -0.2016 -0.3623
41997SOL    HW130676   2.276   0.405   2.288  0.3534 -2.0011 -0.3437
41997SOL    HW230677   2.187   0.295   2.342 -1.3213 -0.1159  0.8927
41998SOL     OW30678   8.055   8.512   9.722  0.5156  0.7248  0.0887
41998SOL    HW130679   8.064   8.601   9.687 -0.6317  0.8389  0.0396
41998SOL    HW230680   8.145   8.479   9.726  0.7937  0.9952 -2.1903
41999SOL     OW30681   6.443   3.415   8.517 -0.7971  0.0918  0.1541
41999SOL    HW130682   6.472   3.460   8.597 -1.1118  0.5749 -0.0002
41999SOL    HW230683   6.353   3.389   8.536 -0.8140  0.0515  0.0190
42000SOL     OW30684   8.204   0.080   2.437 -0.9453  0.4569  0.3842
42000SOL    HW130685   8.205   0.157   2.381  0.7099 -0.5024 -1.0220
42000SOL    HW230686   8.199   0.006   2.375 -0.9665 -0.6017  1.6059
42001SOL     OW30687   7.134   3.398   5.077  0.1034  0.0510  0.4803
42001SOL    HW130688   7.088   3.322   5.111 -1.2198  0.3412 -0.5770
42001SOL    HW230689   7.209   3.362   5.030  0.5403 -0.4722  1.5492
42002SOL     OW30690   6.226   9.717   6.291  0.2192  0.4450 -0.0629
42002SOL    HW130691   6.173   9.711   6.213  0.3658  1.0853 -0.2210
42002SOL    HW230692   6.199   9.799   6.332 -0.4537 -0.2785  1.0087
42003SOL     OW30693   9.879   8.524   8.871 -0.2564 -0.7646  0.0744
42003SOL    HW130694   9.938   8.487   8.936 -2.1780 -1.0061  1.7724
42003SOL    HW230695   9.848   8.449   8.820  1.4838 -0.5433 -1.4277
42004SOL     OW30696   5.624   1.685   5.594 -0.1770 -0.6842 -0.3359
42004SOL    HW130697   5.633   1.609   5.536  0.6930  0.5562 -1.8863
42004SOL    HW230698   5.709   1.728   5.590 -1.4407  1.8878 -1.7012
42005SOL     OW30699   5.892  11.522   8.480 -0.3153  0.0204 -0.2949
42005SOL    HW130700   5.948  11.490   8.409 -0.0564  0.0186 -0.0901
42005SOL    HW230701   5.869  11.443   8.529  2.8294  0.3594  2.0696
42006SOL     OW30702   2.758   5.194   8.891  0.4266  0.5819  0.0846
42006SOL    HW130703   2.841   5.212   8.848 -0.1418  1.7604 -0.5391
42006SOL    HW230704   2.728   5.112   8.851 -0.7574  2.3030 -2.8985
42007SOL     OW30705   0.678  10.546   4.555 -0.2531  0.0602 -0.6466
42007SOL    HW130706   0.621  10.487   4.504 -0.2582 -0.4284 -0.0823
42007SOL    HW230707   0.707  10.493   4.629  1.0087  0.2789 -0.9673
42008SOL     OW30708   5.529   6.869   2.956  0.2584  0.0620  0.6804
42008SOL    HW130709   5.447   6.833   2.987  0.5323 -1.3920 -0.1760
42008SOL    HW230710   5.533   6.957   2.994 -2.1781  0.5874 -0.1100
42009SOL     OW30711   2.520   6.541   5.408 -0.4986  0.0028  0.7011
42009SOL    HW130712   2.512   6.601   5.334 -0.4340 -0.4296  0.3397
42009SOL    HW230713   2.443   6.485   5.402  1.3314 -2.5753 -1.3610
42010SOL     OW30714   6.051   4.079  11.438  0.1047  0.7375 -0.3197
42010SOL    HW130715   6.110   4.139  11.393  0.2107  0.3049 -0.7711
42010SOL    HW230716   6.037   4.118  11.524  0.9991  0.8667 -0.2298
42011SOL     OW30717   7.893  11.889   1.137  0.2746 -0.2552 -0.5005
42011SOL    HW130718   7.875  11.802   1.174  1.6438 -0.5383 -0.4439
42011SOL    HW230719   7.807  11.922   1.111 -0.4850 -0.8784  1.0939
42012SOL     OW30720   9.022   0.469  12.001 -0.4953  0.0708 -0.8184
42012SOL    HW130721   9.065   0.429  11.926  0.3931 -1.3080  0.3628
42012SOL    HW230722   9.079   0.541  12.027 -0.4747  0.1454 -1.0716
42013SOL     OW30723   6.068   1.349   0.496  0.0288 -0.0756 -0.6112
42013SOL    HW130724   6.122   1.302   0.559 -0.3345  1.2235  0.7244
42013SOL    HW230725   5.988   1.297   0.488  0.2431 -0.4507 -0.3015
42014SOL     OW30726   0.591   0.792  10.169  0.1889  0.0415 -0.4403
42014SOL    HW130727   0.683   0.780  10.146  0.7170  2.3427  0.2362
42014SOL    HW230728   0.552   0.834  10.092 -0.3354 -0.9401 -0.7310
42015SOL     OW30729   5.226   3.978   5.809  0.0169 -0.8528 -0.5066
42015SOL    HW130730   5.258   3.891   5.786  0.4670 -0.4705 -1.3840
42015SOL    HW230731   5.278   4.037   5.755  0.9963  0.0964  1.4237
42016SOL     OW30732   2.033   3.315   3.290 -0.1087 -0.3428 -0.0797
42016SOL    HW130733   1.980   3.393   3.273  1.8420  1.0490 -0.0471
42016SOL    HW230734   2.031   3.266   3.208  1.2242  1.3765 -1.1971
42017SOL     OW30735   4.719   7.681  10.948 -0.3203 -0.3585  0.2952
42017SOL    HW130736   4.707   7.607  10.889 -1.1294 -0.1551  0.1978
42017SOL    HW230737   4.738   7.641  11.033 -1.2981 -0.6954  0.3645
42018SOL     OW30738   9.260   0.387   4.413  0.3380 -0.0430 -0.2221
42018SOL    HW130739   9.191   0.398   4.347 -0.0753 -0.4718  0.1274
42018SOL    HW230740   9.340   0.415   4.369 -0.0692  0.5438 -0.6094
42019SOL     OW30741   8.769   1.853   1.079  0.4544 -0.1657  0.7975
42019SOL    HW130742   8.861   1.874   1.064  0.2030 -0.2519 -0.9996
42019SOL    HW230743   8.722   1.932   1.054  0.0361  0.0423  2.1467
42020SOL     OW30744   2.767   5.832   2.752 -0.3814 -0.0741 -0.3312
42020SOL    HW130745   2.679   5.868   2.746  0.0591  0.8480 -1.5762
42020SOL    HW230746   2.785   5.796   2.665 -0.5166 -2.7025  0.6419
42021SOL     OW30747   3.088   9.637  11.977  0.3469  0.0443 -0.1041
42021SOL    HW130748   3.012   9.607  12.027  1.3243 -1.1361  0.7103
42021SOL    HW230749   3.108   9.565  11.918  1.1902  0.1032  0.1036
42022SOL     OW30750   1.303   3.757   6.270 -0.1894  0.1912 -0.1283
42022SOL    HW130751   1.214   3.790   6.256 -0.3989  0.2166  1.1607
42022SOL    HW230752   1.292   3.674   6.316  0.4617  0.6212  0.8420
42023SOL     OW30753   4.599   3.165   1.416  0.0226  0.0594 -0.0260
42023SOL    HW130754   4.530   3.224   1.385 -0.5164  0.1990  1.3929
42023SOL    HW230755   4.636   3.128   1.336 -1.8852 -0.2343 -0.8308
42024SOL     OW30756   7.262   2.107   6.732  0.0079 -0.3794  0.1225
42024SOL    HW130757   7.172   2.074   6.727 -0.6590  1.3122  0.2372
42024SOL    HW230758   7.290   2.087   6.821 -1.0470  0.9438  0.7841
42025SOL     OW30759   3.185   9.073   4.735 -0.3432 -0.7069  0.0082
42025SOL    HW130760   3.189   9.119   4.651  0.3574  0.2968  0.5663
42025SOL    HW230761   3.093   9.077   4.759 -0.2128  1.0652  0.3658
42026SOL     OW30762   2.020   7.538  11.181  0.0568 -0.0774 -0.0931
42026SOL    HW130763   2.006   7.511  11.272 -0.7659 -1.2419 -0.5446
42026SOL    HW230764   2.112   7.516  11.164 -0.2495 -1.5175 -0.0526
42027SOL     OW30765  11.450   3.269   8.975  0.4420  0.0256  0.1248
42027SOL    HW130766  11.370   3.278   9.026 -1.5630 -2.1718 -2.3435
42027SOL    HW230767  11.477   3.178   8.986  1.4550  0.2037 -0.6857
42028SOL     OW30768   5.896   5.529   8.594 -0.5656  0.1769  0.6103
42028SOL    HW130769   5.859   5.467   8.656  0.5348  0.7883  1.9208
42028SOL    HW230770   5.963   5.576   8.643  2.0574 -0.9177 -1.6333
42029SOL     OW30771   1.010   9.419  11.709  0.3224  0.0469 -0.1116
42029SOL    HW130772   1.036   9.346  11.653  0.1969 -1.3207  1.5483
42029SOL    HW230773   1.003   9.494  11.649  0.1051 -1.3565 -1.9262
42030SOL     OW30774   1.146   9.251   5.046 -0.3574  0.3059  0.1933
42030SOL    HW130775   1.057   9.244   5.012  0.1759 -0.3174 -1.1495
42030SOL    HW230776   1.194   9.298   4.977  0.4180  0.4034  0.7813
42031SOL     OW30777   6.892   0.782   1.234  0.3727  0.2169 -0.1766
42031SOL    HW130778   6.830   0.775   1.162  1.2770 -0.5129 -0.9228
42031SOL    HW230779   6.845   0.748   1.310  0.3658 -2.0008 -1.0836
42032SOL     OW30780   8.006   2.940   4.502 -0.0225  0.1509 -0.3907
42032SOL    HW130781   8.000   2.956   4.408 -1.4613  2.2361 -0.0178
42032SOL    HW230782   7.931   2.884   4.522  1.4092 -1.9889 -0.7263
42033SOL     OW30783   9.638   7.310   9.685 -0.6849 -0.1409  0.3861
42033SOL    HW130784   9.614   7.399   9.660  0.3983 -0.2911 -1.3473
42033SOL    HW230785   9.597   7.254   9.619  0.0047 -0.7819  0.4814
42034SOL     OW30786   1.585   5.516  11.598 -0.2617 -0.0937 -0.5729
42034SOL    HW130787   1.520   5.585  11.610 -0.4817 -0.3112 -0.5118
42034SOL    HW230788   1.630   5.509  11.682 -1.5211 -1.3301  0.0353
42035SOL     OW30789   6.466  11.261   3.602 -0.3327 -0.2869  0.3759
42035SOL    HW130790   6.394  11.320   3.582  0.6976  1.6959  2.1037
42035SOL    HW230791   6.543  11.301   3.562  0.3884 -0.4143  1.5617
42036SOL     OW30792   8.289   2.900  10.455 -0.4445  0.1105  0.1509
42036SOL    HW130793   8.339   2.916  10.535 -2.5237  0.7845  1.3883
42036SOL    HW230794   8.315   2.971  10.396  0.7804 -0.1367  0.3622
42037SOL     OW30795   5.356   5.021   4.356 -0.0886  0.2535  0.4945
42037SOL    HW130796   5.398   4.990   4.276  0.1761 -0.9567  1.0787
42037SOL    HW230797   5.341   4.941   4.407  0.7379  1.1083  2.1288
42038SOL     OW30798   5.521  10.670   6.188  0.2254  0.6227  0.7934
42038SOL    HW130799   5.533  10.709   6.102  0.5132  1.3694  1.1585
42038SOL    HW230800   5.610  10.668   6.225  0.0214  0.9076  1.3136
42039SOL     OW30801   8.176   4.780   0.960 -0.1522  0.0234 -0.0558
42039SOL    HW130802   8.212   4.699   0.924  2.1791  0.7214  0.4983
42039SOL    HW230803   8.096   4.753   1.004 -0.3883 -1.6652 -1.4070
42040SOL     OW30804   2.133   9.095   0.643  0.1845 -0.9275 -0.1558
42040SOL    HW130805   2.183   9.143   0.576  1.1668 -1.0212  0.4817
42040SOL    HW230806   2.134   9.004   0.613 -1.3680 -0.6481 -1.1787
42041SOL     OW30807   2.356   4.455   2.278 -0.1517 -0.5272  0.1419
42041SOL    HW130808   2.271   4.451   2.322  0.3768  0.4333  1.3396
42041SOL    HW230809   2.341   4.510   2.201 -0.7353 -0.8452  0.0226
42042SOL     OW30810   0.377   6.369   5.104  0.0681 -0.2368  0.4729
42042SOL    HW130811   0.283   6.369   5.083  0.2802 -0.8465 -0.6079
42042SOL    HW230812   0.392   6.452   5.147 -0.7421  0.4441 -0.4946
42043SOL     OW30813   8.010   1.319   9.035 -0.3753  1.1241  0.4470
42043SOL    HW130814   7.935   1.352   8.985 -0.8777 -0.9923 -0.2923
42043SOL    HW230815   8.078   1.304   8.969 -0.6428 -0.5791  0.5222
42044SOL     OW30816  11.982   1.209   7.393  0.0623 -0.0360 -0.5089
42044SOL    HW130817  11.892   1.194   7.424  0.0298 -0.1746 -0.6696
42044SOL    HW230818  11.986   1.304   7.379  0.5104  0.2348  1.2574
42045SOL     OW30819   3.547   3.758  11.758 -0.0347 -0.7149 -0.2583
42045SOL    HW130820   3.581   3.784  11.844 -0.6434 -0.5857 -0.0524
42045SOL    HW230821   3.580   3.825  11.698  0.9241 -1.1545 -0.2392
42046SOL     OW30822   0.013   1.911   0.706  0.3982 -0.2146 -0.2478
42046SOL    HW130823  -0.047   1.855   0.656 -0.3913 -0.1705  0.6257
42046SOL    HW230824   0.066   1.849   0.757 -0.3592 -0.1844  0.5893
42047SOL     OW30825   4.969   6.606   1.003 -0.4767 -0.0767  0.3520
42047SOL    HW130826   4.985   6.633   0.913 -0.1449  0.5701  0.6021
42047SOL    HW230827   4.898   6.542   0.996  1.2410 -1.9987 -0.6498
42048SOL     OW30828   7.671  11.455   3.325  0.1367 -0.0234 -0.2014
42048SOL    HW130829   7.722  11.526   3.286  0.7870  0.0876  0.8068
42048SOL    HW230830   7.589  11.496   3.352  0.1070  0.1215 -0.5093
42049SOL     OW30831  10.816   7.173   2.610  0.1130  0.6075  0.0367
42049SOL    HW130832  10.826   7.078   2.613 -0.8492  0.4566 -0.8087
42049SOL    HW230833  10.761   7.189   2.533  1.4857  1.9601 -0.7241
42050SOL     OW30834   6.815   8.089   7.008 -0.1188  0.2797  0.8886
42050SOL    HW130835   6.811   8.150   6.934  0.6445 -1.1501 -0.3971
42050SOL    HW230836   6.782   8.006   6.972  3.2579 -1.3402  1.1513
42051SOL     OW30837   5.265   5.563   5.672  0.0737 -0.0407  0.2272
42051SOL    HW130838   5.340   5.548   5.730 -1.0646 -1.1865  1.4824
42051SOL    HW230839   5.223   5.642   5.708 -1.8222 -1.9055  2.3940
42052SOL     OW30840   2.394   3.676   2.978 -0.0390  0.1991 -0.3698
42052SOL    HW130841   2.373   3.699   3.069 -0.3416  1.3360 -0.7094
42052SOL    HW230842   2.449   3.748   2.948 -1.4104  0.7588 -1.6401
42053SOL     OW30843   8.935  11.004  11.373 -0.1870 -0.0543 -0.0499
42053SOL    HW130844   8.989  10.966  11.304  0.9685 -0.9442  1.2825
42053SOL    HW230845   8.921  10.932  11.435 -0.2479  0.9942  1.1949
42054SOL     OW30846   5.907  10.363  10.633  0.1286  0.0807 -0.4290
42054SOL    HW130847   5.989  10.371  10.584  1.5676 -0.4574  1.7729
42054SOL    HW230848   5.914  10.279  10.678 -1.2763  0.3883  0.4239
42055SOL     OW30849  10.649   0.183   0.842  0.3110  0.2251 -0.7882
42055SOL    HW130850  10.736   0.196   0.881 -0.0319  1.3656 -0.3608
42055SOL    HW230851  10.588   0.219   0.906 -0.7301 -2.8302  0.0766
42056SOL     OW30852  10.662  11.588   9.449  0.3155 -0.0825 -0.3638
42056SOL    HW130853  10.599  11.521   9.478 -1.1250  1.6078  0.6134
42056SOL    HW230854  10.716  11.543   9.384 -2.1345 -1.5580 -1.5457
42057SOL     OW30855   8.372   8.454  11.071 -0.2141 -0.5865 -0.3090
42057SOL    HW130856   8.328   8.370  11.078  0.2341 -0.7385  1.1719
42057SOL    HW230857   8.422   8.461  11.153  0.5788  0.6475 -0.8689
42058SOL     OW30858   7.485  10.145   3.373 -0.5531 -0.0461 -0.0920
42058SOL    HW130859   7.429  10.203   3.322 -1.9855 -0.1265  1.3291
42058SOL    HW230860   7.430  10.070   3.393  0.8626 -1.3278 -0.7558
42059SOL     OW30861   3.778  10.529   9.680 -0.0349 -0.0793 -0.1666
42059SOL    HW130862   3.844  10.564   9.621  3.4296 -1.0183  2.7659
42059SOL    HW230863   3.777  10.589   9.754  0.6596 -2.1818  1.6690
42060SOL     OW30864   4.329   2.788   9.261  0.0450 -0.3432  0.0457
42060SOL    HW130865   4.236   2.813   9.265 -0.0411 -0.6010 -0.2901
42060SOL    HW230866   4.347   2.777   9.168  0.7790  1.0351  0.0067
42061SOL     OW30867   5.803   8.307   1.413  0.2918  0.0643  0.2831
42061SOL    HW130868   5.723   8.271   1.374 -0.1116 -0.9926  1.9589
42061SOL    HW230869   5.821   8.386   1.362 -0.6052 -0.8121 -1.5033
42062SOL     OW30870   6.088  10.599   9.448 -0.3651 -0.5248  0.4361
42062SOL    HW130871   6.130  10.643   9.374  1.5212 -0.4057  1.5147
42062SOL    HW230872   6.104  10.657   9.522 -0.8213 -1.4084  1.2385
42063SOL     OW30873   4.976  10.265  10.434  0.1189  0.2185  0.1034
42063SOL    HW130874   5.047  10.325  10.412  0.8827 -0.5070  0.5531
42063SOL    HW230875   4.910  10.280  10.366  0.6666  0.9354 -0.2834
42064SOL     OW30876   8.504   4.023   0.132  0.4222 -0.1629 -0.1968
42064SOL    HW130877   8.487   3.977   0.215  0.0824  1.2517  0.5511
42064SOL    HW230878   8.420   4.060   0.107  0.5089 -0.6562 -1.2386
42065SOL     OW30879   4.336   6.811   9.754  0.4847  0.0359 -0.4624
42065SOL    HW130880   4.258   6.826   9.806  0.0876  0.0731 -1.0536
42065SOL    HW230881   4.380   6.737   9.796 -0.0650 -0.2251 -0.3449
42066SOL     OW30882   8.801   4.705  10.261 -0.2180 -0.1411 -0.2013
42066SOL    HW130883   8.839   4.770  10.203  0.2029  1.3070  1.6072
42066SOL    HW230884   8.709   4.731  10.270 -0.7715 -1.4300 -1.5726
42067SOL     OW30885  10.232   3.607   9.858  0.3327 -0.0007 -0.2568
42067SOL    HW130886  10.171   3.663   9.810  0.2489 -0.7602 -1.0567
42067SOL    HW230887  10.227   3.638   9.948 -0.3320  0.7307 -0.5316
42068SOL     OW30888   8.503   5.037   7.856  0.0807 -0.5582 -0.1496
42068SOL    HW130889   8.496   5.118   7.806  1.2916  0.2116  0.8705
42068SOL    HW230890   8.415   5.022   7.891 -0.6040 -0.7071 -1.8245
42069SOL     OW30891   5.956  11.356   3.310  0.1698 -0.0281  0.1117
42069SOL    HW130892   5.996  11.437   3.278 -0.2241 -0.3841 -1.3560
42069SOL    HW230893   6.024  11.289   3.297  0.4087  0.0178  1.0935
42070SOL     OW30894   5.529   0.463   4.660 -0.1680 -0.6694 -0.1478
42070SOL    HW130895   5.554   0.528   4.726  1.3594 -1.7098  0.3499
42070SOL    HW230896   5.439   0.439   4.681 -0.9260  1.5572 -0.5932
42071SOL     OW30897   3.085   2.581   1.296  0.1381 -0.0810 -0.1941
42071SOL    HW130898   3.097   2.495   1.338  0.3818 -0.5117 -1.1182
42071SOL    HW230899   2.997   2.577   1.260  0.3278 -0.1295 -0.6549
42072SOL     OW30900  11.869   2.276   1.492  0.3854  0.5219  0.1234
42072SOL    HW130901  11.843   2.325   1.413 -0.6091  0.1434  0.1960
42072SOL    HW230902  11.921   2.203   1.459  1.4293  1.3250 -0.0302
42073SOL     OW30903   3.228  11.442   0.184 -0.7106  0.2663 -0.4729
42073SOL    HW130904   3.224  11.493   0.265  1.2333  0.5572 -0.5112
42073SOL    HW230905   3.243  11.352   0.213  2.6134  0.7083 -0.4495
42074SOL     OW30906   6.875   2.077  10.042 -0.6268 -0.1264 -0.3795
42074SOL    HW130907   6.832   2.077   9.956  0.2851  0.5771 -0.8549
42074SOL    HW230908   6.952   2.132  10.030  0.5845 -1.5932  0.3768
42075SOL     OW30909   1.969   1.822   5.403  0.7456 -0.2949  0.5623
42075SOL    HW130910   1.890   1.775   5.430 -0.1034  0.9587  0.3128
42075SOL    HW230911   1.938   1.901   5.361  2.1025 -0.7646 -1.4866
42076SOL     OW30912   7.130   2.324   7.131 -0.1689  0.0573 -0.0594
42076SOL    HW130913   7.141   2.408   7.086  1.3411 -0.0098  0.1120
42076SOL    HW230914   7.073   2.273   7.073 -0.0827  0.7652 -0.7866
42077SOL     OW30915   6.885  10.600   9.441  0.6323 -0.3192 -0.0649
42077SOL    HW130916   6.890  10.596   9.537  1.5647  0.4839 -0.0595
42077SOL    HW230917   6.913  10.689   9.420 -1.8864  0.3484 -0.9697
42078SOL     OW30918   1.082  11.381   4.130  0.3321 -0.6761  0.1567
42078SOL    HW130919   1.170  11.412   4.106  0.7619 -0.7238  1.5722
42078SOL    HW230920   1.027  11.409   4.057  1.1918  1.0522  0.1052
42079SOL     OW30921   0.729   2.094   2.214  0.0214 -0.4523 -0.3884
42079SOL    HW130922   0.665   2.050   2.158  0.4776  1.1012 -2.2510
42079SOL    HW230923   0.806   2.104   2.159  0.8268  0.3342  0.8420
42080SOL     OW30924   1.788   0.894   7.678  0.1660  0.0965  0.0591
42080SOL    HW130925   1.708   0.904   7.626  1.1854 -0.2263 -1.6630
42080SOL    HW230926   1.787   0.967   7.739 -0.3264  1.4492 -1.5125
42081SOL     OW30927  11.507   9.279   7.144  0.5835  0.0275  0.1141
42081SOL    HW130928  11.552   9.199   7.119  0.1991  0.0710 -0.7404
42081SOL    HW230929  11.490   9.268   7.238 -0.8137 -1.5752 -0.2768
42082SOL     OW30930   1.510   9.159   3.974 -0.1838 -0.0293 -0.4216
42082SOL    HW130931   1.483   9.239   4.019  0.4529  0.1594 -0.3633
42082SOL    HW230932   1.545   9.103   4.044 -2.3798 -1.1537 -0.1489
42083SOL     OW30933   8.558   3.625   7.220 -0.5780 -0.0934  0.7165
42083SOL    HW130934   8.566   3.559   7.152 -2.9979  0.2378  0.0244
42083SOL    HW230935   8.589   3.582   7.299 -2.0213 -2.0871  0.2716
42084SOL     OW30936   2.206   3.902   1.464  0.0553  0.0292 -0.3482
42084SOL    HW130937   2.274   3.874   1.526 -0.6694 -0.9327  0.0471
42084SOL    HW230938   2.185   3.823   1.414  0.5053  0.7553 -1.7358
42085SOL     OW30939   6.412   1.193  10.015  0.3970 -0.3320  0.5800
42085SOL    HW130940   6.435   1.203   9.922  2.3211  2.2904  1.2219
42085SOL    HW230941   6.477   1.131  10.049 -0.7856 -1.9020  0.0835
42086SOL     OW30942   3.537   1.746   6.751 -0.3758  0.0500 -0.4397
42086SOL    HW130943   3.552   1.732   6.844  0.0488  0.4463 -0.4467
42086SOL    HW230944   3.553   1.661   6.711  0.5079  0.1381 -0.2830
42087SOL     OW30945  11.975  11.610   9.733 -0.4070  0.0096  0.2095
42087SOL    HW130946  11.949  11.677   9.796 -0.3455  1.2768 -1.0528
42087SOL    HW230947  12.015  11.541   9.786 -1.0213  0.6915  1.6057
42088SOL     OW30948   5.240   5.002   8.874  0.1557 -0.7545  0.3425
42088SOL    HW130949   5.169   5.065   8.889  0.7025 -0.0144 -0.1128
42088SOL    HW230950   5.217   4.960   8.791  0.3591 -0.3582  0.0839
42089SOL     OW30951   1.043   0.852   8.790 -0.2267  0.1559 -0.1070
42089SOL    HW130952   1.076   0.875   8.703 -0.2307 -0.5147 -0.2933
42089SOL    HW230953   0.969   0.912   8.804 -0.7805 -0.3086 -0.9400
42090SOL     OW30954   4.613  10.099   2.548 -0.1605 -0.0895 -0.6232
42090SOL    HW130955   4.565  10.160   2.491 -0.5546  0.2050  0.0089
42090SOL    HW230956   4.548  10.033   2.572  0.1016 -0.4148 -0.8041
42091SOL     OW30957   8.458   5.384  10.484 -0.3808 -0.1100 -0.4301
42091SOL    HW130958   8.373   5.409  10.521 -0.0142  1.5447 -0.6314
42091SOL    HW230959   8.498   5.328  10.551 -1.5896 -0.8635 -0.3095
42092SOL     OW30960  10.853  11.825   0.012  0.3555 -0.1923  0.1266
42092SOL    HW130961  10.925  11.836  -0.050 -0.4224  2.3678 -0.4564
42092SOL    HW230962  10.849  11.731   0.027  2.9070 -0.5645 -0.8783
42093SOL     OW30963   9.045   3.831  11.267  0.1473 -0.2306  0.4545
42093SOL    HW130964   9.121   3.774  11.276 -0.7593 -1.2306  2.4199
42093SOL    HW230965   9.079   3.919  11.287  0.9457 -0.5262  0.4401
42094SOL     OW30966   0.716   2.306   8.995 -0.2055  0.5736  0.4941
42094SOL    HW130967   0.750   2.351   9.072 -3.8027  0.9437  2.0686
42094SOL    HW230968   0.707   2.214   9.023  0.1563  0.3450 -0.1258
42095SOL     OW30969   2.466   3.470   1.598 -0.3578  0.3871 -0.0810
42095SOL    HW130970   2.551   3.477   1.554 -1.3867  1.5435 -2.0700
42095SOL    HW230971   2.481   3.509   1.685  0.7994  2.1109 -0.9757
42096SOL     OW30972   9.020  10.587  11.473 -0.2083 -0.3829 -0.0797
42096SOL    HW130973   9.063  10.630  11.399 -1.9932  0.9175 -0.4459
42096SOL    HW230974   8.957  10.527  11.432  1.1413 -2.2657  0.4385
42097SOL     OW30975   4.206  11.821  10.527  0.0004 -0.7241  0.6632
42097SOL    HW130976   4.189  11.796  10.436 -0.4532  2.8880 -0.4041
42097SOL    HW230977   4.301  11.811  10.537  0.3472  0.5322 -0.8833
42098SOL     OW30978   8.801   3.797   0.822 -0.0364 -0.1671  0.0452
42098SOL    HW130979   8.723   3.853   0.817 -1.1260 -1.7372 -2.2584
42098SOL    HW230980   8.766   3.708   0.828  1.5798 -0.8998 -0.7660
42099SOL     OW30981   4.483   1.006   8.661 -0.1336 -0.2855  0.9549
42099SOL    HW130982   4.556   0.959   8.703  1.2003 -0.2596 -1.2088
42099SOL    HW230983   4.473   1.085   8.714 -0.6306 -1.6584  3.0573
42100SOL     OW30984   1.796   2.445   7.684  0.1029  0.5501 -0.1826
42100SOL    HW130985   1.714   2.398   7.666 -0.2930  0.7655  0.9863
42100SOL    HW230986   1.847   2.384   7.737 -0.0029  1.0639  0.5142
42101SOL     OW30987   2.588   0.206  11.141 -0.6844 -0.0124 -1.0500
42101SOL    HW130988   2.614   0.274  11.078 -0.7526  1.6193  0.5877
42101SOL    HW230989   2.590   0.250  11.226 -0.6494 -2.1180  0.1104
42102SOL     OW30990   9.467  10.575   1.012 -0.3110 -0.0627  0.0913
42102SOL    HW130991   9.410  10.555   0.938 -0.0693  0.1134 -0.1429
42102SOL    HW230992   9.537  10.627   0.975  0.7913 -1.4674  0.0950
42103SOL     OW30993  11.999   0.764   4.503  0.5833  0.4937  0.1903
42103SOL    HW130994  12.015   0.836   4.564 -1.4503 -0.8056  2.4249
42103SOL    HW230995  12.086   0.727   4.485  1.2939  1.2133  1.9412
42104SOL     OW30996   1.429   0.692   0.144 -0.3347 -0.1112  0.0790
42104SOL    HW130997   1.392   0.738   0.220  0.4275  0.2763  0.2254
42104SOL    HW230998   1.464   0.761   0.088 -1.7436 -0.3241 -1.1153
42105SOL     OW30999   7.472  10.563   7.590  0.3886  0.8145 -0.4052
42105SOL    HW131000   7.563  10.589   7.600  0.6947 -0.6350  0.8465
42105SOL    HW231001   7.442  10.545   7.679 -1.0021  0.8412 -0.8385
42106SOL     OW31002  10.669  11.965   4.651  0.3733 -0.2697  0.0723
42106SOL    HW131003  10.663  11.913   4.571 -1.1309 -0.1457  0.0614
42106SOL    HW231004  10.724  12.040   4.627 -0.8668  0.2936 -1.1922
42107SOL     OW31005   7.001   2.975   9.682  0.1282  0.5782 -0.7923
42107SOL    HW131006   6.931   2.911   9.694  3.2762 -2.7466  2.1234
42107SOL    HW231007   6.976   3.048   9.739 -1.6020  0.1502 -0.9381
42108SOL     OW31008   8.979  11.526  11.849 -0.6313  0.0432  0.2499
42108SOL    HW131009   9.030  11.581  11.909 -0.6237  0.7574 -0.4029
42108SOL    HW231010   9.028  11.445  11.843 -1.0388 -0.3557  1.8368
42109SOL     OW31011   3.543   1.426   0.138 -0.0762 -0.3816 -0.0414
42109SOL    HW131012   3.634   1.418   0.109  0.4521 -0.2628  1.4883
42109SOL    HW231013   3.548   1.417   0.233 -1.7849 -1.3126 -0.0095
42110SOL     OW31014   6.953   8.655   0.680 -0.3403 -0.1642 -0.3241
42110SOL    HW131015   6.950   8.726   0.616  1.8483  0.2336 -0.0872
42110SOL    HW231016   6.962   8.576   0.627  1.5577  0.1692 -0.5835
42111SOL     OW31017   3.407   1.464   7.221  0.0301 -0.8908  0.0321
42111SOL    HW131018   3.315   1.480   7.244 -0.0770 -2.8550  1.2861
42111SOL    HW231019   3.457   1.507   7.290 -0.0123 -0.9525  0.1019
42112SOL     OW31020   8.041   0.252   3.869  1.0129 -0.5114 -0.2354
42112SOL    HW131021   8.105   0.300   3.816  1.2277  0.1243  0.5777
42112SOL    HW231022   7.956   0.288   3.844  1.0079 -0.9726 -0.9175
42113SOL     OW31023   1.050   7.927   5.826 -0.1163  0.7715  0.0049
42113SOL    HW131024   1.124   7.917   5.887  0.0080  1.5349 -0.0150
42113SOL    HW231025   1.072   8.005   5.775 -0.7930  0.8187 -0.2137
42114SOL     OW31026  11.661   1.972   5.483 -0.4607  0.0458  0.5746
42114SOL    HW131027  11.628   2.039   5.543 -0.7138  0.7393 -0.3211
42114SOL    HW231028  11.647   1.890   5.530 -2.6982  0.3741  0.6057
42115SOL     OW31029   4.676   1.358  11.482  0.5166 -0.3194  0.0460
42115SOL    HW131030   4.693   1.443  11.441  1.5875 -0.8689 -0.6988
42115SOL    HW231031   4.595   1.328  11.442 -0.6416  0.9397  1.3270
42116SOL     OW31032   1.387   3.127   7.445  0.0421 -0.4018 -0.0734
42116SOL    HW131033   1.466   3.111   7.393 -0.8865 -1.3476 -1.2666
42116SOL    HW231034   1.326   3.170   7.383 -0.0583  1.2549  1.1010
42117SOL     OW31035  10.012   5.740   4.688  0.2647 -0.0695 -0.2925
42117SOL    HW131036   9.942   5.802   4.670  0.8990  0.7355 -0.0328
42117SOL    HW231037  10.092   5.787   4.666  0.8794 -0.1506  1.5995
42118SOL     OW31038   4.256   0.420  11.696  0.1598  0.3047 -0.7036
42118SOL    HW131039   4.180   0.471  11.723  0.5403  0.4048  0.2534
42118SOL    HW231040   4.220   0.345  11.648 -0.7601 -0.8989  1.6665
42119SOL     OW31041  10.348  11.623   1.114 -0.4355 -0.4336 -0.2932
42119SOL    HW131042  10.344  11.538   1.157  1.4928 -0.0140  0.8543
42119SOL    HW231043  10.442  11.637   1.098 -0.8849  0.5851 -2.3385
42120SOL     OW31044   0.006   9.983   9.700 -0.4667 -0.0177 -0.2518
42120SOL    HW131045  -0.084   9.952   9.697 -0.6635  0.6037 -0.8908
42120SOL    HW231046   0.057   9.913   9.658 -0.9023  0.4635 -1.6339
42121SOL     OW31047   8.684   0.852   3.114  0.3400  0.3431 -1.0098
42121SOL    HW131048   8.597   0.812   3.105  0.9652 -0.7602 -2.6238
42121SOL    HW231049   8.708   0.877   3.024  1.6488  0.7518 -0.5701
42122SOL     OW31050   3.236   0.411   3.222  0.2521  0.1461  0.1837
42122SOL    HW131051   3.313   0.423   3.277 -0.2325  0.8441  0.7349
42122SOL    HW231052   3.201   0.499   3.209 -0.4583 -0.1592 -0.0457
42123SOL     OW31053   1.960   5.074  11.050  0.5496 -0.1042 -0.6649
42123SOL    HW131054   2.015   5.150  11.035 -0.1985  0.6471  0.3017
42123SOL    HW231055   1.887   5.106  11.103 -0.6300 -1.1467 -1.5801
42124SOL     OW31056   8.670   3.934   7.676  0.5362  0.2224 -0.6754
42124SOL    HW131057   8.594   3.990   7.656 -2.0178 -1.4814  3.1166
42124SOL    HW231058   8.718   3.982   7.743  0.1288 -0.6433  0.2674
42125SOL     OW31059   9.877  11.588   1.824  0.1567 -0.1466 -0.3905
42125SOL    HW131060   9.962  11.629   1.837 -0.9063  2.4447 -1.0863
42125SOL    HW231061   9.894  11.516   1.762  2.0874 -0.8802  0.8993
42126SOL     OW31062  11.593   8.973   3.119  0.8689 -0.6836  0.2723
42126SOL    HW131063  11.502   8.981   3.090  0.7656 -1.3432  0.3945
42126SOL    HW231064  11.602   9.039   3.188  0.0959 -1.4706  1.1620
42127SOL     OW31065   7.336   6.211   2.877 -0.1180 -0.3067 -0.6866
42127SOL    HW131066   7.261   6.221   2.819  0.5828 -0.2891 -1.6144
42127SOL    HW231067   7.408   6.254   2.831  0.7703 -1.4913 -0.4500
42128SOL     OW31068   1.563   5.642   5.361 -0.0032  0.7096  0.0017
42128SOL    HW131069   1.582   5.637   5.454  1.5603  0.2358 -0.3171
42128SOL    HW231070   1.517   5.561   5.341 -1.0835  1.1764  0.4912
42129SOL     OW31071   5.363   6.280   0.401 -0.0103 -0.0766  0.1126
42129SOL    HW131072   5.436   6.288   0.462 -0.9734  0.1564  1.2554
42129SOL    HW231073   5.305   6.215   0.441 -0.2918 -0.5014 -0.9402
42130SOL     OW31074   3.346   9.822   9.871 -0.4425  0.2321  0.4782
42130SOL    HW131075   3.275   9.760   9.887 -1.4404  1.5021  1.1196
42130SOL    HW231076   3.423   9.781   9.910 -0.6853 -1.3577 -0.5934
42131SOL     OW31077   6.605   7.769   1.765  0.5773  0.0394 -0.6411
42131SOL    HW131078   6.611   7.846   1.710  0.5979  0.6892  0.2452
42131SOL    HW231079   6.601   7.695   1.704  1.0653  0.7008 -1.4841
42132SOL     OW31080   3.512   7.344   2.920  0.3028  0.3964 -0.2535
42132SOL    HW131081   3.457   7.321   2.844 -0.6401  1.2981  0.1303
42132SOL    HW231082   3.564   7.265   2.936 -0.6658 -0.3917 -0.8265
42133SOL     OW31083   9.222   8.530   0.700 -0.0464  0.1771 -0.7816
42133SOL    HW131084   9.195   8.607   0.750 -0.0668 -1.3262  1.6391
42133SOL    HW231085   9.237   8.564   0.611  1.7610  3.3460  0.5565
42134SOL     OW31086   4.497   8.539   6.465  0.1934 -0.4423  0.3450
42134SOL    HW131087   4.425   8.601   6.467  1.1296  0.7053 -0.0776
42134SOL    HW231088   4.463   8.461   6.508 -1.1854  0.1755  0.4268
42135SOL     OW31089   3.199   0.067   0.570 -0.0202 -0.3689 -0.1183
42135SOL    HW131090   3.222   0.154   0.537 -0.0331 -1.1673 -2.4178
42135SOL    HW231091   3.104   0.060   0.555 -0.3231 -0.2413  1.5054
42136SOL     OW31092  11.606  10.327   1.406 -0.0273 -0.1463  0.4045
42136SOL    HW131093  11.530  10.311   1.461  0.2123  0.1900  0.8411
42136SOL    HW231094  11.628  10.241   1.370 -1.0531 -0.1178 -0.3243
42137SOL     OW31095   9.221   5.541   6.409 -0.0819 -0.6856 -0.2313
42137SOL    HW131096   9.134   5.517   6.378  0.5009 -0.3808 -2.2219
42137SOL    HW231097   9.280   5.484   6.362  1.0061  1.4072 -1.5697
42138SOL     OW31098   3.429   6.321   8.999 -0.2115  0.2177 -0.2849
42138SOL    HW131099   3.481   6.283   9.070  0.8807 -3.3993 -2.6945
42138SOL    HW231100   3.363   6.254   8.979 -0.8659  1.3557 -2.2512
42139SOL     OW31101   6.908   3.140   3.270  0.0703  0.5875 -0.1179
42139SOL    HW131102   6.967   3.195   3.322 -0.0752  0.8857 -0.2657
42139SOL    HW231103   6.934   3.051   3.290  0.5451  0.7188 -0.1486
42140SOL     OW31104   2.995   1.475   7.628  0.5641  0.0492  0.4370
42140SOL    HW131105   3.016   1.415   7.556  0.9134 -0.9882  1.3808
42140SOL    HW231106   2.907   1.507   7.608  1.0448  0.5716 -0.9686
42141SOL     OW31107   8.608   5.982   6.936 -0.1495  0.0047 -0.1016
42141SOL    HW131108   8.519   5.949   6.926  1.0142 -3.0958 -1.5225
42141SOL    HW231109   8.644   5.933   7.010  1.3258 -1.3061 -1.6057
42142SOL     OW31110   0.279   1.603   5.042 -0.3321 -0.1336  0.4639
42142SOL    HW131111   0.312   1.607   4.952  2.1069  0.3264  1.3024
42142SOL    HW231112   0.274   1.509   5.061  0.5882 -0.2137  0.3288
42143SOL     OW31113   1.638   5.787   0.223 -0.1276  0.3143 -0.2049
42143SOL    HW131114   1.584   5.854   0.181 -0.8863 -0.1825 -0.0309
42143SOL    HW231115   1.615   5.706   0.179  0.5788  0.1129 -0.2191
42144SOL     OW31116   5.205   0.584   1.628  0.3497 -0.0521  0.2826
42144SOL    HW131117   5.213   0.666   1.677  2.2239 -0.4209  0.6580
42144SOL    HW231118   5.203   0.611   1.536 -0.2813  0.4768  0.4477
42145SOL     OW31119  11.420   1.060   4.612  0.0122 -0.2095  0.3432
42145SOL    HW131120  11.438   1.070   4.518  2.0871 -0.7160  0.6385
42145SOL    HW231121  11.498   1.016   4.647 -1.5250 -1.7967  1.9882
42146SOL     OW31122  10.950  10.742   6.836  0.1337  0.3329 -0.2847
42146SOL    HW131123  10.896  10.816   6.863  1.0540  0.3914  1.5020
42146SOL    HW231124  11.038  10.765   6.865  0.3911 -1.5662  0.5362
42147SOL     OW31125   7.290   7.416   9.021  0.0496  0.0665 -1.1100
42147SOL    HW131126   7.253   7.339   9.065 -1.3380  0.8769 -0.8052
42147SOL    HW231127   7.306   7.387   8.931 -0.3824 -0.6047 -0.9778
42148SOL     OW31128  11.071   7.097   7.701  0.8949 -0.6743  0.1125
42148SOL    HW131129  11.062   7.159   7.774  0.5329 -0.4872 -0.0870
42148SOL    HW231130  10.987   7.102   7.655  1.6069  0.2323 -1.1284
42149SOL     OW31131   4.580  11.266   6.466 -0.1531 -0.2001 -0.0050
42149SOL    HW131132   4.494  11.245   6.430  0.2209  1.5835 -2.1502
42149SOL    HW231133   4.560  11.314   6.547 -1.1988  0.1874 -0.4667
42150SOL     OW31134   6.693   9.525   8.567 -0.4981  0.2577  0.2731
42150SOL    HW131135   6.667   9.571   8.488 -0.4219 -1.4678 -0.8026
42150SOL    HW231136   6.736   9.592   8.620 -1.1238  1.5976 -0.8482
42151SOL     OW31137   9.350  10.627   4.021 -0.3382  0.4905  0.8623
42151SOL    HW131138   9.282  10.693   4.039 -1.3342  0.1685 -1.4416
42151SOL    HW231139   9.319  10.581   3.943  1.6124 -0.9992  0.8951
42152SOL     OW31140   4.256   9.117  11.732  0.2643  0.0624  0.2413
42152SOL    HW131141   4.327   9.181  11.723 -1.5861  1.9963 -1.9292
42152SOL    HW231142   4.274   9.050  11.666 -0.2420  0.9378 -0.8148
42153SOL     OW31143   9.576   9.034  11.417  0.4130  0.2759  0.1063
42153SOL    HW131144   9.626   8.976  11.474  0.1702 -0.0141  0.0253
42153SOL    HW231145   9.527   9.090  11.476  1.0350  0.7478  0.1925
42154SOL     OW31146   2.094   1.047   5.441  0.9563 -0.6417 -0.4882
42154SOL    HW131147   2.053   1.131   5.460 -0.4361 -1.1211 -1.1909
42154SOL    HW231148   2.146   1.027   5.519  0.1913  0.2172  0.2683
42155SOL     OW31149   9.457   6.119   9.710 -0.3933  0.3065 -0.0126
42155SOL    HW131150   9.493   6.160   9.789  1.1430 -0.1378 -0.4638
42155SOL    HW231151   9.523   6.056   9.683 -0.3866  1.1967 -2.2841
42156SOL     OW31152   3.309   6.979   6.817  0.3627  0.1329 -0.1117
42156SOL    HW131153   3.375   6.962   6.750 -0.2055 -3.3327  0.0085
42156SOL    HW231154   3.351   6.956   6.899  0.2766  1.9567  0.4668
42157SOL     OW31155  11.435   5.640   1.403 -0.1911  0.1177 -0.2998
42157SOL    HW131156  11.344   5.611   1.402  0.1306 -0.9283 -0.2230
42157SOL    HW231157  11.486   5.560   1.406  0.7570  0.6695 -1.0605
42158SOL     OW31158   2.364  11.296   8.518  0.2320 -0.2805  0.1570
42158SOL    HW131159   2.295  11.230   8.521  1.1383 -1.2556  0.2391
42158SOL    HW231160   2.444  11.247   8.500  0.9338  0.8044  0.1762
42159SOL     OW31161   0.780   9.098   5.280  0.1801  0.6590 -0.3313
42159SOL    HW131162   0.863   9.145   5.278  0.1876  0.6317 -0.7435
42159SOL    HW231163   0.800   9.014   5.321  0.2015  0.9477  0.2545
42160SOL     OW31164   0.639   8.385   1.410  0.2404  0.0152 -0.0899
42160SOL    HW131165   0.618   8.392   1.317  2.6154  1.3859 -0.5932
42160SOL    HW231166   0.700   8.457   1.427 -1.0125  0.5475  2.8310
42161SOL     OW31167   1.267   5.664   4.808 -0.6067 -0.1629  0.2798
42161SOL    HW131168   1.332   5.730   4.831  1.5396 -1.5779 -1.3595
42161SOL    HW231169   1.316   5.582   4.805 -1.9796 -1.0272 -2.9818
42162SOL     OW31170   7.193   4.118   6.787  0.4366 -0.2194 -0.1351
42162SOL    HW131171   7.167   4.123   6.878 -2.2609  0.0619 -0.8500
42162SOL    HW231172   7.288   4.130   6.789  0.4132  0.1546  2.5716
42163SOL     OW31173   2.497   7.067   3.563  0.0481  0.2742 -0.3213
42163SOL    HW131174   2.454   7.011   3.628  1.0203  1.2463  1.2409
42163SOL    HW231175   2.447   7.149   3.565  0.1854  0.3674 -0.6724
42164SOL     OW31176  11.716   6.865   3.933 -0.0255  0.0105  0.1239
42164SOL    HW131177  11.634   6.886   3.887 -0.7669  0.7514  1.7214
42164SOL    HW231178  11.750   6.950   3.961  0.1945 -0.4533  1.2962
42165SOL     OW31179   5.934   3.041   2.934 -0.1453  0.3116  0.7954
42165SOL    HW131180   6.020   3.028   2.976  0.2275  1.8779  0.5755
42165SOL    HW231181   5.915   3.133   2.948 -1.5037  0.1261  0.2482
42166SOL     OW31182   3.937   8.289   3.311 -0.0132  0.3028 -0.2410
42166SOL    HW131183   3.898   8.215   3.358 -0.9328  0.4398 -0.7767
42166SOL    HW231184   3.875   8.308   3.241  0.6441  1.0321 -0.6317
42167SOL     OW31185   2.346   3.487  11.550 -0.0267 -0.4376  0.4956
42167SOL    HW131186   2.416   3.464  11.490  0.8499  0.3103  1.2023
42167SOL    HW231187   2.286   3.540  11.498 -1.1836 -2.7317 -0.6792
42168SOL     OW31188   5.946   1.652   0.130  0.5846  0.2981  0.2643
42168SOL    HW131189   6.024   1.609   0.095 -0.6044 -0.4624 -1.6092
42168SOL    HW231190   5.978   1.737   0.160  2.4034 -0.6205  1.0696
42169SOL     OW31191   9.383   5.383   4.013 -0.3977 -0.4160 -0.3807
42169SOL    HW131192   9.309   5.403   3.955 -0.8103 -1.9011 -0.4092
42169SOL    HW231193   9.460   5.398   3.958 -0.7838 -2.0047 -1.4432
42170SOL     OW31194   9.991   4.155   9.758 -0.1909  0.4574 -0.5604
42170SOL    HW131195  10.025   4.144   9.847 -0.7873 -1.4563 -0.5208
42170SOL    HW231196  10.066   4.137   9.701 -0.3185 -0.5609 -0.4372
42171SOL     OW31197   1.355  11.564   9.298 -0.6639  0.4172  0.4497
42171SOL    HW131198   1.372  11.529   9.386 -0.6153 -0.6712  0.0312
42171SOL    HW231199   1.395  11.499   9.239 -3.1752 -0.4156 -0.4770
42172SOL     OW31200  10.003  10.920   0.462 -0.4796  0.6046 -0.3200
42172SOL    HW131201  10.096  10.925   0.439 -0.5863 -0.4393 -1.0798
42172SOL    HW231202   9.995  10.837   0.510 -1.1572  0.2094 -1.0751
42173SOL     OW31203  11.245   1.156   7.248 -0.0114  0.1211 -0.0214
42173SOL    HW131204  11.321   1.161   7.191 -0.3754  0.6023 -0.4751
42173SOL    HW231205  11.252   1.070   7.290  1.3484  0.5785  0.7538
42174SOL     OW31206   3.442   5.222   8.247  0.1853 -0.4407  0.2182
42174SOL    HW131207   3.492   5.292   8.289  2.3034 -1.5044 -0.3681
42174SOL    HW231208   3.372   5.267   8.200  1.9302  1.3909 -0.7855
42175SOL     OW31209   1.431   9.927   8.402  0.4600 -0.1373 -0.6778
42175SOL    HW131210   1.369   9.974   8.345  0.7153  0.8368 -0.1695
42175SOL    HW231211   1.491   9.995   8.434  0.8673 -0.8184  0.0436
42176SOL     OW31212  11.653   1.188   6.713  0.1256 -0.7145  0.2359
42176SOL    HW131213  11.699   1.244   6.651 -0.5523 -1.3309 -0.8548
42176SOL    HW231214  11.646   1.241   6.793  0.6821  0.2322 -0.3302
42177SOL     OW31215  11.441   0.573   3.038 -0.2935 -0.5043 -0.0362
42177SOL    HW131216  11.428   0.666   3.057  1.1306 -0.3735  0.4039
42177SOL    HW231217  11.366   0.529   3.080 -0.3081  0.3289  0.8436
42178SOL     OW31218   7.578   1.653   6.531  0.0944 -0.7725 -0.0488
42178SOL    HW131219   7.581   1.668   6.626  0.9276 -0.1270 -0.1735
42178SOL    HW231220   7.501   1.702   6.502  0.2014 -0.4493  0.2024
42179SOL     OW31221   1.069   2.345   0.297 -0.5172  0.1515 -0.0900
42179SOL    HW131222   1.050   2.313   0.386 -0.9168 -1.6803 -0.7975
42179SOL    HW231223   1.100   2.268   0.250 -0.7498  0.9927 -1.6822
42180SOL     OW31224  10.817   3.450  11.484 -0.5104 -0.0409 -0.0788
42180SOL    HW131225  10.833   3.538  11.448  1.1753 -0.0613  0.5378
42180SOL    HW231226  10.900   3.425  11.524 -0.6847 -2.2930 -0.9754
42181SOL     OW31227   8.018   9.255  10.669 -0.0364  0.5898 -0.5774
42181SOL    HW131228   8.041   9.347  10.671 -0.0321  0.6894 -2.7683
42181SOL    HW231229   8.032   9.224  10.758 -0.4795  2.7884  0.2982
42182SOL     OW31230   1.977   4.957   2.796 -0.3230  0.9967 -0.0517
42182SOL    HW131231   1.932   4.922   2.720 -0.7472  0.0108  0.6302
42182SOL    HW231232   2.007   4.880   2.845  1.9304  1.5914 -0.3474
42183SOL     OW31233   9.708   7.803   7.722  0.5538  0.0328 -0.1460
42183SOL    HW131234   9.710   7.893   7.690  0.8631  0.1751  0.2724
42183SOL    HW231235   9.797   7.770   7.709  0.1825 -0.5737 -1.3056
42184SOL     OW31236   9.039   7.396   0.801 -0.5719  0.5535  0.2292
42184SOL    HW131237   9.106   7.330   0.780 -0.0029  1.1985 -0.0136
42184SOL    HW231238   8.967   7.377   0.741 -0.6991 -0.2642  0.6202
42185SOL     OW31239   3.061   7.892   3.751  0.2675  0.0872  0.6028
42185SOL    HW131240   3.034   7.905   3.660 -0.9879  0.9917  1.0704
42185SOL    HW231241   3.153   7.867   3.746  0.7722  2.0448 -0.8295
42186SOL     OW31242  11.625   8.937   4.876  0.8749 -0.1250  0.1725
42186SOL    HW131243  11.620   8.970   4.786  0.1595  1.3975  0.7226
42186SOL    HW231244  11.709   8.971   4.908  0.6229  0.2646  0.4189
42187SOL     OW31245   0.082   3.158   8.687  0.5459 -0.0552  0.2717
42187SOL    HW131246   0.116   3.247   8.691  1.6091 -0.4425  0.2196
42187SOL    HW231247   0.013   3.161   8.621  0.3764  0.7880  0.4800
42188SOL     OW31248   6.296  10.815   4.381  0.4274 -0.2792  0.8299
42188SOL    HW131249   6.381  10.845   4.348 -1.1543  1.1243 -2.4509
42188SOL    HW231250   6.272  10.742   4.324 -1.2029  0.3264  0.6786
42189SOL     OW31251  11.324   7.215   5.100  0.4985  0.0279  0.1422
42189SOL    HW131252  11.274   7.209   5.019 -2.2989  1.2090  1.6798
42189SOL    HW231253  11.285   7.149   5.158 -0.6593  2.1776  1.9932
42190SOL     OW31254  10.529   4.177   2.959  0.6697  0.1389  0.2781
42190SOL    HW131255  10.488   4.258   2.930  0.7644 -0.1104 -0.5906
42190SOL    HW231256  10.623   4.195   2.956  0.7256 -0.2220 -0.6556
42191SOL     OW31257   1.267  11.602   0.298  0.2404 -0.2271  0.3700
42191SOL    HW131258   1.184  11.645   0.320  0.4004 -0.4465  1.4687
42191SOL    HW231259   1.331  11.643   0.356  0.6876 -0.8367  0.3105
42192SOL     OW31260  11.823   1.130   8.878 -0.3994 -0.0612 -0.2577
42192SOL    HW131261  11.884   1.144   8.950 -0.2403  0.2868 -0.4602
42192SOL    HW231262  11.769   1.056   8.907  0.9956 -1.2852 -0.6520
42193SOL     OW31263   8.447  10.157   8.218  0.6850  0.2548 -0.0741
42193SOL    HW131264   8.366  10.145   8.168  0.0119  0.0253  1.0359
42193SOL    HW231265   8.469  10.249   8.206 -0.2875  0.5621  0.3963
42194SOL     OW31266   7.438   4.528  10.904 -0.0942  0.1512 -0.1354
42194SOL    HW131267   7.490   4.481  10.970  0.2273  1.2654  0.4341
42194SOL    HW231268   7.388   4.459  10.860 -1.3097 -0.5400  2.1329
42195SOL     OW31269   9.938   9.800   8.209  0.0867 -0.5740 -0.2859
42195SOL    HW131270   9.971   9.868   8.151 -1.2149 -1.5469 -2.2619
42195SOL    HW231271   9.921   9.845   8.292 -0.9562  1.5697 -1.5868
42196SOL     OW31272   2.811   8.247   1.320 -0.0305  0.3787 -0.1712
42196SOL    HW131273   2.743   8.242   1.252 -0.0365  0.8940 -0.2084
42196SOL    HW231274   2.853   8.161   1.319  0.3519  0.5636 -1.2219
42197SOL     OW31275   2.506   3.509   8.062  0.1497  0.2220 -0.0453
42197SOL    HW131276   2.477   3.427   8.023 -0.4563 -0.1143  1.0759
42197SOL    HW231277   2.475   3.576   8.001 -0.3079 -0.3164 -0.4130
42198SOL     OW31278   4.380   5.319  11.842 -0.5500  0.1353  0.0973
42198SOL    HW131279   4.437   5.241  11.837 -1.5175 -0.5637 -0.3311
42198SOL    HW231280   4.435   5.386  11.882  0.7006 -0.4106 -0.6376
42199SOL     OW31281   3.993   3.449   5.435 -0.4070  0.2655  0.3720
42199SOL    HW131282   3.938   3.375   5.412 -0.1010  0.2829 -0.4699
42199SOL    HW231283   4.053   3.458   5.361  0.8877  0.0960  1.3595
42200SOL     OW31284   3.160   4.421   3.771 -0.2295 -0.4256  0.5704
42200SOL    HW131285   3.135   4.403   3.681 -0.7236  2.0609  0.1257
42200SOL    HW231286   3.077   4.421   3.819 -0.1820  0.0528  0.6565
42201SOL     OW31287   6.251   7.286   6.676  0.6137 -0.1676  0.2928
42201SOL    HW131288   6.233   7.258   6.586  2.9649 -0.0946 -0.2662
42201SOL    HW231289   6.192   7.360   6.690 -0.8936 -1.1464 -0.6041
42202SOL     OW31290   7.295   8.282   8.283  0.1405 -0.3194  0.5792
42202SOL    HW131291   7.206   8.274   8.317 -0.4984  1.7948 -0.4228
42202SOL    HW231292   7.325   8.367   8.313  2.3009 -1.4203  1.8021
42203SOL     OW31293   9.421   7.050   8.588  0.6279 -0.4605  0.0953
42203SOL    HW131294   9.466   7.041   8.672  0.7260 -2.2484 -0.0933
42203SOL    HW231295   9.485   7.090   8.530  0.2651  1.6268  1.0620
42204SOL     OW31296  11.077   3.957  11.113 -0.0524  0.2283 -0.0181
42204SOL    HW131297  10.999   3.968  11.168 -0.0683  0.3233 -0.0604
42204SOL    HW231298  11.104   4.046  11.093 -1.0915  0.2146 -1.6579
42205SOL     OW31299   5.595   6.240   4.349  0.0208  0.4864 -0.3851
42205SOL    HW131300   5.682   6.280   4.341  0.3032  0.0434  0.4184
42205SOL    HW231301   5.567   6.225   4.258  1.0209  0.1020 -0.6375
42206SOL     OW31302   6.238   9.319   8.517  0.0540  0.5321  0.9327
42206SOL    HW131303   6.186   9.388   8.558  0.0832  0.4529  1.1067
42206SOL    HW231304   6.321   9.320   8.565 -1.4363 -2.5597  4.0514
42207SOL     OW31305   4.255   1.936  11.038  0.3709 -0.1736  0.2244
42207SOL    HW131306   4.274   2.025  11.066 -0.0793  0.0716 -0.2405
42207SOL    HW231307   4.177   1.912  11.088 -0.9390  0.5680 -1.3919
42208SOL     OW31308  10.207  11.709   5.481  0.1283 -0.2100 -0.0187
42208SOL    HW131309  10.244  11.787   5.521  0.6743 -0.6136  0.2875
42208SOL    HW231310  10.146  11.742   5.415  0.1744  0.4662  0.2686
42209SOL     OW31311   4.391   4.127  10.977  0.1840 -0.1200 -0.3444
42209SOL    HW131312   4.402   4.150  11.070 -1.7121  0.3028 -0.1960
42209SOL    HW231313   4.451   4.053  10.964  0.9363  0.2051  1.0536
42210SOL     OW31314   7.822  10.536  10.640 -0.1257 -0.4059 -0.6507
42210SOL    HW131315   7.795  10.611  10.586 -1.1857  0.8068  1.4112
42210SOL    HW231316   7.740  10.491  10.660  0.1873 -0.6084  0.2130
42211SOL     OW31317  11.638   2.098   4.892 -0.0783  0.2510  0.5929
42211SOL    HW131318  11.631   2.087   4.987 -1.5699  0.6882  0.5562
42211SOL    HW231319  11.635   2.193   4.879  2.0064  0.3192  0.1994
42212SOL     OW31320   5.404   5.683   0.907  0.3459 -0.3857  0.3472
42212SOL    HW131321   5.439   5.771   0.920  1.2694 -0.7214  0.1688
42212SOL    HW231322   5.349   5.667   0.983  0.1085  0.3738  0.3405
42213SOL     OW31323   9.558   7.554   0.836  0.2622  0.5576  0.0317
42213SOL    HW131324   9.616   7.491   0.880  0.8267  2.9152  2.9810
42213SOL    HW231325   9.617   7.621   0.802 -0.4833  0.9011 -0.6051
42214SOL     OW31326   7.682   6.974   3.175  0.1394  0.1752 -0.0940
42214SOL    HW131327   7.680   7.066   3.147 -0.3866 -0.0053 -0.6843
42214SOL    HW231328   7.736   6.930   3.110 -0.2180 -0.0589 -0.2384
42215SOL     OW31329  10.589   1.597   3.392  0.4081  0.7207  0.0145
42215SOL    HW131330  10.565   1.507   3.370  0.1819  1.1524 -1.5869
42215SOL    HW231331  10.528   1.622   3.462  1.2323 -0.7283  1.3361
42216SOL     OW31332   7.638  11.338   3.567  0.0793 -0.4550 -0.4375
42216SOL    HW131333   7.665  11.392   3.493 -0.0981  0.4877  0.1622
42216SOL    HW231334   7.548  11.312   3.547 -0.6494  1.3707  0.2828
42217SOL     OW31335   2.540   2.026   2.863 -0.5671  0.0648 -0.3296
42217SOL    HW131336   2.476   2.091   2.832  0.3039  1.4164  0.5927
42217SOL    HW231337   2.487   1.951   2.890 -1.6661  0.6769 -0.7317
42218SOL     OW31338   5.176  10.686   5.812 -0.0514  0.0022  0.6258
42218SOL    HW131339   5.132  10.633   5.880 -0.8216  0.8946  0.8347
42218SOL    HW231340   5.107  10.740   5.775  0.2974 -0.6739 -1.1116
42219SOL     OW31341   1.582   9.175   8.683 -0.4994 -0.2680  0.6905
42219SOL    HW131342   1.487   9.161   8.690 -0.6099  0.5246  0.8992
42219SOL    HW231343   1.595   9.264   8.715  0.4133 -0.6208  1.3323
42220SOL     OW31344   0.017   3.405  10.880  0.2054 -0.9587 -0.1074
42220SOL    HW131345   0.072   3.433  10.953  0.7402 -0.4240 -0.7020
42220SOL    HW231346  -0.059   3.365  10.921 -0.3787  0.9656  0.8036
42221SOL     OW31347   5.052   8.109   5.339 -0.8026 -0.5086 -0.3379
42221SOL    HW131348   5.049   8.193   5.293 -0.6134  0.0671  0.6907
42221SOL    HW231349   5.136   8.071   5.312  0.1743  0.6625  0.9460
42222SOL     OW31350  11.450   8.572   5.423 -0.0247  0.1148  0.2707
42222SOL    HW131351  11.537   8.604   5.445 -1.1337  2.9806  0.9852
42222SOL    HW231352  11.405   8.565   5.507 -0.4029 -1.7768 -0.0423
42223SOL     OW31353   0.106   5.100   0.997  0.1000  0.1692 -0.2685
42223SOL    HW131354   0.040   5.086   1.065 -0.3335 -1.0597 -0.9137
42223SOL    HW231355   0.104   5.194   0.980  0.6677  0.6103  1.8413
42224SOL     OW31356  11.931   6.786  10.988 -0.3625 -0.1497  0.1106
42224SOL    HW131357  11.837   6.778  11.007 -0.6816  0.8561 -0.8888
42224SOL    HW231358  11.974   6.754  11.067 -1.5704  1.3076  1.4449
42225SOL     OW31359   9.448   3.205   5.019 -0.0787  0.3754 -0.5291
42225SOL    HW131360   9.372   3.243   4.975 -0.9110 -0.8544 -0.2133
42225SOL    HW231361   9.494   3.157   4.950  0.2691  0.8926 -0.6623
42226SOL     OW31362   2.783   1.267   4.743 -0.0071  0.1557  0.3645
42226SOL    HW131363   2.790   1.361   4.723  0.3590  0.0039 -0.2475
42226SOL    HW231364   2.795   1.262   4.838 -1.2007  0.8412  0.5695
42227SOL     OW31365   8.742   8.956   7.582 -0.2564  0.5329  0.2373
42227SOL    HW131366   8.774   9.040   7.548 -0.2209  1.4124  2.2989
42227SOL    HW231367   8.809   8.929   7.645  0.0945 -1.4599 -0.8911
42228SOL     OW31368   5.436   2.916   3.905 -0.2650 -0.4202  0.4692
42228SOL    HW131369   5.342   2.900   3.909 -0.5195  0.1555 -1.9593
42228SOL    HW231370   5.457   2.914   3.812  2.0955 -0.2363  0.9327
42229SOL     OW31371   8.017   2.071   5.480  0.4135  0.2695  0.0237
42229SOL    HW131372   7.989   2.156   5.445 -1.7154 -0.1465  0.6140
42229SOL    HW231373   8.094   2.049   5.428  2.5748  3.6471  1.4185
42230SOL     OW31374   3.552   1.254   5.915  1.1149 -0.0073  0.4580
42230SOL    HW131375   3.636   1.222   5.948  1.7668  0.5500 -0.6381
42230SOL    HW231376   3.537   1.204   5.835  0.7582  0.4077  0.2623
42231SOL     OW31377   9.324   8.023   3.345 -0.0027 -0.3363 -0.1992
42231SOL    HW131378   9.410   8.026   3.303  0.2197  1.1257  0.2801
42231SOL    HW231379   9.262   8.034   3.274  0.1606 -1.9332 -0.6168
42232SOL     OW31380   9.198   0.636   1.372  0.7695 -0.1257 -0.6078
42232SOL    HW131381   9.248   0.684   1.437 -0.6391 -0.8112  1.0410
42232SOL    HW231382   9.253   0.560   1.351  1.0228 -0.1402  0.1053
42233SOL     OW31383   3.705   2.137   0.568  0.2256 -0.1477  0.2195
42233SOL    HW131384   3.611   2.137   0.552  0.3448  0.6673 -0.5609
42233SOL    HW231385   3.726   2.228   0.592  1.1781  0.3292 -2.1268
42234SOL     OW31386  11.061   1.952   0.396 -0.0130 -0.2186  0.2054
42234SOL    HW131387  11.034   1.894   0.466 -0.3755  1.1395  1.2338
42234SOL    HW231388  11.143   1.913   0.363 -1.8162 -3.0326 -1.3294
42235SOL     OW31389  11.003   0.331   7.470  0.3145 -0.1414  0.2088
42235SOL    HW131390  11.089   0.318   7.430 -0.1788 -1.5173 -0.4559
42235SOL    HW231391  10.946   0.356   7.398  0.4375  2.3557  0.8877
42236SOL     OW31392   8.912   4.629   7.031  0.6659  0.0063 -1.1099
42236SOL    HW131393   8.843   4.564   7.021 -0.8222  1.7609 -3.1060
42236SOL    HW231394   8.906   4.657   7.122 -0.1438 -1.0503 -0.8212
42237SOL     OW31395   0.949   8.130  10.436 -0.0541 -0.2045  0.0800
42237SOL    HW131396   1.029   8.083  10.460 -1.3019 -1.6790  1.6039
42237SOL    HW231397   0.960   8.217  10.474 -0.6836 -1.5526  3.7381
42238SOL     OW31398   5.012  10.025   8.139  0.4221 -0.4750 -0.3688
42238SOL    HW131399   5.051   9.939   8.154  0.7398 -0.3076 -0.2429
42238SOL    HW231400   5.036  10.076   8.217  1.2421  0.0940 -0.9847
42239SOL     OW31401   4.195  10.668   9.172 -0.5864  0.2922  0.0159
42239SOL    HW131402   4.220  10.642   9.261 -0.5601 -0.1820 -0.1257
42239SOL    HW231403   4.200  10.764   9.173 -0.0267  0.2677  0.3625
42240SOL     OW31404   5.954  11.010   1.094 -0.2934 -0.1196  0.3222
42240SOL    HW131405   5.959  11.055   1.010  0.2146 -1.2104 -0.2583
42240SOL    HW231406   6.043  10.978   1.109 -0.8938 -2.1304 -0.0095
42241SOL     OW31407   4.734   7.526   1.270 -0.9155 -0.7669 -0.1557
42241SOL    HW131408   4.660   7.587   1.262  2.2847  3.8500  0.8283
42241SOL    HW231409   4.740   7.508   1.363 -0.0962  0.0606 -0.0291
42242SOL     OW31410   2.304   7.430   2.480 -0.0213  0.0239 -0.2604
42242SOL    HW131411   2.266   7.479   2.553 -0.5511  0.8951 -1.1069
42242SOL    HW231412   2.248   7.353   2.472  0.1920 -0.2076  0.4092
42243SOL     OW31413   6.492  11.282   5.079 -0.5851  0.2926  0.3585
42243SOL    HW131414   6.519  11.191   5.086 -0.2539  0.4089  0.6071
42243SOL    HW231415   6.406  11.286   5.121 -2.3802 -0.6604 -2.8264
42244SOL     OW31416   5.593   7.246  11.603 -0.4253  0.1265 -0.4631
42244SOL    HW131417   5.585   7.253  11.507 -1.4923 -1.8547 -0.5787
42244SOL    HW231418   5.683   7.271  11.621  0.2265 -0.7595 -2.1710
42245SOL     OW31419   4.393  10.203   3.041  0.1362  0.3014  0.5903
42245SOL    HW131420   4.473  10.201   2.987  0.2399 -0.6826  0.7481
42245SOL    HW231421   4.423  10.231   3.127  0.6242 -1.5996  1.0836
42246SOL     OW31422   2.189   1.269   2.260 -0.8637  0.1608 -0.7943
42246SOL    HW131423   2.127   1.318   2.314 -1.0445  0.7540 -1.5256
42246SOL    HW231424   2.196   1.320   2.179  1.8492  1.0076 -0.1136
42247SOL     OW31425   7.190   5.911   3.613 -0.1232  0.6813 -0.0997
42247SOL    HW131426   7.209   5.990   3.562 -1.1904  1.2141  0.2975
42247SOL    HW231427   7.119   5.868   3.566  1.8014 -1.2256 -1.4979
42248SOL     OW31428   3.907   6.590   2.994  0.3647  0.1647 -0.5755
42248SOL    HW131429   3.832   6.591   3.053  1.7318 -2.7098  1.4061
42248SOL    HW231430   3.883   6.529   2.925  0.3306  0.3758 -0.7519
42249SOL     OW31431   3.523   7.418   1.690  0.6839  0.1526  0.7233
42249SOL    HW131432   3.445   7.369   1.664 -0.1944  0.9525  1.7907
42249SOL    HW231433   3.576   7.354   1.738  0.2596 -0.1681  0.7703
42250SOL     OW31434   3.850   4.682   8.652 -0.6267  0.4462  0.0231
42250SOL    HW131435   3.841   4.756   8.591 -0.1584 -0.1515 -0.7907
42250SOL    HW231436   3.912   4.713   8.718 -0.7664  0.9366 -0.0736
42251SOL     OW31437   9.105   3.328   5.141 -0.7177 -0.4208 -0.3853
42251SOL    HW131438   9.108   3.251   5.198  0.3444 -0.0176  0.1453
42251SOL    HW231439   9.168   3.389   5.181  0.5769 -0.3784 -2.3565
42252SOL     OW31440   3.285  11.327  11.609 -0.2812  0.3306 -0.6118
42252SOL    HW131441   3.220  11.386  11.647  0.8893  1.6135 -0.4934
42252SOL    HW231442   3.241  11.243  11.602 -1.6006  0.9013  0.4381
42253SOL     OW31443   9.006   3.418   6.484 -0.0103  0.1013 -0.0760
42253SOL    HW131444   8.986   3.364   6.408 -0.7174  1.5834 -0.9874
42253SOL    HW231445   9.072   3.368   6.533 -2.1501 -2.5921  0.3011
42254SOL     OW31446   7.729  10.250   3.187  0.2947 -0.0844 -0.2643
42254SOL    HW131447   7.686  10.211   3.264  1.4505  0.1234  0.5177
42254SOL    HW231448   7.658  10.271   3.128 -0.8247  1.4658  1.5330
42255SOL     OW31449   7.377   9.898   5.605 -0.1592 -0.6928  0.1784
42255SOL    HW131450   7.335   9.984   5.600 -1.0801 -1.1974 -2.6347
42255SOL    HW231451   7.352   9.864   5.691 -1.6611  0.9210  0.4377
42256SOL     OW31452  11.775   7.800   3.564  0.3635 -0.1401  0.7531
42256SOL    HW131453  11.709   7.732   3.574 -1.9776  1.4820 -2.0537
42256SOL    HW231454  11.853   7.754   3.535 -1.7059 -1.6910 -3.1176
42257SOL     OW31455   9.994   2.816   9.164  0.1235 -0.3605  0.1666
42257SOL    HW131456   9.961   2.894   9.209 -1.2080  0.8836 -2.6907
42257SOL    HW231457   9.933   2.746   9.187 -1.6397  0.6951 -0.9921
42258SOL     OW31458   9.609   7.052   0.065 -0.5115  0.3384 -0.6300
42258SOL    HW131459   9.594   7.146   0.061 -2.0472  0.2769  1.5511
42258SOL    HW231460   9.577   7.019  -0.019  2.4627  1.9115 -2.5595
42259SOL     OW31461   7.779   8.301   9.322 -0.1567 -0.1819 -0.1642
42259SOL    HW131462   7.798   8.318   9.414 -0.2048 -0.3064 -0.1303
42259SOL    HW231463   7.842   8.234   9.295  0.6849  0.7649 -0.5762
42260SOL     OW31464   4.371   0.776   8.946 -0.5621  0.3546  0.0154
42260SOL    HW131465   4.449   0.805   8.995  0.2129 -0.0729 -0.9213
42260SOL    HW231466   4.402   0.703   8.893 -1.4365  0.6230 -0.9016
42261SOL     OW31467   1.522  11.855   4.665  0.1068  0.7493 -0.2722
42261SOL    HW131468   1.431  11.864   4.692  0.3404 -0.8445  1.1982
42261SOL    HW231469   1.517  11.810   4.580 -0.4667 -0.4200  0.3597
42262SOL     OW31470   1.390   9.198   6.643  0.1442 -0.2483  0.3816
42262SOL    HW131471   1.386   9.277   6.588  1.2061  0.1434  0.8409
42262SOL    HW231472   1.464   9.148   6.607  0.1763 -0.4984  0.7947
42263SOL     OW31473  10.104   6.882   5.212  0.3643  1.1009  0.0040
42263SOL    HW131474  10.039   6.891   5.282 -1.0679 -1.0723 -0.9229
42263SOL    HW231475  10.057   6.907   5.133 -0.5645 -3.3267 -1.1357
42264SOL     OW31476  10.224   3.017  11.100 -0.1416  0.2864  0.3477
42264SOL    HW131477  10.261   2.952  11.040  1.3737  1.1425  0.3330
42264SOL    HW231478  10.133   3.027  11.070 -0.3606 -1.6491  0.2246
42265SOL     OW31479   8.827   4.901  10.043  0.4508  0.6054  0.0973
42265SOL    HW131480   8.796   4.972  10.098  1.1607 -0.1037  1.4759
42265SOL    HW231481   8.751   4.873   9.993 -0.6955  0.1379  2.0102
42266SOL     OW31482   3.003   2.739   0.653 -0.3481  0.1959  0.2556
42266SOL    HW131483   2.999   2.662   0.709 -0.9682 -0.0735 -0.1466
42266SOL    HW231484   2.912   2.759   0.633 -0.1412 -0.3917 -1.5388
42267SOL     OW31485   4.335   1.100   0.706 -0.2236  0.1159  0.4677
42267SOL    HW131486   4.426   1.118   0.682 -1.0687  1.3755 -2.1967
42267SOL    HW231487   4.330   1.005   0.713  1.1452 -0.0063  0.0087
42268SOL     OW31488   5.603   4.237   3.643 -0.3311  0.8410  0.1564
42268SOL    HW131489   5.692   4.232   3.678  0.4908  1.8655 -1.5943
42268SOL    HW231490   5.611   4.201   3.554 -1.5995  1.2372 -0.1345
42269SOL     OW31491   1.739  10.415   8.878  0.2498  0.5310  0.0098
42269SOL    HW131492   1.796  10.485   8.913  0.8206 -0.2727  0.7403
42269SOL    HW231493   1.798  10.342   8.863 -0.4873 -0.0869  0.0846
42270SOL     OW31494  10.872   6.079   5.606  0.4756  0.3306 -0.0502
42270SOL    HW131495  10.960   6.060   5.573  1.3780  2.0517  1.1718
42270SOL    HW231496  10.851   6.164   5.567  0.1763  0.8157  1.1459
42271SOL     OW31497  11.208   8.597   8.990 -0.2394 -0.1978  0.2167
42271SOL    HW131498  11.210   8.643   8.906  1.3570 -1.8755 -0.7464
42271SOL    HW231499  11.164   8.657   9.050 -0.8744  1.3044 -1.6655
42272SOL     OW31500   1.001   0.693   5.384 -0.0422 -0.0340  0.2777
42272SOL    HW131501   1.033   0.774   5.344 -0.1578  0.0371  0.3283
42272SOL    HW231502   1.042   0.623   5.334  0.8501  0.0585  0.8553
42273SOL     OW31503   6.614   2.864   6.521  0.2529  0.0229 -0.0012
42273SOL    HW131504   6.563   2.912   6.586  0.0323  0.0014 -0.1603
42273SOL    HW231505   6.694   2.838   6.568 -0.7314 -1.6640  0.8586
42274SOL     OW31506   1.210   9.924  11.062 -0.2052  0.3205  0.2002
42274SOL    HW131507   1.134   9.894  11.112  1.0283 -1.3467  1.1646
42274SOL    HW231508   1.200   9.885  10.975 -1.5714  1.9894 -0.4576
42275SOL     OW31509   0.416   9.469  10.938 -0.1704 -0.3791 -0.0647
42275SOL    HW131510   0.416   9.562  10.959  0.5122 -0.5941  0.9694
42275SOL    HW231511   0.357   9.461  10.863 -0.3716  0.8528 -0.0544
42276SOL     OW31512   6.627  11.988   6.250  0.0934 -0.1943 -0.2799
42276SOL    HW131513   6.547  12.036   6.230  0.5078  0.5452 -0.2060
42276SOL    HW231514   6.668  11.972   6.165  0.1538 -0.0680 -0.2742
42277SOL     OW31515   9.845   0.750   3.172 -0.5731  0.1636  0.2659
42277SOL    HW131516   9.752   0.770   3.177 -0.6606 -0.1327 -0.1575
42277SOL    HW231517   9.888   0.835   3.161 -0.8798  0.1993 -0.7181
42278SOL     OW31518  10.195   7.480  10.528  0.5582 -0.1085 -0.4269
42278SOL    HW131519  10.247   7.519  10.598 -0.6239 -0.4330  0.6779
42278SOL    HW231520  10.166   7.396  10.564  0.0247 -0.3413 -1.3648
42279SOL     OW31521   2.370   4.936   9.385  0.0079 -0.2672  0.5089
42279SOL    HW131522   2.381   4.843   9.404 -3.4387 -0.9400 -0.2783
42279SOL    HW231523   2.293   4.941   9.329  0.1617  3.0753  0.3872
42280SOL     OW31524   8.608   5.500  10.983 -0.1747  0.2373  0.1528
42280SOL    HW131525   8.580   5.421  11.030 -1.3778  0.7736  0.3783
42280SOL    HW231526   8.554   5.501  10.903 -0.4549  1.0184  0.3385
42281SOL     OW31527  11.110  10.979   0.512  0.5612  0.0158  0.0836
42281SOL    HW131528  11.179  10.914   0.499 -1.2674 -2.3588  1.3627
42281SOL    HW231529  11.053  10.969   0.436 -0.3536 -0.7813  0.8505
42282SOL     OW31530   7.916   1.398   0.498  0.1967  0.3116 -0.4346
42282SOL    HW131531   7.977   1.325   0.512  0.3831  0.6490  0.6446
42282SOL    HW231532   7.893   1.393   0.405  1.0595 -0.4494 -0.6232
42283SOL     OW31533   5.178   7.794  10.473 -0.0404 -0.0851 -0.1629
42283SOL    HW131534   5.133   7.856  10.417 -1.5226 -1.4553 -0.5603
42283SOL    HW231535   5.110   7.762  10.533  0.5345 -1.6903 -0.3192
42284SOL     OW31536  10.295   8.526   9.781 -0.2642  0.6227 -0.0866
42284SOL    HW131537  10.207   8.552   9.755 -0.8761 -0.6449  0.6041
42284SOL    HW231538  10.315   8.451   9.724 -0.2849 -0.0947  0.8387
42285SOL     OW31539   2.595   1.115   9.296  0.3680 -0.0905  0.0113
42285SOL    HW131540   2.561   1.028   9.316  1.9908 -0.7194  0.1788
42285SOL    HW231541   2.529   1.175   9.332 -2.0153 -1.1768 -2.2187
42286SOL     OW31542  10.064   9.318   2.807 -0.5415 -0.2552 -0.2804
42286SOL    HW131543  10.100   9.278   2.886 -1.2885  3.1362  1.9410
42286SOL    HW231544  10.131   9.380   2.779 -0.8546 -0.4830 -1.6240
42287SOL     OW31545   3.748   8.298   9.548  0.5284 -0.0373 -0.2807
42287SOL    HW131546   3.703   8.332   9.626 -1.6693 -1.1851 -0.9516
42287SOL    HW231547   3.797   8.373   9.514 -0.0357  1.0104  1.1226
42288SOL     OW31548   1.675   1.626   1.008 -0.6451  0.0878 -0.1835
42288SOL    HW131549   1.580   1.623   0.995 -0.8473 -0.3024  1.2265
42288SOL    HW231550   1.711   1.628   0.920 -1.9332 -0.8072 -0.7634
42289SOL     OW31551   5.177   6.154   7.235 -0.0037 -0.4575  0.0411
42289SOL    HW131552   5.164   6.242   7.198 -0.9623 -0.2349  0.8709
42289SOL    HW231553   5.089   6.117   7.243  0.2326 -0.8243  1.2765
42290SOL     OW31554   1.401   5.932   7.806  0.0629  0.6797 -0.0738
42290SOL    HW131555   1.369   5.884   7.882 -2.8434 -1.8595 -2.6376
42290SOL    HW231556   1.481   5.886   7.780 -1.0569 -1.0146 -0.7222
42291SOL     OW31557   9.411  11.820  11.550  0.2267  0.0782  0.4450
42291SOL    HW131558   9.365  11.763  11.489  1.4411 -1.3436  0.7979
42291SOL    HW231559   9.456  11.883  11.493 -0.1890 -0.0289 -0.0126
42292SOL     OW31560   4.998   4.775   6.644  0.1684 -0.2431 -0.1432
42292SOL    HW131561   4.926   4.822   6.601  0.8966  0.4135 -0.6697
42292SOL    HW231562   4.970   4.684   6.645 -0.4378 -0.0725 -0.8242
42293SOL     OW31563   2.770   7.995  10.795  0.4818 -0.1148 -0.5423
42293SOL    HW131564   2.733   7.988  10.882  0.1774  2.1531 -0.4216
42293SOL    HW231565   2.864   8.005  10.809  0.6477 -1.4405 -0.6002
42294SOL     OW31566   6.081   2.137   4.910 -0.1301 -0.1673  0.2088
42294SOL    HW131567   6.086   2.198   4.836 -0.6866  0.7631  0.9202
42294SOL    HW231568   5.990   2.105   4.909 -0.1768 -0.0477  0.5720
42295SOL     OW31569  11.038   8.926   6.685 -0.2346 -0.0292  0.1073
42295SOL    HW131570  10.954   8.971   6.697 -1.1077 -1.5077 -0.2825
42295SOL    HW231571  11.040   8.905   6.592  1.4740  1.6527 -0.3021
42296SOL     OW31572   9.653   9.862   4.044  0.6934 -0.1613  0.7693
42296SOL    HW131573   9.641   9.899   3.957  0.9288 -1.2077  0.2863
42296SOL    HW231574   9.718   9.918   4.086  0.7207  0.2271  0.2105
42297SOL     OW31575   5.343   2.057  10.538  0.7515  0.3832  0.0158
42297SOL    HW131576   5.325   2.110  10.616  2.9739  2.1600 -0.5722
42297SOL    HW231577   5.394   1.983  10.571 -1.2523 -0.7805  0.6616
42298SOL     OW31578   0.908   0.992   0.339  0.8166 -0.2869 -0.2351
42298SOL    HW131579   0.873   0.987   0.427  1.9442 -0.5347  0.2165
42298SOL    HW231580   0.833   0.972   0.282  0.3612 -1.3767  0.7086
42299SOL     OW31581   8.550   5.268   2.646  0.4892  0.2140 -0.0611
42299SOL    HW131582   8.531   5.245   2.556  0.9349  0.5039 -0.2324
42299SOL    HW231583   8.646   5.267   2.652  0.5070  1.3810  0.0829
42300SOL     OW31584  11.829   5.851   7.224 -0.4448  0.5316  0.0856
42300SOL    HW131585  11.775   5.777   7.196 -0.9685  0.6696  0.6904
42300SOL    HW231586  11.768   5.926   7.223 -0.5594  0.4916  1.8082
42301SOL     OW31587   7.387   4.058   1.273 -0.0386 -0.1440  0.0123
42301SOL    HW131588   7.307   4.026   1.316  0.5106 -0.3789  0.8745
42301SOL    HW231589   7.359   4.076   1.183 -1.3238  0.7829  0.5606
42302SOL     OW31590  11.174   1.916   7.932 -0.6897  0.1737  0.4322
42302SOL    HW131591  11.169   2.006   7.900  1.1677  0.0550 -0.3517
42302SOL    HW231592  11.130   1.917   8.017 -0.6529  1.8321  0.4494
42303SOL     OW31593   0.335   1.002   7.058  0.0312  0.0544  0.0782
42303SOL    HW131594   0.259   0.948   7.035  0.7360 -0.6940 -0.5546
42303SOL    HW231595   0.401   0.978   6.993  1.2560 -0.2938  1.4128
42304SOL     OW31596   2.742   0.545   0.116 -0.3709 -0.3552  0.0665
42304SOL    HW131597   2.675   0.521   0.180 -2.6226  1.8588 -1.2456
42304SOL    HW231598   2.700   0.613   0.062  2.5457  0.2675 -1.6476
42305SOL     OW31599   1.477   5.231  11.541  0.1919  0.3063  0.4851
42305SOL    HW131600   1.499   5.304  11.599 -1.2267  0.7933  0.4499
42305SOL    HW231601   1.536   5.240  11.467  0.3379  1.1608  0.6914
42306SOL     OW31602   0.286   0.227   5.581  0.0198  0.0896 -0.3434
42306SOL    HW131603   0.225   0.159   5.611  1.2755 -0.6323  0.7135
42306SOL    HW231604   0.350   0.234   5.652  1.2076  0.7505 -1.4382
42307SOL     OW31605   9.439   8.532  10.765  0.0455 -0.3819  0.2515
42307SOL    HW131606   9.382   8.455  10.760 -0.5846  0.0703  0.3759
42307SOL    HW231607   9.481   8.535  10.679 -0.1575 -0.6884  0.1365
42308SOL     OW31608   6.044   9.385   4.304  0.1666  0.1941 -0.5621
42308SOL    HW131609   6.026   9.456   4.366  0.3815 -0.5540  0.3660
42308SOL    HW231610   5.976   9.320   4.321  1.3108 -0.8462  0.1851
42309SOL     OW31611   5.127   6.243   0.241  0.4013  0.0006 -0.1942
42309SOL    HW131612   5.200   6.259   0.302  0.7712 -0.9080 -0.3936
42309SOL    HW231613   5.056   6.211   0.297  0.5157 -0.1759 -0.1505
42310SOL     OW31614  11.874   2.072  10.235 -0.0336  0.2234 -0.4163
42310SOL    HW131615  11.880   2.047  10.327  1.1332 -0.5551 -0.6827
42310SOL    HW231616  11.870   2.167  10.235 -2.9882  0.1793  0.5618
42311SOL     OW31617  11.134   5.373   4.229  1.2702 -0.2038  0.1181
42311SOL    HW131618  11.144   5.307   4.297  0.0694  0.8594  1.3574
42311SOL    HW231619  11.088   5.446   4.271 -0.1646  0.2017 -2.0071
42312SOL     OW31620   4.564   5.770  11.828 -0.3261  0.2585 -0.3199
42312SOL    HW131621   4.484   5.803  11.785 -0.7760  0.7016  0.8139
42312SOL    HW231622   4.627   5.759  11.757 -1.6268 -0.8373 -1.3684
42313SOL     OW31623   9.717   4.234  11.383 -0.0754  0.3937  0.0515
42313SOL    HW131624   9.622   4.232  11.389 -0.0653 -2.8349  1.0503
42313SOL    HW231625   9.747   4.237  11.474  0.8110  0.6874 -0.2295
42314SOL     OW31626  10.501   9.859   2.273  0.2010  0.4116  0.0790
42314SOL    HW131627  10.441   9.855   2.348 -0.9044 -0.1886 -0.7987
42314SOL    HW231628  10.572   9.799   2.296  0.1602  0.6616  0.8806
42315SOL     OW31629   2.998  10.959   9.482 -0.7153  0.4934 -0.4633
42315SOL    HW131630   3.027  10.869   9.470 -2.6890 -0.0464 -1.6991
42315SOL    HW231631   3.045  11.009   9.415  1.1947  0.6532  0.9054
42316SOL     OW31632   4.629  11.582   5.364  0.4751 -0.3386  0.8794
42316SOL    HW131633   4.708  11.543   5.403  2.2122  1.3167 -0.7856
42316SOL    HW231634   4.604  11.651   5.424  0.8956 -0.2225  0.9219
42317SOL     OW31635  11.735   2.197   8.742 -0.3538  0.1515 -0.3466
42317SOL    HW131636  11.734   2.292   8.734  0.1459  0.1416 -0.5664
42317SOL    HW231637  11.700   2.164   8.660 -1.2430  0.1554  0.0247
42318SOL     OW31638   4.459   2.817   4.604 -0.1705  0.5529  0.2050
42318SOL    HW131639   4.436   2.732   4.569  1.1676  0.0648  0.4455
42318SOL    HW231640   4.380   2.848   4.648 -1.4124  0.5116 -1.8862
42319SOL     OW31641  11.575   8.992   7.145 -0.5022 -0.5907 -0.0100
42319SOL    HW131642  11.518   8.979   7.069  0.2841 -1.0538 -0.5310
42319SOL    HW231643  11.523   8.960   7.219 -1.6143  0.6553 -0.2058
42320SOL     OW31644   4.542   1.097  10.717 -0.4142  0.4536  0.0460
42320SOL    HW131645   4.448   1.112  10.710 -0.7597 -2.0325 -1.8559
42320SOL    HW231646   4.576   1.178  10.756 -3.2259  1.6751  0.1969
42321SOL     OW31647   4.231   0.643  10.200  0.1267 -0.0360 -0.5524
42321SOL    HW131648   4.326   0.645  10.198  0.1529  2.4824 -1.5238
42321SOL    HW231649   4.206   0.584  10.129  0.8451 -3.1884  1.6300
42322SOL     OW31650   5.022   6.451  11.587  0.3531 -0.1002 -0.2760
42322SOL    HW131651   5.066   6.388  11.645 -0.5920 -0.4075  0.1242
42322SOL    HW231652   4.955   6.399  11.543 -1.1127  0.8256  0.7954
42323SOL     OW31653   7.581  10.433  10.763  0.0342 -0.7603  0.2300
42323SOL    HW131654   7.585  10.348  10.718  1.7959 -1.1127  0.9545
42323SOL    HW231655   7.585  10.411  10.856  0.9380  0.1310  0.4141
42324SOL     OW31656  11.707  10.770   9.204 -0.3762  0.1366  0.1984
42324SOL    HW131657  11.674  10.764   9.294  0.6273  1.0627  0.6467
42324SOL    HW231658  11.788  10.819   9.212  1.1294 -1.9973 -0.8769
42325SOL     OW31659   9.272   3.072   2.545  0.4112 -0.3930  0.4205
42325SOL    HW131660   9.350   3.090   2.493  0.5725  2.5180  1.5259
42325SOL    HW231661   9.204   3.055   2.479  1.4659 -0.8212 -0.5968
42326SOL     OW31662   5.682   5.867   2.876  0.2750 -0.1847 -0.2732
42326SOL    HW131663   5.644   5.954   2.885 -0.7027 -0.6044 -0.2848
42326SOL    HW231664   5.627   5.823   2.811  0.9173 -0.7294 -0.4648
42327SOL     OW31665   2.531   3.406   3.845  0.0617  0.3405  0.6402
42327SOL    HW131666   2.494   3.494   3.849 -0.0895  0.3314 -0.2946
42327SOL    HW231667   2.503   3.365   3.926 -2.2214  0.2604 -0.1205
42328SOL     OW31668   4.289  11.558   3.840 -0.1226  0.5418 -0.3673
42328SOL    HW131669   4.233  11.614   3.787 -1.9675 -0.4415  0.4475
42328SOL    HW231670   4.248  11.557   3.927  0.2085 -1.4621 -0.1646
42329SOL     OW31671   2.401   5.204   0.408 -0.0904  0.4246  0.1772
42329SOL    HW131672   2.420   5.162   0.324  0.4678  0.6189  0.1989
42329SOL    HW231673   2.370   5.133   0.464 -1.0095  0.3936 -0.3553
42330SOL     OW31674   3.207   0.063   1.660 -0.1497 -0.1722  0.1258
42330SOL    HW131675   3.273   0.020   1.606  1.1379 -0.2377  1.6766
42330SOL    HW231676   3.151  -0.008   1.691  0.7862 -0.5352  1.0738
42331SOL     OW31677   6.683   1.841   5.075  0.1422 -0.3362 -0.4037
42331SOL    HW131678   6.612   1.897   5.106  0.5207  0.5761 -1.1325
42331SOL    HW231679   6.736   1.898   5.020  1.2669 -1.0863 -0.1292
42332SOL     OW31680   3.512   5.385   2.915  0.0065  0.2935 -0.3955
42332SOL    HW131681   3.593   5.389   2.863  1.4996 -1.6182  1.6017
42332SOL    HW231682   3.468   5.305   2.884 -1.1108  1.2543 -1.3813
42333SOL     OW31683  10.767   2.893   7.024  0.2228  0.0392  0.1685
42333SOL    HW131684  10.694   2.887   6.962  0.1634 -1.5198  0.3569
42333SOL    HW231685  10.790   2.986   7.025 -1.8116  0.5804  0.1836
42334SOL     OW31686   4.894  10.940   4.359  0.4995  0.3054 -0.0780
42334SOL    HW131687   4.881  10.918   4.451  2.3848  0.7493  0.3425
42334SOL    HW231688   4.894  10.855   4.314 -0.1996  0.0693  0.3455
42335SOL     OW31689   3.465   0.762  11.730  0.1365  0.4919 -0.1107
42335SOL    HW131690   3.451   0.827  11.799 -1.8579  0.9038 -0.8340
42335SOL    HW231691   3.411   0.792  11.657  0.2808 -1.2272 -0.9892
42336SOL     OW31692   2.934   3.376   8.403 -0.8479 -0.4246  0.4805
42336SOL    HW131693   2.925   3.397   8.310 -1.5600 -0.7597  0.4678
42336SOL    HW231694   2.865   3.425   8.446 -0.6087 -0.3807  0.8194
42337SOL     OW31695   0.184   4.540   1.010 -0.1370  0.2994 -0.5240
42337SOL    HW131696   0.126   4.580   1.074 -0.2398  0.7866 -0.9155
42337SOL    HW231697   0.263   4.593   1.012  0.2612 -0.3020 -0.0659
42338SOL     OW31698   0.458   3.070   7.011 -0.3264 -0.1932 -0.0289
42338SOL    HW131699   0.454   3.072   6.916 -1.4234 -0.5215  0.0037
42338SOL    HW231700   0.393   3.006   7.037  1.6270 -1.9241  0.8735
42339SOL     OW31701   6.851   0.926   2.346 -0.2735  0.1671 -0.0322
42339SOL    HW131702   6.869   0.908   2.438 -0.5949  1.4038  0.2941
42339SOL    HW231703   6.893   0.855   2.298  0.4610 -0.1286  1.0294
42340SOL     OW31704   2.390   5.645  10.557 -0.0377 -0.0550  0.2158
42340SOL    HW131705   2.363   5.657  10.466 -2.0065  0.2371  0.7966
42340SOL    HW231706   2.429   5.728  10.583 -0.7485  0.3322  0.0468
42341SOL     OW31707   9.236   6.659   8.515  0.1217 -0.0488 -0.3108
42341SOL    HW131708   9.301   6.623   8.576  0.3729  0.6430 -0.1704
42341SOL    HW231709   9.201   6.736   8.560  0.0762  0.2814 -0.9031
42342SOL     OW31710   5.329   3.218  10.785  0.7649 -0.5536  0.2926
42342SOL    HW131711   5.367   3.146  10.734 -0.5618 -0.7352 -0.4772
42342SOL    HW231712   5.256   3.178  10.833 -0.3461  0.3498 -0.5831
42343SOL     OW31713   9.635  11.846   1.235 -0.3496  0.7361  0.8206
42343SOL    HW131714   9.643  11.848   1.140  0.2404 -1.2736  0.7866
42343SOL    HW231715   9.679  11.766   1.261  0.5181  1.8165  2.9202
42344SOL     OW31716   6.178  10.060   2.915  0.0964 -0.4435  0.1162
42344SOL    HW131717   6.161  10.151   2.891  0.1937 -0.3991  0.2148
42344SOL    HW231718   6.105  10.036   2.971 -0.1443 -0.5549 -0.2408
42345SOL     OW31719   3.049   5.794   0.149  0.3698 -0.5093  0.2377
42345SOL    HW131720   3.125   5.849   0.129  1.3526 -1.4316  1.2807
42345SOL    HW231721   2.986   5.813   0.079 -0.2298  3.4993  1.6245
42346SOL     OW31722   7.192   8.265   2.921  0.4929  0.3571  0.1570
42346SOL    HW131723   7.253   8.247   2.993  1.2775  1.7496 -0.1135
42346SOL    HW231724   7.158   8.353   2.940  1.1586  1.0066 -1.4401
42347SOL     OW31725   5.347  11.136   1.950 -0.2576 -0.4143  0.3697
42347SOL    HW131726   5.332  11.079   2.025 -1.5954  1.3127  1.5146
42347SOL    HW231727   5.440  11.159   1.956 -0.6584  1.0170  2.6004
42348SOL     OW31728   3.840  10.683   7.503 -0.7035  0.1085 -0.1218
42348SOL    HW131729   3.900  10.621   7.546  0.6236  2.2469  1.2856
42348SOL    HW231730   3.872  10.689   7.413 -1.3885 -1.8310 -0.5498
42349SOL     OW31731   6.068   9.731   1.641  0.3878  0.0312 -0.1158
42349SOL    HW131732   6.129   9.781   1.696  0.9778  0.1423 -0.8532
42349SOL    HW231733   6.102   9.641   1.644  0.2676 -0.0134 -0.0900
42350SOL     OW31734   9.513   4.749   3.907 -0.2843  0.3727  0.5197
42350SOL    HW131735   9.568   4.828   3.902  0.0063  0.1542  0.2045
42350SOL    HW231736   9.565   4.682   3.863 -0.7536  0.1305  0.3350
42351SOL     OW31737  10.920   5.713  10.735 -1.0828  0.3781  0.4040
42351SOL    HW131738  10.901   5.800  10.703 -0.1156  1.0188  1.4835
42351SOL    HW231739  10.842   5.688  10.785 -2.6745 -0.7008 -2.4074
42352SOL     OW31740  11.723   8.533   9.328 -0.2937 -0.1734 -0.4005
42352SOL    HW131741  11.693   8.484   9.405 -2.0949 -0.0742 -0.9887
42352SOL    HW231742  11.818   8.518   9.325  0.3026  1.7566  3.2240
42353SOL     OW31743   1.885   4.616   7.105  0.3550 -0.1334  0.0953
42353SOL    HW131744   1.798   4.649   7.126  0.6255  0.1837  0.7415
42353SOL    HW231745   1.873   4.522   7.096  0.2561 -0.3475  1.9617
42354SOL     OW31746   3.760   2.880   1.842  0.0662  0.6765 -0.3257
42354SOL    HW131747   3.784   2.808   1.784  0.3137  0.5091 -0.0171
42354SOL    HW231748   3.843   2.913   1.876 -0.1456 -0.5856  1.5721
42355SOL     OW31749  11.048  11.207   9.108 -0.2941 -0.3492 -0.1433
42355SOL    HW131750  10.991  11.193   9.032 -1.1390 -2.8704  0.8491
42355SOL    HW231751  11.117  11.141   9.099  1.6204  1.6040 -0.4743
42356SOL     OW31752   9.552  10.701   5.019 -0.3023  0.0037  0.5972
42356SOL    HW131753   9.520  10.785   5.053  1.9530  1.8746 -1.5450
42356SOL    HW231754   9.647  10.705   5.030 -0.0585 -1.8903 -0.4210
42357SOL     OW31755   0.709   4.936  10.100 -0.0295 -0.0273 -0.2795
42357SOL    HW131756   0.624   4.957  10.061 -0.6013  1.0997  1.4425
42357SOL    HW231757   0.756   5.020  10.101 -0.3198  0.1644  2.0194
42358SOL     OW31758   9.585   2.298   8.130  0.3152 -0.8136  0.1884
42358SOL    HW131759   9.607   2.388   8.157 -1.5816  0.0643 -0.9273
42358SOL    HW231760   9.581   2.249   8.212  3.9644 -0.6169  0.6635
42359SOL     OW31761   2.117   5.279   1.925  0.2158  0.4341  0.4254
42359SOL    HW131762   2.148   5.197   1.885  0.4024  1.0937 -0.8267
42359SOL    HW231763   2.177   5.294   1.997 -0.4809 -1.0911  1.3704
42360SOL     OW31764   0.297   2.377  11.653  0.2152  0.5321 -0.4419
42360SOL    HW131765   0.270   2.469  11.645  0.5082  0.4618 -2.9151
42360SOL    HW231766   0.361   2.364  11.584 -0.0414 -1.6249 -0.3532
42361SOL     OW31767   1.865  11.660   9.631  0.2347 -0.0324 -0.0202
42361SOL    HW131768   1.857  11.605   9.553  0.2020 -0.7966  0.5112
42361SOL    HW231769   1.936  11.619   9.681  0.1327  0.3477  0.4366
42362SOL     OW31770   0.441  11.000  10.910 -0.2070 -0.3037 -0.2805
42362SOL    HW131771   0.488  10.920  10.886  1.8674  0.8231 -0.2765
42362SOL    HW231772   0.427  10.993  11.005 -0.1521 -0.7218 -0.3028
42363SOL     OW31773   4.765   2.232  11.649 -0.1788 -0.3564 -0.0285
42363SOL    HW131774   4.784   2.204  11.738  1.4567 -0.6399 -0.4417
42363SOL    HW231775   4.753   2.327  11.656  0.2024 -0.3398  0.4647
42364SOL     OW31776   8.681   6.884  10.394  0.3326 -0.6857 -0.1255
42364SOL    HW131777   8.633   6.960  10.428  1.5630 -0.6667  1.6706
42364SOL    HW231778   8.627   6.809  10.417 -0.3118 -0.4678 -0.8684
42365SOL     OW31779   1.612   2.821   5.139  0.2349  0.1166  0.1449
42365SOL    HW131780   1.528   2.867   5.148  0.6433  0.5162  2.9416
42365SOL    HW231781   1.592   2.730   5.161  0.2936 -0.0557 -0.5168
42366SOL     OW31782   7.393   6.765   0.615 -0.4056  0.0423  0.0974
42366SOL    HW131783   7.424   6.843   0.569  0.6900 -0.6516 -0.3577
42366SOL    HW231784   7.421   6.692   0.561 -3.6219 -0.6678 -0.8688
42367SOL     OW31785   8.516   7.834   5.957 -0.2409  0.6989 -0.2250
42367SOL    HW131786   8.544   7.879   5.877  2.6516  2.0367  1.3759
42367SOL    HW231787   8.521   7.741   5.934  0.8381  1.0410 -1.5404
42368SOL     OW31788   3.122   6.094   2.147 -0.1869  0.3421  0.0131
42368SOL    HW131789   3.176   6.171   2.131  0.0834  0.0039 -0.7481
42368SOL    HW231790   3.167   6.023   2.100 -0.0945 -0.4146  1.1930
42369SOL     OW31791   1.600   0.675   4.156  0.0527 -0.2345  0.5210
42369SOL    HW131792   1.528   0.680   4.093 -1.1047 -1.0096  1.7072
42369SOL    HW231793   1.563   0.712   4.236  1.8591  1.8361  0.4866
42370SOL     OW31794   5.721  10.537   3.629 -0.5357 -0.3624 -0.4676
42370SOL    HW131795   5.751  10.510   3.716 -1.4544 -0.6892 -0.2392
42370SOL    HW231796   5.751  10.467   3.571 -0.1880 -0.2988 -0.3660
42371SOL     OW31797   4.139  10.708  10.166  0.0001 -0.7180  0.1474
42371SOL    HW131798   4.084  10.639  10.203 -1.4694  0.1246 -0.3696
42371SOL    HW231799   4.086  10.788  10.173  1.9800  0.5717  1.5320
42372SOL     OW31800   2.738   2.107   7.121  0.0540 -0.2712  0.0068
42372SOL    HW131801   2.796   2.080   7.192 -0.6959 -0.1805  0.6743
42372SOL    HW231802   2.743   2.203   7.122  0.6412 -0.2883 -0.5860
42373SOL     OW31803   2.160   4.137   2.794  0.5015 -0.2410 -0.3608
42373SOL    HW131804   2.130   4.047   2.807 -0.1945  0.0734  0.3101
42373SOL    HW231805   2.250   4.137   2.826 -0.3427 -0.0962  2.2312
42374SOL     OW31806   2.287   8.262   6.418  0.2787 -0.3252 -0.4050
42374SOL    HW131807   2.203   8.308   6.423  0.4186  0.0120 -1.0333
42374SOL    HW231808   2.287   8.202   6.493 -0.2384  0.1445 -0.0293
42375SOL     OW31809   1.470   7.271   0.548 -0.3164  0.3222 -0.8124
42375SOL    HW131810   1.462   7.324   0.469 -0.8843  2.5424  0.6275
42375SOL    HW231811   1.423   7.190   0.528 -0.4154  0.8097 -2.7367
42376SOL     OW31812   2.660   6.997   8.976  0.4123 -0.1559 -0.0694
42376SOL    HW131813   2.751   6.999   9.007  0.1260  0.5803  0.7487
42376SOL    HW231814   2.638   7.088   8.961  0.0022 -0.3791 -0.8857
42377SOL     OW31815   0.274   4.673   5.974  0.1620  0.4996 -0.1236
42377SOL    HW131816   0.198   4.693   6.028 -0.5981  1.1650 -1.3904
42377SOL    HW231817   0.245   4.601   5.917  1.5023 -1.4005  1.4667
42378SOL     OW31818   6.969   6.637   8.465  0.1854  0.8200  0.1456
42378SOL    HW131819   6.892   6.635   8.522  0.4647  3.2146  0.7161
42378SOL    HW231820   7.041   6.661   8.524  0.5670  2.8224 -1.0315
42379SOL     OW31821   7.150   6.844   0.387 -0.6231  0.3114  0.6341
42379SOL    HW131822   7.169   6.771   0.445  0.3545  2.0439  2.6404
42379SOL    HW231823   7.060   6.828   0.357 -0.6519 -1.3727  1.4904
42380SOL     OW31824   5.581   3.499   6.277 -0.7598 -0.0155 -0.0447
42380SOL    HW131825   5.513   3.539   6.331  0.6907 -1.3228  3.0162
42380SOL    HW231826   5.572   3.405   6.294 -1.9389 -0.8915 -4.3777
42381SOL     OW31827   1.029   0.322   7.163 -0.5405 -0.3380 -0.2702
42381SOL    HW131828   1.118   0.310   7.196 -1.0628 -0.0995  1.3327
42381SOL    HW231829   0.999   0.233   7.143 -0.6790 -0.6805  1.2959
42382SOL     OW31830   1.898   1.660  10.650  0.0134  0.1448 -0.1513
42382SOL    HW131831   1.910   1.716  10.727  2.6383  0.3208 -0.5896
42382SOL    HW231832   1.901   1.571  10.685  1.9339  0.2024 -0.0513
42383SOL     OW31833   3.888   3.156   0.288 -0.7407 -0.3542 -0.1392
42383SOL    HW131834   3.916   3.080   0.236 -0.3814  0.9535 -1.9701
42383SOL    HW231835   3.969   3.205   0.305 -1.2134  0.7315 -0.8882
42384SOL     OW31836   9.558   8.268   0.434  0.2992 -0.7913 -0.0156
42384SOL    HW131837   9.622   8.206   0.470  0.2447 -0.5462  0.5087
42384SOL    HW231838   9.501   8.289   0.508  0.7769  0.4786  0.0103
42385SOL     OW31839   1.648   8.466   8.265 -0.7636 -0.0918 -0.2035
42385SOL    HW131840   1.587   8.514   8.209 -1.5936 -0.3633  0.4335
42385SOL    HW231841   1.696   8.409   8.205 -1.3893 -0.1313 -0.6792
42386SOL     OW31842   3.343   9.583   5.360 -0.2302  0.5817  0.2923
42386SOL    HW131843   3.418   9.526   5.341 -1.4999 -1.4602  0.9765
42386SOL    HW231844   3.327   9.569   5.453 -0.5716  2.1455  0.4831
42387SOL     OW31845  10.453   6.325   4.205  0.0990 -0.8187  0.1156
42387SOL    HW131846  10.446   6.230   4.209  0.9321 -1.2069 -3.7532
42387SOL    HW231847  10.372   6.354   4.164  0.8005 -0.1904 -0.9107
42388SOL     OW31848   0.015   9.476   0.869  0.1015 -0.7619 -0.2039
42388SOL    HW131849  -0.007   9.419   0.795 -1.7267 -0.6057  0.1603
42388SOL    HW231850   0.025   9.416   0.943 -1.9632 -0.6709  0.2097
42389SOL     OW31851   2.198   1.762   5.543 -0.1599 -0.2271 -0.3467
42389SOL    HW131852   2.242   1.847   5.549 -0.3080 -0.2185  0.7764
42389SOL    HW231853   2.116   1.781   5.497  1.1491 -0.3281 -2.9175
42390SOL     OW31854   1.134   7.588   3.883  0.0103 -0.3611  0.1047
42390SOL    HW131855   1.097   7.499   3.886  0.7001 -0.7252 -1.3698
42390SOL    HW231856   1.121   7.616   3.793  0.3798  0.8020  0.3955
42391SOL     OW31857   1.077   4.223   7.873  0.3389 -0.1313 -0.3410
42391SOL    HW131858   0.993   4.240   7.915  0.6187 -0.6852  0.4647
42391SOL    HW231859   1.142   4.259   7.934  0.8060 -1.8699  0.2563
42392SOL     OW31860  10.362   2.247   2.556  0.2121 -0.3653 -0.1030
42392SOL    HW131861  10.267   2.242   2.543  0.1232  1.9980 -0.9855
42392SOL    HW231862  10.378   2.339   2.579  2.4937 -0.1247 -2.2403
42393SOL     OW31863   9.786   1.732   4.648  0.2704 -0.4398 -0.3702
42393SOL    HW131864   9.724   1.701   4.714 -0.1340 -0.7282 -0.8780
42393SOL    HW231865   9.870   1.734   4.693 -0.3472  1.5447  0.8374
42394SOL     OW31866  10.636   7.287   4.842  0.7204 -0.0667 -0.0991
42394SOL    HW131867  10.723   7.251   4.825  1.0720  0.8683 -0.2927
42394SOL    HW231868  10.644   7.381   4.826 -0.3208  0.0371 -0.1120
42395SOL     OW31869   1.279   9.089   4.313 -0.3422 -0.1438 -0.1084
42395SOL    HW131870   1.224   9.104   4.390 -0.6209 -1.2643 -0.0671
42395SOL    HW231871   1.222   9.043   4.252  0.1284 -0.0188 -0.6458
42396SOL     OW31872   2.156  11.004   4.416 -0.0987  0.1748  0.6911
42396SOL    HW131873   2.204  11.025   4.496  1.2975  1.5666 -0.4418
42396SOL    HW231874   2.065  11.026   4.435  0.2764  0.8282  1.7838
42397SOL     OW31875   2.193   3.032   0.167  0.1418  0.1678 -0.1978
42397SOL    HW131876   2.164   3.004   0.080  0.7370  3.0363 -1.4168
42397SOL    HW231877   2.111   3.051   0.214 -0.1974  2.4555 -1.5752
42398SOL     OW31878  11.017  10.107   2.819 -0.2072  0.1477 -0.2076
42398SOL    HW131879  10.946  10.155   2.861  1.1096  1.0856  1.0468
42398SOL    HW231880  11.095  10.160   2.836  1.6833 -3.1206  2.7259
42399SOL     OW31881  10.997   4.108   2.463 -0.0208  0.2026 -0.4280
42399SOL    HW131882  11.057   4.137   2.532  2.8603 -1.5264 -1.9753
42399SOL    HW231883  10.971   4.020   2.490 -0.4202  0.2478 -0.6596
42400SOL     OW31884   9.991   0.956  11.084 -0.0494  0.6084  0.0137
42400SOL    HW131885  10.008   0.927  10.994  0.9291 -1.0989  0.7250
42400SOL    HW231886   9.896   0.967  11.087 -0.0431  1.3099 -1.3973
42401SOL     OW31887   3.715   9.578   0.285 -0.1002  0.1411  0.2557
42401SOL    HW131888   3.717   9.482   0.282  1.2055  0.1743 -1.5404
42401SOL    HW231889   3.710   9.605   0.194  1.0950  1.7891  0.6211
42402SOL     OW31890   7.898  11.963   6.736  0.2386 -0.0639 -0.1117
42402SOL    HW131891   7.928  11.872   6.733  1.2786  0.2446  0.3967
42402SOL    HW231892   7.974  12.014   6.709 -0.3634  0.6591 -0.4794
42403SOL     OW31893   8.408   8.526   2.197 -0.2703  0.2010  0.3299
42403SOL    HW131894   8.436   8.508   2.107 -1.0022  0.8467 -0.0444
42403SOL    HW231895   8.323   8.483   2.205 -0.4290  0.5501  0.5556
42404SOL     OW31896   0.982   2.565   4.494  0.1776  0.4959 -0.4223
42404SOL    HW131897   0.899   2.598   4.527  0.1273  0.1611 -0.2035
42404SOL    HW231898   0.966   2.472   4.478  0.5467  0.4034 -0.2609
42405SOL     OW31899   9.015   1.861   5.656  0.4798  0.2466  0.3098
42405SOL    HW131900   8.969   1.864   5.572  0.2544  0.2909  0.4347
42405SOL    HW231901   8.948   1.837   5.720  0.9213 -1.1670  0.2809
42406SOL     OW31902   5.829   9.342   8.011  0.4467  0.1353 -0.2019
42406SOL    HW131903   5.816   9.264   7.957  1.1402  0.3852 -0.7465
42406SOL    HW231904   5.770   9.407   7.974  0.5723  0.1581 -0.3673
42407SOL     OW31905  11.405  11.296   1.993  0.2715  0.3844  0.2712
42407SOL    HW131906  11.324  11.266   1.952  0.0088  0.1620  0.9322
42407SOL    HW231907  11.451  11.215   2.017 -0.8770  0.4159  2.9347
42408SOL     OW31908  11.159   7.847  10.313 -0.2636  0.2045  0.1247
42408SOL    HW131909  11.225   7.834  10.382  1.1665  1.8339 -0.8424
42408SOL    HW231910  11.210   7.872  10.236 -1.9420  0.0015 -1.1045
42409SOL     OW31911   2.819   5.114  11.113  0.7944 -0.8507  0.3031
42409SOL    HW131912   2.796   5.191  11.061  1.0890 -2.7227 -2.8809
42409SOL    HW231913   2.815   5.144  11.203  0.3746  2.7192 -0.7426
42410SOL     OW31914  10.793   3.626   7.471 -0.3245  0.0995 -0.4931
42410SOL    HW131915  10.865   3.679   7.438  0.4026 -1.0072 -0.7241
42410SOL    HW231916  10.753   3.680   7.539  2.5716 -0.3904  1.7971
42411SOL     OW31917   3.733   5.768   8.438  0.3820 -0.0656 -0.5130
42411SOL    HW131918   3.733   5.679   8.472  0.0838  0.4631  0.9263
42411SOL    HW231919   3.770   5.760   8.350 -2.0346 -1.9819 -1.4777
42412SOL     OW31920  11.418   1.076   8.905 -0.0107 -0.1375 -0.0934
42412SOL    HW131921  11.385   1.140   8.843  2.4678  1.0792 -0.2747
42412SOL    HW231922  11.465   1.012   8.852 -1.0123 -1.2137  0.2496
42413SOL     OW31923   5.967   2.065   9.152 -0.0011  0.5821 -0.0117
42413SOL    HW131924   5.935   2.011   9.080 -0.3963 -0.4846  0.9437
42413SOL    HW231925   5.887   2.101   9.192  0.1005 -0.2617  0.9773
42414SOL     OW31926   7.307  10.285   3.225  1.4248  0.0203 -0.0901
42414SOL    HW131927   7.247  10.220   3.189  0.3383  0.2945  1.1860
42414SOL    HW231928   7.250  10.353   3.262  2.5305  0.8754  0.1017
42415SOL     OW31929   0.237   7.449  11.664  0.1333 -0.1294  0.1465
42415SOL    HW131930   0.159   7.457  11.609  0.1406 -0.5351  0.0752
42415SOL    HW231931   0.230   7.363  11.704  0.2935  0.0341  0.5353
42416SOL     OW31932  11.273   9.831   6.180  0.0029 -0.1693 -0.1230
42416SOL    HW131933  11.224   9.852   6.260 -0.3620 -0.1519 -0.3472
42416SOL    HW231934  11.328   9.757   6.204  0.3429  0.2188  0.3172
42417SOL     OW31935   2.502  10.172   3.595 -0.4280  0.3494 -0.5669
42417SOL    HW131936   2.587  10.195   3.634 -0.0025 -0.2735 -1.0936
42417SOL    HW231937   2.485  10.242   3.532  0.2014 -0.0215 -1.1807
42418SOL     OW31938   3.924   1.119   1.979 -0.2316  0.3564  0.3497
42418SOL    HW131939   3.930   1.024   1.963  0.8625  0.1429  1.8020
42418SOL    HW231940   3.966   1.159   1.903  0.3969 -0.3850  0.2962
42419SOL     OW31941   0.936   8.621   3.957 -0.5279  0.4515 -0.1921
42419SOL    HW131942   0.907   8.693   4.013 -2.2271 -0.9208  0.7672
42419SOL    HW231943   0.897   8.640   3.872 -1.9239  0.1249  0.3462
42420SOL     OW31944   5.239   1.213   3.313 -0.1551 -0.1653 -0.4609
42420SOL    HW131945   5.230   1.242   3.223 -1.8451  0.0268 -0.2517
42420SOL    HW231946   5.154   1.229   3.353  0.9985  1.3148  1.6321
42421SOL     OW31947   5.020  10.025   7.019  0.1890 -0.2058 -0.0293
42421SOL    HW131948   4.937  10.031   6.971  1.3350  0.5220 -2.0544
42421SOL    HW231949   4.994  10.019   7.111 -2.0882  0.9061 -0.5148
42422SOL     OW31950  10.753   2.868   8.368  0.3102  0.4180 -0.5681
42422SOL    HW131951  10.693   2.814   8.316  0.5866 -1.5100  1.0061
42422SOL    HW231952  10.697   2.907   8.435  0.5428 -0.2067  0.0038
42423SOL     OW31953   4.080   5.756   4.276  0.2997  0.6242  0.6242
42423SOL    HW131954   4.175   5.761   4.274  0.3183 -0.0777 -0.7073
42423SOL    HW231955   4.059   5.665   4.257 -0.6591  0.9234  0.1539
42424SOL     OW31956  11.407  10.583  11.671  0.1481 -0.6279 -0.3961
42424SOL    HW131957  11.370  10.671  11.685 -0.5854 -1.2958  2.6893
42424SOL    HW231958  11.354  10.546  11.601 -0.9232  0.6639 -0.3126
42425SOL     OW31959  11.497   4.568   9.594 -0.5378 -0.7084 -0.3294
42425SOL    HW131960  11.474   4.572   9.686  0.4582  1.1095 -0.1016
42425SOL    HW231961  11.548   4.488   9.584 -1.0399 -1.1497  0.5828
42426SOL     OW31962   5.549   6.294   7.186 -0.4519 -0.0324  0.0633
42426SOL    HW131963   5.535   6.272   7.094  1.0521 -1.8247  0.2029
42426SOL    HW231964   5.551   6.210   7.232  3.2469  0.3449  0.9908
42427SOL     OW31965   2.309   2.856  10.648  0.3799 -1.0303 -0.4957
42427SOL    HW131966   2.291   2.835  10.556  2.2205 -0.5449 -1.0026
42427SOL    HW231967   2.336   2.948  10.646  0.0861 -0.9072  0.6005
42428SOL     OW31968   4.751   1.217   0.940  0.4293 -0.2490  0.2994
42428SOL    HW131969   4.812   1.166   0.993  0.0186  0.7483  1.8118
42428SOL    HW231970   4.792   1.303   0.931  0.5882 -0.4688 -1.2202
42429SOL     OW31971   1.910  11.699   2.882  0.1604  0.2145 -0.0898
42429SOL    HW131972   1.998  11.737   2.878 -0.2170  1.0006 -1.6974
42429SOL    HW231973   1.897  11.659   2.796 -1.3024  0.7128 -0.1232
42430SOL     OW31974   3.218  11.064  11.658  0.3830 -0.1990  0.1282
42430SOL    HW131975   3.225  10.983  11.709  0.4780  0.0013  0.4368
42430SOL    HW231976   3.174  11.038  11.577  1.6383 -0.8310 -0.3795
42431SOL     OW31977   4.252   2.958   7.191 -0.2108  0.0889  0.8138
42431SOL    HW131978   4.287   2.869   7.185 -1.3875 -0.3265 -2.4737
42431SOL    HW231979   4.313   3.005   7.248  4.1521 -1.2734 -2.1923
42432SOL     OW31980   9.815  11.408   7.762 -0.0694 -0.1455 -0.1791
42432SOL    HW131981   9.802  11.334   7.822  0.4812 -0.5159 -0.5107
42432SOL    HW231982   9.873  11.468   7.808 -0.3024 -0.0409 -0.0184
42433SOL     OW31983   3.096   6.660  11.772 -0.2223  0.0940  0.1585
42433SOL    HW131984   3.021   6.709  11.807  0.4212  0.6383  0.8063
42433SOL    HW231985   3.058   6.577  11.743 -0.6116 -1.1568  3.7091
42434SOL     OW31986   5.465   4.934   2.791 -0.0370 -0.3189  0.0865
42434SOL    HW131987   5.394   4.871   2.805 -0.3742  0.1604  0.5855
42434SOL    HW231988   5.532   4.885   2.745 -0.7627 -0.7384 -0.5445
42435SOL     OW31989  10.144   3.519  11.216 -0.1561  0.4490  0.2484
42435SOL    HW131990  10.118   3.495  11.304 -0.0508 -3.3700 -0.5741
42435SOL    HW231991  10.087   3.593  11.193 -3.5240 -1.4160  1.8882
42436SOL     OW31992   9.596   1.911   2.951 -0.1903 -0.3717 -0.6805
42436SOL    HW131993   9.681   1.936   2.916 -0.6817 -0.1130 -1.7137
42436SOL    HW231994   9.607   1.819   2.975  0.5994 -0.1328 -0.0674
42437SOL     OW31995   2.766   0.803   2.784  0.5681  0.2707 -0.4103
42437SOL    HW131996   2.798   0.893   2.792 -0.1985  0.7205 -2.0270
42437SOL    HW231997   2.811   0.769   2.707  1.0733 -0.8528  0.3621
42438SOL     OW31998   4.600   5.708  10.975  0.1308 -0.3486 -0.9227
42438SOL    HW131999   4.567   5.629  11.017 -1.8055 -0.1348 -1.9056
42438SOL    HW232000   4.524   5.745  10.930  0.1648  3.6723  1.8157
42439SOL     OW32001  11.550   5.758   6.203  0.0837 -0.1224 -0.1043
42439SOL    HW132002  11.597   5.797   6.129  1.5231  0.3928  1.0261
42439SOL    HW232003  11.567   5.818   6.276 -2.2684  0.0079  0.3927
42440SOL     OW32004   2.798   7.328   0.645  0.5205 -0.4997  0.4775
42440SOL    HW132005   2.773   7.236   0.654 -1.1638 -0.0817  0.3970
42440SOL    HW232006   2.872   7.339   0.704  0.8252 -1.9277  0.3959
42441SOL     OW32007  11.705   6.201   2.570  0.2983  0.1799  0.1550
42441SOL    HW132008  11.648   6.126   2.583 -0.1930  0.5065 -0.0590
42441SOL    HW232009  11.649   6.267   2.529  0.7120  0.6684  0.3558
42442SOL     OW32010   0.460   4.696   5.400 -0.3756 -0.3479 -0.0140
42442SOL    HW132011   0.525   4.644   5.352 -2.3344 -1.1500 -1.9512
42442SOL    HW232012   0.408   4.631   5.447 -0.9345  0.1177  0.0159
42443SOL     OW32013   0.680   2.614   8.365  0.2921 -0.3593  0.1714
42443SOL    HW132014   0.611   2.632   8.301  0.7996 -1.0401 -0.5931
42443SOL    HW232015   0.633   2.594   8.446 -0.3935 -0.4330 -0.2337
42444SOL     OW32016   8.928   4.366   2.457 -0.9041  0.9154  0.9546
42444SOL    HW132017   8.905   4.320   2.538 -1.6096 -0.0093  0.2544
42444SOL    HW232018   8.861   4.433   2.447 -0.3234  1.6033  1.5691
42445SOL     OW32019  10.728   8.248   7.210 -0.8981 -0.4285  0.0684
42445SOL    HW132020  10.708   8.239   7.116 -2.6085 -0.4987  0.4015
42445SOL    HW232021  10.770   8.165   7.234  0.0977 -0.1782 -0.7430
42446SOL     OW32022  11.701   9.700   7.234 -0.7049  0.3038  0.3608
42446SOL    HW132023  11.664   9.757   7.167  2.5241  1.8441 -0.2951
42446SOL    HW232024  11.790   9.684   7.204 -0.5398 -2.6583  2.1130
42447SOL     OW32025   4.255   0.865   4.078 -0.4622  0.2723  0.1033
42447SOL    HW132026   4.342   0.834   4.052 -0.2122  1.3416 -0.3973
42447SOL    HW232027   4.272   0.951   4.118 -1.0768 -0.3789  1.8481
42448SOL     OW32028   4.103   8.998  11.950 -0.0271  0.1858 -0.7930
42448SOL    HW132029   4.168   8.938  11.987 -0.4176 -0.0289 -0.4420
42448SOL    HW232030   4.132   9.013  11.860 -0.1770 -0.9110 -1.0447
42449SOL     OW32031   1.957   4.823   9.894  0.0087  0.5120 -0.0052
42449SOL    HW132032   1.933   4.910   9.928 -2.3233  0.1415 -0.5256
42449SOL    HW232033   2.000   4.780   9.967 -1.7616  0.9714  1.3795
42450SOL     OW32034   8.409   7.030   0.565  0.4058 -0.0821 -0.5449
42450SOL    HW132035   8.412   7.031   0.469 -0.1365 -1.8244 -0.6133
42450SOL    HW232036   8.466   6.957   0.590  0.3002  0.1609  0.4491
42451SOL     OW32037   9.572   9.666   4.641 -0.8192 -0.1155 -0.5158
42451SOL    HW132038   9.637   9.609   4.681 -1.0083 -0.5190 -0.7851
42451SOL    HW232039   9.591   9.664   4.547 -1.0640 -0.0426 -0.5690
42452SOL     OW32040   0.270   7.885   0.273 -0.2156  0.0931 -0.1483
42452SOL    HW132041   0.213   7.808   0.271  1.3070 -1.1066  0.1731
42452SOL    HW232042   0.219   7.954   0.231 -2.0943 -0.7529  0.6438
42453SOL     OW32043   1.859   3.030   6.145 -0.1811  0.1963  0.2719
42453SOL    HW132044   1.779   2.986   6.114  0.3780  0.1582 -1.2085
42453SOL    HW232045   1.881   2.986   6.226 -0.7255 -0.9455 -0.1771
42454SOL     OW32046   0.416   0.032   7.622 -0.5368 -0.2340 -0.6020
42454SOL    HW132047   0.380  -0.052   7.595  1.2280 -1.0807 -0.4199
42454SOL    HW232048   0.393   0.038   7.715 -0.0722 -0.8455 -0.4421
42455SOL     OW32049   1.330  11.205   9.784 -0.5375  0.3396  0.3379
42455SOL    HW132050   1.273  11.186   9.858 -3.2734  2.1483 -1.1246
42455SOL    HW232051   1.271  11.232   9.714  1.7100 -2.6052 -3.1120
42456SOL     OW32052   8.662   3.382   6.237  0.4005 -0.3073  0.6012
42456SOL    HW132053   8.603   3.364   6.164  1.5274 -0.6704 -0.2370
42456SOL    HW232054   8.675   3.477   6.234 -1.6398  0.1110  2.0100
42457SOL     OW32055  10.526   0.760   7.429  0.3112  0.9479  0.3896
42457SOL    HW132056  10.573   0.770   7.512 -1.1821  0.6168  1.3387
42457SOL    HW232057  10.566   0.683   7.388  1.3942  1.4030  0.5624
42458SOL     OW32058  11.035   2.690  10.770  0.4800  0.2429  0.7512
42458SOL    HW132059  11.053   2.670  10.678 -2.0925  1.5647 -0.1404
42458SOL    HW232060  10.989   2.612  10.802 -2.9297  1.5031 -0.5936
42459SOL     OW32061   6.121   9.098   7.694  0.3232  0.7537 -0.3356
42459SOL    HW132062   6.149   9.165   7.632  0.7967  1.6337  0.8008
42459SOL    HW232063   6.154   9.128   7.778  0.1048 -0.6635  0.2792
42460SOL     OW32064   0.517   6.394   7.951  0.2311  0.8235  0.0678
42460SOL    HW132065   0.481   6.427   7.868  1.9917 -1.0382 -1.5677
42460SOL    HW232066   0.443   6.395   8.012 -1.4193  1.2655 -1.8374
42461SOL     OW32067   2.899   1.072   6.894  0.0399  0.0840 -0.6207
42461SOL    HW132068   2.857   1.000   6.846  0.2589 -1.4643  1.3796
42461SOL    HW232069   2.865   1.151   6.853 -0.5832 -1.1408 -2.5985
42462SOL     OW32070   4.196   3.403   6.195 -0.0843  0.0132 -0.1049
42462SOL    HW132071   4.131   3.348   6.152  0.1549 -0.1535 -0.2619
42462SOL    HW232072   4.156   3.428   6.279 -0.0262 -0.7549  0.1561
42463SOL     OW32073   0.940   5.940   1.737  0.0430 -0.2255  0.5637
42463SOL    HW132074   0.944   5.961   1.830 -0.7797 -1.6237  0.9610
42463SOL    HW232075   0.988   5.857   1.729 -0.0580 -0.2212 -0.2078
42464SOL     OW32076   9.203   1.629   4.919  0.0037  0.0459 -0.4238
42464SOL    HW132077   9.154   1.669   4.847 -0.2657  1.8964  0.7135
42464SOL    HW232078   9.150   1.553   4.944 -2.7360  2.2197  1.0649
42465SOL     OW32079   4.517  11.475  11.562  0.9113 -0.9383  0.2053
42465SOL    HW132080   4.553  11.388  11.546  0.7278 -1.5723  2.7947
42465SOL    HW232081   4.554  11.501  11.647  0.5093  1.2700 -0.2468
42466SOL     OW32082   7.675  11.284   5.403  0.0350  0.3385 -0.1914
42466SOL    HW132083   7.612  11.213   5.388  0.2950 -0.3262  1.5458
42466SOL    HW232084   7.753  11.239   5.435  1.4260  1.1607 -2.2636
42467SOL     OW32085   4.275   1.262   0.930 -0.1764 -0.0692  0.0260
42467SOL    HW132086   4.205   1.322   0.906  1.6738  1.9079 -0.8341
42467SOL    HW232087   4.293   1.213   0.850  0.9794  1.1676 -0.5136
42468SOL     OW32088   9.066   0.114   7.108 -0.8742 -0.5151 -0.8817
42468SOL    HW132089   9.113   0.177   7.162 -1.7349  0.9420 -1.7491
42468SOL    HW232090   9.130   0.044   7.091  1.0140  1.3224 -1.9444
42469SOL     OW32091  10.801   5.060   4.715 -0.3339 -0.5984 -0.5982
42469SOL    HW132092  10.726   5.079   4.658  0.7482  1.6355 -1.3966
42469SOL    HW232093  10.833   5.146   4.741  2.4902 -1.4261 -1.0084
42470SOL     OW32094   1.354   5.798  10.315 -0.2568 -0.7626 -0.7755
42470SOL    HW132095   1.295   5.868  10.341 -0.2587 -0.7246 -0.8808
42470SOL    HW232096   1.437   5.841  10.295 -0.0460 -0.8722 -0.1566
42471SOL     OW32097   5.679  10.390  10.454 -0.7830 -0.7359  0.0475
42471SOL    HW132098   5.595  10.368  10.494 -0.1227 -0.3090  1.7464
42471SOL    HW232099   5.739  10.399  10.528  0.7781 -1.0660 -1.1331
42472SOL     OW32100   5.230   1.773   1.657 -0.0196  0.0412  0.5146
42472SOL    HW132101   5.211   1.698   1.714 -0.4745 -0.3411 -0.1300
42472SOL    HW232102   5.177   1.844   1.694 -1.2392 -0.5112 -0.1027
42473SOL     OW32103   9.374   4.183   7.983 -0.4494 -0.1077 -0.2236
42473SOL    HW132104   9.383   4.107   7.926  1.6304  0.0316 -0.1484
42473SOL    HW232105   9.381   4.148   8.072 -0.6688  0.0456 -0.1436
42474SOL     OW32106   2.659   7.217   5.236 -0.1465  0.3800 -0.0632
42474SOL    HW132107   2.565   7.223   5.251 -0.1032  1.5084 -0.1952
42474SOL    HW232108   2.686   7.306   5.214  0.8730 -0.0206 -0.4972
42475SOL     OW32109   8.937   0.689   3.786 -0.5842  0.5588 -0.4392
42475SOL    HW132110   9.009   0.751   3.771 -0.6722  1.0223  0.8695
42475SOL    HW232111   8.961   0.611   3.735 -0.4847  1.6597 -2.1322
42476SOL     OW32112   1.617  11.344  11.630  0.3331  0.0763  0.1603
42476SOL    HW132113   1.696  11.306  11.667  0.0939 -1.9466 -1.2458
42476SOL    HW232114   1.642  11.371  11.541 -0.5602 -0.7085 -0.3471
42477SOL     OW32115   9.774   0.960   4.792 -0.1939 -0.1353  0.5633
42477SOL    HW132116   9.745   0.947   4.882  1.6357  0.7163  1.3397
42477SOL    HW232117   9.859   0.915   4.788 -0.0866  0.1319 -0.6436
42478SOL     OW32118   1.194   6.480   5.330  0.1413  0.4722 -0.3471
42478SOL    HW132119   1.181   6.509   5.420  2.6075  1.4035 -0.2057
42478SOL    HW232120   1.265   6.416   5.335 -0.8645 -0.7706 -1.4477
42479SOL     OW32121   5.361   3.209   0.824 -0.0564 -0.2072 -0.0859
42479SOL    HW132122   5.271   3.228   0.798 -0.5941 -1.7118  0.6233
42479SOL    HW232123   5.374   3.258   0.905 -0.6393 -0.9275  0.4478
42480SOL     OW32124   4.213   0.323  10.987  0.8732 -0.4777 -0.0365
42480SOL    HW132125   4.264   0.371  11.052 -0.1424  0.6731 -0.0402
42480SOL    HW232126   4.139   0.287  11.037 -0.1053  0.7083 -0.5668
42481SOL     OW32127   4.324   0.831   7.828 -0.6728 -0.8963 -1.0113
42481SOL    HW132128   4.385   0.768   7.788 -0.9778 -1.4967 -0.5341
42481SOL    HW232129   4.296   0.886   7.755 -1.1050 -1.8845 -1.6069
42482SOL     OW32130   7.208   2.848   4.587  0.5289  0.3482 -0.1969
42482SOL    HW132131   7.237   2.845   4.496  0.3939  1.0767 -0.2732
42482SOL    HW232132   7.159   2.766   4.599 -0.9339  0.9953 -1.3029
42483SOL     OW32133   4.438  11.900   7.393 -0.0408 -0.2995 -0.4763
42483SOL    HW132134   4.407  11.899   7.303  0.3794  1.0333 -0.6595
42483SOL    HW232135   4.400  11.821   7.433 -3.6685  1.1661 -0.6473
42484SOL     OW32136   4.803   8.732   9.034 -0.4486  0.2535  0.2157
42484SOL    HW132137   4.786   8.774   8.950  0.5609 -0.5049 -0.3915
42484SOL    HW232138   4.786   8.800   9.099 -2.0498  0.6072 -0.5374
42485SOL     OW32139   7.075   3.011   2.586 -0.5564 -0.0075 -0.2448
42485SOL    HW132140   7.005   2.969   2.636 -1.0571  1.0411 -0.0501
42485SOL    HW232141   7.072   3.103   2.612 -1.0581  0.6626 -2.4671
42486SOL     OW32142   3.595   1.569   8.404 -0.7960  0.0991  0.2877
42486SOL    HW132143   3.621   1.555   8.495  0.8622 -1.1336 -0.3204
42486SOL    HW232144   3.526   1.506   8.387  0.7807 -1.6339 -0.0245
42487SOL     OW32145   4.160  11.876   8.580  0.4879 -0.0518  0.0530
42487SOL    HW132146   4.166  11.813   8.509  0.1330  0.1680 -0.1737
42487SOL    HW232147   4.242  11.926   8.575  0.1954  0.3708 -0.5885
42488SOL     OW32148   4.629   4.904   5.976 -0.0312 -0.2938  0.1040
42488SOL    HW132149   4.691   4.878   6.044  0.5264  0.0048 -0.2802
42488SOL    HW232150   4.547   4.920   6.023  0.8586  1.9155  1.0231
42489SOL     OW32151   5.803   0.948   6.246 -0.2212  0.2745  0.4661
42489SOL    HW132152   5.860   0.993   6.309 -0.1558  2.6062 -1.1390
42489SOL    HW232153   5.723   1.001   6.245 -0.8127 -0.6167 -0.3031
42490SOL     OW32154   0.450   5.407   5.692  0.7447 -0.0460 -0.3101
42490SOL    HW132155   0.523   5.361   5.650 -0.2562 -0.6498 -1.4588
42490SOL    HW232156   0.375   5.385   5.638 -0.0762  1.5818  0.1328
42491SOL     OW32157  11.951   6.128   2.360 -0.3616  0.5897  0.5176
42491SOL    HW132158  12.046   6.119   2.365 -0.3852 -0.1335 -0.1249
42491SOL    HW232159  11.937   6.192   2.290 -0.3752 -0.6551 -0.6503
42492SOL     OW32160   8.076   7.803   5.586  0.3673 -0.5737 -0.5351
42492SOL    HW132161   8.165   7.778   5.610 -0.0751  0.4499  2.6135
42492SOL    HW232162   8.079   7.899   5.581 -0.4557 -0.5603 -0.9108
42493SOL     OW32163   0.166   6.179   5.594  0.2286  0.1055  0.1820
42493SOL    HW132164   0.151   6.086   5.573 -0.9910  0.3093  0.0847
42493SOL    HW232165   0.162   6.182   5.690  0.8365 -0.0215  0.2181
42494SOL     OW32166  10.777   8.049   0.510  0.3029 -0.3050  0.4006
42494SOL    HW132167  10.726   8.130   0.503  0.5604 -0.2307 -1.1115
42494SOL    HW232168  10.864   8.073   0.477  0.8146 -0.8477  1.3218
42495SOL     OW32169   4.536   8.684   8.069  0.4903  0.2153  0.5103
42495SOL    HW132170   4.512   8.642   7.986  0.1179 -0.5457  0.9812
42495SOL    HW232171   4.578   8.766   8.044 -0.1917  0.3017 -0.4168
42496SOL     OW32172   4.842   1.828   6.171  0.2875 -0.3660  0.4424
42496SOL    HW132173   4.867   1.920   6.181  2.0728 -0.3714 -2.6492
42496SOL    HW232174   4.916   1.779   6.206 -0.5305 -0.6560  1.8132
42497SOL     OW32175   1.463   5.438   2.929  0.1806  0.6277 -0.2053
42497SOL    HW132176   1.462   5.496   2.852  0.0852  0.4376 -0.3486
42497SOL    HW232177   1.556   5.418   2.942  0.1586  0.2244 -0.6086
42498SOL     OW32178   3.974   4.097   4.944  0.2604 -0.3717 -0.0223
42498SOL    HW132179   4.038   4.082   5.013 -1.0108 -1.3351  1.0049
42498SOL    HW232180   3.919   4.168   4.979  0.2994 -0.0718 -0.5609
42499SOL     OW32181  11.427  11.826   0.660  0.3167  0.5072  0.2799
42499SOL    HW132182  11.349  11.865   0.621 -0.5764 -1.0758  0.4189
42499SOL    HW232183  11.448  11.751   0.604  0.4569 -0.3545  1.4492
42500SOL     OW32184   2.900   6.866   6.046 -0.0504 -0.4577 -0.3454
42500SOL    HW132185   2.849   6.938   6.009  2.4910  1.0306 -1.1986
42500SOL    HW232186   2.858   6.787   6.011 -1.1109  0.7098 -1.8737
42501SOL     OW32187   3.759   9.369   9.251 -0.4759 -0.3363  0.4396
42501SOL    HW132188   3.742   9.396   9.161 -1.5950 -0.0586  0.7145
42501SOL    HW232189   3.852   9.346   9.253 -0.3125  0.1935 -0.6407
42502SOL     OW32190   1.838   0.955  11.524  0.0536 -0.4018  0.2380
42502SOL    HW132191   1.914   0.908  11.560 -0.2667  0.7008  2.4960
42502SOL    HW232192   1.774   0.955  11.594 -0.6506  1.8002 -0.3255
42503SOL     OW32193   0.830   0.561   0.673 -0.6439 -0.4574 -0.6293
42503SOL    HW132194   0.763   0.629   0.679 -1.1544 -0.9442 -0.7594
42503SOL    HW232195   0.802   0.506   0.600 -0.0622 -0.6272 -0.7282
42504SOL     OW32196   6.084   0.886   2.814 -0.0251  0.1068 -0.1668
42504SOL    HW132197   6.086   0.794   2.788  1.3660  0.0209  0.1719
42504SOL    HW232198   6.148   0.893   2.885 -0.9130  1.1182  0.5767
42505SOL     OW32199   1.055   7.308   9.650 -0.0296 -0.0805 -0.2599
42505SOL    HW132200   0.996   7.235   9.671  2.2082 -2.0672 -0.4289
42505SOL    HW232201   1.140   7.280   9.683  1.1738  1.9508 -1.4423
42506SOL     OW32202   4.257   1.579   0.243 -0.0445 -0.1203  0.0160
42506SOL    HW132203   4.207   1.523   0.302 -0.1972  1.1084  1.0983
42506SOL    HW232204   4.289   1.650   0.299  0.5324  0.6225 -1.2155
42507SOL     OW32205   7.528   3.492   6.474 -0.0671  0.0574  0.2308
42507SOL    HW132206   7.592   3.555   6.507  1.4200 -1.9446  1.4113
42507SOL    HW232207   7.548   3.484   6.381  1.3536 -0.3838  0.5388
42508SOL     OW32208   5.302   1.314   4.872  0.2474 -0.5583 -0.5209
42508SOL    HW132209   5.389   1.275   4.871  0.8940  0.7375  0.7498
42508SOL    HW232210   5.314   1.402   4.835 -0.5061 -0.3583 -0.3171
42509SOL     OW32211   4.958  11.421   9.842 -0.6521 -0.2406 -0.3709
42509SOL    HW132212   5.025  11.440   9.908 -1.4514 -1.4277  0.8194
42509SOL    HW232213   4.898  11.495   9.847 -0.4037 -0.0479 -0.1768
42510SOL     OW32214   8.296  11.015   7.167 -0.5634 -0.2552  0.2151
42510SOL    HW132215   8.359  11.083   7.192 -0.4697  0.6143 -2.1816
42510SOL    HW232216   8.346  10.955   7.113 -1.5460 -0.0738 -0.9300
42511SOL     OW32217   1.060   7.002   3.237  0.0561 -0.0736 -0.1473
42511SOL    HW132218   1.012   6.975   3.316  1.4480  0.6986  1.0055
42511SOL    HW232219   1.122   6.931   3.221  0.2688  0.1026 -0.1096
42512SOL     OW32220  10.706   4.350   2.122 -0.0665 -0.3597 -0.0649
42512SOL    HW132221  10.720   4.310   2.208  1.4198 -0.4786 -0.3532
42512SOL    HW232222  10.707   4.444   2.139  1.0059 -0.3672 -0.0596
42513SOL     OW32223   9.162  10.335   0.399  0.4297 -0.4846  0.4864
42513SOL    HW132224   9.081  10.320   0.351  0.3730 -0.7096  0.6552
42513SOL    HW232225   9.229  10.290   0.347  1.1733  2.9309 -1.8883
42514SOL     OW32226   2.397   9.295   2.292 -0.5093 -0.0624  0.8282
42514SOL    HW132227   2.331   9.359   2.319  0.9340  2.6011 -1.3884
42514SOL    HW232228   2.469   9.308   2.354  0.7549  2.3996 -0.9636
42515SOL     OW32229   0.890   8.062   2.170 -0.1242  0.2200  0.2724
42515SOL    HW132230   0.907   8.105   2.254  0.6416  0.2446  0.1109
42515SOL    HW232231   0.806   8.097   2.141  0.8839  2.3032 -0.2866
42516SOL     OW32232   9.235   6.801  11.658 -0.1231 -0.0121 -0.3023
42516SOL    HW132233   9.173   6.742  11.701  1.7481 -0.8477  1.4324
42516SOL    HW232234   9.242   6.875  11.718  1.6752 -0.6697  0.3737
42517SOL     OW32235  11.313   5.260   1.253 -0.0552 -0.4249  0.5008
42517SOL    HW132236  11.332   5.321   1.182  1.6146  1.4969  2.4430
42517SOL    HW232237  11.220   5.274   1.273 -0.3991 -0.6132 -0.9051
42518SOL     OW32238  10.760   2.503   6.588 -0.4266  0.0902 -0.0034
42518SOL    HW132239  10.802   2.527   6.505  0.2603 -2.0862 -0.3536
42518SOL    HW232240  10.785   2.573   6.648 -0.1107  1.2011 -1.3836
42519SOL     OW32241  10.846   2.728  10.096 -0.2974  0.5542 -0.7960
42519SOL    HW132242  10.923   2.720  10.040  0.0548 -1.1479 -0.1442
42519SOL    HW232243  10.816   2.638  10.108 -0.9888  0.9706  0.8884
42520SOL     OW32244   7.738   8.798   5.386 -0.3037 -0.6899 -0.0213
42520SOL    HW132245   7.649   8.827   5.407  0.0517  0.3293  0.1342
42520SOL    HW232246   7.732   8.767   5.296 -0.9609 -1.2723  0.2126
42521SOL     OW32247   8.514   7.425  11.984  0.6080 -0.1206  0.0190
42521SOL    HW132248   8.499   7.392  11.895  0.1667 -0.0737  0.0726
42521SOL    HW232249   8.435   7.399  12.032  0.2500  1.0207  0.0590
42522SOL     OW32250   7.404   4.795  11.569 -0.0843  0.5861 -0.0323
42522SOL    HW132251   7.329   4.851  11.587  0.0636  0.5092  0.8435
42522SOL    HW232252   7.478   4.854  11.566 -0.3085  0.8392 -2.1247
42523SOL     OW32253   9.000   2.179   7.004  0.2428  0.3500  0.1932
42523SOL    HW132254   9.049   2.232   7.067  0.2789  0.4933  0.0435
42523SOL    HW232255   9.024   2.215   6.919  2.5027 -1.6670 -0.1430
42524SOL     OW32256   3.026   4.571   2.621  0.1654 -0.4629 -0.0712
42524SOL    HW132257   2.948   4.624   2.612  0.1648 -0.5602 -0.7066
42524SOL    HW232258   3.098   4.634   2.628  0.1522 -0.3733 -0.6950
42525SOL     OW32259   9.286   2.561   3.936 -0.8036 -0.3078 -0.3001
42525SOL    HW132260   9.376   2.566   3.967 -0.6951  0.3806 -0.7019
42525SOL    HW232261   9.292   2.575   3.841 -1.3990  0.5718 -0.2208
42526SOL     OW32262  10.922   2.644  11.216 -0.0973 -0.1257  0.6979
42526SOL    HW132263  10.928   2.641  11.312  2.2224  0.0876  0.6316
42526SOL    HW232264  10.999   2.595  11.187 -0.5994  0.0824 -1.0608
42527SOL     OW32265   8.503  10.046   1.911  0.2402 -0.0929  0.5240
42527SOL    HW132266   8.447  10.088   1.977  0.5342  1.2477 -0.0550
42527SOL    HW232267   8.493  10.101   1.833  1.4616 -0.5107  0.0610
42528SOL     OW32268   4.593   3.168   0.269  0.4621 -0.2823  0.3854
42528SOL    HW132269   4.499   3.179   0.252  0.2216 -4.0519 -2.2301
42528SOL    HW232270   4.599   3.151   0.363 -1.3200  0.8425  0.7497
42529SOL     OW32271   5.067  11.199   8.543 -0.1649  0.2783 -0.1610
42529SOL    HW132272   5.097  11.201   8.634  2.1829  0.6304 -0.8726
42529SOL    HW232273   5.082  11.287   8.510  1.1953 -0.4066 -1.4960
42530SOL     OW32274   0.645   8.957   8.913  0.0050  0.1200  0.4026
42530SOL    HW132275   0.660   8.889   8.979  1.2137 -0.1232 -0.0935
42530SOL    HW232276   0.715   8.945   8.849 -0.6583  0.8768 -0.5012
42531SOL     OW32277   3.034   3.991  11.156  0.2581  0.0188 -0.1225
42531SOL    HW132278   2.947   3.964  11.186  0.7161 -0.4880  0.8246
42531SOL    HW232279   3.066   4.049  11.225  0.1824  1.2125 -1.0745
42532SOL     OW32280   6.103  10.078  11.043 -0.6041 -0.0073  0.2748
42532SOL    HW132281   6.071  10.014  11.107  1.8695 -1.3388  0.3043
42532SOL    HW232282   6.168  10.030  10.991 -0.8599  1.6723 -1.7519
42533SOL     OW32283   1.407   6.356   8.841  0.2033 -0.1741  0.4225
42533SOL    HW132284   1.363   6.281   8.882 -0.4979 -0.7808 -1.3660
42533SOL    HW232285   1.413   6.421   8.911 -3.9961  0.1367  0.7143
42534SOL     OW32286   9.080   7.161   3.712  0.0421  0.5072  0.3676
42534SOL    HW132287   9.022   7.140   3.786  0.6679 -2.4395  0.1420
42534SOL    HW232288   9.163   7.186   3.753 -0.2372  0.9725  0.6579
42535SOL     OW32289   2.702   8.551  10.718  0.1332 -0.0828 -0.4686
42535SOL    HW132290   2.623   8.520  10.674  0.3742 -1.6079  0.1345
42535SOL    HW232291   2.764   8.567  10.647 -0.4797  0.4787 -0.8905
42536SOL     OW32292  10.577   6.526   1.973 -0.1088 -0.1761 -0.4423
42536SOL    HW132293  10.616   6.568   1.896 -2.3030  0.0124 -1.5527
42536SOL    HW232294  10.547   6.599   2.027 -0.1028 -0.3142 -0.2519
42537SOL     OW32295   1.030   3.322   0.521  0.2729  0.4604 -0.3332
42537SOL    HW132296   1.072   3.389   0.576 -1.1139  0.8140  0.3254
42537SOL    HW232297   1.012   3.368   0.439 -0.0107  0.6873 -0.1461
42538SOL     OW32298   3.521   4.010  10.715  0.1373  0.0466  0.1386
42538SOL    HW132299   3.542   3.948  10.785 -0.1613  0.3359  0.4892
42538SOL    HW232300   3.577   3.984  10.642 -0.1994 -0.8255  0.1804
42539SOL     OW32301  11.534   3.778   5.438  0.0598 -0.3740  0.3897
42539SOL    HW132302  11.491   3.775   5.524  0.1908 -0.3513  0.4555
42539SOL    HW232303  11.523   3.869   5.410 -0.0277 -0.3938  0.3606
42540SOL     OW32304   9.403   0.796   3.884  0.3471 -0.1125  0.0374
42540SOL    HW132305   9.335   0.821   3.822  1.3054  1.6336 -0.3550
42540SOL    HW232306   9.355   0.774   3.964 -0.7666 -0.4231 -0.6919
42541SOL     OW32307   2.104   2.524   8.084 -0.0077 -0.7424 -0.2406
42541SOL    HW132308   2.130   2.441   8.125 -0.8409 -0.5851  0.6467
42541SOL    HW232309   2.131   2.515   7.993 -0.5414 -2.1882 -0.2809
42542SOL     OW32310  10.283   5.708   8.048 -0.6472 -0.1523 -0.3761
42542SOL    HW132311  10.215   5.643   8.033 -0.8487  0.2635 -1.3539
42542SOL    HW232312  10.360   5.673   8.001 -0.5580 -0.0087 -0.3382
42543SOL     OW32313   2.479   9.693   7.268 -0.0219  0.4600  0.6607
42543SOL    HW132314   2.506   9.617   7.216  0.2213 -0.0924  1.5644
42543SOL    HW232315   2.407   9.732   7.219  1.3757  1.0457 -1.0125
42544SOL     OW32316  11.681   2.169   2.142  0.5420 -0.4318  0.3692
42544SOL    HW132317  11.772   2.188   2.164  0.0637  0.8482  1.3912
42544SOL    HW232318  11.675   2.185   2.048  1.5321 -1.3147  0.1314
42545SOL     OW32319   8.305   1.785   4.644 -0.1079  0.2606 -0.5740
42545SOL    HW132320   8.311   1.757   4.552 -0.6543 -2.3268  0.0983
42545SOL    HW232321   8.378   1.740   4.687 -0.1775  1.0246  0.3665
42546SOL     OW32322   2.393   4.361   1.571 -0.2784 -0.4986 -0.0289
42546SOL    HW132323   2.301   4.347   1.548 -0.2888  0.8043 -0.8853
42546SOL    HW232324   2.441   4.322   1.498 -0.2011  0.2152 -0.3621
42547SOL     OW32325   5.202   9.384   8.254 -0.0120  0.2572 -0.1458
42547SOL    HW132326   5.128   9.442   8.269 -0.6070 -0.3710 -0.5985
42547SOL    HW232327   5.218   9.342   8.339  0.2431  0.8572  0.1120
42548SOL     OW32328  10.058   9.898   3.982 -0.1023 -0.1331 -0.1663
42548SOL    HW132329  10.006   9.950   4.043 -0.6439 -0.3533 -0.4252
42548SOL    HW232330  10.059   9.950   3.901 -1.6528 -1.0265 -0.8089
42549SOL     OW32331   9.423   0.811  10.981  0.2342  0.0953 -0.2461
42549SOL    HW132332   9.484   0.827  11.053  0.1887  1.4088 -0.4729
42549SOL    HW232333   9.406   0.717  10.984  0.8136  0.0141  0.9812
42550SOL     OW32334   5.261   8.743  10.647 -0.2973 -0.0836 -0.0613
42550SOL    HW132335   5.258   8.652  10.619 -1.6664  0.6113 -2.4197
42550SOL    HW232336   5.333   8.781  10.596 -0.0336  0.2677  0.5665
42551SOL     OW32337  11.454   8.211  11.652  0.0265  0.6073  0.4774
42551SOL    HW132338  11.429   8.119  11.643  1.1879  0.4316 -1.5570
42551SOL    HW232339  11.406   8.256  11.582  0.9870  1.1869  0.1631
42552SOL     OW32340  11.075   6.949  11.894 -0.8109 -0.0251  0.1860
42552SOL    HW132341  11.025   6.871  11.873 -0.9485  0.0449  0.2477
42552SOL    HW232342  11.078   6.951  11.990  2.2257 -1.8859  0.2752
42553SOL     OW32343  11.121   0.008   9.904  0.3596  0.7306 -0.0962
42553SOL    HW132344  11.114   0.093   9.861  0.7174  1.3203  0.9603
42553SOL    HW232345  11.042   0.002   9.959  0.9376  0.9481  0.7792
42554SOL     OW32346   5.703  10.498   5.593  0.1126 -0.4642 -0.9516
42554SOL    HW132347   5.758  10.573   5.569 -1.4750  0.8400 -0.6853
42554SOL    HW232348   5.631  10.499   5.531 -0.4479 -1.1839 -0.3402
42555SOL     OW32349  10.414   9.357   2.124 -0.2965  0.3546 -0.1328
42555SOL    HW132350  10.360   9.290   2.166  0.3579 -0.0789  0.0340
42555SOL    HW232351  10.488   9.308   2.088 -0.3925  0.8426 -1.0071
42556SOL     OW32352   0.743   3.826   8.548  0.2807 -0.7853 -0.4552
42556SOL    HW132353   0.772   3.771   8.620  1.0046 -1.2215 -1.0700
42556SOL    HW232354   0.808   3.813   8.479  0.1874  0.4394 -0.8068
42557SOL     OW32355  11.092   3.185  11.920 -0.6311  0.6239  0.0761
42557SOL    HW132356  11.033   3.261  11.923 -1.1655  0.2626 -0.9346
42557SOL    HW232357  11.033   3.110  11.928 -0.1042  0.3004  1.0698
42558SOL     OW32358   2.039   4.689   2.812 -0.1714 -0.2794  0.3074
42558SOL    HW132359   2.118   4.682   2.866  0.8765  0.6856 -1.0397
42558SOL    HW232360   2.070   4.679   2.722 -1.4612  0.9086 -0.3101
42559SOL     OW32361   1.810   6.870   9.466  0.2815  0.0165  0.3658
42559SOL    HW132362   1.822   6.912   9.552 -0.4082  1.8826 -0.3881
42559SOL    HW232363   1.716   6.871   9.452  0.3745 -0.4455 -0.3445
42560SOL     OW32364   4.620   6.586   4.094  0.3208  0.2421 -0.5511
42560SOL    HW132365   4.696   6.606   4.148  0.6644 -2.8102  0.2664
42560SOL    HW232366   4.653   6.588   4.004  0.7467  1.2890 -0.3864
42561SOL     OW32367   1.602   6.692   4.555 -1.4237  0.0635  0.3080
42561SOL    HW132368   1.662   6.700   4.629 -1.2383  2.2252  0.0027
42561SOL    HW232369   1.586   6.598   4.546  1.4813 -0.5676  0.7503
42562SOL     OW32370   2.789   3.930   0.907 -0.1708 -0.0707  0.0738
42562SOL    HW132371   2.803   3.841   0.873 -0.1877  0.1503 -0.5244
42562SOL    HW232372   2.761   3.981   0.831 -2.0130  0.0338  0.7505
42563SOL     OW32373   9.076   6.383  10.703 -0.1429 -0.8490  0.0484
42563SOL    HW132374   8.982   6.388  10.683 -0.1617 -1.0950  0.0692
42563SOL    HW232375   9.091   6.291  10.725 -0.1457 -0.5768  1.2934
42564SOL     OW32376   2.022  11.831   6.141 -0.0527 -0.4000  0.3341
42564SOL    HW132377   1.964  11.804   6.069 -0.9100 -0.0432  0.8749
42564SOL    HW232378   1.999  11.772   6.213  0.2960 -0.2845  0.5404
42565SOL     OW32379  11.729   5.675   5.263  0.3196 -0.2876  0.4138
42565SOL    HW132380  11.822   5.662   5.246  0.1957  0.8369 -1.3573
42565SOL    HW232381  11.712   5.765   5.236 -1.2565 -0.4260  0.8506
42566SOL     OW32382   7.055  10.179   5.552  0.6855 -0.3756  0.4020
42566SOL    HW132383   7.044  10.197   5.459  0.1391  0.0172  0.5306
42566SOL    HW232384   7.147  10.199   5.570  0.1123  2.7432  0.5751
42567SOL     OW32385   5.106   3.208   8.318  0.4251 -0.3354  0.2964
42567SOL    HW132386   5.015   3.194   8.293 -0.2167  0.9271  1.7679
42567SOL    HW232387   5.128   3.294   8.284  0.7178 -0.1740  0.8796
42568SOL     OW32388   2.364   9.955   2.152  0.7788 -0.0855  0.1886
42568SOL    HW132389   2.458   9.967   2.136  1.3154 -0.5310  2.6442
42568SOL    HW232390   2.348   9.863   2.132  0.2561  0.4844 -2.5224
42569SOL     OW32391   9.837   0.232   6.703  1.1661  0.0045  0.4466
42569SOL    HW132392   9.862   0.149   6.744  2.0343  0.5239  1.0272
42569SOL    HW232393   9.751   0.252   6.740 -0.0264 -1.6289 -1.2728
42570SOL     OW32394   1.318   7.012   6.409  0.1567  0.0647 -0.3674
42570SOL    HW132395   1.341   7.094   6.452 -0.9054  0.5306 -0.6630
42570SOL    HW232396   1.393   6.955   6.425  1.3221  1.3853 -0.9444
42571SOL     OW32397   0.007   9.671   5.823 -0.0403  0.1547 -0.0842
42571SOL    HW132398  -0.056   9.719   5.769 -1.4818 -2.0801 -0.5117
42571SOL    HW232399   0.030   9.732   5.893 -0.8398  1.8735 -1.2498
42572SOL     OW32400  10.442   6.435   5.760  0.8571 -0.1619 -0.1665
42572SOL    HW132401  10.435   6.465   5.850  0.6670 -0.3556 -0.1153
42572SOL    HW232402  10.506   6.363   5.764 -2.0865 -2.9889  0.5611
42573SOL     OW32403   6.398   8.061   5.558  0.1794  0.0509 -0.2234
42573SOL    HW132404   6.430   8.132   5.612 -1.9122  0.7809  0.1784
42573SOL    HW232405   6.408   8.092   5.468 -0.0563  0.5507 -0.0775
42574SOL     OW32406   4.785   9.277   2.450  0.1118 -0.2861 -0.5609
42574SOL    HW132407   4.772   9.183   2.439  0.3569 -0.3702 -0.1716
42574SOL    HW232408   4.742   9.297   2.534  1.1411 -0.2892 -0.0188
42575SOL     OW32409  10.005   4.778  11.579  0.2582  0.3465 -0.0625
42575SOL    HW132410  10.073   4.819  11.526 -0.3050 -1.1472 -2.0209
42575SOL    HW232411   9.937   4.845  11.586  1.5387  1.5946  1.3150
42576SOL     OW32412   2.858   6.279  11.993  0.2089  0.2917 -0.2002
42576SOL    HW132413   2.942   6.262  12.035 -0.5537 -0.0390  1.2716
42576SOL    HW232414   2.827   6.360  12.033 -1.0353 -0.6032  0.7629
42577SOL     OW32415   0.816   5.166   4.704 -0.6883  0.4566  0.0075
42577SOL    HW132416   0.842   5.075   4.714 -1.8919 -0.2378 -2.3579
42577SOL    HW232417   0.859   5.195   4.623 -1.1087  1.6621  0.1867
42578SOL     OW32418   7.809  11.942  11.794  0.7442 -0.3801  0.4487
42578SOL    HW132419   7.831  11.921  11.703 -1.0986  0.2387 -0.1993
42578SOL    HW232420   7.835  11.865  11.844  1.5650 -0.8318 -0.6288
42579SOL     OW32421   4.050   7.909   5.781 -0.1807  0.1869  0.4292
42579SOL    HW132422   4.127   7.941   5.828 -1.5182  0.9683  2.2143
42579SOL    HW232423   3.997   7.866   5.848 -1.4802  0.0100 -0.6642
42580SOL     OW32424  11.797   2.879  10.039  0.6725 -0.0442 -0.0661
42580SOL    HW132425  11.828   2.789  10.031  2.2022  0.4943 -0.5854
42580SOL    HW232426  11.719   2.873  10.094  0.7724 -1.6698 -0.0532
42581SOL     OW32427   0.326   5.886   7.992 -0.5313  0.4619 -0.2079
42581SOL    HW132428   0.388   5.824   8.031  1.5271 -0.1161 -3.8863
42581SOL    HW232429   0.267   5.909   8.063  3.0872  0.0271  3.2950
42582SOL     OW32430   5.453   3.086   2.029  0.1417  0.1163  0.7328
42582SOL    HW132431   5.421   3.121   1.946  3.5757  1.1395 -0.3233
42582SOL    HW232432   5.401   3.130   2.096 -3.1438 -1.1835 -0.7545
42583SOL     OW32433   3.614   2.529   2.727  0.4909  0.2733 -0.2796
42583SOL    HW132434   3.664   2.490   2.799 -0.1975  0.5388  0.3592
42583SOL    HW232435   3.524   2.499   2.742  0.5478 -0.7884 -1.8186
42584SOL     OW32436   8.269   1.100   4.580 -0.2703 -0.7914  0.3867
42584SOL    HW132437   8.297   1.095   4.488  0.2723  0.9339  0.4096
42584SOL    HW232438   8.347   1.077   4.630 -0.7375 -2.3604  0.4486
42585SOL     OW32439  11.304   9.727   8.659 -0.8001  0.1914 -0.2485
42585SOL    HW132440  11.312   9.783   8.582  0.3938  0.4034  0.0060
42585SOL    HW232441  11.387   9.679   8.663 -0.5867  0.6267  1.2317
42586SOL     OW32442   5.041   0.894   6.979  0.5409  0.3927  0.0857
42586SOL    HW132443   5.001   0.869   7.062  2.0064 -0.8937  0.4516
42586SOL    HW232444   4.998   0.977   6.955 -0.0983  0.6413  1.9626
42587SOL     OW32445  11.789   0.912   2.643  0.3806  0.2642 -0.5806
42587SOL    HW132446  11.804   0.846   2.576  1.1147 -0.9454  0.7172
42587SOL    HW232447  11.695   0.907   2.661  0.7004 -1.9206  0.9018
42588SOL     OW32448   0.060   8.511   2.758 -0.6425  0.4431 -0.3800
42588SOL    HW132449   0.103   8.427   2.768  0.0279  0.9554  1.4293
42588SOL    HW232450  -0.033   8.491   2.750 -0.4745 -0.4633 -0.0782
42589SOL     OW32451   3.336   6.583   9.334  0.1324  0.4350  0.7654
42589SOL    HW132452   3.330   6.549   9.245 -5.3912  1.1731  0.4966
42589SOL    HW232453   3.383   6.515   9.383 -1.6285 -2.7967 -1.6537
42590SOL     OW32454  10.963   6.479   1.889 -0.7019 -0.2771 -0.0259
42590SOL    HW132455  10.980   6.481   1.795 -1.3978  0.8407 -0.1513
42590SOL    HW232456  10.951   6.386   1.910 -0.0318 -0.5795 -0.9399
42591SOL     OW32457   2.346   6.094   4.193  0.1350 -0.2209  0.0507
42591SOL    HW132458   2.409   6.098   4.264  0.1334  0.4692  0.0132
42591SOL    HW232459   2.301   6.010   4.205  0.2821 -0.2009  0.7325
42592SOL     OW32460   8.858   7.947   5.998  0.0322 -0.2816  0.8622
42592SOL    HW132461   8.922   7.981   6.061 -0.3967 -0.1294  1.2192
42592SOL    HW232462   8.797   7.896   6.051 -0.0999 -0.4884  0.5118
42593SOL     OW32463   6.719   1.687   6.216  0.3631 -0.0305  0.1079
42593SOL    HW132464   6.639   1.656   6.174  0.6446 -0.4759 -0.1109
42593SOL    HW232465   6.747   1.613   6.270  2.1574 -0.9899 -1.9766
42594SOL     OW32466   6.559   4.689   2.210  0.1628 -0.0201  0.4505
42594SOL    HW132467   6.581   4.706   2.119 -0.9145  0.0974  0.2050
42594SOL    HW232468   6.469   4.656   2.208 -0.3718  1.2607  1.5553
42595SOL     OW32469   5.643   0.520   6.150  0.0294 -0.2035  0.1513
42595SOL    HW132470   5.727   0.536   6.107 -0.6414 -0.2817 -1.2221
42595SOL    HW232471   5.587   0.483   6.082 -1.2179  0.1113  0.9629
42596SOL     OW32472   1.433  11.566   5.262  0.2989 -0.3474 -0.4043
42596SOL    HW132473   1.341  11.567   5.235 -0.0031  1.5322  0.5108
42596SOL    HW232474   1.445  11.480   5.303 -1.4957 -0.0546  0.8329
42597SOL     OW32475   6.773   9.031   0.640  0.4508 -0.6035 -0.0938
42597SOL    HW132476   6.865   9.037   0.613  0.4361  0.0624  0.0107
42597SOL    HW232477   6.754   9.114   0.682 -0.1958 -0.7495 -0.0860
42598SOL     OW32478   0.684   5.744   1.961  0.0939  0.0201 -0.1758
42598SOL    HW132479   0.606   5.702   1.998  0.1926 -0.3331 -0.3651
42598SOL    HW232480   0.692   5.826   2.010 -0.8056  0.4060 -0.6379
42599SOL     OW32481   8.565   1.746   2.570 -0.5788 -0.1577  0.5136
42599SOL    HW132482   8.582   1.838   2.591  0.1362 -0.6076  2.0536
42599SOL    HW232483   8.614   1.697   2.635 -3.1566 -1.6269  1.5082
42600SOL     OW32484   9.319   0.390   8.827  0.0149 -0.3020 -0.0275
42600SOL    HW132485   9.401   0.432   8.853  0.5400 -0.2183 -1.6766
42600SOL    HW232486   9.318   0.307   8.876  0.9642 -0.1964  0.1921
42601SOL     OW32487   8.843   4.987   8.616  0.0927 -0.3922  0.3088
42601SOL    HW132488   8.863   4.947   8.532 -2.5192  0.6116 -0.8979
42601SOL    HW232489   8.928   4.998   8.659  1.7845  0.9579 -3.0557
42602SOL     OW32490   9.275   6.465   1.495 -0.1919  0.0278 -0.1321
42602SOL    HW132491   9.249   6.522   1.423 -0.8586 -0.2946 -0.1524
42602SOL    HW232492   9.370   6.454   1.483 -0.1517  0.6603 -0.4588
42603SOL     OW32493   2.616   2.933   8.574 -0.1347  0.4339 -0.2473
42603SOL    HW132494   2.611   3.006   8.512  0.2773  0.7789  0.1128
42603SOL    HW232495   2.703   2.896   8.559  0.2896  1.0247  0.6703
42604SOL     OW32496   6.996   0.741  11.682  0.5573  0.3045  0.4847
42604SOL    HW132497   6.958   0.658  11.711 -1.9889  0.8196 -1.0958
42604SOL    HW232498   7.089   0.734  11.704  1.2932 -4.5196 -2.8434
42605SOL     OW32499   2.377  11.381  10.200 -0.4114 -0.3868 -0.3207
42605SOL    HW132500   2.431  11.339  10.133 -1.4334 -1.5819 -0.4388
42605SOL    HW232501   2.435  11.390  10.276  1.2301  2.3818 -1.7700
42606SOL     OW32502  11.563   7.567   6.418  1.0935  0.4177 -0.5224
42606SOL    HW132503  11.563   7.472   6.421  2.9380  0.3580 -1.1976
42606SOL    HW232504  11.528   7.594   6.503  2.8525 -0.8836  0.6870
42607SOL     OW32505   1.914   2.324   1.852  0.7581 -0.1866  0.4698
42607SOL    HW132506   1.905   2.408   1.897 -1.7802 -0.5276  0.7554
42607SOL    HW232507   1.989   2.336   1.794  1.2108  1.8466  1.3624
42608SOL     OW32508   2.317   5.313  11.209  0.1314  0.4488 -0.3517
42608SOL    HW132509   2.349   5.230  11.173  1.2984  0.5870  0.3471
42608SOL    HW232510   2.274   5.289  11.291 -2.8059  0.0927 -1.8376
42609SOL     OW32511   8.964   8.362   9.242 -0.1616 -0.0048  0.4209
42609SOL    HW132512   8.945   8.380   9.334 -1.1829 -1.9943  0.6531
42609SOL    HW232513   8.900   8.296   9.216  1.4714 -1.0891 -1.0977
42610SOL     OW32514   4.216   4.798   5.974  0.2094 -0.0533  0.2374
42610SOL    HW132515   4.130   4.762   5.957  1.0519 -1.4508 -1.4189
42610SOL    HW232516   4.263   4.729   6.020  0.1586  1.0949  2.1058
42611SOL     OW32517   3.704   1.120   9.766 -0.3822 -0.2267  0.1986
42611SOL    HW132518   3.692   1.060   9.692 -0.6834 -0.7563  0.6665
42611SOL    HW232519   3.694   1.207   9.728 -0.1862 -0.4771 -0.4471
42612SOL     OW32520  10.169   9.469   6.850 -0.6617 -0.0583  0.2574
42612SOL    HW132521  10.237   9.526   6.815  1.4215 -2.8619 -0.6424
42612SOL    HW232522  10.127   9.431   6.773  0.6749 -2.6043  0.6625
42613SOL     OW32523   8.724   0.498  10.752 -0.3318  0.6540 -0.3563
42613SOL    HW132524   8.671   0.428  10.714 -0.7184  0.6207  0.2430
42613SOL    HW232525   8.731   0.476  10.845  1.8278 -0.0549 -0.6317
42614SOL     OW32526   5.881  10.968   2.799 -0.3438  0.1385 -0.5557
42614SOL    HW132527   5.878  10.925   2.713  1.5590 -0.8341 -0.1802
42614SOL    HW232528   5.855  10.899   2.860 -1.8970  0.8850 -0.3108
42615SOL     OW32529   2.779  11.092  11.271  0.0277  0.2100  0.2420
42615SOL    HW132530   2.865  11.131  11.259 -0.3618  1.0377  0.0677
42615SOL    HW232531   2.721  11.166  11.290 -0.5454 -0.3911  0.9064
42616SOL     OW32532   3.786  11.425   2.815  0.0338 -0.1212 -0.2635
42616SOL    HW132533   3.755  11.458   2.731  0.0386 -0.5925 -0.4472
42616SOL    HW232534   3.711  11.434   2.874 -0.4224 -1.1306 -0.6721
42617SOL     OW32535   3.541  11.635   9.324  0.0878 -0.2776 -0.9275
42617SOL    HW132536   3.481  11.563   9.339 -0.6966  0.6386  0.6085
42617SOL    HW232537   3.485  11.709   9.298  0.4383  0.6963  0.9102
42618SOL     OW32538   1.460  11.648   4.505 -0.2678  0.0900  0.0546
42618SOL    HW132539   1.419  11.568   4.473 -0.3429  0.8413 -1.8489
42618SOL    HW232540   1.548  11.646   4.468  0.6819 -0.3758  2.1991
42619SOL     OW32541   3.672   0.872  11.516 -0.0528 -0.3088 -0.2663
42619SOL    HW132542   3.605   0.937  11.495  0.6380  1.0889  1.5885
42619SOL    HW232543   3.754   0.920  11.512  0.5611 -1.2874  0.3317
42620SOL     OW32544   4.597   9.697   6.934 -0.2244 -0.4963  0.3141
42620SOL    HW132545   4.579   9.686   6.841 -0.1996  0.5195  0.1737
42620SOL    HW232546   4.648   9.619   6.958  0.9503 -0.1281 -0.8352
42621SOL     OW32547   3.570   1.543   3.841 -0.2338 -0.2692 -0.3577
42621SOL    HW132548   3.551   1.636   3.851  0.7163 -0.0719 -0.3519
42621SOL    HW232549   3.585   1.531   3.747 -0.6594 -0.4775 -0.4017
42622SOL     OW32550   2.505   3.260   2.075 -0.3288  0.0938  0.0716
42622SOL    HW132551   2.538   3.234   2.161  1.6236  0.1039 -0.6238
42622SOL    HW232552   2.417   3.222   2.071 -1.1961  1.5447  2.7143
42623SOL     OW32553   3.368  10.305  11.746  0.0560  0.0767  0.0884
42623SOL    HW132554   3.365  10.251  11.825  0.4118 -0.3479 -0.1827
42623SOL    HW232555   3.292  10.362  11.753 -0.1543 -0.2511  0.5301
42624SOL     OW32556   3.547   4.190   9.991 -0.6059  0.3611 -0.0158
42624SOL    HW132557   3.604   4.237  10.052  1.2258 -1.2140 -0.4280
42624SOL    HW232558   3.573   4.220   9.904 -0.7027 -0.0500 -0.1912
42625SOL     OW32559   5.362   2.374   0.501 -0.6164 -0.3528 -0.7161
42625SOL    HW132560   5.379   2.283   0.477 -1.7369 -0.9305  0.6091
42625SOL    HW232561   5.297   2.370   0.570  0.5422  1.3784  0.5724
42626SOL     OW32562   2.924   4.066   9.441  0.5265 -0.3582  0.3369
42626SOL    HW132563   2.999   4.007   9.451  0.7919  0.1119  1.1813
42626SOL    HW232564   2.883   4.038   9.359  1.3825 -0.8861  0.0733
42627SOL     OW32565   7.350   4.633   0.560  0.6173  0.0973  0.1062
42627SOL    HW132566   7.256   4.642   0.579  0.3627  1.8341 -1.6105
42627SOL    HW232567   7.376   4.553   0.604 -1.9152 -0.9708 -0.1666
42628SOL     OW32568   1.106   5.655  11.942  0.0189 -0.0935  0.0002
42628SOL    HW132569   1.057   5.573  11.943  0.4622 -0.3971 -1.3475
42628SOL    HW232570   1.149   5.658  12.027 -0.6384 -0.8627  0.3738
42629SOL     OW32571   0.384   2.599   1.668  0.5294  0.1807  0.3019
42629SOL    HW132572   0.379   2.581   1.575 -3.2085  0.5025  0.2745
42629SOL    HW232573   0.376   2.694   1.675 -0.5185  0.0771  0.8995
42630SOL     OW32574   0.602   0.569   3.492 -0.3832 -0.1019  0.6569
42630SOL    HW132575   0.559   0.492   3.453 -0.5071  1.3757 -2.4256
42630SOL    HW232576   0.679   0.534   3.537 -0.2738 -2.0263 -0.9147
42631SOL     OW32577   4.458   7.317  10.784  0.4326 -0.3965  0.1375
42631SOL    HW132578   4.428   7.228  10.768 -0.9492  0.1960 -0.7331
42631SOL    HW232579   4.403   7.349  10.855  1.0211 -0.2645  0.5487
42632SOL     OW32580   3.908   6.597   1.235  0.6347  0.2436  0.0730
42632SOL    HW132581   3.920   6.636   1.148  1.3641 -2.2449 -1.0366
42632SOL    HW232582   3.993   6.559   1.257  0.2592  0.1901  1.5620
42633SOL     OW32583   0.551   4.211  10.163 -0.3718 -0.3717 -0.0468
42633SOL    HW132584   0.480   4.168  10.116 -1.9627  1.2140  0.7520
42633SOL    HW232585   0.590   4.270  10.099  0.4659 -1.4611 -0.5709
42634SOL     OW32586   3.471   2.527   6.902  0.1114  0.1407  0.0114
42634SOL    HW132587   3.497   2.447   6.949  1.3758  0.3056 -0.3471
42634SOL    HW232588   3.476   2.596   6.968 -1.2192 -0.1000  0.3807
42635SOL     OW32589   1.694   3.372   0.639  0.0357 -0.1682 -0.1501
42635SOL    HW132590   1.660   3.426   0.567  1.1712  0.5785 -0.1467
42635SOL    HW232591   1.712   3.287   0.598 -1.2768 -0.4164 -0.2673
42636SOL     OW32592   2.593   1.991   9.589  0.5715 -0.6670 -0.1264
42636SOL    HW132593   2.666   1.981   9.650  0.5863 -0.2850 -0.0799
42636SOL    HW232594   2.620   1.943   9.511  1.3067  0.3095 -0.4920
42637SOL     OW32595   5.655   2.053   2.032  0.1272 -0.2762 -0.6356
42637SOL    HW132596   5.710   2.087   1.961 -0.9238  1.2101 -0.7703
42637SOL    HW232597   5.704   1.977   2.065  1.1059 -0.4133 -2.2867
42638SOL     OW32598   0.183   5.988  10.232 -0.3288  0.5631 -0.0859
42638SOL    HW132599   0.102   5.969  10.280 -0.1362  0.0370  0.0401
42638SOL    HW232600   0.253   5.960  10.291 -0.0082  1.9478  0.2250
42639SOL     OW32601   8.290   9.813   0.305 -0.1740 -0.3362 -1.0208
42639SOL    HW132602   8.304   9.739   0.364  1.8500  1.0957  0.4132
42639SOL    HW232603   8.238   9.776   0.233  0.8618 -3.1704 -0.4568
42640SOL     OW32604   1.878   7.525   9.591 -0.5088  0.6520  0.3578
42640SOL    HW132605   1.930   7.522   9.671 -1.5655  2.5456  1.1818
42640SOL    HW232606   1.875   7.618   9.567  0.1933  0.0901 -2.1971
42641SOL     OW32607  11.505   9.760   9.680 -0.5605 -0.2642  0.3642
42641SOL    HW132608  11.536   9.851   9.688 -0.5629 -0.2201 -0.0740
42641SOL    HW232609  11.448   9.762   9.603 -2.7950 -0.0464  1.9600
42642SOL     OW32610   0.699   2.995   2.333  0.1541  0.1546  0.2113
42642SOL    HW132611   0.636   3.027   2.268 -0.7747  0.1794  1.1011
42642SOL    HW232612   0.729   3.074   2.379 -0.0292  0.0351  0.5416
42643SOL     OW32613  10.912   6.920   4.835  0.1833  0.3063 -0.0581
42643SOL    HW132614  10.856   6.894   4.908  1.0270 -1.4744  0.0228
42643SOL    HW232615  10.857   6.910   4.758  0.4397 -1.9147 -0.0273
42644SOL     OW32616   2.636   6.809  11.580 -0.0492 -0.3396  0.4674
42644SOL    HW132617   2.690   6.752  11.526  0.5175 -0.2396  0.9151
42644SOL    HW232618   2.606   6.752  11.651  2.2354  0.3411  2.1086
42645SOL     OW32619   4.182  11.320   1.782  0.1877  0.4650  0.1149
42645SOL    HW132620   4.104  11.272   1.753 -0.2737  0.2409  1.6474
42645SOL    HW232621   4.251  11.254   1.787  0.3063  0.5275 -0.5287
42646SOL     OW32622   8.372   0.204   6.273  0.0897 -0.3091 -0.6492
42646SOL    HW132623   8.303   0.180   6.211  0.3460  0.6810 -1.3519
42646SOL    HW232624   8.452   0.206   6.220  0.4823 -0.4512 -0.0652
42647SOL     OW32625   2.054   6.127   5.796 -0.6912  0.4872 -0.2722
42647SOL    HW132626   2.009   6.210   5.810  0.1552  1.0770 -0.9036
42647SOL    HW232627   2.070   6.092   5.883 -0.0462  1.5617  0.0635
42648SOL     OW32628   0.714   3.866  10.712 -0.4350  0.6754 -0.9368
42648SOL    HW132629   0.667   3.947  10.735  0.5957  1.2618 -0.8223
42648SOL    HW232630   0.669   3.833  10.635 -0.6249  1.5929 -1.2352
42649SOL     OW32631  10.409   4.584   3.432 -0.1930 -0.6442  0.5196
42649SOL    HW132632  10.325   4.593   3.477 -0.5485  0.8378 -0.3788
42649SOL    HW232633  10.414   4.660   3.375  1.1717 -1.4041 -0.4345
42650SOL     OW32634   5.402   1.951  11.305 -0.0482  0.2183  0.6476
42650SOL    HW132635   5.413   1.987  11.393 -1.3581 -0.6667  1.1999
42650SOL    HW232636   5.490   1.926  11.278  0.2641 -0.2937  2.0592
42651SOL     OW32637   8.135   3.510   2.741 -0.4239 -0.5366  1.0284
42651SOL    HW132638   8.079   3.476   2.811 -0.1397 -0.6911  1.1837
42651SOL    HW232639   8.224   3.501   2.776 -0.0596 -2.9159 -0.3132
42652SOL     OW32640   7.940   1.921   9.989  0.0766 -0.1793  0.0204
42652SOL    HW132641   7.969   1.973   9.915  0.9049  0.3859  0.7177
42652SOL    HW232642   7.983   1.836   9.977 -0.7005 -0.4792 -0.7350
42653SOL     OW32643   4.934   1.963   3.527 -0.0363 -0.2211  0.8604
42653SOL    HW132644   4.998   1.912   3.477  0.6106  0.5477  0.8791
42653SOL    HW232645   4.875   1.998   3.460  1.5024  1.7657  0.4260
42654SOL     OW32646   1.298   9.772   6.861  0.3101  0.0123 -0.7192
42654SOL    HW132647   1.255   9.767   6.775  0.5644 -1.3079 -0.7951
42654SOL    HW232648   1.246   9.837   6.909 -1.1472 -0.7650 -1.1655
42655SOL     OW32649   0.518  11.619   3.607  0.7011  0.3406  0.2186
42655SOL    HW132650   0.565  11.685   3.659  3.7935 -0.0242 -1.8776
42655SOL    HW232651   0.548  11.535   3.642  0.1438  0.0662  0.0519
42656SOL     OW32652   2.191   9.825   8.596 -0.4549  0.0647  0.5329
42656SOL    HW132653   2.225   9.897   8.543 -1.2800  0.2524  0.2435
42656SOL    HW232654   2.197   9.748   8.540  1.0526 -0.2473  1.0733
42657SOL     OW32655   2.384   2.104   6.338  0.0858  0.4575 -0.0283
42657SOL    HW132656   2.391   2.164   6.413 -2.0874 -0.2052  0.7951
42657SOL    HW232657   2.469   2.110   6.295  2.0336 -0.1884  3.3032
42658SOL     OW32658   4.470   1.493   5.387  0.0930  0.0175 -0.2985
42658SOL    HW132659   4.455   1.495   5.293 -1.1174 -1.3413 -0.1658
42658SOL    HW232660   4.389   1.457   5.424  0.2447  1.1950  1.3362
42659SOL     OW32661   3.570  10.484  11.678  0.1238 -0.3394  0.5703
42659SOL    HW132662   3.608  10.426  11.743  0.2645 -0.9784 -0.0716
42659SOL    HW232663   3.482  10.451  11.664 -0.5338  0.8492  1.6995
42660SOL     OW32664   0.359   9.865   0.811  0.0132  0.5709  0.0632
42660SOL    HW132665   0.453   9.870   0.794  0.2317  0.6102  1.2121
42660SOL    HW232666   0.342   9.772   0.826 -0.3497  0.4057 -1.2066
42661SOL     OW32667   8.968   7.713   7.865 -0.2881  0.1101  0.2998
42661SOL    HW132668   8.966   7.715   7.961  1.6698  0.1028  0.3746
42661SOL    HW232669   9.055   7.745   7.842 -1.4556  2.2032 -1.5940
42662SOL     OW32670   4.316   3.696  10.635 -0.3028 -0.1136 -0.1566
42662SOL    HW132671   4.388   3.743  10.675 -0.0721 -0.1910 -0.4747
42662SOL    HW232672   4.256   3.676  10.707 -0.3240  0.5232  0.0047
42663SOL     OW32673   9.732   3.023   6.403 -0.2921 -0.3344  0.9465
42663SOL    HW132674   9.718   3.030   6.309 -0.2930  0.0836  0.9773
42663SOL    HW232675   9.813   2.973   6.411 -1.2423 -1.9753  0.7602
42664SOL     OW32676  11.014   1.918   4.469  0.0480  0.8205  0.2303
42664SOL    HW132677  11.065   1.996   4.491 -0.7502  1.0360  1.3978
42664SOL    HW232678  11.048   1.851   4.528  1.6091 -0.1070 -1.6206
42665SOL     OW32679   1.808   3.513   0.240 -0.6255  0.3334  0.4254
42665SOL    HW132680   1.876   3.514   0.308 -0.2494  1.8807  0.0487
42665SOL    HW232681   1.847   3.464   0.168  0.3403  1.6755 -0.0034
42666SOL     OW32682   5.411  11.306   7.911  0.3501 -0.0950  0.0459
42666SOL    HW132683   5.423  11.379   7.971  1.2914 -0.5172  0.3892
42666SOL    HW232684   5.320  11.313   7.882  0.3609  1.0669  0.2548
42667SOL     OW32685   6.490   0.003   0.461 -0.7472 -0.6907 -0.2190
42667SOL    HW132686   6.488  -0.092   0.474  0.2934 -0.5412  1.3783
42667SOL    HW232687   6.580   0.022   0.435 -1.0003 -0.1559 -0.7350
42668SOL     OW32688   2.994   9.737  11.492  0.1249  0.1207 -0.3988
42668SOL    HW132689   2.984   9.820  11.538 -2.1508  0.6558 -1.7167
42668SOL    HW232690   3.088   9.730  11.475  0.4545  2.0310  0.4135
42669SOL     OW32691   9.736   4.886  11.557 -0.0564  0.0221 -0.2222
42669SOL    HW132692   9.647   4.921  11.548  0.0249  0.1214 -0.6504
42669SOL    HW232693   9.724   4.800  11.598 -0.3944 -0.2051 -0.7908
42670SOL     OW32694  11.496  11.935   5.421 -0.0202 -0.1882  0.7787
42670SOL    HW132695  11.449  11.993   5.481  0.5415  0.4376  0.6243
42670SOL    HW232696  11.542  11.873   5.478 -2.2469 -1.8420  0.9186
42671SOL     OW32697   3.355   6.967   6.176  0.1094  0.1108 -0.6851
42671SOL    HW132698   3.287   6.981   6.111 -0.3695 -0.0314 -0.2209
42671SOL    HW232699   3.371   6.873   6.175  1.6101  0.3328 -2.0829
42672SOL     OW32700   9.055   5.799   0.960 -0.5999 -0.4233 -0.1373
42672SOL    HW132701   9.055   5.858   0.884 -0.3363 -1.1306 -0.6994
42672SOL    HW232702   9.105   5.723   0.931 -1.3282 -1.1307  0.4171
42673SOL     OW32703   3.924   0.553   3.187  0.5043  0.5514 -0.0272
42673SOL    HW132704   3.920   0.497   3.110 -0.8723 -0.4348  0.7237
42673SOL    HW232705   3.837   0.545   3.227  1.5841 -0.0609  2.3707
42674SOL     OW32706   7.292   2.376   5.510  0.2084 -0.1947  0.1191
42674SOL    HW132707   7.354   2.361   5.438  0.2656 -0.5116  0.2313
42674SOL    HW232708   7.238   2.297   5.511 -1.0371  0.6066 -0.7940
42675SOL     OW32709   6.715   1.461   3.640  0.1263 -0.0828  0.0300
42675SOL    HW132710   6.763   1.441   3.720  0.9186  2.3831  0.2515
42675SOL    HW232711   6.753   1.404   3.573  1.3908 -0.1916  0.8175
42676SOL     OW32712   7.125   9.399   8.986  0.5458  0.6087  0.4776
42676SOL    HW132713   7.080   9.469   8.939  0.9981  0.2038 -0.5862
42676SOL    HW232714   7.161   9.441   9.064  0.1679  1.3880  0.2393
42677SOL     OW32715  11.201  10.367   7.580  0.3613 -0.2984 -0.7907
42677SOL    HW132716  11.249  10.410   7.651 -1.6313  1.1490 -0.2418
42677SOL    HW232717  11.267  10.357   7.511  1.7299  0.6017  0.3130
42678SOL     OW32718   3.845   9.160   7.923  0.4023 -0.6673 -0.1849
42678SOL    HW132719   3.852   9.239   7.976 -1.1290 -0.5109 -0.1637
42678SOL    HW232720   3.933   9.145   7.889  1.3558 -0.5770  2.0982
42679SOL     OW32721   8.276  10.615   6.444 -0.5914 -0.0469  0.4967
42679SOL    HW132722   8.288  10.586   6.534 -0.4005 -0.1488  0.4381
42679SOL    HW232723   8.296  10.709   6.446  1.1669 -0.3726  0.2287
42680SOL     OW32724   9.277   8.353   7.684  0.7082 -0.0467 -0.2289
42680SOL    HW132725   9.319   8.397   7.610  1.6951 -0.6791 -0.0711
42680SOL    HW232726   9.244   8.271   7.648 -0.4500  0.4499 -0.3530
42681SOL     OW32727   3.729   6.283  11.028 -0.3092 -0.4554 -0.6769
42681SOL    HW132728   3.790   6.233  10.974 -1.7582 -3.4690  0.2480
42681SOL    HW232729   3.752   6.261  11.118 -2.5436 -1.5800 -0.2950
42682SOL     OW32730   0.118   4.612   5.202  0.0007 -0.0270  0.0166
42682SOL    HW132731   0.119   4.517   5.212  0.0392 -0.2643 -1.8858
42682SOL    HW232732   0.058   4.643   5.270 -0.1552 -1.4173  0.5302
42683SOL     OW32733   9.584  11.477   6.300 -0.0721 -0.1694 -0.0109
42683SOL    HW132734   9.598  11.419   6.375  1.3431  0.6660  0.3979
42683SOL    HW232735   9.497  11.453   6.268 -1.4312  0.4843  2.8491
42684SOL     OW32736   9.488   0.705  11.967  0.5672 -0.0920  0.1395
42684SOL    HW132737   9.527   0.721  12.053  1.4263 -0.0722 -0.2532
42684SOL    HW232738   9.523   0.621  11.940  1.0745  0.3571 -0.6216
42685SOL     OW32739   7.897   2.563   2.172  0.8178 -1.1058 -0.1101
42685SOL    HW132740   7.811   2.566   2.215 -0.6297  1.8679 -2.8152
42685SOL    HW232741   7.956   2.603   2.236 -0.8738  1.3908  0.0539
42686SOL     OW32742   6.259   3.474   3.560  0.4091  0.7702  0.0737
42686SOL    HW132743   6.211   3.395   3.538 -2.7670  2.3092  0.8313
42686SOL    HW232744   6.228   3.539   3.497  3.7299  1.3101 -1.2491
42687SOL     OW32745   6.348   6.871   0.459 -0.1638  0.3123  0.2794
42687SOL    HW132746   6.381   6.935   0.396 -0.5137  1.1174  0.9056
42687SOL    HW232747   6.424   6.816   0.480 -0.0416  0.0348 -0.8283
42688SOL     OW32748   9.044   6.701   4.180 -0.0838 -0.1990 -0.1632
42688SOL    HW132749   8.965   6.728   4.226 -0.2023  1.2602 -1.1537
42688SOL    HW232750   9.069   6.778   4.128  0.9058 -1.2616 -1.3207
42689SOL     OW32751   9.736   0.373   4.481 -0.0272 -0.5184  0.0873
42689SOL    HW132752   9.748   0.351   4.574  0.2498  0.4876  0.3112
42689SOL    HW232753   9.813   0.336   4.438  0.1394 -0.4916  0.3588
42690SOL     OW32754   4.949   7.148   0.353 -0.3137 -0.1900 -0.5823
42690SOL    HW132755   4.945   7.062   0.310  0.3441 -0.3170 -0.4015
42690SOL    HW232756   4.968   7.209   0.282  0.6224 -0.3805 -0.5104
42691SOL     OW32757   2.347   1.057   9.568 -0.3502  0.4491  0.5224
42691SOL    HW132758   2.413   1.060   9.638 -2.3735  1.6268  2.5153
42691SOL    HW232759   2.353   1.142   9.525 -0.2225  0.3523  0.3463
42692SOL     OW32760   8.354   4.799   6.208  0.1638 -0.2153  0.5577
42692SOL    HW132761   8.448   4.780   6.205  1.0577  3.4123  1.3979
42692SOL    HW232762   8.327   4.772   6.296  1.3328  1.9710  1.6612
42693SOL     OW32763   3.992   0.956   8.787  0.3190 -0.1571 -0.5160
42693SOL    HW132764   3.982   0.960   8.882  0.2887 -0.1143 -0.5209
42693SOL    HW232765   4.079   0.993   8.770  0.1552  0.2220 -0.5389
42694SOL     OW32766   2.471  11.137   7.913 -0.2877  0.1225 -0.2911
42694SOL    HW132767   2.475  11.076   7.987  1.9632  3.5413  2.6897
42694SOL    HW232768   2.537  11.104   7.852 -0.0469 -1.1397  0.5998
42695SOL     OW32769   8.460   3.342   8.138 -0.7364 -0.0433  0.2821
42695SOL    HW132770   8.517   3.418   8.151  0.0263 -0.7889  1.5125
42695SOL    HW232771   8.466   3.293   8.219 -0.6421 -1.8076 -0.7331
42696SOL     OW32772   7.583   6.277  10.728  0.3856  0.4253  0.0182
42696SOL    HW132773   7.604   6.209  10.792 -0.1035  0.9699  0.7661
42696SOL    HW232774   7.632   6.251  10.650  0.9555 -0.2742  0.5889
42697SOL     OW32775   8.665   9.704   1.428 -0.0959  0.1717 -0.1662
42697SOL    HW132776   8.599   9.771   1.446  1.4342  1.7022 -0.0105
42697SOL    HW232777   8.736   9.723   1.489  1.5939  0.2296 -2.0421
42698SOL     OW32778   5.820   9.592  11.621  0.0305 -0.0748 -0.1073
42698SOL    HW132779   5.880   9.646  11.672  1.1809 -1.4738  0.0882
42698SOL    HW232780   5.817   9.635  11.535 -0.0842  0.9829  0.4018
42699SOL     OW32781   7.686   2.389   1.067 -0.5294  0.1183 -0.4356
42699SOL    HW132782   7.728   2.472   1.045 -0.0951 -0.1558 -0.6390
42699SOL    HW232783   7.670   2.347   0.982 -0.4136 -0.1710 -0.3135
42700SOL     OW32784  11.828   1.524   0.961 -0.0820  0.1366 -0.0868
42700SOL    HW132785  11.825   1.429   0.953 -1.9648  0.1801 -0.3311
42700SOL    HW232786  11.834   1.540   1.056  1.1624 -0.2027 -0.0894
42701SOL     OW32787  11.350   1.329   8.769  0.5106 -0.2772 -0.1935
42701SOL    HW132788  11.370   1.402   8.828  1.3048 -0.6010 -0.0462
42701SOL    HW232789  11.395   1.351   8.688 -0.3789  0.0478 -0.6117
42702SOL     OW32790  11.872   0.175   6.464  0.0338  0.2772 -0.2350
42702SOL    HW132791  11.944   0.200   6.407 -1.3814  1.3396 -1.6303
42702SOL    HW232792  11.794   0.215   6.425 -1.5635 -1.9952  0.3867
42703SOL     OW32793   3.476   5.226   1.467  0.4543 -0.1559  0.3977
42703SOL    HW132794   3.421   5.232   1.546  0.6330 -1.7919  0.6997
42703SOL    HW232795   3.535   5.153   1.486  3.7588  2.3597  0.6616
42704SOL     OW32796   7.734   7.568   2.648 -0.1709 -0.0746 -0.0893
42704SOL    HW132797   7.660   7.580   2.588  0.0352  2.6848  0.0511
42704SOL    HW232798   7.802   7.626   2.614  1.5820 -1.7710  0.3917
42705SOL     OW32799   0.319   2.363   9.779  0.4121 -0.6739  0.4661
42705SOL    HW132800   0.272   2.423   9.836 -1.8408  1.0522 -2.8809
42705SOL    HW232801   0.278   2.277   9.794 -2.2031  0.3101 -0.5569
42706SOL     OW32802   8.114   2.928   9.154 -1.0347  0.0185  0.5538
42706SOL    HW132803   8.087   3.001   9.210 -0.3346 -0.6680  1.8224
42706SOL    HW232804   8.160   2.970   9.081  0.4681  0.8238  1.8955
42707SOL     OW32805   9.703   5.556   6.816 -0.2314  0.0111  0.0904
42707SOL    HW132806   9.681   5.595   6.900 -0.2468 -1.4074  0.7747
42707SOL    HW232807   9.796   5.572   6.805 -0.0924 -0.3579  0.6988
42708SOL     OW32808   1.559   0.946   3.882  0.0122 -0.4440  0.5687
42708SOL    HW132809   1.628   0.879   3.873  0.2479 -0.3154  1.3577
42708SOL    HW232810   1.576   1.007   3.810 -0.3698 -1.3680 -0.3344
42709SOL     OW32811  11.606   6.723   2.872 -0.3629 -0.0039  0.0824
42709SOL    HW132812  11.637   6.646   2.824  0.5912  0.7330 -0.5174
42709SOL    HW232813  11.652   6.719   2.955  0.0107  0.1470 -0.1167
42710SOL     OW32814   8.871   3.768   9.263  0.7386  0.7780 -0.2008
42710SOL    HW132815   8.931   3.715   9.315  0.9220  0.9856 -0.2003
42710SOL    HW232816   8.784   3.734   9.285  0.9630 -2.2686 -3.1570
42711SOL     OW32817  11.312   6.519   7.962  0.1219  0.4121  0.2698
42711SOL    HW132818  11.296   6.425   7.967  0.5357  0.3164 -0.0443
42711SOL    HW232819  11.229   6.560   7.986 -0.5975 -0.0494 -1.3116
42712SOL     OW32820   3.549  10.953   7.764 -0.1278  0.3355 -0.0696
42712SOL    HW132821   3.574  11.045   7.755  1.6301 -0.2431 -1.9468
42712SOL    HW232822   3.453  10.954   7.762 -0.1403  2.0214 -1.7881
42713SOL     OW32823   5.241   5.829  11.404  0.0439  0.3192  0.3002
42713SOL    HW132824   5.267   5.879  11.328  0.4982 -0.3138  0.0308
42713SOL    HW232825   5.315   5.771  11.422 -0.8414 -0.9387  0.0079
42714SOL     OW32826   3.641   2.505   1.498 -0.0160 -0.0396 -0.0710
42714SOL    HW132827   3.631   2.600   1.510 -1.1529 -0.1677  0.0734
42714SOL    HW232828   3.573   2.466   1.553  1.2748 -1.0018  0.9020
42715SOL     OW32829   9.809   5.725  11.616  0.3970  0.4114  0.0312
42715SOL    HW132830   9.842   5.778  11.688 -0.5271  0.5216  0.3842
42715SOL    HW232831   9.830   5.635  11.641 -0.7350  0.3623  0.9112
42716SOL     OW32832   5.191   6.936   9.921  0.0527 -0.0340 -0.2588
42716SOL    HW132833   5.208   6.846   9.895 -1.0487 -0.6743  1.1014
42716SOL    HW232834   5.271   6.963   9.967  0.6505 -0.0614 -1.2540
42717SOL     OW32835   2.921   5.111   7.710  0.5250  0.5282  0.4667
42717SOL    HW132836   2.831   5.080   7.718  0.6616 -1.5459 -3.4366
42717SOL    HW232837   2.913   5.202   7.683 -0.5139  0.1405 -0.6274
42718SOL     OW32838  11.628   1.748   7.818 -0.7099 -0.0900  0.4157
42718SOL    HW132839  11.552   1.781   7.866 -2.4981 -0.1915 -2.1216
42718SOL    HW232840  11.676   1.827   7.793 -1.1783  0.1429  0.2346
42719SOL     OW32841   6.699   1.759   5.420  0.5307 -0.9015  0.2849
42719SOL    HW132842   6.700   1.663   5.412  0.8597 -0.9181  0.5051
42719SOL    HW232843   6.768   1.789   5.360 -1.7567 -0.5818 -2.3766
42720SOL     OW32844   4.417  11.106   9.107 -0.2176  0.4410  0.0961
42720SOL    HW132845   4.383  11.081   9.021 -0.1965 -1.9590  0.7103
42720SOL    HW232846   4.511  11.088   9.102 -0.3453 -0.5408  0.8465
42721SOL     OW32847   8.449   9.459   5.712  0.3286 -0.3481  0.0951
42721SOL    HW132848   8.399   9.516   5.771  0.2367 -1.1599  0.8258
42721SOL    HW232849   8.387   9.392   5.686  1.0217 -1.4047  1.0583
42722SOL     OW32850  10.136   8.443   8.546  0.1628  0.1171  0.6005
42722SOL    HW132851  10.144   8.457   8.452  0.1835 -1.1708  0.3921
42722SOL    HW232852  10.116   8.529   8.581 -2.1583  0.2530 -0.8485
42723SOL     OW32853  11.083   7.323   6.683 -0.5767  0.5744 -0.5071
42723SOL    HW132854  11.088   7.245   6.629 -1.0274 -0.1576  0.4901
42723SOL    HW232855  11.105   7.293   6.772 -0.3529  1.6458 -0.1796
42724SOL     OW32856   4.690   4.690  11.786  0.2261 -0.1996 -0.2090
42724SOL    HW132857   4.623   4.686  11.717 -0.3045  1.4960  0.1536
42724SOL    HW232858   4.649   4.648  11.861 -0.9711  1.9165  0.3850
42725SOL     OW32859   4.749   5.304   1.020  0.0664  0.6170  0.4395
42725SOL    HW132860   4.843   5.302   1.005  0.2363  1.5937  1.3214
42725SOL    HW232861   4.723   5.393   0.999 -0.5291  0.5801  0.9836
42726SOL     OW32862   5.178   5.050   3.437  0.1344  0.0979 -0.1866
42726SOL    HW132863   5.183   5.104   3.358 -4.4752 -1.2147 -1.6866
42726SOL    HW232864   5.165   5.112   3.508 -0.2130  1.1469 -1.1472
42727SOL     OW32865   7.902   2.339  10.460 -0.0724  0.2796 -0.4104
42727SOL    HW132866   7.931   2.304  10.376  1.8617 -0.3883  0.4688
42727SOL    HW232867   7.892   2.433  10.445 -1.0132 -0.0076 -1.6928
42728SOL     OW32868   3.680   9.857  10.552 -0.2256  0.0013  0.4203
42728SOL    HW132869   3.630   9.939  10.553 -0.0149  0.1422 -0.0288
42728SOL    HW232870   3.768   9.883  10.581 -0.1795 -0.0751  0.3482
42729SOL     OW32871   0.344   5.452   1.236 -0.4238  0.2655  0.0530
42729SOL    HW132872   0.266   5.398   1.244  1.3290 -2.3856  0.5675
42729SOL    HW232873   0.350   5.498   1.320  0.6684 -2.7135  1.7618
42730SOL     OW32874   8.813   8.671   8.850  0.4148  0.1400  0.0295
42730SOL    HW132875   8.853   8.693   8.766  0.9903  1.0016  0.5115
42730SOL    HW232876   8.732   8.723   8.853 -0.7356 -1.4930 -0.8829
42731SOL     OW32877   6.261   3.014   4.032  0.0796 -0.1335  0.2035
42731SOL    HW132878   6.318   2.943   4.062  0.5348 -0.1155 -0.5814
42731SOL    HW232879   6.175   2.973   4.022 -0.0011 -0.2176  1.1700
42732SOL     OW32880   7.080   7.195  11.644  0.0714 -0.3604  0.0765
42732SOL    HW132881   7.078   7.284  11.609  0.3797 -0.6249 -0.6383
42732SOL    HW232882   7.006   7.151  11.602 -0.6121 -0.2135  1.0946
42733SOL     OW32883  10.033   5.972   6.278  0.1948 -0.3739  0.4377
42733SOL    HW132884  10.042   6.050   6.224  0.2456  0.4206  1.5524
42733SOL    HW232885   9.939   5.955   6.280  0.2797 -1.0742 -0.7849
42734SOL     OW32886   5.478   1.034   0.937 -0.1961  0.3496 -0.5413
42734SOL    HW132887   5.429   1.024   0.855 -2.3658  0.6100  0.6587
42734SOL    HW232888   5.537   0.958   0.938 -0.2263  0.2440 -2.2404
42735SOL     OW32889  10.603   9.285   3.649 -0.2717 -0.3947 -0.2377
42735SOL    HW132890  10.661   9.209   3.652  0.5895  0.2698  0.8189
42735SOL    HW232891  10.651   9.354   3.695 -1.3544  0.5682 -0.4901
42736SOL     OW32892   8.311   8.399   1.335 -0.2575  0.2180  0.5849
42736SOL    HW132893   8.232   8.447   1.360 -0.7071 -0.7537  1.0896
42736SOL    HW232894   8.323   8.420   1.242 -1.5555 -0.2250  0.2931
42737SOL     OW32895   9.655   2.260   3.921 -0.6342 -0.4768 -0.0288
42737SOL    HW132896   9.660   2.168   3.898  0.7539 -0.2816 -0.6051
42737SOL    HW232897   9.616   2.302   3.844 -2.0010 -0.6502  0.5293
42738SOL     OW32898   3.265  10.073   2.268 -0.1175  0.3405 -0.2119
42738SOL    HW132899   3.343  10.082   2.323  0.3785 -1.2899 -0.6113
42738SOL    HW232900   3.293  10.102   2.182 -0.0385  0.0471 -0.2853
42739SOL     OW32901   0.960   1.234  11.013  0.0405  0.5391 -0.4287
42739SOL    HW132902   0.879   1.207  10.970  0.8263  1.3281 -2.5426
42739SOL    HW232903   0.966   1.177  11.090 -0.9237 -1.7133 -1.9106
42740SOL     OW32904   9.857   5.814   5.935 -0.7108 -0.3304  0.8445
42740SOL    HW132905   9.784   5.874   5.920 -0.2307  0.2238  0.7091
42740SOL    HW232906   9.823   5.752   6.000 -1.2773 -0.0398  0.8354
42741SOL     OW32907   1.448   9.461   0.923 -0.1072 -0.6179 -0.2401
42741SOL    HW132908   1.460   9.512   0.843  1.7059  0.6484  0.7573
42741SOL    HW232909   1.463   9.371   0.897  1.0610 -0.1663 -1.2276
42742SOL     OW32910   4.611   9.814   5.624 -0.4896 -0.0107 -0.3587
42742SOL    HW132911   4.545   9.764   5.576 -1.7055  2.0650 -0.9864
42742SOL    HW232912   4.657   9.750   5.678 -3.0234 -1.5315  0.1082
42743SOL     OW32913   5.807   0.922   2.923  0.0760 -0.2093  0.2913
42743SOL    HW132914   5.793   0.863   2.849  1.1062  0.6319 -0.6038
42743SOL    HW232915   5.888   0.968   2.903  0.3795  0.0585  1.9506
42744SOL     OW32916   9.296   2.212   9.464 -0.6542 -0.4522 -0.5414
42744SOL    HW132917   9.316   2.140   9.405  1.4520  0.7655 -1.4283
42744SOL    HW232918   9.368   2.213   9.527 -0.5587  0.9373 -0.6405
42745SOL     OW32919   3.758   9.587   7.628  0.2203 -0.5231 -0.0479
42745SOL    HW132920   3.764   9.678   7.658  1.9147 -0.5075 -0.3454
42745SOL    HW232921   3.786   9.590   7.537 -0.0581 -1.2993 -0.1653
42746SOL     OW32922   1.503   0.343   4.135  0.2777  0.3143  0.8208
42746SOL    HW132923   1.574   0.365   4.074  0.5912  0.3439  1.1889
42746SOL    HW232924   1.438   0.412   4.123  0.0293 -0.0411  0.0431
42747SOL     OW32925   2.494   5.744   4.645  0.2263  0.6323 -0.2874
42747SOL    HW132926   2.581   5.764   4.679  0.2082  0.0053  0.1547
42747SOL    HW232927   2.487   5.794   4.564  1.1401  0.3990 -0.5178
42748SOL     OW32928   4.077   1.247   8.956 -0.7570 -0.4918  0.3868
42748SOL    HW132929   4.136   1.178   8.984 -2.0330 -0.8360  2.4064
42748SOL    HW232930   4.048   1.289   9.037 -2.6462  0.1587 -0.5595
42749SOL     OW32931  10.317   3.687   1.643 -0.3663  0.4571  0.4728
42749SOL    HW132932  10.388   3.692   1.707 -1.3984  0.5825  1.6414
42749SOL    HW232933  10.295   3.778   1.624 -0.5816  0.4130  0.5133
42750SOL     OW32934   6.727   5.506  10.335  0.1893 -0.2469  0.4769
42750SOL    HW132935   6.736   5.507  10.430  0.7355 -0.4484  0.4372
42750SOL    HW232936   6.817   5.492  10.303 -0.0229 -0.4236 -0.0571
42751SOL     OW32937   2.852  11.788   8.671  0.8451  0.2062  0.4472
42751SOL    HW132938   2.834  11.701   8.708 -0.9505  0.5977  0.5835
42751SOL    HW232939   2.883  11.770   8.582 -1.2622 -0.5638 -0.1948
42752SOL     OW32940   1.769   6.093   4.755  0.1554  0.2887  0.3330
42752SOL    HW132941   1.826   6.109   4.680 -0.9760  0.5316 -0.5022
42752SOL    HW232942   1.731   6.179   4.775  0.5226  0.2493  1.2671
42753SOL     OW32943   8.435   9.110   3.688  0.2188 -0.1505  0.0647
42753SOL    HW132944   8.405   9.133   3.600  0.6091  2.2067  0.4928
42753SOL    HW232945   8.491   9.033   3.674  1.4624  1.0228 -2.0023
42754SOL     OW32946   9.713   6.775   4.034  0.1388 -0.0342  0.5938
42754SOL    HW132947   9.761   6.706   3.988 -0.9943  0.2889 -1.1953
42754SOL    HW232948   9.625   6.741   4.043 -0.7996  1.5747 -1.5023
42755SOL     OW32949   0.609   1.528   7.696 -0.3894  0.1699  0.1850
42755SOL    HW132950   0.651   1.613   7.687  0.3696 -0.1022  0.9584
42755SOL    HW232951   0.619   1.506   7.789 -1.5356 -0.2796  0.2175
42756SOL     OW32952   9.222   0.792   9.141 -0.0330  0.0501 -0.2943
42756SOL    HW132953   9.281   0.717   9.153  1.3164  0.6140 -2.8170
42756SOL    HW232954   9.136   0.759   9.167  1.1646 -0.9900  2.9444
42757SOL     OW32955   3.308   0.477   8.716  0.1710  0.8918  0.4830
42757SOL    HW132956   3.235   0.489   8.777  0.7198  1.6274  1.0165
42757SOL    HW232957   3.267   0.453   8.634 -0.5384 -1.3694  1.4216
42758SOL     OW32958   6.279   0.604  11.910 -0.0438  0.3871 -0.6941
42758SOL    HW132959   6.307   0.650  11.831 -0.7019 -0.0400 -1.1740
42758SOL    HW232960   6.199   0.649  11.937 -0.4824 -0.2392 -0.9506
42759SOL     OW32961   9.699   8.336   3.690  0.1877  0.4277 -0.2366
42759SOL    HW132962   9.752   8.286   3.752 -0.7781 -0.3022  0.0270
42759SOL    HW232963   9.617   8.287   3.684  0.4098  0.2249 -2.4424
42760SOL     OW32964   9.251   0.553   0.316  1.0145  0.1469 -0.1874
42760SOL    HW132965   9.280   0.463   0.301  0.2215 -0.2623  0.5604
42760SOL    HW232966   9.290   0.576   0.401  0.4220  0.1357  0.0954
42761SOL     OW32967   1.986  10.250  10.046 -0.0278 -0.2005  0.5566
42761SOL    HW132968   1.953  10.189   9.980 -0.3279 -0.0216  0.5423
42761SOL    HW232969   1.925  10.242  10.119 -0.0524  0.0677  0.5651
42762SOL     OW32970   5.545   8.658  11.150  0.0734 -0.1079  0.0125
42762SOL    HW132971   5.583   8.667  11.237 -1.7424 -1.9668  1.0838
42762SOL    HW232972   5.452   8.645  11.166 -0.6992  1.7692 -2.3578
42763SOL     OW32973   1.090   5.897   7.141  0.0173 -0.2946 -0.3581
42763SOL    HW132974   1.115   5.964   7.204 -0.8133 -0.4350  0.1273
42763SOL    HW232975   1.173   5.869   7.102  0.6387 -0.7825  1.2513
42764SOL     OW32976  11.891   9.426  10.512 -0.2205  0.4171  0.1618
42764SOL    HW132977  11.956   9.495  10.521  0.0367  0.3215 -0.8082
42764SOL    HW232978  11.905   9.369  10.588  1.2041  0.0968 -0.3177
42765SOL     OW32979   7.939  11.112  10.591 -0.5069 -0.2426 -0.1134
42765SOL    HW132980   7.895  11.168  10.527 -0.2777  0.6890  0.5310
42765SOL    HW232981   7.877  11.105  10.664  0.1540  0.6011  0.5476
42766SOL     OW32982   3.856   3.140   6.860 -0.2404 -0.1533  0.1171
42766SOL    HW132983   3.795   3.203   6.822  0.8610 -1.4257 -4.3150
42766SOL    HW232984   3.801   3.080   6.910 -2.0517  1.0424 -0.3551
42767SOL     OW32985  11.630   2.338   3.550 -0.1187 -0.2338  0.1134
42767SOL    HW132986  11.706   2.300   3.594  0.0985  0.7117  0.5881
42767SOL    HW232987  11.595   2.401   3.613  0.0995  1.0344 -0.9925
42768SOL     OW32988  10.575   7.991  10.627 -0.7233 -0.1077  0.1221
42768SOL    HW132989  10.611   8.074  10.596 -0.9845 -1.1401 -3.3616
42768SOL    HW232990  10.615   7.978  10.713  1.6364  2.1811 -0.5125
42769SOL     OW32991   2.978   7.815   5.776  0.0514  0.0606 -0.4857
42769SOL    HW132992   2.981   7.722   5.795  0.6185  0.2313  0.3628
42769SOL    HW232993   2.981   7.822   5.681  3.5203 -0.7111 -0.5544
42770SOL     OW32994   5.984   6.367   8.014  0.4313 -0.3185 -0.0345
42770SOL    HW132995   5.927   6.291   8.024 -0.2952  0.1722 -0.3605
42770SOL    HW232996   6.073   6.331   8.017  0.0937 -1.3582 -1.5540
42771SOL     OW32997   0.330  11.351   9.940 -0.1474  0.0163  0.0682
42771SOL    HW132998   0.237  11.367   9.922 -0.2749 -0.4428  0.2956
42771SOL    HW232999   0.359  11.296   9.868 -0.0057  0.3042 -0.0952
42772SOL     OW33000   4.906  10.767   9.562  0.0720 -0.4013 -0.0880
42772SOL    HW133001   4.845  10.693   9.571  0.7471 -0.8779  0.7218
42772SOL    HW233002   4.912  10.804   9.650 -1.9610  2.0385 -0.8785
42773SOL     OW33003   0.050   8.419   7.126  0.4145 -0.0920 -0.6755
42773SOL    HW133004   0.119   8.354   7.134  0.8159  0.5065  1.2538
42773SOL    HW233005   0.039   8.454   7.215 -0.6943  1.5282 -1.3904
42774SOL     OW33006   7.794  10.715  11.800  0.4041 -0.0760  0.4151
42774SOL    HW133007   7.807  10.667  11.882  2.8916 -2.9724 -1.4615
42774SOL    HW233008   7.862  10.783  11.802  1.1560 -0.8049  0.3602
42775SOL     OW33009   4.785   9.774   5.005  0.1889 -0.4031  0.5473
42775SOL    HW133010   4.704   9.819   5.029  0.2906  0.1717 -0.1649
42775SOL    HW233011   4.854   9.834   5.031  0.5147 -1.6072  2.7688
42776SOL     OW33012   2.707   0.487   3.951 -0.1914 -0.8214 -0.5204
42776SOL    HW133013   2.793   0.528   3.953 -1.2936  1.6745  0.8982
42776SOL    HW233014   2.702   0.438   4.034  0.0005 -1.3071 -0.7930
42777SOL     OW33015   3.939   9.460   3.755 -0.0356  0.0503 -0.7086
42777SOL    HW133016   3.908   9.535   3.703  0.7171 -0.2189 -1.5764
42777SOL    HW233017   3.931   9.489   3.846  0.2382  1.1911 -1.0285
42778SOL     OW33018   8.603   7.767   2.863  0.3457 -0.6741 -0.0959
42778SOL    HW133019   8.672   7.828   2.888  0.1124 -0.3895 -0.1459
42778SOL    HW233020   8.648   7.683   2.851  0.8471 -0.2907 -1.0425
42779SOL     OW33021   8.657   3.860   7.383  0.1935  0.3147  0.0866
42779SOL    HW133022   8.649   3.791   7.318 -1.0772 -0.2279  0.7852
42779SOL    HW233023   8.603   3.931   7.349  0.6206  0.5578 -0.0959
42780SOL     OW33024   7.269   4.499   3.109 -0.0622  0.0333 -0.2243
42780SOL    HW133025   7.334   4.542   3.053  0.2555  0.3704  0.3930
42780SOL    HW233026   7.320   4.462   3.181 -0.3037 -1.5535 -0.8191
42781SOL     OW33027   3.772   0.722  10.272 -0.4174 -0.2600  0.1590
42781SOL    HW133028   3.818   0.768  10.342 -0.7974  1.0889 -0.4379
42781SOL    HW233029   3.841   0.698  10.210 -0.3062  0.2711  0.0722
42782SOL     OW33030   3.973  10.240   7.472  0.4710  0.3043 -0.2467
42782SOL    HW133031   3.888  10.267   7.437  0.2703  0.9407  0.6827
42782SOL    HW233032   3.989  10.154   7.435  1.2378  1.7222 -3.5590
42783SOL     OW33033   5.775   8.510   3.476 -0.1374 -0.4103 -0.1714
42783SOL    HW133034   5.765   8.466   3.392 -0.5454 -1.8515  0.5985
42783SOL    HW233035   5.868   8.503   3.496 -0.3807 -2.1783  0.5518
42784SOL     OW33036   5.783  11.004   3.684 -0.2973  0.2937 -0.2539
42784SOL    HW133037   5.780  11.020   3.590 -0.4244 -1.8697 -0.6745
42784SOL    HW233038   5.842  10.929   3.694 -0.9749 -0.0896  1.2824
42785SOL     OW33039   9.498   7.882   8.301 -0.4159  0.2275 -0.2892
42785SOL    HW133040   9.568   7.821   8.328 -2.2281 -2.5244 -1.4315
42785SOL    HW233041   9.545   7.963   8.280  2.1889 -0.8250  0.9042
42786SOL     OW33042   0.030   8.648   1.751  0.4540 -0.3426 -0.4610
42786SOL    HW133043  -0.019   8.587   1.696 -0.1363 -0.9679  0.7365
42786SOL    HW233044   0.061   8.596   1.825  0.7630  0.5949  0.0960
42787SOL     OW33045   2.296   3.907  10.034  0.0310  0.7219 -0.3784
42787SOL    HW133046   2.297   3.957  10.116  3.1496  0.8191 -0.3390
42787SOL    HW233047   2.312   3.971   9.966 -0.1324  0.3105 -0.8125
42788SOL     OW33048   0.195   3.821   2.006 -0.2232  0.5737 -0.1186
42788SOL    HW133049   0.234   3.907   1.994 -1.1252  1.2147  1.3770
42788SOL    HW233050   0.269   3.763   2.024  0.3134  1.1842 -0.3352
42789SOL     OW33051   5.219   1.946   5.983 -0.1785  0.3639 -0.8429
42789SOL    HW133052   5.258   1.874   6.032 -0.2601  0.0979 -1.1736
42789SOL    HW233053   5.161   1.989   6.046  0.5249  0.6736 -0.3865
42790SOL     OW33054   9.170   4.949   9.928 -0.1778  0.2204 -0.5868
42790SOL    HW133055   9.180   4.970   9.835  0.1146 -0.5292 -0.7319
42790SOL    HW233056   9.172   5.034   9.972  4.2033  0.5069 -0.8497
42791SOL     OW33057   0.766   7.560  10.381  0.3579  0.4256  0.7375
42791SOL    HW133058   0.727   7.611  10.311 -0.0394 -0.9664 -0.1028
42791SOL    HW233059   0.696   7.548  10.445 -0.2315 -0.8861 -0.1092
42792SOL     OW33060  10.411   4.188   9.496  0.3354  0.2188  0.1401
42792SOL    HW133061  10.478   4.120   9.487 -0.6272 -0.6307 -0.9943
42792SOL    HW233062  10.427   4.248   9.423 -1.0001 -0.8139 -1.0673
42793SOL     OW33063   4.003  11.497   2.655  0.8532 -0.6710  0.1242
42793SOL    HW133064   3.934  11.489   2.721 -0.4320 -1.1141 -1.2238
42793SOL    HW233065   4.053  11.574   2.681  0.4417 -0.8923  1.6574
42794SOL     OW33066  10.919   0.294   2.058  0.7260 -0.3676  1.0640
42794SOL    HW133067  10.933   0.206   2.092  1.1204 -0.5237  0.5061
42794SOL    HW233068  10.943   0.289   1.965  2.4766  0.7265  1.4015
42795SOL     OW33069   2.247   6.990   3.705 -0.0828  0.5617  0.1584
42795SOL    HW133070   2.283   6.902   3.705 -1.4340 -0.0078  0.4523
42795SOL    HW233071   2.155   6.979   3.682 -0.2621  1.9057  0.1206
42796SOL     OW33072   8.877   1.829   1.584  0.5692 -0.2193  0.3327
42796SOL    HW133073   8.897   1.842   1.491  2.3368 -1.2811  0.5227
42796SOL    HW233074   8.785   1.854   1.592  1.0602  2.3940 -1.1667
42797SOL     OW33075   9.667   8.353   3.387  0.3467  0.2411  0.2171
42797SOL    HW133076   9.678   8.448   3.377  0.8057  0.2670  0.9354
42797SOL    HW233077   9.682   8.336   3.480  0.5297 -0.5774  0.0494
42798SOL     OW33078   1.362  11.731   8.942  0.1542 -0.7261 -0.0825
42798SOL    HW133079   1.278  11.685   8.935  0.4332 -1.5886  1.6102
42798SOL    HW233080   1.418  11.670   8.991  1.4236  0.2874 -0.2257
42799SOL     OW33081   3.195   3.162   1.912  0.2604 -0.1506  0.4440
42799SOL    HW133082   3.260   3.231   1.918 -0.0516  0.0076  3.1624
42799SOL    HW233083   3.236   3.095   1.858  0.8520  1.7858 -1.6366
42800SOL     OW33084   8.166   4.747   3.250 -0.2188  0.1123  0.4665
42800SOL    HW133085   8.199   4.661   3.273  2.0830  1.2071  1.5964
42800SOL    HW233086   8.141   4.740   3.158  2.2991 -1.1260 -0.1979
42801SOL     OW33087   3.483   5.866   4.253  0.3426 -0.0852  0.4202
42801SOL    HW133088   3.553   5.917   4.213 -0.4885 -0.0127 -1.0258
42801SOL    HW233089   3.425   5.843   4.180 -0.5343 -1.1142  1.3951
42802SOL     OW33090   3.481   7.018   1.205  0.4826  0.2645 -0.2325
42802SOL    HW133091   3.477   7.025   1.110 -0.3862 -1.0344 -0.3184
42802SOL    HW233092   3.390   7.013   1.233  0.7075  1.2426  0.7397
42803SOL     OW33093   7.052   9.836   8.567  0.5631  0.0542 -0.0286
42803SOL    HW133094   7.124   9.773   8.562  1.2432  0.8814 -0.9036
42803SOL    HW233095   7.084   9.904   8.626  0.2617  0.1345  0.0466
42804SOL     OW33096   7.053   8.438   8.746  0.2374 -0.1487  0.0906
42804SOL    HW133097   7.033   8.521   8.788  0.4840 -0.4764  0.8770
42804SOL    HW233098   7.108   8.460   8.672  0.3718  0.3770  0.3471
42805SOL     OW33099   9.775   8.500   2.227  0.0382 -0.4157  0.2984
42805SOL    HW133100   9.753   8.539   2.143 -0.3679  0.2234  0.6937
42805SOL    HW233101   9.752   8.407   2.217 -1.1368 -0.1243  0.0808
42806SOL     OW33102  10.560  10.818   8.350 -0.4731  0.0590 -0.7005
42806SOL    HW133103  10.465  10.811   8.345 -0.5544 -0.3182  0.8663
42806SOL    HW233104  10.585  10.753   8.415  0.7434  0.9105 -0.2825
42807SOL     OW33105   2.880   0.522   8.763 -0.8421 -0.3398  0.1166
42807SOL    HW133106   2.900   0.533   8.670 -0.8001 -2.0749 -0.1134
42807SOL    HW233107   2.807   0.582   8.778  1.2691  2.5239 -0.1641
42808SOL     OW33108   1.401   0.308   4.803 -0.5088  0.6144  0.1511
42808SOL    HW133109   1.392   0.343   4.714  0.5813  0.0381 -0.2037
42808SOL    HW233110   1.493   0.322   4.825 -0.2899 -1.0555  0.3995
42809SOL     OW33111   6.440   6.533   7.353  0.1960 -0.0257 -0.4043
42809SOL    HW133112   6.488   6.554   7.433  0.9206 -0.5760 -0.6820
42809SOL    HW233113   6.349   6.556   7.372  0.6873  1.7723 -0.1455
42810SOL     OW33114   6.034   1.370   8.298 -0.5623  0.1055  0.1237
42810SOL    HW133115   5.962   1.353   8.359 -0.6389 -0.3045 -0.0751
42810SOL    HW233116   6.106   1.317   8.331 -0.1704  0.9614  0.6494
42811SOL     OW33117   5.702   9.152   9.687 -0.4570  0.3639  0.2038
42811SOL    HW133118   5.681   9.066   9.723  1.4641 -0.9591 -1.6162
42811SOL    HW233119   5.752   9.195   9.755  1.1567 -1.1918  0.0739
42812SOL     OW33120   9.782   2.042   4.935 -0.1685  0.5262  0.2918
42812SOL    HW133121   9.844   2.095   4.985  0.4238  0.5156 -0.4085
42812SOL    HW233122   9.814   2.046   4.845 -0.9988  0.2401 -0.0290
42813SOL     OW33123   1.674  10.037   9.999  0.0938  0.4120 -0.8742
42813SOL    HW133124   1.608  10.107   9.996 -0.3214  0.2261  1.6421
42813SOL    HW233125   1.749  10.073   9.951 -0.9717  1.5942 -1.7263
42814SOL     OW33126   3.106   4.928   3.856  0.0696 -0.4420  0.1433
42814SOL    HW133127   3.093   4.901   3.766  1.1692  0.6522 -0.3789
42814SOL    HW233128   3.082   5.021   3.858 -0.3264 -0.5480  1.0691
42815SOL     OW33129   5.867   2.041   3.122 -0.1723 -0.5413  0.0566
42815SOL    HW133130   5.932   1.990   3.172  0.1975 -0.6761 -0.5552
42815SOL    HW233131   5.855   1.992   3.041 -1.1355 -0.5788  0.2052
42816SOL     OW33132   7.342   1.536   5.811 -0.3109 -0.4995 -0.3786
42816SOL    HW133133   7.410   1.579   5.759  0.2461 -2.4609 -1.3671
42816SOL    HW233134   7.363   1.559   5.901 -0.7711  2.2457 -0.8874
42817SOL     OW33135   9.711  10.600  11.173 -0.0993 -0.7824  0.1121
42817SOL    HW133136   9.700  10.578  11.265  3.1497 -0.3055  0.7265
42817SOL    HW233137   9.717  10.695  11.172  1.5119 -0.8603 -0.3071
42818SOL     OW33138   2.790   2.086   2.782  0.4234  0.1424  0.3187
42818SOL    HW133139   2.700   2.076   2.813  0.3701 -2.1482 -0.4311
42818SOL    HW233140   2.781   2.103   2.688  0.7465 -2.3925 -0.2415
42819SOL     OW33141   8.522   3.140   8.626 -0.5069  0.0581 -0.2005
42819SOL    HW133142   8.614   3.141   8.650 -0.5546  1.5235  0.0040
42819SOL    HW233143   8.476   3.178   8.701 -1.8157 -4.2364  1.4647
42820SOL     OW33144   7.899   0.314   0.754  0.0511 -0.3123 -0.4684
42820SOL    HW133145   7.953   0.393   0.755 -0.7504  0.2514 -1.0311
42820SOL    HW233146   7.922   0.271   0.672 -1.4932  0.7549 -1.5087
42821SOL     OW33147   6.018   1.001  10.591 -0.5008 -0.5258  0.0266
42821SOL    HW133148   6.083   1.071  10.597 -0.6567 -0.3848  0.1033
42821SOL    HW233149   5.948   1.039  10.538 -0.8739 -0.3962  0.6017
42822SOL     OW33150   1.775  10.466   3.565 -0.1777  0.3669  0.0598
42822SOL    HW133151   1.752  10.552   3.600 -2.0108  0.5341 -1.4208
42822SOL    HW233152   1.750  10.470   3.473  1.5471 -1.1180 -0.5375
42823SOL     OW33153   2.196   0.152   9.280  0.6186 -0.2063  0.3041
42823SOL    HW133154   2.139   0.159   9.356  1.9972  1.5322  1.2657
42823SOL    HW233155   2.193   0.239   9.239 -0.9493 -1.4050 -2.3481
42824SOL     OW33156   1.345  11.839   9.223 -0.7700  0.3299 -0.2450
42824SOL    HW133157   1.374  11.750   9.243 -0.1413  0.7094  0.5766
42824SOL    HW233158   1.425  11.892   9.230 -0.9540  0.8273 -1.6249
42825SOL     OW33159   9.346   0.039   0.801  0.4986 -0.0912  0.1328
42825SOL    HW133160   9.413   0.104   0.824  1.5319 -1.5839  1.6675
42825SOL    HW233161   9.330   0.052   0.708  2.8743  0.4055 -0.2723
42826SOL     OW33162   4.094   6.309   4.114  0.2766  0.0842 -0.3064
42826SOL    HW133163   4.160   6.244   4.140 -1.5671 -1.3518  1.0499
42826SOL    HW233164   4.116   6.332   4.024  2.2010 -0.8538 -0.1193
42827SOL     OW33165  10.388   1.852   3.493  0.1078  0.0095  0.3973
42827SOL    HW133166  10.477   1.873   3.523  0.1383 -1.1992  1.1788
42827SOL    HW233167  10.394   1.855   3.398  1.4145 -1.6479  0.3842
42828SOL     OW33168   3.433   6.288  11.074  0.5077  0.0604  0.0968
42828SOL    HW133169   3.409   6.381  11.071 -0.9515 -0.3149 -1.0533
42828SOL    HW233170   3.523   6.285  11.043  0.8961  1.1669  1.0411
42829SOL     OW33171   0.821   8.461   9.625 -0.2889  0.3746  0.4047
42829SOL    HW133172   0.762   8.414   9.684 -0.4588  0.8002  0.5799
42829SOL    HW233173   0.895   8.487   9.681 -1.5401  2.8658  1.0568
42830SOL     OW33174   0.422   6.510  10.546 -1.0160 -0.6922  0.3430
42830SOL    HW133175   0.436   6.567  10.621 -2.3072  1.4438 -0.9369
42830SOL    HW233176   0.359   6.445  10.576 -1.9113  0.4435  0.9805
42831SOL     OW33177  10.115   2.784  10.831  0.2748 -0.4865 -0.0587
42831SOL    HW133178  10.115   2.728  10.754 -0.7173  0.9729 -1.1781
42831SOL    HW233179  10.206   2.810  10.842  0.6885 -1.9376  0.2445
42832SOL     OW33180   6.795  10.512   0.385  0.2272 -0.5212 -0.3732
42832SOL    HW133181   6.792  10.445   0.316  1.8292 -1.9775  0.8698
42832SOL    HW233182   6.759  10.590   0.344  0.3417 -1.5568 -2.6062
42833SOL     OW33183   6.009   2.530   2.717  0.0353  0.1796  0.1282
42833SOL    HW133184   5.936   2.471   2.735 -0.4444  0.0681 -1.9710
42833SOL    HW233185   6.071   2.477   2.666  0.2619  1.0643 -0.5433
42834SOL     OW33186   6.979   2.274   3.638  0.0743 -0.1499  0.8477
42834SOL    HW133187   7.029   2.199   3.607  0.7043  0.1024  1.2510
42834SOL    HW233188   6.989   2.340   3.570 -1.1119 -0.6800  0.1214
42835SOL     OW33189  10.401  11.027   1.280 -0.7979 -0.1265  0.4101
42835SOL    HW133190  10.496  11.021   1.288 -0.8842 -2.2175  0.3765
42835SOL    HW233191  10.386  11.070   1.196  0.1220 -0.3441  0.1262
42836SOL     OW33192   3.706   1.433   6.925  0.0048 -0.2325 -0.5063
42836SOL    HW133193   3.621   1.427   6.968  0.2808 -0.8233 -0.0188
42836SOL    HW233194   3.686   1.424   6.832 -0.4498 -0.5571 -0.3820
42837SOL     OW33195   6.002   6.079  10.139  0.3908 -0.1399  0.3280
42837SOL    HW133196   6.026   5.990  10.113 -0.2759 -0.4549  0.7679
42837SOL    HW233197   6.081   6.114  10.180  0.6291 -0.5637  0.2330
42838SOL     OW33198   2.770   0.565   5.660  0.0990 -0.5325 -0.5600
42838SOL    HW133199   2.727   0.592   5.742 -0.4088 -2.6055 -0.1010
42838SOL    HW233200   2.781   0.471   5.669  0.2050 -0.7700 -2.8291
42839SOL     OW33201  11.401   5.360   1.015 -0.4644 -0.0632 -0.0736
42839SOL    HW133202  11.421   5.269   0.992  2.9010  0.7555 -0.8386
42839SOL    HW233203  11.407   5.408   0.933  1.8629  1.4193  0.8760
42840SOL     OW33204   2.557   4.436  10.732  0.6827 -0.3496  0.0690
42840SOL    HW133205   2.584   4.345  10.718  1.9792 -0.0092  0.1865
42840SOL    HW233206   2.578   4.480  10.649 -3.4065 -0.8243 -1.4608
42841SOL     OW33207   7.150   1.485   6.889  0.1272 -0.5261  0.8881
42841SOL    HW133208   7.196   1.565   6.864  0.2715 -0.4458  1.3910
42841SOL    HW233209   7.125   1.500   6.980  1.0956 -1.4832  1.3243
42842SOL     OW33210   7.957   0.619  10.488  0.3788 -0.4243 -0.8618
42842SOL    HW133211   7.916   0.705  10.488  1.6555  0.2107 -0.1280
42842SOL    HW233212   7.884   0.558  10.475 -1.1213  0.5249  2.1471
42843SOL     OW33213   7.071   8.513   1.313  0.1039  0.1681  0.0148
42843SOL    HW133214   7.007   8.543   1.378  1.1774 -1.2586  1.8603
42843SOL    HW233215   7.019   8.472   1.244 -1.0330  0.1799  0.8407
42844SOL     OW33216   5.309   0.177   2.854 -0.3496  0.4597 -0.1784
42844SOL    HW133217   5.233   0.217   2.897 -1.1741 -0.7056 -0.5137
42844SOL    HW233218   5.344   0.117   2.920  0.9105  1.7123  0.3397
42845SOL     OW33219   9.526  10.059   2.650  0.4627  0.2536  0.0149
42845SOL    HW133220   9.496  10.089   2.565 -0.1682 -0.9488 -0.2154
42845SOL    HW233221   9.479  10.114   2.713 -2.2145 -1.4184 -0.3342
42846SOL     OW33222  11.818   3.674   7.190  0.0091 -0.0629  0.0738
42846SOL    HW133223  11.772   3.600   7.231  0.0267  0.1269  0.4333
42846SOL    HW233224  11.754   3.709   7.128 -0.3871  0.2718  0.6559
42847SOL     OW33225   5.693  11.729   1.723  0.3592 -0.4898  0.6238
42847SOL    HW133226   5.750  11.804   1.738  0.5605 -0.0497 -1.9339
42847SOL    HW233227   5.608  11.768   1.700 -0.0150 -1.1039  0.9204
42848SOL     OW33228   3.157  11.954   0.309  0.0927 -0.7268 -0.2628
42848SOL    HW133229   3.197  11.971   0.395 -1.6590 -1.4876  0.7390
42848SOL    HW233230   3.157  12.040   0.267 -0.4211 -0.0036  1.1302
42849SOL     OW33231   3.649   9.091   6.331  0.2355  0.1561  0.5502
42849SOL    HW133232   3.578   9.055   6.385 -2.6542  0.3257 -2.7338
42849SOL    HW233233   3.642   9.185   6.343 -0.7260  0.2231 -0.3547
42850SOL     OW33234   3.470  10.083   6.618 -0.4041 -0.1708 -0.0957
42850SOL    HW133235   3.510   9.997   6.634 -0.5520 -0.6290 -2.0017
42850SOL    HW233236   3.439  10.079   6.528 -2.0931  1.2409  0.3665
42851SOL     OW33237   9.393   3.668   5.302  0.0958  0.2204 -0.4087
42851SOL    HW133238   9.352   3.725   5.236  2.6508  0.9467 -1.4784
42851SOL    HW233239   9.435   3.599   5.251 -0.0563 -0.6977  0.6732
42852SOL     OW33240   1.813   9.696   5.845  0.4019 -0.4266 -0.0764
42852SOL    HW133241   1.816   9.727   5.936 -0.3629 -1.3969  0.2914
42852SOL    HW233242   1.846   9.770   5.794 -1.1893  0.9520  0.7878
42853SOL     OW33243  10.991   0.292   9.532 -0.3831 -0.3364  0.1709
42853SOL    HW133244  10.924   0.275   9.465 -1.4133  0.5972  0.9423
42853SOL    HW233245  10.993   0.387   9.540  0.2670 -0.4135  0.9483
42854SOL     OW33246   1.369   7.928   1.059  0.1108 -0.1532 -0.1439
42854SOL    HW133247   1.309   7.982   1.008 -0.2247  0.5421  0.9671
42854SOL    HW233248   1.321   7.847   1.075  0.4650 -0.6583 -1.4637
42855SOL     OW33249  10.502   0.904   5.096 -0.2365  0.2735  0.4961
42855SOL    HW133250  10.410   0.925   5.111 -0.4033  0.3136 -0.4904
42855SOL    HW233251  10.544   0.988   5.079 -0.2154  0.1696  0.0043
42856SOL     OW33252   4.911   1.790   5.597  0.0545 -0.6395 -0.0865
42856SOL    HW133253   4.881   1.715   5.547  1.4949 -1.2857 -0.0475
42856SOL    HW233254   4.999   1.808   5.562 -0.0818  0.7298  0.2211
42857SOL     OW33255   9.334   5.991   6.887  0.2894 -0.5125 -0.0060
42857SOL    HW133256   9.320   5.908   6.841  0.0323  0.0240 -0.8969
42857SOL    HW233257   9.260   6.046   6.861  0.3286 -0.0801  0.7744
42858SOL     OW33258   0.050  10.628   5.241 -0.4038  0.2614 -0.3257
42858SOL    HW133259   0.032  10.661   5.329  1.0776  1.9629 -0.5927
42858SOL    HW233260  -0.017  10.669   5.186 -0.0375  0.9436 -0.2829
42859SOL     OW33261   8.895   8.069   9.207 -0.1025 -0.1093 -0.2794
42859SOL    HW133262   8.927   8.087   9.119  0.1962  1.2289  0.0924
42859SOL    HW233263   8.952   8.120   9.264 -1.6727  0.8141  0.5239
42860SOL     OW33264  10.234   2.200   6.035 -0.1980  0.2137 -0.1316
42860SOL    HW133265  10.177   2.165   6.103 -0.3437  0.0080 -0.3559
42860SOL    HW233266  10.236   2.131   5.968  2.0160 -0.7123  0.7988
42861SOL     OW33267   1.533   0.785   0.892  0.3507 -0.2761  0.2001
42861SOL    HW133268   1.592   0.835   0.835  0.2333 -1.3190 -0.8758
42861SOL    HW233269   1.591   0.746   0.957  0.7800 -0.7407 -0.4450
42862SOL     OW33270   4.974   0.704  11.680  0.0229 -0.1584  0.0225
42862SOL    HW133271   5.020   0.779  11.718  0.3840 -1.1937  1.7138
42862SOL    HW233272   4.889   0.738  11.654  0.5470  1.0519 -0.1840
42863SOL     OW33273   2.635   1.466   6.497 -0.3493  0.1909 -0.6823
42863SOL    HW133274   2.670   1.377   6.502 -0.3350  0.1617 -1.2821
42863SOL    HW233275   2.662   1.498   6.411 -1.3706  0.3366 -0.9614
42864SOL     OW33276   0.322   2.094  10.203  0.0748 -0.7961  0.4211
42864SOL    HW133277   0.285   2.182  10.207  1.7235 -0.0854  0.7161
42864SOL    HW233278   0.316   2.061  10.293 -0.5361 -1.0040  0.3118
42865SOL     OW33279   6.683  11.481   4.259  0.7066 -0.0415  0.5459
42865SOL    HW133280   6.651  11.394   4.235 -0.6075  0.3421  0.8444
42865SOL    HW233281   6.710  11.472   4.351 -0.0200  0.0144  0.7694
42866SOL     OW33282   1.025   8.309   0.167  0.0156  0.1190  0.2757
42866SOL    HW133283   0.997   8.399   0.182 -0.2523  0.2100 -0.6641
42866SOL    HW233284   1.044   8.305   0.073 -0.8848 -1.0362  0.1124
42867SOL     OW33285   7.851   2.641   2.949 -0.0561 -0.0027  0.3346
42867SOL    HW133286   7.919   2.656   3.015 -0.4677 -0.4368  0.8736
42867SOL    HW233287   7.791   2.715   2.958  0.7169  0.7732 -0.6463
42868SOL     OW33288  10.339   9.467   3.161  0.0730  0.3479  0.0499
42868SOL    HW133289  10.287   9.547   3.156 -0.0847  0.3030  0.9658
42868SOL    HW233290  10.278   9.400   3.193  0.6008  0.2259  0.8286
42869SOL     OW33291  11.894   9.905   6.928 -0.1314  0.5339 -0.1148
42869SOL    HW133292  11.807   9.895   6.968  0.4334 -0.4862  0.9126
42869SOL    HW233293  11.924   9.990   6.958 -0.0127  0.0901  1.1031
42870SOL     OW33294   6.033   0.713   9.315 -0.4565 -0.2908  0.1654
42870SOL    HW133295   5.968   0.772   9.352 -0.3662 -0.0686 -0.0292
42870SOL    HW233296   6.062   0.659   9.389 -0.7534 -0.2930  0.2824
42871SOL     OW33297   5.093   8.378   0.695 -0.3310  0.2201  0.6278
42871SOL    HW133298   5.076   8.283   0.700  1.2694 -0.0723  1.0064
42871SOL    HW233299   5.007   8.418   0.710 -0.8435 -1.1595  1.6034
42872SOL     OW33300   8.231   0.890   6.969  0.2103  0.3437  0.9290
42872SOL    HW133301   8.302   0.846   7.014 -1.0079  0.1050  2.7287
42872SOL    HW233302   8.201   0.957   7.030  1.3336  3.0734 -1.3140
42873SOL     OW33303   9.205   4.874   6.607  0.5623  0.1329 -0.0347
42873SOL    HW133304   9.218   4.840   6.519  0.7446  0.0954  0.0055
42873SOL    HW233305   9.210   4.969   6.597  0.8563  0.1208 -0.0254
42874SOL     OW33306   7.147   3.845   0.226  0.1913  0.2528 -0.5131
42874SOL    HW133307   7.208   3.775   0.204 -0.2764 -0.7705  1.2314
42874SOL    HW233308   7.064   3.800   0.245 -0.2678  1.3186  0.1247
42875SOL     OW33309   4.304   8.775   6.546  0.0602 -0.0784  0.8349
42875SOL    HW133310   4.226   8.720   6.546 -0.6153  0.8614  0.4942
42875SOL    HW233311   4.284   8.846   6.607  0.0964  0.9105 -0.2534
42876SOL     OW33312   1.029  10.216   5.573 -0.2701 -0.1196  0.6785
42876SOL    HW133313   0.946  10.262   5.587 -1.6152 -1.9440 -0.7276
42876SOL    HW233314   1.094  10.286   5.571 -1.9359  1.5380  0.4785
42877SOL     OW33315   1.290   6.616  11.278  0.4016 -0.8632  0.0288
42877SOL    HW133316   1.318   6.525  11.262 -0.6710 -1.0277 -1.0279
42877SOL    HW233317   1.346   6.645  11.351  1.3689 -2.0737 -0.1851
42878SOL     OW33318  10.495   6.912   8.227 -0.4719  0.2190  0.5463
42878SOL    HW133319  10.509   6.979   8.294  0.2817  1.0859 -0.4386
42878SOL    HW233320  10.410   6.874   8.248 -1.4595  2.2674  0.4919
42879SOL     OW33321   3.143   2.124  11.152 -0.2643  0.3569 -0.4579
42879SOL    HW133322   3.228   2.082  11.149  0.1306  0.7169  2.5823
42879SOL    HW233323   3.162   2.217  11.161 -0.8312  0.2540  2.6166
42880SOL     OW33324   6.629   0.320   5.559  0.0840  0.5542  0.2792
42880SOL    HW133325   6.569   0.323   5.485  0.3595  0.0991  0.0365
42880SOL    HW233326   6.710   0.284   5.524  0.4290  0.9435  0.6563
42881SOL     OW33327   6.123   6.465  11.906  0.2660 -0.0773 -0.1221
42881SOL    HW133328   6.061   6.445  11.977 -2.6326  0.5662 -2.3046
42881SOL    HW233329   6.169   6.382  11.892 -0.0130 -0.5814  1.6075
42882SOL     OW33330   3.425  10.700   9.884  0.1253 -0.2864  0.3660
42882SOL    HW133331   3.353  10.664   9.833 -1.2921  0.4102  1.7830
42882SOL    HW233332   3.476  10.624   9.912 -2.3763 -1.2602  2.6657
42883SOL     OW33333  11.820   8.529   8.231  0.0409  0.5639 -0.2504
42883SOL    HW133334  11.726   8.534   8.251  0.2422 -1.2702  1.4251
42883SOL    HW233335  11.824   8.541   8.136 -2.0312 -0.5472 -0.5480
42884SOL     OW33336   8.262   7.727   3.552  0.2962  0.4470  0.1976
42884SOL    HW133337   8.350   7.743   3.517  1.1159 -0.5117  1.7095
42884SOL    HW233338   8.223   7.814   3.558  0.2267  0.7071 -2.6504
42885SOL     OW33339   3.856   0.987   3.941 -0.4358  0.0005 -0.1287
42885SOL    HW133340   3.778   1.036   3.915 -0.2067  0.6218  0.3466
42885SOL    HW233341   3.842   0.966   4.033  0.5351  1.2482  0.3237
42886SOL     OW33342   1.338   4.209   0.045  0.3030  0.1655  0.1206
42886SOL    HW133343   1.400   4.236   0.113 -1.4660  2.5219  0.9614
42886SOL    HW233344   1.359   4.265  -0.029 -1.5681  1.9841  0.8770
42887SOL     OW33345   7.757   7.017   9.030 -0.1251 -0.3705  0.0027
42887SOL    HW133346   7.797   6.931   9.028  0.6796 -0.1191  2.2309
42887SOL    HW233347   7.681   7.007   9.087 -1.2785 -0.0382 -1.4064
42888SOL     OW33348   1.792   5.371   0.995  0.0858  0.8595 -0.3773
42888SOL    HW133349   1.795   5.315   1.073 -0.3054  0.7227 -0.4557
42888SOL    HW233350   1.837   5.321   0.927 -1.0201  0.2493 -0.6825
42889SOL     OW33351   1.391   4.742  10.591  0.4075  0.0905 -0.8126
42889SOL    HW133352   1.325   4.674  10.601  1.9452 -1.2109  1.2080
42889SOL    HW233353   1.473   4.695  10.581  1.6057  1.5659  1.1666
42890SOL     OW33354  11.567   4.621  11.824 -0.0833 -0.3452  0.0990
42890SOL    HW133355  11.556   4.669  11.906  0.4389  1.1622 -0.6830
42890SOL    HW233356  11.655   4.584  11.829 -0.3756 -1.0000  0.5769
42891SOL     OW33357   9.507   0.341   9.517 -0.1293 -0.0105 -0.0714
42891SOL    HW133358   9.415   0.329   9.491 -0.4701  0.2950  0.9314
42891SOL    HW233359   9.518   0.435   9.524 -0.1005 -0.0791  1.0021
42892SOL     OW33360   1.133   7.989  10.537  0.2153  0.4097 -0.2795
42892SOL    HW133361   1.157   7.989  10.630 -1.7440 -0.0416  0.2651
42892SOL    HW233362   1.207   7.947  10.494  1.1722  0.6323  1.0681
42893SOL     OW33363   4.277   9.802   4.123 -0.1790  0.0265 -0.4712
42893SOL    HW133364   4.291   9.712   4.153  1.3686 -0.4043 -2.3077
42893SOL    HW233365   4.230   9.792   4.040 -1.0498  1.0019 -0.1243
42894SOL     OW33366   3.423   8.513   1.342  0.3177 -0.2858  0.0024
42894SOL    HW133367   3.442   8.523   1.248 -1.5654 -0.9572 -0.5014
42894SOL    HW233368   3.388   8.425   1.350 -0.5471  0.1330  1.1560
42895SOL     OW33369  10.527   4.885   7.256  0.3167  0.1960  0.1377
42895SOL    HW133370  10.551   4.799   7.223 -1.1675  1.0147 -3.6085
42895SOL    HW233371  10.609   4.934   7.259  0.7934 -0.5544 -0.4714
42896SOL     OW33372  11.837   0.869   4.307  0.3173 -0.1874  0.3023
42896SOL    HW133373  11.907   0.910   4.256 -0.5048  0.0360 -0.6775
42896SOL    HW233374  11.883   0.816   4.373  1.4021  0.0461 -0.2477
42897SOL     OW33375   4.743   7.515   1.525 -0.1199 -1.3318 -0.2051
42897SOL    HW133376   4.797   7.488   1.599  0.5381  1.0758  0.2981
42897SOL    HW233377   4.658   7.534   1.563  0.3183  0.2484  0.0518
42898SOL     OW33378   3.162   8.952   2.652 -0.8408 -0.2017 -0.3842
42898SOL    HW133379   3.206   8.976   2.570 -1.4136  1.3128 -0.2717
42898SOL    HW233380   3.197   8.865   2.672  2.4381  1.0235 -0.1165
42899SOL     OW33381   1.694   1.534   4.013 -0.3781 -0.0555 -0.1391
42899SOL    HW133382   1.701   1.622   4.052 -0.0463 -0.1517  0.0201
42899SOL    HW233383   1.773   1.489   4.041  0.0815  0.0077 -1.2868
42900SOL     OW33384   0.231   0.969   9.423 -0.4278  0.5899  0.2215
42900SOL    HW133385   0.324   0.949   9.417 -0.7216 -0.3545 -1.8943
42900SOL    HW233386   0.228   1.054   9.468  1.5654  1.4404 -1.1144
42901SOL     OW33387   5.044   4.162  10.107 -0.3832  0.3605 -0.1869
42901SOL    HW133388   5.100   4.153  10.030 -1.8885 -0.5361 -1.2216
42901SOL    HW233389   4.966   4.208  10.076 -0.2368  1.6650  1.2486
42902SOL     OW33390   2.110   2.083  10.147  0.0012  0.4987  0.5717
42902SOL    HW133391   2.185   2.081  10.086  0.1108  3.0651  0.5495
42902SOL    HW233392   2.100   1.991  10.174  1.4333 -0.3518 -1.4913
42903SOL     OW33393   3.085   9.359   2.918 -0.5303 -0.4331  0.1215
42903SOL    HW133394   3.059   9.411   2.994  0.6828  0.6077 -0.1616
42903SOL    HW233395   3.003   9.346   2.870 -1.0678  0.0910  0.8625
42904SOL     OW33396   5.676  10.576   4.739 -0.2646 -0.1150 -0.3566
42904SOL    HW133397   5.682  10.637   4.666 -1.4982 -0.9711 -1.2172
42904SOL    HW233398   5.584  10.577   4.764 -0.3364 -1.6322 -0.4247
42905SOL     OW33399   4.206   9.040   1.259  0.0646  0.0512 -0.3317
42905SOL    HW133400   4.211   8.955   1.215  0.0195 -0.5548  0.7925
42905SOL    HW233401   4.284   9.087   1.230 -0.1519 -0.1654 -1.3345
42906SOL     OW33402   9.687  11.720   3.379 -1.0007  0.0532  0.2028
42906SOL    HW133403   9.613  11.759   3.332 -0.9747 -1.7639 -1.4531
42906SOL    HW233404   9.764  11.746   3.329 -0.8175 -0.5474  0.1664
42907SOL     OW33405   2.137   1.404   8.861 -0.5866 -0.2542 -0.0936
42907SOL    HW133406   2.083   1.445   8.929 -0.4615 -0.3745  0.0802
42907SOL    HW233407   2.187   1.337   8.907  0.6272  0.6648 -0.0060
42908SOL     OW33408  11.620  11.697   1.669 -0.2239 -0.0756 -0.3203
42908SOL    HW133409  11.660  11.741   1.594  0.7315 -0.6537 -0.1842
42908SOL    HW233410  11.692  11.644   1.706 -1.0745 -0.9866  0.0758
42909SOL     OW33411   7.784   0.664   2.256 -0.2598 -0.0533  0.2166
42909SOL    HW133412   7.867   0.648   2.211 -0.9405  0.3377 -1.2458
42909SOL    HW233413   7.787   0.755   2.282  0.2879 -0.3752  1.3299
42910SOL     OW33414   7.047  10.808  11.513  0.0108 -0.0859  0.0124
42910SOL    HW133415   7.098  10.881  11.549 -0.2631 -0.2404  0.7343
42910SOL    HW233416   7.109  10.761  11.457  0.2377  0.5963 -0.3175
42911SOL     OW33417   2.180  10.692   0.883  0.0110 -0.6985 -0.0858
42911SOL    HW133418   2.208  10.783   0.876 -0.4161 -0.3201  2.4309
42911SOL    HW233419   2.261  10.642   0.893  0.1419 -0.2570  1.2732
42912SOL     OW33420   5.970   4.848   1.398  0.0652 -0.1134 -0.6356
42912SOL    HW133421   6.015   4.801   1.469  0.0588 -3.0038 -2.4274
42912SOL    HW233422   5.949   4.781   1.333 -1.4705  2.1404 -2.6416
42913SOL     OW33423   2.322  10.757   3.906  0.2683  0.1019  0.5642
42913SOL    HW133424   2.349  10.743   3.815 -0.5157  2.1086 -0.0246
42913SOL    HW233425   2.253  10.692   3.920 -1.0705  1.1132 -0.9919
42914SOL     OW33426   2.690   9.820   0.546  0.4808  0.0006  0.3602
42914SOL    HW133427   2.681   9.844   0.638  3.0738  1.6687  0.3061
42914SOL    HW233428   2.668   9.900   0.498  1.1384 -0.2146 -0.3269
42915SOL     OW33429  11.389   3.214   2.518  0.2395  0.4954 -0.0677
42915SOL    HW133430  11.358   3.218   2.608 -3.5524  2.1242 -1.2435
42915SOL    HW233431  11.458   3.281   2.514  0.2866  0.5940  1.5471
42916SOL     OW33432   0.440   6.789   6.449  0.4772 -0.3907 -0.0146
42916SOL    HW133433   0.464   6.731   6.521  1.1805 -1.8805 -1.3797
42916SOL    HW233434   0.346   6.773   6.436  0.3767 -0.2130  0.4628
42917SOL     OW33435   0.606   8.220   3.029  0.0158 -0.0377  0.0839
42917SOL    HW133436   0.632   8.294   3.084  0.8873  1.0324 -1.6993
42917SOL    HW233437   0.592   8.149   3.091  1.5738  0.9399  1.6599
42918SOL     OW33438  10.246  11.092   1.717  0.3503 -0.5629  0.0714
42918SOL    HW133439  10.328  11.063   1.758  1.2075  1.4104 -0.1415
42918SOL    HW233440  10.272  11.124   1.631 -0.6245  0.1716  0.0301
42919SOL     OW33441   5.807   3.637   0.453  0.8024  0.2404  0.6793
42919SOL    HW133442   5.818   3.703   0.521  0.2213  0.1230  0.8990
42919SOL    HW233443   5.888   3.640   0.403  1.0634  0.6305  1.1141
42920SOL     OW33444   1.933   4.443   1.741  0.2872  0.6201  0.0669
42920SOL    HW133445   1.972   4.530   1.735  0.2953  0.5785 -0.5404
42920SOL    HW233446   1.983   4.390   1.679  0.5405  0.0816  0.7106
42921SOL     OW33447  11.896   0.200   7.381  0.2074  0.0036 -0.9573
42921SOL    HW133448  11.907   0.285   7.339  1.6652  1.2425  1.6957
42921SOL    HW233449  11.870   0.221   7.471 -1.0703 -2.4383 -0.6629
42922SOL     OW33450   9.990   6.512  11.335  0.3216 -0.0722  0.1796
42922SOL    HW133451   9.937   6.571  11.389  0.5076 -0.7712  1.1495
42922SOL    HW233452  10.049   6.469  11.396  0.5508 -0.8829 -0.5810
42923SOL     OW33453   6.292   9.384  11.783  0.2233  0.1074  0.1943
42923SOL    HW133454   6.212   9.354  11.739  0.1654 -0.6571  0.8010
42923SOL    HW233455   6.357   9.389  11.714 -0.4019  0.9707 -0.3589
42924SOL     OW33456  10.781   5.966   0.063 -0.3032 -0.3919  0.7292
42924SOL    HW133457  10.753   6.057   0.070  0.4331 -0.2784  2.9580
42924SOL    HW233458  10.714   5.917   0.109  0.0405 -0.8138  0.7873
42925SOL     OW33459   3.284   8.986   7.881  0.0971  0.6773  0.0468
42925SOL    HW133460   3.248   8.897   7.882 -0.6678  0.9800  0.8105
42925SOL    HW233461   3.288   9.009   7.788  2.3388 -0.9285 -0.3413
42926SOL     OW33462   3.949  10.718   9.552  0.4854 -0.6908  0.0922
42926SOL    HW133463   3.903  10.756   9.628  2.2000  0.4008  0.6604
42926SOL    HW233464   3.944  10.786   9.485  2.1481 -0.0846  0.5399
42927SOL     OW33465   2.834   6.603   9.166  0.5281 -0.0989 -0.6789
42927SOL    HW133466   2.753   6.616   9.117 -0.8827 -3.7626  0.3281
42927SOL    HW233467   2.860   6.513   9.145  1.8883 -0.5489  2.3535
42928SOL     OW33468   4.743   5.255  11.574 -0.4579  0.5545  0.0526
42928SOL    HW133469   4.704   5.306  11.644 -0.9120  0.5233 -0.1731
42928SOL    HW233470   4.711   5.295  11.494 -0.7171 -0.0042 -0.1295
42929SOL     OW33471   0.422   5.380   4.242 -0.2183 -0.6891  0.0845
42929SOL    HW133472   0.507   5.406   4.278 -0.3203  0.5527 -0.5391
42929SOL    HW233473   0.375   5.343   4.317  1.1798 -2.2314  0.2524
42930SOL     OW33474   8.451   7.791  11.443 -0.2301 -0.0677  0.6236
42930SOL    HW133475   8.511   7.852  11.485 -0.5961  0.5501  0.2680
42930SOL    HW233476   8.463   7.708  11.490  0.6103  0.1502  0.7989
42931SOL     OW33477   5.429  10.711  11.762  0.2101  0.0860  0.5240
42931SOL    HW133478   5.430  10.621  11.729 -0.3907  0.6287 -1.0842
42931SOL    HW233479   5.506  10.717  11.818  0.9489 -1.1081 -0.3161
42932SOL     OW33480   0.746   6.343   4.743  0.2877 -0.0696  0.6811
42932SOL    HW133481   0.725   6.276   4.808  0.3350  0.5868  1.3974
42932SOL    HW233482   0.820   6.390   4.781 -0.9223  1.5775  1.0849
42933SOL     OW33483   6.340   0.745   0.732  0.1034  0.2413  0.5621
42933SOL    HW133484   6.355   0.707   0.818 -0.0123  0.9587  0.9122
42933SOL    HW233485   6.427   0.762   0.697  0.1889 -1.4166 -0.1092
42934SOL     OW33486   6.179  11.355   0.199  0.3365 -0.2044  0.0044
42934SOL    HW133487   6.170  11.262   0.179 -0.9337 -0.1713  0.3106
42934SOL    HW233488   6.253  11.361   0.259 -0.8587 -1.2821  1.6560
42935SOL     OW33489   4.226   1.461   3.370  0.4077 -0.6842 -0.2815
42935SOL    HW133490   4.254   1.522   3.438  0.1736 -1.0268  0.1352
42935SOL    HW233491   4.226   1.376   3.414  2.4676 -1.2937 -1.3156
42936SOL     OW33492   5.358   3.749  10.882 -0.5742  0.0499 -0.0152
42936SOL    HW133493   5.435   3.691  10.881  0.9483  1.9294  0.9282
42936SOL    HW233494   5.284   3.690  10.868  1.0144 -1.8459 -1.1008
42937SOL     OW33495   7.887  10.189   6.078  0.4546  0.7599 -0.5307
42937SOL    HW133496   7.981  10.171   6.081  0.3342  0.1119 -0.4721
42937SOL    HW233497   7.846  10.103   6.088 -0.1277  0.7966 -2.2583
42938SOL     OW33498   5.198   9.338   8.738 -0.3049 -0.0989 -0.0763
42938SOL    HW133499   5.209   9.421   8.691 -2.5479 -0.3457 -1.1659
42938SOL    HW233500   5.259   9.344   8.811  1.1699  1.5718 -1.3510
42939SOL     OW33501  11.317   7.655   1.145  0.1536  0.0503  0.2439
42939SOL    HW133502  11.316   7.749   1.125 -0.1138  0.0665  0.3241
42939SOL    HW233503  11.408   7.628   1.132 -0.2679 -0.2606 -2.4748
42940SOL     OW33504  10.245   0.598  10.199  0.4723  0.2133 -0.4952
42940SOL    HW133505  10.330   0.602  10.242  1.2565 -3.8089 -1.2520
42940SOL    HW233506  10.193   0.538  10.253 -0.9657  0.5232 -1.4591
42941SOL     OW33507   8.126   2.009   6.009  0.0096 -0.4639  0.0067
42941SOL    HW133508   8.060   1.950   6.044  0.0595 -0.5054  0.0315
42941SOL    HW233509   8.082   2.056   5.938 -0.1088 -0.3404  0.1624
42942SOL     OW33510   9.125   3.051   4.957  0.4652 -0.2917 -0.2344
42942SOL    HW133511   9.119   3.094   5.042 -1.0580 -1.4387  0.2671
42942SOL    HW233512   9.074   3.108   4.898 -1.2178 -1.1528  0.3440
42943SOL     OW33513  11.637   2.454   9.189  0.6420  0.5889  0.1613
42943SOL    HW133514  11.649   2.548   9.176  1.3285  0.4263 -0.4025
42943SOL    HW233515  11.716   2.414   9.152  1.2643 -0.0902  2.0811
42944SOL     OW33516   0.166   1.952  12.000  0.0562 -0.0541  0.6005
42944SOL    HW133517   0.258   1.973  11.985  0.9120 -2.3140  2.1065
42944SOL    HW233518   0.148   1.879  11.940 -0.6332  0.0733  0.6381
42945SOL     OW33519   5.869   0.275   6.509 -0.0706  0.5555  0.1819
42945SOL    HW133520   5.951   0.311   6.474 -0.2704  1.4021  0.5678
42945SOL    HW233521   5.802   0.304   6.447 -0.1416  0.2046  0.0886
42946SOL     OW33522  10.476   1.995   1.575 -0.5592  0.0687  0.4683
42946SOL    HW133523  10.504   1.922   1.520 -0.3634 -0.7721  1.6428
42946SOL    HW233524  10.469   1.957   1.663 -3.4869  0.7113  0.5954
42947SOL     OW33525   7.012  11.267  10.350  0.1039 -0.4207  1.0752
42947SOL    HW133526   7.010  11.212  10.429  0.7033 -0.9994  0.7017
42947SOL    HW233527   6.920  11.289  10.334 -0.0511 -0.5204  1.7758
42948SOL     OW33528   6.522   3.654   8.339 -0.5801 -0.8590 -0.2983
42948SOL    HW133529   6.503   3.571   8.383  0.0743 -0.6682  0.3803
42948SOL    HW233530   6.569   3.705   8.405 -0.0959 -0.3321 -1.0354
42949SOL     OW33531   9.818   9.740   5.081  0.0093  0.0374 -0.2909
42949SOL    HW133532   9.908   9.710   5.085  0.4791  1.0916 -1.9457
42949SOL    HW233533   9.765   9.662   5.097  1.1945 -0.6302  0.4990
42950SOL     OW33534  11.358   1.692  11.956  0.0352  0.2868  0.6577
42950SOL    HW133535  11.399   1.618  11.911 -0.1339  0.2228  0.6124
42950SOL    HW233536  11.426   1.723  12.016  0.4235  0.6461  0.0530
42951SOL     OW33537  10.673   3.444   8.382  0.3239  0.6725 -0.4322
42951SOL    HW133538  10.660   3.430   8.476 -0.8339 -1.6485 -0.8886
42951SOL    HW233539  10.588   3.474   8.350  0.2071 -0.2768 -1.0241
42952SOL     OW33540   3.772  11.961   0.005  0.2340 -0.5108  0.7721
42952SOL    HW133541   3.788  12.046   0.045  0.8103 -0.2024 -0.0934
42952SOL    HW233542   3.695  11.927   0.051 -2.0883  1.9299 -1.0351
42953SOL     OW33543  10.973   4.832   3.540 -0.2638  0.2044  0.5541
42953SOL    HW133544  10.998   4.852   3.450  1.1111  0.3226  0.9388
42953SOL    HW233545  11.055   4.837   3.589 -1.1833  1.4184  2.0496
42954SOL     OW33546   4.799   2.190  11.384  0.0907  0.5531 -0.4143
42954SOL    HW133547   4.886   2.213  11.351  0.3214 -0.1011 -0.2884
42954SOL    HW233548   4.801   2.214  11.477  0.0125  0.8782 -0.4983
42955SOL     OW33549  10.867   3.704   0.436  0.2208  0.0710  0.0621
42955SOL    HW133550  10.791   3.647   0.429  0.4400 -0.4350  1.4792
42955SOL    HW233551  10.853   3.754   0.517  1.5808 -0.3539  0.5975
42956SOL     OW33552   2.834   5.618   0.215 -0.5664  0.0984 -0.2449
42956SOL    HW133553   2.779   5.653   0.145 -0.4296 -1.5420 -1.2080
42956SOL    HW233554   2.913   5.671   0.213 -0.6808  0.2425 -1.1555
42957SOL     OW33555  10.710   7.639   0.422  0.6860  0.3586 -0.0923
42957SOL    HW133556  10.667   7.692   0.489 -1.5849 -2.0896  0.5361
42957SOL    HW233557  10.766   7.579   0.471 -1.7339 -2.1261 -0.0980
42958SOL     OW33558   7.366   8.966   7.328 -0.3301  0.1587  0.6141
42958SOL    HW133559   7.396   8.881   7.359 -0.4258  0.2808  1.0477
42958SOL    HW233560   7.421   9.030   7.373 -0.1455  0.3221  0.1625
42959SOL     OW33561   8.209   0.919   7.448  0.2040  0.3927 -0.1999
42959SOL    HW133562   8.120   0.900   7.417 -0.0435  0.0778  0.6685
42959SOL    HW233563   8.201   1.003   7.493  0.1979  0.0269  0.4838
42960SOL     OW33564   7.985  10.385   0.069 -0.5102  0.0891  0.2053
42960SOL    HW133565   7.904  10.383   0.018 -1.1025  0.8093  1.0755
42960SOL    HW233566   8.000  10.478   0.085  0.1622 -0.0788  0.5624
42961SOL     OW33567   1.487   0.075  11.323 -0.3949 -0.4114  0.1507
42961SOL    HW133568   1.533  -0.001  11.358  0.5860 -0.3016 -0.8665
42961SOL    HW233569   1.442   0.113  11.399  1.5394 -0.2642  1.2872
42962SOL     OW33570   3.013   1.962   6.301  0.1651 -0.0035 -0.0190
42962SOL    HW133571   3.098   1.931   6.269  0.5981  1.5673 -0.4872
42962SOL    HW233572   2.972   1.884   6.338  1.0753 -1.1855 -1.3532
42963SOL     OW33573   2.746   0.624   4.344 -0.1707  0.1197 -0.0860
42963SOL    HW133574   2.796   0.670   4.276 -0.6152 -0.9628 -1.1907
42963SOL    HW233575   2.759   0.676   4.423  1.2524  0.8308 -0.7478
42964SOL     OW33576  10.294   3.149  10.806 -0.7374 -0.1186  0.5804
42964SOL    HW133577  10.272   3.166  10.897 -0.0870 -0.2524  0.7655
42964SOL    HW233578  10.347   3.225  10.780 -0.8744 -0.1079  0.3273
42965SOL     OW33579   5.209   4.655   6.755  0.5670  0.3788  0.4813
42965SOL    HW133580   5.287   4.705   6.733 -0.3339  1.9161  0.6494
42965SOL    HW233581   5.136   4.709   6.724 -0.4677 -0.5558  1.2072
42966SOL     OW33582   3.014   2.576   1.842 -0.4296 -0.2188 -0.0003
42966SOL    HW133583   2.939   2.601   1.896  1.5628  1.9173  1.9958
42966SOL    HW233584   3.055   2.504   1.891  0.2813  0.3946  0.3104
42967SOL     OW33585   1.918   6.157   2.339  0.0518  0.2019  0.3950
42967SOL    HW133586   1.868   6.149   2.420 -1.1894  0.4525 -0.3099
42967SOL    HW233587   1.899   6.077   2.291  1.0485 -0.0982  0.4760
42968SOL     OW33588  11.168   4.565   0.840  0.2950 -0.1635  0.1518
42968SOL    HW133589  11.107   4.513   0.892 -0.2018  0.0093 -0.2407
42968SOL    HW233590  11.130   4.566   0.752 -0.8616  2.5581  0.5618
42969SOL     OW33591   6.814  11.268   2.434 -0.1146 -0.1221 -0.3093
42969SOL    HW133592   6.835  11.288   2.342 -2.4370 -1.2932 -1.1927
42969SOL    HW233593   6.738  11.209   2.428 -1.3106  1.0056  2.4090
42970SOL     OW33594   3.660   6.934   1.381  0.2671  0.0862  0.1583
42970SOL    HW133595   3.596   6.885   1.432  0.0393 -2.1149 -2.0068
42970SOL    HW233596   3.608   6.976   1.312  0.8525  0.5035 -0.0347
42971SOL     OW33597   5.790   5.940   7.921 -0.1270  0.2549  0.2970
42971SOL    HW133598   5.857   5.991   7.875 -0.1225 -1.1177 -1.3273
42971SOL    HW233599   5.707   5.973   7.886 -0.1379 -0.4860 -0.4216
42972SOL     OW33600   5.102   0.085   4.230 -0.8082 -0.4624 -0.2637
42972SOL    HW133601   5.099  -0.010   4.238 -0.8100 -0.2980  3.0486
42972SOL    HW233602   5.195   0.107   4.236 -0.7973 -0.2357 -1.1295
42973SOL     OW33603   2.879   8.753   3.910 -0.1411 -0.0883 -0.2007
42973SOL    HW133604   2.870   8.840   3.870  1.2267 -0.7618 -2.0790
42973SOL    HW233605   2.973   8.736   3.910 -0.3839 -1.5399  0.2134
42974SOL     OW33606   5.725   1.102   4.271 -0.0431  0.2746 -0.3252
42974SOL    HW133607   5.697   1.133   4.185 -1.6536 -0.3316 -0.0523
42974SOL    HW233608   5.667   1.028   4.289  0.0958  0.5617  1.4001
42975SOL     OW33609  10.172   3.523  11.578 -0.6546  0.1722 -0.0915
42975SOL    HW133610  10.166   3.443  11.526 -4.1984  0.2509 -0.0631
42975SOL    HW233611  10.085   3.562  11.572  0.5476  3.3467  1.0287
42976SOL     OW33612   9.068   2.579  11.108 -0.0751 -0.2459  0.1052
42976SOL    HW133613   9.118   2.562  11.028 -2.3708  0.4612 -1.5935
42976SOL    HW233614   9.114   2.651  11.151  0.7654 -0.1021 -0.9967
42977SOL     OW33615   0.717   7.761   7.044 -0.2667  1.0667 -0.3122
42977SOL    HW133616   0.698   7.683   7.097 -0.0869  1.4094  0.2675
42977SOL    HW233617   0.649   7.761   6.977  0.8893 -0.7150 -1.5848
42978SOL     OW33618   4.777   5.130   0.190 -0.9028  0.2087  0.9723
42978SOL    HW133619   4.775   5.040   0.156 -1.4466  0.4524  0.3466
42978SOL    HW233620   4.848   5.129   0.255 -2.3470 -1.2585  2.6325
42979SOL     OW33621   2.741  10.507   6.044  0.6640 -0.4059 -0.0864
42979SOL    HW133622   2.740  10.559   5.963  0.2110 -1.1861 -0.5893
42979SOL    HW233623   2.816  10.449   6.034  0.1764 -1.0183 -0.2909
42980SOL     OW33624   2.411   9.066   0.173  0.1389  0.5527  0.4687
42980SOL    HW133625   2.353   9.112   0.113  0.1054  0.2355  0.2584
42980SOL    HW233626   2.427   9.129   0.244  1.6116  1.6218 -0.7337
42981SOL     OW33627   0.418   1.568   1.205  0.3267 -0.4331  0.4833
42981SOL    HW133628   0.411   1.497   1.141 -1.0900  0.1181 -0.0126
42981SOL    HW233629   0.471   1.531   1.276 -0.8481 -2.1959  0.5110
42982SOL     OW33630  10.069   3.130   4.279 -0.2261  0.1921 -0.0519
42982SOL    HW133631  10.147   3.091   4.241  0.3868  1.7323 -0.4438
42982SOL    HW233632  10.082   3.225   4.270 -1.8494  0.5018  0.4385
42983SOL     OW33633   5.063  10.314   0.200 -0.2557 -0.5168 -0.5004
42983SOL    HW133634   5.066  10.347   0.290 -1.9486  0.6102 -0.8161
42983SOL    HW233635   5.153  10.319   0.170  0.1622  0.1170  0.7752
42984SOL     OW33636   5.529  11.960   0.610  0.6299  0.3494 -0.1909
42984SOL    HW133637   5.554  11.867   0.617  0.3935  0.2646 -0.4767
42984SOL    HW233638   5.444  11.959   0.568  0.2392  0.6588  0.5746
42985SOL     OW33639   4.471   7.864   6.220  0.2281  0.0894  0.7106
42985SOL    HW133640   4.405   7.822   6.276  0.2598  1.5431  1.8794
42985SOL    HW233641   4.444   7.955   6.214  0.0579 -0.0408 -1.9532
42986SOL     OW33642   6.646   0.836   5.789  0.0586  0.6416 -0.2999
42986SOL    HW133643   6.603   0.828   5.874 -0.5187 -1.2637 -0.7300
42986SOL    HW233644   6.580   0.807   5.726  1.5456 -1.1701 -1.0949
42987SOL     OW33645   7.964   2.822   9.959 -0.0705 -0.3558 -0.2415
42987SOL    HW133646   8.033   2.796   9.897 -0.1751  0.5391 -0.7422
42987SOL    HW233647   8.011   2.840  10.041  0.2643 -0.0468 -0.4979
42988SOL     OW33648   0.189  10.216   2.296  0.1906  0.6201 -0.0418
42988SOL    HW133649   0.112  10.262   2.264  0.3760  0.7980 -0.2339
42988SOL    HW233650   0.215  10.263   2.375  0.9699  1.4687 -0.7783
42989SOL     OW33651   7.325  10.225   4.606 -0.4398  0.1867 -0.1564
42989SOL    HW133652   7.252  10.166   4.592  0.2527 -0.8002  0.2462
42989SOL    HW233653   7.364  10.197   4.689  1.2864 -0.3017 -1.0771
42990SOL     OW33654   9.552   5.320  10.590 -0.3739 -0.1869  0.1578
42990SOL    HW133655   9.534   5.228  10.569 -0.3989 -0.6833  2.1951
42990SOL    HW233656   9.469   5.355  10.620 -0.5169  0.7144 -1.2234
42991SOL     OW33657  10.280   2.759  10.098 -0.5320 -0.4454 -0.3146
42991SOL    HW133658  10.331   2.679  10.087 -0.0423  0.0700 -2.0902
42991SOL    HW233659  10.324   2.806  10.170  0.0207 -1.1163 -0.2050
42992SOL     OW33660   8.467   2.339   0.879  0.2012  0.1434 -0.2911
42992SOL    HW133661   8.477   2.354   0.785 -1.4699  1.3445 -0.3174
42992SOL    HW233662   8.436   2.248   0.886  2.2720 -0.6465 -0.7243
42993SOL     OW33663   1.628   1.396   9.047 -0.1971 -0.2203  0.0427
42993SOL    HW133664   1.670   1.338   8.983  0.5706  0.4807 -0.1013
42993SOL    HW233665   1.641   1.352   9.131  0.9828  0.0639  0.0203
42994SOL     OW33666   1.569   8.507   9.174  0.0671  0.0736 -0.4341
42994SOL    HW133667   1.632   8.494   9.102 -1.1227 -1.2384 -1.2882
42994SOL    HW233668   1.533   8.594   9.158  2.6637  1.5354  0.9433
42995SOL     OW33669   4.558   8.356   4.502  0.4656 -0.5228  0.5936
42995SOL    HW133670   4.480   8.318   4.460 -1.0937  1.7547  1.2407
42995SOL    HW233671   4.551   8.329   4.594  0.4328 -0.3164  0.6525
42996SOL     OW33672  11.936   7.054   3.869  0.0743 -0.0446 -0.1369
42996SOL    HW133673  11.967   7.082   3.955 -0.0804 -0.0470 -0.0788
42996SOL    HW233674  11.902   7.135   3.829  1.4034  0.2336 -0.7546
42997SOL     OW33675   0.547   3.052   7.876  0.4373  0.7999 -0.0187
42997SOL    HW133676   0.472   2.993   7.876 -0.7966  2.3033 -0.8200
42997SOL    HW233677   0.623   2.994   7.868 -0.7125 -0.6780 -0.6877
42998SOL     OW33678   7.246  10.942   1.067  0.3352  0.5111  0.2275
42998SOL    HW133679   7.298  10.989   1.133  3.7124 -2.0319 -0.3586
42998SOL    HW233680   7.292  10.957   0.985 -1.4028  0.2512 -0.8308
42999SOL     OW33681  10.602   8.317   5.413 -0.0649  0.1857 -0.8993
42999SOL    HW133682  10.591   8.405   5.449  0.3353  0.5430 -1.6502
42999SOL    HW233683  10.675   8.324   5.352 -0.2171 -0.6067 -1.1856
43000SOL     OW33684   2.638   3.861   0.263  0.0700 -0.2726  0.3187
43000SOL    HW133685   2.696   3.936   0.279  1.5713  0.1034 -4.8386
43000SOL    HW233686   2.550   3.899   0.259  0.1861  0.2844  2.3064
43001SOL     OW33687   8.532   0.384   8.061  0.0968  0.0317 -0.7914
43001SOL    HW133688   8.613   0.348   8.097 -0.1482  2.4493  2.7810
43001SOL    HW233689   8.464   0.325   8.093  0.1750  0.2423 -0.2120
43002SOL     OW33690   6.975   6.272  10.090  0.3941  0.1303 -0.5296
43002SOL    HW133691   6.995   6.344  10.150  0.7786  1.2639 -1.9548
43002SOL    HW233692   7.054   6.263  10.037 -0.8178  0.9225 -2.5690
43003SOL     OW33693   8.309   8.082   9.660  0.2533  0.0581 -1.0444
43003SOL    HW133694   8.374   8.065   9.728 -1.1083 -0.6418  0.1398
43003SOL    HW233695   8.267   7.997   9.645 -1.0385  0.6748 -1.0666
43004SOL     OW33696  10.619   8.504   5.138  0.3120 -0.0507  0.1827
43004SOL    HW133697  10.694   8.477   5.192  0.3000 -0.6660 -0.0970
43004SOL    HW233698  10.545   8.504   5.199  0.1008 -1.7571 -0.0360
43005SOL     OW33699  10.081   2.452   8.606  0.2264  0.6487 -0.0449
43005SOL    HW133700  10.118   2.364   8.609  0.8998  0.9281 -0.0993
43005SOL    HW233701  10.061   2.467   8.514 -0.0071  0.5045 -0.0183
43006SOL     OW33702   6.721   7.184   7.565 -0.2884 -0.8095  0.4533
43006SOL    HW133703   6.685   7.273   7.568  1.0201 -0.2656  3.4211
43006SOL    HW233704   6.808   7.194   7.527  0.3519 -0.5595  1.9190
43007SOL     OW33705   6.479   5.653   1.876 -0.1873 -0.4846  0.3931
43007SOL    HW133706   6.426   5.599   1.818  0.4276 -0.1821 -0.4746
43007SOL    HW233707   6.532   5.591   1.925 -0.1629 -0.7129  0.0795
43008SOL     OW33708   4.008   6.716   1.636  0.0245 -0.6552 -0.2723
43008SOL    HW133709   4.018   6.809   1.653 -3.1555 -0.2553  0.1752
43008SOL    HW233710   4.055   6.700   1.555 -0.6604  1.7269 -1.2132
43009SOL     OW33711   9.404   6.194   7.062 -0.1964 -0.5727  1.0122
43009SOL    HW133712   9.379   6.122   7.005  0.5813 -0.1749  0.1263
43009SOL    HW233713   9.331   6.255   7.058  0.8084  0.6319 -1.6270
43010SOL     OW33714   0.193   6.722   6.373 -0.0402  0.2702  0.1051
43010SOL    HW133715   0.145   6.799   6.404 -0.5007  0.0993 -0.1698
43010SOL    HW233716   0.214   6.741   6.282  1.3027  0.7645  0.4939
43011SOL     OW33717   0.687   8.108   3.298 -0.0142 -0.1260  0.3214
43011SOL    HW133718   0.745   8.183   3.311  0.7086 -0.7245  0.6328
43011SOL    HW233719   0.744   8.032   3.307 -0.7073 -0.7138 -0.1354
43012SOL     OW33720   4.851   6.750   3.934  0.2781  0.1822 -0.4785
43012SOL    HW133721   4.816   6.730   3.847  2.1602  3.7669 -2.3060
43012SOL    HW233722   4.945   6.763   3.920  0.5044  1.7101  1.9015
43013SOL     OW33723  10.461   3.743   4.397  0.6094  0.5644  0.0933
43013SOL    HW133724  10.422   3.802   4.333 -1.0710  0.4166  0.9327
43013SOL    HW233725  10.472   3.797   4.475  2.2898  0.6400 -0.1539
43014SOL     OW33726   5.967   9.794   7.174 -0.0333 -0.0762  0.7442
43014SOL    HW133727   5.949   9.881   7.137  1.0758  0.3149  1.0747
43014SOL    HW233728   5.953   9.804   7.268 -0.6746 -0.4784  0.6995
43015SOL     OW33729   6.821   2.712   5.316  0.5171  0.5561  0.3190
43015SOL    HW133730   6.889   2.664   5.364 -1.9631 -0.7592  2.8193
43015SOL    HW233731   6.773   2.645   5.268  1.0059  1.4901 -1.5814
43016SOL     OW33732   0.617   4.581   8.806  0.6455  0.3556  0.6126
43016SOL    HW133733   0.619   4.674   8.787  2.3521  0.2703  0.2268
43016SOL    HW233734   0.696   4.546   8.765  1.1975 -0.8796  2.5912
43017SOL     OW33735   7.996   0.574   8.078 -0.3906  0.0020 -0.6205
43017SOL    HW133736   8.004   0.668   8.092  1.7773  0.1408 -2.1733
43017SOL    HW233737   7.914   0.564   8.029 -0.6931  1.0630 -0.3520
43018SOL     OW33738   6.150   5.213   7.030  0.1404 -0.8398  0.3608
43018SOL    HW133739   6.225   5.267   7.008 -0.3803  0.0921  0.8079
43018SOL    HW233740   6.126   5.240   7.120  0.0018 -1.9568  0.6721
43019SOL     OW33741  10.642  10.747   1.892  0.1872  0.1982  0.2901
43019SOL    HW133742  10.653  10.734   1.986 -0.6896  0.2248  0.4035
43019SOL    HW233743  10.583  10.676   1.865  0.2322  0.3418 -0.1895
43020SOL     OW33744   3.455   4.837   1.492 -0.0977  0.0140  0.0768
43020SOL    HW133745   3.493   4.793   1.568 -1.1340  0.2036  0.7356
43020SOL    HW233746   3.390   4.776   1.458 -0.5049  0.4257  0.0995
43021SOL     OW33747  11.485  11.855   6.499 -0.3734  0.2056 -0.5823
43021SOL    HW133748  11.394  11.866   6.526 -0.3547  3.4021 -1.3726
43021SOL    HW233749  11.483  11.871   6.404  0.7833 -1.8661 -1.0244
43022SOL     OW33750   6.020   6.302   0.888 -0.3235  0.0577  0.2568
43022SOL    HW133751   5.963   6.376   0.910  0.9316  1.0057  0.5050
43022SOL    HW233752   6.104   6.344   0.865 -0.1093 -1.1982 -1.4004
43023SOL     OW33753  10.715   1.149   6.263 -0.5830  0.1303  0.1251
43023SOL    HW133754  10.783   1.214   6.243 -0.9709  0.3152 -0.6611
43023SOL    HW233755  10.708   1.150   6.358  1.4960 -0.8990  0.3418
43024SOL     OW33756   7.611   4.172   3.656  0.4027  0.2137 -0.2141
43024SOL    HW133757   7.537   4.184   3.715 -0.9827  0.0854 -1.8434
43024SOL    HW233758   7.593   4.232   3.583  0.4208 -1.8418 -1.9946
43025SOL     OW33759   7.321   5.901   4.209 -0.1166  0.3860  0.4449
43025SOL    HW133760   7.395   5.875   4.153 -1.7584 -0.9515 -1.2420
43025SOL    HW233761   7.352   5.884   4.298  2.0259  1.0319 -0.1087
43026SOL     OW33762   8.496   2.148   6.188  0.2010 -0.1563  0.0977
43026SOL    HW133763   8.493   2.087   6.262 -2.2825  0.9602  1.0034
43026SOL    HW233764   8.497   2.234   6.228  1.9335  0.4885 -1.1951
43027SOL     OW33765   1.276   2.423   2.227  0.0679  0.5989 -0.4110
43027SOL    HW133766   1.333   2.374   2.167  1.0743 -1.2222  1.9077
43027SOL    HW233767   1.190   2.382   2.217  0.6031 -0.8183  0.5426
43028SOL     OW33768   9.825   2.180   9.663 -0.0512 -0.0645 -0.2034
43028SOL    HW133769   9.744   2.130   9.663 -0.4502  0.5736  0.5431
43028SOL    HW233770   9.807   2.256   9.717  1.2815 -0.3036  0.6140
43029SOL     OW33771   3.098   5.846   1.329  0.6454  0.4366  0.0097
43029SOL    HW133772   3.151   5.903   1.273 -1.1016  0.3722 -1.8489
43029SOL    HW233773   3.156   5.772   1.350  1.8769  1.2690 -0.3443
43030SOL     OW33774   4.233   9.378   5.245 -0.2478  0.4649  0.2904
43030SOL    HW133775   4.154   9.364   5.192 -0.5699 -0.2254  0.9182
43030SOL    HW233776   4.305   9.350   5.188 -0.6266 -0.7375  0.3692
43031SOL     OW33777   5.834  10.393   8.070  0.4165  0.0104 -0.0677
43031SOL    HW133778   5.753  10.442   8.085  0.8711  0.6284  0.3889
43031SOL    HW233779   5.903  10.459   8.074  0.9274 -0.4695 -0.7129
43032SOL     OW33780   2.357   3.531   9.778 -0.0540  0.1338 -0.0242
43032SOL    HW133781   2.383   3.439   9.789 -1.9895 -0.3198  1.3953
43032SOL    HW233782   2.267   3.526   9.747  0.3240  1.5961 -1.4804
43033SOL     OW33783   8.909   1.942   4.920 -0.1132 -0.2708  0.1364
43033SOL    HW133784   8.967   2.018   4.928  0.7582 -0.7664 -1.1807
43033SOL    HW233785   8.894   1.933   4.826 -0.3790 -1.6072  0.2946
43034SOL     OW33786   5.778  10.355   5.158 -0.5634  0.2780 -0.0551
43034SOL    HW133787   5.848  10.341   5.095  1.1623  0.3360  1.7357
43034SOL    HW233788   5.735  10.270   5.167  0.0879 -0.0823 -0.2948
43035SOL     OW33789   4.161   6.512   6.425 -0.0129  0.0708 -0.1896
43035SOL    HW133790   4.147   6.436   6.368  1.0117  0.5865 -1.1755
43035SOL    HW233791   4.173   6.475   6.512 -2.2220 -0.7030 -0.1480
43036SOL     OW33792   4.491   1.241  11.803  0.4446  0.0048  0.4360
43036SOL    HW133793   4.553   1.313  11.815  1.2042 -0.5119 -0.2963
43036SOL    HW233794   4.479   1.205  11.892 -0.4484  1.4108  0.9135
43037SOL     OW33795   4.016   5.218   9.479  0.5464  0.0940 -0.5512
43037SOL    HW133796   3.967   5.152   9.430 -0.0150 -0.4313  0.6542
43037SOL    HW233797   3.952   5.286   9.498  0.3543 -0.4084  0.6941
43038SOL     OW33798   5.475   0.315  10.475  0.0309  0.3592 -0.3770
43038SOL    HW133799   5.389   0.274  10.480 -0.1329  0.7510 -0.0284
43038SOL    HW233800   5.536   0.241  10.477 -0.2615  0.1301  0.2823
43039SOL     OW33801   3.606  10.211   1.746  0.0478 -0.0440  0.1236
43039SOL    HW133802   3.640  10.127   1.775 -1.0211 -0.8924 -0.9804
43039SOL    HW233803   3.533  10.230   1.805 -0.4904 -0.5136 -0.3746
43040SOL     OW33804   1.687   1.647   6.990  0.2660 -0.9305 -0.5684
43040SOL    HW133805   1.642   1.567   6.963  0.1758 -1.1365  0.1823
43040SOL    HW233806   1.771   1.616   7.024 -0.4687 -0.8900  1.3836
43041SOL     OW33807  10.654   3.983   3.414  0.0055  0.4457 -0.3025
43041SOL    HW133808  10.669   3.943   3.500 -0.5558 -3.8083 -1.9576
43041SOL    HW233809  10.561   4.006   3.414 -0.1323 -0.0970  0.0018
43042SOL     OW33810   4.014   4.247   9.156  0.1517  0.2050 -0.4953
43042SOL    HW133811   3.950   4.286   9.097 -0.8172  1.0312  1.0311
43042SOL    HW233812   4.016   4.306   9.232  2.0603 -0.2959 -0.0874
43043SOL     OW33813   6.645   5.035   2.216 -0.1413 -0.0048  0.0500
43043SOL    HW133814   6.603   5.069   2.295  0.3525  0.0589  0.2882
43043SOL    HW233815   6.575   4.990   2.169 -0.3503 -0.4067  0.7290
43044SOL     OW33816   5.615   4.073  10.066  0.1196  0.3101  0.0868
43044SOL    HW133817   5.594   4.165  10.056 -1.0247  0.0139 -0.4094
43044SOL    HW233818   5.700   4.063  10.022 -0.2539  0.9270 -0.8053
43045SOL     OW33819   3.790   1.463   4.251  0.0415  0.1304 -0.4780
43045SOL    HW133820   3.830   1.391   4.203  0.3595  1.4998 -2.4238
43045SOL    HW233821   3.827   1.542   4.210 -0.9540  1.3980  0.9585
43046SOL     OW33822   6.196   4.109  11.714  0.1684 -0.3582 -0.3387
43046SOL    HW133823   6.207   4.168  11.640  1.6905  0.1397  0.2514
43046SOL    HW233824   6.194   4.021  11.674 -4.0839  0.0064 -1.4342
43047SOL     OW33825   2.494   9.936   7.425  0.1913 -0.2847  0.3314
43047SOL    HW133826   2.477   9.855   7.377 -0.3533 -0.1814  0.3480
43047SOL    HW233827   2.428   9.938   7.495  0.0872  0.2607  0.2237
43048SOL     OW33828   6.425  11.901   1.644  0.4319  0.0554  0.2342
43048SOL    HW133829   6.448  11.830   1.583  0.4951  0.6314 -0.4274
43048SOL    HW233830   6.332  11.915   1.629 -0.2694 -1.7817  2.3932
43049SOL     OW33831   5.394  11.535  11.518  0.3086  0.4092 -0.0225
43049SOL    HW133832   5.482  11.571  11.531  0.4844  0.1601 -0.5247
43049SOL    HW233833   5.388  11.464  11.581  0.9255 -0.3735 -0.8288
43050SOL     OW33834   9.012   0.803   1.222  0.1636  0.8217 -0.9998
43050SOL    HW133835   9.055   0.760   1.295  2.4018  1.9446 -1.5649
43050SOL    HW233836   8.971   0.881   1.260  0.5877  0.9517 -0.8114
43051SOL     OW33837   1.866   2.751   3.387  0.0148 -0.6944  0.0447
43051SOL    HW133838   1.873   2.799   3.469 -1.0474  0.0829 -0.2968
43051SOL    HW233839   1.931   2.792   3.329  1.0878 -1.5381  0.5983
43052SOL     OW33840   9.019   3.471  10.934 -0.0719  0.1479  0.1016
43052SOL    HW133841   8.931   3.504  10.916  0.2401  0.7986 -0.2847
43052SOL    HW233842   9.061   3.467  10.848  0.0907 -0.7321  0.2094
43053SOL     OW33843   0.214   3.612   8.048 -0.0872 -0.1955 -0.3880
43053SOL    HW133844   0.196   3.574   7.962 -1.6738 -0.4640  0.0353
43053SOL    HW233845   0.142   3.673   8.063  0.2073 -0.0994  0.7294
43054SOL     OW33846  10.579   2.239   2.307 -0.0970  0.1136 -0.6294
43054SOL    HW133847  10.572   2.234   2.211 -0.2720  0.9106 -0.6579
43054SOL    HW233848  10.517   2.173   2.338 -0.1308 -0.0648 -1.0592
43055SOL     OW33849   7.594   1.725   3.620 -0.1276 -0.0960 -0.1667
43055SOL    HW133850   7.614   1.807   3.575  0.2108  0.7784  1.4856
43055SOL    HW233851   7.561   1.752   3.706  1.0780 -1.6743  0.8630
43056SOL     OW33852  11.567   0.813   8.531 -0.3303 -0.7006 -0.0154
43056SOL    HW133853  11.613   0.874   8.473 -0.7896 -1.6801 -1.4729
43056SOL    HW233854  11.477   0.846   8.533  0.2551  1.1234  2.7060
43057SOL     OW33855   0.621   8.201   6.062  0.3094 -0.1806 -0.1082
43057SOL    HW133856   0.576   8.173   5.982 -0.5514 -3.1912  1.2870
43057SOL    HW233857   0.713   8.207   6.036 -0.1480  0.5094 -1.6799
43058SOL     OW33858  11.426   4.024   7.456  0.0616  0.3506 -0.0028
43058SOL    HW133859  11.382   3.938   7.454  0.5854  0.0861 -0.5383
43058SOL    HW233860  11.364   4.082   7.499  0.2710 -0.6210  1.7016
43059SOL     OW33861   7.959   5.270  10.548 -0.4035  0.3378 -1.0456
43059SOL    HW133862   7.955   5.175  10.562 -0.5818  0.5306  0.4009
43059SOL    HW233863   7.879   5.303  10.590  0.9121  1.3551  0.8007
43060SOL     OW33864   2.916   2.639   0.068  0.0217 -0.2396 -0.1583
43060SOL    HW133865   2.822   2.635   0.085  0.2416 -0.2493  1.1624
43060SOL    HW233866   2.931   2.572   0.002 -1.0484  0.4759 -1.1848
43061SOL     OW33867   8.971   4.672   9.755  0.2485 -0.2576  0.0878
43061SOL    HW133868   8.962   4.633   9.841 -1.8108 -2.5221 -1.0289
43061SOL    HW233869   8.901   4.738   9.750 -0.4785 -1.0440 -0.2776
43062SOL     OW33870   3.005  11.208   0.829  0.1564  0.6901 -0.0760
43062SOL    HW133871   3.043  11.215   0.917  2.1720  1.2094 -0.9375
43062SOL    HW233872   2.993  11.298   0.800  1.4648  0.5662 -1.1017
43063SOL     OW33873  11.808   7.121   0.734 -0.1125  0.4172 -0.0374
43063SOL    HW133874  11.871   7.053   0.758 -2.0833 -1.2181  0.7841
43063SOL    HW233875  11.783   7.160   0.818  0.7066  1.9451 -0.4701
43064SOL     OW33876   2.402   8.660   4.800 -0.7991 -0.3006  0.1059
43064SOL    HW133877   2.488   8.702   4.804 -2.0801  2.4516  1.7875
43064SOL    HW233878   2.373   8.674   4.710  0.0116 -0.1759 -0.1436
43065SOL     OW33879   4.097   4.168  10.158 -0.1014  0.3765  0.3013
43065SOL    HW133880   4.100   4.146  10.065  2.0709 -0.8800  0.6094
43065SOL    HW233881   4.127   4.259  10.162 -0.8337  0.6552 -0.2476
43066SOL     OW33882   0.596   5.815   7.371  0.1921  0.2270 -0.1471
43066SOL    HW133883   0.616   5.751   7.440  3.6601 -0.3303 -1.4249
43066SOL    HW233884   0.544   5.766   7.307  1.0382 -0.7438 -0.1241
43067SOL     OW33885   2.045   3.146   4.905 -0.4382 -0.2536  0.5816
43067SOL    HW133886   2.043   3.189   4.990 -2.6791 -0.2846  0.5902
43067SOL    HW233887   2.136   3.157   4.875  0.1169  0.7112  2.4574
43068SOL     OW33888   0.967   6.658   9.247 -0.1548 -0.2143 -0.4310
43068SOL    HW133889   0.917   6.626   9.323 -0.6363  0.0439 -0.6296
43068SOL    HW233890   0.936   6.605   9.174  1.1293 -1.2318 -0.2610
43069SOL     OW33891   5.758  10.449   1.351  0.0550  0.0503  0.0777
43069SOL    HW133892   5.716  10.515   1.406 -1.3335 -0.2822 -0.5316
43069SOL    HW233893   5.791  10.384   1.413 -0.3910  0.2928  0.5776
43070SOL     OW33894   1.990   1.957   1.063 -1.1373 -0.4005  0.1175
43070SOL    HW133895   2.046   1.950   0.986  1.0264  1.4953  1.3751
43070SOL    HW233896   2.030   1.897   1.127  0.0816  1.5322  1.2872
43071SOL     OW33897   4.623  11.623   6.460 -0.6447  0.4843 -0.2901
43071SOL    HW133898   4.708  11.603   6.421 -1.0522 -1.7916 -0.1500
43071SOL    HW233899   4.634  11.709   6.499  1.4783  0.4088 -0.6197
43072SOL     OW33900   2.610   1.207  11.828  0.3613 -0.1837 -0.1393
43072SOL    HW133901   2.699   1.219  11.862  0.3201  0.0866 -0.1268
43072SOL    HW233902   2.562   1.167  11.900  0.6882 -1.1201 -0.4278
43073SOL     OW33903   5.757   3.690   9.183  0.1504  0.5350 -0.3374
43073SOL    HW133904   5.842   3.704   9.223  0.6558 -0.3054 -1.0697
43073SOL    HW233905   5.773   3.698   9.089 -0.1704 -1.4359 -0.6076
43074SOL     OW33906   6.639   0.521  10.063  0.3262  0.5194 -0.2001
43074SOL    HW133907   6.662   0.590  10.125  1.0615 -0.2323  0.3815
43074SOL    HW233908   6.549   0.540  10.038  1.2324  3.1840 -2.0049
43075SOL     OW33909   8.300   6.042   5.563  0.3166  0.1967 -0.2729
43075SOL    HW133910   8.245   6.097   5.507 -0.6076 -0.3568  0.0831
43075SOL    HW233911   8.390   6.070   5.542  0.0019  0.0176 -2.0077
43076SOL     OW33912   9.239   8.017   4.020 -0.4984  0.7614 -1.1469
43076SOL    HW133913   9.206   7.930   4.045  2.3405 -0.6671 -1.9603
43076SOL    HW233914   9.266   8.057   4.102 -0.9963  0.5159 -0.8557
43077SOL     OW33915  11.965   0.303  11.964 -0.3184  0.1760  0.4660
43077SOL    HW133916  11.943   0.230  11.906  2.1956 -0.6132  0.3545
43077SOL    HW233917  11.990   0.261  12.046 -1.5536  1.1328  1.3600
43078SOL     OW33918   7.103   2.179  10.356  0.5557 -0.5572  0.5732
43078SOL    HW133919   7.189   2.138  10.357  0.2600 -1.2480 -0.6796
43078SOL    HW233920   7.044   2.112  10.322 -0.0682  0.6636 -0.8619
43079SOL     OW33921  11.486  11.646   7.300  0.1499  0.3245  0.1244
43079SOL    HW133922  11.399  11.616   7.274 -0.6481  2.5279  0.0213
43079SOL    HW233923  11.545  11.609   7.234 -0.3448 -2.8384  1.2956
43080SOL     OW33924   6.413   1.437   8.764  0.6576 -0.0275  0.4473
43080SOL    HW133925   6.321   1.459   8.782  0.6298  0.3910 -0.1851
43080SOL    HW233926   6.462   1.481   8.834  0.4004  0.0272  0.5943
43081SOL     OW33927   7.375   4.017   3.753  0.4107 -0.1486  0.0250
43081SOL    HW133928   7.348   4.042   3.841 -0.2035 -1.7610  0.3106
43081SOL    HW233929   7.300   4.039   3.697 -0.8711 -2.8465  0.5382
43082SOL     OW33930   1.057   6.219   3.362 -0.3430  0.3316 -0.3365
43082SOL    HW133931   0.971   6.258   3.355  0.7383  2.9900 -0.0054
43082SOL    HW233932   1.090   6.215   3.272 -0.3050  0.5759 -0.3337
43083SOL     OW33933  11.963  10.348   4.483 -0.4680 -0.2967  0.0566
43083SOL    HW133934  11.932  10.438   4.499  0.6154  0.1456 -0.2569
43083SOL    HW233935  12.048  10.344   4.526  0.3777 -0.5472 -1.5558
43084SOL     OW33936   8.605   3.820  11.299 -0.2268  0.1351  0.2678
43084SOL    HW133937   8.664   3.811  11.373  0.6856 -1.6339 -0.5993
43084SOL    HW233938   8.615   3.738  11.250 -3.8973 -0.5585  0.4157
43085SOL     OW33939   3.210   8.876   5.643  0.2932 -0.6099  0.4101
43085SOL    HW133940   3.205   8.787   5.679 -0.0236 -0.5608  0.4885
43085SOL    HW233941   3.216   8.933   5.720 -1.0451 -0.4569  0.4235
43086SOL     OW33942   7.326   8.040   1.675 -0.4107 -0.2151  0.3050
43086SOL    HW133943   7.322   7.951   1.639  0.5347 -0.5742  1.0496
43086SOL    HW233944   7.418   8.050   1.702  0.4118  2.1955 -2.7956
43087SOL     OW33945   0.143   5.239   7.682  0.2021  0.2514 -0.1071
43087SOL    HW133946   0.138   5.267   7.591  0.6565  0.2709 -0.1250
43087SOL    HW233947   0.160   5.145   7.677 -1.3956 -0.0677 -0.0492
43088SOL     OW33948  10.495   5.701   5.038 -0.3954 -0.6940  0.0225
43088SOL    HW133949  10.430   5.631   5.047 -1.3527  0.0957 -0.5394
43088SOL    HW233950  10.466   5.751   4.962  0.4878  0.0923  0.1836
43089SOL     OW33951   5.023  11.566   2.774 -0.0867 -0.9760  0.4867
43089SOL    HW133952   4.958  11.503   2.743 -0.0930  0.0523 -1.8130
43089SOL    HW233953   4.988  11.651   2.748  0.4076 -0.0613  2.6288
43090SOL     OW33954   1.728   6.661   2.550  0.4260  0.1430  0.4946
43090SOL    HW133955   1.765   6.725   2.490  0.4403 -1.1006 -0.9027
43090SOL    HW233956   1.802   6.628   2.600  0.4800  0.9054  0.9232
43091SOL     OW33957   6.188   0.342  11.848 -0.0067 -0.0199 -0.1176
43091SOL    HW133958   6.184   0.291  11.929 -1.2494 -2.3817 -1.5954
43091SOL    HW233959   6.190   0.433  11.879 -2.5779 -0.7053  2.5745
43092SOL     OW33960   2.640   0.291   9.128  0.2288 -0.0825 -0.5579
43092SOL    HW133961   2.656   0.201   9.098 -0.4718 -0.7645  1.0109
43092SOL    HW233962   2.545   0.297   9.135  0.3183  0.4546  0.3044
43093SOL     OW33963   2.756  11.558   1.536 -0.0119 -0.5849 -0.0200
43093SOL    HW133964   2.811  11.510   1.474  1.1112  0.0123  0.4732
43093SOL    HW233965   2.743  11.644   1.496 -0.6943 -0.7692 -0.1914
43094SOL     OW33966   1.223   4.252   1.546  0.1018  0.3038  0.0339
43094SOL    HW133967   1.228   4.164   1.507 -0.4930 -0.4502  1.5522
43094SOL    HW233968   1.312   4.287   1.539  0.9937 -1.4338  1.5436
43095SOL     OW33969   4.222   0.209  11.351  0.4300  0.1445 -0.3940
43095SOL    HW133970   4.272   0.187  11.430 -1.1893  1.9857  1.2446
43095SOL    HW233971   4.169   0.131  11.334  1.5857 -0.6801 -0.3577
43096SOL     OW33972   4.776   0.866   7.624  0.1839  0.1220 -0.3462
43096SOL    HW133973   4.768   0.775   7.653  2.0771  0.1786  0.4959
43096SOL    HW233974   4.706   0.912   7.670  1.1899 -0.3648  1.7925
43097SOL     OW33975   9.147   1.138   4.473 -0.1614 -0.2706  0.5587
43097SOL    HW133976   9.200   1.060   4.458 -1.3747 -1.2652  1.1847
43097SOL    HW233977   9.080   1.134   4.404  1.0273  1.4337 -0.7694
43098SOL     OW33978   3.486   8.108  10.747  0.0122 -0.1519  0.5736
43098SOL    HW133979   3.469   8.169  10.675 -0.0461 -0.9376 -0.0863
43098SOL    HW233980   3.574   8.074  10.731 -0.8884 -2.1361 -0.4969
43099SOL     OW33981  11.033   2.270   1.839  0.1485 -0.2443 -0.0984
43099SOL    HW133982  11.040   2.207   1.768 -1.5270  0.3129 -0.7938
43099SOL    HW233983  10.960   2.326   1.815  0.9006  1.2994  1.0368
43100SOL     OW33984   0.398  10.013   0.520  0.1540 -0.0771  0.1405
43100SOL    HW133985   0.470  10.042   0.464  1.2894 -0.6780  1.2413
43100SOL    HW233986   0.430   9.931   0.559 -0.7457  0.1381  1.3774
43101SOL     OW33987   8.052   4.708   0.552 -0.5616 -0.4828 -0.5725
43101SOL    HW133988   8.142   4.676   0.543 -0.2803  0.1107  0.0211
43101SOL    HW233989   8.015   4.698   0.464  0.1779 -0.4606 -0.9021
43102SOL     OW33990   7.719   6.435   0.577 -0.0630  0.3546 -0.2122
43102SOL    HW133991   7.757   6.474   0.655 -2.2655  1.4758  0.3896
43102SOL    HW233992   7.727   6.502   0.510  0.4653 -0.0334 -0.5448
43103SOL     OW33993   3.918   6.731   5.292  0.7857 -0.6976 -0.3520
43103SOL    HW133994   3.971   6.789   5.238 -0.9640  1.6253  0.2405
43103SOL    HW233995   3.940   6.756   5.382  1.0809 -2.0246 -0.0455
43104SOL     OW33996  11.468   9.386   5.260 -0.7319 -0.1102  0.1757
43104SOL    HW133997  11.547   9.336   5.279 -0.6008 -0.4198 -1.0587
43104SOL    HW233998  11.405   9.321   5.228 -1.6195  0.0827  1.4585
43105SOL     OW33999   2.448   2.418   5.715  0.1379 -0.0903 -0.0860
43105SOL    HW134000   2.502   2.355   5.668 -0.3826 -0.8601  0.3442
43105SOL    HW234001   2.375   2.367   5.750 -0.3444  0.7620  0.1839
43106SOL     OW34002   1.937   7.372   4.006  0.7044  0.2237  0.1982
43106SOL    HW134003   1.989   7.428   4.064  1.8707  0.0109 -0.5897
43106SOL    HW234004   1.988   7.370   3.925 -0.6428  0.1221 -0.6654
43107SOL     OW34005   3.359   1.000   3.779 -0.2363 -0.5259  0.0176
43107SOL    HW134006   3.285   0.995   3.839  0.1591  1.1454  0.7175
43107SOL    HW234007   3.333   1.063   3.712  0.8181  0.7924  0.7746
43108SOL     OW34008   7.290  10.645   8.755 -0.3487 -1.0922 -0.5786
43108SOL    HW134009   7.275  10.598   8.673 -1.4853 -0.5270 -0.7149
43108SOL    HW234010   7.271  10.581   8.823 -0.5739 -1.2142 -0.7544
43109SOL     OW34011  10.831   4.586  11.682 -0.4493  0.1047  0.3778
43109SOL    HW134012  10.907   4.638  11.708  0.2732 -1.3816  1.4200
43109SOL    HW234013  10.758   4.647  11.685  0.5482  1.3477  0.3019
43110SOL     OW34014   8.952   0.213   4.525 -0.1708 -0.5786 -0.3817
43110SOL    HW134015   8.938   0.180   4.613 -0.5475  0.6608  0.0475
43110SOL    HW234016   9.020   0.156   4.488 -0.0019 -1.0987  0.7041
43111SOL     OW34017   5.968   3.190  11.549  0.4592 -1.2802  0.9041
43111SOL    HW134018   5.955   3.135  11.472  2.7377 -1.2086  0.3905
43111SOL    HW234019   5.927   3.142  11.620  1.3278 -3.0709  0.2497
43112SOL     OW34020   5.762  10.132   8.747  0.2353 -0.3592  0.3359
43112SOL    HW134021   5.846  10.165   8.715 -0.6723  1.0812 -0.6761
43112SOL    HW234022   5.777  10.038   8.762  2.1816 -0.0172  0.8028
43113SOL     OW34023   4.800   2.177   2.860 -0.6610  0.5575 -0.3792
43113SOL    HW134024   4.779   2.099   2.911 -1.8985  1.1158 -0.0047
43113SOL    HW234025   4.808   2.146   2.770 -0.9857 -0.0216 -0.2092
43114SOL     OW34026   6.852  11.828   2.122  0.0856 -0.0026 -0.3215
43114SOL    HW134027   6.902  11.765   2.174 -1.4498 -0.5052  0.6098
43114SOL    HW234028   6.918  11.876   2.072  1.4365 -1.0200  0.4289
43115SOL     OW34029  10.338   2.960   4.369 -0.1185 -0.3968 -0.0134
43115SOL    HW134030  10.293   2.921   4.445 -0.8242  1.5517  0.6257
43115SOL    HW234031  10.431   2.952   4.390 -0.2727 -0.8712  0.5324
43116SOL     OW34032   6.984   0.062  11.045 -0.4008 -0.3760  0.5140
43116SOL    HW134033   6.934   0.091  10.968 -0.1922  0.5672  0.7208
43116SOL    HW234034   6.918   0.026  11.104 -0.6829 -0.2873  0.2541
43117SOL     OW34035   4.168   1.466   0.523 -0.4158 -0.6502 -0.2909
43117SOL    HW134036   4.152   1.375   0.550 -1.5474 -0.4465 -0.2449
43117SOL    HW234037   4.115   1.518   0.583 -0.9802 -0.0477 -1.2969
43118SOL     OW34038   5.568   8.938   4.380  0.2002  0.3894 -0.2376
43118SOL    HW134039   5.549   9.026   4.348 -0.8161  0.8343  1.4781
43118SOL    HW234040   5.557   8.882   4.303 -0.6655  1.5795 -1.0174
43119SOL     OW34041   9.784  11.639   6.438  0.6722 -0.1700 -0.4360
43119SOL    HW134042   9.716  11.586   6.396  0.4346  0.7130 -1.1806
43119SOL    HW234043   9.738  11.717   6.469  1.2337  0.1310 -0.3466
43120SOL     OW34044   9.345   2.666   4.278  0.0986  0.6691 -0.4965
43120SOL    HW134045   9.341   2.587   4.331 -0.6654  1.0460  0.0289
43120SOL    HW234046   9.259   2.673   4.238  0.1451  1.2426 -0.5166
43121SOL     OW34047   8.438   5.071   0.389  0.2783  0.1221 -0.0780
43121SOL    HW134048   8.520   5.075   0.339 -0.4288 -0.6050 -1.3556
43121SOL    HW234049   8.420   5.162   0.413  0.7696  0.4647 -0.9606
43122SOL     OW34050   8.604  10.754   9.923  0.0958  0.3693  0.9256
43122SOL    HW134051   8.511  10.772   9.940 -0.2793  0.7529 -1.1957
43122SOL    HW234052   8.632  10.700   9.996 -2.1948 -0.9486  0.9309
43123SOL     OW34053   0.920  11.780   0.824  0.2400  0.1451 -0.2622
43123SOL    HW134054   0.854  11.846   0.805  1.5199  1.3493 -0.7254
43123SOL    HW234055   1.002  11.829   0.833  0.8601 -1.1108  1.8062
43124SOL     OW34056   4.249  11.248   4.996 -0.0046  0.3094  0.6058
43124SOL    HW134057   4.275  11.320   4.939 -0.9111 -0.9627 -1.5479
43124SOL    HW234058   4.214  11.290   5.074  1.2327  2.1287  0.2428
43125SOL     OW34059   9.230  10.181   4.571  0.5067 -0.1668  0.2223
43125SOL    HW134060   9.236  10.178   4.667 -1.1148 -0.5027  0.3551
43125SOL    HW234061   9.319  10.200   4.541  0.9950  0.1726  1.8033
43126SOL     OW34062   1.274   8.790   0.826  0.4303 -0.3176 -0.0451
43126SOL    HW134063   1.240   8.750   0.746 -0.6288 -0.4447  0.4422
43126SOL    HW234064   1.198   8.792   0.885  1.2265 -0.3550  1.0008
43127SOL     OW34065   1.853   1.806   4.355  0.2904  0.0461  0.1282
43127SOL    HW134066   1.930   1.849   4.320 -0.8487  0.2662 -2.3180
43127SOL    HW234067   1.882   1.717   4.375  1.5308  0.5777  0.8086
43128SOL     OW34068  10.691   2.775   3.531 -0.1273 -0.1190  0.3066
43128SOL    HW134069  10.606   2.806   3.560  0.5609  1.9751  0.2296
43128SOL    HW234070  10.749   2.788   3.607  0.4624 -0.0468 -0.1470
43129SOL     OW34071   1.135   2.954   1.110  0.0932 -0.4408  0.0489
43129SOL    HW134072   1.191   2.943   1.186 -0.2500 -1.2615  0.1952
43129SOL    HW234073   1.196   2.969   1.037  0.4669 -0.6911  0.3090
43130SOL     OW34074   1.346   9.678   9.684 -0.4627  0.1556  0.3590
43130SOL    HW134075   1.363   9.721   9.600  1.6188 -0.5241  0.3879
43130SOL    HW234076   1.426   9.629   9.703  0.3011  2.4402  4.0701
43131SOL     OW34077   7.287   7.926  10.866 -0.2639 -0.0178 -0.1415
43131SOL    HW134078   7.195   7.922  10.839 -0.1262 -2.0778 -0.4857
43131SOL    HW234079   7.286   7.897  10.958  0.1601 -1.4751 -0.5733
43132SOL     OW34080   9.969   7.273   7.467 -0.1707 -0.2146 -0.8690
43132SOL    HW134081   9.979   7.192   7.417  0.4228 -1.3088  0.9236
43132SOL    HW234082   9.878   7.272   7.497  0.0542 -0.6244 -0.1912
43133SOL     OW34083   7.790   0.533   6.041  0.3112 -0.0137  0.0565
43133SOL    HW134084   7.736   0.524   6.119 -0.2768 -0.1051 -0.3543
43133SOL    HW234085   7.815   0.443   6.019  0.0193 -0.0401 -0.1744
43134SOL     OW34086  11.565   5.896  11.521  0.0612 -0.0639 -0.8102
43134SOL    HW134087  11.566   5.817  11.576 -1.1069  0.0488 -0.6120
43134SOL    HW234088  11.657   5.923  11.517  0.1346  0.2601  1.5704
43135SOL     OW34089   7.475   8.109  10.451  0.0375  0.7019  0.1250
43135SOL    HW134090   7.568   8.126  10.438  0.3769 -1.2375 -0.3126
43135SOL    HW234091   7.468   8.014  10.454 -1.2848  0.6979  4.7186
43136SOL     OW34092   9.827   5.066   6.986 -0.6436  0.2527 -0.2915
43136SOL    HW134093   9.884   4.989   6.990  1.1181  1.0722 -4.3366
43136SOL    HW234094   9.880   5.138   7.018 -0.3416  0.5689 -1.4506
43137SOL     OW34095   9.709   4.550   2.654  0.0305  0.0389 -0.3547
43137SOL    HW134096   9.683   4.629   2.701  0.3563 -0.1115  0.0812
43137SOL    HW234097   9.701   4.479   2.718  0.1708 -0.2175 -0.6135
43138SOL     OW34098  11.442   5.155   6.273 -0.3208 -0.1047  0.1988
43138SOL    HW134099  11.378   5.094   6.238 -1.2856  1.1215 -0.2466
43138SOL    HW234100  11.393   5.236   6.289  1.1012  0.8789 -0.1763
43139SOL     OW34101   2.586   5.383   2.441  0.2064  0.2566 -0.1314
43139SOL    HW134102   2.547   5.408   2.525 -1.0299  0.0678 -0.6249
43139SOL    HW234103   2.679   5.368   2.461 -0.4260 -1.8113  1.6544
43140SOL     OW34104   6.341  11.320   6.326  0.5332  0.2017  0.0842
43140SOL    HW134105   6.342  11.291   6.235 -0.1397 -1.3537  0.5501
43140SOL    HW234106   6.260  11.371   6.334  0.8981  0.8614 -0.3213
43141SOL     OW34107   9.465   9.021   1.854  0.0918 -0.1720  0.4202
43141SOL    HW134108   9.416   9.096   1.819 -0.0467  0.6266  2.1872
43141SOL    HW234109   9.401   8.974   1.907  0.6789 -0.4170  0.9144
43142SOL     OW34110   7.285   8.735  11.037  0.1135  0.2795 -0.0643
43142SOL    HW134111   7.275   8.752  11.130 -1.3792 -0.8372  0.0249
43142SOL    HW234112   7.325   8.814  11.001  0.9708  0.6077  1.5583
43143SOL     OW34113  11.068  10.098   9.407 -0.3308 -0.4035  0.2208
43143SOL    HW134114  11.142  10.064   9.357 -0.0567  1.5814 -0.8368
43143SOL    HW234115  11.031  10.022   9.452  0.4037 -1.9943 -1.7430
43144SOL     OW34116   1.899   7.635   7.965  0.1515 -0.3604  0.2988
43144SOL    HW134117   1.822   7.597   7.922 -0.6059  0.0994  1.2354
43144SOL    HW234118   1.867   7.714   8.008  1.7308  1.5325 -1.7664
43145SOL     OW34119   6.685   0.089   4.249  0.6471  0.0739 -0.1834
43145SOL    HW134120   6.598   0.081   4.211 -0.2287 -0.2611  1.7722
43145SOL    HW234121   6.733   0.014   4.214 -0.4403 -0.7978  0.1278
43146SOL     OW34122  11.109   6.500   0.301  0.1078 -0.7545  0.0774
43146SOL    HW134123  11.196   6.501   0.340 -0.2816  1.4408  1.0442
43146SOL    HW234124  11.050   6.526   0.373 -0.9744  0.5546 -1.2112
43147SOL     OW34125   7.666   0.520   1.278 -0.8323  0.1538  0.0544
43147SOL    HW134126   7.598   0.577   1.315 -0.4596  1.2634 -0.9126
43147SOL    HW234127   7.631   0.493   1.193 -0.4762 -0.0684 -0.0239
43148SOL     OW34128   0.539  10.175   9.664  0.0181  0.0428  0.7254
43148SOL    HW134129   0.610  10.124   9.703  1.5977  1.0679 -0.6244
43148SOL    HW234130   0.548  10.159   9.569 -1.6649  0.0917  0.5414
43149SOL     OW34131   4.053   4.340   2.455 -0.3105  0.0262 -0.1952
43149SOL    HW134132   3.959   4.344   2.439 -0.1967 -0.9787 -1.2821
43149SOL    HW234133   4.084   4.268   2.400  0.6973 -1.4023  2.1137
43150SOL     OW34134  10.389   4.232  10.015 -0.2286 -0.1651  0.5476
43150SOL    HW134135  10.416   4.272  10.098 -0.3873 -1.1278  1.0916
43150SOL    HW234136  10.457   4.166   9.998 -0.2067  0.0226 -0.0825
43151SOL     OW34137   4.502   6.124   4.289 -0.3781  0.2433 -0.0124
43151SOL    HW134138   4.429   6.111   4.229  0.6082 -0.4050 -1.1189
43151SOL    HW234139   4.549   6.040   4.288 -0.6656 -0.0017  2.1637
43152SOL     OW34140  11.572  10.694   5.736  0.3665  0.2111 -0.3131
43152SOL    HW134141  11.496  10.689   5.678 -1.4500  0.0360  1.9833
43152SOL    HW234142  11.636  10.634   5.696 -0.8830 -0.0986 -1.9649
43153SOL     OW34143  10.529   4.843   8.730  0.3133  0.2690  0.2264
43153SOL    HW134144  10.512   4.856   8.637 -1.5723  0.3231  0.5381
43153SOL    HW234145  10.614   4.799   8.733  0.3201  0.0929 -1.5174
43154SOL     OW34146   2.546   6.887   0.737 -0.4026  0.2826 -0.1826
43154SOL    HW134147   2.483   6.820   0.765 -0.2916  0.6637  1.0615
43154SOL    HW234148   2.500   6.969   0.750  0.0881  0.5273  0.0379
43155SOL     OW34149   3.907   0.042   1.835  0.5167  0.5195  0.5417
43155SOL    HW134150   3.955  -0.037   1.859 -0.5725 -0.7773 -1.3479
43155SOL    HW234151   3.827   0.011   1.793 -0.6636  2.6357  1.0205
43156SOL     OW34152   9.086   0.465   6.534  0.4753  0.6910  0.3098
43156SOL    HW134153   8.995   0.465   6.504  0.7723  1.8087 -0.6342
43156SOL    HW234154   9.133   0.519   6.471  2.0518 -0.8650  0.0557
43157SOL     OW34155   7.266  11.883  10.454  0.0106  0.6899 -0.2169
43157SOL    HW134156   7.170  11.889  10.454 -0.1661 -1.2948 -1.2168
43157SOL    HW234157   7.286  11.813  10.391  2.0027 -0.4271  1.5285
43158SOL     OW34158   4.138   9.015   5.424 -0.1320  0.3748 -0.3246
43158SOL    HW134159   4.070   9.016   5.491  0.4044  2.2454  0.2453
43158SOL    HW234160   4.111   8.945   5.364 -1.0747 -0.7713  1.3388
43159SOL     OW34161   8.727   6.700   2.517  0.8699  0.6594  0.1522
43159SOL    HW134162   8.788   6.742   2.457  0.2980  0.6592 -0.4401
43159SOL    HW234163   8.649   6.755   2.515  0.0618 -0.4865 -0.7412
43160SOL     OW34164   2.738  10.272   0.616  0.5753 -0.7375  0.3176
43160SOL    HW134165   2.655  10.237   0.585  0.3925 -0.4366  0.4672
43160SOL    HW234166   2.779  10.199   0.663  0.4090 -0.8913  0.2240
43161SOL     OW34167   2.678   6.158   7.462 -0.4239  0.0454  0.1742
43161SOL    HW134168   2.601   6.104   7.482  0.0155 -0.9847 -0.8169
43161SOL    HW234169   2.743   6.132   7.527  0.1613 -1.4763 -0.9680
43162SOL     OW34170  11.901   6.228   2.829 -0.1301  0.6535 -0.2689
43162SOL    HW134171  11.865   6.140   2.836  0.2434  0.4809 -0.5508
43162SOL    HW234172  11.955   6.238   2.908  0.0471  0.5285 -0.3728
43163SOL     OW34173   2.278  11.358   0.598 -0.3252 -0.1554 -0.0299
43163SOL    HW134174   2.359  11.386   0.557 -0.5927  0.9288  0.1402
43163SOL    HW234175   2.268  11.266   0.574  0.4762 -0.0422 -0.8106
43164SOL     OW34176   6.575   1.103   0.419  0.2341 -0.6505 -0.0741
43164SOL    HW134177   6.528   1.180   0.387 -0.0804 -0.9310 -0.2918
43164SOL    HW234178   6.509   1.051   0.464  0.6902 -0.2136  1.1527
43165SOL     OW34179   6.367   8.546  10.632  0.5904 -0.1611  0.5530
43165SOL    HW134180   6.358   8.472  10.691  2.4221 -1.3225 -0.5171
43165SOL    HW234181   6.399   8.508  10.550  3.4897  1.9246  0.5414
43166SOL     OW34182  11.037  10.813  11.066 -0.5950 -0.1005 -0.3830
43166SOL    HW134183  11.108  10.871  11.039  0.8790 -1.4276  0.4321
43166SOL    HW234184  10.987  10.797  10.986 -0.2682  1.2522 -0.8734
43167SOL     OW34185   7.608   5.484   2.154 -0.8863  0.2346 -0.0055
43167SOL    HW134186   7.631   5.517   2.067 -0.4683  0.1538  0.0728
43167SOL    HW234187   7.641   5.394   2.156 -1.6019 -0.0326 -0.0454
43168SOL     OW34188   6.855   0.375   5.112  0.4490 -0.4779 -0.7198
43168SOL    HW134189   6.847   0.469   5.131 -0.0378 -1.0288  2.2327
43168SOL    HW234190   6.949   0.361   5.099  0.6165  0.2769 -0.3618
43169SOL     OW34191   9.820   4.582   9.491  0.1420 -0.1935  0.0372
43169SOL    HW134192   9.901   4.551   9.450  0.1150 -0.2763  0.0468
43169SOL    HW234193   9.819   4.542   9.577  1.0921  1.3825  0.8307
43170SOL     OW34194   7.624  10.756   1.754 -0.2969 -0.2957  0.2126
43170SOL    HW134195   7.677  10.716   1.823  1.1306  1.4022  0.1561
43170SOL    HW234196   7.552  10.694   1.740  1.6273 -2.6941  0.3121
43171SOL     OW34197   8.704  11.676   6.375 -0.3275  0.1879  0.4423
43171SOL    HW134198   8.717  11.765   6.407 -1.8590 -0.0746  1.8934
43171SOL    HW234199   8.790  11.649   6.342  1.3141  0.6680  3.9280
43172SOL     OW34200   6.018   1.814   2.856 -0.2550  0.1718 -0.1492
43172SOL    HW134201   6.093   1.873   2.844 -0.6346  0.7649  0.3346
43172SOL    HW234202   6.022   1.788   2.948 -0.5834  0.1251 -0.1467
43173SOL     OW34203   8.822   1.505   8.057  0.0805  0.5208 -0.0836
43173SOL    HW134204   8.759   1.434   8.046 -1.0093  1.6573 -1.6677
43173SOL    HW234205   8.866   1.511   7.972  3.7636 -1.3962  1.4219
43174SOL     OW34206   9.825   7.038   6.183  0.6146  0.2574  0.6211
43174SOL    HW134207   9.813   7.028   6.278  1.9269  1.6539  0.9652
43174SOL    HW234208   9.776   7.117   6.161  0.8560  0.3056  0.2503
43175SOL     OW34209   5.737   4.118   2.076  0.1879  0.3065  0.3112
43175SOL    HW134210   5.828   4.113   2.106  0.2299  1.8107  0.5363
43175SOL    HW234211   5.717   4.030   2.044  1.9861  0.1564 -0.5285
43176SOL     OW34212   3.467   3.442   7.889  0.3058 -0.0861  0.6532
43176SOL    HW134213   3.545   3.474   7.934  0.6101 -0.1638  0.1781
43176SOL    HW234214   3.457   3.352   7.921  1.1511 -0.5156 -0.2444
43177SOL     OW34215   4.682   3.731  10.391 -0.0259  0.6851 -0.0690
43177SOL    HW134216   4.739   3.808  10.400  0.6083  0.1468  0.6795
43177SOL    HW234217   4.719   3.682  10.317  1.9367 -0.8099  1.7571
43178SOL     OW34218   6.602   5.401   1.517  0.3439 -0.5559  0.1016
43178SOL    HW134219   6.609   5.400   1.613  0.1720 -0.6654  0.1129
43178SOL    HW234220   6.645   5.483   1.491  0.1881 -0.4123  0.2892
43179SOL     OW34221   4.220   0.513   0.815 -0.1149 -0.1181  0.5102
43179SOL    HW134222   4.148   0.576   0.812 -1.4236 -1.5697 -1.5575
43179SOL    HW234223   4.281   0.542   0.748  0.1547 -0.1035  0.7569
43180SOL     OW34224   6.799   7.164   8.688 -0.1391  0.2186  0.0092
43180SOL    HW134225   6.771   7.215   8.764  2.3263  1.6794  0.0386
43180SOL    HW234226   6.887   7.134   8.710  0.2214 -0.2133 -1.8524
43181SOL     OW34227   1.833   6.304   8.779  0.2285  0.2526 -0.9135
43181SOL    HW134228   1.830   6.335   8.689  1.9209 -0.3771 -1.2105
43181SOL    HW234229   1.858   6.212   8.772  1.9528  0.5969  0.2547
43182SOL     OW34230   7.826  11.367   0.479  0.0051  0.4584 -0.2720
43182SOL    HW134231   7.872  11.399   0.401 -0.6360  2.8152  0.2510
43182SOL    HW234232   7.733  11.376   0.457 -0.3205 -2.8589 -0.7540
43183SOL     OW34233   0.023   4.713   5.483  0.1916 -0.5312  0.6247
43183SOL    HW134234  -0.069   4.740   5.480  0.4114  0.1745 -0.4480
43183SOL    HW234235   0.040   4.696   5.576 -1.1591 -1.2066  0.7771
43184SOL     OW34236   4.182   9.576   4.897  0.5223 -0.0287  0.2475
43184SOL    HW134237   4.244   9.605   4.963  1.2455  0.0318 -0.4432
43184SOL    HW234238   4.118   9.522   4.945  0.0236  1.4266  1.2876
43185SOL     OW34239   7.939   8.021  10.697  0.1747  0.0419 -0.2870
43185SOL    HW134240   7.853   7.988  10.724 -0.8366  1.1004 -2.0196
43185SOL    HW234241   7.984   8.040  10.779 -0.7473 -1.6869  0.6902
43186SOL     OW34242   6.239   3.242  11.596 -0.4854 -0.5870 -0.9766
43186SOL    HW134243   6.283   3.159  11.578  0.4432  0.2962 -3.1188
43186SOL    HW234244   6.147   3.225  11.575 -0.9735 -1.9243  1.7663
43187SOL     OW34245   9.870   3.771   8.991  0.1503 -0.3997 -0.1238
43187SOL    HW134246   9.906   3.682   8.992 -1.2443 -0.9805  0.4980
43187SOL    HW234247   9.805   3.770   8.921  0.1006  0.1369 -0.0876
43188SOL     OW34248   2.095   5.847   3.066  0.0578  0.7701  0.0652
43188SOL    HW134249   2.156   5.870   3.136 -0.1201 -1.6029  1.0701
43188SOL    HW234250   2.094   5.751   3.064 -3.1587  0.6889 -0.3234
43189SOL     OW34251   6.659   0.073   5.725  0.4884  0.6242 -0.1812
43189SOL    HW134252   6.749   0.047   5.704  0.0644 -0.6247 -0.5340
43189SOL    HW234253   6.667   0.162   5.759  1.8480  0.5625 -0.2917
43190SOL     OW34254   2.648   0.823  12.001 -0.0405 -0.5646  0.5781
43190SOL    HW134255   2.732   0.825  12.048 -0.9974 -1.4069  2.4345
43190SOL    HW234256   2.599   0.897  12.036 -0.0374  0.0339 -0.6276
43191SOL     OW34257   8.246   4.535   0.853 -0.1505 -0.1479 -0.0891
43191SOL    HW134258   8.325   4.501   0.813  0.5363  0.0044  1.0750
43191SOL    HW234259   8.239   4.489   0.937 -1.5520 -0.4915 -0.3618
43192SOL     OW34260   6.188  11.356   8.530  1.0299  0.2452  0.1926
43192SOL    HW134261   6.117  11.295   8.511 -1.9046  2.8118  2.0372
43192SOL    HW234262   6.239  11.312   8.599 -0.8290 -0.2700  1.2942
43193SOL     OW34263   8.081   2.368  11.933  0.2049  0.3053  0.0128
43193SOL    HW134264   8.117   2.431  11.996 -0.4185  3.5368 -2.5643
43193SOL    HW234265   7.990   2.357  11.960 -0.3116  2.3747 -0.7143
43194SOL     OW34266   3.358   8.276   6.266 -0.1437 -0.5541 -0.3436
43194SOL    HW134267   3.425   8.300   6.330  0.1952 -0.5603 -0.6880
43194SOL    HW234268   3.282   8.330   6.288 -0.1976 -0.9166  0.3642
43195SOL     OW34269  11.289   4.280   8.400 -0.1989  0.0035  0.1974
43195SOL    HW134270  11.238   4.324   8.468  1.8035 -0.1966  1.9335
43195SOL    HW234271  11.356   4.231   8.448  1.7406  0.4045 -1.9140
43196SOL     OW34272   2.445   8.219  10.989  0.1528  0.1387  0.0156
43196SOL    HW134273   2.369   8.233  10.932 -0.1574  2.3651  0.8751
43196SOL    HW234274   2.521   8.242  10.935 -0.1839  2.9970  0.5771
43197SOL     OW34275   1.299   6.138   6.670  0.3953 -0.0099 -0.7470
43197SOL    HW134276   1.290   6.065   6.608 -0.2359 -0.1841 -0.4549
43197SOL    HW234277   1.332   6.097   6.750 -2.6211 -0.5087  0.3788
43198SOL     OW34278   6.173   2.695   5.324 -0.0713 -0.2714  0.1278
43198SOL    HW134279   6.218   2.762   5.376  2.1606 -1.4004 -0.2360
43198SOL    HW234280   6.103   2.743   5.279 -0.3754  1.2207  2.0837
43199SOL     OW34281   0.562   4.999   3.625  0.0979  0.9341  0.2960
43199SOL    HW134282   0.540   4.982   3.533 -0.8615  0.5097  0.5863
43199SOL    HW234283   0.651   4.966   3.635  0.0609  0.6079 -0.3825
43200SOL     OW34284   9.991   7.858   8.044 -0.5976  0.1280 -0.1582
43200SOL    HW134285   9.984   7.811   7.961 -2.9452  0.7389 -0.3635
43200SOL    HW234286   9.992   7.951   8.018 -0.7201  0.3039  0.4601
43201SOL     OW34287  10.330   0.140  11.284 -0.2124  0.0887 -0.6062
43201SOL    HW134288  10.299   0.143  11.375  2.1856 -0.2704  0.3251
43201SOL    HW234289  10.254   0.163  11.231 -1.9123 -0.5204  1.4382
43202SOL     OW34290   9.051  10.672   0.418  0.2948 -0.7883  0.0824
43202SOL    HW134291   9.026  10.752   0.464 -0.9223 -0.5368 -0.9483
43202SOL    HW234292   8.987  10.607   0.446 -0.1577 -0.7595 -0.8450
43203SOL     OW34293   3.692   4.302   8.843  0.1904  0.4917  0.3949
43203SOL    HW134294   3.725   4.385   8.878  1.7811  0.0665 -0.0528
43203SOL    HW234295   3.760   4.272   8.784  0.1220 -1.6651  1.3416
43204SOL     OW34296   9.809   5.817   6.640 -0.4310 -0.0646 -0.1078
43204SOL    HW134297   9.775   5.898   6.601 -0.2896  0.1502  0.2039
43204SOL    HW234298   9.877   5.847   6.700 -0.9551 -0.3523  0.6482
43205SOL     OW34299   9.007  11.824   4.551  0.1474  0.4080  0.0461
43205SOL    HW134300   9.042  11.748   4.504  1.5596  1.0214  0.0604
43205SOL    HW234301   9.052  11.899   4.511 -0.8394  1.2012  0.3846
43206SOL     OW34302  10.613   9.167   0.831 -0.0202 -0.4551 -0.0277
43206SOL    HW134303  10.619   9.214   0.914 -0.5631  0.1468 -0.3242
43206SOL    HW234304  10.529   9.121   0.836 -0.6062  0.5064 -0.7100
43207SOL     OW34305   6.963   1.744   6.669 -0.2928 -0.7694 -1.1212
43207SOL    HW134306   7.050   1.731   6.706 -1.0325 -1.9487  0.3006
43207SOL    HW234307   6.914   1.666   6.695 -1.6607 -0.3315 -2.2634
43208SOL     OW34308  11.577   8.564   8.875  0.0620 -0.2346 -0.4065
43208SOL    HW134309  11.668   8.549   8.851  0.5304  0.4126  0.8817
43208SOL    HW234310  11.562   8.508   8.951 -0.9795 -1.2040 -1.2722
43209SOL     OW34311   8.571  11.265  11.187 -0.0617 -0.0923 -0.1697
43209SOL    HW134312   8.594  11.172  11.178 -0.8471 -0.1274 -2.3662
43209SOL    HW234313   8.653  11.312  11.170  0.1614 -0.3597  0.1501
43210SOL     OW34314   3.013   5.411  10.292  0.3097 -0.2370 -0.2352
43210SOL    HW134315   3.071   5.360  10.349  0.7673  0.2216 -0.2788
43210SOL    HW234316   3.046   5.501  10.299  1.8024 -0.4781 -2.9198
43211SOL     OW34317   0.893   5.207   3.807 -0.4124  0.0427 -0.0005
43211SOL    HW134318   0.926   5.139   3.747 -1.1440  0.9109 -1.4369
43211SOL    HW234319   0.936   5.188   3.890  0.0559 -1.6680 -0.5866
43212SOL     OW34320   2.755   2.042   8.951  0.0008  0.3769  0.4993
43212SOL    HW134321   2.840   2.002   8.930  0.0034  1.0401 -0.8592
43212SOL    HW234322   2.747   2.033   9.046  0.5288 -1.7838  0.3936
43213SOL     OW34323  11.072   3.570   8.040 -0.5013 -0.1465  0.5619
43213SOL    HW134324  11.084   3.475   8.041  0.0434 -0.0957  2.0159
43213SOL    HW234325  10.996   3.585   7.984 -1.4806 -1.5491  1.4672
43214SOL     OW34326  10.959   4.311   1.450  0.4144 -0.0805  0.0885
43214SOL    HW134327  10.928   4.394   1.486 -1.3227 -0.0787 -1.2783
43214SOL    HW234328  10.990   4.333   1.362  1.9206 -0.5654  0.4636
43215SOL     OW34329   3.394  11.590   0.000  0.2514 -0.1319  0.3128
43215SOL    HW134330   3.346  11.526   0.053 -0.5089 -0.6216 -0.9225
43215SOL    HW234331   3.346  11.671   0.011 -0.8024 -0.5880 -0.8057
43216SOL     OW34332  10.075   9.362   5.988 -0.4224 -0.3838 -0.2320
43216SOL    HW134333  10.159   9.322   6.011  0.4010 -0.1029 -2.4375
43216SOL    HW234334  10.097   9.424   5.918 -2.1538  1.4873  0.7864
43217SOL     OW34335   0.841  11.132   7.659 -0.1847  0.0996  0.2337
43217SOL    HW134336   0.789  11.181   7.722 -0.2967  0.5075 -0.1666
43217SOL    HW234337   0.879  11.059   7.709 -2.2604 -1.0414  0.2591
43218SOL     OW34338   7.183   1.633  10.395  0.4647  1.3095  0.3087
43218SOL    HW134339   7.253   1.689  10.363 -0.6281  2.1085 -0.8150
43218SOL    HW234340   7.181   1.559  10.334 -0.3574  1.8454 -0.3362
43219SOL     OW34341   8.432   1.741  10.046 -0.0231  0.2380 -0.1898
43219SOL    HW134342   8.394   1.820  10.085  0.8532  0.8532 -0.5575
43219SOL    HW234343   8.431   1.758   9.952  0.2239 -0.1676 -0.2670
43220SOL     OW34344   5.059   1.777  10.030 -0.3811 -0.2312  0.4163
43220SOL    HW134345   5.111   1.854  10.007 -0.3344  0.1170  1.6105
43220SOL    HW234346   4.971   1.812  10.046 -0.9926 -0.7873 -1.4053
43221SOL     OW34347  11.236   0.666   7.237 -0.0562  0.1677 -0.1282
43221SOL    HW134348  11.259   0.701   7.151 -0.7454  2.1895  0.4665
43221SOL    HW234349  11.185   0.587   7.218  0.3436  0.2139 -1.5403
43222SOL     OW34350   3.922  10.698   2.632  0.0235  0.3626 -0.2294
43222SOL    HW134351   3.940  10.732   2.720  1.1154  0.5330 -0.5050
43222SOL    HW234352   3.838  10.737   2.608 -0.5420 -0.0906  0.9307
43223SOL     OW34353   4.564   4.397   3.572  0.0217  0.3410  0.0227
43223SOL    HW134354   4.560   4.492   3.567  0.1860  0.3051 -3.7811
43223SOL    HW234355   4.649   4.375   3.535 -0.0012 -1.3155  0.8659
43224SOL     OW34356   0.278   2.140   9.404 -0.2526  0.7806  0.3378
43224SOL    HW134357   0.306   2.193   9.479  0.7573 -0.4717  0.8838
43224SOL    HW234358   0.352   2.081   9.387 -0.8763  0.3464 -0.9984
43225SOL     OW34359   7.296  10.732   3.820  0.0242 -0.1421 -0.2822
43225SOL    HW134360   7.369  10.700   3.767  0.6907 -1.9834  1.6072
43225SOL    HW234361   7.223  10.673   3.799  0.3079 -0.9170  0.8224
43226SOL     OW34362   8.128   2.623   2.343  0.7614 -0.4905 -0.2671
43226SOL    HW134363   8.217   2.617   2.309  0.1887  1.2137 -2.3092
43226SOL    HW234364   8.129   2.700   2.400  0.5592 -0.2486 -0.5787
43227SOL     OW34365   1.471   4.975  11.838  0.4840  0.2234  0.2970
43227SOL    HW134366   1.489   5.069  11.834  2.5872 -0.1454 -0.1061
43227SOL    HW234367   1.556   4.936  11.860 -0.6661 -1.4776  2.0165
43228SOL     OW34368   1.918   6.026   8.793  0.3981 -0.6491 -0.0734
43228SOL    HW134369   1.947   5.957   8.733  1.7114  0.5786 -0.8934
43228SOL    HW234370   1.992   6.040   8.851 -0.1341 -0.4218  0.5562
43229SOL     OW34371  10.166   4.573   8.144 -0.1327  0.2535 -0.0620
43229SOL    HW134372  10.190   4.500   8.202 -1.2943  0.6496  0.9669
43229SOL    HW234373  10.243   4.587   8.090  0.6144 -0.8314  0.6771
43230SOL     OW34374   9.664   5.510   3.586 -0.3558  0.2002  0.2649
43230SOL    HW134375   9.674   5.547   3.674  1.5514 -1.4044  0.8161
43230SOL    HW234376   9.659   5.416   3.601 -3.8822  0.0230 -1.1514
43231SOL     OW34377   8.452   0.272   8.366  0.5076 -0.2131 -0.6266
43231SOL    HW134378   8.454   0.246   8.458 -1.4045  3.0016  0.4895
43231SOL    HW234379   8.545   0.284   8.343  1.0104 -0.7330  0.9919
43232SOL     OW34380  11.937  10.091   7.637  0.3848  0.3690 -0.0628
43232SOL    HW134381  11.996  10.162   7.658  1.8920 -0.9234  0.2648
43232SOL    HW234382  11.910  10.055   7.722 -0.2150  0.4214 -0.2247
43233SOL     OW34383   4.375   4.921   6.670  0.1053 -0.2021  0.6898
43233SOL    HW134384   4.380   4.990   6.737  1.9100  0.4306 -0.0263
43233SOL    HW234385   4.450   4.864   6.689  0.9641  0.2716 -1.0595
43234SOL     OW34386   1.699   0.431   6.044 -0.0174  0.3579  0.6278
43234SOL    HW134387   1.614   0.459   6.013  0.8927  1.4847 -0.9968
43234SOL    HW234388   1.682   0.349   6.091 -1.5642 -1.5284 -2.8820
43235SOL     OW34389   7.100   9.804  11.999 -0.3623  0.1381  0.3682
43235SOL    HW134390   7.178   9.787  12.052 -0.5228  0.2503  0.6406
43235SOL    HW234391   7.121   9.766  11.914 -0.7290 -1.5064  0.9703
43236SOL     OW34392  10.455   8.229  11.728 -0.0453 -0.0875 -0.2808
43236SOL    HW134393  10.404   8.228  11.809  0.4861 -1.6382  0.0704
43236SOL    HW234394  10.396   8.265  11.662 -0.7154  0.5539  0.6477
43237SOL     OW34395   3.029   3.755   2.661 -0.4369 -0.3513  0.6577
43237SOL    HW134396   3.017   3.699   2.737  2.1692 -1.4667  0.3653
43237SOL    HW234397   2.999   3.702   2.587 -0.0795 -0.4970  0.6137
43238SOL     OW34398   2.397   0.741   2.393 -0.8164 -0.2460  0.3654
43238SOL    HW134399   2.492   0.742   2.385 -0.8575 -0.0203 -0.1681
43238SOL    HW234400   2.378   0.668   2.452 -0.1479  1.4682  2.8608
43239SOL     OW34401   1.756   1.669   1.735 -0.6060  0.7793  0.5139
43239SOL    HW134402   1.806   1.611   1.677 -1.7944 -0.9105  1.1289
43239SOL    HW234403   1.665   1.641   1.726 -0.9086  0.8411  2.7440
43240SOL     OW34404   2.992   4.461   8.410 -0.2533  0.1555  0.0379
43240SOL    HW134405   2.929   4.487   8.477 -0.9787 -0.6456 -0.3136
43240SOL    HW234406   3.019   4.373   8.436 -2.7914 -1.4421 -2.2499
43241SOL     OW34407  10.424   1.828   3.230 -0.7465 -0.1694  0.3105
43241SOL    HW134408  10.460   1.899   3.176  0.1216  0.0589  1.1786
43241SOL    HW234409  10.425   1.752   3.172  0.5248 -0.0150  0.0947
43242SOL     OW34410   5.533   2.548   7.993 -0.3844 -0.6673 -0.0333
43242SOL    HW134411   5.596   2.560   8.063  0.0261  0.8465 -0.6165
43242SOL    HW234412   5.548   2.622   7.934 -2.3479 -0.5227 -0.4501
43243SOL     OW34413   1.161  11.371   5.373 -0.3187  0.1754  0.0839
43243SOL    HW134414   1.152  11.318   5.294  1.7183 -0.5283  0.2743
43243SOL    HW234415   1.082  11.352   5.424 -1.3355  0.1345 -1.4554
43244SOL     OW34416   4.548  11.178   3.263 -0.0006 -0.1981  0.6361
43244SOL    HW134417   4.637  11.211   3.281 -0.4996  0.5616  1.8505
43244SOL    HW234418   4.522  11.224   3.183  0.8884 -0.8287 -0.0378
43245SOL     OW34419   8.371  10.761   0.815  0.4931 -0.3338 -0.2567
43245SOL    HW134420   8.295  10.819   0.806  0.3303 -0.5183 -0.1001
43245SOL    HW234421   8.368  10.706   0.737  0.6488 -0.1305 -0.4063
43246SOL     OW34422   8.713   7.287  10.246  0.1580 -0.3737  0.3138
43246SOL    HW134423   8.647   7.233  10.202 -0.3714  0.5719 -0.0920
43246SOL    HW234424   8.796   7.256  10.212 -0.0839 -1.3733  0.5918
43247SOL     OW34425   4.631  11.925   4.863 -0.4109  0.2706 -0.1020
43247SOL    HW134426   4.588  11.965   4.788 -1.4442  0.5609  0.6295
43247SOL    HW234427   4.662  11.998   4.915  0.7958  0.0684 -0.4883
43248SOL     OW34428   8.112   9.900   1.492  0.1784  0.4808  0.1373
43248SOL    HW134429   8.199   9.922   1.458 -0.0733  0.7805 -0.3115
43248SOL    HW234430   8.056   9.897   1.415 -0.1129 -0.1917  0.3741
43249SOL     OW34431  10.234   3.861  11.485 -0.2994 -0.2333 -0.3078
43249SOL    HW134432  10.212   3.770  11.502 -0.8627  0.1700  1.3328
43249SOL    HW234433  10.152   3.909  11.498  0.0167  0.5300 -1.0141
43250SOL     OW34434  11.705  10.962   8.057 -0.0635  0.2713 -0.0212
43250SOL    HW134435  11.611  10.981   8.062 -0.1975 -0.6339  2.1263
43250SOL    HW234436  11.709  10.866   8.051  0.7196  0.2642  0.5743
43251SOL     OW34437   9.643   8.575   3.080 -0.0886  0.2348 -0.0226
43251SOL    HW134438   9.720   8.573   3.023  1.3592 -0.1484  1.8758
43251SOL    HW234439   9.677   8.598   3.166 -2.4896  2.9092  0.3523
43252SOL     OW34440   8.196   9.135   9.969  0.4188  0.3090  0.3556
43252SOL    HW134441   8.263   9.157  10.034 -0.7365  1.6171  1.1633
43252SOL    HW234442   8.241   9.144   9.885  1.3686  0.7903  0.8940
43253SOL     OW34443   6.853   2.642   4.775  0.3549  0.2710  0.5855
43253SOL    HW134444   6.904   2.673   4.850  1.1164  1.0853 -0.2382
43253SOL    HW234445   6.805   2.719   4.745 -0.6714 -0.2664  0.7699
43254SOL     OW34446   7.112   9.852  11.641  0.2003  0.0731 -0.0228
43254SOL    HW134447   7.049   9.908  11.686 -0.4269 -0.3655 -0.3369
43254SOL    HW234448   7.129   9.780  11.702  1.4482  0.8800  0.6188
43255SOL     OW34449  10.484   0.931   0.804  0.3155 -0.8290  0.2669
43255SOL    HW134450  10.441   0.854   0.842  2.0656 -0.8908  2.2674
43255SOL    HW234451  10.575   0.904   0.791  0.7929  0.6794  0.2826
43256SOL     OW34452   9.116   2.872  10.841  0.2850 -0.0341  0.1831
43256SOL    HW134453   9.198   2.920  10.831  0.0237  0.1166 -1.6334
43256SOL    HW234454   9.135   2.785  10.805  0.3987 -0.9478  2.3025
43257SOL     OW34455   5.234   3.560   2.485  0.0707  0.3712 -0.3877
43257SOL    HW134456   5.264   3.501   2.416  1.4706 -0.3050  0.7513
43257SOL    HW234457   5.154   3.600   2.450 -0.5485 -1.6892 -1.4754
43258SOL     OW34458   9.343  11.750   0.347 -0.1043  0.2188 -0.1073
43258SOL    HW134459   9.436  11.730   0.356 -0.3791 -1.5527 -0.7949
43258SOL    HW234460   9.307  11.739   0.435  0.6138  2.9641  0.6484
43259SOL     OW34461   4.661   5.440  11.349  0.5355 -0.2583  0.3773
43259SOL    HW134462   4.651   5.490  11.268 -1.7646 -0.9371  0.1648
43259SOL    HW234463   4.591   5.375  11.346  2.0614 -2.0647  1.6955
43260SOL     OW34464   3.342   4.133   1.133  0.0622 -0.1088  0.2369
43260SOL    HW134465   3.434   4.109   1.141  0.4141  1.3317  0.9489
43260SOL    HW234466   3.296   4.074   1.193  0.5135 -0.8717 -0.1670
43261SOL     OW34467   7.204   3.371   0.084 -0.6054  0.6099  0.3157
43261SOL    HW134468   7.135   3.431   0.055 -2.8507 -1.0632  1.8867
43261SOL    HW234469   7.200   3.297   0.023  0.2812  0.7612  0.0457
43262SOL     OW34470   5.246   2.198   9.382  0.2321  0.1080  0.8329
43262SOL    HW134471   5.299   2.277   9.393 -0.2155  0.4708  0.4296
43262SOL    HW234472   5.202   2.187   9.466  0.6622  0.0138  1.0480
43263SOL     OW34473   8.837   6.947  10.162 -0.5332  0.0027  0.2814
43263SOL    HW134474   8.780   6.923  10.235 -0.6175 -2.2214 -0.4409
43263SOL    HW234475   8.790   6.919  10.084  0.7154 -0.1563 -0.4533
43264SOL     OW34476   0.334   1.700   9.386 -0.2508 -0.2910  0.1054
43264SOL    HW134477   0.396   1.760   9.344  0.5632 -0.2081  1.3622
43264SOL    HW234478   0.250   1.745   9.382  0.4882  1.3640  1.7516
43265SOL     OW34479   1.349   0.526   4.348  0.4186  0.4707  0.1714
43265SOL    HW134480   1.267   0.571   4.328  1.1489  2.0676  0.6268
43265SOL    HW234481   1.416   0.593   4.339  1.7874 -0.9714 -0.8908
43266SOL     OW34482   5.726   2.215   9.220 -0.1929 -0.3260 -0.7582
43266SOL    HW134483   5.750   2.306   9.231 -0.0908 -0.2853 -1.2804
43266SOL    HW234484   5.701   2.185   9.307  2.0707 -0.4725 -0.0969
43267SOL     OW34485   9.115   4.812   7.568  0.5310 -0.7063  0.1855
43267SOL    HW134486   9.209   4.823   7.554  0.1831 -1.1035 -3.4998
43267SOL    HW234487   9.075   4.843   7.486 -2.4815 -1.4714  1.2377
43268SOL     OW34488  10.871   0.465   2.611  0.5881  0.1962 -0.9667
43268SOL    HW134489  10.793   0.450   2.664  1.2671 -2.0687 -0.4789
43268SOL    HW234490  10.865   0.401   2.540  1.4018  0.8095 -1.6091
43269SOL     OW34491   8.890   7.627   4.543 -0.2868  0.2423  0.1676
43269SOL    HW134492   8.914   7.555   4.600 -0.0912 -0.6658 -1.0240
43269SOL    HW234493   8.800   7.608   4.516 -0.8961  1.4102  1.2678
43270SOL     OW34494   3.370   6.047  11.694  0.3409  0.4055 -0.0844
43270SOL    HW134495   3.285   6.020  11.660  0.3516  0.0007  0.1958
43270SOL    HW234496   3.403   5.969  11.740 -0.0989  1.2121  1.6536
43271SOL     OW34497   1.335   4.524   9.220  0.1324  0.2130  0.4876
43271SOL    HW134498   1.359   4.612   9.192 -1.4054  0.6852  0.5547
43271SOL    HW234499   1.317   4.477   9.139  0.0123  0.2488  0.4932
43272SOL     OW34500   0.751   2.886   9.509  0.3736 -0.4098 -0.6762
43272SOL    HW134501   0.721   2.845   9.590  0.5411  1.5366  0.4354
43272SOL    HW234502   0.671   2.904   9.459  0.2436 -1.3044 -0.7947
43273SOL     OW34503   9.220   0.065   9.308  0.3226 -0.1100 -0.0120
43273SOL    HW134504   9.258   0.058   9.395 -1.1987 -0.2588  0.6622
43273SOL    HW234505   9.126   0.052   9.321  0.1901 -1.3408 -1.8256
43274SOL     OW34506   9.966   6.426   8.627  0.5454 -0.2346  0.2018
43274SOL    HW134507   9.878   6.448   8.596  0.7513 -0.2868 -0.4122
43274SOL    HW234508   9.990   6.347   8.578  0.7311 -0.5262  0.7459
43275SOL     OW34509   4.700   4.941   2.180  0.0220 -0.1344  0.1894
43275SOL    HW134510   4.654   4.857   2.179  0.8151 -0.5887 -0.8427
43275SOL    HW234511   4.737   4.949   2.092 -0.4699  1.5574  0.0952
43276SOL     OW34512   8.160  11.744   7.910  0.2566  0.2408  0.9762
43276SOL    HW134513   8.071  11.718   7.888  0.2962  1.1741 -0.3830
43276SOL    HW234514   8.180  11.816   7.850  1.4034  1.0337  2.2512
43277SOL     OW34515   2.253   7.240   9.244 -0.0642  0.3535  0.4395
43277SOL    HW134516   2.204   7.208   9.168  2.1665 -0.2629 -0.8519
43277SOL    HW234517   2.201   7.314   9.277 -2.0168 -0.5194 -0.5457
43278SOL     OW34518   5.774   6.247   3.444 -0.0803 -0.6372 -0.6981
43278SOL    HW134519   5.791   6.217   3.355 -1.1097 -0.6709 -0.8913
43278SOL    HW234520   5.778   6.168   3.498  1.0253 -0.5519 -0.6241
43279SOL     OW34521   5.385  10.763   7.582  0.4989  0.5823  0.3147
43279SOL    HW134522   5.302  10.742   7.625 -0.0497  0.3801 -0.8180
43279SOL    HW234523   5.404  10.853   7.609 -0.9998  1.2728 -0.7899
43280SOL     OW34524   1.454  11.251   0.960  0.1531  0.1938 -0.8448
43280SOL    HW134525   1.515  11.267   0.888 -0.0424  0.0178 -1.0517
43280SOL    HW234526   1.494  11.179   1.010  0.2034  0.1999 -0.8763
43281SOL     OW34527   4.581  10.819   8.289 -0.2561  0.1650  0.3854
43281SOL    HW134528   4.614  10.874   8.360  0.5497 -0.9909  0.9474
43281SOL    HW234529   4.491  10.849   8.275 -0.6330  0.0631  2.2989
43282SOL     OW34530   1.709   4.867   4.190 -1.0003  0.3446 -0.1078
43282SOL    HW134531   1.643   4.829   4.131 -1.1920  2.4973 -1.4052
43282SOL    HW234532   1.733   4.795   4.248 -3.4639 -0.9175 -0.4838
43283SOL     OW34533   1.095   0.718  10.781  0.3287 -0.1507  0.0929
43283SOL    HW134534   1.142   0.792  10.742  0.7191 -1.4160 -1.9507
43283SOL    HW234535   1.012   0.714  10.734 -0.4581  0.0181  1.4031
43284SOL     OW34536   3.338   5.920   0.353  0.4071  0.0030  0.3491
43284SOL    HW134537   3.293   5.839   0.379  0.9068 -0.3375  0.1597
43284SOL    HW234538   3.426   5.911   0.390  0.1201  0.9917  1.3493
43285SOL     OW34539  10.611   8.201   4.998 -0.4234  0.2206 -0.2713
43285SOL    HW134540  10.654   8.282   4.972 -0.6057  0.6624  0.7663
43285SOL    HW234541  10.649   8.180   5.084 -1.1817 -0.1897 -0.0306
43286SOL     OW34542   6.983   4.584   3.678  0.3011  0.4051  0.5790
43286SOL    HW134543   7.064   4.540   3.704  0.3920  0.7402  0.8757
43286SOL    HW234544   7.009   4.640   3.605  0.3413  0.5203  0.6807
43287SOL     OW34545   4.722   7.979   0.847 -0.4257 -0.2714  0.1923
43287SOL    HW134546   4.804   7.930   0.838 -0.4130 -0.1660 -0.2967
43287SOL    HW234547   4.688   7.954   0.933 -1.4070 -2.6564 -0.8219
43288SOL     OW34548   0.964   8.689   2.354 -0.6608  0.0283  0.0893
43288SOL    HW134549   1.014   8.754   2.305 -0.1973  1.4990  2.3651
43288SOL    HW234550   0.876   8.727   2.361 -1.2540 -1.0282 -1.0758
43289SOL     OW34551   8.296  10.448   2.320 -0.7663  0.5321 -0.1300
43289SOL    HW134552   8.241  10.525   2.306 -0.3840  0.7482 -0.4577
43289SOL    HW234553   8.288  10.398   2.239  0.8663  1.4176 -0.8876
43290SOL     OW34554   8.088   8.794   1.301 -0.4179  0.2186  0.5163
43290SOL    HW134555   8.172   8.775   1.342 -0.7373 -0.9154  0.6790
43290SOL    HW234556   8.083   8.733   1.227 -1.2524  0.0338  0.7222
43291SOL     OW34557  10.059   1.669   9.660 -0.3612 -0.2144 -0.0225
43291SOL    HW134558  10.024   1.733   9.598  1.1722  0.6302 -0.0689
43291SOL    HW234559  10.083   1.594   9.606  1.2449  0.6302 -0.5674
43292SOL     OW34560  11.673   9.651   0.705  0.4275  0.0982  0.6628
43292SOL    HW134561  11.608   9.591   0.742 -2.4657  3.5846  1.8376
43292SOL    HW234562  11.738   9.662   0.775  1.9382 -2.6783 -0.1586
43293SOL     OW34563  11.646   3.410   3.332 -0.0114  0.4670 -0.3608
43293SOL    HW134564  11.727   3.460   3.322 -0.8049  1.9817  0.4490
43293SOL    HW234565  11.578   3.467   3.295 -0.7584 -0.6621 -0.7942
43294SOL     OW34566   7.775   0.280   4.266  0.4653  0.0185 -0.6941
43294SOL    HW134567   7.734   0.349   4.214 -1.8503 -1.3029 -0.7445
43294SOL    HW234568   7.738   0.289   4.353  0.7312 -0.6801 -0.4938
43295SOL     OW34569   1.479   6.019   0.873 -0.2695 -0.2036 -0.7488
43295SOL    HW134570   1.515   5.985   0.791  1.8575 -0.0979  0.0871
43295SOL    HW234571   1.484   5.946   0.934  0.2823  0.3521 -0.1186
43296SOL     OW34572   7.363  10.846  11.154 -0.3812 -0.7522 -0.3949
43296SOL    HW134573   7.394  10.916  11.211 -0.3964 -1.4571  0.5143
43296SOL    HW234574   7.388  10.873  11.066 -1.0281  0.7276 -0.1529
43297SOL     OW34575   9.111  11.640   4.390 -0.4233 -0.1517 -0.2177
43297SOL    HW134576   9.072  11.675   4.310 -1.1965 -2.0959 -0.7627
43297SOL    HW234577   9.204  11.630   4.369 -0.7056 -1.1248 -1.0946
43298SOL     OW34578   7.582   0.040  11.561 -0.1689  0.3790 -0.1711
43298SOL    HW134579   7.648  -0.030  11.557 -0.6362 -0.1210  0.5508
43298SOL    HW234580   7.501  -0.004  11.536 -0.1986  1.0514 -1.3067
43299SOL     OW34581   5.806   1.403   8.739  0.0473  0.2852 -0.1510
43299SOL    HW134582   5.793   1.492   8.772  1.5041  0.5091 -0.1347
43299SOL    HW234583   5.806   1.348   8.817 -1.7066  0.1270 -0.2182
43300SOL     OW34584   3.556   6.443   0.270  0.0235  0.1456 -0.4351
43300SOL    HW134585   3.618   6.511   0.243 -0.4968  1.6676  1.8881
43300SOL    HW234586   3.470   6.486   0.262 -0.6906 -1.4567 -2.2250
43301SOL     OW34587   1.243   3.747   3.651  0.5284  0.2630  0.2242
43301SOL    HW134588   1.265   3.709   3.736 -1.4133 -1.4712  0.0510
43301SOL    HW234589   1.327   3.773   3.613  1.7923 -1.9650  1.3072
43302SOL     OW34590   4.857   2.898   1.710  0.2827  0.1467  0.2625
43302SOL    HW134591   4.852   2.849   1.628 -1.4409 -0.5057  0.7013
43302SOL    HW234592   4.947   2.929   1.714  0.7913 -1.0011 -1.1784
43303SOL     OW34593   6.897   4.528  11.554 -0.4504  0.3754 -0.0615
43303SOL    HW134594   6.891   4.500  11.463 -0.6894  0.0228  0.0636
43303SOL    HW234595   6.807   4.546  11.581 -0.4095  0.2149  0.1883
43304SOL     OW34596   4.233   8.281   3.958  0.0410 -0.4848  0.5400
43304SOL    HW134597   4.148   8.321   3.972 -0.5005  0.3397 -3.6354
43304SOL    HW234598   4.213   8.189   3.938 -0.5458  0.3688 -3.8376
43305SOL     OW34599   4.371   3.179   4.007  0.0124 -0.0095  0.0517
43305SOL    HW134600   4.454   3.202   4.048  0.7588 -0.1206 -1.3332
43305SOL    HW234601   4.368   3.084   4.010  0.4059 -0.0555 -0.7505
43306SOL     OW34602  10.439  11.202   1.036  0.5639  0.0632 -0.1977
43306SOL    HW134603  10.381  11.230   0.964  0.4760 -1.3934 -0.7293
43306SOL    HW234604  10.493  11.133   0.998  0.1224 -1.1495  1.2764
43307SOL     OW34605   7.228   3.213   6.618  0.0103  0.3625 -0.3129
43307SOL    HW134606   7.171   3.220   6.695 -1.4452 -1.1501 -1.1788
43307SOL    HW234607   7.287   3.288   6.625 -0.9301  0.9993  1.5795
43308SOL     OW34608   5.672   5.042   9.867  0.3450  0.1713 -0.2236
43308SOL    HW134609   5.581   5.057   9.890  0.3042  1.8305 -1.2801
43308SOL    HW234610   5.720   5.058   9.948 -0.1392  1.5156 -0.1817
43309SOL     OW34611   7.230   6.621   3.960 -0.1853  0.3845 -0.2049
43309SOL    HW134612   7.283   6.683   3.910 -0.6242  2.3643  1.6095
43309SOL    HW234613   7.144   6.621   3.918  0.0392  0.4362 -0.6595
43310SOL     OW34614   8.092  10.784   1.647  0.2219 -0.3481 -0.0816
43310SOL    HW134615   8.071  10.705   1.697  0.7942 -0.2157  0.3630
43310SOL    HW234616   8.164  10.758   1.590  0.0484 -0.2937 -0.3308
43311SOL     OW34617   0.728   3.781   5.246  0.0003  0.6944 -0.4056
43311SOL    HW134618   0.749   3.795   5.154  2.0476  1.2082  0.0974
43311SOL    HW234619   0.749   3.865   5.288  0.7121 -0.0587  0.7806
43312SOL     OW34620   1.407   4.039  10.841  0.6989 -0.5397  0.1237
43312SOL    HW134621   1.418   3.953  10.880  1.6526 -0.4604  0.0460
43312SOL    HW234622   1.312   4.053  10.839  0.5919 -0.9585  1.4932
43313SOL     OW34623   2.796   4.539   2.172  0.0492  0.1920  0.5483
43313SOL    HW134624   2.782   4.485   2.094  1.7753  0.6316 -0.1067
43313SOL    HW234625   2.891   4.541   2.184 -0.1609  0.1380  2.6964
43314SOL     OW34626   8.036   1.774   7.484  0.2531 -0.2793  0.6554
43314SOL    HW134627   8.001   1.736   7.404  1.1688  0.4497 -0.1219
43314SOL    HW234628   8.131   1.775   7.471  0.3042  2.2790  0.5820
43315SOL     OW34629   5.516   9.449   9.759  0.4605 -0.9887  0.1099
43315SOL    HW134630   5.585   9.463   9.823  0.5468 -1.0019  0.0207
43315SOL    HW234631   5.442   9.500   9.792  1.2005  0.8477 -0.9154
43316SOL     OW34632   7.410   1.075   1.276 -0.0184 -0.3925 -0.2111
43316SOL    HW134633   7.340   1.123   1.320 -0.2214 -0.5010 -0.4105
43316SOL    HW234634   7.444   1.016   1.343 -0.4880 -0.7289 -0.2622
43317SOL     OW34635   9.111   0.857   8.280  0.7059 -0.1288  0.0569
43317SOL    HW134636   9.056   0.897   8.212  0.5594  0.0445  0.2739
43317SOL    HW234637   9.051   0.840   8.353  0.6483 -1.2812 -0.2375
43318SOL     OW34638   0.569  11.923  11.391 -0.6520 -0.5388 -0.0167
43318SOL    HW134639   0.519  11.856  11.344 -1.5214  0.0067  0.0906
43318SOL    HW234640   0.648  11.936  11.339 -1.8780  0.5031 -1.7361
43319SOL     OW34641   2.685   0.173   7.421  0.3642  0.2344 -0.7043
43319SOL    HW134642   2.605   0.179   7.369  0.0497  0.7541 -0.1757
43319SOL    HW234643   2.655   0.147   7.508  0.9763 -1.6773 -1.0075
43320SOL     OW34644  11.198   1.512   2.820  0.6644 -0.0348 -0.1562
43320SOL    HW134645  11.198   1.521   2.915 -1.5167  0.9889 -0.1643
43320SOL    HW234646  11.288   1.490   2.797  0.9485 -1.7649  2.2355
43321SOL     OW34647   3.801   8.105   2.946  0.0613  0.2186 -0.9131
43321SOL    HW134648   3.794   8.011   2.926  0.6891  0.2730 -1.4282
43321SOL    HW234649   3.857   8.140   2.877  1.4475  0.6096  0.3544
43322SOL     OW34650   4.956   3.879   8.215 -0.0021  0.0218 -0.2460
43322SOL    HW134651   5.023   3.946   8.224 -0.1468  0.1310  0.0073
43322SOL    HW234652   4.897   3.894   8.288 -0.3140 -0.0620 -0.4805
43323SOL     OW34653   5.814   3.116   3.639 -0.9053  0.7684  0.8004
43323SOL    HW134654   5.810   3.111   3.544  1.7939 -1.5653  0.6810
43323SOL    HW234655   5.724   3.132   3.666 -1.8978  0.5876 -2.0831
43324SOL     OW34656   3.802   7.118   0.007  0.0183  0.4483 -0.0125
43324SOL    HW134657   3.710   7.093   0.002  0.6200 -1.9613 -1.0095
43324SOL    HW234658   3.850   7.035  -0.006  2.3195  1.6461  0.2177
43325SOL     OW34659   0.226   8.896   6.852  0.5499 -0.0000 -0.2975
43325SOL    HW134660   0.287   8.931   6.917  0.6864  2.5892 -1.6741
43325SOL    HW234661   0.279   8.833   6.801  1.4684  0.6071 -0.1264
43326SOL     OW34662   3.755   5.599   7.623  0.4952  0.0101 -0.3117
43326SOL    HW134663   3.756   5.693   7.642  0.4890 -0.0173 -0.1772
43326SOL    HW234664   3.662   5.578   7.611  0.3438 -0.2757  1.1434
43327SOL     OW34665   6.981   1.221  10.242 -0.6700  0.8648  0.1825
43327SOL    HW134666   6.944   1.171  10.315 -0.4075  1.0690  0.4602
43327SOL    HW234667   6.933   1.304  10.243  0.6054  1.6366  1.3278
43328SOL     OW34668   8.355  10.554   9.447 -0.3038 -0.4840  0.3799
43328SOL    HW134669   8.395  10.634   9.482 -1.1123  0.2317 -0.2875
43328SOL    HW234670   8.273  10.584   9.408 -0.2332 -1.5248 -0.5912
43329SOL     OW34671   9.598  10.058   3.055 -0.5193 -0.1008  0.0254
43329SOL    HW134672   9.670  10.015   3.100  2.1647  4.3456  0.6746
43329SOL    HW234673   9.597  10.020   2.968  1.1354 -1.8037  0.7013
43330SOL     OW34674   8.441  10.567   5.923 -0.2219 -0.2726  0.0294
43330SOL    HW134675   8.451  10.659   5.897  0.3011  0.3245  2.1614
43330SOL    HW234676   8.404  10.570   6.011 -1.1598 -2.1616 -0.2354
43331SOL     OW34677  11.871   9.337   9.209  0.6373 -0.3090 -0.4908
43331SOL    HW134678  11.830   9.400   9.150  0.4429  1.3028  1.2687
43331SOL    HW234679  11.964   9.359   9.208  0.6263 -0.2355 -0.1685
43332SOL     OW34680  10.947   0.205   6.025 -0.0594  0.2806 -0.3925
43332SOL    HW134681  10.909   0.137   5.970 -0.6704  1.8346 -1.9887
43332SOL    HW234682  10.872   0.252   6.062  0.3179  0.9250 -0.4190
43333SOL     OW34683   9.808   9.807   6.147 -0.3244  0.4389 -0.3727
43333SOL    HW134684   9.898   9.837   6.132 -0.5382  1.8216  0.8742
43333SOL    HW234685   9.804   9.790   6.241 -1.8087  2.1057 -0.0723
43334SOL     OW34686  11.498   2.155   0.581  0.2825 -0.4662 -0.1536
43334SOL    HW134687  11.593   2.145   0.587  0.3824  0.9254  1.2639
43334SOL    HW234688  11.484   2.250   0.578 -1.0866 -0.6428  0.0080
43335SOL     OW34689   1.214   6.737   5.152 -0.3137 -0.2588 -0.2767
43335SOL    HW134690   1.301   6.744   5.191  0.1567  0.8533 -1.4265
43335SOL    HW234691   1.179   6.654   5.185 -0.0160  0.6124  2.5089
43336SOL     OW34692   6.425   3.047   6.691  0.0994 -0.0830 -0.7505
43336SOL    HW134693   6.429   3.005   6.777  0.4205 -0.6573 -1.0384
43336SOL    HW234694   6.412   3.140   6.711 -0.1488 -0.2483 -0.0920
43337SOL     OW34695   3.829   8.969  11.849 -0.3508 -0.0412  1.3182
43337SOL    HW134696   3.897   9.000  11.908  0.5936  0.2075  0.1275
43337SOL    HW234697   3.846   9.014  11.766 -1.0184 -1.1462  0.5484
43338SOL     OW34698   6.246  11.486   5.019  0.1437  0.2666 -0.4350
43338SOL    HW134699   6.296  11.428   4.962  2.0599  1.9180 -0.5365
43338SOL    HW234700   6.293  11.570   5.016  0.5974  0.3852  3.7763
43339SOL     OW34701   7.010   2.993  11.838 -0.0628 -0.2213  0.2762
43339SOL    HW134702   6.987   3.025  11.751  1.3275  0.1316  0.0150
43339SOL    HW234703   7.044   2.905  11.823  0.2246 -0.1427  0.4617
43340SOL     OW34704   5.867  10.826   7.253 -0.2142  0.2941  0.1520
43340SOL    HW134705   5.858  10.768   7.177  2.1398 -0.4014  0.3285
43340SOL    HW234706   5.802  10.793   7.315 -0.7822 -0.4145 -0.7808
43341SOL     OW34707   3.416   4.422   0.905 -0.3666  0.3538 -0.2752
43341SOL    HW134708   3.488   4.372   0.945 -0.3078 -0.2312 -1.0801
43341SOL    HW234709   3.339   4.367   0.918 -0.3137  0.0585 -1.1030
43342SOL     OW34710   1.956   6.649   3.447 -0.1630 -0.0172  0.1366
43342SOL    HW134711   1.876   6.675   3.402  0.2521 -0.0065 -0.6108
43342SOL    HW234712   1.984   6.569   3.402  0.3557  0.0922  0.2514
43343SOL     OW34713   5.447   7.575  11.196  0.0286 -0.2407  0.2102
43343SOL    HW134714   5.438   7.653  11.251 -0.3569 -0.1061 -0.0357
43343SOL    HW234715   5.502   7.516  11.247 -1.8846 -0.9057  1.6065
43344SOL     OW34716   9.789   3.117   4.309 -0.1358 -0.0132  0.0138
43344SOL    HW134717   9.718   3.068   4.350  0.8329 -0.7260  0.8814
43344SOL    HW234718   9.819   3.177   4.378  0.8467 -0.5137  0.0301
43345SOL     OW34719   4.282   4.884   3.999  0.0058  0.5168 -0.1542
43345SOL    HW134720   4.303   4.964   4.046 -0.6920  0.8089 -0.3322
43345SOL    HW234721   4.196   4.900   3.960  0.0599 -0.1467 -0.5692
43346SOL     OW34722  10.830   7.506   2.082  0.6358 -0.3330  0.1869
43346SOL    HW134723  10.758   7.448   2.108  0.0758 -0.0181 -0.6178
43346SOL    HW234724  10.902   7.482   2.140  0.4693 -1.9481 -0.2365
43347SOL     OW34725   6.452  11.277   1.165  0.7023 -0.0120 -0.4815
43347SOL    HW134726   6.486  11.362   1.135 -0.2195  0.0779 -1.2926
43347SOL    HW234727   6.518  11.214   1.137  1.8317  0.4977  0.8787
43348SOL     OW34728   9.150  11.246   4.622  0.8294  0.0761 -0.4411
43348SOL    HW134729   9.244  11.227   4.616  1.0264  0.6486  0.5571
43348SOL    HW234730   9.144  11.340   4.605  0.4374  0.0388 -0.4961
43349SOL     OW34731   1.518   2.043   5.365  0.4081 -0.4198 -0.0358
43349SOL    HW134732   1.506   1.975   5.299 -1.5376 -0.3963  0.2266
43349SOL    HW234733   1.464   2.116   5.334 -1.1436 -0.6586  1.8703
43350SOL     OW34734   8.476   9.585   4.211 -0.4163 -0.0055 -0.3276
43350SOL    HW134735   8.420   9.568   4.136  0.5004 -1.5910 -0.7073
43350SOL    HW234736   8.526   9.663   4.187 -1.8013  0.8943 -0.3465
43351SOL     OW34737   9.355   3.192   4.234  0.3438  0.0734  0.4010
43351SOL    HW134738   9.289   3.225   4.173  1.8378  1.2783 -0.6533
43351SOL    HW234739   9.355   3.097   4.219  0.3285  0.2918 -1.1613
43352SOL     OW34740   1.676   7.513   0.691 -0.5873  0.0780 -0.8270
43352SOL    HW134741   1.719   7.599   0.690 -1.6064  0.6531  1.0382
43352SOL    HW234742   1.747   7.451   0.674  0.5030  1.1647 -0.4065
43353SOL     OW34743   8.867  11.798   5.073 -0.2355  0.0030 -0.2038
43353SOL    HW134744   8.796  11.750   5.116  1.7378 -1.9945  0.9711
43353SOL    HW234745   8.834  11.814   4.985 -2.6081  0.2246  0.6383
43354SOL     OW34746   4.162   2.679   7.306  0.1165  0.2044 -0.5123
43354SOL    HW134747   4.133   2.654   7.218  1.3971 -0.9807 -0.6229
43354SOL    HW234748   4.218   2.607   7.335 -1.5229 -0.2511  1.9407
43355SOL     OW34749  10.326   1.674   6.646 -0.0479  0.1996  0.1416
43355SOL    HW134750  10.241   1.694   6.686 -0.7125 -1.0064 -0.6121
43355SOL    HW234751  10.356   1.595   6.690 -1.5068 -2.0729 -2.5770
43356SOL     OW34752   1.109   0.882   3.674 -0.0204 -0.5887 -0.0348
43356SOL    HW134753   1.017   0.864   3.694 -0.3579  1.5982  0.6599
43356SOL    HW234754   1.133   0.953   3.734  1.3566  0.6600 -1.9619
43357SOL     OW34755   5.236  10.677   2.322  0.1972  0.3595  0.0413
43357SOL    HW134756   5.158  10.641   2.280  1.5747  0.0965 -2.5369
43357SOL    HW234757   5.255  10.617   2.394 -2.0145  0.5554  0.8811
43358SOL     OW34758   1.699  10.417   1.700 -0.5589  0.1123 -0.3363
43358SOL    HW134759   1.696  10.496   1.646 -1.3032 -0.0838 -0.5841
43358SOL    HW234760   1.627  10.363   1.668 -1.2350  0.1437  1.0814
43359SOL     OW34761   1.502   9.139   6.148 -0.1201 -0.2484 -0.1682
43359SOL    HW134762   1.556   9.077   6.197 -1.8443 -1.0949  0.7429
43359SOL    HW234763   1.565   9.191   6.097  1.3898 -3.0266 -1.3626
43360SOL     OW34764   5.875   7.323   9.459 -0.0258  0.1213 -0.3501
43360SOL    HW134765   5.801   7.355   9.510 -0.0908 -0.2723 -0.1961
43360SOL    HW234766   5.871   7.228   9.468  0.9938  0.1261  0.3680
43361SOL     OW34767   3.967  10.321   5.255 -0.2326  0.0095  0.7441
43361SOL    HW134768   4.049  10.311   5.207 -0.8998 -0.9192 -0.2550
43361SOL    HW234769   3.924  10.396   5.213 -2.6537 -3.1101 -3.0922
43362SOL     OW34770   4.124   0.959   8.528 -0.5687 -0.0482 -0.1574
43362SOL    HW134771   4.197   0.923   8.478  0.1795  1.3201 -0.0940
43362SOL    HW234772   4.140   1.053   8.530 -2.1292  0.2360  0.2070
43363SOL     OW34773   3.026   6.078   9.727 -0.4248 -0.0071 -0.2340
43363SOL    HW134774   2.997   5.988   9.739 -1.2930  0.3168  0.2350
43363SOL    HW234775   2.949   6.123   9.693  0.3266  0.3283 -1.5462
43364SOL     OW34776   2.349  10.291   8.381 -0.0984  0.2021  0.0556
43364SOL    HW134777   2.292  10.342   8.324  1.9352  2.0348 -0.4642
43364SOL    HW234778   2.437  10.318   8.357  0.9741 -1.8101  1.4836
43365SOL     OW34779   0.578   2.403   2.113  0.5341 -0.0009  0.4129
43365SOL    HW134780   0.614   2.391   2.025 -0.6790 -0.5840 -0.0239
43365SOL    HW234781   0.655   2.419   2.168  1.1298  3.3736 -1.1888
43366SOL     OW34782   1.989   5.643   3.353 -0.2695 -0.8330 -0.6623
43366SOL    HW134783   1.942   5.587   3.416 -0.2511 -0.6577 -0.4896
43366SOL    HW234784   1.920   5.698   3.315 -0.0960  0.0391  0.2351
43367SOL     OW34785   1.300   1.259   0.503 -0.5863  0.3713 -0.0260
43367SOL    HW134786   1.369   1.255   0.569  1.1961  1.1565 -1.7396
43367SOL    HW234787   1.282   1.353   0.492  0.8480  0.4697 -2.2411
43368SOL     OW34788   6.970   7.357   6.010  0.2575 -0.1097 -0.1442
43368SOL    HW134789   6.958   7.401   6.094 -0.0252 -1.9903  0.8679
43368SOL    HW234790   7.058   7.381   5.983 -0.5537  2.5929 -0.6501
43369SOL     OW34791  11.966   0.342  10.553 -0.3263 -0.1830 -0.3509
43369SOL    HW134792  11.872   0.344  10.538 -0.4443 -2.5718 -0.3173
43369SOL    HW234793  11.991   0.251  10.535  2.0191  0.4577 -0.6247
43370SOL     OW34794   1.500   2.040   2.794  0.2308  0.1782  0.7224
43370SOL    HW134795   1.562   2.028   2.865  1.3124 -0.7604 -0.3360
43370SOL    HW234796   1.516   2.129   2.763 -1.1134  1.0632  2.3995
43371SOL     OW34797   2.441   0.676   8.378  0.7628 -0.1338 -0.3890
43371SOL    HW134798   2.459   0.614   8.306 -1.0009 -1.8858  0.5815
43371SOL    HW234799   2.355   0.650   8.410  0.1442  2.6029  0.3909
43372SOL     OW34800   5.068   1.409   8.487  0.0571  0.4919  0.1435
43372SOL    HW134801   5.054   1.382   8.396 -0.0081 -0.7459  0.5104
43372SOL    HW234802   5.097   1.500   8.480 -1.2243  0.8461 -1.0303
43373SOL     OW34803   8.822   7.581   2.953  0.9747 -0.2563 -0.7008
43373SOL    HW134804   8.785   7.543   3.032  2.9185 -0.8168 -0.0021
43373SOL    HW234805   8.827   7.674   2.971 -0.6814 -0.0691 -1.0869
43374SOL     OW34806  10.432   3.651   7.747  0.7555  0.3264  0.3014
43374SOL    HW134807  10.392   3.603   7.675  3.4283 -0.0980 -1.0371
43374SOL    HW234808  10.359   3.676   7.803 -1.2149 -1.1396 -1.4578
43375SOL     OW34809  11.105   9.647  10.523 -0.0715  0.2559 -0.2474
43375SOL    HW134810  11.042   9.716  10.505  0.1671  0.7792  0.8326
43375SOL    HW234811  11.144   9.671  10.608  1.8356  0.1462 -1.0375
43376SOL     OW34812   6.870   7.604   5.766 -0.3289  0.5703  0.5340
43376SOL    HW134813   6.963   7.613   5.748 -0.4619 -0.9667 -1.2195
43376SOL    HW234814   6.832   7.688   5.739  0.4640  0.9896  0.7009
43377SOL     OW34815   0.591   1.287   0.821  0.4696  0.3257 -0.4434
43377SOL    HW134816   0.635   1.288   0.736 -0.1073  2.3772 -0.7634
43377SOL    HW234817   0.627   1.210   0.865  1.1368 -0.5185 -2.3375
43378SOL     OW34818   5.034   4.438   7.486 -1.1642 -0.0182 -0.2288
43378SOL    HW134819   5.068   4.417   7.399 -0.5526 -0.8687  0.2037
43378SOL    HW234820   5.010   4.354   7.523 -2.1493  0.4174  0.1410
43379SOL     OW34821   7.833   9.670   0.646  0.2352 -0.4780 -0.2080
43379SOL    HW134822   7.873   9.664   0.559  0.9614  1.5153 -0.0655
43379SOL    HW234823   7.765   9.603   0.645  1.0247 -1.3406 -1.8642
43380SOL     OW34824   5.852   2.695   7.818 -0.1198  0.5922 -0.6252
43380SOL    HW134825   5.929   2.733   7.859  1.0281 -2.7341  0.6504
43380SOL    HW234826   5.888   2.632   7.754 -1.8717  2.4873 -3.7274
43381SOL     OW34827   7.765  11.471   2.008 -0.2520  0.7008  0.1511
43381SOL    HW134828   7.799  11.382   2.008 -3.1827 -0.5428 -1.5754
43381SOL    HW234829   7.843  11.526   1.994  1.4760 -1.6215  0.0171
43382SOL     OW34830   5.933  11.141  11.501  0.0080 -0.3681 -0.4835
43382SOL    HW134831   5.892  11.061  11.535  1.2798 -0.7523  0.2538
43382SOL    HW234832   5.884  11.162  11.422  0.9353 -3.1366 -1.9326
43383SOL     OW34833   0.651   3.295   0.942  0.2207 -0.2886 -0.1410
43383SOL    HW134834   0.558   3.316   0.930  0.1950  0.3084  0.9135
43383SOL    HW234835   0.655   3.200   0.934 -0.4522 -0.3044 -0.4062
43384SOL     OW34836  10.822  10.783   4.047  0.1878 -0.2562  0.0619
43384SOL    HW134837  10.839  10.718   3.979  1.6598 -0.6378  0.7588
43384SOL    HW234838  10.742  10.828   4.018 -0.0880 -1.4519 -1.1093
43385SOL     OW34839   5.242   9.419  11.229 -0.3654  0.2319  0.2509
43385SOL    HW134840   5.164   9.363  11.223  0.7766 -1.4259  0.2550
43385SOL    HW234841   5.213   9.504  11.196 -1.5177 -1.0373 -2.3313
43386SOL     OW34842  10.579   7.262   7.425 -0.4396  0.7031 -0.0257
43386SOL    HW134843  10.556   7.324   7.355 -0.7363  0.5924 -0.0273
43386SOL    HW234844  10.653   7.302   7.470 -1.6171  1.8239  0.9784
43387SOL     OW34845  10.246   7.570   7.251 -0.2311  0.2956  0.6469
43387SOL    HW134846  10.174   7.598   7.308 -0.3659  1.0012  0.1462
43387SOL    HW234847  10.207   7.504   7.193 -0.8069  1.5111 -0.4043
43388SOL     OW34848   0.276  11.964  11.366  0.1312  0.0626 -0.1129
43388SOL    HW134849   0.336  12.023  11.413 -0.5540 -0.2396  1.1985
43388SOL    HW234850   0.279  11.994  11.275 -0.0008  1.9563  0.4629
43389SOL     OW34851  11.461  10.747   7.560 -0.0747 -0.0123  0.1751
43389SOL    HW134852  11.467  10.726   7.653 -0.8322  0.3207  0.3111
43389SOL    HW234853  11.378  10.794   7.551 -0.2012 -0.3679 -0.7295
43390SOL     OW34854   5.339   9.607   1.961 -0.1643 -0.4408  0.7424
43390SOL    HW134855   5.269   9.552   1.925 -0.1399  0.9181 -1.5706
43390SOL    HW234856   5.387   9.638   1.884  3.1183 -1.4006  2.1967
43391SOL     OW34857  11.153   4.981   4.261  0.0162 -0.3245 -0.1745
43391SOL    HW134858  11.193   4.899   4.290  0.2429  0.0288  0.5292
43391SOL    HW234859  11.179   5.045   4.327  0.3310  0.4489 -1.0328
43392SOL     OW34860  10.658   6.662   5.697  0.0878 -0.1648  0.0648
43392SOL    HW134861  10.564   6.679   5.706  0.5100  3.4470 -0.7381
43392SOL    HW234862  10.695   6.683   5.783  0.4799  1.7139 -0.5349
43393SOL     OW34863  10.818   7.617   1.250  0.3834 -0.0150 -0.5020
43393SOL    HW134864  10.805   7.661   1.334  1.0662  0.1128 -0.4573
43393SOL    HW234865  10.912   7.620   1.236  0.3814 -0.9575 -0.7760
43394SOL     OW34866   9.372  10.742   7.995 -0.1405  0.1556  0.0836
43394SOL    HW134867   9.368  10.720   8.088  2.4182  0.8639  0.4305
43394SOL    HW234868   9.321  10.823   7.987 -1.2029 -0.4277  0.6256
43395SOL     OW34869   4.916   4.750   7.327 -0.7462 -0.1774  0.6565
43395SOL    HW134870   4.929   4.666   7.370 -0.1889 -0.5189 -0.1595
43395SOL    HW234871   4.842   4.790   7.373 -0.7747 -0.9465  1.2901
43396SOL     OW34872   0.836   1.116   4.174  0.1817  0.1856 -0.1494
43396SOL    HW134873   0.892   1.051   4.131 -1.8789 -1.2968 -0.7929
43396SOL    HW234874   0.875   1.200   4.152  2.9457 -0.7830  0.6745
43397SOL     OW34875   1.884   3.514   3.177  0.0673 -0.6370  0.0777
43397SOL    HW134876   1.905   3.599   3.216 -0.1007 -0.1856 -0.7693
43397SOL    HW234877   1.788   3.509   3.181  0.0067 -0.3326 -0.7512
43398SOL     OW34878   9.190   9.563  10.194 -0.5803 -0.0404 -0.3766
43398SOL    HW134879   9.128   9.491  10.190 -0.9661  0.3162 -1.0347
43398SOL    HW234880   9.205   9.577  10.288  0.1608 -1.5177 -0.2539
43399SOL     OW34881   1.014   1.836   3.617  0.2140 -0.2404  0.4327
43399SOL    HW134882   0.961   1.882   3.552 -1.0670 -0.1161  1.5027
43399SOL    HW234883   1.093   1.810   3.571 -0.5520  0.0549 -1.0982
43400SOL     OW34884   6.474   2.632   7.785  0.3075  0.2790  0.1161
43400SOL    HW134885   6.526   2.658   7.861  0.1846 -1.4741  0.8667
43400SOL    HW234886   6.539   2.615   7.716  0.5502  0.4328  0.3040
43401SOL     OW34887  11.430   7.463   5.432 -0.2058  0.0386  0.5129
43401SOL    HW134888  11.465   7.445   5.345 -1.5484  0.2266 -0.0838
43401SOL    HW234889  11.449   7.384   5.482 -0.1147 -0.3793 -0.1739
43402SOL     OW34890   7.477   1.936   0.120 -0.1499  0.1293 -0.0721
43402SOL    HW134891   7.461   2.007   0.058 -3.1727 -0.7668 -0.4840
43402SOL    HW234892   7.390   1.910   0.149  1.0111 -1.5802  2.2094
43403SOL     OW34893   9.327   7.013   5.549 -0.1885  0.0763  0.0521
43403SOL    HW134894   9.255   6.963   5.511 -0.4235 -1.1013  1.9386
43403SOL    HW234895   9.401   6.996   5.492 -0.9612 -0.1325 -0.9117
43404SOL     OW34896  11.178   6.048  10.456  0.5671  0.1647  0.0934
43404SOL    HW134897  11.215   6.050  10.545 -0.8135 -1.3777  0.7501
43404SOL    HW234898  11.237   5.992  10.407  0.5238 -0.1828  0.4352
43405SOL     OW34899  11.468   0.219   5.994 -0.0031 -0.5960  0.3975
43405SOL    HW134900  11.555   0.254   5.974  0.7669 -1.7179  1.6213
43405SOL    HW234901  11.423   0.218   5.909  0.3041  2.1682  0.1163
43406SOL     OW34902   1.958  11.155   0.570 -0.3501 -0.0704  0.3861
43406SOL    HW134903   1.976  11.134   0.662 -0.5768  1.6732  0.8688
43406SOL    HW234904   1.864  11.136   0.560 -0.3984  0.0325  0.6176
43407SOL     OW34905   3.651   9.989   3.959 -0.7292  0.2618 -0.1670
43407SOL    HW134906   3.722  10.025   3.906 -1.5190  1.0868 -0.6875
43407SOL    HW234907   3.646  10.047   4.035  0.2677 -0.8001  0.7554
43408SOL     OW34908   1.234  10.278   2.859 -0.7645  0.1768  0.2534
43408SOL    HW134909   1.296  10.318   2.798 -0.6150 -1.7452 -0.9239
43408SOL    HW234910   1.177  10.351   2.885 -0.4500  1.2114 -1.7142
43409SOL     OW34911   9.969   9.395   4.565 -0.3074 -0.3527 -0.0974
43409SOL    HW134912   9.956   9.355   4.479  1.0409  1.2363 -1.0975
43409SOL    HW234913  10.045   9.452   4.554 -1.6880  1.9593  1.3859
43410SOL     OW34914   6.974  11.722   9.025 -0.4689 -1.2343 -0.1180
43410SOL    HW134915   6.958  11.812   8.997 -0.3788 -1.0521  0.4055
43410SOL    HW234916   6.895  11.674   8.998 -0.4392 -1.0337 -0.5556
43411SOL     OW34917   0.921  10.110   8.150 -0.0056  0.1085 -0.0336
43411SOL    HW134918   0.944  10.097   8.058 -1.2832  1.6934 -0.6460
43411SOL    HW234919   0.867  10.034   8.173  0.8769 -0.6331 -0.3802
43412SOL     OW34920   0.249   4.995   2.556 -0.1406  0.5773  0.9170
43412SOL    HW134921   0.211   4.908   2.570 -3.3605  1.6658 -0.1862
43412SOL    HW234922   0.174   5.052   2.544  1.9023  3.2643 -0.0671
43413SOL     OW34923   8.785   0.407   8.601  0.5854  0.4167 -0.3803
43413SOL    HW134924   8.811   0.476   8.541  0.5756  1.3638  0.6624
43413SOL    HW234925   8.811   0.439   8.688 -0.2640 -0.4617  0.2307
43414SOL     OW34926  10.610   4.995   7.835  0.0089  0.3271 -0.1514
43414SOL    HW134927  10.674   5.066   7.824  0.7421 -0.3265 -0.1778
43414SOL    HW234928  10.635   4.929   7.770  0.0169 -0.4352  0.6060
43415SOL     OW34929   1.025   7.315   7.810  0.1203 -0.4109 -0.3575
43415SOL    HW134930   0.944   7.364   7.804 -0.4035 -1.2933 -0.7437
43415SOL    HW234931   1.091   7.380   7.834 -0.4397  0.5790 -1.3783
43416SOL     OW34932   1.782   8.203   8.900  0.5114 -0.0982 -0.3125
43416SOL    HW134933   1.809   8.206   8.991 -0.0082 -2.5302 -0.0285
43416SOL    HW234934   1.820   8.122   8.866 -0.5575 -0.0084 -1.8385
43417SOL     OW34935   3.057  11.958  11.235  0.4250  0.0880  0.5118
43417SOL    HW134936   3.116  12.019  11.279 -0.4523  0.3014  1.4481
43417SOL    HW234937   3.007  11.918  11.306 -1.0016  0.3852 -0.2768
43418SOL     OW34938   7.210  11.000  10.880 -0.1606  1.0661  0.2626
43418SOL    HW134939   7.276  11.010  10.949  0.9684  0.9727 -0.7724
43418SOL    HW234940   7.245  10.931  10.824 -2.5006 -1.0216  1.2168
43419SOL     OW34941   9.088  11.522   9.137  0.0191  0.4322 -0.0864
43419SOL    HW134942   9.069  11.509   9.044 -0.1129 -2.6884  0.2690
43419SOL    HW234943   9.177  11.489   9.148 -0.8843 -1.8238  1.2444
43420SOL     OW34944  11.526  10.360   4.960 -0.1688 -0.0128  0.1580
43420SOL    HW134945  11.508  10.438   4.908 -0.1734 -0.3893 -0.4204
43420SOL    HW234946  11.478  10.290   4.915  1.0141 -0.6295 -0.1910
43421SOL     OW34947   6.411   2.383   8.834 -0.3900  0.3497  0.8523
43421SOL    HW134948   6.465   2.319   8.789  0.0645 -0.0766  1.9693
43421SOL    HW234949   6.360   2.426   8.764  1.9320  1.3241 -0.3465
43422SOL     OW34950   6.910   3.528   2.300 -0.0375  0.2910 -0.2675
43422SOL    HW134951   6.946   3.511   2.387 -0.7337  0.5808  0.0848
43422SOL    HW234952   6.945   3.614   2.276  0.1354  0.2216 -0.2668
43423SOL     OW34953   2.712  10.670   5.833 -0.1442 -0.3822 -0.4957
43423SOL    HW134954   2.679  10.681   5.744 -2.8015 -0.0239  0.4558
43423SOL    HW234955   2.727  10.759   5.865 -0.7514 -0.4297 -0.0600
43424SOL     OW34956  11.295   0.447   3.241 -0.0741  0.5090 -0.5286
43424SOL    HW134957  11.300   0.509   3.315  0.7806  0.4938 -0.5675
43424SOL    HW234958  11.292   0.361   3.283  0.3767  0.5019 -0.5076
43425SOL     OW34959   6.765  11.771   6.688  0.0605  0.1077  0.7805
43425SOL    HW134960   6.839  11.772   6.748  2.8262 -0.1197 -2.3484
43425SOL    HW234961   6.725  11.685   6.699  1.8814 -0.7756  0.7703
43426SOL     OW34962  11.329  10.574   8.218  0.2709  0.6696  0.5103
43426SOL    HW134963  11.280  10.607   8.143 -1.4384  0.5141  1.5168
43426SOL    HW234964  11.346  10.651   8.272 -1.2247  0.3678  1.4573
43427SOL     OW34965   1.471   2.904   0.381  0.4655  0.2091  0.3196
43427SOL    HW134966   1.526   2.926   0.456 -1.0170 -1.0551  1.8654
43427SOL    HW234967   1.385   2.937   0.404 -0.1159 -0.5991 -0.6198
43428SOL     OW34968  11.319   2.331   1.874  0.0111  0.4344 -0.6587
43428SOL    HW134969  11.330   2.360   1.965  0.3048  1.6783 -1.0734
43428SOL    HW234970  11.226   2.308   1.868  0.3728 -1.5244  0.4525
43429SOL     OW34971   8.390   3.061   4.824  0.0904  0.0965  0.3202
43429SOL    HW134972   8.382   3.047   4.918  0.8678 -0.6589  0.2786
43429SOL    HW234973   8.325   3.002   4.786 -0.2216  0.4000  0.3718
43430SOL     OW34974   3.967   1.239   9.849 -0.4258 -0.6509 -0.3010
43430SOL    HW134975   4.028   1.235   9.776 -1.0811  0.3575 -0.9267
43430SOL    HW234976   4.022   1.256   9.925  0.1300 -0.2987 -0.7762
43431SOL     OW34977  10.943   4.559   6.428 -0.7323 -0.2008 -0.2203
43431SOL    HW134978  10.956   4.643   6.473 -1.3327 -0.4175  0.3754
43431SOL    HW234979  11.031   4.525   6.415 -0.5161  0.1917  0.1725
43432SOL     OW34980   5.695   9.230   6.179  0.0111  0.0970  0.8757
43432SOL    HW134981   5.729   9.232   6.089 -0.0918 -0.0253  0.8350
43432SOL    HW234982   5.745   9.160   6.221  0.5477  0.6049  1.1072
43433SOL     OW34983   9.099   3.285   7.948 -0.3716  0.1263  0.0723
43433SOL    HW134984   9.050   3.239   7.880 -1.4966  1.4396 -0.0570
43433SOL    HW234985   9.136   3.215   8.002  0.5616 -0.9433 -1.8650
43434SOL     OW34986   0.254   3.455   4.455  0.5576  0.0129  0.4361
43434SOL    HW134987   0.341   3.425   4.429  2.7935  2.4374  4.1820
43434SOL    HW234988   0.261   3.470   4.549 -4.2951 -0.5563  1.1484
43435SOL     OW34989   6.401  11.690   4.958 -0.0768  0.5722  0.6620
43435SOL    HW134990   6.442  11.658   4.878  0.8888 -0.1496  1.4316
43435SOL    HW234991   6.431  11.780   4.966 -1.5000  1.2042 -0.6445
43436SOL     OW34992   4.107   9.418   6.483 -0.1852  0.3302 -0.1187
43436SOL    HW134993   4.064   9.469   6.414 -0.7654  1.1726  0.8373
43436SOL    HW234994   4.048   9.343   6.497 -0.1065  0.1986 -0.4730
43437SOL     OW34995   6.096   5.923   7.092 -0.1751 -0.0902  0.2829
43437SOL    HW134996   6.154   5.883   7.026  0.2173  1.1464 -0.1480
43437SOL    HW234997   6.049   5.849   7.131  2.8219 -1.3822  1.7744
43438SOL     OW34998   6.718   2.346   3.679 -0.9205 -0.6020 -0.2622
43438SOL    HW134999   6.802   2.301   3.665 -0.1065  0.3612  1.2106
43438SOL    HW235000   6.743   2.438   3.689 -2.2126 -0.2657 -0.0813
43439SOL     OW35001   4.396   0.933   2.121 -0.7528  1.2677  0.1770
43439SOL    HW135002   4.306   0.957   2.096 -1.0662 -0.5299 -0.5889
43439SOL    HW235003   4.446   0.939   2.039 -1.2130 -2.0638 -0.5110
43440SOL     OW35004   6.963  10.247   8.520  0.1057  0.5755  0.1671
43440SOL    HW135005   6.944  10.190   8.594 -0.2700 -0.5821 -0.7905
43440SOL    HW235006   6.993  10.188   8.450 -0.7639  1.4689 -1.0123
43441SOL     OW35007   0.885   0.256   8.112  0.6868  0.0753  0.1557
43441SOL    HW135008   0.920   0.232   8.027 -1.3556 -2.5833 -0.0694
43441SOL    HW235009   0.956   0.237   8.173  1.0007 -1.4490 -0.6357
43442SOL     OW35010  11.817   3.372   3.977 -0.4348  0.0537  0.3200
43442SOL    HW135011  11.749   3.395   4.040 -1.0318  0.3322 -0.4068
43442SOL    HW235012  11.893   3.425   4.002 -1.2124  1.4680 -0.2265
43443SOL     OW35013   0.939   7.993   5.027  0.5865  0.1866  0.0887
43443SOL    HW135014   0.875   7.951   5.085 -1.3003  1.8439 -0.6894
43443SOL    HW235015   1.002   7.924   5.007 -0.5999 -1.3525  1.3897
43444SOL     OW35016   5.910  10.408   9.454 -0.1560 -0.8144  0.1232
43444SOL    HW135017   5.885  10.395   9.363  0.5646  0.1223 -0.2260
43444SOL    HW235018   5.988  10.464   9.450 -0.3698 -0.3925  1.3226
43445SOL     OW35019   7.020   0.991   5.927 -0.1222 -0.1792  0.4201
43445SOL    HW135020   6.970   0.952   5.999 -0.9786 -0.1530 -0.1474
43445SOL    HW235021   6.954   1.026   5.867  0.6033  0.9198  0.2270
43446SOL     OW35022  10.562   0.482   3.047 -0.0009  0.2975 -0.0328
43446SOL    HW135023  10.533   0.568   3.077 -0.5859 -0.3862  1.4147
43446SOL    HW235024  10.496   0.457   2.981 -0.5632  0.4080  0.4758
43447SOL     OW35025  11.055  10.397   6.405  0.5208  0.4865  0.7251
43447SOL    HW135026  11.108  10.357   6.337 -0.9458 -0.8109  0.2751
43447SOL    HW235027  11.079  10.490   6.404  0.8901  0.3995 -1.2282
43448SOL     OW35028   5.185   1.578   1.913 -0.0025  0.3666 -0.0632
43448SOL    HW135029   5.097   1.617   1.911 -0.8851 -1.5244 -0.8198
43448SOL    HW235030   5.210   1.581   2.006 -1.9081 -1.1412  0.5789
43449SOL     OW35031   6.617  11.847   7.483  0.4493 -1.2841  0.1313
43449SOL    HW135032   6.675  11.773   7.499  1.9386  0.5768  5.8199
43449SOL    HW235033   6.536  11.826   7.530 -0.9395 -1.0693 -2.0396
43450SOL     OW35034   0.161   9.120   9.180 -0.1712  1.1690 -0.4437
43450SOL    HW135035   0.208   9.039   9.159  1.4189  2.4021 -1.9829
43450SOL    HW235036   0.077   9.091   9.214  0.6065 -1.1323 -0.2968
43451SOL     OW35037   9.423   3.791   2.331  0.3098 -0.8004 -0.3437
43451SOL    HW135038   9.352   3.786   2.268  1.1055 -1.1260 -1.2290
43451SOL    HW235039   9.476   3.714   2.315  1.5120  0.0272 -0.4980
43452SOL     OW35040   9.034   3.922   4.812  0.5682 -0.1739  0.6433
43452SOL    HW135041   9.045   3.970   4.730  1.4358 -1.0750  0.2006
43452SOL    HW235042   8.965   3.859   4.794  0.2324  0.1359  0.8488
43453SOL     OW35043   5.017   7.042  10.747 -0.2832 -0.3251  0.0296
43453SOL    HW135044   4.963   7.086  10.681 -0.1399 -0.5916 -0.2670
43453SOL    HW235045   5.007   6.949  10.729  0.0958 -0.3846  0.1144
43454SOL     OW35046   8.501   9.040   9.333  0.4983  0.0753 -0.1746
43454SOL    HW135047   8.443   9.108   9.298 -0.6555 -1.0751 -0.5532
43454SOL    HW235048   8.583   9.051   9.285 -0.0956  0.3882 -1.1373
43455SOL     OW35049   7.463   0.910  11.951 -0.0228  0.4466  0.9652
43455SOL    HW135050   7.471   0.816  11.938  0.9115 -0.0538  4.2372
43455SOL    HW235051   7.429   0.943  11.868  1.4439 -2.4787 -0.9866
43456SOL     OW35052   4.869   3.099  10.924 -0.2937  0.5014  0.2847
43456SOL    HW135053   4.964   3.085  10.929 -0.5815 -2.4086 -0.5966
43456SOL    HW235054   4.836   3.063  11.006 -0.7191  0.3863  0.0638
43457SOL     OW35055  10.830   8.173   2.579  0.5937 -0.3806  0.3902
43457SOL    HW135056  10.872   8.238   2.522 -0.1092  0.5114  0.8569
43457SOL    HW235057  10.874   8.091   2.558  1.4215  0.2175 -0.3139
43458SOL     OW35058  11.467   9.805   0.140 -0.0171 -0.2011  0.3606
43458SOL    HW135059  11.458   9.816   0.235 -0.5649  1.6774  0.1340
43458SOL    HW235060  11.379   9.821   0.105  0.4376  0.3715 -0.5614
43459SOL     OW35061   6.616  11.654   6.155 -0.0354  0.0463  0.5669
43459SOL    HW135062   6.658  11.731   6.117  0.7564 -0.9524 -0.6692
43459SOL    HW235063   6.655  11.645   6.241  0.8753  0.2466  0.1861
43460SOL     OW35064   6.222   3.791   0.119  0.1796 -0.2915 -0.0355
43460SOL    HW135065   6.283   3.845   0.069  2.1695 -2.3057  0.0519
43460SOL    HW235066   6.277   3.723   0.158 -2.0650 -1.8770  0.5375
43461SOL     OW35067   5.872   9.883   7.906 -0.3763  0.0194 -0.3343
43461SOL    HW135068   5.871   9.838   7.991  0.0496  1.5844  0.5336
43461SOL    HW235069   5.857   9.813   7.842  3.0344 -1.9036  0.6963
43462SOL     OW35070   0.864   0.480  11.965  0.5585 -0.1893  0.1497
43462SOL    HW135071   0.935   0.458  12.026  0.6415  0.0260  0.1292
43462SOL    HW235072   0.895   0.446  11.881  1.9003  2.3102 -0.4632
43463SOL     OW35073   5.606   0.073   3.178 -0.4004 -0.1953 -0.2986
43463SOL    HW135074   5.699   0.072   3.203 -0.6176  0.2556  0.5637
43463SOL    HW235075   5.606   0.100   3.086  0.3670 -0.9294 -0.5251
43464SOL     OW35076   2.395  10.174   5.679  0.2915 -0.3818  0.4356
43464SOL    HW135077   2.470  10.233   5.667  0.6257 -0.9687 -0.4847
43464SOL    HW235078   2.370  10.148   5.590 -0.9596 -0.2680  0.7319
43465SOL     OW35079   3.739   3.206   2.722 -0.4171  0.0451 -0.0331
43465SOL    HW135080   3.645   3.224   2.720 -0.5258  0.3267  2.9648
43465SOL    HW235081   3.749   3.141   2.792  1.6621  0.3233 -0.0125
43466SOL     OW35082  10.780  11.629   3.826  0.0704  0.0289 -0.0467
43466SOL    HW135083  10.804  11.717   3.855  1.6226 -0.5876  0.6638
43466SOL    HW235084  10.761  11.582   3.908  1.3035 -0.8499 -0.2442
43467SOL     OW35085   3.072   7.739   2.989 -0.9501 -0.9045  0.4063
43467SOL    HW135086   3.016   7.735   2.912  1.7496  0.7949 -1.8191
43467SOL    HW235087   3.125   7.659   2.985 -0.8416 -0.8411  0.5686
43468SOL     OW35088   0.326   6.933   7.185  0.4320 -0.2572 -0.4125
43468SOL    HW135089   0.403   6.876   7.193  1.8822  1.7749  0.9518
43468SOL    HW235090   0.292   6.940   7.274  1.5395  2.5978 -0.1274
43469SOL     OW35091   2.338   8.173  11.222  0.3179  0.5146  0.3245
43469SOL    HW135092   2.377   8.186  11.135  1.9693  0.3482  0.9971
43469SOL    HW235093   2.324   8.262  11.254  1.4376  0.6141  0.5945
43470SOL     OW35094   4.003   8.754   0.409 -0.1603 -0.8825  0.0542
43470SOL    HW135095   4.035   8.672   0.448 -0.8120 -0.4777  1.5127
43470SOL    HW235096   4.079   8.791   0.365  0.4248 -1.7401  0.3232
43471SOL     OW35097   0.152   1.013  10.803 -0.1055 -0.0834 -0.7294
43471SOL    HW135098   0.155   0.949  10.731 -1.5465 -0.3462 -0.5841
43471SOL    HW235099   0.091   0.975  10.866  0.0919  0.7960  0.0041
43472SOL     OW35100   1.841   4.632   2.121  0.5350 -0.6934  0.3274
43472SOL    HW135101   1.893   4.617   2.041 -0.1149 -0.1804 -0.2060
43472SOL    HW235102   1.781   4.703   2.097 -1.0534 -1.8958  0.6487
43473SOL     OW35103   4.531   4.085   7.827 -0.0118 -0.9451  0.3847
43473SOL    HW135104   4.466   4.085   7.897  0.0561 -0.0747  0.4656
43473SOL    HW235105   4.574   4.000   7.833 -0.7149 -1.2790  0.7358
43474SOL     OW35106   3.811  10.913   7.825 -0.5771  0.4402  0.3575
43474SOL    HW135107   3.717  10.927   7.822 -0.3507  1.8021 -1.6327
43474SOL    HW235108   3.848  10.973   7.760  1.4774 -1.6053 -0.5315
43475SOL     OW35109   3.518   6.654   1.449 -0.0866 -0.1403  0.6385
43475SOL    HW135110   3.498   6.562   1.434  1.0721 -0.3240  0.1343
43475SOL    HW235111   3.586   6.653   1.516  0.0996  0.3458  0.4586
43476SOL     OW35112   2.477   9.401   1.841 -0.2641 -0.7112  0.3332
43476SOL    HW135113   2.409   9.365   1.784 -0.3295  1.1358 -0.8405
43476SOL    HW235114   2.518   9.470   1.789  1.2054 -0.4578  1.7382
43477SOL     OW35115   8.260  11.917   8.712  0.6619 -0.1182 -0.0310
43477SOL    HW135116   8.185  11.882   8.663  1.8951 -0.1151 -2.0201
43477SOL    HW235117   8.317  11.842   8.725  0.8312  0.0981  0.4628
43478SOL     OW35118  10.283   5.467   6.600 -0.2367 -0.2192 -0.6322
43478SOL    HW135119  10.264   5.482   6.692  0.7286  0.3981 -0.5285
43478SOL    HW235120  10.213   5.512   6.553  0.0506  0.6694 -0.2228
43479SOL     OW35121   2.680   4.321   2.589 -0.5157 -0.4578 -0.3443
43479SOL    HW135122   2.770   4.290   2.578 -0.6958 -0.9189 -0.5551
43479SOL    HW235123   2.676   4.351   2.680 -0.2077 -0.6261 -0.2740
43480SOL     OW35124   3.439  10.887   0.398  0.5639 -0.0931  0.4128
43480SOL    HW135125   3.370  10.829   0.366  1.4258  0.0322 -1.8255
43480SOL    HW235126   3.391  10.961   0.436 -0.5467 -0.3913 -0.3424
43481SOL     OW35127   8.724  11.494   7.136 -0.3281 -0.3552 -0.0440
43481SOL    HW135128   8.798  11.457   7.087  0.2918 -0.6372  1.0527
43481SOL    HW235129   8.736  11.589   7.130  1.3836 -0.3562  1.8275
43482SOL     OW35130   1.011   1.562   6.506  0.4009  0.1196 -0.3152
43482SOL    HW135131   0.944   1.621   6.542  0.6768 -0.0031  0.4147
43482SOL    HW235132   1.082   1.621   6.479  1.4970  0.0591  2.1485
43483SOL     OW35133  10.436   7.625   9.325  0.2948  0.0342 -0.3759
43483SOL    HW135134  10.408   7.634   9.233  2.2545 -0.7523 -1.1036
43483SOL    HW235135  10.487   7.704   9.341 -0.7408  0.5845  0.3601
43484SOL     OW35136   9.805   7.440   1.477 -0.4671  0.2648 -0.3500
43484SOL    HW135137   9.896   7.418   1.499 -0.3966  1.3415  0.5480
43484SOL    HW235138   9.752   7.376   1.523 -0.2011  0.4468  0.2130
43485SOL     OW35139   9.649   6.306   1.302 -0.2346  0.0974  0.1845
43485SOL    HW135140   9.712   6.360   1.254  1.2432 -2.1583 -0.5379
43485SOL    HW235141   9.618   6.242   1.238 -0.8473 -0.8398  1.3752
43486SOL     OW35142   5.841   0.752   2.449  0.3360 -0.1529 -0.1776
43486SOL    HW135143   5.824   0.845   2.430  0.3506  0.3156  1.8618
43486SOL    HW235144   5.932   0.738   2.424  0.0897  0.1433 -1.2822
43487SOL     OW35145  11.935   6.294   6.768  0.3938 -0.0009 -0.2388
43487SOL    HW135146  11.886   6.254   6.696  1.2299  0.1256 -0.9012
43487SOL    HW235147  12.027   6.272   6.750  0.6080 -0.0854  0.8735
43488SOL     OW35148  11.229   8.848   0.555  0.2067 -0.1443 -0.5554
43488SOL    HW135149  11.226   8.939   0.584  0.0001  0.4665 -2.3303
43488SOL    HW235150  11.320   8.821   0.569  0.1521  0.1706  0.4416
43489SOL     OW35151  10.176   4.629   7.538 -0.3710 -0.2767  0.4632
43489SOL    HW135152  10.226   4.693   7.487 -1.1332  0.8127  1.0415
43489SOL    HW235153  10.235   4.606   7.610 -0.4416  0.5026  0.7783
43490SOL     OW35154   6.808   7.900  10.976  0.2883  0.4625  0.2318
43490SOL    HW135155   6.750   7.963  10.934 -0.2872  1.7487  2.7745
43490SOL    HW235156   6.758   7.866  11.050  2.0241  0.0442  1.2734
43491SOL     OW35157   1.146  10.034   9.067  0.3987 -0.3323 -0.6588
43491SOL    HW135158   1.146   9.939   9.077  0.4024 -0.3507 -0.8350
43491SOL    HW235159   1.217  10.064   9.123 -0.2014 -0.3575  0.1223
43492SOL     OW35160   8.803   3.355   7.914 -0.1052  0.5040  0.2183
43492SOL    HW135161   8.878   3.414   7.919 -1.2961  1.9851  2.1271
43492SOL    HW235162   8.833   3.275   7.958  0.6693  0.7031  0.0664
43493SOL     OW35163   8.896  11.116   2.527 -0.2349 -0.3754 -0.7183
43493SOL    HW135164   8.978  11.066   2.518  1.1424  1.7699 -0.6790
43493SOL    HW235165   8.921  11.195   2.574 -1.8361  1.4400 -2.7302
43494SOL     OW35166  11.978  10.355   3.759 -0.7930  0.3419 -0.1756
43494SOL    HW135167  11.943  10.433   3.802 -0.2933  0.6320 -0.2804
43494SOL    HW235168  12.023  10.389   3.681 -2.1288 -0.2144 -1.2268
43495SOL     OW35169   5.228   2.209   1.991  0.2257  0.1485  0.2297
43495SOL    HW135170   5.258   2.289   2.034  0.9856 -0.2760  0.5029
43495SOL    HW235171   5.274   2.139   2.037 -0.2103 -0.4213 -0.2027
43496SOL     OW35172   5.378   6.996   2.175  0.6472 -0.6374 -0.0756
43496SOL    HW135173   5.316   6.928   2.150  1.3974 -1.5811  0.5568
43496SOL    HW235174   5.462   6.950   2.184  1.7294  0.8034 -2.0646
43497SOL     OW35175   4.429   3.777   5.381 -0.3601 -0.2027 -0.6033
43497SOL    HW135176   4.373   3.762   5.458  0.6509 -0.8570  0.0276
43497SOL    HW235177   4.470   3.693   5.365  1.4296  0.5518 -0.2424
43498SOL     OW35178   0.907   5.270   4.467 -0.0319 -0.8316 -0.9476
43498SOL    HW135179   0.904   5.308   4.379  0.2571  1.7283  0.0634
43498SOL    HW235180   0.969   5.325   4.514 -2.4903 -0.1195  1.7211
43499SOL     OW35181   1.915   0.106   6.043  0.1607  0.0553 -0.3290
43499SOL    HW135182   1.907   0.162   6.121 -3.9789 -0.9479  0.2292
43499SOL    HW235183   1.961   0.028   6.074 -0.6817  0.0271  0.9289
43500SOL     OW35184   0.510  10.589   4.186  0.6092  0.0133 -0.1492
43500SOL    HW135185   0.513  10.523   4.117 -0.0613 -0.2063  0.0297
43500SOL    HW235186   0.527  10.540   4.267 -2.8776 -0.5561  0.3991
43501SOL     OW35187   6.983   3.131   0.632  0.0714  0.1819  0.5251
43501SOL    HW135188   6.927   3.096   0.702  2.3093 -2.5017  1.1573
43501SOL    HW235189   7.057   3.170   0.677  1.2948 -1.1192 -0.2668
43502SOL     OW35190   8.466   3.297   7.851  0.3151 -0.1304  0.6674
43502SOL    HW135191   8.464   3.267   7.942 -0.2692 -0.5532  0.5247
43502SOL    HW235192   8.557   3.286   7.824  0.6755  0.8154  1.4617
43503SOL     OW35193   2.014  10.453   5.290 -0.4249 -0.2725  0.3049
43503SOL    HW135194   2.097  10.482   5.329 -0.0048 -2.0872  0.8462
43503SOL    HW235195   2.029  10.361   5.268 -1.6785 -0.1014 -1.3980
43504SOL     OW35196   9.117   0.892   2.328 -0.6327 -0.4776  0.4633
43504SOL    HW135197   9.175   0.883   2.404  1.4897  2.4206 -0.6165
43504SOL    HW235198   9.133   0.981   2.297 -2.6140 -1.0128 -2.4468
43505SOL     OW35199   3.746   7.195   0.962  0.1727 -0.2001  0.1400
43505SOL    HW135200   3.692   7.133   0.913  0.2988  0.5620 -1.0062
43505SOL    HW235201   3.690   7.271   0.976  0.0010 -0.5707  1.5908
43506SOL     OW35202   6.580   9.600   9.787 -0.8135  0.0300  0.2049
43506SOL    HW135203   6.552   9.691   9.797  2.7581  1.3870 -0.8844
43506SOL    HW235204   6.570   9.582   9.694  1.6390  0.5601 -0.2202
43507SOL     OW35205   8.933   6.312   3.907 -0.0133  0.3028  0.3923
43507SOL    HW135206   8.898   6.257   3.837  0.6341 -0.5837  0.7595
43507SOL    HW235207   8.961   6.392   3.863  0.2665 -0.1944 -0.3454
43508SOL     OW35208  10.273   2.996   1.387  0.0903  0.0010 -0.3961
43508SOL    HW135209  10.364   3.023   1.399 -0.2206  0.6469  0.6445
43508SOL    HW235210  10.237   2.993   1.475 -1.0885  0.4290 -0.8457
43509SOL     OW35211   1.834   9.648  11.233  0.5567 -0.6390  0.3736
43509SOL    HW135212   1.877   9.627  11.316  3.1102  1.3284 -0.3274
43509SOL    HW235213   1.765   9.710  11.257  0.6146 -0.8468  1.1134
43510SOL     OW35214   2.139   2.693   3.269 -0.2275 -0.4553 -0.1858
43510SOL    HW135215   2.209   2.755   3.290  0.1714 -1.0259  0.2120
43510SOL    HW235216   2.130   2.697   3.174 -0.5464  0.5689 -0.1158
43511SOL     OW35217   3.982   8.322   3.588 -0.0701 -0.4012 -0.2016
43511SOL    HW135218   4.044   8.251   3.601  0.7736  0.5745  1.3822
43511SOL    HW235219   3.988   8.342   3.494  0.2584 -1.8521 -0.5151
43512SOL     OW35220   0.363   3.792  11.295 -0.2686  0.1099  0.7778
43512SOL    HW135221   0.369   3.776  11.200  0.7920  0.8670  0.6969
43512SOL    HW235222   0.282   3.748  11.321 -0.1866 -0.7758 -0.3386
43513SOL     OW35223   7.949   9.999  11.654  0.4159  0.1357 -0.2680
43513SOL    HW135224   7.907   9.913  11.648  0.9217 -0.3005  1.8172
43513SOL    HW235225   8.006  10.004  11.578  0.6312 -1.5290 -0.2397
43514SOL     OW35226   0.103  11.344  10.394 -0.0406  0.6007 -0.1401
43514SOL    HW135227   0.084  11.289  10.318  1.0011  0.2732 -0.1797
43514SOL    HW235228   0.103  11.433  10.359 -1.1046  0.5851 -0.2047
43515SOL     OW35229   1.855   4.399  10.241  0.0770 -0.4649  0.2244
43515SOL    HW135230   1.801   4.460  10.191  1.5111 -0.1441 -0.9878
43515SOL    HW235231   1.863   4.439  10.328 -2.4543 -1.0314  0.8117
43516SOL     OW35232   6.850   2.327   8.924  0.0896 -0.6219 -0.9416
43516SOL    HW135233   6.846   2.232   8.915 -0.5495 -0.5250 -1.7695
43516SOL    HW235234   6.835   2.343   9.017 -1.5068 -1.2650 -1.0622
43517SOL     OW35235   1.798   8.536   7.895 -0.0676 -0.8354  0.1131
43517SOL    HW135236   1.771   8.444   7.892  2.8231 -1.8071 -0.3500
43517SOL    HW235237   1.852   8.547   7.817 -1.6901  1.8204 -0.7521
43518SOL     OW35238  11.070   7.304   0.693 -0.3393  0.2794 -0.4823
43518SOL    HW135239  11.050   7.385   0.646 -1.1053 -0.0371 -0.7129
43518SOL    HW235240  11.008   7.240   0.659 -0.4817 -0.1200  0.4921
43519SOL     OW35241   0.733   5.616   8.084  0.0420 -0.3918  0.2318
43519SOL    HW135242   0.759   5.702   8.048 -0.0887 -0.0314  0.9878
43519SOL    HW235243   0.689   5.572   8.011 -0.7612  0.5682  0.1203
43520SOL     OW35244  10.486  10.912  10.751 -0.7358 -0.3823 -0.6383
43520SOL    HW135245  10.511  10.890  10.662 -0.3654  0.0547 -0.6442
43520SOL    HW235246  10.551  10.869  10.806 -0.8960 -0.5561 -0.5853
43521SOL     OW35247   8.132   5.008   6.214  0.5595 -0.3004 -0.2130
43521SOL    HW135248   8.175   4.927   6.241  0.3740 -0.3816 -0.1598
43521SOL    HW235249   8.195   5.050   6.156 -0.1962 -1.5469 -2.0458
43522SOL     OW35250   6.172   3.868   2.298 -0.2152  0.3870 -0.2033
43522SOL    HW135251   6.256   3.910   2.320 -0.2229  0.9794 -1.2313
43522SOL    HW235252   6.188   3.774   2.310  1.4330  0.2279 -2.8454
43523SOL     OW35253   2.227   0.227   3.864 -0.6603  0.2447  0.3951
43523SOL    HW135254   2.245   0.276   3.944 -0.3499 -0.0753  0.5261
43523SOL    HW235255   2.297   0.161   3.860 -1.0123 -0.1248  0.1769
43524SOL     OW35256   2.270   7.625  11.070  0.6971 -0.4502  0.8066
43524SOL    HW135257   2.303   7.604  10.983  0.1436 -1.8875  0.9124
43524SOL    HW235258   2.280   7.544  11.120 -2.4992 -0.8851  0.9497
43525SOL     OW35259   6.725  10.950   1.314 -0.5014 -0.3728 -0.2939
43525SOL    HW135260   6.785  11.004   1.365 -0.4561 -2.0959  1.6140
43525SOL    HW235261   6.776  10.873   1.291 -1.1453 -0.5350 -1.2168
43526SOL     OW35262   8.574   6.090   9.028 -0.2707 -0.0358 -0.7097
43526SOL    HW135263   8.552   6.079   8.935 -1.1045  0.1273 -0.5321
43526SOL    HW235264   8.531   6.017   9.071 -0.5485  0.3425 -0.3443
43527SOL     OW35265   3.142   4.475   9.178  0.3297  0.1740  0.1567
43527SOL    HW135266   3.085   4.399   9.166  0.7527 -0.4989  2.0095
43527SOL    HW235267   3.082   4.544   9.207 -0.1314  0.7537 -2.0011
43528SOL     OW35268   6.068   7.793   0.469  0.3047 -0.5983  0.4688
43528SOL    HW135269   6.045   7.804   0.561  1.1415  1.1363  0.5120
43528SOL    HW235270   6.148   7.845   0.458 -0.1569 -0.2110 -1.3848
43529SOL     OW35271   0.755   6.404   2.251 -0.4804  0.3725  0.1297
43529SOL    HW135272   0.666   6.435   2.235 -0.3004  0.8141 -0.0106
43529SOL    HW235273   0.812   6.475   2.221 -0.1113  0.8900  1.8930
43530SOL     OW35274   4.046   3.386   3.272  0.0221 -0.0121  0.0504
43530SOL    HW135275   4.073   3.343   3.192 -0.3505  0.4105 -0.3069
43530SOL    HW235276   4.020   3.474   3.245 -2.3909 -0.5788  0.2341
43531SOL     OW35277   5.159   9.188  10.946  0.2908  0.0209  0.3119
43531SOL    HW135278   5.185   9.155  11.032 -1.0012  1.3801  1.2895
43531SOL    HW235279   5.068   9.217  10.958  0.1649  0.4736 -1.4452
43532SOL     OW35280   7.565   0.957   3.556 -0.2693  0.0544 -0.1156
43532SOL    HW135281   7.523   1.017   3.494  3.7737  2.3954 -0.9802
43532SOL    HW235282   7.573   0.875   3.507  0.5046  1.0698 -1.7971
43533SOL     OW35283   1.827  10.936   2.210  0.2566 -0.5485 -0.1459
43533SOL    HW135284   1.771  11.006   2.244  1.5408  1.0132 -1.0791
43533SOL    HW235285   1.840  10.959   2.118  0.0141 -2.5223 -0.7159
43534SOL     OW35286  10.503   8.907   3.712 -0.0057  0.8208 -0.1565
43534SOL    HW135287  10.416   8.906   3.673 -1.3967 -0.1101  2.6608
43534SOL    HW235288  10.502   8.981   3.772  0.4699 -0.2043  1.1699
43535SOL     OW35289   6.484  10.473   4.822  0.0070 -0.8782  0.0573
43535SOL    HW135290   6.492  10.433   4.909 -0.7479 -1.3268 -0.0651
43535SOL    HW235291   6.404  10.526   4.828  0.1432 -0.6359 -0.2605
43536SOL     OW35292   1.837  10.682   1.245 -0.1687 -0.3044 -0.3613
43536SOL    HW135293   1.792  10.613   1.197  2.2682 -1.1155 -1.6464
43536SOL    HW235294   1.874  10.739   1.177 -1.4538  1.9152  0.6599
43537SOL     OW35295   0.566   9.138  10.605  0.2936  0.3443  0.4564
43537SOL    HW135296   0.502   9.185  10.659 -0.3496  0.4496 -0.3732
43537SOL    HW235297   0.650   9.156  10.647 -0.3814 -1.5200  2.8156
43538SOL     OW35298   7.123   7.645   8.620 -0.0658 -0.3882 -0.1833
43538SOL    HW135299   7.121   7.658   8.714  1.5076  1.7821 -0.3526
43538SOL    HW235300   7.052   7.699   8.586  1.0901  1.1314 -0.3396
43539SOL     OW35301   3.348   6.647   0.650  0.2665  0.2132  0.3346
43539SOL    HW135302   3.408   6.576   0.626 -0.0844 -0.4269  1.2979
43539SOL    HW235303   3.326   6.630   0.742 -2.1770 -0.1717 -0.2369
43540SOL     OW35304   1.607   7.690   4.481 -0.2140  0.0266  0.3502
43540SOL    HW135305   1.691   7.726   4.455 -1.2581  0.7220 -2.5122
43540SOL    HW235306   1.623   7.596   4.491  1.3361  0.4297  2.2728
43541SOL     OW35307   4.083   7.393  11.973  0.5686 -0.4410 -0.2376
43541SOL    HW135308   4.032   7.312  11.966 -0.7938  0.4278 -0.6990
43541SOL    HW235309   4.073   7.420  12.064 -0.4009  0.0891 -0.4876
43542SOL     OW35310   7.060   8.729   8.794  0.4709  0.1840 -0.0916
43542SOL    HW135311   7.140   8.725   8.742 -0.9629 -1.1546 -2.4083
43542SOL    HW235312   7.032   8.820   8.787  1.9703  0.7732  1.1272
43543SOL     OW35313   1.043   9.720   8.117 -0.0949  0.0747 -0.6275
43543SOL    HW135314   0.954   9.684   8.106 -0.5297  0.6981  0.6776
43543SOL    HW235315   1.043   9.799   8.064 -0.8450  0.8953  0.5476
43544SOL     OW35316   4.030  10.993  10.613  0.2500 -0.0250  0.0848
43544SOL    HW135317   3.974  11.071  10.620 -0.8064 -0.8823  1.8999
43544SOL    HW235318   3.969  10.921  10.601  1.1582 -0.7345 -0.4098
43545SOL     OW35319   4.068   5.584   9.234 -0.5782  0.1352 -0.0761
43545SOL    HW135320   4.106   5.497   9.247 -0.9965 -0.2821 -1.4758
43545SOL    HW235321   4.082   5.629   9.317  0.7286 -0.8535  0.2707
43546SOL     OW35322   7.150   6.003   1.748  0.2830  0.3253  0.3894
43546SOL    HW135323   7.220   6.039   1.803  0.4517  0.9234 -0.2005
43546SOL    HW235324   7.152   6.057   1.669 -1.8631  1.3659  0.9825
43547SOL     OW35325   0.458   0.622  11.957 -0.5314  0.1007  0.7091
43547SOL    HW135326   0.369   0.656  11.944 -0.3302  1.6850  3.0004
43547SOL    HW235327   0.445   0.528  11.972 -1.5101 -0.1910 -1.5534
43548SOL     OW35328   1.279   5.464   7.631 -0.1968 -0.2731 -0.0685
43548SOL    HW135329   1.210   5.494   7.691 -1.6785 -1.2066 -1.2220
43548SOL    HW235330   1.303   5.377   7.663 -0.3482 -0.4000 -0.2944
43549SOL     OW35331  10.589   1.367   9.719 -0.3604  0.2064 -0.3774
43549SOL    HW135332  10.540   1.286   9.732  1.1214 -0.7159 -0.2647
43549SOL    HW235333  10.627   1.387   9.804  1.4420 -0.4797 -0.9763
43550SOL     OW35334   9.549   0.613   9.500 -0.3357  0.3081  0.0021
43550SOL    HW135335   9.528   0.682   9.437 -1.5892  0.5524  0.6516
43550SOL    HW235336   9.494   0.633   9.576  0.0256 -0.8466  0.5820
43551SOL     OW35337   2.305   8.254   3.955 -0.9105 -0.0556  0.0467
43551SOL    HW135338   2.336   8.287   4.040  0.1437 -0.8221 -0.0174
43551SOL    HW235339   2.354   8.306   3.891 -1.5983  0.4222 -0.1035
43552SOL     OW35340  11.275  10.781   1.280 -0.5777 -0.2025  0.3573
43552SOL    HW135341  11.262  10.718   1.209 -0.2703  1.2258 -1.0186
43552SOL    HW235342  11.357  10.755   1.322  0.5280  0.3500 -1.3886
43553SOL     OW35343   6.632   8.932  10.551 -0.5456 -0.6078  0.3099
43553SOL    HW135344   6.655   8.875  10.478  0.9255  1.3854 -0.8868
43553SOL    HW235345   6.536   8.929  10.554 -0.5582 -2.1614 -0.4620
43554SOL     OW35346   3.067  11.472   1.107 -0.0311 -0.0564  0.0014
43554SOL    HW135347   2.994  11.487   1.048  1.0026  0.4954 -1.1911
43554SOL    HW235348   3.120  11.552   1.101  1.8922 -1.3007 -1.0275
43555SOL     OW35349   2.462   8.510  10.600  0.0932 -0.1877  0.2297
43555SOL    HW135350   2.379   8.500  10.647  0.5200 -1.7487  0.7096
43555SOL    HW235351   2.466   8.434  10.542  0.7458  0.3892 -0.4935
43556SOL     OW35352  10.158   0.928   1.095 -0.7088 -0.0723 -0.7474
43556SOL    HW135353  10.140   0.900   1.006  0.9481 -1.0462 -0.8217
43556SOL    HW235354  10.134   0.853   1.150  0.2844 -0.3016 -0.6002
43557SOL     OW35355  10.580   1.839   3.841  0.0746 -0.3510 -0.2473
43557SOL    HW135356  10.614   1.753   3.814  2.5838  0.3153  0.4899
43557SOL    HW235357  10.573   1.888   3.759  1.5390 -0.3494 -0.4137
43558SOL     OW35358   9.967   5.435  10.942  0.3538  0.0913 -0.1110
43558SOL    HW135359   9.983   5.365  10.879 -1.0032 -0.8873  0.5828
43558SOL    HW235360   9.874   5.457  10.930  0.0920 -0.0655  1.4765
43559SOL     OW35361   8.320   3.964   4.689 -0.3499  0.4058  0.0508
43559SOL    HW135362   8.387   3.950   4.755 -0.0590 -0.0566 -0.3324
43559SOL    HW235363   8.319   3.882   4.638 -1.2572  0.3764  0.1036
43560SOL     OW35364   5.304   4.130   8.666  0.0084  0.5949  0.2539
43560SOL    HW135365   5.368   4.188   8.624  0.3952  0.1216  0.1813
43560SOL    HW235366   5.330   4.130   8.758  2.3820 -2.3847 -0.2709
43561SOL     OW35367   3.546   2.274   6.999 -0.5180  0.4782 -0.0395
43561SOL    HW135368   3.640   2.267   6.980 -0.9169 -2.3477 -1.5623
43561SOL    HW235369   3.527   2.198   7.053 -2.4027 -0.8855 -2.4071
43562SOL     OW35370   6.453   3.318   6.783  0.1605 -0.0870  0.1385
43562SOL    HW135371   6.465   3.411   6.799  1.2856  0.2918 -2.5413
43562SOL    HW235372   6.401   3.288   6.858  0.4033  2.4988  1.4509
43563SOL     OW35373   5.565   6.051   7.857 -0.9306 -0.3316 -0.3602
43563SOL    HW135374   5.513   5.983   7.814 -2.7392 -0.3149  1.6369
43563SOL    HW235375   5.504   6.124   7.868  0.4322  0.9089 -0.6951
43564SOL     OW35376   1.850   2.359   1.571 -0.1758 -0.0400  0.4174
43564SOL    HW135377   1.936   2.370   1.611  0.5813 -2.8391 -0.2838
43564SOL    HW235378   1.797   2.318   1.639 -0.5405  0.3023  0.3457
43565SOL     OW35379   7.880   2.184  10.903  0.7532  0.0294 -0.5375
43565SOL    HW135380   7.912   2.107  10.950 -0.9236 -0.3700  0.0282
43565SOL    HW235381   7.822   2.148  10.836 -1.7782  0.7835  1.0807
43566SOL     OW35382   0.717  11.099   4.139  0.2157  0.0952  0.1900
43566SOL    HW135383   0.739  11.006   4.131  0.2910  0.2603 -1.9928
43566SOL    HW235384   0.625  11.099   4.166  0.9428 -0.5514  3.1052
43567SOL     OW35385   3.051   5.216   5.710 -0.2586  0.1437  0.5015
43567SOL    HW135386   3.090   5.129   5.711  1.4694  0.8627  2.2709
43567SOL    HW235387   2.960   5.202   5.737 -0.4832 -1.2582 -0.8644
43568SOL     OW35388   0.340  10.420   8.390 -0.3645 -0.6358 -0.0899
43568SOL    HW135389   0.430  10.438   8.417  0.2650 -3.6829  0.2500
43568SOL    HW235390   0.294  10.503   8.398  1.5004  0.2132  3.4443
43569SOL     OW35391   3.341   6.784  10.160 -0.0748  0.1028 -0.2830
43569SOL    HW135392   3.422   6.750  10.121  0.7728  1.2137  0.4758
43569SOL    HW235393   3.314   6.716  10.222  0.5764 -0.0346 -0.1431
43570SOL     OW35394   4.219   7.219   3.966 -0.3149  0.1161 -0.3460
43570SOL    HW135395   4.237   7.158   4.038 -0.0668 -0.3829 -0.8173
43570SOL    HW235396   4.153   7.174   3.912  0.1983  0.0606 -0.9426
43571SOL     OW35397   6.531   2.757   5.786 -0.9699 -0.4644 -0.2481
43571SOL    HW135398   6.558   2.732   5.874 -0.1140 -0.1524 -0.4088
43571SOL    HW235399   6.551   2.681   5.731 -0.0895 -0.1195 -0.4217
43572SOL     OW35400  10.750   8.124   9.988 -0.4120 -0.2269  0.3255
43572SOL    HW135401  10.742   8.095   9.898 -1.4031 -0.0172  0.3388
43572SOL    HW235402  10.774   8.216   9.982  1.0389 -0.5701  0.2921
43573SOL     OW35403   6.423   3.567   9.682  0.2732 -0.2490  0.9778
43573SOL    HW135404   6.508   3.587   9.643 -0.1812 -0.9697 -0.4477
43573SOL    HW235405   6.426   3.609   9.768  2.0641 -0.2538  0.9644
43574SOL     OW35406  11.414   6.748  10.466  0.0719  0.4371 -0.3206
43574SOL    HW135407  11.503   6.713  10.464  0.1913  0.7181 -2.1474
43574SOL    HW235408  11.379   6.722  10.551  1.8084  0.1202  0.3326
43575SOL     OW35409  11.554  11.209   1.268  0.1924 -0.5414 -0.0324
43575SOL    HW135410  11.484  11.145   1.253 -1.2274  0.9325 -0.0025
43575SOL    HW235411  11.561  11.257   1.186  0.3360  0.0940  0.3438
43576SOL     OW35412  11.812   8.303   0.554  0.1927 -0.1500 -0.8051
43576SOL    HW135413  11.814   8.223   0.501  0.4650  0.4654 -1.7556
43576SOL    HW235414  11.817   8.374   0.490 -0.3005  0.6376  0.0071
43577SOL     OW35415   8.066   9.271   0.599 -0.1898 -0.2221 -0.6964
43577SOL    HW135416   8.110   9.262   0.514 -0.5761  2.1702 -1.2001
43577SOL    HW235417   8.094   9.356   0.632 -1.4778 -0.3209  0.7668
43578SOL     OW35418   3.951   7.341  11.606  0.1779 -0.0138 -0.0416
43578SOL    HW135419   3.884   7.291  11.652  0.3822  0.2747  0.5833
43578SOL    HW235420   3.977   7.284  11.533  0.5084 -0.8931  0.7375
43579SOL     OW35421   6.240  11.882   5.778 -0.1736 -0.2072 -0.8829
43579SOL    HW135422   6.309  11.883   5.845 -1.3213  0.5384  0.3279
43579SOL    HW235423   6.240  11.791   5.746 -0.1898 -0.8367  0.7863
43580SOL     OW35424  10.516  11.181   6.392 -0.2294 -0.3236 -0.1339
43580SOL    HW135425  10.512  11.273   6.366  1.0994 -0.1938  0.0668
43580SOL    HW235426  10.433  11.145   6.363 -2.8003  1.8906  3.5668
43581SOL     OW35427   5.140   6.679   0.176 -0.0719  0.7130  0.0677
43581SOL    HW135428   5.215   6.727   0.210 -0.0622  0.4089  0.4757
43581SOL    HW235429   5.156   6.672   0.082  1.0494 -0.4772  0.3189
43582SOL     OW35430   5.173   5.401   0.528  0.5485 -0.5547  0.1382
43582SOL    HW135431   5.200   5.432   0.614 -0.5447  1.8974 -0.3229
43582SOL    HW235432   5.102   5.339   0.546 -0.6614  1.0066  1.0271
43583SOL     OW35433   9.732   2.028   8.133 -0.3354 -0.2536  0.3032
43583SOL    HW135434   9.775   2.091   8.190  2.8603 -1.0182 -0.9888
43583SOL    HW235435   9.749   2.060   8.044 -0.3796 -1.8418 -0.3188
43584SOL     OW35436   1.003   9.145   8.653 -0.2912 -0.0046  0.4463
43584SOL    HW135437   1.082   9.092   8.665 -0.6446 -0.4850  0.6795
43584SOL    HW235438   1.010   9.213   8.720  0.2849  0.3943 -0.0126
43585SOL     OW35439   6.120   1.950  11.626 -0.1829 -0.1505  1.2232
43585SOL    HW135440   6.092   1.880  11.685 -0.2710 -0.8524  0.3817
43585SOL    HW235441   6.090   1.921  11.539  0.1579  0.7305  0.7979
43586SOL     OW35442   3.856   3.850   7.645  0.2295 -0.4625  0.1220
43586SOL    HW135443   3.886   3.938   7.671  0.1902 -0.3648 -0.1556
43586SOL    HW235444   3.936   3.799   7.637  0.1660 -0.8283  1.6111
43587SOL     OW35445   2.783   0.562   9.189 -0.0650 -0.7694  0.1465
43587SOL    HW135446   2.836   0.633   9.153  0.0676 -0.7884  0.3038
43587SOL    HW235447   2.753   0.514   9.112 -2.0635  0.7809 -0.1130
43588SOL     OW35448   0.029   3.204   0.975  0.2564 -0.4066  0.1060
43588SOL    HW135449   0.013   3.204   1.069 -1.7485 -0.0125 -0.1989
43588SOL    HW235450   0.108   3.150   0.965  0.1955 -0.9188  1.9472
43589SOL     OW35451   0.590   3.031   6.321 -0.1817  0.3629  0.3987
43589SOL    HW135452   0.683   3.045   6.301  0.6283  0.0072  3.4517
43589SOL    HW235453   0.545   3.104   6.280  1.3201  0.1685 -1.7577
43590SOL     OW35454   9.418   8.189   1.886  0.2208 -0.2501  0.1576
43590SOL    HW135455   9.360   8.265   1.880 -0.2676 -0.6584 -0.5226
43590SOL    HW235456   9.503   8.225   1.909 -0.3181  0.3521  1.2528
43591SOL     OW35457  10.424  10.448   3.791  0.0080  0.0457  0.3150
43591SOL    HW135458  10.388  10.512   3.853  0.1117  1.0664 -0.6419
43591SOL    HW235459  10.401  10.483   3.705 -1.0410 -1.8742 -0.2386
43592SOL     OW35460  10.134  11.049   4.697  0.1955 -0.1203 -0.3793
43592SOL    HW135461  10.219  11.043   4.653 -0.2480  2.3515 -1.7886
43592SOL    HW235462  10.149  11.106   4.772 -0.2491  0.4737 -0.7367
43593SOL     OW35463   1.775   1.990   2.519  0.1330 -0.2530  0.1909
43593SOL    HW135464   1.684   1.969   2.501  0.3920  0.3221 -2.0981
43593SOL    HW235465   1.824   1.912   2.492  0.5831  0.8475 -2.5082
43594SOL     OW35466  11.403  10.593   6.344  0.1848 -0.0858 -0.4625
43594SOL    HW135467  11.436  10.624   6.429  0.2811  2.9540 -1.4920
43594SOL    HW235468  11.311  10.622   6.342  0.9766  2.7335 -2.5024
43595SOL     OW35469   4.283   6.171   2.725  0.1555  0.7821  0.6393
43595SOL    HW135470   4.220   6.225   2.677  0.6513  0.9925  0.2288
43595SOL    HW235471   4.238   6.150   2.807  0.2338  2.4436  1.1395
43596SOL     OW35472   9.218  11.046   2.612 -0.3645 -0.3861  0.2081
43596SOL    HW135473   9.294  11.044   2.554 -0.8931  1.8000 -0.6386
43596SOL    HW235474   9.253  11.018   2.697  1.2524 -0.0254 -0.2964
43597SOL     OW35475  10.177   1.935  11.648  0.3155 -0.5765  0.1694
43597SOL    HW135476  10.269   1.913  11.662 -0.0210 -2.3790 -0.1533
43597SOL    HW235477  10.129   1.861  11.685 -0.9704 -0.0780 -0.4386
43598SOL     OW35478   6.467   6.120   8.090 -0.2410  0.2208 -0.6593
43598SOL    HW135479   6.554   6.084   8.108  0.3033  0.5616 -2.4629
43598SOL    HW235480   6.482   6.188   8.024 -1.9150  0.1070 -1.2040
43599SOL     OW35481   0.220   6.667   4.365 -0.2116 -0.6061  0.3549
43599SOL    HW135482   0.134   6.644   4.400 -0.7540  0.1673 -0.4229
43599SOL    HW235483   0.256   6.584   4.333 -1.1650 -0.7570 -0.3577
43600SOL     OW35484  10.826   1.250   0.116 -0.0245 -0.3995  0.1532
43600SOL    HW135485  10.824   1.260   0.211 -0.2632  0.1496  0.0909
43600SOL    HW235486  10.772   1.172   0.099 -1.7515  0.7052  0.3152
43601SOL     OW35487  10.880   8.492  10.692  0.8165 -0.5084  0.4515
43601SOL    HW135488  10.935   8.568  10.707 -0.2485  0.4213 -0.2416
43601SOL    HW235489  10.884   8.478  10.598  0.3017 -0.7602  0.4626
43602SOL     OW35490   4.283  11.361  10.282  0.0582 -0.1886  0.1171
43602SOL    HW135491   4.189  11.366  10.261  0.2779 -0.9691 -1.1490
43602SOL    HW235492   4.285  11.358  10.378 -1.2930 -1.3628  0.1532
43603SOL     OW35493   8.255   4.987   5.339 -0.0624  0.3893  0.7294
43603SOL    HW135494   8.259   5.069   5.289 -3.0188  0.7549  0.8933
43603SOL    HW235495   8.292   5.009   5.424  1.4177  0.8475 -0.0029
43604SOL     OW35496   4.016   3.856   0.071 -0.2287  0.3678  0.2860
43604SOL    HW135497   4.070   3.933   0.090  0.5644 -0.3472  1.0218
43604SOL    HW235498   4.003   3.814   0.157 -2.6948  0.9679  0.2729
43605SOL     OW35499  10.870   8.385   0.707 -0.2135  0.0747  0.1443
43605SOL    HW135500  10.927   8.400   0.782  0.7441  0.8329 -0.7087
43605SOL    HW235501  10.915   8.317   0.656 -0.0736  0.6483 -0.5124
43606SOL     OW35502   0.933   7.686  10.803 -0.2085 -0.4523 -0.0778
43606SOL    HW135503   0.870   7.699  10.733  0.2694 -1.5048 -0.7459
43606SOL    HW235504   1.012   7.655  10.758  0.2966 -0.5752  0.8663
43607SOL     OW35505  10.017  10.665  10.377  0.3627  0.1644  0.4114
43607SOL    HW135506   9.964  10.680  10.455 -1.1835  0.7536 -0.7037
43607SOL    HW235507   9.979  10.587  10.337 -0.6496  1.4159 -1.1688
43608SOL     OW35508   2.392   9.439  11.170 -0.0107  0.7090 -0.0639
43608SOL    HW135509   2.315   9.436  11.228 -1.0417  0.0968 -1.4173
43608SOL    HW235510   2.445   9.365  11.198 -1.5021 -0.8624 -1.1709
43609SOL     OW35511   5.790  10.642   2.563  0.0432 -0.4803 -0.3662
43609SOL    HW135512   5.802  10.558   2.609  1.4358  0.4510  1.0617
43609SOL    HW235513   5.701  10.668   2.586  0.3887 -0.4916  1.0757
43610SOL     OW35514   9.837   2.736   8.895  0.2141  0.4941  0.2631
43610SOL    HW135515   9.870   2.793   8.965  0.4441  1.4541 -0.6111
43610SOL    HW235516   9.898   2.749   8.823 -0.6476  0.3684 -0.5017
43611SOL     OW35517  10.170   1.516  11.878  0.6256 -0.1240  0.4075
43611SOL    HW135518  10.178   1.421  11.889 -0.0141 -0.5405 -2.0356
43611SOL    HW235519  10.251   1.542  11.835  0.3094  0.2129  0.0039
43612SOL     OW35520   6.836  10.785   4.580 -0.5394 -0.2039 -0.0848
43612SOL    HW135521   6.901  10.722   4.610 -0.3258 -0.3221 -0.7704
43612SOL    HW235522   6.768  10.731   4.538 -0.6773 -0.0251 -0.0923
43613SOL     OW35523   5.358   2.977   6.527  0.4910 -0.5256 -0.3090
43613SOL    HW135524   5.429   2.965   6.589 -0.4728 -1.1642  0.7019
43613SOL    HW235525   5.294   2.911   6.551  0.3734 -1.2395 -2.4096
43614SOL     OW35526  10.828   6.742  10.015  0.1152  0.2181  0.2106
43614SOL    HW135527  10.812   6.707  10.102  0.4629 -0.0415  0.1708
43614SOL    HW235528  10.753   6.713   9.963 -0.9546  1.7581  0.8103
43615SOL     OW35529  11.720   7.898   0.601 -0.4802 -0.1595 -0.2727
43615SOL    HW135530  11.733   7.993   0.599  1.9609 -0.4523 -1.0849
43615SOL    HW235531  11.716   7.876   0.694 -0.0447  0.6287 -0.0639
43616SOL     OW35532   1.367   2.221   1.387 -0.1483  0.4078 -0.4981
43616SOL    HW135533   1.381   2.140   1.437  0.0295  0.3415 -0.6551
43616SOL    HW235534   1.439   2.278   1.413  1.0258 -0.2957 -2.0582
43617SOL     OW35535   9.436   0.064   3.401 -0.0681  0.0116 -0.7399
43617SOL    HW135536   9.403   0.101   3.483  0.6555  0.3805 -0.6047
43617SOL    HW235537   9.488   0.135   3.363 -0.0418 -0.3086 -1.3053
43618SOL     OW35538   8.526   2.205   0.508  0.2249  0.2259 -0.0155
43618SOL    HW135539   8.583   2.144   0.462  1.1612  0.4407  0.8222
43618SOL    HW235540   8.445   2.156   0.523 -0.0260  0.0858 -1.6711
43619SOL     OW35541   1.690   4.381  11.899  0.0924  0.0394  0.1262
43619SOL    HW135542   1.725   4.407  11.985 -0.2517 -2.4036  1.0967
43619SOL    HW235543   1.752   4.316  11.866 -1.2508 -1.2054 -0.0853
43620SOL     OW35544  11.747  10.169   5.129  0.1159  0.0117 -0.1842
43620SOL    HW135545  11.685  10.219   5.182  1.3820  2.0773 -0.5111
43620SOL    HW235546  11.694  10.129   5.060 -1.1787 -0.5000  1.0707
43621SOL     OW35547   9.493   0.573   3.680  0.0784 -0.3212 -0.0834
43621SOL    HW135548   9.506   0.571   3.775  0.4761 -2.4808 -0.1317
43621SOL    HW235549   9.566   0.626   3.647  1.9250 -2.3037  0.5999
43622SOL     OW35550   9.438   9.666   8.879  0.4661  0.5246  0.3986
43622SOL    HW135551   9.475   9.578   8.884 -3.7480 -1.5581 -0.5555
43622SOL    HW235552   9.419   9.679   8.786 -3.1735  0.2997  0.9601
43623SOL     OW35553   6.204   7.520  10.074 -0.0805  0.3841 -0.0753
43623SOL    HW135554   6.212   7.438  10.026  1.0203  0.4944 -0.1206
43623SOL    HW235555   6.208   7.588  10.005 -1.6081  0.4686 -0.0978
43624SOL     OW35556   6.257   9.495   4.835  0.2440  0.0737  0.3541
43624SOL    HW135557   6.235   9.563   4.772  0.5658 -0.1440  0.0039
43624SOL    HW235558   6.346   9.469   4.813  0.2135 -0.2927  0.6410
43625SOL     OW35559   3.605   2.845   4.830 -1.0894  0.5536 -0.3346
43625SOL    HW135560   3.522   2.888   4.809 -0.7678  1.4520  0.1735
43625SOL    HW235561   3.660   2.915   4.866 -0.1994 -0.0828 -0.4226
43626SOL     OW35562   3.972   8.148   2.746 -0.1464  0.0912  0.1195
43626SOL    HW135563   3.991   8.230   2.701 -0.2110  0.5497  0.9166
43626SOL    HW235564   3.960   8.084   2.675 -1.6927  1.0914 -0.5783
43627SOL     OW35565   3.408   7.951   8.531  0.9312  0.3307  0.4172
43627SOL    HW135566   3.422   8.044   8.549  1.0290  0.1089  1.6387
43627SOL    HW235567   3.313   7.939   8.542  0.7501  0.4972 -0.8842
43628SOL     OW35568   8.827   5.916   0.030  0.6791  0.3320 -0.3934
43628SOL    HW135569   8.822   5.934   0.124 -0.4352 -2.7302  0.2518
43628SOL    HW235570   8.904   5.859   0.020 -1.2105 -2.4164 -0.6004
43629SOL     OW35571   7.975   2.054   0.285 -0.0479  0.6143  0.3029
43629SOL    HW135572   8.017   1.973   0.253  1.0749  0.4510  2.0504
43629SOL    HW235573   7.891   2.056   0.240  1.3417  0.3757 -2.5431
43630SOL     OW35574  10.942   4.078   8.466  0.3981 -0.4562  0.3099
43630SOL    HW135575  10.886   4.011   8.504 -0.2318 -1.6466 -2.4542
43630SOL    HW235576  11.025   4.032   8.448  0.2112 -0.3527 -0.9240
43631SOL     OW35577   9.557   8.271   7.774 -0.1120 -0.1327  0.3318
43631SOL    HW135578   9.473   8.313   7.757 -0.1639 -0.7327 -0.9851
43631SOL    HW235579   9.622   8.330   7.735  0.1025  0.3534  1.3842
43632SOL     OW35580   8.946   7.402   4.721 -0.0421  0.2680 -0.0160
43632SOL    HW135581   8.932   7.362   4.635  0.6245 -1.0564  0.4670
43632SOL    HW235582   8.872   7.371   4.774  0.5111 -0.3943  0.3785
43633SOL     OW35583   6.661   2.873   5.453  0.2013  0.1733  0.3029
43633SOL    HW135584   6.731   2.922   5.495  1.5460 -1.2172 -0.2155
43633SOL    HW235585   6.706   2.801   5.408 -1.3823  0.3851 -1.7175
43634SOL     OW35586   2.464  11.206  11.256 -0.3990 -0.3793 -0.4183
43634SOL    HW135587   2.498  11.201  11.166 -1.3710 -0.8475 -0.7723
43634SOL    HW235588   2.459  11.299  11.274  2.1040 -0.2646  0.0693
43635SOL     OW35589  10.341   6.072   0.860  0.1538  0.3743  0.0395
43635SOL    HW135590  10.353   6.039   0.950  0.3115 -1.1018 -0.4876
43635SOL    HW235591  10.249   6.099   0.857  0.4825  1.7201  1.0169
43636SOL     OW35592   4.397   0.498  11.188 -0.6133 -0.5872 -0.7042
43636SOL    HW135593   4.444   0.543  11.118 -0.3365  0.6308  0.2287
43636SOL    HW235594   4.464   0.479  11.253 -0.6429 -2.7624 -1.2315
43637SOL     OW35595   5.102   5.505   2.254 -0.1565  0.0721  0.3580
43637SOL    HW135596   5.079   5.541   2.168 -0.1154  2.0093  1.0929
43637SOL    HW235597   5.131   5.416   2.236  0.9829  0.7916 -1.7916
43638SOL     OW35598   2.879   1.083   4.286  0.3704 -0.1697 -0.7296
43638SOL    HW135599   2.960   1.133   4.295  0.8135 -0.9073 -0.5703
43638SOL    HW235600   2.827   1.132   4.222  0.1231  1.3507  0.5776
43639SOL     OW35601   5.195   2.640   9.283  0.0901 -0.8303 -0.2716
43639SOL    HW135602   5.251   2.629   9.206  1.4694  0.8383  0.4302
43639SOL    HW235603   5.158   2.728   9.273  1.0234 -0.2062  1.3785
43640SOL     OW35604  10.383   8.161   7.386  0.5111  0.2562 -0.2836
43640SOL    HW135605  10.288   8.160   7.372  0.4424  1.2433  0.0717
43640SOL    HW235606  10.405   8.253   7.399  1.3665 -0.0530  0.6353
43641SOL     OW35607   9.950   3.868   1.874  0.8879  0.3228  0.2920
43641SOL    HW135608   9.924   3.777   1.859 -1.0260  0.7208  0.8427
43641SOL    HW235609   9.943   3.879   1.969  0.2964  1.2459  0.1552
43642SOL     OW35610   8.233   6.286   2.198  0.0507 -0.0289  0.0574
43642SOL    HW135611   8.250   6.191   2.196 -1.3581 -0.3209  0.6789
43642SOL    HW235612   8.273   6.315   2.280 -0.3180 -0.2704  0.3287
43643SOL     OW35613   0.020   2.845  10.187 -0.2972 -0.4774 -0.4747
43643SOL    HW135614  -0.055   2.890  10.147 -0.1875 -1.2004 -1.5187
43643SOL    HW235615   0.087   2.914  10.195 -0.4281 -0.2437 -1.2611
43644SOL     OW35616   2.620   2.748   5.596  0.0783  0.7205 -0.5626
43644SOL    HW135617   2.635   2.726   5.688 -0.7346  0.1560 -0.5456
43644SOL    HW235618   2.524   2.746   5.587  0.1662 -1.8291 -1.9933
43645SOL     OW35619   4.540   5.802   1.521 -0.0306 -0.1695 -0.6765
43645SOL    HW135620   4.470   5.811   1.457  0.1032 -0.5194 -0.8778
43645SOL    HW235621   4.587   5.722   1.495  0.2297 -0.1330 -0.3421
43646SOL     OW35622   2.313   5.221  11.517 -0.1816  0.0698 -0.1308
43646SOL    HW135623   2.291   5.311  11.543 -1.3158 -0.0451 -0.6333
43646SOL    HW235624   2.299   5.169  11.596 -0.2275  0.2293 -0.0326
43647SOL     OW35625   9.891   4.634   6.037  0.6690 -0.5728  0.1497
43647SOL    HW135626   9.831   4.594   6.101 -0.0722  1.9798  1.1653
43647SOL    HW235627   9.836   4.693   5.987  2.0776  0.8277  0.1922
43648SOL     OW35628  10.310   6.612   0.024 -0.0016  0.2892 -0.1622
43648SOL    HW135629  10.295   6.707   0.020 -1.8330  0.0487 -0.0169
43648SOL    HW235630  10.252   6.582   0.095 -1.8729 -1.3230 -2.2194
43649SOL     OW35631   3.764   4.542  10.664 -0.4448 -0.5283  0.0322
43649SOL    HW135632   3.767   4.466  10.722 -0.3125 -0.0115  0.7152
43649SOL    HW235633   3.709   4.605  10.710 -2.8571 -1.2047 -1.7648
43650SOL     OW35634   0.943   1.445  10.777 -0.0965 -0.1464 -0.0776
43650SOL    HW135635   0.928   1.409  10.689  1.6229 -0.0312 -0.4465
43650SOL    HW235636   0.986   1.374  10.825 -0.0455  0.1663  0.3436
43651SOL     OW35637   1.727   4.361   6.488  0.0786  0.1646  0.4561
43651SOL    HW135638   1.760   4.317   6.410 -0.1841 -0.9844  0.9681
43651SOL    HW235639   1.657   4.304   6.520  1.1037 -0.1579  2.3001
43652SOL     OW35640   2.563   2.333   9.839  0.3854  0.0899 -0.0456
43652SOL    HW135641   2.599   2.275   9.906 -0.5257 -2.1970 -1.4318
43652SOL    HW235642   2.617   2.316   9.761  0.3640  1.4480 -0.3727
43653SOL     OW35643   0.306   5.489  11.651 -0.2112 -0.2081  0.1217
43653SOL    HW135644   0.326   5.567  11.599 -0.6393  0.1480  0.4746
43653SOL    HW235645   0.253   5.434  11.593 -1.0525  0.3823  0.3044
43654SOL     OW35646   3.655  10.511  11.042  0.0816 -0.1171  0.0149
43654SOL    HW135647   3.694  10.435  11.086  0.9982 -0.4151 -1.2355
43654SOL    HW235648   3.686  10.586  11.092 -0.9580 -0.5479  1.3612
43655SOL     OW35649   8.206   4.946   0.175 -0.0823 -0.9062  0.3395
43655SOL    HW135650   8.226   4.997   0.253  1.9375  0.2643 -0.8636
43655SOL    HW235651   8.178   5.010   0.111  2.9478 -1.0817 -1.3519
43656SOL     OW35652   3.509   0.171  10.523 -0.4953  0.0275 -0.5009
43656SOL    HW135653   3.583   0.140  10.471 -0.1972  0.3038 -0.2442
43656SOL    HW235654   3.479   0.249  10.477 -1.4927 -0.8381 -1.3651
43657SOL     OW35655   9.385   7.982   5.334 -0.8555 -0.5186  0.4060
43657SOL    HW135656   9.424   7.920   5.272 -0.1536  1.5258 -1.3259
43657SOL    HW235657   9.294   7.954   5.342 -0.7784 -1.2755 -1.0242
43658SOL     OW35658   6.953  10.134   2.310 -0.0237 -0.3668 -0.0769
43658SOL    HW135659   6.959  10.191   2.387  0.7789  1.0676 -1.1382
43658SOL    HW235660   7.027  10.160   2.256 -1.5873  0.0209 -2.1847
43659SOL     OW35661   1.136   8.304  11.877 -0.1519  0.2394 -0.3032
43659SOL    HW135662   1.159   8.211  11.869 -0.6158  0.1762 -0.8968
43659SOL    HW235663   1.108   8.330  11.790  2.9270  1.7770 -0.9823
43660SOL     OW35664   8.089   4.893   2.301  0.2578  0.2051 -0.4592
43660SOL    HW135665   8.133   4.914   2.383  0.4260  0.1857 -0.5445
43660SOL    HW235666   7.997   4.878   2.326  0.9436 -3.5928  0.3593
43661SOL     OW35667   9.308  11.170   4.033  1.0239 -0.1973  0.5559
43661SOL    HW135668   9.220  11.179   4.069  0.8086  0.0352 -0.0182
43661SOL    HW235669   9.366  11.172   4.109  0.6192  0.9192  0.8501
43662SOL     OW35670   2.411  10.438   3.454 -0.4870  0.3085 -0.0614
43662SOL    HW135671   2.467  10.410   3.381 -0.2310  0.4187  0.0940
43662SOL    HW235672   2.372  10.519   3.423 -0.8999  0.0118 -0.3424
43663SOL     OW35673   9.675   2.055  10.402 -0.0031  0.1459  0.9892
43663SOL    HW135674   9.599   2.016  10.360  0.1957 -0.3535  1.0894
43663SOL    HW235675   9.743   2.053  10.335 -0.3590  1.5390  0.5532
43664SOL     OW35676   4.679   7.760   4.302 -0.1072 -0.3614  0.2355
43664SOL    HW135677   4.703   7.675   4.338 -0.6217 -0.8599 -0.5652
43664SOL    HW235678   4.708   7.756   4.211 -1.0120 -0.0680 -0.0799
43665SOL     OW35679  10.640   0.468  10.001 -0.2470  0.4969 -0.0953
43665SOL    HW135680  10.666   0.378  10.021  0.9759  0.8942  0.1414
43665SOL    HW235681  10.579   0.459   9.927 -0.0760 -0.5113 -0.1317
43666SOL     OW35682  10.585   9.984   4.040  0.1510 -0.2779  0.4897
43666SOL    HW135683  10.523   9.973   3.968  0.1248  2.0556  0.0740
43666SOL    HW235684  10.671   9.977   3.999  0.1717 -1.3711  0.6910
43667SOL     OW35685   7.564  10.482   5.972 -0.5493  0.9814  0.1463
43667SOL    HW135686   7.518  10.401   5.951 -2.3439  1.9248  0.2628
43667SOL    HW235687   7.657  10.462   5.958 -1.0880 -0.6120 -1.3467
43668SOL     OW35688   2.182   9.253   5.642  0.1597  0.3274 -0.1725
43668SOL    HW135689   2.253   9.232   5.582 -0.7316  0.2264 -1.2104
43668SOL    HW235690   2.159   9.169   5.682 -0.6065  0.0294 -1.2140
43669SOL     OW35691   2.878   2.100   6.111  0.3531 -0.3058  0.0145
43669SOL    HW135692   2.934   2.047   6.169  0.6749 -1.9089 -1.6478
43669SOL    HW235693   2.937   2.129   6.041 -0.7357 -1.8187 -1.6462
43670SOL     OW35694   3.805   7.565   5.329  0.4493 -0.3067  0.7904
43670SOL    HW135695   3.775   7.521   5.250  2.0833 -1.5920  0.8228
43670SOL    HW235696   3.743   7.539   5.396 -2.1229  2.3478 -0.3550
43671SOL     OW35697  11.954  10.650   6.959 -0.0332  0.0408 -0.3288
43671SOL    HW135698  12.043  10.624   6.936  0.8265  1.3008  1.4035
43671SOL    HW235699  11.956  10.745   6.959 -0.3794  0.1734  3.0885
43672SOL     OW35700   6.361   4.579   0.297 -0.1660  0.1980 -0.0847
43672SOL    HW135701   6.412   4.617   0.226  1.7014 -1.4104  0.3029
43672SOL    HW235702   6.277   4.556   0.257  0.6826 -0.2903 -1.6616
43673SOL     OW35703   5.229  11.415   8.440 -0.3987 -0.5476 -0.3768
43673SOL    HW135704   5.252  11.503   8.469 -1.3297 -0.7240  1.0189
43673SOL    HW235705   5.302  11.387   8.385  0.6753  0.4756  0.4942
43674SOL     OW35706   9.722   9.866   1.258  0.5108 -0.0613  0.2089
43674SOL    HW135707   9.756   9.878   1.170  0.7901 -0.4952  0.2548
43674SOL    HW235708   9.744   9.948   1.303  1.5482 -0.3507  0.2510
43675SOL     OW35709   5.031   8.816   3.219  0.1249  0.1899 -0.4293
43675SOL    HW135710   5.124   8.826   3.199  0.0886  1.4159 -0.0718
43675SOL    HW235711   4.986   8.868   3.153 -0.4733 -2.1127 -1.9417
43676SOL     OW35712   1.923   9.727   0.409  0.1916 -0.7949  0.4836
43676SOL    HW135713   1.982   9.714   0.336  0.2678  2.2495 -0.1339
43676SOL    HW235714   1.835   9.718   0.371  0.2386 -0.4383  0.2881
43677SOL     OW35715   3.330   0.800   4.431  0.6251  0.1153  0.1640
43677SOL    HW135716   3.254   0.746   4.453 -0.8000  1.9093 -0.0915
43677SOL    HW235717   3.355   0.840   4.514  0.5031  0.4833  0.0233
43678SOL     OW35718   9.090   3.469   9.506  0.6509 -0.4787  0.0844
43678SOL    HW135719   9.118   3.378   9.493  2.1889 -0.0569  0.2587
43678SOL    HW235720   9.021   3.463   9.573 -2.9332 -1.9925 -3.3576
43679SOL     OW35721   5.840   8.513   1.250  0.5316 -0.1772  0.2171
43679SOL    HW135722   5.868   8.602   1.272 -1.8449  0.7468 -0.2029
43679SOL    HW235723   5.878   8.497   1.163 -1.1146  1.5226 -0.8993
43680SOL     OW35724   7.248   2.503   1.346  0.5317 -1.0240  0.1195
43680SOL    HW135725   7.205   2.531   1.265  0.7369 -1.1776 -0.0420
43680SOL    HW235726   7.307   2.433   1.319  2.2067  0.3619  0.0672
43681SOL     OW35727   7.241   2.804  11.387 -0.5309 -0.4136 -0.1710
43681SOL    HW135728   7.182   2.864  11.341 -0.5889  1.0711  1.7296
43681SOL    HW235729   7.200   2.791  11.473  1.9936  0.9147  1.3259
43682SOL     OW35730  11.727   7.311  11.695  0.0769  0.1716  0.0551
43682SOL    HW135731  11.744   7.231  11.644  1.4208  0.7068 -0.3837
43682SOL    HW235732  11.732   7.381  11.630 -1.0262  0.6454  0.4539
43683SOL     OW35733   7.712  10.749  11.382  0.8643 -0.5607 -0.2683
43683SOL    HW135734   7.659  10.725  11.457 -0.0840  0.3442 -0.6178
43683SOL    HW235735   7.732  10.666  11.339 -0.0003 -0.9516  0.0587
43684SOL     OW35736   3.778   3.303   0.587  0.0982 -0.5630  0.1524
43684SOL    HW135737   3.751   3.284   0.676  0.7195  1.0587  0.7202
43684SOL    HW235738   3.829   3.227   0.560 -0.7070 -1.3900  0.8907
43685SOL     OW35739   8.274   2.476  10.408  0.0841  0.2117  0.3208
43685SOL    HW135740   8.293   2.408  10.343  1.1720  0.2271  0.6072
43685SOL    HW235741   8.197   2.521  10.374  0.6477  0.2378 -0.9815
43686SOL     OW35742   8.995   8.463   1.853 -0.1489  0.5609  0.2716
43686SOL    HW135743   9.089   8.445   1.855  0.3106  1.7279 -3.5007
43686SOL    HW235744   8.988   8.557   1.836 -1.8289  0.0594 -2.3516
43687SOL     OW35745   4.487   3.858   6.103 -0.2781 -0.7572  0.0767
43687SOL    HW135746   4.401   3.817   6.093 -0.7390 -0.8770  3.4664
43687SOL    HW235747   4.543   3.788   6.136  0.5582 -0.1249  0.0358
43688SOL     OW35748  10.701   3.462   0.908 -0.1372  1.0053  0.0670
43688SOL    HW135749  10.715   3.540   0.960  0.3946  1.9615 -1.4360
43688SOL    HW235750  10.623   3.481   0.856 -0.1294  0.4590 -0.1561
43689SOL     OW35751   9.898   1.778  10.076 -0.3114  0.2529 -0.4563
43689SOL    HW135752   9.950   1.804  10.153 -0.7643 -0.7778  0.2194
43689SOL    HW235753   9.821   1.735  10.113 -1.0730  0.7151 -1.4816
43690SOL     OW35754   2.980   6.909   4.733  0.1279  0.3865 -0.3000
43690SOL    HW135755   3.006   7.001   4.737 -0.9364  0.7179 -0.6180
43690SOL    HW235756   2.887   6.912   4.709  0.2587 -0.7908 -1.0166
43691SOL     OW35757   9.187   9.494   2.724 -0.4313 -0.4158  0.8545
43691SOL    HW135758   9.212   9.530   2.639 -1.4169 -0.2994  0.6131
43691SOL    HW235759   9.193   9.399   2.714  0.2233 -0.3894  0.9049
43692SOL     OW35760  11.761   6.675   1.427  0.5124 -0.9398 -0.1799
43692SOL    HW135761  11.711   6.668   1.508  0.5691  0.8593  0.0431
43692SOL    HW235762  11.698   6.706   1.362  0.7265 -1.2694 -0.5495
43693SOL     OW35763   6.244  11.884   8.551 -0.2994 -0.1831 -0.2766
43693SOL    HW135764   6.230  11.797   8.590  1.9546 -0.1639  0.7082
43693SOL    HW235765   6.294  11.932   8.616  0.7182  0.9913 -1.8412
43694SOL     OW35766   4.835   4.340   3.561  0.3746 -0.7731 -0.2155
43694SOL    HW135767   4.925   4.347   3.593  0.3582 -1.8482  0.1037
43694SOL    HW235768   4.782   4.331   3.640 -0.0081 -0.2602 -0.4082
43695SOL     OW35769  10.529   3.419   2.704 -0.2659 -0.4594 -0.7113
43695SOL    HW135770  10.619   3.452   2.712 -0.5945  0.4688 -0.7142
43695SOL    HW235771  10.507   3.388   2.792  0.4594 -1.8021 -0.9805
43696SOL     OW35772   1.445   1.428   8.204  0.5243 -0.6123 -0.2105
43696SOL    HW135773   1.362   1.462   8.237  0.5714 -0.0412 -0.6608
43696SOL    HW235774   1.468   1.358   8.264 -0.1659 -0.6152  0.0567
43697SOL     OW35775   0.965   4.639   2.847  0.2401  0.2401 -0.1016
43697SOL    HW135776   0.936   4.562   2.895  1.0453  0.2276  0.3758
43697SOL    HW235777   0.997   4.700   2.915  1.2684  0.2719 -0.5915
43698SOL     OW35778  10.723   6.530   0.604 -0.2337  0.6041  0.6050
43698SOL    HW135779  10.733   6.434   0.602 -1.6771  0.4445  0.0692
43698SOL    HW235780  10.697   6.549   0.694 -0.2338  0.4676  0.6348
43699SOL     OW35781   5.773   9.682   2.569 -0.0070  0.4244  0.4238
43699SOL    HW135782   5.722   9.719   2.496  1.9106  0.1280 -1.1342
43699SOL    HW235783   5.857   9.727   2.565  0.4234 -0.1670  1.9992
43700SOL     OW35784   5.389   4.946   2.232  0.0001 -0.3613 -0.2348
43700SOL    HW135785   5.384   4.950   2.328 -0.0094  1.9597 -0.2788
43700SOL    HW235786   5.298   4.934   2.204 -0.3613  1.5720  0.0085
43701SOL     OW35787   8.894   0.084   3.336 -0.3317 -0.9498 -0.1431
43701SOL    HW135788   8.844   0.008   3.306 -1.2767  0.2153 -1.6260
43701SOL    HW235789   8.968   0.089   3.275 -0.6685 -0.2657 -0.5002
43702SOL     OW35790   1.651  11.991   1.244  0.3379 -0.7254  0.3599
43702SOL    HW135791   1.606  11.919   1.200 -1.1564  0.2201  0.2494
43702SOL    HW235792   1.643  12.065   1.183 -0.0178  0.0730  1.3492
43703SOL     OW35793   7.115   1.833  10.746  0.0843  0.0421 -0.5189
43703SOL    HW135794   7.095   1.806  10.657  4.0934  0.0398 -1.5869
43703SOL    HW235795   7.129   1.927  10.741 -0.5885  0.2082  0.3476
43704SOL     OW35796  11.617   0.072   4.012  0.2598 -0.3362 -0.1376
43704SOL    HW135797  11.660  -0.009   4.040  1.2049  0.8377  2.0434
43704SOL    HW235798  11.689   0.130   3.986 -0.3565  0.0525 -1.0403
43705SOL     OW35799   1.303  10.853   5.622  0.0660 -0.2323  0.4730
43705SOL    HW135800   1.301  10.819   5.533  2.2506 -0.7192  0.5489
43705SOL    HW235801   1.281  10.778   5.677 -0.3999 -0.1537  0.3991
43706SOL     OW35802   1.038   1.722   4.537  0.4508  0.6116 -0.2144
43706SOL    HW135803   1.037   1.785   4.608 -0.6630  0.4100 -0.0370
43706SOL    HW235804   0.991   1.765   4.465  0.0095  0.1273 -0.2174
43707SOL     OW35805   7.939   9.345   1.484 -0.4589 -0.4655 -0.4562
43707SOL    HW135806   8.006   9.412   1.468 -1.2595  0.6077  0.4979
43707SOL    HW235807   7.879   9.354   1.411 -0.7538  0.1122 -0.1473
43708SOL     OW35808   8.308   6.040   7.617 -0.0609 -0.5821  0.8869
43708SOL    HW135809   8.337   5.963   7.667 -0.4384  0.2385  2.4536
43708SOL    HW235810   8.382   6.101   7.623 -0.2294 -0.3578  0.6902
43709SOL     OW35811  10.714  11.881   8.059 -0.2317  0.3363 -0.3418
43709SOL    HW135812  10.772  11.820   8.104 -2.0794 -1.1071  0.1852
43709SOL    HW235813  10.731  11.868   7.966  0.9628  0.6562 -0.1812
43710SOL     OW35814   5.508   1.231   8.544 -0.7437  0.6181 -0.0590
43710SOL    HW135815   5.458   1.280   8.609  0.8840  0.6866  1.2111
43710SOL    HW235816   5.568   1.177   8.596 -1.3300 -1.5057 -1.4363
43711SOL     OW35817   5.077   1.708  10.491  0.6020  0.1221 -0.2504
43711SOL    HW135818   4.993   1.751  10.505  0.4363 -0.1325 -0.4379
43711SOL    HW235819   5.070   1.671  10.403  0.8740  0.0154 -0.2276
43712SOL     OW35820   1.208   2.683   5.777 -0.3919  0.1077  0.1355
43712SOL    HW135821   1.119   2.657   5.800 -1.2379  2.2783 -0.3807
43712SOL    HW235822   1.197   2.760   5.720  1.7479 -1.0191 -2.0225
43713SOL     OW35823   1.332   2.630   4.766 -0.4703  0.0086 -0.4545
43713SOL    HW135824   1.305   2.657   4.678  1.0628  0.7860 -0.7286
43713SOL    HW235825   1.401   2.566   4.752 -0.0529  0.3078  0.1630
43714SOL     OW35826   5.063   2.922   5.126 -0.2133  0.0692  0.0938
43714SOL    HW135827   4.988   2.970   5.090  0.7124  3.1359  1.9341
43714SOL    HW235828   5.028   2.835   5.146 -2.7829  0.8182 -0.7494
43715SOL     OW35829  10.552  10.945   8.709  0.6460  0.0919  0.5627
43715SOL    HW135830  10.550  10.975   8.799  0.0030 -2.0752  1.3341
43715SOL    HW235831  10.505  10.861   8.710 -1.9754  1.3120 -2.2788
43716SOL     OW35832   6.090   3.080   5.301 -0.0831  0.4564 -0.0747
43716SOL    HW135833   6.104   3.088   5.395  2.5780  0.3473 -0.4113
43716SOL    HW235834   6.047   2.994   5.291  0.4583  0.0407  0.9676
43717SOL     OW35835   3.600   8.830   1.387 -0.1860  0.1411  0.1757
43717SOL    HW135836   3.570   8.826   1.296 -0.9031 -1.5894  0.4492
43717SOL    HW235837   3.520   8.817   1.438 -0.0800  2.7563  1.1369
43718SOL     OW35838   2.538   0.880   1.096  0.3091 -0.0121  0.5404
43718SOL    HW135839   2.510   0.971   1.088 -0.7121 -0.3861 -0.3653
43718SOL    HW235840   2.486   0.833   1.031  1.5590 -1.0815  0.2722
43719SOL     OW35841  10.846   5.615  11.138  0.3664  0.3881  0.3266
43719SOL    HW135842  10.753   5.631  11.153  0.0517 -0.6430 -0.4250
43719SOL    HW235843  10.849   5.529  11.096  1.6712  0.3325  0.4991
43720SOL     OW35844   4.232   6.324   8.377 -0.2023 -0.0931 -0.0418
43720SOL    HW135845   4.144   6.322   8.415  0.3557 -0.8218  1.2782
43720SOL    HW235846   4.290   6.320   8.453  1.0466  3.2569 -0.6740
43721SOL     OW35847  11.507   3.177   7.077  0.1399 -0.7886  0.0438
43721SOL    HW135848  11.424   3.155   7.035  0.3943 -1.0391 -0.3314
43721SOL    HW235849  11.499   3.269   7.100 -0.2712 -0.8308  0.0815
43722SOL     OW35850   2.694   8.933   7.261  0.0138  0.3528  0.6295
43722SOL    HW135851   2.617   8.970   7.217  0.4465  1.8225  1.0504
43722SOL    HW235852   2.688   8.839   7.245 -1.0756  0.6028 -0.5975
43723SOL     OW35853  11.557  10.903   7.254  0.1418 -0.5919 -0.8566
43723SOL    HW135854  11.536  10.983   7.303  1.4874 -1.4052  1.1630
43723SOL    HW235855  11.472  10.871   7.224 -0.6088  0.6147 -0.1337
43724SOL     OW35856   5.588  11.336  11.149  0.2704  0.0368 -0.3740
43724SOL    HW135857   5.580  11.424  11.184  2.6219  0.2115 -0.1183
43724SOL    HW235858   5.657  11.342  11.083 -0.9532 -1.2166 -1.8611
43725SOL     OW35859   7.515   2.849   2.605 -0.1303 -0.3726 -0.4124
43725SOL    HW135860   7.483   2.767   2.642  0.8227 -0.7516 -0.4021
43725SOL    HW235861   7.457   2.916   2.642 -1.3590 -1.0946 -0.9736
43726SOL     OW35862   7.331   0.887   8.116 -0.2731 -0.5317  0.2873
43726SOL    HW135863   7.258   0.948   8.109 -0.6087 -0.9674 -0.0780
43726SOL    HW235864   7.396   0.933   8.170 -0.5175  0.1432  0.0151
43727SOL     OW35865   4.130   0.475   2.254 -0.0523 -0.6039 -0.1943
43727SOL    HW135866   4.211   0.479   2.203  0.1875 -2.7558 -0.0742
43727SOL    HW235867   4.061   0.470   2.188 -0.1938  1.6094 -0.3055
43728SOL     OW35868  10.384   3.874   9.319 -0.1495 -0.7641 -0.0020
43728SOL    HW135869  10.367   3.783   9.341 -0.3728 -0.7851 -0.2593
43728SOL    HW235870  10.464   3.896   9.368 -0.5618 -0.8464  0.7119
43729SOL     OW35871   5.239   8.524   4.873 -0.2223 -0.0349 -0.3799
43729SOL    HW135872   5.158   8.546   4.918 -1.0004 -2.6352 -0.3624
43729SOL    HW235873   5.294   8.485   4.940  1.1643  1.7940 -0.3692
43730SOL     OW35874  10.445  10.520   9.492 -0.4700 -0.4750 -0.0599
43730SOL    HW135875  10.363  10.475   9.514 -0.0961 -1.7733 -1.1920
43730SOL    HW235876  10.466  10.571   9.570 -0.6712 -2.6262  1.4966
43731SOL     OW35877  11.688   2.442   6.034  0.2128 -0.1385 -0.2122
43731SOL    HW135878  11.664   2.364   5.983  2.8468  0.4811 -2.7161
43731SOL    HW235879  11.771   2.419   6.075  0.2345  0.8321  0.3209
43732SOL     OW35880  11.225   2.054   2.638  0.2331  0.1416 -0.3104
43732SOL    HW135881  11.285   2.067   2.711  0.4727 -0.2255 -0.4412
43732SOL    HW235882  11.160   1.992   2.670  0.0587  0.3516 -0.2508
43733SOL     OW35883  11.327   3.606   8.992  0.4231 -0.8486  0.0149
43733SOL    HW135884  11.400   3.666   8.974 -0.4319  0.3460  0.3615
43733SOL    HW235885  11.272   3.612   8.915 -0.4854  0.0859  0.7075
43734SOL     OW35886   2.492   3.449   5.985  0.5479 -0.0226 -0.2606
43734SOL    HW135887   2.473   3.526   5.932 -1.0751  0.2918  0.7251
43734SOL    HW235888   2.530   3.484   6.066  0.8043 -0.3461 -0.2366
43735SOL     OW35889   1.978  10.068   7.358 -0.2191  0.1675 -0.3985
43735SOL    HW135890   1.921  10.145   7.355 -0.4657  0.0199 -4.1118
43735SOL    HW235891   2.048  10.092   7.419 -1.9024  2.0793  0.8811
43736SOL     OW35892   2.536   7.753   9.052  0.1057  0.2590 -0.2746
43736SOL    HW135893   2.459   7.696   9.051  0.8385 -0.7597  0.3246
43736SOL    HW235894   2.500   7.842   9.056 -1.0386 -0.2338  1.2523
43737SOL     OW35895  10.445   3.330   1.385  0.0151 -0.0550 -0.6916
43737SOL    HW135896  10.438   3.281   1.303 -2.1669 -2.0241  0.5270
43737SOL    HW235897  10.359   3.372   1.394  0.0447 -0.2782  0.7903
43738SOL     OW35898   6.992   4.962   3.953 -0.3786  0.1615 -0.0021
43738SOL    HW135899   6.955   4.960   3.865  0.2872  0.2757 -0.2972
43738SOL    HW235900   6.924   5.001   4.008 -0.6940  0.3511 -0.5237
43739SOL     OW35901   5.182  10.688   3.889  0.7032 -0.0921  0.3101
43739SOL    HW135902   5.264  10.691   3.840  1.9904 -0.0084  2.3443
43739SOL    HW235903   5.196  10.620   3.955 -2.1055 -2.4146 -1.2625
43740SOL     OW35904   5.251  10.219   2.002 -0.5328  0.2265  0.2712
43740SOL    HW135905   5.339  10.204   1.969 -0.4571 -0.4823  0.7686
43740SOL    HW235906   5.210  10.276   1.937  0.3805  0.7882  0.1779
43741SOL     OW35907   9.920   0.123   0.553  0.3488  0.0508 -0.3006
43741SOL    HW135908   9.994   0.064   0.539  1.5903  1.5179 -0.3281
43741SOL    HW235909   9.952   0.208   0.520 -0.0670  1.5111  2.7458
43742SOL     OW35910  10.287   8.937   2.612 -0.1414 -0.1559 -0.8743
43742SOL    HW135911  10.364   8.966   2.563 -0.2158 -0.8658 -1.4183
43742SOL    HW235912  10.222   8.918   2.545 -0.1546 -1.4063 -0.5367
43743SOL     OW35913   8.476   8.792  10.913  0.2537  0.2453  0.1278
43743SOL    HW135914   8.449   8.769  10.824  1.2157  0.7239 -0.3059
43743SOL    HW235915   8.444   8.721  10.968 -0.7033  0.1447 -0.5426
43744SOL     OW35916   2.785   5.806   4.487  0.1362  0.0927  0.1758
43744SOL    HW135917   2.860   5.848   4.528 -0.7305 -0.0291  1.9906
43744SOL    HW235918   2.765   5.731   4.545  0.3728 -1.6123 -1.8343
43745SOL     OW35919   3.263  10.894   7.828 -0.4434  0.3195 -0.5115
43745SOL    HW135920   3.233  10.856   7.746 -0.1319 -0.8868 -0.0893
43745SOL    HW235921   3.191  10.949   7.857 -0.6432  0.5832 -1.4756
43746SOL     OW35922   5.897   5.490  10.729  0.0475  0.0627 -0.2713
43746SOL    HW135923   5.969   5.473  10.669 -0.6867 -0.1964 -1.0964
43746SOL    HW235924   5.824   5.514  10.673 -0.3492  0.9509  0.5899
43747SOL     OW35925   0.189   3.239   3.378 -0.4423  0.0909 -0.4675
43747SOL    HW135926   0.100   3.206   3.363  0.3393 -1.4498 -2.1381
43747SOL    HW235927   0.239   3.161   3.403  1.0114  0.3549 -2.3382
43748SOL     OW35928   3.511  11.436   1.011 -0.0962 -0.3004 -0.2413
43748SOL    HW135929   3.547  11.360   1.056  0.2173  0.1019  0.2114
43748SOL    HW235930   3.589  11.487   0.985 -0.2415 -0.8068 -1.7667
43749SOL     OW35931  11.010   3.976  11.879  0.1856 -0.0723 -0.1924
43749SOL    HW135932  10.943   4.004  11.940  0.0301 -0.6553 -0.0853
43749SOL    HW235933  11.093   3.990  11.926  0.1200  0.3101 -0.1889
43750SOL     OW35934   7.356   9.643   6.576 -0.0650  0.6789 -0.1437
43750SOL    HW135935   7.295   9.607   6.511  0.4624  2.0572 -1.4641
43750SOL    HW235936   7.372   9.733   6.547 -1.2210  2.0172  2.9427
43751SOL     OW35937   9.018   0.289   0.542  0.0343  0.3485 -0.1270
43751SOL    HW135938   8.925   0.306   0.558  0.3839  0.7422  1.7346
43751SOL    HW235939   9.064   0.348   0.602  1.4575 -0.6480 -0.1861
43752SOL     OW35940   8.362   8.380   7.292  0.2308 -0.1774 -0.2531
43752SOL    HW135941   8.363   8.337   7.378 -1.3087  0.7445  0.2655
43752SOL    HW235942   8.364   8.473   7.312 -1.6773  0.0922 -1.1304
43753SOL     OW35943   4.743   7.830   1.839 -0.2791  0.2190 -0.1736
43753SOL    HW135944   4.801   7.754   1.834 -1.3138 -0.5554 -0.9312
43753SOL    HW235945   4.699   7.821   1.924  1.9802  1.8357  1.3059
43754SOL     OW35946   4.725   4.828   7.525  0.2685 -0.0671  0.2310
43754SOL    HW135947   4.680   4.855   7.605  1.7682  1.0877  0.7189
43754SOL    HW235948   4.761   4.742   7.546 -0.0933 -0.1677  0.4678
43755SOL     OW35949   5.061  11.066   3.284 -0.2304  0.4454  0.5167
43755SOL    HW135950   5.078  11.029   3.370  0.7939 -1.1493 -0.3351
43755SOL    HW235951   5.147  11.072   3.242 -0.9186 -1.1008 -1.2657
43756SOL     OW35952   6.291   2.444   5.706  0.6844  0.2629  0.3061
43756SOL    HW135953   6.265   2.400   5.786  1.1714 -0.6625 -0.0346
43756SOL    HW235954   6.377   2.482   5.726 -0.6591  3.0601  1.3331
43757SOL     OW35955   7.456   2.462   2.508 -0.2229 -0.3601 -0.4105
43757SOL    HW135956   7.433   2.429   2.421  0.1761  1.6397 -1.3318
43757SOL    HW235957   7.518   2.398   2.543 -0.2163 -1.0790 -1.6891
43758SOL     OW35958  11.703   9.250   1.111  0.4790 -0.2771 -0.0671
43758SOL    HW135959  11.793   9.227   1.088  0.6080 -0.4356  0.5677
43758SOL    HW235960  11.652   9.226   1.034  1.0705  0.5105 -0.7294
43759SOL     OW35961  10.532  10.449   4.543 -0.1930  0.1289 -0.1053
43759SOL    HW135962  10.624  10.475   4.541  0.3110 -1.4362  0.8344
43759SOL    HW235963  10.522  10.390   4.469 -0.8157  1.3142 -1.0102
43760SOL     OW35964   5.329  10.371   5.211  0.2996  0.3555  0.3836
43760SOL    HW135965   5.239  10.405   5.211  0.4419  0.8856 -1.7310
43760SOL    HW235966   5.377  10.431   5.267 -1.0394 -1.2743  3.5189
43761SOL     OW35967   3.338   6.506   8.446  0.1278  0.4242 -0.2162
43761SOL    HW135968   3.271   6.438   8.440  0.4655  0.1946 -1.9033
43761SOL    HW235969   3.411   6.464   8.493  0.1602 -0.2328 -0.8440
43762SOL     OW35970   6.569   1.028   2.732 -0.0075 -0.2623 -0.0148
43762SOL    HW135971   6.493   1.081   2.758 -0.5517 -0.5631 -0.9320
43762SOL    HW235972   6.644   1.086   2.743 -0.7123  1.1903 -2.2689
43763SOL     OW35973   4.061   1.992   0.556  0.0919 -0.1900 -0.1937
43763SOL    HW135974   4.016   2.053   0.614 -1.4950 -0.3231 -1.2377
43763SOL    HW235975   3.993   1.931   0.527  1.2065 -1.1916 -0.8363
43764SOL     OW35976  10.870   8.350   9.655  0.4222  0.3226 -0.7734
43764SOL    HW135977  10.818   8.346   9.735 -1.7439  0.0297 -2.1201
43764SOL    HW235978  10.960   8.361   9.685 -0.2607 -0.3379  1.6991
43765SOL     OW35979   4.556   8.373   1.804 -0.7777 -0.5244  0.3932
43765SOL    HW135980   4.619   8.363   1.733 -0.4672 -0.2742  0.6323
43765SOL    HW235981   4.476   8.403   1.762 -0.2662  0.7354  0.2857
43766SOL     OW35982   6.944  11.884   5.665  0.1199  0.0861 -0.2018
43766SOL    HW135983   7.038  11.891   5.648 -0.0130 -1.0173 -1.6205
43766SOL    HW235984   6.904  11.940   5.598 -0.2530  0.0487 -0.0093
43767SOL     OW35985  11.350   4.848   7.049  0.0715  0.3966  0.3727
43767SOL    HW135986  11.391   4.839   6.963 -0.6865 -0.7320  0.0938
43767SOL    HW235987  11.298   4.928   7.044  0.0277  0.3297 -0.2281
43768SOL     OW35988   3.432   5.163   7.489 -0.0504  0.1460 -0.1688
43768SOL    HW135989   3.485   5.124   7.558  0.5201 -0.7765 -1.0883
43768SOL    HW235990   3.357   5.105   7.479 -0.3897  0.5475  0.0085
43769SOL     OW35991   7.399   8.199   9.947 -0.0510  0.0663  0.0349
43769SOL    HW135992   7.485   8.188   9.987 -0.7079  2.9000  2.5624
43769SOL    HW235993   7.338   8.201  10.020 -2.0946 -0.1152 -1.5686
43770SOL     OW35994   5.287  11.141   3.706  0.0059  0.6941 -0.3344
43770SOL    HW135995   5.330  11.069   3.660 -0.0402  0.7679 -0.4914
43770SOL    HW235996   5.343  11.159   3.781 -0.0438  0.4129 -0.2278
43771SOL     OW35997   1.060  10.159   5.111  0.4536 -0.1433 -0.1484
43771SOL    HW135998   1.113  10.239   5.107 -0.9392  0.7707 -1.4188
43771SOL    HW235999   1.022  10.152   5.023 -3.0462  0.3409  1.1822
43772SOL     OW36000   7.250   1.706   6.757  0.0522 -0.5206 -0.2560
43772SOL    HW136001   7.281   1.728   6.669 -0.1275 -0.4299 -0.2981
43772SOL    HW236002   7.327   1.713   6.813 -0.3879  2.2044  0.1087
43773SOL     OW36003   2.451   2.467  10.834 -0.6674 -0.0276 -0.1071
43773SOL    HW136004   2.368   2.419  10.831 -0.6615 -0.0171 -1.8795
43773SOL    HW236005   2.448   2.516  10.916 -1.7697 -1.1234  0.5429
43774SOL     OW36006   4.013   6.831   5.524 -0.1857  0.4863  0.4746
43774SOL    HW136007   4.102   6.797   5.516 -0.8291 -1.4025  0.7679
43774SOL    HW236008   4.018   6.920   5.491  1.5291 -0.0448 -0.8445
43775SOL     OW36009   7.399   9.579   2.048  0.4018  0.2688 -0.1842
43775SOL    HW136010   7.377   9.548   2.136  1.8170  3.7551  1.5928
43775SOL    HW236011   7.491   9.556   2.037  0.4167  0.4581 -0.4576
43776SOL     OW36012   1.029   8.809   6.506  0.2757 -0.1633  0.2143
43776SOL    HW136013   1.027   8.844   6.595 -0.4457 -0.2325  0.2347
43776SOL    HW236014   0.992   8.879   6.452  1.7611  0.3342 -0.2179
43777SOL     OW36015   8.741  10.769   6.704 -0.5652 -0.8806  0.2198
43777SOL    HW136016   8.716  10.836   6.641 -1.3381 -0.8076  0.5928
43777SOL    HW236017   8.702  10.799   6.787 -1.9274 -2.3637  0.1658
43778SOL     OW36018   3.924   9.379   3.068  0.1411 -0.0694 -0.1881
43778SOL    HW136019   3.914   9.401   3.161 -1.4665  0.4396 -0.4539
43778SOL    HW236020   4.016   9.354   3.060  0.2931 -0.2562  1.5664
43779SOL     OW36021   6.076   0.229  11.608 -0.9255  0.4220  0.2752
43779SOL    HW136022   6.146   0.267  11.556 -0.8593  1.5385  1.1399
43779SOL    HW236023   6.097   0.253  11.698  0.0358 -3.0792  1.1563
43780SOL     OW36024   3.191   4.879   7.916  0.2173 -0.1207  0.3120
43780SOL    HW136025   3.165   4.959   7.962 -1.3780  0.3600 -1.3014
43780SOL    HW236026   3.247   4.832   7.979  1.2645  2.2658  1.2737
43781SOL     OW36027   4.363   4.520   8.636 -0.3212  0.5151  0.2179
43781SOL    HW136028   4.392   4.439   8.677 -0.2999 -0.1084 -0.9664
43781SOL    HW236029   4.414   4.589   8.678  1.1489 -0.3063 -0.1449
43782SOL     OW36030   9.569   2.508   4.777 -0.2176 -0.0139 -0.6861
43782SOL    HW136031   9.637   2.481   4.839 -0.3957 -0.5270 -0.7114
43782SOL    HW236032   9.488   2.479   4.817 -0.2253 -1.9441 -1.9563
43783SOL     OW36033   9.673   4.607   3.731 -0.0615 -0.0044  0.2077
43783SOL    HW136034   9.748   4.578   3.783  0.5750  0.1038 -0.6264
43783SOL    HW236035   9.688   4.570   3.644  0.0349  1.6211 -0.5077
43784SOL     OW36036   2.476  11.625   9.950 -0.1261  0.2179  0.1358
43784SOL    HW136037   2.529  11.545   9.955 -1.8077 -0.9076  1.6269
43784SOL    HW236038   2.519  11.686  10.010 -0.7338 -0.8892  1.7961
43785SOL     OW36039   2.044   8.884   7.891  0.3052 -0.2006  0.0638
43785SOL    HW136040   2.036   8.810   7.831  2.5779 -1.5689  1.3238
43785SOL    HW236041   2.113   8.939   7.853 -0.8443  0.9525 -0.4619
43786SOL     OW36042   1.824  11.435   2.129  0.1723 -0.0251 -0.0414
43786SOL    HW136043   1.776  11.371   2.077  0.6415 -1.5972  1.3851
43786SOL    HW236044   1.757  11.476   2.184  0.1887 -1.0531  0.7762
43787SOL     OW36045   9.720   7.988   0.897  0.1399 -0.9147 -0.2491
43787SOL    HW136046   9.690   8.079   0.892  1.9664 -0.2263  0.4226
43787SOL    HW236047   9.705   7.963   0.988  0.9008 -0.7994 -0.0851
43788SOL     OW36048  10.874   1.279  11.632  0.1599  0.2504  0.6166
43788SOL    HW136049  10.927   1.338  11.578 -0.9871  0.1050 -0.7372
43788SOL    HW236050  10.869   1.323  11.717  2.4554  0.2303  0.8280
43789SOL     OW36051   3.043   3.822   1.150 -0.4991  0.0301  0.1171
43789SOL    HW136052   3.137   3.836   1.161 -0.6251  0.6104  0.4679
43789SOL    HW236053   3.037   3.764   1.074  0.0912  0.9540 -0.6563
43790SOL     OW36054  10.208   7.545  11.085  0.0414 -0.2727 -0.2552
43790SOL    HW136055  10.286   7.564  11.135 -0.4047  0.0235  0.3404
43790SOL    HW236056  10.137   7.545  11.149 -0.2510 -2.0421 -0.5233
43791SOL     OW36057   4.405   8.771   9.192 -0.3684 -0.3396  0.0776
43791SOL    HW136058   4.407   8.811   9.279 -0.9034  1.7980 -0.8432
43791SOL    HW236059   4.489   8.793   9.153 -0.7976  0.2007 -0.5609
43792SOL     OW36060   4.533   7.241   4.738  0.0318 -0.3789  0.0512
43792SOL    HW136061   4.609   7.200   4.779  0.9702  3.0440  2.1515
43792SOL    HW236062   4.571   7.302   4.674 -1.1286 -0.6220 -0.9035
43793SOL     OW36063   9.895  11.573   0.395 -0.5134  0.0263  0.0936
43793SOL    HW136064   9.962  11.598   0.332  2.9360 -3.0015  2.1404
43793SOL    HW236065   9.892  11.645   0.458  0.8085  0.2314 -0.0624
43794SOL     OW36066   0.134   6.902   4.238 -0.2650  0.6860 -0.0991
43794SOL    HW136067   0.046   6.868   4.227 -0.2973  0.4280  0.8684
43794SOL    HW236068   0.184   6.830   4.277  0.6464  0.4849 -1.5513
43795SOL     OW36069   1.202   3.868   9.857  0.6591  0.1737 -0.1244
43795SOL    HW136070   1.131   3.917   9.897  0.1266 -1.0467  0.4959
43795SOL    HW236071   1.276   3.929   9.854  0.2179  0.8093  1.1962
43796SOL     OW36072   6.465   9.935   9.149 -0.8498  0.1995 -0.4590
43796SOL    HW136073   6.425   9.859   9.106  1.3260 -0.5988 -1.2234
43796SOL    HW236074   6.477   9.999   9.079 -0.8308  0.4384 -0.2385
43797SOL     OW36075  11.623   6.640   1.671 -0.4593 -0.0687  0.3743
43797SOL    HW136076  11.677   6.597   1.737  0.5688 -0.0069 -0.4069
43797SOL    HW236077  11.537   6.599   1.680  0.0682 -1.1275  0.7484
43798SOL     OW36078   5.461   9.619   2.715 -0.3866  0.0056 -0.3061
43798SOL    HW136079   5.534   9.622   2.776 -1.5191  0.3479  1.0879
43798SOL    HW236080   5.404   9.691   2.741 -0.8108  0.3098 -1.9309
43799SOL     OW36081   3.709   0.632   7.142 -0.0688 -0.4669  0.2781
43799SOL    HW136082   3.641   0.699   7.145 -0.5047 -0.8834 -0.1752
43799SOL    HW236083   3.707   0.591   7.228 -1.7190 -1.7599 -0.3072
43800SOL     OW36084   3.600   0.967   4.377  0.0499 -0.4324 -0.7040
43800SOL    HW136085   3.519   0.959   4.327 -0.7482  0.8691  0.3131
43800SOL    HW236086   3.612   0.881   4.417 -3.4918  0.4638  2.9556
43801SOL     OW36087   7.134   8.393  10.023 -0.1436 -0.0965 -0.0781
43801SOL    HW136088   7.167   8.325  10.081 -1.7144 -0.8712 -0.0366
43801SOL    HW236089   7.197   8.395   9.950  0.6116 -0.6946  0.5419
43802SOL     OW36090   0.989   7.450   5.881 -0.1969  0.0728 -1.1516
43802SOL    HW136091   0.945   7.522   5.836  1.3915  1.8872  0.0368
43802SOL    HW236092   0.919   7.391   5.908 -1.6150  1.5071 -1.5852
43803SOL     OW36093   3.732   3.054   6.060  0.0585  0.3256  0.5020
43803SOL    HW136094   3.643   3.023   6.076 -0.0848  1.3852  1.9223
43803SOL    HW236095   3.782   3.026   6.136  0.1222  2.7233  1.4138
43804SOL     OW36096   0.130   9.985  10.899 -0.5428  0.6865  0.0931
43804SOL    HW136097   0.145  10.070  10.857  0.8364  0.7437  0.6498
43804SOL    HW236098   0.038   9.967  10.883 -0.7858  2.1359 -0.3250
43805SOL     OW36099   4.613  11.913  11.402 -0.1872 -0.0204 -0.6100
43805SOL    HW136100   4.695  11.865  11.392  0.1925  0.7901 -1.5358
43805SOL    HW236101   4.545  11.846  11.396  0.3406 -0.4935 -1.4699
43806SOL     OW36102   4.592  11.317   2.450 -0.2783  0.6533 -0.5650
43806SOL    HW136103   4.625  11.229   2.470  0.9799  1.2892  0.3049
43806SOL    HW236104   4.519  11.330   2.510  0.2053  0.5879  0.0498
43807SOL     OW36105   3.585   9.452   2.631 -0.3938  0.0682 -0.5846
43807SOL    HW136106   3.542   9.537   2.620 -1.7644 -0.1395  2.1686
43807SOL    HW236107   3.646   9.465   2.704 -0.5950 -1.2833 -0.1397
43808SOL     OW36108   1.885  11.815   8.000  0.2390  0.3588 -0.8246
43808SOL    HW136109   1.911  11.811   8.092 -1.2823 -1.4128 -0.4128
43808SOL    HW236110   1.879  11.908   7.981  2.4484  0.7948  0.2880
43809SOL     OW36111   9.609   5.502   9.661 -0.1503  0.1305  0.4797
43809SOL    HW136112   9.681   5.558   9.691 -2.4862  1.8011  3.4893
43809SOL    HW236113   9.567   5.472   9.742 -2.3294 -1.5001 -1.1539
43810SOL     OW36114  10.825   6.935   3.252 -0.8755  0.0125 -0.0763
43810SOL    HW136115  10.862   6.997   3.190 -0.4731 -0.9678 -0.8492
43810SOL    HW236116  10.731   6.941   3.239 -0.7746 -0.7658 -1.4164
43811SOL     OW36117  10.062  11.236   0.690  0.3744  0.2750 -0.2050
43811SOL    HW136118  10.019  11.166   0.739  1.2780 -0.2266 -0.1012
43811SOL    HW236119  10.140  11.195   0.653  1.8098  1.5925  1.1853
43812SOL     OW36120   5.589   5.436   2.932 -0.1450 -0.3393  0.0177
43812SOL    HW136121   5.533   5.424   2.855 -0.7718  0.5389  0.3193
43812SOL    HW236122   5.650   5.362   2.930 -0.8495 -0.9086 -0.7243
43813SOL     OW36123   4.528   0.579   8.848  0.6892 -0.4764 -0.0928
43813SOL    HW136124   4.568   0.594   8.933 -0.7305 -0.9343  0.6805
43813SOL    HW236125   4.474   0.501   8.859  0.1054 -0.2711 -1.2739
43814SOL     OW36126   0.909  10.624   2.315 -0.5494  0.0654  0.1540
43814SOL    HW136127   0.848  10.692   2.343 -1.0044 -0.6866  1.0423
43814SOL    HW236128   0.892  10.551   2.374 -0.5107 -1.0544 -1.1612
43815SOL     OW36129   9.780   2.304   0.657 -0.2600  0.1209  0.6407
43815SOL    HW136130   9.691   2.279   0.682  0.2425 -0.9927  1.4426
43815SOL    HW236131   9.834   2.230   0.685  0.6177 -0.4707 -2.2607
43816SOL     OW36132   0.955   7.636   3.142 -0.0826  0.3392 -0.1182
43816SOL    HW136133   1.047   7.614   3.125 -0.3197 -0.2461 -0.7070
43816SOL    HW236134   0.950   7.650   3.236  0.8382  1.4654 -0.2193
43817SOL     OW36135   2.546   2.774  10.773  0.1389 -0.3551 -0.1701
43817SOL    HW136136   2.457   2.797  10.749  0.5325 -1.1598 -2.7333
43817SOL    HW236137   2.594   2.773  10.690  3.3858  3.2257  1.3323
43818SOL     OW36138   9.518   8.882  10.151 -0.0634  0.1004 -0.5123
43818SOL    HW136139   9.508   8.787  10.159 -0.2274  0.2252  1.0553
43818SOL    HW236140   9.612   8.896  10.150  0.0031 -0.1996 -2.8758
43819SOL     OW36141   2.660   6.531   8.622  0.2041  0.1422 -0.4923
43819SOL    HW136142   2.754   6.525   8.610  0.2041  1.2455 -1.2043
43819SOL    HW236143   2.647   6.527   8.717  0.9630 -0.0200 -0.3920
43820SOL     OW36144   8.439   8.045   8.125  0.3527  0.2569  0.5568
43820SOL    HW136145   8.532   8.042   8.149  0.4488 -0.0326  0.1411
43820SOL    HW236146   8.433   7.998   8.043  0.0518  1.4390 -0.1295
43821SOL     OW36147   3.381   3.261   3.022 -0.1211  0.4406  0.6883
43821SOL    HW136148   3.326   3.244   3.098 -0.9013  0.0255  0.0517
43821SOL    HW236149   3.339   3.335   2.978 -0.4357 -0.1449 -0.0289
43822SOL     OW36150   8.210   2.461   8.092  0.1565  0.0592  0.3308
43822SOL    HW136151   8.286   2.425   8.138  0.6351  0.4191 -0.1583
43822SOL    HW236152   8.168   2.518   8.156  1.3757  1.3232  0.0393
43823SOL     OW36153   0.189   3.451   9.394 -0.0012 -0.4116 -0.2017
43823SOL    HW136154   0.269   3.433   9.344 -1.2450 -1.1718 -1.9866
43823SOL    HW236155   0.210   3.530   9.444  1.1236  0.7689 -2.3992
43824SOL     OW36156  10.565  10.279   6.055  0.4246  0.4912  0.3689
43824SOL    HW136157  10.652  10.319   6.055  0.7617 -0.1746 -0.9881
43824SOL    HW236158  10.504  10.353   6.049  0.9681  0.8827 -0.4255
43825SOL     OW36159   3.143   2.177  11.462 -0.5962 -0.1582 -0.8539
43825SOL    HW136160   3.100   2.250  11.417  1.8954  2.5705  0.8972
43825SOL    HW236161   3.231   2.174  11.426  0.1354 -0.6588  0.8782
43826SOL     OW36162   5.968   0.505   9.776 -0.2767 -0.0977 -0.3488
43826SOL    HW136163   5.981   0.580   9.834 -0.7353 -0.4858  0.2677
43826SOL    HW236164   5.876   0.482   9.785 -0.3851 -0.0921 -1.3340
43827SOL     OW36165   1.030   9.159   0.854 -0.0763 -0.4711 -0.1359
43827SOL    HW136166   1.102   9.097   0.864 -0.3741 -0.5496  2.0962
43827SOL    HW236167   1.067   9.243   0.880 -0.6975 -0.4817  0.8620
43828SOL     OW36168  11.809   1.138  11.824 -0.5596  0.2414 -0.0279
43828SOL    HW136169  11.888   1.115  11.872 -0.8205  1.9489  1.2784
43828SOL    HW236170  11.793   1.061  11.768  0.1112 -1.5863  2.1231
43829SOL     OW36171   0.851   7.160   4.518  0.3192 -0.3627 -0.2359
43829SOL    HW136172   0.907   7.096   4.475  0.0178 -1.6541  1.2302
43829SOL    HW236173   0.791   7.189   4.449  1.5909 -0.2979 -1.3694
43830SOL     OW36174   6.909   2.982   5.506 -0.4066  0.2813 -0.9674
43830SOL    HW136175   6.923   2.926   5.430  0.8761  2.0951 -2.1588
43830SOL    HW236176   6.996   2.994   5.543 -0.4436  2.4012 -1.4697
43831SOL     OW36177   9.242   8.394   6.236 -0.0958  0.1471 -0.2575
43831SOL    HW136178   9.305   8.464   6.248  1.4302 -0.8807 -1.8690
43831SOL    HW236179   9.157   8.434   6.258  0.8899  2.0574  0.2516
43832SOL     OW36180   0.408   4.567   7.242 -0.0211  0.2751  0.6285
43832SOL    HW136181   0.329   4.608   7.276 -0.2940  1.4851 -1.3105
43832SOL    HW236182   0.378   4.510   7.172  0.7262 -0.1899  0.6702
43833SOL     OW36183  11.413   7.021   4.000  0.1044 -0.6664 -0.6283
43833SOL    HW136184  11.495   7.055   4.035  0.4288 -1.0068 -1.0425
43833SOL    HW236185  11.382   6.960   4.067  0.8950 -1.5709 -1.0609
43834SOL     OW36186   0.065  10.191   0.953  0.5899 -0.1241  1.0323
43834SOL    HW136187  -0.018  10.165   0.913  2.1158  0.1916 -2.7271
43834SOL    HW236188   0.040  10.227   1.038 -2.9266 -1.3060  0.6720
43835SOL     OW36189   4.582  11.426   2.810 -0.7079  0.2820  0.1215
43835SOL    HW136190   4.538  11.380   2.739  1.2115  0.2129 -1.1173
43835SOL    HW236191   4.575  11.519   2.786  0.3229  0.2325 -0.4371
43836SOL     OW36192  10.013   1.921   6.403 -0.2278  0.0377 -0.0104
43836SOL    HW136193   9.954   1.932   6.478 -2.7365 -0.5534 -1.7914
43836SOL    HW236194   9.983   1.985   6.339  1.9684  0.6345 -0.5294
43837SOL     OW36195   9.939   1.447  11.214  0.0860 -0.0309  0.0101
43837SOL    HW136196   9.975   1.521  11.262  1.8127  0.2252 -1.5752
43837SOL    HW236197   9.903   1.484  11.134 -1.2521 -0.6470  0.2866
43838SOL     OW36198   2.783   4.039   6.795 -0.0245  0.7824 -0.1917
43838SOL    HW136199   2.711   4.011   6.740  1.4443 -1.9697 -0.9249
43838SOL    HW236200   2.858   4.045   6.736  1.2507 -0.7403  1.1574
43839SOL     OW36201   6.530  10.046   7.806  0.2863  0.0270 -0.6927
43839SOL    HW136202   6.443  10.060   7.844  0.4012 -0.2147 -0.3405
43839SOL    HW236203   6.590  10.056   7.880  0.4900 -0.7433 -0.7491
43840SOL     OW36204   6.570  11.896   5.354 -0.0849 -0.0258  0.3011
43840SOL    HW136205   6.604  11.982   5.332  1.3708 -0.4767  0.6708
43840SOL    HW236206   6.616  11.835   5.295  0.2785 -0.7175  1.2600
43841SOL     OW36207  10.308   7.921   6.161 -0.3163  0.2990  0.6313
43841SOL    HW136208  10.225   7.933   6.208 -0.8448  2.1029 -0.6331
43841SOL    HW236209  10.346   8.009   6.159  0.0933  0.1144 -1.5198
43842SOL     OW36210   9.559   0.217   0.835  0.2723  0.3180  0.7090
43842SOL    HW136211   9.487   0.278   0.819 -0.2597 -0.3580  0.4796
43842SOL    HW236212   9.600   0.248   0.916  0.6388  1.5659  0.0550
43843SOL     OW36213  10.589  11.266  11.899 -0.1696 -0.4184 -0.0775
43843SOL    HW136214  10.502  11.276  11.858 -0.6074 -1.6168  0.5273
43843SOL    HW236215  10.575  11.206  11.971  0.9558  0.3002  0.7717
43844SOL     OW36216   8.674   2.167   2.661 -0.0308 -0.7017  0.1090
43844SOL    HW136217   8.579   2.160   2.674 -0.3970  1.7429 -0.7744
43844SOL    HW236218   8.703   2.076   2.653 -2.0288 -1.6122  1.9853
43845SOL     OW36219   3.138   1.283   6.986 -0.1882 -0.3662  0.0569
43845SOL    HW136220   3.150   1.190   7.005  0.7304 -0.3070 -0.1700
43845SOL    HW236221   3.110   1.322   7.069 -1.3180 -0.9539 -0.0276
43846SOL     OW36222   6.365   7.297  10.509 -0.1779  0.0618  0.4849
43846SOL    HW136223   6.359   7.301  10.604 -0.3756 -1.2753  0.5536
43846SOL    HW236224   6.458   7.298  10.490 -0.0640 -1.6555  0.8349
43847SOL     OW36225   0.778   8.187   2.415 -0.2421  0.2462 -0.0295
43847SOL    HW136226   0.795   8.281   2.418 -0.5078  0.2995 -0.1278
43847SOL    HW236227   0.688   8.179   2.447  0.6763 -0.2357  2.6661
43848SOL     OW36228   4.030  10.887   1.583  0.2046  0.1501 -0.4210
43848SOL    HW136229   4.016  10.797   1.554  0.6785 -0.1461  0.2285
43848SOL    HW236230   4.081  10.878   1.664  1.3329  1.0493 -1.0037
43849SOL     OW36231   6.605   0.072   2.434 -0.3534  0.1726  0.1121
43849SOL    HW136232   6.684   0.125   2.446  0.6074 -1.3014  0.5317
43849SOL    HW236233   6.550   0.124   2.376  0.5976  1.5663  0.4163
43850SOL     OW36234   8.513   3.810   4.843 -0.0639 -0.3410  0.3007
43850SOL    HW136235   8.469   3.862   4.909  0.9681  2.7295 -1.2108
43850SOL    HW236236   8.588   3.772   4.888 -0.3749  0.1814  1.2854
43851SOL     OW36237   9.225   0.773  10.245 -0.2240 -0.1230  0.0017
43851SOL    HW136238   9.306   0.783  10.295 -0.8563 -0.0852  1.0440
43851SOL    HW236239   9.200   0.862  10.222  0.1042 -0.1450 -0.4442
43852SOL     OW36240   7.036   1.769   8.757 -0.1378 -0.2920 -0.1408
43852SOL    HW136241   7.028   1.861   8.729  1.4617  0.0954  0.5648
43852SOL    HW236242   6.992   1.719   8.688 -2.2988  1.0785  0.1651
43853SOL     OW36243   9.460   1.106  11.861  0.1774 -0.1503  0.2500
43853SOL    HW136244   9.428   1.057  11.785 -1.7922  1.0028  0.2564
43853SOL    HW236245   9.506   1.181  11.824 -0.9865  0.5394  0.1473
43854SOL     OW36246   8.406   1.404   8.021  0.1760 -0.0053 -0.6008
43854SOL    HW136247   8.312   1.399   8.034  0.3210 -0.9557  0.2190
43854SOL    HW236248   8.418   1.472   7.955 -1.0755  0.1390 -0.6969
43855SOL     OW36249   6.867   3.375   7.862  0.3973 -0.2172  0.1680
43855SOL    HW136250   6.859   3.388   7.956  1.2347 -0.4171  0.2699
43855SOL    HW236251   6.865   3.279   7.851 -2.1278 -0.1818 -0.2503
43856SOL     OW36252   0.975   0.169   1.839 -0.4274  0.2114 -0.2319
43856SOL    HW136253   1.008   0.256   1.815 -1.1025  0.6584  0.4204
43856SOL    HW236254   1.034   0.140   1.909  0.1496 -0.1201 -0.8358
43857SOL     OW36255   9.243   6.670   3.647 -0.3112  0.0569  0.0545
43857SOL    HW136256   9.235   6.715   3.563  0.1971  1.3780  0.6958
43857SOL    HW236257   9.278   6.736   3.707  1.6023 -1.4939  0.7610
43858SOL     OW36258   4.561   2.015   3.801  0.3766  0.1840  0.1113
43858SOL    HW136259   4.620   2.055   3.738  0.9040 -0.4804  0.1633
43858SOL    HW236260   4.595   1.926   3.812 -0.6301 -0.2077  0.1563
43859SOL     OW36261   7.923  11.691  11.351  0.2148  0.4598  0.2816
43859SOL    HW136262   7.939  11.646  11.268 -1.7157  1.1076 -0.5045
43859SOL    HW236263   7.942  11.783  11.333 -3.4514  1.2142 -0.5996
43860SOL     OW36264   1.391   2.080   7.083 -0.3432  0.6001 -0.0240
43860SOL    HW136265   1.461   2.016   7.095 -0.7267  0.2669  0.4680
43860SOL    HW236266   1.420   2.157   7.132 -0.2419  0.5262  0.0318
43861SOL     OW36267   3.956   4.021   3.402  0.0965  0.0059 -0.1756
43861SOL    HW136268   3.993   3.959   3.340  0.5473 -0.0544  0.1453
43861SOL    HW236269   3.980   3.986   3.488 -0.4650  0.1181  0.0319
43862SOL     OW36270   0.117   2.591   6.701  0.3358  0.1021 -0.5280
43862SOL    HW136271   0.026   2.612   6.719  0.0098 -1.2426 -0.4703
43862SOL    HW236272   0.114   2.526   6.631  1.1474 -0.9604  0.3629
43863SOL     OW36273  11.478   8.419   3.520 -0.3139 -0.5443  0.0204
43863SOL    HW136274  11.477   8.486   3.588  0.2351 -1.3321  0.8478
43863SOL    HW236275  11.563   8.376   3.531 -1.4807 -2.7965  0.9792
43864SOL     OW36276   5.802   9.305   0.727  0.2376 -0.1457 -0.3044
43864SOL    HW136277   5.845   9.389   0.739  1.0084 -0.1772 -2.4110
43864SOL    HW236278   5.713   9.327   0.700 -0.2950 -0.0626  1.4088
43865SOL     OW36279   0.063  10.486   8.145  0.7939  0.4268 -0.5682
43865SOL    HW136280   0.098  10.512   8.230  0.0974 -0.7875  0.1128
43865SOL    HW236281  -0.031  10.504   8.152  0.8630  1.2093 -1.4413
43866SOL     OW36282  10.017   0.936   3.938  0.1587  0.1941  0.0988
43866SOL    HW136283  10.068   0.891   3.871 -0.6201  3.1653 -2.7151
43866SOL    HW236284  10.082   0.962   4.003  1.4444 -0.2234 -0.9748
43867SOL     OW36285   2.930   1.419   5.162 -0.0705 -0.6232 -0.2770
43867SOL    HW136286   2.970   1.488   5.215 -1.8849  1.8633 -1.9007
43867SOL    HW236287   2.971   1.428   5.076 -1.5532 -0.3423 -0.9949
43868SOL     OW36288  10.118   5.611   1.770  0.2609 -0.4125 -0.2388
43868SOL    HW136289  10.052   5.657   1.820  1.3001  0.0953  0.7023
43868SOL    HW236290  10.095   5.518   1.779 -0.5576 -0.2214 -0.3022
43869SOL     OW36291   5.669   0.770   5.810 -0.7662 -0.5550  0.1215
43869SOL    HW136292   5.589   0.818   5.830 -1.2175 -1.6104  0.9430
43869SOL    HW236293   5.705   0.746   5.895  0.6403  0.2049 -0.2271
43870SOL     OW36294   8.257   9.474   8.937  0.2662  0.1587  0.1831
43870SOL    HW136295   8.217   9.396   8.975  1.8784 -0.9809 -0.3915
43870SOL    HW236296   8.277   9.530   9.012 -0.0569 -0.3671  0.6662
43871SOL     OW36297   4.036   5.363  10.255  0.6029 -0.3777 -0.4579
43871SOL    HW136298   4.019   5.273  10.280 -0.0279 -0.6600 -1.7961
43871SOL    HW236299   4.059   5.358  10.162 -0.3257  0.9082 -0.7906
43872SOL     OW36300   6.823   1.445   5.713  0.2188 -0.1428  0.2528
43872SOL    HW136301   6.756   1.396   5.760 -1.0196 -1.0377 -2.2907
43872SOL    HW236302   6.826   1.530   5.757 -2.0264 -0.3500  0.9130
43873SOL     OW36303   6.461   9.372  11.993 -0.4512 -0.3482  0.1345
43873SOL    HW136304   6.426   9.319  12.064  0.5425 -1.9665 -0.5084
43873SOL    HW236305   6.394   9.369  11.925 -0.7771 -0.0265  0.4387
43874SOL     OW36306   1.192   3.074  11.020 -0.4171  0.1347 -0.7666
43874SOL    HW136307   1.172   3.075  11.113  1.7367 -2.4886 -0.1293
43874SOL    HW236308   1.117   3.115  10.978 -1.7441  0.8111  2.0607
43875SOL     OW36309   3.000   3.539   3.735  0.4423  0.2295  0.6218
43875SOL    HW136310   3.049   3.621   3.747 -0.8333  1.0335  0.5035
43875SOL    HW236311   2.917   3.566   3.697  0.5014 -1.2752 -0.6695
43876SOL     OW36312   4.825   3.248   5.294  0.2455 -0.1513 -0.5679
43876SOL    HW136313   4.804   3.311   5.224 -1.1513  1.6688  1.3574
43876SOL    HW236314   4.786   3.166   5.264 -0.5153  0.6227 -1.8207
43877SOL     OW36315   1.939  10.247   8.976 -0.1271 -0.2476  0.6802
43877SOL    HW136316   1.932  10.237   9.071 -0.4667  3.0435  1.0979
43877SOL    HW236317   2.020  10.295   8.962 -0.8088  0.6079 -0.5336
43878SOL     OW36318   5.138   4.827  11.293  0.0310  0.0097 -0.1534
43878SOL    HW136319   5.184   4.911  11.295 -1.4235  0.8358  0.5621
43878SOL    HW236320   5.185   4.775  11.227  2.2770  0.5741  0.9072
43879SOL     OW36321   9.052   6.812   7.994  0.0304 -0.3522  0.1401
43879SOL    HW136322   8.994   6.887   8.008  0.0637 -0.3035  0.0132
43879SOL    HW236323   9.074   6.783   8.083  0.5010  0.1653  0.1975
43880SOL     OW36324   5.722   5.061   4.653 -0.0083 -0.0934 -0.3401
43880SOL    HW136325   5.645   5.090   4.604 -0.4775 -0.0124  0.4383
43880SOL    HW236326   5.700   5.074   4.745  0.9827  0.0445 -0.1036
43881SOL     OW36327   0.670   5.672   9.250 -0.6748 -0.2775  0.2936
43881SOL    HW136328   0.624   5.641   9.173 -0.4736  0.1921 -0.0251
43881SOL    HW236329   0.749   5.714   9.215  0.7253 -2.2743  0.8941
43882SOL     OW36330   7.057  11.097   1.211  0.3149 -0.1946  0.0762
43882SOL    HW136331   7.101  11.029   1.160  0.2577  0.9760 -1.6067
43882SOL    HW236332   7.119  11.169   1.215 -0.2860  0.3204  0.3557
43883SOL     OW36333   9.106   6.496   4.371  0.2161 -0.2707  0.0464
43883SOL    HW136334   9.097   6.523   4.280  0.2327  0.2045  0.1820
43883SOL    HW236335   9.193   6.527   4.397 -0.6146  1.5381  0.8547
43884SOL     OW36336   8.738   0.844  10.886 -0.2541  0.2022  1.0251
43884SOL    HW136337   8.660   0.822  10.836  1.5449 -0.0981 -1.8559
43884SOL    HW236338   8.770   0.925  10.846  2.0246 -0.7963  0.6578
43885SOL     OW36339   9.740   0.230  10.058 -0.3013  0.2830  0.0931
43885SOL    HW136340   9.769   0.145  10.024 -0.8113  0.2249 -0.1956
43885SOL    HW236341   9.796   0.294  10.014  0.8309  0.0465  1.1008
43886SOL     OW36342   3.265  11.736   7.111  0.0195  0.2241 -0.2847
43886SOL    HW136343   3.184  11.719   7.158 -0.5355 -0.4078 -1.4310
43886SOL    HW236344   3.246  11.713   7.020  0.8648  1.9888 -0.9690
43887SOL     OW36345   1.399   2.893  10.387  0.4812 -0.1052 -0.8041
43887SOL    HW136346   1.363   2.937  10.310  1.1346 -0.5574 -1.3860
43887SOL    HW236347   1.350   2.812  10.394 -1.7877  1.3292  1.1803
43888SOL     OW36348   8.849   6.140   3.378 -0.2692  0.5444  0.4613
43888SOL    HW136349   8.932   6.096   3.361 -0.4106  0.0387  1.0611
43888SOL    HW236350   8.828   6.183   3.295 -0.3289 -0.8531 -0.2936
43889SOL     OW36351   2.709   2.432   9.470 -0.0440  0.1730  0.6439
43889SOL    HW136352   2.638   2.378   9.433 -0.0735  0.5046  0.1991
43889SOL    HW236353   2.785   2.411   9.416  0.1721 -0.1019  1.0545
43890SOL     OW36354   1.213  10.255   5.924  0.6699 -0.7280 -0.1012
43890SOL    HW136355   1.253  10.236   5.839  0.4837  1.1002 -0.6393
43890SOL    HW236356   1.179  10.344   5.915 -0.0188 -0.7766  1.6547
43891SOL     OW36357   5.949   7.243   5.619 -0.0572 -0.0581 -0.3684
43891SOL    HW136358   5.898   7.168   5.586 -1.5489  1.0044 -0.5796
43891SOL    HW236359   5.953   7.303   5.545  1.6123 -0.1372 -0.3680
43892SOL     OW36360  11.766   8.415   9.745  0.1754  0.3399 -0.1460
43892SOL    HW136361  11.721   8.493   9.714 -0.8423  0.2622  1.0257
43892SOL    HW236362  11.801   8.374   9.666 -0.5488  1.1984 -0.9396
43893SOL     OW36363   3.659   6.194   7.687 -0.3092  0.5784  0.3459
43893SOL    HW136364   3.626   6.106   7.708  1.7143 -0.3514 -0.1272
43893SOL    HW236365   3.638   6.206   7.594 -0.1570  0.3877  0.2863
43894SOL     OW36366   9.274  10.092   8.825  0.0051  0.0737 -0.2463
43894SOL    HW136367   9.320  10.111   8.907  0.5641  0.0895 -0.5592
43894SOL    HW236368   9.279   9.997   8.816  0.4843  0.1248 -0.5676
43895SOL     OW36369  10.652  10.457   3.594  0.1779  0.5373 -0.2423
43895SOL    HW136370  10.558  10.472   3.599 -0.3165 -1.0470 -2.6795
43895SOL    HW236371  10.661  10.390   3.526  2.9566 -0.6309  1.1353
43896SOL     OW36372   0.713   6.019   9.581  0.4023 -0.2255  0.0589
43896SOL    HW136373   0.693   6.007   9.488 -2.5237  1.4938  0.3114
43896SOL    HW236374   0.769   6.097   9.584  2.0955 -1.3963 -0.3291
43897SOL     OW36375   0.524  10.074   5.483  0.0230 -0.1981 -0.1407
43897SOL    HW136376   0.618  10.073   5.467 -0.0775  0.6676 -0.8736
43897SOL    HW236377   0.490  10.140   5.422 -0.9647 -0.0183  0.5803
43898SOL     OW36378   5.621   3.708   3.823 -0.5214 -0.2304  0.4083
43898SOL    HW136379   5.637   3.751   3.907  0.1036  1.2684 -0.4442
43898SOL    HW236380   5.527   3.718   3.808 -0.4154  0.6865  0.3159
43899SOL     OW36381   6.492   1.625   9.986  0.2532  0.0935 -0.1954
43899SOL    HW136382   6.521   1.549  10.035  1.7824  1.0278  0.4211
43899SOL    HW236383   6.438   1.590   9.916 -1.1983 -1.3653  1.5544
43900SOL     OW36384   3.469   7.918   9.958 -0.2246 -0.7862 -0.3999
43900SOL    HW136385   3.478   8.000   9.908 -1.3688 -0.2337  0.2640
43900SOL    HW236386   3.491   7.942  10.048 -0.3205 -1.2727 -0.2458
43901SOL     OW36387   4.728   0.637  10.697  0.1329 -0.0119  0.0865
43901SOL    HW136388   4.800   0.700  10.688 -1.1717  1.4794 -0.4890
43901SOL    HW236389   4.733   0.608  10.788  2.3361 -1.1086 -0.3317
43902SOL     OW36390   2.360   3.838  10.394  0.3183  0.2405 -0.7482
43902SOL    HW136391   2.415   3.915  10.405  0.0793  0.4873 -1.2872
43902SOL    HW236392   2.276   3.872  10.363 -0.5025 -0.0135  1.0331
43903SOL     OW36393   4.217   5.079   2.904 -0.5222  0.1543 -0.0466
43903SOL    HW136394   4.225   5.146   2.836  0.7210 -0.1509 -0.2267
43903SOL    HW236395   4.128   5.044   2.893 -0.5607  0.5549 -1.1018
43904SOL     OW36396   8.897  11.710  10.868  0.4034  0.5357  0.1326
43904SOL    HW136397   8.958  11.783  10.879 -1.0993  1.8885 -0.1067
43904SOL    HW236398   8.947  11.633  10.896  2.4528  1.4429 -0.7806
43905SOL     OW36399  11.476   7.405   7.195 -0.6996  0.3193  0.2265
43905SOL    HW136400  11.523   7.439   7.271 -0.4231  1.6964 -0.5367
43905SOL    HW236401  11.400   7.462   7.185 -1.0570 -0.2123 -0.1929
43906SOL     OW36402   0.556   2.313   8.754 -0.1891  0.2233  0.1577
43906SOL    HW136403   0.481   2.362   8.787  0.2584 -0.3222  2.0628
43906SOL    HW236404   0.615   2.304   8.828  0.7297 -1.3270 -0.6964
43907SOL     OW36405  10.886   5.134   9.495 -0.0073  0.4766 -0.7493
43907SOL    HW136406  10.979   5.156   9.497 -0.5212  2.8849 -0.1360
43907SOL    HW236407  10.881   5.045   9.530  1.7467  1.5794  2.6938
43908SOL     OW36408   2.149   1.053   8.228  0.2388  0.2075  0.3380
43908SOL    HW136409   2.092   1.127   8.249  1.2889  0.5811  2.0387
43908SOL    HW236410   2.092   0.990   8.185 -0.9185  1.5462 -0.1636
43909SOL     OW36411  11.866  11.839   8.308  0.3447 -0.1388  0.6145
43909SOL    HW136412  11.882  11.934   8.308  1.9264 -0.3713  0.4420
43909SOL    HW236413  11.939  11.803   8.359  0.7237 -1.3878 -0.7506
43910SOL     OW36414  11.387   8.800   5.870 -0.4435 -0.3016  0.1055
43910SOL    HW136415  11.454   8.740   5.901 -1.2980 -0.9504  0.7434
43910SOL    HW236416  11.423   8.887   5.886  0.0699 -0.6424  0.8266
43911SOL     OW36417   1.874   0.135   1.583  1.0117  0.8228  0.1486
43911SOL    HW136418   1.885   0.189   1.505  0.9622  1.2842  0.4490
43911SOL    HW236419   1.806   0.072   1.560  1.7017  0.2966 -0.5103
43912SOL     OW36420   8.620  10.934   8.111  0.6051 -0.1005 -0.8094
43912SOL    HW136421   8.561  11.009   8.113  0.2395 -0.3973  0.0225
43912SOL    HW236422   8.661  10.933   8.198  0.5401 -0.9137 -0.7819
43913SOL     OW36423   5.142   2.816   0.241 -0.2544 -0.1894 -0.2863
43913SOL    HW136424   5.056   2.780   0.261 -0.6595  0.5715 -0.6429
43913SOL    HW236425   5.186   2.822   0.326 -0.9687  0.4774  0.0426
43914SOL     OW36426  11.956   8.656   6.835 -0.2287  0.0341  0.5179
43914SOL    HW136427  11.968   8.727   6.773 -0.0291  0.0645  0.5897
43914SOL    HW236428  11.889   8.688   6.896 -0.8886 -0.2455 -0.0524
43915SOL     OW36429   7.244  11.380   9.086 -0.1728  0.1106 -0.2338
43915SOL    HW136430   7.307  11.312   9.108  2.3064  1.9838 -1.0997
43915SOL    HW236431   7.243  11.437   9.164 -1.8145 -0.5542  0.2729
43916SOL     OW36432   3.566   2.357   8.247 -0.5354  0.1306  0.4306
43916SOL    HW136433   3.525   2.279   8.209 -0.1901  0.3365 -0.3894
43916SOL    HW236434   3.658   2.334   8.256 -0.9669 -0.8070  3.5092
43917SOL     OW36435   8.927   0.092   6.634  0.4098  0.0068 -0.0166
43917SOL    HW136436   8.938   0.046   6.718 -0.6005 -0.9648 -0.3984
43917SOL    HW236437   8.964   0.179   6.650  1.0426 -0.4533  1.1696
43918SOL     OW36438   0.920   3.818   0.015 -0.3892 -0.3338 -0.5961
43918SOL    HW136439   0.935   3.909  -0.011 -2.2345  0.9086  2.3143
43918SOL    HW236440   0.984   3.802   0.084 -2.6235  0.1927  1.7185
43919SOL     OW36441  10.273  10.270   3.216 -0.1296 -0.2643  0.2874
43919SOL    HW136442  10.266  10.365   3.211  0.0887 -0.3036 -1.9026
43919SOL    HW236443  10.353  10.250   3.167 -1.5594 -1.7086 -1.5971
43920SOL     OW36444   9.033   4.217   0.606 -0.2249  0.1439  0.0063
43920SOL    HW136445   9.007   4.258   0.523 -0.0717  0.3230  0.0443
43920SOL    HW236446   9.044   4.291   0.666  0.7756  0.1171 -0.1202
43921SOL     OW36447   5.612  11.153   2.018  0.2919 -0.2157  0.0276
43921SOL    HW136448   5.637  11.103   2.096 -0.4485 -0.2302  0.2649
43921SOL    HW236449   5.690  11.205   1.998  0.9582 -1.1934 -0.0217
43922SOL     OW36450   4.505   5.212   6.630  0.4020  0.6980  0.0723
43922SOL    HW136451   4.430   5.167   6.669  0.2113  0.3364 -0.6859
43922SOL    HW236452   4.540   5.267   6.700 -0.9256  1.3216  0.2736
43923SOL     OW36453   8.043   7.603   2.232 -0.4398  0.1537  0.1849
43923SOL    HW136454   8.062   7.648   2.315  0.9916 -0.3571  0.1744
43923SOL    HW236455   8.035   7.673   2.168  0.0987  0.4868  0.4707
43924SOL     OW36456   0.775   8.040   9.250  0.6208 -0.1803  0.2603
43924SOL    HW136457   0.776   8.111   9.314  0.2627  0.7185 -0.6875
43924SOL    HW236458   0.732   7.967   9.294 -0.1200  0.6001  0.8586
43925SOL     OW36459   4.090   0.917   6.345  0.1598  0.0624  0.5707
43925SOL    HW136460   4.099   0.889   6.255  1.8596  0.9087  0.4454
43925SOL    HW236461   4.009   0.875   6.375  0.2514 -1.2748 -0.9224
43926SOL     OW36462   4.769   1.657   8.229  0.1063  0.1562 -0.0166
43926SOL    HW136463   4.705   1.593   8.260  1.8037 -0.7006  1.9615
43926SOL    HW236464   4.717   1.735   8.208 -1.5137  0.0089  2.8896
43927SOL     OW36465  11.757  10.104   3.535  0.2727 -0.2713 -0.0750
43927SOL    HW136466  11.757  10.185   3.483  0.2023  0.2136  0.6714
43927SOL    HW236467  11.783  10.036   3.473  1.6774  0.5286 -0.4109
43928SOL     OW36468   9.532   0.506   8.937  0.0040 -0.3543  0.0932
43928SOL    HW136469   9.531   0.595   8.972  0.4955 -0.1944 -0.2854
43928SOL    HW236470   9.608   0.464   8.977  0.7347 -0.0855 -0.9489
43929SOL     OW36471   4.733   0.415   2.459 -0.4458 -0.0724  0.1240
43929SOL    HW136472   4.645   0.419   2.421  0.1838  0.4360 -1.3624
43929SOL    HW236473   4.728   0.470   2.538 -1.3581  0.2628 -0.1569
43930SOL     OW36474   6.084   2.744   5.634 -0.0506  0.0850  1.0204
43930SOL    HW136475   6.106   2.836   5.620  0.4361 -0.1822 -0.0415
43930SOL    HW236476   6.158   2.709   5.683 -1.1845  0.7193  3.3591
43931SOL     OW36477   1.150   1.456   9.281 -0.1907 -0.0671  0.5135
43931SOL    HW136478   1.180   1.527   9.337  3.2081 -0.3826 -0.7194
43931SOL    HW236479   1.056   1.472   9.272  0.3711  4.3834  0.1462
43932SOL     OW36480   4.874   3.578  11.902  0.5468 -0.1176 -0.2108
43932SOL    HW136481   4.942   3.530  11.856  0.8632 -0.1778  0.3200
43932SOL    HW236482   4.915   3.608  11.983  0.0499  0.1529 -0.0511
43933SOL     OW36483   8.114   9.420  10.236  0.0900 -0.2933 -0.3920
43933SOL    HW136484   8.025   9.409  10.202 -0.7296  3.3573  0.1269
43933SOL    HW236485   8.130   9.341  10.288 -2.9087 -1.0303 -0.4117
43934SOL     OW36486   1.208  10.788   5.885  0.3344  0.2063 -0.2027
43934SOL    HW136487   1.293  10.827   5.863 -0.4176  1.8916 -0.3121
43934SOL    HW236488   1.215  10.763   5.977  1.5855 -1.5498 -0.7200
43935SOL     OW36489   5.097   9.252   9.834 -0.2995  0.0399  0.5577
43935SOL    HW136490   5.012   9.290   9.814  1.0643  3.2494  0.3228
43935SOL    HW236491   5.157   9.293   9.771  1.7009 -0.8958  1.7491
43936SOL     OW36492   0.786   8.779  11.113 -0.3336 -0.2229 -0.0410
43936SOL    HW136493   0.736   8.698  11.119 -0.8567  0.0935 -0.0613
43936SOL    HW236494   0.869   8.754  11.072 -1.1814 -0.4410 -1.6691
43937SOL     OW36495   8.919   9.539   7.755  0.9611 -0.2450  0.4207
43937SOL    HW136496   8.855   9.579   7.814  1.1221 -2.6019  2.3455
43937SOL    HW236497   8.999   9.591   7.769  0.5667  0.1913  1.1194
43938SOL     OW36498   1.876   9.170   7.025 -0.4861 -0.0134 -0.7650
43938SOL    HW136499   1.916   9.090   7.059  0.4699  1.2729  1.3756
43938SOL    HW236500   1.871   9.156   6.931  0.9154 -2.0384 -0.6176
43939SOL     OW36501   5.394  10.914   8.492 -0.3931 -0.1059 -0.5293
43939SOL    HW136502   5.453  10.982   8.459  0.5684 -1.0586 -0.8300
43939SOL    HW236503   5.370  10.943   8.580  0.0673  0.5779 -0.6210
43940SOL     OW36504   6.992   2.029   6.712  0.6655  0.5813 -0.0733
43940SOL    HW136505   6.925   2.075   6.662 -0.5338  0.0796  1.0085
43940SOL    HW236506   6.974   1.936   6.697  0.8589  0.4361  0.5426
43941SOL     OW36507   4.774   3.653   7.665 -0.4930  0.4392  0.0165
43941SOL    HW136508   4.785   3.704   7.585  0.9269 -1.3639 -1.0091
43941SOL    HW236509   4.856   3.664   7.713 -0.9656  0.7370  0.7887
43942SOL     OW36510   7.559  10.076  11.493 -0.1593  0.4558  0.7734
43942SOL    HW136511   7.533  10.136  11.564  1.4987  0.8369  1.1054
43942SOL    HW236512   7.582   9.995  11.538  0.6214  0.6045  0.6487
43943SOL     OW36513   1.747   8.746   5.012  0.3505  0.5059  0.1142
43943SOL    HW136514   1.786   8.832   5.023  2.0721 -0.1105 -0.8537
43943SOL    HW236515   1.689   8.756   4.936 -0.7538  1.1848  1.0035
43944SOL     OW36516   1.628   1.451   1.270 -0.2145 -0.0073 -0.2035
43944SOL    HW136517   1.661   1.378   1.323  0.4546  0.5766  0.2021
43944SOL    HW236518   1.672   1.440   1.185  0.2022  0.1508 -0.0106
43945SOL     OW36519   6.587   1.318   0.202  0.0642 -0.1883  0.4817
43945SOL    HW136520   6.639   1.256   0.152 -1.0829 -0.0913 -0.8771
43945SOL    HW236521   6.607   1.404   0.164 -2.3088 -0.3200 -1.2429
43946SOL     OW36522   9.942   8.838   1.675  0.0558  0.4160  0.2898
43946SOL    HW136523   9.957   8.747   1.703 -0.0293  0.2757 -0.1082
43946SOL    HW236524   9.847   8.845   1.666 -0.1038  1.0786  2.0563
43947SOL     OW36525   9.596  11.583   1.635 -0.2569  0.5940 -0.6444
43947SOL    HW136526   9.639  11.561   1.552  1.4237  0.9081  0.1133
43947SOL    HW236527   9.662  11.630   1.685 -1.0618 -0.0204  1.0824
43948SOL     OW36528  10.339  10.957   6.340 -0.4014 -0.3512 -0.5290
43948SOL    HW136529  10.368  10.962   6.249 -0.9818 -0.4878 -0.7239
43948SOL    HW236530  10.275  10.887   6.341  0.4756 -1.1776  0.2295
43949SOL     OW36531   9.858   6.493   2.357 -0.4950  0.5796  0.4402
43949SOL    HW136532   9.907   6.489   2.439  1.7229  1.1870 -0.7694
43949SOL    HW236533   9.811   6.577   2.361 -2.0174 -0.2811  1.8707
43950SOL     OW36534   2.325   5.093   5.828  0.7444 -0.0461 -0.3964
43950SOL    HW136535   2.230   5.083   5.829  0.7696 -0.2717  0.0261
43950SOL    HW236536   2.356   5.018   5.777  0.5798  1.1670 -2.3707
43951SOL     OW36537   1.805   8.220   0.496 -0.1269  0.1487  0.4118
43951SOL    HW136538   1.736   8.277   0.529  1.2396  1.6397  0.8236
43951SOL    HW236539   1.841   8.265   0.420 -0.5515 -1.3281 -0.7243
43952SOL     OW36540   8.106   7.300   1.268  0.4634  0.0206 -0.6111
43952SOL    HW136541   8.189   7.306   1.314  0.0425 -1.5793  0.4498
43952SOL    HW236542   8.104   7.211   1.234 -0.6870  0.1350 -0.8907
43953SOL     OW36543   2.145   1.773  10.082  0.4775 -0.3577  0.5421
43953SOL    HW136544   2.168   1.704  10.145  0.8438 -1.4453 -0.7401
43953SOL    HW236545   2.229   1.809  10.055  0.3827 -0.5252  0.0103
43954SOL     OW36546   8.307   4.395   7.574  0.1098  0.1794 -0.3373
43954SOL    HW136547   8.385   4.413   7.521 -0.6323  1.7606 -0.9556
43954SOL    HW236548   8.266   4.481   7.586 -1.6692 -0.6523 -0.2329
43955SOL     OW36549   5.203   6.291   1.820 -0.0591 -0.1016 -0.0793
43955SOL    HW136550   5.286   6.316   1.781 -0.9358  1.7467 -0.8947
43955SOL    HW236551   5.207   6.324   1.910 -0.5511  1.6306 -0.6494
43956SOL     OW36552  10.311   8.614   3.768  0.1863 -0.2553 -0.5411
43956SOL    HW136553  10.261   8.691   3.796 -0.3019 -1.1748  1.2459
43956SOL    HW236554  10.253   8.540   3.786  0.2644 -1.0255 -3.1436
43957SOL     OW36555   1.279   4.146   8.844 -0.6308  0.1757 -0.1403
43957SOL    HW136556   1.277   4.206   8.770  0.1469  0.0762 -0.2442
43957SOL    HW236557   1.198   4.165   8.893 -1.6513 -0.4180 -1.5265
43958SOL     OW36558  10.053  11.541   7.481 -0.0700  0.2758 -0.6204
43958SOL    HW136559  10.021  11.630   7.496  0.9236  0.8253 -1.5867
43958SOL    HW236560  10.068  11.506   7.568  2.1674  2.0610 -0.1880
43959SOL     OW36561   7.503   9.481  11.998  0.9344 -0.2859 -0.0741
43959SOL    HW136562   7.508   9.551  11.933  0.6419 -0.0616  0.1422
43959SOL    HW236563   7.483   9.403  11.947 -1.7985  0.2984 -0.0299
43960SOL     OW36564  10.443   0.311   0.937 -0.0754 -0.1358 -0.0229
43960SOL    HW136565  10.385   0.376   0.978 -0.2667 -0.9646  1.0424
43960SOL    HW236566  10.497   0.363   0.877 -2.0199  0.6616 -1.2182
43961SOL     OW36567   7.654  10.007   4.492 -0.3054  0.3222 -0.0926
43961SOL    HW136568   7.627  10.081   4.437 -0.0953  0.3267 -0.1883
43961SOL    HW236569   7.620  10.028   4.579  0.5512  0.9755  0.0954
43962SOL     OW36570   1.385   8.418   8.573 -0.1117  0.1573  0.0274
43962SOL    HW136571   1.320   8.482   8.544  0.9865  1.6058  0.6546
43962SOL    HW236572   1.414   8.450   8.659  1.9830 -0.0066 -0.5690
43963SOL     OW36573  11.520  11.787   8.516  0.6444  0.8313  0.1047
43963SOL    HW136574  11.478  11.764   8.598  1.2949 -0.8851 -0.0006
43963SOL    HW236575  11.572  11.865   8.537  0.2363  0.8493  1.1173
43964SOL     OW36576   0.691   7.011   8.300 -0.0281 -0.3156 -0.1535
43964SOL    HW136577   0.747   6.994   8.376 -1.1280 -0.7750  0.5687
43964SOL    HW236578   0.726   7.091   8.262  0.1764  0.2446  1.1811
43965SOL     OW36579   3.658  11.963   7.377 -0.5241 -0.5725  0.1114
43965SOL    HW136580   3.730  11.954   7.439  0.4994  1.2473 -0.7195
43965SOL    HW236581   3.673  11.893   7.313 -0.1313 -0.8900  0.5482
43966SOL     OW36582   4.589   0.916   1.246  0.0048 -0.0291  0.3382
43966SOL    HW136583   4.619   0.951   1.330  0.8592 -0.1943  0.1080
43966SOL    HW236584   4.573   0.993   1.192  0.3593  0.0521  0.3467
43967SOL     OW36585   7.833  10.908   6.860  0.0920  0.2976 -0.0618
43967SOL    HW136586   7.847  10.931   6.952  0.2068  0.3207 -0.0843
43967SOL    HW236587   7.770  10.837   6.862 -0.6225  0.9175 -0.0141
43968SOL     OW36588   7.272   1.001   7.752 -0.8048 -0.1204 -0.0052
43968SOL    HW136589   7.345   0.941   7.770  0.1759  0.5122 -1.6406
43968SOL    HW236590   7.199   0.944   7.727 -0.1592 -0.6873 -0.6437
43969SOL     OW36591   7.701   3.091   1.316 -0.1318  0.2492  0.0934
43969SOL    HW136592   7.781   3.072   1.364  0.6578  1.9184 -0.4893
43969SOL    HW236593   7.670   3.173   1.352 -1.6144 -0.3786  0.3151
43970SOL     OW36594   5.950   5.752   2.992 -0.0973 -0.4307  0.2654
43970SOL    HW136595   5.948   5.669   2.945  0.2079 -1.5102  2.0739
43970SOL    HW236596   5.858   5.778   2.999 -0.2841 -1.1514  0.5804
43971SOL     OW36597   7.300   8.760   5.165  0.7580  0.5027 -0.1896
43971SOL    HW136598   7.249   8.680   5.155  0.8944  0.4335 -0.3391
43971SOL    HW236599   7.299   8.800   5.077  1.8178 -0.0195 -0.4485
43972SOL     OW36600   7.915  10.683   3.538 -0.0017 -0.3347  0.3894
43972SOL    HW136601   7.999  10.684   3.491  0.1239 -0.4678  0.6072
43972SOL    HW236602   7.850  10.702   3.471  0.2404  0.1917  0.2984
43973SOL     OW36603  10.540   9.627  11.202 -0.5275 -0.3331 -0.1543
43973SOL    HW136604  10.533   9.532  11.193 -1.4882 -0.1764 -1.5815
43973SOL    HW236605  10.603   9.653  11.135  0.2419 -0.0231  0.6863
43974SOL     OW36606   9.694   2.395  11.805  0.0318  0.2455 -0.0752
43974SOL    HW136607   9.646   2.338  11.745  0.9652 -0.4616 -0.1886
43974SOL    HW236608   9.731   2.336  11.871  0.4066  0.8051  0.2336
43975SOL     OW36609   7.583   2.706   5.775 -0.4468 -0.0821 -0.3581
43975SOL    HW136610   7.650   2.724   5.709  0.2046  0.3966  0.4195
43975SOL    HW236611   7.550   2.619   5.752  0.3196 -0.2534 -0.8540
43976SOL     OW36612   9.794   6.380   0.021 -0.1744  0.5249  0.3712
43976SOL    HW136613   9.730   6.444   0.050  1.6621  2.3709  0.5490
43976SOL    HW236614   9.767   6.357  -0.067 -0.3544  2.3110 -0.0753
43977SOL     OW36615   2.065   6.056   1.291  0.1233  0.7769 -0.1913
43977SOL    HW136616   2.100   6.137   1.328  0.1659  2.1852 -3.0587
43977SOL    HW236617   2.137   6.021   1.238 -0.2544 -0.5988  0.1546
43978SOL     OW36618   2.152  10.384   1.753 -0.4845  0.7268  0.2418
43978SOL    HW136619   2.076  10.329   1.770 -0.7921  1.2749  0.6662
43978SOL    HW236620   2.115  10.469   1.727 -0.0678  0.1177 -2.7902
43979SOL     OW36621   5.613  10.119  10.047 -0.0726 -0.2551 -0.4809
43979SOL    HW136622   5.647  10.144  10.133  1.9464  0.0777 -1.3208
43979SOL    HW236623   5.533  10.171  10.038 -0.5459 -0.5760  1.3153
43980SOL     OW36624   6.727   8.925   4.581 -0.0314 -0.2726 -0.5199
43980SOL    HW136625   6.653   8.916   4.521 -0.0567 -0.4610 -0.4618
43980SOL    HW236626   6.696   8.887   4.663 -0.1836  0.4712 -0.2252
43981SOL     OW36627   1.122   4.468  11.008 -0.0163  0.1953  0.3722
43981SOL    HW136628   1.127   4.468  11.104 -1.1127  1.7165  0.4685
43981SOL    HW236629   1.108   4.559  10.985  1.4458  0.0250 -1.3481
43982SOL     OW36630   5.785   4.262   5.200  0.1747  0.2719  0.2361
43982SOL    HW136631   5.778   4.306   5.284  2.9464  0.5900  0.4012
43982SOL    HW236632   5.787   4.169   5.222  2.0492  0.3793  0.7191
43983SOL     OW36633   8.654  10.570  10.139  0.6399  0.0736 -0.0850
43983SOL    HW136634   8.691  10.524  10.214  0.6766 -0.8923 -0.6740
43983SOL    HW236635   8.642  10.502  10.073  1.0363  0.9802 -1.1202
43984SOL     OW36636   0.242   7.046  11.919 -0.2682  0.3530  0.4600
43984SOL    HW136637   0.191   7.009  11.991 -0.4173  1.7392  1.1037
43984SOL    HW236638   0.332   7.044  11.949 -0.0679 -0.9761 -0.1822
43985SOL     OW36639   2.311   7.265   5.696 -0.0245  0.1992 -0.1954
43985SOL    HW136640   2.256   7.334   5.731 -1.1556 -0.3248 -0.9038
43985SOL    HW236641   2.254   7.188   5.691  0.6766 -0.2832 -1.2220
43986SOL     OW36642   7.322  11.559   3.638 -0.2298 -0.3209 -0.5196
43986SOL    HW136643   7.252  11.538   3.575 -2.2716  1.1146  1.1118
43986SOL    HW236644   7.320  11.486   3.700 -1.2592  0.3307  0.2550
43987SOL     OW36645   6.530   6.690  11.554  0.2969  0.1473 -0.4827
43987SOL    HW136646   6.454   6.687  11.497  0.0978  0.3079 -0.2278
43987SOL    HW236647   6.552   6.598  11.570 -1.5173 -0.0123  1.6517
43988SOL     OW36648  11.904   9.994   7.929  0.1267  0.0233 -0.4335
43988SOL    HW136649  11.911  10.064   7.994 -2.6427  1.4804 -1.4983
43988SOL    HW236650  11.910   9.914   7.980  1.6349  1.0343  1.0883
43989SOL     OW36651  10.201   4.118   5.350  0.2097 -0.3039  0.4831
43989SOL    HW136652  10.216   4.036   5.397  1.5473 -0.4365 -0.1396
43989SOL    HW236653  10.263   4.116   5.277 -1.6827 -0.0474 -1.2357
43990SOL     OW36654   1.557   5.821   3.741  0.3603  0.1781 -0.0492
43990SOL    HW136655   1.517   5.908   3.751  0.2337  0.3905 -2.0158
43990SOL    HW236656   1.641   5.838   3.698  0.0696 -0.7065 -1.0071
43991SOL     OW36657   9.556   3.769  10.974 -0.6856  0.1136 -0.7772
43991SOL    HW136658   9.599   3.696  11.019 -0.0531  0.8019 -0.2582
43991SOL    HW236659   9.607   3.782  10.895  0.0546  0.9141 -0.1735
43992SOL     OW36660   5.817   9.070  10.294 -0.1344  0.5551 -0.2769
43992SOL    HW136661   5.724   9.082  10.273 -0.7103 -0.1256  1.7224
43992SOL    HW236662   5.853   9.159  10.292 -0.9202  0.8804 -0.5976
43993SOL     OW36663   7.665   8.849   8.853 -0.3560  0.7451 -0.5544
43993SOL    HW136664   7.712   8.824   8.932  0.6768  0.7471 -1.1516
43993SOL    HW236665   7.578   8.875   8.883 -0.4176 -0.5563  0.4196
43994SOL     OW36666   4.633   5.698   8.093 -0.0066  0.3254  0.2272
43994SOL    HW136667   4.715   5.747   8.086 -1.3649  2.7828  0.5601
43994SOL    HW236668   4.653   5.627   8.154  2.1673  0.1406 -0.6144
43995SOL     OW36669  10.406   6.018  11.392  1.1646 -0.0385  0.4905
43995SOL    HW136670  10.330   5.965  11.367  1.1407  0.0983  0.2691
43995SOL    HW236671  10.466   5.956  11.434  1.2606 -0.3054 -0.0283
43996SOL     OW36672   5.488   6.308   1.761 -0.4628 -0.4259 -0.2854
43996SOL    HW136673   5.532   6.270   1.685  0.4005  0.8405 -0.4329
43996SOL    HW236674   5.522   6.397   1.768  1.1475 -1.1451  2.8423
43997SOL     OW36675   8.938   6.099   4.348  0.0635  0.6242  0.1633
43997SOL    HW136676   8.968   6.167   4.288  0.1911  0.2461 -0.2103
43997SOL    HW236677   9.000   6.027   4.335 -0.2819  0.3000  0.2857
43998SOL     OW36678   4.597   6.570   4.488  0.2038 -0.4854  0.0143
43998SOL    HW136679   4.512   6.578   4.532 -0.3950 -1.6220 -0.8934
43998SOL    HW236680   4.577   6.528   4.405  1.3922  1.0719 -1.1166
43999SOL     OW36681  11.571  10.056   4.964  0.2030  0.3797  0.5852
43999SOL    HW136682  11.510  10.129   4.955 -1.1128 -0.6033  1.1765
43999SOL    HW236683  11.518   9.985   5.002  1.2049 -1.1796 -0.7857
44000SOL     OW36684   5.691   3.989   8.161 -0.2758  0.2636  0.6220
44000SOL    HW136685   5.761   3.947   8.111  1.5975  2.4664  1.1790
44000SOL    HW236686   5.693   3.946   8.246 -1.8624 -1.8654 -0.3266
44001SOL     OW36687  10.550   4.315  11.468 -0.6165 -0.2291 -0.5175
44001SOL    HW136688  10.474   4.277  11.511 -1.1072  1.6442  0.3464
44001SOL    HW236689  10.617   4.320  11.536 -1.6943  3.6305  0.5182
44002SOL     OW36690  10.113   5.868   8.311 -0.4955  0.4044 -0.2095
44002SOL    HW136691  10.118   5.872   8.407 -1.1467  1.8553 -0.2089
44002SOL    HW236692  10.198   5.834   8.283 -1.0378 -2.1484  0.9635
44003SOL     OW36693  10.128   2.367  11.828 -0.2147 -0.2467 -0.0608
44003SOL    HW136694  10.197   2.405  11.773 -0.2945 -0.3592 -0.2389
44003SOL    HW236695  10.066   2.329  11.765 -0.7060  0.3108  0.0793
44004SOL     OW36696   2.494   7.474   4.987 -0.0134  0.1209  0.5286
44004SOL    HW136697   2.411   7.476   5.035  0.0408 -0.5670  0.6558
44004SOL    HW236698   2.546   7.407   5.031 -0.1010 -0.7958 -0.6883
44005SOL     OW36699  11.036   1.187  11.282  0.4714  0.0110  0.6037
44005SOL    HW136700  11.063   1.186  11.374  3.5219  1.5374 -0.1715
44005SOL    HW236701  11.083   1.114  11.242  0.6882  0.5472 -0.1319
44006SOL     OW36702   7.101   7.459   3.146 -0.2098 -1.1857  0.1647
44006SOL    HW136703   7.036   7.482   3.079 -0.9414 -0.1407  1.2010
44006SOL    HW236704   7.162   7.400   3.100 -0.9494 -0.8827 -1.2836
44007SOL     OW36705   9.457   9.560   1.781  0.0354 -0.0593  0.0164
44007SOL    HW136706   9.517   9.509   1.836  0.2781  0.3258  0.1151
44007SOL    HW236707   9.515   9.616   1.729 -0.1721 -0.6655 -0.8932
44008SOL     OW36708   9.303   7.383   0.181  0.0912 -0.1504  0.0608
44008SOL    HW136709   9.396   7.408   0.176 -0.2924  1.3068 -0.4121
44008SOL    HW236710   9.280   7.394   0.273  0.5371 -1.1490  0.3022
44009SOL     OW36711   3.350   8.470  11.371  0.5937 -0.2517 -0.6346
44009SOL    HW136712   3.273   8.517  11.338  0.0641 -1.1075 -0.6470
44009SOL    HW236713   3.314   8.393  11.415  1.3143  0.5204  1.4239
44010SOL     OW36714   6.027   8.698   8.454 -0.7574  0.2551 -0.1127
44010SOL    HW136715   5.953   8.638   8.445  0.4397 -1.5086  1.0423
44010SOL    HW236716   5.993   8.783   8.424 -2.5981 -0.9155 -1.5740
44011SOL     OW36717   8.297   5.211   6.443  0.0936 -0.2265 -0.3149
44011SOL    HW136718   8.258   5.162   6.516  0.4434  0.7160  0.5097
44011SOL    HW236719   8.332   5.290   6.483 -0.5873  0.7848 -1.6524
44012SOL     OW36720  10.924   6.662  10.576 -0.4862 -0.2914  0.2813
44012SOL    HW136721  11.007   6.618  10.593 -0.2517  0.0454  0.0149
44012SOL    HW236722  10.945   6.755  10.583 -0.7954 -0.2013 -0.0080
44013SOL     OW36723   5.340   4.297   8.093 -0.1069 -0.2443  0.2437
44013SOL    HW136724   5.431   4.297   8.121  0.0781 -0.0482 -0.3380
44013SOL    HW236725   5.342   4.257   8.006 -0.7295 -1.2843  0.6987
44014SOL     OW36726   5.194   0.842  10.745  0.3093  0.6165  0.0231
44014SOL    HW136727   5.228   0.774  10.688 -0.2195  0.5784 -0.2568
44014SOL    HW236728   5.182   0.798  10.830 -0.3933  0.2517 -0.2573
44015SOL     OW36729   5.637   4.762   0.957 -0.2835  0.0155  0.5633
44015SOL    HW136730   5.597   4.678   0.978 -0.1486 -0.0660  0.4970
44015SOL    HW236731   5.564   4.819   0.935 -0.2350 -0.8825 -2.3086
44016SOL     OW36732  10.018   1.376  10.112 -0.2544 -0.2368 -0.4987
44016SOL    HW136733  10.006   1.454  10.058  0.7651  0.1982 -0.1239
44016SOL    HW236734  10.033   1.305  10.049  1.0538  0.2887 -0.8193
44017SOL     OW36735   6.970   7.397   3.433  0.1395 -0.0141  0.3139
44017SOL    HW136736   7.039   7.452   3.398 -0.1806  0.4497  0.4104
44017SOL    HW236737   7.008   7.355   3.510  0.4612 -0.1242  0.0961
44018SOL     OW36738   0.546   0.951   6.159  0.3531  0.1489  0.5223
44018SOL    HW136739   0.515   0.966   6.248 -1.7845  3.3105 -0.5987
44018SOL    HW236740   0.511   0.865   6.135 -0.6814  0.1136  2.0744
44019SOL     OW36741   0.122   9.586   5.587 -0.6449 -0.6224 -0.0383
44019SOL    HW136742   0.115   9.677   5.560  1.2944 -0.6187 -0.6881
44019SOL    HW236743   0.096   9.585   5.679 -1.7508  0.3667 -0.3181
44020SOL     OW36744  10.880   3.842   3.059  0.8055  0.1972 -0.8565
44020SOL    HW136745  10.873   3.913   3.123  0.9214  0.4904 -1.1668
44020SOL    HW236746  10.974   3.829   3.047  0.8369 -1.3661  0.6802
44021SOL     OW36747  10.712   3.571  11.984  0.1902  0.2656 -0.4575
44021SOL    HW136748  10.702   3.627  11.906  0.8054  0.9625 -0.0549
44021SOL    HW236749  10.706   3.632  12.057  1.4146 -0.1174 -0.0197
44022SOL     OW36750   0.532   4.427   0.929 -0.5641 -0.1101  0.0705
44022SOL    HW136751   0.496   4.352   0.880 -0.9323  0.0921  0.0263
44022SOL    HW236752   0.556   4.390   1.014  0.7856 -0.6272 -0.5063
44023SOL     OW36753   6.155  10.107   2.472 -0.6132  0.5905 -0.3054
44023SOL    HW136754   6.068  10.081   2.500  0.0295  0.0872  1.3667
44023SOL    HW236755   6.206  10.026   2.475  0.0310  0.9685 -0.7882
44024SOL     OW36756   5.499   5.276   2.524  0.7871 -0.3367  0.4093
44024SOL    HW136757   5.493   5.368   2.499  1.4426 -0.3566  0.1603
44024SOL    HW236758   5.471   5.274   2.616 -2.7353 -0.4142 -0.5160
44025SOL     OW36759   3.075  11.724   5.718  0.4176  0.1724  0.1414
44025SOL    HW136760   3.122  11.799   5.755  0.6922 -0.0905  0.3352
44025SOL    HW236761   3.125  11.700   5.640 -0.3219  0.9038 -0.5848
44026SOL     OW36762   3.410   4.721   7.632 -0.5433  0.3296 -0.3154
44026SOL    HW136763   3.387   4.630   7.619 -0.9522  0.3494  0.2252
44026SOL    HW236764   3.473   4.720   7.704 -2.5775  0.6651  1.6004
44027SOL     OW36765   7.189   9.391   5.561  0.4954  0.2179 -0.2648
44027SOL    HW136766   7.127   9.461   5.583  0.1762  0.0492 -0.6259
44027SOL    HW236767   7.259   9.436   5.515  1.4896  0.6886  1.5929
44028SOL     OW36768   5.305  10.451   9.595  0.2382  0.0164 -0.5178
44028SOL    HW136769   5.252  10.501   9.657  1.1584  1.0678 -0.5538
44028SOL    HW236770   5.243  10.392   9.553 -0.6604  0.3055  0.3682
44029SOL     OW36771   7.144   7.292  10.201  0.2428 -0.5459  0.0997
44029SOL    HW136772   7.165   7.304  10.109 -0.8073 -2.4648 -0.4348
44029SOL    HW236773   7.141   7.197  10.213  2.2147 -0.4059  2.5696
44030SOL     OW36774   6.693   9.163   1.909  0.2432 -0.2329 -0.4896
44030SOL    HW136775   6.654   9.208   1.985  1.5359  0.2188 -0.0659
44030SOL    HW236776   6.636   9.088   1.894 -0.8088  0.4216  0.0764
44031SOL     OW36777  11.823   7.436   8.338 -0.4324 -0.3722 -0.3892
44031SOL    HW136778  11.869   7.364   8.295 -2.4992 -1.5986 -0.6628
44031SOL    HW236779  11.840   7.423   8.432  2.5507  1.2374 -0.5888
44032SOL     OW36780   4.445   8.344  11.234  0.5289 -0.6876 -0.3164
44032SOL    HW136781   4.443   8.253  11.205 -0.0411 -0.9730  0.5883
44032SOL    HW236782   4.354   8.364  11.256  0.2645  0.7114 -2.3182
44033SOL     OW36783  11.578   6.967   3.278 -0.3662 -0.0198  0.8397
44033SOL    HW136784  11.561   6.957   3.184  0.1918  2.3330  0.4302
44033SOL    HW236785  11.657   6.915   3.294  0.6509  1.0669 -0.4293
44034SOL     OW36786   1.837   1.668   0.414 -0.4059 -0.3125  0.3088
44034SOL    HW136787   1.880   1.618   0.345 -2.5850  0.0399 -1.4311
44034SOL    HW236788   1.780   1.729   0.367 -0.8420  1.0141  2.4226
44035SOL     OW36789   1.090   3.404   5.424  0.2140 -0.1862 -0.3636
44035SOL    HW136790   1.174   3.379   5.386  1.0964  0.8755  0.8044
44035SOL    HW236791   1.111   3.432   5.513 -1.2678  0.8084 -0.2831
44036SOL     OW36792   3.261  10.637   1.721  0.4619  0.3560  0.1039
44036SOL    HW136793   3.279  10.707   1.659  0.1890 -0.5063 -0.9891
44036SOL    HW236794   3.331  10.644   1.786 -0.6330  2.8262  1.1417
44037SOL     OW36795   3.527   3.022   5.067  0.0585 -0.0659  0.4410
44037SOL    HW136796   3.491   3.044   5.153  1.5217  1.4770  0.7091
44037SOL    HW236797   3.620   3.006   5.085  0.0823 -1.2498 -0.6361
44038SOL     OW36798   3.535   0.193   7.402 -0.0293 -0.2826 -0.1312
44038SOL    HW136799   3.513   0.186   7.495  0.8973 -0.6418  0.0730
44038SOL    HW236800   3.568   0.106   7.379 -0.3216 -0.2156 -0.8224
44039SOL     OW36801   0.993  10.143   8.895  0.0730 -0.0033  0.1736
44039SOL    HW136802   1.038  10.109   8.971 -0.2482  0.0790  0.4021
44039SOL    HW236803   1.031  10.095   8.821  0.2078 -0.2623  0.4084
44040SOL     OW36804  10.312   5.759   7.543  0.3223 -0.4195 -0.1721
44040SOL    HW136805  10.272   5.844   7.521  1.4242  0.1456 -0.0583
44040SOL    HW236806  10.251   5.720   7.605  1.3157  1.7628  2.4126
44041SOL     OW36807   8.760   6.544  10.174  0.4575  0.3302  0.4488
44041SOL    HW136808   8.734   6.611  10.110 -2.0259 -0.6119  0.3372
44041SOL    HW236809   8.855   6.553  10.181  0.5894  1.7422 -1.9277
44042SOL     OW36810   9.995   7.217   5.072 -0.2330  0.0655  0.6188
44042SOL    HW136811   9.918   7.271   5.059  0.3248  0.9008  0.6896
44042SOL    HW236812  10.046   7.228   4.991 -0.2260 -0.5558  0.5289
44043SOL     OW36813  11.874   4.533   2.988 -0.6567  0.5455 -0.1397
44043SOL    HW136814  11.886   4.528   3.083  0.3004 -0.4748 -0.2979
44043SOL    HW236815  11.839   4.621   2.973  0.2186  1.1180  1.0550
44044SOL     OW36816   7.123   5.913   8.593  0.4560 -0.1792  0.5116
44044SOL    HW136817   7.112   5.980   8.526  0.1251 -0.1203  0.6222
44044SOL    HW236818   7.208   5.932   8.632  1.1340 -0.8338 -0.5779
44045SOL     OW36819   2.786  10.988   4.677  0.1214  0.1387  0.3440
44045SOL    HW136820   2.767  11.082   4.681  0.1899  0.1084  2.8929
44045SOL    HW236821   2.877  10.981   4.704 -0.1201 -0.7253  0.9571
44046SOL     OW36822   0.686  10.462  10.603 -0.2312  0.6218 -0.5093
44046SOL    HW136823   0.709  10.391  10.544 -0.5062 -1.3603  1.6288
44046SOL    HW236824   0.739  10.536  10.573 -0.4071 -0.2218 -3.2065
44047SOL     OW36825   0.621   8.051  11.693  0.1027 -0.1514  0.5564
44047SOL    HW136826   0.636   8.000  11.772 -0.0305  0.5656  1.0542
44047SOL    HW236827   0.704   8.096  11.678 -0.2255  0.5884  0.9361
44048SOL     OW36828   9.312   5.309  10.319 -0.4494  0.1575 -0.4050
44048SOL    HW136829   9.262   5.229  10.304  2.3520 -1.7480 -0.3463
44048SOL    HW236830   9.311   5.320  10.414  1.3753 -1.4968 -0.1154
44049SOL     OW36831   1.166   8.347   1.624  0.2256 -0.0809  0.7168
44049SOL    HW136832   1.258   8.342   1.600  0.1172  1.1788 -0.0475
44049SOL    HW236833   1.129   8.264   1.593  0.9494 -0.2798  0.3615
44050SOL     OW36834   4.954   0.508   4.815 -0.3382 -0.2433  0.0305
44050SOL    HW136835   5.041   0.524   4.852 -0.0796  0.8875 -1.0177
44050SOL    HW236836   4.896   0.506   4.891  0.3549  0.7463  0.6146
44051SOL     OW36837  10.154  11.808   6.708  0.2980  0.3414 -0.1423
44051SOL    HW136838  10.207  11.841   6.780  0.1881  0.0283  0.0838
44051SOL    HW236839  10.161  11.713   6.715 -1.2613  0.2579  0.6207
44052SOL     OW36840   4.267   7.153   1.512 -0.2485 -0.3225 -0.3418
44052SOL    HW136841   4.240   7.121   1.426  1.0271 -1.6186 -0.2977
44052SOL    HW236842   4.347   7.204   1.495  0.8328 -1.7625  0.1806
44053SOL     OW36843   7.908  10.179   9.074  0.5562 -0.0739 -0.0813
44053SOL    HW136844   7.994  10.212   9.100  0.0340  1.5806 -0.3508
44053SOL    HW236845   7.892  10.106   9.134  1.6277  0.3500  0.7562
44054SOL     OW36846   5.189   7.428   4.330 -0.1207  0.1358 -0.2111
44054SOL    HW136847   5.106   7.383   4.319 -0.8245  0.8202  1.8013
44054SOL    HW236848   5.173   7.517   4.298  0.5625 -0.3346 -1.9682
44055SOL     OW36849   8.795   1.232   2.773 -0.0971 -0.5255 -0.2468
44055SOL    HW136850   8.769   1.140   2.768  0.7377 -0.7121 -1.7740
44055SOL    HW236851   8.877   1.236   2.725  0.3995  0.8489  0.6734
44056SOL     OW36852  11.173   0.734   4.012 -0.2009  0.8080 -0.1089
44056SOL    HW136853  11.099   0.721   3.952  0.9585 -2.0204 -1.0512
44056SOL    HW236854  11.250   0.720   3.958  0.8951 -1.9142  1.9581
44057SOL     OW36855   0.179   1.238   2.087 -0.6412 -0.1603  0.3450
44057SOL    HW136856   0.128   1.249   2.007  3.4642 -0.9799 -2.7264
44057SOL    HW236857   0.198   1.327   2.116 -2.4483  0.1425  0.7548
44058SOL     OW36858   8.788   5.262   3.925 -0.5869  0.0351  0.1921
44058SOL    HW136859   8.722   5.242   3.991 -0.2986  0.7273  0.6989
44058SOL    HW236860   8.742   5.316   3.861 -1.2579 -1.8349 -0.9642
44059SOL     OW36861   4.271   8.310   1.706 -0.1378  0.3386  0.3161
44059SOL    HW136862   4.201   8.356   1.751  1.4300  2.1646  1.0046
44059SOL    HW236863   4.230   8.275   1.627 -1.7381  1.6610  0.5169
44060SOL     OW36864   3.698   1.561   6.458 -0.2525 -0.1469 -0.3963
44060SOL    HW136865   3.621   1.514   6.426  0.1704 -1.1112 -0.0433
44060SOL    HW236866   3.722   1.516   6.538  1.0077 -0.2169 -0.7956
44061SOL     OW36867  10.335   8.228   7.114  0.4928  0.2553 -0.6727
44061SOL    HW136868  10.262   8.168   7.097  1.3379 -0.9759 -0.0881
44061SOL    HW236869  10.412   8.183   7.078  1.0212  1.4032 -1.0254
44062SOL     OW36870   3.474   9.830   4.098 -0.7852  0.5324  0.4334
44062SOL    HW136871   3.530   9.879   4.038 -0.1173 -2.8362 -1.9486
44062SOL    HW236872   3.385   9.844   4.066 -0.7300  1.0751  0.5075
44063SOL     OW36873   5.645   6.134   7.527 -0.5757 -0.6306 -0.9417
44063SOL    HW136874   5.741   6.140   7.525 -0.5804 -0.6668 -1.5317
44063SOL    HW236875   5.626   6.040   7.521 -0.6228 -0.8427  1.5134
44064SOL     OW36876   6.156   0.318   6.869 -0.0638  0.2024  0.0761
44064SOL    HW136877   6.207   0.329   6.949 -1.0612 -0.4266  0.8353
44064SOL    HW236878   6.085   0.258   6.895  0.7331 -1.6476 -1.7956
44065SOL     OW36879  10.079   7.144   7.845  0.0991  0.4120 -0.2011
44065SOL    HW136880  10.003   7.200   7.861 -0.0926  0.0052  0.3395
44065SOL    HW236881  10.044   7.071   7.793 -0.3009 -0.7406  1.5970
44066SOL     OW36882   6.687   3.428   7.678 -0.2987  0.5448  0.3435
44066SOL    HW136883   6.746   3.434   7.752  2.9051 -0.8848 -1.8664
44066SOL    HW236884   6.635   3.350   7.694  0.9832 -0.2546  0.7107
44067SOL     OW36885   7.764   7.752   9.374  0.1054  0.3597 -0.0402
44067SOL    HW136886   7.782   7.823   9.436 -1.0498 -0.5814  1.4129
44067SOL    HW236887   7.741   7.677   9.428 -3.6785  0.2098 -1.5778
44068SOL     OW36888   4.329   3.381   4.317 -0.4693  0.8014 -0.4478
44068SOL    HW136889   4.278   3.309   4.277  1.9671 -0.2750 -1.8654
44068SOL    HW236890   4.341   3.444   4.246  1.0106  0.5163 -0.4895
44069SOL     OW36891   2.148   4.385   5.406 -0.4069  0.3879  0.8243
44069SOL    HW136892   2.133   4.420   5.318  0.0964 -1.2607  0.0346
44069SOL    HW236893   2.065   4.343   5.429 -0.2145 -0.0978  0.6622
44070SOL     OW36894   6.460   6.467   7.689 -0.5849 -0.5377  0.5161
44070SOL    HW136895   6.499   6.433   7.769  0.5623  1.8273  1.0515
44070SOL    HW236896   6.527   6.524   7.651 -1.6494 -0.4070 -1.3451
44071SOL     OW36897   4.910   0.192   3.379  0.0605 -0.5853 -0.5968
44071SOL    HW136898   4.899   0.193   3.284  0.7867  1.2913 -0.7132
44071SOL    HW236899   5.004   0.182   3.392  0.1570  0.6983 -0.1459
44072SOL     OW36900   8.392   0.340   1.486  0.1785 -0.3125  0.4555
44072SOL    HW136901   8.378   0.389   1.567  1.2241  1.6553 -0.4935
44072SOL    HW236902   8.349   0.256   1.502 -1.3521  0.7253  2.3135
44073SOL     OW36903   1.589   8.444   0.091  0.1242  0.1077 -0.1005
44073SOL    HW136904   1.636   8.372   0.132  1.0315  0.4701 -0.4818
44073SOL    HW236905   1.578   8.416  -0.000 -1.8747 -0.6922  0.3316
44074SOL     OW36906   1.996  10.717  11.561  0.4929 -0.1524  0.1445
44074SOL    HW136907   2.037  10.796  11.526  1.8248 -1.0071 -0.3256
44074SOL    HW236908   1.969  10.667  11.483 -1.3541  0.3019  0.4387
44075SOL     OW36909   1.860   4.282   2.146 -0.0630 -0.2996 -0.2330
44075SOL    HW136910   1.810   4.293   2.065 -0.2211  3.1382  0.1458
44075SOL    HW236911   1.798   4.243   2.208 -0.4234 -1.4805 -1.3094
44076SOL     OW36912   9.999   8.396  10.474  0.6902  0.2212  0.0754
44076SOL    HW136913   9.977   8.311  10.435  0.5177 -0.0826  0.8180
44076SOL    HW236914   9.957   8.460  10.416  1.1102 -0.1742 -0.6853
44077SOL     OW36915   1.024   1.872   5.499 -0.0729 -0.2596  0.1075
44077SOL    HW136916   1.047   1.809   5.431  1.5679  0.7455 -0.3049
44077SOL    HW236917   0.930   1.885   5.488 -0.1808 -1.5375 -0.7278
44078SOL     OW36918   3.431   4.937   0.889 -0.4995  0.1452  0.1004
44078SOL    HW136919   3.383   4.913   0.968  1.1767 -0.2542  1.0457
44078SOL    HW236920   3.496   5.000   0.919 -0.6249  0.9449 -1.2078
44079SOL     OW36921   0.513   4.182   4.015 -0.0750  0.3074 -0.0252
44079SOL    HW136922   0.426   4.141   4.022 -0.3412  0.1686 -2.9990
44079SOL    HW236923   0.522   4.203   3.922  3.1345  0.2249  0.1617
44080SOL     OW36924   7.984   1.297   1.774  0.4011  0.1914  0.8334
44080SOL    HW136925   7.963   1.221   1.828  0.1629 -0.2984  0.0678
44080SOL    HW236926   7.901   1.342   1.761  0.1961 -0.4421 -0.2269
44081SOL     OW36927   3.241   2.284   0.820  0.6297  0.2613  0.5114
44081SOL    HW136928   3.224   2.221   0.890 -0.9749 -0.2739 -0.3368
44081SOL    HW236929   3.310   2.244   0.767 -0.8105 -1.1015 -0.3822
44082SOL     OW36930  10.947  11.692   0.949  0.3791 -0.1506  0.1634
44082SOL    HW136931  10.884  11.703   0.877  0.1364  1.5606  0.6112
44082SOL    HW236932  11.033  11.697   0.906  0.2470  1.4039  0.0277
44083SOL     OW36933   6.348   0.960   9.435  0.2252  0.1114 -0.5257
44083SOL    HW136934   6.417   0.919   9.487  0.0461 -0.8181 -1.0012
44083SOL    HW236935   6.391   0.979   9.351 -0.2470 -1.0974 -1.0702
44084SOL     OW36936   3.123   5.968   3.752 -0.5956 -0.3636 -0.0443
44084SOL    HW136937   3.065   6.011   3.814  0.1353  0.5040  0.0503
44084SOL    HW236938   3.201   5.946   3.802 -0.3158 -0.3631 -0.4700
44085SOL     OW36939  10.456   3.088   5.053  0.4614  0.3179 -0.4674
44085SOL    HW136940  10.517   3.080   4.980 -0.0010  1.2511 -0.9832
44085SOL    HW236941  10.497   3.041   5.125  1.5051  0.4268 -0.9743
44086SOL     OW36942   9.864   1.645   3.900 -0.5876 -0.6607  0.5345
44086SOL    HW136943   9.787   1.646   3.956 -0.3126  0.6037  0.9177
44086SOL    HW236944   9.935   1.675   3.956  0.1167 -1.3893  0.0661
44087SOL     OW36945   8.824  11.844   1.070 -0.0272 -0.5137 -0.3862
44087SOL    HW136946   8.824  11.921   1.127  1.1000 -0.1039 -0.9016
44087SOL    HW236947   8.855  11.773   1.126  2.2914  0.1407 -0.7448
44088SOL     OW36948   4.754   4.723   4.089  0.2294 -0.5185 -0.3865
44088SOL    HW136949   4.702   4.706   4.167  1.3174 -0.9349  0.2665
44088SOL    HW236950   4.755   4.819   4.081  1.0268 -0.4095  0.7694
44089SOL     OW36951   4.101  11.560   7.506 -0.2890 -0.4959 -0.1994
44089SOL    HW136952   4.048  11.480   7.511 -1.6435  0.4237  1.3705
44089SOL    HW236953   4.054  11.623   7.562  1.3611  1.0342 -0.4526
44090SOL     OW36954   2.586  11.726   6.785  0.4112 -0.0990 -0.0667
44090SOL    HW136955   2.588  11.794   6.852  2.9607 -0.3171  0.1808
44090SOL    HW236956   2.654  11.752   6.723 -0.2186 -1.1914 -1.2737
44091SOL     OW36957   1.612   0.032   1.520 -0.3190  0.2026  0.0264
44091SOL    HW136958   1.625   0.028   1.425  0.0834 -0.0900  0.0887
44091SOL    HW236959   1.584  -0.057   1.544 -2.9717  0.9060 -0.1547
44092SOL     OW36960   1.968   7.105   1.836  0.4929  0.5698  0.1244
44092SOL    HW136961   2.026   7.106   1.912 -0.4008  0.2230  0.8249
44092SOL    HW236962   1.882   7.127   1.871 -0.0473 -0.2166 -0.6734
44093SOL     OW36963  11.200   0.048   3.949  0.5072  0.0106 -0.2218
44093SOL    HW136964  11.271   0.082   4.003  0.3759  0.7691 -0.5200
44093SOL    HW236965  11.221  -0.045   3.939  0.5492 -0.1384  1.0856
44094SOL     OW36966   3.557   9.763   5.620 -0.0610  0.3892  0.4767
44094SOL    HW136967   3.548   9.785   5.527  1.3480  0.6045  0.3703
44094SOL    HW236968   3.648   9.786   5.641  0.3323 -1.7474  1.3459
44095SOL     OW36969   6.496   0.357  11.475 -0.2409 -0.4925  0.6691
44095SOL    HW136970   6.554   0.432  11.466 -0.9661  0.2315  1.8029
44095SOL    HW236971   6.489   0.343  11.570 -0.5774 -1.6335  0.4943
44096SOL     OW36972   3.448   8.521   6.399  0.1151  0.1321 -0.3466
44096SOL    HW136973   3.353   8.513   6.409  0.0469  1.6370  0.5748
44096SOL    HW236974   3.483   8.448   6.451 -0.5240 -0.5011 -0.7814
44097SOL     OW36975   2.235   7.602   7.774  0.1071 -0.1110 -0.2587
44097SOL    HW136976   2.319   7.574   7.810  2.4160  0.8828 -4.1699
44097SOL    HW236977   2.197   7.523   7.736  0.5015 -0.1518 -0.5754
44098SOL     OW36978   4.232  10.209   8.474 -0.2774 -0.5761  0.1038
44098SOL    HW136979   4.191  10.281   8.427 -1.0596 -0.2616  1.2431
44098SOL    HW236980   4.306  10.249   8.520 -1.1355 -0.3243  1.3155
44099SOL     OW36981   3.025   1.949   6.698 -0.7569 -0.5734  0.2988
44099SOL    HW136982   3.016   1.962   6.603 -0.4066  2.3246  0.5659
44099SOL    HW236983   3.115   1.977   6.717 -1.7630  1.9822  1.8296
44100SOL     OW36984   2.240   6.034  10.760  0.1116  0.1087 -0.4391
44100SOL    HW136985   2.255   5.956  10.814 -1.3535 -1.0246 -1.5826
44100SOL    HW236986   2.202   6.098  10.821  0.5539 -0.3562  0.3419
44101SOL     OW36987   3.264   9.301   1.093 -0.2219  0.4957  0.3799
44101SOL    HW136988   3.298   9.214   1.112 -1.8797 -0.4525 -0.6996
44101SOL    HW236989   3.205   9.321   1.166 -0.1100  0.5639  0.4519
44102SOL     OW36990   9.189   2.567   5.489 -0.4925  0.1888 -0.4722
44102SOL    HW136991   9.268   2.618   5.471 -0.1187 -0.5965 -1.1328
44102SOL    HW236992   9.189   2.557   5.585  0.9529 -0.9212 -0.5575
44103SOL     OW36993   7.223   9.753  11.400  0.2008 -0.3495  0.0185
44103SOL    HW136994   7.292   9.817  11.381  0.1608 -0.7606 -1.6437
44103SOL    HW236995   7.197   9.772  11.490  1.0069  1.2052 -0.0469
44104SOL     OW36996  10.531   2.872   1.183  0.0932 -0.0362  0.0107
44104SOL    HW136997  10.515   2.917   1.266 -0.8009  1.4275 -0.9150
44104SOL    HW236998  10.511   2.781   1.201 -2.5149  0.6074  0.7960
44105SOL     OW36999   9.077   0.486   6.142  0.6493  0.3917  0.7471
44105SOL    HW137000   9.100   0.525   6.226  1.3952  0.1895  0.6401
44105SOL    HW237001   9.158   0.487   6.092  0.6354 -1.0846  0.6513
44106SOL     OW37002   6.587   7.588   7.879 -0.3690  0.3247  0.0337
44106SOL    HW137003   6.677   7.620   7.875 -0.0345 -0.4040  1.2437
44106SOL    HW237004   6.551   7.607   7.793  0.5353  1.8084 -0.0596
44107SOL     OW37005   9.244   4.728   2.529  0.0653  0.3422 -0.2836
44107SOL    HW137006   9.265   4.663   2.596 -0.8051  2.6032  2.4014
44107SOL    HW237007   9.166   4.693   2.486 -0.3448 -0.4400  1.0346
44108SOL     OW37008   8.166   2.694   4.715  0.4928 -0.2677  0.6472
44108SOL    HW137009   8.189   2.603   4.698  0.9572 -0.0825  0.2697
44108SOL    HW237010   8.213   2.744   4.648  0.6957  0.2974  1.1953
44109SOL     OW37011   2.138   7.995   7.384 -0.0796 -0.0203  0.5243
44109SOL    HW137012   2.085   7.931   7.337 -0.6868 -0.0198  1.1953
44109SOL    HW237013   2.103   7.995   7.473 -1.2507  2.4728  0.1476
44110SOL     OW37014   1.027   8.573   4.307  0.6388 -0.2116 -0.0294
44110SOL    HW137015   1.088   8.540   4.241  0.2532 -1.6425  0.2831
44110SOL    HW237016   0.972   8.497   4.329 -0.6831  0.8089  0.3303
44111SOL     OW37017   8.312   4.862   8.128  0.2146 -0.0836  0.1317
44111SOL    HW137018   8.371   4.817   8.188 -0.9076 -1.2896  0.3841
44111SOL    HW237019   8.311   4.807   8.050 -0.5470 -0.0697  0.1255
44112SOL     OW37020   3.734   5.595   1.700 -0.1655  0.0113  0.6839
44112SOL    HW137021   3.727   5.581   1.794  2.2213  1.0579  1.0850
44112SOL    HW237022   3.827   5.589   1.681 -0.3496  1.8389 -1.2603
44113SOL     OW37023   6.940   8.962   2.695  0.0452  0.0807 -0.3608
44113SOL    HW137024   6.884   8.884   2.688 -0.5322  0.5677 -1.4481
44113SOL    HW237025   7.012   8.935   2.752 -1.5569 -0.4100  1.5107
44114SOL     OW37026   2.663  10.334   9.257  0.0350 -0.6076  0.0109
44114SOL    HW137027   2.698  10.421   9.278 -0.7476 -0.4410  0.7112
44114SOL    HW237028   2.580  10.351   9.213 -0.4501 -0.9941  0.7523
44115SOL     OW37029  10.722   3.123  10.782  0.0717 -0.0309 -0.5459
44115SOL    HW137030  10.771   3.041  10.790  0.8493  0.4724  0.0325
44115SOL    HW237031  10.650   3.114  10.844  0.5205 -0.0290 -0.0179
44116SOL     OW37032   3.552   2.780   6.352  0.2954  0.5838 -0.7519
44116SOL    HW137033   3.638   2.789   6.309  1.6442 -1.9760  1.1590
44116SOL    HW237034   3.500   2.728   6.291  1.9571 -2.3971  0.1612
44117SOL     OW37035   9.078  10.269   4.902 -0.5920 -0.1438  0.4876
44117SOL    HW137036   9.137  10.309   4.838 -1.7033  0.7497  0.0032
44117SOL    HW237037   9.130  10.265   4.983 -0.1917  1.5727  0.3479
44118SOL     OW37038   5.284   3.589   0.305  0.4412 -0.2274  0.3414
44118SOL    HW137039   5.322   3.524   0.247  0.5096 -1.8537  2.1229
44118SOL    HW237040   5.228   3.539   0.364  0.1668  1.3874  1.5160
44119SOL     OW37041   7.838   1.117  11.725 -0.1386  0.4449  0.2904
44119SOL    HW137042   7.798   1.101  11.811 -1.2914 -1.1990 -0.4981
44119SOL    HW237043   7.878   1.204  11.733 -0.8453  0.6408  2.2499
44120SOL     OW37044   4.923   6.463   7.184 -0.3237  0.4999 -0.1690
44120SOL    HW137045   4.971   6.544   7.166 -0.2155  0.6268  0.6205
44120SOL    HW237046   4.967   6.396   7.131 -0.6355  1.0238 -1.0910
44121SOL     OW37047   1.347  11.331   9.090  0.5389  0.4638  0.1738
44121SOL    HW137048   1.432  11.304   9.124  0.5928 -0.3718 -0.5941
44121SOL    HW237049   1.284  11.301   9.156  0.6679 -0.8547 -0.2855
44122SOL     OW37050   6.150   5.844  10.019 -0.4979  0.2650  0.2781
44122SOL    HW137051   6.162   5.760  10.064 -0.6224 -0.6963 -1.4205
44122SOL    HW237052   6.212   5.842   9.946 -2.7096  0.2192 -1.7070
44123SOL     OW37053  11.590   7.586   3.578  0.2268 -0.5767 -1.0364
44123SOL    HW137054  11.497   7.584   3.601  0.2283  0.7652 -0.8409
44123SOL    HW237055  11.624   7.502   3.609 -0.6626 -0.5594  0.0439
44124SOL     OW37056   5.661   9.045   0.223  0.3305 -0.2764 -0.6356
44124SOL    HW137057   5.712   8.974   0.185  1.2576 -0.4024  0.7868
44124SOL    HW237058   5.569   9.021   0.207  0.5771 -2.4307  0.9020
44125SOL     OW37059  11.677   1.770  11.292 -0.0419  0.4442 -0.3496
44125SOL    HW137060  11.726   1.776  11.373 -1.9149  2.2789  0.7818
44125SOL    HW237061  11.612   1.702  11.307 -0.1892  0.5688 -0.4056
44126SOL     OW37062   4.875  11.553   6.367  0.2142  0.4818  0.1786
44126SOL    HW137063   4.971  11.548   6.362  0.2485  0.5103  0.7626
44126SOL    HW237064   4.847  11.554   6.276  0.6396 -1.9453 -0.0488
44127SOL     OW37065   2.545   3.047   2.917 -0.2868  0.1813 -0.2387
44127SOL    HW137066   2.611   2.999   2.866  1.0935  0.9844  0.7126
44127SOL    HW237067   2.469   2.989   2.919  1.4235 -2.1923  1.1733
44128SOL     OW37068   5.393   1.532   0.462 -0.0998  0.4491  0.4095
44128SOL    HW137069   5.316   1.582   0.437  0.2279  0.9488  0.3883
44128SOL    HW237070   5.385   1.522   0.557  0.1701  1.1234  0.5101
44129SOL     OW37071   9.032   8.143   1.313  0.4647  0.5043  0.4315
44129SOL    HW137072   9.067   8.152   1.224  0.7835 -0.2196  0.4719
44129SOL    HW237073   9.027   8.232   1.346  0.6894  0.7512 -0.1879
44130SOL     OW37074   4.835   1.783  11.130  0.3335  0.1650 -0.1094
44130SOL    HW137075   4.868   1.697  11.107 -0.6647 -0.2270 -0.1112
44130SOL    HW237076   4.779   1.808  11.056  0.3569  0.6674  0.0390
44131SOL     OW37077  11.239   7.774   2.921 -0.2922 -0.0757 -0.2895
44131SOL    HW137078  11.208   7.823   2.998 -0.3094  0.1882 -0.4619
44131SOL    HW237079  11.178   7.701   2.913  0.1950 -0.5744  0.4389
44132SOL     OW37080   2.881   6.956  11.211 -0.6287  0.2212  0.0492
44132SOL    HW137081   2.919   6.897  11.277 -0.5074 -0.4966 -0.6468
44132SOL    HW237082   2.825   7.015  11.262  0.1612  0.2643  0.8990
44133SOL     OW37083   9.716   3.478   3.452  0.1910 -0.8707 -0.0949
44133SOL    HW137084   9.779   3.441   3.390  0.2663 -0.3635 -0.3306
44133SOL    HW237085   9.631   3.449   3.419  0.2553 -0.9209 -0.2174
44134SOL     OW37086   1.873   1.328  11.961 -0.3497  0.3072 -0.6127
44134SOL    HW137087   1.818   1.326  11.883 -0.4689 -1.7500 -0.5319
44134SOL    HW237088   1.869   1.239  11.996 -2.0638  1.6095  3.0242
44135SOL     OW37089   9.908   2.073   6.168 -0.1321  0.1798 -0.4633
44135SOL    HW137090   9.877   2.021   6.094 -0.3266 -0.7793  0.2681
44135SOL    HW237091   9.863   2.157   6.159  3.3085  1.9675 -4.0415
44136SOL     OW37092  10.350   2.476   3.618 -0.5798 -0.4705  0.1493
44136SOL    HW137093  10.323   2.465   3.709 -1.0421 -1.2686 -0.0763
44136SOL    HW237094  10.445   2.484   3.622 -0.7292  1.4537  0.8668
44137SOL     OW37095  11.618   4.100  11.426  0.0344 -0.0886 -0.0427
44137SOL    HW137096  11.657   4.115  11.340 -1.1857 -0.2502 -0.6375
44137SOL    HW237097  11.633   4.007  11.443  1.4697  0.2247  0.5453
44138SOL     OW37098  10.393   3.195   1.164 -0.0333 -0.3018 -0.1880
44138SOL    HW137099  10.397   3.215   1.070 -0.4789 -0.5754 -0.2642
44138SOL    HW237100  10.331   3.122   1.171  0.5315 -0.7523  0.2435
44139SOL     OW37101   2.436   2.249   4.267 -0.5210  0.3249  0.0661
44139SOL    HW137102   2.516   2.238   4.319 -0.8030  1.5270  0.7966
44139SOL    HW237103   2.467   2.266   4.178 -0.0138 -0.7808  0.0130
44140SOL     OW37104   6.590  10.605   8.996  0.8896 -0.4551 -0.1173
44140SOL    HW137105   6.669  10.630   9.044 -1.2767  1.4185  2.8145
44140SOL    HW237106   6.557  10.528   9.042 -0.5651  0.6308  0.7306
44141SOL     OW37107   5.345   9.827   3.658  0.1857 -0.0890 -0.0483
44141SOL    HW137108   5.372   9.919   3.654 -1.9299  0.6417  0.9352
44141SOL    HW237109   5.364   9.801   3.749 -0.6800 -0.1161  0.1310
44142SOL     OW37110   3.673  10.712   0.255 -0.3996 -0.2087 -0.0810
44142SOL    HW137111   3.611  10.659   0.204 -0.0822 -0.5476 -0.1198
44142SOL    HW237112   3.626  10.793   0.273 -1.3585 -0.9801  1.0577
44143SOL     OW37113   2.235   1.490   2.919  0.4109  0.3226  0.3334
44143SOL    HW137114   2.328   1.514   2.911  0.0764  1.6586  0.3474
44143SOL    HW237115   2.213   1.509   3.010 -0.1453  1.0406  0.0603
44144SOL     OW37116  11.936   6.995  10.327  0.6242 -0.0157 -0.5203
44144SOL    HW137117  11.946   6.903  10.302 -0.7315 -0.5730  0.8206
44144SOL    HW237118  11.983   7.002  10.410  1.1042  0.6241 -0.8445
44145SOL     OW37119   5.520   3.004   4.798 -0.1674 -0.6726 -0.3501
44145SOL    HW137120   5.577   3.080   4.815 -0.0297 -0.9229  0.3575
44145SOL    HW237121   5.436   3.029   4.835  0.1933 -1.3092  0.9547
44146SOL     OW37122   6.664  10.880  11.283  0.3737 -0.2695  0.5365
44146SOL    HW137123   6.655  10.938  11.208  0.5803  0.5728  1.1599
44146SOL    HW237124   6.588  10.821  11.276 -0.8049  1.1481  0.8259
44147SOL     OW37125  11.762  10.313   3.378 -0.5480 -0.0853 -0.1003
44147SOL    HW137126  11.771  10.293   3.285 -2.0384  0.5801 -0.4106
44147SOL    HW237127  11.727  10.402   3.380 -0.5165 -0.0826  1.1072
44148SOL     OW37128   4.248  11.574  11.552  0.1322 -0.0085 -0.1677
44148SOL    HW137129   4.327  11.543  11.597  1.1792  2.1422 -0.3946
44148SOL    HW237130   4.262  11.669  11.542 -1.3173  0.0299 -2.5280
44149SOL     OW37131   8.621   5.700   9.772  0.0009  0.8497  0.5216
44149SOL    HW137132   8.540   5.747   9.795  0.3040  0.6696  2.1185
44149SOL    HW237133   8.661   5.753   9.704 -1.8381  0.5140 -0.9093
44150SOL     OW37134   3.432   0.626  11.430 -0.2310 -0.0389 -0.0353
44150SOL    HW137135   3.364   0.585  11.376 -2.4610  4.5339 -1.2732
44150SOL    HW237136   3.404   0.613  11.520 -0.0562 -2.2107 -0.2506
44151SOL     OW37137   1.877   3.212  11.225 -0.1203 -0.6222 -0.1158
44151SOL    HW137138   1.854   3.218  11.132  0.0994  0.2321 -0.1249
44151SOL    HW237139   1.795   3.229  11.271  0.2260  1.3875 -0.1558
44152SOL     OW37140   2.384   1.436   3.861  0.2878 -0.5153  0.2120
44152SOL    HW137141   2.368   1.505   3.796  0.2165  0.0195  0.7913
44152SOL    HW237142   2.340   1.466   3.940  1.8998 -0.2682  1.0718
44153SOL     OW37143   1.693   4.453   7.813 -0.6105  0.0166  0.1815
44153SOL    HW137144   1.778   4.496   7.803 -0.7135  0.2415  0.2680
44153SOL    HW237145   1.702   4.371   7.765  0.3148 -0.8917  1.8208
44154SOL     OW37146   8.127   9.792  10.720  0.1324 -0.2098  0.4071
44154SOL    HW137147   8.121   9.774  10.626  2.1850  3.1107 -0.5349
44154SOL    HW237148   8.165   9.712  10.757 -1.8282 -2.0538 -1.3059
44155SOL     OW37149   4.250  10.839   3.031  0.1310  0.6681 -0.4102
44155SOL    HW137150   4.207  10.814   2.949 -1.4003 -0.8958  0.7809
44155SOL    HW237151   4.182  10.885   3.081  0.0359 -1.0478  1.1600
44156SOL     OW37152   3.642  10.958   8.871 -0.0484  0.3315  0.4956
44156SOL    HW137153   3.732  10.987   8.888 -0.8898  3.0119  0.6932
44156SOL    HW237154   3.644  10.932   8.778  0.9600  0.1133  0.5565
44157SOL     OW37155   5.893   2.456   0.744  0.5671 -0.7960  0.1314
44157SOL    HW137156   5.952   2.396   0.698 -0.3081 -0.0029 -2.1670
44157SOL    HW237157   5.822   2.401   0.777  2.0408 -1.6214  2.1288
44158SOL     OW37158   2.872  11.760  10.686 -0.1064 -0.0776  0.1039
44158SOL    HW137159   2.956  11.715  10.682 -0.0080  0.1389 -0.3179
44158SOL    HW237160   2.892  11.846  10.722 -0.2734 -0.3139  0.7784
44159SOL     OW37161  11.283   1.932   9.164 -0.5905 -0.0181 -0.2369
44159SOL    HW137162  11.208   1.905   9.111 -0.7816  1.1062 -0.5731
44159SOL    HW237163  11.252   1.927   9.254 -1.1888  0.7377 -0.3874
44160SOL     OW37164   0.596   4.806   8.473 -0.0624 -0.5143  0.1394
44160SOL    HW137165   0.600   4.710   8.466  1.9473 -0.4371 -0.4213
44160SOL    HW237166   0.649   4.837   8.400  0.4444  0.9988  1.1227
44161SOL     OW37167   2.134   9.036   1.085 -0.1260 -0.5682  0.0127
44161SOL    HW137168   2.209   9.002   1.133 -0.7395  1.8715  2.9357
44161SOL    HW237169   2.170   9.062   1.000  1.7223 -1.9040  0.3268
44162SOL     OW37170   1.164   9.410   0.509  0.8398  0.4615  0.2107
44162SOL    HW137171   1.069   9.415   0.511  0.8654  1.0330  0.2033
44162SOL    HW237172   1.185   9.387   0.418  0.6859 -0.2997  0.3653
44163SOL     OW37173   5.547   3.518   7.075  0.2147  0.6730  0.2492
44163SOL    HW137174   5.628   3.552   7.037 -0.5685  2.1195 -0.2255
44163SOL    HW237175   5.527   3.579   7.146  0.1833 -0.3955  1.1820
44164SOL     OW37176   5.531   5.394   1.002  0.6370 -0.3619  0.4748
44164SOL    HW137177   5.536   5.304   1.034  1.2942 -0.4407  0.1688
44164SOL    HW237178   5.459   5.434   1.051 -0.2362 -1.3030  0.0035
44165SOL     OW37179   1.696   8.744  10.666  0.1600  0.2442 -0.1708
44165SOL    HW137180   1.631   8.698  10.613 -1.6540  0.4942  1.7046
44165SOL    HW237181   1.696   8.834  10.632 -0.3657  0.1966 -0.3066
44166SOL     OW37182   7.998   9.985   2.026 -0.3541 -0.1512 -0.1627
44166SOL    HW137183   8.009  10.007   1.934  0.8616 -0.9089 -0.2218
44166SOL    HW237184   8.030   9.895   2.033 -0.5026 -0.1340  0.9855
44167SOL     OW37185   4.667   0.152   8.499  0.1581 -0.5811 -0.0365
44167SOL    HW137186   4.749   0.126   8.458  0.7901  1.0781  0.1256
44167SOL    HW237187   4.652   0.242   8.470 -0.8060 -0.3224  1.1591
44168SOL     OW37188   7.664   2.839  10.843 -0.5280 -0.0672 -0.0405
44168SOL    HW137189   7.753   2.876  10.845 -0.2024 -0.8531  0.4471
44168SOL    HW237190   7.678   2.745  10.832 -1.3625 -0.0060 -2.0880
44169SOL     OW37191   4.718   8.690   2.933 -0.1125  0.9361  0.7339
44169SOL    HW137192   4.786   8.622   2.940  0.4079  1.3788  0.1030
44169SOL    HW237193   4.636   8.642   2.941  0.2200  0.0925 -0.5405
44170SOL     OW37194   7.856  11.857  11.545 -0.0741 -0.4931  0.2896
44170SOL    HW137195   7.874  11.764  11.527  1.6435 -0.0560 -0.4860
44170SOL    HW237196   7.942  11.900  11.536 -1.1872  1.5085 -1.7083
44171SOL     OW37197   5.200   5.279   5.768 -0.4065  0.4629  0.2512
44171SOL    HW137198   5.268   5.333   5.727  0.8801 -0.0509  1.6211
44171SOL    HW237199   5.176   5.328   5.847 -1.0839  0.2513  0.1827
44172SOL     OW37200   0.132   8.353   5.084 -0.2886 -0.2304  0.1534
44172SOL    HW137201   0.216   8.384   5.051 -0.9354  1.3545 -0.0759
44172SOL    HW237202   0.073   8.428   5.075 -1.5889 -1.1303  0.8372
44173SOL     OW37203   8.804   8.159   4.718  0.2338 -0.1498  0.6677
44173SOL    HW137204   8.829   8.074   4.682  1.5302 -0.3049  1.8216
44173SOL    HW237205   8.847   8.223   4.662 -0.8389 -0.2314 -0.2726
44174SOL     OW37206  11.230   9.489   7.730  0.2989  0.2006  0.2687
44174SOL    HW137207  11.325   9.487   7.723  0.3708  1.0937  0.8027
44174SOL    HW237208  11.203   9.552   7.663 -0.0318 -0.9984 -0.7605
44175SOL     OW37209  11.917   4.880   7.500  0.1915  0.0742 -0.0505
44175SOL    HW137210  11.918   4.880   7.596 -2.3448  0.8556  0.0424
44175SOL    HW237211  11.895   4.790   7.476 -4.1582  0.7912  0.4047
44176SOL     OW37212   3.374   0.877  11.334  0.2742  0.0104  0.1124
44176SOL    HW137213   3.279   0.878  11.324 -0.1981  0.6718  3.5314
44176SOL    HW237214   3.397   0.784  11.340 -0.2243 -0.1244 -0.0366
44177SOL     OW37215   6.504  10.046   5.938  0.3316 -0.0452  0.0594
44177SOL    HW137216   6.476  10.130   5.902  1.0435  1.0734  1.9789
44177SOL    HW237217   6.442  10.027   6.008  1.8566  0.4108  1.6145
44178SOL     OW37218   0.178  11.333   3.045 -0.0886  0.4982 -0.2838
44178SOL    HW137219   0.197  11.240   3.032 -0.8474 -0.1562  2.6133
44178SOL    HW237220   0.167  11.368   2.956 -1.9861 -2.6400 -1.4410
44179SOL     OW37221  11.616   7.530   9.721 -0.0437 -0.1196  0.3639
44179SOL    HW137222  11.643   7.549   9.631 -1.1331  1.0799  0.2480
44179SOL    HW237223  11.522   7.548   9.721 -0.3996 -1.7881  1.3234
44180SOL     OW37224   8.966   2.520   0.375 -0.1166  0.0465  0.1692
44180SOL    HW137225   8.898   2.480   0.321  1.7154 -1.2313 -1.2905
44180SOL    HW237226   8.969   2.611   0.346  0.6455 -0.5515 -1.7636
44181SOL     OW37227   9.121   1.543   3.527  0.3371  0.1119 -0.4129
44181SOL    HW137228   9.062   1.482   3.483  0.1437  0.5670 -0.8020
44181SOL    HW237229   9.099   1.536   3.620  0.0124 -0.0799 -0.5042
44182SOL     OW37230   6.067  10.990   5.858  0.1559 -0.3262 -0.1809
44182SOL    HW137231   5.985  10.955   5.894 -0.4308 -0.2450 -1.3729
44182SOL    HW237232   6.059  11.085   5.871 -0.5150 -0.1972 -1.3740
44183SOL     OW37233   6.939   4.969   8.592 -0.2982 -0.3865  0.1348
44183SOL    HW137234   7.019   4.968   8.539  0.7741 -1.1529  1.6788
44183SOL    HW237235   6.937   5.057   8.630 -1.2329  0.2719 -1.3246
44184SOL     OW37236   9.869   1.902   5.450  0.6857  0.3415  0.4934
44184SOL    HW137237   9.899   1.964   5.516 -0.9853  0.4965  1.1329
44184SOL    HW237238   9.871   1.817   5.494  1.0214  0.2209  0.2531
44185SOL     OW37239   6.399   9.818   8.189 -0.2533  0.1383  0.1317
44185SOL    HW137240   6.325   9.761   8.166 -1.6533  1.0076  2.1581
44185SOL    HW237241   6.359   9.904   8.205  1.3544  0.8884  0.2920
44186SOL     OW37242   2.870   9.737   7.626 -0.0480 -0.2577 -0.4523
44186SOL    HW137243   2.805   9.707   7.562 -0.5124 -0.1547 -0.0370
44186SOL    HW237244   2.836   9.706   7.710  0.9622 -1.0772 -0.3334
44187SOL     OW37245   7.198   6.042  10.876 -0.4288  0.1015  0.1492
44187SOL    HW137246   7.156   6.124  10.902  0.8061  0.5668  0.7608
44187SOL    HW237247   7.245   6.063  10.795  0.1807  0.0950  0.4985
44188SOL     OW37248   1.992   8.264   8.424 -0.0608 -0.4119 -0.3327
44188SOL    HW137249   1.952   8.272   8.511 -0.9133 -0.2002 -0.7266
44188SOL    HW237250   1.918   8.274   8.363  0.7764  1.3848 -1.1252
44189SOL     OW37251   4.560   1.043   3.949  0.5726 -0.4333  0.2945
44189SOL    HW137252   4.552   1.027   4.043  0.0509 -3.0938 -0.1241
44189SOL    HW237253   4.471   1.062   3.920  0.1645 -2.5630 -0.0481
44190SOL     OW37254  11.595   9.413   2.471 -0.9316 -0.3254  0.2274
44190SOL    HW137255  11.679   9.383   2.504 -1.9903 -1.2146  2.2456
44190SOL    HW237256  11.576   9.356   2.396 -0.1366 -0.6827  0.2975
44191SOL     OW37257   8.855  11.419  10.489 -0.2287  0.2142  0.2530
44191SOL    HW137258   8.885  11.505  10.462 -0.2857  0.8509  2.1017
44191SOL    HW237259   8.759  11.423  10.483 -0.2088  0.0467 -0.2672
44192SOL     OW37260   8.504   3.908   0.561 -0.3438 -0.1497 -0.0647
44192SOL    HW137261   8.476   3.821   0.591 -1.2447  0.7260  1.7627
44192SOL    HW237262   8.473   3.913   0.470 -1.1660 -1.3532  0.1238
44193SOL     OW37263   3.920   6.246   3.825 -0.0314  0.3453  0.1806
44193SOL    HW137264   3.924   6.184   3.897  1.4572  1.4037  1.0716
44193SOL    HW237265   3.830   6.241   3.794 -0.8011  0.0362  2.2856
44194SOL     OW37266   4.886   8.485   9.752 -0.4177  0.0318 -0.2919
44194SOL    HW137267   4.880   8.528   9.838 -1.4528  0.8554 -0.7611
44194SOL    HW237268   4.844   8.546   9.692 -0.4511 -0.9245 -1.2565
44195SOL     OW37269   0.106   1.870   4.371 -0.3995  0.8692 -0.2153
44195SOL    HW137270   0.066   1.935   4.314  1.2131  1.2256 -1.0036
44195SOL    HW237271   0.116   1.915   4.455 -1.7921  0.7026  0.0591
44196SOL     OW37272   9.923   6.826   0.305 -0.2136  0.9322  0.1828
44196SOL    HW137273  10.009   6.837   0.264 -0.3981  1.3421 -0.0916
44196SOL    HW237274   9.943   6.816   0.398  0.2773 -0.9508 -0.0817
44197SOL     OW37275  11.222   0.449   5.656  0.5007 -0.1783  0.1023
44197SOL    HW137276  11.294   0.473   5.714  1.5650 -3.2035  0.1797
44197SOL    HW237277  11.153   0.419   5.715  1.0549 -1.9058 -0.0779
44198SOL     OW37278   1.978   2.973   7.692 -0.0053 -0.4878  0.1869
44198SOL    HW137279   1.886   2.957   7.711 -0.0113  0.1241  0.6981
44198SOL    HW237280   1.992   2.932   7.606 -0.9164  0.0076 -0.2119
44199SOL     OW37281   7.462   2.115   0.768  0.5462 -0.3994  0.0136
44199SOL    HW137282   7.536   2.086   0.716  0.3974 -0.6511 -0.0592
44199SOL    HW237283   7.386   2.072   0.729  0.2557  0.4600 -0.3957
44200SOL     OW37284   9.145   6.100   3.644 -0.3136 -0.1556  0.0996
44200SOL    HW137285   9.093   6.019   3.651  1.3391 -1.3363 -0.6285
44200SOL    HW237286   9.167   6.122   3.734  0.6646 -1.5280  0.2229
44201SOL     OW37287   9.279  10.569  10.147 -0.1998 -0.5024  0.4639
44201SOL    HW137288   9.291  10.635  10.078 -0.4516  0.5360  1.3949
44201SOL    HW237289   9.190  10.536  10.132 -0.3424 -0.1124  0.4315
44202SOL     OW37290   4.627  10.085   5.645  0.4921  0.0378 -0.2526
44202SOL    HW137291   4.562  10.136   5.597  1.2301  0.7615 -0.4932
44202SOL    HW237292   4.608   9.994   5.621  1.0849  0.3911 -2.2603
44203SOL     OW37293  11.302   0.832  11.349  0.4637 -0.1637 -0.5794
44203SOL    HW137294  11.238   0.786  11.404  0.8957 -0.2156 -0.1118
44203SOL    HW237295  11.257   0.911  11.320 -0.7703 -1.4912 -2.4767
44204SOL     OW37296   1.692   3.734  11.052  0.0164  0.5563  0.4924
44204SOL    HW137297   1.668   3.642  11.062 -0.4805  0.7277  0.9318
44204SOL    HW237298   1.622   3.772  10.999  0.1497  0.7149  0.4263
44205SOL     OW37299   4.007   2.750  10.202  0.3830  0.3932 -0.1878
44205SOL    HW137300   3.938   2.816  10.211 -1.3823 -1.5505  1.5282
44205SOL    HW237301   4.026   2.747  10.108 -3.2326 -0.2408 -1.0420
44206SOL     OW37302   8.590   6.796   0.524 -0.1583 -0.2989  0.4662
44206SOL    HW137303   8.598   6.717   0.578 -1.1234 -0.6685  0.0900
44206SOL    HW237304   8.610   6.766   0.436 -0.3077 -0.0729  0.3555
44207SOL     OW37305   3.416   7.586   5.673  0.9107  0.5020 -0.4093
44207SOL    HW137306   3.328   7.610   5.643  0.5557  0.5970  0.6639
44207SOL    HW237307   3.448   7.526   5.606 -0.1862  0.0542 -0.5642
44208SOL     OW37308  10.180   0.932   6.464 -0.3300  0.4477  0.3945
44208SOL    HW137309  10.197   0.928   6.558  0.9625  0.9531  0.2140
44208SOL    HW237310  10.232   1.006   6.434 -0.3994  0.0412 -0.7889
44209SOL     OW37311   3.518   5.487   8.401  0.1602 -0.4609  0.5336
44209SOL    HW137312   3.559   5.461   8.483 -0.2917  1.4762  1.4166
44209SOL    HW237313   3.568   5.563   8.372 -1.6441  0.8581  0.7106
44210SOL     OW37314   9.293   1.465  11.399  0.1625 -0.3336  0.0392
44210SOL    HW137315   9.281   1.383  11.351 -0.1304  0.4491 -1.2598
44210SOL    HW237316   9.205   1.500  11.410  0.1516 -0.8183  1.7671
44211SOL     OW37317   4.459   2.322   8.732 -0.5188 -0.1121  0.4282
44211SOL    HW137318   4.371   2.322   8.694 -0.2302 -1.5548 -0.2668
44211SOL    HW237319   4.453   2.385   8.804 -1.8484  0.5363 -0.2135
44212SOL     OW37320   8.466   9.069   1.220 -0.3818  0.1031  0.3328
44212SOL    HW137321   8.390   9.120   1.193 -0.9624 -0.6030  0.5884
44212SOL    HW237322   8.532   9.086   1.152 -0.8417  0.5523 -0.0063
44213SOL     OW37323   5.067   0.114  10.730 -0.0016  0.2445  0.1331
44213SOL    HW137324   5.031   0.038  10.777  1.2007 -0.1767  0.4086
44213SOL    HW237325   5.050   0.188  10.788  0.5553 -0.1172  0.7753
44214SOL     OW37326   7.957  11.770  10.158 -0.0973 -0.3822  0.4511
44214SOL    HW137327   7.943  11.862  10.179 -0.5219 -0.1313 -0.8462
44214SOL    HW237328   8.050  11.764  10.135  0.0244 -0.3664  0.9308
44215SOL     OW37329   8.626   3.694   9.376  0.1136 -0.2314  0.4960
44215SOL    HW137330   8.543   3.702   9.331  0.0887 -2.0406  0.1227
44215SOL    HW237331   8.618   3.612   9.426  0.0683  1.7106  3.9744
44216SOL     OW37332   0.319   8.289   7.109  0.2529 -0.0644 -0.3602
44216SOL    HW137333   0.397   8.318   7.155 -1.4584  2.1221  1.4181
44216SOL    HW237334   0.351   8.232   7.040  3.2003 -0.9881  1.6153
44217SOL     OW37335  10.721   7.709   5.706  0.4906 -0.3873  0.3639
44217SOL    HW137336  10.807   7.746   5.725 -0.1512  1.0330  0.6106
44217SOL    HW237337  10.738   7.615   5.695  2.1844 -0.0374 -0.4073
44218SOL     OW37338  10.653   5.705   0.944 -0.3354 -0.1957  0.2402
44218SOL    HW137339  10.711   5.780   0.930  0.0917 -0.5702 -0.0676
44218SOL    HW237340  10.620   5.684   0.856 -0.7354 -0.1466  0.3771
44219SOL     OW37341   8.622   7.864   2.430 -0.3300  0.3994 -0.2129
44219SOL    HW137342   8.691   7.911   2.383 -2.6971  2.6813 -1.6848
44219SOL    HW237343   8.543   7.877   2.377 -2.1808 -1.0365  1.9697
44220SOL     OW37344   6.909   8.786   5.248 -0.2730 -0.6500  0.5867
44220SOL    HW137345   6.974   8.814   5.313  0.8648  0.0284 -0.7758
44220SOL    HW237346   6.847   8.858   5.243 -0.0262 -0.4438  0.4954
44221SOL     OW37347   3.407   7.369   9.439  0.3396 -0.1967 -0.0745
44221SOL    HW137348   3.466   7.413   9.500 -0.6375 -0.3962  1.0389
44221SOL    HW237349   3.365   7.301   9.491 -2.0683  0.9453 -0.3962
44222SOL     OW37350   3.073   6.630  10.144 -0.5239  0.3298  0.1508
44222SOL    HW137351   3.073   6.653  10.051 -0.0512 -0.4645 -0.0518
44222SOL    HW237352   2.987   6.659  10.176  0.1379  2.7108  0.0154
44223SOL     OW37353   0.216   5.266   0.708  0.8306  0.9588 -0.1830
44223SOL    HW137354   0.191   5.175   0.694  0.5147  1.4150 -3.3645
44223SOL    HW237355   0.303   5.262   0.749  0.4151 -0.7081  0.6193
44224SOL     OW37356   4.882   7.392   5.771 -0.7330 -0.1979  0.1308
44224SOL    HW137357   4.948   7.405   5.840  1.1240  0.2293 -1.6340
44224SOL    HW237358   4.825   7.469   5.778  0.8452  1.0530 -0.2777
44225SOL     OW37359   2.767  11.862   0.577  0.0380 -0.3899 -0.1559
44225SOL    HW137360   2.678  11.879   0.607  0.6282  0.5987  1.1872
44225SOL    HW237361   2.762  11.779   0.530 -1.6224 -0.2163 -0.3270
44226SOL     OW37362   0.844   6.951   8.537  0.4398  0.2495  0.3534
44226SOL    HW137363   0.778   6.890   8.572  1.3458 -0.3491  1.0770
44226SOL    HW237364   0.923   6.933   8.589  0.7384  2.0571  0.6032
44227SOL     OW37365   2.228  10.230   4.756  0.4951  0.0399  0.0768
44227SOL    HW137366   2.150  10.286   4.759  0.6684  0.2700  0.3189
44227SOL    HW237367   2.218  10.180   4.675  0.1896  0.2069  0.0086
44228SOL     OW37368   8.993   0.857  11.548 -0.4890 -0.4317 -0.2217
44228SOL    HW137369   9.037   0.824  11.626  1.9169 -1.6915 -1.9948
44228SOL    HW237370   8.986   0.782  11.491 -0.2206  0.8885 -2.0792
44229SOL     OW37371  10.572   3.691   6.913 -0.1502 -0.3103 -0.5487
44229SOL    HW137372  10.603   3.757   6.851 -0.2196  0.1425 -0.1090
44229SOL    HW237373  10.490   3.728   6.948  0.1728 -0.3012  0.2198
44230SOL     OW37374   0.426   3.768   2.148  0.3765  0.2628  0.0024
44230SOL    HW137375   0.409   3.821   2.226 -0.8546 -0.2951  0.1344
44230SOL    HW237376   0.521   3.758   2.146  0.6209  2.1220  0.1963
44231SOL     OW37377   3.611   2.411   6.095 -0.3896 -0.1786 -0.3425
44231SOL    HW137378   3.663   2.353   6.150  0.7949  1.3013  0.1550
44231SOL    HW237379   3.674   2.473   6.058 -1.4901  0.2947 -1.5351
44232SOL     OW37380   1.580   8.525   1.016  0.0062 -0.7791  0.0105
44232SOL    HW137381   1.606   8.581   0.943 -0.8312 -0.6134 -0.1772
44232SOL    HW237382   1.611   8.571   1.094  0.6231 -0.7986 -0.2220
44233SOL     OW37383   0.084   2.043   7.031  0.3939  0.1703  0.3661
44233SOL    HW137384   0.126   1.980   7.089 -0.2521 -0.6174  0.0004
44233SOL    HW237385   0.002   2.066   7.075  0.7008  0.8925  0.5758
44234SOL     OW37386   9.857   0.078   9.502  0.1102 -0.4727 -0.5459
44234SOL    HW137387   9.894  -0.004   9.535 -0.6311 -1.4438 -2.0257
44234SOL    HW237388   9.762   0.062   9.499 -0.2390  1.1082  0.8864
44235SOL     OW37389   8.034   7.128   7.620  0.3202  0.2582  0.2001
44235SOL    HW137390   8.099   7.089   7.678 -0.0973  0.7676  1.0200
44235SOL    HW237391   8.010   7.210   7.661 -2.1783 -0.7341  0.9127
44236SOL     OW37392  10.292   4.546   2.160  0.0315  0.5237 -0.2168
44236SOL    HW137393  10.349   4.623   2.161  2.6415 -1.2846 -0.2965
44236SOL    HW237394  10.283   4.523   2.068  1.8926 -1.0028 -0.0768
44237SOL     OW37395   6.335   7.473   2.269 -0.4897 -0.7239  0.0339
44237SOL    HW137396   6.388   7.551   2.259 -0.1081 -0.7270  1.7510
44237SOL    HW237397   6.247   7.506   2.286 -0.3522 -0.6616  0.6386
44238SOL     OW37398   6.811   2.070   8.890  0.3192  0.0463  0.3626
44238SOL    HW137399   6.779   2.027   8.811 -1.8007  0.8142  0.7528
44238SOL    HW237400   6.741   2.058   8.954  1.3656  0.7107  1.6853
44239SOL     OW37401   6.034   9.242   4.571 -0.5212  0.3656  0.3511
44239SOL    HW137402   6.126   9.228   4.548 -0.6496  1.7531 -1.1772
44239SOL    HW237403   6.011   9.325   4.531 -2.5215 -0.0316  0.5387
44240SOL     OW37404   5.865   3.009  11.725  0.4220 -0.3330 -0.4143
44240SOL    HW137405   5.801   2.943  11.698  1.7813 -2.2429  0.7896
44240SOL    HW237406   5.855   3.014  11.820  2.1789 -0.8517 -0.1776
44241SOL     OW37407   3.623   0.093   3.029 -0.0523 -0.5540  0.2878
44241SOL    HW137408   3.648   0.050   2.947 -1.8990  0.0935 -0.6636
44241SOL    HW237409   3.544   0.047   3.058 -1.4201  1.4136 -0.1619
44242SOL     OW37410   8.115   9.504   8.663 -0.0974  0.2196 -0.1055
44242SOL    HW137411   8.188   9.538   8.610  1.6253  1.6876  2.9433
44242SOL    HW237412   8.157   9.465   8.740 -2.4484 -2.3252  0.0448
44243SOL     OW37413   7.713   1.706   6.809 -0.6555  0.4887 -0.4880
44243SOL    HW137414   7.766   1.715   6.730  0.0627  0.5855 -0.0002
44243SOL    HW237415   7.765   1.745   6.879 -1.1438  0.1291  0.0964
44244SOL     OW37416   8.992  10.878   2.947 -0.0905 -0.3410  0.1718
44244SOL    HW137417   8.965  10.789   2.925 -2.1052  0.2310  0.0933
44244SOL    HW237418   8.933  10.934   2.898  1.1884  1.0675  0.1587
44245SOL     OW37419  11.241  10.400   5.608 -0.3599  0.5621  0.0641
44245SOL    HW137420  11.149  10.381   5.590 -0.9068  0.5502  2.6181
44245SOL    HW237421  11.252  10.491   5.579 -1.6127  1.0829  1.1438
44246SOL     OW37422   0.870   3.635   0.356 -0.5131 -0.1650  0.1592
44246SOL    HW137423   0.958   3.597   0.358  0.2015  1.4011  0.3716
44246SOL    HW237424   0.883   3.726   0.384 -2.3103 -0.0968  0.9307
44247SOL     OW37425   3.098   8.455   4.163 -1.0020 -0.9876 -0.1189
44247SOL    HW137426   3.157   8.464   4.088  0.0605 -0.8453  0.7094
44247SOL    HW237427   3.143   8.500   4.234 -2.4059 -0.3409  0.3956
44248SOL     OW37428   8.414   7.636   6.946 -0.1224  0.1013 -0.0423
44248SOL    HW137429   8.432   7.550   6.983 -1.3946  0.2246  0.9445
44248SOL    HW237430   8.341   7.670   6.998  0.6549  1.9871 -0.0769
44249SOL     OW37431   9.981   0.622   9.770  0.0307  0.2663  0.1419
44249SOL    HW137432   9.940   0.587   9.690 -1.5432  1.7949  0.2104
44249SOL    HW237433  10.052   0.562   9.789  0.8477  0.1725 -2.7641
44250SOL     OW37434   3.715  11.710   1.493  0.4492 -0.3298 -0.2345
44250SOL    HW137435   3.623  11.695   1.471  0.0728  0.9451  0.3693
44250SOL    HW237436   3.762  11.699   1.410 -0.6505  2.2186 -1.2758
44251SOL     OW37437   0.472   6.932   8.435  0.1215  0.0074 -0.4216
44251SOL    HW137438   0.533   6.893   8.498 -0.2119  0.9904  0.5270
44251SOL    HW237439   0.527   6.953   8.359  0.3789 -1.9134 -0.8264
44252SOL     OW37440   4.807   8.842   2.242 -0.2069 -0.4690 -0.0682
44252SOL    HW137441   4.794   8.897   2.319 -0.6538 -1.0506  0.2830
44252SOL    HW237442   4.802   8.902   2.168 -1.3647 -0.1224  0.2639
44253SOL     OW37443   9.239  10.465   9.518  0.2062 -0.4178  0.1588
44253SOL    HW137444   9.280  10.456   9.604  0.8512  0.9654  0.0055
44253SOL    HW237445   9.187  10.545   9.524 -0.6902 -0.9337 -0.3857
44254SOL     OW37446   1.955   4.329   3.056 -0.3703 -0.3853  0.5560
44254SOL    HW137447   2.004   4.257   3.016  1.0110  0.8471 -0.0543
44254SOL    HW237448   1.901   4.364   2.985  1.4999  1.3028 -0.1149
44255SOL     OW37449  11.220   8.251   3.462  0.6188 -0.1515  0.1966
44255SOL    HW137450  11.263   8.270   3.379 -0.5468 -3.7058 -1.4080
44255SOL    HW237451  11.273   8.296   3.527  3.8064 -0.2332 -2.1097
44256SOL     OW37452   7.605   2.315   1.534 -0.6398  0.3349 -0.2378
44256SOL    HW137453   7.517   2.281   1.519 -0.6185  0.3241 -0.3392
44256SOL    HW237454   7.610   2.394   1.479 -1.0868  1.1478  0.8544
44257SOL     OW37455   6.537   7.612   5.637  0.4208 -0.1353  0.2302
44257SOL    HW137456   6.475   7.642   5.570  1.1218 -0.8597 -0.7695
44257SOL    HW237457   6.580   7.693   5.666  0.7908  0.0926 -0.9035
44258SOL     OW37458  10.829   8.559   1.470 -0.2069 -0.0436 -0.2027
44258SOL    HW137459  10.853   8.640   1.425 -1.5710  1.1981  1.1599
44258SOL    HW237460  10.786   8.505   1.403  0.5042  0.4588 -1.0749
44259SOL     OW37461   3.329   5.309   0.432 -0.0963  0.4517  0.5375
44259SOL    HW137462   3.325   5.254   0.353 -0.9438  0.2792  0.6909
44259SOL    HW237463   3.417   5.294   0.467  0.5747  1.1097 -0.7772
44260SOL     OW37464  11.833   3.258   7.101  0.0205 -0.1282 -0.2284
44260SOL    HW137465  11.760   3.201   7.077 -0.1158  0.1320 -0.4363
44260SOL    HW237466  11.843   3.317   7.026 -0.6563  0.9352  0.4787
44261SOL     OW37467   4.278   9.323   9.550  0.2243  0.2258  0.7393
44261SOL    HW137468   4.299   9.269   9.475  3.6640 -1.4369  2.6777
44261SOL    HW237469   4.189   9.297   9.575 -0.0316 -0.9555 -1.2263
44262SOL     OW37470   5.959   3.110   8.070 -0.1788  0.5283 -0.7634
44262SOL    HW137471   5.952   3.061   7.988 -0.8777 -0.2013 -0.2927
44262SOL    HW237472   5.868   3.124   8.097  0.0356 -0.2067  0.4251
44263SOL     OW37473   3.826   4.022   9.179 -0.1052  0.3753  0.3983
44263SOL    HW137474   3.754   4.021   9.241  0.6275  0.4053  1.2714
44263SOL    HW237475   3.866   4.108   9.190 -0.9148  1.0145 -1.2710
44264SOL     OW37476   0.624   2.562   9.982 -0.2573  0.2996 -0.3170
44264SOL    HW137477   0.547   2.613  10.008  0.2548  1.0473 -0.2378
44264SOL    HW237478   0.698   2.623   9.991  0.0525  0.3932 -2.8456
44265SOL     OW37479   0.429   6.874  10.405 -0.1832  0.6961  0.1667
44265SOL    HW137480   0.495   6.861  10.337 -0.1420  1.4740  0.0471
44265SOL    HW237481   0.405   6.966  10.397 -1.1182  0.4765  0.3587
44266SOL     OW37482   0.520   5.336   6.737  0.2388 -0.1010 -0.2859
44266SOL    HW137483   0.544   5.384   6.658 -0.9572 -0.9298 -1.1952
44266SOL    HW237484   0.523   5.244   6.711  3.5407 -0.7225  1.7034
44267SOL     OW37485   2.579  10.218  11.748 -0.5895 -0.3849 -0.2659
44267SOL    HW137486   2.533  10.191  11.668 -1.3934 -0.1860  0.1147
44267SOL    HW237487   2.591  10.137  11.797 -0.5980 -0.4279 -0.3352
44268SOL     OW37488   8.585   6.752   7.331 -0.2647 -0.0299  0.3652
44268SOL    HW137489   8.542   6.836   7.347 -0.0385  0.2776 -0.5681
44268SOL    HW237490   8.677   6.768   7.352 -0.3827 -0.3185  1.1073
44269SOL     OW37491   8.818  11.888   8.368 -0.2870 -0.2007  0.2853
44269SOL    HW137492   8.850  11.978   8.360  2.5297 -1.1986 -1.3684
44269SOL    HW237493   8.816  11.856   8.278  0.3461 -2.2345  0.9453
44270SOL     OW37494   8.067  10.847   8.273 -0.8958 -0.6607  0.0658
44270SOL    HW137495   8.050  10.754   8.289 -0.9663 -1.0960 -2.2300
44270SOL    HW237496   8.161  10.851   8.255 -0.5924 -0.0112  1.6302
44271SOL     OW37497   7.400   2.959   1.515  0.0211 -0.6639  0.5456
44271SOL    HW137498   7.319   2.950   1.565 -0.4601  1.3067  0.2334
44271SOL    HW237499   7.383   3.034   1.457  1.2625 -1.6497 -1.1625
44272SOL     OW37500   9.270   5.050  11.298 -0.3899 -0.3122  0.5245
44272SOL    HW137501   9.287   5.129  11.246 -0.6336 -1.8322 -2.0060
44272SOL    HW237502   9.176   5.053  11.316 -0.2560  0.3600  1.2221
44273SOL     OW37503   7.587   4.056   8.291  0.2529  0.4233 -0.6007
44273SOL    HW137504   7.563   4.069   8.382 -0.1221  0.5310 -0.7139
44273SOL    HW237505   7.563   3.965   8.273 -0.1194  0.5467 -0.7288
44274SOL     OW37506   1.020   6.768   8.139 -0.4957  0.5721  0.4694
44274SOL    HW137507   0.986   6.856   8.127 -0.4635  0.6221  0.7243
44274SOL    HW237508   1.026   6.757   8.234 -2.1176 -0.3319  0.4958
44275SOL     OW37509   1.737  11.715   9.937  0.4285 -0.1574 -0.5979
44275SOL    HW137510   1.819  11.677   9.905  0.9344  0.9513 -0.6658
44275SOL    HW237511   1.742  11.707  10.032  0.8700  0.3787 -0.5690
44276SOL     OW37512   7.269   6.470   0.278 -0.2936  0.3563  0.1775
44276SOL    HW137513   7.201   6.481   0.211 -2.0654 -1.6728  1.5031
44276SOL    HW237514   7.285   6.375   0.280  1.6687  0.6633  0.8224
44277SOL     OW37515   2.897   6.325   5.661  0.5375 -0.2078  0.0362
44277SOL    HW137516   2.810   6.336   5.622  0.8101 -1.3169 -0.9386
44277SOL    HW237517   2.879   6.306   5.753 -0.1181  2.3693  0.5318
44278SOL     OW37518  10.388   2.629   1.466  0.0103 -0.4621 -0.0329
44278SOL    HW137519  10.387   2.626   1.370  0.2064 -3.1702 -0.0286
44278SOL    HW237520  10.342   2.550   1.493  0.7201 -0.2090  2.1185
44279SOL     OW37521   2.631   1.001   3.487 -0.1834  0.2396  0.0015
44279SOL    HW137522   2.681   0.932   3.532  2.5410  2.2142  0.2774
44279SOL    HW237523   2.586   1.047   3.557 -0.5515 -0.1458  0.0223
44280SOL     OW37524  10.891   5.727  11.848  0.2740  0.0470  0.0289
44280SOL    HW137525  10.948   5.743  11.923 -1.3356  0.3545  1.2171
44280SOL    HW237526  10.802   5.734  11.882 -0.5131 -1.1862 -1.6221
44281SOL     OW37527   2.012   4.574   4.241  0.3626 -0.4805 -0.2528
44281SOL    HW137528   1.955   4.504   4.209  1.2886 -1.1978 -0.3943
44281SOL    HW237529   1.961   4.617   4.309 -0.0509 -1.6212  0.1895
44282SOL     OW37530   4.601   2.374  10.573  0.2741  0.1993  0.1122
44282SOL    HW137531   4.571   2.432  10.643  0.3892 -1.8063  1.9148
44282SOL    HW237532   4.537   2.386  10.503 -0.9915  0.8140  1.3344
44283SOL     OW37533   4.513   9.649   3.710 -0.2277 -0.2927  0.5845
44283SOL    HW137534   4.514   9.557   3.683  1.5165  0.0854 -0.8056
44283SOL    HW237535   4.540   9.647   3.802  1.6932 -1.0826  0.0522
44284SOL     OW37536   7.356   8.033   9.353 -0.2491 -0.4030  0.7040
44284SOL    HW137537   7.413   8.085   9.410  0.8940  0.7121 -1.3541
44284SOL    HW237538   7.408   7.956   9.332  0.6269  0.6410 -1.2201
44285SOL     OW37539   2.285  11.424  11.151 -0.3874  0.0478 -0.0594
44285SOL    HW137540   2.264  11.497  11.093 -0.6894 -0.3233 -0.4186
44285SOL    HW237541   2.343  11.368  11.101 -0.5550 -0.2148  0.0361
44286SOL     OW37542   9.429   0.162   8.387 -0.2799  0.2526 -0.3544
44286SOL    HW137543   9.396   0.185   8.473 -1.1601 -2.8069  0.2526
44286SOL    HW237544   9.431   0.244   8.339 -1.4270  1.7690  2.0269
44287SOL     OW37545   6.265   0.401   2.223 -0.1862 -0.3122 -0.2046
44287SOL    HW137546   6.281   0.489   2.256 -0.4142  0.7978 -2.8411
44287SOL    HW237547   6.180   0.406   2.180 -0.0612 -1.7605 -0.6929
44288SOL     OW37548   7.615   2.792   6.593 -0.2516  0.2808 -0.2572
44288SOL    HW137549   7.558   2.793   6.516  0.9154  1.6989 -1.1390
44288SOL    HW237550   7.703   2.785   6.558  0.2171 -1.3180  1.0681
44289SOL     OW37551   4.446   3.161   9.190  0.5529  0.1207 -0.3731
44289SOL    HW137552   4.502   3.234   9.216  0.6097 -0.2125  0.4805
44289SOL    HW237553   4.463   3.094   9.256 -0.1585 -0.3322 -0.6446
44290SOL     OW37554   2.335   5.247   7.403 -0.3745  0.3058  0.6058
44290SOL    HW137555   2.426   5.225   7.422 -0.4525 -0.0680  0.5458
44290SOL    HW237556   2.321   5.219   7.313 -0.2798  1.2222  0.2889
44291SOL     OW37557   4.533   8.584   9.767 -0.3052  0.1934 -0.2921
44291SOL    HW137558   4.448   8.551   9.796 -0.1504 -0.1797 -0.2667
44291SOL    HW237559   4.542   8.668   9.812 -1.2558  0.8806 -1.3171
44292SOL     OW37560   2.485   0.239   5.292 -0.1754  0.4282 -0.2154
44292SOL    HW137561   2.541   0.297   5.343 -1.8597  0.8841  1.2395
44292SOL    HW237562   2.418   0.297   5.255  0.2227 -0.1015 -1.8543
44293SOL     OW37563   1.625   5.661   2.151 -0.2808  0.3028  0.0293
44293SOL    HW137564   1.673   5.691   2.073 -0.5224  0.3834 -0.0918
44293SOL    HW237565   1.678   5.590   2.186  0.5318  1.1445  0.5660
44294SOL     OW37566   8.989   5.829   3.139  0.1494 -0.8405 -0.0391
44294SOL    HW137567   9.048   5.826   3.215 -0.4348 -1.4650  0.3979
44294SOL    HW237568   9.034   5.776   3.073  0.4512 -0.6582  0.0153
44295SOL     OW37569   1.215   0.449  10.176 -0.0662 -0.4734 -0.2974
44295SOL    HW137570   1.131   0.419  10.212 -1.7540  1.6689 -2.2114
44295SOL    HW237571   1.213   0.422  10.084  2.7953 -3.0561  0.2065
44296SOL     OW37572   4.598   9.966  11.891 -0.4305 -0.4703  0.0291
44296SOL    HW137573   4.505   9.970  11.913 -0.1274  0.3641  1.3081
44296SOL    HW237574   4.610   9.880  11.851 -1.8494 -0.3630 -0.6837
44297SOL     OW37575   6.784   8.515   1.764  0.0830 -0.0114 -0.3323
44297SOL    HW137576   6.869   8.483   1.733 -0.8130 -0.4527 -2.5689
44297SOL    HW237577   6.794   8.610   1.768  0.8573 -0.0998  0.0149
44298SOL     OW37578  10.620   6.299   7.477  0.0036 -0.7362 -0.5037
44298SOL    HW137579  10.541   6.292   7.531 -0.1754  0.6431 -0.5432
44298SOL    HW237580  10.591   6.276   7.389 -0.4818  0.2703 -0.6115
44299SOL     OW37581   5.310   1.713   8.766 -0.0523  0.0310 -0.5223
44299SOL    HW137582   5.401   1.729   8.791 -0.4747  0.4873  0.8446
44299SOL    HW237583   5.309   1.625   8.730  1.1520  0.5146 -1.7950
44300SOL     OW37584   2.785   1.342   2.387  0.1052  0.1628  0.0018
44300SOL    HW137585   2.835   1.409   2.340 -0.6187 -0.3126 -1.5021
44300SOL    HW237586   2.853   1.285   2.425  0.7138  0.7567 -0.1637
44301SOL     OW37587   0.883   8.082   6.257  0.5905  0.4480 -0.1843
44301SOL    HW137588   0.934   8.160   6.235  0.8182  0.0533 -1.0699
44301SOL    HW237589   0.815   8.114   6.316  0.7124  1.3086 -0.4966
44302SOL     OW37590   1.777   4.965   7.368  0.1524 -0.2931 -0.0680
44302SOL    HW137591   1.840   5.010   7.425  0.8366  0.3607 -1.2910
44302SOL    HW237592   1.828   4.895   7.327 -0.1792 -0.3855 -0.3213
44303SOL     OW37593   0.791   0.319  11.719  0.0385 -0.1179 -0.2988
44303SOL    HW137594   0.852   0.384  11.686  0.1147  0.9752  1.8022
44303SOL    HW237595   0.742   0.289  11.642  0.3860  2.0024 -1.4026
44304SOL     OW37596   0.783   2.413   2.284 -0.6174 -0.3145  0.2709
44304SOL    HW137597   0.794   2.500   2.324 -0.5061  1.0367 -2.4504
44304SOL    HW237598   0.872   2.380   2.274 -0.5477  0.0224 -0.2314
44305SOL     OW37599   2.584   7.157   0.202 -0.2720 -0.4606  0.0784
44305SOL    HW137600   2.675   7.187   0.204 -0.5092  0.3358 -0.6967
44305SOL    HW237601   2.591   7.064   0.178  0.3069 -0.2804 -0.4757
44306SOL     OW37602   0.209   6.911   8.370  0.1135 -0.3548 -0.2130
44306SOL    HW137603   0.296   6.913   8.408 -0.3275 -0.1531  0.8053
44306SOL    HW237604   0.216   6.965   8.291  0.0582  2.8267  1.7623
44307SOL     OW37605   0.884   4.147   0.225  0.3522  0.7611  0.4522
44307SOL    HW137606   0.874   4.074   0.164  0.1674  0.6764  0.5852
44307SOL    HW237607   0.978   4.161   0.230  0.3229  1.6277 -0.8820
44308SOL     OW37608   2.018   7.765   7.737  0.2039 -0.5780  0.0937
44308SOL    HW137609   2.099   7.715   7.743  0.1469 -0.9112 -1.4428
44308SOL    HW237610   1.967   7.739   7.814  0.5986 -2.1444 -0.1455
44309SOL     OW37611   2.349   4.305   5.921 -0.0509  0.7653 -0.5105
44309SOL    HW137612   2.274   4.338   5.970 -0.5936  0.3198 -1.0210
44309SOL    HW237613   2.311   4.267   5.842  0.7018  0.3979 -0.7060
44310SOL     OW37614   1.370   2.702   1.241  0.0169 -0.0030  0.2929
44310SOL    HW137615   1.375   2.693   1.336  3.2274  0.4914  0.2793
44310SOL    HW237616   1.356   2.795   1.226  1.6502  0.2905  0.3504
44311SOL     OW37617   0.126   6.422   0.220  0.0041  0.3405  0.7139
44311SOL    HW137618   0.186   6.422   0.295 -1.2671  2.1252  1.8210
44311SOL    HW237619   0.174   6.469   0.152  0.8950 -0.6656  0.6127
44312SOL     OW37620   3.776   8.165   4.952  0.3163 -0.3152 -0.6806
44312SOL    HW137621   3.746   8.205   5.033 -1.1475 -2.0059 -0.3152
44312SOL    HW237622   3.869   8.147   4.967  0.3031  0.3073  0.2155
44313SOL     OW37623  10.709   4.198   6.616  0.5500 -0.0816 -0.3011
44313SOL    HW137624  10.666   4.255   6.553 -0.2308 -1.4558 -1.0560
44313SOL    HW237625  10.713   4.113   6.573 -0.6984 -1.2764  1.7777
44314SOL     OW37626   5.282   5.399  10.382  0.2076 -0.4079 -0.5420
44314SOL    HW137627   5.344   5.338  10.421  1.6101 -0.0078 -2.0192
44314SOL    HW237628   5.197   5.375  10.419  1.3232 -0.3008  2.4133
44315SOL     OW37629   4.589  11.901   6.177  0.3337 -0.8263 -0.0213
44315SOL    HW137630   4.650  11.961   6.220  0.5989 -1.3637  0.3559
44315SOL    HW237631   4.540  11.861   6.249  0.4355 -1.3627 -0.2484
44316SOL     OW37632   0.713   6.534   6.225 -0.1543  0.0124  0.0193
44316SOL    HW137633   0.673   6.549   6.310  0.5327  0.0919  0.3342
44316SOL    HW237634   0.739   6.442   6.226  1.2346  0.3820  0.5075
44317SOL     OW37635   6.319   9.383   2.648  0.1735  0.1179 -0.4682
44317SOL    HW137636   6.395   9.363   2.703  0.7520  0.3732 -1.1594
44317SOL    HW237637   6.348   9.363   2.559 -1.0391 -1.0910 -0.6144
44318SOL     OW37638   4.837   4.718   3.537 -0.7037 -0.2610  0.0303
44318SOL    HW137639   4.746   4.689   3.543 -0.7612 -0.2040 -0.5012
44318SOL    HW237640   4.858   4.751   3.624 -1.2856 -0.0027  0.0748
44319SOL     OW37641  10.462   3.370   0.782 -0.1181 -0.2834  0.0822
44319SOL    HW137642  10.408   3.448   0.771  1.4882  0.9518  0.4728
44319SOL    HW237643  10.400   3.298   0.795 -1.6300  1.0376  0.3979
44320SOL     OW37644  10.654   8.731   0.701 -0.4821  0.1579 -0.6612
44320SOL    HW137645  10.709   8.791   0.651 -0.4712  0.1287 -0.6853
44320SOL    HW237646  10.581   8.711   0.643  1.1299 -2.4595 -2.0246
44321SOL     OW37647   9.203  11.275  11.710  0.1671 -0.2223  0.6210
44321SOL    HW137648   9.131  11.249  11.652  0.1867  1.1648 -0.0927
44321SOL    HW237649   9.174  11.251  11.798 -1.0809  0.0921  0.3135
44322SOL     OW37650   6.330   8.783   6.888 -0.2045 -0.7623 -1.5144
44322SOL    HW137651   6.266   8.854   6.892 -0.1004 -0.7028 -0.4929
44322SOL    HW237652   6.371   8.791   6.802 -0.8450 -0.1606 -1.7650
44323SOL     OW37653   6.457   1.902   8.181  0.4390  0.3098  0.6457
44323SOL    HW137654   6.429   1.924   8.269  0.6605  1.3981  0.4571
44323SOL    HW237655   6.461   1.806   8.180 -0.9603  0.2176  1.3692
44324SOL     OW37656  10.746   5.420   9.285 -0.1093 -1.0223 -0.2215
44324SOL    HW137657  10.787   5.458   9.362  0.7934  0.0174 -1.1859
44324SOL    HW237658  10.680   5.483   9.258  0.6726 -0.6007 -1.2133
44325SOL     OW37659   8.193   1.636   0.940  0.0043  0.1107  0.0444
44325SOL    HW137660   8.115   1.595   0.902  0.2926 -0.8626  0.4711
44325SOL    HW237661   8.254   1.643   0.867 -0.7158  1.5648 -0.4702
44326SOL     OW37662   2.072   0.516   9.970 -0.1977 -0.6945  0.7771
44326SOL    HW137663   2.161   0.517   9.934 -0.1014  1.2442  0.9728
44326SOL    HW237664   2.083   0.493  10.062  0.3559  1.2567  1.2556
44327SOL     OW37665  10.974   4.373  10.400  0.1853  0.1975 -0.0919
44327SOL    HW137666  10.911   4.438  10.431  1.3822  1.2057  0.3180
44327SOL    HW237667  10.991   4.398  10.309  1.1699  0.9228  0.2704
44328SOL     OW37668   7.601   7.384  11.380 -0.4402  0.0742  0.2727
44328SOL    HW137669   7.534   7.340  11.328 -0.6206 -0.9193  1.3091
44328SOL    HW237670   7.677   7.326  11.375  0.1832  0.9314 -0.4558
44329SOL     OW37671   5.562   5.627   1.602  0.0680  0.2537  0.2002
44329SOL    HW137672   5.655   5.651   1.597 -0.2562  1.5409 -0.0583
44329SOL    HW237673   5.549   5.570   1.527  1.1036 -1.6962  1.4182
44330SOL     OW37674   0.820   8.364   4.364  0.2547 -0.2635  0.0327
44330SOL    HW137675   0.809   8.270   4.380 -0.9429 -0.3244 -0.9600
44330SOL    HW237676   0.734   8.393   4.333  0.6635  1.1215  0.1326
44331SOL     OW37677   9.205   6.629   3.943 -0.6373  0.1155  0.2525
44331SOL    HW137678   9.138   6.629   4.012 -0.0141 -0.0023  0.8646
44331SOL    HW237679   9.164   6.675   3.870 -2.2411 -1.9026 -0.2200
44332SOL     OW37680   1.564   1.495   2.793  0.2784  0.2434  0.1911
44332SOL    HW137681   1.638   1.500   2.854  0.2622  1.8830  0.1174
44332SOL    HW237682   1.513   1.574   2.811 -1.2480 -0.6529 -0.0463
44333SOL     OW37683   8.399   3.279   8.429 -0.0626 -0.0341  0.3737
44333SOL    HW137684   8.451   3.234   8.496 -0.0869  0.4862  0.7456
44333SOL    HW237685   8.422   3.371   8.440 -0.5195  0.1169  0.0562
44334SOL     OW37686   7.879   3.818   7.260  0.8206  0.6283 -0.2333
44334SOL    HW137687   7.952   3.827   7.322  0.1040  0.4935  0.6550
44334SOL    HW237688   7.869   3.723   7.250  0.3037  0.6280  0.2278
44335SOL     OW37689   9.775   8.110   2.553  0.3462  0.1115  0.1424
44335SOL    HW137690   9.810   8.189   2.596  1.8014 -1.1790  1.4536
44335SOL    HW237691   9.683   8.108   2.578  0.3831  1.1896  0.4264
44336SOL     OW37692   4.524   4.851   7.224 -0.4833 -0.5177  0.1394
44336SOL    HW137693   4.547   4.933   7.180 -0.7514 -1.1575 -1.2445
44336SOL    HW237694   4.534   4.871   7.317 -0.2672  1.0004 -0.1702
44337SOL     OW37695   6.174   2.312   7.094  0.2919  0.4664 -0.3656
44337SOL    HW137696   6.209   2.324   7.006  0.5040  0.1414 -0.3275
44337SOL    HW237697   6.207   2.227   7.121 -0.5626  0.1251 -0.3458
44338SOL     OW37698   5.686   5.271  11.400 -0.6469  0.1248  0.6215
44338SOL    HW137699   5.762   5.313  11.441  0.5408  0.5617 -1.8731
44338SOL    HW237700   5.651   5.336  11.340 -0.8932 -1.2185 -0.7645
44339SOL     OW37701  11.724   9.611   2.128  0.3354 -0.1183 -0.2774
44339SOL    HW137702  11.663   9.601   2.201  0.1897 -0.0271 -0.3852
44339SOL    HW237703  11.678   9.576   2.052  0.1161  0.6267 -0.5050
44340SOL     OW37704   3.688   7.458   3.097  0.5077  0.1696 -0.4851
44340SOL    HW137705   3.631   7.402   3.045 -0.3797  1.0285 -0.4696
44340SOL    HW237706   3.759   7.401   3.125 -0.4452 -0.9852 -0.3433
44341SOL     OW37707   4.413   0.446   4.663  0.3370  0.2288 -0.0316
44341SOL    HW137708   4.339   0.492   4.624 -0.0818 -0.8388 -0.5372
44341SOL    HW237709   4.476   0.437   4.592  1.2657  1.7083  0.5583
44342SOL     OW37710   0.242   9.259   6.447  0.6135 -0.3660  0.3102
44342SOL    HW137711   0.261   9.213   6.529 -0.4135  0.4586  1.0217
44342SOL    HW237712   0.149   9.245   6.433  0.5244  0.5595 -0.0569
44343SOL     OW37713   3.291   6.896   3.754  0.0654  0.4263 -0.4869
44343SOL    HW137714   3.207   6.927   3.790  0.8044  0.4615  1.3321
44343SOL    HW237715   3.334   6.853   3.828  1.3960 -0.1478 -1.5540
44344SOL     OW37716   4.766   9.132   9.669 -0.6936  0.2558 -0.1369
44344SOL    HW137717   4.858   9.111   9.682 -0.2005  1.8941 -0.6597
44344SOL    HW237718   4.757   9.146   9.575 -1.6202 -0.4684 -0.1699
44345SOL     OW37719   2.541   3.703   9.911 -0.4935  0.0443 -0.0254
44345SOL    HW137720   2.474   3.648   9.870 -1.9351  1.0888  0.7881
44345SOL    HW237721   2.595   3.642   9.961 -0.3938 -0.9136 -1.2655
44346SOL     OW37722  11.754   8.822  10.058 -0.6807  0.1556 -0.3426
44346SOL    HW137723  11.662   8.819  10.032 -1.3690 -0.9226  1.9862
44346SOL    HW237724  11.783   8.731  10.056  0.2672  0.4496 -0.7478
44347SOL     OW37725   6.490  11.166   9.245 -0.4646 -0.2974 -0.5921
44347SOL    HW137726   6.511  11.176   9.153  0.0779  3.4937 -0.1959
44347SOL    HW237727   6.404  11.207   9.255 -0.4209 -0.4589  0.6396
44348SOL     OW37728   4.907   7.873  11.374  0.6436  0.2194  0.3611
44348SOL    HW137729   4.832   7.910  11.329 -1.3592 -0.3556  2.9558
44348SOL    HW237730   4.914   7.925  11.454 -0.2421 -2.7747  2.5699
44349SOL     OW37731   6.968   3.935   3.621  0.7442 -0.1173  0.2205
44349SOL    HW137732   6.982   3.845   3.652  0.9772 -0.7113 -1.4891
44349SOL    HW237733   6.875   3.951   3.634  0.9117 -0.1619  1.6010
44350SOL     OW37734   3.464   4.650   6.849 -0.1740  0.2232 -0.2650
44350SOL    HW137735   3.466   4.572   6.793  0.7623  0.4868 -0.6132
44350SOL    HW237736   3.472   4.616   6.938  1.1091 -0.0399 -0.4644
44351SOL     OW37737   5.681  10.892   6.420 -0.2448  0.6120  0.4051
44351SOL    HW137738   5.630  10.948   6.479  0.8617  0.1220  1.8977
44351SOL    HW237739   5.755  10.863   6.473 -0.5911 -2.0059 -0.4004
44352SOL     OW37740   6.553   6.424  11.166 -0.8369  0.4027 -0.4152
44352SOL    HW137741   6.527   6.334  11.147 -2.8020  1.1434 -1.4992
44352SOL    HW237742   6.648   6.425  11.150 -0.8902 -1.2959 -1.0536
44353SOL     OW37743   8.095   4.591   9.682 -0.6521  0.1155  0.1640
44353SOL    HW137744   8.004   4.620   9.675 -1.5959 -2.6466 -0.2405
44353SOL    HW237745   8.102   4.552   9.768  0.2125  0.4148  0.2425
44354SOL     OW37746   9.410   4.145   5.997  0.0304 -0.3234  0.5751
44354SOL    HW137747   9.481   4.094   5.959 -1.5057 -1.0834 -1.4824
44354SOL    HW237748   9.399   4.108   6.085  1.5699 -0.7668  0.6125
44355SOL     OW37749   3.675   4.569  11.508  0.4765 -0.0841 -0.1023
44355SOL    HW137750   3.649   4.616  11.588 -1.3419  0.7781 -1.1379
44355SOL    HW237751   3.617   4.493  11.506 -0.3688  0.5713 -1.2259
44356SOL     OW37752   0.888   5.279   2.370  0.0458  0.4484 -0.0056
44356SOL    HW137753   0.901   5.374   2.368  0.8992  0.3431 -0.7922
44356SOL    HW237754   0.907   5.253   2.460  2.8303  0.6971 -0.4159
44357SOL     OW37755   2.288   7.613   8.081  0.2584  0.1723 -0.0670
44357SOL    HW137756   2.214   7.559   8.058 -0.7257  2.2804 -2.2866
44357SOL    HW237757   2.364   7.568   8.044 -0.1571 -0.9718  0.4448
44358SOL     OW37758   3.530   9.300  11.146  0.3012  0.2915  0.0538
44358SOL    HW137759   3.533   9.303  11.241  2.4697 -1.5059  0.1344
44358SOL    HW237760   3.620   9.321  11.118  0.3817 -1.6593 -1.4182
44359SOL     OW37761  10.369   6.692   2.396 -0.4124  0.1049  0.4053
44359SOL    HW137762  10.275   6.704   2.404 -0.5054  0.7922 -1.3290
44359SOL    HW237763  10.392   6.632   2.467 -2.0173  0.5445  1.3435
44360SOL     OW37764   4.133   8.082   1.009 -0.1644  0.2865  0.2077
44360SOL    HW137765   4.050   8.113   1.046 -0.2000 -0.2923  0.6175
44360SOL    HW237766   4.108   8.035   0.929 -0.1805  0.5827  0.0363
44361SOL     OW37767   8.598   1.752   2.270  0.4353 -0.4117 -0.3031
44361SOL    HW137768   8.602   1.686   2.200 -2.3900 -1.6268  0.5205
44361SOL    HW237769   8.642   1.710   2.344 -0.3022 -0.9454 -0.1442
44362SOL     OW37770   5.527   9.337  10.678  0.1167  0.1138  0.5936
44362SOL    HW137771   5.507   9.264  10.737 -1.1602  0.1302  0.2204
44362SOL    HW237772   5.514   9.416  10.731  1.9225  0.1060  1.1254
44363SOL     OW37773   6.744   4.856   0.855 -0.0124  0.1925 -0.5922
44363SOL    HW137774   6.814   4.889   0.910 -0.9326  1.8071 -0.3304
44363SOL    HW237775   6.772   4.877   0.766  0.6082 -0.7304 -0.6294
44364SOL     OW37776  10.961   4.242   4.605  0.3348  0.0788  0.0378
44364SOL    HW137777  11.047   4.231   4.564  0.6410  0.3318  0.6124
44364SOL    HW237778  10.917   4.158   4.590  1.0742 -0.4366  0.6583
44365SOL     OW37779  10.433   8.982  11.673  0.4507  0.0384 -0.1626
44365SOL    HW137780  10.382   9.059  11.699 -0.8331 -0.9994  0.5367
44365SOL    HW237781  10.489   9.013  11.601 -0.0782  1.5867  0.0526
44366SOL     OW37782   8.884   7.130   3.498  0.0232 -0.1385  0.3537
44366SOL    HW137783   8.970   7.142   3.539 -0.5994  0.2657  1.6037
44366SOL    HW237784   8.899   7.064   3.430  1.1102 -0.8572  1.2472
44367SOL     OW37785   5.692  10.513   0.927 -0.0584 -0.0488  0.6807
44367SOL    HW137786   5.692  10.602   0.890  2.4007 -0.5507 -0.7972
44367SOL    HW237787   5.600  10.493   0.943 -1.0198  1.4833 -2.2132
44368SOL     OW37788   1.348   3.315   3.094 -0.3733 -0.7298  0.1821
44368SOL    HW137789   1.336   3.259   3.170 -1.5417 -1.4228 -0.4776
44368SOL    HW237790   1.336   3.256   3.019  1.3408 -0.2031 -0.5749
44369SOL     OW37791   0.681   5.213   6.927  0.1786  0.5195  0.5151
44369SOL    HW137792   0.647   5.277   6.865  0.6141  1.4619  1.2265
44369SOL    HW237793   0.752   5.258   6.973  0.3450 -0.3927  1.1949
44370SOL     OW37794   3.380   3.979   8.708 -0.0442 -0.3075  0.0656
44370SOL    HW137795   3.302   3.930   8.684  0.1050 -0.2832 -0.4874
44370SOL    HW237796   3.453   3.927   8.672  0.0422  0.9871 -1.7224
44371SOL     OW37797   1.517   9.343   5.312  0.7069  0.0628 -0.5126
44371SOL    HW137798   1.593   9.391   5.345  1.2331 -0.8232 -0.3878
44371SOL    HW237799   1.463   9.327   5.389  1.0316 -0.4099 -0.3769
44372SOL     OW37800   9.368   3.744   1.116  0.0892 -0.2534 -0.5325
44372SOL    HW137801   9.439   3.790   1.161  0.3157 -0.4149 -0.7268
44372SOL    HW237802   9.339   3.806   1.049 -2.0361  1.1261  1.4824
44373SOL     OW37803   8.562   1.192   9.631  0.1289 -0.3987 -0.2373
44373SOL    HW137804   8.497   1.172   9.564 -0.4819 -0.4289  0.3612
44373SOL    HW237805   8.514   1.188   9.713  0.7378  0.2546  0.1574
44374SOL     OW37806   2.175   6.385  10.248  0.7985 -0.6474 -0.5649
44374SOL    HW137807   2.162   6.293  10.272  0.7691 -0.5039 -0.0281
44374SOL    HW237808   2.145   6.390  10.157 -1.3103 -0.7043  0.0791
44375SOL     OW37809   7.486   4.449   1.013  0.5936 -0.2608 -0.0511
44375SOL    HW137810   7.441   4.421   0.933  0.2548 -0.0494  0.0635
44375SOL    HW237811   7.457   4.540   1.026  1.4945  0.0684 -0.2874
44376SOL     OW37812   8.297   9.558   2.881  0.1642  0.0796 -0.7839
44376SOL    HW137813   8.257   9.622   2.939 -0.9043 -1.3942  0.2015
44376SOL    HW237814   8.390   9.561   2.902 -0.0821  0.2435  0.3573
44377SOL     OW37815   9.358  10.486   1.386 -0.2074 -0.2182 -0.0439
44377SOL    HW137816   9.406  10.566   1.364 -0.5581  0.5218  1.6530
44377SOL    HW237817   9.323  10.455   1.302  0.7625  0.8593 -0.8813
44378SOL     OW37818   2.407   2.258   0.718 -1.0771 -0.1038 -0.1504
44378SOL    HW137819   2.430   2.237   0.809  0.0805 -1.4594 -0.7198
44378SOL    HW237820   2.379   2.175   0.680  3.4959 -0.9461 -2.4473
44379SOL     OW37821   9.325   3.035   7.414 -0.3104 -0.3796  0.7427
44379SOL    HW137822   9.375   2.998   7.341 -1.8956 -0.1138 -0.5220
44379SOL    HW237823   9.372   3.005   7.492  0.2566 -2.4334 -0.3118
44380SOL     OW37824   8.297   9.716   4.644 -0.7094  0.0241  0.0571
44380SOL    HW137825   8.303   9.729   4.738  1.1766  3.1724 -0.3568
44380SOL    HW237826   8.373   9.663   4.622 -0.6125  0.1065  0.1977
44381SOL     OW37827   4.448   1.895   8.338 -0.1099  0.1986  0.1899
44381SOL    HW137828   4.450   1.857   8.425  0.7558 -0.4252 -0.0996
44381SOL    HW237829   4.361   1.936   8.332 -0.6649 -0.8515  0.8689
44382SOL     OW37830   9.876  10.018   6.900  0.1208 -0.2996  0.2050
44382SOL    HW137831   9.967  10.045   6.885 -0.8918  2.1953 -2.2699
44382SOL    HW237832   9.854  10.054   6.986  0.7953  1.2307 -0.2239
44383SOL     OW37833   3.375  10.141   6.343  0.2671  0.1104  0.0350
44383SOL    HW137834   3.346  10.100   6.262 -2.0038  1.4800  0.0694
44383SOL    HW237835   3.469  10.156   6.330  0.2051 -0.8347 -1.8090
44384SOL     OW37836   8.971  11.803   9.239  0.7038 -0.0416  0.2791
44384SOL    HW137837   8.894  11.749   9.253 -0.6454  0.9297 -2.5282
44384SOL    HW237838   9.045  11.742   9.246 -0.5569 -1.7083 -0.1880
44385SOL     OW37839   2.753   2.625  11.038  0.0239  0.3054  0.1554
44385SOL    HW137840   2.678   2.662  11.084 -0.7193  0.1877 -0.9228
44385SOL    HW237841   2.727   2.535  11.018  1.4490 -0.5680  1.9242
44386SOL     OW37842   5.934   3.605  11.084  0.4541 -0.1910 -0.0287
44386SOL    HW137843   5.884   3.682  11.058  3.5480  1.2804 -2.2578
44386SOL    HW237844   5.918   3.595  11.177 -0.6370  2.6792  0.1711
44387SOL     OW37845   6.746   8.704  10.933  0.2516 -0.3053 -0.6419
44387SOL    HW137846   6.830   8.718  10.977  0.7429  0.5626 -1.8034
44387SOL    HW237847   6.725   8.789  10.895 -0.8292 -0.6970 -0.9434
44388SOL     OW37848   3.659   8.643   9.888  0.1079  0.0264  0.1665
44388SOL    HW137849   3.594   8.656   9.957 -0.4108  0.4403 -0.3875
44388SOL    HW237850   3.697   8.730   9.875  1.4767 -0.3875  1.1503
44389SOL     OW37851   0.753   9.422  11.276  0.1530 -0.0081  0.0925
44389SOL    HW137852   0.680   9.368  11.245  0.3305 -0.4236  0.3917
44389SOL    HW237853   0.828   9.391  11.224  0.3724 -0.4452  0.6607
44390SOL     OW37854   0.635   8.483   5.034 -0.8000 -0.8651 -0.0673
44390SOL    HW137855   0.610   8.517   4.948 -0.6374 -0.5018  0.0292
44390SOL    HW237856   0.720   8.522   5.052 -1.2215 -0.2449  0.6437
44391SOL     OW37857  11.997   9.210  11.256  0.1568 -0.4781  0.8885
44391SOL    HW137858  11.980   9.296  11.295 -1.5720 -0.1447 -0.4620
44391SOL    HW237859  12.031   9.157  11.328  1.4594  1.3655  1.7118
44392SOL     OW37860   8.785   5.308  10.778 -0.8259 -0.0187 -0.6191
44392SOL    HW137861   8.852   5.249  10.743 -0.8138  0.6971 -1.8599
44392SOL    HW237862   8.812   5.395  10.751 -1.0442  0.5404  0.8900
44393SOL     OW37863   1.453   3.030   2.546  0.1580 -0.0276 -0.0647
44393SOL    HW137864   1.371   3.050   2.500  0.4039 -1.0415 -0.9660
44393SOL    HW237865   1.438   3.061   2.635 -1.6905 -1.3407  0.1227
44394SOL     OW37866   6.147   1.693   1.173  0.0032 -0.0146  0.3159
44394SOL    HW137867   6.208   1.641   1.225 -0.4816 -0.4135  0.5003
44394SOL    HW237868   6.185   1.692   1.085  0.8406  0.6888  0.6542
44395SOL     OW37869   2.760   9.603   0.835 -0.1097 -0.3425 -0.1132
44395SOL    HW137870   2.803   9.597   0.920  1.3137 -1.1330 -0.8567
44395SOL    HW237871   2.729   9.693   0.830  1.1704  0.1581  0.6006
44396SOL     OW37872   8.499   8.526   3.217  0.1297 -0.8731 -0.0895
44396SOL    HW137873   8.525   8.437   3.194 -0.3652 -0.9328 -0.4331
44396SOL    HW237874   8.404   8.521   3.227 -0.4587  0.3712 -3.7634
44397SOL     OW37875   9.224   3.845  10.494 -0.1794  0.1196 -0.1588
44397SOL    HW137876   9.149   3.821  10.439  0.0856 -0.3176 -0.3347
44397SOL    HW237877   9.266   3.917  10.447 -1.4273  1.5242  0.7562
44398SOL     OW37878   6.245   8.505   5.703  0.1142  0.1915 -0.4419
44398SOL    HW137879   6.326   8.551   5.679  1.1990 -1.1829  0.3985
44398SOL    HW237880   6.214   8.467   5.620  0.4384  0.5615 -0.7353
44399SOL     OW37881   2.347   5.275   8.960  0.3221  0.1801 -0.4915
44399SOL    HW137882   2.418   5.250   9.019  0.1028  0.7125  0.0101
44399SOL    HW237883   2.383   5.264   8.872  0.4531 -1.2310 -0.2876
44400SOL     OW37884  11.170   6.667   1.333  0.1327  0.0110 -0.7276
44400SOL    HW137885  11.241   6.651   1.395  0.0581  1.3592 -0.2715
44400SOL    HW237886  11.105   6.599   1.353  0.8231 -0.5885 -0.4575
44401SOL     OW37887   8.984  11.440  10.875 -0.2027 -0.6957 -0.0690
44401SOL    HW137888   9.079  11.447  10.862 -0.4159 -0.3530 -1.6902
44401SOL    HW237889   8.955  11.381  10.806 -1.2887  0.0006 -0.2373
44402SOL     OW37890   8.763  10.546  10.663  0.4468  0.5362  0.3034
44402SOL    HW137891   8.856  10.561  10.650  0.2230  2.2426  0.4659
44402SOL    HW237892   8.752  10.545  10.758  0.1696  1.3873  0.2922
44403SOL     OW37893   6.478   0.666  10.435 -0.1658  0.1829  0.2750
44403SOL    HW137894   6.489   0.575  10.464  1.7931  0.3704  0.2561
44403SOL    HW237895   6.455   0.659  10.343  0.5592 -0.3154  0.1177
44404SOL     OW37896   4.985   4.213   2.861 -0.2161 -0.1129  0.2105
44404SOL    HW137897   4.996   4.258   2.945  1.7556 -0.3754  0.1453
44404SOL    HW237898   4.968   4.122   2.885 -1.7345  0.1665  0.3104
44405SOL     OW37899   4.148  11.743  10.282  0.4956  0.3902  0.1042
44405SOL    HW137900   4.119  11.680  10.216  1.9718  0.2317 -0.4194
44405SOL    HW237901   4.105  11.825  10.257  1.0965  0.3571 -1.1192
44406SOL     OW37902   4.016   1.737   2.811  0.0769 -0.1049  0.0782
44406SOL    HW137903   3.971   1.666   2.856  2.7614 -0.8742  1.7749
44406SOL    HW237904   4.064   1.695   2.740 -1.6124  0.6830 -1.6250
44407SOL     OW37905   4.987   8.940   3.928 -0.4965 -0.1150  0.1127
44407SOL    HW137906   5.070   8.986   3.916 -1.2784  1.0107 -1.3694
44407SOL    HW237907   5.003   8.879   4.000  1.1890  1.0767  0.8189
44408SOL     OW37908   9.466  10.713   5.384 -0.2271 -0.2802  0.8888
44408SOL    HW137909   9.459  10.782   5.317 -1.1050  0.9351  2.1767
44408SOL    HW237910   9.496  10.636   5.336 -0.3350  0.6859 -0.8078
44409SOL     OW37911   8.343   7.814  10.315 -0.0979  0.5704  0.2116
44409SOL    HW137912   8.326   7.720  10.321 -2.4436  0.8653 -0.6932
44409SOL    HW237913   8.425   7.820  10.265 -0.3531 -0.9748 -0.4597
44410SOL     OW37914   6.060   5.177   3.358  0.8969 -0.1273 -0.2612
44410SOL    HW137915   6.105   5.116   3.416  0.7020  0.6235  0.7016
44410SOL    HW237916   5.974   5.137   3.343  0.9459 -0.3251 -0.0195
44411SOL     OW37917   1.690  10.942   3.295 -0.1931  0.0711  0.1002
44411SOL    HW137918   1.622  10.971   3.355 -0.7968 -1.1974  0.0731
44411SOL    HW237919   1.655  10.960   3.208 -0.9297 -1.3973  0.0582
44412SOL     OW37920   1.562   7.734  10.003 -0.0264 -0.4184  0.1676
44412SOL    HW137921   1.502   7.676  10.051 -0.2353  0.0583  0.4834
44412SOL    HW237922   1.645   7.727  10.049 -0.8302  1.9179  2.1463
44413SOL     OW37923   6.543  10.500   7.909  0.5331 -0.2604 -0.0182
44413SOL    HW137924   6.471  10.442   7.932  1.0852 -1.0906 -0.3301
44413SOL    HW237925   6.606  10.443   7.865  1.2164  0.5244 -0.0734
44414SOL     OW37926   7.804   7.563   4.098  0.8068 -0.1851  0.0594
44414SOL    HW137927   7.810   7.620   4.021 -0.1133  0.7455  0.6452
44414SOL    HW237928   7.868   7.599   4.159  0.1055  0.3398  0.4944
44415SOL     OW37929   0.012   0.433   0.893 -0.1472  0.0229  0.0825
44415SOL    HW137930  -0.080   0.445   0.870  0.4463  1.8946 -1.5925
44415SOL    HW237931   0.055   0.411   0.810  0.7894 -2.0806  1.0395
44416SOL     OW37932   8.094   2.681   3.336 -0.1333  0.1532 -0.3953
44416SOL    HW137933   8.061   2.638   3.257 -1.3452 -1.2038  0.8059
44416SOL    HW237934   8.022   2.736   3.366 -0.0337 -0.0744  0.2874
44417SOL     OW37935   5.530   3.145   3.633 -0.5578  0.2961  0.3659
44417SOL    HW137936   5.465   3.083   3.600 -1.9488  1.7013  0.3634
44417SOL    HW237937   5.536   3.211   3.564  0.0268  0.7882  0.8796
44418SOL     OW37938   5.535  10.637   7.406  0.5936 -0.3353  0.9211
44418SOL    HW137939   5.628  10.655   7.420  0.3680  2.2829 -0.3901
44418SOL    HW237940   5.490  10.692   7.470 -0.0858 -1.6172  1.5745
44419SOL     OW37941   9.319  11.017   2.863  0.2999 -0.3093  0.1715
44419SOL    HW137942   9.253  11.067   2.910  0.1087 -0.0005 -0.4178
44419SOL    HW237943   9.402  11.039   2.906 -0.0605 -1.3352  1.4506
44420SOL     OW37944   0.743  11.417   8.690  0.0592  0.7676  0.1209
44420SOL    HW137945   0.673  11.367   8.647 -0.0156  1.2187 -0.2968
44420SOL    HW237946   0.735  11.395   8.783  0.0498 -0.0176 -0.0668
44421SOL     OW37947   2.389   1.616   3.269 -0.2113  0.8041  0.1289
44421SOL    HW137948   2.429   1.702   3.277  3.4142 -0.8782  2.5611
44421SOL    HW237949   2.443   1.570   3.204  1.4489 -1.2044  2.7339
44422SOL     OW37950   3.408   3.192   0.229 -0.5087  0.2828  0.4161
44422SOL    HW137951   3.487   3.195   0.174 -1.4401  2.6272 -0.9104
44422SOL    HW237952   3.336   3.180   0.168 -1.3974  0.6846  1.3502
44423SOL     OW37953   1.056   5.123   6.833 -0.5474  0.3472 -0.5070
44423SOL    HW137954   0.990   5.094   6.770  0.9339 -0.5653 -1.6962
44423SOL    HW237955   1.074   5.046   6.886 -1.0457  0.8339  0.3898
44424SOL     OW37956   1.242   7.962   8.679 -0.4070 -0.3382  0.5935
44424SOL    HW137957   1.263   7.879   8.637 -2.0443  0.9059 -3.1621
44424SOL    HW237958   1.323   8.013   8.672 -0.3876 -0.4714 -0.3719
44425SOL     OW37959   1.962   9.907   2.149 -0.4017  0.1733  0.0594
44425SOL    HW137960   1.940   9.980   2.207 -1.7515  0.5964 -0.9138
44425SOL    HW237961   2.012   9.947   2.078 -2.2621  0.4685 -1.1676
44426SOL     OW37962   5.079   9.257   0.945 -0.2714 -0.2185  0.1409
44426SOL    HW137963   5.145   9.325   0.960  0.3526 -0.2679 -1.9848
44426SOL    HW237964   5.112   9.180   0.990  0.2850  0.2160  0.4863
44427SOL     OW37965   6.845  11.651  10.715 -0.5122 -0.2602  0.3392
44427SOL    HW137966   6.880  11.740  10.723 -0.4793 -0.1207 -1.0269
44427SOL    HW237967   6.906  11.607  10.655  0.0153 -1.5151  1.7430
44428SOL     OW37968   8.776   5.597   7.313  0.3124 -0.1940 -0.1984
44428SOL    HW137969   8.719   5.598   7.390 -1.5701 -1.5883 -1.4719
44428SOL    HW237970   8.861   5.572   7.347 -0.5585 -1.1702  1.4020
44429SOL     OW37971   9.545   5.642   0.901  0.1867 -0.2930 -0.3669
44429SOL    HW137972   9.500   5.585   0.962  2.8314 -0.7985  1.3029
44429SOL    HW237973   9.556   5.589   0.821  0.6185 -1.3166  0.3518
44430SOL     OW37974  10.117   3.873   1.401  0.2187 -0.3696  0.2173
44430SOL    HW137975  10.118   3.815   1.325 -0.5996 -1.4758  1.0132
44430SOL    HW237976  10.048   3.837   1.458  1.4801 -0.2247  1.9431
44431SOL     OW37977  11.272   3.027   5.420  1.1777 -0.4794  0.0750
44431SOL    HW137978  11.304   3.116   5.412 -1.3765  0.5768  0.5796
44431SOL    HW237979  11.303   2.998   5.506  1.6896  0.0522  0.0765
44432SOL     OW37980   5.590  10.957   5.088  0.2299  0.8794 -0.9065
44432SOL    HW137981   5.534  10.970   5.011  0.6687  1.1722 -1.1841
44432SOL    HW237982   5.611  11.046   5.118  0.4249  0.7705 -0.7184
44433SOL     OW37983   8.547   4.793  11.585 -0.3312 -0.3227 -0.0909
44433SOL    HW137984   8.486   4.743  11.639  0.9113 -0.9804  0.7556
44433SOL    HW237985   8.620   4.813  11.643  0.3691  0.2508 -1.1382
44434SOL     OW37986   7.059   6.568  10.548  0.1241 -0.0209  0.0624
44434SOL    HW137987   7.000   6.585  10.474  0.4402 -1.1393 -0.4577
44434SOL    HW237988   7.078   6.656  10.583 -2.2134  0.3552  0.5738
44435SOL     OW37989  10.264   7.715   3.868  0.5804  0.3374  0.0677
44435SOL    HW137990  10.331   7.722   3.937  0.5859 -0.1133  0.1142
44435SOL    HW237991  10.295   7.643   3.814  0.7664  0.9288 -0.6263
44436SOL     OW37992   9.147   3.493   7.766  0.1022  0.1433  0.6056
44436SOL    HW137993   9.148   3.426   7.834  0.0269  2.1320  2.7131
44436SOL    HW237994   9.074   3.550   7.789  0.7019  1.4538 -0.5538
44437SOL     OW37995   0.990  11.294   8.598 -0.1739 -0.0603 -0.4327
44437SOL    HW137996   1.010  11.226   8.662 -1.9309 -0.3413 -0.1476
44437SOL    HW237997   0.895  11.302   8.600 -0.2579  0.1825 -2.7480
44438SOL     OW37998   1.934   6.666   8.515  0.4113  0.1838  0.3876
44438SOL    HW137999   1.993   6.679   8.440  1.2143  0.8911  1.1238
44438SOL    HW238000   1.983   6.699   8.590 -0.7896  0.4452  1.0804
44439SOL     OW38001   4.382  10.170  11.676 -0.1529  0.1753 -0.1191
44439SOL    HW138002   4.316  10.115  11.718 -0.4037  0.5081 -0.0780
44439SOL    HW238003   4.432  10.109  11.621  0.5997 -0.3924  1.1355
44440SOL     OW38004   7.474   8.576   9.592  0.7978 -0.6139 -0.1777
44440SOL    HW138005   7.500   8.580   9.500  0.2273 -0.6281 -0.3394
44440SOL    HW238006   7.494   8.663   9.626 -0.6812 -0.0110 -0.7713
44441SOL     OW38007   5.185   3.015   3.789 -0.4804 -0.0292 -0.0063
44441SOL    HW138008   5.181   3.060   3.705  2.0424  0.3374 -0.0132
44441SOL    HW238009   5.202   3.084   3.853  0.1791 -0.5747  0.4264
44442SOL     OW38010  10.389   4.215  11.656 -0.4175  0.0147 -0.1625
44442SOL    HW138011  10.294   4.207  11.646 -0.5439 -0.1692  0.9872
44442SOL    HW238012  10.418   4.129  11.686  0.1316  0.0349 -0.6238
44443SOL     OW38013   6.920   0.412   7.077  0.2758 -0.2281  0.0609
44443SOL    HW138014   6.927   0.507   7.082  1.7925 -0.3857  1.5490
44443SOL    HW238015   6.829   0.394   7.103 -0.3996  0.8305 -1.3754
44444SOL     OW38016   3.227   9.041   0.524  0.3569  0.0182 -0.9292
44444SOL    HW138017   3.147   9.093   0.526 -1.7569 -3.0190 -0.6412
44444SOL    HW238018   3.213   8.977   0.455  2.0265 -1.4066 -0.0350
44445SOL     OW38019   9.881   3.216  11.583  0.0478 -0.1071 -0.2160
44445SOL    HW138020   9.950   3.165  11.625 -0.2233 -0.6539 -0.4218
44445SOL    HW238021   9.806   3.157  11.581 -0.0194 -0.0147 -1.2504
44446SOL     OW38022   2.557  10.006   0.401  0.3207 -0.0498 -0.5537
44446SOL    HW138023   2.498  10.044   0.466  1.5139 -0.7317  0.9812
44446SOL    HW238024   2.499   9.967   0.335 -0.9185  0.4666  0.1991
44447SOL     OW38025   7.338   5.149   9.989  0.0004 -0.3683  0.6618
44447SOL    HW138026   7.267   5.202  10.027 -0.3869  0.2169 -0.7904
44447SOL    HW238027   7.369   5.095  10.062 -0.4777  0.9206  1.8808
44448SOL     OW38028  10.842   3.732   5.010 -0.0694 -0.1848 -0.7364
44448SOL    HW138029  10.838   3.662   4.945 -1.1723 -1.1700  0.3335
44448SOL    HW238030  10.936   3.742   5.028  0.0825 -2.1000 -0.2198
44449SOL     OW38031   6.804   8.713   1.220 -0.1699  0.4420 -0.2139
44449SOL    HW138032   6.725   8.659   1.222  0.0439  0.1235 -0.2510
44449SOL    HW238033   6.858   8.674   1.151 -0.0768  0.7933 -0.3391
44450SOL     OW38034   1.527   4.453   8.060 -0.6568 -0.3214  0.0034
44450SOL    HW138035   1.439   4.481   8.084 -1.6954 -3.4447  0.3411
44450SOL    HW238036   1.527   4.455   7.964 -1.8163 -2.0279 -0.0759
44451SOL     OW38037  10.335   0.393   5.577  0.1395  0.5340  0.2149
44451SOL    HW138038  10.366   0.360   5.661 -0.1332 -0.7284 -0.1572
44451SOL    HW238039  10.252   0.436   5.597  0.6451  1.2928  0.7542
44452SOL     OW38040   2.602   0.278   8.255 -0.2110 -0.1112  0.9484
44452SOL    HW138041   2.655   0.286   8.334 -0.5496 -0.9085  1.2702
44452SOL    HW238042   2.574   0.186   8.255  1.5276 -0.7225 -1.2267
44453SOL     OW38043   0.265   2.357   1.195  0.0193 -0.3054  0.2197
44453SOL    HW138044   0.262   2.424   1.127 -0.6134  0.7542  1.2441
44453SOL    HW238045   0.344   2.307   1.177 -1.1429 -1.3213 -2.4491
44454SOL     OW38046   1.785   3.602   7.248 -0.5661 -0.4812  0.3266
44454SOL    HW138047   1.800   3.551   7.327  0.0719 -2.6260 -1.0858
44454SOL    HW238048   1.693   3.586   7.225 -0.1502 -1.7466 -0.5638
44455SOL     OW38049   2.662   7.155   7.981 -0.1905 -0.7347  0.3383
44455SOL    HW138050   2.590   7.113   7.933 -0.0619 -0.4991 -0.0684
44455SOL    HW238051   2.625   7.237   8.012  0.3159  0.0882 -1.1440
44456SOL     OW38052   3.604   7.743   9.473 -0.0206 -0.0827  0.3834
44456SOL    HW138053   3.582   7.685   9.546 -0.2566  0.9341  1.1432
44456SOL    HW238054   3.691   7.715   9.445  0.3382 -0.1008  1.4651
44457SOL     OW38055   5.542   4.181   0.901  0.0481  0.2091 -0.2152
44457SOL    HW138056   5.477   4.166   0.969 -0.3765 -0.1900 -0.7061
44457SOL    HW238057   5.555   4.095   0.861  0.1490  0.4784 -0.7688
44458SOL     OW38058   0.009   4.634   9.703 -0.0647 -0.2543 -0.0930
44458SOL    HW138059  -0.040   4.605   9.780 -0.3368 -1.0933 -0.5669
44458SOL    HW238060   0.088   4.580   9.704  0.4732  0.5209  0.2104
44459SOL     OW38061   9.015   7.092   8.439  0.0631  0.4900 -0.4785
44459SOL    HW138062   9.073   7.116   8.367 -0.7157  2.3877 -0.5457
44459SOL    HW238063   8.930   7.129   8.414 -1.0594 -1.6237 -0.0743
44460SOL     OW38064  10.220   1.334   8.110 -0.2571  0.1390  0.2451
44460SOL    HW138065  10.244   1.275   8.039 -1.2500  1.5213 -1.3201
44460SOL    HW238066  10.157   1.284   8.163 -0.4063 -0.5149 -0.5316
44461SOL     OW38067   3.727   5.250   2.164  0.3045 -0.0664  0.1943
44461SOL    HW138068   3.803   5.291   2.203  0.4433 -1.0812  1.0508
44461SOL    HW238069   3.755   5.160   2.145 -1.2017 -1.1100  2.4024
44462SOL     OW38070   2.029   6.372   7.181 -0.1986 -0.1654 -0.0715
44462SOL    HW138071   1.948   6.326   7.201 -0.2321 -0.1323 -0.1320
44462SOL    HW238072   2.094   6.333   7.240 -0.1534 -0.5164 -0.3533
44463SOL     OW38073   9.742   6.374   4.776 -0.3022 -0.5462  0.2126
44463SOL    HW138074   9.727   6.467   4.758 -1.1379 -0.5587  0.7440
44463SOL    HW238075   9.836   6.367   4.793  0.3418 -0.3425 -2.7715
44464SOL     OW38076  10.819   7.084   1.013 -0.1993 -0.4487 -0.6241
44464SOL    HW138077  10.794   7.132   0.934  0.0793 -0.7579 -0.9074
44464SOL    HW238078  10.811   7.147   1.084 -1.2136 -0.3846 -0.7835
44465SOL     OW38079   4.372   1.761   9.454  0.1217  0.1028 -0.0139
44465SOL    HW138080   4.370   1.854   9.429 -0.4654  0.1840  0.3127
44465SOL    HW238081   4.448   1.754   9.512  1.2922 -0.0156 -1.4918
44466SOL     OW38082   2.581   2.286   6.665 -0.0128  0.1922 -0.0128
44466SOL    HW138083   2.573   2.381   6.663 -1.2603  0.1040 -2.1144
44466SOL    HW238084   2.492   2.254   6.651  0.3849 -1.3079  0.7025
44467SOL     OW38085   8.216   2.713   9.841 -0.0513  0.6261 -0.0817
44467SOL    HW138086   8.287   2.766   9.877 -0.4756  0.3572  1.1952
44467SOL    HW238087   8.241   2.623   9.860 -0.7008  0.5239  0.3121
44468SOL     OW38088  11.109   9.926  10.995 -0.5284 -0.0059 -0.7298
44468SOL    HW138089  11.173   9.971  10.940 -1.4040  0.1933 -1.6064
44468SOL    HW238090  11.029   9.976  10.985 -0.8761 -0.3551  0.2197
44469SOL     OW38091   2.549   1.664   9.315  0.0779  0.0390 -0.2109
44469SOL    HW138092   2.561   1.642   9.407  1.7425 -1.4081 -0.7195
44469SOL    HW238093   2.622   1.722   9.294  0.6674 -0.9295 -0.9709
44470SOL     OW38094  11.878   9.572   7.723 -0.0974  0.3826  0.5590
44470SOL    HW138095  11.819   9.626   7.671 -0.4817 -0.1745  0.4047
44470SOL    HW238096  11.852   9.482   7.703 -0.7206  0.1451  2.2138
44471SOL     OW38097  11.140   1.062  11.513 -0.9251  0.0825  0.5466
44471SOL    HW138098  11.099   1.072  11.599 -1.6529  4.0307 -0.0652
44471SOL    HW238099  11.234   1.071  11.530 -1.1093  1.6193  0.9265
44472SOL     OW38100   9.188   6.511   7.306 -0.3625 -0.6412 -0.5456
44472SOL    HW138101   9.201   6.480   7.216  0.6745 -2.8073  0.2758
44472SOL    HW238102   9.259   6.471   7.356 -0.3910  1.2083  1.1303
44473SOL     OW38103   8.480   1.627   5.533  0.0518 -0.2783 -0.4259
44473SOL    HW138104   8.573   1.627   5.557 -0.1958  0.0954  0.5952
44473SOL    HW238105   8.451   1.538   5.553  0.1246 -0.3144 -0.4789
44474SOL     OW38106   2.035   2.552   5.105 -0.1121 -0.4504 -0.0035
44474SOL    HW138107   2.030   2.463   5.071 -1.1539  0.1918 -1.6570
44474SOL    HW238108   2.048   2.541   5.200  0.1212 -2.3262 -0.2123
44475SOL     OW38109   0.439   3.736   5.730  0.1934  0.8416 -0.5167
44475SOL    HW138110   0.381   3.757   5.656 -0.6213  0.8853  0.1208
44475SOL    HW238111   0.491   3.663   5.699 -0.1099  0.8894 -1.1609
44476SOL     OW38112   3.149   0.791   6.672 -0.4083 -0.4992 -0.0142
44476SOL    HW138113   3.109   0.712   6.710 -1.6986  0.8427  1.5571
44476SOL    HW238114   3.117   0.793   6.582 -2.7222 -0.3074  0.7395
44477SOL     OW38115   0.776   9.513   7.028  0.4342  0.2991  0.0082
44477SOL    HW138116   0.796   9.459   6.952  0.3315 -0.9715  0.8495
44477SOL    HW238117   0.685   9.541   7.015 -0.0651 -1.1076  0.3323
44478SOL     OW38118   9.548   0.223   8.022  0.4969  0.2069  0.0768
44478SOL    HW138119   9.525   0.254   8.109  1.4201  0.2507  0.3145
44478SOL    HW238120   9.475   0.251   7.967  0.2607  0.8484  0.6956
44479SOL     OW38121   7.094   9.299   0.828 -0.2225 -0.9370  0.2856
44479SOL    HW138122   7.012   9.338   0.856 -0.0444 -1.6867  1.9131
44479SOL    HW238123   7.162   9.353   0.868  0.1134 -0.2890 -1.0890
44480SOL     OW38124   0.645   3.295   8.339 -0.7391 -0.0168 -0.4159
44480SOL    HW138125   0.728   3.250   8.319 -0.7310  0.0927 -0.6337
44480SOL    HW238126   0.601   3.236   8.400  0.1045  0.5753  0.8098
44481SOL     OW38127   7.877   6.562   9.545  0.1726  0.1062 -0.4048
44481SOL    HW138128   7.955   6.615   9.559 -0.1895  1.4056 -2.7944
44481SOL    HW238129   7.853   6.531   9.632  1.6135  2.1607  0.7980
44482SOL     OW38130   4.423  11.576   1.085 -0.7947  0.2802  0.2149
44482SOL    HW138131   4.357  11.508   1.069 -0.4929 -0.2091  0.9836
44482SOL    HW238132   4.373  11.657   1.092 -1.3543 -0.1349  1.1439
44483SOL     OW38133   7.687  11.914   5.393 -0.0995 -0.1497  0.5295
44483SOL    HW138134   7.659  11.840   5.339 -1.0095  0.2988  0.3665
44483SOL    HW238135   7.669  11.886   5.483  0.8346 -0.6478  0.5837
44484SOL     OW38136   5.117  11.925   8.235 -0.5508 -0.6005  0.1544
44484SOL    HW138137   5.049  11.978   8.275 -1.5572 -0.4666 -1.6373
44484SOL    HW238138   5.158  11.982   8.171 -0.3684 -1.4007 -0.4591
44485SOL     OW38139   5.207   1.015   8.881 -0.0909 -0.4897  0.0412
44485SOL    HW138140   5.152   0.976   8.949 -1.1447 -1.2140 -1.1863
44485SOL    HW238141   5.192   0.961   8.804  1.0865  0.3098 -0.7797
44486SOL     OW38142   1.677   3.975   8.878  0.2453  0.3747 -0.0327
44486SOL    HW138143   1.744   3.962   8.811 -0.6235  0.9084 -1.0319
44486SOL    HW238144   1.716   3.940   8.958  2.2024  1.8115 -0.2915
44487SOL     OW38145   9.422   1.177   2.066 -0.3582 -0.3267 -0.2157
44487SOL    HW138146   9.387   1.092   2.039  1.1672 -0.5831 -1.5768
44487SOL    HW238147   9.379   1.196   2.149 -0.6210 -2.5181  0.2078
44488SOL     OW38148   2.689   2.969  10.917  0.5281  0.6828  0.3068
44488SOL    HW138149   2.628   2.906  10.880  1.2028  0.5751 -0.6704
44488SOL    HW238150   2.656   3.055  10.889  0.8066  0.6267 -0.1970
44489SOL     OW38151   6.742   1.259   9.877  0.3633  0.4563  0.0405
44489SOL    HW138152   6.753   1.303   9.793  0.6083  0.7630  0.2283
44489SOL    HW238153   6.823   1.211   9.890  0.5543  0.8491  0.3500
44490SOL     OW38154   8.447   5.452   0.648 -0.2185 -0.4241 -0.1932
44490SOL    HW138155   8.392   5.495   0.714  0.4132  1.6832 -0.9531
44490SOL    HW238156   8.513   5.404   0.699 -0.6116 -0.0256  0.7130
44491SOL     OW38157   7.944  11.601   2.325 -0.4690  0.4441 -0.0580
44491SOL    HW138158   8.014  11.657   2.360 -0.6949  1.0815 -0.6006
44491SOL    HW238159   7.900  11.656   2.259  0.2890 -0.9009 -1.7575
44492SOL     OW38160   2.844   6.616   5.559  0.0612 -0.0896 -0.3930
44492SOL    HW138161   2.859   6.539   5.504  1.1299 -1.0554  1.1646
44492SOL    HW238162   2.885   6.594   5.643 -1.7341  1.1994  0.9115
44493SOL     OW38163   2.901   4.334   7.711  0.3752 -0.5979  0.1708
44493SOL    HW138164   2.967   4.301   7.772 -0.2814  0.6479  1.6236
44493SOL    HW238165   2.934   4.419   7.683 -0.0653 -0.4791  0.0101
44494SOL     OW38166   3.799   3.606   8.669  0.0575  0.0754  0.0024
44494SOL    HW138167   3.851   3.629   8.746 -1.8218  3.1592  0.5485
44494SOL    HW238168   3.857   3.621   8.595  0.8258  0.6076  0.6963
44495SOL     OW38169   9.776   2.273   9.315 -0.4261  0.5595  0.2927
44495SOL    HW138170   9.869   2.283   9.299 -0.2780  0.4548  1.0272
44495SOL    HW238171   9.760   2.322   9.396 -0.5610 -1.2402  1.4188
44496SOL     OW38172   7.819  11.054   1.198  0.0378  0.0139 -0.0064
44496SOL    HW138173   7.847  10.991   1.265 -0.6959 -0.1795  0.1224
44496SOL    HW238174   7.892  11.115   1.192  1.3907 -1.6249 -1.1566
44497SOL     OW38175   1.929   9.899   6.678  0.3977  0.4265 -0.1067
44497SOL    HW138176   1.941   9.858   6.592 -2.5000 -0.5279 -0.1585
44497SOL    HW238177   1.916   9.825   6.738 -1.7811  1.1320  0.3578
44498SOL     OW38178   1.574   4.499   5.984  0.3864  0.0682  0.3077
44498SOL    HW138179   1.590   4.456   6.068  1.3001  1.1000  0.6768
44498SOL    HW238180   1.485   4.533   5.991  0.1314 -0.6186  0.5015
44499SOL     OW38181  10.411   0.137   6.158 -0.0172 -0.2267  0.1128
44499SOL    HW138182  10.316   0.147   6.147 -0.2360 -0.9888  1.1084
44499SOL    HW238183  10.442   0.224   6.181 -0.1672  0.4574 -2.0412
44500SOL     OW38184   7.290  11.904   5.415  0.5553 -0.1814  0.3853
44500SOL    HW138185   7.363  11.919   5.355  1.7238  0.0389  1.7798
44500SOL    HW238186   7.254  11.819   5.389  1.5129 -0.4419 -0.1433
44501SOL     OW38187   9.446  11.317  11.327 -0.0277  0.8653  0.1094
44501SOL    HW138188   9.372  11.375  11.345  0.2814  0.9654  1.0747
44501SOL    HW238189   9.432  11.242  11.384  0.9004  1.1365  0.7091
44502SOL     OW38190  10.148   4.765   0.311 -0.2221 -0.1089  0.0286
44502SOL    HW138191  10.139   4.670   0.306 -1.9424  0.0448 -0.3830
44502SOL    HW238192  10.215   4.779   0.378 -0.4561 -1.5898  0.6208
44503SOL     OW38193   9.506   8.895   6.463 -0.1837 -0.0293 -0.1834
44503SOL    HW138194   9.546   8.906   6.376  0.5335  1.3256  0.2968
44503SOL    HW238195   9.464   8.809   6.458  2.2279 -1.2668 -0.9409
44504SOL     OW38196   8.680   0.778   8.326 -0.3936 -0.1569 -0.2299
44504SOL    HW138197   8.664   0.869   8.350 -0.9657  0.2692 -2.0308
44504SOL    HW238198   8.678   0.778   8.230 -1.9934 -2.3295 -0.2801
44505SOL     OW38199  10.455   2.479  11.314  0.0585  0.0349  0.5831
44505SOL    HW138200  10.507   2.534  11.371 -0.4284  0.4371  0.6484
44505SOL    HW238201  10.518   2.423  11.269  0.6015  0.9290  0.2104
44506SOL     OW38202  11.362   0.371  10.199 -0.0649 -0.8049 -0.0313
44506SOL    HW138203  11.390   0.342  10.286 -1.7318 -1.5158  0.3051
44506SOL    HW238204  11.328   0.293  10.157  1.4586 -0.6564 -1.6903
44507SOL     OW38205   7.781  11.535   8.245  0.4204 -0.8121  0.3198
44507SOL    HW138206   7.802  11.482   8.321  0.1612 -1.8818 -0.3352
44507SOL    HW238207   7.831  11.496   8.173  0.0271 -0.3307 -0.2312
44508SOL     OW38208   7.836  11.126  11.725 -0.1576 -0.0423 -0.4090
44508SOL    HW138209   7.755  11.161  11.762  0.8129  1.4646  0.4183
44508SOL    HW238210   7.835  11.156  11.634 -0.6360 -0.2643 -0.4829
44509SOL     OW38211   3.221   9.483   2.378  0.0452  0.1316  0.3939
44509SOL    HW138212   3.149   9.511   2.434 -0.2944 -1.4710  0.7936
44509SOL    HW238213   3.184   9.484   2.289  0.0809  1.0267  0.3798
44510SOL     OW38214   4.061   2.180   3.174  0.1912  1.0338  0.5324
44510SOL    HW138215   4.021   2.123   3.239  2.5208  0.1403  1.2622
44510SOL    HW238216   4.060   2.128   3.093  0.2510  0.8551  0.6458
44511SOL     OW38217   0.517   1.067  11.530  0.0005 -0.0165  0.0121
44511SOL    HW138218   0.589   1.004  11.522  0.3918  0.3366  0.7182
44511SOL    HW238219   0.552   1.149  11.495 -0.9437 -0.4745 -2.2069
44512SOL     OW38220   4.421  10.897   2.012 -0.6501 -0.5916  0.6264
44512SOL    HW138221   4.454  10.859   2.093  1.4972 -0.0623  0.0731
44512SOL    HW238222   4.440  10.831   1.945  0.4102  0.1789  0.1226
44513SOL     OW38223   4.352   5.045   3.386 -0.2124 -0.0075  0.1133
44513SOL    HW138224   4.305   5.124   3.413 -0.9451 -0.8764  1.4943
44513SOL    HW238225   4.440   5.055   3.425 -1.0591 -0.9485  2.4750
44514SOL     OW38226   0.865  11.225  11.989 -0.0170  0.3427 -0.3676
44514SOL    HW138227   0.936  11.284  12.014  0.0784 -0.8199  2.4280
44514SOL    HW238228   0.909  11.144  11.964 -0.2959  0.0586  0.0481
44515SOL     OW38229   7.394   2.510   0.552  0.2428 -0.1447 -0.2656
44515SOL    HW138230   7.373   2.604   0.545  0.8226  0.0177  0.0964
44515SOL    HW238231   7.484   2.508   0.585  0.5913 -0.8233 -1.2048
44516SOL     OW38232  11.031  10.924   0.260 -0.1545 -0.0700 -0.0504
44516SOL    HW138233  11.061  10.945   0.171  1.5631  0.0173  0.5245
44516SOL    HW238234  10.983  10.841   0.249  0.4419 -0.3139 -0.9869
44517SOL     OW38235   2.133   2.004   6.095 -0.7668 -0.0304  0.2159
44517SOL    HW138236   2.057   2.011   6.153 -0.7088  0.3956  0.2428
44517SOL    HW238237   2.182   2.084   6.110 -0.6808  0.0208 -0.3246
44518SOL     OW38238   4.931   6.777   4.674 -0.1618 -0.2881 -0.2385
44518SOL    HW138239   4.933   6.683   4.658  1.1333 -0.1578 -0.9617
44518SOL    HW238240   4.927   6.816   4.586 -0.9884  0.3345  0.0636
44519SOL     OW38241   9.537   3.302  11.337  0.0585  0.0296 -0.1358
44519SOL    HW138242   9.569   3.212  11.325 -1.5481 -0.3605 -1.9366
44519SOL    HW238243   9.462   3.292  11.397 -0.0529  0.1815 -0.2500
44520SOL     OW38244  11.359   8.279   0.942  0.0453  0.4210 -0.5384
44520SOL    HW138245  11.287   8.268   1.004  0.6809 -0.3455  0.0745
44520SOL    HW238246  11.388   8.190   0.923  1.1531  0.7361 -0.3909
44521SOL     OW38247   2.900  10.302  10.075 -0.0396  0.1310 -0.0978
44521SOL    HW138248   2.928  10.236  10.011 -1.1564  0.0880 -0.5566
44521SOL    HW238249   2.981  10.326  10.120  0.3398 -1.9620  0.4789
44522SOL     OW38250   6.099   1.330   8.620 -0.4691  0.4343  0.3191
44522SOL    HW138251   6.114   1.382   8.698  1.5543 -0.4270  0.5562
44522SOL    HW238252   6.004   1.312   8.621 -1.0198  3.0374  0.8373
44523SOL     OW38253   9.367   5.384   4.266  0.1584  0.0289  0.5699
44523SOL    HW138254   9.394   5.296   4.294  0.5359 -0.1925 -0.4605
44523SOL    HW238255   9.370   5.381   4.171 -0.9865  0.8129  0.4916
44524SOL     OW38256   4.589  11.913   9.202 -0.1241  0.2418  0.1823
44524SOL    HW138257   4.509  11.965   9.206 -1.4664 -1.6636 -0.3702
44524SOL    HW238258   4.604  11.886   9.293 -1.1324 -0.7793  0.0791
44525SOL     OW38259   7.430   1.593   4.756  0.1203  0.1316  0.4505
44525SOL    HW138260   7.339   1.599   4.729 -0.1265  1.2887  1.4575
44525SOL    HW238261   7.468   1.527   4.698 -0.9098  0.9176 -1.1881
44526SOL     OW38262   9.992   1.200   6.814  0.2526  0.3298  0.1505
44526SOL    HW138263  10.010   1.106   6.811  3.0387  0.7821 -0.0249
44526SOL    HW238264   9.938   1.212   6.892 -1.3941 -1.5428 -0.6266
44527SOL     OW38265   4.678   1.520   2.104 -0.2139  0.0223 -0.1313
44527SOL    HW138266   4.588   1.536   2.134 -0.3047  0.6868 -0.7372
44527SOL    HW238267   4.676   1.540   2.011 -0.2122 -3.1083 -0.9150
44528SOL     OW38268  10.690   6.495   4.192  0.2135 -0.7453  0.2238
44528SOL    HW138269  10.613   6.438   4.198  0.7930 -1.5320  0.4268
44528SOL    HW238270  10.660   6.572   4.144 -0.7908 -0.8792  0.6278
44529SOL     OW38271   3.257   2.678   8.602 -0.1344 -0.0967  0.0220
44529SOL    HW138272   3.237   2.732   8.526  1.5856 -0.6992 -0.9298
44529SOL    HW238273   3.320   2.613   8.570 -0.4314 -1.2712  1.6396
44530SOL     OW38274   6.987   1.242   1.640 -0.0728 -0.5818 -0.0832
44530SOL    HW138275   6.904   1.282   1.611 -0.4388 -1.6716 -0.5933
44530SOL    HW238276   7.008   1.288   1.721 -0.4650  0.6566 -0.6473
44531SOL     OW38277  10.013  10.979  10.114 -0.2452 -0.3969 -0.2343
44531SOL    HW138278  10.090  10.928  10.138 -0.9930 -1.3223  0.2348
44531SOL    HW238279   9.991  10.949  10.026  0.6029  0.7099 -0.8510
44532SOL     OW38280   0.655   9.208   1.354  0.1597 -0.1022 -0.2592
44532SOL    HW138281   0.703   9.148   1.297 -1.8433 -0.8629 -1.2539
44532SOL    HW238282   0.642   9.287   1.301 -2.5875 -1.1825 -1.3912
44533SOL     OW38283  11.914   9.178   8.001 -0.5172  0.3948 -0.9508
44533SOL    HW138284  11.876   9.140   7.922 -1.0852  1.7034 -1.3284
44533SOL    HW238285  11.861   9.142   8.072 -3.3223  3.0248 -1.5248
44534SOL     OW38286  10.731   0.305  11.792 -0.2213  0.4448  0.4808
44534SOL    HW138287  10.783   0.226  11.779 -1.3996 -0.2268 -0.4100
44534SOL    HW238288  10.789   0.377  11.769  0.6594 -0.1997  0.6403
44535SOL     OW38289   5.651   2.461   7.565 -0.8211 -0.5287  0.0885
44535SOL    HW138290   5.591   2.501   7.503  0.1812  1.4031  0.3034
44535SOL    HW238291   5.738   2.482   7.532 -0.2625 -0.0497  1.7683
44536SOL     OW38292   8.899   3.005   5.554 -0.0821  0.2989 -0.0699
44536SOL    HW138293   8.974   3.062   5.568  1.1538 -1.1567 -0.4229
44536SOL    HW238294   8.911   2.934   5.617  0.8468 -1.8086 -2.4636
44537SOL     OW38295   9.436   0.705   9.811  0.0255 -0.0950  0.2852
44537SOL    HW138296   9.401   0.784   9.769  0.6069  0.1101  0.1795
44537SOL    HW238297   9.359   0.660   9.846 -0.1253  1.6005  2.2534
44538SOL     OW38298   6.588   4.950   1.765 -0.1940 -0.2823 -0.4877
44538SOL    HW138299   6.652   4.995   1.710 -0.4444  0.4507 -0.1909
44538SOL    HW238300   6.508   4.947   1.712 -0.3997  0.3155 -0.2224
44539SOL     OW38301   8.826   3.957   6.026 -0.3457  0.1020  0.7949
44539SOL    HW138302   8.794   3.867   6.019  0.7611 -0.4610  2.3062
44539SOL    HW238303   8.913   3.954   5.987  0.0651  0.2821  1.6757
44540SOL     OW38304   2.147   8.003   8.258 -0.3216 -0.2813  0.0105
44540SOL    HW138305   2.099   7.927   8.289  0.7771 -1.2192 -0.5035
44540SOL    HW238306   2.194   8.035   8.334 -1.1346  0.1822  0.3355
44541SOL     OW38307   7.225   2.458   9.816  0.2075 -0.0940 -0.0351
44541SOL    HW138308   7.268   2.373   9.822 -1.5365 -1.1924 -2.0666
44541SOL    HW238309   7.269   2.502   9.744 -0.3696 -0.2045 -0.4608
44542SOL     OW38310   5.676   9.939   9.712 -0.1138 -0.0589  0.0205
44542SOL    HW138311   5.670   9.887   9.792 -0.1958 -0.9354 -0.5403
44542SOL    HW238312   5.764   9.977   9.714 -0.4563  0.7230  0.9921
44543SOL     OW38313   7.986   9.621  11.840  0.0660 -0.3717  0.0005
44543SOL    HW138314   7.979   9.544  11.784  1.2830 -1.1839  0.9193
44543SOL    HW238315   8.071   9.659  11.819 -1.7412  2.6932 -2.7852
44544SOL     OW38316   8.537   3.840   3.024  0.1790 -0.1018  0.2340
44544SOL    HW138317   8.537   3.833   2.929  1.2190 -0.7354  0.2695
44544SOL    HW238318   8.629   3.849   3.048  0.0792 -1.5265  1.2777
44545SOL     OW38319  11.354   9.030   6.587  0.4964 -0.2547  0.0245
44545SOL    HW138320  11.269   9.006   6.623 -0.3438  1.8115 -0.4221
44545SOL    HW238321  11.415   8.970   6.629 -1.0953 -1.4174  0.8064
44546SOL     OW38322   6.082   9.372  11.200  0.5091  0.1641 -0.2468
44546SOL    HW138323   6.087   9.468  11.204 -0.4357  0.1854  1.9391
44546SOL    HW238324   6.174   9.345  11.193  0.7850  1.2146 -1.0250
44547SOL     OW38325   9.363   6.677  10.456 -0.0200  0.3459 -0.3250
44547SOL    HW138326   9.320   6.699  10.538  0.5671  0.2048  0.0280
44547SOL    HW238327   9.326   6.738  10.392  1.3645  2.2449  0.5643
44548SOL     OW38328   8.347   4.424   4.125  0.3510  0.1125 -0.0614
44548SOL    HW138329   8.428   4.393   4.084  0.5053 -0.5745  0.7261
44548SOL    HW238330   8.351   4.390   4.215  0.7118  2.7764  1.0250
44549SOL     OW38331  11.175   2.769   5.918  0.1553  0.1653 -0.1646
44549SOL    HW138332  11.137   2.772   6.006 -1.7039  1.1517 -0.9322
44549SOL    HW238333  11.152   2.853   5.879  0.5425 -0.4173 -1.7482
44550SOL     OW38334   0.077   9.962   1.504  0.6100  0.4751  1.1096
44550SOL    HW138335   0.152  10.008   1.466 -0.8581  2.1874  0.1482
44550SOL    HW238336   0.039  10.025   1.565  0.4687 -0.7213  2.2973
44551SOL     OW38337   1.465   7.378   5.691  0.3345  0.3338  0.2028
44551SOL    HW138338   1.479   7.466   5.655  1.0548  0.5422  0.9734
44551SOL    HW238339   1.378   7.382   5.731 -0.8671 -0.1425 -2.1816
44552SOL     OW38340  10.403   8.135   3.814 -0.5945  0.4118  0.5198
44552SOL    HW138341  10.422   8.227   3.829  0.9709  0.0358  1.0654
44552SOL    HW238342  10.486   8.097   3.786 -1.4454 -0.6484 -0.7219
44553SOL     OW38343   3.919   6.564   0.338 -0.0729 -0.3029  0.1353
44553SOL    HW138344   3.915   6.470   0.320 -0.9463 -0.4080  0.8342
44553SOL    HW238345   3.866   6.603   0.268 -0.5848 -0.4213  0.4542
44554SOL     OW38346  10.417   0.473   8.111 -0.2506 -0.3215 -0.2141
44554SOL    HW138347  10.419   0.568   8.101 -1.2240 -0.4334 -1.7990
44554SOL    HW238348  10.509   0.447   8.115  0.0186  0.7104  0.7387
44555SOL     OW38349   4.817   3.298   1.018 -0.6113  0.3490 -0.3401
44555SOL    HW138350   4.846   3.236   0.951  0.5787 -0.5157  0.9188
44555SOL    HW238351   4.889   3.301   1.081 -1.7105  1.0765  0.9467
44556SOL     OW38352   6.360   9.454   9.856  0.3212  0.6124  0.2983
44556SOL    HW138353   6.424   9.518   9.826  1.9252  0.0203  2.2711
44556SOL    HW238354   6.408   9.398   9.917 -2.4655  1.3217  3.4122
44557SOL     OW38355   7.119   5.120   4.997 -0.5675  0.5506 -0.2071
44557SOL    HW138356   7.036   5.088   5.032 -0.2972  0.7100  0.5907
44557SOL    HW238357   7.153   5.047   4.946 -0.7307  0.1283  0.2803
44558SOL     OW38358   2.048   3.234   6.093  0.0781  0.1188  0.0658
44558SOL    HW138359   2.139   3.225   6.066 -0.1774 -1.0592 -0.4726
44558SOL    HW238360   2.019   3.144   6.111 -0.5761  0.5910  1.5956
44559SOL     OW38361   0.720   8.523   7.329 -0.5109  0.2850  0.2084
44559SOL    HW138362   0.687   8.443   7.289 -1.1172 -0.1207  1.4854
44559SOL    HW238363   0.814   8.508   7.338 -0.6592 -0.3968  0.6798
44560SOL     OW38364   5.464   9.027   8.365 -0.4858  0.0728  0.0289
44560SOL    HW138365   5.428   8.986   8.286  0.4959 -1.3482  0.2658
44560SOL    HW238366   5.520   9.097   8.331 -0.6477 -0.0455 -0.5012
44561SOL     OW38367   3.500   3.167  10.127  0.1424  0.1382  0.2283
44561SOL    HW138368   3.455   3.242  10.089 -0.4800 -0.4430 -0.2163
44561SOL    HW238369   3.433   3.126  10.183  0.5230  0.0027  0.5870
44562SOL     OW38370   1.653   7.584   2.561  0.1577  0.3346 -0.0423
44562SOL    HW138371   1.571   7.561   2.517 -0.5993  3.1859 -0.2659
44562SOL    HW238372   1.688   7.499   2.590 -3.6483 -0.9301  1.5585
44563SOL     OW38373   1.458  11.495  10.231  0.0751  0.8419 -0.1873
44563SOL    HW138374   1.482  11.505  10.139  1.3683  0.2667  0.0607
44563SOL    HW238375   1.424  11.406  10.238 -0.4335  1.0341 -0.1874
44564SOL     OW38376   9.248   0.509  10.201 -0.3778  0.6716 -0.0920
44564SOL    HW138377   9.245   0.597  10.237 -0.0869  0.3173  0.8335
44564SOL    HW238378   9.176   0.506  10.138  0.6477  2.0825 -1.3951
44565SOL     OW38379  11.342   3.122   6.207  0.1572 -0.1087  0.0290
44565SOL    HW138380  11.426   3.097   6.169  0.8142  1.1362  0.6003
44565SOL    HW238381  11.313   3.043   6.254  0.3164 -0.9882 -1.3021
44566SOL     OW38382   4.754   3.374   9.388 -0.0635 -0.3472 -0.4499
44566SOL    HW138383   4.662   3.368   9.363 -0.3626  0.6941  0.3452
44566SOL    HW238384   4.762   3.319   9.466 -0.1204 -0.0537 -0.2366
44567SOL     OW38385   3.836   5.782   9.491 -0.5710  0.1168 -0.1006
44567SOL    HW138386   3.875   5.827   9.416  0.6215 -1.8208 -0.7152
44567SOL    HW238387   3.903   5.786   9.559 -0.0511 -1.4592 -0.4766
44568SOL     OW38388   1.393   7.390   9.503 -0.1103 -0.3703 -0.8013
44568SOL    HW138389   1.460   7.393   9.435  0.8019  3.3323  0.0206
44568SOL    HW238390   1.322   7.445   9.470 -1.5005 -1.7910 -0.3627
44569SOL     OW38391   9.368  11.697   9.477  0.2342 -0.4771  0.3120
44569SOL    HW138392   9.280  11.673   9.447  0.2125  1.7868 -1.7374
44569SOL    HW238393   9.354  11.766   9.542  0.4797 -1.1081  1.0476
44570SOL     OW38394   5.858   3.605  11.342 -0.2496  0.2327 -0.2374
44570SOL    HW138395   5.763   3.596  11.336 -0.1523 -0.3269 -1.3176
44570SOL    HW238396   5.873   3.655  11.422 -1.4494  0.3146 -0.0463
44571SOL     OW38397   8.895   3.738   7.603 -0.0636 -0.2733 -0.3064
44571SOL    HW138398   8.956   3.802   7.641 -0.7926  0.1558  0.1840
44571SOL    HW238399   8.943   3.698   7.531  0.5768  0.4988 -0.3211
44572SOL     OW38400   4.919   3.267   3.200 -0.8481  0.3277 -0.5421
44572SOL    HW138401   4.907   3.203   3.271  0.5261 -0.1023 -0.6689
44572SOL    HW238402   4.859   3.237   3.131 -0.3857 -0.7298 -0.5138
44573SOL     OW38403   4.918   0.262   6.670 -0.4081  0.5517  0.3272
44573SOL    HW138404   4.880   0.349   6.676  1.1794  1.1651  3.3580
44573SOL    HW238405   4.980   0.268   6.597 -1.5499  1.3989 -0.6047
44574SOL     OW38406   3.588   5.118   4.861  0.3207 -0.4098 -0.1155
44574SOL    HW138407   3.494   5.106   4.873  0.5905 -1.5313  1.0817
44574SOL    HW238408   3.596   5.208   4.828 -1.0875  0.1512  0.9458
44575SOL     OW38409   7.831   1.181   4.753  0.6466  0.0360 -0.5091
44575SOL    HW138410   7.912   1.230   4.760  1.2072 -0.8347 -0.6615
44575SOL    HW238411   7.762   1.247   4.751  1.3894  0.8128 -0.9712
44576SOL     OW38412   8.403   2.298   7.149  0.4981 -0.2183 -0.7749
44576SOL    HW138413   8.462   2.330   7.217 -0.7927 -0.2032  0.3848
44576SOL    HW238414   8.405   2.366   7.081  1.0212  0.2541 -0.2932
44577SOL     OW38415   8.194   1.697   5.141  0.0198 -0.8804  0.6374
44577SOL    HW138416   8.130   1.657   5.082  1.6149  0.0602 -1.8849
44577SOL    HW238417   8.273   1.642   5.133  1.1980  0.8797 -0.4077
44578SOL     OW38418   8.482   5.713   3.994  0.1078 -0.3920  0.0035
44578SOL    HW138419   8.574   5.738   3.990  0.1781 -0.2784  1.6864
44578SOL    HW238420   8.464   5.700   4.087 -1.2838 -1.5375 -0.3789
44579SOL     OW38421   8.295   2.042  10.043  0.1700 -0.2140 -0.0325
44579SOL    HW138422   8.323   2.008   9.958 -0.6999 -1.8890  0.2956
44579SOL    HW238423   8.235   2.113  10.021  0.7437  0.0460 -0.7974
44580SOL     OW38424   9.941   0.925   7.713  0.4267  0.5031 -0.0527
44580SOL    HW138425   9.979   0.841   7.689  0.1063  0.1932  0.5276
44580SOL    HW238426   9.897   0.954   7.633  1.2027  0.5013 -0.4958
44581SOL     OW38427   1.215   5.553  11.325 -0.1755 -0.3220 -0.5815
44581SOL    HW138428   1.149   5.564  11.256 -0.6056  1.9332  0.1247
44581SOL    HW238429   1.244   5.642  11.345  2.3661 -1.1833 -0.1384
44582SOL     OW38430   2.107   8.886   4.149 -0.1609 -0.0287  0.1840
44582SOL    HW138431   2.116   8.799   4.110  0.4781 -0.4297  1.1723
44582SOL    HW238432   2.181   8.936   4.115  0.8891 -0.6357  1.4798
44583SOL     OW38433   3.441   4.518   4.565  0.3961 -0.0236 -0.6636
44583SOL    HW138434   3.460   4.432   4.602  0.1218 -0.1849 -0.9021
44583SOL    HW238435   3.474   4.514   4.475 -0.8058 -0.3281 -1.1027
44584SOL     OW38436   0.541   0.510  10.249 -0.3052  0.0573  0.7696
44584SOL    HW138437   0.501   0.522  10.335 -1.0550  1.9384  0.2140
44584SOL    HW238438   0.507   0.582  10.196  0.8691 -0.4997 -0.8491
44585SOL     OW38439   4.328   0.875   6.799  0.3863  0.3333 -0.5945
44585SOL    HW138440   4.265   0.814   6.837 -0.1695  0.9678 -0.4767
44585SOL    HW238441   4.286   0.906   6.719  1.1211 -0.2340 -1.2128
44586SOL     OW38442   3.657   7.061  10.989 -0.2058  0.6270 -0.0752
44586SOL    HW138443   3.742   7.090  10.957 -0.4006  2.3405  0.8231
44586SOL    HW238444   3.674   7.027  11.076 -0.2301 -0.5071 -0.4999
44587SOL     OW38445   5.056  10.919   3.872 -0.2500  0.7029  0.1939
44587SOL    HW138446   5.081  10.827   3.876 -0.4287  0.6956  2.0533
44587SOL    HW238447   5.114  10.962   3.935 -1.1949  1.6011  0.4740
44588SOL     OW38448   3.558   2.846   3.060 -0.2392 -0.1534  0.3029
44588SOL    HW138449   3.508   2.826   3.139  0.6206 -0.0075  0.8995
44588SOL    HW238450   3.612   2.768   3.045 -1.4871 -0.7968 -1.0258
44589SOL     OW38451   3.706   4.299   6.076  0.2729 -0.6526  0.2004
44589SOL    HW138452   3.649   4.229   6.044 -1.6408  1.3363 -0.9761
44589SOL    HW238453   3.697   4.296   6.171 -3.5552  0.8141  0.0602
44590SOL     OW38454   8.899   8.459   3.234  0.1707  0.1609  0.1910
44590SOL    HW138455   8.924   8.473   3.143  1.8931 -0.5511  0.5119
44590SOL    HW238456   8.869   8.368   3.238 -1.3067  0.6167  0.0782
44591SOL     OW38457   4.256  11.179   2.365  0.4383 -0.4430  0.4022
44591SOL    HW138458   4.250  11.252   2.427 -0.3102 -0.9538  0.9547
44591SOL    HW238459   4.235  11.219   2.280 -0.3213 -0.0681  0.7493
44592SOL     OW38460  11.921   4.636  11.481  0.5468  0.2822  0.1688
44592SOL    HW138461  12.010   4.627  11.446  1.2152 -0.7051  1.9884
44592SOL    HW238462  11.933   4.652  11.574 -1.1969  1.1265  0.2985
44593SOL     OW38463   6.124   3.392   0.693  0.1652  0.3469  0.1591
44593SOL    HW138464   6.029   3.399   0.682  0.1640 -0.9612 -0.9995
44593SOL    HW238465   6.151   3.326   0.628  1.7755  0.2004  0.9232
44594SOL     OW38466   2.528   1.717   7.722  0.1835 -0.1566  0.2590
44594SOL    HW138467   2.535   1.813   7.729  1.0901 -0.1830 -0.1737
44594SOL    HW238468   2.445   1.696   7.765  0.2131  0.7782  0.7993
44595SOL     OW38469   7.631   6.221   1.726 -0.1832  0.3990  0.2529
44595SOL    HW138470   7.622   6.214   1.821 -0.3706 -0.7180  0.1654
44595SOL    HW238471   7.608   6.134   1.693  0.9408  0.4589 -0.7399
44596SOL     OW38472   1.507   8.626   2.344 -0.1523  0.4530 -0.1289
44596SOL    HW138473   1.470   8.705   2.382 -2.6362 -0.2216 -0.9672
44596SOL    HW238474   1.579   8.658   2.289  0.9946  1.7584  1.9870
44597SOL     OW38475   3.975   4.793   7.865 -0.1292 -0.0732 -0.0346
44597SOL    HW138476   4.038   4.739   7.913  1.5487  1.3070 -0.5883
44597SOL    HW238477   3.938   4.734   7.800  3.0805 -0.2352 -1.9401
44598SOL     OW38478   0.221   9.893   0.332  0.2267 -0.1826 -0.6024
44598SOL    HW138479   0.274   9.940   0.395  0.5863 -0.8450 -0.4023
44598SOL    HW238480   0.175   9.826   0.383 -1.0757  0.5862 -0.7104
44599SOL     OW38481   4.682   2.722   2.801 -0.4243 -0.3327  0.4575
44599SOL    HW138482   4.762   2.728   2.748 -2.0524 -0.1676 -2.1859
44599SOL    HW238483   4.656   2.630   2.794 -0.9876 -0.1741  0.3931
44600SOL     OW38484   0.262   3.911   8.086  0.1292  0.3936  0.0708
44600SOL    HW138485   0.301   3.887   8.170 -1.2427  2.3664  1.3684
44600SOL    HW238486   0.183   3.857   8.080 -0.6554  1.3946  0.9047
44601SOL     OW38487   6.221   4.734   6.758 -0.1521 -0.3013  0.2181
44601SOL    HW138488   6.148   4.778   6.802  0.6347  0.5379  0.7254
44601SOL    HW238489   6.265   4.685   6.827 -0.1377 -0.6632 -0.0479
44602SOL     OW38490   9.843   6.192   9.900  0.0952 -0.3923  0.1982
44602SOL    HW138491   9.912   6.135   9.934  0.5575  0.9305  1.5942
44602SOL    HW238492   9.868   6.280   9.929 -0.7452  0.5052 -1.6294
44603SOL     OW38493   4.506   7.011   4.389 -0.7223 -0.2393 -0.4160
44603SOL    HW138494   4.556   7.004   4.470 -1.7489  0.5911  0.3270
44603SOL    HW238495   4.518   6.927   4.345 -1.1642 -1.1851  1.2188
44604SOL     OW38496   9.862   2.628   9.330  0.0544 -0.1279 -0.5727
44604SOL    HW138497   9.956   2.609   9.329  0.2410  0.7386 -2.0783
44604SOL    HW238498   9.824   2.556   9.382  1.6839  0.4254  1.5378
44605SOL     OW38499   9.873   8.615  10.352  0.6895  0.4061 -0.3249
44605SOL    HW138500   9.822   8.666  10.415 -3.2590 -3.6970  0.3223
44605SOL    HW238501   9.836   8.639  10.267 -0.1543 -0.2372 -0.1570
44606SOL     OW38502  10.837  10.426  11.754  0.3786  0.0331 -0.3979
44606SOL    HW138503  10.926  10.402  11.730  0.3576 -1.0654  0.5194
44606SOL    HW238504  10.813  10.364  11.823 -1.0041  0.4679 -0.4464
44607SOL     OW38505   6.325  11.354  11.101 -0.1694  0.6219 -0.0304
44607SOL    HW138506   6.313  11.268  11.061  0.5297  1.0665 -1.2631
44607SOL    HW238507   6.236  11.386  11.116 -0.4360 -0.0777 -0.0978
44608SOL     OW38508   3.165   5.680   5.247  0.4520 -0.0923  0.2397
44608SOL    HW138509   3.158   5.775   5.247 -1.5642 -0.1945  1.2589
44608SOL    HW238510   3.164   5.656   5.154 -0.9997  0.7794  0.0033
44609SOL     OW38511   0.316  11.197   5.870  0.0454 -0.5955  0.0256
44609SOL    HW138512   0.404  11.193   5.907 -0.1427  0.3385  0.6169
44609SOL    HW238513   0.329  11.225   5.780  0.4521 -2.0671 -0.3973
44610SOL     OW38514  10.383   7.626   0.623  0.3986  0.5244 -0.1531
44610SOL    HW138515  10.377   7.630   0.528  1.1117  0.0356 -0.2332
44610SOL    HW238516  10.406   7.715   0.649 -0.0755  0.7256 -0.4090
44611SOL     OW38517   2.696   9.865   0.840  0.4210 -0.1950  0.4638
44611SOL    HW138518   2.647   9.873   0.922  0.2573 -0.4378  0.3904
44611SOL    HW238519   2.765   9.931   0.847  0.3279 -0.1250  0.7403
44612SOL     OW38520   7.772  10.269   9.690 -0.0606  0.1414  0.1188
44612SOL    HW138521   7.763  10.246   9.782  0.9855 -0.5080  0.0750
44612SOL    HW238522   7.860  10.306   9.682 -0.8044  1.9606 -0.2901
44613SOL     OW38523   8.622   7.441   2.648  0.4495 -0.1821 -0.0299
44613SOL    HW138524   8.561   7.446   2.575  0.2284  1.3891  0.2278
44613SOL    HW238525   8.568   7.415   2.723  0.4148 -0.4454 -0.1478
44614SOL     OW38526   5.199  10.441   4.400  0.2469  0.1792 -0.2563
44614SOL    HW138527   5.275  10.464   4.452  0.5178 -0.5195 -0.3348
44614SOL    HW238528   5.189  10.346   4.411 -0.2223  0.1591 -0.7575
44615SOL     OW38529   4.699  10.972   3.081  0.4306  0.4737 -0.0887
44615SOL    HW138530   4.618  11.012   3.048  0.9346  0.6508 -1.1792
44615SOL    HW238531   4.764  11.043   3.074  0.4873  0.6304  1.6829
44616SOL     OW38532   5.000   1.547  11.091 -0.0491  0.3643 -0.5159
44616SOL    HW138533   5.041   1.468  11.126 -1.2971  0.2926  0.9242
44616SOL    HW238534   5.072   1.599  11.056  0.9419 -0.8201 -0.2949
44617SOL     OW38535  11.068   4.428  10.715 -0.1857 -0.5987 -0.2876
44617SOL    HW138536  11.064   4.441  10.621 -1.1345 -0.5913 -0.2580
44617SOL    HW238537  11.147   4.473  10.743 -0.3996  0.2096 -0.9588
44618SOL     OW38538   2.159   7.139   8.618 -0.1508 -0.6662  0.4986
44618SOL    HW138539   2.228   7.126   8.682  0.5371  0.5895  0.0404
44618SOL    HW238540   2.129   7.229   8.632 -2.4935 -1.4958  1.4270
44619SOL     OW38541   6.686   9.364   4.748 -0.0771  0.0755  0.4556
44619SOL    HW138542   6.757   9.360   4.812 -0.4448 -0.1491  0.8503
44619SOL    HW238543   6.711   9.302   4.680  0.7168  0.9023 -0.0387
44620SOL     OW38544   4.648   0.517   7.407 -0.5277 -0.0157  1.0417
44620SOL    HW138545   4.648   0.608   7.377  0.8126 -0.0037  1.0301
44620SOL    HW238546   4.672   0.523   7.500 -0.5797 -0.3466  1.0748
44621SOL     OW38547   5.699   3.041  10.843  0.3114  0.0654 -0.1433
44621SOL    HW138548   5.661   3.128  10.828 -1.7419 -0.2360  2.6112
44621SOL    HW238549   5.648   2.983  10.785 -0.3271  0.3197  0.1518
44622SOL     OW38550   1.860   5.798   2.847  0.1795 -0.1869  0.0575
44622SOL    HW138551   1.938   5.765   2.892  0.1353 -0.1828  0.1368
44622SOL    HW238552   1.801   5.723   2.843 -0.8639  0.4400  2.2803
44623SOL     OW38553   3.508   1.475  11.230 -0.1530  0.2904 -0.2161
44623SOL    HW138554   3.591   1.518  11.247 -0.7976  1.1970  0.7878
44623SOL    HW238555   3.492   1.421  11.307  0.1519 -1.0113 -1.0186
44624SOL     OW38556   0.558   9.469   0.115  0.1086 -0.0638 -0.3907
44624SOL    HW138557   0.591   9.396   0.168 -1.3059  1.1790  2.3843
44624SOL    HW238558   0.476   9.437   0.079 -0.6265  0.1713  1.0100
44625SOL     OW38559   1.126   4.116   2.531 -0.3311 -0.6613 -0.0490
44625SOL    HW138560   1.073   4.072   2.597  0.5674  0.1508  1.2667
44625SOL    HW238561   1.213   4.124   2.571 -0.2359  1.5115 -0.5587
44626SOL     OW38562   7.688   0.544   1.884 -0.0437 -0.1966 -0.1090
44626SOL    HW138563   7.653   0.633   1.892 -0.7807 -0.4717 -0.1375
44626SOL    HW238564   7.718   0.539   1.794  1.2201  0.4392  0.2527
44627SOL     OW38565   9.938   0.824   5.097 -0.1225 -0.2923 -0.5128
44627SOL    HW138566   9.883   0.787   5.166  1.4225  0.4551  1.2124
44627SOL    HW238567   9.970   0.747   5.049 -1.3809 -0.8112 -0.5627
44628SOL     OW38568   6.532   4.304   8.273 -0.5287  0.0384  0.3240
44628SOL    HW138569   6.590   4.229   8.287 -0.4994  0.0321  0.1753
44628SOL    HW238570   6.477   4.307   8.351 -1.9768 -1.4569 -0.5764
44629SOL     OW38571   3.262   0.082   6.205  0.3949 -0.7413 -0.3177
44629SOL    HW138572   3.296   0.108   6.291 -0.1534 -0.7589 -0.0946
44629SOL    HW238573   3.257   0.163   6.155  0.4445 -0.6903 -0.2403
44630SOL     OW38574   5.012   5.128   0.495  0.4110  0.2912 -0.2685
44630SOL    HW138575   5.055   5.125   0.409  1.2226 -0.1901  0.1387
44630SOL    HW238576   5.076   5.088   0.555  0.3635  1.7055  0.7794
44631SOL     OW38577   5.362   7.896   0.203 -0.7728  0.4938  0.2921
44631SOL    HW138578   5.334   7.924   0.290 -0.1433 -0.6885  0.9040
44631SOL    HW238579   5.437   7.839   0.219 -0.5809  0.3342 -1.0406
44632SOL     OW38580  11.261   5.688   3.134  0.0067  0.6136 -0.1305
44632SOL    HW138581  11.236   5.740   3.057  0.4949  0.6794 -0.2428
44632SOL    HW238582  11.285   5.754   3.200  0.3809  0.5319 -0.1884
44633SOL     OW38583   7.914   7.424   9.383  0.1220  0.5258  0.3155
44633SOL    HW138584   7.958   7.490   9.435  1.2871 -1.1948  1.6303
44633SOL    HW238585   7.938   7.341   9.424 -3.6379 -0.6348  0.5738
44634SOL     OW38586   0.178   8.496   6.876  1.0199  0.2731  0.3094
44634SOL    HW138587   0.120   8.566   6.848 -0.3384 -1.5723 -1.8683
44634SOL    HW238588   0.165   8.490   6.970 -1.0285  1.0556  0.1173
44635SOL     OW38589   8.300   5.583   9.850  0.1862  0.4440 -0.0722
44635SOL    HW138590   8.326   5.542   9.768 -2.2369 -2.4260  0.3902
44635SOL    HW238591   8.207   5.560   9.860  0.3176  0.8328  3.3578
44636SOL     OW38592   7.860   8.433   1.198 -0.3434 -0.1981  0.2276
44636SOL    HW138593   7.861   8.434   1.294  1.2847 -0.4598  0.2381
44636SOL    HW238594   7.808   8.356   1.175  0.0614 -0.6849  0.9190
44637SOL     OW38595   5.740   1.371   7.351 -0.0864  0.4590 -0.1040
44637SOL    HW138596   5.768   1.391   7.262 -1.7000  0.9014 -0.5381
44637SOL    HW238597   5.659   1.419   7.363  0.2745  0.7044  1.7495
44638SOL     OW38598   4.571   0.366   8.303  0.2535  0.7812 -0.2756
44638SOL    HW138599   4.600   0.426   8.372  0.7826 -0.5149  0.6649
44638SOL    HW238600   4.480   0.390   8.286 -0.0840  0.7406  1.3166
44639SOL     OW38601   5.290   1.841   5.213 -0.0758  0.4787  0.2915
44639SOL    HW138602   5.375   1.859   5.253  0.7111 -0.6749 -0.7959
44639SOL    HW238603   5.257   1.926   5.186  1.5579  0.7768 -0.8573
44640SOL     OW38604   5.616   7.919   2.776 -0.3452 -0.4842 -0.3556
44640SOL    HW138605   5.580   7.894   2.691  1.0889 -1.2784 -0.7588
44640SOL    HW238606   5.704   7.883   2.777  0.2644  0.8979  0.8253
44641SOL     OW38607   9.106   4.675   4.309 -0.3085 -0.8931 -0.2508
44641SOL    HW138608   9.082   4.751   4.362  2.3909 -0.6863  0.8029
44641SOL    HW238609   9.086   4.600   4.366 -1.3514 -0.9156 -0.6243
44642SOL     OW38610   8.700  10.307  11.585 -0.4155  0.0294 -0.3154
44642SOL    HW138611   8.781  10.295  11.535 -0.2839  0.7055 -0.2743
44642SOL    HW238612   8.631  10.310  11.519 -0.4197 -0.6393 -0.3446
44643SOL     OW38613   7.887   5.796   2.631  0.6340  0.0211 -0.0085
44643SOL    HW138614   7.974   5.761   2.650  0.9787  0.6596 -0.3797
44643SOL    HW238615   7.836   5.721   2.602  1.7324  0.0220 -2.0886
44644SOL     OW38616  11.009   4.167   6.913 -0.3949  0.5018 -0.1817
44644SOL    HW138617  11.030   4.218   6.991  0.9811 -2.0136  1.2540
44644SOL    HW238618  11.093   4.130   6.886 -1.4671 -2.2145 -0.1186
44645SOL     OW38619  11.838   5.850   7.573 -0.2849 -0.2531 -0.4331
44645SOL    HW138620  11.888   5.913   7.521  0.1143  0.2006  0.4786
44645SOL    HW238621  11.747   5.876   7.563 -0.1889 -0.0247 -0.7157
44646SOL     OW38622   2.239  11.589   1.816 -0.3285 -0.1461 -0.6550
44646SOL    HW138623   2.278  11.629   1.893  1.6238  0.7488 -2.0138
44646SOL    HW238624   2.262  11.648   1.744 -0.2140 -2.0024 -2.2505
44647SOL     OW38625   4.842   0.926   9.479 -0.9270  0.3450 -0.3609
44647SOL    HW138626   4.759   0.973   9.490 -0.7282  0.2593  1.9010
44647SOL    HW238627   4.883   0.967   9.404 -3.4772 -0.3440 -2.2801
44648SOL     OW38628   7.524   6.370   1.153  0.1033 -0.1784  0.1302
44648SOL    HW138629   7.615   6.395   1.137  0.1680 -0.3745  0.1939
44648SOL    HW238630   7.479   6.453   1.171 -0.1412  0.1743 -1.8289
44649SOL     OW38631   0.998   0.985   7.816  0.5730  0.3729  0.3139
44649SOL    HW138632   1.059   0.914   7.835 -0.3604 -0.2861  0.9267
44649SOL    HW238633   0.912   0.944   7.815  0.0440  1.4373  0.3660
44650SOL     OW38634   8.929   7.721   4.104  0.3165  0.2184  0.8502
44650SOL    HW138635   8.919   7.669   4.184 -0.1802  0.0630  0.6885
44650SOL    HW238636   9.022   7.716   4.083  0.7117  1.3480  2.1626
44651SOL     OW38637   9.417  10.769   3.322  0.6376  0.3922 -0.0064
44651SOL    HW138638   9.489  10.828   3.301  1.0967 -0.1008  0.1519
44651SOL    HW238639   9.389  10.734   3.237  0.2029  1.0155 -0.1242
44652SOL     OW38640   6.630   2.549   6.623 -0.2019  0.4042  0.5290
44652SOL    HW138641   6.651   2.457   6.609  0.2921  0.8770 -2.7197
44652SOL    HW238642   6.664   2.570   6.710 -0.5026 -2.4803  1.4215
44653SOL     OW38643   7.386   2.505   7.031  0.2489 -0.1007  0.4016
44653SOL    HW138644   7.431   2.564   7.091 -2.1742  1.2489  1.0567
44653SOL    HW238645   7.379   2.554   6.949  0.8360 -0.6934 -0.0084
44654SOL     OW38646   7.532   8.729   3.799 -0.0600  0.2467  0.3677
44654SOL    HW138647   7.482   8.699   3.723  0.2965  0.7702 -0.0815
44654SOL    HW238648   7.483   8.804   3.832 -0.1712  0.0698  0.6114
44655SOL     OW38649   8.009   3.257   5.601  0.0991  0.8781  0.2999
44655SOL    HW138650   7.960   3.254   5.518  0.4579 -0.7331  0.1124
44655SOL    HW238651   7.988   3.343   5.638 -3.1202  0.2218  0.3489
44656SOL     OW38652   3.698   0.635   3.390  0.3328  0.9617 -0.1789
44656SOL    HW138653   3.637   0.660   3.321 -1.0543 -2.6953 -0.4971
44656SOL    HW238654   3.713   0.716   3.439 -3.8188  2.3771 -0.8209
44657SOL     OW38655   2.479  10.976   8.127 -0.2926  0.4118  0.1839
44657SOL    HW138656   2.412  10.943   8.187 -0.3474  1.5736  0.7991
44657SOL    HW238657   2.559  10.931   8.152 -0.6882 -0.4568 -0.0829
44658SOL     OW38658  11.293   4.338   9.276 -0.3328 -0.2787 -0.2393
44658SOL    HW138659  11.384   4.328   9.304 -0.0728  1.0861 -0.5171
44658SOL    HW238660  11.283   4.277   9.203  1.0615  1.1973 -1.7213
44659SOL     OW38661  11.281  10.220   6.712  0.0327  0.4123  0.2535
44659SOL    HW138662  11.190  10.198   6.691  0.2596 -0.6859  0.3275
44659SOL    HW238663  11.277  10.254   6.801 -0.2261 -0.3913  0.5621
44660SOL     OW38664   9.829   9.569   5.813 -0.0259  0.2482  0.6673
44660SOL    HW138665   9.828   9.624   5.734 -0.8511  1.0888  1.2445
44660SOL    HW238666   9.738   9.569   5.843  0.1981 -0.4584  1.3605
44661SOL     OW38667   3.846   6.173   1.846 -0.1515 -0.1709  0.1253
44661SOL    HW138668   3.780   6.138   1.786 -2.8585  0.0724  2.7446
44661SOL    HW238669   3.816   6.261   1.866  1.4348  0.2368  0.8374
44662SOL     OW38670   3.619   4.867   8.702  0.5528 -0.2537  0.2565
44662SOL    HW138671   3.573   4.911   8.774 -0.4401  0.2506 -0.6550
44662SOL    HW238672   3.620   4.775   8.728  0.1011 -0.1000  0.8612
44663SOL     OW38673   8.054  11.258   3.745  0.0751 -0.1672  0.1003
44663SOL    HW138674   8.021  11.210   3.820 -2.3588 -0.3898 -1.0214
44663SOL    HW238675   8.125  11.203   3.710  1.5236  0.1427  2.3678
44664SOL     OW38676   3.224  10.770   8.943 -0.4733  0.4839 -0.6291
44664SOL    HW138677   3.137  10.810   8.941 -0.0221  1.6059  0.6646
44664SOL    HW238678   3.275  10.825   9.002  1.0991 -0.2233 -1.2505
44665SOL     OW38679  10.159   1.258   8.551  0.5435 -0.4574  0.3982
44665SOL    HW138680  10.186   1.345   8.578  2.9870 -1.2190  0.6630
44665SOL    HW238681  10.098   1.229   8.619 -0.2502  0.9856  0.3269
44666SOL     OW38682   9.747   9.796   0.556 -0.1390 -0.6247 -0.0003
44666SOL    HW138683   9.704   9.881   0.571 -0.6867 -0.7729 -0.6951
44666SOL    HW238684   9.704   9.737   0.617  0.2340 -0.4131  0.4770
44667SOL     OW38685   9.064  11.237   6.721 -0.2119  0.1446 -0.0314
44667SOL    HW138686   9.137  11.262   6.664 -1.0215  2.3906 -0.1922
44667SOL    HW238687   8.990  11.225   6.661 -0.4120 -0.2882  0.2982
44668SOL     OW38688   2.252   8.962   0.406 -0.2974  0.2399  0.3023
44668SOL    HW138689   2.290   8.925   0.326 -0.9575 -0.3345  0.2436
44668SOL    HW238690   2.267   9.056   0.399  0.7317  0.0715  0.0871
44669SOL     OW38691   6.862   8.214   3.735 -0.8844 -0.4683 -0.2405
44669SOL    HW138692   6.954   8.221   3.759 -0.6283  2.1467 -1.6233
44669SOL    HW238693   6.815   8.211   3.819  0.3973 -1.4507  0.4712
44670SOL     OW38694   0.849   0.041   5.630  0.3028  0.1030 -0.3201
44670SOL    HW138695   0.863  -0.053   5.628 -0.2433  0.0287 -0.6218
44670SOL    HW238696   0.757   0.052   5.652  0.5162  0.5814  0.3962
44671SOL     OW38697   9.191  10.339   0.066 -0.9368  0.2452 -0.2590
44671SOL    HW138698   9.158  10.429   0.065 -2.0577 -0.1144  0.8474
44671SOL    HW238699   9.143  10.295  -0.004 -1.6914  0.1028  0.3349
44672SOL     OW38700   4.876   8.629  10.007 -0.1447  0.0799  0.1320
44672SOL    HW138701   4.800   8.681  10.033  1.3958  1.1410  2.8013
44672SOL    HW238702   4.937   8.692   9.968  0.0747 -0.4725 -0.4392
44673SOL     OW38703  10.037   5.758   1.551  0.4395 -0.3533  0.1934
44673SOL    HW138704  10.082   5.703   1.615  1.1529 -0.0553 -0.0496
44673SOL    HW238705  10.104   5.817   1.518  0.5028 -1.6072 -2.0901
44674SOL     OW38706   4.192   5.876   7.227  0.2777  0.4860 -0.6636
44674SOL    HW138707   4.188   5.941   7.297  0.2125 -1.3449  1.1305
44674SOL    HW238708   4.286   5.859   7.216  0.2193 -1.0298  0.8155
44675SOL     OW38709   7.706  11.360   4.030 -0.2671 -0.5173  0.3337
44675SOL    HW138710   7.746  11.326   4.110  0.6128 -0.3193 -0.0165
44675SOL    HW238711   7.777  11.364   3.967 -0.9758 -0.7549 -0.4979
44676SOL     OW38712  10.634   2.707   3.014  0.1050 -0.1340 -0.4047
44676SOL    HW138713  10.598   2.713   2.926 -0.3609  0.9011 -0.1597
44676SOL    HW238714  10.721   2.669   3.002 -0.1130 -0.3957 -1.2570
44677SOL     OW38715   9.310   0.653   8.597 -0.7748  0.2882 -0.2187
44677SOL    HW138716   9.290   0.666   8.689  0.3087  0.7619 -0.0360
44677SOL    HW238717   9.405   0.658   8.592 -0.6901 -1.5680 -1.0910
44678SOL     OW38718   3.337   4.891   6.864  0.3390 -0.4892 -0.0608
44678SOL    HW138719   3.387   4.812   6.847  0.8955 -0.3032  0.6649
44678SOL    HW238720   3.308   4.882   6.955 -2.0192 -1.1731 -0.8183
44679SOL     OW38721   2.678   6.303  11.017 -0.6916 -0.5786 -0.5909
44679SOL    HW138722   2.599   6.357  11.013 -1.0341 -0.7365  2.2867
44679SOL    HW238723   2.647   6.214  11.005 -1.4849 -0.9341  3.0128
44680SOL     OW38724   1.398  11.806   5.470  0.2294 -0.5258 -0.9398
44680SOL    HW138725   1.434  11.720   5.448 -0.3794 -1.2226  0.6593
44680SOL    HW238726   1.363  11.839   5.387 -1.6129 -2.8542 -1.1955
44681SOL     OW38727   0.799   2.265   7.195  0.5047 -0.1715 -0.2786
44681SOL    HW138728   0.822   2.310   7.114 -0.2211  0.4955 -0.1234
44681SOL    HW238729   0.852   2.308   7.262  0.5524 -0.2203 -0.2854
44682SOL     OW38730   9.683   4.584   4.174  0.6946 -0.3882  0.4473
44682SOL    HW138731   9.707   4.502   4.131  1.1994  0.0795 -0.1648
44682SOL    HW238732   9.697   4.566   4.267 -0.4421 -1.4146  0.4615
44683SOL     OW38733   3.426   5.909   3.134 -0.1114 -0.3511 -0.1146
44683SOL    HW138734   3.453   6.001   3.136  0.9947 -0.6633  0.1181
44683SOL    HW238735   3.485   5.869   3.070 -2.5750 -0.3371 -2.6124
44684SOL     OW38736   7.078   7.971  11.456 -0.3854 -0.5387 -0.4062
44684SOL    HW138737   7.069   7.958  11.362 -1.4859 -0.4363 -0.3244
44684SOL    HW238738   7.153   8.030  11.465 -0.3891 -0.4053 -1.2272
44685SOL     OW38739   6.717  10.634   4.973 -0.5422  0.3962 -0.3736
44685SOL    HW138740   6.650  10.684   4.927 -1.0722  0.0551  0.0134
44685SOL    HW238741   6.668  10.576   5.032  0.0936  0.1942 -0.0302
44686SOL     OW38742   7.552   8.791   8.014 -0.0704 -0.2595 -0.8838
44686SOL    HW138743   7.538   8.850   8.088 -1.3423  0.5381 -1.7236
44686SOL    HW238744   7.563   8.705   8.054 -1.6051  0.0135  0.2198
44687SOL     OW38745   2.991   4.999   9.780  0.2233  0.5745 -0.4750
44687SOL    HW138746   3.070   4.989   9.832  0.0908 -0.3373 -0.4275
44687SOL    HW238747   2.975   4.912   9.743 -0.2056  0.9814 -1.2829
44688SOL     OW38748   1.407  11.567   3.372 -0.1998  0.0453  0.1383
44688SOL    HW138749   1.479  11.602   3.319  0.8086 -1.0137  0.7641
44688SOL    HW238750   1.421  11.472   3.373 -0.5040 -0.0207  1.8306
44689SOL     OW38751   4.426   2.053  10.416 -0.1138  0.6128  0.1235
44689SOL    HW138752   4.383   2.055  10.502  1.1547 -1.4004  0.8883
44689SOL    HW238753   4.454   1.962  10.406 -0.3963  0.7543 -2.5515
44690SOL     OW38754   8.629   7.944  10.479  0.2974  0.4641  0.5577
44690SOL    HW138755   8.634   7.993  10.398 -0.9119  0.7464  0.6263
44690SOL    HW238756   8.669   8.001  10.545 -0.4518  1.0718  0.5018
44691SOL     OW38757   2.943   2.883   1.542  0.1194 -0.4778 -0.4129
44691SOL    HW138758   2.995   2.895   1.462  0.2530 -0.8453 -0.3814
44691SOL    HW238759   2.876   2.951   1.537  0.1166 -0.5076 -0.8499
44692SOL     OW38760   5.836   6.200  11.378  0.5217  0.9122 -0.5293
44692SOL    HW138761   5.762   6.248  11.340 -1.1741 -2.0468 -1.2554
44692SOL    HW238762   5.829   6.215  11.472 -0.2869  1.5865 -0.6818
44693SOL     OW38763   5.315   8.360   3.412  0.1327  0.4524  0.3673
44693SOL    HW138764   5.381   8.348   3.344  0.7684 -0.0346  1.0645
44693SOL    HW238765   5.364   8.387   3.490 -0.6302  1.4011  0.5402
44694SOL     OW38766   5.558   0.425   2.215  0.5440 -0.3522  0.0014
44694SOL    HW138767   5.482   0.387   2.259 -2.2178  2.7297 -1.6980
44694SOL    HW238768   5.607   0.468   2.285 -0.9941  0.2407  0.7493
44695SOL     OW38769   6.135   7.795  10.649 -0.2147  0.1955 -0.5353
44695SOL    HW138770   6.096   7.719  10.606 -1.7907  0.5079  0.2470
44695SOL    HW238771   6.177   7.844  10.579  0.8299 -1.3660 -1.0475
44696SOL     OW38772   8.012   3.443   1.259 -0.2675 -0.1343  0.7454
44696SOL    HW138773   8.103   3.422   1.279  0.1584  0.2084 -0.7324
44696SOL    HW238774   7.979   3.364   1.216 -0.8617 -0.4706  1.7731
44697SOL     OW38775   6.478   1.327   7.557  0.1279  0.1985  0.2158
44697SOL    HW138776   6.476   1.286   7.643 -0.7947  0.1970  0.1977
44697SOL    HW238777   6.388   1.321   7.525  0.3791  0.5512 -0.5821
44698SOL     OW38778   1.548   2.461   8.715 -0.3108  0.4980  0.1291
44698SOL    HW138779   1.558   2.463   8.620  0.3374 -0.9126  0.1543
44698SOL    HW238780   1.550   2.554   8.740 -0.3563  0.8885 -1.2010
44699SOL     OW38781   0.362   7.312  10.932  0.2834  0.5547 -0.6188
44699SOL    HW138782   0.422   7.326  11.004 -1.5572  0.0982  1.0888
44699SOL    HW238783   0.383   7.225  10.899  0.2622  0.2067  0.2654
44700SOL     OW38784   9.870   5.869  10.085 -0.0652 -0.2194 -0.3998
44700SOL    HW138785   9.909   5.940  10.136 -1.8956 -1.5105  3.1494
44700SOL    HW238786   9.780   5.896  10.070 -0.2983 -1.0316 -0.5436
44701SOL     OW38787  11.678   7.977   9.397  0.0894  0.5307 -0.0455
44701SOL    HW138788  11.660   7.883   9.406 -1.2142  0.9024  1.9308
44701SOL    HW238789  11.729   7.999   9.475  0.9561  1.3714 -0.8190
44702SOL     OW38790   4.760   3.552   1.941 -0.7327 -0.6584 -0.5326
44702SOL    HW138791   4.843   3.515   1.970 -1.1184 -0.7682  0.4659
44702SOL    HW238792   4.766   3.555   1.845  0.5230 -0.4049 -0.4541
44703SOL     OW38793   9.290   6.558  11.031 -0.2617 -0.4119  0.0549
44703SOL    HW138794   9.206   6.535  11.069  0.7035 -2.3832  1.1890
44703SOL    HW238795   9.320   6.633  11.082 -1.1519  0.0741 -0.1182
44704SOL     OW38796   2.786   0.410   3.269 -0.5663  0.6976  0.7260
44704SOL    HW138797   2.758   0.337   3.323 -1.2577  0.3962 -0.0282
44704SOL    HW238798   2.721   0.479   3.285 -1.6807  0.0827 -0.8338
44705SOL     OW38799  10.424   6.170   3.338 -0.0544  0.4981  0.5131
44705SOL    HW138800  10.339   6.200   3.370 -0.6213 -1.4105  0.8863
44705SOL    HW238801  10.462   6.121   3.410 -0.8337 -2.8550 -1.1394
44706SOL     OW38802   2.403  11.879   4.928 -0.2260 -0.2791  0.0325
44706SOL    HW138803   2.439  11.966   4.949 -0.8871  0.4553 -1.6851
44706SOL    HW238804   2.404  11.832   5.012 -1.8020  2.0971  1.5282
44707SOL     OW38805   1.931   4.290   0.624  0.3604 -0.4027  0.1584
44707SOL    HW138806   1.969   4.319   0.707  1.5818  2.2177 -1.1610
44707SOL    HW238807   1.868   4.359   0.602  0.0863 -1.0292 -1.0948
44708SOL     OW38808  10.437   9.062   8.397 -0.0916  0.0654  0.6358
44708SOL    HW138809  10.365   9.055   8.459 -0.1370  1.2101  0.7378
44708SOL    HW238810  10.512   9.022   8.442 -0.1609  0.7476  1.3867
44709SOL     OW38811   4.182   1.870   6.557  0.6244 -0.1080  0.2498
44709SOL    HW138812   4.249   1.841   6.619  0.0438 -1.0012  0.4764
44709SOL    HW238813   4.128   1.792   6.541  1.4247 -0.2413 -2.2642
44710SOL     OW38814  10.253   6.507   8.493 -0.1280 -0.3724  0.3197
44710SOL    HW138815  10.326   6.515   8.555 -0.1041  0.4204  0.2002
44710SOL    HW238816  10.293   6.524   8.408  0.2967 -3.5577 -0.2439
44711SOL     OW38817   0.450   3.198  11.763  0.5221  0.2525  1.1332
44711SOL    HW138818   0.460   3.103  11.760  1.0699  0.2647  2.1398
44711SOL    HW238819   0.535   3.232  11.732  0.1351  0.4259  0.2316
44712SOL     OW38820  10.845   2.898  10.816  0.2898 -0.3350 -0.2258
44712SOL    HW138821  10.770   2.851  10.779  0.6629 -0.3041 -1.0282
44712SOL    HW238822  10.919   2.838  10.803  0.5757  0.0321 -0.2904
44713SOL     OW38823  11.416   8.127   5.515 -0.5133  0.0478 -0.0246
44713SOL    HW138824  11.369   8.170   5.444 -0.9242  1.6969  1.1763
44713SOL    HW238825  11.471   8.062   5.472 -1.1936  0.5804 -1.7804
44714SOL     OW38826   9.159   5.395   5.613  0.1651  0.4003  0.4182
44714SOL    HW138827   9.122   5.424   5.697  1.8249 -0.5958  1.5570
44714SOL    HW238828   9.185   5.304   5.629  0.5593  0.2145 -1.1822
44715SOL     OW38829   8.653   2.020  10.325  0.2976 -0.0126 -0.0644
44715SOL    HW138830   8.664   2.101  10.375  0.1324 -0.4102  0.6126
44715SOL    HW238831   8.604   1.962  10.382  0.5649 -0.6621 -0.4808
44716SOL     OW38832   2.082   6.438   3.646 -0.4449 -0.1587  0.3950
44716SOL    HW138833   2.087   6.519   3.596 -1.8704  0.8016  1.7293
44716SOL    HW238834   2.003   6.394   3.614 -1.1170  0.2495  1.4352
44717SOL     OW38835   9.964   4.793  10.518 -0.0758  0.1522  0.1858
44717SOL    HW138836   9.882   4.762  10.557 -0.2281 -0.6781 -0.7528
44717SOL    HW238837  10.007   4.713  10.487 -0.6633  0.8303 -2.7113
44718SOL     OW38838  10.982   2.245   8.935 -0.3684  0.6296  0.3883
44718SOL    HW138839  11.054   2.307   8.948  1.1623 -0.6053 -1.5871
44718SOL    HW238840  10.939   2.274   8.854 -0.4745 -0.0866  0.1741
44719SOL     OW38841   2.287   7.890   4.327  0.0167 -0.0630  0.1196
44719SOL    HW138842   2.295   7.794   4.327 -2.2958 -0.3231 -0.2728
44719SOL    HW238843   2.237   7.909   4.248  1.2628  1.5948 -0.3126
44720SOL     OW38844   8.017   2.787   8.773 -0.2052 -0.4250 -0.7348
44720SOL    HW138845   8.014   2.695   8.798 -2.7388 -0.1894  0.1920
44720SOL    HW238846   7.926   2.817   8.783  0.3528  1.9227 -1.9786
44721SOL     OW38847   1.661   6.774   9.160  0.2106 -0.1129  0.0270
44721SOL    HW138848   1.740   6.723   9.175 -0.2950 -0.5759  1.2086
44721SOL    HW238849   1.643   6.817   9.243 -0.4076  0.5260 -0.4235
44722SOL     OW38850   7.590   4.059   3.976 -0.7747 -0.0230  0.3263
44722SOL    HW138851   7.572   3.972   3.942 -0.2353  0.3243 -0.9217
44722SOL    HW238852   7.665   4.090   3.925 -0.5597  0.9245  1.1782
44723SOL     OW38853   8.735   6.698  10.716  0.6985 -0.1912 -0.2128
44723SOL    HW138854   8.745   6.611  10.756 -0.2529 -0.5282 -0.6627
44723SOL    HW238855   8.823   6.737  10.719  1.0142 -0.9397  0.5151
44724SOL     OW38856   2.050   1.790   6.408  0.6762  0.0617  0.4985
44724SOL    HW138857   2.019   1.875   6.376  0.1251 -1.0351 -2.1639
44724SOL    HW238858   2.145   1.792   6.394  0.8413  0.6694  1.6220
44725SOL     OW38859   5.889  11.568   1.590  0.0380 -0.0321  0.4179
44725SOL    HW138860   5.910  11.507   1.519 -0.3779  0.7817 -0.4330
44725SOL    HW238861   5.802  11.602   1.567 -1.2846 -1.6542  2.6773
44726SOL     OW38862   0.519   8.420   1.165  0.0297 -0.6010 -0.1331
44726SOL    HW138863   0.495   8.471   1.087  3.1867  0.0877 -0.8039
44726SOL    HW238864   0.515   8.329   1.136 -1.7311 -0.5583 -0.1397
44727SOL     OW38865   1.130   9.834   5.999 -0.0663  0.1700  0.3751
44727SOL    HW138866   1.162   9.839   6.089 -0.0120 -0.6394  0.4073
44727SOL    HW238867   1.142   9.923   5.965  0.8364  0.2506  0.8544
44728SOL     OW38868  11.433  11.883   2.513 -0.3929 -0.0412  0.4177
44728SOL    HW138869  11.446  11.943   2.440 -2.4327 -0.9997 -0.8343
44728SOL    HW238870  11.396  11.804   2.473  2.3659 -2.3153  1.9360
44729SOL     OW38871   2.798   2.376   1.774  0.4106  0.2044 -0.2629
44729SOL    HW138872   2.754   2.433   1.838 -2.9648 -1.0923 -1.1935
44729SOL    HW238873   2.783   2.288   1.808  0.0603 -0.4078 -1.9101
44730SOL     OW38874   7.688  11.705   2.699  0.3294  0.2096  0.1069
44730SOL    HW138875   7.600  11.674   2.723  0.7189 -1.9394 -0.9648
44730SOL    HW238876   7.673  11.763   2.624 -0.1502 -0.7882 -0.5960
44731SOL     OW38877   4.889  10.083   1.785  0.4341  0.1988  0.0310
44731SOL    HW138878   4.844  10.027   1.722  1.8335 -0.8530 -0.0767
44731SOL    HW238879   4.821  10.110   1.846 -0.6437 -0.0323 -1.0337
44732SOL     OW38880  10.380   6.008   2.623  0.0019  0.5637 -0.1749
44732SOL    HW138881  10.434   5.955   2.682 -0.2254  0.6983  0.1565
44732SOL    HW238882  10.373   6.092   2.666 -0.8251  0.4136 -0.0145
44733SOL     OW38883   8.689   1.302   3.687  0.4325 -0.5551  0.1152
44733SOL    HW138884   8.643   1.234   3.737  2.2152 -2.4806 -0.7107
44733SOL    HW238885   8.691   1.377   3.745 -0.2684 -1.7213  1.7252
44734SOL     OW38886   5.534   2.926   6.032  0.0468 -0.6020 -0.0522
44734SOL    HW138887   5.491   2.841   6.021 -0.2627 -0.3202 -1.1302
44734SOL    HW238888   5.626   2.904   6.047 -0.2863 -1.1733  1.3463
44735SOL     OW38889   7.295  10.662   9.121  0.2758  0.4276 -0.3503
44735SOL    HW138890   7.259  10.639   9.207 -0.4630  2.6135 -0.0067
44735SOL    HW238891   7.338  10.582   9.091 -1.1389 -0.9811  1.1641
44736SOL     OW38892   2.092   6.790  11.740  0.4759  0.3958 -0.2510
44736SOL    HW138893   2.061   6.752  11.658  0.2737  2.4149 -1.1807
44736SOL    HW238894   2.141   6.868  11.713  1.4014  0.4799  1.5051
44737SOL     OW38895   4.937   3.269  10.723 -0.0419 -0.1656 -0.0883
44737SOL    HW138896   4.897   3.213  10.790 -1.3095 -0.7357 -1.2722
44737SOL    HW238897   4.928   3.358  10.756 -0.0011 -0.4894  0.8150
44738SOL     OW38898   9.991   6.425   3.065 -0.2243  0.0305 -0.1619
44738SOL    HW138899   9.922   6.384   3.117 -0.6523 -0.0321 -0.7735
44738SOL    HW238900   9.968   6.405   2.974  0.8950 -0.4695 -0.3548
44739SOL     OW38901  11.374   9.705  11.414  0.0594  0.0639  0.0816
44739SOL    HW138902  11.313   9.750  11.355  2.1406  0.8433 -1.6109
44739SOL    HW238903  11.453   9.760  11.414  1.8242 -2.3025 -0.1318
44740SOL     OW38904   6.433   4.308  10.813 -0.1616  0.3249 -0.2166
44740SOL    HW138905   6.360   4.267  10.766 -1.0538  1.4648  0.1363
44740SOL    HW238906   6.434   4.264  10.898  0.8738 -1.1046 -0.9399
44741SOL     OW38907   3.490   5.026   5.395  0.0746 -0.1123  0.1852
44741SOL    HW138908   3.576   5.014   5.434 -0.9535 -1.3141  2.2492
44741SOL    HW238909   3.505   5.020   5.301  2.7301  3.2173  0.2068
44742SOL     OW38910   4.431   0.715  11.446  0.5109  0.1149  0.0249
44742SOL    HW138911   4.352   0.769  11.451  0.8804  0.9252 -1.8412
44742SOL    HW238912   4.405   0.640  11.392  0.6194 -0.4063  0.6879
44743SOL     OW38913  10.438   6.237   9.581  0.2566 -0.2460 -0.0436
44743SOL    HW138914  10.365   6.201   9.531 -0.4176 -0.7224  1.2501
44743SOL    HW238915  10.513   6.229   9.523 -0.6936  0.2149 -1.3927
44744SOL     OW38916   3.168   4.320  11.202 -0.1973  0.0624  0.0002
44744SOL    HW138917   3.154   4.378  11.128 -3.2627  0.1126  0.4788
44744SOL    HW238918   3.229   4.253  11.170  1.0197  1.8097 -1.4887
44745SOL     OW38919   1.984   3.197   5.636 -0.5762 -0.0743 -0.3345
44745SOL    HW138920   1.955   3.225   5.723  0.3704 -1.0295  0.3241
44745SOL    HW238921   2.054   3.134   5.654  0.7504  0.9073 -1.8136
44746SOL     OW38922   4.180   9.959   1.124  0.1202 -0.3181  0.1882
44746SOL    HW138923   4.138   9.873   1.134 -0.2323 -0.3631 -1.5073
44746SOL    HW238924   4.179   9.976   1.030  1.3526  0.9775  0.3733
44747SOL     OW38925   9.333   6.806  10.807  0.6150 -0.0411 -0.3631
44747SOL    HW138926   9.261   6.784  10.748  1.0099 -0.6516 -0.6268
44747SOL    HW238927   9.322   6.746  10.881  0.0121  0.8490  0.2852
44748SOL     OW38928   6.349   0.149   7.733 -0.3413  0.2545  0.3678
44748SOL    HW138929   6.404   0.221   7.762 -1.3377  0.4002  2.0363
44748SOL    HW238930   6.286   0.189   7.672  0.3895  0.3803 -0.3155
44749SOL     OW38931   3.473   5.822   9.296 -0.4985 -0.5920  0.3183
44749SOL    HW138932   3.392   5.870   9.310 -0.0827  0.3455 -0.3774
44749SOL    HW238933   3.477   5.760   9.369 -0.7897  0.7844  1.5513
44750SOL     OW38934  10.078   0.129   8.962  0.2698 -0.3618  0.0397
44750SOL    HW138935  10.103   0.037   8.970  0.4839 -0.4405 -1.2629
44750SOL    HW238936  10.004   0.129   8.901  0.9629  0.4042 -0.8332
44751SOL     OW38937   4.839   8.912   8.745  0.3876  0.1127  0.1397
44751SOL    HW138938   4.905   8.979   8.763  0.5759 -0.0931  0.2235
44751SOL    HW238939   4.764   8.938   8.797  1.0355 -0.6528  1.4928
44752SOL     OW38940   0.448  11.644   9.203  0.1619 -0.2523 -0.2066
44752SOL    HW138941   0.420  11.559   9.170  0.5244 -1.1327  1.6204
44752SOL    HW238942   0.368  11.683   9.240  0.4343 -0.8780  1.1063
44753SOL     OW38943  10.654  11.924   7.438 -0.1406 -0.6283 -0.1325
44753SOL    HW138944  10.726  11.975   7.475 -1.7804  1.3739  0.5365
44753SOL    HW238945  10.617  11.877   7.513  0.1773 -1.2768 -0.3814
44754SOL     OW38946  10.676   8.837   8.505  0.5713  0.1993 -0.9129
44754SOL    HW138947  10.644   8.753   8.472  0.5042 -0.6775  1.2652
44754SOL    HW238948  10.772   8.827   8.506  0.5611  0.1256 -0.6042
44755SOL     OW38949   5.019   9.468   0.114 -0.3820  0.4641 -0.5746
44755SOL    HW138950   4.972   9.407   0.056  0.9627 -0.1721 -1.0525
44755SOL    HW238951   5.023   9.550   0.064 -0.9936  0.5398 -0.5106
44756SOL     OW38952  11.737   1.031   3.404  0.3569 -0.2423  0.5851
44756SOL    HW138953  11.658   0.979   3.397  0.6556 -0.7355  0.8184
44756SOL    HW238954  11.804   0.978   3.361  0.5427  0.2106  0.3061
44757SOL     OW38955   3.746   1.123   8.928  0.0305  0.0232 -0.1476
44757SOL    HW138956   3.808   1.104   8.998  0.4197  0.2835 -0.4205
44757SOL    HW238957   3.719   1.037   8.896  1.2452 -0.1029 -0.9044
44758SOL     OW38958   7.126  10.279  10.204  0.3858  0.1107 -0.5148
44758SOL    HW138959   7.125  10.321  10.290  2.1163 -2.0906  0.6892
44758SOL    HW238960   7.045  10.307  10.162 -0.3336  1.5324  1.6739
44759SOL     OW38961   3.458   8.988   9.075 -0.4052  0.0206  0.0345
44759SOL    HW138962   3.549   8.967   9.094 -0.5790 -0.8234  0.0086
44759SOL    HW238963   3.431   9.045   9.147  0.6640  1.8604 -0.9578
44760SOL     OW38964   0.701   1.992   9.690  0.0099 -0.3211  0.4748
44760SOL    HW138965   0.794   2.014   9.686 -0.0172  0.0441  1.6328
44760SOL    HW238966   0.663   2.035   9.613  0.7069 -0.0508  0.2727
44761SOL     OW38967   1.763   3.022   8.129 -0.4858 -0.1728 -0.2360
44761SOL    HW138968   1.709   3.101   8.129 -0.4658 -0.1124  1.6013
44761SOL    HW238969   1.774   3.000   8.037 -1.2401  1.4548 -0.7472
44762SOL     OW38970   4.575   5.006   4.879 -0.4217  0.0045 -0.2059
44762SOL    HW138971   4.570   4.911   4.886  0.0411 -0.0389 -0.4088
44762SOL    HW238972   4.607   5.036   4.964 -0.9826  0.0215  0.0080
44763SOL     OW38973  11.001   7.880   3.760 -0.1415  0.2549 -0.0620
44763SOL    HW138974  10.914   7.854   3.729 -0.2903 -0.1707  0.6682
44763SOL    HW238975  10.997   7.976   3.765 -0.6754  0.2225  0.2486
44764SOL     OW38976   2.838   3.902   8.789 -0.4335  0.0871  0.2251
44764SOL    HW138977   2.919   3.895   8.839 -0.6676 -0.9015  0.4893
44764SOL    HW238978   2.865   3.934   8.704  0.1162  0.6686  0.6097
44765SOL     OW38979   6.137   6.478  11.573 -0.0953 -0.1902 -0.0656
44765SOL    HW138980   6.199   6.515  11.510  1.8112 -3.1818 -0.1394
44765SOL    HW238981   6.132   6.543  11.643  2.8238  0.3924 -0.2796
44766SOL     OW38982   0.028   7.895   8.196 -0.4392  0.1855  0.1793
44766SOL    HW138983  -0.032   7.960   8.161 -1.9023 -0.7539  0.8181
44766SOL    HW238984   0.043   7.834   8.124 -0.4139  0.3123  0.0776
44767SOL     OW38985   1.646  10.206   0.595  0.2720  0.6209  0.5860
44767SOL    HW138986   1.663  10.141   0.527 -0.2138 -0.1612  1.2020
44767SOL    HW238987   1.571  10.256   0.562  0.7111  0.9451  0.0652
44768SOL     OW38988   3.545   1.758   9.283 -0.1194  0.6382 -0.4096
44768SOL    HW138989   3.507   1.677   9.316  1.3224 -0.0110 -0.2516
44768SOL    HW238990   3.503   1.827   9.334 -1.7428  0.0462 -0.9015
44769SOL     OW38991   2.026   4.074   3.840 -0.3364  0.0286 -0.4059
44769SOL    HW138992   2.084   4.002   3.814 -1.2162 -0.2179 -1.8084
44769SOL    HW238993   2.017   4.127   3.760 -0.6896  1.0088  0.2663
44770SOL     OW38994   4.834   9.214   8.356  0.2804  0.6108 -0.0060
44770SOL    HW138995   4.781   9.293   8.345 -0.8983 -0.1795 -0.1459
44770SOL    HW238996   4.861   9.216   8.448  0.6986  1.4318 -0.1366
44771SOL     OW38997   2.706   8.052   4.200 -0.5915  0.4784  0.1415
44771SOL    HW138998   2.658   8.041   4.118  0.4975 -1.5692 -0.2822
44771SOL    HW238999   2.756   8.133   4.188 -0.7146  0.3908 -1.0759
44772SOL     OW39000   8.619  11.074  10.426  0.3972  0.1009  0.2800
44772SOL    HW139001   8.677  11.002  10.402  0.6047 -0.3017  1.8764
44772SOL    HW239002   8.532  11.045  10.398  0.6249 -0.3076 -0.0258
44773SOL     OW39003   1.121   1.758   5.237  0.4343 -0.5744 -0.3342
44773SOL    HW139004   1.082   1.671   5.222  2.1176 -1.6929  1.3453
44773SOL    HW239005   1.212   1.749   5.208  0.2254  1.2020 -1.7472
44774SOL     OW39006  11.881   8.874  11.893 -0.6236  0.1655  0.0623
44774SOL    HW139007  11.887   8.820  11.814 -0.6765 -1.0515  0.8707
44774SOL    HW239008  11.791   8.864  11.922 -0.7676  1.0903 -0.0371
44775SOL     OW39009   5.259  11.186   2.966  0.5669  0.1833 -0.4563
44775SOL    HW139010   5.300  11.112   3.011  2.7035  1.7000  0.2943
44775SOL    HW239011   5.298  11.264   3.007 -1.9447  1.7760 -0.8514
44776SOL     OW39012   4.531  10.055   3.266  0.5560 -0.0268  0.3690
44776SOL    HW139013   4.496   9.985   3.320  0.8318  0.5610  1.3243
44776SOL    HW239014   4.575  10.114   3.327  0.0180  1.1776 -0.3700
44777SOL     OW39015   5.143   7.681   2.919  0.6425 -0.5154  0.1133
44777SOL    HW139016   5.119   7.602   2.871 -1.5739 -0.2339  0.6566
44777SOL    HW239017   5.132   7.752   2.856 -0.0206 -0.3715  0.3908
44778SOL     OW39018  11.119   2.479   5.190 -0.0617 -0.2468 -0.0976
44778SOL    HW139019  11.078   2.408   5.239  0.7046  0.4436  1.6490
44778SOL    HW239020  11.068   2.486   5.109 -0.9485 -1.8989  0.2834
44779SOL     OW39021   9.900   8.867   1.384 -0.4566 -0.2635  0.1099
44779SOL    HW139022   9.959   8.893   1.454 -1.4499 -0.2055  0.9375
44779SOL    HW239023   9.958   8.830   1.317  0.5039 -0.2958  0.9374
44780SOL     OW39024   6.568  11.516   9.042  0.7077 -0.2563 -0.1702
44780SOL    HW139025   6.475  11.534   9.024  0.2846 -2.1822 -0.0828
44780SOL    HW239026   6.567  11.452   9.112  2.2071  1.6342  1.7134
44781SOL     OW39027  11.596   0.870   0.316  0.0335 -0.0006 -0.0227
44781SOL    HW139028  11.559   0.948   0.357 -0.3744 -0.0799 -0.2434
44781SOL    HW239029  11.666   0.843   0.376 -2.5942 -2.0202  2.3919
44782SOL     OW39030   6.831   2.928   0.334 -0.0388 -0.7753  0.7253
44782SOL    HW139031   6.763   2.883   0.283  1.6472 -1.1267 -1.3523
44782SOL    HW239032   6.842   3.012   0.290  0.4554 -0.4602  1.4293
44783SOL     OW39033   1.580   7.468   5.090 -0.3975  0.1665  0.0314
44783SOL    HW139034   1.582   7.377   5.061  0.1569  0.1787  0.0137
44783SOL    HW239035   1.658   7.477   5.146 -1.3747  0.1718  1.4356
44784SOL     OW39036   5.573   2.035   9.901 -0.5318  0.1961  0.2437
44784SOL    HW139037   5.608   1.950   9.926  0.7149  0.1310 -1.5157
44784SOL    HW239038   5.640   2.098   9.927  0.5937  0.1658 -2.2390
44785SOL     OW39039   7.649   2.550  10.951 -0.1468 -0.3257 -0.0671
44785SOL    HW139040   7.730   2.502  10.969 -0.7717 -1.9387 -1.3403
44785SOL    HW239041   7.636   2.541  10.856  0.2895  3.3881 -0.6536
44786SOL     OW39042   3.609   7.279   4.416 -1.0100 -0.2474  0.3538
44786SOL    HW139043   3.671   7.216   4.379  0.8397 -0.0612  2.8918
44786SOL    HW239044   3.555   7.227   4.475 -0.0078  0.3426  1.8414
44787SOL     OW39045  10.511   3.783   3.240  0.5700  0.4786 -0.1189
44787SOL    HW139046  10.584   3.821   3.190  0.7522  0.0763 -0.1689
44787SOL    HW239047  10.554   3.737   3.312  0.4283 -0.4912 -0.6383
44788SOL     OW39048   0.665   2.262   4.559  0.0455  0.0737 -0.2316
44788SOL    HW139049   0.637   2.297   4.644  0.6031  0.4655 -0.2053
44788SOL    HW239050   0.756   2.292   4.550  0.3826 -0.9613 -0.4258
44789SOL     OW39051   6.363  10.135   5.614  0.1339 -0.5634  0.5614
44789SOL    HW139052   6.311  10.096   5.684  0.7850 -0.2725  1.2267
44789SOL    HW239053   6.422  10.196   5.659  0.8341 -0.6627 -0.1943
44790SOL     OW39054   3.689   8.519   8.872  0.4744  0.1000  0.1286
44790SOL    HW139055   3.759   8.513   8.937 -0.2629 -0.3241  0.9112
44790SOL    HW239056   3.635   8.592   8.901  0.1084 -0.1287  0.0292
44791SOL     OW39057  10.474   8.476   1.345 -0.0155  0.7931 -0.6330
44791SOL    HW139058  10.405   8.472   1.411  0.1751  0.9686 -0.4196
44791SOL    HW239059  10.440   8.536   1.278  0.0162  1.0467 -0.4243
44792SOL     OW39060   3.255   1.281   7.561  0.2561 -0.4604 -0.5369
44792SOL    HW139061   3.167   1.251   7.538  0.4307 -0.4626 -1.2176
44792SOL    HW239062   3.304   1.200   7.576 -0.2627 -0.4662  1.5273
44793SOL     OW39063   3.922   3.061   4.928 -0.5444 -0.2756 -0.6651
44793SOL    HW139064   3.920   3.093   5.018  2.6160 -1.5615 -0.0122
44793SOL    HW239065   3.842   3.095   4.889 -0.8835  2.3239  1.9394
44794SOL     OW39066   3.911   7.578   4.673  0.5573 -0.0715  0.1880
44794SOL    HW139067   3.866   7.541   4.597  1.9106 -1.6271  0.0895
44794SOL    HW239068   3.971   7.509   4.701  0.6725  0.7819  2.1830
44795SOL     OW39069  10.122  10.123  10.222  0.0014  0.0946  0.2492
44795SOL    HW139070  10.030  10.109  10.201 -0.6240  0.6043  2.3464
44795SOL    HW239071  10.150  10.040  10.262 -0.1133  0.5298  1.2786
44796SOL     OW39072   1.110   2.675   8.041 -0.6924 -0.1296  0.2610
44796SOL    HW139073   1.022   2.654   8.072 -1.0683  1.6534  0.4853
44796SOL    HW239074   1.097   2.714   7.955 -0.2253  1.1017  0.7304
44797SOL     OW39075   5.419   2.209   5.513 -0.2261  0.5443  0.1027
44797SOL    HW139076   5.366   2.270   5.564 -1.8597  0.1129 -0.9946
44797SOL    HW239077   5.467   2.265   5.451  2.1166  1.1154  2.2685
44798SOL     OW39078  10.490   2.413   7.381 -0.1525  0.4689 -0.8731
44798SOL    HW139079  10.492   2.433   7.287 -0.1889 -1.6475 -1.3797
44798SOL    HW239080  10.410   2.361   7.393  0.0589  0.3714  0.2563
44799SOL     OW39081  11.937   9.112   8.725 -0.4428 -0.2410 -0.1093
44799SOL    HW139082  12.030   9.100   8.706 -0.6002  0.4624 -1.5178
44799SOL    HW239083  11.896   9.031   8.693 -0.3295 -0.5228  0.4484
44800SOL     OW39084   1.747   8.067   4.785 -0.5344 -0.5624 -0.4578
44800SOL    HW139085   1.653   8.069   4.798 -0.3137 -1.2740  1.6859
44800SOL    HW239086   1.770   7.974   4.788  0.5021 -0.3098  1.9320
44801SOL     OW39087   2.851   3.904   7.044  0.4295  0.5951  0.3490
44801SOL    HW139088   2.761   3.898   7.077  0.7467 -0.0845  1.1293
44801SOL    HW239089   2.844   3.954   6.963 -0.8959 -0.8136 -0.4714
44802SOL     OW39090   9.856  11.251   5.252 -0.5342  0.0295 -0.1359
44802SOL    HW139091   9.896  11.212   5.174 -0.8249  1.1194 -0.8616
44802SOL    HW239092   9.887  11.342   5.251 -0.9064  0.1675  0.7734
44803SOL     OW39093   5.181   1.403   9.056  0.3268 -0.1011  0.1800
44803SOL    HW139094   5.151   1.494   9.054  0.8323  0.1205  1.5743
44803SOL    HW239095   5.274   1.408   9.035  0.0348 -0.4955 -1.3481
44804SOL     OW39096   1.568   4.621   9.549 -0.1110  0.0069  0.2833
44804SOL    HW139097   1.659   4.628   9.578 -0.5086  1.2704  1.3254
44804SOL    HW239098   1.561   4.681   9.476  0.3253 -1.4979 -1.0532
44805SOL     OW39099   3.326   0.088   2.795 -1.0775  0.3013 -0.2896
44805SOL    HW139100   3.251   0.147   2.795 -1.3126  0.0089 -0.7349
44805SOL    HW239101   3.386   0.126   2.730 -2.0560 -0.9555 -2.0203
44806SOL     OW39102   8.951   2.541   5.347 -0.0652  0.5464 -0.1131
44806SOL    HW139103   9.039   2.546   5.385 -0.6551 -0.3638  1.4861
44806SOL    HW239104   8.926   2.633   5.333  1.1723  0.8116 -0.7378
44807SOL     OW39105   0.638   1.971   3.682 -0.6712 -0.2778  0.0564
44807SOL    HW139106   0.549   1.997   3.658  0.2366  0.6843 -2.6161
44807SOL    HW239107   0.669   2.042   3.739 -1.9324 -1.2075  2.0184
44808SOL     OW39108   9.954   5.868   8.766  0.4194  0.0473  0.1161
44808SOL    HW139109   9.986   5.867   8.856  0.6140 -1.4959  0.0654
44808SOL    HW239110  10.033   5.854   8.713 -0.0721 -2.3900 -0.0845
44809SOL     OW39111   8.795  11.498   2.475 -0.1070 -0.3961 -0.0441
44809SOL    HW139112   8.876  11.530   2.436  1.7410 -3.6478  0.8134
44809SOL    HW239113   8.816  11.483   2.567 -2.3878  0.7338  0.7437
44810SOL     OW39114   1.873   1.389   9.527 -0.1207  0.1940 -0.0978
44810SOL    HW139115   1.887   1.334   9.604 -0.0618 -1.0616 -0.9639
44810SOL    HW239116   1.941   1.456   9.532  0.7745 -0.7098  0.2173
44811SOL     OW39117   4.473   9.196   5.941 -0.2928 -0.1942  0.2618
44811SOL    HW139118   4.467   9.186   5.846 -0.6602  0.3844  0.2198
44811SOL    HW239119   4.453   9.288   5.957  1.1611  0.0419  0.7989
44812SOL     OW39120   1.257   8.464   6.134  0.0520 -0.0161 -0.2468
44812SOL    HW139121   1.304   8.394   6.180 -2.6832 -3.0922 -1.6267
44812SOL    HW239122   1.222   8.520   6.204  1.5162 -0.5908  0.9975
44813SOL     OW39123   8.514   2.225  11.556  0.0707  0.0822  0.2059
44813SOL    HW139124   8.542   2.142  11.594  1.8522  0.7658  0.4757
44813SOL    HW239125   8.468   2.201  11.476  1.1930 -1.1457 -0.1014
44814SOL     OW39126  11.648   7.048   7.392 -0.1285 -0.0853  0.2630
44814SOL    HW139127  11.609   6.968   7.426  1.6287 -0.6721  1.0115
44814SOL    HW239128  11.742   7.030   7.390  0.0757  0.6165 -3.0517
44815SOL     OW39129   8.409   2.614   0.416  0.6008 -0.3420  0.1435
44815SOL    HW139130   8.423   2.680   0.348 -0.5111 -0.3661 -0.1286
44815SOL    HW239131   8.363   2.543   0.371 -0.1039 -0.3821  0.8981
44816SOL     OW39132   3.390   4.221   6.211  0.6463 -0.3043  0.0132
44816SOL    HW139133   3.409   4.144   6.264 -2.9358  0.2170  2.3750
44816SOL    HW239134   3.323   4.192   6.149 -1.2839  0.9566  1.4096
44817SOL     OW39135   3.273   5.160   4.110  0.2919 -0.1567  0.7205
44817SOL    HW139136   3.228   5.175   4.193 -1.4407  0.0172 -0.2055
44817SOL    HW239137   3.204   5.131   4.050  1.5800 -0.7312 -0.5517
44818SOL     OW39138   0.615   4.706   0.507  0.0411 -0.3023 -0.2072
44818SOL    HW139139   0.566   4.787   0.492 -0.6167 -0.8453 -1.0765
44818SOL    HW239140   0.606   4.690   0.601  2.1909  1.8656  0.4706
44819SOL     OW39141   0.945   7.045  10.894 -0.2689 -0.3244 -0.3328
44819SOL    HW139142   0.941   7.041  10.799 -0.6249 -1.8692 -0.2779
44819SOL    HW239143   0.976   7.133  10.913  1.2598 -0.4677 -1.9263
44820SOL     OW39144   1.564  10.984   9.208 -0.0242 -0.0595 -0.1683
44820SOL    HW139145   1.567  11.078   9.225  0.1665 -0.2708  1.1149
44820SOL    HW239146   1.487  10.972   9.152 -1.5941  0.6030  1.6973
44821SOL     OW39147   9.967   0.588   3.699  0.4383 -0.6418  0.2166
44821SOL    HW139148  10.009   0.509   3.664 -0.3133 -0.4212 -1.2529
44821SOL    HW239149   9.919   0.625   3.625 -1.0367 -0.0034  1.4427
44822SOL     OW39150   7.237   7.631   7.546  0.2552 -0.2327 -0.0260
44822SOL    HW139151   7.292   7.583   7.608 -0.7138  1.1724  2.0437
44822SOL    HW239152   7.160   7.655   7.597  0.0547  2.2528 -1.3622
44823SOL     OW39153   4.384   0.197  10.558  0.2235 -0.5810 -0.4848
44823SOL    HW139154   4.458   0.155  10.601 -0.5245 -1.0198  0.3944
44823SOL    HW239155   4.379   0.153  10.473  0.5152 -1.0591 -0.2607
44824SOL     OW39156   7.279   3.964   8.323 -0.7242 -0.3835 -0.3214
44824SOL    HW139157   7.248   3.981   8.412  0.9282  0.7127  0.0899
44824SOL    HW239158   7.312   4.049   8.292 -1.2520 -0.7486 -1.9875
44825SOL     OW39159   8.694   0.194   5.273  0.6725  0.5647  0.2337
44825SOL    HW139160   8.623   0.165   5.331  0.1252  1.9168  0.2624
44825SOL    HW239161   8.743   0.257   5.325 -0.2068  2.2892 -0.9419
44826SOL     OW39162   9.145   8.051   3.563  0.0707  0.3204 -0.3165
44826SOL    HW139163   9.204   8.043   3.488  0.1030 -2.4631 -0.0916
44826SOL    HW239164   9.070   7.996   3.541 -0.6689  0.7167  1.0587
44827SOL     OW39165   6.048  10.997   7.390 -0.0941  0.1935  0.3326
44827SOL    HW139166   6.108  11.034   7.325  0.0252  0.6017  0.6678
44827SOL    HW239167   5.995  10.935   7.341 -0.6906  1.2327 -0.3931
44828SOL     OW39168   3.375   5.166  11.101 -0.5261  0.5645  0.3027
44828SOL    HW139169   3.298   5.153  11.045  0.7754 -0.6059 -1.2972
44828SOL    HW239170   3.434   5.095  11.077  0.4205  0.4695  2.6613
44829SOL     OW39171   8.034   0.661   0.698 -0.4983  0.3001  0.4703
44829SOL    HW139172   8.080   0.679   0.615  1.4993 -1.3013  1.1426
44829SOL    HW239173   8.104   0.641   0.760 -2.0705 -0.8575  1.9535
44830SOL     OW39174   9.966   7.109   8.289  0.0909  0.6089 -0.0923
44830SOL    HW139175   9.936   7.190   8.248  0.1521  0.7809  0.1967
44830SOL    HW239176  10.026   7.070   8.225 -2.4355 -0.8961 -1.6787
44831SOL     OW39177   1.116   1.134   2.046  0.0353  0.0241  0.2358
44831SOL    HW139178   1.034   1.091   2.025  1.3395 -0.8886 -3.7635
44831SOL    HW239179   1.178   1.062   2.061  1.1908  0.4964 -1.9223
44832SOL     OW39180   6.586   1.922   2.073  0.7197  0.1199 -0.3376
44832SOL    HW139181   6.663   1.874   2.103 -0.9134 -2.2881  0.2546
44832SOL    HW239182   6.546   1.957   2.153  0.5271  0.3237 -0.5192
44833SOL     OW39183   9.068   1.295   5.603 -0.3192  0.1184 -0.8705
44833SOL    HW139184   8.998   1.286   5.668  0.1283 -1.9682 -0.6144
44833SOL    HW239185   9.085   1.206   5.574  1.5398  0.7039 -1.6999
44834SOL     OW39186   5.953  10.144   3.727  0.3491 -0.1832  0.1446
44834SOL    HW139187   5.937  10.083   3.799 -0.6053  0.6970  0.7164
44834SOL    HW239188   6.005  10.214   3.767 -2.6514  1.8393  0.8836
44835SOL     OW39189   5.950   6.661  10.313 -0.1754 -0.5200  0.0408
44835SOL    HW139190   5.874   6.707  10.348  0.4661  0.8999 -0.3536
44835SOL    HW239191   6.002   6.729  10.271  1.0857 -1.5368 -0.1155
44836SOL     OW39192   0.654   6.491   0.631 -0.1921  0.1226 -0.2426
44836SOL    HW139193   0.643   6.583   0.656 -0.0876  0.1701 -0.3687
44836SOL    HW239194   0.572   6.469   0.586 -0.6339 -0.1444  0.6807
44837SOL     OW39195   3.861   8.607   6.027 -0.7206 -0.0181 -0.4762
44837SOL    HW139196   3.796   8.649   6.084 -0.7591 -3.2899  2.1416
44837SOL    HW239197   3.816   8.598   5.943 -2.1893  1.2720  0.1200
44838SOL     OW39198  11.181   9.898   7.567 -0.0873  0.0574 -0.3212
44838SOL    HW139199  11.124   9.823   7.551  0.2017  0.0148 -1.2124
44838SOL    HW239200  11.244   9.867   7.632 -1.3830  0.2730  1.0741
44839SOL     OW39201   1.442   1.799   0.427  0.6932  0.0466 -0.4595
44839SOL    HW139202   1.412   1.811   0.337 -1.7392  1.4302  0.4581
44839SOL    HW239203   1.424   1.882   0.471  1.5108 -0.6971  1.4238
44840SOL     OW39204   5.084   8.914   9.262 -0.3767  0.0907  0.4677
44840SOL    HW139205   4.990   8.927   9.269 -0.5474 -0.8564  0.0634
44840SOL    HW239206   5.115   8.914   9.352 -1.1312 -2.0386  0.7768
44841SOL     OW39207  10.068   8.739   9.686 -0.5786  0.3300  0.5725
44841SOL    HW139208  10.067   8.715   9.593  4.5067 -1.2099  0.6380
44841SOL    HW239209  10.063   8.835   9.685  1.0983  0.4756 -1.5141
44842SOL     OW39210   0.582   8.469  11.028 -0.4311 -0.0414 -0.0202
44842SOL    HW139211   0.618   8.514  10.951 -1.1941  1.4329  0.4526
44842SOL    HW239212   0.574   8.378  11.000  0.0275  0.3139 -1.4250
44843SOL     OW39213   8.181   1.182   7.356 -0.0221  0.1991  0.1960
44843SOL    HW139214   8.126   1.250   7.393 -0.0368 -0.1395  0.8139
44843SOL    HW239215   8.266   1.194   7.398 -0.3288 -0.8402  1.1543
44844SOL     OW39216   6.526  10.346   3.100  0.2550 -0.6059 -0.9278
44844SOL    HW139217   6.615  10.360   3.069 -0.2825  2.8568 -1.2734
44844SOL    HW239218   6.470  10.382   3.031 -1.2460  0.5748  0.8235
44845SOL     OW39219   0.534  10.739   0.668  0.0224 -0.5325  0.4044
44845SOL    HW139220   0.499  10.825   0.689  1.9433  0.5118 -0.4100
44845SOL    HW239221   0.462  10.678   0.686 -1.6344  1.3017  0.2607
44846SOL     OW39222   6.828   4.902   3.755  0.4261 -0.2252  0.1286
44846SOL    HW139223   6.787   4.837   3.813  2.1816 -1.1299  0.4246
44846SOL    HW239224   6.822   4.863   3.668 -1.0363  0.5340 -0.1309
44847SOL     OW39225  10.584   3.976   8.646 -0.3853  0.4417 -0.2465
44847SOL    HW139226  10.560   4.061   8.610 -1.9556 -0.0646 -0.5115
44847SOL    HW239227  10.594   3.919   8.570  0.5613  0.3566 -0.0680
44848SOL     OW39228   5.018  10.767  10.784  0.5722 -0.0393  0.7058
44848SOL    HW139229   4.972  10.697  10.737  2.4553 -0.2093 -1.0464
44848SOL    HW239230   5.054  10.724  10.861  1.5035 -0.9879 -0.2273
44849SOL     OW39231   9.411  11.196   0.012  0.3777 -0.2957 -0.6567
44849SOL    HW139232   9.488  11.191   0.069  1.0528  1.3624 -1.3645
44849SOL    HW239233   9.397  11.290  -0.002 -1.6133 -0.5662 -0.7821
44850SOL     OW39234   3.611   5.165  11.858  0.0503 -0.6754 -0.3866
44850SOL    HW139235   3.584   5.241  11.808  0.4169 -0.6898 -0.6135
44850SOL    HW239236   3.561   5.092  11.821  1.8275 -1.0880 -2.2203
44851SOL     OW39237   9.365  10.040   0.467  0.2423 -0.2605  0.1623
44851SOL    HW139238   9.367  10.102   0.394  1.9175 -1.9699 -1.3359
44851SOL    HW239239   9.274  10.042   0.497  0.2016  2.8330  0.1748
44852SOL     OW39240   0.317   6.685   3.194  0.5891  0.9621 -0.7598
44852SOL    HW139241   0.332   6.689   3.288 -1.1802  0.8021 -0.4399
44852SOL    HW239242   0.242   6.625   3.184  0.3051  1.5140 -2.2036
44853SOL     OW39243   7.001   2.877   8.912  0.0036 -0.4233  0.1437
44853SOL    HW139244   7.009   2.828   8.830  0.4107  0.5147 -0.3862
44853SOL    HW239245   7.078   2.853   8.963 -0.1284 -0.8220  0.1617
44854SOL     OW39246   7.756   5.153  11.714  0.2556 -0.4837 -0.4409
44854SOL    HW139247   7.835   5.208  11.712 -0.4015  0.5220  0.0462
44854SOL    HW239248   7.687   5.212  11.745 -0.9150 -1.0670 -1.8163
44855SOL     OW39249   4.485   3.286   7.077  0.2230  0.2125 -0.1209
44855SOL    HW139250   4.477   3.281   6.982  1.4332  0.0534 -0.2338
44855SOL    HW239251   4.512   3.198   7.104 -1.5601 -0.1722  0.5584
44856SOL     OW39252  10.746   3.338   1.162  0.1579 -0.2640  0.1619
44856SOL    HW139253  10.771   3.366   1.074 -1.1085  0.8921  0.1323
44856SOL    HW239254  10.694   3.258   1.148 -0.8964  0.4656 -0.2640
44857SOL     OW39255  11.983   4.226   1.406 -0.4586 -0.2287 -0.4538
44857SOL    HW139256  11.929   4.244   1.329 -1.9745 -1.0562  0.3682
44857SOL    HW239257  12.036   4.304   1.417 -0.5813  0.1067 -2.0315
44858SOL     OW39258   7.731   8.954   0.591 -0.2914  0.1559  0.4729
44858SOL    HW139259   7.812   8.907   0.572 -0.1295  0.0127  1.4326
44858SOL    HW239260   7.699   8.913   0.672 -2.4522 -1.2683 -0.9950
44859SOL     OW39261   7.372  10.900   9.793  0.3651 -0.0878 -0.0952
44859SOL    HW139262   7.332  10.836   9.852 -2.0025 -1.8701 -3.3126
44859SOL    HW239263   7.456  10.861   9.769 -0.2444 -1.1609 -0.5896
44860SOL     OW39264   8.165   3.009   6.550 -0.7871  0.1958 -0.3644
44860SOL    HW139265   8.227   3.070   6.511  0.1803 -0.9037 -0.6010
44860SOL    HW239266   8.210   2.976   6.628 -1.5151  0.1740  0.0583
44861SOL     OW39267   1.158   2.258   8.736 -0.4910 -0.3242  0.0475
44861SOL    HW139268   1.071   2.224   8.718  0.5589 -1.5889 -3.2766
44861SOL    HW239269   1.205   2.185   8.777 -0.2503 -0.5751 -0.6584
44862SOL     OW39270   6.690   6.098   3.371 -0.4754 -0.0235 -0.1422
44862SOL    HW139271   6.638   6.169   3.335  0.6340  0.6288 -0.5090
44862SOL    HW239272   6.769   6.140   3.404  0.8247 -1.1872 -1.5717
44863SOL     OW39273  11.367   6.920   5.957 -0.5349 -0.1971  0.2993
44863SOL    HW139274  11.373   6.827   5.975  1.1105  0.0146  1.0300
44863SOL    HW239275  11.329   6.958   6.036 -0.4607 -0.1608  0.3179
44864SOL     OW39276   7.177   9.000   4.871 -0.0383 -0.4211 -0.3789
44864SOL    HW139277   7.093   8.955   4.869 -0.4163  0.2953 -1.8726
44864SOL    HW239278   7.163   9.077   4.927 -0.0211 -0.9451  0.3523
44865SOL     OW39279   0.149   0.040   8.527 -0.3562 -0.7694  0.5208
44865SOL    HW139280   0.109   0.122   8.498  0.5669 -0.2785  0.5864
44865SOL    HW239281   0.164   0.052   8.621 -0.8256 -1.2778  0.6640
44866SOL     OW39282   6.127  10.033  10.628  0.2126 -0.1404 -0.2364
44866SOL    HW139283   6.106  10.085  10.550 -0.4215  1.8776  1.2126
44866SOL    HW239284   6.223  10.033  10.632  0.2219  1.0987 -0.1716
44867SOL     OW39285   3.661  11.176   4.059 -0.3969 -0.8733  0.3813
44867SOL    HW139286   3.749  11.159   4.092  0.5270 -0.0768 -1.4825
44867SOL    HW239287   3.653  11.272   4.062 -0.1045 -0.7131 -1.8747
44868SOL     OW39288   5.982  11.991   6.242 -0.3938  0.2420  0.2463
44868SOL    HW139289   5.987  11.937   6.321 -0.6490 -0.0008  0.0970
44868SOL    HW239290   5.993  11.929   6.170 -1.6875  0.2409  0.0376
44869SOL     OW39291   3.697   4.318   8.465 -0.1406 -0.2318 -0.8612
44869SOL    HW139292   3.681   4.380   8.536 -0.0762 -1.0195 -0.1471
44869SOL    HW239293   3.735   4.371   8.395  1.8189  0.1954  0.4637
44870SOL     OW39294   1.024   7.734   8.443 -0.1739 -0.1594  0.1815
44870SOL    HW139295   1.067   7.724   8.529  0.2276  0.0014  0.0002
44870SOL    HW239296   0.989   7.647   8.424 -1.2144  0.0489  1.0033
44871SOL     OW39297   0.730   7.313   1.358 -0.3377  0.6233  0.1961
44871SOL    HW139298   0.670   7.314   1.433 -0.2883  0.3464  0.2396
44871SOL    HW239299   0.799   7.375   1.382  0.4835 -0.5673  1.0482
44872SOL     OW39300   1.801   7.325  10.729 -0.1719 -0.3238  0.3926
44872SOL    HW139301   1.845   7.264  10.788 -1.6334  1.2867  3.3801
44872SOL    HW239302   1.716   7.340  10.770 -0.8898  1.6680 -1.6629
44873SOL     OW39303   4.039   8.922   3.499  0.3640  0.0051 -0.3631
44873SOL    HW139304   4.056   8.874   3.580 -0.7611  1.4924  0.8026
44873SOL    HW239305   3.954   8.964   3.513  0.6126  1.1291 -1.9228
44874SOL     OW39306   8.298   8.971   0.987 -0.2048  0.0567  0.7299
44874SOL    HW139307   8.270   8.880   0.979  1.8329 -0.6564  1.0970
44874SOL    HW239308   8.253   9.003   1.065  1.0119 -1.4811  2.1359
44875SOL     OW39309   3.999   4.638  10.611 -0.1021  0.3704 -0.2441
44875SOL    HW139310   3.918   4.590  10.628 -0.4064  0.5320 -1.1693
44875SOL    HW239311   4.063   4.570  10.589 -1.0422  0.3965 -3.6033
44876SOL     OW39312   8.146   6.958   8.499  0.0883 -0.2258 -0.0672
44876SOL    HW139313   8.170   6.884   8.555 -1.5450 -1.0571 -0.4074
44876SOL    HW239314   8.054   6.976   8.521  0.2940  1.3657 -0.3785
44877SOL     OW39315  10.344   2.679   8.743 -0.1322  0.1350  0.1721
44877SOL    HW139316  10.412   2.745   8.759  0.5072  0.1991 -2.3783
44877SOL    HW239317  10.324   2.688   8.650 -2.1955 -1.2888  0.4221
44878SOL     OW39318  10.179   9.351   1.094  0.1699 -0.6711  0.1113
44878SOL    HW139319  10.162   9.440   1.064  0.4926 -0.1369  1.4254
44878SOL    HW239320  10.267   9.355   1.132  1.1011 -2.0821 -1.7276
44879SOL     OW39321  11.540   7.142  10.345  0.3315 -0.1648  0.1477
44879SOL    HW139322  11.476   7.191  10.293 -0.3642 -0.6691  0.4998
44879SOL    HW239323  11.499   7.133  10.431  1.4776  0.6617  0.7920
44880SOL     OW39324   4.924   0.726   2.871  0.4736  0.3517  0.1557
44880SOL    HW139325   4.886   0.814   2.868  0.4113  0.3519  0.7677
44880SOL    HW239326   4.908   0.696   2.960  2.3871  0.5841  0.6381
44881SOL     OW39327   6.220   2.139   9.177 -0.5027 -0.6717  0.5451
44881SOL    HW139328   6.243   2.150   9.269 -0.2447  0.7796  0.3208
44881SOL    HW239329   6.128   2.114   9.178 -0.4435 -0.8931  1.1946
44882SOL     OW39330  10.605   1.433   9.992  0.3473  0.2499 -0.0155
44882SOL    HW139331  10.648   1.517  10.008  0.1666  0.8952 -2.5424
44882SOL    HW239332  10.516   1.456   9.963 -0.1025 -0.8811  0.3874
44883SOL     OW39333   1.598   4.042  11.544 -0.1607  0.0964  0.4070
44883SOL    HW139334   1.580   4.035  11.450 -1.0936  0.9511  0.4935
44883SOL    HW239335   1.561   3.963  11.582 -2.5121  1.0880  0.3783
44884SOL     OW39336   5.805  10.263  11.670  0.4267 -0.0955  0.3001
44884SOL    HW139337   5.868  10.216  11.725  0.5552 -0.2764 -0.0026
44884SOL    HW239338   5.858  10.325  11.620  0.3132  0.0414  0.3471
44885SOL     OW39339   3.968   2.157   9.913  0.2957  0.4500  0.5965
44885SOL    HW139340   3.949   2.169   9.820  0.6165 -0.2517  0.4326
44885SOL    HW239341   3.889   2.189   9.958 -0.0848  0.2857  0.0607
44886SOL     OW39342   2.987   3.105   5.568 -0.1438  0.0008  0.3185
44886SOL    HW139343   3.052   3.120   5.636  1.7286 -0.0399 -1.3871
44886SOL    HW239344   2.962   3.013   5.579 -0.0728  0.0659  1.1018
44887SOL     OW39345   6.739   8.900   9.480  0.0565 -0.1769 -0.2100
44887SOL    HW139346   6.748   8.895   9.384 -0.1146 -1.0881 -0.1850
44887SOL    HW239347   6.722   8.992   9.497 -1.7705 -0.2715 -1.2328
44888SOL     OW39348   0.230   7.143   1.350  0.7449 -0.0443  0.4617
44888SOL    HW139349   0.242   7.176   1.261 -0.1830  1.7378  0.9577
44888SOL    HW239350   0.223   7.048   1.339  0.3527  0.1552 -1.4133
44889SOL     OW39351   5.801   9.111   8.501  0.0477  0.5245  0.0424
44889SOL    HW139352   5.890   9.133   8.474  0.3378  0.4015  0.8688
44889SOL    HW239353   5.745   9.156   8.438  0.6918  0.4618 -0.5894
44890SOL     OW39354  11.660   2.359   5.208 -0.1147  0.4612  0.0194
44890SOL    HW139355  11.683   2.375   5.116 -0.0511  0.8257  0.0966
44890SOL    HW239356  11.669   2.445   5.250 -0.8691  0.4565  0.2131
44891SOL     OW39357   4.820   7.976   4.928 -0.2285 -0.1778 -0.1738
44891SOL    HW139358   4.913   7.995   4.928 -0.2301 -0.1583 -0.5058
44891SOL    HW239359   4.811   7.897   4.982 -0.1827  0.5444  0.9218
44892SOL     OW39360   4.205   5.808   2.594 -0.0702  0.1833 -0.6944
44892SOL    HW139361   4.261   5.743   2.551  2.9177  1.9161  0.2486
44892SOL    HW239362   4.205   5.783   2.687 -2.7341 -0.9641 -0.9104
44893SOL     OW39363   0.034   2.029   5.738  0.3041  0.0379  0.7299
44893SOL    HW139364   0.122   2.018   5.703  0.6265 -0.2893  1.6365
44893SOL    HW239365  -0.024   1.999   5.667  0.9515 -0.8967  0.5876
44894SOL     OW39366   0.763  10.621   5.252 -0.7307  0.2961 -0.0099
44894SOL    HW139367   0.732  10.531   5.246 -2.2763  0.8385 -0.7474
44894SOL    HW239368   0.774  10.636   5.346  1.5034 -1.2421  0.0436
44895SOL     OW39369   0.739   1.199   6.881  0.4183  0.5153 -0.4552
44895SOL    HW139370   0.821   1.167   6.919  1.1580  0.7261 -1.8350
44895SOL    HW239371   0.714   1.272   6.937  0.6096 -0.1867  0.5907
44896SOL     OW39372   0.382   2.515   1.406 -0.1278 -0.4351 -0.1773
44896SOL    HW139373   0.323   2.459   1.356 -1.4417  1.5352 -0.9752
44896SOL    HW239374   0.413   2.579   1.342 -0.1411  0.8470  1.0567
44897SOL     OW39375   9.965   5.306   1.355  0.6726 -0.1671  0.8952
44897SOL    HW139376   9.925   5.236   1.304  2.2482 -0.4324 -0.0585
44897SOL    HW239377   9.991   5.264   1.438 -1.0030  0.0282  1.5466
44898SOL     OW39378   0.894  10.560   6.971 -0.0667 -0.1980  0.0899
44898SOL    HW139379   0.800  10.543   6.977 -0.0135 -0.7257 -0.5116
44898SOL    HW239380   0.925  10.552   7.061 -0.3051 -1.7706  0.0528
44899SOL     OW39381  10.257   6.730   7.972  0.4127  0.8639  0.3732
44899SOL    HW139382  10.233   6.731   7.879 -1.2073 -1.7130  0.6612
44899SOL    HW239383  10.345   6.692   7.973  0.8635  1.8477 -0.1328
44900SOL     OW39384  11.744   7.549   0.360  0.0961 -0.1643  0.3784
44900SOL    HW139385  11.738   7.472   0.418  0.4140  0.7274  1.6316
44900SOL    HW239386  11.699   7.522   0.280 -0.5075 -1.3839  1.0943
44901SOL     OW39387  11.628  10.310  11.757  0.1853 -0.0058  0.1583
44901SOL    HW139388  11.647  10.243  11.691  1.4549  0.6240 -0.1412
44901SOL    HW239389  11.665  10.391  11.721 -2.2090  1.1254  0.0383
44902SOL     OW39390   4.500   0.574   7.771  0.1521  0.7233  0.0310
44902SOL    HW139391   4.580   0.610   7.808  0.3119  0.3626  0.0405
44902SOL    HW239392   4.529   0.503   7.714 -0.1468  0.7307 -0.1379
44903SOL     OW39393  11.353  10.034   8.719 -0.0894  0.2395 -0.3996
44903SOL    HW139394  11.336   9.992   8.635 -0.7776 -3.8236  1.4978
44903SOL    HW239395  11.269  10.032   8.764  0.2426  2.4218  0.4137
44904SOL     OW39396   6.337   3.593   2.638  0.0030 -0.7232 -0.4943
44904SOL    HW139397   6.373   3.612   2.551  0.3252 -0.2114 -0.2531
44904SOL    HW239398   6.345   3.676   2.686 -2.9196 -0.0918 -0.9089
44905SOL     OW39399   3.547   6.901   2.053  0.5947  0.0527  0.6321
44905SOL    HW139400   3.640   6.899   2.077  0.6939  0.1119  0.2581
44905SOL    HW239401   3.501   6.891   2.136  0.9346  0.4666  0.8790
44906SOL     OW39402   9.200   9.164   8.275  0.3400  0.0323 -0.0525
44906SOL    HW139403   9.270   9.139   8.214  0.5684 -0.3760  0.3791
44906SOL    HW239404   9.161   9.241   8.234  0.5260 -0.2039 -0.6956
44907SOL     OW39405   9.832   1.146   5.900  0.4701  0.3074 -0.5526
44907SOL    HW139406   9.827   1.241   5.887 -1.1772  0.0882 -1.7762
44907SOL    HW239407   9.890   1.115   5.831 -1.1701  0.1513 -1.9117
44908SOL     OW39408  11.098   1.062   4.926  0.1142 -0.5278  0.0081
44908SOL    HW139409  11.124   0.992   4.865  2.1893  0.9737 -0.9198
44908SOL    HW239410  11.147   1.043   5.006 -2.7862 -2.6352  1.5011
44909SOL     OW39411  10.059   4.494   8.516  0.4809  0.0711  0.4543
44909SOL    HW139412  10.126   4.502   8.584  1.9289  1.2904 -1.0175
44909SOL    HW239413  10.108   4.471   8.437 -1.0915 -0.8029 -0.3062
44910SOL     OW39414   9.600   6.932   1.137 -0.8579  0.0722  0.6076
44910SOL    HW139415   9.600   6.929   1.042 -2.9029 -1.1524  0.5927
44910SOL    HW239416   9.585   6.842   1.165  0.0842  0.3394  2.1200
44911SOL     OW39417   1.366   4.611   9.770  0.2974 -0.2965  0.5261
44911SOL    HW139418   1.417   4.623   9.690 -0.3512 -0.9950 -0.0064
44911SOL    HW239419   1.276   4.596   9.740  0.0685 -0.7243  1.3701
44912SOL     OW39420   2.559   1.376   8.961 -0.2303 -0.0199 -0.5509
44912SOL    HW139421   2.497   1.408   9.027 -0.4090 -0.3551 -0.5506
44912SOL    HW239422   2.641   1.363   9.009 -0.5667 -1.0075 -0.2103
44913SOL     OW39423   2.121   8.938  10.773  0.2303  0.3298 -0.2515
44913SOL    HW139424   2.107   8.844  10.759 -0.4095  0.5643 -1.3086
44913SOL    HW239425   2.101   8.978  10.688  0.9672  1.3761  0.0519
44914SOL     OW39426   3.166   4.471  10.972  0.1250  0.2219 -0.2905
44914SOL    HW139427   3.228   4.543  10.983 -2.3006  2.4257 -0.0935
44914SOL    HW239428   3.195   4.427  10.892  4.2023 -1.4379  1.7784
44915SOL     OW39429   3.388   7.829   2.982  0.2564  0.2711  0.3404
44915SOL    HW139430   3.322   7.872   2.928  1.1915 -0.0394 -1.1026
44915SOL    HW239431   3.441   7.778   2.920  1.1836 -0.3439  1.5881
44916SOL     OW39432   2.772  10.662   6.246 -0.3981 -0.3277 -0.1025
44916SOL    HW139433   2.856  10.640   6.284 -0.1159  0.8296 -0.0164
44916SOL    HW239434   2.770  10.617   6.162  1.0473  0.9901 -0.8828
44917SOL     OW39435  10.050  10.043   4.271 -0.1071  0.5228  0.0914
44917SOL    HW139436  10.004  10.032   4.354  0.1667  2.3056  0.5394
44917SOL    HW239437  10.123   9.982   4.275  0.1376  0.8742  1.3622
44918SOL     OW39438   8.182   2.415   3.386  0.1293  0.2814 -0.5730
44918SOL    HW139439   8.168   2.508   3.406 -1.1713  0.3381 -1.5995
44918SOL    HW239440   8.209   2.415   3.294 -0.9188 -0.4084 -0.8989
44919SOL     OW39441   0.801   9.279   8.989 -0.2512  0.1432 -0.1997
44919SOL    HW139442   0.871   9.217   8.969 -1.3332 -1.0348 -0.4481
44919SOL    HW239443   0.821   9.356   8.936  1.8018  0.5288  1.0522
44920SOL     OW39444   0.146   0.210   4.198  0.2925  0.2568 -0.2602
44920SOL    HW139445   0.101   0.255   4.126 -0.2468 -0.8520 -0.6347
44920SOL    HW239446   0.153   0.119   4.169 -0.4353 -0.3327  1.3046
44921SOL     OW39447   0.791   6.114   4.975 -0.1186 -0.0462  0.0871
44921SOL    HW139448   0.700   6.093   4.996 -0.2885 -1.2327 -1.5636
44921SOL    HW239449   0.828   6.031   4.945  1.4760  0.4543  0.5668
44922SOL     OW39450   5.203  11.217   4.373  0.2370  0.1954 -0.2276
44922SOL    HW139451   5.170  11.155   4.438 -0.3059  0.6190 -0.0923
44922SOL    HW239452   5.156  11.298   4.391 -1.0768 -0.0854 -2.0896
44923SOL     OW39453   9.208   2.247   3.725 -0.2350 -0.0521 -0.5469
44923SOL    HW139454   9.271   2.241   3.796 -0.0768  2.0749 -0.4628
44923SOL    HW239455   9.260   2.272   3.649 -0.2072 -3.3563 -1.8069
44924SOL     OW39456   2.674  10.897   2.860 -0.0761 -0.1668 -0.0866
44924SOL    HW139457   2.688  10.894   2.955  0.7003 -1.9670 -0.2117
44924SOL    HW239458   2.761  10.889   2.823 -0.4952 -0.9662 -0.9399
44925SOL     OW39459   4.897   2.166   3.879  0.4219  0.0141  0.2843
44925SOL    HW139460   4.830   2.229   3.905 -0.2434 -0.3649 -0.4826
44925SOL    HW239461   4.852   2.103   3.823  1.6826  0.5569 -1.4550
44926SOL     OW39462   4.591   6.121   5.413 -0.2304 -0.1338 -0.0788
44926SOL    HW139463   4.673   6.098   5.457  1.6689  0.0495 -3.2381
44926SOL    HW239464   4.560   6.039   5.375 -0.3864  0.1890 -0.6569
44927SOL     OW39465   1.979   0.542   2.242  0.2322  0.0895 -0.3560
44927SOL    HW139466   2.010   0.462   2.283 -0.1771 -0.1717 -0.5508
44927SOL    HW239467   2.043   0.609   2.268  0.1015 -0.1140  0.5114
44928SOL     OW39468  11.827  11.866   3.601  0.2013  0.1484 -0.1729
44928SOL    HW139469  11.870  11.951   3.612 -1.0137  0.7191  0.3211
44928SOL    HW239470  11.734  11.887   3.594 -0.1334 -1.1653  0.1646
44929SOL     OW39471   7.779  11.898   5.016  0.3650 -0.5172 -0.0794
44929SOL    HW139472   7.799  11.992   5.014  0.2998 -0.4401  1.3393
44929SOL    HW239473   7.861  11.857   5.040  0.7310 -0.9794 -1.9981
44930SOL     OW39474  10.043   5.357   1.790  0.2771 -0.1431 -0.1202
44930SOL    HW139475  10.045   5.326   1.880  1.0594 -0.7569 -0.3341
44930SOL    HW239476   9.965   5.317   1.752 -1.3387  1.8948  0.8649
44931SOL     OW39477  10.192   0.413  11.845  0.2338  0.4573  0.2291
44931SOL    HW139478  10.283   0.430  11.872  0.2777  1.1628 -0.3334
44931SOL    HW239479  10.184   0.318  11.850  0.8035  0.4297  0.9143
44932SOL     OW39480   4.296   8.896   7.201 -0.1171 -0.3714 -0.3640
44932SOL    HW139481   4.207   8.896   7.167 -0.4228 -0.9205  0.4115
44932SOL    HW239482   4.285   8.892   7.296  0.7339 -0.3159 -0.2598
44933SOL     OW39483   9.679   1.162   3.641 -0.5293  0.5514 -0.4391
44933SOL    HW139484   9.754   1.103   3.649 -1.0838 -0.1841 -0.5696
44933SOL    HW239485   9.704   1.223   3.571 -0.6748 -0.6853 -1.6200
44934SOL     OW39486  11.777  11.368   0.466  0.4730  0.2972  0.1764
44934SOL    HW139487  11.831  11.415   0.529  3.2050 -1.1776 -0.9028
44934SOL    HW239488  11.807  11.398   0.380 -1.7051  0.7276 -0.4948
44935SOL     OW39489   4.369   2.598  10.678  0.2500  0.2536 -0.2645
44935SOL    HW139490   4.305   2.617  10.746  1.3413 -0.5645  1.0516
44935SOL    HW239491   4.321   2.546  10.613  0.0800 -2.4690  1.8753
44936SOL     OW39492   3.033   8.194   3.839  0.2615  0.2291  0.0318
44936SOL    HW139493   2.952   8.220   3.795 -0.2222 -0.0898  0.7066
44936SOL    HW239494   3.030   8.098   3.839  0.3098  0.2228  0.6405
44937SOL     OW39495   4.615   8.490   3.899  0.2718  0.2090  0.8981
44937SOL    HW139496   4.591   8.453   3.983 -1.7591 -1.7873 -0.4700
44937SOL    HW239497   4.672   8.424   3.859 -1.7406 -0.6168 -0.7387
44938SOL     OW39498   2.026   3.155   1.212  0.2231  0.5704  0.0442
44938SOL    HW139499   2.018   3.137   1.306 -0.3682  1.8004  0.2464
44938SOL    HW239500   2.008   3.249   1.204  3.0207  1.1050 -0.9722
44939SOL     OW39501   9.658   9.983   9.021 -0.0607 -0.1500 -0.5359
44939SOL    HW139502   9.705   9.914   8.975  0.9718  0.5251 -0.5308
44939SOL    HW239503   9.718  10.011   9.089 -0.4839  0.7306 -0.5144
44940SOL     OW39504  11.152  11.706   0.779  0.3415  0.0299 -0.1510
44940SOL    HW139505  11.156  11.646   0.705  0.6079 -0.1589  0.0163
44940SOL    HW239506  11.216  11.672   0.842  1.1813  1.0002 -0.4396
44941SOL     OW39507  11.478   2.268   2.296 -0.0849 -0.6105  0.8781
44941SOL    HW139508  11.394   2.238   2.262  0.4134 -2.1305  0.9411
44941SOL    HW239509  11.544   2.224   2.242  0.6924  0.4152  0.9454
44942SOL     OW39510   5.468   6.458   5.915  0.1232 -0.2570  0.1841
44942SOL    HW139511   5.558   6.435   5.937 -0.3778 -1.9791  0.5549
44942SOL    HW239512   5.452   6.413   5.832 -0.2225  0.5149 -0.1759
44943SOL     OW39513   8.706   9.594   3.397 -0.3749 -0.6889  0.5050
44943SOL    HW139514   8.742   9.558   3.478  1.3924 -0.2882 -0.0587
44943SOL    HW239515   8.617   9.621   3.420 -0.6771 -2.5169  1.7423
44944SOL     OW39516   3.283  11.023   9.709 -0.2481 -0.7551 -0.1174
44944SOL    HW139517   3.223  10.992   9.777  0.0552  0.3095  0.6418
44944SOL    HW239518   3.234  11.091   9.663  0.8835  1.2806  1.5363
44945SOL     OW39519   6.910   6.196  10.685 -0.1223  0.3260  0.9937
44945SOL    HW139520   6.885   6.174  10.774 -0.8783  1.4266  1.0782
44945SOL    HW239521   6.829   6.230  10.645  0.5138  1.1017  0.3159
44946SOL     OW39522   8.066   2.352   2.321  0.2654 -0.4624  0.3213
44946SOL    HW139523   8.070   2.447   2.334 -0.2676 -0.4159  0.1887
44946SOL    HW239524   7.986   2.326   2.365  0.4178 -0.8527  0.3632
44947SOL     OW39525   7.996   1.532   8.407  0.2525  0.2649  0.0822
44947SOL    HW139526   8.062   1.600   8.397 -0.2041  0.6310 -0.5229
44947SOL    HW239527   7.939   1.542   8.330 -0.1481 -0.4357  0.2762
44948SOL     OW39528   5.914   9.116   2.131 -0.2272  0.1973 -0.1367
44948SOL    HW139529   5.982   9.064   2.086  0.3447  1.6833 -1.0393
44948SOL    HW239530   5.832   9.087   2.092  0.1875  0.8079 -1.5037
44949SOL     OW39531   1.585   7.373  10.882  0.0615 -0.6317 -0.1570
44949SOL    HW139532   1.617   7.432  10.950  1.4738 -0.9055 -0.5522
44949SOL    HW239533   1.549   7.298  10.930 -0.7846  0.0586  0.3160
44950SOL     OW39534   7.849   1.580   4.721  0.0530 -0.0697  0.7400
44950SOL    HW139535   7.907   1.600   4.647  0.4399  0.6006  1.2138
44950SOL    HW239536   7.773   1.538   4.680  0.5811 -0.3720  0.0406
44951SOL     OW39537   1.007   1.365  10.029  0.0673  0.0395 -0.1990
44951SOL    HW139538   0.938   1.308   9.997  0.8752  0.3421 -2.6449
44951SOL    HW239539   1.039   1.321  10.108 -1.6069 -1.0633 -0.0691
44952SOL     OW39540   4.303   8.787   1.769  0.0123  0.0008  0.1430
44952SOL    HW139541   4.332   8.876   1.789  0.4797 -0.1189  0.0135
44952SOL    HW239542   4.366   8.731   1.815  0.7934 -0.2747 -1.2258
44953SOL     OW39543   3.610   4.033   1.180 -0.5034  0.2306  0.1552
44953SOL    HW139544   3.693   4.011   1.139 -0.6473  0.9399 -0.5439
44953SOL    HW239545   3.617   3.998   1.269 -0.6351 -2.3679 -0.7823
44954SOL     OW39546   7.185  10.037   0.396  0.2980  0.1384 -0.1002
44954SOL    HW139547   7.256   9.974   0.385 -0.1211 -0.8340  2.3841
44954SOL    HW239548   7.124   9.996   0.456 -1.3292  1.8420 -0.4937
44955SOL     OW39549  11.292   7.857   2.548  0.4912  0.2446 -0.0787
44955SOL    HW139550  11.352   7.831   2.618  1.5581  0.2596 -0.9642
44955SOL    HW239551  11.206   7.861   2.591  0.6118 -2.4777  0.6382
44956SOL     OW39552   0.893   1.062  11.215  0.4348 -0.0292 -0.4659
44956SOL    HW139553   0.864   0.990  11.159 -0.1087  0.7578 -1.2205
44956SOL    HW239554   0.954   1.021  11.276 -1.4514 -1.5591  0.5244
44957SOL     OW39555  10.070   2.471  11.030 -0.2282 -0.1290  0.2042
44957SOL    HW139556  10.005   2.401  11.040 -2.1761  1.3875 -1.0398
44957SOL    HW239557  10.104   2.485  11.119 -0.9604 -1.5560  0.7448
44958SOL     OW39558   8.626   5.568   7.991  0.7039 -0.3155  0.1980
44958SOL    HW139559   8.650   5.659   7.976  1.7699  0.0265  3.2363
44958SOL    HW239560   8.570   5.545   7.917 -0.3456  3.0780 -0.2233
44959SOL     OW39561   6.686   4.511   5.616  0.4976 -0.0345 -0.2463
44959SOL    HW139562   6.665   4.418   5.616 -1.7698  0.4186  0.5049
44959SOL    HW239563   6.772   4.516   5.574 -0.1957 -2.2530 -2.1368
44960SOL     OW39564   4.166   1.827   9.737  0.1247  0.4896 -0.2997
44960SOL    HW139565   4.185   1.902   9.681  1.6843  0.4044  0.0788
44960SOL    HW239566   4.119   1.864   9.812  0.7083  1.0642 -0.2114
44961SOL     OW39567   0.556   6.167   4.360 -0.4641  0.3348  0.1814
44961SOL    HW139568   0.605   6.249   4.358  0.5018 -0.2192  0.1397
44961SOL    HW239569   0.512   6.164   4.275  1.4692 -0.3168 -0.8543
44962SOL     OW39570   3.820   1.516   2.154 -0.5179 -0.5143 -0.7366
44962SOL    HW139571   3.806   1.422   2.153 -1.0025 -0.4479 -0.7941
44962SOL    HW239572   3.773   1.547   2.231  0.5185 -0.4396 -0.1237
44963SOL     OW39573   2.167   3.383  11.830 -0.7591  0.0979  0.0130
44963SOL    HW139574   2.201   3.327  11.760  1.4275  2.5493 -1.0602
44963SOL    HW239575   2.117   3.450  11.784  0.3064  1.4721  0.8082
44964SOL     OW39576   0.009   0.167  10.019  0.2525  0.2294 -0.3053
44964SOL    HW139577   0.008   0.086  10.069  0.0703 -0.1913 -0.9741
44964SOL    HW239578   0.052   0.144   9.937 -0.6294  0.5762 -0.8835
44965SOL     OW39579   2.209   0.182   8.114  0.1346 -0.0697 -0.0224
44965SOL    HW139580   2.253   0.097   8.122  0.2311  0.1304  2.0707
44965SOL    HW239581   2.262   0.231   8.051  0.7804 -1.1114 -0.3157
44966SOL     OW39582   0.744   3.190   9.534  0.3745  0.5293 -0.2378
44966SOL    HW139583   0.831   3.200   9.573  0.5396 -0.4883 -0.3300
44966SOL    HW239584   0.741   3.099   9.503 -1.3769 -0.0394  1.3958
44967SOL     OW39585   7.533   5.270   2.629 -0.0796 -0.1830  0.0066
44967SOL    HW139586   7.500   5.340   2.686 -1.9854 -0.6815 -0.3959
44967SOL    HW239587   7.491   5.190   2.663 -0.0458 -0.7170 -1.1710
44968SOL     OW39588   9.236   4.164   4.200  0.0488  0.1917 -0.3909
44968SOL    HW139589   9.162   4.204   4.153 -0.1540  0.7964  0.4295
44968SOL    HW239590   9.279   4.238   4.244  0.4272 -0.3258  0.1123
44969SOL     OW39591  11.931   8.324   9.514 -0.1562  0.0208 -0.4299
44969SOL    HW139592  11.965   8.238   9.540 -0.3331  0.7072  2.3840
44969SOL    HW239593  12.009   8.379   9.506 -0.2126  0.9032  3.3299
44970SOL     OW39594  10.633   0.283  10.412 -0.3071 -0.5022  0.1051
44970SOL    HW139595  10.643   0.356  10.351  0.4610 -0.4248  0.3132
44970SOL    HW239596  10.631   0.205  10.356  0.5070 -0.4408 -0.0173
44971SOL     OW39597   0.323   9.584   9.481 -0.0816 -0.3491 -0.1332
44971SOL    HW139598   0.350   9.553   9.394  0.6993 -0.7280  0.2258
44971SOL    HW239599   0.333   9.507   9.537  3.4875  0.8308  1.1291
44972SOL     OW39600   9.878   8.279   5.802  0.4689 -0.8923  0.3495
44972SOL    HW139601   9.856   8.193   5.839  3.3740 -0.4489  3.5895
44972SOL    HW239602   9.972   8.274   5.784  0.2130  0.8383 -2.0089
44973SOL     OW39603   5.015   9.971  10.018 -0.2870  0.1791  0.6554
44973SOL    HW139604   4.993  10.061  10.042  0.3801  0.3231  0.7635
44973SOL    HW239605   5.061   9.978   9.935 -0.4218 -0.0820  0.5574
44974SOL     OW39606   2.561   6.767   2.385 -0.0217  0.1686  0.0827
44974SOL    HW139607   2.466   6.762   2.371  0.1024  0.9161 -1.1273
44974SOL    HW239608   2.595   6.685   2.351 -0.4186 -1.1424  2.5971
44975SOL     OW39609   7.412   4.822  11.167  0.3657  0.1912  0.5041
44975SOL    HW139610   7.479   4.873  11.213  0.1382  0.6317  0.3635
44975SOL    HW239611   7.453   4.797  11.084 -0.0086  1.4405 -0.0857
44976SOL     OW39612   4.852   6.714   3.636  0.4160 -0.4394 -0.7024
44976SOL    HW139613   4.792   6.785   3.613  1.1008 -0.1544 -1.6373
44976SOL    HW239614   4.938   6.755   3.639  0.8184 -1.2295 -1.2371
44977SOL     OW39615   3.419   8.033   8.796  0.3919 -0.1452 -0.9955
44977SOL    HW139616   3.497   8.022   8.851 -0.0938  2.2017  0.2816
44977SOL    HW239617   3.436   7.977   8.720  2.6805 -0.7880 -0.1027
44978SOL     OW39618   8.798   3.182   0.305  0.1269  0.5338 -0.4552
44978SOL    HW139619   8.850   3.240   0.360 -0.7260  0.8971 -0.0070
44978SOL    HW239620   8.862   3.125   0.262  0.7785 -0.2381  1.4634
44979SOL     OW39621   7.690  10.287  11.662 -0.3580 -0.1799 -0.6445
44979SOL    HW139622   7.647  10.215  11.708  0.3963 -1.2561 -1.5676
44979SOL    HW239623   7.619  10.335  11.620 -1.0436  0.6956  1.3871
44980SOL     OW39624   0.691   1.499  10.847  0.5318 -0.1761  0.7107
44980SOL    HW139625   0.780   1.472  10.826  0.4910 -0.0090  0.3217
44980SOL    HW239626   0.664   1.553  10.773  1.1367  2.2311  2.1627
44981SOL     OW39627  10.185   2.498  11.314 -0.0365  0.5745  0.5469
44981SOL    HW139628  10.280   2.511  11.320 -0.2539  2.6769  0.0678
44981SOL    HW239629  10.148   2.585  11.326 -1.8865 -0.0779 -0.0816
44982SOL     OW39630  11.685   4.516   7.284 -0.6682 -0.2066 -0.1820
44982SOL    HW139631  11.635   4.572   7.343  0.8036  1.2233 -0.2017
44982SOL    HW239632  11.772   4.556   7.281 -0.0769 -1.4723 -1.6490
44983SOL     OW39633   7.718   2.040   6.182 -0.6193 -0.2377 -0.2665
44983SOL    HW139634   7.800   2.083   6.207 -1.1173  0.7039 -0.2435
44983SOL    HW239635   7.701   2.070   6.093 -0.7733 -0.6918 -0.3934
44984SOL     OW39636   6.702  10.164   6.125  0.5112  0.0843 -0.0925
44984SOL    HW139637   6.656  10.136   6.204  1.0300  0.3988  0.3252
44984SOL    HW239638   6.653  10.123   6.054  0.5913 -0.9642  0.4384
44985SOL     OW39639  11.513   7.188   4.483  0.7025 -0.2212  0.2141
44985SOL    HW139640  11.564   7.207   4.404  1.4625 -0.4106  0.6484
44985SOL    HW239641  11.532   7.096   4.502 -0.5476 -0.5686 -0.1385
44986SOL     OW39642   0.852   1.709   2.363 -0.0956 -0.4320 -0.0777
44986SOL    HW139643   0.849   1.799   2.397 -0.4476 -0.1322 -0.8687
44986SOL    HW239644   0.884   1.657   2.436 -1.8341  0.0155  1.0565
44987SOL     OW39645   0.986   0.335   8.747  0.2810  0.4294 -0.2231
44987SOL    HW139646   0.963   0.248   8.716 -0.6126  1.0351 -1.3603
44987SOL    HW239647   0.968   0.393   8.673 -1.7461  1.9234  1.3003
44988SOL     OW39648   9.005   6.651  11.822  0.0769  0.1481 -0.0128
44988SOL    HW139649   8.938   6.594  11.860  1.2787 -0.7914  0.7601
44988SOL    HW239650   9.011   6.725  11.883 -1.0763  0.8564 -0.7171
44989SOL     OW39651   9.834   5.612   0.213  0.3061  0.4361 -0.1850
44989SOL    HW139652   9.806   5.534   0.260 -0.0250  0.5069 -0.2561
44989SOL    HW239653   9.787   5.608   0.130 -0.3015  1.0914  0.1158
44990SOL     OW39654   3.104   7.475  10.929  0.0118  0.3107  0.0675
44990SOL    HW139655   3.107   7.549  10.869 -2.5454  0.7013  0.3302
44990SOL    HW239656   3.088   7.514  11.015  3.4443 -0.2436  1.1240
44991SOL     OW39657  10.251  10.843  10.955 -0.9376 -0.1352  0.1383
44991SOL    HW139658  10.312  10.841  11.029 -0.6725  1.4193  0.0087
44991SOL    HW239659  10.298  10.892  10.887 -1.5876 -0.6214 -0.6752
44992SOL     OW39660   0.252   9.538   8.838 -0.1161 -0.2135  0.2393
44992SOL    HW139661   0.267   9.467   8.900 -1.2547 -0.5443  0.1562
44992SOL    HW239662   0.257   9.618   8.892  1.5198 -0.2982  0.2711
44993SOL     OW39663   5.228   1.716  11.376  0.5458  0.3005 -0.2244
44993SOL    HW139664   5.291   1.788  11.373 -0.3654  1.0839 -2.2170
44993SOL    HW239665   5.272   1.644  11.331  0.6450  0.3055 -0.1357
44994SOL     OW39666  10.187   1.358   5.919  0.1028 -0.2270 -0.2461
44994SOL    HW139667  10.265   1.408   5.945  0.1675  0.5692 -1.8844
44994SOL    HW239668  10.120   1.383   5.983  1.2904 -1.3512  1.5480
44995SOL     OW39669   8.195   2.367   8.917 -0.3893 -0.6069 -0.2153
44995SOL    HW139670   8.132   2.295   8.923 -1.2208  0.1115 -0.1019
44995SOL    HW239671   8.247   2.347   8.840 -0.9107 -1.0971 -0.4477
44996SOL     OW39672   8.942   5.983   2.795  0.1247 -0.0031  0.0309
44996SOL    HW139673   8.924   5.891   2.775  1.0808 -0.3213  0.5210
44996SOL    HW239674   8.856   6.024   2.800 -0.3046 -0.8085 -0.4905
44997SOL     OW39675   6.817   7.463   4.399 -0.3363  0.0619  0.0907
44997SOL    HW139676   6.736   7.446   4.447  0.9601 -1.6551  1.8214
44997SOL    HW239677   6.814   7.403   4.326  0.5522 -2.0691  1.7050
44998SOL     OW39678   2.467   5.871  11.963  0.1783  0.4811  0.5102
44998SOL    HW139679   2.472   5.960  11.927 -1.8212  0.5612  0.2813
44998SOL    HW239680   2.373   5.851  11.963  0.6665 -2.5981 -1.8175
44999SOL     OW39681   9.505   2.307   5.445 -0.3828  0.1391  0.2767
44999SOL    HW139682   9.452   2.259   5.381 -0.5072 -0.1975  0.6229
44999SOL    HW239683   9.522   2.243   5.514  0.2997  0.3068  0.2733
45000SOL     OW39684  11.927   9.986   3.014  0.4640 -0.2000 -0.5828
45000SOL    HW139685  11.845   9.937   3.021  0.4657 -0.1948 -0.5248
45000SOL    HW239686  11.950   9.981   2.921  1.3117 -1.6842 -0.3289
45001SOL     OW39687   5.269   0.867  11.485  0.3122  0.5128  0.4246
45001SOL    HW139688   5.264   0.895  11.394  1.8334 -0.1407  0.1141
45001SOL    HW239689   5.190   0.905  11.526 -0.2171  1.0970 -1.0590
45002SOL     OW39690   1.704   5.937   4.027 -0.0470 -0.4049  0.0741
45002SOL    HW139691   1.736   5.973   3.944 -0.0526 -1.2048 -0.2916
45002SOL    HW239692   1.765   5.866   4.047  0.6045  0.4810  1.3475
45003SOL     OW39693  11.824   7.461   2.661 -0.2294 -0.2032  0.1869
45003SOL    HW139694  11.728   7.471   2.661 -0.1595  0.6032 -1.1366
45003SOL    HW239695  11.843   7.413   2.581  0.4793 -0.3188  0.4224
45004SOL     OW39696   7.230   0.707   3.426  0.5612 -0.0719 -0.0645
45004SOL    HW139697   7.303   0.737   3.480 -0.2382 -0.5162  1.3089
45004SOL    HW239698   7.238   0.612   3.425 -0.2226 -0.1550  0.4523
45005SOL     OW39699   2.859  11.374   9.422  0.1669  0.6262 -0.2311
45005SOL    HW139700   2.843  11.415   9.337  0.9067 -2.8169 -2.1826
45005SOL    HW239701   2.952  11.392   9.440 -0.0421  1.5341  0.0099
45006SOL     OW39702   8.527   8.413   3.501  0.0669 -0.0390  0.1563
45006SOL    HW139703   8.539   8.344   3.436  0.0725 -0.3374  0.4721
45006SOL    HW239704   8.441   8.395   3.540  0.5736 -0.5546  1.0542
45007SOL     OW39705   9.107  10.689   7.643 -0.4316 -0.4809 -0.0928
45007SOL    HW139706   9.102  10.778   7.610 -0.6169  0.0124  1.1962
45007SOL    HW239707   9.200  10.672   7.655 -0.2025 -1.3090 -2.4168
45008SOL     OW39708   7.999   7.794   8.821 -0.0785 -0.5777  0.2564
45008SOL    HW139709   7.916   7.838   8.807  0.8475  0.9889 -0.6250
45008SOL    HW239710   7.976   7.703   8.839 -2.0067  0.0325  1.0402
45009SOL     OW39711   7.186   5.737   8.334 -0.2600 -0.1300 -1.2993
45009SOL    HW139712   7.255   5.802   8.328 -1.2840  1.0210 -0.9249
45009SOL    HW239713   7.216   5.676   8.402  0.8404 -0.2508 -1.8740
45010SOL     OW39714   2.868   9.327   2.765 -0.1645 -0.1463 -0.4091
45010SOL    HW139715   2.920   9.341   2.686  0.5968  0.5170  0.1957
45010SOL    HW239716   2.839   9.236   2.759  2.5895 -1.1284  0.1142
45011SOL     OW39717   0.443   1.684   0.824 -0.4971 -0.2360  0.2447
45011SOL    HW139718   0.469   1.600   0.864 -1.5562 -0.9702 -0.5453
45011SOL    HW239719   0.351   1.672   0.803 -0.4170  0.7986 -0.7486
45012SOL     OW39720   0.962   9.208   1.927  0.3771  0.0095  0.8773
45012SOL    HW139721   1.046   9.244   1.899  0.1322  1.3439  1.7374
45012SOL    HW239722   0.904   9.222   1.853  0.6679 -0.0148  0.6439
45013SOL     OW39723   9.020  10.485  11.754 -0.4851  0.3936 -0.0693
45013SOL    HW139724   9.000  10.575  11.778  1.2998  0.6765  0.4781
45013SOL    HW239725   9.023  10.485  11.659  0.4786  1.1419 -0.0450
45014SOL     OW39726   4.821   9.197   2.944 -0.0636  0.0942 -0.2484
45014SOL    HW139727   4.770   9.276   2.963  0.6689  0.4750  0.1768
45014SOL    HW239728   4.844   9.205   2.851 -0.6273  0.0018 -0.4005
45015SOL     OW39729  10.340   5.016   9.198 -0.1409  0.1886 -0.0268
45015SOL    HW139730  10.310   5.106   9.209  1.5896  1.0551 -1.8002
45015SOL    HW239731  10.297   4.987   9.117 -0.9961 -0.7424  0.7435
45016SOL     OW39732   2.007   4.407   8.070 -0.3446  0.2948 -0.2219
45016SOL    HW139733   2.023   4.483   8.015  0.9064  0.0281 -0.2529
45016SOL    HW239734   1.981   4.443   8.155  0.8010  0.7932 -0.0614
45017SOL     OW39735   9.488   6.411   5.487 -0.1617  0.3800 -0.2290
45017SOL    HW139736   9.498   6.375   5.575 -2.0172  0.8230  0.2131
45017SOL    HW239737   9.495   6.336   5.428  0.2907 -0.0332  0.3414
45018SOL     OW39738   1.720   7.675   7.178  0.0538  0.4015  0.4356
45018SOL    HW139739   1.800   7.657   7.227 -0.2764  0.8222  1.1434
45018SOL    HW239740   1.662   7.603   7.200  0.8292 -0.8816 -1.4723
45019SOL     OW39741   8.048   0.620   5.407  0.1573  0.1075 -0.4341
45019SOL    HW139742   8.010   0.695   5.454  1.5804  2.1485 -2.3699
45019SOL    HW239743   8.104   0.578   5.472 -2.9507 -1.2777  1.6318
45020SOL     OW39744   7.565   5.883  10.213  0.8167 -0.0128 -0.0869
45020SOL    HW139745   7.489   5.850  10.165  1.3701  1.6416 -2.3072
45020SOL    HW239746   7.632   5.815  10.203  1.0236  0.4036 -2.1006
45021SOL     OW39747   6.115   3.486  11.971  0.0417  0.0036  0.2922
45021SOL    HW139748   6.161   3.404  11.956 -0.8532 -0.3117 -0.8648
45021SOL    HW239749   6.173   3.537  12.028  0.5274 -1.4872  1.1819
45022SOL     OW39750   0.219   7.641  10.366  0.1304 -0.0223  0.1030
45022SOL    HW139751   0.150   7.632  10.432  0.2051 -1.7679 -0.0141
45022SOL    HW239752   0.298   7.660  10.417  0.1836 -1.3495  0.5391
45023SOL     OW39753   4.543  11.689   2.697 -0.5068 -0.0510 -0.3666
45023SOL    HW139754   4.626  11.735   2.680 -1.2723  0.7831 -2.1563
45023SOL    HW239755   4.491  11.751   2.748 -0.3232 -0.2673  0.0874
45024SOL     OW39756   0.919   3.102   2.570  0.5219 -0.3573  0.2802
45024SOL    HW139757   1.009   3.133   2.560  1.3171 -2.3909  0.6684
45024SOL    HW239758   0.871   3.178   2.602  1.7709  1.1810 -1.2883
45025SOL     OW39759   6.308   9.023   7.374  0.0056  0.2971 -0.8154
45025SOL    HW139760   6.237   9.041   7.311  0.3252  1.1705 -0.9491
45025SOL    HW239761   6.311   9.102   7.428 -0.8635 -0.8101  0.9055
45026SOL     OW39762   5.608   0.974   4.601  0.0729 -0.3877 -0.5412
45026SOL    HW139763   5.677   0.908   4.606  0.6164  0.2175  0.0325
45026SOL    HW239764   5.549   0.941   4.533 -0.0965 -1.8732  0.2675
45027SOL     OW39765   6.494   3.104   7.286  0.2623 -0.3446 -0.0879
45027SOL    HW139766   6.450   3.026   7.320 -0.5713 -0.3606 -1.1299
45027SOL    HW239767   6.568   3.070   7.236  0.1462 -0.4583 -0.1852
45028SOL     OW39768   0.381   7.062   2.595 -0.5983 -0.2177  0.1890
45028SOL    HW139769   0.351   7.016   2.517  0.8456  0.6582 -0.9485
45028SOL    HW239770   0.345   7.150   2.586  1.6661  0.7012 -0.9422
45029SOL     OW39771   0.842  10.287   0.749  0.5698 -0.5193  0.4543
45029SOL    HW139772   0.860  10.371   0.706  4.2415 -0.4607  1.8007
45029SOL    HW239773   0.811  10.312   0.836 -0.1534 -0.6126  0.2314
45030SOL     OW39774   1.067   2.381   9.437 -0.1853  0.3137 -0.2408
45030SOL    HW139775   1.021   2.301   9.416  0.1877  0.1127 -0.2994
45030SOL    HW239776   1.002   2.450   9.428 -0.3859  0.0697 -0.6521
45031SOL     OW39777   3.226   2.768   7.379  0.7506 -0.0144 -0.0657
45031SOL    HW139778   3.164   2.797   7.446 -0.7611 -2.5568 -0.2275
45031SOL    HW239779   3.263   2.687   7.414  0.7082 -0.8416 -1.8095
45032SOL     OW39780   5.376   0.782   1.255  0.0269 -0.2024  0.6735
45032SOL    HW139781   5.427   0.703   1.233  0.9856  0.7849 -0.9120
45032SOL    HW239782   5.314   0.790   1.182  1.7594  1.9336 -0.7030
45033SOL     OW39783   8.790  10.287   7.798  0.2349  0.1871 -0.0557
45033SOL    HW139784   8.822  10.355   7.740 -0.3929  0.6253  0.1020
45033SOL    HW239785   8.758  10.334   7.876 -1.0339 -0.1903 -0.3194
45034SOL     OW39786   7.098   4.061   8.018  0.8029  0.0481  0.0245
45034SOL    HW139787   7.132   3.999   7.953  1.5072 -0.9536  1.3071
45034SOL    HW239788   7.012   4.086   7.985  1.3007 -0.1236 -1.4869
45035SOL     OW39789   0.197   0.935   0.874  0.0201  0.2220  0.4795
45035SOL    HW139790   0.128   0.870   0.887 -0.1899  0.4264  0.4000
45035SOL    HW239791   0.173   0.980   0.793  0.2184  0.3305  0.4806
45036SOL     OW39792   6.992  10.217   5.300 -0.1577  0.4896 -0.0271
45036SOL    HW139793   6.962  10.152   5.236 -0.1480 -0.7252  1.1669
45036SOL    HW239794   6.931  10.290   5.290 -0.0016  0.4443 -1.5972
45037SOL     OW39795   1.679   0.084   4.209  0.3237  0.3333  0.0297
45037SOL    HW139796   1.681   0.178   4.194  2.7868  0.2113 -0.8553
45037SOL    HW239797   1.697   0.045   4.123  0.4727 -0.8830  0.5851
45038SOL     OW39798   4.500   5.840  11.292 -0.1224  0.0893  0.8571
45038SOL    HW139799   4.460   5.754  11.302 -0.8425  0.2793 -0.1627
45038SOL    HW239800   4.563   5.828  11.221 -0.3582  0.4381  0.5842
45039SOL     OW39801   8.476  10.954   8.594  0.5537 -0.7831  0.8120
45039SOL    HW139802   8.424  10.879   8.622 -0.4436  0.0774  1.3867
45039SOL    HW239803   8.411  11.021   8.572  1.4100  0.2987  1.4402
45040SOL     OW39804  10.431   2.709   7.501 -0.0167  0.2009 -0.0805
45040SOL    HW139805  10.399   2.728   7.413 -1.4032  0.4355  0.4461
45040SOL    HW239806  10.502   2.772   7.515 -0.1224  0.4987 -0.8408
45041SOL     OW39807   6.014   6.865   9.044 -0.3738 -0.1753 -0.0922
45041SOL    HW139808   5.992   6.793   8.985 -0.5332 -0.8466  0.7636
45041SOL    HW239809   6.061   6.823   9.116 -0.3967  0.5959  0.3842
45042SOL     OW39810   4.722  11.303   0.994  0.1993 -0.2803  0.3154
45042SOL    HW139811   4.805  11.265   0.965  0.4867  0.0185  0.7345
45042SOL    HW239812   4.655  11.243   0.961  0.4721  0.3174 -1.4219
45043SOL     OW39813   5.119   1.647   7.809  0.2770  0.2236  0.6155
45043SOL    HW139814   5.107   1.653   7.714  0.6502 -1.9795  0.3793
45043SOL    HW239815   5.194   1.704   7.827  2.3003 -1.7487 -0.9567
45044SOL     OW39816  10.930   1.661   2.411 -0.3724 -0.5685 -0.6723
45044SOL    HW139817  11.005   1.665   2.470 -0.2560 -1.3035 -0.7582
45044SOL    HW239818  10.880   1.740   2.430 -0.2337 -0.7008  0.2652
45045SOL     OW39819   6.039   9.914  11.250  0.5750 -0.1049  0.1264
45045SOL    HW139820   6.105   9.860  11.292 -1.6843 -1.7035  1.8921
45045SOL    HW239821   6.022   9.984  11.312  0.7795  0.4647 -0.4478
45046SOL     OW39822   9.495   4.678   0.106 -0.8169  0.1201  0.3005
45046SOL    HW139823   9.444   4.718   0.176  0.3777  0.4302  1.0251
45046SOL    HW239824   9.486   4.740   0.033 -0.3159  0.9198  0.8913
45047SOL     OW39825   7.667   0.608  10.379 -0.6422  0.2706 -0.2428
45047SOL    HW139826   7.573   0.609  10.394 -0.8679  0.7246 -1.5715
45047SOL    HW239827   7.693   0.700  10.378 -0.8995  0.4362 -3.7381
45048SOL     OW39828   2.211   6.704  11.210  0.2412 -0.0897 -0.2254
45048SOL    HW139829   2.276   6.657  11.262  0.8449  0.2492 -0.6577
45048SOL    HW239830   2.263   6.754  11.147 -0.2731  2.4603  1.2590
45049SOL     OW39831   1.518  10.178  11.231 -0.3856 -0.2658 -0.0010
45049SOL    HW139832   1.593  10.169  11.172  0.3023 -1.1995  0.9718
45049SOL    HW239833   1.477  10.091  11.231 -0.5261 -0.2054  0.6888
45050SOL     OW39834   2.734   3.458   1.501  0.6054 -0.2097  0.2353
45050SOL    HW139835   2.784   3.468   1.421 -1.0186 -0.5334 -0.8662
45050SOL    HW239836   2.739   3.544   1.543  1.0626  0.1040 -0.4445
45051SOL     OW39837   8.799   7.860   1.374 -0.6567  0.2267 -0.5337
45051SOL    HW139838   8.879   7.811   1.390 -0.8178  0.5642  1.6252
45051SOL    HW239839   8.733   7.815   1.427 -1.2016  1.6536  0.0491
45052SOL     OW39840   3.784   9.103   1.603 -0.0542 -0.1457  0.6101
45052SOL    HW139841   3.866   9.129   1.646  0.3804 -0.4401 -0.0125
45052SOL    HW239842   3.784   9.151   1.521  0.5406 -1.6947 -0.3522
45053SOL     OW39843   6.744   2.212   7.551  0.6037 -0.1116 -0.3626
45053SOL    HW139844   6.823   2.160   7.538  1.4643  0.9040  0.5707
45053SOL    HW239845   6.716   2.235   7.462  0.1192 -2.2156 -0.8027
45054SOL     OW39846   6.749   1.774   9.999 -0.3495 -0.3556  0.1845
45054SOL    HW139847   6.752   1.817   9.913 -0.6067 -0.6410  0.0287
45054SOL    HW239848   6.693   1.698   9.985 -0.5481 -0.2987  0.6540
45055SOL     OW39849   5.858   1.096  10.418  0.0801 -0.1588  0.3231
45055SOL    HW139850   5.896   1.137  10.341 -0.5793  1.8672  0.9992
45055SOL    HW239851   5.766   1.123  10.416 -0.0143 -0.3183  1.6493
45056SOL     OW39852   8.233  11.177   2.564 -0.4327  0.0796 -0.4596
45056SOL    HW139853   8.207  11.267   2.583  0.6232  0.5298 -1.0470
45056SOL    HW239854   8.204  11.162   2.474 -1.2433 -0.4342 -0.1319
45057SOL     OW39855   8.922  11.975   6.870 -0.1078 -0.1839 -0.4912
45057SOL    HW139856   8.896  12.014   6.953 -1.9876 -0.7624 -0.7762
45057SOL    HW239857   8.959  11.890   6.893  0.0473 -0.0392 -0.2047
45058SOL     OW39858   1.094  11.179   1.842  0.0082  0.5649  0.6456
45058SOL    HW139859   1.025  11.218   1.894  0.0509 -0.5675  1.5830
45058SOL    HW239860   1.136  11.253   1.798 -0.2700  1.5083  1.9229
45059SOL     OW39861  11.667   9.129  10.685  0.0115  0.4008 -0.7026
45059SOL    HW139862  11.614   9.177  10.622 -0.9639  0.3747  0.0657
45059SOL    HW239863  11.757   9.146  10.659 -0.3639  0.7581 -1.8189
45060SOL     OW39864   0.607  11.606   6.168 -0.3866  0.0628  0.0705
45060SOL    HW139865   0.541  11.537   6.169 -1.2543  0.8695  0.4202
45060SOL    HW239866   0.583  11.661   6.093  0.3746 -0.0875 -0.2868
45061SOL     OW39867   8.540   0.474   9.295 -0.3384  0.1366  0.3126
45061SOL    HW139868   8.575   0.434   9.375  0.9947  2.4096  0.9469
45061SOL    HW239869   8.518   0.399   9.240  2.3227 -1.5293  1.2758
45062SOL     OW39870   8.153   9.127   2.574  0.0307 -0.4987  0.1632
45062SOL    HW139871   8.077   9.119   2.517 -0.2192 -1.9381  0.6623
45062SOL    HW239872   8.170   9.221   2.578 -0.2713 -0.3123 -1.8317
45063SOL     OW39873   8.268   0.836   3.888 -0.0868 -0.5819 -0.0579
45063SOL    HW139874   8.229   0.755   3.856  0.8935 -1.1427  0.1421
45063SOL    HW239875   8.339   0.854   3.827 -1.4671  1.1879 -1.2452
45064SOL     OW39876   1.588   7.855   0.517 -0.0898  0.1575  0.0375
45064SOL    HW139877   1.594   7.891   0.605 -1.0890  1.6123 -0.4430
45064SOL    HW239878   1.661   7.895   0.469  1.6146 -2.0976  0.6378
45065SOL     OW39879  11.726   1.206   2.417  0.3834 -0.1300 -0.1443
45065SOL    HW139880  11.649   1.262   2.411  0.5304  0.0150 -0.6699
45065SOL    HW239881  11.691   1.120   2.440 -0.0542 -0.3459 -1.5235
45066SOL     OW39882   4.434  11.540   8.655  0.0937 -0.4983  0.3040
45066SOL    HW139883   4.507  11.580   8.700 -0.3411 -1.1748  1.6706
45066SOL    HW239884   4.428  11.452   8.692 -1.2617 -0.5337  0.0573
45067SOL     OW39885   3.318   5.951   7.274  0.4733  0.1759 -0.2445
45067SOL    HW139886   3.352   5.863   7.257  2.6898  0.9726 -0.3111
45067SOL    HW239887   3.311   5.956   7.369  3.1794  0.8123  0.0014
45068SOL     OW39888  10.629   5.382   1.001 -0.0997 -0.3019  0.4109
45068SOL    HW139889  10.669   5.403   0.917  0.4972 -1.6233  0.3360
45068SOL    HW239890  10.626   5.465   1.048 -0.0804  0.3803 -0.7603
45069SOL     OW39891  10.608   1.883   0.429 -0.2707 -0.3528  0.7016
45069SOL    HW139892  10.594   1.860   0.521  1.3352  0.0601  1.0719
45069SOL    HW239893  10.664   1.814   0.395  0.6669  0.4721  0.5410
45070SOL     OW39894   3.067   5.840   3.277  0.0040  0.5638  0.1651
45070SOL    HW139895   3.001   5.821   3.344 -0.2554  0.7366 -0.0387
45070SOL    HW239896   3.040   5.786   3.202  2.5224 -2.8497  1.4502
45071SOL     OW39897   6.986   1.871   4.889  0.2252  0.0374 -0.2320
45071SOL    HW139898   7.072   1.911   4.878 -0.0388  1.3719  1.9070
45071SOL    HW239899   6.924   1.942   4.869 -0.3534 -0.5829 -0.6652
45072SOL     OW39900   6.483  10.983   8.651 -0.3292 -0.0433 -0.5290
45072SOL    HW139901   6.412  10.983   8.715 -1.2117  1.2596 -1.4666
45072SOL    HW239902   6.550  10.928   8.690 -0.2152  1.8715  2.2267
45073SOL     OW39903  10.654   4.159  10.304 -0.2590  0.0759  0.1059
45073SOL    HW139904  10.592   4.099  10.347 -0.1376  0.4764  0.8591
45073SOL    HW239905  10.608   4.244  10.303  0.8338  0.7582  2.0770
45074SOL     OW39906   4.385   2.140   9.648  0.7757 -0.1272 -0.3967
45074SOL    HW139907   4.330   2.124   9.725 -0.4739 -0.3418 -1.2925
45074SOL    HW239908   4.475   2.129   9.679  0.4891  2.4775  1.7016
45075SOL     OW39909   8.700   2.731   0.422  0.8236  0.3357 -0.2981
45075SOL    HW139910   8.648   2.768   0.352 -0.9507  0.4776  1.0164
45075SOL    HW239911   8.738   2.651   0.385  0.3678  0.6825 -1.5420
45076SOL     OW39912  10.739   1.903  10.830  0.0419 -0.2560  0.1958
45076SOL    HW139913  10.769   1.920  10.919  0.5372  2.6838 -0.4282
45076SOL    HW239914  10.677   1.831  10.839 -0.5890  0.5087  3.0447
45077SOL     OW39915  11.172   1.245   2.914 -0.4616 -0.1027 -0.7460
45077SOL    HW139916  11.105   1.230   2.981  1.9578  0.7864  2.0749
45077SOL    HW239917  11.156   1.334   2.885 -1.1690 -0.2834 -0.9384
45078SOL     OW39918   0.398  11.693   7.170 -0.0185  0.0349 -0.4145
45078SOL    HW139919   0.305  11.670   7.171  0.0941 -0.4739  1.2832
45078SOL    HW239920   0.404  11.768   7.229  0.5952  0.3388 -0.8568
45079SOL     OW39921  11.594   9.380   7.810 -0.0053 -0.4035 -0.0768
45079SOL    HW139922  11.670   9.358   7.755  0.5621 -2.8931  1.5351
45079SOL    HW239923  11.562   9.295   7.840 -0.5580  0.8110  3.0546
45080SOL     OW39924   4.380   9.536   7.051 -0.0263 -0.0541  0.1319
45080SOL    HW139925   4.455   9.561   6.999  1.4325  1.7667  2.8654
45080SOL    HW239926   4.373   9.604   7.119 -4.5854  0.2965 -0.3195
45081SOL     OW39927  11.174   5.926   0.679  0.1727  0.0519 -0.2927
45081SOL    HW139928  11.220   5.897   0.758 -0.0194 -1.2843 -0.6517
45081SOL    HW239929  11.238   5.981   0.633  0.1079  1.2833  1.0309
45082SOL     OW39930   3.872   3.221   5.412  0.1451  0.4960 -0.3996
45082SOL    HW139931   3.922   3.150   5.373  0.7394  0.7792 -0.1597
45082SOL    HW239932   3.791   3.180   5.441 -0.1747  0.2084 -1.6122
45083SOL     OW39933   7.427  11.613   2.853  0.1212  0.2209  0.1206
45083SOL    HW139934   7.432  11.652   2.940  2.8356  0.0495  0.1340
45083SOL    HW239935   7.388  11.682   2.798 -1.6249  0.3218  1.4189
45084SOL     OW39936   9.663   2.344   1.884  0.5382 -0.0048 -0.1274
45084SOL    HW139937   9.614   2.262   1.889 -1.7676  1.3539  1.8457
45084SOL    HW239938   9.754   2.320   1.904 -0.0929 -2.0508  0.5031
45085SOL     OW39939   3.111   0.970  10.593 -0.4680  0.1258 -0.4754
45085SOL    HW139940   3.156   0.944  10.673 -1.0425 -0.3229 -0.2937
45085SOL    HW239941   3.100   1.065  10.602 -1.7779 -0.0964  0.6494
45086SOL     OW39942   6.449   5.850   1.209  0.2718  0.4380  0.4474
45086SOL    HW139943   6.441   5.770   1.156 -0.1612  1.2883 -0.8374
45086SOL    HW239944   6.405   5.829   1.291  0.9280 -0.9232  0.4854
45087SOL     OW39945   8.090   2.806   9.483 -0.1418 -0.1297 -0.0408
45087SOL    HW139946   8.086   2.755   9.564 -0.6961  0.3021  0.2115
45087SOL    HW239947   8.029   2.762   9.424  0.5576 -0.6808 -0.3746
45088SOL     OW39948   1.289   6.787   0.598  0.0518 -0.2321 -0.1260
45088SOL    HW139949   1.211   6.736   0.578 -0.4690 -0.0321  1.3083
45088SOL    HW239950   1.349   6.725   0.639  0.2785 -0.1701 -0.3587
45089SOL     OW39951   8.493   0.438   3.669 -0.0506  0.0499 -0.2058
45089SOL    HW139952   8.558   0.498   3.708 -0.8047 -0.3264  1.7647
45089SOL    HW239953   8.545   0.383   3.611  1.4202 -0.0993  1.1451
45090SOL     OW39954   2.008   0.176  11.444 -0.5406  0.5047 -0.2463
45090SOL    HW139955   1.972   0.100  11.491 -1.8257  0.5134 -1.1707
45090SOL    HW239956   2.034   0.142  11.359  0.5510  0.7653 -0.0393
45091SOL     OW39957   1.574   5.130  10.541  0.4310 -0.0887 -0.2958
45091SOL    HW139958   1.658   5.173  10.560  0.0020  0.5579  0.1849
45091SOL    HW239959   1.584   5.096  10.453  0.7797  1.0431 -0.7174
45092SOL     OW39960   3.958   8.966   5.624  0.1423  0.2341 -0.3792
45092SOL    HW139961   3.874   8.932   5.653  0.1214 -0.7260 -1.4660
45092SOL    HW239962   4.021   8.898   5.650  0.9648  1.9262  2.4355
45093SOL     OW39963   5.205   1.012   0.452 -0.1032 -0.2746  0.2274
45093SOL    HW139964   5.182   1.098   0.417  1.6443 -0.1548 -0.7324
45093SOL    HW239965   5.212   0.956   0.375  2.4409 -0.3493  0.4453
45094SOL     OW39966   6.203   0.097   9.050 -0.3649 -0.1952  0.3441
45094SOL    HW139967   6.210   0.106   9.146 -0.1622 -0.6988  0.3801
45094SOL    HW239968   6.164   0.179   9.021  0.5457  0.4074  0.7512
45095SOL     OW39969   4.876   7.271   9.987  0.3376  0.3197  0.0339
45095SOL    HW139970   4.860   7.202  10.051  1.7449 -0.0143  0.0388
45095SOL    HW239971   4.899   7.224   9.907  0.9938  0.7724 -0.0452
45096SOL     OW39972   4.273   8.155   8.876  0.2254  0.3110 -0.2164
45096SOL    HW139973   4.323   8.086   8.830 -0.1590 -0.7392  0.8773
45096SOL    HW239974   4.182   8.125   8.872 -0.0065  0.9939 -0.1104
45097SOL     OW39975  11.381  11.785   8.292 -0.3799  0.1444  0.0843
45097SOL    HW139976  11.444  11.770   8.363  0.1595 -0.8015 -0.5700
45097SOL    HW239977  11.391  11.878   8.272  0.1333  0.2169  0.6180
45098SOL     OW39978   7.241   1.775   2.533  0.1313 -0.2326 -0.5585
45098SOL    HW139979   7.191   1.845   2.575  1.1104  0.9906 -1.3587
45098SOL    HW239980   7.330   1.785   2.567  0.1657 -1.4786 -0.2314
45099SOL     OW39981   3.437   7.156   8.536  0.3899  0.3679  0.2135
45099SOL    HW139982   3.472   7.245   8.533 -1.7104  1.2664  0.4645
45099SOL    HW239983   3.441   7.130   8.628  0.9922  0.1972  0.1422
45100SOL     OW39984   0.579   5.229   2.937  0.1531 -0.5946  0.4763
45100SOL    HW139985   0.674   5.234   2.936  0.2191 -1.3287 -1.2926
45100SOL    HW239986   0.559   5.139   2.911 -1.0189 -0.3761  0.5557
45101SOL     OW39987   7.234  10.898   8.782  0.1894  0.1870  0.2366
45101SOL    HW139988   7.250  10.807   8.760 -1.2254 -0.1031  0.2767
45101SOL    HW239989   7.280  10.912   8.865  0.6565 -0.3979  0.0804
45102SOL     OW39990  10.946   5.548   1.817 -0.4642 -0.2749  0.5235
45102SOL    HW139991  11.038   5.572   1.815 -0.4665 -0.3056 -1.0116
45102SOL    HW239992  10.901   5.624   1.854  0.1703 -0.2864  1.3360
45103SOL     OW39993   9.668  11.685   2.391 -0.1955  0.3075 -0.3229
45103SOL    HW139994   9.709  11.654   2.471  0.0304 -1.3658 -1.0324
45103SOL    HW239995   9.619  11.762   2.417 -1.8886 -1.3875  1.8881
45104SOL     OW39996   7.487   3.722   7.402 -0.0612  0.3635  0.4807
45104SOL    HW139997   7.499   3.675   7.319  2.4095  0.4288  0.7181
45104SOL    HW239998   7.496   3.655   7.469 -0.0065  0.6281  0.7386
45105SOL     OW39999   0.886   7.609   0.010  0.2261  0.1665  0.0147
45105SOL    HW140000   0.952   7.558  -0.038 -0.4615  0.5126 -1.3533
45105SOL    HW240001   0.876   7.689  -0.042 -0.4447  0.6349  0.8414
45106SOL     OW40002   9.081   5.922  11.088 -0.0678  0.6201  0.1088
45106SOL    HW140003   9.056   5.833  11.115  0.5546  0.4988  0.3151
45106SOL    HW240004   9.124   5.959  11.165  3.9102 -0.5648 -1.2817
45107SOL     OW40005   1.265   5.691   8.485  0.2996 -0.1650  0.8475
45107SOL    HW140006   1.191   5.708   8.544  1.1070  1.0748  1.5689
45107SOL    HW240007   1.301   5.778   8.467  0.3790 -0.5602 -1.1123
45108SOL     OW40008  10.734  10.131   1.680 -0.3551 -0.5911 -0.0801
45108SOL    HW140009  10.773  10.123   1.593 -1.1245  0.5199 -0.5570
45108SOL    HW240010  10.660  10.070   1.679 -0.7509 -0.1135 -0.4465
45109SOL     OW40011   2.609   9.048  11.370 -0.0245  0.3385  0.0331
45109SOL    HW140012   2.565   8.976  11.416  0.9088 -0.3482 -0.1100
45109SOL    HW240013   2.575   9.127  11.411 -0.6643 -0.1979  0.5723
45110SOL     OW40014   6.923   2.121   1.428 -0.0577  0.0466 -0.5687
45110SOL    HW140015   6.873   2.190   1.470  0.7918 -0.4519  1.3676
45110SOL    HW240016   6.964   2.163   1.352  0.0630  1.5612  0.2940
45111SOL     OW40017   2.187   6.508   7.941  0.2464  0.2946 -0.2507
45111SOL    HW140018   2.229   6.586   7.904 -1.1004  0.6098 -1.1921
45111SOL    HW240019   2.185   6.445   7.870  0.5768 -0.3084  0.2663
45112SOL     OW40020   2.890  11.198   4.148 -0.6794 -0.0954  0.3716
45112SOL    HW140021   2.947  11.252   4.202 -0.5713 -0.0023  0.1622
45112SOL    HW240022   2.836  11.261   4.100 -0.6916 -0.1771  0.2785
45113SOL     OW40023   1.236   7.248   4.821  0.8887 -0.4531 -0.1805
45113SOL    HW140024   1.238   7.287   4.909 -1.2173  0.6108 -0.5346
45113SOL    HW240025   1.221   7.322   4.762  1.4264 -1.2645 -1.3750
45114SOL     OW40026   3.486   2.324   9.662 -0.1081  0.2820 -0.1565
45114SOL    HW140027   3.441   2.366   9.588 -0.1068  0.1055 -0.2578
45114SOL    HW240028   3.578   2.322   9.635 -0.4254 -2.1668 -1.3197
45115SOL     OW40029   9.961   7.874   3.219 -0.3837 -0.3695  0.0393
45115SOL    HW140030   9.942   7.874   3.125 -3.2873 -1.3611  0.5494
45115SOL    HW240031  10.053   7.900   3.224 -0.3153  0.3644 -3.0234
45116SOL     OW40032   7.217   7.164   8.428  0.4919  0.3312  0.3174
45116SOL    HW140033   7.308   7.137   8.425  0.1466 -1.0516  1.2273
45116SOL    HW240034   7.170   7.088   8.462 -1.2040  0.4925 -1.4459
45117SOL     OW40035   3.474   0.754   0.442  0.4935 -0.1399  0.0080
45117SOL    HW140036   3.399   0.812   0.430 -0.3580 -0.8758  1.4672
45117SOL    HW240037   3.545   0.797   0.396 -0.2284  1.8100  0.6095
45118SOL     OW40038   9.198   9.606   7.159 -0.4211  0.5125 -0.6959
45118SOL    HW140039   9.167   9.518   7.136  0.4052 -0.0338  0.1770
45118SOL    HW240040   9.289   9.607   7.129 -0.6353  1.3447 -1.3519
45119SOL     OW40041   1.114   7.694   5.223  0.3825 -0.3955  0.9658
45119SOL    HW140042   1.051   7.748   5.176  0.1285 -2.0417 -0.7371
45119SOL    HW240043   1.167   7.755   5.273  0.6225  1.5200 -1.4444
45120SOL     OW40044   8.022  11.168   0.488 -0.6334 -0.0641 -0.0907
45120SOL    HW140045   7.979  11.251   0.469 -0.5061 -0.0989 -0.5425
45120SOL    HW240046   8.111  11.179   0.455 -0.2311  0.0664  0.9801
45121SOL     OW40047  11.674   3.512   1.790  0.5604  0.2769  0.6688
45121SOL    HW140048  11.667   3.596   1.745 -2.3714 -0.7491 -1.0820
45121SOL    HW240049  11.590   3.502   1.836  1.2401 -1.2270  1.6755
45122SOL     OW40050  11.797   9.938   6.412  0.0927  0.0317  0.5664
45122SOL    HW140051  11.819   9.901   6.497 -0.8737 -1.6539  0.1356
45122SOL    HW240052  11.880   9.944   6.366  0.4083 -0.7316  1.0151
45123SOL     OW40053   4.236   4.161   1.894 -0.0381 -0.1089 -0.1147
45123SOL    HW140054   4.165   4.117   1.942 -0.3296  0.6383  0.1572
45123SOL    HW240055   4.216   4.254   1.902 -0.9758  0.0523 -3.0032
45124SOL     OW40056   0.749   0.896   7.365  0.3880 -0.0346 -0.0534
45124SOL    HW140057   0.673   0.857   7.323 -0.6324  4.4117 -2.9890
45124SOL    HW240058   0.815   0.903   7.296  0.8784  2.2155  0.5435
45125SOL     OW40059   3.755   9.145   3.509  0.4193 -0.5402  0.7076
45125SOL    HW140060   3.722   9.222   3.463  2.5713  0.0848  0.0861
45125SOL    HW240061   3.728   9.158   3.600 -2.3389 -0.9005  0.0455
45126SOL     OW40062   6.802  11.037   6.996 -0.7922 -0.1919  0.4224
45126SOL    HW140063   6.783  10.981   6.920 -1.8514  0.5033  0.1648
45126SOL    HW240064   6.872  10.990   7.042 -2.0643 -2.0685  0.5612
45127SOL     OW40065   0.552   0.737   8.874  0.7984 -0.7481 -0.2853
45127SOL    HW140066   0.584   0.673   8.938 -1.6167 -0.8522  0.9549
45127SOL    HW240067   0.520   0.810   8.928 -0.7425 -0.5599 -1.3911
45128SOL     OW40068   2.060   6.957   0.751  0.2827  0.2166 -0.2747
45128SOL    HW140069   2.077   6.886   0.689  0.1390  1.2124 -1.4942
45128SOL    HW240070   2.140   7.008   0.750  0.4584 -0.0195  0.7544
45129SOL     OW40071   6.442   4.424  11.747  0.6274  0.2886 -0.4595
45129SOL    HW140072   6.381   4.364  11.705 -1.8693 -0.0703  3.2301
45129SOL    HW240073   6.512   4.368  11.779  0.6218  0.0469 -0.8597
45130SOL     OW40074   4.710   3.828   5.151  0.3026 -0.0440  0.5218
45130SOL    HW140075   4.728   3.873   5.233 -2.0825  0.1363  1.0196
45130SOL    HW240076   4.720   3.735   5.171  1.7849  0.0623  0.4119
45131SOL     OW40077   5.681  11.505   0.454 -0.1086 -0.7069 -0.3676
45131SOL    HW140078   5.655  11.413   0.464  1.3938 -0.9561  2.5872
45131SOL    HW240079   5.774  11.501   0.431 -0.1251  0.0977 -0.6143
45132SOL     OW40080   2.259   9.997   1.785 -0.0928  0.4315  0.8246
45132SOL    HW140081   2.254   9.904   1.805 -0.8662  0.4069  0.5629
45132SOL    HW240082   2.188  10.012   1.722  0.8682  0.9354 -0.1748
45133SOL     OW40083  10.932   0.569   9.132 -0.3378 -0.4906  0.6758
45133SOL    HW140084  11.005   0.606   9.180  0.2190  0.4479 -0.8143
45133SOL    HW240085  10.856   0.621   9.158  0.1811  0.8241 -0.3166
45134SOL     OW40086   0.860   3.939   5.443  0.6923  0.1844  0.1998
45134SOL    HW140087   0.784   3.912   5.495  1.1980  0.4526  1.1021
45134SOL    HW240088   0.916   3.861   5.439  0.8947  0.3102  0.5117
45135SOL     OW40089   4.959   4.246  11.704  0.3096  0.1292  0.1117
45135SOL    HW140090   4.950   4.184  11.776  1.2228  1.5224  1.4976
45135SOL    HW240091   4.937   4.195  11.626 -0.3701 -1.5303  1.3166
45136SOL     OW40092   0.832  10.113   7.573  0.0726  0.0085  0.5692
45136SOL    HW140093   0.809  10.057   7.647  1.7685 -1.1182  0.3273
45136SOL    HW240094   0.912  10.157   7.600  0.4520 -0.0532 -0.3908
45137SOL     OW40095   2.723   4.496   1.840  0.5694  0.1794  0.3692
45137SOL    HW140096   2.779   4.567   1.809  0.7796  0.1488  0.6714
45137SOL    HW240097   2.730   4.428   1.772  0.3913  0.4322  0.0959
45138SOL     OW40098   4.725   8.213  11.033 -0.8270 -0.2463 -0.3859
45138SOL    HW140099   4.671   8.262  10.971 -0.6140  0.3399 -0.1181
45138SOL    HW240100   4.788   8.277  11.065  0.0496 -0.9204 -0.7121
45139SOL     OW40101  10.852   6.794   4.236 -0.0368  0.0199 -0.5242
45139SOL    HW140102  10.906   6.777   4.158 -0.6773 -0.1260 -0.9452
45139SOL    HW240103  10.876   6.883   4.262  1.6144 -0.6451  0.2943
45140SOL     OW40104   7.144   7.690   8.887  0.0343 -0.1792 -0.0355
45140SOL    HW140105   7.132   7.768   8.941 -2.7992 -0.1090 -0.6103
45140SOL    HW240106   7.093   7.622   8.932 -1.2090 -0.4781 -1.7820
45141SOL     OW40107   9.019   9.538   9.108  0.0524 -0.1228  0.8352
45141SOL    HW140108   9.061   9.624   9.108 -3.1140  1.5978  0.1275
45141SOL    HW240109   8.955   9.543   9.037 -1.9213 -2.1328  2.3277
45142SOL     OW40110   1.953   8.126  10.989  0.7125  0.0152 -0.5019
45142SOL    HW140111   1.865   8.089  10.980  0.2895  0.8524  0.0622
45142SOL    HW240112   2.000   8.062  11.042  0.3719 -0.3338 -0.6146
45143SOL     OW40113   8.579  10.258   2.435  0.4694 -0.4471  0.7194
45143SOL    HW140114   8.516  10.306   2.489 -0.8362  0.9878 -1.9031
45143SOL    HW240115   8.529  10.184   2.400  0.6674 -0.1914 -0.1281
45144SOL     OW40116   2.878   6.044   6.152 -0.3374 -0.2499  0.3180
45144SOL    HW140117   2.891   6.004   6.238 -1.1007  0.2531  0.6840
45144SOL    HW240118   2.783   6.059   6.147 -0.2909 -0.1825 -0.5733
45145SOL     OW40119   5.793   0.967   7.016  0.1432  0.1586 -0.3677
45145SOL    HW140120   5.749   0.896   6.970  0.6413 -2.1692  2.4279
45145SOL    HW240121   5.727   1.002   7.076  0.7102 -0.0256  0.3856
45146SOL     OW40122   8.204   2.094   7.426  0.3270  0.0788  0.4933
45146SOL    HW140123   8.271   2.152   7.463  0.1710 -0.5775  1.8867
45146SOL    HW240124   8.138   2.088   7.495 -0.9894  0.3943 -0.6885
45147SOL     OW40125   6.718   0.575  11.418  0.2185  0.3404  0.2273
45147SOL    HW140126   6.699   0.645  11.480 -1.2312 -0.3363  0.5944
45147SOL    HW240127   6.654   0.588  11.347 -0.7793 -1.1717  0.7970
45148SOL     OW40128   1.853   6.906   9.985 -0.2798  0.0186  0.0587
45148SOL    HW140129   1.805   6.936  10.062 -0.2215  1.2977 -0.3787
45148SOL    HW240130   1.882   6.818  10.008 -2.9367 -0.8874  0.2773
45149SOL     OW40131  11.469   2.568   4.314 -0.0525  0.7601  0.2611
45149SOL    HW140132  11.513   2.611   4.240  3.4161 -2.5669  0.0539
45149SOL    HW240133  11.424   2.493   4.275 -0.3270  0.4030  1.2355
45150SOL     OW40134   4.631   0.161   2.109  0.5989 -0.2811 -0.1597
45150SOL    HW140135   4.537   0.157   2.090  0.8080 -1.8821 -1.0319
45150SOL    HW240136   4.636   0.160   2.204 -0.3049  1.4953 -0.0564
45151SOL     OW40137   2.109   7.489  10.816  0.5687  0.1780 -0.1329
45151SOL    HW140138   2.110   7.431  10.892 -0.2655 -1.0139 -0.9887
45151SOL    HW240139   2.194   7.533  10.818  1.3900 -1.3671  0.3435
45152SOL     OW40140   8.239  11.302   2.886 -0.2430  0.0491  0.7400
45152SOL    HW140141   8.302  11.248   2.933 -0.3224 -0.5611  0.1718
45152SOL    HW240142   8.292  11.372   2.848  0.5283 -1.6055 -1.5021
45153SOL     OW40143   2.438   2.593   7.283  0.3150 -0.5433 -0.5424
45153SOL    HW140144   2.493   2.671   7.281 -1.3221  0.6898  0.4387
45153SOL    HW240145   2.370   2.610   7.218 -1.6424  0.1382  1.5680
45154SOL     OW40146   3.193   5.432  11.592  0.5217  0.0595 -0.1030
45154SOL    HW140147   3.130   5.478  11.538 -0.4809 -0.8907  0.2307
45154SOL    HW240148   3.242   5.502  11.636 -2.1060  0.8964  1.7239
45155SOL     OW40149   2.952   0.978   5.769 -0.6224  0.6544  0.2232
45155SOL    HW140150   2.906   1.031   5.834 -1.5670  0.4893 -0.2916
45155SOL    HW240151   2.979   0.900   5.818 -2.1855  0.0795  0.2202
45156SOL     OW40152   0.217   3.401   2.177  0.0904 -0.5081  0.2372
45156SOL    HW140153   0.194   3.463   2.247  0.2723  0.1012 -0.2263
45156SOL    HW240154   0.310   3.417   2.161  0.1388 -0.9079  0.1152
45157SOL     OW40155   4.382   4.225   9.724  0.1722  0.9460 -0.7843
45157SOL    HW140156   4.350   4.293   9.666 -0.4761  1.5510  0.2410
45157SOL    HW240157   4.471   4.253   9.748  0.7139  0.3273 -2.0174
45158SOL     OW40158   5.642   3.783   3.396  0.3156 -0.1447 -0.0374
45158SOL    HW140159   5.548   3.798   3.410  0.0046 -1.0230 -0.9788
45158SOL    HW240160   5.656   3.809   3.305  1.2661  1.1477  0.4597
45159SOL     OW40161  10.934   3.087   6.187 -0.0170 -0.1356 -0.1400
45159SOL    HW140162  10.871   3.023   6.218 -1.2144  0.3517 -1.4203
45159SOL    HW240163  10.911   3.100   6.095  1.4554  0.6658 -0.4266
45160SOL     OW40164  11.297   5.658  11.742 -0.2365 -0.2205 -0.1415
45160SOL    HW140165  11.243   5.695  11.673  0.4739  1.0447 -0.0412
45160SOL    HW240166  11.260   5.693  11.823  1.2504  1.4132 -0.1170
45161SOL     OW40167   9.709   8.134   3.901 -0.1474  0.3656 -0.3383
45161SOL    HW140168   9.694   8.113   3.993  1.3400  0.3033 -0.0826
45161SOL    HW240169   9.656   8.072   3.852 -0.6716  0.1695  0.4723
45162SOL     OW40170  11.860   7.162  10.601 -0.2231 -0.1912 -0.2666
45162SOL    HW140171  11.933   7.221  10.580  0.1917 -0.2797  0.8749
45162SOL    HW240172  11.899   7.075  10.604 -0.0739 -0.0998  1.6207
45163SOL     OW40173   8.750   3.321  11.243  0.2105 -0.4295  0.0901
45163SOL    HW140174   8.771   3.413  11.262 -1.9005  0.5368 -1.6758
45163SOL    HW240175   8.818   3.293  11.182 -0.0111  0.5669 -0.6647
45164SOL     OW40176  10.215   4.802   7.127 -0.1735  0.2002 -0.0857
45164SOL    HW140177  10.224   4.867   7.196  1.4176 -0.2528  0.1726
45164SOL    HW240178  10.274   4.731   7.152  1.7186  0.6959 -2.6452
45165SOL     OW40179   0.894  11.112   0.987 -0.0168  0.3544 -0.1760
45165SOL    HW140180   0.940  11.048   1.042  2.4535  1.6629 -0.5904
45165SOL    HW240181   0.803  11.084   0.989  0.4227 -1.2011  2.3921
45166SOL     OW40182   1.726   8.586   8.930  0.1975  0.3219  0.3468
45166SOL    HW140183   1.743   8.665   8.878 -1.2200 -0.1651 -0.9412
45166SOL    HW240184   1.813   8.554   8.954  0.9768  0.2891 -2.2213
45167SOL     OW40185   6.285   1.211  10.382  0.2298  0.5595  0.0457
45167SOL    HW140186   6.219   1.251  10.324 -0.7230  0.4535  1.0291
45167SOL    HW240187   6.332   1.285  10.419 -0.9117  0.7688  1.1405
45168SOL     OW40188   7.815  10.681   0.601  0.3625 -0.3625  0.0344
45168SOL    HW140189   7.882  10.747   0.582  0.3338 -0.9173 -2.3058
45168SOL    HW240190   7.860  10.597   0.587 -0.0176 -0.8260  1.4591
45169SOL     OW40191   0.044   4.772   7.042  0.3229 -0.1094  0.5938
45169SOL    HW140192  -0.032   4.811   7.087  0.7039 -0.1159  1.2529
45169SOL    HW240193   0.100   4.742   7.113  2.1969  2.1959  0.2173
45170SOL     OW40194   2.162   4.651   9.065  0.0468 -0.1181  0.0514
45170SOL    HW140195   2.249   4.615   9.050  0.1479 -0.0092  0.3852
45170SOL    HW240196   2.103   4.576   9.055  0.0487  0.0598 -1.5360
45171SOL     OW40197   1.967   8.514   9.827 -0.2378  0.1709 -0.7543
45171SOL    HW140198   1.958   8.489   9.919 -0.8733 -0.0469 -0.8679
45171SOL    HW240199   1.963   8.610   9.828 -0.0536  0.1775 -0.5363
45172SOL     OW40200   7.992   0.459   4.337  0.3745  0.0102 -0.0423
45172SOL    HW140201   7.916   0.451   4.395 -0.3472 -2.5560 -1.2187
45172SOL    HW240202   8.040   0.377   4.348  1.3258  0.3247 -1.5422
45173SOL     OW40203   3.094  10.735   6.783 -0.2136  0.0441 -0.6234
45173SOL    HW140204   3.169  10.750   6.841 -1.1265  0.1939  0.5489
45173SOL    HW240205   3.131  10.686   6.709  1.0466  0.1401 -0.0854
45174SOL     OW40206  10.835  10.048   5.112  0.1120  0.1954  0.1732
45174SOL    HW140207  10.896  10.121   5.104  0.8565 -0.2389  1.5493
45174SOL    HW240208  10.845   9.999   5.031 -1.0367  2.0708 -1.1604
45175SOL     OW40209  10.427   2.468   8.147  0.4606  0.2174 -0.2844
45175SOL    HW140210  10.389   2.408   8.211  1.6278 -0.5060 -0.2390
45175SOL    HW240211  10.521   2.452   8.152  0.6350  0.6849 -1.6510
45176SOL     OW40212   4.001   9.228   1.703 -0.0869  0.3921  0.0663
45176SOL    HW140213   4.023   9.318   1.682  0.8436  0.0092 -0.6428
45176SOL    HW240214   4.053   9.175   1.643 -1.6716 -0.6025 -0.5126
45177SOL     OW40215   0.454   1.951   0.683 -0.8828 -0.4728  0.3839
45177SOL    HW140216   0.449   1.874   0.739  0.3228 -0.7514  0.1392
45177SOL    HW240217   0.548   1.971   0.678 -1.0159 -0.0671 -0.9990
45178SOL     OW40218   2.319   0.147   1.294 -0.0528  0.3113 -0.0953
45178SOL    HW140219   2.268   0.130   1.373 -1.1286 -0.7973 -0.9859
45178SOL    HW240220   2.410   0.137   1.321 -0.4425 -1.0766  0.7810
45179SOL     OW40221  11.472   4.429  10.870 -0.5932 -0.0122 -0.2838
45179SOL    HW140222  11.476   4.441  10.965 -0.2104 -2.2277  0.0325
45179SOL    HW240223  11.401   4.366  10.856 -2.8376  2.6247 -1.8072
45180SOL     OW40224   2.482   5.512   5.612 -0.8272  0.5193 -0.7305
45180SOL    HW140225   2.476   5.440   5.675 -3.2695  1.3205  0.0888
45180SOL    HW240226   2.575   5.527   5.601 -0.2948 -0.6277  1.5722
45181SOL     OW40227  10.817   8.808   3.751 -0.1403 -0.1491  0.3545
45181SOL    HW140228  10.776   8.777   3.831  0.6459  1.6725  1.5263
45181SOL    HW240229  10.777   8.893   3.735  0.4396 -0.0503 -0.6356
45182SOL     OW40230   5.048   7.117   1.607  0.1354  0.6773  0.2302
45182SOL    HW140231   4.954   7.100   1.615 -0.1199  1.8916  0.0733
45182SOL    HW240232   5.072   7.159   1.689  0.5740  0.2286  0.3301
45183SOL     OW40233   6.725   9.159   2.704  0.4121  0.2237 -0.1629
45183SOL    HW140234   6.777   9.229   2.663 -1.7019  1.0634 -1.5707
45183SOL    HW240235   6.787   9.087   2.715  1.6914  0.8496 -2.6185
45184SOL     OW40236   0.936   3.085  11.646  0.5278 -0.2383 -0.1575
45184SOL    HW140237   1.003   3.054  11.586  1.4900 -2.5580  1.9547
45184SOL    HW240238   0.979   3.089  11.732 -1.4113  0.5134  0.8657
45185SOL     OW40239   8.219   0.370   3.659  0.6203 -0.1890 -0.1659
45185SOL    HW140240   8.314   0.383   3.661  0.5011  0.6913  0.7373
45185SOL    HW240241   8.207   0.290   3.608  1.7755  0.2518 -1.1710
45186SOL     OW40242  11.646   6.231  10.052  0.4122  0.1053 -0.3833
45186SOL    HW140243  11.614   6.166   9.989 -0.7263 -0.7438  1.0022
45186SOL    HW240244  11.705   6.181  10.108 -0.8915  0.0986  1.0281
45187SOL     OW40245   6.436   0.404   7.802 -0.5473  0.1673 -0.5777
45187SOL    HW140246   6.489   0.434   7.728  2.4510 -0.5611  1.1340
45187SOL    HW240247   6.426   0.481   7.858 -0.7054  0.1274 -0.5495
45188SOL     OW40248   1.300   5.490   5.612 -0.1453  0.0574  0.5680
45188SOL    HW140249   1.272   5.472   5.702  1.7136  2.7960  1.8298
45188SOL    HW240250   1.246   5.563   5.584 -0.3180 -0.4147 -0.3808
45189SOL     OW40251   2.286   2.214   8.984 -0.2976  0.6295 -0.2540
45189SOL    HW140252   2.350   2.281   9.010 -0.9037  0.8674  0.6996
45189SOL    HW240253   2.331   2.163   8.918 -0.1243  2.5486 -1.7179
45190SOL     OW40254   2.025   0.528  11.802 -0.0826  0.1513 -0.1310
45190SOL    HW140255   2.112   0.552  11.771 -0.1837  0.7321  0.0159
45190SOL    HW240256   2.040   0.456  11.863  0.3772  0.7343  0.4576
45191SOL     OW40257   8.703   4.696   4.679  0.3353  0.1226 -0.7250
45191SOL    HW140258   8.683   4.613   4.722  1.4704 -0.2689 -0.9123
45191SOL    HW240259   8.629   4.712   4.621  0.5736 -1.2798 -1.4453
45192SOL     OW40260   4.358   3.059   4.450 -0.6467  0.2287  0.1765
45192SOL    HW140261   4.386   2.978   4.493 -1.4492 -0.8966 -1.3457
45192SOL    HW240262   4.295   3.031   4.384 -0.0970  1.9850 -1.1681
45193SOL     OW40263   2.439   3.118  11.429  0.8553  0.1181  0.3702
45193SOL    HW140264   2.421   3.033  11.470 -1.5977  0.5781  0.4527
45193SOL    HW240265   2.438   3.099  11.335 -2.0256  0.3013  0.2623
45194SOL     OW40266   8.176  11.533   8.095  0.0959  0.0709  0.3992
45194SOL    HW140267   8.107  11.477   8.059  0.8682 -0.5468 -0.1233
45194SOL    HW240268   8.178  11.608   8.036 -0.1213  0.0921  0.4159
45195SOL     OW40269   7.608   1.055   7.955 -0.0625 -0.2454 -0.0284
45195SOL    HW140270   7.571   0.992   7.893 -1.0527 -1.3687  1.6024
45195SOL    HW240271   7.552   1.132   7.948  0.2040 -0.1330 -0.9446
45196SOL     OW40272   5.565   1.015   7.207 -0.1600  0.0841  0.3699
45196SOL    HW140273   5.565   0.924   7.236  0.0776  0.2267  0.8362
45196SOL    HW240274   5.477   1.029   7.173 -0.8421  0.2163  2.0693
45197SOL     OW40275   5.342   2.206   7.397  0.4040 -0.3636  0.2693
45197SOL    HW140276   5.288   2.223   7.319  0.6570 -0.5149  0.0587
45197SOL    HW240277   5.336   2.112   7.411  0.0118 -0.2786  0.6926
45198SOL     OW40278   7.170   8.287   9.388 -0.0203 -0.3736  0.8168
45198SOL    HW140279   7.247   8.233   9.400  0.1829 -0.2330  0.1803
45198SOL    HW240280   7.178   8.356   9.454 -0.0322 -0.8377  1.3012
45199SOL     OW40281   7.655   4.804   8.099 -0.0068 -0.6086  0.8084
45199SOL    HW140282   7.598   4.873   8.062  2.3849  1.1912  0.2268
45199SOL    HW240283   7.688   4.842   8.180  2.1485 -0.5929 -0.0198
45200SOL     OW40284   9.660   2.388   7.246  0.3173 -0.9020  0.0234
45200SOL    HW140285   9.600   2.350   7.310  1.1874  0.0648  1.4709
45200SOL    HW240286   9.676   2.317   7.183 -0.9103 -1.7309  0.6163
45201SOL     OW40287  11.403   2.721   7.401 -0.2337 -0.0835  0.1913
45201SOL    HW140288  11.398   2.759   7.313  0.0846  0.9207  0.5825
45201SOL    HW240289  11.481   2.761   7.440 -1.8576  1.6739  1.8817
45202SOL     OW40290   6.099   2.009  10.106  0.3942 -0.2935 -0.4281
45202SOL    HW140291   6.103   1.937  10.043 -0.4079 -0.7901  0.0834
45202SOL    HW240292   6.078   2.086  10.053 -1.3150 -0.8827 -0.6644
45203SOL     OW40293   6.832  11.255   6.117  0.0735 -0.5764  0.2562
45203SOL    HW140294   6.866  11.289   6.034 -1.2948  0.7866  0.2071
45203SOL    HW240295   6.856  11.322   6.181  0.4326 -1.2490  0.8365
45204SOL     OW40296   5.050  10.843   3.099 -0.4502 -0.2471 -0.3024
45204SOL    HW140297   5.017  10.889   3.176 -0.3188  0.2452 -0.5384
45204SOL    HW240298   4.974  10.834   3.042 -0.7139 -1.2631  0.1954
45205SOL     OW40299  11.890   1.764   6.037 -0.2367  0.3095 -0.4166
45205SOL    HW140300  11.911   1.712   5.960  0.6466  0.7608 -0.5013
45205SOL    HW240301  11.799   1.743   6.057  0.5244 -2.5270  0.5384
45206SOL     OW40302   5.023   3.919   3.251 -0.2242  0.4865  0.4785
45206SOL    HW140303   5.060   3.980   3.316  0.1409  0.8473 -0.0622
45206SOL    HW240304   4.993   3.845   3.303 -0.8698  1.2116  1.1738
45207SOL     OW40305   9.123   5.013   6.864  0.1217 -0.6381  0.1698
45207SOL    HW140306   9.128   4.976   6.776  1.4178 -0.4653  0.1433
45207SOL    HW240307   9.203   4.982   6.907 -0.7814 -1.2204  1.5005
45208SOL     OW40308   1.257  11.177   0.060  0.3442 -0.0799  0.0165
45208SOL    HW140309   1.337  11.210   0.102  0.7551 -0.5611 -0.3805
45208SOL    HW240310   1.192  11.175   0.130  0.9086 -0.4676  0.5344
45209SOL     OW40311   0.438   2.857   4.071 -0.2006 -0.0112 -0.0288
45209SOL    HW140312   0.382   2.786   4.104  0.4454 -1.3486 -1.6888
45209SOL    HW240313   0.527   2.831   4.094  0.1819 -0.5318 -1.9337
45210SOL     OW40314  11.839   2.592   6.550  0.6708  0.5646  0.0041
45210SOL    HW140315  11.831   2.497   6.558  1.1482  0.5323  0.1052
45210SOL    HW240316  11.901   2.605   6.478 -0.4537  0.8210 -0.9603
45211SOL     OW40317   1.920   1.156   1.717  0.6701  0.1503 -0.1864
45211SOL    HW140318   1.849   1.189   1.771 -1.9487 -0.8865 -2.7029
45211SOL    HW240319   1.949   1.076   1.761 -0.5287 -0.0154  0.3218
45212SOL     OW40320   7.697   3.470   0.628 -0.2242 -0.5374 -0.1934
45212SOL    HW140321   7.648   3.505   0.702 -0.4134  0.2480 -0.6823
45212SOL    HW240322   7.645   3.493   0.552  0.1867 -0.9663 -0.6118
45213SOL     OW40323   9.957   4.695   9.965  0.0501  0.0889 -0.3706
45213SOL    HW140324   9.933   4.786   9.983  0.3506  0.0617  0.1936
45213SOL    HW240325  10.050   4.690   9.986 -0.2979 -0.7209  1.1842
45214SOL     OW40326   8.076   3.960   4.789  0.2766  0.1956 -0.4391
45214SOL    HW140327   8.028   3.993   4.713 -0.4909 -1.0107 -0.5115
45214SOL    HW240328   8.167   3.954   4.760 -0.1392 -1.0911 -1.5963
45215SOL     OW40329  11.281   9.504   6.738 -0.3225 -0.8340  0.1769
45215SOL    HW140330  11.299   9.449   6.814  0.4800 -0.2875  0.3942
45215SOL    HW240331  11.314   9.453   6.663  0.5885 -0.5926  0.3967
45216SOL     OW40332   0.778   6.836   0.278  0.8978 -0.2006 -0.0626
45216SOL    HW140333   0.715   6.883   0.333 -0.4543 -1.0044 -0.8774
45216SOL    HW240334   0.817   6.904   0.223  0.5876  0.2725  0.2932
45217SOL     OW40335  10.921  11.351   3.717 -0.1357 -0.8715  0.3603
45217SOL    HW140336  10.899  11.430   3.668 -1.0690 -0.0451  2.0340
45217SOL    HW240337  10.959  11.292   3.652 -2.0794 -0.1667 -1.5087
45218SOL     OW40338   0.740  11.759  10.563 -0.7614 -0.8216  0.2217
45218SOL    HW140339   0.669  11.807  10.605 -1.2663  0.6198 -2.0991
45218SOL    HW240340   0.701  11.674  10.540 -1.3988 -0.4747 -0.0108
45219SOL     OW40341   0.687   9.524   3.822 -0.3526  0.0057  0.1883
45219SOL    HW140342   0.632   9.586   3.775 -1.9823 -0.6579  1.1490
45219SOL    HW240343   0.677   9.442   3.774 -2.4694 -0.8227  1.8749
45220SOL     OW40344   8.161   1.112   6.235 -0.6317  0.1803  0.0898
45220SOL    HW140345   8.249   1.094   6.201 -1.0086 -1.4828 -0.0943
45220SOL    HW240346   8.155   1.208   6.237  1.1329  0.3209  0.0052
45221SOL     OW40347  11.974   5.866   3.446 -0.2700 -0.3132  0.3364
45221SOL    HW140348  12.046   5.805   3.462  0.3873  0.1242 -0.8454
45221SOL    HW240349  11.905   5.812   3.407 -0.2629 -0.5746  0.6814
45222SOL     OW40350  11.829   0.584   8.690 -0.3395 -0.3726  0.1778
45222SOL    HW140351  11.815   0.600   8.783  1.2542 -2.6168  0.8791
45222SOL    HW240352  11.878   0.661   8.660 -1.4100  0.6757  0.9940
45223SOL     OW40353   3.375   2.500   8.070 -0.4157 -0.1541 -0.3260
45223SOL    HW140354   3.444   2.481   8.134 -0.1544 -0.2870 -0.6428
45223SOL    HW240355   3.423   2.528   7.992 -0.7474  0.4903 -0.3045
45224SOL     OW40356   3.468   4.379   0.639  0.6498 -0.2457  0.4102
45224SOL    HW140357   3.438   4.404   0.726 -1.2769  0.3096 -0.3632
45224SOL    HW240358   3.450   4.284   0.634  0.6174 -0.2475  0.5714
45225SOL     OW40359   2.997   2.969  10.237 -0.0570  0.1968  0.0908
45225SOL    HW140360   2.930   2.901  10.248 -2.0321  2.0820  0.3774
45225SOL    HW240361   2.984   3.002  10.148 -0.7199  1.7378  0.7240
45226SOL     OW40362   4.046   9.298   9.222  0.0245  0.5910  0.2593
45226SOL    HW140363   4.123   9.334   9.176  0.0057  0.7062  0.3180
45226SOL    HW240364   4.032   9.212   9.181 -0.1608  0.8098 -0.1407
45227SOL     OW40365   1.813   8.385   2.724 -0.2922 -0.0320 -0.5898
45227SOL    HW140366   1.821   8.367   2.631  0.6856  0.6101 -0.6428
45227SOL    HW240367   1.727   8.428   2.732 -0.5673 -0.4735 -1.1254
45228SOL     OW40368   0.944   1.979   7.686  0.2062  0.1683  0.6890
45228SOL    HW140369   0.888   2.056   7.699 -0.0232  0.0726  0.2804
45228SOL    HW240370   0.990   1.996   7.603 -2.7005 -1.8229 -1.5175
45229SOL     OW40371   3.421   9.417  11.769  0.4292 -0.0108 -0.4637
45229SOL    HW140372   3.448   9.382  11.853  0.2694  0.8466 -0.0401
45229SOL    HW240373   3.391   9.341  11.720  0.0153 -0.4591  0.4536
45230SOL     OW40374   4.592   0.471  10.522 -0.4677 -0.0172  0.6802
45230SOL    HW140375   4.634   0.539  10.574 -1.2477 -0.7222  2.3245
45230SOL    HW240376   4.551   0.518  10.449  1.7939  0.8468 -0.1178
45231SOL     OW40377   9.052   9.159   0.739 -0.1126 -0.0336 -0.3420
45231SOL    HW140378   9.124   9.154   0.675  0.0094 -0.2466 -0.1904
45231SOL    HW240379   9.078   9.230   0.797 -0.0197 -0.1147 -0.2834
45232SOL     OW40380  10.454  10.956   5.739 -0.3234  0.4916  0.3839
45232SOL    HW140381  10.371  10.916   5.764  0.0484 -0.1844  0.5903
45232SOL    HW240382  10.430  11.032   5.686 -1.0940  1.0753  1.5367
45233SOL     OW40383   0.493   2.293  11.408 -0.0143  0.2144  0.3410
45233SOL    HW140384   0.575   2.271  11.364 -0.0393  0.1692  0.3167
45233SOL    HW240385   0.490   2.388  11.408  0.8229  0.2685  1.7611
45234SOL     OW40386   8.960   7.611   3.394  0.2686 -0.8214 -0.5314
45234SOL    HW140387   8.894   7.679   3.378  0.0009 -0.9980 -0.2000
45234SOL    HW240388   9.039   7.643   3.350  0.0745 -0.4132 -0.5873
45235SOL     OW40389   8.009   1.271   2.169  0.0209  0.2545  0.7733
45235SOL    HW140390   7.988   1.361   2.193 -0.3232  0.4347 -0.1270
45235SOL    HW240391   8.005   1.222   2.250 -0.4131  0.9414  1.1720
45236SOL     OW40392   4.973   9.951   2.690 -0.3621 -0.4567  0.1338
45236SOL    HW140393   4.890   9.959   2.645 -0.5115  0.0031  0.4816
45236SOL    HW240394   5.026   9.893   2.634 -0.6360 -0.1156 -0.4844
45237SOL     OW40395  10.150   3.303   5.915 -0.1217 -0.1535 -0.3200
45237SOL    HW140396  10.109   3.315   5.830  0.8191 -0.0856 -0.7778
45237SOL    HW240397  10.077   3.291   5.976 -0.7954 -1.3358 -1.3035
45238SOL     OW40398   3.376   6.690   5.738  0.4150  0.4861  0.1804
45238SOL    HW140399   3.440   6.627   5.705  0.3926 -0.3761  1.6902
45238SOL    HW240400   3.424   6.772   5.747  1.6042 -0.3457  2.0874
45239SOL     OW40401   0.716   0.196   6.212 -0.0436 -0.5515 -0.4434
45239SOL    HW140402   0.770   0.262   6.168 -0.5174  0.1174 -0.0430
45239SOL    HW240403   0.717   0.121   6.153  0.4946 -0.1812 -0.9173
45240SOL     OW40404   5.727   1.589  11.969  0.2185 -0.0816  0.2684
45240SOL    HW140405   5.788   1.615  12.037 -1.1723  1.8250  0.9048
45240SOL    HW240406   5.703   1.499  11.990  1.7994 -0.4071  0.7395
45241SOL     OW40407   1.239  10.647   1.639 -0.2799 -0.3718  0.0045
45241SOL    HW140408   1.271  10.627   1.726  0.9060  0.1695 -0.2846
45241SOL    HW240409   1.306  10.704   1.601  1.6910 -4.2473 -2.9651
45242SOL     OW40410   4.311  11.044   3.329  0.2871  0.0381  0.0079
45242SOL    HW140411   4.331  10.951   3.318 -0.5093 -0.0403 -0.9687
45242SOL    HW240412   4.396  11.088   3.321  0.4176 -0.4467 -1.8590
45243SOL     OW40413   1.534  11.096   6.924  0.4259  0.4455  0.4450
45243SOL    HW140414   1.475  11.022   6.936  1.6556 -0.6083  0.3141
45243SOL    HW240415   1.508  11.160   6.990  0.2213 -0.6997  1.4905
45244SOL     OW40416   4.716   8.993   2.003  0.1151  0.9209  0.0454
45244SOL    HW140417   4.637   8.944   2.026  1.8358 -1.5788  1.0581
45244SOL    HW240418   4.684   9.080   1.980 -2.8693  0.1678  0.8798
45245SOL     OW40419  11.177   8.070  11.388  0.1097 -0.2539  0.0753
45245SOL    HW140420  11.103   8.124  11.414  1.5327  2.5471 -1.2041
45245SOL    HW240421  11.140   8.004  11.330 -1.7656 -0.9860  2.0020
45246SOL     OW40422   6.887   9.752   6.666 -0.2845 -0.1981  0.0421
45246SOL    HW140423   6.902   9.843   6.692  0.2668 -0.3387  0.2341
45246SOL    HW240424   6.930   9.700   6.734 -0.7640 -0.6089  0.0421
45247SOL     OW40425   8.663  10.410   8.261 -0.0534 -0.0075  0.1129
45247SOL    HW140426   8.649  10.371   8.348 -1.4168  0.3608  0.0772
45247SOL    HW240427   8.686  10.501   8.279  2.5398 -0.5976  0.1689
45248SOL     OW40428   6.736   9.202   4.532 -0.0014  0.1592 -0.4692
45248SOL    HW140429   6.718   9.119   4.575  1.1833  0.3595  0.4956
45248SOL    HW240430   6.828   9.196   4.505 -0.1361  0.8401 -1.1202
45249SOL     OW40431  11.158   0.329   2.176  0.3507  0.2330 -0.3385
45249SOL    HW140432  11.140   0.323   2.269 -1.1453  0.4193 -0.5961
45249SOL    HW240433  11.072   0.333   2.134  0.8932 -2.0601 -1.8973
45250SOL     OW40434   6.149   7.127   5.360  0.3415 -0.5600 -0.1289
45250SOL    HW140435   6.094   7.048   5.364  0.3758 -0.6583 -1.2897
45250SOL    HW240436   6.111   7.179   5.289  0.5593  0.3037  0.3709
45251SOL     OW40437   7.901  10.451   8.963  0.0689  0.2117  0.2029
45251SOL    HW140438   7.820  10.486   8.998 -0.0169 -0.0714  0.2919
45251SOL    HW240439   7.905  10.361   8.997  0.4266  0.2305  0.2130
45252SOL     OW40440  10.099   7.310   1.753 -0.0773  0.2987 -0.0394
45252SOL    HW140441  10.117   7.219   1.727  0.2079 -0.0450  1.2753
45252SOL    HW240442  10.007   7.308   1.781  0.7217 -0.3601  2.8941
45253SOL     OW40443   7.845   7.948  11.588 -0.2402  0.3935  0.1794
45253SOL    HW140444   7.827   7.865  11.632  0.8015 -0.5466 -1.0815
45253SOL    HW240445   7.764   7.968  11.541  0.3628 -1.4715 -1.8468
45254SOL     OW40446   1.975   2.172   4.383 -0.6249 -0.0364  0.1987
45254SOL    HW140447   2.046   2.188   4.322  0.1097  0.8493  1.2351
45254SOL    HW240448   1.897   2.204   4.338 -0.7335 -2.5631 -1.6497
45255SOL     OW40449   7.827  10.675   9.902 -0.2884 -0.5668 -0.1105
45255SOL    HW140450   7.831  10.717   9.816 -0.5864 -4.0962 -1.9973
45255SOL    HW240451   7.916  10.643   9.918 -0.3086 -0.2122  0.7788
45256SOL     OW40452   9.098   9.688   2.883 -1.1602 -0.4677  0.3540
45256SOL    HW140453   9.145   9.631   2.822 -1.0990  0.1475 -0.1907
45256SOL    HW240454   9.165   9.746   2.918 -1.4371  0.1705 -0.1483
45257SOL     OW40455   7.912   6.755   0.190 -0.8731 -0.1326 -0.0035
45257SOL    HW140456   7.921   6.694   0.118 -0.9167  0.5388 -0.5884
45257SOL    HW240457   7.976   6.824   0.172  0.3618 -0.8348  1.5212
45258SOL     OW40458   9.262   1.542  11.980  0.4088 -0.3062  0.0673
45258SOL    HW140459   9.287   1.600  11.908 -1.9110 -2.2062 -2.4757
45258SOL    HW240460   9.185   1.584  12.019  1.2391  0.3533  1.0759
45259SOL     OW40461   1.799   7.727  10.115  0.3966  0.5911  0.2142
45259SOL    HW140462   1.817   7.639  10.148  0.3710  0.0319 -1.2192
45259SOL    HW240463   1.884   7.761  10.087  0.6398  1.5820  1.9775
45260SOL     OW40464   3.828   5.195   0.742 -0.1274  0.6592 -0.5253
45260SOL    HW140465   3.864   5.282   0.761  0.3168  0.3480  0.1051
45260SOL    HW240466   3.894   5.134   0.776 -0.5645  0.0748 -0.7066
45261SOL     OW40467   5.008   2.009   8.795 -0.2819 -0.3112  0.0628
45261SOL    HW140468   5.009   2.065   8.717  1.7044 -1.0874 -0.5295
45261SOL    HW240469   4.994   1.920   8.761  1.6062 -0.8000  0.4050
45262SOL     OW40470   9.263  11.803   2.371  0.8081 -0.5958 -0.0229
45262SOL    HW140471   9.349  11.844   2.379  0.9020 -1.0528  1.4671
45262SOL    HW240472   9.225  11.808   2.458 -0.5520 -0.7003 -0.5845
45263SOL     OW40473   6.688  10.068   2.212 -0.4484  0.1382  0.5682
45263SOL    HW140474   6.739   9.994   2.178 -0.7117 -0.3062  1.1272
45263SOL    HW240475   6.748  10.112   2.272 -0.5259 -0.0467  0.7841
45264SOL     OW40476   6.851  10.559   3.239 -0.4343 -0.0125 -0.2045
45264SOL    HW140477   6.876  10.502   3.312  3.8770  1.8700  0.0865
45264SOL    HW240478   6.902  10.526   3.165  0.6850  2.2037 -0.5003
45265SOL     OW40479  10.418   5.945   3.771 -0.6043 -1.0237  0.1257
45265SOL    HW140480  10.437   5.999   3.694 -0.0540  0.9300  1.5714
45265SOL    HW240481  10.458   5.860   3.750 -0.5532 -0.5911 -1.7707
45266SOL     OW40482  11.791   8.675  11.711  0.7288  0.3830  0.1051
45266SOL    HW140483  11.829   8.593  11.681 -1.0287 -1.3995  2.3838
45266SOL    HW240484  11.697   8.664  11.697  0.5826  2.9381 -1.5086
45267SOL     OW40485   0.420   0.073   9.372  0.1816  0.6096 -0.1753
45267SOL    HW140486   0.385   0.162   9.365 -1.1718  0.0631 -0.7431
45267SOL    HW240487   0.462   0.058   9.287  0.5526  0.7563 -0.0199
45268SOL     OW40488   6.828   5.959   2.676 -0.3840 -0.5206  0.5482
45268SOL    HW140489   6.786   5.916   2.601  0.6315  1.0015 -0.9683
45268SOL    HW240490   6.873   5.888   2.722 -0.1246 -1.3659 -0.9182
45269SOL     OW40491   5.190  11.477   7.454 -0.7722 -0.4962 -0.0044
45269SOL    HW140492   5.275  11.502   7.418 -0.4704 -0.5314  0.6607
45269SOL    HW240493   5.146  11.430   7.384  1.2476 -3.8269  0.7750
45270SOL     OW40494  10.510   9.412   7.446 -0.6729  0.0789  0.2961
45270SOL    HW140495  10.462   9.364   7.513 -1.3983 -0.0471 -0.2899
45270SOL    HW240496  10.454   9.405   7.368  0.9090 -1.1923 -0.7936
45271SOL     OW40497   1.174   2.116  11.495 -0.1656 -0.1276  0.0067
45271SOL    HW140498   1.091   2.067  11.497 -0.5502  0.4587 -0.7581
45271SOL    HW240499   1.225   2.073  11.426 -0.1113 -0.0615  0.0062
45272SOL     OW40500   6.086   2.619   8.301 -0.0658  0.2784  0.0205
45272SOL    HW140501   6.004   2.617   8.350 -0.5234  1.7790 -0.6334
45272SOL    HW240502   6.152   2.645   8.365  0.2187 -2.2470  0.8882
45273SOL     OW40503  10.928  10.405   1.535  0.1303 -0.5546 -1.0985
45273SOL    HW140504  10.852  10.458   1.511  1.0030  2.1820  1.5881
45273SOL    HW240505  10.910  10.319   1.496 -3.6604  0.3404 -1.7364
45274SOL     OW40506  10.827   9.581  11.616  0.6188  0.4131  0.2418
45274SOL    HW140507  10.856   9.592  11.707 -0.9599  1.6476  0.6417
45274SOL    HW240508  10.767   9.507  11.618  1.5949 -0.4101 -0.0763
45275SOL     OW40509   7.398   3.123   0.986 -0.3229  0.4614  0.8250
45275SOL    HW140510   7.449   3.190   1.032  0.4109 -0.6868  1.7535
45275SOL    HW240511   7.388   3.053   1.051  2.2555 -2.0043 -1.1795
45276SOL     OW40512  11.433  10.461  11.252 -0.4132  0.0195 -0.1368
45276SOL    HW140513  11.505  10.461  11.316 -0.3983 -0.2408 -0.1488
45276SOL    HW240514  11.459  10.526  11.187 -0.6379  0.5989  0.3480
45277SOL     OW40515   6.521   1.791   4.656 -0.3630  0.0826  0.3426
45277SOL    HW140516   6.453   1.829   4.601 -0.3016 -1.0344 -0.5497
45277SOL    HW240517   6.581   1.863   4.675 -0.2954  0.4560 -1.2158
45278SOL     OW40518   7.371   4.976   5.441  0.3587 -0.3613 -0.0413
45278SOL    HW140519   7.334   4.889   5.429 -0.0347 -0.4142  1.4305
45278SOL    HW240520   7.424   4.991   5.362 -0.8121 -1.2865 -1.0247
45279SOL     OW40521  10.733  11.013  10.518 -0.3433  0.2088 -0.1800
45279SOL    HW140522  10.698  11.060  10.595 -0.9811  1.0211 -0.9452
45279SOL    HW240523  10.757  10.927  10.552  1.4777  1.2505  1.4402
45280SOL     OW40524   6.452   3.336   0.056 -0.0566 -0.6185 -0.4049
45280SOL    HW140525   6.530   3.347   0.001  0.5313 -0.0889  0.5050
45280SOL    HW240526   6.482   3.280   0.128 -0.6041 -0.6769 -0.2221
45281SOL     OW40527   8.406   8.096   4.902  0.0163  0.1081 -0.6126
45281SOL    HW140528   8.482   8.039   4.909 -0.4424 -0.3671  0.8787
45281SOL    HW240529   8.360   8.086   4.986 -1.4262  0.7456 -1.2816
45282SOL     OW40530   9.733   4.259   3.535  0.4731  0.4165 -0.0473
45282SOL    HW140531   9.788   4.202   3.589  0.0669 -0.0111 -0.0736
45282SOL    HW240532   9.659   4.203   3.510 -0.9971  1.5114  1.5963
45283SOL     OW40533   4.315   9.429   3.651 -0.3031 -0.5354 -0.2564
45283SOL    HW140534   4.242   9.431   3.589  0.4743 -1.3894 -1.2515
45283SOL    HW240535   4.378   9.369   3.611  0.4501 -0.7176  1.1335
45284SOL     OW40536   2.305   8.212   7.374 -0.4841  0.2170 -0.1515
45284SOL    HW140537   2.249   8.143   7.410 -1.6788  1.2765  0.1079
45284SOL    HW240538   2.244   8.282   7.349  0.7948  1.8782  1.1277
45285SOL     OW40539   1.080   9.292   4.202 -0.2994  0.5028  0.3173
45285SOL    HW140540   1.034   9.358   4.254 -2.1544  1.4669 -2.2967
45285SOL    HW240541   1.018   9.272   4.131  1.5741 -1.6056 -0.8185
45286SOL     OW40542  10.495   2.142  10.304  0.1318 -0.1222  0.2101
45286SOL    HW140543  10.465   2.132  10.394  1.8611  2.0037  1.1099
45286SOL    HW240544  10.476   2.233  10.282 -0.1301 -0.5690 -1.5514
45287SOL     OW40545   1.102   7.543  10.660 -0.1639 -0.0363 -0.2489
45287SOL    HW140546   1.109   7.565  10.567 -0.3940 -1.7193 -0.6981
45287SOL    HW240547   1.186   7.501  10.680 -0.7959 -1.3236 -0.1993
45288SOL     OW40548   9.874   5.731   3.060 -0.2667  0.1995 -0.0952
45288SOL    HW140549   9.814   5.756   3.129 -0.3899 -0.4982  0.0600
45288SOL    HW240550   9.838   5.649   3.025  0.0238  0.3226 -0.6982
45289SOL     OW40551   6.319   8.814   4.789  0.8150 -0.0182 -0.4184
45289SOL    HW140552   6.279   8.845   4.870  0.4119  0.5101 -0.8139
45289SOL    HW240553   6.343   8.894   4.742 -2.1440 -0.1695 -2.4274
45290SOL     OW40554  11.497   7.642   4.690 -0.6732  0.2736 -0.0475
45290SOL    HW140555  11.554   7.579   4.646 -1.3531 -0.0918 -0.4286
45290SOL    HW240556  11.415   7.638   4.640 -1.2168  0.3847  0.8189
45291SOL     OW40557   2.596   9.645  11.119 -0.3871  0.0515 -0.5861
45291SOL    HW140558   2.514   9.616  11.160 -0.1369 -0.1479 -0.2284
45291SOL    HW240559   2.567   9.693  11.041 -0.8849  0.8104  0.0453
45292SOL     OW40560   0.089  10.767   1.037  0.4020 -0.0675 -0.3452
45292SOL    HW140561   0.021  10.708   1.006  0.3743  0.8695 -2.2160
45292SOL    HW240562   0.112  10.735   1.124 -0.7394 -1.8205 -0.6586
45293SOL     OW40563   5.088   7.057   4.137 -0.0988 -0.2628 -0.1262
45293SOL    HW140564   5.064   7.144   4.171 -0.7142 -0.0212 -1.1451
45293SOL    HW240565   5.040   7.049   4.055  1.2350 -0.8904 -0.8806
45294SOL     OW40566   5.822   6.945   5.114 -0.4146  0.0546  0.1353
45294SOL    HW140567   5.729   6.947   5.094 -0.6062 -0.3381  0.9462
45294SOL    HW240568   5.828   6.898   5.197  0.4900  0.2403  0.1889
45295SOL     OW40569   3.884   7.699   2.229 -0.1522 -0.1218 -0.2659
45295SOL    HW140570   3.934   7.619   2.215 -1.3053 -1.3040  1.7917
45295SOL    HW240571   3.946   7.770   2.213  1.1440 -1.4316 -1.2770
45296SOL     OW40572   8.737  10.653   8.363 -0.1342  0.3347 -0.1850
45296SOL    HW140573   8.655  10.697   8.341 -0.4913  0.3852  1.1577
45296SOL    HW240574   8.729  10.632   8.456  1.0418 -0.3962 -0.2244
45297SOL     OW40575  11.347   9.248   8.764 -0.2647  0.1785  0.5709
45297SOL    HW140576  11.379   9.331   8.799 -0.5688 -0.3258  2.1173
45297SOL    HW240577  11.327   9.195   8.841 -0.8028 -1.0602 -0.3774
45298SOL     OW40578   6.511  10.070   3.140 -0.4705  0.0659 -0.2648
45298SOL    HW140579   6.463  10.054   3.059  1.5451  0.0078 -1.5339
45298SOL    HW240580   6.535  10.163   3.136  0.5163 -0.1718 -0.2826
45299SOL     OW40581   4.166   0.474   5.192 -0.4512  0.3182 -0.1745
45299SOL    HW140582   4.220   0.545   5.228  0.2231 -0.2244 -0.1014
45299SOL    HW240583   4.214   0.445   5.114 -1.0824  0.3971 -0.6062
45300SOL     OW40584   3.757   4.852   6.548 -0.3001 -0.2519 -0.7194
45300SOL    HW140585   3.673   4.898   6.546 -0.7406 -1.0271 -0.2365
45300SOL    HW240586   3.735   4.759   6.546  0.4320 -0.5302  1.3281
45301SOL     OW40587   3.727   1.631   8.024 -0.2374 -0.2368  0.2697
45301SOL    HW140588   3.677   1.577   7.964  0.6452  0.2901 -0.9817
45301SOL    HW240589   3.713   1.591   8.110  0.5238 -2.5920 -0.6177
45302SOL     OW40590   8.163   1.608   5.418  0.4381  0.0090 -0.2226
45302SOL    HW140591   8.190   1.598   5.326  2.5186 -0.1696  0.3569
45302SOL    HW240592   8.146   1.702   5.428 -0.9714 -0.1225 -1.0432
45303SOL     OW40593   0.671   8.273   8.866  0.3007 -0.2974 -0.3378
45303SOL    HW140594   0.620   8.257   8.945  1.5486  1.0884  0.8120
45303SOL    HW240595   0.657   8.195   8.812 -1.3782 -0.8363  0.7956
45304SOL     OW40596   3.007  10.093   6.239 -0.0667  0.0219 -0.1618
45304SOL    HW140597   2.916  10.066   6.233 -0.2785 -0.1573  2.6194
45304SOL    HW240598   3.003  10.182   6.273  0.8055  0.3545 -0.8815
45305SOL     OW40599   1.062   6.999   4.410  0.0432  0.4074 -0.1012
45305SOL    HW140600   1.062   6.951   4.327  2.9094 -1.2890  0.7361
45305SOL    HW240601   1.154   7.015   4.429 -0.6125  2.3246  1.9334
45306SOL     OW40602  11.051   0.962   3.751  0.3130  0.2115 -0.5861
45306SOL    HW140603  11.122   1.004   3.703 -0.1055  1.4844 -0.1363
45306SOL    HW240604  10.998   1.035   3.783  0.0261 -0.6387  0.9443
45307SOL     OW40605   8.648   2.938   6.492  0.0743  0.7639 -0.3975
45307SOL    HW140606   8.612   2.994   6.423  0.6411  0.6211 -0.8215
45307SOL    HW240607   8.692   2.999   6.552 -0.4904  0.8958 -0.1157
45308SOL     OW40608   0.280   0.395   8.616 -0.1244 -0.6515 -0.1320
45308SOL    HW140609   0.334   0.317   8.633 -0.9921 -0.8648  1.9243
45308SOL    HW240610   0.201   0.361   8.575  0.1348 -0.6620 -0.6302
45309SOL     OW40611   2.380  10.801  11.507 -0.0036 -0.2504 -0.3692
45309SOL    HW140612   2.338  10.784  11.423 -1.0180 -0.9917  0.2489
45309SOL    HW240613   2.310  10.838  11.561  0.5975  0.0879  0.1816
45310SOL     OW40614  11.767   1.347  10.409 -0.2679 -0.3830 -0.3771
45310SOL    HW140615  11.862   1.359  10.401 -0.2804 -0.9228 -1.4729
45310SOL    HW240616  11.745   1.387  10.494  0.8096  0.4739 -0.4742
45311SOL     OW40617   9.504   4.740   6.364  0.3499 -0.6028 -0.3702
45311SOL    HW140618   9.543   4.715   6.448  3.3652  0.4040 -1.3482
45311SOL    HW240619   9.450   4.665   6.339 -0.3529 -1.0694  2.2546
45312SOL     OW40620   2.388  11.404   2.587  0.2572  0.2199 -0.5233
45312SOL    HW140621   2.361  11.325   2.540 -0.5708  1.2250 -1.8149
45312SOL    HW240622   2.340  11.400   2.670 -1.7475  0.5643 -1.6050
45313SOL     OW40623   5.429   2.218   2.853 -0.2383  0.6882  0.0577
45313SOL    HW140624   5.377   2.206   2.933 -2.2159  0.0050 -1.2617
45313SOL    HW240625   5.472   2.303   2.865 -2.0135  1.4946  1.0417
45314SOL     OW40626   2.353   6.238  11.316  0.3273 -0.2597  0.0583
45314SOL    HW140627   2.426   6.300  11.308 -0.6709  1.2906  2.0212
45314SOL    HW240628   2.356   6.210  11.408 -2.0373  0.5175  0.4342
45315SOL     OW40629   3.894  10.497   3.399 -0.4268  0.1279 -0.1317
45315SOL    HW140630   3.891  10.475   3.306 -0.6585  2.6773 -0.7913
45315SOL    HW240631   3.962  10.563   3.406 -0.5900  0.1571  1.4869
45316SOL     OW40632   3.542   8.877   2.279  0.3915  0.3758 -0.6199
45316SOL    HW140633   3.627   8.866   2.237  0.3655 -0.4835 -0.4531
45316SOL    HW240634   3.489   8.922   2.212  1.7276  3.5048  0.2405
45317SOL     OW40635   4.411   9.802   8.419  0.0025  0.0012 -0.3372
45317SOL    HW140636   4.340   9.799   8.484 -1.2324 -1.6926 -1.6660
45317SOL    HW240637   4.489   9.778   8.468 -1.0203 -1.9895  0.4506
45318SOL     OW40638   1.951  11.117   6.499  0.5646  0.6693 -0.1008
45318SOL    HW140639   1.979  11.031   6.531  0.3515  0.6652  0.0762
45318SOL    HW240640   1.998  11.128   6.417 -0.6499 -0.3585 -0.9908
45319SOL     OW40641   7.848  10.154  11.862  0.0427 -0.2161 -0.1513
45319SOL    HW140642   7.833  10.079  11.805  0.2393  0.4303 -1.0699
45319SOL    HW240643   7.821  10.230  11.810 -0.6744  0.3138  0.9602
45320SOL     OW40644   2.569   9.292   0.383 -0.6237  0.0634  0.1379
45320SOL    HW140645   2.525   9.361   0.332  0.0251  1.8835  1.8934
45320SOL    HW240646   2.638   9.260   0.325 -0.6641  1.2060 -0.5860
45321SOL     OW40647   2.902  10.188   2.032  0.1355  0.9130 -0.3332
45321SOL    HW140648   2.844  10.261   2.054 -3.1330 -1.2919 -0.8696
45321SOL    HW240649   2.955  10.174   2.110  0.1690  3.1644  0.1114
45322SOL     OW40650   5.657   8.030   0.219 -0.0041 -0.4391 -0.1331
45322SOL    HW140651   5.646   8.110   0.271  0.6682  0.7209 -1.6868
45322SOL    HW240652   5.751   8.013   0.221  0.3185  0.6688 -2.3419
45323SOL     OW40653  11.600   7.627  10.576  0.0786  0.2377 -0.4151
45323SOL    HW140654  11.637   7.540  10.590 -2.4137 -0.5281  2.6223
45323SOL    HW240655  11.625   7.676  10.654 -0.4865  1.5059 -1.0057
45324SOL     OW40656   1.217   6.566   8.689 -0.1611  0.2576 -0.4392
45324SOL    HW140657   1.213   6.508   8.613 -0.8640  0.7655 -0.8016
45324SOL    HW240658   1.221   6.507   8.764 -0.6085 -0.2649 -0.8192
45325SOL     OW40659   4.304   8.527   3.462  0.6645 -0.0385 -0.1324
45325SOL    HW140660   4.342   8.607   3.425  1.4985 -0.9608 -1.3649
45325SOL    HW240661   4.227   8.557   3.510  1.7060  1.6477  0.5873
45326SOL     OW40662   3.480   7.589   1.479  0.5040  0.4364  0.5654
45326SOL    HW140663   3.408   7.647   1.506  1.3298  1.3072  0.9370
45326SOL    HW240664   3.499   7.536   1.556  0.5867  0.5447  0.6193
45327SOL     OW40665  10.161   4.975   8.151  0.5936 -0.1335 -0.1283
45327SOL    HW140666  10.109   4.894   8.147  1.1044 -0.4272 -0.8521
45327SOL    HW240667  10.239   4.957   8.098  2.1597 -0.2139  2.0580
45328SOL     OW40668  10.399   0.949   6.033  0.2007 -0.5020 -0.2596
45328SOL    HW140669  10.406   0.861   5.996  1.1653 -1.1533  1.3853
45328SOL    HW240670  10.306   0.958   6.054 -0.3061 -0.2657 -2.3282
45329SOL     OW40671   1.484   2.824   4.501  0.0134 -0.8025 -0.1036
45329SOL    HW140672   1.479   2.740   4.455 -0.0265 -0.8232 -0.0619
45329SOL    HW240673   1.576   2.831   4.528 -0.1790 -1.2896  0.7305
45330SOL     OW40674  10.476   9.650   6.472 -0.4739 -0.2212  0.2293
45330SOL    HW140675  10.461   9.574   6.417 -1.6138  0.5713 -0.6050
45330SOL    HW240676  10.496   9.721   6.411 -2.4513  0.8355  0.7150
45331SOL     OW40677  10.242  11.179   1.457 -0.2908  0.0139  0.1329
45331SOL    HW140678  10.181  11.228   1.400 -0.1202 -0.2579 -0.2877
45331SOL    HW240679  10.298  11.131   1.396 -0.6446 -0.9387  0.5469
45332SOL     OW40680   5.295  10.667   9.195  0.0403 -0.3084 -0.2664
45332SOL    HW140681   5.324  10.590   9.145  0.2421  0.6983 -1.7525
45332SOL    HW240682   5.246  10.630   9.269  1.2677 -1.9020 -0.1836
45333SOL     OW40683   3.606   0.742   6.862  0.1190  0.1253 -0.4766
45333SOL    HW140684   3.588   0.733   6.956  0.0227 -1.2619 -0.6124
45333SOL    HW240685   3.520   0.730   6.820  0.1859  0.5963 -0.7526
45334SOL     OW40686   7.028   9.882   0.550 -0.2373 -0.2250  0.0302
45334SOL    HW140687   6.956   9.856   0.493 -0.8754 -0.3770  0.8915
45334SOL    HW240688   7.084   9.804   0.555  0.5120  0.1906 -1.3970
45335SOL     OW40689   4.092   2.376  10.056 -0.0006 -0.0739 -0.5984
45335SOL    HW140690   4.150   2.344  10.125  0.4299 -1.9470 -1.7535
45335SOL    HW240691   4.043   2.298  10.028 -2.4591  1.2567 -0.2940
45336SOL     OW40692   1.073   9.532   7.317 -0.3807 -0.4931 -0.5529
45336SOL    HW140693   1.098   9.493   7.233  1.5226  0.7472 -0.6116
45336SOL    HW240694   1.049   9.622   7.296  0.5603 -0.0292  0.2653
45337SOL     OW40695   4.148   4.195  10.859  0.0551  0.5150  0.0929
45337SOL    HW140696   4.234   4.160  10.882  0.2433  0.4499 -0.6899
45337SOL    HW240697   4.128   4.157  10.774 -0.4797  1.0105 -0.0131
45338SOL     OW40698  10.733   1.391   5.608  0.1471 -0.1564  0.1738
45338SOL    HW140699  10.772   1.355   5.528  1.0922 -0.1336  0.6180
45338SOL    HW240700  10.676   1.462   5.577  1.8788  1.0507 -0.3678
45339SOL     OW40701   1.096   5.779   8.672  0.8496  0.0569  0.1544
45339SOL    HW140702   1.020   5.725   8.692  1.5966 -1.3373 -0.6345
45339SOL    HW240703   1.077   5.864   8.712 -0.3553 -0.7809  1.4180
45340SOL     OW40704  10.679   1.586  11.725  0.2172  0.4064 -0.3484
45340SOL    HW140705  10.767   1.590  11.763 -0.0550  1.0846  0.2407
45340SOL    HW240706  10.687   1.632  11.641  0.8343 -1.1450 -1.1889
45341SOL     OW40707  11.726   8.283   5.912  0.4438 -0.0897 -0.0777
45341SOL    HW140708  11.781   8.263   5.836  2.2514 -0.2066  1.1818
45341SOL    HW240709  11.786   8.325   5.974 -1.1902  0.8375  0.9311
45342SOL     OW40710  11.409   2.069   8.666  0.4658  0.2997  0.1322
45342SOL    HW140711  11.459   2.051   8.586 -0.3898  0.5855 -0.4848
45342SOL    HW240712  11.474   2.067   8.736  1.3094  0.5135 -0.6292
45343SOL     OW40713  10.908  10.764   6.573 -0.5628  0.3531  0.1309
45343SOL    HW140714  10.916  10.743   6.666 -2.0339  0.1395  0.2468
45343SOL    HW240715  10.890  10.859   6.572  0.2322  0.5030  0.0097
45344SOL     OW40716   2.701   5.802   4.829 -0.2937 -0.0146 -0.9250
45344SOL    HW140717   2.653   5.856   4.891  1.7171  2.6023 -1.4405
45344SOL    HW240718   2.769   5.759   4.882 -0.0232  0.3907 -0.9340
45345SOL     OW40719  11.803  10.117  10.210  0.0503  1.2243  0.1217
45345SOL    HW140720  11.881  10.155  10.171 -0.4664  0.6431 -1.5943
45345SOL    HW240721  11.809  10.137  10.303  2.9479 -0.0315  0.2934
45346SOL     OW40722   0.583  11.191   5.957 -0.2972  0.1167  0.6182
45346SOL    HW140723   0.635  11.242   5.895 -0.7497 -0.2867 -0.1142
45346SOL    HW240724   0.557  11.254   6.024  0.4902  0.4841  0.5925
45347SOL     OW40725   9.152   9.070   2.603 -0.1950 -0.4116  0.5148
45347SOL    HW140726   9.108   9.155   2.612  0.2101 -0.2688  1.2289
45347SOL    HW240727   9.244   9.092   2.586  0.0026 -0.6951  1.1741
45348SOL     OW40728  11.974   9.002  11.501  0.7378 -0.3239  0.3377
45348SOL    HW140729  11.879   9.000  11.514  0.7033 -2.6449  0.1495
45348SOL    HW240730  12.010   8.990  11.589  0.7727 -1.8445  0.1438
45349SOL     OW40731   6.772   2.785   9.418  0.6390 -0.6537  0.4211
45349SOL    HW140732   6.683   2.755   9.400  0.4517 -0.9431  1.7184
45349SOL    HW240733   6.793   2.844   9.346 -1.0007  0.2279  0.6164
45350SOL     OW40734   9.415   8.583   1.001 -0.6857  0.1012  1.1043
45350SOL    HW140735   9.433   8.677   0.997 -0.1455 -0.0174  0.6317
45350SOL    HW240736   9.433   8.551   0.913 -1.1809 -0.3980  1.1747
45351SOL     OW40737   3.399   7.540  11.556 -0.4212 -0.2462 -0.4248
45351SOL    HW140738   3.463   7.612  11.553 -2.3719  1.5815 -3.0716
45351SOL    HW240739   3.398   7.506  11.466 -2.8118 -0.4485 -0.3741
45352SOL     OW40740   9.544  10.616  10.629 -0.1565  0.6797  0.4036
45352SOL    HW140741   9.626  10.590  10.588  0.3070  0.8571  1.1922
45352SOL    HW240742   9.570  10.658  10.711 -0.9673  1.9567  0.0355
45353SOL     OW40743   6.851   2.016   2.812  0.3266 -0.4079  0.7518
45353SOL    HW140744   6.904   2.052   2.740 -1.1254  0.1894 -0.0558
45353SOL    HW240745   6.760   2.030   2.784 -0.2744 -2.1738  1.7075
45354SOL     OW40746   5.516  10.116   3.448 -0.4434  0.0133  0.2078
45354SOL    HW140747   5.599  10.102   3.493 -0.3491 -1.0299 -0.2723
45354SOL    HW240748   5.449  10.103   3.515 -0.2302  1.6751  0.8046
45355SOL     OW40749  10.396   7.606   9.770  0.1246  0.0994 -0.3222
45355SOL    HW140750  10.326   7.590   9.706 -0.5504  0.0894  0.4073
45355SOL    HW240751  10.370   7.555   9.847  0.5440  0.7080  0.2306
45356SOL     OW40752   8.342  10.290   6.110 -0.2192  0.4170  0.1993
45356SOL    HW140753   8.418  10.293   6.167  0.6270  0.3138 -0.8933
45356SOL    HW240754   8.273  10.336   6.159  0.3682  0.0074  1.4319
45357SOL     OW40755   2.350   4.675   8.633 -0.1460  0.1804 -0.1350
45357SOL    HW140756   2.370   4.751   8.688 -0.2209  0.1718 -0.0955
45357SOL    HW240757   2.418   4.676   8.565 -1.1309  1.2933 -1.1542
45358SOL     OW40758   7.570  11.484   7.851  0.3800 -0.1191  0.0471
45358SOL    HW140759   7.499  11.500   7.914 -0.0537 -0.1484 -0.4240
45358SOL    HW240760   7.526  11.482   7.766  0.9990  0.1815 -0.2863
45359SOL     OW40761   7.721   2.772   4.034  0.4745 -0.1734 -0.1722
45359SOL    HW140762   7.664   2.727   3.973  0.6987 -1.2022  0.3671
45359SOL    HW240763   7.771   2.703   4.078  0.0980  0.5018  1.4041
45360SOL     OW40764   0.921  11.806   4.616  0.2429  0.0681 -0.0235
45360SOL    HW140765   0.890  11.893   4.589  2.0157  0.9245  0.5408
45360SOL    HW240766   0.902  11.802   4.710  2.0922  0.7586  0.4082
45361SOL     OW40767   0.605   9.664  11.252 -0.0008 -0.4223 -0.1009
45361SOL    HW140768   0.628   9.575  11.227  1.3328 -0.3819  0.8643
45361SOL    HW240769   0.688   9.704  11.279 -0.3773  1.4491 -1.4787
45362SOL     OW40770  10.918   0.992   5.147 -0.2440 -0.3795 -0.1552
45362SOL    HW140771  10.902   0.905   5.109  1.4810 -0.9521  0.3417
45362SOL    HW240772  10.979   1.034   5.087  2.2666 -1.1800  1.6363
45363SOL     OW40773   1.778   7.353   7.097  0.3285 -0.0963 -0.1822
45363SOL    HW140774   1.683   7.351   7.082  0.0733 -0.0255  1.2210
45363SOL    HW240775   1.797   7.270   7.141  0.7354  0.3112  0.4314
45364SOL     OW40776   7.557   2.071   1.316 -0.0527  0.1588  0.5642
45364SOL    HW140777   7.522   2.143   1.264  1.3372  0.5993  0.1998
45364SOL    HW240778   7.635   2.107   1.358  0.6335 -1.1188  0.4258
45365SOL     OW40779   8.437   5.313   1.811  0.1771 -0.2956  0.4830
45365SOL    HW140780   8.344   5.321   1.791  0.0913 -0.2764  0.8944
45365SOL    HW240781   8.479   5.310   1.725 -0.1710  0.0382  0.2995
45366SOL     OW40782   9.233   5.144   0.352  0.1604 -0.0258 -0.4052
45366SOL    HW140783   9.189   5.176   0.431  0.4198  0.1084 -0.3129
45366SOL    HW240784   9.180   5.069   0.324  1.9681 -2.3755  1.9293
45367SOL     OW40785   1.632   6.448   2.401 -0.3113  0.0446 -0.4181
45367SOL    HW140786   1.722   6.434   2.374  0.3564  1.2853  1.0306
45367SOL    HW240787   1.632   6.534   2.443 -1.5167 -1.1728  2.2763
45368SOL     OW40788   7.762   5.968   8.962  0.4359  0.3063  0.2431
45368SOL    HW140789   7.692   5.959   8.898  0.1428  0.4413  0.5433
45368SOL    HW240790   7.813   6.043   8.931 -0.6242  1.3935  1.0157
45369SOL     OW40791  10.921   0.358   4.458  0.0321 -0.2142  0.1373
45369SOL    HW140792  11.010   0.336   4.432 -0.0005  0.0443 -0.1981
45369SOL    HW240793  10.896   0.430   4.400 -0.2471 -0.0143  0.5017
45370SOL     OW40794   8.510   6.508   7.761 -0.3254  0.1327 -0.1069
45370SOL    HW140795   8.592   6.556   7.757 -1.6081  2.5377  0.5224
45370SOL    HW240796   8.531   6.421   7.727  2.1378  1.1054 -1.2926
45371SOL     OW40797   2.842   1.614   4.783  0.5478 -0.4268 -0.2996
45371SOL    HW140798   2.780   1.638   4.852 -1.2087 -1.7741 -1.3418
45371SOL    HW240799   2.814   1.664   4.707  1.3690 -0.3139 -0.5394
45372SOL     OW40800   7.244   1.239   6.672  0.4764  0.8195  0.6241
45372SOL    HW140801   7.241   1.331   6.647 -2.6666  0.5214 -0.4112
45372SOL    HW240802   7.334   1.212   6.652  1.1900  3.3770  0.0406
45373SOL     OW40803   4.621   2.161   8.229  0.0963  0.2116  0.0445
45373SOL    HW140804   4.557   2.166   8.158  1.1487 -0.6440 -0.9964
45373SOL    HW240805   4.568   2.142   8.307 -0.8131 -3.2177 -1.1960
45374SOL     OW40806   1.557   0.241   0.698  0.2992  0.3038  0.6680
45374SOL    HW140807   1.486   0.304   0.707 -0.5254 -0.6448  1.0762
45374SOL    HW240808   1.540   0.196   0.615  1.2937  1.0995  0.0185
45375SOL     OW40809   1.686   3.774   0.356  0.1597  0.3762  0.2628
45375SOL    HW140810   1.719   3.764   0.446 -1.9284 -0.4084  1.0011
45375SOL    HW240811   1.705   3.690   0.315  0.4320  0.4683  0.1957
45376SOL     OW40812  10.635  11.819   4.056  0.4900  0.0881  0.2303
45376SOL    HW140813  10.713  11.863   4.022  1.9073 -0.1394  2.8990
45376SOL    HW240814  10.664  11.729   4.073  0.0737  0.3011  2.3453
45377SOL     OW40815   2.576   6.228   4.452  0.6281  0.0634  0.3994
45377SOL    HW140816   2.648   6.213   4.391 -0.5110 -2.2417 -0.4929
45377SOL    HW240817   2.592   6.166   4.523 -0.2703 -0.2097  0.3726
45378SOL     OW40818   1.395   3.708  11.506  0.5955 -0.5098  0.6216
45378SOL    HW140819   1.359   3.642  11.566  0.0972  0.7241  1.7365
45378SOL    HW240820   1.323   3.770  11.494  2.0874  1.8113  2.5600
45379SOL     OW40821   0.001   9.574   0.226  0.0004 -0.6366 -0.5007
45379SOL    HW140822   0.018   9.548   0.316  3.3734 -1.6883 -1.2829
45379SOL    HW240823   0.065   9.643   0.209 -2.7548  1.9233 -1.2198
45380SOL     OW40824   5.494   0.547   1.115  0.2784  0.2595  0.2983
45380SOL    HW140825   5.509   0.459   1.080  0.0913 -0.1388  1.1700
45380SOL    HW240826   5.533   0.606   1.051  1.1487 -0.5059  0.1066
45381SOL     OW40827   0.316   6.615   1.517 -0.0936  0.2920  0.0856
45381SOL    HW140828   0.221   6.620   1.512 -0.1261  0.6458  0.9613
45381SOL    HW240829   0.346   6.640   1.429 -0.8085 -0.0185 -0.2512
45382SOL     OW40830   6.917   1.672  11.992  0.7443 -0.3476  0.4309
45382SOL    HW140831   7.001   1.704  12.026  0.8446 -0.3645  0.2013
45382SOL    HW240832   6.933   1.659  11.898  1.1090 -2.3447  0.7214
45383SOL     OW40833   2.698  10.485   3.340 -0.1660  0.5218 -0.5217
45383SOL    HW140834   2.644  10.439   3.275 -0.0977 -0.9677  0.4403
45383SOL    HW240835   2.772  10.428   3.355 -1.0279 -0.0288  2.1240
45384SOL     OW40836   4.889   0.504   6.325 -0.6768  0.3900  0.3458
45384SOL    HW140837   4.910   0.491   6.233 -0.5018  0.7643  0.3311
45384SOL    HW240838   4.954   0.451   6.372 -0.9942 -0.0954  0.2511
45385SOL     OW40839   6.873   8.311   3.260  0.3215  0.3566  0.2714
45385SOL    HW140840   6.816   8.359   3.200  1.8878  1.7914 -0.1204
45385SOL    HW240841   6.871   8.221   3.228 -1.0280  0.5360 -0.2351
45386SOL     OW40842   1.835   8.078  11.295  0.3187 -0.2040  0.2719
45386SOL    HW140843   1.774   8.073  11.221  1.2013 -1.9682 -0.4070
45386SOL    HW240844   1.881   7.994  11.293 -0.6041 -0.9435  3.6948
45387SOL     OW40845  10.111   5.895   9.817  0.4957  0.1633  0.1170
45387SOL    HW140846  10.086   5.803   9.826  1.5440 -0.2533 -0.9635
45387SOL    HW240847  10.053   5.929   9.750  1.5357 -0.3125 -1.0580
45388SOL     OW40848   0.576   1.443   4.128 -0.6194  0.4517  0.6489
45388SOL    HW140849   0.572   1.517   4.068 -0.6502  1.4120  1.7977
45388SOL    HW240850   0.560   1.366   4.073 -0.8386  1.3145 -0.5226
45389SOL     OW40851   6.032   1.604   2.559 -0.1705 -0.1494 -1.0389
45389SOL    HW140852   6.061   1.608   2.467  0.1644  1.7192 -0.8977
45389SOL    HW240853   6.113   1.593   2.609 -0.3184 -0.7845 -0.9223
45390SOL     OW40854   1.557   8.204   5.790 -0.1580  0.8885 -0.2005
45390SOL    HW140855   1.478   8.241   5.831 -0.7196 -1.1624  0.7199
45390SOL    HW240856   1.568   8.254   5.709 -0.5343  3.3502  1.1573
45391SOL     OW40857  11.813   5.499   5.473  0.1701 -0.2916 -0.1677
45391SOL    HW140858  11.753   5.558   5.428  1.5701  1.6593  0.3809
45391SOL    HW240859  11.890   5.495   5.417 -0.0606 -2.0011 -0.4077
45392SOL     OW40860   1.612   1.375   3.523 -0.2138 -0.2785 -0.0998
45392SOL    HW140861   1.659   1.421   3.593  0.5930 -1.7678  0.3873
45392SOL    HW240862   1.681   1.348   3.462 -0.6851 -0.6800 -0.4602
45393SOL     OW40863   9.838  10.101   9.204  0.0319 -0.4155 -0.1893
45393SOL    HW140864   9.929  10.114   9.176  0.4712 -1.3563  0.7710
45393SOL    HW240865   9.809  10.188   9.231  1.3085 -0.4281  1.3819
45394SOL     OW40866   5.236   0.718   3.912 -0.1084  0.2124  0.4473
45394SOL    HW140867   5.204   0.801   3.878  0.5081  0.6063  0.8164
45394SOL    HW240868   5.297   0.686   3.846 -0.7301 -0.2023  0.0662
45395SOL     OW40869   3.089   3.675  11.919  0.1368  0.2487 -0.0927
45395SOL    HW140870   3.156   3.626  11.870 -0.9688 -0.7602 -0.6446
45395SOL    HW240871   3.060   3.615  11.987  0.5931  1.1053  0.8867
45396SOL     OW40872   1.393   5.809   4.376  0.5708 -0.2707  0.1602
45396SOL    HW140873   1.303   5.844   4.374 -0.2594 -2.2978 -0.2450
45396SOL    HW240874   1.444   5.878   4.417 -0.8968  1.5473 -0.8839
45397SOL     OW40875   2.804   2.036  10.817 -0.0884  0.1134 -0.3455
45397SOL    HW140876   2.839   2.003  10.735  0.4639 -0.2839  0.0505
45397SOL    HW240877   2.869   2.012  10.883 -0.9038 -0.2742  0.3316
45398SOL     OW40878  11.993   9.248   6.789  0.4466  0.0067  0.2641
45398SOL    HW140879  11.900   9.226   6.776  0.7063 -0.3949 -0.9896
45398SOL    HW240880  11.997   9.280   6.879 -1.0166  0.5775  0.1541
45399SOL     OW40881  11.234  11.330   3.894 -0.0182  0.1254 -0.1133
45399SOL    HW140882  11.324  11.348   3.921 -0.9375  1.5238  2.3524
45399SOL    HW240883  11.202  11.265   3.956 -1.0357  0.5189 -0.1982
45400SOL     OW40884  11.494   9.418   8.904 -0.1560 -0.5197 -0.3591
45400SOL    HW140885  11.521   9.499   8.861 -0.8961  0.0943  0.3017
45400SOL    HW240886  11.475   9.444   8.994 -0.2774 -1.4595 -0.1038
45401SOL     OW40887   4.977  11.758   5.985 -0.3565 -0.3502  0.5077
45401SOL    HW140888   5.066  11.723   5.982  0.6463  1.4241  3.8743
45401SOL    HW240889   4.981  11.839   5.935 -0.4787 -0.9255 -0.4549
45402SOL     OW40890   8.859   0.365   6.408 -0.1553  0.1937  0.2261
45402SOL    HW140891   8.858   0.445   6.356  1.0799 -0.1730 -0.3985
45402SOL    HW240892   8.782   0.372   6.465  0.0343  1.9069  0.3167
45403SOL     OW40893   8.387   4.910   5.703  0.1227 -0.4143  0.5790
45403SOL    HW140894   8.376   4.890   5.796 -1.0136  2.2291  1.0997
45403SOL    HW240895   8.300   4.895   5.665  0.0632  0.4326  0.3688
45404SOL     OW40896   5.546  11.255   7.390 -0.1597  0.5718  0.5736
45404SOL    HW140897   5.555  11.274   7.484  0.5164  1.4733  0.3399
45404SOL    HW240898   5.549  11.341   7.348  1.3178  0.0574 -0.4158
45405SOL     OW40899   4.045  11.423   5.478  0.2108 -0.2127  0.5270
45405SOL    HW140900   4.058  11.355   5.544 -1.7899 -0.4185  0.7704
45405SOL    HW240901   3.999  11.493   5.524 -1.3768 -0.4331 -0.6442
45406SOL     OW40902   3.416   3.757   4.886 -0.2904 -0.1583  0.0008
45406SOL    HW140903   3.505   3.723   4.890  0.1451  0.7562 -1.4110
45406SOL    HW240904   3.371   3.699   4.824  0.1644  1.1043 -1.5804
45407SOL     OW40905   0.585  10.958   7.438  0.3539 -0.0479  0.4103
45407SOL    HW140906   0.677  10.974   7.419  0.1381  0.7227 -0.0463
45407SOL    HW240907   0.555  11.041   7.476 -0.8174  0.7011 -1.9899
45408SOL     OW40908   6.513   4.678   0.116 -0.1974  0.4910 -0.8165
45408SOL    HW140909   6.507   4.770   0.142 -0.3569  0.0725  0.7535
45408SOL    HW240910   6.605   4.664   0.096  0.0291  0.7284  0.0344
45409SOL     OW40911   6.687   5.567  11.733 -0.5059 -0.1541  0.8049
45409SOL    HW140912   6.746   5.589  11.805  0.2363  0.2251  0.0999
45409SOL    HW240913   6.600   5.587  11.767 -0.1370  0.3814  1.4725
45410SOL     OW40914   9.441   8.909   5.849 -0.0567  0.4673  0.3090
45410SOL    HW140915   9.458   8.910   5.943  1.9394  0.3029  0.0034
45410SOL    HW240916   9.505   8.971   5.813 -0.4657  0.1722 -0.9819
45411SOL     OW40917   4.492  10.223   5.427 -0.3426 -0.0084  0.3347
45411SOL    HW140918   4.400  10.251   5.420 -0.0970  0.6146 -0.5147
45411SOL    HW240919   4.542  10.304   5.423  0.4041 -0.5214 -2.5377
45412SOL     OW40920   4.850   5.978   8.519 -0.3327  0.2135 -0.0080
45412SOL    HW140921   4.767   6.023   8.537 -0.5887  0.2301 -1.1421
45412SOL    HW240922   4.860   5.916   8.592 -0.8527  0.8761  0.6444
45413SOL     OW40923   3.231  11.956   8.142 -0.3989 -0.7259 -0.6935
45413SOL    HW140924   3.175  11.900   8.088 -1.2773  0.9994 -1.6761
45413SOL    HW240925   3.225  12.042   8.100  0.6158  0.1889  0.9560
45414SOL     OW40926   5.006   2.030   4.281 -0.1466 -0.7648  0.9746
45414SOL    HW140927   5.040   1.991   4.362 -0.3280 -2.5149  0.2415
45414SOL    HW240928   4.933   1.974   4.256 -0.3714  0.0095 -0.1940
45415SOL     OW40929   2.229   2.988  11.699 -0.5459  0.0487 -0.9486
45415SOL    HW140930   2.322   3.012  11.699 -0.0875 -1.6214 -0.9265
45415SOL    HW240931   2.183   3.072  11.704  0.9797  0.8587  1.7483
45416SOL     OW40932   1.189   1.981   3.076  0.5749 -0.3215 -0.0323
45416SOL    HW140933   1.182   2.004   2.984 -1.0371 -1.4904 -0.2377
45416SOL    HW240934   1.101   1.995   3.112  0.7461 -1.4501  0.9194
45417SOL     OW40935   7.462   4.275   8.928  0.1852  0.1916 -0.4848
45417SOL    HW140936   7.375   4.249   8.897 -1.1571  2.3364  1.1539
45417SOL    HW240937   7.494   4.199   8.977 -0.5465 -0.7761 -1.4513
45418SOL     OW40938   6.317   3.236   4.845  0.6099  0.0588  0.3564
45418SOL    HW140939   6.376   3.269   4.777 -0.1054  1.1570  0.2384
45418SOL    HW240940   6.283   3.315   4.888 -0.6424 -0.5433  0.5213
45419SOL     OW40941   3.552   9.584  11.466 -0.0033  0.2224  0.2106
45419SOL    HW140942   3.636   9.628  11.470  0.0162  0.1015  1.6081
45419SOL    HW240943   3.527   9.571  11.557 -1.8924  0.9291 -0.1590
45420SOL     OW40944  11.994   3.176   7.326  0.9167 -0.4118  0.1100
45420SOL    HW140945  12.063   3.239   7.346 -1.6329  2.7121 -0.0927
45420SOL    HW240946  11.974   3.191   7.233  2.2167 -3.7939 -0.8593
45421SOL     OW40947   6.567   4.356   7.863  0.0154 -0.0589 -0.1157
45421SOL    HW140948   6.581   4.319   7.776  1.3957 -0.5389  0.2830
45421SOL    HW240949   6.602   4.445   7.858  0.0756 -0.0792 -0.0657
45422SOL     OW40950   6.640   9.823   3.721 -0.0428 -0.0442  0.6475
45422SOL    HW140951   6.652   9.854   3.811  2.4682 -0.5322  0.5512
45422SOL    HW240952   6.598   9.896   3.676 -0.9970  0.3474  2.1130
45423SOL     OW40953   1.189   2.538   9.213 -0.1283 -0.5134  0.7635
45423SOL    HW140954   1.176   2.477   9.140 -0.8624  1.7623 -1.1363
45423SOL    HW240955   1.125   2.510   9.279 -2.3375 -0.2844 -1.1363
45424SOL     OW40956   1.459   7.608   9.227 -0.0943 -0.0146 -0.2366
45424SOL    HW140957   1.521   7.537   9.241 -1.1075 -0.5876  1.7397
45424SOL    HW240958   1.488   7.677   9.288 -0.6103  0.2359 -0.2682
45425SOL     OW40959   8.570   4.142   8.163  0.0009  0.2682 -0.4589
45425SOL    HW140960   8.620   4.141   8.245  0.6398 -0.2760 -0.8446
45425SOL    HW240961   8.481   4.118   8.190 -0.2642  2.0412  0.3482
45426SOL     OW40962   6.294   5.123   0.185 -0.2440 -0.0447  0.1791
45426SOL    HW140963   6.340   5.141   0.102 -2.1167 -0.4615 -1.0081
45426SOL    HW240964   6.350   5.060   0.229 -0.4213 -1.8410 -1.9839
45427SOL     OW40965   9.782   5.920   4.584  0.2141  0.1142 -0.1654
45427SOL    HW140966   9.746   6.007   4.565 -0.4476 -0.3890 -1.3424
45427SOL    HW240967   9.706   5.867   4.607  0.6342 -0.1364  0.6848
45428SOL     OW40968   0.718   5.635   6.742 -0.0925  0.3793  0.1702
45428SOL    HW140969   0.769   5.711   6.714 -1.0629  1.2979  0.8152
45428SOL    HW240970   0.777   5.561   6.729  1.0593  1.2920  0.0029
45429SOL     OW40971   4.476   3.065   2.778 -0.6151 -0.0694  0.0903
45429SOL    HW140972   4.534   3.140   2.761  0.8988 -0.9932  0.9553
45429SOL    HW240973   4.496   3.003   2.708 -1.1410 -0.1009 -0.0407
45430SOL     OW40974   4.772   6.400   8.306 -1.0035 -0.1034  0.1105
45430SOL    HW140975   4.757   6.406   8.211 -1.4651 -0.8636  0.1233
45430SOL    HW240976   4.738   6.483   8.340  0.9777  1.0633 -0.5676
45431SOL     OW40977   0.481   1.335   2.233 -0.6744 -0.1632 -0.4572
45431SOL    HW140978   0.519   1.418   2.204 -0.9243  1.2682  2.8843
45431SOL    HW240979   0.406   1.359   2.287  0.6709 -2.3066  2.7150
45432SOL     OW40980  10.852   4.928   5.799  0.0384 -0.4578  0.4205
45432SOL    HW140981  10.814   5.009   5.766 -0.1477  0.3570  2.4964
45432SOL    HW240982  10.777   4.877   5.830  0.3063 -0.6115  0.8219
45433SOL     OW40983   7.006   2.475   3.392  0.1324  0.1479  0.4362
45433SOL    HW140984   7.041   2.519   3.314 -0.9334  2.1087  0.9990
45433SOL    HW240985   6.964   2.396   3.358  1.6903 -0.2615 -0.6725
45434SOL     OW40986   6.859   0.894  10.805 -0.2187  0.1972  0.1677
45434SOL    HW140987   6.893   0.829  10.866  0.5033 -0.6386 -1.0925
45434SOL    HW240988   6.843   0.846  10.724 -0.3411  1.4501 -0.5879
45435SOL     OW40989  10.759   9.695   3.622  0.8010 -0.2255  0.0762
45435SOL    HW140990  10.686   9.740   3.580  0.4777  0.0919  0.9486
45435SOL    HW240991  10.832   9.756   3.616  1.5173 -1.1932 -2.2878
45436SOL     OW40992   1.738   9.005   3.655 -0.0872 -0.0856 -0.3718
45436SOL    HW140993   1.824   8.977   3.623 -0.4533  0.1727 -1.6496
45436SOL    HW240994   1.691   8.924   3.673  0.3779 -0.2285  0.2346
45437SOL     OW40995   5.037   9.379  10.137 -0.0734  0.2350  0.6054
45437SOL    HW140996   5.084   9.443  10.084  0.7101 -1.2070 -0.5066
45437SOL    HW240997   5.019   9.425  10.219  1.6524  1.4345  0.3678
45438SOL     OW40998  10.017   4.012   6.346  0.1698  0.0373 -0.0440
45438SOL    HW140999  10.043   4.104   6.355 -0.5523  0.3231 -0.8013
45438SOL    HW241000  10.014   3.979   6.436 -0.3439  0.9702  0.2937
45439SOL     OW41001  10.559   8.792   5.254  1.0854 -0.0713 -0.0158
45439SOL    HW141002  10.563   8.786   5.158 -0.5223 -1.8506 -0.0314
45439SOL    HW241003  10.573   8.885   5.273 -0.3457  0.6500 -2.1075
45440SOL     OW41004   2.661   9.591   5.577  0.0061 -0.0595 -0.0768
45440SOL    HW141005   2.621   9.653   5.638 -0.5861 -2.2439  1.9129
45440SOL    HW241006   2.749   9.576   5.612  0.3188 -0.0063 -0.8127
45441SOL     OW41007   3.962   1.084   4.845  0.5308  0.1338  0.3837
45441SOL    HW141008   4.033   1.100   4.782  1.3379  0.2556  1.2924
45441SOL    HW241009   3.954   0.988   4.847  0.1735  0.1402 -0.2327
45442SOL     OW41010   3.732   6.259   4.985 -0.5163 -0.6255 -0.0234
45442SOL    HW141011   3.644   6.265   5.021 -0.0690  0.1043  0.9831
45442SOL    HW241012   3.764   6.349   4.983  0.7531 -1.0225  1.0261
45443SOL     OW41013   1.778   3.318   9.814 -0.0492  0.0984 -0.1567
45443SOL    HW141014   1.743   3.374   9.746 -0.7677 -1.9066 -1.5383
45443SOL    HW241015   1.845   3.265   9.770 -1.0500 -1.7691  0.4455
45444SOL     OW41016  10.923   5.133   0.533  0.0732 -0.0790 -0.4470
45444SOL    HW141017  10.964   5.114   0.618  0.0959  1.3136 -0.1219
45444SOL    HW241018  10.831   5.109   0.545  0.0097  0.3952  0.0889
45445SOL     OW41019   7.119   0.880   0.821  0.9143  0.5275 -0.1489
45445SOL    HW141020   7.157   0.817   0.882  3.4218  0.1901 -1.8882
45445SOL    HW241021   7.190   0.943   0.805 -0.4176  1.8780 -1.0259
45446SOL     OW41022   8.594   0.522   1.624 -0.4402 -0.1097  0.0969
45446SOL    HW141023   8.550   0.587   1.677 -1.0259 -1.5452  1.4537
45446SOL    HW241024   8.568   0.542   1.534 -1.8830  0.5617  0.6432
45447SOL     OW41025   2.811  10.041   5.920 -0.1286  0.0371  0.4410
45447SOL    HW141026   2.778   9.989   5.846 -1.0460  1.0652  0.1010
45447SOL    HW241027   2.906  10.036   5.911 -0.1482 -2.1598  0.8500
45448SOL     OW41028   9.153   3.476  11.944  0.7165 -0.2881 -0.0009
45448SOL    HW141029   9.131   3.435  12.028 -0.5571 -1.3781 -0.8067
45448SOL    HW241030   9.084   3.541  11.930  0.6702 -0.4141 -0.3850
45449SOL     OW41031   0.702   1.212   1.477  0.3453  0.4563 -0.1798
45449SOL    HW141032   0.694   1.255   1.562 -0.4888  1.4380 -0.7320
45449SOL    HW241033   0.795   1.223   1.453  0.4625  0.6526  0.3585
45450SOL     OW41034   2.202   8.121  10.075  0.4497  0.0252  0.4772
45450SOL    HW141035   2.196   8.143   9.983  0.9313  0.5841  0.5746
45450SOL    HW241036   2.262   8.186  10.112  0.2922 -0.2111  1.1746
45451SOL     OW41037   8.768  10.097   8.218  0.1136 -1.1507 -0.1026
45451SOL    HW141038   8.740  10.187   8.231 -1.2363 -1.5757  0.1013
45451SOL    HW241039   8.765  10.057   8.305  1.6861 -1.1604 -0.0076
45452SOL     OW41040   9.474   8.220   3.597 -0.0664  0.0034  0.0174
45452SOL    HW141041   9.489   8.181   3.511 -0.3496 -1.7774  0.7401
45452SOL    HW241042   9.429   8.153   3.647 -0.3551  1.1833  1.4255
45453SOL     OW41043   5.109   6.099   9.765 -0.0200 -0.1628  0.5147
45453SOL    HW141044   5.103   6.044   9.843  3.3795 -0.8188  0.4551
45453SOL    HW241045   5.111   6.037   9.692  2.6715  0.0053  0.3651
45454SOL     OW41046   1.039   0.746   8.437  0.4366  0.0873 -0.3277
45454SOL    HW141047   1.037   0.721   8.345  1.9100  2.1027 -0.9880
45454SOL    HW241048   0.960   0.798   8.449  0.0896 -0.4264 -0.3597
45455SOL     OW41049   3.829   4.602   1.887 -0.2856  0.5162 -0.4539
45455SOL    HW141050   3.924   4.590   1.898 -0.1694  1.5817 -0.1715
45455SOL    HW241051   3.822   4.668   1.818 -0.7431  2.1962  1.1315
45456SOL     OW41052   0.761   7.581   9.570  0.0925  0.1499 -0.2782
45456SOL    HW141053   0.741   7.601   9.479 -2.8650  0.5350  0.3561
45456SOL    HW241054   0.720   7.495   9.585 -0.2950  0.5330  0.9194
45457SOL     OW41055   3.695   8.813   1.646 -0.0261  0.0141 -0.2758
45457SOL    HW141056   3.745   8.888   1.613 -0.2370 -0.0932 -0.8634
45457SOL    HW241057   3.665   8.768   1.566 -0.8276 -0.0748  0.0714
45458SOL     OW41058  11.395   9.932   5.162  0.2107  0.1008  0.3042
45458SOL    HW141059  11.426  10.015   5.199 -0.5462 -0.2254  1.7774
45458SOL    HW241060  11.328   9.903   5.224 -0.2111 -1.1403 -0.7058
45459SOL     OW41061   2.984   9.607   5.479 -0.5336  0.6782  0.5602
45459SOL    HW141062   2.989   9.695   5.442 -0.4485 -0.0134 -1.1442
45459SOL    HW241063   2.947   9.553   5.409  2.7381 -1.3665  0.2139
45460SOL     OW41064   1.684  10.696  11.625  0.1651  0.0173 -0.1973
45460SOL    HW141065   1.760  10.754  11.623  0.8175 -0.7065  1.3009
45460SOL    HW241066   1.692  10.643  11.546  0.9058  0.3466 -0.3489
45461SOL     OW41067   9.781   1.220  11.955  0.1384 -0.5771  0.0152
45461SOL    HW141068   9.795   1.277  12.030  0.0085  0.6749 -0.8827
45461SOL    HW241069   9.696   1.246  11.920  0.3333 -0.9203 -0.7440
45462SOL     OW41070   2.062   7.254   7.413  0.3891  0.3650 -0.4337
45462SOL    HW141071   1.980   7.208   7.428 -0.2622  1.3932 -0.6940
45462SOL    HW241072   2.035   7.345   7.396  1.6811  1.2033  1.5751
45463SOL     OW41073  11.798   1.665   3.167  0.4635 -0.0540  0.5352
45463SOL    HW141074  11.788   1.727   3.095 -0.4533 -0.4876  0.2714
45463SOL    HW241075  11.892   1.647   3.170  0.8943  2.0209  1.2052
45464SOL     OW41076   7.360   9.207   1.130  0.0553 -0.5223 -0.1832
45464SOL    HW141077   7.370   9.179   1.221  3.1493  0.9557  0.0507
45464SOL    HW241078   7.358   9.302   1.134  6.3838  0.1252 -1.7568
45465SOL     OW41079   0.718   8.688   0.124  0.2702  0.3867 -0.4915
45465SOL    HW141080   0.697   8.777   0.153  1.1624  0.1877  0.8949
45465SOL    HW241081   0.636   8.640   0.130  0.4176  0.3227  2.0318
45466SOL     OW41082   0.826   1.490   0.888 -0.2181 -0.4234 -0.0817
45466SOL    HW141083   0.818   1.398   0.866  1.1047 -0.8329  1.0314
45466SOL    HW241084   0.851   1.491   0.981 -0.5437  1.0650  0.0266
45467SOL     OW41085   3.159   8.963   8.622  0.4353 -0.0082  0.1595
45467SOL    HW141086   3.182   8.944   8.712 -1.3005  0.2350  0.6944
45467SOL    HW241087   3.216   9.036   8.597  0.5652  0.2781  1.2505
45468SOL     OW41088  11.368   3.876   7.791 -0.2400 -0.2839  0.1774
45468SOL    HW141089  11.456   3.837   7.792 -0.0531  0.1040  1.2780
45468SOL    HW241090  11.381   3.963   7.754  0.3386  0.7381  2.5765
45469SOL     OW41091  10.846   2.200   7.793  0.8314 -0.4224 -0.2780
45469SOL    HW141092  10.868   2.247   7.873  1.8920 -1.1013 -0.1491
45469SOL    HW241093  10.832   2.269   7.728 -0.0102  0.1318  0.4594
45470SOL     OW41094   6.510   3.051   6.298 -0.2790  0.3442 -0.1868
45470SOL    HW141095   6.581   3.074   6.238 -0.2132  0.0546 -0.2197
45470SOL    HW241096   6.554   3.025   6.378 -0.3510  0.2017 -0.1945
45471SOL     OW41097   8.544   9.928   0.306 -0.5778 -0.4649  0.0767
45471SOL    HW141098   8.566   9.922   0.213 -0.8901 -2.1258  0.0794
45471SOL    HW241099   8.449   9.918   0.310 -0.8144  1.6401  0.4467
45472SOL     OW41100   5.332   5.715  10.776 -0.1900  0.3861  0.7032
45472SOL    HW141101   5.267   5.707  10.707  0.5022  1.0569 -0.0514
45472SOL    HW241102   5.357   5.625  10.797 -0.5532  0.1691  0.2206
45473SOL     OW41103   3.116  11.613   1.877  0.2257 -0.5782  0.3461
45473SOL    HW141104   3.192  11.625   1.934  0.4352 -1.0976  0.1825
45473SOL    HW241105   3.050  11.571   1.933 -0.0005  0.0260  0.5330
45474SOL     OW41106   6.294   7.112   0.669  0.5225  0.1450 -0.4124
45474SOL    HW141107   6.205   7.110   0.703  0.8398 -0.6177  0.4091
45474SOL    HW241108   6.332   7.028   0.695  1.2779  0.1850 -1.3151
45475SOL     OW41109   6.093   0.383   5.600  0.2819  0.3488 -0.3461
45475SOL    HW141110   6.055   0.436   5.671 -0.3367  0.7247 -0.9413
45475SOL    HW241111   6.098   0.443   5.526  0.0533 -0.2835 -0.8830
45476SOL     OW41112   5.883   8.780   1.308  0.5053 -0.2492  0.7991
45476SOL    HW141113   5.965   8.829   1.310  1.5392 -1.6847 -1.6739
45476SOL    HW241114   5.828   8.829   1.247  1.2388 -1.5905 -1.0296
45477SOL     OW41115   3.678  10.009   9.635  0.1459 -0.1188 -0.5090
45477SOL    HW141116   3.643  10.071   9.572 -0.7197  0.4835  0.5235
45477SOL    HW241117   3.757   9.975   9.594 -2.0237 -2.1923 -3.3233
45478SOL     OW41118  10.986   9.508  11.382 -0.0839 -0.2752 -0.2563
45478SOL    HW141119  10.999   9.594  11.342 -0.4994 -0.5395 -0.9779
45478SOL    HW241120  10.968   9.527  11.474 -0.2383  0.4125 -0.4196
45479SOL     OW41121   5.488   4.370  11.320 -0.0719 -0.0925 -0.4148
45479SOL    HW141122   5.405   4.355  11.365  0.0687 -0.8436 -0.3870
45479SOL    HW241123   5.513   4.459  11.344 -0.0051 -0.4700  1.0000
45480SOL     OW41124   8.173   6.744   7.921  0.2609  0.2037  0.5438
45480SOL    HW141125   8.187   6.827   7.875  0.1534 -0.0747  0.0008
45480SOL    HW241126   8.140   6.770   8.007 -0.0145  0.7140  0.2891
45481SOL     OW41127   0.648   7.174   1.700 -0.0205  0.2664  0.0295
45481SOL    HW141128   0.636   7.260   1.659  0.1667  0.8734  1.2129
45481SOL    HW241129   0.567   7.127   1.680 -0.3425  0.8993 -0.1849
45482SOL     OW41130   2.613   5.757   8.665 -0.7491 -0.1612  0.4445
45482SOL    HW141131   2.659   5.797   8.739 -0.5943  0.5847 -0.0453
45482SOL    HW241132   2.649   5.801   8.588 -0.5801 -1.2514 -0.1119
45483SOL     OW41133   9.094   8.724   9.905  0.3662  0.2795 -0.7597
45483SOL    HW141134   9.167   8.716   9.966  0.0111  0.0886 -0.3548
45483SOL    HW241135   9.056   8.636   9.901 -0.6809  0.6709  0.0985
45484SOL     OW41136  11.705   4.050   9.154 -0.0838 -0.3000  0.6101
45484SOL    HW141137  11.760   4.060   9.077 -0.4004  0.4832  0.4725
45484SOL    HW241138  11.764   4.063   9.228 -0.0661  0.5431  0.4634
45485SOL     OW41139   0.803   5.478   2.582 -0.6914  0.4323 -0.1148
45485SOL    HW141140   0.725   5.476   2.637 -1.3952 -2.1769 -1.0416
45485SOL    HW241141   0.876   5.467   2.642 -1.2466  0.2452  0.5322
45486SOL     OW41142   4.008   9.597   6.252 -0.4630 -0.0688  1.0552
45486SOL    HW141143   4.001   9.692   6.252 -1.5089 -0.1301  0.4183
45486SOL    HW241144   3.955   9.569   6.178 -0.4610 -1.1725  1.4525
45487SOL     OW41145   1.639   8.526   5.213  0.0325  0.0546  0.9700
45487SOL    HW141146   1.683   8.610   5.220  0.4444 -0.1144  0.5092
45487SOL    HW241147   1.708   8.462   5.231 -0.1684 -0.1963  0.8548
45488SOL     OW41148   8.937   7.534   1.992 -0.1721  0.6965 -0.7185
45488SOL    HW141149   8.940   7.618   2.038 -0.2775 -0.4425  1.4721
45488SOL    HW241150   8.850   7.532   1.953 -0.7262  1.0158  0.4467
45489SOL     OW41151   9.538  10.874  10.199 -0.3133 -0.2215  0.5895
45489SOL    HW141152   9.572  10.790  10.168 -2.2990 -0.6651 -0.5934
45489SOL    HW241153   9.614  10.918  10.237  1.6444 -1.0060 -2.0530
45490SOL     OW41154  10.302   0.131  11.695  0.1439  0.4449  0.1346
45490SOL    HW141155  10.382   0.088  11.665 -1.1991 -1.4521 -0.9425
45490SOL    HW241156  10.304   0.121  11.790  1.1037  0.2251  0.0964
45491SOL     OW41157  10.497   8.359  10.794 -0.0630 -0.2419  0.1586
45491SOL    HW141158  10.566   8.294  10.801  0.4111  0.0799 -1.1661
45491SOL    HW241159  10.464   8.351  10.704 -0.4559  0.8750  0.1770
45492SOL     OW41160   5.641   5.889   1.921  0.2952  0.2020  0.0718
45492SOL    HW141161   5.727   5.877   1.882  0.3307  0.0246  0.2033
45492SOL    HW241162   5.648   5.851   2.008 -0.1357 -0.5237 -0.1940
45493SOL     OW41163   4.110   8.027   3.910 -0.2615 -0.0030 -0.3085
45493SOL    HW141164   4.171   7.965   3.869  0.6216 -0.7116  1.9077
45493SOL    HW241165   4.053   7.972   3.963 -1.5207  0.8516 -0.7489
45494SOL     OW41166   5.049   4.391   9.141 -0.0760  0.0916 -0.5773
45494SOL    HW141167   5.091   4.452   9.202  0.5933 -1.0361  0.1325
45494SOL    HW241168   5.106   4.392   9.064 -0.2352  0.5756 -0.6938
45495SOL     OW41169   2.201   6.332   4.424 -0.0547  0.0940 -0.1402
45495SOL    HW141170   2.219   6.386   4.501  1.9510 -0.2318 -0.3253
45495SOL    HW241171   2.268   6.358   4.360 -0.6676 -0.7837 -1.1790
45496SOL     OW41172   1.409   8.928   4.669  0.1019  0.0850 -0.2172
45496SOL    HW141173   1.440   9.013   4.701 -1.1600 -0.1842  1.9500
45496SOL    HW241174   1.317   8.925   4.696  0.3197 -2.2712  0.4846
45497SOL     OW41175   4.615   3.702   6.818 -0.5967 -0.7903 -0.1066
45497SOL    HW141176   4.588   3.611   6.808 -0.4856 -1.2265  2.7428
45497SOL    HW241177   4.684   3.699   6.884  2.1429  1.0027 -2.6299
45498SOL     OW41178   7.594   6.459   1.993  0.2756  0.0620  0.1608
45498SOL    HW141179   7.501   6.458   1.971 -0.1558 -0.0917  1.8449
45498SOL    HW241180   7.609   6.544   2.035 -0.1659 -1.4192  3.7353
45499SOL     OW41181   3.736  10.782  10.121 -0.5775 -0.7181 -0.0101
45499SOL    HW141182   3.717  10.739  10.038 -1.9590 -0.4656  0.1460
45499SOL    HW241183   3.800  10.725  10.163  1.2984 -0.0843 -1.8506
45500SOL     OW41184   1.203   1.799   1.254  0.5269  0.2460 -0.4923
45500SOL    HW141185   1.183   1.787   1.162 -1.1930 -0.8869 -0.0123
45500SOL    HW241186   1.260   1.725   1.277 -0.1104 -0.2019 -0.3487
45501SOL     OW41187   7.520   7.246   9.092  0.1724 -0.1628  0.0216
45501SOL    HW141188   7.491   7.331   9.058 -2.6061 -0.6336  0.9640
45501SOL    HW241189   7.602   7.266   9.138 -0.2923  1.9779  0.0262
45502SOL     OW41190   2.344   1.188   3.064  0.0423 -0.5144  0.5836
45502SOL    HW141191   2.276   1.172   2.998  1.1520 -0.1302 -0.6975
45502SOL    HW241192   2.396   1.109   3.064  0.8939  0.0325 -0.0595
45503SOL     OW41193   3.152   6.303   8.401 -0.0418  0.4008  0.3426
45503SOL    HW141194   3.152   6.227   8.459 -1.8726 -0.3745 -0.5969
45503SOL    HW241195   3.196   6.272   8.321  1.2149  1.0414  0.7593
45504SOL     OW41196  10.227   8.827   8.175 -1.1480  0.3682 -0.0846
45504SOL    HW141197  10.229   8.817   8.080 -2.0011 -0.4373 -0.0305
45504SOL    HW241198  10.264   8.914   8.191  2.1420 -0.7037 -0.9266
45505SOL     OW41199   1.780   6.583   8.804  0.4257  0.2970  0.2672
45505SOL    HW141200   1.768   6.610   8.712  0.1577  0.2498  0.2865
45505SOL    HW241201   1.791   6.488   8.799 -1.6455  0.0071  0.4512
45506SOL     OW41202   3.909  11.662   5.196  0.2944  0.1461  0.5389
45506SOL    HW141203   3.957  11.667   5.279  0.9507 -1.7413  0.3192
45506SOL    HW241204   3.978  11.666   5.129  0.1540 -2.0266  0.2063
45507SOL     OW41205   8.596  10.154   0.051 -0.1166 -0.0507 -0.0796
45507SOL    HW141206   8.556  10.110  -0.025 -0.3003 -0.3026  0.1584
45507SOL    HW241207   8.523  10.167   0.111 -0.5290  2.5380 -1.0024
45508SOL     OW41208   0.618   0.241   2.544 -0.2120 -0.8734  0.3803
45508SOL    HW141209   0.595   0.233   2.637 -0.2851  1.2118  0.5915
45508SOL    HW241210   0.542   0.284   2.505 -0.2083 -1.7943 -0.6863
45509SOL     OW41211   0.929   3.950   4.819  0.0273  0.2301 -0.4392
45509SOL    HW141212   0.920   3.977   4.910 -0.9122 -1.6098  0.0675
45509SOL    HW241213   1.022   3.927   4.810  0.3606  1.4305 -0.2885
45510SOL     OW41214   5.742   3.515   2.958 -0.3463 -0.2488  0.0141
45510SOL    HW141215   5.659   3.482   2.992  0.0870 -0.7713  0.5790
45510SOL    HW241216   5.719   3.598   2.915 -1.1983 -0.5211 -0.0791
45511SOL     OW41217   0.138   1.233   6.036  0.0410  0.3871  0.4849
45511SOL    HW141218   0.073   1.290   5.994 -0.6083 -1.3248 -0.9414
45511SOL    HW241219   0.206   1.221   5.970 -0.0972 -0.9015  0.5532
45512SOL     OW41220   8.504  10.962   6.199 -0.0418  0.2910 -0.3519
45512SOL    HW141221   8.600  10.962   6.198 -0.0379  0.9365 -0.2435
45512SOL    HW241222   8.480  10.987   6.110 -0.1305 -1.1701 -0.7668
45513SOL     OW41223   2.641   0.196   5.678 -0.0618 -0.2688  0.1229
45513SOL    HW141224   2.592   0.169   5.755 -0.8648  2.0125  0.4708
45513SOL    HW241225   2.605   0.144   5.606 -0.8845 -0.7727  0.8945
45514SOL     OW41226   1.128   9.239   5.781  0.2305 -1.0003 -0.0995
45514SOL    HW141227   1.189   9.229   5.853  0.1660 -0.6580  0.0019
45514SOL    HW241228   1.051   9.189   5.807  1.2362 -3.2751 -1.1443
45515SOL     OW41229   8.412  10.610   3.791 -0.6896  0.6662 -0.1828
45515SOL    HW141230   8.334  10.560   3.816 -0.1281  0.2285  0.7558
45515SOL    HW241231   8.410  10.687   3.848  0.2943 -0.0544  0.8836
45516SOL     OW41232   5.990   9.742   7.440 -0.0223  0.3556 -0.4607
45516SOL    HW141233   5.959   9.655   7.467 -1.4916  0.8819 -0.3685
45516SOL    HW241234   6.061   9.762   7.501 -1.3617  0.2880  1.1773
45517SOL     OW41235   8.284  10.171   2.782  0.0437  0.5899 -0.4603
45517SOL    HW141236   8.359  10.119   2.751  0.7465  1.3629 -0.1000
45517SOL    HW241237   8.275  10.240   2.716  0.9459  1.6859  0.5250
45518SOL     OW41238   6.393  10.722   4.002 -0.0461  0.1625 -0.0908
45518SOL    HW141239   6.360  10.634   3.984 -1.0235  0.6306 -0.6873
45518SOL    HW241240   6.335  10.755   4.070  0.6564  0.1617  0.5203
45519SOL     OW41241  11.455   3.603   3.666 -0.2697 -0.3703 -0.1502
45519SOL    HW141242  11.499   3.530   3.710  0.0562  0.4463  0.9298
45519SOL    HW241243  11.446   3.669   3.734  1.1409  1.3453 -1.5357
45520SOL     OW41244   4.494  10.442   4.223 -0.7093  0.0343  0.4349
45520SOL    HW141245   4.555  10.368   4.230 -0.1492  0.2901 -1.2366
45520SOL    HW241246   4.517  10.498   4.297 -0.1586 -0.7594  0.8895
45521SOL     OW41247   9.782   5.571   4.746  0.1547 -0.0397  0.2145
45521SOL    HW141248   9.774   5.659   4.782 -0.9573 -0.2870  0.6277
45521SOL    HW241249   9.860   5.574   4.691 -0.7994  1.6856 -1.1600
45522SOL     OW41250   7.773   2.926   8.844  0.3698 -0.1527 -0.7959
45522SOL    HW141251   7.723   2.912   8.925  0.1579 -0.9991 -1.0609
45522SOL    HW241252   7.717   2.982   8.791 -0.3784 -1.2012 -1.1440
45523SOL     OW41253   1.856   6.386   3.511 -0.5624  0.3099 -0.4713
45523SOL    HW141254   1.796   6.460   3.500  0.6417  1.3097 -0.5410
45523SOL    HW241255   1.866   6.349   3.423 -0.0659  0.9676 -0.6988
45524SOL     OW41256   0.098   4.577   6.159  0.6308  0.1509  0.5012
45524SOL    HW141257   0.076   4.629   6.236 -0.5776  2.4602 -1.2556
45524SOL    HW241258   0.163   4.515   6.189  0.8666  1.5547  3.1642
45525SOL     OW41259   4.302   0.492   8.164  0.1033 -0.4639 -0.0603
45525SOL    HW141260   4.214   0.529   8.165  0.4464  0.3763  1.3217
45525SOL    HW241261   4.358   0.564   8.135  0.5588 -0.3996  0.9367
45526SOL     OW41262  11.352   5.858   3.301  0.0082 -0.1363 -0.2990
45526SOL    HW141263  11.412   5.912   3.250  0.3801  0.2926  0.5730
45526SOL    HW241264  11.392   5.853   3.388 -0.7589 -0.6064  0.0395
45527SOL     OW41265   8.416   7.342   8.101  0.4011  0.1288  0.1051
45527SOL    HW141266   8.430   7.357   8.195 -0.1295  1.5085 -0.0185
45527SOL    HW241267   8.440   7.424   8.059 -2.7151  0.8376 -0.6081
45528SOL     OW41268   8.030  11.716   0.175  0.7456 -0.0196 -0.2816
45528SOL    HW141269   8.121  11.703   0.202  1.5867  2.7260 -1.4583
45528SOL    HW241270   7.998  11.786   0.232 -1.0930 -1.7027  0.8949
45529SOL     OW41271   1.748  11.860   0.581  0.1479  0.7552 -0.5246
45529SOL    HW141272   1.804  11.802   0.631 -0.3666 -0.1587 -0.9856
45529SOL    HW241273   1.809  11.914   0.530  0.7137 -2.0461 -3.1369
45530SOL     OW41274   1.407   1.817   4.303  0.0477  0.1492  0.3618
45530SOL    HW141275   1.324   1.792   4.262  1.4462 -1.5859 -1.6378
45530SOL    HW241276   1.410   1.766   4.384 -0.8348  0.2507  0.4698
45531SOL     OW41277   4.072   7.552   0.218  0.3886  0.1829  0.4286
45531SOL    HW141278   4.071   7.604   0.138 -0.7809  0.3485  0.5406
45531SOL    HW241279   3.990   7.574   0.262  1.4819  0.9594  2.2222
45532SOL     OW41280   5.018   0.050   9.935  0.3015 -0.3383  0.1847
45532SOL    HW141281   5.066   0.023   9.856 -1.2770 -1.1655 -0.5427
45532SOL    HW241282   5.086   0.066  10.000  1.5994 -0.6868 -1.0248
45533SOL     OW41283   5.772   4.768   3.212 -0.1988  0.1712  0.5891
45533SOL    HW141284   5.866   4.784   3.202 -0.8157  3.6047 -1.8151
45533SOL    HW241285   5.752   4.700   3.148  0.4046  0.8118 -0.2998
45534SOL     OW41286   0.996   3.835  10.703 -0.4289  0.5176 -0.1660
45534SOL    HW141287   0.918   3.825  10.759  0.0917 -1.9571  0.2259
45534SOL    HW241288   0.966   3.807  10.616 -0.2353  0.4996 -0.2255
45535SOL     OW41289   8.666   6.049   2.839 -0.2595 -0.2992 -0.0932
45535SOL    HW141290   8.593   5.987   2.831  0.4456 -1.2261  0.4625
45535SOL    HW241291   8.640   6.123   2.784  0.3330 -2.5015 -3.7377
45536SOL     OW41292   8.405   4.929   9.155  0.4078 -0.0361 -0.2778
45536SOL    HW141293   8.351   4.994   9.201  1.9894  0.9103  0.3352
45536SOL    HW241294   8.378   4.845   9.191 -0.2367  0.4645  0.4452
45537SOL     OW41295   7.263   9.611   1.387  0.0688 -0.0686 -0.2129
45537SOL    HW141296   7.281   9.676   1.455 -0.9833  2.0087 -1.8346
45537SOL    HW241297   7.173   9.582   1.405  0.4453 -0.9668  0.3500
45538SOL     OW41298   1.634   4.031   6.241  0.5558 -0.4329 -0.1347
45538SOL    HW141299   1.570   3.989   6.183  0.7843 -0.4936 -0.3417
45538SOL    HW241300   1.629   3.981   6.323 -0.3924  0.1807  0.2116
45539SOL     OW41301   5.234   0.094   6.437 -0.3862 -0.6612 -0.2821
45539SOL    HW141302   5.251   0.025   6.374  2.2051  0.7688 -1.3052
45539SOL    HW241303   5.251   0.054   6.522 -0.2311 -1.6150 -0.7476
45540SOL     OW41304   9.214   3.895   3.227 -0.3200  0.0299  0.2819
45540SOL    HW141305   9.170   3.943   3.298 -1.5763 -0.5281 -0.0994
45540SOL    HW241306   9.294   3.946   3.210 -0.1872  0.3887  1.8241
45541SOL     OW41307   3.526   0.281   8.635 -0.5988 -0.1662  0.0114
45541SOL    HW141308   3.474   0.216   8.681 -1.3745  0.3012 -0.1964
45541SOL    HW241309   3.479   0.363   8.647  0.2196  0.3113  0.0308
45542SOL     OW41310   8.358   2.811   6.276 -0.3558 -0.2014 -0.3774
45542SOL    HW141311   8.411   2.766   6.210  0.5793 -2.0620  1.5296
45542SOL    HW241312   8.409   2.889   6.298 -1.3125  1.1757 -2.7143
45543SOL     OW41313   8.605   5.260   2.058  0.4132  0.4785 -0.4644
45543SOL    HW141314   8.581   5.248   1.966  1.6206 -2.1161 -0.5341
45543SOL    HW241315   8.529   5.304   2.097 -2.0553 -2.2546 -1.8192
45544SOL     OW41316   1.113   0.597   5.772 -0.3901  0.2362 -0.1467
45544SOL    HW141317   1.079   0.543   5.700  0.9660 -0.5492 -0.2485
45544SOL    HW241318   1.125   0.535   5.844 -0.2621  0.7087  0.2421
45545SOL     OW41319   9.842   0.696  10.018 -0.2185 -0.1781  0.5409
45545SOL    HW141320   9.904   0.751  10.067 -0.0908  0.4604 -0.3127
45545SOL    HW241321   9.893   0.664   9.944 -0.6882 -0.3029  0.2715
45546SOL     OW41322  10.032   9.952   7.757 -0.0147  0.2117 -0.3145
45546SOL    HW141323  10.121   9.951   7.792 -0.2658 -0.2168  0.3329
45546SOL    HW241324   9.996   9.866   7.778 -0.1737 -0.0810 -1.6741
45547SOL     OW41325   8.820   1.329   8.625 -0.1939 -0.1231  0.2945
45547SOL    HW141326   8.800   1.396   8.691  0.8719 -0.4393  0.9795
45547SOL    HW241327   8.905   1.356   8.590 -1.0273  0.3771 -1.4324
45548SOL     OW41328  11.850   5.044   1.293 -0.3251  0.6947  0.2542
45548SOL    HW141329  11.823   5.067   1.204 -1.6456 -1.5707 -0.0008
45548SOL    HW241330  11.915   4.976   1.282 -2.6815 -1.8365  0.9453
45549SOL     OW41331   1.851   3.091   6.595 -0.7030 -0.0793  0.3061
45549SOL    HW141332   1.919   3.130   6.650 -0.8027  1.2339 -0.4592
45549SOL    HW241333   1.898   3.036   6.533 -0.2803  1.0287 -0.3924
45550SOL     OW41334   8.660   8.482  11.003  0.3691 -0.9349 -0.7731
45550SOL    HW141335   8.705   8.397  10.998 -0.2500 -1.3017 -0.3465
45550SOL    HW241336   8.614   8.479  11.088 -0.7844 -0.7596 -1.3731
45551SOL     OW41337   8.388   5.566   1.937 -0.1725 -0.3006  0.3011
45551SOL    HW141338   8.426   5.495   1.885 -1.2102 -0.4515 -0.2778
45551SOL    HW241339   8.455   5.634   1.937 -0.6977  0.3643 -2.6202
45552SOL     OW41340  10.440   7.161   6.849  0.0422  0.9137  0.0762
45552SOL    HW141341  10.362   7.115   6.817  1.2975 -0.7567 -0.7538
45552SOL    HW241342  10.432   7.250   6.814 -0.0039 -0.0845 -2.6909
45553SOL     OW41343   1.005   1.435   6.102 -0.2902 -0.3984  0.1523
45553SOL    HW141344   1.065   1.375   6.148 -2.0997 -1.1000  1.7257
45553SOL    HW241345   0.918   1.402   6.122 -1.2632  0.5961 -2.0647
45554SOL     OW41346   2.711   3.008   3.931  0.5524 -0.4392 -0.5088
45554SOL    HW141347   2.670   3.072   3.873 -0.4466 -0.7221 -0.1263
45554SOL    HW241348   2.693   2.923   3.890 -0.1262 -0.6379  0.1726
45555SOL     OW41349   7.714   4.819   5.946 -0.4895 -0.0599 -0.1558
45555SOL    HW141350   7.643   4.872   5.911  0.2550  0.9349 -0.2011
45555SOL    HW241351   7.743   4.766   5.872  0.0023  0.8556 -0.6380
45556SOL     OW41352   5.822   4.532   5.129  0.2973  0.8054  0.1880
45556SOL    HW141353   5.774   4.472   5.071 -0.2640  1.9247 -0.5374
45556SOL    HW241354   5.865   4.594   5.070  0.7391  1.2235  0.9280
45557SOL     OW41355   9.878   0.155   5.989  0.7047  1.2117 -0.2471
45557SOL    HW141356   9.885   0.246   5.960 -0.4601  1.8349  1.3129
45557SOL    HW241357   9.955   0.142   6.045 -0.4016  2.0885  1.5765
45558SOL     OW41358   7.149   9.618  10.413  0.1620  0.0372 -0.2179
45558SOL    HW141359   7.101   9.701  10.416 -0.4391 -0.2440 -1.2831
45558SOL    HW241360   7.103   9.567  10.346  1.8009 -0.3444 -1.1135
45559SOL     OW41361   4.839   0.762   2.486 -0.2062  0.3573 -0.0026
45559SOL    HW141362   4.822   0.773   2.393 -1.5506  0.3337  0.2209
45559SOL    HW241363   4.931   0.786   2.497 -0.2696  1.1981 -1.1933
45560SOL     OW41364   2.843   0.300   3.033  0.0761 -0.3773  0.1461
45560SOL    HW141365   2.932   0.276   3.057  0.3964 -0.5290 -1.1040
45560SOL    HW241366   2.815   0.362   3.099  1.7092  0.9232 -0.3403
45561SOL     OW41367   9.587   5.811  10.516 -0.0080  0.3402  0.3260
45561SOL    HW141368   9.553   5.764  10.592 -1.5371 -0.8753 -1.0347
45561SOL    HW241369   9.678   5.783  10.509 -0.2650 -0.6931  0.8734
45562SOL     OW41370  11.906   5.445   8.065 -0.3222  0.7701  0.3410
45562SOL    HW141371  11.815   5.460   8.040  0.2498  2.2440 -1.0304
45562SOL    HW241372  11.906   5.458   8.160 -1.9606 -1.8320  0.8076
45563SOL     OW41373   3.867   0.657   6.779  0.2288  0.2320 -0.0702
45563SOL    HW141374   3.869   0.567   6.748 -0.3551 -0.0303  0.6174
45563SOL    HW241375   3.774   0.674   6.796  0.5376  0.2192  1.8874
45564SOL     OW41376   0.275   9.719  10.895  0.4606 -0.4852 -0.0597
45564SOL    HW141377   0.220   9.694  10.969 -1.7678 -1.6552 -1.9875
45564SOL    HW241378   0.263   9.814  10.887 -0.4784 -0.5784  0.1746
45565SOL     OW41379   9.972   1.423   0.673 -0.1176 -0.2270  0.2686
45565SOL    HW141380   9.975   1.328   0.662 -0.5287 -0.0166 -2.3466
45565SOL    HW241381   9.879   1.444   0.675 -0.0910  0.2666 -1.5603
45566SOL     OW41382   9.388   7.329   8.362  0.3319 -0.1812  0.4156
45566SOL    HW141383   9.385   7.383   8.283 -2.9789  0.6186  0.9293
45566SOL    HW241384   9.448   7.376   8.421 -0.7260  1.7700  0.0265
45567SOL     OW41385   5.533   0.557   4.188  0.0205 -1.0668 -0.1672
45567SOL    HW141386   5.495   0.627   4.134 -0.2261 -0.4643  0.7650
45567SOL    HW241387   5.466   0.489   4.190 -0.1836 -0.8635 -0.1671
45568SOL     OW41388  10.304  10.122   8.908 -0.4048 -0.3403 -0.4659
45568SOL    HW141389  10.385  10.153   8.868 -1.8742  2.8940 -1.2790
45568SOL    HW241390  10.280  10.191   8.970 -1.8431 -1.8880  0.7985
45569SOL     OW41391   1.666   6.281   3.285  0.7521  0.3339  0.1523
45569SOL    HW141392   1.743   6.298   3.231 -0.5170  1.3617 -1.4271
45569SOL    HW241393   1.607   6.233   3.227 -0.5408  1.2183  0.7039
45570SOL     OW41394   6.848   5.934   9.662  0.3512 -0.3577  0.1386
45570SOL    HW141395   6.805   5.978   9.736 -2.7474 -1.4097 -0.8816
45570SOL    HW241396   6.818   5.982   9.585  1.1121 -1.1103 -0.6545
45571SOL     OW41397  10.246   1.488   3.681  0.5330 -0.2454 -0.3888
45571SOL    HW141398  10.163   1.441   3.693  1.3318 -1.9010 -1.0042
45571SOL    HW241399  10.298   1.463   3.757  0.8242 -0.0228 -0.5172
45572SOL     OW41400   8.537   3.305   0.912 -0.8096  0.2074 -0.0445
45572SOL    HW141401   8.562   3.253   0.988 -0.2607 -1.8406 -1.5259
45572SOL    HW241402   8.568   3.254   0.837 -4.1859  0.4490 -1.8157
45573SOL     OW41403   4.257   9.934  10.303  0.1140 -0.7452 -0.6098
45573SOL    HW141404   4.225   9.975  10.383  1.7227 -0.3148 -0.1511
45573SOL    HW241405   4.248   9.840  10.318  1.0334 -0.6865  0.3638
45574SOL     OW41406   7.825   4.750   1.584 -0.4027 -0.7943  0.2370
45574SOL    HW141407   7.752   4.697   1.553  0.9148 -1.8763 -1.2119
45574SOL    HW241408   7.892   4.739   1.516  1.7301 -1.2106  2.2878
45575SOL     OW41409   8.379   7.282   4.661 -0.1894  0.4622  0.6047
45575SOL    HW141410   8.352   7.321   4.744  0.5923  0.8573  0.6747
45575SOL    HW241411   8.474   7.279   4.665 -0.0516  1.7686 -0.8450
45576SOL     OW41412   1.370   9.343  11.052  0.1251  0.4053 -0.1403
45576SOL    HW141413   1.432   9.295  10.996 -0.6567  1.0311 -1.6094
45576SOL    HW241414   1.395   9.435  11.042 -0.6600  0.6131 -0.2813
45577SOL     OW41415   6.179  10.836   5.657  0.3068  0.2854  0.6247
45577SOL    HW141416   6.135  10.857   5.576  0.4257 -1.4824  0.0443
45577SOL    HW241417   6.158  10.908   5.717 -2.2600  0.1469 -0.0276
45578SOL     OW41418   9.330   1.073  11.591 -0.4611  0.1538 -0.5583
45578SOL    HW141419   9.304   0.983  11.608 -1.6313  0.6260  0.2757
45578SOL    HW241420   9.257   1.111  11.542 -1.5436  1.5693  1.9947
45579SOL     OW41421   3.947   4.048   1.737 -0.0543 -0.1220 -0.2165
45579SOL    HW141422   3.934   4.142   1.744 -1.7417 -0.1866 -1.8192
45579SOL    HW241423   3.936   4.015   1.827  0.9293  1.2138  0.4170
45580SOL     OW41424   5.721   3.999   2.603  0.3313 -0.1884 -0.3356
45580SOL    HW141425   5.683   4.087   2.597  1.4312  0.2346 -1.8388
45580SOL    HW241426   5.809   4.014   2.638  0.2003 -0.8245  0.2989
45581SOL     OW41427   2.572  11.663   0.283 -0.5611  0.0623 -0.4109
45581SOL    HW141428   2.546  11.644   0.193 -2.6267  0.8160 -0.0328
45581SOL    HW241429   2.536  11.750   0.300 -1.7224 -0.7671  1.6744
45582SOL     OW41430   1.362   4.308  11.152 -0.3942 -0.5225 -0.1032
45582SOL    HW141431   1.349   4.214  11.138 -1.8952 -0.4372  0.4569
45582SOL    HW241432   1.378   4.344  11.065 -2.1564 -0.9984 -0.6701
45583SOL     OW41433   9.566   8.580  11.270 -0.2043 -0.3609 -0.0266
45583SOL    HW141434   9.599   8.495  11.299 -2.2194 -1.6728 -1.3177
45583SOL    HW241435   9.636   8.617  11.216  0.3370 -1.6355 -0.2074
45584SOL     OW41436   6.933   2.809   6.328 -0.6882 -0.1209  0.0460
45584SOL    HW141437   6.974   2.843   6.249 -1.1164  0.7999  0.1960
45584SOL    HW241438   6.969   2.863   6.399 -0.6057 -0.6690  0.4246
45585SOL     OW41439   8.086   9.176   1.874 -0.5438 -0.5889  0.0353
45585SOL    HW141440   8.065   9.128   1.955 -1.2341 -0.8995 -0.3229
45585SOL    HW241441   8.035   9.132   1.806  1.5918 -1.6918 -0.9816
45586SOL     OW41442   9.190   7.444   2.094  0.2377  0.2491  0.2946
45586SOL    HW141443   9.268   7.485   2.056  1.3757 -0.9740  1.2392
45586SOL    HW241444   9.117   7.494   2.057  1.3379  0.0908 -2.3156
45587SOL     OW41445   9.606   0.358  10.775  0.3523 -0.6079  0.0106
45587SOL    HW141446   9.550   0.415  10.722  1.3487  1.2744  0.9084
45587SOL    HW241447   9.655   0.307  10.711  0.5239  0.6257 -0.8716
45588SOL     OW41448   7.300   3.880  11.535  0.2696  0.3423 -0.3717
45588SOL    HW141449   7.395   3.875  11.524  0.0818 -0.0060 -2.2482
45588SOL    HW241450   7.272   3.788  11.536 -0.2734  0.4089 -2.8313
45589SOL     OW41451   0.116   6.794   5.709 -0.1259 -0.0034 -0.8454
45589SOL    HW141452   0.024   6.820   5.711  0.0093  0.5772  1.3553
45589SOL    HW241453   0.132   6.759   5.797  2.0772  1.2133 -0.7007
45590SOL     OW41454  11.819   7.010   8.064  0.5356 -0.0977 -0.2543
45590SOL    HW141455  11.786   7.012   7.974  0.8868  1.2728 -0.3807
45590SOL    HW241456  11.759   7.067   8.112  0.2957 -0.8966  0.4108
45591SOL     OW41457   9.677   4.289  10.048 -0.1856  0.4559 -0.2028
45591SOL    HW141458   9.718   4.374  10.059 -1.5419  1.1700 -0.4776
45591SOL    HW241459   9.656   4.284   9.954  1.7523 -1.0946 -0.6268
45592SOL     OW41460  10.971   6.582   4.547  0.6016 -0.1261 -0.4408
45592SOL    HW141461  10.944   6.587   4.639  0.8560  0.0920 -0.3774
45592SOL    HW241462  11.021   6.501   4.541  0.6944 -0.0757 -0.3564
45593SOL     OW41463   2.478   5.487   6.309  0.2523  0.3813  0.1566
45593SOL    HW141464   2.461   5.427   6.381 -1.1260 -0.3074 -0.6986
45593SOL    HW241465   2.514   5.565   6.350  3.6982 -1.5390  1.1933
45594SOL     OW41466  10.645   9.861   2.745 -0.4778  0.0676  0.1521
45594SOL    HW141467  10.631   9.785   2.689 -0.3049  0.2948 -0.2119
45594SOL    HW241468  10.606   9.934   2.696  0.9939  0.5382 -0.3980
45595SOL     OW41469   9.389   0.166   2.925  0.1218  0.4569  0.3739
45595SOL    HW141470   9.296   0.162   2.947 -0.3323 -2.6945 -1.5181
45595SOL    HW241471   9.391   0.160   2.829  2.2941 -1.0480  0.4527
45596SOL     OW41472   3.952   3.196   1.736  0.3726 -0.1020  0.5267
45596SOL    HW141473   3.865   3.206   1.697  1.1380  1.3064 -0.9432
45596SOL    HW241474   3.979   3.107   1.714 -0.6097 -0.4839  0.8402
45597SOL     OW41475   4.040   8.151   9.906 -0.2243 -0.2759  0.6865
45597SOL    HW141476   3.950   8.153   9.937 -0.1055  2.3404  1.1490
45597SOL    HW241477   4.055   8.240   9.872  2.2015 -0.5745  0.7838
45598SOL     OW41478  11.967   3.852   9.925 -0.6037  0.5494  0.3109
45598SOL    HW141479  11.930   3.764   9.923 -0.6143  0.5046  1.6467
45598SOL    HW241480  11.936   3.893   9.844  0.6968 -1.1609 -1.1189
45599SOL     OW41481   0.612   4.310   0.623 -0.4898  0.1801 -0.0722
45599SOL    HW141482   0.682   4.305   0.558 -1.0453  0.3540 -0.6999
45599SOL    HW241483   0.654   4.286   0.706 -0.1897 -2.0596 -0.8118
45600SOL     OW41484  11.108   4.205   0.915  0.6644  0.3106 -0.7293
45600SOL    HW141485  11.063   4.239   0.992  2.0218  1.4586 -0.3995
45600SOL    HW241486  11.112   4.110   0.929  0.1655  0.4159  0.1922
45601SOL     OW41487   6.241   2.455  10.208  0.3465 -0.1663 -0.1291
45601SOL    HW141488   6.308   2.413  10.155  1.4427  1.2255  0.0986
45601SOL    HW241489   6.238   2.545  10.176  0.1756  0.3816  1.3652
45602SOL     OW41490   2.656   6.954  11.076 -0.1712  0.3568 -0.3721
45602SOL    HW141491   2.662   6.982  10.985  0.0418 -2.1045 -1.1860
45602SOL    HW241492   2.746   6.951  11.107 -0.2066  0.7038 -0.2297
45603SOL     OW41493   0.038  11.113   0.100 -0.2807 -0.2807  0.2600
45603SOL    HW141494   0.023  11.075   0.014 -1.0202  0.5734 -0.0023
45603SOL    HW241495  -0.015  11.192   0.101 -1.6788 -1.1608  2.1353
45604SOL     OW41496   3.611   1.567   5.884  0.4144  0.2249  0.2349
45604SOL    HW141497   3.612   1.632   5.954  0.4287 -0.0760  0.5187
45604SOL    HW241498   3.583   1.486   5.927 -0.4592  0.2364 -0.2853
45605SOL     OW41499   3.984   4.632   2.879  0.6481  0.1937 -0.5979
45605SOL    HW141500   4.066   4.617   2.833  1.0936 -0.6796  0.4403
45605SOL    HW241501   4.010   4.657   2.968 -0.1950  0.6192 -0.4616
45606SOL     OW41502   3.333   4.578  11.815 -0.5204 -0.3938  0.9386
45606SOL    HW141503   3.276   4.653  11.799 -3.4533 -2.8730 -1.2879
45606SOL    HW241504   3.421   4.611  11.797 -1.9739  1.6750 -3.8412
45607SOL     OW41505   9.009   7.637   9.779  0.0594 -0.0122  0.0927
45607SOL    HW141506   9.025   7.731   9.783 -0.9935  0.1954 -0.3637
45607SOL    HW241507   9.057   7.607   9.703 -0.3699  0.3264 -0.3171
45608SOL     OW41508   8.637   5.518  11.427  0.1370  0.0540 -0.1009
45608SOL    HW141509   8.657   5.551  11.339  0.6069  0.5001  0.1653
45608SOL    HW241510   8.581   5.584  11.466  2.2698  1.3511  0.9710
45609SOL     OW41511   0.814   6.638   3.037 -0.6162  0.4828 -0.5627
45609SOL    HW141512   0.768   6.698   3.096  0.1224 -0.4839  1.0539
45609SOL    HW241513   0.746   6.579   3.005 -0.7617 -0.0595  0.6989
45610SOL     OW41514   6.870   9.306   5.977  0.1163 -0.2699  0.4669
45610SOL    HW141515   6.938   9.324   5.912 -0.6516 -3.3042 -1.3652
45610SOL    HW241516   6.916   9.265   6.050  0.6562  0.9105  0.8165
45611SOL     OW41517   7.035   7.943  11.190 -0.2016 -0.1050  0.3688
45611SOL    HW141518   6.954   7.892  11.193 -0.1475 -0.3064 -1.1038
45611SOL    HW241519   7.096   7.890  11.138  0.0666  1.1575 -0.6487
45612SOL     OW41520   6.999   4.194   4.063  0.4978  0.1644  0.0482
45612SOL    HW141521   7.072   4.228   4.011  0.9008  0.0647  0.5519
45612SOL    HW241522   6.921   4.218   4.012  0.7978  1.4041  0.1338
45613SOL     OW41523   8.439   1.604   7.820 -0.1739  0.0869 -0.1502
45613SOL    HW141524   8.460   1.551   7.743  1.0374  0.8039 -0.3385
45613SOL    HW241525   8.458   1.694   7.793 -0.3423  0.4177  0.7907
45614SOL     OW41526  11.489   1.696   7.587  0.1663 -0.4526  0.3587
45614SOL    HW141527  11.525   1.697   7.676  0.6850  2.1589  0.1808
45614SOL    HW241528  11.547   1.638   7.538  1.4445  0.1229  1.1395
45615SOL     OW41529   4.940   4.431   5.028  0.8418  0.4782 -0.5099
45615SOL    HW141530   4.948   4.496   5.097  1.5404  0.1630 -0.2891
45615SOL    HW241531   4.990   4.355   5.059 -2.9869 -1.6954  0.9772
45616SOL     OW41532   8.715   6.199   1.731 -0.0066 -0.2353 -0.0671
45616SOL    HW141533   8.640   6.250   1.700  0.6077  1.2682  0.8008
45616SOL    HW241534   8.684   6.159   1.812  0.1327  0.4750  0.3510
45617SOL     OW41535   9.602   3.495  11.590 -0.0148 -0.1723 -0.1080
45617SOL    HW141536   9.634   3.429  11.529 -2.4166 -1.0073 -0.5978
45617SOL    HW241537   9.583   3.447  11.671  0.1715  0.3193  0.2356
45618SOL     OW41538   6.470   5.262   9.381  0.1190 -0.2766  0.4392
45618SOL    HW141539   6.390   5.222   9.418  0.5444 -1.0918  0.5067
45618SOL    HW241540   6.539   5.236   9.441  0.8436 -1.6956 -0.9485
45619SOL     OW41541   9.795   8.632   2.703 -0.0642  0.4555  0.4646
45619SOL    HW141542   9.770   8.636   2.611 -0.4374 -0.9528  0.4784
45619SOL    HW241543   9.744   8.702   2.745 -1.2037  0.0066 -0.1292
45620SOL     OW41544   1.485   2.856  11.459 -0.1861 -0.4184 -0.2067
45620SOL    HW141545   1.446   2.886  11.541 -1.6487 -0.3539 -0.8990
45620SOL    HW241546   1.558   2.916  11.443  0.6164 -0.8801  1.4006
45621SOL     OW41547   5.548   9.216   4.293  0.4390 -0.0503  0.4637
45621SOL    HW141548   5.558   9.286   4.358 -0.2786  0.1599  0.3592
45621SOL    HW241549   5.460   9.229   4.257  0.6359 -0.4720 -0.1918
45622SOL     OW41550   7.136  10.197   1.199  0.0750  0.3674  0.1509
45622SOL    HW141551   7.108  10.186   1.290  0.1636 -2.1237 -0.0530
45622SOL    HW241552   7.074  10.260   1.162 -1.7651 -0.7316  1.2035
45623SOL     OW41553   5.783   1.550   0.390 -0.0086 -0.0440  0.3710
45623SOL    HW141554   5.865   1.562   0.340 -0.8201  1.8513 -0.6416
45623SOL    HW241555   5.740   1.476   0.348 -0.9051  1.8020 -2.2360
45624SOL     OW41556   9.610   2.433   4.517 -0.1906 -0.5862  0.8700
45624SOL    HW141557   9.594   2.467   4.605  2.7064  1.7484  0.6482
45624SOL    HW241558   9.694   2.388   4.523  0.3695  0.1523 -0.7580
45625SOL     OW41559   8.604   9.620  10.299 -0.2033  0.1621  0.3002
45625SOL    HW141560   8.636   9.534  10.273 -1.4327 -0.4580  0.7583
45625SOL    HW241561   8.620   9.625  10.393 -1.0103  0.0189  0.4569
45626SOL     OW41562   3.415   2.232   0.548  0.3404 -0.1673  0.0694
45626SOL    HW141563   3.327   2.226   0.512  0.5653 -0.6210 -0.4088
45626SOL    HW241564   3.448   2.317   0.519  0.4701 -0.4723 -0.6898
45627SOL     OW41565   9.390   2.892  11.440 -0.1779 -0.0953  0.0668
45627SOL    HW141566   9.410   2.828  11.508  0.3642  0.6126  0.5879
45627SOL    HW241567   9.334   2.956  11.484  2.5370  1.9763  0.7312
45628SOL     OW41568   7.325  10.324  11.320  0.4262 -0.0565 -0.9072
45628SOL    HW141569   7.357  10.262  11.255 -1.2623  0.0365 -1.8999
45628SOL    HW241570   7.344  10.410  11.283  2.0358  0.0694  0.0949
45629SOL     OW41571  10.783   9.784   6.622  0.6601 -0.0385 -0.6674
45629SOL    HW141572  10.711   9.723   6.607  1.1093 -0.5929 -0.6211
45629SOL    HW241573  10.744   9.871   6.610 -0.5106 -0.2179  1.3028
45630SOL     OW41574   3.952   2.472   9.475  0.4587 -0.2098  0.9021
45630SOL    HW141575   3.953   2.523   9.556 -0.0169  0.1347  0.6969
45630SOL    HW241576   4.034   2.424   9.476 -0.4317 -1.8684  2.6401
45631SOL     OW41577   2.835  11.164   3.029  0.4054  0.3547  0.4345
45631SOL    HW141578   2.754  11.189   2.985 -0.1819  0.1074  1.3438
45631SOL    HW241579   2.899  11.158   2.958 -0.2447  1.0216 -0.2431
45632SOL     OW41580   2.182   1.077   6.177 -0.5659 -0.0378 -0.0997
45632SOL    HW141581   2.160   1.101   6.087  0.6159 -1.4805 -0.8256
45632SOL    HW241582   2.252   1.013   6.168  0.6930  0.9350  1.8985
45633SOL     OW41583   0.654  11.121   3.649  0.4014 -0.0711 -0.3034
45633SOL    HW141584   0.623  11.116   3.559  2.7774  0.4077 -1.2196
45633SOL    HW241585   0.748  11.109   3.643  0.5317 -0.8584  2.2368
45634SOL     OW41586   1.915   0.312   2.989 -0.5530  0.0132  0.4942
45634SOL    HW141587   1.967   0.381   3.029  2.0756 -0.1500 -2.2888
45634SOL    HW241588   1.901   0.248   3.059  3.0269  0.1199  1.4682
45635SOL     OW41589   6.668   1.487  10.799 -0.0502  0.1320  0.3659
45635SOL    HW141590   6.674   1.424  10.727 -0.8666 -2.8871  2.7458
45635SOL    HW241591   6.577   1.484  10.826  0.2320  1.2706  1.5378
45636SOL     OW41592  10.022   6.909  11.326 -0.3237  0.1328  0.5965
45636SOL    HW141593  10.025   6.828  11.377 -0.6797 -1.4799 -1.7842
45636SOL    HW241594  10.099   6.958  11.355  1.2601 -2.1149  0.5152
45637SOL     OW41595   8.585   5.890   4.200  0.3980 -0.0989  0.2162
45637SOL    HW141596   8.519   5.854   4.260 -0.0301 -0.9593 -0.7312
45637SOL    HW241597   8.668   5.856   4.233  0.1386 -0.8052  0.1542
45638SOL     OW41598   8.530   8.655   4.172  0.5257 -0.1172 -0.0851
45638SOL    HW141599   8.466   8.604   4.122  0.1079  1.8096 -1.6504
45638SOL    HW241600   8.585   8.695   4.105  2.0934 -0.0780  1.1778
45639SOL     OW41601   1.514   8.591   5.622 -0.1050  0.2240  0.5548
45639SOL    HW141602   1.490   8.558   5.709 -0.9396  1.1712  0.7053
45639SOL    HW241603   1.584   8.655   5.639  0.3895 -0.2763  0.4260
45640SOL     OW41604   3.313   4.923   1.732 -0.1115  0.4918  0.6219
45640SOL    HW141605   3.237   4.871   1.758  0.6966 -0.2876  1.5371
45640SOL    HW241606   3.338   4.887   1.647 -0.9440  0.9689  0.1642
45641SOL     OW41607   2.453  10.282   6.046  0.2194  0.0206  0.1716
45641SOL    HW141608   2.499  10.215   6.097  1.2044 -0.3269 -1.1023
45641SOL    HW241609   2.423  10.236   5.967  0.6191  0.9863 -0.5726
45642SOL     OW41610   5.706   7.589   2.874 -0.0492  0.3970  0.0725
45642SOL    HW141611   5.759   7.640   2.812  0.7024 -0.0527  0.3257
45642SOL    HW241612   5.620   7.583   2.833  0.5412 -0.2460 -1.1507
45643SOL     OW41613   5.805   7.276  11.043 -0.2832  0.1415 -0.5475
45643SOL    HW141614   5.849   7.214  11.102  1.8844  1.7431 -0.3449
45643SOL    HW241615   5.748   7.326  11.101  0.2751  0.3377 -0.1515
45644SOL     OW41616   2.175   3.893  11.007  0.1729  0.3990 -0.5074
45644SOL    HW141617   2.221   3.919  11.087  0.1187  1.3689 -0.7764
45644SOL    HW241618   2.085   3.875  11.036  0.8655 -2.5053  0.2004
45645SOL     OW41619   7.022   2.513  10.415  0.1672 -0.3052 -0.2316
45645SOL    HW141620   7.070   2.434  10.440 -1.2005 -0.9856  0.3603
45645SOL    HW241621   7.020   2.565  10.495 -0.4858 -0.5147 -0.1016
45646SOL     OW41622   1.570   3.515   1.667 -0.3994  0.7108 -0.7697
45646SOL    HW141623   1.542   3.445   1.726 -0.1809  0.6741 -0.7074
45646SOL    HW241624   1.504   3.583   1.677  0.1212  1.0961  0.2234
45647SOL     OW41625   5.308  10.128  10.616 -0.6165 -0.1535 -0.6852
45647SOL    HW141626   5.273  10.046  10.652 -0.6103 -0.0543 -0.4472
45647SOL    HW241627   5.279  10.128  10.525  0.2750 -0.9170 -0.9776
45648SOL     OW41628   1.525   0.375   2.171 -0.0268 -0.3679 -0.3107
45648SOL    HW141629   1.550   0.320   2.097  0.0732 -0.5419 -0.1483
45648SOL    HW241630   1.431   0.363   2.180 -0.0248 -0.4138 -0.3540
45649SOL     OW41631   8.377   1.313   6.339  0.0793 -0.0398 -0.2649
45649SOL    HW141632   8.391   1.243   6.403  0.4062  0.7327  0.5302
45649SOL    HW241633   8.334   1.383   6.389 -0.3351  0.2968 -1.0679
45650SOL     OW41634  10.234   9.525   2.645  0.3979  0.3247  0.8483
45650SOL    HW141635  10.290   9.603   2.647 -1.8091  2.0053  0.4572
45650SOL    HW241636  10.204   9.519   2.554  0.7095 -1.1613  0.8159
45651SOL     OW41637   3.517  11.831   0.980 -0.1213  0.1034 -0.0280
45651SOL    HW141638   3.444  11.770   0.970 -0.1585  0.3455 -1.5866
45651SOL    HW241639   3.477  11.913   1.009 -0.4605  0.1900 -0.7215
45652SOL     OW41640  10.307   4.945   0.620 -0.1041 -0.2271  0.3109
45652SOL    HW141641  10.223   4.906   0.644 -0.5584  0.4848 -0.0841
45652SOL    HW241642  10.326   4.909   0.533 -0.7819  0.7979 -0.2852
45653SOL     OW41643   3.142   5.989   4.862  0.3173  0.0062 -0.0444
45653SOL    HW141644   3.212   6.014   4.802  0.9524 -0.2118  0.5947
45653SOL    HW241645   3.162   6.036   4.943 -1.0546  1.0517 -0.2651
45654SOL     OW41646   7.754   2.565  10.442 -0.1969  0.2491 -0.5941
45654SOL    HW141647   7.684   2.520  10.396 -0.5363  0.3871 -0.2200
45654SOL    HW241648   7.765   2.648  10.395 -2.0241  1.3739  0.8071
45655SOL     OW41649   1.926   5.266  11.369  0.6353 -0.6525 -0.1834
45655SOL    HW141650   1.952   5.181  11.333  2.1369  0.6540 -2.3935
45655SOL    HW241651   1.987   5.281  11.441  0.3313 -1.4134  0.2584
45656SOL     OW41652   0.943  10.352   4.551  0.3707 -0.0182 -0.7535
45656SOL    HW141653   1.031  10.348   4.589 -0.4487  0.2461  1.3245
45656SOL    HW241654   0.949  10.423   4.487  1.4244  0.7734  0.1480
45657SOL     OW41655   0.989   8.984   3.842 -0.6376  0.4937 -0.2789
45657SOL    HW141656   0.921   8.921   3.819  0.1524 -0.0269 -1.2284
45657SOL    HW241657   1.022   9.016   3.759  0.6338  0.3564  0.1495
45658SOL     OW41658   7.612   6.340   4.474  0.0972  0.4282 -0.0294
45658SOL    HW141659   7.680   6.273   4.470 -0.1921  0.1740 -1.0779
45658SOL    HW241660   7.649   6.409   4.528  1.8922  1.0585 -1.9345
45659SOL     OW41661  10.507   3.018   7.569  0.0448 -0.2231  0.1526
45659SOL    HW141662  10.562   2.979   7.637  0.3091  0.1769  0.1735
45659SOL    HW241663  10.425   2.968   7.573 -0.4636  0.6472  1.6923
45660SOL     OW41664  10.019   8.204   2.421  0.5993  0.5961 -0.3599
45660SOL    HW141665  10.002   8.117   2.458 -2.2446  0.6752 -1.1959
45660SOL    HW241666   9.987   8.264   2.489  2.4515  1.0331  0.1673
45661SOL     OW41667   6.820  11.313   1.012  0.4009  0.7939 -0.0419
45661SOL    HW141668   6.890  11.248   1.012  0.3660  0.6508 -2.8216
45661SOL    HW241669   6.740  11.262   1.023  0.5480  0.7533  1.0096
45662SOL     OW41670   5.185   3.362   0.514  0.0378 -0.5316  0.4303
45662SOL    HW141671   5.276   3.350   0.489 -0.0549 -2.3513  0.8938
45662SOL    HW241672   5.183   3.349   0.609 -0.6434 -0.1060  0.4854
45663SOL     OW41673   0.219   6.241   2.864 -0.2229 -0.1493  0.2660
45663SOL    HW141674   0.161   6.244   2.940  1.2201  0.6187  1.3866
45663SOL    HW241675   0.284   6.175   2.886  1.1761  1.2304  0.4780
45664SOL     OW41676   0.036   9.767   3.120 -0.1082  0.0421  0.2653
45664SOL    HW141677  -0.004   9.689   3.082  0.5641 -1.0375  1.6748
45664SOL    HW241678  -0.008   9.841   3.077 -0.1298 -1.0936 -1.7539
45665SOL     OW41679   7.725  10.477   5.075 -0.4066  0.0029  0.0049
45665SOL    HW141680   7.750  10.491   4.983  1.3051 -1.2920  0.2112
45665SOL    HW241681   7.706  10.384   5.081 -0.6862  0.1119  0.9304
45666SOL     OW41682   6.430   2.425  11.776  0.2875 -0.4578 -0.0800
45666SOL    HW141683   6.467   2.373  11.847  1.3909 -1.8469 -1.6102
45666SOL    HW241684   6.363   2.479  11.819  1.6047 -0.4701  2.1731
45667SOL     OW41685  11.171   2.637   8.689  0.8354 -0.2676 -0.1661
45667SOL    HW141686  11.125   2.618   8.607 -0.3667 -1.4458  0.7401
45667SOL    HW241687  11.159   2.731   8.702 -0.4323 -0.3609 -0.5051
45668SOL     OW41688   8.537   1.000   4.046 -0.5497 -0.1055 -0.2358
45668SOL    HW141689   8.481   0.980   3.971 -1.7211 -2.7523  1.2190
45668SOL    HW241690   8.495   1.076   4.087  0.2537  1.5512 -2.2751
45669SOL     OW41691  10.950   6.532   4.275  0.3098 -0.4473  0.1362
45669SOL    HW141692  10.945   6.621   4.310  1.1827 -0.6842  0.8924
45669SOL    HW241693  10.860   6.511   4.249 -0.2725 -0.0631  1.7651
45670SOL     OW41694   2.873   3.068   0.680  0.4841  0.0845 -0.2138
45670SOL    HW141695   2.783   3.100   0.681 -0.0165 -1.1301  1.8256
45670SOL    HW241696   2.884   3.027   0.594 -0.6849  0.8223 -0.7315
45671SOL     OW41697  11.222   7.865  10.932 -0.3689 -0.2953  0.3501
45671SOL    HW141698  11.232   7.960  10.921  0.8810 -0.4830 -0.2786
45671SOL    HW241699  11.228   7.851  11.026  0.7385  0.1232  0.3524
45672SOL     OW41700   8.871   4.288   3.765 -0.2426  0.3618  0.2633
45672SOL    HW141701   8.948   4.289   3.822  0.2387 -0.6936 -0.3501
45672SOL    HW241702   8.813   4.223   3.806 -0.0377 -0.1541 -0.2608
45673SOL     OW41703   6.873   4.824   8.012  0.1444 -0.3358 -0.3417
45673SOL    HW141704   6.861   4.918   7.998 -3.4800 -0.6159 -0.0437
45673SOL    HW241705   6.860   4.812   8.106 -0.1139 -1.2067 -0.4848
45674SOL     OW41706   7.119   1.159   7.512 -0.1106 -0.3007 -0.3508
45674SOL    HW141707   7.183   1.130   7.578 -1.4429  0.2852  1.2691
45674SOL    HW241708   7.146   1.248   7.490 -1.0898  0.4616  1.3587
45675SOL     OW41709   1.905  11.279   2.365 -0.4180 -0.0513 -0.3179
45675SOL    HW141710   1.978  11.219   2.381 -0.0589  0.0511 -1.4547
45675SOL    HW241711   1.941  11.344   2.304 -0.7656  1.3827  0.9603
45676SOL     OW41712   0.288   3.752   5.975 -0.5778 -0.0853  0.1255
45676SOL    HW141713   0.352   3.690   5.942  0.2170  1.0677 -0.5881
45676SOL    HW241714   0.239   3.779   5.898 -1.2695 -0.2086  0.5122
45677SOL     OW41715   3.037   6.354   9.477  0.1214 -0.6878 -0.4443
45677SOL    HW141716   3.082   6.409   9.413  0.7902 -2.0769 -1.2145
45677SOL    HW241717   2.952   6.397   9.489  0.7093  0.6477 -0.8017
45678SOL     OW41718   4.472   2.835  11.415 -0.2234  0.3936 -0.4194
45678SOL    HW141719   4.381   2.850  11.440  0.2320  1.0870  0.9155
45678SOL    HW241720   4.477   2.861  11.323 -1.6511 -0.8861 -0.8892
45679SOL     OW41721   7.257   4.618   2.637 -0.2295  0.1614  0.1088
45679SOL    HW141722   7.323   4.565   2.681 -0.1741 -0.2852 -0.4930
45679SOL    HW241723   7.191   4.555   2.609 -2.1797  0.8462  2.8039
45680SOL     OW41724   6.748   3.307  11.067  0.4004  0.4014 -1.1093
45680SOL    HW141725   6.758   3.242  11.137  1.0062  1.4428 -0.2102
45680SOL    HW241726   6.698   3.378  11.106 -0.5098  0.3851 -2.1758
45681SOL     OW41727   5.874  11.815   4.809  0.3018 -0.1423 -0.0087
45681SOL    HW141728   5.956  11.806   4.761  0.8702 -1.6671  1.1900
45681SOL    HW241729   5.901  11.841   4.897 -0.5241 -0.2531  0.2820
45682SOL     OW41730   7.764   8.482  11.276  0.4521 -0.0345  0.1805
45682SOL    HW141731   7.746   8.575  11.264  0.3649 -0.1628 -0.7447
45682SOL    HW241732   7.859   8.475  11.269  0.3534 -0.2049 -1.2742
45683SOL     OW41733   2.105   3.773   2.981 -0.4939  1.0591  0.1805
45683SOL    HW141734   2.076   3.778   3.072 -0.4204  1.6940  0.1738
45683SOL    HW241735   2.189   3.728   2.985 -0.4280  1.2063  0.4419
45684SOL     OW41736   0.576   9.938   5.865 -0.3826  0.2518  0.0412
45684SOL    HW141737   0.562   9.974   5.952  1.1319 -0.2484  0.5140
45684SOL    HW241738   0.669   9.949   5.849 -0.0500 -2.3767 -0.2480
45685SOL     OW41739   5.413  10.136   7.600 -0.4091 -0.4938 -0.2837
45685SOL    HW141740   5.455  10.210   7.556  0.1103 -0.1059  0.8054
45685SOL    HW241741   5.320  10.155   7.597 -0.2569  0.4102  0.3028
45686SOL     OW41742   2.896   0.724   2.570  0.6017  0.1325 -1.0042
45686SOL    HW141743   2.842   0.730   2.491  0.5465  1.8881 -0.8853
45686SOL    HW241744   2.973   0.778   2.551  2.1870 -1.9858 -1.0141
45687SOL     OW41745   6.058   4.707   4.541  0.2390  0.4541 -0.6423
45687SOL    HW141746   6.051   4.800   4.520  2.7019  1.2586  1.5056
45687SOL    HW241747   6.152   4.693   4.554 -0.0483 -2.4088 -1.0663
45688SOL     OW41748   6.621   2.732   7.998  0.0268  0.1814  0.0798
45688SOL    HW141749   6.618   2.811   7.944 -2.6545  0.6258  0.7107
45688SOL    HW241750   6.592   2.761   8.085 -2.7020 -1.6867 -0.0715
45689SOL     OW41751   8.981   5.993   7.071 -0.5266  0.0580 -0.3270
45689SOL    HW141752   8.949   6.081   7.052  0.4719  0.3741 -0.5581
45689SOL    HW241753   9.047   6.004   7.140  0.8484 -0.2907 -1.5460
45690SOL     OW41754   6.356   4.234   5.595 -0.1505 -0.0562 -0.0598
45690SOL    HW141755   6.332   4.144   5.575  0.7829 -0.5410  0.8963
45690SOL    HW241756   6.282   4.286   5.563 -2.1403 -1.3966  2.0032
45691SOL     OW41757  10.499   2.225  11.852  0.7887 -0.0942  0.4546
45691SOL    HW141758  10.435   2.162  11.885  1.1206 -1.0553 -0.6755
45691SOL    HW241759  10.507   2.290  11.922 -1.9701  0.4753  0.3448
45692SOL     OW41760   0.787   2.681   3.561  0.3783 -0.3987  0.4787
45692SOL    HW141761   0.798   2.754   3.622  0.7056 -0.0495  0.0095
45692SOL    HW241762   0.862   2.688   3.502 -0.8566  0.3673 -1.0946
45693SOL     OW41763   8.558  11.028   5.063 -0.3667  0.0795  0.6365
45693SOL    HW141764   8.651  11.035   5.044 -0.4730 -2.8435 -1.7533
45693SOL    HW241765   8.550  10.949   5.117 -1.4645  0.4665  1.0759
45694SOL     OW41766   9.821   6.687   8.998 -0.2661  0.2207  0.1975
45694SOL    HW141767   9.837   6.738   9.078  0.3107  0.4348 -0.0511
45694SOL    HW241768   9.875   6.609   9.007 -0.5570  0.0204  0.2243
45695SOL     OW41769  10.300   9.996   0.200 -0.0557 -0.2362  0.0529
45695SOL    HW141770  10.251   9.989   0.117 -0.4028 -0.6213  0.2852
45695SOL    HW241771  10.242   9.958   0.265  1.4775 -2.9390 -0.0243
45696SOL     OW41772   9.663   4.020   5.364 -0.1365 -0.0688  0.4364
45696SOL    HW141773   9.734   3.959   5.386 -0.1101  0.7563  2.9066
45696SOL    HW241774   9.606   4.019   5.441 -0.5109  2.4549  0.2515
45697SOL     OW41775   3.863   4.303   5.473 -0.3390  0.0369  0.1987
45697SOL    HW141776   3.825   4.240   5.412 -0.2264  0.2700 -0.1133
45697SOL    HW241777   3.843   4.267   5.560 -1.7642  0.4254  0.0627
45698SOL     OW41778   5.703   6.700   3.320 -0.2307 -0.6662 -0.5049
45698SOL    HW141779   5.662   6.720   3.404  0.4334  1.1293 -0.5635
45698SOL    HW241780   5.761   6.626   3.338  1.1006  0.6777  1.0346
45699SOL     OW41781   4.149   6.321   5.457  0.0440  0.7299 -0.0732
45699SOL    HW141782   4.066   6.358   5.488 -1.3008 -1.4303 -0.9047
45699SOL    HW241783   4.153   6.234   5.496  1.8630  0.7297 -0.1797
45700SOL     OW41784   0.331   5.259  11.880  0.0995  0.2637  0.3425
45700SOL    HW141785   0.360   5.246  11.790  0.3024  1.2486  0.2473
45700SOL    HW241786   0.328   5.355  11.891 -2.0991  0.2141  0.6871
45701SOL     OW41787  11.037   8.079   0.034  0.1028 -0.5700 -0.4233
45701SOL    HW141788  10.993   8.160   0.008  1.3017 -0.2608 -1.6013
45701SOL    HW241789  10.979   8.009   0.004 -1.0658 -0.1886  0.8278
45702SOL     OW41790   8.156   6.560  10.940  0.2562 -0.4545  0.2285
45702SOL    HW141791   8.248   6.545  10.919  0.2727  1.0165 -0.9930
45702SOL    HW241792   8.119   6.594  10.858 -1.2007 -0.3132  0.9197
45703SOL     OW41793   7.498  10.951   7.672  0.0476  0.4580  0.0117
45703SOL    HW141794   7.584  10.911   7.681 -0.1416  0.0738  0.1560
45703SOL    HW241795   7.487  10.965   7.578  0.2938  0.5764 -0.0009
45704SOL     OW41796  11.441   5.437   6.975  0.4375  0.6114 -0.0796
45704SOL    HW141797  11.354   5.450   6.938  1.1362  1.2445 -1.5602
45704SOL    HW241798  11.429   5.446   7.069 -1.2471 -0.2228 -0.1855
45705SOL     OW41799   3.140   2.572   2.717  0.0293 -0.1029 -0.0974
45705SOL    HW141800   3.101   2.624   2.787  2.4764  0.9105  0.6191
45705SOL    HW241801   3.183   2.636   2.660  4.0270 -1.2040  1.3619
45706SOL     OW41802   6.096   9.373   2.225 -0.0068 -0.4996  0.4988
45706SOL    HW141803   6.108   9.364   2.320  0.1040  3.1751  0.9501
45706SOL    HW241804   6.007   9.406   2.215  0.3970  0.3082 -0.5774
45707SOL     OW41805   2.691   6.520   2.321 -0.1926  0.5417 -0.0737
45707SOL    HW141806   2.661   6.434   2.350  0.5977  0.7077  1.3005
45707SOL    HW241807   2.786   6.517   2.331 -0.2481  2.0102  1.3195
45708SOL     OW41808   8.227   9.728  11.757 -0.2873  0.3390  0.3336
45708SOL    HW141809   8.310   9.681  11.758  0.3707  1.4256 -0.7934
45708SOL    HW241810   8.180   9.691  11.682 -0.4179  0.3963  0.3868
45709SOL     OW41811   1.920   2.386   9.420 -0.5582  0.4448 -0.2456
45709SOL    HW141812   1.861   2.311   9.415  1.6313 -1.3347 -1.2097
45709SOL    HW241813   1.962   2.390   9.334  0.3254  1.9768  0.2141
45710SOL     OW41814   6.131   7.986   2.673  0.5752  0.1908 -0.1893
45710SOL    HW141815   6.137   7.921   2.603 -0.6253  0.0521 -0.1898
45710SOL    HW241816   6.099   8.065   2.630  2.0914  0.8299 -0.1977
45711SOL     OW41817   7.750   6.991   1.071 -0.5264 -0.0459 -0.0041
45711SOL    HW141818   7.718   6.905   1.100  0.4552 -0.5396 -0.3407
45711SOL    HW241819   7.797   7.026   1.146  2.0340 -1.3342 -0.8984
45712SOL     OW41820   7.586   8.576   4.349 -0.2968  0.2511 -0.2055
45712SOL    HW141821   7.665   8.585   4.296 -0.0162 -0.6145  0.0358
45712SOL    HW241822   7.535   8.655   4.332 -0.7729 -0.5108 -2.6614
45713SOL     OW41823   5.730  11.807   2.213  0.2844 -0.7603 -0.5427
45713SOL    HW141824   5.676  11.740   2.254 -0.1418 -0.9390 -1.3724
45713SOL    HW241825   5.673  11.883   2.204  0.8533 -0.1661  0.6651
45714SOL     OW41826   1.792   4.487   3.867 -0.4252  0.3679  0.2621
45714SOL    HW141827   1.742   4.415   3.829 -0.6778  0.0091  1.2604
45714SOL    HW241828   1.775   4.561   3.809 -1.4154  0.0227  0.0967
45715SOL     OW41829  10.798   0.335  10.642  0.2103  0.1726 -0.1087
45715SOL    HW141830  10.738   0.384  10.698  2.1234  1.6466  0.7556
45715SOL    HW241831  10.743   0.302  10.572 -1.9536 -0.1496  1.6084
45716SOL     OW41832   3.503   0.657   8.740 -0.1144  0.6853 -0.4176
45716SOL    HW141833   3.436   0.589   8.745  0.2686  0.2449 -1.0960
45716SOL    HW241834   3.479   0.720   8.807 -1.0183  0.3595 -0.4292
45717SOL     OW41835   4.243  11.444   7.901 -0.3407 -0.0944  0.2167
45717SOL    HW141836   4.298  11.523   7.891  1.1259 -0.8295  1.9334
45717SOL    HW241837   4.258  11.395   7.821 -1.8029  1.6162 -1.1996
45718SOL     OW41838   1.236  10.459   0.014 -0.4790 -0.3515 -0.1404
45718SOL    HW141839   1.189  10.387   0.057 -1.2513 -0.2721 -0.8285
45718SOL    HW241840   1.166  10.517  -0.019  0.0783 -0.3807 -1.4386
45719SOL     OW41841   2.824  11.168   3.490 -0.2177 -0.1956  0.0232
45719SOL    HW141842   2.792  11.085   3.523  0.1431 -0.1342  0.5384
45719SOL    HW241843   2.869  11.145   3.408  1.9196 -0.8787  1.3052
45720SOL     OW41844  10.287   9.983   7.795 -0.0269 -0.2554  0.2957
45720SOL    HW141845  10.339  10.061   7.775 -0.8301 -0.0940 -1.3726
45720SOL    HW241846  10.328   9.914   7.743 -0.8973 -0.3286 -0.3192
45721SOL     OW41847   2.488   8.159   5.289 -0.8147  0.1309 -0.0664
45721SOL    HW141848   2.501   8.228   5.354 -2.2035 -0.2862  0.6933
45721SOL    HW241849   2.576   8.127   5.270 -0.1507  1.9905 -0.3271
45722SOL     OW41850   7.158   8.496   3.832  0.2160  0.1268 -0.1638
45722SOL    HW141851   7.167   8.538   3.747  2.4613 -0.2992 -0.1866
45722SOL    HW241852   7.085   8.541   3.874  1.2584  2.7018 -0.9463
45723SOL     OW41853   9.946   4.577   5.704  0.9498  0.2397 -0.0425
45723SOL    HW141854   9.947   4.534   5.619  1.2114 -0.2943  0.2280
45723SOL    HW241855   9.853   4.586   5.725  0.8083  2.1721 -1.2686
45724SOL     OW41856   6.680   8.647   9.731 -0.1310 -0.2301 -0.1223
45724SOL    HW141857   6.699   8.638   9.824  1.4884 -1.1911 -0.5188
45724SOL    HW241858   6.587   8.672   9.728  0.1292  1.1611  1.7765
45725SOL     OW41859   8.604  11.761  10.109  0.2706  0.0543  1.1751
45725SOL    HW141860   8.658  11.683  10.121  0.1158  0.1916  3.0934
45725SOL    HW241861   8.582  11.760  10.016 -1.5642 -3.4135  1.4778
45726SOL     OW41862   4.847  10.324   2.165 -0.0730  0.7601 -0.6453
45726SOL    HW141863   4.875  10.293   2.251 -0.3833 -0.8883 -1.1155
45726SOL    HW241864   4.769  10.273   2.145 -0.4500  1.6620 -1.5927
45727SOL     OW41865  10.945   3.700   6.301 -0.4072  0.1613 -0.1662
45727SOL    HW141866  10.922   3.788   6.271  0.5754  0.7689  0.7916
45727SOL    HW241867  11.041   3.698   6.300 -0.3766 -0.3428  1.3512
45728SOL     OW41868  11.464   9.261   3.082 -0.2059 -0.5409  0.7140
45728SOL    HW141869  11.525   9.296   3.017 -1.3197 -0.3521 -0.2632
45728SOL    HW241870  11.407   9.203   3.033 -1.3395 -0.0733  1.4409
45729SOL     OW41871  11.899  10.489   7.815 -0.0319 -0.2486 -0.2090
45729SOL    HW141872  11.873  10.510   7.725  0.2771  1.3493  0.0557
45729SOL    HW241873  11.994  10.487   7.813 -0.0306 -0.4592  0.0323
45730SOL     OW41874   5.358  11.633   8.513 -0.0341 -0.2021  0.8088
45730SOL    HW141875   5.445  11.596   8.502 -0.0194 -0.4672  1.7190
45730SOL    HW241876   5.344  11.686   8.434  0.3930 -1.2296  0.0282
45731SOL     OW41877   8.291   2.221   5.477 -0.7577 -0.1151 -0.2831
45731SOL    HW141878   8.226   2.187   5.538 -0.9982 -0.6591 -0.8275
45731SOL    HW241879   8.375   2.205   5.519 -0.8663 -1.3659 -0.4981
45732SOL     OW41880   6.835   9.071   1.012  0.0129  0.2473 -0.4599
45732SOL    HW141881   6.786   9.047   0.934 -0.6960 -0.7154  0.2461
45732SOL    HW241882   6.883   8.991   1.035 -2.8223 -0.8831  2.2721
45733SOL     OW41883   1.210   7.639   7.471  0.2289  0.8505 -0.6771
45733SOL    HW141884   1.186   7.710   7.411  1.0023  1.5995 -0.1293
45733SOL    HW241885   1.146   7.571   7.455 -0.0001  1.3246 -1.8557
45734SOL     OW41886   9.246   8.975  11.143 -0.5272  0.2110 -0.4189
45734SOL    HW141887   9.185   9.031  11.190 -0.0747 -0.2212  0.7332
45734SOL    HW241888   9.313   8.952  11.209  1.5577  1.6496 -1.9028
45735SOL     OW41889   6.334   8.007   2.089  0.2963  0.0808 -0.3048
45735SOL    HW141890   6.296   7.945   2.027 -0.8701 -0.5698  1.0091
45735SOL    HW241891   6.429   7.997   2.077  0.1378 -1.8530 -0.2416
45736SOL     OW41892   7.060   1.677   2.330 -0.2804  0.2564 -0.3568
45736SOL    HW141893   7.103   1.593   2.315 -1.0474 -0.0820 -0.7224
45736SOL    HW241894   7.105   1.714   2.405 -0.6683 -0.9961  0.5357
45737SOL     OW41895   9.082   0.513   9.977  0.5517 -0.1785  0.1755
45737SOL    HW141896   8.998   0.552   9.999  0.4811 -0.4765  0.4491
45737SOL    HW241897   9.117   0.568   9.907 -0.3045 -0.5949 -0.6118
45738SOL     OW41898   5.704  11.660   0.006  0.5724  0.1992 -0.6608
45738SOL    HW141899   5.728  11.749   0.030 -0.6088  0.8403 -1.6975
45738SOL    HW241900   5.783  11.608   0.021  1.4969  1.5505 -0.6896
45739SOL     OW41901   5.806   9.358  11.885 -0.2487 -0.6548  0.4803
45739SOL    HW141902   5.853   9.282  11.919  1.8936 -0.1087 -1.1048
45739SOL    HW241903   5.815   9.424  11.954 -2.2058 -1.7720  1.9077
45740SOL     OW41904   8.520   1.879   5.860  0.5256 -0.1335  0.1871
45740SOL    HW141905   8.500   1.901   5.768  2.8599  2.0649  0.0925
45740SOL    HW241906   8.440   1.837   5.892  0.1693 -2.5654 -3.2715
45741SOL     OW41907   6.095   1.914   3.456 -0.6005  0.1769  0.3921
45741SOL    HW141908   6.180   1.955   3.440 -0.9559  1.4316  1.4899
45741SOL    HW241909   6.033   1.986   3.453 -1.8873 -0.9211 -1.8537
45742SOL     OW41910   6.359   8.434   4.053 -0.5078  0.0138  0.1812
45742SOL    HW141911   6.379   8.454   4.145 -0.1513 -0.3982  0.2006
45742SOL    HW241912   6.431   8.376   4.026  0.3032  1.4536 -0.8407
45743SOL     OW41913   7.598   7.643  11.897  0.3333  0.1975  0.1064
45743SOL    HW141914   7.539   7.695  11.951  1.2287  0.2901  1.0062
45743SOL    HW241915   7.567   7.553  11.907 -0.2099  0.3459 -0.1640
45744SOL     OW41916   5.013  10.645   7.113  0.1589  0.0194  0.4687
45744SOL    HW141917   4.956  10.568   7.117  1.4848 -1.0621 -0.4676
45744SOL    HW241918   5.040  10.660   7.203 -1.7192  0.6887  0.9669
45745SOL     OW41919  10.649   0.423   5.159 -0.2341 -0.5172  0.6207
45745SOL    HW141920  10.601   0.396   5.238 -0.5114 -1.3488  0.1867
45745SOL    HW241921  10.623   0.359   5.093 -1.3066  1.1085 -0.6163
45746SOL     OW41922   7.075   5.989  11.321 -0.2716  0.3513 -0.7198
45746SOL    HW141923   6.989   6.010  11.359  0.0997  0.4268  0.0946
45746SOL    HW241924   7.054   5.941  11.241 -1.1000  1.2383 -1.0689
45747SOL     OW41925   1.371   5.592   6.766  0.0457 -0.1466 -0.7145
45747SOL    HW141926   1.429   5.537   6.713  1.9362 -2.0164  2.9778
45747SOL    HW241927   1.314   5.531   6.811 -0.2116  1.1923  0.8687
45748SOL     OW41928   0.864  11.407   0.492 -0.3820  0.2477  0.6853
45748SOL    HW141929   0.828  11.496   0.492 -0.0611  0.3804  0.4922
45748SOL    HW241930   0.829  11.367   0.412 -2.4119 -0.5886  1.9055
45749SOL     OW41931  10.706   4.260  10.598  0.0407  0.2061  0.2537
45749SOL    HW141932  10.730   4.352  10.613 -1.2294  0.5815  0.0478
45749SOL    HW241933  10.721   4.246  10.505 -0.3875  0.3931  0.1566
45750SOL     OW41934  10.625   8.090   0.164 -0.6581 -0.2170  0.6544
45750SOL    HW141935  10.544   8.141   0.152  0.8367  2.3514  0.6687
45750SOL    HW241936  10.663   8.125   0.245  0.1145 -1.9416  1.0805
45751SOL     OW41937  11.697   7.047  11.270  0.0116 -0.2891 -0.4887
45751SOL    HW141938  11.686   7.106  11.196  1.4872 -0.9880 -1.3006
45751SOL    HW241939  11.676   6.960  11.236  0.0402 -0.5313  0.0903
45752SOL     OW41940   2.337   3.819   6.067  0.6524  0.0596 -0.9030
45752SOL    HW141941   2.323   3.901   6.020 -0.5218  0.0401 -0.6293
45752SOL    HW241942   2.306   3.837   6.156 -0.9572 -1.0641 -1.1945
45753SOL     OW41943  10.648   6.253   5.708  0.0081  0.3179  0.2410
45753SOL    HW141944  10.642   6.158   5.717  1.4006 -0.0054 -1.5484
45753SOL    HW241945  10.665   6.267   5.614  1.8142  2.1881  0.7654
45754SOL     OW41946   7.867   0.873   1.445  0.0071 -0.2502 -0.4740
45754SOL    HW141947   7.818   0.858   1.526 -0.8732  1.9684 -0.5163
45754SOL    HW241948   7.951   0.830   1.460  0.9682  2.3383  2.8162
45755SOL     OW41949   2.047  10.656   4.939  0.3870 -0.2192 -0.8156
45755SOL    HW141950   2.053  10.646   4.844  0.0865 -1.1050 -0.7512
45755SOL    HW241951   2.137  10.673   4.967  0.5084 -0.1517 -1.2369
45756SOL     OW41952  11.497  11.583   6.515  0.6936  0.4120  0.2638
45756SOL    HW141953  11.548  11.581   6.435 -2.4502  0.5546 -1.9193
45756SOL    HW241954  11.486  11.677   6.535 -0.0072  0.4349 -0.2001
45757SOL     OW41955   1.631   2.383   7.141 -0.6207  0.4261  0.2324
45757SOL    HW141956   1.600   2.312   7.198  1.9396 -2.6079 -1.7641
45757SOL    HW241957   1.726   2.381   7.151 -0.1786  0.6512 -3.0358
45758SOL     OW41958   2.269   9.326   9.765  0.2825  0.2649  0.0489
45758SOL    HW141959   2.288   9.418   9.748 -0.9690  0.4310 -0.6283
45758SOL    HW241960   2.306   9.280   9.690 -1.3931  0.5310 -0.9997
45759SOL     OW41961   7.086  11.204   4.516 -0.3927  0.2621 -0.3108
45759SOL    HW141962   7.025  11.229   4.447  0.6508 -0.0484 -1.3887
45759SOL    HW241963   7.172  11.234   4.484  0.1725 -0.2425  0.6730
45760SOL     OW41964   2.936   5.248   2.083 -0.2532 -0.3565  0.1731
45760SOL    HW141965   2.921   5.206   2.167 -2.5077  0.6305  0.3414
45760SOL    HW241966   3.031   5.251   2.074  0.0275 -1.1111  2.3525
45761SOL     OW41967  10.933   6.953   8.706 -0.1589 -0.7355 -0.6352
45761SOL    HW141968  10.944   6.957   8.611  0.2271  0.9762 -0.5418
45761SOL    HW241969  11.013   6.989   8.742 -0.7404 -0.3461  0.3206
45762SOL     OW41970   1.877   0.328   9.934  0.3589 -0.2014  0.3278
45762SOL    HW141971   1.880   0.396   9.867  2.1728  0.3203  0.8724
45762SOL    HW241972   1.831   0.369  10.008  1.0141  0.3059  0.4732
45763SOL     OW41973   4.967   2.282   2.535 -0.0281 -0.5980  0.0754
45763SOL    HW141974   5.023   2.323   2.601 -1.9802 -0.8955  2.0372
45763SOL    HW241975   5.026   2.225   2.485  1.7490  0.6181  0.6919
45764SOL     OW41976   5.773   8.902   0.009  0.4844  0.4618  0.4742
45764SOL    HW141977   5.807   8.916  -0.080 -0.8733 -1.0799 -0.3369
45764SOL    HW241978   5.679   8.889  -0.003  0.4446 -0.9873  1.9795
45765SOL     OW41979   1.714  11.179   0.425 -0.2859  0.1783 -0.2662
45765SOL    HW141980   1.656  11.254   0.439 -0.4686  0.2511 -1.3866
45765SOL    HW241981   1.675  11.108   0.477 -1.1971  0.3121 -0.7604
45766SOL     OW41982   7.161   7.100   4.084  0.0818  0.3872  0.1208
45766SOL    HW141983   7.213   7.090   4.004 -0.0909 -1.4640  0.1783
45766SOL    HW241984   7.208   7.164   4.137  0.7138  0.9094 -1.0520
45767SOL     OW41985   9.083   1.538   1.271  0.0553  0.2130  0.4919
45767SOL    HW141986   9.004   1.578   1.308  0.2851  0.6170  0.5608
45767SOL    HW241987   9.146   1.539   1.343 -0.4136 -1.7598  0.9934
45768SOL     OW41988   1.117   8.415  10.182 -0.3582  0.3929  0.5597
45768SOL    HW141989   1.140   8.363  10.259  1.0277 -2.1766 -1.4224
45768SOL    HW241990   1.201   8.435  10.141 -1.0510  1.9978 -0.1827
45769SOL     OW41991  11.288   0.066  11.946 -0.3668  0.1977  0.2314
45769SOL    HW141992  11.366   0.041  11.996  0.8155  1.6990 -0.7862
45769SOL    HW241993  11.216   0.027  11.995  0.9208 -0.4104  1.7618
45770SOL     OW41994  11.241   6.271   0.052  0.0051  0.3290  0.2694
45770SOL    HW141995  11.229   6.361   0.021 -1.1412 -0.2559 -1.0908
45770SOL    HW241996  11.168   6.256   0.112  0.0475  0.2117  0.2917
45771SOL     OW41997   0.944   2.354   3.925 -0.2159 -0.4019  0.0016
45771SOL    HW141998   1.039   2.347   3.932 -0.3891 -1.2126  2.1498
45771SOL    HW241999   0.929   2.441   3.889  1.3446 -0.6365 -1.2991
45772SOL     OW42000   0.159  10.302   4.986 -0.5623  0.2607  0.0718
45772SOL    HW142001   0.100  10.242   5.031 -0.9447  0.2825 -0.3908
45772SOL    HW242002   0.220  10.331   5.054  0.1913 -1.3347  0.1215
45773SOL     OW42003   4.442   8.007  10.380 -0.8349 -0.2839 -0.4536
45773SOL    HW142004   4.477   8.071  10.319 -0.3164  0.1022  0.2289
45773SOL    HW242005   4.478   8.033  10.465 -0.9115 -1.2665 -0.1048
45774SOL     OW42006  10.169   7.058   2.894  0.1326  0.0328 -0.1055
45774SOL    HW142007  10.167   6.965   2.916  0.8120 -0.1943 -0.9473
45774SOL    HW242008  10.078   7.081   2.879 -0.0171 -0.5564 -0.1183
45775SOL     OW42009   3.096   1.045   2.694  0.0839 -0.5082 -0.0001
45775SOL    HW142010   3.015   1.067   2.740  0.5012  0.1513  0.4432
45775SOL    HW242011   3.106   1.115   2.629 -0.0581 -0.9711 -0.5308
45776SOL     OW42012   3.369   1.861   3.613 -0.4861 -0.3103  0.0123
45776SOL    HW142013   3.394   1.871   3.521 -0.3161 -0.6140  0.0224
45776SOL    HW242014   3.299   1.924   3.627  0.6708  1.0041  0.1308
45777SOL     OW42015   3.341   5.400   9.462  0.1914  0.1287 -0.3871
45777SOL    HW142016   3.269   5.367   9.407  1.6831 -2.5257 -0.9075
45777SOL    HW242017   3.400   5.444   9.400  0.2646  0.0582 -0.3676
45778SOL     OW42018   8.076  10.235   8.752 -0.1032 -0.1029  0.5072
45778SOL    HW142019   7.985  10.207   8.761 -0.0111 -0.6859 -0.2452
45778SOL    HW242020   8.116  10.213   8.836 -0.7706  0.6501  1.0421
45779SOL     OW42021   8.129  11.771   2.426  0.5594 -0.5795 -0.3759
45779SOL    HW142022   8.168  11.774   2.514 -2.4100  0.1094  1.0350
45779SOL    HW242023   8.203  11.783   2.367  2.4959  0.4601  2.0675
45780SOL     OW42024   0.711  10.319  11.740  0.2655  0.2142 -0.4650
45780SOL    HW142025   0.713  10.359  11.828  1.7620 -2.2738  0.7316
45780SOL    HW242026   0.784  10.257  11.740 -0.6944 -1.0341 -2.9313
45781SOL     OW42027  10.073   8.183   8.469 -0.0989 -0.5607  0.4388
45781SOL    HW142028  10.154   8.139   8.494  0.6498 -0.0790 -1.0045
45781SOL    HW242029  10.073   8.264   8.520  0.4373 -0.4707  0.2985
45782SOL     OW42030   4.423   9.917   2.575  0.0130  0.6251 -0.0236
45782SOL    HW142031   4.361   9.910   2.648  0.6280 -2.1789  0.3300
45782SOL    HW242032   4.379   9.872   2.503 -0.4050  2.9971 -1.3685
45783SOL     OW42033  11.101   8.414   2.913  0.0348  0.6146  0.6695
45783SOL    HW142034  11.008   8.404   2.895  0.2655  0.5033 -0.5884
45783SOL    HW242035  11.126   8.330   2.953 -0.6473  1.1351  2.2673
45784SOL     OW42036   2.410   0.928   6.112 -0.1634  0.2114  0.0826
45784SOL    HW142037   2.425   0.851   6.167 -0.0074  0.7294  0.7834
45784SOL    HW242038   2.480   0.989   6.136  0.4709  0.0921 -1.3767
45785SOL     OW42039  10.634  10.404   0.006  0.3485 -0.3263 -0.2207
45785SOL    HW142040  10.645  10.492   0.043 -1.5182 -0.4996  0.8867
45785SOL    HW242041  10.707  10.353   0.043  1.5132  0.7467 -0.9560
45786SOL     OW42042   4.392   2.279   2.067  0.5675 -0.0481 -0.3198
45786SOL    HW142043   4.414   2.358   2.019 -0.4666  0.2642 -0.3081
45786SOL    HW242044   4.393   2.209   2.001  1.4668 -0.0406 -0.3317
45787SOL     OW42045   2.100  10.741   1.723 -0.0313  0.6401  0.0024
45787SOL    HW142046   2.045  10.684   1.670  0.5354 -0.2511  0.3558
45787SOL    HW242047   2.151  10.792   1.659 -1.2738  1.5061 -0.3239
45788SOL     OW42048   4.585   3.502   5.037  0.2934  0.6269  1.0415
45788SOL    HW142049   4.655   3.437   5.041 -0.4494 -0.5051 -1.5785
45788SOL    HW242050   4.515   3.458   4.987 -0.1745  3.4505 -1.0872
45789SOL     OW42051  10.055   2.819   9.988 -0.4795 -0.5273  0.6157
45789SOL    HW142052  10.140   2.797  10.027  0.3171  1.4581  0.1393
45789SOL    HW242053  10.077   2.847   9.898 -1.7781 -1.0387  0.1188
45790SOL     OW42054   3.681   9.156   9.718  0.2346 -0.0670 -0.2973
45790SOL    HW142055   3.641   9.202   9.645  0.0996  1.2326  0.5574
45790SOL    HW242056   3.742   9.220   9.755  0.2945 -0.6967  0.7164
45791SOL     OW42057   5.038   4.057   9.551 -0.3100 -0.4586  0.4343
45791SOL    HW142058   5.026   4.028   9.461  1.9792 -0.2281 -0.0002
45791SOL    HW242059   4.950   4.080   9.580 -1.3523 -2.0614 -1.1785
45792SOL     OW42060   3.550   9.385   1.246  0.3530 -0.7022  0.5941
45792SOL    HW142061   3.532   9.417   1.334 -1.5886  0.1240 -0.0381
45792SOL    HW242062   3.561   9.464   1.194  2.9256 -1.1830  0.3116
45793SOL     OW42063   3.373   2.437  11.048 -0.1397 -0.2310  0.3677
45793SOL    HW142064   3.334   2.471  11.128 -1.0583  0.2405 -0.2565
45793SOL    HW242065   3.303   2.445  10.982  0.3232 -1.3626 -0.2857
45794SOL     OW42066  10.134   0.168  11.492 -0.0659 -0.5167 -0.1846
45794SOL    HW142067  10.180   0.153  11.574 -2.3532  0.8317  1.4612
45794SOL    HW242068  10.050   0.123  11.502 -1.4604  1.7689 -0.6267
45795SOL     OW42069   8.113   2.221   5.176 -0.0256 -0.0650 -0.0769
45795SOL    HW142070   8.067   2.266   5.247  1.8599 -0.3201  1.3973
45795SOL    HW242071   8.076   2.133   5.174 -1.8258  0.6553 -1.1475
45796SOL     OW42072  11.851   7.348   2.167  0.4087 -0.0433 -0.1032
45796SOL    HW142073  11.828   7.259   2.140 -3.0794  0.0044  2.0031
45796SOL    HW242074  11.824   7.403   2.093 -0.8557 -0.5141 -0.0216
45797SOL     OW42075  10.357   0.640   7.101  0.4651 -0.4329  0.4448
45797SOL    HW142076  10.334   0.608   7.188 -0.8189  0.7918  0.5956
45797SOL    HW242077  10.340   0.566   7.043  0.2958 -0.9238  1.1015
45798SOL     OW42078   1.758   1.636   5.403 -0.2364  0.4976  0.0016
45798SOL    HW142079   1.751   1.573   5.474  0.4618  1.5720  1.0605
45798SOL    HW242080   1.676   1.685   5.406 -0.2916  0.4099 -0.0686
45799SOL     OW42081   1.187   2.248   4.605 -0.5631  0.2720 -0.4294
45799SOL    HW142082   1.106   2.241   4.655 -2.5291  0.7941 -3.3744
45799SOL    HW242083   1.209   2.158   4.583  0.2293  0.0500  1.0873
45800SOL     OW42084   3.295   6.455   1.723  0.0701 -0.2976 -0.1527
45800SOL    HW142085   3.223   6.471   1.663 -0.4215 -0.0087  0.4981
45800SOL    HW242086   3.330   6.542   1.743 -1.3899 -0.1076  1.9145
45801SOL     OW42087   3.008   0.927   8.224 -0.1838  0.1833  0.2326
45801SOL    HW142088   2.941   0.874   8.268 -1.3243 -0.9202 -2.6036
45801SOL    HW242089   2.961   1.004   8.193  0.6459  1.0430  1.0488
45802SOL     OW42090  11.883   4.881   6.509  0.2884 -0.5848 -0.1292
45802SOL    HW142091  11.852   4.940   6.440  0.4867 -1.3417 -0.8764
45802SOL    HW242092  11.804   4.847   6.549  0.1220  1.5592  1.5570
45803SOL     OW42093   2.362  11.398  11.609 -0.4935 -0.1133 -0.1328
45803SOL    HW142094   2.453  11.407  11.580 -0.2744  1.0152  0.8176
45803SOL    HW242095   2.318  11.354  11.537  0.7070 -0.2373 -0.8125
45804SOL     OW42096   0.238   5.731   3.513  0.7208  0.5774 -0.4260
45804SOL    HW142097   0.256   5.824   3.498  1.4138  0.6522  0.6753
45804SOL    HW242098   0.283   5.712   3.596 -0.1823 -0.5164 -0.1673
45805SOL     OW42099   4.069   3.178   5.702  0.3004  0.3987 -0.7405
45805SOL    HW142100   4.119   3.103   5.735 -0.8260 -1.1654 -2.3708
45805SOL    HW242101   4.131   3.223   5.645  1.0072  0.7688  0.2931
45806SOL     OW42102   3.083   2.203   9.077  0.0544 -0.2775  0.4775
45806SOL    HW142103   3.120   2.290   9.064  2.3627 -1.3105 -0.4668
45806SOL    HW242104   3.053   2.177   8.989 -0.7241 -0.4028  0.7755
45807SOL     OW42105   2.113   3.126  11.156  0.5409 -0.2214 -0.1256
45807SOL    HW142106   2.133   3.217  11.134  1.0387 -0.5929 -1.2942
45807SOL    HW242107   2.021   3.127  11.181  1.1083  0.9729  2.1220
45808SOL     OW42108   7.789  11.025   2.688 -0.0120 -0.3212  0.4776
45808SOL    HW142109   7.820  10.936   2.705 -1.0982 -0.5731  1.2857
45808SOL    HW242110   7.809  11.073   2.769  0.9742  0.3053 -0.1157
45809SOL     OW42111   3.912   8.103   1.574  0.2567 -0.1680 -0.5093
45809SOL    HW142112   4.001   8.139   1.573  0.1137  0.1898 -1.1129
45809SOL    HW242113   3.924   8.008   1.571  0.6119 -0.1117 -0.9616
45810SOL     OW42114  11.966   5.305  10.354  0.3777  0.0577  0.0418
45810SOL    HW142115  11.987   5.251  10.429 -0.1940  0.7772  0.7395
45810SOL    HW242116  12.049   5.345  10.328  0.6899 -0.6833 -0.1161
45811SOL     OW42117   5.257  11.144  10.774  0.3725 -0.1885 -0.3563
45811SOL    HW142118   5.176  11.144  10.824  0.3350 -0.9063 -0.4049
45811SOL    HW242119   5.272  11.236  10.753 -1.0303 -0.1504 -1.3242
45812SOL     OW42120   9.191  10.927   7.464 -0.5341 -0.1092  0.1394
45812SOL    HW142121   9.229  10.909   7.551  2.1083 -1.4678 -1.1732
45812SOL    HW242122   9.114  10.982   7.483 -0.0780 -0.3318  3.3148
45813SOL     OW42123   6.499   4.284  11.510  0.1356 -0.1405  0.0161
45813SOL    HW142124   6.511   4.191  11.527  2.3082 -0.0155 -0.4845
45813SOL    HW242125   6.536   4.297  11.423  2.7065  1.6227  1.2317
45814SOL     OW42126  11.425  11.564   6.185  0.0911  0.4791 -0.3633
45814SOL    HW142127  11.393  11.654   6.187 -0.8497  0.1759  1.9625
45814SOL    HW242128  11.517  11.571   6.213 -0.3393  0.6426  1.0960
45815SOL     OW42129  11.934   2.319   3.683 -0.0380 -0.3091  0.3744
45815SOL    HW142130  11.902   2.245   3.734 -0.6749 -0.3553 -0.0733
45815SOL    HW242131  11.893   2.396   3.724 -2.4001 -0.5223 -1.3838
45816SOL     OW42132   2.377   4.965   9.040 -0.4917 -0.3408  0.5003
45816SOL    HW142133   2.413   4.908   8.972 -1.2408  0.6430 -0.7636
45816SOL    HW242134   2.448   5.026   9.061 -1.0122  0.8975 -1.1887
45817SOL     OW42135   0.951  10.964  10.086 -0.2787  0.2012 -0.2377
45817SOL    HW142136   1.005  10.885  10.085 -0.2046  0.2359  0.6775
45817SOL    HW242137   0.912  10.966  10.173 -0.6079  0.9616 -0.3902
45818SOL     OW42138   7.519  11.464   5.309 -0.1412 -0.0062  0.5398
45818SOL    HW142139   7.441  11.411   5.290 -0.5168  0.8783 -0.5178
45818SOL    HW242140   7.583  11.401   5.341 -0.5730 -1.1289 -0.6808
45819SOL     OW42141   2.423  10.160  11.535  0.0387  0.3307 -0.5622
45819SOL    HW142142   2.458  10.088  11.483 -0.4235 -0.5290  0.2723
45819SOL    HW242143   2.330  10.161  11.514  0.1519  1.1397 -1.0736
45820SOL     OW42144   6.540   2.905   8.200  0.3183 -0.4287 -0.4123
45820SOL    HW142145   6.562   2.995   8.174 -2.2155 -0.6993 -4.0865
45820SOL    HW242146   6.463   2.915   8.256  0.2107 -0.3236 -0.5810
45821SOL     OW42147   5.278   1.800  11.777 -0.1191  0.3094  0.2522
45821SOL    HW142148   5.225   1.788  11.698 -0.2011 -0.3047  0.3988
45821SOL    HW242149   5.368   1.809  11.744  0.0129 -1.1565  0.1491
45822SOL     OW42150   3.064  11.744   6.220 -0.2702  0.4407 -0.7945
45822SOL    HW142151   3.103  11.794   6.148 -1.1287  0.3332 -1.3511
45822SOL    HW242152   2.979  11.786   6.234 -0.2861  0.1881 -0.1324
45823SOL     OW42153  11.177  11.390   5.766  0.5251  0.0294  0.0917
45823SOL    HW142154  11.089  11.404   5.800 -0.3329  1.2409 -2.3876
45823SOL    HW242155  11.233  11.445   5.821 -0.2768 -0.5081  1.4837
45824SOL     OW42156  11.566   0.597   6.270 -0.5504 -0.5092  0.1307
45824SOL    HW142157  11.641   0.601   6.330  0.1378  0.4444 -0.7697
45824SOL    HW242158  11.489   0.605   6.327 -0.0567 -2.6381  1.1931
45825SOL     OW42159   6.155   5.977   1.395  0.3644 -0.6408  0.4155
45825SOL    HW142160   6.226   5.916   1.414 -0.0996 -2.2108 -2.3662
45825SOL    HW242161   6.091   5.925   1.347 -0.5772  1.7736 -1.1186
45826SOL     OW42162   3.071  10.934   9.889  0.2290 -0.8619 -0.7535
45826SOL    HW142163   3.114  10.927   9.974  0.5816  1.1924 -0.6985
45826SOL    HW242164   2.985  10.972   9.908  0.8686  1.0113 -1.3915
45827SOL     OW42165   6.280   2.901   5.811  0.0284  0.3441  0.2774
45827SOL    HW142166   6.359   2.852   5.790  0.2313  0.8773 -0.2390
45827SOL    HW242167   6.247   2.861   5.891  1.6287  1.0652  1.3308
45828SOL     OW42168  11.600  11.945  11.332  0.3409 -0.1651  0.1035
45828SOL    HW142169  11.619  11.860  11.371  0.9568 -0.4566 -0.7814
45828SOL    HW242170  11.550  11.993  11.399  0.4002 -1.0426  0.7863
45829SOL     OW42171   5.506   9.618   0.015  0.2079 -0.5158 -0.2887
45829SOL    HW142172   5.473   9.544   0.067  0.6720 -0.3762  0.2189
45829SOL    HW242173   5.480   9.598  -0.075 -4.1718  1.0951  0.3454
45830SOL     OW42174   8.704   2.571   4.203  0.1531  0.4578 -0.4017
45830SOL    HW142175   8.673   2.481   4.213  0.0973  0.4742 -0.4266
45830SOL    HW242176   8.788   2.563   4.158  1.3881  0.2421  1.8037
45831SOL     OW42177   2.092   1.905   2.864 -0.5971  0.3224  0.0691
45831SOL    HW142178   2.169   1.878   2.913 -0.3063 -1.0189 -1.0689
45831SOL    HW242179   2.119   1.983   2.816  0.2193 -0.4029 -0.6831
45832SOL     OW42180   8.950   6.145   0.906  0.2786  0.2444 -0.1244
45832SOL    HW142181   8.958   6.237   0.932  1.3364  0.3243 -0.6795
45832SOL    HW242182   8.916   6.101   0.984  0.1544  1.0346  0.2823
45833SOL     OW42183  10.388  10.640   2.550  0.5002 -0.1828  0.3410
45833SOL    HW142184  10.400  10.727   2.588  2.3252 -0.7487  1.1663
45833SOL    HW242185  10.465  10.628   2.494  2.4131 -2.6667  3.1662
45834SOL     OW42186   0.040   4.083  11.115  0.2178  0.2354 -0.0264
45834SOL    HW142187   0.105   4.080  11.186  2.5461 -1.4322 -2.0475
45834SOL    HW242188  -0.028   4.021  11.142  1.4618 -0.9873  0.4483
45835SOL     OW42189   4.562   5.536   3.611  1.0349  0.4220 -0.4706
45835SOL    HW142190   4.637   5.506   3.663  1.0826  1.4549  0.0788
45835SOL    HW242191   4.551   5.468   3.545  1.1011 -0.8373  0.7529
45836SOL     OW42192   2.446  10.058   8.177 -1.1093 -0.3564  0.7056
45836SOL    HW142193   2.453  10.011   8.093 -0.8305  1.9165 -0.6343
45836SOL    HW242194   2.535  10.056   8.212 -1.0055 -0.4380  0.4425
45837SOL     OW42195  10.066   9.401   7.396 -0.0752 -0.0837  0.3083
45837SOL    HW142196  10.080   9.489   7.360 -0.6164 -0.1498 -0.0680
45837SOL    HW242197  10.088   9.342   7.323  2.2170 -0.3532  1.1297
45838SOL     OW42198   8.225   9.010   4.194  0.5794  0.8619  0.1141
45838SOL    HW142199   8.262   8.984   4.109  0.2650  1.5759 -0.2483
45838SOL    HW242200   8.130   9.009   4.181  0.5184  0.6635  0.5506
45839SOL     OW42201   3.331   6.425   4.765  0.0078 -0.8640  0.2781
45839SOL    HW142202   3.368   6.500   4.717 -0.9777 -0.3637  0.2787
45839SOL    HW242203   3.372   6.430   4.852 -1.0039  0.4495  0.7074
45840SOL     OW42204   5.426   1.525   1.258 -0.3188  0.3007 -0.2895
45840SOL    HW142205   5.406   1.431   1.252 -0.0155  0.1677  0.7129
45840SOL    HW242206   5.521   1.529   1.247 -0.3576  0.5205 -0.5616
45841SOL     OW42207   5.048  10.126  11.959  0.1977  0.2426 -0.2317
45841SOL    HW142208   5.043  10.117  12.054  0.3561 -0.5935 -0.2926
45841SOL    HW242209   5.133  10.089  11.936 -1.0157 -2.3189 -0.9608
45842SOL     OW42210   0.711   0.197   9.250 -0.3056 -0.0766  0.5669
45842SOL    HW142211   0.697   0.291   9.267 -0.0071  0.0348  0.1959
45842SOL    HW242212   0.738   0.193   9.159 -0.4563 -0.5430  0.5417
45843SOL     OW42213   3.721   7.219  11.731  0.1349 -0.8628  0.3896
45843SOL    HW142214   3.746   7.147  11.789 -0.1474 -0.4903  0.9846
45843SOL    HW242215   3.663   7.273  11.784  1.4823  0.5965  0.4265
45844SOL     OW42216   2.622   7.609   5.895 -0.3508  0.4581 -0.3601
45844SOL    HW142217   2.581   7.693   5.916  1.8075  1.6572 -0.6654
45844SOL    HW242218   2.584   7.584   5.811 -1.4452  0.8070  0.0168
45845SOL     OW42219   0.255   8.642   0.999 -0.0615 -0.3633 -0.1879
45845SOL    HW142220   0.269   8.659   1.092 -0.1198  0.6034 -0.3391
45845SOL    HW242221   0.168   8.679   0.981 -0.7720 -2.0136 -0.2833
45846SOL     OW42222   3.075   3.927  10.016 -0.0338  0.3804 -0.3604
45846SOL    HW142223   3.034   3.943   9.931 -3.5896 -0.5658  0.9860
45846SOL    HW242224   3.061   4.009  10.064 -0.0065  0.1787 -0.0062
45847SOL     OW42225   3.082   3.346   4.860 -0.4179 -0.2926 -0.2075
45847SOL    HW142226   3.011   3.374   4.802 -1.0821  0.5339  0.9691
45847SOL    HW242227   3.045   3.274   4.911 -0.2922 -0.1031  0.1540
45848SOL     OW42228   1.864   2.038   6.587 -0.0551  0.5815 -0.1438
45848SOL    HW142229   1.795   1.972   6.581  1.0265 -0.8093  1.5848
45848SOL    HW242230   1.848   2.083   6.670  0.7693  0.6310 -0.0010
45849SOL     OW42231   9.100  11.065   6.027 -0.1749  0.3578  0.6124
45849SOL    HW142232   9.130  11.059   5.936 -0.5349  1.0170  0.4460
45849SOL    HW242233   9.006  11.082   6.021 -0.7379 -2.1930  1.1426
45850SOL     OW42234   6.338   6.139   2.094  0.0138 -0.1162 -0.2683
45850SOL    HW142235   6.365   6.231   2.104 -0.1022 -0.1267  0.1450
45850SOL    HW242236   6.271   6.127   2.161 -0.0149 -0.4884 -0.3653
45851SOL     OW42237   7.056   7.562  10.811 -0.4270 -0.0659 -0.0269
45851SOL    HW142238   7.071   7.636  10.752 -1.1245  0.4900  0.4682
45851SOL    HW242239   7.117   7.494  10.781 -0.6091  0.2803 -1.2361
45852SOL     OW42240   6.012   4.347   7.442 -0.5701  0.1242 -0.4096
45852SOL    HW142241   6.009   4.256   7.412 -0.8063 -0.3880  1.0808
45852SOL    HW242242   5.958   4.348   7.521 -0.7644  1.6244 -0.5319
45853SOL     OW42243   5.629  11.225   5.781 -0.6297 -0.1903 -0.1133
45853SOL    HW142244   5.630  11.307   5.831  0.1278 -0.1656 -0.1597
45853SOL    HW242245   5.602  11.159   5.845 -0.1208 -0.0871  0.2097
45854SOL     OW42246  11.004   1.393   5.170 -0.0945  0.2420  0.4059
45854SOL    HW142247  11.054   1.380   5.089  2.1110  3.0377  1.1889
45854SOL    HW242248  11.070   1.399   5.239 -1.8428 -0.6663  2.2778
45855SOL     OW42249   8.748   8.726   0.812 -0.3319  0.0634 -0.4746
45855SOL    HW142250   8.695   8.778   0.873 -0.8832 -0.0760 -0.8230
45855SOL    HW242251   8.791   8.660   0.867 -2.1882 -1.1799 -0.4314
45856SOL     OW42252   2.849   8.859  11.921 -0.2221 -0.1192  0.3113
45856SOL    HW142253   2.843   8.775  11.968 -0.6468  0.1824  0.8046
45856SOL    HW242254   2.874   8.922  11.988  1.7263 -0.1127 -0.3696
45857SOL     OW42255   9.743  11.684   4.102  0.1017  0.5064 -0.7137
45857SOL    HW142256   9.780  11.597   4.088  1.5358  0.7978  0.9362
45857SOL    HW242257   9.784  11.739   4.036  1.1906  0.4348 -0.1154
45858SOL     OW42258   6.207   3.023   5.004 -0.0713 -0.0457  0.2996
45858SOL    HW142259   6.143   3.083   5.043  0.7104 -0.3108  2.0743
45858SOL    HW242260   6.261   3.078   4.948 -2.0934  0.1057 -1.6074
45859SOL     OW42261  10.587   1.352   9.372  0.4631 -0.1955  0.1085
45859SOL    HW142262  10.501   1.374   9.408 -1.4067 -1.7503 -2.9749
45859SOL    HW242263  10.590   1.257   9.373  1.7892 -0.1889 -0.6327
45860SOL     OW42264   1.935   6.198   6.533  0.1421 -0.0355 -0.4627
45860SOL    HW142265   1.947   6.220   6.441  0.1511  2.6030  0.0980
45860SOL    HW242266   2.016   6.226   6.575 -0.1729 -0.4789  0.4714
45861SOL     OW42267   6.696   8.746  10.364  0.1967 -0.7307  0.0729
45861SOL    HW142268   6.779   8.787  10.339 -0.2246 -0.1242 -0.3719
45861SOL    HW242269   6.713   8.652  10.358  0.0914 -0.6604 -2.7409
45862SOL     OW42270   9.890   2.409   4.821  0.8338  0.0860  0.3740
45862SOL    HW142271   9.959   2.344   4.809  0.1878 -0.4938 -0.3035
45862SOL    HW242272   9.851   2.388   4.906 -0.4777 -1.5041 -0.5784
45863SOL     OW42273   9.144   6.646  10.689 -0.3655  0.1957 -0.4898
45863SOL    HW142274   9.082   6.683  10.752 -1.1297  0.8043 -1.5537
45863SOL    HW242275   9.120   6.554  10.683 -1.5403  0.5222 -1.2487
45864SOL     OW42276   5.603   5.395   0.749 -0.3929 -0.3447  0.4358
45864SOL    HW142277   5.591   5.393   0.844 -2.4902 -0.5378  0.2170
45864SOL    HW242278   5.638   5.482   0.731 -0.1293 -0.2484  1.3645
45865SOL     OW42279   5.416  10.948   9.293 -0.1507 -0.6441 -0.0736
45865SOL    HW142280   5.324  10.938   9.318 -0.0381 -0.3909  0.4458
45865SOL    HW242281   5.435  10.870   9.241 -0.9286 -0.2433 -1.0050
45866SOL     OW42282   0.201   8.615   0.066 -0.4178 -0.4713  0.2152
45866SOL    HW142283   0.164   8.698   0.097  0.4326  0.5290 -1.3077
45866SOL    HW242284   0.179   8.613  -0.027 -0.0523 -1.7645  0.1373
45867SOL     OW42285   9.750   0.141   7.843 -0.1895  0.2396 -0.1077
45867SOL    HW142286   9.679   0.156   7.906 -0.1892 -1.7673  0.4221
45867SOL    HW242287   9.801   0.222   7.845 -1.1172  0.8338  1.2416
45868SOL     OW42288   3.832   9.694   6.675  0.3207 -0.2646  0.3327
45868SOL    HW142289   3.822   9.600   6.689 -2.4580 -0.2162 -0.8174
45868SOL    HW242290   3.865   9.726   6.759 -0.4266 -2.0335  1.3746
45869SOL     OW42291   5.300   5.126   9.859  0.1281  0.4071  0.1378
45869SOL    HW142292   5.347   5.138   9.942  0.3744 -0.3764  0.1157
45869SOL    HW242293   5.209   5.109   9.886  0.9154 -4.7557  0.6445
45870SOL     OW42294   3.663   0.729   5.581  0.0400 -0.6470  0.0014
45870SOL    HW142295   3.751   0.691   5.590 -0.7002 -2.7805 -1.1387
45870SOL    HW242296   3.678   0.814   5.539  1.7785  0.5241  2.7136
45871SOL     OW42297  10.398   6.539   2.605 -0.1907 -0.0345 -0.2387
45871SOL    HW142298  10.416   6.447   2.625 -1.3472 -0.1990  0.1179
45871SOL    HW242299  10.458   6.588   2.662 -1.1534 -0.5533  1.2961
45872SOL     OW42300   1.781   6.858  10.716 -0.5370  0.2047 -0.3420
45872SOL    HW142301   1.739   6.780  10.751 -2.0849  1.4806  0.8058
45872SOL    HW242302   1.751   6.863  10.625 -2.3975  0.6912  0.2482
45873SOL     OW42303   5.649   2.974   1.365 -0.1065 -0.4441 -0.1571
45873SOL    HW142304   5.571   2.937   1.325  1.0089 -2.5242 -0.5354
45873SOL    HW242305   5.721   2.919   1.334  1.8005  2.3535 -1.1440
45874SOL     OW42306   7.888   7.443   0.158  0.1636 -0.5626 -0.0523
45874SOL    HW142307   7.869   7.433   0.251 -0.3868  0.0169 -0.0980
45874SOL    HW242308   7.970   7.491   0.156 -0.9533  1.4340  0.1475
45875SOL     OW42309  11.687   1.719   8.783 -0.1853  0.0141  0.0565
45875SOL    HW142310  11.611   1.704   8.727 -1.2875 -0.8312  1.7002
45875SOL    HW242311  11.743   1.642   8.768 -0.2395  0.0273 -0.2244
45876SOL     OW42312   0.805   9.211  10.715  0.1749  0.5226 -0.1510
45876SOL    HW142313   0.889   9.253  10.698  0.1065  0.7602  0.0848
45876SOL    HW242314   0.770   9.257  10.792  0.1264 -0.0079  0.1518
45877SOL     OW42315   9.376   6.790   0.259  0.4802 -0.3267  0.1840
45877SOL    HW142316   9.467   6.805   0.234  0.6239  0.8512  1.3252
45877SOL    HW242317   9.381   6.717   0.322  0.6996  0.0615  0.6215
45878SOL     OW42318   6.172  10.386   2.868  0.4802  0.1043 -0.1988
45878SOL    HW142319   6.136  10.460   2.820  0.9141 -1.3697 -2.9956
45878SOL    HW242320   6.265  10.386   2.846  0.4873 -1.2460 -0.2863
45879SOL     OW42321   0.693   7.371   6.363  0.5960  0.3442 -0.4461
45879SOL    HW142322   0.669   7.341   6.275  2.3029 -0.7316 -0.5828
45879SOL    HW242323   0.736   7.456   6.348 -1.0130  1.2202 -0.3967
45880SOL     OW42324   7.471  11.288   0.047 -0.3842  0.1967 -0.3144
45880SOL    HW142325   7.403  11.254  -0.011  0.9444 -0.4255 -1.5690
45880SOL    HW242326   7.534  11.216   0.055  0.5367  1.0311  0.1568
45881SOL     OW42327   8.679   3.789   1.571  0.2122  0.1204  0.6024
45881SOL    HW142328   8.653   3.867   1.621 -0.8477  0.4699 -0.4372
45881SOL    HW242329   8.609   3.726   1.587 -0.4446  0.4384 -0.8427
45882SOL     OW42330   0.962   0.817  11.029  0.0206  0.8968  0.0854
45882SOL    HW142331   0.994   0.849  10.944  1.4606  0.5159  0.4520
45882SOL    HW242332   0.980   0.723  11.027  1.3199  1.0826  1.3106
45883SOL     OW42333   4.574   2.500   2.721 -0.9003  0.5556  0.2031
45883SOL    HW142334   4.522   2.443   2.778  0.6308  0.0102  1.1153
45883SOL    HW242335   4.610   2.441   2.654  0.4351  0.4757  0.9656
45884SOL     OW42336   4.441   7.152   2.623 -0.0530  0.3513 -0.2109
45884SOL    HW142337   4.471   7.105   2.545  0.1930 -2.7298  1.5913
45884SOL    HW242338   4.512   7.141   2.686 -1.2892  0.6340  1.2713
45885SOL     OW42339  11.883   4.074   5.686  0.0831 -0.4929 -0.8006
45885SOL    HW142340  11.828   4.117   5.621 -0.9553  0.3865  0.6036
45885SOL    HW242341  11.840   3.991   5.703  0.7273 -1.0215 -1.7105
45886SOL     OW42342  11.678  11.416   1.565 -0.3887  0.2066  0.1076
45886SOL    HW142343  11.704  11.325   1.574 -0.7225 -0.1670 -2.1100
45886SOL    HW242344  11.681  11.451   1.654  0.3293 -1.7886  0.9205
45887SOL     OW42345  11.023   6.427   6.384 -0.3331 -0.7133 -0.8162
45887SOL    HW142346  11.030   6.483   6.306  0.6826  0.2478 -0.0636
45887SOL    HW242347  10.981   6.483   6.449  0.7106 -0.8005 -0.0509
45888SOL     OW42348   2.040   9.643   6.213  0.2097 -0.0803  0.8818
45888SOL    HW142349   2.120   9.652   6.161 -0.0295  0.3223  0.5823
45888SOL    HW242350   2.048   9.556   6.253  0.7540 -0.0802  0.7845
45889SOL     OW42351  11.693  11.476   3.279  0.0855  0.5709  0.4970
45889SOL    HW142352  11.620  11.537   3.285 -0.8784 -0.4874 -0.1444
45889SOL    HW242353  11.694  11.448   3.188  0.6448 -0.2186  0.7342
45890SOL     OW42354   7.965   0.077   4.200 -0.3569  0.2905  0.0524
45890SOL    HW142355   7.951   0.031   4.118  0.1494  0.8498 -0.3613
45890SOL    HW242356   7.899   0.147   4.200  1.3272  2.0032 -1.2015
45891SOL     OW42357   7.071  10.402   6.786 -0.8784  0.2150 -0.5203
45891SOL    HW142358   7.139  10.445   6.837  0.9121 -2.4853 -0.4754
45891SOL    HW242359   7.023  10.474   6.745  2.3964  2.2618 -1.0911
45892SOL     OW42360   6.422  10.744   7.513  0.0508  0.4629 -0.3339
45892SOL    HW142361   6.467  10.677   7.566 -0.5247  1.6600  1.7821
45892SOL    HW242362   6.329  10.724   7.522 -0.1629  1.7502  0.7166
45893SOL     OW42363   6.947  11.735   6.902 -0.0994  0.0514  0.2856
45893SOL    HW142364   6.897  11.767   6.977 -0.3733 -2.0152  1.0479
45893SOL    HW242365   7.031  11.781   6.907  0.3086 -0.8457  2.5468
45894SOL     OW42366   9.478   8.707  10.985 -0.0952 -0.4656  0.2716
45894SOL    HW142367   9.433   8.654  11.051  0.1405 -3.3180 -1.6636
45894SOL    HW242368   9.486   8.649  10.909  2.8327  1.4080 -1.0508
45895SOL     OW42369   4.281   5.004   7.200  0.0709 -0.2009  0.6616
45895SOL    HW142370   4.309   4.918   7.233 -2.3344 -2.0400 -1.6420
45895SOL    HW242371   4.277   5.059   7.278  3.8361 -1.3962  1.9606
45896SOL     OW42372   2.502   1.613   8.303  0.1317  0.0372 -0.5501
45896SOL    HW142373   2.522   1.687   8.246  0.0061  0.3476 -0.1981
45896SOL    HW242374   2.482   1.653   8.388  0.1222 -0.4042 -0.3411
45897SOL     OW42375   5.828   2.997  11.379 -0.1707 -0.0482  0.2350
45897SOL    HW142376   5.769   2.998  11.304  2.0335 -3.4215 -1.7876
45897SOL    HW242377   5.778   2.952  11.448 -0.8775 -0.4853 -0.5437
45898SOL     OW42378   6.276   7.332   4.786 -0.0991 -0.2268  0.4088
45898SOL    HW142379   6.190   7.298   4.761  0.9781 -2.4854 -0.5065
45898SOL    HW242380   6.307   7.271   4.853  1.9448 -1.2235 -1.3287
45899SOL     OW42381   9.335   5.533   8.040  0.1552  0.1525 -0.1321
45899SOL    HW142382   9.296   5.466   7.983  0.0690 -1.1036  1.3343
45899SOL    HW242383   9.373   5.596   7.979  0.7258 -1.5029 -1.6059
45900SOL     OW42384   4.312   3.424   5.626 -0.0645  0.2785 -0.2225
45900SOL    HW142385   4.311   3.421   5.721  2.3323  0.8801 -0.1065
45900SOL    HW242386   4.316   3.333   5.598  0.3839  0.1283  0.3183
45901SOL     OW42387  11.146  10.772   7.849  0.7329 -0.0085 -0.6692
45901SOL    HW142388  11.119  10.786   7.758 -1.9224  3.1743  0.4438
45901SOL    HW242389  11.112  10.685   7.870 -2.5340  0.8887 -1.5845
45902SOL     OW42390   1.145   1.434   3.082 -1.1876  0.0295 -0.3059
45902SOL    HW142391   1.236   1.407   3.081 -1.1750  0.0736 -0.7211
45902SOL    HW242392   1.143   1.513   3.028 -1.6270 -0.5019 -1.0898
45903SOL     OW42393   4.365   9.980   8.235  0.1246  0.1736  0.0539
45903SOL    HW142394   4.409  10.059   8.264 -0.9690  0.6651  0.4401
45903SOL    HW242395   4.394   9.912   8.295  2.0946 -0.0472 -1.0725
45904SOL     OW42396   2.554   0.769   9.677 -0.3190 -0.1632 -0.0806
45904SOL    HW142397   2.575   0.793   9.587  0.4072  0.7399  0.3181
45904SOL    HW242398   2.575   0.847   9.728  0.3356 -1.0287  1.0179
45905SOL     OW42399   8.447  11.305   5.487  0.5757 -0.0788 -0.1675
45905SOL    HW142400   8.434  11.303   5.392 -0.3155 -2.2558 -0.0577
45905SOL    HW242401   8.483  11.392   5.504  1.4070  0.1283 -2.5666
45906SOL     OW42402  10.533   2.877   8.762  0.8069 -0.0140  0.3143
45906SOL    HW142403  10.486   2.944   8.812  0.2510  0.4172 -0.7751
45906SOL    HW242404  10.560   2.921   8.682  1.7486 -0.6924  0.2419
45907SOL     OW42405   9.268   8.758   8.171 -0.3654  0.3304  0.3225
45907SOL    HW142406   9.182   8.797   8.190  0.2347  1.0903  1.6421
45907SOL    HW242407   9.331   8.824   8.200  0.7055  0.4355 -2.0178
45908SOL     OW42408   1.197   0.199   0.851  0.5105 -0.0893  0.1178
45908SOL    HW142409   1.222   0.282   0.811 -3.3720  0.9042 -0.7339
45908SOL    HW242410   1.195   0.217   0.945  0.9484  0.3920  0.0387
45909SOL     OW42411   7.575   2.372   0.077 -0.6455 -0.2245  0.1416
45909SOL    HW142412   7.541   2.294   0.034 -0.9959 -0.5853  1.0414
45909SOL    HW242413   7.502   2.403   0.131  0.6120 -1.4746  2.7487
45910SOL     OW42414   8.538   2.513   3.509 -0.1485 -0.2048  0.3419
45910SOL    HW142415   8.462   2.565   3.536  0.9031  2.5438 -1.5478
45910SOL    HW242416   8.517   2.484   3.421  1.7110  2.5075 -1.1392
45911SOL     OW42417  10.595   2.419   6.398 -0.1624  0.3347 -0.0285
45911SOL    HW142418  10.630   2.447   6.482 -1.0259 -0.3471  0.5723
45911SOL    HW242419  10.616   2.326   6.393 -1.8587 -0.0977  0.3558
45912SOL     OW42420   6.965   4.204   0.586  0.4355 -0.0224 -0.5116
45912SOL    HW142421   6.964   4.142   0.513 -1.9003 -0.5576 -0.1120
45912SOL    HW242422   6.893   4.265   0.567  0.0576  0.0814  1.0979
45913SOL     OW42423  11.220  11.413   1.510 -0.8341  0.1133  0.4536
45913SOL    HW142424  11.184  11.367   1.434 -2.7744 -0.8999  1.9128
45913SOL    HW242425  11.310  11.381   1.518 -0.1690  1.1118 -2.0393
45914SOL     OW42426   3.885   0.759   2.780  0.2872 -0.3054  0.2409
45914SOL    HW142427   3.870   0.818   2.853  0.9835  1.4886 -1.0082
45914SOL    HW242428   3.979   0.745   2.778  0.3473  0.1370 -0.6524
45915SOL     OW42429   9.683   7.632  11.379 -0.4333 -0.2140  0.7145
45915SOL    HW142430   9.728   7.671  11.304 -1.2745 -0.8937 -0.1746
45915SOL    HW242431   9.611   7.692  11.398 -1.4389 -1.0461 -0.3456
45916SOL     OW42432  10.534  11.811  10.865  0.5149 -0.0894  0.5480
45916SOL    HW142433  10.532  11.717  10.848 -2.0607 -0.3076  1.5724
45916SOL    HW242434  10.572  11.819  10.952  0.0588 -0.2478  0.7618
45917SOL     OW42435   3.800  11.349   8.405 -0.2649 -0.3651 -0.0144
45917SOL    HW142436   3.770  11.306   8.324  0.8584  1.7175 -1.6269
45917SOL    HW242437   3.720  11.383   8.445 -0.6714  0.1301 -1.2039
45918SOL     OW42438   2.372  10.739   6.123  0.1345 -0.2006 -0.3487
45918SOL    HW142439   2.433  10.780   6.185 -0.7321  0.3142  0.1975
45918SOL    HW242440   2.421  10.666   6.085  0.5462 -0.8427  1.3171
45919SOL     OW42441   1.588  10.017   9.404  0.7678 -0.3555  0.4841
45919SOL    HW142442   1.646  10.078   9.450 -1.3371  1.3253  1.0408
45919SOL    HW242443   1.577   9.944   9.465 -1.6224  1.6371  2.5963
45920SOL     OW42444   3.023   1.519  11.994  0.0602  0.4597 -0.2571
45920SOL    HW142445   3.078   1.583  12.040 -2.0488  1.6399  0.7692
45920SOL    HW242446   2.995   1.564  11.914 -0.1332  0.2242 -0.3240
45921SOL     OW42447   9.412   9.269   7.097 -0.1944 -0.6428 -0.1313
45921SOL    HW142448   9.464   9.328   7.152 -0.9801  2.3464 -2.3495
45921SOL    HW242449   9.476   9.223   7.043  0.3155  1.6958 -1.6155
45922SOL     OW42450   8.640   4.704   6.177 -0.3636  0.0344  0.4277
45922SOL    HW142451   8.584   4.627   6.164 -3.2973  2.3342 -1.7547
45922SOL    HW242452   8.679   4.720   6.092  2.3668 -0.4132  1.4851
45923SOL     OW42453   7.627  10.614  11.592 -0.0102 -0.2449 -0.7185
45923SOL    HW142454   7.555  10.586  11.649  0.3754  0.7173  0.2731
45923SOL    HW242455   7.686  10.663  11.650  1.5136 -1.1041 -1.4724
45924SOL     OW42456  11.130   6.306   8.568  0.1559  0.1298  0.2702
45924SOL    HW142457  11.166   6.284   8.654 -1.1787 -0.4372  0.7145
45924SOL    HW242458  11.131   6.401   8.565  0.8978  0.1367  0.6095
45925SOL     OW42459   4.664   3.045   5.220 -0.3035  0.7922  0.0607
45925SOL    HW142460   4.649   2.983   5.149  0.7502  1.2711 -0.5992
45925SOL    HW242461   4.577   3.062   5.256 -1.0315  1.4546 -1.8765
45926SOL     OW42462   8.139  10.126   0.081  0.5113  0.0842  0.0497
45926SOL    HW142463   8.133  10.071   0.003 -1.7920  0.3585 -0.0367
45926SOL    HW242464   8.119  10.214   0.050 -1.7847  0.0024  1.0885
45927SOL     OW42465   6.475   6.325  11.859 -0.3118  0.1888 -0.0275
45927SOL    HW142466   6.530   6.404  11.852  0.3563 -0.2248  0.4814
45927SOL    HW242467   6.411   6.335  11.788  0.1511  0.8866 -0.3651
45928SOL     OW42468   0.253   4.973   5.548 -0.3263  0.4729 -0.1409
45928SOL    HW142469   0.178   4.987   5.490  0.6982  1.4661 -1.2792
45928SOL    HW242470   0.238   5.032   5.621 -2.3945 -1.8487  1.5011
45929SOL     OW42471   5.825   9.465   2.123  0.3045 -0.6459 -0.4633
45929SOL    HW142472   5.812   9.555   2.154  0.9936  1.0709 -4.4516
45929SOL    HW242473   5.737   9.433   2.102 -0.1197 -1.6687  2.4489
45930SOL     OW42474   0.924   8.378   2.075 -0.3004  0.1993  0.1599
45930SOL    HW142475   0.843   8.368   2.024 -0.7236 -0.1424  0.8792
45930SOL    HW242476   0.994   8.362   2.013 -0.7179  2.0859 -0.8832
45931SOL     OW42477   0.759  10.406   1.010  0.6303  0.3955 -0.3341
45931SOL    HW142478   0.776  10.358   1.091  0.0167 -1.0433 -1.0109
45931SOL    HW242479   0.770  10.498   1.033  1.5309 -0.0436  1.1089
45932SOL     OW42480   7.696   7.698   0.180 -0.3250 -0.1123 -0.5968
45932SOL    HW142481   7.604   7.685   0.159 -0.6251  1.9025 -0.7716
45932SOL    HW242482   7.742   7.625   0.139 -1.7203 -0.4992 -1.5153
45933SOL     OW42483   8.812   4.695   8.998 -0.1622  0.5504  0.4579
45933SOL    HW142484   8.737   4.749   8.973 -0.3078 -0.0762 -0.5369
45933SOL    HW242485   8.779   4.642   9.071  0.1725  2.2007  1.8521
45934SOL     OW42486   6.515   6.807   8.383 -0.7999 -0.1021 -0.4767
45934SOL    HW142487   6.436   6.755   8.370 -1.7326  1.0970  0.3006
45934SOL    HW242488   6.560   6.763   8.456  0.0316 -1.6371 -1.8351
45935SOL     OW42489   2.258   0.797   4.829 -0.3258  0.0904  0.3542
45935SOL    HW142490   2.322   0.860   4.794 -1.5599  1.5450  0.6279
45935SOL    HW242491   2.219   0.757   4.751  0.8491 -0.7998  0.1813
45936SOL     OW42492   1.404   4.381  10.803  0.1101  0.1122  0.1014
45936SOL    HW142493   1.446   4.353  10.721  1.1112  0.0183  0.6383
45936SOL    HW242494   1.331   4.436  10.774  0.9861  0.8129 -0.8420
45937SOL     OW42495   0.167   6.663   7.320  0.1687  0.0347  0.2088
45937SOL    HW142496   0.166   6.725   7.393  0.2785 -1.2500  1.3337
45937SOL    HW242497   0.240   6.604   7.339  1.4739  0.8098 -1.9609
45938SOL     OW42498   5.935   7.453  11.935 -0.1758 -0.7004 -0.2877
45938SOL    HW142499   5.982   7.388  11.988 -2.0214 -0.6815  1.4959
45938SOL    HW242500   5.887   7.401  11.871 -0.5277 -1.0067  0.2166
45939SOL     OW42501  11.260  11.482  11.544  0.0435 -0.3410 -0.2424
45939SOL    HW142502  11.213  11.510  11.622 -0.9025 -0.9646 -0.5729
45939SOL    HW242503  11.343  11.448  11.577  0.5737  1.3872  0.2851
45940SOL     OW42504  10.237   6.856   0.133  0.2064 -0.4858 -0.7802
45940SOL    HW142505  10.227   6.916   0.207 -0.4075  0.1379 -1.3467
45940SOL    HW242506  10.179   6.892   0.066  1.7981 -0.2382 -2.0823
45941SOL     OW42507   0.200   3.929   0.919  1.0718  0.4746  0.1817
45941SOL    HW142508   0.248   3.874   0.981 -0.2990 -0.1296  0.7443
45941SOL    HW242509   0.169   3.869   0.852  0.6778  0.7698  0.0981
45942SOL     OW42510   2.424   8.506   5.381 -0.1177 -0.0237  0.0454
45942SOL    HW142511   2.394   8.448   5.452  0.0193 -0.9252 -0.6141
45942SOL    HW242512   2.351   8.566   5.366 -0.6758 -0.6993  0.0335
45943SOL     OW42513   6.594   4.216   1.131 -0.1924 -0.0603  0.1706
45943SOL    HW142514   6.573   4.307   1.150  0.7470  0.4816 -1.2333
45943SOL    HW242515   6.629   4.181   1.214 -1.4737  0.5334  0.9964
45944SOL     OW42516   3.364   6.864   9.363 -0.3144  0.4891 -0.4794
45944SOL    HW142517   3.342   6.771   9.371  2.2967 -0.0860  1.8573
45944SOL    HW242518   3.339   6.901   9.448 -2.0912  2.2017 -1.6675
45945SOL     OW42519  10.474   2.265   1.762 -0.0765  0.0014 -0.6021
45945SOL    HW142520  10.474   2.230   1.673 -0.5749  2.0744 -1.4691
45945SOL    HW242521  10.398   2.225   1.804 -0.2095 -0.4944 -1.2964
45946SOL     OW42522   0.444   4.884   4.685  0.6310 -0.3079  0.2749
45946SOL    HW142523   0.460   4.829   4.609  1.0683 -0.4212  0.4457
45946SOL    HW242524   0.386   4.832   4.741  0.7394 -0.4422  0.2626
45947SOL     OW42525   2.647   6.409   5.794 -0.4912  0.5398  0.7506
45947SOL    HW142526   2.567   6.386   5.747  0.2366 -1.1116  0.2178
45947SOL    HW242527   2.662   6.501   5.774 -0.6382  0.1040 -1.6662
45948SOL     OW42528  10.503  10.189   3.104  0.4671 -0.7459 -0.2325
45948SOL    HW142529  10.528  10.099   3.123 -0.4273 -0.7403  1.0515
45948SOL    HW242530  10.480  10.188   3.011  1.7841 -1.5162 -0.5832
45949SOL     OW42531   0.929   4.134   7.055  0.3125 -0.7423 -0.3212
45949SOL    HW142532   0.907   4.047   7.021  0.3207 -0.3692 -1.3219
45949SOL    HW242533   0.963   4.181   6.979 -0.1588  0.3035  0.1018
45950SOL     OW42534   3.541   8.640   9.078 -0.4122 -0.4095 -0.0327
45950SOL    HW142535   3.446   8.649   9.084 -0.5209 -1.3037 -0.2568
45950SOL    HW242536   3.574   8.669   9.163 -0.7407  1.4851 -0.5045
45951SOL     OW42537   3.327   5.659   1.275 -0.4065 -0.2506  0.7513
45951SOL    HW142538   3.265   5.643   1.203 -0.0821 -0.2912  0.4797
45951SOL    HW242539   3.372   5.575   1.286  1.2725  0.3987 -0.6458
45952SOL     OW42540   5.288   4.248   9.985 -0.0831 -0.2343 -0.4297
45952SOL    HW142541   5.341   4.203   9.919  2.2953  0.2132  1.0319
45952SOL    HW242542   5.279   4.337   9.952  0.9205 -0.0671 -0.2983
45953SOL     OW42543   9.549   3.406   6.235  0.4182 -0.0560  0.0884
45953SOL    HW142544   9.600   3.415   6.316 -0.3685  2.2849  0.3824
45953SOL    HW242545   9.481   3.342   6.256  0.1197  0.6597  1.3418
45954SOL     OW42546   9.027  10.110   8.105  0.0726 -0.9356  0.1524
45954SOL    HW142547   9.096  10.127   8.169  0.1931 -0.4302 -0.1094
45954SOL    HW242548   8.945  10.117   8.154  0.1641 -0.5401  0.2463
45955SOL     OW42549   4.135   2.285  11.308  1.2241 -0.0249  0.1487
45955SOL    HW142550   4.183   2.214  11.352  1.3657  0.2369  0.4172
45955SOL    HW242551   4.127   2.255  11.218  0.6721 -0.7051  0.4111
45956SOL     OW42552   6.058   8.665  10.024  0.4448 -0.0296 -0.3195
45956SOL    HW142553   6.064   8.755  10.057 -0.9430  0.4576 -1.3239
45956SOL    HW242554   6.137   8.653   9.971  0.1386  0.9608 -1.0122
45957SOL     OW42555   5.784   7.886   5.288  0.5676  0.0405  0.0054
45957SOL    HW142556   5.857   7.838   5.250  1.0412  0.9096 -0.2095
45957SOL    HW242557   5.803   7.890   5.382  1.0044  0.5963 -0.1002
45958SOL     OW42558   8.481   4.232   3.527  0.0528  0.3836  0.0514
45958SOL    HW142559   8.492   4.178   3.606  2.6163 -1.9503 -1.7343
45958SOL    HW242560   8.567   4.270   3.513 -0.8589  2.2813 -0.6613
45959SOL     OW42561  11.208   5.718   1.934  0.1298 -0.3552  0.2778
45959SOL    HW142562  11.217   5.634   1.979 -0.3990  0.2758  1.6031
45959SOL    HW242563  11.201   5.782   2.005 -4.0196  0.3781 -0.5704
45960SOL     OW42564   3.724   5.600   8.018 -0.0404  0.2703  0.7503
45960SOL    HW142565   3.710   5.515   8.060  1.2916 -0.8256 -0.9017
45960SOL    HW242566   3.641   5.618   7.973  0.8920 -2.2640 -2.3488
45961SOL     OW42567   6.913  11.986   8.298  0.3198 -0.9475  0.6067
45961SOL    HW142568   6.832  12.034   8.277  0.2488 -1.7937 -1.1968
45961SOL    HW242569   6.885  11.895   8.305  0.8599 -1.0454  1.6699
45962SOL     OW42570   4.936   7.821  10.644 -0.4227  0.4619 -0.3847
45962SOL    HW142571   4.964   7.800  10.733  1.4115 -0.0305 -1.0257
45962SOL    HW242572   4.955   7.914  10.634  1.8256 -0.0028 -1.0337
45963SOL     OW42573   8.050   1.412   7.447  0.3431  0.0647  0.1832
45963SOL    HW142574   7.990   1.487   7.447  2.1558  1.6225 -1.1148
45963SOL    HW242575   8.088   1.412   7.535  1.3818  1.6428 -0.2200
45964SOL     OW42576   9.263  10.185   3.664 -0.4433  0.0744 -0.4631
45964SOL    HW142577   9.190  10.220   3.715 -0.7193  0.7201 -1.2683
45964SOL    HW242578   9.222  10.132   3.596 -0.0670 -1.0198  0.1483
45965SOL     OW42579  10.889   0.529   7.327  0.1024  0.3502  0.7312
45965SOL    HW142580  10.803   0.539   7.286  0.3612 -1.6859 -0.4108
45965SOL    HW242581  10.949   0.515   7.254  1.1073 -0.1600  1.6250
45966SOL     OW42582   2.983   3.168   0.907 -0.4042 -0.0911 -0.2438
45966SOL    HW142583   2.958   3.143   0.818 -2.3876  1.3114 -0.1507
45966SOL    HW242584   2.989   3.264   0.904 -2.3837  0.1569  1.5264
45967SOL     OW42585   6.760   2.956  11.972  0.3167  0.2225 -0.1317
45967SOL    HW142586   6.821   2.936  11.901 -2.0511  1.1108 -2.5542
45967SOL    HW242587   6.762   3.051  11.979  1.2448  0.1213  1.7897
45968SOL     OW42588  10.103   4.455   6.017  0.2381  0.0563  0.0740
45968SOL    HW142589  10.019   4.500   6.012 -0.1680 -0.6796  0.0985
45968SOL    HW242590  10.163   4.512   5.969 -0.2141  0.7129  0.2659
45969SOL     OW42591   5.417   0.021   3.558  0.1104 -0.2381  0.4149
45969SOL    HW142592   5.367  -0.060   3.549  0.1085 -0.3623  1.4003
45969SOL    HW242593   5.366   0.073   3.620  0.6782  0.0531  0.6438
45970SOL     OW42594   3.363   8.732   9.301  0.3492 -0.1018 -0.9071
45970SOL    HW142595   3.410   8.733   9.384  1.9085  0.2313 -1.7499
45970SOL    HW242596   3.360   8.824   9.274 -0.4547 -0.1683 -1.0631
45971SOL     OW42597   8.344   8.235   9.157  0.2774 -0.7843  0.2645
45971SOL    HW142598   8.340   8.331   9.160 -1.1869 -0.7863 -0.6328
45971SOL    HW242599   8.342   8.208   9.249  1.5323  0.0330  0.5679
45972SOL     OW42600   3.071  10.088   6.861 -0.5848 -0.2095 -0.2459
45972SOL    HW142601   3.052  10.178   6.888  0.8836 -0.1576  0.7063
45972SOL    HW242602   3.084  10.094   6.766 -0.4560  0.5908 -0.1868
45973SOL     OW42603   0.805   9.512   8.224 -0.6393 -0.2298  0.6826
45973SOL    HW142604   0.727   9.464   8.249 -1.8513  1.6514  0.7550
45973SOL    HW242605   0.780   9.560   8.146  1.3550 -1.7043 -0.9738
45974SOL     OW42606  10.913   2.325   8.674 -0.4396  0.2067  0.4394
45974SOL    HW142607  10.866   2.316   8.592  0.3461  1.0701 -0.1250
45974SOL    HW242608  11.003   2.302   8.653 -0.6011 -1.6148  1.5468
45975SOL     OW42609   7.737  10.199   2.791  0.2575  0.2042 -0.3786
45975SOL    HW142610   7.676  10.135   2.827  0.3194 -0.0766 -0.7664
45975SOL    HW242611   7.774  10.243   2.868  0.9762 -0.9243 -0.0518
45976SOL     OW42612   8.854  10.842  11.559 -0.7552  0.4869 -0.5245
45976SOL    HW142613   8.922  10.778  11.580 -2.6220 -1.9484 -1.4668
45976SOL    HW242614   8.811  10.859  11.643  0.1863  1.0962 -0.1477
45977SOL     OW42615  11.121   9.468   3.167  0.0332 -0.5950 -0.4111
45977SOL    HW142616  11.113   9.561   3.186  1.0992 -0.7974  1.2780
45977SOL    HW242617  11.077   9.456   3.083 -1.0564  1.2256 -0.1368
45978SOL     OW42618   6.578  11.792   3.228  0.0493 -0.1445 -0.1022
45978SOL    HW142619   6.529  11.807   3.309  0.1263 -1.6994  0.2460
45978SOL    HW242620   6.670  11.803   3.253 -0.0270  2.2230 -0.6372
45979SOL     OW42621   1.329  11.324   2.062  0.2653 -0.0097 -0.5657
45979SOL    HW142622   1.308  11.341   1.970  0.9463  1.6253 -0.4584
45979SOL    HW242623   1.245  11.307   2.103 -0.2331  0.7785 -1.2211
45980SOL     OW42624   7.903   9.747   9.651 -0.1221  0.2684  0.1199
45980SOL    HW142625   7.886   9.805   9.725 -1.6919  0.1488 -0.1041
45980SOL    HW242626   7.843   9.777   9.583 -0.1331 -0.8853 -0.4030
45981SOL     OW42627   3.280   4.072   1.691  0.2002 -0.0633 -0.0391
45981SOL    HW142628   3.264   4.010   1.620 -1.4188  0.1440  0.1144
45981SOL    HW242629   3.357   4.038   1.735 -0.6492 -1.9847  0.0445
45982SOL     OW42630   4.786   5.378   7.301 -0.0192 -0.1679  0.1768
45982SOL    HW142631   4.751   5.438   7.235  0.3606 -0.8746 -0.6745
45982SOL    HW242632   4.871   5.416   7.325 -0.8947  1.0429  1.5708
45983SOL     OW42633   8.970   4.443   7.785 -0.5776 -0.0631  0.2451
45983SOL    HW142634   8.907   4.510   7.811 -0.1234  0.2680  0.5273
45983SOL    HW242635   8.991   4.397   7.867  0.9846  1.0912  0.5523
45984SOL     OW42636   3.922   9.063  11.135 -0.1221  0.5812 -0.2702
45984SOL    HW142637   3.898   9.004  11.064 -1.4425  1.2457 -0.4000
45984SOL    HW242638   3.848   9.123  11.143 -0.0564  0.4840  1.7137
45985SOL     OW42639   9.090   4.925   4.014  0.0777  0.4286  0.4867
45985SOL    HW142640   9.091   5.009   3.969 -0.1009 -0.0633 -0.4832
45985SOL    HW242641   9.060   4.863   3.947  0.0440 -0.3747  1.2282
45986SOL     OW42642   0.079  11.180   9.689 -0.7799 -0.0646 -0.3132
45986SOL    HW142643   0.140  11.110   9.711 -1.1320 -0.3090 -0.1015
45986SOL    HW242644   0.003  11.135   9.652 -1.2617  0.1532  0.3923
45987SOL     OW42645   9.748   2.662   5.402 -0.0373 -0.1616  0.6351
45987SOL    HW142646   9.748   2.567   5.411 -1.3016 -0.3324 -0.7893
45987SOL    HW242647   9.759   2.678   5.308 -1.5902  1.0368  0.6209
45988SOL     OW42648   1.592   1.144   0.404 -0.1892  0.4061 -0.2773
45988SOL    HW142649   1.535   1.209   0.444 -0.2287  0.6897 -0.7875
45988SOL    HW242650   1.592   1.070   0.466  0.7494  1.3173  0.8578
45989SOL     OW42651   4.018   5.115   8.322  0.0110 -0.1788 -0.4067
45989SOL    HW142652   3.987   5.077   8.240 -1.5108 -0.0408  0.0711
45989SOL    HW242653   3.954   5.184   8.342  1.4989  1.1672 -0.1427
45990SOL     OW42654   1.115  10.695   0.346 -0.8291 -0.2321 -0.3494
45990SOL    HW142655   1.043  10.636   0.324 -2.0798  0.8772  0.6240
45990SOL    HW242656   1.089  10.779   0.308 -0.0381  0.1838  0.0114
45991SOL     OW42657   9.928   7.065   8.548 -0.2702  0.4018 -0.2322
45991SOL    HW142658   9.940   6.970   8.548  0.6637  0.5126 -0.7569
45991SOL    HW242659   9.932   7.089   8.455 -1.3838  0.8577 -0.1786
45992SOL     OW42660   0.342   5.326   3.642  0.9128  0.0651 -0.2428
45992SOL    HW142661   0.426   5.325   3.597  1.7408 -1.3225  1.1955
45992SOL    HW242662   0.343   5.406   3.695  0.8411  0.6122 -1.0590
45993SOL     OW42663   0.834   8.501   8.895  0.3432  0.4617  0.1992
45993SOL    HW142664   0.900   8.502   8.825  0.6734 -1.8407  0.4028
45993SOL    HW242665   0.771   8.435   8.867 -0.5053  0.8255  1.2241
45994SOL     OW42666   3.343   0.213   4.254 -0.3074 -0.5222 -0.4769
45994SOL    HW142667   3.337   0.254   4.167 -2.0393  0.8154  0.2130
45994SOL    HW242668   3.264   0.161   4.262 -0.6526  0.1340  0.6379
45995SOL     OW42669  10.842   6.659   5.509  0.8317 -0.2088 -0.5272
45995SOL    HW142670  10.772   6.664   5.574  0.2242 -3.0037 -0.8578
45995SOL    HW242671  10.916   6.622   5.556  1.4770  0.8500 -0.6787
45996SOL     OW42672   6.734   8.626   3.548  0.1019 -0.1453 -0.2455
45996SOL    HW142673   6.757   8.537   3.523  0.4652 -0.4292  0.9926
45996SOL    HW242674   6.682   8.616   3.628 -1.3679  0.6713 -1.0556
45997SOL     OW42675  11.260   3.939   2.081  0.3534  0.0295 -0.0246
45997SOL    HW142676  11.239   4.012   2.140  0.6182 -2.5471  3.6525
45997SOL    HW242677  11.179   3.922   2.034 -1.1234  0.0904  2.3109
45998SOL     OW42678   7.628   5.045   3.893 -0.2708  0.3752 -0.0127
45998SOL    HW142679   7.533   5.034   3.899 -0.0889 -0.1784  3.2790
45998SOL    HW242680   7.661   5.021   3.979  3.0810 -1.0784 -1.5343
45999SOL     OW42681   7.535   9.946   9.319  0.7961 -0.2343 -0.2679
45999SOL    HW142682   7.594   9.870   9.321  0.2560 -0.8096 -2.9053
45999SOL    HW242683   7.584  10.014   9.274  0.0485 -0.2071 -1.0800
46000SOL     OW42684   6.119   1.075   9.341 -0.2066 -0.0883 -0.7745
46000SOL    HW142685   6.197   1.050   9.390  0.6610 -0.2582 -2.1660
46000SOL    HW242686   6.115   1.170   9.347 -3.0019 -0.2234  3.7813
46001SOL     OW42687   2.234   4.087  10.251 -0.0227 -0.0857 -0.2276
46001SOL    HW142688   2.311   4.093  10.307 -0.0110  1.0891 -0.3511
46001SOL    HW242689   2.215   4.178  10.226 -1.4335 -0.3482 -0.2005
46002SOL     OW42690  10.833   8.597   6.886  0.4940 -0.2127  0.5768
46002SOL    HW142691  10.814   8.617   6.794 -1.5580 -0.0780  0.9825
46002SOL    HW242692  10.899   8.528   6.883  1.1419  0.4258 -0.9636
46003SOL     OW42693   4.425   6.689   9.024 -0.3754  0.5471 -0.1572
46003SOL    HW142694   4.420   6.726   8.936  0.8014 -0.0834 -0.5125
46003SOL    HW242695   4.335   6.665   9.045 -0.6416  0.5012 -1.2794
46004SOL     OW42696   1.409   5.744  10.048  0.1055  0.5257  0.2108
46004SOL    HW142697   1.394   5.724  10.140 -2.0480 -0.6781 -0.3291
46004SOL    HW242698   1.357   5.822  10.031 -0.7215 -0.1250 -0.3065
46005SOL     OW42699  11.156   0.848   8.174  0.2103  0.4964 -0.0274
46005SOL    HW142700  11.075   0.900   8.182  0.2392  0.5491 -0.0804
46005SOL    HW242701  11.132   0.776   8.116  0.3687  0.8406 -0.5227
46006SOL     OW42702   4.876  10.521  11.651 -0.3635  0.2446 -0.0092
46006SOL    HW142703   4.928  10.524  11.732  1.0019 -0.0912 -0.8444
46006SOL    HW242704   4.941  10.527  11.581 -1.4500 -0.3346 -1.0915
46007SOL     OW42705   2.364   2.202   2.361 -0.6339 -0.0535 -0.8283
46007SOL    HW142706   2.425   2.238   2.297  0.7815  1.8261  1.4077
46007SOL    HW242707   2.295   2.268   2.368 -0.1155  0.3741  0.4479
46008SOL     OW42708   7.612   3.653   8.376  0.5881 -0.6612  0.2086
46008SOL    HW142709   7.551   3.702   8.320  1.2627 -2.1663 -1.9991
46008SOL    HW242710   7.692   3.706   8.377  0.5185 -0.5478 -0.1388
46009SOL     OW42711   6.950   5.672  10.064  0.4138 -0.0417 -0.1198
46009SOL    HW142712   6.966   5.653   9.972  2.6829 -1.1029  0.4096
46009SOL    HW242713   6.917   5.762  10.066  0.2361 -0.0395 -1.9448
46010SOL     OW42714   3.871   2.162   0.346 -0.2627  0.5743  0.2034
46010SOL    HW142715   3.792   2.144   0.397  0.3370  0.3481  1.0614
46010SOL    HW242716   3.911   2.237   0.389 -0.2873  1.0467 -0.5649
46011SOL     OW42717  10.405   8.432   8.605  0.0580 -0.4352 -0.1501
46011SOL    HW142718  10.407   8.466   8.694  0.3018 -0.1562 -0.2607
46011SOL    HW242719  10.312   8.427   8.583  0.0067 -0.2690  0.0280
46012SOL     OW42720   2.571   7.988  11.069 -0.0379  0.4955  0.0069
46012SOL    HW142721   2.532   8.070  11.040  0.1520  0.4164 -0.4769
46012SOL    HW242722   2.613   8.009  11.152  0.9680  1.1574 -0.6508
46013SOL     OW42723   3.017  10.714  11.163  0.4882 -0.1114 -0.1737
46013SOL    HW142724   3.030  10.640  11.222  0.0187 -0.2658 -0.2553
46013SOL    HW242725   2.922  10.727  11.161  0.3319 -1.1158 -2.0880
46014SOL     OW42726  10.365   5.047   2.247  0.9778 -0.1250  0.5880
46014SOL    HW142727  10.271   5.064   2.259 -0.6329 -5.4250 -1.5193
46014SOL    HW242728  10.397   5.027   2.336 -0.6708 -0.9212  1.0526
46015SOL     OW42729   9.728  11.304  11.685 -0.3623 -0.4431 -0.7122
46015SOL    HW142730   9.704  11.397  11.689  0.8623 -0.1411  0.4553
46015SOL    HW242731   9.645  11.258  11.679 -1.2316  0.5966  1.9659
46016SOL     OW42732   2.628   3.416   9.978  0.3328  0.6312  0.4156
46016SOL    HW142733   2.716   3.418   9.941  0.7717 -1.5636  1.1752
46016SOL    HW242734   2.577   3.365   9.914 -0.3761  1.7517  0.0590
46017SOL     OW42735   1.070   3.063   1.928  0.2078 -0.6886  1.0430
46017SOL    HW142736   0.997   3.003   1.912 -0.5452  0.2112  1.0321
46017SOL    HW242737   1.031   3.137   1.974  0.9304  0.2684  0.1717
46018SOL     OW42738   0.490  10.115   0.230 -0.4319  0.4577  0.0173
46018SOL    HW142739   0.438  10.057   0.175  0.2169  1.6831 -2.0032
46018SOL    HW242740   0.576  10.073   0.235 -1.2115 -1.0619  2.5314
46019SOL     OW42741   0.475   7.838  11.432 -0.0728 -0.1972 -0.0534
46019SOL    HW142742   0.495   7.809  11.521  1.5090 -0.6717 -0.5287
46019SOL    HW242743   0.419   7.769  11.396  2.9587 -2.4671 -0.8903
46020SOL     OW42744   5.953   8.383   0.293  0.4903  0.1159  0.2588
46020SOL    HW142745   5.976   8.427   0.375  0.2662 -0.8457  0.8435
46020SOL    HW242746   5.915   8.452   0.239  0.1710  0.6500  1.1527
46021SOL     OW42747   3.248   3.330   4.432 -0.3369  0.1012  0.3933
46021SOL    HW142748   3.160   3.298   4.411  0.4140 -1.8650 -0.0145
46021SOL    HW242749   3.262   3.403   4.372 -1.4112 -0.0375 -0.0476
46022SOL     OW42750   1.075   0.308  11.239 -0.7411 -0.0431 -0.1037
46022SOL    HW142751   1.032   0.300  11.154  1.0341 -2.0940 -0.9020
46022SOL    HW242752   1.132   0.231  11.244  1.7820  1.7909  1.4379
46023SOL     OW42753   9.226   3.059   2.145 -0.8109 -0.1107 -0.0464
46023SOL    HW142754   9.188   3.146   2.137 -2.1226 -0.5423  1.0085
46023SOL    HW242755   9.317   3.069   2.116 -1.0427  1.5129 -0.2891
46024SOL     OW42756   7.223   7.753  11.107 -0.0069 -0.2318 -0.3382
46024SOL    HW142757   7.188   7.671  11.143  1.0214 -0.2866  0.5681
46024SOL    HW242758   7.254   7.801  11.184 -0.8226  1.1352 -0.8313
46025SOL     OW42759   2.598   2.426   4.682 -0.0918  0.2431 -0.5581
46025SOL    HW142760   2.604   2.514   4.719 -1.3778  0.2448 -0.3004
46025SOL    HW242761   2.634   2.435   4.593  1.4430  0.6056  0.0687
46026SOL     OW42762   0.832   0.146   9.503  0.4443  0.0328  0.4702
46026SOL    HW142763   0.799   0.135   9.414 -1.3979 -0.7927  1.1998
46026SOL    HW242764   0.768   0.100   9.558  1.3227  0.8525  2.2574
46027SOL     OW42765   0.803   0.927   8.471  0.3174  0.1144  0.7317
46027SOL    HW142766   0.786   0.882   8.554 -1.4267  0.9627  0.8719
46027SOL    HW242767   0.722   0.973   8.451  0.9714  0.5871 -1.0575
46028SOL     OW42768  10.323   5.010   3.834 -0.0187 -0.0658  0.0902
46028SOL    HW142769  10.398   5.052   3.790 -0.9949  0.1251 -1.4551
46028SOL    HW242770  10.355   4.992   3.923  1.1194  2.0692  0.1780
46029SOL     OW42771   3.909   0.707   8.394 -0.1781 -0.5112  0.0689
46029SOL    HW142772   3.843   0.678   8.331  0.1004  1.7924 -1.4129
46029SOL    HW242773   3.988   0.657   8.372 -0.6836 -1.3307  0.0818
46030SOL     OW42774   4.959  11.557   1.087  0.3907  0.3455 -0.2962
46030SOL    HW142775   4.973  11.541   0.993 -0.8068 -0.2500 -0.3854
46030SOL    HW242776   5.046  11.546   1.126  0.5780 -1.2222 -1.0909
46031SOL     OW42777   4.209   9.423   2.744  0.3963  0.3611 -0.3585
46031SOL    HW142778   4.151   9.498   2.729 -2.0086 -0.8263  2.0556
46031SOL    HW242779   4.204   9.373   2.663  1.2267  2.2293 -1.6253
46032SOL     OW42780   5.875   5.713   4.021  0.0823  0.2040  0.2942
46032SOL    HW142781   5.833   5.738   3.939 -0.0785 -0.1842  0.2582
46032SOL    HW242782   5.824   5.757   4.089 -1.1053 -1.2035  0.3355
46033SOL     OW42783   9.608   6.668   2.738  0.1894 -0.1714 -0.4030
46033SOL    HW142784   9.679   6.729   2.717 -0.4115  1.0033  0.8270
46033SOL    HW242785   9.640   6.583   2.707  1.4604  0.5903 -1.2921
46034SOL     OW42786   7.792   2.865   2.579  0.2010 -0.2280  0.1538
46034SOL    HW142787   7.703   2.901   2.579  0.1771 -0.2803  1.1093
46034SOL    HW242788   7.780   2.771   2.569  0.2053 -0.1299 -0.8797
46035SOL     OW42789   6.244   5.008   9.277  0.4524 -0.0395 -0.2307
46035SOL    HW142790   6.285   5.060   9.208  0.3856  0.5579  0.1811
46035SOL    HW242791   6.150   5.013   9.258  0.5639 -2.3269 -1.8403
46036SOL     OW42792   2.797   0.264   8.497 -0.1075 -0.3887 -0.0160
46036SOL    HW142793   2.889   0.288   8.503 -0.1885  0.5168 -1.8224
46036SOL    HW242794   2.794   0.173   8.527  1.1716 -0.0910  1.1148
46037SOL     OW42795   7.612   6.757  11.316 -0.4345  0.4850  0.5832
46037SOL    HW142796   7.537   6.797  11.360 -1.1964 -1.2356  0.9697
46037SOL    HW242797   7.579   6.734  11.229  0.2225  1.3773  0.0898
46038SOL     OW42798  11.460   2.627  11.405  0.9158 -0.1032 -0.2742
46038SOL    HW142799  11.505   2.691  11.351  1.8307  0.4948  1.1578
46038SOL    HW242800  11.487   2.542  11.370  2.1471  0.2698 -0.2438
46039SOL     OW42801   4.981  11.558   7.846  0.2117 -0.5121  0.3727
46039SOL    HW142802   4.993  11.620   7.918 -0.4302  0.3803 -0.2641
46039SOL    HW242803   4.899  11.584   7.805  0.4809 -1.0973 -0.5864
46040SOL     OW42804   9.878   3.966   7.040 -0.0046 -0.4713 -0.1905
46040SOL    HW142805   9.882   3.978   6.945 -2.2897 -1.3890 -0.4522
46040SOL    HW242806   9.857   4.053   7.075 -0.1901 -0.3490 -0.6061
46041SOL     OW42807  11.620   9.213   6.719  0.1970  0.0178  0.0275
46041SOL    HW142808  11.676   9.154   6.667 -0.1669 -1.5484  1.3259
46041SOL    HW242809  11.628   9.180   6.809 -0.4318  1.6727  0.7258
46042SOL     OW42810  10.660   7.907  10.383 -0.0478 -0.3732  0.1966
46042SOL    HW142811  10.642   7.935  10.473  1.0864 -4.3058  1.8925
46042SOL    HW242812  10.754   7.921  10.372  0.3331 -2.2129  0.6994
46043SOL     OW42813  11.453  11.112   7.403 -0.3824  0.5274  0.1578
46043SOL    HW142814  11.402  11.064   7.468  0.0668  0.3505  0.3884
46043SOL    HW242815  11.443  11.204   7.429  0.6211  0.3884  1.1037
46044SOL     OW42816  10.871   2.289   0.583  0.3632 -0.4177  0.2591
46044SOL    HW142817  10.878   2.383   0.599 -2.1947 -0.0890 -0.0564
46044SOL    HW242818  10.896   2.279   0.491  0.2914  0.0146  0.1882
46045SOL     OW42819   1.161   6.402   2.385  0.8417 -0.1144  0.7939
46045SOL    HW142820   1.237   6.418   2.330  1.0459 -1.2546  0.7245
46045SOL    HW242821   1.155   6.307   2.392 -0.7074 -0.0614  0.6177
46046SOL     OW42822  10.811  11.492   6.175 -0.3230  0.1936  0.7790
46046SOL    HW142823  10.840  11.548   6.247  0.9663  0.4780  0.0846
46046SOL    HW242824  10.768  11.552   6.114 -0.9785  0.0352  1.0802
46047SOL     OW42825   7.437  10.795   4.401  0.2709  0.0155  0.1546
46047SOL    HW142826   7.365  10.856   4.382 -0.0742 -0.3694  0.2183
46047SOL    HW242827   7.414  10.715   4.354  1.4267  0.3876 -1.0854
46048SOL     OW42828   2.196  10.260   9.600  0.5361 -0.1947 -0.0271
46048SOL    HW142829   2.195  10.167   9.624 -1.9803 -0.0669  0.7379
46048SOL    HW242830   2.238  10.304   9.674 -2.6821 -0.3244  2.0818
46049SOL     OW42831   6.236   1.433   6.592 -0.0275  0.2620 -0.5961
46049SOL    HW142832   6.150   1.390   6.590  0.3349 -0.5882  0.9150
46049SOL    HW242833   6.276   1.405   6.674  1.7866  0.4929 -1.3427
46050SOL     OW42834  11.039  12.000   4.327  0.1845  0.2890  0.2043
46050SOL    HW142835  11.020  12.080   4.278 -0.6528 -0.8767 -1.5100
46050SOL    HW242836  11.121  11.968   4.289 -0.5091 -0.6636 -0.5456
46051SOL     OW42837   6.936  11.256   7.262 -0.1444 -0.3546  1.2325
46051SOL    HW142838   6.848  11.286   7.239  0.0671 -1.0460 -0.6164
46051SOL    HW242839   6.930  11.160   7.258  1.0083 -0.3905 -0.3057
46052SOL     OW42840   6.946   3.853   1.951  0.0843 -0.0327 -0.2451
46052SOL    HW142841   6.996   3.926   1.987 -1.3865  0.2438  1.3940
46052SOL    HW242842   7.004   3.778   1.959  0.8990  0.5951 -0.0961
46053SOL     OW42843   8.300   1.855   1.326  0.0648 -0.0435 -0.0410
46053SOL    HW142844   8.288   1.763   1.303  1.3574 -0.1415 -0.4008
46053SOL    HW242845   8.392   1.862   1.351  0.0414  1.1867 -0.2093
46054SOL     OW42846   5.638   0.345   3.731 -0.2487  0.5783  0.2895
46054SOL    HW142847   5.671   0.255   3.727 -0.0023  0.6417  0.8085
46054SOL    HW242848   5.634   0.373   3.640 -2.2998 -0.6679 -0.0720
46055SOL     OW42849  11.731   7.083  11.533  0.5992 -0.1359  0.0040
46055SOL    HW142850  11.688   7.072  11.448 -1.7176  1.0368  0.9127
46055SOL    HW242851  11.728   6.996  11.574 -0.3496 -0.2226 -0.2334
46056SOL     OW42852   8.714   3.166   3.492  0.5912 -0.8552 -0.0791
46056SOL    HW142853   8.749   3.230   3.554  0.2048 -2.6422  2.0880
46056SOL    HW242854   8.621   3.159   3.515  0.0593 -0.4414 -1.9329
46057SOL     OW42855   0.195   2.767   3.207 -0.3021 -0.6242 -0.3283
46057SOL    HW142856   0.201   2.675   3.233  0.2767 -0.2957  0.7760
46057SOL    HW242857   0.249   2.814   3.271 -0.3338  0.4527 -1.0560
46058SOL     OW42858   1.320   2.977   0.879  0.2773  0.1898 -0.3450
46058SOL    HW142859   1.380   3.046   0.852 -0.1362 -0.0267 -1.9465
46058SOL    HW242860   1.375   2.898   0.884 -0.0247 -0.3343 -3.2894
46059SOL     OW42861   7.347   8.701   0.700  0.7012  0.1316  0.3336
46059SOL    HW142862   7.379   8.691   0.611  2.3586  0.3280  0.8743
46059SOL    HW242863   7.325   8.613   0.728  1.0686 -0.0552  0.0435
46060SOL     OW42864   9.518   4.643   3.501 -0.2339  0.6716 -0.1391
46060SOL    HW142865   9.587   4.592   3.459 -1.2193 -0.8010 -0.0335
46060SOL    HW242866   9.483   4.585   3.568 -0.9616  1.7422  0.4371
46061SOL     OW42867   9.169   1.361   0.437 -0.2447  0.2532 -0.1920
46061SOL    HW142868   9.234   1.401   0.379 -0.0286 -0.8179 -0.7221
46061SOL    HW242869   9.202   1.376   0.525  0.9853 -0.6632 -0.4670
46062SOL     OW42870   5.215   2.243   3.044 -0.0721 -0.0441  0.1992
46062SOL    HW142871   5.148   2.271   2.981 -0.6310 -0.1362  0.7380
46062SOL    HW242872   5.197   2.150   3.058  0.0607 -0.0270  0.4829
46063SOL     OW42873   0.149  10.705   9.142  0.2579 -0.2475 -0.3439
46063SOL    HW142874   0.119  10.768   9.077 -3.8254 -1.2019  0.3329
46063SOL    HW242875   0.115  10.621   9.112  1.7933 -1.3975  0.9728
46064SOL     OW42876  11.830   5.916   9.985  0.3380  0.0508 -0.2708
46064SOL    HW142877  11.736   5.932   9.971  0.2071 -0.6719 -0.2567
46064SOL    HW242878  11.833   5.860  10.063  0.9507  2.4175  1.5129
46065SOL     OW42879   7.046   4.773   3.466 -0.2879  0.3644  0.0054
46065SOL    HW142880   7.076   4.786   3.376 -0.4345  0.5497 -0.0185
46065SOL    HW242881   7.106   4.826   3.519  0.3398 -0.4373  0.1048
46066SOL     OW42882   9.050   6.587   4.771  0.2341  0.4305  0.0199
46066SOL    HW142883   8.984   6.556   4.709  0.6799 -0.7184  0.1037
46066SOL    HW242884   9.062   6.679   4.748  0.4212  0.0306 -1.6359
46067SOL     OW42885  10.012   3.060   1.299  0.0426 -0.6662  0.5067
46067SOL    HW142886  10.096   3.063   1.345  0.2119  2.7426  0.2521
46067SOL    HW242887  10.027   3.112   1.220 -2.2939  0.1348  0.5107
46068SOL     OW42888   4.054   6.714  10.375  0.1929 -0.4367  0.7237
46068SOL    HW142889   4.024   6.680  10.459 -0.9114  0.5461  0.7522
46068SOL    HW242890   4.124   6.775  10.397 -0.9450  0.8032  1.0847
46069SOL     OW42891   9.883   2.811   6.764  0.3464 -0.1624  0.5663
46069SOL    HW142892   9.794   2.797   6.731  0.4205  1.7776 -0.6380
46069SOL    HW242893   9.938   2.753   6.711  0.0261  0.2008 -0.1777
46070SOL     OW42894   9.805   9.384   7.090 -0.2354  0.0808 -0.4203
46070SOL    HW142895   9.859   9.305   7.093  1.6931  1.3641  1.0561
46070SOL    HW242896   9.867   9.454   7.068 -1.4260  1.5082  0.6152
46071SOL     OW42897   9.839   9.715   7.888 -0.0067  0.1431  0.3449
46071SOL    HW142898   9.801   9.752   7.967 -2.5035  0.2318 -0.7755
46071SOL    HW242899   9.800   9.628   7.881  1.7763 -0.6905  0.2472
46072SOL     OW42900   1.356  10.170   7.435 -0.1931 -0.1558  0.0365
46072SOL    HW142901   1.427  10.118   7.471  0.0501 -1.7154 -2.4296
46072SOL    HW242902   1.399  10.241   7.388 -0.3009 -0.4416 -0.5024
46073SOL     OW42903   6.545   0.654  11.227  0.6223  0.1051 -0.1694
46073SOL    HW142904   6.580   0.729  11.180  1.3814 -0.6568 -0.8501
46073SOL    HW242905   6.497   0.692  11.301  0.0041  1.2897 -1.1538
46074SOL     OW42906   2.464   5.322   6.526 -0.4127 -0.7116 -0.0407
46074SOL    HW142907   2.422   5.332   6.611 -0.7143  0.3098 -0.2951
46074SOL    HW242908   2.496   5.232   6.525  1.8024 -0.0659  2.1778
46075SOL     OW42909   4.175  11.434   1.090  0.0368  0.2676  0.2431
46075SOL    HW142910   4.178  11.507   1.028  0.3358 -0.2126 -0.3027
46075SOL    HW242911   4.086  11.400   1.083 -1.0203  2.2718  2.4664
46076SOL     OW42912   8.800   3.643   4.124  0.2975  0.4354  0.3421
46076SOL    HW142913   8.843   3.725   4.148 -1.0792  1.3186 -0.0958
46076SOL    HW242914   8.739   3.627   4.197  0.3815 -0.0636  0.3022
46077SOL     OW42915  11.294   0.753   6.979  0.2224 -0.1394  0.7151
46077SOL    HW142916  11.359   0.702   6.931 -0.1012  1.5023 -1.6645
46077SOL    HW242917  11.342   0.832   7.005 -0.4948  0.5842 -0.0967
46078SOL     OW42918   5.991   8.449  11.560 -0.9414 -0.0157  0.0160
46078SOL    HW142919   5.952   8.528  11.598  1.9133  1.2910  0.5086
46078SOL    HW242920   6.007   8.472  11.469 -1.4602 -0.5924 -0.2228
46079SOL     OW42921   0.512   9.771   3.282 -0.2734 -0.3056 -0.2965
46079SOL    HW142922   0.480   9.858   3.260  0.1351  0.4069  1.7256
46079SOL    HW242923   0.441   9.712   3.258 -1.0091  0.6922 -0.6260
46080SOL     OW42924   3.826   3.961   8.239  0.0392 -0.2464 -0.0774
46080SOL    HW142925   3.759   3.897   8.262  0.3775 -0.8626 -0.7517
46080SOL    HW242926   3.833   4.018   8.315 -1.2927 -0.1311 -0.0217
46081SOL     OW42927   3.907  11.306   0.438 -0.0342 -0.0966  0.4853
46081SOL    HW142928   3.851  11.233   0.465 -0.3352 -0.1304 -0.2225
46081SOL    HW242929   3.913  11.298   0.343 -0.5020  1.0984  0.3334
46082SOL     OW42930   3.923   8.426   4.338  0.8367  0.6672  0.0801
46082SOL    HW142931   4.014   8.430   4.309  0.3662  1.6143 -1.4043
46082SOL    HW242932   3.887   8.512   4.315 -0.1656  0.7010  1.6463
46083SOL     OW42933  11.410   0.755  10.683  0.1201 -0.1288  0.1922
46083SOL    HW142934  11.322   0.723  10.662  0.1219  0.4230 -0.7283
46083SOL    HW242935  11.468   0.707  10.624  0.2953  0.3476 -0.0373
46084SOL     OW42936   1.615   7.636   1.735  0.4818 -0.4783  0.1184
46084SOL    HW142937   1.665   7.690   1.796 -1.4711  0.4894  0.9502
46084SOL    HW242938   1.652   7.548   1.745  1.9521  0.1848  0.7207
46085SOL     OW42939   4.214  11.168   2.796 -0.3698  0.4406 -0.1803
46085SOL    HW142940   4.216  11.177   2.891  1.7134 -0.7760 -0.0402
46085SOL    HW242941   4.121  11.160   2.774 -0.8165 -0.8704  1.9249
46086SOL     OW42942   5.503   5.503   1.842 -0.5363  0.5664  0.1048
46086SOL    HW142943   5.518   5.562   1.768  0.0414  1.2625  0.7635
46086SOL    HW242944   5.548   5.422   1.816  0.4589  1.1080  0.0607
46087SOL     OW42945   5.359   5.564  11.068  0.2222 -0.2709  0.0113
46087SOL    HW142946   5.319   5.536  10.986  2.3266 -1.3481 -0.7082
46087SOL    HW242947   5.313   5.513  11.136  0.8037 -2.0128 -0.8528
46088SOL     OW42948  11.980   5.607   0.344  0.1251  0.1735 -0.0945
46088SOL    HW142949  12.030   5.535   0.382 -1.3789 -0.3849  0.9053
46088SOL    HW242950  12.035   5.684   0.357  1.4751 -0.6610 -0.6114
46089SOL     OW42951   0.522   6.727   8.241  0.3591  0.0485  0.5477
46089SOL    HW142952   0.580   6.769   8.304  1.3178 -1.8618  1.0142
46089SOL    HW242953   0.518   6.635   8.269  0.5420 -0.8068 -1.9248
46090SOL     OW42954   5.239   4.420   1.866  0.3658 -0.0521 -0.0544
46090SOL    HW142955   5.294   4.449   1.793  1.7310  1.2244  1.4163
46090SOL    HW242956   5.175   4.491   1.877 -1.5277 -1.3913 -1.5626
46091SOL     OW42957  11.186   5.085   6.170  0.5770  0.1837  0.8397
46091SOL    HW142958  11.197   5.000   6.126  2.0181  0.8921 -0.2628
46091SOL    HW242959  11.108   5.122   6.128 -0.7910 -1.0461  2.1728
46092SOL     OW42960  10.710   8.277   0.371  0.0933 -0.1748  0.3217
46092SOL    HW142961  10.760   8.324   0.304 -1.3093 -0.0248 -0.6535
46092SOL    HW242962  10.676   8.347   0.428 -1.3976 -0.0169 -0.7146
46093SOL     OW42963   4.496  11.860   3.808 -0.2151 -0.1735  0.4339
46093SOL    HW142964   4.465  11.935   3.859 -0.7625 -0.9947  1.3355
46093SOL    HW242965   4.477  11.784   3.863  0.8470 -0.9353 -0.2210
46094SOL     OW42966   3.182   8.717  11.650  0.0499  0.2018 -0.2953
46094SOL    HW142967   3.100   8.679  11.681  0.2135 -1.7773 -2.0938
46094SOL    HW242968   3.236   8.726  11.728 -2.0907  2.3965  1.1031
46095SOL     OW42969   3.480   5.884   2.495 -0.9321  0.3536  0.5287
46095SOL    HW142970   3.420   5.836   2.552 -1.1971  0.2935  0.2025
46095SOL    HW242971   3.547   5.920   2.554 -1.2332  0.3363  0.8786
46096SOL     OW42972   7.807   9.356   6.073  0.0740  0.5445 -0.4727
46096SOL    HW142973   7.793   9.305   6.152 -0.6566  1.3041 -0.0960
46096SOL    HW242974   7.846   9.295   6.011  1.4441  0.1416  0.7271
46097SOL     OW42975   2.468   4.890   4.325  0.7339 -0.2988 -1.1060
46097SOL    HW142976   2.444   4.937   4.405  1.3123 -0.9469 -0.5346
46097SOL    HW242977   2.395   4.904   4.266  0.3939  0.3778 -0.5463
46098SOL     OW42978   7.931   1.408   5.476  0.5856  0.0844  0.7786
46098SOL    HW142979   8.026   1.396   5.477  0.6955  0.8881  0.9990
46098SOL    HW242980   7.906   1.409   5.568  0.6087  1.5382  0.7980
46099SOL     OW42981   9.261   5.936   9.687 -0.5820 -0.7100  0.0629
46099SOL    HW142982   9.249   5.897   9.600 -0.2222 -1.6193  0.4054
46099SOL    HW242983   9.335   5.996   9.676 -1.0592 -0.1934 -0.4415
46100SOL     OW42984   3.158   4.150  11.466 -0.1773 -0.7600 -0.2908
46100SOL    HW142985   3.217   4.165  11.539  2.2746 -1.1709 -2.0720
46100SOL    HW242986   3.182   4.216  11.402 -1.5976 -1.0187 -1.1273
46101SOL     OW42987   9.850   8.970  10.251 -0.0731 -0.6711  0.0845
46101SOL    HW142988   9.896   8.933  10.327  0.3561  0.1551  0.2336
46101SOL    HW242989   9.797   9.041  10.288 -0.0411 -0.4193 -0.3518
46102SOL     OW42990  10.586  10.078   6.283  0.1815  0.2700  0.4149
46102SOL    HW142991  10.653  10.140   6.309  2.6100 -1.0483 -2.0908
46102SOL    HW242992  10.541  10.120   6.209 -0.7800  0.5334  1.1296
46103SOL     OW42993   0.928   7.400   0.467  0.3157  0.0629  0.2563
46103SOL    HW142994   0.965   7.452   0.539 -1.2016  0.9002  0.4676
46103SOL    HW242995   0.866   7.340   0.510 -2.2508  2.0341 -0.4469
46104SOL     OW42996   2.405   8.955   3.562 -0.0754 -0.0311 -0.0248
46104SOL    HW142997   2.485   8.975   3.512 -1.1199 -0.3647 -1.9359
46104SOL    HW242998   2.437   8.926   3.648  1.8357  0.2222 -0.6028
46105SOL     OW42999   5.785   9.555   5.311  0.5881  0.2920 -0.1208
46105SOL    HW143000   5.787   9.649   5.327 -1.7620  0.3664  0.1334
46105SOL    HW243001   5.735   9.545   5.230 -0.5958 -0.7617  0.6834
46106SOL     OW43002  10.285   0.198   0.581  0.1641  0.2248  0.3468
46106SOL    HW143003  10.284   0.173   0.673  1.6261 -2.1557 -0.1890
46106SOL    HW243004  10.222   0.138   0.540 -1.0590  1.7672 -0.1652
46107SOL     OW43005  11.040   9.757   9.466 -0.2315 -0.2546  0.0738
46107SOL    HW143006  10.998   9.781   9.549 -0.4338  1.7738 -0.5501
46107SOL    HW243007  11.105   9.692   9.491 -4.1317 -4.3209  0.9913
46108SOL     OW43008   1.370   4.380   6.840 -0.0562  0.2294 -0.3863
46108SOL    HW143009   1.311   4.337   6.902  1.0801 -0.9857 -0.0888
46108SOL    HW243010   1.316   4.447   6.798 -1.0132  0.6850  1.4719
46109SOL     OW43011  11.175   5.051   3.584  0.4153  0.4185 -0.0863
46109SOL    HW143012  11.096   5.097   3.556  0.2150  0.4284  0.4806
46109SOL    HW243013  11.247   5.101   3.545  0.1235 -0.0614 -1.2854
46110SOL     OW43014   7.217   4.959   3.558  0.4875 -0.7182 -0.0784
46110SOL    HW143015   7.203   5.029   3.622 -0.4840 -0.9587 -0.0133
46110SOL    HW243016   7.238   5.004   3.477 -1.0631 -0.2865 -0.2752
46111SOL     OW43017   6.516   0.594   5.012 -0.4665 -0.3822 -0.5144
46111SOL    HW143018   6.609   0.571   5.010  0.2743  1.9821  1.6524
46111SOL    HW243019   6.513   0.685   4.983 -1.8929  0.0078  0.7303
46112SOL     OW43020   2.381   5.585   8.696  1.3212 -0.1916 -0.0751
46112SOL    HW143021   2.464   5.631   8.704  1.1167  0.0352  0.8708
46112SOL    HW243022   2.357   5.594   8.603  2.9582 -1.3607 -0.6450
46113SOL     OW43023   0.144   9.552  10.636 -0.3059 -0.5110 -0.7921
46113SOL    HW143024   0.178   9.583  10.719  0.9084 -1.9593 -0.7218
46113SOL    HW243025   0.137   9.458  10.646 -3.8240 -0.4167 -1.0273
46114SOL     OW43026  10.002   4.090   3.203 -0.1423  0.3281 -0.7266
46114SOL    HW143027   9.962   4.169   3.167 -0.5848  0.5768  0.3044
46114SOL    HW243028  10.093   4.115   3.219 -0.6339  1.1402  1.0436
46115SOL     OW43029   0.632  11.918   0.978  0.1283  0.5757  0.0775
46115SOL    HW143030   0.567  11.963   1.031  0.0124 -0.9793  1.3251
46115SOL    HW243031   0.699  11.889   1.040 -1.1999 -3.4340 -0.0436
46116SOL     OW43032   3.319   9.232   8.570  0.4552 -0.9762  0.0715
46116SOL    HW143033   3.367   9.160   8.529 -2.3248 -1.0616 -3.5253
46116SOL    HW243034   3.385   9.302   8.579  2.1632 -2.4092 -0.6694
46117SOL     OW43035   6.278   8.399   9.320 -0.4547 -0.7144 -0.1700
46117SOL    HW143036   6.213   8.422   9.386  0.3648 -2.0958  1.1903
46117SOL    HW243037   6.276   8.304   9.316  0.3411 -0.7081 -1.3087
46118SOL     OW43038   7.881   7.694   1.212  0.1172 -0.0909  0.4221
46118SOL    HW143039   7.836   7.749   1.277 -0.4972 -0.8733  0.6811
46118SOL    HW243040   7.815   7.677   1.145  1.1391  1.8633 -1.1908
46119SOL     OW43041   9.963   1.088  10.105  0.2190  0.1057  0.6689
46119SOL    HW143042   9.922   1.154  10.049  0.5807  1.1467  1.5999
46119SOL    HW243043   9.894   1.023  10.120 -0.4966  0.8355  0.6316
46120SOL     OW43044   5.388   4.011   1.981  0.0664  0.9228  0.1618
46120SOL    HW143045   5.428   3.926   1.999 -1.5836  0.1100  0.1256
46120SOL    HW243046   5.379   4.015   1.886 -0.2658  0.9372  0.1913
46121SOL     OW43047   1.212   7.053   2.172 -0.0362 -0.7051  0.3539
46121SOL    HW143048   1.175   7.090   2.092  0.1601 -1.2838 -0.0086
46121SOL    HW243049   1.168   7.100   2.243 -1.4769 -1.3778 -0.0564
46122SOL     OW43050  10.603  10.868   0.783 -0.1805  0.4605  0.1243
46122SOL    HW143051  10.594  10.775   0.761  1.1410 -0.0296  1.4444
46122SOL    HW243052  10.671  10.900   0.724  0.3028  0.2375  0.5498
46123SOL     OW43053   7.335  10.490   8.524 -0.0480 -0.2245 -0.3610
46123SOL    HW143054   7.426  10.512   8.506  0.1825 -1.1112 -0.3144
46123SOL    HW243055   7.304  10.446   8.445 -0.3354 -0.2341 -0.2467
46124SOL     OW43056   2.694   4.853   3.158  0.0264 -0.1972 -0.5713
46124SOL    HW143057   2.612   4.806   3.147 -2.5176  3.4192  1.0269
46124SOL    HW243058   2.709   4.895   3.073  0.8838 -1.6887 -1.1897
46125SOL     OW43059   6.881   5.844   3.056  0.1106  0.0248  0.0494
46125SOL    HW143060   6.915   5.926   3.092 -0.0875 -0.4150  1.2920
46125SOL    HW243061   6.861   5.791   3.133 -1.6170 -0.4443 -0.6888
46126SOL     OW43062   4.928   0.590   7.936  0.2405  0.6627 -0.6378
46126SOL    HW143063   4.969   0.666   7.976 -1.6179  0.1501  2.6702
46126SOL    HW243064   4.991   0.519   7.949 -0.5674  0.3547  2.3398
46127SOL     OW43065  11.613   7.326   3.646 -0.0308  0.6508 -0.1312
46127SOL    HW143066  11.601   7.287   3.559  1.2536 -0.6103  0.2195
46127SOL    HW243067  11.544   7.286   3.699  0.4296 -0.1395 -0.1077
46128SOL     OW43068  11.958  10.406   1.798  0.3217 -0.0682  0.1018
46128SOL    HW143069  12.002  10.490   1.812  1.3341 -0.3918 -0.8982
46128SOL    HW243070  11.884  10.407   1.857  1.0024  1.0313  0.9803
46129SOL     OW43071   8.657   0.084   9.376 -0.2870  0.4519 -0.3829
46129SOL    HW143072   8.574   0.049   9.345  0.8821 -2.7310 -0.3238
46129SOL    HW243073   8.633   0.147   9.443 -2.6571  0.0650 -0.7677
46130SOL     OW43074   1.823   1.265   8.910 -0.2709 -0.6878  0.1308
46130SOL    HW143075   1.814   1.171   8.894 -3.5258 -0.6597  1.0829
46130SOL    HW243076   1.871   1.298   8.834  0.0713 -2.9449 -0.7071
46131SOL     OW43077   7.680   5.703   9.609 -0.3739  0.1594  0.3044
46131SOL    HW143078   7.607   5.649   9.578  0.0286 -0.3284  0.1977
46131SOL    HW243079   7.648   5.740   9.691 -1.3605  1.2781 -0.5435
46132SOL     OW43080   5.435  10.834   0.569 -0.0199  0.9079 -0.4830
46132SOL    HW143081   5.376  10.908   0.582  0.6570  1.1379  1.8447
46132SOL    HW243082   5.459  10.807   0.658  0.1759 -1.7939 -1.2594
46133SOL     OW43083   6.454   0.170   4.038  0.0162  0.0075  0.1929
46133SOL    HW143084   6.365   0.138   4.049  0.4454 -0.8699  1.2889
46133SOL    HW243085   6.462   0.242   4.101 -0.7338  1.9508 -1.7978
46134SOL     OW43086  10.941  11.230   9.765  0.1941  0.6420 -0.2007
46134SOL    HW143087  10.986  11.278   9.835  0.5199  2.6027 -1.6644
46134SOL    HW243088  10.996  11.152   9.751 -0.5534 -0.4983  2.4982
46135SOL     OW43089   3.165   7.721   0.217 -0.0819 -0.5304 -0.4827
46135SOL    HW143090   3.181   7.759   0.131 -1.5418 -0.6443 -0.8354
46135SOL    HW243091   3.085   7.669   0.205 -0.6337 -0.0817  1.0728
46136SOL     OW43092   8.320   2.600   5.686  0.5554 -0.3410  0.1423
46136SOL    HW143093   8.305   2.604   5.592  1.3636 -1.4462 -0.0531
46136SOL    HW243094   8.232   2.593   5.724  0.2808 -1.1284 -0.6069
46137SOL     OW43095   9.234   8.355   7.944  0.2581 -0.0408 -0.3391
46137SOL    HW143096   9.218   8.443   7.977  1.6338  0.9659 -2.1598
46137SOL    HW243097   9.271   8.368   7.857  0.7565 -2.4195 -0.5662
46138SOL     OW43098   9.501   5.400   7.748  0.6996  0.7449  0.0320
46138SOL    HW143099   9.454   5.327   7.788 -2.1621  2.0103 -0.7134
46138SOL    HW243100   9.525   5.368   7.661  1.9099 -0.1473  0.6690
46139SOL     OW43101   2.165   0.378   7.911  0.7924  0.2445 -0.4804
46139SOL    HW143102   2.171   0.438   7.985  0.1813 -0.0952 -0.1510
46139SOL    HW243103   2.145   0.434   7.836 -0.3499  0.3963 -0.0744
46140SOL     OW43104  11.857   9.979   7.405  0.5871 -0.5134  0.1664
46140SOL    HW143105  11.888  10.019   7.486  0.5252  0.0842 -0.0955
46140SOL    HW243106  11.781  10.032   7.380 -1.1513 -2.4041  1.1941
46141SOL     OW43107   8.500   5.285   3.444 -0.1975 -0.4822 -0.0767
46141SOL    HW143108   8.436   5.214   3.435 -0.1179 -0.4097 -1.5159
46141SOL    HW243109   8.579   5.249   3.403 -0.3973  0.7062 -1.5908
46142SOL     OW43110   6.198   1.494   4.796 -0.4063  0.5464 -0.4295
46142SOL    HW143111   6.196   1.478   4.702 -0.3630  0.5761 -0.4353
46142SOL    HW243112   6.112   1.534   4.815  0.2009  2.0746 -0.7380
46143SOL     OW43113   4.650   6.153  10.388  0.4115  0.4332  0.2073
46143SOL    HW143114   4.586   6.213  10.427 -0.0136 -0.0147  0.2026
46143SOL    HW243115   4.621   6.144  10.297  1.1301  1.1046 -0.1039
46144SOL     OW43116   0.001   1.935   8.803 -0.4775 -0.7599  0.1159
46144SOL    HW143117  -0.049   1.965   8.727  1.6922  2.0522 -0.3525
46144SOL    HW243118  -0.021   1.997   8.873  1.6419  0.0498  0.1285
46145SOL     OW43119   3.825  10.329   4.405  0.3438  0.1676  0.3595
46145SOL    HW143120   3.899  10.294   4.354 -0.3824 -0.4443 -0.3008
46145SOL    HW243121   3.829  10.424   4.392  1.0596  0.1506  0.4063
46146SOL     OW43122   2.781   2.521   2.022  0.6928  0.1792 -0.2741
46146SOL    HW143123   2.708   2.545   2.079 -0.2053 -0.0560 -1.2989
46146SOL    HW243124   2.810   2.436   2.056 -0.3521 -0.3377 -0.6167
46147SOL     OW43125  10.136   8.577  10.092 -0.4119  0.2778  0.4053
46147SOL    HW143126  10.101   8.491  10.113  0.5479 -0.3154 -0.3340
46147SOL    HW243127  10.228   8.561  10.071 -0.2578  1.4598  0.1162
46148SOL     OW43128   7.552   9.238   9.356 -0.2373  0.4514 -0.1726
46148SOL    HW143129   7.510   9.171   9.302 -2.0282  0.4294  1.1390
46148SOL    HW243130   7.623   9.272   9.302  0.7493 -2.4719 -0.9087
46149SOL     OW43131   0.133   4.959   1.875  0.4661  0.1325  0.2042
46149SOL    HW143132   0.197   4.998   1.817 -0.0157 -1.3158 -1.3864
46149SOL    HW243133   0.181   4.890   1.921 -0.4094 -3.1578 -3.2876
46150SOL     OW43134  11.065   7.579  11.962  0.2442 -0.0806  0.0164
46150SOL    HW143135  11.068   7.652  11.900  1.4690  0.7393  0.9938
46150SOL    HW243136  11.153   7.543  11.961 -0.4328 -1.8159 -0.7086
46151SOL     OW43137   8.339   9.457   1.532 -0.1866 -0.3477 -0.4250
46151SOL    HW143138   8.262   9.513   1.521  1.2776  1.7795 -0.5304
46151SOL    HW243139   8.315   9.396   1.602 -1.6097  0.9324  0.2604
46152SOL     OW43140   9.881   3.494  11.756 -0.5427 -0.0042 -0.3820
46152SOL    HW143141   9.915   3.423  11.702  0.0974 -1.2001  1.4730
46152SOL    HW243142   9.786   3.483  11.755 -0.4309 -1.1173  0.1499
46153SOL     OW43143   1.022   3.395   5.957  0.2135 -0.1707  0.1009
46153SOL    HW143144   0.928   3.409   5.971  0.5952  0.6458  2.1484
46153SOL    HW243145   1.048   3.336   6.027  1.1154 -0.9815 -0.8993
46154SOL     OW43146   7.672   3.159   6.174 -0.1228 -0.2828  0.1857
46154SOL    HW143147   7.599   3.208   6.210 -0.0609 -0.1395  0.1165
46154SOL    HW243148   7.702   3.211   6.100 -0.1125 -0.4678  0.0574
46155SOL     OW43149   4.698   9.336   6.211  1.0023 -0.3839  0.0504
46155SOL    HW143150   4.650   9.399   6.159 -0.4041 -0.6933  0.9087
46155SOL    HW243151   4.677   9.251   6.172 -0.6701 -0.6913  1.4943
46156SOL     OW43152   7.023  10.869   5.923 -0.0112 -0.2660  0.3182
46156SOL    HW143153   7.001  10.910   5.839 -1.3398 -1.0060  0.2723
46156SOL    HW243154   6.965  10.911   5.986  1.4060  0.7286  1.0195
46157SOL     OW43155   4.778   8.622  11.194  0.3588 -0.3479  0.2554
46157SOL    HW143156   4.737   8.547  11.237 -0.2582 -0.0808  0.1428
46157SOL    HW243157   4.830   8.664  11.263  1.1363 -1.1653  0.1965
46158SOL     OW43158   2.101   9.018   8.510 -0.4481  0.0737  0.6110
46158SOL    HW143159   2.059   8.953   8.454 -0.9428  0.2005  0.8307
46158SOL    HW243160   2.113   8.973   8.594 -0.3199  0.1009  0.6080
46159SOL     OW43161   1.667   3.285   5.666  0.5013  0.0193  0.2557
46159SOL    HW143162   1.665   3.343   5.742 -2.0601  0.9393 -0.4103
46159SOL    HW243163   1.701   3.340   5.595  0.5711 -0.1036  0.1926
46160SOL     OW43164   6.695   1.021   3.844  0.5504  0.2897 -0.4285
46160SOL    HW143165   6.703   0.944   3.901  0.8880  1.1976  0.8013
46160SOL    HW243166   6.695   1.095   3.905  0.1112  1.2598 -1.5772
46161SOL     OW43167  10.274   7.543   7.598 -0.3112 -0.4844 -0.6399
46161SOL    HW143168  10.289   7.450   7.614 -1.7882 -0.5004  0.9157
46161SOL    HW243169  10.182   7.548   7.574 -0.7333  0.7352  1.0519
46162SOL     OW43170   8.576   1.174   0.804 -0.2544 -0.2200 -0.5241
46162SOL    HW143171   8.617   1.200   0.721 -1.6207  0.3619 -1.0391
46162SOL    HW243172   8.524   1.250   0.831  0.7895 -0.0997  1.3047
46163SOL     OW43173   4.142   0.872   0.543 -0.2398 -0.0820  0.2928
46163SOL    HW143174   4.155   0.839   0.632 -0.6041 -0.0590  0.3533
46163SOL    HW243175   4.057   0.838   0.516  0.5348 -1.3680 -0.6208
46164SOL     OW43176   7.976   8.136   5.131 -0.3989 -0.3636  0.4887
46164SOL    HW143177   8.033   8.104   5.201 -0.3047 -0.0584  0.5516
46164SOL    HW243178   8.015   8.100   5.051  0.9741  1.3269  0.3384
46165SOL     OW43179   0.454   9.721   3.934  0.0068 -0.0044  0.7895
46165SOL    HW143180   0.487   9.691   3.850  1.5079  0.5287  1.1416
46165SOL    HW243181   0.388   9.787   3.912  0.9431  0.7055  0.0014
46166SOL     OW43182   5.587   7.029   9.574 -0.5124 -0.7564 -0.0358
46166SOL    HW143183   5.675   6.995   9.562  0.0512  0.8197 -0.7775
46166SOL    HW243184   5.560   7.055   9.486 -1.3885 -0.4828  0.3066
46167SOL     OW43185   2.816  11.278  10.246 -0.1563  0.3162 -0.2270
46167SOL    HW143186   2.887  11.340  10.227  1.3926 -1.5521 -0.9222
46167SOL    HW243187   2.841  11.238  10.330  0.0160 -0.8235 -0.7936
46168SOL     OW43188   7.390   2.737   1.363 -0.3392  0.1813 -0.4770
46168SOL    HW143189   7.322   2.671   1.376  2.2582 -2.5246  0.6119
46168SOL    HW243190   7.377   2.800   1.433 -0.7959 -1.1831  0.7082
46169SOL     OW43191   4.854   0.534  12.000 -0.0170 -0.2034 -0.1184
46169SOL    HW143192   4.822   0.504  11.915 -1.8553  0.7067  0.2119
46169SOL    HW243193   4.907   0.461  12.032 -1.4361 -1.6384 -0.8921
46170SOL     OW43194   0.891   1.571   9.777 -0.0501  0.0641  0.4551
46170SOL    HW143195   0.855   1.647   9.823  1.8632  0.9685  0.5518
46170SOL    HW243196   0.842   1.497   9.811 -0.9015  1.0886  1.5253
46171SOL     OW43197   6.194  10.033   7.864 -0.5721  0.0870  0.5927
46171SOL    HW143198   6.248  10.089   7.921 -0.0443  0.2414 -0.0534
46171SOL    HW243199   6.105  10.047   7.896 -0.0835 -2.0873  3.3544
46172SOL     OW43200  10.056   9.967   5.612  0.2696  0.5336 -0.3748
46172SOL    HW143201   9.966   9.988   5.587  0.4736 -0.0726 -1.7146
46172SOL    HW243202  10.058   9.977   5.707 -1.0080  1.3008 -0.4108
46173SOL     OW43203  11.679   6.233   5.612 -0.0956  0.0563 -0.0887
46173SOL    HW143204  11.746   6.285   5.655 -1.7200 -0.3144  3.1981
46173SOL    HW243205  11.703   6.142   5.630 -0.4048 -0.1449 -0.6561
46174SOL     OW43206   1.469   8.057   4.787  0.1345  0.0483 -0.0338
46174SOL    HW143207   1.465   7.967   4.756  0.1404 -0.3532  1.0780
46174SOL    HW243208   1.379   8.077   4.815  0.0632  0.5055 -0.5601
46175SOL     OW43209   9.049   9.172   3.913 -0.2585 -0.1383 -0.3922
46175SOL    HW143210   9.097   9.127   3.843  0.7112 -0.6520  0.5537
46175SOL    HW243211   9.046   9.264   3.886 -0.5015 -0.4445 -1.4206
46176SOL     OW43212   6.765   3.164  10.811 -0.3223 -0.3579  0.0018
46176SOL    HW143213   6.780   3.202  10.898  0.6411  1.6439 -0.9615
46176SOL    HW243214   6.777   3.238  10.751 -2.2794 -1.3961 -1.7633
46177SOL     OW43215   2.566  11.986   2.441  0.2365  0.2337  0.0754
46177SOL    HW143216   2.624  12.052   2.403  0.3443 -0.6540 -1.3366
46177SOL    HW243217   2.626  11.922   2.479  0.1402  0.3948  0.5050
46178SOL     OW43218   3.710   0.239  10.765  0.5780 -0.6569  0.2346
46178SOL    HW143219   3.789   0.266  10.719 -0.7914  0.5797 -1.5769
46178SOL    HW243220   3.650   0.211  10.696 -1.1275  0.0318  1.3483
46179SOL     OW43221   7.747   2.508   4.399  0.1787  0.2723  0.3681
46179SOL    HW143222   7.657   2.543   4.401 -0.7145 -1.8215 -0.3276
46179SOL    HW243223   7.747   2.446   4.326  2.3023  0.4107  0.1889
46180SOL     OW43224   3.993   0.574   6.234 -0.1857  0.5048 -0.1341
46180SOL    HW143225   4.050   0.606   6.164 -0.3974 -0.7517 -0.9047
46180SOL    HW243226   3.907   0.569   6.194 -0.6205  1.2036  0.6751
46181SOL     OW43227   8.065   6.135   2.585 -0.3747  0.4633 -0.0636
46181SOL    HW143228   8.110   6.089   2.656  0.0859  1.9383  0.6194
46181SOL    HW243229   8.083   6.081   2.508  0.7572 -0.1291  0.5801
46182SOL     OW43230   1.120   8.550   1.117 -0.2647 -0.1944  0.1587
46182SOL    HW143231   1.047   8.606   1.089  0.0061  0.2337  0.3043
46182SOL    HW243232   1.143   8.501   1.038 -0.5032 -0.1058  0.0306
46183SOL     OW43233   5.524   9.294   8.538 -0.4473  0.3696 -0.0126
46183SOL    HW143234   5.590   9.361   8.552 -0.4549  0.1982  0.9269
46183SOL    HW243235   5.508   9.258   8.625 -2.2279  0.8456 -0.1019
46184SOL     OW43236   2.195   2.146   0.037  0.7024  0.0296 -0.0766
46184SOL    HW143237   2.135   2.162   0.110  0.5278 -0.8139 -0.0226
46184SOL    HW243238   2.204   2.231  -0.006 -1.1481  0.0339 -0.5481
46185SOL     OW43239   5.701   4.499   1.753  0.0879  0.2207  0.0382
46185SOL    HW143240   5.783   4.476   1.795  0.1410  1.4037  0.6292
46185SOL    HW243241   5.720   4.494   1.659  0.1778 -1.7097  0.1294
46186SOL     OW43242   0.010   6.288   2.106 -0.6628  0.7064 -0.0911
46186SOL    HW143243   0.001   6.334   2.022  0.6694  1.1502 -0.0136
46186SOL    HW243244   0.052   6.205   2.083 -2.2915 -0.1569 -0.1180
46187SOL     OW43245   3.803   3.544   3.886  0.2449 -0.4422  0.0284
46187SOL    HW143246   3.774   3.453   3.882 -0.9779 -0.0372 -1.6847
46187SOL    HW243247   3.723   3.595   3.881  0.9973  0.7187 -0.8047
46188SOL     OW43248   1.883  11.696   1.131  0.0314 -0.2210 -0.0045
46188SOL    HW143249   1.963  11.672   1.085 -0.7521 -0.2175 -1.4150
46188SOL    HW243250   1.816  11.702   1.063 -0.4650  3.1206  0.5950
46189SOL     OW43251   7.458  11.948  11.285 -0.1471 -0.2929 -0.3851
46189SOL    HW143252   7.376  11.908  11.256 -0.8144  1.3284 -0.8571
46189SOL    HW243253   7.458  12.035  11.245  0.6100  0.6921  1.6032
46190SOL     OW43254   1.500   6.263   2.566 -0.3254  0.1832  0.2930
46190SOL    HW143255   1.577   6.228   2.611 -1.0942 -0.7390  0.9381
46190SOL    HW243256   1.534   6.334   2.511  1.4766 -2.1594 -1.8278
46191SOL     OW43257  11.875   7.494   3.950  0.1814  0.0162  0.2826
46191SOL    HW143258  11.888   7.588   3.938 -1.3672  0.2568  0.3474
46191SOL    HW243259  11.910   7.476   4.037  3.4853 -0.1215 -0.9163
46192SOL     OW43260   9.632   3.017   8.022 -0.3646  0.0922 -0.0622
46192SOL    HW143261   9.602   2.926   8.013  0.1019 -0.0332 -0.4252
46192SOL    HW243262   9.617   3.055   7.936  0.9530 -0.1174 -0.4123
46193SOL     OW43263   7.075  10.114   4.593  0.2934 -0.5333 -0.2341
46193SOL    HW143264   6.997  10.126   4.538 -0.8460  0.5236  1.4957
46193SOL    HW243265   7.064  10.178   4.663  2.6702 -0.4865  0.1606
46194SOL     OW43266   5.028   1.408   6.927 -0.3790 -0.0637  0.5526
46194SOL    HW143267   4.986   1.493   6.918  1.0450  0.5023 -2.0067
46194SOL    HW243268   5.107   1.425   6.979  0.4022  0.4569 -0.7426
46195SOL     OW43269   7.763   1.178   3.561 -0.4633  0.3146  0.4546
46195SOL    HW143270   7.710   1.101   3.580  0.2379  0.0384  1.3507
46195SOL    HW243271   7.760   1.186   3.466  0.6955 -1.7390  0.1859
46196SOL     OW43272   1.636   8.124  10.511 -0.0650 -0.5539 -0.3883
46196SOL    HW143273   1.688   8.158  10.584 -0.5807  0.2629 -0.3882
46196SOL    HW243274   1.700   8.087  10.451  0.4471 -0.2772 -0.0205
46197SOL     OW43275   0.677   8.948  11.849  0.0124 -0.8810  0.8586
46197SOL    HW143276   0.747   8.959  11.785 -0.9462 -1.1427 -0.2516
46197SOL    HW243277   0.629   8.871  11.821 -2.7093  1.0962 -0.3535
46198SOL     OW43278   8.128  10.444   2.966  0.0684 -0.5525  0.2264
46198SOL    HW143279   8.154  10.431   2.875  3.1179  3.1701  0.2991
46198SOL    HW243280   8.206  10.480   3.009 -2.6211  2.8644  2.9483
46199SOL     OW43281   4.677   9.522   7.179 -0.1638 -0.4033  0.1062
46199SOL    HW143282   4.616   9.586   7.216  0.1745  0.2063 -0.3638
46199SOL    HW243283   4.695   9.462   7.251 -1.0629 -0.4092  0.3407
46200SOL     OW43284   6.390   6.138   9.428 -0.0256 -0.3253  0.1595
46200SOL    HW143285   6.462   6.139   9.364 -0.1905 -0.9261 -0.0336
46200SOL    HW243286   6.365   6.046   9.435 -0.0542 -0.2616  1.0432
46201SOL     OW43287   3.750   0.507   8.930  0.2454 -0.0829 -0.0571
46201SOL    HW143288   3.671   0.537   8.975  0.4448 -0.0066  0.2446
46201SOL    HW243289   3.718   0.470   8.847  0.0578  1.6223 -0.7813
46202SOL     OW43290   5.393   3.862   9.235 -0.4487 -0.8865  0.4196
46202SOL    HW143291   5.423   3.877   9.145  1.5655 -3.1587  0.6232
46202SOL    HW243292   5.395   3.949   9.275  2.3577 -0.3118 -0.7059
46203SOL     OW43293   4.933   6.227   0.434 -0.1460 -0.2379  0.0865
46203SOL    HW143294   4.897   6.198   0.518 -0.6022 -0.0403 -0.0381
46203SOL    HW243295   4.898   6.316   0.422  1.8207  0.7001  0.8250
46204SOL     OW43296   7.659   9.291   2.123 -0.0528 -0.1706 -0.6497
46204SOL    HW143297   7.583   9.277   2.066 -0.5977  0.2411 -0.0529
46204SOL    HW243298   7.642   9.376   2.164  0.3445 -0.4330  0.0814
46205SOL     OW43299  10.701   3.470   6.785 -0.0412  0.2750  0.2656
46205SOL    HW143300  10.629   3.424   6.743  1.3668 -1.3888 -0.4195
46205SOL    HW243301  10.659   3.544   6.830 -1.8599  0.9995 -2.3699
46206SOL     OW43302   4.022   6.770   6.460  0.4055 -0.5519  0.2056
46206SOL    HW143303   4.090   6.720   6.414 -0.8898 -0.3838 -2.0612
46206SOL    HW243304   3.964   6.703   6.496 -0.0796 -0.7182 -0.8460
46207SOL     OW43305   2.898  11.527   2.650 -0.1795 -0.3759 -0.4232
46207SOL    HW143306   2.913  11.483   2.734 -0.5095  1.7632  0.8562
46207SOL    HW243307   2.951  11.607   2.655 -1.4849  0.6191 -1.5398
46208SOL     OW43308   8.821   2.577   7.052  0.1045  0.2351 -0.4203
46208SOL    HW143309   8.832   2.623   7.135  0.1968 -0.9486  0.2503
46208SOL    HW243310   8.775   2.497   7.075 -0.9231  0.4239 -1.7032
46209SOL     OW43311   9.481   5.914   2.895  0.1758  0.2919 -0.1569
46209SOL    HW143312   9.559   5.971   2.893  1.0056 -0.7153  1.3772
46209SOL    HW243313   9.415   5.966   2.941  0.9503  0.0522  1.3007
46210SOL     OW43314   4.172   5.253   5.787 -0.4220  0.0170 -0.5995
46210SOL    HW143315   4.248   5.227   5.839 -0.9277 -0.4955 -0.0905
46210SOL    HW243316   4.172   5.194   5.712 -0.4777 -0.1860 -0.4428
46211SOL     OW43317  10.995   6.040   7.411  0.3715  0.1207  0.6031
46211SOL    HW143318  10.947   6.063   7.332  2.0178 -4.5016 -2.1284
46211SOL    HW243319  11.081   6.082   7.400  1.2700 -1.9980 -1.2493
46212SOL     OW43320  11.377   2.360   4.157 -0.0019  0.6523 -0.0203
46212SOL    HW143321  11.418   2.346   4.072  1.7770  1.0774  0.7267
46212SOL    HW243322  11.283   2.360   4.139  0.3175 -0.0064 -1.8566
46213SOL     OW43323   4.719   2.920   5.698 -0.7019 -0.4036 -0.6992
46213SOL    HW143324   4.761   2.912   5.612  0.4607  0.7094 -0.2595
46213SOL    HW243325   4.724   2.832   5.735  2.8090 -0.0355  0.0036
46214SOL     OW43326   6.023   0.055   5.594 -0.3561 -0.1673 -0.3977
46214SOL    HW143327   5.985   0.103   5.667 -0.5043 -1.1443  0.1824
46214SOL    HW243328   5.948   0.022   5.545 -0.2590 -0.3074 -0.4539
46215SOL     OW43329  10.031   0.513   6.414  0.1882 -0.3870 -0.1739
46215SOL    HW143330   9.986   0.584   6.368  1.0042  0.9061  0.9409
46215SOL    HW243331  10.043   0.546   6.503 -0.3440 -2.3635  0.6830
46216SOL     OW43332   9.843  10.663   6.660 -0.3820  0.3724 -0.6036
46216SOL    HW143333   9.921  10.618   6.629 -0.4942 -0.7754  0.7200
46216SOL    HW243334   9.865  10.756   6.653  0.0156  0.1520 -2.9493
46217SOL     OW43335   5.348   2.663   2.817 -0.1148 -0.0857 -0.5020
46217SOL    HW143336   5.410   2.713   2.765  0.3238  0.1168  0.1976
46217SOL    HW243337   5.340   2.579   2.772  0.0638  0.1778 -1.0242
46218SOL     OW43338  10.914   3.839   4.056 -0.0224  0.9461  0.8980
46218SOL    HW143339  10.863   3.771   4.099  3.7286 -2.0411  1.1798
46218SOL    HW243340  10.953   3.889   4.129  2.5718 -1.1279  1.1109
46219SOL     OW43341   9.607   0.249  10.289  0.1532  0.0334 -0.1727
46219SOL    HW143342   9.579   0.340  10.276  3.0146  1.1194  0.5197
46219SOL    HW243343   9.662   0.230  10.213 -1.7483 -1.7903 -1.1836
46220SOL     OW43344  11.219   2.089   0.660  0.2841  0.0246  0.4152
46220SOL    HW143345  11.304   2.100   0.618  0.2678 -1.2872 -0.0079
46220SOL    HW243346  11.160   2.065   0.589 -0.4964  1.0672  0.6772
46221SOL     OW43347   6.055   3.330   5.752 -0.5477  0.4631 -0.5491
46221SOL    HW143348   6.126   3.298   5.808 -1.3563 -0.6154 -0.1033
46221SOL    HW243349   6.095   3.340   5.666  0.6008  1.6969  0.0971
46222SOL     OW43350   8.474   0.251   3.925  0.9361  0.0913  0.1971
46222SOL    HW143351   8.511   0.193   3.859  2.1569 -2.0038  2.5511
46222SOL    HW243352   8.394   0.207   3.953  0.3795  1.0070  0.0730
46223SOL     OW43353   7.374   9.283  11.794  0.4028  0.2420 -0.3460
46223SOL    HW143354   7.382   9.238  11.710  1.6306  0.9046 -0.5990
46223SOL    HW243355   7.370   9.376  11.772 -2.4667  0.3425  0.1439
46224SOL     OW43356   5.410   9.784   5.165 -0.1120 -0.7815 -0.0396
46224SOL    HW143357   5.484   9.805   5.222 -0.1307  1.4388 -0.7342
46224SOL    HW243358   5.382   9.697   5.193  2.5183 -1.5552  0.4774
46225SOL     OW43359   3.807   8.380   5.169  0.2101  0.3661 -0.1605
46225SOL    HW143360   3.871   8.444   5.137 -0.5548  0.5929 -1.3054
46225SOL    HW243361   3.723   8.411   5.134 -0.4058 -0.4058  0.5892
46226SOL     OW43362  11.190   3.158   4.488 -0.6354 -0.1135  0.3784
46226SOL    HW143363  11.141   3.100   4.430  0.5929 -0.2208 -0.5974
46226SOL    HW243364  11.158   3.136   4.576 -0.4344 -2.0851  0.0135
46227SOL     OW43365   0.882   9.749   5.175 -0.5450  0.0993 -0.0980
46227SOL    HW143366   0.911   9.828   5.221  1.6128  0.0331 -1.2003
46227SOL    HW243367   0.930   9.751   5.092 -0.5793 -2.2664 -0.2367
46228SOL     OW43368   5.930   1.609   1.327  0.3917 -0.2663  0.1542
46228SOL    HW143369   5.947   1.697   1.362  0.5968  0.0533 -0.7231
46228SOL    HW243370   6.018   1.570   1.317  0.2506 -1.0894  1.7918
46229SOL     OW43371  10.942   9.327   6.266  0.3018 -0.3637  0.6794
46229SOL    HW143372  10.873   9.358   6.325  1.2391 -0.9802  2.1394
46229SOL    HW243373  10.992   9.406   6.245 -1.1430  0.2113 -0.8957
46230SOL     OW43374  10.762   6.955   6.562  0.0384  0.1245 -0.3278
46230SOL    HW143375  10.735   7.029   6.617  0.7607  1.8796 -2.2004
46230SOL    HW243376  10.698   6.952   6.492  0.1905 -0.8618 -0.4424
46231SOL     OW43377   5.068   0.176   2.488 -0.0356  0.0440 -0.0580
46231SOL    HW143378   5.110   0.125   2.419 -0.6709 -0.4586 -0.0785
46231SOL    HW243379   5.076   0.121   2.566 -0.7500 -0.1055 -0.0863
46232SOL     OW43380   6.957   2.361   5.391 -0.2134  0.3728 -0.2134
46232SOL    HW143381   7.043   2.323   5.407  0.6900  2.0643 -0.7740
46232SOL    HW243382   6.896   2.290   5.408  1.2762 -0.8355  0.3472
46233SOL     OW43383   8.062   7.743  11.525  0.8077 -0.4734 -0.4104
46233SOL    HW143384   7.998   7.789  11.579  0.0851 -1.6640 -0.2208
46233SOL    HW243385   8.134   7.723  11.585  0.7546 -0.3342 -0.2991
46234SOL     OW43386   7.558  11.567   5.870 -0.5960  0.4574 -0.1752
46234SOL    HW143387   7.622  11.546   5.802 -0.2863  0.3451  0.1473
46234SOL    HW243388   7.495  11.495   5.865 -0.6138  0.4887 -0.3959
46235SOL     OW43389   6.589   7.019   9.081 -0.4601 -0.1425  0.0744
46235SOL    HW143390   6.668   6.968   9.094 -0.4776 -0.1269  0.2483
46235SOL    HW243391   6.617   7.110   9.092 -0.0523  0.0292 -2.0250
46236SOL     OW43392   3.639  10.957   5.775  0.1451  0.6268  0.3307
46236SOL    HW143393   3.686  10.985   5.853  2.0120  1.3442 -0.9870
46236SOL    HW243394   3.694  10.888   5.737 -1.2310 -0.4134  0.1552
46237SOL     OW43395   6.108   1.085   1.982  0.4744 -0.5118 -0.5515
46237SOL    HW143396   6.018   1.115   1.991  0.3510 -0.5926 -1.4253
46237SOL    HW243397   6.131   1.052   2.069  0.3843  1.4340  0.2662
46238SOL     OW43398   0.413   5.287  10.025  0.3778  0.4037  0.0637
46238SOL    HW143399   0.338   5.311   9.971  0.3957  1.7541  0.6080
46238SOL    HW243400   0.402   5.338  10.105  1.6191  0.2360  0.3631
46239SOL     OW43401   6.458   7.675  11.116  0.0683  0.6142  0.6195
46239SOL    HW143402   6.448   7.703  11.025  0.3324  3.1226  1.3084
46239SOL    HW243403   6.416   7.589  11.119  1.9289 -0.5483 -2.3215
46240SOL     OW43404   5.073  11.919   1.516 -0.7319 -0.5994 -0.0019
46240SOL    HW143405   5.155  11.901   1.469 -1.4467 -0.2898 -1.3943
46240SOL    HW243406   5.099  11.921   1.609  0.8671 -0.3545 -0.4261
46241SOL     OW43407  11.727   6.343   0.427 -0.0366  0.0467  0.8373
46241SOL    HW143408  11.766   6.283   0.364 -0.6459  0.2239  0.2761
46241SOL    HW243409  11.788   6.416   0.433  0.1202 -0.0670  0.6064
46242SOL     OW43410   5.042  10.042   9.553  0.5986 -0.0854 -0.6468
46242SOL    HW143411   4.955  10.080   9.546  0.5856  0.2372  0.9441
46242SOL    HW243412   5.027   9.951   9.575  0.6712 -0.3705 -1.7042
46243SOL     OW43413   6.361   7.313   9.254  0.0357 -0.2615 -0.1604
46243SOL    HW143414   6.455   7.327   9.267  0.3154  0.5578 -2.5583
46243SOL    HW243415   6.319   7.382   9.305  0.9669  2.0900 -2.3661
46244SOL     OW43416   4.319   4.304   5.139  0.1860  0.0449 -0.1146
46244SOL    HW143417   4.224   4.313   5.133 -0.1072 -1.5876  1.3286
46244SOL    HW243418   4.340   4.329   5.229  1.0738 -0.0315 -0.2856
46245SOL     OW43419   6.673   5.260  11.304 -0.1161  0.6647 -0.1655
46245SOL    HW143420   6.625   5.332  11.262  0.4115  1.0029 -0.1917
46245SOL    HW243421   6.692   5.292  11.392 -0.7587  0.1590  0.1714
46246SOL     OW43422   7.582   4.228   8.053 -0.0034  0.0444  0.4411
46246SOL    HW143423   7.579   4.192   8.142 -1.0005  0.3490  0.5404
46246SOL    HW243424   7.593   4.322   8.065 -1.0328  0.2043  0.2888
46247SOL     OW43425   8.576  10.955   6.530 -0.5120 -0.5567  0.0560
46247SOL    HW143426   8.483  10.973   6.521 -0.0446  1.3347 -1.6600
46247SOL    HW243427   8.598  10.987   6.618 -1.3284 -0.3070  0.1797
46248SOL     OW43428   7.134   5.789   9.159 -0.0774  0.3315  0.0021
46248SOL    HW143429   7.095   5.876   9.164  0.2111  0.4316  0.5750
46248SOL    HW243430   7.182   5.779   9.241 -0.6568 -0.6315  0.2495
46249SOL     OW43431   3.383   1.967   0.168  0.2423  0.0690  0.2724
46249SOL    HW143432   3.467   2.010   0.183  0.2103  0.1280  0.2819
46249SOL    HW243433   3.373   1.908   0.243 -0.5825  1.3904  1.2521
46250SOL     OW43434   8.649   0.118   6.624  0.3026 -0.1660 -0.0559
46250SOL    HW143435   8.602   0.068   6.690  1.3530 -1.4794 -0.2576
46250SOL    HW243436   8.740   0.117   6.653  0.4835  0.8410 -0.5569
46251SOL     OW43437  11.433   6.050   4.081  0.3134 -1.0125 -0.3008
46251SOL    HW143438  11.412   5.964   4.044 -1.0639 -1.3949  1.2203
46251SOL    HW243439  11.416   6.040   4.175 -0.0519  0.9819 -0.1095
46252SOL     OW43440   1.384   1.203  10.915 -0.1112  0.4213  0.2778
46252SOL    HW143441   1.305   1.256  10.901 -0.2853  0.0583 -0.1357
46252SOL    HW243442   1.380   1.178  11.007 -0.6803  0.0884  0.1679
46253SOL     OW43443   9.471   6.256   0.191 -0.2918 -0.2502  0.0472
46253SOL    HW143444   9.509   6.250   0.103  1.9831 -0.3371  0.9513
46253SOL    HW243445   9.482   6.348   0.215  0.7616 -0.5631  0.8695
46254SOL     OW43446   0.805   7.471   2.037  0.1875  0.1217  0.1993
46254SOL    HW143447   0.892   7.503   2.060  0.7748 -0.7417 -0.7194
46254SOL    HW243448   0.769   7.440   2.120  0.9245  0.0902  0.5206
46255SOL     OW43449   4.268   1.428  11.740  0.8969 -0.1211 -0.3691
46255SOL    HW143450   4.331   1.356  11.742  1.0192 -0.0259  1.6460
46255SOL    HW243451   4.277   1.470  11.826 -1.0814  0.6244 -0.4688
46256SOL     OW43452   6.455  10.389   2.811  0.6600  0.3021  0.0311
46256SOL    HW143453   6.398  10.387   2.734  1.2106  0.3428 -0.3819
46256SOL    HW243454   6.508  10.310   2.804  1.0496  0.5547  0.1090
46257SOL     OW43455   7.646   1.772   3.207  0.1427 -0.4323 -0.1927
46257SOL    HW143456   7.625   1.862   3.183  0.2012 -0.7481 -1.5063
46257SOL    HW243457   7.725   1.779   3.261  0.4523  0.2583 -0.7321
46258SOL     OW43458   2.958   2.249   8.497 -0.4417 -0.0665 -0.6664
46258SOL    HW143459   2.946   2.339   8.527 -1.3760 -0.7730  1.2774
46258SOL    HW243460   3.033   2.253   8.437 -0.2330  1.9278 -0.3350
46259SOL     OW43461   2.656   1.185   2.165  0.0061  0.3988  0.3194
46259SOL    HW143462   2.680   1.228   2.247  0.4953  1.8265 -0.5384
46259SOL    HW243463   2.691   1.242   2.097 -1.8351  0.1288 -0.9239
46260SOL     OW43464  11.151  11.150   2.241  0.5952 -0.2554 -0.3778
46260SOL    HW143465  11.123  11.061   2.263  1.6979 -0.8670 -1.3422
46260SOL    HW243466  11.070  11.196   2.219 -0.0929 -0.7399  1.0122
46261SOL     OW43467   6.469   0.265  10.918  0.5933 -0.5345  0.5643
46261SOL    HW143468   6.452   0.315  10.838  1.9799  1.9287  1.7053
46261SOL    HW243469   6.529   0.196  10.891 -0.1775 -0.7200 -0.7747
46262SOL     OW43470   5.170   2.661   7.844  0.0701  0.5490  0.0956
46262SOL    HW143471   5.102   2.641   7.780  0.8619  1.8304 -1.2142
46262SOL    HW243472   5.143   2.616   7.923 -1.5124 -0.1977 -0.8320
46263SOL     OW43473   8.596   5.922  10.032 -0.2207  0.5726  0.2769
46263SOL    HW143474   8.679   5.958  10.001  0.4389 -1.4069 -0.4254
46263SOL    HW243475   8.531   5.956   9.970  0.8645 -2.1010 -2.5828
46264SOL     OW43476   5.247  10.181  11.093  0.3406 -0.3472 -0.3397
46264SOL    HW143477   5.157  10.182  11.062  0.1975 -1.4037 -0.0046
46264SOL    HW243478   5.300  10.190  11.013 -0.0445  0.9238 -0.4756
46265SOL     OW43479   3.654   5.035   9.556 -0.0295 -0.8689 -0.0649
46265SOL    HW143480   3.659   5.121   9.599  1.1213 -1.2024  0.4982
46265SOL    HW243481   3.565   5.005   9.574 -0.8234  0.6462 -1.1666
46266SOL     OW43482   0.498   6.441   4.570  0.2067  0.2437  0.3664
46266SOL    HW143483   0.498   6.374   4.639  2.1663  0.4213  0.6067
46266SOL    HW243484   0.483   6.523   4.615 -0.8232  0.1299  0.2522
46267SOL     OW43485   6.640   8.254  11.847  0.2719  0.4221 -0.4911
46267SOL    HW143486   6.717   8.203  11.870  1.6418  1.5271 -2.3625
46267SOL    HW243487   6.622   8.231  11.756 -0.0301  2.0457 -0.8789
46268SOL     OW43488   5.331   7.119   2.591 -0.1732 -0.0938 -0.5080
46268SOL    HW143489   5.408   7.166   2.622 -1.0823  1.3997 -0.4118
46268SOL    HW243490   5.341   7.031   2.626  0.0631  0.8431  1.9374
46269SOL     OW43491   8.563   6.257   9.340 -0.6931  0.3383 -0.1397
46269SOL    HW143492   8.574   6.320   9.269 -0.5177  1.7525  1.1003
46269SOL    HW243493   8.546   6.174   9.295 -1.0553  1.2666 -1.8190
46270SOL     OW43494  10.815  10.959  11.091 -0.9169 -0.2536 -0.5111
46270SOL    HW143495  10.813  11.025  11.160 -1.5337  0.7909 -1.5045
46270SOL    HW243496  10.906  10.929  11.089 -0.7656  0.1285  0.3442
46271SOL     OW43497   9.962   3.505   4.573 -0.0745  0.2014 -0.0631
46271SOL    HW143498  10.005   3.567   4.633  0.9179 -1.8137  1.4152
46271SOL    HW243499  10.032   3.479   4.513 -0.1789 -0.3508  0.0556
46272SOL     OW43500  10.104   2.846  10.314 -0.3765 -0.7659  0.2993
46272SOL    HW143501  10.084   2.866  10.223  1.4170 -1.4652 -0.2747
46272SOL    HW243502  10.137   2.928  10.351 -1.3749 -0.4046  0.4410
46273SOL     OW43503   9.010   8.988   0.422 -0.3372 -0.1214  0.2398
46273SOL    HW143504   8.985   8.940   0.343 -0.3645 -0.8555  0.6847
46273SOL    HW243505   8.953   8.952   0.491 -0.5571  0.7509  0.5284
46274SOL     OW43506   3.944   8.689   4.058 -0.2824  0.2049 -0.2747
46274SOL    HW143507   3.961   8.680   3.964  0.2141 -2.9716  0.0019
46274SOL    HW243508   4.010   8.750   4.089  0.2878  0.4082 -1.8145
46275SOL     OW43509   0.608   0.911   2.629 -0.2325 -0.1437  0.6421
46275SOL    HW143510   0.673   0.894   2.561 -0.5020  0.0327  0.3359
46275SOL    HW243511   0.585   1.003   2.618 -2.3200 -0.7434 -0.8802
46276SOL     OW43512   5.763   9.207   4.070  0.0497 -0.0778 -0.9376
46276SOL    HW143513   5.673   9.175   4.066 -0.2452  0.3951  0.7547
46276SOL    HW243514   5.816   9.135   4.036 -0.7018 -1.8561  1.3911
46277SOL     OW43515   8.887   0.480   5.069 -0.0148  0.8533 -0.8133
46277SOL    HW143516   8.795   0.489   5.094 -0.0116  0.2551 -0.5916
46277SOL    HW243517   8.936   0.492   5.150  0.0570  0.2590 -0.7638
46278SOL     OW43518   0.993   2.737   7.763  0.3877 -0.0756 -0.0404
46278SOL    HW143519   1.042   2.799   7.709  1.0929 -1.2535 -0.8016
46278SOL    HW243520   1.006   2.653   7.720 -0.1400 -0.8418  1.2456
46279SOL     OW43521   6.217   5.570  10.052  0.0755 -0.0188  0.3839
46279SOL    HW143522   6.312   5.570  10.041  0.1108  1.2026  0.5562
46279SOL    HW243523   6.187   5.497   9.998  1.1892 -1.0829  1.1436
46280SOL     OW43524   2.518   9.124   1.478 -0.2810 -0.1377  0.1107
46280SOL    HW143525   2.441   9.181   1.471 -0.3564 -0.1198  0.9832
46280SOL    HW243526   2.555   9.122   1.389 -1.2018 -0.0292 -0.2855
46281SOL     OW43527   0.613   5.480  11.809 -0.1638 -0.4811 -0.1789
46281SOL    HW143528   0.638   5.422  11.738 -3.2367 -0.2066 -1.6661
46281SOL    HW243529   0.635   5.568  11.778  0.0178 -0.4803 -0.0503
46282SOL     OW43530   4.638   6.211   4.028 -0.0411 -0.0118  0.3783
46282SOL    HW143531   4.707   6.168   4.079 -0.5184 -1.6079 -0.2446
46282SOL    HW243532   4.671   6.211   3.938 -1.0566 -1.3745 -0.0417
46283SOL     OW43533   0.681   3.559   9.765  0.0805  0.6119 -0.0876
46283SOL    HW143534   0.731   3.609   9.701 -1.8565  2.3640 -0.3306
46283SOL    HW243535   0.658   3.623   9.832  0.6485 -0.8229  1.5258
46284SOL     OW43536  11.382   7.066  10.553  0.2065  0.3754 -0.2757
46284SOL    HW143537  11.334   6.983  10.548 -0.7434  0.8756  0.1360
46284SOL    HW243538  11.396   7.080  10.646  0.8322  0.4272 -0.3728
46285SOL     OW43539   9.341   9.518   6.413 -0.8556  0.0695  0.0838
46285SOL    HW143540   9.390   9.600   6.410 -1.4644  0.4260 -0.2647
46285SOL    HW243541   9.365   9.479   6.498  0.7278 -0.2164 -0.4669
46286SOL     OW43542   1.227   1.500   9.917 -0.2683  0.2778 -0.0161
46286SOL    HW143543   1.220   1.555   9.839  0.1458 -1.8792 -1.6653
46286SOL    HW243544   1.143   1.455   9.921 -0.3987  0.5957  0.9896
46287SOL     OW43545   6.052   9.898   1.121 -0.7347 -0.1612  0.2197
46287SOL    HW143546   5.974   9.948   1.100 -0.3347 -0.0085 -0.9411
46287SOL    HW243547   6.042   9.877   1.214 -1.6659  0.7075  0.3352
46288SOL     OW43548   1.804   6.388   9.359  0.0923  0.2779 -0.0744
46288SOL    HW143549   1.786   6.427   9.444  1.3154  0.2736  0.1921
46288SOL    HW243550   1.796   6.460   9.297  0.0618  0.4628  0.1449
46289SOL     OW43551   5.075   8.637   9.494 -0.0199  0.1437  0.8256
46289SOL    HW143552   5.073   8.726   9.527  1.0215  0.3871  0.2656
46289SOL    HW243553   5.050   8.644   9.402 -2.1532 -0.4387  1.3059
46290SOL     OW43554   1.661  11.690  11.645 -0.4222  0.3640 -0.1215
46290SOL    HW143555   1.647  11.660  11.734 -0.9605  0.1656 -0.2696
46290SOL    HW243556   1.672  11.610  11.594  0.3503  0.4886 -0.1642
46291SOL     OW43557   0.700  11.843   0.343  0.4930  0.4266  0.2000
46291SOL    HW143558   0.672  11.880   0.260 -2.3754 -0.3891  0.7059
46291SOL    HW243559   0.654  11.894   0.409 -0.0520 -1.1533  1.0954
46292SOL     OW43560   0.914   6.399  10.571  0.4232  0.0945 -0.5841
46292SOL    HW143561   0.902   6.305  10.586  1.0498 -0.4148 -2.8778
46292SOL    HW243562   0.917   6.437  10.659  1.4661 -2.1909  0.4628
46293SOL     OW43563   1.184   6.980   0.273 -0.0865 -0.5094 -0.3645
46293SOL    HW143564   1.180   6.885   0.284  0.3469 -0.6600 -1.3791
46293SOL    HW243565   1.096   7.006   0.247 -0.5654 -0.4324  1.2608
46294SOL     OW43566   3.151   5.924  11.521  0.5250  0.0548  0.4369
46294SOL    HW143567   3.150   5.882  11.435  0.0466  0.0903  0.4236
46294SOL    HW243568   3.061   5.953  11.535  0.8671  1.1913  0.3953
46295SOL     OW43569   1.395   0.771   4.627 -0.3559  0.0309  0.6130
46295SOL    HW143570   1.344   0.841   4.668  2.4263  2.1185  0.8619
46295SOL    HW243571   1.428   0.719   4.700 -0.4600 -0.0705  0.5886
46296SOL     OW43572   2.775  11.436   6.083 -0.3788  0.0415  0.1117
46296SOL    HW143573   2.806  11.487   6.009  0.8612 -0.1623  0.4696
46296SOL    HW243574   2.853  11.391   6.116 -1.1705 -0.9515  0.6858
46297SOL     OW43575   9.624   0.861   8.264  0.8018 -0.6160  0.4261
46297SOL    HW143576   9.562   0.926   8.232  0.6472 -2.1933 -2.8753
46297SOL    HW243577   9.709   0.904   8.257  0.5129 -0.0817  0.1627
46298SOL     OW43578   2.253   2.385   1.397 -0.0738 -0.2835 -0.4067
46298SOL    HW143579   2.221   2.460   1.347 -1.9629 -1.6549 -1.3979
46298SOL    HW243580   2.330   2.417   1.443  0.7323  1.5271 -2.8331
46299SOL     OW43581   2.511   5.999   6.643 -0.2650  0.5620  0.0644
46299SOL    HW143582   2.439   6.031   6.589  0.7225  1.1833 -0.9163
46299SOL    HW243583   2.488   6.027   6.732 -1.8445 -0.3586 -0.0121
46300SOL     OW43584   2.759   6.412   1.154  0.0514 -0.7684 -0.0375
46300SOL    HW143585   2.806   6.396   1.236 -0.8826 -0.0298  0.6673
46300SOL    HW243586   2.715   6.328   1.135  0.0163 -0.8504  0.3965
46301SOL     OW43587   1.248   9.138   1.978 -0.1451 -0.6020 -0.1483
46301SOL    HW143588   1.189   9.114   2.050  0.6333 -0.8980  0.4029
46301SOL    HW243589   1.335   9.120   2.012  0.4451  1.9753 -0.0981
46302SOL     OW43590   7.150   5.783   5.400  0.1577  0.8252  0.5971
46302SOL    HW143591   7.231   5.731   5.392 -1.0388 -0.8681 -1.7955
46302SOL    HW243592   7.142   5.829   5.317 -1.7590  0.2621  0.4223
46303SOL     OW43593   2.355   8.691   2.441  0.3629 -0.4984  0.2406
46303SOL    HW143594   2.424   8.632   2.470  0.5449 -0.6043 -0.4076
46303SOL    HW243595   2.321   8.730   2.522 -0.2744 -2.0545  0.7509
46304SOL     OW43596   3.510   0.817   7.184  0.6187  0.0283  0.3438
46304SOL    HW143597   3.433   0.835   7.130  1.0556 -0.3678 -0.4442
46304SOL    HW243598   3.479   0.819   7.274  0.2623  2.8000  0.2298
46305SOL     OW43599   2.594   9.142   5.146  0.5382 -0.4220 -0.2769
46305SOL    HW143600   2.526   9.146   5.078  0.4754 -0.3829 -0.2124
46305SOL    HW243601   2.650   9.070   5.119  1.0838  0.2153 -0.8990
46306SOL     OW43602  10.677  11.966   8.847 -0.1996 -0.2418 -0.0291
46306SOL    HW143603  10.674  11.879   8.807  0.2234 -0.1357 -0.3018
46306SOL    HW243604  10.770  11.989   8.847  0.1577 -1.2531  3.2467
46307SOL     OW43605   9.650   1.050   6.089  0.1066  0.0262 -0.0683
46307SOL    HW143606   9.654   1.139   6.122  1.9978  0.3803 -1.1154
46307SOL    HW243607   9.717   1.046   6.021 -0.1548 -2.1030 -0.2860
46308SOL     OW43608   1.682   9.235   9.589  0.4458 -0.2660  0.0276
46308SOL    HW143609   1.681   9.231   9.685 -1.1092  0.3694  0.0646
46308SOL    HW243610   1.605   9.288   9.567  1.6348  0.8949 -1.5113
46309SOL     OW43611   3.584   2.889   2.398 -0.0529  0.3627  0.5140
46309SOL    HW143612   3.645   2.867   2.469 -0.0037 -1.1718  0.0361
46309SOL    HW243613   3.638   2.933   2.333  0.5285 -0.7531  0.2112
46310SOL     OW43614   2.967   9.446  10.671  0.3135  0.1325  0.4944
46310SOL    HW143615   2.975   9.528  10.623  2.0148  0.4259  1.2257
46310SOL    HW243616   2.901   9.396  10.623  0.2771  1.3595 -0.7676
46311SOL     OW43617   0.476   0.139  11.651  0.8274  0.2476 -0.1309
46311SOL    HW143618   0.538   0.161  11.720  2.0674  2.1916 -1.7342
46311SOL    HW243619   0.484   0.044  11.642  1.3286  0.0756  1.7134
46312SOL     OW43620   5.367   1.559   0.723 -0.3057 -0.2003 -0.4777
46312SOL    HW143621   5.342   1.480   0.773  1.2592 -1.4192 -1.5377
46312SOL    HW243622   5.301   1.624   0.749 -1.0902 -1.5394  1.1798
46313SOL     OW43623   9.591   7.311   0.029  0.1512  0.7698  0.1397
46313SOL    HW143624   9.636   7.358  -0.041  0.9768 -0.7565 -0.4114
46313SOL    HW243625   9.584   7.374   0.100 -0.0161  2.1230 -1.0440
46314SOL     OW43626   1.314   4.543   6.050  0.4408  0.0824  0.3017
46314SOL    HW143627   1.273   4.589   6.124 -1.7328  0.1774 -0.8841
46314SOL    HW243628   1.328   4.454   6.082 -0.0774  0.2350  0.9819
46315SOL     OW43629   0.057   7.602   1.088 -0.3766  0.3015 -0.6142
46315SOL    HW143630   0.073   7.514   1.122 -0.6741  0.3934 -0.2387
46315SOL    HW243631  -0.012   7.591   1.023 -1.1919  0.4255  0.2288
46316SOL     OW43632   9.703   3.024  10.436 -0.3678 -0.4417  0.3987
46316SOL    HW143633   9.747   3.107  10.418 -1.0853 -0.6865 -3.3040
46316SOL    HW243634   9.773   2.965  10.465  0.7449  0.6479  0.0147
46317SOL     OW43635   5.224   7.395   0.645  0.0913  0.3941 -0.1709
46317SOL    HW143636   5.292   7.455   0.676  1.3471 -0.6778 -0.7663
46317SOL    HW243637   5.195   7.433   0.563  0.2801  0.6351 -0.1281
46318SOL     OW43638  11.323   9.010  10.381  0.2892 -0.6528  0.5725
46318SOL    HW143639  11.361   8.970  10.459  1.2932  0.7860  0.8609
46318SOL    HW243640  11.337   9.104  10.393 -0.3783 -0.3370 -0.9069
46319SOL     OW43641   3.603   6.251   7.147 -0.0549  0.5665  0.3702
46319SOL    HW143642   3.543   6.186   7.110  0.1077  1.3343 -1.3089
46319SOL    HW243643   3.686   6.205   7.157 -0.2140  0.2305  0.1592
46320SOL     OW43644   7.102   4.345   8.605  0.4871  0.2240  0.0930
46320SOL    HW143645   7.167   4.344   8.535  0.9770 -0.0731  0.5328
46320SOL    HW243646   7.085   4.437   8.621 -0.0748  0.2845 -0.8103
46321SOL     OW43647   9.464   5.774   5.638  0.2908  0.2033 -0.5446
46321SOL    HW143648   9.418   5.695   5.609  0.4568  0.3119 -1.1050
46321SOL    HW243649   9.556   5.756   5.617  0.7207 -0.5244  1.6334
46322SOL     OW43650   9.261   5.803  11.417  0.3876  0.4168 -0.2433
46322SOL    HW143651   9.228   5.758  11.494 -0.9269  0.2007 -0.8866
46322SOL    HW243652   9.189   5.861  11.391  0.3073 -0.3959 -1.9830
46323SOL     OW43653   5.116   6.352   4.378  0.2242  0.7173 -0.0345
46323SOL    HW143654   5.082   6.274   4.421  0.5235 -0.0414 -1.1190
46323SOL    HW243655   5.200   6.369   4.422 -0.3071  1.0423  0.8786
46324SOL     OW43656   4.745   9.481   6.473  0.2093  0.2862  0.5749
46324SOL    HW143657   4.751   9.401   6.421 -2.8737  0.8876 -0.8910
46324SOL    HW243658   4.695   9.456   6.551  0.6436  0.4579  0.9164
46325SOL     OW43659   7.532   6.575   2.762  0.1745  0.0261  0.1002
46325SOL    HW143660   7.480   6.625   2.699 -0.7173  0.3885  1.1051
46325SOL    HW243661   7.608   6.545   2.712  0.7171  2.3221 -0.5863
46326SOL     OW43662   7.236   7.354   7.245 -0.4264 -0.3739  0.1463
46326SOL    HW143663   7.271   7.328   7.331 -0.2714  0.0843  0.2242
46326SOL    HW243664   7.294   7.311   7.182  2.9026  3.5094  0.1870
46327SOL     OW43665  11.025   9.749   3.847  0.1363 -0.2734  0.0332
46327SOL    HW143666  11.094   9.798   3.802  0.3877  0.0945  0.8034
46327SOL    HW243667  11.035   9.659   3.816  0.8416 -0.1856 -0.0071
46328SOL     OW43668  11.713   1.572   0.114  0.1245 -0.2228 -0.5473
46328SOL    HW143669  11.716   1.626   0.035 -2.1717  1.7401  0.5918
46328SOL    HW243670  11.800   1.581   0.153  0.2787  1.4751 -1.1889
46329SOL     OW43671   6.289   2.842  11.240  0.3424 -0.3124  0.3950
46329SOL    HW143672   6.230   2.815  11.171 -0.2338  0.6090  0.5124
46329SOL    HW243673   6.356   2.895  11.196 -0.4443  0.9053  0.6256
46330SOL     OW43674   8.917   8.491   7.200  0.5357  0.3389  0.5636
46330SOL    HW143675   8.840   8.480   7.254  0.5911  2.6792  1.2300
46330SOL    HW243676   8.979   8.425   7.231 -1.0227 -1.3178  0.2543
46331SOL     OW43677   4.502   3.728   3.702  0.3761 -1.1559  0.0421
46331SOL    HW143678   4.545   3.806   3.737  0.2086 -0.5778 -0.9946
46331SOL    HW243679   4.565   3.691   3.640 -0.0306 -1.1275 -0.3986
46332SOL     OW43680  10.352   5.965   4.046 -0.0682 -0.8322  0.0371
46332SOL    HW143681  10.267   5.921   4.040  0.2948 -1.5936  0.3499
46332SOL    HW243682  10.376   5.983   3.955 -0.8217 -0.0858 -0.0275
46333SOL     OW43683   2.723   2.047   4.140 -0.1691  0.5908 -0.2477
46333SOL    HW143684   2.818   2.054   4.126 -0.0640 -0.5161 -0.1276
46333SOL    HW243685   2.714   2.033   4.234 -0.4261  0.2601 -0.3214
46334SOL     OW43686   0.583   2.558   0.243  0.1575  0.2333  0.0650
46334SOL    HW143687   0.492   2.541   0.266  0.5505 -0.8125  0.9701
46334SOL    HW243688   0.613   2.621   0.308  0.3653 -0.2490  0.4474
46335SOL     OW43689   7.013   7.797   5.296  0.2267 -0.0762  0.3586
46335SOL    HW143690   6.940   7.737   5.291  1.0675 -1.2178  1.3578
46335SOL    HW243691   6.981   7.877   5.253 -1.3880 -0.7239  0.2896
46336SOL     OW43692   1.449   5.111   2.325 -0.2416 -0.0416  0.2245
46336SOL    HW143693   1.473   5.125   2.234  1.7239 -2.8485  0.1687
46336SOL    HW243694   1.365   5.065   2.321  0.1698 -0.7712 -0.2378
46337SOL     OW43695   6.642  10.902   0.796  0.6910 -0.2346 -0.2419
46337SOL    HW143696   6.573  10.908   0.861  1.6589 -0.7058  0.8550
46337SOL    HW243697   6.602  10.854   0.723  0.3680 -2.2012  1.1316
46338SOL     OW43698   0.036   5.488   1.853  0.1340  0.2167  0.3797
46338SOL    HW143699  -0.043   5.543   1.848 -0.2435 -0.3879 -0.7781
46338SOL    HW243700   0.096   5.526   1.789  0.2368 -0.1597  0.2482
46339SOL     OW43701   6.042   4.354   1.600 -0.6497  0.1032 -0.0503
46339SOL    HW143702   6.015   4.262   1.588  1.1533 -0.5664  0.7352
46339SOL    HW243703   5.988   4.385   1.672 -2.1993  0.1092 -1.1430
46340SOL     OW43704   2.521  10.042  11.932  0.4415 -0.7400  0.7656
46340SOL    HW143705   2.511  10.119  11.989  1.3619  0.4123 -0.5377
46340SOL    HW243706   2.439  10.038  11.883  1.4185  1.2378 -1.2096
46341SOL     OW43707   6.597   7.908  10.450 -0.1396  0.0183  0.2842
46341SOL    HW143708   6.669   7.929  10.391  1.2021 -0.5099  1.6440
46341SOL    HW243709   6.570   7.820  10.425  0.9958 -0.5470  0.9413
46342SOL     OW43710   7.998   7.348   3.764 -0.6853  0.5522  0.0543
46342SOL    HW143711   7.914   7.319   3.728 -1.1862  1.7482  0.2113
46342SOL    HW243712   7.986   7.343   3.859  0.2044 -1.3962  0.1064
46343SOL     OW43713   9.428   7.114   0.885  0.1210 -0.4087  0.6582
46343SOL    HW143714   9.383   7.051   0.942 -0.0697 -1.7406 -0.8832
46343SOL    HW243715   9.508   7.068   0.858 -0.6364 -0.5416 -1.5151
46344SOL     OW43716   9.796   2.263   7.020 -0.2778 -0.3573 -0.1511
46344SOL    HW143717   9.760   2.342   6.979 -2.1746 -1.3675 -0.5600
46344SOL    HW243718   9.880   2.249   6.977  0.0740  1.3865 -0.1037
46345SOL     OW43719  10.295   5.909   6.869  0.0377 -0.6171  0.4924
46345SOL    HW143720  10.237   5.863   6.929 -0.8314  0.6698  0.6977
46345SOL    HW243721  10.270   5.878   6.782  0.2748 -1.3854  0.6976
46346SOL     OW43722   8.202  11.881   7.539 -0.8669  0.4235 -0.2883
46346SOL    HW143723   8.144  11.900   7.466 -1.6794  1.5158  0.5993
46346SOL    HW243724   8.288  11.912   7.510 -0.8796 -0.3991 -1.2709
46347SOL     OW43725   0.761   4.454   6.762 -0.3155  0.3071 -0.1429
46347SOL    HW143726   0.764   4.409   6.846  3.8342 -0.5282 -0.5515
46347SOL    HW243727   0.707   4.398   6.707 -1.4497 -0.1530  1.3501
46348SOL     OW43728   6.520   0.757  10.690 -0.4143  0.1966 -0.2080
46348SOL    HW143729   6.497   0.742  10.598 -0.6308 -1.2259  0.0561
46348SOL    HW243730   6.614   0.743  10.693 -0.4251  0.1308 -0.1848
46349SOL     OW43731   6.296   3.633   5.272  0.7856 -0.5523 -0.8107
46349SOL    HW143732   6.289   3.675   5.357  2.3058 -1.5168 -0.1831
46349SOL    HW243733   6.229   3.564   5.274 -0.0089  0.1927 -0.8960
46350SOL     OW43734   5.666   4.300   9.055 -0.3071  0.2365  0.6183
46350SOL    HW143735   5.715   4.221   9.079 -0.6285 -0.2617 -0.3250
46350SOL    HW243736   5.733   4.364   9.032 -0.0707 -0.5477 -1.0021
46351SOL     OW43737   0.133   0.441   5.240  0.0122 -0.1745  0.1378
46351SOL    HW143738   0.092   0.395   5.167  1.0331  0.8699 -1.1522
46351SOL    HW243739   0.171   0.519   5.200  0.7506  0.3411  1.7731
46352SOL     OW43740   8.136   2.928  11.698  0.2793  0.2152 -0.8239
46352SOL    HW143741   8.231   2.933  11.688  0.3266 -1.8688 -2.0191
46352SOL    HW243742   8.115   2.994  11.764  2.6395  0.1386  0.0914
46353SOL     OW43743   7.722   5.144   0.505  0.1642 -0.2011 -0.2548
46353SOL    HW143744   7.802   5.135   0.556  0.5810 -0.0183 -0.8713
46353SOL    HW243745   7.707   5.058   0.468  1.7903  0.4503 -2.6453
46354SOL     OW43746   0.955   3.376   6.525  0.1286 -0.1528 -0.3831
46354SOL    HW143747   0.887   3.337   6.581  0.0371 -1.0047 -1.0577
46354SOL    HW243748   0.907   3.425   6.459  0.2250  0.5236  0.0431
46355SOL     OW43749   1.388   2.571   8.933 -0.5550 -0.0703 -0.3508
46355SOL    HW143750   1.346   2.544   8.852 -1.2046  1.0692 -0.4060
46355SOL    HW243751   1.375   2.497   8.992 -0.0179 -0.9385 -1.2840
46356SOL     OW43752   0.069   5.044   3.254 -0.8044 -0.3037  0.0044
46356SOL    HW143753   0.144   5.076   3.304 -0.2619 -1.9313  0.2842
46356SOL    HW243754   0.080   5.082   3.167  1.3397 -1.8743 -0.4882
46357SOL     OW43755   7.137  10.283   1.593  0.6201  0.5866 -0.2697
46357SOL    HW143756   7.174  10.207   1.638 -1.5871 -0.0783  0.5523
46357SOL    HW243757   7.101  10.248   1.512 -0.6875  0.6502  0.2584
46358SOL     OW43758   7.013   5.979  10.283 -0.5089  0.1742 -0.0032
46358SOL    HW143759   6.943   6.020  10.232 -0.4120  3.2429  2.0342
46358SOL    HW243760   6.970   5.910  10.333 -1.0557 -1.2241 -2.2728
46359SOL     OW43761   9.206   5.278   3.007 -0.4203 -0.0726  0.5010
46359SOL    HW143762   9.142   5.258   3.074 -0.6990 -0.4380  0.1273
46359SOL    HW243763   9.155   5.310   2.933 -0.1635 -0.2277  0.2521
46360SOL     OW43764   4.606  10.314   0.971 -0.3457 -0.0888 -0.0552
46360SOL    HW143765   4.666  10.388   0.957 -1.1562  0.6592  0.3020
46360SOL    HW243766   4.627  10.281   1.058 -1.3717  1.0951  0.6843
46361SOL     OW43767   7.194   1.619   1.413 -0.0381 -0.4545  0.0371
46361SOL    HW143768   7.278   1.661   1.397  0.3435 -1.4336 -0.6292
46361SOL    HW243769   7.132   1.665   1.357  0.0512  0.2651  0.5230
46362SOL     OW43770   3.187  10.872   5.135  0.0472 -0.4183  0.5245
46362SOL    HW143771   3.112  10.878   5.075  0.0701  2.0893  0.6273
46362SOL    HW243772   3.263  10.867   5.078  0.0894  2.2514  0.2469
46363SOL     OW43773   2.349   6.727   3.637 -0.9364 -0.0136 -0.6066
46363SOL    HW143774   2.310   6.715   3.550  0.1403 -0.6299 -1.0233
46363SOL    HW243775   2.439   6.698   3.627 -0.1188  2.1180  0.1359
46364SOL     OW43776   2.289   3.703   5.441  0.2387  0.4340 -0.3038
46364SOL    HW143777   2.282   3.798   5.451 -0.0889  0.7994 -3.3043
46364SOL    HW243778   2.370   3.680   5.487  1.0532  2.3655 -0.6634
46365SOL     OW43779   3.785   9.753   3.343  0.6163 -0.1488 -0.2074
46365SOL    HW143780   3.760   9.845   3.351 -0.9332 -0.6125  0.7655
46365SOL    HW243781   3.728   9.719   3.274 -0.5761 -0.9029  1.0897
46366SOL     OW43782   1.398   4.082   9.433 -0.0722  0.5769  0.1251
46366SOL    HW143783   1.377   4.166   9.474 -0.4411  0.2564  0.5976
46366SOL    HW243784   1.389   4.099   9.339 -1.5375  0.7132  0.2609
46367SOL     OW43785   1.673   6.361   4.760  0.2558  0.2571  0.1356
46367SOL    HW143786   1.680   6.379   4.666 -0.0450 -0.5288 -0.0481
46367SOL    HW243787   1.580   6.367   4.780  0.2946  0.2069  0.3395
46368SOL     OW43788   8.534   4.589   1.606 -0.0464  0.4508  0.0378
46368SOL    HW143789   8.489   4.633   1.534  0.8448  1.5576  0.1292
46368SOL    HW243790   8.479   4.606   1.682  0.5379  1.8983  0.1696
46369SOL     OW43791   6.605   3.997   0.624  0.7702 -0.1125 -0.1651
46369SOL    HW143792   6.622   3.964   0.712  1.0848 -0.0107 -0.1851
46369SOL    HW243793   6.513   4.023   0.625  0.9414  0.5237  0.3439
46370SOL     OW43794   9.358  10.051   5.375  0.5345 -0.5726  0.3024
46370SOL    HW143795   9.442  10.094   5.360  0.0808  0.5788  1.0006
46370SOL    HW243796   9.370  10.004   5.458  0.8162 -1.3004 -0.1346
46371SOL     OW43797   2.980   1.538  10.771  0.0685 -0.7722 -0.2096
46371SOL    HW143798   3.002   1.622  10.730 -2.6931 -0.3472 -1.1051
46371SOL    HW243799   2.885   1.543  10.785  0.1364 -2.9757  1.5909
46372SOL     OW43800  10.424   7.532   2.470  0.2226 -0.2804 -0.0030
46372SOL    HW143801  10.467   7.534   2.385 -1.9548  1.3440 -1.1543
46372SOL    HW243802  10.444   7.617   2.509  0.8088 -0.8299  0.9408
46373SOL     OW43803   4.820   6.687   9.997  0.2130 -0.6498  0.0091
46373SOL    HW143804   4.762   6.759  10.021  1.3369  0.5862 -0.8123
46373SOL    HW243805   4.879   6.678  10.072  0.4844 -0.2673 -0.1573
46374SOL     OW43806   4.053   7.576   5.185 -0.5882 -0.0297 -0.2091
46374SOL    HW143807   4.081   7.656   5.228  1.8867 -0.3218 -1.1016
46374SOL    HW243808   3.984   7.540   5.242  0.0888  1.3746  1.5825
46375SOL     OW43809   9.806   9.725   7.043 -0.1060 -0.1691 -0.2424
46375SOL    HW143810   9.831   9.814   7.017  1.6193 -0.6503 -0.3924
46375SOL    HW243811   9.793   9.731   7.138  1.3759  0.0074 -0.0149
46376SOL     OW43812  11.019   1.983   6.728  0.1040  0.0951 -0.0770
46376SOL    HW143813  10.929   1.952   6.743  0.3918 -0.3900  0.7141
46376SOL    HW243814  11.009   2.076   6.710 -0.5706  0.0220 -0.1182
46377SOL     OW43815   2.645   6.639   7.164 -0.2601 -0.2517 -0.5350
46377SOL    HW143816   2.648   6.555   7.117  0.3936 -0.7758  0.4266
46377SOL    HW243817   2.620   6.616   7.253  0.7725  0.4659 -0.0360
46378SOL     OW43818   2.253   4.174   3.664 -0.0834  0.3245 -0.2253
46378SOL    HW143819   2.173   4.209   3.624  1.1151  3.6073 -0.0344
46378SOL    HW243820   2.264   4.226   3.744  1.5214 -1.0544  0.5032
46379SOL     OW43821   3.794  10.606  11.924  0.3142 -0.2287  0.4389
46379SOL    HW143822   3.749  10.682  11.887  0.5658 -0.9250 -1.3679
46379SOL    HW243823   3.728  10.537  11.925  0.9800 -0.9245 -1.1262
46380SOL     OW43824   9.672   2.187  11.206 -0.2552 -0.3053 -0.8184
46380SOL    HW143825   9.640   2.134  11.279 -0.4660 -1.6271 -1.8259
46380SOL    HW243826   9.608   2.257  11.197 -2.7440 -2.5818 -2.4618
46381SOL     OW43827   7.768   8.861   9.579 -0.3431  0.5390 -0.7548
46381SOL    HW143828   7.792   8.850   9.671 -1.2392  0.3232 -0.5389
46381SOL    HW243829   7.805   8.946   9.554  0.2861  0.3921 -0.3244
46382SOL     OW43830   6.573   9.957   4.689 -0.3658  0.1178 -0.7654
46382SOL    HW143831   6.538  10.044   4.670 -1.7650  0.1332  1.5431
46382SOL    HW243832   6.577   9.914   4.603 -0.5506  2.0999 -1.8317
46383SOL     OW43833   4.935   2.259   2.176  0.1074 -0.9703  0.0494
46383SOL    HW143834   4.996   2.329   2.196  0.0047 -0.3107 -1.7207
46383SOL    HW243835   4.861   2.303   2.133 -0.4547 -2.0309 -0.1125
46384SOL     OW43836   9.116  11.399   8.440 -0.0567 -0.6027 -0.6526
46384SOL    HW143837   9.143  11.466   8.503  0.6650  1.1104 -2.6916
46384SOL    HW243838   9.162  11.320   8.469  0.3749  0.1618  0.8670
46385SOL     OW43839   0.182   3.040   5.103 -0.3298  0.1760 -0.9247
46385SOL    HW143840   0.091   3.025   5.129  0.4469 -2.3901  0.7451
46385SOL    HW243841   0.213   2.953   5.076  2.0364  0.6423  0.0880
46386SOL     OW43842   0.154   0.715   4.105  0.2803 -0.0308 -0.9422
46386SOL    HW143843   0.158   0.661   4.026 -0.3296 -2.7847  0.7410
46386SOL    HW243844   0.203   0.665   4.170  1.0994  2.3194  0.3695
46387SOL     OW43845   2.289  10.371   6.231 -0.8649 -0.8653  0.1290
46387SOL    HW143846   2.348  10.342   6.161 -1.1989 -1.9151  0.2692
46387SOL    HW243847   2.229  10.431   6.187  1.9040  2.5337  0.4857
46388SOL     OW43848   1.197   5.605   3.770 -0.4440 -0.1390 -0.3983
46388SOL    HW143849   1.240   5.638   3.850 -0.4577 -3.0900  0.9675
46388SOL    HW243850   1.112   5.574   3.800 -0.8163 -0.4806 -1.7446
46389SOL     OW43851   0.269  10.814   0.145 -0.8595  0.1177 -0.3484
46389SOL    HW143852   0.333  10.764   0.196 -0.4860  0.0198 -0.9040
46389SOL    HW243853   0.201  10.839   0.208  0.6448  1.8412  0.6918
46390SOL     OW43854   2.930   6.453   8.604  0.0906 -0.6852  0.8300
46390SOL    HW143855   3.009   6.469   8.553  0.0796  0.2509  1.0870
46390SOL    HW243856   2.962   6.415   8.686  0.2232 -0.8159  0.7186
46391SOL     OW43857  11.363   6.608   7.476  0.1410  0.2213  0.1692
46391SOL    HW143858  11.440   6.634   7.527  0.5931 -1.5527  0.4493
46391SOL    HW243859  11.290   6.623   7.536  0.5869 -0.9974  1.0602
46392SOL     OW43860   5.247   5.100  11.970  0.3525  0.3107  0.4359
46392SOL    HW143861   5.185   5.132  11.904  0.5803 -0.5709 -0.2274
46392SOL    HW243862   5.331   5.136  11.942  0.2957  0.7485  0.8151
46393SOL     OW43863   1.809   4.548   8.836  0.1180  0.4534  0.2037
46393SOL    HW143864   1.741   4.507   8.889 -0.9409  0.7080 -0.8909
46393SOL    HW243865   1.891   4.512   8.869 -0.5572 -0.0433  1.4117
46394SOL     OW43866   6.092   2.766   1.010  0.0114 -0.1220  0.1324
46394SOL    HW143867   6.011   2.720   0.988 -0.2085  0.8048 -1.0918
46394SOL    HW243868   6.070   2.859   1.002  0.7653  0.1964  1.4213
46395SOL     OW43869   2.158  10.945   6.245 -0.2573  0.4996  0.1022
46395SOL    HW143870   2.213  10.884   6.196 -1.7461 -0.4767 -0.4366
46395SOL    HW243871   2.094  10.977   6.182 -0.4504  1.4601  0.7470
46396SOL     OW43872   9.717   0.851   4.427  0.2670  0.0908 -0.4270
46396SOL    HW143873   9.722   0.761   4.396 -0.0603  0.7263 -2.5205
46396SOL    HW243874   9.808   0.878   4.437  0.3722 -0.3346 -0.2021
46397SOL     OW43875  10.542  10.384   1.124 -0.0767 -0.3368 -0.5334
46397SOL    HW143876  10.502  10.448   1.184 -0.5265 -0.6273 -0.5204
46397SOL    HW243877  10.514  10.299   1.158  0.6395 -0.5511 -0.4692
46398SOL     OW43878   5.511   7.484   1.048  0.5745 -0.3818 -0.2550
46398SOL    HW143879   5.586   7.487   1.107  1.0611  0.6189 -0.8893
46398SOL    HW243880   5.535   7.544   0.977  0.0514 -1.6013 -1.5110
46399SOL     OW43881   0.809   2.613   8.007  0.5386  0.2953  0.4461
46399SOL    HW143882   0.831   2.586   7.918  0.9013  1.2966  0.2245
46399SOL    HW243883   0.743   2.550   8.035  1.1576 -0.6479 -0.1548
46400SOL     OW43884   3.713   7.993   5.485 -0.4047  0.5648  0.3806
46400SOL    HW143885   3.807   8.009   5.493 -0.0597 -1.2061  0.2268
46400SOL    HW243886   3.676   8.025   5.567  0.0460  2.8819 -0.2369
46401SOL     OW43887   4.272   2.822   7.933  0.0255  0.3533  0.5146
46401SOL    HW143888   4.273   2.727   7.933 -0.4985  0.3296 -0.3461
46401SOL    HW243889   4.209   2.846   8.001 -1.3186  0.0206 -0.5660
46402SOL     OW43890   6.652   7.987   1.600 -0.5029 -0.3936 -0.0263
46402SOL    HW143891   6.721   8.038   1.643 -0.0906 -0.9125 -0.0653
46402SOL    HW243892   6.698   7.935   1.534 -1.4335  3.1939 -4.0041
46403SOL     OW43893   4.004   8.818   1.542 -0.0727  0.2138  0.0285
46403SOL    HW143894   4.014   8.788   1.632  0.9204 -2.6374 -0.8981
46403SOL    HW243895   4.031   8.910   1.543 -1.5511  0.7037  2.8511
46404SOL     OW43896   8.443   3.996   7.156 -0.1434  0.2554 -0.8622
46404SOL    HW143897   8.518   3.980   7.099  0.3150 -1.3733  0.1300
46404SOL    HW243898   8.475   4.059   7.220 -0.2407  1.0360 -1.5587
46405SOL     OW43899   6.281  11.296   5.255  0.2230 -0.1983  0.0582
46405SOL    HW143900   6.231  11.350   5.194 -0.4085 -0.6276  0.1752
46405SOL    HW243901   6.345  11.355   5.293 -0.1033  0.3383 -0.2116
46406SOL     OW43902   2.087   8.610   4.413 -0.1389  0.1627 -0.3121
46406SOL    HW143903   2.033   8.530   4.415  0.2381 -0.2408 -2.8000
46406SOL    HW243904   2.024   8.681   4.404 -0.4216  0.0521  0.7181
46407SOL     OW43905   4.536   6.585   1.944 -0.9085 -0.6918 -0.2544
46407SOL    HW143906   4.500   6.624   1.864 -0.6608  3.1022  1.2637
46407SOL    HW243907   4.631   6.595   1.935 -0.7245 -2.4484 -0.4555
46408SOL     OW43908   9.166   4.585   0.573  0.0683 -0.2833  0.2262
46408SOL    HW143909   9.103   4.646   0.533  0.0108  0.8068  1.9021
46408SOL    HW243910   9.113   4.532   0.633  0.4378 -0.7294  0.1631
46409SOL     OW43911   2.920   3.078  11.673  0.7939 -0.1660 -0.1546
46409SOL    HW143912   2.868   3.125  11.738 -0.1177 -1.6378  0.2463
46409SOL    HW243913   2.878   3.097  11.589  0.2410 -0.4904  0.0430
46410SOL     OW43914  11.691   1.265   9.746  0.1117  0.1876 -0.0995
46410SOL    HW143915  11.783   1.292   9.744  0.2725 -0.2524  0.9507
46410SOL    HW243916  11.657   1.299   9.829  0.1593 -2.2734  0.9954
46411SOL     OW43917   3.859   1.293  10.437 -0.1272  0.0581 -0.0956
46411SOL    HW143918   3.766   1.311  10.421 -0.5891  0.3006  2.4205
46411SOL    HW243919   3.890   1.254  10.355 -2.1643  0.9351 -1.3741
46412SOL     OW43920   9.424   6.276  10.459 -0.4963  0.1300  0.1507
46412SOL    HW143921   9.420   6.182  10.446 -0.0899  0.3687 -2.1539
46412SOL    HW243922   9.467   6.287  10.544 -2.9799 -1.7304  1.7799
46413SOL     OW43923   5.666   9.191   5.139 -0.3588 -0.9025 -0.1892
46413SOL    HW143924   5.590   9.245   5.162 -0.6654 -1.8708  1.1679
46413SOL    HW243925   5.628   9.111   5.102  0.0850 -0.3327 -1.9860
46414SOL     OW43926  11.463   5.186   0.471 -0.3107  0.8555 -0.1051
46414SOL    HW143927  11.396   5.168   0.537 -0.4313 -0.3505 -0.5374
46414SOL    HW243928  11.419   5.239   0.406 -0.3734  1.4898  0.4428
46415SOL     OW43929  11.454   1.635   8.624 -0.8124  0.3962 -0.1472
46415SOL    HW143930  11.386   1.624   8.691 -1.9568  0.6218 -1.2372
46415SOL    HW243931  11.451   1.553   8.574 -0.3399  0.4440 -0.2533
46416SOL     OW43932  11.792   9.097   5.055  0.0788 -0.0896  0.1190
46416SOL    HW143933  11.816   9.165   5.118 -0.9127  0.1960  0.1975
46416SOL    HW243934  11.723   9.048   5.099 -0.6489  0.1315 -0.7726
46417SOL     OW43935  11.702   4.631   6.980 -0.2978 -0.2243  0.5946
46417SOL    HW143936  11.683   4.647   7.073 -1.2657  0.4511  0.2814
46417SOL    HW243937  11.734   4.715   6.947 -3.9660  0.8418 -0.6825
46418SOL     OW43938   7.877  10.748   4.218  0.0061 -0.0200 -0.4913
46418SOL    HW143939   7.918  10.675   4.172 -0.5077 -0.4274 -0.3027
46418SOL    HW243940   7.931  10.760   4.296 -0.5432 -0.9246  0.0452
46419SOL     OW43941   1.069   0.747   1.180 -0.3806 -0.4112 -0.0840
46419SOL    HW143942   0.976   0.754   1.202 -0.5155 -1.5860 -0.2346
46419SOL    HW243943   1.115   0.784   1.255 -0.9731  1.0562 -0.4029
46420SOL     OW43944   8.085  11.619   8.754 -0.6066  0.3054  0.3477
46420SOL    HW143945   8.142  11.569   8.812 -0.3984  1.5186  1.2445
46420SOL    HW243946   8.129  11.619   8.669  0.3372  0.5532  0.8274
46421SOL     OW43947  11.510   5.623   4.589 -0.3142  0.3291  0.1778
46421SOL    HW143948  11.467   5.699   4.550 -0.6906 -0.4305 -0.9621
46421SOL    HW243949  11.589   5.610   4.536  1.1574  1.4461  1.9802
46422SOL     OW43950  11.476   5.105   1.795  0.1470 -0.0196  0.0793
46422SOL    HW143951  11.454   5.197   1.791 -1.2420 -0.3629 -0.7627
46422SOL    HW243952  11.472   5.083   1.889 -1.5971  0.3152  0.1212
46423SOL     OW43953   6.976   8.516  10.747 -0.1605 -0.2171 -0.1935
46423SOL    HW143954   7.033   8.512  10.670  0.4284 -2.4628  0.2945
46423SOL    HW243955   6.916   8.588  10.728  0.5309 -0.1200 -2.3431
46424SOL     OW43956   1.092  11.378   2.183 -0.2177  0.3236  0.0144
46424SOL    HW143957   1.141  11.458   2.205  1.4028 -0.2687 -1.2165
46424SOL    HW243958   1.053  11.351   2.266 -0.7983  2.3543  0.4638
46425SOL     OW43959   4.498   0.343   7.266  0.6574 -0.0136 -0.2950
46425SOL    HW143960   4.546   0.260   7.273  0.3818 -0.4985 -2.9672
46425SOL    HW243961   4.548   0.405   7.318  0.5866 -1.9246  2.2413
46426SOL     OW43962   4.180   9.699   0.692 -0.5138  0.3643  0.5831
46426SOL    HW143963   4.163   9.707   0.598  0.8901  0.9079  0.3532
46426SOL    HW243964   4.099   9.728   0.733 -0.9237  0.7403 -0.4575
46427SOL     OW43965   1.369   1.752   3.695  0.0377 -0.2996 -0.5043
46427SOL    HW143966   1.339   1.784   3.610 -0.6206 -0.3690 -0.3031
46427SOL    HW243967   1.371   1.657   3.686  0.2201 -0.2962 -0.5182
46428SOL     OW43968   0.376   8.810   6.636  0.1732  0.2875  0.0520
46428SOL    HW143969   0.382   8.833   6.543 -0.2273 -1.1339 -0.3594
46428SOL    HW243970   0.465   8.783   6.660 -0.2151 -1.8149 -0.6575
46429SOL     OW43971  11.480  10.442   6.885 -0.2458  0.0621  0.1897
46429SOL    HW143972  11.400  10.403   6.920 -0.6719  0.3674 -0.4213
46429SOL    HW243973  11.502  10.512   6.947 -1.3735  1.0454 -0.4627
46430SOL     OW43974   2.516   8.137   2.763 -0.1714 -0.1603  0.4581
46430SOL    HW143975   2.520   8.190   2.684  1.7995 -0.7949  0.0745
46430SOL    HW243976   2.566   8.186   2.828 -0.4621 -0.3721  0.8455
46431SOL     OW43977  11.112   8.780   5.862 -0.2481 -0.6118 -0.2059
46431SOL    HW143978  11.054   8.843   5.906  0.9352 -0.3914  1.0973
46431SOL    HW243979  11.198   8.795   5.901  0.3113 -2.2221 -0.7269
46432SOL     OW43980   4.632   1.856   8.127  0.2938 -0.0331 -0.1607
46432SOL    HW143981   4.567   1.801   8.083 -0.4692  1.2982 -0.7495
46432SOL    HW243982   4.587   1.891   8.204  1.5499 -2.1605  1.6641
46433SOL     OW43983   9.170   7.703   6.664  0.2722 -0.1849  0.3877
46433SOL    HW143984   9.175   7.638   6.734  0.1433  1.4884  2.0161
46433SOL    HW243985   9.254   7.697   6.619  0.2459 -1.4799  0.4714
46434SOL     OW43986   5.984  10.830   6.966 -0.3597 -1.0277  0.1313
46434SOL    HW143987   5.921  10.760   6.979 -1.3892 -0.3451 -0.9466
46434SOL    HW243988   5.938  10.894   6.911  0.5263  0.5037  1.0922
46435SOL     OW43989   5.518   0.881   2.238 -0.2571  0.1095  0.2482
46435SOL    HW143990   5.463   0.893   2.160 -1.4442 -1.2847  0.8160
46435SOL    HW243991   5.600   0.844   2.204 -1.2555 -1.7480 -0.2725
46436SOL     OW43992   5.303   9.574   4.982 -0.4232  0.1013  0.1527
46436SOL    HW143993   5.265   9.517   4.915  0.4555  0.4326 -0.6369
46436SOL    HW243994   5.227   9.615   5.024 -1.0629 -1.4115  0.5377
46437SOL     OW43995   7.207   1.202  10.481 -0.3915  0.3841 -0.3950
46437SOL    HW143996   7.224   1.175  10.391  1.2656  0.2969 -0.0867
46437SOL    HW243997   7.141   1.140  10.513 -0.0928 -0.3418 -1.1565
46438SOL     OW43998   7.454   6.029   2.559 -0.2348 -1.1105  0.3697
46438SOL    HW143999   7.453   6.092   2.631  0.3750 -0.8509  0.1527
46438SOL    HW244000   7.369   5.986   2.565 -0.4097 -0.7087  0.9076
46439SOL     OW44001   5.570   8.326   4.943  0.2208  0.1708  0.1765
46439SOL    HW144002   5.623   8.247   4.955 -0.9173 -0.5309  0.7499
46439SOL    HW244003   5.630   8.389   4.903  0.7067 -1.5289 -1.9879
46440SOL     OW44004   9.700   0.164   5.277 -0.3777  0.4634  0.2983
46440SOL    HW144005   9.710   0.247   5.231  0.0095  0.6412  0.6940
46440SOL    HW244006   9.633   0.180   5.343 -2.1388 -0.2480 -1.2316
46441SOL     OW44007  10.231   1.769   8.312 -0.1836 -0.1082 -0.2865
46441SOL    HW144008  10.262   1.693   8.263 -2.0136 -0.5673 -0.8326
46441SOL    HW244009  10.167   1.733   8.374 -1.1596  0.9636 -0.6299
46442SOL     OW44010   6.421   1.095   0.031  0.1391  0.6286 -0.3424
46442SOL    HW144011   6.375   1.017   0.064 -3.6821  2.2063 -1.4583
46442SOL    HW244012   6.419   1.156   0.104  1.5408  0.4036 -0.0710
46443SOL     OW44013   9.927   6.238   1.146 -0.0373 -0.6764 -0.1416
46443SOL    HW144014   9.890   6.159   1.187 -2.9671  0.2607 -0.7104
46443SOL    HW244015  10.017   6.240   1.175 -0.5087 -2.9668  1.8182
46444SOL     OW44016   6.517   0.810   2.905  0.2151 -0.0426  0.2245
46444SOL    HW144017   6.600   0.764   2.917  0.0047 -0.4097  0.3002
46444SOL    HW244018   6.537   0.881   2.844 -0.0106 -1.8182 -2.0400
46445SOL     OW44019   6.278   4.720   2.895 -0.1693 -0.0633  0.0358
46445SOL    HW144020   6.272   4.628   2.921 -1.8543  0.5336  1.9532
46445SOL    HW244021   6.268   4.718   2.800  1.6313 -1.9733 -0.1831
46446SOL     OW44022   6.600   9.441   6.299  0.5440  0.0360  0.3476
46446SOL    HW144023   6.650   9.522   6.287  2.0573 -0.9283 -0.1983
46446SOL    HW244024   6.588   9.407   6.211  1.2828 -1.0986  0.6659
46447SOL     OW44025   9.097   8.658   7.602 -0.3254 -0.6793 -0.5326
46447SOL    HW144026   9.159   8.651   7.530 -0.9085  0.7993 -1.2143
46447SOL    HW244027   9.088   8.569   7.635  0.8036 -1.1950 -1.5591
46448SOL     OW44028   0.386   7.915   8.864  0.9786  0.1947 -0.2069
46448SOL    HW144029   0.317   7.977   8.890 -0.1196 -0.6602 -0.9829
46448SOL    HW244030   0.399   7.931   8.771  4.0475  2.4151  0.4312
46449SOL     OW44031   1.160   0.728   7.269  0.3429  0.4368 -0.2115
46449SOL    HW144032   1.100   0.660   7.241  0.3472  0.4796 -0.3222
46449SOL    HW244033   1.242   0.682   7.289 -0.6002 -0.1173  2.9587
46450SOL     OW44034   7.761   4.371   3.814 -0.2002 -0.9267 -0.2751
46450SOL    HW144035   7.740   4.280   3.795 -0.6017 -0.5882 -1.6472
46450SOL    HW244036   7.676   4.410   3.838 -0.3525 -0.5698 -1.3248
46451SOL     OW44037   0.188  11.808   5.940 -0.1766  0.3777  0.0266
46451SOL    HW144038   0.197  11.715   5.961 -0.5590  0.4050  0.3145
46451SOL    HW244039   0.142  11.810   5.856  1.2700  0.2714 -0.8211
46452SOL     OW44040   7.069   6.816  11.896  0.1580 -0.9793 -0.2149
46452SOL    HW144041   7.048   6.837  11.805 -0.4922  0.6243  0.2699
46452SOL    HW244042   7.153   6.859  11.913 -1.4871  2.1097  0.9713
46453SOL     OW44043   5.178   7.552   1.024  0.5677  0.5771 -0.0272
46453SOL    HW144044   5.216   7.467   1.044 -1.5188 -0.0021  1.9089
46453SOL    HW244045   5.103   7.532   0.967  0.1266  1.0919  0.3558
46454SOL     OW44046  11.103  11.156   7.893 -0.4807  0.0461 -0.2879
46454SOL    HW144047  11.063  11.104   7.822  0.0283 -1.5787  0.5709
46454SOL    HW244048  11.065  11.120   7.973  0.1384  0.7970  0.3547
46455SOL     OW44049   0.478   8.551   0.135 -0.2738 -0.0136 -0.0032
46455SOL    HW144050   0.386   8.568   0.114  0.1213  1.1226 -0.9623
46455SOL    HW244051   0.501   8.476   0.080 -0.8887 -0.9813  1.0251
46456SOL     OW44052   1.197   1.405   8.569 -0.0855 -0.4540 -0.3858
46456SOL    HW144053   1.106   1.430   8.587  0.3257  0.3942  0.5792
46456SOL    HW244054   1.248   1.483   8.590  0.9181 -1.0636 -0.5049
46457SOL     OW44055  10.542   3.033   1.425 -0.1253 -0.0883  0.4153
46457SOL    HW144056  10.584   3.113   1.394 -1.4436  0.5544  0.2055
46457SOL    HW244057  10.576   3.022   1.514  1.2048 -0.1429 -0.0818
46458SOL     OW44058   4.715   9.551   5.685 -0.6004 -0.4630  0.0636
46458SOL    HW144059   4.624   9.539   5.660  0.2205 -1.7458 -2.7287
46458SOL    HW244060   4.727   9.493   5.761 -1.7612 -1.4608 -0.4783
46459SOL     OW44061   6.501   3.329   3.490 -0.0060 -0.4193 -0.0310
46459SOL    HW144062   6.429   3.385   3.520 -0.3630 -0.2358 -1.1576
46459SOL    HW244063   6.541   3.379   3.418  0.6927 -0.9070  0.0130
46460SOL     OW44064  10.620   7.247  11.258  0.2060  0.5479  0.2630
46460SOL    HW144065  10.711   7.227  11.279 -0.2578 -0.5069  1.4132
46460SOL    HW244066  10.579   7.266  11.343 -0.4515  1.9678 -0.3273
46461SOL     OW44067  11.688   7.903   1.915  0.4636 -0.4550 -0.2581
46461SOL    HW144068  11.599   7.870   1.928 -0.2249  0.9326 -1.2133
46461SOL    HW244069  11.742   7.850   1.974 -0.8717 -1.8066 -0.1842
46462SOL     OW44070   9.317   2.583   9.692 -0.4393  0.1590 -0.2472
46462SOL    HW144071   9.332   2.602   9.784 -0.4264  0.9667 -0.4026
46462SOL    HW244072   9.222   2.577   9.683 -0.4658  0.5157 -0.2506
46463SOL     OW44073   8.449  10.623  10.280  0.3418 -0.7016  0.3981
46463SOL    HW144074   8.520  10.627  10.216  0.8569 -1.1446  0.9180
46463SOL    HW244075   8.385  10.563  10.242 -1.2132  1.9113 -1.4323
46464SOL     OW44076   8.124  10.759   2.765  0.1138  0.2814  1.5263
46464SOL    HW144077   8.189  10.733   2.831 -0.5286 -2.5251  1.2094
46464SOL    HW244078   8.051  10.795   2.815 -0.2749 -1.6141  2.4317
46465SOL     OW44079   5.419   8.146   2.275 -0.2923  0.0718  0.0852
46465SOL    HW144080   5.460   8.233   2.276 -2.1664  1.0240 -0.4462
46465SOL    HW244081   5.488   8.088   2.242  0.7193  1.5215 -0.5081
46466SOL     OW44082  11.029   9.584   5.936 -0.1536  0.1770 -0.0882
46466SOL    HW144083  11.096   9.551   5.876  0.4468  1.0178  0.1098
46466SOL    HW244084  10.993   9.660   5.891  0.6287  1.1025  0.8058
46467SOL     OW44085   0.506  10.959  11.983  0.6421  0.5183 -0.0140
46467SOL    HW144086   0.424  10.946  12.030  0.8711 -1.8224 -0.1293
46467SOL    HW244087   0.528  11.051  11.998 -1.5183  0.9672  0.7664
46468SOL     OW44088   0.199  11.519  11.695 -0.6075  0.0657  0.1109
46468SOL    HW144089   0.258  11.551  11.627  0.8028 -2.2907  0.1134
46468SOL    HW244090   0.248  11.531  11.777 -0.3275 -1.3857  0.1760
46469SOL     OW44091   0.845   9.091   8.438  0.3853 -0.5074  0.1555
46469SOL    HW144092   0.924   9.111   8.488  0.4172  1.0271 -0.4337
46469SOL    HW244093   0.877   9.075   8.349 -0.0923  2.7841 -0.7300
46470SOL     OW44094   1.227   2.265   7.514  0.1253 -0.1786  0.6619
46470SOL    HW144095   1.223   2.245   7.608  2.3653 -1.1311  0.6239
46470SOL    HW244096   1.188   2.352   7.506  0.2010  0.0644  2.5296
46471SOL     OW44097   8.805   6.905   9.145  0.2538  0.4563 -0.3598
46471SOL    HW144098   8.841   6.854   9.218 -1.5248  1.9442  1.7097
46471SOL    HW244099   8.877   6.962   9.119  1.5791 -1.5281 -1.2656
46472SOL     OW44100   2.338   4.675   3.953 -0.3479 -0.3741  0.5563
46472SOL    HW144101   2.262   4.731   3.938  0.7322  1.3380  1.1998
46472SOL    HW244102   2.349   4.674   4.048 -0.2868 -1.6450  0.5543
46473SOL     OW44103   0.004   2.956   2.790  0.2477  0.2600 -0.0295
46473SOL    HW144104  -0.072   2.959   2.848  0.4109 -0.9428  0.2753
46473SOL    HW244105   0.016   3.047   2.761  0.2801  0.9293  1.9508
46474SOL     OW44106   9.205   9.908   9.285  0.2048  0.4114  0.3187
46474SOL    HW144107   9.123   9.880   9.326 -0.1383 -0.8124 -1.0896
46474SOL    HW244108   9.177   9.945   9.201  1.1195 -0.5982 -0.4516
46475SOL     OW44109   3.566   7.668   2.849  0.1980  0.1920  0.0602
46475SOL    HW144110   3.567   7.601   2.782 -1.2166  0.5247 -0.3125
46475SOL    HW244111   3.556   7.620   2.931  1.5952 -0.1885  0.0337
46476SOL     OW44112   1.989   0.674   8.378 -0.2280  0.2362 -0.2322
46476SOL    HW144113   1.929   0.720   8.319  0.1370  0.3685 -0.5081
46476SOL    HW244114   1.940   0.665   8.460 -1.4916 -1.6664 -1.1204
46477SOL     OW44115   4.981   7.508   5.418 -0.9073 -0.2043 -0.1839
46477SOL    HW144116   5.029   7.572   5.365 -0.5527  0.4093  0.8471
46477SOL    HW244117   5.024   7.425   5.399 -0.2065  0.1483 -0.1829
46478SOL     OW44118   9.881   6.412   8.879 -0.0540 -0.4120  0.3087
46478SOL    HW144119   9.943   6.436   8.948 -0.5943 -1.0859  1.0456
46478SOL    HW244120   9.931   6.418   8.798  0.1826  1.8952  0.5765
46479SOL     OW44121   3.058   8.838   0.291  0.3557  0.4217  0.0296
46479SOL    HW144122   3.017   8.837   0.378 -1.8420  1.0132 -0.9209
46479SOL    HW244123   3.098   8.751   0.283  0.2504  0.2037  1.4672
46480SOL     OW44124   3.185   9.572   3.683 -0.3364  0.2137  0.2248
46480SOL    HW144125   3.232   9.538   3.759 -0.1742 -3.7362 -1.4522
46480SOL    HW244126   3.243   9.555   3.609 -2.4206 -0.4505 -1.3421
46481SOL     OW44127   0.710   6.402   3.609  0.3195  0.1402 -0.3605
46481SOL    HW144128   0.728   6.371   3.697  0.5392  0.7986 -0.1658
46481SOL    HW244129   0.620   6.374   3.591  0.0368  0.5940  0.3303
46482SOL     OW44130   9.816   9.964  10.339  0.1402 -0.5186  0.1622
46482SOL    HW144131   9.752   9.917  10.392 -0.7274 -0.4480 -0.7798
46482SOL    HW244132   9.832   9.905  10.265  0.7996 -0.3210  0.1458
46483SOL     OW44133   4.145   3.138   2.144  0.2474  0.0778  0.0112
46483SOL    HW144134   4.238   3.157   2.133  0.0170  1.9532  1.0486
46483SOL    HW244135   4.144   3.052   2.186  1.4920 -0.1174 -0.2978
46484SOL     OW44136   5.770   3.230   5.379 -0.4484  0.2006 -0.5116
46484SOL    HW144137   5.794   3.202   5.467 -0.6329 -0.1370 -0.5640
46484SOL    HW244138   5.675   3.244   5.382 -0.4101  0.4716 -0.5799
46485SOL     OW44139   5.956   4.427   0.446  0.4714 -0.6041  0.0262
46485SOL    HW144140   6.020   4.451   0.513  0.5549  0.3151 -0.3593
46485SOL    HW244141   5.957   4.331   0.444  1.8147 -0.6026  0.0479
46486SOL     OW44142   4.963  11.170  10.615  0.3167  0.5512  0.3662
46486SOL    HW144143   4.942  11.148  10.706 -0.5897  1.0507  0.2955
46486SOL    HW244144   4.894  11.128  10.564  2.0462 -1.6232 -0.3302
46487SOL     OW44145  11.393   3.827   6.685  0.0206  0.0567  0.3909
46487SOL    HW144146  11.335   3.833   6.610  1.2718  0.7420 -0.5752
46487SOL    HW244147  11.469   3.880   6.660  1.5773 -1.7305  1.1114
46488SOL     OW44148   9.333   2.012   6.557 -0.0875  0.3559 -0.6390
46488SOL    HW144149   9.255   2.027   6.503  0.3191 -1.4417 -1.8246
46488SOL    HW244150   9.365   1.926   6.529  1.1494  0.1357  1.2856
46489SOL     OW44151   1.574   1.351  10.744 -0.5953  0.1526  0.2850
46489SOL    HW144152   1.514   1.296  10.795  0.7742 -0.6572  1.0980
46489SOL    HW244153   1.525   1.432  10.729 -2.6041 -1.1653 -0.7757
46490SOL     OW44154   5.207   6.794   2.133 -0.0607  0.5773 -0.4057
46490SOL    HW144155   5.170   6.810   2.047  1.1122  0.0869 -1.0230
46490SOL    HW244156   5.139   6.748   2.181 -0.3841  0.0294 -1.3798
46491SOL     OW44157   5.631   9.248  11.286 -0.0964  0.8505 -0.0451
46491SOL    HW144158   5.719   9.233  11.253  0.3041  2.8417  0.0004
46491SOL    HW244159   5.614   9.341  11.270 -1.2301  1.1057  2.1252
46492SOL     OW44160   0.530   4.178   1.814 -0.3910  0.0283 -0.1188
46492SOL    HW144161   0.623   4.156   1.801 -0.1798 -0.8160  2.2260
46492SOL    HW244162   0.484   4.131   1.745  0.8229 -0.7275 -0.4417
46493SOL     OW44163   9.279   0.112   2.660 -0.0275  0.0359 -0.0806
46493SOL    HW144164   9.265   0.018   2.671 -0.8359  0.3328  1.7598
46493SOL    HW244165   9.192   0.150   2.667  0.1600  0.8872 -1.7815
46494SOL     OW44166   6.821   5.300   4.519  0.2990  0.0895  0.3484
46494SOL    HW144167   6.886   5.231   4.533  0.6954  0.5772  0.9700
46494SOL    HW244168   6.858   5.377   4.563 -0.3496  0.5752  0.0571
46495SOL     OW44169   3.251  10.291   8.350 -0.0059  0.2006  0.1889
46495SOL    HW144170   3.255  10.372   8.400  2.4693 -0.4241  1.1763
46495SOL    HW244171   3.223  10.317   8.263 -0.4197  1.9174  0.8067
46496SOL     OW44172  10.176   9.122   6.278  1.0469  0.3515  0.4763
46496SOL    HW144173  10.221   9.137   6.361  0.0385  1.2351  0.8892
46496SOL    HW244174  10.126   9.042   6.293 -1.4555  2.0215  1.8220
46497SOL     OW44175  11.598   5.543   7.409 -0.7354 -0.5573  0.8463
46497SOL    HW144176  11.680   5.532   7.361 -0.1857  0.2568  1.5570
46497SOL    HW244177  11.588   5.638   7.418 -1.3967 -0.6650  1.3678
46498SOL     OW44178   3.628   2.578  10.981 -0.1251  0.2309 -0.1248
46498SOL    HW144179   3.536   2.605  10.982  0.3054  1.7670  0.0691
46498SOL    HW244180   3.645   2.551  11.071  0.5516  3.4638  0.8354
46499SOL     OW44181   0.810   9.016   1.197 -0.0236 -0.1044 -0.6097
46499SOL    HW144182   0.900   8.990   1.178  0.1016  0.8292 -1.4433
46499SOL    HW244183   0.765   9.007   1.113 -0.4675  0.3149 -0.4224
46500SOL     OW44184   3.121   1.761   9.503 -0.1877 -0.3429 -0.2462
46500SOL    HW144185   3.161   1.848   9.502 -1.4685  0.2665 -0.6150
46500SOL    HW244186   3.176   1.711   9.564  0.4732  0.7626  0.1174
46501SOL     OW44187   1.090  11.415   7.841 -0.0608 -0.4178  0.7576
46501SOL    HW144188   1.025  11.366   7.892 -0.9632 -0.1366 -0.0960
46501SOL    HW244189   1.089  11.373   7.755  0.4352  0.0016  0.5449
46502SOL     OW44190   4.639   9.446   0.336 -0.1337  0.4974 -0.2625
46502SOL    HW144191   4.678   9.503   0.402  0.6583  0.3550 -0.5920
46502SOL    HW244192   4.570   9.399   0.382 -1.0150  1.9294 -0.0503
46503SOL     OW44193   4.033   0.213   5.894  0.2067 -0.2713  0.6100
46503SOL    HW144194   4.066   0.258   5.971 -0.3600  3.5473 -1.1597
46503SOL    HW244195   4.107   0.213   5.833 -0.4469  0.2787 -0.2052
46504SOL     OW44196   7.355   7.573   8.499 -0.0398 -0.3525  0.3161
46504SOL    HW144197   7.276   7.607   8.539 -1.1627 -1.3136 -0.9698
46504SOL    HW244198   7.423   7.638   8.520 -1.0071  0.1859  1.9451
46505SOL     OW44199   2.376   7.529   2.797 -0.6445  0.2351 -0.1380
46505SOL    HW144200   2.388   7.595   2.728 -1.7015  0.4172 -0.1667
46505SOL    HW244201   2.300   7.560   2.846 -1.1792 -0.9784 -0.1725
46506SOL     OW44202   1.936   9.209   4.431  0.0166  0.3572  0.2064
46506SOL    HW144203   1.945   9.114   4.424 -1.2056  0.2846 -0.7658
46506SOL    HW244204   1.931   9.239   4.340 -1.0874  1.1902  0.5248
46507SOL     OW44205  10.531   0.224   7.534  0.6291 -0.3226  0.0075
46507SOL    HW144206  10.500   0.142   7.572 -2.0093 -0.0111 -1.2565
46507SOL    HW244207  10.559   0.200   7.445 -1.6973  0.2915 -0.9736
46508SOL     OW44208   0.214   9.474   5.985  0.1045 -0.0211  0.3664
46508SOL    HW144209   0.268   9.466   5.906 -1.2210 -1.6460 -0.4291
46508SOL    HW244210   0.256   9.544   6.035  2.0453 -0.1750 -0.9184
46509SOL     OW44211   2.932   4.116   6.550  0.6749 -0.1325  0.1263
46509SOL    HW144212   2.963   4.114   6.459 -0.0276 -1.3146 -0.0994
46509SOL    HW244213   2.847   4.161   6.545  0.3569 -0.7302  0.1041
46510SOL     OW44214   1.777  10.018  11.483 -0.3860 -0.2522  0.2662
46510SOL    HW144215   1.811  10.100  11.447 -0.0649  0.1793  1.5124
46510SOL    HW244216   1.741  10.042  11.568 -1.4662 -1.1816  0.1014
46511SOL     OW44217  11.111   0.987  10.881 -0.3332  0.3260  0.0707
46511SOL    HW144218  11.024   1.028  10.889 -0.5721 -0.1597  0.0103
46511SOL    HW244219  11.101   0.925  10.809  0.9250  2.4681 -2.1217
46512SOL     OW44220   2.046   6.761  10.824 -0.2426  0.1367  0.6994
46512SOL    HW144221   1.959   6.763  10.785 -0.4396  1.0812  1.1694
46512SOL    HW244222   2.082   6.676  10.798  0.0735  1.1183 -2.4986
46513SOL     OW44223   6.562  11.145   0.464 -0.2966 -0.1799  0.6038
46513SOL    HW144224   6.588  11.195   0.541 -1.3622  2.7330 -0.7699
46513SOL    HW244225   6.644  11.120   0.423  0.2970  0.8691  1.1063
46514SOL     OW44226   7.437   7.636   9.109 -0.2233  0.0106 -0.0974
46514SOL    HW144227   7.385   7.673   9.181 -1.4434  1.5504 -1.6973
46514SOL    HW244228   7.389   7.557   9.083 -0.3491  0.0211  0.0977
46515SOL     OW44229   3.858   4.072  10.257 -0.2710  0.4597 -0.0206
46515SOL    HW144230   3.854   3.979  10.236 -1.1381  0.7480 -1.2055
46515SOL    HW244231   3.949   4.096  10.238  0.1751 -0.3001  1.0658
46516SOL     OW44232   5.816   6.207   1.614 -0.3071 -0.5581 -0.0978
46516SOL    HW144233   5.895   6.156   1.631 -0.3668 -0.8070 -0.5406
46516SOL    HW244234   5.846   6.282   1.564 -0.2194 -0.1532  0.5557
46517SOL     OW44235   7.519   3.081   4.255 -0.5950  0.6016  0.2425
46517SOL    HW144236   7.558   3.066   4.169  0.6814 -2.3189  1.2312
46517SOL    HW244237   7.425   3.064   4.242 -0.8962  2.7161 -1.0224
46518SOL     OW44238   3.418   0.794   2.270 -0.0462 -0.2260 -0.0071
46518SOL    HW144239   3.362   0.864   2.236 -1.1573 -0.1782  1.7772
46518SOL    HW244240   3.505   0.815   2.237 -0.6651  1.0139 -0.9439
46519SOL     OW44241   4.876   2.938  10.684  0.8987  0.3849 -0.2720
46519SOL    HW144242   4.882   2.980  10.598  1.2592 -0.9097 -0.9006
46519SOL    HW244243   4.839   3.006  10.741  0.4315  1.1981 -1.4930
46520SOL     OW44244   5.419   2.413   9.368  0.3692  0.2969 -0.2666
46520SOL    HW144245   5.397   2.475   9.437 -0.1586  0.4679 -0.5778
46520SOL    HW244246   5.478   2.461   9.310  1.5338 -0.1432  0.5418
46521SOL     OW44247  11.410   4.207   5.436 -0.0332  0.2740  0.2652
46521SOL    HW144248  11.355   4.157   5.375 -1.1677  1.9487 -0.1743
46521SOL    HW244249  11.381   4.180   5.523  1.7573 -2.3180  0.1732
46522SOL     OW44250   3.096   6.761   7.439  0.3506 -0.5120  0.4223
46522SOL    HW144251   3.008   6.771   7.401 -0.1314 -0.7555  1.4534
46522SOL    HW244252   3.155   6.787   7.368 -0.5576 -0.0770 -0.1997
46523SOL     OW44253  11.916   7.228   8.821 -0.2310  0.1074  0.0820
46523SOL    HW144254  11.910   7.136   8.849  2.1358 -0.0514  0.3018
46523SOL    HW244255  11.825   7.258   8.818 -1.0614 -2.1664  0.2331
46524SOL     OW44256   8.032   1.893  11.042  0.3683  0.2690 -0.3078
46524SOL    HW144257   7.971   1.827  11.009  1.0392 -0.1613 -0.7312
46524SOL    HW244258   7.988   1.931  11.117 -0.6101  0.2843 -0.8706
46525SOL     OW44259   4.553  11.206  10.382  0.1855  0.0662  0.1461
46525SOL    HW144260   4.489  11.221  10.312  0.3566 -2.0865 -0.5216
46525SOL    HW244261   4.501  11.178  10.457  0.1423  0.8517  0.4198
46526SOL     OW44262   0.536   9.324  10.051 -0.3978 -0.0194  0.5028
46526SOL    HW144263   0.594   9.253  10.023  0.2773  0.3348  0.9645
46526SOL    HW244264   0.574   9.354  10.133 -1.8623 -0.4864  1.3728
46527SOL     OW44265  11.831  10.503   0.100  0.7394  0.3315  0.3833
46527SOL    HW144266  11.907  10.455   0.067  2.0210  2.3719  0.1746
46527SOL    HW244267  11.772  10.508   0.025 -1.8098 -4.9637  1.5907
46528SOL     OW44268   8.609  11.713   6.887  0.1129  0.4534  0.0742
46528SOL    HW144269   8.693  11.686   6.849 -0.4343  0.6597 -1.3239
46528SOL    HW244270   8.581  11.787   6.833 -1.0057  0.3529  0.4908
46529SOL     OW44271   6.569  11.491   1.006  0.5556 -0.0165  0.3385
46529SOL    HW144272   6.548  11.584   0.992  1.0678  0.1718  0.7627
46529SOL    HW244273   6.665  11.489   1.009  0.5778 -0.7285 -0.7325
46530SOL     OW44274   0.299   8.377   5.659  0.3741  0.3745 -0.3559
46530SOL    HW144275   0.362   8.414   5.598  0.5501 -0.1044 -0.4722
46530SOL    HW244276   0.283   8.447   5.723 -0.8942  1.3856 -1.7309
46531SOL     OW44277   1.203   8.641   3.584 -0.1636  0.0935 -0.2269
46531SOL    HW144278   1.228   8.717   3.636  1.0685 -0.5123  0.0959
46531SOL    HW244279   1.283   8.615   3.538 -0.8567 -0.3080 -1.2552
46532SOL     OW44280  10.171   9.627   8.845 -0.2174  0.0528 -0.0878
46532SOL    HW144281  10.216   9.710   8.858  0.5410 -0.6086  2.0638
46532SOL    HW244282  10.241   9.561   8.850 -0.9613 -0.7773 -0.4040
46533SOL     OW44283  11.300  11.056  11.332  0.0012 -0.2972  1.1386
46533SOL    HW144284  11.341  10.973  11.307 -1.9957 -0.3627 -2.7482
46533SOL    HW244285  11.215  11.031  11.369 -0.4749 -0.0789  0.2407
46534SOL     OW44286   1.477   0.756   2.841  0.0291 -0.5152  0.8032
46534SOL    HW144287   1.490   0.844   2.878 -0.4018 -0.6261  1.2227
46534SOL    HW244288   1.479   0.770   2.747  2.5462 -0.4261  0.7948
46535SOL     OW44289   6.225  10.522  10.328  0.3376  0.1717 -0.7249
46535SOL    HW144290   6.311  10.501  10.292  0.5594 -0.2000 -0.0020
46535SOL    HW244291   6.184  10.578  10.262  1.6581  1.4658 -0.4957
46536SOL     OW44292   9.160   5.190  11.617 -0.5257 -0.5495  0.4902
46536SOL    HW144293   9.175   5.280  11.588 -0.2999 -0.4667  0.8531
46536SOL    HW244294   9.100   5.153  11.552 -0.7826 -0.0748  0.4523
46537SOL     OW44295   7.347   6.871   4.269 -0.5558 -0.3396 -0.1565
46537SOL    HW144296   7.359   6.911   4.183  0.4758  0.4921  0.3551
46537SOL    HW244297   7.412   6.800   4.273  0.1460  0.3126  0.3281
46538SOL     OW44298  11.593  10.022   2.357  0.1316  0.4413 -0.2076
46538SOL    HW144299  11.677   9.989   2.324  1.5487  0.8744  2.6155
46538SOL    HW244300  11.557  10.073   2.285  1.4430 -1.1504 -2.1054
46539SOL     OW44301   7.944   9.955   5.760  0.1774  0.4711 -0.2220
46539SOL    HW144302   8.013   9.964   5.695 -0.1958  0.4640 -0.6218
46539SOL    HW244303   7.864   9.985   5.716 -0.0802  0.4735  0.2295
46540SOL     OW44304   9.618   4.981   0.359  0.7119  0.1139  0.6928
46540SOL    HW144305   9.548   4.918   0.340  2.0455 -1.2223 -0.0568
46540SOL    HW244306   9.605   5.050   0.294 -0.2745  0.2035  0.9640
46541SOL     OW44307  10.097   3.603   7.427 -0.1958 -0.5517 -0.4399
46541SOL    HW144308  10.074   3.622   7.336 -0.6823 -0.6227 -0.3363
46541SOL    HW244309  10.190   3.622   7.433 -0.1315 -0.6779 -0.9898
46542SOL     OW44310   0.257   5.584   9.297 -0.3527 -0.0998  0.4628
46542SOL    HW144311   0.320   5.515   9.313 -0.1959  0.1382  0.8964
46542SOL    HW244312   0.295   5.661   9.340 -0.1243  0.4583 -0.7172
46543SOL     OW44313   0.479   0.773   8.445  0.0366  0.1386  0.3058
46543SOL    HW144314   0.455   0.763   8.538 -0.0748 -0.2913  0.2354
46543SOL    HW244315   0.497   0.866   8.435 -0.3578  0.2591  0.6637
46544SOL     OW44316   4.060   1.819   7.893 -0.2002 -0.0660 -0.2343
46544SOL    HW144317   4.063   1.879   7.819 -1.2952 -0.7628 -0.8706
46544SOL    HW244318   4.103   1.866   7.964  1.0166  0.5571 -1.3482
46545SOL     OW44319  10.433   2.158   5.219  0.0552 -0.0494  0.3609
46545SOL    HW144320  10.506   2.100   5.243  0.2951  0.9506  2.2927
46545SOL    HW244321  10.469   2.246   5.232 -1.6316  0.4663  1.9530
46546SOL     OW44322   3.222  10.320   6.115 -0.5174 -0.1161 -0.1288
46546SOL    HW144323   3.147  10.343   6.061  0.6303  1.4548 -1.1475
46546SOL    HW244324   3.278  10.268   6.057 -0.9931 -1.6796  0.7643
46547SOL     OW44325   3.309   8.709   4.731  0.3348 -0.2045 -0.6162
46547SOL    HW144326   3.294   8.760   4.651  1.1455 -2.0633 -2.0037
46547SOL    HW244327   3.372   8.642   4.706  0.2457 -1.1483  1.4810
46548SOL     OW44328   7.451   1.824   7.858  0.2635  0.5630  0.1305
46548SOL    HW144329   7.545   1.819   7.873 -0.0298  0.1173  2.1290
46548SOL    HW244330   7.420   1.893   7.916 -0.7264  0.2858 -0.0343
46549SOL     OW44331   7.145   1.383   7.931 -0.8740  0.3331  0.1053
46549SOL    HW144332   7.240   1.384   7.917 -0.3462 -3.3254  2.0738
46549SOL    HW244333   7.109   1.355   7.847  0.0741 -0.5071 -0.0439
46550SOL     OW44334   6.223   1.788   0.141 -0.2471 -0.5513 -0.8095
46550SOL    HW144335   6.239   1.862   0.200 -2.9180 -1.2722  1.0183
46550SOL    HW244336   6.295   1.728   0.159 -0.9241 -0.7233  1.8603
46551SOL     OW44337   0.312   3.731   8.702  0.6778 -0.0402  0.6946
46551SOL    HW144338   0.340   3.671   8.633 -1.9243  1.2589 -1.7109
46551SOL    HW244339   0.389   3.787   8.717  1.3959 -0.4911 -1.0325
46552SOL     OW44340   1.942   0.619   1.962  0.2789 -0.6064 -0.1685
46552SOL    HW144341   1.922   0.574   2.044  0.7427  0.6305  0.6313
46552SOL    HW244342   2.037   0.621   1.958  0.2685  0.3764 -0.1484
46553SOL     OW44343   5.426   1.361   2.417  0.1897 -0.4987  0.6797
46553SOL    HW144344   5.441   1.303   2.343 -1.4715 -0.0530 -0.0582
46553SOL    HW244345   5.505   1.354   2.470  0.7418 -2.0660 -0.2954
46554SOL     OW44346   0.706   9.570  11.532  0.0530  0.4401 -1.0332
46554SOL    HW144347   0.784   9.621  11.556  1.4820 -1.3836 -1.5312
46554SOL    HW244348   0.713   9.558  11.437 -0.1897 -0.7165 -0.9210
46555SOL     OW44349   1.858  10.095   4.474  0.3981  0.2814  0.5938
46555SOL    HW144350   1.881  10.048   4.394 -1.3876 -0.6911  0.6136
46555SOL    HW244351   1.928  10.074   4.535  0.6309 -0.7784 -0.0174
46556SOL     OW44352   8.847   8.297   2.657 -0.9386  0.4109  0.6506
46556SOL    HW144353   8.916   8.307   2.722 -1.4226 -1.8011  1.6176
46556SOL    HW244354   8.782   8.241   2.700 -2.0287  0.1865 -1.1811
46557SOL     OW44355   6.457   8.933   8.634  0.2376 -0.2318  0.3525
46557SOL    HW144356   6.379   8.931   8.689 -0.7275  1.5251 -0.8773
46557SOL    HW244357   6.527   8.964   8.692 -0.4217  0.1294  0.9674
46558SOL     OW44358   3.990   4.322   7.000 -0.1051  0.8228 -0.0895
46558SOL    HW144359   4.064   4.381   7.018 -0.8246  2.1328 -1.1818
46558SOL    HW244360   3.947   4.310   7.084  1.4833 -0.1856  0.6253
46559SOL     OW44361   1.379  10.590   8.319 -0.0844  0.1142 -0.1192
46559SOL    HW144362   1.332  10.648   8.380  0.6408 -0.7654  1.3407
46559SOL    HW244363   1.471  10.599   8.345  0.3476  0.3033 -1.6313
46560SOL     OW44364   9.128   9.469   4.818  0.7072 -0.3093 -0.4822
46560SOL    HW144365   9.055   9.487   4.759 -0.7905  0.4498  1.4669
46560SOL    HW244366   9.112   9.379   4.848  1.2547 -0.5656 -0.9588
46561SOL     OW44367   5.370  10.712   6.416 -0.1601  0.3956 -0.0913
46561SOL    HW144368   5.427  10.702   6.340  1.2954  2.0222  0.7168
46561SOL    HW244369   5.392  10.638   6.473  2.0504  1.6015  0.7202
46562SOL     OW44370   5.748   9.748   2.076  0.3383 -0.5354 -0.2432
46562SOL    HW144371   5.745   9.743   1.980  2.6783 -1.7719 -0.3383
46562SOL    HW244372   5.782   9.835   2.095  2.6074 -1.2514 -0.7263
46563SOL     OW44373   5.046   9.453   9.517  0.0877 -0.0760  0.0986
46563SOL    HW144374   5.130   9.417   9.548  0.0128  0.4951  0.9811
46563SOL    HW244375   4.989   9.450   9.594 -0.4236  0.4042 -0.2586
46564SOL     OW44376   1.493   1.919   2.544 -0.0757 -0.2268 -0.3334
46564SOL    HW144377   1.439   1.984   2.499 -1.2123 -0.7722  0.2067
46564SOL    HW244378   1.496   1.948   2.635 -0.8839 -1.0813 -0.0117
46565SOL     OW44379  10.816   5.443  11.913 -0.0269  0.1314  0.1252
46565SOL    HW144380  10.875   5.507  11.954  0.5197  0.4016 -1.0365
46565SOL    HW244381  10.866   5.409  11.839 -1.4321  0.6055 -1.0908
46566SOL     OW44382   2.333   1.423   8.021 -0.6831 -0.3403 -0.2047
46566SOL    HW144383   2.290   1.502   8.055 -0.2771  0.1638 -0.8548
46566SOL    HW244384   2.412   1.415   8.074 -0.6004 -0.1747 -0.3030
46567SOL     OW44385   9.311   0.871   9.488 -0.2907  0.1518 -0.4340
46567SOL    HW144386   9.300   0.966   9.489 -2.4345 -0.0417  0.1613
46567SOL    HW244387   9.221   0.837   9.479  0.2702 -1.8349  0.8973
46568SOL     OW44388   6.200   4.136  10.942  0.0415  0.2117  0.9163
46568SOL    HW144389   6.181   4.147  10.849 -1.2037 -1.2898  0.9440
46568SOL    HW244390   6.212   4.042  10.953 -0.5971  0.2768  2.3842
46569SOL     OW44391   7.739   6.229   9.853  0.7171 -0.0483 -0.3117
46569SOL    HW144392   7.691   6.200   9.931 -2.0328  1.4205 -1.3109
46569SOL    HW244393   7.722   6.161   9.788 -2.2171  1.5113 -1.3761
46570SOL     OW44394   3.847   3.749   2.539  0.5137  0.0461 -1.2385
46570SOL    HW144395   3.926   3.700   2.520  0.1176 -1.5699  0.8928
46570SOL    HW244396   3.775   3.691   2.512  0.0507  0.6340 -1.2953
46571SOL     OW44397   1.913   0.301   6.677 -0.1723  0.0814  0.0889
46571SOL    HW144398   1.932   0.347   6.758  1.4947 -3.2260  1.7423
46571SOL    HW244399   1.825   0.266   6.689 -0.9581  1.6753 -0.6813
46572SOL     OW44400   2.157   8.334   5.357 -0.2172 -0.5806  0.0392
46572SOL    HW144401   2.109   8.258   5.325  0.5597 -1.0180 -0.1327
46572SOL    HW244402   2.145   8.400   5.290 -1.9327 -0.1041  0.7745
46573SOL     OW44403   4.190   3.390   8.469  0.3657  0.3327  0.3365
46573SOL    HW144404   4.116   3.401   8.528  1.1621  0.4596  1.3490
46573SOL    HW244405   4.164   3.320   8.409 -0.1381 -0.4063  1.3907
46574SOL     OW44406   9.243   6.707   5.110 -0.6468 -0.7357 -0.0682
46574SOL    HW144407   9.220   6.777   5.172  1.1682  0.4738 -0.6715
46574SOL    HW244408   9.159   6.672   5.081 -1.5821  0.0198  1.5506
46575SOL     OW44409   3.718   5.774   9.747 -0.1388 -0.0254  0.0019
46575SOL    HW144410   3.694   5.863   9.774 -0.8092 -0.0378 -0.5268
46575SOL    HW244411   3.709   5.775   9.652 -1.2101 -0.9571  0.0702
46576SOL     OW44412   7.733   7.861   5.057  0.3912  0.2294  0.0785
46576SOL    HW144413   7.738   7.915   4.979  0.6720 -1.8863 -1.4470
46576SOL    HW244414   7.822   7.829   5.070 -0.0570 -1.1650 -0.0621
46577SOL     OW44415   0.238   5.715   5.664  0.5621 -0.2910 -0.1509
46577SOL    HW144416   0.324   5.674   5.678  0.3090 -0.1639  2.3089
46577SOL    HW244417   0.191   5.701   5.747 -1.2214  0.9976 -0.8696
46578SOL     OW44418  10.611   1.473   6.674  0.1750 -0.5857 -0.5462
46578SOL    HW144419  10.685   1.492   6.731  0.4648  1.9602 -1.6372
46578SOL    HW244420  10.541   1.446   6.733  0.5487  1.6405  1.0409
46579SOL     OW44421   7.185   5.814   3.261 -0.3440  0.3748 -0.0034
46579SOL    HW144422   7.115   5.802   3.325 -0.5577 -0.0574 -0.3110
46579SOL    HW244423   7.175   5.904   3.230  0.4901  0.9835  1.4172
46580SOL     OW44424   9.493   5.068   1.943  0.2575  0.1163  0.2933
46580SOL    HW144425   9.551   4.996   1.916  1.6011  0.6330  1.6839
46580SOL    HW244426   9.545   5.147   1.931 -0.4139  0.6628  0.9122
46581SOL     OW44427   6.846   3.864   7.957  0.1990  0.2100  0.0277
46581SOL    HW144428   6.829   3.955   7.932 -0.4669 -0.1285 -0.7843
46581SOL    HW244429   6.918   3.837   7.900  0.0696  0.0804 -0.0752
46582SOL     OW44430   1.876   0.861   1.831  0.1265 -0.1192  0.0414
46582SOL    HW144431   1.871   0.780   1.882  0.4770 -0.1110  0.0939
46582SOL    HW244432   1.791   0.868   1.788  0.0387 -0.4348  0.1605
46583SOL     OW44433   8.936   8.838   7.738  0.5757 -0.4676 -0.7512
46583SOL    HW144434   8.981   8.868   7.817 -1.3740 -2.2031  1.1626
46583SOL    HW244435   8.988   8.764   7.708 -0.4381 -1.9532  0.9684
46584SOL     OW44436   7.575   4.758   3.249 -0.3448  0.3033 -0.0590
46584SOL    HW144437   7.577   4.835   3.306  0.0023  0.4921 -0.3239
46584SOL    HW244438   7.667   4.745   3.224 -0.4469 -0.0040 -0.2699
46585SOL     OW44439   9.822   0.603   0.805  0.5747 -0.2969 -0.4044
46585SOL    HW144440   9.787   0.523   0.765  1.3011 -1.6049  1.4487
46585SOL    HW244441   9.908   0.614   0.764  0.0999  0.0940 -1.3326
46586SOL     OW44442  11.760   0.516   9.680 -0.2524 -0.1177  0.2470
46586SOL    HW144443  11.838   0.524   9.735  1.0229  2.8140 -1.7249
46586SOL    HW244444  11.783   0.447   9.617  1.1904  1.2545 -0.8147
46587SOL     OW44445   3.542   1.393   4.352 -0.0499  0.0101  0.1556
46587SOL    HW144446   3.565   1.434   4.435 -0.5318  3.0738 -1.0711
46587SOL    HW244447   3.622   1.400   4.299 -0.2108 -0.4831 -0.1614
46588SOL     OW44448  10.699   8.287   1.523  0.1801  0.0253  0.0527
46588SOL    HW144449  10.686   8.320   1.434  2.2140 -1.5241 -0.8999
46588SOL    HW244450  10.633   8.332   1.575 -1.0705  1.0052 -2.2298
46589SOL     OW44451   2.875   8.493   8.534  0.2679 -0.5071  0.0174
46589SOL    HW144452   2.952   8.436   8.541 -0.0698 -1.1526 -1.2062
46589SOL    HW244453   2.896   8.554   8.464  0.4382  0.6128  1.0134
46590SOL     OW44454   1.388   3.628   8.583 -0.3281  0.0197  0.1276
46590SOL    HW144455   1.304   3.639   8.629 -0.3127  2.3201 -0.2831
46590SOL    HW244456   1.370   3.563   8.516 -1.4094 -0.5352  0.9249
46591SOL     OW44457   2.767   2.030   8.449  0.3361 -0.5882 -0.5374
46591SOL    HW144458   2.716   2.012   8.527 -0.5581 -0.9774 -1.1958
46591SOL    HW244459   2.827   2.100   8.474  1.4198 -2.0293  1.0711
46592SOL     OW44460   3.986  10.257   2.079 -0.0633 -0.3909  0.2020
46592SOL    HW144461   3.902  10.297   2.056  1.2231  1.8473 -1.0342
46592SOL    HW244462   4.029  10.241   1.995  1.9727  1.4750  0.7927
46593SOL     OW44463  10.348   5.454   5.011 -0.0366  0.2030  0.1046
46593SOL    HW144464  10.258   5.459   5.044 -0.2110  0.9830 -0.4677
46593SOL    HW244465  10.373   5.363   5.024 -1.6459 -0.5442 -1.5914
46594SOL     OW44466   1.889   9.306   4.723  0.3976 -0.6445 -0.5851
46594SOL    HW144467   1.876   9.369   4.653  0.1961 -0.4856 -0.4069
46594SOL    HW244468   1.907   9.223   4.679 -1.7979 -1.0344 -0.8910
46595SOL     OW44469   8.365   7.137   2.250  0.2803 -0.1070  0.1759
46595SOL    HW144470   8.340   7.055   2.207  1.8115  1.4031 -4.2375
46595SOL    HW244471   8.461   7.135   2.251  0.3639  1.6296 -0.2326
46596SOL     OW44472   4.336   6.931  11.761  0.0898  0.3348  0.3254
46596SOL    HW144473   4.421   6.892  11.742  0.4984  1.6444 -0.7127
46596SOL    HW244474   4.341   6.957  11.853  1.6379  2.2329 -0.2216
46597SOL     OW44475   6.054  11.844   0.786  0.1151  0.1637 -0.1523
46597SOL    HW144476   6.144  11.854   0.818  0.1903  2.1618 -0.8333
46597SOL    HW244477   6.041  11.920   0.729 -2.0496 -0.0195  0.0360
46598SOL     OW44478   9.861   8.567   0.839 -0.1674  0.6238 -0.5534
46598SOL    HW144479   9.827   8.637   0.783 -0.8245 -0.2416 -1.2611
46598SOL    HW244480   9.856   8.488   0.785  0.1395 -0.0568  0.3862
46599SOL     OW44481   8.692   0.904   9.898  0.2635 -0.5010 -0.3835
46599SOL    HW144482   8.691   0.999   9.915  0.7039 -0.5132 -0.2603
46599SOL    HW244483   8.610   0.872   9.935  1.2773 -0.5487  2.0186
46600SOL     OW44484  11.714   2.441   4.382  0.5459  0.1375 -0.3504
46600SOL    HW144485  11.624   2.473   4.376  0.5503  0.3248  0.5028
46600SOL    HW244486  11.731   2.404   4.296 -0.1724  0.5631 -0.6877
46601SOL     OW44487  11.436   9.339   0.616 -0.7725  0.3466 -0.1481
46601SOL    HW144488  11.508   9.281   0.593 -0.8927 -0.2855  0.9838
46601SOL    HW244489  11.423   9.326   0.709 -3.0068 -0.3292 -0.4879
46602SOL     OW44490   8.558   0.128   4.641  0.1462 -0.8878 -0.2826
46602SOL    HW144491   8.516   0.059   4.692  0.0075 -0.4779  0.1641
46602SOL    HW244492   8.574   0.198   4.704 -0.1380 -0.3246 -0.8236
46603SOL     OW44493   6.924   1.101   3.725 -0.0441 -0.1176  0.3056
46603SOL    HW144494   6.868   1.052   3.785  1.6398 -2.0633  0.4107
46603SOL    HW244495   7.012   1.092   3.762  0.7470  0.3857 -1.3538
46604SOL     OW44496   2.769   7.024   4.352 -0.1684 -0.0010 -0.1269
46604SOL    HW144497   2.762   6.972   4.272 -2.3827  0.0435 -0.0139
46604SOL    HW244498   2.845   7.081   4.337 -0.3482 -0.1988 -2.0662
46605SOL     OW44499   0.829   1.236   1.066 -0.4043 -0.1215 -0.7671
46605SOL    HW144500   0.844   1.147   1.035  1.5356 -0.9948  2.1677
46605SOL    HW244501   0.736   1.240   1.085 -0.5433 -1.4886 -1.0544
46606SOL     OW44502   1.344   4.106   3.272 -0.7300 -0.1947 -0.0623
46606SOL    HW144503   1.345   4.103   3.368 -0.1366  0.0998 -0.0529
46606SOL    HW244504   1.261   4.066   3.247 -1.0394  0.0405  0.5863
46607SOL     OW44505  11.464   9.218   0.929 -0.7359  0.1360 -0.1655
46607SOL    HW144506  11.477   9.123   0.921 -0.2072  0.1491  0.5515
46607SOL    HW244507  11.373   9.226   0.958 -0.6983 -0.1634  0.0465
46608SOL     OW44508   3.402   3.627   7.592 -0.0586 -0.3317 -0.1999
46608SOL    HW144509   3.447   3.700   7.634  1.9072 -1.5590 -0.0111
46608SOL    HW244510   3.311   3.637   7.617 -0.7136  4.1360 -3.1763
46609SOL     OW44511   5.464   0.703   1.503  0.2737 -0.3979 -0.0461
46609SOL    HW144512   5.407   0.741   1.436 -0.7590 -0.2216  0.8909
46609SOL    HW244513   5.488   0.777   1.559  1.9916 -0.3568 -0.8046
46610SOL     OW44514   2.552   1.419   3.070  0.2071 -0.1805 -0.4197
46610SOL    HW144515   2.592   1.389   3.152 -1.8507  0.0862  0.7486
46610SOL    HW244516   2.492   1.348   3.045 -0.6401  0.5708 -0.6029
46611SOL     OW44517  11.084   6.338   6.657  0.5522  0.3593 -0.2707
46611SOL    HW144518  11.054   6.396   6.587  0.4294  0.8566  0.1878
46611SOL    HW244519  11.017   6.270   6.662  0.6755  0.1936 -0.7842
46612SOL     OW44520   4.447   3.428   8.392 -0.0360 -0.4348  0.2518
46612SOL    HW144521   4.486   3.413   8.478  1.0963  1.0283  0.0313
46612SOL    HW244522   4.353   3.435   8.410  0.0857 -1.0468  1.2325
46613SOL     OW44523   1.433   4.838   4.652 -0.5849 -0.0449  0.0746
46613SOL    HW144524   1.518   4.799   4.672 -0.0912  0.5184 -0.8410
46613SOL    HW244525   1.410   4.887   4.730  0.2209  0.2833  0.1129
46614SOL     OW44526   0.500   7.705  10.633 -0.2486 -0.2715 -0.4609
46614SOL    HW144527   0.446   7.673  10.706 -0.2558 -0.3742 -0.5118
46614SOL    HW244528   0.495   7.636  10.567 -0.6457  0.0340 -0.7599
46615SOL     OW44529  10.782   4.937   6.324  0.1095  0.1280 -0.7028
46615SOL    HW144530  10.730   4.988   6.386  0.7486  1.0087 -0.8695
46615SOL    HW244531  10.731   4.938   6.243  0.4144  1.0624 -0.8915
46616SOL     OW44532   3.070   2.445   6.021 -0.2908 -0.4543  0.0699
46616SOL    HW144533   3.142   2.416   6.078  0.3217  1.0472  0.1047
46616SOL    HW244534   3.001   2.470   6.082  1.2236  3.5178  0.4718
46617SOL     OW44535   0.707   6.176  10.295  0.5822 -0.2754 -0.5032
46617SOL    HW144536   0.693   6.083  10.313 -0.4402 -0.0399  0.0195
46617SOL    HW244537   0.801   6.189  10.305  0.8134 -1.3600 -1.1157
46618SOL     OW44538   0.979  10.194   4.205  0.2251 -0.1280 -0.4396
46618SOL    HW144539   0.885  10.174   4.206  0.1882 -0.1651 -2.1027
46618SOL    HW244540   1.019  10.126   4.260 -0.9002  1.1021  2.0202
46619SOL     OW44541   8.659   0.480  11.004  0.5552  0.1610 -0.0321
46619SOL    HW144542   8.609   0.401  11.022 -0.1527  0.4565 -0.6281
46619SOL    HW244543   8.635   0.540  11.075 -0.5210  0.5518 -0.6950
46620SOL     OW44544   7.514   9.387   4.469  0.3965 -0.1909 -0.2270
46620SOL    HW144545   7.475   9.475   4.468  1.1461  0.1847 -2.7973
46620SOL    HW244546   7.608   9.403   4.483  0.4994 -0.6137 -0.4500
46621SOL     OW44547   8.954   3.759   6.322  0.5444  0.9026  0.3059
46621SOL    HW144548   9.023   3.693   6.326 -0.2591 -0.1320 -1.6790
46621SOL    HW244549   8.994   3.838   6.358  1.6794 -0.4873  2.3382
46622SOL     OW44550   4.652  11.007   6.462 -0.1601  0.0789 -0.1159
46622SOL    HW144551   4.559  10.988   6.458 -0.1833 -1.5292  3.6427
46622SOL    HW244552   4.658  11.102   6.467 -1.4671  0.2543 -1.3371
46623SOL     OW44553   7.488   7.868   9.645 -0.0962 -0.0362  0.2442
46623SOL    HW144554   7.559   7.847   9.584  0.6143  0.8187  0.7389
46623SOL    HW244555   7.529   7.862   9.732 -0.6914  0.2396  0.5491
46624SOL     OW44556   7.609   6.144   2.013 -0.6772 -0.2885  0.7244
46624SOL    HW144557   7.617   6.214   2.078  3.1240 -0.3476  0.5123
46624SOL    HW244558   7.672   6.078   2.040  0.7161 -0.5689 -2.6254
46625SOL     OW44559  10.884   2.790   5.466 -1.1360 -0.5728 -0.9180
46625SOL    HW144560  10.878   2.883   5.441 -2.2518 -0.1327  0.8128
46625SOL    HW244561  10.978   2.771   5.462 -0.4786  1.5164  1.4927
46626SOL     OW44562   0.107   8.718   2.570 -0.1474  0.4008  1.0021
46626SOL    HW144563   0.097   8.650   2.637 -1.6239  0.6344  1.0715
46626SOL    HW244564   0.129   8.670   2.491  0.9455  0.0539  1.5027
46627SOL     OW44565   5.632   2.024   1.124  0.1284  0.3583 -0.4033
46627SOL    HW144566   5.666   1.996   1.039  0.7890  2.4960 -0.9073
46627SOL    HW244567   5.710   2.047   1.175 -0.2328 -1.2924  0.9764
46628SOL     OW44568   3.604   8.047   5.716  0.3766  0.4267  0.4280
46628SOL    HW144569   3.575   7.958   5.738  2.3396 -0.3657 -0.0303
46628SOL    HW244570   3.525   8.090   5.682 -0.2292 -1.6940 -1.0107
46629SOL     OW44571  10.464  11.567   8.897 -0.3593  0.3587 -0.0434
46629SOL    HW144572  10.421  11.501   8.952 -1.8219  0.7276 -0.7134
46629SOL    HW244573  10.436  11.547   8.808  0.5993  0.8380 -0.4738
46630SOL     OW44574   1.466   0.105  11.926 -0.1998  0.3654  0.0521
46630SOL    HW144575   1.550   0.061  11.939  0.1159  0.5288 -1.2160
46630SOL    HW244576   1.447   0.146  12.010  0.5515 -0.4156  0.6205
46631SOL     OW44577   0.191  11.347   6.074  0.0484  0.5961 -0.2830
46631SOL    HW144578   0.217  11.339   6.166  0.7793  0.8944 -0.4551
46631SOL    HW244579   0.199  11.259   6.039 -1.4141  0.2372  0.2313
46632SOL     OW44580   5.656  10.768   3.976 -0.0002  0.2528 -0.2162
46632SOL    HW144581   5.583  10.758   4.037 -0.7492 -0.3053 -1.1817
46632SOL    HW244582   5.688  10.858   3.991 -0.5839  0.3449  0.5259
46633SOL     OW44583   7.108   5.761   0.955 -0.4239  0.0206 -0.2390
46633SOL    HW144584   7.076   5.674   0.977 -1.9163  0.1516 -1.6500
46633SOL    HW244585   7.171   5.746   0.884 -1.9547  0.1567 -1.6850
46634SOL     OW44586   8.351   8.228   1.555 -0.4357  0.2825  0.6270
46634SOL    HW144587   8.336   8.291   1.485 -0.5872  0.7819  1.0973
46634SOL    HW244588   8.381   8.149   1.511 -0.5530  0.5828  0.0015
46635SOL     OW44589   4.461   9.014   2.534 -0.3591 -0.2584  0.1469
46635SOL    HW144590   4.410   9.081   2.488  1.7303  2.3057  1.3043
46635SOL    HW244591   4.403   8.983   2.604 -0.2783  3.0187  1.8315
46636SOL     OW44592  10.994  10.422   2.465 -1.0746 -0.2308 -0.0027
46636SOL    HW144593  10.973  10.432   2.372  2.5706  0.1791 -0.9379
46636SOL    HW244594  11.036  10.336   2.471  2.2229  1.2296  0.3221
46637SOL     OW44595  11.921   7.826   5.157 -0.1420  0.3832 -0.3046
46637SOL    HW144596  11.898   7.845   5.248 -0.6847 -2.1193  0.1495
46637SOL    HW244597  11.849   7.773   5.125  1.7286 -1.9513 -0.9697
46638SOL     OW44598   0.261   5.704  11.189 -0.0632  0.5677 -0.1547
46638SOL    HW144599   0.239   5.711  11.096  0.0082 -1.7746 -0.4147
46638SOL    HW244600   0.220   5.622  11.216  0.7920  0.6962  1.6402
46639SOL     OW44601   4.609   4.030   6.312 -0.2703  0.3227 -0.4581
46639SOL    HW144602   4.661   3.986   6.379 -0.1583  0.3083 -0.5537
46639SOL    HW244603   4.602   3.966   6.241 -0.7097  0.2007 -0.3051
46640SOL     OW44604   0.317   4.606   8.557  0.3093 -0.4621 -0.5225
46640SOL    HW144605   0.242   4.612   8.498  0.3946  1.6725 -0.5163
46640SOL    HW244606   0.388   4.649   8.509  1.0667 -0.9360  0.1558
46641SOL     OW44607   6.577  10.733   3.437  0.3328 -0.3442  0.6171
46641SOL    HW144608   6.657  10.726   3.489 -0.1553  0.4531  1.5185
46641SOL    HW244609   6.531  10.809   3.474 -0.5964 -0.4744 -0.2174
46642SOL     OW44610   1.165   3.561   9.776 -0.0462  0.1340 -0.1894
46642SOL    HW144611   1.166   3.634   9.714 -1.9974 -0.5684 -1.1580
46642SOL    HW244612   1.079   3.520   9.762  0.8230 -2.0787  0.6033
46643SOL     OW44613   3.922   1.311   8.733  0.8673 -0.0011  0.3892
46643SOL    HW144614   3.978   1.311   8.810 -0.4443  1.2105  1.3819
46643SOL    HW244615   3.854   1.246   8.752 -0.4068  1.4741  1.0062
46644SOL     OW44616   1.331   2.706   6.370  0.1331 -0.6998  0.2714
46644SOL    HW144617   1.359   2.798   6.363 -0.5023 -0.6251 -1.8239
46644SOL    HW244618   1.413   2.657   6.376  0.5433 -0.1031 -0.2965
46645SOL     OW44619   6.673   1.355   7.364 -0.3147 -0.3451  0.2420
46645SOL    HW144620   6.708   1.268   7.346  1.0439  0.3670 -0.7189
46645SOL    HW244621   6.590   1.338   7.409 -0.1952 -2.1263 -0.1176
46646SOL     OW44622   6.257  11.746  10.717 -0.2482  0.5849  0.3220
46646SOL    HW144623   6.264  11.811  10.786 -0.8577  0.3707  0.5952
46646SOL    HW244624   6.328  11.768  10.656  0.1423  0.9180  0.8874
46647SOL     OW44625   4.758   2.842   5.401 -0.3291 -0.0416 -0.2344
46647SOL    HW144626   4.735   2.918   5.348 -1.7940 -1.2587 -1.4375
46647SOL    HW244627   4.722   2.768   5.353  0.4572 -1.4442  1.2501
46648SOL     OW44628   7.957   3.823   1.394  0.4907 -0.7882 -0.1740
46648SOL    HW144629   7.950   3.883   1.320 -0.9541  0.0842  0.6167
46648SOL    HW244630   7.879   3.767   1.386  1.5271 -2.2346 -0.5854
46649SOL     OW44631   2.091   2.320   9.188  0.1490 -0.5044  0.3467
46649SOL    HW144632   2.081   2.402   9.139  0.1550 -0.9816 -0.4746
46649SOL    HW244633   2.119   2.257   9.122 -1.5260 -1.5774  0.6159
46650SOL     OW44634   0.769  11.018  10.726  0.4403 -0.4051 -0.8450
46650SOL    HW144635   0.708  10.960  10.681  0.5673 -0.1000 -1.4185
46650SOL    HW244636   0.758  11.103  10.683  0.4109 -0.0573 -0.1584
46651SOL     OW44637   7.428   7.707   0.545 -0.2596  0.4946 -0.0947
46651SOL    HW144638   7.523   7.718   0.534 -0.0911 -0.3185  0.4265
46651SOL    HW244639   7.419   7.662   0.629 -1.0142 -0.7473 -0.7989
46652SOL     OW44640  11.804   7.981   9.103 -0.3557 -0.5473 -0.0815
46652SOL    HW144641  11.811   8.008   9.195  0.0943 -0.4859 -0.1312
46652SOL    HW244642  11.762   7.895   9.106 -0.1176 -0.6562  0.2016
46653SOL     OW44643   5.503   5.961   8.871 -0.1331  0.8928 -0.2347
46653SOL    HW144644   5.508   5.975   8.966 -0.5453  1.9519 -0.3630
46653SOL    HW244645   5.507   5.866   8.861  1.2064  0.8180  0.7691
46654SOL     OW44646   0.364  11.788   4.525  0.0789 -0.0145  0.0158
46654SOL    HW144647   0.349  11.874   4.565 -0.5157 -0.1888  0.1861
46654SOL    HW244648   0.376  11.729   4.600  1.2081  0.0364 -0.1104
46655SOL     OW44649   8.359   3.276   6.831  0.7585 -0.7311  0.1858
46655SOL    HW144650   8.373   3.295   6.924  0.5659  2.0484 -0.2668
46655SOL    HW244651   8.447   3.271   6.794  0.8457 -2.1151  0.5023
46656SOL     OW44652   3.108   7.532   5.598  0.0787  0.4437  0.1739
46656SOL    HW144653   3.072   7.478   5.528  0.2430 -0.2780  0.6338
46656SOL    HW244654   3.035   7.589   5.624 -0.3603 -0.1498  0.2611
46657SOL     OW44655   6.513   7.806   4.633 -0.5870  0.5936  0.1383
46657SOL    HW144656   6.473   7.812   4.546 -0.8986  1.0222  0.3108
46657SOL    HW244657   6.595   7.853   4.625 -0.7120  0.8127  0.1309
46658SOL     OW44658   5.632   3.511  11.907  0.3166 -0.2395  0.4146
46658SOL    HW144659   5.592   3.593  11.878  1.3579  0.0481 -0.2679
46658SOL    HW244660   5.637   3.458  11.827 -1.2416 -1.3754  1.0345
46659SOL     OW44661   3.621   6.248   0.519  0.0199  0.4579  0.2149
46659SOL    HW144662   3.564   6.303   0.466  0.0798 -0.5681 -0.9571
46659SOL    HW244663   3.697   6.303   0.538 -0.4860  1.1909  0.1607
46660SOL     OW44664  10.910   9.286   7.393  0.3912 -0.2381 -0.2682
46660SOL    HW144665  10.873   9.243   7.316 -2.1187 -2.2323  1.8628
46660SOL    HW244666  10.989   9.329   7.361 -0.2711 -1.3621 -3.8172
46661SOL     OW44667   9.197   4.637   8.685 -0.4741 -0.4220  0.2639
46661SOL    HW144668   9.258   4.700   8.645 -0.6295 -0.2931  0.2292
46661SOL    HW244669   9.163   4.587   8.611 -0.7024 -0.2356  0.2415
46662SOL     OW44670   9.058   9.800   5.416  0.2287  0.0541 -0.0139
46662SOL    HW144671   9.045   9.886   5.457 -1.8104 -0.4758  0.5784
46662SOL    HW244672   9.144   9.806   5.374 -1.2691  3.6066 -3.0550
46663SOL     OW44673   3.021   1.332   2.182  1.2192  0.1233  0.0837
46663SOL    HW144674   2.973   1.372   2.109 -0.8097 -0.9267  0.7700
46663SOL    HW244675   3.096   1.289   2.140 -0.0365 -0.6840 -1.4560
46664SOL     OW44676   2.545  10.827   6.312  0.1152  0.0150  0.6831
46664SOL    HW144677   2.581  10.740   6.296  1.6117  0.9321 -1.3218
46664SOL    HW244678   2.552  10.838   6.407  0.0763 -1.9581  0.9566
46665SOL     OW44679   0.012   5.986   7.407 -0.3423 -0.3222  0.0966
46665SOL    HW144680  -0.050   5.995   7.335  0.5686 -0.9237 -0.7967
46665SOL    HW244681   0.043   6.076   7.423 -0.6365 -0.1680 -0.1811
46666SOL     OW44682   2.685   3.898   3.695  0.0413 -0.4495  0.1563
46666SOL    HW144683   2.749   3.968   3.706  0.1249 -0.4072 -0.5475
46666SOL    HW244684   2.607   3.930   3.741  0.6721 -0.7182  1.4380
46667SOL     OW44685   5.966  10.195  11.269  0.2530  0.6219 -0.3728
46667SOL    HW144686   5.977  10.176  11.176 -0.7718  2.2257 -0.8780
46667SOL    HW244687   5.872  10.185  11.285  0.6250 -1.3075  0.9384
46668SOL     OW44688   6.468   7.364   8.320 -0.0500  0.5508 -0.3560
46668SOL    HW144689   6.523   7.306   8.373  0.4217  0.0755 -1.3518
46668SOL    HW244690   6.526   7.434   8.291  0.1878 -0.1991 -1.7943
46669SOL     OW44691   4.986   3.438   3.808  0.0980  1.2217 -0.7998
46669SOL    HW144692   4.937   3.503   3.858  0.0371  0.7555 -0.2375
46669SOL    HW244693   4.927   3.415   3.735  0.1025  1.7509 -0.9767
46670SOL     OW44694   4.338   5.308   2.294  0.5806 -0.4430  0.4895
46670SOL    HW144695   4.246   5.283   2.292 -0.1597  2.0683 -0.0392
46670SOL    HW244696   4.340   5.389   2.346  2.4538 -0.2921  0.2620
46671SOL     OW44697   1.217   9.757   4.185  0.7944  0.2531 -0.0082
46671SOL    HW144698   1.308   9.780   4.165  1.2828 -2.1034 -0.7553
46671SOL    HW244699   1.224   9.688   4.250 -0.4464 -0.2849 -0.4268
46672SOL     OW44700   1.794   3.960   2.124 -0.2015  0.6451  0.1242
46672SOL    HW144701   1.725   4.013   2.084 -0.5492 -0.1728 -0.3830
46672SOL    HW244702   1.875   3.993   2.084 -0.4361  0.6572 -0.3518
46673SOL     OW44703   5.041   1.964   2.827 -0.7106  0.5234 -0.2758
46673SOL    HW144704   5.051   1.893   2.764  2.3495  0.9248 -0.3977
46673SOL    HW244705   4.993   2.032   2.779 -0.7563 -0.2079 -1.2965
46674SOL     OW44706   4.869   4.408   5.911  0.5371  0.2950  0.2781
46674SOL    HW144707   4.936   4.418   5.979  1.0121 -0.8905  0.0062
46674SOL    HW244708   4.908   4.349   5.847  0.2815  1.7268 -1.2904
46675SOL     OW44709   6.255   0.152   6.696 -0.2220 -0.0116 -0.1958
46675SOL    HW144710   6.331   0.193   6.654 -0.0194  0.4688  0.6095
46675SOL    HW244711   6.218   0.222   6.751  0.0709 -0.8678  1.1339
46676SOL     OW44712   1.957  10.151   4.011  0.5229 -0.5336 -0.1349
46676SOL    HW144713   1.936  10.242   3.991 -1.2710 -0.6757  0.9027
46676SOL    HW244714   1.913  10.100   3.943  0.5163 -0.6761 -0.0247
46677SOL     OW44715   1.511   6.024   2.095  0.3248 -0.0942  0.1803
46677SOL    HW144716   1.432   6.067   2.126  0.2033  1.3120 -1.8974
46677SOL    HW244717   1.582   6.070   2.139  0.0629 -0.1767  0.6941
46678SOL     OW44718   4.592   8.983   8.839  0.2289  0.1009  1.0113
46678SOL    HW144719   4.546   9.010   8.759 -0.8071 -0.2453  1.4771
46678SOL    HW244720   4.522   8.966   8.902  1.0011 -0.4907  1.7223
46679SOL     OW44721   8.113   7.697   3.275 -0.0283 -0.0711 -0.4842
46679SOL    HW144722   8.124   7.782   3.316 -1.0828  0.7014 -1.7270
46679SOL    HW244723   8.131   7.713   3.182  3.8922 -2.0519 -0.2963
46680SOL     OW44724   8.464  11.948   3.177 -0.6564 -0.5694 -0.0021
46680SOL    HW144725   8.484  11.872   3.232  1.7356 -0.1858 -0.2155
46680SOL    HW244726   8.500  11.925   3.091 -2.3721 -0.2726 -0.8246
46681SOL     OW44727   1.068   2.465   6.122  0.0652  1.4245  0.2207
46681SOL    HW144728   1.124   2.392   6.148 -0.4852  1.0893  0.4734
46681SOL    HW244729   1.129   2.534   6.096  0.7505  2.1018  3.1603
46682SOL     OW44730  10.469   3.495   8.928  0.0184  0.0886 -0.0853
46682SOL    HW144731  10.524   3.420   8.907  0.1798 -0.5903  2.4268
46682SOL    HW244732  10.530   3.562   8.958 -0.3599  0.0430  0.8062
46683SOL     OW44733   3.992   9.503   8.916  0.0704 -0.0668 -0.6371
46683SOL    HW144734   4.000   9.551   8.998  0.9877  3.6436 -2.6482
46683SOL    HW244735   3.942   9.425   8.938  1.0577  0.2408  3.5514
46684SOL     OW44736   9.460   7.554   8.557 -0.3715 -0.0494 -0.1579
46684SOL    HW144737   9.508   7.614   8.499 -0.9374 -0.4852 -1.1052
46684SOL    HW244738   9.527   7.493   8.589 -0.3150 -0.9399 -1.8288
46685SOL     OW44739   0.115   9.836   6.763  0.3312 -0.1362 -0.3606
46685SOL    HW144740   0.142   9.884   6.685  0.0487 -0.0724 -0.4192
46685SOL    HW244741   0.045   9.889   6.801  0.9430  0.2034  0.3304
46686SOL     OW44742   5.254  10.509   7.487  0.0271 -0.7716 -0.7584
46686SOL    HW144743   5.342  10.545   7.481 -0.3502  0.2818 -0.3524
46686SOL    HW244744   5.241  10.490   7.580  0.8279 -3.6725 -1.1628
46687SOL     OW44745   5.785   9.519   6.460 -0.2489 -0.3294  0.3977
46687SOL    HW144746   5.795   9.453   6.529 -0.4230 -0.7525  0.0302
46687SOL    HW244747   5.861   9.576   6.470  0.1184 -0.8242  0.4736
46688SOL     OW44748   6.477   0.405   1.356  0.1312  0.8845 -0.1793
46688SOL    HW144749   6.387   0.429   1.375  0.4365  0.5686  1.8295
46688SOL    HW244750   6.507   0.358   1.434  1.5650 -0.3708 -1.4139
46689SOL     OW44751   1.927   3.286   0.047 -0.1292  0.0352  0.3203
46689SOL    HW144752   2.000   3.309  -0.011 -0.8113  0.1194 -0.5118
46689SOL    HW244753   1.850   3.325   0.006 -0.4987  0.9306  1.7951
46690SOL     OW44754   6.339   8.124   4.798  0.0800 -0.0687 -0.5322
46690SOL    HW144755   6.338   8.030   4.780 -0.0794 -0.0571 -0.5835
46690SOL    HW244756   6.409   8.135   4.861  3.5710  0.4447 -4.0911
46691SOL     OW44757  11.403   0.747   8.173 -0.3110 -0.1783 -0.4070
46691SOL    HW144758  11.452   0.793   8.241  0.0110 -0.4680 -0.4439
46691SOL    HW244759  11.323   0.799   8.162  0.8351  1.3892 -1.7073
46692SOL     OW44760   0.885   1.839   9.393 -0.3323 -0.3712 -0.1893
46692SOL    HW144761   0.809   1.838   9.451 -1.6165 -0.0903 -1.7719
46692SOL    HW244762   0.892   1.748   9.361  0.5754 -0.6040  0.6322
46693SOL     OW44763   7.005   2.607   2.195  0.5250 -0.6703 -0.2408
46693SOL    HW144764   7.097   2.627   2.175  0.6689  0.7816  1.6013
46693SOL    HW244765   6.957   2.682   2.161  0.5777  0.8813  2.8043
46694SOL     OW44766  11.637   6.461  10.202  0.6313  0.5796 -0.7490
46694SOL    HW144767  11.628   6.380  10.252  1.1585  1.2843  0.5128
46694SOL    HW244768  11.669   6.432  10.116 -2.3017 -0.8687 -1.5106
46695SOL     OW44769   6.490   4.635   4.695 -0.3438  0.0062  0.1401
46695SOL    HW144770   6.472   4.725   4.669 -0.8057 -0.7622 -2.5943
46695SOL    HW244771   6.557   4.605   4.633  2.1610 -0.6717  2.9286
46696SOL     OW44772  10.609   5.056   4.265 -0.4059  0.0707 -0.1423
46696SOL    HW144773  10.694   5.044   4.223  0.3892  0.9628  1.1437
46696SOL    HW244774  10.591   4.973   4.308 -1.2375 -0.8670 -2.1499
46697SOL     OW44775   2.704  10.448   5.051  0.1959 -0.4768  0.4156
46697SOL    HW144776   2.702  10.535   5.009 -1.5355  0.2445  1.8516
46697SOL    HW244777   2.796  10.435   5.073  0.5813  0.7350 -0.3245
46698SOL     OW44778   8.969   9.830   8.090  0.0100  0.4881 -0.2805
46698SOL    HW144779   8.883   9.819   8.048 -0.2134  0.1883  0.2449
46698SOL    HW244780   8.989   9.923   8.079  0.3838  0.2375 -1.8535
46699SOL     OW44781   9.146   8.812   4.293 -0.3540 -0.4567  0.2173
46699SOL    HW144782   9.062   8.856   4.305 -0.4130 -0.1123 -1.2763
46699SOL    HW244783   9.130   8.721   4.315 -1.2746 -0.5077 -0.6254
46700SOL     OW44784  10.681   2.507   3.257  1.0528  0.3752  0.2736
46700SOL    HW144785  10.763   2.555   3.262 -0.0426  2.2531  1.3056
46700SOL    HW244786  10.704   2.417   3.280  3.1314  0.3917 -1.4755
46701SOL     OW44787   9.489   5.978   4.369  0.1793  0.2560  0.4148
46701SOL    HW144788   9.515   6.069   4.359  0.5427  0.0998 -0.1176
46701SOL    HW244789   9.423   5.964   4.301  0.3901  0.0262  0.2532
46702SOL     OW44790   1.181   7.284   6.349  0.1271  0.1039  0.3736
46702SOL    HW144791   1.139   7.264   6.265  0.3872  1.0084  0.0117
46702SOL    HW244792   1.246   7.352   6.327  1.7693 -1.2148  0.9093
46703SOL     OW44793   8.094  11.997  10.617  0.0309  0.0391 -0.1204
46703SOL    HW144794   8.030  11.995  10.688  0.3059 -0.0379  0.1268
46703SOL    HW244795   8.047  12.036  10.543 -0.3947 -0.3144 -0.0384
46704SOL     OW44796   2.180   7.232   4.402  0.0675 -0.4294  0.3538
46704SOL    HW144797   2.187   7.245   4.307 -0.8757 -1.3017  0.1415
46704SOL    HW244798   2.099   7.182   4.413  0.8028 -1.4117  1.5222
46705SOL     OW44799  11.537  10.066  10.251  0.5968 -0.1157  0.6797
46705SOL    HW144800  11.623  10.091  10.217 -0.3525  1.3363 -0.8140
46705SOL    HW244801  11.486  10.147  10.249 -1.6947 -1.4783 -1.3191
46706SOL     OW44802   4.664   7.700   2.731 -0.1846 -0.1555 -0.5726
46706SOL    HW144803   4.589   7.647   2.758 -1.3147  1.9131  0.5985
46706SOL    HW244804   4.732   7.680   2.794 -1.4733  1.6210  1.5179
46707SOL     OW44805   1.613   1.638  11.234  0.4898  0.1992 -0.2200
46707SOL    HW144806   1.654   1.631  11.320  1.1696  0.0703 -0.5519
46707SOL    HW244807   1.655   1.714  11.194  0.1456  0.2820 -0.4285
46708SOL     OW44808  11.317   2.488   4.709  0.2536  0.2156 -0.0827
46708SOL    HW144809  11.274   2.561   4.754 -1.8553 -0.1753 -1.3274
46708SOL    HW244810  11.384   2.530   4.655 -0.1965  1.1477  0.0451
46709SOL     OW44811   8.697  10.631  10.942 -0.3681  0.6370  0.3283
46709SOL    HW144812   8.603  10.648  10.935  0.0881  3.5251 -0.0142
46709SOL    HW244813   8.731  10.703  10.996  1.7179 -0.0337  0.0112
46710SOL     OW44814   8.991   7.703   0.978 -0.4765  0.4608 -0.1881
46710SOL    HW144815   9.040   7.708   0.896  0.0041  0.3958  0.0910
46710SOL    HW244816   9.010   7.785   1.023  0.1204  0.0545  0.3275
46711SOL     OW44817   4.665   1.083   4.960 -0.1911  0.1265 -0.0418
46711SOL    HW144818   4.739   1.135   4.928 -0.8230  1.2332  0.2240
46711SOL    HW244819   4.704   1.008   5.003  0.7744  0.5828 -0.1100
46712SOL     OW44820   3.202   3.839  11.713  0.7410 -0.4281 -0.1478
46712SOL    HW144821   3.264   3.881  11.653 -0.5547  2.1662  0.2015
46712SOL    HW244822   3.247   3.838  11.798  0.5921  0.8402 -0.0395
46713SOL     OW44823   0.735   5.047  11.030  0.4753 -0.1328  0.2003
46713SOL    HW144824   0.817   5.094  11.010  0.3404 -0.0445 -0.1619
46713SOL    HW244825   0.763   4.969  11.077  0.8807 -0.7464 -1.0239
46714SOL     OW44826   2.416   0.892   1.916  0.9994  0.4140  0.0115
46714SOL    HW144827   2.342   0.922   1.969  0.6296 -1.9608  0.9650
46714SOL    HW244828   2.401   0.929   1.830 -2.2795 -1.2694 -0.3048
46715SOL     OW44829   3.834   7.355   4.984 -0.0417 -0.4032 -0.1772
46715SOL    HW144830   3.918   7.369   4.940  1.1173 -1.4038  1.5958
46715SOL    HW244831   3.802   7.273   4.946  0.6073 -0.8917  0.3023
46716SOL     OW44832   0.644   2.574   3.855 -0.1675 -0.5257 -0.4157
46716SOL    HW144833   0.602   2.660   3.855  0.8748  0.0093  0.4548
46716SOL    HW244834   0.733   2.590   3.888 -0.0063 -1.9614 -0.0647
46717SOL     OW44835   0.646   8.938   0.125  0.0819 -0.2393  0.1214
46717SOL    HW144836   0.550   8.938   0.119  0.1592 -0.3558 -1.4778
46717SOL    HW244837   0.676   8.950   0.035  1.5832  0.5892  0.6974
46718SOL     OW44838   8.927   4.670   5.367  0.3238 -0.1254  0.1000
46718SOL    HW144839   8.907   4.744   5.424  0.2260  0.6249 -0.8738
46718SOL    HW244840   9.023   4.665   5.365  0.4055  1.3009 -1.4312
46719SOL     OW44841   4.347   9.040   1.866  0.2569 -0.1719  0.2540
46719SOL    HW144842   4.390   9.047   1.951  0.4791  0.6641  0.0794
46719SOL    HW244843   4.306   9.125   1.852 -0.6370 -0.6386 -0.0269
46720SOL     OW44844   5.385   7.575   3.551 -0.0102 -0.0133 -0.0491
46720SOL    HW144845   5.338   7.658   3.546 -0.5282 -0.3611 -1.9219
46720SOL    HW244846   5.475   7.599   3.569 -0.1729  0.9633 -0.4996
46721SOL     OW44847   8.819   3.912   3.130 -0.2648  0.3949 -0.0500
46721SOL    HW144848   8.819   3.982   3.065  0.6028  0.8861  0.4598
46721SOL    HW244849   8.811   3.957   3.214  1.8398  0.0314  0.3915
46722SOL     OW44850   7.226   7.960   7.416 -0.5204 -0.2786 -0.1993
46722SOL    HW144851   7.160   7.975   7.348  1.6170  3.5991 -1.7555
46722SOL    HW244852   7.291   7.904   7.374 -1.6943 -2.4082  0.6555
46723SOL     OW44853  10.684   3.038   1.037  0.1191 -0.5645 -0.6600
46723SOL    HW144854  10.701   2.992   0.955 -0.8540 -2.6583  0.2264
46723SOL    HW244855  10.630   2.977   1.087 -0.9345  1.4322  0.7811
46724SOL     OW44856   4.835  10.514   6.311 -0.1896 -0.0629  0.1898
46724SOL    HW144857   4.902  10.565   6.356  0.5222 -0.6578 -0.1621
46724SOL    HW244858   4.773  10.580   6.278  1.3262  0.7151 -1.2815
46725SOL     OW44859   8.230   2.599   7.852 -0.3863  0.7617 -0.0906
46725SOL    HW144860   8.250   2.540   7.924  1.7604 -0.0245 -1.2521
46725SOL    HW244861   8.180   2.546   7.790  0.0754  0.6338 -0.3617
46726SOL     OW44862   3.227   4.226  11.727 -0.3718 -0.4634 -0.0466
46726SOL    HW144863   3.279   4.272  11.793 -0.5955 -0.0497 -0.1497
46726SOL    HW244864   3.163   4.291  11.698 -1.5201 -1.2173  0.7149
46727SOL     OW44865   8.123  10.236  11.720 -0.0911 -0.0179 -0.2986
46727SOL    HW144866   8.040  10.192  11.741 -0.3797 -0.0006 -1.3432
46727SOL    HW244867   8.118  10.252  11.626  0.3043  1.6487 -0.0550
46728SOL     OW44868   8.141   5.536  11.377  0.4602 -0.5151  0.3882
46728SOL    HW144869   8.086   5.461  11.399  0.1780 -0.1351  1.0418
46728SOL    HW244870   8.201   5.504  11.309 -0.0179 -1.1680  0.2639
46729SOL     OW44871   0.380  11.152  11.652 -0.6341  0.3208 -1.1115
46729SOL    HW144872   0.437  11.228  11.663 -1.2894  0.7509 -0.6003
46729SOL    HW244873   0.309  11.167  11.714  1.1768 -2.5977  1.9915
46730SOL     OW44874  10.792   0.468  11.326  0.8169 -0.5103 -0.2771
46730SOL    HW144875  10.710   0.453  11.279 -1.6418  0.2641  3.3160
46730SOL    HW244876  10.812   0.385  11.368  1.1126 -0.3567 -0.1064
46731SOL     OW44877   3.956  10.927  10.240  0.1644  0.1000  0.2528
46731SOL    HW144878   3.934  11.011  10.281 -0.3092 -0.0618  0.3245
46731SOL    HW244879   3.872  10.890  10.214  0.3251 -0.6116  0.7177
46732SOL     OW44880   5.932  11.497   1.261  0.3053  0.3821  0.0259
46732SOL    HW144881   5.992  11.526   1.330 -0.5516  1.0048  0.5317
46732SOL    HW244882   5.930  11.569   1.199  2.0654 -0.6913 -1.3571
46733SOL     OW44883   5.254  10.576   0.059 -0.1827 -0.4432 -0.1977
46733SOL    HW144884   5.248  10.651   0.119 -0.9262 -0.9789  0.4097
46733SOL    HW244885   5.347  10.573   0.034 -0.0670  0.4307  0.0873
46734SOL     OW44886   7.411   3.472  10.086  0.0395 -0.0374  0.5487
46734SOL    HW144887   7.405   3.530  10.010  1.3611  0.3399  0.7175
46734SOL    HW244888   7.320   3.455  10.110 -0.3849  1.7189  0.3085
46735SOL     OW44889   2.490   3.667   5.124  0.4029 -0.4534  0.0172
46735SOL    HW144890   2.514   3.723   5.198  1.2325  0.3051 -0.7959
46735SOL    HW244891   2.574   3.643   5.084  0.0067 -1.6108 -0.1380
46736SOL     OW44892  10.476   8.455   7.504 -0.1670  0.5775 -0.0158
46736SOL    HW144893  10.569   8.477   7.495 -0.2517  1.1384  0.4134
46736SOL    HW244894  10.431   8.522   7.453 -0.4326  1.4658  1.3279
46737SOL     OW44895   7.519   2.472  10.293  0.0553 -0.4188 -0.0326
46737SOL    HW144896   7.460   2.483  10.219  1.0481  0.8465 -0.6763
46737SOL    HW244897   7.469   2.505  10.368 -0.2967  0.0598 -0.4693
46738SOL     OW44898  10.196   6.254   6.824  0.2139 -0.0288 -0.1234
46738SOL    HW144899  10.139   6.199   6.878 -1.0363  2.1686  0.9319
46738SOL    HW244900  10.284   6.238   6.858 -0.1326 -1.2756  0.2202
46739SOL     OW44901   0.911   7.613   0.902  0.2568 -0.5906  0.3898
46739SOL    HW144902   0.974   7.558   0.856 -0.1131 -0.4535 -0.2938
46739SOL    HW244903   0.964   7.686   0.935  0.5424 -0.7363  0.2622
46740SOL     OW44904  10.791   9.335  10.234  0.0827 -0.3799 -0.0282
46740SOL    HW144905  10.747   9.384  10.165  0.7993  1.1528  0.5741
46740SOL    HW244906  10.779   9.388  10.313  1.7135 -0.6695  0.4488
46741SOL     OW44907  10.910   3.653  10.663 -0.2792 -0.4355 -0.4730
46741SOL    HW144908  10.923   3.606  10.745  2.7775 -0.3933 -0.7838
46741SOL    HW244909  10.957   3.735  10.675  0.5917 -0.5963 -2.3340
46742SOL     OW44910  11.092   8.548   5.736 -0.4920  0.3091  0.6387
46742SOL    HW144911  11.186   8.545   5.722 -0.6609  0.2231 -0.5944
46742SOL    HW244912  11.076   8.635   5.773 -0.1016  0.9242 -0.6034
46743SOL     OW44913   8.724   5.551   1.544 -0.3827  0.8564 -0.0878
46743SOL    HW144914   8.744   5.479   1.483  1.8332  1.4164 -0.1248
46743SOL    HW244915   8.744   5.630   1.494  0.6597  1.3503  1.0707
46744SOL     OW44916  10.344   3.457  11.056  0.4324  0.7402  0.4748
46744SOL    HW144917  10.311   3.425  10.972  0.3825  0.6601  0.5267
46744SOL    HW244918  10.267   3.463  11.112  0.8153 -1.8837  1.4242
46745SOL     OW44919   0.791   6.464   9.104 -0.5319  0.0918 -0.0563
46745SOL    HW144920   0.750   6.487   9.021 -0.1849  1.9247  0.2534
46745SOL    HW244921   0.718   6.448   9.164 -0.7822 -1.1535 -0.6534
46746SOL     OW44922  10.911  11.263   4.603  1.1857  0.6862  0.0718
46746SOL    HW144923  10.826  11.222   4.583  0.8359  1.4832 -0.1339
46746SOL    HW244924  10.908  11.280   4.697  1.8203 -0.8140  0.3932
46747SOL     OW44925   5.121   0.941   5.104 -0.1808  0.3173  0.1506
46747SOL    HW144926   5.109   1.033   5.127  0.7582  0.2678  0.8707
46747SOL    HW244927   5.042   0.919   5.053  0.3445  1.9712 -1.4980
46748SOL     OW44928   3.386   3.909  11.523 -0.7006 -0.0608  0.1101
46748SOL    HW144929   3.428   3.840  11.471 -1.7137 -0.6620  0.0623
46748SOL    HW244930   3.356   3.973  11.458  0.6479  0.6866  0.1849
46749SOL     OW44931   3.991   4.388   6.739 -0.3978 -0.6643 -0.5557
46749SOL    HW144932   3.963   4.373   6.829  2.2724  0.1588  0.5131
46749SOL    HW244933   4.078   4.348   6.734  0.3487  1.0116 -2.1860
46750SOL     OW44934   5.667   0.209   1.472  0.3173 -0.2584  0.2420
46750SOL    HW144935   5.747   0.157   1.469  1.2846  1.1978 -0.3478
46750SOL    HW244936   5.651   0.234   1.381  0.4051  1.2205  0.6051
46751SOL     OW44937   3.863   7.009   2.766  0.2059 -0.3115 -0.0408
46751SOL    HW144938   3.815   6.969   2.838  0.0260  0.6838  0.4169
46751SOL    HW244939   3.941   6.955   2.755  1.1859  0.5432  2.1344
46752SOL     OW44940   9.493   3.896   9.612 -0.1393 -0.2275  0.3545
46752SOL    HW144941   9.435   3.844   9.668 -0.9898 -0.9467 -1.1241
46752SOL    HW244942   9.564   3.922   9.669 -1.1388 -0.6469  1.8486
46753SOL     OW44943   9.944   2.805   1.566  0.5676 -0.2414 -0.0123
46753SOL    HW144944   9.914   2.893   1.586  0.5889  0.0747 -1.3047
46753SOL    HW244945   9.984   2.774   1.648 -0.6026  0.4307  0.8488
46754SOL     OW44946   0.483  10.841   2.422  0.5158 -0.1483  0.5636
46754SOL    HW144947   0.513  10.850   2.332  2.1699  0.1886  1.1189
46754SOL    HW244948   0.406  10.784   2.417  0.3897  0.1450 -1.0847
46755SOL     OW44949   0.996  11.660  10.033 -0.0798  0.0715 -0.6610
46755SOL    HW144950   0.968  11.569  10.024 -0.9720  0.4748 -2.4652
46755SOL    HW244951   1.089  11.655  10.053  0.3060 -1.2734 -2.5357
46756SOL     OW44952  10.248   9.064   7.384 -0.4733  0.0953 -0.2205
46756SOL    HW144953  10.290   9.140   7.344  1.5834 -0.7719  0.1698
46756SOL    HW244954  10.321   9.008   7.412 -1.6830  0.2808  4.0359
46757SOL     OW44955   3.697   5.327  11.121 -0.1797 -0.5824 -0.0861
46757SOL    HW144956   3.638   5.373  11.062 -1.5905  0.6013  2.1282
46757SOL    HW244957   3.751   5.396  11.158 -0.0977 -1.1492  0.8650
46758SOL     OW44958  11.794   0.905   6.145 -0.0228 -0.4427 -0.3082
46758SOL    HW144959  11.874   0.952   6.171 -1.5574  1.2923  1.5855
46758SOL    HW244960  11.767   0.948   6.063 -0.0244  0.2383  0.0454
46759SOL     OW44961   8.549   9.299   3.927  0.1082 -0.2908 -0.8494
46759SOL    HW144962   8.620   9.278   3.866  0.0469 -1.7256 -0.4664
46759SOL    HW244963   8.500   9.369   3.884  1.9917  1.0687 -0.9149
46760SOL     OW44964   6.271  11.242   2.737  0.3798  0.2372  0.2567
46760SOL    HW144965   6.273  11.337   2.754 -0.9671  0.4380 -0.5499
46760SOL    HW244966   6.262  11.235   2.642  0.7266 -0.7143  0.2884
46761SOL     OW44967   2.229  11.320  10.830 -0.1172  0.2656 -0.3320
46761SOL    HW144968   2.269  11.395  10.785  0.2118  0.6115  0.5048
46761SOL    HW244969   2.235  11.249  10.767 -1.1163  1.1154 -1.4341
46762SOL     OW44970   3.125   3.760   4.740 -0.1831 -0.0497  0.2097
46762SOL    HW144971   3.175   3.688   4.779  0.5479 -0.2956 -1.1203
46762SOL    HW244972   3.054   3.776   4.802  0.9785 -0.3481  1.6863
46763SOL     OW44973   9.732  10.148   8.569 -0.1927  0.5121  0.3862
46763SOL    HW144974   9.681  10.114   8.642 -1.6313  0.9676 -0.3459
46763SOL    HW244975   9.676  10.216   8.531  0.9996  1.0631 -0.4417
46764SOL     OW44976   1.771   5.809   1.949 -0.2996 -0.2708 -0.1201
46764SOL    HW144977   1.832   5.834   1.880  0.8012 -0.7715  0.6451
46764SOL    HW244978   1.685   5.809   1.906  0.6026 -3.2429 -2.2750
46765SOL     OW44979  11.571   7.707   8.971 -0.0934 -0.4090  0.0981
46765SOL    HW144980  11.568   7.630   8.914 -0.6035 -0.3211 -0.0086
46765SOL    HW244981  11.478   7.729   8.985  0.0053 -0.8253  1.5124
46766SOL     OW44982  10.740  11.574   6.760 -0.4142 -0.1733 -0.1609
46766SOL    HW144983  10.662  11.538   6.717  0.1172 -0.0099 -1.3050
46766SOL    HW244984  10.813  11.528   6.719  0.1301  0.2529  0.3178
46767SOL     OW44985   9.374   0.757   7.199  0.5120 -0.4449  0.2763
46767SOL    HW144986   9.393   0.771   7.291  1.7361 -0.3335  0.0180
46767SOL    HW244987   9.459   0.755   7.156 -0.0638  1.4329 -1.1203
46768SOL     OW44988   8.641   9.606   9.119  0.0131  0.0192  0.2776
46768SOL    HW144989   8.551   9.630   9.097  0.1249  1.3198  1.1569
46768SOL    HW244990   8.695   9.656   9.058  0.1885  0.5276  0.8466
46769SOL     OW44991  10.475   2.212   4.442 -0.0405  0.0833  0.2128
46769SOL    HW144992  10.384   2.185   4.450  0.5657 -2.7472 -1.0603
46769SOL    HW244993  10.483   2.244   4.351  0.0222  1.4948  0.6841
46770SOL     OW44994   5.936   3.431   0.891  0.1529  0.3941  0.5371
46770SOL    HW144995   5.952   3.524   0.877  0.8313  0.2417  0.2497
46770SOL    HW244996   5.847   3.426   0.925 -0.1370  1.0890 -0.1091
46771SOL     OW44997   9.429   9.186   1.264 -0.0011  0.1278 -0.2106
46771SOL    HW144998   9.363   9.178   1.195 -1.3901  0.7047  0.9942
46771SOL    HW244999   9.475   9.102   1.263 -0.0435  0.0982 -1.7640
46772SOL     OW45000   0.063   0.257   9.297  0.1638  0.0455  0.0268
46772SOL    HW145001   0.130   0.219   9.240 -0.3795  0.7473 -1.1265
46772SOL    HW245002  -0.002   0.293   9.236 -1.0895 -0.3157  1.1172
46773SOL     OW45003   8.617   2.688   5.584 -0.1563  0.1223  0.1511
46773SOL    HW145004   8.611   2.668   5.491 -0.0673 -0.3325  0.2370
46773SOL    HW245005   8.556   2.760   5.598 -0.0083  0.3320 -0.2978
46774SOL     OW45006   7.820   6.748   8.973  0.4173  0.6784  0.2955
46774SOL    HW145007   7.771   6.671   9.002  1.1613 -0.6923 -1.8897
46774SOL    HW245008   7.909   6.716   8.961  0.5557  1.6407 -1.5170
46775SOL     OW45009   5.858   0.647   8.899 -0.8533 -0.7876 -0.3264
46775SOL    HW145010   5.803   0.709   8.852  0.1846  0.1520 -0.3146
46775SOL    HW245011   5.879   0.579   8.834 -1.6010 -0.9019 -0.4617
46776SOL     OW45012   7.797   6.188   2.520 -0.3032 -0.3626  0.2532
46776SOL    HW145013   7.848   6.259   2.482  2.3417 -1.8041  0.8633
46776SOL    HW245014   7.825   6.185   2.612 -0.7942 -1.7796  0.3856
46777SOL     OW45015  10.457   6.282   1.363  0.5105 -0.1385 -0.0087
46777SOL    HW145016  10.430   6.322   1.445  1.4614 -0.5855  0.5445
46777SOL    HW245017  10.529   6.223   1.388  0.0931 -1.0920 -1.0065
46778SOL     OW45018   0.790   1.529  11.166  0.2148  0.4621 -0.1441
46778SOL    HW145019   0.858   1.590  11.135  0.0776  0.7149  0.0500
46778SOL    HW245020   0.776   1.470  11.092  0.8098  0.2642 -0.1086
46779SOL     OW45021   7.709   7.753   3.114 -0.6686  0.9112  0.3380
46779SOL    HW145022   7.726   7.669   3.073  0.8972  1.1798  0.3760
46779SOL    HW245023   7.616   7.769   3.099 -0.7059 -0.2256 -0.7847
46780SOL     OW45024   3.468  10.121   0.643 -0.5541  0.1594 -0.0479
46780SOL    HW145025   3.467  10.122   0.739 -0.6979 -0.3274 -0.0458
46780SOL    HW245026   3.546  10.071   0.620  1.7038  3.4288 -0.2075
46781SOL     OW45027   2.639   7.236  10.496  0.1984 -0.2968  0.3281
46781SOL    HW145028   2.675   7.147  10.491  3.2512  0.8386  0.2438
46781SOL    HW245029   2.680   7.274  10.574  0.1129  1.4863 -0.4535
46782SOL     OW45030   6.611   4.462   2.007  0.1072  0.5237 -0.2154
46782SOL    HW145031   6.555   4.440   2.081 -0.4009 -0.9877 -1.0119
46782SOL    HW245032   6.689   4.502   2.047  0.5997 -1.7587  1.3077
46783SOL     OW45033   0.337   5.664   8.535  0.2316 -0.0456 -0.2432
46783SOL    HW145034   0.324   5.601   8.605 -0.4037 -0.8625 -1.0705
46783SOL    HW245035   0.400   5.622   8.476  0.4678  0.4648 -0.3606
46784SOL     OW45036   5.339   8.077   2.942  0.1188 -0.6269 -0.4856
46784SOL    HW145037   5.296   8.163   2.942  0.1180 -0.5610  1.8478
46784SOL    HW245038   5.390   8.076   2.861  0.8249  1.9539 -0.1637
46785SOL     OW45039  10.765   8.860  10.489  0.0742  0.2197  0.8170
46785SOL    HW145040  10.847   8.895  10.454  0.4950  0.3293  1.8892
46785SOL    HW245041  10.734   8.801  10.420  0.3763  1.1727 -0.1506
46786SOL     OW45042   0.389   5.426   6.273  0.9816 -0.0591  0.3832
46786SOL    HW145043   0.303   5.385   6.261 -0.1841  2.7908 -2.5809
46786SOL    HW245044   0.450   5.353   6.276 -1.2169 -2.1364 -1.2580
46787SOL     OW45045   0.803  10.972   1.832 -0.0851 -0.4233 -0.0038
46787SOL    HW145046   0.828  10.885   1.863  1.4758 -0.4039 -1.0866
46787SOL    HW245047   0.732  10.957   1.769  0.7809 -1.0203 -0.8593
46788SOL     OW45048   6.563   5.377   4.519  0.5411  0.2327 -0.9225
46788SOL    HW145049   6.509   5.301   4.495 -0.4485  0.8882 -0.8009
46788SOL    HW245050   6.644   5.338   4.552 -0.4906 -0.8407  0.5116
46789SOL     OW45051   2.694   5.066   7.165  0.3845  0.1124 -0.3397
46789SOL    HW145052   2.644   4.988   7.140 -0.0404 -0.0429  0.9518
46789SOL    HW245053   2.754   5.036   7.234 -0.5753  1.1416  0.9861
46790SOL     OW45054   1.749   0.751   9.003 -0.4256  0.0220 -0.0451
46790SOL    HW145055   1.746   0.751   9.099  0.2136  0.6785 -0.0125
46790SOL    HW245056   1.734   0.660   8.979  1.8263 -0.6380  0.7903
46791SOL     OW45057   3.785   2.963   6.555 -0.2003  0.2257 -0.2688
46791SOL    HW145058   3.747   3.046   6.585  1.5032  1.6758 -1.8512
46791SOL    HW245059   3.844   2.937   6.626 -1.5176 -0.2354  0.6971
46792SOL     OW45060  11.129   1.582  10.270  0.0317  0.0221 -0.5475
46792SOL    HW145061  11.170   1.590  10.183 -0.3148 -1.2252 -0.8426
46792SOL    HW245062  11.085   1.497  10.268 -0.0359  0.0080  0.8395
46793SOL     OW45063   7.353   5.282   9.700 -0.4906  0.3376 -0.3875
46793SOL    HW145064   7.335   5.268   9.793 -0.0643  2.1453 -0.0049
46793SOL    HW245065   7.276   5.330   9.668  0.3311  1.6731 -0.4253
46794SOL     OW45066   8.138   6.842   5.363  0.1065  0.3636 -0.1506
46794SOL    HW145067   8.150   6.816   5.271 -0.1290  2.6133 -0.8753
46794SOL    HW245068   8.218   6.814   5.406 -0.2997 -1.8919 -0.7096
46795SOL     OW45069   4.750   9.354   3.763 -0.2537  0.0187  0.1832
46795SOL    HW145070   4.800   9.275   3.744  0.9450  0.6331  0.6284
46795SOL    HW245071   4.817   9.420   3.783 -1.2532  0.8779  0.7990
46796SOL     OW45072   6.657   1.322  10.576 -0.1865  0.4132 -0.0432
46796SOL    HW145073   6.593   1.258  10.545  0.4383 -0.1983 -0.0839
46796SOL    HW245074   6.733   1.270  10.601 -0.0047  1.0577  0.7963
46797SOL     OW45075   8.798   0.389   0.593  0.2349 -0.1673  0.3591
46797SOL    HW145076   8.705   0.389   0.572 -0.0512 -0.4603  1.5202
46797SOL    HW245077   8.803   0.438   0.675  0.9092 -1.3709  1.0576
46798SOL     OW45078   3.886   8.082   7.444  0.1044 -0.5463  0.2264
46798SOL    HW145079   3.976   8.064   7.418 -0.0502  0.4126 -1.1124
46798SOL    HW245080   3.889   8.088   7.540  1.5469 -0.1040  0.1763
46799SOL     OW45081   1.603   0.465   2.419  0.1786 -0.0775  0.1780
46799SOL    HW145082   1.557   0.409   2.356  0.0182  0.3491 -0.0841
46799SOL    HW245083   1.535   0.517   2.459  0.4483  0.7355 -0.3872
46800SOL     OW45084   6.016   8.408  11.275 -0.2045  0.5160 -0.5088
46800SOL    HW145085   6.082   8.378  11.213 -0.8872 -0.0577 -0.9725
46800SOL    HW245086   5.953   8.335  11.281  0.9912 -0.4277  2.5734
46801SOL     OW45087   3.759   6.639   2.772 -0.0692 -0.0854 -0.2639
46801SOL    HW145088   3.704   6.562   2.757  0.1914 -0.2557 -0.3677
46801SOL    HW245089   3.794   6.660   2.685 -0.9472  0.7763 -0.4139
46802SOL     OW45090   7.858   3.183  10.706 -0.2308 -0.0623 -0.1826
46802SOL    HW145091   7.909   3.229  10.773 -0.5916 -0.2231  0.2142
46802SOL    HW245092   7.877   3.090  10.722  1.8082 -0.0339 -2.0389
46803SOL     OW45093   9.098   5.129   6.060 -0.1871 -0.1509 -0.4459
46803SOL    HW145094   9.189   5.149   6.037 -0.6356  1.2640 -1.0618
46803SOL    HW245095   9.064   5.084   5.983 -0.5834  1.1706 -1.0698
46804SOL     OW45096  11.995   4.181   7.901 -0.5762 -0.3988 -0.4674
46804SOL    HW145097  11.923   4.244   7.896 -1.1273 -1.0598 -1.1739
46804SOL    HW245098  12.023   4.182   7.993 -0.0864  1.3968 -0.6132
46805SOL     OW45099   8.340   8.851   1.848  0.5614  0.1413  0.2257
46805SOL    HW145100   8.344   8.879   1.940 -1.3076 -0.2621  0.4841
46805SOL    HW245101   8.326   8.931   1.799 -0.0725  0.1935  0.4802
46806SOL     OW45102   6.149   5.548   6.392 -0.4804 -0.4294 -0.2687
46806SOL    HW145103   6.085   5.578   6.327  0.8707 -1.3105 -2.1251
46806SOL    HW245104   6.148   5.452   6.384  0.5705 -0.4867  0.1525
46807SOL     OW45105   4.407   3.611   2.672  0.0371 -0.1834  0.3055
46807SOL    HW145106   4.367   3.526   2.654  1.5955 -1.0598  0.7751
46807SOL    HW245107   4.342   3.675   2.642 -0.6929 -1.5300 -1.1267
46808SOL     OW45108   3.724   3.730   4.363  0.1422 -0.4756  0.3930
46808SOL    HW145109   3.724   3.825   4.377 -1.3583 -0.6705  2.0967
46808SOL    HW245110   3.797   3.715   4.303 -0.1442  1.8355 -0.6371
46809SOL     OW45111  11.985   0.069   3.386  0.1879  0.2577 -0.3330
46809SOL    HW145112  11.948   0.011   3.319 -0.4856  0.3448 -0.0490
46809SOL    HW245113  11.915   0.133   3.402  0.8701  1.0722 -0.5523
46810SOL     OW45114   4.783   6.670  11.628  0.6027 -0.3231  0.0373
46810SOL    HW145115   4.783   6.593  11.571  0.1986 -0.0153 -0.3893
46810SOL    HW245116   4.820   6.639  11.710  0.1436 -1.0566 -0.0236
46811SOL     OW45117   3.942   3.856  11.283  0.0771 -0.2715 -0.3026
46811SOL    HW145118   3.865   3.824  11.330  1.1110 -0.8046  1.0908
46811SOL    HW245119   3.983   3.919  11.342  1.3546 -0.8645 -0.5105
46812SOL     OW45120   9.234   0.386   4.929 -0.5777  0.1046  0.4785
46812SOL    HW145121   9.266   0.407   4.841 -2.1590 -0.3534 -0.2450
46812SOL    HW245122   9.199   0.298   4.921  0.3530 -0.4333  1.9058
46813SOL     OW45123   6.663   0.245   4.958  0.5629  0.4132  0.1519
46813SOL    HW145124   6.622   0.304   4.894  1.8942  1.3359  0.1170
46813SOL    HW245125   6.712   0.303   5.016  0.7270 -0.5587  1.0054
46814SOL     OW45126   4.134   6.927   1.025 -0.2313  0.3138 -0.0375
46814SOL    HW145127   4.073   6.861   0.991  0.6596 -0.6775  0.2279
46814SOL    HW245128   4.091   7.011   1.007 -0.5367 -0.2350 -2.1114
46815SOL     OW45129   1.477   0.800   8.119 -0.5278  0.1235 -0.0176
46815SOL    HW145130   1.484   0.795   8.024 -0.7280 -0.7005  0.0028
46815SOL    HW245131   1.383   0.792   8.137 -0.6075  1.3255  0.2067
46816SOL     OW45132   7.737   0.876   0.189 -0.0959  0.1817  0.3909
46816SOL    HW145133   7.651   0.838   0.174  0.2633 -0.0128 -1.4134
46816SOL    HW245134   7.797   0.820   0.140  0.9665  0.7473  1.0094
46817SOL     OW45135   3.160  10.780   9.716 -0.3863  0.4310  0.2672
46817SOL    HW145136   3.109  10.823   9.784 -3.4113  0.0288 -1.5241
46817SOL    HW245137   3.236  10.836   9.703 -1.8577  2.7693  1.1437
46818SOL     OW45138   1.989   5.407   0.333  0.3670 -0.7980  0.6542
46818SOL    HW145139   2.075   5.393   0.374  1.3506  2.3405 -0.0740
46818SOL    HW245140   2.009   5.422   0.241 -0.9365  0.2847  0.5244
46819SOL     OW45141   6.940   8.871   4.918 -0.0159  0.4257  0.2571
46819SOL    HW145142   6.945   8.811   4.992  0.2747  0.3076  0.1444
46819SOL    HW245143   6.848   8.896   4.912  0.0675  0.9393  1.0633
46820SOL     OW45144   8.843   4.677   0.006  0.3573  0.6599 -0.4973
46820SOL    HW145145   8.820   4.603   0.062 -0.5441  0.8615 -0.5897
46820SOL    HW245146   8.861   4.638  -0.079  2.4671  0.2627  0.0705
46821SOL     OW45147   0.586   1.761   4.190 -0.1257 -0.1412 -0.3093
46821SOL    HW145148   0.663   1.804   4.229 -0.2231 -0.1624 -0.0906
46821SOL    HW245149   0.511   1.804   4.232 -0.2891  1.1695 -1.8477
46822SOL     OW45150   8.498  10.510   4.455 -0.4588  0.1058  0.2781
46822SOL    HW145151   8.575  10.462   4.484 -0.2181  1.0159  1.2120
46822SOL    HW245152   8.451  10.449   4.399  1.6964 -0.0004 -1.5600
46823SOL     OW45153   5.578   2.811   4.398 -0.7837  0.0824  0.0210
46823SOL    HW145154   5.498   2.796   4.349 -0.0844 -2.2899 -0.5135
46823SOL    HW245155   5.588   2.733   4.453  1.9890 -0.5097 -1.1701
46824SOL     OW45156   7.619   5.699   7.644 -0.0870 -0.3274  0.2781
46824SOL    HW145157   7.708   5.728   7.625  0.0747  0.2351  1.7791
46824SOL    HW245158   7.614   5.698   7.740 -2.4338  2.0298  0.2838
46825SOL     OW45159   9.180  11.140   2.238 -0.0975  0.0853  0.0043
46825SOL    HW145160   9.141  11.053   2.245  0.9309 -0.5983 -1.9702
46825SOL    HW245161   9.245  11.144   2.309  1.8534 -1.9155 -1.5582
46826SOL     OW45162   2.265  10.459   3.708  0.2995  0.4522 -0.1349
46826SOL    HW145163   2.312  10.415   3.637 -1.6122 -1.1244 -0.4987
46826SOL    HW245164   2.222  10.533   3.665 -0.0568  0.0699 -0.4547
46827SOL     OW45165   0.882   9.380   0.496  0.7125  0.3391 -0.2765
46827SOL    HW145166   0.870   9.436   0.420  0.4411  2.2805  1.1358
46827SOL    HW245167   0.794   9.351   0.519  0.5299  1.4956  0.5405
46828SOL     OW45168   0.104   6.679   5.970 -0.6743  0.0071  0.1243
46828SOL    HW145169   0.057   6.614   5.918  0.9241 -0.8225 -0.3505
46828SOL    HW245170   0.195   6.647   5.973 -0.0951  1.5869  0.9084
46829SOL     OW45171   3.211   9.284   7.758 -0.3607  0.5349 -0.6670
46829SOL    HW145172   3.265   9.249   7.686  1.8715  2.6127 -0.1164
46829SOL    HW245173   3.227   9.224   7.831  1.8399  1.4387 -0.3244
46830SOL     OW45174   4.115  11.672   8.154  0.0442  0.0213  0.3034
46830SOL    HW145175   4.037  11.684   8.100 -0.0493  0.2916  0.4899
46830SOL    HW245176   4.082  11.632   8.235  0.0309  0.4905  0.5404
46831SOL     OW45177   3.190   0.059   6.924 -0.0111 -0.5133  0.1408
46831SOL    HW145178   3.219   0.149   6.909  0.8014 -0.7271  0.4055
46831SOL    HW245179   3.134   0.065   7.002 -0.6929 -0.1033 -0.3682
46832SOL     OW45180  11.670  10.403  11.386 -0.4677 -0.0604  0.6686
46832SOL    HW145181  11.689  10.330  11.445  1.8560 -0.6651 -0.6798
46832SOL    HW245182  11.677  10.364  11.298 -0.6734  1.4608 -0.0426
46833SOL     OW45183  10.998   7.680   7.867 -0.0489 -0.1263  0.8181
46833SOL    HW145184  11.015   7.733   7.790 -1.3068 -2.4132 -1.1716
46833SOL    HW245185  11.085   7.653   7.897  0.4488 -1.3599 -1.4831
46834SOL     OW45186  11.020  11.269   8.621  0.3436 -0.0861  0.1895
46834SOL    HW145187  11.065  11.345   8.585 -1.0931  0.1757 -1.1597
46834SOL    HW245188  10.928  11.294   8.624 -0.0927 -1.5680  0.2324
46835SOL     OW45189   7.145   8.042   3.547 -0.2514 -0.4255  0.0808
46835SOL    HW145190   7.128   8.129   3.584 -0.6474 -0.5455  0.1803
46835SOL    HW245191   7.162   7.987   3.624 -0.3256 -0.5093  0.0364
46836SOL     OW45192   4.099  10.465   7.139 -0.4296 -0.2533  0.0086
46836SOL    HW145193   4.147  10.474   7.221  1.0131  1.2184 -0.9467
46836SOL    HW245194   4.125  10.379   7.106  2.6698  0.9615 -1.0800
46837SOL     OW45195   2.737   3.756   2.473  0.9385  0.2571  0.5976
46837SOL    HW145196   2.817   3.778   2.425  0.7304 -2.7355 -1.3398
46837SOL    HW245197   2.673   3.820   2.443  2.2363  1.9772  1.3106
46838SOL     OW45198  11.820   0.529   4.892 -0.0323 -0.6726 -0.0491
46838SOL    HW145199  11.833   0.495   4.804 -0.9353 -1.2272  0.0218
46838SOL    HW245200  11.741   0.485   4.924  0.7714 -1.1499  1.3701
46839SOL     OW45201   1.275   1.825   0.197 -0.0439 -0.3699 -0.5303
46839SOL    HW145202   1.194   1.845   0.242  0.3160 -1.8498  0.8714
46839SOL    HW245203   1.248   1.778   0.118 -0.5610 -2.2058  0.6730
46840SOL     OW45204  11.908   2.611   7.776  0.2723 -0.3141  0.1809
46840SOL    HW145205  11.851   2.538   7.749 -0.1390  0.0570  0.0408
46840SOL    HW245206  11.871   2.688   7.734  2.1358 -0.3670 -1.7464
46841SOL     OW45207   2.295   1.226   4.366 -0.1154  0.2283  0.2905
46841SOL    HW145208   2.379   1.182   4.354  0.2662  0.8377  0.6326
46841SOL    HW245209   2.318   1.307   4.413 -0.6418  1.3018 -1.2217
46842SOL     OW45210   1.931   9.177   2.012  0.2925  0.6620 -0.7132
46842SOL    HW145211   1.947   9.268   1.986 -0.1726  0.9554 -0.0110
46842SOL    HW245212   1.876   9.184   2.089 -1.7716 -0.2612 -2.0207
46843SOL     OW45213  10.304   2.230   7.374 -0.7908 -0.0044 -0.9323
46843SOL    HW145214  10.221   2.203   7.413 -1.2695 -0.0197 -1.9227
46843SOL    HW245215  10.336   2.152   7.328 -0.5929  0.2071 -1.1596
46844SOL     OW45216   1.472   7.568   8.888 -0.4060  0.0371  0.0392
46844SOL    HW145217   1.564   7.543   8.879 -0.5419 -0.7608  0.7386
46844SOL    HW245218   1.471   7.629   8.961 -0.2380  1.2303 -0.9254
46845SOL     OW45219   9.651   3.765  11.467  0.0928 -0.4260  0.2304
46845SOL    HW145220   9.600   3.782  11.388  1.9253 -3.5503 -1.8513
46845SOL    HW245221   9.622   3.679  11.496  0.1967  0.2246  2.4515
46846SOL     OW45222   4.318   6.581   0.343 -0.0095 -0.0849  0.1469
46846SOL    HW145223   4.318   6.671   0.374  2.7084 -0.0290  0.2078
46846SOL    HW245224   4.389   6.577   0.279 -0.3992 -2.0757 -0.2573
46847SOL     OW45225   5.194  10.783   6.983 -0.1223  0.1992  0.3518
46847SOL    HW145226   5.129  10.847   6.956  0.1229  0.9324  1.4447
46847SOL    HW245227   5.146  10.722   7.039 -0.1516 -0.0230  0.0857
46848SOL     OW45228   7.260  10.701   2.450  0.4656  0.3360  0.4533
46848SOL    HW145229   7.327  10.632   2.449  0.8919  0.7478 -0.2121
46848SOL    HW245230   7.196  10.673   2.384  0.4919  0.4366  0.3849
46849SOL     OW45231   2.976  10.751   5.813  0.1323  0.4121  0.2709
46849SOL    HW145232   2.887  10.716   5.819  0.3223 -0.1032  0.1378
46849SOL    HW245233   3.030  10.685   5.856  0.2980  1.3610  1.5562
46850SOL     OW45234   9.015   5.445   9.846 -0.3663  0.3606  0.5183
46850SOL    HW145235   9.089   5.453   9.786 -0.6741  1.9854  0.3254
46850SOL    HW245236   9.050   5.469   9.931 -0.5420  0.6275  0.5176
46851SOL     OW45237   2.372   3.172   5.952  0.2285  0.0275  0.2547
46851SOL    HW145238   2.390   3.264   5.967  1.7424 -0.4346  1.5282
46851SOL    HW245239   2.449   3.139   5.907 -0.2222 -0.6636 -0.0347
46852SOL     OW45240   8.385   4.948   1.778 -0.1901  0.0881 -0.2924
46852SOL    HW145241   8.397   4.864   1.734 -0.7378  0.6326 -1.5228
46852SOL    HW245242   8.468   4.964   1.823 -0.4701 -1.6627  0.9925
46853SOL     OW45243   3.478   1.444   6.303  0.5218 -0.3808 -0.2258
46853SOL    HW145244   3.430   1.438   6.220  0.8190  0.7560 -0.4940
46853SOL    HW245245   3.411   1.464   6.368  0.5261  0.6073 -0.5058
46854SOL     OW45246  11.783   0.843  11.111  0.1408  0.2410 -0.1037
46854SOL    HW145247  11.761   0.917  11.055 -0.2968  0.3987  0.2702
46854SOL    HW245248  11.701   0.820  11.153 -0.0026 -1.2145 -1.1007
46855SOL     OW45249   2.194   7.716  11.722 -0.3949  0.3514 -1.2616
46855SOL    HW145250   2.143   7.653  11.772  0.8845  0.8742  0.8519
46855SOL    HW245251   2.151   7.800  11.738 -0.6073  0.3800 -1.9587
46856SOL     OW45252   4.886  10.390   4.797  0.3098  0.0064 -0.3723
46856SOL    HW145253   4.856  10.473   4.760  1.6719  1.0998  0.9103
46856SOL    HW245254   4.980  10.401   4.810  0.4414 -1.5696  0.2928
46857SOL     OW45255   5.638   9.385   1.647  0.5987  0.1398  0.3437
46857SOL    HW145256   5.604   9.310   1.696 -0.0223 -0.0809 -0.3998
46857SOL    HW245257   5.702   9.347   1.586  0.2374  0.1990 -0.0776
46858SOL     OW45258   0.916  11.133   4.697 -0.2793 -0.6626 -0.2261
46858SOL    HW145259   0.988  11.081   4.662 -0.9160 -1.8139  0.1256
46858SOL    HW245260   0.897  11.197   4.628  3.0260  1.7331  0.8467
46859SOL     OW45261   6.968   4.661   9.685  0.1578 -0.3844 -0.2225
46859SOL    HW145262   7.034   4.710   9.636 -0.3354 -1.1154 -1.6627
46859SOL    HW245263   7.014   4.629   9.762  1.4847 -0.8476 -1.1731
46860SOL     OW45264   2.649   5.821   8.374  0.3782 -0.2203  0.5328
46860SOL    HW145265   2.660   5.852   8.284  0.2895 -0.1917  0.5322
46860SOL    HW245266   2.710   5.747   8.382 -1.2382 -1.6905 -0.2552
46861SOL     OW45267   9.607   4.090   8.746  0.3884 -0.0824 -0.3918
46861SOL    HW145268   9.645   4.171   8.780 -0.6924  0.7909 -1.2045
46861SOL    HW245269   9.683   4.035   8.725  1.2043  1.3328 -1.3154
46862SOL     OW45270  11.174   6.903   8.326  0.4390  0.0525  0.3508
46862SOL    HW145271  11.104   6.938   8.272  0.6004  1.4517  0.9984
46862SOL    HW245272  11.250   6.899   8.268  0.6681  1.7521  0.4936
46863SOL     OW45273   8.095   4.121  11.612 -0.1176 -0.5668  0.2762
46863SOL    HW145274   8.046   4.198  11.582  0.5912  0.0056  0.5738
46863SOL    HW245275   8.085   4.058  11.541  0.9512  0.5218 -0.8983
46864SOL     OW45276   3.507   3.333   4.103 -0.0968  0.8342 -0.0860
46864SOL    HW145277   3.468   3.319   4.017  0.1977  0.0756 -0.1043
46864SOL    HW245278   3.476   3.419   4.130 -1.6153  0.3427 -0.1906
46865SOL     OW45279   7.372   4.758   7.201  0.2456  0.3817  0.1313
46865SOL    HW145280   7.330   4.802   7.274  2.1200  1.8163  0.4020
46865SOL    HW245281   7.455   4.803   7.189 -0.1190  0.4884 -3.1533
46866SOL     OW45282   4.735   5.850   1.194  0.1520  0.3187 -0.1224
46866SOL    HW145283   4.819   5.855   1.240  0.1135  0.4633 -0.0697
46866SOL    HW245284   4.712   5.757   1.198  0.8578  0.0804 -1.1146
46867SOL     OW45285   6.802  10.386   6.280 -0.0225  0.7339 -0.2546
46867SOL    HW145286   6.768  10.335   6.207  0.4707 -0.4384  0.3095
46867SOL    HW245287   6.729  10.394   6.341 -0.0803  0.6306 -0.3111
46868SOL     OW45288   2.902   5.142   2.352  0.0975 -0.0046  0.3356
46868SOL    HW145289   2.918   5.219   2.406  0.8650  0.6211 -0.7302
46868SOL    HW245290   2.946   5.070   2.397  0.7977  0.5202  0.4951
46869SOL     OW45291   7.271   3.298   8.622 -0.5745 -0.0275  0.2307
46869SOL    HW145292   7.328   3.374   8.636 -1.6242  0.5587  1.5734
46869SOL    HW245293   7.204   3.330   8.562 -0.5121 -0.1657  0.0881
46870SOL     OW45294   7.834   8.745  10.742 -0.2582 -0.2094 -0.3451
46870SOL    HW145295   7.852   8.651  10.752 -0.5009 -0.1309  1.1112
46870SOL    HW245296   7.820   8.776  10.832 -1.4050  0.9779 -0.9002
46871SOL     OW45297   9.276   3.698   8.786 -0.2155 -0.0508  0.0707
46871SOL    HW145298   9.356   3.726   8.831 -0.4983 -0.5862  0.9231
46871SOL    HW245299   9.307   3.641   8.716  0.3013  1.5747 -1.0901
46872SOL     OW45300   8.244   0.844   2.584 -0.1143 -0.2244 -0.1536
46872SOL    HW145301   8.283   0.764   2.621  0.1791 -0.4049 -0.8369
46872SOL    HW245302   8.301   0.915   2.614 -0.0770 -0.3327  0.0313
46873SOL     OW45303  10.417   4.397   2.817  0.0600 -0.1111  0.2095
46873SOL    HW145304  10.419   4.341   2.739  3.9104  1.1317 -0.8347
46873SOL    HW245305  10.446   4.482   2.785  0.5024  0.8032  2.8111
46874SOL     OW45306   9.828   5.968   7.146  0.2100  0.1120  0.1719
46874SOL    HW145307   9.747   6.010   7.174  0.3012  0.3654  0.0536
46874SOL    HW245308   9.852   5.912   7.220  0.3348  0.6139  0.5183
46875SOL     OW45309   1.829  11.892   5.672  0.5836  0.2023 -0.6954
46875SOL    HW145310   1.903  11.868   5.615 -0.1040 -1.9588 -0.7763
46875SOL    HW245311   1.754  11.899   5.612  0.0543 -1.1162 -0.2182
46876SOL     OW45312  11.038  10.147   0.566  0.3981 -0.1550  0.2065
46876SOL    HW145313  11.048  10.239   0.592  0.0542 -0.7040  2.5431
46876SOL    HW245314  11.125  10.109   0.578 -0.0082 -0.6737  1.8848
46877SOL     OW45315   3.380   9.289   0.484  0.6471  0.3243 -0.7040
46877SOL    HW145316   3.351   9.209   0.529 -1.1342  0.4849 -1.4559
46877SOL    HW245317   3.325   9.358   0.521  0.7112  0.8253 -1.5234
46878SOL     OW45318  11.341   7.471   0.743 -0.0072 -0.6999 -0.1563
46878SOL    HW145319  11.284   7.506   0.674  0.1655  2.3154  1.0878
46878SOL    HW245320  11.282   7.456   0.817  0.4715  0.4475  0.4724
46879SOL     OW45321  10.144   1.337   4.082 -0.4217 -0.4755  0.1147
46879SOL    HW145322  10.065   1.351   4.029 -0.4560  1.2397  0.5403
46879SOL    HW245323  10.216   1.353   4.022 -0.3694 -1.8005 -0.2111
46880SOL     OW45324   1.470   3.429   6.578 -0.5496  0.2169  0.0510
46880SOL    HW145325   1.376   3.415   6.592 -0.5039 -0.6664 -0.4393
46880SOL    HW245326   1.482   3.416   6.484  0.1266 -0.1223  0.1802
46881SOL     OW45327   6.219   2.512   5.126  0.1461 -0.1479  0.1897
46881SOL    HW145328   6.245   2.585   5.069 -0.0658  0.5318  0.9444
46881SOL    HW245329   6.214   2.551   5.213 -0.1340 -1.0396  0.5772
46882SOL     OW45330   1.851   7.427  10.154 -0.3646 -0.0529  0.0136
46882SOL    HW145331   1.779   7.371  10.123  0.1276 -0.5161 -0.3039
46882SOL    HW245332   1.917   7.366  10.185  0.3196  0.3394 -0.6448
46883SOL     OW45333   4.843   3.570   6.922  0.5653  0.4264 -0.0699
46883SOL    HW145334   4.939   3.566   6.921  0.5281 -0.6878  0.2312
46883SOL    HW245335   4.821   3.584   7.014  0.4067 -0.5545  0.0512
46884SOL     OW45336   5.069  11.468   4.437 -0.0600  0.3143  0.0696
46884SOL    HW145337   5.090  11.546   4.489  0.4767  0.8974 -0.9978
46884SOL    HW245338   4.996  11.496   4.382 -1.1498 -0.5404  1.0334
46885SOL     OW45339   1.424   5.583   2.715 -0.0034  0.8488 -0.2292
46885SOL    HW145340   1.476   5.568   2.637 -0.6882  3.4629 -1.2922
46885SOL    HW245341   1.333   5.573   2.687 -0.2361  0.9086  0.4627
46886SOL     OW45342   2.784   7.322  10.717 -0.4371 -0.5739  0.0711
46886SOL    HW145343   2.866   7.273  10.729 -0.3985 -0.4639  0.2433
46886SOL    HW245344   2.773   7.371  10.798 -0.7592 -0.7144  0.1136
46887SOL     OW45345   2.925  11.513   2.070 -0.4406 -0.3225  0.9370
46887SOL    HW145346   2.872  11.585   2.035 -0.7784 -0.6975  0.6588
46887SOL    HW245347   2.887  11.435   2.029  3.0280 -0.3480 -2.9251
46888SOL     OW45348   7.883   2.358   8.291 -0.3202 -0.5207  0.5483
46888SOL    HW145349   7.926   2.435   8.329  0.2026 -0.5583  0.0430
46888SOL    HW245350   7.790   2.380   8.289 -0.3086 -0.3423  1.4400
46889SOL     OW45351   4.924   5.482   3.353 -0.5291 -0.4393 -0.6554
46889SOL    HW145352   4.874   5.538   3.413  0.8016 -0.0528  0.1420
46889SOL    HW245353   4.905   5.517   3.266  1.4057  2.2712 -0.0960
46890SOL     OW45354   2.339   1.429   5.573  0.6954 -0.2272  0.1503
46890SOL    HW145355   2.248   1.451   5.592  0.4372 -1.4982  0.4697
46890SOL    HW245356   2.349   1.448   5.480  0.4726  1.0809  0.3733
46891SOL     OW45357   1.030   6.062  10.606 -0.1356 -0.3564 -0.0320
46891SOL    HW145358   0.957   6.109  10.647 -1.8444 -2.1340 -0.8662
46891SOL    HW245359   1.049   5.991  10.667 -1.7711 -2.1953 -1.5289
46892SOL     OW45360   1.177  10.043   0.895 -0.2054 -0.5532  0.1979
46892SOL    HW145361   1.254   9.991   0.871 -0.6418 -1.3987  0.5801
46892SOL    HW245362   1.117   9.979   0.933 -0.4868  0.3580  1.3255
46893SOL     OW45363  11.740   5.423   8.642  0.3783 -0.0774  0.4561
46893SOL    HW145364  11.776   5.466   8.720  1.8700 -2.0529  0.9595
46893SOL    HW245365  11.765   5.331   8.653 -2.0751 -0.9732 -0.8744
46894SOL     OW45366   0.389   5.528  10.198 -0.3345 -0.1907  0.1802
46894SOL    HW145367   0.345   5.588  10.138  0.0977 -1.9823 -2.0451
46894SOL    HW245368   0.449   5.583  10.248 -0.8277  1.3926 -0.9062
46895SOL     OW45369   4.439   2.288   6.907 -0.1252 -0.3448 -0.4452
46895SOL    HW145370   4.505   2.351   6.935 -0.8860  0.4055 -0.2763
46895SOL    HW245371   4.489   2.212   6.878  0.7756 -0.0814  0.3695
46896SOL     OW45372   9.706   8.175  11.190 -0.3545  0.0333  0.5612
46896SOL    HW145373   9.661   8.229  11.125 -0.8312 -1.7535 -0.6766
46896SOL    HW245374   9.794   8.163  11.155 -0.3791 -0.3295  0.6180
46897SOL     OW45375  11.914   0.003   6.058 -0.3695  0.7769 -0.4006
46897SOL    HW145376  11.934  -0.041   6.141 -0.7601  0.9846 -0.1947
46897SOL    HW245377  11.994   0.052   6.038  0.6756 -1.1786 -1.4164
46898SOL     OW45378   0.957  11.386   1.118 -0.6892  0.1648 -0.2399
46898SOL    HW145379   0.908  11.459   1.155  0.3822  0.8947 -0.1970
46898SOL    HW245380   0.950  11.317   1.184 -1.6850  0.2267 -0.2646
46899SOL     OW45381   3.111   7.967   8.474 -0.0053 -0.0255 -0.2570
46899SOL    HW145382   3.095   8.054   8.438 -1.7137  0.0578  0.6004
46899SOL    HW245383   3.024   7.928   8.483  0.7218 -1.8213 -0.5693
46900SOL     OW45384  10.602   1.026   6.726 -0.0583  0.0747 -0.1435
46900SOL    HW145385  10.547   1.081   6.670  0.4854  0.0744 -0.6924
46900SOL    HW245386  10.582   0.936   6.700 -0.0820  0.0585 -0.0705
46901SOL     OW45387   5.488  10.387   6.037  0.1370  0.3925 -0.0811
46901SOL    HW145388   5.491  10.414   5.945  0.1494 -0.0738 -0.2186
46901SOL    HW245389   5.474  10.469   6.085  0.3228  0.6653 -0.4827
46902SOL     OW45390   5.514   8.770   3.786  0.0778 -0.4792  0.3783
46902SOL    HW145391   5.420   8.750   3.787 -0.4741  1.7695 -0.9382
46902SOL    HW245392   5.557   8.684   3.786 -1.9920 -1.5716 -0.3658
46903SOL     OW45393   9.956   2.679   3.421  0.2694  0.0972 -0.0468
46903SOL    HW145394   9.888   2.613   3.427  0.9848 -0.7152 -0.6042
46903SOL    HW245395   9.937   2.726   3.339  1.6600 -1.6608 -1.4681
46904SOL     OW45396   4.360   1.133   1.808 -0.4905  0.9558  0.9009
46904SOL    HW145397   4.397   1.182   1.882  0.1264  0.7866  0.7166
46904SOL    HW245398   4.427   1.141   1.739 -1.1245  1.2393  0.3069
46905SOL     OW45399   1.861   7.298   1.034  0.3410 -0.8565 -0.5571
46905SOL    HW145400   1.916   7.220   1.043  0.8315 -0.2909  2.1964
46905SOL    HW245401   1.803   7.277   0.961  1.3958 -3.2065 -0.8345
46906SOL     OW45402   1.246   2.287   3.971 -0.7599  0.0895  0.0982
46906SOL    HW145403   1.287   2.248   4.047  1.0870  0.8747 -0.4276
46906SOL    HW245404   1.251   2.220   3.903 -3.5325 -1.0791  0.9160
46907SOL     OW45405   8.601   3.068   6.264 -0.0324  0.0573 -0.1217
46907SOL    HW145406   8.561   3.132   6.205  1.3703 -0.1702 -1.3553
46907SOL    HW245407   8.683   3.043   6.222  0.4589 -0.9991  1.3626
46908SOL     OW45408   1.155   5.113   4.581  0.5489 -0.2704  0.2720
46908SOL    HW145409   1.092   5.053   4.621 -0.2738  1.5486  1.8536
46908SOL    HW245410   1.122   5.201   4.602  0.6257  0.8705 -3.6077
46909SOL     OW45411   7.670   5.705   3.221 -0.3151 -0.2046  0.2902
46909SOL    HW145412   7.593   5.738   3.266 -0.6827 -0.4332 -0.1579
46909SOL    HW245413   7.635   5.648   3.152  0.2756 -0.8065  0.4777
46910SOL     OW45414   6.151   1.608   3.985 -0.7983 -0.5143  0.1388
46910SOL    HW145415   6.185   1.616   3.896  0.6886 -3.7327  0.2949
46910SOL    HW245416   6.198   1.675   4.034  1.2230 -1.1773 -0.7875
46911SOL     OW45417   1.142   3.866   1.612 -0.4479  0.1747  0.6026
46911SOL    HW145418   1.071   3.806   1.632 -1.2225  0.8313 -0.0996
46911SOL    HW245419   1.115   3.909   1.530  0.5747  0.7070  0.5247
46912SOL     OW45420   3.731  10.520   1.474 -0.1916 -0.0358  0.2321
46912SOL    HW145421   3.804  10.567   1.432  0.1780 -1.8076 -1.2602
46912SOL    HW245422   3.767  10.435   1.496 -0.9703  0.1545  2.4739
46913SOL     OW45423  11.304   0.133   8.705  0.4633 -0.7245 -0.3786
46913SOL    HW145424  11.325   0.226   8.706 -1.8632 -0.1325 -1.1568
46913SOL    HW245425  11.334   0.100   8.790  1.3463  0.6922 -0.1042
46914SOL     OW45426   0.072   1.744   1.337  0.2665 -0.4300  0.1998
46914SOL    HW145427   0.125   1.694   1.400  0.7306 -1.2490 -0.8131
46914SOL    HW245428   0.121   1.739   1.255 -1.5493 -1.5297 -0.8810
46915SOL     OW45429   0.654   3.218   0.440 -0.1362  0.5082 -0.3599
46915SOL    HW145430   0.643   3.246   0.531 -0.5637 -0.2521 -0.1686
46915SOL    HW245431   0.568   3.235   0.400  0.6793  3.0084 -1.2587
46916SOL     OW45432  11.415   8.664   1.221  0.6716  0.7177 -0.4966
46916SOL    HW145433  11.454   8.577   1.218  1.4365  0.8263  2.5834
46916SOL    HW245434  11.487   8.723   1.199  1.1105  0.6834  0.7376
46917SOL     OW45435   5.338   8.803   1.283 -0.3452  0.3914  0.1621
46917SOL    HW145436   5.410   8.743   1.300  0.1979  0.4142 -1.8216
46917SOL    HW245437   5.332   8.807   1.187 -0.8032  2.9700  0.2362
46918SOL     OW45438   1.379   3.818  10.997 -0.2562  0.0083 -0.0547
46918SOL    HW145439   1.316   3.746  10.989 -0.1155 -0.2058  0.6600
46918SOL    HW245440   1.420   3.804  11.083 -0.2981  0.9961  0.1356
46919SOL     OW45441  10.163   1.390   6.390  0.2884  0.3237 -0.1148
46919SOL    HW145442  10.146   1.481   6.368 -0.7085  0.3940  0.8198
46919SOL    HW245443  10.254   1.389   6.420  0.5163  0.8746 -0.7650
46920SOL     OW45444  11.344   0.055   9.634  0.4779  0.2996  0.4041
46920SOL    HW145445  11.316  -0.035   9.616 -1.4479  1.0827 -0.8171
46920SOL    HW245446  11.274   0.092   9.688  1.0682  1.1636  0.5987
46921SOL     OW45447   5.144   3.327   4.969  0.2086 -0.4464  0.2672
46921SOL    HW145448   5.218   3.279   4.934  0.5409  0.7293 -0.7081
46921SOL    HW245449   5.076   3.319   4.903  1.2215  2.7639 -1.3875
46922SOL     OW45450  10.686   6.047   3.958  0.1261 -0.1148  0.6194
46922SOL    HW145451  10.605   6.036   3.909  0.8052  2.2798 -1.2498
46922SOL    HW245452  10.749   5.991   3.913  0.2655  0.5383 -0.0139
46923SOL     OW45453   9.222   9.543   8.489 -0.3963  0.1307 -0.4672
46923SOL    HW145454   9.282   9.475   8.459 -1.9045 -0.9796 -1.1083
46923SOL    HW245455   9.272   9.624   8.483  0.9822 -0.7311 -1.0955
46924SOL     OW45456  10.217   4.076   9.623 -0.1579  0.1641 -0.0847
46924SOL    HW145457  10.289   4.114   9.572 -0.1963  3.2137  1.8887
46924SOL    HW245458  10.257   4.001   9.668  1.4871  1.0580  0.0303
46925SOL     OW45459  10.288   7.261   8.471  0.3799  0.7911 -0.5044
46925SOL    HW145460  10.235   7.275   8.549  2.6873  1.5279  1.0644
46925SOL    HW245461  10.284   7.344   8.424  0.1594  0.8517 -0.3763
46926SOL     OW45462   6.317   1.831   2.615  0.3618 -0.1175 -0.2202
46926SOL    HW145463   6.412   1.829   2.626  0.4585 -2.5259 -0.9848
46926SOL    HW245464   6.285   1.754   2.661 -1.0052 -0.4020 -1.5552
46927SOL     OW45465   6.123   7.730   6.582  0.2103  0.0663  0.1358
46927SOL    HW145466   6.213   7.705   6.561 -0.0311  0.8367 -2.0022
46927SOL    HW245467   6.069   7.686   6.516 -0.9719 -0.0867  1.1547
46928SOL     OW45468   6.406   3.261   1.991 -0.4530 -0.4393 -0.2385
46928SOL    HW145469   6.464   3.194   1.955  1.3975  0.4214  0.9621
46928SOL    HW245470   6.338   3.211   2.037 -0.2431 -1.4881 -1.0357
46929SOL     OW45471   2.816  11.604   1.824 -0.2009  0.1516  0.4434
46929SOL    HW145472   2.860  11.529   1.784  0.4144  0.3055  0.8205
46929SOL    HW245473   2.769  11.646   1.752  1.2498  0.6838 -0.2360
46930SOL     OW45474   2.629   3.405  11.072  0.1065 -0.0796  0.1741
46930SOL    HW145475   2.679   3.445  11.000  0.5827  0.6144  0.8810
46930SOL    HW245476   2.695   3.383  11.137 -0.2536 -1.2405  0.1741
46931SOL     OW45477   5.721   7.344  10.454  0.5926 -0.1380  0.3602
46931SOL    HW145478   5.645   7.287  10.446 -1.5381  2.6375 -0.6342
46931SOL    HW245479   5.734   7.354  10.548 -0.4819 -0.4127  0.5491
46932SOL     OW45480  10.038   7.744  11.234 -0.2844  0.0751 -0.1878
46932SOL    HW145481   9.981   7.677  11.196  1.3571 -1.1941 -0.5337
46932SOL    HW245482  10.082   7.784  11.159  1.3720 -0.9578  0.1843
46933SOL     OW45483   4.254   4.987   8.614  0.5701  0.0921 -0.1511
46933SOL    HW145484   4.216   5.069   8.643  0.3661  0.6278 -1.8774
46933SOL    HW245485   4.179   4.929   8.599  0.7178 -0.5044  1.2169
46934SOL     OW45486   2.615  11.393   7.784  1.1408 -0.3220  0.0143
46934SOL    HW145487   2.701  11.409   7.745  1.0816 -0.6962 -0.2705
46934SOL    HW245488   2.552  11.427   7.720  1.0896  0.7752  0.6128
46935SOL     OW45489   8.402   8.526   8.163 -0.4318  0.6474  0.0922
46935SOL    HW145490   8.354   8.522   8.245 -2.0010 -1.2336 -0.8484
46935SOL    HW245491   8.457   8.604   8.171 -0.6004  0.5621  2.8563
46936SOL     OW45492   8.817   9.196  10.250 -0.4614 -0.1324  0.4095
46936SOL    HW145493   8.814   9.150  10.335 -3.8749  0.4724  0.7808
46936SOL    HW245494   8.745   9.259  10.255 -0.2722  0.4665 -2.6843
46937SOL     OW45495   1.239   7.012   9.026 -0.0291 -0.0290 -0.3063
46937SOL    HW145496   1.149   6.986   9.046  0.1673  0.0020  0.6742
46937SOL    HW245497   1.229   7.092   8.973 -0.5839  0.8976  1.1305
46938SOL     OW45498   0.396   5.848   5.118  0.2168  0.0539 -0.8612
46938SOL    HW145499   0.430   5.771   5.073  0.4424 -0.0576 -0.4999
46938SOL    HW245500   0.414   5.921   5.058 -1.4331 -0.3646 -1.9379
46939SOL     OW45501  11.506   1.840   1.928 -0.0805  0.2414 -0.2546
46939SOL    HW145502  11.491   1.811   2.018  1.5954  0.9365  0.2774
46939SOL    HW245503  11.431   1.897   1.908 -0.3057  0.3350  0.8069
46940SOL     OW45504   8.216   4.573   4.415 -0.6184 -0.2873 -0.5937
46940SOL    HW145505   8.156   4.501   4.434 -0.8981  0.1754  0.3186
46940SOL    HW245506   8.303   4.536   4.429 -0.7413 -0.5876 -0.6073
46941SOL     OW45507   9.707   6.799   6.112  0.2975 -0.1232 -0.5021
46941SOL    HW145508   9.745   6.881   6.143  2.5550 -1.1416 -0.4465
46941SOL    HW245509   9.622   6.795   6.156  1.7815  0.2933  2.6753
46942SOL     OW45510   2.882   1.026   0.734 -0.0750  0.0169 -0.3495
46942SOL    HW145511   2.933   1.081   0.674  1.1302  0.3238  0.8963
46942SOL    HW245512   2.836   0.965   0.677  3.1665 -1.5551 -1.5289
46943SOL     OW45513   2.360  10.645   3.171  0.4354 -0.0476  0.2734
46943SOL    HW145514   2.294  10.709   3.148 -1.4100 -2.2636 -0.9997
46943SOL    HW245515   2.401  10.622   3.087  0.9546 -0.6295  0.6789
46944SOL     OW45516  11.638   8.547   2.751 -0.2532 -0.1548  0.4357
46944SOL    HW145517  11.609   8.493   2.824 -1.9809  1.4101  0.9832
46944SOL    HW245518  11.691   8.616   2.792 -3.4183  2.3322  0.7479
46945SOL     OW45519   7.033   0.429   8.652 -0.1547  0.4190  0.0237
46945SOL    HW145520   7.047   0.349   8.602  1.4618  0.3479  0.5036
46945SOL    HW245521   7.059   0.405   8.742  1.3978  1.7351 -0.0362
46946SOL     OW45522   8.640   3.888   4.456  0.1315  0.3605 -0.1312
46946SOL    HW145523   8.654   3.794   4.449 -0.7253  0.1404  0.9423
46946SOL    HW245524   8.625   3.917   4.366  1.1963 -0.3842 -0.5673
46947SOL     OW45525  10.904   4.527   5.097  0.2558  0.4734  0.0204
46947SOL    HW145526  10.832   4.588   5.082  0.2742 -0.0483 -2.7592
46947SOL    HW245527  10.863   4.447   5.128 -0.2616  0.5301 -0.5056
46948SOL     OW45528   8.303   1.448  10.859  0.7963 -0.1888  0.2213
46948SOL    HW145529   8.316   1.543  10.861 -0.6146  0.0225  0.1396
46948SOL    HW245530   8.212   1.435  10.886  0.7079 -1.4540 -0.5878
46949SOL     OW45531   0.294   2.524   0.319  0.4101  0.2994 -0.0744
46949SOL    HW145532   0.231   2.473   0.268  1.2547 -0.9853  0.1420
46949SOL    HW245533   0.257   2.613   0.320 -1.0884 -0.2947 -0.4431
46950SOL     OW45534   9.271  11.008   6.453 -0.0064  0.0584 -0.3059
46950SOL    HW145535   9.259  10.979   6.363 -0.2028 -1.5178  0.1834
46950SOL    HW245536   9.335  10.946   6.489  0.8311  1.2801  0.3588
46951SOL     OW45537   7.440   9.900   0.576 -0.2971 -0.2259 -0.7207
46951SOL    HW145538   7.491   9.917   0.497 -1.1985  1.2817 -1.0050
46951SOL    HW245539   7.475   9.817   0.609  3.5822  1.5389  0.1039
46952SOL     OW45540   4.384   9.024  10.866  0.0178  0.9473 -0.0009
46952SOL    HW145541   4.421   9.085  10.930 -0.4241  1.7542 -0.5099
46952SOL    HW245542   4.401   9.064  10.781  1.7233 -0.6984 -0.5139
46953SOL     OW45543  11.847  11.573  10.470  0.5355  0.0996 -1.0046
46953SOL    HW145544  11.871  11.569  10.563 -0.5040 -0.3658 -0.7337
46953SOL    HW245545  11.813  11.486  10.451  0.1292  0.3965 -1.6494
46954SOL     OW45546  11.377   8.398   6.261 -0.3572  0.3706  0.4809
46954SOL    HW145547  11.415   8.376   6.176 -0.3903  0.1698  0.5188
46954SOL    HW245548  11.416   8.336   6.322 -1.2177 -0.2568  0.4184
46955SOL     OW45549   0.750   4.002   7.223 -0.5523  0.2102  0.1213
46955SOL    HW145550   0.734   4.073   7.286 -0.9547 -0.3353  0.6407
46955SOL    HW245551   0.663   3.970   7.200 -0.3884  0.1315 -0.4101
46956SOL     OW45552   9.018  10.005   3.676  1.1757 -0.0941  0.2074
46956SOL    HW145553   9.074   9.994   3.599  1.6233 -2.1778  0.7874
46956SOL    HW245554   9.047  10.088   3.715  1.6667  0.4532 -1.2436
46957SOL     OW45555   9.441   9.407   3.232 -0.3815 -0.2927 -0.1558
46957SOL    HW145556   9.418   9.420   3.140  0.8625 -1.3317 -0.6405
46957SOL    HW245557   9.376   9.344   3.264 -1.1886  0.5237 -0.1232
46958SOL     OW45558   0.343   8.510   1.542 -0.4095  0.0118 -0.3210
46958SOL    HW145559   0.428   8.470   1.521 -0.6904 -0.3315 -0.8176
46958SOL    HW245560   0.337   8.585   1.484 -0.1082  0.4902  0.2571
46959SOL     OW45561  11.074   8.668   9.621 -0.8572  0.2857 -0.2791
46959SOL    HW145562  11.091   8.704   9.534 -0.4040 -1.1321 -0.8048
46959SOL    HW245563  11.029   8.738   9.668  2.7248  2.8178 -0.1689
46960SOL     OW45564   2.820   0.980  10.980 -0.1045  0.0779  0.7709
46960SOL    HW145565   2.740   0.938  11.010 -0.6556  0.6645  0.1403
46960SOL    HW245566   2.814   1.070  11.012  0.7841 -0.1321  1.5892
46961SOL     OW45567   4.567   0.495   6.742  0.3918 -0.0984 -0.0824
46961SOL    HW145568   4.533   0.419   6.695 -1.5076 -0.0363  1.1023
46961SOL    HW245569   4.519   0.496   6.824  2.8660  0.3963  1.4697
46962SOL     OW45570   1.248   0.050  11.166  0.4255 -0.3592 -0.1523
46962SOL    HW145571   1.207  -0.029  11.129 -1.0785  0.8291 -1.1267
46962SOL    HW245572   1.317   0.016  11.222 -1.3736 -2.4565  0.9515
46963SOL     OW45573   5.105   0.332   5.888  0.2064 -0.2528 -0.2432
46963SOL    HW145574   5.162   0.365   5.818 -1.5096  0.6908 -1.2679
46963SOL    HW245575   5.087   0.242   5.865  1.2865 -0.5787  0.1198
46964SOL     OW45576   0.479   7.886   1.106  0.3596 -0.4981  0.3755
46964SOL    HW145577   0.456   7.979   1.105  0.4642 -0.4768 -0.0840
46964SOL    HW245578   0.480   7.863   1.199 -0.9158 -0.3459  0.4550
46965SOL     OW45579   1.830   0.675   8.625  0.1168  0.1095 -0.2221
46965SOL    HW145580   1.848   0.767   8.605 -3.0873  0.8575 -0.1709
46965SOL    HW245581   1.864   0.664   8.714 -1.3899  1.9620  0.6637
46966SOL     OW45582   4.764   0.685   8.209 -0.3434 -0.3362 -0.4080
46966SOL    HW145583   4.827   0.747   8.247 -1.0039  0.4954 -0.6461
46966SOL    HW245584   4.797   0.668   8.121 -0.7739  0.5814 -0.7531
46967SOL     OW45585   3.410   6.562   7.605 -0.3788  0.0451  0.3307
46967SOL    HW145586   3.464   6.595   7.677  1.0022  0.6817 -0.9461
46967SOL    HW245587   3.450   6.598   7.526  0.4413 -3.5301 -1.1104
46968SOL     OW45588   7.508   3.284   0.776 -0.1026  0.1532  0.3769
46968SOL    HW145589   7.541   3.364   0.816 -1.9677  1.0328  0.2287
46968SOL    HW245590   7.486   3.227   0.850 -1.2968  0.8410  0.5657
46969SOL     OW45591   5.371   8.478   4.167 -0.5812 -0.2723  0.2673
46969SOL    HW145592   5.293   8.476   4.112 -1.9831 -2.3645  2.1763
46969SOL    HW245593   5.432   8.418   4.125 -0.1261  0.9594 -0.9325
46970SOL     OW45594  11.906   7.053   5.251  0.2342  0.4350  0.0564
46970SOL    HW145595  11.811   7.044   5.243  0.3632  0.4561 -1.7726
46970SOL    HW245596  11.924   7.143   5.226  0.6893  0.6195  1.0188
46971SOL     OW45597  10.021  11.247   9.869 -0.3018  0.0318  0.6738
46971SOL    HW145598  10.029  11.208   9.781  2.7991  0.5147  0.6148
46971SOL    HW245599   9.964  11.322   9.857  0.8511  0.6854 -1.2240
46972SOL     OW45600   8.704   7.499   4.233  0.4322 -0.3473  0.0897
46972SOL    HW145601   8.669   7.504   4.144 -0.1966 -0.0464  0.3495
46972SOL    HW245602   8.633   7.532   4.289 -0.0637 -2.6754  0.9358
46973SOL     OW45603   3.157   1.391   8.179 -0.0627 -0.6709 -0.5359
46973SOL    HW145604   3.155   1.478   8.139 -2.1473 -1.4368 -2.2609
46973SOL    HW245605   3.155   1.330   8.105 -0.3292 -2.1895  0.6654
46974SOL     OW45606  10.229   4.109   5.654 -0.1208 -0.6685 -0.3072
46974SOL    HW145607  10.152   4.078   5.702  0.0356  0.2160  0.5580
46974SOL    HW245608  10.220   4.071   5.567 -1.8163 -0.1741 -0.3919
46975SOL     OW45609   4.582   2.394   7.218  0.3288  0.3847  0.3250
46975SOL    HW145610   4.612   2.307   7.245  0.7431  0.7034  0.9284
46975SOL    HW245611   4.623   2.409   7.133  0.7407  0.2315  0.4940
46976SOL     OW45612   5.715   4.836   2.677 -0.0547  0.3112  0.0401
46976SOL    HW145613   5.714   4.922   2.637 -0.2934  0.3749  0.1789
46976SOL    HW245614   5.787   4.790   2.634 -0.3167  0.3725 -0.4716
46977SOL     OW45615  10.519   1.967  10.105  0.1083 -0.8892  0.2535
46977SOL    HW145616  10.512   2.028  10.178  0.3689 -1.4384  0.7464
46977SOL    HW245617  10.436   1.919  10.106 -0.4151 -0.0304 -0.6107
46978SOL     OW45618   4.044   8.951   8.483  0.1977 -0.0619 -0.4067
46978SOL    HW145619   3.997   8.985   8.407 -2.8716 -1.2474  0.7987
46978SOL    HW245620   4.072   8.863   8.457 -0.5965 -0.3550 -0.2987
46979SOL     OW45621   9.705   8.427  10.508  0.5463  0.1381 -0.0461
46979SOL    HW145622   9.684   8.391  10.594  0.5405  0.1507 -0.0422
46979SOL    HW245623   9.787   8.384  10.483 -0.5341 -1.5018 -0.9796
46980SOL     OW45624   4.787   9.233   8.661  0.6918 -0.2526 -0.7772
46980SOL    HW145625   4.702   9.190   8.663  0.7386 -0.4509 -2.1844
46980SOL    HW245626   4.850   9.165   8.684  0.4674 -0.0120  0.6643
46981SOL     OW45627   9.772  10.038   5.992  0.2878  0.3460 -0.2858
46981SOL    HW145628   9.679  10.046   5.968  0.0077 -0.4025  0.4968
46981SOL    HW245629   9.780   9.950   6.028  1.6125 -0.0909 -1.5753
46982SOL     OW45630  10.268   4.387   5.687 -0.4965 -0.1490  0.1798
46982SOL    HW145631  10.247   4.404   5.595  1.9060 -0.0906 -0.4187
46982SOL    HW245632  10.252   4.293   5.698  1.2604 -0.6349 -0.9673
46983SOL     OW45633   7.508   0.113   6.616  0.1041  0.0281  0.1653
46983SOL    HW145634   7.483   0.193   6.570  2.2734  0.1344 -0.9501
46983SOL    HW245635   7.527   0.142   6.706 -3.0876 -0.0029  0.9726
46984SOL     OW45636   5.600   6.552   1.699 -0.4788 -0.4782 -0.7212
46984SOL    HW145637   5.535   6.545   1.630  0.6553  0.6150 -1.9398
46984SOL    HW245638   5.560   6.610   1.764 -0.8999 -0.2091 -1.2182
46985SOL     OW45639   7.166   9.518   0.282 -0.2723 -0.5895 -0.3922
46985SOL    HW145640   7.099   9.532   0.215 -2.6171  0.3807  1.9636
46985SOL    HW245641   7.237   9.578   0.257 -2.3373  2.0046 -0.4929
46986SOL     OW45642   9.780   0.893   5.678  0.1986  0.3259  0.3468
46986SOL    HW145643   9.831   0.973   5.686  0.7710 -0.1423  1.6760
46986SOL    HW245644   9.698   0.912   5.723 -0.1340  0.5323 -0.3373
46987SOL     OW45645   4.032   4.707   3.137 -0.6394  0.1293 -0.4611
46987SOL    HW145646   4.092   4.780   3.156  0.0357 -0.3040 -0.8954
46987SOL    HW245647   3.966   4.712   3.207  0.1322  0.3594  0.2704
46988SOL     OW45648   2.454   6.173   7.997  0.2802  0.3291 -0.0434
46988SOL    HW145649   2.377   6.144   7.948 -0.2858 -1.6551  1.8705
46988SOL    HW245650   2.418   6.223   8.070  0.9224  0.6491  0.0586
46989SOL     OW45651   0.973   4.810   7.777  0.1094 -0.4848 -0.2913
46989SOL    HW145652   1.040   4.828   7.843  0.1264 -2.4647  0.2972
46989SOL    HW245653   1.012   4.743   7.721 -0.5081  0.0327 -1.3744
46990SOL     OW45654   9.373   2.776   6.677 -0.4874  0.2338  0.2033
46990SOL    HW145655   9.376   2.871   6.689 -1.0133  0.5363 -1.7296
46990SOL    HW245656   9.460   2.753   6.647  0.4207 -0.3302  2.9279
46991SOL     OW45657   9.406   0.914   7.444  0.3547  0.2631 -0.4321
46991SOL    HW145658   9.390   0.998   7.401 -0.7888 -0.1991 -0.9652
46991SOL    HW245659   9.336   0.907   7.509  1.3398  0.3874  0.6698
46992SOL     OW45660   9.231   7.633   6.256  0.2369 -0.2759 -0.6035
46992SOL    HW145661   9.168   7.697   6.289  0.6807  0.1683 -0.6092
46992SOL    HW245662   9.295   7.686   6.208  1.0179 -0.6423  0.0203
46993SOL     OW45663   1.210   9.015  11.592  0.0825  0.1056  0.7419
46993SOL    HW145664   1.211   8.974  11.505  1.1975  0.3852  0.6118
46993SOL    HW245665   1.175   9.103  11.577  0.6844  0.3087  0.4931
46994SOL     OW45666  10.306   2.665   5.721  0.2454  0.2971 -0.4554
46994SOL    HW145667  10.230   2.640   5.773  0.6839 -0.4360 -0.1497
46994SOL    HW245668  10.354   2.726   5.778 -0.5870  1.5241 -1.0222
46995SOL     OW45669   7.097   8.984   9.498  0.6185  0.2552 -0.2537
46995SOL    HW145670   7.137   8.955   9.580  2.0512  1.7621 -0.3691
46995SOL    HW245671   7.128   8.922   9.433 -0.6808 -1.0655  0.3266
46996SOL     OW45672   8.795  10.551  10.365  0.2371  0.7389 -0.3808
46996SOL    HW145673   8.739  10.552  10.443  1.5358  0.3022  0.5952
46996SOL    HW245674   8.883  10.535  10.399  0.6367 -1.0785 -2.0776
46997SOL     OW45675   0.709   7.468   1.131  0.3404 -0.4891 -0.2228
46997SOL    HW145676   0.750   7.420   1.060  0.4865 -1.1830  0.3132
46997SOL    HW245677   0.714   7.409   1.206  0.0433  0.1581  0.3240
46998SOL     OW45678   3.320   9.972   7.597  0.2938 -0.0651 -0.4071
46998SOL    HW145679   3.265   9.941   7.526  2.1401  1.8108 -2.8676
46998SOL    HW245680   3.320  10.067   7.587  2.1581  0.1268  0.8361
46999SOL     OW45681  11.475  11.219   2.975  0.1188  0.2155  0.6938
46999SOL    HW145682  11.446  11.175   2.896  1.1550  0.2783  0.2660
46999SOL    HW245683  11.429  11.304   2.973 -0.9990 -0.3575  0.9435
47000SOL     OW45684   7.549   1.524   0.189  0.4079 -0.1093 -0.9157
47000SOL    HW145685   7.571   1.563   0.104  2.7990  0.0867 -0.2653
47000SOL    HW245686   7.606   1.448   0.196  1.1129  0.5590  1.0171
47001SOL     OW45687   4.725   7.044   0.085  0.4036  0.1666 -0.3418
47001SOL    HW145688   4.817   7.067   0.079  1.1797 -2.0071  1.6161
47001SOL    HW245689   4.717   6.962   0.035 -0.6567  0.7043 -1.1041
47002SOL     OW45690  11.796   6.158   8.183 -0.2670  0.1617  0.4324
47002SOL    HW145691  11.752   6.075   8.199  0.5503 -0.5787 -0.9758
47002SOL    HW245692  11.852   6.171   8.260  0.7127 -1.3547  0.0118
47003SOL     OW45693   2.416   2.829  11.463 -0.6648 -0.2277 -0.3343
47003SOL    HW145694   2.446   2.738  11.454 -2.1956 -0.6525 -1.7915
47003SOL    HW245695   2.403   2.841  11.557 -0.0192 -1.3844 -0.0786
47004SOL     OW45696   9.650   8.761   3.941 -0.4614  0.3179  0.1234
47004SOL    HW145697   9.617   8.775   3.853 -0.6885 -1.6630 -0.1652
47004SOL    HW245698   9.620   8.837   3.991 -0.1267  1.5714 -1.5296
47005SOL     OW45699   2.356   0.512   2.585  0.1271  0.8909  0.1708
47005SOL    HW145700   2.310   0.530   2.667  2.1903 -1.6297  2.0625
47005SOL    HW245701   2.309   0.437   2.548  0.2921  0.8724  0.0025
47006SOL     OW45702   4.576   4.724  10.121 -0.1990  0.0352 -0.0095
47006SOL    HW145703   4.663   4.686  10.109 -0.0894  0.4606 -0.6132
47006SOL    HW245704   4.570   4.740  10.215  0.0002 -0.8713  0.1639
47007SOL     OW45705  11.094   3.557   7.224 -0.1330 -0.6525  0.3868
47007SOL    HW145706  11.100   3.474   7.176 -0.2441 -0.4587  0.0354
47007SOL    HW245707  11.145   3.542   7.304 -0.9906 -1.3893  0.8107
47008SOL     OW45708   4.779   2.606   4.443 -0.0077  0.0273  0.1175
47008SOL    HW145709   4.862   2.632   4.484  0.2326 -0.8245  0.2012
47008SOL    HW245710   4.786   2.637   4.353  0.5036 -0.2485  0.0597
47009SOL     OW45711   4.779  11.055  10.467  0.2930  0.4558 -0.5727
47009SOL    HW145712   4.821  11.021  10.388  0.2792  1.4032 -0.9937
47009SOL    HW245713   4.697  11.093  10.437  0.2538  0.7665 -0.0861
47010SOL     OW45714   2.657   4.949   4.092 -0.1962  0.4687 -0.1876
47010SOL    HW145715   2.707   5.029   4.108  0.0303  0.1602  0.7185
47010SOL    HW245716   2.592   4.947   4.162 -0.0090 -0.2912 -0.0336
47011SOL     OW45717   6.556   9.351   2.081 -0.1072 -0.0702 -0.1027
47011SOL    HW145718   6.488   9.312   2.136  0.3812  1.2021  1.4725
47011SOL    HW245719   6.509   9.392   2.009 -0.8774 -0.5571  0.1129
47012SOL     OW45720  10.658  10.516   5.603  0.3007  0.0579  0.4457
47012SOL    HW145721  10.627  10.598   5.566  0.1558  0.1987  0.8764
47012SOL    HW245722  10.587  10.454   5.585  1.3610 -0.5871 -1.9760
47013SOL     OW45723  11.121   3.303   6.227  0.4216  0.4186  0.1023
47013SOL    HW145724  11.199   3.259   6.193 -0.3517  0.0737 -1.3396
47013SOL    HW245725  11.050   3.241   6.209 -0.5996  1.9206 -1.3725
47014SOL     OW45726   1.463   0.599   9.838  0.2098 -0.3467  0.3599
47014SOL    HW145727   1.384   0.646   9.812  0.3887 -0.3877 -0.2697
47014SOL    HW245728   1.519   0.602   9.761 -0.3133 -2.7945 -0.2004
47015SOL     OW45729   7.057   4.125   7.343  0.5225  0.5766 -0.1909
47015SOL    HW145730   7.064   4.039   7.384  0.7087  0.3673 -0.6451
47015SOL    HW245731   7.145   4.143   7.309  0.9385  1.7293  1.3787
47016SOL     OW45732   4.928   3.583   2.686  0.1151  0.1503 -0.1123
47016SOL    HW145733   4.833   3.592   2.675 -0.0818 -1.1643  0.3380
47016SOL    HW245734   4.965   3.660   2.643 -1.1217  0.3521 -0.8443
47017SOL     OW45735   9.235   7.762   7.808 -0.2723 -0.4003 -0.7321
47017SOL    HW145736   9.276   7.728   7.728 -0.9941  1.2125 -1.8662
47017SOL    HW245737   9.304   7.812   7.851 -0.5884  1.2189 -1.9642
47018SOL     OW45738   3.410  11.859   6.112 -0.8068 -0.1949 -0.4889
47018SOL    HW145739   3.431  11.824   6.199  3.9704  2.6555 -0.1348
47018SOL    HW245740   3.365  11.941   6.130  1.0335  0.8762 -0.5200
47019SOL     OW45741   3.690   0.838   9.014  0.3601  0.2403 -0.0118
47019SOL    HW145742   3.695   0.799   9.102  0.6255  0.8380  0.2460
47019SOL    HW245743   3.600   0.824   8.986 -0.2537  1.6623  1.1282
47020SOL     OW45744   7.966  10.634   3.093  0.9460 -0.4281 -0.5360
47020SOL    HW145745   8.024  10.571   3.048  1.9708  0.2251 -0.1609
47020SOL    HW245746   7.973  10.714   3.041  0.2247 -0.3934 -0.5862
47021SOL     OW45747  11.322   9.938   1.237 -0.5487  0.3629 -0.4604
47021SOL    HW145748  11.329   9.966   1.146  0.7901  0.9344 -0.2050
47021SOL    HW245749  11.408   9.903   1.259 -1.2977 -1.2041  0.1591
47022SOL     OW45750   1.038  11.459  10.891  0.2160 -0.2274 -0.0409
47022SOL    HW145751   1.091  11.456  10.812  2.2544  1.2175  1.1511
47022SOL    HW245752   0.989  11.541  10.884  0.3816 -0.1093  0.1700
47023SOL     OW45753  10.996   6.356   6.937 -0.1804 -0.0403  0.2234
47023SOL    HW145754  11.031   6.347   6.849  0.2077 -0.0480  0.3772
47023SOL    HW245755  10.944   6.436   6.934 -1.0511 -0.6061 -0.2982
47024SOL     OW45756   9.908   0.439   7.178  0.5467  0.1175  0.0462
47024SOL    HW145757   9.893   0.511   7.117  2.3904  0.1641 -0.4022
47024SOL    HW245758   9.899   0.360   7.125 -2.2256 -0.1076  0.6896
47025SOL     OW45759   2.009   4.631  10.377 -0.1410 -0.5889  0.3939
47025SOL    HW145760   2.071   4.633  10.450 -0.4706 -1.3142  0.7072
47025SOL    HW245761   2.021   4.715  10.333  0.1357 -0.1819  1.2216
47026SOL     OW45762   2.244   9.678   6.030  0.3165  0.2163 -0.1013
47026SOL    HW145763   2.339   9.689   6.036  0.3905  0.1262 -1.0023
47026SOL    HW245764   2.230   9.623   5.953 -0.4536 -0.0036  0.1845
47027SOL     OW45765   8.220   1.156  10.767  0.1100  0.3592 -0.0919
47027SOL    HW145766   8.199   1.220  10.835 -2.8529 -0.4773 -0.0885
47027SOL    HW245767   8.315   1.163  10.756  0.2468  2.7974  1.8046
47028SOL     OW45768   3.061   2.607   8.757  0.2988 -0.6433  0.7692
47028SOL    HW145769   3.143   2.616   8.709 -0.4341 -1.4730 -0.6897
47028SOL    HW245770   3.087   2.569   8.841  1.5301  0.2171  0.7991
47029SOL     OW45771   0.091   3.224   4.208 -0.0079  0.2506 -0.0575
47029SOL    HW145772   0.073   3.309   4.249  1.9474  1.7314 -1.9888
47029SOL    HW245773   0.185   3.225   4.192 -0.0551 -1.9946 -0.8127
47030SOL     OW45774   4.163   7.019   9.555  0.3427  0.1953  0.3991
47030SOL    HW145775   4.097   6.972   9.606 -1.3731  1.7797 -0.2726
47030SOL    HW245776   4.162   6.977   9.469 -0.0393  0.4186  0.2918
47031SOL     OW45777   4.226   0.977   9.835  0.2152 -0.0118  0.6492
47031SOL    HW145778   4.232   1.003   9.743 -0.5281  0.5874  0.7606
47031SOL    HW245779   4.133   0.956   9.848  0.5971 -1.7432  0.8371
47032SOL     OW45780  10.934   9.988  11.836  0.1515 -0.0078  0.1701
47032SOL    HW145781  11.018   9.948  11.815 -0.1160 -0.5554  0.1025
47032SOL    HW245782  10.870   9.918  11.821 -0.1882 -0.0204  1.5167
47033SOL     OW45783  11.000   6.179   1.617  0.5679 -0.0127  0.1838
47033SOL    HW145784  11.086   6.137   1.610  1.6409  2.1889 -0.5116
47033SOL    HW245785  10.960   6.166   1.531  0.4094 -0.5559  0.3325
47034SOL     OW45786   8.727   1.194   3.205  0.0971 -0.1199  0.3779
47034SOL    HW145787   8.780   1.133   3.154 -0.2286  0.8792 -1.2352
47034SOL    HW245788   8.663   1.138   3.250  0.0354 -1.0168 -0.7657
47035SOL     OW45789   5.452   2.742   4.834 -0.1397  0.0706 -0.0058
47035SOL    HW145790   5.402   2.720   4.913  3.7245 -0.0510  2.6842
47035SOL    HW245791   5.493   2.826   4.854  1.3770 -0.2147 -1.6163
47036SOL     OW45792   1.364  11.203   8.039  0.7462  0.3006 -0.4341
47036SOL    HW145793   1.392  11.119   8.076 -3.1637 -0.6816  0.8407
47036SOL    HW245794   1.336  11.254   8.115 -0.3079  1.3169 -1.4618
47037SOL     OW45795   3.036   5.333   1.707 -0.3253  0.3959  0.0644
47037SOL    HW145796   3.126   5.303   1.718  0.2802  2.3882  0.9961
47037SOL    HW245797   2.991   5.260   1.664  0.7095 -2.3064  3.1704
47038SOL     OW45798   3.036   7.529   1.189  0.1009 -0.4118  0.2729
47038SOL    HW145799   3.092   7.581   1.133 -1.2132  0.7431 -0.0186
47038SOL    HW245800   3.034   7.576   1.272  0.7322 -1.2463  0.7816
47039SOL     OW45801   2.421  11.131   2.415 -0.1804 -0.0514 -0.0662
47039SOL    HW145802   2.472  11.062   2.457  0.2715  0.9277  1.0447
47039SOL    HW245803   2.485  11.179   2.363  0.1154  1.2574  1.4300
47040SOL     OW45804   1.838   6.057   8.428  0.5077  0.3220  0.8396
47040SOL    HW145805   1.827   6.150   8.446 -0.3042  0.2208  0.9164
47040SOL    HW245806   1.905   6.028   8.490 -0.1649  0.5892  1.7097
47041SOL     OW45807   4.929   9.680   5.885 -0.5136  0.0786 -0.0870
47041SOL    HW145808   4.843   9.656   5.853 -0.1998  0.3478 -1.1560
47041SOL    HW245809   4.927   9.775   5.894  0.9743  0.7299 -4.3535
47042SOL     OW45810  11.019   1.398   5.619 -0.3879  0.2773 -0.2344
47042SOL    HW145811  11.089   1.346   5.580 -0.0746  1.3706 -1.1595
47042SOL    HW245812  10.945   1.388   5.559 -0.6362  0.1152  0.0958
47043SOL     OW45813   5.282   3.629   8.478  0.9198  0.9337  0.0304
47043SOL    HW145814   5.342   3.602   8.548  0.1150 -2.6199 -0.4771
47043SOL    HW245815   5.284   3.725   8.481  0.9382  1.0450  4.8727
47044SOL     OW45816   4.309   7.730  10.434  0.1737  0.9740 -0.4570
47044SOL    HW145817   4.358   7.800  10.392  0.6285  1.4224  0.7926
47044SOL    HW245818   4.351   7.649  10.404  0.4614  1.2844 -0.8859
47045SOL     OW45819   9.725   2.758   2.126  0.6097 -0.2197 -0.7839
47045SOL    HW145820   9.812   2.724   2.149  1.1804 -0.0016 -2.4755
47045SOL    HW245821   9.667   2.682   2.135  1.0717 -0.5204 -0.2354
47046SOL     OW45822   0.751   1.950   7.220  0.3811  0.0310  0.2687
47046SOL    HW145823   0.788   2.038   7.233 -0.2064  0.1628  1.1000
47046SOL    HW245824   0.826   1.896   7.194  0.7687  0.7448 -0.1237
47047SOL     OW45825   8.788   3.489   6.638  0.3307  0.0518  0.3490
47047SOL    HW145826   8.857   3.458   6.579 -1.0041 -1.1591 -0.6352
47047SOL    HW245827   8.819   3.465   6.726  1.0221 -0.7649 -0.1032
47048SOL     OW45828   9.832   6.585   6.001 -0.1643  0.4345 -0.5171
47048SOL    HW145829   9.921   6.598   6.033  0.1091  2.1865 -1.8151
47048SOL    HW245830   9.777   6.636   6.062 -0.2455 -0.3066  0.0393
47049SOL     OW45831  10.775   9.222  10.680 -0.0804  0.3317  0.1270
47049SOL    HW145832  10.704   9.271  10.721  0.3724  1.3690 -0.2762
47049SOL    HW245833  10.821   9.181  10.754 -0.3543  0.6695  0.4930
47050SOL     OW45834   3.450   3.992   6.334 -0.0690 -0.1418  0.2331
47050SOL    HW145835   3.456   3.965   6.426 -1.9728 -0.5873  0.2744
47050SOL    HW245836   3.468   3.911   6.285  0.3907 -0.0310  0.2126
47051SOL     OW45837   1.457   3.027   8.505  0.2144  0.1397  0.0411
47051SOL    HW145838   1.461   3.041   8.410  0.0208 -0.6839 -0.0928
47051SOL    HW245839   1.515   3.095   8.541  0.4719  0.3145 -0.6776
47052SOL     OW45840   5.707   8.611   4.959  0.0357 -0.2443  0.7693
47052SOL    HW145841   5.767   8.574   4.893 -0.3000 -1.2764  1.0230
47052SOL    HW245842   5.633   8.645   4.908  0.0529 -0.4961  0.5754
47053SOL     OW45843  11.172   9.841   5.287  0.5336  0.3442 -0.1219
47053SOL    HW145844  11.131   9.792   5.216  1.6528  0.0985 -0.6134
47053SOL    HW245845  11.100   9.859   5.348 -0.0902 -1.0287 -0.4116
47054SOL     OW45846   7.545   2.493   5.591  0.1208 -0.3873  0.3239
47054SOL    HW145847   7.452   2.498   5.614  0.1762  0.2480  0.4045
47054SOL    HW245848   7.555   2.406   5.551 -0.3666 -0.7350  0.9411
47055SOL     OW45849   2.842   7.037   7.555 -0.4901  0.2952 -0.1011
47055SOL    HW145850   2.792   6.956   7.542 -1.5514  1.0277 -0.6597
47055SOL    HW245851   2.801   7.078   7.631  0.9668 -0.3549  1.0921
47056SOL     OW45852  11.826   6.422  10.574  0.3089 -0.0361  0.2801
47056SOL    HW145853  11.890   6.463  10.516  0.5825 -0.1541  0.4999
47056SOL    HW245854  11.827   6.476  10.653 -1.0104  0.9204 -0.2999
47057SOL     OW45855   5.570   9.605  11.715  0.2483 -0.2062  0.5786
47057SOL    HW145856   5.665   9.594  11.716  0.3115  0.1319 -0.2901
47057SOL    HW245857   5.554   9.664  11.641 -0.7368 -1.3035 -0.1213
47058SOL     OW45858   1.284   8.602   1.356  0.0959 -0.2348 -0.2746
47058SOL    HW145859   1.305   8.614   1.264  0.3748  1.2009 -0.0452
47058SOL    HW245860   1.317   8.681   1.399 -0.7989 -0.4834  0.9250
47059SOL     OW45861   5.082  10.176   9.822  0.5623 -0.2400 -0.9735
47059SOL    HW145862   5.104  10.175   9.729 -1.8372  1.8639 -1.7014
47059SOL    HW245863   5.050  10.265   9.837  0.9558 -0.4957  1.9262
47060SOL     OW45864   3.663   8.597  11.653  0.2367  0.3964  0.7283
47060SOL    HW145865   3.654   8.501  11.654 -0.3338  0.3149 -2.3260
47060SOL    HW245866   3.746   8.613  11.697  0.7017 -1.5676  0.6849
47061SOL     OW45867   6.764   1.391   1.234 -0.6667 -0.1198 -0.0887
47061SOL    HW145868   6.773   1.481   1.203  1.3126 -0.6082 -1.1246
47061SOL    HW245869   6.800   1.392   1.323 -0.8267  0.1616 -0.0290
47062SOL     OW45870   1.974   4.493   2.473 -0.1633  0.2475 -0.3317
47062SOL    HW145871   1.880   4.475   2.474 -0.0782 -0.2047  0.5085
47062SOL    HW245872   2.005   4.464   2.559  1.3570 -2.8654 -1.7443
47063SOL     OW45873   1.541   0.465   7.707 -0.4174 -0.1438 -0.5987
47063SOL    HW145874   1.535   0.541   7.766 -0.3855 -0.9937  0.5353
47063SOL    HW245875   1.464   0.474   7.650 -2.7551 -1.3088  2.0920
47064SOL     OW45876   7.928  10.186   7.057  0.0477  0.5912  0.2293
47064SOL    HW145877   7.903  10.145   6.974 -1.3562 -0.3089  1.0533
47064SOL    HW245878   7.914  10.280   7.043  0.4536  0.5175 -0.7354
47065SOL     OW45879   4.328   8.921   9.724 -0.1070  0.0385  0.3915
47065SOL    HW145880   4.387   8.875   9.783 -0.6804 -1.4590 -0.1549
47065SOL    HW245881   4.334   9.013   9.750  0.2903 -0.4732  2.2085
47066SOL     OW45882   3.619  11.987   5.380  0.5214 -0.3557 -0.4596
47066SOL    HW145883   3.638  12.054   5.446  1.1687 -0.8436 -0.1477
47066SOL    HW245884   3.633  11.904   5.425  3.0371 -0.7313 -1.7626
47067SOL     OW45885   6.089  10.424   5.107 -0.3660  0.2535 -0.1553
47067SOL    HW145886   6.036  10.443   5.184  1.1014 -1.4676  1.3694
47067SOL    HW245887   6.042  10.353   5.062 -1.3314  1.4004 -1.0206
47068SOL     OW45888   2.122  10.949  10.013 -0.0463 -0.2645  0.0381
47068SOL    HW145889   2.156  11.003   9.941  0.0611  0.4204  0.6007
47068SOL    HW245890   2.181  10.873  10.015  0.8204  0.3905  0.3041
47069SOL     OW45891   2.409  10.577   2.694 -0.2250 -0.2869  0.2461
47069SOL    HW145892   2.459  10.601   2.772 -0.2144  0.5163 -0.0005
47069SOL    HW245893   2.347  10.649   2.682 -0.3455 -0.4853 -0.3853
47070SOL     OW45894   3.760   4.569   3.221  0.8213  0.1699 -0.5725
47070SOL    HW145895   3.824   4.508   3.183 -0.6997 -1.9345  0.0898
47070SOL    HW245896   3.812   4.628   3.276  2.2817 -0.9357 -0.7226
47071SOL     OW45897   4.126   5.672  11.455  0.2554  0.2601  0.3183
47071SOL    HW145898   4.071   5.750  11.462 -0.1772 -0.1840  4.0320
47071SOL    HW245899   4.099   5.630  11.374 -2.0508  2.1332  0.0111
47072SOL     OW45900   0.837   5.768   3.117  0.1347  1.0461  0.4784
47072SOL    HW145901   0.930   5.758   3.140  0.0957  2.3637  1.3039
47072SOL    HW245902   0.791   5.716   3.182  0.2996 -0.5224 -0.5839
47073SOL     OW45903   0.218   2.993  10.297  0.1422  0.0632 -0.3013
47073SOL    HW145904   0.220   3.066  10.359 -0.6170  0.1807 -0.4097
47073SOL    HW245905   0.231   3.034  10.211 -1.7648  0.2711 -0.5216
47074SOL     OW45906  11.544   1.365   0.160  0.4537  0.0009  0.4857
47074SOL    HW145907  11.453   1.394   0.170  0.6275  0.9189 -0.4651
47074SOL    HW245908  11.596   1.440   0.188  0.9311 -0.2985  0.4128
47075SOL     OW45909   0.545  11.781   8.703 -0.2734  0.0277  0.8655
47075SOL    HW145910   0.622  11.787   8.760 -0.2215  0.3330  0.7647
47075SOL    HW245911   0.513  11.871   8.696 -1.6525 -0.3118  2.2818
47076SOL     OW45912  10.543   2.238   1.465 -0.1444 -0.7020 -0.0687
47076SOL    HW145913  10.532   2.220   1.372 -2.5383 -0.4873  0.1236
47076SOL    HW245914  10.551   2.151   1.505  0.4111 -0.8120 -0.4032
47077SOL     OW45915   9.113  10.400   2.130 -0.1972  0.1343  0.2948
47077SOL    HW145916   9.120  10.470   2.196  3.9469 -1.3705  1.8062
47077SOL    HW245917   9.084  10.324   2.179  0.5140 -0.4142 -0.1171
47078SOL     OW45918   6.229   9.019   1.628  0.0918 -0.6062  0.2204
47078SOL    HW145919   6.144   8.976   1.639  0.5174 -1.4920  0.0990
47078SOL    HW245920   6.292   8.947   1.625  0.9902  0.0903  1.5181
47079SOL     OW45921   0.538   2.791  11.153 -0.9554  0.1826  0.1639
47079SOL    HW145922   0.559   2.852  11.224  0.2330  0.6178 -0.5452
47079SOL    HW245923   0.586   2.824  11.078  0.8962 -2.4067  0.0768
47080SOL     OW45924   0.619   8.649   5.608 -0.0640 -0.2841  0.2871
47080SOL    HW145925   0.624   8.728   5.553 -0.9536  0.6113  1.4211
47080SOL    HW245926   0.672   8.584   5.562  3.5128  1.9065  0.9208
47081SOL     OW45927  11.655   1.310   6.973  0.3574  0.6847  0.1615
47081SOL    HW145928  11.561   1.327   6.984  0.4248  0.9352  0.3539
47081SOL    HW245929  11.675   1.246   7.041  0.4751  1.1692  0.5879
47082SOL     OW45930   0.199  10.947   5.785  0.4378 -0.4208  0.4777
47082SOL    HW145931   0.131  10.904   5.836 -0.2715 -0.6092 -0.6074
47082SOL    HW245932   0.217  11.028   5.833 -1.2642  0.1162  0.2397
47083SOL     OW45933   0.826   8.275  10.775 -0.2763 -0.6477 -0.0836
47083SOL    HW145934   0.811   8.286  10.681  0.1501 -0.7938 -0.1674
47083SOL    HW245935   0.920   8.257  10.783 -0.5146 -1.8154  0.2712
47084SOL     OW45936   4.310   3.698   5.597  0.0630  0.0021  0.9327
47084SOL    HW145937   4.355   3.700   5.681  0.3679  0.0410  0.7678
47084SOL    HW245938   4.246   3.627   5.607  1.1008 -1.0064  0.6961
47085SOL     OW45939   0.540   5.310   8.990  0.4968  0.1573  0.0886
47085SOL    HW145940   0.506   5.260   8.916  0.3227  0.0337  0.2492
47085SOL    HW245941   0.626   5.272   9.008  1.5304  1.6236 -1.4423
47086SOL     OW45942   4.627  10.683   8.733 -0.0452  0.1403  0.2540
47086SOL    HW145943   4.534  10.663   8.740  0.3685 -1.3827  2.3117
47086SOL    HW245944   4.664  10.609   8.684 -0.0676  1.5226 -2.0256
47087SOL     OW45945   6.178   6.277   6.467 -0.0114 -0.0295 -0.1150
47087SOL    HW145946   6.100   6.241   6.509 -0.7759  1.0292 -0.5690
47087SOL    HW245947   6.154   6.367   6.446  2.0978  1.0882  1.7471
47088SOL     OW45948   4.517  10.872   1.654 -0.7748 -0.5809 -0.4202
47088SOL    HW145949   4.471  10.802   1.700 -0.1245 -0.9684 -0.3408
47088SOL    HW245950   4.610  10.848   1.661 -0.1826  1.9075  2.4051
47089SOL     OW45951   2.600   0.714   0.671 -0.3171 -0.0635  0.0589
47089SOL    HW145952   2.530   0.753   0.618 -0.3812  2.4816  1.8026
47089SOL    HW245953   2.678   0.763   0.646  0.1225 -0.4838  0.5829
47090SOL     OW45954   8.547   8.185  11.404  0.0275 -0.1633  0.3646
47090SOL    HW145955   8.582   8.128  11.473 -0.0052 -2.0411 -1.0715
47090SOL    HW245956   8.454   8.193  11.423  0.1239 -0.2012  0.8502
47091SOL     OW45957   0.581   1.303   5.096  0.4856 -0.3920  0.0697
47091SOL    HW145958   0.593   1.209   5.080  0.1669 -0.2494 -1.0988
47091SOL    HW245959   0.669   1.336   5.110  0.5725 -0.9196  0.8071
47092SOL     OW45960   2.534  11.472  11.304  0.1440  0.4751  0.1476
47092SOL    HW145961   2.449  11.492  11.264  0.5577 -0.3262 -1.1720
47092SOL    HW245962   2.560  11.554  11.346 -0.9590  0.9305 -0.0179
47093SOL     OW45963   8.444   9.286   9.217  0.1260  0.3512  0.1307
47093SOL    HW145964   8.520   9.329   9.256 -0.0186 -0.0380  0.8549
47093SOL    HW245965   8.370   9.342   9.240 -0.0503 -0.2155  1.0000
47094SOL     OW45966   3.826  11.085   0.047 -0.1025 -0.3676  0.3805
47094SOL    HW145967   3.734  11.072   0.072  0.2083 -0.9558  1.2578
47094SOL    HW245968   3.872  11.009   0.084  0.7411 -0.0653 -0.0267
47095SOL     OW45969   3.867   1.736   9.353 -0.1289 -0.2243 -0.2731
47095SOL    HW145970   3.796   1.774   9.302 -0.3993 -0.3685 -0.0108
47095SOL    HW245971   3.827   1.714   9.437  0.3034 -0.0178 -0.0097
47096SOL     OW45972  11.177   9.452   0.534  0.2878  0.0766 -0.3315
47096SOL    HW145973  11.261   9.414   0.562  0.1552 -0.1279 -0.2049
47096SOL    HW245974  11.113   9.382   0.551 -0.1908  0.8628  1.3278
47097SOL     OW45975   8.517   5.420   9.976 -0.7577  0.2765  0.3100
47097SOL    HW145976   8.439   5.446  10.026 -0.7940 -0.4351  0.6359
47097SOL    HW245977   8.590   5.436  10.035 -0.6671  0.7664  0.0711
47098SOL     OW45978   6.783   4.442   8.137 -0.0531 -0.2346 -0.3163
47098SOL    HW145979   6.702   4.408   8.173 -0.0595  1.2521  1.1976
47098SOL    HW245980   6.852   4.402   8.190 -0.0689  2.0718  1.5921
47099SOL     OW45981   6.875   7.063  10.257 -0.4441 -0.0530  0.0749
47099SOL    HW145982   6.968   7.043  10.267 -0.8702 -2.0704  0.5911
47099SOL    HW245983   6.870   7.158  10.259  1.6477  0.1155 -0.4129
47100SOL     OW45984   0.914   8.330   2.773  0.1845 -0.3863  0.1457
47100SOL    HW145985   0.819   8.334   2.780 -0.0112 -1.9303 -1.1886
47100SOL    HW245986   0.941   8.422   2.764 -1.1031  0.1108  1.0763
47101SOL     OW45987   0.259   2.065   8.828  0.0579 -0.2698 -0.4494
47101SOL    HW145988   0.171   2.027   8.827 -0.1508  0.2056 -0.9711
47101SOL    HW245989   0.276   2.083   8.920 -0.1140 -1.0003 -0.2716
47102SOL     OW45990   2.182   4.955   2.998 -0.1149  0.1003  0.1216
47102SOL    HW145991   2.265   4.915   2.971  1.1227  1.0394  2.3057
47102SOL    HW245992   2.170   4.927   3.088 -0.8655  2.0241  0.6613
47103SOL     OW45993   9.171   5.950   4.443 -0.3468  0.1865 -0.2851
47103SOL    HW145994   9.160   5.903   4.361 -0.0613  0.0573 -0.2530
47103SOL    HW245995   9.093   5.929   4.494 -0.8341  0.7775 -0.7645
47104SOL     OW45996   2.072   9.166   3.277  0.2842  0.5733  0.2176
47104SOL    HW145997   2.083   9.071   3.275 -0.4600  0.4746  0.3446
47104SOL    HW245998   2.041   9.184   3.366 -0.8492  0.7673 -0.1934
47105SOL     OW45999   4.201   0.147   2.755  0.1555  0.1685  0.5594
47105SOL    HW146000   4.156   0.151   2.839  1.2422 -1.5537  1.2710
47105SOL    HW246001   4.251   0.228   2.750  0.6375 -0.0223  1.9149
47106SOL     OW46002   4.449   5.912   0.545 -0.1274 -0.1756  0.0947
47106SOL    HW146003   4.482   5.896   0.457  0.5476  1.7118 -0.0506
47106SOL    HW246004   4.491   5.845   0.599  1.3838  0.1326 -0.6416
47107SOL     OW46005  11.122   1.678   5.009  0.0792 -0.0892 -0.7997
47107SOL    HW146006  11.171   1.596   5.002 -0.8162 -0.5251 -2.3977
47107SOL    HW246007  11.072   1.670   5.090  2.6220  0.3902  0.9287
47108SOL     OW46008   0.248   3.223   6.681  0.6751  0.0408  0.3072
47108SOL    HW146009   0.295   3.146   6.713  0.1225 -0.2173  0.5110
47108SOL    HW246010   0.155   3.202   6.694  0.5378  1.4056  1.9573
47109SOL     OW46011   8.652  11.097   2.386 -0.5376  0.2978 -0.0664
47109SOL    HW146012   8.737  11.104   2.430 -1.6525 -0.0375  2.3387
47109SOL    HW246013   8.607  11.027   2.434 -1.6648 -0.5313 -2.2203
47110SOL     OW46014  11.375   6.152   5.920 -0.0085 -0.3086 -0.0862
47110SOL    HW146015  11.382   6.169   5.826  0.0254  2.1339  0.2871
47110SOL    HW246016  11.460   6.178   5.956 -0.3608 -0.2699  0.7363
47111SOL     OW46017   3.784   1.397   0.040 -0.2932  0.3059  0.0072
47111SOL    HW146018   3.833   1.461  -0.011 -0.8060  0.8577  0.1949
47111SOL    HW246019   3.820   1.312   0.014  1.9376  0.7591  1.3675
47112SOL     OW46020   0.055   1.102   0.376  0.1863  0.5156 -0.2130
47112SOL    HW146021   0.082   1.079   0.287 -0.7057  0.4415 -0.4798
47112SOL    HW246022   0.091   1.189   0.391 -0.7319  1.0842 -1.1582
47113SOL     OW46023   7.760  11.599  10.004 -0.4438 -0.3998  0.1816
47113SOL    HW146024   7.799  11.664  10.062  3.1702  0.0125 -2.3584
47113SOL    HW246025   7.696  11.647   9.952  1.0463  0.8451 -0.5758
47114SOL     OW46026   0.604   0.324   1.606 -0.6408 -0.4215 -0.5058
47114SOL    HW146027   0.696   0.314   1.579 -0.0304 -0.2840  1.3608
47114SOL    HW246028   0.580   0.238   1.641 -0.3373  0.2439  1.4388
47115SOL     OW46029   2.077   6.768   7.750  0.2809 -0.2316  0.2688
47115SOL    HW146030   2.076   6.761   7.846 -1.1085 -0.3911  0.2659
47115SOL    HW246031   2.162   6.807   7.730 -0.1229  1.5599  1.7108
47116SOL     OW46032   8.142   7.558   4.706  0.2271  0.7106 -0.1154
47116SOL    HW146033   8.191   7.491   4.753  1.4274  1.6694  0.0437
47116SOL    HW246034   8.087   7.509   4.645  1.3424 -0.4163 -0.2606
47117SOL     OW46035   0.247   1.835   6.647  0.2091 -0.0235  0.1150
47117SOL    HW146036   0.336   1.859   6.623 -0.6260  1.3325 -1.9358
47117SOL    HW246037   0.196   1.915   6.631 -1.3810 -0.7740  1.1873
47118SOL     OW46038  10.869   5.587   6.180  0.0363 -0.0586  0.1717
47118SOL    HW146039  10.922   5.531   6.237  1.4933  1.5710  0.5079
47118SOL    HW246040  10.779   5.575   6.211  0.5103 -0.9836  1.2574
47119SOL     OW46041   4.135   2.119   9.030 -0.1970 -0.1540 -0.3310
47119SOL    HW146042   4.213   2.173   9.035  0.9717 -1.8776  1.8376
47119SOL    HW246043   4.096   2.124   9.117 -0.7216 -1.8188 -0.4273
47120SOL     OW46044   5.471   9.997   7.868  0.0247  0.3486 -0.4695
47120SOL    HW146045   5.489  10.038   7.783 -1.3426  0.3323 -0.7804
47120SOL    HW246046   5.549  10.017   7.920  0.9827  0.1717 -1.7794
47121SOL     OW46047   3.876   0.534   0.135  0.3475 -0.2524  0.2048
47121SOL    HW146048   3.802   0.594   0.127  0.4275 -0.1378  0.3134
47121SOL    HW246049   3.903   0.516   0.045  2.2237  2.2316  0.1590
47122SOL     OW46050   6.194  11.388   0.618  0.6385 -0.0837 -0.8697
47122SOL    HW146051   6.193  11.293   0.610 -1.3173 -0.0618 -1.3686
47122SOL    HW246052   6.264  11.416   0.560  1.2801 -1.2055 -0.6730
47123SOL     OW46053   3.444   9.235   2.088 -0.5053 -0.1634 -0.0539
47123SOL    HW146054   3.447   9.265   2.179 -1.1122 -0.0361 -0.0709
47123SOL    HW246055   3.371   9.283   2.049  1.0719  1.4542 -1.2235
47124SOL     OW46056   2.552  11.449  10.795  0.1533  0.7030  0.5153
47124SOL    HW146057   2.638  11.482  10.819  1.6885 -1.6844 -1.2474
47124SOL    HW246058   2.517  11.514  10.733  1.9205  0.4296 -0.8435
47125SOL     OW46059   1.074   8.102   3.239 -0.1548  0.0980  0.7239
47125SOL    HW146060   1.027   8.153   3.173 -0.1390  0.6541  1.1381
47125SOL    HW246061   1.166   8.108   3.211 -0.3102 -0.9918 -0.0857
47126SOL     OW46062   1.942   2.303  10.836  0.0390  0.2930  0.1761
47126SOL    HW146063   1.899   2.293  10.751  0.4799 -0.9757  0.0836
47126SOL    HW246064   1.927   2.395  10.860 -2.3283  0.0273 -0.0537
47127SOL     OW46065   6.975   0.704   8.193 -0.3239  0.3278 -0.4243
47127SOL    HW146066   6.963   0.626   8.140 -1.4029 -0.1504  0.4885
47127SOL    HW246067   6.912   0.767   8.158 -1.0383  0.0109  0.2670
47128SOL     OW46068   5.914   5.833   1.296 -0.0046 -0.2841  0.2322
47128SOL    HW146069   5.867   5.905   1.254 -0.9562 -0.7984  0.3918
47128SOL    HW246070   5.884   5.755   1.250 -1.5565 -0.9514  2.2142
47129SOL     OW46071   6.061   0.448   3.469  0.6952 -0.3893 -0.1771
47129SOL    HW146072   5.972   0.432   3.500  0.2341  1.5965 -0.3077
47129SOL    HW246073   6.059   0.538   3.437  2.4877 -0.6657 -1.1984
47130SOL     OW46074   2.305   6.599  10.619 -0.5538 -0.0050 -0.4881
47130SOL    HW146075   2.250   6.602  10.697  0.5733 -0.9683  0.3834
47130SOL    HW246076   2.278   6.520  10.573  0.9157 -1.2261  0.6287
47131SOL     OW46077   0.655  10.114   6.545  0.3685 -0.2556  0.2639
47131SOL    HW146078   0.621  10.180   6.606 -0.2656 -0.5767  0.2632
47131SOL    HW246079   0.602  10.037   6.561  0.5245 -0.4977 -0.3617
47132SOL     OW46080  10.914   4.361   8.997  0.3278  0.0806 -0.3602
47132SOL    HW146081  10.983   4.330   9.056  0.7771  0.4095 -0.7090
47132SOL    HW246082  10.935   4.322   8.912  0.4864  0.7353 -0.6319
47133SOL     OW46083   3.614   9.249   4.106 -0.3483  0.4324  0.3227
47133SOL    HW146084   3.599   9.155   4.097  1.0286  0.2568 -0.3046
47133SOL    HW246085   3.698   9.256   4.151  0.7245  1.3266 -1.7035
47134SOL     OW46086   2.621   7.828   5.165 -0.4075  0.0903 -0.1743
47134SOL    HW146087   2.658   7.755   5.116  1.6507  1.8749 -1.5304
47134SOL    HW246088   2.563   7.872   5.103 -0.9680  0.0840  0.3418
47135SOL     OW46089   3.480   9.703   8.512  0.1395 -0.5106 -0.3755
47135SOL    HW146090   3.575   9.693   8.514  0.1012 -0.9844 -0.7566
47135SOL    HW246091   3.465   9.798   8.510  0.5809 -0.4109  0.4782
47136SOL     OW46092   9.651   1.600   3.078  0.6026  0.2182  0.4401
47136SOL    HW146093   9.688   1.584   2.992  0.2664  1.7482 -0.0184
47136SOL    HW246094   9.727   1.606   3.136  0.8094 -1.2910  0.3657
47137SOL     OW46095   7.938   2.940   1.680 -0.0488 -0.3649 -0.2344
47137SOL    HW146096   8.031   2.934   1.700 -0.2322  1.6483  1.6645
47137SOL    HW246097   7.900   2.983   1.756 -2.2800  0.3237 -1.6346
47138SOL     OW46098   0.653   2.745   9.728 -0.2428 -0.0053 -0.0417
47138SOL    HW146099   0.712   2.674   9.700  0.2361  0.0390  0.8236
47138SOL    HW246100   0.637   2.727   9.821  1.5486  2.1490  0.7646
47139SOL     OW46101   2.324   8.634   3.601  0.0765 -0.1753 -0.4064
47139SOL    HW146102   2.231   8.655   3.595  0.4350  1.6770 -0.2221
47139SOL    HW246103   2.355   8.685   3.676  1.3935 -0.1141 -0.9683
47140SOL     OW46104  10.722   6.333   2.132  0.0831 -0.4846  1.0699
47140SOL    HW146105  10.671   6.383   2.068  0.0264 -2.9043 -0.9523
47140SOL    HW246106  10.678   6.349   2.215 -1.1858  1.1002  0.1446
47141SOL     OW46107   3.975   8.443   9.781 -0.3705  0.2086  0.4926
47141SOL    HW146108   3.986   8.518   9.722 -2.1244  1.1827  1.3472
47141SOL    HW246109   3.881   8.438   9.797 -0.3980 -2.6122 -0.0354
47142SOL     OW46110   7.033   8.431   1.682  0.0812  0.8167 -0.4565
47142SOL    HW146111   7.061   8.356   1.629 -1.2155 -1.2430  1.6281
47142SOL    HW246112   7.101   8.439   1.749  0.4182  1.8294 -0.8925
47143SOL     OW46113   6.911   4.131   7.611  0.7697 -0.1044  0.0143
47143SOL    HW146114   6.859   4.058   7.576  0.3910  1.1160 -2.1379
47143SOL    HW246115   6.998   4.093   7.624  0.7325 -0.8603 -1.6194
47144SOL     OW46116   8.787   6.393   6.801  0.2496 -0.2675  0.0924
47144SOL    HW146117   8.850   6.365   6.735  0.3290 -0.6545  0.3248
47144SOL    HW246118   8.767   6.484   6.779  1.2986  0.0363  0.3270
47145SOL     OW46119   5.842   7.540   3.827 -0.2892  0.2976 -0.0208
47145SOL    HW146120   5.860   7.571   3.739  0.3207 -0.3294 -0.1251
47145SOL    HW246121   5.929   7.530   3.867 -0.5413  0.0848  0.4779
47146SOL     OW46122   8.461   8.748  10.001  0.3124  0.1388  0.1650
47146SOL    HW146123   8.448   8.838   9.969  0.3132 -0.1003 -0.5157
47146SOL    HW246124   8.555   8.741  10.014  0.3063  0.2536  0.2809
47147SOL     OW46125   8.297   2.356   9.713 -0.2526  0.1969 -0.0439
47147SOL    HW146126   8.373   2.311   9.750 -0.0258  0.2925 -0.3909
47147SOL    HW246127   8.225   2.293   9.723 -0.4575  0.6489  1.5951
47148SOL     OW46128   1.903   0.357   7.664 -0.9711  0.5847 -0.2866
47148SOL    HW146129   1.973   0.421   7.650 -2.5388  2.5995  0.6568
47148SOL    HW246130   1.900   0.345   7.758 -1.5936  0.1605 -0.3557
47149SOL     OW46131   5.940   4.399  10.034 -0.1632  0.3743  0.0202
47149SOL    HW146132   6.009   4.464  10.045  0.3974 -0.2722  0.3721
47149SOL    HW246133   5.899   4.422   9.950 -0.5618  1.7123  0.5450
47150SOL     OW46134   3.162   1.714   0.682  0.4927 -0.3829  0.3369
47150SOL    HW146135   3.231   1.657   0.716 -1.4722 -2.5119  1.0058
47150SOL    HW246136   3.119   1.662   0.614  0.0234  1.2030 -0.6431
47151SOL     OW46137   5.193   6.681   9.815 -0.3838  0.4155 -0.5095
47151SOL    HW146138   5.155   6.723   9.738 -1.7771  1.5923  0.7495
47151SOL    HW246139   5.279   6.652   9.786 -0.0155  2.6559 -1.9448
47152SOL     OW46140   5.827  11.156   2.253  0.4445 -0.2402 -0.3203
47152SOL    HW146141   5.836  11.225   2.187  0.8450  1.8300  1.7620
47152SOL    HW246142   5.916  11.125   2.268  0.4064 -0.4059 -0.4354
47153SOL     OW46143   3.734   9.559   4.549 -0.0019  0.8965  0.7911
47153SOL    HW146144   3.681   9.639   4.551 -0.3666  0.7788 -1.3294
47153SOL    HW246145   3.800   9.576   4.482 -1.0020 -1.0634 -0.8011
47154SOL     OW46146  10.295  10.674   7.227  0.2184 -0.3278 -0.2595
47154SOL    HW146147  10.381  10.696   7.191  1.1804 -3.0889  0.0455
47154SOL    HW246148  10.249  10.629   7.156 -0.3402 -0.2707  0.0593
47155SOL     OW46149   5.520   0.380  10.949  0.0407  0.6290  0.0533
47155SOL    HW146150   5.592   0.321  10.970 -0.0049  0.7316  0.5105
47155SOL    HW246151   5.490   0.413  11.034  0.0985  1.3469 -0.1910
47156SOL     OW46152   6.190   3.828   9.808  0.0905 -0.1133  0.6294
47156SOL    HW146153   6.100   3.861   9.812  0.7674  1.7111  2.5662
47156SOL    HW246154   6.236   3.892   9.753  0.1523 -1.2913 -0.7413
47157SOL     OW46155  11.983   3.128   7.702  0.0228 -0.3473 -1.0178
47157SOL    HW146156  11.914   3.157   7.762 -0.4919 -1.4164 -1.0674
47157SOL    HW246157  12.046   3.200   7.701 -0.7099  0.3228 -0.3692
47158SOL     OW46158  10.461   5.254   6.477 -0.0711 -0.8523 -0.8087
47158SOL    HW146159  10.406   5.188   6.435 -0.2665 -1.0261 -0.2846
47158SOL    HW246160  10.399   5.311   6.522  0.2039 -1.5227  0.4670
47159SOL     OW46161   2.024   8.673  10.910  0.1871  0.0936  0.1168
47159SOL    HW146162   2.110   8.634  10.924  0.3089 -0.1178 -1.1357
47159SOL    HW246163   1.978   8.662  10.994  0.5450 -1.8821  0.0922
47160SOL     OW46164   8.110   5.060   9.855  0.5077 -0.1737 -0.3280
47160SOL    HW146165   8.055   5.130   9.892 -0.1146 -0.8780  0.0977
47160SOL    HW246166   8.199   5.093   9.866  0.2722  0.1722  0.6979
47161SOL     OW46167   1.816  10.316   2.763 -0.1739  0.2087 -0.2934
47161SOL    HW146168   1.776  10.370   2.695 -1.3302 -1.1443 -0.7155
47161SOL    HW246169   1.821  10.373   2.840 -0.8689  1.0709 -0.8806
47162SOL     OW46170   3.862   1.877   2.426 -0.2414  0.4224 -0.5950
47162SOL    HW146171   3.771   1.850   2.427 -0.9832  2.7034 -0.1404
47162SOL    HW246172   3.910   1.799   2.399 -2.1704 -1.1835  0.3690
47163SOL     OW46173   0.995   9.153  10.127  0.0901 -0.2923 -0.0449
47163SOL    HW146174   1.000   9.079  10.067  0.1594 -0.2025 -0.1486
47163SOL    HW246175   1.086   9.179  10.142  0.1851 -1.2563  1.2659
47164SOL     OW46176   9.982   7.664   3.432 -0.1026 -0.5657  0.0719
47164SOL    HW146177   9.981   7.735   3.367 -0.2373 -0.6632 -0.0337
47164SOL    HW246178  10.074   7.649   3.450 -0.0855  0.1091  0.6104
47165SOL     OW46179   1.965   3.163   9.681  0.2876 -0.6964  0.1423
47165SOL    HW146180   1.966   3.068   9.673  1.4404 -0.6283 -0.6552
47165SOL    HW246181   2.001   3.195   9.599  0.5104  0.4208  0.6542
47166SOL     OW46182   7.066  10.554   2.300  0.8193  0.1869 -0.0092
47166SOL    HW146183   7.017  10.528   2.378  1.2063  0.8118  0.4477
47166SOL    HW246184   7.119  10.477   2.278  1.7424  0.4543  1.1671
47167SOL     OW46185   0.299   9.619   0.197 -0.1986 -0.2236  0.1062
47167SOL    HW146186   0.299   9.527   0.173 -0.5515 -0.7857  2.0554
47167SOL    HW246187   0.309   9.619   0.292  0.4487  1.7792  0.0891
47168SOL     OW46188  11.564  10.320   0.013  0.6785 -0.0807  0.0756
47168SOL    HW146189  11.578  10.301  -0.080  2.3063 -2.1728  0.6887
47168SOL    HW246190  11.558  10.234   0.055  1.9067  0.7882  2.1794
47169SOL     OW46191   3.800   4.752   5.635  0.4019  0.0310 -0.2665
47169SOL    HW146192   3.884   4.771   5.593  1.0608 -0.3326  0.8305
47169SOL    HW246193   3.772   4.669   5.595 -1.0569  1.6847 -2.9520
47170SOL     OW46194   5.339   3.581  11.250  0.0443 -0.2972  0.4910
47170SOL    HW146195   5.303   3.513  11.193  0.5428  1.2490 -1.8078
47170SOL    HW246196   5.434   3.570  11.243  0.1233 -0.5245  1.6475
47171SOL     OW46197   3.092   3.244  11.238 -0.4088  0.0186 -0.6985
47171SOL    HW146198   3.095   3.339  11.251  1.6266 -0.2913  1.9098
47171SOL    HW246199   3.012   3.217  11.284  1.4839  0.0847  2.9828
47172SOL     OW46200   2.622   0.382   4.530  0.0625  0.1621 -0.0315
47172SOL    HW146201   2.687   0.446   4.502 -0.8345  1.3432  0.4764
47172SOL    HW246202   2.542   0.408   4.484 -0.2631 -0.7624 -0.0089
47173SOL     OW46203  11.549   8.546   8.367  0.3667  0.2525  0.4880
47173SOL    HW146204  11.467   8.570   8.324 -0.9594 -3.7474  0.3914
47173SOL    HW246205  11.530   8.556   8.461  0.1878  0.3895  0.4396
47174SOL     OW46206   2.661   1.413  10.763 -0.0123 -0.1773  0.3172
47174SOL    HW146207   2.668   1.506  10.785 -0.3208 -0.7085  3.1283
47174SOL    HW246208   2.569   1.400  10.742 -0.0602  0.0731  0.3685
47175SOL     OW46209   2.489   4.807   2.297 -0.0053  0.5114  0.4371
47175SOL    HW146210   2.414   4.858   2.267  1.6157  2.8658  0.1271
47175SOL    HW246211   2.524   4.856   2.371  0.7421 -1.0092  1.1395
47176SOL     OW46212   7.004   6.501  10.814 -0.1847  0.2890  0.0957
47176SOL    HW146213   7.077   6.438  10.817  1.0395  1.6004 -0.7607
47176SOL    HW246214   7.023   6.555  10.738 -1.7569  1.0644  0.2317
47177SOL     OW46215   5.773   7.526   6.152 -0.2283  0.1780  0.5939
47177SOL    HW146216   5.712   7.460   6.118 -0.9916  0.6666  0.9980
47177SOL    HW246217   5.860   7.488   6.137 -0.5505  0.0488 -1.2225
47178SOL     OW46218   6.950   7.860   3.118 -0.4277 -0.2621 -0.1569
47178SOL    HW146219   6.862   7.861   3.156 -0.4884  0.6395 -0.2905
47178SOL    HW246220   7.000   7.922   3.171 -0.0182 -0.3736 -0.4070
47179SOL     OW46221   6.716  11.552   0.033 -0.8979 -0.0332 -1.0912
47179SOL    HW146222   6.662  11.484   0.071 -0.6171  1.8447  3.2483
47179SOL    HW246223   6.804  11.535   0.067 -0.6493  1.9346 -0.6389
47180SOL     OW46224   6.678   3.688  11.455 -0.1559 -0.4745  0.0106
47180SOL    HW146225   6.682   3.783  11.455  0.8111 -0.4267  2.9219
47180SOL    HW246226   6.604   3.667  11.398  0.1171  1.9312 -1.3737
47181SOL     OW46227   6.229  10.365   9.795  0.0304  0.3252 -0.0181
47181SOL    HW146228   6.249  10.275   9.770  1.1613  0.7691 -0.8364
47181SOL    HW246229   6.271  10.418   9.727 -0.4334  1.4717  0.5649
47182SOL     OW46230   5.779   5.057  10.106 -0.0567  0.4992  0.6635
47182SOL    HW146231   5.708   5.040  10.168  0.4183  2.4206  1.8337
47182SOL    HW246232   5.849   5.092  10.160  0.6450  1.5956 -0.8953
47183SOL     OW46233   7.083   7.672   0.042  0.4511  0.0692 -0.3629
47183SOL    HW146234   7.110   7.609   0.109  1.5175  0.0980 -0.7342
47183SOL    HW246235   7.047   7.745   0.091 -1.1317 -0.9550  0.0591
47184SOL     OW46236   8.802   8.555  11.844 -0.6664  0.5426  0.0445
47184SOL    HW146237   8.796   8.480  11.784  0.8335 -0.9927  1.6830
47184SOL    HW246238   8.886   8.596  11.823  0.1219 -0.3218  1.3539
47185SOL     OW46239   3.969   5.713   8.678  0.2863 -0.8462  0.1119
47185SOL    HW146240   3.908   5.642   8.658  1.6992 -2.4139  1.0674
47185SOL    HW246241   4.043   5.699   8.620  0.9628 -0.6871  0.9119
47186SOL     OW46242   7.092  10.586   8.218  0.2224 -0.2275  0.0282
47186SOL    HW146243   7.015  10.546   8.260 -0.1566  0.3712 -0.0770
47186SOL    HW246244   7.158  10.517   8.220 -0.7406 -1.2450 -1.1228
47187SOL     OW46245   1.483   2.049   5.038  0.2617  0.2138  0.8437
47187SOL    HW146246   1.409   2.080   5.091  0.9560 -0.0257  1.9714
47187SOL    HW246247   1.445   2.035   4.951 -0.5868  1.9685  0.8866
47188SOL     OW46248   1.715   4.738   5.926  0.5035 -0.0071  0.5296
47188SOL    HW146249   1.652   4.668   5.908 -1.6876  1.6286  1.2613
47188SOL    HW246250   1.702   4.758   6.019  0.5270  1.7827  0.1907
47189SOL     OW46251   5.862   7.257  11.331  0.7118 -0.2741 -0.3434
47189SOL    HW146252   5.871   7.186  11.394 -1.0264  0.5558  0.9059
47189SOL    HW246253   5.938   7.313  11.347  0.3840 -0.1602  0.9426
47190SOL     OW46254   4.771   0.876  11.693 -0.6866  0.0638 -0.2137
47190SOL    HW146255   4.688   0.854  11.735 -1.1935 -1.8414 -2.0449
47190SOL    HW246256   4.746   0.917  11.611  0.1161 -1.0561 -1.0577
47191SOL     OW46257   8.657   1.917   1.945  0.5301 -0.2593 -0.4580
47191SOL    HW146258   8.746   1.909   1.978 -0.5913  0.3086  3.1096
47191SOL    HW246259   8.656   2.002   1.900  1.1281  1.3115  2.2703
47192SOL     OW46260   6.219   9.788   9.883 -0.0259  0.3896  0.2970
47192SOL    HW146261   6.278   9.787   9.808 -0.5666 -0.6276 -0.1318
47192SOL    HW246262   6.137   9.751   9.850 -0.5939  0.8557  1.1382
47193SOL     OW46263   8.559   4.567   1.300  0.4339  0.3940 -0.1824
47193SOL    HW146264   8.560   4.472   1.305  2.1549  0.4231  0.4178
47193SOL    HW246265   8.467   4.589   1.281 -0.0553 -1.3466  0.0429
47194SOL     OW46266  11.132  10.663   2.560  0.2336 -0.3881  0.2273
47194SOL    HW146267  11.073  10.600   2.519 -0.2804  1.0330 -1.2898
47194SOL    HW246268  11.075  10.732   2.593  1.0170  1.6144 -2.3276
47195SOL     OW46269   3.396   5.506   0.693  0.0922 -0.2590  0.3128
47195SOL    HW146270   3.450   5.463   0.627 -0.1496 -0.0911  0.0016
47195SOL    HW246271   3.401   5.449   0.769 -0.5691 -1.0581 -0.2292
47196SOL     OW46272   5.196   5.220   3.177 -0.0757 -0.0761 -0.1830
47196SOL    HW146273   5.162   5.163   3.109  0.3851 -2.4918  1.4836
47196SOL    HW246274   5.291   5.206   3.176  0.1519  1.2953 -0.2448
47197SOL     OW46275  11.570   8.602   5.903  0.3990  0.0265  0.4252
47197SOL    HW146276  11.569   8.508   5.919  0.3935  0.2314  1.7316
47197SOL    HW246277  11.659   8.620   5.872  0.3859 -0.4071  0.1314
47198SOL     OW46278   9.645   9.167  10.308 -1.1258 -0.4699 -0.3350
47198SOL    HW146279   9.562   9.135  10.343 -1.4062  2.0125  1.5754
47198SOL    HW246280   9.621   9.227  10.238 -0.6997 -2.4521 -2.2955
47199SOL     OW46281   9.462   0.895   2.974 -0.1436 -0.9994 -0.1920
47199SOL    HW146282   9.470   0.969   3.035  0.1101  0.9683 -2.4601
47199SOL    HW246283   9.481   0.818   3.028  0.8341  0.6593  2.0285
47200SOL     OW46284  10.763   3.593   6.451  0.9402 -0.0059  0.2469
47200SOL    HW146285  10.814   3.519   6.485 -0.2536 -1.9148 -1.7953
47200SOL    HW246286  10.823   3.635   6.389  0.5633 -1.5055 -1.2361
47201SOL     OW46287   2.121   2.829   9.388 -0.2626 -0.1236 -0.3593
47201SOL    HW146288   2.171   2.780   9.323 -0.5133 -0.1090 -0.5647
47201SOL    HW246289   2.186   2.882   9.434 -0.1244  0.0915 -0.8006
47202SOL     OW46290   8.101  10.421   1.606  0.1656 -0.2306 -0.3224
47202SOL    HW146291   8.184  10.415   1.560  0.4747  1.7630 -0.0879
47202SOL    HW246292   8.034  10.424   1.537  0.3056 -1.2795 -0.5185
47203SOL     OW46293   6.811   4.142   7.209 -0.3096  0.1980  0.4558
47203SOL    HW146294   6.732   4.196   7.206 -1.0591 -0.6550  2.6045
47203SOL    HW246295   6.877   4.199   7.250  0.3741  1.0422 -1.6907
47204SOL     OW46296   1.279   4.902   0.627  0.1137  0.2358  0.5876
47204SOL    HW146297   1.228   4.969   0.674  2.2859  1.8127  0.8674
47204SOL    HW246298   1.257   4.916   0.535 -0.5142  0.4104  0.7610
47205SOL     OW46299   9.406  10.350   5.629 -0.0656 -0.5224 -0.0383
47205SOL    HW146300   9.393  10.276   5.688  2.3795 -0.5298  0.5584
47205SOL    HW246301   9.499  10.350   5.609 -0.7569 -0.7275 -4.2464
47206SOL     OW46302   1.259   5.037  11.570 -0.4389 -0.3427 -0.2574
47206SOL    HW146303   1.234   4.995  11.652  0.0264  0.2862  0.2186
47206SOL    HW246304   1.325   5.101  11.595 -1.6272  1.1882 -0.8181
47207SOL     OW46305  11.427  11.701  10.500  0.0645  1.0298 -0.4552
47207SOL    HW146306  11.355  11.758  10.473 -0.1839  1.7004  1.4672
47207SOL    HW246307  11.493  11.760  10.537  1.5621  0.4079 -1.9824
47208SOL     OW46308   0.315   7.339   1.749 -0.2882 -0.1530  0.2126
47208SOL    HW146309   0.254   7.381   1.689  1.4003  1.3218 -0.5632
47208SOL    HW246310   0.334   7.254   1.709 -1.9331 -0.7461  0.5888
47209SOL     OW46311   6.093   7.078   8.879 -0.5361  0.1585 -0.3317
47209SOL    HW146312   6.062   7.032   8.800  0.5327 -0.4731 -0.4039
47209SOL    HW246313   6.088   7.012   8.948 -0.0549  0.2597 -0.1986
47210SOL     OW46314   8.537  11.415   4.213 -0.1634  0.0384 -0.5169
47210SOL    HW146315   8.534  11.487   4.276  0.2428  0.4967 -1.0146
47210SOL    HW246316   8.446  11.385   4.206 -0.5514  1.3263 -1.2342
47211SOL     OW46317  11.630  10.447   2.466  0.0971 -0.4691  0.4312
47211SOL    HW146318  11.621  10.540   2.486 -0.5675 -0.7221  1.3466
47211SOL    HW246319  11.555  10.405   2.509 -0.4069 -1.2586 -1.1460
47212SOL     OW46320   9.911   4.740   3.529 -0.4914 -0.1021 -0.6299
47212SOL    HW146321   9.887   4.674   3.464  0.1543 -2.6860  1.5815
47212SOL    HW246322   9.841   4.735   3.594 -1.7729  3.2945 -1.5172
47213SOL     OW46323   2.112  10.315   5.032  0.4796  0.3943  0.3855
47213SOL    HW146324   2.166  10.385   4.996 -1.6221  2.7860  1.5035
47213SOL    HW246325   2.057  10.287   4.959  1.9921 -0.8913 -0.3232
47214SOL     OW46326   9.928  11.310   5.761  0.0534  0.1637  0.1370
47214SOL    HW146327   9.890  11.326   5.847 -0.3902  0.9182 -0.1898
47214SOL    HW246328   9.940  11.397   5.723  0.0813 -0.1658 -0.6340
47215SOL     OW46329   2.702   6.706   3.054 -0.1878  0.0359 -0.4619
47215SOL    HW146330   2.703   6.610   3.053  2.0513 -0.0100 -0.4717
47215SOL    HW246331   2.634   6.729   3.116 -1.0868 -1.5419 -0.8001
47216SOL     OW46332   6.383   4.350   0.967  0.1920 -0.2912 -0.0741
47216SOL    HW146333   6.314   4.355   1.033 -0.2848 -1.8056 -0.4197
47216SOL    HW246334   6.451   4.295   1.006  1.2413  1.1441  0.2463
47217SOL     OW46335   3.486   3.087   4.234  0.5983  0.0255 -0.3771
47217SOL    HW146336   3.517   3.029   4.304 -2.0186  1.3668  2.0890
47217SOL    HW246337   3.524   3.172   4.255  0.3140  0.3112 -0.9995
47218SOL     OW46338   3.695   9.821   4.870  0.1941  0.6706  0.4325
47218SOL    HW146339   3.751   9.879   4.817 -0.7127  1.0213 -0.1627
47218SOL    HW246340   3.684   9.868   4.953 -2.2581  2.4603 -0.7727
47219SOL     OW46341   2.605   1.365   6.211  0.3661  0.5801  0.1652
47219SOL    HW146342   2.667   1.434   6.187  1.0348  0.2903  0.9904
47219SOL    HW246343   2.533   1.375   6.149  0.9256  1.3588 -0.3892
47220SOL     OW46344   4.357  11.226   3.759 -0.2739 -0.3383 -0.0502
47220SOL    HW146345   4.400  11.260   3.680  1.9820  0.2735  1.3514
47220SOL    HW246346   4.414  11.156   3.789 -1.0615 -0.5222  1.0902
47221SOL     OW46347  11.571  10.086   6.349  0.2187 -0.1584  0.0796
47221SOL    HW146348  11.658  10.049   6.365 -0.1584 -0.5581  1.3317
47221SOL    HW246349  11.587  10.162   6.293  1.2415 -0.9090 -0.6878
47222SOL     OW46350   8.761   0.678  10.453 -0.0011  0.0097 -0.1908
47222SOL    HW146351   8.812   0.660  10.532  0.1643 -1.2677 -0.5664
47222SOL    HW246352   8.804   0.627  10.384 -1.5413 -0.8150 -0.5957
47223SOL     OW46353   2.043   0.138  10.155 -0.2807  0.6857  0.0545
47223SOL    HW146354   2.031   0.222  10.200  1.2066 -0.6933  3.3410
47223SOL    HW246355   2.130   0.109  10.181 -0.4453 -1.5626 -1.5907
47224SOL     OW46356   7.119  11.659   3.442 -0.1012 -0.0619 -0.1389
47224SOL    HW146357   7.071  11.621   3.368  0.4386  0.7069 -0.9023
47224SOL    HW246358   7.127  11.752   3.420 -2.0341  0.7234  2.0124
47225SOL     OW46359   7.953   4.434   4.461 -0.6699 -0.6768  0.2350
47225SOL    HW146360   7.876   4.389   4.498  0.1056 -1.6677  0.6946
47225SOL    HW246361   8.017   4.364   4.448  0.4055  0.2319  0.4798
47226SOL     OW46362   0.528   0.528   6.697  0.1326 -0.6639 -0.3101
47226SOL    HW146363   0.584   0.513   6.621  1.8212  0.1506  0.7085
47226SOL    HW246364   0.509   0.440   6.730 -0.4836 -1.0112 -1.5599
47227SOL     OW46365   5.765   5.796   4.258  0.0718 -0.0000 -0.6419
47227SOL    HW146366   5.701   5.724   4.261  0.6132 -0.4693  0.0281
47227SOL    HW246367   5.737   5.856   4.328 -0.3786  0.4443 -1.1993
47228SOL     OW46368   9.996   0.518   3.949  0.1184 -0.2025  0.1352
47228SOL    HW146369  10.085   0.484   3.957  1.0220  1.6121 -1.3347
47228SOL    HW246370   9.987   0.539   3.856 -2.0516 -0.8226  0.1694
47229SOL     OW46371   2.247   8.666   8.918  0.5782  0.0312 -0.3020
47229SOL    HW146372   2.313   8.632   8.858  0.7153 -0.7731  0.2943
47229SOL    HW246373   2.291   8.669   9.003  0.6621  1.9761 -0.3618
47230SOL     OW46374  10.934   7.333   2.270  0.6205  0.7794  0.1779
47230SOL    HW146375  11.020   7.352   2.232  0.7856  0.5984  0.4517
47230SOL    HW246376  10.915   7.243   2.242  0.2590  1.0181 -0.3551
47231SOL     OW46377  11.230   3.545   7.447 -0.0797 -0.2079  0.3983
47231SOL    HW146378  11.214   3.574   7.537 -1.8533 -1.5998  0.5795
47231SOL    HW246379  11.292   3.473   7.456  1.0669  0.7399  0.3204
47232SOL     OW46380   8.918  10.973   7.970 -0.7399 -0.2696  0.0530
47232SOL    HW146381   8.940  10.880   7.969  1.2330  0.1619 -0.0327
47232SOL    HW246382   8.936  11.001   8.060  1.3370  0.5786 -0.5749
47233SOL     OW46383   2.937   7.636   1.433  0.6899  0.3942  0.3337
47233SOL    HW146384   2.880   7.561   1.448  0.3169  0.8338  1.2034
47233SOL    HW246385   2.916   7.696   1.505 -0.6525  2.3142 -1.5349
47234SOL     OW46386   2.207   9.727   3.467 -0.1294  0.4546 -0.2873
47234SOL    HW146387   2.278   9.704   3.408  0.1608 -0.6452  0.4745
47234SOL    HW246388   2.232   9.691   3.552 -0.5186  2.0366  0.5502
47235SOL     OW46389  11.832   7.466   1.231 -0.3596 -0.2794  0.1735
47235SOL    HW146390  11.799   7.515   1.156 -0.0072 -0.5870 -0.1868
47235SOL    HW246391  11.756   7.418   1.264 -0.4679 -0.2943 -0.1036
47236SOL     OW46392   3.897   4.184   0.598  0.2342 -0.7261  0.3496
47236SOL    HW146393   3.856   4.186   0.685  1.7759 -2.6864  1.1928
47236SOL    HW246394   3.971   4.244   0.604 -0.4053  0.1349 -0.0687
47237SOL     OW46395  10.799   1.230   0.370  0.2167  0.5235  0.0159
47237SOL    HW146396  10.883   1.233   0.417  0.1046  0.3941  0.2224
47237SOL    HW246397  10.766   1.142   0.386  0.6305  0.1481 -1.0920
47238SOL     OW46398   9.149   4.642   1.195  0.7321  0.1153 -0.1223
47238SOL    HW146399   9.127   4.678   1.281 -2.8596  1.1442 -1.2841
47238SOL    HW246400   9.177   4.718   1.144 -0.8484  0.2775 -0.8322
47239SOL     OW46401   9.663   2.888   1.645  0.0880 -0.0497  0.1257
47239SOL    HW146402   9.707   2.908   1.562 -1.3890 -0.4188 -0.7874
47239SOL    HW246403   9.726   2.833   1.692  1.3303  0.9268 -0.3274
47240SOL     OW46404   4.288   9.505   9.928 -0.4110 -0.2682 -0.0675
47240SOL    HW146405   4.307   9.449  10.004  0.4456  1.7065  1.2473
47240SOL    HW246406   4.357   9.571   9.929 -0.2538 -0.2907 -2.7461
47241SOL     OW46407   1.017   5.491   2.754 -0.0474 -0.5668 -0.1089
47241SOL    HW146408   1.079   5.468   2.823  3.0395  2.8518 -1.3954
47241SOL    HW246409   1.063   5.471   2.673 -0.9916  1.1018 -1.1207
47242SOL     OW46410   9.924   0.177   2.875  0.2556 -0.0123  0.1558
47242SOL    HW146411   9.952   0.262   2.842 -1.4231 -0.3222 -2.4037
47242SOL    HW246412   9.998   0.119   2.860  1.3020  0.8761  1.6407
47243SOL     OW46413   9.140  11.081   6.981 -0.1367 -0.1300  0.0876
47243SOL    HW146414   9.133  11.132   6.900  1.5644  2.8739  1.6519
47243SOL    HW246415   9.062  11.104   7.031  0.5389  0.8908  0.7145
47244SOL     OW46416   7.107   3.197   0.260  0.4594  0.5360  0.4955
47244SOL    HW146417   7.141   3.221   0.346  1.5674  1.1799 -0.0952
47244SOL    HW246418   7.139   3.265   0.202  2.7961 -1.6871 -1.0710
47245SOL     OW46419  11.058   7.425   5.031 -0.0124  0.3348 -0.4236
47245SOL    HW146420  10.966   7.449   5.039 -0.3841 -0.9957 -0.4525
47245SOL    HW246421  11.078   7.437   4.938 -1.0002 -2.0817 -1.0224
47246SOL     OW46422   7.954   1.606   7.228 -0.0261  0.0143 -0.1704
47246SOL    HW146423   7.875   1.557   7.207  0.6855 -1.2254 -0.0255
47246SOL    HW246424   8.018   1.579   7.162  1.3719 -1.8149  1.8087
47247SOL     OW46425   1.363   0.945   7.015  0.1792 -0.2164 -0.0614
47247SOL    HW146426   1.299   1.011   7.041 -2.0465 -2.3028  0.0865
47247SOL    HW246427   1.359   0.879   7.085  0.1920 -1.9111 -1.5904
47248SOL     OW46428   6.643   3.860   9.967 -0.0626 -0.4418 -0.5432
47248SOL    HW146429   6.693   3.824  10.040 -0.1661  1.3801  0.4952
47248SOL    HW246430   6.573   3.797   9.951  0.2998 -1.1414  0.5704
47249SOL     OW46431  10.737   9.102   0.505  0.4247  0.5990  0.3278
47249SOL    HW146432  10.698   9.147   0.580  0.6245 -0.8211  1.3393
47249SOL    HW246433  10.742   9.168   0.436 -3.0084  1.0537  0.3640
47250SOL     OW46434   7.285   2.303   6.078 -0.2859 -0.6605 -0.1446
47250SOL    HW146435   7.223   2.245   6.034 -0.5334  1.0700 -2.1916
47250SOL    HW246436   7.286   2.272   6.169 -4.5459 -0.4491  0.1739
47251SOL     OW46437   3.738   7.441   4.182  0.2081 -0.4707  0.0101
47251SOL    HW146438   3.655   7.458   4.137  0.2103  0.5685  0.3780
47251SOL    HW246439   3.752   7.347   4.171 -0.4882 -0.4800 -0.9628
47252SOL     OW46440   8.450   7.723   0.167 -0.8147 -0.1955 -0.5252
47252SOL    HW146441   8.507   7.653   0.199 -1.9471 -0.7573  0.3615
47252SOL    HW246442   8.391   7.680   0.105 -0.1459  0.4305 -1.6315
47253SOL     OW46443   4.578   8.841   6.243  0.0019 -0.3020 -0.0870
47253SOL    HW146444   4.562   8.762   6.190  0.4592 -0.6874  0.3380
47253SOL    HW246445   4.608   8.807   6.328  0.3717  0.3338  0.0416
47254SOL     OW46446   6.255   9.158  11.312 -0.0141  0.1146 -0.0380
47254SOL    HW146447   6.160   9.147  11.320 -0.3200  1.1767 -1.6670
47254SOL    HW246448   6.288   9.070  11.296 -0.8920 -0.1106 -0.6821
47255SOL     OW46449   7.259   0.345   6.881 -0.1871 -0.0434 -0.0311
47255SOL    HW146450   7.276   0.438   6.867  0.3771 -0.2547 -0.7871
47255SOL    HW246451   7.224   0.341   6.970  1.1453  0.7371  0.5607
47256SOL     OW46452   8.163   5.759   8.431  0.5096 -0.0310 -0.1489
47256SOL    HW146453   8.249   5.779   8.395  0.5200 -1.1263 -0.7651
47256SOL    HW246454   8.107   5.749   8.354  0.2823 -1.3078  0.1647
47257SOL     OW46455   6.486   9.174   4.838  0.3411  0.4256 -0.3378
47257SOL    HW146456   6.528   9.253   4.804 -0.4782  0.8419 -0.4045
47257SOL    HW246457   6.459   9.127   4.759 -0.4935  0.8095 -0.2914
47258SOL     OW46458  11.149   5.803   2.635  0.2059 -0.3491 -0.2867
47258SOL    HW146459  11.217   5.821   2.570  1.1225 -1.3122  0.3615
47258SOL    HW246460  11.072   5.849   2.603  0.2965 -1.6565 -2.6444
47259SOL     OW46461  10.651  10.194  11.361  0.1288  0.2004  0.2964
47259SOL    HW146462  10.568  10.210  11.407  1.2937  1.1613  2.1842
47259SOL    HW246463  10.638  10.235  11.275 -2.0774 -1.5540 -0.3082
47260SOL     OW46464   8.953  10.057   7.853 -0.1468  0.1573  0.7562
47260SOL    HW146465   8.975  10.086   7.942 -0.6442  0.8377  0.6651
47260SOL    HW246466   8.901  10.128   7.817 -0.7224 -0.5065  0.2374
47261SOL     OW46467   1.288   3.412  11.234 -0.3799  0.9189 -0.3372
47261SOL    HW146468   1.202   3.373  11.248 -0.4766  0.1894 -2.6306
47261SOL    HW246469   1.348   3.351  11.277 -0.6987 -0.9002 -2.2915
47262SOL     OW46470   5.332   9.957   6.159  0.1144 -0.1002 -0.2825
47262SOL    HW146471   5.380   9.995   6.232  0.0802  0.2887 -0.4585
47262SOL    HW246472   5.386   9.978   6.082  0.3729 -0.8787 -0.3279
47263SOL     OW46473   6.714   4.654   4.862 -0.0701  0.3225  1.0457
47263SOL    HW146474   6.626   4.635   4.829 -0.8378  0.2629  3.0088
47263SOL    HW246475   6.738   4.736   4.820 -0.8591  0.0989  0.1191
47264SOL     OW46476   2.136  10.413  11.357  0.2341 -0.5709  0.0187
47264SOL    HW146477   2.097  10.339  11.402 -1.1130 -0.5441 -1.0461
47264SOL    HW246478   2.068  10.481  11.358  0.4330 -0.3135 -1.3469
47265SOL     OW46479  10.985   3.076   0.516  0.3853 -0.7634 -0.0218
47265SOL    HW146480  11.039   3.077   0.437  1.4658 -1.9195  0.6501
47265SOL    HW246481  10.903   3.118   0.490  0.6690 -1.1988 -1.7772
47266SOL     OW46482  10.739   6.841   8.148 -0.2511  0.2151 -0.1830
47266SOL    HW146483  10.666   6.860   8.206 -1.6270 -1.4351 -1.3106
47266SOL    HW246484  10.766   6.752   8.170  0.5520  0.3183 -0.6877
47267SOL     OW46485   4.271   1.076  10.177  0.2010 -0.5194  0.0469
47267SOL    HW146486   4.212   1.010  10.214 -0.2487  0.3207  0.8671
47267SOL    HW246487   4.328   1.026  10.118 -2.1110 -1.2076 -1.7972
47268SOL     OW46488   9.573   5.249   3.528 -0.4125  0.0244 -0.4521
47268SOL    HW146489   9.535   5.190   3.593 -0.4370  0.1127 -0.3848
47268SOL    HW246490   9.667   5.229   3.529 -0.1254  1.2371  0.9021
47269SOL     OW46491   6.754   0.561   4.107 -0.1976  0.1014  0.2029
47269SOL    HW146492   6.687   0.500   4.137 -0.9667  0.3819 -0.8957
47269SOL    HW246493   6.812   0.572   4.183 -0.8123 -0.9237  0.8441
47270SOL     OW46494   9.891  10.473  11.030 -0.4675  0.0704 -0.0127
47270SOL    HW146495   9.839  10.540  11.075  0.2810  1.4847 -1.1308
47270SOL    HW246496   9.977  10.513  11.020  0.4060 -1.6347  0.4757
47271SOL     OW46497  11.365   8.288  11.395  0.3098  0.2430  0.0621
47271SOL    HW146498  11.288   8.231  11.402  0.3076  0.3118  0.6114
47271SOL    HW246499  11.418   8.247  11.327 -0.0171 -0.0335 -0.0333
47272SOL     OW46500   9.205   5.038   2.433 -0.4898  0.5088 -0.1723
47272SOL    HW146501   9.159   5.118   2.408 -0.6640  0.3388 -0.3997
47272SOL    HW246502   9.144   4.991   2.490 -0.4763  0.4306 -0.2218
47273SOL     OW46503   3.582   9.606   1.055  0.1210 -0.2149  0.1197
47273SOL    HW146504   3.586   9.585   0.962  0.5709  0.1348  0.0591
47273SOL    HW246505   3.552   9.697   1.058  1.8977  0.3909  0.2428
47274SOL     OW46506   2.213   7.962   6.396 -0.0198  0.5940 -0.2546
47274SOL    HW146507   2.131   7.921   6.369  0.0463  0.8001 -0.7870
47274SOL    HW246508   2.223   8.037   6.337  1.8296 -0.8707 -1.9809
47275SOL     OW46509  11.660   9.392   5.659  0.0512 -0.1574 -0.1543
47275SOL    HW146510  11.746   9.368   5.625  0.1770  1.0994 -0.7868
47275SOL    HW246511  11.674   9.476   5.703 -0.8636  0.0824 -0.2996
47276SOL     OW46512   3.161   7.428   0.536 -0.2901  0.3801 -0.0555
47276SOL    HW146513   3.108   7.438   0.615  0.1601  0.0991  0.2852
47276SOL    HW246514   3.097   7.429   0.465 -0.7407  0.2251  0.3381
47277SOL     OW46515   2.799  10.067  11.418  0.7325 -0.0784 -0.5476
47277SOL    HW146516   2.749  10.123  11.359  1.1740  2.5340  1.3608
47277SOL    HW246517   2.757   9.981  11.413 -1.6344  1.0734 -1.6993
47278SOL     OW46518   2.812   0.730  10.533  0.0661 -0.7040  0.4739
47278SOL    HW146519   2.821   0.793  10.604 -1.3895 -1.8646  1.7590
47278SOL    HW246520   2.896   0.683  10.530  0.9999  0.9292 -0.2107
47279SOL     OW46521   0.245   0.239   0.221 -0.6775  0.5788 -1.0239
47279SOL    HW146522   0.294   0.159   0.203  0.2668  0.9070 -0.0305
47279SOL    HW246523   0.154   0.210   0.232 -0.1387 -0.6004  0.7778
47280SOL     OW46524   8.461   5.269   4.552 -0.1877 -0.4601 -0.5037
47280SOL    HW146525   8.499   5.344   4.506 -1.1547  0.5441  0.2749
47280SOL    HW246526   8.368   5.289   4.559 -0.5509 -1.9643 -0.6697
47281SOL     OW46527  10.020   0.234   7.030  0.2283  0.2353 -0.1311
47281SOL    HW146528  10.023   0.159   6.971 -2.2084 -2.0884  2.3596
47281SOL    HW246529  10.096   0.223   7.087 -1.8210 -2.6325  2.4216
47282SOL     OW46530   8.342   5.063   2.711 -0.1885 -0.1097 -0.6305
47282SOL    HW146531   8.372   5.116   2.637 -0.1442 -0.3665 -0.7992
47282SOL    HW246532   8.303   5.126   2.771  1.7709  0.4358  0.1725
47283SOL     OW46533   0.569  11.037   6.295  0.0284 -0.1916  0.1405
47283SOL    HW146534   0.492  10.985   6.273  0.9313 -1.6943  0.3808
47283SOL    HW246535   0.538  11.127   6.297 -1.5760 -0.7047 -0.3810
47284SOL     OW46536   3.918   8.991  10.121 -0.1102  0.1960  0.3945
47284SOL    HW146537   3.930   9.076  10.078  1.6734 -0.0236  0.3951
47284SOL    HW246538   3.866   9.011  10.199 -0.2937  1.1853  0.0317
47285SOL     OW46539   4.868   2.720   0.556  0.3720  0.1452 -0.5848
47285SOL    HW146540   4.914   2.799   0.585 -2.4824  1.0803  1.8686
47285SOL    HW246541   4.863   2.665   0.634  0.0019 -1.2865 -1.5883
47286SOL     OW46542   2.484   0.636   5.138 -0.5075  0.1070 -0.7614
47286SOL    HW146543   2.427   0.711   5.122  0.5950  1.1472  0.0058
47286SOL    HW246544   2.464   0.609   5.227 -0.8968 -0.5221 -1.0321
47287SOL     OW46545   3.125  11.139   9.349 -0.1863  0.1773  0.2409
47287SOL    HW146546   3.219  11.149   9.335 -0.0971  0.9598  1.3310
47287SOL    HW246547   3.085  11.206   9.294 -0.1202 -0.1195 -0.1801
47288SOL     OW46548   9.564  11.580   0.265  0.4138 -0.4619 -0.0054
47288SOL    HW146549   9.620  11.559   0.190 -1.7089  0.5470 -1.9882
47288SOL    HW246550   9.626  11.593   0.338  2.6065 -0.8824 -1.6780
47289SOL     OW46551   0.064  10.461  11.486  0.1661 -0.8384  0.1887
47289SOL    HW146552   0.067  10.489  11.578 -1.4352  2.1310 -0.5388
47289SOL    HW246553   0.132  10.513  11.443 -2.5081  1.8946 -1.1116
47290SOL     OW46554  11.025   5.804  10.036 -0.2951 -0.0468 -0.0894
47290SOL    HW146555  11.037   5.855  10.116 -0.9486 -1.8743  1.2469
47290SOL    HW246556  10.942   5.758  10.049  0.7671 -2.3062 -0.6743
47291SOL     OW46557   7.555   6.837   7.525 -0.0684  0.1705 -0.1060
47291SOL    HW146558   7.528   6.921   7.488 -0.0055 -0.2933 -1.2446
47291SOL    HW246559   7.635   6.857   7.573  1.0666  0.4466 -2.0120
47292SOL     OW46560  10.416   5.537  10.894 -0.2043 -0.0608 -0.6407
47292SOL    HW146561  10.510   5.536  10.880 -0.2168  1.0168 -0.9473
47292SOL    HW246562  10.378   5.521  10.807 -0.2709  3.5187 -1.4482
47293SOL     OW46563   0.573  11.529   9.529  0.1684 -0.2749  0.4431
47293SOL    HW146564   0.506  11.581   9.573  0.6859  0.8123 -0.0158
47293SOL    HW246565   0.623  11.593   9.477  1.3834 -1.0951  0.5575
47294SOL     OW46566   7.115   6.418   3.507 -0.2212 -0.5732 -0.4433
47294SOL    HW146567   7.045   6.432   3.571 -0.8095 -0.3075 -1.1411
47294SOL    HW246568   7.172   6.495   3.517 -0.0759 -0.7357  0.0423
47295SOL     OW46569   0.983   0.823   9.975 -0.1657  0.1833 -0.4039
47295SOL    HW146570   0.923   0.751   9.954 -0.0874  0.1462 -0.5020
47295SOL    HW246571   1.065   0.779   9.999 -0.0901  0.2431 -0.5549
47296SOL     OW46572   9.782   4.289  11.634  0.0388 -0.2540  0.6105
47296SOL    HW146573   9.734   4.327  11.708 -0.1272 -1.2027  1.0111
47296SOL    HW246574   9.858   4.346  11.623 -0.1625  0.1478  1.2328
47297SOL     OW46575   9.379   8.307   0.642  0.8801 -0.4714  0.1794
47297SOL    HW146576   9.355   8.392   0.678 -4.7325 -0.9530 -1.5263
47297SOL    HW246577   9.375   8.247   0.717  0.7062  0.1736  0.6941
47298SOL     OW46578   1.705   2.068   7.808  0.3387  0.2335 -0.4732
47298SOL    HW146579   1.717   1.998   7.873  0.5178  1.2856  0.6531
47298SOL    HW246580   1.733   2.148   7.853 -0.6713  1.1701 -1.4448
47299SOL     OW46581   2.828   8.372   5.216  0.2329 -0.0637 -0.3835
47299SOL    HW146582   2.913   8.380   5.173  1.3371  0.0737  1.7116
47299SOL    HW246583   2.809   8.278   5.215 -0.4124  0.0464 -2.2811
47300SOL     OW46584   3.497   3.062   5.592 -0.3376  0.4138  0.3602
47300SOL    HW146585   3.466   2.972   5.580  0.8295  0.0774 -0.3606
47300SOL    HW246586   3.574   3.054   5.649 -0.5194  1.0158  0.7006
47301SOL     OW46587   0.876   9.174   5.907 -0.0324 -0.6219  0.0996
47301SOL    HW146588   0.824   9.192   5.829  0.6412 -0.6305 -0.3653
47301SOL    HW246589   0.823   9.206   5.980 -0.7867 -0.8535 -0.3350
47302SOL     OW46590   2.070   0.453   9.357 -0.2874  0.1156 -0.1553
47302SOL    HW146591   2.102   0.445   9.447  3.0372 -0.6703 -1.2545
47302SOL    HW246592   2.016   0.375   9.343 -0.1705 -0.1677  0.9240
47303SOL     OW46593   2.741   7.677   4.668  0.0067 -0.4763  0.1969
47303SOL    HW146594   2.817   7.702   4.615  0.1012 -1.5586 -0.1986
47303SOL    HW246595   2.684   7.630   4.608  0.1428 -1.7742  1.0420
47304SOL     OW46596  11.995   2.251   5.165 -0.0817  0.2605 -0.8184
47304SOL    HW146597  11.954   2.188   5.106 -1.4313  0.6138 -0.2955
47304SOL    HW246598  12.052   2.198   5.221  0.7734 -0.1458 -2.0250
47305SOL     OW46599   6.352   1.673   9.112  0.0511  0.0315 -0.6804
47305SOL    HW146600   6.258   1.689   9.101 -0.0816  1.2902  1.6233
47305SOL    HW246601   6.357   1.596   9.170  0.5024 -0.9856 -2.0265
47306SOL     OW46602   2.280   2.301   9.415 -0.1969  0.1418 -0.5279
47306SOL    HW146603   2.227   2.309   9.335  0.2116 -1.1284 -0.9549
47306SOL    HW246604   2.350   2.365   9.403 -0.4299  0.3214 -0.9668
47307SOL     OW46605  11.434   2.457  10.452  0.1324 -0.3925  0.1467
47307SOL    HW146606  11.392   2.400  10.388 -1.2137  2.5688 -1.8712
47307SOL    HW246607  11.521   2.474  10.416 -0.9442  2.0154 -1.6260
47308SOL     OW46608   6.389   1.219   4.931 -0.2631 -0.8294  0.1935
47308SOL    HW146609   6.347   1.304   4.921 -0.1087 -0.7687  0.0631
47308SOL    HW246610   6.336   1.159   4.879 -0.6206 -0.8947  0.6286
47309SOL     OW46611   2.513   7.037   9.703  0.4727  0.3780 -0.2639
47309SOL    HW146612   2.489   6.947   9.727 -0.3897  0.8507  0.7056
47309SOL    HW246613   2.609   7.035   9.698  0.5509 -0.3179  0.9855
47310SOL     OW46614   0.980   3.380  11.976  0.4628 -0.2886  0.1255
47310SOL    HW146615   0.923   3.305  11.991  1.6428 -1.2230  0.0835
47310SOL    HW246616   1.010   3.406  12.063  0.0749  0.1266  0.1385
47311SOL     OW46617   5.995  10.208  11.845 -0.5269 -0.0344 -0.4375
47311SOL    HW146618   6.028  10.297  11.829 -0.2827 -0.3310 -1.7084
47311SOL    HW246619   6.069  10.151  11.826 -1.2499 -0.6110 -1.6174
47312SOL     OW46620  10.609   7.712   2.124 -1.0754 -0.0084  0.9711
47312SOL    HW146621  10.698   7.681   2.103 -1.7316 -2.0573  0.9902
47312SOL    HW246622  10.622   7.769   2.200  0.5100  1.9826 -0.6750
47313SOL     OW46623   1.271   7.427   0.640  0.5005 -0.0874 -0.2460
47313SOL    HW146624   1.329   7.492   0.679 -0.3820 -0.3847  1.6330
47313SOL    HW246625   1.329   7.354   0.617  1.1055  0.2755  0.1122
47314SOL     OW46626   1.215   5.299   2.915  0.6871  0.1138 -0.1308
47314SOL    HW146627   1.286   5.361   2.933  1.7168 -0.9087 -0.5531
47314SOL    HW246628   1.260   5.219   2.888 -0.6447 -0.5328 -0.4816
47315SOL     OW46629   4.353   8.774   1.475 -0.4045  0.1065  0.7171
47315SOL    HW146630   4.294   8.729   1.415  1.0739 -0.3920 -0.4453
47315SOL    HW246631   4.302   8.786   1.555 -1.6708 -1.3436  0.1819
47316SOL     OW46632   2.706   6.493   6.132  0.2639 -0.0021 -0.0756
47316SOL    HW146633   2.689   6.516   6.224  1.1438  1.6749 -0.2815
47316SOL    HW246634   2.673   6.568   6.082  0.6632 -0.4630 -1.0540
47317SOL     OW46635   6.254   9.735   3.658 -0.7889 -0.2892 -0.4261
47317SOL    HW146636   6.198   9.699   3.726 -0.4857 -1.1663 -0.6340
47317SOL    HW246637   6.322   9.669   3.645  1.2353  1.3891  0.9377
47318SOL     OW46638   7.969   9.664   6.327 -0.1796 -0.4456 -0.4351
47318SOL    HW146639   7.909   9.733   6.358 -0.4995 -1.0673  0.3713
47318SOL    HW246640   7.978   9.680   6.234 -3.0316 -1.3707 -0.9741
47319SOL     OW46641   1.418  11.316   1.655  0.4687  0.3098 -0.1757
47319SOL    HW146642   1.451  11.231   1.627 -1.7765 -0.7196  0.1507
47319SOL    HW246643   1.440  11.375   1.582 -1.5489 -1.4335 -2.3744
47320SOL     OW46644   7.718  10.866  10.080  0.1813 -0.1293 -0.3892
47320SOL    HW146645   7.773  10.858  10.158  1.3389  0.5048 -1.1223
47320SOL    HW246646   7.738  10.788  10.028 -0.8458 -0.7287  0.0777
47321SOL     OW46647   3.452   2.131   3.468  0.0975 -0.7008  0.0427
47321SOL    HW146648   3.423   2.140   3.377 -0.2670 -1.9550  0.0035
47321SOL    HW246649   3.371   2.114   3.517  0.1636  0.8986  0.7782
47322SOL     OW46650   8.968   6.866   4.735  0.1491  0.3279  0.4269
47322SOL    HW146651   8.881   6.902   4.752 -0.0856 -0.0034 -0.0534
47322SOL    HW246652   9.027   6.925   4.782 -0.1505  1.7890 -0.9219
47323SOL     OW46653   7.788   4.585   4.310 -0.0346 -0.3198 -0.2384
47323SOL    HW146654   7.830   4.507   4.345  0.8219  0.7678  1.3298
47323SOL    HW246655   7.705   4.591   4.358  0.9961  0.9954  1.5431
47324SOL     OW46656   9.827   7.576   5.465  0.0751 -0.6611  0.4688
47324SOL    HW146657   9.839   7.515   5.537  3.4779 -0.0652  0.5722
47324SOL    HW246658   9.838   7.662   5.504  0.8970 -0.2755 -0.5567
47325SOL     OW46659   0.380   8.522   5.365  0.0841 -0.5575 -0.3790
47325SOL    HW146660   0.342   8.438   5.340  1.0499 -0.8054 -1.0866
47325SOL    HW246661   0.475   8.506   5.365  0.2213 -0.6777  3.8585
47326SOL     OW46662  10.888  11.288   1.643  0.1081 -0.1410 -0.7086
47326SOL    HW146663  10.899  11.240   1.725  0.2145  0.8301 -0.1435
47326SOL    HW246664  10.814  11.346   1.658  0.8381  0.8747 -0.8912
47327SOL     OW46665   3.552   0.763   9.259  0.1201 -0.3765 -0.2242
47327SOL    HW146666   3.628   0.807   9.296  1.0294 -0.9044 -1.4157
47327SOL    HW246667   3.554   0.675   9.298  0.9342 -0.8489 -1.2862
47328SOL     OW46668   2.504   0.260   7.021 -0.2979 -0.4082  0.3987
47328SOL    HW146669   2.454   0.330   6.979 -0.2429 -1.0028 -0.6977
47328SOL    HW246670   2.502   0.281   7.114  0.2459  1.3950  0.0376
47329SOL     OW46671   9.868   9.544   8.915 -0.3563  0.3572  0.4284
47329SOL    HW146672   9.959   9.573   8.908  0.3202 -1.6447  0.1745
47329SOL    HW246673   9.858   9.519   9.007 -0.7443  0.8825  0.5267
47330SOL     OW46674   4.193  10.082   0.877 -0.0739  0.3162  0.2320
47330SOL    HW146675   4.235  10.167   0.881  0.6952 -0.0463  0.0223
47330SOL    HW246676   4.264  10.020   0.859 -0.6762 -0.3194 -0.0459
47331SOL     OW46677   7.881   1.237   5.043 -0.2412 -0.4064 -0.1946
47331SOL    HW146678   7.940   1.209   5.112  0.7891  3.0988  0.5177
47331SOL    HW246679   7.931   1.226   4.962  0.6597  0.6430  0.2062
47332SOL     OW46680   6.722   8.381   2.190 -0.5269  0.7214 -0.4622
47332SOL    HW146681   6.694   8.434   2.115 -1.0090 -0.0983 -0.8791
47332SOL    HW246682   6.653   8.316   2.200  0.1053  0.1020 -0.0285
47333SOL     OW46683   2.798   2.290   5.640 -0.0427 -0.5835  0.5915
47333SOL    HW146684   2.826   2.358   5.701 -0.6088  0.2995 -0.1150
47333SOL    HW246685   2.764   2.221   5.696  1.2531 -0.6402  1.3544
47334SOL     OW46686   6.453  11.101   0.170  0.4271 -0.4960  0.7836
47334SOL    HW146687   6.529  11.147   0.135 -0.4524  0.4593  0.0617
47334SOL    HW246688   6.475  11.083   0.261  2.0231 -1.3778  0.2616
47335SOL     OW46689   7.035   8.870   1.063 -0.1042 -0.0983  0.1041
47335SOL    HW146690   6.989   8.793   1.028  1.1915 -0.1792 -1.5035
47335SOL    HW246691   7.070   8.840   1.147 -1.3451 -0.6072  0.4673
47336SOL     OW46692   3.158   3.613   6.798  0.4238  0.0573  0.2402
47336SOL    HW146693   3.234   3.646   6.751  0.3807 -2.1489 -1.4968
47336SOL    HW246694   3.195   3.561   6.870  0.4879  1.0449  0.9537
47337SOL     OW46695  10.285   0.457   6.887 -0.8169 -0.2156 -0.2935
47337SOL    HW146696  10.351   0.468   6.818 -1.4797  0.2189 -0.8715
47337SOL    HW246697  10.202   0.477   6.844 -1.1840  0.6385  0.7655
47338SOL     OW46698   6.507   6.708  11.191  0.3026 -0.2223 -0.2767
47338SOL    HW146699   6.457   6.723  11.111 -2.1674 -0.0125  1.1937
47338SOL    HW246700   6.541   6.619  11.182  1.2491  0.2763 -2.1017
47339SOL     OW46701   5.437   5.428   4.927  0.2706  0.6063  0.0797
47339SOL    HW146702   5.388   5.360   4.880 -0.9301 -0.3514  2.4959
47339SOL    HW246703   5.479   5.381   4.999  0.4996  2.2264  1.0535
47340SOL     OW46704   5.852   8.342   2.536  0.3911  0.4573 -0.4034
47340SOL    HW146705   5.860   8.353   2.631 -0.9364 -0.6892 -0.1214
47340SOL    HW246706   5.837   8.430   2.503  1.1210  0.9067  0.4146
47341SOL     OW46707   2.283   0.176   3.118 -0.2566 -0.3620  0.0156
47341SOL    HW146708   2.219   0.107   3.135  0.4998 -0.6231  2.0701
47341SOL    HW246709   2.270   0.198   3.026 -0.4256 -3.3391 -0.7666
47342SOL     OW46710  11.946  11.024   1.028  0.3175 -0.4227  0.6438
47342SOL    HW146711  11.989  10.939   1.041 -1.2599 -1.3747 -0.0982
47342SOL    HW246712  11.883  11.030   1.100  0.8977  0.4655  1.1002
47343SOL     OW46713  11.105   5.335   0.450 -0.6151 -0.0313 -0.3040
47343SOL    HW146714  11.124   5.372   0.537 -0.8548 -1.7646  0.5163
47343SOL    HW246715  11.031   5.277   0.464  0.2628 -1.4845 -1.3650
47344SOL     OW46716   6.287   1.568   4.528  0.3594 -0.6345 -0.1388
47344SOL    HW146717   6.285   1.655   4.568 -0.3777 -0.7906  0.1852
47344SOL    HW246718   6.233   1.576   4.450 -0.1484 -0.9272  0.1751
47345SOL     OW46719   9.794  10.024  11.646 -0.6278  0.2143 -0.0031
47345SOL    HW146720   9.727   9.974  11.598 -2.5921  0.1191  2.5925
47345SOL    HW246721   9.759  10.113  11.649 -0.9411  0.0644  1.7895
47346SOL     OW46722   6.123   2.506   4.140 -0.2914  0.8682  0.4475
47346SOL    HW146723   6.053   2.538   4.198  0.6291  0.7447  1.6729
47346SOL    HW246724   6.167   2.439   4.192  0.2494  0.3900 -0.6153
47347SOL     OW46725   0.139   4.025   5.680  0.1868  0.3144  0.6122
47347SOL    HW146726   0.186   4.091   5.731  0.6405  1.8033 -1.5955
47347SOL    HW246727   0.051   4.060   5.670  0.7314  1.2903 -1.5352
47348SOL     OW46728   0.253   2.597   9.227 -0.0440 -0.1414  0.3726
47348SOL    HW146729   0.162   2.615   9.204 -0.1305 -1.5582 -0.5424
47348SOL    HW246730   0.299   2.679   9.211 -0.6808 -0.1466 -1.8420
47349SOL     OW46731   4.437   4.205   3.789  0.3260 -0.5836  0.1781
47349SOL    HW146732   4.481   4.274   3.739  0.3268 -0.4559  0.3528
47349SOL    HW246733   4.440   4.236   3.880 -1.0139 -0.0960  0.0755
47350SOL     OW46734   6.647   1.915  11.717 -0.6614 -0.5444  0.2642
47350SOL    HW146735   6.622   1.973  11.789  0.4472  0.0152  0.2156
47350SOL    HW246736   6.736   1.941  11.694 -0.9021 -0.8667 -1.1705
47351SOL     OW46737   1.295   3.204   9.104 -0.0253 -0.1852  0.0500
47351SOL    HW146738   1.290   3.279   9.163 -0.1906  0.1802 -0.4189
47351SOL    HW246739   1.389   3.194   9.086 -0.0914  0.6440 -0.8025
47352SOL     OW46740   9.928   9.865   8.461  0.8654  0.1922  0.2896
47352SOL    HW146741  10.011   9.829   8.491 -0.0632 -0.4650  2.1752
47352SOL    HW246742   9.866   9.793   8.468  0.3372  0.2767 -2.3601
47353SOL     OW46743   0.223   5.599   1.628  0.1444 -0.2166  0.4874
47353SOL    HW146744   0.289   5.644   1.575  1.3152 -1.1092  1.1529
47353SOL    HW246745   0.140   5.621   1.585  0.8004  1.3073 -0.1007
47354SOL     OW46746  11.444   5.590   6.693 -0.6734 -0.0868  0.1316
47354SOL    HW146747  11.452   5.667   6.748  1.4742  1.3866 -2.0466
47354SOL    HW246748  11.362   5.602   6.645 -0.6073  0.6072  0.1906
47355SOL     OW46749   7.364  11.095   2.985 -0.1245 -0.2057  0.3696
47355SOL    HW146750   7.293  11.100   2.921 -0.8172  0.1681  1.1336
47355SOL    HW246751   7.364  11.004   3.014  1.8305 -1.0250 -1.9072
47356SOL     OW46752   4.576  10.518  10.053  0.1056  0.0119 -0.0982
47356SOL    HW146753   4.497  10.567  10.075  0.2733 -0.0057  0.5410
47356SOL    HW246754   4.581  10.523   9.957 -0.9366 -0.3870 -0.1929
47357SOL     OW46755   3.279   5.883   4.483  0.2346 -0.1279 -0.1098
47357SOL    HW146756   3.330   5.867   4.403 -0.8287  0.5045 -0.9446
47357SOL    HW246757   3.327   5.952   4.528  0.9842 -0.6653 -0.0550
47358SOL     OW46758  11.555   6.982   6.919 -0.1007  0.1924  0.0002
47358SOL    HW146759  11.524   7.025   6.999 -3.7338 -1.7092 -0.1742
47358SOL    HW246760  11.604   6.906   6.950  0.5824  0.7854  0.3830
47359SOL     OW46761   2.381   4.021   0.232  0.0755  0.3996  0.5130
47359SOL    HW146762   2.400   4.070   0.152  0.3945  0.2065  0.4670
47359SOL    HW246763   2.311   3.961   0.207 -0.0970  0.6097  0.4856
47360SOL     OW46764   4.964   7.794   0.274 -0.3884  0.1752  0.8022
47360SOL    HW146765   5.029   7.839   0.329 -0.3663  1.6531 -0.3561
47360SOL    HW246766   5.014   7.731   0.223 -0.0042  0.6188  0.6255
47361SOL     OW46767  10.771   7.580   1.804 -0.6804  0.2828 -0.3278
47361SOL    HW146768  10.689   7.630   1.806 -0.7126  0.2265 -0.2643
47361SOL    HW246769  10.776   7.538   1.889  0.0438  1.2896  0.1502
47362SOL     OW46770   4.259   9.461   4.324  0.6615 -1.3037 -0.8283
47362SOL    HW146771   4.227   9.526   4.386  0.3886 -0.5432 -1.7477
47362SOL    HW246772   4.243   9.377   4.368  0.8366 -0.7758  0.2892
47363SOL     OW46773   8.722   6.368   8.374  0.4091 -0.1298  0.1459
47363SOL    HW146774   8.750   6.365   8.465 -0.4065  0.7183  0.4396
47363SOL    HW246775   8.803   6.383   8.324  1.0439 -1.8046  0.5904
47364SOL     OW46776  10.713   3.966   2.862  0.2521 -0.0606 -0.1257
47364SOL    HW146777  10.705   4.047   2.913  1.9107  0.2059 -0.2158
47364SOL    HW246778  10.793   3.925   2.896  0.3333 -0.8281 -1.2003
47365SOL     OW46779   7.097   9.850   8.155  0.4285 -0.4422  0.0618
47365SOL    HW146780   7.042   9.813   8.086 -0.1960 -0.2488  0.4455
47365SOL    HW246781   7.186   9.847   8.120  0.4219 -2.3854  0.1168
47366SOL     OW46782   6.850   8.286   0.296  0.0745 -0.5249 -0.4609
47366SOL    HW146783   6.867   8.298   0.203 -0.1224 -1.5647 -0.6466
47366SOL    HW246784   6.828   8.193   0.304 -1.2931 -0.1485  0.4101
47367SOL     OW46785   8.995   3.146   1.078 -0.1587  0.0577  0.0641
47367SOL    HW146786   8.958   3.068   1.119 -0.5997 -0.6257 -1.5559
47367SOL    HW246787   8.928   3.214   1.092 -0.8635 -0.4877 -0.5617
47368SOL     OW46788   9.991   0.379  11.360  0.6006 -0.1788 -0.3146
47368SOL    HW146789  10.028   0.298  11.394 -0.6107 -0.3038  0.8061
47368SOL    HW246790   9.937   0.412  11.431 -1.2626  0.0912 -1.7689
47369SOL     OW46791  11.015   5.375   5.435  0.2594 -0.0402  0.2260
47369SOL    HW146792  11.073   5.357   5.362  0.3649 -5.3764  1.2108
47369SOL    HW246793  10.932   5.401   5.395  1.6821  2.4701 -1.3664
47370SOL     OW46794   4.847  10.269  11.180 -0.6743 -0.4028  0.1506
47370SOL    HW146795   4.796  10.327  11.123 -0.1145 -1.0305 -1.0178
47370SOL    HW246796   4.854  10.318  11.262 -0.5841  1.0081 -0.6531
47371SOL     OW46797  11.703   1.121   5.349 -0.0653  0.1788 -0.1120
47371SOL    HW146798  11.755   1.154   5.275  1.2014  1.8416  1.4408
47371SOL    HW246799  11.731   1.030   5.360  1.2274  0.5271 -0.4130
47372SOL     OW46800   9.871   3.036   7.657 -0.0433 -0.4354 -0.0893
47372SOL    HW146801   9.958   3.031   7.696 -0.3169  1.5661  0.8747
47372SOL    HW246802   9.817   3.081   7.722 -1.4544 -0.3980 -1.2256
47373SOL     OW46803   9.374  10.638   4.684  0.0414  0.3249  0.1513
47373SOL    HW146804   9.349  10.723   4.723 -0.4176 -0.2385  1.1330
47373SOL    HW246805   9.340  10.573   4.746 -0.9003 -0.6325 -1.3198
47374SOL     OW46806   8.143   9.932   0.558  0.1917 -0.0040 -0.2821
47374SOL    HW146807   8.060   9.980   0.564  1.2585  1.8277  0.9219
47374SOL    HW246808   8.138   9.886   0.474 -1.1446  1.7959 -1.2692
47375SOL     OW46809   0.913   2.669   5.696 -0.0799  0.7754 -0.0103
47375SOL    HW146810   0.860   2.643   5.621  0.6518 -1.5284  0.1805
47375SOL    HW246811   0.913   2.765   5.694 -2.3265  0.8142 -1.3157
47376SOL     OW46812  10.312  11.549   7.355 -0.0787 -0.1397 -0.4056
47376SOL    HW146813  10.318  11.643   7.342 -0.0518  0.1603  1.5098
47376SOL    HW246814  10.220  11.533   7.377  0.2045 -0.3360  0.6949
47377SOL     OW46815   4.509   3.808  11.477 -0.4353 -0.5836  0.4016
47377SOL    HW146816   4.491   3.717  11.501  0.4930 -0.8385  0.2033
47377SOL    HW246817   4.499   3.857  11.558 -4.7480 -0.1804 -0.1665
47378SOL     OW46818   4.285   5.317   3.842 -0.3421  0.2474 -0.2640
47378SOL    HW146819   4.195   5.290   3.823 -0.5022 -0.1880  1.0319
47378SOL    HW246820   4.335   5.286   3.766 -0.5954 -3.3451  0.8479
47379SOL     OW46821   0.202   7.469   6.947  0.1793 -0.0874 -0.6991
47379SOL    HW146822   0.241   7.510   6.870  1.3969 -0.9111 -0.5341
47379SOL    HW246823   0.142   7.403   6.912 -0.3802  0.5308 -0.9381
47380SOL     OW46824   8.396  11.645  11.875  0.3426 -0.0124 -0.0657
47380SOL    HW146825   8.481  11.659  11.834  0.9386 -1.2662  0.6689
47380SOL    HW246826   8.332  11.667  11.807  1.2742 -0.4527 -1.1220
47381SOL     OW46827   7.157   6.819   3.681  0.0646 -0.0737 -0.2392
47381SOL    HW146828   7.097   6.883   3.642  0.8173  0.7222 -0.1365
47381SOL    HW246829   7.207   6.785   3.606 -0.7576 -1.0137 -0.3728
47382SOL     OW46830   1.062   6.323   8.186  0.1975 -0.1395 -0.0079
47382SOL    HW146831   1.015   6.402   8.159  1.8766  0.8771 -0.1034
47382SOL    HW246832   1.075   6.274   8.105 -0.8816 -0.5422  0.0556
47383SOL     OW46833   1.846   5.482   3.517  0.5638 -0.0418  0.7118
47383SOL    HW146834   1.774   5.504   3.576  0.8849  2.0275  0.4264
47383SOL    HW246835   1.803   5.448   3.438 -0.1456  1.3749  0.4591
47384SOL     OW46836   9.406   8.288   4.683  0.0246  0.4614  0.2696
47384SOL    HW146837   9.340   8.230   4.646  1.5108 -1.0304 -0.1910
47384SOL    HW246838   9.379   8.376   4.655 -1.7097 -0.0892  0.0865
47385SOL     OW46839   3.271   2.137  11.706 -0.0178 -0.0062 -0.2976
47385SOL    HW146840   3.215   2.144  11.629 -2.1802  0.3556  1.2370
47385SOL    HW246841   3.217   2.094  11.772  1.8238 -0.4628  1.0145
47386SOL     OW46842   2.961  11.240  11.930  0.1189 -0.2687  0.6624
47386SOL    HW146843   3.054  11.246  11.906  0.1732  0.6022  1.0670
47386SOL    HW246844   2.917  11.220  11.848  0.7968 -2.0812  0.6992
47387SOL     OW46845   1.962   3.258   0.945  0.3501 -0.1963  1.0685
47387SOL    HW146846   1.947   3.207   1.024  2.2789 -1.2124  0.8384
47387SOL    HW246847   2.056   3.248   0.927  0.2718  1.3218 -0.4469
47388SOL     OW46848   2.994  11.434  11.437  0.6375 -0.1743 -0.2478
47388SOL    HW146849   2.963  11.459  11.350  1.4649 -1.2621 -0.8782
47388SOL    HW246850   3.051  11.505  11.464  0.2593  0.2408 -0.5228
47389SOL     OW46851   6.796   5.450   9.428  0.0892  0.2344  0.4765
47389SOL    HW146852   6.767   5.359   9.424  0.5585  0.1393 -1.1201
47389SOL    HW246853   6.808   5.476   9.337  1.3278  1.4650  0.9584
47390SOL     OW46854   9.941   8.781   8.157 -0.2241 -0.0278 -0.2060
47390SOL    HW146855   9.987   8.847   8.209  2.0225 -0.0773 -1.9773
47390SOL    HW246856  10.003   8.756   8.089 -1.5258 -2.9273 -0.4981
47391SOL     OW46857   7.287   3.212   4.423  0.2596  0.0279  0.3993
47391SOL    HW146858   7.362   3.223   4.482 -0.6958  1.2870  1.4456
47391SOL    HW246859   7.313   3.259   4.343  0.3611  1.0183  0.9924
47392SOL     OW46860   4.478   1.776   7.201  0.4621 -0.6050 -0.2678
47392SOL    HW146861   4.454   1.863   7.233  0.5140 -0.6177 -0.1938
47392SOL    HW246862   4.399   1.742   7.159  0.8329  0.0569 -1.5749
47393SOL     OW46863   2.062   1.340   8.247  0.2895 -1.0558 -0.3295
47393SOL    HW146864   2.147   1.360   8.287 -0.3342 -1.5922  1.3404
47393SOL    HW246865   2.004   1.409   8.278 -0.0470 -1.0728 -0.9131
47394SOL     OW46866   6.145  10.050   7.162 -0.2270  0.3191  0.1764
47394SOL    HW146867   6.075  10.028   7.225 -2.0433 -0.5831 -2.0178
47394SOL    HW246868   6.141  10.145   7.155 -1.6421  0.2592 -0.2677
47395SOL     OW46869   0.537   3.063   3.002 -0.2207  0.4155 -0.5380
47395SOL    HW146870   0.445   3.052   2.978 -0.3800  0.3828  0.0809
47395SOL    HW246871   0.553   3.157   2.998  0.3475  0.2982 -2.8982
47396SOL     OW46872   8.484  10.386   0.669 -0.6803 -0.3552  0.5368
47396SOL    HW146873   8.491  10.333   0.749 -1.2959  1.7121  2.0481
47396SOL    HW246874   8.573  10.418   0.654  0.1174 -3.0617 -1.4325
47397SOL     OW46875   0.881   3.704  11.381  0.0522  0.2783 -0.3539
47397SOL    HW146876   0.893   3.739  11.293  0.0908  1.1015 -0.0305
47397SOL    HW246877   0.792   3.669  11.381 -0.2558  1.0262 -0.4850
47398SOL     OW46878   5.849   0.374   9.392 -0.4559  0.1493  0.3030
47398SOL    HW146879   5.754   0.373   9.393 -0.5756  2.7300  1.0047
47398SOL    HW246880   5.871   0.447   9.334  1.1858 -1.6024 -1.3959
47399SOL     OW46881  11.788   3.669   4.076  0.0544 -0.6700  0.1270
47399SOL    HW146882  11.756   3.746   4.029  0.1234 -0.3010  0.6648
47399SOL    HW246883  11.715   3.606   4.073  0.5476 -1.2026 -1.6463
47400SOL     OW46884   2.843   8.149  11.572 -0.3839  0.3552  0.3850
47400SOL    HW146885   2.762   8.139  11.521  0.0586 -0.0564 -0.2500
47400SOL    HW246886   2.883   8.229  11.538 -0.3942  0.4160  0.5141
47401SOL     OW46887   7.800  10.470   6.793  0.1228  0.2578  0.0282
47401SOL    HW146888   7.711  10.494   6.767  0.7476 -0.5802 -3.3623
47401SOL    HW246889   7.804  10.489   6.886 -3.5069  0.5873  0.2449
47402SOL     OW46890   3.917   5.198   2.489  0.0948 -0.3570  0.1921
47402SOL    HW146891   3.841   5.256   2.478  0.0757 -0.7292 -2.1209
47402SOL    HW246892   3.918   5.178   2.582 -2.1315  0.3575  0.4359
47403SOL     OW46893   7.915   0.018   9.509 -0.0211  0.7033 -0.2631
47403SOL    HW146894   7.829  -0.021   9.517  0.5590 -0.5171  0.3239
47403SOL    HW246895   7.906   0.106   9.546 -0.6066 -0.0504  1.4807
47404SOL     OW46896   6.438   1.170   3.771 -0.4076  0.0985 -0.0380
47404SOL    HW146897   6.395   1.084   3.770  1.1350 -0.6956 -0.9041
47404SOL    HW246898   6.420   1.207   3.684  0.4511 -0.1428 -0.3238
47405SOL     OW46899   8.120   6.233   9.207 -0.0928 -0.0186  0.1226
47405SOL    HW146900   8.043   6.288   9.193  0.9151  1.1537 -1.1262
47405SOL    HW246901   8.106   6.194   9.293 -1.6943  0.7994  0.2723
47406SOL     OW46902  11.404   8.710   9.646 -0.0281  0.2507  0.4357
47406SOL    HW146903  11.351   8.635   9.673  1.7362 -1.0691  0.4201
47406SOL    HW246904  11.468   8.673   9.585  1.3517  1.6288  0.9799
47407SOL     OW46905   4.737   8.652  10.697 -0.4561  0.0057 -0.4827
47407SOL    HW146906   4.767   8.677  10.784 -1.6365 -2.3610  0.6911
47407SOL    HW246907   4.817   8.634  10.648  0.1936 -0.2150  0.6196
47408SOL     OW46908   8.067   4.101   7.374  0.3520  0.7813 -0.0161
47408SOL    HW146909   8.078   4.010   7.402  0.6853  0.8279  0.0104
47408SOL    HW246910   8.078   4.152   7.454 -0.9821  0.7790  0.1785
47409SOL     OW46911  12.000   1.016   3.063  0.6574  0.7216  0.3082
47409SOL    HW146912  12.081   0.993   3.018  1.2882 -0.4857  1.9823
47409SOL    HW246913  11.930   0.991   3.002  1.4748 -1.2454  0.1250
47410SOL     OW46914  11.621   5.831   9.519  0.7656 -0.1001 -0.4557
47410SOL    HW146915  11.644   5.742   9.494  3.0134  0.3476 -0.1676
47410SOL    HW246916  11.696   5.885   9.493 -0.4809  1.7150 -0.5427
47411SOL     OW46917   9.579   9.937   9.340 -0.4467  0.3207  0.3796
47411SOL    HW146918   9.534   9.874   9.283 -0.9618 -1.0902  2.2405
47411SOL    HW246919   9.637   9.985   9.281  0.1331 -2.0516 -1.1306
47412SOL     OW46920   7.117  10.845   2.630  0.1305  0.0626  0.2808
47412SOL    HW146921   7.188  10.809   2.575  1.1167  2.2547  0.0333
47412SOL    HW246922   7.044  10.856   2.569  0.4356  0.2560 -0.0536
47413SOL     OW46923  11.238   5.641   0.006 -0.0581 -0.6167  0.1164
47413SOL    HW146924  11.183   5.712   0.039 -1.3830 -1.7612  0.4299
47413SOL    HW246925  11.321   5.652   0.054 -0.0968  0.9187 -0.1167
47414SOL     OW46926   5.017  10.191   1.009 -0.2089  0.5209 -0.2897
47414SOL    HW146927   4.975  10.264   1.053  0.2946  1.3982 -1.2171
47414SOL    HW246928   4.946  10.128   0.994 -0.9319  1.3953 -0.6514
47415SOL     OW46929   4.982   4.657  11.780  0.0028 -0.1731  0.1783
47415SOL    HW146930   4.888   4.670  11.767  0.3494  1.5685 -1.0451
47415SOL    HW246931   5.008   4.729  11.837  0.8861  0.5329 -1.0630
47416SOL     OW46932   5.348   3.036   3.233 -0.7003 -0.1568 -0.0133
47416SOL    HW146933   5.384   3.028   3.144  2.1767  0.0451  1.0155
47416SOL    HW246934   5.349   3.130   3.250 -2.3532 -0.0903 -0.1168
47417SOL     OW46935  11.736   2.694  10.622  0.4083  0.0319  0.1930
47417SOL    HW146936  11.722   2.736  10.706 -0.6673  0.0901  0.0024
47417SOL    HW246937  11.756   2.603  10.643 -0.8566 -0.1982  0.4992
47418SOL     OW46938   2.237   0.167   6.955  0.1984  0.4115  0.4001
47418SOL    HW146939   2.198   0.196   6.873 -0.2536  0.8866  0.7781
47418SOL    HW246940   2.331   0.161   6.936  0.0121 -0.2217 -0.3620
47419SOL     OW46941  11.490   3.156   9.925  0.1335  0.0021  0.1913
47419SOL    HW146942  11.499   3.111   9.842  1.2486  2.8646 -1.3823
47419SOL    HW246943  11.576   3.151   9.965 -0.0189 -0.1523  0.5075
47420SOL     OW46944   9.335   4.988  10.339 -0.1070  0.4245  0.1865
47420SOL    HW146945   9.246   5.013  10.313 -0.5176 -1.0594  0.0618
47420SOL    HW246946   9.368   4.937  10.265  1.1447  1.5597 -0.0746
47421SOL     OW46947   3.732   5.817   2.258  0.4926 -0.2560 -0.2574
47421SOL    HW146948   3.693   5.905   2.261  0.1324 -0.3811  3.1116
47421SOL    HW246949   3.811   5.825   2.312  1.0571 -1.7640 -0.8147
47422SOL     OW46950   3.952   4.599   1.268 -0.5415  0.2084 -0.5749
47422SOL    HW146951   3.896   4.665   1.227 -1.7284 -1.3295 -1.5419
47422SOL    HW246952   4.033   4.646   1.288 -0.7760  1.6020 -2.5728
47423SOL     OW46953   3.697   9.537   1.468  0.2697 -0.1300 -0.3034
47423SOL    HW146954   3.731   9.488   1.543  0.4214  0.7229  0.1995
47423SOL    HW246955   3.675   9.624   1.504 -2.2101 -0.5363 -0.6218
47424SOL     OW46956   8.796   4.971   7.255 -0.2266  0.1408  0.1183
47424SOL    HW146957   8.877   4.946   7.210 -0.0015  0.9118  0.0895
47424SOL    HW246958   8.819   5.049   7.305 -0.6251 -0.3604  1.1314
47425SOL     OW46959   5.559   3.307  11.700 -0.5606 -0.0488 -0.4776
47425SOL    HW146960   5.530   3.273  11.616 -1.8159  2.1596 -1.0064
47425SOL    HW246961   5.492   3.279  11.762  0.3806 -1.7028 -0.1370
47426SOL     OW46962   7.950  10.583   5.216  0.0078 -0.3168 -0.0633
47426SOL    HW146963   7.870  10.591   5.165  0.0083 -1.7898 -0.3456
47426SOL    HW246964   7.982  10.673   5.226 -2.2009  0.4379  0.9311
47427SOL     OW46965   7.466   0.852  10.491 -0.4721  0.4039 -0.2454
47427SOL    HW146966   7.455   0.918  10.560 -1.2101  0.4271 -0.3817
47427SOL    HW246967   7.377   0.828  10.466 -0.2027 -0.5185 -0.3291
47428SOL     OW46968   5.651  11.375   0.139  0.5150  0.1304  0.2709
47428SOL    HW146969   5.647  11.407   0.229 -0.0765  0.1107  0.2580
47428SOL    HW246970   5.740  11.342   0.129  0.2819 -0.8341  1.1766
47429SOL     OW46971   7.880  10.337   4.034  0.1779 -0.9404  0.0066
47429SOL    HW146972   7.832  10.419   4.033 -0.0344 -1.0445  0.9075
47429SOL    HW246973   7.876  10.305   3.943  0.9080  0.3990 -0.5173
47430SOL     OW46974   6.501  10.643   2.683 -0.1022  0.2118 -0.4524
47430SOL    HW146975   6.443  10.680   2.750 -1.1338 -0.5246 -0.9102
47430SOL    HW246976   6.541  10.567   2.726  1.3215  1.2666  0.1866
47431SOL     OW46977   0.878   9.330   3.389 -0.2074 -0.3639  0.1033
47431SOL    HW146978   0.964   9.368   3.406 -0.4690  1.2920 -1.8813
47431SOL    HW246979   0.816   9.391   3.428 -0.5397 -1.0714  0.7085
47432SOL     OW46980  11.184   6.989   8.861 -0.3972  0.4255  0.4323
47432SOL    HW146981  11.122   6.974   8.931  0.5325  1.8900  1.6341
47432SOL    HW246982  11.269   6.962   8.897 -0.2406 -1.1773 -1.0340
47433SOL     OW46983   0.187   7.927   2.661 -0.5276 -0.1394  0.0903
47433SOL    HW146984   0.230   7.951   2.579 -0.2299 -1.2170 -0.0787
47433SOL    HW246985   0.094   7.939   2.644 -0.3802  1.3382  0.1727
47434SOL     OW46986   3.028   0.646   2.285  0.3551  0.4876  0.7682
47434SOL    HW146987   2.944   0.687   2.263  0.6772  1.7710  1.8292
47434SOL    HW246988   3.060   0.695   2.360  1.4724 -0.7981  1.1792
47435SOL     OW46989   1.204   2.412   6.772  0.6205 -0.6611 -1.0320
47435SOL    HW146990   1.124   2.452   6.737 -2.3029 -2.0659  3.2486
47435SOL    HW246991   1.202   2.322   6.737 -1.5176 -1.6272  1.2445
47436SOL     OW46992   2.310   7.605   0.118 -0.0449  0.5515  0.0951
47436SOL    HW146993   2.379   7.567   0.172 -0.0712 -0.4024 -0.5271
47436SOL    HW246994   2.344   7.603   0.029 -0.3707  1.2676 -0.0545
47437SOL     OW46995  10.266   3.333   3.110  0.0111 -0.1208  0.4448
47437SOL    HW146996  10.333   3.388   3.150  0.0462 -0.4585  0.8540
47437SOL    HW246997  10.202   3.395   3.074  0.1204  0.1844  0.7749
47438SOL     OW46998   2.638  10.976   7.763  0.0224  0.3729  0.4618
47438SOL    HW146999   2.673  10.942   7.846  0.5995 -0.6162 -0.1668
47438SOL    HW247000   2.715  10.992   7.709 -0.1281  3.6745  1.0169
47439SOL     OW47001   7.076   2.262   7.401 -0.1678  0.4242  0.2749
47439SOL    HW147002   7.001   2.205   7.419 -0.8997  1.8899  2.2094
47439SOL    HW247003   7.077   2.270   7.306 -1.0905 -1.3954  0.0624
47440SOL     OW47004   3.455   8.438   3.094 -0.6649 -0.2152 -0.4301
47440SOL    HW147005   3.420   8.367   3.148  1.0938 -1.6419 -1.0578
47440SOL    HW247006   3.495   8.393   3.020  0.9015  1.4124 -0.6181
47441SOL     OW47007   7.082   7.348   3.686  0.1307 -0.1120  0.1573
47441SOL    HW147008   7.080   7.389   3.772  1.1768  1.3318 -0.4758
47441SOL    HW247009   7.171   7.363   3.654 -0.0705 -1.1424 -0.9429
47442SOL     OW47010   1.319   6.144   3.940 -0.5130  0.3118  0.0255
47442SOL    HW147011   1.245   6.122   3.883 -0.0142 -0.0008 -0.5110
47442SOL    HW247012   1.396   6.114   3.892 -0.0431  0.5256  0.6338
47443SOL     OW47013   8.140   2.845   4.201  0.0845  0.3367  0.1126
47443SOL    HW147014   8.166   2.937   4.195 -1.8278  0.9001 -0.3531
47443SOL    HW247015   8.210   2.803   4.250  0.5478  2.2335  1.1634
47444SOL     OW47016   9.137  10.456   0.635  0.2893 -0.1998 -0.8937
47444SOL    HW147017   9.161  10.418   0.551 -0.4313 -2.8793  0.0255
47444SOL    HW247018   9.049  10.423   0.653  0.7711 -0.4482  1.3187
47445SOL     OW47019   4.695   2.445  11.324  0.2483  0.0701  0.6865
47445SOL    HW147020   4.766   2.506  11.306 -0.5831  0.9660  0.3068
47445SOL    HW247021   4.736   2.359  11.323  1.0445  0.4027 -1.3223
47446SOL     OW47022   5.665   4.150  11.368  0.5902  0.3114 -0.1579
47446SOL    HW147023   5.586   4.203  11.356  1.1209  1.1294 -0.0934
47446SOL    HW247024   5.730   4.191  11.312  0.5582 -1.2831 -1.4106
47447SOL     OW47025   8.928   9.017   4.330 -0.5007 -0.4748  0.0776
47447SOL    HW147026   8.866   8.974   4.270 -0.9571  1.7507 -1.1624
47447SOL    HW247027   8.994   9.055   4.272 -2.0366  3.5049  0.5969
47448SOL     OW47028   0.151   8.828  11.370 -0.0657  0.1242 -0.4004
47448SOL    HW147029   0.097   8.756  11.338  1.9664 -1.1840 -1.0756
47448SOL    HW247030   0.089   8.890  11.408 -2.1591 -0.5119 -2.5847
47449SOL     OW47031   7.214   1.566   0.825 -0.5952 -0.1028  0.8019
47449SOL    HW147032   7.153   1.609   0.765 -0.8974  0.2308  1.3345
47449SOL    HW247033   7.280   1.633   0.843  0.6936 -0.8743 -0.7932
47450SOL     OW47034   6.538  11.268  11.332  0.9161 -0.7909  0.4335
47450SOL    HW147035   6.522  11.322  11.254 -0.5443 -2.0438 -0.1950
47450SOL    HW247036   6.629  11.286  11.356  0.9795  0.6475 -0.7479
47451SOL     OW47037   8.091  10.562   4.146 -0.4576  0.7203 -0.4015
47451SOL    HW147038   8.099  10.506   4.224 -0.8327  1.4040  0.1412
47451SOL    HW247039   8.152  10.524   4.083 -0.1948  0.1091  0.2041
47452SOL     OW47040  10.118   6.645   1.776  0.5317  0.4098 -0.1414
47452SOL    HW147041  10.068   6.714   1.819 -0.4217 -1.0811  1.2640
47452SOL    HW247042  10.074   6.632   1.692 -0.5147  0.1673  0.4303
47453SOL     OW47043   7.661   4.527   5.473 -0.7179  0.3196  0.5387
47453SOL    HW147044   7.621   4.587   5.536 -1.2108  0.1714  0.3693
47453SOL    HW247045   7.654   4.441   5.514  1.6364  0.5410  1.6335
47454SOL     OW47046   6.591   5.968   8.498 -0.7106  0.0079 -0.4692
47454SOL    HW147047   6.531   5.899   8.469 -2.2538  0.7742  0.7776
47454SOL    HW247048   6.541   6.019   8.562  1.4031  0.4274  0.9735
47455SOL     OW47049   5.735   4.778   8.779  0.0194 -0.2336  0.3633
47455SOL    HW147050   5.644   4.786   8.809  0.0740 -1.2271  0.8172
47455SOL    HW247051   5.732   4.807   8.687 -0.5127  0.9181  0.7296
47456SOL     OW47052  10.095   5.001   4.019 -1.0233  0.0248 -0.3214
47456SOL    HW147053  10.079   5.095   4.032  0.5801  0.2489  0.3199
47456SOL    HW247054  10.151   4.976   4.092 -0.8948 -1.2900 -0.8390
47457SOL     OW47055   5.892   0.266   6.145  0.1429  0.1248  0.8716
47457SOL    HW147056   5.938   0.197   6.193  0.9043  1.4707  2.1473
47457SOL    HW247057   5.801   0.259   6.174  0.0161 -0.9541  0.2449
47458SOL     OW47058   7.868   9.320   0.106 -0.3940  0.1108 -0.5353
47458SOL    HW147059   7.864   9.260   0.181  0.0104 -0.3585 -0.8809
47458SOL    HW247060   7.830   9.401   0.138  3.2900  1.2968  1.4905
47459SOL     OW47061   5.112   4.478  11.653 -0.0706  0.0316  0.1882
47459SOL    HW147062   5.079   4.391  11.675  1.1439 -0.4789  0.0509
47459SOL    HW247063   5.051   4.538  11.697 -2.0637 -0.8065 -1.2792
47460SOL     OW47064  11.861  11.554   2.215 -0.2384  0.0014  0.6072
47460SOL    HW147065  11.774  11.592   2.206 -0.1024 -0.0810 -1.7771
47460SOL    HW247066  11.895  11.590   2.297 -1.4304  2.3319  0.1594
47461SOL     OW47067   3.602   4.998   2.774 -0.2129  0.1735  0.2534
47461SOL    HW147068   3.592   4.955   2.859 -2.7498 -0.8451 -0.4888
47461SOL    HW247069   3.622   4.927   2.713 -1.1127  0.4941 -0.4371
47462SOL     OW47070   6.928   5.097   3.606  0.8113 -0.6049 -0.0066
47462SOL    HW147071   6.898   5.017   3.649  0.7789  0.3099  1.8104
47462SOL    HW247072   6.910   5.084   3.513 -1.5815 -1.6690  0.5399
47463SOL     OW47073   3.131  10.807   9.288 -0.1603  0.2890 -0.2607
47463SOL    HW147074   3.194  10.739   9.265 -0.9154 -1.5787  2.6535
47463SOL    HW247075   3.173  10.889   9.260  2.1970 -1.0804 -1.0579
47464SOL     OW47076   4.640   7.299   9.687 -0.3409  0.0479 -0.2323
47464SOL    HW147077   4.624   7.335   9.775 -1.0997  0.6624 -0.6159
47464SOL    HW247078   4.602   7.210   9.691 -2.5114  0.8868 -0.6128
47465SOL     OW47079   5.896   3.555   6.634  0.0378 -0.3246  0.4165
47465SOL    HW147080   5.876   3.572   6.542  0.1532 -1.6422  0.1318
47465SOL    HW247081   5.835   3.485   6.660 -0.0976  0.1319  1.3868
47466SOL     OW47082   5.094   1.423   4.040 -0.3951 -0.0214 -0.1939
47466SOL    HW147083   5.077   1.517   4.043 -0.5091 -0.0640  1.1684
47466SOL    HW247084   5.187   1.414   4.064 -0.8922 -0.3420  1.8611
47467SOL     OW47085  10.487   6.847   9.714 -0.1212  0.1621  0.6904
47467SOL    HW147086  10.524   6.925   9.756 -0.1214  0.3425  0.3571
47467SOL    HW247087  10.393   6.853   9.734  0.0218 -0.3123  1.5597
47468SOL     OW47088   1.945   4.756   2.362  0.2739  0.3362  1.3738
47468SOL    HW147089   1.891   4.735   2.285  0.7081 -0.1314  1.1917
47468SOL    HW247090   1.986   4.673   2.385  1.0633  0.7295  1.3940
47469SOL     OW47091   8.999   6.775   3.837 -0.0424 -0.0857  0.0745
47469SOL    HW147092   8.979   6.859   3.878  0.2219 -0.2338  0.5074
47469SOL    HW247093   8.924   6.720   3.857 -0.1127 -0.0265 -0.0192
47470SOL     OW47094   7.912   3.060   3.499 -0.2563  0.3233 -0.0031
47470SOL    HW147095   7.909   3.098   3.412 -0.8261  1.4699  0.4976
47470SOL    HW247096   7.993   3.009   3.501 -0.5957 -0.3054 -1.4260
47471SOL     OW47097   4.039  10.511   4.206 -0.3003 -0.2769 -0.2010
47471SOL    HW147098   3.966  10.542   4.259  0.3100 -2.1459  1.8699
47471SOL    HW247099   4.007  10.431   4.165  0.3444 -0.7354  0.1705
47472SOL     OW47100   2.741  10.272   6.312  0.1327  0.0107 -0.1038
47472SOL    HW147101   2.763  10.325   6.388 -0.0913  1.5860 -1.1044
47472SOL    HW247102   2.654  10.302   6.285  0.0083 -0.8449 -0.7091
47473SOL     OW47103   1.615   1.187  10.519  0.0123 -0.2158  0.0598
47473SOL    HW147104   1.602   1.245  10.594  3.7782  2.3424 -0.9510
47473SOL    HW247105   1.595   1.242  10.443  0.8150 -1.1896 -0.8896
47474SOL     OW47106   8.487   3.035  10.765  0.2512 -0.0920 -0.8310
47474SOL    HW147107   8.581   3.049  10.772  0.3316  0.4659 -2.5624
47474SOL    HW247108   8.458   3.099  10.700 -1.4807  0.3626  0.3317
47475SOL     OW47109   8.603   5.775   1.925  0.1055  0.0600 -0.0642
47475SOL    HW147110   8.559   5.813   2.001  0.1828  0.1739 -0.0759
47475SOL    HW247111   8.662   5.844   1.895 -0.0482  0.0796 -0.3305
47476SOL     OW47112  11.653  10.091   6.801  0.2274 -0.0642 -0.0855
47476SOL    HW147113  11.643  10.169   6.746  2.0424  0.8414  0.7588
47476SOL    HW247114  11.651  10.125   6.891 -2.1255 -1.4386  0.4842
47477SOL     OW47115   1.518   4.427   9.930  0.4953  0.2839  0.0131
47477SOL    HW147116   1.597   4.406   9.880  0.2164 -1.4012  0.2160
47477SOL    HW247117   1.488   4.510   9.894  2.6097  1.2215  0.2535
47478SOL     OW47118   8.706   0.423  11.478 -0.0222 -0.7348 -0.4773
47478SOL    HW147119   8.684   0.370  11.554 -0.2249 -0.5191 -0.3831
47478SOL    HW247120   8.795   0.398  11.455  0.5482  0.1816  0.6680
47479SOL     OW47121   2.692   0.889   3.919 -0.2700 -0.0227 -0.0624
47479SOL    HW147122   2.766   0.835   3.946  0.4230  0.1480 -1.5347
47479SOL    HW247123   2.616   0.831   3.925  0.3971 -1.0496 -1.1651
47480SOL     OW47124   3.192   7.751  10.482  0.0123  0.2229  0.1578
47480SOL    HW147125   3.102   7.780  10.499 -0.7562 -2.5423  1.2789
47480SOL    HW247126   3.247   7.812  10.531 -1.3499  0.8969  0.8948
47481SOL     OW47127   1.102   4.572   9.700 -0.2727 -0.3757 -0.1832
47481SOL    HW147128   1.076   4.591   9.610 -1.8860  2.0682  0.6859
47481SOL    HW247129   1.020   4.552   9.745  0.3572 -0.4694  0.9707
47482SOL     OW47130   7.822   3.313  10.276 -0.5523  0.2018  0.3823
47482SOL    HW147131   7.793   3.387  10.330  0.8308  0.1227  1.3166
47482SOL    HW247132   7.745   3.286  10.227 -1.5238  1.1432  1.3454
47483SOL     OW47133   3.270   3.184   7.762  0.4535  0.0369 -0.6761
47483SOL    HW147134   3.240   3.095   7.778  0.0279  0.1852 -0.6258
47483SOL    HW247135   3.314   3.181   7.677  0.2499 -0.1760 -0.7726
47484SOL     OW47136   0.240   1.777   9.764  0.1658  0.0999 -0.3891
47484SOL    HW147137   0.225   1.751   9.854  1.4505 -0.3849 -0.2961
47484SOL    HW247138   0.160   1.822   9.738 -1.3084 -2.0834  0.1185
47485SOL     OW47139   3.850   0.334   8.298  0.1472  0.3863 -0.5891
47485SOL    HW147140   3.926   0.279   8.319  0.0690 -0.2362 -1.8502
47485SOL    HW247141   3.882   0.393   8.230 -0.7770 -0.6519 -1.9714
47486SOL     OW47142   2.350   3.249   3.050  0.3071  0.5034  0.0018
47486SOL    HW147143   2.367   3.281   3.139 -0.8524 -0.0291  0.4360
47486SOL    HW247144   2.430   3.202   3.025  0.4356  0.1899  0.9789
47487SOL     OW47145   9.015  10.447  10.114 -0.3018 -0.7890 -0.6950
47487SOL    HW147146   8.952  10.511  10.148  2.3674  1.4610  0.4634
47487SOL    HW247147   9.028  10.386  10.186 -0.0777 -0.3675 -0.3703
47488SOL     OW47148   2.247   9.759   6.415 -0.3481  0.8357  0.1136
47488SOL    HW147149   2.276   9.833   6.362 -1.3452  1.0367 -0.1722
47488SOL    HW247150   2.196   9.799   6.486  0.2169  0.5074  0.7185
47489SOL     OW47151  11.184   4.417   5.904 -0.0768  0.9021  0.3798
47489SOL    HW147152  11.265   4.457   5.935 -0.3638  1.1941  0.7607
47489SOL    HW247153  11.210   4.368   5.826  0.1434  2.5085 -0.6010
47490SOL     OW47154   8.943  11.286   7.718  0.5485  0.5916  0.0041
47490SOL    HW147155   8.883  11.233   7.770  0.6889  0.8245  0.4025
47490SOL    HW247156   8.990  11.222   7.663 -1.0080  0.5172 -1.3038
47491SOL     OW47157   7.826   2.199  11.969 -0.2351  0.1969  0.2956
47491SOL    HW147158   7.887   2.126  11.969  0.2819  0.6118 -0.4696
47491SOL    HW247159   7.795   2.205  11.879 -0.6788  0.5857  0.4676
47492SOL     OW47160   6.532   3.319   2.214  0.5525 -0.5164 -0.1208
47492SOL    HW147161   6.503   3.251   2.275  0.8789 -1.1629 -0.6798
47492SOL    HW247162   6.490   3.297   2.131  0.5074  0.0782 -0.2628
47493SOL     OW47163   8.005   3.990   0.137  0.3456  0.6796  0.2244
47493SOL    HW147164   7.975   3.945   0.058  0.4713 -0.9069  1.0465
47493SOL    HW247165   7.952   4.069   0.141 -1.8925 -0.7519  0.2391
47494SOL     OW47166   2.333   7.789   2.536  0.2835 -0.1215  0.1593
47494SOL    HW147167   2.363   7.847   2.466  0.1988 -2.2271 -1.7462
47494SOL    HW247168   2.240   7.774   2.517  0.1201 -0.2769  1.0574
47495SOL     OW47169   2.461   5.546   2.033 -0.4387 -0.5987 -0.6197
47495SOL    HW147170   2.554   5.562   2.019 -0.4215 -0.7258 -0.6522
47495SOL    HW247171   2.417   5.590   1.960 -0.3042 -1.8804 -1.4938
47496SOL     OW47172   2.489   6.419   0.820  0.1391 -0.5092  0.2892
47496SOL    HW147173   2.408   6.448   0.777  0.0561  0.8960  1.3328
47496SOL    HW247174   2.461   6.396   0.909  0.5220 -2.1899  0.0084
47497SOL     OW47175   0.555   8.152   9.902 -0.5679 -0.3053  0.1705
47497SOL    HW147176   0.629   8.118   9.953 -1.3032 -0.2816  1.2700
47497SOL    HW247177   0.524   8.077   9.851  0.2945 -0.2791 -0.4186
47498SOL     OW47178   8.453   5.130   2.434 -0.1139 -0.1517  0.0527
47498SOL    HW147179   8.524   5.149   2.372  0.5714 -0.7087  0.6463
47498SOL    HW247180   8.374   5.159   2.390  0.4267 -0.0259 -0.8569
47499SOL     OW47181   3.723   8.349  10.028  0.3412  0.0453  0.5241
47499SOL    HW147182   3.663   8.406  10.075 -0.7922 -0.4583 -0.2491
47499SOL    HW247183   3.809   8.389  10.039 -0.3341  1.5398  0.5250
47500SOL     OW47184   4.136   0.563   7.668 -0.5052  0.7435  0.7153
47500SOL    HW147185   4.074   0.500   7.631  0.4722  0.4460 -0.4655
47500SOL    HW247186   4.147   0.535   7.759  0.3217 -1.1425  0.0743
47501SOL     OW47187   9.241   3.297   7.387  0.9234  0.2654 -0.1002
47501SOL    HW147188   9.286   3.222   7.427  1.2811  0.9708  0.8749
47501SOL    HW247189   9.240   3.277   7.293 -1.8520 -2.4813  0.3635
47502SOL     OW47190  10.154   1.588   6.991 -0.1071  0.0478 -0.2393
47502SOL    HW147191  10.062   1.564   7.002  0.2366 -0.9466  0.6375
47502SOL    HW247192  10.195   1.562   7.073  1.3742 -1.5625 -1.4284
47503SOL     OW47193   0.868  11.988   3.882 -0.6590  0.4494  0.1894
47503SOL    HW147194   0.942  12.012   3.939  0.1234  0.5067 -0.8202
47503SOL    HW247195   0.883  11.896   3.861  0.6513  1.0967 -2.1392
47504SOL     OW47196   7.820   6.796   3.985 -0.1742  0.7839  0.2175
47504SOL    HW147197   7.869   6.727   3.940 -0.9410  0.7452 -0.6027
47504SOL    HW247198   7.886   6.855   4.020  0.4832  1.5625 -2.1612
47505SOL     OW47199  10.393   3.151  10.086  0.2326  0.2967 -0.4454
47505SOL    HW147200  10.328   3.222  10.095  0.0494 -0.0191  1.0191
47505SOL    HW247201  10.353   3.077  10.131  0.3656 -0.8114 -2.0787
47506SOL     OW47202  10.385  10.915   6.057 -0.3626 -0.0742 -0.3706
47506SOL    HW147203  10.368  11.008   6.040  0.5931 -0.1486 -1.9526
47506SOL    HW247204  10.336  10.869   5.989 -0.6899 -0.7230  0.2989
47507SOL     OW47205   6.206  10.857   2.002  0.4928  0.6048 -0.4093
47507SOL    HW147206   6.249  10.922   2.057 -2.1019  1.4586  0.7715
47507SOL    HW247207   6.205  10.896   1.914  0.9490  1.1293 -0.1811
47508SOL     OW47208  11.111   1.285   9.625 -0.5710 -0.4228  0.2965
47508SOL    HW147209  11.202   1.285   9.655 -0.4617  1.1895  0.0635
47508SOL    HW247210  11.104   1.362   9.569 -1.5630 -1.6988 -1.4182
47509SOL     OW47211   1.737  10.294   7.768  0.3793  0.2249  0.1589
47509SOL    HW147212   1.666  10.325   7.711 -0.5100 -0.7089  0.7264
47509SOL    HW247213   1.767  10.373   7.814  0.3715  0.7989 -0.7874
47510SOL     OW47214   6.328   0.626   7.562 -0.7995  0.4343 -0.2972
47510SOL    HW147215   6.310   0.679   7.484 -1.1400  1.0112  0.1684
47510SOL    HW247216   6.255   0.644   7.621  0.2285  1.2115  0.7873
47511SOL     OW47217   3.975  11.874  11.666 -0.1153  0.1379 -0.4943
47511SOL    HW147218   3.884  11.899  11.678 -0.8951 -0.6447 -3.8609
47511SOL    HW247219   3.973  11.779  11.653  1.2137  0.0900 -0.5454
47512SOL     OW47220   3.791   4.140   3.913 -0.1526  0.2489 -0.0129
47512SOL    HW147221   3.826   4.066   3.962  1.8630  0.5416 -0.8957
47512SOL    HW247222   3.821   4.217   3.962  0.1754  0.5056 -0.6045
47513SOL     OW47223   9.387  11.553   9.224  0.3553 -0.7933 -0.5051
47513SOL    HW147224   9.418  11.604   9.298 -0.8193  0.9634 -1.1686
47513SOL    HW247225   9.447  11.478   9.220  2.7296  0.9398 -0.0241
47514SOL     OW47226   1.333   1.987  10.808 -0.3087 -0.2780 -0.5570
47514SOL    HW147227   1.319   2.066  10.756 -0.4411  0.4505  0.5439
47514SOL    HW247228   1.296   1.917  10.756  0.0942  0.3390 -1.6992
47515SOL     OW47229   6.252   5.674   4.192 -0.0047 -0.0667  0.4468
47515SOL    HW147230   6.190   5.708   4.255  0.3018  0.8101  0.2916
47515SOL    HW247231   6.321   5.634   4.245 -1.1085 -1.8309  0.6066
47516SOL     OW47232   3.955   8.951   5.128  0.1510  0.4844 -0.1965
47516SOL    HW147233   3.951   8.916   5.039  0.6320 -0.8383  0.2770
47516SOL    HW247234   3.976   8.875   5.183 -0.7976  1.1462  1.1382
47517SOL     OW47235   8.299   6.724   3.848  0.5172  0.3721 -0.2831
47517SOL    HW147236   8.241   6.745   3.775  0.3301  1.5545  0.1734
47517SOL    HW247237   8.240   6.703   3.920  0.6136  1.5258  0.1689
47518SOL     OW47238   5.186   8.547   6.287 -0.0593  0.0493  0.2695
47518SOL    HW147239   5.245   8.622   6.296 -1.4033  1.6523 -2.6416
47518SOL    HW247240   5.183   8.530   6.193 -2.3381 -1.5635  0.5398
47519SOL     OW47241   9.449   1.035   0.128  0.3326  0.2693  1.1249
47519SOL    HW147242   9.449   1.058   0.036 -0.0300  0.6067  1.2090
47519SOL    HW247243   9.503   0.956   0.133 -0.6034 -0.4307  0.4636
47520SOL     OW47244   0.380   8.669   4.594 -0.2436 -0.1163 -0.0720
47520SOL    HW147245   0.297   8.674   4.642 -0.3202  1.3649 -0.3099
47520SOL    HW247246   0.441   8.630   4.657 -0.6286  0.7229  0.8625
47521SOL     OW47247   8.809   5.195   2.600  0.0697 -0.8102 -0.5623
47521SOL    HW147248   8.786   5.199   2.507  3.0511  0.5455 -1.3611
47521SOL    HW247249   8.867   5.119   2.607  1.6526  0.3712 -0.3344
47522SOL     OW47250   1.163  11.604  10.281 -0.0607 -0.2768  0.0249
47522SOL    HW147251   1.110  11.545  10.335 -0.0527  0.6421  1.0778
47522SOL    HW247252   1.193  11.672  10.342 -1.3880  1.7224 -1.4087
47523SOL     OW47253   1.685   6.331   9.078 -0.4363  0.5158 -0.0413
47523SOL    HW147254   1.752   6.336   9.146 -1.5169  0.0084  1.0784
47523SOL    HW247255   1.682   6.420   9.042  0.1585  0.7816  0.5409
47524SOL     OW47256   5.717  10.644   8.692 -0.2392 -0.7608 -0.1209
47524SOL    HW147257   5.657  10.576   8.722 -0.6255 -1.3474 -2.1052
47524SOL    HW247258   5.745  10.615   8.605  0.5559  1.0133 -0.4972
47525SOL     OW47259  10.377   9.738   2.688 -0.9918 -0.7324 -0.0474
47525SOL    HW147260  10.325   9.741   2.768 -0.6389 -1.2356  0.2072
47525SOL    HW247261  10.454   9.685   2.711 -1.4094 -1.8086 -1.0193
47526SOL     OW47262   6.910   2.678   3.142 -0.0139  0.4061 -0.1072
47526SOL    HW147263   6.820   2.650   3.125 -0.0298  1.0176 -1.1021
47526SOL    HW247264   6.961   2.597   3.137 -0.2825  0.2910 -1.2919
47527SOL     OW47265   3.322  11.574  10.486 -0.2241  0.2192 -0.0185
47527SOL    HW147266   3.412  11.548  10.503  0.3469  0.4619 -2.2908
47527SOL    HW247267   3.314  11.662  10.523 -0.0245 -0.3889  1.5216
47528SOL     OW47268   3.146   9.454   8.383 -0.2332 -0.2850  0.1404
47528SOL    HW147269   3.183   9.519   8.323 -0.8303 -0.9404 -0.9768
47528SOL    HW247270   3.222   9.416   8.428  0.3219 -0.4070 -0.8724
47529SOL     OW47271  10.137   8.287   5.780 -0.3790  0.4665 -0.1968
47529SOL    HW147272  10.164   8.214   5.725 -2.5926  0.1492 -0.9710
47529SOL    HW247273  10.147   8.256   5.870  1.3657  0.2743 -0.4143
47530SOL     OW47274  10.062   7.603   2.513  0.4433 -0.8541  0.2328
47530SOL    HW147275  10.125   7.672   2.494  2.1981 -2.4946 -0.1635
47530SOL    HW247276  10.039   7.568   2.427 -1.0429 -0.2856  0.3721
47531SOL     OW47277   1.825   3.243   7.606 -0.2564  0.0214  0.2919
47531SOL    HW147278   1.868   3.263   7.523  0.2858  1.0395  0.7862
47531SOL    HW247279   1.840   3.321   7.659 -0.4095 -0.6949  1.4186
47532SOL     OW47280   9.032  11.090   1.750 -0.0938  0.3752  0.1314
47532SOL    HW147281   9.071  11.083   1.838  0.1424  0.2109  0.0140
47532SOL    HW247282   9.000  11.001   1.731 -2.8013  0.9944  1.2644
47533SOL     OW47283   7.088   5.329  11.741  0.8507  0.2277 -0.1798
47533SOL    HW147284   7.060   5.392  11.807  0.2616 -0.3454  0.1251
47533SOL    HW247285   7.060   5.367  11.658 -3.9264 -1.6772  0.1935
47534SOL     OW47286   9.136   0.890   4.748  0.6953  0.3826 -0.1083
47534SOL    HW147287   9.063   0.844   4.707  0.7761 -0.1553  0.3316
47534SOL    HW247288   9.190   0.919   4.675  0.9388 -0.7361 -0.3944
47535SOL     OW47289   3.816   8.208  11.861  0.2330  0.4495 -0.0237
47535SOL    HW147290   3.900   8.253  11.866  0.3630  0.1730  0.3671
47535SOL    HW247291   3.825   8.134  11.922 -0.0516  0.0262 -0.4835
47536SOL     OW47292  10.640  10.781   6.462  0.9765  0.4090  0.2126
47536SOL    HW147293  10.722  10.753   6.502  0.7176 -0.2617  0.2836
47536SOL    HW247294  10.605  10.846   6.523  2.0890  1.7135 -0.4693
47537SOL     OW47295   1.371   6.680   3.385 -0.2472  0.2671  0.0579
47537SOL    HW147296   1.448   6.623   3.388 -0.4513 -0.0531 -0.6338
47537SOL    HW247297   1.374   6.729   3.467  2.1039  2.1020 -1.0049
47538SOL     OW47298   7.468   2.502  11.529  0.3561  0.3439 -0.8357
47538SOL    HW147299   7.438   2.501  11.620 -2.5665 -0.1736 -1.7117
47538SOL    HW247300   7.550   2.453  11.530 -0.1522 -0.5734  1.3607
47539SOL     OW47301   5.607   0.823   8.468  0.3279  0.4592 -0.1006
47539SOL    HW147302   5.679   0.887   8.468 -0.0381  0.8833  0.3214
47539SOL    HW247303   5.572   0.826   8.379  0.5169  0.6086 -0.1711
47540SOL     OW47304   6.173  11.752   2.994  0.2298 -0.0240  0.0368
47540SOL    HW147305   6.214  11.688   3.053  0.6379 -0.5096 -0.7615
47540SOL    HW247306   6.229  11.830   3.000 -0.0039  0.1007  0.6529
47541SOL     OW47307   4.942   4.423   6.864 -0.1026 -0.5004 -0.6630
47541SOL    HW147308   4.861   4.374   6.874 -0.2370 -0.2411 -0.4565
47541SOL    HW247309   4.938   4.490   6.932 -0.6905  0.8262 -1.9523
47542SOL     OW47310  11.347  10.638   4.994 -0.4958  0.7457 -1.0257
47542SOL    HW147311  11.253  10.653   4.993 -0.4720  0.9160 -2.4229
47542SOL    HW247312  11.368  10.610   4.905  0.5848 -0.5836 -0.4032
47543SOL     OW47313  11.497   8.334   5.706  0.2996 -0.4455 -0.0821
47543SOL    HW147314  11.474   8.256   5.656 -0.8633  1.1067 -2.1153
47543SOL    HW247315  11.587   8.319   5.734  0.4144 -2.1027 -1.2054
47544SOL     OW47316  10.702   7.303  11.695  0.5240 -0.3713  0.1660
47544SOL    HW147317  10.635   7.278  11.632  0.2649  0.3845  0.1248
47544SOL    HW247318  10.718   7.396  11.677  0.3184 -0.0931  1.3147
47545SOL     OW47319  10.253   2.935   1.088  0.0870 -0.3833 -0.6733
47545SOL    HW147320  10.269   2.905   0.998 -0.1124 -1.9273 -0.2346
47545SOL    HW247321  10.339   2.930   1.130 -0.2175 -2.0211 -0.1609
47546SOL     OW47322   2.786   8.651   6.592  0.2089  0.5095  0.4624
47546SOL    HW147323   2.780   8.604   6.675  1.2328 -1.1084 -0.3328
47546SOL    HW247324   2.699   8.689   6.579 -0.6189 -1.0543  1.2361
47547SOL     OW47325   2.572   3.966   9.827 -0.2324 -0.1952  0.8822
47547SOL    HW147326   2.494   3.983   9.774 -0.0966 -0.3969  0.6121
47547SOL    HW247327   2.566   3.873   9.849 -0.1232 -0.1847  0.9534
47548SOL     OW47328   7.082   2.467   0.423 -0.5242  0.0842  0.2141
47548SOL    HW147329   7.056   2.558   0.406  0.8622  0.4289 -0.1793
47548SOL    HW247330   7.039   2.416   0.354 -1.4152  0.4027  0.5118
47549SOL     OW47331   3.076  11.167   8.274 -0.4095 -0.0334  0.1516
47549SOL    HW147332   3.154  11.136   8.228 -0.7303 -0.9295  0.1771
47549SOL    HW247333   3.076  11.119   8.356 -1.8823 -1.3814 -0.5667
47550SOL     OW47334  10.328   5.846   0.711 -0.3593 -0.0643 -0.1031
47550SOL    HW147335  10.395   5.781   0.730 -0.4638 -0.5450 -1.2898
47550SOL    HW247336  10.322   5.899   0.791  1.3706 -0.0468  0.0425
47551SOL     OW47337   7.998   3.385   6.942 -0.3586 -0.2494  0.2680
47551SOL    HW147338   8.082   3.416   6.973 -1.0649  2.8432 -0.5295
47551SOL    HW247339   7.960   3.338   7.016 -0.8393  4.4000  3.4122
47552SOL     OW47340   6.221   6.406   2.617  0.0986 -0.2300  0.5598
47552SOL    HW147341   6.174   6.334   2.573 -0.7292 -0.2073  1.3591
47552SOL    HW247342   6.299   6.419   2.565  0.1416 -1.5527  0.2407
47553SOL     OW47343   4.491   3.477   6.761 -0.2594 -0.3865 -0.4035
47553SOL    HW147344   4.470   3.388   6.788 -2.2426  0.3415  0.5919
47553SOL    HW247345   4.447   3.487   6.676 -1.4722  0.1514  0.2642
47554SOL     OW47346   4.904   5.767   8.149  0.3265 -0.3493 -0.2506
47554SOL    HW147347   4.972   5.809   8.096  0.1405  0.3175  0.0378
47554SOL    HW247348   4.923   5.793   8.239 -1.2752  1.2690 -0.3174
47555SOL     OW47349  11.475   2.255   6.514 -0.4243 -0.5864 -0.3668
47555SOL    HW147350  11.556   2.303   6.531 -0.5687 -0.5135  0.1152
47555SOL    HW247351  11.455   2.211   6.596 -0.8107 -0.6982 -0.5184
47556SOL     OW47352   4.438   2.253   7.509  0.2171 -0.3518 -0.1097
47556SOL    HW147353   4.400   2.336   7.482  3.2811  1.0112 -0.5816
47556SOL    HW247354   4.410   2.242   7.600  0.8522  1.9236  0.4067
47557SOL     OW47355   9.301   1.328   2.563  0.1850 -0.4088  0.2387
47557SOL    HW147356   9.343   1.353   2.645  0.4792 -0.4025  0.0876
47557SOL    HW247357   9.300   1.408   2.511 -1.7841  0.0840  0.9840
47558SOL     OW47358  11.997   4.858   9.859  0.4068  0.4139 -0.1082
47558SOL    HW147359  11.951   4.806   9.794 -0.4789 -1.5354  1.9696
47558SOL    HW247360  12.072   4.805   9.884 -0.2679  0.2770  1.7428
47559SOL     OW47361  10.483   2.464   5.288 -0.3564 -0.1804  0.2106
47559SOL    HW147362  10.577   2.446   5.280 -0.6555 -1.5590 -0.6119
47559SOL    HW247363  10.472   2.548   5.243  0.7293  0.9208  1.9065
47560SOL     OW47364  10.883   1.662   5.500 -0.0939  0.6126 -0.1775
47560SOL    HW147365  10.953   1.646   5.563 -0.6232 -0.4361  0.1684
47560SOL    HW247366  10.836   1.737   5.537  1.3051  1.8651 -0.8438
47561SOL     OW47367   9.421   9.880   0.821  0.2794  0.1021  0.4233
47561SOL    HW147368   9.501   9.903   0.773  0.6273 -1.5865  0.1548
47561SOL    HW247369   9.427   9.786   0.835 -1.6408 -0.0611  0.4447
47562SOL     OW47370   2.097  10.354   7.686 -0.6880  0.4063  0.0511
47562SOL    HW147371   2.172  10.392   7.732  0.6432 -0.5412 -1.2590
47562SOL    HW247372   2.025  10.416   7.702  0.2808  1.1879  1.5731
47563SOL     OW47373  11.766   9.566   3.734  0.3949  0.6156  0.3326
47563SOL    HW147374  11.772   9.505   3.808 -0.9203  0.5644  0.4296
47563SOL    HW247375  11.738   9.649   3.774 -0.9481  0.4232 -0.1615
47564SOL     OW47376   9.316   5.770  10.793 -0.2520 -0.1329  0.4169
47564SOL    HW147377   9.262   5.783  10.715  1.5504 -1.4113 -1.1601
47564SOL    HW247378   9.347   5.857  10.816 -1.1981  0.3250 -0.0112
47565SOL     OW47379   0.807  11.037  11.069 -0.0106  0.3510  0.0084
47565SOL    HW147380   0.772  10.995  11.148  0.1844 -0.4651 -0.3298
47565SOL    HW247381   0.771  10.986  10.997  0.6468  0.4498 -0.3939
47566SOL     OW47382   4.371   4.999   2.231 -0.7673 -0.3378 -0.0853
47566SOL    HW147383   4.360   5.091   2.256 -0.6030  0.1064 -1.5486
47566SOL    HW247384   4.452   4.971   2.275 -0.3515  0.4740 -0.3288
47567SOL     OW47385   8.342   4.641   1.804 -0.5083 -0.2345  0.2968
47567SOL    HW147386   8.256   4.656   1.763  0.5030  4.6682 -0.7562
47567SOL    HW247387   8.327   4.658   1.897 -0.7187  0.9961  0.0639
47568SOL     OW47388   7.385   1.437   2.553  0.6111 -0.0311 -0.3106
47568SOL    HW147389   7.385   1.529   2.577 -0.2594 -0.3194  0.9065
47568SOL    HW247390   7.456   1.398   2.605  0.7257 -0.1205 -0.5307
47569SOL     OW47391   5.379  11.101   6.963  0.0945  0.2529 -0.5157
47569SOL    HW147392   5.287  11.079   6.976  0.0696  1.2104  1.2355
47569SOL    HW247393   5.425  11.061   7.037  0.7620  1.4912 -0.2168
47570SOL     OW47394   4.778   1.130   7.464 -0.5573  0.1801 -0.4365
47570SOL    HW147395   4.857   1.132   7.409  1.3179  0.7457  2.1141
47570SOL    HW247396   4.791   1.057   7.524 -1.4300  0.9673  0.7714
47571SOL     OW47397   5.323   3.886   1.752 -0.6075  0.1211  0.2497
47571SOL    HW147398   5.379   3.812   1.727  0.4907  0.9367  0.2304
47571SOL    HW247399   5.262   3.850   1.817 -1.7903 -1.4221 -1.5851
47572SOL     OW47400   0.049   5.714  11.707 -0.5217  0.0810  0.1074
47572SOL    HW147401  -0.027   5.682  11.757 -2.5034  1.0870 -2.0738
47572SOL    HW247402   0.029   5.806  11.691  0.9128  0.2162 -1.0199
47573SOL     OW47403   5.203   9.662   8.681 -0.2444 -0.4507 -0.1135
47573SOL    HW147404   5.203   9.756   8.663  0.4506 -0.4804 -0.3188
47573SOL    HW247405   5.130   9.649   8.742  0.8152  0.5369  1.4524
47574SOL     OW47406   4.867  11.187   5.528 -0.7722 -0.0370  0.3323
47574SOL    HW147407   4.933  11.239   5.482 -1.3012  0.0878 -0.3140
47574SOL    HW247408   4.824  11.250   5.587 -2.9108  0.9114 -2.0123
47575SOL     OW47409   7.740   8.317   8.744 -0.0454  1.3552  0.7070
47575SOL    HW147410   7.809   8.276   8.795 -1.1275  0.4985  1.5307
47575SOL    HW247411   7.659   8.289   8.786 -1.0354  0.1179 -1.8207
47576SOL     OW47412  11.489   7.134   0.074  0.3002 -0.8347  0.6320
47576SOL    HW147413  11.512   7.190   0.000 -0.5339 -0.1504  0.8734
47576SOL    HW247414  11.499   7.191   0.151 -2.0045 -0.4910  0.7669
47577SOL     OW47415   7.302  11.305   3.781 -0.4290 -0.0340  0.4727
47577SOL    HW147416   7.228  11.337   3.831 -0.8745 -1.5032  0.8076
47577SOL    HW247417   7.337  11.233   3.833  1.3593  0.7460  0.4057
47578SOL     OW47418   3.504   5.826  11.812 -0.5848 -0.3870 -0.9632
47578SOL    HW147419   3.598   5.840  11.799 -0.2414 -0.2561  1.2041
47578SOL    HW247420   3.497   5.733  11.833 -0.4886  0.1032  1.6043
47579SOL     OW47421   9.022  10.719   2.624 -0.1395 -0.0586  0.0152
47579SOL    HW147422   9.092  10.732   2.560 -1.1016  0.5996 -0.9335
47579SOL    HW247423   8.955  10.670   2.576  0.0103 -1.4286  1.1633
47580SOL     OW47424   2.705  11.954   0.899 -0.2995 -0.2091 -0.5791
47580SOL    HW147425   2.778  11.893   0.908 -0.0814  0.1829  0.5042
47580SOL    HW247426   2.737  12.021   0.839 -0.4985 -1.0762 -1.6812
47581SOL     OW47427   5.734   3.899   4.627  0.0164  0.8362 -0.0869
47581SOL    HW147428   5.689   3.984   4.623  2.3290  2.1752  0.3675
47581SOL    HW247429   5.680   3.841   4.572 -1.2713  2.7691 -0.9907
47582SOL     OW47430  11.677   5.142   2.077  0.1258  0.1593  0.3087
47582SOL    HW147431  11.638   5.156   2.164 -0.3410  1.4221 -0.0757
47582SOL    HW247432  11.761   5.099   2.095  1.0539  2.3173  1.5988
47583SOL     OW47433   2.194   6.470   2.201  0.3275 -0.0238  0.3515
47583SOL    HW147434   2.286   6.496   2.193 -0.0606  1.0357 -1.3487
47583SOL    HW247435   2.179   6.415   2.124 -1.1850  2.3451 -1.1930
47584SOL     OW47436   4.671   4.950   9.042 -0.1425 -0.0724  0.3342
47584SOL    HW147437   4.596   4.998   9.008 -0.4098 -0.5720  0.2143
47584SOL    HW247438   4.703   5.004   9.115 -1.3048 -0.4068  1.1115
47585SOL     OW47439   9.242   8.196   2.634  0.1869  0.0670  0.0705
47585SOL    HW147440   9.211   8.285   2.614  1.9870  0.6116 -0.5517
47585SOL    HW247441   9.167   8.140   2.614 -0.7958  1.3888 -0.1397
47586SOL     OW47442   0.677   3.972   9.777  0.0742  0.0336  0.3112
47586SOL    HW147443   0.751   3.932   9.730 -0.5194  1.1362 -1.6773
47586SOL    HW247444   0.618   4.000   9.707 -0.8199  1.8757  1.7521
47587SOL     OW47445   3.855   4.465   5.779  0.4583 -0.0525  0.1073
47587SOL    HW147446   3.919   4.463   5.708  0.4943  1.3088  0.0757
47587SOL    HW247447   3.839   4.373   5.799  0.5690 -0.4693 -1.5505
47588SOL     OW47448   2.464   2.121  10.111 -0.0139 -0.0138 -0.0157
47588SOL    HW147449   2.454   2.091  10.202  0.6701 -0.8100 -0.1918
47588SOL    HW247450   2.394   2.185  10.100  0.5289  0.8770  1.3907
47589SOL     OW47451   4.256   7.714   1.957 -0.0356  0.5922  0.0383
47589SOL    HW147452   4.337   7.765   1.963  0.8253 -0.8219  0.7413
47589SOL    HW247453   4.218   7.719   2.045  1.6016 -2.3637  1.0572
47590SOL     OW47454   4.274   1.950   8.003 -0.1923 -0.3330 -0.3686
47590SOL    HW147455   4.267   2.009   7.928  0.1514  1.6436  1.0622
47590SOL    HW247456   4.360   1.969   8.041 -0.6256 -0.7742  0.8936
47591SOL     OW47457   3.022   3.031   3.915 -0.2987 -0.2846 -0.2142
47591SOL    HW147458   3.000   3.077   3.995  0.5321 -1.2226  0.5764
47591SOL    HW247459   3.028   3.100   3.849  1.7784  0.9004  1.1048
47592SOL     OW47460   0.363   0.036  10.819 -0.4727  0.0631 -0.3972
47592SOL    HW147461   0.272   0.066  10.817 -0.7261 -0.7323 -1.2929
47592SOL    HW247462   0.415   0.117  10.815 -1.1124  0.5696  0.8582
47593SOL     OW47463   6.174  11.432   0.892  0.4017 -0.5035  0.5160
47593SOL    HW147464   6.168  11.419   0.797  1.4639 -0.3278  0.4113
47593SOL    HW247465   6.107  11.375   0.928 -2.7577  2.2151 -0.5066
47594SOL     OW47466  11.130   1.973   2.422 -0.2866  0.8541  0.1958
47594SOL    HW147467  11.055   1.928   2.461  1.6554 -2.0769  0.9217
47594SOL    HW247468  11.189   1.988   2.496  0.6046  1.4406 -0.6169
47595SOL     OW47469   7.125  11.195   1.542 -0.3666  0.1024 -0.3376
47595SOL    HW147470   7.139  11.100   1.540 -0.0445  0.1475 -2.0693
47595SOL    HW247471   7.037  11.207   1.505 -0.3028  0.4840 -0.3720
47596SOL     OW47472   6.781   9.296  11.723 -0.4707  0.3162 -0.0104
47596SOL    HW147473   6.696   9.271  11.686  0.1248 -2.0488  0.0454
47596SOL    HW247474   6.831   9.328  11.648 -1.1349  0.9216 -0.1985
47597SOL     OW47475   9.598   0.755   5.489  0.2370 -0.2770 -0.0968
47597SOL    HW147476   9.554   0.674   5.513  0.5735 -0.1308  1.0706
47597SOL    HW247477   9.612   0.801   5.572  1.2890  0.3347 -0.5897
47598SOL     OW47478   4.117   3.128   7.412  0.1014 -0.1693 -0.2227
47598SOL    HW147479   4.142   3.035   7.408  1.0106  0.0385  0.2971
47598SOL    HW247480   4.107   3.154   7.321 -1.6689 -1.1591 -0.3498
47599SOL     OW47481  11.785   8.609   2.296  0.4098  0.7691 -0.3506
47599SOL    HW147482  11.813   8.693   2.261 -0.6793  1.1296 -0.3847
47599SOL    HW247483  11.748   8.630   2.382  1.5171  0.1162  0.3110
47600SOL     OW47484   9.564   1.342  10.738 -0.2925  0.1334  0.4912
47600SOL    HW147485   9.645   1.335  10.688 -2.0783 -1.2558 -2.4476
47600SOL    HW247486   9.528   1.428  10.713  0.7214  1.2741  2.6869
47601SOL     OW47487  10.968   5.215   1.026 -0.2552  0.6036  0.5920
47601SOL    HW147488  10.978   5.228   0.932 -1.7373  1.5914  0.5296
47601SOL    HW247489  10.876   5.190   1.037 -0.1477  0.6852  1.7852
47602SOL     OW47490   0.134   9.340  10.130 -0.2416  0.1561 -0.2767
47602SOL    HW147491   0.187   9.342  10.210  0.7135 -0.9344 -0.8446
47602SOL    HW247492   0.160   9.418  10.081 -0.8740  0.8635  0.4747
47603SOL     OW47493   3.158   9.759   3.024  0.1869 -0.0018 -0.0778
47603SOL    HW147494   3.093   9.794   3.085 -0.8839 -2.1695  0.1298
47603SOL    HW247495   3.137   9.799   2.940 -1.2183 -0.3857  0.0670
47604SOL     OW47496   4.306   6.268   9.091  0.2169  0.0795 -0.3959
47604SOL    HW147497   4.248   6.194   9.076  0.6387 -0.4708  0.6265
47604SOL    HW247498   4.268   6.314   9.165  1.6396 -0.9020  0.9978
47605SOL     OW47499   8.632   6.081  10.459  0.1943 -0.2494 -0.4937
47605SOL    HW147500   8.656   6.108  10.547 -1.0730 -1.6105  0.3261
47605SOL    HW247501   8.660   6.153  10.402  2.0769  0.1422  0.8632
47606SOL     OW47502   3.963   9.940  10.592 -0.0010  0.5769 -0.1084
47606SOL    HW147503   3.998  10.020  10.631 -0.3532 -0.1308  1.7694
47606SOL    HW247504   3.984   9.872  10.655  0.4604 -0.8828 -1.7525
47607SOL     OW47505   9.575   3.141   8.670  0.5052  0.2789  0.1103
47607SOL    HW147506   9.531   3.170   8.590 -0.3127 -1.3992 -0.0746
47607SOL    HW247507   9.515   3.168   8.740  0.3974  0.2379  0.0353
47608SOL     OW47508   4.776   6.879   9.756  0.0977  0.8842 -0.3354
47608SOL    HW147509   4.815   6.829   9.684  0.4908 -0.5050  0.7900
47608SOL    HW247510   4.777   6.818   9.830 -1.8801  1.6680  0.3999
47609SOL     OW47511   6.993   0.120   8.940 -0.5610  0.2948 -0.4012
47609SOL    HW147512   7.021   0.211   8.933 -1.7159  0.6087 -1.1966
47609SOL    HW247513   7.075   0.070   8.941  0.0701  1.2395 -1.5782
47610SOL     OW47514   1.976   5.040   5.888 -0.2999  0.4375  0.0514
47610SOL    HW147515   1.995   5.123   5.931 -1.8741  0.4603  0.7344
47610SOL    HW247516   2.035   4.977   5.930 -1.1552  0.6401  1.6227
47611SOL     OW47517   6.057   3.814   1.703 -0.1814  0.6516 -0.8449
47611SOL    HW147518   6.123   3.883   1.710  0.8432 -0.1633 -2.0402
47611SOL    HW247519   5.999   3.843   1.632  0.4971  0.1129 -1.6363
47612SOL     OW47520   4.127   9.544   6.930  0.7013  0.3218  0.3528
47612SOL    HW147521   4.103   9.609   6.996  1.0637 -0.6794  1.5088
47612SOL    HW247522   4.219   9.525   6.948  1.1122  0.7881 -1.1251
47613SOL     OW47523   6.440   2.762   1.174  0.1911  0.3300 -0.2878
47613SOL    HW147524   6.482   2.790   1.255  1.7088 -1.2213 -0.4707
47613SOL    HW247525   6.404   2.842   1.136 -0.3888  1.1226  1.7965
47614SOL     OW47526   6.418   5.002   2.592  0.2750 -0.3476 -0.4879
47614SOL    HW147527   6.441   4.972   2.680 -2.2856 -0.8474  0.0763
47614SOL    HW247528   6.367   4.930   2.555 -1.7963  1.2869 -0.9599
47615SOL     OW47529   8.203   9.673  10.435 -0.4628  0.5381 -0.0524
47615SOL    HW147530   8.273   9.715  10.385  0.7244 -0.6068  0.5790
47615SOL    HW247531   8.189   9.589  10.391 -0.4719  0.1801  0.6187
47616SOL     OW47532   5.361   5.687   6.686 -0.3498  0.5487 -0.8087
47616SOL    HW147533   5.313   5.606   6.668  0.6694  0.3983 -3.1780
47616SOL    HW247534   5.442   5.658   6.727 -0.9731  0.5882  0.5038
47617SOL     OW47535   9.564   0.511   4.634 -0.1110  0.0428 -0.1085
47617SOL    HW147536   9.575   0.464   4.717  1.6127  1.9452  0.8288
47617SOL    HW247537   9.633   0.476   4.577  0.2650  0.4060  0.1138
47618SOL     OW47538   0.875   0.764  10.619 -0.0252  0.2413 -0.5012
47618SOL    HW147539   0.812   0.835  10.613 -1.5090 -0.9873 -0.1224
47618SOL    HW247540   0.893   0.739  10.528 -1.3869 -0.4595 -0.6077
47619SOL     OW47541   4.061   9.968   2.614  0.5477  0.4109  0.5091
47619SOL    HW147542   4.071  10.061   2.593  0.4724  0.5373  1.0100
47619SOL    HW247543   4.108   9.957   2.697 -1.3111  0.4997  1.6311
47620SOL     OW47544  11.310   4.988   3.112  0.1388  0.5024 -0.4132
47620SOL    HW147545  11.250   4.997   3.038  1.7435 -0.1096 -1.8736
47620SOL    HW247546  11.352   4.903   3.098  0.5503  0.4228  1.1701
47621SOL     OW47547   4.026   1.389   0.240  0.2441 -0.9771 -0.0449
47621SOL    HW147548   4.029   1.317   0.304 -1.9252  1.2827  2.9024
47621SOL    HW247549   3.937   1.386   0.205  0.2451  0.0037 -0.1513
47622SOL     OW47550   9.296   8.922   8.965 -0.4078  0.6403 -0.2860
47622SOL    HW147551   9.313   9.016   8.974 -1.1278  0.7239  0.2367
47622SOL    HW247552   9.283   8.891   9.054  2.5372 -0.5173 -0.1262
47623SOL     OW47553   5.668   5.503   8.278  0.1336  0.0335  0.6460
47623SOL    HW147554   5.602   5.499   8.209  0.9204 -2.1909 -0.0594
47623SOL    HW247555   5.738   5.556   8.242 -1.0208  2.0702  1.2437
47624SOL     OW47556   8.491   3.973   5.756  0.5171  0.0439  0.3943
47624SOL    HW147557   8.482   3.949   5.664 -2.8524 -0.1302  0.6423
47624SOL    HW247558   8.494   3.890   5.803 -0.7311  0.0931  0.5917
47625SOL     OW47559   3.431   7.826   5.758  0.2801 -0.4091  0.4023
47625SOL    HW147560   3.367   7.873   5.705 -0.4621 -0.3818  1.3030
47625SOL    HW247561   3.444   7.743   5.712  1.5406  0.6002 -1.1596
47626SOL     OW47562   2.961   1.660   6.003 -0.0515  0.0856 -0.3627
47626SOL    HW147563   2.949   1.568   6.027  0.4057  0.6321  2.2284
47626SOL    HW247564   2.874   1.699   6.010  0.0251  0.1765  0.0824
47627SOL     OW47565   1.403   9.035   7.209 -0.2893 -0.0669 -0.3368
47627SOL    HW147566   1.321   9.083   7.222 -0.0758  0.4487 -0.8504
47627SOL    HW247567   1.385   8.977   7.134 -0.8186 -1.4308  0.8053
47628SOL     OW47568   5.615   2.102   7.820 -0.5259  0.0644  0.3260
47628SOL    HW147569   5.622   2.197   7.810 -0.8256  0.0097 -0.5136
47628SOL    HW247570   5.628   2.087   7.914  2.2858  0.6807  0.1174
47629SOL     OW47571   0.084   4.526   6.613  0.1327  0.5470  0.2087
47629SOL    HW147572   0.038   4.529   6.697 -0.1793  1.7436  0.0276
47629SOL    HW247573   0.088   4.433   6.591  1.6269  0.0591  2.2794
47630SOL     OW47574   7.644   7.701   8.960 -0.6645  0.2424 -0.3059
47630SOL    HW147575   7.581   7.657   9.017 -1.5943  1.2269 -0.5438
47630SOL    HW247576   7.720   7.644   8.960 -1.6072 -1.0553 -0.1195
47631SOL     OW47577   4.395   1.650  11.350  0.0261 -0.6554 -0.0559
47631SOL    HW147578   4.309   1.615  11.375 -0.0278 -1.4634 -1.2822
47631SOL    HW247579   4.382   1.745  11.350 -0.2600 -0.6455  1.8098
47632SOL     OW47580   0.525   7.488   9.860  0.1430 -0.0723 -0.4836
47632SOL    HW147581   0.599   7.462   9.915 -1.0825 -2.3994  0.1877
47632SOL    HW247582   0.534   7.434   9.781 -0.8836 -0.4558 -0.3457
47633SOL     OW47583   2.480  11.391   5.000 -0.4459 -0.1544 -0.5295
47633SOL    HW147584   2.546  11.327   4.973 -1.5294 -0.7877 -1.8259
47633SOL    HW247585   2.484  11.391   5.095  1.3980 -0.1799 -0.5557
47634SOL     OW47586   1.963   6.675  11.131 -0.5583  0.5304  0.1597
47634SOL    HW147587   1.972   6.711  11.043 -0.1858  2.4983  0.9562
47634SOL    HW247588   2.051   6.683  11.169 -0.7614 -0.1177  0.7891
47635SOL     OW47589   5.199   7.898  11.404  0.2052  0.0588 -0.5717
47635SOL    HW147590   5.215   7.987  11.373 -1.9819  0.5434 -0.4620
47635SOL    HW247591   5.105   7.886  11.393  0.3959 -2.1075 -0.1908
47636SOL     OW47592   6.224   9.627   7.310  0.0711 -0.3450 -0.2389
47636SOL    HW147593   6.141   9.666   7.338  0.1393  1.3566 -2.1561
47636SOL    HW247594   6.254   9.683   7.239  2.7817 -1.0496  0.2360
47637SOL     OW47595   7.087   1.315   5.493 -0.1860 -0.0776 -0.0824
47637SOL    HW147596   7.090   1.310   5.588  1.9559  0.0880 -0.0932
47637SOL    HW247597   7.074   1.225   5.464 -1.3223 -0.0705  0.3331
47638SOL     OW47598   0.207   5.871   0.620  0.2686  0.4933 -0.1073
47638SOL    HW147599   0.244   5.841   0.536  0.5314  1.9076 -0.5103
47638SOL    HW247600   0.253   5.818   0.686 -1.6105 -2.3458 -0.9105
47639SOL     OW47601   5.723   4.191   8.594  0.1580  0.2655  0.1937
47639SOL    HW147602   5.735   4.286   8.592 -0.6027  0.3681  0.1190
47639SOL    HW247603   5.645   4.176   8.540  0.5149 -0.4411 -0.1397
47640SOL     OW47604   8.374   6.077   1.057  0.0909 -0.2812  0.0639
47640SOL    HW147605   8.406   6.142   0.994 -1.1099  0.9933  0.7017
47640SOL    HW247606   8.323   6.015   1.005  1.8328 -1.1692 -0.6577
47641SOL     OW47607  11.499   3.988  11.940 -0.1056 -0.0219  0.2559
47641SOL    HW147608  11.502   4.032  11.854  0.8755 -1.1701 -0.3103
47641SOL    HW247609  11.507   3.895  11.920  0.7391 -0.2716  1.6425
47642SOL     OW47610   6.848   3.552   6.061  0.2654  0.2121  0.8955
47642SOL    HW147611   6.848   3.565   5.966 -0.4994  0.2377  0.8906
47642SOL    HW247612   6.940   3.543   6.084  0.3714 -2.5004 -0.2163
47643SOL     OW47613   9.619  10.241   3.240  0.0035  0.2985  0.5941
47643SOL    HW147614   9.530  10.253   3.272 -0.2124 -0.5155  0.3217
47643SOL    HW247615   9.611  10.175   3.171  0.3973  2.1391 -1.3256
47644SOL     OW47616   3.867   5.433   1.406  0.3352  0.7819 -0.5236
47644SOL    HW147617   3.884   5.451   1.313  2.8972  0.7885 -0.1271
47644SOL    HW247618   3.925   5.493   1.453 -0.2216  0.1264  1.0713
47645SOL     OW47619   7.702  11.940   7.068  0.7804 -0.4403 -0.5489
47645SOL    HW147620   7.666  11.865   7.020 -0.5402  0.4278 -0.9677
47645SOL    HW247621   7.668  12.016   7.021 -1.4152  0.4872  2.2683
47646SOL     OW47622   5.368   4.337   3.880 -0.7367  0.3585 -0.1812
47646SOL    HW147623   5.440   4.324   3.942 -0.0186  1.3173 -0.7839
47646SOL    HW247624   5.361   4.432   3.871 -2.4990  0.3188  0.3262
47647SOL     OW47625   1.414  11.319  10.906 -0.0492  0.3301  0.2410
47647SOL    HW147626   1.350  11.363  10.962  0.1272  0.1365  0.6031
47647SOL    HW247627   1.450  11.249  10.962  0.2659  0.2541 -0.0526
47648SOL     OW47628   4.889   3.295   6.801 -0.2846  0.1988  0.3348
47648SOL    HW147629   4.839   3.376   6.815 -1.0926 -0.3839  0.8940
47648SOL    HW247630   4.957   3.320   6.739 -0.0259  1.5112  1.1024
47649SOL     OW47631   4.919   8.932  11.616 -0.7273 -0.3623  0.4780
47649SOL    HW147632   4.995   8.930  11.559  0.6426 -0.6925  2.2371
47649SOL    HW247633   4.864   9.003  11.581  0.8150  0.4940 -0.2939
47650SOL     OW47634   1.857   0.799   4.096  0.3203 -0.4753 -0.7559
47650SOL    HW147635   1.779   0.749   4.119 -0.4003  1.0396  0.2503
47650SOL    HW247636   1.845   0.819   4.003 -1.0922  0.6621 -0.3802
47651SOL     OW47637   0.125   1.331  11.559 -0.0431 -0.0035 -0.0218
47651SOL    HW147638   0.181   1.281  11.499 -0.6935 -0.0315 -0.6195
47651SOL    HW247639   0.186   1.369  11.623  0.5582 -0.8113 -0.0908
47652SOL     OW47640   6.153   2.739   9.837 -0.6980 -0.2445 -0.5627
47652SOL    HW147641   6.198   2.714   9.757  0.3031  1.5143 -0.6052
47652SOL    HW247642   6.114   2.825   9.816 -0.4095  0.2460  0.8164
47653SOL     OW47643   4.111   3.689   1.729 -0.3459 -0.0041 -0.2056
47653SOL    HW147644   4.109   3.628   1.655 -0.5756  0.0398 -0.2372
47653SOL    HW247645   4.133   3.773   1.691  2.0873 -0.4256  0.1002
47654SOL     OW47646   2.247   7.592   5.175  0.4257  0.4917 -0.6443
47654SOL    HW147647   2.286   7.664   5.125  0.4276  0.3746 -0.8143
47654SOL    HW247648   2.153   7.610   5.174  0.4884  0.8420 -0.1237
47655SOL     OW47649   7.357   8.615   1.386  0.1935  0.4943  0.3661
47655SOL    HW147650   7.275   8.575   1.357  0.9883 -0.1491 -1.1413
47655SOL    HW247651   7.401   8.641   1.305  1.8569  0.0247  1.0580
47656SOL     OW47652   1.698   5.558   5.593  0.5134 -0.0539  0.2166
47656SOL    HW147653   1.706   5.468   5.561  1.3439 -1.0331  2.9022
47656SOL    HW247654   1.771   5.605   5.553 -0.3703 -0.3282 -1.8142
47657SOL     OW47655   0.137   2.347   5.752  0.4762 -0.7839  0.3349
47657SOL    HW147656   0.228   2.352   5.724  0.1830 -1.5214 -0.8581
47657SOL    HW247657   0.133   2.269   5.808  0.3476 -1.5344 -0.6832
47658SOL     OW47658   5.074   4.022   4.859  0.3484  0.2645 -0.5545
47658SOL    HW147659   5.146   4.009   4.797  1.1376  1.3560  0.1021
47658SOL    HW247660   5.118   4.043   4.942 -0.7312  0.7020 -0.0862
47659SOL     OW47661  10.416   9.665   7.186  0.0914  0.1780 -0.1451
47659SOL    HW147662  10.497   9.616   7.200 -0.2791  0.0853  2.2671
47659SOL    HW247663  10.443   9.742   7.138  1.4663 -0.2856 -0.1842
47660SOL     OW47664   4.631  11.901   3.352 -0.3267 -0.4539  0.3863
47660SOL    HW147665   4.580  11.962   3.299  1.5051  2.6158  1.8619
47660SOL    HW247666   4.590  11.905   3.438  0.9485  0.2496  0.9823
47661SOL     OW47667   2.967   1.544   8.029 -0.5981  0.0393 -0.4520
47661SOL    HW147668   2.942   1.608   7.963 -1.4932  0.0315 -0.1321
47661SOL    HW247669   2.940   1.583   8.112  0.3539 -0.0319 -0.0917
47662SOL     OW47670   7.401   5.152  11.470 -0.5385  0.5356  0.1817
47662SOL    HW147671   7.403   5.210  11.394 -0.6790 -0.0782 -0.2917
47662SOL    HW247672   7.346   5.079  11.444  1.8969 -1.2534 -0.2757
47663SOL     OW47673  11.824  10.567   3.894  0.1437 -0.2644  0.1219
47663SOL    HW147674  11.831  10.530   3.982 -2.8327 -3.1801 -0.6324
47663SOL    HW247675  11.803  10.659   3.909  0.4272 -0.4931  2.4238
47664SOL     OW47676   0.638   8.988   2.809  0.1483  0.6542  0.3474
47664SOL    HW147677   0.714   8.995   2.867  0.1033  1.5760  0.3021
47664SOL    HW247678   0.594   8.908   2.838  0.9274  0.3024  0.6138
47665SOL     OW47679   1.097   7.597   1.351  0.6373 -0.1493  0.0812
47665SOL    HW147680   1.165   7.539   1.316  0.5551  0.1448 -0.5908
47665SOL    HW247681   1.138   7.683   1.356  1.3451 -0.5647  2.8323
47666SOL     OW47682   4.143   6.672   9.911  0.2837  0.3005  0.9167
47666SOL    HW147683   4.194   6.591   9.917 -0.5005 -0.3005 -0.3077
47666SOL    HW247684   4.069   6.650   9.855  0.4770  2.0804 -0.1047
47667SOL     OW47685   9.545   2.613   3.622 -0.3061  0.2331  0.0888
47667SOL    HW147686   9.621   2.597   3.565 -0.9646  0.5609 -0.9122
47667SOL    HW247687   9.555   2.705   3.649 -0.7010  0.4905 -0.6116
47668SOL     OW47688   6.010   8.941   7.989 -0.0692 -0.0195 -0.2605
47668SOL    HW147689   5.944   8.903   7.930  1.8363 -3.4949 -0.4456
47668SOL    HW247690   6.044   9.017   7.941 -1.8562  0.0885 -1.4455
47669SOL     OW47691   6.618   5.768   9.985  0.1795  0.0970 -0.4657
47669SOL    HW147692   6.560   5.809   9.921  0.4949 -0.4177 -1.0889
47669SOL    HW247693   6.642   5.684   9.946  4.3953  1.7617 -2.0472
47670SOL     OW47694   8.387   0.307   5.469  0.4444  0.2905 -0.3476
47670SOL    HW147695   8.300   0.343   5.487  0.9113  1.0036  0.5820
47670SOL    HW247696   8.370   0.222   5.427 -0.7283 -0.2857  1.2002
47671SOL     OW47697   5.816   9.639   9.072  0.0060  0.0369 -0.1628
47671SOL    HW147698   5.747   9.668   9.012  0.4061  1.7431  0.1488
47671SOL    HW247699   5.776   9.567   9.122 -1.5635  0.9723  0.0014
47672SOL     OW47700   1.703   3.984   7.030  0.6715  0.1520 -0.3040
47672SOL    HW147701   1.620   3.939   7.044  0.1334  1.5409  1.2423
47672SOL    HW247702   1.764   3.943   7.092  0.8885 -0.1721 -0.7224
47673SOL     OW47703   3.633   5.474   2.089 -0.3081 -0.2952 -0.3277
47673SOL    HW147704   3.656   5.386   2.119  1.7439 -0.0951 -1.1880
47673SOL    HW247705   3.634   5.527   2.169  1.7006 -0.4452 -0.1931
47674SOL     OW47706   4.102  11.748  11.962  0.2227  0.1732  0.1833
47674SOL    HW147707   4.177  11.751  12.020  0.7419  1.9264 -0.5136
47674SOL    HW247708   4.091  11.838  11.931 -0.2708 -0.5971 -2.1236
47675SOL     OW47709   5.754   5.079   1.865 -0.0464 -0.2708 -0.2542
47675SOL    HW147710   5.714   4.999   1.900  0.7691 -0.8698 -0.6789
47675SOL    HW247711   5.845   5.056   1.849  0.0627  0.5762 -0.9279
47676SOL     OW47712   7.486  10.277  10.010 -0.1473 -0.2030 -0.9513
47676SOL    HW147713   7.564  10.291  10.064  0.7172 -0.1147 -2.1738
47676SOL    HW247714   7.478  10.182  10.004  0.8542 -0.2425 -2.1399
47677SOL     OW47715   6.440   2.133   6.592  0.0893  0.1271 -0.1664
47677SOL    HW147716   6.348   2.154   6.606  0.2282 -0.1295  1.2439
47677SOL    HW247717   6.465   2.079   6.667  0.8185 -1.7131 -1.6337
47678SOL     OW47718   8.012   4.060   1.805  0.6101  0.1836 -0.0897
47678SOL    HW147719   8.028   4.070   1.711  0.1990  2.3999  0.0092
47678SOL    HW247720   7.949   4.129   1.826 -1.1231 -1.7443  1.4248
47679SOL     OW47721   7.340   2.129   3.991 -0.2168 -0.3946  0.2781
47679SOL    HW147722   7.423   2.096   3.958  0.1624 -0.9179  1.6570
47679SOL    HW247723   7.309   2.061   4.052 -1.0325  0.3379  0.7146
47680SOL     OW47724   6.781   2.379   4.820  0.2081  0.0247 -0.0167
47680SOL    HW147725   6.823   2.345   4.899 -0.2626  1.1252  0.7287
47680SOL    HW247726   6.820   2.465   4.806 -0.9303  0.5734  0.0249
47681SOL     OW47727   8.615   7.389   8.743  0.1367 -0.5097 -0.4184
47681SOL    HW147728   8.557   7.386   8.666 -1.8737  1.3477  0.8853
47681SOL    HW247729   8.557   7.372   8.817  0.7183  3.3130  1.1374
47682SOL     OW47730   9.423   7.120   1.292  0.1120  0.5306  0.2218
47682SOL    HW147731   9.475   7.041   1.279  0.3482  0.7611 -0.2577
47682SOL    HW247732   9.457   7.182   1.227 -1.7883  0.1831 -1.1813
47683SOL     OW47733   5.091   6.674   5.160 -0.8202 -0.0246  0.7787
47683SOL    HW147734   5.059   6.599   5.210 -1.1663 -2.1928 -2.3917
47683SOL    HW247735   5.016   6.703   5.109  0.0517  0.6336 -0.1799
47684SOL     OW47736   5.630   2.146   4.668  0.0832  0.4104  0.7266
47684SOL    HW147737   5.708   2.124   4.719  0.2013 -0.2634  0.2612
47684SOL    HW247738   5.566   2.078   4.690  0.6296 -0.7778 -1.1262
47685SOL     OW47739   1.314   1.827   7.666  0.1860 -0.0373 -0.2918
47685SOL    HW147740   1.256   1.878   7.723  0.5559  0.0794 -0.0129
47685SOL    HW247741   1.294   1.858   7.577  0.5952  0.7985 -0.1053
47686SOL     OW47742   5.024   0.310   7.569 -0.3971 -0.2782  0.3535
47686SOL    HW147743   4.964   0.349   7.504 -0.3019 -0.5093  0.1252
47686SOL    HW247744   5.071   0.384   7.606  1.5994 -0.3187 -1.8581
47687SOL     OW47745  10.093   2.952   5.085 -0.3706 -0.5818 -0.0491
47687SOL    HW147746  10.077   2.943   5.179 -1.3416  1.6713  0.0683
47687SOL    HW247747  10.064   3.041   5.064  0.5976 -0.7318 -2.3375
47688SOL     OW47748   2.235   7.001   8.384  0.5261  0.5755 -0.5763
47688SOL    HW147749   2.252   6.947   8.461 -5.1936 -1.6013 -0.4145
47688SOL    HW247750   2.251   7.090   8.414 -0.1333 -0.2763  2.7384
47689SOL     OW47751   4.623   1.159   9.768  0.4360 -0.4533 -0.0116
47689SOL    HW147752   4.626   1.209   9.850 -3.3981 -0.0219  0.0316
47689SOL    HW247753   4.660   1.219   9.703 -1.3084  1.3543  0.5625
47690SOL     OW47754  10.067   7.457   7.101  0.2453  0.9482 -0.1831
47690SOL    HW147755  10.083   7.363   7.098  0.3893  0.9323  0.6953
47690SOL    HW247756   9.976   7.467   7.075  0.4712  0.6493 -1.1246
47691SOL     OW47757   7.574   5.490   9.448 -0.3109 -0.2526  0.0748
47691SOL    HW147758   7.630   5.497   9.371 -1.1466 -0.2692 -0.5461
47691SOL    HW247759   7.565   5.396   9.463 -0.3380 -0.2546  0.0466
47692SOL     OW47760   2.055   7.659   2.369  0.3149  0.2971 -0.2483
47692SOL    HW147761   1.971   7.697   2.394  0.1060 -0.0958 -0.3524
47692SOL    HW247762   2.076   7.598   2.440  0.2909  0.0556 -0.4477
47693SOL     OW47763   7.868   7.230   1.645  0.2858  0.5164 -0.4929
47693SOL    HW147764   7.958   7.197   1.634  0.3909  1.1283 -1.6116
47693SOL    HW247765   7.868   7.268   1.733  1.2149  0.7805 -0.5908
47694SOL     OW47766   1.562   8.407   7.287  0.2141 -0.6636  0.1946
47694SOL    HW147767   1.651   8.376   7.301  0.0850 -1.2828 -0.3270
47694SOL    HW247768   1.521   8.341   7.231 -0.2935  0.0882 -0.3423
47695SOL     OW47769  11.847   6.300   1.096 -0.1033  0.4484 -0.4151
47695SOL    HW147770  11.824   6.355   1.021 -0.9165 -0.8144 -1.1320
47695SOL    HW247771  11.768   6.247   1.112 -0.3724  1.4748  2.0709
47696SOL     OW47772   2.561   0.040   7.629  0.1671 -0.4956  0.0246
47696SOL    HW147773   2.602   0.046   7.716 -0.5951  0.6684  0.3310
47696SOL    HW247774   2.479  -0.007   7.645 -0.0615 -0.1153 -0.0318
47697SOL     OW47775  10.295  11.599   4.503 -0.1718 -0.4842 -0.1923
47697SOL    HW147776  10.261  11.512   4.527 -1.3358 -0.1225 -0.4788
47697SOL    HW247777  10.381  11.581   4.464  0.2483 -1.3709  1.0914
47698SOL     OW47778   6.683   8.399   4.366  0.5814  0.0737  0.3211
47698SOL    HW147779   6.694   8.492   4.347  1.1266 -0.2731 -1.1569
47698SOL    HW247780   6.656   8.361   4.283 -2.2591 -0.7104  1.4941
47699SOL     OW47781   0.628   6.210   1.429  0.5245  0.0040  0.1244
47699SOL    HW147782   0.579   6.256   1.361  1.2254  2.3134  1.0792
47699SOL    HW247783   0.576   6.220   1.508  0.5548 -1.1641  0.3196
47700SOL     OW47784   1.333   9.651  11.282 -0.6135 -0.2563  0.1615
47700SOL    HW147785   1.408   9.705  11.258 -1.4736  1.3505  0.9985
47700SOL    HW247786   1.368   9.589  11.347  0.3576 -0.7160 -0.7609
47701SOL     OW47787   4.188  11.938   3.357 -0.6872  0.2701  0.0407
47701SOL    HW147788   4.177  11.843   3.362 -1.5062  0.3018 -0.9085
47701SOL    HW247789   4.114  11.974   3.405 -0.7893  0.4328 -0.2361
47702SOL     OW47790   3.067   5.164   7.485 -0.3969  0.2157  0.6562
47702SOL    HW147791   3.051   5.256   7.508  0.0482  0.6215 -0.5716
47702SOL    HW247792   3.080   5.120   7.569 -3.2585  0.7364  1.4636
47703SOL     OW47793   1.937   1.406  10.384  0.1671 -0.2385 -0.1763
47703SOL    HW147794   1.952   1.450  10.301  0.9636 -0.4355 -0.1506
47703SOL    HW247795   1.911   1.317  10.359 -0.3509 -0.0752 -0.2198
47704SOL     OW47796   2.552   3.906   4.135 -0.4163 -0.1170 -0.0506
47704SOL    HW147797   2.613   3.963   4.089 -2.1777 -0.1934 -2.6702
47704SOL    HW247798   2.599   3.880   4.214  2.1229  1.4087 -0.9377
47705SOL     OW47799   1.311   0.220   7.699  0.5746  0.4579 -0.3321
47705SOL    HW147800   1.324   0.311   7.673 -0.1071  0.3637 -1.0222
47705SOL    HW247801   1.244   0.187   7.640 -0.3548 -0.0390  0.9558
47706SOL     OW47802  11.606   4.253   0.617  0.5409 -0.6516 -0.2558
47706SOL    HW147803  11.542   4.227   0.684  0.9811  1.0272  0.8699
47706SOL    HW247804  11.558   4.245   0.534 -0.8041 -0.4740  0.4688
47707SOL     OW47805  11.468   2.273   0.331 -0.4324  0.3634  0.2639
47707SOL    HW147806  11.408   2.200   0.348 -0.7392  0.5052 -0.1617
47707SOL    HW247807  11.418   2.351   0.357 -0.2201  0.4442  0.4337
47708SOL     OW47808  11.182  11.981  10.181  0.5452  0.3018 -0.4914
47708SOL    HW147809  11.201  12.013  10.093  1.5246 -0.2447 -0.5002
47708SOL    HW247810  11.110  12.036  10.212  1.3841  1.7071 -0.9444
47709SOL     OW47811  10.941   6.169   0.774 -0.1527  0.2666 -0.0441
47709SOL    HW147812  10.975   6.257   0.758  0.3101  0.2745  0.9091
47709SOL    HW247813  11.010   6.110   0.743 -0.6710  0.2104 -1.1519
47710SOL     OW47814   7.352   3.779   9.275 -0.5860 -0.5621  0.0315
47710SOL    HW147815   7.310   3.864   9.286 -2.4672 -1.1439 -1.9726
47710SOL    HW247816   7.436   3.787   9.321 -1.2346  1.9411  0.9052
47711SOL     OW47817   0.021   0.019   5.609  0.1924  0.5974 -0.0094
47711SOL    HW147818   0.014  -0.076   5.618  0.6051  0.6429  0.8467
47711SOL    HW247819  -0.002   0.036   5.517 -2.1871 -0.0951  0.3868
47712SOL     OW47820   2.231   7.904  11.042  0.1204 -0.1165  0.0612
47712SOL    HW147821   2.271   7.958  11.109 -0.4980 -0.9199  1.1115
47712SOL    HW247822   2.241   7.814  11.074 -1.1189 -0.4389 -0.3827
47713SOL     OW47823   3.956   4.566   9.272 -0.5656 -0.2066  0.6506
47713SOL    HW147824   4.045   4.551   9.302  0.2709  0.6479 -1.2263
47713SOL    HW247825   3.930   4.648   9.314 -1.2147 -1.3522  2.6318
47714SOL     OW47826   4.884   0.776   1.925 -0.2728 -0.6316  0.5635
47714SOL    HW147827   4.895   0.834   1.849  1.2895 -2.1592 -0.4739
47714SOL    HW247828   4.966   0.783   1.973  0.3019 -2.5359 -0.0432
47715SOL     OW47829   9.796   0.932   7.161  0.0771  0.4839  0.2252
47715SOL    HW147830   9.880   0.977   7.165 -0.7926  2.1805 -0.0137
47715SOL    HW247831   9.739   0.990   7.112 -0.8488 -1.3343 -0.9839
47716SOL     OW47832   2.395   8.756   7.952  0.6765  0.5971 -0.2481
47716SOL    HW147833   2.465   8.759   8.017  0.6760 -1.7325 -0.0523
47716SOL    HW247834   2.334   8.825   7.978  1.2728  0.5009  1.5293
47717SOL     OW47835   9.281  10.199   4.136  0.0426  0.1638  0.6940
47717SOL    HW147836   9.301  10.289   4.163  0.8447 -0.2358  1.4778
47717SOL    HW247837   9.330  10.187   4.055 -0.8539  0.7458  0.0468
47718SOL     OW47838  11.320   3.777   1.661  0.3762 -0.0298  0.0074
47718SOL    HW147839  11.364   3.698   1.632  0.0477 -0.2648  0.1448
47718SOL    HW247840  11.240   3.746   1.704  0.8023  0.3076  1.0897
47719SOL     OW47841   5.903   1.114   4.796 -0.8665  0.0597  0.3791
47719SOL    HW147842   5.861   1.032   4.771 -1.5556  1.2080 -2.7166
47719SOL    HW247843   5.854   1.144   4.873 -2.6491 -0.9482 -0.2979
47720SOL     OW47844   5.072   3.483   9.068  0.3410  0.0002 -0.1168
47720SOL    HW147845   5.092   3.394   9.098 -3.0507 -0.1353  2.3234
47720SOL    HW247846   5.074   3.478   8.973  3.2394 -1.8077 -0.0905
47721SOL     OW47847  10.835   8.847   9.402 -0.2873 -0.2556  0.5043
47721SOL    HW147848  10.803   8.757   9.389  1.2805 -0.8955  0.8909
47721SOL    HW247849  10.842   8.856   9.497  4.5904 -1.6718  0.5023
47722SOL     OW47850   5.959  10.048   6.248 -0.3926 -0.1947 -0.0713
47722SOL    HW147851   6.042  10.019   6.287 -0.1691  0.7621  0.1868
47722SOL    HW247852   5.936  10.127   6.297 -1.9905 -1.0027  0.5343
47723SOL     OW47853   9.207   6.954   0.404 -0.8339  0.0619  0.6192
47723SOL    HW147854   9.117   6.950   0.373 -0.1526  0.1395 -1.5100
47723SOL    HW247855   9.255   6.892   0.349  0.6527  1.0061  0.7878
47724SOL     OW47856  10.520   8.710   9.066  0.1194  0.2276  0.3601
47724SOL    HW147857  10.524   8.771   8.992  0.1684  0.4540  0.5430
47724SOL    HW247858  10.608   8.713   9.104  0.1042  0.0900  0.4079
47725SOL     OW47859   1.470   8.108   4.236 -0.1891  0.5285 -0.1885
47725SOL    HW147860   1.548   8.156   4.207  0.1797 -0.5690 -1.0889
47725SOL    HW247861   1.406   8.122   4.166 -0.7401  1.2201  0.4322
47726SOL     OW47862   4.857   2.360   9.007 -0.2552 -0.3357 -1.0140
47726SOL    HW147863   4.826   2.269   9.012 -1.8626  0.1558 -1.5860
47726SOL    HW247864   4.949   2.355   9.033 -0.8667 -1.8310  1.1603
47727SOL     OW47865  10.268  11.774   4.107 -0.6518  0.2395  0.1820
47727SOL    HW147866  10.278  11.719   4.185 -1.6426 -0.0846  0.0944
47727SOL    HW247867  10.334  11.842   4.118  0.0482 -0.4961  0.6969
47728SOL     OW47868   9.898   7.216  10.355  0.1672  0.0422  0.1119
47728SOL    HW147869   9.817   7.177  10.390  0.5595  0.1034  1.1303
47728SOL    HW247870   9.963   7.146  10.364 -0.2032 -0.7615 -2.6907
47729SOL     OW47871   4.210   1.341   9.627 -0.1452 -0.2861 -0.7939
47729SOL    HW147872   4.270   1.308   9.694 -0.7363 -0.8519 -0.5290
47729SOL    HW247873   4.211   1.436   9.639  1.8285 -0.1263 -1.7725
47730SOL     OW47874   5.343   6.041  11.882  0.2180 -0.7100 -0.0657
47730SOL    HW147875   5.330   6.131  11.910 -0.8023 -1.0890  0.7540
47730SOL    HW247876   5.435   6.023  11.898  0.7229  0.5392 -1.3524
47731SOL     OW47877   0.172  11.558   8.206 -0.4364 -0.2299 -0.1235
47731SOL    HW147878   0.123  11.537   8.286  1.1561 -1.0890  0.6946
47731SOL    HW247879   0.141  11.494   8.142 -1.1198 -0.0879  0.0555
47732SOL     OW47880   5.843   1.755   1.702 -0.2793  0.1921 -0.4546
47732SOL    HW147881   5.888   1.791   1.626 -0.3956  0.5591 -0.3521
47732SOL    HW247882   5.781   1.691   1.666  0.2549 -0.2485 -0.6027
47733SOL     OW47883   8.506   8.956  10.659 -0.1881  0.1562  0.4497
47733SOL    HW147884   8.419   8.984  10.688 -1.1331 -1.2513 -0.8784
47733SOL    HW247885   8.564   8.982  10.730 -1.8523  0.1385  1.8956
47734SOL     OW47886   7.684   4.484   6.510  0.0805 -0.0006 -0.0795
47734SOL    HW147887   7.617   4.440   6.563  0.5989 -1.4782 -0.6062
47734SOL    HW247888   7.639   4.506   6.428 -0.1536  0.3860  0.1471
47735SOL     OW47889  11.203   4.100   5.993 -0.0940  0.6028  0.1685
47735SOL    HW147890  11.123   4.142   5.959 -0.5643 -0.1274  0.3606
47735SOL    HW247891  11.237   4.163   6.056 -2.2147 -0.3237  2.4274
47736SOL     OW47892   4.418   3.741   1.053 -0.4129  0.0310  1.0575
47736SOL    HW147893   4.387   3.726   1.142 -0.0639 -1.1134  1.0034
47736SOL    HW247894   4.353   3.698   0.997 -1.0048  1.3320  0.7009
47737SOL     OW47895   4.909   5.594   1.614  0.0344  0.1261  0.3242
47737SOL    HW147896   4.965   5.671   1.618 -0.9622  0.9712 -1.2728
47737SOL    HW247897   4.904   5.564   1.705  0.6351  1.7975  0.9505
47738SOL     OW47898   3.719   0.342   1.467 -0.2463 -0.1840  0.4590
47738SOL    HW147899   3.676   0.424   1.444  1.5136  0.6069 -0.2130
47738SOL    HW247900   3.777   0.365   1.540 -1.1162 -1.2768  1.5292
47739SOL     OW47901  11.446   7.376  10.773 -0.5609 -0.3317 -0.3007
47739SOL    HW147902  11.532   7.395  10.734  0.7355 -0.8184  2.1283
47739SOL    HW247903  11.433   7.283  10.757 -0.2569 -0.4289  0.0097
47740SOL     OW47904   8.863   7.596   0.286 -0.6628  0.1717  0.1467
47740SOL    HW147905   8.909   7.566   0.207 -2.1997  1.7115 -1.4282
47740SOL    HW247906   8.779   7.550   0.282 -0.4817 -0.2728  1.2992
47741SOL     OW47907   7.360  10.719   7.388  0.6315 -0.1286 -0.5548
47741SOL    HW147908   7.291  10.742   7.450  1.8044  3.5106 -0.3543
47741SOL    HW247909   7.419  10.662   7.439  1.5280  2.6884  1.8871
47742SOL     OW47910   2.916   3.507   1.808  0.1903 -0.2318  0.3539
47742SOL    HW147911   2.960   3.550   1.735  2.2710  0.1563  1.7229
47742SOL    HW247912   2.926   3.414   1.791 -2.6734 -0.2867 -1.6745
47743SOL     OW47913   3.991  10.988   0.442  0.3366  0.4168 -0.0031
47743SOL    HW147914   3.915  10.981   0.499  1.4722  0.3263  1.5838
47743SOL    HW247915   3.973  10.928   0.369  0.4716 -2.5954  2.2422
47744SOL     OW47916   6.734  10.622   2.199  0.0549  0.1413 -0.3059
47744SOL    HW147917   6.742  10.537   2.243  2.5414 -0.0673 -1.0371
47744SOL    HW247918   6.782  10.611   2.117  1.9563  2.7562  0.3712
47745SOL     OW47919   9.194   9.794  11.274  0.0379 -0.1170 -0.0239
47745SOL    HW147920   9.129   9.766  11.209 -0.5838  0.5381  0.2978
47745SOL    HW247921   9.244   9.715  11.293  0.2624 -0.3118 -1.3260
47746SOL     OW47922   8.943   6.528   5.687  0.0506  0.4321  0.6110
47746SOL    HW147923   9.015   6.569   5.639 -0.7130  0.0763 -0.9191
47746SOL    HW247924   8.902   6.600   5.735  2.1606  0.4363  2.5713
47747SOL     OW47925   2.814   5.772   1.313  0.2827  0.2154 -0.1031
47747SOL    HW147926   2.886   5.835   1.319 -0.9313  1.5427  1.5905
47747SOL    HW247927   2.824   5.716   1.389 -0.9148  0.9619  0.6452
47748SOL     OW47928  11.080   3.830  11.637  0.3027  0.2088 -0.6778
47748SOL    HW147929  11.058   3.875  11.718  0.0268  0.0697 -0.6733
47748SOL    HW247930  11.085   3.900  11.572  0.8627  0.3610 -0.4784
47749SOL     OW47931   0.010   1.521   6.891  0.1051  0.4473  0.2081
47749SOL    HW147932  -0.075   1.563   6.880  0.2002  0.6093  0.0908
47749SOL    HW247933   0.041   1.506   6.801  0.1771  0.3404  0.2497
47750SOL     OW47934   0.348   6.440  10.836  0.0781  0.0803 -0.8333
47750SOL    HW147935   0.266   6.491  10.830  0.5058  1.0178  0.7217
47750SOL    HW247936   0.323   6.360  10.881  0.6249  2.1774  3.7866
47751SOL     OW47937   4.653  11.025   9.001  0.4999  0.1001  0.4340
47751SOL    HW147938   4.689  11.026   8.912  0.4408  0.8063  0.4166
47751SOL    HW247939   4.686  10.943   9.038  1.4428  0.3176  0.1280
47752SOL     OW47940  11.901   4.559   9.084  0.0043  0.2537 -0.3465
47752SOL    HW147941  11.858   4.547   9.168  0.7748  0.0307  0.0191
47752SOL    HW247942  11.881   4.650   9.059 -3.2124 -0.6710 -1.6447
47753SOL     OW47943   7.433   0.108   9.154  0.0462 -0.2690  0.5064
47753SOL    HW147944   7.472   0.148   9.232 -0.2565  1.3009 -0.1062
47753SOL    HW247945   7.503   0.113   9.088 -0.1632 -0.3142  0.2806
47754SOL     OW47946   2.840   3.339   6.641 -0.1619 -0.4888 -0.4004
47754SOL    HW147947   2.915   3.283   6.662  1.3422  1.0823 -1.2623
47754SOL    HW247948   2.821   3.385   6.722 -2.0897 -2.8643  0.6211
47755SOL     OW47949   4.141   2.063   5.298  0.0138 -0.2866 -0.0043
47755SOL    HW147950   4.167   1.971   5.297 -0.7773 -0.5545  1.3942
47755SOL    HW247951   4.046   2.061   5.314  0.1299  0.7684  0.9991
47756SOL     OW47952   6.732   4.311  11.694 -0.6281  0.1286 -0.3394
47756SOL    HW147953   6.803   4.305  11.629 -1.2707  0.3777 -1.0730
47756SOL    HW247954   6.653   4.289  11.645 -1.1447  0.4855  0.3233
47757SOL     OW47955   2.056   7.072   8.171  0.3534  1.0229 -0.2315
47757SOL    HW147956   2.095   7.043   8.253  0.8014  0.8411 -0.5067
47757SOL    HW247957   1.985   7.130   8.198 -0.4295 -0.1542  0.3286
47758SOL     OW47958  10.358   6.637   8.229 -0.1504 -0.0025 -0.0729
47758SOL    HW147959  10.403   6.606   8.150 -1.5695 -0.8950 -0.5763
47758SOL    HW247960  10.265   6.632   8.206 -0.6876 -1.6415  2.1043
47759SOL     OW47961   5.110   6.406   3.395  0.0949  0.2901  0.3692
47759SOL    HW147962   5.030   6.457   3.404  0.3834  0.7287  0.5148
47759SOL    HW247963   5.110   6.348   3.471 -0.5838 -0.4318 -0.1692
47760SOL     OW47964   3.641   1.541   5.154 -0.2658 -0.2371 -0.7293
47760SOL    HW147965   3.611   1.451   5.142 -0.3151 -0.1266 -1.5153
47760SOL    HW247966   3.561   1.591   5.171 -0.2826 -0.2784 -0.6856
47761SOL     OW47967   7.177   7.485   2.786 -0.6788 -0.1797  0.9198
47761SOL    HW147968   7.125   7.553   2.829 -1.5158 -1.1102  1.4438
47761SOL    HW247969   7.123   7.456   2.713  1.0381  1.8828 -1.3181
47762SOL     OW47970   2.320   6.360   8.533  0.6870  0.4042  0.0803
47762SOL    HW147971   2.377   6.433   8.508  0.3069  0.8822  0.6070
47762SOL    HW247972   2.287   6.383   8.619  1.5250 -0.9546  0.8114
47763SOL     OW47973   3.193   6.977   1.951 -0.2611 -0.0412  0.1234
47763SOL    HW147974   3.274   6.947   1.909  0.2022  1.3639 -0.0415
47763SOL    HW247975   3.222   7.044   2.014 -1.1839 -0.4138  0.9641
47764SOL     OW47976   9.365   2.003   9.317 -0.2898 -0.2959  0.3127
47764SOL    HW147977   9.411   1.954   9.385  0.7638 -0.9340 -0.8179
47764SOL    HW247978   9.434   2.035   9.259 -0.9972  1.9844  0.6198
47765SOL     OW47979   5.344   3.576   8.026  0.6735  0.0341 -0.1633
47765SOL    HW147980   5.274   3.517   8.001 -0.8582  1.1808  1.2022
47765SOL    HW247981   5.338   3.648   7.963 -0.0950  0.6422  0.5888
47766SOL     OW47982   2.389   8.067   9.279  0.0406 -0.3681 -0.4542
47766SOL    HW147983   2.429   8.030   9.200  0.7515  0.7019 -0.6122
47766SOL    HW247984   2.341   8.144   9.249  0.1030 -0.0991  0.1094
47767SOL     OW47985   5.535   4.852  11.568  0.4131 -0.3824  0.2336
47767SOL    HW147986   5.613   4.882  11.614  0.6043 -0.1776 -0.2204
47767SOL    HW247987   5.511   4.925  11.511 -1.0823  0.2346  1.5558
47768SOL     OW47988  10.097  10.064  11.679 -0.4896 -0.6803  0.1632
47768SOL    HW147989  10.013  10.029  11.653 -0.6340  1.0185 -1.8524
47768SOL    HW247990  10.147  10.073  11.598 -0.0476  2.5366  0.6493
47769SOL     OW47991   8.367  11.468   0.831  0.6355  0.4654  0.0614
47769SOL    HW147992   8.323  11.495   0.751 -1.5110  1.3810  1.4439
47769SOL    HW247993   8.396  11.549   0.872  0.4605  0.1382  0.8602
47770SOL     OW47994   3.683   7.509   2.557  0.0826  0.0837 -0.4048
47770SOL    HW147995   3.694   7.508   2.462  0.5312  0.1824 -0.3545
47770SOL    HW247996   3.714   7.423   2.586  2.2885  0.9362 -0.0963
47771SOL     OW47997  10.519   5.350   0.502 -0.0193 -0.4831 -0.5725
47771SOL    HW147998  10.593   5.361   0.443  0.1272  0.9780 -0.1581
47771SOL    HW247999  10.443   5.343   0.444  0.2304  0.0130 -0.9700
47772SOL     OW48000  11.825  10.017   4.288 -0.2520 -0.0726  0.3744
47772SOL    HW148001  11.813  10.021   4.383 -0.8235  0.8452  0.2701
47772SOL    HW248002  11.864   9.931   4.273 -1.4885 -0.8328  1.3043
47773SOL     OW48003  10.670   1.213   1.329 -0.1344  0.2122  0.4060
47773SOL    HW148004  10.675   1.238   1.421 -0.3467 -0.9290  0.7447
47773SOL    HW248005  10.620   1.132   1.328 -0.4568  0.3963 -0.7616
47774SOL     OW48006  11.516   3.137   0.003  0.1072  0.2588 -0.5527
47774SOL    HW148007  11.503   3.218  -0.046  1.3262  1.1715  0.5421
47774SOL    HW248008  11.606   3.110  -0.019  0.0215 -0.3056 -0.2264
47775SOL     OW48009   3.001   4.680   3.297 -0.7618 -0.3720 -0.1109
47775SOL    HW148010   2.942   4.654   3.368 -2.6205 -2.9236 -2.3585
47775SOL    HW248011   3.077   4.622   3.307  0.0752  0.8686  1.0527
47776SOL     OW48012   9.617   0.431   8.675  0.5206 -0.7393 -0.2497
47776SOL    HW148013   9.619   0.480   8.757  3.6385 -1.3872  0.1832
47776SOL    HW248014   9.576   0.490   8.612  1.9693  1.5201  0.8134
47777SOL     OW48015   0.660   7.295   8.835 -0.8201 -0.8089 -0.3084
47777SOL    HW148016   0.577   7.253   8.811 -2.4131  2.4459 -1.0155
47777SOL    HW248017   0.719   7.274   8.763 -1.8707 -0.9351 -1.1530
47778SOL     OW48018   2.084   4.579   9.764  0.4960 -0.4033  0.1134
47778SOL    HW148019   2.130   4.650   9.717  2.1810 -1.4442  0.1075
47778SOL    HW248020   2.089   4.605   9.856  0.6507 -0.2527  0.0653
47779SOL     OW48021   1.845   7.921  11.838  0.0115  0.4581 -0.0508
47779SOL    HW148022   1.932   7.959  11.821 -0.3539  1.7047  0.7688
47779SOL    HW248023   1.837   7.852  11.772  1.4765  0.5518 -0.3815
47780SOL     OW48024   8.721   7.265   9.954 -0.3264  0.4183 -0.0813
47780SOL    HW148025   8.634   7.252   9.991  0.4234 -1.1836  1.2850
47780SOL    HW248026   8.735   7.187   9.900  0.6709  0.0816  0.6328
47781SOL     OW48027   5.262   9.559  10.121  0.0652 -0.4238  0.0527
47781SOL    HW148028   5.259   9.647  10.158 -0.2616  0.2434 -1.4887
47781SOL    HW248029   5.345   9.523  10.153  0.1566  0.4005  0.7918
47782SOL     OW48030   5.292   1.502   7.647  0.3792 -0.5346 -0.1932
47782SOL    HW148031   5.325   1.561   7.715  0.4591 -0.7130 -0.0759
47782SOL    HW248032   5.243   1.558   7.587  0.2340 -0.3909  0.0612
47783SOL     OW48033   7.954  11.058   9.106  1.1597 -0.4646 -0.0692
47783SOL    HW148034   7.930  11.138   9.058  3.2372  0.3952  0.1967
47783SOL    HW248035   7.881  11.044   9.166  0.4733  0.9187 -0.5176
47784SOL     OW48036   3.745   8.030   9.562 -0.3287 -0.3082 -0.1822
47784SOL    HW148037   3.732   8.002   9.472 -0.0724 -0.0210 -0.3068
47784SOL    HW248038   3.752   8.125   9.557 -0.0529 -0.3141  0.1118
47785SOL     OW48039   1.490   9.493   2.447  0.3849  0.1528 -0.1563
47785SOL    HW148040   1.550   9.431   2.488 -0.3708 -2.0464 -2.1802
47785SOL    HW248041   1.443   9.533   2.521  2.1816 -0.2813  1.2977
47786SOL     OW48042   4.520   7.329   8.649 -0.0475 -0.1885  0.3190
47786SOL    HW148043   4.470   7.385   8.591 -2.4441 -1.7934  0.6920
47786SOL    HW248044   4.591   7.384   8.682  0.3397  1.2669 -2.6798
47787SOL     OW48045   2.558   8.079   9.484 -0.4902 -0.2423  0.4235
47787SOL    HW148046   2.489   8.078   9.418  0.6128 -0.1041 -0.7822
47787SOL    HW248047   2.571   7.987   9.505 -1.7509 -0.2107  1.4703
47788SOL     OW48048   5.350   3.205   2.243 -0.0462 -0.2326  0.4675
47788SOL    HW148049   5.428   3.246   2.280 -0.2331  2.1050 -1.5312
47788SOL    HW248050   5.281   3.270   2.252 -0.9204 -0.9279 -0.8176
47789SOL     OW48051   3.103   5.212   3.899  0.4914  0.2136  0.2668
47789SOL    HW148052   3.035   5.279   3.898  0.1948 -0.0891 -1.3465
47789SOL    HW248053   3.161   5.234   3.827  1.2920 -0.3628  0.7143
47790SOL     OW48054  10.610   7.299   2.061 -0.3276 -0.3156  0.4036
47790SOL    HW148055  10.589   7.210   2.089  0.9896 -0.8870 -0.3311
47790SOL    HW248056  10.660   7.288   1.980 -1.3259  1.1583 -0.4730
47791SOL     OW48057   0.706   1.087   3.759 -0.9612 -0.5344 -0.1515
47791SOL    HW148058   0.623   1.058   3.723 -0.8026  1.8256 -2.7479
47791SOL    HW248059   0.722   1.172   3.718  2.1999 -0.3777  1.0866
47792SOL     OW48060  11.619   7.570  11.031 -0.3065 -0.1521  0.0906
47792SOL    HW148061  11.660   7.649  11.066 -0.7160 -0.1785  0.6431
47792SOL    HW248062  11.530   7.571  11.067  0.2165 -1.7701  1.5630
47793SOL     OW48063   6.969   6.887   2.679 -0.1710 -0.4328 -0.0422
47793SOL    HW148064   7.007   6.861   2.764 -0.6046  1.0136  0.6197
47793SOL    HW248065   7.039   6.937   2.637  0.0132 -1.0815 -0.5218
47794SOL     OW48066   7.015   2.033   8.591 -0.0441 -0.0600  0.0399
47794SOL    HW148067   6.923   2.029   8.615 -0.1487 -1.7689 -0.5113
47794SOL    HW248068   7.022   2.111   8.535 -0.5415  1.7285  2.3110
47795SOL     OW48069   8.811   4.112   7.283 -0.1130  0.5368  0.6629
47795SOL    HW148070   8.836   4.024   7.312 -0.4119  0.1121 -0.3276
47795SOL    HW248071   8.888   4.166   7.303 -0.2247  0.2328  2.0206
47796SOL     OW48072  11.707   6.822  11.615  0.0703 -0.5046  0.2064
47796SOL    HW148073  11.764   6.764  11.565 -1.5047 -1.5772 -0.4444
47796SOL    HW248074  11.728   6.803  11.707  0.3826 -1.2580 -0.0164
47797SOL     OW48075   3.332   2.294   0.160  0.2451  0.0108 -0.4564
47797SOL    HW148076   3.370   2.330   0.080  3.4824  1.8845  1.7019
47797SOL    HW248077   3.397   2.232   0.192 -0.4338  0.1116  1.2641
47798SOL     OW48078   3.372   9.649   0.152 -0.0848  0.4815 -0.1340
47798SOL    HW148079   3.309   9.597   0.201  0.3584 -0.1312 -0.2127
47798SOL    HW248080   3.334   9.658   0.065  0.8875 -1.6767 -0.8346
47799SOL     OW48081   8.671   3.972   9.686 -0.2938  0.0405  0.2585
47799SOL    HW148082   8.582   3.967   9.652  0.1372  1.2210 -1.1607
47799SOL    HW248083   8.699   3.881   9.693 -0.8957 -0.3005 -1.3339
47800SOL     OW48084  11.674   7.148   7.846 -0.0592 -0.4510 -0.3552
47800SOL    HW148085  11.704   7.108   7.764  0.3420 -2.6169  0.7826
47800SOL    HW248086  11.586   7.113   7.858 -0.8896  1.3667 -0.7648
47801SOL     OW48087   1.381   0.251   8.715 -0.1774 -0.2079  0.4789
47801SOL    HW148088   1.475   0.238   8.731 -0.1998  2.1734  3.4071
47801SOL    HW248089   1.375   0.339   8.679 -1.3157 -0.0764  0.9543
47802SOL     OW48090   0.565  11.252   4.572  0.2678 -0.1023 -0.3588
47802SOL    HW148091   0.587  11.162   4.549  1.0927 -0.1988  0.7155
47802SOL    HW248092   0.571  11.254   4.667 -2.6047  0.3632 -0.0789
47803SOL     OW48093   9.622  11.251   2.059  0.5577 -0.4188  0.7890
47803SOL    HW148094   9.610  11.340   2.092  0.7612  0.2330 -0.8329
47803SOL    HW248095   9.683  11.260   1.985  0.6474 -1.9139  0.6494
47804SOL     OW48096   5.779   2.330   7.007 -0.3209  0.0809 -0.0741
47804SOL    HW148097   5.693   2.369   7.021 -1.5475 -1.2939 -2.9997
47804SOL    HW248098   5.761   2.237   6.993  1.8703 -0.5692  0.9754
47805SOL     OW48099  11.804  10.863   4.191  0.5031  0.7422 -0.3702
47805SOL    HW148100  11.893  10.829   4.183 -0.2688 -2.4518  2.4797
47805SOL    HW248101  11.753  10.812   4.128  0.3351  1.1531 -0.5724
47806SOL     OW48102  11.198   1.189   5.551  0.0017  0.0923 -0.5087
47806SOL    HW148103  11.166   1.143   5.473  0.5643 -0.7748 -0.2322
47806SOL    HW248104  11.292   1.194   5.539  0.2916 -1.3866  0.7998
47807SOL     OW48105   2.224   4.800   0.176  0.0826  0.4566 -0.6137
47807SOL    HW148106   2.181   4.827   0.257  1.0117  1.8194 -0.5320
47807SOL    HW248107   2.271   4.720   0.199  0.8890  1.2005  0.3929
47808SOL     OW48108   8.611   6.175   0.413  0.0763 -0.3052 -0.1742
47808SOL    HW148109   8.692   6.135   0.382  0.8047  0.6589  0.4456
47808SOL    HW248110   8.622   6.183   0.507 -1.4209 -1.6509  0.1593
47809SOL     OW48111   7.535   7.103   7.507 -0.0337  0.4733 -0.2765
47809SOL    HW148112   7.535   7.183   7.455 -2.1869  1.1571  0.6689
47809SOL    HW248113   7.582   7.125   7.587 -1.4121  1.1339  0.3873
47810SOL     OW48114   7.303   0.265   5.203 -0.0295 -0.4312  0.2404
47810SOL    HW148115   7.333   0.349   5.237 -2.3071  0.1992  0.8968
47810SOL    HW248116   7.365   0.201   5.239  2.6251  1.0093 -1.4412
47811SOL     OW48117   5.653   9.590   2.941 -0.4437  0.8553 -0.9504
47811SOL    HW148118   5.616   9.520   2.995 -1.1802  3.0584  1.6375
47811SOL    HW248119   5.590   9.661   2.949  0.2176  1.8161 -3.5774
47812SOL     OW48120   3.240   2.976   6.584 -0.2077 -0.1424 -0.2845
47812SOL    HW148121   3.300   2.919   6.536 -0.7319 -1.6221  0.7240
47812SOL    HW248122   3.255   3.063   6.548  2.4018 -0.4775 -0.2123
47813SOL     OW48123  10.929  11.311   5.414 -0.0872 -0.4765 -0.4994
47813SOL    HW148124  10.847  11.263   5.428 -1.2792  1.8584  1.2212
47813SOL    HW248125  10.990  11.273   5.478 -1.2060  0.5867  1.2934
47814SOL     OW48126   8.184  11.589  11.478 -0.5411 -0.4913  0.3757
47814SOL    HW148127   8.216  11.508  11.438  1.9377  1.2306 -1.4330
47814SOL    HW248128   8.119  11.622  11.416 -0.2598 -0.2243  0.2220
47815SOL     OW48129   4.096   6.490   3.158  0.1919 -0.0036 -0.5633
47815SOL    HW148130   4.085   6.396   3.141 -0.1823 -0.1844  0.5854
47815SOL    HW248131   4.047   6.533   3.088  0.2947 -0.6598 -1.0512
47816SOL     OW48132   2.273   5.398   6.161 -0.0383 -0.5023  0.1576
47816SOL    HW148133   2.359   5.405   6.202  0.6165 -1.0669 -1.0577
47816SOL    HW248134   2.247   5.489   6.146  1.0407 -0.3251 -0.8072
47817SOL     OW48135   8.643   3.277   4.518  0.1680  0.0387 -0.0786
47817SOL    HW148136   8.608   3.193   4.547 -1.1194  0.6391  0.1811
47817SOL    HW248137   8.651   3.269   4.423 -0.5459 -0.1780 -0.1278
47818SOL     OW48138   7.514   8.988  10.518  0.2872 -0.1254 -0.2949
47818SOL    HW148139   7.427   8.976  10.480  0.1677  1.6960 -0.6904
47818SOL    HW248140   7.565   8.916  10.483 -0.4689  0.1042 -1.9785
47819SOL     OW48141   8.323   6.362   9.474 -0.2916 -0.4839 -0.3526
47819SOL    HW148142   8.394   6.299   9.462 -1.5384 -1.9194 -0.4940
47819SOL    HW248143   8.244   6.308   9.478 -1.2244  0.9276  1.4604
47820SOL     OW48144   8.217   9.700   0.782  0.3899 -0.1500 -0.4644
47820SOL    HW148145   8.233   9.792   0.764  0.3311 -0.0599 -0.0518
47820SOL    HW248146   8.200   9.661   0.696 -2.5221  0.7751 -0.4276
47821SOL     OW48147   1.338  10.333  10.781  0.3662  0.0337  0.0592
47821SOL    HW148148   1.357  10.256  10.835  2.0138  0.6850  0.4404
47821SOL    HW248149   1.396  10.325  10.706  1.3099  1.4068  0.6078
47822SOL     OW48150   8.484   9.564   1.774  0.0441 -0.1573  0.1788
47822SOL    HW148151   8.478   9.657   1.797 -1.1860 -0.0747 -0.3973
47822SOL    HW248152   8.454   9.560   1.683  0.4913 -1.0737  0.0626
47823SOL     OW48153  11.141   2.362   5.832 -0.0197 -0.0419 -0.0851
47823SOL    HW148154  11.195   2.363   5.911 -0.3015 -0.6051  0.1216
47823SOL    HW248155  11.158   2.446   5.790 -0.1758  0.4356  0.7893
47824SOL     OW48156   1.025  11.565   8.631 -0.3452 -0.1508 -0.0525
47824SOL    HW148157   0.934  11.593   8.617 -1.4275 -1.7801  2.8593
47824SOL    HW248158   1.026  11.473   8.603  0.0587 -0.4952  1.0538
47825SOL     OW48159  11.373   2.083   1.060 -0.1579 -0.0625  0.3251
47825SOL    HW148160  11.395   2.025   0.987  1.4313 -1.0588  1.5343
47825SOL    HW248161  11.355   2.168   1.020  1.9371 -0.2547 -1.1292
47826SOL     OW48162   4.225  11.677   9.376 -0.1922 -0.5879 -0.0225
47826SOL    HW148163   4.294  11.664   9.311  0.4672 -0.3283  0.6115
47826SOL    HW248164   4.144  11.659   9.328  0.2850 -0.5774 -0.8676
47827SOL     OW48165   1.532   4.507   6.654  0.0462  0.0475 -0.1230
47827SOL    HW148166   1.469   4.452   6.700 -0.1201  0.1641 -0.2120
47827SOL    HW248167   1.616   4.462   6.667  0.6465  1.7889  3.2262
47828SOL     OW48168   4.176   4.650  11.232  0.1663 -0.4565 -0.3502
47828SOL    HW148169   4.103   4.637  11.170  1.1025 -0.1945 -1.5529
47828SOL    HW248170   4.213   4.563  11.243 -0.3433 -0.5974  0.2972
47829SOL     OW48171   4.371   4.616  11.682 -0.2895  0.0698  0.0222
47829SOL    HW148172   4.298   4.629  11.742 -0.8560  0.7453 -0.7899
47829SOL    HW248173   4.359   4.683  11.614  0.3696 -0.6239 -0.8044
47830SOL     OW48174   9.498   4.839   1.149  0.2710  0.2110 -0.4995
47830SOL    HW148175   9.570   4.788   1.184  0.5348 -0.2704 -1.6952
47830SOL    HW248176   9.448   4.866   1.226  0.7659 -0.8861  0.2288
47831SOL     OW48177   2.880   5.607   5.319 -0.4673 -0.2798 -0.3231
47831SOL    HW148178   2.957   5.656   5.290 -0.9025 -0.6180 -2.1853
47831SOL    HW248179   2.807   5.667   5.307 -0.4771  0.2247  1.9442
47832SOL     OW48180   1.016  11.477   6.916 -0.2144 -0.2743 -0.2337
47832SOL    HW148181   1.106  11.492   6.945 -0.4033  1.1889 -0.3404
47832SOL    HW248182   0.974  11.434   6.991 -0.2119  1.8002  1.0306
47833SOL     OW48183   2.077   2.791  10.823 -0.2958  0.2708 -0.0485
47833SOL    HW148184   2.162   2.808  10.783  0.2127 -0.4439  0.6998
47833SOL    HW248185   2.045   2.878  10.848  0.3009  0.5296 -0.1532
47834SOL     OW48186   9.578   9.785  10.588 -0.0040 -0.0986 -0.0805
47834SOL    HW148187   9.564   9.878  10.608 -0.6963 -0.2409  0.1348
47834SOL    HW248188   9.490   9.749  10.580  0.1307 -1.3137  2.5781
47835SOL     OW48189   0.823   0.797   1.268  0.0594 -0.0363  0.1846
47835SOL    HW148190   0.754   0.863   1.268  0.3163  0.2359  0.0951
47835SOL    HW248191   0.788   0.725   1.215  0.4765  0.7811 -1.2727
47836SOL     OW48192   5.654   3.301  10.759  0.3252 -0.0148 -0.1471
47836SOL    HW148193   5.635   3.377  10.815  0.9671  0.2116 -0.2272
47836SOL    HW248194   5.720   3.333  10.697 -0.6214 -0.1622 -1.2637
47837SOL     OW48195   0.179   0.352  10.171  0.1692 -0.0787  0.7361
47837SOL    HW148196   0.089   0.382  10.161  0.7786  1.1954 -1.7617
47837SOL    HW248197   0.187   0.279  10.109  1.8234  2.4779 -2.3978
47838SOL     OW48198   4.920  10.981   6.401  0.6075  0.1683  0.4225
47838SOL    HW148199   4.831  11.003   6.428 -0.4480 -0.7937 -1.9662
47838SOL    HW248200   4.966  11.065   6.402 -0.7109  0.9287  0.4269
47839SOL     OW48201   6.133  11.866   4.662  0.2873 -0.0941 -0.0022
47839SOL    HW148202   6.204  11.919   4.697  0.7939  0.7512 -2.1318
47839SOL    HW248203   6.171  11.779   4.649  0.8478  0.2572 -0.7802
47840SOL     OW48204   1.172   1.987   4.540  0.3984  0.6387 -0.0972
47840SOL    HW148205   1.109   1.961   4.607  0.7921  0.2403  0.1221
47840SOL    HW248206   1.122   1.987   4.458  0.2901 -0.4342 -0.0457
47841SOL     OW48207  10.920   5.707   1.318 -0.4132  0.2861  0.3283
47841SOL    HW148208  10.870   5.779   1.278  0.3138  0.5395 -0.1321
47841SOL    HW248209  10.897   5.712   1.411 -0.5542  0.9671  0.2663
47842SOL     OW48210   9.887   2.692   5.678  0.0158 -0.6826 -0.9361
47842SOL    HW148211   9.942   2.647   5.742 -0.8805  0.5485  0.7948
47842SOL    HW248212   9.935   2.685   5.596  1.3376 -2.1100 -0.0948
47843SOL     OW48213   0.690   6.240   8.708  0.3458 -0.1542 -0.2389
47843SOL    HW148214   0.600   6.224   8.737  1.1227 -4.1891  0.5035
47843SOL    HW248215   0.731   6.286   8.782 -0.3353 -1.0975  0.7567
47844SOL     OW48216  10.119  11.180  10.342  0.2061 -0.0327 -0.4411
47844SOL    HW148217  10.066  11.256  10.316  0.1823 -0.2594 -1.0648
47844SOL    HW248218  10.206  11.199  10.307  0.3074 -0.0943 -0.2241
47845SOL     OW48219   2.367  11.099   3.716  1.0291  0.7417  0.3547
47845SOL    HW148220   2.399  11.087   3.805  0.6367 -0.7704  0.3208
47845SOL    HW248221   2.272  11.089   3.722  1.1288 -1.1566 -0.4470
47846SOL     OW48222  10.847  10.863   5.592 -0.2843  0.7120  0.0992
47846SOL    HW148223  10.873  10.935   5.649 -1.4265 -0.4796  2.2495
47846SOL    HW248224  10.893  10.787   5.627 -2.8757 -0.5175  1.0710
47847SOL     OW48225  11.796   5.236   0.185 -0.2092 -0.2084 -0.3144
47847SOL    HW148226  11.800   5.328   0.157  1.1574  0.0183  0.4793
47847SOL    HW248227  11.717   5.231   0.239  0.4560  0.8989  0.8372
47848SOL     OW48228   5.331   6.950  11.785  0.3951  0.2904 -0.7895
47848SOL    HW148229   5.377   6.926  11.704  0.7862  1.9990 -1.1156
47848SOL    HW248230   5.400   6.980  11.844  0.1328 -1.1221  0.2771
47849SOL     OW48231  11.988  11.462   1.962  0.4286  0.1828  0.3133
47849SOL    HW148232  12.042  11.409   2.021 -0.9867 -1.1888  0.4703
47849SOL    HW248233  11.973  11.544   2.010  1.3201  0.0853  0.7816
47850SOL     OW48234  10.504  10.194   3.807 -0.0381  0.2073  0.3485
47850SOL    HW148235  10.536  10.177   3.719  0.5659 -2.6469  1.0232
47850SOL    HW248236  10.453  10.275   3.799  1.3066  0.8940 -2.2447
47851SOL     OW48237  10.994  11.826   4.805  0.4671  0.5314 -0.4807
47851SOL    HW148238  10.955  11.814   4.719 -0.9023  5.0731 -0.7483
47851SOL    HW248239  11.088  11.834   4.788  0.1608  1.9061 -1.7089
47852SOL     OW48240   2.105  11.435   1.304  0.8002  0.1441 -0.1389
47852SOL    HW148241   2.175  11.501   1.308  0.1512  0.8024  0.5538
47852SOL    HW248242   2.066  11.436   1.391  2.1334 -2.6799  0.6353
47853SOL     OW48243   8.962   7.525   8.863  0.0197  0.1458 -0.1483
47853SOL    HW148244   8.931   7.612   8.838  2.3090  2.4678  3.8818
47853SOL    HW248245   9.040   7.511   8.811 -0.1525  0.6941 -0.5609
47854SOL     OW48246   4.490   5.108   8.906  0.3834 -0.5047  0.5905
47854SOL    HW148247   4.398   5.122   8.885  0.6327 -0.3028 -0.4676
47854SOL    HW248248   4.529   5.195   8.901  0.8138 -0.7212  0.0035
47855SOL     OW48249  10.249   0.032   7.469 -0.6359  0.1281  0.0993
47855SOL    HW148250  10.280  -0.030   7.404 -0.8937  1.2242 -1.1130
47855SOL    HW248251  10.314   0.027   7.540 -0.0334 -0.6711 -0.4957
47856SOL     OW48252   4.557   0.658   2.825 -0.4185  1.0599  0.1844
47856SOL    HW148253   4.515   0.698   2.749  1.5510  2.1336 -0.3987
47856SOL    HW248254   4.644   0.633   2.794 -1.0401 -2.6575  0.8665
47857SOL     OW48255   8.664   5.435   0.316 -0.4063 -0.5658 -0.2445
47857SOL    HW148256   8.640   5.517   0.359 -0.4015 -0.6215 -0.1341
47857SOL    HW248257   8.670   5.372   0.388 -1.2213 -0.8548 -0.4191
47858SOL     OW48258  10.189   6.293   3.414 -0.5398 -0.3404  0.3067
47858SOL    HW148259  10.112   6.236   3.413 -0.9545  0.2068 -0.5853
47858SOL    HW248260  10.166   6.365   3.355 -0.0667  0.8093  1.4924
47859SOL     OW48261  11.748   4.282  10.405 -0.3029 -0.2025 -0.5042
47859SOL    HW148262  11.831   4.306  10.446 -1.2983  1.3676  0.7326
47859SOL    HW248263  11.704   4.227  10.469 -1.1041  0.7667 -0.1875
47860SOL     OW48264   4.348   9.936   0.038  0.7025  0.0191  0.1891
47860SOL    HW148265   4.273   9.885   0.008  0.0833  1.0873 -0.1442
47860SOL    HW248266   4.384   9.885   0.111 -0.5945 -0.3153  0.6224
47861SOL     OW48267   7.615   6.556  10.647 -0.4050 -0.1570  0.2056
47861SOL    HW148268   7.709   6.542  10.632 -0.6333 -0.1108 -1.4236
47861SOL    HW248269   7.576   6.469  10.640 -0.4405 -0.2702  1.4899
47862SOL     OW48270   2.805   4.276   3.775  0.0602 -0.2030 -0.2070
47862SOL    HW148271   2.862   4.331   3.829 -1.1613 -1.4529  2.5350
47862SOL    HW248272   2.864   4.208   3.741  0.6800 -0.0730  0.5688
47863SOL     OW48273   9.166  11.570   8.208 -0.3996 -0.1556 -0.1719
47863SOL    HW148274   9.202  11.658   8.217  1.4794 -0.8324 -0.7522
47863SOL    HW248275   9.164  11.535   8.297  1.0351 -0.3412 -0.1991
47864SOL     OW48276  10.745   7.747   3.995  0.0395 -0.2792  0.0404
47864SOL    HW148277  10.669   7.798   3.968  0.1422  0.2274  0.6666
47864SOL    HW248278  10.712   7.659   4.012  0.0059 -0.6910 -1.8941
47865SOL     OW48279   8.848   9.299   0.609  0.2709  0.1687 -0.2159
47865SOL    HW148280   8.799   9.342   0.680  0.0215 -0.0040 -0.2819
47865SOL    HW248281   8.917   9.251   0.654 -1.7764 -2.5942  0.2479
47866SOL     OW48282   0.505   4.993   4.986 -0.7446  0.3106  0.2052
47866SOL    HW148283   0.529   4.929   4.919  0.7895  0.9764  0.0457
47866SOL    HW248284   0.451   4.946   5.048 -0.5219 -0.8525 -0.4628
47867SOL     OW48285   0.071   6.133   8.008 -0.4147 -0.1783  0.0258
47867SOL    HW148286   0.060   6.095   7.921 -1.4880 -1.8050  0.8179
47867SOL    HW248287  -0.012   6.177   8.025 -0.6991 -0.9392  0.6909
47868SOL     OW48288   6.427   9.970   6.911  0.5585  0.5331  0.0943
47868SOL    HW148289   6.418   9.930   6.998 -4.1235  0.6832 -0.0495
47868SOL    HW248290   6.362   9.924   6.858  1.2796  2.3925 -2.5551
47869SOL     OW48291   9.273   5.688   3.380 -0.1034  0.1054 -0.4401
47869SOL    HW148292   9.343   5.731   3.430  0.3379 -0.3213 -0.6893
47869SOL    HW248293   9.297   5.701   3.288 -0.1775 -0.3199 -0.5238
47870SOL     OW48294   8.742  10.913  11.827  0.6559 -0.4507 -0.1171
47870SOL    HW148295   8.723  10.821  11.847 -0.3894  0.1294  1.7712
47870SOL    HW248296   8.734  10.958  11.911 -1.1368  1.7487 -1.3483
47871SOL     OW48297   3.636   0.988   6.618  0.4046 -0.4317 -0.2703
47871SOL    HW148298   3.579   0.912   6.608 -0.4792 -0.0278  1.3519
47871SOL    HW248299   3.577   1.062   6.628  1.2396  0.2447 -0.1819
47872SOL     OW48300   6.437   1.252   6.322  0.0867 -0.0473  0.1080
47872SOL    HW148301   6.385   1.329   6.303 -0.2808 -0.8576 -2.6145
47872SOL    HW248302   6.389   1.207   6.391 -2.4786 -0.3133 -1.6833
47873SOL     OW48303   7.613   7.771   3.427  0.1828 -0.3846 -0.3990
47873SOL    HW148304   7.560   7.758   3.349 -0.1619 -0.2906 -0.1854
47873SOL    HW248305   7.690   7.716   3.414 -0.2594 -1.0047 -0.4429
47874SOL     OW48306   0.688   1.328   9.776 -0.0073 -0.5326 -0.5322
47874SOL    HW148307   0.608   1.295   9.736  0.1787 -0.6284 -0.8306
47874SOL    HW248308   0.659   1.368   9.858 -0.3096 -0.9146 -0.4478
47875SOL     OW48309   0.646   5.527   7.819  0.4496 -0.7606  0.2500
47875SOL    HW148310   0.590   5.450   7.813  0.5146 -0.8355  0.5700
47875SOL    HW248311   0.718   5.510   7.759  0.9800 -1.3937  1.0500
47876SOL     OW48312   6.012   4.421  11.895  0.4052  0.2755 -0.1967
47876SOL    HW148313   5.990   4.350  11.836  2.0407 -0.7463  0.3515
47876SOL    HW248314   5.993   4.501  11.845 -2.6319 -0.4349 -0.3802
47877SOL     OW48315   2.160   0.590   2.771 -0.0187 -0.0468  0.1579
47877SOL    HW148316   2.146   0.675   2.812 -0.9041  0.2250 -0.6387
47877SOL    HW248317   2.114   0.597   2.687  1.2836 -0.7498 -0.6483
47878SOL     OW48318   2.149   1.429  11.830 -0.4186 -0.1346 -0.4700
47878SOL    HW148319   2.059   1.458  11.814  0.0256  1.1559 -0.7464
47878SOL    HW248320   2.146   1.334  11.819 -2.1823 -0.3972  1.5549
47879SOL     OW48321   8.235   1.890   2.883  0.1423 -0.4075 -0.1536
47879SOL    HW148322   8.326   1.867   2.866  0.5821  0.9363  0.2307
47879SOL    HW248323   8.220   1.868   2.974 -0.4114 -2.0658 -0.6126
47880SOL     OW48324   5.671   0.425   7.016 -0.1415 -0.3262  0.2053
47880SOL    HW148325   5.633   0.410   6.929 -0.2859 -1.0453  0.3874
47880SOL    HW248326   5.704   0.515   7.012 -1.2875  0.1037 -0.1709
47881SOL     OW48327   0.666   5.592  10.825 -0.0244 -1.0282 -0.1577
47881SOL    HW148328   0.710   5.653  10.766 -1.5682  1.0135  0.7249
47881SOL    HW248329   0.734   5.528  10.847  1.9339  0.8445 -0.4312
47882SOL     OW48330   7.082   5.068   2.928  0.4901  0.1494 -0.3035
47882SOL    HW148331   7.138   5.009   2.878  0.6941  0.0938 -0.0100
47882SOL    HW248332   7.010   5.013   2.959  0.9164 -0.0516  0.3530
47883SOL     OW48333   4.819   6.958   5.063 -0.5432 -0.3726 -0.3420
47883SOL    HW148334   4.823   7.009   4.982  1.7156 -0.7127 -0.5234
47883SOL    HW248335   4.876   6.883   5.046  0.9144  0.1282  1.9192
47884SOL     OW48336   8.802   7.912   9.879 -0.4392 -0.1871  0.6593
47884SOL    HW148337   8.894   7.937   9.871 -0.3486 -0.7730 -0.2300
47884SOL    HW248338   8.763   7.936   9.796 -0.5392 -2.1454  0.1064
47885SOL     OW48339   2.863  10.801   9.166  0.1009 -0.3544  0.0589
47885SOL    HW148340   2.848  10.895   9.176  0.8198  0.0954 -2.3965
47885SOL    HW248341   2.935  10.781   9.226 -0.3907  0.5609  0.9613
47886SOL     OW48342   0.828  11.347   6.528  0.1023 -0.0276  0.1658
47886SOL    HW148343   0.796  11.342   6.438  0.1742 -2.5607  0.2050
47886SOL    HW248344   0.909  11.297   6.527  1.4031  1.9410  1.1899
47887SOL     OW48345   7.678   3.386   8.940 -0.4138 -0.2764 -0.1764
47887SOL    HW148346   7.692   3.304   8.987  0.9123  0.9987  1.8161
47887SOL    HW248347   7.583   3.400   8.943 -0.7563 -2.0245 -1.2028
47888SOL     OW48348   4.226   7.885   5.164 -1.3460 -0.4177 -0.6250
47888SOL    HW148349   4.226   7.891   5.068 -2.8659 -0.8600 -0.6783
47888SOL    HW248350   4.220   7.976   5.194  1.2415 -0.0783 -0.8508
47889SOL     OW48351   3.316   9.612   4.491 -0.1570  0.4502  0.5773
47889SOL    HW148352   3.280   9.670   4.557  0.9889 -0.2824  1.9161
47889SOL    HW248353   3.392   9.658   4.457  0.1103  0.2201  0.8497
47890SOL     OW48354   8.273   9.941   5.346 -0.0797  0.0073 -0.0837
47890SOL    HW148355   8.214   9.951   5.420  0.2041 -0.8720  0.2793
47890SOL    HW248356   8.217   9.906   5.276  0.2785 -2.4831  0.7653
47891SOL     OW48357   1.575  11.373   8.087  0.2277  0.5258 -0.2716
47891SOL    HW148358   1.506  11.315   8.055  2.1906 -1.3368 -1.3942
47891SOL    HW248359   1.580  11.443   8.022 -0.1976  0.3373 -0.5116
47892SOL     OW48360   5.736  10.128  11.434  0.3549  0.1238 -0.1060
47892SOL    HW148361   5.645  10.103  11.421  0.0974  1.1002 -0.3189
47892SOL    HW248362   5.738  10.168  11.521  0.7893 -0.7620  0.3054
47893SOL     OW48363   3.014   8.939   7.525  0.3947 -0.1430 -0.2749
47893SOL    HW148364   2.974   9.016   7.485  0.8776 -0.7936 -2.1387
47893SOL    HW248365   3.090   8.921   7.470 -0.4618 -2.7313 -0.7468
47894SOL     OW48366   9.011   8.639   3.068  0.1808 -0.6192 -0.2123
47894SOL    HW148367   9.069   8.615   3.141  0.6807  1.9117  0.3176
47894SOL    HW248368   9.062   8.700   3.016 -1.7369  1.1421 -0.1324
47895SOL     OW48369   2.121  11.110   1.575 -0.3191 -0.3379  0.0615
47895SOL    HW148370   2.155  11.195   1.602 -0.0524 -0.4411  0.0548
47895SOL    HW248371   2.195  11.050   1.588 -1.1620 -0.9860  2.2327
47896SOL     OW48372   1.267   4.046   1.810 -0.2963 -0.2373  0.0968
47896SOL    HW148373   1.211   4.043   1.887 -0.8462 -0.4916 -0.3062
47896SOL    HW248374   1.207   4.041   1.736  0.2100  0.1935 -0.3550
47897SOL     OW48375   1.636   4.920  10.751  0.2882  0.2775 -0.0073
47897SOL    HW148376   1.547   4.901  10.720  0.5000  0.7085 -0.9027
47897SOL    HW248377   1.656   5.006  10.716  1.5329 -0.3355 -0.8699
47898SOL     OW48378   1.079   8.991   6.721  0.6939 -0.0371 -0.3352
47898SOL    HW148379   1.024   8.928   6.768  1.0798 -0.6318 -0.6667
47898SOL    HW248380   1.111   9.050   6.789  0.5513 -0.3626  0.0209
47899SOL     OW48381   0.171   4.312  10.035  0.0612  0.2131 -0.1502
47899SOL    HW148382   0.202   4.274   9.953 -2.5135 -0.0956 -1.0813
47899SOL    HW248383   0.096   4.258  10.059  0.3543  0.7213  2.0749
47900SOL     OW48384   0.388   9.918   5.651 -0.4239  0.0701 -0.9662
47900SOL    HW148385   0.460   9.898   5.711 -1.2896 -0.6674 -0.1364
47900SOL    HW248386   0.426   9.975   5.585 -0.2578  4.3773  2.4305
47901SOL     OW48387   3.016   3.383   2.901  0.6495  0.2533 -0.1677
47901SOL    HW148388   2.987   3.474   2.914 -0.3687 -0.0058 -0.5500
47901SOL    HW248389   3.112   3.388   2.905  0.6033  0.8283  3.1465
47902SOL     OW48390   8.316   5.833   0.638 -0.2792 -0.0683 -0.7379
47902SOL    HW148391   8.356   5.865   0.558 -0.6135 -0.9939 -1.2916
47902SOL    HW248392   8.221   5.840   0.622 -0.4122  2.1303  0.5629
47903SOL     OW48393  10.876  10.836   4.990 -0.2366  0.1022  0.0353
47903SOL    HW148394  10.797  10.782   5.001 -0.2726  0.1966  0.2555
47903SOL    HW248395  10.871  10.900   5.061  0.2032 -0.0937  0.2448
47904SOL     OW48396   7.873  11.293   2.284 -0.3041 -0.0900  0.1227
47904SOL    HW148397   7.849  11.257   2.369  0.5431 -2.1819 -0.4489
47904SOL    HW248398   7.840  11.383   2.285 -3.9106 -1.2748  1.0936
47905SOL     OW48399   6.099  10.653   1.818  0.4620 -0.3846 -0.7239
47905SOL    HW148400   6.149  10.714   1.873 -1.6498 -0.7919  1.8963
47905SOL    HW248401   6.017  10.700   1.800 -1.1824 -2.2515  1.2850
47906SOL     OW48402   0.931   6.825  11.879 -0.1103  0.0719  1.2547
47906SOL    HW148403   1.026   6.824  11.890 -0.1198 -0.1453  1.3189
47906SOL    HW248404   0.912   6.752  11.821  0.0829  2.0352 -1.4737
47907SOL     OW48405   7.123   7.494   0.666 -0.1784  0.0283 -0.3058
47907SOL    HW148406   7.086   7.499   0.754  1.0442  0.8232  0.1871
47907SOL    HW248407   7.100   7.577   0.624 -0.9667 -0.4457 -0.8396
47908SOL     OW48408  10.325   2.381   1.170 -0.2957  0.0464 -0.2807
47908SOL    HW148409  10.373   2.335   1.102 -0.5713 -1.3314  0.4290
47908SOL    HW248410  10.269   2.314   1.210 -0.4274  0.9016  1.0394
47909SOL     OW48411   7.054   5.777   4.230  0.2521  0.1088 -0.2133
47909SOL    HW148412   7.035   5.811   4.317 -0.7720 -1.0282  0.0286
47909SOL    HW248413   7.148   5.792   4.218  0.6598 -0.7687  1.5643
47910SOL     OW48414   8.488   5.036   5.468  0.3596 -0.9853 -0.2413
47910SOL    HW148415   8.539   4.986   5.405  0.5033 -1.3917  0.1895
47910SOL    HW248416   8.460   4.972   5.533 -0.8631 -0.7977 -0.5664
47911SOL     OW48417   5.152   2.588   6.234  0.1856  0.3638  0.0535
47911SOL    HW148418   5.142   2.562   6.143  1.7304 -0.5310  0.1105
47911SOL    HW248419   5.155   2.506   6.283 -0.9600  0.8315  0.9837
47912SOL     OW48420   7.327   3.200   1.376 -0.7625  0.2731 -0.0283
47912SOL    HW148421   7.255   3.211   1.438 -1.1332 -1.9734  0.0579
47912SOL    HW248422   7.303   3.253   1.301 -2.9736 -1.0358 -0.3339
47913SOL     OW48423   5.913   6.545   9.107 -0.2267 -0.2054 -0.5955
47913SOL    HW148424   6.002   6.520   9.083 -0.0957 -1.5634  1.1235
47913SOL    HW248425   5.857   6.480   9.065 -0.4664  0.7532 -1.8286
47914SOL     OW48426   3.351   7.733   9.317 -0.0364 -0.4325  0.2803
47914SOL    HW148427   3.304   7.802   9.364  1.9832  0.8462  0.5254
47914SOL    HW248428   3.435   7.725   9.363  0.5605 -1.6805 -0.9492
47915SOL     OW48429   4.091   3.559   9.141 -0.5526 -0.6427 -0.6054
47915SOL    HW148430   4.064   3.651   9.132  0.2102 -0.2333  0.9908
47915SOL    HW248431   4.025   3.510   9.091 -1.8676  0.6510 -0.2012
47916SOL     OW48432   4.755   2.213   1.933  0.6884  0.0173 -0.1058
47916SOL    HW148433   4.702   2.262   1.996 -0.0463 -1.1137  0.1729
47916SOL    HW248434   4.776   2.277   1.865 -0.9056  0.5349 -0.1403
47917SOL     OW48435   5.719   2.966   6.838  0.1979 -0.2248  0.5902
47917SOL    HW148436   5.806   2.951   6.875 -0.2478 -1.1985  1.3031
47917SOL    HW248437   5.672   3.013   6.907 -0.2200 -0.8397  0.7334
47918SOL     OW48438   9.471   7.761   6.782 -0.3299  0.6482 -0.7734
47918SOL    HW148439   9.565   7.758   6.797 -0.3409 -0.1629 -0.8071
47918SOL    HW248440   9.456   7.696   6.714 -1.0905 -0.3210  0.2760
47919SOL     OW48441   5.320   1.128   6.858  0.1494  0.4591  0.2417
47919SOL    HW148442   5.244   1.126   6.800 -0.6946 -1.5564  1.3352
47919SOL    HW248443   5.395   1.123   6.799 -0.4925  2.4649 -0.8554
47920SOL     OW48444   9.798  10.927   7.085  0.1795  0.7106 -0.0294
47920SOL    HW148445   9.839  10.999   7.038 -0.3160  0.7157 -0.4553
47920SOL    HW248446   9.849  10.850   7.059 -0.1970  0.6874 -0.7102
47921SOL     OW48447   7.044   1.834  10.486  0.1322  0.3444  0.2950
47921SOL    HW148448   7.090   1.757  10.452 -1.4224 -0.6628  0.3780
47921SOL    HW248449   6.993   1.866  10.411  0.9044  1.4290  0.2084
47922SOL     OW48450   6.579  11.867  11.088  0.0356  0.7488 -0.5658
47922SOL    HW148451   6.655  11.922  11.108  0.6803  0.1008 -1.1603
47922SOL    HW248452   6.540  11.847  11.173  0.7746  0.7529 -0.2236
47923SOL     OW48453   5.621  10.944   7.072  0.0311  0.0555  0.0170
47923SOL    HW148454   5.629  10.955   7.167  3.0656  0.4905 -0.1889
47923SOL    HW248455   5.632  11.033   7.037  2.2896 -0.4812 -0.8021
47924SOL     OW48456  10.943   3.053   5.319  0.4562  0.1230 -0.1389
47924SOL    HW148457  10.992   3.075   5.398 -2.0624  0.5087  1.4144
47924SOL    HW248458  10.926   3.137   5.277 -0.5535  0.1956  0.3996
47925SOL     OW48459  10.074  10.940  11.444 -0.4646 -0.0201 -0.0925
47925SOL    HW148460  10.005  10.977  11.500  0.8077  0.7854  0.9902
47925SOL    HW248461  10.123  10.882  11.501  0.6250  0.5095 -0.4677
47926SOL     OW48462   9.841  10.042   4.118 -0.8478 -0.0321 -0.3727
47926SOL    HW148463   9.824  10.136   4.115 -1.3524 -0.0405  1.1064
47926SOL    HW248464   9.916  10.033   4.177 -1.4288 -0.6059  0.3030
47927SOL     OW48465   2.269   9.157   7.375  0.2064  0.2501 -0.3317
47927SOL    HW148466   2.234   9.097   7.310  1.5774  0.1301 -0.9907
47927SOL    HW248467   2.193   9.207   7.405 -0.2103  1.6373 -3.3971
47928SOL     OW48468   6.457   8.395  11.976  0.2819 -0.5469  0.4215
47928SOL    HW148469   6.477   8.383  12.069  1.6517 -0.5363  0.1424
47928SOL    HW248470   6.518   8.338  11.930  1.3929  1.3453 -0.5719
47929SOL     OW48471   5.836   6.154   2.261  0.4147 -0.0213  0.3423
47929SOL    HW148472   5.833   6.220   2.331 -0.4921 -0.0514  0.3344
47929SOL    HW248473   5.787   6.193   2.189 -0.0791 -0.6804  0.3170
47930SOL     OW48474  11.348   2.343   1.300 -0.6664  0.5977 -0.4173
47930SOL    HW148475  11.269   2.301   1.333 -2.6072  1.9300 -3.0589
47930SOL    HW248476  11.416   2.275   1.306 -2.5456 -1.3505 -0.2446
47931SOL     OW48477   8.774   9.485  11.043 -0.2372 -0.1254 -0.5182
47931SOL    HW148478   8.746   9.453  10.957  0.6401 -0.1628 -0.7991
47931SOL    HW248479   8.841   9.422  11.071 -0.1210  0.2022 -0.0575
47932SOL     OW48480   3.407   7.526   8.839 -0.2955  0.6418  0.2304
47932SOL    HW148481   3.333   7.570   8.797 -0.8718  0.3849  0.9703
47932SOL    HW248482   3.402   7.553   8.931  0.6348  0.7628  0.2541
47933SOL     OW48483   7.350  10.515   5.097 -0.3154 -0.1500 -0.2197
47933SOL    HW148484   7.433  10.542   5.138  0.1098 -1.1239 -0.4088
47933SOL    HW248485   7.284  10.531   5.164  0.3252 -1.3971  0.7523
47934SOL     OW48486   7.909   7.543  11.402  0.0737 -0.3672  0.0244
47934SOL    HW148487   7.950   7.615  11.449  1.1061 -1.2354  0.5007
47934SOL    HW248488   7.837   7.583  11.353  0.6568  0.9782  0.2456
47935SOL     OW48489  10.650   3.793   7.685 -0.3765  0.5644  0.3510
47935SOL    HW148490  10.571   3.744   7.708  0.2672 -0.0521  1.3649
47935SOL    HW248491  10.619   3.881   7.663 -1.3835  0.1986  0.2607
47936SOL     OW48492   3.968   1.649   7.694  0.4650  0.1283 -0.3270
47936SOL    HW148493   4.042   1.684   7.644 -0.4103  2.0143 -0.3687
47936SOL    HW248494   3.967   1.700   7.775 -2.1079  1.7820 -1.2746
47937SOL     OW48495   4.289  11.067   5.874 -0.1054  0.4172 -0.3176
47937SOL    HW148496   4.333  10.999   5.925 -0.6202  1.4413  1.6112
47937SOL    HW248497   4.359  11.125   5.846  0.1530  0.0160 -0.5130
47938SOL     OW48498   7.559  10.229   6.716  0.3860 -0.1987 -0.2784
47938SOL    HW148499   7.527  10.213   6.627  0.2735 -1.4071 -0.0364
47938SOL    HW248500   7.573  10.324   6.720 -1.1947  0.0914 -1.0539
47939SOL     OW48501   3.950  10.434   6.374 -0.0776 -0.1049  0.1256
47939SOL    HW148502   3.978  10.444   6.465  0.2344 -0.9761  0.1292
47939SOL    HW248503   3.905  10.516   6.354  0.6754  0.4863  0.7671
47940SOL     OW48504   0.234   0.245   9.096  0.3105  0.6430 -0.1097
47940SOL    HW148505   0.236   0.176   9.030  0.9116 -0.7545  1.3038
47940SOL    HW248506   0.297   0.310   9.064  0.3260  0.1731 -1.0743
47941SOL     OW48507   0.644   4.796   9.043  0.6750 -0.1429  0.0148
47941SOL    HW148508   0.659   4.883   9.080  0.6849  0.4525 -1.3231
47941SOL    HW248509   0.614   4.813   8.954 -0.8262 -1.4811  0.2068
47942SOL     OW48510   6.125   3.477   6.366  0.2160 -0.0331 -0.3789
47942SOL    HW148511   6.056   3.472   6.300  0.5885 -0.8327 -0.7327
47942SOL    HW248512   6.183   3.404   6.344  0.4394 -0.2034  0.7431
47943SOL     OW48513   7.917   0.883  10.909  0.4030  0.1889  0.4324
47943SOL    HW148514   7.969   0.906  10.986 -0.6000 -0.2738  1.2527
47943SOL    HW248515   7.953   0.799  10.880  1.8144  1.0741 -0.5695
47944SOL     OW48516   9.411   6.754   0.787 -0.1446 -0.1044 -0.1203
47944SOL    HW148517   9.487   6.795   0.747 -0.8981  0.8406 -0.6294
47944SOL    HW248518   9.367   6.825   0.833 -1.6727 -0.2135 -1.3256
47945SOL     OW48519   3.276  11.841  10.562 -0.0274 -0.6485 -0.3837
47945SOL    HW148520   3.215  11.825  10.634 -2.0454  0.6645 -1.6961
47945SOL    HW248521   3.304  11.932  10.574  0.2894 -0.6894 -0.7903
47946SOL     OW48522   4.929   8.528  10.956 -0.3815  0.2981  0.3570
47946SOL    HW148523   4.875   8.528  11.034 -0.7586  0.1345  0.0976
47946SOL    HW248524   4.976   8.444  10.958 -3.7204 -1.8712 -1.8602
47947SOL     OW48525   7.108  11.739   3.773  0.1450  0.2724 -0.1372
47947SOL    HW148526   7.140  11.763   3.861  0.7391 -0.8896 -0.0195
47947SOL    HW248527   7.183  11.697   3.731 -0.6572 -0.7467 -0.5768
47948SOL     OW48528   3.561   9.384   8.671 -0.2775 -0.7145  0.0051
47948SOL    HW148529   3.615   9.447   8.624 -0.8828 -0.8418 -0.8923
47948SOL    HW248530   3.624   9.321   8.706  0.2469 -0.2149 -0.0191
47949SOL     OW48531   7.409   0.162   3.513  0.3858 -0.4011 -0.0527
47949SOL    HW148532   7.377   0.154   3.603  2.0140  0.8028  0.6940
47949SOL    HW248533   7.330   0.166   3.459 -0.6502  0.0599  1.4512
47950SOL     OW48534   4.687   9.734   4.257  0.4905 -0.3318 -0.6736
47950SOL    HW148535   4.703   9.646   4.292  2.8338 -0.1043 -1.0150
47950SOL    HW248536   4.661   9.785   4.334 -1.7844 -1.4687 -0.6203
47951SOL     OW48537   5.460   4.857   8.787  0.2842 -0.0295 -0.3807
47951SOL    HW148538   5.467   4.933   8.728  0.7739 -1.0536 -1.7073
47951SOL    HW248539   5.395   4.883   8.852  0.5703  1.5924 -0.6957
47952SOL     OW48540   4.301   6.842   0.436 -0.4285 -0.0644 -0.1580
47952SOL    HW148541   4.342   6.876   0.356  0.6188  1.3542  0.9149
47952SOL    HW248542   4.230   6.904   0.455 -0.6021 -0.3280  0.0624
47953SOL     OW48543   5.030   5.982  10.980  0.0420 -0.2776 -0.6360
47953SOL    HW148544   5.075   5.911  11.026 -0.7966 -0.3544  0.0922
47953SOL    HW248545   5.089   6.005  10.909  0.8087 -0.9947 -0.2550
47954SOL     OW48546   8.061   7.243   7.158 -0.3266  0.5524  0.2541
47954SOL    HW148547   8.107   7.227   7.240 -0.1213  1.8698  0.4005
47954SOL    HW248548   8.119   7.299   7.108 -1.2208  1.2009 -0.0720
47955SOL     OW48549  10.617   4.054   9.963 -0.4847  0.0388 -0.0625
47955SOL    HW148550  10.646   4.091   9.879 -1.9506 -0.3734 -0.7799
47955SOL    HW248551  10.697   4.016  10.000  0.3267  0.7730 -0.9641
47956SOL     OW48552   2.815   2.397  11.226  0.5770 -0.1626 -0.2141
47956SOL    HW148553   2.805   2.328  11.291 -1.2418  1.4107  1.3093
47956SOL    HW248554   2.800   2.353  11.142  0.1444 -1.7243  0.6421
47957SOL     OW48555   1.208  11.520  11.849 -0.4397  0.0384  0.4074
47957SOL    HW148556   1.277  11.583  11.827 -0.9853 -0.0235 -1.6254
47957SOL    HW248557   1.157  11.510  11.769 -0.6021 -2.7398  0.7494
47958SOL     OW48558   6.364   5.853   9.837 -0.1601  0.3822  0.2325
47958SOL    HW148559   6.370   5.774   9.784  0.3200 -0.0142  0.8577
47958SOL    HW248560   6.371   5.925   9.775  0.8010 -0.0720 -0.2012
47959SOL     OW48561   7.008   5.659   0.360  0.1543  0.0290  0.0035
47959SOL    HW148562   6.940   5.599   0.330 -0.7467  0.2565  1.4646
47959SOL    HW248563   7.010   5.647   0.455  1.7396  0.4863  0.0626
47960SOL     OW48564   2.010   9.620   2.110  0.3109  0.6940  0.1204
47960SOL    HW148565   1.965   9.704   2.097  0.2439  0.3730 -2.1572
47960SOL    HW248566   1.984   9.592   2.197 -0.0784  2.7893  0.7360
47961SOL     OW48567   7.680   8.510   9.944 -0.1017  0.1949  0.8969
47961SOL    HW148568   7.617   8.516  10.016  0.3580 -0.3580  1.3565
47961SOL    HW248569   7.754   8.464   9.982  0.5860  0.8476  0.3629
47962SOL     OW48570   4.639   7.148  10.579  0.2976 -0.1590 -0.4582
47962SOL    HW148571   4.600   7.061  10.592 -1.3824  0.6030 -0.1894
47962SOL    HW248572   4.731   7.137  10.603 -0.0072 -1.7297  0.0886
47963SOL     OW48573  11.027   6.140   1.112 -0.3868 -0.0832  0.2527
47963SOL    HW148574  11.066   6.178   1.190 -0.7288 -0.1750  0.4715
47963SOL    HW248575  11.099   6.133   1.050 -0.0711 -0.1834  0.6242
47964SOL     OW48576   5.596   4.708   8.095 -0.6465  0.5165 -0.4239
47964SOL    HW148577   5.520   4.663   8.058 -0.7670  0.8173 -0.5449
47964SOL    HW248578   5.596   4.683   8.187 -1.9473  1.9326 -0.0002
47965SOL     OW48579   8.636   1.522   2.135 -0.1650 -0.4391  0.0601
47965SOL    HW148580   8.661   1.435   2.167  0.2427 -0.0823  0.7431
47965SOL    HW248581   8.702   1.543   2.069  1.6745  0.6399  2.0861
47966SOL     OW48582   0.751   6.931   9.761  0.1532 -0.2763  0.1487
47966SOL    HW148583   0.784   6.854   9.807  1.6585 -1.1173 -2.1810
47966SOL    HW248584   0.667   6.904   9.725  0.5498 -0.7594 -0.4299
47967SOL     OW48585   6.095  11.453   3.926  0.3543  0.6496  0.1242
47967SOL    HW148586   6.155  11.514   3.883 -0.6092  0.9379 -0.8629
47967SOL    HW248587   6.041  11.418   3.854 -1.3919  1.2465  1.0916
47968SOL     OW48588   9.779   5.350   7.792  0.1935  0.2954 -0.2876
47968SOL    HW148589   9.829   5.357   7.873  0.2361  2.5602 -0.4455
47968SOL    HW248590   9.692   5.381   7.814 -0.4156 -1.0521 -0.6604
47969SOL     OW48591   2.515   0.688  10.015  0.5378 -0.4769 -0.2061
47969SOL    HW148592   2.489   0.708  10.105  0.7069  0.0873 -0.2793
47969SOL    HW248593   2.442   0.637   9.980 -0.0672  0.2979 -0.1111
47970SOL     OW48594   0.130   3.423   8.635  0.4868  0.2801  0.4172
47970SOL    HW148595   0.101   3.451   8.548  0.1431 -1.1458  0.0619
47970SOL    HW248596   0.201   3.484   8.656 -0.0071  1.2015 -0.4748
47971SOL     OW48597   7.923   2.650   4.177  0.1225  0.0985  0.5663
47971SOL    HW148598   7.972   2.729   4.152  0.9556 -0.2637  1.0161
47971SOL    HW248599   7.946   2.635   4.269 -2.5462  1.1516  1.4918
47972SOL     OW48600   1.118  10.117   2.608  0.1513 -0.1352 -0.0440
47972SOL    HW148601   1.054  10.186   2.591  0.2050  0.0288  0.4104
47972SOL    HW248602   1.179  10.155   2.671  0.1144 -0.6365  0.3038
47973SOL     OW48603   1.917   1.065   6.398 -0.1448 -0.1411  0.1822
47973SOL    HW148604   2.001   1.090   6.360  0.9263 -3.4636  0.0778
47973SOL    HW248605   1.917   1.103   6.485  0.5977  1.4351 -0.4687
47974SOL     OW48606   3.309   2.586  11.298  0.1795 -0.4180 -0.3060
47974SOL    HW148607   3.235   2.644  11.281 -0.1824 -0.6760  0.3156
47974SOL    HW248608   3.362   2.632  11.363 -0.2312 -0.8635  0.3632
47975SOL     OW48609   1.815   2.176   7.592  0.2149 -0.1847 -0.5654
47975SOL    HW148610   1.737   2.221   7.559  0.7188  0.0876 -1.4334
47975SOL    HW248611   1.789   2.141   7.677 -0.4008  1.1686 -0.1693
47976SOL     OW48612   7.311  11.489   9.334  0.3413 -0.0507 -0.7369
47976SOL    HW148613   7.227  11.533   9.347  0.2509 -0.2012 -0.8107
47976SOL    HW248614   7.375  11.548   9.374  0.1682 -0.0696 -0.4322
47977SOL     OW48615  11.689   3.932   4.006 -0.2534 -0.6757  0.3094
47977SOL    HW148616  11.680   4.016   4.050 -0.5780 -0.6318  0.1612
47977SOL    HW248617  11.739   3.950   3.927  1.4744 -0.9651  1.2714
47978SOL     OW48618   9.161   8.190   1.011  0.3426  0.2708 -0.0689
47978SOL    HW148619   9.069   8.210   0.998  0.2037  0.0038  0.4663
47978SOL    HW248620   9.195   8.266   1.059  0.4833  0.5267 -0.5701
47979SOL     OW48621   5.284   6.383   5.510  0.0365  0.2581  0.3130
47979SOL    HW148622   5.367   6.367   5.556 -0.6930  1.6563  2.2186
47979SOL    HW248623   5.233   6.303   5.526 -0.4401  0.9348  2.6083
47980SOL     OW48624   1.388   8.791   8.537  0.4087 -0.3663 -0.0048
47980SOL    HW148625   1.477   8.805   8.569  0.7810  0.7307 -1.3822
47980SOL    HW248626   1.339   8.867   8.570 -0.1122 -1.1253  1.0092
47981SOL     OW48627  11.893   1.781   0.037 -0.3011  0.2002  0.6077
47981SOL    HW148628  11.948   1.823   0.103  0.8483 -0.2684 -0.0111
47981SOL    HW248629  11.936   1.696   0.021 -0.5299  0.3195 -0.7452
47982SOL     OW48630  10.384   1.709   8.596  0.3374 -0.2894  0.3691
47982SOL    HW148631  10.324   1.642   8.629  0.4903 -0.0598  1.1368
47982SOL    HW248632  10.351   1.731   8.509 -0.7117 -0.1411  0.7901
47983SOL     OW48633   9.421  11.486  11.946 -0.4417 -0.0021 -0.4468
47983SOL    HW148634   9.511  11.474  11.977 -0.2631  0.5681 -0.7250
47983SOL    HW248635   9.398  11.574  11.975 -0.9214 -0.1547 -0.3612
47984SOL     OW48636   3.716   2.770   4.262 -0.0328  0.3953  0.0482
47984SOL    HW148637   3.797   2.756   4.311  0.7991 -1.2333 -1.6764
47984SOL    HW248638   3.652   2.795   4.329  1.2574 -0.8075  1.8264
47985SOL     OW48639   4.170   7.899   4.900  0.1560  0.1727  0.5056
47985SOL    HW148640   4.244   7.930   4.847  0.4731 -1.7290 -0.2315
47985SOL    HW248641   4.101   7.879   4.836 -1.1724  2.1855  1.1978
47986SOL     OW48642  11.901   3.442   2.072 -0.2664  0.3354  0.8473
47986SOL    HW148643  11.991   3.410   2.075 -0.5454 -0.9134 -1.6770
47986SOL    HW248644  11.907   3.536   2.091  1.5839  0.3079  0.5047
47987SOL     OW48645  11.906   6.491  11.280 -0.2464 -0.7133 -0.4270
47987SOL    HW148646  11.981   6.450  11.237 -0.0050 -1.1844  0.4225
47987SOL    HW248647  11.844   6.420  11.294 -0.9007 -0.3116 -1.1928
47988SOL     OW48648   5.723   3.689   9.687 -0.0562 -0.0482  0.5173
47988SOL    HW148649   5.810   3.696   9.646 -0.5526  0.8469 -0.4329
47988SOL    HW248650   5.679   3.770   9.664 -1.4364 -0.8304  0.2962
47989SOL     OW48651   4.650   8.473   0.914  0.1237  0.5295  0.1228
47989SOL    HW148652   4.667   8.382   0.891  1.7858  0.8214  0.0815
47989SOL    HW248653   4.697   8.487   0.996 -0.2271  1.3268  0.2087
47990SOL     OW48654  11.053   8.416   4.524 -0.2736  0.0982  0.0239
47990SOL    HW148655  11.093   8.471   4.457  0.3349 -0.5571 -0.1623
47990SOL    HW248656  11.008   8.477   4.581  1.9152  1.0051  0.8954
47991SOL     OW48657   9.508   6.791   6.636  0.4011 -0.2315 -0.7260
47991SOL    HW148658   9.414   6.784   6.655  0.0406  0.9732 -1.8788
47991SOL    HW248659   9.551   6.763   6.717 -0.9409 -0.9983 -0.2454
47992SOL     OW48660  10.952   4.608   2.359 -0.2067 -1.1180  0.0094
47992SOL    HW148661  10.957   4.702   2.379 -0.4645 -1.1166  0.0824
47992SOL    HW248662  11.015   4.595   2.289 -1.2589 -0.5752 -1.0931
47993SOL     OW48663   2.746   8.504   2.835  0.0839  0.2085 -0.1167
47993SOL    HW148664   2.790   8.527   2.917  2.3417  1.1932 -1.5027
47993SOL    HW248665   2.753   8.583   2.781 -1.2338 -0.4517 -1.3371
47994SOL     OW48666  10.884  11.790  11.036  0.0916 -0.5032 -0.1604
47994SOL    HW148667  10.801  11.813  11.077  0.3120  0.0872 -0.0362
47994SOL    HW248668  10.935  11.871  11.038  0.9068 -1.0178  0.3160
47995SOL     OW48669   3.648   1.005   6.933 -0.4008  0.4379  0.8663
47995SOL    HW148670   3.572   1.032   6.881 -0.2065  0.0553  0.3793
47995SOL    HW248671   3.671   0.918   6.898 -0.0254  0.3535  1.3233
47996SOL     OW48672  10.374   9.578   2.259 -0.4963  0.1024  0.3822
47996SOL    HW148673  10.466   9.602   2.271 -0.1206 -1.5155  0.9530
47996SOL    HW248674  10.377   9.506   2.196 -1.2883 -0.5765  1.1083
47997SOL     OW48675  10.850   5.661   0.216  0.2155  0.6570  0.1139
47997SOL    HW148676  10.783   5.661   0.148 -0.3915  2.3338  0.6471
47997SOL    HW248677  10.801   5.653   0.298  0.8112  0.1625  0.4289
47998SOL     OW48678   0.395   8.816   1.206  0.3922  0.5784  0.0819
47998SOL    HW148679   0.455   8.839   1.135 -0.4613  0.6304 -0.6499
47998SOL    HW248680   0.414   8.879   1.275  1.6097  0.1878  0.1249
47999SOL     OW48681   1.952   3.661  10.209 -0.0144  0.5419  0.5354
47999SOL    HW148682   2.004   3.674  10.129 -1.8592  0.4711 -0.7486
47999SOL    HW248683   1.993   3.718  10.274  0.9122  1.4269 -0.7753
48000SOL     OW48684   4.614  11.998   1.183 -0.3586  0.3807 -0.1982
48000SOL    HW148685   4.534  11.992   1.235 -1.1523  3.8041 -0.7772
48000SOL    HW248686   4.588  12.047   1.105  2.1660  1.0959 -0.6954
48001SOL     OW48687   5.302   3.030   6.889 -0.4238  0.3399 -0.0566
48001SOL    HW148688   5.211   3.052   6.905 -1.0995 -1.8205 -0.6139
48001SOL    HW248689   5.299   2.957   6.828  1.6895  0.2641 -0.1451
48002SOL     OW48690   7.592   1.392   4.342  0.2067  0.1474 -0.5352
48002SOL    HW148691   7.591   1.311   4.292  0.3680 -0.7938  0.9088
48002SOL    HW248692   7.676   1.432   4.322  0.4322 -0.4063 -0.7022
48003SOL     OW48693   2.500   1.599   2.870 -0.2584  0.1707  0.3871
48003SOL    HW148694   2.544   1.580   2.787  0.2054  1.1676  0.3845
48003SOL    HW248695   2.545   1.545   2.935 -0.1110 -0.0328  0.1143
48004SOL     OW48696   7.800   3.448   9.640 -0.3052 -0.2746  0.0617
48004SOL    HW148697   7.793   3.543   9.627 -0.6872 -0.3245 -0.1110
48004SOL    HW248698   7.851   3.417   9.566 -0.2391 -0.2117  0.0818
48005SOL     OW48699  10.871   4.581   0.179  0.2039 -0.1010 -0.4004
48005SOL    HW148700  10.914   4.498   0.157 -1.3506 -1.3901  1.1330
48005SOL    HW248701  10.779   4.567   0.156  0.1414  1.7801 -1.4982
48006SOL     OW48702   2.346   1.848   6.407 -0.3637  0.1551 -0.3990
48006SOL    HW148703   2.329   1.940   6.385 -0.5116  0.3019  0.3089
48006SOL    HW248704   2.424   1.849   6.461 -0.7531 -0.0685  0.1741
48007SOL     OW48705   7.092   2.651   7.811 -0.1995 -0.4111 -0.7108
48007SOL    HW148706   7.109   2.598   7.733  0.9704 -0.6139 -0.3447
48007SOL    HW248707   7.077   2.739   7.777  0.1642 -0.5238 -1.1817
48008SOL     OW48708   8.458   7.137  11.498 -0.1783 -0.0755 -0.0839
48008SOL    HW148709   8.384   7.197  11.488  0.3494  1.1008  2.1757
48008SOL    HW248710   8.424   7.051  11.472 -1.4274  0.9079 -1.8880
48009SOL     OW48711   9.188   2.882  11.870  0.1549  0.3274  0.5296
48009SOL    HW148712   9.133   2.880  11.792  1.4745 -0.3936 -0.4264
48009SOL    HW248713   9.167   2.801  11.916  0.7410 -0.1944 -0.0911
48010SOL     OW48714   1.339   3.969   7.980  0.0482 -0.1227 -0.0276
48010SOL    HW148715   1.348   4.044   7.920 -0.7678 -0.0487 -0.0617
48010SOL    HW248716   1.338   3.892   7.923 -3.4101  0.0676 -0.4175
48011SOL     OW48717   5.458   4.474   5.074  0.3780 -0.5221  0.8841
48011SOL    HW148718   5.521   4.407   5.045  0.5443  0.2369 -0.6009
48011SOL    HW248719   5.372   4.436   5.055  0.3664 -1.3235  2.3849
48012SOL     OW48720   4.155   9.346   4.709  0.0859  0.0012 -0.3085
48012SOL    HW148721   4.223   9.412   4.712 -0.3251  0.4080  0.2042
48012SOL    HW248722   4.075   9.391   4.737 -0.0225 -0.9189  0.9841
48013SOL     OW48723   5.675   8.267   6.139  0.3083 -0.8042 -0.4275
48013SOL    HW148724   5.726   8.227   6.068 -0.5393  0.8015 -2.0114
48013SOL    HW248725   5.585   8.267   6.106  0.0428  0.8447  0.2320
48014SOL     OW48726   3.978   5.599   3.275  0.1482  0.1759 -0.1996
48014SOL    HW148727   4.059   5.613   3.225  0.3267 -0.9354 -0.2526
48014SOL    HW248728   3.988   5.511   3.311 -0.3741  0.6157  1.0686
48015SOL     OW48729   9.203   7.370   5.069  0.2272  0.1326 -0.0336
48015SOL    HW148730   9.122   7.327   5.042 -0.3528  0.9867  0.2910
48015SOL    HW248731   9.175   7.454   5.105  0.9379 -0.9834  3.4164
48016SOL     OW48732   9.487  11.044   1.348 -0.3112 -0.2668 -1.1571
48016SOL    HW148733   9.480  11.024   1.254  0.1496 -2.0320 -0.8514
48016SOL    HW248734   9.516  10.962   1.388  0.2162  0.6542  0.4468
48017SOL     OW48735   8.578   3.983  11.600  0.0272  0.0131  0.3467
48017SOL    HW148736   8.516   4.039  11.553 -1.5805  0.5684  2.9032
48017SOL    HW248737   8.614   4.040  11.668  1.7216 -0.9189  0.2833
48018SOL     OW48738  10.783   4.893   1.328 -0.0963  0.1245 -0.2769
48018SOL    HW148739  10.793   4.868   1.236  0.9280 -0.4840 -0.0141
48018SOL    HW248740  10.788   4.989   1.328 -0.4818  0.1481 -0.8904
48019SOL     OW48741  10.885   7.318   3.683 -0.1763  0.0368 -0.3912
48019SOL    HW148742  10.799   7.338   3.722  0.1775  1.0021 -0.0759
48019SOL    HW248743  10.944   7.314   3.758  0.1672 -0.0135 -0.6636
48020SOL     OW48744   8.108   1.857  10.624 -0.0850 -0.2497 -0.3076
48020SOL    HW148745   8.035   1.916  10.607 -0.2522 -0.5756 -0.7300
48020SOL    HW248746   8.069   1.783  10.671  0.1170 -0.0416  0.1935
48021SOL     OW48747  10.281  10.921   3.839  0.1254  0.0826 -0.1524
48021SOL    HW148748  10.282  10.872   3.921  0.5062 -0.8010 -0.6645
48021SOL    HW248749  10.237  10.863   3.777  0.7354  0.3068 -0.8131
48022SOL     OW48750   0.297   4.655  11.593 -0.1396  0.5055 -0.3384
48022SOL    HW148751   0.328   4.741  11.566 -0.9261  1.3380  1.2969
48022SOL    HW248752   0.215   4.672  11.639 -0.1624 -1.0869  0.2722
48023SOL     OW48753   2.242   9.335   1.383 -0.5254 -0.9818  0.5120
48023SOL    HW148754   2.166   9.283   1.357 -1.0508 -0.6946  1.4327
48023SOL    HW248755   2.304   9.324   1.311 -1.4180 -1.2538 -0.2361
48024SOL     OW48756   9.488   4.656   2.354 -0.7127 -0.3965  0.3779
48024SOL    HW148757   9.493   4.591   2.284 -1.4235  0.6187 -0.6429
48024SOL    HW248758   9.521   4.610   2.431  0.2689 -1.4845 -0.6507
48025SOL     OW48759   6.713   3.556   9.809  0.1989 -0.2078 -0.4970
48025SOL    HW148760   6.798   3.599   9.798 -0.4295  1.2103 -0.1234
48025SOL    HW248761   6.734   3.467   9.836  1.5607  0.0717 -0.5655
48026SOL     OW48762   4.661   3.539   1.126 -0.2293 -0.0214 -0.1222
48026SOL    HW148763   4.599   3.585   1.071 -0.0339  1.0210  0.5163
48026SOL    HW248764   4.731   3.512   1.065 -1.2463 -1.1537 -0.8274
48027SOL     OW48765   1.080   5.801   5.947 -0.3630 -0.1756 -0.1458
48027SOL    HW148766   1.170   5.820   5.921 -0.3586 -1.8637 -1.5597
48027SOL    HW248767   1.087   5.759   6.032  0.0582  0.8106  0.3255
48028SOL     OW48768   6.540  10.163   1.091  0.1604  0.7977 -0.2033
48028SOL    HW148769   6.483  10.112   1.033 -0.0291  3.1287 -2.1994
48028SOL    HW248770   6.628  10.150   1.057  0.1162  1.7174 -0.7015
48029SOL     OW48771   2.625   2.063  11.020 -0.1248  0.0467  0.0784
48029SOL    HW148772   2.685   2.088  10.950  1.2923  1.7218  1.7799
48029SOL    HW248773   2.672   1.997  11.071 -1.0688 -1.0298 -0.3962
48030SOL     OW48774   8.170   7.309   7.971  0.3240 -0.1911 -0.0955
48030SOL    HW148775   8.252   7.329   8.018  0.4302  0.7958 -0.6733
48030SOL    HW248776   8.195   7.242   7.908 -0.0077 -2.2258  1.7869
48031SOL     OW48777   8.160   0.803  11.338  0.0038 -0.1728  0.1210
48031SOL    HW148778   8.199   0.716  11.328 -0.9736 -0.5537 -0.5476
48031SOL    HW248779   8.097   0.793  11.408  1.5239  0.6128  1.6737
48032SOL     OW48780   6.787   7.501   7.514 -0.0457 -0.9653  1.2228
48032SOL    HW148781   6.836   7.576   7.547 -0.3213 -0.7027  1.0444
48032SOL    HW248782   6.851   7.451   7.464 -0.2837  0.2199 -0.3802
48033SOL     OW48783   8.787   0.198   8.440  0.0493 -0.4918 -0.1911
48033SOL    HW148784   8.822   0.243   8.363  0.3734  0.3763  0.4431
48033SOL    HW248785   8.766   0.269   8.501 -1.4342 -1.0937  0.0213
48034SOL     OW48786   2.403   3.243   2.443 -0.3138  0.2863 -0.1516
48034SOL    HW148787   2.484   3.240   2.391 -0.9685  4.0785 -1.7749
48034SOL    HW248788   2.433   3.259   2.533  0.7366 -0.8507 -0.2682
48035SOL     OW48789   2.073   6.232   8.454  0.0773  0.0970 -0.1869
48035SOL    HW148790   2.035   6.300   8.399  1.0422 -1.1771 -2.5562
48035SOL    HW248791   2.156   6.268   8.484 -0.0804  0.4859 -0.2094
48036SOL     OW48792  11.132  10.087   3.765  0.4294  0.6038 -0.5618
48036SOL    HW148793  11.176  10.090   3.680  1.2284  1.8017 -0.1296
48036SOL    HW248794  11.119  10.179   3.788 -1.3371  0.2909 -0.1666
48037SOL     OW48795   0.958   0.601   2.838 -0.6826  0.4508  0.0040
48037SOL    HW148796   1.009   0.638   2.766 -1.6864  1.3354 -0.2786
48037SOL    HW248797   0.875   0.575   2.798 -1.5942  1.7439  0.9642
48038SOL     OW48798   7.406  10.015   6.953  0.9598  0.1049  0.0667
48038SOL    HW148799   7.402  10.059   7.038 -2.6108 -1.2548  0.8118
48038SOL    HW248800   7.429   9.925   6.974 -1.6532 -0.6750 -0.0382
48039SOL     OW48801   7.785   7.923   0.283  0.4679  0.2584 -0.1914
48039SOL    HW148802   7.750   7.853   0.227  0.2137 -2.0204  2.5724
48039SOL    HW248803   7.713   7.944   0.342  1.2130  1.4647  0.3235
48040SOL     OW48804   7.548   5.970   1.726 -0.6969 -0.3002 -0.0565
48040SOL    HW148805   7.480   5.945   1.789  0.7240 -0.9653  1.2703
48040SOL    HW248806   7.562   5.891   1.674  0.1301 -0.6654  0.6999
48041SOL     OW48807   0.474   3.613  10.336  0.0601 -1.3118 -0.0287
48041SOL    HW148808   0.458   3.668  10.413  0.1079 -0.3463 -0.6972
48041SOL    HW248809   0.544   3.658  10.289  0.5170 -2.2706 -0.2772
48042SOL     OW48810  11.835   2.638   9.594 -0.3147 -0.9293  0.3103
48042SOL    HW148811  11.913   2.668   9.641 -1.0259  0.2202  0.7940
48042SOL    HW248812  11.794   2.576   9.654 -1.3633  0.7329  1.3879
48043SOL     OW48813   5.178   2.455   5.008 -0.1347  0.3532  0.2771
48043SOL    HW148814   5.086   2.477   4.996 -0.2877  0.0127  0.7990
48043SOL    HW248815   5.191   2.374   4.958  0.1181  0.9038 -0.5776
48044SOL     OW48816   7.313   3.787   0.474  0.6034 -0.2728  0.5109
48044SOL    HW148817   7.397   3.804   0.431 -0.1825 -1.1879 -1.5605
48044SOL    HW248818   7.247   3.802   0.405 -0.8402 -0.6863  1.7402
48045SOL     OW48819   3.478  10.293  11.204 -0.4595 -0.1660  0.1143
48045SOL    HW148820   3.463  10.348  11.281  1.9679  0.1175  0.4778
48045SOL    HW248821   3.400  10.239  11.197 -2.3385  2.3345  0.5786
48046SOL     OW48822   3.046   6.823   4.074  0.0197  0.0755  0.0967
48046SOL    HW148823   3.034   6.880   3.999 -0.5792 -2.7754 -2.1658
48046SOL    HW248824   3.135   6.841   4.104  0.7678  0.4448 -2.1538
48047SOL     OW48825   1.335   5.971   9.851 -0.2769 -0.2877  0.3505
48047SOL    HW148826   1.358   6.027   9.925 -0.5241  0.3276 -0.0304
48047SOL    HW248827   1.410   5.976   9.792 -0.8105  0.6422 -0.2622
48048SOL     OW48828   0.588   5.610   1.762 -0.1018  0.2231  0.7197
48048SOL    HW148829   0.556   5.657   1.685  0.5001 -1.0447 -0.3492
48048SOL    HW248830   0.643   5.673   1.808  0.5036  0.6411 -0.5449
48049SOL     OW48831   4.747   0.667   8.722 -0.2924 -0.0021  0.8468
48049SOL    HW148832   4.664   0.635   8.756 -0.3171 -0.9528 -0.0337
48049SOL    HW248833   4.811   0.601   8.750 -0.2430 -0.5593 -0.5117
48050SOL     OW48834  11.745  10.045   8.661  0.1360 -0.2475  0.3349
48050SOL    HW148835  11.815   9.983   8.645  1.6676  1.5958 -0.5660
48050SOL    HW248836  11.739  10.097   8.581  0.1153  1.8548  1.6196
48051SOL     OW48837   3.863   5.028   5.817  0.3199 -0.0418  0.4868
48051SOL    HW148838   3.917   5.003   5.742  0.9431  1.1871  0.5045
48051SOL    HW248839   3.795   4.960   5.821  1.7908 -1.5981  0.4178
48052SOL     OW48840   8.944   9.659  11.408 -0.5172  0.1607  0.3439
48052SOL    HW148841   8.892   9.733  11.377  0.7367  0.7862 -0.3555
48052SOL    HW248842   9.033   9.677  11.376 -0.0693 -1.3662  0.6429
48053SOL     OW48843  11.695   0.184   9.062 -0.4340 -0.1368  0.7135
48053SOL    HW148844  11.602   0.208   9.065 -0.3422  0.5831 -0.9509
48053SOL    HW248845  11.699   0.111   9.000  0.3874  1.6696 -1.5076
48054SOL     OW48846  10.113   7.089   0.773 -0.3708 -0.1255 -0.0663
48054SOL    HW148847  10.185   7.102   0.835 -1.7438  1.6652  1.2423
48054SOL    HW248848  10.147   7.121   0.690  0.7186 -0.3567  0.2717
48055SOL     OW48849   9.795   5.824   0.358 -0.2512  0.7435  0.4180
48055SOL    HW148850   9.809   5.738   0.319  2.1157  0.9845  0.5932
48055SOL    HW248851   9.849   5.824   0.437 -2.5995  1.3434  2.1278
48056SOL     OW48852   8.141   8.953   8.557  0.4330 -0.5357  0.4090
48056SOL    HW148853   8.177   8.868   8.535 -1.5119 -1.9550  2.2629
48056SOL    HW248854   8.210   8.997   8.607  0.7425 -1.8826  1.2003
48057SOL     OW48855   7.229   2.392  10.597  0.0267 -0.1591 -0.4838
48057SOL    HW148856   7.197   2.407  10.686  0.6253 -0.5196 -0.2068
48057SOL    HW248857   7.173   2.322  10.563 -0.4512  0.2381 -0.5327
48058SOL     OW48858   6.926   1.451   0.539  0.2181 -0.6058 -0.0305
48058SOL    HW148859   6.904   1.358   0.546  1.1792 -0.7750  1.2133
48058SOL    HW248860   6.851   1.491   0.496  0.1553 -2.0923 -1.3896
48059SOL     OW48861   6.397   2.730   8.876  0.1413  0.0560  0.4020
48059SOL    HW148862   6.324   2.674   8.849  0.7108 -0.2301 -0.5988
48059SOL    HW248863   6.395   2.803   8.814  0.3189  0.3726  0.7697
48060SOL     OW48864   6.070  10.255   3.314  0.0024  0.1006 -0.1153
48060SOL    HW148865   6.083  10.309   3.237  0.3988 -0.2141 -0.2765
48060SOL    HW248866   6.095  10.167   3.286 -2.2855 -0.5311 -0.3731
48061SOL     OW48867  11.251  10.566   1.772 -0.1732  0.0616 -0.4235
48061SOL    HW148868  11.228  10.473   1.779 -0.6274  0.0683 -1.5575
48061SOL    HW248869  11.293  10.575   1.687  0.4392  0.7972 -0.0634
48062SOL     OW48870   0.304   7.697   9.809 -0.3246  0.1698 -0.3259
48062SOL    HW148871   0.350   7.613   9.814 -1.2209 -0.5234 -2.7804
48062SOL    HW248872   0.363   7.759   9.852  1.0314 -1.4352  0.2075
48063SOL     OW48873   0.525   7.388  11.151  0.6532  0.0449 -0.2223
48063SOL    HW148874   0.514   7.331  11.227 -2.6536  0.7709  0.0248
48063SOL    HW248875   0.495   7.474  11.182  2.2415  1.1314 -1.5291
48064SOL     OW48876   8.745   4.512   9.645 -0.2723 -0.0940 -0.1956
48064SOL    HW148877   8.833   4.539   9.671  0.1661 -1.3809 -0.2375
48064SOL    HW248878   8.702   4.487   9.727 -0.6727  0.7182 -0.1533
48065SOL     OW48879   0.346   8.092   2.855 -0.0281 -0.3271  0.4339
48065SOL    HW148880   0.374   8.136   2.936  0.4990  0.4961 -0.1857
48065SOL    HW248881   0.409   8.021   2.845  1.1815  0.8078 -0.3239
48066SOL     OW48882   1.795   3.867   3.485 -0.4152  0.3159  0.9792
48066SOL    HW148883   1.834   3.823   3.409 -2.9913  1.5471 -1.2121
48066SOL    HW248884   1.871   3.897   3.536  1.4061 -1.6164 -0.4149
48067SOL     OW48885   7.956   4.698   1.095 -0.3221  0.2518  0.7349
48067SOL    HW148886   8.027   4.640   1.123  0.2237  0.6469  0.2104
48067SOL    HW248887   7.876   4.646   1.106  0.1451 -0.5543  0.3835
48068SOL     OW48888   1.277   4.003   5.568 -0.5944 -0.7205  0.1006
48068SOL    HW148889   1.188   4.036   5.583 -0.7434 -0.9092 -0.3636
48068SOL    HW248890   1.267   3.910   5.552 -0.2644 -0.8254  0.4742
48069SOL     OW48891   4.369   3.137   1.162  0.4583 -0.4538  0.4964
48069SOL    HW148892   4.411   3.204   1.108  0.2798  0.5143  1.5202
48069SOL    HW248893   4.325   3.080   1.100 -1.0219  1.4821 -0.3184
48070SOL     OW48894   1.211   3.325   0.186  0.0699  0.0105 -0.1917
48070SOL    HW148895   1.167   3.246   0.217 -0.4900 -0.2426 -1.5740
48070SOL    HW248896   1.268   3.295   0.115 -1.2221  1.0036 -1.7232
48071SOL     OW48897   5.755   2.100  10.347  0.1657 -0.0610 -0.2663
48071SOL    HW148898   5.662   2.116  10.329 -0.1770 -0.0318  1.3281
48071SOL    HW248899   5.797   2.185  10.333 -0.2090  0.1449 -0.1655
48072SOL     OW48900   0.218   3.062   2.504 -0.5368 -0.1458  0.3799
48072SOL    HW148901   0.231   3.032   2.594 -1.2830  1.0427  0.9074
48072SOL    HW248902   0.201   2.981   2.455  1.5524 -0.9995  0.9514
48073SOL     OW48903   4.547   9.354   9.507 -0.0848 -0.2076  0.1237
48073SOL    HW148904   4.453   9.364   9.492 -0.5026 -1.7615  1.3147
48073SOL    HW248905   4.561   9.385   9.596  0.6355  0.4599 -0.2092
48074SOL     OW48906   1.047   7.375   4.307  0.5510  0.1960 -0.2232
48074SOL    HW148907   1.130   7.354   4.350  2.1246  1.7628 -2.2951
48074SOL    HW248908   1.030   7.466   4.331 -0.8358 -0.2430  0.5391
48075SOL     OW48909   4.651   6.930   8.319 -0.2328  0.6412 -0.4834
48075SOL    HW148910   4.661   6.835   8.311 -0.7518  0.5022  0.4128
48075SOL    HW248911   4.646   6.946   8.413  0.3281  1.6138 -0.6024
48076SOL     OW48912   9.573   3.329   8.932 -0.3062 -0.1943  1.0176
48076SOL    HW148913   9.539   3.405   8.980 -0.5028  0.2655  0.1693
48076SOL    HW248914   9.660   3.314   8.970  1.1480  2.4638 -0.8599
48077SOL     OW48915   5.140   9.995   0.590 -0.1323 -0.0407  0.7250
48077SOL    HW148916   5.109  10.074   0.635  0.2027  0.3114  0.3465
48077SOL    HW248917   5.108  10.003   0.500  1.5647  0.6557  0.1469
48078SOL     OW48918   7.896   5.157   9.386  0.3463  0.0595 -0.7173
48078SOL    HW148919   7.992   5.152   9.381  0.2419 -1.5361 -1.6055
48078SOL    HW248920   7.870   5.200   9.304  0.1952 -1.6254 -1.5872
48079SOL     OW48921   1.324   3.901   6.527 -0.2532  0.2445 -0.1010
48079SOL    HW148922   1.348   3.889   6.435 -0.0443  1.1654 -0.1845
48079SOL    HW248923   1.231   3.923   6.525 -0.4117 -0.4113 -0.0300
48080SOL     OW48924   1.226   9.994  11.866  0.2792  0.5612  0.5463
48080SOL    HW148925   1.297   9.939  11.899 -0.7406 -0.0521  1.7538
48080SOL    HW248926   1.240   9.996  11.771  1.9189  0.4853  0.7503
48081SOL     OW48927   4.652   3.425   3.055 -0.1540 -0.1613  0.0011
48081SOL    HW148928   4.686   3.514   3.050 -3.1617  1.1897  1.3603
48081SOL    HW248929   4.669   3.398   3.145  2.6100 -1.9124 -0.9143
48082SOL     OW48930   8.574   6.693   0.252  0.3116 -0.1676  0.6291
48082SOL    HW148931   8.560   6.601   0.229 -1.8030  0.2391  0.0902
48082SOL    HW248932   8.623   6.729   0.178  2.5860 -1.1491  1.5485
48083SOL     OW48933   4.623  10.063   0.831  0.4718  0.1846  0.1914
48083SOL    HW148934   4.583  10.032   0.750 -3.0999 -0.2002  1.8753
48083SOL    HW248935   4.584  10.149   0.846  1.2867  0.3816  1.3198
48084SOL     OW48936   6.490   3.356   4.683  0.2576  0.4497  0.5158
48084SOL    HW148937   6.499   3.433   4.740 -0.8194  1.3533 -0.4652
48084SOL    HW248938   6.431   3.385   4.613  1.3870 -0.6760 -0.9701
48085SOL     OW48939   3.425   1.778   5.290  0.4346 -0.5750 -0.0446
48085SOL    HW148940   3.419   1.736   5.205  2.6642  0.1540 -0.6444
48085SOL    HW248941   3.449   1.869   5.271 -0.7645  0.0753  1.3219
48086SOL     OW48942  10.886   8.325   5.834  0.0389 -0.0715  0.3355
48086SOL    HW148943  10.929   8.338   5.918 -0.5591 -1.4286  0.8840
48086SOL    HW248944  10.880   8.413   5.796  0.9462  0.4664  1.3876
48087SOL     OW48945   9.595   2.099   4.568 -0.0677  0.0307 -0.4430
48087SOL    HW148946   9.520   2.159   4.557 -0.4609 -0.2788  0.4361
48087SOL    HW248947   9.621   2.077   4.479 -2.1475 -1.2353 -0.8283
48088SOL     OW48948   0.041   0.342   1.393 -0.0521  0.0021 -0.0473
48088SOL    HW148949   0.068   0.431   1.369 -0.7681 -0.0795 -1.2550
48088SOL    HW248950  -0.034   0.324   1.336  1.2906 -2.1069 -1.2664
48089SOL     OW48951   4.518   7.917   1.026  0.4003  0.1621  0.2502
48089SOL    HW148952   4.426   7.896   1.037  0.3499  0.2415 -0.0006
48089SOL    HW248953   4.544   7.959   1.108  0.2568 -0.0089  0.3828
48090SOL     OW48954   7.502   1.885   4.190  0.2093  0.5314  0.1369
48090SOL    HW148955   7.507   1.792   4.168 -0.7050  0.6292 -0.5059
48090SOL    HW248956   7.415   1.897   4.228 -0.5230  1.5160 -1.7306
48091SOL     OW48957   7.003  11.371   5.585 -0.1609  0.1026 -0.1710
48091SOL    HW148958   7.060  11.305   5.624 -0.4848  0.5391  1.1065
48091SOL    HW248959   6.970  11.331   5.505 -0.7262 -1.4713  0.8152
48092SOL     OW48960   0.661   1.783   3.512 -0.6437 -0.1967 -0.4137
48092SOL    HW148961   0.607   1.827   3.446  0.5646  1.4220 -0.4208
48092SOL    HW248962   0.678   1.851   3.577 -0.2143 -1.2107  0.5559
48093SOL     OW48963   9.196   6.312   1.699  0.2191 -0.2689 -0.2577
48093SOL    HW148964   9.205   6.363   1.780 -2.0109 -0.8428  0.3988
48093SOL    HW248965   9.224   6.373   1.630  1.9250  0.3055  0.8814
48094SOL     OW48966   9.749   2.806  11.645 -0.4002  0.2550 -0.2274
48094SOL    HW148967   9.655   2.789  11.656 -0.5112  2.0624  3.0338
48094SOL    HW248968   9.791   2.750  11.710  0.7337  0.0860 -1.0768
48095SOL     OW48969   5.974   2.723  10.328 -0.3224  0.2841 -0.0512
48095SOL    HW148970   5.944   2.645  10.375  0.2101 -0.2111 -0.5064
48095SOL    HW248971   6.044   2.759  10.382 -0.4584  0.3561  0.0787
48096SOL     OW48972   0.451   7.724  11.698  0.1619  0.1292  0.3243
48096SOL    HW148973   0.494   7.732  11.783 -1.4898 -0.6648  1.2857
48096SOL    HW248974   0.478   7.638  11.665  0.1592  0.0887  0.4270
48097SOL     OW48975   9.564   2.351   3.690 -0.3007  0.1074  0.3946
48097SOL    HW148976   9.510   2.316   3.620 -1.4251  0.2187  1.1768
48097SOL    HW248977   9.543   2.445   3.693  2.3537  0.8613 -1.3905
48098SOL     OW48978   5.729   1.233  11.321 -0.2036 -0.0338 -0.1368
48098SOL    HW148979   5.816   1.192  11.326 -0.0917  0.0889 -0.9820
48098SOL    HW248980   5.706   1.250  11.412 -0.0041 -1.4649  0.2051
48099SOL     OW48981   1.076  10.717  10.105  0.3500 -0.2056 -0.3173
48099SOL    HW148982   1.056  10.694  10.196 -0.5664  1.5498 -0.0321
48099SOL    HW248983   1.073  10.633  10.058  0.2470 -1.0592  1.1548
48100SOL     OW48984   5.496  11.232   4.491  0.3250 -0.3352  0.0578
48100SOL    HW148985   5.474  11.223   4.398 -0.1551  0.1903  0.1150
48100SOL    HW248986   5.413  11.254   4.533  0.2753 -1.8428  0.8075
48101SOL     OW48987   6.408   2.468   3.398  0.0308 -0.2404 -0.4130
48101SOL    HW148988   6.353   2.392   3.419  0.4368 -0.0412  1.6547
48101SOL    HW248989   6.365   2.509   3.323 -1.9576 -0.7885  0.3425
48102SOL     OW48990   3.049   1.825   8.753  0.0065  0.2843  0.1018
48102SOL    HW148991   3.038   1.917   8.726  0.6828  1.4704  3.3459
48102SOL    HW248992   2.961   1.787   8.744 -0.5800  1.6283 -0.1541
48103SOL     OW48993   6.151   8.118  11.848 -0.4019  0.1823  0.1744
48103SOL    HW148994   6.092   8.165  11.789  0.2416 -0.8553 -1.3351
48103SOL    HW248995   6.103   8.115  11.931 -1.5170  1.2746 -0.3935
48104SOL     OW48996  11.687   6.904   4.564 -0.3723  0.2194  0.4558
48104SOL    HW148997  11.766   6.952   4.539  1.0377 -1.8183  0.6853
48104SOL    HW248998  11.640   6.962   4.623  1.8722  0.8637  1.7253
48105SOL     OW48999   1.395   2.167   2.460  0.2976 -0.6073  0.7172
48105SOL    HW149000   1.447   2.157   2.380  0.7761 -0.8863  1.0585
48105SOL    HW249001   1.451   2.219   2.518 -0.0129 -0.4824  0.9082
48106SOL     OW49002   3.772   4.647  10.111 -0.2073  0.1742 -0.3518
48106SOL    HW149003   3.813   4.575  10.158  2.2720  2.0330  0.5931
48106SOL    HW249004   3.814   4.647  10.025 -0.1258  0.5284 -0.3145
48107SOL     OW49005  11.496   0.856   2.665  0.2073 -0.0242 -0.4998
48107SOL    HW149006  11.446   0.797   2.608 -0.3991  0.0459 -0.0478
48107SOL    HW249007  11.436   0.928   2.683  0.9382  0.7490 -1.0420
48108SOL     OW49008   2.091   6.157   7.433 -0.0854  0.9281  0.3084
48108SOL    HW149009   2.059   6.067   7.435 -0.7653  1.1375 -0.8394
48108SOL    HW249010   2.169   6.155   7.489  0.2518 -0.5089 -0.1736
48109SOL     OW49011   2.322   0.866   5.084  0.6243 -0.0926 -0.0581
48109SOL    HW149012   2.325   0.962   5.074 -1.0179  0.1391  1.1110
48109SOL    HW249013   2.288   0.834   5.001  1.8759  0.2520 -0.7237
48110SOL     OW49014   1.974   2.889   8.656 -0.3683 -0.2352  0.0657
48110SOL    HW149015   1.992   2.816   8.716 -0.6607 -1.0106 -0.7780
48110SOL    HW249016   1.932   2.849   8.580 -0.5980  0.8253 -0.3894
48111SOL     OW49017  11.175   4.273   0.316 -0.3985  0.0842 -0.0929
48111SOL    HW149018  11.252   4.328   0.300  0.7021 -1.7768 -1.5588
48111SOL    HW249019  11.209   4.195   0.358 -1.7958  0.0521  1.0405
48112SOL     OW49020   1.979   2.819  11.535 -0.2890 -0.4480 -0.1476
48112SOL    HW149021   1.993   2.841  11.443  1.0938  0.0684  0.1714
48112SOL    HW249022   1.940   2.897  11.573  0.3236 -0.1996 -0.0232
48113SOL     OW49023   4.226   1.369   5.440 -0.3266 -0.6629 -0.6357
48113SOL    HW149024   4.211   1.284   5.482  0.2765 -0.5424 -0.1643
48113SOL    HW249025   4.180   1.363   5.356 -0.7968 -1.2341 -0.3459
48114SOL     OW49026   5.690   1.563   1.219 -0.0343 -0.0510  0.0452
48114SOL    HW149027   5.776   1.572   1.260  1.0582 -1.2360 -1.8277
48114SOL    HW249028   5.706   1.579   1.126 -1.3781 -2.3987 -0.6849
48115SOL     OW49029   0.211   3.987   0.291  0.3132  0.0661  0.3989
48115SOL    HW149030   0.170   3.923   0.349  0.7631  0.0982  0.7590
48115SOL    HW249031   0.175   3.969   0.205  0.8412 -1.0225  0.3952
48116SOL     OW49032   1.895   6.631   9.190  0.1527 -0.1872  0.3025
48116SOL    HW149033   1.935   6.712   9.157  0.1181 -0.2656  0.0616
48116SOL    HW249034   1.956   6.598   9.256 -0.0379  0.2605  0.7115
48117SOL     OW49035  10.290   1.667   2.613 -0.3582  0.6911 -0.6724
48117SOL    HW149036  10.233   1.619   2.554  1.3302 -1.2065 -0.8701
48117SOL    HW249037  10.372   1.677   2.565  1.3634 -1.6533  1.5147
48118SOL     OW49038   3.286  10.973   1.076 -0.3201 -0.0887 -0.0848
48118SOL    HW149039   3.231  10.914   1.127 -0.5898 -1.5061 -1.9404
48118SOL    HW249040   3.249  11.060   1.091 -1.4800 -0.7047  0.6946
48119SOL     OW49041   3.729   1.789  10.426 -0.2895 -0.4274 -0.3151
48119SOL    HW149042   3.799   1.730  10.398 -2.8484 -2.5227 -2.8471
48119SOL    HW249043   3.733   1.861  10.363 -0.9565 -1.0274 -1.0603
48120SOL     OW49044   9.355   8.409   7.432 -0.2196  0.2382 -0.0833
48120SOL    HW149045   9.386   8.499   7.437 -0.6606  0.3031  2.4883
48120SOL    HW249046   9.434   8.358   7.414  0.4962  0.9046  1.0583
48121SOL     OW49047  10.901  11.455   8.386  0.1846  0.2139  0.1451
48121SOL    HW149048  10.822  11.493   8.348  2.3128  2.0105 -2.8441
48121SOL    HW249049  10.938  11.401   8.316  1.6928 -0.5162  1.4302
48122SOL     OW49050   2.317   6.271   8.224 -0.6269  0.0809 -0.0184
48122SOL    HW149051   2.225   6.255   8.202 -0.5080 -2.6307  1.0272
48122SOL    HW249052   2.325   6.245   8.316  1.7356 -2.8257 -0.8760
48123SOL     OW49053   9.524   2.084   5.878  0.2037  0.0694  0.3972
48123SOL    HW149054   9.534   2.008   5.935  0.0810 -0.6802 -0.5512
48123SOL    HW249055   9.599   2.080   5.820 -0.6642 -0.2997 -0.7450
48124SOL     OW49056   8.380   6.481   3.394  0.0818  0.0739 -0.0813
48124SOL    HW149057   8.374   6.566   3.439 -0.3478  0.4019 -0.7389
48124SOL    HW249058   8.309   6.429   3.431 -0.6270  0.5388 -0.7856
48125SOL     OW49059   4.605   9.131   7.774  0.6539 -0.0605 -0.3250
48125SOL    HW149060   4.635   9.041   7.791  0.3484  0.0687  0.9455
48125SOL    HW249061   4.519   9.120   7.733  0.4348 -0.3375  0.2099
48126SOL     OW49062   8.492  11.888   6.693 -0.0441 -0.1232 -0.1546
48126SOL    HW149063   8.505  11.812   6.636  0.0989  1.3734 -2.2672
48126SOL    HW249064   8.403  11.879   6.726 -0.8635 -0.1372 -2.1977
48127SOL     OW49065   7.456   4.381   1.899 -0.4098 -0.2227 -0.3339
48127SOL    HW149066   7.503   4.397   1.817  2.5792  1.4977  1.4974
48127SOL    HW249067   7.460   4.286   1.911  0.2243 -0.3758 -1.5990
48128SOL     OW49068   8.594   2.835   7.269  0.5403  0.3108  0.3499
48128SOL    HW149069   8.670   2.813   7.323  0.5969  0.3027  0.2655
48128SOL    HW249070   8.625   2.902   7.209  0.3697  0.6175  0.5968
48129SOL     OW49071  10.113  11.559   4.313 -0.0138  0.1912 -0.3168
48129SOL    HW149072  10.177  11.586   4.379  0.7637  0.2353 -1.0758
48129SOL    HW249073  10.032  11.604   4.338  0.1146 -0.2515  0.9316
48130SOL     OW49074   5.600   5.189   6.980  0.1644  0.3622 -0.0125
48130SOL    HW149075   5.617   5.095   6.990  1.9734  0.4235 -1.8144
48130SOL    HW249076   5.660   5.231   7.042 -0.1547  0.3540  0.3043
48131SOL     OW49077   4.023   9.823  11.361 -0.2994  0.0574 -0.4072
48131SOL    HW149078   4.058   9.894  11.414  0.7228 -0.4966 -0.3060
48131SOL    HW249079   4.082   9.819  11.285 -2.6090  1.8595 -2.4658
48132SOL     OW49080   8.437   0.621   6.914 -0.3702 -0.2053  0.2161
48132SOL    HW149081   8.529   0.645   6.927 -0.0117 -2.6706  3.6460
48132SOL    HW249082   8.440   0.543   6.859 -0.5048  0.0924 -0.2225
48133SOL     OW49083   1.899  11.601   5.524 -1.0341  0.9689 -0.2538
48133SOL    HW149084   1.969  11.661   5.498 -0.5243  0.9205  0.9346
48133SOL    HW249085   1.860  11.642   5.601 -0.4080 -0.3918  0.8331
48134SOL     OW49086   8.657   7.485   1.918 -0.0061  0.0199  0.2444
48134SOL    HW149087   8.627   7.487   1.827  3.0570  0.0530 -0.8907
48134SOL    HW249088   8.605   7.552   1.962 -1.4695  0.1105 -1.5026
48135SOL     OW49089   8.686   1.139   7.417 -0.0169 -0.6415  0.2756
48135SOL    HW149090   8.617   1.195   7.383  0.4319 -1.2265 -1.7361
48135SOL    HW249091   8.690   1.159   7.511 -0.5778  1.8716 -0.1747
48136SOL     OW49092   7.439   0.005   5.978 -0.1914 -0.0411  0.7475
48136SOL    HW149093   7.345   0.016   5.966 -0.2665 -2.2374 -1.2262
48136SOL    HW249094   7.451   0.004   6.073 -2.1219  0.3176  1.0337
48137SOL     OW49095  11.826   4.818   5.916  0.3722 -0.0842  0.3171
48137SOL    HW149096  11.867   4.872   5.849  0.9269  0.1376  0.8223
48137SOL    HW249097  11.733   4.840   5.911  0.5257  0.5420  0.1713
48138SOL     OW49098  11.926   7.106   4.834  0.0284  0.2093 -0.5935
48138SOL    HW149099  11.958   7.144   4.916 -0.7323 -2.1614  0.8948
48138SOL    HW249100  11.834   7.130   4.831  0.0864  0.4018 -0.8314
48139SOL     OW49101   3.476   2.762  10.582 -0.0726 -0.2972  0.0647
48139SOL    HW149102   3.511   2.676  10.559  0.4230 -0.4837  1.4523
48139SOL    HW249103   3.506   2.778  10.671 -0.2872  1.2561 -0.1056
48140SOL     OW49104   6.832   9.329  10.944 -0.3589 -0.2853 -0.3532
48140SOL    HW149105   6.907   9.373  10.904  0.1247 -0.1052  0.7165
48140SOL    HW249106   6.761   9.342  10.881  0.3564  0.0111 -1.1332
48141SOL     OW49107   9.389   7.868   8.040 -0.1550 -0.7171  0.2894
48141SOL    HW149108   9.433   7.858   8.124  0.6209 -0.4588 -0.0800
48141SOL    HW249109   9.356   7.959   8.041  1.7032  0.0089 -0.5341
48142SOL     OW49110   2.608   3.050   4.441 -0.1829 -0.2640 -0.1012
48142SOL    HW149111   2.666   3.024   4.369 -0.4021 -0.2168 -0.2979
48142SOL    HW249112   2.583   2.968   4.483  0.6912 -0.2250  0.5080
48143SOL     OW49113   3.157   0.264  11.136 -0.3389  0.0087  0.3307
48143SOL    HW149114   3.112   0.293  11.056 -1.0323 -1.4974  0.1299
48143SOL    HW249115   3.194   0.179  11.113  2.2638  0.9678  0.6545
48144SOL     OW49116  11.123  10.195   9.906 -0.6478 -0.2597 -0.2364
48144SOL    HW149117  11.103  10.105   9.933 -0.1944 -0.4391 -0.4824
48144SOL    HW249118  11.041  10.226   9.866 -0.8897 -0.4671  0.0912
48145SOL     OW49119   8.107   8.269   3.391  0.2186  0.4900  0.2004
48145SOL    HW149120   8.192   8.299   3.422  0.2989 -1.5735  2.2697
48145SOL    HW249121   8.043   8.311   3.448 -0.1866  1.7938 -1.1514
48146SOL     OW49122  11.473   8.314   8.594  0.3609  0.0343 -0.2777
48146SOL    HW149123  11.417   8.267   8.655  2.4523  0.5019  2.1907
48146SOL    HW249124  11.433   8.401   8.587  0.6086  0.3339  1.3808
48147SOL     OW49125  10.309   2.064   4.800  0.0223  0.8499 -0.0757
48147SOL    HW149126  10.288   2.076   4.707  0.4957 -0.9662 -0.4649
48147SOL    HW249127  10.273   1.977   4.821 -0.3388  1.3554  1.5330
48148SOL     OW49128   9.950  11.616  10.702 -0.5437 -0.2514 -0.2409
48148SOL    HW149129  10.002  11.588  10.627 -1.5495 -0.0429 -1.0258
48148SOL    HW249130  10.011  11.669  10.754  0.4050 -1.0975 -0.4484
48149SOL     OW49131  11.085   2.510   2.528  0.1115 -0.0088 -0.2399
48149SOL    HW149132  11.026   2.521   2.454  0.3231 -0.7023 -0.5220
48149SOL    HW249133  11.167   2.550   2.499 -0.2933  1.2333  0.2690
48150SOL     OW49134   0.957   8.767   6.806 -0.1814 -0.7758  0.4022
48150SOL    HW149135   0.870   8.729   6.818 -1.0838  1.4301  1.6067
48150SOL    HW249136   1.018   8.696   6.824 -1.7294 -2.1807  0.3271
48151SOL     OW49137   8.779   9.122   2.910 -0.7419 -1.2461 -0.1491
48151SOL    HW149138   8.731   9.069   2.974 -0.1194 -0.6126  0.8791
48151SOL    HW249139   8.871   9.098   2.923 -0.6229 -1.2121 -0.9151
48152SOL     OW49140   7.210   0.382   4.730 -0.3126 -0.0478 -0.6073
48152SOL    HW149141   7.165   0.347   4.806  1.0522  0.8829  0.6868
48152SOL    HW249142   7.289   0.424   4.766  0.3070  0.5209 -2.5150
48153SOL     OW49143   6.548   9.291   9.999 -0.1849  0.4293 -0.0461
48153SOL    HW149144   6.539   9.202   9.965 -1.5279  0.1544  0.9226
48153SOL    HW249145   6.621   9.286  10.061  0.7812  0.4018 -1.1622
48154SOL     OW49146  11.731   8.485   3.885  0.1179  0.4882 -0.0764
48154SOL    HW149147  11.725   8.398   3.924 -0.5546  0.5295 -0.0805
48154SOL    HW249148  11.779   8.471   3.802  1.8146  0.4478  0.8593
48155SOL     OW49149   3.168   0.599  11.605 -0.1127 -0.1653 -0.0458
48155SOL    HW149150   3.151   0.658  11.678 -0.7955 -1.2231  0.6906
48155SOL    HW249151   3.125   0.639  11.530 -1.2014 -0.0773  0.5981
48156SOL     OW49152  10.163   8.071   1.523  0.2265 -0.5704 -0.0380
48156SOL    HW149153  10.148   8.000   1.461 -0.3110  0.3315 -0.9553
48156SOL    HW249154  10.175   8.026   1.607 -0.0133 -1.7466 -0.6062
48157SOL     OW49155   9.526   0.156   4.305 -0.2370 -0.4635 -0.2675
48157SOL    HW149156   9.528   0.196   4.218 -1.7110  0.7321  0.2132
48157SOL    HW249157   9.618   0.138   4.325  0.3674  1.5075 -1.0641
48158SOL     OW49158   4.856   4.943   5.711 -0.2908 -0.3762  0.0990
48158SOL    HW149159   4.794   4.882   5.750  0.0451 -1.6519 -1.2198
48158SOL    HW249160   4.831   4.945   5.618  2.0179 -1.5375 -0.6351
48159SOL     OW49161   2.975  11.341   8.512 -0.8329 -0.5839 -0.2263
48159SOL    HW149162   3.049  11.395   8.482 -1.5029  0.8927  0.6997
48159SOL    HW249163   2.919  11.333   8.435  0.5484 -2.2939 -1.1471
48160SOL     OW49164  11.582   2.512   2.318 -0.1908 -0.0969 -0.2087
48160SOL    HW149165  11.609   2.526   2.228 -0.7987 -1.2344 -0.5840
48160SOL    HW249166  11.556   2.420   2.322 -0.4703  0.0117  1.0445
48161SOL     OW49167   7.529   2.732   1.995 -0.0020  0.8267  0.6203
48161SOL    HW149168   7.536   2.826   2.009 -0.2316  1.2652 -1.8305
48161SOL    HW249169   7.544   2.720   1.902  0.0255 -1.5903  0.8654
48162SOL     OW49170   2.996   9.204   1.192 -0.2653 -0.3128 -0.0983
48162SOL    HW149171   2.928   9.234   1.131  0.5083  1.4696 -0.1435
48162SOL    HW249172   3.003   9.274   1.257  0.5347 -1.1300  0.7287
48163SOL     OW49173  11.568   4.531   2.307  0.9269 -0.3903  0.5307
48163SOL    HW149174  11.600   4.455   2.259  0.6696 -1.1814  1.5764
48163SOL    HW249175  11.557   4.599   2.240 -1.9702 -2.2049 -1.0100
48164SOL     OW49176  10.949   9.015   7.516  0.6830 -0.2906  0.2412
48164SOL    HW149177  10.923   9.102   7.487 -0.5891 -0.0652  1.9030
48164SOL    HW249178  10.982   8.972   7.437 -0.1531  1.1598 -0.9444
48165SOL     OW49179   4.475   0.039   4.391  0.2339  0.2143 -0.2594
48165SOL    HW149180   4.478   0.130   4.361  1.4952  0.4247  0.4214
48165SOL    HW249181   4.495  -0.013   4.313  0.9286  0.6071 -0.3514
48166SOL     OW49182   4.365   7.031   5.401  0.0290 -0.6081 -0.1057
48166SOL    HW149183   4.359   6.953   5.457  1.9074 -1.4378 -0.9719
48166SOL    HW249184   4.450   7.070   5.421 -0.8473  1.2296  0.2621
48167SOL     OW49185   3.055   8.243   8.356  0.4039  0.1672  0.6494
48167SOL    HW149186   3.101   8.279   8.280 -2.1640  0.4644 -0.8883
48167SOL    HW249187   3.088   8.292   8.431  2.0807  0.7593 -0.4409
48168SOL     OW49188   3.980   3.835   8.048  0.1819 -0.0244  0.7123
48168SOL    HW149189   3.987   3.898   7.976  1.4952  1.1440  1.8143
48168SOL    HW249190   3.921   3.877   8.111  1.9434  0.6675  1.9637
48169SOL     OW49191   4.751   2.382   8.314 -0.8073 -0.5261  0.0690
48169SOL    HW149192   4.735   2.292   8.286 -0.8940 -0.3351 -0.5198
48169SOL    HW249193   4.768   2.376   8.408  1.6640 -1.4611 -0.3713
48170SOL     OW49194  10.400   6.746   5.023  0.0175  0.2336 -0.1356
48170SOL    HW149195  10.313   6.781   5.003  0.4860  0.3864 -2.2103
48170SOL    HW249196  10.383   6.659   5.059 -1.0520  1.3159  2.1446
48171SOL     OW49197   9.663   2.489   6.897  0.1307  0.4766 -0.2691
48171SOL    HW149198   9.647   2.580   6.921 -1.5401 -0.0004  0.5435
48171SOL    HW249199   9.576   2.453   6.879  0.4870 -1.4847  1.4614
48172SOL     OW49200   1.415   2.844   7.194 -0.3573 -0.4076  0.0474
48172SOL    HW149201   1.464   2.838   7.112  3.0458  2.7977  1.5505
48172SOL    HW249202   1.368   2.927   7.188 -2.8599 -1.7203  0.1375
48173SOL     OW49203   7.339  10.106   7.221 -0.2845  0.3278 -0.1326
48173SOL    HW149204   7.367  10.023   7.258  3.7757  1.0208 -1.1784
48173SOL    HW249205   7.282  10.144   7.288  0.7252 -1.6840  1.9947
48174SOL     OW49206   5.322  11.240   5.112 -0.3460  0.1789  0.0694
48174SOL    HW149207   5.305  11.302   5.183 -1.1668  0.5019 -0.3937
48174SOL    HW249208   5.255  11.173   5.122  0.9033 -0.9826  0.9270
48175SOL     OW49209   4.809   9.735   8.114 -0.2432 -0.2450 -0.4484
48175SOL    HW149210   4.819   9.764   8.023  3.1998  1.6276  0.3290
48175SOL    HW249211   4.759   9.804   8.157  1.2235  0.7427 -0.2497
48176SOL     OW49212   3.193   6.255  10.464 -0.1477  0.5932  0.1370
48176SOL    HW149213   3.228   6.240  10.376 -0.2745  0.3288  0.1310
48176SOL    HW249214   3.267   6.292  10.513  0.3032 -0.4028  0.2523
48177SOL     OW49215   3.837  11.475   8.827 -0.2809 -0.0459 -0.0869
48177SOL    HW149216   3.830  11.536   8.753  1.0978  1.1649  0.7072
48177SOL    HW249217   3.890  11.522   8.891 -0.6776 -1.4222  1.3117
48178SOL     OW49218   4.062   8.148   4.984  0.4412 -0.4022 -0.6169
48178SOL    HW149219   4.098   8.168   5.070  1.1592  1.6173 -1.3216
48178SOL    HW249220   4.096   8.060   4.963  0.8190 -0.6249  0.8418
48179SOL     OW49221   5.617   0.755   1.006 -0.2441  0.0888 -0.2360
48179SOL    HW149222   5.692   0.721   0.957  0.5667 -0.9580  1.6416
48179SOL    HW249223   5.655   0.808   1.076 -1.2196 -0.6160  0.8719
48180SOL     OW49224   4.336   3.265   0.225 -0.0009 -0.2862 -0.0580
48180SOL    HW149225   4.340   3.359   0.207 -0.8767 -0.2729 -0.1789
48180SOL    HW249226   4.269   3.256   0.292  0.5098 -0.7678  0.4061
48181SOL     OW49227   5.656   9.348   0.190 -0.2387  0.0008 -0.5032
48181SOL    HW149228   5.651   9.265   0.143 -1.7093  0.9921 -2.2403
48181SOL    HW249229   5.734   9.391   0.157  1.0409 -1.0144  1.0682
48182SOL     OW49230   8.219   0.387   7.635  0.7249  0.0333 -0.2583
48182SOL    HW149231   8.238   0.472   7.597 -0.5067  0.1316 -0.7158
48182SOL    HW249232   8.153   0.349   7.577  0.5531 -0.8270  0.4681
48183SOL     OW49233   1.077   5.168   5.553 -0.3889 -0.3296  0.2285
48183SOL    HW149234   1.002   5.110   5.537 -1.6890  1.2453  0.3480
48183SOL    HW249235   1.053   5.215   5.634  1.7016 -1.2806  1.4693
48184SOL     OW49236   8.219  10.677  11.840  0.6982 -0.5961 -0.1670
48184SOL    HW149237   8.172  10.626  11.906 -0.5379  1.2808  0.4951
48184SOL    HW249238   8.182  10.649  11.757 -0.6837 -0.1306  0.2605
48185SOL     OW49239  10.323   2.880   6.541 -0.0829  0.3115 -0.1750
48185SOL    HW149240  10.360   2.832   6.615  0.8470  2.5635  0.9194
48185SOL    HW249241  10.241   2.915   6.574  0.2488  1.1736 -0.2319
48186SOL     OW49242   1.192  10.856   8.319 -0.3611 -0.2849  0.2291
48186SOL    HW149243   1.097  10.862   8.335 -0.1873 -1.1790  1.8082
48186SOL    HW249244   1.201  10.873   8.225 -2.0480  0.1834  0.1104
48187SOL     OW49245   9.543   1.901   6.064  0.9506  0.2774  0.3051
48187SOL    HW149246   9.535   1.952   6.145 -0.2169  1.3962 -0.4599
48187SOL    HW249247   9.568   1.813   6.092  1.4296  0.8750  1.8017
48188SOL     OW49248  10.828   9.506  10.412 -0.1486  0.0716  0.0299
48188SOL    HW149249  10.839   9.572  10.480  0.3829  0.1062 -0.0891
48188SOL    HW249250  10.915   9.469  10.399 -0.4895 -0.8459  0.2825
48189SOL     OW49251   9.971   4.450   7.573  0.4039  0.1936  0.0524
48189SOL    HW149252  10.041   4.513   7.556 -1.4572  2.2208 -0.4464
48189SOL    HW249253   9.992   4.414   7.660  2.1061  0.6306 -0.1423
48190SOL     OW49254   1.462   3.332   1.837  0.6448  0.6744 -0.3617
48190SOL    HW149255   1.518   3.263   1.873  1.6646  1.6047 -0.0822
48190SOL    HW249256   1.409   3.362   1.911  0.5700  0.5402 -0.3611
48191SOL     OW49257   8.133   5.138   8.910 -0.4471  0.1786 -0.1044
48191SOL    HW149258   8.192   5.175   8.845 -2.5950  1.4894 -1.4093
48191SOL    HW249259   8.096   5.060   8.868 -1.0863  0.4523 -0.0507
48192SOL     OW49260   1.476  10.269  10.559  0.0316  0.5179 -0.4130
48192SOL    HW149261   1.477  10.177  10.535 -2.0745  0.8103 -1.8743
48192SOL    HW249262   1.567  10.289  10.580  0.8658 -1.4382 -1.8606
48193SOL     OW49263   4.163   4.806   2.213 -0.2042  0.5861 -0.1057
48193SOL    HW149264   4.201   4.867   2.276  1.1550 -0.8230  0.4724
48193SOL    HW249265   4.198   4.721   2.236 -2.3179 -0.5307 -0.6875
48194SOL     OW49266   7.135  10.884   6.928 -0.1094  0.6946  0.0406
48194SOL    HW149267   7.193  10.839   6.990  0.4656  1.2005 -0.1239
48194SOL    HW249268   7.191  10.947   6.884 -1.2195  2.7943  1.4618
48195SOL     OW49269   6.953  11.691   6.254 -0.1631 -0.0546  0.2735
48195SOL    HW149270   7.031  11.743   6.273 -0.1356  0.3158 -0.8230
48195SOL    HW249271   6.885  11.730   6.310  0.2321  0.1573  0.6112
48196SOL     OW49272   9.300   2.521   4.877 -0.2156  0.8676 -0.2678
48196SOL    HW149273   9.274   2.606   4.843 -0.6176  1.2678  0.9682
48196SOL    HW249274   9.237   2.459   4.841 -0.3930  1.2135 -0.5517
48197SOL     OW49275   7.506   0.416   8.375 -0.2932 -0.4963 -0.5747
48197SOL    HW149276   7.416   0.420   8.343 -0.3158  0.6033 -0.3915
48197SOL    HW249277   7.560   0.432   8.298 -0.2852 -0.0476 -0.4758
48198SOL     OW49278   4.644   8.407  11.607  0.6063  0.3817 -0.0982
48198SOL    HW149279   4.641   8.464  11.684  0.4911 -1.3326  1.2519
48198SOL    HW249280   4.670   8.322  11.643 -0.3541 -0.6926 -1.8381
48199SOL     OW49281   1.017   6.277   8.771  0.7836  0.0430  0.0207
48199SOL    HW149282   0.991   6.347   8.710 -1.2428 -1.6807 -1.2363
48199SOL    HW249283   1.099   6.244   8.736 -0.1187 -0.6132 -1.5709
48200SOL     OW49284   5.763   0.157   9.978  0.2255 -0.0674  0.2525
48200SOL    HW149285   5.828   0.087   9.986  2.9806  2.0911 -1.2952
48200SOL    HW249286   5.734   0.152   9.887 -0.6497 -0.0158  0.5165
48201SOL     OW49287   5.854   1.654   0.949 -0.1377 -0.1740  0.4496
48201SOL    HW149288   5.949   1.660   0.948  0.0075 -1.8249  0.5789
48201SOL    HW249289   5.828   1.663   0.857  0.3709 -1.9712  0.0855
48202SOL     OW49290   0.645   3.050   5.258 -0.2560  0.2153  0.3290
48202SOL    HW149291   0.732   3.013   5.273 -0.5755 -0.1999  1.2216
48202SOL    HW249292   0.643   3.071   5.165 -0.2399 -2.5287 -0.3580
48203SOL     OW49293   4.830   0.856  11.040  0.3298 -0.1319  0.2744
48203SOL    HW149294   4.848   0.813  10.956 -0.0908 -1.7496  0.9816
48203SOL    HW249295   4.743   0.895  11.029 -0.9349 -2.6118  0.7601
48204SOL     OW49296   7.650   2.748   1.206  0.2895  0.0473 -0.2364
48204SOL    HW149297   7.588   2.779   1.272 -0.7669 -4.2898  1.1029
48204SOL    HW249298   7.617   2.785   1.124 -1.7259  1.0566  0.9336
48205SOL     OW49299   9.459   9.026   3.364  0.5088  0.1548 -0.1463
48205SOL    HW149300   9.422   8.940   3.386  2.3452 -1.0337 -1.4521
48205SOL    HW249301   9.427   9.084   3.433 -0.8758 -1.5382  0.7116
48206SOL     OW49302   8.246   7.609   9.195  0.8593 -0.0161 -0.4069
48206SOL    HW149303   8.275   7.700   9.209  1.3282 -0.1286 -0.6205
48206SOL    HW249304   8.294   7.559   9.262  0.4645 -0.0800 -0.1730
48207SOL     OW49305   9.436   2.208   6.117 -0.0598 -0.3344  0.6498
48207SOL    HW149306   9.374   2.147   6.157 -2.6934  1.6003 -0.1817
48207SOL    HW249307   9.444   2.180   6.026 -0.0439 -0.3349  0.6515
48208SOL     OW49308  11.425   9.853  10.793 -0.1094  0.3100 -0.6839
48208SOL    HW149309  11.465   9.857  10.706 -1.9414  1.6954 -1.5319
48208SOL    HW249310  11.423   9.944  10.822 -0.8780  0.0418  0.1397
48209SOL     OW49311   7.035  10.506   3.018 -0.2580  0.8758  0.1226
48209SOL    HW149312   6.962  10.559   2.986  0.3958  1.0803 -1.1102
48209SOL    HW249313   7.102  10.514   2.950  1.0734  1.0039  1.4045
48210SOL     OW49314   2.168   3.662   1.677  0.0704  0.2754 -0.3223
48210SOL    HW149315   2.236   3.728   1.693 -0.5810  0.7217  0.7550
48210SOL    HW249316   2.215   3.579   1.675  0.7286  0.6381 -0.2869
48211SOL     OW49317   0.574   1.304  10.973  0.0559  0.0686 -0.1057
48211SOL    HW149318   0.488   1.288  10.933 -0.5447 -0.8082  1.4544
48211SOL    HW249319   0.605   1.384  10.931 -0.6989 -0.5761 -2.0178
48212SOL     OW49320   6.514   7.163   5.759  1.0739  0.2646  0.0439
48212SOL    HW149321   6.467   7.146   5.840  0.7344  0.9357  0.0024
48212SOL    HW249322   6.484   7.095   5.699  1.5291 -0.3944  0.5533
48213SOL     OW49323   3.723   6.195   0.901 -0.0246 -0.2487 -0.6364
48213SOL    HW149324   3.633   6.222   0.882 -0.1912 -0.9738 -0.9166
48213SOL    HW249325   3.765   6.190   0.815  1.0673  2.6092 -0.3887
48214SOL     OW49326   3.592   6.584   7.810  0.2543  0.1072 -0.1631
48214SOL    HW149327   3.552   6.516   7.864 -0.8922 -0.3137 -1.4669
48214SOL    HW249328   3.626   6.648   7.872  0.3129 -1.0831  1.0610
48215SOL     OW49329   6.121   4.733  11.788  0.2921 -0.2090  0.2789
48215SOL    HW149330   6.106   4.812  11.839 -1.4059  1.4681 -2.5462
48215SOL    HW249331   6.215   4.734  11.768  0.2408  1.2592  0.0554
48216SOL     OW49332   8.866   1.332  11.484  0.0289 -0.3302  0.2723
48216SOL    HW149333   8.809   1.259  11.509  0.7340 -0.1879  2.4360
48216SOL    HW249334   8.948   1.290  11.458 -0.5503 -0.4468 -1.5085
48217SOL     OW49335   0.835   0.701   6.426 -0.0108  0.4239  0.1749
48217SOL    HW149336   0.875   0.782   6.393 -0.7910  0.8659  0.2764
48217SOL    HW249337   0.756   0.731   6.471 -0.1061 -0.3698  0.5478
48218SOL     OW49338   2.171   4.761  11.417  0.1691 -0.2108  0.2166
48218SOL    HW149339   2.217   4.840  11.387 -0.7984  0.1027 -0.4821
48218SOL    HW249340   2.107   4.794  11.480  0.0218 -0.4835  0.2082
48219SOL     OW49341   5.038   6.305   1.596 -0.3802 -0.1844  0.3198
48219SOL    HW149342   5.080   6.387   1.568  0.8041 -0.4000  1.3932
48219SOL    HW249343   5.078   6.285   1.680 -3.3570  0.0834  1.9305
48220SOL     OW49344  11.145  10.923   5.521  0.2368  0.2305  0.1889
48220SOL    HW149345  11.189  10.980   5.458  0.8360 -0.0762  0.3234
48220SOL    HW249346  11.053  10.927   5.496  0.4119  0.4214 -0.4587
48221SOL     OW49347   5.025   2.285   1.770  0.6569 -0.3302  0.2739
48221SOL    HW149348   5.074   2.248   1.843  1.1371 -0.5442 -0.1515
48221SOL    HW249349   4.964   2.216   1.744  0.3023 -0.1578  0.6376
48222SOL     OW49350   4.405   5.508   1.960 -0.0581  0.2911  0.1733
48222SOL    HW149351   4.466   5.443   1.995  0.9485  2.0746  1.8980
48222SOL    HW249352   4.453   5.549   1.889 -0.4865 -0.4095 -0.5459
48223SOL     OW49353  11.319   7.219   4.785  0.0409 -0.1152 -0.6848
48223SOL    HW149354  11.269   7.299   4.769 -1.6464 -0.9742  0.0353
48223SOL    HW249355  11.289   7.158   4.718 -1.2395 -1.1964  0.7948
48224SOL     OW49356  10.458  11.448   1.907 -0.0851  0.3730 -0.4702
48224SOL    HW149357  10.368  11.422   1.891 -0.1174 -0.3756  0.8146
48224SOL    HW249358  10.497  11.373   1.952  0.9120  1.0560 -0.1671
48225SOL     OW49359   8.507  11.972   8.415  0.0074  0.4466 -0.2167
48225SOL    HW149360   8.560  12.023   8.477 -0.7917  0.1307  0.7341
48225SOL    HW249361   8.533  12.006   8.329  0.4876  1.5047  0.3283
48226SOL     OW49362   8.766  11.624   9.270 -0.3016 -1.0107 -0.1857
48226SOL    HW149363   8.676  11.635   9.240 -0.5857  1.7006  1.3759
48226SOL    HW249364   8.761  11.558   9.339 -1.4910  0.5252  1.2711
48227SOL     OW49365   8.718   1.487   8.827 -0.0253  0.0452  0.3524
48227SOL    HW149366   8.653   1.554   8.847  0.9003  0.6085  1.6063
48227SOL    HW249367   8.732   1.442   8.910  0.2549 -0.9223 -0.2021
48228SOL     OW49368  10.439   6.073   3.038 -0.2534 -0.0794 -0.2631
48228SOL    HW149369  10.501   6.145   3.054 -0.7872  0.6932 -1.5037
48228SOL    HW249370  10.357   6.104   3.076  0.3591 -1.7641  2.8446
48229SOL     OW49371   6.903   1.348   8.490 -0.1691  0.2727 -0.2330
48229SOL    HW149372   6.970   1.308   8.545  0.2494  0.1910 -0.7937
48229SOL    HW249373   6.823   1.300   8.510 -0.2920  0.9888  1.1531
48230SOL     OW49374   8.282   5.197  10.791 -0.1716  1.0351 -0.4432
48230SOL    HW149375   8.378   5.201  10.793 -0.1276  0.1396  1.7049
48230SOL    HW249376   8.258   5.244  10.711  2.1396 -0.6945 -2.3061
48231SOL     OW49377   4.327   3.665   8.531  0.3230 -0.4594 -0.2977
48231SOL    HW149378   4.399   3.728   8.524 -0.5089  0.6290  0.5192
48231SOL    HW249379   4.276   3.678   8.451 -0.7425  1.1061  0.5851
48232SOL     OW49380   1.680   9.781   2.145  0.1863  0.1224 -0.2981
48232SOL    HW149381   1.631   9.797   2.226 -0.4303 -0.2472 -0.5918
48232SOL    HW249382   1.752   9.844   2.148  0.1783  0.1003  0.5461
48233SOL     OW49383   3.273   3.927   0.156  0.4772  0.0286  0.5361
48233SOL    HW149384   3.293   3.836   0.179  2.4721  0.3439  0.1940
48233SOL    HW249385   3.289   3.932   0.062 -1.2412  0.3694  0.2231
48234SOL     OW49386   3.713  10.242   7.381  0.2999  0.1663 -0.0275
48234SOL    HW149387   3.670  10.203   7.456  0.3537  0.6676  0.2663
48234SOL    HW249388   3.703  10.177   7.311  1.8744 -1.1389  0.9020
48235SOL     OW49389  11.147   8.822   9.363  0.0517  0.3881  0.4136
48235SOL    HW149390  11.081   8.782   9.306  0.4687  0.7282 -0.3222
48235SOL    HW249391  11.112   8.909   9.382 -0.7901 -0.2355  1.9015
48236SOL     OW49392   5.934  11.450   0.374 -0.3081 -0.2263  0.4241
48236SOL    HW149393   5.889  11.395   0.309 -0.0099 -0.9058  0.7754
48236SOL    HW249394   6.026  11.441   0.352 -0.3501  1.9081 -0.8723
48237SOL     OW49395   4.279   2.293   3.960  0.1109  0.2906  0.5241
48237SOL    HW149396   4.305   2.368   4.013  2.3837  0.8478 -1.2181
48237SOL    HW249397   4.324   2.218   3.999  1.5802  0.6595 -0.3976
48238SOL     OW49398   4.018  11.131   8.102  0.0287  0.6033  0.4366
48238SOL    HW149399   4.036  11.139   8.196 -1.3787 -1.1141  0.9074
48238SOL    HW249400   4.075  11.059   8.073 -0.2431  0.4930  0.1778
48239SOL     OW49401   4.923   6.735   4.958 -0.2536  0.0204  0.0351
48239SOL    HW149402   4.971   6.737   4.875  3.4376 -0.3677  1.9330
48239SOL    HW249403   4.850   6.676   4.942  0.6787 -0.5462 -2.7698
48240SOL     OW49404   7.522   1.513   8.867 -0.2627  0.3426 -0.3126
48240SOL    HW149405   7.446   1.540   8.918 -0.0317  3.1382 -1.2653
48240SOL    HW249406   7.508   1.552   8.781  1.2812 -0.8328 -1.1436
48241SOL     OW49407   6.647   5.008  11.370 -0.4158  0.5678 -0.3100
48241SOL    HW149408   6.643   5.091  11.323 -0.1724 -0.3266 -1.9597
48241SOL    HW249409   6.577   5.015  11.436  0.6915  2.7305  0.7645
48242SOL     OW49410   3.026   9.683   2.557  0.8272  0.0383 -0.0169
48242SOL    HW149411   2.976   9.739   2.616 -0.2099  0.1574 -0.9693
48242SOL    HW249412   3.052   9.740   2.485 -0.6818 -0.7431 -1.2622
48243SOL     OW49413   1.729   2.227   9.904  0.4260 -0.1453 -0.0816
48243SOL    HW149414   1.660   2.204   9.966 -0.4405  0.6074 -0.7526
48243SOL    HW249415   1.767   2.143   9.878  0.8900 -0.4684  1.5375
48244SOL     OW49416   8.848  11.012   9.498 -0.2610 -0.0610  0.3510
48244SOL    HW149417   8.890  11.024   9.583 -2.0622 -1.0751  1.4484
48244SOL    HW249418   8.786  10.940   9.512 -0.6688 -0.1989 -1.8042
48245SOL     OW49419   3.371   1.525   8.695 -0.1018 -0.1599  0.0557
48245SOL    HW149420   3.350   1.535   8.602 -0.2745  1.3145  0.2385
48245SOL    HW249421   3.466   1.523   8.698 -0.0987 -0.9119 -0.2008
48246SOL     OW49422   5.812   2.934  11.078 -0.3530 -0.7734  0.3428
48246SOL    HW149423   5.905   2.946  11.056 -0.3036  1.4403  1.4244
48246SOL    HW249424   5.765   2.969  11.003 -0.3425 -2.0665 -0.2860
48247SOL     OW49425  10.994  10.241   6.632  0.2180 -0.1448 -0.3911
48247SOL    HW149426  10.900  10.226   6.622  0.4575 -1.2313 -1.1673
48247SOL    HW249427  11.018  10.295   6.557  0.1974  0.2485 -0.1186
48248SOL     OW49428   4.361   6.559  10.505 -0.0377  0.4679  0.5960
48248SOL    HW149429   4.350   6.465  10.490 -0.3865  0.6710 -0.4505
48248SOL    HW249430   4.446   6.566  10.549  0.2931 -0.2803  0.0923
48249SOL     OW49431   2.974   9.002   3.763 -0.1354  0.3666  0.5480
48249SOL    HW149432   2.880   9.006   3.780 -0.6985 -1.4830 -1.6435
48249SOL    HW249433   2.994   9.084   3.717 -1.1594 -0.1394 -0.8601
48250SOL     OW49434   6.815  11.495   8.648 -0.3267  0.3604 -0.7106
48250SOL    HW149435   6.837  11.516   8.738 -0.8227  0.3725 -0.5879
48250SOL    HW249436   6.894  11.455   8.612 -1.2030 -3.2484  0.8576
48251SOL     OW49437  11.001   7.198   7.985  0.6054 -0.3262  0.0692
48251SOL    HW149438  10.957   7.278   7.958  1.0363 -0.2760 -0.5160
48251SOL    HW249439  11.057   7.225   8.058 -0.4659 -0.4339  0.9494
48252SOL     OW49440  10.285   7.296   4.356 -0.0016 -0.7053  0.4397
48252SOL    HW149441  10.377   7.288   4.383  1.1075  0.6339 -2.5256
48252SOL    HW249442  10.276   7.234   4.285 -1.3409 -0.6048  0.5098
48253SOL     OW49443   2.686   0.680   3.012 -0.2640 -0.5137  1.1159
48253SOL    HW149444   2.711   0.727   2.932  0.2217  0.2052  1.6702
48253SOL    HW249445   2.757   0.699   3.074  0.8401 -3.3807  0.8658
48254SOL     OW49446   8.155   2.223   2.636  0.1211  0.2759  0.0205
48254SOL    HW149447   8.185   2.279   2.708 -1.3767  1.2740 -0.0918
48254SOL    HW249448   8.089   2.166   2.676  0.2163 -0.0653 -0.2972
48255SOL     OW49449   5.412   9.779   0.524 -0.6200  0.2613 -0.0123
48255SOL    HW149450   5.404   9.873   0.509  0.0606  0.3351  0.0357
48255SOL    HW249451   5.337   9.740   0.480 -1.3017  0.8925  0.5823
48256SOL     OW49452  11.714   3.539  10.538 -0.0698  0.0834  0.6937
48256SOL    HW149453  11.666   3.467  10.580 -1.6314 -1.1873 -2.9129
48256SOL    HW249454  11.660   3.617  10.555 -0.9488 -0.4906  0.6003
48257SOL     OW49455   6.188   8.542   0.208 -0.1923  0.1807  0.3165
48257SOL    HW149456   6.251   8.500   0.266 -2.3400 -0.8985  2.0320
48257SOL    HW249457   6.114   8.482   0.206 -1.8067  2.0830 -0.3246
48258SOL     OW49458   9.220   5.690   1.485 -0.0207  0.0736  0.6356
48258SOL    HW149459   9.224   5.785   1.476 -1.0197  0.1060  0.4160
48258SOL    HW249460   9.297   5.659   1.437 -1.0315  0.6624 -1.4841
48259SOL     OW49461  11.516   0.843   3.434 -0.0286  0.1959  0.0466
48259SOL    HW149462  11.442   0.784   3.428  0.6118 -0.8313  1.6851
48259SOL    HW249463  11.587   0.796   3.390 -0.3333  1.2489 -1.6776
48260SOL     OW49464  11.874   2.464   9.824 -0.2748 -0.3744  0.0831
48260SOL    HW149465  11.935   2.452   9.751 -1.0131 -0.9192 -0.4699
48260SOL    HW249466  11.825   2.381   9.828 -0.0473 -0.4665  1.4018
48261SOL     OW49467   5.754   3.249  10.184  0.2342 -0.1716 -0.7359
48261SOL    HW149468   5.846   3.252  10.212  0.5100 -0.8227 -1.5300
48261SOL    HW249469   5.704   3.244  10.265  0.9009  0.0698 -0.2976
48262SOL     OW49470   8.829   4.776  11.143  0.1894  0.4633 -0.3171
48262SOL    HW149471   8.867   4.698  11.102  1.9522  1.3084 -0.3784
48262SOL    HW249472   8.852   4.848  11.083  0.7135  1.3740  0.9342
48263SOL     OW49473   3.376   1.297   1.633 -0.0757 -0.0558 -0.5306
48263SOL    HW149474   3.331   1.214   1.649 -0.7299 -0.2420 -2.8989
48263SOL    HW249475   3.461   1.288   1.676 -0.4816 -1.6010 -0.0039
48264SOL     OW49476   8.314   3.073   9.691 -0.5574  0.1792  0.2448
48264SOL    HW149477   8.361   3.035   9.617 -0.9881 -2.3232  1.1534
48264SOL    HW249478   8.221   3.057   9.672 -0.9634  2.7843 -0.3262
48265SOL     OW49479   1.330  10.119   9.518  0.1723 -0.2701  0.0742
48265SOL    HW149480   1.256  10.077   9.561  1.2138 -1.1802  1.0510
48265SOL    HW249481   1.406  10.070   9.549  1.3090  1.4878  0.2005
48266SOL     OW49482   7.124  11.056   8.187  0.2822 -0.1217  0.5626
48266SOL    HW149483   7.103  11.076   8.278  0.6833  1.9486  0.2603
48266SOL    HW249484   7.166  11.136   8.154  0.2792 -0.8693 -1.4037
48267SOL     OW49485   9.658   1.330   7.316 -0.2340  0.0984 -0.1255
48267SOL    HW149486   9.603   1.308   7.391  0.9459 -3.2040 -0.0502
48267SOL    HW249487   9.742   1.357   7.354  0.2155 -1.1409 -0.1647
48268SOL     OW49488   9.100   8.244   6.890  0.0590 -0.1752 -0.8252
48268SOL    HW149489   9.157   8.239   6.967  1.0591  0.6225 -1.4783
48268SOL    HW249490   9.099   8.337   6.867 -0.8176 -0.2987 -1.3490
48269SOL     OW49491   1.056   4.439   8.568  0.2224  0.7129  0.6047
48269SOL    HW149492   1.007   4.441   8.486 -2.4732  2.7860  2.1083
48269SOL    HW249493   1.100   4.354   8.568 -1.6047 -0.3430 -1.8849
48270SOL     OW49494   3.502   0.501   3.710  0.4222 -0.0512 -0.4656
48270SOL    HW149495   3.410   0.494   3.682 -0.9229  1.5020  3.0345
48270SOL    HW249496   3.521   0.594   3.705  1.2137 -0.1483  0.4578
48271SOL     OW49497   1.633  10.540  11.824 -0.4087  0.0004  0.1338
48271SOL    HW149498   1.716  10.493  11.812 -1.1967 -1.2114 -0.7827
48271SOL    HW249499   1.633  10.607  11.756 -0.4026 -0.3371 -0.2026
48272SOL     OW49500   3.205   6.318   7.491  0.0132 -0.3568 -0.2740
48272SOL    HW149501   3.192   6.261   7.567 -1.8929 -0.6112 -0.7435
48272SOL    HW249502   3.180   6.405   7.522  1.7455  0.0516  0.0912
48273SOL     OW49503   9.780   7.852   5.545 -0.1652  0.5053  0.3124
48273SOL    HW149504   9.762   7.895   5.462  0.4882 -0.1332 -0.1750
48273SOL    HW249505   9.697   7.855   5.593 -0.6004  0.6830 -0.4493
48274SOL     OW49506   9.310   6.176   4.516 -0.0724  0.2062 -0.4216
48274SOL    HW149507   9.251   6.102   4.497  0.0503 -0.1983  0.7351
48274SOL    HW249508   9.398   6.141   4.501  0.1011 -0.4765  1.9150
48275SOL     OW49509   7.348   9.422   4.817 -0.3543  0.0536  0.1094
48275SOL    HW149510   7.393   9.498   4.780  1.1187 -1.3519 -1.0951
48275SOL    HW249511   7.287   9.394   4.749  1.7302 -2.0018 -1.0366
48276SOL     OW49512   0.922   4.484   8.321  0.3027 -0.2069  0.2026
48276SOL    HW149513   0.921   4.554   8.255 -0.1784  0.2451  0.6711
48276SOL    HW249514   0.963   4.410   8.277  3.7015  1.2688  0.6274
48277SOL     OW49515  11.042  11.990   9.522 -0.1111  1.0747 -0.5766
48277SOL    HW149516  11.020  12.083   9.510  1.3698  1.4006 -0.9577
48277SOL    HW249517  11.000  11.966   9.605 -2.8163  1.3033 -1.7558
48278SOL     OW49518   9.063   2.404  11.695 -0.1522 -0.0974  0.5221
48278SOL    HW149519   8.979   2.442  11.722  0.0099 -0.0646  0.9960
48278SOL    HW249520   9.093   2.460  11.624 -0.4428  0.0030  0.4775
48279SOL     OW49521   1.163   6.960   8.296  0.4503  0.0313 -0.5604
48279SOL    HW149522   1.257   6.978   8.292  0.3452  1.0623  0.9428
48279SOL    HW249523   1.157   6.870   8.326  0.9436 -0.2267 -1.2080
48280SOL     OW49524   8.057   8.162  10.898 -0.3085 -0.3274 -0.4696
48280SOL    HW149525   7.988   8.219  10.931 -0.8965 -1.0950 -0.3629
48280SOL    HW249526   8.121   8.158  10.970 -0.2936  0.1293 -0.4513
48281SOL     OW49527   8.731   6.489  10.894  1.2252  0.3970 -0.0515
48281SOL    HW149528   8.656   6.544  10.915 -0.1794 -0.5288 -2.2375
48281SOL    HW249529   8.735   6.426  10.965  0.9379  1.4141  0.9028
48282SOL     OW49530   5.339   9.278   0.080  0.4324  0.0422  0.4564
48282SOL    HW149531   5.378   9.215   0.141  1.2134  0.1396  0.0706
48282SOL    HW249532   5.397   9.277   0.004  0.3715  1.1061  0.3778
48283SOL     OW49533   9.996   5.645  10.257  0.3580  0.2967  0.0955
48283SOL    HW149534   9.958   5.716  10.205  1.8697  1.1704  0.1333
48283SOL    HW249535   9.972   5.565  10.210 -1.2116  0.8179 -0.0536
48284SOL     OW49536   7.421   9.636   2.544 -0.3023 -0.0283  0.5502
48284SOL    HW149537   7.390   9.722   2.572  0.5579  0.6431 -0.4565
48284SOL    HW249538   7.517   9.643   2.548 -0.2140 -0.7777  0.0191
48285SOL     OW49539   3.917   5.340   0.177 -0.4643 -0.2356 -0.2071
48285SOL    HW149540   3.956   5.382   0.100 -1.5426  0.5348 -0.3510
48285SOL    HW249541   3.959   5.254   0.181  0.2102  0.0286 -1.1720
48286SOL     OW49542   8.811  10.376   1.959 -0.1537  0.2947 -0.3252
48286SOL    HW149543   8.805  10.302   1.900 -0.6123 -0.1713  0.2926
48286SOL    HW249544   8.905  10.397   1.963  0.0358 -0.5605 -0.1251
48287SOL     OW49545   6.618  10.186   5.246  0.2279 -0.2420 -0.6662
48287SOL    HW149546   6.684  10.119   5.229  0.3403  0.0587 -1.4477
48287SOL    HW249547   6.537  10.149   5.210  0.5245  0.5159 -2.1846
48288SOL     OW49548   7.671   1.948  11.817 -0.1494 -0.1957 -0.1724
48288SOL    HW149549   7.645   1.940  11.725  0.1991  0.5779 -0.3408
48288SOL    HW249550   7.589   1.943  11.866 -0.5335  1.2145 -0.6351
48289SOL     OW49551  11.077   8.810   3.802  0.2798 -0.2249 -0.1022
48289SOL    HW149552  10.987   8.813   3.769  0.3362 -0.1599 -0.2533
48289SOL    HW249553  11.101   8.902   3.814  0.6675 -0.1886 -1.0169
48290SOL     OW49554   9.784   5.657   7.985 -0.2403 -0.2201 -0.3112
48290SOL    HW149555   9.689   5.666   7.996 -0.2045 -0.2586  0.0290
48290SOL    HW249556   9.817   5.639   8.073  0.0487 -0.5265 -0.4828
48291SOL     OW49557   8.370   0.368   3.218 -0.1091  0.0256  0.1320
48291SOL    HW149558   8.285   0.399   3.250 -0.2886 -0.7598  0.4535
48291SOL    HW249559   8.358   0.359   3.124 -1.1224 -2.1895  0.4030
48292SOL     OW49560   3.963   9.870  11.745 -0.0913  0.3380  0.4426
48292SOL    HW149561   3.936   9.962  11.742  1.1401  0.7164  0.5387
48292SOL    HW249562   3.885   9.822  11.715 -0.1554  1.5310 -1.5473
48293SOL     OW49563  10.953   2.775   2.701 -0.5331  0.4261  0.7560
48293SOL    HW149564  10.959   2.825   2.620  1.2477 -2.4496 -1.0789
48293SOL    HW249565  11.041   2.779   2.738 -0.7880  0.0117  1.4249
48294SOL     OW49566   7.027   1.184   0.321  0.0551 -1.0949  0.1740
48294SOL    HW149567   7.088   1.247   0.359 -1.4419  0.1890  0.5467
48294SOL    HW249568   6.972   1.236   0.263 -1.4392 -1.9969  0.7382
48295SOL     OW49569   1.846   0.283   5.393  0.4429 -0.0737  0.2474
48295SOL    HW149570   1.871   0.211   5.335  0.6984  0.7337 -0.6712
48295SOL    HW249571   1.923   0.297   5.448  0.4605 -0.3752  0.3010
48296SOL     OW49572   3.220   4.895  11.564  0.6092 -0.1779 -0.4613
48296SOL    HW149573   3.222   4.951  11.487  2.1081  0.0010 -0.3144
48296SOL    HW249574   3.211   4.806  11.530 -2.0559  0.0843 -0.6889
48297SOL     OW49575   3.484   8.268  10.242 -0.0064  0.0186  0.5214
48297SOL    HW149576   3.459   8.353  10.205  0.2009 -0.4675 -0.7863
48297SOL    HW249577   3.406   8.214  10.233  0.1587 -0.2116  0.4515
48298SOL     OW49578   2.523   9.774   8.674  0.0591  0.1599 -0.1474
48298SOL    HW149579   2.443   9.722   8.674 -1.9263  2.9624  0.1078
48298SOL    HW249580   2.552   9.775   8.582 -2.7666  2.5181 -1.1802
48299SOL     OW49581  11.648   7.220   3.404 -0.4602 -0.2654  0.0688
48299SOL    HW149582  11.585   7.278   3.361 -0.5897 -0.4443  0.0208
48299SOL    HW249583  11.629   7.133   3.369  0.8626 -0.0979 -1.1921
48300SOL     OW49584   3.437   3.332   9.457 -0.3214  0.0579  0.2547
48300SOL    HW149585   3.405   3.406   9.405  0.1072 -0.2601 -0.4633
48300SOL    HW249586   3.372   3.264   9.444 -0.0972 -0.0984 -0.0421
48301SOL     OW49587   2.779  10.818   0.469  0.0843 -0.2056 -0.0162
48301SOL    HW149588   2.728  10.751   0.423  0.3328 -0.5586  0.2138
48301SOL    HW249589   2.862  10.774   0.491  0.4182  0.3086 -0.2398
48302SOL     OW49590   2.491   6.778   8.999 -0.5020  0.6859 -0.4196
48302SOL    HW149591   2.554   6.848   8.982 -0.7938  1.4414  1.3193
48302SOL    HW249592   2.409   6.824   9.019 -1.0491 -0.2006 -0.5739
48303SOL     OW49593   3.993   5.155   1.098  0.0261 -0.2192 -0.4800
48303SOL    HW149594   4.011   5.131   1.007  1.2357 -0.5334 -0.1687
48303SOL    HW249595   4.059   5.109   1.149  1.6335  2.6892  0.2580
48304SOL     OW49596   8.693   3.782   2.261 -0.4767 -0.5184  0.4633
48304SOL    HW149597   8.763   3.845   2.247 -0.1579 -1.0148 -0.2142
48304SOL    HW249598   8.613   3.828   2.235 -0.2223 -0.4505 -0.2168
48305SOL     OW49599   2.970   3.631   0.612  0.2996  0.8859 -0.0664
48305SOL    HW149600   2.919   3.647   0.533  0.1340 -2.8030 -0.8976
48305SOL    HW249601   3.062   3.639   0.584  0.2365  1.0294 -0.2356
48306SOL     OW49602   6.981   8.957   3.888  0.2363  0.0013 -0.4847
48306SOL    HW149603   6.978   9.026   3.955  0.0509 -0.1003 -0.3900
48306SOL    HW249604   6.893   8.954   3.852 -0.2322 -1.3805  0.7059
48307SOL     OW49605   6.632  11.010  11.050  0.0429  0.1845  0.4499
48307SOL    HW149606   6.544  11.046  11.041  0.2485  0.9463  1.3418
48307SOL    HW249607   6.688  11.071  11.002  0.3215  0.7938  1.5145
48308SOL     OW49608   5.634   2.371   9.625 -0.7778  0.4870 -0.4624
48308SOL    HW149609   5.583   2.362   9.545  0.8458  0.4388 -1.5344
48308SOL    HW249610   5.724   2.382   9.595 -0.1422  0.5910  1.3615
48309SOL     OW49611   8.810   6.790   5.725  0.1748  0.1887  0.1947
48309SOL    HW149612   8.805   6.737   5.804  1.5498  3.8588  3.0232
48309SOL    HW249613   8.741   6.856   5.735  1.5832  1.8833 -0.6806
48310SOL     OW49614   2.839   1.920   0.325 -0.1030 -0.0400 -0.0323
48310SOL    HW149615   2.770   1.899   0.263 -0.8309 -0.6003  0.9411
48310SOL    HW249616   2.887   1.992   0.285 -1.4625  0.5857 -0.5640
48311SOL     OW49617   4.561   8.805   4.198 -0.2350 -0.6695 -0.4956
48311SOL    HW149618   4.537   8.893   4.227 -0.5059 -0.8481 -0.1571
48311SOL    HW249619   4.654   8.797   4.218  0.2750  0.2327 -2.3413
48312SOL     OW49620   3.741   4.153   6.360 -0.4011  0.3757 -0.2296
48312SOL    HW149621   3.820   4.106   6.334 -0.1313 -0.0218  1.2346
48312SOL    HW249622   3.671   4.089   6.351 -0.7165  0.9306 -2.2193
48313SOL     OW49623  11.056   1.962   9.518 -0.8055 -0.4046 -0.5912
48313SOL    HW149624  10.961   1.953   9.509 -0.9638  0.9896 -0.5774
48313SOL    HW249625  11.067   2.015   9.596  0.1309 -2.8528  1.0496
48314SOL     OW49626   4.857   9.394   9.787 -0.0798  0.2575 -0.2468
48314SOL    HW149627   4.791   9.327   9.767 -0.6115  0.4732  0.7077
48314SOL    HW249628   4.807   9.476   9.790  0.6685  0.8282 -2.0520
48315SOL     OW49629   7.186   6.578  10.251 -0.0238 -0.2330 -0.4784
48315SOL    HW149630   7.264   6.564  10.304  0.2329  1.1200 -0.4611
48315SOL    HW249631   7.127   6.508  10.276  0.6462 -0.4464  0.5516
48316SOL     OW49632  10.886   4.032  10.145  0.0607 -0.3156 -0.1724
48316SOL    HW149633  10.885   3.936  10.148  2.5379 -0.3818  0.3524
48316SOL    HW249634  10.819   4.058  10.208  1.3559 -1.7468  1.9199
48317SOL     OW49635   4.232   2.399   6.744 -0.2884 -0.4616  0.2550
48317SOL    HW149636   4.190   2.337   6.685  0.0162 -1.5013  1.1019
48317SOL    HW249637   4.292   2.346   6.797 -0.0712  0.5387  1.0560
48318SOL     OW49638   8.186   6.075   3.587 -0.0227  0.3417 -0.4202
48318SOL    HW149639   8.113   6.085   3.649 -1.6460 -0.3238 -2.1244
48318SOL    HW249640   8.163   5.998   3.536  0.7910  1.3735 -2.4383
48319SOL     OW49641   4.838  10.926   4.632 -0.3451  0.7991 -0.1417
48319SOL    HW149642   4.760  10.935   4.688 -0.7856  1.1725 -0.8093
48319SOL    HW249643   4.894  10.999   4.658  1.0786 -1.0081  2.3161
48320SOL     OW49644  11.656  10.773   3.184  0.0598  0.0021 -0.2637
48320SOL    HW149645  11.732  10.727   3.148 -0.0245  0.7417 -1.4617
48320SOL    HW249646  11.621  10.714   3.250  0.2603 -1.4499 -1.4002
48321SOL     OW49647   1.980   1.473   0.191  0.0812 -0.4194 -0.6253
48321SOL    HW149648   2.036   1.409   0.234  2.6595  1.1716 -1.4319
48321SOL    HW249649   1.964   1.436   0.103 -0.0671 -0.8054 -0.4417
48322SOL     OW49650   0.837   3.885   0.573 -0.1029  0.0062  0.1717
48322SOL    HW149651   0.765   3.930   0.528  0.8553  0.5490 -0.8794
48322SOL    HW249652   0.898   3.954   0.595  1.7484 -0.7561 -2.1144
48323SOL     OW49653  11.639   5.103   2.582  0.0555 -0.5862 -0.7289
48323SOL    HW149654  11.646   5.177   2.642 -1.0844 -1.0901  0.0550
48323SOL    HW249655  11.715   5.049   2.600 -0.2600 -0.7145  0.2529
48324SOL     OW49656   9.396   2.916  11.048  0.2680 -0.3097 -0.7883
48324SOL    HW149657   9.348   2.922  10.965  0.4407 -0.5804 -0.9120
48324SOL    HW249658   9.468   2.855  11.029  0.3699 -0.2902 -0.4677
48325SOL     OW49659   9.059   9.052   2.943 -0.1394 -0.4268  0.7817
48325SOL    HW149660   9.126   9.082   2.882 -1.0335 -1.0432 -0.5506
48325SOL    HW249661   9.083   8.962   2.964  0.2618 -0.1603  1.5001
48326SOL     OW49662   5.872   4.038   6.426 -0.0244 -0.3279 -0.5677
48326SOL    HW149663   5.786   4.031   6.383  0.3863 -0.1712 -1.4318
48326SOL    HW249664   5.931   3.988   6.369  0.7229  0.6962 -0.7054
48327SOL     OW49665   3.713   4.176   4.849  0.0316 -0.2674 -0.2109
48327SOL    HW149666   3.772   4.104   4.871  0.3163 -0.4750 -1.5800
48327SOL    HW249667   3.771   4.251   4.834 -0.0470 -0.4216 -1.3620
48328SOL     OW49668   2.448   4.386   6.199 -0.5030  0.0490 -0.0156
48328SOL    HW149669   2.368   4.394   6.251 -0.1600 -1.6068  0.8589
48328SOL    HW249670   2.418   4.384   6.108 -1.3175  0.8177  0.2292
48329SOL     OW49671   1.165   4.587   2.187  0.3099 -0.8013  0.2817
48329SOL    HW149672   1.110   4.639   2.245  0.4923 -0.2275 -0.0525
48329SOL    HW249673   1.230   4.547   2.244  0.3535 -0.4164  0.5053
48330SOL     OW49674   2.834   4.816   1.410  0.6302 -0.5822 -0.1580
48330SOL    HW149675   2.889   4.878   1.459 -0.2227 -0.0058  0.0816
48330SOL    HW249676   2.897   4.763   1.361  1.4221 -0.1435  0.3604
48331SOL     OW49677   4.410   2.716   7.179 -0.6830 -0.3651 -0.1165
48331SOL    HW149678   4.399   2.655   7.252 -1.6903  1.3363  1.2579
48331SOL    HW249679   4.505   2.722   7.166 -0.3323  0.5400  2.2632
48332SOL     OW49680   1.997   0.551   3.086  0.4054 -0.0002 -0.2963
48332SOL    HW149681   1.995   0.614   3.014  1.0582  0.9340  0.4722
48332SOL    HW249682   2.018   0.604   3.163  0.6575 -1.1191  0.4210
48333SOL     OW49683   4.033   8.460   2.247 -0.5257 -0.3535 -0.1428
48333SOL    HW149684   4.101   8.521   2.216 -2.3228  1.4635 -0.7581
48333SOL    HW249685   4.004   8.497   2.330 -1.9440 -0.0593 -0.7334
48334SOL     OW49686   3.526   3.494   3.335  0.2067  0.2111 -0.3832
48334SOL    HW149687   3.589   3.555   3.298  0.2015  0.2526 -0.3249
48334SOL    HW249688   3.560   3.475   3.422  0.1926  0.1537 -0.3904
48335SOL     OW49689   1.978   4.975   5.593 -0.2777  0.1645 -0.5194
48335SOL    HW149690   1.957   4.885   5.618  0.2182 -0.3966 -2.0303
48335SOL    HW249691   1.987   5.021   5.677 -0.0300 -1.2961  0.2964
48336SOL     OW49692  11.355   4.023   3.701 -0.0290  0.1226  0.2797
48336SOL    HW149693  11.432   4.079   3.707  0.1326 -0.0694  0.0568
48336SOL    HW249694  11.384   3.938   3.735  0.2098 -0.2916 -0.8953
48337SOL     OW49695   2.657   0.033   9.083  1.1197  0.4566 -0.2366
48337SOL    HW149696   2.621  -0.052   9.108 -0.0736  1.4746  1.8144
48337SOL    HW249697   2.740   0.012   9.040  0.6649 -1.7399 -0.1684
48338SOL     OW49698   0.147  10.972   1.645  0.3745 -0.0451  0.3246
48338SOL    HW149699   0.140  11.020   1.563  0.3209 -0.2634  0.1990
48338SOL    HW249700   0.220  10.911   1.631 -1.7663 -2.5238 -0.8433
48339SOL     OW49701  10.934   2.820   2.981  0.3580  0.1177 -0.0602
48339SOL    HW149702  11.014   2.867   2.956 -0.4003  0.6961 -1.4694
48339SOL    HW249703  10.897   2.790   2.899 -1.7574  1.2925  0.3979
48340SOL     OW49704  11.535   1.997   3.539 -0.2062 -0.3579 -0.0999
48340SOL    HW149705  11.551   2.026   3.629 -1.2254  0.9057 -0.2937
48340SOL    HW249706  11.618   2.014   3.494  0.1316 -0.4734  0.4709
48341SOL     OW49707   5.896   1.779  10.903 -0.4266  0.6405  0.2776
48341SOL    HW149708   5.918   1.855  10.849  0.0001  0.0686 -0.3676
48341SOL    HW249709   5.848   1.721  10.844  2.6469 -1.3918 -0.4719
48342SOL     OW49710   9.496   4.956   2.487  0.3194  0.0235 -0.4370
48342SOL    HW149711   9.525   5.046   2.470 -0.8803  0.3774 -0.6949
48342SOL    HW249712   9.548   4.927   2.562  0.0065  1.3029  0.2991
48343SOL     OW49713  10.057   7.792   6.631  0.3116  0.0759  0.5865
48343SOL    HW149714  10.143   7.833   6.639  2.2422 -3.2444 -0.6523
48343SOL    HW249715  10.058   7.723   6.697  0.2659 -2.3720 -1.7734
48344SOL     OW49716   4.310   5.766   7.615  0.2906  0.2496  0.1197
48344SOL    HW149717   4.337   5.750   7.706  2.0269 -1.1975 -0.5944
48344SOL    HW249718   4.217   5.745   7.614  0.3074 -0.0060  1.4826
48345SOL     OW49719   8.378  11.096   5.978  0.4352 -0.5809  0.7829
48345SOL    HW149720   8.371  11.185   6.011  0.8936 -0.3195  0.1781
48345SOL    HW249721   8.436  11.102   5.902  1.1737 -1.5339  1.2579
48346SOL     OW49722   3.484   8.772   2.742  0.0835 -0.0822  0.7388
48346SOL    HW149723   3.434   8.748   2.821  1.5683 -2.7210  1.0071
48346SOL    HW249724   3.428   8.745   2.670  0.5405 -1.9146  1.0199
48347SOL     OW49725   0.636   1.443   6.115 -0.8716 -0.5098  0.3473
48347SOL    HW149726   0.567   1.377   6.105 -0.5360 -0.8629  0.3408
48347SOL    HW249727   0.708   1.397   6.157  0.2493 -0.7813 -1.6993
48348SOL     OW49728   7.066   5.684   0.663 -0.0316  0.4086  0.3979
48348SOL    HW149729   7.020   5.652   0.741  0.4653  3.5566  2.1690
48348SOL    HW249730   7.058   5.779   0.668  1.8820  0.8254 -2.2899
48349SOL     OW49731   7.443   1.164   4.216  0.4946 -0.4534 -0.1243
48349SOL    HW149732   7.443   1.077   4.255 -1.7688 -0.0811  0.8812
48349SOL    HW249733   7.367   1.165   4.159 -0.2488  1.1992  0.8032
48350SOL     OW49734   1.076   2.313   2.604  0.0142 -0.9174 -0.4230
48350SOL    HW149735   1.065   2.382   2.539 -1.2117  0.2702  0.9696
48350SOL    HW249736   0.990   2.306   2.647  0.3626 -2.6994  0.0688
48351SOL     OW49737   0.758   0.840   7.815 -0.2046 -0.3921 -0.4058
48351SOL    HW149738   0.711   0.847   7.898  2.2877  1.1545  0.9649
48351SOL    HW249739   0.793   0.751   7.814  0.4928 -0.1394  0.6441
48352SOL     OW49740   4.991   7.235  11.370  0.3185  0.1335 -0.5176
48352SOL    HW149741   5.045   7.294  11.318  1.4926  0.5684  1.1194
48352SOL    HW249742   5.005   7.148  11.332  1.4790  0.3795 -0.6779
48353SOL     OW49743   0.902   2.399   9.169  0.1017  0.1873 -0.1239
48353SOL    HW149744   0.986   2.382   9.126  0.2600 -0.2602  0.3578
48353SOL    HW249745   0.885   2.491   9.152 -0.3935 -0.2178 -2.1259
48354SOL     OW49746   7.665   0.039   1.001  0.1766 -0.0436  0.2703
48354SOL    HW149747   7.606   0.046   1.076  0.3463  2.8593  0.2423
48354SOL    HW249748   7.725   0.113   1.010  0.1832  0.4474 -2.7221
48355SOL     OW49749   8.799   2.855   2.051  0.3141  0.2627  0.2907
48355SOL    HW149750   8.835   2.944   2.053  0.6391  0.1291  0.6197
48355SOL    HW249751   8.862   2.805   2.000 -0.9370  0.6617 -1.7301
48356SOL     OW49752   9.644   1.895   7.455  0.6848  0.4345  0.0657
48356SOL    HW149753   9.723   1.909   7.507  1.0615 -0.6473 -0.1705
48356SOL    HW249754   9.619   1.804   7.474  0.3391  0.2959 -0.9710
48357SOL     OW49755  10.647   6.795   7.608 -0.5674 -0.0214  0.5848
48357SOL    HW149756  10.665   6.885   7.581  2.1870 -0.7851 -0.4053
48357SOL    HW249757  10.672   6.792   7.701 -0.3506  0.1477  0.5319
48358SOL     OW49758   5.525   9.721   1.014 -0.0962  0.1003  0.3529
48358SOL    HW149759   5.452   9.707   1.074 -1.0435  0.1026 -0.7662
48358SOL    HW249760   5.583   9.647   1.030  0.8981  1.3057  2.9401
48359SOL     OW49761   4.766   2.923   4.534  0.8501  0.0239  0.1385
48359SOL    HW149762   4.792   2.874   4.456  0.7946 -0.9882  0.7307
48359SOL    HW249763   4.768   2.858   4.605 -2.1218  0.1176  0.4520
48360SOL     OW49764  10.405   0.733   0.249  0.4577  0.1381  0.6684
48360SOL    HW149765  10.372   0.820   0.224 -2.0549 -0.9706 -0.1828
48360SOL    HW249766  10.437   0.695   0.168 -1.4365 -0.9075  0.3725
48361SOL     OW49767   4.537   8.746   2.267 -0.3492  0.3221 -0.3954
48361SOL    HW149768   4.500   8.755   2.354  0.2175 -0.7573 -0.0169
48361SOL    HW249769   4.632   8.749   2.280 -0.2507 -0.1741 -0.9151
48362SOL     OW49770   1.044  11.640   9.678  0.6750 -0.1975 -0.2037
48362SOL    HW149771   1.137  11.650   9.698  0.3815 -0.1899  1.2575
48362SOL    HW249772   1.029  11.699   9.604  1.7792 -0.0495 -0.3331
48363SOL     OW49773   0.469   2.689   7.012 -0.1328  0.0103  0.6531
48363SOL    HW149774   0.411   2.636   6.957  0.9470 -0.2586 -0.2552
48363SOL    HW249775   0.521   2.625   7.061 -0.0508  0.2419  0.8699
48364SOL     OW49776   0.517   6.679   9.355 -0.4004 -0.1068 -0.2374
48364SOL    HW149777   0.605   6.703   9.385 -0.4966 -1.1985  0.9763
48364SOL    HW249778   0.516   6.702   9.262  1.6327 -1.3472 -0.6121
48365SOL     OW49779   9.803   4.091  10.705  0.2319  0.4478 -0.2472
48365SOL    HW149780   9.808   3.997  10.723  1.3372  0.7615  1.2801
48365SOL    HW249781   9.762   4.128  10.784 -0.0685  1.2744 -0.7796
48366SOL     OW49782  11.610   6.494   4.295  0.0662 -0.2492 -0.1816
48366SOL    HW149783  11.683   6.441   4.329  0.3370  0.5021  0.4345
48366SOL    HW249784  11.614   6.482   4.200  0.0780 -1.3878 -0.0568
48367SOL     OW49785   5.201   6.392   2.074 -0.2410  0.2346 -0.2654
48367SOL    HW149786   5.166   6.450   2.142  2.9401  2.1546 -0.0448
48367SOL    HW249787   5.275   6.348   2.116 -0.0444 -0.8291 -1.6657
48368SOL     OW49788   9.048   0.705   8.576 -0.3214  0.5528 -0.3864
48368SOL    HW149789   9.133   0.661   8.585 -0.3847  0.2474 -1.1748
48368SOL    HW249790   9.067   0.798   8.589  0.0355  0.4230  0.0201
48369SOL     OW49791   9.718  10.212   1.647  0.0333 -0.3683 -0.6692
48369SOL    HW149792   9.732  10.145   1.580 -0.2510  0.3192 -1.4344
48369SOL    HW249793   9.776  10.187   1.719 -0.3053 -1.6112 -0.8027
48370SOL     OW49794   7.729   0.884   6.343 -0.1755  0.4155 -0.5692
48370SOL    HW149795   7.679   0.965   6.356 -2.2413 -0.8968  0.1783
48370SOL    HW249796   7.797   0.908   6.280 -0.0572  2.9730  0.3833
48371SOL     OW49797  11.931  10.164   4.784  0.0917 -0.3035 -0.3128
48371SOL    HW149798  12.016  10.197   4.755 -0.0616  0.1262 -0.2738
48371SOL    HW249799  11.890  10.238   4.828  0.1578 -0.8270  0.6626
48372SOL     OW49800   9.807   7.343   0.298 -0.0817  0.0433 -0.4793
48372SOL    HW149801   9.727   7.393   0.317  0.2895  0.3868  0.2156
48372SOL    HW249802   9.863   7.405   0.251  1.2109  1.0239  2.1546
48373SOL     OW49803  11.431   5.403   2.292  0.0273 -0.4961 -0.5157
48373SOL    HW149804  11.388   5.366   2.368  1.1831  0.5430  0.6888
48373SOL    HW249805  11.525   5.395   2.310  0.3427  2.0955 -0.5879
48374SOL     OW49806  11.875   4.248   4.582  0.0911  0.0219  0.0028
48374SOL    HW149807  11.805   4.214   4.528  0.4001  0.5517 -0.7467
48374SOL    HW249808  11.947   4.186   4.571 -0.2027 -0.4564  0.6780
48375SOL     OW49809   6.047   2.889   2.053  0.4363 -0.4731  1.0286
48375SOL    HW149810   6.058   2.795   2.061  1.0290 -0.4643  0.3788
48375SOL    HW249811   6.045   2.906   1.959 -1.2490 -0.0050  1.1138
48376SOL     OW49812   7.416   7.888   8.471 -0.6912 -0.3002 -0.9933
48376SOL    HW149813   7.487   7.841   8.514 -0.9212  0.1285 -0.1055
48376SOL    HW249814   7.385   7.828   8.403 -0.2721 -0.9842 -0.6002
48377SOL     OW49815   4.270   9.461   6.189  0.0970 -0.7612  0.2274
48377SOL    HW149816   4.236   9.436   6.102 -0.0113 -0.1012  0.0776
48377SOL    HW249817   4.192   9.488   6.238 -0.0090 -2.2517  0.9336
48378SOL     OW49818   6.904   9.817   4.612  0.1541  0.7675  0.1962
48378SOL    HW149819   6.858   9.874   4.550  0.7614  0.6960 -0.3336
48378SOL    HW249820   6.859   9.733   4.605  1.1738  0.2997 -1.3367
48379SOL     OW49821   9.625   1.184   5.025 -0.2929 -1.0481  0.1971
48379SOL    HW149822   9.582   1.108   4.984 -0.4992 -0.6945 -0.2626
48379SOL    HW249823   9.557   1.252   5.024  0.2273 -0.5254 -0.4021
48380SOL     OW49824   2.578   1.789   3.067 -0.1647 -0.2252 -0.2578
48380SOL    HW149825   2.651   1.823   3.120 -0.7502 -0.3534  0.6572
48380SOL    HW249826   2.617   1.718   3.016  0.7919  0.9733 -1.2661
48381SOL     OW49827   1.163   1.716   4.214  0.1199 -0.4117  0.5340
48381SOL    HW149828   1.118   1.696   4.132  0.3383  1.2899 -0.0332
48381SOL    HW249829   1.093   1.736   4.276  0.0030  0.0156  0.2699
48382SOL     OW49830   1.604  11.932   1.923  0.1115  0.2876 -0.0078
48382SOL    HW149831   1.585  11.935   2.016 -0.7814 -3.2459  0.0532
48382SOL    HW249832   1.531  11.979   1.882  0.7625  2.2942  0.9923
48383SOL     OW49833   9.946   5.584   8.706  0.6827  0.0634  0.3117
48383SOL    HW149834   9.964   5.674   8.679  0.3714 -0.2820 -1.1438
48383SOL    HW249835   9.851   5.582   8.718  0.8107  0.2034  1.4946
48384SOL     OW49836  11.414   1.407   8.214 -0.3104  0.0589 -0.0555
48384SOL    HW149837  11.366   1.366   8.142 -0.6724 -0.9619  0.7395
48384SOL    HW249838  11.378   1.495   8.220 -1.4166 -0.3791 -0.0801
48385SOL     OW49839   8.470  11.249   4.965  0.2354  0.1929 -0.0670
48385SOL    HW149840   8.540  11.265   4.901  2.4184  1.6031  2.4530
48385SOL    HW249841   8.479  11.156   4.987  0.0205 -0.0946 -1.1144
48386SOL     OW49842   7.165   8.276   3.687  0.2555  0.6580  0.0244
48386SOL    HW149843   7.253   8.284   3.651  0.3221  0.8606  0.2341
48386SOL    HW249844   7.171   8.313   3.775 -0.5445  2.6820 -0.7265
48387SOL     OW49845  10.162   7.535   0.785 -0.4364  0.0884  0.4935
48387SOL    HW149846  10.157   7.444   0.757  1.8817 -0.2749  1.0314
48387SOL    HW249847  10.251   7.562   0.762  0.0941  1.1471  3.3616
48388SOL     OW49848   9.385  10.801   4.315  0.0480  0.5869 -0.0553
48388SOL    HW149849   9.370  10.839   4.401 -0.3430  1.1767 -0.3797
48388SOL    HW249850   9.317  10.734   4.306  0.8548 -0.3510  0.5947
48389SOL     OW49851   3.746  10.483   4.095 -0.4309 -0.1228 -0.0894
48389SOL    HW149852   3.758  10.569   4.134  0.2036  0.2326 -1.0226
48389SOL    HW249853   3.692  10.499   4.018  0.9635 -0.2846 -1.1471
48390SOL     OW49854   0.528   5.055   5.392 -0.0188 -0.6239 -0.2370
48390SOL    HW149855   0.457   5.039   5.330 -0.9888  1.5737  0.1912
48390SOL    HW249856   0.581   5.123   5.351  0.9053 -1.0706  0.1769
48391SOL     OW49857   0.776   5.918   0.302 -0.4996 -0.5270  0.0545
48391SOL    HW149858   0.807   5.974   0.230 -0.7626  0.7790  0.9141
48391SOL    HW249859   0.847   5.920   0.366 -1.3225  0.5072  0.9744
48392SOL     OW49860  10.957   9.496  11.110 -0.0400 -0.1362  0.2677
48392SOL    HW149861  10.972   9.483  11.204 -0.9383  2.1098  0.8019
48392SOL    HW249862  10.901   9.574  11.106 -1.8532 -1.4393 -2.0592
48393SOL     OW49863   2.604   5.808   9.963 -0.0891 -0.2098  0.0164
48393SOL    HW149864   2.542   5.735   9.957 -0.4335  0.1587 -1.1465
48393SOL    HW249865   2.632   5.823   9.873  0.4332  0.7060  0.3232
48394SOL     OW49866   9.013   0.355   6.972  0.0183  0.3482 -0.1144
48394SOL    HW149867   9.079   0.383   6.910 -1.1112  1.9320 -0.6456
48394SOL    HW249868   9.042   0.268   7.001  1.7220  0.5497 -1.1434
48395SOL     OW49869   2.587   7.008   2.547  0.2441  0.0432 -0.1554
48395SOL    HW149870   2.512   7.016   2.605  1.0957  1.7330  0.8001
48395SOL    HW249871   2.602   6.914   2.538 -1.4527 -0.2883  0.3028
48396SOL     OW49872   6.558  10.515   0.870 -0.4362  0.5159  0.0151
48396SOL    HW149873   6.565  10.453   0.942  1.2851 -0.5832 -1.0295
48396SOL    HW249874   6.648  10.546   0.856 -1.0052  1.9935 -0.5662
48397SOL     OW49875   8.806   9.248   4.104  0.5210 -0.2378  0.2436
48397SOL    HW149876   8.870   9.205   4.046  1.5160 -0.1339  1.2179
48397SOL    HW249877   8.795   9.335   4.067  0.2598 -0.5617 -0.4445
48398SOL     OW49878  10.894   3.187   8.808 -0.0321 -0.2251 -0.0173
48398SOL    HW149879  10.986   3.212   8.815  0.4786 -1.6108 -1.2863
48398SOL    HW249880  10.888   3.105   8.857 -0.6942  0.0724  0.4061
48399SOL     OW49881   5.063   8.792   9.859  0.1950  0.1334  0.3955
48399SOL    HW149882   5.073   8.867   9.918 -2.5333 -0.3460  1.6672
48399SOL    HW249883   5.025   8.829   9.780 -1.9583  0.0921  1.3386
48400SOL     OW49884   1.159   4.212  11.657  0.4600 -0.0217 -0.2388
48400SOL    HW149885   1.171   4.300  11.691  0.8355  0.1521 -0.8029
48400SOL    HW249886   1.196   4.215  11.568 -0.5632 -0.4351 -0.6967
48401SOL     OW49887   7.041   3.227   1.433 -0.1377  0.1849  0.0446
48401SOL    HW149888   7.042   3.136   1.402 -1.0429 -0.0222  0.5722
48401SOL    HW249889   6.953   3.239   1.467  1.2083 -0.2038  4.2357
48402SOL     OW49890   1.952  10.813   7.797 -0.6057  0.0193 -0.1278
48402SOL    HW149891   1.973  10.846   7.710  0.3435  0.6026  0.3046
48402SOL    HW249892   1.873  10.863   7.823 -0.2374  0.6563 -0.2110
48403SOL     OW49893   8.081  10.137  10.402  0.4382  0.0758  0.2861
48403SOL    HW149894   8.062  10.064  10.343  2.9131 -0.3192 -0.1566
48403SOL    HW249895   8.105  10.095  10.485  0.7821  0.4338  0.3717
48404SOL     OW49896   8.295   3.712   4.565 -0.3735  0.6516 -0.4316
48404SOL    HW149897   8.339   3.675   4.488 -0.9753  0.9352 -0.9210
48404SOL    HW249898   8.312   3.648   4.635 -0.7659 -0.1849 -1.0784
48405SOL     OW49899  10.456   1.191   3.738 -0.0385  0.1485 -0.1411
48405SOL    HW149900  10.526   1.138   3.701 -1.0815 -0.2913 -1.5864
48405SOL    HW249901  10.410   1.226   3.661 -0.6570  1.4306  0.7772
48406SOL     OW49902   2.745   2.348  10.931 -0.0237 -0.3878  0.0525
48406SOL    HW149903   2.704   2.404  10.865  0.7978 -0.9073 -0.9103
48406SOL    HW249904   2.780   2.274  10.882 -0.9273 -1.6768  1.2872
48407SOL     OW49905  11.021   1.916   8.177 -0.2639 -0.1090  0.0033
48407SOL    HW149906  10.971   1.838   8.199 -1.9750  0.2644 -2.1534
48407SOL    HW249907  10.957   1.988   8.184  0.7537  0.8122  0.0564
48408SOL     OW49908   6.681   8.025  11.404 -0.1159  0.5090  0.3849
48408SOL    HW149909   6.679   7.954  11.339  2.8492 -1.0035  1.7759
48408SOL    HW249910   6.726   8.097  11.360  1.8407 -0.4896  0.6604
48409SOL     OW49911   0.475   5.735   8.157 -0.2717  0.3923  0.3130
48409SOL    HW149912   0.549   5.789   8.132 -1.1490  0.3625 -2.7275
48409SOL    HW249913   0.507   5.682   8.230  2.1009  1.6376  0.2493
48410SOL     OW49914   2.208   6.450   8.767  0.5288 -0.3763  0.1250
48410SOL    HW149915   2.218   6.541   8.738 -1.0109 -0.0344  0.5826
48410SOL    HW249916   2.223   6.453   8.862  0.4425 -0.6005  0.1461
48411SOL     OW49917   2.714   5.798   3.375 -0.2202 -0.1521  0.3579
48411SOL    HW149918   2.720   5.875   3.318 -0.1459 -1.8984 -2.1347
48411SOL    HW249919   2.781   5.813   3.442  1.0388  1.1315 -1.1194
48412SOL     OW49920  10.204   4.411  11.411 -0.6618  0.1202 -0.2944
48412SOL    HW149921  10.226   4.329  11.367 -1.1873 -0.4488  0.4621
48412SOL    HW249922  10.287   4.444  11.444 -0.4692 -0.1864 -0.4721
48413SOL     OW49923   6.131   2.486   7.377 -0.1175  0.1131 -0.2108
48413SOL    HW149924   6.225   2.472   7.378 -0.0388  0.5494  1.4776
48413SOL    HW249925   6.120   2.576   7.349 -0.0644 -0.0881 -0.8854
48414SOL     OW49926   7.360   3.296   2.696  0.0201  0.0957  0.7256
48414SOL    HW149927   7.360   3.276   2.602 -0.5887  0.8020  0.5611
48414SOL    HW249928   7.380   3.389   2.700 -0.7338  0.2448  1.2483
48415SOL     OW49929  10.010   2.147  11.594 -0.5519 -0.1207  0.1822
48415SOL    HW149930  10.075   2.078  11.606  0.8716  0.8748 -1.4184
48415SOL    HW249931  10.009   2.162  11.500 -0.9761  1.9043  0.4779
48416SOL     OW49932   1.659   6.343   6.590  0.0292  0.6757 -0.3122
48416SOL    HW149933   1.725   6.307   6.531  0.7216  1.6186 -0.1427
48416SOL    HW249934   1.699   6.337   6.677 -0.3121  0.7953 -0.1473
48417SOL     OW49935   4.656   2.272   2.499 -0.0041 -0.9355 -0.7310
48417SOL    HW149936   4.638   2.179   2.490 -0.9462 -1.0222  1.5009
48417SOL    HW249937   4.751   2.278   2.501  0.0913 -1.7027 -1.8576
48418SOL     OW49938  11.287   5.227   3.226  0.1862  0.3620 -0.5077
48418SOL    HW149939  11.259   5.293   3.163  1.8301  0.9204 -0.6887
48418SOL    HW249940  11.307   5.149   3.174  0.6031  0.5131 -0.5773
48419SOL     OW49941   5.190  10.103  10.257 -0.2593  0.1531  0.2740
48419SOL    HW149942   5.133  10.036  10.220 -1.0337  0.5453  0.7118
48419SOL    HW249943   5.133  10.179  10.267  0.2352  0.4251  1.1245
48420SOL     OW49944   8.711   4.157   6.155 -0.2915 -0.0802  0.0359
48420SOL    HW149945   8.657   4.130   6.230 -2.8852 -1.1343 -2.0447
48420SOL    HW249946   8.759   4.078   6.130 -0.4225 -0.0913 -0.1839
48421SOL     OW49947  10.645   0.558   7.247  0.1070  0.7797 -0.8076
48421SOL    HW149948  10.581   0.501   7.291 -0.3769  1.7069 -0.2650
48421SOL    HW249949  10.674   0.507   7.172 -0.5352 -0.0644 -0.5141
48422SOL     OW49950   5.395   0.814  11.927  0.0968 -0.1206  0.0794
48422SOL    HW149951   5.435   0.728  11.913 -0.8296 -0.9064  1.9004
48422SOL    HW249952   5.418   0.864  11.849  3.4023 -0.9426  0.3505
48423SOL     OW49953   0.862   7.094  11.836 -0.2405  0.3537 -0.3281
48423SOL    HW149954   0.894   7.004  11.846  0.6161  0.4249 -2.0469
48423SOL    HW249955   0.781   7.085  11.785  1.7824  0.7085 -3.8861
48424SOL     OW49956   7.808   5.669  11.058  0.1043 -0.2109  0.2945
48424SOL    HW149957   7.719   5.697  11.039  0.3052  0.2051 -0.0396
48424SOL    HW249958   7.810   5.659  11.153 -0.3812 -0.5051  0.2737
48425SOL     OW49959  10.751   8.421   4.648  0.4818  0.2753  0.1071
48425SOL    HW149960  10.720   8.352   4.589  2.8240 -0.3037 -0.5360
48425SOL    HW249961  10.764   8.376   4.732 -2.8564  1.0976  1.2580
48426SOL     OW49962   7.469   7.793   0.067  0.3864 -0.5311  0.6797
48426SOL    HW149963   7.432   7.879   0.044 -0.4335 -0.9245  0.4972
48426SOL    HW249964   7.427   7.771   0.150 -0.6176 -1.4632 -0.0525
48427SOL     OW49965  11.575   3.791  11.429  0.5809 -0.1991 -0.4755
48427SOL    HW149966  11.529   3.713  11.462  0.8163 -0.5762 -1.0208
48427SOL    HW249967  11.517   3.827  11.362  1.1128 -0.7592 -1.2695
48428SOL     OW49968   9.773   2.383   5.426  0.0367 -0.0337 -0.1099
48428SOL    HW149969   9.693   2.330   5.426 -0.0202  0.0491 -0.3006
48428SOL    HW249970   9.842   2.321   5.451 -0.2657  0.1970  1.3933
48429SOL     OW49971   2.997  10.457  10.923  0.1756  0.0090 -0.4461
48429SOL    HW149972   2.980  10.519  10.852  0.9151  0.4323 -0.2630
48429SOL    HW249973   3.078  10.488  10.963 -1.4243  1.2612  2.1435
48430SOL     OW49974   4.451   2.522  11.247 -0.0658 -0.1570 -0.2260
48430SOL    HW149975   4.449   2.608  11.289  0.7091 -0.0622 -0.3603
48430SOL    HW249976   4.541   2.493  11.259 -0.5732 -1.4152  0.7430
48431SOL     OW49977   9.860   8.368   2.602 -0.1009  0.1796 -0.0665
48431SOL    HW149978   9.912   8.429   2.656 -0.7252  0.8464 -0.2064
48431SOL    HW249979   9.792   8.423   2.564 -0.5839 -0.5914 -0.3175
48432SOL     OW49980   6.959   8.789   1.422 -0.1993 -0.4104  0.0944
48432SOL    HW149981   6.894   8.740   1.370  0.1995 -0.8081 -0.0296
48432SOL    HW249982   7.035   8.796   1.364  0.4498 -1.3221  0.8132
48433SOL     OW49983   8.570   0.703   6.032  0.1870 -0.2376  0.0250
48433SOL    HW149984   8.569   0.628   6.091  0.9077 -0.2820 -0.0014
48433SOL    HW249985   8.510   0.681   5.962  0.1020 -0.6234  0.2192
48434SOL     OW49986   7.058  11.139   0.474 -0.2031 -0.0874 -0.4650
48434SOL    HW149987   7.095  11.223   0.448 -3.2852  1.4227 -0.4561
48434SOL    HW249988   7.057  11.142   0.570 -0.3549 -0.1339 -0.4655
48435SOL     OW49989   8.148   0.400   2.021 -0.2510  0.1078  0.1635
48435SOL    HW149990   8.178   0.392   1.930 -1.0044 -0.7660 -0.0218
48435SOL    HW249991   8.062   0.439   2.015 -0.2214  0.2316  0.5160
48436SOL     OW49992   3.710   6.781  10.201 -0.1379  0.2238 -0.4752
48436SOL    HW149993   3.785   6.722  10.189  0.0772  0.2426  0.6800
48436SOL    HW249994   3.634   6.725  10.187  0.0692 -0.2918  0.3654
48437SOL     OW49995   0.211   2.926   7.645 -0.0840 -0.1938  0.0332
48437SOL    HW149996   0.250   3.001   7.599  0.6759 -0.4705  0.2089
48437SOL    HW249997   0.118   2.948   7.652  0.4425  1.7527  1.9617
48438SOL     OW49998   0.678   8.434   3.167 -0.1743 -0.4543  0.0775
48438SOL    HW149999   0.646   8.512   3.213 -1.0675 -0.8696  0.1732
48438SOL    HW250000   0.736   8.391   3.231 -0.9286 -0.7033  0.6094
48439SOL     OW50001   3.580   2.428   0.941  0.0927  0.5266  0.3792
48439SOL    HW150002   3.589   2.452   1.033 -1.3750  0.9304  0.4557
48439SOL    HW250003   3.606   2.507   0.893 -1.6632  1.2540  0.5474
48440SOL     OW50004  10.002   1.696  11.734 -0.2019  0.1913  0.1478
48440SOL    HW150005  10.056   1.634  11.783 -0.1966  0.8467  0.9862
48440SOL    HW250006   9.925   1.645  11.708  0.1131 -0.3413  0.2385
48441SOL     OW50007   9.252  11.356   0.589 -0.0139 -0.0606  0.0145
48441SOL    HW150008   9.235  11.297   0.662  1.2606  0.3229  0.6463
48441SOL    HW250009   9.174  11.410   0.583 -0.0325  0.0820  1.2743
48442SOL     OW50010  11.091   8.246   9.827  0.1185 -0.2780 -0.1353
48442SOL    HW150011  11.045   8.168   9.797  0.4381 -0.2573 -0.7016
48442SOL    HW250012  11.149   8.214   9.896  0.6009 -0.6382 -0.6956
48443SOL     OW50013   0.976   4.771   4.083  1.0390  0.5291  0.5152
48443SOL    HW150014   1.000   4.803   3.997  1.5501 -0.5250  0.2521
48443SOL    HW250015   1.035   4.816   4.144  1.6744  0.1702  0.1663
48444SOL     OW50016   7.484   5.661  10.486  0.3098  0.0854  0.3977
48444SOL    HW150017   7.568   5.616  10.495 -0.3278 -1.2372 -0.1387
48444SOL    HW250018   7.432   5.628  10.559 -1.0709 -2.1623 -1.4874
48445SOL     OW50019  10.145   6.258   3.996  0.5975  0.0144 -0.2845
48445SOL    HW150020  10.111   6.170   3.978  0.1199  0.0906  0.2633
48445SOL    HW250021  10.161   6.295   3.909 -0.0773 -0.2674 -0.5307
48446SOL     OW50022   5.645   5.205   8.058 -0.1035  0.2275 -0.1786
48446SOL    HW150023   5.593   5.127   8.038  0.0550 -0.3127  1.3760
48446SOL    HW250024   5.580   5.272   8.081 -0.1698 -0.1773  0.8626
48447SOL     OW50025   4.264   1.889   3.707 -0.0964  0.3721 -0.2461
48447SOL    HW150026   4.331   1.886   3.775 -0.8298  0.1037  0.4989
48447SOL    HW250027   4.291   1.959   3.648  1.0092  0.0220 -0.1649
48448SOL     OW50028   4.846   3.859   1.230 -0.1278 -0.3228 -0.8470
48448SOL    HW150029   4.914   3.845   1.296 -2.5870  0.6096  2.1088
48448SOL    HW250030   4.866   3.944   1.192  0.3226 -0.0246  0.0392
48449SOL     OW50031   3.482   1.290  10.102  0.4946 -0.1323  0.1909
48449SOL    HW150032   3.416   1.342  10.057 -0.5282 -1.5390  0.0241
48449SOL    HW250033   3.490   1.331  10.188  0.5663  0.9835 -0.3265
48450SOL     OW50034   9.606   4.280   6.413 -0.3537  0.0471 -0.3427
48450SOL    HW150035   9.538   4.296   6.479  0.0378 -0.4432  0.1895
48450SOL    HW250036   9.573   4.207   6.361  0.8406 -1.9598  1.5242
48451SOL     OW50037   2.872   8.789   4.442 -0.7841  0.3332 -0.1784
48451SOL    HW150038   2.914   8.730   4.379 -0.4410  1.2723 -0.8528
48451SOL    HW250039   2.860   8.736   4.520  1.6087 -0.0217  0.0240
48452SOL     OW50040   3.605   5.765   4.468  0.0737 -0.2489  0.1736
48452SOL    HW150041   3.557   5.795   4.391  0.2901  0.9725  0.4989
48452SOL    HW250042   3.660   5.839   4.493  1.2360 -1.1976  0.5381
48453SOL     OW50043   6.743   5.352  11.585 -0.3848  0.7565 -0.3792
48453SOL    HW150044   6.725   5.433  11.632  0.3509  1.4831 -1.3163
48453SOL    HW250045   6.835   5.359  11.557  0.1818 -1.0689  0.8080
48454SOL     OW50046   4.195  10.929   9.508 -0.8680 -0.5080 -0.1047
48454SOL    HW150047   4.263  10.921   9.441 -0.2951  0.2071  0.3848
48454SOL    HW250048   4.215  10.860   9.571  2.2474  2.4562  2.5017
48455SOL     OW50049   1.215   0.585   5.184  0.6900  0.2271 -0.1162
48455SOL    HW150050   1.262   0.628   5.114  2.0190  0.2688  0.7764
48455SOL    HW250051   1.270   0.596   5.262 -0.5618 -0.1248  0.8676
48456SOL     OW50052   1.813   4.520  10.530  0.5017 -0.1567 -0.1699
48456SOL    HW150053   1.719   4.537  10.529  0.3157 -1.1605  0.0606
48456SOL    HW250054   1.847   4.576  10.460 -0.2595  0.2185 -0.2530
48457SOL     OW50055  10.059   4.956   1.026 -0.1420 -0.6380  0.1400
48457SOL    HW150056  10.144   4.912   1.018  1.1342  1.6231  0.4042
48457SOL    HW250057  10.073   5.024   1.091 -1.4448  1.3204 -1.4862
48458SOL     OW50058   3.637   4.001   8.894 -0.2924 -0.2047  0.0440
48458SOL    HW150059   3.716   4.020   8.843 -0.4375  1.8529  0.4955
48458SOL    HW250060   3.574   4.068   8.866 -1.2948 -0.7442  0.9383
48459SOL     OW50061   1.557   2.266   3.268  0.1092 -0.0627 -0.5916
48459SOL    HW150062   1.513   2.350   3.256 -0.8362 -0.2739  1.0314
48459SOL    HW250063   1.630   2.267   3.206 -0.2830  1.6622 -1.0681
48460SOL     OW50064   4.577   6.311   3.509  0.0776 -0.2848 -0.0270
48460SOL    HW150065   4.512   6.382   3.512  1.0924  0.6603  1.3708
48460SOL    HW250066   4.553   6.260   3.432 -0.4136  1.8722 -1.4104
48461SOL     OW50067   5.518  11.266   4.179 -0.2065  0.2659 -0.0045
48461SOL    HW150068   5.511  11.361   4.186 -2.2814  0.1796 -0.2392
48461SOL    HW250069   5.593  11.252   4.121  1.1303  1.6748  1.2917
48462SOL     OW50070   4.107   0.484   4.261 -0.0639  0.3925 -0.2839
48462SOL    HW150071   4.034   0.434   4.223  0.7091 -0.4148 -0.7635
48462SOL    HW250072   4.083   0.575   4.249 -1.4266  0.1510  0.4246
48463SOL     OW50073   5.034  11.920   2.068 -0.1930  0.1931  0.4732
48463SOL    HW150074   4.992  11.834   2.064  2.7215 -1.3377  0.5333
48463SOL    HW250075   5.002  11.958   2.151 -0.1868 -1.6123  1.3473
48464SOL     OW50076   6.204   5.782  11.782 -0.4429  0.3101  0.1048
48464SOL    HW150077   6.201   5.703  11.728  1.4290  0.1147  0.2088
48464SOL    HW250078   6.271   5.764  11.848  2.3842  3.0109 -1.6882
48465SOL     OW50079   8.534  11.369   2.525  0.8589  0.5372 -0.2453
48465SOL    HW150080   8.493  11.359   2.439  0.9952  1.5475 -0.4420
48465SOL    HW250081   8.624  11.396   2.506  2.1709 -3.0330  0.1362
48466SOL     OW50082   5.814   7.555   9.283 -0.4693 -0.7735 -0.0842
48466SOL    HW150083   5.771   7.632   9.321  1.2466  0.6600 -0.8867
48466SOL    HW250084   5.823   7.494   9.356 -1.4206 -0.0153  0.6986
48467SOL     OW50085   1.509   1.578   1.674  0.1975 -0.2804  0.0743
48467SOL    HW150086   1.421   1.571   1.636  0.4344  1.4735 -0.8656
48467SOL    HW250087   1.505   1.523   1.752 -2.4742  1.4468  1.3096
48468SOL     OW50088   0.848   1.195   3.363 -0.6557  0.1492 -0.1956
48468SOL    HW150089   0.805   1.112   3.342 -1.2486  0.7981 -1.7313
48468SOL    HW250090   0.777   1.258   3.369 -0.1049  0.8176 -0.4929
48469SOL     OW50091  10.046   5.709   9.142  0.8350 -1.0963  0.3689
48469SOL    HW150092  10.036   5.803   9.132  1.8258 -0.8170  1.6088
48469SOL    HW250093  10.100   5.682   9.067  2.3745 -0.2747  1.1206
48470SOL     OW50094   3.955   3.717   6.337 -0.1822 -0.1540 -0.2281
48470SOL    HW150095   3.906   3.645   6.298  0.2090 -1.9685  2.3501
48470SOL    HW250096   3.963   3.693   6.429 -0.2412  3.3684  0.8391
48471SOL     OW50097   3.192  11.317   7.869 -0.3422  0.1293  0.0502
48471SOL    HW150098   3.100  11.324   7.841 -0.3559  0.6478  0.2107
48471SOL    HW250099   3.231  11.401   7.844 -0.0249  0.0836  0.3847
48472SOL     OW50100   0.574   6.772   3.142  0.1037  0.3591 -0.3200
48472SOL    HW150101   0.557   6.866   3.148  0.1861  0.3093  1.1776
48472SOL    HW250102   0.489   6.731   3.160  0.1824  0.1443 -0.4296
48473SOL     OW50103   0.697   5.449   9.431  0.1823 -0.3871 -0.3106
48473SOL    HW150104   0.673   5.527   9.381 -1.4401 -0.8670 -0.3570
48473SOL    HW250105   0.613   5.409   9.454  0.9654 -2.3603 -0.6655
48474SOL     OW50106   4.169   7.619   2.808  0.4250 -0.0066 -0.2829
48474SOL    HW150107   4.211   7.562   2.743  0.1718 -0.0509 -0.4062
48474SOL    HW250108   4.075   7.609   2.793  0.3609  1.9670 -1.6688
48475SOL     OW50109   8.005   6.172   3.798 -0.8183  0.1873  0.1687
48475SOL    HW150110   8.013   6.258   3.756  0.5211  0.1425  0.2901
48475SOL    HW250111   7.912   6.152   3.793 -0.7477  0.1851 -2.7604
48476SOL     OW50112   1.253   9.615   5.163 -0.3529  0.5341 -0.7435
48476SOL    HW150113   1.337   9.645   5.130  0.8278  1.3168  2.5389
48476SOL    HW250114   1.206   9.696   5.185 -1.1167  0.0707 -0.6477
48477SOL     OW50115   5.745   5.652   4.890 -0.2530 -0.5507  0.2395
48477SOL    HW150116   5.694   5.630   4.813  0.0030  0.5187 -0.2478
48477SOL    HW250117   5.823   5.596   4.884 -0.0738 -0.2373 -0.4613
48478SOL     OW50118   8.338   2.396   0.254 -0.6354 -0.8327 -0.2332
48478SOL    HW150119   8.409   2.357   0.203  0.4419 -0.6651  1.0560
48478SOL    HW250120   8.312   2.327   0.315  1.0827  0.2412  1.8676
48479SOL     OW50121  10.954   3.076  11.640 -0.0448 -0.0261 -0.3582
48479SOL    HW150122  10.965   3.053  11.733  1.2965  0.1014 -0.4697
48479SOL    HW250123  10.932   2.993  11.597 -3.2083  0.2748  0.3791
48480SOL     OW50124  10.870   1.935   0.199  0.1236 -0.1383 -0.0201
48480SOL    HW150125  10.820   1.872   0.250  1.1896 -0.5324  0.5866
48480SOL    HW250126  10.925   1.980   0.263 -1.0785  1.9129 -0.3409
48481SOL     OW50127  10.977   8.624   7.713 -0.0861  1.0243  0.2043
48481SOL    HW150128  10.924   8.686   7.663 -2.8715  0.3546  2.0334
48481SOL    HW250129  10.970   8.542   7.664 -2.6716  0.4109  1.3969
48482SOL     OW50130  10.181   6.992  11.651 -0.1548 -0.3464 -0.2005
48482SOL    HW150131  10.210   7.037  11.571  1.1282 -0.4875  0.1694
48482SOL    HW250132  10.240   7.023  11.719  0.1499 -1.8612  0.2574
48483SOL     OW50133   0.286   5.907   7.127  0.0115 -0.4789  0.4586
48483SOL    HW150134   0.342   5.844   7.173 -0.9958 -0.6321  1.5129
48483SOL    HW250135   0.204   5.860   7.112  0.2366 -0.3667 -1.3683
48484SOL     OW50136   4.697  11.244   7.784 -0.5768 -0.1603 -0.3058
48484SOL    HW150137   4.680  11.160   7.741 -1.4118  0.1051 -0.5180
48484SOL    HW250138   4.637  11.246   7.858 -0.9276  0.4671 -0.6011
48485SOL     OW50139   6.070   2.136   1.763  0.2202  0.2744  0.3835
48485SOL    HW150140   6.104   2.050   1.738 -0.5901 -0.3847  1.4669
48485SOL    HW250141   5.985   2.117   1.804 -0.2492  1.6491  0.0946
48486SOL     OW50142   0.380  10.177   8.883  0.2178  0.5763  0.0079
48486SOL    HW150143   0.364  10.175   8.789  0.3341 -0.2011 -0.0051
48486SOL    HW250144   0.295  10.161   8.922  0.3142  0.0450  0.0108
48487SOL     OW50145   2.071   4.271   2.292 -0.6458  0.3188  0.0878
48487SOL    HW150146   1.996   4.264   2.233 -0.6175  0.8883 -0.0217
48487SOL    HW250147   2.054   4.350   2.343 -0.2275  0.3315  0.2132
48488SOL     OW50148   2.013   9.587   4.447 -0.2823 -0.4827 -0.7361
48488SOL    HW150149   2.027   9.630   4.362  1.3738  0.1873 -0.1696
48488SOL    HW250150   2.087   9.527   4.455 -1.6900 -2.3009 -0.7778
48489SOL     OW50151   8.965   8.068   1.567  0.1573  0.4839 -0.3034
48489SOL    HW150152   8.876   8.091   1.542  0.6432  1.1651 -1.4944
48489SOL    HW250153   9.018   8.087   1.489  1.2644 -0.4386  0.1842
48490SOL     OW50154  11.290   9.975   7.337 -0.5665 -0.8821  0.2402
48490SOL    HW150155  11.240   9.952   7.415 -0.1814 -0.7067  0.5400
48490SOL    HW250156  11.340   9.897   7.316  0.8303 -0.3076  1.3248
48491SOL     OW50157   0.965   1.811   8.680 -0.0973 -0.0437 -0.2585
48491SOL    HW150158   0.970   1.809   8.775  3.5194  0.1996 -0.3021
48491SOL    HW250159   0.915   1.890   8.660 -1.8561 -0.6856  1.3689
48492SOL     OW50160   0.266   7.487   3.161 -0.0233 -0.4467  1.2258
48492SOL    HW150161   0.346   7.517   3.205 -0.5024  0.4364  1.4994
48492SOL    HW250162   0.298   7.437   3.086  0.9699  4.0881 -1.7486
48493SOL     OW50163   1.278   6.740   9.530  0.1693 -0.3147  0.5294
48493SOL    HW150164   1.264   6.737   9.435 -0.0696 -0.0392  0.5527
48493SOL    HW250165   1.346   6.676   9.546  1.4461  0.8450 -0.0473
48494SOL     OW50166   2.305   2.657   0.062 -0.0229  0.0492  0.2935
48494SOL    HW150167   2.266   2.705  -0.011  3.7600  0.5382 -1.6596
48494SOL    HW250168   2.345   2.725   0.116  1.9646 -0.5487 -0.3251
48495SOL     OW50169   1.908   9.283   0.619 -0.5916 -0.4617  0.5342
48495SOL    HW150170   1.971   9.211   0.620 -3.0221 -2.7687  1.7659
48495SOL    HW250171   1.881   9.291   0.528  0.7127 -0.1119  0.1620
48496SOL     OW50172   4.435  10.583   2.716 -0.2517 -0.5760  0.3506
48496SOL    HW150173   4.412  10.530   2.792  3.1098 -2.0112  0.5388
48496SOL    HW250174   4.489  10.654   2.752 -0.1786 -0.1862 -0.5033
48497SOL     OW50175   5.769   8.789   7.390 -0.3138 -0.4202  0.1997
48497SOL    HW150176   5.860   8.812   7.371 -0.2471  0.0756  1.0366
48497SOL    HW250177   5.744   8.728   7.321  1.0754 -1.6133  0.6885
48498SOL     OW50178   7.372   1.314   0.813 -0.1659  0.2515  0.0375
48498SOL    HW150179   7.326   1.394   0.840  0.6227  1.4056 -1.8734
48498SOL    HW250180   7.396   1.272   0.895 -1.8675  1.2177  1.0953
48499SOL     OW50181   4.181  10.116  10.496 -0.1759 -0.1387 -0.1293
48499SOL    HW150182   4.260  10.161  10.524  0.1736  0.0623 -1.3789
48499SOL    HW250183   4.124  10.186  10.462 -0.0161 -0.5031 -1.1935
48500SOL     OW50184  11.271   7.213   5.736 -0.2379  0.3491  0.2330
48500SOL    HW150185  11.315   7.266   5.802 -0.0391  0.8415 -0.2857
48500SOL    HW250186  11.180   7.241   5.739 -0.4308 -0.3219  0.9666
48501SOL     OW50187   0.991   7.344   7.046 -0.2769 -0.0772 -0.3313
48501SOL    HW150188   0.967   7.326   6.955  0.3790 -0.4112 -0.4474
48501SOL    HW250189   1.010   7.437   7.048 -1.2603  0.1368 -0.3030
48502SOL     OW50190  10.374   5.564   9.093  0.4586  0.3312  0.2053
48502SOL    HW150191  10.364   5.484   9.041 -0.2190 -0.0492  0.9025
48502SOL    HW250192  10.317   5.627   9.050 -0.8859 -0.2715  1.0323
48503SOL     OW50193  11.864  10.543   4.163  0.6179 -0.0595 -0.2243
48503SOL    HW150194  11.894  10.606   4.228  0.9586 -0.9502  0.5059
48503SOL    HW250195  11.813  10.479   4.212  0.6568 -0.6039 -0.8704
48504SOL     OW50196   8.557   5.494   0.997 -0.1875  0.0571 -0.1716
48504SOL    HW150197   8.648   5.508   1.025 -0.6254  1.2321  0.7381
48504SOL    HW250198   8.535   5.573   0.948 -0.8121 -0.1111 -0.1614
48505SOL     OW50199   6.367   6.428   9.221  0.2789  0.1704  0.2761
48505SOL    HW150200   6.289   6.379   9.246 -0.9263  1.0092 -1.5536
48505SOL    HW250201   6.440   6.367   9.234 -0.6733 -0.6854  1.8959
48506SOL     OW50202  10.693   6.277   0.062  0.2583  0.2629  0.4674
48506SOL    HW150203  10.687   6.232   0.146 -2.6414 -0.2810  0.0672
48506SOL    HW250204  10.754   6.349   0.077  0.0259  0.0165  2.9400
48507SOL     OW50205   3.980  10.924   3.809  0.2144  0.7877  0.6442
48507SOL    HW150206   4.075  10.936   3.821 -0.2872  3.6898  2.8643
48507SOL    HW250207   3.964  10.956   3.721  1.3241 -0.0301  0.1167
48508SOL     OW50208   3.890  10.246   8.383 -0.2352  0.0620  0.4200
48508SOL    HW150209   3.805  10.245   8.339  0.6894 -1.1264 -1.4546
48508SOL    HW250210   3.881  10.182   8.454 -0.5907 -0.9326 -0.4900
48509SOL     OW50211   5.091   3.549   9.633 -0.0108 -0.3449  0.8357
48509SOL    HW150212   5.127   3.602   9.562  0.3791 -1.5424  0.1129
48509SOL    HW250213   5.116   3.460   9.612 -2.4416 -1.1242  0.8662
48510SOL     OW50214   3.400   8.662   0.333  0.0432 -0.2272 -0.2809
48510SOL    HW150215   3.315   8.630   0.300  0.5393 -0.8404 -0.9953
48510SOL    HW250216   3.420   8.603   0.406 -0.1560 -0.0613 -0.0900
48511SOL     OW50217   3.499   1.815   3.857  0.0913  0.4685 -0.0182
48511SOL    HW150218   3.461   1.853   3.778  1.6490  0.2530 -0.8991
48511SOL    HW250219   3.580   1.863   3.871  1.1061 -1.1622 -0.0258
48512SOL     OW50220   2.151   0.877   9.578 -0.0282  0.1328 -0.2218
48512SOL    HW150221   2.211   0.951   9.576  0.0223  0.1163  0.5953
48512SOL    HW250222   2.169   0.830   9.496  1.4980 -0.2057  0.2764
48513SOL     OW50223  10.132   2.546   0.642  0.2699 -0.3734  0.1010
48513SOL    HW150224  10.148   2.569   0.734 -0.3234 -0.5873  0.2629
48513SOL    HW250225  10.147   2.451   0.638  3.8194  0.0743 -0.7998
48514SOL     OW50226   8.121   3.640   6.390 -0.1507 -0.0681  0.5668
48514SOL    HW150227   8.030   3.628   6.365 -0.1299  1.0588 -0.1406
48514SOL    HW250228   8.158   3.552   6.392 -1.2447 -0.5290  0.8469
48515SOL     OW50229   3.982   8.685   9.585 -0.4438 -0.5167  0.1350
48515SOL    HW150230   3.973   8.768   9.633  2.3401  0.0618 -0.1588
48515SOL    HW250231   3.978   8.711   9.493  0.4077 -0.6759  0.0432
48516SOL     OW50232   2.834   1.625   3.268 -0.3475 -0.2231 -0.6041
48516SOL    HW150233   2.917   1.618   3.220  0.7394 -0.2992  1.2188
48516SOL    HW250234   2.811   1.718   3.262  0.5963  0.0659  0.0125
48517SOL     OW50235   2.227   5.121   7.193 -0.0918  0.0612  0.7060
48517SOL    HW150236   2.225   5.037   7.239  0.8605 -0.2475  0.2284
48517SOL    HW250237   2.253   5.098   7.104  0.4843  0.8901  0.6489
48518SOL     OW50238  11.652   7.023   0.498  0.6280  0.4040 -0.0982
48518SOL    HW150239  11.720   7.040   0.433  0.6089  0.0960 -0.2002
48518SOL    HW250240  11.687   7.060   0.579  2.3432 -2.4870  0.6166
48519SOL     OW50241  11.942   8.843   8.203  0.0229 -0.0665 -0.1392
48519SOL    HW150242  11.897   8.832   8.119 -0.1334  1.6343 -0.3062
48519SOL    HW250243  11.938   8.937   8.221 -0.2788 -0.4307  1.9729
48520SOL     OW50244   7.766   8.317   8.134  0.4158 -0.4132 -0.1565
48520SOL    HW150245   7.731   8.247   8.188  2.1802 -2.1957 -1.1658
48520SOL    HW250246   7.856   8.330   8.165  0.1039  1.4989  0.0615
48521SOL     OW50247   6.491   1.996  11.936  0.5058 -0.5251 -0.0505
48521SOL    HW150248   6.509   2.028  12.025  1.8272 -0.4025 -0.3371
48521SOL    HW250249   6.406   2.033  11.914  1.1314  1.2431  0.3575
48522SOL     OW50250   5.246   7.099   1.268 -0.2555 -0.0144 -0.2412
48522SOL    HW150251   5.252   7.024   1.327 -2.2511 -0.2452 -0.2879
48522SOL    HW250252   5.162   7.089   1.224  0.3637  1.1603 -1.7687
48523SOL     OW50253   2.632  11.875   8.830 -0.0908  0.1160  0.4662
48523SOL    HW150254   2.702  11.858   8.767  0.1289 -0.6119  0.8968
48523SOL    HW250255   2.551  11.860   8.780  0.0646 -2.7931  0.9020
48524SOL     OW50256   6.398   4.593   6.553  0.5576  0.2280  0.7339
48524SOL    HW150257   6.482   4.626   6.585 -0.1927  1.7205  1.2195
48524SOL    HW250258   6.334   4.619   6.619 -0.2884 -1.0353  0.4515
48525SOL     OW50259  11.352   4.225  10.687  0.0789 -0.4559 -0.2411
48525SOL    HW150260  11.441   4.221  10.653  0.4998 -1.6951  0.9198
48525SOL    HW250261  11.296   4.229  10.610  1.1631  1.5959 -0.9907
48526SOL     OW50262  10.340  10.245   5.189 -0.5935 -0.7247  0.1342
48526SOL    HW150263  10.348  10.304   5.114  1.1119 -0.5135  0.4373
48526SOL    HW250264  10.367  10.160   5.155 -2.0019 -1.1274 -0.0307
48527SOL     OW50265   7.260   5.263   2.183 -0.6700  0.3322 -0.7581
48527SOL    HW150266   7.189   5.295   2.127 -2.3231  0.7780  1.4220
48527SOL    HW250267   7.263   5.326   2.255 -0.1125 -1.3154  0.7256
48528SOL     OW50268   8.859   5.788   5.609 -0.2817 -0.1899 -0.3854
48528SOL    HW150269   8.859   5.763   5.701  0.0612  0.6224 -0.1580
48528SOL    HW250270   8.945   5.759   5.577 -0.2695 -0.1751 -0.3663
48529SOL     OW50271  11.140   5.405   8.205  0.5009 -0.3829 -0.3848
48529SOL    HW150272  11.053   5.437   8.185 -0.2768 -1.9799  0.2730
48529SOL    HW250273  11.195   5.483   8.205 -0.9028  0.6377 -0.8990
48530SOL     OW50274   4.135  11.328   6.982 -0.1183  0.1439 -0.6455
48530SOL    HW150275   4.139  11.411   7.029 -0.5861 -0.4029  0.4182
48530SOL    HW250276   4.054  11.287   7.012  0.6122 -1.1511 -0.3271
48531SOL     OW50277   8.015   2.381   0.994 -0.0141  0.6047  0.3539
48531SOL    HW150278   8.017   2.417   0.906  0.8296  0.5280  0.3423
48531SOL    HW250279   7.963   2.444   1.044 -0.5718  0.6038 -0.2073
48532SOL     OW50280   5.468   6.419   9.089 -0.5400  0.2200 -0.3211
48532SOL    HW150281   5.450   6.488   9.025 -0.9027  1.0470  0.6429
48532SOL    HW250282   5.536   6.366   9.049  1.2208  2.3060 -0.2594
48533SOL     OW50283  10.578   9.457  10.467 -0.1958  0.4886  0.2614
48533SOL    HW150284  10.572   9.373  10.421  1.7356 -0.1934  1.1518
48533SOL    HW250285  10.668   9.486  10.453 -0.6432  2.0965  0.5425
48534SOL     OW50286  10.717   7.152  10.195  0.0816 -0.1696 -0.4738
48534SOL    HW150287  10.730   7.192  10.281  0.6867 -0.3090 -0.4918
48534SOL    HW250288  10.763   7.068  10.200 -0.1782 -0.3351 -0.8171
48535SOL     OW50289   9.909  10.140   8.367 -0.2415  0.0071 -0.0035
48535SOL    HW150290   9.942  10.053   8.348 -1.3459 -0.2534 -0.8461
48535SOL    HW250291   9.853  10.129   8.443  2.4293  0.6650  2.2389
48536SOL     OW50292   0.392   9.878   0.086  0.0851 -0.0406 -0.2488
48536SOL    HW150293   0.476   9.834   0.069  0.8916  1.0964  0.6189
48536SOL    HW250294   0.347   9.820   0.148  1.1347  0.2961  0.8847
48537SOL     OW50295   5.779   3.547   5.393  0.2526  0.4032  0.5991
48537SOL    HW150296   5.714   3.507   5.336 -0.5277  0.9902  1.0488
48537SOL    HW250297   5.763   3.507   5.479 -0.0921  1.1686  0.9005
48538SOL     OW50298   1.503   2.549   0.545 -0.3828  0.1847  0.4795
48538SOL    HW150299   1.409   2.561   0.557 -0.1728  0.5819  1.9811
48538SOL    HW250300   1.542   2.595   0.620  1.0081  0.1382 -0.1981
48539SOL     OW50301   1.129   8.583   7.843 -0.2742 -0.4740 -0.3800
48539SOL    HW150302   1.062   8.624   7.788 -0.4718 -0.0301  0.1816
48539SOL    HW250303   1.206   8.637   7.830 -0.1934 -0.6315 -0.5619
48540SOL     OW50304   5.480   9.632   9.232  0.1664 -0.0465 -0.2454
48540SOL    HW150305   5.463   9.662   9.142  0.3435  1.9668  0.3471
48540SOL    HW250306   5.565   9.587   9.226 -0.0008 -0.2711 -1.1375
48541SOL     OW50307  10.560   2.714   0.517 -0.2073  0.0241  0.0322
48541SOL    HW150308  10.504   2.647   0.556 -1.0835  2.2953  2.9849
48541SOL    HW250309  10.526   2.725   0.428 -2.4440 -0.8198  0.7289
48542SOL     OW50310  10.734  10.958   4.245  0.2443  0.4210 -0.2600
48542SOL    HW150311  10.744  10.929   4.335 -2.1689 -0.2482 -0.1306
48542SOL    HW250312  10.778  10.891   4.193 -2.0444 -1.6102  0.2450
48543SOL     OW50313   4.369   5.419   0.354 -0.1626 -0.5065 -0.0138
48543SOL    HW150314   4.447   5.412   0.299 -1.1952  0.5505 -1.6905
48543SOL    HW250315   4.321   5.494   0.319 -1.8198 -0.9605  1.1407
48544SOL     OW50316   3.906   7.376   3.959 -0.1154 -0.5341 -0.2091
48544SOL    HW150317   3.832   7.414   3.912  0.0490  1.9176  1.3287
48544SOL    HW250318   3.879   7.287   3.981 -1.3107 -0.7567 -2.3551
48545SOL     OW50319   1.168   3.921   5.281 -0.3492 -0.5417 -0.8253
48545SOL    HW150320   1.246   3.942   5.229  1.4240 -0.4024  1.6885
48545SOL    HW250321   1.158   3.994   5.341 -0.0731 -2.2241  1.4182
48546SOL     OW50322   3.678   8.321   1.087  0.1267 -0.2043  0.2776
48546SOL    HW150323   3.595   8.314   1.040  0.3351 -0.5376 -0.0475
48546SOL    HW250324   3.661   8.277   1.171  0.1651 -0.8379 -0.0465
48547SOL     OW50325  11.044   3.355   9.623  0.4092 -0.1980  0.2891
48547SOL    HW150326  11.126   3.354   9.672  0.2365  1.5291  0.6920
48547SOL    HW250327  10.979   3.387   9.685 -0.5746 -1.4293 -0.0604
48548SOL     OW50328   6.912   5.909   0.347  0.4203  0.0224  0.3264
48548SOL    HW150329   6.971   5.834   0.349  1.7111  0.9947  2.1873
48548SOL    HW250330   6.928   5.954   0.430 -4.6086 -0.8341  2.1220
48549SOL     OW50331   0.636   2.042   1.683 -0.2635  0.4021 -0.0863
48549SOL    HW150332   0.624   2.082   1.596 -0.7233  2.7133  0.9541
48549SOL    HW250333   0.561   1.983   1.692  0.3248 -0.6264 -1.6231
48550SOL     OW50334   1.761  10.034   5.260 -0.0573  0.3137 -0.4491
48550SOL    HW150335   1.722   9.948   5.273 -1.6161  1.0101 -0.2902
48550SOL    HW250336   1.805  10.054   5.343 -1.2653  0.4353  0.1770
48551SOL     OW50337  11.506   8.781   7.973 -0.2746 -0.8822  0.2023
48551SOL    HW150338  11.432   8.762   7.915 -0.1119  1.8702 -1.0132
48551SOL    HW250339  11.472   8.844   8.036  0.9607  0.3526 -0.3142
48552SOL     OW50340   0.209  11.329   2.327 -0.2032  0.0718  0.1955
48552SOL    HW150341   0.284  11.371   2.368  0.4314  0.0209 -0.8777
48552SOL    HW250342   0.246  11.278   2.255 -1.0803 -1.3254  0.6805
48553SOL     OW50343   9.310   7.982   1.749 -0.4429 -0.4654  0.0135
48553SOL    HW150344   9.226   7.987   1.796 -0.2699  1.6014  0.1844
48553SOL    HW250345   9.362   8.054   1.785  0.5874 -0.3079 -1.6858
48554SOL     OW50346   1.812  11.429  10.751  0.2138 -1.0086  0.0569
48554SOL    HW150347   1.762  11.370  10.694 -0.6886 -0.0203 -0.2132
48554SOL    HW250348   1.746  11.468  10.807  0.5576  0.8400 -0.7605
48555SOL     OW50349   6.522   5.659   4.625 -0.0717  0.5796  0.0216
48555SOL    HW150350   6.512   5.565   4.611 -1.2170  0.9043 -1.5345
48555SOL    HW250351   6.608   5.668   4.665  0.5352 -1.0402 -0.8337
48556SOL     OW50352   9.964   6.109   7.459 -0.2040  0.2983  0.3085
48556SOL    HW150353   9.946   6.174   7.528 -0.6055  0.1533  0.3394
48556SOL    HW250354   9.880   6.065   7.445  0.4439 -1.4761  1.5709
48557SOL     OW50355   8.877  11.604   6.779 -0.0533  0.3158 -0.3647
48557SOL    HW150356   8.961  11.602   6.733  0.9054  1.0218  1.2922
48557SOL    HW250357   8.834  11.522   6.754  1.6039 -0.5819 -0.3621
48558SOL     OW50358   4.806  11.710  11.400  0.5255 -0.1338 -0.4989
48558SOL    HW150359   4.810  11.626  11.355  3.7091  0.3453 -1.3554
48558SOL    HW250360   4.890  11.717  11.445 -0.1408  2.0711  0.5465
48559SOL     OW50361  11.079   5.866   1.737 -0.2183 -0.0214 -0.3019
48559SOL    HW150362  11.060   5.950   1.779  0.9821 -0.1232  0.5084
48559SOL    HW250363  11.119   5.813   1.807 -2.5928 -1.9376 -0.2630
48560SOL     OW50364   5.772   3.229   4.702  0.1490  0.1026 -0.5953
48560SOL    HW150365   5.845   3.214   4.761  0.0767  1.7429 -0.0297
48560SOL    HW250366   5.748   3.142   4.670  2.0311 -0.5065 -0.4374
48561SOL     OW50367   9.021   6.334   9.263 -0.7937  0.0809  0.8498
48561SOL    HW150368   8.949   6.284   9.226 -0.7454  0.7204 -0.1347
48561SOL    HW250369   8.979   6.399   9.319 -0.8920 -0.5374  1.5093
48562SOL     OW50370   7.017  11.240  11.484  0.1049 -0.3663  0.2190
48562SOL    HW150371   7.030  11.202  11.571  0.1824 -0.8938 -0.0133
48562SOL    HW250372   6.930  11.279  11.488 -0.4101 -1.4463  0.1794
48563SOL     OW50373   1.854  10.794   4.575 -0.5836 -0.3118  0.0916
48563SOL    HW150374   1.887  10.884   4.564  0.3425 -0.4631  1.4677
48563SOL    HW250375   1.812  10.794   4.661  0.2642 -1.4303  0.5286
48564SOL     OW50376   9.795   6.804   9.728 -0.6780  0.0962  0.0901
48564SOL    HW150377   9.752   6.726   9.694 -2.3033  0.1509  1.8482
48564SOL    HW250378   9.808   6.860   9.651 -3.4662 -0.1068 -0.6375
48565SOL     OW50379   8.687  11.096   1.134  0.3580  0.3906  0.2957
48565SOL    HW150380   8.634  11.169   1.102  1.6357  1.9219  1.6069
48565SOL    HW250381   8.642  11.066   1.212  0.3403  0.3671  0.2770
48566SOL     OW50382   6.223   7.179  10.311 -0.1989  0.1283  0.2084
48566SOL    HW150383   6.142   7.151  10.354  0.9496 -1.6951  1.2935
48566SOL    HW250384   6.275   7.218  10.380  0.1466  0.6675 -0.3439
48567SOL     OW50385   6.723  11.748   1.062  0.0168  0.1038 -0.1518
48567SOL    HW150386   6.774  11.830   1.061  0.0650  0.1501  1.9378
48567SOL    HW250387   6.779  11.686   1.016  0.5293  0.9489 -0.7134
48568SOL     OW50388  10.138   9.381  10.821  0.3036  0.9056  0.0466
48568SOL    HW150389  10.146   9.446  10.891 -2.7352  0.4334  0.9998
48568SOL    HW250390  10.207   9.318  10.838  0.9807  1.9335  1.3340
48569SOL     OW50391   8.887   5.174   6.537  0.0114  0.2270  0.1023
48569SOL    HW150392   8.971   5.205   6.570 -0.2590  0.8421  0.2419
48569SOL    HW250393   8.903   5.153   6.445  0.3592  0.1679  0.1765
48570SOL     OW50394  10.504   1.392   0.912  0.3205  0.3491 -0.6684
48570SOL    HW150395  10.491   1.381   0.818 -1.3721 -0.8646 -0.3353
48570SOL    HW250396  10.470   1.311   0.950 -1.0038  1.6907  1.1388
48571SOL     OW50397   0.699  11.255   2.828 -0.0701  0.0277 -0.2266
48571SOL    HW150398   0.665  11.205   2.902  0.1106  1.3693  0.7948
48571SOL    HW250399   0.624  11.263   2.768 -0.7748  0.5152  0.6898
48572SOL     OW50400   1.328   2.850  11.079 -0.2386 -0.5123  0.0151
48572SOL    HW150401   1.268   2.895  11.020 -0.4556 -1.0294 -0.1631
48572SOL    HW250402   1.305   2.758  11.072  1.2916 -0.8549 -0.8952
48573SOL     OW50403   2.989   2.772   3.533  0.1794 -0.1077 -0.2521
48573SOL    HW150404   2.961   2.753   3.622  0.7143  0.2195 -0.0145
48573SOL    HW250405   2.991   2.867   3.527  1.2631 -0.1233 -0.2573
48574SOL     OW50406   5.129   4.662   4.451 -0.1967 -0.1128 -0.2987
48574SOL    HW150407   5.129   4.567   4.463 -0.5389 -0.1560 -0.6008
48574SOL    HW250408   5.079   4.675   4.370 -0.4564  0.3440 -0.0682
48575SOL     OW50409   4.741   2.702   3.100 -0.2173 -0.2629 -0.2868
48575SOL    HW150410   4.738   2.610   3.073 -1.4057 -0.2794 -0.1514
48575SOL    HW250411   4.721   2.751   3.020 -1.4809 -0.2199  0.0284
48576SOL     OW50412   7.314  10.018  11.356  0.2272  0.1639 -0.4722
48576SOL    HW150413   7.249  10.065  11.409  1.2946  3.9236 -2.2093
48576SOL    HW250414   7.395  10.024  11.407  0.5285  0.8993 -1.0248
48577SOL     OW50415   5.146   8.086   1.941  0.0113 -1.0939 -0.4587
48577SOL    HW150416   5.152   7.992   1.921  1.3787 -1.4043  1.2553
48577SOL    HW250417   5.106   8.090   2.028  1.8436 -0.2161  0.3873
48578SOL     OW50418  10.820   6.914   2.586  0.1181  0.3487  0.0949
48578SOL    HW150419  10.731   6.884   2.568  0.0177 -0.9344  2.3426
48578SOL    HW250420  10.876   6.853   2.537 -0.1972 -1.3949  1.7771
48579SOL     OW50421   5.854   1.490   1.858  0.6027 -0.8315 -0.6294
48579SOL    HW150422   5.800   1.482   1.779 -1.1688  0.9451  0.3154
48579SOL    HW250423   5.919   1.557   1.836  0.1520 -0.3855 -0.6267
48580SOL     OW50424  10.680  11.900   2.833  0.1831  0.2300 -0.5759
48580SOL    HW150425  10.743  11.953   2.784 -1.0546  0.6717 -1.7435
48580SOL    HW250426  10.599  11.906   2.783 -0.1554 -2.3731 -0.4745
48581SOL     OW50427  10.775  10.410   7.722 -0.8592 -0.1029  0.2242
48581SOL    HW150428  10.732  10.491   7.694  0.8811  0.0549 -2.2691
48581SOL    HW250429  10.852  10.403   7.666  1.2705 -1.4305  3.0752
48582SOL     OW50430   1.688  11.957   9.431 -0.4526  0.3267  0.0892
48582SOL    HW150431   1.616  11.979   9.491  0.7183  0.9303  1.3438
48582SOL    HW250432   1.647  11.956   9.344 -1.8078  1.5025  0.6603
48583SOL     OW50433   3.955   4.398   3.185 -0.2364 -0.3416  0.2521
48583SOL    HW150434   4.032   4.451   3.165 -1.8601  1.6317 -1.1238
48583SOL    HW250435   3.932   4.355   3.102 -1.9219  0.9321  0.0043
48584SOL     OW50436   9.721   3.864   3.821  0.0905 -0.2878 -0.0007
48584SOL    HW150437   9.717   3.791   3.759  0.5652  0.1636 -0.5760
48584SOL    HW250438   9.632   3.871   3.856 -0.4723  0.1300 -1.4420
48585SOL     OW50439   4.633   7.930   2.592 -0.4540 -0.3861 -0.3120
48585SOL    HW150440   4.644   7.848   2.639  1.3582  0.9703  1.8656
48585SOL    HW250441   4.631   7.997   2.661  1.4795  1.6731 -2.0894
48586SOL     OW50442  11.743   6.260   0.694  0.0512 -0.2046 -0.3114
48586SOL    HW150443  11.728   6.282   0.602 -0.7830 -0.5286 -0.2600
48586SOL    HW250444  11.670   6.202   0.718  1.0221 -1.2753  0.1598
48587SOL     OW50445   6.449  10.299   5.824  0.1605 -0.1733 -0.2018
48587SOL    HW150446   6.525  10.348   5.854 -0.6166  0.2573  1.1946
48587SOL    HW250447   6.383  10.365   5.807 -1.1711 -0.6522  2.4868
48588SOL     OW50448   4.251   1.367   6.917 -0.3516  0.1174 -0.4595
48588SOL    HW150449   4.166   1.385   6.878  0.0643 -0.2306 -1.5595
48588SOL    HW250450   4.314   1.406   6.857  0.3082 -0.5374 -0.2109
48589SOL     OW50451   4.202   6.506  11.714  0.0502  0.0209 -0.3388
48589SOL    HW150452   4.295   6.507  11.738  0.1822  0.6436 -0.8589
48589SOL    HW250453   4.160   6.455  11.784  0.9872 -1.5800 -0.8908
48590SOL     OW50454   5.581   9.567   3.745  0.2269  0.3184 -0.1984
48590SOL    HW150455   5.513   9.567   3.677  0.3672 -1.5593 -0.3945
48590SOL    HW250456   5.536   9.597   3.824 -0.0106  2.2422 -1.0021
48591SOL     OW50457  11.047   3.977   0.590 -0.8687 -0.0022  0.5598
48591SOL    HW150458  11.099   3.901   0.614  0.3271  0.0234 -1.6779
48591SOL    HW250459  10.962   3.941   0.565 -0.4188 -0.5941 -0.1553
48592SOL     OW50460   2.369   5.016   0.583 -0.4304 -0.5668  0.1692
48592SOL    HW150461   2.400   4.958   0.513 -1.5847 -0.9643 -0.0225
48592SOL    HW250462   2.276   4.996   0.592 -0.1128 -1.2505  2.5206
48593SOL     OW50463   8.945   2.038   9.717  0.0885  0.2935  0.5482
48593SOL    HW150464   8.853   2.039   9.693  0.4837  0.8329 -1.1428
48593SOL    HW250465   8.986   2.099   9.655  1.7134 -0.6638  0.6096
48594SOL     OW50466   1.409   4.749   3.112  0.3290  0.0541  0.1813
48594SOL    HW150467   1.336   4.703   3.155  0.1127 -1.6094 -1.8023
48594SOL    HW250468   1.378   4.763   3.023  1.9152  0.6215 -0.3026
48595SOL     OW50469   8.721   8.778  10.527  0.1111 -0.1876 -0.7887
48595SOL    HW150470   8.658   8.835  10.570  0.4821  0.4919 -1.1326
48595SOL    HW250471   8.690   8.770  10.437 -0.0417 -0.6929 -0.6993
48596SOL     OW50472   5.889   4.466  10.891  0.6698  0.3372  0.1721
48596SOL    HW150473   5.861   4.557  10.906  0.9686  0.3042  1.0363
48596SOL    HW250474   5.903   4.460  10.797 -1.7983  0.4758 -0.2643
48597SOL     OW50475   1.198   8.000   1.797 -0.1556  0.5590  0.1968
48597SOL    HW150476   1.186   8.003   1.892  0.2376  1.1473  0.2294
48597SOL    HW250477   1.124   8.049   1.762 -2.3265 -2.5758  0.0008
48598SOL     OW50478   5.397   0.912   5.827 -0.2957 -0.0547 -0.1365
48598SOL    HW150479   5.365   0.937   5.741  0.1600  1.2346  0.0489
48598SOL    HW250480   5.439   0.991   5.861  1.0016 -1.0161  0.5848
48599SOL     OW50481   2.521   8.741  11.209 -0.0777  0.1258  0.0150
48599SOL    HW150482   2.576   8.730  11.287  0.6700  0.1338 -0.4964
48599SOL    HW250483   2.530   8.658  11.162 -1.0765 -0.1394  0.2665
48600SOL     OW50484   8.846   0.862   3.351  0.0935 -0.2089 -0.3622
48600SOL    HW150485   8.800   0.861   3.267  1.9101 -0.5512 -1.3882
48600SOL    HW250486   8.920   0.802   3.339  0.4117 -0.2352  1.4763
48601SOL     OW50487   8.053   3.320   8.299  0.1765 -0.3393  0.1543
48601SOL    HW150488   8.093   3.261   8.236  0.5578 -0.6437  0.6739
48601SOL    HW250489   8.071   3.280   8.384 -0.3352  0.0632  0.4540
48602SOL     OW50490  10.715   9.938  11.219  0.5763 -0.0332 -0.5678
48602SOL    HW150491  10.633   9.941  11.170  0.9161 -0.0858 -1.1374
48602SOL    HW250492  10.707  10.009  11.282 -0.8598 -1.4029  0.9147
48603SOL     OW50493   5.230  11.350  10.498 -0.7281  0.2584 -0.2852
48603SOL    HW150494   5.294  11.378  10.433 -0.2300  0.8076  0.4313
48603SOL    HW250495   5.239  11.254  10.501 -0.1829  0.3039 -0.4373
48604SOL     OW50496   7.836   0.507  11.170 -0.5591  0.4344  0.7080
48604SOL    HW150497   7.785   0.578  11.210  0.1571  0.4066  1.6932
48604SOL    HW250498   7.851   0.536  11.080 -1.0760  1.1037  0.8328
48605SOL     OW50499   2.231   6.032   2.768 -0.2986 -0.2082 -0.0632
48605SOL    HW150500   2.167   6.001   2.833 -0.5780 -1.2440 -0.7985
48605SOL    HW250501   2.186   6.024   2.684 -0.3421  2.1683 -0.3367
48606SOL     OW50502  11.126   1.950   1.133 -0.3667 -0.6561  0.1825
48606SOL    HW150503  11.142   1.959   1.227  0.1884 -0.8494  0.1148
48606SOL    HW250504  11.212   1.966   1.093 -0.5811 -0.6647 -0.2833
48607SOL     OW50505  10.142   2.781  11.350 -0.2951 -0.5787  0.2206
48607SOL    HW150506  10.125   2.874  11.330 -4.6377 -0.7327  2.1044
48607SOL    HW250507  10.235   2.778  11.370  0.1126  3.2993 -0.2728
48608SOL     OW50508   9.765   8.083   4.241 -0.8085  0.1864 -0.2628
48608SOL    HW150509   9.671   8.070   4.231 -0.6768 -0.8845 -0.2202
48608SOL    HW250510   9.795   8.005   4.288 -0.3154  1.7152  2.1382
48609SOL     OW50511   5.971   0.265   5.895  0.6266  0.2971  0.3301
48609SOL    HW150512   5.901   0.287   5.834 -0.3452 -0.6675  1.0449
48609SOL    HW250513   5.928   0.261   5.981  2.2287  3.2301  1.4353
48610SOL     OW50514   2.215   7.014  11.349 -0.4549 -0.0721  0.6971
48610SOL    HW150515   2.296   7.045  11.388  1.6978 -1.5901 -2.1903
48610SOL    HW250516   2.232   6.923  11.325 -2.4553 -0.0197 -1.3380
48611SOL     OW50517   4.527   1.354   2.588  0.5607  0.5109  0.1636
48611SOL    HW150518   4.596   1.288   2.580 -0.3787 -0.4292 -0.6445
48611SOL    HW250519   4.500   1.371   2.498 -1.3898 -0.4388  0.5002
48612SOL     OW50520  11.203   4.222  10.440 -0.0908 -0.0103  0.4458
48612SOL    HW150521  11.130   4.281  10.422  0.6757  0.9332  0.3362
48612SOL    HW250522  11.273   4.253  10.382 -0.2937 -2.3180 -1.1825
48613SOL     OW50523   4.475   3.546  10.462  0.6650 -0.4766 -0.3537
48613SOL    HW150524   4.419   3.610  10.506  0.6484 -1.5496  1.2726
48613SOL    HW250525   4.557   3.592  10.447  0.1138  0.4172 -0.7021
48614SOL     OW50526   1.275   3.328  10.867 -0.0436  0.2587  0.2022
48614SOL    HW150527   1.202   3.386  10.848  0.2683  0.6640  0.2278
48614SOL    HW250528   1.239   3.239  10.858 -0.7500  0.4483  1.0288
48615SOL     OW50529   6.472   2.132   7.401 -0.6311 -0.3978 -0.4595
48615SOL    HW150530   6.539   2.063   7.402 -0.2466 -0.0457  1.3910
48615SOL    HW250531   6.389   2.084   7.396 -0.3874 -1.0549  1.1643
48616SOL     OW50532   7.631   0.170   6.085 -0.1313 -0.2988 -0.7410
48616SOL    HW150533   7.571   0.141   6.015 -1.4689  1.9592 -0.6133
48616SOL    HW250534   7.587   0.245   6.124  2.0565  0.3958  0.4979
48617SOL     OW50535   1.385   7.867   5.303 -0.4096 -0.4609 -0.2903
48617SOL    HW150536   1.478   7.861   5.283  0.0327  0.4473  1.3079
48617SOL    HW250537   1.351   7.934   5.244  0.0716 -0.3781 -0.4721
48618SOL     OW50538   3.447   9.970   8.592  0.0027  0.1945  0.4629
48618SOL    HW150539   3.399   9.994   8.513  0.4365 -0.2695  0.0529
48618SOL    HW250540   3.508  10.043   8.607 -1.2423  1.0965  1.3524
48619SOL     OW50541   8.192   9.400   9.741  0.0523  0.1085  0.4939
48619SOL    HW150542   8.175   9.380   9.833 -0.3328  0.6084  0.5367
48619SOL    HW250543   8.182   9.495   9.735 -1.0304 -0.0379 -0.2810
48620SOL     OW50544   6.879   8.322   0.974  0.0894  0.1166 -0.1106
48620SOL    HW150545   6.888   8.297   0.882  0.4310 -2.8446  0.6470
48620SOL    HW250546   6.949   8.274   1.019 -1.3883 -0.1967  1.9734
48621SOL     OW50547   7.145   9.838   2.760  0.1806  0.3021 -0.0012
48621SOL    HW150548   7.155   9.930   2.733 -0.6388  0.8108  1.3290
48621SOL    HW250549   7.119   9.793   2.679  1.8390  0.9758 -0.9707
48622SOL     OW50550   4.457   5.772   7.881  0.0669 -0.4373 -0.4291
48622SOL    HW150551   4.369   5.769   7.918 -0.0675  0.2864 -0.6854
48622SOL    HW250552   4.515   5.761   7.956 -0.2208  0.2997 -0.0900
48623SOL     OW50553   9.333   8.497   8.268  0.3610  0.2714  0.0759
48623SOL    HW150554   9.401   8.462   8.210 -0.4692 -1.6987  0.2180
48623SOL    HW250555   9.315   8.584   8.234  0.8244 -0.3308 -1.8313
48624SOL     OW50556   3.823  11.280   6.552  0.4211  0.7101 -0.3008
48624SOL    HW150557   3.899  11.227   6.573  1.2468  1.0564 -2.2264
48624SOL    HW250558   3.800  11.255   6.462 -1.3940  1.0239  0.0385
48625SOL     OW50559  11.344   5.462   7.257 -0.0102  0.2822  0.4446
48625SOL    HW150560  11.310   5.376   7.282 -2.6102  0.9000 -0.6632
48625SOL    HW250561  11.419   5.476   7.316  2.1246 -3.7031 -0.9422
48626SOL     OW50562   4.139   7.863  11.184  0.0992 -0.2818 -0.3399
48626SOL    HW150563   4.157   7.948  11.226 -1.0153  0.0717 -0.5457
48626SOL    HW250564   4.107   7.886  11.097  2.1355 -0.9986 -1.3313
48627SOL     OW50565   7.118   9.165   5.833 -0.0178  0.0239 -0.3483
48627SOL    HW150566   7.125   9.155   5.739  1.0728 -0.3366 -0.2351
48627SOL    HW250567   7.168   9.244   5.853 -0.6385  0.3687 -0.1203
48628SOL     OW50568   9.770   4.122   6.837 -0.2544 -0.4775  0.0927
48628SOL    HW150569   9.728   4.184   6.897 -0.0200 -1.1006  0.9187
48628SOL    HW250570   9.786   4.173   6.758  1.0153  0.8872  1.1519
48629SOL     OW50571  11.138   5.573   8.827 -0.2099  0.1646  0.6710
48629SOL    HW150572  11.073   5.503   8.822  0.0755 -0.0877  0.4187
48629SOL    HW250573  11.101   5.637   8.887 -1.2182  0.5817 -0.3678
48630SOL     OW50574   3.819   6.205   6.008 -0.5072 -0.0943 -0.3360
48630SOL    HW150575   3.908   6.172   5.995 -0.3513  0.6600 -1.3132
48630SOL    HW250576   3.827   6.275   6.072 -0.6643 -1.1168  0.8427
48631SOL     OW50577   6.711   6.696   8.038 -0.1576  0.3719  0.1634
48631SOL    HW150578   6.797   6.729   8.066 -0.6100  1.5214  0.2607
48631SOL    HW250579   6.687   6.751   7.964 -0.3081 -0.7137 -0.6192
48632SOL     OW50580   1.765   6.918  11.047 -0.4232 -0.1535  0.2600
48632SOL    HW150581   1.732   6.837  11.087  0.4064 -0.0101  1.2615
48632SOL    HW250582   1.741   6.910  10.955 -0.7162 -1.3561  0.4218
48633SOL     OW50583   3.183   8.498   7.881  0.4225 -0.1856  0.6084
48633SOL    HW150584   3.119   8.564   7.907 -2.0014 -1.1170 -2.3929
48633SOL    HW250585   3.263   8.547   7.862 -1.0722  1.8343 -0.8083
48634SOL     OW50586   5.005   8.657   2.156 -0.3755 -0.6374  0.0616
48634SOL    HW150587   4.950   8.590   2.115  0.0282 -0.9136 -0.0346
48634SOL    HW250588   4.944   8.726   2.181 -0.7547 -0.9013 -0.1245
48635SOL     OW50589   3.463   0.304   9.435  0.3330  0.5013 -0.2039
48635SOL    HW150590   3.409   0.287   9.357  0.0473  1.1201 -0.1500
48635SOL    HW250591   3.402   0.292   9.508  1.0239 -1.8886  0.0699
48636SOL     OW50592   7.755   0.251  10.893 -0.1387  0.1952  0.4683
48636SOL    HW150593   7.702   0.310  10.839 -0.9307 -0.4315  0.5437
48636SOL    HW250594   7.790   0.308  10.962  0.6124  0.9318 -0.4933
48637SOL     OW50595   2.737   7.520   2.146 -0.1593 -0.1911  0.0516
48637SOL    HW150596   2.798   7.476   2.205  0.6306  0.1948 -0.4782
48637SOL    HW250597   2.658   7.532   2.200 -0.0630 -1.3903  0.4951
48638SOL     OW50598   4.904  11.655   5.427  0.1342 -0.6611  0.0543
48638SOL    HW150599   4.885  11.667   5.333  0.4296  1.5545  0.2186
48638SOL    HW250600   4.863  11.731   5.469  0.9950 -1.0070  1.5809
48639SOL     OW50601   6.001   1.480   9.404  0.8072  0.1424 -0.5526
48639SOL    HW150602   5.949   1.532   9.343  2.6463  1.7622 -0.8714
48639SOL    HW250603   5.973   1.390   9.391 -0.9564  0.8050 -1.6004
48640SOL     OW50604   8.991   3.252   4.792 -0.1123  0.3680 -0.5798
48640SOL    HW150605   8.926   3.319   4.814 -2.9646 -2.8532  1.8814
48640SOL    HW250606   8.947   3.197   4.727  0.9123 -0.8187 -0.3064
48641SOL     OW50607   2.821   9.148   1.828  0.3891 -0.3569  0.0866
48641SOL    HW150608   2.731   9.121   1.811  0.0434 -0.1593  1.4779
48641SOL    HW250609   2.869   9.124   1.749 -0.8601 -0.5686 -0.6221
48642SOL     OW50610  10.372  10.392   2.136 -0.4626 -0.3863  0.2022
48642SOL    HW150611  10.321  10.471   2.153 -0.3912 -0.5411  1.1522
48642SOL    HW250612  10.353  10.335   2.210 -1.9722 -2.0219 -1.3254
48643SOL     OW50613   3.254   3.646   0.540  0.7256 -0.3006 -0.0737
48643SOL    HW150614   3.306   3.724   0.520 -0.7238  0.5151 -0.9130
48643SOL    HW250615   3.278   3.583   0.473  1.0999 -0.1561 -0.0745
48644SOL     OW50616   4.658   4.037  10.229  0.2864  0.2639  0.5681
48644SOL    HW150617   4.682   4.064  10.140 -0.5924  0.7331  0.4677
48644SOL    HW250618   4.706   3.955  10.242 -1.4835 -1.1933 -1.2889
48645SOL     OW50619   6.510   3.605   7.491  0.4668  0.1348 -0.2248
48645SOL    HW150620   6.425   3.579   7.526  1.4970 -1.6704  1.1641
48645SOL    HW250621   6.512   3.567   7.403 -0.5893  1.2079 -0.7293
48646SOL     OW50622   1.514   8.190  10.047 -0.0187 -0.4415  0.0187
48646SOL    HW150623   1.592   8.210   9.994  0.6332  0.4423  1.2604
48646SOL    HW250624   1.534   8.225  10.134 -1.4006 -1.1138  0.6464
48647SOL     OW50625   3.329   6.878   3.257 -0.0326  0.4785  0.4284
48647SOL    HW150626   3.349   6.952   3.200 -3.1068  1.2647  0.2299
48647SOL    HW250627   3.280   6.916   3.330 -0.4818 -1.1752  1.0317
48648SOL     OW50628   7.208   3.774   6.749  0.3162  0.3958 -0.3798
48648SOL    HW150629   7.263   3.819   6.814  0.1969 -0.0874  0.0637
48648SOL    HW250630   7.210   3.682   6.775 -1.7809  0.5287  0.4487
48649SOL     OW50631   4.372   3.039  10.413  0.1353 -0.0353 -0.5765
48649SOL    HW150632   4.310   2.987  10.362 -1.1432 -0.4255  1.2862
48649SOL    HW250633   4.330   3.051  10.498  0.4597  3.8927 -0.7767
48650SOL     OW50634  11.162   3.058   5.869  0.2763  0.0934  0.2981
48650SOL    HW150635  11.153   3.115   5.945  0.6095  0.0559  0.3674
48650SOL    HW250636  11.072   3.031   5.848  0.0286  1.2669 -0.2256
48651SOL     OW50637   5.871   5.104   2.307  0.1513 -0.4087 -0.1943
48651SOL    HW150638   5.783   5.095   2.344  1.1149  1.6977  3.0968
48651SOL    HW250639   5.863   5.174   2.242 -0.2496  1.6871  1.9793
48652SOL     OW50640   2.138   9.670   9.095 -0.6479  0.2419 -0.4860
48652SOL    HW150641   2.211   9.615   9.126 -0.6437  1.2020  1.3364
48652SOL    HW250642   2.148   9.671   9.000  1.9021  0.5557 -0.2874
48653SOL     OW50643   8.515   5.290   5.621 -0.1643 -0.0957 -0.6158
48653SOL    HW150644   8.576   5.333   5.561 -0.4751 -0.7184 -1.3971
48653SOL    HW250645   8.492   5.209   5.577  0.2615 -0.9939  0.7305
48654SOL     OW50646  11.906   8.831  10.775 -0.4347  0.3965  0.6206
48654SOL    HW150647  11.840   8.799  10.837 -1.2259  1.4000  0.3081
48654SOL    HW250648  11.866   8.818  10.689  0.6904 -1.0665  0.2651
48655SOL     OW50649   7.691  11.341   9.302 -0.2620  0.3120  0.0812
48655SOL    HW150650   7.759  11.396   9.340 -1.1786  0.5078  1.5186
48655SOL    HW250651   7.631  11.324   9.374  0.2551 -3.0626 -0.1319
48656SOL     OW50652   9.488   7.134   4.766  0.2998 -0.4285  0.4083
48656SOL    HW150653   9.542   7.175   4.698  0.6600 -0.1290  0.8605
48656SOL    HW250654   9.453   7.208   4.816  0.1004 -0.6464  0.5922
48657SOL     OW50655   6.215   4.817   0.114 -0.1491  0.5553 -0.5585
48657SOL    HW150656   6.205   4.725   0.093  0.2132  0.6819 -1.3313
48657SOL    HW250657   6.230   4.819   0.209  3.1179 -0.4898 -0.9077
48658SOL     OW50658   4.350  11.024   4.839 -0.4118  0.0054  0.0623
48658SOL    HW150659   4.321  11.069   4.918 -0.2330 -2.2282  1.5065
48658SOL    HW250660   4.270  10.988   4.801 -0.4005  0.4125 -0.3609
48659SOL     OW50661   0.904  10.371   7.381 -0.5686  0.0181 -0.2267
48659SOL    HW150662   0.942  10.339   7.299  0.2409 -1.5249  0.7013
48659SOL    HW250663   0.830  10.312   7.398 -1.7571  1.3321 -0.6356
48660SOL     OW50664   5.043   1.954  11.780  0.5639 -0.1700  0.3295
48660SOL    HW150665   5.035   1.937  11.686  1.3714 -1.4822  0.4613
48660SOL    HW250666   5.052   1.867  11.819  0.5778  0.3742  1.5901
48661SOL     OW50667   1.805  10.816   8.573 -0.5272  0.4353 -0.2766
48661SOL    HW150668   1.791  10.814   8.478 -3.2947  0.3937  0.0485
48661SOL    HW250669   1.852  10.735   8.592  0.5859  0.7198 -1.6526
48662SOL     OW50670   3.563  10.535  10.452 -0.6904 -0.1490  0.1569
48662SOL    HW150671   3.620  10.518  10.528 -0.5946 -1.7536 -0.2329
48662SOL    HW250672   3.525  10.621  10.469  0.5133  0.1898  1.2779
48663SOL     OW50673  10.204   6.022   7.967  0.0379 -0.4680 -0.4301
48663SOL    HW150674  10.264   5.991   8.034  1.2106  0.0429 -1.2191
48663SOL    HW250675  10.132   5.958   7.967  0.1358 -0.6092  1.1141
48664SOL     OW50676   8.585   1.877   9.172 -0.7764 -0.2691 -0.4803
48664SOL    HW150677   8.664   1.881   9.118  0.1219 -1.0638  0.7236
48664SOL    HW250678   8.513   1.890   9.110  0.2823  0.4434 -1.6113
48665SOL     OW50679   8.583   8.815   8.862 -0.1505 -0.2697  0.9168
48665SOL    HW150680   8.602   8.858   8.779 -1.9252  0.0132  0.6155
48665SOL    HW250681   8.601   8.881   8.929  1.0280 -0.4143  0.7672
48666SOL     OW50682   0.335   3.870   7.634 -0.0506  0.2826 -0.3650
48666SOL    HW150683   0.270   3.915   7.687 -0.2313 -0.5045  0.0966
48666SOL    HW250684   0.398   3.836   7.697  0.2883  0.2168 -0.7346
48667SOL     OW50685   5.059   9.890   6.364 -0.3655 -0.1516  0.0077
48667SOL    HW150686   4.968   9.915   6.348 -0.4141  1.2170  2.1549
48667SOL    HW250687   5.057   9.846   6.449  0.9432 -0.3782 -0.0610
48668SOL     OW50688  11.949   8.483   6.337 -0.2807  0.0158 -0.1622
48668SOL    HW150689  11.970   8.405   6.287  1.1044  0.2869 -0.0395
48668SOL    HW250690  12.033   8.526   6.351 -0.8633  0.8568  0.8893
48669SOL     OW50691   5.723   0.044   5.791  0.7825 -0.1132  0.0310
48669SOL    HW150692   5.730   0.140   5.791  1.6331 -0.1648  0.2813
48669SOL    HW250693   5.718   0.020   5.883 -0.4813 -0.2560 -0.0634
48670SOL     OW50694  11.544   4.936  10.196 -0.6495  0.1231 -0.3365
48670SOL    HW150695  11.531   4.904  10.285  1.3410  0.8517  0.2782
48670SOL    HW250696  11.517   5.028  10.199 -1.9685 -0.2229 -0.8959
48671SOL     OW50697  11.203   9.645   9.054 -0.5446  0.1148  0.0297
48671SOL    HW150698  11.273   9.621   9.114 -0.6606 -0.9999 -0.2557
48671SOL    HW250699  11.160   9.720   9.095 -0.3485 -0.3551  1.1066
48672SOL     OW50700  11.807   8.366   2.644  0.1274  0.7098  0.4881
48672SOL    HW150701  11.745   8.423   2.690  1.8459  1.9398  1.3637
48672SOL    HW250702  11.777   8.278   2.665 -0.8608  1.2639  1.5527
48673SOL     OW50703   7.252   5.204   1.247  0.0218  0.0246 -0.0179
48673SOL    HW150704   7.285   5.197   1.157  0.1460  0.0691  0.0237
48673SOL    HW250705   7.279   5.291   1.275  0.0505 -0.0185  0.0888
48674SOL     OW50706   7.413   3.561   2.728  0.5172 -0.2754 -0.6506
48674SOL    HW150707   7.360   3.641   2.731 -0.5325 -0.9724  1.2915
48674SOL    HW250708   7.502   3.591   2.715  0.0444  1.1591 -0.7514
48675SOL     OW50709   5.343   1.465   8.673 -0.1120  0.4855  0.2102
48675SOL    HW150710   5.370   1.475   8.764 -2.1592  0.8937  0.8286
48675SOL    HW250711   5.262   1.413   8.677 -1.0726  1.7623 -1.2151
48676SOL     OW50712   9.423   7.447   5.671  0.7176 -0.1396  0.0308
48676SOL    HW150713   9.444   7.421   5.761  1.5202  2.4108  0.6613
48676SOL    HW250714   9.449   7.539   5.666  1.2533 -0.3608 -3.0151
48677SOL     OW50715   2.256  10.163   0.067 -0.4026  0.2356 -0.3351
48677SOL    HW150716   2.217  10.192   0.149 -1.4908  0.6819 -0.9985
48677SOL    HW250717   2.345  10.198   0.070  0.3102 -1.5311  1.5854
48678SOL     OW50718   9.826   5.035   9.023 -0.2443 -0.2794  0.1115
48678SOL    HW150719   9.732   5.017   9.018 -0.6783  1.6745  0.4045
48678SOL    HW250720   9.865   4.951   9.047 -2.2055 -0.5526  2.8656
48679SOL     OW50721   8.826   2.800   7.409  0.2248  0.7329  0.5997
48679SOL    HW150722   8.900   2.858   7.427  0.2949  1.4055 -1.5751
48679SOL    HW250723   8.865   2.714   7.397  0.3637  0.6216  1.7885
48680SOL     OW50724   7.711  10.800   7.674  0.1374  0.5052  0.0081
48680SOL    HW150725   7.756  10.768   7.596  0.2589 -0.3608  0.4236
48680SOL    HW250726   7.767  10.773   7.747 -1.2614 -1.0460  0.5776
48681SOL     OW50727  10.753   1.687   3.609 -0.2140 -0.0498  0.0662
48681SOL    HW150728  10.743   1.682   3.514  1.5300 -0.3954 -0.1415
48681SOL    HW250729  10.739   1.597   3.639 -3.1746  0.4682  0.4705
48682SOL     OW50730   1.412   0.944   1.785  0.0393 -0.3577  0.3630
48682SOL    HW150731   1.491   0.891   1.788  0.3080  0.0570  0.7384
48682SOL    HW250732   1.414   0.995   1.866 -1.0039 -0.8940  0.7338
48683SOL     OW50733   2.917   1.874   9.096  0.1319  0.0030 -0.1512
48683SOL    HW150734   2.887   1.784   9.102 -2.0994  0.6622 -0.6558
48683SOL    HW250735   2.949   1.895   9.184  0.7979 -1.2885 -0.0692
48684SOL     OW50736   6.985   9.824   9.499 -0.1545 -0.1312  0.4791
48684SOL    HW150737   6.950   9.906   9.465  1.1687  0.4901  0.5579
48684SOL    HW250738   7.059   9.803   9.442  0.0015 -0.8577  0.9346
48685SOL     OW50739   7.775   7.888   0.650  0.2699 -0.3200  0.1805
48685SOL    HW150740   7.752   7.822   0.584  1.7987 -0.5455 -0.1834
48685SOL    HW250741   7.692   7.925   0.678 -0.4442 -0.4288 -1.6737
48686SOL     OW50742   5.321   8.421   0.489  0.0092  0.1241 -0.2061
48686SOL    HW150743   5.256   8.411   0.559 -0.9454 -0.5273 -1.1572
48686SOL    HW250744   5.401   8.382   0.524  0.1640  1.6498  1.2884
48687SOL     OW50745   8.183   2.520   9.519  0.5861 -0.6420 -0.0886
48687SOL    HW150746   8.099   2.539   9.561  0.0953  0.5321 -1.5116
48687SOL    HW250747   8.229   2.464   9.581 -0.6805 -0.1549  1.3466
48688SOL     OW50748   3.972   9.092  10.820  0.0829 -0.0682 -0.1852
48688SOL    HW150749   3.896   9.068  10.767 -0.1049 -1.3306  0.6194
48688SOL    HW250750   3.970   9.188  10.822 -1.0943 -0.0603 -0.7366
48689SOL     OW50751   9.317   5.696   8.513 -0.4480  0.5440  0.4457
48689SOL    HW150752   9.412   5.688   8.524 -0.5394 -0.3553  0.6511
48689SOL    HW250753   9.307   5.759   8.442  0.3217  0.0956 -0.0785
48690SOL     OW50754   0.056   8.922   2.934  0.3642 -0.2223 -0.2691
48690SOL    HW150755   0.113   8.971   2.993  0.1816 -0.3794  0.0448
48690SOL    HW250756  -0.030   8.965   2.943  0.6044  0.5356 -1.3598
48691SOL     OW50757  11.705   5.360   4.978  0.2098  0.1384  0.0066
48691SOL    HW150758  11.622   5.382   4.936 -0.0280 -0.3890  0.1914
48691SOL    HW250759  11.767   5.424   4.943 -0.1124  0.0848 -0.6776
48692SOL     OW50760  10.137   0.135   9.434 -0.0341  0.4211  0.3993
48692SOL    HW150761  10.045   0.113   9.445  0.3213 -2.1000 -0.7829
48692SOL    HW250762  10.141   0.182   9.351 -0.4281  2.0898  1.3027
48693SOL     OW50763   2.497   8.220   1.675 -0.8251  0.3085 -0.3245
48693SOL    HW150764   2.427   8.282   1.698 -1.0683  0.1898 -0.7380
48693SOL    HW250765   2.565   8.275   1.636 -0.5996  0.4514  0.2569
48694SOL     OW50766   3.807   1.903   2.845  0.3766  0.4884 -0.1324
48694SOL    HW150767   3.734   1.856   2.806  0.1781  1.1397 -0.5642
48694SOL    HW250768   3.881   1.843   2.837 -0.0041  0.0157 -0.1321
48695SOL     OW50769  11.590   5.169   7.248  0.1845  0.8973  0.0065
48695SOL    HW150770  11.625   5.180   7.336  1.5466  0.3750 -0.4473
48695SOL    HW250771  11.498   5.147   7.261  0.7400 -0.8037  1.3597
48696SOL     OW50772   6.925   4.571   8.948 -0.1571  0.2049  0.1779
48696SOL    HW150773   6.911   4.639   8.881  0.3262 -1.0740 -1.2793
48696SOL    HW250774   6.841   4.527   8.956  0.0339 -0.2708 -0.3372
48697SOL     OW50775   6.259   5.611   5.793 -0.0270  0.2376  0.0221
48697SOL    HW150776   6.206   5.586   5.718  1.0594  1.8373 -1.3801
48697SOL    HW250777   6.197   5.648   5.856 -0.6000  3.7492 -2.2928
48698SOL     OW50778   8.893  10.228   5.236 -0.2916 -0.0791  0.0309
48698SOL    HW150779   8.862  10.158   5.178  1.4343 -1.3381  0.5571
48698SOL    HW250780   8.826  10.234   5.304 -0.7040 -0.8721 -0.2928
48699SOL     OW50781  10.301   3.765   8.216  0.0026 -0.4351 -0.3817
48699SOL    HW150782  10.290   3.691   8.155 -2.9835 -0.5780  0.1687
48699SOL    HW250783  10.306   3.724   8.302 -0.0371 -0.0730 -0.2071
48700SOL     OW50784  10.865   7.334  11.416  1.1541  0.3012 -0.4504
48700SOL    HW150785  10.944   7.369  11.456  0.5562  0.4296  0.6616
48700SOL    HW250786  10.826   7.408  11.370  0.9259  0.6222  0.2396
48701SOL     OW50787  11.431   8.117   0.369  0.6422  0.0002  0.3491
48701SOL    HW150788  11.453   8.028   0.340  0.5477 -0.5291  1.8604
48701SOL    HW250789  11.345   8.135   0.330 -0.1176 -1.2348  1.4103
48702SOL     OW50790   2.126  10.314   9.334 -0.1066 -0.2139 -0.1450
48702SOL    HW150791   2.164  10.252   9.271 -0.8929 -1.7524  0.8148
48702SOL    HW250792   2.152  10.279   9.420 -1.6211  0.0542  0.4571
48703SOL     OW50793   4.314   3.895   2.345  0.0693  0.2090  0.0548
48703SOL    HW150794   4.358   3.878   2.262 -1.3286  0.1431 -0.7155
48703SOL    HW250795   4.312   3.811   2.389 -0.6493 -0.1542 -0.6236
48704SOL     OW50796  10.111   6.823   8.527 -0.1827  0.5494  0.1047
48704SOL    HW150797  10.154   6.822   8.613  0.7460 -1.3670 -0.3348
48704SOL    HW250798  10.172   6.869   8.470  0.3264 -0.2912 -0.0428
48705SOL     OW50799   0.200   2.455  10.622 -0.8150 -0.5855 -0.1699
48705SOL    HW150800   0.186   2.478  10.713  1.3876 -1.1659  0.3807
48705SOL    HW250801   0.190   2.538  10.574  0.2161  0.1905  0.9027
48706SOL     OW50802  10.664  10.623  10.392 -0.1308  0.1127 -0.5989
48706SOL    HW150803  10.601  10.572  10.342 -1.5099  0.8051  0.3791
48706SOL    HW250804  10.612  10.693  10.433  1.1924  0.4554  0.5799
48707SOL     OW50805   7.125   4.176   2.042  0.1475  0.4289  0.0447
48707SOL    HW150806   7.042   4.221   2.058  0.4773  0.6833  1.1464
48707SOL    HW250807   7.149   4.199   1.952 -2.4856 -2.1125 -1.4587
48708SOL     OW50808   3.205   5.495   9.707 -0.0092 -0.1803 -0.1785
48708SOL    HW150809   3.279   5.466   9.654 -0.5502  0.7951 -1.5360
48708SOL    HW250810   3.128   5.483   9.650 -0.8895 -0.9969  1.1249
48709SOL     OW50811   4.661   6.316  10.750  0.3232 -0.3500 -0.2624
48709SOL    HW150812   4.629   6.226  10.752  0.3531 -0.3572  1.5734
48709SOL    HW250813   4.751   6.308  10.720  0.3672 -0.9643  0.0088
48710SOL     OW50814   0.860   2.603  11.581 -0.1096  0.6719 -0.1693
48710SOL    HW150815   0.940   2.640  11.618 -0.2321  0.5872  0.1820
48710SOL    HW250816   0.885   2.516  11.551 -0.2892  0.2597  0.8191
48711SOL     OW50817   1.508   8.209   5.035 -0.3484 -0.4195  0.1100
48711SOL    HW150818   1.501   8.293   4.989  0.4632 -1.1260 -1.3560
48711SOL    HW250819   1.519   8.144   4.965 -0.2413 -1.6703  1.2555
48712SOL     OW50820   4.305  11.942  10.057 -0.0304 -0.2359 -0.5498
48712SOL    HW150821   4.292  11.851  10.031 -1.8749  0.1813 -1.2315
48712SOL    HW250822   4.381  11.970  10.006 -0.0578 -1.1143 -1.1084
48713SOL     OW50823   1.835   9.039   1.686  0.3207 -0.3512 -0.6965
48713SOL    HW150824   1.868   9.093   1.758 -0.2698 -0.9835  0.0595
48713SOL    HW250825   1.903   9.046   1.618  0.6237  0.6984 -0.3095
48714SOL     OW50826   6.941   4.966   9.372 -0.0727 -0.4415 -0.8464
48714SOL    HW150827   6.942   4.905   9.445 -0.3802 -1.0969 -1.3749
48714SOL    HW250828   7.008   5.031   9.393 -1.2130  0.2819  0.7453
48715SOL     OW50829   2.431   2.652  11.047  0.0475  0.3143 -0.3243
48715SOL    HW150830   2.476   2.693  10.973  0.2608  0.3971 -0.1499
48715SOL    HW250831   2.416   2.724  11.109 -0.9321  0.4238 -0.6667
48716SOL     OW50832  10.521  10.716   4.201  0.0526 -0.0860 -0.1602
48716SOL    HW150833  10.542  10.788   4.141  0.2078 -0.2475 -0.3031
48716SOL    HW250834  10.582  10.647   4.176  0.6076  0.0880  0.6458
48717SOL     OW50835   6.062   7.773   4.386  0.4218  0.0488 -0.2182
48717SOL    HW150836   6.088   7.722   4.309 -1.0917  0.8098 -1.2779
48717SOL    HW250837   6.026   7.854   4.350 -1.1254  0.0623  1.2478
48718SOL     OW50838   4.665   0.972   0.569 -0.1808 -0.1963  0.4149
48718SOL    HW150839   4.674   1.056   0.614 -2.6325  0.8418 -0.8218
48718SOL    HW250840   4.571   0.952   0.573  0.2958 -2.8057  0.4934
48719SOL     OW50841   1.758   7.848   3.750  0.0381  1.0646 -0.4949
48719SOL    HW150842   1.761   7.865   3.844 -0.2696  0.5446 -0.3883
48719SOL    HW250843   1.842   7.879   3.717  0.0956  1.3728 -0.0734
48720SOL     OW50844   4.818  11.949   0.339 -0.0766  0.3370 -0.0905
48720SOL    HW150845   4.818  11.976   0.431 -1.9881  0.5356 -0.1076
48720SOL    HW250846   4.853  11.860   0.340  3.4753  1.5471  0.3257
48721SOL     OW50847   8.427   1.636   9.598  0.8198 -0.0696 -0.3942
48721SOL    HW150848   8.415   1.542   9.591  2.9904 -0.3176 -1.8180
48721SOL    HW250849   8.401   1.671   9.513  0.1470  0.6063  0.0784
48722SOL     OW50850   8.975   9.005   8.638 -0.4546  0.6337 -0.1323
48722SOL    HW150851   9.015   8.981   8.554 -0.1869  1.0930 -0.1372
48722SOL    HW250852   9.017   8.947   8.701  1.5677  2.2831  0.1458
48723SOL     OW50853   3.649   1.992   6.741 -0.1724  0.0606  0.0387
48723SOL    HW150854   3.600   1.911   6.752 -0.7371  0.5088  0.9558
48723SOL    HW250855   3.739   1.964   6.725 -0.5316 -0.7530 -0.6115
48724SOL     OW50856   1.982   0.382   4.619  0.6849  0.3864 -0.4486
48724SOL    HW150857   1.985   0.290   4.645 -1.6998  0.5795  0.7717
48724SOL    HW250858   2.028   0.428   4.689 -0.1209  0.2933  0.1649
48725SOL     OW50859   9.847   3.713   8.687  0.5654 -0.0129 -0.1008
48725SOL    HW150860   9.926   3.723   8.633  0.4688 -0.8106 -0.3990
48725SOL    HW250861   9.821   3.622   8.675  0.4212 -0.1510  1.1327
48726SOL     OW50862  11.874   9.703   0.919 -0.0484 -0.9008 -0.3030
48726SOL    HW150863  11.830   9.688   1.002 -0.1027  0.4275 -0.0813
48726SOL    HW250864  11.923   9.622   0.903 -1.7683 -2.0427 -0.0839
48727SOL     OW50865  11.813  10.880   1.451 -0.0854  0.6038  0.0799
48727SOL    HW150866  11.876  10.817   1.487  0.8436  0.7392 -1.2264
48727SOL    HW250867  11.764  10.830   1.385  1.6144  1.5079 -1.9924
48728SOL     OW50868  10.420   8.994  11.035 -0.0852  0.2963 -0.2784
48728SOL    HW150869  10.369   9.055  11.087  0.2614 -0.2870  0.7862
48728SOL    HW250870  10.413   9.026  10.945 -1.4252  0.8237  0.0010
48729SOL     OW50871   8.413   6.073   6.324 -0.3069 -0.4089  0.4714
48729SOL    HW150872   8.393   6.002   6.263  0.9663 -0.2140 -0.1860
48729SOL    HW250873   8.461   6.137   6.273 -1.0048  0.7292  1.1817
48730SOL     OW50874   1.757  11.905   6.815  0.2078  0.0912  0.0005
48730SOL    HW150875   1.774  11.814   6.791  0.5166  0.1277  0.0822
48730SOL    HW250876   1.817  11.956   6.761  3.3510  0.0345  3.0645
48731SOL     OW50877   8.754   2.470   7.549 -0.6884 -0.4061 -0.2362
48731SOL    HW150878   8.750   2.564   7.566  3.5327  0.3605 -2.0567
48731SOL    HW250879   8.815   2.437   7.615 -1.9574 -1.8671  0.2478
48732SOL     OW50880   1.617   7.819   8.529  1.0848 -0.0099  0.1810
48732SOL    HW150881   1.544   7.863   8.485  0.7475  2.3843  2.8521
48732SOL    HW250882   1.691   7.879   8.517  0.7692  1.2245  3.3617
48733SOL     OW50883   1.337   0.368   1.882 -0.3355  0.2604 -0.5481
48733SOL    HW150884   1.414   0.319   1.852  0.0465  0.6870 -0.2796
48733SOL    HW250885   1.296   0.310   1.947  0.8025  0.7920  0.6770
48734SOL     OW50886  11.016   9.933  10.202  0.1422 -0.0979  0.1047
48734SOL    HW150887  11.088   9.870  10.210  0.4369  0.2338  0.0995
48734SOL    HW250888  10.942   9.880  10.172 -0.3575 -0.9416  2.6120
48735SOL     OW50889   4.406  10.107   0.495 -1.1567  0.5673 -0.1119
48735SOL    HW150890   4.417  10.111   0.400 -1.6446  0.1676 -0.1904
48735SOL    HW250891   4.311  10.101   0.507 -1.0163 -1.3466  0.3167
48736SOL     OW50892   7.373   2.049  11.292  0.0554  0.1003  0.1978
48736SOL    HW150893   7.331   1.978  11.244 -1.4880  1.7755 -1.0635
48736SOL    HW250894   7.459   2.058  11.250 -1.3584  1.7147 -2.6540
48737SOL     OW50895   2.161   5.654   9.614 -0.1714  0.2068 -0.0304
48737SOL    HW150896   2.108   5.732   9.596  1.2335  0.8697 -1.5398
48737SOL    HW250897   2.223   5.683   9.680 -0.5801 -0.0867  0.4943
48738SOL     OW50898  11.309   3.159  11.747  0.2281  0.0796  0.2052
48738SOL    HW150899  11.225   3.162  11.792  0.5310  0.5124  0.7540
48738SOL    HW250900  11.287   3.134  11.657 -0.5318  0.5907  0.2410
48739SOL     OW50901   4.996  11.173   6.588  0.1589 -0.1806 -0.1471
48739SOL    HW150902   4.929  11.225   6.631 -1.2681 -1.6173 -0.5709
48739SOL    HW250903   4.997  11.090   6.634  1.8780 -0.1053  0.0361
48740SOL     OW50904   2.692   4.605   3.756 -0.3704  0.2715  0.2237
48740SOL    HW150905   2.760   4.549   3.794 -0.8702 -0.0541  0.6568
48740SOL    HW250906   2.739   4.681   3.722  0.1072  0.4572  1.2844
48741SOL     OW50907   5.133   9.798  11.758 -0.3843 -0.5454  0.2525
48741SOL    HW150908   5.119   9.736  11.686 -0.5056 -0.4642  0.2052
48741SOL    HW250909   5.185   9.869  11.720 -1.5542  0.1513 -0.1153
48742SOL     OW50910   1.453   2.212   0.262 -0.3644  0.6600 -0.5210
48742SOL    HW150911   1.547   2.200   0.255 -0.3003  0.1627  0.9308
48742SOL    HW250912   1.437   2.301   0.229  0.6279  0.8199 -0.5750
48743SOL     OW50913   4.695   9.178   1.071  0.7397 -0.3819 -0.4649
48743SOL    HW150914   4.655   9.106   1.022 -2.1179  1.1460 -0.5745
48743SOL    HW250915   4.694   9.149   1.162 -1.8041 -0.0004 -0.3029
48744SOL     OW50916   2.427  11.073   2.870  0.3029  0.0129 -0.2968
48744SOL    HW150917   2.496  11.009   2.851  0.3369  0.3910 -1.5030
48744SOL    HW250918   2.474  11.149   2.905  0.3656 -0.1862  0.0647
48745SOL     OW50919   7.935   7.913  11.167 -0.6440  0.5334  0.1180
48745SOL    HW150920   7.901   7.991  11.124 -2.0598 -0.7495 -1.1904
48745SOL    HW250921   8.020   7.940  11.202 -0.4743  2.2770 -1.5063
48746SOL     OW50922   8.713   5.876   9.543  0.3044  0.0512  0.0663
48746SOL    HW150923   8.748   5.964   9.561  0.7959 -0.0502 -0.3647
48746SOL    HW250924   8.645   5.890   9.477  1.5689 -0.0661 -1.3175
48747SOL     OW50925   7.486   1.300  11.504  0.8412 -0.3994 -0.2297
48747SOL    HW150926   7.427   1.340  11.568 -0.2247 -3.5927  0.9642
48747SOL    HW250927   7.434   1.233  11.461  2.9247 -1.7134 -0.8662
48748SOL     OW50928   0.493   8.262   8.296  0.8132 -0.0318  0.5196
48748SOL    HW150929   0.530   8.308   8.372 -1.3842  0.7160  1.2211
48748SOL    HW250930   0.539   8.299   8.221  2.5772 -0.3098  1.4239
48749SOL     OW50931   3.305   8.971   2.110  0.3013 -0.1853 -0.0453
48749SOL    HW150932   3.318   8.891   2.059  1.1305 -0.1791  0.1512
48749SOL    HW250933   3.320   9.042   2.048 -0.6943 -0.1693 -0.2856
48750SOL     OW50934   3.062   6.340   0.966 -0.4827  0.3471  0.3350
48750SOL    HW150935   3.013   6.320   0.887 -0.6118 -3.0552  1.1277
48750SOL    HW250936   3.006   6.309   1.038  0.5357  1.4253  1.6635
48751SOL     OW50937   7.839   6.376   8.665  0.3312 -0.6250 -0.1649
48751SOL    HW150938   7.869   6.375   8.574 -2.0394 -1.3741 -1.0294
48751SOL    HW250939   7.801   6.289   8.678 -0.8041  0.0056  0.9912
48752SOL     OW50940   3.004   0.934   1.418  0.1709 -0.5861  0.0328
48752SOL    HW150941   2.986   0.985   1.497  1.3054  1.7776 -1.1511
48752SOL    HW250942   2.972   0.988   1.346 -1.6023 -3.0424 -1.1843
48753SOL     OW50943   8.525   3.312   4.189 -0.0027  0.4982  0.3983
48753SOL    HW150944   8.491   3.321   4.100 -0.9150 -0.1187  0.6662
48753SOL    HW250945   8.569   3.227   4.190 -0.0046  0.4976  0.5391
48754SOL     OW50946   1.945   3.292   4.051  0.6856  0.5443  0.1010
48754SOL    HW150947   1.992   3.209   4.041 -2.3733 -1.4317  0.7215
48754SOL    HW250948   1.942   3.329   3.963  1.1870 -0.5515 -0.3914
48755SOL     OW50949   8.993  10.011  10.032  0.1217  0.8794  0.8938
48755SOL    HW150950   9.013  10.088   9.979  0.5718 -0.5660 -1.1460
48755SOL    HW250951   9.079   9.977  10.059 -0.0409  0.6076  1.0804
48756SOL     OW50952   8.628   4.891   2.192 -0.2070 -0.0669  0.0770
48756SOL    HW150953   8.606   4.845   2.273 -0.5911 -0.5274 -0.2879
48756SOL    HW250954   8.569   4.854   2.126  0.3096  0.0941 -0.4824
48757SOL     OW50955   6.326   7.478   4.394  0.2254 -0.3068  0.4209
48757SOL    HW150956   6.245   7.447   4.434 -0.0110 -1.5542 -0.9527
48757SOL    HW250957   6.299   7.515   4.310  1.1900 -2.2744 -0.8322
48758SOL     OW50958   1.356  10.585  11.461  0.1899  0.4082  0.3786
48758SOL    HW150959   1.360  10.667  11.509 -2.4686  0.4106  0.7683
48758SOL    HW250960   1.306  10.606  11.382  3.1376  0.0558 -1.7318
48759SOL     OW50961   1.085  11.795   7.545  0.3175 -0.0291  0.1938
48759SOL    HW150962   1.125  11.873   7.507 -1.8209  0.2849 -1.6105
48759SOL    HW250963   1.149  11.726   7.530  0.3724  0.4866 -2.3244
48760SOL     OW50964   6.754   1.464   2.642  0.0603  0.1532 -0.5435
48760SOL    HW150965   6.767   1.494   2.552 -0.6855  0.4018 -0.5684
48760SOL    HW250966   6.757   1.543   2.695  1.5857 -0.0929 -0.2098
48761SOL     OW50967  11.952   5.063  11.491  0.0566 -0.3106 -0.5542
48761SOL    HW150968  11.911   5.150  11.489  0.6122 -0.0518 -0.9580
48761SOL    HW250969  11.878   5.002  11.495 -0.3359  0.2046  2.3442
48762SOL     OW50970   0.824   7.880  10.320 -0.1617 -0.2499 -0.2873
48762SOL    HW150971   0.851   7.962  10.361 -0.6179 -0.3026  0.1324
48762SOL    HW250972   0.803   7.823  10.394  0.5563 -0.8871 -0.5627
48763SOL     OW50973   2.907   2.411   6.974 -0.0037  0.3387 -0.0516
48763SOL    HW150974   2.905   2.384   7.066 -0.1814 -1.1378 -0.4680
48763SOL    HW250975   2.957   2.343   6.930 -3.1891 -1.1500 -1.6983
48764SOL     OW50976   9.421   5.768   7.349  0.2494  0.5154 -0.2426
48764SOL    HW150977   9.462   5.835   7.294 -0.9882  0.1258 -1.7122
48764SOL    HW250978   9.339   5.808   7.378  0.3881  0.3140  0.4578
48765SOL     OW50979   4.676   6.597   4.918 -0.3281 -0.3368 -0.4253
48765SOL    HW150980   4.616   6.646   4.862 -2.4257 -0.2169  1.7510
48765SOL    HW250981   4.643   6.507   4.915  0.5485 -0.6650 -0.6164
48766SOL     OW50982   3.970  10.126   8.098 -0.0285  0.2422  0.2110
48766SOL    HW150983   3.912  10.086   8.163  0.0300 -2.9988 -1.5017
48766SOL    HW250984   4.057  10.118   8.137  0.0115 -1.7071 -0.1405
48767SOL     OW50985   7.728  11.907   3.714  0.0712  0.0711  0.4196
48767SOL    HW150986   7.706  11.904   3.621 -0.0221 -1.1382  0.4556
48767SOL    HW250987   7.784  11.830   3.727 -0.3851 -0.0957  1.4788
48768SOL     OW50988   5.914   1.469   0.711 -0.1355 -0.3096  0.5504
48768SOL    HW150989   5.827   1.480   0.672  0.5897  0.4357 -0.9101
48768SOL    HW250990   5.972   1.452   0.637  0.9449 -1.0988  1.5283
48769SOL     OW50991   9.137   9.919   6.141  0.1565 -0.3510 -0.3025
48769SOL    HW150992   9.157   9.940   6.232  0.1206 -2.1287  0.1628
48769SOL    HW250993   9.222   9.921   6.097  0.3155 -0.4616 -0.0041
48770SOL     OW50994   8.714   2.850  11.645 -0.0372  0.0797 -0.0196
48770SOL    HW150995   8.746   2.783  11.584 -1.1659  0.5442 -1.1923
48770SOL    HW250996   8.669   2.801  11.714  0.2405 -0.4175 -0.1895
48771SOL     OW50997   9.347  11.141   9.016  0.6699 -0.3496  0.7579
48771SOL    HW150998   9.357  11.236   9.012 -1.8272 -0.0311  0.1762
48771SOL    HW250999   9.334  11.122   9.109 -1.6009  0.3075  0.6295
48772SOL     OW51000   7.082   8.665   3.605 -0.0717 -0.2071  0.3451
48772SOL    HW151001   7.010   8.727   3.611  1.1682  1.4763 -1.0337
48772SOL    HW251002   7.065   8.615   3.525  0.3140  0.2676 -0.0424
48773SOL     OW51003   8.645   1.162   9.966  0.4205  0.0622  0.1025
48773SOL    HW151004   8.648   1.182  10.059 -0.2190 -1.7830  0.5601
48773SOL    HW251005   8.557   1.187   9.938  0.5378  0.4033  0.0276
48774SOL     OW51006   4.155   0.117   4.017 -0.0231 -1.0324 -0.5196
48774SOL    HW151007   4.232   0.155   4.060 -0.2929 -0.8932 -0.1447
48774SOL    HW251008   4.100   0.087   4.090  0.8669 -3.5669 -0.8149
48775SOL     OW51009   4.091   6.866  10.797  0.2626  0.1965  0.2431
48775SOL    HW151010   4.101   6.839  10.889  0.4750  1.6771  0.6808
48775SOL    HW251011   4.117   6.789  10.747  3.3530  0.3119  1.4139
48776SOL     OW51012  11.059   0.657   3.770 -0.2899 -0.4654  0.6417
48776SOL    HW151013  10.971   0.620   3.766 -0.2044 -0.6226  0.1902
48776SOL    HW251014  11.051   0.743   3.729 -0.4417 -0.0609  1.4925
48777SOL     OW51015  11.067   2.839   0.909  0.5127 -0.5431 -0.6281
48777SOL    HW151016  11.142   2.885   0.872  0.4794  0.9235  0.9857
48777SOL    HW251017  11.099   2.751   0.927  1.2162 -0.5564 -1.8602
48778SOL     OW51018   8.788  10.368   5.822 -0.3397  0.3687  0.3986
48778SOL    HW151019   8.703  10.343   5.786 -1.4878  3.8526  0.2814
48778SOL    HW251020   8.779  10.356   5.916 -0.5004 -0.3774  0.2959
48779SOL     OW51021   6.593   2.984   7.850  0.1454 -0.6910  0.6222
48779SOL    HW151022   6.523   3.047   7.833 -0.6978 -1.9474 -0.7668
48779SOL    HW251023   6.656   2.997   7.779 -0.4663 -1.9567 -0.1917
48780SOL     OW51024   4.242   7.661  10.821 -0.4048  0.8228 -0.6115
48780SOL    HW151025   4.252   7.609  10.741 -2.7397 -0.0640 -0.4112
48780SOL    HW251026   4.263   7.600  10.892 -0.2353  1.0403 -0.4728
48781SOL     OW51027   4.567   1.643   0.276 -0.4722  0.8826 -0.1958
48781SOL    HW151028   4.519   1.721   0.246  0.4663  1.7186  0.4158
48781SOL    HW251029   4.573   1.587   0.199 -1.0565  1.4748 -0.6788
48782SOL     OW51030  11.548  11.386   4.286  0.4143  0.0864 -0.3817
48782SOL    HW151031  11.576  11.367   4.375 -0.1767  1.0171  0.0257
48782SOL    HW251032  11.474  11.327   4.270 -1.2976  1.7663  0.8050
48783SOL     OW51033  10.022   2.693   5.156  0.0953 -0.7284 -0.4188
48783SOL    HW151034  10.083   2.756   5.117  0.0448 -0.0515  0.5480
48783SOL    HW251035   9.961   2.671   5.086 -0.6642  1.2896 -0.4702
48784SOL     OW51036   7.933   8.584   9.380  0.5987  0.7432 -0.7666
48784SOL    HW151037   7.901   8.518   9.441  0.1174  1.0772 -0.6551
48784SOL    HW251038   7.858   8.641   9.363  1.0003  1.2572 -0.8739
48785SOL     OW51039   1.641   8.346   8.507 -0.2200  0.2322 -0.8483
48785SOL    HW151040   1.647   8.399   8.427  0.7349  1.8897  0.2559
48785SOL    HW251041   1.551   8.359   8.537  0.0947  1.5986 -0.4014
48786SOL     OW51042   6.840   1.178   8.142 -0.4515  1.0661  0.7324
48786SOL    HW151043   6.755   1.183   8.099  1.8485  1.4391 -4.4650
48786SOL    HW251044   6.873   1.268   8.141  0.6251  0.6898  1.2645
48787SOL     OW51045   4.243   7.879   6.411 -0.3555 -0.2276 -0.3387
48787SOL    HW151046   4.219   7.897   6.502  1.1682 -1.4267  0.3441
48787SOL    HW251047   4.163   7.845   6.371 -1.1723  0.7655  0.4096
48788SOL     OW51048  10.921  11.643   5.335 -0.0861  0.3510  0.3940
48788SOL    HW151049  10.868  11.562   5.335  0.7070 -0.2936  3.0739
48788SOL    HW251050  10.901  11.685   5.252 -1.9730 -1.6900 -0.2929
48789SOL     OW51051   8.140   4.109   0.835 -0.9385 -0.3797 -0.3515
48789SOL    HW151052   8.188   4.035   0.799  0.8471  0.0137  1.1130
48789SOL    HW251053   8.135   4.092   0.929 -0.8016  1.1793 -0.0282
48790SOL     OW51054   0.637   6.640   1.268  0.0685  0.0228 -0.0352
48790SOL    HW151055   0.589   6.723   1.263 -0.5630 -0.3184  0.2380
48790SOL    HW251056   0.667   6.624   1.178 -0.3347  0.2449 -0.2122
48791SOL     OW51057   7.987   8.699   0.902  0.1400 -0.3274  0.2668
48791SOL    HW151058   7.986   8.687   0.997 -1.1716 -2.0338  0.0937
48791SOL    HW251059   7.940   8.623   0.868  0.0374  0.5657 -1.7302
48792SOL     OW51060   9.519   8.877   3.741 -0.1166  0.7195  0.2855
48792SOL    HW151061   9.474   8.815   3.683  0.1248  0.3433  0.5080
48792SOL    HW251062   9.532   8.955   3.686 -0.1111  0.4527 -0.0902
48793SOL     OW51063   1.957  10.384   4.784  0.2576 -0.1845  0.7107
48793SOL    HW151064   1.868  10.391   4.749  0.4604 -0.8673  0.0116
48793SOL    HW251065   1.996  10.470   4.768  0.4097 -0.5367 -0.9873
48794SOL     OW51066   9.028  11.078   8.210 -0.3252 -0.3792 -0.5138
48794SOL    HW151067   9.092  11.039   8.270  0.6051  0.3461 -0.9964
48794SOL    HW251068   8.996  11.156   8.257 -0.2086 -0.2676 -0.6180
48795SOL     OW51069   2.397   9.805  10.559  0.1378  0.0175 -0.2867
48795SOL    HW151070   2.306   9.802  10.529  0.1935  0.2265 -0.4875
48795SOL    HW251071   2.414   9.719  10.596  0.5465 -0.8154 -2.2833
48796SOL     OW51072   4.579   4.772  10.397  0.3644  0.2096 -0.4480
48796SOL    HW151073   4.608   4.814  10.478 -0.1307  0.3370 -0.3362
48796SOL    HW251074   4.507   4.715  10.424 -1.1465  1.7420 -1.0820
48797SOL     OW51075   7.438   9.043   9.220  0.2538 -0.2449 -0.2718
48797SOL    HW151076   7.426   8.961   9.269 -1.3224  0.0023 -0.1840
48797SOL    HW251077   7.352   9.060   9.182  0.5437  1.4181 -0.2214
48798SOL     OW51078   3.323   7.963   2.223  0.5733  0.7471 -0.3139
48798SOL    HW151079   3.292   7.874   2.205 -0.9016  1.0304  0.5833
48798SOL    HW251080   3.345   7.999   2.137  0.5493 -0.2583 -0.7571
48799SOL     OW51081   2.181   3.776   9.302  0.0480 -0.8456  0.5340
48799SOL    HW151082   2.180   3.867   9.270 -0.9903 -1.2743 -0.7090
48799SOL    HW251083   2.274   3.755   9.309  0.3076  0.2524  0.6999
48800SOL     OW51084   3.871   6.006   9.320  0.2384  0.1031  0.2546
48800SOL    HW151085   3.940   6.023   9.256 -0.5628  0.4487 -0.5478
48800SOL    HW251086   3.817   6.085   9.318  0.3657  0.2519  1.6069
48801SOL     OW51087   9.722  11.912   2.215 -0.2490 -0.6994  0.6230
48801SOL    HW151088   9.811  11.884   2.191 -0.2471 -0.0782 -0.1538
48801SOL    HW251089   9.691  11.843   2.274 -0.4783 -2.7322 -1.6873
48802SOL     OW51090   1.011   4.046   9.954  0.6069  0.3928  0.3872
48802SOL    HW151091   0.965   4.108   9.897 -0.2794 -1.1441 -0.6607
48802SOL    HW251092   0.958   4.041  10.033 -0.4014 -0.4174 -0.3055
48803SOL     OW51093   2.128   0.780   2.314 -0.3313  0.0077  0.2215
48803SOL    HW151094   2.135   0.833   2.235 -0.9140 -0.0067  0.1504
48803SOL    HW251095   2.218   0.771   2.345 -0.2328  1.1657  0.3267
48804SOL     OW51096   8.387  10.913  10.360 -0.3570 -0.7383  0.0323
48804SOL    HW151097   8.364  10.921  10.268 -1.0432  0.1805  0.2691
48804SOL    HW251098   8.394  10.819  10.376 -0.5074 -0.9067 -0.8817
48805SOL     OW51099   3.742   6.941  11.218 -0.3182  0.2793  0.6928
48805SOL    HW151100   3.754   6.976  11.307  0.6692  1.0127  0.2810
48805SOL    HW251101   3.751   6.846  11.229  1.9226  0.4851  1.0854
48806SOL     OW51102   3.515  10.119  11.548 -0.2429 -0.1609  0.3407
48806SOL    HW151103   3.600  10.158  11.529  0.2589 -0.8278  1.1580
48806SOL    HW251104   3.486  10.162  11.628  0.1998 -1.2611  1.1124
48807SOL     OW51105   9.392   7.626   2.033 -0.8112  0.3207  0.5800
48807SOL    HW151106   9.414   7.665   1.948 -0.6371  1.2009  1.0206
48807SOL    HW251107   9.474   7.589   2.064 -0.9738 -0.4011  0.1665
48808SOL     OW51108   3.804   3.355   4.362 -0.0768 -0.2221 -0.2006
48808SOL    HW151109   3.724   3.373   4.411 -0.7970  2.6907 -2.2081
48808SOL    HW251110   3.773   3.326   4.276  1.1285 -2.1240 -0.0573
48809SOL     OW51111  11.169   8.557   5.349 -0.1248  0.1894 -0.1776
48809SOL    HW151112  11.110   8.622   5.388  0.7191  0.9979 -0.1977
48809SOL    HW251113  11.257   8.589   5.372  0.4042  0.5875 -2.5694
48810SOL     OW51114   3.834  11.716   2.973  0.2042 -0.3707  0.5588
48810SOL    HW151115   3.928  11.715   2.991  0.1880 -2.7726  0.7836
48810SOL    HW251116   3.828  11.732   2.878  1.1098 -3.6720 -0.1948
48811SOL     OW51117   6.848   8.710   7.464  0.0582  0.3415 -0.1819
48811SOL    HW151118   6.837   8.688   7.372 -0.3713  0.9877 -0.2870
48811SOL    HW251119   6.775   8.767   7.485 -0.0595 -0.0955  0.6623
48812SOL     OW51120   4.338  10.342   0.860  0.1145 -0.2845  0.0693
48812SOL    HW151121   4.433  10.347   0.863  0.2235 -1.3857 -0.8904
48812SOL    HW251122   4.308  10.409   0.922  1.4839  0.9457 -0.5633
48813SOL     OW51123   3.359  10.872  11.073  0.4138  0.1173  0.0057
48813SOL    HW151124   3.344  10.929  11.149 -1.4171  0.4914 -0.6014
48813SOL    HW251125   3.375  10.786  11.111  0.9978  0.5764  0.8544
48814SOL     OW51126   0.673  10.893   3.868 -0.4474 -0.5513 -0.0160
48814SOL    HW151127   0.602  10.851   3.917 -0.6009 -0.7904 -0.4397
48814SOL    HW251128   0.628  10.947   3.803 -0.2417 -0.4831 -0.1013
48815SOL     OW51129  10.927   9.852   8.317  0.0266  0.1208 -0.1643
48815SOL    HW151130  10.865   9.780   8.303 -0.1321  0.0382  0.8348
48815SOL    HW251131  11.011   9.817   8.290 -0.4764  0.5700 -2.5133
48816SOL     OW51132   6.037   1.217   1.439  0.4190  0.4071 -0.1799
48816SOL    HW151133   6.055   1.131   1.401 -1.8810  0.0523 -0.6011
48816SOL    HW251134   6.059   1.208   1.532  2.8558  0.2671 -0.7081
48817SOL     OW51135   4.952   5.409   4.342  0.2601 -0.7599 -0.8984
48817SOL    HW151136   4.869   5.454   4.326  0.4896  0.5007  1.0520
48817SOL    HW251137   4.969   5.361   4.262 -1.7087 -0.0161 -1.8341
48818SOL     OW51138  10.799   3.019   9.139  0.0472  0.3344  0.0586
48818SOL    HW151139  10.786   3.105   9.179  1.7015  0.2012  1.0049
48818SOL    HW251140  10.712   2.980   9.134 -0.6563  1.8753  0.0504
48819SOL     OW51141   6.353   7.080   1.428 -0.0310  0.0264 -0.3974
48819SOL    HW151142   6.368   7.108   1.338  1.4191  1.0341  0.1106
48819SOL    HW251143   6.264   7.045   1.428 -0.6323  1.4302 -1.8647
48820SOL     OW51144   1.950   8.448   9.555  0.5809  0.3185 -0.0699
48820SOL    HW151145   1.867   8.404   9.541  1.0393 -0.5964 -0.0211
48820SOL    HW251146   1.953   8.466   9.649 -0.5132  2.3711 -0.3729
48821SOL     OW51147  11.308  10.170   9.678 -0.1928  0.4214  0.1929
48821SOL    HW151148  11.365  10.243   9.703  0.1666 -0.4654  2.1558
48821SOL    HW251149  11.221  10.209   9.675  0.0960  1.1153  0.3906
48822SOL     OW51150   9.575  11.265   0.482  0.0303 -0.0834  0.4264
48822SOL    HW151151   9.554  11.343   0.535 -0.8381 -0.0743  0.0946
48822SOL    HW251152   9.667  11.277   0.458 -0.1742  1.0025  0.1168
48823SOL     OW51153   9.254   8.035   4.311  0.1434  0.2305  0.0846
48823SOL    HW151154   9.168   8.002   4.339  0.4016 -0.1282  0.4588
48823SOL    HW251155   9.317   7.980   4.357  0.6074 -0.9323 -1.8205
48824SOL     OW51156   7.159   4.934   8.413 -0.5339  0.2010 -0.2272
48824SOL    HW151157   7.169   4.839   8.415 -0.2248  0.2365  1.1000
48824SOL    HW251158   7.243   4.965   8.380  0.3728  0.0873  1.8117
48825SOL     OW51159   4.624   8.761   3.951  0.2473 -0.2409 -0.0736
48825SOL    HW151160   4.589   8.793   4.034 -0.5676  0.9111 -0.8150
48825SOL    HW251161   4.612   8.666   3.953 -1.0389 -0.0823  0.5663
48826SOL     OW51162   1.997   9.886  10.938  0.7008  0.4188  0.2620
48826SOL    HW151163   1.995   9.950  11.009 -0.0082  2.0686 -1.1823
48826SOL    HW251164   2.086   9.891  10.904  0.2957  1.6691 -0.6964
48827SOL     OW51165   0.493   5.679   3.675 -0.2043 -0.0707  0.0842
48827SOL    HW151166   0.561   5.647   3.616  0.3330  1.0438  0.0641
48827SOL    HW251167   0.482   5.609   3.740  0.5155 -0.5265 -0.2789
48828SOL     OW51168   0.213   3.340  10.267  0.2464  0.8465  0.5211
48828SOL    HW151169   0.253   3.284  10.200 -1.6871  0.6776 -0.5432
48828SOL    HW251170   0.226   3.292  10.349  0.9039  0.0992 -0.0095
48829SOL     OW51171   9.258  10.604   5.690 -0.0961 -0.1700  0.0020
48829SOL    HW151172   9.296  10.519   5.669  0.2046  0.3420 -1.7328
48829SOL    HW251173   9.167  10.586   5.712  1.1294 -1.5895  5.4025
48830SOL     OW51174   3.299   1.552   6.483  0.1053 -0.5284 -0.6576
48830SOL    HW151175   3.251   1.520   6.559  0.6271 -1.7683 -0.8207
48830SOL    HW251176   3.347   1.629   6.516  0.0492 -0.8362  0.1672
48831SOL     OW51177   0.125   2.245   9.168  0.1689  0.4959 -0.3368
48831SOL    HW151178   0.200   2.196   9.200  0.9227  1.4174 -0.6567
48831SOL    HW251179   0.094   2.295   9.244 -1.2004 -1.1456  0.2537
48832SOL     OW51180   4.261   9.597   3.883 -1.0074  0.8393  0.0583
48832SOL    HW151181   4.256   9.530   3.951 -0.7534  0.3321 -0.4256
48832SOL    HW251182   4.280   9.549   3.803 -0.6838  1.5044 -0.2675
48833SOL     OW51183  11.771   8.999   7.788 -0.1908  0.3940  0.3699
48833SOL    HW151184  11.732   8.950   7.715  1.0110  0.2049 -0.1682
48833SOL    HW251185  11.787   8.932   7.855  0.7146  0.1585 -0.0583
48834SOL     OW51186   4.017  10.879   2.872 -0.2829  0.1018  0.4292
48834SOL    HW151187   3.985  10.967   2.854 -0.0779  0.1412  0.2496
48834SOL    HW251188   3.956  10.843   2.936 -0.4484  0.3234  0.3934
48835SOL     OW51189   5.170   6.733  10.742 -0.1773  0.1041  0.3023
48835SOL    HW151190   5.178   6.640  10.719  1.5342  0.5433 -1.0757
48835SOL    HW251191   5.123   6.772  10.668  0.5019  0.5926  0.1180
48836SOL     OW51192   4.041   4.868   6.486 -0.3348  0.0193 -0.3630
48836SOL    HW151193   3.950   4.872   6.514  0.8248  2.3236  3.8894
48836SOL    HW251194   4.065   4.775   6.495 -1.6314 -0.2166  0.9159
48837SOL     OW51195   9.014   9.206   0.168 -0.5222  0.2438  0.1087
48837SOL    HW151196   8.938   9.150   0.152 -0.6397  0.2929  0.5000
48837SOL    HW251197   9.015   9.267   0.094 -0.5416 -0.1081 -0.1852
48838SOL     OW51198   9.551   6.232  10.224  0.0465 -0.7634 -0.6075
48838SOL    HW151199   9.589   6.154  10.265 -0.1416 -0.6911 -0.2898
48838SOL    HW251200   9.491   6.266  10.290  0.1635 -0.3235 -0.7304
48839SOL     OW51201   2.245   3.664   4.369 -0.0046 -0.3588 -0.0358
48839SOL    HW151202   2.169   3.616   4.403  0.2024 -0.8457 -0.2580
48839SOL    HW251203   2.314   3.648   4.434  0.8031 -2.4116 -1.3031
48840SOL     OW51204   8.513  10.339   3.870  0.2371  0.9053  0.0820
48840SOL    HW151205   8.546  10.381   3.950 -0.5850  1.2149  0.2710
48840SOL    HW251206   8.505  10.410   3.807  0.2394  0.7735 -0.0668
48841SOL     OW51207   3.532   7.989  11.652  0.2824  0.3001  0.2733
48841SOL    HW151208   3.622   8.000  11.683  0.4612  1.0033 -0.4543
48841SOL    HW251209   3.532   8.029  11.565 -0.1301 -1.7531 -0.7419
48842SOL     OW51210   3.660   7.066  10.555 -0.2256  0.0112 -0.6337
48842SOL    HW151211   3.629   6.997  10.496  0.0042 -0.5240 -0.1427
48842SOL    HW251212   3.602   7.061  10.631 -0.4935  0.6685 -0.7916
48843SOL     OW51213   3.807   5.908   3.354  0.2629 -0.3402  0.4409
48843SOL    HW151214   3.849   5.991   3.332  1.2880 -1.0283 -0.2658
48843SOL    HW251215   3.715   5.932   3.368  0.3208  0.7678 -0.7974
48844SOL     OW51216   1.110   3.919   2.081 -0.5274 -0.3667 -0.6428
48844SOL    HW151217   1.071   4.006   2.090  0.9378  0.4941 -2.0332
48844SOL    HW251218   1.193   3.924   2.128 -0.2162 -0.8465 -1.1191
48845SOL     OW51219   2.500   8.949  10.702  0.5786 -0.1298  0.2563
48845SOL    HW151220   2.470   8.899  10.778  0.9698 -3.1303 -1.4015
48845SOL    HW251221   2.595   8.934  10.698  0.7151  0.7358 -0.3401
48846SOL     OW51222   2.551   4.846   6.294  0.6616  0.1199 -0.0171
48846SOL    HW151223   2.603   4.767   6.308 -1.5569 -1.7667 -1.7353
48846SOL    HW251224   2.570   4.871   6.203 -0.3097  0.2405 -0.1971
48847SOL     OW51225   1.351   0.382   2.394 -0.1194  0.6291  0.5650
48847SOL    HW151226   1.333   0.299   2.348 -0.2470  1.7912 -1.6461
48847SOL    HW251227   1.271   0.399   2.444  0.0111 -0.6909  1.2787
48848SOL     OW51228   3.200   9.859   3.614  0.4585  0.4082 -0.0412
48848SOL    HW151229   3.165   9.771   3.629  0.1899  0.2176 -1.6210
48848SOL    HW251230   3.187   9.904   3.698  0.3138 -0.9481  0.6975
48849SOL     OW51231   2.865   9.738  10.864  0.1527 -0.1908 -0.0865
48849SOL    HW151232   2.890   9.818  10.911 -0.4836  0.3322 -0.6048
48849SOL    HW251233   2.924   9.736  10.788  0.9688 -0.8661  0.5451
48850SOL     OW51234   9.367   1.668   6.236 -0.1712  0.0265  0.2069
48850SOL    HW151235   9.331   1.604   6.298 -0.1704 -0.8428 -0.6575
48850SOL    HW251236   9.290   1.709   6.197 -0.2090 -0.4484 -0.2351
48851SOL     OW51237   0.905  11.809   8.487 -0.5910 -0.2384 -0.5281
48851SOL    HW151238   0.931  11.745   8.420 -0.6929 -0.3949 -0.4173
48851SOL    HW251239   0.987  11.853   8.510 -0.4495 -0.6099 -0.3096
48852SOL     OW51240  11.465   7.279   0.564 -0.2925  0.2546  0.1401
48852SOL    HW151241  11.427   7.337   0.630 -0.9302 -0.8047  0.7290
48852SOL    HW251242  11.445   7.191   0.595  1.4556 -0.3247 -0.2514
48853SOL     OW51243   6.094   4.238   4.887  0.5730  0.2376  0.1206
48853SOL    HW151244   6.020   4.279   4.841  0.2196 -1.1644 -0.6244
48853SOL    HW251245   6.068   4.239   4.979 -1.3248 -1.9449 -0.2902
48854SOL     OW51246  11.164   5.347  11.126  0.0107 -0.2167  0.2495
48854SOL    HW151247  11.103   5.390  11.187 -1.2124 -2.0598  0.3856
48854SOL    HW251248  11.249   5.353  11.169 -0.8768 -1.7680  2.3585
48855SOL     OW51249   0.977   5.756  10.067 -0.5854 -0.4169 -0.0555
48855SOL    HW151250   0.916   5.683  10.073  0.0764 -1.1977 -1.9018
48855SOL    HW251251   0.930   5.822  10.016  0.4611 -1.5748 -2.7460
48856SOL     OW51252   7.109   1.073   9.017 -0.1582  1.2372 -0.1476
48856SOL    HW151253   7.155   1.018   8.953  0.1941  0.9490  0.3438
48856SOL    HW251254   7.072   1.145   8.965 -1.5739 -0.0364 -0.9564
48857SOL     OW51255   9.735   2.669   5.118 -0.2762 -0.3393  0.0118
48857SOL    HW151256   9.702   2.752   5.152  1.6955  0.0617  1.1131
48857SOL    HW251257   9.659   2.612   5.114 -1.1982  0.6972  1.7919
48858SOL     OW51258   8.600   1.925   0.740 -0.2699  0.0255 -0.0128
48858SOL    HW151259   8.680   1.958   0.700 -0.0278 -0.2477  0.2463
48858SOL    HW251260   8.549   2.003   0.758 -1.3408  0.1017 -2.7944
48859SOL     OW51261   9.826  10.693   4.988  0.3715  0.4624 -0.1836
48859SOL    HW151262   9.842  10.599   4.978  0.1178  0.2812  0.9527
48859SOL    HW251263   9.910  10.734   4.969  0.5423 -0.0112 -0.4707
48860SOL     OW51264   5.327   1.313   3.638 -0.0131 -0.2043 -0.5731
48860SOL    HW151265   5.246   1.268   3.611 -1.3414  2.4598 -1.3781
48860SOL    HW251266   5.298   1.400   3.666  2.4690  0.3977  0.3736
48861SOL     OW51267   1.350   9.718   2.106 -0.7579  0.3870 -0.3553
48861SOL    HW151268   1.393   9.739   2.190 -0.3075  1.8650 -0.9176
48861SOL    HW251269   1.377   9.629   2.087  1.6582  1.0442 -0.3813
48862SOL     OW51270  11.625   3.230   9.285  0.1465  0.1452  0.1797
48862SOL    HW151271  11.699   3.170   9.285 -0.5969 -0.8103 -0.2155
48862SOL    HW251272  11.581   3.214   9.369 -1.1744 -1.3595 -0.7308
48863SOL     OW51273  11.787  11.174  11.643 -0.2683  0.1374 -0.9064
48863SOL    HW151274  11.745  11.110  11.586  1.3739 -1.7711 -0.0717
48863SOL    HW251275  11.854  11.214  11.587  0.4170 -0.7400 -0.7312
48864SOL     OW51276   4.328   7.756   8.044  0.4641 -0.3701 -0.3767
48864SOL    HW151277   4.339   7.832   8.102  0.6042  0.0400 -0.9280
48864SOL    HW251278   4.242   7.721   8.067  0.6643 -0.4146  0.3093
48865SOL     OW51279  11.315   9.915   8.473  0.1652  0.4997  0.1087
48865SOL    HW151280  11.399   9.925   8.428 -0.0295  0.6154 -0.2342
48865SOL    HW251281  11.258   9.873   8.408  0.0166  0.2362  0.4074
48866SOL     OW51282   0.688   0.164   9.952 -0.5063  0.0434 -0.7181
48866SOL    HW151283   0.694   0.259   9.945 -0.2465  0.1784  0.9610
48866SOL    HW251284   0.601   0.143   9.920 -0.6403  0.8730 -0.9197
48867SOL     OW51285  10.570   8.788   7.940 -0.2504  0.0004  0.1598
48867SOL    HW151286  10.645   8.833   7.902  0.8023 -1.0934  0.8565
48867SOL    HW251287  10.495   8.817   7.888  0.7654  0.5260 -1.0632
48868SOL     OW51288   2.904   9.110   6.025 -0.1777 -0.1469 -0.8123
48868SOL    HW151289   2.959   9.051   5.972 -1.8836 -0.2992 -2.5154
48868SOL    HW251290   2.815   9.078   6.011 -0.6969 -0.7145  2.8882
48869SOL     OW51291  10.884   0.219   7.228  0.2480  0.0595  0.1140
48869SOL    HW151292  10.935   0.234   7.148  2.9158  2.2909  2.0698
48869SOL    HW251293  10.927   0.145   7.270  1.6418  1.5637  1.4703
48870SOL     OW51294   2.136   9.536  10.467 -0.2735  0.1415  0.4059
48870SOL    HW151295   2.133   9.508  10.375  2.0437  0.3279  0.2171
48870SOL    HW251296   2.175   9.462  10.513  2.8111  1.6303  0.4355
48871SOL     OW51297   1.058   7.787   6.650  0.1382  0.8749 -0.1277
48871SOL    HW151298   1.031   7.702   6.617  1.6640  0.8757 -1.4553
48871SOL    HW251299   1.059   7.776   6.745  0.7139 -0.7193 -0.2866
48872SOL     OW51300   5.291   9.833  10.260 -0.2293  0.2593 -0.5697
48872SOL    HW151301   5.338   9.801  10.337 -0.6545  1.6384  0.2968
48872SOL    HW251302   5.257   9.918  10.287  0.5195  1.2711 -2.6304
48873SOL     OW51303   6.590   3.018   5.680  0.2156 -0.3018  0.3455
48873SOL    HW151304   6.575   2.974   5.596  0.2346  0.0434  0.1584
48873SOL    HW251305   6.572   2.951   5.746 -0.9696 -0.2387  0.1048
48874SOL     OW51306   2.325  11.020   4.881 -0.2822 -0.3137 -0.2253
48874SOL    HW151307   2.348  10.928   4.893  2.2848  0.3716  0.6926
48874SOL    HW251308   2.360  11.064   4.958 -0.8465  1.5499 -0.9784
48875SOL     OW51309   9.093   0.399   9.069  0.0358 -0.3615 -0.3271
48875SOL    HW151310   9.100   0.491   9.042  1.0818  0.5585  2.7490
48875SOL    HW251311   9.015   0.397   9.124 -0.7495 -1.6734 -1.4264
48876SOL     OW51312   1.987  10.572   7.929  0.0338  0.5912  0.3706
48876SOL    HW151313   2.072  10.532   7.946 -0.3706  0.1944  1.6007
48876SOL    HW251314   2.007  10.663   7.908  0.9606 -0.1348 -2.2981
48877SOL     OW51315   6.109   9.144   0.501 -0.0880 -0.2991  0.1466
48877SOL    HW151316   6.118   9.237   0.482 -2.2861 -0.1033 -0.1472
48877SOL    HW251317   6.137   9.135   0.593  0.2982  0.5937  0.1253
48878SOL     OW51318  10.474   9.710   1.211 -0.0284 -0.2068  0.1472
48878SOL    HW151319  10.494   9.646   1.280 -1.1778 -0.2257  0.4824
48878SOL    HW251320  10.433   9.783   1.258  0.6774  0.5103 -0.3183
48879SOL     OW51321   2.379   3.448   2.856  0.3831  0.2494 -0.3356
48879SOL    HW151322   2.365   3.538   2.887 -4.4356  0.0660 -1.2054
48879SOL    HW251323   2.352   3.393   2.930  2.0392 -0.5585 -0.2813
48880SOL     OW51324  11.725   4.104   3.590 -0.0976 -0.5855  0.3939
48880SOL    HW151325  11.788   4.044   3.630 -0.7365  0.0500  2.5147
48880SOL    HW251326  11.670   4.133   3.663 -2.1824 -0.2990 -1.2043
48881SOL     OW51327   5.535   4.386   6.028  0.6824 -0.0002 -0.0189
48881SOL    HW151328   5.483   4.466   6.025 -2.6552 -1.9941 -0.0882
48881SOL    HW251329   5.501   4.338   6.103 -0.9318 -3.3919 -2.6245
48882SOL     OW51330  10.763   2.486  10.147 -0.2966 -0.7134  0.2037
48882SOL    HW151331  10.838   2.435  10.116 -0.5082 -2.3588  2.2078
48882SOL    HW251332  10.770   2.484  10.243 -0.6818  2.5496  0.4274
48883SOL     OW51333   1.191   9.785   8.420  0.0806  0.5556 -0.4319
48883SOL    HW151334   1.134   9.821   8.353  0.4462 -0.9384 -1.5954
48883SOL    HW251335   1.275   9.830   8.407  0.2280  0.0813 -1.1740
48884SOL     OW51336   2.903  11.792   8.961 -0.1489  0.1538 -0.3314
48884SOL    HW151337   2.921  11.865   9.020  1.1340 -0.1544 -0.3181
48884SOL    HW251338   2.965  11.803   8.889  0.1227 -0.9563 -0.2834
48885SOL     OW51339   8.283   1.501   6.546 -0.3153  0.7513 -0.2685
48885SOL    HW151340   8.189   1.515   6.556 -0.3448  0.2289  0.2384
48885SOL    HW251341   8.306   1.443   6.619  0.4129  0.9442 -0.3428
48886SOL     OW51342   5.587  11.620   2.341 -0.4993 -0.5052 -0.0993
48886SOL    HW151343   5.552  11.562   2.274 -2.0573  2.3131 -1.9517
48886SOL    HW251344   5.511  11.641   2.397  0.3451 -1.2397  1.4002
48887SOL     OW51345   4.509   1.055   3.151  0.6859  0.6855 -0.3830
48887SOL    HW151346   4.449   1.129   3.153  1.5305  1.3741  1.2171
48887SOL    HW251347   4.527   1.035   3.243  0.5119 -1.5036 -0.7686
48888SOL     OW51348   6.639   2.441   2.011 -0.2251 -0.3593 -0.1176
48888SOL    HW151349   6.569   2.376   2.009  0.7569 -1.5764  1.8032
48888SOL    HW251350   6.714   2.397   1.971  0.1460 -0.0155  0.1880
48889SOL     OW51351  11.206   6.777   3.928 -0.5862 -0.4861  0.2291
48889SOL    HW151352  11.256   6.793   4.008  0.2694 -0.1180 -0.3629
48889SOL    HW251353  11.270   6.787   3.857 -1.5241  0.1674 -0.5630
48890SOL     OW51354   0.092   6.904   0.156 -0.7357  0.0497 -0.4896
48890SOL    HW151355  -0.003   6.913   0.160 -0.6902  2.3457 -2.2091
48890SOL    HW251356   0.107   6.817   0.119 -2.2053 -0.0781 -0.8305
48891SOL     OW51357  10.447   6.600   4.496 -0.3890 -0.3670  0.1956
48891SOL    HW151358  10.413   6.604   4.585  1.1788 -0.5073  0.8239
48891SOL    HW251359  10.535   6.636   4.502 -0.4702  0.1822 -1.4171
48892SOL     OW51360   6.848  11.238   4.004 -0.5706 -0.0303 -0.6521
48892SOL    HW151361   6.914  11.178   3.970 -0.4734 -0.7294  0.6954
48892SOL    HW251362   6.863  11.320   3.957 -0.6078 -0.9950 -2.4184
48893SOL     OW51363   3.449  10.851   9.397 -0.3851  0.1224 -0.5419
48893SOL    HW151364   3.452  10.917   9.467 -1.8943  1.0434 -1.2928
48893SOL    HW251365   3.429  10.769   9.442 -0.8026  0.6010  0.1647
48894SOL     OW51366   4.557  11.802   5.524 -0.0013  0.1477  0.6406
48894SOL    HW151367   4.489  11.846   5.575 -1.2225 -2.2012  1.1542
48894SOL    HW251368   4.638  11.818   5.572 -0.5613  0.9686  1.3284
48895SOL     OW51369   1.635   3.921   2.735 -0.0465 -0.1305  0.1022
48895SOL    HW151370   1.579   3.997   2.748 -0.2940  0.1475 -2.2200
48895SOL    HW251371   1.592   3.851   2.784 -0.8085  0.7662  0.7546
48896SOL     OW51372   8.297   7.110   0.833  0.5681  0.5044 -0.2552
48896SOL    HW151373   8.320   7.076   0.747  0.4614  0.3155 -0.2081
48896SOL    HW251374   8.295   7.034   0.890  0.7002  0.6377 -0.0710
48897SOL     OW51375   9.780   8.588   8.032  1.1340  0.4059 -0.3313
48897SOL    HW151376   9.840   8.612   8.102 -0.1950  1.9555  0.3321
48897SOL    HW251377   9.766   8.669   7.983  0.7808 -0.2861 -1.4281
48898SOL     OW51378   6.696   2.992   3.457 -0.2441 -0.2099  0.3734
48898SOL    HW151379   6.725   3.018   3.369 -1.4740  0.4925  0.1502
48898SOL    HW251380   6.609   3.031   3.466  0.1809  0.4277  2.2236
48899SOL     OW51381   8.789   0.283   8.136  0.3418 -0.3548  0.2460
48899SOL    HW151382   8.794   0.205   8.082  1.3274 -0.2617  0.1904
48899SOL    HW251383   8.872   0.328   8.122  0.6872 -0.4027  1.9330
48900SOL     OW51384   5.147   7.909   2.733  0.5156  0.2596 -0.0801
48900SOL    HW151385   5.196   7.989   2.752 -3.0099  2.4876  0.5162
48900SOL    HW251386   5.131   7.912   2.638  0.3645  0.3038 -0.0545
48901SOL     OW51387   9.059   8.056   4.829 -0.7294  0.3717  0.3030
48901SOL    HW151388   9.115   7.984   4.858 -0.2411 -0.3212 -2.1347
48901SOL    HW251389   8.973   8.015   4.817 -1.0135  0.7317  1.0692
48902SOL     OW51390   2.073   6.236   1.730 -0.0364  0.0741  0.2425
48902SOL    HW151391   2.135   6.168   1.702 -0.1727  0.6083 -1.5383
48902SOL    HW251392   1.993   6.189   1.751  0.1671 -0.4041 -0.0344
48903SOL     OW51393   5.818   0.713   3.493 -0.2966  0.4724 -0.3145
48903SOL    HW151394   5.813   0.799   3.534  0.4669  1.1021 -1.4993
48903SOL    HW251395   5.893   0.718   3.434 -0.2983 -0.9759 -0.4797
48904SOL     OW51396   4.353   1.329   2.350  0.2485  0.2554 -0.6385
48904SOL    HW151397   4.348   1.246   2.302 -0.2456 -0.5010  0.6571
48904SOL    HW251398   4.342   1.397   2.283 -0.7445 -0.7557 -1.5382
48905SOL     OW51399   4.565   3.970   3.812  1.1244  0.2552 -0.5568
48905SOL    HW151400   4.530   3.949   3.899 -0.6583 -1.4128 -1.6213
48905SOL    HW251401   4.526   4.055   3.790  0.7269  0.1729 -0.1796
48906SOL     OW51402   2.069   1.389   3.563 -0.0897 -0.0531 -0.0740
48906SOL    HW151403   2.145   1.443   3.544 -0.9388  1.1208 -0.2289
48906SOL    HW251404   2.049   1.407   3.655 -0.7903  0.4368 -0.3172
48907SOL     OW51405   6.370   8.977   3.633 -0.3687 -0.3982 -0.3440
48907SOL    HW151406   6.394   9.069   3.629 -0.0740 -0.4595 -0.0158
48907SOL    HW251407   6.317   8.969   3.712 -2.0843 -0.1298 -1.4153
48908SOL     OW51408   8.948   5.218  10.419  0.2023  0.2500  0.0959
48908SOL    HW151409   8.944   5.157  10.493  0.6671  0.0976 -0.0016
48908SOL    HW251410   8.914   5.300  10.454 -2.5431 -0.5989 -0.3500
48909SOL     OW51411   1.170   8.594   6.774  0.4695 -0.0715 -0.5482
48909SOL    HW151412   1.241   8.657   6.788  1.1748 -0.6047 -1.6144
48909SOL    HW251413   1.211   8.520   6.729 -0.4491 -1.0863  0.2266
48910SOL     OW51414   7.980   4.258  10.493  0.2591  0.3771  0.1884
48910SOL    HW151415   7.896   4.286  10.529  0.0535 -0.0544  0.0559
48910SOL    HW251416   8.037   4.250  10.569 -0.4451 -1.4826  0.5893
48911SOL     OW51417   8.449   0.255   6.518  0.3412  0.0426 -0.2942
48911SOL    HW151418   8.526   0.204   6.545 -2.1363 -2.4315  2.9803
48911SOL    HW251419   8.429   0.223   6.430  2.0840 -0.4529 -0.5454
48912SOL     OW51420   3.715   1.046   2.325  0.2523  0.5116  0.4656
48912SOL    HW151421   3.760   0.978   2.374  1.4629  0.5269 -0.5928
48912SOL    HW251422   3.678   1.002   2.249 -0.3436  0.7481  0.6136
48913SOL     OW51423   0.920   5.862  10.319  0.6585 -0.4723  0.1464
48913SOL    HW151424   0.963   5.945  10.339 -1.3133  0.8710 -0.8313
48913SOL    HW251425   0.939   5.846  10.227 -2.1137  1.0457 -0.8192
48914SOL     OW51426   5.633   1.652   9.700 -0.8459  0.0757 -0.3183
48914SOL    HW151427   5.640   1.589   9.627  1.9010 -0.4394  0.2592
48914SOL    HW251428   5.542   1.645   9.729 -1.6516 -0.7474 -2.7662
48915SOL     OW51429   8.425   4.560   3.110 -0.0453 -0.1456 -0.8548
48915SOL    HW151430   8.490   4.618   3.150 -1.0348  0.2876  0.1750
48915SOL    HW251431   8.379   4.521   3.184 -1.7929  0.5081 -1.5480
48916SOL     OW51432   8.066   6.113   7.220  0.2111  0.0183 -0.5870
48916SOL    HW151433   8.083   6.136   7.312 -1.1456  0.7071 -0.4822
48916SOL    HW251434   8.046   6.019   7.223  0.0342  0.0636 -0.1464
48917SOL     OW51435   0.884   2.414  10.078  0.0009 -0.2656  0.3282
48917SOL    HW151436   0.831   2.365  10.015  0.6677  1.3774 -1.6174
48917SOL    HW251437   0.962   2.440  10.029 -0.9215  3.8741  0.7152
48918SOL     OW51438  10.079   8.191   7.404 -0.3856  0.4096  0.1303
48918SOL    HW151439  10.043   8.275   7.433 -2.4397 -0.2797 -0.2521
48918SOL    HW251440  10.067   8.191   7.309 -0.4020 -0.3118  0.1261
48919SOL     OW51441   9.144   4.528   7.591 -0.2258 -0.7937 -0.5252
48919SOL    HW151442   9.116   4.617   7.571  0.3215 -0.2354  1.0560
48919SOL    HW251443   9.076   4.495   7.649 -1.1861 -1.9651 -2.2190
48920SOL     OW51444   4.465  10.949   7.898  0.0712  0.0682 -0.6708
48920SOL    HW151445   4.418  10.894   7.961  0.7036  0.1036 -0.1593
48920SOL    HW251446   4.420  11.034   7.902  0.4392  0.2342  0.1306
48921SOL     OW51447   3.263   4.690   3.809 -0.3145  0.3328  0.2605
48921SOL    HW151448   3.204   4.757   3.774 -0.5056  0.5961  1.0549
48921SOL    HW251449   3.234   4.609   3.768 -0.8154  0.5656  0.1461
48922SOL     OW51450   0.559   5.037  11.341 -0.3718  0.0914  0.3445
48922SOL    HW151451   0.652   5.025  11.359 -0.7511 -1.0373  1.7955
48922SOL    HW251452   0.556   5.092  11.263  1.5012  0.1983  0.3069
48923SOL     OW51453   8.729   1.369   7.735 -0.0148 -0.3150 -0.0736
48923SOL    HW151454   8.742   1.275   7.744  1.4960 -0.0393  0.8732
48923SOL    HW251455   8.779   1.394   7.658 -1.5328 -0.4595 -1.1605
48924SOL     OW51456  11.289   7.598   4.462 -0.0703  0.0774 -0.3059
48924SOL    HW151457  11.247   7.640   4.387 -0.2604  0.8961  0.2501
48924SOL    HW251458  11.324   7.516   4.427  0.7152  0.9027 -1.5279
48925SOL     OW51459   3.627   1.951   8.870 -0.6144  0.1685 -0.1825
48925SOL    HW151460   3.624   1.864   8.910  1.4903 -0.2824 -0.8534
48925SOL    HW251461   3.673   2.005   8.935 -1.6082  0.7118  0.0843
48926SOL     OW51462   1.403  10.643   3.596  0.9126 -0.3136 -0.3395
48926SOL    HW151463   1.344  10.672   3.665  0.8721 -0.1587 -0.4390
48926SOL    HW251464   1.351  10.581   3.545  0.1418  1.3087 -1.6320
48927SOL     OW51465   0.340   7.300   9.084 -0.2410 -0.9507  0.6039
48927SOL    HW151466   0.349   7.388   9.046 -1.9752 -1.4005 -1.0013
48927SOL    HW251467   0.395   7.244   9.028  0.5646 -0.9819  1.3968
48928SOL     OW51468   2.561  10.342   4.721 -0.3094 -0.6790  0.1501
48928SOL    HW151469   2.467  10.357   4.712 -0.3611  0.1741  1.7421
48928SOL    HW251470   2.570  10.295   4.803  0.7129  0.1193  0.5213
48929SOL     OW51471   9.571   8.427   2.535 -0.3412 -0.9441  0.2727
48929SOL    HW151472   9.536   8.350   2.489 -0.7718 -0.9418  0.5820
48929SOL    HW251473   9.504   8.447   2.601 -1.5823  1.3803 -1.5541
48930SOL     OW51474  10.957  10.002   7.849 -0.4927 -0.2051  0.0792
48930SOL    HW151475  10.928  10.083   7.891  0.3791  0.7968 -1.1501
48930SOL    HW251476  10.977  10.028   7.759 -0.7198 -1.9206 -0.4923
48931SOL     OW51477  10.913   0.123   8.105  0.0965 -0.6346  0.0805
48931SOL    HW151478  10.913   0.138   8.199 -1.6626  0.0469  0.0012
48931SOL    HW251479  10.821   0.119   8.081  0.4341  1.3226 -1.9171
48932SOL     OW51480   5.646   9.401   4.471  0.5861  0.4300 -0.1252
48932SOL    HW151481   5.566   9.454   4.476  1.5690  1.9631 -0.1444
48932SOL    HW251482   5.669   9.385   4.562 -1.0053 -2.0701 -0.0811
48933SOL     OW51483  11.877  11.027   0.761 -0.2004  0.5121  0.6352
48933SOL    HW151484  11.970  11.009   0.748 -0.4622 -1.1536  0.8573
48933SOL    HW251485  11.870  11.049   0.854 -0.1079 -0.0225  0.7735
48934SOL     OW51486   4.709   9.457   8.039  0.3125 -0.2010  0.3378
48934SOL    HW151487   4.787   9.403   8.033  0.7028  0.1941  1.5244
48934SOL    HW251488   4.742   9.547   8.043 -0.2698  0.0546 -0.3181
48935SOL     OW51489  10.636   6.473   1.657  0.0677 -0.2502  0.0368
48935SOL    HW151490  10.684   6.538   1.605  0.6388 -0.6844  0.0111
48935SOL    HW251491  10.544   6.494   1.642  0.2418  0.2731 -0.3331
48936SOL     OW51492  11.123   7.404   3.917 -0.3137 -0.2868  0.7673
48936SOL    HW151493  11.057   7.467   3.947  0.2787  0.7331 -0.0232
48936SOL    HW251494  11.205   7.453   3.915 -0.0975 -0.6489 -1.2985
48937SOL     OW51495   5.793   5.719   9.665 -0.1833  0.1361  0.2613
48937SOL    HW151496   5.757   5.806   9.652 -1.9028 -0.3935  1.1449
48937SOL    HW251497   5.872   5.733   9.717 -0.5121  1.1570  0.5107
48938SOL     OW51498   4.749   1.297   9.231 -0.1940 -0.2854 -0.5527
48938SOL    HW151499   4.773   1.302   9.138  1.1345  1.6373 -0.1724
48938SOL    HW251500   4.688   1.369   9.243  2.0719  1.5537  0.6506
48939SOL     OW51501   0.902  10.601   4.393  0.0156 -0.5544  0.6523
48939SOL    HW151502   0.842  10.572   4.323  0.9521 -1.4557  0.1998
48939SOL    HW251503   0.844  10.632   4.462 -0.9583  1.7200 -1.0473
48940SOL     OW51504   0.190   4.888   4.064  0.6471  0.2615 -0.5641
48940SOL    HW151505   0.184   4.947   4.139 -1.0001 -0.4732 -0.0878
48940SOL    HW251506   0.261   4.925   4.011  0.3074  2.1016  0.1892
48941SOL     OW51507   0.026   0.480   6.199 -0.0203 -0.5936 -0.6309
48941SOL    HW151508   0.051   0.572   6.195 -0.1716 -0.3027  2.4039
48941SOL    HW251509  -0.014   0.462   6.114  0.6967  1.9080 -1.5877
48942SOL     OW51510   3.416   9.052   2.532  0.8824  0.0325  0.0433
48942SOL    HW151511   3.389   9.138   2.499 -0.9910 -0.7407 -0.5752
48942SOL    HW251512   3.421   8.997   2.454  1.4655 -0.5790  0.5046
48943SOL     OW51513  10.064   1.225   4.473 -0.1234 -0.1777  0.1671
48943SOL    HW151514  10.073   1.130   4.479  0.8073 -0.0521  1.0606
48943SOL    HW251515  10.010   1.249   4.549  0.1943  0.0668  0.3183
48944SOL     OW51516   7.697   0.282   9.572  0.3770 -0.1597 -0.2725
48944SOL    HW151517   7.685   0.319   9.659 -0.1149 -1.6219  0.3193
48944SOL    HW251518   7.680   0.354   9.512  0.8134  0.8994  0.8336
48945SOL     OW51519   4.609   3.945   2.115 -0.4870  0.2748  0.6928
48945SOL    HW151520   4.685   3.969   2.168 -0.3368 -0.0849  0.6433
48945SOL    HW251521   4.589   4.023   2.064 -0.5263  0.5704  1.1524
48946SOL     OW51522   6.843   2.271  11.593 -1.3256 -0.0192  0.7044
48946SOL    HW151523   6.906   2.211  11.633 -0.1228  0.7841  0.1024
48946SOL    HW251524   6.758   2.245  11.629 -0.7034 -1.3705  1.2694
48947SOL     OW51525   9.785   2.501   8.444 -0.3653 -0.5414 -0.7601
48947SOL    HW151526   9.773   2.538   8.356  0.5726  0.6886 -0.4127
48947SOL    HW251527   9.705   2.523   8.491 -0.5592 -0.5381 -1.0918
48948SOL     OW51528   1.039  11.644   8.285 -0.5000 -0.4440  0.2300
48948SOL    HW151529   1.086  11.723   8.257 -0.9296 -0.1358  0.3767
48948SOL    HW251530   1.092  11.572   8.250 -0.5726 -0.0807 -0.6680
48949SOL     OW51531   3.846  10.627  11.458  0.1881 -0.0297 -0.4752
48949SOL    HW151532   3.759  10.655  11.487 -0.0842 -0.6423 -0.6839
48949SOL    HW251533   3.905  10.696  11.489  0.0170 -0.9054  2.0349
48950SOL     OW51534   3.693   5.371   6.989 -0.2387 -0.0098 -0.0857
48950SOL    HW151535   3.668   5.279   6.996 -3.0305  0.7199  0.9545
48950SOL    HW251536   3.726   5.394   7.076 -0.7703  0.2643  0.0482
48951SOL     OW51537   3.541   6.494   2.312 -0.4185 -0.6740 -0.0984
48951SOL    HW151538   3.590   6.414   2.296  0.0349 -0.5013  0.4122
48951SOL    HW251539   3.590   6.562   2.266  0.2404 -0.3759  1.0124
48952SOL     OW51540   8.483   9.496  11.986 -0.7539  0.2604  0.8384
48952SOL    HW151541   8.494   9.406  11.955  0.1626  0.8060 -0.4798
48952SOL    HW251542   8.532   9.549  11.924 -3.6212  2.0075 -0.1505
48953SOL     OW51543   3.034  11.240   2.469 -0.1114 -0.2705  0.3127
48953SOL    HW151544   2.941  11.220   2.464 -0.1723 -0.4224  1.5734
48953SOL    HW251545   3.077  11.170   2.421 -0.5890 -0.9144  0.7970
48954SOL     OW51546   5.747   3.499  10.393  0.4122 -0.0455 -0.2266
48954SOL    HW151547   5.773   3.416  10.433 -1.2631 -1.0537 -1.1311
48954SOL    HW251548   5.829   3.538  10.363  1.3117 -0.9906  0.9095
48955SOL     OW51549  10.013   7.240  10.707  1.0164 -0.1722 -0.2454
48955SOL    HW151550  10.013   7.146  10.688 -1.8854 -1.3277  4.0609
48955SOL    HW251551  10.076   7.249  10.779  0.1752  0.8504  0.3807
48956SOL     OW51552   2.882   1.041   6.280  0.4586  0.3868  0.5128
48956SOL    HW151553   2.917   1.094   6.352  0.5736  0.7897  0.1647
48956SOL    HW251554   2.960   1.006   6.236  0.3725 -0.5486  1.0901
48957SOL     OW51555   8.981   8.543   4.016 -0.2244 -0.1970 -0.7084
48957SOL    HW151556   9.049   8.610   4.025 -0.3183 -0.1243 -0.5178
48957SOL    HW251557   8.984   8.495   4.099 -2.3096  1.6244  0.5566
48958SOL     OW51558   3.376  10.667   0.783  0.5408 -0.0112 -0.1140
48958SOL    HW151559   3.402  10.626   0.700  0.4532  2.1948 -1.3017
48958SOL    HW251560   3.459  10.684   0.828  0.6437 -0.5088 -0.1130
48959SOL     OW51561   7.289   9.819   1.594  0.4636 -0.7403  0.2098
48959SOL    HW151562   7.365   9.780   1.636  1.5338 -2.5704 -3.0680
48959SOL    HW251563   7.316   9.909   1.574  0.8321 -0.6266  1.1739
48960SOL     OW51564   3.512   2.104   4.983  0.4457  0.2583  0.1699
48960SOL    HW151565   3.599   2.100   5.023  0.3464  0.1415  0.3818
48960SOL    HW251566   3.455   2.064   5.049  0.3346 -0.2891 -0.2516
48961SOL     OW51567   3.543   1.162   2.830 -0.2726  0.2569  0.1653
48961SOL    HW151568   3.562   1.078   2.787 -1.7407 -1.3709  2.4822
48961SOL    HW251569   3.472   1.200   2.777  1.5329  0.9600 -1.9003
48962SOL     OW51570   4.019   8.013   8.826 -0.4340 -0.5047 -0.2227
48962SOL    HW151571   4.037   7.927   8.790 -0.5538 -0.4217 -0.4807
48962SOL    HW251572   3.998   8.068   8.750 -1.9424 -0.6310  0.0609
48963SOL     OW51573   1.273   9.587   9.120  0.2225 -0.1218  0.2741
48963SOL    HW151574   1.236   9.627   9.042  0.8149 -1.6567 -0.8459
48963SOL    HW251575   1.198   9.550   9.166  0.0722 -1.1685 -0.7616
48964SOL     OW51576   8.482   2.956  11.326  0.0400  0.3398 -0.7063
48964SOL    HW151577   8.447   2.867  11.323 -1.0945  0.6433  1.4023
48964SOL    HW251578   8.576   2.945  11.313 -0.1449 -1.0806 -1.0953
48965SOL     OW51579   3.416   1.265  11.454 -0.1362 -0.6824  0.4100
48965SOL    HW151580   3.331   1.252  11.413 -0.2070 -0.4912  0.4956
48965SOL    HW251581   3.469   1.191  11.423 -0.1520 -0.4789 -0.1248
48966SOL     OW51582   7.393   9.281   0.571 -0.3483 -0.3744  0.0821
48966SOL    HW151583   7.304   9.317   0.570  0.0031  0.5162  0.3026
48966SOL    HW251584   7.430   9.311   0.654  1.2048  1.8726 -1.3176
48967SOL     OW51585   5.423  11.844   4.443 -0.1410  0.1816  0.1220
48967SOL    HW151586   5.451  11.874   4.530  0.2627  1.4188 -0.4069
48967SOL    HW251587   5.382  11.759   4.459 -0.7650  0.7211  1.6285
48968SOL     OW51588   0.172   5.865   5.258  0.2086 -0.1014  0.2793
48968SOL    HW151589   0.252   5.838   5.213  0.8406  1.7975  0.1703
48968SOL    HW251590   0.163   5.958   5.237 -0.8191  0.2533  2.0681
48969SOL     OW51591  10.132   4.933   0.020  0.3403 -0.2444 -0.6619
48969SOL    HW151592  10.125   4.870  -0.052  0.4792 -1.2248  0.1617
48969SOL    HW251593  10.053   4.919   0.072 -1.6040  2.8990 -2.4635
48970SOL     OW51594   8.250   3.796   9.458  0.0489 -0.1072  0.0657
48970SOL    HW151595   8.163   3.782   9.418  0.0517  0.0745 -0.0045
48970SOL    HW251596   8.311   3.783   9.386  0.3427 -3.6992  0.7902
48971SOL     OW51597   0.903   5.797   9.211  0.0635  0.1906 -0.2015
48971SOL    HW151598   0.889   5.892   9.207  2.5534  0.5771 -1.8480
48971SOL    HW251599   0.960   5.778   9.136 -0.0858 -2.5754  0.2853
48972SOL     OW51600   8.331  10.892   6.397 -0.5959  0.1110 -0.6225
48972SOL    HW151601   8.262  10.951   6.366 -1.3266 -0.9728 -1.0973
48972SOL    HW251602   8.404  10.907   6.337 -0.4911  1.0820 -0.2679
48973SOL     OW51603  10.496   7.567  11.644  0.5282 -0.7082 -0.0697
48973SOL    HW151604  10.480   7.529  11.558 -1.8862 -1.7008  0.7287
48973SOL    HW251605  10.561   7.636  11.629  1.2639 -1.8226 -2.4039
48974SOL     OW51606   2.068   1.415   5.868 -0.2531  0.4187  0.6310
48974SOL    HW151607   1.975   1.396   5.881 -0.7719  1.5215 -1.1048
48974SOL    HW251608   2.085   1.491   5.924 -0.2346 -0.1534  1.4095
48975SOL     OW51609   7.511   0.128   2.796 -0.4419  0.1161  0.3742
48975SOL    HW151610   7.573   0.113   2.867 -0.1800 -0.1518  0.0909
48975SOL    HW251611   7.427   0.137   2.839 -0.4220 -0.9452  0.6462
48976SOL     OW51612   9.674   8.057   8.211  0.2713 -0.1682  0.0873
48976SOL    HW151613   9.700   8.081   8.122  0.6639  1.8250  0.6831
48976SOL    HW251614   9.752   8.073   8.264 -0.5862  0.8640  1.1050
48977SOL     OW51615   4.955   8.216   2.866  0.2483 -0.5992 -0.2441
48977SOL    HW151616   5.016   8.143   2.878 -0.3766 -0.9920  0.6076
48977SOL    HW251617   4.884   8.198   2.928  0.0627  0.7113 -0.0669
48978SOL     OW51618   3.819   9.732   3.651 -0.7421 -0.1439 -0.0650
48978SOL    HW151619   3.774   9.726   3.566 -0.7786 -2.9919  0.0461
48978SOL    HW251620   3.750   9.753   3.714 -0.7880  1.5779 -0.6479
48979SOL     OW51621  11.072   1.776  11.070  0.0630 -0.2057 -0.5046
48979SOL    HW151622  11.034   1.733  11.147  0.0531 -1.8689 -1.3866
48979SOL    HW251623  11.165   1.785  11.090  0.0899 -0.7827 -0.3513
48980SOL     OW51624   1.791   0.435   1.360 -0.2835 -0.0406 -0.0505
48980SOL    HW151625   1.713   0.389   1.392  0.3046 -0.0519  1.4858
48980SOL    HW251626   1.842   0.367   1.316  0.6696 -1.0456  2.3701
48981SOL     OW51627   5.008   5.859   7.716  0.1910  0.4970 -0.4041
48981SOL    HW151628   5.073   5.900   7.659 -1.4162  1.5068 -1.6039
48981SOL    HW251629   4.947   5.930   7.738 -0.6316 -0.4491  0.5103
48982SOL     OW51630   8.198  10.380   3.494  0.0379  0.1621  0.1758
48982SOL    HW151631   8.172  10.433   3.419 -1.9881 -0.6661  0.2174
48982SOL    HW251632   8.197  10.441   3.568 -1.4500  0.3062  0.0811
48983SOL     OW51633  10.609   9.050   5.361 -0.0444  0.3333 -0.5815
48983SOL    HW151634  10.636   9.056   5.452 -4.0450 -0.1961  0.8610
48983SOL    HW251635  10.554   9.127   5.348  1.1655  0.8750 -2.8861
48984SOL     OW51636   6.358   6.562   1.910  0.6801  0.1772  0.2774
48984SOL    HW151637   6.415   6.638   1.925  1.3430 -0.0133 -1.1135
48984SOL    HW251638   6.395   6.519   1.833 -0.3822 -0.8984  0.3372
48985SOL     OW51639   1.861   2.742   8.453 -0.1773  0.3487  0.6830
48985SOL    HW151640   1.878   2.649   8.464  2.3355  0.7204  0.5176
48985SOL    HW251641   1.789   2.746   8.390 -1.2589 -1.4603  1.7169
48986SOL     OW51642   0.526   0.456   4.830 -0.1334  0.1154 -0.1111
48986SOL    HW151643   0.499   0.436   4.740 -0.9443 -1.5417  0.4587
48986SOL    HW251644   0.443   0.468   4.877  0.2832  0.8020  0.4594
48987SOL     OW51645   8.664   7.088   3.928 -0.0993  0.2865 -0.0705
48987SOL    HW151646   8.599   7.151   3.959 -0.2656  0.5002 -0.8209
48987SOL    HW251647   8.693   7.123   3.844  1.5602  0.5930  0.5906
48988SOL     OW51648  10.230  11.667   1.413 -0.5565  0.5834  0.6822
48988SOL    HW151649  10.284  11.630   1.343 -2.2568 -0.1243 -0.3007
48988SOL    HW251650  10.279  11.647   1.493  1.3047  1.1880 -0.2356
48989SOL     OW51651  10.818   3.679  11.354 -0.3679  0.0965  0.0228
48989SOL    HW151652  10.787   3.756  11.401 -0.0445  0.2001  0.0660
48989SOL    HW251653  10.912   3.678  11.368 -0.2598  0.1488 -0.6437
48990SOL     OW51654   9.068   8.728   1.557  0.3973 -0.2123  0.3810
48990SOL    HW151655   9.134   8.684   1.503  0.5298  1.3634 -0.8459
48990SOL    HW251656   8.986   8.683   1.536  0.3196  0.7828 -1.7722
48991SOL     OW51657   4.741   1.470  10.146 -0.4285 -0.5265 -0.4892
48991SOL    HW151658   4.799   1.482  10.222 -0.0903 -0.3239 -0.7786
48991SOL    HW251659   4.696   1.553  10.137 -0.9244 -0.7479 -0.1415
48992SOL     OW51660   9.414  11.949   8.015 -0.3213 -0.0379 -0.4691
48992SOL    HW151661   9.364  11.930   8.094  1.2283 -1.3802  0.2376
48992SOL    HW251662   9.457  12.033   8.033 -0.5927  0.0426 -0.1973
48993SOL     OW51663  11.667  11.761   9.038  0.1047 -0.6999  0.1849
48993SOL    HW151664  11.572  11.763   9.053  0.2434  0.8032  1.0482
48993SOL    HW251665  11.682  11.830   8.974  0.8474  0.6683  1.7623
48994SOL     OW51666   4.577   8.415   3.481 -0.2931  0.1966  0.2792
48994SOL    HW151667   4.482   8.418   3.474 -0.5119  1.1393  2.5733
48994SOL    HW251668   4.602   8.501   3.515  1.4246  0.0941 -0.5991
48995SOL     OW51669   6.009  11.105   2.001  0.0590  0.0619  0.2628
48995SOL    HW151670   6.075  11.138   1.940 -1.5429 -0.4720 -1.8757
48995SOL    HW251671   5.967  11.183   2.036  1.5439  0.3953  1.3860
48996SOL     OW51672  10.512   0.706   3.962 -0.7420  0.1933  0.0609
48996SOL    HW151673  10.543   0.616   3.958  0.8373  0.7509 -0.9338
48996SOL    HW251674  10.418   0.698   3.982 -0.5812 -1.6433  0.2143
48997SOL     OW51675   6.338  10.265   5.084 -0.1209 -0.2052 -0.7159
48997SOL    HW151676   6.313  10.176   5.106  0.5618 -0.2092  0.0875
48997SOL    HW251677   6.263  10.319   5.110  0.4245 -0.2753  1.1580
48998SOL     OW51678   7.556  11.756   5.612 -0.1625 -0.1944  0.7585
48998SOL    HW151679   7.464  11.730   5.615  0.1250 -1.2162  2.1301
48998SOL    HW251680   7.602  11.680   5.577  0.1789  0.3101  0.0739
48999SOL     OW51681  10.325   9.617   8.292  0.1051  0.5483  0.2924
48999SOL    HW151682  10.236   9.625   8.326  0.7404  0.4085  2.0818
48999SOL    HW251683  10.368   9.699   8.318  1.2357 -0.4884  1.8802
49000SOL     OW51684   9.124   5.524   7.775 -0.2548  0.5937 -0.2754
49000SOL    HW151685   9.110   5.433   7.802  1.5423  0.0596 -1.0002
49000SOL    HW251686   9.186   5.518   7.702  1.1575  2.4895  0.6881
49001SOL     OW51687   5.803   5.778   9.986 -0.0411 -0.2999 -0.1269
49001SOL    HW151688   5.853   5.812   9.912  0.8665 -0.9296  0.1789
49001SOL    HW251689   5.841   5.692  10.003 -0.8302 -0.5340  0.5085
49002SOL     OW51690   1.264  11.040  10.708 -0.5568 -0.0268  0.1538
49002SOL    HW151691   1.257  10.974  10.778  0.7862  0.0760  0.4157
49002SOL    HW251692   1.223  11.118  10.745  1.2965  0.4365  1.4147
49003SOL     OW51693   5.150   4.444   7.219 -0.1781 -0.3058 -0.4476
49003SOL    HW151694   5.206   4.497   7.162  0.0238 -0.3884 -0.3271
49003SOL    HW251695   5.077   4.418   7.163 -2.1095  2.9102  0.3271
49004SOL     OW51696  11.101  11.441   2.544 -0.3476  0.4906 -0.9709
49004SOL    HW151697  11.116  11.528   2.581 -2.0029  0.5597 -0.3885
49004SOL    HW251698  11.052  11.457   2.463 -2.7347  0.0708  0.2916
49005SOL     OW51699   9.568   6.774   1.437  0.0202 -0.4821 -0.1091
49005SOL    HW151700   9.478   6.758   1.410 -0.7550  1.1016  1.3373
49005SOL    HW251701   9.593   6.697   1.488 -0.9066 -0.4734  0.3809
49006SOL     OW51702   1.664   2.809   2.214 -0.0397  0.5559 -0.0540
49006SOL    HW151703   1.756   2.815   2.242  0.0183 -0.4555  0.0125
49006SOL    HW251704   1.639   2.899   2.196  1.2150  0.7714 -0.8650
49007SOL     OW51705   6.883   9.056   2.369  0.5495  0.5393 -0.4411
49007SOL    HW151706   6.863   8.964   2.355  0.2600  0.3956  0.7825
49007SOL    HW251707   6.797   9.096   2.388  1.0122  0.4168  2.2824
49008SOL     OW51708   4.462   0.347   1.833 -0.0376  0.6910  0.1475
49008SOL    HW151709   4.486   0.325   1.743 -0.9496  0.2590 -0.0049
49008SOL    HW251710   4.524   0.415   1.858  1.2709 -0.3230 -0.2289
49009SOL     OW51711   6.224   8.813   0.250  0.5959  0.1305 -0.4656
49009SOL    HW151712   6.234   8.831   0.343 -0.8115  0.9323 -0.4454
49009SOL    HW251713   6.198   8.721   0.246 -2.0356  0.7501  0.1910
49010SOL     OW51714   0.026   8.499  11.877 -0.2389  0.0363 -0.0682
49010SOL    HW151715  -0.049   8.445  11.902 -0.4444  0.4905  0.3130
49010SOL    HW251716   0.073   8.446  11.812 -0.5100 -0.5369  0.1942
49011SOL     OW51717   3.163  11.451   3.803 -0.2009  0.0189 -0.3096
49011SOL    HW151718   3.229  11.513   3.833  0.4605 -0.1594 -1.3503
49011SOL    HW251719   3.194  11.366   3.834 -1.1269  0.1757  1.1512
49012SOL     OW51720  11.936   0.443   3.113  0.7189  0.1337  0.1036
49012SOL    HW151721  12.002   0.470   3.176  0.6907  0.1319  0.1330
49012SOL    HW251722  11.853   0.446   3.161  0.8110 -0.7538  0.3316
49013SOL     OW51723   7.624  11.166   9.082  0.2827 -0.3237 -0.1264
49013SOL    HW151724   7.532  11.183   9.064  0.6032 -1.1803 -3.0158
49013SOL    HW251725   7.642  11.217   9.161 -3.0711 -1.5601  1.6462
49014SOL     OW51726  11.377   1.298   9.696 -0.4866 -0.0300 -0.0841
49014SOL    HW151727  11.432   1.303   9.773  2.0167  0.2300 -1.7615
49014SOL    HW251728  11.421   1.354   9.631 -2.8215  0.3114 -1.5174
49015SOL     OW51729   4.973   5.897   9.020 -0.0827  0.3387 -0.4604
49015SOL    HW151730   4.912   5.848   9.074 -2.4665  1.1622 -2.2533
49015SOL    HW251731   5.059   5.860   9.041 -1.1486 -0.8253  2.1956
49016SOL     OW51732   7.962   4.642   3.968  0.2648  0.7566 -0.1677
49016SOL    HW151733   7.905   4.641   3.891 -0.4216  2.0468  0.2943
49016SOL    HW251734   8.017   4.565   3.958 -3.3182 -2.1906  0.7084
49017SOL     OW51735  11.127   6.991   9.482 -0.1769  0.2511 -0.0966
49017SOL    HW151736  11.082   7.064   9.524 -1.0249  0.0862 -0.7006
49017SOL    HW251737  11.125   6.920   9.546 -1.0521  0.1460 -0.2381
49018SOL     OW51738   0.325   1.253   5.814 -0.0895  0.4854  0.3340
49018SOL    HW151739   0.255   1.223   5.756  0.8945 -1.3991  0.0497
49018SOL    HW251740   0.405   1.217   5.775  0.9446  1.7704  1.1942
49019SOL     OW51741   6.442   3.461   0.925 -0.4762 -0.7126  0.2495
49019SOL    HW151742   6.403   3.491   1.007  0.1056  1.3844 -0.1631
49019SOL    HW251743   6.400   3.515   0.858  1.1794 -0.2612 -0.4746
49020SOL     OW51744   9.379   5.101   3.305  0.6618 -0.3682 -0.4636
49020SOL    HW151745   9.395   5.121   3.397  0.1115 -1.2321 -0.1628
49020SOL    HW251746   9.437   5.159   3.257 -0.1007  1.1665  0.3825
49021SOL     OW51747   4.902   3.973   7.246 -0.2129  0.3204  0.1149
49021SOL    HW151748   4.975   4.012   7.197  0.1995 -1.0932 -0.4274
49021SOL    HW251749   4.833   3.960   7.181 -0.4221  0.3084  0.3358
49022SOL     OW51750   0.761   8.111   1.823  0.2155  0.0930 -0.3009
49022SOL    HW151751   0.707   8.119   1.902  0.3308  0.5253 -0.2636
49022SOL    HW251752   0.815   8.033   1.838 -0.1672 -0.1599 -0.2020
49023SOL     OW51753   4.361   5.776   8.884  0.0364 -0.2320  0.6144
49023SOL    HW151754   4.285   5.758   8.940 -1.2868  2.0437 -0.2974
49023SOL    HW251755   4.422   5.823   8.941  0.4236 -1.3159  1.1237
49024SOL     OW51756   9.300   8.843   2.010 -0.0612 -0.0764 -0.2890
49024SOL    HW151757   9.243   8.918   1.992 -1.3291 -1.4009 -2.2097
49024SOL    HW251758   9.253   8.768   1.972  0.2079 -2.2198  3.2048
49025SOL     OW51759   7.550   9.312   1.687 -0.1649 -0.0431 -0.1160
49025SOL    HW151760   7.486   9.344   1.624  0.3645  0.5538 -0.3532
49025SOL    HW251761   7.500   9.302   1.769 -0.5858  0.2980 -0.3264
49026SOL     OW51762  11.264   1.552   5.981  0.1753 -0.2022 -0.4138
49026SOL    HW151763  11.204   1.479   5.996 -0.2792  0.2063 -0.2214
49026SOL    HW251764  11.350   1.517   6.003 -0.3027 -0.0018  1.9731
49027SOL     OW51765   5.398   2.286   3.552 -0.1422 -0.7662 -0.0877
49027SOL    HW151766   5.364   2.358   3.605  1.4076 -1.3775  1.8259
49027SOL    HW251767   5.336   2.279   3.479 -0.7234  2.0273  0.0252
49028SOL     OW51768   1.665   0.264  10.897 -0.0527  0.1396  0.7148
49028SOL    HW151769   1.647   0.173  10.874  0.9109 -0.7319  3.1427
49028SOL    HW251770   1.624   0.276  10.983  1.8014  1.2675  1.5016
49029SOL     OW51771   9.516   5.907   7.117 -0.2242  0.1586  0.1130
49029SOL    HW151772   9.428   5.903   7.080  0.4019  2.1054 -1.7881
49029SOL    HW251773   9.525   5.997   7.149  1.3329  0.2509 -0.4841
49030SOL     OW51774   5.244   0.485   5.193  0.0667 -0.1498 -0.2065
49030SOL    HW151775   5.319   0.425   5.190 -0.0223 -0.3175  0.8568
49030SOL    HW251776   5.167   0.428   5.189 -0.0138 -0.0610  0.0559
49031SOL     OW51777   6.809  11.078   0.366 -0.4158  0.1339  0.4118
49031SOL    HW151778   6.857  11.051   0.289 -1.0746 -1.0332  0.3919
49031SOL    HW251779   6.872  11.070   0.438 -0.4837 -1.1256  0.3486
49032SOL     OW51780   4.156   8.270   0.651  0.9398  0.0428 -0.2503
49032SOL    HW151781   4.153   8.175   0.650  0.9980  0.0198  0.6689
49032SOL    HW251782   4.182   8.292   0.741  1.2343  0.9129 -0.5405
49033SOL     OW51783   1.759  11.218   8.000  0.3627  0.2988  0.0363
49033SOL    HW151784   1.787  11.164   8.074 -0.0804 -0.2703 -0.2056
49033SOL    HW251785   1.702  11.284   8.039  0.7908  0.5073  0.3159
49034SOL     OW51786   0.624   1.604  10.589  0.3558 -0.0758  0.4203
49034SOL    HW151787   0.649   1.545  10.517  1.7835 -1.2381  1.7910
49034SOL    HW251788   0.529   1.614  10.579  0.6411  0.8133 -2.3149
49035SOL     OW51789   2.831   9.482   2.107 -0.4421 -0.0612  0.3931
49035SOL    HW151790   2.749   9.437   2.087 -0.3769  0.6880 -1.8601
49035SOL    HW251791   2.808   9.545   2.175 -1.4282 -0.7644  0.7312
49036SOL     OW51792   1.877   5.723  11.079 -0.5975 -0.3687 -0.1912
49036SOL    HW151793   1.912   5.641  11.114  4.4177  1.8394  0.9037
49036SOL    HW251794   1.852   5.773  11.157  1.6435  1.0214 -0.2641
49037SOL     OW51795   6.451   4.134  10.304  1.0556 -0.8167 -0.4859
49037SOL    HW151796   6.445   4.178  10.219 -0.9035  0.9954  0.4890
49037SOL    HW251797   6.381   4.069  10.303  0.4722 -0.2124  0.0151
49038SOL     OW51798   8.911   3.407   4.204  0.3063  0.1587 -0.4611
49038SOL    HW151799   8.927   3.415   4.298 -1.0011 -2.0438  0.0101
49038SOL    HW251800   8.875   3.492   4.178 -2.1721 -0.1085  1.6978
49039SOL     OW51801   5.548   7.662  11.889 -0.6431 -0.3803  0.0781
49039SOL    HW151802   5.570   7.754  11.903 -0.9325 -0.2800 -0.1088
49039SOL    HW251803   5.599   7.637  11.811  0.4928 -0.7698  0.9144
49040SOL     OW51804   7.888   1.870   8.479 -0.5707 -0.1486  0.2095
49040SOL    HW151805   7.829   1.848   8.552  0.2898  2.5156  1.8911
49040SOL    HW251806   7.833   1.920   8.419 -0.6800 -0.0426  0.3948
49041SOL     OW51807   1.422  10.177   7.775  0.0657  0.0622 -0.3290
49041SOL    HW151808   1.473  10.215   7.703  1.7011 -0.9254  0.2457
49041SOL    HW251809   1.397  10.090   7.743  0.3504 -0.1737  0.0787
49042SOL     OW51810   4.189   7.905   3.624  0.6160 -0.0199  0.1576
49042SOL    HW151811   4.244   7.867   3.555  0.7299 -0.3411  0.4206
49042SOL    HW251812   4.199   7.845   3.698  2.0644  1.3486  1.1511
49043SOL     OW51813   6.260   2.704   0.503 -0.2802 -0.3268 -0.2897
49043SOL    HW151814   6.264   2.659   0.587 -0.2277 -1.2791 -0.7964
49043SOL    HW251815   6.181   2.758   0.509  0.6508  0.9773  1.0180
49044SOL     OW51816   4.012   0.297   5.565  0.9538  0.1312  0.7624
49044SOL    HW151817   4.052   0.244   5.496  1.5826  1.9155 -0.3192
49044SOL    HW251818   4.078   0.300   5.635  0.8616 -0.5760  0.8887
49045SOL     OW51819   8.983   3.766   5.100  0.9118 -0.3189 -0.4643
49045SOL    HW151820   8.955   3.679   5.071  0.5649  0.1466 -1.5811
49045SOL    HW251821   8.969   3.765   5.195 -0.0265 -1.1382 -0.5927
49046SOL     OW51822   6.205  10.238   3.813 -0.3397  0.1946 -0.1695
49046SOL    HW151823   6.211  10.260   3.720 -0.4456  0.6105 -0.0805
49046SOL    HW251824   6.282  10.183   3.830  0.5874  1.4673 -0.1383
49047SOL     OW51825   0.164   7.244   8.687  0.1672 -0.3829  0.0646
49047SOL    HW151826   0.206   7.321   8.649 -2.5789  1.5264  0.6337
49047SOL    HW251827   0.142   7.271   8.776 -1.9835 -1.3304 -0.1300
49048SOL     OW51828   4.196   3.206   8.765  0.0518 -0.5535 -0.3330
49048SOL    HW151829   4.206   3.209   8.860  0.3196 -1.4899 -0.3181
49048SOL    HW251830   4.244   3.282   8.733 -1.8241  1.0312  0.3959
49049SOL     OW51831   2.760   9.600  11.494 -0.2921  0.5753  1.0749
49049SOL    HW151832   2.786   9.513  11.464 -0.3711  0.6327  0.8396
49049SOL    HW251833   2.843   9.647  11.506 -0.2817  1.3582 -1.4449
49050SOL     OW51834   6.696   1.713   9.222  0.1477  0.2453  0.0123
49050SOL    HW151835   6.722   1.686   9.134  0.2420  0.3958 -0.0051
49050SOL    HW251836   6.615   1.763   9.209 -1.0422 -1.5208  0.2019
49051SOL     OW51837   6.779   4.595   7.908  0.1768 -0.0964  0.6421
49051SOL    HW151838   6.806   4.674   7.956 -0.2627  0.0675  0.6308
49051SOL    HW251839   6.805   4.522   7.965  0.9717  0.0382  0.4558
49052SOL     OW51840   2.464   5.304   5.815 -0.0951  0.2234  0.0459
49052SOL    HW151841   2.468   5.337   5.904  1.1125 -2.5389  1.1468
49052SOL    HW251842   2.404   5.230   5.819  1.0003 -0.7809 -1.0735
49053SOL     OW51843   2.530   5.924   5.006  0.5185  0.3389  0.0687
49053SOL    HW151844   2.541   5.866   5.081  0.3279  1.1705  0.7591
49053SOL    HW251845   2.574   6.005   5.032  1.5119  0.2463 -1.2056
49054SOL     OW51846  10.754   9.604  10.697 -0.2773 -0.0195 -0.2716
49054SOL    HW151847  10.818   9.658  10.743 -0.0371 -0.5367  0.0057
49054SOL    HW251848  10.760   9.518  10.738 -0.2919 -0.4055 -1.0542
49055SOL     OW51849   8.598   6.858   4.048 -0.0891 -0.0214  0.1385
49055SOL    HW151850   8.636   6.923   3.989 -0.5543  1.1458  1.0960
49055SOL    HW251851   8.653   6.860   4.126 -1.1448  0.5659  0.9011
49056SOL     OW51852   5.737   7.328   0.908 -0.4325  0.0126 -0.2442
49056SOL    HW151853   5.715   7.310   0.817  2.0916 -0.2899 -0.8526
49056SOL    HW251854   5.658   7.305   0.956 -1.5268 -0.6810 -2.2496
49057SOL     OW51855   3.976  11.362   9.617  0.5839 -0.2077 -0.2557
49057SOL    HW151856   4.016  11.277   9.599  0.1247 -0.2705 -1.0253
49057SOL    HW251857   4.033  11.401   9.683  1.0008 -0.9639 -0.1518
49058SOL     OW51858  11.013   4.664  11.097  0.4640 -0.3472  0.2405
49058SOL    HW151859  10.962   4.632  11.023  1.8415 -0.4815 -0.6944
49058SOL    HW251860  11.031   4.587  11.150 -3.2037  0.1460  2.5756
49059SOL     OW51861   8.355   8.172   4.612 -0.5556  0.1753  0.3494
49059SOL    HW151862   8.372   8.177   4.706  1.4725  2.5440 -0.0252
49059SOL    HW251863   8.436   8.203   4.571 -1.6723  0.0569 -2.1651
49060SOL     OW51864   4.886   1.579   1.859 -0.3875 -0.4267  0.2511
49060SOL    HW151865   4.886   1.626   1.942 -0.1826 -1.6174  0.9454
49060SOL    HW251866   4.890   1.487   1.883 -1.1573 -0.8304 -1.0755
49061SOL     OW51867   8.694   3.024  10.339 -0.1605 -0.2416  0.4812
49061SOL    HW151868   8.652   3.054  10.258 -3.1474  1.2063  2.3676
49061SOL    HW251869   8.636   2.956  10.373 -0.5010  1.0216  2.6549
49062SOL     OW51870   8.585   4.985   3.809  0.4728  0.0298 -0.2559
49062SOL    HW151871   8.615   5.049   3.874 -0.2519 -0.1266  0.2472
49062SOL    HW251872   8.513   4.939   3.853  0.6960 -0.8231 -0.7764
49063SOL     OW51873   9.497  11.885   5.363 -0.3785  0.2074 -0.0775
49063SOL    HW151874   9.439  11.905   5.290 -1.3208 -0.2730  0.5232
49063SOL    HW251875   9.528  11.971   5.392  2.4927  0.3308 -2.9308
49064SOL     OW51876   4.188   3.960   1.713 -0.0303 -0.1204 -0.0738
49064SOL    HW151877   4.229   4.019   1.776 -0.8350  0.7740 -0.3795
49064SOL    HW251878   4.098   3.991   1.705 -0.2708 -0.9516 -0.7794
49065SOL     OW51879  10.465   6.662   6.949  0.2973 -0.0649 -0.0358
49065SOL    HW151880  10.445   6.755   6.938 -0.5607  0.0595  2.0630
49065SOL    HW251881  10.447   6.623   6.863  1.9333  1.8586 -1.3478
49066SOL     OW51882   2.600   1.408   7.270  0.2304  0.2049 -0.5466
49066SOL    HW151883   2.646   1.363   7.341 -0.0093 -0.0865 -0.5741
49066SOL    HW251884   2.629   1.364   7.190  2.7283  2.3562 -0.9562
49067SOL     OW51885   0.100   2.551   9.928 -0.2114 -0.0500 -0.4987
49067SOL    HW151886   0.100   2.619   9.860  2.0742 -0.5717 -1.1054
49067SOL    HW251887   0.027   2.493   9.904 -0.2068  0.4528 -1.7960
49068SOL     OW51888  10.727   8.948  11.285 -0.5261  0.6067 -0.6008
49068SOL    HW151889  10.728   8.912  11.373  1.9009 -0.1635 -0.8792
49068SOL    HW251890  10.723   8.871  11.228 -1.6819  1.0831 -1.1987
49069SOL     OW51891   5.452   5.260   9.444  0.3171 -0.4555 -0.1425
49069SOL    HW151892   5.395   5.221   9.378 -0.4475 -3.0212  1.8931
49069SOL    HW251893   5.395   5.277   9.519  1.7430 -0.7279  1.0465
49070SOL     OW51894   9.148   6.055  11.347  0.1782  0.0303 -0.1164
49070SOL    HW151895   9.218   6.104  11.303 -0.9280  1.0901 -0.7699
49070SOL    HW251896   9.104   6.121  11.401 -1.1057 -0.3050 -0.7138
49071SOL     OW51897   8.984   9.273   7.295  0.1441  0.2688  0.1702
49071SOL    HW151898   9.029   9.346   7.337  1.0096 -0.0662 -0.1589
49071SOL    HW251899   8.903   9.264   7.344 -0.9197  2.6826 -0.9280
49072SOL     OW51900   2.641   3.299   1.020 -0.2845  0.2185 -0.5162
49072SOL    HW151901   2.670   3.210   1.003 -0.5471 -0.3205  1.5746
49072SOL    HW251902   2.578   3.291   1.091  0.0546  2.1224  0.0671
49073SOL     OW51903  11.936  10.911   9.234 -0.3961  0.1300  0.3772
49073SOL    HW151904  11.999  10.848   9.198 -0.8508 -0.9765  1.4695
49073SOL    HW251905  11.973  10.997   9.211  0.1663 -0.5021 -1.2530
49074SOL     OW51906   8.067   9.702   5.598 -0.0019 -0.5824 -0.1496
49074SOL    HW151907   8.108   9.666   5.677  1.0240 -0.7462 -0.7243
49074SOL    HW251908   8.107   9.788   5.587  1.7949 -1.5411 -1.8269
49075SOL     OW51909   2.806   7.282   9.466 -0.4573  0.3319  0.1006
49075SOL    HW151910   2.721   7.294   9.424  0.1842  1.4521 -0.9254
49075SOL    HW251911   2.818   7.360   9.520 -0.6618 -0.4568  1.3280
49076SOL     OW51912  11.776   3.718   0.605  0.1165 -0.5337 -0.1570
49076SOL    HW151913  11.786   3.745   0.514  3.6908 -1.7695 -0.3085
49076SOL    HW251914  11.802   3.795   0.656 -1.7055  0.0991 -0.1380
49077SOL     OW51915   0.106  10.282  10.649  0.6615  0.3823  0.6549
49077SOL    HW151916   0.122  10.366  10.691  1.6133  0.1693  0.7557
49077SOL    HW251917   0.193  10.242  10.641  0.5061  0.3578 -1.4373
49078SOL     OW51918   7.029   3.878   5.692  0.5887  0.0531  0.2144
49078SOL    HW151919   7.047   3.961   5.736  1.2049  0.2087 -0.3162
49078SOL    HW251920   7.015   3.902   5.601 -0.5961 -0.2760  0.2964
49079SOL     OW51921   0.075   1.101  10.360 -0.0143 -0.2137 -0.1360
49079SOL    HW151922   0.143   1.058  10.308 -1.0086  0.3500 -2.0183
49079SOL    HW251923  -0.003   1.098  10.304 -2.0698 -2.3011  2.5545
49080SOL     OW51924   3.468   8.972   5.600 -0.0430 -0.4260  0.3367
49080SOL    HW151925   3.386   8.940   5.638 -0.1109  0.8878  1.3708
49080SOL    HW251926   3.473   8.928   5.515 -2.9011  0.9786 -0.7131
49081SOL     OW51927   4.998   9.950   5.936  0.0565 -0.0254 -0.3156
49081SOL    HW151928   5.059  10.023   5.938 -0.1425  0.2080 -1.5532
49081SOL    HW251929   4.912   9.990   5.920 -0.0467 -0.5126 -1.0689
49082SOL     OW51930   7.544   7.316   7.318  0.4061  0.2608 -0.1715
49082SOL    HW151931   7.541   7.410   7.300 -1.7932  0.1021 -0.9842
49082SOL    HW251932   7.637   7.294   7.320  0.9321  2.1504 -1.6973
49083SOL     OW51933   2.796   3.121   7.716  0.7386 -0.2416  0.0402
49083SOL    HW151934   2.780   3.026   7.720  3.0995 -0.6894  0.4972
49083SOL    HW251935   2.818   3.137   7.624 -1.6387  0.3041 -0.5047
49084SOL     OW51936   6.109   7.471  11.596  0.2629 -0.0013 -0.2183
49084SOL    HW151937   6.127   7.377  11.599  1.9425  0.1766 -2.4709
49084SOL    HW251938   6.172   7.509  11.657  0.3067 -0.2388 -0.1128
49085SOL     OW51939   3.121   1.894   7.060 -0.3694 -0.3854 -0.4209
49085SOL    HW151940   3.072   1.954   7.005 -0.0446 -0.2284 -0.5364
49085SOL    HW251941   3.213   1.912   7.041 -0.2481 -0.2128  0.2862
49086SOL     OW51942  10.114   5.708  10.914 -0.0758 -0.2838  0.2516
49086SOL    HW151943  10.099   5.694  10.820  1.1626  0.3555 -0.0570
49086SOL    HW251944  10.098   5.623  10.954  1.9216 -1.2476 -0.8713
49087SOL     OW51945   5.330   1.909   9.954  0.0375 -0.2157  0.3680
49087SOL    HW151946   5.410   1.954   9.930  0.3716 -0.7825  0.3958
49087SOL    HW251947   5.332   1.905  10.050  0.2751 -0.7540  0.3440
49088SOL     OW51948   9.322   2.415  11.453 -0.4824  0.1316  0.1216
49088SOL    HW151949   9.288   2.343  11.400 -1.7803  0.2868  0.6906
49088SOL    HW251950   9.252   2.481  11.451  0.3456  1.0368  0.2773
49089SOL     OW51951   2.403   1.265   3.543  0.5336  0.4544 -0.7087
49089SOL    HW151952   2.469   1.276   3.474  0.1068  1.1960 -1.0097
49089SOL    HW251953   2.364   1.352   3.553 -0.1566  0.1047 -0.2803
49090SOL     OW51954   8.638   6.492   6.428 -0.3363 -0.0630  0.4543
49090SOL    HW151955   8.733   6.488   6.426 -0.2618  0.2682  2.1103
49090SOL    HW251956   8.618   6.585   6.436 -0.8439 -0.0536 -0.7549
49091SOL     OW51957   5.158  11.517   6.065  0.7963 -0.2304  0.6368
49091SOL    HW151958   5.251  11.493   6.058  1.1051  1.2210 -0.6914
49091SOL    HW251959   5.148  11.543   6.156  2.1528  1.2443  0.4107
49092SOL     OW51960   3.157   6.177   5.082 -0.3044 -0.0584  0.4945
49092SOL    HW151961   3.090   6.228   5.035 -0.4221 -1.6819 -1.1966
49092SOL    HW251962   3.217   6.244   5.115 -0.5524  1.2434 -1.4625
49093SOL     OW51963   0.354  10.522   0.664 -1.0813  0.3583 -0.0579
49093SOL    HW151964   0.366  10.433   0.632  1.4062  0.1739  1.1965
49093SOL    HW251965   0.280  10.516   0.725 -0.4104 -1.0529  0.6615
49094SOL     OW51966   9.929   1.382  11.772  0.3128 -0.0062 -0.3704
49094SOL    HW151967   9.946   1.341  11.687  1.8672 -0.0007 -0.0973
49094SOL    HW251968   9.882   1.315  11.822 -0.8981  0.1059 -1.3131
49095SOL     OW51969   3.164  11.768   3.522  0.2764  0.3688 -0.1257
49095SOL    HW151970   3.193  11.805   3.605  0.8155 -0.9714  0.3166
49095SOL    HW251971   3.081  11.811   3.504  1.1521  2.2179  0.0237
49096SOL     OW51972   4.619   6.152   2.508  0.0535 -0.4775 -0.2113
49096SOL    HW151973   4.626   6.131   2.415  0.0927 -1.5734  0.0285
49096SOL    HW251974   4.547   6.097   2.540 -0.7734  0.7581  0.1768
49097SOL     OW51975   1.775  11.716   1.822 -0.6772  0.1685  0.1324
49097SOL    HW151976   1.832  11.741   1.750  1.3853 -0.1452  1.5825
49097SOL    HW251977   1.712  11.788   1.828 -0.1203  0.8066 -1.1580
49098SOL     OW51978  10.477   9.986   9.256  0.0194  0.3026  0.1116
49098SOL    HW151979  10.478  10.004   9.162  0.1195  1.7695  0.3647
49098SOL    HW251980  10.525   9.904   9.266  2.0139  1.2950 -0.8972
49099SOL     OW51981   2.466   3.237  11.878  0.1443  0.0804  0.2775
49099SOL    HW151982   2.393   3.240  11.817  0.5160  0.0210 -0.1765
49099SOL    HW251983   2.540   3.274  11.829  0.8294 -1.4011  0.1555
49100SOL     OW51984   6.970   3.386   1.831 -0.1778  0.5093 -0.2750
49100SOL    HW151985   6.945   3.294   1.830 -0.2021  0.5113  0.0147
49100SOL    HW251986   7.035   3.394   1.761 -0.2994  0.3082 -0.4127
49101SOL     OW51987   1.961  11.867   6.644 -0.2262  0.5448  0.6070
49101SOL    HW151988   2.028  11.864   6.576  0.6237  1.3657  1.3736
49101SOL    HW251989   1.939  11.775   6.661  1.4852  0.1824  1.0643
49102SOL     OW51990   5.029   3.835   8.678  0.0145  0.0737 -0.3274
49102SOL    HW151991   5.071   3.760   8.721 -2.7151 -1.7638 -0.6222
49102SOL    HW251992   4.955   3.856   8.734 -0.6565  1.0065 -1.5154
49103SOL     OW51993   4.551   3.872  10.597  0.4392  0.1045 -0.2046
49103SOL    HW151994   4.604   3.951  10.583 -0.8648  0.7478 -1.9577
49103SOL    HW251995   4.585   3.809  10.533 -0.7900  0.4975 -1.2914
49104SOL     OW51996   3.941   2.879  11.759  0.0438  0.1226  0.2210
49104SOL    HW151997   3.914   2.800  11.712 -1.1177  1.1317 -0.8889
49104SOL    HW251998   4.028   2.858  11.793  0.4338 -1.0895 -1.4000
49105SOL     OW51999   1.227   2.683  10.467 -0.2434 -0.0888 -0.4713
49105SOL    HW152000   1.139   2.720  10.468 -1.1023 -1.9205 -2.2201
49105SOL    HW252001   1.225   2.613  10.534  0.1745  0.4137  0.0826
49106SOL     OW52002   5.374   6.132   3.898 -0.7660  0.3511 -0.1597
49106SOL    HW152003   5.447   6.070   3.889  1.4207  2.5565  0.9466
49106SOL    HW252004   5.301   6.079   3.929  0.9840 -1.7095  0.7246
49107SOL     OW52005   5.379   4.242  11.089  0.3325 -0.0985  0.5863
49107SOL    HW152006   5.386   4.286  11.004  1.3765  0.4050  0.9186
49107SOL    HW252007   5.428   4.298  11.149  0.1968 -0.8152  1.3842
49108SOL     OW52008  11.789   6.282   4.316  0.3530  0.4612 -0.2138
49108SOL    HW152009  11.791   6.209   4.379  1.1904 -1.4447 -2.3041
49108SOL    HW252010  11.880   6.294   4.291  0.0656  1.4028 -0.8401
49109SOL     OW52011   0.589  11.897   1.992 -0.2865 -0.4980 -0.7680
49109SOL    HW152012   0.641  11.826   2.030 -0.1924 -0.4083 -0.7284
49109SOL    HW252013   0.647  11.973   1.995 -1.1805  0.1914  1.4260
49110SOL     OW52014   0.118   1.342   0.012  0.0707  0.2888 -0.0473
49110SOL    HW152015   0.094   1.251   0.034  0.6649 -0.0247 -0.6631
49110SOL    HW252016   0.190   1.333  -0.050 -0.0135  1.1889 -0.2831
49111SOL     OW52017   1.092   1.631   2.797 -0.2896 -0.8188  0.4913
49111SOL    HW152018   1.132   1.670   2.719 -0.4881 -1.1421  0.2271
49111SOL    HW252019   1.151   1.657   2.868 -1.9473  2.5012  0.8532
49112SOL     OW52020   3.804   7.549   5.859  0.1991 -0.2533 -0.3910
49112SOL    HW152021   3.853   7.575   5.781 -0.2737  0.4713 -0.4543
49112SOL    HW252022   3.726   7.504   5.824 -1.0356  1.8071 -0.4423
49113SOL     OW52023  11.723   9.552   9.113  0.3431 -0.2640 -0.2839
49113SOL    HW152024  11.680   9.539   9.198 -0.4417 -1.0107 -0.7746
49113SOL    HW252025  11.760   9.640   9.118 -0.8340  0.2198  0.3435
49114SOL     OW52026   9.764   4.864  10.914  0.1331  0.3401 -0.5688
49114SOL    HW152027   9.678   4.831  10.939 -0.9175  2.2854 -1.3636
49114SOL    HW252028   9.824   4.828  10.979 -1.4898  0.0092  0.8092
49115SOL     OW52029  11.096   2.579   4.415 -0.6186  0.1664 -0.0561
49115SOL    HW152030  11.174   2.524   4.420 -0.3323  0.5869  0.1225
49115SOL    HW252031  11.059   2.560   4.328  1.8780  2.8655 -1.8842
49116SOL     OW52032   1.607   8.157   5.292 -0.1937 -0.3614 -0.1291
49116SOL    HW152033   1.614   8.062   5.297  0.8189 -0.3681 -1.0897
49116SOL    HW252034   1.589   8.175   5.200 -0.8684  0.3643  0.1313
49117SOL     OW52035   9.987   4.012  11.796  0.4800  0.2049  0.2600
49117SOL    HW152036   9.892   4.017  11.781  0.1913 -0.4110  1.6821
49117SOL    HW252037  10.005   3.919  11.806  1.3173  0.2854 -0.4327
49118SOL     OW52038  11.700   1.497   2.083  0.3153  0.5977  0.2139
49118SOL    HW152039  11.744   1.582   2.091  0.4066  0.8897 -2.3313
49118SOL    HW252040  11.609   1.515   2.104  0.4775  1.1551  0.4731
49119SOL     OW52041   2.701   5.532  10.128 -0.0257  0.0344  0.2325
49119SOL    HW152042   2.666   5.598  10.188  1.1333  1.8036 -0.9444
49119SOL    HW252043   2.625   5.504  10.076 -0.7617 -0.5019  1.5416
49120SOL     OW52044  10.293   0.532   9.356  0.1793  0.0806  0.2572
49120SOL    HW152045  10.331   0.612   9.394 -0.0755  0.7089 -0.7646
49120SOL    HW252046  10.369   0.483   9.324  0.3270 -0.0351  0.7642
49121SOL     OW52047   7.684  10.267   8.822 -0.1372 -0.1115 -0.1446
49121SOL    HW152048   7.727  10.196   8.773  0.7607  0.1655  0.2120
49121SOL    HW252049   7.729  10.346   8.793 -0.3594  0.1815  0.3009
49122SOL     OW52050  10.513   6.605   1.206 -0.6801  0.0851  0.7851
49122SOL    HW152051  10.564   6.659   1.146  0.1111 -0.8297  0.6213
49122SOL    HW252052  10.518   6.517   1.171 -1.3955 -0.2275  1.4224
49123SOL     OW52053   9.041   4.365  11.962 -0.3244  0.0347  0.6777
49123SOL    HW152054   8.951   4.375  11.993 -1.6626  0.3413 -2.8482
49123SOL    HW252055   9.034   4.309  11.885  2.8864 -1.7752  1.5348
49124SOL     OW52056   1.385   4.313   5.786 -0.3501  0.0570  0.3369
49124SOL    HW152057   1.432   4.254   5.727 -0.2529  0.1112  0.3611
49124SOL    HW252058   1.442   4.323   5.861  0.0144  0.8547 -0.0348
49125SOL     OW52059   9.436   0.806  10.415  0.0749 -0.2087  0.7590
49125SOL    HW152060   9.470   0.889  10.383 -0.6625  0.3658  1.4058
49125SOL    HW252061   9.444   0.813  10.511 -1.0977 -0.3675  0.8877
49126SOL     OW52062   1.763   6.744   3.276 -0.4499 -0.1412  0.1988
49126SOL    HW152063   1.823   6.805   3.234 -0.1585 -0.0056  0.7890
49126SOL    HW252064   1.705   6.714   3.206 -0.6503  0.8724 -0.0867
49127SOL     OW52065   5.565   2.016   3.895  0.3438 -0.6325 -0.8467
49127SOL    HW152066   5.533   2.003   3.984 -0.1425 -0.3184 -0.9754
49127SOL    HW252067   5.516   2.091   3.862 -0.9807 -1.9823 -2.0950
49128SOL     OW52068   4.158   8.713   8.015 -0.3508  0.1722  0.5071
49128SOL    HW152069   4.174   8.656   7.939 -1.0975  0.4702  0.1177
49128SOL    HW252070   4.063   8.721   8.019 -0.2833  0.6813  1.0908
49129SOL     OW52071   9.383   4.989   6.986 -0.3133  0.1814 -0.0790
49129SOL    HW152072   9.430   5.009   7.068  0.0998  0.5089 -0.3876
49129SOL    HW252073   9.453   4.972   6.923 -0.6133 -2.8098  0.2652
49130SOL     OW52074   4.956  10.734   8.720  0.3188  0.3122 -0.4071
49130SOL    HW152075   4.884  10.671   8.714  2.0036 -1.5438 -2.8472
49130SOL    HW252076   4.979  10.735   8.813 -0.0192 -2.4413 -0.2135
49131SOL     OW52077   1.347   6.958   1.136 -0.1962  0.3346 -0.0283
49131SOL    HW152078   1.296   7.034   1.107 -1.4365 -0.3090  0.3984
49131SOL    HW252079   1.407   6.940   1.064  1.3141  2.7270  0.5197
49132SOL     OW52080   1.810   2.858  11.194  0.2882  0.5919 -0.0552
49132SOL    HW152081   1.763   2.882  11.115 -1.3023 -0.9974  0.3504
49132SOL    HW252082   1.887   2.811  11.163 -0.8726 -0.9681 -0.6774
49133SOL     OW52083   5.969   6.654   5.787  0.1825 -0.5299  0.1306
49133SOL    HW152084   5.890   6.686   5.744  0.2923  0.4169  0.6221
49133SOL    HW252085   5.946   6.566   5.816 -1.0958  0.1549  1.3000
49134SOL     OW52086   2.548   0.906   8.857  0.3144 -0.0281 -0.0574
49134SOL    HW152087   2.490   0.866   8.922  0.8591  0.3148  0.6557
49134SOL    HW252088   2.513   0.994   8.845 -0.5507 -0.5217 -1.2029
49135SOL     OW52089  10.385   3.901   9.822 -0.0655 -0.1691  0.4808
49135SOL    HW152090  10.396   3.806   9.825  0.8997 -0.1181 -0.6288
49135SOL    HW252091  10.470   3.936   9.849 -0.5208  0.3933  1.2200
49136SOL     OW52092   4.773   8.713   1.854  0.0368 -0.2214  0.0646
49136SOL    HW152093   4.803   8.663   1.778 -1.5232 -0.9694 -0.0887
49136SOL    HW252094   4.762   8.802   1.820 -0.4692 -0.5115 -0.5541
49137SOL     OW52095   0.181   2.759   7.437  0.2225  0.7785  0.2160
49137SOL    HW152096   0.186   2.796   7.525 -0.5517  0.8236  0.2465
49137SOL    HW252097   0.106   2.802   7.397  1.1736  1.5037 -0.8272
49138SOL     OW52098   9.564   4.896   4.864  0.2254 -0.1830 -0.4301
49138SOL    HW152099   9.541   4.807   4.890  0.0385 -0.4093 -1.3554
49138SOL    HW252100   9.536   4.903   4.773  0.2954  0.8042 -0.3868
49139SOL     OW52101   6.090  11.116   2.367  0.1733 -0.2664 -0.3464
49139SOL    HW152102   6.109  11.207   2.391 -0.3513  0.2473 -1.7523
49139SOL    HW252103   6.168  11.087   2.319  0.2494 -0.4930 -0.0883
49140SOL     OW52104   4.093   1.935  11.249 -0.2088 -0.0920  0.1295
49140SOL    HW152105   4.163   1.989  11.285 -0.0743  0.3168 -0.7245
49140SOL    HW252106   4.078   1.867  11.315  2.4497 -1.4828 -0.5838
49141SOL     OW52107   5.242   1.324   7.861 -0.2110  0.6852 -0.6125
49141SOL    HW152108   5.254   1.388   7.791 -1.7933  0.7723 -0.8417
49141SOL    HW252109   5.278   1.366   7.939  0.2117  1.1988 -1.0779
49142SOL     OW52110   6.704   6.467   0.103  0.5255 -0.2084 -0.1363
49142SOL    HW152111   6.610   6.450   0.113  0.4823  0.9249  1.9852
49142SOL    HW252112   6.716   6.482   0.010 -1.3636 -0.5774 -0.4832
49143SOL     OW52113   5.177   6.623   5.620  0.5394  0.3818 -0.1785
49143SOL    HW152114   5.094   6.585   5.650  1.6743 -1.9215  0.2524
49143SOL    HW252115   5.217   6.554   5.567  2.5956  1.1036  0.3542
49144SOL     OW52116   6.815   8.707   2.642  0.0161 -0.0658  0.0505
49144SOL    HW152117   6.790   8.649   2.714  2.9508 -0.2178  1.0753
49144SOL    HW252118   6.843   8.648   2.572 -1.1022  0.1136 -0.5744
49145SOL     OW52119   4.504   8.590   1.185 -0.1923  0.1421  0.2115
49145SOL    HW152120   4.587   8.637   1.193 -0.4519  0.6226  0.1487
49145SOL    HW252121   4.524   8.501   1.214  0.3355  0.2594  0.2292
49146SOL     OW52122   8.232   6.836   5.069 -0.2361  0.3894  0.0226
49146SOL    HW152123   8.282   6.787   5.004  1.1906 -0.0358  1.3747
49146SOL    HW252124   8.244   6.928   5.045  1.5981  0.3245  0.5310
49147SOL     OW52125   0.878   9.401   8.706 -0.0013 -0.1605 -0.6391
49147SOL    HW152126   0.807   9.355   8.661  0.6609 -1.3603 -0.4706
49147SOL    HW252127   0.958   9.361   8.674  0.4995 -1.0520  1.5557
49148SOL     OW52128   6.851   1.709   7.853  0.1897 -0.4646  0.3194
49148SOL    HW152129   6.861   1.804   7.846  0.3520 -0.1104  3.6401
49148SOL    HW252130   6.915   1.682   7.919  0.2897 -2.9526 -0.6690
49149SOL     OW52131   6.939  10.950   2.448  0.4598  0.2537 -0.5564
49149SOL    HW152132   6.889  10.891   2.505 -0.4714  1.0078 -0.5685
49149SOL    HW252133   6.873  11.008   2.411  1.1260  0.0942 -2.0283
49150SOL     OW52134   5.279   6.804   4.263 -0.4711  0.5162  0.3983
49150SOL    HW152135   5.317   6.780   4.348  0.5855  1.5298  0.2386
49150SOL    HW252136   5.186   6.818   4.281 -0.0965  1.6866  1.6139
49151SOL     OW52137   4.664  11.207   1.900 -0.0150  0.5716 -0.5168
49151SOL    HW152138   4.717  11.247   1.831  1.1013  0.7689  0.4363
49151SOL    HW252139   4.694  11.117   1.905 -1.0106  0.1869 -1.1623
49152SOL     OW52140  10.143   1.348  11.508 -0.0464 -0.4197  0.1092
49152SOL    HW152141  10.168   1.326  11.418  1.1060 -0.4853  0.4319
49152SOL    HW252142  10.199   1.421  11.531 -0.3921 -0.3509  0.7559
49153SOL     OW52143   6.647   9.650   1.405 -0.5649  0.5846 -0.1005
49153SOL    HW152144   6.738   9.675   1.387  0.0408 -1.3142  0.0421
49153SOL    HW252145   6.612   9.624   1.320  0.0192 -1.5214  0.2387
49154SOL     OW52146   4.223   9.567   9.684 -0.1834  0.1835 -0.1150
49154SOL    HW152147   4.242   9.525   9.767  0.7824  0.1606 -0.3285
49154SOL    HW252148   4.255   9.506   9.618 -1.5802 -0.1237 -0.5510
49155SOL     OW52149  10.867  10.811   2.539  0.4819 -0.3609  0.3419
49155SOL    HW152150  10.848  10.741   2.601 -1.1036  0.4183  0.7858
49155SOL    HW252151  10.831  10.890   2.580 -0.4622  0.2063 -1.4967
49156SOL     OW52152   4.076   7.818   8.356 -0.1763 -0.1777  0.1872
49156SOL    HW152153   4.141   7.779   8.413  3.8169  1.4616 -2.8011
49156SOL    HW252154   4.055   7.750   8.292 -0.5724 -0.3365  0.4784
49157SOL     OW52155  11.270   8.658   1.782  0.4649  0.4043  0.3024
49157SOL    HW152156  11.295   8.572   1.816  1.3726  0.9255  1.0318
49157SOL    HW252157  11.300   8.658   1.691  1.9863  0.5087  0.7647
49158SOL     OW52158   8.095  10.613  11.558 -0.4207 -0.4481 -0.2897
49158SOL    HW152159   8.043  10.682  11.518 -0.8750 -0.8132 -0.3386
49158SOL    HW252160   8.038  10.536  11.557 -0.1628 -0.6563  0.3698
49159SOL     OW52161   8.319  10.054   4.207  0.1322  0.4633 -0.1699
49159SOL    HW152162   8.370  10.035   4.128  0.6721 -1.8264  0.6423
49159SOL    HW252163   8.239  10.095   4.174  0.3099 -0.4936 -1.9409
49160SOL     OW52164   8.180  11.102  10.732  0.8834  0.5251  0.1154
49160SOL    HW152165   8.098  11.104  10.682  1.9018 -1.8142 -1.8588
49160SOL    HW252166   8.214  11.191  10.726 -1.6868  1.7370  1.4581
49161SOL     OW52167   3.893   0.948   5.918  0.6641 -0.3959  0.4502
49161SOL    HW152168   3.867   0.978   5.831 -0.8464  2.2987  1.6951
49161SOL    HW252169   3.812   0.917   5.958  0.7253  1.0374  1.8003
49162SOL     OW52170   8.264   1.647   2.179  0.3882 -0.2816  0.2418
49162SOL    HW152171   8.296   1.690   2.259 -1.1267 -0.2936  0.8934
49162SOL    HW252172   8.170   1.641   2.192  0.3742 -2.4515 -0.4955
49163SOL     OW52173   2.467   2.757   7.499  0.4361  0.5964 -0.0101
49163SOL    HW152174   2.426   2.781   7.582  0.8010  0.9027  0.0875
49163SOL    HW252175   2.427   2.674   7.475  2.9332 -1.4694  2.3420
49164SOL     OW52176   5.313   3.318   7.917 -0.0328  0.0781  0.1161
49164SOL    HW152177   5.297   3.324   7.823  0.7489  1.3343  0.0544
49164SOL    HW252178   5.231   3.282   7.952  0.5149 -2.7953 -1.2872
49165SOL     OW52179   3.459   7.950   0.225  0.1521  0.2525 -0.0133
49165SOL    HW152180   3.396   8.008   0.182  0.9995 -0.5547 -2.5205
49165SOL    HW252181   3.414   7.866   0.230 -0.4112  0.6085  1.9920
49166SOL     OW52182   1.346  10.632   5.234  0.0149 -0.5000  0.0087
49166SOL    HW152183   1.410  10.615   5.303 -1.1557 -0.8995  1.0316
49166SOL    HW252184   1.330  10.546   5.194 -0.0481 -0.4384 -0.0989
49167SOL     OW52185   5.199   4.159   7.244  0.0799 -0.3420  0.0243
49167SOL    HW152186   5.137   4.139   7.175 -0.0366 -0.7588  0.2448
49167SOL    HW252187   5.198   4.254   7.251  0.5191 -0.2548 -0.9286
49168SOL     OW52188   7.873   1.992   8.068 -0.5926 -0.1001 -0.2494
49168SOL    HW152189   7.945   2.052   8.085 -1.9972  1.7867 -0.7370
49168SOL    HW252190   7.803   2.021   8.126 -2.1440  0.3534 -2.2410
49169SOL     OW52191   8.754   2.099   9.022  0.0582 -0.0747  0.3706
49169SOL    HW152192   8.836   2.125   9.064 -0.4410  1.9875  0.2013
49169SOL    HW252193   8.696   2.175   9.033 -1.2607 -0.8273 -0.9626
49170SOL     OW52194   0.051   1.601   4.767 -0.1053  0.0572 -0.5037
49170SOL    HW152195   0.074   1.657   4.841 -2.3333 -1.9914  1.9184
49170SOL    HW252196   0.126   1.542   4.757  0.0435  0.0747  0.4207
49171SOL     OW52197   4.823   5.325   2.129 -0.1479  0.0281 -0.2215
49171SOL    HW152198   4.779   5.349   2.048 -2.2563 -0.0443  0.8290
49171SOL    HW252199   4.844   5.409   2.171  1.0537  0.0675 -0.8533
49172SOL     OW52200   3.394   0.850   6.576 -0.1142  0.3757  0.3747
49172SOL    HW152201   3.325   0.862   6.641 -0.0704 -0.1821  0.5349
49172SOL    HW252202   3.368   0.771   6.528 -1.2948  1.9225 -1.7660
49173SOL     OW52203  10.507   2.163   6.080 -0.2140 -0.3780 -0.5753
49173SOL    HW152204  10.520   2.217   6.157 -0.5477  1.4725 -1.7509
49173SOL    HW252205  10.412   2.158   6.069 -0.1696 -0.5518 -0.9026
49174SOL     OW52206   6.206  10.920  10.211 -0.1700 -0.0198  0.3336
49174SOL    HW152207   6.154  10.841  10.216  0.7655 -0.7795 -1.0653
49174SOL    HW252208   6.193  10.951  10.121  0.8481  0.4154  0.3204
49175SOL     OW52209   0.501   2.297   9.990  0.3429  0.4007  0.3065
49175SOL    HW152210   0.442   2.304   9.915  2.1025  3.1089 -0.9884
49175SOL    HW252211   0.541   2.384   9.997  2.6429 -0.7112  2.3853
49176SOL     OW52212  10.059   5.358   0.816 -0.0610  1.0534 -0.0215
49176SOL    HW152213  10.012   5.412   0.752 -1.1433 -0.2295 -0.3376
49176SOL    HW252214   9.999   5.287   0.838  0.6646  0.9042  1.6954
49177SOL     OW52215   7.152   8.059   1.894 -0.0207 -0.0314 -0.2714
49177SOL    HW152216   7.198   8.111   1.960 -0.6458  3.2558 -2.2387
49177SOL    HW252217   7.218   8.042   1.827 -0.1408 -0.8062 -0.2075
49178SOL     OW52218   4.426   6.681   1.726 -0.3680  0.7606  0.4403
49178SOL    HW152219   4.402   6.774   1.719 -1.2313  0.4374 -1.8071
49178SOL    HW252220   4.435   6.652   1.635 -1.2328 -1.6322  1.0561
49179SOL     OW52221   1.814   7.741   0.823  0.5473  0.0507 -0.3257
49179SOL    HW152222   1.882   7.762   0.887  0.3015  0.7523 -0.2884
49179SOL    HW252223   1.856   7.752   0.738 -0.2610  3.5527 -0.4481
49180SOL     OW52224   8.183   7.589  10.432 -0.1006  0.3037  0.1922
49180SOL    HW152225   8.141   7.664  10.474  0.1825  0.8808 -0.5368
49180SOL    HW252226   8.164   7.515  10.490 -3.4676  0.2055 -0.8083
49181SOL     OW52227   6.848   6.577   7.368 -0.0704  0.7904 -0.3030
49181SOL    HW152228   6.937   6.556   7.398  0.1824  1.5427 -0.5054
49181SOL    HW252229   6.828   6.509   7.303 -0.2854 -0.3370  0.8981
49182SOL     OW52230   9.392   5.354   6.940 -0.1146 -0.0305 -0.5849
49182SOL    HW152231   9.434   5.349   6.853 -0.2950  0.9645 -0.7311
49182SOL    HW252232   9.302   5.328   6.924 -0.2203  0.4329 -0.7494
49183SOL     OW52233   2.209   0.660   1.854  0.0426  0.4596  0.5914
49183SOL    HW152234   2.304   0.675   1.853  0.1670 -0.3421  0.2037
49183SOL    HW252235   2.172   0.744   1.827  0.6010  1.0242  1.4992
49184SOL     OW52236   9.715   2.712   2.587  0.0314 -0.1613  0.2041
49184SOL    HW152237   9.642   2.664   2.625  0.9533 -1.4324  0.4607
49184SOL    HW252238   9.687   2.803   2.586 -0.7888 -0.3536  2.1205
49185SOL     OW52239   3.465   0.388   7.243 -0.3384  0.3026  0.6963
49185SOL    HW152240   3.474   0.321   7.310 -0.6418  0.0451  0.4812
49185SOL    HW252241   3.388   0.362   7.192  0.0251  0.3664  0.1019
49186SOL     OW52242   0.057   7.423   8.080 -0.1098  0.6509  0.2469
49186SOL    HW152243   0.069   7.348   8.138 -1.0730  0.8027  0.6461
49186SOL    HW252244   0.020   7.386   7.999 -1.1690  0.7621  0.6686
49187SOL     OW52245   9.278  10.509   5.150 -0.4677 -0.6516  0.4357
49187SOL    HW152246   9.364  10.550   5.149 -0.2429 -1.1077  0.5821
49187SOL    HW252247   9.281  10.449   5.225 -0.8910 -0.7107  0.4090
49188SOL     OW52248   2.596   6.599   1.912  0.8127 -0.0514 -0.1238
49188SOL    HW152249   2.688   6.600   1.939  0.7437  1.6590  0.1370
49188SOL    HW252250   2.599   6.606   1.817  0.9680 -2.2756 -0.3306
49189SOL     OW52251   4.601   8.159  10.108 -0.0480  0.8210 -0.6668
49189SOL    HW152252   4.642   8.202  10.034  0.3495  0.5887 -0.5883
49189SOL    HW252253   4.619   8.066  10.094 -0.4334  0.7295 -0.5599
49190SOL     OW52254  10.786   9.398  10.914  0.8256  0.1801 -0.0277
49190SOL    HW152255  10.718   9.375  10.978 -0.3347  1.9813 -0.5479
49190SOL    HW252256  10.860   9.426  10.967  0.7697 -0.6758  0.5341
49191SOL     OW52257   1.391   5.762  11.109 -0.1661  1.2373  0.5226
49191SOL    HW152258   1.404   5.817  11.031 -0.5820  0.3277 -0.2210
49191SOL    HW252259   1.357   5.680  11.074 -0.2456  0.7625  1.6716
49192SOL     OW52260  11.691   3.817   6.279 -0.4605  0.4520 -0.0331
49192SOL    HW152261  11.758   3.825   6.347 -0.5917 -1.6357  0.4143
49192SOL    HW252262  11.622   3.763   6.319 -2.0843  1.8791 -0.7494
49193SOL     OW52263   7.834   2.629   5.067 -1.3791 -0.0327 -0.1501
49193SOL    HW152264   7.831   2.557   5.130  0.3918  0.3821  0.4611
49193SOL    HW252265   7.888   2.596   4.995  3.5018  2.0029  2.1354
49194SOL     OW52266   3.114   1.712   5.505  0.1967  0.2376 -0.7386
49194SOL    HW152267   3.101   1.620   5.482 -0.2042  0.1123 -0.0390
49194SOL    HW252268   3.193   1.713   5.559 -0.9820 -0.0054  1.0411
49195SOL     OW52269   1.460   1.608   2.064 -0.4357  0.3205 -0.1104
49195SOL    HW152270   1.551   1.631   2.045  0.0937 -2.2101 -1.0634
49195SOL    HW252271   1.408   1.673   2.018  0.8983  0.7607 -1.0415
49196SOL     OW52272   0.094   7.715  11.780 -0.1841  0.1847 -0.1336
49196SOL    HW152273   0.150   7.757  11.845 -0.8085  1.7496 -0.5723
49196SOL    HW252274   0.152   7.654  11.734  0.8825  0.9417  0.1796
49197SOL     OW52275   7.029   7.376  11.925  0.0122  0.1762 -0.6839
49197SOL    HW152276   7.069   7.460  11.945  1.0653 -0.6674  0.9271
49197SOL    HW252277   7.100   7.312  11.932 -1.2820 -1.1949  0.9933
49198SOL     OW52278   5.190  11.404   8.094  0.5406  0.3788 -0.2475
49198SOL    HW152279   5.258  11.440   8.151  1.1026 -0.0748 -0.6178
49198SOL    HW252280   5.124  11.473   8.088 -0.3252 -0.0978  2.2365
49199SOL     OW52281   1.771   9.542   0.565  0.3551  0.0809 -0.1416
49199SOL    HW152282   1.815   9.473   0.516 -0.7158  0.1506 -1.2567
49199SOL    HW252283   1.836   9.611   0.574  0.2777  0.5691 -2.5480
49200SOL     OW52284  10.098   5.159   1.553 -0.2837  0.0838  0.0435
49200SOL    HW152285  10.087   5.115   1.637 -0.2379  0.8499  0.4609
49200SOL    HW252286  10.175   5.214   1.565  1.3964 -1.8050 -1.3831
49201SOL     OW52287   6.291  11.705   9.251 -0.1759 -0.0994  0.4551
49201SOL    HW152288   6.345  11.762   9.197  1.7666 -0.6699  1.6883
49201SOL    HW252289   6.326  11.715   9.340 -2.5881  0.0289  1.4591
49202SOL     OW52290   1.032   3.701   8.660  0.3279  0.0067 -0.3510
49202SOL    HW152291   1.036   3.655   8.577  0.6288  0.8731 -0.8354
49202SOL    HW252292   1.059   3.637   8.726 -2.2543 -1.4505 -0.5728
49203SOL     OW52293   9.127   3.219   4.038  0.5729 -0.1930 -0.4371
49203SOL    HW152294   9.095   3.129   4.036 -0.5274  0.1935 -0.9142
49203SOL    HW252295   9.052   3.271   4.064  0.3109  0.9136 -3.0813
49204SOL     OW52296   6.673  10.501  11.039  0.2944  0.1820 -0.6396
49204SOL    HW152297   6.741  10.566  11.055  0.7256 -0.2374 -0.7764
49204SOL    HW252298   6.634  10.528  10.955  1.0212 -0.2076 -1.1089
49205SOL     OW52299   9.786   9.162   3.942 -0.5547  0.0157  0.1581
49205SOL    HW152300   9.841   9.096   3.898  0.9517 -0.8712  3.1030
49205SOL    HW252301   9.700   9.152   3.902  0.5563 -1.0528 -2.1656
49206SOL     OW52302   8.226   0.321   1.759  0.2134 -0.2308  0.1756
49206SOL    HW152303   8.167   0.361   1.696 -0.4190  0.3156  1.0991
49206SOL    HW252304   8.179   0.244   1.791 -0.6481  0.9861  1.9627
49207SOL     OW52305   4.358   0.958  10.485  0.0984 -0.1076 -0.3969
49207SOL    HW152306   4.335   0.881  10.432  0.5925 -0.4612 -0.1125
49207SOL    HW252307   4.371   1.028  10.421  0.0287 -0.3618 -0.6909
49208SOL     OW52308  10.770  10.447   0.836 -0.1891 -0.1124  0.2001
49208SOL    HW152309  10.827  10.514   0.798 -0.8476 -0.1303 -0.8282
49208SOL    HW252310  10.704  10.496   0.885  1.2937 -0.1027  2.3563
49209SOL     OW52311   4.976   6.461   0.180  0.2745  0.1917  0.3160
49209SOL    HW152312   5.028   6.538   0.157  0.5949 -0.3902 -0.9945
49209SOL    HW252313   5.040   6.396   0.208  0.1045  0.0282  0.3284
49210SOL     OW52314   6.601   8.829   2.511 -0.2476 -0.0925  0.2250
49210SOL    HW152315   6.632   8.897   2.451  0.0854 -0.3732  0.0793
49210SOL    HW252316   6.681   8.788   2.545 -0.4012  0.5084  1.3825
49211SOL     OW52317   1.618   9.143   9.066  0.3399  0.4679 -0.2068
49211SOL    HW152318   1.531   9.102   9.068  0.8260 -0.5943  0.2228
49211SOL    HW252319   1.629   9.180   9.153  0.6373 -0.1211  0.0131
49212SOL     OW52320   1.205  10.438   8.722 -0.6192  0.1068  0.1409
49212SOL    HW152321   1.222  10.361   8.668  0.9107  0.7544 -0.3483
49212SOL    HW252322   1.221  10.409   8.811  1.2271  0.1630 -0.1475
49213SOL     OW52323  11.346   4.479   8.137  0.1337  0.6716 -0.2845
49213SOL    HW152324  11.436   4.464   8.165  0.4520  2.8496  0.0108
49213SOL    HW252325  11.293   4.455   8.213  0.5280  0.3908 -0.0916
49214SOL     OW52326   7.507   1.280   5.279 -0.2621  0.1760  0.0678
49214SOL    HW152327   7.594   1.245   5.296  0.2620  2.0596  1.7070
49214SOL    HW252328   7.507   1.301   5.186  0.8628 -0.3195 -0.0555
49215SOL     OW52329   9.987   2.149   6.867 -0.4080 -0.3308 -0.1732
49215SOL    HW152330   9.945   2.066   6.890 -2.4663  0.4550 -0.8733
49215SOL    HW252331  10.049   2.165   6.938  0.0966 -2.4862 -0.0746
49216SOL     OW52332   5.280   2.344  11.174 -0.1252 -0.3909  0.0555
49216SOL    HW152333   5.207   2.281  11.172 -0.0026 -0.5625  0.8905
49216SOL    HW252334   5.353   2.296  11.135 -0.1115 -0.6696  0.4180
49217SOL     OW52335   6.126   3.546   3.797 -0.5052 -0.0989  0.1056
49217SOL    HW152336   6.177   3.531   3.718 -0.2400  0.5060  0.1539
49217SOL    HW252337   6.090   3.460   3.820  0.3362 -0.4920 -0.0343
49218SOL     OW52338  10.438   4.921   6.235  0.0406 -0.1864  0.5267
49218SOL    HW152339  10.389   5.002   6.250  2.5200  1.4784  0.3656
49218SOL    HW252340  10.413   4.893   6.147 -1.4612 -0.0816  0.9028
49219SOL     OW52341   7.489   2.796   0.594 -0.1679  0.3734 -0.6606
49219SOL    HW152342   7.580   2.824   0.603 -0.0686 -0.1811  0.2099
49219SOL    HW252343   7.441   2.852   0.655 -0.4696  0.8902 -1.3617
49220SOL     OW52344   8.817   6.751   9.387  0.2879 -0.0636  0.2691
49220SOL    HW152345   8.908   6.724   9.373  0.1411 -0.3684 -0.1443
49220SOL    HW252346   8.815   6.786   9.476  0.3270 -2.1819  1.1593
49221SOL     OW52347   4.683   5.094   5.188 -0.6045 -0.0882  0.0935
49221SOL    HW152348   4.758   5.124   5.238 -1.2269 -2.0622  2.4214
49221SOL    HW252349   4.712   5.012   5.148 -1.2737 -0.4824  0.3983
49222SOL     OW52350   2.452   9.779   5.095  0.0581  0.1884  0.0499
49222SOL    HW152351   2.427   9.701   5.046 -0.1405  0.9530 -1.1267
49222SOL    HW252352   2.372   9.830   5.103  0.0004 -0.1068  1.5722
49223SOL     OW52353   0.561  11.928  10.663  0.2509 -0.7582 -0.4526
49223SOL    HW152354   0.498  11.968  10.723  2.8420  2.8098  0.2185
49223SOL    HW252355   0.553  11.979  10.583 -0.3607 -2.8709 -1.8064
49224SOL     OW52356   9.559   7.314   1.752  0.2032 -0.2667  0.0196
49224SOL    HW152357   9.510   7.239   1.719  2.1233 -0.7281 -1.9944
49224SOL    HW252358   9.531   7.387   1.697 -0.3319  0.1449  0.8064
49225SOL     OW52359   9.222   2.467  10.895  0.0542 -0.4581  0.0009
49225SOL    HW152360   9.187   2.519  10.823 -1.4702 -1.5000 -0.0514
49225SOL    HW252361   9.192   2.378  10.878  1.7055 -1.1914  0.6621
49226SOL     OW52362  11.357   1.363   1.827  0.1993 -0.1459  0.8069
49226SOL    HW152363  11.308   1.358   1.909  0.5940 -1.0073  0.9997
49226SOL    HW252364  11.348   1.275   1.789  0.9196 -0.0737  0.4582
49227SOL     OW52365   2.116   5.612  11.431 -0.1769  0.1508  0.2645
49227SOL    HW152366   2.123   5.707  11.437  0.3953  0.1262 -0.0323
49227SOL    HW252367   2.153   5.590  11.346 -2.2645 -0.1440 -0.6295
49228SOL     OW52368   8.356   7.184   9.139 -0.0088  0.6004  0.9719
49228SOL    HW152369   8.306   7.157   9.217 -0.3282  0.6100  0.7745
49228SOL    HW252370   8.354   7.107   9.083  0.5471  0.4679  1.1361
49229SOL     OW52371   2.315   8.151   8.483 -0.2566  0.6208  0.2126
49229SOL    HW152372   2.304   8.182   8.394 -0.8880  1.0876  0.4478
49229SOL    HW252373   2.397   8.192   8.512  0.6649 -0.5901 -0.5798
49230SOL     OW52374   4.477  10.291   3.806 -0.3012 -0.3749  0.6922
49230SOL    HW152375   4.564  10.329   3.804 -1.2357  1.8822  0.6260
49230SOL    HW252376   4.467  10.259   3.896 -0.0474  1.0056  1.2307
49231SOL     OW52377   1.035   4.105   5.632  0.0243 -0.1880  0.0923
49231SOL    HW152378   1.060   4.190   5.669 -1.0131  0.0797  0.2268
49231SOL    HW252379   0.971   4.070   5.695 -0.5384 -0.4623 -0.6170
49232SOL     OW52380   5.629   2.142   9.449 -0.1583 -0.4785  0.2230
49232SOL    HW152381   5.546   2.174   9.484 -0.3502 -0.3636 -0.3279
49232SOL    HW252382   5.659   2.077   9.513  0.3666  0.9766  1.4910
49233SOL     OW52383   0.987   6.540   3.249 -0.3953 -0.4731  0.5625
49233SOL    HW152384   0.958   6.578   3.332 -1.2975 -0.4014  0.2246
49233SOL    HW252385   0.907   6.531   3.198  0.3452  1.0795 -0.9683
49234SOL     OW52386   6.890   7.244   2.818  0.5136  0.5156  0.2585
49234SOL    HW152387   6.924   7.207   2.899  0.7447 -1.1019 -0.5330
49234SOL    HW252388   6.963   7.293   2.781  1.0583 -0.4114  0.0660
49235SOL     OW52389   6.765   6.031   7.850  0.4157 -0.2621 -0.1850
49235SOL    HW152390   6.680   5.990   7.837  1.5944 -3.0871  0.1149
49235SOL    HW252391   6.794   5.999   7.935  0.5941  3.0581  1.1351
49236SOL     OW52392   7.012   7.445   5.482  0.2434  0.2423 -0.4659
49236SOL    HW152393   7.070   7.407   5.416 -0.7275  0.4866 -1.5035
49236SOL    HW252394   7.067   7.505   5.531  1.1346 -0.3999 -0.6576
49237SOL     OW52395   0.806   8.007   9.637  0.5212 -0.2018 -0.6671
49237SOL    HW152396   0.772   7.919   9.651 -0.1474  0.2947  1.2145
49237SOL    HW252397   0.778   8.056   9.715  2.6099  1.1442 -0.6731
49238SOL     OW52398   7.773   4.852   8.379 -0.2820  0.3722 -0.4116
49238SOL    HW152399   7.797   4.760   8.382  0.9746  0.6737  2.7162
49238SOL    HW252400   7.857   4.898   8.379 -0.6338  1.4304  3.8213
49239SOL     OW52401   8.450   1.538   4.580 -0.0262  0.6726  0.1795
49239SOL    HW152402   8.516   1.567   4.517  2.3336 -3.0734  0.6482
49239SOL    HW252403   8.498   1.482   4.641 -3.3176 -0.6776  1.7583
49240SOL     OW52404   1.563   8.628   6.913 -0.0270 -0.0620 -0.5163
49240SOL    HW152405   1.575   8.539   6.881  0.2315  0.4539 -1.8825
49240SOL    HW252406   1.540   8.679   6.836  2.7095  1.6527 -0.3385
49241SOL     OW52407   5.370   2.035  10.860 -0.2858  0.4171  0.5474
49241SOL    HW152408   5.346   1.961  10.916 -0.7356 -0.2373 -0.4813
49241SOL    HW252409   5.287   2.069  10.828 -0.0707  1.2646  0.8687
49242SOL     OW52410   5.417  10.493   0.950 -0.0621  0.6546  0.2747
49242SOL    HW152411   5.347  10.557   0.940  0.8743  2.1089  2.3500
49242SOL    HW252412   5.400  10.452   1.035  0.4270 -0.4907 -0.1621
49243SOL     OW52413   6.354   3.212   2.454 -0.2041 -0.1801  0.8772
49243SOL    HW152414   6.268   3.242   2.482 -0.0837  0.7056  0.3211
49243SOL    HW252415   6.415   3.254   2.514 -0.0116  0.9870 -0.1069
49244SOL     OW52416   3.922   8.267   6.040 -0.1184 -0.0777 -0.6126
49244SOL    HW152417   3.901   8.313   6.122 -0.4943  1.0467 -1.3177
49244SOL    HW252418   3.837   8.257   5.996 -0.1807 -2.2098 -0.1253
49245SOL     OW52419  11.731  10.237   3.763 -0.5476  0.2350 -0.2932
49245SOL    HW152420  11.819  10.276   3.765  0.5324 -1.9919 -1.1258
49245SOL    HW252421  11.731  10.184   3.684 -1.7527 -1.7958  1.0083
49246SOL     OW52422   0.719   3.450   4.975  0.9480 -0.4125  0.4925
49246SOL    HW152423   0.711   3.545   4.977 -0.6387 -0.5158  0.6118
49246SOL    HW252424   0.731   3.425   5.067  0.8621 -0.3472  0.5222
49247SOL     OW52425   9.463   7.544   9.081 -0.3160  0.6161 -0.2907
49247SOL    HW152426   9.498   7.509   8.999 -0.4860  0.6568 -0.3798
49247SOL    HW252427   9.480   7.638   9.077  3.4877  0.2151  1.5173
49248SOL     OW52428   4.351   6.822   1.341 -0.2183 -0.1783  0.1676
49248SOL    HW152429   4.330   6.915   1.335  0.4710  0.0219  0.7100
49248SOL    HW252430   4.441   6.820   1.375  1.1878 -0.9472 -3.2160
49249SOL     OW52431   7.260  11.824   3.981 -0.1485  0.3065 -0.0279
49249SOL    HW152432   7.345  11.860   3.955 -0.1199 -1.0565 -2.0651
49249SOL    HW252433   7.281  11.758   4.047  0.7135 -1.6426 -2.1234
49250SOL     OW52434  11.681   0.346   0.324  0.2413  0.3364 -0.2612
49250SOL    HW152435  11.656   0.261   0.289  1.1843  0.6189 -1.6921
49250SOL    HW252436  11.774   0.354   0.303  0.2933  1.4959  0.3347
49251SOL     OW52437  10.229   8.439  10.621 -0.0264  0.1535  0.2573
49251SOL    HW152438  10.270   8.518  10.587 -1.3463  1.8148  2.3574
49251SOL    HW252439  10.145   8.433  10.575 -0.0335  0.1002  0.2768
49252SOL     OW52440   3.319   4.923   2.999 -0.3344  0.1883  0.0973
49252SOL    HW152441   3.274   4.844   2.969 -0.1878  0.3910 -0.7066
49252SOL    HW252442   3.249   4.987   3.013 -0.3893  0.1828 -0.1340
49253SOL     OW52443   2.012   7.357   5.742  0.0816  0.3621  0.2040
49253SOL    HW152444   1.961   7.435   5.766 -0.8089 -0.2003  0.1744
49253SOL    HW252445   1.946   7.293   5.713  0.6906 -0.7953  1.2908
49254SOL     OW52446   8.309   2.916   6.786  0.0243 -0.1166 -0.0882
49254SOL    HW152447   8.403   2.899   6.793 -0.1347 -1.4807 -0.8505
49254SOL    HW252448   8.293   2.987   6.848  1.5966  0.3317 -0.1426
49255SOL     OW52449   5.994   9.550   8.893 -0.5804  0.5830 -0.4611
49255SOL    HW152450   6.014   9.461   8.920 -0.8290  0.7955  0.4652
49255SOL    HW252451   5.940   9.585   8.964  0.8215  1.9943 -0.0289
49256SOL     OW52452   6.130   0.948   7.303 -0.6070 -0.2240  0.2265
49256SOL    HW152453   6.176   0.998   7.235 -0.8705  1.3015  1.1346
49256SOL    HW252454   6.038   0.973   7.293 -0.7182 -0.3968  0.8129
49257SOL     OW52455   2.471   8.558   8.817  0.7723 -0.0382  0.0050
49257SOL    HW152456   2.508   8.505   8.887  1.0488  1.1365  0.7662
49257SOL    HW252457   2.540   8.619   8.792  1.4935 -1.7965 -2.8450
49258SOL     OW52458   0.574   0.783   6.512 -0.0494 -0.3827  0.0215
49258SOL    HW152459   0.519   0.750   6.583 -1.2292  0.3441 -0.5395
49258SOL    HW252460   0.550   0.875   6.503  2.3531  0.3964  0.7678
49259SOL     OW52461   2.013   9.749   4.687 -0.0827  0.5789  0.7920
49259SOL    HW152462   2.035   9.682   4.751  1.1284  0.6245  0.4468
49259SOL    HW252463   2.012   9.703   4.603  0.8874  1.0013  0.5380
49260SOL     OW52464   2.106   2.372   1.667 -0.6078  0.3263 -0.6308
49260SOL    HW152465   2.152   2.345   1.587  1.2567 -0.2337  0.5526
49260SOL    HW252466   2.172   2.422   1.716 -1.7505  0.7791  0.4897
49261SOL     OW52467   1.598   2.225   3.554 -0.2377 -0.0477 -0.1466
49261SOL    HW152468   1.524   2.180   3.595  0.6485 -0.5497  0.9832
49261SOL    HW252469   1.570   2.241   3.464 -0.2426 -3.9678 -1.0617
49262SOL     OW52470   0.643   2.518   7.105  0.1992  0.2779  0.2738
49262SOL    HW152471   0.675   2.465   7.032  2.8804  0.3695  1.2797
49262SOL    HW252472   0.637   2.457   7.178  2.3103  1.0911  1.1778
49263SOL     OW52473  10.431   1.414   2.647 -0.8871 -0.4533 -0.7531
49263SOL    HW152474  10.423   1.352   2.719 -0.4608 -0.6292 -0.8520
49263SOL    HW252475  10.363   1.389   2.585 -1.8598  0.2646 -0.0048
49264SOL     OW52476   7.275   5.241   0.989  0.3607 -0.2056  0.4165
49264SOL    HW152477   7.204   5.194   0.945 -0.1019  1.2307 -0.4377
49264SOL    HW252478   7.308   5.303   0.924  1.9637 -0.3643  1.0174
49265SOL     OW52479   0.980   1.107  10.530  0.4181  0.0713 -0.3179
49265SOL    HW152480   0.936   1.045  10.588  0.8454 -1.5436 -1.6432
49265SOL    HW252481   0.923   1.184  10.529 -1.0203 -0.9505  0.0436
49266SOL     OW52482   0.546   2.987  10.487 -0.2806  0.4604 -0.2810
49266SOL    HW152483   0.537   2.893  10.501  0.7800  0.5459  1.1998
49266SOL    HW252484   0.475   3.026  10.536  0.5219  0.5097  0.8836
49267SOL     OW52485   8.262  11.297  10.188 -0.4974  0.5269 -0.3789
49267SOL    HW152486   8.282  11.383  10.223 -2.0986  0.5037  0.7273
49267SOL    HW252487   8.328  11.282  10.120  3.1795  0.3819  2.8819
49268SOL     OW52488   3.474   1.085   9.111  0.9722 -0.1288 -0.1335
49268SOL    HW152489   3.551   1.040   9.146 -1.0896 -1.1810  3.5825
49268SOL    HW252490   3.428   1.117   9.188 -1.8130  1.3753 -2.2512
49269SOL     OW52491   1.849   3.958   1.117  0.1961  0.3088 -0.3614
49269SOL    HW152492   1.876   3.893   1.052  0.9672  0.0527  0.2056
49269SOL    HW252493   1.839   3.908   1.198 -1.0716  0.5622 -0.3266
49270SOL     OW52494   1.307   4.945   4.437 -0.4714 -0.0560 -0.6267
49270SOL    HW152495   1.362   4.887   4.489  0.3353 -0.0431 -1.4452
49270SOL    HW252496   1.270   5.006   4.501 -0.4709 -0.7981  0.0908
49271SOL     OW52497   6.668  10.099   8.687 -0.0356  0.3435  0.0735
49271SOL    HW152498   6.672  10.029   8.622 -0.1906 -0.5660  1.0076
49271SOL    HW252499   6.755  10.101   8.727 -0.9580 -1.8636  2.5529
49272SOL     OW52500  10.195   0.874  10.781 -0.2711  0.2212  0.2497
49272SOL    HW152501  10.223   0.904  10.694 -0.7201 -2.8257 -1.0877
49272SOL    HW252502  10.275   0.841  10.822 -0.6346 -2.2015 -0.8095
49273SOL     OW52503   4.943   9.559   6.723  0.6645 -0.3521 -0.1719
49273SOL    HW152504   4.934   9.527   6.633 -2.6694  3.6384 -1.6264
49273SOL    HW252505   4.861   9.533   6.766  1.3339 -0.4823  1.0675
49274SOL     OW52506   7.315   2.708   6.849 -0.1936  0.6220 -0.6357
49274SOL    HW152507   7.263   2.718   6.928 -0.9823  3.0773 -1.3847
49274SOL    HW252508   7.252   2.707   6.778  0.4899 -1.7629 -1.3010
49275SOL     OW52509   2.447   3.751   4.598  0.2054 -0.5636  0.2300
49275SOL    HW152510   2.406   3.739   4.684  0.2056 -1.4282  0.1224
49275SOL    HW252511   2.465   3.845   4.593 -0.0687 -0.4547  1.0486
49276SOL     OW52512   6.004   3.170  11.228 -0.3857  0.3441 -0.0648
49276SOL    HW152513   5.951   3.205  11.156  0.1832 -0.9216 -1.1453
49276SOL    HW252514   5.948   3.105  11.270 -0.1508 -0.0694 -0.3888
49277SOL     OW52515  11.876   9.101   4.055  0.5099  0.0817  0.1954
49277SOL    HW152516  11.919   9.175   4.099  2.1199 -0.7862  0.1472
49277SOL    HW252517  11.828   9.057   4.125  1.0303  0.1378  0.6002
49278SOL     OW52518  11.235   5.339   9.809  0.2621 -0.3571 -0.2656
49278SOL    HW152519  11.175   5.398   9.855  0.3596 -0.1703 -0.3748
49278SOL    HW252520  11.179   5.270   9.774 -0.0752  0.4785 -1.4270
49279SOL     OW52521   2.241  11.830   5.826  0.0502 -0.1173 -0.5703
49279SOL    HW152522   2.163  11.775   5.816 -0.2286  0.2772 -0.5712
49279SOL    HW252523   2.310  11.768   5.849 -0.0572 -0.5911 -1.4805
49280SOL     OW52524   2.042   2.694   1.273 -0.4767  0.4015 -0.3308
49280SOL    HW152525   1.998   2.737   1.200 -1.8850  0.4236  0.4893
49280SOL    HW252526   1.986   2.619   1.294  1.3160 -1.1858 -0.9809
49281SOL     OW52527   9.001   8.890   6.075 -0.7626  0.7864  0.1044
49281SOL    HW152528   8.995   8.946   6.152 -0.7911 -0.4572  1.0359
49281SOL    HW252529   9.087   8.849   6.082 -0.9311  0.3602 -0.3203
49282SOL     OW52530   7.627   0.823   4.615 -0.0331 -0.6089 -0.2997
49282SOL    HW152531   7.632   0.732   4.646  0.1905 -1.3216 -2.3312
49282SOL    HW252532   7.714   0.859   4.632  0.0859 -0.9769 -0.1186
49283SOL     OW52533   9.469   7.635   3.510  0.2724 -0.3262 -0.3134
49283SOL    HW152534   9.381   7.643   3.475  0.5529  0.9103 -0.7720
49283SOL    HW252535   9.526   7.661   3.437  0.9373  0.5040  0.4850
49284SOL     OW52536   4.118   9.727   0.201  0.0220 -0.5893 -0.2459
49284SOL    HW152537   4.206   9.751   0.230 -0.6823  0.2269  1.3200
49284SOL    HW252538   4.079   9.684   0.276 -1.0662 -0.5722 -0.7822
49285SOL     OW52539   6.300   9.360  10.397 -0.7627  0.1301  0.7971
49285SOL    HW152540   6.294   9.455  10.389  1.0828  0.1590 -0.9762
49285SOL    HW252541   6.329   9.346  10.487 -0.8420  1.2571  1.0116
49286SOL     OW52542   1.383   5.029   2.781 -0.0291  0.4760 -0.0682
49286SOL    HW152543   1.312   5.024   2.717 -0.3590 -1.3139  0.3947
49286SOL    HW252544   1.463   5.028   2.728 -0.3090  0.9073 -0.5127
49287SOL     OW52545   2.325   8.667  11.832  0.3695  0.1172  0.2374
49287SOL    HW152546   2.283   8.691  11.915  0.3957 -1.5240  0.7441
49287SOL    HW252547   2.275   8.592  11.800  1.8121 -0.7594 -0.0459
49288SOL     OW52548   9.521   0.842   9.335 -0.2699  0.2530  0.0773
49288SOL    HW152549   9.434   0.854   9.373 -0.2898 -0.8329  0.4200
49288SOL    HW252550   9.544   0.927   9.299 -0.8319  0.9454  1.3195
49289SOL     OW52551  10.836  10.855   4.507 -0.0330 -0.1972  0.2175
49289SOL    HW152552  10.751  10.821   4.533 -0.9151  0.6548 -1.4387
49289SOL    HW252553  10.875  10.887   4.589 -1.8139  0.5441  0.8123
49290SOL     OW52554  11.857   6.165   4.003 -0.0533 -0.1168 -0.1589
49290SOL    HW152555  11.851   6.204   4.090  1.1290  1.1850 -0.6241
49290SOL    HW252556  11.784   6.202   3.954  0.1762  0.3496 -0.1531
49291SOL     OW52557   3.454   1.934   2.855 -0.1663 -0.4136 -0.0292
49291SOL    HW152558   3.390   1.918   2.924 -2.2727 -0.3343 -1.8558
49291SOL    HW252559   3.441   2.026   2.832  1.6684  0.0187  0.5496
49292SOL     OW52560   6.625   4.020   3.103  0.6616 -0.2385  0.2267
49292SOL    HW152561   6.617   4.076   3.026 -0.3847 -0.0208  0.4847
49292SOL    HW252562   6.720   4.015   3.119  0.7792  2.1305  0.6845
49293SOL     OW52563   6.755   0.048  11.199 -0.5374  0.2914  0.4811
49293SOL    HW152564   6.819   0.093  11.253 -0.1894 -0.2481  0.5286
49293SOL    HW252565   6.672   0.058  11.247 -0.0850 -0.8952  1.5637
49294SOL     OW52566   0.757   1.612   1.531 -0.0699 -0.1101  0.6612
49294SOL    HW152567   0.758   1.672   1.606 -0.5087 -0.0202  0.5964
49294SOL    HW252568   0.796   1.532   1.564 -0.5585 -0.1804  1.0843
49295SOL     OW52569   4.656   5.588   1.455  0.0578 -0.7211  0.0037
49295SOL    HW152570   4.662   5.500   1.419  1.0420  0.1217 -1.9882
49295SOL    HW252571   4.746   5.612   1.477 -0.4258 -0.9624  2.5899
49296SOL     OW52572   9.088   7.438   8.382 -0.1765 -0.1493  0.3364
49296SOL    HW152573   9.127   7.372   8.325  1.8653  1.4948 -0.2937
49296SOL    HW252574   9.077   7.515   8.327 -0.1944  0.8136  1.6285
49297SOL     OW52575   6.419   8.805   1.667  0.7900  0.3692  0.0434
49297SOL    HW152576   6.442   8.728   1.613  1.7525  0.6629  0.0041
49297SOL    HW252577   6.366   8.769   1.738 -0.3858 -0.0467 -1.0208
49298SOL     OW52578   8.465  11.644   9.307 -0.0461  0.1987  0.0477
49298SOL    HW152579   8.433  11.659   9.396 -2.3517  0.0243 -0.6693
49298SOL    HW252580   8.392  11.670   9.251  1.3061  0.1952 -1.7967
49299SOL     OW52581   2.113   6.177   0.775 -0.2980  0.6279  0.4618
49299SOL    HW152582   2.100   6.116   0.848 -3.5040 -0.5188 -0.9151
49299SOL    HW252583   2.152   6.123   0.706 -0.3076  0.9167  0.2302
49300SOL     OW52584   9.054   3.686   7.302  0.5809 -0.4178  0.1329
49300SOL    HW152585   9.039   3.599   7.339  0.1395 -0.3250  0.1717
49300SOL    HW252586   9.132   3.718   7.348  2.1484 -1.6970 -1.4708
49301SOL     OW52587   6.788   7.632  10.900 -0.5129  0.0078 -0.1767
49301SOL    HW152588   6.813   7.724  10.903 -1.1072  0.1993 -0.8180
49301SOL    HW252589   6.864   7.588  10.861  0.0626  0.1066  0.8071
49302SOL     OW52590   4.767   5.135   2.343  0.6758  0.3779  0.0459
49302SOL    HW152591   4.704   5.067   2.319 -0.5185  0.7511  1.8927
49302SOL    HW252592   4.814   5.155   2.262 -0.5115 -1.0352 -1.0303
49303SOL     OW52593  10.735   4.447   5.443  0.0972  0.3813 -0.2978
49303SOL    HW152594  10.640   4.456   5.436 -0.0198  0.2584  0.8826
49303SOL    HW252595  10.760   4.396   5.366 -1.3180 -3.2389  1.4379
49304SOL     OW52596   5.461  10.770   4.485 -0.3939  0.2091  0.3525
49304SOL    HW152597   5.410  10.809   4.413  2.7642  0.4734 -1.9287
49304SOL    HW252598   5.535  10.829   4.497  0.7178 -1.3938  1.8320
49305SOL     OW52599   1.321  10.054   2.994  0.2432  0.4313  0.0618
49305SOL    HW152600   1.271  10.008   2.927 -0.2003 -0.2740  0.8459
49305SOL    HW252601   1.300  10.146   2.981  0.5028  0.3448 -1.0244
49306SOL     OW52602   8.590   1.947   4.605 -0.0554  0.4961 -0.5628
49306SOL    HW152603   8.564   1.919   4.693 -0.5716  0.3315 -0.7628
49306SOL    HW252604   8.588   1.867   4.553 -1.6939  0.9043 -1.1758
49307SOL     OW52605   0.901   9.481   0.775 -0.5243 -0.1481 -0.2440
49307SOL    HW152606   0.996   9.497   0.777 -0.8109  1.6435  0.7273
49307SOL    HW252607   0.888   9.428   0.696  1.2259 -0.1078 -0.6098
49308SOL     OW52608   2.865   6.563   6.600 -0.0646  0.1963 -0.1879
49308SOL    HW152609   2.815   6.584   6.521  0.7544 -2.1641 -1.4404
49308SOL    HW252610   2.800   6.528   6.661 -0.2721 -1.0923 -1.1048
49309SOL     OW52611   3.620   2.652   5.301  0.5373  0.1609 -0.0002
49309SOL    HW152612   3.586   2.595   5.232 -1.8588  1.8857 -0.3690
49309SOL    HW252613   3.628   2.594   5.377  0.8759 -1.2460 -1.0754
49310SOL     OW52614  11.418   7.813   6.126  0.6708 -0.1518  0.0354
49310SOL    HW152615  11.399   7.724   6.157  0.7610 -0.2296 -0.1328
49310SOL    HW252616  11.513   7.821   6.132  0.5685  0.3883  1.2835
49311SOL     OW52617   2.170   1.308  10.934  0.0576  0.0180  0.4720
49311SOL    HW152618   2.120   1.347  11.006  0.0979  1.0479 -0.0542
49311SOL    HW252619   2.237   1.373  10.913 -0.7394  0.2965 -1.3325
49312SOL     OW52620   4.695   0.078  11.946  0.0718 -0.8711 -0.9110
49312SOL    HW152621   4.704   0.086  11.851 -0.7703 -1.6823 -1.0742
49312SOL    HW252622   4.737  -0.005  11.968 -3.5051 -3.0185 -1.2447
49313SOL     OW52623   2.787   2.737   1.808  0.0303  0.0317  0.4247
49313SOL    HW152624   2.769   2.828   1.832  2.3567  0.2361  1.7637
49313SOL    HW252625   2.731   2.685   1.866  0.7115  0.6237  1.6475
49314SOL     OW52626   5.831   3.866  10.658 -0.0379  0.0563 -0.3646
49314SOL    HW152627   5.873   3.949  10.634 -0.2183  0.3336  0.2616
49314SOL    HW252628   5.904   3.811  10.689  0.0790 -0.0103 -0.7555
49315SOL     OW52629   9.121   1.805   6.076  0.4172 -0.7107  0.3380
49315SOL    HW152630   9.042   1.752   6.078  0.0607 -0.1714  1.7086
49315SOL    HW252631   9.139   1.818   5.983  0.1827 -2.7050 -0.0241
49316SOL     OW52632   5.678  10.908   8.831 -0.2391  0.4014  0.5070
49316SOL    HW152633   5.645  10.822   8.806 -1.6371  1.3055 -0.9503
49316SOL    HW252634   5.608  10.947   8.884 -0.2655  1.1782 -0.0692
49317SOL     OW52635   0.363   9.324  11.568 -0.5664  0.0318  0.1335
49317SOL    HW152636   0.361   9.404  11.515  4.2141  0.6205  0.4177
49317SOL    HW252637   0.340   9.254  11.506 -3.8615  1.3756 -0.3503
49318SOL     OW52638   7.003   5.843   8.163 -0.2476  0.2966  0.1795
49318SOL    HW152639   6.950   5.866   8.239 -1.5690 -2.3927  0.1867
49318SOL    HW252640   7.090   5.825   8.199 -0.3994  0.7347  0.7726
49319SOL     OW52641   6.310  10.480   9.313  0.3456  0.3150  0.0259
49319SOL    HW152642   6.251  10.405   9.308 -0.1448  0.5872  1.3678
49319SOL    HW252643   6.271  10.545   9.255 -0.0246  0.0621 -0.0105
49320SOL     OW52644   3.152   6.222   3.398 -0.1744 -0.3207 -0.0874
49320SOL    HW152645   3.072   6.274   3.408 -1.1006 -1.6465 -0.2597
49320SOL    HW252646   3.137   6.172   3.317  0.3856 -1.3397  0.4258
49321SOL     OW52647   7.523   8.263   7.971 -0.3986  0.3475  0.3251
49321SOL    HW152648   7.502   8.171   7.985 -1.3528  0.6327  0.8627
49321SOL    HW252649   7.604   8.276   8.021  0.4291 -0.4685 -0.7516
49322SOL     OW52650   8.169   1.384   3.838 -0.5590 -0.0255  0.9776
49322SOL    HW152651   8.086   1.414   3.802  0.2532  0.0132 -1.0402
49322SOL    HW252652   8.178   1.295   3.805  1.2485  0.7744 -0.9173
49323SOL     OW52653   0.860  10.649   9.579  0.2794 -0.1366 -0.0811
49323SOL    HW152654   0.812  10.567   9.566  0.7004 -0.0906 -2.6071
49323SOL    HW252655   0.806  10.700   9.638  0.3851 -2.4852  2.2312
49324SOL     OW52656   0.291   1.997   1.135  0.6104 -0.0527  0.2255
49324SOL    HW152657   0.256   2.056   1.202  0.5079 -0.9184  0.9438
49324SOL    HW252658   0.378   1.974   1.166  1.1286  0.6284 -0.6456
49325SOL     OW52659  11.062   8.356   8.577 -0.5521 -0.4462 -0.2854
49325SOL    HW152660  11.054   8.438   8.529  0.4174 -0.3091 -0.2390
49325SOL    HW252661  11.140   8.368   8.631  0.0238 -1.6608 -0.8191
49326SOL     OW52662   1.335   8.115   6.495 -0.2236  0.2642  0.0124
49326SOL    HW152663   1.328   8.020   6.488 -1.3387  0.3964 -0.9035
49326SOL    HW252664   1.247   8.144   6.517 -0.3891  1.2462 -1.8160
49327SOL     OW52665   0.894   0.770   9.188 -0.0672  0.2675 -0.1554
49327SOL    HW152666   0.948   0.824   9.246 -1.8594  0.7249  1.1670
49327SOL    HW252667   0.837   0.833   9.143 -1.6171 -0.4162  0.7916
49328SOL     OW52668   6.646  10.205   4.927 -0.3802  0.6508 -0.7273
49328SOL    HW152669   6.646  10.113   4.904 -1.6709  1.1998 -3.2147
49328SOL    HW252670   6.658  10.206   5.022 -2.7673 -2.1624 -0.2833
49329SOL     OW52671   6.620   7.875   4.905 -0.8323  0.1351  0.4310
49329SOL    HW152672   6.633   7.900   4.813  1.7295  0.4170  0.7933
49329SOL    HW252673   6.595   7.957   4.949 -0.6664  0.3079  0.2075
49330SOL     OW52674   7.899  10.321   4.331  0.3195  0.1474  0.3480
49330SOL    HW152675   7.894  10.331   4.236 -0.4814  0.7252  0.4416
49330SOL    HW252676   7.992  10.333   4.352  0.3276  1.2063 -0.2403
49331SOL     OW52677   5.796   4.106   4.347  0.1566  0.2619 -0.5354
49331SOL    HW152678   5.853   4.104   4.270 -0.8404 -5.0908 -1.5404
49331SOL    HW252679   5.848   4.066   4.417 -0.7442 -0.0249 -0.0135
49332SOL     OW52680   9.853   5.791   7.376 -0.8030 -0.6198 -0.2525
49332SOL    HW152681   9.792   5.721   7.352 -0.5578 -0.2801 -2.0017
49332SOL    HW252682   9.932   5.745   7.403  0.4021 -1.1726 -4.0994
49333SOL     OW52683   0.257   7.750   2.179  0.1956 -0.0079 -0.1582
49333SOL    HW152684   0.190   7.684   2.196 -1.1437  1.7997  2.2635
49333SOL    HW252685   0.213   7.815   2.123  0.3005  0.5657  0.4090
49334SOL     OW52686   8.269   4.872   4.941  0.0013 -0.1991  0.4823
49334SOL    HW152687   8.233   4.846   5.026  1.5463  0.8036  1.4863
49334SOL    HW252688   8.354   4.829   4.937 -0.0264 -0.1784 -0.5527
49335SOL     OW52689   1.630   7.385   0.016 -0.3403 -0.1072  0.2160
49335SOL    HW152690   1.556   7.346  -0.030  0.4632 -0.4553 -0.8120
49335SOL    HW252691   1.673   7.311   0.059  0.4408 -0.1942 -0.6794
49336SOL     OW52692   6.163  11.637   3.746  0.0748  0.2951 -0.1221
49336SOL    HW152693   6.240  11.602   3.700  1.3992  2.1303  0.5703
49336SOL    HW252694   6.116  11.687   3.680  0.5949  0.8422 -0.0831
49337SOL     OW52695   2.805   9.377   8.435 -0.5068  0.1208  0.0880
49337SOL    HW152696   2.761   9.297   8.407 -1.9011  0.9037 -0.0524
49337SOL    HW252697   2.780   9.388   8.527 -0.2323  0.3413  0.1392
49338SOL     OW52698   0.040  11.274  10.889  0.3536  0.1849 -0.7990
49338SOL    HW152699   0.002  11.296  10.974 -0.4802  0.3519 -1.2066
49338SOL    HW252700   0.118  11.328  10.883 -1.2250  2.5189 -1.4554
49339SOL     OW52701   4.870   3.605  11.387  0.1228  0.1769  0.0210
49339SOL    HW152702   4.908   3.684  11.426  1.2384 -0.4435  0.2263
49339SOL    HW252703   4.825   3.637  11.308  0.3397  1.0430  0.2389
49340SOL     OW52704   3.973   3.623   6.621 -0.7074 -0.0707  0.1872
49340SOL    HW152705   4.031   3.679   6.673  0.1621 -0.4428 -0.3655
49340SOL    HW252706   3.946   3.554   6.682  0.9949 -0.9955 -0.0465
49341SOL     OW52707   7.012   6.020   2.175 -0.6272 -0.0171  0.3738
49341SOL    HW152708   7.017   5.951   2.108  0.1071 -0.9454  1.3477
49341SOL    HW252709   7.077   6.085   2.148 -1.1411  0.1857 -0.4120
49342SOL     OW52710   2.984   8.553   1.526 -0.1437 -0.3192  0.0117
49342SOL    HW152711   3.071   8.522   1.551  0.3089  0.7193 -0.1901
49342SOL    HW252712   3.001   8.613   1.453 -1.0999 -0.6514 -0.4965
49343SOL     OW52713   7.163   2.548   8.923  0.4466  0.2290  0.3313
49343SOL    HW152714   7.242   2.603   8.926  0.2493  0.4863  0.9321
49343SOL    HW252715   7.119   2.564   9.007  0.0509 -0.3548  0.2443
49344SOL     OW52716   3.457   0.762   3.673  0.4218  0.1781  0.0632
49344SOL    HW152717   3.414   0.784   3.590  1.0044 -0.6391 -0.4628
49344SOL    HW252718   3.440   0.838   3.729 -0.5725  0.4421 -0.5649
49345SOL     OW52719   9.281   8.588  10.100 -0.0460  0.6861  0.5681
49345SOL    HW152720   9.275   8.648  10.175 -0.0157  0.3926  0.8038
49345SOL    HW252721   9.375   8.571  10.091 -0.1008  0.2141  0.8648
49346SOL     OW52722   7.443   8.531  10.132 -0.0555 -0.2607  0.2811
49346SOL    HW152723   7.409   8.617  10.157 -0.6716 -0.6923  0.9810
49346SOL    HW252724   7.425   8.475  10.208  2.2871 -0.5081  0.7373
49347SOL     OW52725   7.533   4.148   2.645  0.4886  0.2774  0.2763
49347SOL    HW152726   7.597   4.092   2.689  0.3315 -0.5495 -0.5195
49347SOL    HW252727   7.575   4.170   2.562 -1.3634 -2.7657 -1.6626
49348SOL     OW52728   7.493  11.293   9.467  0.0711  0.7012 -0.0627
49348SOL    HW152729   7.453  11.275   9.552 -1.0198  0.0036 -0.6945
49348SOL    HW252730   7.421  11.325   9.413  0.8199  1.4660 -0.6348
49349SOL     OW52731   1.172  11.887   4.496  0.0245  0.4889 -0.2652
49349SOL    HW152732   1.161  11.964   4.552 -0.6679 -0.5423  1.0656
49349SOL    HW252733   1.102  11.828   4.523 -0.7377  0.1684 -2.6451
49350SOL     OW52734   0.180   1.844   3.414 -0.2550  0.6022  0.0830
49350SOL    HW152735   0.153   1.899   3.341 -1.3322 -1.5430 -1.2516
49350SOL    HW252736   0.102   1.837   3.469 -0.5327 -0.5330 -0.4239
49351SOL     OW52737   5.075   6.900   2.949 -0.7148  0.1397  0.1542
49351SOL    HW152738   5.030   6.919   3.031 -1.5917  0.6388 -0.4190
49351SOL    HW252739   5.165   6.881   2.974 -0.7098  1.3421  1.1310
49352SOL     OW52740   0.991   9.695   3.541  0.3066 -0.2702  0.6738
49352SOL    HW152741   0.905   9.729   3.516  1.2006  1.6375  0.0841
49352SOL    HW252742   1.000   9.719   3.634  0.7266  0.6916  0.3919
49353SOL     OW52743   3.271   7.136   9.032 -0.0694 -0.0091  0.2219
49353SOL    HW152744   3.202   7.071   9.045 -0.7473  1.0943  2.7526
49353SOL    HW252745   3.255   7.203   9.099  2.3761  1.2471 -0.3055
49354SOL     OW52746   9.107   4.437   8.838 -0.1414  0.2459  0.4253
49354SOL    HW152747   9.091   4.478   8.923  2.8556  0.8799  0.8224
49354SOL    HW252748   9.156   4.503   8.789  2.5008 -1.7982  0.0943
49355SOL     OW52749  10.600   0.535   2.390 -0.3645  0.0191 -0.0691
49355SOL    HW152750  10.562   0.514   2.304 -0.6088 -1.6577  0.4059
49355SOL    HW252751  10.669   0.470   2.401  0.3499  0.8710  0.5802
49356SOL     OW52752   2.263   2.464   1.025  0.3575  0.4662 -0.0439
49356SOL    HW152753   2.261   2.545   0.973 -3.4240 -0.0673 -1.0502
49356SOL    HW252754   2.196   2.409   0.984  0.8074 -2.0531  2.3775
49357SOL     OW52755   0.162   4.806   0.592  0.6470 -0.3523  0.3554
49357SOL    HW152756   0.117   4.807   0.507  1.3144 -1.0726 -0.0182
49357SOL    HW252757   0.171   4.713   0.613  3.8006 -0.3586 -0.6041
49358SOL     OW52758   5.790   5.388   6.843 -0.1261  0.1202  0.4023
49358SOL    HW152759   5.788   5.368   6.937  0.0758 -0.2458  0.3288
49358SOL    HW252760   5.871   5.348   6.811 -0.6034 -0.4830 -0.0886
49359SOL     OW52761   5.283   9.573   9.826 -0.5435 -0.1982  0.4401
49359SOL    HW152762   5.276   9.661   9.788 -1.2381  0.7949  2.7028
49359SOL    HW252763   5.258   9.584   9.918 -0.7272 -2.7945  0.7853
49360SOL     OW52764   2.441  11.111   1.722 -0.1886 -0.5091  0.4658
49360SOL    HW152765   2.489  11.168   1.783  0.2646  0.9406 -1.1641
49360SOL    HW252766   2.399  11.047   1.779  0.4183  0.6000  2.2925
49361SOL     OW52767   8.385   3.730   9.949  0.0641  0.6530  0.2418
49361SOL    HW152768   8.477   3.718   9.973  0.5500  0.7436 -1.4831
49361SOL    HW252769   8.341   3.653   9.986  0.6686  0.9819  1.7372
49362SOL     OW52770  10.023   5.960   9.046 -0.1482 -0.0304  0.8394
49362SOL    HW152771   9.945   6.014   9.032 -0.6781 -0.0394  3.2992
49362SOL    HW252772  10.095   6.011   9.010 -0.8206  1.7656  1.9094
49363SOL     OW52773  10.624  11.506  11.223 -0.6128 -0.2899 -0.1818
49363SOL    HW152774  10.594  11.591  11.190 -0.8051 -0.1433  0.3647
49363SOL    HW252775  10.551  11.447  11.204 -0.3986 -0.3778 -0.7411
49364SOL     OW52776   9.347  10.211   7.744 -0.6549 -0.2378  0.0110
49364SOL    HW152777   9.404  10.265   7.799 -1.9295 -0.2586  1.4104
49364SOL    HW252778   9.347  10.125   7.787 -0.6046 -0.6434 -0.7909
49365SOL     OW52779   9.216   4.927   9.186  0.1012 -0.6389 -0.1965
49365SOL    HW152780   9.255   4.909   9.271 -1.4431  1.0158  0.9588
49365SOL    HW252781   9.122   4.928   9.203 -0.2949 -1.2017 -2.1477
49366SOL     OW52782   7.313  11.918   7.655  0.3497  0.0664  0.3976
49366SOL    HW152783   7.324  12.011   7.679  1.1181  0.1333 -0.1573
49366SOL    HW252784   7.321  11.871   7.738 -0.3495  0.5184  0.7274
49367SOL     OW52785  10.070   2.382   7.279  0.3643 -0.2530 -0.4466
49367SOL    HW152786  10.134   2.344   7.340 -0.0774  0.2686  0.3712
49367SOL    HW252787  10.033   2.307   7.233  0.5285 -0.6937  0.1208
49368SOL     OW52788   9.440   2.898   7.625 -0.3571  0.0364 -0.4937
49368SOL    HW152789   9.397   2.845   7.692 -0.9220  0.4279 -0.5347
49368SOL    HW252790   9.463   2.836   7.556  1.5607 -0.6282  0.6665
49369SOL     OW52791   0.137   2.786   3.975  0.3632 -0.3317  0.0634
49369SOL    HW152792   0.121   2.698   4.010  0.5866 -0.5501 -0.3864
49369SOL    HW252793   0.135   2.843   4.053  1.1042 -0.8432  0.4631
49370SOL     OW52794   3.690   8.789  10.736 -0.1205 -0.5281 -0.6916
49370SOL    HW152795   3.613   8.837  10.706 -0.3221  0.9241  1.8352
49370SOL    HW252796   3.747   8.784  10.659 -2.0910 -0.3562 -2.2313
49371SOL     OW52797   6.876   7.373  10.032 -0.1355  0.1295  0.2701
49371SOL    HW152798   6.935   7.391   9.959  0.0402 -1.8450 -0.1474
49371SOL    HW252799   6.825   7.298  10.003 -2.0000  1.0105  1.1300
49372SOL     OW52800   1.637  11.735   5.284 -0.0622  0.0527 -0.1658
49372SOL    HW152801   1.643  11.762   5.192  0.6028 -0.9541 -0.4294
49372SOL    HW252802   1.561  11.677   5.286 -1.2678  1.5745  0.3293
49373SOL     OW52803   6.166   2.399  10.665 -0.3252  0.5577  0.2512
49373SOL    HW152804   6.223   2.419  10.591  0.7691 -2.9387 -0.0374
49373SOL    HW252805   6.220   2.413  10.742  0.7483 -1.8131  0.0166
49374SOL     OW52806   9.559   2.739   6.923  0.5386  0.1844  0.9000
49374SOL    HW152807   9.466   2.743   6.900  0.8631  1.0984 -0.3124
49374SOL    HW252808   9.585   2.830   6.933  1.3227 -0.0688  1.1895
49375SOL     OW52809   9.228   4.335   5.108  0.1445  0.1062 -0.0840
49375SOL    HW152810   9.192   4.391   5.178  1.7515  0.2624  0.6582
49375SOL    HW252811   9.225   4.390   5.030 -3.0483 -0.5518 -0.5609
49376SOL     OW52812   6.806   6.381   8.442  0.4888 -0.1965 -0.5465
49376SOL    HW152813   6.753   6.445   8.394  0.0780  0.9331  1.3111
49376SOL    HW252814   6.893   6.420   8.445  0.8866 -0.9523 -1.5688
49377SOL     OW52815   4.661   3.936   2.697  0.2408  0.0743 -0.2794
49377SOL    HW152816   4.579   3.888   2.683 -1.2406  2.1386  0.8179
49377SOL    HW252817   4.701   3.940   2.610  0.5637 -3.1782 -0.4099
49378SOL     OW52818   4.853  11.983   3.568 -0.4016  0.0790  0.5410
49378SOL    HW152819   4.880  12.041   3.497 -0.9862 -0.0277  0.2275
49378SOL    HW252820   4.762  12.005   3.584  0.1252  1.2001  2.3376
49379SOL     OW52821  10.937   2.317   3.112  0.3460 -0.1832 -0.3259
49379SOL    HW152822  11.025   2.289   3.086  0.3856 -0.5158  0.1493
49379SOL    HW252823  10.937   2.412   3.099  0.2260 -0.3877 -1.9189
49380SOL     OW52824   7.138   8.499   4.283  0.4482  0.3586  0.4983
49380SOL    HW152825   7.138   8.576   4.225  1.9637 -0.9862 -1.4371
49380SOL    HW252826   7.055   8.456   4.265  0.5844  0.3537 -0.1818
49381SOL     OW52827  10.093   0.654   3.246 -0.0011  0.2427  0.0321
49381SOL    HW152828  10.010   0.678   3.206  0.7486 -0.5677 -2.1671
49381SOL    HW252829  10.075   0.574   3.295 -0.6278  0.3947  0.0531
49382SOL     OW52830   3.482   7.376   5.541  0.2018 -0.3691  0.0709
49382SOL    HW152831   3.569   7.336   5.549  0.4437  0.1235 -0.0391
49382SOL    HW252832   3.429   7.310   5.498  0.0379 -1.3919  1.7666
49383SOL     OW52833   3.613   3.825   0.035  0.3928  0.4437  0.2096
49383SOL    HW152834   3.569   3.836   0.120 -0.5052  1.6353 -0.3799
49383SOL    HW252835   3.628   3.731   0.029  2.1881  0.4909  2.5087
49384SOL     OW52836   5.800   3.342   8.159  0.4684  0.3353  0.5443
49384SOL    HW152837   5.829   3.400   8.088 -0.6901 -0.0512 -0.2697
49384SOL    HW252838   5.756   3.400   8.221 -0.2941  0.4081 -0.0523
49385SOL     OW52839   7.901   1.410   1.005 -0.2178  0.1997 -0.1901
49385SOL    HW152840   7.821   1.421   0.953  0.6562  1.1056 -1.3855
49385SOL    HW252841   7.969   1.392   0.941  0.9721  1.6997  0.5833
49386SOL     OW52842   0.557   9.868  11.110 -0.1700 -0.3634  0.2574
49386SOL    HW152843   0.575   9.782  11.149 -0.3856  0.0236  1.2267
49386SOL    HW252844   0.594   9.862  11.022 -0.2011 -1.4604  0.2989
49387SOL     OW52845   0.338   4.418  10.235  0.2362 -0.4230 -0.7757
49387SOL    HW152846   0.418   4.372  10.261 -0.2202 -0.7351  0.1025
49387SOL    HW252847   0.288   4.353  10.186  0.8947  0.0344 -2.1259
49388SOL     OW52848   6.112   9.476   1.697 -0.4223  0.0201  0.4099
49388SOL    HW152849   6.091   9.448   1.786 -1.6598 -0.6827 -0.0726
49388SOL    HW252850   6.197   9.436   1.677 -0.0228  0.3872  1.3520
49389SOL     OW52851   2.319   9.173   8.173  0.6146 -0.7621 -0.0681
49389SOL    HW152852   2.352   9.195   8.086 -0.1231 -0.2996 -0.2458
49389SOL    HW252853   2.311   9.078   8.172 -0.5242 -0.6900 -0.9530
49390SOL     OW52854   6.808   3.891   2.610 -0.0678 -0.1406 -0.0153
49390SOL    HW152855   6.865   3.832   2.658 -0.5130 -1.6011 -1.2202
49390SOL    HW252856   6.860   3.918   2.534 -0.4594 -0.2848 -0.3332
49391SOL     OW52857   8.911  11.884   1.445 -0.3169  0.2761  0.4476
49391SOL    HW152858   8.886  11.807   1.394 -3.5415  0.9800  0.6857
49391SOL    HW252859   8.960  11.849   1.519 -0.3893 -1.3789 -0.2333
49392SOL     OW52860   2.093   2.053   3.201 -0.4067  0.0950 -1.0994
49392SOL    HW152861   2.028   2.018   3.261  0.4857  1.0735  0.4862
49392SOL    HW252862   2.175   2.012   3.228 -0.0504  0.2411 -1.9202
49393SOL     OW52863   5.523   7.373   2.015  0.1347 -0.0285  0.1689
49393SOL    HW152864   5.460   7.301   2.017 -0.1395  0.2090  0.0978
49393SOL    HW252865   5.607   7.331   2.032  0.3901 -0.8037 -2.4832
49394SOL     OW52866   5.013   1.678  11.943  0.6935 -0.3514  0.6633
49394SOL    HW152867   5.011   1.619  12.018 -0.0557 -1.6048 -0.3026
49394SOL    HW252868   5.084   1.644  11.888  1.1332  0.4651  0.6969
49395SOL     OW52869   6.650   3.759   9.615  0.7768 -0.2469 -0.1848
49395SOL    HW152870   6.735   3.797   9.593  1.3574 -0.1866  1.9493
49395SOL    HW252871   6.668   3.699   9.687 -0.7542 -1.5240 -0.8146
49396SOL     OW52872   0.075   5.375   5.752 -0.2603  0.3141  0.5113
49396SOL    HW152873   0.150   5.319   5.733  0.2844  0.5426  1.8845
49396SOL    HW252874   0.107   5.463   5.732 -0.0970  0.4255  1.2315
49397SOL     OW52875   5.297   0.146   3.756 -0.1887  0.0894 -0.1170
49397SOL    HW152876   5.253   0.121   3.837 -1.2070  0.9919 -0.3618
49397SOL    HW252877   5.330   0.234   3.773  0.9528 -0.3148 -0.1756
49398SOL     OW52878   5.040   8.786  10.939  0.3094  0.1895  0.1938
49398SOL    HW152879   5.025   8.811  10.848  0.1168 -0.9281 -0.0967
49398SOL    HW252880   5.019   8.693  10.942  1.6598 -0.1274  1.0660
49399SOL     OW52881   1.608   1.478   6.358 -0.3830  0.7842 -0.2716
49399SOL    HW152882   1.595   1.546   6.291  2.1160  0.3090 -1.3554
49399SOL    HW252883   1.695   1.443   6.339 -0.4378 -0.7670  2.0389
49400SOL     OW52884  11.860   5.976   2.883 -0.0646 -0.6880  0.1483
49400SOL    HW152885  11.936   5.981   2.941 -0.2883  1.7668  0.3017
49400SOL    HW252886  11.788   5.951   2.940  0.4200 -2.1871  0.1563
49401SOL     OW52887  10.557   2.897  11.708  0.5814  0.7228  0.3378
49401SOL    HW152888  10.495   2.826  11.690  2.9750 -1.6606  0.7223
49401SOL    HW252889  10.571   2.939  11.623 -0.2330  0.1500 -0.0929
49402SOL     OW52890   4.994   9.776   5.289 -0.4026 -0.1898  0.4604
49402SOL    HW152891   4.982   9.732   5.373 -0.6529  2.2124  1.7652
49402SOL    HW252892   4.958   9.864   5.302 -0.4815  0.2512 -2.1914
49403SOL     OW52893  11.697   6.116  10.891  0.0042  0.1931 -0.2039
49403SOL    HW152894  11.673   6.136  10.800 -0.2933  1.1621  0.0712
49403SOL    HW252895  11.780   6.161  10.905 -0.3323  0.6926  0.2287
49404SOL     OW52896   6.558   8.139   6.243  0.4859  0.0243  0.1202
49404SOL    HW152897   6.636   8.176   6.284  0.3922 -0.4690  0.7616
49404SOL    HW252898   6.582   8.049   6.222  0.9283  0.5786 -2.0174
49405SOL     OW52899   2.938   2.787   3.826  0.4315 -0.2903  0.6955
49405SOL    HW152900   2.848   2.780   3.857  0.1029 -0.4508 -0.2454
49405SOL    HW252901   2.969   2.871   3.859 -0.9136  0.9515 -1.0569
49406SOL     OW52902   9.913   9.300   7.845 -0.1138  0.3652  0.0386
49406SOL    HW152903   9.912   9.322   7.752  1.1946 -0.3926 -0.1826
49406SOL    HW252904   9.884   9.208   7.848  3.3381 -0.8818 -0.0872
49407SOL     OW52905  10.813   8.953   0.025  0.5544  0.1399 -0.3626
49407SOL    HW152906  10.735   8.928  -0.023 -0.2520 -0.8469  1.3734
49407SOL    HW252907  10.835   9.040  -0.009 -1.0479  0.2719 -1.1622
49408SOL     OW52908   3.406  11.864   6.809 -0.1796 -0.2244 -0.3599
49408SOL    HW152909   3.340  11.911   6.860 -0.6315  0.1763 -1.2734
49408SOL    HW252910   3.356  11.798   6.761  0.4095 -1.4414  0.6506
49409SOL     OW52911   8.588   2.387   8.718 -0.2491  0.6025  0.2467
49409SOL    HW152912   8.584   2.317   8.654 -4.1479  0.0956  0.7623
49409SOL    HW252913   8.591   2.343   8.803 -0.4646  1.1108  0.5277
49410SOL     OW52914   3.014   3.912   1.490 -0.0286 -0.0823  0.6139
49410SOL    HW152915   3.038   3.820   1.497  1.9707  0.3840  0.7670
49410SOL    HW252916   2.953   3.927   1.562  0.8486 -0.9570  1.5714
49411SOL     OW52917   3.340  10.465   4.753 -0.1228  0.2995  0.6122
49411SOL    HW152918   3.347  10.413   4.833 -2.0140 -2.5028 -0.8837
49411SOL    HW252919   3.426  10.506   4.744  0.9589 -1.2880  2.7548
49412SOL     OW52920   1.322  10.590  10.674 -0.2087  0.0820 -0.0156
49412SOL    HW152921   1.304  10.652  10.745 -0.2726 -0.5359  0.5065
49412SOL    HW252922   1.305  10.504  10.711 -0.0720 -0.2615 -0.7287
49413SOL     OW52923   9.092   1.051   1.963  0.5607 -0.8787  0.0171
49413SOL    HW152924   9.011   1.083   2.001  0.4195 -1.4296  0.1859
49413SOL    HW252925   9.095   1.091   1.876  1.0651  0.6744  0.7128
49414SOL     OW52926   1.932  11.925  11.576  0.0903  0.5990 -0.1525
49414SOL    HW152927   1.911  11.961  11.663  1.3500  1.9304 -0.3653
49414SOL    HW252928   1.977  11.842  11.594 -0.9720  0.1197  0.4029
49415SOL     OW52929   8.232   6.719  10.287 -0.1898  0.1782  0.0789
49415SOL    HW152930   8.214   6.660  10.214  0.7283 -0.4188  0.3241
49415SOL    HW252931   8.146   6.736  10.326 -0.7286  0.6642 -1.2472
49416SOL     OW52932   6.368   0.272   2.937 -1.2301 -0.8478 -0.6304
49416SOL    HW152933   6.402   0.273   3.026  0.0843 -3.0473 -1.0511
49416SOL    HW252934   6.382   0.362   2.905 -1.5993 -0.0623  1.2784
49417SOL     OW52935   6.313   4.357   4.970  0.6604 -0.2137  0.2645
49417SOL    HW152936   6.260   4.299   4.916  0.3245  0.1513  0.1906
49417SOL    HW252937   6.251   4.395   5.032  1.0048 -0.4644  0.7681
49418SOL     OW52938   9.743   0.237   2.272 -0.2082  0.4314  0.5191
49418SOL    HW152939   9.765   0.144   2.284 -0.6405  0.1870 -0.5028
49418SOL    HW252940   9.822   0.276   2.235 -1.1171 -0.3024 -2.4805
49419SOL     OW52941   2.205   4.505   0.205  0.2401 -0.3859 -0.2155
49419SOL    HW152942   2.224   4.411   0.214  1.8142 -0.0653 -0.0903
49419SOL    HW252943   2.214   4.522   0.111  0.3168 -0.2770 -0.1874
49420SOL     OW52944   0.926  10.795   6.590  0.4808 -0.1644 -0.6278
49420SOL    HW152945   0.901  10.709   6.556  1.6603 -0.2201 -1.3722
49420SOL    HW252946   0.878  10.857   6.535  0.0271 -0.3184 -0.4163
49421SOL     OW52947   7.200   5.293   2.892 -0.1018  0.3326 -0.5500
49421SOL    HW152948   7.290   5.262   2.902 -0.1068  0.5574  0.2520
49421SOL    HW252949   7.147   5.214   2.899 -0.1184  0.4741  1.5271
49422SOL     OW52950  11.835   3.421   6.880  0.0777  0.4137 -0.9553
49422SOL    HW152951  11.759   3.480   6.885  0.1438  0.3950  1.2161
49422SOL    HW252952  11.909   3.476   6.907  0.5189 -0.0829 -1.1422
49423SOL     OW52953   5.855   1.308   4.449 -0.2595 -0.3034 -0.1554
49423SOL    HW152954   5.944   1.315   4.413  0.2977  0.3102  1.2591
49423SOL    HW252955   5.819   1.230   4.407  1.0688 -0.7604 -0.5154
49424SOL     OW52956   8.617   4.672   2.821  0.0382 -0.0159  0.2953
49424SOL    HW152957   8.557   4.711   2.756  1.1962  2.3859  0.5528
49424SOL    HW252958   8.657   4.748   2.864  3.2001 -1.5011  0.1931
49425SOL     OW52959  10.141   9.166   0.892  0.9414  0.1363  0.1298
49425SOL    HW152960  10.198   9.182   0.817  0.4507  0.8641 -0.0934
49425SOL    HW252961  10.170   9.229   0.958  1.1545 -0.2812  0.4442
49426SOL     OW52962   8.159   3.962   2.098 -0.0260  0.0314  0.2375
49426SOL    HW152963   8.174   3.919   2.014  0.9527  0.9127 -0.0623
49426SOL    HW252964   8.246   3.967   2.138 -0.4563 -0.2122  1.2340
49427SOL     OW52965   2.222   8.572   7.835  0.8241  0.0122 -0.4369
49427SOL    HW152966   2.275   8.648   7.855  0.6666  0.2223 -0.8019
49427SOL    HW252967   2.279   8.497   7.852  1.0622  0.2196 -0.3268
49428SOL     OW52968   2.965   3.974  11.479 -0.1508  0.0778  0.1608
49428SOL    HW152969   2.902   4.034  11.439  0.0011  1.5100  1.9500
49428SOL    HW252970   3.047   4.024  11.482  0.6187 -1.0987 -0.4492
49429SOL     OW52971  10.091   7.559   6.214 -0.2232  0.4800 -0.6286
49429SOL    HW152972  10.030   7.487   6.234  0.1551  0.1456 -0.6638
49429SOL    HW252973  10.052   7.636   6.256 -0.1529  0.0591  0.2262
49430SOL     OW52974   7.962  11.080   8.379  0.2979  0.4449 -0.4736
49430SOL    HW152975   8.026  11.014   8.352  1.8735  0.9323  1.7533
49430SOL    HW252976   8.014  11.161   8.388 -0.9588  1.2394 -0.1661
49431SOL     OW52977  10.990  11.211  11.590 -0.0678  0.0770 -0.0017
49431SOL    HW152978  10.999  11.275  11.519 -1.3965  1.0299  0.6616
49431SOL    HW252979  10.924  11.248  11.648  0.0318 -1.3243  1.0545
49432SOL     OW52980   6.345   0.973   0.505 -0.0487  0.0499  0.0165
49432SOL    HW152981   6.313   0.908   0.568 -2.0552  1.9060  1.0441
49432SOL    HW252982   6.349   0.926   0.422 -0.8708 -1.5346  0.8193
49433SOL     OW52983   4.750  10.177   0.520 -0.3811  0.3676  0.3764
49433SOL    HW152984   4.735  10.087   0.549  0.7127  0.3905  1.0514
49433SOL    HW252985   4.778  10.168   0.428  2.5990 -0.2736  1.2335
49434SOL     OW52986   4.056   8.602   3.579  0.0363 -0.6875  0.2494
49434SOL    HW152987   4.020   8.514   3.593 -1.0123 -0.1485  1.0879
49434SOL    HW252988   3.984   8.652   3.541  1.0840 -0.5649 -1.7125
49435SOL     OW52989  10.247   5.921   1.474  0.1291 -0.0646  0.4146
49435SOL    HW152990  10.332   5.887   1.449  0.1878 -1.4555  2.2602
49435SOL    HW252991  10.248   6.012   1.446  1.8214 -0.3148 -0.4720
49436SOL     OW52992   9.803   3.378   7.162 -0.3815 -0.0081  0.3361
49436SOL    HW152993   9.711   3.358   7.141 -0.3928 -0.2712  0.6263
49436SOL    HW252994   9.843   3.292   7.175 -0.8663  0.1367  3.5584
49437SOL     OW52995   1.485   5.164   6.820  0.5015  0.0012 -0.2149
49437SOL    HW152996   1.579   5.143   6.822  0.6530  0.5428 -1.0867
49437SOL    HW252997   1.473   5.226   6.892  0.6402 -0.7141  0.4370
49438SOL     OW52998   2.786   0.803   8.340 -0.2410 -0.2049  0.6947
49438SOL    HW152999   2.788   0.797   8.435 -1.8178 -0.0799  0.7654
49438SOL    HW253000   2.694   0.819   8.319 -0.1038 -1.2771 -0.9072
49439SOL     OW53001   9.405   8.089   1.073  0.2538  0.4756  0.0470
49439SOL    HW153002   9.324   8.110   1.026  0.4068  1.5870  0.2569
49439SOL    HW253003   9.386   8.109   1.165  0.2847 -0.7296  0.3325
49440SOL     OW53004   0.514  11.201   5.613 -0.1257  0.3703 -0.5381
49440SOL    HW153005   0.561  11.284   5.609  0.8383 -0.1810 -1.0395
49440SOL    HW253006   0.536  11.157   5.531 -0.7549 -0.3138 -0.3514
49441SOL     OW53007   7.660   2.344   8.713 -0.2274 -0.1527 -0.8011
49441SOL    HW153008   7.755   2.338   8.701  0.3273 -0.2562  2.5702
49441SOL    HW253009   7.635   2.425   8.669  1.1790 -0.6971 -2.7207
49442SOL     OW53010   4.293   1.982   0.718  0.6804  0.4475  0.4666
49442SOL    HW153011   4.211   1.991   0.669 -0.5932  0.9764  2.5509
49442SOL    HW253012   4.335   1.905   0.679 -0.6790  0.3024 -0.8309
49443SOL     OW53013   3.172  10.489   3.677  0.3883  0.1375  0.1094
49443SOL    HW153014   3.090  10.498   3.629 -0.9172  2.8644  2.5314
49443SOL    HW253015   3.240  10.497   3.610 -1.3212  0.7079 -1.6570
49444SOL     OW53016  10.363   1.991   8.215 -0.1984 -0.4570 -0.9038
49444SOL    HW153017  10.291   1.937   8.248 -1.2834  1.4504  0.0763
49444SOL    HW253018  10.399   2.033   8.294 -0.3923  1.3513 -1.7124
49445SOL     OW53019   2.744   5.690   5.650  0.0320 -0.0914  0.1237
49445SOL    HW153020   2.656   5.683   5.688  0.6071 -1.0437  1.3313
49445SOL    HW253021   2.733   5.752   5.577 -1.3194  1.0783  1.2423
49446SOL     OW53022   2.478   3.456   1.886 -0.1884  0.2665 -0.0871
49446SOL    HW153023   2.482   3.382   1.946  0.3570 -0.4924 -1.0313
49446SOL    HW253024   2.408   3.512   1.921  1.3862  0.8645  2.3538
49447SOL     OW53025   5.498   3.981  11.103  0.3130 -0.2993  0.5972
49447SOL    HW153026   5.456   3.948  11.182 -2.4148 -1.0319 -1.0399
49447SOL    HW253027   5.482   4.075  11.104 -0.6567 -0.4557  0.4184
49448SOL     OW53028   1.299   6.653  10.926 -0.1340 -0.1319 -0.1446
49448SOL    HW153029   1.259   6.695  10.849  0.1341  1.3646  0.4939
49448SOL    HW253030   1.255   6.695  11.001  1.1773  0.0655  0.5362
49449SOL     OW53031   1.585   9.824   5.614 -0.0817  0.4400 -0.2120
49449SOL    HW153032   1.647   9.895   5.596 -0.4603  1.0705  0.8952
49449SOL    HW253033   1.502   9.869   5.631 -0.0770 -0.1793  1.5951
49450SOL     OW53034   0.354  11.737   0.345 -0.0929  0.1106  0.0321
49450SOL    HW153035   0.448  11.747   0.360  0.2757 -1.4754 -0.9068
49450SOL    HW253036   0.344  11.645   0.321 -1.7151  0.5514 -1.1535
49451SOL     OW53037   4.580   1.248   6.017  0.0137 -0.2631 -0.5884
49451SOL    HW153038   4.671   1.269   6.037 -0.8080  1.0029  2.3400
49451SOL    HW253039   4.539   1.332   6.000 -0.8255 -0.7349 -0.9739
49452SOL     OW53040  10.545   7.752   7.853  0.3017 -0.3494  0.3981
49452SOL    HW153041  10.617   7.735   7.913  0.3796  0.7073  0.6272
49452SOL    HW253042  10.583   7.808   7.785  0.2320 -1.5649 -0.6925
49453SOL     OW53043   1.920   4.140   3.266 -0.3312 -0.3927 -0.1041
49453SOL    HW153044   1.895   4.223   3.225 -1.1661  0.0833  1.3072
49453SOL    HW253045   1.843   4.085   3.259  0.8597 -1.8852 -2.9061
49454SOL     OW53046   8.261   9.561   5.918 -0.3918  0.1226  0.3869
49454SOL    HW153047   8.168   9.549   5.900 -0.7220 -0.9824  2.4737
49454SOL    HW253048   8.275   9.516   6.002  1.8635  0.9100  0.4994
49455SOL     OW53049   7.142   0.351   0.827 -0.2231 -0.0527 -0.3380
49455SOL    HW153050   7.154   0.436   0.869 -1.2936  0.2878 -0.6985
49455SOL    HW253051   7.165   0.367   0.735 -0.2578 -0.2031 -0.3727
49456SOL     OW53052   7.185  10.205   6.590 -0.5999  0.1747  0.4418
49456SOL    HW153053   7.192  10.127   6.646  0.4945  0.5526  0.8630
49456SOL    HW253054   7.155  10.274   6.649 -0.9260  0.2218  0.2203
49457SOL     OW53055  11.115   4.352   1.203  0.0867  0.0068  0.0940
49457SOL    HW153056  11.199   4.391   1.179  0.1038  2.0370  2.9964
49457SOL    HW253057  11.135   4.261   1.221  1.4000  0.1438 -0.5490
49458SOL     OW53058   8.049   5.960   4.188  0.2126 -0.5062  0.5197
49458SOL    HW153059   8.077   6.049   4.168 -1.2846  0.2111  1.3873
49458SOL    HW253060   8.126   5.919   4.228  0.9808  0.3268 -0.0712
49459SOL     OW53061   5.014   6.706   0.734  0.1096  0.2070 -0.3211
49459SOL    HW153062   4.980   6.625   0.696 -0.1711 -0.2852  0.9398
49459SOL    HW253063   5.021   6.766   0.660  2.5608 -1.6667 -1.7328
49460SOL     OW53064   6.856  10.884  11.761  0.3144 -0.9062 -0.0691
49460SOL    HW153065   6.872  10.892  11.667 -0.7001 -0.9890 -0.2531
49460SOL    HW253066   6.801  10.806  11.770 -1.4475  0.3279  0.3613
49461SOL     OW53067   9.676   3.743   1.999  0.0221  0.1656  0.0899
49461SOL    HW153068   9.678   3.671   2.062 -0.7004 -0.7050 -0.8571
49461SOL    HW253069   9.768   3.756   1.975  0.0268 -1.9344 -1.3289
49462SOL     OW53070   0.022   6.451   4.020 -0.3033  0.2917  0.1919
49462SOL    HW153071  -0.004   6.437   3.929  1.1928 -0.0094 -0.2233
49462SOL    HW253072   0.013   6.545   4.034  1.8491  0.7688 -1.1149
49463SOL     OW53073   3.206   2.406  11.695 -0.3664 -0.2911  0.1914
49463SOL    HW153074   3.204   2.313  11.717  1.6057 -0.4606 -0.1923
49463SOL    HW253075   3.297   2.432  11.706 -0.7596  1.4559 -0.3201
49464SOL     OW53076   2.466   3.381   5.028 -0.0403  0.2989 -0.4399
49464SOL    HW153077   2.451   3.311   5.092 -0.0201  0.0500 -0.7038
49464SOL    HW253078   2.440   3.461   5.073  1.7843  0.3801  0.5641
49465SOL     OW53079  10.932  10.495  10.750 -0.6108 -0.6308 -0.1823
49465SOL    HW153080  11.017  10.461  10.780 -0.4945  0.4125  0.7478
49465SOL    HW253081  10.886  10.517  10.831 -1.3034 -0.0947 -0.7124
49466SOL     OW53082   3.539   1.603   4.539 -0.0780  0.0217  0.7750
49466SOL    HW153083   3.468   1.667   4.528  0.4194  0.3798 -0.4942
49466SOL    HW253084   3.614   1.642   4.496  0.7836 -0.5700  1.6935
49467SOL     OW53085   8.281   7.341  11.490  0.2392  0.3370  0.4037
49467SOL    HW153086   8.193   7.344  11.527  0.1190  0.5674  0.1097
49467SOL    HW253087   8.267   7.327  11.396  0.3803  3.0760 -0.1289
49468SOL     OW53088   1.359   8.919  10.357  0.5893  0.5243 -0.1613
49468SOL    HW153089   1.323   8.901  10.444 -0.4477  1.4591 -0.3694
49468SOL    HW253090   1.296   8.880  10.296 -0.3555  2.5028 -0.5389
49469SOL     OW53091   0.231   6.143  11.914  0.2210  0.3007  0.1485
49469SOL    HW153092   0.304   6.203  11.930  0.6492 -0.0731 -0.3766
49469SOL    HW253093   0.226   6.136  11.819  0.4204 -0.7953  0.2087
49470SOL     OW53094  10.261   9.029   8.901  0.3409  0.1210 -0.0691
49470SOL    HW153095  10.324   9.048   8.970 -0.2414 -2.5680  1.3145
49470SOL    HW253096  10.180   9.073   8.929 -0.2293 -1.8867  1.6767
49471SOL     OW53097   7.837   5.517   2.626  0.4502  0.3280  0.1391
49471SOL    HW153098   7.916   5.463   2.616 -0.1632 -0.7165  0.7632
49471SOL    HW253099   7.771   5.472   2.574  0.2971  1.2982 -0.5304
49472SOL     OW53100   6.405  10.014   5.178  0.4840  0.2260 -0.3383
49472SOL    HW153101   6.401   9.950   5.107 -2.7252  1.2244 -1.2331
49472SOL    HW253102   6.401   9.962   5.258 -0.0099 -0.7550 -0.9895
49473SOL     OW53103   7.860   6.951   0.815 -0.1398  0.5328 -0.9473
49473SOL    HW153104   7.843   6.998   0.897  1.6209  2.0568 -1.3778
49473SOL    HW253105   7.803   6.993   0.751 -0.5978  0.1768 -0.7838
49474SOL     OW53106   7.014   1.375   4.073 -0.7109  0.1354 -0.5117
49474SOL    HW153107   7.011   1.324   4.154 -0.0709 -0.5888 -0.9253
49474SOL    HW253108   6.973   1.458   4.095 -2.1418 -0.6938  0.0798
49475SOL     OW53109   0.949  10.090   4.845 -0.3860  0.5734 -0.4360
49475SOL    HW153110   0.981  10.031   4.776  1.2817 -0.0989  0.8598
49475SOL    HW253111   0.853  10.082   4.839 -0.3654 -4.3730  1.2830
49476SOL     OW53112   3.189   3.087   9.128  0.4888  0.4294  0.4386
49476SOL    HW153113   3.240   3.046   9.197  1.4390 -0.2412 -0.6283
49476SOL    HW253114   3.148   3.014   9.082 -1.1213  0.9328  1.0079
49477SOL     OW53115   0.396   7.460  11.455 -0.2351 -0.4750  0.1424
49477SOL    HW153116   0.336   7.466  11.529 -0.6373 -0.7097 -0.1611
49477SOL    HW253117   0.370   7.530  11.396  0.8757  0.5151  0.7771
49478SOL     OW53118   9.686   8.876   8.083 -0.0193  0.2429 -0.2646
49478SOL    HW153119   9.765   8.843   8.126  0.3127  0.8387 -0.4102
49478SOL    HW253120   9.630   8.908   8.154  0.5756  1.3300 -0.2697
49479SOL     OW53121   4.056   3.997   7.787  0.0806  0.5092 -0.3265
49479SOL    HW153122   4.137   3.946   7.793 -0.2583  0.0981  1.2340
49479SOL    HW253123   4.083   4.087   7.806  0.3215  0.5483 -0.8358
49480SOL     OW53124  10.338   7.898   4.685  0.1529  0.2787  0.0440
49480SOL    HW153125  10.284   7.958   4.736  0.4654  0.7853 -0.2140
49480SOL    HW253126  10.417   7.885   4.738 -0.3733 -0.7821  0.6116
49481SOL     OW53127   2.030   8.805   2.327  0.1484  0.5244  0.1488
49481SOL    HW153128   2.081   8.886   2.334 -1.1591  1.2918  1.4486
49481SOL    HW253129   2.002   8.787   2.417 -1.4384 -0.1324 -0.4368
49482SOL     OW53130   3.071  10.021   5.843 -0.1622  0.2019  0.4858
49482SOL    HW153131   3.079  10.082   5.769 -2.6769 -1.6017 -1.4774
49482SOL    HW253132   3.160   9.989   5.858  0.7890  2.4213 -0.1072
49483SOL     OW53133   7.394   4.191  11.383  0.0820  0.3528 -0.1303
49483SOL    HW153134   7.440   4.273  11.400 -0.0581  0.2744  0.6564
49483SOL    HW253135   7.403   4.141  11.464  1.1461 -0.8931 -0.9559
49484SOL     OW53136   9.082  11.250  11.150 -0.3195 -0.2803  0.6878
49484SOL    HW153137   9.108  11.341  11.131  1.9791 -0.8299  0.8328
49484SOL    HW253138   8.988  11.248  11.133 -0.1567  1.7177 -0.9575
49485SOL     OW53139   3.976   4.909   3.948 -0.1167 -0.5175  0.3554
49485SOL    HW153140   3.924   4.834   3.978  0.6329 -1.7869 -1.3589
49485SOL    HW253141   3.912   4.965   3.903 -0.4237 -0.8163  0.4126
49486SOL     OW53142   0.206   8.863  10.265  0.1144 -0.3194 -0.2051
49486SOL    HW153143   0.285   8.843  10.314  0.7920  2.7194  0.1355
49486SOL    HW253144   0.236   8.916  10.191 -1.5673  1.0281 -0.0020
49487SOL     OW53145   5.146   6.027   4.044 -0.0010  0.3199 -0.1057
49487SOL    HW153146   5.055   6.010   4.066 -0.1663 -0.4425 -1.2506
49487SOL    HW253147   5.196   5.983   4.113 -0.5015 -0.5372 -0.2656
49488SOL     OW53148  10.429   3.050   4.130  0.7405 -0.2257 -0.1019
49488SOL    HW153149  10.345   3.088   4.102  0.1899 -0.8174  0.6932
49488SOL    HW253150  10.409   3.008   4.214  2.1542  0.8068  0.7895
49489SOL     OW53151   8.286   9.202   4.447 -0.1819 -0.3415 -0.0636
49489SOL    HW153152   8.222   9.169   4.384 -1.1812  1.0271  0.1923
49489SOL    HW253153   8.352   9.247   4.393 -0.9443  0.6789 -0.1626
49490SOL     OW53154   1.285  11.728   9.665 -0.3702 -0.2027 -0.1961
49490SOL    HW153155   1.255  11.760   9.580  1.0596  4.6865  0.8344
49490SOL    HW253156   1.381  11.727   9.658 -0.2496 -0.2687  1.1749
49491SOL     OW53157   9.904   4.729   8.465  0.3637 -0.6662 -0.2700
49491SOL    HW153158   9.984   4.779   8.481 -0.1050 -0.1188  0.4145
49491SOL    HW253159   9.932   4.638   8.464  1.2076 -0.4213 -1.3572
49492SOL     OW53160   7.573   4.951   8.943  0.4364 -0.2266  0.1990
49492SOL    HW153161   7.653   4.988   8.981 -0.7915  2.4304  0.4697
49492SOL    HW253162   7.530   4.907   9.017  0.3543  0.7815  0.7818
49493SOL     OW53163  10.722   5.151  11.981 -0.3979  0.3014 -0.0991
49493SOL    HW153164  10.777   5.074  11.971 -0.0004  0.4178  0.9892
49493SOL    HW253165  10.784   5.224  11.983 -0.7252  0.5942 -0.5175
49494SOL     OW53166  11.514   5.873   3.527  0.6261 -0.4593  0.2300
49494SOL    HW153167  11.603   5.845   3.547  0.6908 -0.4776 -0.0771
49494SOL    HW253168  11.459   5.827   3.591  0.9709  0.7190  1.4197
49495SOL     OW53169   3.344  11.628   2.041  0.5183  0.3753  0.1619
49495SOL    HW153170   3.360  11.534   2.043  0.9560  0.4407 -0.1245
49495SOL    HW253171   3.419  11.664   1.995  0.5690  0.9120  0.6575
49496SOL     OW53172  10.651   2.657  10.740 -0.2988  0.3748 -0.4527
49496SOL    HW153173  10.605   2.584  10.698 -3.8207  0.5871  2.4985
49496SOL    HW253174  10.664   2.628  10.830  1.2389  2.2267 -0.0189
49497SOL     OW53175   1.885   5.689  10.786  0.2588 -0.4603 -0.0386
49497SOL    HW153176   1.892   5.713  10.879 -1.2479 -0.1579  0.0223
49497SOL    HW253177   1.913   5.767  10.739  0.1875 -0.3100  0.1648
49498SOL     OW53178   9.061   8.925   2.376 -0.2645 -0.3704 -0.3379
49498SOL    HW153179   9.051   8.829   2.377 -0.9422 -0.3581 -2.2367
49498SOL    HW253180   9.052   8.950   2.468 -2.0073 -1.9705  0.0135
49499SOL     OW53181   6.556  11.172   9.848 -0.6012  0.4280 -0.2640
49499SOL    HW153182   6.499  11.122   9.790 -0.2131 -0.6755  0.2789
49499SOL    HW253183   6.531  11.143   9.936 -0.5349  1.3760  0.0742
49500SOL     OW53184   0.705   1.390  10.029  0.5480 -0.2567  0.1155
49500SOL    HW153185   0.752   1.463  10.069 -0.8881  0.6267  0.2910
49500SOL    HW253186   0.731   1.313  10.080  1.9024  0.1616  0.0856
49501SOL     OW53187   9.150   7.509   6.851 -0.4845 -0.2122 -0.0260
49501SOL    HW153188   9.100   7.444   6.901  1.3410 -1.1486  0.6868
49501SOL    HW253189   9.226   7.527   6.906  0.4529  0.4475 -1.4921
49502SOL     OW53190   0.092  11.196   4.783  0.0574 -0.1372 -0.0327
49502SOL    HW153191   0.177  11.155   4.765  0.6800  2.2241 -3.3853
49502SOL    HW253192   0.027  11.135   4.749  0.6724 -0.3530 -0.8354
49503SOL     OW53193   9.257   5.408   9.683  0.3742 -0.2008  0.9508
49503SOL    HW153194   9.328   5.404   9.746  0.5927 -0.6212  0.6758
49503SOL    HW253195   9.211   5.325   9.693  0.9634 -0.6645 -0.0867
49504SOL     OW53196   2.793   6.469   3.563  0.0864  0.1931 -0.5848
49504SOL    HW153197   2.888   6.480   3.552  0.0278 -0.8258 -2.4548
49504SOL    HW253198   2.784   6.422   3.646  1.2345  0.1426 -0.4709
49505SOL     OW53199   6.505   1.936   4.128 -0.2517  0.3993  0.0648
49505SOL    HW153200   6.530   1.965   4.040  1.7201  0.9693  0.7655
49505SOL    HW253201   6.481   1.844   4.117 -1.6340  0.8802 -1.3199
49506SOL     OW53202   5.817   6.077   9.879  0.6605  0.1882 -0.2812
49506SOL    HW153203   5.812   6.164   9.918  2.3113 -0.0062  0.4359
49506SOL    HW253204   5.756   6.024   9.929  0.7398  0.5933  0.2495
49507SOL     OW53205   6.293   5.119   3.503 -0.1215  0.0963  0.4145
49507SOL    HW153206   6.289   5.048   3.568  1.7572 -1.0190 -0.5923
49507SOL    HW253207   6.360   5.091   3.441 -1.6907  1.2290 -1.9286
49508SOL     OW53208   2.107   4.012   5.229  0.1947 -0.1391 -0.1838
49508SOL    HW153209   2.153   4.087   5.193  0.0851  0.7467  1.4105
49508SOL    HW253210   2.014   4.033   5.215  0.1962 -0.6801 -1.0424
49509SOL     OW53211   5.121   5.447  11.211 -0.0869  0.0147 -0.2283
49509SOL    HW153212   5.092   5.455  11.121 -0.5758  1.4555  0.0370
49509SOL    HW253213   5.041   5.445  11.263  0.1879 -0.7742  0.2020
49510SOL     OW53214  10.579   8.757   0.975 -0.8260 -0.2534  0.7744
49510SOL    HW153215  10.520   8.686   0.999 -0.2363 -0.9228  0.2809
49510SOL    HW253216  10.577   8.759   0.880 -0.0468 -0.3011  0.7464
49511SOL     OW53217   3.926   4.227   0.931  0.2785  0.2249 -0.3849
49511SOL    HW153218   3.917   4.172   1.009 -0.2006 -1.2296 -1.4101
49511SOL    HW253219   3.974   4.304   0.961  1.2617 -0.8933  1.0618
49512SOL     OW53220  10.872   8.327   2.806  0.5075  0.5520  0.1286
49512SOL    HW153221  10.892   8.275   2.728 -2.0989 -0.0653 -0.2263
49512SOL    HW253222  10.784   8.362   2.790 -0.1574  0.3359  2.7689
49513SOL     OW53223   3.403   5.562   1.675  0.7121  0.2465  0.5178
49513SOL    HW153224   3.312   5.587   1.660  0.5062 -0.1285  1.1325
49513SOL    HW253225   3.400   5.504   1.751  1.2217 -1.3465 -0.6265
49514SOL     OW53226   9.320   3.802   0.325  0.6072 -0.3936 -0.6673
49514SOL    HW153227   9.382   3.747   0.373 -0.3626  0.3450  1.5277
49514SOL    HW253228   9.376   3.861   0.273  1.6683 -2.8056 -2.4928
49515SOL     OW53229   3.381   4.105   8.437 -0.5530  0.4696  0.7341
49515SOL    HW153230   3.405   4.091   8.528  0.1598  0.7754  0.5991
49515SOL    HW253231   3.360   4.018   8.403  0.0138  0.2453  0.9592
49516SOL     OW53232   7.835   2.353   0.221  0.0466  0.3728  0.3283
49516SOL    HW153233   7.896   2.290   0.184  1.9954  3.3596 -1.9611
49516SOL    HW253234   7.753   2.338   0.174  0.2075 -0.8934  0.4084
49517SOL     OW53235  11.359   7.258   2.627 -0.1232  0.1386 -0.0003
49517SOL    HW153236  11.399   7.173   2.609  0.2381  0.7188 -2.2412
49517SOL    HW253237  11.265   7.242   2.619 -0.0713 -0.1047 -0.1361
49518SOL     OW53238   1.639   0.620   9.628  0.0230 -0.1989 -0.0062
49518SOL    HW153239   1.632   0.707   9.666  0.0689  0.0091 -0.4599
49518SOL    HW253240   1.732   0.599   9.631  0.4597  1.0132 -2.5516
49519SOL     OW53241   8.131   6.148   9.496  0.0470  0.4516  0.6808
49519SOL    HW153242   8.091   6.064   9.518 -2.0790  0.2583 -3.1043
49519SOL    HW253243   8.064   6.213   9.520 -0.0803  0.6648 -0.2332
49520SOL     OW53244   9.692   6.430   2.607 -0.8261 -0.1023  0.3308
49520SOL    HW153245   9.680   6.391   2.521 -0.9278 -1.9691  1.1537
49520SOL    HW253246   9.616   6.400   2.658 -0.1204 -0.0664  1.4324
49521SOL     OW53247  11.286   3.160   7.699 -0.3060 -0.9820 -0.2221
49521SOL    HW153248  11.314   3.178   7.610 -0.3522  0.7386  0.0700
49521SOL    HW253249  11.200   3.119   7.690 -2.0906  2.5369 -0.9804
49522SOL     OW53250   1.452   2.894   1.779  0.1288  0.1797  1.0914
49522SOL    HW153251   1.415   2.925   1.696  0.0134 -1.8826  0.3296
49522SOL    HW253252   1.381   2.849   1.823  0.9156 -1.1801  1.0112
49523SOL     OW53253   9.484   2.611   7.202  0.0679  0.7252 -0.4348
49523SOL    HW153254   9.562   2.557   7.213 -0.6394  0.1404  2.5921
49523SOL    HW253255   9.438   2.572   7.128  0.9758 -1.0449 -0.1261
49524SOL     OW53256   2.343   6.006   0.659 -0.4084  0.4592  0.5651
49524SOL    HW153257   2.332   5.993   0.564 -1.0599  1.0347  0.5567
49524SOL    HW253258   2.384   5.925   0.689  1.3743  0.9149 -0.4645
49525SOL     OW53259   4.264   3.151  10.647 -0.0428  0.8514  0.1061
49525SOL    HW153260   4.312   3.227  10.681  2.0591 -0.7203  0.9037
49525SOL    HW253261   4.266   3.087  10.719 -1.5797 -0.0521 -0.6016
49526SOL     OW53262   0.889   5.208   9.551  0.1152 -0.2002 -0.1460
49526SOL    HW153263   0.868   5.300   9.538  0.0092  0.1153  1.9441
49526SOL    HW253264   0.804   5.163   9.546 -0.2877  0.2463  1.7944
49527SOL     OW53265   3.471   6.219   0.093  0.6407  0.0100  0.0579
49527SOL    HW153266   3.469   6.252   0.003  1.3243  0.9268  0.3692
49527SOL    HW253267   3.520   6.285   0.142 -0.2391 -0.1750  1.2323
49528SOL     OW53268   4.902   9.314   4.249  0.8331  0.0376  0.0597
49528SOL    HW153269   4.925   9.368   4.173  2.8263  1.1332  1.3653
49528SOL    HW253270   4.919   9.224   4.219  1.0180  0.3990 -0.9892
49529SOL     OW53271  11.901   1.676   9.794 -0.4728 -0.3950  0.3387
49529SOL    HW153272  11.973   1.620   9.824 -1.0869 -0.4606  1.7864
49529SOL    HW253273  11.945   1.750   9.751  0.5402 -0.0652  1.8201
49530SOL     OW53274   1.081   0.196   7.893 -0.1889  0.4824 -0.7585
49530SOL    HW153275   1.139   0.224   7.823 -0.9876  0.3165 -1.4998
49530SOL    HW253276   1.125   0.120   7.932  0.3491  0.6922 -0.9539
49531SOL     OW53277   3.130   4.745   1.787 -0.4190 -0.4899  0.3161
49531SOL    HW153278   3.054   4.732   1.844  0.4003 -1.3799  1.2281
49531SOL    HW253279   3.172   4.660   1.782  0.0977 -0.1945 -0.8345
49532SOL     OW53280   7.407   6.909   8.268  0.2900 -0.3317  0.2056
49532SOL    HW153281   7.495   6.909   8.305  0.8018 -2.1965 -0.8913
49532SOL    HW253282   7.385   6.816   8.258 -1.4173  0.1043 -0.4372
49533SOL     OW53283   6.785   8.619   8.325 -0.3000  0.3228  0.2819
49533SOL    HW153284   6.828   8.635   8.241 -0.9604  0.1281 -0.1017
49533SOL    HW253285   6.834   8.673   8.387  1.9281 -1.5572  0.3064
49534SOL     OW53286   2.889   8.981  11.685  0.6165 -0.9313  0.2469
49534SOL    HW153287   2.860   8.928  11.759  0.2869 -0.7137  0.2715
49534SOL    HW253288   2.847   9.066  11.697  1.0906 -0.6792  0.1733
49535SOL     OW53289   4.021   7.445  10.887  0.1295 -0.2689  0.2118
49535SOL    HW153290   4.041   7.360  10.849  1.3186  1.0483 -2.3521
49535SOL    HW253291   4.102   7.472  10.931  1.1170  1.0715 -2.2334
49536SOL     OW53292   3.803  10.065   1.093 -0.6785  0.3113  0.4042
49536SOL    HW153293   3.763  10.147   1.063 -1.0287 -0.0925 -0.2537
49536SOL    HW253294   3.839  10.025   1.013 -0.6188 -0.2395  0.7010
49537SOL     OW53295   7.900   2.948   7.239  0.0366 -0.1172 -0.0035
49537SOL    HW153296   7.975   2.963   7.298 -0.5286 -0.5902  0.8604
49537SOL    HW253297   7.846   2.884   7.286 -1.2421  0.7098 -0.3224
49538SOL     OW53298   0.663   0.040   6.441 -0.9774 -0.1164  0.2907
49538SOL    HW153299   0.694   0.120   6.398 -0.6506 -0.1504  0.4642
49538SOL    HW253300   0.678  -0.029   6.376 -4.7348  0.4448 -1.4408
49539SOL     OW53301  11.153   7.985   9.344  0.2021 -0.2561  0.4832
49539SOL    HW153302  11.100   7.905   9.343 -0.1626 -0.0056 -0.0331
49539SOL    HW253303  11.207   7.979   9.265  0.0489  0.0951  0.3526
49540SOL     OW53304   3.153  11.243   4.370 -0.3756  0.2319 -0.6518
49540SOL    HW153305   3.141  11.267   4.462 -1.0223  0.8550 -0.8938
49540SOL    HW253306   3.161  11.326   4.324 -1.0642 -0.0414 -1.2902
49541SOL     OW53307  11.929   4.602   7.267  0.3928 -0.3049 -0.8973
49541SOL    HW153308  11.979   4.571   7.191 -0.4930 -3.0889 -0.4759
49541SOL    HW253309  11.980   4.572   7.342  0.0049  0.2216 -0.4248
49542SOL     OW53310  10.999   1.443   7.367  0.0829 -0.1754 -0.1546
49542SOL    HW153311  10.983   1.387   7.291  0.6503 -0.2832 -0.1997
49542SOL    HW253312  11.093   1.461   7.363 -0.2620  1.6390 -0.7242
49543SOL     OW53313   4.092  11.876   6.108 -0.5715 -0.4400 -0.1118
49543SOL    HW153314   4.182  11.870   6.141 -0.1673  1.2340 -0.7916
49543SOL    HW253315   4.043  11.812   6.159  0.6851 -0.2442  1.4157
49544SOL     OW53316   1.138   8.735   7.051  0.4105  0.1891  0.0055
49544SOL    HW153317   1.160   8.711   7.141  0.0227 -0.5054 -0.0770
49544SOL    HW253318   1.066   8.676   7.027 -0.2073  1.0754 -0.3968
49545SOL     OW53319  11.182  10.428   4.479 -0.3455  0.1540  0.0592
49545SOL    HW153320  11.126  10.505   4.470 -0.8346 -0.1537  0.3873
49545SOL    HW253321  11.173  10.383   4.395  0.6091  0.8790 -0.4519
49546SOL     OW53322   8.448   7.710   7.322 -0.3740 -0.7359  0.3846
49546SOL    HW153323   8.464   7.784   7.380 -1.3843 -1.0328  1.0690
49546SOL    HW253324   8.535   7.679   7.297  0.0617 -0.1696  1.1847
49547SOL     OW53325  11.810   7.095   2.086  0.4298 -0.8615  0.1807
49547SOL    HW153326  11.877   7.066   2.023  2.0542  1.8260  0.5063
49547SOL    HW253327  11.812   7.028   2.154  1.7253 -1.6382 -0.5642
49548SOL     OW53328   1.435   5.873   4.086  0.4820 -0.0914  0.0881
49548SOL    HW153329   1.525   5.904   4.077 -0.1612  1.5924 -0.9739
49548SOL    HW253330   1.402   5.916   4.165  0.3127  0.0649 -0.0661
49549SOL     OW53331   0.831   3.774  10.982 -0.5168 -0.1748 -0.0656
49549SOL    HW153332   0.803   3.825  10.906  0.3133  0.7607  0.2367
49549SOL    HW253333   0.774   3.697  10.981 -0.7437 -0.0190 -1.4371
49550SOL     OW53334   0.728  11.121   9.023 -0.0434  0.1873  0.1340
49550SOL    HW153335   0.778  11.185   9.073  0.4330  0.3820 -0.5813
49550SOL    HW253336   0.664  11.172   8.975  0.6118  0.1820 -0.7629
49551SOL     OW53337   3.564  10.496   6.415  0.3462 -0.0261 -0.2448
49551SOL    HW153338   3.503  10.546   6.470 -0.8882 -2.2873  0.5570
49551SOL    HW253339   3.566  10.409   6.455  0.2935 -1.4419 -3.1221
49552SOL     OW53340  11.212  11.255  10.403 -0.1780 -0.0549  0.3371
49552SOL    HW153341  11.250  11.310  10.473 -1.2617 -0.3988  1.2196
49552SOL    HW253342  11.118  11.271  10.409 -0.2478  0.4459 -1.5353
49553SOL     OW53343   3.494   0.537   9.040 -0.4797  0.4080  0.3037
49553SOL    HW153344   3.415   0.578   9.074 -0.3304  0.0724  1.0764
49553SOL    HW253345   3.498   0.452   9.083 -0.6974 -0.3701 -1.1463
49554SOL     OW53346   6.023   3.837   6.744  0.3027 -0.0384  0.1515
49554SOL    HW153347   6.066   3.781   6.809 -1.0316 -1.7387 -0.3686
49554SOL    HW253348   6.051   3.802   6.659 -1.6429 -0.8597 -0.1965
49555SOL     OW53349  11.385   7.381   6.906  0.0025 -0.1739  0.1691
49555SOL    HW153350  11.423   7.387   6.994 -1.4934  1.7595  0.7481
49555SOL    HW253351  11.298   7.342   6.920 -0.1725 -0.0375 -0.4916
49556SOL     OW53352   5.766  10.505   3.904 -0.3309  0.2917  0.3281
49556SOL    HW153353   5.735  10.594   3.920 -1.0782  0.4739 -1.8012
49556SOL    HW253354   5.862  10.514   3.902 -0.3646  0.8890  0.8714
49557SOL     OW53355   7.502   5.865   4.440 -0.1303  0.2373 -0.0689
49557SOL    HW153356   7.472   5.788   4.488  0.7674  0.7837  1.4103
49557SOL    HW253357   7.473   5.939   4.492 -0.8020  0.9296 -1.3759
49558SOL     OW53358  10.748   1.839   2.006  0.4378 -0.4261  0.3623
49558SOL    HW153359  10.711   1.760   1.968  1.5764 -0.4187 -0.8280
49558SOL    HW253360  10.688   1.909   1.979  1.1418 -0.4414 -1.3949
49559SOL     OW53361   6.743   3.882   0.931  0.1815  0.0219 -0.7126
49559SOL    HW153362   6.741   3.978   0.932 -0.0322  0.0226 -1.1293
49559SOL    HW253363   6.652   3.856   0.945 -0.1789 -0.0897 -2.9616
49560SOL     OW53364   9.306   7.796   4.490 -0.0169 -0.1998 -0.2310
49560SOL    HW153365   9.337   7.719   4.537  1.4171  0.5930  0.1953
49560SOL    HW253366   9.233   7.765   4.437 -0.2481 -1.5825  0.8500
49561SOL     OW53367   7.892   1.206   2.438 -0.6669 -0.0251  0.3665
49561SOL    HW153368   7.897   1.136   2.504  0.5002 -0.2329  0.0776
49561SOL    HW253369   7.860   1.282   2.486  0.6760 -0.0290  1.3262
49562SOL     OW53370   0.350   2.033   1.924  0.0989  0.2199  0.0923
49562SOL    HW153371   0.274   2.001   1.972  0.8950 -1.2370  0.4425
49562SOL    HW253372   0.362   2.123   1.955 -0.1630 -0.2718  1.7151
49563SOL     OW53373   3.455   8.175   8.049  0.2233 -0.3713  0.0462
49563SOL    HW153374   3.470   8.259   8.005  1.0191  0.5109  1.9009
49563SOL    HW253375   3.459   8.196   8.143 -0.1420 -2.3878  0.5571
49564SOL     OW53376   4.163   2.884   2.722 -0.2935  0.3461  0.2135
49564SOL    HW153377   4.210   2.966   2.734  0.1460  0.0023  0.9396
49564SOL    HW253378   4.222   2.817   2.757 -2.0572  0.0731  2.9354
49565SOL     OW53379   1.640  11.826   0.315 -0.4826  0.3178  0.2374
49565SOL    HW153380   1.647  11.812   0.409 -1.5826 -2.3518 -0.0040
49565SOL    HW253381   1.728  11.811   0.281 -0.6821 -1.8954  0.5501
49566SOL     OW53382   7.932   3.299   9.855  0.4843 -0.4972  0.0295
49566SOL    HW153383   7.875   3.222   9.852  1.5838 -1.3597  0.6889
49566SOL    HW253384   7.898   3.356   9.786 -0.5549 -1.4240 -0.2581
49567SOL     OW53385  10.148  10.329   0.759  0.0186 -0.3789  0.3823
49567SOL    HW153386  10.199  10.375   0.827  0.1977 -0.8501  0.5697
49567SOL    HW253387  10.171  10.374   0.678  1.1650 -0.9203  0.3760
49568SOL     OW53388   9.287   8.443   1.474 -0.5837  0.3617 -0.0118
49568SOL    HW153389   9.192   8.426   1.478 -0.4029 -1.7247 -2.2547
49568SOL    HW253390   9.327   8.360   1.498  0.7540  1.3483  1.3790
49569SOL     OW53391   0.779  11.295  10.163 -0.1839  0.6207 -0.3063
49569SOL    HW153392   0.768  11.363  10.096 -0.8418 -0.6592 -1.5484
49569SOL    HW253393   0.871  11.267  10.154  0.1551  1.4669  0.3641
49570SOL     OW53394   7.508   3.682   4.504  0.2294  0.1529  0.1321
49570SOL    HW153395   7.444   3.614   4.480  0.5735 -0.5910  1.2201
49570SOL    HW253396   7.570   3.637   4.561  2.5249  0.5218 -1.9340
49571SOL     OW53397   0.491   2.416   4.766 -0.4747 -0.6061  0.6171
49571SOL    HW153398   0.445   2.488   4.722  1.7204  0.1103 -0.6708
49571SOL    HW253399   0.499   2.446   4.857 -0.6076  0.2412  0.3628
49572SOL     OW53400   6.813   2.125   0.869  0.3568  0.0656  0.1914
49572SOL    HW153401   6.835   2.127   0.776 -0.7220  1.7971 -0.0746
49572SOL    HW253402   6.740   2.064   0.876 -2.0550  2.6236 -0.7880
49573SOL     OW53403   8.320   9.213   0.880  0.7780  0.2713  0.1738
49573SOL    HW153404   8.320   9.262   0.962 -0.8497  0.3106  0.1870
49573SOL    HW253405   8.324   9.121   0.907  0.9809  0.3058  0.2633
49574SOL     OW53406   2.976   2.422  10.629 -0.3089 -0.2877  0.0287
49574SOL    HW153407   3.005   2.480  10.559 -0.8411 -2.4294 -2.1152
49574SOL    HW253408   2.884   2.444  10.642 -0.2234  0.0867  0.0068
49575SOL     OW53409   8.377   4.063   4.377 -0.4516 -0.3149 -0.2475
49575SOL    HW153410   8.452   4.034   4.430  0.4937  0.1356 -1.3002
49575SOL    HW253411   8.398   4.034   4.288 -1.7158 -0.4962 -0.5064
49576SOL     OW53412   4.727   8.592   8.236  0.6141  0.1519 -0.8967
49576SOL    HW153413   4.652   8.613   8.180  0.3055  0.5060 -0.3604
49576SOL    HW253414   4.688   8.578   8.322  1.2402  0.9339 -0.4852
49577SOL     OW53415   9.330   9.351   6.136  0.2896  0.1793  0.5579
49577SOL    HW153416   9.416   9.318   6.108  0.8150 -0.7810  3.0227
49577SOL    HW253417   9.345   9.385   6.224 -2.4579 -3.2210  2.5810
49578SOL     OW53418   4.365   7.857   1.562 -0.1004  0.0777 -0.1248
49578SOL    HW153419   4.302   7.806   1.510 -0.1324  1.3213 -1.3718
49578SOL    HW253420   4.316   7.886   1.638 -0.8976  0.6001 -0.8210
49579SOL     OW53421   8.504   2.666   2.200 -0.4289  0.5621  0.1790
49579SOL    HW153422   8.474   2.691   2.113 -0.7655 -0.6177 -0.0618
49579SOL    HW253423   8.599   2.660   2.193 -0.2461  2.5044  0.4591
49580SOL     OW53424   0.356  10.887   3.214 -0.5651  0.1561  0.7018
49580SOL    HW153425   0.309  10.852   3.290 -1.1267  0.1116  0.3388
49580SOL    HW253426   0.397  10.810   3.175 -0.2134  0.1893  0.9923
49581SOL     OW53427   2.636   8.668   7.209 -0.0603 -0.0733 -0.3747
49581SOL    HW153428   2.696   8.619   7.153  0.7550 -0.8669  1.1149
49581SOL    HW253429   2.610   8.605   7.276 -0.3389  1.0599  0.6086
49582SOL     OW53430   4.198   8.439   4.280 -0.2520 -0.7328 -0.1805
49582SOL    HW153431   4.239   8.359   4.313 -0.4023 -0.7520 -0.0405
49582SOL    HW253432   4.271   8.489   4.242  0.1565 -0.1259  1.3123
49583SOL     OW53433   2.585   9.555   9.448  0.1311  0.3170  0.3903
49583SOL    HW153434   2.642   9.586   9.519 -1.2395 -0.6377  1.9817
49583SOL    HW253435   2.617   9.600   9.370  0.3206  3.1270  1.9707
49584SOL     OW53436   4.898   4.562   7.096 -0.2757  0.3961  0.1446
49584SOL    HW153437   4.853   4.496   7.150 -0.5357  0.8810  0.5351
49584SOL    HW253438   4.942   4.618   7.160 -0.1460  0.6636 -0.1787
49585SOL     OW53439   5.428  11.744   1.598 -0.2013  0.4635 -0.4014
49585SOL    HW153440   5.356  11.687   1.575  1.8320 -3.1096  1.2785
49585SOL    HW253441   5.491  11.734   1.527  1.1069 -1.3373  0.9125
49586SOL     OW53442   8.317   4.593   8.248  0.2576  0.3350  0.2984
49586SOL    HW153443   8.274   4.561   8.169  4.0300 -1.1131 -1.4030
49586SOL    HW253444   8.288   4.533   8.317 -1.9040  0.6857 -0.2234
49587SOL     OW53445   6.424   9.096   8.057 -0.1108  0.1887  0.2896
49587SOL    HW153446   6.446   9.094   8.150 -1.2565  2.5334  0.7020
49587SOL    HW253447   6.328   9.095   8.055 -0.1140  0.5587 -0.8387
49588SOL     OW53448  11.055   4.385   1.780  0.3312  0.2553 -0.6179
49588SOL    HW153449  11.049   4.300   1.823 -2.3912 -0.5259 -2.3028
49588SOL    HW253450  11.149   4.398   1.765  1.3593  0.0458  4.1585
49589SOL     OW53451  11.448   5.956   1.152 -0.0525 -0.2495 -0.5810
49589SOL    HW153452  11.403   5.881   1.113  1.2884 -1.4106  0.0361
49589SOL    HW253453  11.422   5.954   1.244 -0.1855  0.1924 -0.6056
49590SOL     OW53454  10.880   5.329   2.773  0.0143  0.0401  0.2633
49590SOL    HW153455  10.951   5.393   2.762 -0.1176  0.1753  0.1936
49590SOL    HW253456  10.820   5.348   2.701  0.6255 -1.0219 -0.5620
49591SOL     OW53457   5.099   3.872   6.228 -0.1712  0.3532  0.5708
49591SOL    HW153458   5.093   3.920   6.146  1.1454  1.8484  1.2719
49591SOL    HW253459   5.015   3.886   6.271 -0.1494  1.2692  0.3351
49592SOL     OW53460   4.196   4.617   2.725 -0.2407  0.3275 -0.1385
49592SOL    HW153461   4.191   4.522   2.728 -0.8376  0.3651  0.4121
49592SOL    HW253462   4.289   4.636   2.714 -0.3086 -0.3359 -2.2796
49593SOL     OW53463   3.228  11.177   4.910 -0.1390 -0.0312  0.7513
49593SOL    HW153464   3.290  11.249   4.918 -0.3149  0.6157 -2.5068
49593SOL    HW253465   3.269  11.117   4.848 -1.7844 -0.7173  0.2714
49594SOL     OW53466   5.839   0.927   5.114  0.5288  0.2922 -0.1315
49594SOL    HW153467   5.815   1.015   5.087  2.4199  1.3698  1.4832
49594SOL    HW253468   5.935   0.927   5.117  0.7373 -2.5449 -2.3279
49595SOL     OW53469   9.072   6.027   7.792  0.0567 -0.3554  0.3824
49595SOL    HW153470   9.149   5.996   7.840  2.0553  1.8365 -1.1549
49595SOL    HW253471   9.016   6.066   7.858  1.4740  0.2351  1.2858
49596SOL     OW53472   6.265   8.812   1.089  0.0304  0.9632  0.3188
49596SOL    HW153473   6.201   8.834   1.156  0.0572 -0.0743  0.6898
49596SOL    HW253474   6.348   8.806   1.136 -0.0080 -0.1312  0.2742
49597SOL     OW53475   2.677   3.738   8.640 -0.4652 -0.0599 -0.8000
49597SOL    HW153476   2.728   3.766   8.717 -1.1359 -0.7753 -0.0729
49597SOL    HW253477   2.593   3.783   8.649 -0.5395 -0.1296 -1.1284
49598SOL     OW53478   8.958   0.951   7.723  0.5116  0.0208  0.3717
49598SOL    HW153479   8.961   1.005   7.802 -0.3214 -0.1811  0.5475
49598SOL    HW253480   9.049   0.948   7.693  0.8778 -0.0816  1.4494
49599SOL     OW53481   5.454   3.366   4.501  0.3199  0.0519  0.3361
49599SOL    HW153482   5.436   3.273   4.518  2.1560 -0.2720  0.6652
49599SOL    HW253483   5.542   3.368   4.464  1.4471  1.8322  2.8057
49600SOL     OW53484  10.123   9.683   7.972 -0.4828  0.5445  0.2020
49600SOL    HW153485  10.116   9.606   8.028 -0.7972  0.1175 -0.4088
49600SOL    HW253486  10.032   9.709   7.956 -0.3800  2.3026  2.0700
49601SOL     OW53487   1.000   1.158   8.996 -0.0791  0.1803 -0.2297
49601SOL    HW153488   0.959   1.230   9.044  0.6575 -0.2573  1.0885
49601SOL    HW253489   0.937   1.086   9.002  0.2280 -0.0314  0.5313
49602SOL     OW53490   3.494   2.560   0.322  0.1322 -0.2057  0.1982
49602SOL    HW153491   3.513   2.470   0.352 -0.3225 -0.3965 -0.0830
49602SOL    HW253492   3.448   2.600   0.396  0.9037  0.0060  0.5756
49603SOL     OW53493   9.184   2.700   5.142 -0.3075 -0.0103  0.0709
49603SOL    HW153494   9.227   2.616   5.158  0.8371  0.5746  0.2079
49603SOL    HW253495   9.202   2.751   5.222 -0.2788  0.6420 -0.3465
49604SOL     OW53496   9.289   6.807   4.289 -0.2061 -0.0560 -0.1566
49604SOL    HW153497   9.284   6.784   4.382 -0.5428 -1.1583 -0.4288
49604SOL    HW253498   9.228   6.879   4.279 -0.3624 -0.0988  0.4339
49605SOL     OW53499  10.721   7.016   7.446  0.1505 -0.6273 -0.6888
49605SOL    HW153500  10.682   7.077   7.508  0.6423  0.4992 -1.4501
49605SOL    HW253501  10.689   7.044   7.360  0.2173 -1.5764 -1.0441
49606SOL     OW53502   0.407   0.989   4.830 -0.0737  0.1013 -0.1309
49606SOL    HW153503   0.430   0.925   4.762 -3.2532  0.7676 -2.0703
49606SOL    HW253504   0.339   0.945   4.882  0.3762  0.6012  0.9063
49607SOL     OW53505   1.240   2.717   3.846 -0.3594 -0.0554  0.1394
49607SOL    HW153506   1.156   2.743   3.809 -0.1746 -0.2450 -0.4204
49607SOL    HW253507   1.266   2.791   3.900 -0.8968 -0.0055  0.3399
49608SOL     OW53508   8.717   7.504   5.957 -0.4718 -0.1988  0.0270
49608SOL    HW153509   8.765   7.423   5.971 -1.0200 -0.3071  1.3875
49608SOL    HW253510   8.755   7.566   6.019 -0.7452  0.2871 -0.2852
49609SOL     OW53511   4.869   6.814   1.147  0.1596 -0.7940 -0.5769
49609SOL    HW153512   4.942   6.757   1.123  1.7504  0.6055  0.6450
49609SOL    HW253513   4.813   6.816   1.070  2.6678 -0.0375 -2.5304
49610SOL     OW53514  10.398  10.432   6.464 -0.2400  0.2754 -0.2076
49610SOL    HW153515  10.339  10.411   6.537 -1.5200  1.6895 -0.7759
49610SOL    HW253516  10.377  10.368   6.396  1.4614 -1.5089  0.8660
49611SOL     OW53517   2.773   0.191  10.079  0.0013  0.4178 -0.9355
49611SOL    HW153518   2.813   0.105  10.068  1.5796  0.8850  0.7598
49611SOL    HW253519   2.710   0.197  10.007  0.7354 -1.6327 -1.8275
49612SOL     OW53520   8.171   3.205   8.565  0.0744 -0.3407  0.1765
49612SOL    HW153521   8.172   3.287   8.614  0.3346 -0.5148  0.4647
49612SOL    HW253522   8.247   3.212   8.507  0.1435 -0.4164  0.2598
49613SOL     OW53523   5.515   1.066   0.634 -0.0193  0.6310 -0.4171
49613SOL    HW153524   5.566   1.100   0.708 -2.0451 -1.3741  2.0708
49613SOL    HW253525   5.496   1.143   0.580  1.0406  2.2735  1.4456
49614SOL     OW53526   1.247   2.538   4.507 -0.8612  0.4215  0.2560
49614SOL    HW153527   1.151   2.543   4.509 -0.8277  1.5971 -0.1623
49614SOL    HW253528   1.268   2.457   4.554 -2.0384  0.3686  0.7272
49615SOL     OW53529  10.068  10.490   0.260 -0.2148  0.4058  0.0645
49615SOL    HW153530   9.974  10.494   0.276 -0.3378 -0.7001 -0.3229
49615SOL    HW253531  10.094  10.582   0.249 -1.0920  0.7789  0.9702
49616SOL     OW53532   8.134   4.519   6.590  0.2122  0.2465  0.3612
49616SOL    HW153533   8.066   4.509   6.656  0.2565 -0.0848  0.3562
49616SOL    HW253534   8.087   4.516   6.507  0.2751 -0.3396  0.3463
49617SOL     OW53535   0.150   4.499   4.789 -0.1445 -0.3032 -0.3456
49617SOL    HW153536   0.133   4.516   4.697 -1.5868  0.8049  0.0750
49617SOL    HW253537   0.072   4.452   4.820  0.2917 -0.6152  0.3230
49618SOL     OW53538   5.328   4.319   4.272 -0.1848 -0.9691 -0.0607
49618SOL    HW153539   5.313   4.246   4.212 -0.5205 -0.3893 -0.6936
49618SOL    HW253540   5.327   4.279   4.359 -2.1454 -1.4699 -0.2712
49619SOL     OW53541   7.269   0.130   3.796 -0.2292  0.5891  0.5933
49619SOL    HW153542   7.333   0.195   3.823 -0.4611 -0.0694  2.9811
49619SOL    HW253543   7.299   0.048   3.835 -1.9023  0.0377  0.8277
49620SOL     OW53544   0.468   6.254  11.960 -0.4530 -0.3613  0.0992
49620SOL    HW153545   0.507   6.271  12.046 -1.8098  3.0699  0.2007
49620SOL    HW253546   0.535   6.283  11.898 -0.1842 -1.0821  0.0505
49621SOL     OW53547   2.617   2.540   6.132  0.1750 -0.2148 -0.3595
49621SOL    HW153548   2.625   2.542   6.037 -0.4033  0.1153 -0.4054
49621SOL    HW253549   2.705   2.519   6.163  0.3557 -0.3825 -0.9657
49622SOL     OW53550   1.156  11.238   0.939  0.0102  0.1913  0.1908
49622SOL    HW153551   1.169  11.143   0.933 -1.8222 -0.1988  1.3843
49622SOL    HW253552   1.199  11.263   1.020  0.8009  0.4615 -0.3042
49623SOL     OW53553   8.462   7.448   5.276  0.0537 -0.6243 -0.2867
49623SOL    HW153554   8.510   7.462   5.358  0.6495 -2.1818 -0.3440
49623SOL    HW253555   8.419   7.532   5.259  0.1844 -0.1720  1.4456
49624SOL     OW53556   9.982   7.151   2.020 -0.4320  0.1960  0.2464
49624SOL    HW153557   9.910   7.189   1.970 -1.4232  1.2257  2.3482
49624SOL    HW253558  10.035   7.225   2.047 -0.4725 -0.2330  1.5434
49625SOL     OW53559   0.281  11.540   5.911 -0.0727 -0.1429  0.2529
49625SOL    HW153560   0.297  11.533   5.817 -0.2638  1.2725  0.0937
49625SOL    HW253561   0.227  11.464   5.932  1.5382 -1.5406 -0.4016
49626SOL     OW53562   3.690   0.294   7.684 -0.3483  0.5650  0.0205
49626SOL    HW153563   3.636   0.215   7.687 -0.4239  0.4695 -2.1637
49626SOL    HW253564   3.629   0.365   7.703 -1.2567  0.4291 -2.1466
49627SOL     OW53565  10.219   5.553   8.413  0.2044 -0.3816  0.4171
49627SOL    HW153566  10.165   5.505   8.349  0.6095 -1.1688  0.6611
49627SOL    HW253567  10.305   5.511   8.408  0.4946  0.1615  0.8179
49628SOL     OW53568   8.197  11.360   1.749  0.6904 -0.2743 -0.1073
49628SOL    HW153569   8.165  11.361   1.839  1.8158 -0.2595  0.3007
49628SOL    HW253570   8.279  11.311   1.752  2.8163  2.9627 -0.3558
49629SOL     OW53571   4.936   1.637   6.785 -0.2017  0.5535  0.3681
49629SOL    HW153572   4.953   1.729   6.808 -0.1388 -0.0407  3.0859
49629SOL    HW253573   4.843   1.625   6.804  0.2746 -0.4613  2.4273
49630SOL     OW53574   9.289   4.736   1.941 -0.1121 -0.1607  0.4482
49630SOL    HW153575   9.282   4.732   2.036 -0.5827 -1.2690  0.3848
49630SOL    HW253576   9.217   4.681   1.910  0.5981 -0.5483 -0.5367
49631SOL     OW53577   8.152  10.422  11.132  0.4952  0.2171 -0.5612
49631SOL    HW153578   8.145  10.497  11.191  0.1611 -0.2819  0.0413
49631SOL    HW253579   8.220  10.447  11.069 -0.5528  1.5796 -1.2012
49632SOL     OW53580   8.349   0.108   9.753 -0.3335 -0.0938  0.3178
49632SOL    HW153581   8.383   0.074   9.836  1.9757  0.4183 -0.3513
49632SOL    HW253582   8.304   0.033   9.713 -0.2366 -0.7381  1.3937
49633SOL     OW53583  11.005   0.238   3.034  0.5156  0.3074 -0.1349
49633SOL    HW153584  11.041   0.174   3.096 -0.7043 -0.7901 -0.5127
49633SOL    HW253585  10.924   0.267   3.075  1.4155  2.2265  0.3819
49634SOL     OW53586   9.096  11.659  10.119  0.5106  0.2784  0.3471
49634SOL    HW153587   9.151  11.641  10.042 -0.4076 -0.2582 -0.2106
49634SOL    HW253588   9.097  11.754  10.128  0.1459  0.3998 -0.7187
49635SOL     OW53589   4.329   8.873   9.444 -0.0922 -0.1709 -0.2978
49635SOL    HW153590   4.321   8.880   9.539 -0.9041  0.8511 -0.4262
49635SOL    HW253591   4.247   8.833   9.416  0.6346 -1.5934 -0.4801
49636SOL     OW53592   6.441   0.294   9.223  0.2047 -0.3668 -0.0001
49636SOL    HW153593   6.361   0.278   9.274  0.4006  0.3445  0.5423
49636SOL    HW253594   6.473   0.207   9.201 -0.6624 -0.6633 -0.1345
49637SOL     OW53595   5.026   1.247   1.332 -0.5334 -0.0877  0.0566
49637SOL    HW153596   5.028   1.318   1.395 -1.8282  0.0589 -0.0390
49637SOL    HW253597   5.079   1.178   1.371 -0.2545  0.4809  0.6975
49638SOL     OW53598  10.602   0.286   7.271 -0.2811  0.2750  0.4510
49638SOL    HW153599  10.548   0.281   7.193 -1.6558  0.0086  1.3907
49638SOL    HW253600  10.690   0.261   7.241 -0.8223 -0.0503 -0.9377
49639SOL     OW53601   0.232   5.157   1.626  0.0911  0.1020  0.1596
49639SOL    HW153602   0.303   5.218   1.648 -0.1312  0.3317  0.2371
49639SOL    HW253603   0.273   5.094   1.567  0.5061 -0.0965  0.6528
49640SOL     OW53604   8.560   6.480   9.620 -0.2149 -0.5021  0.2129
49640SOL    HW153605   8.499   6.498   9.691 -0.2748 -2.0052  0.5860
49640SOL    HW253606   8.508   6.433   9.555  0.4850 -1.7320  0.5005
49641SOL     OW53607  10.712   2.028   3.201 -0.3298 -0.5557 -0.0610
49641SOL    HW153608  10.649   2.034   3.128 -1.6905 -0.5445  1.0641
49641SOL    HW253609  10.723   1.933   3.214 -1.2609 -0.5799  0.6590
49642SOL     OW53610   0.648   8.767   9.893  0.1028 -0.1633 -0.1535
49642SOL    HW153611   0.742   8.748   9.894  0.3701  0.2241  4.8135
49642SOL    HW253612   0.609   8.699   9.947 -1.8947  1.6866  0.9078
49643SOL     OW53613   0.886   5.866   3.529  0.2015  0.0674 -0.0465
49643SOL    HW153614   0.973   5.898   3.552 -0.6348  0.7963  2.4890
49643SOL    HW253615   0.846   5.938   3.481  0.4747  0.3558  0.1520
49644SOL     OW53616   6.280  11.302   2.482 -0.8963  0.0899  0.1370
49644SOL    HW153617   6.278  11.393   2.509  0.9460 -0.1719  1.3244
49644SOL    HW253618   6.283  11.305   2.387 -2.5808  1.1838  0.0767
49645SOL     OW53619   6.778   5.100   3.132  0.9521 -0.0903  0.3223
49645SOL    HW153620   6.806   5.009   3.123 -0.1117 -0.4617  0.6816
49645SOL    HW253621   6.727   5.117   3.053  1.1083  0.1781  0.2798
49646SOL     OW53622   8.677   8.982   9.023  0.2135 -0.1630 -0.4787
49646SOL    HW153623   8.767   8.967   9.051 -0.0320  0.8823  0.9885
49646SOL    HW253624   8.664   9.076   9.031 -2.0718 -0.5658  3.0375
49647SOL     OW53625   2.793   0.724   6.161  0.7944 -0.0661 -0.0612
49647SOL    HW153626   2.860   0.690   6.219  0.0779  0.8830  1.3845
49647SOL    HW253627   2.756   0.800   6.207 -1.5985 -0.8268 -0.5469
49648SOL     OW53628   6.411   1.054   0.947  0.4394 -0.3159 -0.0165
49648SOL    HW153629   6.457   1.135   0.969  0.2847 -0.4829  0.9808
49648SOL    HW253630   6.480   0.995   0.917  0.6634 -0.0627 -0.0037
49649SOL     OW53631   2.086   3.263   1.635  0.6795 -0.0489 -0.2376
49649SOL    HW153632   2.031   3.301   1.567 -0.0302 -1.2092 -0.3423
49649SOL    HW253633   2.067   3.315   1.713  0.8024  0.6997 -0.6968
49650SOL     OW53634   1.758   0.752   3.857 -0.3921  0.2549 -0.5382
49650SOL    HW153635   1.731   0.661   3.871 -0.9708  0.5150  0.1025
49650SOL    HW253636   1.811   0.749   3.777  1.0178 -0.9056  0.3892
49651SOL     OW53637   4.833   3.768   0.940 -0.2375  0.5394 -0.1280
49651SOL    HW153638   4.893   3.843   0.942  1.9074 -1.1045  0.4629
49651SOL    HW253639   4.817   3.748   1.032  2.2773 -1.9836 -0.1382
49652SOL     OW53640  10.302  10.348  10.294 -0.0915 -0.3862  0.3571
49652SOL    HW153641  10.297  10.256  10.267 -0.1335 -0.6881  1.3825
49652SOL    HW253642  10.253  10.352  10.376 -1.2789  0.8278 -0.3548
49653SOL     OW53643   9.009   1.541   3.822  0.3138  0.2856  0.4243
49653SOL    HW153644   9.003   1.625   3.867 -1.9606  0.1424  0.5219
49653SOL    HW253645   8.919   1.521   3.797  0.9405 -1.6507 -0.4941
49654SOL     OW53646   5.464   6.458   6.478  0.8068 -0.3771  0.2111
49654SOL    HW153647   5.375   6.476   6.450  0.7911  0.7228  0.9153
49654SOL    HW253648   5.500   6.403   6.409 -0.4501 -0.9480 -0.0115
49655SOL     OW53649   1.497   0.123   7.414 -0.7425 -0.6437 -0.3952
49655SOL    HW153650   1.565   0.074   7.368 -0.7225 -0.0093 -1.0678
49655SOL    HW253651   1.544   0.170   7.482 -0.8408 -1.9719  0.6218
49656SOL     OW53652   1.288  11.182   2.537 -0.3176  0.2134 -0.1304
49656SOL    HW153653   1.265  11.109   2.594  1.3078  1.2303  1.9690
49656SOL    HW253654   1.225  11.251   2.559  0.3268  0.6161  0.4931
49657SOL     OW53655   2.885   9.066   4.841  0.1922  0.4654 -0.4101
49657SOL    HW153656   2.884   9.144   4.897 -1.5883 -1.5521  2.6943
49657SOL    HW253657   2.817   9.082   4.776 -0.3103  1.4277  0.3295
49658SOL     OW53658   1.487  11.769   7.656  0.0739  0.5890 -0.4925
49658SOL    HW153659   1.572  11.778   7.612  0.3622  0.7110  0.0803
49658SOL    HW253660   1.483  11.844   7.716  0.7341 -0.8129  1.3983
49659SOL     OW53661   2.675   6.900   0.455  0.6996  0.0284  0.2158
49659SOL    HW153662   2.586   6.864   0.456  0.7599 -0.1580 -0.6612
49659SOL    HW253663   2.710   6.876   0.541  0.0489 -0.2613  0.4157
49660SOL     OW53664   3.334  11.922  10.852 -0.0801 -0.2266 -0.3867
49660SOL    HW153665   3.326  12.012  10.821 -1.2684 -0.5438 -1.0724
49660SOL    HW253666   3.246  11.898  10.880 -0.2297 -1.7689 -1.9757
49661SOL     OW53667   7.452   3.607  11.885  0.2604  0.1243  0.3342
49661SOL    HW153668   7.499   3.633  11.806 -1.3966 -0.8294 -1.0405
49661SOL    HW253669   7.433   3.514  11.871 -2.4457  0.5824  0.5653
49662SOL     OW53670   7.301  10.912   8.004  0.4583  0.0865  0.4260
49662SOL    HW153671   7.359  10.861   8.060 -2.3372 -1.0813  2.5127
49662SOL    HW253672   7.253  10.968   8.065  0.2429  1.9425 -1.3510
49663SOL     OW53673   1.583   1.082   6.888  0.1147 -0.4280  0.0066
49663SOL    HW153674   1.641   1.009   6.870  0.2866 -0.9229  2.2317
49663SOL    HW253675   1.502   1.042   6.920 -0.3622  0.3140 -0.2384
49664SOL     OW53676   3.076   5.141  10.647  0.2775 -0.3036 -0.5590
49664SOL    HW153677   3.164   5.106  10.629 -0.0728 -1.8008  0.4685
49664SOL    HW253678   3.021   5.103  10.579  0.0017 -1.3886  0.2325
49665SOL     OW53679  10.322   6.183   5.645 -0.7953 -0.1836 -0.2118
49665SOL    HW153680  10.349   6.151   5.559 -1.3349 -1.5115  0.0855
49665SOL    HW253681  10.367   6.267   5.654 -0.1377 -0.3648 -1.4695
49666SOL     OW53682   8.044   3.672   5.430 -0.3309  0.4459 -0.0506
49666SOL    HW153683   8.021   3.658   5.522 -2.0415  0.6774 -0.4093
49666SOL    HW253684   7.979   3.622   5.382  0.9233 -0.1746 -1.1498
49667SOL     OW53685  11.216  11.240   1.250 -0.5168  0.0033 -0.0038
49667SOL    HW153686  11.136  11.192   1.273  0.2090 -0.5751  1.4267
49667SOL    HW253687  11.284  11.173   1.245 -0.0001  0.5587 -0.7055
49668SOL     OW53688  10.677  10.188   9.899 -0.3456 -0.5272  0.0092
49668SOL    HW153689  10.759  10.207   9.853  0.1389 -2.1124  0.1465
49668SOL    HW253690  10.612  10.180   9.829  0.0080 -1.0572 -0.2743
49669SOL     OW53691   3.062   1.367   1.860  0.3976  0.5528  0.1892
49669SOL    HW153692   2.988   1.414   1.897 -1.1843 -0.2969 -1.7075
49669SOL    HW253693   3.043   1.274   1.877 -0.3279  0.1329 -2.3895
49670SOL     OW53694   5.254   3.051   9.269  0.1010 -0.6222  0.1357
49670SOL    HW153695   5.227   3.013   9.353 -0.2658  1.6741  1.1240
49670SOL    HW253696   5.349   3.038   9.267  0.1852 -0.2543  1.1576
49671SOL     OW53697  11.690   7.494   8.792 -0.3093  0.3819  0.1741
49671SOL    HW153698  11.770   7.513   8.742 -0.5765 -1.2857 -0.9869
49671SOL    HW253699  11.621   7.496   8.726 -0.7361 -1.4475  0.5077
49672SOL     OW53700   4.581   6.554  10.636 -0.1106  0.0313 -0.4826
49672SOL    HW153701   4.538   6.604  10.706  1.9470  1.8465 -0.3859
49672SOL    HW253702   4.618   6.478  10.681  1.1799  1.1648  0.4708
49673SOL     OW53703   0.519   9.692   3.678  0.1018 -0.4747  0.2257
49673SOL    HW153704   0.586   9.748   3.639 -0.8031  1.8897  1.8002
49673SOL    HW253705   0.437   9.723   3.639 -0.3571 -1.2598  0.5563
49674SOL     OW53706   2.575   0.506   3.505 -0.2404  0.1383 -0.0672
49674SOL    HW153707   2.554   0.558   3.427 -0.1710  2.0325  1.1035
49674SOL    HW253708   2.666   0.528   3.524 -0.7116  0.9191  1.4048
49675SOL     OW53709   9.585   0.537   9.982  0.2697  0.0994 -0.3970
49675SOL    HW153710   9.559   0.594   9.909  0.5438  0.1445 -0.4612
49675SOL    HW253711   9.679   0.551   9.990  0.5005 -0.9959 -0.9882
49676SOL     OW53712   0.323   2.356   0.537  0.0218  0.2055  0.1176
49676SOL    HW153713   0.235   2.377   0.567  1.1358  3.5423  1.5804
49676SOL    HW253714   0.332   2.401   0.453  0.1424 -0.6984 -0.3683
49677SOL     OW53715   3.285   5.966   3.970 -0.1908 -0.2166 -0.6438
49677SOL    HW153716   3.307   6.039   4.028 -0.2260  0.7588 -1.8050
49677SOL    HW253717   3.265   5.893   4.029  0.3915  0.5458  0.5382
49678SOL     OW53718   5.811   1.306   9.742 -0.2857  0.1586 -0.6053
49678SOL    HW153719   5.874   1.305   9.670  0.5619 -0.4013  0.1246
49678SOL    HW253720   5.860   1.340   9.816 -1.6338  2.5121 -0.6826
49679SOL     OW53721   8.383   0.141  11.661  0.9359  0.0036  0.2183
49679SOL    HW153722   8.344   0.229  11.660  2.3260  0.6821  1.3179
49679SOL    HW253723   8.415   0.128  11.572  0.8504  0.6871  0.0803
49680SOL     OW53724   4.158   9.098   6.521 -0.7348 -0.1542  0.0169
49680SOL    HW153725   4.236   9.122   6.470 -0.4149  0.6364  0.8474
49680SOL    HW253726   4.084   9.125   6.467 -0.3959  2.6969  0.8539
49681SOL     OW53727   3.003   0.021   3.510 -0.1316  0.7689 -0.0713
49681SOL    HW153728   3.070   0.036   3.577 -0.3348 -0.1686  0.3541
49681SOL    HW253729   2.981   0.109   3.478  0.9366  1.1247  0.1327
49682SOL     OW53730   3.461   6.553   5.025 -0.1364 -0.0896 -0.3061
49682SOL    HW153731   3.420   6.640   5.020 -0.9320 -0.3673  1.1271
49682SOL    HW253732   3.553   6.571   5.042 -0.3615  0.4800  0.3422
49683SOL     OW53733   1.469   8.400   0.801 -0.7719  0.2957 -0.2122
49683SOL    HW153734   1.513   8.440   0.876 -0.4836 -0.9585  0.3118
49683SOL    HW253735   1.377   8.396   0.826 -1.0695  1.9944 -0.8978
49684SOL     OW53736   4.537   1.061   2.345  0.4085  0.5020 -0.1314
49684SOL    HW153737   4.627   1.029   2.335  0.5405  0.7252  0.2950
49684SOL    HW253738   4.486   1.010   2.282  0.6044 -0.5855  0.5585
49685SOL     OW53739   1.638   9.654  10.650 -0.1800 -0.0433  0.5661
49685SOL    HW153740   1.731   9.670  10.666 -0.0639 -1.0307  0.9266
49685SOL    HW253741   1.617   9.578  10.705 -0.6993 -1.1070 -1.0441
49686SOL     OW53742   9.740   6.081   0.319 -0.4953  0.5504 -0.1444
49686SOL    HW153743   9.781   6.133   0.389  0.5510 -0.6419  0.1698
49686SOL    HW253744   9.766   5.991   0.338  0.6147  0.2828 -2.5963
49687SOL     OW53745   7.866   9.640  11.157 -0.6467 -0.0181 -0.0940
49687SOL    HW153746   7.802   9.580  11.197  1.0815 -1.2127  1.0447
49687SOL    HW253747   7.868   9.616  11.065 -0.2663 -1.5304  0.2724
49688SOL     OW53748   5.264  11.916   6.236  0.0921 -0.1768  0.2239
49688SOL    HW153749   5.334  11.943   6.177  0.9679 -3.1882 -0.2994
49688SOL    HW253750   5.188  11.903   6.179 -0.0829  0.3393  0.3370
49689SOL     OW53751   0.954   6.443  10.321 -0.5377  0.0294  0.4882
49689SOL    HW153752   0.891   6.506  10.286  0.7139  1.7293  1.1348
49689SOL    HW253753   0.928   6.432  10.413 -0.0624  0.5804  0.7017
49690SOL     OW53754   5.286   5.983   4.264  0.4860  0.0575  0.4829
49690SOL    HW153755   5.345   6.041   4.216  0.7481 -0.2640  0.4120
49690SOL    HW253756   5.267   6.029   4.346  0.5808  0.3023  0.3671
49691SOL     OW53757   8.680   6.837   7.822 -0.3731 -0.6714 -0.2118
49691SOL    HW153758   8.672   6.809   7.913 -0.0112 -1.7311 -0.4924
49691SOL    HW253759   8.717   6.761   7.776 -0.3953 -0.0997 -1.2117
49692SOL     OW53760   6.321   7.917   0.444 -0.5504 -0.4047 -0.1871
49692SOL    HW153761   6.363   7.907   0.358 -2.4879  0.2104 -1.2858
49692SOL    HW253762   6.353   8.001   0.477  0.1203 -0.5877 -0.3586
49693SOL     OW53763   6.252   9.726   2.803 -0.0121 -0.2677  0.0321
49693SOL    HW153764   6.337   9.687   2.821 -0.4165 -0.6891  1.1277
49693SOL    HW253765   6.218   9.750   2.890  0.6598  3.5583 -0.5788
49694SOL     OW53766   7.228   3.786  11.827 -0.2445  0.1102 -0.0924
49694SOL    HW153767   7.302   3.727  11.844 -1.3507 -0.7785  1.8685
49694SOL    HW253768   7.257   3.838  11.751  2.5821  0.1449  0.8743
49695SOL     OW53769   6.230   6.251   8.045  0.5337  0.0861 -0.0501
49695SOL    HW153770   6.319   6.239   8.078  0.5851  1.3168  0.3316
49695SOL    HW253771   6.232   6.217   7.956  0.3050 -3.6807  1.2333
49696SOL     OW53772   8.284   8.361   3.624 -0.2867  0.0572 -0.0497
49696SOL    HW153773   8.255   8.304   3.694  0.2979 -0.3615 -0.1351
49696SOL    HW253774   8.239   8.444   3.639  1.2784  0.6199  1.9551
49697SOL     OW53775   4.614   3.916   3.509 -0.4967 -0.1218  0.6786
49697SOL    HW153776   4.590   3.962   3.590 -0.2019  0.1530  0.6129
49697SOL    HW253777   4.667   3.980   3.461 -0.5917 -0.3201  0.3125
49698SOL     OW53778   9.530  10.972  11.103  0.2481  0.2565 -0.1775
49698SOL    HW153779   9.451  10.926  11.132 -0.7670  1.6800 -0.5832
49698SOL    HW253780   9.519  10.980  11.008  0.6741  0.8569 -0.1831
49699SOL     OW53781  11.147   6.514   3.682  0.0383  0.5236  0.2067
49699SOL    HW153782  11.236   6.481   3.677 -0.2903 -0.2350 -1.2118
49699SOL    HW253783  11.101   6.451   3.737  0.1638  0.3896  0.1588
49700SOL     OW53784  10.116  11.117   8.377 -0.6326  0.3044 -0.4819
49700SOL    HW153785  10.119  11.203   8.419 -0.3640 -0.7424  1.8086
49700SOL    HW253786  10.108  11.055   8.450  0.6129 -1.7069 -1.9482
49701SOL     OW53787  11.229  10.229   5.862  0.0750 -0.1052  0.1954
49701SOL    HW153788  11.306  10.262   5.815 -0.5039  1.7398  0.4687
49701SOL    HW253789  11.173  10.193   5.793 -0.1821  1.3849 -0.4103
49702SOL     OW53790   4.627   4.483   1.462  0.0775 -0.2171 -0.4719
49702SOL    HW153791   4.680   4.548   1.509 -0.6014  1.3657 -1.8001
49702SOL    HW253792   4.688   4.442   1.401  0.3387 -0.3105 -0.1558
49703SOL     OW53793   5.737   2.413   3.334 -0.6435  0.5229  0.0265
49703SOL    HW153794   5.645   2.435   3.349 -0.0488  3.3074  0.1584
49703SOL    HW253795   5.779   2.427   3.419  0.0677  0.2808 -0.2757
49704SOL     OW53796   4.636   6.442   5.973  0.1152  0.5827  0.8529
49704SOL    HW153797   4.565   6.500   5.947  0.5778  1.0657  0.6357
49704SOL    HW253798   4.624   6.430   6.067 -1.5971 -1.2146  0.4784
49705SOL     OW53799   0.149   5.011  11.825 -0.3123 -0.1172 -0.1456
49705SOL    HW153800   0.107   4.936  11.866 -0.1911 -0.2929 -0.3417
49705SOL    HW253801   0.229   4.975  11.785 -1.3531 -0.3260 -2.1530
49706SOL     OW53802   0.865   7.482   8.375  0.1981  0.2680 -0.1786
49706SOL    HW153803   0.916   7.408   8.342  1.9783  1.0204  0.7503
49706SOL    HW253804   0.826   7.450   8.456 -0.0888 -0.0360 -0.4328
49707SOL     OW53805   5.788   5.885   6.162  0.0060  0.5235  0.0942
49707SOL    HW153806   5.791   5.857   6.254  0.1317 -1.6974 -0.5148
49707SOL    HW253807   5.736   5.817   6.118 -1.4453  2.3958 -1.2395
49708SOL     OW53808   7.200   1.083   9.650 -0.1428  0.6353  0.0604
49708SOL    HW153809   7.163   1.172   9.651  0.0545  0.7179  0.1064
49708SOL    HW253810   7.280   1.091   9.598 -0.6043  0.2852 -0.7153
49709SOL     OW53811   5.627  11.063   5.509 -0.1976  0.5106  0.0133
49709SOL    HW153812   5.653  11.103   5.591 -1.1238  1.9314 -0.3394
49709SOL    HW253813   5.695  10.999   5.490  1.9846  2.6608  0.0840
49710SOL     OW53814  10.516   2.775   3.295 -0.1037 -0.0911  0.0215
49710SOL    HW153815  10.445   2.839   3.297 -0.8664 -0.9106 -0.3164
49710SOL    HW253816  10.583   2.813   3.353 -0.9091  0.5757  0.5527
49711SOL     OW53817   0.318   3.425  11.797  0.0717 -0.2186 -0.4125
49711SOL    HW153818   0.251   3.399  11.860  1.5302 -0.2509  1.1916
49711SOL    HW253819   0.373   3.348  11.786  2.4150  0.9784  1.7592
49712SOL     OW53820  10.969   5.026  11.882  0.2376  0.3503  0.4577
49712SOL    HW153821  10.986   4.946  11.931  0.5760  0.3005  0.2608
49712SOL    HW253822  11.056   5.060  11.860  0.1188 -0.2797 -1.1810
49713SOL     OW53823   8.638   7.720   7.723  0.4287  0.7978  0.2538
49713SOL    HW153824   8.628   7.740   7.630  2.7529  0.4851 -0.1270
49713SOL    HW253825   8.622   7.626   7.729 -0.2294  0.9056  0.2762
49714SOL     OW53826   6.000   4.603   4.907  0.5120  0.2205 -0.1261
49714SOL    HW153827   5.949   4.670   4.863 -2.4012 -0.7964  1.4222
49714SOL    HW253828   5.949   4.523   4.896  2.6928 -1.2708  0.0682
49715SOL     OW53829   9.794   6.268   6.149 -0.4104  0.1908 -0.3122
49715SOL    HW153830   9.769   6.305   6.234 -1.2166  1.0032 -0.8701
49715SOL    HW253831   9.889   6.278   6.144 -0.1987 -0.9404  0.9670
49716SOL     OW53832  11.134   4.404   6.645 -0.0968 -0.5505 -0.2266
49716SOL    HW153833  11.104   4.314   6.628  0.5003 -0.6241 -0.9147
49716SOL    HW253834  11.160   4.404   6.737  2.6560 -1.8926 -0.9205
49717SOL     OW53835   9.468  10.091   1.958  0.4398 -0.0219 -0.0653
49717SOL    HW153836   9.474  10.171   1.905 -1.1595 -0.1969 -0.5610
49717SOL    HW253837   9.558  10.075   1.986  1.3273  0.2834 -2.4295
49718SOL     OW53838   6.264   5.869   5.975  0.7076 -0.3390 -0.2006
49718SOL    HW153839   6.189   5.817   5.947  2.0619 -0.8916 -3.1851
49718SOL    HW253840   6.310   5.813   6.038  0.5091 -1.4938 -1.0498
49719SOL     OW53841   8.250   9.409  11.823  0.5005  0.1821 -0.0055
49719SOL    HW153842   8.179   9.366  11.871  0.7918 -0.1706  0.1097
49719SOL    HW253843   8.249   9.368  11.737  0.8443 -0.1317  0.1375
49720SOL     OW53844   9.012   6.017   9.720  0.5856 -0.2512 -0.0503
49720SOL    HW153845   9.104   5.989   9.714 -0.2399 -3.0130 -1.9539
49720SOL    HW253846   8.993   6.053   9.633 -0.1583  0.2496  0.3154
49721SOL     OW53847   8.821   5.133   5.679  0.0328  0.0842 -0.3573
49721SOL    HW153848   8.859   5.173   5.757  1.7662  1.4846 -1.8361
49721SOL    HW253849   8.732   5.168   5.674  0.2534  0.7684  0.4210
49722SOL     OW53850  10.091   5.535   7.198 -0.2331 -0.2011  0.2548
49722SOL    HW153851  10.098   5.625   7.231 -0.4306  0.9333 -2.4574
49722SOL    HW253852  10.177   5.519   7.158 -0.7122 -0.5983 -0.6334
49723SOL     OW53853   0.150   8.063   8.862 -0.6636  0.1236  0.1289
49723SOL    HW153854   0.141   8.074   8.957 -0.3687 -0.4595  0.2251
49723SOL    HW253855   0.084   8.122   8.825 -1.5688 -0.4896  0.7241
49724SOL     OW53856  11.699   1.668   6.486 -0.2415 -0.7998 -0.3342
49724SOL    HW153857  11.696   1.754   6.444  0.5434 -0.1876  0.8241
49724SOL    HW253858  11.675   1.607   6.416 -1.7114  0.4104 -0.9553
49725SOL     OW53859  10.854   2.854   0.611 -0.1075 -0.1594  0.4598
49725SOL    HW153860  10.823   2.877   0.699 -2.0936 -0.1397 -0.1990
49725SOL    HW253861  10.858   2.938   0.565  1.1357 -0.1424  0.5425
49726SOL     OW53862   4.154   5.035  10.586  0.0959  0.4305  0.3946
49726SOL    HW153863   4.201   5.001  10.662 -1.5160 -1.3118  0.6973
49726SOL    HW253864   4.087   5.093  10.623  0.3587  0.8893  0.1600
49727SOL     OW53865   0.118  11.115  10.530 -0.4365  0.3331  0.4823
49727SOL    HW153866   0.196  11.112  10.586 -0.9264 -0.6920  1.1452
49727SOL    HW253867   0.115  11.205  10.498 -0.4491  1.1392  2.5892
49728SOL     OW53868   8.528   8.390   0.613  0.1704  0.3766  0.0507
49728SOL    HW153869   8.520   8.483   0.591 -1.2991  0.3407  0.3497
49728SOL    HW253870   8.620   8.369   0.596  0.3375  1.6898 -0.7653
49729SOL     OW53871  10.649   8.340  11.137  0.4455 -0.1322 -0.0138
49729SOL    HW153872  10.704   8.371  11.209 -0.5108  0.6574  0.3976
49729SOL    HW253873  10.560   8.358  11.166  0.0760  2.4294 -2.3512
49730SOL     OW53874   8.723   1.455   8.412  0.4028 -0.2570  0.4598
49730SOL    HW153875   8.783   1.408   8.469  0.1349  1.0894  1.9300
49730SOL    HW253876   8.644   1.401   8.411  1.2679 -1.5845 -0.7750
49731SOL     OW53877   7.769   7.931  11.956 -0.1513 -0.4403  0.3240
49731SOL    HW153878   7.694   7.872  11.950 -1.1842  0.5851  2.2721
49731SOL    HW253879   7.801   7.920  12.045  0.6871  0.7101  0.1881
49732SOL     OW53880   6.923   7.353   7.999  0.4329  0.1438 -0.0645
49732SOL    HW153881   6.905   7.264   8.030  1.9969  0.4790  2.0980
49732SOL    HW253882   6.850   7.406   8.033  0.3089 -0.0696  0.0014
49733SOL     OW53883   1.071   3.591   3.492  0.2328 -0.2388  0.5162
49733SOL    HW153884   1.130   3.637   3.552 -0.3335  0.4082  0.5875
49733SOL    HW253885   1.116   3.595   3.408  0.5360 -0.2072  0.6752
49734SOL     OW53886   6.618   5.307   6.185  0.1162  0.3195  0.1530
49734SOL    HW153887   6.669   5.290   6.105 -1.5137  0.8393 -1.0683
49734SOL    HW253888   6.553   5.237   6.188  0.4641  0.0283  1.3179
49735SOL     OW53889   3.678   5.484   5.012  0.5336 -0.2131  0.6159
49735SOL    HW153890   3.592   5.470   5.052  1.0534 -1.3592  1.3512
49735SOL    HW253891   3.683   5.579   5.002 -0.2660 -0.0147  1.8101
49736SOL     OW53892   6.891   7.485   1.766 -0.0063  0.3221  0.3788
49736SOL    HW153893   6.875   7.574   1.736 -0.4226 -0.2015 -1.0618
49736SOL    HW253894   6.819   7.466   1.825 -1.6326 -0.0419 -1.6109
49737SOL     OW53895   1.427   7.578  11.889  1.0776 -0.4649 -0.2589
49737SOL    HW153896   1.501   7.558  11.946 -0.3200 -1.0011  1.4446
49737SOL    HW253897   1.423   7.505  11.828  2.1146 -0.2784 -0.5669
49738SOL     OW53898  11.367  11.438   2.844  0.0955 -0.7495  0.3004
49738SOL    HW153899  11.388  11.526   2.874 -0.5884  0.6561 -2.8959
49738SOL    HW253900  11.284  11.418   2.885  0.3102  0.0468  1.1572
49739SOL     OW53901   9.784  10.693  10.107 -0.6335  0.1146  0.1892
49739SOL    HW153902   9.838  10.626  10.066 -0.7361 -1.2537  2.1274
49739SOL    HW253903   9.843  10.767  10.121 -0.3325  0.1827 -1.3338
49740SOL     OW53904   2.751  11.176   2.498  0.1322 -0.4563 -0.1135
49740SOL    HW153905   2.718  11.087   2.507 -2.4700  0.4878  0.5058
49740SOL    HW253906   2.747  11.195   2.404  1.4853 -1.2114 -0.3531
49741SOL     OW53907   1.961   7.089  11.387 -0.4156 -0.1922 -0.6817
49741SOL    HW153908   1.982   7.122  11.474  0.3240 -0.1608 -0.8589
49741SOL    HW253909   2.034   7.030  11.366 -0.6314 -0.2684 -1.2366
49742SOL     OW53910   9.191   4.595   0.071  0.2577  0.6149  0.0676
49742SOL    HW153911   9.174   4.508   0.034 -1.0838  1.1475 -0.6439
49742SOL    HW253912   9.179   4.583   0.165 -1.2223  0.2748 -0.1323
49743SOL     OW53913   7.837   1.405   2.623  0.1439  0.3865 -0.4806
49743SOL    HW153914   7.835   1.497   2.600  0.3703  0.6736  0.5972
49743SOL    HW253915   7.919   1.393   2.670 -0.6530  0.0171  0.8791
49744SOL     OW53916   1.202   6.106   2.025 -0.1247  0.4234  0.0378
49744SOL    HW153917   1.239   6.074   1.943 -0.7708  0.9361 -0.4651
49744SOL    HW253918   1.131   6.164   1.998 -0.9567 -0.1277  0.9705
49745SOL     OW53919  11.736   7.703   2.967 -0.3534  0.3536 -0.9605
49745SOL    HW153920  11.760   7.696   3.060 -0.5884  2.9771 -0.6171
49745SOL    HW253921  11.667   7.639   2.955 -0.0528 -0.2951  0.5936
49746SOL     OW53922   5.313   7.190   4.662  0.0683  0.0847  0.0498
49746SOL    HW153923   5.378   7.213   4.729 -0.2402  0.7560  0.1283
49746SOL    HW253924   5.249   7.261   4.666 -2.0596 -1.8063  1.7224
49747SOL     OW53925   5.805   9.915  10.370 -0.1370  0.0314  0.5701
49747SOL    HW153926   5.728   9.958  10.407  1.2841  0.9389  2.6222
49747SOL    HW253927   5.833   9.974  10.299 -0.6353  0.3047  0.5948
49748SOL     OW53928  11.772   0.248  10.985 -0.1728  0.4835  0.0390
49748SOL    HW153929  11.854   0.291  10.961 -1.1857  1.4712 -1.8141
49748SOL    HW253930  11.721   0.315  11.029 -1.2848  0.9167 -1.8113
49749SOL     OW53931   7.055   8.703   9.362 -0.2614 -0.2911  0.4807
49749SOL    HW153932   6.979   8.694   9.419  0.4229  0.2439  1.5203
49749SOL    HW253933   7.082   8.613   9.343 -0.9043 -0.4783  0.4422
49750SOL     OW53934   1.534   1.727   6.094  0.1592 -0.3622 -0.2574
49750SOL    HW153935   1.490   1.798   6.048 -0.2022 -0.7883 -0.5785
49750SOL    HW253936   1.463   1.678   6.136  0.4287 -0.3536  0.2190
49751SOL     OW53937  10.294   8.289  10.327 -0.9439 -0.2077  0.0253
49751SOL    HW153938  10.211   8.337  10.320  0.1332  1.6419 -1.1135
49751SOL    HW253939  10.285   8.218  10.264 -1.2432  0.6928 -0.9830
49752SOL     OW53940   4.161   8.110  11.298  0.2508 -0.3951 -0.3432
49752SOL    HW153941   4.252   8.095  11.324 -0.0179 -0.5038  0.5367
49752SOL    HW253942   4.157   8.204  11.279  0.7282 -0.5224 -1.1347
49753SOL     OW53943  10.019   8.270   3.622 -0.1411 -0.0170 -0.1741
49753SOL    HW153944  10.092   8.212   3.599  0.2421  0.9827 -1.6249
49753SOL    HW253945   9.967   8.277   3.542 -2.6127 -1.7147  1.1688
49754SOL     OW53946   9.880   5.197   9.218 -0.1309 -0.0602 -0.3979
49754SOL    HW153947   9.791   5.227   9.235  0.4565  1.4707  0.2185
49754SOL    HW253948   9.873   5.141   9.141 -1.6636 -0.2416 -0.1452
49755SOL     OW53949   3.687   9.901  11.610  1.1041  0.3395  0.3485
49755SOL    HW153950   3.596   9.926  11.596  1.2154  0.9549  0.6579
49755SOL    HW253951   3.732   9.926  11.529  1.0005  0.0601  0.2060
49756SOL     OW53952  11.069   1.754   4.696  0.1500  0.3077 -0.3654
49756SOL    HW153953  11.029   1.829   4.739 -1.3290 -0.1742 -0.8445
49756SOL    HW253954  11.157   1.750   4.732 -0.1532  1.5318  0.5782
49757SOL     OW53955   2.407   5.111   1.996 -0.5768  0.0999 -0.0092
49757SOL    HW153956   2.495   5.116   2.034 -0.4803  1.4482 -0.3335
49757SOL    HW253957   2.422   5.108   1.902 -0.8703 -0.1864 -0.0486
49758SOL     OW53958  11.793   0.216   0.930 -0.3778 -0.7670  0.3851
49758SOL    HW153959  11.831   0.221   0.843  1.0712  0.4347  1.0357
49758SOL    HW253960  11.706   0.254   0.921 -0.3462 -0.9003 -0.5661
49759SOL     OW53961   2.174   5.379   0.906 -0.4916  0.0886 -0.5611
49759SOL    HW153962   2.110   5.314   0.878 -1.0136  0.2496  0.2328
49759SOL    HW253963   2.154   5.394   0.999  1.5664 -0.9028  0.1106
49760SOL     OW53964   6.305   9.967   6.113  0.0309 -0.2437  0.0183
49760SOL    HW153965   6.273  10.053   6.141  1.3465 -0.1898  1.4752
49760SOL    HW253966   6.247   9.905   6.157 -0.4365 -0.1349 -0.4233
49761SOL     OW53967   6.005  10.896   4.733  0.7554  0.5262  0.6000
49761SOL    HW153968   5.936  10.917   4.795 -0.1749 -0.2163 -0.1642
49761SOL    HW253969   6.086  10.898   4.785  0.0257  0.1865  1.7642
49762SOL     OW53970   5.328   0.686   9.894 -0.0986  0.6114 -0.2906
49762SOL    HW153971   5.318   0.706   9.801 -0.7810 -0.8588 -0.5577
49762SOL    HW253972   5.423   0.680   9.908  0.0169 -1.9525 -1.5729
49763SOL     OW53973   0.317   2.041   2.470  0.0584  0.3561 -0.2297
49763SOL    HW153974   0.364   2.099   2.411 -1.1608  0.0412 -1.5798
49763SOL    HW253975   0.287   2.098   2.541  0.7993  0.9195 -0.3603
49764SOL     OW53976   7.774   6.096   1.211  0.2910  0.0606  0.1145
49764SOL    HW153977   7.680   6.110   1.218  0.0545 -0.5843 -1.3835
49764SOL    HW253978   7.796   6.045   1.289 -0.6655 -0.1013  0.2909
49765SOL     OW53979   5.633   3.256   1.281  0.1947 -0.3236  0.0572
49765SOL    HW153980   5.538   3.247   1.278  0.2517 -0.9918  0.1914
49765SOL    HW253981   5.663   3.184   1.337  0.8143 -0.4007 -0.3577
49766SOL     OW53982   4.876   1.295   8.659  0.1224 -0.2510 -0.1773
49766SOL    HW153983   4.952   1.323   8.607 -0.1038  1.7531  0.4949
49766SOL    HW253984   4.821   1.373   8.665 -1.9266 -1.6256 -0.4849
49767SOL     OW53985   6.184   6.564  10.424 -0.0677 -0.0812 -0.2914
49767SOL    HW153986   6.194   6.625  10.351  4.1873 -0.2614 -0.1106
49767SOL    HW253987   6.183   6.477  10.384  1.0290 -0.1283 -0.2413
49768SOL     OW53988   3.226   3.333   9.035  0.3897 -0.1421 -0.1259
49768SOL    HW153989   3.206   3.249   9.076  1.7452 -0.4245  0.0032
49768SOL    HW253990   3.173   3.396   9.083  1.5859 -0.5330  1.8053
49769SOL     OW53991   5.458   0.701   6.848 -0.5141  0.6039 -0.2491
49769SOL    HW153992   5.454   0.606   6.835 -0.8791  0.6907 -0.7764
49769SOL    HW253993   5.378   0.734   6.808 -0.4395  1.1273  0.0291
49770SOL     OW53994   9.870   4.789   2.528 -0.2760 -0.1627 -0.7419
49770SOL    HW153995   9.962   4.779   2.553 -0.1574 -0.1791 -1.1834
49770SOL    HW253996   9.821   4.750   2.601  0.0978 -1.1455 -0.9931
49771SOL     OW53997   1.631  11.500   6.588 -0.1160  0.7794 -0.3852
49771SOL    HW153998   1.644  11.417   6.542 -1.5133  2.0546 -3.3330
49771SOL    HW253999   1.575  11.551   6.530 -2.0852  2.5974  2.8012
49772SOL     OW54000   2.654   2.340   5.393  0.4300  0.0130  0.1095
49772SOL    HW154001   2.673   2.346   5.487 -0.6217  0.7831  0.2882
49772SOL    HW254002   2.739   2.322   5.353  0.9488 -0.0105  1.1786
49773SOL     OW54003   6.235   8.264   0.648 -0.2317  0.3235 -0.5464
49773SOL    HW154004   6.261   8.213   0.725 -0.9354  1.6711  0.6402
49773SOL    HW254005   6.313   8.312   0.623 -0.3696  0.9815  0.2465
49774SOL     OW54006  10.379   7.308   0.724  0.2744 -0.0923  0.3755
49774SOL    HW154007  10.458   7.362   0.724 -0.6931  1.4107 -0.5820
49774SOL    HW254008  10.380   7.263   0.808  1.3045  1.1751  1.0755
49775SOL     OW54009   3.363  11.776   8.532  0.1545  0.1377 -0.3599
49775SOL    HW154010   3.455  11.750   8.539 -0.2319 -0.9729  1.0444
49775SOL    HW254011   3.317  11.719   8.594 -1.5029  0.6037 -1.1039
49776SOL     OW54012   6.733   3.384   2.807 -0.5279 -0.4308  0.7718
49776SOL    HW154013   6.766   3.332   2.880  0.2743  0.1546  0.8291
49776SOL    HW254014   6.752   3.474   2.831  1.4252 -0.3054 -0.9543
49777SOL     OW54015  10.326   3.323   5.113 -0.4648  0.2156 -0.1967
49777SOL    HW154016  10.315   3.303   5.206  0.0120  1.1568  0.0764
49777SOL    HW254017  10.365   3.244   5.076 -0.8179 -0.2306  0.3608
49778SOL     OW54018   9.319   8.959   4.093  0.1340  0.2388  0.7219
49778SOL    HW154019   9.243   9.018   4.093  0.7652  1.1697 -1.5615
49778SOL    HW254020   9.281   8.872   4.091 -0.9398  0.6897 -0.3630
49779SOL     OW54021   2.368   9.774   9.759 -0.4237  0.0010 -0.4835
49779SOL    HW154022   2.454   9.763   9.801 -1.5001 -1.3124  1.5227
49779SOL    HW254023   2.358   9.696   9.705 -0.8947 -0.4937  0.3120
49780SOL     OW54024   8.673   4.002   1.086  0.2424 -0.4417 -0.4027
49780SOL    HW154025   8.654   3.984   0.994 -2.2460  1.5752 -0.3953
49780SOL    HW254026   8.746   4.064   1.083  0.1961 -0.4045 -1.0295
49781SOL     OW54027   5.693   5.552   2.028 -0.7718 -0.0354  0.4085
49781SOL    HW154028   5.721   5.463   2.046  0.8565  0.5738  1.1115
49781SOL    HW254029   5.633   5.544   1.954  0.4331 -1.5740 -0.4609
49782SOL     OW54030   1.280   8.430   7.084  0.0076 -0.8310  0.2038
49782SOL    HW154031   1.323   8.375   7.019 -0.5714 -0.2400 -0.7031
49782SOL    HW254032   1.215   8.480   7.035  0.2721  0.4035  1.0515
49783SOL     OW54033   5.332   4.760   7.957 -0.9943  0.6345 -0.6482
49783SOL    HW154034   5.329   4.671   7.922 -0.4783  1.0387 -1.7417
49783SOL    HW254035   5.243   4.794   7.943 -0.5264  1.1579 -2.5997
49784SOL     OW54036   2.429  10.184   8.986  0.0014  0.1020 -0.1363
49784SOL    HW154037   2.422  10.106   8.931 -1.1125  0.2227 -0.1831
49784SOL    HW254038   2.523  10.200   8.993  0.1791 -0.1345 -1.7021
49785SOL     OW54039   4.786   1.999   0.316  0.1913  0.1225 -0.0098
49785SOL    HW154040   4.847   1.960   0.253  0.0201 -0.4998  0.2045
49785SOL    HW254041   4.710   2.024   0.264 -0.4227 -1.4216  0.1124
49786SOL     OW54042   7.223   8.444   8.985 -0.2913  0.8820 -0.1946
49786SOL    HW154043   7.219   8.506   8.912  0.6553  0.3354 -0.7437
49786SOL    HW254044   7.207   8.359   8.944  1.2291  0.4547  0.0471
49787SOL     OW54045   5.852   3.532  10.725 -0.3559 -0.3789  0.0499
49787SOL    HW154046   5.882   3.463  10.666  0.5094 -0.2025  0.2673
49787SOL    HW254047   5.931   3.582  10.746 -1.3455  2.4621 -2.3732
49788SOL     OW54048   8.301   6.594  11.635 -0.0489  0.6185 -0.0453
49788SOL    HW154049   8.320   6.526  11.571 -1.0754  0.8458 -0.6156
49788SOL    HW254050   8.369   6.660  11.622  0.3930  0.1462 -0.1338
49789SOL     OW54051   8.247   2.156  10.357 -0.0143  0.2271  0.2264
49789SOL    HW154052   8.280   2.185  10.272 -0.4733 -1.7893 -0.6958
49789SOL    HW254053   8.152   2.149  10.344 -0.0698 -0.2513  0.8515
49790SOL     OW54054   8.334   7.400   2.814  0.0098  0.3546 -0.4229
49790SOL    HW154055   8.323   7.446   2.731 -2.2845 -0.5939 -0.7295
49790SOL    HW254056   8.319   7.308   2.793  0.2397 -0.0139  0.8976
49791SOL     OW54057   3.448  10.166   0.931  0.1491  0.1934 -0.0015
49791SOL    HW154058   3.456  10.094   0.994 -1.1866  0.3047  0.3177
49791SOL    HW254059   3.381  10.223   0.967  0.7410  1.2839 -0.5734
49792SOL     OW54060   7.210   9.102   3.758 -0.0891  0.2001  0.4039
49792SOL    HW154061   7.141   9.050   3.716 -0.7119  0.8976  0.5547
49792SOL    HW254062   7.222   9.177   3.700  1.1593 -0.3332 -0.0740
49793SOL     OW54063   7.217  10.043   8.716 -0.4344  0.0620 -0.0761
49793SOL    HW154064   7.299  10.060   8.762 -0.8644 -0.9773  1.1311
49793SOL    HW254065   7.222  10.098   8.638  0.9724  0.7623  0.4620
49794SOL     OW54066   8.553   1.451   9.269 -0.0176 -0.0086 -0.2042
49794SOL    HW154067   8.476   1.496   9.236 -1.1888 -1.4423  0.4336
49794SOL    HW254068   8.518   1.374   9.315  1.8174 -1.0794 -0.4795
49795SOL     OW54069   1.689   7.235   1.510 -0.3567 -0.3434 -0.4629
49795SOL    HW154070   1.694   7.309   1.571 -1.8967 -0.5878  0.0069
49795SOL    HW254071   1.618   7.180   1.545  0.0714 -1.5125 -1.3744
49796SOL     OW54072   8.676   2.484   5.034 -0.3324  0.1911  0.3202
49796SOL    HW154073   8.759   2.526   5.059  0.6243 -1.5642  0.2586
49796SOL    HW254074   8.651   2.527   4.952  0.1851  1.1524  0.6438
49797SOL     OW54075   0.736   7.902   1.258 -0.7749 -0.2883  0.0102
49797SOL    HW154076   0.692   7.925   1.176  1.1867  0.8252 -0.7846
49797SOL    HW254077   0.789   7.826   1.236 -2.4452 -1.8398  1.0532
49798SOL     OW54078   0.354   8.919   3.303  0.2993  0.3420  0.1009
49798SOL    HW154079   0.308   8.867   3.369 -0.2656 -0.6159 -1.0119
49798SOL    HW254080   0.285   8.967   3.258  0.5828  0.2909 -0.3891
49799SOL     OW54081   4.477   0.857   4.550 -1.0287  0.0064  0.1108
49799SOL    HW154082   4.552   0.916   4.558 -1.6760  0.9629 -0.5819
49799SOL    HW254083   4.514   0.770   4.563  0.2170  0.4476 -0.2548
49800SOL     OW54084   7.232   8.578   2.140 -0.3645 -0.0634  0.5099
49800SOL    HW154085   7.183   8.495   2.135  0.7496 -0.8096  1.3962
49800SOL    HW254086   7.233   8.611   2.051  0.3788 -1.7524 -0.1447
49801SOL     OW54087  10.518  10.137   9.681  0.0753  0.2564  0.7042
49801SOL    HW154088  10.458  10.073   9.645  0.3457 -0.4828  1.5198
49801SOL    HW254089  10.477  10.222   9.665 -2.4972 -0.2963  3.4491
49802SOL     OW54090   5.152   0.857   5.338  0.3699 -0.2134 -0.2711
49802SOL    HW154091   5.096   0.779   5.343 -0.2922  0.2872  0.5564
49802SOL    HW254092   5.137   0.892   5.251  0.3223 -0.7655 -0.4885
49803SOL     OW54093  10.413   0.662   0.896 -0.0792 -0.4164 -0.1574
49803SOL    HW154094  10.473   0.610   0.843  0.7814 -0.9697  1.3252
49803SOL    HW254095  10.462   0.683   0.975  0.0171  3.5524 -1.0383
49804SOL     OW54096   1.821   1.087   7.875 -0.3422 -0.0738  0.3557
49804SOL    HW154097   1.737   1.121   7.906 -0.5089 -0.6330  0.5259
49804SOL    HW254098   1.874   1.166   7.859 -1.1818  0.3237 -0.5895
49805SOL     OW54099   9.545   5.789   9.444  0.0183  0.5179  0.2610
49805SOL    HW154100   9.641   5.786   9.445  0.0240 -0.6455 -0.5256
49805SOL    HW254101   9.519   5.711   9.493 -0.5225  0.8664  0.5269
49806SOL     OW54102   4.182   9.844   6.336 -0.7972  0.5757 -0.2872
49806SOL    HW154103   4.111   9.802   6.384 -0.7870 -0.1594 -0.9048
49806SOL    HW254104   4.178   9.936   6.364 -0.3361  0.0574  1.6516
49807SOL     OW54105   8.748   4.247  10.544 -0.0165  0.1762  0.0834
49807SOL    HW154106   8.753   4.342  10.549  1.5286  0.0539  1.8943
49807SOL    HW254107   8.756   4.227  10.450  0.3731  1.7967 -0.2469
49808SOL     OW54108   9.105  10.163   1.471 -0.1227  0.1543  0.8293
49808SOL    HW154109   9.081  10.113   1.393 -2.1166 -1.6000  2.4247
49808SOL    HW254110   9.032  10.222   1.485 -0.0916  0.0010  1.7001
49809SOL     OW54111  10.684   5.009   0.702  0.0254  0.6758 -0.3070
49809SOL    HW154112  10.642   4.933   0.663  1.3070  0.1284 -0.6798
49809SOL    HW254113  10.615   5.075   0.708 -0.7416 -0.0122 -1.3600
49810SOL     OW54114   3.911   9.210   3.948 -0.1558  0.2446  0.3347
49810SOL    HW154115   3.883   9.153   3.876 -2.9323  2.1568 -0.2589
49810SOL    HW254116   3.944   9.289   3.905  1.1553  0.1719  1.1576
49811SOL     OW54117   9.052   1.744  11.088  0.1584  0.0967 -0.1048
49811SOL    HW154118   9.107   1.743  11.010  0.1834 -0.1778 -0.0832
49811SOL    HW254119   9.049   1.653  11.117 -1.0677 -0.0485 -0.6329
49812SOL     OW54120   9.651  10.945   0.572  0.0309 -0.5266 -0.1105
49812SOL    HW154121   9.612  10.897   0.499  0.0838 -1.1738  0.2770
49812SOL    HW254122   9.623  11.035   0.560  1.1826 -0.3370 -1.7239
49813SOL     OW54123   0.347   3.990   9.772  0.4223  0.2537 -0.2561
49813SOL    HW154124   0.395   3.922   9.724  1.1045  0.2064  0.4739
49813SOL    HW254125   0.294   4.034   9.705 -1.4692 -2.1560 -0.4846
49814SOL     OW54126   9.176  10.362   6.865 -0.3011 -0.0106 -0.1362
49814SOL    HW154127   9.244  10.295   6.854 -1.1306 -1.0711  0.9662
49814SOL    HW254128   9.187  10.392   6.956 -1.3893 -0.3106  0.1092
49815SOL     OW54129   1.290   3.267   2.053 -0.1006  0.5733 -0.5632
49815SOL    HW154130   1.282   3.178   2.087  1.1879  0.7623  0.3222
49815SOL    HW254131   1.321   3.318   2.128  0.8148  1.4269 -1.4973
49816SOL     OW54132   6.388  11.887   7.062  0.4748 -0.7798  0.0746
49816SOL    HW154133   6.394  11.950   7.134  0.1628  0.9212 -1.3037
49816SOL    HW254134   6.447  11.816   7.087  1.3155  0.3442  1.4391
49817SOL     OW54135  11.338   3.270   5.498 -0.3544 -0.8924 -0.5998
49817SOL    HW154136  11.345   3.283   5.592 -4.3685 -0.6677 -0.1539
49817SOL    HW254137  11.329   3.358   5.461  1.9230 -0.9249 -1.3712
49818SOL     OW54138   4.551   6.357   5.558 -0.4199 -0.3507  0.6028
49818SOL    HW154139   4.542   6.282   5.499 -0.4981  0.5036 -0.5111
49818SOL    HW254140   4.618   6.330   5.621  2.4905  0.0181 -2.0753
49819SOL     OW54141   0.473   8.744   8.840 -0.3722 -0.3118  0.4431
49819SOL    HW154142   0.512   8.831   8.836 -0.2886 -0.3679  0.0734
49819SOL    HW254143   0.493   8.713   8.929  0.4954 -0.3746  0.2326
49820SOL     OW54144   0.709   5.656   3.315 -0.8855 -0.1940  0.6034
49820SOL    HW154145   0.616   5.679   3.318 -0.3883  2.0452  0.6441
49820SOL    HW254146   0.733   5.640   3.407 -1.2221 -0.8740  0.5825
49821SOL     OW54147  11.186   5.947   8.365 -0.1395  0.4094  0.2036
49821SOL    HW154148  11.166   6.041   8.362 -2.7408 -0.0376  1.2937
49821SOL    HW254149  11.144   5.911   8.288  1.1940  0.1564 -0.4248
49822SOL     OW54150   0.392   8.028   4.275 -0.6596  0.5490  0.0440
49822SOL    HW154151   0.457   8.031   4.205 -1.3524  5.2169 -0.6888
49822SOL    HW254152   0.444   8.017   4.355  0.8863  2.1814 -0.6729
49823SOL     OW54153  10.099  11.331   3.192  0.1466 -0.2153  0.6267
49823SOL    HW154154  10.164  11.396   3.219  2.8041 -2.2749 -0.3795
49823SOL    HW254155  10.150  11.256   3.163 -2.7366 -2.2602  0.3512
49824SOL     OW54156   1.462  10.005   4.123  0.1260 -0.1452 -0.3610
49824SOL    HW154157   1.389  10.049   4.079 -0.6826 -0.6626  0.4349
49824SOL    HW254158   1.498  10.071   4.181  1.4776  0.6794 -2.0717
49825SOL     OW54159   6.795   3.974  10.697  0.4302 -0.2680  0.2081
49825SOL    HW154160   6.746   4.004  10.774  0.4222 -0.7414  0.3910
49825SOL    HW254161   6.756   3.890  10.676 -0.5335  0.4856 -1.1913
49826SOL     OW54162   5.601   4.981   3.789  0.2693 -0.3459  0.1310
49826SOL    HW154163   5.658   5.057   3.778 -0.0791  0.1280  1.4294
49826SOL    HW254164   5.512   5.015   3.775  0.1236 -0.5341  0.5746
49827SOL     OW54165   1.237  11.249   6.359 -0.1237  0.6027 -0.2717
49827SOL    HW154166   1.322  11.271   6.398  1.7389 -3.1509 -1.7229
49827SOL    HW254167   1.186  11.213   6.432  1.2373 -1.1800 -0.1376
49828SOL     OW54168   6.942   5.406  10.763  0.1920  0.3602 -0.2217
49828SOL    HW154169   6.972   5.327  10.719 -1.8413 -1.4958  1.4877
49828SOL    HW254170   6.869   5.437  10.709 -1.5030 -1.2166  1.0253
49829SOL     OW54171   6.703   8.626   4.722  0.6633 -0.1709 -0.1711
49829SOL    HW154172   6.785   8.605   4.678  1.2690  2.7133 -0.6187
49829SOL    HW254173   6.729   8.651   4.810  0.8348  3.8769 -1.2008
49830SOL     OW54174  11.255   8.693   4.838  0.2752  0.1725  0.2411
49830SOL    HW154175  11.229   8.784   4.823  0.6180  0.1562 -0.4842
49830SOL    HW254176  11.199   8.642   4.780  1.4638  0.0914 -0.8770
49831SOL     OW54177   7.751   2.296   3.297  0.6945 -0.4388 -0.4882
49831SOL    HW154178   7.821   2.250   3.251  1.9743  0.6915  0.2405
49831SOL    HW254179   7.749   2.383   3.258 -0.9290 -0.7140 -1.0923
49832SOL     OW54180   7.420   6.509   8.793  0.2624  0.5174  0.7928
49832SOL    HW154181   7.343   6.539   8.744  0.8551 -0.6929 -0.9972
49832SOL    HW254182   7.385   6.480   8.877 -1.2422  0.0878  0.0503
49833SOL     OW54183   4.884   5.419   7.005 -0.3109 -0.1688  0.0033
49833SOL    HW154184   4.790   5.432   7.021 -0.6031 -0.5225 -1.3142
49833SOL    HW254185   4.894   5.324   6.998  0.6767 -0.3815  2.9705
49834SOL     OW54186   2.443   5.297   3.985 -0.1161 -0.0919 -0.1221
49834SOL    HW154187   2.426   5.375   4.037  0.7178  0.3092 -0.4183
49834SOL    HW254188   2.538   5.286   3.990 -0.2968 -1.5329  0.5272
49835SOL     OW54189   2.128   0.919   1.766 -0.1139  0.0857  0.3540
49835SOL    HW154190   2.113   0.868   1.686 -0.0175  1.1541 -0.3711
49835SOL    HW254191   2.045   0.913   1.814 -0.0131 -0.9575  0.4131
49836SOL     OW54192   2.421  11.582   8.109  0.6386  0.0543 -0.0118
49836SOL    HW154193   2.513  11.568   8.084  1.3720  0.9819  1.9341
49836SOL    HW254194   2.409  11.677   8.104  0.5529  0.1863  2.0807
49837SOL     OW54195  11.934  11.446  11.768 -0.4834  0.4410  0.3397
49837SOL    HW154196  11.927  11.383  11.839  0.3942  0.3639  0.3789
49837SOL    HW254197  12.027  11.445  11.745 -0.5467  1.3445 -0.0035
49838SOL     OW54198   2.598   1.505   2.608 -0.0725  0.2704  0.1812
49838SOL    HW154199   2.559   1.573   2.553 -0.1845  1.0271  1.1876
49838SOL    HW254200   2.558   1.423   2.576  2.7592  0.0700 -3.6065
49839SOL     OW54201   0.027   1.161   6.854 -0.1857 -0.1004  0.3443
49839SOL    HW154202   0.024   1.117   6.769  0.0640 -0.1204  0.3449
49839SOL    HW254203  -0.039   1.230   6.847 -0.3016 -0.2236  0.2039
49840SOL     OW54204   4.723   1.013  10.532 -0.3864  0.2111  0.1161
49840SOL    HW154205   4.805   1.053  10.561 -1.3551  1.4033  1.3556
49840SOL    HW254206   4.661   1.031  10.603 -1.4861 -1.4994 -0.3537
49841SOL     OW54207  10.072   8.019  11.363 -0.0754  0.2290  0.2584
49841SOL    HW154208  10.144   7.958  11.354 -1.5702 -1.5488 -0.2178
49841SOL    HW254209  10.013   7.999  11.290 -1.7475  0.6269  1.4293
49842SOL     OW54210   4.858  11.751   1.731 -0.1197 -0.1658  0.4957
49842SOL    HW154211   4.826  11.720   1.815  0.0014 -0.0486  0.5869
49842SOL    HW254212   4.933  11.806   1.754  0.7291 -1.1884  0.2273
49843SOL     OW54213   2.335   7.950   0.274  0.1190  0.4332 -0.4669
49843SOL    HW154214   2.274   7.878   0.289  0.7916 -0.1604 -0.5150
49843SOL    HW254215   2.313   8.015   0.340  0.5058 -0.4854  0.5953
49844SOL     OW54216   9.685   1.746   8.659  0.4028 -0.5775  0.1753
49844SOL    HW154217   9.625   1.808   8.616  0.5494 -1.9202 -2.1202
49844SOL    HW254218   9.749   1.802   8.703 -0.4542  0.8948 -0.3806
49845SOL     OW54219  11.080   6.520   5.562 -0.3336 -0.1875 -0.3419
49845SOL    HW154220  11.005   6.478   5.520 -1.4677  1.6922 -0.3212
49845SOL    HW254221  11.114   6.455   5.622 -1.1531 -1.5331 -1.2881
49846SOL     OW54222   5.745   1.657  11.106 -0.1955  0.3281  0.0513
49846SOL    HW154223   5.798   1.612  11.172 -0.6243  0.9433  0.8325
49846SOL    HW254224   5.790   1.741  11.093 -0.2446  0.3057 -0.2652
49847SOL     OW54225   3.940   6.218   0.649 -0.1077 -0.0159  0.4138
49847SOL    HW154226   4.035   6.219   0.639 -0.2542 -0.2335 -1.1719
49847SOL    HW254227   3.917   6.125   0.649 -0.1995 -0.0313  2.3716
49848SOL     OW54228   7.389   3.429   6.936 -0.3792 -0.1237 -0.6691
49848SOL    HW154229   7.336   3.349   6.931 -0.2033 -0.3067  0.2932
49848SOL    HW254230   7.382   3.457   7.027  1.1713 -0.1478 -0.5150
49849SOL     OW54231   2.599   3.623   9.608 -0.0422 -0.1180 -0.6126
49849SOL    HW154232   2.549   3.551   9.571 -1.9132  0.9591 -0.3065
49849SOL    HW254233   2.616   3.596   9.699  0.3129 -0.6608 -0.8316
49850SOL     OW54234   5.739   9.431  10.908 -0.0819  0.5628 -0.2041
49850SOL    HW154235   5.783   9.505  10.949 -0.1193  0.5589 -0.1570
49850SOL    HW254236   5.723   9.369  10.979  1.8506 -0.4402 -0.5774
49851SOL     OW54237   1.292   0.732   8.552 -0.3322 -0.0775  0.0327
49851SOL    HW154238   1.278   0.825   8.534 -1.0721 -0.6773 -3.2900
49851SOL    HW254239   1.207   0.692   8.536  0.4638 -1.5457 -0.6698
49852SOL     OW54240   2.972   3.420   3.984 -0.5867 -0.8392 -0.2067
49852SOL    HW154241   3.042   3.444   3.923 -0.9520 -1.0092 -0.6960
49852SOL    HW254242   2.900   3.392   3.929 -1.1072 -0.5165  0.2892
49853SOL     OW54243   6.482   5.367   8.398 -0.2884 -0.7740 -0.2036
49853SOL    HW154244   6.521   5.316   8.469 -0.1574 -1.2777 -0.6251
49853SOL    HW254245   6.442   5.302   8.341 -2.0461 -0.2429  0.3806
49854SOL     OW54246   8.436   1.801   0.155  0.7570  0.3653 -0.1728
49854SOL    HW154247   8.471   1.813   0.243  0.0097  0.2267  0.1450
49854SOL    HW254248   8.453   1.709   0.135 -0.1684  0.0845  0.3108
49855SOL     OW54249   5.168   2.101   7.621 -0.7507  0.9600  0.0481
49855SOL    HW154250   5.086   2.052   7.635 -0.9082  0.9832 -0.7881
49855SOL    HW254251   5.213   2.054   7.551 -0.4266  1.4251 -0.0589
49856SOL     OW54252  11.750   1.413   3.231  0.6564 -0.1038 -0.2401
49856SOL    HW154253  11.773   1.499   3.196  2.2546 -0.5546 -0.3815
49856SOL    HW254254  11.830   1.361   3.219  0.6035 -0.8690  2.1966
49857SOL     OW54255  11.188   8.047   5.597 -0.2962  0.2163  0.4862
49857SOL    HW154256  11.218   7.961   5.625 -1.0305 -0.0370  0.5033
49857SOL    HW254257  11.269   8.095   5.576  0.0861 -0.6232  0.0106
49858SOL     OW54258   7.188   3.642   1.000 -0.1205 -0.1183  0.0141
49858SOL    HW154259   7.199   3.713   1.063  1.5228  0.3522 -0.7606
49858SOL    HW254260   7.102   3.658   0.960  0.0023  1.1263  0.2302
49859SOL     OW54261  10.817   5.174   6.504  0.3206  0.0910  0.3174
49859SOL    HW154262  10.772   5.255   6.479 -0.2715  0.1430  1.4852
49859SOL    HW254263  10.881   5.160   6.434  0.2828  1.4484 -0.0281
49860SOL     OW54264   7.868   4.270  11.199 -0.8008 -0.0036 -0.1962
49860SOL    HW154265   7.941   4.209  11.191 -0.1728  0.7809 -0.5595
49860SOL    HW254266   7.827   4.247  11.283  1.5071  1.2906  1.3906
49861SOL     OW54267   3.711   0.995   6.246  0.1849 -0.2486  0.5339
49861SOL    HW154268   3.751   0.916   6.284 -0.6922 -0.7450  0.4598
49861SOL    HW254269   3.627   0.965   6.212 -0.0906  0.6948  0.3526
49862SOL     OW54270   9.251   8.538   3.221 -0.6465  0.1833 -0.8251
49862SOL    HW154271   9.289   8.511   3.304 -2.2858  2.2190  0.7289
49862SOL    HW254272   9.215   8.458   3.183 -3.2979 -0.3820  2.3938
49863SOL     OW54273   8.757   2.899   1.428 -0.1455  0.4636  0.0613
49863SOL    HW154274   8.672   2.894   1.470  0.6734  0.7200  1.8307
49863SOL    HW254275   8.814   2.941   1.492  1.1975  0.8272 -1.2913
49864SOL     OW54276   6.644   5.755   2.964 -0.6959  0.0496 -0.0305
49864SOL    HW154277   6.731   5.794   2.972  0.2653 -1.9470 -0.0696
49864SOL    HW254278   6.623   5.725   3.052  0.2757 -2.5795 -0.5939
49865SOL     OW54279   8.117   8.382   0.197  0.2531  0.0969 -0.3379
49865SOL    HW154280   8.115   8.456   0.258 -0.4195 -0.2366  0.0559
49865SOL    HW254281   8.043   8.328   0.223  0.7861 -0.7606 -0.5760
49866SOL     OW54282   9.756   7.887   0.065  0.1176  0.6163 -0.3268
49866SOL    HW154283   9.703   7.837   0.127  1.4596 -1.7244 -0.9496
49866SOL    HW254284   9.746   7.978   0.093 -2.0450 -0.0005  1.1823
49867SOL     OW54285   7.226   2.285  11.387  0.1442 -0.3317  0.0586
49867SOL    HW154286   7.284   2.214  11.359  0.4051 -0.3840  0.6961
49867SOL    HW254287   7.212   2.268  11.481 -0.4857 -0.0241  0.0229
49868SOL     OW54288   2.261   7.504   7.193  0.1667 -0.2843  0.3776
49868SOL    HW154289   2.195   7.521   7.125  0.0869  2.2735  0.9931
49868SOL    HW254290   2.215   7.523   7.275  0.9094 -1.1515  1.0108
49869SOL     OW54291   5.795  11.582   9.102  0.7194 -0.2651 -0.1548
49869SOL    HW154292   5.729  11.551   9.164  1.0227 -0.9959 -0.1837
49869SOL    HW254293   5.868  11.609   9.157  0.2067  1.0365 -0.0961
49870SOL     OW54294  10.272   4.142   4.350 -0.3209  0.4053  0.1746
49870SOL    HW154295  10.288   4.225   4.396 -1.1770 -0.0505  1.3442
49870SOL    HW254296  10.189   4.156   4.305 -0.0713  0.4434 -0.2776
49871SOL     OW54297   7.751   8.860   4.575  0.3331  0.1453  0.4497
49871SOL    HW154298   7.812   8.871   4.648  1.6616  0.8714 -0.7072
49871SOL    HW254299   7.808   8.845   4.499 -0.8256  2.1557 -0.9118
49872SOL     OW54300   2.412   9.159  11.077 -0.5327  0.2240  0.5677
49872SOL    HW154301   2.353   9.146  11.151 -0.7472  0.1133  0.3772
49872SOL    HW254302   2.413   9.075  11.031 -1.9407  0.8515 -0.6675
49873SOL     OW54303   2.315   2.630   2.053  0.5129  0.3657 -0.6316
49873SOL    HW154304   2.341   2.705   2.000 -0.3451  0.2054 -1.2878
49873SOL    HW254305   2.325   2.661   2.144 -0.9968  1.7096 -0.8772
49874SOL     OW54306  10.035   6.140   5.680 -0.3683 -0.6536 -0.2000
49874SOL    HW154307  10.022   6.222   5.728 -0.7674 -1.4026  0.9889
49874SOL    HW254308  10.127   6.142   5.655  0.8229 -1.7027  3.4680
49875SOL     OW54309   1.322   1.759   4.783  0.2138 -0.3634 -0.3241
49875SOL    HW154310   1.328   1.697   4.710  2.1556  0.3912 -0.8833
49875SOL    HW254311   1.365   1.714   4.856 -1.5562 -1.0410  0.3537
49876SOL     OW54312   9.091   0.111   3.588 -0.0481  0.4640  0.1929
49876SOL    HW154313   9.020   0.159   3.545  1.2694  2.6491  0.2815
49876SOL    HW254314   9.049   0.067   3.662 -1.3317  1.7239  0.2587
49877SOL     OW54315   4.382   9.736   6.505 -0.2079  0.4340 -0.0135
49877SOL    HW154316   4.328   9.671   6.549 -2.4150  2.6472  0.8145
49877SOL    HW254317   4.323   9.780   6.444  1.2291  1.5439 -0.6771
49878SOL     OW54318   4.141   4.451   0.304 -0.4727 -0.0025  0.4799
49878SOL    HW154319   4.106   4.382   0.248  0.7247 -0.3970  0.1969
49878SOL    HW254320   4.065   4.506   0.323 -1.1329 -0.4994 -0.5861
49879SOL     OW54321  10.492   6.065   8.591 -0.1306  0.8721 -0.9751
49879SOL    HW154322  10.549   6.141   8.606 -0.2365  0.9592 -1.0147
49879SOL    HW254323  10.541   5.992   8.628  0.5849  0.7348 -2.1560
49880SOL     OW54324  11.756   2.597   3.484  0.3533 -0.2702  0.4641
49880SOL    HW154325  11.686   2.533   3.473 -0.0219  0.3531 -1.0802
49880SOL    HW254326  11.789   2.582   3.572 -0.8634 -1.4395  0.7507
49881SOL     OW54327   5.834  10.786   9.795  0.2205  0.3159 -0.1877
49881SOL    HW154328   5.803  10.768   9.706  0.5899 -0.3003 -0.2017
49881SOL    HW254329   5.844  10.881   9.798 -0.9940  0.4592 -0.3935
49882SOL     OW54330   4.825   7.761   4.067  0.0346  0.0165  0.1020
49882SOL    HW154331   4.810   7.836   4.010  0.5822  0.3929  0.4416
49882SOL    HW254332   4.854   7.691   4.008  1.3644  0.6263 -0.0148
49883SOL     OW54333   1.225   1.679   8.608 -0.0041  0.0343 -0.8549
49883SOL    HW154334   1.153   1.742   8.599 -1.2504 -1.1630  0.2866
49883SOL    HW254335   1.283   1.719   8.674 -0.7273  0.0535 -0.2143
49884SOL     OW54336   6.778   2.800   9.715 -0.1734  0.2358  0.1461
49884SOL    HW154337   6.682   2.804   9.721 -0.1500 -0.4720  1.4527
49884SOL    HW254338   6.796   2.781   9.623 -1.2753  0.5186 -0.1430
49885SOL     OW54339  10.960   6.773   0.174 -0.2781 -0.0830 -0.1517
49885SOL    HW154340  10.987   6.681   0.168 -0.2544  0.0118 -1.9067
49885SOL    HW254341  10.959   6.791   0.268  1.5357 -1.3459  0.1684
49886SOL     OW54342   0.412   7.149   4.155  0.2429 -0.4625 -0.2862
49886SOL    HW154343   0.423   7.222   4.216  1.0772 -1.0023  0.2264
49886SOL    HW254344   0.335   7.173   4.103  0.5509  0.8296 -0.1968
49887SOL     OW54345   1.952   3.469   2.916 -0.3012 -0.1332 -0.1335
49887SOL    HW154346   1.922   3.481   3.006  1.0176 -1.7822  0.5735
49887SOL    HW254347   2.009   3.545   2.900 -1.3111  0.6875  0.0367
49888SOL     OW54348   2.209  11.761   8.815  0.1348 -0.5030  0.2495
49888SOL    HW154349   2.253  11.720   8.740 -0.2105 -0.6356  0.1207
49888SOL    HW254350   2.119  11.729   8.811 -0.0448 -0.0226  0.3588
49889SOL     OW54351   2.705  11.884   2.838 -0.1206  0.2508 -0.1408
49889SOL    HW154352   2.712  11.934   2.757 -0.2244  2.3297  1.0430
49889SOL    HW254353   2.690  11.950   2.905 -0.4266 -1.4279  1.5355
49890SOL     OW54354   2.214   9.808   8.095  0.3265 -0.3945  0.1513
49890SOL    HW154355   2.298   9.833   8.133  0.9833 -1.9179 -0.1982
49890SOL    HW254356   2.149   9.834   8.160  1.1481  0.0141  0.8292
49891SOL     OW54357   3.283   8.745   8.273  0.1331  0.2518  0.1096
49891SOL    HW154358   3.344   8.674   8.292  0.2132  0.2604 -0.1116
49891SOL    HW254359   3.223   8.746   8.347 -0.5285 -0.7537 -0.3899
49892SOL     OW54360   1.720   0.409   4.494 -0.2828  0.3935 -0.8644
49892SOL    HW154361   1.797   0.378   4.542 -3.1105 -0.0892  4.0270
49892SOL    HW254362   1.725   0.505   4.501 -0.5248  0.3359  0.2468
49893SOL     OW54363   0.056  10.063   0.597 -0.6598 -0.0327 -0.0067
49893SOL    HW154364   0.058  10.008   0.676  2.3907 -1.5349 -0.9580
49893SOL    HW254365   0.081  10.150   0.628 -0.8140 -0.2887  0.8741
49894SOL     OW54366   4.123   9.236   4.447 -0.1820  0.3833 -0.5266
49894SOL    HW154367   4.098   9.277   4.531 -0.5728  1.6455 -1.2296
49894SOL    HW254368   4.200   9.184   4.468  1.8620  3.3890  0.0249
49895SOL     OW54369   6.385  11.057  11.414  0.3600 -0.2532 -0.3662
49895SOL    HW154370   6.438  11.135  11.400 -0.6965  0.2772 -1.7412
49895SOL    HW254371   6.343  11.042  11.329 -1.5932 -0.6799  0.6100
49896SOL     OW54372   0.683  11.380   8.224 -0.3145  0.2763  0.0079
49896SOL    HW154373   0.613  11.317   8.243 -0.5410  0.3208 -0.6510
49896SOL    HW254374   0.637  11.459   8.195 -0.0025  0.4293 -0.0695
49897SOL     OW54375   6.924  10.866  10.541 -0.0437 -0.4793 -0.7766
49897SOL    HW154376   6.951  10.786  10.495 -0.7015 -1.7761  0.9886
49897SOL    HW254377   6.860  10.907  10.483 -0.5236 -1.8254 -1.2356
49898SOL     OW54378   2.036   3.395   7.446 -0.1670  0.3852 -1.0802
49898SOL    HW154379   2.075   3.321   7.399 -0.2453  1.0095 -2.1626
49898SOL    HW254380   2.102   3.464   7.441 -0.3600  0.6072 -0.6413
49899SOL     OW54381   3.695   5.194   4.250 -0.1783  0.2234 -0.0574
49899SOL    HW154382   3.779   5.148   4.246  0.3421  1.1112  0.4272
49899SOL    HW254383   3.666   5.182   4.340  0.1305  1.1025  0.1746
49900SOL     OW54384   3.677   8.353   7.060  0.3286  0.3036 -0.0958
49900SOL    HW154385   3.665   8.329   7.152  0.1658  0.1083 -0.1660
49900SOL    HW254386   3.764   8.321   7.037 -0.3347 -1.2916 -0.5179
49901SOL     OW54387   5.792  11.764   4.553 -0.0357  0.1461  0.2974
49901SOL    HW154388   5.739  11.684   4.556 -0.2278  0.2934  1.1185
49901SOL    HW254389   5.817  11.779   4.645  1.5479 -0.0076 -0.0648
49902SOL     OW54390   7.043  11.369   2.925 -0.2359  0.4554 -0.1109
49902SOL    HW154391   7.022  11.286   2.880  1.2046 -0.2491  0.4547
49902SOL    HW254392   6.962  11.419   2.921 -0.6005 -0.1876 -2.1807
49903SOL     OW54393  11.521   0.381   0.727 -0.4588 -0.2613 -0.0409
49903SOL    HW154394  11.556   0.295   0.747 -1.8071 -0.9232 -0.3966
49903SOL    HW254395  11.468   0.368   0.648  0.7718  1.2756 -1.1835
49904SOL     OW54396   3.591   2.538  10.470  0.1418 -0.0044  0.1636
49904SOL    HW154397   3.648   2.554  10.396  0.6434  0.0389  0.5555
49904SOL    HW254398   3.632   2.466  10.518  0.1084  0.3167  0.6873
49905SOL     OW54399   4.434   2.136   1.825  0.6806 -0.2330 -0.0678
49905SOL    HW154400   4.473   2.109   1.742  1.0847 -0.0151  0.0491
49905SOL    HW254401   4.398   2.223   1.808  0.2663 -0.4197 -0.1663
49906SOL     OW54402   3.328   8.355   9.869 -0.5630 -0.7461 -0.1853
49906SOL    HW154403   3.315   8.260   9.872  1.0093 -0.9763  0.1482
49906SOL    HW254404   3.285   8.382   9.788 -1.2597 -1.7057 -0.1459
49907SOL     OW54405   1.570  10.761  10.977  0.0190  0.2512 -0.4259
49907SOL    HW154406   1.477  10.740  10.966 -0.5083  1.6317  1.0526
49907SOL    HW254407   1.597  10.713  11.055 -0.2594  2.0712  0.8584
49908SOL     OW54408   0.237   0.746  11.568 -0.4603 -0.0534  0.0423
49908SOL    HW154409   0.187   0.750  11.650 -0.9033  1.2007 -0.2645
49908SOL    HW254410   0.324   0.716  11.595 -0.6864  0.0606  0.9380
49909SOL     OW54411   6.617   7.930  11.796 -0.6366 -0.4365  0.0055
49909SOL    HW154412   6.620   7.995  11.726 -1.6216  0.5645  0.8666
49909SOL    HW254413   6.630   7.846  11.750  2.6140  0.4149 -0.8999
49910SOL     OW54414   9.314   2.680   2.465  0.2558 -0.0472  0.2792
49910SOL    HW154415   9.347   2.736   2.394  2.7137  0.2976  1.5759
49910SOL    HW254416   9.255   2.737   2.514  0.4241  0.4825 -0.1173
49911SOL     OW54417   0.185   9.486   7.585  0.0334  0.5098 -0.1736
49911SOL    HW154418   0.122   9.519   7.522 -0.3475  0.0059 -0.0607
49911SOL    HW254419   0.231   9.415   7.540 -0.2535  0.1344  0.1171
49912SOL     OW54420   5.447   0.810   4.076  0.1061  0.7056  0.1033
49912SOL    HW154421   5.473   0.902   4.065  1.4886  0.2433 -0.6939
49912SOL    HW254422   5.379   0.797   4.010  0.7636  0.8347 -0.6061
49913SOL     OW54423   4.367   0.098   9.184 -0.2262 -0.3365  0.3191
49913SOL    HW154424   4.291   0.044   9.161  1.0528 -2.5739  1.0766
49913SOL    HW254425   4.330   0.170   9.236 -1.9892 -0.4865 -0.6614
49914SOL     OW54426   6.114  11.443   4.416 -0.1785  0.8801  0.4095
49914SOL    HW154427   6.101  11.453   4.321 -1.9289  0.6166  0.5750
49914SOL    HW254428   6.107  11.348   4.430  3.0812  0.5432  0.4799
49915SOL     OW54429   2.557  11.743  11.792  0.4570 -0.0528 -0.3084
49915SOL    HW154430   2.564  11.836  11.811  0.0289 -0.1423  0.3031
49915SOL    HW254431   2.621  11.701  11.850  1.1563 -0.0889 -1.0800
49916SOL     OW54432  11.327   1.475   9.276  0.5324 -0.4455  0.3771
49916SOL    HW154433  11.331   1.421   9.197  2.1303  0.9132 -0.5376
49916SOL    HW254434  11.416   1.472   9.311  0.6030  1.3200  0.4487
49917SOL     OW54435   2.056   8.650   3.567  0.3175 -0.0244  0.1778
49917SOL    HW154436   1.980   8.592   3.564 -0.0305  0.4514 -1.8336
49917SOL    HW254437   2.028   8.725   3.620 -0.3809 -0.1754  0.0273
49918SOL     OW54438   0.366   4.896   5.208 -0.3778 -0.4600 -0.4487
49918SOL    HW154439   0.283   4.934   5.179 -0.6940 -1.7787 -1.3636
49918SOL    HW254440   0.341   4.822   5.262  0.2305  0.1876  0.7691
49919SOL     OW54441   7.736   0.886  10.376  0.0397 -0.0268  0.2846
49919SOL    HW154442   7.641   0.881  10.362 -0.1473 -0.4708  1.6086
49919SOL    HW254443   7.749   0.970  10.419  0.4570  0.7430 -1.2690
49920SOL     OW54444   2.019  11.174  10.458 -0.3067 -0.4643  0.3774
49920SOL    HW154445   2.057  11.183  10.371 -1.1797 -1.5360 -0.1335
49920SOL    HW254446   1.925  11.161  10.442 -0.6626  0.4777  1.5347
49921SOL     OW54447   2.164   7.594   7.443  0.7881 -0.7695 -0.3100
49921SOL    HW154448   2.227   7.657   7.477  0.1389 -0.5306  0.4783
49921SOL    HW254449   2.127   7.552   7.521 -2.7479  1.7302 -0.4119
49922SOL     OW54450   5.132   5.415   8.749  0.4751 -0.3836  0.4229
49922SOL    HW154451   5.220   5.444   8.725  0.8924 -1.2948  0.8113
49922SOL    HW254452   5.142   5.322   8.770 -0.7666 -0.7287 -0.4517
49923SOL     OW54453   0.280   5.505   9.026  0.3740 -0.2644  0.3837
49923SOL    HW154454   0.245   5.524   9.113 -2.1041 -1.9330 -0.1588
49923SOL    HW254455   0.375   5.498   9.039 -0.0591 -2.3907  3.3919
49924SOL     OW54456   9.460   6.030   0.301  0.0118 -0.4121 -0.8274
49924SOL    HW154457   9.555   6.041   0.289  0.0600 -1.8754 -2.2089
49924SOL    HW254458   9.423   6.116   0.279  1.0538  0.5477  0.9276
49925SOL     OW54459   0.002   5.095   2.574  0.2044 -0.1494 -0.5593
49925SOL    HW154460  -0.054   5.142   2.512  0.1151  0.1148 -0.2731
49925SOL    HW254461  -0.055   5.028   2.612  0.3337 -0.4987 -0.9697
49926SOL     OW54462   4.598   0.936   9.615  0.4647 -0.0500 -0.0739
49926SOL    HW154463   4.571   0.857   9.661 -0.5001  0.9066  1.0879
49926SOL    HW254464   4.644   0.988   9.682  1.3355  0.2492 -0.8908
49927SOL     OW54465   8.057  10.142   5.099  0.1081  0.4998  0.2347
49927SOL    HW154466   8.152  10.149   5.107  0.3200 -0.8238 -0.8082
49927SOL    HW254467   8.028  10.231   5.080  1.3714  0.5758 -1.4878
49928SOL     OW54468   2.755   1.635   1.619  0.1869 -0.1044  0.6993
49928SOL    HW154469   2.809   1.595   1.551  0.8213 -0.5622  1.4451
49928SOL    HW254470   2.670   1.650   1.577  1.3566  2.3026 -1.0599
49929SOL     OW54471   8.122  10.839   6.973 -0.2272  0.3567  0.1100
49929SOL    HW154472   8.067  10.819   6.898  0.9047 -0.8857 -0.4289
49929SOL    HW254473   8.157  10.927   6.954 -2.0486  1.2130  0.5228
49930SOL     OW54474   4.583   1.599   1.856  0.0804 -0.0106  0.0223
49930SOL    HW154475   4.600   1.686   1.892  0.8070  0.0418 -0.4112
49930SOL    HW254476   4.488   1.593   1.850 -0.0144  0.3803  0.9528
49931SOL     OW54477   3.270   0.491   7.623  0.6870  0.1463 -0.1680
49931SOL    HW154478   3.227   0.427   7.565 -0.5186  1.5034 -0.8424
49931SOL    HW254479   3.199   0.546   7.655  1.6395  0.8756  0.7594
49932SOL     OW54480   5.881  10.145   0.929 -0.2468 -0.7182 -0.1328
49932SOL    HW154481   5.880  10.209   1.000  1.7436 -0.6162 -0.1436
49932SOL    HW254482   5.840  10.067   0.966  2.1594 -1.2076  1.7204
49933SOL     OW54483   8.381   1.084   6.496 -0.1073 -0.0857  0.2606
49933SOL    HW154484   8.289   1.110   6.501 -0.0989  0.1397 -0.6127
49933SOL    HW254485   8.386   1.005   6.550 -0.8443 -0.1744  0.2145
49934SOL     OW54486   6.215   2.985  10.841 -0.5496  0.1015 -0.0516
49934SOL    HW154487   6.275   3.058  10.857 -1.0782  0.5116  0.0775
49934SOL    HW254488   6.272   2.913  10.812 -0.0270  0.5701 -0.2078
49935SOL     OW54489  11.847   1.363   6.563  0.2353 -0.2700  0.0593
49935SOL    HW154490  11.832   1.450   6.601  0.6432  0.5146 -1.4796
49935SOL    HW254491  11.941   1.350   6.569  0.2704 -0.2560 -0.3827
49936SOL     OW54492   0.975   4.132  11.918 -0.3382  0.0141  0.2739
49936SOL    HW154493   1.057   4.171  11.888 -0.9226  1.8669  0.9657
49936SOL    HW254494   0.907   4.180  11.870 -1.0799 -0.5276  0.7659
49937SOL     OW54495  10.182   1.596   5.331 -0.3112 -0.1561  0.5206
49937SOL    HW154496  10.103   1.543   5.338 -2.0565  1.7879 -2.1880
49937SOL    HW254497  10.224   1.566   5.251  1.0013 -0.2837  1.2401
49938SOL     OW54498   4.809   4.642   4.858 -0.0366  0.5370 -0.6357
49938SOL    HW154499   4.716   4.658   4.878  0.1087  0.5501  0.0426
49938SOL    HW254500   4.832   4.566   4.910  0.3306  0.5123 -0.8322
49939SOL     OW54501   5.295   9.831   2.776  0.0149  0.2270 -0.5343
49939SOL    HW154502   5.217   9.784   2.748 -0.0686 -0.7110  1.1274
49939SOL    HW254503   5.264   9.889   2.846  0.9361 -1.0044  0.9755
49940SOL     OW54504  11.357  11.439   3.519  0.7299  0.5863 -0.3942
49940SOL    HW154505  11.419  11.380   3.476  1.2329  0.4849  0.4505
49940SOL    HW254506  11.404  11.522   3.527  0.3370  0.8512 -0.7926
49941SOL     OW54507   5.182   8.412  11.874 -0.1986  0.6911 -0.0595
49941SOL    HW154508   5.184   8.363  11.956 -1.2592  0.8296  0.0684
49941SOL    HW254509   5.091   8.443  11.867 -0.2652  0.2388 -1.5345
49942SOL     OW54510  10.027   3.091   5.663 -0.3525  0.3991 -0.1598
49942SOL    HW154511   9.931   3.082   5.666 -0.4050  1.0451  0.7393
49942SOL    HW254512  10.059   3.004   5.640 -1.1273 -0.0357  0.3648
49943SOL     OW54513   2.802   9.752  10.107  0.1983 -0.3093  0.4495
49943SOL    HW154514   2.836   9.781  10.191  0.5143 -0.6718  0.4477
49943SOL    HW254515   2.858   9.797  10.042 -0.8063  0.9309  0.3974
49944SOL     OW54516   4.309   8.351   8.664 -0.1843 -0.2690 -0.3050
49944SOL    HW154517   4.253   8.299   8.722  0.5650  1.2147  1.8785
49944SOL    HW254518   4.255   8.427   8.641  0.5327  0.6974  1.0512
49945SOL     OW54519   8.635  11.439   1.748  0.2951 -0.1260  0.3313
49945SOL    HW154520   8.551  11.393   1.744  0.8942 -1.2033 -0.2098
49945SOL    HW254521   8.682  11.399   1.821 -0.0160  1.1320  1.2505
49946SOL     OW54522   5.790   1.727   3.622 -0.2985 -0.3009 -0.6103
49946SOL    HW154523   5.712   1.779   3.602 -0.1622  0.0515 -0.2595
49946SOL    HW254524   5.857   1.793   3.641 -0.8095 -0.5157  2.5795
49947SOL     OW54525   8.642   8.755  11.754 -0.1986  0.0771 -0.0093
49947SOL    HW154526   8.693   8.802  11.689 -0.4655 -1.0469 -1.0852
49947SOL    HW254527   8.692   8.675  11.770 -0.2626  0.2313  0.9933
49948SOL     OW54528   8.737   1.242   6.882 -0.2682 -0.0465  0.2642
49948SOL    HW154529   8.659   1.277   6.926 -0.8830 -1.8625  0.7001
49948SOL    HW254530   8.726   1.266   6.790 -0.1699  1.6903  0.6613
49949SOL     OW54531   4.948   6.550   5.754 -0.2637  0.2095  0.9642
49949SOL    HW154532   4.892   6.619   5.717 -0.9118 -0.4182  0.7635
49949SOL    HW254533   4.920   6.542   5.845 -2.1479 -1.7040  0.2872
49950SOL     OW54534  10.550   3.475  11.605  0.3188 -0.3247 -0.1037
49950SOL    HW154535  10.489   3.407  11.578 -0.3824  0.9831 -2.1224
49950SOL    HW254536  10.617   3.476  11.537  2.3117 -1.3124  1.7545
49951SOL     OW54537  11.992   8.775   1.396 -0.7281  0.1458 -0.0432
49951SOL    HW154538  11.929   8.844   1.415  0.9940  1.7905 -0.1169
49951SOL    HW254539  11.961   8.700   1.447 -1.2890  1.6864  1.9979
49952SOL     OW54540   1.644  10.419  10.897 -0.5308  0.3409  0.1269
49952SOL    HW154541   1.550  10.403  10.901 -0.4768  0.2467  1.5264
49952SOL    HW254542   1.656  10.505  10.938  0.1248 -0.3397  1.4244
49953SOL     OW54543   3.383   8.852  10.498 -0.2893 -0.1040 -0.0707
49953SOL    HW154544   3.292   8.881  10.508 -0.3274  0.1784 -1.1501
49953SOL    HW254545   3.378   8.756  10.505 -0.8745 -0.1931 -1.4130
49954SOL     OW54546   3.225   7.180   4.976 -0.3735 -0.4711  1.1453
49954SOL    HW154547   3.160   7.240   5.011  1.1491 -0.1764  3.6906
49954SOL    HW254548   3.237   7.115   5.045 -1.0363 -3.0483 -1.0123
49955SOL     OW54549   1.348  10.818  10.109  0.2863  0.4383 -0.1022
49955SOL    HW154550   1.399  10.791  10.032 -0.1879 -0.0250 -0.2597
49955SOL    HW254551   1.257  10.798  10.086  0.1801 -0.0960  0.7430
49956SOL     OW54552   3.242   0.485  11.293 -0.3161 -0.2139  0.3072
49956SOL    HW154553   3.233   0.428  11.216  0.3461 -2.4108  1.7670
49956SOL    HW254554   3.155   0.523  11.305 -0.1341  1.3137 -2.2563
49957SOL     OW54555   2.875   0.996   5.134 -0.2321 -0.3702  0.0748
49957SOL    HW154556   2.849   1.060   5.068  0.0389 -0.7526 -0.4088
49957SOL    HW254557   2.793   0.958   5.165 -0.4328  0.5535  0.7251
49958SOL     OW54558   0.784  10.583   3.818  0.1766  0.0649  0.0660
49958SOL    HW154559   0.840  10.659   3.806 -0.3956  0.8390  1.8727
49958SOL    HW254560   0.702  10.607   3.775  0.1457  0.2867  0.2479
49959SOL     OW54561  11.507   9.621   7.437 -0.5522  0.5698  0.5963
49959SOL    HW154562  11.586   9.662   7.472 -0.5041 -0.3734  1.6647
49959SOL    HW254563  11.517   9.626   7.342  1.2155 -0.3127  0.7062
49960SOL     OW54564   8.229   5.761   4.168 -0.5467  0.3803  0.3906
49960SOL    HW154565   8.223   5.782   4.075 -2.4686  2.0377  0.8350
49960SOL    HW254566   8.155   5.702   4.185 -1.3118  1.5460  1.2048
49961SOL     OW54567  11.634   3.810   7.793 -0.8275 -0.1693  0.3179
49961SOL    HW154568  11.659   3.891   7.837  0.8991 -0.6338  0.3012
49961SOL    HW254569  11.699   3.746   7.824 -1.1747 -1.1361 -0.8920
49962SOL     OW54570   9.541  10.729   3.566 -0.2990  0.6244  0.3147
49962SOL    HW154571   9.466  10.766   3.612 -0.2994  0.2592  0.6098
49962SOL    HW254572   9.530  10.756   3.475  0.9013  3.3673  0.8676
49963SOL     OW54573   5.349   5.874   3.588  0.1845 -0.5307 -0.0501
49963SOL    HW154574   5.388   5.791   3.561  0.7740 -1.4048  3.1111
49963SOL    HW254575   5.292   5.851   3.662  1.5499  1.9874  1.9522
49964SOL     OW54576  10.289   5.436  11.108  0.1346 -0.3961  0.1651
49964SOL    HW154577  10.357   5.480  11.057  0.1169 -0.5079  0.0463
49964SOL    HW254578  10.233   5.395  11.043 -0.0527 -0.2958  0.2649
49965SOL     OW54579   0.176   5.973   3.634 -0.3234  0.1322 -0.1259
49965SOL    HW154580   0.117   5.955   3.561  0.9505 -0.2265 -1.0868
49965SOL    HW254581   0.120   5.967   3.712 -1.1251 -2.4404 -0.8128
49966SOL     OW54582  11.893   4.900   1.560  0.2000 -0.1498  0.3114
49966SOL    HW154583  11.808   4.894   1.605  0.4585 -0.6637  0.7396
49966SOL    HW254584  11.934   4.978   1.598 -1.0853  1.6185 -1.6794
49967SOL     OW54585   3.761   8.806   2.149 -0.2944 -0.4071 -0.1909
49967SOL    HW154586   3.773   8.812   2.054  0.4436 -1.3529 -0.1686
49967SOL    HW254587   3.763   8.712   2.168  1.9373 -0.1705  1.0497
49968SOL     OW54588   6.369   6.977   2.265 -0.3197  0.5507 -0.3268
49968SOL    HW154589   6.343   6.984   2.173  0.9745 -1.5041 -0.9027
49968SOL    HW254590   6.378   7.068   2.294 -1.0191  1.2436 -2.1352
49969SOL     OW54591   1.644  11.785   3.411 -0.9141 -0.1783 -0.2855
49969SOL    HW154592   1.649  11.696   3.375 -0.3138 -0.3431  0.1849
49969SOL    HW254593   1.679  11.777   3.500  1.9483  1.0063 -1.1577
49970SOL     OW54594   1.627   5.341  10.081 -0.0455  0.4992  0.3518
49970SOL    HW154595   1.720   5.355  10.097  0.2597 -1.9662  1.0912
49970SOL    HW254596   1.613   5.249  10.100 -2.2004  0.2492 -1.9683
49971SOL     OW54597   6.458   1.557   0.414  0.2448  0.0119  0.2912
49971SOL    HW154598   6.403   1.500   0.359  1.0966 -0.6426  0.0849
49971SOL    HW254599   6.463   1.639   0.365  1.3287 -0.6932 -0.8751
49972SOL     OW54600   4.667   0.799   7.018  0.3004  0.5572 -0.4145
49972SOL    HW154601   4.704   0.887   7.027 -2.1016  1.9008 -2.4103
49972SOL    HW254602   4.589   0.800   7.074  1.1400 -0.9186  0.8411
49973SOL     OW54603   5.652   6.396   9.369  0.3616  0.1337  0.6833
49973SOL    HW154604   5.726   6.361   9.419 -1.2801 -0.8822  2.5321
49973SOL    HW254605   5.654   6.490   9.387  1.8888  0.3380 -0.3212
49974SOL     OW54606   9.432   4.745   9.717  0.4430  0.5973 -0.5706
49974SOL    HW154607   9.457   4.734   9.625  2.8899  0.5502  0.0217
49974SOL    HW254608   9.513   4.773   9.761 -0.4609 -0.0886  1.6930
49975SOL     OW54609   0.341   2.988   3.299  0.3736 -0.2170  0.2776
49975SOL    HW154610   0.411   3.046   3.330  1.1594 -0.9494 -0.0750
49975SOL    HW254611   0.357   2.980   3.205 -0.9113  0.5582 -0.0235
49976SOL     OW54612   3.234   7.501   5.020  0.2146 -0.2653  0.4836
49976SOL    HW154613   3.253   7.594   5.033  0.2889 -0.2935  0.5802
49976SOL    HW254614   3.201   7.496   4.930 -1.5314  0.1124  1.0790
49977SOL     OW54615   6.336   9.235   2.163 -1.0280 -0.1155 -0.0392
49977SOL    HW154616   6.245   9.261   2.158 -1.2706 -0.9347 -0.0674
49977SOL    HW254617   6.336   9.142   2.138 -0.1072  0.0416 -0.6612
49978SOL     OW54618   8.569   7.730  10.883 -0.5742  1.1436 -0.0231
49978SOL    HW154619   8.547   7.641  10.857  0.1008  1.0987 -0.4413
49978SOL    HW254620   8.526   7.786  10.818  0.6992  1.0484 -0.9598
49979SOL     OW54621   5.014  11.897   3.802 -0.1054  0.0607 -0.3902
49979SOL    HW154622   4.966  11.929   3.725 -0.7463  1.0201  0.3860
49979SOL    HW254623   5.049  11.976   3.843 -2.2342 -0.0804  1.9345
49980SOL     OW54624   5.865   4.073   1.108  0.2948  0.4361  1.0172
49980SOL    HW154625   5.949   4.072   1.062 -0.2505  1.0980 -0.0420
49980SOL    HW254626   5.850   3.981   1.131  1.2113  0.2795  1.0594
49981SOL     OW54627   0.404   3.595   8.490 -0.1930 -0.4897  0.3559
49981SOL    HW154628   0.348   3.536   8.439 -1.8697  2.8278 -2.0304
49981SOL    HW254629   0.491   3.587   8.450 -0.4935 -1.0179 -0.2031
49982SOL     OW54630   8.116   1.493   5.652  0.7354  0.3226 -0.2175
49982SOL    HW154631   8.139   1.529   5.566  0.6494  0.3148 -0.2443
49982SOL    HW254632   8.115   1.568   5.710 -0.7745  0.5850 -0.5447
49983SOL     OW54633   7.699  10.963   3.035 -0.1609  0.1714 -0.3341
49983SOL    HW154634   7.630  10.919   3.086 -0.4480  0.8529 -0.1288
49983SOL    HW254635   7.701  11.052   3.070 -0.2338  0.5958 -1.3861
49984SOL     OW54636   5.842   9.500   0.508 -0.2682 -0.0715  0.1973
49984SOL    HW154637   5.852   9.553   0.587 -1.5718  1.1834 -0.4265
49984SOL    HW254638   5.928   9.461   0.494  0.4682  1.1020  1.2355
49985SOL     OW54639  11.014   4.891   2.321  0.4847 -0.4609  0.3990
49985SOL    HW154640  11.009   4.854   2.233 -1.3827  0.4412  0.0871
49985SOL    HW254641  11.104   4.873   2.349  1.0400 -0.9971 -1.5671
49986SOL     OW54642   6.430  11.979  10.124  0.4176  0.2256  0.5634
49986SOL    HW154643   6.395  11.994  10.212 -0.6711  2.7374 -0.1957
49986SOL    HW254644   6.500  12.044  10.115  1.1488 -0.6315 -0.1265
49987SOL     OW54645   7.125   7.635   6.285 -0.0302  0.5040 -0.8221
49987SOL    HW154646   7.136   7.540   6.277 -0.7684  0.1808  1.3073
49987SOL    HW254647   7.041   7.653   6.243 -0.0338  0.1675 -0.9597
49988SOL     OW54648   8.416  11.600   4.728 -0.0777  0.1489  0.3483
49988SOL    HW154649   8.375  11.652   4.796  0.1417 -1.1004  1.4921
49988SOL    HW254650   8.509  11.599   4.751  0.1786  0.6132 -0.6072
49989SOL     OW54651   0.916   7.049   9.413  0.1962  0.2329 -0.0179
49989SOL    HW154652   0.970   7.099   9.352 -0.2017  1.7725  0.8600
49989SOL    HW254653   0.966   7.047   9.494  0.2225 -0.8644 -0.0384
49990SOL     OW54654   7.895   3.936   2.267  0.4435  0.2276  0.7702
49990SOL    HW154655   7.883   3.914   2.175 -0.9743 -0.2662  1.0529
49990SOL    HW254656   7.990   3.937   2.279  0.6296 -0.7750 -0.4339
49991SOL     OW54657  11.821   2.932   5.794  0.2640 -0.3227  0.6929
49991SOL    HW154658  11.834   2.845   5.832  0.4945 -0.7100 -0.2523
49991SOL    HW254659  11.889   2.985   5.836  1.0983 -0.9549  0.1791
49992SOL     OW54660   6.339   6.616  11.384  0.3257  0.9926  0.1781
49992SOL    HW154661   6.398   6.647  11.315 -1.1792  2.2685 -0.5874
49992SOL    HW254662   6.253   6.610  11.341 -0.2351 -0.2702  1.4052
49993SOL     OW54663   0.760   4.686   4.676  0.3134  0.1555 -0.0864
49993SOL    HW154664   0.761   4.699   4.582 -1.9447 -0.2166 -0.2257
49993SOL    HW254665   0.826   4.618   4.692  0.7597  0.2731 -1.3815
49994SOL     OW54666   5.416  10.788   8.240 -0.0149  0.2307  0.5139
49994SOL    HW154667   5.494  10.754   8.284 -0.0008  1.4718  1.4899
49994SOL    HW254668   5.450  10.841   8.168  0.0776  1.2191  1.2701
49995SOL     OW54669  11.763   5.245   4.599  0.1318 -0.1862  0.0658
49995SOL    HW154670  11.676   5.237   4.560  0.2243 -0.5612 -0.0705
49995SOL    HW254671  11.781   5.158   4.636  0.4298 -0.1009  0.1272
49996SOL     OW54672  11.312   7.857   9.646  0.5882 -0.0839  0.3945
49996SOL    HW154673  11.400   7.880   9.677  1.2098 -2.0710  0.2157
49996SOL    HW254674  11.327   7.808   9.565 -0.5759 -1.8365  1.1812
49997SOL     OW54675   1.499   2.040   7.661  0.6518 -0.5856 -0.2512
49997SOL    HW154676   1.579   2.024   7.710 -0.3400  0.4089  1.7960
49997SOL    HW254677   1.459   1.954   7.651  0.9490 -0.8250  0.5640
49998SOL     OW54678   7.216   1.308   8.610 -0.7404  0.0093  0.0399
49998SOL    HW154679   7.164   1.233   8.636  0.6436 -0.7750  0.6791
49998SOL    HW254680   7.234   1.355   8.691  0.1955 -0.1857 -0.0410
49999SOL     OW54681   3.280   2.828   2.535 -0.0319  0.6953  0.1415
49999SOL    HW154682   3.234   2.912   2.533 -0.6718  0.3606  0.5347
49999SOL    HW254683   3.368   2.850   2.564  0.1555  1.3817 -0.8864
50000SOL     OW54684   8.592   5.989   0.738 -0.2968  0.0385  0.3523
50000SOL    HW154685   8.499   5.988   0.715 -0.1817  0.0896 -0.1458
50000SOL    HW254686   8.610   5.900   0.767 -0.6987  0.2574  1.3033
50001SOL     OW54687   6.348  10.742   5.290  0.2628 -0.7363 -0.0473
50001SOL    HW154688   6.332  10.650   5.310  2.0487 -0.5285  2.8039
50001SOL    HW254689   6.443  10.747   5.276  0.2337  0.7160  0.1635
50002SOL     OW54690   2.012   0.752   5.987 -0.2593  0.7194 -0.0084
50002SOL    HW154691   2.006   0.669   5.941 -0.0011  0.4944  0.3561
50002SOL    HW254692   1.924   0.767   6.022  0.1847 -0.5303  1.8425
50003SOL     OW54693   7.746  11.107  10.834  0.0029  0.4848 -0.3764
50003SOL    HW154694   7.763  11.014  10.848 -0.5415  0.4067 -0.2114
50003SOL    HW254695   7.809  11.151  10.891 -1.7994  0.1654  2.0385
50004SOL     OW54696   4.662   5.343   3.142  0.4106  0.1497 -0.2323
50004SOL    HW154697   4.727   5.407   3.113  0.0894 -0.1289 -1.6489
50004SOL    HW254698   4.604   5.333   3.067 -1.3775  0.5013  1.0419
50005SOL     OW54699   5.249   0.280   9.949 -0.2402 -0.2615 -0.0215
50005SOL    HW154700   5.294   0.197   9.939  1.5425  0.7383 -0.7071
50005SOL    HW254701   5.195   0.269  10.027  0.9068 -1.6343  0.6209
50006SOL     OW54702   8.332   3.181   6.435  0.3232 -1.0056  0.6309
50006SOL    HW154703   8.290   3.247   6.379  0.1150 -0.2331  1.6659
50006SOL    HW254704   8.411   3.225   6.467 -0.6361 -0.6323  2.6178
50007SOL     OW54705   9.741  10.245  11.042  0.3264  0.7095 -0.4482
50007SOL    HW154706   9.679  10.255  10.970  0.8219  0.2851 -0.9458
50007SOL    HW254707   9.787  10.330  11.045 -0.4880  1.1341  0.1308
50008SOL     OW54708   4.694  10.729   6.997  0.2198 -0.1202 -0.0693
50008SOL    HW154709   4.633  10.728   7.071  0.0222 -2.1709 -0.2090
50008SOL    HW254710   4.669  10.653   6.945  0.9153  0.7925 -1.8064
50009SOL     OW54711  11.547   9.686   5.186 -0.0135 -0.7777 -0.6658
50009SOL    HW154712  11.521   9.769   5.226  0.9847  0.3959 -2.3327
50009SOL    HW254713  11.547   9.623   5.259  2.1288  1.3057  1.2843
50010SOL     OW54714   0.125  11.689   4.013  0.1216 -0.1516  0.3671
50010SOL    HW154715   0.198  11.635   4.043  1.8259  1.6722 -0.2259
50010SOL    HW254716   0.133  11.688   3.917 -0.7452 -0.0705  0.2913
50011SOL     OW54717   1.025   3.948   7.454  0.3456  0.1250 -0.1019
50011SOL    HW154718   1.084   3.996   7.512  1.2471 -0.7632 -0.2413
50011SOL    HW254719   0.976   3.889   7.512 -0.4983  0.9427  0.0274
50012SOL     OW54720   5.181   0.209   3.360  0.5306  0.1541 -0.1145
50012SOL    HW154721   5.194   0.122   3.324  0.1797  0.3807 -0.8147
50012SOL    HW254722   5.267   0.235   3.393  0.3989 -0.8893  1.1202
50013SOL     OW54723   5.801   6.624   8.850 -0.1083 -0.3541 -0.2503
50013SOL    HW154724   5.763   6.701   8.808  0.7697 -0.3919 -1.1331
50013SOL    HW254725   5.893   6.646   8.864 -0.0654 -0.8822  0.3867
50014SOL     OW54726   5.561   5.014  10.287  0.3859 -0.0794 -0.0463
50014SOL    HW154727   5.526   5.053  10.367  0.9863  1.1287 -0.3467
50014SOL    HW254728   5.601   4.932  10.315 -0.9255 -0.5219  0.6021
50015SOL     OW54729  11.563   8.239   8.309  0.1270  0.1095  0.0409
50015SOL    HW154730  11.553   8.177   8.382 -2.0187  0.0401 -0.2446
50015SOL    HW254731  11.559   8.325   8.351 -1.1902  0.0710  0.0494
50016SOL     OW54732   1.628   6.965   1.352 -0.2629  0.7968 -0.1611
50016SOL    HW154733   1.681   6.898   1.310  0.4881  0.9910  0.4545
50016SOL    HW254734   1.641   6.952   1.446 -1.5640  0.6485  0.0254
50017SOL     OW54735   8.375   9.771  10.216  0.2706  0.2580  0.4414
50017SOL    HW154736   8.408   9.830  10.149 -0.3262  2.1114  1.6664
50017SOL    HW254737   8.444   9.706  10.228  1.2908  1.1318 -0.4805
50018SOL     OW54738   7.495   2.268   7.032 -0.0821 -0.3234  0.0482
50018SOL    HW154739   7.438   2.206   6.987 -1.1683  1.4724 -1.1933
50018SOL    HW254740   7.438   2.342   7.053  1.4040  0.7798  0.3590
50019SOL     OW54741   9.183   2.902   3.670  0.5076  0.0560  0.2684
50019SOL    HW154742   9.209   2.810   3.664 -0.0035 -0.0984  0.3249
50019SOL    HW254743   9.089   2.899   3.692  0.5576  0.5890  0.5785
50020SOL     OW54744   1.637   9.343   5.777  0.2467  0.0671 -0.9804
50020SOL    HW154745   1.641   9.324   5.871 -0.8729 -0.5931 -1.0466
50020SOL    HW254746   1.694   9.418   5.765  0.4714  0.1042  0.2203
50021SOL     OW54747   9.478  10.973   1.047  0.3919 -0.0476 -0.3127
50021SOL    HW154748   9.389  10.937   1.053  0.4805 -0.0667  1.6858
50021SOL    HW254749   9.471  11.046   0.985 -1.4011  0.9883  1.0205
50022SOL     OW54750  11.167   5.757   7.131 -0.4910  0.4936  0.1575
50022SOL    HW154751  11.167   5.696   7.057 -2.8401 -0.7344  1.0747
50022SOL    HW254752  11.099   5.724   7.189 -0.3141  2.7624  1.7743
50023SOL     OW54753   5.108   1.875   3.301  0.5061  0.5232  0.3003
50023SOL    HW154754   5.036   1.811   3.293  0.4067  0.4861  1.4141
50023SOL    HW254755   5.110   1.919   3.216  0.1850 -0.5530 -0.2817
50024SOL     OW54756   9.848   4.524  10.988 -0.7690  0.3014  0.1255
50024SOL    HW154757   9.763   4.500  11.025  0.4132 -3.2881  0.8435
50024SOL    HW254758   9.835   4.517  10.893 -1.4106  0.4853  0.1913
50025SOL     OW54759   6.366   3.437   7.948 -0.7143  0.1088 -0.2925
50025SOL    HW154760   6.459   3.445   7.969 -0.6693 -0.5922 -0.2260
50025SOL    HW254761   6.336   3.361   7.997 -0.9980 -0.5352 -1.4280
50026SOL     OW54762   4.908   4.593   2.736 -0.0517  0.5440  0.3275
50026SOL    HW154763   4.846   4.524   2.762  0.3262 -0.1655 -0.6155
50026SOL    HW254764   4.980   4.584   2.799  0.0462 -0.0048  0.1480
50027SOL     OW54765   5.544  10.479   9.287  0.2692 -0.3350 -0.4878
50027SOL    HW154766   5.566  10.503   9.197  0.0264 -0.5141 -0.5948
50027SOL    HW254767   5.458  10.437   9.280  0.9139 -1.7173 -0.3649
50028SOL     OW54768  10.859   9.480   7.579 -0.3081 -0.2697 -0.4490
50028SOL    HW154769  10.871   9.412   7.514  1.4703  1.4036 -2.0092
50028SOL    HW254770  10.766   9.477   7.601 -0.3619 -2.8548 -0.7477
50029SOL     OW54771   1.810  11.801   7.077  0.1023 -0.4370  0.0629
50029SOL    HW154772   1.744  11.854   7.123  0.9602  3.4318 -2.6427
50029SOL    HW254773   1.784  11.803   6.985  3.5468  0.8368 -1.0684
50030SOL     OW54774   7.463  10.494   2.400  0.3429  0.1076 -0.2154
50030SOL    HW154775   7.516  10.418   2.376  1.7291  0.2719  2.0704
50030SOL    HW254776   7.443  10.481   2.493 -0.7281  1.7821 -0.1748
50031SOL     OW54777   4.999   8.189   1.046 -0.2795 -0.3245 -0.0848
50031SOL    HW154778   5.038   8.277   1.050 -3.3423  1.2203 -0.6436
50031SOL    HW254779   4.996   8.160   1.137  1.6144 -0.2927  0.0132
50032SOL     OW54780   8.459   3.476   5.749 -0.0389  0.4188 -0.1825
50032SOL    HW154781   8.382   3.470   5.805  0.2337 -1.8493  0.0732
50032SOL    HW254782   8.425   3.492   5.661 -0.9698 -1.9545 -0.3155
50033SOL     OW54783   8.764  10.013   5.579  0.2096  0.5809  0.0865
50033SOL    HW154784   8.842  10.009   5.635  0.5274  0.7130 -0.3514
50033SOL    HW254785   8.774  10.093   5.529 -0.8415  1.2765  0.9462
50034SOL     OW54786  10.066  11.971   6.487  0.1939  0.1225 -0.1527
50034SOL    HW154787  10.080  11.976   6.393  1.1032  0.1264 -0.0303
50034SOL    HW254788  10.105  11.887   6.513  0.3040  0.3021  0.2720
50035SOL     OW54789   3.144   8.791   2.943 -0.4529 -0.1500 -0.4604
50035SOL    HW154790   3.225   8.743   2.961 -1.0380 -0.3871  1.8954
50035SOL    HW254791   3.165   8.881   2.968 -1.7678 -0.7695  3.5140
50036SOL     OW54792   4.699   4.994  11.653 -1.0003  0.1825 -0.5232
50036SOL    HW154793   4.730   5.077  11.618 -0.8078 -0.4204 -1.8268
50036SOL    HW254794   4.766   4.968  11.716 -1.6471  1.5657  0.8040
50037SOL     OW54795   6.633  10.461   5.913  0.5409  0.4473  0.2784
50037SOL    HW154796   6.689  10.507   5.850  1.9504  0.1129  1.2287
50037SOL    HW254797   6.690  10.394   5.950 -1.0230 -1.0966  0.0258
50038SOL     OW54798   1.663   8.485   9.855  0.3947  0.1968 -0.2496
50038SOL    HW154799   1.677   8.566   9.805  0.9843 -0.4339 -1.1273
50038SOL    HW254800   1.741   8.479   9.911  0.2474  0.3440 -0.0267
50039SOL     OW54801   9.559   3.097   7.766 -0.7326  0.0777 -0.0195
50039SOL    HW154802   9.494   3.158   7.731  1.7027  2.1028 -1.4050
50039SOL    HW254803   9.560   3.025   7.703 -0.7053  0.7183 -0.7788
50040SOL     OW54804   9.350   2.187   4.993 -0.1396 -0.2662  0.1747
50040SOL    HW154805   9.398   2.184   5.076  1.1226  2.3231 -0.3657
50040SOL    HW254806   9.414   2.161   4.927  0.0059  1.3062 -0.3444
50041SOL     OW54807   7.530   3.554   7.605 -0.1635  0.0935 -0.3135
50041SOL    HW154808   7.580   3.521   7.680  1.3099  0.4790 -1.0832
50041SOL    HW254809   7.439   3.532   7.625  0.2783 -0.4526  1.2416
50042SOL     OW54810  10.203   4.559  10.635  0.0689 -0.1682 -0.3036
50042SOL    HW154811  10.161   4.576  10.550  1.3832  0.9548 -0.7749
50042SOL    HW254812  10.178   4.470  10.657 -0.5784 -0.3671 -1.7203
50043SOL     OW54813   9.190   1.990   5.362 -0.2279 -0.5463 -0.6912
50043SOL    HW154814   9.116   1.969   5.306 -0.1216 -0.5003 -0.8496
50043SOL    HW254815   9.156   2.052   5.426 -0.7056 -1.6580  0.1618
50044SOL     OW54816   2.527  10.382   2.527 -0.3759 -0.4782  0.0033
50044SOL    HW154817   2.505  10.441   2.599  1.8666 -0.1887  0.5128
50044SOL    HW254818   2.449  10.383   2.471 -1.1821  1.3321  1.0740
50045SOL     OW54819  11.665  11.317   9.736 -0.0785 -0.2547 -0.2980
50045SOL    HW154820  11.666  11.411   9.720 -2.2629 -0.3545 -1.3758
50045SOL    HW254821  11.618  11.308   9.819  1.8770 -0.3325  0.8501
50046SOL     OW54822   0.407   2.362  10.478  0.4594  0.2750  0.8064
50046SOL    HW154823   0.497   2.369  10.512 -0.0094  0.8893  1.9616
50046SOL    HW254824   0.352   2.387  10.551 -0.7383 -1.3363  0.4989
50047SOL     OW54825   9.489   1.661   5.185 -0.0197 -0.0606  0.3950
50047SOL    HW154826   9.468   1.727   5.119  1.4084 -0.7915 -0.8460
50047SOL    HW254827   9.440   1.689   5.263  0.3994  2.3574 -0.1170
50048SOL     OW54828   5.897   8.688   4.504  0.0166  0.3039  0.4308
50048SOL    HW154829   5.874   8.773   4.544  0.6577  0.7854 -0.2131
50048SOL    HW254830   5.941   8.711   4.423  1.2927 -0.6350  0.8332
50049SOL     OW54831   0.874  11.634   0.116  0.3601 -0.2783 -0.2748
50049SOL    HW154832   0.904  11.544   0.115  1.4546  0.0646 -0.0882
50049SOL    HW254833   0.952  11.685   0.140 -0.5769  0.5796  1.0922
50050SOL     OW54834  10.706   3.343   1.479  0.7186  0.5155 -0.2500
50050SOL    HW154835  10.742   3.422   1.438  0.1632  0.7812 -0.2328
50050SOL    HW254836  10.621   3.330   1.436  0.3992  0.4476  0.3839
50051SOL     OW54837   0.259   1.924   4.065 -0.1964 -0.3040  0.2403
50051SOL    HW154838   0.250   1.828   4.070  0.1992 -0.3633 -0.1451
50051SOL    HW254839   0.311   1.948   4.141 -0.4933 -0.3695  0.4655
50052SOL     OW54840   6.334   6.111  10.467  0.1271 -0.3563 -0.5236
50052SOL    HW154841   6.322   6.108  10.562  0.2355  0.3293 -0.4851
50052SOL    HW254842   6.392   6.038  10.448 -2.1521 -2.3031 -0.4219
50053SOL     OW54843   4.338   0.588   3.044 -0.0784  0.5859 -0.1798
50053SOL    HW154844   4.375   0.625   3.124 -0.8744  1.0665 -0.0223
50053SOL    HW254845   4.392   0.623   2.974  0.7554 -0.0028  0.1511
50054SOL     OW54846   6.030   9.075   7.372  0.3185  0.5080 -0.8620
50054SOL    HW154847   5.973   9.126   7.314  0.9161  0.0490 -1.8995
50054SOL    HW254848   6.045   9.131   7.448 -2.1787  0.3117 -0.1542
50055SOL     OW54849   2.335   0.662   4.159  0.2769 -0.6247 -0.3655
50055SOL    HW154850   2.270   0.728   4.136  1.0702 -0.4490 -2.2297
50055SOL    HW254851   2.397   0.662   4.087  1.8467 -1.4666  0.9148
50056SOL     OW54852   8.348   4.688   6.455  0.1090  0.3262  0.2908
50056SOL    HW154853   8.424   4.656   6.504  0.7774  0.7435 -0.4737
50056SOL    HW254854   8.276   4.632   6.485  1.0720 -1.3308 -0.3450
50057SOL     OW54855   8.837   2.658   0.020  0.7500  0.1394 -0.0648
50057SOL    HW154856   8.919   2.633   0.064 -0.5799  1.3823  3.4394
50057SOL    HW254857   8.843   2.753   0.011 -1.3411  0.6791  2.9107
50058SOL     OW54858   9.436   4.036   2.078  0.3009 -0.1270 -0.3924
50058SOL    HW154859   9.515   3.990   2.104 -0.4512 -0.4434  1.4839
50058SOL    HW254860   9.468   4.117   2.037  1.5990 -0.1746  0.4613
50059SOL     OW54861   7.920   1.149   9.198  0.2799  0.5522  0.9867
50059SOL    HW154862   7.984   1.084   9.226 -0.7047 -1.3075 -0.7624
50059SOL    HW254863   7.964   1.199   9.129 -0.1053 -0.8031 -0.2991
50060SOL     OW54864   9.168   7.264  11.560  0.3587  0.3140 -0.1255
50060SOL    HW154865   9.073   7.263  11.550  0.5106  1.3350 -2.1078
50060SOL    HW254866   9.188   7.180  11.601 -1.5272  0.8757  2.2064
50061SOL     OW54867   6.580   0.152   3.310  0.3973  0.3695 -0.2566
50061SOL    HW154868   6.636   0.226   3.335  0.3927  0.1325  0.5010
50061SOL    HW254869   6.500   0.192   3.276  0.5276  0.7125 -0.1629
50062SOL     OW54870   4.382   7.974   8.210 -0.1390  0.1427  0.4240
50062SOL    HW154871   4.411   8.051   8.162 -0.1564 -0.1082  0.0068
50062SOL    HW254872   4.295   7.997   8.242 -0.3451  0.1184 -0.1140
50063SOL     OW54873  11.509   0.816   8.817 -0.3352  0.4687 -0.2869
50063SOL    HW154874  11.434   0.757   8.811  1.3539 -1.8566 -0.2513
50063SOL    HW254875  11.540   0.824   8.726  0.4031 -0.0868 -0.0971
50064SOL     OW54876   4.113   8.118   6.807  0.7984  0.3906  0.0430
50064SOL    HW154877   4.151   8.094   6.891 -1.7719  0.5189  1.3534
50064SOL    HW254878   4.106   8.213   6.810 -1.1821  0.2709  0.6444
50065SOL     OW54879   4.325   6.529   4.099 -0.5505 -0.0510 -0.0555
50065SOL    HW154880   4.321   6.434   4.116 -5.7872  0.0053  0.9578
50065SOL    HW254881   4.342   6.535   4.005  0.4345 -1.9384 -0.0613
50066SOL     OW54882   1.598  11.030   4.923  0.6552  0.2310  0.3634
50066SOL    HW154883   1.673  11.071   4.879  0.5077 -1.1807 -1.3009
50066SOL    HW254884   1.521  11.066   4.879  0.4607 -0.3196  0.2406
50067SOL     OW54885   0.288   2.020  10.563  0.1624 -0.3141 -0.2943
50067SOL    HW154886   0.250   1.934  10.543  1.7675 -0.6932 -2.0629
50067SOL    HW254887   0.365   2.025  10.507 -0.1053  2.4737 -0.5414
50068SOL     OW54888   3.406   3.645   7.346  0.3884 -0.7499 -0.0584
50068SOL    HW154889   3.354   3.568   7.325  2.4203 -2.7321  1.7292
50068SOL    HW254890   3.418   3.641   7.441  1.1740  1.3837 -0.0134
50069SOL     OW54891  11.671   3.790  11.063  0.2213 -0.2042  0.5793
50069SOL    HW154892  11.630   3.796  10.977 -0.2516 -1.5898  0.6768
50069SOL    HW254893  11.705   3.700  11.067  0.1283 -0.2041  1.8713
50070SOL     OW54894   1.896   2.669   9.844  0.4753 -0.0124 -0.8820
50070SOL    HW154895   1.884   2.590   9.792  0.2767 -0.2237 -0.5185
50070SOL    HW254896   1.840   2.656   9.921  0.2276  0.5995 -0.9560
50071SOL     OW54897  11.833   4.035   8.432 -0.5378 -0.7392 -0.4112
50071SOL    HW154898  11.915   4.005   8.392  0.2818  0.4490  0.3170
50071SOL    HW254899  11.766   4.015   8.366  0.3928 -1.3119 -1.2191
50072SOL     OW54900  11.710   8.772   7.312  0.1971 -0.2074  0.1710
50072SOL    HW154901  11.621   8.788   7.344  0.3590 -1.0931  1.1007
50072SOL    HW254902  11.765   8.776   7.390  1.2721  2.1763 -0.6244
50073SOL     OW54903   4.804   3.672   5.408 -0.3859 -0.1057  0.5532
50073SOL    HW154904   4.785   3.700   5.497  0.3779  0.9754  0.3935
50073SOL    HW254905   4.899   3.663   5.405 -0.1722  1.8165 -0.6573
50074SOL     OW54906   2.325   1.860   7.369  0.2440  0.1558 -0.2206
50074SOL    HW154907   2.396   1.914   7.333  0.9751  0.4735  1.5664
50074SOL    HW254908   2.367   1.777   7.392  0.3889  0.7803  1.9930
50075SOL     OW54909   6.743   9.388   2.285 -0.0223  0.1162 -0.2438
50075SOL    HW154910   6.704   9.363   2.202 -0.2084  0.3570 -0.2335
50075SOL    HW254911   6.678   9.448   2.324 -1.2434 -2.0634  1.3149
50076SOL     OW54912   9.975   8.557   0.042  0.4629  0.1872  0.5139
50076SOL    HW154913   9.994   8.645   0.072  1.1577  0.0968  0.3569
50076SOL    HW254914   9.951   8.567  -0.050  2.4319  0.0334 -0.0708
50077SOL     OW54915   6.004  10.683   0.927  0.5226  0.1618  0.1394
50077SOL    HW154916   6.058  10.643   0.995  0.8660  1.1486  0.4611
50077SOL    HW254917   5.937  10.731   0.975 -0.8989 -1.3362 -0.2583
50078SOL     OW54918   4.456  10.900   0.740  0.7415 -0.3537  0.2903
50078SOL    HW154919   4.513  10.874   0.667 -0.5334 -1.3422 -0.3914
50078SOL    HW254920   4.368  10.885   0.707 -0.0730  3.0520  0.5697
50079SOL     OW54921  10.802   3.755   7.902  0.1559  0.4904 -0.1644
50079SOL    HW154922  10.798   3.839   7.947 -0.9303  0.9259 -1.0124
50079SOL    HW254923  10.772   3.774   7.813 -1.9756 -1.0972  0.1213
50080SOL     OW54924   1.088   6.089   3.734 -1.0739 -0.0063  0.2051
50080SOL    HW154925   1.133   6.107   3.651 -1.3733 -0.0572  0.0268
50080SOL    HW254926   1.052   6.174   3.760  1.8389  0.7819  2.0374
50081SOL     OW54927  10.522   8.596   5.408 -0.5189 -0.4408  0.3626
50081SOL    HW154928  10.537   8.670   5.349 -0.3032 -0.8132 -0.0592
50081SOL    HW254929  10.445   8.621   5.459 -0.9244 -0.2621 -0.3230
50082SOL     OW54930   3.414   8.974  10.063 -0.1279  0.5304  0.2676
50082SOL    HW154931   3.393   9.023  10.143 -0.0725  0.5778  0.2538
50082SOL    HW254932   3.509   8.986  10.052 -0.0348  0.0287  0.5207
50083SOL     OW54933  11.183   7.636   1.534  0.1670 -0.1448  0.3808
50083SOL    HW154934  11.266   7.643   1.582  0.3439  0.6132 -0.0278
50083SOL    HW254935  11.167   7.724   1.500 -0.0032 -0.6425 -0.8800
50084SOL     OW54936  11.885   1.153   5.140 -0.3735  0.6020  0.2949
50084SOL    HW154937  11.909   1.159   5.048 -0.4078 -0.4678  0.2146
50084SOL    HW254938  11.955   1.200   5.186 -0.9399  2.1465 -0.3403
50085SOL     OW54939   1.074   9.632  10.369  0.1119 -0.1067  0.0435
50085SOL    HW154940   1.080   9.725  10.346  2.1179  0.0812  1.0091
50085SOL    HW254941   1.063   9.586  10.286 -1.5239  1.0155 -0.3900
50086SOL     OW54942   7.101   1.545   3.676  0.8783  0.1125 -0.3797
50086SOL    HW154943   7.038   1.474   3.690  0.0102  1.1478  1.2064
50086SOL    HW254944   7.063   1.595   3.603 -1.6033  2.1639  2.1040
50087SOL     OW54945  11.994   1.597   5.793 -0.2390  0.1098  0.0120
50087SOL    HW154946  11.977   1.504   5.809 -1.4847  0.3131 -0.0255
50087SOL    HW254947  11.934   1.620   5.722  1.6235  0.4275 -1.5235
50088SOL     OW54948   1.794   0.996   8.868  0.5558 -0.5872 -0.2218
50088SOL    HW154949   1.780   0.918   8.921 -0.7542 -0.7324 -0.7213
50088SOL    HW254950   1.749   0.976   8.785  1.2878  0.2028 -0.8214
50089SOL     OW54951   2.452   0.794  10.293 -0.2002  0.2173  0.1403
50089SOL    HW154952   2.376   0.850  10.276 -1.8240 -1.1596  2.2907
50089SOL    HW254953   2.498   0.837  10.364  0.8846  0.8497 -0.9077
50090SOL     OW54954   9.585   8.173   6.143 -0.3325 -0.3171 -0.5640
50090SOL    HW154955   9.640   8.246   6.113 -1.6947  0.2601 -1.8378
50090SOL    HW254956   9.640   8.095   6.133  1.1236  0.4996  0.7324
50091SOL     OW54957   3.960   8.516   8.081 -1.1689 -0.0213  0.3322
50091SOL    HW154958   3.948   8.608   8.103  0.0935 -0.1912  1.9258
50091SOL    HW254959   4.012   8.517   8.001 -2.6107  0.6361 -0.6232
50092SOL     OW54960   4.333   3.774   6.398 -0.1730  0.0011 -0.2491
50092SOL    HW154961   4.266   3.714   6.431  0.4287 -1.4285 -1.5091
50092SOL    HW254962   4.397   3.780   6.468 -0.7687  0.0416  0.3052
50093SOL     OW54963  11.464   2.961   6.523 -0.4839  0.0695  0.1781
50093SOL    HW154964  11.494   2.872   6.506 -1.4752 -0.4982  1.2756
50093SOL    HW254965  11.522   3.017   6.471 -0.0785 -1.2326 -0.7920
50094SOL     OW54966  10.336   8.611   1.713 -0.6507 -0.5710 -0.1427
50094SOL    HW154967  10.308   8.697   1.681 -2.0250 -1.4555 -1.4834
50094SOL    HW254968  10.294   8.602   1.798 -0.6760 -0.0041 -0.0910
50095SOL     OW54969   8.947   7.106   3.991  0.2193  0.5890 -0.4739
50095SOL    HW154970   8.965   7.200   3.993  1.5700  0.3380  0.2375
50095SOL    HW254971   8.852   7.100   3.981  0.2749  2.0113 -2.5391
50096SOL     OW54972   0.926   3.434   9.848  0.4103  0.0583 -0.5837
50096SOL    HW154973   0.966   3.483   9.920 -0.0613 -0.5822  0.1357
50096SOL    HW254974   0.840   3.475   9.836  0.3033 -0.1259 -0.4604
50097SOL     OW54975   9.905   6.397   2.808 -0.0872 -0.2108 -0.6831
50097SOL    HW154976   9.823   6.387   2.759  0.0682 -0.1779 -0.9537
50097SOL    HW254977   9.939   6.482   2.779  0.0230 -0.2052 -0.5365
50098SOL     OW54978   8.908   4.005   0.160  0.2521  0.2525  0.4749
50098SOL    HW154979   8.983   4.064   0.168  1.7336 -1.5662  0.6628
50098SOL    HW254980   8.893   3.974   0.250 -1.9050  1.8901  0.7620
50099SOL     OW54981   9.754   2.499   3.484 -0.3017  0.5421 -0.2361
50099SOL    HW154982   9.679   2.441   3.467  0.1832  0.4857 -2.5456
50099SOL    HW254983   9.810   2.449   3.544 -1.2813 -0.1426  0.1370
50100SOL     OW54984   5.933   3.286   1.289 -0.0911  0.2107  0.1937
50100SOL    HW154985   5.871   3.230   1.243  0.2802 -0.3864  0.4028
50100SOL    HW254986   6.011   3.285   1.233  0.2436 -0.2471  0.6546
50101SOL     OW54987   7.258   2.295   4.350 -0.2775  0.7072 -0.1227
50101SOL    HW154988   7.247   2.356   4.423 -1.1417  0.5624 -0.1253
50101SOL    HW254989   7.293   2.215   4.389  0.2725  0.9854 -0.0314
50102SOL     OW54990   6.570   1.069   5.109 -0.3291 -0.8852  0.2982
50102SOL    HW154991   6.505   1.137   5.093 -0.9528 -0.9787  2.1813
50102SOL    HW254992   6.643   1.115   5.150 -1.0565 -1.3855  2.2748
50103SOL     OW54993   5.556   0.715  10.803 -0.4864 -0.2427 -0.0237
50103SOL    HW154994   5.508   0.632  10.801  1.8067 -1.6657  0.0498
50103SOL    HW254995   5.575   0.733  10.711 -0.6538 -0.0066 -0.0117
50104SOL     OW54996   6.891   3.172   9.850  0.2247  0.0583  0.2660
50104SOL    HW154997   6.974   3.217   9.840 -0.1349  0.7368  0.2487
50104SOL    HW254998   6.826   3.242   9.851 -0.4020 -0.4912 -0.3495
50105SOL     OW54999   8.467   7.385   7.061  0.0163  0.1777  0.2305
50105SOL    HW155000   8.536   7.393   7.127 -0.5561 -0.7029  0.9582
50105SOL    HW255001   8.494   7.311   7.007 -0.8680 -0.9111  1.2060
50106SOL     OW55002   5.737   1.308  10.995  0.1025  0.3451  0.1729
50106SOL    HW155003   5.803   1.368  10.960 -1.1351  1.3023 -0.6034
50106SOL    HW255004   5.743   1.319  11.090  2.1708 -0.8319  0.2340
50107SOL     OW55005  11.233   3.006  11.047  0.6014  0.7714  0.6349
50107SOL    HW155006  11.209   3.094  11.075 -0.4706  0.6967  0.0050
50107SOL    HW255007  11.150   2.958  11.043  0.8899  0.3373 -1.0716
50108SOL     OW55008  10.054   4.266   3.675  0.5603 -0.0772 -0.3431
50108SOL    HW155009   9.972   4.222   3.697  2.0051 -2.4854  0.6020
50108SOL    HW255010  10.038   4.305   3.589 -0.9706 -2.2064 -1.1176
50109SOL     OW55011   7.191   3.342   3.559  0.2385  0.3224 -0.2633
50109SOL    HW155012   7.120   3.397   3.590  0.4815 -0.4268  1.7364
50109SOL    HW255013   7.156   3.253   3.563 -0.0615  0.1909 -3.1882
50110SOL     OW55014   8.403  11.457   0.070  0.2402  0.4828 -0.3194
50110SOL    HW155015   8.413  11.530   0.009 -0.8719  1.0908  0.2147
50110SOL    HW255016   8.355  11.391   0.020  1.8725 -0.2106 -1.0437
50111SOL     OW55017   5.426   5.856   7.684  0.2089 -0.5577 -0.2947
50111SOL    HW155018   5.357   5.807   7.641  0.3813 -2.3006  1.2962
50111SOL    HW255019   5.500   5.853   7.623 -0.6225  0.0764 -1.3684
50112SOL     OW55020   3.065   6.262   5.396  0.2099  0.2369 -0.2943
50112SOL    HW155021   3.137   6.324   5.383  0.1945 -0.0446 -1.9127
50112SOL    HW255022   2.989   6.304   5.356 -0.7054  0.7824  1.8981
50113SOL     OW55023   0.013   7.135   2.795  0.5547 -0.7805  0.0040
50113SOL    HW155024   0.057   7.078   2.859  1.0773 -0.1241  0.2502
50113SOL    HW255025  -0.068   7.160   2.839  2.2618  2.1699  1.8485
50114SOL     OW55026   9.602  10.501   5.260 -0.1193 -0.1108  0.8639
50114SOL    HW155027   9.593  10.417   5.214 -2.4840 -0.0570  1.1316
50114SOL    HW255028   9.666  10.483   5.330  0.7872 -1.1628 -0.1891
50115SOL     OW55029   0.523   1.094  11.832 -0.3665  0.0201  0.0617
50115SOL    HW155030   0.596   1.032  11.832  0.3024  0.7187 -2.5352
50115SOL    HW255031   0.458   1.055  11.774 -1.2962  0.3181  0.8689
50116SOL     OW55032   9.524   9.851   1.863  0.6693 -0.1541 -0.7592
50116SOL    HW155033   9.514   9.862   1.768  1.2942 -0.1960 -0.8292
50116SOL    HW255034   9.485   9.930   1.900  0.9610  0.1427 -1.0767
50117SOL     OW55035   9.612   1.260   7.741 -0.8682 -0.0360 -0.6433
50117SOL    HW155036   9.647   1.216   7.819  0.0145 -0.7625 -1.4205
50117SOL    HW255037   9.660   1.342   7.736  0.2552 -0.7121 -1.3057
50118SOL     OW55038   2.836  11.562   0.989  0.0600  0.1780  0.0473
50118SOL    HW155039   2.853  11.618   0.912  0.1504 -0.8465 -0.7073
50118SOL    HW255040   2.804  11.622   1.056 -0.7871  0.9953 -1.0434
50119SOL     OW55041   8.132   8.491  11.952  0.4336 -0.2450 -0.1274
50119SOL    HW155042   8.119   8.439  12.032  1.6268 -1.1911 -0.5196
50119SOL    HW255043   8.195   8.440  11.901 -0.7463  0.0448 -1.9537
50120SOL     OW55044   6.868   4.845   9.998 -0.3116 -0.4700  0.2936
50120SOL    HW155045   6.856   4.795  10.079 -0.0628 -1.3037 -0.1754
50120SOL    HW255046   6.866   4.779   9.929  1.5542 -0.0237 -0.2352
50121SOL     OW55047  11.082   0.815   7.635  0.3061  0.0421  0.3708
50121SOL    HW155048  11.073   0.831   7.729 -0.5591 -1.7983  0.6425
50121SOL    HW255049  11.023   0.742   7.618  2.2158 -1.2627 -1.1375
50122SOL     OW55050   1.229   4.845   2.913 -0.0884 -0.0574 -0.1506
50122SOL    HW155051   1.297   4.893   2.866 -1.2340  1.4193 -0.3565
50122SOL    HW255052   1.194   4.908   2.976 -0.6372 -1.0791  0.5954
50123SOL     OW55053   6.026   8.483   1.069  0.6766 -0.0590 -0.2991
50123SOL    HW155054   6.094   8.515   1.128  0.0675  1.5363 -0.4152
50123SOL    HW255055   6.056   8.396   1.042  0.5491 -1.2687  3.0248
50124SOL     OW55056   0.098   5.712   4.289  0.2436  0.0643 -0.0754
50124SOL    HW155057   0.159   5.667   4.347 -0.9239 -0.9630  0.4122
50124SOL    HW255058   0.120   5.805   4.298  1.7007 -0.2761  0.0859
50125SOL     OW55059   7.647   1.154   6.368  0.0753  0.4752  0.4878
50125SOL    HW155060   7.598   1.232   6.338 -0.2354  0.6067  1.3158
50125SOL    HW255061   7.736   1.186   6.381 -0.4615  1.2602  2.8308
50126SOL     OW55062  10.997   7.328   1.617  0.3919 -0.5136 -0.3588
50126SOL    HW155063  11.066   7.350   1.680  0.7533  0.2546 -1.0095
50126SOL    HW255064  11.027   7.365   1.534 -0.9557  0.1182 -0.5911
50127SOL     OW55065   6.154  10.148   1.251 -0.8446 -0.4320 -0.2775
50127SOL    HW155066   6.210  10.224   1.237 -2.0486  0.4006 -0.8091
50127SOL    HW255067   6.155  10.102   1.167  2.6069 -3.0264  0.9588
50128SOL     OW55068   7.036   8.827   4.347  0.1795 -0.3546 -0.2739
50128SOL    HW155069   6.986   8.817   4.428 -0.7957 -3.3164 -1.1036
50128SOL    HW255070   7.119   8.782   4.365 -0.0012 -0.9348 -0.8419
50129SOL     OW55071   8.878  10.477  11.064 -0.3498  0.2283 -0.4054
50129SOL    HW155072   8.928  10.538  11.119 -0.0487 -0.1931 -0.2067
50129SOL    HW255073   8.834  10.533  11.000  1.2362  0.5183 -1.2863
50130SOL     OW55074   0.972   9.114  10.413 -0.2922  0.0452  0.3248
50130SOL    HW155075   0.941   9.203  10.430 -1.3191 -0.0241 -1.0172
50130SOL    HW255076   0.965   9.104  10.318 -0.4068 -1.5406  0.4699
50131SOL     OW55077  11.758   8.103   3.494 -0.0071  0.3659  0.2268
50131SOL    HW155078  11.811   8.027   3.519 -1.2522 -0.4214  0.5566
50131SOL    HW255079  11.670   8.081   3.524 -0.6108  1.4577 -0.6956
50132SOL     OW55080   9.723   3.558  10.798  1.0784  0.2978  0.4519
50132SOL    HW155081   9.807   3.579  10.758  0.7468 -2.2552 -1.8930
50132SOL    HW255082   9.741   3.482  10.854  0.3013 -0.8263 -0.7365
50133SOL     OW55083  11.738   0.569  11.470 -0.1388  0.1484 -0.2592
50133SOL    HW155084  11.649   0.566  11.435  0.1112  2.2092 -1.2281
50133SOL    HW255085  11.743   0.653  11.516  1.2842  0.0581 -0.2037
50134SOL     OW55086   4.717   8.253   3.328 -0.4588 -0.0128  0.3737
50134SOL    HW155087   4.739   8.175   3.378  1.5119  0.6972  0.7017
50134SOL    HW255088   4.676   8.312   3.391 -0.1952 -0.0495  0.5798
50135SOL     OW55089   4.874   7.008   9.416  0.0760 -0.1857 -0.1618
50135SOL    HW155090   4.886   6.924   9.460 -0.7751 -0.0868  0.2785
50135SOL    HW255091   4.780   7.025   9.421  0.2637  0.9033 -0.0352
50136SOL     OW55092   6.849   7.050   7.222  0.1241  0.0477  0.2192
50136SOL    HW155093   6.943   7.062   7.211  0.2613 -0.1284  1.1415
50136SOL    HW255094   6.823   7.117   7.285  0.0387 -1.2664  1.6498
50137SOL     OW55095   6.661   5.357   6.711 -0.6286 -0.4259 -0.4058
50137SOL    HW155096   6.620   5.271   6.708 -1.3813 -0.1207  0.5236
50137SOL    HW255097   6.695   5.371   6.623 -2.5945 -0.6849 -1.2649
50138SOL     OW55098   0.065   6.066   9.271 -0.4291 -0.2204  0.4832
50138SOL    HW155099  -0.018   6.055   9.224 -1.1459  1.3936  1.3106
50138SOL    HW255100   0.131   6.062   9.202 -1.3635  0.7071 -0.5237
50139SOL     OW55101   0.228   9.639  11.891 -0.1478  0.3547 -0.4391
50139SOL    HW155102   0.295   9.695  11.852  0.5499 -1.1573 -1.5458
50139SOL    HW255103   0.224   9.665  11.983  1.1420  1.2527 -0.6216
50140SOL     OW55104   9.181   4.400   2.898  0.1790 -0.4433  0.8904
50140SOL    HW155105   9.111   4.464   2.886  1.2078  0.6017  0.1812
50140SOL    HW255106   9.219   4.423   2.983 -0.0262 -0.7005  1.0529
50141SOL     OW55107   1.657   2.239   5.065 -0.1910  0.6407  0.3884
50141SOL    HW155108   1.703   2.236   4.981  0.1818  0.3783  0.5999
50141SOL    HW255109   1.593   2.168   5.060 -0.3644  0.8070  0.2170
50142SOL     OW55110   3.622   0.352  11.511 -0.4497 -0.3575 -0.6530
50142SOL    HW155111   3.678   0.275  11.504  1.7302  0.9627  0.8490
50142SOL    HW255112   3.596   0.372  11.421 -0.6353 -2.4931 -1.1165
50143SOL     OW55113   3.813   9.021  10.369  0.8438 -0.4845 -0.1953
50143SOL    HW155114   3.718   9.008  10.364  0.7818  0.4203 -2.0980
50143SOL    HW255115   3.825   9.077  10.447 -0.0421 -1.5377  0.7314
50144SOL     OW55116   1.460   0.133   3.881  0.0909 -0.1512 -0.1134
50144SOL    HW155117   1.542   0.164   3.843  0.4534 -0.1266  0.6798
50144SOL    HW255118   1.463   0.161   3.972 -0.9594  0.1537 -0.1557
50145SOL     OW55119   5.554   4.636   8.394  0.0092  0.5849 -0.1387
50145SOL    HW155120   5.489   4.645   8.464 -0.8610  0.5425 -0.9206
50145SOL    HW255121   5.527   4.558   8.346  0.9486  0.2684 -0.1651
50146SOL     OW55122  11.685   0.711   7.304  0.1450 -0.1876  0.4584
50146SOL    HW155123  11.610   0.710   7.363  0.0541 -1.2078  0.3526
50146SOL    HW255124  11.647   0.723   7.217  0.1632 -0.0060  0.4762
50147SOL     OW55125   6.088   2.298  10.952 -0.1108  0.4782  0.6631
50147SOL    HW155126   6.172   2.310  10.995  0.1854  2.2392 -0.3262
50147SOL    HW255127   6.026   2.348  11.005 -0.2006  0.6645  0.3828
50148SOL     OW55128  10.512   1.869   4.103 -0.0179 -0.4125  0.1889
50148SOL    HW155129  10.427   1.828   4.085 -1.1300  0.7461  2.4796
50148SOL    HW255130  10.562   1.855   4.022 -1.9925 -2.0330 -0.8562
50149SOL     OW55131   1.347   0.442   0.702  0.0182 -0.5073  0.6011
50149SOL    HW155132   1.266   0.467   0.658  0.2822 -0.6199  0.0474
50149SOL    HW255133   1.407   0.515   0.687 -0.3794  0.1636  2.1048
50150SOL     OW55134   3.895  10.813   8.799  0.8112 -0.1834 -0.4775
50150SOL    HW155135   3.873  10.783   8.711 -1.2364 -0.3373  0.0500
50150SOL    HW255136   3.926  10.735   8.845 -0.7393 -0.7077 -0.2766
50151SOL     OW55137   2.702   9.105   2.613  0.0823 -0.0921  0.5044
50151SOL    HW155138   2.769   9.038   2.602  0.1035  0.0521 -0.3182
50151SOL    HW255139   2.627   9.059   2.649  0.1841 -0.5084  0.1856
50152SOL     OW55140  11.283   8.531  11.511 -0.6118 -0.6414 -0.1718
50152SOL    HW155141  11.326   8.467  11.455 -1.9211 -1.6188 -0.0915
50152SOL    HW255142  11.355   8.573  11.559  0.2730 -2.0992 -0.1601
50153SOL     OW55143   0.623   0.979   1.362 -0.2329 -0.0235 -0.0420
50153SOL    HW155144   0.567   0.994   1.287  0.7043  1.7851 -0.4415
50153SOL    HW255145   0.631   1.065   1.404  2.1336 -0.1951  0.0293
50154SOL     OW55146   8.626   2.301   3.844  0.3931  0.0423  0.1626
50154SOL    HW155147   8.654   2.263   3.761  0.7428 -0.9791  0.7333
50154SOL    HW255148   8.535   2.274   3.854  0.0376  0.9833 -0.3306
50155SOL     OW55149   1.011   6.285   9.301  0.1901 -0.1127  0.1395
50155SOL    HW155150   1.074   6.327   9.241 -1.2995 -1.1227 -2.2910
50155SOL    HW255151   0.964   6.358   9.341  0.5032  0.6018 -0.7579
50156SOL     OW55152   9.927   8.038  11.095  0.3396 -0.2919  0.0809
50156SOL    HW155153   9.846   7.992  11.072 -0.3140  0.6478  0.4556
50156SOL    HW255154   9.997   7.975  11.074 -0.1912  0.1605 -3.6944
50157SOL     OW55155   1.554   0.324   2.668 -0.1083 -0.0512  0.2153
50157SOL    HW155156   1.583   0.355   2.583 -0.1355  1.2885  0.6729
50157SOL    HW255157   1.539   0.230   2.656 -0.8700  0.2456 -1.4564
50158SOL     OW55158   4.431   5.429  11.580  0.4849  0.1545  0.3199
50158SOL    HW155159   4.370   5.403  11.648 -0.1746  1.6354  0.3462
50158SOL    HW255160   4.425   5.361  11.514 -0.6307 -0.1113  0.6838
50159SOL     OW55161   4.180   8.624  10.228 -0.0989 -0.7051  0.6056
50159SOL    HW155162   4.135   8.669  10.157 -0.6096 -0.1901  1.2436
50159SOL    HW255163   4.229   8.693  10.273 -0.3819 -0.8816  1.2049
50160SOL     OW55164  10.093   0.803   2.299  0.1516  0.0055  0.0726
50160SOL    HW155165  10.149   0.777   2.371  0.7229 -0.8563 -0.6642
50160SOL    HW255166  10.105   0.735   2.233 -1.0548  0.2889 -0.4738
50161SOL     OW55167  10.189   8.327   1.343 -0.0168 -0.6815 -0.0754
50161SOL    HW155168  10.193   8.422   1.334  1.1444 -0.7795 -0.6469
50161SOL    HW255169  10.157   8.314   1.432  1.7402  0.2550  0.7471
50162SOL     OW55170  11.434   7.791   4.032  0.2749 -0.1749  0.0859
50162SOL    HW155171  11.511   7.816   4.084  0.1893 -0.4494  0.3498
50162SOL    HW255172  11.391   7.874   4.011  0.6123 -0.0241 -0.0181
50163SOL     OW55173   1.526   7.947   8.020 -0.3160  1.0650 -0.1688
50163SOL    HW155174   1.493   7.988   7.940 -1.3201 -0.8302 -0.7697
50163SOL    HW255175   1.450   7.904   8.059  1.0339 -2.3178 -0.8991
50164SOL     OW55176   9.261   1.744   2.534 -0.0310 -0.4569  0.3784
50164SOL    HW155177   9.204   1.818   2.555  0.5357  0.0473  0.1478
50164SOL    HW255178   9.350   1.779   2.542  0.2615 -1.2883  0.9361
50165SOL     OW55179   1.237   0.848   5.723 -0.0712 -0.2789 -0.3264
50165SOL    HW155180   1.331   0.829   5.724 -0.0371 -0.5046 -2.4755
50165SOL    HW255181   1.196   0.768   5.756  0.4712  0.2090  1.6975
50166SOL     OW55182   3.999  11.698  10.964  0.2265  0.3850  0.0840
50166SOL    HW155183   3.980  11.735  11.050 -0.3784  0.3509 -0.0269
50166SOL    HW255184   4.082  11.652  10.975 -0.3577 -0.5117  0.9367
50167SOL     OW55185  11.350   1.322   2.554 -0.0919 -0.1080 -0.7134
50167SOL    HW155186  11.394   1.347   2.473 -1.6262  1.0106 -1.2329
50167SOL    HW255187  11.409   1.353   2.623  0.4560  0.4043 -1.3961
50168SOL     OW55188   9.728   6.883   6.456 -0.4347  0.5301 -0.1199
50168SOL    HW155189   9.673   6.842   6.523 -1.0025  0.9477 -0.3191
50168SOL    HW255190   9.800   6.821   6.442 -1.2526 -0.3832 -0.3814
50169SOL     OW55191   7.206   5.423   0.421 -0.4953  0.2616  0.1093
50169SOL    HW155192   7.118   5.456   0.403 -0.1922  0.7376 -0.5561
50169SOL    HW255193   7.193   5.338   0.462 -1.2653  0.3495  0.0482
50170SOL     OW55194   5.677   0.508  10.548  0.0066 -0.8122  0.3089
50170SOL    HW155195   5.708   0.491  10.637 -1.6039  0.1439  1.0896
50170SOL    HW255196   5.597   0.457  10.540  0.4457 -1.3622 -0.8410
50171SOL     OW55197  11.804   1.927  10.514  0.2523  0.1741 -0.1753
50171SOL    HW155198  11.843   1.920  10.601  0.9598  0.1033 -0.4964
50171SOL    HW255199  11.806   1.838  10.480  1.1362  0.4074 -0.7590
50172SOL     OW55200   2.392   2.771   8.477  0.1280 -0.6077  0.2094
50172SOL    HW155201   2.453   2.839   8.504 -0.9501  0.0972  0.9523
50172SOL    HW255202   2.447   2.702   8.441  1.3297  0.1419  0.5666
50173SOL     OW55203   1.022   6.276   7.673  0.3357  0.0414  0.1761
50173SOL    HW155204   0.974   6.199   7.646  0.7296 -0.1693  0.0662
50173SOL    HW255205   1.110   6.244   7.694 -0.5008 -0.2413  3.9764
50174SOL     OW55206  11.677   3.492   0.951 -0.1068 -0.1946 -0.0176
50174SOL    HW155207  11.763   3.531   0.939 -0.0893 -0.1421  0.2929
50174SOL    HW255208  11.643   3.531   1.031 -1.4417  1.6432 -1.4106
50175SOL     OW55209   3.312   0.349   6.904  0.0655 -0.1505  0.5032
50175SOL    HW155210   3.281   0.304   6.982 -0.2587 -0.9688 -0.0841
50175SOL    HW255211   3.407   0.339   6.906  0.0263 -0.5286  0.5857
50176SOL     OW55212  11.591   6.580   7.664  0.0021 -0.1531  0.4530
50176SOL    HW155213  11.593   6.491   7.698 -0.6277 -0.0065  0.8916
50176SOL    HW255214  11.683   6.607   7.662  0.1790 -0.7350  0.5139
50177SOL     OW55215  11.324   5.595   6.221  0.1842  0.4283 -0.1521
50177SOL    HW155216  11.406   5.639   6.200  1.0455 -0.4202  1.2972
50177SOL    HW255217  11.265   5.665   6.248  0.1725  1.1229 -1.8578
50178SOL     OW55218  10.801   3.264   9.233  0.4083 -0.5395 -0.4521
50178SOL    HW155219  10.884   3.222   9.253 -0.5647 -1.9395  0.7882
50178SOL    HW255220  10.821   3.358   9.235  2.1017 -0.8503 -0.9733
50179SOL     OW55221   6.773   7.172   1.931  0.0945 -0.1902  0.1989
50179SOL    HW155222   6.763   7.266   1.947 -0.2483  0.2277 -2.1203
50179SOL    HW255223   6.866   7.155   1.943 -0.0317  0.1688  1.8389
50180SOL     OW55224   3.268   8.401   1.561  0.2646 -0.4820  0.5545
50180SOL    HW155225   3.317   8.460   1.503  1.3475 -0.2154  1.6897
50180SOL    HW255226   3.260   8.320   1.511  3.2023 -1.0576  0.8236
50181SOL     OW55227   4.005  10.833   1.197 -0.4200 -0.3661 -0.5173
50181SOL    HW155228   4.001  10.928   1.189 -1.9437 -0.4283 -0.9133
50181SOL    HW255229   3.999  10.801   1.107  1.6222 -0.8395 -0.5255
50182SOL     OW55230   2.503   2.392   0.080  0.3091  0.3340 -0.3312
50182SOL    HW155231   2.436   2.386   0.148  0.2498  0.6921 -0.3560
50182SOL    HW255232   2.453   2.391  -0.002  0.1679  2.3326 -0.3368
50183SOL     OW55233   7.613   4.577   1.539  0.3137  0.0052  0.6120
50183SOL    HW155234   7.642   4.536   1.458  0.1520  1.8500 -0.4317
50183SOL    HW255235   7.523   4.605   1.521  0.8619  1.9872  0.7948
50184SOL     OW55236   0.213   0.945   7.634 -0.2078  0.4339  0.7925
50184SOL    HW155237   0.244   0.990   7.713  2.3068 -1.2413  0.8656
50184SOL    HW255238   0.280   0.961   7.568 -0.7270 -0.7419 -0.0616
50185SOL     OW55239   4.679   2.266   1.547  0.2286 -0.7406 -0.1094
50185SOL    HW155240   4.726   2.240   1.467  0.9199 -0.0379  0.0590
50185SOL    HW255241   4.621   2.192   1.565 -0.0471 -0.8514 -1.3404
50186SOL     OW55242   1.343   3.416   6.175  0.3607  0.1983  0.0339
50186SOL    HW155243   1.429   3.413   6.216 -0.3008  0.8317  1.5828
50186SOL    HW255244   1.347   3.489   6.113  0.6460  0.8966  0.8515
50187SOL     OW55245   8.666   4.725   5.657 -0.1070 -0.2061  0.5984
50187SOL    HW155246   8.683   4.663   5.728  0.5977  0.1933  0.7957
50187SOL    HW255247   8.753   4.758   5.633  0.0932 -2.4471 -2.4597
50188SOL     OW55248   3.877   6.569   6.595  0.4227  0.0677 -0.1424
50188SOL    HW155249   3.792   6.525   6.604  1.0797 -1.1801  0.2618
50188SOL    HW255250   3.937   6.515   6.648  1.8200 -0.0899 -1.8118
50189SOL     OW55251   1.000   4.447   1.521  0.8658 -0.4822  0.0648
50189SOL    HW155252   1.073   4.385   1.514  1.0973 -0.4614  1.7795
50189SOL    HW255253   0.944   4.427   1.447  2.0358 -1.2862 -0.6289
50190SOL     OW55254   5.541   9.183   8.798 -0.0174  0.2755 -0.1119
50190SOL    HW155255   5.513   9.191   8.889  0.5850  2.0667 -0.0292
50190SOL    HW255256   5.626   9.227   8.796 -0.5001  1.2177 -1.7331
50191SOL     OW55257   0.528  11.453   1.829  0.2779  0.2598  0.2594
50191SOL    HW155258   0.528  11.491   1.917 -0.2933  0.2883  0.2549
50191SOL    HW255259   0.571  11.519   1.774  1.2591 -0.0562  0.6316
50192SOL     OW55260   7.841   9.651   9.963 -0.6301 -0.5947 -0.0218
50192SOL    HW155261   7.830   9.574   9.907  0.7480 -0.1692 -0.9318
50192SOL    HW255262   7.783   9.635  10.038  0.9839 -3.4418  0.7806
50193SOL     OW55263   2.504   3.791   8.920 -0.4410 -0.4749  0.0792
50193SOL    HW155264   2.533   3.785   9.011  1.4230  2.0589 -0.2389
50193SOL    HW255265   2.524   3.706   8.882 -1.4802 -1.6569  2.0372
50194SOL     OW55266   7.270   6.539  11.403  0.0283 -0.3867 -0.4829
50194SOL    HW155267   7.251   6.449  11.376  2.0247 -0.5625 -1.5274
50194SOL    HW255268   7.320   6.529  11.485 -1.1301 -0.1275  0.2720
50195SOL     OW55269   1.288   4.126   1.143  0.0413  0.2838  0.0086
50195SOL    HW155270   1.291   4.184   1.066  0.3578 -0.0352 -0.2240
50195SOL    HW255271   1.300   4.038   1.107 -0.3371  0.0821  0.3718
50196SOL     OW55272   9.394  11.691  10.122 -0.3813  0.4369  0.0184
50196SOL    HW155273   9.433  11.607  10.146 -1.0875  0.3226  0.8363
50196SOL    HW255274   9.375  11.682  10.029 -0.7003 -0.4346  0.1495
50197SOL     OW55275  11.782   2.502   1.221 -0.0970 -0.1567 -0.3373
50197SOL    HW155276  11.709   2.538   1.272 -0.6678 -1.7463  0.0464
50197SOL    HW255277  11.763   2.408   1.216  2.1078 -0.6760  0.0777
50198SOL     OW55278   2.083   3.191   2.976  0.3770  0.0161  0.3497
50198SOL    HW155279   2.078   3.169   2.883  0.3799 -2.4456  0.8581
50198SOL    HW255280   2.172   3.223   2.988  0.5903 -0.2882 -0.3564
50199SOL     OW55281   2.677   9.115   8.364  0.5980 -0.0200  0.0422
50199SOL    HW155282   2.696   9.088   8.274 -1.4052  1.0396 -0.7530
50199SOL    HW255283   2.599   9.169   8.357  0.8646  0.7714  2.3468
50200SOL     OW55284  10.528   1.211  11.733  0.0184 -0.3042  0.0972
50200SOL    HW155285  10.472   1.183  11.661 -0.1819 -0.1976  0.2093
50200SOL    HW255286  10.579   1.283  11.697 -0.8784  0.4977  0.3766
50201SOL     OW55287   5.745   2.842   4.770  0.5132  0.5925 -0.2111
50201SOL    HW155288   5.735   2.843   4.865  2.8463 -1.4481  0.1667
50201SOL    HW255289   5.673   2.895   4.737 -0.2402  1.5278  2.6940
50202SOL     OW55290   8.440  10.135   7.595 -1.0029 -0.2696 -0.1061
50202SOL    HW155291   8.364  10.132   7.537 -0.8751 -0.1233 -0.2844
50202SOL    HW255292   8.447  10.227   7.621 -1.4543 -0.4469  0.6774
50203SOL     OW55293  11.601   3.869   7.081 -0.0482 -0.5065  0.3844
50203SOL    HW155294  11.624   3.911   7.164  0.8931 -0.7211  0.2447
50203SOL    HW255295  11.648   3.919   7.015 -0.9620 -0.2093 -0.0589
50204SOL     OW55296  11.673   0.873  11.442  0.4353 -0.1757  0.2686
50204SOL    HW155297  11.621   0.833  11.373  0.4460 -0.7186  0.5744
50204SOL    HW255298  11.622   0.949  11.470  0.3901 -0.0028 -0.2707
50205SOL     OW55299   9.413   6.316   2.045  0.3823  0.0163 -0.4419
50205SOL    HW155300   9.321   6.293   2.057  0.2986  0.6298  0.1553
50205SOL    HW255301   9.455   6.234   2.017 -0.5340  0.0003 -1.8296
50206SOL     OW55302   4.160  11.611   4.096  0.0704 -0.1186  0.0937
50206SOL    HW155303   4.149  11.531   4.148  1.8081  0.0101  0.7095
50206SOL    HW255304   4.233  11.657   4.137 -1.3586  2.1883  0.2192
50207SOL     OW55305   6.593   2.072   2.756  0.1106  0.1355  0.2818
50207SOL    HW155306   6.541   2.009   2.805 -0.6009 -0.3323 -1.0065
50207SOL    HW255307   6.540   2.090   2.677  1.1891  0.8576 -0.3014
50208SOL     OW55308   0.147   8.664   3.013  0.3627  0.2309 -0.6704
50208SOL    HW155309   0.120   8.608   2.940 -2.6295  0.5134  0.0675
50208SOL    HW255310   0.117   8.752   2.988 -0.1026  0.4462  0.6043
50209SOL     OW55311   7.542  10.924  11.733 -0.3554 -0.7184 -0.4937
50209SOL    HW155312   7.521  10.911  11.825 -0.6833 -0.2664 -0.4997
50209SOL    HW255313   7.638  10.925  11.730 -0.3251 -1.9393 -0.3362
50210SOL     OW55314   2.129   0.835   2.877 -0.0461  0.4326  0.2873
50210SOL    HW155315   2.167   0.922   2.865  0.0123  0.6324  1.7170
50210SOL    HW255316   2.069   0.845   2.950 -0.3515 -0.6479  0.2062
50211SOL     OW55317   9.669   6.800   8.462  0.1418 -0.2338  0.4766
50211SOL    HW155318   9.723   6.835   8.391  1.2272  0.5478  1.6480
50211SOL    HW255319   9.593   6.859   8.466 -0.0414 -0.4158 -0.1588
50212SOL     OW55320  10.674   8.612   9.319  0.0104  0.3949 -0.3190
50212SOL    HW155321  10.709   8.549   9.382 -0.5374  0.7232  0.3276
50212SOL    HW255322  10.704   8.580   9.234  1.3940  0.3655  0.1607
50213SOL     OW55323   2.583   5.765   9.133 -0.2587 -0.2947  0.0362
50213SOL    HW155324   2.492   5.754   9.106 -0.2431  0.3664 -0.3025
50213SOL    HW255325   2.617   5.676   9.140 -1.1203 -0.5741  0.8555
50214SOL     OW55326  11.805   5.537   2.650 -0.1897  0.7623 -0.2994
50214SOL    HW155327  11.893   5.526   2.615 -0.0341  0.4665  0.1638
50214SOL    HW255328  11.786   5.630   2.641  0.2674  0.8669 -0.1857
50215SOL     OW55329   2.139  11.726  10.448 -0.2066  0.6407 -0.0561
50215SOL    HW155330   2.192  11.753  10.524  1.1658 -1.8560 -0.0346
50215SOL    HW255331   2.194  11.747  10.372 -0.0822 -0.0471 -0.1573
50216SOL     OW55332   0.137   7.375   4.372 -0.0767  0.1972  0.1785
50216SOL    HW155333   0.137   7.279   4.367  0.2808  0.1683  0.7110
50216SOL    HW255334   0.218   7.402   4.329 -0.1845  0.2605  0.0156
50217SOL     OW55335   6.846  10.071   1.676  0.3431  0.3025  0.0187
50217SOL    HW155336   6.897  10.012   1.732 -0.2606 -0.1549  0.0946
50217SOL    HW255337   6.911  10.128   1.637  0.9682 -0.5377 -0.2027
50218SOL     OW55338   0.816   7.628   3.410  0.3349 -0.1868  0.0473
50218SOL    HW155339   0.825   7.613   3.504 -1.1039 -1.9074 -0.0311
50218SOL    HW255340   0.735   7.582   3.386  0.5122  0.4534 -1.9857
50219SOL     OW55341   0.266  10.641  11.931  0.6732 -0.1134  0.3639
50219SOL    HW155342   0.263  10.711  11.997 -0.2327 -0.7215  0.9923
50219SOL    HW255343   0.356  10.641  11.901  0.2486  2.8716 -1.3434
50220SOL     OW55344   9.390   6.839   7.530 -0.7682 -0.1267 -0.4186
50220SOL    HW155345   9.363   6.870   7.617 -2.7705 -0.7612 -0.7650
50220SOL    HW255346   9.433   6.755   7.547 -0.8490 -0.0886 -0.0144
50221SOL     OW55347  11.010  11.794  11.775  0.3407  0.0881  0.3313
50221SOL    HW155348  11.034  11.806  11.683  0.7605 -1.0922  0.2671
50221SOL    HW255349  10.962  11.712  11.777 -0.3904  0.5219  1.0545
50222SOL     OW55350  11.968   3.090   8.064  0.8261 -0.1920 -0.0285
50222SOL    HW155351  11.909   3.027   8.104  0.7499  0.2845  0.6167
50222SOL    HW255352  11.916   3.131   7.995  0.5620 -0.1331  0.2042
50223SOL     OW55353   1.120   2.395   8.989 -0.1375  0.0524 -0.2389
50223SOL    HW155354   1.101   2.440   8.907  1.6392 -0.4971 -1.0036
50223SOL    HW255355   1.145   2.307   8.963 -0.0105 -0.2869  0.9478
50224SOL     OW55356   3.351   8.079  10.988  0.3704 -0.3374 -0.2488
50224SOL    HW155357   3.394   8.104  10.907 -0.2995 -2.1000 -1.2085
50224SOL    HW255358   3.392   7.996  11.012  0.6119  0.1876  1.2880
50225SOL     OW55359  10.080  10.117   9.546 -0.0323  0.6004 -0.2749
50225SOL    HW155360  10.152  10.054   9.545 -1.3834 -1.0089 -0.5890
50225SOL    HW255361  10.005  10.067   9.576 -1.0944  2.1865 -0.1577
50226SOL     OW55362   1.875  11.990   2.067  0.3117  0.2183 -0.0371
50226SOL    HW155363   1.866  12.079   2.101  0.1907 -0.7318  2.7113
50226SOL    HW255364   1.788  11.969   2.033 -0.1245  0.5908  0.8286
50227SOL     OW55365   3.594  10.355   9.417  0.5629  0.1562 -0.2390
50227SOL    HW155366   3.514  10.354   9.471 -0.4213 -2.6130 -1.5558
50227SOL    HW255367   3.664  10.331   9.477  0.2347  1.3363  0.6586
50228SOL     OW55368   4.969  11.507   0.062  0.0753 -0.8068  0.2143
50228SOL    HW155369   5.010  11.581   0.018  0.3330 -1.3404 -0.4579
50228SOL    HW255370   4.993  11.431   0.009 -1.1791 -1.2229  0.1917
50229SOL     OW55371   1.323   5.424  11.957  0.6469  0.3504  0.2939
50229SOL    HW155372   1.254   5.423  11.891  1.6778  1.9187 -0.8968
50229SOL    HW255373   1.325   5.514  11.989  0.7799 -0.1703  1.8321
50230SOL     OW55374  10.934   1.373  10.263  0.0574 -0.4045 -0.1882
50230SOL    HW155375  10.853   1.423  10.269  0.0331 -0.4750  0.0584
50230SOL    HW255376  10.930   1.331  10.177 -0.5899 -1.1275  0.1861
50231SOL     OW55377   0.996   3.217  10.900 -0.3172  0.3436  0.0272
50231SOL    HW155378   0.971   3.300  10.941 -0.3050  0.2723  0.1795
50231SOL    HW255379   0.920   3.192  10.848 -1.3104 -0.7720  1.8783
50232SOL     OW55380   2.516  10.103   6.256 -0.6239  0.2212  0.1367
50232SOL    HW155381   2.603  10.062   6.257  0.8984  3.0897  2.4856
50232SOL    HW255382   2.478  10.080   6.340 -0.1473  2.5964  1.0694
50233SOL     OW55383   1.713   7.614   6.781  0.0439  0.2854  0.1621
50233SOL    HW155384   1.628   7.608   6.823  0.3312  0.2855  0.7469
50233SOL    HW255385   1.741   7.523   6.771 -0.7903  0.1683 -1.6448
50234SOL     OW55386   5.527   3.639   9.350  0.3680  0.6373 -0.5048
50234SOL    HW155387   5.477   3.710   9.310  1.1015  1.0898 -0.6384
50234SOL    HW255388   5.606   3.632   9.296  0.7615  0.3818  0.0978
50235SOL     OW55389   4.055   1.033   1.616 -0.3985 -0.0957  0.9305
50235SOL    HW155390   4.002   1.097   1.664 -1.1552  1.0859 -1.3485
50235SOL    HW255391   3.992   0.983   1.565  0.4355 -0.9051  0.6729
50236SOL     OW55392   7.940   4.940   8.811  0.1302  0.2951 -0.2985
50236SOL    HW155393   7.933   4.980   8.725 -0.0974 -0.7986 -0.8008
50236SOL    HW255394   7.993   4.862   8.797 -0.0474  0.0177  0.5250
50237SOL     OW55395   1.569   3.834   3.935  0.3116 -0.4015  0.7628
50237SOL    HW155396   1.555   3.915   3.886 -0.6283 -1.8906 -1.5790
50237SOL    HW255397   1.619   3.861   4.012  2.2028  2.0624 -1.1513
50238SOL     OW55398   3.775   3.972   0.453  0.1370  0.0628  0.0813
50238SOL    HW155399   3.802   4.062   0.471  0.5840  0.1213 -0.8216
50238SOL    HW255400   3.716   3.950   0.525 -1.9858  1.9372 -0.9392
50239SOL     OW55401  10.813   1.908   2.482 -0.1433  0.2606 -0.2101
50239SOL    HW155402  10.835   1.985   2.534  0.0950 -0.7063  1.1741
50239SOL    HW255403  10.803   1.941   2.393 -0.3430  1.9287  0.4022
50240SOL     OW55404   9.144   9.085  10.403  0.1576 -0.4903 -0.4096
50240SOL    HW155405   9.119   9.018  10.466  0.9474 -0.4438 -0.0446
50240SOL    HW255406   9.143   9.039  10.318 -1.6928 -0.3544 -0.4935
50241SOL     OW55407   2.110   3.615   5.997  0.6579 -0.1952  0.2086
50241SOL    HW155408   2.187   3.672   5.995  1.2665 -1.0210 -0.6789
50241SOL    HW255409   2.118   3.561   5.918 -1.1547  0.1277 -0.2520
50242SOL     OW55410   0.234   6.035   8.211  0.5099 -0.1590 -0.6380
50242SOL    HW155411   0.158   6.073   8.167 -0.6487 -0.7853  0.7494
50242SOL    HW255412   0.197   5.980   8.280  2.2431  0.7642  1.1179
50243SOL     OW55413   1.247   3.573   3.267  0.1585 -0.2974 -0.4434
50243SOL    HW155414   1.205   3.488   3.254 -0.2992  0.1103 -1.8445
50243SOL    HW255415   1.325   3.554   3.319  0.9015 -1.7968 -2.0295
50244SOL     OW55416   5.159  11.564   1.848 -0.6140  0.3748 -0.4013
50244SOL    HW155417   5.084  11.548   1.906  0.1135 -1.0280  0.1886
50244SOL    HW255418   5.200  11.643   1.883 -0.0350 -0.5973  1.1674
50245SOL     OW55419   5.225   5.057   8.112  0.2025 -0.2696  0.4147
50245SOL    HW155420   5.155   4.994   8.127 -0.6109  0.6011  0.3306
50245SOL    HW255421   5.306   5.005   8.118 -0.4674 -1.4277 -0.2771
50246SOL     OW55422   6.981   8.967  10.829  1.0167  0.0685 -0.1370
50246SOL    HW155423   7.016   8.885  10.863  1.7221  1.0581  1.6798
50246SOL    HW255424   7.003   9.032  10.896  0.7432  1.8004 -1.6475
50247SOL     OW55425   4.371   7.136   8.521 -0.2602  0.0555 -0.0870
50247SOL    HW155426   4.400   7.197   8.589 -1.4204  0.0937  0.3918
50247SOL    HW255427   4.300   7.086   8.562 -0.1871 -0.7394 -0.8939
50248SOL     OW55428   3.891   1.344   5.044 -0.3640  0.8982  0.7095
50248SOL    HW155429   3.836   1.319   5.118 -0.0871  1.5736  1.1526
50248SOL    HW255430   3.864   1.286   4.973  0.4871 -0.9016  1.7796
50249SOL     OW55431   1.084   7.701   2.813 -0.0766 -0.1824  0.7395
50249SOL    HW155432   1.079   7.795   2.830 -0.8917  0.0134 -0.4427
50249SOL    HW255433   1.178   7.682   2.812  0.3515  1.3514 -2.5134
50250SOL     OW55434   8.228   5.816   7.787  0.3487 -0.2269  0.1761
50250SOL    HW155435   8.156   5.878   7.779 -1.5251 -2.3785 -1.0168
50250SOL    HW255436   8.209   5.767   7.867  0.1084 -1.2245 -0.4767
50251SOL     OW55437   4.573   6.310   1.700  0.8671 -0.3112  0.5751
50251SOL    HW155438   4.481   6.285   1.701  1.0681 -1.4296 -1.8097
50251SOL    HW255439   4.576   6.391   1.650  1.0676  0.4006  1.7140
50252SOL     OW55440   9.082   4.733   9.509  0.3345  0.6190  0.3712
50252SOL    HW155441   9.175   4.755   9.515  0.4772  0.8210 -1.7256
50252SOL    HW255442   9.058   4.704   9.597  2.2232  1.1361  1.1011
50253SOL     OW55443   0.369   9.094   9.444 -0.0640 -0.1448 -0.2805
50253SOL    HW155444   0.337   9.060   9.360 -1.9368 -1.4156  0.8712
50253SOL    HW255445   0.462   9.070   9.446 -0.4126 -1.7133 -1.2219
50254SOL     OW55446   7.718   5.241   1.903  0.0729 -0.5064 -0.0305
50254SOL    HW155447   7.740   5.156   1.941  0.7448 -0.4090 -0.1963
50254SOL    HW255448   7.794   5.297   1.922  0.2313 -0.3318 -1.1220
50255SOL     OW55449   3.964   7.005   8.169  0.6559  0.3860  0.0756
50255SOL    HW155450   3.977   6.914   8.193  1.8396  0.8693  1.3809
50255SOL    HW255451   4.052   7.039   8.152  0.5519  1.8994  2.0749
50256SOL     OW55452   0.879   2.874   1.923 -0.0646 -0.7196 -0.3256
50256SOL    HW155453   0.826   2.860   2.001  1.1947 -0.3024  0.6529
50256SOL    HW255454   0.898   2.786   1.890 -0.5954 -0.8998 -0.1560
50257SOL     OW55455   1.669   3.572   6.827  0.5694 -0.3417 -0.1737
50257SOL    HW155456   1.613   3.550   6.901  0.3239 -0.2282 -0.3269
50257SOL    HW255457   1.610   3.611   6.762  1.0005  0.8682  0.1331
50258SOL     OW55458   2.798   8.687  10.082 -0.4669  0.2046 -0.2388
50258SOL    HW155459   2.738   8.733  10.024  0.8121 -0.4065 -2.1859
50258SOL    HW255460   2.863   8.753  10.106  0.8556 -0.2320 -2.2933
50259SOL     OW55461   1.540   4.545  10.501 -0.3972 -0.0887 -0.2648
50259SOL    HW155462   1.534   4.540  10.405 -0.4084 -0.1302 -0.2617
50259SOL    HW255463   1.499   4.465  10.532  0.7278 -0.6753 -0.2600
50260SOL     OW55464   7.340   7.145  11.580 -0.0400  0.8576 -0.3500
50260SOL    HW155465   7.356   7.051  11.584  0.9360  0.9662 -1.2081
50260SOL    HW255466   7.253   7.156  11.618  0.3611 -0.2310  1.0025
50261SOL     OW55467   4.902   9.261  11.955 -0.8442  0.3748 -0.5176
50261SOL    HW155468   4.827   9.242  12.011 -1.7143  3.5602 -0.4254
50261SOL    HW255469   4.877   9.229  11.868 -1.4501 -0.3738 -0.0722
50262SOL     OW55470   6.893   6.878   0.269  0.4788 -0.2361 -0.7982
50262SOL    HW155471   6.827   6.928   0.317  0.7203 -0.5106 -0.1721
50262SOL    HW255472   6.923   6.938   0.200 -0.2951 -0.0523 -0.9833
50263SOL     OW55473   5.345   7.532  11.990 -0.3588  0.1811 -0.1198
50263SOL    HW155474   5.402   7.589  11.939  0.3856 -1.0820 -0.7415
50263SOL    HW255475   5.404   7.483  12.047 -1.1379  1.2776  1.7297
50264SOL     OW55476  10.835   9.589   6.129  0.3953 -0.0790 -0.0186
50264SOL    HW155477  10.828   9.685   6.122 -2.1882 -0.2196 -0.2074
50264SOL    HW255478  10.893   9.564   6.058 -1.0256  1.1622 -1.6932
50265SOL     OW55479   4.848  11.606   0.539 -0.7454 -0.1353  0.3825
50265SOL    HW155480   4.758  11.639   0.535 -1.2154 -1.2867  0.7877
50265SOL    HW255481   4.838  11.511   0.529  0.5122 -0.2022 -0.4935
50266SOL     OW55482   3.869   2.084   7.190  0.5206  0.3882 -0.0956
50266SOL    HW155483   3.827   2.033   7.259  2.0133  0.9725  1.3082
50266SOL    HW255484   3.797   2.122   7.140 -0.5931  0.0013  1.1704
50267SOL     OW55485   3.757   2.110   4.575  0.3562  0.0434 -0.0428
50267SOL    HW155486   3.830   2.073   4.624 -0.3204  0.2545  1.1830
50267SOL    HW255487   3.680   2.091   4.629 -0.4547  0.1200 -1.1346
50268SOL     OW55488   2.745   9.985   9.376 -0.0353  0.0492 -0.2329
50268SOL    HW155489   2.699   9.915   9.422  0.3640  0.2430  0.4923
50268SOL    HW255490   2.832   9.988   9.417 -0.0410  0.9522 -0.2497
50269SOL     OW55491   1.768   8.103   0.925  0.8533  0.4415 -0.4921
50269SOL    HW155492   1.811   8.050   0.991  0.5525 -0.7769 -1.2413
50269SOL    HW255493   1.840   8.141   0.874  1.0804 -1.1205 -1.3814
50270SOL     OW55494   8.618  10.254   7.230 -0.1742 -0.4537 -0.2108
50270SOL    HW155495   8.543  10.310   7.249  1.2961  0.9360  1.8759
50270SOL    HW255496   8.670  10.256   7.310  2.7412 -0.3239 -1.9782
50271SOL     OW55497  10.479   0.742   8.066  0.1760  0.3871  0.0879
50271SOL    HW155498  10.540   0.777   8.001 -0.7624  1.4970 -0.2332
50271SOL    HW255499  10.520   0.759   8.150  0.5742  0.5765 -0.1411
50272SOL     OW55500   2.786   9.409  11.736  0.3604  0.1902 -0.2700
50272SOL    HW155501   2.797   9.347  11.808 -1.2159  1.9062  1.5874
50272SOL    HW255502   2.873   9.418  11.699  1.5624  0.1961  2.3039
50273SOL     OW55503   9.365   3.319  10.892  0.6246 -0.1896 -0.8736
50273SOL    HW155504   9.293   3.367  10.851  1.6886  1.3422 -1.0101
50273SOL    HW255505   9.338   3.309  10.983 -0.0917 -0.3057 -1.0887
50274SOL     OW55506   3.694   4.603   2.672  0.2276 -0.5477  0.6945
50274SOL    HW155507   3.736   4.574   2.591 -0.3157 -1.8979  0.8850
50274SOL    HW255508   3.759   4.587   2.740  0.7169  0.6666  0.5392
50275SOL     OW55509   4.028   6.756  11.755 -0.6290 -0.3449 -0.6122
50275SOL    HW155510   4.094   6.825  11.756 -0.2769 -0.6643  0.9917
50275SOL    HW255511   4.076   6.677  11.732 -0.7114 -0.3417 -0.7937
50276SOL     OW55512   3.267   4.634   7.220 -0.2773 -0.1141 -0.6419
50276SOL    HW155513   3.177   4.666   7.222 -0.6242 -1.0909  0.6387
50276SOL    HW255514   3.259   4.540   7.203  0.3388 -0.5695  1.2604
50277SOL     OW55515   7.537   7.085   4.371  0.2092 -0.1108  0.1554
50277SOL    HW155516   7.567   6.996   4.354  1.5390  0.1005  1.2378
50277SOL    HW255517   7.537   7.127   4.285  2.1672 -0.4114 -0.0369
50278SOL     OW55518  10.881   4.290   5.218 -0.1990  0.4742 -0.3785
50278SOL    HW155519  10.850   4.200   5.226  0.5321  0.3135  1.2551
50278SOL    HW255520  10.973   4.286   5.246 -0.2306  1.7531 -0.0000
50279SOL     OW55521   1.963  11.674   9.228 -0.6951  0.7215  0.4719
50279SOL    HW155522   1.980  11.753   9.279  0.0504  0.6087  0.4064
50279SOL    HW255523   1.986  11.602   9.286  2.0476  0.6152 -0.6296
50280SOL     OW55524   6.568   0.607   9.342  0.0489  0.3445 -0.3903
50280SOL    HW155525   6.530   0.641   9.261 -1.4931  0.3066  0.2765
50280SOL    HW255526   6.649   0.565   9.315 -0.8207 -0.3622 -2.0550
50281SOL     OW55527   0.481   0.064   7.202  0.4601  0.1867 -0.3101
50281SOL    HW155528   0.513   0.109   7.123  0.1442 -1.0335 -1.1588
50281SOL    HW255529   0.523   0.110   7.274  0.1470  1.8544 -1.1329
50282SOL     OW55530   0.630  10.833   1.671  0.7503  0.1179 -0.1816
50282SOL    HW155531   0.620  10.743   1.705  0.7926  0.2267  0.1226
50282SOL    HW255532   0.631  10.822   1.576 -1.6663  0.0253 -0.2578
50283SOL     OW55533   3.828   5.162   1.477 -0.4606 -0.4307 -0.4760
50283SOL    HW155534   3.899   5.143   1.538  0.6666 -0.1335 -1.6257
50283SOL    HW255535   3.829   5.257   1.468 -0.7711 -0.4502 -0.7520
50284SOL     OW55536   8.578   0.506   5.333 -0.0356 -0.2395 -0.2894
50284SOL    HW155537   8.531   0.579   5.372  0.5866 -0.1773  0.3598
50284SOL    HW255538   8.535   0.428   5.368 -1.1794 -0.2228 -1.5525
50285SOL     OW55539   8.162   3.927   7.876 -0.7844 -0.5697  0.0350
50285SOL    HW155540   8.257   3.934   7.890 -0.9056  0.5774  0.3773
50285SOL    HW255541   8.150   3.954   7.786 -0.9924  1.5289  0.6393
50286SOL     OW55542   4.430   4.542   1.917 -0.0485 -0.1283 -0.2535
50286SOL    HW155543   4.463   4.487   1.847 -0.3909  0.0975 -0.5951
50286SOL    HW255544   4.336   4.526   1.919  0.2189 -1.9386  1.7255
50287SOL     OW55545  10.095   7.294   5.306 -0.2067 -0.4358  0.4393
50287SOL    HW155546  10.099   7.256   5.218 -1.7384 -0.6427  0.4351
50287SOL    HW255547  10.013   7.260   5.343 -1.3666  2.3556  0.6563
50288SOL     OW55548   6.741   3.030   2.364  0.5024  0.4559  0.1935
50288SOL    HW155549   6.775   3.113   2.397 -0.8637  1.3927 -0.6719
50288SOL    HW255550   6.646   3.042   2.362  0.3002 -1.0451 -0.1945
50289SOL     OW55551   3.706   4.346   1.547 -0.2527  0.2447  0.5097
50289SOL    HW155552   3.794   4.308   1.542 -1.5166 -2.9059 -0.2597
50289SOL    HW255553   3.681   4.360   1.456 -0.7093  0.7971  0.7143
50290SOL     OW55554  10.390   4.977   4.153  0.1029  0.1654  0.3093
50290SOL    HW155555  10.334   4.970   4.231  1.7547 -1.7980  1.4136
50290SOL    HW255556  10.467   5.024   4.184  0.3335  0.2777 -0.4273
50291SOL     OW55557   2.666   3.407   6.268  0.5256 -0.5810  0.0055
50291SOL    HW155558   2.638   3.497   6.253  0.4912 -0.6264 -0.2087
50291SOL    HW255559   2.619   3.380   6.347  0.6025 -0.3838  0.1208
50292SOL     OW55560   0.150   6.798   2.752  0.0586  0.2073  0.5192
50292SOL    HW155561   0.122   6.874   2.700 -0.2180 -0.2112  0.0491
50292SOL    HW255562   0.243   6.815   2.770  0.9703 -0.8835 -2.4261
50293SOL     OW55563   5.728   2.336   8.209  0.2303  0.2854 -0.3861
50293SOL    HW155564   5.683   2.255   8.233  2.8805 -1.1597  0.1718
50293SOL    HW255565   5.713   2.395   8.283 -0.2249 -0.3890  0.0680
50294SOL     OW55566   8.164   4.523  10.345  0.1695 -0.8929 -0.1037
50294SOL    HW155567   8.106   4.494  10.416 -0.9141  2.4576  0.5752
50294SOL    HW255568   8.112   4.514  10.266 -0.0578 -1.0175  0.0600
50295SOL     OW55569  10.471  11.470   4.747 -0.7883 -0.0065 -0.6340
50295SOL    HW155570  10.424  11.544   4.786  0.6724  0.0259  1.1548
50295SOL    HW255571  10.473  11.490   4.653 -1.1726  1.7673 -0.2951
50296SOL     OW55572   5.206   8.521  10.042  0.0904  0.1441  0.3929
50296SOL    HW155573   5.157   8.597  10.073 -2.7342 -1.0858 -0.7230
50296SOL    HW255574   5.151   8.446  10.066  0.7563 -1.2453 -2.0955
50297SOL     OW55575   3.046  10.355   7.802  0.3580 -0.2175  0.1283
50297SOL    HW155576   3.133  10.317   7.817  0.6075  0.1950 -0.2364
50297SOL    HW255577   3.031  10.343   7.708  0.1432 -0.0452  0.1402
50298SOL     OW55578   2.477   6.954   4.813 -0.1428  0.0599 -0.3218
50298SOL    HW155579   2.558   6.942   4.861  1.6558  1.6074 -2.7003
50298SOL    HW255580   2.408   6.922   4.871  1.9726  0.3902  2.5289
50299SOL     OW55581   7.989   3.263   5.014  0.0752 -0.0136  0.0664
50299SOL    HW155582   8.026   3.350   5.030 -0.7854  0.1912  1.0197
50299SOL    HW255583   7.983   3.257   4.918 -0.0454  1.0683 -0.0079
50300SOL     OW55584   6.490   6.331   8.930 -0.6268  0.0480  0.1255
50300SOL    HW155585   6.555   6.307   8.996  0.5598  1.5979 -0.3988
50300SOL    HW255586   6.494   6.426   8.927 -1.1117  0.0408 -1.7137
50301SOL     OW55587   6.583   5.053   9.803  0.1444 -0.0592  0.1429
50301SOL    HW155588   6.678   5.045   9.794  0.3571 -1.1981  2.6476
50301SOL    HW255589   6.549   4.968   9.774  0.1636 -0.6014  1.5876
50302SOL     OW55590   7.280   0.763   2.091 -0.0363 -0.1233 -0.1033
50302SOL    HW155591   7.351   0.720   2.044 -0.2290 -1.0023  0.3891
50302SOL    HW255592   7.319   0.794   2.173 -0.0448  0.0615 -0.1693
50303SOL     OW55593  10.432   0.249   6.466 -0.1371 -0.3257 -1.3019
50303SOL    HW155594  10.481   0.302   6.404  3.2685 -0.6525  0.8093
50303SOL    HW255595  10.479   0.166   6.469 -0.8701 -0.7334  0.8260
50304SOL     OW55596   3.314   7.752   3.229  0.0353 -0.4138 -0.4016
50304SOL    HW155597   3.361   7.669   3.224 -1.6436 -1.4131 -0.4695
50304SOL    HW255598   3.320   7.788   3.140 -0.1723 -1.0167 -0.6665
50305SOL     OW55599  10.243   2.267  10.958 -0.1571  0.3506  0.2464
50305SOL    HW155600  10.220   2.223  11.040  1.6264  0.2832  0.7469
50305SOL    HW255601  10.217   2.358  10.972  1.2846  0.6264  1.4355
50306SOL     OW55602   3.035   3.836  10.922  0.4183 -0.3265  0.1917
50306SOL    HW155603   3.045   3.911  10.981 -0.9023 -1.0704  1.4193
50306SOL    HW255604   2.957   3.791  10.954  0.1878 -1.2721 -1.5930
50307SOL     OW55605  10.281   9.742  11.558  0.1447 -1.0204  0.1008
50307SOL    HW155606  10.230   9.810  11.514 -0.7203 -2.3156 -0.9743
50307SOL    HW255607  10.257   9.750  11.650 -2.6288 -2.0552 -0.4620
50308SOL     OW55608   3.545   5.183   3.904 -0.1510  0.3035  0.0986
50308SOL    HW155609   3.468   5.180   3.848  0.5296 -1.0218 -0.8135
50308SOL    HW255610   3.617   5.155   3.848  1.2758  2.7754  0.5559
50309SOL     OW55611   1.862   4.725  11.280 -0.2788  0.4900  0.1258
50309SOL    HW155612   1.932   4.669  11.246 -0.5627 -0.9875  1.8334
50309SOL    HW255613   1.787   4.709  11.223  0.3741  1.1397 -0.9560
50310SOL     OW55614   3.988  10.179   6.070  0.1671 -0.5395  0.0476
50310SOL    HW155615   4.030  10.264   6.062 -0.3430 -0.1869  0.9084
50310SOL    HW255616   3.954  10.177   6.160 -3.1711 -0.0558 -1.0427
50311SOL     OW55617   5.191  10.255   9.467  0.4375  0.3430 -0.7190
50311SOL    HW155618   5.116  10.309   9.445  0.3057 -1.3016 -5.3685
50311SOL    HW255619   5.153  10.176   9.507  0.0441  0.9061  0.0335
50312SOL     OW55620   7.508   0.013   4.246  0.2337  0.4734 -0.2013
50312SOL    HW155621   7.514   0.090   4.190  1.1005  1.7735  1.5747
50312SOL    HW255622   7.583  -0.041   4.220 -0.5476  0.0472 -1.6574
50313SOL     OW55623   9.470   4.971   5.443  0.8713 -0.2400 -0.2997
50313SOL    HW155624   9.495   5.026   5.517  1.4782 -2.0215  0.8893
50313SOL    HW255625   9.381   4.940   5.464  1.7847 -2.3743  0.8005
50314SOL     OW55626   5.902   1.650   9.744 -0.3040  0.0608 -0.0424
50314SOL    HW155627   5.810   1.657   9.721  0.0548 -0.1912 -1.6875
50314SOL    HW255628   5.905   1.583   9.813 -1.4966  1.3223  1.3035
50315SOL     OW55629   6.018   1.841   0.335 -0.3845  0.3232  0.5310
50315SOL    HW155630   6.100   1.890   0.346 -0.7681  1.3078 -0.7599
50315SOL    HW255631   6.040   1.752   0.361  0.2841  1.1584  3.2315
50316SOL     OW55632   6.891  11.125   2.831 -0.0406 -0.0156 -0.0643
50316SOL    HW155633   6.823  11.117   2.764 -0.6593 -1.2531  0.6790
50316SOL    HW255634   6.843  11.140   2.913  0.5490 -1.0648  0.5001
50317SOL     OW55635   9.624   0.063   5.773  0.2978  0.0265  0.2727
50317SOL    HW155636   9.693   0.103   5.719  1.0202 -0.0786  1.0938
50317SOL    HW255637   9.670  -0.003   5.825 -0.4013  0.0755  0.9679
50318SOL     OW55638   3.787   4.410   0.289 -0.7263  0.3341  0.5624
50318SOL    HW155639   3.694   4.416   0.314 -0.8929  1.2091 -0.1987
50318SOL    HW255640   3.834   4.409   0.372 -1.4226 -0.1326  0.9573
50319SOL     OW55641   6.685   7.829   5.724  0.0003 -0.4732 -0.3202
50319SOL    HW155642   6.686   7.913   5.770 -1.2813 -1.0202  0.7548
50319SOL    HW255643   6.678   7.853   5.631  2.0810  0.6304 -0.2720
50320SOL     OW55644   5.728  10.114   4.155  0.1756  0.4460 -0.0373
50320SOL    HW155645   5.809  10.065   4.163 -0.0110  0.0955 -0.2498
50320SOL    HW255646   5.756  10.204   4.139  0.5191  0.4639  0.6595
50321SOL     OW55647   6.711   4.822   5.316  0.0703 -0.2992  0.1093
50321SOL    HW155648   6.715   4.748   5.255  2.4431 -0.3263  0.1818
50321SOL    HW255649   6.639   4.802   5.374  0.1188 -2.1489 -0.4160
50322SOL     OW55650   2.751  11.611  11.966 -0.0268  0.3967  0.2148
50322SOL    HW155651   2.732  11.528  12.009 -0.6433  1.2277  1.6263
50322SOL    HW255652   2.842  11.629  11.988  0.3760 -0.2741 -0.7980
50323SOL     OW55653   9.478   3.780  11.251 -0.0106 -0.6464 -0.5474
50323SOL    HW155654   9.516   3.789  11.164  0.2851 -0.4256 -0.3989
50323SOL    HW255655   9.403   3.721  11.239 -0.8039  0.4599 -1.2042
50324SOL     OW55656   4.133   0.060   6.374  0.1730  0.6162 -0.0606
50324SOL    HW155657   4.063   0.029   6.430 -0.5316 -0.1975 -1.3385
50324SOL    HW255658   4.117   0.019   6.289  1.4422  1.4487 -0.7560
50325SOL     OW55659   3.830   6.454   7.742  0.0780  0.1088  0.3057
50325SOL    HW155660   3.796   6.397   7.672  0.3463 -1.1171  1.1546
50325SOL    HW255661   3.751   6.495   7.779 -0.2344 -0.5953  0.4408
50326SOL     OW55662   9.512   5.565  11.858  0.2427  0.0546  0.0275
50326SOL    HW155663   9.417   5.563  11.871  0.4288  0.9956  1.9653
50326SOL    HW255664   9.544   5.623  11.928  2.2750 -0.5341 -0.3552
50327SOL     OW55665   0.861   5.059   6.226  0.3119  0.4856 -0.0117
50327SOL    HW155666   0.792   4.995   6.245 -0.1382  1.1708  0.6778
50327SOL    HW255667   0.876   5.049   6.132  0.2551 -0.6412  0.0864
50328SOL     OW55668   6.721   7.099   1.227 -0.8012 -0.0911  0.1181
50328SOL    HW155669   6.705   7.006   1.244 -3.2152 -0.5596 -3.6161
50328SOL    HW255670   6.773   7.101   1.147 -0.5253  1.8190  0.2923
50329SOL     OW55671   8.758   9.452   6.311  0.0984  0.6483  0.2875
50329SOL    HW155672   8.675   9.434   6.355 -0.8007  0.1847 -1.5130
50329SOL    HW255673   8.820   9.466   6.382 -0.6284 -2.8366  1.8208
50330SOL     OW55674  11.672   6.468   2.785  0.2675 -0.0621  0.1176
50330SOL    HW155675  11.725   6.411   2.728  1.0817 -0.0559  0.8478
50330SOL    HW255676  11.583   6.435   2.775  0.1329  0.7751 -2.1903
50331SOL     OW55677   5.150   6.377   5.267 -0.3868  0.0118 -0.0530
50331SOL    HW155678   5.062   6.373   5.305 -0.5836  1.5360 -0.2938
50331SOL    HW255679   5.207   6.391   5.343 -0.9041  4.4578 -0.2181
50332SOL     OW55680   0.805   3.219   6.225  0.4878  0.6076  0.2743
50332SOL    HW155681   0.897   3.201   6.243  0.7807  1.9415  0.2149
50332SOL    HW255682   0.783   3.292   6.282  0.0880  1.7332 -1.2412
50333SOL     OW55683   1.228   5.095   1.259 -0.2537 -0.3748  0.6095
50333SOL    HW155684   1.239   5.113   1.166  1.0362  0.3195  0.8775
50333SOL    HW255685   1.311   5.058   1.287 -0.3087  0.2528  1.6761
50334SOL     OW55686   6.176   9.690   0.252  0.0033  0.0870  0.8783
50334SOL    HW155687   6.102   9.749   0.237  0.1183  0.5933  2.1504
50334SOL    HW255688   6.143   9.603   0.229 -0.2446  0.5996 -0.8108
50335SOL     OW55689  11.081  10.682   4.964  0.2613  0.3428 -0.1382
50335SOL    HW155690  11.056  10.596   4.932  0.7794 -0.2216  0.9052
50335SOL    HW255691  10.999  10.729   4.977  0.0052  0.2175 -1.2711
50336SOL     OW55692   9.451   1.395   9.555 -0.2860 -0.1413 -0.4021
50336SOL    HW155693   9.427   1.303   9.569  0.6676 -0.4616 -0.7674
50336SOL    HW255694   9.435   1.410   9.462  0.0971 -0.1106 -0.4664
50337SOL     OW55695  11.390   8.729   0.744  0.2110 -0.0693 -0.0100
50337SOL    HW155696  11.297   8.708   0.752  0.0414  0.7922  0.4073
50337SOL    HW255697  11.435   8.655   0.785 -0.2120 -1.1388 -1.3869
50338SOL     OW55698   2.967   9.907   9.974 -0.4524  0.7366  0.3941
50338SOL    HW155699   2.980   9.988   9.925  0.7752  0.7833  0.7825
50338SOL    HW255700   2.983   9.930  10.065 -2.2401  0.5298  0.8103
50339SOL     OW55701   6.104   6.130   6.212  0.0250  0.3151 -0.0566
50339SOL    HW155702   6.070   6.181   6.286 -1.8839  1.8224 -1.8663
50339SOL    HW255703   6.028   6.080   6.180  0.9327 -0.6810 -0.7452
50340SOL     OW55704   9.081   2.901   7.467 -0.5389  0.0078  0.4335
50340SOL    HW155705   9.031   2.982   7.478  0.6388  0.4601  3.4001
50340SOL    HW255706   9.166   2.929   7.435 -0.3818 -0.1334  0.7238
50341SOL     OW55707   3.307   7.676   4.241 -0.0260  0.5684 -0.8061
50341SOL    HW155708   3.276   7.765   4.258 -0.9384  0.1777 -0.3735
50341SOL    HW255709   3.340   7.646   4.325 -0.7284  0.1135 -0.6845
50342SOL     OW55710   5.140  10.712   7.804 -0.0169  0.3755  0.2123
50342SOL    HW155711   5.049  10.690   7.822  0.1530  0.3147  1.0671
50342SOL    HW255712   5.136  10.782   7.740 -0.6333 -0.3720 -0.5889
50343SOL     OW55713   6.169   3.343   7.318  0.3611 -0.6135  0.2733
50343SOL    HW155714   6.108   3.371   7.250  1.1207  0.1244 -0.1252
50343SOL    HW255715   6.126   3.268   7.359 -1.5733  0.8340  1.0858
50344SOL     OW55716  10.797  11.772   4.398  0.3685 -0.0690  0.1570
50344SOL    HW155717  10.863  11.734   4.339 -0.0730  0.0026 -0.3904
50344SOL    HW255718  10.743  11.698   4.424 -1.7971  0.4295 -2.5800
50345SOL     OW55719   7.568   3.888   9.419  0.5673  0.0285  0.4022
50345SOL    HW155720   7.653   3.915   9.453  1.5668 -0.5638 -1.4847
50345SOL    HW255721   7.533   3.965   9.376  0.1007  0.2785  1.1972
50346SOL     OW55722   2.959   2.473   0.288  0.0680  0.4972  0.2380
50346SOL    HW155723   2.954   2.541   0.220 -0.2995 -0.6851 -0.9506
50346SOL    HW255724   3.053   2.465   0.305  0.4424 -0.9155 -2.0012
50347SOL     OW55725  11.760   8.479   3.256  0.5617 -0.2645  0.4647
50347SOL    HW155726  11.682   8.448   3.209  0.4720  0.4667  0.1152
50347SOL    HW255727  11.828   8.482   3.189  0.4473  0.7354  0.3864
50348SOL     OW55728   2.046   9.023   4.710  0.1891  0.2032 -0.0242
50348SOL    HW155729   2.089   8.986   4.634  0.0309  0.5359 -0.2767
50348SOL    HW255730   1.954   8.997   4.701  0.2661 -0.2071  0.3300
50349SOL     OW55731   3.012   0.971   3.399  0.2134 -0.3146  0.5741
50349SOL    HW155732   3.075   1.042   3.387  2.0088 -1.7373  1.1126
50349SOL    HW255733   2.968   0.992   3.481 -1.9373  2.0065 -1.0246
50350SOL     OW55734   4.775   5.721  11.632 -0.3944  0.5695 -0.8488
50350SOL    HW155735   4.838   5.789  11.655  0.9875 -0.7076 -0.6362
50350SOL    HW255736   4.797   5.698  11.542 -0.1911 -0.2260 -0.6119
50351SOL     OW55737   1.404   7.672   3.468 -0.0497  0.2626 -0.4676
50351SOL    HW155738   1.436   7.681   3.558  0.0778 -0.3599 -0.4467
50351SOL    HW255739   1.311   7.651   3.478 -0.6669  2.6511 -0.5358
50352SOL     OW55740   6.004   2.029   6.371 -0.6522 -0.3977 -0.1685
50352SOL    HW155741   6.048   2.017   6.455 -2.1675 -2.2250  0.4463
50352SOL    HW255742   6.070   2.007   6.305 -0.1668 -1.5177  0.6618
50353SOL     OW55743   2.316   7.697   9.268 -0.0527 -0.1349  0.2341
50353SOL    HW155744   2.328   7.650   9.185  0.3022 -0.0031  0.2052
50353SOL    HW255745   2.399   7.684   9.314  0.4610  1.3073 -0.2145
50354SOL     OW55746   9.120   4.047   4.569  0.7392 -0.2458 -0.6655
50354SOL    HW155747   9.160   3.980   4.514  0.0867 -1.3277  0.1265
50354SOL    HW255748   9.193   4.095   4.606  1.2189 -0.5529 -1.1999
50355SOL     OW55749   3.901  11.858   6.462 -0.2631  0.1378 -0.2874
50355SOL    HW155750   3.825  11.874   6.406 -1.2871  2.2106  1.5505
50355SOL    HW255751   3.864  11.841   6.549  1.3323 -0.5428  0.3054
50356SOL     OW55752   5.383   9.073   0.809  0.1791 -0.3591 -0.7781
50356SOL    HW155753   5.397   9.062   0.715 -1.7904  0.3723 -1.2125
50356SOL    HW255754   5.293   9.043   0.824  0.9656 -2.0223  1.1951
50357SOL     OW55755   6.597  10.509   8.678  0.3055 -0.0182 -0.1061
50357SOL    HW155756   6.570  10.453   8.751  0.6860 -1.4716 -1.0383
50357SOL    HW255757   6.682  10.543   8.704 -0.1239  0.5083  0.6612
50358SOL     OW55758   1.074   6.620   4.695 -0.2530  0.6269 -0.4916
50358SOL    HW155759   1.072   6.552   4.627 -2.3326  1.2981 -1.1845
50358SOL    HW255760   1.163   6.618   4.728 -0.1079 -2.0897 -0.8450
50359SOL     OW55761   5.339  11.133  11.912 -0.2256 -0.7871  0.5936
50359SOL    HW155762   5.345  11.211  11.856 -2.0943 -0.3622  0.9444
50359SOL    HW255763   5.341  11.059  11.851  1.4211 -0.5039  0.2490
50360SOL     OW55764   2.410   5.065   6.846 -0.4405  0.6164  0.1604
50360SOL    HW155765   2.501   5.077   6.873 -0.0236  0.7174 -1.2273
50360SOL    HW255766   2.415   5.029   6.758 -1.7408 -1.0433  0.6955
50361SOL     OW55767   1.604   8.243   7.555  0.1440 -0.3813 -0.4231
50361SOL    HW155768   1.640   8.260   7.468  1.7990  0.8365  0.4407
50361SOL    HW255769   1.542   8.314   7.569  0.0734 -0.4277 -0.4982
50362SOL     OW55770   2.392   9.860  10.132 -0.0406 -0.4811 -0.0896
50362SOL    HW155771   2.362   9.857  10.041 -2.3114 -1.3621  0.6234
50362SOL    HW255772   2.313   9.878  10.183  1.1352 -0.2471  1.7453
50363SOL     OW55773   6.826   1.659   4.522 -0.5062  0.6947 -0.4836
50363SOL    HW155774   6.747   1.658   4.468 -2.0835  0.7243  1.6812
50363SOL    HW255775   6.800   1.614   4.602  1.0071  2.5756  1.1620
50364SOL     OW55776   1.926   6.660  10.084 -0.6966 -0.1336  0.2258
50364SOL    HW155777   1.846   6.655  10.136 -1.3489 -1.0137 -0.8252
50364SOL    HW255778   1.958   6.570  10.080 -1.3671 -0.3289 -1.9226
50365SOL     OW55779   1.378   2.877   8.073  0.1664 -0.1043 -0.0792
50365SOL    HW155780   1.399   2.960   8.115  0.5612 -0.6330  0.8090
50365SOL    HW255781   1.330   2.828   8.140 -2.0458  0.2360 -1.3281
50366SOL     OW55782  11.921   5.848   8.030  0.3737 -0.2683  0.3358
50366SOL    HW155783  11.966   5.928   8.003  1.4130 -1.3778 -1.5038
50366SOL    HW255784  11.984   5.804   8.088  0.7281 -0.7272 -0.3772
50367SOL     OW55785   8.095   9.269  11.964  0.6348 -0.1182  0.1638
50367SOL    HW155786   8.096   9.182  12.003  1.2670  0.2678  1.0106
50367SOL    HW255787   8.009   9.304  11.988  0.3709 -0.4991 -0.1899
50368SOL     OW55788   2.822   4.881   5.607 -0.8994 -0.1166 -0.1486
50368SOL    HW155789   2.847   4.882   5.515 -1.9146 -0.1418 -0.4335
50368SOL    HW255790   2.894   4.834   5.651 -0.4328 -0.1438 -0.9249
50369SOL     OW55791   8.491   3.211  10.572  0.8332  0.1057 -0.3932
50369SOL    HW155792   8.525   3.199  10.484  3.7795 -0.0360  0.6431
50369SOL    HW255793   8.547   3.278  10.611  0.1905 -0.4389  1.6249
50370SOL     OW55794   0.385   4.198   9.319 -0.1512 -0.1496 -0.5403
50370SOL    HW155795   0.308   4.254   9.331  0.5077  0.8680 -0.9877
50370SOL    HW255796   0.440   4.245   9.257  1.6240 -0.0562  1.0256
50371SOL     OW55797   1.655   3.025   4.758  0.4149 -0.1765  0.0383
50371SOL    HW155798   1.575   3.075   4.738  0.2062  0.2997  1.8451
50371SOL    HW255799   1.720   3.058   4.695 -0.5389  0.1326 -0.8221
50372SOL     OW55800   2.048  10.982   8.631 -0.1152 -0.2644  0.2345
50372SOL    HW155801   1.964  10.938   8.642 -0.1618  0.0702  1.3385
50372SOL    HW255802   2.097  10.961   8.710  0.0882  1.1551  0.5110
50373SOL     OW55803   9.819   3.775   2.432 -0.6229 -0.2747 -0.3280
50373SOL    HW155804   9.759   3.843   2.401  0.8116  1.0332 -0.3981
50373SOL    HW255805   9.874   3.820   2.496 -1.3945 -2.1030  1.7426
50374SOL     OW55806  11.430   8.352   7.202  0.8483 -0.1244  0.0874
50374SOL    HW155807  11.436   8.394   7.288 -0.7429 -0.9672  0.6516
50374SOL    HW255808  11.419   8.424   7.140  2.2212  0.5056  0.5507
50375SOL     OW55809   4.131   4.626   8.038  0.0952  0.4800 -0.3809
50375SOL    HW155810   4.169   4.665   8.117 -1.1492  1.6404 -0.3340
50375SOL    HW255811   4.187   4.550   8.020  1.9668  1.6828  0.1131
50376SOL     OW55812   7.659  10.964   2.065 -0.0909  0.1984 -0.2472
50376SOL    HW155813   7.603  10.976   1.987 -1.3377 -0.4017  0.5213
50376SOL    HW255814   7.606  10.910   2.123  1.5909 -0.9632  0.2466
50377SOL     OW55815   9.594   3.878  10.545 -0.1093 -0.4226  0.0020
50377SOL    HW155816   9.543   3.802  10.517 -0.9695  0.7582 -1.8152
50377SOL    HW255817   9.685   3.848  10.542 -0.5230 -1.9786  1.3988
50378SOL     OW55818   0.465   8.245   9.057  0.2895  0.5103  0.2618
50378SOL    HW155819   0.436   8.336   9.054  2.2467  1.2558  1.4875
50378SOL    HW255820   0.386   8.195   9.075 -0.5331  2.2242  1.7274
50379SOL     OW55821   4.997   9.215   1.329 -0.1060 -0.0173  0.1491
50379SOL    HW155822   5.061   9.284   1.311  0.7407 -0.4024  1.5675
50379SOL    HW255823   5.046   9.146   1.373 -0.9674 -1.5157 -1.1307
50380SOL     OW55824   0.613   7.682  10.205 -0.0236  0.2146  0.5245
50380SOL    HW155825   0.607   7.773  10.234 -1.1780 -0.7316  3.6292
50380SOL    HW255826   0.523   7.658  10.183 -0.1338 -0.7704  1.9160
50381SOL     OW55827   2.065   3.290   0.566 -0.0842  0.3117  0.5766
50381SOL    HW155828   2.036   3.369   0.521  0.9933  0.7292  0.5937
50381SOL    HW255829   1.984   3.244   0.587 -0.6667 -0.5166 -2.8094
50382SOL     OW55830   7.134   0.791   6.505 -0.0622  0.6375 -0.1640
50382SOL    HW155831   7.083   0.820   6.429 -0.0793 -0.9644 -0.8026
50382SOL    HW255832   7.222   0.825   6.489  0.5703 -1.6512 -2.2010
50383SOL     OW55833  11.414   8.683   6.954  0.3772 -0.0282 -0.2052
50383SOL    HW155834  11.448   8.594   6.942  1.8291  0.2450  1.3837
50383SOL    HW255835  11.439   8.729   6.874 -1.4390 -1.2736 -1.5916
50384SOL     OW55836   4.240   3.459   3.570  0.3295  1.1900  0.5055
50384SOL    HW155837   4.273   3.545   3.598  0.2495  0.5796  2.6557
50384SOL    HW255838   4.146   3.463   3.588 -0.2286  1.6483 -2.1986
50385SOL     OW55839   5.538   2.406   5.071  0.6231  0.6526 -0.4629
50385SOL    HW155840   5.487   2.375   4.996  1.8967  0.5095 -1.3006
50385SOL    HW255841   5.619   2.440   5.033  1.7348 -0.3286  0.9022
50386SOL     OW55842  11.872   0.141   8.306  0.0682  0.3281  0.3211
50386SOL    HW155843  11.888   0.198   8.231  0.9197 -0.3883 -0.0638
50386SOL    HW255844  11.777   0.139   8.315 -0.0977 -0.1086 -1.1737
50387SOL     OW55845  11.232   0.184   6.399 -0.0002 -0.4939  0.0484
50387SOL    HW155846  11.208   0.132   6.475  0.3063  0.0413  0.5201
50387SOL    HW255847  11.296   0.131   6.352 -0.7194 -1.1333 -0.2270
50388SOL     OW55848  11.037   0.680   1.304  0.3359 -0.0021 -0.1605
50388SOL    HW155849  11.082   0.673   1.220  0.5729  0.3057 -0.0633
50388SOL    HW255850  10.978   0.755   1.293 -2.6242 -2.3115 -1.4048
50389SOL     OW55851   6.409   9.085   5.833  0.3142  0.1935  0.0428
50389SOL    HW155852   6.361   9.148   5.886  0.4732  0.3237  0.0330
50389SOL    HW255853   6.416   9.007   5.887 -1.1562 -0.3366 -0.4853
50390SOL     OW55854  10.542   4.221   8.962 -0.2885  0.2550 -0.1866
50390SOL    HW155855  10.580   4.301   8.926  0.7227  0.3088  0.9677
50390SOL    HW255856  10.458   4.213   8.916 -0.0283  1.5025 -0.9422
50391SOL     OW55857   1.833   4.550   5.200  0.1483 -0.0020  0.4843
50391SOL    HW155858   1.741   4.554   5.228  0.2929  0.1810  0.9423
50391SOL    HW255859   1.862   4.641   5.203 -0.2465  0.2457 -1.7073
50392SOL     OW55860   2.664   1.165   2.622  0.0925  0.1312 -0.1073
50392SOL    HW155861   2.608   1.220   2.568  0.8591  0.8441 -0.1911
50392SOL    HW255862   2.679   1.086   2.570  0.6959  0.7425 -0.8833
50393SOL     OW55863  10.825  11.226   4.219  0.1318  0.0422  0.0759
50393SOL    HW155864  10.789  11.137   4.221  0.5638 -0.1293  1.1934
50393SOL    HW255865  10.753  11.281   4.251  0.0521  0.0163 -0.0616
50394SOL     OW55866   1.393   5.575   7.173  0.5540 -0.5795 -0.2639
50394SOL    HW155867   1.449   5.622   7.235 -1.1801 -0.6996  1.4901
50394SOL    HW255868   1.377   5.638   7.103  2.4488 -0.3849 -0.5761
50395SOL     OW55869   1.520   6.996   9.646  0.1550 -0.3400 -0.1199
50395SOL    HW155870   1.563   7.075   9.680  0.4141  0.1803 -1.5768
50395SOL    HW255871   1.525   7.006   9.551 -1.9583 -0.9543 -0.3413
50396SOL     OW55872   8.373   1.204   5.302  0.2079 -0.2286 -0.8571
50396SOL    HW155873   8.316   1.199   5.378  1.2566  1.1046  0.0646
50396SOL    HW255874   8.415   1.119   5.297  0.1389 -0.3200  0.0656
50397SOL     OW55875   9.352   9.405   9.732  0.0179  0.0948  0.1584
50397SOL    HW155876   9.296   9.419   9.808  0.8717  0.8920  0.6629
50397SOL    HW255877   9.334   9.478   9.674 -2.1716 -1.5871 -1.4291
50398SOL     OW55878   8.503   0.316   9.718  0.1874  0.2227  0.3882
50398SOL    HW155879   8.459   0.243   9.761 -0.2404  0.1800 -0.1041
50398SOL    HW255880   8.433   0.362   9.672  0.6408  0.1867 -0.3591
50399SOL     OW55881   9.321   2.908   3.942  0.0659  0.2893  0.0645
50399SOL    HW155882   9.347   2.872   3.857  1.4820 -0.6546  0.8557
50399SOL    HW255883   9.333   3.003   3.932 -0.8078  0.2929 -1.1083
50400SOL     OW55884  10.599   3.257   4.114 -0.1336  0.6071 -0.6980
50400SOL    HW155885  10.530   3.322   4.128 -1.1659 -0.6796  0.4818
50400SOL    HW255886  10.554   3.173   4.121  1.9127 -0.3799  2.4459
50401SOL     OW55887   1.780  10.763   4.224 -0.3307  0.2076 -0.1689
50401SOL    HW155888   1.698  10.716   4.206 -0.4131  0.0380  0.6378
50401SOL    HW255889   1.753  10.846   4.263 -0.2310  1.3954 -2.4508
50402SOL     OW55890   3.733   1.853   1.315 -0.2275 -0.5624  0.2090
50402SOL    HW155891   3.697   1.765   1.330  1.9153 -1.8684 -1.7025
50402SOL    HW255892   3.804   1.861   1.380 -0.2799 -0.3203  0.2370
50403SOL     OW55893   2.938   5.186   5.442  0.0657 -0.1578  0.3690
50403SOL    HW155894   2.998   5.196   5.515 -1.0484 -2.0464  1.6296
50403SOL    HW255895   2.970   5.107   5.396 -0.8715 -0.6229  0.5008
50404SOL     OW55896  10.093   7.043   6.544  0.3880  0.4163  0.1643
50404SOL    HW155897  10.151   7.038   6.621 -0.2127 -0.8730  0.5594
50404SOL    HW255898  10.135   6.987   6.479  0.4365  0.8124 -0.1508
50405SOL     OW55899   1.245   9.271  10.200  0.2306  0.5702 -0.4932
50405SOL    HW155900   1.237   9.349  10.146  0.7757  0.3572 -0.8815
50405SOL    HW255901   1.273   9.303  10.285 -1.6776  1.0286  0.0243
50406SOL     OW55902   7.532   3.072   7.777  0.0671  0.2183  0.0877
50406SOL    HW155903   7.569   3.125   7.707  1.2354 -0.2898  0.2866
50406SOL    HW255904   7.439   3.066   7.757  0.2909  0.5349 -1.1113
50407SOL     OW55905  10.294   2.464   6.086 -0.0433  0.2599  0.3926
50407SOL    HW155906  10.279   2.375   6.052  1.4419  0.3136 -0.4841
50407SOL    HW255907  10.307   2.451   6.180 -0.0253 -0.4415  0.3033
50408SOL     OW55908  11.001   7.186   6.313 -0.3346 -0.1706 -0.6905
50408SOL    HW155909  11.083   7.235   6.304  0.9748 -2.1337  0.0633
50408SOL    HW255910  10.944   7.245   6.363  1.9887 -0.2418  2.2961
50409SOL     OW55911   1.830  10.529   9.981 -0.3060  0.7330  0.0319
50409SOL    HW155912   1.876  10.450  10.009 -0.6368  0.7194  0.5491
50409SOL    HW255913   1.776  10.500   9.907 -0.6177  0.4145  0.3788
50410SOL     OW55914   0.124   1.710   0.833 -0.0783  0.3605  0.6111
50410SOL    HW155915   0.141   1.687   0.924  2.0582 -1.5582 -0.1735
50410SOL    HW255916   0.105   1.627   0.790 -0.4280  1.1500 -0.8306
50411SOL     OW55917   7.314   0.709   7.619  0.0748 -0.2588  0.6276
50411SOL    HW155918   7.328   0.756   7.536  0.9925  0.3951  1.1314
50411SOL    HW255919   7.220   0.695   7.623  0.0477 -0.6532 -0.7130
50412SOL     OW55920   9.519   9.776   2.654 -0.3017  0.2741 -0.0678
50412SOL    HW155921   9.478   9.783   2.568 -1.4693 -0.6021  0.3923
50412SOL    HW255922   9.558   9.862   2.669  0.9976  0.0900 -1.9767
50413SOL     OW55923   5.440   4.302   8.472  0.2721 -0.5378 -0.4378
50413SOL    HW155924   5.511   4.303   8.409  1.3263 -0.0061  0.7137
50413SOL    HW255925   5.380   4.370   8.442  1.0436  0.0973 -0.5674
50414SOL     OW55926   4.332   1.205   9.349 -0.3559 -0.2032 -0.3131
50414SOL    HW155927   4.316   1.212   9.443  0.5066 -0.1707 -0.1614
50414SOL    HW255928   4.334   1.296   9.319  0.3372 -0.1774 -0.1917
50415SOL     OW55929   3.585   0.860   2.839 -0.0957  0.4956 -0.0269
50415SOL    HW155930   3.556   0.772   2.865  2.2818  0.0458  1.3866
50415SOL    HW255931   3.607   0.904   2.921 -1.0111  2.3764 -0.7229
50416SOL     OW55932   7.856   2.722   4.559  0.1550  0.0646 -0.2827
50416SOL    HW155933   7.830   2.679   4.478  1.1237  1.5420 -1.4316
50416SOL    HW255934   7.783   2.706   4.619 -2.1467  1.6610 -2.4632
50417SOL     OW55935   4.309   0.647   6.599  0.5064 -0.2860  0.1655
50417SOL    HW155936   4.283   0.714   6.536  0.6097 -0.7143 -0.3412
50417SOL    HW255937   4.364   0.693   6.663 -2.4537  0.9613  2.0183
50418SOL     OW55938   2.286  10.971   8.497  0.0896  0.0095 -0.1882
50418SOL    HW155939   2.281  10.933   8.409 -0.2422  1.3377 -0.7726
50418SOL    HW255940   2.196  10.972   8.528  0.1880 -0.3246  0.1140
50419SOL     OW55941   2.812   0.967   8.873 -0.7270 -0.5553 -0.6857
50419SOL    HW155942   2.820   1.050   8.825 -1.4434 -0.3719 -0.5042
50419SOL    HW255943   2.718   0.949   8.873 -0.5253 -1.7467 -1.3466
50420SOL     OW55944  10.810   9.778  10.133  0.1300 -0.2815  0.0076
50420SOL    HW155945  10.760   9.816  10.061  1.8354 -0.0310 -1.1075
50420SOL    HW255946  10.790   9.684  10.128 -1.0709 -0.0529  0.2935
50421SOL     OW55947   7.758   3.911   8.672 -0.2664  0.0568  0.7504
50421SOL    HW155948   7.801   3.883   8.592  0.9309 -0.9288  1.7130
50421SOL    HW255949   7.752   4.006   8.664  1.3226  0.1355  0.2031
50422SOL     OW55950   4.366   6.225   4.069  0.0621  0.1476  0.2313
50422SOL    HW155951   4.460   6.238   4.058  0.3845 -1.1736  1.2452
50422SOL    HW255952   4.347   6.145   4.020 -0.6798  0.7532 -0.5120
50423SOL     OW55953  11.851   1.590   1.228  0.1810 -0.0124 -0.2248
50423SOL    HW155954  11.774   1.593   1.285 -0.6604 -0.6225 -1.2928
50423SOL    HW255955  11.923   1.622   1.284 -0.6752 -0.1932  1.0372
50424SOL     OW55956   0.875   0.710   5.632  0.4373 -0.0919 -0.1622
50424SOL    HW155957   0.958   0.694   5.678  0.9240  1.6386 -0.3697
50424SOL    HW255958   0.897   0.705   5.540  0.0834 -0.6311 -0.2209
50425SOL     OW55959   7.851   2.858  11.760  0.4566 -0.0097 -0.0386
50425SOL    HW155960   7.769   2.819  11.727 -0.9330  3.5870 -1.3755
50425SOL    HW255961   7.825   2.903  11.840  1.5311 -0.2043  0.4270
50426SOL     OW55962   2.921   6.941   5.182 -0.4391  0.2494  0.2554
50426SOL    HW155963   2.899   7.009   5.246  0.5194  0.0140  0.8662
50426SOL    HW255964   2.882   6.971   5.100 -0.3545  1.3446  0.5986
50427SOL     OW55965   4.829   3.395   5.056 -0.2243 -0.0147 -0.3300
50427SOL    HW155966   4.892   3.466   5.066 -0.2123 -0.1956  1.1805
50427SOL    HW255967   4.849   3.357   4.971  1.7527 -0.0952  0.1205
50428SOL     OW55968   1.459   7.466   7.767 -1.0730 -0.0485 -0.2273
50428SOL    HW155969   1.411   7.540   7.730 -1.7346 -1.3051 -2.0152
50428SOL    HW255970   1.426   7.389   7.719 -0.8699 -1.6085  1.9778
50429SOL     OW55971   4.145   7.492   3.986  0.3057 -0.2647  0.3496
50429SOL    HW155972   4.212   7.424   3.976 -1.2879 -1.9132  0.4142
50429SOL    HW255973   4.062   7.448   3.968 -0.7708  1.8213 -0.2231
50430SOL     OW55974   3.055   9.545   5.954 -0.7731  0.0722 -0.3080
50430SOL    HW155975   3.007   9.481   6.005 -1.7418  0.0790 -1.1752
50430SOL    HW255976   3.142   9.507   5.943 -1.6301 -1.6095 -1.6894
50431SOL     OW55977   3.373   0.069   9.743 -0.4053  0.1146  0.3324
50431SOL    HW155978   3.345   0.137   9.681 -4.0480  0.8934  2.5547
50431SOL    HW255979   3.407   0.117   9.818  2.3924 -0.7987 -0.2084
50432SOL     OW55980   1.131   8.306   9.824 -0.0420 -0.1426  0.1854
50432SOL    HW155981   1.225   8.313   9.805  0.4749 -0.8783  2.1268
50432SOL    HW255982   1.106   8.219   9.792  0.5211 -0.8641  1.5751
50433SOL     OW55983   2.153   7.174   2.551 -0.2537 -0.0366 -0.1759
50433SOL    HW155984   2.141   7.099   2.609 -1.4872 -0.2442 -0.6732
50433SOL    HW255985   2.193   7.137   2.472  0.9794  0.1706  0.3220
50434SOL     OW55986   1.495   9.335   2.820 -0.4572  0.2740 -0.1690
50434SOL    HW155987   1.476   9.427   2.839  1.4780  0.5028  0.9953
50434SOL    HW255988   1.571   9.338   2.762 -0.9805 -0.6067 -0.9244
50435SOL     OW55989   7.898   8.177  11.968  0.4022 -0.1543 -0.4003
50435SOL    HW155990   7.884   8.088  11.934 -0.0363 -1.1148  2.0388
50435SOL    HW255991   7.994   8.186  11.971  0.4850 -1.0291  0.3569
50436SOL     OW55992   9.565   2.965  10.693 -0.0312 -0.3947  0.0680
50436SOL    HW155993   9.648   2.988  10.734  0.2962 -1.2373 -0.1061
50436SOL    HW255994   9.562   3.019  10.614  0.3999 -0.4335  0.0212
50437SOL     OW55995   1.523   3.646  10.092  0.1055 -0.2714 -0.1041
50437SOL    HW155996   1.569   3.682  10.016  0.9867 -2.3896 -0.6536
50437SOL    HW255997   1.432   3.637  10.064 -0.1900  1.6232  0.1271
50438SOL     OW55998   1.141   2.090   2.469  0.6224 -0.0422  0.1300
50438SOL    HW155999   1.100   2.148   2.533  0.3785 -1.6125  1.4614
50438SOL    HW256000   1.227   2.129   2.454  0.5829  0.5054  1.2219
50439SOL     OW56001   2.407   2.609   7.926 -0.0996 -0.1415 -0.6919
50439SOL    HW156002   2.354   2.533   7.901 -1.5921  0.2741  0.9613
50439SOL    HW256003   2.426   2.595   8.019  2.8362 -0.2850 -1.2109
50440SOL     OW56004   0.531  10.978   3.457 -0.0892 -0.3018 -0.4583
50440SOL    HW156005   0.488  10.980   3.371 -0.6445  2.1931 -0.1833
50440SOL    HW256006   0.504  10.894   3.495 -0.4257 -1.1424 -2.3845
50441SOL     OW56007   6.331   5.853   4.928 -0.0613  0.2488 -0.9674
50441SOL    HW156008   6.304   5.851   5.020 -0.4311  0.7467 -1.0628
50441SOL    HW256009   6.411   5.801   4.926 -0.3620 -0.2490 -0.4676
50442SOL     OW56010   2.348  12.000   5.373 -0.2186 -0.0549  0.7945
50442SOL    HW156011   2.413  12.066   5.347 -0.0455 -0.8510 -0.9554
50442SOL    HW256012   2.373  11.976   5.462  1.0515  0.6462  0.6630
50443SOL     OW56013   8.214   8.989   5.525 -0.0192  0.3143 -0.0804
50443SOL    HW156014   8.140   8.946   5.483  0.5551  1.3539 -2.2853
50443SOL    HW256015   8.278   8.919   5.538 -0.5035 -0.1668 -0.2394
50444SOL     OW56016   9.689   4.773   9.846  0.4371 -0.0629  0.1753
50444SOL    HW156017   9.737   4.825   9.910  0.5412  0.3139 -0.2062
50444SOL    HW256018   9.714   4.682   9.866  0.4646  0.0463  0.6671
50445SOL     OW56019  10.060   1.632   8.458  0.2006  0.3989 -0.5347
50445SOL    HW156020   9.995   1.574   8.418  0.2216 -0.2627  0.3668
50445SOL    HW256021  10.092   1.584   8.534  0.0955  1.6604  0.3412
50446SOL     OW56022   1.759   5.377   7.460  0.3067  0.7854  0.9343
50446SOL    HW156023   1.811   5.312   7.507  1.9357 -1.0978 -3.0144
50446SOL    HW256024   1.708   5.326   7.397 -1.7958  3.0816  0.6394
50447SOL     OW56025   1.790   5.885   6.372 -0.8704  0.0332 -0.2107
50447SOL    HW156026   1.738   5.871   6.292 -0.9921  2.5024 -0.6462
50447SOL    HW256027   1.869   5.930   6.341 -0.1801 -0.3866  0.8987
50448SOL     OW56028   6.058   4.343   5.165 -0.5225 -0.3123  0.2124
50448SOL    HW156029   6.064   4.439   5.166  0.9111 -0.3775  1.3301
50448SOL    HW256030   5.967   4.324   5.188 -0.0315  0.7844  3.6624
50449SOL     OW56031   2.418   5.958   7.366 -0.3838  0.7359 -0.1908
50449SOL    HW156032   2.355   5.897   7.404 -1.5923  0.4863 -2.4013
50449SOL    HW256033   2.499   5.908   7.359 -0.9391 -0.1355 -0.5476
50450SOL     OW56034   3.275   4.172   8.890  0.0665  0.0417 -0.3273
50450SOL    HW156035   3.301   4.117   8.817 -0.7591 -0.9975  0.1378
50450SOL    HW256036   3.215   4.236   8.853  0.0315 -0.1719 -0.6346
50451SOL     OW56037   1.979   3.588  11.762  0.3933 -0.4092 -0.4818
50451SOL    HW156038   1.907   3.548  11.812 -0.1299 -0.3110 -1.1418
50451SOL    HW256039   2.001   3.667  11.811 -0.9700  0.3576 -1.0640
50452SOL     OW56040   9.564   0.106   7.365  0.1302 -0.1031  0.2303
50452SOL    HW156041   9.639   0.115   7.424  0.3211 -1.2508  0.1813
50452SOL    HW256042   9.545   0.196   7.337  1.4560  0.2134  0.2778
50453SOL     OW56043   1.199   3.557   2.537 -0.4441 -0.4177 -0.5607
50453SOL    HW156044   1.202   3.463   2.552 -0.1988 -0.3543 -0.1745
50453SOL    HW256045   1.265   3.593   2.596 -1.4630  0.1132  0.3110
50454SOL     OW56046   1.327   5.802   3.597 -0.0764  0.1069  0.1541
50454SOL    HW156047   1.270   5.745   3.648  0.2587 -0.5578 -0.2071
50454SOL    HW256048   1.406   5.813   3.650  0.0856 -0.2140 -0.0209
50455SOL     OW56049  11.690   2.335   8.281  0.2966 -0.1121 -0.3490
50455SOL    HW156050  11.672   2.251   8.239  0.0064 -0.1773 -0.1023
50455SOL    HW256051  11.605   2.380   8.282  0.4644  0.2107 -0.5371
50456SOL     OW56052   2.362   3.331   5.560  0.2103 -0.4253  0.2611
50456SOL    HW156053   2.449   3.360   5.588 -0.3876  1.0472  0.6731
50456SOL    HW256054   2.379   3.266   5.492  1.6352 -0.7462  0.8955
50457SOL     OW56055   6.316  11.412   8.301  0.1327  0.7453 -0.7062
50457SOL    HW156056   6.266  11.391   8.380 -0.5320 -1.8399 -1.7208
50457SOL    HW256057   6.400  11.443   8.333  0.2710 -1.2568  1.0442
50458SOL     OW56058  10.891   9.124   0.784 -0.3578 -1.0178  0.2114
50458SOL    HW156059  10.870   9.041   0.741 -1.1125  0.5758 -2.7970
50458SOL    HW256060  10.806   9.165   0.799  0.0359  0.4969 -1.3055
50459SOL     OW56061   0.299  10.846  10.020 -0.1182  0.2501 -0.5957
50459SOL    HW156062   0.301  10.750  10.017  2.4589  0.2216  0.0183
50459SOL    HW256063   0.240  10.866  10.093  0.8224 -0.9600  0.5437
50460SOL     OW56064   6.002   3.728   7.193 -0.6368  0.1093  0.4184
50460SOL    HW156065   5.940   3.740   7.121 -0.4798 -0.8411  0.1098
50460SOL    HW256066   5.951   3.686   7.262 -0.0745 -1.9020 -0.3166
50461SOL     OW56067   9.231   6.758   6.637 -0.1636 -0.2830 -0.0320
50461SOL    HW156068   9.190   6.804   6.711  0.3329 -1.8825  1.2860
50461SOL    HW256069   9.182   6.676   6.630 -0.4148 -0.0368 -1.7398
50462SOL     OW56070   0.200   1.105   6.507  0.2583 -0.4387  0.0887
50462SOL    HW156071   0.232   1.185   6.464 -0.1564 -1.4428 -2.2255
50462SOL    HW256072   0.256   1.095   6.583 -0.3380  2.6098  1.0688
50463SOL     OW56073   2.207   7.787  10.647  0.1853 -0.0046 -0.2914
50463SOL    HW156074   2.152   7.815  10.721 -0.0569 -0.5051 -0.2764
50463SOL    HW256075   2.243   7.868  10.612 -1.2177  0.4114 -0.8234
50464SOL     OW56076   5.007   1.163   3.979  0.4356 -0.1153 -0.1552
50464SOL    HW156077   4.926   1.176   3.930  0.8213 -0.9554 -1.0520
50464SOL    HW256078   5.039   1.252   3.996  0.9496  0.2346 -2.5857
50465SOL     OW56079   4.456   8.336   5.975 -0.0638  0.1452  0.0931
50465SOL    HW156080   4.429   8.385   5.897 -1.0488 -1.0626 -0.3606
50465SOL    HW256081   4.493   8.402   6.033  1.1911  1.0294 -1.5936
50466SOL     OW56082   4.981   3.477  11.666  0.1260  1.1050  0.4316
50466SOL    HW156083   4.997   3.464  11.572 -0.2431 -1.8090  0.6949
50466SOL    HW256084   4.901   3.530  11.668 -0.3842  0.4453 -0.9218
50467SOL     OW56085   7.600  11.765   4.645  0.2530 -0.3066  0.1230
50467SOL    HW156086   7.556  11.799   4.723  0.4200 -1.8048  0.9069
50467SOL    HW256087   7.679  11.818   4.636  1.4567 -1.5636  2.3958
50468SOL     OW56088   3.119   7.417   1.525 -0.0657  0.1106 -0.3083
50468SOL    HW156089   3.074   7.397   1.607 -1.6941 -0.0229 -1.1922
50468SOL    HW256090   3.050   7.419   1.459  1.4356 -1.8955 -2.0743
50469SOL     OW56091  11.582   7.448   4.095  0.4808 -0.1931 -0.0239
50469SOL    HW156092  11.640   7.508   4.142  1.3116 -2.7155  2.4232
50469SOL    HW256093  11.613   7.361   4.120 -2.7486 -1.6616 -0.7273
50470SOL     OW56094   7.370   7.361   1.741  0.0879  0.0846 -0.3745
50470SOL    HW156095   7.335   7.438   1.695  0.8368 -0.1893 -1.4596
50470SOL    HW256096   7.462   7.383   1.758 -0.6148  0.9733  2.8226
50471SOL     OW56097  10.666   4.481   0.886  0.3621 -0.3749  0.1246
50471SOL    HW156098  10.739   4.506   0.830  1.5712  0.3136  1.9254
50471SOL    HW256099  10.692   4.508   0.974 -0.9108 -2.5485  1.2653
50472SOL     OW56100  11.529   2.097   1.292  0.5323  0.0930  0.0891
50472SOL    HW156101  11.580   2.027   1.333 -0.3728 -0.7177 -0.1467
50472SOL    HW256102  11.483   2.055   1.220  0.5253  1.0889 -0.5137
50473SOL     OW56103  11.372   2.213  10.758 -0.3064 -0.1338 -0.2133
50473SOL    HW156104  11.350   2.137  10.705  1.0337  0.3174 -1.4873
50473SOL    HW256105  11.294   2.268  10.755 -0.8527 -0.9048 -0.2768
50474SOL     OW56106  10.962   7.252   3.296 -0.2673 -0.0039 -0.1986
50474SOL    HW156107  10.900   7.250   3.369 -0.4160  0.8932 -0.2869
50474SOL    HW256108  10.922   7.313   3.234  1.5461  2.0367  0.5216
50475SOL     OW56109   5.987   4.307   2.265  0.0124 -0.6179  0.4314
50475SOL    HW156110   6.013   4.284   2.354 -0.6201  0.8389  1.0218
50475SOL    HW256111   6.067   4.300   2.214  0.9717  0.9946  1.6367
50476SOL     OW56112   1.529   6.699   3.108 -0.5848  0.1590  0.6526
50476SOL    HW156113   1.468   6.710   3.181 -1.2380  1.4492 -0.0551
50476SOL    HW256114   1.489   6.630   3.054  0.0267 -0.9793  1.6017
50477SOL     OW56115   6.707   4.145   5.903  0.0689 -0.1507  0.1312
50477SOL    HW156116   6.684   4.152   5.811 -0.5899 -1.2229  0.1953
50477SOL    HW256117   6.659   4.068   5.934  1.0780 -0.4102  1.1231
50478SOL     OW56118   6.963   8.980   8.766  0.4182 -0.1307  0.1687
50478SOL    HW156119   7.014   9.007   8.690  2.9568 -2.2506  0.9934
50478SOL    HW256120   6.974   9.052   8.828 -0.1180  0.7696 -0.7482
50479SOL     OW56121   5.086  11.542   6.727  0.1687  0.4785  0.3808
50479SOL    HW156122   5.145  11.521   6.655  2.1636  0.6521  1.8916
50479SOL    HW256123   5.002  11.504   6.700  0.6332  1.1454 -2.3175
50480SOL     OW56124   6.121   3.748   4.486  0.2511 -0.1679 -0.2942
50480SOL    HW156125   6.206   3.733   4.526  0.1068  1.2215  0.5861
50480SOL    HW256126   6.058   3.728   4.555 -0.0628  0.6646 -0.3313
50481SOL     OW56127  10.845   7.499   6.841 -0.2864  0.1803  0.1531
50481SOL    HW156128  10.803   7.468   6.761 -0.5023  0.1828  0.2653
50481SOL    HW256129  10.902   7.427   6.868 -1.5635 -0.5517  0.9809
50482SOL     OW56130   5.277   9.586   3.150 -0.8173  0.5483 -0.1352
50482SOL    HW156131   5.353   9.643   3.157  0.7005 -1.2764 -0.9599
50482SOL    HW256132   5.205   9.645   3.125  0.5665  2.1484 -0.5442
50483SOL     OW56133   7.575   9.734   8.867 -0.3884 -0.6509 -0.6629
50483SOL    HW156134   7.601   9.687   8.947 -0.8343  0.1290 -0.0402
50483SOL    HW256135   7.479   9.736   8.871 -0.3818  1.9098  0.3310
50484SOL     OW56136   4.035   1.398   0.803 -0.1905  0.6299  0.2101
50484SOL    HW156137   3.999   1.323   0.755 -1.8961  1.4747  0.1076
50484SOL    HW256138   3.963   1.430   0.856  0.9862  1.2161  1.5307
50485SOL     OW56139   4.646   6.926   1.789  0.4198 -0.1683 -0.5793
50485SOL    HW156140   4.643   6.951   1.881  1.6201  1.2413 -0.8897
50485SOL    HW256141   4.557   6.938   1.757 -0.0742 -0.9520  0.4517
50486SOL     OW56142   4.907   7.612   1.896 -0.6437  0.4945  0.2498
50486SOL    HW156143   4.881   7.576   1.981 -1.9936 -1.1830 -0.8289
50486SOL    HW256144   4.904   7.538   1.836 -0.5564  1.8241 -1.4572
50487SOL     OW56145   5.226   4.408   2.298  0.2101  0.1242 -0.1955
50487SOL    HW156146   5.174   4.467   2.244  0.0504 -0.6008 -0.8551
50487SOL    HW256147   5.277   4.357   2.236  0.3888 -0.3887  0.3613
50488SOL     OW56148   4.957   2.048   9.061 -0.2438 -0.6398 -0.0502
50488SOL    HW156149   5.022   2.112   9.089  1.2909 -2.1889  0.1329
50488SOL    HW256150   4.980   2.029   8.969 -1.9225  0.4990 -0.7423
50489SOL     OW56151   8.047   8.095   9.103  0.5203 -0.1502 -0.4544
50489SOL    HW156152   8.109   8.101   9.176 -1.5884 -0.4775  1.4498
50489SOL    HW256153   8.005   8.010   9.114 -1.2044  0.6134 -0.9199
50490SOL     OW56154  11.131   0.956   8.783 -0.3591 -0.0253 -0.6402
50490SOL    HW156155  11.138   0.919   8.871  0.1912  1.8608  0.1688
50490SOL    HW256156  11.211   0.928   8.739  0.7348  1.2903  0.4238
50491SOL     OW56157   0.515   6.860  11.147 -0.3309  0.1170  0.3774
50491SOL    HW156158   0.571   6.901  11.082 -1.4727 -0.2384 -0.8729
50491SOL    HW256159   0.572   6.847  11.223  1.3563 -0.4840 -0.9298
50492SOL     OW56160  10.447   3.633   2.192  0.1628 -0.0418  0.0896
50492SOL    HW156161  10.518   3.679   2.148 -1.4949  0.6012 -2.0853
50492SOL    HW256162  10.408   3.699   2.249 -1.4880  1.0872 -2.1733
50493SOL     OW56163   4.101   9.728   1.527  0.1459 -0.1219  0.0600
50493SOL    HW156164   4.143   9.788   1.589 -1.4729  2.5413 -1.2739
50493SOL    HW256165   4.137   9.752   1.442 -1.3777 -0.2393 -0.6526
50494SOL     OW56166   6.764   1.029   7.068 -0.0834  0.1207 -0.0095
50494SOL    HW156167   6.841   0.973   7.074 -0.6139 -0.6058  0.1110
50494SOL    HW256168   6.743   1.050   7.160 -1.4573 -1.6885  0.1466
50495SOL     OW56169   1.204  10.911   4.896  0.3296  0.2285  0.0803
50495SOL    HW156170   1.204  10.920   4.992  1.5015 -1.0732  0.2433
50495SOL    HW256171   1.114  10.926   4.870 -0.3101 -0.7986  1.5639
50496SOL     OW56172   6.265   4.214   6.551  0.0885 -0.2757 -0.5278
50496SOL    HW156173   6.215   4.250   6.624  2.1845  0.9058  0.3972
50496SOL    HW256174   6.276   4.121   6.573 -0.4288 -0.2238 -0.0215
50497SOL     OW56175  10.156   4.691   9.653  0.2149  0.2258  0.3688
50497SOL    HW156176  10.096   4.617   9.643  1.1985 -0.3498 -2.0740
50497SOL    HW256177  10.230   4.670   9.596  1.4167  2.2229  1.0767
50498SOL     OW56178   1.502   3.917   9.207  0.1830 -0.0378 -0.1039
50498SOL    HW156179   1.532   3.997   9.162 -0.1648  0.2123  0.1038
50498SOL    HW256180   1.475   3.859   9.136  0.1965  0.1270 -0.2460
50499SOL     OW56181   8.257   3.088   7.637  0.0446  0.1110  0.1683
50499SOL    HW156182   8.297   3.005   7.663  2.6848  1.7121  1.6763
50499SOL    HW256183   8.208   3.116   7.714  1.2070  1.0730  0.5786
50500SOL     OW56184   2.065   0.070   2.892  0.1746 -0.2599 -0.5876
50500SOL    HW156185   2.093   0.158   2.867 -1.5059  0.0466 -1.4776
50500SOL    HW256186   1.997   0.084   2.958 -0.2045 -0.8930 -0.8385
50501SOL     OW56187   0.191   2.071   0.381 -0.3688 -0.1200  0.1314
50501SOL    HW156188   0.284   2.058   0.397 -0.4889  0.1885  1.1589
50501SOL    HW256189   0.187   2.119   0.298  0.2944 -1.7059 -0.8623
50502SOL     OW56190   1.750   4.884   2.498  0.3828 -0.2101 -0.1274
50502SOL    HW156191   1.692   4.819   2.459 -0.3790 -0.5421  1.4693
50502SOL    HW256192   1.837   4.845   2.493  0.0990 -0.8459 -0.2222
50503SOL     OW56193   1.047   2.434   3.305 -0.0270 -0.2244 -0.6596
50503SOL    HW156194   1.082   2.463   3.388  1.6260 -1.4901 -0.8576
50503SOL    HW256195   1.034   2.339   3.316 -0.3217 -0.3179 -1.6563
50504SOL     OW56196   4.616   4.683   8.751 -0.6459 -0.3283  0.1459
50504SOL    HW156197   4.619   4.761   8.697 -0.6204 -0.4465 -0.0224
50504SOL    HW256198   4.700   4.682   8.797 -0.6914 -0.1967  0.2329
50505SOL     OW56199   1.680   2.276   4.722 -0.4245 -0.0262  0.1299
50505SOL    HW156200   1.586   2.293   4.718 -0.4395  0.0132  0.5422
50505SOL    HW256201   1.718   2.358   4.752 -0.4269 -0.4797  1.4722
50506SOL     OW56202   4.597   3.812   1.619 -0.0297 -0.3361 -0.2010
50506SOL    HW156203   4.651   3.890   1.604  0.4705 -0.3335  1.3841
50506SOL    HW256204   4.631   3.747   1.557  0.7388  0.1637 -0.3207
50507SOL     OW56205   0.306   6.864   5.533 -0.0088 -0.4412 -0.0716
50507SOL    HW156206   0.258   6.866   5.449 -1.5580  1.4079  0.7845
50507SOL    HW256207   0.241   6.833   5.596  1.5325 -3.1909  0.3167
50508SOL     OW56208   9.730   3.269   5.866  0.3252 -0.7062 -0.0554
50508SOL    HW156209   9.690   3.191   5.904  3.3737 -2.1673  0.4360
50508SOL    HW256210   9.720   3.258   5.772  1.0887 -1.9647 -0.0164
50509SOL     OW56211   0.252   1.540   7.051  0.1751  0.0253  0.1702
50509SOL    HW156212   0.174   1.547   6.996  1.5045  0.4402 -1.7640
50509SOL    HW256213   0.276   1.448   7.048  0.7101  0.1804 -0.6677
50510SOL     OW56214   5.701   0.504   1.285 -0.0005  0.2658  0.2718
50510SOL    HW156215   5.653   0.424   1.305  0.0652  0.5496  1.6260
50510SOL    HW256216   5.636   0.562   1.244 -0.6122  0.3280  1.3114
50511SOL     OW56217   9.029   4.422   4.417 -0.1967  0.3637  0.1087
50511SOL    HW156218   8.993   4.351   4.471  1.0928 -0.3010  0.1153
50511SOL    HW256219   8.958   4.442   4.355 -0.1881 -1.7366 -0.6648
50512SOL     OW56220   6.084   0.965  11.668  0.2903  0.2066 -0.0998
50512SOL    HW156221   6.009   0.978  11.610 -0.6079  2.0959  1.3500
50512SOL    HW256222   6.052   0.904  11.735  0.2896  0.4076  0.0855
50513SOL     OW56223  10.415  10.601   4.806  0.7453  0.2558  0.8364
50513SOL    HW156224  10.335  10.649   4.783  0.6758 -0.3090 -0.1527
50513SOL    HW256225  10.483  10.642   4.753  0.9136  0.0245  0.8762
50514SOL     OW56226   8.448   0.474  10.099  0.7958  0.0899  0.0287
50514SOL    HW156227   8.457   0.492  10.193  1.8980  4.3811 -0.6873
50514SOL    HW256228   8.368   0.520  10.074  2.1208  1.6631 -1.5652
50515SOL     OW56229  11.510   3.259   8.703  0.1170  0.1226 -0.0770
50515SOL    HW156230  11.471   3.259   8.791 -2.2162 -2.2268 -0.9847
50515SOL    HW256231  11.586   3.201   8.710  1.1060  1.4533  0.7583
50516SOL     OW56232  10.403   4.622   8.010  0.3003 -0.3143  0.0073
50516SOL    HW156233  10.430   4.692   8.070 -3.2575  0.7543  0.5962
50516SOL    HW256234  10.444   4.543   8.044 -0.2626  0.5406  2.9104
50517SOL     OW56235   3.619   1.454  11.561  0.1361 -0.4707 -0.6798
50517SOL    HW156236   3.562   1.389  11.520  0.3656 -0.2542 -1.3516
50517SOL    HW256237   3.604   1.534  11.511 -0.9515  0.2993  0.8053
50518SOL     OW56238   9.698   4.865   7.853 -0.7082 -0.3520 -0.4571
50518SOL    HW156239   9.687   4.787   7.799  0.2680 -0.0746 -1.0677
50518SOL    HW256240   9.707   4.937   7.791 -1.4757  0.2453  0.0960
50519SOL     OW56241  10.601   2.629  11.845 -0.0484 -0.0218 -0.1267
50519SOL    HW156242  10.518   2.639  11.797  1.5793  1.1124 -3.0080
50519SOL    HW256243  10.639   2.717  11.845  0.5201 -0.1754  2.5530
50520SOL     OW56244   4.132   3.825   9.816 -0.1817 -0.1510  0.0153
50520SOL    HW156245   4.106   3.772   9.741  1.0935 -0.9753  0.1325
50520SOL    HW256246   4.196   3.772   9.863  0.4351  1.1053  0.6600
50521SOL     OW56247   8.448   5.615   7.779  0.0999  0.1132 -0.5487
50521SOL    HW156248   8.356   5.594   7.792  0.1143  0.0679 -0.5206
50521SOL    HW256249   8.459   5.702   7.818  0.8136 -1.2371  2.6367
50522SOL     OW56250   9.236   4.156  11.943  0.1096 -0.4922  1.0553
50522SOL    HW156251   9.205   4.068  11.923 -0.7383  0.0807 -0.3387
50522SOL    HW256252   9.159   4.201  11.980  0.0651  0.1032  0.2772
50523SOL     OW56253  11.363   6.372  11.468 -0.8281 -0.1298 -0.1367
50523SOL    HW156254  11.420   6.382  11.392 -0.1364 -0.1415  0.3650
50523SOL    HW256255  11.424   6.352  11.540 -1.3378  1.1309  0.6681
50524SOL     OW56256   1.532  10.503   9.031 -0.2101 -0.0514 -0.3298
50524SOL    HW156257   1.440  10.481   9.016 -0.3001  0.3519 -0.3770
50524SOL    HW256258   1.576  10.477   8.950 -0.7155  2.2472 -1.4150
50525SOL     OW56259   0.951   3.147   7.623 -0.0520  0.4852  0.0591
50525SOL    HW156260   0.864   3.125   7.591 -0.1578 -2.3876  1.9479
50525SOL    HW256261   1.006   3.073   7.597  1.3904  1.3533  0.5118
50526SOL     OW56262   3.017   9.433   5.252  0.2211  0.2119 -0.0093
50526SOL    HW156263   3.082   9.503   5.251 -0.0768  0.4878 -0.2205
50526SOL    HW256264   2.950   9.461   5.189 -0.1602 -0.0123  0.2914
50527SOL     OW56265   2.739   6.134   9.915 -0.1550 -0.1563 -0.7251
50527SOL    HW156266   2.728   6.070   9.985  1.5118  1.0970  0.8005
50527SOL    HW256267   2.670   6.198   9.930  0.5290  0.4008  0.1757
50528SOL     OW56268   4.851   0.651   4.344 -0.9466  0.9460 -0.2099
50528SOL    HW156269   4.904   0.601   4.282 -1.1526 -1.1066  1.1687
50528SOL    HW256270   4.903   0.652   4.425 -2.9732 -1.3161  1.2494
50529SOL     OW56271   3.524   2.423   5.751 -0.1254 -0.0941  0.6563
50529SOL    HW156272   3.569   2.340   5.765 -0.6192 -0.2886  1.1735
50529SOL    HW256273   3.440   2.411   5.796 -0.0060  0.8525  1.1520
50530SOL     OW56274   0.010   4.383   2.734  0.0989 -0.2438  0.2202
50530SOL    HW156275   0.050   4.469   2.747 -2.0766  0.8317  0.2148
50530SOL    HW256276   0.022   4.365   2.641  3.7609 -1.7266  0.8020
50531SOL     OW56277  10.269  11.687   3.089  0.5290  0.2908  0.3217
50531SOL    HW156278  10.280  11.617   3.153  0.4831 -0.4514 -0.4586
50531SOL    HW256279  10.178  11.678   3.059  0.1297  1.4816  1.1147
50532SOL     OW56280   7.432   3.630   4.864 -0.3723 -0.5232 -0.4829
50532SOL    HW156281   7.494   3.612   4.793  0.3802 -1.1739  0.3176
50532SOL    HW256282   7.388   3.547   4.879  0.3337 -0.7265  0.6035
50533SOL     OW56283   0.437   8.916   4.497 -0.3782 -0.1010  1.0319
50533SOL    HW156284   0.425   8.824   4.518 -0.8082 -0.6762 -1.4339
50533SOL    HW256285   0.373   8.962   4.552 -0.8837 -1.3670  1.5356
50534SOL     OW56286   5.773   2.684  11.284 -0.0868 -0.2700 -0.4637
50534SOL    HW156287   5.814   2.707  11.367 -0.1633 -1.3887 -0.0959
50534SOL    HW256288   5.837   2.710  11.218  0.6758 -0.8049  0.0368
50535SOL     OW56289   7.184   7.823   3.736  0.0169 -0.1843  0.4384
50535SOL    HW156290   7.232   7.820   3.819  1.0477  2.6279  0.0463
50535SOL    HW256291   7.253   7.814   3.670 -0.5480 -0.3336 -0.1330
50536SOL     OW56292   9.440   2.376   8.923  0.7841  0.0674  0.4085
50536SOL    HW156293   9.529   2.410   8.925  0.7077  0.3527 -0.5196
50536SOL    HW256294   9.386   2.451   8.948  0.6567  0.5078 -1.1062
50537SOL     OW56295   4.834  11.938   2.277 -0.0261 -0.3280  0.0352
50537SOL    HW156296   4.785  12.017   2.300  0.0066 -0.6232  1.1538
50537SOL    HW256297   4.883  11.916   2.356  0.1904 -1.3075 -0.3594
50538SOL     OW56298   9.902   7.531   4.244  0.2236  0.3215 -0.3442
50538SOL    HW156299   9.947   7.601   4.195  0.7842  0.3202  0.1577
50538SOL    HW256300   9.942   7.533   4.331  0.5339 -0.8766 -0.4362
50539SOL     OW56301  11.212   9.086   0.734 -0.4454  0.5840 -0.2273
50539SOL    HW156302  11.136   9.143   0.719 -0.3199  0.7515 -0.2253
50539SOL    HW256303  11.206   9.063   0.827  0.6430  2.2585  0.3039
50540SOL     OW56304   1.330   7.694   7.718  0.3444 -0.5094 -1.1593
50540SOL    HW156305   1.307   7.746   7.641  1.8413  0.1442 -1.2149
50540SOL    HW256306   1.246   7.666   7.755 -0.5083  1.6199 -1.3656
50541SOL     OW56307   9.960   8.577   6.812 -0.0276  0.4765 -0.0986
50541SOL    HW156308   9.919   8.564   6.726 -1.7813 -0.7044  0.8487
50541SOL    HW256309   9.914   8.516   6.870 -0.1229  2.4555  2.0690
50542SOL     OW56310   1.448   6.371   9.320  0.3610 -0.2176  0.6921
50542SOL    HW156311   1.494   6.336   9.244  3.2364  0.9761  1.7230
50542SOL    HW256312   1.360   6.391   9.289  0.9154 -1.3513 -1.8107
50543SOL     OW56313   8.489   5.533  10.233 -0.3238 -0.4271 -0.3724
50543SOL    HW156314   8.454   5.473  10.300  1.5596  0.5674  1.6202
50543SOL    HW256315   8.419   5.596  10.219 -0.5802 -0.3694  1.0569
50544SOL     OW56316   5.656   1.419   2.052 -0.1420  0.1787 -0.3628
50544SOL    HW156317   5.588   1.477   2.020 -0.8650 -0.1373  0.5502
50544SOL    HW256318   5.732   1.438   1.997 -0.4670  1.7157 -0.3242
50545SOL     OW56319   4.035   7.684   0.797 -0.2552  0.5154 -0.1587
50545SOL    HW156320   4.116   7.692   0.747  0.5632 -2.7688  0.4353
50545SOL    HW256321   3.980   7.626   0.746 -2.0486  2.1506 -0.2114
50546SOL     OW56322   8.797   2.832   8.899  0.7579  0.0822  0.1914
50546SOL    HW156323   8.825   2.848   8.989  0.3056  2.3661  0.0041
50546SOL    HW256324   8.831   2.907   8.850 -0.8525  0.0334 -1.0951
50547SOL     OW56325   7.507   8.442   5.712  0.0770 -0.1875  0.3807
50547SOL    HW156326   7.459   8.476   5.637  0.1847  1.0536  0.8390
50547SOL    HW256327   7.511   8.348   5.698  1.2154  0.1345 -1.8201
50548SOL     OW56328   6.987   5.399  11.499  0.0735  0.0574  0.3871
50548SOL    HW156329   7.034   5.324  11.461  0.8984  0.0691  1.3528
50548SOL    HW256330   6.985   5.464  11.429 -0.5395 -0.8074 -0.4199
50549SOL     OW56331  11.274   1.260   6.113 -0.4521  0.0555  0.5435
50549SOL    HW156332  11.290   1.166   6.106  0.0986  0.1237  0.8940
50549SOL    HW256333  11.203   1.276   6.051  1.1085 -0.1753 -1.4149
50550SOL     OW56334   6.217   1.710   6.757  0.1895 -0.2303 -0.1186
50550SOL    HW156335   6.163   1.636   6.731  0.5785 -0.0594 -1.4610
50550SOL    HW256336   6.302   1.673   6.777 -0.2117 -0.4145  1.3854
50551SOL     OW56337  11.131   1.712   0.703  0.4359  0.2848  0.1655
50551SOL    HW156338  11.217   1.685   0.736  0.7195  0.3619 -0.4850
50551SOL    HW256339  11.084   1.741   0.781  0.9230  0.0379  0.5628
50552SOL     OW56340   0.728  10.802   9.746  0.3513 -0.0070 -0.5564
50552SOL    HW156341   0.683  10.766   9.822  1.2766 -1.3769 -0.6210
50552SOL    HW256342   0.781  10.873   9.781 -1.0819  0.9982 -0.3384
50553SOL     OW56343   1.902   4.163   4.917  0.1568 -0.1286 -0.5491
50553SOL    HW156344   1.859   4.239   4.955 -0.1247 -0.9840  0.8762
50553SOL    HW256345   1.877   4.090   4.972  0.9391 -1.1726 -1.5206
50554SOL     OW56346   9.968   5.098   0.475  0.0433 -0.3025  0.4822
50554SOL    HW156347   9.961   5.182   0.520 -3.1080 -0.4778  0.5022
50554SOL    HW256348   9.930   5.113   0.389  1.4372 -1.2304 -0.3350
50555SOL     OW56349  10.983  11.032   7.668 -0.8279  0.0518  0.0269
50555SOL    HW156350  11.025  10.972   7.607  0.0050  0.0306  0.6120
50555SOL    HW256351  10.899  10.990   7.688  0.5537 -2.0351  2.0153
50556SOL     OW56352   0.040   6.192   1.246 -0.0305 -0.1110 -0.0585
50556SOL    HW156353  -0.004   6.256   1.191 -0.0746  1.1990  1.4421
50556SOL    HW256354  -0.012   6.112   1.236 -1.2788  0.7042 -0.2600
50557SOL     OW56355  10.610   0.814   8.304  0.0809 -0.1880 -0.1400
50557SOL    HW156356  10.607   0.888   8.365  2.3679 -0.1074 -0.0487
50557SOL    HW256357  10.593   0.737   8.358  1.8448 -0.0935  0.6060
50558SOL     OW56358   9.166   7.694   4.016 -0.3407 -0.1163  0.3606
50558SOL    HW156359   9.175   7.668   3.925  0.6872 -0.0844  0.4303
50558SOL    HW256360   9.233   7.643   4.062 -0.7202  0.0001  1.0660
50559SOL     OW56361   8.464   6.592  10.910  0.3073  0.7070  0.4693
50559SOL    HW156362   8.434   6.581  10.819  1.1156  0.4915  0.2232
50559SOL    HW256363   8.461   6.687  10.924 -0.6632  0.6790  0.5162
50560SOL     OW56364  11.701  10.881   7.625  0.6388  0.1545  0.2594
50560SOL    HW156365  11.668  10.855   7.539  2.5666  0.4879 -0.6378
50560SOL    HW256366  11.687  10.976   7.628 -0.1236  0.0377  0.6561
50561SOL     OW56367  10.385   7.116   7.582  0.1571  0.4022 -0.1487
50561SOL    HW156368  10.439   7.143   7.507 -1.6810 -0.2982 -1.8183
50561SOL    HW256369  10.349   7.198   7.615 -0.2147  0.5933 -1.0080
50562SOL     OW56370   7.536   0.060   7.433 -0.1747  0.0260 -0.3787
50562SOL    HW156371   7.523   0.039   7.525 -0.4473  2.0684  0.1035
50562SOL    HW256372   7.450   0.051   7.393  0.2499 -2.6269 -0.9137
50563SOL     OW56373   6.792   8.945   7.965 -0.1346  0.0225 -0.4187
50563SOL    HW156374   6.801   8.974   8.056 -0.4105 -3.0334  0.7016
50563SOL    HW256375   6.708   8.982   7.937 -0.6727 -0.0376  1.0201
50564SOL     OW56376   5.506   8.873  11.963 -0.1625  0.1389 -0.2269
50564SOL    HW156377   5.468   8.786  11.977  1.0382 -0.3267  0.2961
50564SOL    HW256378   5.462   8.906  11.885 -0.3037 -1.1519 -0.7169
50565SOL     OW56379   4.965   9.305   7.227  0.4509  0.0324 -0.0210
50565SOL    HW156380   4.922   9.345   7.302  0.6944 -1.6715  1.0841
50565SOL    HW256381   5.058   9.304   7.249  0.6491  0.4457 -0.8073
50566SOL     OW56382   4.825   2.977   8.479 -0.3791 -0.0480  0.5375
50566SOL    HW156383   4.910   2.964   8.439 -0.6680 -1.3328  0.2962
50566SOL    HW256384   4.790   3.056   8.438  0.4469  0.1600  0.2263
50567SOL     OW56385   3.261   4.403   4.082 -0.0503  0.0579 -1.1417
50567SOL    HW156386   3.206   4.469   4.040  1.2211  0.4633 -2.2607
50567SOL    HW256387   3.227   4.319   4.051 -0.5591  0.2676 -1.1530
50568SOL     OW56388   7.039   9.455   1.511 -0.3334  0.0766  0.2928
50568SOL    HW156389   7.048   9.363   1.538 -1.3172  0.1292  0.8572
50568SOL    HW256390   7.089   9.504   1.576  1.6978 -0.1614 -1.0249
50569SOL     OW56391  10.445   0.065   8.432  0.0420  0.0247  0.3359
50569SOL    HW156392  10.462  -0.002   8.366  1.4901 -0.5297  1.2330
50569SOL    HW256393  10.349   0.072   8.434 -0.1205 -1.5458 -0.2411
50570SOL     OW56394  10.855  10.487   4.635 -0.1392  0.0253  0.1666
50570SOL    HW156395  10.941  10.502   4.675 -0.8477  0.1347  1.7106
50570SOL    HW256396  10.801  10.454   4.706 -1.3620 -0.1498 -0.8100
50571SOL     OW56397   1.752   7.485   8.931 -1.0641  0.0184 -0.2140
50571SOL    HW156398   1.800   7.562   8.963  1.7468 -0.5642 -2.6139
50571SOL    HW256399   1.747   7.427   9.006  1.6280  0.3539  0.3364
50572SOL     OW56400   9.432   4.541   7.641  0.2372  0.5061 -0.2531
50572SOL    HW156401   9.340   4.536   7.615  0.3013 -2.0222 -0.1871
50572SOL    HW256402   9.479   4.491   7.574  1.3919  0.4998  0.5249
50573SOL     OW56403  10.209   3.081   3.045  0.0969 -0.5087 -0.2847
50573SOL    HW156404  10.222   3.168   3.083 -1.4119  0.2010 -1.2811
50573SOL    HW256405  10.150   3.096   2.971 -1.1367 -2.5275  0.2229
50574SOL     OW56406   7.865   1.071   6.808 -0.3283  0.2809  0.5163
50574SOL    HW156407   7.884   1.051   6.717  0.8778  1.9362  0.3747
50574SOL    HW256408   7.863   0.985   6.852  0.6014 -0.4207 -0.7652
50575SOL     OW56409   0.756   1.754   7.660 -0.3245  0.0262  0.3508
50575SOL    HW156410   0.740   1.784   7.749 -0.9063 -2.3291  1.1044
50575SOL    HW256411   0.847   1.777   7.642  0.3080 -0.8849  2.1784
50576SOL     OW56412   7.483   8.345   9.251  0.4378 -0.0307 -0.0825
50576SOL    HW156413   7.493   8.286   9.177 -0.3259 -1.1809  0.7050
50576SOL    HW256414   7.566   8.339   9.298  0.2588 -0.7096  0.1509
50577SOL     OW56415   7.835   6.211  10.288  0.2170  0.2016 -0.0368
50577SOL    HW156416   7.910   6.236  10.235  0.2018  0.0190 -0.1442
50577SOL    HW256417   7.764   6.198  10.226 -0.2197  1.5385  0.1660
50578SOL     OW56418   0.434   1.469   9.969  0.1780  0.1630 -0.1475
50578SOL    HW156419   0.411   1.477   9.877  0.7782 -0.5848 -0.3733
50578SOL    HW256420   0.484   1.388   9.975 -3.1797 -2.0073  1.5166
50579SOL     OW56421   6.707   1.929   6.576  0.1274 -0.2259  0.3519
50579SOL    HW156422   6.670   1.955   6.660 -0.7055 -0.7101  0.1540
50579SOL    HW256423   6.685   1.836   6.569  0.7525 -0.3436 -0.1161
50580SOL     OW56424   3.655   1.180   4.519  0.0617 -0.0013 -0.0978
50580SOL    HW156425   3.575   1.199   4.470 -0.2870 -1.1541 -0.0032
50580SOL    HW256426   3.681   1.093   4.489  0.5994 -0.1585  0.7834
50581SOL     OW56427   7.343  10.577   4.267  0.2808 -0.3062 -0.2067
50581SOL    HW156428   7.362  10.487   4.294 -0.0223 -0.2828  0.0886
50581SOL    HW256429   7.249  10.578   4.251  0.0442  0.2957  1.0900
50582SOL     OW56430   2.927  10.663  11.734  0.0097 -0.0477  0.2709
50582SOL    HW156431   2.864  10.700  11.796  0.4884  1.3350 -0.0214
50582SOL    HW256432   2.888  10.680  11.648  0.0377 -0.6297  0.1391
50583SOL     OW56433   2.376   0.722  10.979  0.1408  0.1043  0.3166
50583SOL    HW156434   2.293   0.728  11.026  0.9801  1.8590  1.6823
50583SOL    HW256435   2.407   0.634  10.999 -0.4601  0.1211  1.4665
50584SOL     OW56436   8.476  10.137   5.921  0.2962 -0.1390 -0.4178
50584SOL    HW156437   8.503  10.217   5.875  0.1196  0.5187  0.5694
50584SOL    HW256438   8.409  10.168   5.982 -0.7541 -1.2823 -0.9592
50585SOL     OW56439   0.549  10.323   5.872  0.3242  0.0473  0.6023
50585SOL    HW156440   0.492  10.392   5.838  0.8824  0.3113  0.1863
50585SOL    HW256441   0.504  10.290   5.950 -2.2324 -2.2338 -1.6470
50586SOL     OW56442  11.862   7.620   8.137  0.0940 -0.5883 -0.3207
50586SOL    HW156443  11.815   7.564   8.198  0.6833 -0.8563 -0.1065
50586SOL    HW256444  11.931   7.565   8.102  0.6069 -0.0340 -0.1992
50587SOL     OW56445   0.246   2.769   8.619  0.3924  0.7808 -0.4232
50587SOL    HW156446   0.189   2.834   8.661  0.9319  1.8795 -1.3288
50587SOL    HW256447   0.276   2.713   8.690 -0.3021  1.3629  0.3458
50588SOL     OW56448   1.576   8.460   4.555  0.0419 -0.0259  0.3751
50588SOL    HW156449   1.581   8.364   4.549  0.9048  0.0498 -0.2691
50588SOL    HW256450   1.657   8.485   4.598  0.6435  0.5314 -1.0287
50589SOL     OW56451  10.053   6.683   6.180 -0.5606  0.3803  0.3101
50589SOL    HW156452   9.980   6.690   6.242 -0.7842  1.0484 -0.0220
50589SOL    HW256453  10.119   6.632   6.227 -0.6478  1.0425  1.1867
50590SOL     OW56454   4.223   0.415   6.738  0.0949  0.1655 -0.2362
50590SOL    HW156455   4.249   0.345   6.678  0.7295 -1.1463  1.4503
50590SOL    HW256456   4.241   0.496   6.691  4.0555 -0.6761 -0.5360
50591SOL     OW56457  10.933  10.061   6.863  0.3313  0.2917  0.8332
50591SOL    HW156458  10.950  10.099   6.777 -0.1105 -1.7903 -0.2462
50591SOL    HW256459  10.844  10.086   6.884  1.1150  2.5776  1.7227
50592SOL     OW56460   8.378  10.731   5.464  0.1310  0.7837  0.0893
50592SOL    HW156461   8.294  10.707   5.503 -1.8280  2.4181 -2.7831
50592SOL    HW256462   8.413  10.799   5.522 -0.7564  0.4700  1.0359
50593SOL     OW56463   3.004  11.802   1.422 -0.1865 -0.1858  0.0368
50593SOL    HW156464   2.976  11.814   1.512  1.1094  1.0237  0.3085
50593SOL    HW256465   3.052  11.719   1.423 -1.5482 -1.0124  0.0739
50594SOL     OW56466   6.072   3.946   3.300 -0.1552 -0.2061  0.3967
50594SOL    HW156467   6.064   3.951   3.395  0.3339  2.6600  0.3661
50594SOL    HW256468   5.992   3.986   3.266 -0.0269 -0.5861 -0.3923
50595SOL     OW56469   8.102  10.185   4.120 -0.9987 -0.5109 -0.1146
50595SOL    HW156470   8.043  10.140   4.180 -1.1922 -0.4231 -0.2394
50595SOL    HW256471   8.047  10.249   4.075 -0.7418 -0.2073 -0.0011
50596SOL     OW56472   9.990   1.165   8.738  0.6016 -0.2635  0.4796
50596SOL    HW156473  10.016   1.157   8.830  0.8206  0.4742  0.4847
50596SOL    HW256474   9.964   1.076   8.713 -0.9641 -0.1862  1.6940
50597SOL     OW56475   5.615   7.653   5.252 -0.0039  0.3393 -0.2162
50597SOL    HW156476   5.620   7.602   5.333 -0.6356 -1.1431 -1.0694
50597SOL    HW256477   5.649   7.739   5.276  1.0037 -0.4323  1.3183
50598SOL     OW56478   4.978  10.792   2.630  0.1577  0.1836  0.2464
50598SOL    HW156479   4.977  10.841   2.712  0.3564 -0.4307  0.6225
50598SOL    HW256480   5.050  10.831   2.580  1.5902 -0.9370  1.3153
50599SOL     OW56481   9.399   7.726   7.567 -0.1870 -0.2371  0.6629
50599SOL    HW156482   9.403   7.767   7.481 -0.9467 -0.2152  0.6255
50599SOL    HW256483   9.420   7.796   7.629 -0.4052 -0.0564  0.5356
50600SOL     OW56484   1.787   9.942   1.862  0.2040 -0.5316  0.4952
50600SOL    HW156485   1.711   9.885   1.874 -1.5527  1.5928 -0.0170
50600SOL    HW256486   1.857   9.882   1.835 -0.7823 -2.7865  2.5003
50601SOL     OW56487   0.017  11.341   2.524 -0.5439  1.1176 -0.3095
50601SOL    HW156488  -0.074  11.320   2.502 -0.0007  0.2982 -1.9905
50601SOL    HW256489   0.062  11.343   2.439  1.6736 -1.8090  0.6145
50602SOL     OW56490   7.586   4.594   4.860 -0.0368 -0.4264 -0.7520
50602SOL    HW156491   7.680   4.583   4.845 -0.0389 -0.3772 -0.8008
50602SOL    HW256492   7.581   4.648   4.939 -0.0163  0.3641 -1.2843
50603SOL     OW56493   5.712   4.371   0.102  0.6290 -0.1714 -0.1081
50603SOL    HW156494   5.620   4.375   0.129  0.9905  1.0181  1.0596
50603SOL    HW256495   5.741   4.283   0.127  0.2845  0.0706  1.1910
50604SOL     OW56496   2.861   1.961  10.037  0.1180 -0.2718  0.1898
50604SOL    HW156497   2.946   1.918  10.029 -0.2511 -0.7887 -1.1361
50604SOL    HW256498   2.831   1.938  10.125  0.7995 -1.0876  0.2247
50605SOL     OW56499   0.575  11.395   4.081 -0.1205  0.5531  0.1771
50605SOL    HW156500   0.551  11.314   4.126  0.5240  0.3490  0.1683
50605SOL    HW256501   0.516  11.400   4.006  1.6297 -1.4055 -1.4653
50606SOL     OW56502   8.390   7.908   2.298 -0.1518  0.3242 -0.4536
50606SOL    HW156503   8.337   7.985   2.280  0.1214  0.2117 -1.8457
50606SOL    HW256504   8.355   7.841   2.239  1.6621  0.3168 -1.5809
50607SOL     OW56505   3.805   3.325   6.069  1.0102  0.4863  0.1908
50607SOL    HW156506   3.786   3.233   6.051  2.8637  0.2280 -0.5954
50607SOL    HW256507   3.808   3.366   5.982  0.5996  1.2269  0.5126
50608SOL     OW56508   1.740  10.834   1.749  0.7459 -0.1602  0.1344
50608SOL    HW156509   1.782  10.920   1.747 -0.9304  0.7214  0.8384
50608SOL    HW256510   1.782  10.786   1.678  0.6758  1.7511 -1.2857
50609SOL     OW56511  11.366   0.025   8.980 -0.4314  0.3444  0.4578
50609SOL    HW156512  11.378   0.108   9.027 -2.4386  0.0529  1.6207
50609SOL    HW256513  11.370  -0.042   9.049  0.6134 -0.5005 -0.3880
50610SOL     OW56514   5.635  11.465   1.034  0.1554 -0.0336 -0.4555
50610SOL    HW156515   5.591  11.390   0.994 -0.4893 -0.2949  0.7123
50610SOL    HW256516   5.720  11.431   1.064  0.5580  0.1171 -1.3907
50611SOL     OW56517   7.500   6.617   0.831  0.6009  0.0594 -0.0234
50611SOL    HW156518   7.477   6.667   0.752 -0.6811 -0.5717 -0.0770
50611SOL    HW256519   7.417   6.579   0.860  0.9851  0.5756  1.8628
50612SOL     OW56520   6.806   4.132   7.905 -0.2653 -0.2042  0.3697
50612SOL    HW156521   6.837   4.158   7.818 -2.5728 -0.9936 -0.7637
50612SOL    HW256522   6.729   4.188   7.920 -0.1856 -0.4229  1.7092
50613SOL     OW56523   2.318   8.293   9.635 -0.8388 -0.0587 -0.1790
50613SOL    HW156524   2.285   8.382   9.619 -0.4093  0.2555  0.6591
50613SOL    HW256525   2.271   8.239   9.571 -0.6688  0.8504 -1.1022
50614SOL     OW56526   4.777   9.088  10.119  0.3787 -0.0642  0.0120
50614SOL    HW156527   4.707   9.031  10.086 -0.7589  2.1120 -1.6147
50614SOL    HW256528   4.749   9.111  10.208  0.7577 -1.7849  0.6205
50615SOL     OW56529   1.683   3.026   0.042  0.0348  0.9628  0.0971
50615SOL    HW156530   1.631   3.096   0.004 -1.8843 -0.3736  0.0853
50615SOL    HW256531   1.618   2.965   0.078  1.1121 -3.3125 -4.1308
50616SOL     OW56532   6.080   7.647   5.931 -0.0922 -0.2271 -0.1394
50616SOL    HW156533   6.154   7.707   5.919 -1.4252  1.4461 -0.2868
50616SOL    HW256534   6.080   7.594   5.851 -1.0803  2.0941 -1.8003
50617SOL     OW56535   9.683   2.874   1.349 -0.7137 -0.2276  0.1748
50617SOL    HW156536   9.644   2.788   1.365  0.4079 -0.4769  1.7501
50617SOL    HW256537   9.755   2.856   1.288 -0.9146 -0.2821 -0.0507
50618SOL     OW56538   6.765   4.594   0.089 -0.2390 -0.1662 -0.0045
50618SOL    HW156539   6.790   4.589  -0.003  1.1071  2.2710  0.1584
50618SOL    HW256540   6.767   4.503   0.120  1.7992 -0.7710 -1.7301
50619SOL     OW56541   8.331   6.711  10.694  0.4268  0.1728 -0.4650
50619SOL    HW156542   8.298   6.679  10.610 -1.3130  1.4147 -0.3059
50619SOL    HW256543   8.384   6.787  10.670 -0.5230  0.8635 -0.4321
50620SOL     OW56544   8.520   5.152   6.314  0.1048 -0.0866  0.3485
50620SOL    HW156545   8.510   5.163   6.220 -1.5896  4.0445  0.7926
50620SOL    HW256546   8.432   5.167   6.350  1.4330  3.2567  2.7291
50621SOL     OW56547   3.426   2.053   8.184  0.2123 -0.2476 -0.0872
50621SOL    HW156548   3.373   1.974   8.194  0.1037 -0.1932 -0.2472
50621SOL    HW256549   3.473   2.041   8.102  1.1505 -0.7143  0.4917
50622SOL     OW56550   1.855   5.107  10.356 -0.2772  0.2259  0.2544
50622SOL    HW156551   1.920   5.114  10.426 -0.2618  0.3174  0.2323
50622SOL    HW256552   1.894   5.157  10.284  0.4623 -1.2435 -0.3943
50623SOL     OW56553   5.553   2.088  11.527  0.6165  0.2112  0.2993
50623SOL    HW156554   5.555   2.171  11.478 -0.7549  0.8484  1.2815
50623SOL    HW256555   5.562   2.114  11.618 -0.7809 -0.6360  0.6968
50624SOL     OW56556   9.520   9.451   3.668  0.2085 -0.3643  0.1763
50624SOL    HW156557   9.434   9.492   3.658  0.1232 -0.7111 -0.5866
50624SOL    HW256558   9.572   9.517   3.714  0.2052  0.8165 -1.4242
50625SOL     OW56559   9.648   3.551  11.115  0.0054  0.5186 -0.2950
50625SOL    HW156560   9.646   3.463  11.078  0.9172  0.1220  0.5189
50625SOL    HW256561   9.721   3.548  11.178 -0.7314  1.4868  0.6468
50626SOL     OW56562   7.201   3.825   2.119  0.5266 -0.0157 -0.2306
50626SOL    HW156563   7.236   3.907   2.083  0.7020  0.0548  0.0989
50626SOL    HW256564   7.256   3.757   2.081 -0.0269 -0.0385 -1.0200
50627SOL     OW56565   5.087   3.291   0.805  0.2489  0.0025  0.1709
50627SOL    HW156566   5.055   3.355   0.870  1.5854 -0.8215  1.7225
50627SOL    HW256567   5.015   3.228   0.797  0.0203  0.1624  0.8375
50628SOL     OW56568   0.737   1.879   5.618 -0.0607  0.0545  0.6021
50628SOL    HW156569   0.670   1.811   5.623 -0.9621  0.6125 -2.1087
50628SOL    HW256570   0.694   1.958   5.651  0.1020 -0.1026  1.2017
50629SOL     OW56571   8.294   0.896   8.520  0.0037  0.0776 -0.1429
50629SOL    HW156572   8.289   0.886   8.425  0.1618  1.8141 -0.3667
50629SOL    HW256573   8.387   0.905   8.538 -0.0317 -0.1768  0.1804
50630SOL     OW56574   8.336   1.155   6.818 -0.3861  0.0509 -0.2211
50630SOL    HW156575   8.412   1.194   6.860  0.1514 -1.5661  0.3885
50630SOL    HW256576   8.358   1.062   6.808 -2.4759 -0.5868  0.4970
50631SOL     OW56577   1.900   3.007  10.241  0.0415 -0.0348  0.1430
50631SOL    HW156578   1.945   2.949  10.181  0.4179  0.7031 -0.3071
50631SOL    HW256579   1.808   3.001  10.216  0.3725  1.5835 -1.7194
50632SOL     OW56580   4.439  10.766   3.528 -0.5643 -0.4651 -0.3088
50632SOL    HW156581   4.427  10.769   3.434 -0.9033  0.6091 -0.2405
50632SOL    HW256582   4.519  10.816   3.544  1.3864 -3.3313 -0.2859
50633SOL     OW56583   8.678   6.368   7.212 -0.3241 -0.2374  0.1255
50633SOL    HW156584   8.678   6.272   7.209 -1.7120 -0.2563 -0.0367
50633SOL    HW256585   8.770   6.392   7.215  0.0590 -1.5638 -0.3139
50634SOL     OW56586   9.472   2.431   8.378 -0.1965 -0.3529  0.5179
50634SOL    HW156587   9.376   2.431   8.382 -0.1822 -0.3639  0.9462
50634SOL    HW256588   9.497   2.517   8.412 -0.0156 -0.8844  1.7920
50635SOL     OW56589   4.839   3.802   4.225 -0.2234 -0.0654  0.3960
50635SOL    HW156590   4.934   3.791   4.236  0.0762  1.7650  0.0244
50635SOL    HW256591   4.809   3.832   4.311  0.0615  2.1560 -0.2120
50636SOL     OW56592   0.109   1.492  10.320  0.3578 -0.1601  0.7327
50636SOL    HW156593   0.196   1.452  10.326  0.0256 -0.8393  1.1903
50636SOL    HW256594   0.065   1.443  10.251  0.2253 -0.0531  0.7412
50637SOL     OW56595   3.613   1.488   7.809 -0.8284  0.2238  0.5617
50637SOL    HW156596   3.560   1.409   7.821 -0.1741 -0.1442  1.0332
50637SOL    HW256597   3.662   1.472   7.729 -1.2881  0.4929  0.2198
50638SOL     OW56598   4.355   9.815   3.071  0.1450 -0.5472  0.4390
50638SOL    HW156599   4.329   9.878   3.138  2.0424 -0.3377  1.0395
50638SOL    HW256600   4.318   9.732   3.100 -2.7445  0.2585 -0.5740
50639SOL     OW56601   5.487   4.480   8.788 -0.3797 -0.3317  0.0302
50639SOL    HW156602   5.577   4.510   8.801 -1.1163  1.0910  2.3210
50639SOL    HW256603   5.493   4.385   8.788  1.1454 -0.2633 -0.2972
50640SOL     OW56604   5.123   6.060   1.072 -0.1609 -0.0162  0.2663
50640SOL    HW156605   5.206   6.106   1.083 -0.3776  0.4695 -0.0717
50640SOL    HW256606   5.146   5.967   1.076  0.1935  0.1048  1.6302
50641SOL     OW56607  10.535   7.006  10.049  0.4562  0.1854 -0.2225
50641SOL    HW156608  10.551   7.071  10.118  1.8521 -0.3282 -0.0249
50641SOL    HW256609  10.579   7.042   9.972  0.2469  0.0141 -0.4232
50642SOL     OW56610   8.925  10.035   3.199  0.5233  0.0879  0.0638
50642SOL    HW156611   8.874   9.963   3.161  2.3553 -1.5306  0.5336
50642SOL    HW256612   8.877  10.059   3.278  0.7395 -1.7682  0.7978
50643SOL     OW56613  10.659   8.375   9.484 -0.0779  0.1971  0.2647
50643SOL    HW156614  10.731   8.328   9.524 -0.7696 -0.6403  0.5420
50643SOL    HW256615  10.639   8.326   9.404 -1.2114 -0.3654  0.8748
50644SOL     OW56616  11.097   4.142   2.699  0.0112  0.2227  0.0194
50644SOL    HW156617  11.103   4.201   2.774 -0.3685  0.4123 -0.1006
50644SOL    HW256618  11.125   4.057   2.733 -1.2587  0.0407  0.6761
50645SOL     OW56619   8.904   2.923  11.991  0.1157 -0.6190 -0.1535
50645SOL    HW156620   8.957   3.002  11.980  1.2053 -1.1938  0.8148
50645SOL    HW256621   8.819   2.955  12.019  0.7080  0.2035  0.7785
50646SOL     OW56622   4.674   6.627   5.648  0.3185  0.3115 -0.1348
50646SOL    HW156623   4.717   6.678   5.580 -1.3287  0.3329 -1.2379
50646SOL    HW256624   4.637   6.552   5.601  0.4901 -0.5207  1.0194
50647SOL     OW56625   1.837   3.994   5.146 -0.5735  0.1118  0.3153
50647SOL    HW156626   1.753   4.023   5.183 -1.2017 -0.3331 -0.7338
50647SOL    HW256627   1.827   3.900   5.137  1.0216 -0.3712  2.6012
50648SOL     OW56628   2.239   9.344   2.875  0.3697  0.2301  0.3355
50648SOL    HW156629   2.281   9.404   2.937  1.7129 -1.8157  1.5273
50648SOL    HW256630   2.298   9.345   2.799  0.3433  0.4811  0.3169
50649SOL     OW56631   9.449   9.374   8.802 -0.2902  0.0485  0.1251
50649SOL    HW156632   9.500   9.294   8.816  1.0478  0.7465 -0.5962
50649SOL    HW256633   9.359   9.343   8.791  0.3253 -1.4531 -0.9690
50650SOL     OW56634   1.750  11.957   4.746  0.0533 -0.2725 -0.3121
50650SOL    HW156635   1.674  11.915   4.706 -1.5470  2.3771 -0.3009
50650SOL    HW256636   1.794  12.002   4.673 -1.5304  2.6139  0.3812
50651SOL     OW56637   6.767   3.662   1.361  0.4239 -0.1249  0.3650
50651SOL    HW156638   6.739   3.629   1.276  2.0308  0.9906 -0.6500
50651SOL    HW256639   6.787   3.755   1.346  1.9170 -0.1864  1.6559
50652SOL     OW56640   9.013  11.595   2.347 -0.1215 -0.5196  0.1691
50652SOL    HW156641   9.098  11.556   2.363 -0.3057 -1.6845 -1.4128
50652SOL    HW256642   9.028  11.690   2.354  1.1132 -0.7365  0.6587
50653SOL     OW56643   6.240   0.483   0.456 -0.3432 -0.6933  0.1832
50653SOL    HW156644   6.297   0.419   0.414 -0.0766 -0.5563  0.3323
50653SOL    HW256645   6.168   0.431   0.491 -0.7793 -0.7669 -0.7778
50654SOL     OW56646   9.523   6.249   3.759 -0.2409 -0.4931  0.3311
50654SOL    HW156647   9.452   6.281   3.704 -1.6379  0.5331  2.5748
50654SOL    HW256648   9.555   6.326   3.805  1.9963 -1.0317 -0.1742
50655SOL     OW56649   2.966   3.535   7.445  0.7412  0.3441 -0.4022
50655SOL    HW156650   2.911   3.457   7.444  0.7416  0.3421 -0.2282
50655SOL    HW256651   2.976   3.557   7.537  1.1058  0.2949 -0.4283
50656SOL     OW56652   7.356   3.023   7.102 -0.4650  0.0979  0.8177
50656SOL    HW156653   7.406   3.041   7.022 -0.4323 -2.3918  0.1902
50656SOL    HW256654   7.422   3.014   7.170 -0.3606  0.6026  0.7850
50657SOL     OW56655   9.142   5.797   7.400  0.6451  0.0281  0.6589
50657SOL    HW156656   9.084   5.728   7.367  2.2622 -1.2179  0.2891
50657SOL    HW256657   9.126   5.799   7.494 -1.5658  1.2843  0.3508
50658SOL     OW56658   7.767   5.806   0.134 -0.2903  0.2699  0.1937
50658SOL    HW156659   7.695   5.800   0.071  0.2287 -0.7947 -0.3166
50658SOL    HW256660   7.798   5.897   0.126 -1.3030  0.6239  0.1381
50659SOL     OW56661   0.359   2.890   7.212  0.1539  0.1802  0.3586
50659SOL    HW156662   0.368   2.800   7.182  2.1784  0.0194  1.2685
50659SOL    HW256663   0.319   2.882   7.298  0.1349  0.1618  0.3479
50660SOL     OW56664  11.846   8.619   0.111 -0.0282 -0.2249 -0.1278
50660SOL    HW156665  11.922   8.668   0.142 -0.1047  0.0303 -0.3381
50660SOL    HW256666  11.881   8.563   0.041 -0.3902  1.3694 -1.6357
50661SOL     OW56667   4.109  10.750   6.214 -0.2976  0.1330 -0.2952
50661SOL    HW156668   4.146  10.698   6.285 -1.5135 -0.9331 -0.4035
50661SOL    HW256669   4.071  10.685   6.155 -2.2161  1.1471 -0.2464
50662SOL     OW56670   7.728   2.703  11.163  0.0404  0.3805 -0.5157
50662SOL    HW156671   7.676   2.783  11.167 -0.3286  0.2187 -1.6327
50662SOL    HW256672   7.716   2.672  11.073  1.0751 -0.3289 -0.4207
50663SOL     OW56673  10.519   5.780   3.360 -0.6154 -0.5209 -0.3668
50663SOL    HW156674  10.559   5.726   3.292 -0.6535  0.1462 -0.9300
50663SOL    HW256675  10.562   5.865   3.351 -1.3641 -0.1213 -0.2519
50664SOL     OW56676   1.272   6.972   0.859 -0.3766 -0.1104 -0.1782
50664SOL    HW156677   1.247   6.950   0.770  2.1116 -1.5632 -0.6091
50664SOL    HW256678   1.368   6.967   0.860 -0.3353 -0.8851  2.7541
50665SOL     OW56679   2.657   4.670   4.483 -0.3534  0.3285  0.1052
50665SOL    HW156680   2.682   4.757   4.517 -0.0064  0.0231  0.6480
50665SOL    HW256681   2.658   4.680   4.388 -0.8232  1.0629  0.1685
50666SOL     OW56682  10.659   5.143   1.673 -0.3621  0.3502 -0.1060
50666SOL    HW156683  10.738   5.090   1.678 -0.1062  0.5828 -1.4386
50666SOL    HW256684  10.687   5.230   1.702 -0.6546 -0.0466  1.5179
50667SOL     OW56685   7.885   4.347   3.068  0.0094 -0.3918 -0.4091
50667SOL    HW156686   7.909   4.265   3.111  1.6179  0.2215 -0.0667
50667SOL    HW256687   7.791   4.339   3.053 -0.1818 -1.6154  1.1185
50668SOL     OW56688   2.947   3.239   9.200  0.0321 -0.1704 -0.6326
50668SOL    HW156689   2.998   3.181   9.144  2.8508  1.7900 -0.3380
50668SOL    HW256690   2.913   3.182   9.269  0.7999 -1.7853 -1.5290
50669SOL     OW56691  11.561   9.185   9.453 -0.2359  0.7215  0.3188
50669SOL    HW156692  11.545   9.238   9.531  0.3093  0.4953  0.5907
50669SOL    HW256693  11.480   9.191   9.403 -0.6226  0.7932  0.9460
50670SOL     OW56694   8.697   5.564   8.311 -0.4864  0.0082  0.1639
50670SOL    HW156695   8.629   5.584   8.247  2.3414  1.4945 -2.6616
50670SOL    HW256696   8.681   5.626   8.382  0.0892  3.1870 -2.2666
50671SOL     OW56697   7.067   0.837   7.683 -0.4247  0.0656  0.5003
50671SOL    HW156698   7.073   0.765   7.746  1.4135 -0.6275 -0.3779
50671SOL    HW256699   6.984   0.824   7.638 -0.7864 -0.6458  1.3551
50672SOL     OW56700   5.498   1.490   7.422  0.2301  0.3358 -0.2459
50672SOL    HW156701   5.426   1.438   7.387  0.2166  0.8301 -0.9593
50672SOL    HW256702   5.475   1.503   7.514  0.3601 -1.1234  0.0130
50673SOL     OW56703   0.542   8.821   0.990 -1.0001 -0.5479 -0.2999
50673SOL    HW156704   0.601   8.895   0.979  0.3494 -1.4828  0.2841
50673SOL    HW256705   0.535   8.782   0.903 -1.3467 -0.0114 -0.5150
50674SOL     OW56706   4.217   2.200   0.429 -0.1333 -0.1795  0.5593
50674SOL    HW156707   4.180   2.183   0.342 -1.2131  1.2580  0.6987
50674SOL    HW256708   4.160   2.150   0.489  0.3874 -0.8735  0.4894
50675SOL     OW56709   7.347   3.377   8.340 -0.0476  0.0699  0.3390
50675SOL    HW156710   7.300   3.294   8.350  1.2362 -0.9568 -1.5288
50675SOL    HW256711   7.428   3.365   8.390 -0.2370  0.5456  0.7697
50676SOL     OW56712   2.053  11.410   1.004 -0.3947  0.0194  0.2041
50676SOL    HW156713   2.138  11.416   0.960 -0.3180  0.0257  0.3522
50676SOL    HW256714   2.073  11.417   1.097 -0.8250  3.1785  0.1553
50677SOL     OW56715   1.815  10.145   2.057 -0.4117 -0.0270 -0.4457
50677SOL    HW156716   1.812  10.095   1.976  0.5816  1.8229 -1.7068
50677SOL    HW256717   1.739  10.203   2.052  1.1469  2.0693 -1.5123
50678SOL     OW56718  11.065   5.584  10.521 -0.0052 -0.2823  1.0502
50678SOL    HW156719  11.097   5.643  10.453  0.7077 -0.9664  0.7676
50678SOL    HW256720  11.004   5.636  10.573 -1.6664 -0.0945 -0.9365
50679SOL     OW56721   4.422   7.035   3.810 -0.0276 -0.1836 -0.1799
50679SOL    HW156722   4.501   7.082   3.838  0.9010 -0.7180 -1.7273
50679SOL    HW256723   4.410   6.967   3.875  1.5545 -0.8726 -0.5458
50680SOL     OW56724   6.839   9.453   5.271  0.5925  0.0289  0.4844
50680SOL    HW156725   6.882   9.520   5.218  0.4268  0.7621  1.2565
50680SOL    HW256726   6.747   9.458   5.247  0.6994 -0.4894 -0.0507
50681SOL     OW56727  11.846   3.589   4.438  0.1113  0.1317 -0.0030
50681SOL    HW156728  11.821   3.669   4.391 -0.8037 -0.9773 -1.4985
50681SOL    HW256729  11.898   3.620   4.512  0.0087  2.0884 -0.6885
50682SOL     OW56730   3.697   6.862   8.809 -0.0251  0.1399  0.0887
50682SOL    HW156731   3.706   6.802   8.883 -1.7893 -0.9505 -0.5024
50682SOL    HW256732   3.648   6.812   8.744 -1.2103  2.0689 -0.6033
50683SOL     OW56733   4.994   1.455   7.926 -0.0768 -0.2043  0.2704
50683SOL    HW156734   4.980   1.503   8.007  0.4654 -1.3253  1.0536
50683SOL    HW256735   5.068   1.498   7.884  1.0578 -0.9346  1.4556
50684SOL     OW56736   0.381  10.836   4.671  0.1793 -0.1111 -0.0429
50684SOL    HW156737   0.408  10.804   4.585  3.0637  0.6263  0.4667
50684SOL    HW256738   0.422  10.777   4.733 -0.0182  0.6548  0.8466
50685SOL     OW56739   4.150  10.074   3.898 -0.1175  1.0825 -0.5673
50685SOL    HW156740   4.186  10.005   3.843 -2.0364 -1.4837  1.1333
50685SOL    HW256741   4.226  10.117   3.937  1.1466 -0.3333 -1.4001
50686SOL     OW56742   5.990   1.818   6.070  0.7383 -0.0568  0.4187
50686SOL    HW156743   6.070   1.853   6.111  0.6975  0.9104 -0.2915
50686SOL    HW256744   5.990   1.855   5.982 -1.2835  1.2461  0.9029
50687SOL     OW56745  10.857   4.060  11.674 -0.2024  0.5735  0.1111
50687SOL    HW156746  10.852   4.156  11.670 -0.2835  0.5380 -0.7056
50687SOL    HW256747  10.911   4.042  11.751 -0.3368  1.2709  0.3755
50688SOL     OW56748   2.428  11.908   8.641  0.1183  0.1934  0.3920
50688SOL    HW156749   2.415  12.002   8.627 -0.4599  0.2186  1.0527
50688SOL    HW256750   2.351  11.867   8.600  1.0400 -0.0987 -1.1035
50689SOL     OW56751   8.720   9.509   8.175  0.2604 -0.0027  0.1006
50689SOL    HW156752   8.776   9.435   8.200  0.9249  0.0574 -1.1185
50689SOL    HW256753   8.711   9.561   8.255  0.4786 -0.9556  0.7584
50690SOL     OW56754   8.811   2.282   4.785 -0.1573  0.0208 -0.4829
50690SOL    HW156755   8.815   2.200   4.736  2.6618  0.3911 -1.0324
50690SOL    HW256756   8.818   2.256   4.877  2.0085 -0.3783 -0.7059
50691SOL     OW56757   5.392   3.305   0.371  0.2236 -0.3957 -0.2564
50691SOL    HW156758   5.446   3.370   0.325  0.1654 -0.3734 -0.2945
50691SOL    HW256759   5.324   3.282   0.307  0.3667 -0.6513 -0.3182
50692SOL     OW56760  11.838   1.157   1.326  0.0146  0.0916 -0.3596
50692SOL    HW156761  11.769   1.223   1.331 -1.5162 -1.5634  2.2914
50692SOL    HW256762  11.796   1.080   1.287  0.6804 -0.5394  0.1322
50693SOL     OW56763   3.218   1.442   2.355 -0.3198  0.3091 -0.4763
50693SOL    HW156764   3.159   1.413   2.285 -0.0096  2.6645 -1.8270
50693SOL    HW256765   3.168   1.509   2.401 -0.1817 -0.6057  1.0668
50694SOL     OW56766   0.782   6.734   2.518  0.2607 -0.2422 -0.0344
50694SOL    HW156767   0.873   6.710   2.538  0.9573  2.6282  0.7488
50694SOL    HW256768   0.788   6.786   2.438 -0.5174  0.8036  0.5585
50695SOL     OW56769   3.159   0.688  10.813 -0.4245  0.5710  0.4293
50695SOL    HW156770   3.126   0.758  10.870  0.1268  2.3158 -1.2572
50695SOL    HW256771   3.253   0.685  10.832 -0.0293  1.9250 -1.0326
50696SOL     OW56772   5.926   3.140   2.571 -0.5439  0.4384  0.1241
50696SOL    HW156773   5.993   3.147   2.639 -0.3192  1.4591 -0.1851
50696SOL    HW256774   5.876   3.221   2.578  0.0121  0.9687 -1.4666
50697SOL     OW56775   2.174  10.278   0.311  0.5280 -0.1913 -0.0378
50697SOL    HW156776   2.229  10.255   0.386 -0.4582  2.1007  1.5086
50697SOL    HW256777   2.088  10.243   0.333  0.4072 -0.1944 -0.4979
50698SOL     OW56778   0.821   0.563   2.396  0.3196 -0.3326 -0.6770
50698SOL    HW156779   0.864   0.511   2.464 -0.0281  2.0388  1.5242
50698SOL    HW256780   0.893   0.606   2.349  0.5027  0.3016  0.1677
50699SOL     OW56781   7.913   4.411   5.647  0.2033  0.8341 -0.3302
50699SOL    HW156782   7.974   4.338   5.636 -1.8601 -0.8794 -1.0645
50699SOL    HW256783   7.968   4.484   5.675  2.8875 -0.0106 -2.8766
50700SOL     OW56784   4.580   0.134   0.675 -0.1632 -0.8404 -0.0470
50700SOL    HW156785   4.570   0.229   0.669 -0.3340 -0.8829 -0.4550
50700SOL    HW256786   4.512   0.099   0.619  0.2188 -1.1973 -0.2956
50701SOL     OW56787   4.299  11.557   5.502 -0.3156  0.1172  0.1399
50701SOL    HW156788   4.348  11.474   5.499  0.8763  0.8243 -1.4122
50701SOL    HW256789   4.209  11.532   5.481  0.0109 -0.8012 -0.2375
50702SOL     OW56790   8.151   6.755   8.702 -0.3408  0.7791  0.0681
50702SOL    HW156791   8.135   6.721   8.790 -0.1832  1.0375  0.1988
50702SOL    HW256792   8.226   6.705   8.670 -1.7169 -0.8406 -0.7729
50703SOL     OW56793  11.163   7.548   6.390 -0.4539 -0.4634  0.3455
50703SOL    HW156794  11.205   7.494   6.457  0.0484 -0.2331  0.2246
50703SOL    HW256795  11.084   7.581   6.431  0.4072  0.5868  1.2317
50704SOL     OW56796  11.984   9.578   2.224 -0.1182  0.2349 -0.0761
50704SOL    HW156797  11.900   9.594   2.179  0.8391  1.0911 -1.6597
50704SOL    HW256798  12.047   9.567   2.153  1.1756 -0.1370  1.0888
50705SOL     OW56799   8.869  10.419   0.044  0.2986  0.9221 -0.3203
50705SOL    HW156800   8.923  10.477  -0.010  1.2070  0.1394 -0.2820
50705SOL    HW256801   8.799  10.390  -0.015 -0.2167  2.0917 -0.3158
50706SOL     OW56802   0.783   8.627   9.140 -0.4913  0.0153  0.4547
50706SOL    HW156803   0.819   8.590   9.059 -0.8057  0.4711  0.0983
50706SOL    HW256804   0.738   8.554   9.182 -1.4430  0.0629 -0.4332
50707SOL     OW56805  11.339   7.033   3.399  0.1971  0.3563 -0.1347
50707SOL    HW156806  11.280   7.084   3.343  1.4787  1.0870 -0.8781
50707SOL    HW256807  11.415   7.016   3.344  0.6203 -0.7348  0.7373
50708SOL     OW56808   1.680   8.438  11.241 -0.2308  0.3605  0.0698
50708SOL    HW156809   1.606   8.484  11.282 -0.0239 -1.4015  2.6691
50708SOL    HW256810   1.746   8.433  11.310  1.6832  0.3812 -1.6729
50709SOL     OW56811   8.895   2.820   0.568 -0.2639  0.3561  0.3385
50709SOL    HW156812   8.971   2.838   0.513  0.3375 -3.3020 -0.2714
50709SOL    HW256813   8.825   2.798   0.506 -0.9943  0.8506  0.9720
50710SOL     OW56814   7.646   3.682  10.481  0.1112 -0.0472  0.7813
50710SOL    HW156815   7.653   3.640  10.395  3.5498  0.4476  0.6971
50710SOL    HW256816   7.582   3.629  10.528 -1.1595 -0.8941 -1.7370
50711SOL     OW56817  11.574   5.594   4.843  0.0883  0.4678  0.4728
50711SOL    HW156818  11.595   5.675   4.890  0.7797  0.3381  0.3885
50711SOL    HW256819  11.543   5.623   4.758  2.0097  0.6120 -0.2279
50712SOL     OW56820   4.197   9.016  10.427  0.1541  0.7028 -0.6124
50712SOL    HW156821   4.261   9.086  10.442 -1.7893  2.3616  0.5462
50712SOL    HW256822   4.192   8.970  10.511  1.3887 -0.8627 -1.3587
50713SOL     OW56823   1.366   0.701   4.026  0.4345 -0.4435 -0.4108
50713SOL    HW156824   1.305   0.639   3.987 -1.2488  0.2629  0.9416
50713SOL    HW256825   1.333   0.787   3.999 -0.2890  0.0246  1.7616
50714SOL     OW56826   6.577   8.419   0.218 -0.1621 -0.5718  0.5849
50714SOL    HW156827   6.669   8.419   0.189  0.0413  1.0795  1.1356
50714SOL    HW256828   6.582   8.427   0.314 -0.8672  0.1366  0.5767
50715SOL     OW56829   2.714  11.340   0.018 -0.1534 -0.4973 -0.4414
50715SOL    HW156830   2.798  11.299  -0.004  1.0786  1.4614  0.3130
50715SOL    HW256831   2.687  11.298   0.099  1.2402  0.3290  0.4949
50716SOL     OW56832   5.140  10.688   5.349 -0.3294 -0.0990  0.0318
50716SOL    HW156833   5.083  10.763   5.366  0.4148  0.2241  1.1978
50716SOL    HW256834   5.228  10.724   5.352  0.1030 -1.1691  1.6306
50717SOL     OW56835   3.943   4.526  11.411  0.4781 -0.1274 -0.0046
50717SOL    HW156836   3.853   4.537  11.443 -0.0611 -2.2060 -0.6996
50717SOL    HW256837   3.971   4.615  11.389 -1.3625  0.5758  0.3016
50718SOL     OW56838   8.730   7.710  10.564 -0.0947  0.3131 -0.3509
50718SOL    HW156839   8.696   7.793  10.532 -0.7870 -0.7725 -2.6620
50718SOL    HW256840   8.701   7.645  10.499  2.3896 -1.3923  0.0871
50719SOL     OW56841   4.946  11.569   8.411  0.6993  0.3348 -0.2393
50719SOL    HW156842   5.029  11.521   8.406  0.8209  0.6428 -1.2661
50719SOL    HW256843   4.890  11.528   8.345 -0.5871 -0.9829  1.5409
50720SOL     OW56844   7.963   7.072   6.366 -0.6717  1.1056 -1.0055
50720SOL    HW156845   8.023   7.062   6.292 -0.7420 -1.2677 -0.8336
50720SOL    HW256846   7.883   7.107   6.327 -0.2458  1.2160 -1.8045
50721SOL     OW56847   9.687   5.143   2.961 -0.5638 -0.1610  0.3574
50721SOL    HW156848   9.699   5.110   3.050 -2.1437  1.5786  1.3042
50721SOL    HW256849   9.592   5.138   2.947 -0.5879  1.6227 -0.3594
50722SOL     OW56850   9.723   6.504   8.568  0.5932 -0.7587 -0.0242
50722SOL    HW156851   9.750   6.547   8.650 -1.5424  0.0700  0.3082
50722SOL    HW256852   9.724   6.574   8.503 -0.0715 -0.8675 -0.1540
50723SOL     OW56853   3.207   3.899  10.473  0.4528  0.0384  0.2244
50723SOL    HW156854   3.115   3.888  10.449  0.6146 -1.6486  0.2784
50723SOL    HW256855   3.209   3.885  10.568  0.4111  2.6952  0.6898
50724SOL     OW56856   5.977   9.772   9.239  0.3305 -0.0147 -0.1612
50724SOL    HW156857   6.031   9.819   9.174 -0.4176 -0.2971 -1.0125
50724SOL    HW256858   5.911   9.726   9.186  0.9572 -1.9475  0.6364
50725SOL     OW56859   9.157   1.629   1.019 -0.3004 -0.8744 -0.6097
50725SOL    HW156860   9.137   1.565   0.950  0.9074 -1.5373 -0.3839
50725SOL    HW256861   9.124   1.589   1.099  1.0787 -1.6015 -0.3581
50726SOL     OW56862   3.636   8.315  11.697 -0.1632  0.4444  0.2488
50726SOL    HW156863   3.703   8.273  11.750  0.2928  0.0460 -0.6277
50726SOL    HW256864   3.650   8.281  11.608  0.9601  3.2693 -0.7564
50727SOL     OW56865   0.410   3.314   5.128 -0.2135  0.1884 -0.2723
50727SOL    HW156866   0.334   3.270   5.166  0.7748 -0.6235  0.7949
50727SOL    HW256867   0.393   3.407   5.144 -1.4229  0.1037 -0.9055
50728SOL     OW56868   4.043  10.048   1.863 -0.1872  0.8132 -0.0210
50728SOL    HW156869   4.057   9.954   1.873  0.2388  0.9061  0.2667
50728SOL    HW256870   3.984  10.055   1.788 -2.0215  0.2129  1.3209
50729SOL     OW56871   4.342   7.383   9.513 -0.4651 -0.0541  0.0484
50729SOL    HW156872   4.387   7.466   9.527  1.3372 -0.9354 -0.1672
50729SOL    HW256873   4.263   7.389   9.566  0.5233  1.0926  1.4778
50730SOL     OW56874   3.973   4.109   1.181 -0.0841  0.4916  0.0509
50730SOL    HW156875   3.926   4.036   1.141 -0.1312 -0.5630  1.9417
50730SOL    HW256876   4.066   4.088   1.168 -0.0576 -0.7066  1.8430
50731SOL     OW56877  11.440   7.911  10.151  0.6561  0.8129 -0.3146
50731SOL    HW156878  11.492   7.850  10.098  1.8223  0.4245  1.1867
50731SOL    HW256879  11.505   7.961  10.200 -0.3544  1.1414  0.7452
50732SOL     OW56880   5.277   0.719   2.162  0.0268  0.0065  0.5610
50732SOL    HW156881   5.243   0.808   2.171  0.5492  0.3845 -0.9309
50732SOL    HW256882   5.223   0.667   2.221 -3.1535  0.5785 -1.5535
50733SOL     OW56883   6.511   1.012   1.968 -0.3683 -0.3782 -0.4594
50733SOL    HW156884   6.515   1.086   2.028 -0.8139 -1.7744  1.3916
50733SOL    HW256885   6.599   0.976   1.968 -0.5043 -0.7247 -0.1461
50734SOL     OW56886   4.384  11.227   4.347 -0.0243 -0.2848 -0.5303
50734SOL    HW156887   4.461  11.239   4.292 -0.3834 -1.0099 -1.2248
50734SOL    HW256888   4.331  11.162   4.300 -0.5444 -0.6094  0.4702
50735SOL     OW56889   3.263   8.972  11.841  0.0580 -0.6323  0.0928
50735SOL    HW156890   3.200   9.013  11.781 -0.4746 -2.0158 -0.3229
50735SOL    HW256891   3.248   9.017  11.924 -1.7570 -1.1638  0.0992
50736SOL     OW56892   1.992  10.032   8.785  0.1102 -0.6198 -0.1150
50736SOL    HW156893   1.962   9.968   8.850 -0.3809 -0.0802  0.1948
50736SOL    HW256894   1.962  10.116   8.818 -0.6698 -0.3959 -1.3551
50737SOL     OW56895   9.134  10.980  11.937 -0.2561  0.1311  0.0156
50737SOL    HW156896   9.217  10.961  11.981 -0.6084 -1.6016  0.0072
50737SOL    HW256897   9.075  11.009  12.007 -0.0973 -0.2073  0.2909
50738SOL     OW56898   2.980   7.327   5.031  0.0060  0.3596 -0.6685
50738SOL    HW156899   2.909   7.319   4.967  1.9778 -0.3390 -2.8995
50738SOL    HW256900   2.985   7.421   5.050  1.3672  1.1165 -4.0792
50739SOL     OW56901   1.598   5.759   5.794  0.0514 -0.7792 -0.0331
50739SOL    HW156902   1.690   5.784   5.797 -0.0485 -0.0811 -1.5863
50739SOL    HW256903   1.591   5.699   5.720 -0.6190 -1.4686  0.5653
50740SOL     OW56904   4.634   4.801   0.399 -0.0111 -0.2987  0.5181
50740SOL    HW156905   4.568   4.871   0.396  0.5776  0.4269  2.6818
50740SOL    HW256906   4.583   4.720   0.396 -1.0909  0.2453  2.3181
50741SOL     OW56907   9.867   1.565   2.559 -0.0287 -0.2673  0.6272
50741SOL    HW156908   9.853   1.659   2.564  1.8135  0.1602 -0.9697
50741SOL    HW256909   9.825   1.539   2.477  0.9497 -0.4861  0.1782
50742SOL     OW56910   2.981   6.775   7.705  0.0343 -0.2887  0.1465
50742SOL    HW156911   3.048   6.712   7.732  0.2768  0.0474  0.3439
50742SOL    HW256912   2.991   6.782   7.610 -0.3842 -0.9848  0.0510
50743SOL     OW56913  11.670   3.517  11.066  0.2343 -0.2784  0.7140
50743SOL    HW156914  11.712   3.442  11.025  2.0077 -0.7661  3.1412
50743SOL    HW256915  11.726   3.536  11.142 -1.3213  2.1911  1.3493
50744SOL     OW56916   1.965   5.750   9.898  0.1194  0.5562 -0.0966
50744SOL    HW156917   1.891   5.789   9.944 -0.6170 -0.7529 -0.0990
50744SOL    HW256918   2.034   5.742   9.964 -0.5095 -0.1915  0.4882
50745SOL     OW56919  11.164   1.677   2.557 -0.1821 -0.6412  0.2485
50745SOL    HW156920  11.251   1.685   2.518  0.5504 -0.9042  1.7941
50745SOL    HW256921  11.168   1.599   2.612 -0.8948  0.2193  1.5734
50746SOL     OW56922  11.853   5.758   4.826  0.0125  0.2727 -0.1667
50746SOL    HW156923  11.885   5.804   4.904 -1.6424 -0.0312  0.7209
50746SOL    HW256924  11.890   5.670   4.834  0.4985  0.4710 -0.1651
50747SOL     OW56925  11.932   5.702   8.512 -0.1060 -0.5042 -0.2396
50747SOL    HW156926  11.948   5.669   8.601 -0.8410 -2.1644 -0.6801
50747SOL    HW256927  11.843   5.737   8.515 -0.9773 -2.5166 -0.7937
50748SOL     OW56928   6.490   0.658   3.591 -0.0841 -0.7063 -0.0846
50748SOL    HW156929   6.582   0.671   3.565  0.0657 -1.9440 -0.2411
50748SOL    HW256930   6.492   0.657   3.686  0.3051 -2.0715 -0.0761
50749SOL     OW56931   3.689  10.848   3.990  0.4136  0.0118 -0.2309
50749SOL    HW156932   3.724  10.934   4.015  1.5139 -0.6213  0.4711
50749SOL    HW256933   3.707  10.842   3.896  1.8135 -0.0997  0.0213
50750SOL     OW56934  11.459   5.357   3.706 -0.2484  0.2533 -0.0257
50750SOL    HW156935  11.453   5.378   3.613  2.1212  1.9996  0.1143
50750SOL    HW256936  11.500   5.271   3.709  1.5122  1.0197 -0.6587
50751SOL     OW56937   5.643   6.621  10.067  0.5605  0.3184  0.1895
50751SOL    HW156938   5.677   6.576   9.990 -0.0637  2.4647 -1.4569
50751SOL    HW256939   5.556   6.651  10.041  1.4950  3.7535  0.5178
50752SOL     OW56940   3.139   2.381   8.060 -0.6438  0.1954  0.1322
50752SOL    HW156941   3.136   2.304   8.004  1.9646 -1.8763  2.5449
50752SOL    HW256942   3.223   2.423   8.041  0.1502 -0.3699  2.1102
50753SOL     OW56943   8.886  10.359   1.201 -0.0587 -0.2245  0.3111
50753SOL    HW156944   8.820  10.290   1.195  0.5181 -0.9025  1.4625
50753SOL    HW256945   8.894  10.376   1.295  1.2240  0.0239  0.1682
50754SOL     OW56946   3.294   7.265   2.510  0.1044 -0.7457  0.8203
50754SOL    HW156947   3.377   7.232   2.543  1.1384 -0.0940 -0.9853
50754SOL    HW256948   3.262   7.197   2.451 -0.1329 -0.5550  0.7239
50755SOL     OW56949   6.131   5.343   5.911  0.1044 -0.4530  0.5047
50755SOL    HW156950   6.213   5.348   5.862  0.8942 -1.6155  1.6490
50755SOL    HW256951   6.158   5.336   6.003 -1.3033  4.0760  1.5369
50756SOL     OW56952   3.349   3.557   1.095 -0.2711 -0.0922 -0.1092
50756SOL    HW156953   3.393   3.586   1.015 -2.5466  1.8169 -0.7808
50756SOL    HW256954   3.332   3.464   1.081 -1.7413  0.4555 -2.4935
50757SOL     OW56955   7.943   0.431   1.312 -0.0295  1.1881  0.1946
50757SOL    HW156956   7.881   0.475   1.254  1.1869  0.7398 -1.5105
50757SOL    HW256957   7.903   0.345   1.329 -1.6051  2.2314  2.1778
50758SOL     OW56958   8.202   0.046   7.797 -0.1796 -0.5351  0.9195
50758SOL    HW156959   8.137   0.103   7.756  2.8227  2.0249 -0.7284
50758SOL    HW256960   8.215  -0.025   7.734 -0.9564 -0.7981  1.0387
50759SOL     OW56961  11.106  11.466   0.595 -0.3444 -0.3929  0.1010
50759SOL    HW156962  11.134  11.453   0.504 -1.2563 -1.3088 -0.0699
50759SOL    HW256963  11.011  11.479   0.589 -0.8656 -3.1088  1.0955
50760SOL     OW56964   1.488   8.106  11.431  0.2635 -0.3634 -0.3956
50760SOL    HW156965   1.499   8.160  11.353  2.5214  0.3348  0.3457
50760SOL    HW256966   1.516   8.018  11.403  0.3503 -0.2821 -0.5630
50761SOL     OW56967   4.956   4.960   2.758 -0.0279 -0.0014 -0.6914
50761SOL    HW156968   4.980   4.908   2.682 -0.3024 -3.0480  1.1412
50761SOL    HW256969   4.869   4.928   2.783 -0.5551  1.9006  0.1480
50762SOL     OW56970   0.837   0.448   3.564 -0.0668  0.0164 -0.2222
50762SOL    HW156971   0.886   0.374   3.529 -0.4312 -0.1731 -0.3428
50762SOL    HW256972   0.904   0.510   3.592  0.2494  0.3790 -1.6646
50763SOL     OW56973   7.363   9.511  11.403 -0.4991  0.4074 -0.0688
50763SOL    HW156974   7.300   9.581  11.384 -2.0320 -0.5295  1.3546
50763SOL    HW256975   7.390   9.527  11.494  2.1615  1.3792 -0.9396
50764SOL     OW56976   9.716   2.913   8.433 -0.5885 -0.4408  0.2907
50764SOL    HW156977   9.811   2.906   8.421 -0.6873 -2.3343  0.2821
50764SOL    HW256978   9.704   2.903   8.528 -0.7895 -0.4314  0.2654
50765SOL     OW56979  11.243   4.807  11.195  0.2813 -0.0878 -0.0161
50765SOL    HW156980  11.308   4.769  11.254  0.1760 -0.2055  0.0243
50765SOL    HW256981  11.171   4.744  11.195 -0.0207  0.2581  0.2834
50766SOL     OW56982   1.236   3.531   6.398  0.0930  0.3495  0.1370
50766SOL    HW156983   1.253   3.460   6.335  0.1975 -0.2534  0.8321
50766SOL    HW256984   1.198   3.487   6.474 -1.8205  1.2929 -0.2047
50767SOL     OW56985   9.005   1.064   7.415 -0.4023 -0.3960  0.1922
50767SOL    HW156986   8.911   1.082   7.418 -0.2476  0.8612 -1.3473
50767SOL    HW256987   9.026   1.058   7.322  1.4611  1.8652  0.3718
50768SOL     OW56988   1.356   9.365  11.689 -0.0151  0.6358  0.4201
50768SOL    HW156989   1.295   9.328  11.753  0.3825 -1.8843 -0.5223
50768SOL    HW256990   1.325   9.331  11.604  2.1309  0.0037 -0.1694
50769SOL     OW56991   7.809   4.162   7.243 -0.0730 -0.7733  0.0728
50769SOL    HW156992   7.745   4.100   7.207 -0.3330 -1.0663  1.0090
50769SOL    HW256993   7.887   4.110   7.261  0.5474 -0.3704 -1.2921
50770SOL     OW56994   0.372  10.536   5.776  0.5089 -0.1186  0.3288
50770SOL    HW156995   0.378  10.497   5.688 -0.6996 -0.5240  0.4008
50770SOL    HW256996   0.281  10.563   5.783  1.2865  2.8672  0.2559
50771SOL     OW56997  10.258  11.542   6.682 -0.0075 -0.1498 -0.2754
50771SOL    HW156998  10.233  11.474   6.745  0.0987  0.4994  0.4848
50771SOL    HW256999  10.353  11.535   6.676  0.1524  0.7545  0.8008
50772SOL     OW57000  11.821   9.725   9.924  0.3769 -0.0324  0.1091
50772SOL    HW157001  11.742   9.679   9.951  0.2576  0.6250  0.9123
50772SOL    HW257002  11.891   9.688   9.978  0.4957 -0.1140 -0.0979
50773SOL     OW57003   6.504   4.957   0.283 -0.3920  0.2750  0.0902
50773SOL    HW157004   6.458   4.936   0.364 -1.6570 -1.1604 -0.9447
50773SOL    HW257005   6.567   5.025   0.308  0.7416 -1.5808  2.7188
50774SOL     OW57006   2.682   3.779   9.155  0.4160  0.0195  0.0632
50774SOL    HW157007   2.738   3.704   9.176 -1.5363 -1.6967 -0.4839
50774SOL    HW257008   2.644   3.805   9.239 -1.3959 -1.8013 -0.1037
50775SOL     OW57009   0.240   3.339   7.008  0.2497 -0.8141  0.7277
50775SOL    HW157010   0.304   3.313   7.074  0.8732 -0.2608  0.3534
50775SOL    HW257011   0.183   3.262   6.997  1.1769 -1.5036  0.6734
50776SOL     OW57012   2.872   7.889   8.381 -0.1771  0.4919 -0.4582
50776SOL    HW157013   2.840   7.967   8.336 -1.7262 -0.8338 -1.7865
50776SOL    HW257014   2.816   7.881   8.458 -0.2328  0.5077 -0.4979
50777SOL     OW57015   3.435   1.893  10.579  0.1874 -0.0914  0.5585
50777SOL    HW157016   3.462   1.974  10.622  0.0666  0.9409 -1.2116
50777SOL    HW257017   3.451   1.825  10.645  1.0107  1.2504  1.8268
50778SOL     OW57018   2.286   9.431   5.853 -0.0053  0.4397 -0.5076
50778SOL    HW157019   2.247   9.399   5.772  0.6573 -1.3733 -0.1579
50778SOL    HW257020   2.379   9.409   5.846  0.1136  0.5220  0.6088
50779SOL     OW57021  11.032  10.433   5.875 -0.1718  0.0410 -0.3475
50779SOL    HW157022  11.105  10.376   5.902 -1.2237 -1.0881  0.2096
50779SOL    HW257023  11.020  10.414   5.782  1.0825  1.2246 -0.7828
50780SOL     OW57024   3.312   2.705   7.716 -0.1291 -0.2649  0.0394
50780SOL    HW157025   3.245   2.727   7.652  0.8258  0.9908 -0.5499
50780SOL    HW257026   3.268   2.715   7.801 -0.4300  1.6092 -0.2930
50781SOL     OW57027   2.218  11.639  10.994 -0.2903 -0.9627 -0.1025
50781SOL    HW157028   2.143  11.636  10.934  1.2471  2.5984 -2.5887
50781SOL    HW257029   2.200  11.714  11.051  0.9791 -0.5253 -0.2379
50782SOL     OW57030   4.817   5.884   2.272 -0.1261 -0.8241 -0.8049
50782SOL    HW157031   4.910   5.895   2.251  0.3698 -1.1450  1.0499
50782SOL    HW257032   4.815   5.869   2.367 -1.9832 -1.9360 -0.9664
50783SOL     OW57033   8.451   9.968  11.848 -0.0680  0.1308 -0.1366
50783SOL    HW157034   8.543   9.942  11.856 -0.1589 -0.2120 -0.1524
50783SOL    HW257035   8.403   9.886  11.858 -0.4619  0.5249  1.4938
50784SOL     OW57036   6.807  10.689   9.726  0.7224 -0.0692  0.0645
50784SOL    HW157037   6.814  10.782   9.746  1.0393  0.3469 -1.8374
50784SOL    HW257038   6.896  10.656   9.733  0.9036  0.1674 -0.9921
50785SOL     OW57039   7.362   4.357  10.080  0.2987  0.6032 -0.0137
50785SOL    HW157040   7.367   4.420  10.008  1.1060  1.8688  1.1078
50785SOL    HW257041   7.441   4.373  10.131 -0.8464  0.5959  1.8326
50786SOL     OW57042  11.373   0.105   1.909 -0.7501  0.3972 -0.2455
50786SOL    HW157043  11.391   0.017   1.942 -1.0996  0.2998 -0.3138
50786SOL    HW257044  11.291   0.130   1.951 -0.5659  0.7546 -0.0997
50787SOL     OW57045   3.386   8.449   4.968  0.1459 -0.1569 -0.1206
50787SOL    HW157046   3.334   8.530   4.971 -0.4859 -0.4448 -2.1774
50787SOL    HW257047   3.321   8.379   4.956  0.8738 -0.6569 -1.3147
50788SOL     OW57048   0.466   4.943   1.228 -0.2918 -0.2138 -0.2983
50788SOL    HW157049   0.427   4.943   1.141 -1.5125  0.9722  0.2133
50788SOL    HW257050   0.517   5.024   1.232 -0.5300 -0.0785  0.1907
50789SOL     OW57051   4.423   0.756   7.149 -0.0379  0.0497 -0.3420
50789SOL    HW157052   4.432   0.794   7.236  0.7667 -0.3141 -0.2546
50789SOL    HW257053   4.339   0.789   7.117 -0.0961  0.6105  0.3560
50790SOL     OW57054  11.020   3.061  11.290  0.1046  0.0726 -0.6545
50790SOL    HW157055  10.983   2.992  11.235 -1.3445  0.7136 -0.5467
50790SOL    HW257056  10.948   3.125  11.300  0.4577  0.2220  1.5405
50791SOL     OW57057   4.866  10.419  12.001 -0.2430  0.0923 -0.3438
50791SOL    HW157058   4.919  10.376  12.069 -1.2540  0.4116  0.6787
50791SOL    HW257059   4.927  10.434  11.929  0.7116 -0.8341  0.2422
50792SOL     OW57060   1.507   2.001   1.759 -0.3959  0.4229  0.8715
50792SOL    HW157061   1.490   1.936   1.691 -0.3114  0.7650  0.5181
50792SOL    HW257062   1.595   2.032   1.741 -1.3425  2.4937 -0.5589
50793SOL     OW57063   7.585   5.002  11.578  0.7194  0.5735  0.5885
50793SOL    HW157064   7.526   5.073  11.552 -0.2314  0.2790  1.8384
50793SOL    HW257065   7.659   5.047  11.619  0.3145  0.8822  1.0005
50794SOL     OW57066   3.065   3.503  10.982 -0.1813 -0.1941 -0.1903
50794SOL    HW157067   3.138   3.526  10.924  0.7127  2.0883  1.6888
50794SOL    HW257068   3.107   3.482  11.066 -1.5912 -0.5187  0.4660
50795SOL     OW57069   6.080  11.191   4.303 -0.1782 -0.4601  0.0665
50795SOL    HW157070   6.057  11.119   4.361  0.7603  0.4349  1.5969
50795SOL    HW257071   6.010  11.192   4.237 -1.8259 -0.8767  1.7460
50796SOL     OW57072   6.039   3.468   7.991  0.0842 -0.5145 -0.0112
50796SOL    HW157073   6.083   3.542   7.950 -1.7610 -0.1819 -1.5207
50796SOL    HW257074   6.012   3.412   7.918 -2.3472 -0.4648  0.7623
50797SOL     OW57075   9.651   3.812  11.975 -0.4947 -0.2674 -0.4713
50797SOL    HW157076   9.584   3.787  11.911 -1.0761  0.6595 -0.2500
50797SOL    HW257077   9.706   3.874  11.928 -1.3283  0.9437  0.1036
50798SOL     OW57078   7.910   1.428   3.681 -0.2758  0.0708 -0.4937
50798SOL    HW157079   7.815   1.429   3.675 -0.3813 -1.7379  0.3218
50798SOL    HW257080   7.938   1.367   3.613  0.3005  0.4807 -0.6302
50799SOL     OW57081  10.142  10.091   6.634  0.9810  0.0486  0.1769
50799SOL    HW157082  10.126  10.055   6.722 -0.4597  0.1390 -0.0237
50799SOL    HW257083  10.228  10.057   6.609  0.4053 -1.8837  0.6803
50800SOL     OW57084   3.399   4.634  10.976 -0.0251  0.6793 -0.0433
50800SOL    HW157085   3.452   4.707  10.945  0.9174 -0.3122 -0.8555
50800SOL    HW257086   3.461   4.578  11.023 -0.0840 -0.9819 -1.8098
50801SOL     OW57087  10.768   8.912   3.040  0.4521 -0.5303 -0.1755
50801SOL    HW157088  10.835   8.929   3.106 -0.4134  1.9877  0.1628
50801SOL    HW257089  10.814   8.867   2.970  2.4451  0.8485  0.1811
50802SOL     OW57090  11.356   3.017   6.802 -0.2157 -0.0675  0.0376
50802SOL    HW157091  11.279   3.058   6.765  0.1406 -0.6260 -1.4163
50802SOL    HW257092  11.408   2.991   6.726 -0.1296 -2.6016  0.8680
50803SOL     OW57093   3.148  11.431   0.462 -0.5000 -0.1547 -0.1590
50803SOL    HW157094   3.136  11.524   0.483 -0.2580 -0.2036  0.1933
50803SOL    HW257095   3.219  11.402   0.519 -1.8312 -1.0385  1.1286
50804SOL     OW57096   4.037   8.006  10.976  0.3794 -0.2940  0.2972
50804SOL    HW157097   3.991   8.090  10.971  0.2999 -0.2679  1.2247
50804SOL    HW257098   4.122   8.023  10.935  0.0733  0.0269 -0.2145
50805SOL     OW57099   8.895   5.418  11.283 -0.3241  0.4744  0.5461
50805SOL    HW157100   8.865   5.346  11.227  0.9440  0.5984 -0.3337
50805SOL    HW257101   8.839   5.413  11.360 -2.5824  0.6844 -0.9684
50806SOL     OW57102   2.373   6.912  11.102  0.4242 -0.2701  0.1677
50806SOL    HW157103   2.466   6.920  11.083  0.3773  0.1826  0.1249
50806SOL    HW257104   2.357   6.972  11.175  0.4935 -1.5960  1.3133
50807SOL     OW57105   3.578   4.620   1.678 -0.2604  0.0026  0.3857
50807SOL    HW157106   3.618   4.554   1.623  0.8566  1.0411 -0.1023
50807SOL    HW257107   3.644   4.689   1.684 -1.1664  0.8232  1.3335
50808SOL     OW57108   9.649   8.105   3.253  0.1793  0.3297  0.0324
50808SOL    HW157109   9.661   8.194   3.285  1.1913  0.1965  0.0357
50808SOL    HW257110   9.727   8.087   3.202  0.7553 -1.1400  1.3649
50809SOL     OW57111   6.449   7.279   8.637 -0.0917 -0.2248  1.4253
50809SOL    HW157112   6.395   7.211   8.597 -0.0756  0.3389  0.4102
50809SOL    HW257113   6.533   7.272   8.591  0.0563  0.1826  1.6350
50810SOL     OW57114  10.612   6.977   8.675 -0.3987 -0.4831 -0.2238
50810SOL    HW157115  10.631   7.033   8.750 -2.4857  0.7077 -0.4999
50810SOL    HW257116  10.690   6.923   8.664  0.2505 -0.1564  2.3066
50811SOL     OW57117   8.459   6.354  11.080 -0.1678 -0.3096  0.0269
50811SOL    HW157118   8.433   6.442  11.055  0.0325 -0.5261 -0.9994
50811SOL    HW257119   8.387   6.321  11.133  0.4062  0.9950  1.6848
50812SOL     OW57120   7.487   1.252   0.033 -0.3587  0.5121 -0.2424
50812SOL    HW157121   7.420   1.222   0.095  0.0856  2.7485  1.4592
50812SOL    HW257122   7.460   1.341   0.010  2.1115  1.5993  0.7393
50813SOL     OW57123   2.653   6.739   7.905 -0.2805 -0.3880 -0.3698
50813SOL    HW157124   2.720   6.807   7.898  0.9249 -1.2605  1.8552
50813SOL    HW257125   2.698   6.659   7.879 -1.2554 -0.6081 -1.4462
50814SOL     OW57126   0.405   1.910   1.694  0.6896  0.6410  0.4966
50814SOL    HW157127   0.392   1.963   1.773 -1.2786  1.8140 -0.5314
50814SOL    HW257128   0.378   1.822   1.720 -1.5353  1.3358  0.7797
50815SOL     OW57129   5.624   2.040   1.607 -0.5051  0.1421  0.1978
50815SOL    HW157130   5.641   1.996   1.524  1.1662  1.1725 -0.0571
50815SOL    HW257131   5.550   1.992   1.645 -0.5275 -1.1056 -1.3127
50816SOL     OW57132   7.874   0.409   2.676 -0.5511  0.2935 -0.0591
50816SOL    HW157133   7.810   0.345   2.646 -0.0015 -1.1367  1.6875
50816SOL    HW257134   7.958   0.365   2.669 -0.3555 -0.0643  3.1787
50817SOL     OW57135   6.030  11.191   0.876 -0.2608  0.7737 -0.2652
50817SOL    HW157136   5.987  11.218   0.794  2.4058  0.3011 -1.9405
50817SOL    HW257137   6.120  11.172   0.850  0.6098  0.3143  2.7787
50818SOL     OW57138   0.413   2.981   1.196  0.2860 -0.4149  0.2561
50818SOL    HW157139   0.329   3.027   1.208 -0.4805 -1.6868 -0.0222
50818SOL    HW257140   0.404   2.936   1.112  1.5236 -0.0391 -0.0977
50819SOL     OW57141   4.474   8.993   6.479  0.4825 -0.6169 -0.0192
50819SOL    HW157142   4.536   8.993   6.406  0.8918 -1.8218  0.2933
50819SOL    HW257143   4.418   8.917   6.462 -0.0545 -0.3215  0.4032
50820SOL     OW57144   2.141   6.123  11.182  0.0557  0.1230 -0.3548
50820SOL    HW157145   2.207   6.179  11.224 -0.1669 -0.1551  0.3880
50820SOL    HW257146   2.146   6.146  11.089 -0.4193  1.8028 -0.0120
50821SOL     OW57147   0.732   3.640  11.676  0.1208 -0.3603  0.0657
50821SOL    HW157148   0.681   3.560  11.691 -0.2838 -0.5904 -2.1197
50821SOL    HW257149   0.818   3.608  11.648  0.0943 -0.0385 -0.3942
50822SOL     OW57150  11.593  11.483   9.305  0.2721  0.0775  0.3745
50822SOL    HW157151  11.676  11.445   9.333 -0.4275 -1.0339  0.9964
50822SOL    HW257152  11.528  11.414   9.319 -1.0707  1.5206  1.6780
50823SOL     OW57153  10.199   6.204   1.212 -0.5592 -0.0947 -1.1227
50823SOL    HW157154  10.248   6.164   1.139 -0.8471 -1.6197 -0.5219
50823SOL    HW257155  10.266   6.221   1.278 -0.5186 -0.1185 -1.1573
50824SOL     OW57156   3.322   1.363   4.169 -0.4602 -0.3042  0.5444
50824SOL    HW157157   3.266   1.313   4.229  0.0350 -2.0323 -0.3617
50824SOL    HW257158   3.399   1.385   4.221 -1.2328  0.6555  1.3222
50825SOL     OW57159   6.581   2.599  11.633 -0.2489  0.2927 -0.0188
50825SOL    HW157160   6.590   2.572  11.541  1.9152 -2.5399  0.8550
50825SOL    HW257161   6.522   2.534  11.671 -0.0220  0.6073  0.8773
50826SOL     OW57162   7.691   6.078  11.141 -0.2252 -0.0500  0.0109
50826SOL    HW157163   7.709   6.171  11.150 -0.0888 -0.2009  1.4292
50826SOL    HW257164   7.735   6.037  11.215 -0.0350 -1.2834 -0.7509
50827SOL     OW57165   4.126   7.986   7.354 -0.3542  0.5283  0.0510
50827SOL    HW157166   4.197   7.993   7.419 -1.2384  1.0236  0.9890
50827SOL    HW257167   4.130   7.894   7.326  1.6715  0.9198 -1.1244
50828SOL     OW57168   5.098   0.047   0.816  0.3693 -0.2496 -0.7215
50828SOL    HW157169   5.177   0.040   0.868  1.4445 -2.3909 -2.4679
50828SOL    HW257170   5.098  -0.032   0.762 -3.1467 -0.5259 -0.5694
50829SOL     OW57171   8.257   0.917   2.022 -0.0554  0.0164  0.0034
50829SOL    HW157172   8.242   1.012   2.023 -0.0498  0.0320 -0.8428
50829SOL    HW257173   8.346   0.907   2.057  0.6497  0.4758 -1.5635
50830SOL     OW57174   4.518   3.365  10.188  0.2836 -0.7059  0.2070
50830SOL    HW157175   4.455   3.396  10.254  1.1320 -1.4396  1.4224
50830SOL    HW257176   4.521   3.434  10.122 -0.2565  0.2858  1.1864
50831SOL     OW57177   7.645   1.387   3.674  0.0920  0.2548  0.2257
50831SOL    HW157178   7.687   1.311   3.633 -1.1346 -1.0605  1.2780
50831SOL    HW257179   7.619   1.355   3.761 -0.0450  2.0420  0.8763
50832SOL     OW57180   8.015   1.154   4.414 -0.1590  0.0954  0.2969
50832SOL    HW157181   8.087   1.102   4.449  0.1249 -0.4784 -1.0932
50832SOL    HW257182   8.032   1.243   4.445  2.1919  0.3625 -1.4942
50833SOL     OW57183   0.990   9.475   9.125 -0.2699 -0.0756 -0.6669
50833SOL    HW157184   0.981   9.534   9.050  0.7185  1.0552  0.0449
50833SOL    HW257185   0.916   9.497   9.181  0.1306  0.5828 -0.3722
50834SOL     OW57186   1.950   3.294   8.286 -0.2472 -0.5174  0.5313
50834SOL    HW157187   1.884   3.345   8.332 -0.3994 -1.9974  2.0632
50834SOL    HW257188   1.926   3.203   8.304  1.3911 -1.1062 -0.0925
50835SOL     OW57189   6.998   4.998   4.770  0.0958  0.3526 -0.0596
50835SOL    HW157190   7.039   5.084   4.766  0.9947 -0.0293  0.6477
50835SOL    HW257191   7.026   4.955   4.689  0.4199  0.3915  0.0302
50836SOL     OW57192   2.310   9.781  11.948 -0.0589  0.5653 -0.0871
50836SOL    HW157193   2.260   9.714  11.901  1.3272  0.5794 -1.6655
50836SOL    HW257194   2.295   9.861  11.898  0.4800  0.8459  0.2006
50837SOL     OW57195   6.550   3.271   0.752  0.3650 -0.4319  0.1456
50837SOL    HW157196   6.558   3.182   0.787  0.7285  0.0573  1.3659
50837SOL    HW257197   6.514   3.322   0.825  0.9835  0.5972 -0.2465
50838SOL     OW57198   2.773   7.847   1.297  0.3626  0.3161  0.1192
50838SOL    HW157199   2.836   7.896   1.349  0.1976  0.1620  0.4716
50838SOL    HW257200   2.794   7.755   1.313  1.3732  0.2462 -1.4031
50839SOL     OW57201   5.902  11.034   9.864  0.4048 -0.2158  0.5176
50839SOL    HW157202   5.836  11.099   9.889  1.2945  1.0878 -0.3911
50839SOL    HW257203   5.914  11.048   9.770  1.4423 -0.9410  0.5330
50840SOL     OW57204   8.394   4.326   1.912 -0.1278 -0.5066 -0.0060
50840SOL    HW157205   8.390   4.404   1.857  1.5546 -1.4937 -1.6473
50840SOL    HW257206   8.486   4.317   1.936 -0.5745 -1.0096  1.7080
50841SOL     OW57207   8.035  11.471   5.746  0.5694 -0.2952  0.5754
50841SOL    HW157208   8.126  11.500   5.745 -0.1100  2.2065 -2.3416
50841SOL    HW257209   8.040  11.376   5.744  3.0193 -0.3472  3.1161
50842SOL     OW57210   2.560   4.426   3.132 -0.2003  0.2835 -0.4206
50842SOL    HW157211   2.642   4.377   3.132  0.9980  2.1397  0.8820
50842SOL    HW257212   2.501   4.374   3.185  0.2453 -0.8978 -1.0594
50843SOL     OW57213   7.075   7.694   2.927  0.5695  0.3740  0.1550
50843SOL    HW157214   7.033   7.761   2.981  0.1881 -2.1231  3.2056
50843SOL    HW257215   7.168   7.701   2.949  0.8668  1.2619 -1.2313
50844SOL     OW57216  10.071   2.567   5.877  0.3847  0.0097  0.6270
50844SOL    HW157217  10.119   2.585   5.958 -0.7750 -0.0395  1.3653
50844SOL    HW257218  10.031   2.481   5.892  0.1057  0.0311  0.0286
50845SOL     OW57219  10.243   8.078  10.149 -0.6803 -0.1249 -0.2531
50845SOL    HW157220  10.260   8.134  10.073  0.3807 -0.4190 -0.2542
50845SOL    HW257221  10.326   8.031  10.162 -1.0564 -0.5318  0.7028
50846SOL     OW57222   6.369   3.534   4.104  0.1598 -0.5212 -0.0450
50846SOL    HW157223   6.380   3.531   4.199  1.3599 -0.8183 -0.1769
50846SOL    HW257224   6.320   3.454   4.083 -1.2777  0.1889  0.4309
50847SOL     OW57225   2.788   0.616   9.666 -0.0390  0.0734  0.5738
50847SOL    HW157226   2.704   0.662   9.662  0.0291  0.1714  0.2641
50847SOL    HW257227   2.782   0.564   9.746  0.3353  1.4809  1.5531
50848SOL     OW57228   5.590   5.347   4.319 -0.0118  0.5349  0.0591
50848SOL    HW157229   5.544   5.430   4.331 -0.5194  0.2103  0.3493
50848SOL    HW257230   5.675   5.373   4.282 -0.4902  1.1203 -0.6659
50849SOL     OW57231  11.092   5.927   3.225  0.0732  0.5161 -0.1246
50849SOL    HW157232  11.050   5.853   3.268  0.5566  0.4070  0.1668
50849SOL    HW257233  11.181   5.929   3.262  0.3481  0.6909 -0.7914
50850SOL     OW57234   7.924  10.294   3.676 -0.3196 -0.3052  0.1027
50850SOL    HW157235   7.855  10.248   3.724 -0.3478 -0.9030 -0.5037
50850SOL    HW257236   8.006  10.261   3.715 -0.3643  0.0022  0.4573
50851SOL     OW57237  10.876   6.461   9.334 -0.7257  0.2588 -0.1976
50851SOL    HW157238  10.915   6.387   9.289 -0.5694 -0.0361  0.4101
50851SOL    HW257239  10.893   6.445   9.427  1.5212  2.2799 -0.1487
50852SOL     OW57240   3.027   7.650   4.809  0.1074  0.2742 -0.4408
50852SOL    HW157241   3.052   7.597   4.734  0.3195 -3.6170  2.0850
50852SOL    HW257242   3.110   7.685   4.843  0.7067 -1.8947  0.5328
50853SOL     OW57243   3.227  11.063   0.541 -0.0518 -0.1969  0.3314
50853SOL    HW157244   3.137  11.040   0.564 -0.7395  2.0158  0.0407
50853SOL    HW257245   3.274  11.066   0.625 -0.8691  1.0490  0.7683
50854SOL     OW57246   2.964   1.680  11.088  0.2311 -0.2056  0.0174
50854SOL    HW157247   2.901   1.668  11.017  0.9353  1.3885 -0.9283
50854SOL    HW257248   2.913   1.721  11.158 -0.3478 -1.3034  0.2629
50855SOL     OW57249   2.064  10.927   0.448 -0.0763  0.1780 -0.6293
50855SOL    HW157250   1.997  10.859   0.447 -1.2744  1.3026 -0.1247
50855SOL    HW257251   2.017  11.007   0.473  1.6106  0.8379  0.6532
50856SOL     OW57252   9.101   2.248   4.501  0.1152 -0.8679 -0.0118
50856SOL    HW157253   9.046   2.174   4.475 -0.0581 -0.8617  0.3302
50856SOL    HW257254   9.075   2.319   4.443  1.3987 -1.5029 -1.4295
50857SOL     OW57255  11.264   6.461   2.036  0.0722  0.2647  0.4338
50857SOL    HW157256  11.256   6.417   1.951 -1.4685  0.6226  0.3560
50857SOL    HW257257  11.244   6.393   2.100 -1.1435  0.5336  0.3691
50858SOL     OW57258   9.860   1.438   3.531  0.5167  0.2316  0.2455
50858SOL    HW157259   9.842   1.511   3.591  0.6539 -1.3492  2.3479
50858SOL    HW257260   9.944   1.403   3.561 -0.2899 -1.7544  0.3619
50859SOL     OW57261   1.820   1.671   3.554  0.9752 -0.6983 -0.0672
50859SOL    HW157262   1.782   1.598   3.603  2.4262 -1.1753  0.4079
50859SOL    HW257263   1.875   1.629   3.488  0.9673 -0.0277 -0.5134
50860SOL     OW57264   5.631   8.579   2.969  0.4933  0.0085  0.1684
50860SOL    HW157265   5.597   8.633   2.897  2.3023  0.1503 -0.6270
50860SOL    HW257266   5.571   8.596   3.042  0.4248  2.3486 -0.3465
50861SOL     OW57267   9.928   8.001   9.068 -0.0931 -0.0442  0.0193
50861SOL    HW157268   9.912   7.992   8.974  0.9634 -3.9417  0.0534
50861SOL    HW257269   9.842   8.025   9.104 -0.8003  0.2974 -1.7723
50862SOL     OW57270   1.670   1.435   0.143  0.4465 -0.0831 -0.0032
50862SOL    HW157271   1.678   1.530   0.156  1.3543 -0.1639  0.0990
50862SOL    HW257272   1.738   1.414   0.080 -1.3489 -0.3081 -1.9605
50863SOL     OW57273  10.672   6.320   7.203  0.0549 -0.4206  0.1266
50863SOL    HW157274  10.748   6.374   7.227 -0.6860 -0.5130  3.1345
50863SOL    HW257275  10.702   6.230   7.216 -0.4758 -0.4623  1.1410
50864SOL     OW57276   1.923   5.146   1.111  0.7191 -0.5231 -0.2127
50864SOL    HW157277   1.946   5.138   1.204 -0.9026  0.3207  0.2927
50864SOL    HW257278   1.856   5.080   1.097 -2.1535  2.0107  0.3680
50865SOL     OW57279   6.655   5.997   1.110  0.5572 -0.3438 -0.1770
50865SOL    HW157280   6.579   5.951   1.145  0.9091 -0.7538  0.0616
50865SOL    HW257281   6.720   5.929   1.096  0.4823 -0.1768 -1.5112
50866SOL     OW57282   0.640   1.616   1.977  0.7409  0.0857  0.2011
50866SOL    HW157283   0.716   1.657   1.935 -0.0383  0.0890 -1.2825
50866SOL    HW257284   0.655   1.522   1.967  0.9974  0.0616  0.7666
50867SOL     OW57285   8.177  11.550   8.449 -0.0455  0.4742  0.1521
50867SOL    HW157286   8.254  11.600   8.474  0.0997 -0.0068  0.6900
50867SOL    HW257287   8.118  11.614   8.409  0.3136  0.9830  0.4318
50868SOL     OW57288   6.681   6.689   2.232  0.3343 -0.0495 -0.1700
50868SOL    HW157289   6.752   6.629   2.214 -0.5893 -1.1004 -0.4339
50868SOL    HW257290   6.700   6.766   2.179  0.8728 -0.6276 -0.8249
50869SOL     OW57291   6.628   3.539  10.793 -0.1853 -0.2171 -0.0272
50869SOL    HW157292   6.720   3.526  10.817 -0.0531  0.2616 -0.2635
50869SOL    HW257293   6.580   3.523  10.874  0.0229 -1.3968 -0.1196
50870SOL     OW57294   6.229   4.190   3.617 -0.1254  0.1488 -0.1546
50870SOL    HW157295   6.311   4.188   3.568  0.7329 -0.8909  1.2343
50870SOL    HW257296   6.201   4.099   3.621 -2.6039  0.7104 -2.5234
50871SOL     OW57297   1.412   9.838   0.824 -0.7665  0.1898 -0.2887
50871SOL    HW157298   1.477   9.772   0.798 -0.6556  0.0400  0.3696
50871SOL    HW257299   1.460   9.920   0.825 -0.4687  0.0092  0.6605
50872SOL     OW57300  10.151   8.481  10.918 -0.1650 -0.7162 -0.1037
50872SOL    HW157301  10.163   8.534  10.839 -1.8230 -0.7301 -0.4002
50872SOL    HW257302  10.101   8.406  10.889 -3.2394  0.5788  1.3750
50873SOL     OW57303   7.570   4.832   9.598  0.0422  0.6344 -0.0566
50873SOL    HW157304   7.527   4.879   9.669 -0.0642  1.3887 -0.6014
50873SOL    HW257305   7.577   4.896   9.527 -1.0650 -0.4517 -1.2199
50874SOL     OW57306   7.695   0.870   4.950  0.5073 -0.4164 -0.2595
50874SOL    HW157307   7.739   0.809   5.009 -0.8001  0.2188  1.4930
50874SOL    HW257308   7.764   0.905   4.895  2.5006  1.2266  2.9614
50875SOL     OW57309   9.893   0.752   3.486  0.0487 -0.1670  0.7346
50875SOL    HW157310   9.898   0.841   3.452  1.2472 -0.0682  1.1272
50875SOL    HW257311   9.901   0.696   3.409 -0.3931  0.0599  0.5220
50876SOL     OW57312   6.997   7.758   3.465  0.3153 -0.5179  0.5238
50876SOL    HW157313   7.033   7.830   3.517  0.4494 -0.5812  0.5166
50876SOL    HW257314   7.065   7.737   3.401  0.1452 -0.4313  0.3139
50877SOL     OW57315   9.344   5.110   3.918 -0.4524  0.0405  0.5506
50877SOL    HW157316   9.250   5.124   3.909 -1.0548 -0.7441  3.9841
50877SOL    HW257317   9.371   5.173   3.985  1.4013 -0.0601 -0.0506
50878SOL     OW57318   2.152   1.690   0.202  0.1685 -0.0521  0.1806
50878SOL    HW157319   2.089   1.618   0.193 -0.6355  0.0683  3.4403
50878SOL    HW257320   2.231   1.659   0.159 -0.3707 -2.6273  0.8922
50879SOL     OW57321   0.612   1.131   2.365  0.6418 -0.7989 -0.4181
50879SOL    HW157322   0.607   1.161   2.456 -2.8845 -3.1976  0.3865
50879SOL    HW257323   0.566   1.199   2.315 -0.1698 -0.9223  0.1299
50880SOL     OW57324   9.809   5.633  10.456 -0.0790 -0.8861 -0.6975
50880SOL    HW157325   9.736   5.640  10.394 -0.1765  0.8119 -0.4220
50880SOL    HW257326   9.887   5.651  10.403  0.0150 -1.2238 -0.6795
50881SOL     OW57327   8.800   2.554  11.764  0.5985  0.6548 -0.7592
50881SOL    HW157328   8.799   2.615  11.838  0.5579  3.3919 -2.8859
50881SOL    HW257329   8.734   2.488  11.787  1.6079  0.5012  2.2376
50882SOL     OW57330   2.259   7.162   0.764 -0.2182 -0.2092 -0.5115
50882SOL    HW157331   2.347   7.176   0.800  0.1304  0.8606 -1.6974
50882SOL    HW257332   2.261   7.208   0.680 -1.8160 -0.4635 -0.7019
50883SOL     OW57333   3.362   1.408   8.386  0.4789  0.6765 -0.0279
50883SOL    HW157334   3.300   1.366   8.326 -2.9339  0.8309  2.9808
50883SOL    HW257335   3.425   1.340   8.407  0.7246  0.1144 -2.3468
50884SOL     OW57336   3.481  11.369   2.858  0.3470 -0.7190  0.4295
50884SOL    HW157337   3.494  11.454   2.816  2.2191 -1.0442  0.2584
50884SOL    HW257338   3.454  11.390   2.947  0.2778  0.0473  0.2340
50885SOL     OW57339   8.561  10.789   4.488 -0.0669  0.1352 -0.1996
50885SOL    HW157340   8.548  10.788   4.583  0.5732  2.1164 -0.0417
50885SOL    HW257341   8.548  10.698   4.461 -3.9221  0.0589  1.2802
50886SOL     OW57342   6.737   0.433  10.555 -0.0726 -0.5244 -0.1096
50886SOL    HW157343   6.738   0.391  10.469  0.5702 -0.6230 -0.0575
50886SOL    HW257344   6.651   0.411  10.591 -0.5338 -0.1036 -0.9071
50887SOL     OW57345  10.200   0.104   4.174  0.8174  0.0542  0.0609
50887SOL    HW157346  10.253   0.168   4.222 -0.5761  0.3666  1.2752
50887SOL    HW257347  10.261   0.063   4.112  2.4109  0.5091  1.2597
50888SOL     OW57348   7.450  10.890   5.242 -0.1397  0.0385  0.4298
50888SOL    HW157349   7.484  10.802   5.223  1.1893  0.8395 -1.2554
50888SOL    HW257350   7.392  10.909   5.168  1.2988  1.3572 -0.4410
50889SOL     OW57351   7.334   9.378   1.521  0.7482  0.2952 -0.3697
50889SOL    HW157352   7.322   9.450   1.460 -1.9943 -1.3415 -1.9556
50889SOL    HW257353   7.285   9.403   1.599  2.5341  1.4796  0.4410
50890SOL     OW57354  10.478   5.016   3.089 -0.1471  0.2997  0.3170
50890SOL    HW157355  10.559   5.035   3.042 -0.3281 -1.3526 -0.7181
50890SOL    HW257356  10.413   5.075   3.050 -0.0977 -0.4487 -0.9599
50891SOL     OW57357   6.047   7.440   3.228  0.0670  0.0318 -0.1581
50891SOL    HW157358   6.080   7.362   3.183  0.1074 -0.4808  0.7393
50891SOL    HW257359   6.086   7.513   3.181  1.2144 -0.5252 -0.1135
50892SOL     OW57360   7.934   9.494   9.120  0.0029  0.0684 -0.2242
50892SOL    HW157361   7.980   9.441   9.055 -1.2768 -0.3568 -0.8060
50892SOL    HW257362   7.859   9.530   9.073 -0.3118  0.6864  0.7252
50893SOL     OW57363   4.345   3.332  11.429 -0.1022 -0.1293 -0.0346
50893SOL    HW157364   4.319   3.343  11.520 -1.1184 -0.5892 -0.2664
50893SOL    HW257365   4.335   3.239  11.411  0.5997 -0.1321 -0.4711
50894SOL     OW57366   7.510   7.902  10.107 -0.1307 -0.2265 -0.3906
50894SOL    HW157367   7.424   7.903  10.065  0.1025  2.2911 -0.9616
50894SOL    HW257368   7.505   7.829  10.169 -3.2749  0.8112  0.7741
50895SOL     OW57369   1.854   6.598   7.857  0.3278  0.3616 -0.4392
50895SOL    HW157370   1.928   6.639   7.812 -0.1898  1.5512 -0.2250
50895SOL    HW257371   1.855   6.507   7.826  1.0246  0.7212 -1.5317
50896SOL     OW57372   9.612   6.566  10.554 -0.2971  0.7086  0.7879
50896SOL    HW157373   9.598   6.500  10.621  0.3755 -0.4493 -0.1726
50896SOL    HW257374   9.524   6.598  10.532 -1.0335 -2.1963 -0.9828
50897SOL     OW57375  11.900  10.795   9.809 -0.1287  0.1158  0.0800
50897SOL    HW157376  11.985  10.835   9.789  0.1227  0.1131  1.0980
50897SOL    HW257377  11.857  10.787   9.724  2.2009 -2.9462 -1.0147
50898SOL     OW57378   3.713   5.318   6.266 -0.1733 -0.2462  0.3879
50898SOL    HW157379   3.638   5.262   6.286  0.1060 -0.8431 -0.1680
50898SOL    HW257380   3.696   5.350   6.178  1.9385 -3.4215 -1.3566
50899SOL     OW57381   6.874   4.892   6.673  0.4783 -0.3632 -0.4877
50899SOL    HW157382   6.831   4.810   6.651  2.1192 -1.6900  0.9433
50899SOL    HW257383   6.953   4.866   6.720  0.3779  2.0611  1.2357
50900SOL     OW57384   3.694   2.188   6.291  0.1196  0.1232  0.6377
50900SOL    HW157385   3.785   2.216   6.307  0.3074  0.0272 -0.2196
50900SOL    HW257386   3.697   2.093   6.301  0.4056 -0.0240 -0.6570
50901SOL     OW57387   2.758   2.921   3.384 -0.1721  0.0007 -0.0219
50901SOL    HW157388   2.757   2.984   3.312  0.7942 -0.0848 -0.1249
50901SOL    HW257389   2.827   2.859   3.361  0.3109  0.0947  1.0761
50902SOL     OW57390   7.074  11.601  10.165  0.1497  0.0409  0.3102
50902SOL    HW157391   7.019  11.663  10.212 -0.7443  1.2553 -2.1288
50902SOL    HW257392   7.163  11.621  10.194 -0.3763  0.4330  1.7235
50903SOL     OW57393   2.043   1.204   1.487 -0.2357 -0.1666 -0.3627
50903SOL    HW157394   2.122   1.233   1.532 -0.8268  1.4997 -0.3387
50903SOL    HW257395   1.988   1.168   1.557  0.1841 -0.6768 -0.2803
50904SOL     OW57396   6.656   7.025   8.245 -0.1966  0.1535 -0.1574
50904SOL    HW157397   6.616   6.938   8.236  2.4543 -1.4111  1.6708
50904SOL    HW257398   6.705   7.037   8.164 -0.5605 -0.0301 -0.4091
50905SOL     OW57399   3.252   7.793   9.875 -0.0561 -0.0293 -0.0251
50905SOL    HW157400   3.324   7.837   9.921 -1.3558  0.7163  1.3995
50905SOL    HW257401   3.217   7.731   9.939 -0.4155 -0.6876 -0.8394
50906SOL     OW57402  10.006   9.020   3.551 -0.2657  0.4744  0.2526
50906SOL    HW157403  10.030   9.010   3.459 -0.8735 -0.7091  0.2051
50906SOL    HW257404  10.005   9.115   3.566 -0.2935  0.6804 -0.9900
50907SOL     OW57405   2.529   7.462   2.320  0.8746  0.5921  0.4979
50907SOL    HW157406   2.442   7.460   2.359  0.4249 -0.0741 -0.4910
50907SOL    HW257407   2.561   7.371   2.327  0.4906  0.2716 -1.2517
50908SOL     OW57408   1.321   6.243   7.977  0.1312 -0.3266  0.2895
50908SOL    HW157409   1.362   6.251   8.063 -1.1759 -1.1771  1.0187
50908SOL    HW257410   1.394   6.227   7.917  1.0326  0.0387  1.2674
50909SOL     OW57411   7.962   9.121   1.626  0.0949  0.0059 -0.2146
50909SOL    HW157412   7.954   9.202   1.577 -0.4834 -0.0987 -0.2928
50909SOL    HW257413   8.044   9.082   1.595  0.1653  0.3572 -0.4721
50910SOL     OW57414   3.319   1.015  10.252  0.7205  0.2048  0.1353
50910SOL    HW157415   3.320   1.013  10.157  0.5222 -0.2516  0.1354
50910SOL    HW257416   3.403   0.977  10.278 -0.0655 -1.6288  0.1345
50911SOL     OW57417  11.365   6.085   5.392  0.1280 -0.4052  0.8046
50911SOL    HW157418  11.285   6.071   5.441 -1.0661  0.1974 -0.8736
50911SOL    HW257419  11.374   6.008   5.336 -0.4830  0.4450 -0.5323
50912SOL     OW57420   3.313   3.065   8.526 -0.5685 -0.0111  0.0089
50912SOL    HW157421   3.347   3.043   8.439  1.4793 -1.3600  1.0855
50912SOL    HW257422   3.241   3.003   8.540  1.5863 -2.5131  0.7614
50913SOL     OW57423  10.689  10.610   8.624  0.4378 -0.3796 -0.4807
50913SOL    HW157424  10.616  10.649   8.672  0.8114 -0.6005  0.2943
50913SOL    HW257425  10.653  10.588   8.538 -0.1953  0.2233 -0.3852
50914SOL     OW57426   6.495   5.906   2.160 -0.4848 -0.4498  0.0360
50914SOL    HW157427   6.465   5.984   2.114 -1.9242 -0.2894  1.1648
50914SOL    HW257428   6.582   5.929   2.192 -0.5719  0.4057 -0.3039
50915SOL     OW57429   8.233   0.882  10.695 -0.3085  0.0031 -0.1571
50915SOL    HW157430   8.224   0.962  10.746  0.7651 -0.1044  0.2216
50915SOL    HW257431   8.276   0.820  10.755 -1.5364 -1.0171 -0.2756
50916SOL     OW57432   1.242   2.220   5.937 -0.3334 -1.3099  0.2511
50916SOL    HW157433   1.324   2.270   5.935 -1.4419  0.5854 -0.5153
50916SOL    HW257434   1.179   2.276   5.892 -1.4834 -3.8078 -1.4444
50917SOL     OW57435   9.513   5.481   1.597  0.4775  0.2334  0.2892
50917SOL    HW157436   9.450   5.411   1.617  0.1431  0.1104 -1.0857
50917SOL    HW257437   9.492   5.550   1.660  1.2179 -1.1061  2.1100
50918SOL     OW57438   5.474   4.647  10.921 -0.0255  0.0406  0.3183
50918SOL    HW157439   5.561   4.685  10.936  0.3892 -1.2330  1.2882
50918SOL    HW257440   5.467   4.643  10.826  0.7356  0.6763  0.2153
50919SOL     OW57441   1.554   7.797   1.493  0.1038 -0.1130 -0.4107
50919SOL    HW157442   1.613   7.739   1.540 -2.0019 -1.8001  0.3250
50919SOL    HW257443   1.477   7.804   1.550 -0.0820  2.7386 -0.8898
50920SOL     OW57444  10.785   4.124   8.786 -0.1467 -0.0360  0.1185
50920SOL    HW157445  10.775   4.211   8.747  1.0764 -0.2470 -0.7223
50920SOL    HW257446  10.706   4.077   8.758  0.7887 -0.2551 -2.3944
50921SOL     OW57447   6.341   8.687   9.971  0.1736 -0.0246 -0.5068
50921SOL    HW157448   6.394   8.609   9.989 -0.6869 -0.7707 -1.1539
50921SOL    HW257449   6.388   8.758  10.015  1.3784 -0.7725 -0.5438
50922SOL     OW57450   8.920   0.135  10.744  0.1251  0.4268 -0.2343
50922SOL    HW157451   8.992   0.186  10.780  1.1851 -0.3327 -1.2160
50922SOL    HW257452   8.901   0.175  10.659 -1.5791  1.4768  0.5711
50923SOL     OW57453   5.959  10.432   7.296 -0.2229  0.2619 -0.1011
50923SOL    HW157454   6.008  10.368   7.244 -0.4459 -1.3311  1.5356
50923SOL    HW257455   5.867  10.416   7.274 -0.4218 -1.3532  1.6814
50924SOL     OW57456   3.095   3.489   3.330 -0.3007 -0.0406 -0.2443
50924SOL    HW157457   3.183   3.450   3.325 -0.0124  0.2862  1.5595
50924SOL    HW257458   3.043   3.423   3.376 -1.1526 -0.4107 -1.6654
50925SOL     OW57459  10.905   2.501   0.825  0.5283  0.3007 -0.0338
50925SOL    HW157460  10.837   2.555   0.786  0.0907 -0.3863 -0.2462
50925SOL    HW257461  10.856   2.434   0.874  0.9805  2.3479  3.5501
50926SOL     OW57462   9.622   4.162   0.346  0.6375 -0.6838  0.3291
50926SOL    HW157463   9.571   4.238   0.316  1.0171 -0.2864  0.6765
50926SOL    HW257464   9.705   4.199   0.375  2.0026 -1.5651 -2.2335
50927SOL     OW57465   3.862   5.017   4.447 -1.1675  0.0106 -0.0839
50927SOL    HW157466   3.900   5.101   4.422 -1.1043  0.7856  2.3590
50927SOL    HW257467   3.937   4.961   4.466 -1.2234 -0.2026 -0.4787
50928SOL     OW57468   7.715  11.403   1.194 -0.2387  0.5715  0.3080
50928SOL    HW157469   7.636  11.350   1.190 -1.3528  2.2021 -0.5245
50928SOL    HW257470   7.731  11.428   1.103  1.0055  0.6338  0.5215
50929SOL     OW57471  11.868   5.343   6.444 -0.4986 -0.3998  0.6418
50929SOL    HW157472  11.808   5.414   6.467 -2.1370 -1.9490  1.4189
50929SOL    HW257473  11.926   5.335   6.520 -0.3395  0.0422  0.5717
50930SOL     OW57474   9.317   3.048   0.533  0.5062 -0.2475 -0.0974
50930SOL    HW157475   9.362   3.117   0.485  2.6963 -0.4306  1.5416
50930SOL    HW257476   9.370   3.036   0.612 -0.1330 -3.3766 -0.0354
50931SOL     OW57477   3.926   0.041  10.854 -0.1749  0.4841 -0.0352
50931SOL    HW157478   3.908   0.111  10.791  1.6353  0.2592 -0.8610
50931SOL    HW257479   3.919  -0.040  10.802 -0.1431  0.2013  0.3990
50932SOL     OW57480   6.547   6.125   5.301 -0.3391 -0.4023  0.0176
50932SOL    HW157481   6.603   6.074   5.243  0.9062  0.7768  0.1263
50932SOL    HW257482   6.483   6.165   5.243 -1.0516 -1.6833 -0.1206
50933SOL     OW57483   9.156   6.135  10.790  0.0728  0.0889 -0.4812
50933SOL    HW157484   9.249   6.112  10.789 -0.3611 -1.8122 -0.5779
50933SOL    HW257485   9.112   6.058  10.825 -1.4622  1.0669 -0.1317
50934SOL     OW57486   6.889   0.242   3.494 -0.4517 -0.3035  0.4017
50934SOL    HW157487   6.828   0.170   3.510  1.7697 -2.4884 -0.2315
50934SOL    HW257488   6.931   0.257   3.579 -0.1229 -0.5596  0.2870
50935SOL     OW57489   1.022   8.325   6.253 -0.4225 -0.0217  0.1490
50935SOL    HW157490   1.095   8.356   6.200 -0.1273 -0.6432  0.1810
50935SOL    HW257491   0.961   8.399   6.257  0.0948  0.4197 -0.0749
50936SOL     OW57492   7.741   9.793   6.429  0.2988  0.0619 -0.5888
50936SOL    HW157493   7.698   9.845   6.361 -0.6700  1.2559  0.8744
50936SOL    HW257494   7.784   9.859   6.485  2.6243 -0.9850 -1.0082
50937SOL     OW57495  10.338   7.759   9.078 -0.2752 -0.1963  0.1280
50937SOL    HW157496  10.281   7.683   9.069 -1.1885  0.3300  1.1257
50937SOL    HW257497  10.344   7.795   8.990 -0.0913 -1.2311 -0.2953
50938SOL     OW57498   3.453   4.709   0.514  0.3707  0.7088 -0.1299
50938SOL    HW157499   3.508   4.648   0.465 -0.0691  0.3238 -0.1491
50938SOL    HW257500   3.458   4.791   0.465 -1.2887 -0.0721 -1.7140
50939SOL     OW57501   1.241   8.153  11.276  0.3023  0.1567 -0.2048
50939SOL    HW157502   1.223   8.227  11.334 -0.1079 -1.4537  1.8164
50939SOL    HW257503   1.334   8.161  11.255  0.2636  1.2248 -0.0211
50940SOL     OW57504   8.137   9.931  11.444 -0.5071 -0.1029 -0.2378
50940SOL    HW157505   8.099   9.860  11.393  2.2170 -1.4292 -0.5998
50940SOL    HW257506   8.226   9.939  11.411  0.7774  0.2996  2.9582
50941SOL     OW57507   3.113   8.166   0.764  0.4379 -0.0506 -0.0403
50941SOL    HW157508   3.027   8.126   0.753  1.3549 -2.8996  1.9518
50941SOL    HW257509   3.109   8.207   0.850  1.0003  0.0769 -0.0743
50942SOL     OW57510  10.760   0.161   1.140  0.4886  0.5426 -0.1276
50942SOL    HW157511  10.751   0.202   1.226 -2.4082 -0.1811 -0.0052
50942SOL    HW257512  10.764   0.067   1.159 -2.6389  0.1835 -0.7976
50943SOL     OW57513   5.730   4.926   7.491  1.0157 -0.3098  0.3271
50943SOL    HW157514   5.731   4.830   7.501 -0.3271 -0.6146 -1.8039
50943SOL    HW257515   5.785   4.942   7.414 -0.2643  0.4107 -0.4707
50944SOL     OW57516   5.774  11.325   9.511 -0.1073  0.0430 -0.1422
50944SOL    HW157517   5.684  11.294   9.503 -0.1906  0.5618 -1.5223
50944SOL    HW257518   5.772  11.388   9.582 -1.1912  1.1759 -1.1258
50945SOL     OW57519   0.753   4.415   2.499 -0.8738  0.4396 -0.2218
50945SOL    HW157520   0.772   4.360   2.576 -0.9120 -3.4050 -2.7040
50945SOL    HW257521   0.838   4.452   2.476  0.0554 -1.7699 -0.6305
50946SOL     OW57522   9.936   8.649   9.914  0.0528 -0.0768  0.3754
50946SOL    HW157523   9.971   8.677   9.830 -1.0234  0.1063 -0.0323
50946SOL    HW257524  10.013   8.634   9.969  0.7718 -0.3075 -0.6732
50947SOL     OW57525   0.104  11.921   8.848  0.1286 -0.2363 -0.0172
50947SOL    HW157526   0.022  11.882   8.818 -0.3577  0.7205  0.0615
50947SOL    HW257527   0.102  11.911   8.943  0.4218 -0.8164 -0.0654
50948SOL     OW57528   7.136  11.900  11.793  0.4601  0.1560 -0.3782
50948SOL    HW157529   7.223  11.897  11.834  0.2157 -1.5391  0.0817
50948SOL    HW257530   7.091  11.824  11.828 -1.6534  1.6345  0.3009
50949SOL     OW57531   1.539   2.338   8.401  0.1472 -0.2696  0.0974
50949SOL    HW157532   1.551   2.433   8.395  1.3184 -0.4414 -0.6155
50949SOL    HW257533   1.512   2.312   8.313  0.9560 -0.7243 -0.0298
50950SOL     OW57534   9.474   1.211   6.389 -0.0428 -0.4822 -0.4280
50950SOL    HW157535   9.494   1.158   6.466  0.6426  1.2014  0.6034
50950SOL    HW257536   9.391   1.176   6.357 -1.0519 -0.3692  1.8602
50951SOL     OW57537  10.738  11.563   4.092  0.0269 -0.5173 -0.2100
50951SOL    HW157538  10.811  11.501   4.100  1.0097  0.5236 -0.8563
50951SOL    HW257539  10.673  11.530   4.154  2.5727  0.6613  3.4409
50952SOL     OW57540   5.060   3.240   1.623  0.1456 -0.1017  0.1230
50952SOL    HW157541   5.096   3.172   1.566  1.7233  0.3001  0.6027
50952SOL    HW257542   5.081   3.322   1.578  2.8107  0.3171  1.9466
50953SOL     OW57543  11.651   7.690  10.302 -0.1847 -0.4079 -0.0136
50953SOL    HW157544  11.735   7.645  10.313  2.0328  3.5038  1.0612
50953SOL    HW257545  11.613   7.691  10.390 -0.9903 -1.3782 -0.3284
50954SOL     OW57546  11.885  10.173   8.865 -0.3704  0.2943  0.0327
50954SOL    HW157547  11.835  10.127   8.798 -0.8155 -0.9609  1.1744
50954SOL    HW257548  11.868  10.266   8.848 -1.8623 -0.0541 -0.5657
50955SOL     OW57549   2.624   7.084   6.088 -0.1886  0.1828  0.9125
50955SOL    HW157550   2.573   7.163   6.104 -0.2797  0.3476 -0.1432
50955SOL    HW257551   2.659   7.095   6.000  1.0232 -0.2949  1.3150
50956SOL     OW57552   5.105   2.533   0.818  0.8978 -0.4877  0.1422
50956SOL    HW157553   5.120   2.504   0.908  0.8138 -0.2913  0.2205
50956SOL    HW257554   5.010   2.527   0.807  0.6300  1.5636  0.7980
50957SOL     OW57555   4.705   7.686   0.529 -0.3000 -0.0253 -0.1074
50957SOL    HW157556   4.674   7.625   0.463  0.2443 -1.3000  0.7788
50957SOL    HW257557   4.753   7.753   0.479 -1.0941 -0.1801 -1.1086
50958SOL     OW57558   3.174  10.197   9.349 -0.1253 -1.0156  0.6776
50958SOL    HW157559   3.176  10.114   9.396 -0.4507 -0.9037  0.8834
50958SOL    HW257560   3.257  10.199   9.301  0.1891 -1.1430  1.2136
50959SOL     OW57561   8.985   5.919  10.839 -0.4458  0.2023  0.7949
50959SOL    HW157562   9.027   5.920  10.926  0.2146 -2.4802  0.6171
50959SOL    HW257563   8.917   5.852  10.847  0.6709 -1.2602 -1.1373
50960SOL     OW57564   3.824   7.497  11.401 -0.9662 -0.3102 -0.3324
50960SOL    HW157565   3.742   7.453  11.424 -0.9971  0.4325  1.0900
50960SOL    HW257566   3.888   7.463  11.463 -0.2328 -0.6858 -1.2663
50961SOL     OW57567  10.789   5.375   7.466  0.2024 -0.3519  0.0236
50961SOL    HW157568  10.739   5.389   7.547  1.0126 -1.5426  0.7549
50961SOL    HW257569  10.747   5.433   7.402 -0.2845  0.8210  1.3570
50962SOL     OW57570   7.317   7.580  11.675 -0.1141  0.1600  0.2889
50962SOL    HW157571   7.302   7.658  11.728 -2.1191 -0.7864  1.2367
50962SOL    HW257572   7.335   7.510  11.738  1.7688 -0.1657 -0.5444
50963SOL     OW57573   0.703   0.470   5.691 -0.3929 -0.3233 -0.1295
50963SOL    HW157574   0.663   0.462   5.604 -1.2963  0.6122  0.1800
50963SOL    HW257575   0.773   0.534   5.680  0.1294 -0.9294 -0.3712
50964SOL     OW57576   4.518   7.693   0.289 -0.2512  0.8597  0.1638
50964SOL    HW157577   4.471   7.637   0.227 -0.3507  0.5372  0.5237
50964SOL    HW257578   4.449   7.738   0.338 -0.2500 -0.6780  1.6681
50965SOL     OW57579  10.505   4.954   9.658 -0.2443 -0.4206  0.4078
50965SOL    HW157580  10.503   4.920   9.568  0.8963 -0.5857  0.4314
50965SOL    HW257581  10.414   4.952   9.686 -0.6866  0.0337 -0.8968
50966SOL     OW57582   3.346  10.919   2.971  0.1238 -0.1602  0.5062
50966SOL    HW157583   3.310  10.981   2.908  0.4585  0.9357  1.3540
50966SOL    HW257584   3.418  10.966   3.013  0.7621 -1.3349  0.7846
50967SOL     OW57585   8.874   7.375   5.236 -0.1384  0.1620  0.2437
50967SOL    HW157586   8.919   7.317   5.175 -0.7374  0.2662 -0.3113
50967SOL    HW257587   8.941   7.436   5.266 -0.2700  1.6005 -2.1090
50968SOL     OW57588  11.467  11.863   2.036  0.4658  0.3559 -0.1358
50968SOL    HW157589  11.438  11.808   1.963 -0.8095  0.6097  0.1457
50968SOL    HW257590  11.537  11.813   2.078  1.1989  0.1981 -1.5053
50969SOL     OW57591   3.127  11.954   5.339  0.0039 -0.3664  0.3871
50969SOL    HW157592   3.173  11.944   5.422  0.7843 -0.3347 -0.0305
50969SOL    HW257593   3.041  11.989   5.362  0.1892 -0.4290  1.1797
50970SOL     OW57594   3.233   8.936   7.359 -0.4476  0.3548  0.4178
50970SOL    HW157595   3.229   8.923   7.265  0.6828  0.5770  0.3144
50970SOL    HW257596   3.294   8.869   7.390  0.6362  1.4231  0.7068
50971SOL     OW57597   4.395   5.328   7.178  0.1425 -0.0300 -0.1084
50971SOL    HW157598   4.350   5.349   7.260  0.9377 -0.4619  0.4493
50971SOL    HW257599   4.332   5.276   7.128  0.9309 -3.0944  1.8455
50972SOL     OW57600   0.133   1.580  11.128  0.3243  0.4134 -0.2910
50972SOL    HW157601   0.147   1.671  11.103 -3.3624  1.0217 -0.6721
50972SOL    HW257602   0.084   1.585  11.211  0.3442 -1.2302 -0.1354
50973SOL     OW57603   9.178   1.146   8.767 -0.1261  0.6772  0.2396
50973SOL    HW157604   9.258   1.199   8.774 -0.1472  0.6094  0.9622
50973SOL    HW257605   9.111   1.198   8.810 -0.8621  1.4751 -1.7191
50974SOL     OW57606   9.597   9.623   4.373 -0.1480  0.4122  0.2975
50974SOL    HW157607   9.558   9.692   4.320 -1.7732 -0.5514  0.1491
50974SOL    HW257608   9.689   9.620   4.347 -0.2989  1.7968 -0.4370
50975SOL     OW57609   9.089  10.115   4.347  0.0730 -0.3990  0.3205
50975SOL    HW157610   9.154  10.144   4.283 -0.5074  1.6701  0.5971
50975SOL    HW257611   9.125  10.144   4.431 -0.3045 -0.9981  0.6978
50976SOL     OW57612   2.769   3.181   1.980 -0.4735 -0.7615 -0.0979
50976SOL    HW157613   2.695   3.232   2.011 -0.3501 -0.0590 -0.9531
50976SOL    HW257614   2.835   3.190   2.049 -0.5531  0.0172 -0.1183
50977SOL     OW57615   7.931   2.503   7.307 -0.0886 -0.0311  0.2376
50977SOL    HW157616   7.933   2.410   7.288 -0.2901 -0.5701  2.5945
50977SOL    HW257617   8.023   2.531   7.305  0.0878 -0.5671  0.7547
50978SOL     OW57618   1.165   1.342   2.356  0.5743 -0.1027 -0.0664
50978SOL    HW157619   1.199   1.431   2.351  1.5345 -0.4300  0.4213
50978SOL    HW257620   1.072   1.351   2.335  0.9714  0.7920 -1.5918
50979SOL     OW57621   5.940   4.724   2.120  0.3168  0.3044 -0.4129
50979SOL    HW157622   5.913   4.633   2.129  1.4664 -0.1579 -1.2766
50979SOL    HW257623   5.869   4.775   2.159 -1.5970 -0.8243 -2.2097
50980SOL     OW57624   1.663   6.246   8.254 -0.0040 -0.0911 -0.1058
50980SOL    HW157625   1.663   6.325   8.200  1.6529 -1.1096 -1.7026
50980SOL    HW257626   1.688   6.176   8.194 -0.5812 -1.7039  1.4595
50981SOL     OW57627   9.032   9.355   2.953 -0.1826  0.3732 -0.2386
50981SOL    HW157628   9.052   9.382   2.863 -1.7385 -0.4246 -0.8687
50981SOL    HW257629   9.113   9.314   2.984  0.6181  1.3333 -0.9956
50982SOL     OW57630   6.452   9.007   1.411 -0.2093 -0.4426  0.3101
50982SOL    HW157631   6.506   8.987   1.334 -0.3069  0.9088 -0.1348
50982SOL    HW257632   6.434   8.921   1.451 -0.0101 -1.1520 -1.0658
50983SOL     OW57633   2.376   3.202   1.582  0.0389 -0.3760  0.2292
50983SOL    HW157634   2.285   3.225   1.601  0.3849  1.2422  0.1319
50983SOL    HW257635   2.425   3.281   1.605  1.3897 -1.1179 -0.0111
50984SOL     OW57636  11.820   6.037   9.158 -0.0704  0.5491 -0.1454
50984SOL    HW157637  11.775   6.048   9.074 -0.1296  0.3846 -0.1347
50984SOL    HW257638  11.749   6.025   9.222  0.0169 -0.5531 -0.2495
50985SOL     OW57639   3.442  11.718   5.485  0.3926  0.1467 -0.3959
50985SOL    HW157640   3.412  11.683   5.569  0.8825  1.1187  0.2111
50985SOL    HW257641   3.365  11.716   5.429 -0.4411  1.2299  0.6685
50986SOL     OW57642   6.458   4.805   9.755  0.2926 -0.3952  0.7767
50986SOL    HW157643   6.384   4.747   9.773 -0.8692  0.6936 -0.2692
50986SOL    HW257644   6.489   4.778   9.669  0.3960 -0.1302  0.7298
50987SOL     OW57645   2.300   6.803   7.392 -0.2063  0.0840  0.5475
50987SOL    HW157646   2.213   6.842   7.379 -0.1272 -0.1641 -0.8618
50987SOL    HW257647   2.285   6.709   7.391  0.3159 -0.0735 -2.2309
50988SOL     OW57648   1.300   4.663   0.770 -0.9116 -0.3681 -0.0152
50988SOL    HW157649   1.278   4.740   0.719  0.5185 -0.7428 -1.2453
50988SOL    HW257650   1.319   4.595   0.705  2.1654 -0.5336  0.9145
50989SOL     OW57651   6.496  11.447   6.958 -0.0381 -0.3061  0.3858
50989SOL    HW157652   6.496  11.410   6.869  0.7255  0.5152  0.0235
50989SOL    HW257653   6.558  11.393   7.006 -1.0985 -1.3072  0.6855
50990SOL     OW57654   6.008   6.753   7.735  0.0345  0.3982 -0.0171
50990SOL    HW157655   6.068   6.678   7.743 -1.2802 -0.6322  0.5778
50990SOL    HW257656   5.992   6.760   7.641 -0.2235 -0.4249 -0.0498
50991SOL     OW57657   8.533   6.071   1.935 -0.2291 -0.4026 -0.2879
50991SOL    HW157658   8.446   6.104   1.957 -0.9442 -1.1235 -1.9105
50991SOL    HW257659   8.518   6.003   1.869  1.4423 -1.7010  0.5659
50992SOL     OW57660   6.792   5.849  10.476 -0.6147 -0.4298 -0.1524
50992SOL    HW157661   6.843   5.779  10.435 -1.8894 -1.0615 -0.7013
50992SOL    HW257662   6.785   5.824  10.568  2.1387  0.9208  0.5483
50993SOL     OW57663   7.672   8.720   9.343  0.1781  0.8465 -0.0360
50993SOL    HW157664   7.696   8.766   9.423 -0.2095  0.7484  0.1384
50993SOL    HW257665   7.576   8.724   9.340  0.1285 -0.0108  0.0222
50994SOL     OW57666   2.139   3.654  11.493  0.1224  0.0575  0.4390
50994SOL    HW157667   2.130   3.637  11.587  0.1052 -0.0246  0.4230
50994SOL    HW257668   2.120   3.747  11.484  0.6293  0.1787  0.5843
50995SOL     OW57669   6.803   1.580   7.330 -0.8816  0.1307  0.5168
50995SOL    HW157670   6.762   1.494   7.337 -1.4261  0.0670 -2.1690
50995SOL    HW257671   6.738   1.640   7.365 -1.9363 -0.2887 -0.6361
50996SOL     OW57672  10.185  10.568   2.238  0.7790 -0.0386 -0.4058
50996SOL    HW157673  10.113  10.505   2.248  1.4696 -0.7851 -0.0090
50996SOL    HW257674  10.160  10.641   2.296 -0.7180  0.7389 -1.9351
50997SOL     OW57675  11.186   0.088   6.100  0.7416 -0.3996 -0.6689
50997SOL    HW157676  11.224   0.164   6.144 -0.3502 -0.5107  0.5423
50997SOL    HW257677  11.095   0.113   6.082  0.2842 -1.4757 -0.0074
50998SOL     OW57678   6.912   0.933  11.195  0.2371  0.1523  0.3184
50998SOL    HW157679   6.947   1.011  11.152 -1.4081  0.8837  0.2022
50998SOL    HW257680   6.973   0.916  11.267  0.8439  1.3135  0.1095
50999SOL     OW57681  10.821   6.018  11.025 -0.1769 -0.0127  0.1498
50999SOL    HW157682  10.814   5.998  11.118  2.2581  0.0303  0.4062
50999SOL    HW257683  10.750   6.080  11.008 -0.7978 -0.1978  1.9097
51000SOL     OW57684   1.920   5.582   4.831 -0.0621 -0.3178  0.1213
51000SOL    HW157685   2.001   5.565   4.879  0.3220 -0.6654 -0.6334
51000SOL    HW257686   1.948   5.605   4.743 -0.8094 -1.8872 -0.5813
51001SOL     OW57687   1.924   6.063   4.974  0.5425 -0.3933  0.0422
51001SOL    HW157688   2.004   6.010   4.967  0.6730 -0.1232 -0.5575
51001SOL    HW257689   1.884   6.057   4.887  0.4612  0.3365  0.0228
51002SOL     OW57690   7.337   2.211   6.323  0.0667 -0.0212  0.1662
51002SOL    HW157691   7.357   2.283   6.383 -2.7650  1.0340  0.0203
51002SOL    HW257692   7.260   2.169   6.361  0.2887 -1.5537 -0.9680
51003SOL     OW57693   9.332   2.461   9.335  0.2266 -0.1424 -0.3709
51003SOL    HW157694   9.403   2.525   9.333  0.9611 -0.9330  0.1513
51003SOL    HW257695   9.346   2.411   9.415 -0.0969 -1.2426 -0.9787
51004SOL     OW57696   1.876   8.484   0.231  0.3862 -0.4139 -0.0399
51004SOL    HW157697   1.846   8.416   0.172 -0.9615  0.2641 -0.1794
51004SOL    HW257698   1.796   8.524   0.265  1.0041  2.5509 -1.6546
51005SOL     OW57699   8.137   8.579   0.368  0.5932 -0.1130 -0.2609
51005SOL    HW157700   8.222   8.620   0.352 -0.5064  1.4727 -2.5670
51005SOL    HW257701   8.133   8.570   0.464  2.0963  2.6285  0.1855
51006SOL     OW57702   6.085   2.116  10.581 -0.1467  0.6915 -0.0110
51006SOL    HW157703   6.052   2.026  10.578  1.7080 -0.0540  0.3930
51006SOL    HW257704   6.087   2.143  10.489 -1.2366  0.5434 -0.0932
51007SOL     OW57705   8.438   6.944   1.611 -0.2788 -0.5085 -0.4935
51007SOL    HW157706   8.468   7.029   1.644 -0.9710 -0.2101 -0.6113
51007SOL    HW257707   8.433   6.955   1.516 -2.1428 -0.0611 -0.3880
51008SOL     OW57708   5.640  10.951   2.211 -0.4070 -0.4932 -0.1880
51008SOL    HW157709   5.704  11.018   2.237  0.6379 -1.2716 -0.7149
51008SOL    HW257710   5.581  10.945   2.286  0.0969  0.2881  0.2844
51009SOL     OW57711   8.015   5.753  11.561  0.2159  0.0781  0.0181
51009SOL    HW157712   8.038   5.675  11.510  1.0226  0.6009 -0.4387
51009SOL    HW257713   8.070   5.822  11.525  0.4954  0.5669  1.3260
51010SOL     OW57714   1.099   4.186   2.024  0.3030  0.1330 -0.3462
51010SOL    HW157715   1.102   4.248   1.951  0.3439  0.1100 -0.3640
51010SOL    HW257716   1.078   4.240   2.100  1.4718  0.3587 -0.1532
51011SOL     OW57717   0.280   8.872   7.480 -0.1072 -0.1143 -0.1612
51011SOL    HW157718   0.368   8.861   7.516  0.3095  0.7317 -0.8761
51011SOL    HW257719   0.287   8.839   7.390 -0.6201 -0.3933 -0.0981
51012SOL     OW57720  10.812  10.989   5.209  0.1083 -0.0310  0.0777
51012SOL    HW157721  10.782  11.075   5.236  1.2831  0.8435 -1.2399
51012SOL    HW257722  10.903  10.984   5.239  1.1038  0.5465 -2.5108
51013SOL     OW57723   7.336   6.940  10.554  0.5740 -0.3997  0.3988
51013SOL    HW157724   7.394   6.959  10.628 -0.7929 -0.0085  1.3948
51013SOL    HW257725   7.395   6.937  10.478  2.0468 -1.0956  1.5142
51014SOL     OW57726   3.436   9.354   3.057 -0.1470  0.6566 -0.2784
51014SOL    HW157727   3.376   9.414   3.102  1.7022  2.0223  0.4993
51014SOL    HW257728   3.431   9.380   2.965 -0.0589  1.4016 -0.0815
51015SOL     OW57729   6.499   3.039   9.053  0.1775 -0.3063 -0.3736
51015SOL    HW157730   6.530   3.072   9.137  1.7284 -3.1478  0.2846
51015SOL    HW257731   6.483   2.945   9.068 -0.0876 -0.7830 -3.0906
51016SOL     OW57732   4.737   4.388   8.729  0.3296  0.1546  0.4718
51016SOL    HW157733   4.683   4.463   8.704 -1.7697 -1.5711 -0.4775
51016SOL    HW257734   4.801   4.380   8.659 -1.5289 -0.8576 -1.2062
51017SOL     OW57735   9.191  11.467   4.807 -0.0627  0.3891 -0.6932
51017SOL    HW157736   9.176  11.395   4.868  0.1975  0.2412 -0.8069
51017SOL    HW257737   9.285  11.469   4.794  0.1072  1.7109  0.4833
51018SOL     OW57738   5.217   4.130   7.585  0.3164  0.6025 -0.8714
51018SOL    HW157739   5.127   4.161   7.596  0.1195 -0.2837  0.3200
51018SOL    HW257740   5.241   4.157   7.496 -2.1178 -1.4946 -2.3383
51019SOL     OW57741   3.081   5.827  11.268 -0.0939  0.0401  0.0494
51019SOL    HW157742   2.988   5.814  11.248  0.2922 -1.2672 -1.0688
51019SOL    HW257743   3.104   5.908  11.223 -0.4937 -0.0938 -0.4086
51020SOL     OW57744   3.911   2.623   4.065  0.2293  0.5342 -0.2072
51020SOL    HW157745   3.837   2.674   4.033  0.9545  0.9379 -1.2991
51020SOL    HW257746   3.880   2.583   4.146 -1.2011  0.6216 -0.6946
51021SOL     OW57747   4.078   3.817   3.280  0.2482  0.5587 -0.8715
51021SOL    HW157748   4.169   3.786   3.282 -0.1623 -0.7618 -1.8825
51021SOL    HW257749   4.037   3.767   3.211 -1.3418  0.9614 -0.2524
51022SOL     OW57750   6.110   3.986   5.339  0.3864  0.2215 -0.0080
51022SOL    HW157751   6.176   3.940   5.390  0.4367  1.5361  1.1924
51022SOL    HW257752   6.036   3.926   5.334  1.5804 -1.2148 -1.2473
51023SOL     OW57753   8.416   4.821   2.650 -0.3234 -0.4950  0.0879
51023SOL    HW157754   8.412   4.915   2.670  0.6495 -0.1624 -1.1675
51023SOL    HW257755   8.339   4.785   2.694  0.2919  0.5620  2.2043
51024SOL     OW57756   2.494   2.563   5.357  0.6428  0.1330  0.0685
51024SOL    HW157757   2.520   2.471   5.367  0.5590  0.2121  1.2123
51024SOL    HW257758   2.491   2.596   5.447  0.2852  1.1521 -0.3090
51025SOL     OW57759   9.919   7.713   3.821  0.6958 -0.1970 -0.3353
51025SOL    HW157760   9.965   7.656   3.759  2.2360  0.0986  0.4912
51025SOL    HW257761   9.930   7.801   3.785 -0.9762 -0.2840 -1.1734
51026SOL     OW57762   1.725  10.073   7.925  0.3253  0.1461 -0.2834
51026SOL    HW157763   1.812  10.039   7.905 -0.1631 -1.1070 -0.3578
51026SOL    HW257764   1.721  10.157   7.880  1.1232 -0.2610 -1.1478
51027SOL     OW57765   3.855  11.333   5.184 -0.4262  0.4159  0.3956
51027SOL    HW157766   3.770  11.376   5.195 -0.1571  0.8532  0.7623
51027SOL    HW257767   3.887  11.366   5.099 -1.9123 -1.9738 -1.2167
51028SOL     OW57768  10.905  11.050   3.850  0.1727 -0.3474  0.2367
51028SOL    HW157769  10.869  11.132   3.882  1.3839 -0.0753  0.9632
51028SOL    HW257770  10.829  10.993   3.839 -0.7562  1.0389 -0.8602
51029SOL     OW57771   4.051   3.199   7.157  0.1528  0.7867  0.4535
51029SOL    HW157772   3.984   3.263   7.133  1.8469  2.1508 -0.8031
51029SOL    HW257773   4.092   3.174   7.074 -0.9371 -2.6124  0.7508
51030SOL     OW57774   7.281  10.169   4.125 -0.0046  0.5121 -0.3889
51030SOL    HW157775   7.235  10.211   4.198  1.0767  0.7856  0.1546
51030SOL    HW257776   7.220  10.102   4.094 -0.4693  0.3655  0.7850
51031SOL     OW57777   7.155   0.596  11.420  0.6634 -0.0571 -0.1421
51031SOL    HW157778   7.222   0.643  11.469 -1.9663  1.3094  2.5015
51031SOL    HW257779   7.172   0.504  11.439  0.4241  0.3714  2.6356
51032SOL     OW57780   3.275  11.175   2.837  0.4424  0.1978  0.1702
51032SOL    HW157781   3.343  11.233   2.803 -0.2225  0.6799 -0.3808
51032SOL    HW257782   3.226  11.230   2.899  1.5810 -0.6426  1.8971
51033SOL     OW57783   8.644   4.203   0.682  0.4751 -0.2105  0.2212
51033SOL    HW157784   8.552   4.182   0.671  0.4450  0.0274  0.0078
51033SOL    HW257785   8.674   4.229   0.595  0.7042 -0.1432  0.3180
51034SOL     OW57786   5.730   8.361  11.295 -0.0053  0.0551 -0.0300
51034SOL    HW157787   5.721   8.439  11.350 -0.4018 -0.2539  0.3449
51034SOL    HW257788   5.726   8.288  11.357 -0.7433 -0.3041 -0.5068
51035SOL     OW57789   0.238  10.959   7.312  0.5516 -0.2795 -0.1178
51035SOL    HW157790   0.263  10.990   7.399  0.0730  1.0603 -0.4253
51035SOL    HW257791   0.167  10.896   7.328  0.1468  0.3023  0.4454
51036SOL     OW57792   1.689   8.140  11.829 -0.5196 -0.2416 -0.0819
51036SOL    HW157793   1.603   8.121  11.866  0.0263 -0.5936  1.0565
51036SOL    HW257794   1.743   8.064  11.851 -0.3319 -0.8119 -2.2588
51037SOL     OW57795  11.444   3.519   1.926 -0.3386  0.0477  0.4519
51037SOL    HW157796  11.387   3.483   1.858  0.4505 -0.7001  0.1742
51037SOL    HW257797  11.391   3.587   1.967 -0.4826  1.2476 -1.5712
51038SOL     OW57798   9.860   9.115   1.600 -0.2642 -0.0436 -0.0214
51038SOL    HW157799   9.946   9.090   1.566 -1.0087 -1.5126 -0.8808
51038SOL    HW257800   9.828   9.181   1.539  0.1873  0.4297  0.2418
51039SOL     OW57801  10.114   2.195   2.496  0.1402  0.2276  0.1100
51039SOL    HW157802  10.036   2.181   2.551  0.9712  0.5834  1.4152
51039SOL    HW257803  10.083   2.177   2.407 -1.0641 -1.1360  0.7450
51040SOL     OW57804   6.953   3.279   4.752  0.1431 -0.7325 -0.4856
51040SOL    HW157805   6.918   3.357   4.709  0.4857 -1.6457 -2.5432
51040SOL    HW257806   6.992   3.228   4.681  1.5016 -1.9521  1.0504
51041SOL     OW57807   1.254  11.661   4.237  0.0955  0.1217  0.2972
51041SOL    HW157808   1.333  11.710   4.259  1.4094 -1.0728 -1.4755
51041SOL    HW257809   1.250  11.593   4.304  1.1297 -0.3535 -0.0881
51042SOL     OW57810   6.528  10.152  10.081  0.0323 -0.5390  0.5922
51042SOL    HW157811   6.567  10.211  10.016 -0.6414 -1.1437 -0.3863
51042SOL    HW257812   6.564  10.066  10.060  2.8192 -0.2235  3.4396
51043SOL     OW57813   8.330   7.796   8.529 -0.0520 -0.0141 -0.4245
51043SOL    HW157814   8.328   7.746   8.610 -0.8994 -0.7145 -0.8713
51043SOL    HW257815   8.359   7.884   8.556 -1.1702  0.0089  0.7602
51044SOL     OW57816   8.771  10.223   6.080 -0.1988  0.6258 -0.1678
51044SOL    HW157817   8.849  10.261   6.122 -0.8171  0.0366  1.6001
51044SOL    HW257818   8.793  10.131   6.067 -1.5456 -0.3565  3.1773
51045SOL     OW57819  11.358   7.707  11.465  0.0290 -0.1717 -0.3993
51045SOL    HW157820  11.369   7.626  11.414  1.3110 -0.2098 -0.1150
51045SOL    HW257821  11.321   7.678  11.549 -1.2197 -0.2209 -0.9503
51046SOL     OW57822   1.902   0.181   3.262 -0.6067  0.0999  0.3600
51046SOL    HW157823   1.812   0.200   3.287 -0.4712  2.0236 -0.4898
51046SOL    HW257824   1.955   0.225   3.328 -0.2718 -0.8312  0.7241
51047SOL     OW57825   2.617  11.030   5.025  0.0355 -0.3137 -0.2134
51047SOL    HW157826   2.632  11.109   4.972 -0.5480 -0.0011  0.0789
51047SOL    HW257827   2.532  11.045   5.066 -0.4891 -1.4828 -0.8448
51048SOL     OW57828   9.147   5.472   2.462  0.2774 -0.3455 -0.2984
51048SOL    HW157829   9.084   5.417   2.417  0.5087 -0.6105 -0.2965
51048SOL    HW257830   9.172   5.538   2.397 -0.9218  0.5105  0.0778
51049SOL     OW57831   2.856   8.649  10.982  0.2137  0.8997 -0.1443
51049SOL    HW157832   2.950   8.633  10.984 -0.0303 -0.8542 -0.8370
51049SOL    HW257833   2.824   8.597  10.909 -1.3815  0.9595  0.4659
51050SOL     OW57834   5.422   1.965   1.796 -0.0521  0.4019 -0.1877
51050SOL    HW157835   5.399   1.978   1.888 -0.3316  2.2981 -0.4802
51050SOL    HW257836   5.367   1.891   1.768  0.6129 -0.7278  1.3274
51051SOL     OW57837  11.636   0.877   4.618 -0.0885  0.2951 -0.0420
51051SOL    HW157838  11.704   0.848   4.558  0.4816 -2.0064  1.5504
51051SOL    HW257839  11.584   0.797   4.635 -2.1747  1.5942  0.0812
51052SOL     OW57840  11.906   8.210  10.595 -0.0721 -0.0619  0.2597
51052SOL    HW157841  11.908   8.220  10.500 -0.8504  0.4798  0.2914
51052SOL    HW257842  11.997   8.218  10.621 -0.0602  2.1943 -0.2284
51053SOL     OW57843   3.607   8.429  10.909  0.1792 -0.0504  0.2760
51053SOL    HW157844   3.533   8.419  10.849 -0.0243  2.1423  0.0707
51053SOL    HW257845   3.570   8.412  10.996 -1.0097  2.4203  0.3401
51054SOL     OW57846  11.607   7.290   9.911  0.2664 -0.3920 -0.1193
51054SOL    HW157847  11.592   7.364   9.853 -0.9246 -1.4317 -1.1821
51054SOL    HW257848  11.561   7.313   9.992 -1.5798 -0.6809 -1.0476
51055SOL     OW57849   5.706   2.226   3.565  0.1057 -0.2415 -0.1554
51055SOL    HW157850   5.702   2.310   3.612 -0.6420 -0.9945  1.2152
51055SOL    HW257851   5.614   2.199   3.558  0.3594 -1.1152 -0.2282
51056SOL     OW57852   0.572   8.335   7.184 -0.5622 -0.1642 -0.4435
51056SOL    HW157853   0.642   8.338   7.120 -1.3646 -0.5941 -1.3600
51056SOL    HW257854   0.567   8.243   7.210 -1.7525 -0.4215 -1.4984
51057SOL     OW57855  10.319   4.283   1.554 -0.4418 -0.5301  0.5042
51057SOL    HW157856  10.254   4.316   1.616  0.2296  0.0515  0.9140
51057SOL    HW257857  10.372   4.221   1.605 -1.4917 -2.0599 -0.1725
51058SOL     OW57858  11.591   8.379   5.172 -0.7446  0.7431  0.0276
51058SOL    HW157859  11.584   8.457   5.116  0.4566  1.6596  1.0962
51058SOL    HW257860  11.601   8.414   5.260  1.4679 -0.5475  0.3615
51059SOL     OW57861   2.178   3.855   2.255  0.2614 -0.1304  0.3570
51059SOL    HW157862   2.101   3.904   2.285 -0.6675 -0.9995 -0.5367
51059SOL    HW257863   2.191   3.788   2.322 -1.4183 -1.6592 -0.7487
51060SOL     OW57864   4.613   2.945   6.190 -0.2269  0.7760  0.0094
51060SOL    HW157865   4.650   2.907   6.269  0.1303  1.2879  0.0917
51060SOL    HW257866   4.655   3.031   6.182 -0.9109  1.0952 -0.2517
51061SOL     OW57867   9.105   8.130   8.304  0.3030  0.3555  0.4910
51061SOL    HW157868   9.071   8.165   8.386  0.3543  0.7569  0.3443
51061SOL    HW257869   9.122   8.037   8.322  1.3466  0.6810  1.2663
51062SOL     OW57870   9.431   1.715  11.311 -0.1824  0.1477 -0.1203
51062SOL    HW157871   9.346   1.674  11.331 -1.1272  0.2740 -3.3338
51062SOL    HW257872   9.411   1.809  11.303  0.4766  0.3109  0.0867
51063SOL     OW57873  10.953   3.832   8.643 -0.0496  0.2365  0.0064
51063SOL    HW157874  10.954   3.855   8.735  0.0314  1.1562 -0.2156
51063SOL    HW257875  10.860   3.820   8.621  0.0198 -2.9697  0.8876
51064SOL     OW57876   0.393   2.658  10.795  0.5580 -0.8532 -0.5693
51064SOL    HW157877   0.452   2.706  10.855 -2.3737  0.1318  1.7632
51064SOL    HW257878   0.361   2.585  10.847 -1.6507 -0.2990 -1.0575
51065SOL     OW57879   8.993   0.318  11.457 -0.0541 -0.0568 -0.5997
51065SOL    HW157880   8.956   0.234  11.484  0.6154  0.0024  0.6047
51065SOL    HW257881   9.006   0.310  11.363 -1.6050 -0.6528 -0.7825
51066SOL     OW57882   6.863   8.802   2.264 -0.2730  0.0126 -0.4411
51066SOL    HW157883   6.798   8.847   2.210 -0.0125  0.2148 -0.5884
51066SOL    HW257884   6.819   8.721   2.292 -0.8895  0.5432  0.1627
51067SOL     OW57885  10.814   2.099  11.265 -0.5067  0.3440  0.1826
51067SOL    HW157886  10.750   2.052  11.319 -0.1609 -0.5732 -0.1818
51067SOL    HW257887  10.893   2.045  11.270 -0.9632 -0.8118 -2.6753
51068SOL     OW57888   0.895   5.343   3.522  0.1931 -0.0753 -0.9654
51068SOL    HW157889   0.804   5.318   3.505  0.5085 -0.4680 -2.2006
51068SOL    HW257890   0.935   5.264   3.558  0.0287  0.1279 -0.3273
51069SOL     OW57891   1.260   8.498   8.141  0.2920  0.2639  0.4055
51069SOL    HW157892   1.315   8.426   8.112  1.0222  1.0329 -0.1901
51069SOL    HW257893   1.321   8.571   8.154 -0.4360  0.8007  0.8954
51070SOL     OW57894   1.955  11.796   3.404  0.6573  0.1436 -0.3606
51070SOL    HW157895   1.975  11.886   3.428 -0.2226  0.2631 -0.0513
51070SOL    HW257896   1.919  11.802   3.316  0.3239  0.1312 -0.2269
51071SOL     OW57897  11.812   6.054   1.894  0.1642  0.3768 -0.0111
51071SOL    HW157898  11.888   6.022   1.942 -0.7947 -0.3097  1.0858
51071SOL    HW257899  11.752   5.980   1.892  0.3384  0.2163 -2.7193
51072SOL     OW57900   0.294   7.130   2.287  0.7290 -0.0027 -0.1668
51072SOL    HW157901   0.346   7.148   2.208 -1.8593  0.5060 -1.9005
51072SOL    HW257902   0.314   7.038   2.307 -1.2959 -1.4774 -3.8520
51073SOL     OW57903   0.713   2.397   1.283 -0.0677  0.1149  0.6250
51073SOL    HW157904   0.773   2.330   1.318 -0.1289  0.4280  1.3570
51073SOL    HW257905   0.714   2.466   1.349  1.8426  1.9640 -1.1752
51074SOL     OW57906   9.557   7.112   9.000 -0.2155  0.1915 -0.2184
51074SOL    HW157907   9.513   7.043   8.950 -1.1537  1.6978 -1.5857
51074SOL    HW257908   9.642   7.123   8.958  0.8851 -1.5872  1.3942
51075SOL     OW57909   4.425   3.824   7.057  0.0376 -0.5807  0.3994
51075SOL    HW157910   4.417   3.739   7.100 -3.2109 -1.1495 -1.0089
51075SOL    HW257911   4.424   3.804   6.964 -1.5397  0.9867  0.0192
51076SOL     OW57912   1.713   7.342   9.524 -0.3102  0.2478  0.2114
51076SOL    HW157913   1.764   7.419   9.550  0.6778 -0.5387  0.6405
51076SOL    HW257914   1.698   7.295   9.606  2.3043 -1.9369 -0.4266
51077SOL     OW57915   3.919   1.256   2.981 -0.1328 -0.2725 -0.0997
51077SOL    HW157916   3.929   1.161   2.974  1.2556 -0.1795  0.4141
51077SOL    HW257917   3.867   1.280   2.904  2.2461 -1.0763 -2.1011
51078SOL     OW57918  11.600   6.002   6.413  0.1312 -0.1916  0.1477
51078SOL    HW157919  11.652   6.076   6.381 -2.0417  1.8083  0.9471
51078SOL    HW257920  11.584   6.023   6.505 -3.1079  0.0271 -0.3361
51079SOL     OW57921   8.608  10.982   1.360  0.0856  0.1111 -0.0298
51079SOL    HW157922   8.526  10.999   1.406 -0.8345  0.2587 -1.6528
51079SOL    HW257923   8.648  10.910   1.409 -0.0117  1.3254  1.9692
51080SOL     OW57924   2.382   4.115   0.781 -0.0666 -0.1408  0.3770
51080SOL    HW157925   2.357   4.204   0.755  1.4122  0.1899 -0.0267
51080SOL    HW257926   2.413   4.074   0.700  1.1764 -0.3224  0.9206
51081SOL     OW57927  11.180   1.654  11.396  0.1663  0.1990 -0.3323
51081SOL    HW157928  11.236   1.726  11.368  0.1287 -0.2503 -1.6500
51081SOL    HW257929  11.240   1.582  11.414  0.1754  0.4307  0.5821
51082SOL     OW57930   5.982   5.072   5.888 -0.2683  0.0779  0.0768
51082SOL    HW157931   6.071   5.055   5.920  0.2331  1.3748 -0.5591
51082SOL    HW257932   5.927   5.066   5.966  0.2960 -1.1848  0.4006
51083SOL     OW57933   1.547   6.447  11.811 -0.8973 -0.1724 -0.3810
51083SOL    HW157934   1.534   6.379  11.744 -1.3732  1.3178 -1.8492
51083SOL    HW257935   1.640   6.468  11.806 -0.6606 -0.9619  0.3645
51084SOL     OW57936   6.215   9.178   2.774 -0.4121  0.5948 -0.1283
51084SOL    HW157937   6.251   9.257   2.734 -0.8860  1.2695  0.7477
51084SOL    HW257938   6.167   9.135   2.703 -1.1278  1.6976 -0.3308
51085SOL     OW57939  11.829   5.366   5.702 -0.4730  0.2359 -0.3219
51085SOL    HW157940  11.923   5.361   5.719 -0.2688  0.4508 -1.3190
51085SOL    HW257941  11.821   5.422   5.624 -1.6236  2.6980  1.4514
51086SOL     OW57942   1.942   0.779   7.446  0.0287  0.0829 -0.0684
51086SOL    HW157943   1.895   0.723   7.385 -2.4191 -0.7941  2.4021
51086SOL    HW257944   1.873   0.819   7.499  1.9742  1.2689  1.7179
51087SOL     OW57945   9.965   1.861   0.212 -0.2348  0.0029 -0.4817
51087SOL    HW157946   9.936   1.842   0.123  0.1056  0.2336 -0.6421
51087SOL    HW257947  10.049   1.905   0.201  0.2266 -0.7357 -0.0179
51088SOL     OW57948   1.678   3.881   7.442 -0.1867  0.2296  0.5963
51088SOL    HW157949   1.633   3.944   7.386  0.0485 -1.1609 -1.2083
51088SOL    HW257950   1.770   3.885   7.413  0.0218 -0.2014  1.1828
51089SOL     OW57951  10.599   9.455   4.374  0.2127 -0.0616 -0.0365
51089SOL    HW157952  10.527   9.510   4.405  1.0393  0.6313  0.7429
51089SOL    HW257953  10.583   9.444   4.281 -1.6479 -1.1079  0.3660
51090SOL     OW57954   8.386   9.855   7.847  0.3204 -0.8609  0.4005
51090SOL    HW157955   8.313   9.816   7.798 -1.0483  0.7667  1.0334
51090SOL    HW257956   8.398   9.797   7.923 -0.1524 -1.2638  0.1749
51091SOL     OW57957   4.600   9.364   7.436 -0.6037  0.0961 -0.0972
51091SOL    HW157958   4.567   9.425   7.501  0.1064 -0.6335  0.9734
51091SOL    HW257959   4.538   9.291   7.437 -0.6702  0.1460 -0.3502
51092SOL     OW57960   5.279   9.841  11.286  0.0638 -0.5485  0.6041
51092SOL    HW157961   5.242   9.766  11.238 -2.5563 -0.0145  1.5853
51092SOL    HW257962   5.219   9.913  11.266  1.5972  0.8830  0.9824
51093SOL     OW57963   9.530   5.085   1.642 -0.3338  0.0080 -0.1530
51093SOL    HW157964   9.501   4.998   1.669 -0.3658  0.4764  1.4827
51093SOL    HW257965   9.461   5.144   1.674  0.4130  0.7600  0.1152
51094SOL     OW57966   5.396   0.052  10.266  0.0264  0.0077 -0.3913
51094SOL    HW157967   5.471   0.099  10.231 -0.6226 -0.6651 -2.9577
51094SOL    HW257968   5.423   0.022  10.352  2.0700  1.1754 -0.5757
51095SOL     OW57969   1.155   3.883   8.873  0.3149  1.0253 -0.0470
51095SOL    HW157970   1.176   3.973   8.851  0.1415  1.3492  1.0357
51095SOL    HW257971   1.061   3.884   8.892  0.1206  0.4203 -0.9402
51096SOL     OW57972   0.669   7.508   2.628  0.5408  0.3207  0.4636
51096SOL    HW157973   0.640   7.479   2.715  1.0566  0.8013  0.8058
51096SOL    HW257974   0.612   7.462   2.567  0.0731  0.0891  1.0652
51097SOL     OW57975   1.829   1.743   2.135  0.0475 -0.3995  0.1799
51097SOL    HW157976   1.769   1.815   2.115  1.6232  0.6157 -1.1390
51097SOL    HW257977   1.897   1.749   2.067  1.9366 -1.1489  1.9109
51098SOL     OW57978   0.382   5.369   5.961 -0.3481 -0.6533 -0.0663
51098SOL    HW157979   0.440   5.299   5.989 -0.8962 -0.7751  0.8216
51098SOL    HW257980   0.410   5.391   5.872  1.3460 -0.3835  0.5036
51099SOL     OW57981   7.461   1.352   7.922  0.3772  0.1364  0.3013
51099SOL    HW157982   7.426   1.425   7.972 -0.7576  1.1909 -1.8860
51099SOL    HW257983   7.405   1.347   7.844 -0.0899 -3.5759  0.6726
51100SOL     OW57984   5.430   0.509  11.197  0.0851 -0.3421 -0.2427
51100SOL    HW157985   5.348   0.516  11.245  0.4676 -2.7957  0.9163
51100SOL    HW257986   5.439   0.594  11.154 -1.5824  1.0615  1.9138
51101SOL     OW57987   3.577   2.739  10.114  0.3698  0.3006  0.2071
51101SOL    HW157988   3.495   2.757  10.160 -1.3965 -0.6181 -2.3852
51101SOL    HW257989   3.575   2.797  10.038  0.2630 -2.2130 -1.8554
51102SOL     OW57990  10.484   4.513  10.522  0.7335 -0.0256  0.4399
51102SOL    HW157991  10.497   4.603  10.492  2.9502 -0.1959  0.6741
51102SOL    HW257992  10.461   4.522  10.614  1.2297  0.3078  0.5379
51103SOL     OW57993   7.670   5.830   3.541 -0.6815  0.1446 -0.3935
51103SOL    HW157994   7.646   5.760   3.602 -1.3745  0.3603 -0.4172
51103SOL    HW257995   7.604   5.826   3.472  0.5265 -0.5923 -1.5533
51104SOL     OW57996   9.064   8.634   6.572  0.0359  0.4640 -0.2671
51104SOL    HW157997   9.155   8.624   6.546  0.4476  0.3833  1.1276
51104SOL    HW257998   9.031   8.706   6.519  0.8368  0.3404 -0.9459
51105SOL     OW57999   3.275   3.909   5.092 -0.4387 -0.0017  0.1227
51105SOL    HW158000   3.321   3.864   5.021 -1.9475 -0.7729 -0.4188
51105SOL    HW258001   3.250   3.993   5.054  1.4444  0.9232  0.7904
51106SOL     OW58002   2.584   3.110   1.418 -0.7079 -0.5531 -0.4210
51106SOL    HW158003   2.666   3.148   1.450 -0.5239 -0.2494 -1.2054
51106SOL    HW258004   2.525   3.113   1.493  0.1180 -1.1456  0.2660
51107SOL     OW58005   5.079   0.926   9.972  0.3815 -0.0471 -0.1389
51107SOL    HW158006   5.072   0.839  10.011 -0.8399 -0.1948 -0.6498
51107SOL    HW258007   5.118   0.911   9.886 -0.5971 -0.2091 -0.5684
51108SOL     OW58008   1.627   3.238  10.046  0.4425 -0.4107 -0.2778
51108SOL    HW158009   1.682   3.279   9.979 -1.0004  0.8595 -0.7330
51108SOL    HW258010   1.654   3.146  10.047 -0.0787 -0.6763 -3.2333
51109SOL     OW58011   8.902   7.819  11.221  0.0756 -1.0331 -0.3368
51109SOL    HW158012   8.841   7.846  11.151 -1.0462 -0.1190  0.9352
51109SOL    HW258013   8.914   7.725  11.207  0.9622 -0.6692 -2.5522
51110SOL     OW58014  11.758  10.352   7.241  0.1171 -0.6935  0.2616
51110SOL    HW158015  11.840  10.399   7.226 -0.0446 -0.5829 -0.2925
51110SOL    HW258016  11.690  10.419   7.237 -0.0050 -0.7925  0.6701
51111SOL     OW58017   4.185   1.872   1.395  0.5250  0.0548  0.1117
51111SOL    HW158018   4.162   1.942   1.334  0.2827  0.8584  1.0944
51111SOL    HW258019   4.171   1.910   1.482  2.8795 -0.3209  0.7369
51112SOL     OW58020   5.333   4.857   7.065  0.3364 -0.2432 -0.3758
51112SOL    HW158021   5.317   4.762   7.061 -1.3944  0.0041 -0.0158
51112SOL    HW258022   5.255   4.893   7.108  0.7200  1.4110 -0.9930
51113SOL     OW58023   2.880   8.817   2.876 -0.3401 -0.5155 -0.0132
51113SOL    HW158024   2.841   8.797   2.961  0.2660  0.4262  0.5045
51113SOL    HW258025   2.974   8.815   2.892 -0.0884 -2.8858 -1.2702
51114SOL     OW58026   8.956   3.318   0.509 -0.6469 -0.1088  1.1377
51114SOL    HW158027   8.951   3.244   0.569 -0.1606 -0.1441  1.1364
51114SOL    HW258028   9.046   3.318   0.477 -1.0281 -0.4308 -0.0128
51115SOL     OW58029   6.760   1.725   2.781 -0.3086 -0.0811 -0.2978
51115SOL    HW158030   6.778   1.813   2.815  0.8030  0.0688 -1.1990
51115SOL    HW258031   6.817   1.668   2.832 -1.5418 -0.3945  0.7688
51116SOL     OW58032  11.024   9.046   3.962  0.2020  0.0884  0.1417
51116SOL    HW158033  10.964   9.017   4.030  0.1263  1.0295  0.4911
51116SOL    HW258034  11.010   9.140   3.955  1.5406  0.3171  0.1507
51117SOL     OW58035   1.462   9.566   4.090 -0.3249 -0.0442 -0.5417
51117SOL    HW158036   1.398   9.597   4.026  0.3105 -0.9893 -1.6571
51117SOL    HW258037   1.436   9.476   4.108  0.1656 -0.1366 -0.2968
51118SOL     OW58038   1.884  11.856  10.223 -0.2953 -0.1927 -0.1219
51118SOL    HW158039   1.853  11.766  10.232 -1.5292  0.3228  1.1118
51118SOL    HW258040   1.978  11.851  10.242  0.3518 -1.6656 -3.1540
51119SOL     OW58041   1.022   5.358   0.325  0.0288  0.2877  0.2756
51119SOL    HW158042   1.019   5.414   0.403 -3.2900  0.2548  0.3258
51119SOL    HW258043   1.086   5.290   0.346  1.8624  2.2686  1.4642
51120SOL     OW58044   9.939  11.620  10.364 -0.0328 -0.2220 -0.3740
51120SOL    HW158045   9.896  11.535  10.374  0.9351 -0.5933  0.7658
51120SOL    HW258046   9.867  11.683  10.369 -0.8196 -0.9484 -1.6200
51121SOL     OW58047   3.587  11.545   2.642 -0.3575  0.4561  0.4258
51121SOL    HW158048   3.564  11.556   2.549  0.7004  0.2077  0.1202
51121SOL    HW258049   3.523  11.599   2.689  0.0448  1.8574 -0.5467
51122SOL     OW58050   4.479   4.732   1.626  0.0448  0.2739 -0.0556
51122SOL    HW158051   4.487   4.766   1.537 -0.1658 -1.1503 -0.6463
51122SOL    HW258052   4.384   4.728   1.642  0.0236 -0.8506 -0.3517
51123SOL     OW58053   7.693   3.871   4.550  0.2076 -0.0569  0.5361
51123SOL    HW158054   7.739   3.827   4.622 -1.1296 -0.4371  1.1943
51123SOL    HW258055   7.618   3.815   4.532  0.6084 -0.0704 -1.3192
51124SOL     OW58056   6.057  10.652   5.823  0.3255  0.2730 -0.3312
51124SOL    HW158057   5.962  10.664   5.827 -0.2842 -2.5715 -2.8608
51124SOL    HW258058   6.087  10.719   5.762 -0.1706  0.6229 -0.1978
51125SOL     OW58059   9.279   2.283   9.125 -0.1281  0.1440 -0.4455
51125SOL    HW158060   9.366   2.252   9.101 -0.7576 -1.0776 -1.2166
51125SOL    HW258061   9.294   2.344   9.198  1.3064 -0.4778 -0.2013
51126SOL     OW58062   4.887   1.282   6.668  0.2303 -0.1043  0.4149
51126SOL    HW158063   4.853   1.193   6.660 -0.1785 -0.0230  1.1342
51126SOL    HW258064   4.896   1.296   6.762 -1.6843  1.3272  0.4503
51127SOL     OW58065   8.664  11.604   1.458 -0.0103 -0.4723 -0.0721
51127SOL    HW158066   8.689  11.524   1.412  0.5307  0.4236 -1.3960
51127SOL    HW258067   8.681  11.585   1.551 -0.6710 -2.1487 -0.2617
51128SOL     OW58068   6.214   5.804   2.060  0.2169 -0.0405 -0.1723
51128SOL    HW158069   6.208   5.721   2.108  0.2909  0.5502  0.8781
51128SOL    HW258070   6.258   5.864   2.120  0.5789  0.6424 -1.0949
51129SOL     OW58071   2.425   9.305   1.194  0.2821  0.2016  0.1430
51129SOL    HW158072   2.516   9.332   1.210  0.4530 -0.8832  1.0833
51129SOL    HW258073   2.405   9.343   1.108  0.9402  2.1393  0.7847
51130SOL     OW58074  11.822   7.264   3.799  0.1626  0.3653  0.2864
51130SOL    HW158075  11.759   7.276   3.729  0.9059  1.1639 -0.2550
51130SOL    HW258076  11.811   7.340   3.856 -0.7647 -0.5029  1.3299
51131SOL     OW58077   6.467   9.735   5.256 -0.6012 -0.3467 -0.0619
51131SOL    HW158078   6.410   9.689   5.318 -2.1375  2.5782  0.8998
51131SOL    HW258079   6.540   9.767   5.309 -0.4772 -0.1806 -0.3280
51132SOL     OW58080   9.302   0.246   9.116 -0.5725  0.2076  0.0420
51132SOL    HW158081   9.274   0.180   9.180  1.9703 -0.0564  0.9808
51132SOL    HW258082   9.225   0.260   9.061 -1.7996 -2.0698  1.0514
51133SOL     OW58083   3.881   9.098  11.601  0.0205 -0.1835 -0.6524
51133SOL    HW158084   3.902   9.048  11.522  0.9069 -0.9740  0.0720
51133SOL    HW258085   3.855   9.184  11.567 -0.9228 -0.9130 -1.8717
51134SOL     OW58086  10.922   0.321   5.145 -0.1703 -0.4063  0.0338
51134SOL    HW158087  10.991   0.384   5.161  0.1586 -0.5780 -0.6670
51134SOL    HW258088  10.841   0.370   5.157  0.0779  0.3218 -1.0859
51135SOL     OW58089   2.878  11.854   0.274 -0.2976 -0.4430  0.4195
51135SOL    HW158090   2.863  11.788   0.341 -2.3663  1.8225  2.3642
51135SOL    HW258091   2.968  11.883   0.288  0.1978 -1.8918  0.3711
51136SOL     OW58092   6.126   5.639   3.958  0.4005 -0.0670 -0.5550
51136SOL    HW158093   6.037   5.667   3.977  0.5696  0.0801  0.0679
51136SOL    HW258094   6.174   5.656   4.040  0.6672 -1.5298 -0.3893
51137SOL     OW58095   3.107   9.715  11.085 -0.0631 -0.3405 -0.5751
51137SOL    HW158096   3.041   9.721  11.154  0.3261  0.5547 -0.2555
51137SOL    HW258097   3.156   9.636  11.105  0.1704  0.0126  0.3047
51138SOL     OW58098   0.341  11.269  10.181  0.1112  0.2125  0.0430
51138SOL    HW158099   0.252  11.236  10.194 -0.8440  2.6990  0.2904
51138SOL    HW258100   0.347  11.286  10.087  0.0153  0.7847  0.1338
51139SOL     OW58101   0.057   5.118   2.892  0.5784 -0.9734  0.2399
51139SOL    HW158102   0.152   5.123   2.890  0.5608  0.4120  1.4330
51139SOL    HW258103   0.027   5.182   2.827  0.4599 -0.5687  0.6895
51140SOL     OW58104   2.309   8.245   3.003 -0.1405 -0.4594 -0.4141
51140SOL    HW158105   2.353   8.162   2.984 -0.1258 -0.8837  1.3516
51140SOL    HW258106   2.260   8.264   2.923 -0.1130 -2.1497 -0.8790
51141SOL     OW58107   6.489   4.944  11.609 -0.1271  0.4253 -0.0676
51141SOL    HW158108   6.545   4.882  11.655  0.3515 -0.2547 -1.5006
51141SOL    HW258109   6.403   4.935  11.650  0.2432 -0.2529  0.5732
51142SOL     OW58110   2.413   9.562   8.860 -0.1795  0.3591  0.1078
51142SOL    HW158111   2.328   9.518   8.857  0.1590 -0.3915  1.0083
51142SOL    HW258112   2.472   9.502   8.814 -0.1072  0.8010 -0.3750
51143SOL     OW58113   6.961  11.683  11.311 -0.2966  0.1840  0.1428
51143SOL    HW158114   6.950  11.724  11.397  0.3733  1.5212 -0.3738
51143SOL    HW258115   7.023  11.611  11.326  0.8993  1.2641  0.5649
51144SOL     OW58116   4.193   1.556  10.404 -0.0103 -0.0771  0.4177
51144SOL    HW158117   4.236   1.487  10.354 -0.1848  0.4066 -0.4237
51144SOL    HW258118   4.246   1.634  10.388 -1.5291  0.6893 -1.1825
51145SOL     OW58119   5.797   3.638   6.928 -0.3783  0.5399  0.4147
51145SOL    HW158120   5.786   3.706   6.862  0.0521  0.0196 -0.2196
51145SOL    HW258121   5.856   3.575   6.886 -0.0071  0.2584  1.3529
51146SOL     OW58122  11.518   2.473   2.976 -0.0809  0.4562  0.5747
51146SOL    HW158123  11.504   2.520   2.894 -0.3869  0.5519  0.6792
51146SOL    HW258124  11.437   2.487   3.026 -0.2894 -0.3835  0.5000
51147SOL     OW58125   9.620   4.553   0.649  0.0624 -0.0725  0.0016
51147SOL    HW158126   9.626   4.622   0.716 -0.0316  3.0392 -2.9631
51147SOL    HW258127   9.679   4.581   0.580 -1.3209 -2.1056 -2.1566
51148SOL     OW58128   3.741   6.288   4.496  0.1271  0.1097 -0.1032
51148SOL    HW158129   3.665   6.327   4.452 -0.5282 -1.6849 -0.6255
51148SOL    HW258130   3.816   6.322   4.447 -0.4824 -0.1103 -1.2245
51149SOL     OW58131   4.529  10.032   9.527 -0.3932 -0.0730  0.4676
51149SOL    HW158132   4.435  10.029   9.542 -1.1123 -0.3836 -3.1564
51149SOL    HW258133   4.558   9.940   9.535 -0.1735  0.1095  2.2737
51150SOL     OW58134   2.187   2.381  10.530  0.3472  0.3929 -0.1820
51150SOL    HW158135   2.216   2.368  10.439 -0.4700  0.5887 -0.4836
51150SOL    HW258136   2.118   2.446  10.523 -1.2739 -1.1855  0.2827
51151SOL     OW58137   9.094   7.244   8.164  0.4840 -0.1273 -0.2625
51151SOL    HW158138   9.011   7.285   8.139 -0.1519 -1.6436 -0.7395
51151SOL    HW258139   9.156   7.271   8.096  0.4259  1.0656  0.1344
51152SOL     OW58140   1.202  10.906   3.371  0.3744  0.4601  0.1381
51152SOL    HW158141   1.142  10.940   3.305  1.3093  0.4738 -0.7420
51152SOL    HW258142   1.150  10.844   3.422 -0.6281  1.1866  0.0340
51153SOL     OW58143  10.098   3.351  10.923  0.0411  0.2735 -0.7312
51153SOL    HW158144  10.093   3.444  10.903  1.2357  0.6097  0.3738
51153SOL    HW258145  10.039   3.339  10.998 -1.0557 -0.1164 -1.6376
51154SOL     OW58146   6.789   5.176   0.771 -0.4210 -0.0755  0.6542
51154SOL    HW158147   6.712   5.118   0.771 -0.1952 -0.3998  1.9457
51154SOL    HW258148   6.769   5.242   0.837  0.1854  0.1681  0.5984
51155SOL     OW58149   0.993   4.507   6.193 -1.1285  0.1941  0.1240
51155SOL    HW158150   1.057   4.573   6.219  0.0348 -0.8665  0.0581
51155SOL    HW258151   0.941   4.550   6.125 -0.0659  0.8702 -0.2890
51156SOL     OW58152  11.447   7.082  10.825 -0.1778 -0.1004  0.0288
51156SOL    HW158153  11.402   6.998  10.815  0.7584 -0.3526 -3.4527
51156SOL    HW258154  11.517   7.065  10.887 -1.7912 -0.9925  1.7309
51157SOL     OW58155   0.108   0.977   7.343  0.2472 -0.4512  0.4913
51157SOL    HW158156   0.043   1.041   7.371  0.5393  1.1627 -2.2294
51157SOL    HW258157   0.192   1.017   7.363  0.4261 -0.3502 -0.4359
51158SOL     OW58158   1.591   5.849   7.068 -0.7401 -0.6039 -0.4287
51158SOL    HW158159   1.683   5.874   7.061 -0.8607 -0.1261 -0.3739
51158SOL    HW258160   1.583   5.808   7.154 -0.5698 -0.6876 -0.4536
51159SOL     OW58161   7.908  11.139   6.754  0.0780  0.2060 -0.2334
51159SOL    HW158162   7.879  11.053   6.784 -1.4854  0.9648  0.5425
51159SOL    HW258163   7.982  11.160   6.811 -1.4410  0.6399  1.6837
51160SOL     OW58164   9.056   2.071  10.493  0.1784 -0.2727 -0.4579
51160SOL    HW158165   9.004   2.032  10.563  0.2983  0.6801  0.1709
51160SOL    HW258166   8.995   2.130  10.448  0.3840 -0.0988 -0.5088
51161SOL     OW58167   0.052   3.372  10.594 -0.8002  0.0061  0.6472
51161SOL    HW158168   0.040   3.394  10.686  0.6801  1.5856  0.5199
51161SOL    HW258169   0.056   3.457  10.550 -2.2199 -0.7359 -1.0034
51162SOL     OW58170   7.399   3.358   4.186 -0.7242 -0.4993  0.4505
51162SOL    HW158171   7.353   3.323   4.110 -0.7404 -0.6563  0.5322
51162SOL    HW258172   7.491   3.358   4.161 -0.9467  1.8145 -0.5182
51163SOL     OW58173   1.282   4.911   1.600 -0.1713 -0.3329 -0.1910
51163SOL    HW158174   1.346   4.869   1.543  0.2556  0.8983 -0.6613
51163SOL    HW258175   1.200   4.864   1.584  0.1034 -0.4584 -1.3092
51164SOL     OW58176   3.350   1.573   3.267 -0.2594  0.0718 -0.0981
51164SOL    HW158177   3.333   1.666   3.284  0.5551  0.3795 -0.8826
51164SOL    HW258178   3.386   1.571   3.179 -1.6703 -1.1684 -0.6937
51165SOL     OW58179   5.372  11.473   2.760  0.4694  0.3605  0.1517
51165SOL    HW158180   5.322  11.422   2.823  0.6835 -0.7494 -0.5508
51165SOL    HW258181   5.311  11.489   2.688  0.8666 -0.2818 -0.3357
51166SOL     OW58182   6.396  11.374   4.797  0.3107  0.0141  0.0343
51166SOL    HW158183   6.445  11.420   4.728  1.0683 -0.1808  0.4378
51166SOL    HW258184   6.442  11.291   4.807 -0.1381 -0.1918  0.3897
51167SOL     OW58185   4.802   2.754   4.803 -0.2153 -0.2139  0.1672
51167SOL    HW158186   4.765   2.679   4.849  1.3029 -0.8160  0.4462
51167SOL    HW258187   4.743   2.826   4.825 -0.7830 -0.9689  1.2319
51168SOL     OW58188   8.899  11.258   4.927  0.4940 -0.4284  0.0416
51168SOL    HW158189   8.862  11.192   4.869  1.1810 -0.4772 -0.3419
51168SOL    HW258190   8.906  11.337   4.873 -2.6371  0.7597  1.1108
51169SOL     OW58191   8.075   0.244   7.422 -0.2928  0.0569  0.1072
51169SOL    HW158192   8.047   0.309   7.358 -1.6500 -1.1628 -0.5771
51169SOL    HW258193   8.122   0.178   7.371  1.3258  0.5845  0.8324
51170SOL     OW58194  10.905  11.141   2.126 -0.5793 -0.0288  0.4350
51170SOL    HW158195  10.885  11.073   2.191  2.3315 -1.5220 -0.0849
51170SOL    HW258196  10.855  11.115   2.048 -1.6809  0.0474  1.0956
51171SOL     OW58197   1.052  10.934   7.649 -0.0764  0.0191 -0.0083
51171SOL    HW158198   1.108  11.012   7.657  1.4369 -1.0347  0.1223
51171SOL    HW258199   1.112  10.865   7.623 -1.6733 -0.7602 -1.8409
51172SOL     OW58200   3.794   8.601   0.226  0.2959  0.8059  0.2721
51172SOL    HW158201   3.744   8.614   0.145  1.3260 -0.0296 -0.5095
51172SOL    HW258202   3.799   8.506   0.236  1.7388  0.8647  0.3102
51173SOL     OW58203   6.052   8.022   4.196 -0.2933  0.1640 -0.1877
51173SOL    HW158204   6.008   7.964   4.134  0.5938 -0.8900  0.1409
51173SOL    HW258205   6.048   8.109   4.156 -0.4098 -0.3699 -1.3514
51174SOL     OW58206   0.251   1.622   9.022 -0.1592 -0.2389  0.3530
51174SOL    HW158207   0.282   1.694   9.076  0.2055  1.1369 -1.5778
51174SOL    HW258208   0.161   1.644   9.001  0.6131  0.9774 -2.1350
51175SOL     OW58209   6.152   8.061   5.017  0.1544  0.4156 -0.5484
51175SOL    HW158210   6.192   8.085   4.933 -0.6992 -0.4339 -1.2231
51175SOL    HW258211   6.058   8.074   5.004 -0.0289 -0.1512  0.1229
51176SOL     OW58212   5.743   1.435   7.970 -0.1337  0.3195 -0.0898
51176SOL    HW158213   5.770   1.365   8.030 -0.0975 -0.2884 -0.8008
51176SOL    HW258214   5.723   1.509   8.027  0.1342 -0.1712  0.6558
51177SOL     OW58215   6.382   8.623   2.186 -0.0438  0.1766  0.0405
51177SOL    HW158216   6.463   8.604   2.138 -1.1942 -2.2749 -1.1024
51177SOL    HW258217   6.350   8.704   2.147  0.9965  0.2644 -0.6825
51178SOL     OW58218  10.551   4.568   7.535 -0.1078  0.1070 -0.2494
51178SOL    HW158219  10.559   4.499   7.601 -0.5690  0.8946  0.6259
51178SOL    HW258220  10.594   4.530   7.458 -0.8043 -1.3733  0.0450
51179SOL     OW58221   5.435   1.856   3.265  0.2220 -0.0784  0.1299
51179SOL    HW158222   5.350   1.886   3.296  1.1093  1.8946  0.8175
51179SOL    HW258223   5.460   1.920   3.198  0.3326 -1.7455 -1.4927
51180SOL     OW58224  11.295   2.162   0.063 -0.1793 -0.5982 -0.8009
51180SOL    HW158225  11.287   2.191   0.154  0.8172  0.4363 -1.0092
51180SOL    HW258226  11.246   2.081   0.059  1.4898 -1.8203  1.2126
51181SOL     OW58227   8.725   6.643   8.518 -0.3185  0.6594 -0.1756
51181SOL    HW158228   8.723   6.559   8.473 -1.7117  0.9865 -0.7856
51181SOL    HW258229   8.788   6.695   8.469 -1.1671  0.7167 -1.2480
51182SOL     OW58230   1.129   3.434   5.695 -0.2934 -0.2121 -0.2736
51182SOL    HW158231   1.078   3.445   5.775 -0.2603  1.2030 -0.4084
51182SOL    HW258232   1.219   3.423   5.725 -0.3380 -0.1070 -0.0992
51183SOL     OW58233  11.900   3.085   0.778 -0.7307  0.0924 -0.4386
51183SOL    HW158234  11.874   3.000   0.813 -0.3109 -0.1356 -0.6763
51183SOL    HW258235  11.952   3.125   0.849  0.7587 -0.6791 -1.0403
51184SOL     OW58236   0.107   3.311   1.885 -0.9921 -0.2299  0.1187
51184SOL    HW158237   0.013   3.330   1.881 -0.9055  0.5504  1.2271
51184SOL    HW258238   0.148   3.397   1.895 -0.0040 -0.3812 -2.1675
51185SOL     OW58239   4.757   8.098   4.649  0.1868  0.2161 -0.1756
51185SOL    HW158240   4.776   8.162   4.717  1.2167 -0.0545 -0.1906
51185SOL    HW258241   4.726   8.021   4.697 -1.6172  0.8940 -0.1941
51186SOL     OW58242   4.505   9.300   0.521  0.0922  0.4874  0.0842
51186SOL    HW158243   4.439   9.234   0.499 -0.9602  1.7650 -0.7743
51186SOL    HW258244   4.522   9.287   0.615 -0.3418 -0.7659  0.0042
51187SOL     OW58245   2.763   8.103   5.798  0.1455 -0.2625  0.7319
51187SOL    HW158246   2.811   8.146   5.727 -0.5082  1.5580  1.3311
51187SOL    HW258247   2.675   8.091   5.763  0.6172 -2.3628  0.1193
51188SOL     OW58248   6.263   3.764   4.931 -0.3042  0.7249  0.0771
51188SOL    HW158249   6.246   3.822   5.006 -0.5614 -0.4452  0.9601
51188SOL    HW258250   6.319   3.815   4.873  0.8819  1.2613  1.6238
51189SOL     OW58251   9.948   0.051   4.713 -0.0859 -0.5919 -0.1683
51189SOL    HW158252  10.027   0.083   4.670 -0.5307 -1.6200 -1.8496
51189SOL    HW258253   9.881   0.115   4.690  0.0827 -0.1156  0.6370
51190SOL     OW58254   9.264  11.860   9.707 -0.4800 -0.1962 -0.3380
51190SOL    HW158255   9.181  11.903   9.730 -0.7345 -0.8071 -0.0954
51190SOL    HW258256   9.264  11.779   9.757  0.6007  0.1234  0.2193
51191SOL     OW58257   5.298   9.793   4.515 -0.5252 -0.0897  0.1498
51191SOL    HW158258   5.204   9.781   4.509 -0.8535  1.9813  0.3277
51191SOL    HW258259   5.310   9.848   4.593  0.9507 -1.3123  0.8363
51192SOL     OW58260   4.925   2.327   3.320  0.0878  0.4171 -0.7705
51192SOL    HW158261   4.848   2.346   3.372 -0.3135  1.2727 -1.6387
51192SOL    HW258262   4.963   2.413   3.301  0.4542  0.1042 -1.5209
51193SOL     OW58263   3.691  11.342   1.846  0.5907 -0.3272  0.0961
51193SOL    HW158264   3.660  11.314   1.932  0.8084 -0.8160  0.0158
51193SOL    HW258265   3.613  11.376   1.802  0.1840 -1.4133 -0.0543
51194SOL     OW58266  11.528   4.037   2.280  0.0758  0.3692 -0.0523
51194SOL    HW158267  11.591   3.966   2.267 -0.5412 -0.1107 -0.5155
51194SOL    HW258268  11.452   3.994   2.320 -0.3164  0.7592 -0.3687
51195SOL     OW58269   4.247   3.039  10.923 -0.4272  0.2718 -0.3559
51195SOL    HW158270   4.180   2.995  10.975 -1.6102 -0.0306 -2.0681
51195SOL    HW258271   4.319   3.054  10.985 -0.4215 -2.9702  0.6211
51196SOL     OW58272  10.188   8.545   8.285  0.0408 -0.0991 -0.1763
51196SOL    HW158273  10.252   8.491   8.238  0.8116  0.2260  0.4807
51196SOL    HW258274  10.186   8.627   8.235  0.6912  0.1621  0.2117
51197SOL     OW58275   5.419   3.562   8.716 -0.5551  0.3674 -0.1004
51197SOL    HW158276   5.478   3.490   8.738 -0.2289  0.1000 -1.7284
51197SOL    HW258277   5.369   3.578   8.796  2.3271  1.2260  1.6578
51198SOL     OW58278  10.897   8.178   8.885 -0.1303 -0.7523  0.2725
51198SOL    HW158279  10.888   8.266   8.847 -0.3071 -0.8240  0.1519
51198SOL    HW258280  10.809   8.142   8.884 -0.0269 -1.0031  0.1531
51199SOL     OW58281   1.509   2.949  10.632 -0.5216  1.0029 -0.1643
51199SOL    HW158282   1.553   3.033  10.647 -0.7024  1.2179 -0.7972
51199SOL    HW258283   1.479   2.954  10.541  0.9100 -0.3870 -0.7725
51200SOL     OW58284   5.858   3.158   5.644 -0.2250  0.4171  0.2797
51200SOL    HW158285   5.909   3.227   5.686 -0.2889  0.1621  0.7838
51200SOL    HW258286   5.884   3.078   5.689 -0.8942  0.2505  0.3893
51201SOL     OW58287   6.674   9.030   8.767 -0.7138  0.0204 -0.0258
51201SOL    HW158288   6.753   8.977   8.757  0.0533  1.1034  0.0125
51201SOL    HW258289   6.700   9.117   8.735 -1.5907  0.6490  0.9000
51202SOL     OW58290   2.242   8.895   5.762 -0.5602 -0.0966 -0.2592
51202SOL    HW158291   2.259   8.884   5.668 -0.9422 -0.6066 -0.2735
51202SOL    HW258292   2.149   8.920   5.767 -0.2675  0.9903 -0.0809
51203SOL     OW58293  11.006   2.591   3.128 -0.0017  0.2040  0.1651
51203SOL    HW158294  11.027   2.637   3.210 -4.0530  3.1183 -0.1131
51203SOL    HW258295  10.978   2.661   3.068  0.6743 -2.0579 -3.0233
51204SOL     OW58296   9.425   2.923   9.886  0.6855  0.1218  0.1985
51204SOL    HW158297   9.338   2.931   9.924  1.1390 -0.2164  1.3541
51204SOL    HW258298   9.430   2.832   9.856  0.8469 -0.0356  0.6884
51205SOL     OW58299   8.690   5.687   8.576 -0.3026 -0.3514  0.4704
51205SOL    HW158300   8.769   5.703   8.627 -1.0814 -1.1085  1.9662
51205SOL    HW258301   8.632   5.637   8.634 -0.7989 -2.2721 -1.4925
51206SOL     OW58302   6.794   7.398   3.237 -0.1030  0.5944  0.1708
51206SOL    HW158303   6.851   7.404   3.314  0.4877  0.2731 -0.2292
51206SOL    HW258304   6.832   7.460   3.175  1.0651 -1.0862 -0.8705
51207SOL     OW58305   9.660   2.918   0.944 -0.1208  0.1529 -0.9586
51207SOL    HW158306   9.601   2.968   1.001 -1.5811 -0.5122 -1.7999
51207SOL    HW258307   9.726   2.882   1.003 -1.8585 -0.9298  0.4577
51208SOL     OW58308   3.900   7.399   0.430 -0.4348 -0.1986  0.1759
51208SOL    HW158309   3.864   7.390   0.342 -0.3717 -0.0750  0.1373
51208SOL    HW258310   3.835   7.357   0.487 -0.5436 -0.1538  0.0852
51209SOL     OW58311   9.492   2.741   7.431  0.2267  0.0861 -0.4335
51209SOL    HW158312   9.572   2.698   7.463  0.5306  0.7754 -0.2585
51209SOL    HW258313   9.474   2.699   7.347 -0.1270 -1.1906  0.2522
51210SOL     OW58314   5.855   8.136   0.840 -0.2104  0.5662  0.2051
51210SOL    HW158315   5.770   8.104   0.810  0.6484 -0.5447 -1.1836
51210SOL    HW258316   5.872   8.213   0.786 -1.0464  1.8351  1.6605
51211SOL     OW58317   2.215   7.832   6.689  0.0938 -0.6535 -0.3800
51211SOL    HW158318   2.243   7.916   6.654  1.6253 -1.0359 -0.1391
51211SOL    HW258319   2.148   7.802   6.627 -0.6492  0.8271 -0.3292
51212SOL     OW58320  11.369   0.125  10.892  0.2690  0.0749  0.3858
51212SOL    HW158321  11.438   0.093  10.950 -2.1347 -1.9163  2.3821
51212SOL    HW258322  11.354   0.215  10.919  0.1775 -0.3754  1.9229
51213SOL     OW58323   0.327   8.339   6.481 -0.1347  0.2202  0.2745
51213SOL    HW158324   0.401   8.354   6.423  0.6158 -0.7856  0.9539
51213SOL    HW258325   0.282   8.263   6.444 -0.1061  0.0613  0.5610
51214SOL     OW58326   7.113   4.730   4.108  0.4689  0.0968  0.0192
51214SOL    HW158327   7.056   4.659   4.079 -0.3069  0.6332  0.2041
51214SOL    HW258328   7.085   4.806   4.057  0.3604  0.5986  0.8100
51215SOL     OW58329   2.553   8.866   0.103 -0.2695  0.0292 -0.5775
51215SOL    HW158330   2.640   8.867   0.143  0.2284 -0.9202 -1.5926
51215SOL    HW258331   2.511   8.946   0.136  0.2694 -0.4596  1.4362
51216SOL     OW58332   3.264  11.525   3.234 -0.5683 -0.3565 -0.0284
51216SOL    HW158333   3.205  11.553   3.303 -0.6616  0.7451 -0.5321
51216SOL    HW258334   3.335  11.589   3.236  0.8729 -1.9004  0.8605
51217SOL     OW58335   0.568   2.529   3.194  0.1396 -0.3094  0.0271
51217SOL    HW158336   0.524   2.507   3.276  1.3052 -1.8394  0.2981
51217SOL    HW258337   0.660   2.543   3.219  0.6660 -1.5593 -1.0879
51218SOL     OW58338   0.784   4.143   2.677  0.2656 -0.3792  0.4588
51218SOL    HW158339   0.801   4.190   2.758 -0.9691  1.1341 -0.1155
51218SOL    HW258340   0.851   4.074   2.674  2.2225  1.4053  1.2676
51219SOL     OW58341   8.505   2.852   1.552  0.6258 -0.1479 -0.3535
51219SOL    HW158342   8.547   2.834   1.636  0.4197 -1.3016 -0.4869
51219SOL    HW258343   8.426   2.799   1.552  0.8102 -0.4482 -1.4299
51220SOL     OW58344   3.474   5.714   7.336  0.2509 -0.0278 -0.2588
51220SOL    HW158345   3.453   5.667   7.417  0.0711 -0.4795 -0.5596
51220SOL    HW258346   3.452   5.652   7.266 -1.4545  1.0483 -0.7387
51221SOL     OW58347   0.105  11.086   0.471 -0.5432  0.2107  0.1261
51221SOL    HW158348   0.074  11.014   0.416  0.2755  1.1572 -1.6389
51221SOL    HW258349   0.100  11.163   0.415  0.8492  1.1266  1.2115
51222SOL     OW58350   0.755   7.816  10.586 -0.6238  0.2864  0.3975
51222SOL    HW158351   0.677   7.763  10.603  1.1724 -2.2720  1.4364
51222SOL    HW258352   0.732   7.904  10.615 -2.8574 -0.5584  1.3829
51223SOL     OW58353   8.855   9.592   5.463  0.2355 -0.0388  0.4251
51223SOL    HW158354   8.919   9.662   5.446  0.6261 -0.3205  0.7163
51223SOL    HW258355   8.872   9.526   5.396 -1.7005  1.1643 -1.3632
51224SOL     OW58356   7.669   0.802   5.912 -0.0741 -0.0035 -0.8682
51224SOL    HW158357   7.599   0.751   5.954  0.4953  0.1563  0.3242
51224SOL    HW258358   7.659   0.785   5.819 -0.5000 -1.5194 -0.5669
51225SOL     OW58359   4.543   4.701   9.230  0.1511 -0.0869 -0.0852
51225SOL    HW158360   4.516   4.633   9.168 -2.0901  0.7499 -0.0919
51225SOL    HW258361   4.536   4.783   9.181 -0.7706  0.4991  0.9639
51226SOL     OW58362   9.896   8.843   4.608 -0.1032 -0.5652  0.2107
51226SOL    HW158363   9.823   8.783   4.596 -1.3792  0.9594 -0.0331
51226SOL    HW258364   9.947   8.836   4.528 -0.9390 -0.4357 -0.3465
51227SOL     OW58365  11.628   6.326   3.152  0.0620  0.2106  0.4348
51227SOL    HW158366  11.645   6.232   3.155  0.3983  0.2733  0.4450
51227SOL    HW258367  11.626   6.347   3.058 -2.5918 -0.2811  0.3023
51228SOL     OW58368   9.091   0.221   0.853  0.1821 -0.4550 -0.7653
51228SOL    HW158369   9.107   0.136   0.813 -0.6863 -0.4767 -1.0997
51228SOL    HW258370   8.997   0.221   0.873  0.6487 -0.5854  1.6806
51229SOL     OW58371   9.150   0.228  10.881  0.5958  0.0660  0.0944
51229SOL    HW158372   9.235   0.187  10.868  0.9867  1.2495 -1.3366
51229SOL    HW258373   9.168   0.302  10.940  0.9754  1.4881 -1.7286
51230SOL     OW58374   3.395   3.539   1.467 -0.0478  0.1476  0.0793
51230SOL    HW158375   3.421   3.454   1.429  1.1302  1.1084 -1.3727
51230SOL    HW258376   3.459   3.554   1.537 -1.1919 -0.8341  1.3945
51231SOL     OW58377  11.638   4.203   1.571 -0.8340 -0.9104  0.0162
51231SOL    HW158378  11.667   4.270   1.510 -0.2856 -2.2074 -1.2077
51231SOL    HW258379  11.618   4.127   1.516 -1.3159 -1.8011  1.3603
51232SOL     OW58380   2.950   9.353   6.098  0.6105 -0.0953  0.1703
51232SOL    HW158381   2.945   9.358   6.194  0.7763  0.4932  0.1534
51232SOL    HW258382   2.930   9.262   6.078 -0.3504 -0.0168  0.7065
51233SOL     OW58383   4.179   3.304   3.853 -0.0824  0.0827  0.1921
51233SOL    HW158384   4.237   3.254   3.911  0.5453  1.6271  0.9374
51233SOL    HW258385   4.235   3.331   3.781 -0.3022  0.1449  0.0439
51234SOL     OW58386   5.127   7.674   4.144 -0.1832  0.2386 -0.2695
51234SOL    HW158387   5.061   7.738   4.169 -0.2292  0.7656 -1.6587
51234SOL    HW258388   5.079   7.606   4.097  0.0768 -0.0804 -0.0867
51235SOL     OW58389   9.335   5.755   3.126 -0.2002 -0.4322  0.5848
51235SOL    HW158390   9.330   5.835   3.074 -1.1807 -0.0245  1.2857
51235SOL    HW258391   9.421   5.719   3.105  1.4730  2.2180  2.2681
51236SOL     OW58392   7.523   8.149   9.066 -0.1968 -0.3570  0.5331
51236SOL    HW158393   7.517   8.072   9.122  1.2405  0.2134  1.5282
51236SOL    HW258394   7.611   8.147   9.030 -0.9325 -0.4430 -1.3717
51237SOL     OW58395   2.759  11.755   1.254  0.9326  0.2099 -0.0519
51237SOL    HW158396   2.698  11.820   1.287  0.3610 -1.1169  1.6248
51237SOL    HW258397   2.840  11.771   1.302  0.2147 -1.4747  1.8664
51238SOL     OW58398   6.484   2.579   4.665  0.0237 -0.7870  0.8211
51238SOL    HW158399   6.448   2.502   4.709  0.5926 -1.8503 -0.4878
51238SOL    HW258400   6.418   2.647   4.679 -0.8028 -1.6846  1.4715
51239SOL     OW58401   3.481   1.700   0.613 -0.1727  0.5647 -0.1806
51239SOL    HW158402   3.553   1.727   0.670 -0.1370  0.4632 -0.1779
51239SOL    HW258403   3.422   1.650   0.670 -0.7245  1.4515  0.0416
51240SOL     OW58404   4.222   6.815   4.615 -0.0837  0.1624 -0.2796
51240SOL    HW158405   4.160   6.876   4.574  0.1917  0.8912  0.3724
51240SOL    HW258406   4.308   6.851   4.594  0.0949 -0.2418 -0.2480
51241SOL     OW58407   2.989   9.525   3.286 -0.3356 -0.0304 -0.0805
51241SOL    HW158408   3.055   9.591   3.307  1.9305 -2.1685 -0.0759
51241SOL    HW258409   2.958   9.549   3.199  0.4961  0.9951 -0.1067
51242SOL     OW58410  11.720   9.362   3.916  0.3357 -0.0407 -0.2328
51242SOL    HW158411  11.745   9.277   3.951  0.5910 -0.6138 -1.7522
51242SOL    HW258412  11.687   9.410   3.992 -1.5430 -2.1234  0.3704
51243SOL     OW58413   3.451   4.514   3.016  0.1291 -0.6262 -0.3478
51243SOL    HW158414   3.412   4.435   2.980  0.0407 -0.2748 -1.0318
51243SOL    HW258415   3.508   4.482   3.086  0.4804 -1.3385 -0.9396
51244SOL     OW58416   5.583  10.368   4.962  0.0952 -0.4396 -0.6835
51244SOL    HW158417   5.566  10.376   5.056  2.0996 -0.7797 -0.2319
51244SOL    HW258418   5.524  10.431   4.922 -2.7275 -2.1117  0.5218
51245SOL     OW58419   2.142   9.486  11.294 -0.5794 -0.0957  0.8374
51245SOL    HW158420   2.120   9.474  11.386  0.2228 -1.5364  0.8744
51245SOL    HW258421   2.101   9.412  11.250 -1.0008  0.6095  0.0237
51246SOL     OW58422   1.589   1.917  11.904  0.5414  0.0763 -0.1886
51246SOL    HW158423   1.526   1.984  11.881 -1.2526 -0.8679  1.6395
51246SOL    HW258424   1.568   1.843  11.847 -0.6055 -0.5120  0.9377
51247SOL     OW58425   0.515   3.440   2.399 -0.4495 -0.3237 -0.6699
51247SOL    HW158426   0.442   3.431   2.460  0.4345 -0.3490  0.4228
51247SOL    HW258427   0.590   3.406   2.447  0.4942  0.7267 -1.3681
51248SOL     OW58428   6.605  10.832   5.429  0.0359 -0.3472  0.2218
51248SOL    HW158429   6.534  10.870   5.482 -1.1544 -0.0295 -1.5335
51248SOL    HW258430   6.587  10.738   5.430 -0.0940 -0.3222  0.2237
51249SOL     OW58431   2.000   3.034   3.682 -0.0179 -0.2850  0.0321
51249SOL    HW158432   1.965   3.102   3.624  1.2900  0.8070  0.4594
51249SOL    HW258433   1.937   2.962   3.676 -1.0953  0.6989 -0.9605
51250SOL     OW58434   7.481   7.126   3.316  0.6001 -0.0086 -0.2550
51250SOL    HW158435   7.545   7.059   3.291 -1.5943 -1.8792 -1.2668
51250SOL    HW258436   7.480   7.187   3.243  2.0334  0.7227  0.3037
51251SOL     OW58437   0.107   6.250   7.429  0.2073  0.0282  0.4614
51251SOL    HW158438   0.064   6.261   7.344 -0.4797  0.3288  0.8458
51251SOL    HW258439   0.064   6.313   7.486  1.8067  1.0530  0.6175
51252SOL     OW58440   5.418   0.639  11.550  0.6906  0.1328 -0.0205
51252SOL    HW158441   5.375   0.714  11.510 -0.0931 -0.2185  0.1475
51252SOL    HW258442   5.349   0.574  11.561  1.1533 -0.2514  0.7375
51253SOL     OW58443   0.234  11.356   5.460 -0.1213  0.0407  0.7848
51253SOL    HW158444   0.230  11.262   5.477  0.1137  0.0690  1.0108
51253SOL    HW258445   0.248  11.363   5.365 -0.5571 -0.1399  0.7047
51254SOL     OW58446   5.532   1.635   3.840  0.6488 -0.3888 -0.3399
51254SOL    HW158447   5.613   1.685   3.853  0.3354  0.2441 -0.7518
51254SOL    HW258448   5.537   1.604   3.750  1.1055 -1.6058  0.0872
51255SOL     OW58449   5.362   7.686   1.930  0.0305 -0.0293 -0.3390
51255SOL    HW158450   5.424   7.718   1.996  1.6989 -2.4594 -0.5923
51255SOL    HW258451   5.307   7.623   1.976  0.9911 -1.4994 -1.1375
51256SOL     OW58452   0.373   9.258   3.204  0.2888  0.0637  0.7163
51256SOL    HW158453   0.445   9.235   3.262  1.7483  2.6976  0.1294
51256SOL    HW258454   0.416   9.285   3.122 -1.2211  2.4128  0.5832
51257SOL     OW58455   8.510   0.310  10.723 -0.0280  0.0187  0.6772
51257SOL    HW158456   8.436   0.287  10.668  0.1822  1.4222 -0.2472
51257SOL    HW258457   8.471   0.351  10.800 -0.2376  0.2221  0.4631
51258SOL     OW58458  10.743   7.052  10.928 -0.1814  0.9523  0.3445
51258SOL    HW158459  10.712   6.968  10.896  1.2221 -0.0372  1.4377
51258SOL    HW258460  10.759   7.104  10.850 -0.3676 -0.0546 -0.3755
51259SOL     OW58461   7.961   3.665   0.107 -0.4730 -0.3012  0.6102
51259SOL    HW158462   8.057   3.655   0.106 -0.1134  2.3174  0.8564
51259SOL    HW258463   7.938   3.661   0.200 -0.5505 -0.4517  0.5850
51260SOL     OW58464   4.990   0.001  11.087  0.3202 -0.4333  0.0458
51260SOL    HW158465   5.050  -0.057  11.135 -0.3838 -0.0615  1.4028
51260SOL    HW258466   4.928   0.032  11.152 -0.4420  0.4092 -1.0347
51261SOL     OW58467   6.217   7.030  10.696 -0.1498 -0.5598  0.1086
51261SOL    HW158468   6.185   7.034  10.605 -0.3117  0.5078  0.2002
51261SOL    HW258469   6.308   7.002  10.688 -0.3446 -1.0895 -0.3359
51262SOL     OW58470   8.641  10.151   1.472 -0.0528 -0.1090 -0.2812
51262SOL    HW158471   8.635  10.246   1.483  1.5364 -0.1741  1.7788
51262SOL    HW258472   8.668  10.140   1.380 -1.1041  1.3506 -0.8063
51263SOL     OW58473   1.928   6.907  10.437  0.1639 -0.1166 -0.1798
51263SOL    HW158474   1.902   6.998  10.453 -0.4272 -0.3719  0.3062
51263SOL    HW258475   2.020   6.914  10.408 -0.0583  0.6770 -0.7396
51264SOL     OW58476   7.124   1.841   0.071 -0.0846 -0.0031 -0.0948
51264SOL    HW158477   7.079   1.926   0.063  1.4282  0.8387 -0.0532
51264SOL    HW258478   7.156   1.840   0.161  0.1575 -0.4856 -0.1862
51265SOL     OW58479  10.470   1.768  11.139  0.1394  0.1269  0.0695
51265SOL    HW158480  10.406   1.711  11.180 -0.3677  0.8634  0.3289
51265SOL    HW258481  10.553   1.746  11.180 -0.1477 -0.0381  0.5643
51266SOL     OW58482   0.165   2.734   2.751  0.3590  0.0276  0.7346
51266SOL    HW158483   0.182   2.736   2.657 -0.5852 -0.7448  0.5415
51266SOL    HW258484   0.097   2.800   2.764 -1.1163 -1.4035  0.5219
51267SOL     OW58485   9.534   3.459   5.168 -0.4208 -0.5711  0.6826
51267SOL    HW158486   9.509   3.425   5.082  0.8930 -0.4685  0.2339
51267SOL    HW258487   9.610   3.407   5.193 -1.5589 -1.4990  2.4217
51268SOL     OW58488   9.038   5.858   2.443  0.0423 -0.4137  0.1549
51268SOL    HW158489   9.068   5.888   2.528 -0.1468  1.5690 -0.4388
51268SOL    HW258490   9.100   5.789   2.419  1.8653  0.9755  0.6246
51269SOL     OW58491  11.677   3.079  10.964 -0.4466  0.7295  0.3479
51269SOL    HW158492  11.595   3.091  10.916 -1.6263 -0.7745  1.8733
51269SOL    HW258493  11.704   2.989  10.944 -1.2413 -0.1351  2.7542
51270SOL     OW58494   7.239   6.871   9.086 -0.9632 -0.2773 -0.4257
51270SOL    HW158495   7.173   6.909   9.027 -1.4605 -0.3498  0.0703
51270SOL    HW258496   7.235   6.777   9.069 -1.3388 -0.3340 -0.0597
51271SOL     OW58497   2.599   1.811   2.650 -0.3692  0.3569  0.0452
51271SOL    HW158498   2.602   1.870   2.725  1.7700  0.7712 -0.3043
51271SOL    HW258499   2.571   1.866   2.577  2.6544  1.3148 -0.5078
51272SOL     OW58500   2.508   5.779   3.542 -0.1803 -0.0477 -0.0557
51272SOL    HW158501   2.449   5.854   3.545  0.9682  0.8351  2.3024
51272SOL    HW258502   2.580   5.806   3.485  0.1418  0.6082  0.6494
51273SOL     OW58503   5.708   0.150   8.978 -0.6294 -0.0848  0.2775
51273SOL    HW158504   5.698   0.080   9.042 -2.1658 -0.2878 -0.1386
51273SOL    HW258505   5.739   0.107   8.898 -1.1800 -0.2363  0.1425
51274SOL     OW58506   5.787   4.665   7.483  0.5703 -0.2146 -0.5959
51274SOL    HW158507   5.832   4.583   7.501 -0.0272 -0.9978 -2.4526
51274SOL    HW258508   5.741   4.650   7.401  0.0325  1.8264 -0.7277
51275SOL     OW58509  10.005   3.232   6.567  0.5794 -0.0197  0.3018
51275SOL    HW158510   9.995   3.316   6.612  0.6183  0.7178 -1.0399
51275SOL    HW258511  10.057   3.252   6.489  0.3473 -1.2393 -0.1892
51276SOL     OW58512   8.350   3.210   5.374 -0.0148 -0.0288  0.5182
51276SOL    HW158513   8.430   3.203   5.322  0.2472  1.8583  0.6117
51276SOL    HW258514   8.280   3.187   5.313  0.4578  0.1671 -0.1078
51277SOL     OW58515   1.123   2.714   8.767  0.0094  0.1513  0.3248
51277SOL    HW158516   1.169   2.706   8.683 -1.3691 -0.2133 -0.4267
51277SOL    HW258517   1.082   2.628   8.780  0.2125  0.1988  1.3934
51278SOL     OW58518   9.360   8.776   8.666 -0.7472 -0.8150 -0.1362
51278SOL    HW158519   9.310   8.752   8.743 -0.6001  1.5620  0.7856
51278SOL    HW258520   9.313   8.851   8.629 -0.4272 -1.4620 -1.9734
51279SOL     OW58521   3.071  10.526   0.065 -0.2934  0.5692 -0.5477
51279SOL    HW158522   2.980  10.504   0.087  0.7371 -2.6201  1.0783
51279SOL    HW258523   3.075  10.513  -0.030 -1.0552 -1.7035 -0.3450
51280SOL     OW58524   9.596   7.690   4.415 -0.0616 -0.2153  0.4321
51280SOL    HW158525   9.551   7.648   4.488  1.3178 -1.4581  0.6320
51280SOL    HW258526   9.644   7.763   4.455  0.6671 -0.8760  0.7933
51281SOL     OW58527  11.711   4.187   5.528  0.2034  0.0387  0.2256
51281SOL    HW158528  11.756   4.272   5.520 -1.6648  0.9788 -0.8045
51281SOL    HW258529  11.626   4.209   5.566 -0.3382 -1.3675 -0.1311
51282SOL     OW58530  11.783  11.449   4.172 -0.0481 -0.3128  0.0725
51282SOL    HW158531  11.838  11.420   4.245  0.2981 -0.7843 -0.3687
51282SOL    HW258532  11.694  11.428   4.200 -0.0627  0.8383  0.9670
51283SOL     OW58533   5.743   3.477   4.226 -0.1418  0.0305  0.7971
51283SOL    HW158534   5.796   3.556   4.217 -0.7283  0.4386  0.9108
51283SOL    HW258535   5.738   3.462   4.320  1.9312 -1.4929  0.7464
51284SOL     OW58536   5.486   4.853   4.183  0.1541 -0.3783 -0.1481
51284SOL    HW158537   5.500   4.819   4.095  0.0654 -0.5769 -0.0850
51284SOL    HW258538   5.521   4.786   4.241 -2.2569 -1.5326  0.0669
51285SOL     OW58539   6.912   3.140   8.360  0.2687  1.0160 -0.4753
51285SOL    HW158540   6.897   3.124   8.267  3.0474 -1.8749 -0.6261
51285SOL    HW258541   6.834   3.107   8.403 -0.7532  1.7185 -1.7209
51286SOL     OW58542   0.442   7.913   8.588  0.1689  0.7339 -0.1962
51286SOL    HW158543   0.353   7.910   8.553 -0.3631  0.2844  1.1610
51286SOL    HW258544   0.494   7.864   8.523 -0.7166  0.2656 -0.5717
51287SOL     OW58545   9.168   8.010   9.318 -0.0819 -0.1458  0.2897
51287SOL    HW158546   9.137   7.922   9.294  0.6875 -0.6571  1.1188
51287SOL    HW258547   9.251   8.019   9.272  0.6655 -0.5401  1.4983
51288SOL     OW58548   9.899  10.819   3.550 -0.2122 -0.2420  0.1206
51288SOL    HW158549   9.836  10.747   3.547  0.3848 -1.0530  3.0662
51288SOL    HW258550   9.845  10.897   3.567 -0.5850 -0.7073  1.1985
51289SOL     OW58551   9.405   2.183   9.767  0.0604  0.1116 -0.1207
51289SOL    HW158552   9.431   2.100   9.808 -2.0850 -1.0810 -0.9795
51289SOL    HW258553   9.314   2.195   9.794 -0.2095  1.2800 -1.4308
51290SOL     OW58554   2.381   6.688   7.866  0.6908  0.2534  0.2299
51290SOL    HW158555   2.470   6.672   7.896  1.0337 -0.7352 -1.2328
51290SOL    HW258556   2.390   6.750   7.794  0.3869 -1.0936 -1.0030
51291SOL     OW58557   5.648  10.782   8.422  0.3482  0.4435  0.3771
51291SOL    HW158558   5.643  10.876   8.403  2.2073  0.6552  0.7507
51291SOL    HW258559   5.587  10.769   8.494 -1.1495  1.0301 -0.7183
51292SOL     OW58560   5.500   3.928   9.544 -0.4361  0.0742 -0.2455
51292SOL    HW158561   5.437   4.000   9.544  0.1073  0.5551 -0.6191
51292SOL    HW258562   5.449   3.852   9.514 -0.6873  0.6095 -1.2461
51293SOL     OW58563   8.292   7.883   1.752  0.5050  0.1168  0.0986
51293SOL    HW158564   8.239   7.962   1.739  0.6924  0.3640  0.8094
51293SOL    HW258565   8.382   7.913   1.740  0.6957  0.3623  1.9024
51294SOL     OW58566   6.153  10.853   9.622  0.3322  0.1039 -0.8725
51294SOL    HW158567   6.245  10.844   9.597  1.2930  1.6320  1.7700
51294SOL    HW258568   6.115  10.912   9.557  2.2325  2.4518  0.0156
51295SOL     OW58569   3.252  11.793   4.858  0.0561 -0.3263 -0.4620
51295SOL    HW158570   3.263  11.885   4.832 -1.9540  0.0949  0.0096
51295SOL    HW258571   3.313  11.781   4.931 -0.4100  0.9561  0.1683
51296SOL     OW58572   4.697   9.446   5.288  0.1092 -0.0119 -0.0711
51296SOL    HW158573   4.739   9.361   5.297  0.4684  0.2375  0.6784
51296SOL    HW258574   4.748   9.490   5.219  0.8905  0.1690  0.6101
51297SOL     OW58575   0.050   3.641  10.725 -0.0231 -0.3337 -0.2879
51297SOL    HW158576  -0.033   3.682  10.749 -1.8817 -2.3356 -2.6605
51297SOL    HW258577   0.058   3.566  10.785  2.0265  1.7711  2.2946
51298SOL     OW58578   3.952   3.304   1.298 -0.0606  0.0725 -0.1662
51298SOL    HW158579   3.893   3.349   1.358  0.9635  0.4166  0.6287
51298SOL    HW258580   3.965   3.217   1.337 -0.6018 -0.2651 -0.7241
51299SOL     OW58581   6.991  10.016   8.347 -0.6266 -0.1920  0.8023
51299SOL    HW158582   6.970   9.958   8.419 -0.3547  0.4669  1.4305
51299SOL    HW258583   7.009   9.958   8.273 -1.5933 -0.8466  1.0719
51300SOL     OW58584   0.612   3.555  10.613 -0.0505  0.4385  0.1148
51300SOL    HW158585   0.651   3.526  10.531  1.8596 -0.0176  1.1371
51300SOL    HW258586   0.563   3.634  10.589 -0.2433 -0.1579 -1.5893
51301SOL     OW58587   1.774  10.920   8.844 -0.6144 -0.2884  0.0671
51301SOL    HW158588   1.813  10.844   8.799  0.5605 -0.5629  1.4508
51301SOL    HW258589   1.842  10.947   8.905 -0.7573  2.3247 -0.8317
51302SOL     OW58590   8.105  11.915   9.857  1.0327 -0.1870  0.0637
51302SOL    HW158591   8.169  11.914   9.928  1.4917 -1.4326 -0.3440
51302SOL    HW258592   8.059  11.832   9.865  0.8121 -0.1601 -0.8483
51303SOL     OW58593   3.918   4.157   8.723 -0.1098 -0.1678  0.0718
51303SOL    HW158594   3.935   4.181   8.814 -1.6291  1.8968 -0.1124
51303SOL    HW258595   3.959   4.226   8.671 -2.0270  0.5251 -0.6287
51304SOL     OW58596   9.672   0.186   1.676  0.1490 -0.2948 -0.2129
51304SOL    HW158597   9.753   0.180   1.727 -0.5315 -1.1931  0.8373
51304SOL    HW258598   9.605   0.208   1.741 -0.3336  1.3513 -1.2147
51305SOL     OW58599   2.480  11.478   0.024 -1.0940 -0.3576  0.4971
51305SOL    HW158600   2.433  11.406  -0.017 -0.9152 -0.3631  0.2989
51305SOL    HW258601   2.569  11.444   0.036 -0.4867  0.4738 -1.3429
51306SOL     OW58602   0.234   8.596  11.147 -0.2492 -0.1076  0.5244
51306SOL    HW158603   0.221   8.666  11.083  0.1099  0.1646  0.7479
51306SOL    HW258604   0.296   8.536  11.105  0.0053  0.0835  0.6307
51307SOL     OW58605   4.044   9.726   1.129  0.5757  0.1311 -0.0352
51307SOL    HW158606   4.070   9.644   1.087  0.5590 -0.9787  1.9937
51307SOL    HW258607   3.964   9.704   1.178  0.5822  1.3453  0.5648
51308SOL     OW58608   5.233   1.486  11.864 -0.1416  0.0007  0.4411
51308SOL    HW158609   5.288   1.453  11.935  1.4733  0.2376 -0.6511
51308SOL    HW258610   5.287   1.551  11.820 -0.0821 -1.8099 -2.4709
51309SOL     OW58611  11.344  10.180   4.885  0.2235 -0.3888 -0.2701
51309SOL    HW158612  11.312  10.178   4.795 -0.5082  0.5509 -0.0438
51309SOL    HW258613  11.280  10.130   4.935  0.6744 -0.9816 -0.2784
51310SOL     OW58614   3.835  11.636   5.639 -0.2384 -0.0166  0.0436
51310SOL    HW158615   3.769  11.641   5.570 -0.4431  0.9081  0.2871
51310SOL    HW258616   3.915  11.670   5.597  0.2839 -1.7617 -0.4524
51311SOL     OW58617  10.581   9.346   6.730 -0.0441 -0.0008  0.4084
51311SOL    HW158618  10.597   9.381   6.818 -1.7170  1.4226  0.1947
51311SOL    HW258619  10.494   9.305   6.736  1.2706 -3.0975  0.2932
51312SOL     OW58620   9.047   7.051   3.260 -0.2566  0.1801  0.0610
51312SOL    HW158621   9.089   6.974   3.297 -1.5872 -0.2007  0.8172
51312SOL    HW258622   9.002   7.019   3.182  1.0891  0.6532 -0.9462
51313SOL     OW58623   1.710   0.987   4.454  0.3741  0.6126  0.2710
51313SOL    HW158624   1.676   0.982   4.365 -0.2681 -4.1485  0.5171
51313SOL    HW258625   1.633   1.003   4.509  0.2284  0.2835  0.1634
51314SOL     OW58626   5.512   6.189  10.802  0.5109  0.0389  0.0663
51314SOL    HW158627   5.544   6.102  10.778 -0.4119 -0.4726  0.6277
51314SOL    HW258628   5.567   6.215  10.877  2.0792  0.7992 -1.2812
51315SOL     OW58629   5.665  10.815   8.065 -0.9125 -0.6582  0.4303
51315SOL    HW158630   5.707  10.897   8.092 -1.1832 -0.7045  1.0169
51315SOL    HW258631   5.655  10.823   7.970 -0.5862 -0.1777  0.4328
51316SOL     OW58632   2.310   2.488   1.823  0.2631 -0.9669  0.3261
51316SOL    HW158633   2.395   2.518   1.792  0.5215 -1.0222  0.9614
51316SOL    HW258634   2.297   2.533   1.906 -0.4239 -0.8034  0.1356
51317SOL     OW58635   8.767   5.297   1.380  0.3032  0.1972 -0.1706
51317SOL    HW158636   8.806   5.249   1.453  0.6607  0.5259 -0.1458
51317SOL    HW258637   8.789   5.245   1.303 -1.3913 -0.9907  0.0905
51318SOL     OW58638   7.467  11.512   7.612 -0.3349 -0.2519  0.2425
51318SOL    HW158639   7.411  11.500   7.536  0.0537  2.3876 -0.5470
51318SOL    HW258640   7.535  11.573   7.583 -0.3087  1.0297  2.7378
51319SOL     OW58641   0.132   8.482   8.120  0.2919 -0.0683 -0.6606
51319SOL    HW158642   0.058   8.484   8.182  0.5843  1.6226 -0.3263
51319SOL    HW258643   0.175   8.398   8.138 -0.4733 -0.2630  0.4066
51320SOL     OW58644   4.008   2.262   8.690  0.0892  0.0072 -0.1392
51320SOL    HW158645   3.914   2.250   8.675 -0.2138  2.3077 -0.5505
51320SOL    HW258646   4.048   2.183   8.654 -1.6588 -0.8179 -0.3884
51321SOL     OW58647   6.736   8.345   8.797  0.4936 -0.1911 -0.1919
51321SOL    HW158648   6.819   8.335   8.843  1.3670  0.3655 -1.5758
51321SOL    HW258649   6.760   8.384   8.713 -0.9235 -1.9274 -1.4783
51322SOL     OW58650  11.867   9.426   4.511 -0.8283 -0.4037 -0.5624
51322SOL    HW158651  11.780   9.397   4.481 -0.6709  0.1490 -1.6013
51322SOL    HW258652  11.900   9.353   4.563 -1.9469 -0.5901 -0.0707
51323SOL     OW58653   5.551   2.103   4.377  0.5291  0.3073  0.2873
51323SOL    HW158654   5.485   2.164   4.343  1.2781  0.1377 -1.6200
51323SOL    HW258655   5.573   2.137   4.463 -1.4585  0.8102  0.6559
51324SOL     OW58656  11.833   8.641   7.772  0.0601  0.5394 -0.0044
51324SOL    HW158657  11.758   8.625   7.715 -0.2418  0.8484  0.2949
51324SOL    HW258658  11.909   8.638   7.714 -0.2547  1.0211 -0.4487
51325SOL     OW58659  10.305   6.481   7.339  0.3878  0.0940 -0.1403
51325SOL    HW158660  10.393   6.517   7.344  0.8962 -1.2069  1.9056
51325SOL    HW258661  10.257   6.526   7.408 -0.5329  0.6846 -1.1455
51326SOL     OW58662  11.845   2.455  10.477  0.2440  0.1989 -0.1780
51326SOL    HW158663  11.764   2.416  10.510 -0.1583 -0.6645 -2.0644
51326SOL    HW258664  11.915   2.400  10.513 -0.0220  0.5452  0.9056
51327SOL     OW58665  10.669  10.807  10.908 -0.5710 -0.7265 -0.2482
51327SOL    HW158666  10.689  10.717  10.933 -0.7810 -1.2464 -1.8507
51327SOL    HW258667  10.714  10.861  10.973  1.4472 -1.9485 -0.5719
51328SOL     OW58668   2.317   8.826   1.003  0.1441  0.4522  0.0509
51328SOL    HW158669   2.235   8.776   0.994  0.4828 -0.0648 -0.2275
51328SOL    HW258670   2.313   8.891   0.932 -0.9116  1.7262  1.2282
51329SOL     OW58671   9.545   5.540   2.049  0.2243 -0.1968  0.2450
51329SOL    HW158672   9.486   5.583   1.987 -0.4423  0.5570  1.3590
51329SOL    HW258673   9.616   5.603   2.061  0.1910 -0.2023  0.4715
51330SOL     OW58674   2.208  11.931  11.831  0.1185  0.5637 -0.8596
51330SOL    HW158675   2.219  11.917  11.737  0.2834 -2.4136 -0.4769
51330SOL    HW258676   2.297  11.940  11.865  0.2063 -0.8822 -0.6820
51331SOL     OW58677   1.646   5.235   2.806  0.4248 -0.3632 -0.0494
51331SOL    HW158678   1.686   5.159   2.765 -0.0877  0.2395 -1.7438
51331SOL    HW258679   1.591   5.198   2.875  0.6487 -1.4832 -0.4484
51332SOL     OW58680   2.629  11.955   0.188  0.1310  0.6648 -0.2479
51332SOL    HW158681   2.588  11.970   0.273 -0.3391 -0.5821 -0.2384
51332SOL    HW258682   2.716  11.920   0.209 -0.1934 -0.1704 -0.2708
51333SOL     OW58683   8.793   1.421   2.353  0.0516 -0.4239 -0.1221
51333SOL    HW158684   8.827   1.442   2.267  0.0337 -0.9853 -0.2704
51333SOL    HW258685   8.867   1.435   2.413  0.9377 -2.7764 -0.5801
51334SOL     OW58686   8.081   1.050   7.127  0.0847  0.3318  0.0996
51334SOL    HW158687   8.116   1.082   7.210 -2.1148 -0.8716  1.5879
51334SOL    HW258688   8.013   1.112   7.103 -0.6180 -0.3742  0.2350
51335SOL     OW58689   1.907  11.091   5.674 -0.3769  0.6355  0.2144
51335SOL    HW158690   1.859  11.089   5.757 -1.5964  1.9316 -0.4161
51335SOL    HW258691   1.909  11.184   5.650 -1.3801  0.1728 -1.9210
51336SOL     OW58692   8.067   7.850   8.134  0.2360  0.9345 -0.5170
51336SOL    HW158693   8.104   7.882   8.216  1.1273  1.2218 -1.0199
51336SOL    HW258694   8.040   7.930   8.087 -2.0690  0.7081  0.2857
51337SOL     OW58695   6.272  11.146   0.800  0.4685  0.0521  0.0696
51337SOL    HW158696   6.316  11.231   0.811  0.5555  0.0127  0.0205
51337SOL    HW258697   6.330  11.096   0.744  0.4810 -0.0893  0.2098
51338SOL     OW58698   7.588   3.241   2.483 -0.0226 -0.1707  0.1390
51338SOL    HW158699   7.499   3.275   2.471  0.6238  1.2519 -0.9631
51338SOL    HW258700   7.590   3.161   2.431 -0.7917 -0.4912  0.5821
51339SOL     OW58701   9.964   9.801  11.499 -0.3082  0.2040 -0.6513
51339SOL    HW158702   9.920   9.833  11.577 -0.8980  0.3799 -1.0440
51339SOL    HW258703   9.986   9.710  11.518 -0.0544  0.3755 -0.1223
51340SOL     OW58704   8.972   0.823   4.971  0.0564  0.6880  0.2337
51340SOL    HW158705   9.035   0.785   5.032  0.3755 -0.0266 -0.5306
51340SOL    HW258706   9.019   0.830   4.888 -0.8531  0.1462 -0.3500
51341SOL     OW58707   8.172   0.547   3.262  0.1170  0.4266  0.6208
51341SOL    HW158708   8.252   0.596   3.283  1.4479 -1.0920 -0.6763
51341SOL    HW258709   8.103   0.593   3.310  1.2080  3.7060 -0.7030
51342SOL     OW58710  11.838   3.745  11.458 -0.0181 -0.1229 -0.5253
51342SOL    HW158711  11.869   3.801  11.529  0.4522 -1.1910  0.1473
51342SOL    HW258712  11.742   3.748  11.466 -0.0002  0.5421 -0.4851
51343SOL     OW58713   9.280   9.210   0.567 -0.2217  0.4614 -0.8126
51343SOL    HW158714   9.352   9.211   0.503 -0.4111 -1.0748 -1.0791
51343SOL    HW258715   9.214   9.269   0.530  0.3559  0.8803 -1.2003
51344SOL     OW58716   0.593  11.303   6.913  0.4388  0.2121  0.8231
51344SOL    HW158717   0.678  11.258   6.913 -0.4144 -1.4835  0.8134
51344SOL    HW258718   0.608  11.382   6.965  2.2150  0.3683  0.1496
51345SOL     OW58719   4.716   0.365   6.979  0.0297  0.3562 -0.4144
51345SOL    HW158720   4.641   0.424   6.991 -0.3358 -0.1827  0.0026
51345SOL    HW258721   4.792   0.421   6.994 -0.3288  0.1696  2.9362
51346SOL     OW58722   1.822   6.776   8.077  0.2289 -0.3455  0.0788
51346SOL    HW158723   1.916   6.789   8.069  0.2056 -0.5701 -0.6391
51346SOL    HW258724   1.794   6.748   7.990 -0.6101  0.4011  0.0971
51347SOL     OW58725   0.228   6.709  10.151  0.1268 -0.0624 -0.0184
51347SOL    HW158726   0.298   6.766  10.118  1.3958 -1.0731  0.8257
51347SOL    HW258727   0.273   6.646  10.207 -1.3252 -1.4442 -0.3363
51348SOL     OW58728   1.576   5.180   0.435  0.5863 -0.0165  0.4623
51348SOL    HW158729   1.545   5.185   0.345  0.6966 -1.5185  0.3168
51348SOL    HW258730   1.557   5.267   0.472 -1.6887 -0.1396 -0.2892
51349SOL     OW58731   2.970   9.227   4.140  0.4102  0.1117  0.6228
51349SOL    HW158732   3.044   9.179   4.102 -0.1587 -0.0138 -0.3473
51349SOL    HW258733   2.961   9.189   4.228 -0.1889 -1.7810 -0.2022
51350SOL     OW58734   0.407   0.004   7.904 -1.0292  0.0398 -0.5237
51350SOL    HW158735   0.333  -0.052   7.927 -0.4198  0.0285  1.6344
51350SOL    HW258736   0.484  -0.051   7.919 -0.4741  1.0380  0.4490
51351SOL     OW58737   6.142   8.830   0.552  0.6228 -0.7783  0.3483
51351SOL    HW158738   6.172   8.825   0.643  1.0914 -0.4236  0.2157
51351SOL    HW258739   6.123   8.923   0.538 -1.9184 -1.1533  0.8631
51352SOL     OW58740  11.978  10.288  11.015 -0.3569 -0.2503  0.0949
51352SOL    HW158741  12.001  10.300  11.107  1.7936 -0.0568 -0.4250
51352SOL    HW258742  11.882  10.284  11.015 -0.3711 -1.6723  2.4940
51353SOL     OW58743   7.991   0.977   0.132 -0.0194 -0.5731 -0.4186
51353SOL    HW158744   7.923   1.025   0.086  0.8006 -1.0343 -2.2053
51353SOL    HW258745   7.959   0.970   0.222 -0.8499  1.9525 -0.4404
51354SOL     OW58746  10.309   1.774  10.574  0.1639 -0.1410  0.3699
51354SOL    HW158747  10.291   1.680  10.578  3.5188 -0.8739  1.1870
51354SOL    HW258748  10.262   1.811  10.649  0.7590 -1.5856  1.4963
51355SOL     OW58749   8.166   5.555  11.770 -0.0891  0.2376 -0.1368
51355SOL    HW158750   8.248   5.602  11.784  0.8372 -0.8106 -1.6923
51355SOL    HW258751   8.098   5.618  11.795  1.1580  1.1300  1.1902
51356SOL     OW58752   9.970   1.067  10.741  0.0419  0.0028 -0.1095
51356SOL    HW158753   9.952   1.073  10.647  1.8128 -0.6275 -0.5290
51356SOL    HW258754  10.034   0.997  10.749  0.9246  0.9132  1.4157
51357SOL     OW58755  11.972   5.186   3.561 -0.1288 -0.1957  0.1862
51357SOL    HW158756  11.948   5.137   3.482 -3.8436 -1.3840  1.8281
51357SOL    HW258757  11.896   5.243   3.578  2.1018  2.7846  0.9790
51358SOL     OW58758   5.559   0.745   5.373  0.6279  0.2914 -0.4215
51358SOL    HW158759   5.532   0.830   5.338  0.5619 -0.7128 -3.0610
51358SOL    HW258760   5.484   0.715   5.424  0.0421  1.1249 -0.7712
51359SOL     OW58761   3.929   1.876   6.788 -0.0285 -0.0034  0.3338
51359SOL    HW158762   4.010   1.923   6.810 -0.2046 -0.1701  1.4155
51359SOL    HW258763   3.935   1.794   6.837 -1.1088  0.2363  0.8989
51360SOL     OW58764   5.979   3.438   6.133 -0.9376  0.5878 -0.3693
51360SOL    HW158765   5.960   3.345   6.118  1.2728  0.3628 -2.4179
51360SOL    HW258766   5.978   3.477   6.045  1.1133  1.8322  0.0982
51361SOL     OW58767  10.994   2.273   5.320  0.3602 -0.8531 -0.1719
51361SOL    HW158768  10.898   2.273   5.322  0.3594 -1.0133 -0.1264
51361SOL    HW258769  11.019   2.231   5.402  0.5874  4.0927  2.6742
51362SOL     OW58770   5.026   6.853   5.564 -0.4496 -0.3253 -0.1655
51362SOL    HW158771   5.048   6.923   5.627  1.2717 -0.0005 -1.0576
51362SOL    HW258772   5.066   6.774   5.602 -1.2749 -0.5737  0.1996
51363SOL     OW58773   3.313   6.923   0.662  0.0129 -0.2880  0.4710
51363SOL    HW158774   3.225   6.908   0.696 -0.7392 -1.0524 -1.6517
51363SOL    HW258775   3.345   6.836   0.638  1.7266 -0.1359  1.9295
51364SOL     OW58776  10.810  11.360   1.928  0.1675  0.0158  0.0047
51364SOL    HW158777  10.897  11.387   1.959 -0.9934  0.4678  3.1946
51364SOL    HW258778  10.766  11.442   1.906  0.5788 -0.2316 -1.9345
51365SOL     OW58779   6.448   5.432  10.680  0.3114 -0.0288  0.2278
51365SOL    HW158780   6.461   5.366  10.612 -1.4133  0.3927 -0.5781
51365SOL    HW258781   6.361   5.413  10.715  0.3029  1.0574  0.8445
51366SOL     OW58782  10.669   7.619   7.334  0.4357 -0.2773  1.0343
51366SOL    HW158783  10.738   7.682   7.356  0.9019 -0.7015  0.8041
51366SOL    HW258784  10.640   7.585   7.419 -2.4162  2.8656  1.5693
51367SOL     OW58785   3.118  11.635   2.240 -0.0022 -0.4122 -0.1818
51367SOL    HW158786   3.049  11.594   2.188 -0.5738  0.5525 -0.1962
51367SOL    HW258787   3.194  11.577   2.228 -1.3267 -2.6585  1.5043
51368SOL     OW58788   3.506   7.860  11.059  0.2749 -0.3519 -0.2480
51368SOL    HW158789   3.581   7.857  11.000 -0.6595  0.8190 -1.6079
51368SOL    HW258790   3.446   7.794  11.025 -1.9250  2.8065 -3.2251
51369SOL     OW58791   1.507   2.426   5.986  0.1045 -0.1666 -0.3591
51369SOL    HW158792   1.591   2.385   6.008 -0.9284 -2.6152 -0.6357
51369SOL    HW258793   1.520   2.464   5.899  0.8897 -0.6920 -0.4807
51370SOL     OW58794  10.223  10.199   6.354  0.6502 -0.1784 -0.3567
51370SOL    HW158795  10.141  10.248   6.346  0.4503 -0.6871 -1.6117
51370SOL    HW258796  10.224  10.170   6.445  1.1633  2.7800  0.7013
51371SOL     OW58797   0.749  11.374   4.305  0.0288  0.1293  0.1625
51371SOL    HW158798   0.751  11.279   4.293  0.1559 -0.0955  1.7659
51371SOL    HW258799   0.697  11.406   4.231 -1.1856 -1.3145  0.3387
51372SOL     OW58800   7.502   0.932   0.458 -0.0820 -0.0839  0.0097
51372SOL    HW158801   7.460   0.906   0.540  0.4805  0.1626  0.3847
51372SOL    HW258802   7.493   1.027   0.454 -0.8168 -0.1665 -0.6222
51373SOL     OW58803   4.847   1.050   6.361 -0.3515 -0.1081 -0.1417
51373SOL    HW158804   4.863   0.957   6.344 -0.1286  0.1410 -1.3757
51373SOL    HW258805   4.824   1.054   6.454 -2.2220 -1.6535 -0.4617
51374SOL     OW58806   0.695  10.287   0.260 -0.0302 -0.7624 -0.3663
51374SOL    HW158807   0.687  10.302   0.354  0.1765  1.3582 -0.6356
51374SOL    HW258808   0.638  10.211   0.243  0.9028 -1.9919  1.6190
51375SOL     OW58809  11.986   7.273   5.056 -0.4009  0.4573 -0.1086
51375SOL    HW158810  11.977   7.351   5.002 -1.0893  0.0931 -0.5505
51375SOL    HW258811  12.069   7.283   5.101 -0.3019  1.2559 -0.4602
51376SOL     OW58812   2.987   1.067   7.982  0.5050 -0.5541  0.3167
51376SOL    HW158813   2.934   1.015   7.922  0.3790 -0.1007  0.0258
51376SOL    HW258814   2.923   1.117   8.033  0.6522  0.7158 -0.6926
51377SOL     OW58815   7.619   3.907   1.896 -0.0436 -0.1003  0.0678
51377SOL    HW158816   7.694   3.907   1.956  0.7474 -0.2499 -0.8869
51377SOL    HW258817   7.644   3.846   1.827 -1.2832 -0.5587  0.0010
51378SOL     OW58818   6.309  11.810   7.550 -0.0866  0.1117  0.2976
51378SOL    HW158819   6.311  11.881   7.486 -1.4193  0.2537  0.3968
51378SOL    HW258820   6.241  11.751   7.520  0.1713 -0.5061  0.8834
51379SOL     OW58821   4.410   2.375   2.430 -0.0922 -0.1123  0.7342
51379SOL    HW158822   4.504   2.361   2.440  0.1491  1.6523  1.3601
51379SOL    HW258823   4.400   2.470   2.434 -1.7712 -0.1799 -0.6409
51380SOL     OW58824   2.759   1.666  10.888  0.4547  0.4318  0.1389
51380SOL    HW158825   2.706   1.724  10.833  1.8066  1.3490 -0.2539
51380SOL    HW258826   2.702   1.642  10.961 -0.6415  1.0031 -0.5164
51381SOL     OW58827   3.843   6.388   0.029 -0.5113 -0.1714 -0.2477
51381SOL    HW158828   3.848   6.370   0.123  0.4666  3.5740  0.5868
51381SOL    HW258829   3.929   6.366  -0.005 -0.5509 -0.5945 -0.0816
51382SOL     OW58830   1.815   7.188   5.581 -0.0744  0.8136 -0.0647
51382SOL    HW158831   1.793   7.108   5.630  1.7182  0.4894  0.2892
51382SOL    HW258832   1.731   7.219   5.547 -1.2584  0.4240  2.2596
51383SOL     OW58833  11.485   8.721  11.354 -0.1859  0.4867  0.1370
51383SOL    HW158834  11.554   8.767  11.306  0.4773 -0.2293  0.3729
51383SOL    HW258835  11.529   8.643  11.389 -0.6714  0.9116  1.7882
51384SOL     OW58836   4.085   9.773   1.916 -0.4205 -0.2127 -0.3227
51384SOL    HW158837   4.169   9.727   1.928 -0.1020  0.4246 -0.0656
51384SOL    HW258838   4.020   9.710   1.945  0.0688 -0.2255  0.8357
51385SOL     OW58839   7.417   8.238   0.684 -0.2330 -0.5458 -0.1616
51385SOL    HW158840   7.439   8.326   0.715 -1.7902 -0.0581 -0.3384
51385SOL    HW258841   7.322   8.233   0.694 -0.2055 -2.0691 -0.5376
51386SOL     OW58842   9.934   8.700   6.210 -0.6163  0.4862  0.1822
51386SOL    HW158843   9.957   8.759   6.138  0.3549  0.6215  0.5940
51386SOL    HW258844   9.841   8.680   6.196 -0.6615  1.2093 -0.6003
51387SOL     OW58845   5.528   7.609  10.031 -0.2810 -0.4753  0.0121
51387SOL    HW158846   5.622   7.603  10.016  0.0877  0.4781  1.6782
51387SOL    HW258847   5.501   7.518  10.045  0.2898 -0.8030 -0.8960
51388SOL     OW58848   7.226   6.357   1.392  0.2459 -0.4106 -0.1786
51388SOL    HW158849   7.298   6.295   1.401  0.7768  0.2950  0.6347
51388SOL    HW258850   7.196   6.372   1.481  0.4326  0.8345 -0.3063
51389SOL     OW58851   4.465   1.953   4.575  0.3959 -0.2949  0.1122
51389SOL    HW158852   4.372   1.975   4.582  0.0237 -1.7159 -0.1214
51389SOL    HW258853   4.491   1.989   4.490  0.7847  2.4534  1.2799
51390SOL     OW58854   1.752  11.484   1.299  0.1061  0.2435  0.2709
51390SOL    HW158855   1.809  11.557   1.273 -0.1441 -0.0665 -1.2518
51390SOL    HW258856   1.811  11.411   1.313  0.6488  1.1979  4.1310
51391SOL     OW58857   0.675   2.931   8.490  0.9695  0.1398  0.2975
51391SOL    HW158858   0.717   2.879   8.421 -0.3240  0.0535 -0.4469
51391SOL    HW258859   0.664   2.869   8.562 -0.7637 -0.7294 -0.6620
51392SOL     OW58860   3.019   2.485   7.649  0.3264  0.5352 -0.0015
51392SOL    HW158861   2.960   2.472   7.576  0.0823 -0.0288  0.2950
51392SOL    HW258862   2.983   2.433   7.720 -0.2809  2.2381  1.0030
51393SOL     OW58863   4.313  10.704   4.677  0.0609  0.3594 -0.5770
51393SOL    HW158864   4.322  10.734   4.586  3.8442  2.3928  0.2485
51393SOL    HW258865   4.286  10.782   4.725  0.4836 -0.0473  0.3467
51394SOL     OW58866   9.193   4.668   0.889 -0.3394  0.3862 -0.1620
51394SOL    HW158867   9.219   4.583   0.926  0.2683  0.4881 -0.3511
51394SOL    HW258868   9.233   4.669   0.802 -0.9183  0.5790 -0.4306
51395SOL     OW58869   0.756   1.945   6.895  0.1517 -0.3098 -0.0039
51395SOL    HW158870   0.724   1.855   6.891  0.4678 -0.3865 -1.3829
51395SOL    HW258871   0.831   1.941   6.954  0.3032 -1.0090 -0.2276
51396SOL     OW58872   3.581  10.920   4.716  0.3776 -0.2081  0.2722
51396SOL    HW158873   3.624  10.835   4.709 -0.6455 -0.8458  1.4109
51396SOL    HW258874   3.543  10.935   4.630 -0.8425 -1.6979  0.5176
51397SOL     OW58875   0.121   8.234   2.816  0.7954  0.0789  0.1439
51397SOL    HW158876   0.105   8.242   2.910 -0.9264  1.2523 -0.2245
51397SOL    HW258877   0.198   8.176   2.810  2.0465  1.3836  2.3190
51398SOL     OW58878   6.789   8.235   7.852 -0.3272  0.3658  0.4543
51398SOL    HW158879   6.847   8.176   7.901 -1.9425 -2.1122 -0.4489
51398SOL    HW258880   6.831   8.245   7.766  0.7438  1.9217  1.1015
51399SOL     OW58881   2.876   6.275   0.745  0.3959  0.5871 -0.7763
51399SOL    HW158882   2.825   6.200   0.775  0.9559  0.3415 -0.4163
51399SOL    HW258883   2.896   6.257   0.654  1.4241 -0.2091 -0.4020
51400SOL     OW58884   7.571   0.159   6.885  0.3131  0.4283  0.1295
51400SOL    HW158885   7.590   0.253   6.883 -1.9298  0.9305 -2.0681
51400SOL    HW258886   7.502   0.149   6.950  0.5462  0.2803  0.3587
51401SOL     OW58887   3.519   9.852   6.144  0.1753  0.4646 -0.1000
51401SOL    HW158888   3.425   9.862   6.159 -0.0611 -0.1033 -1.1546
51401SOL    HW258889   3.539   9.915   6.075  0.3008 -0.4012 -0.8542
51402SOL     OW58890   7.743  11.167   4.217  0.3008 -0.1575 -0.6732
51402SOL    HW158891   7.710  11.109   4.149  2.4179  0.6066 -2.4798
51402SOL    HW258892   7.708  11.132   4.299  0.2408 -3.0300 -1.8316
51403SOL     OW58893   9.468   6.197  11.868  0.3134 -1.0578  0.2659
51403SOL    HW158894   9.545   6.166  11.820 -0.7704 -1.4014 -1.3636
51403SOL    HW258895   9.411   6.234  11.800 -0.8704 -0.6185  1.4461
51404SOL     OW58896   0.717   9.810   3.477 -0.2154  0.2856  0.0959
51404SOL    HW158897   0.706   9.899   3.511  1.8017  0.5761  0.1375
51404SOL    HW258898   0.655   9.803   3.405 -1.4331  1.2043  1.0160
51405SOL     OW58899   0.887   0.872   0.877  0.0749  0.2059 -0.2215
51405SOL    HW158900   0.936   0.913   0.949 -0.3265 -0.7735  0.6322
51405SOL    HW258901   0.950   0.811   0.837  0.4419  1.0886 -1.0139
51406SOL     OW58902   5.666   2.233   0.012 -0.4133 -0.3832 -0.0763
51406SOL    HW158903   5.597   2.186   0.058 -0.5852  0.0296  0.0948
51406SOL    HW258904   5.684   2.309   0.067 -0.1299 -0.2565 -0.3418
51407SOL     OW58905   1.909  10.035   5.990  0.4320  0.0420 -0.1889
51407SOL    HW158906   1.941  10.013   6.077 -1.0017 -1.5491 -0.0262
51407SOL    HW258907   1.827  10.081   6.006  0.9950  1.2685 -0.6837
51408SOL     OW58908   8.636   4.567   3.900 -0.3203 -0.5990  0.6251
51408SOL    HW158909   8.632   4.479   3.937 -0.5723 -2.1843 -2.7568
51408SOL    HW258910   8.544   4.590   3.884 -0.1761 -1.0180 -1.0423
51409SOL     OW58911   2.823   0.812   3.622  0.3239 -0.3372 -0.7262
51409SOL    HW158912   2.813   0.721   3.593 -1.7185  0.0739 -1.4558
51409SOL    HW258913   2.868   0.805   3.707 -2.2763 -2.2588  0.6419
51410SOL     OW58914   8.829   6.063   4.604 -0.1685 -0.0728 -0.0301
51410SOL    HW158915   8.866   6.113   4.676 -0.9834 -0.5739  0.7606
51410SOL    HW258916   8.884   6.083   4.529  0.3177  0.9458  0.5909
51411SOL     OW58917  10.793  11.875   9.934  0.1340 -0.4699 -0.6967
51411SOL    HW158918  10.810  11.786   9.963 -4.0286 -1.3654 -0.4969
51411SOL    HW258919  10.723  11.907   9.991  0.2488  2.3021 -1.9132
51412SOL     OW58920   6.025  10.509   3.852  0.1764  0.0228  0.3523
51412SOL    HW158921   6.084  10.566   3.802 -0.8857 -0.0301 -1.0210
51412SOL    HW258922   6.071  10.426   3.857  0.5732  0.2154  0.0045
51413SOL     OW58923   1.819   1.811   9.501  0.0314 -0.2021  0.0572
51413SOL    HW158924   1.902   1.803   9.547  0.0080 -1.2310 -0.0587
51413SOL    HW258925   1.831   1.885   9.441  0.7039 -0.0703  0.3536
51414SOL     OW58926   6.293   6.072   1.816 -0.3613  0.5180  0.3751
51414SOL    HW158927   6.347   5.999   1.786 -1.1175  0.3042 -0.4873
51414SOL    HW258928   6.321   6.086   1.907  1.5564  0.7907 -0.1946
51415SOL     OW58929   7.309   1.870   7.192  0.1334 -0.1564  0.1331
51415SOL    HW158930   7.279   1.880   7.282  0.5993  0.6776  0.2113
51415SOL    HW258931   7.396   1.831   7.200  0.3211  0.2398  0.0709
51416SOL     OW58932   3.618   9.862   5.356 -0.3737  0.2606  0.5007
51416SOL    HW158933   3.610   9.917   5.278 -1.3524  0.4939  0.7490
51416SOL    HW258934   3.646   9.777   5.323  2.6812  1.2633  0.2572
51417SOL     OW58935   1.909  10.362   4.309  0.2689  0.2136 -0.6816
51417SOL    HW158936   1.898  10.449   4.347  0.2891  0.4060 -1.1181
51417SOL    HW258937   1.826  10.317   4.325  1.1976 -0.7112  2.1630
51418SOL     OW58938   2.312   2.956  10.243  0.4905  0.5218  0.7453
51418SOL    HW158939   2.286   2.880  10.297 -2.2435  1.1375  0.4456
51418SOL    HW258940   2.252   3.025  10.270  0.7836  1.6171 -1.2778
51419SOL     OW58941  11.296  10.440   7.830 -0.1691 -0.0262 -0.1401
51419SOL    HW158942  11.337  10.525   7.851  0.8032 -1.1754  3.3139
51419SOL    HW258943  11.219  10.436   7.886  0.4455 -1.8749  0.6211
51420SOL     OW58944   0.139   0.857   1.942 -0.6263 -0.8412 -0.0233
51420SOL    HW158945   0.226   0.825   1.962 -0.7980 -1.8726 -0.8630
51420SOL    HW258946   0.100   0.877   2.027  0.3879 -0.4400  0.3596
51421SOL     OW58947   1.866  10.698   3.205  0.1799 -0.0880  0.9646
51421SOL    HW158948   1.928  10.635   3.241  1.1224  1.0221  1.3668
51421SOL    HW258949   1.831  10.744   3.282 -0.6007 -0.2038  0.6898
51422SOL     OW58950   8.412   7.275   3.146 -0.0648 -0.0891  0.0474
51422SOL    HW158951   8.481   7.221   3.184 -0.3261  0.3292  1.1603
51422SOL    HW258952   8.425   7.362   3.185  0.4105  0.7121 -1.7749
51423SOL     OW58953   7.437   9.921   2.649 -0.2004 -0.1443  0.2479
51423SOL    HW158954   7.350   9.944   2.681  0.1206 -0.9630  1.8420
51423SOL    HW258955   7.487   9.901   2.729  1.8078  1.4712 -0.5077
51424SOL     OW58956   8.281   4.906   8.690 -0.1146  0.1293  0.4402
51424SOL    HW158957   8.375   4.897   8.673 -0.1173  1.9661 -0.7630
51424SOL    HW258958   8.265   4.850   8.766  1.7190 -1.1180 -0.0331
51425SOL     OW58959   7.628  10.214   9.116 -0.5923 -0.2531  0.1342
51425SOL    HW158960   7.723  10.199   9.109 -0.8866 -2.6510  0.5231
51425SOL    HW258961   7.597  10.215   9.026 -0.6198 -3.0636  0.0323
51426SOL     OW58962   0.066   7.401   4.635  0.1142 -0.1594 -0.0712
51426SOL    HW158963   0.129   7.360   4.694 -0.5149  0.0118  0.7378
51426SOL    HW258964   0.105   7.393   4.548  1.2697 -0.0072  0.4215
51427SOL     OW58965   9.629  11.492   2.181  0.5255  0.1172 -0.0417
51427SOL    HW158966   9.623  11.543   2.100 -0.4258  0.2390  0.0916
51427SOL    HW258967   9.618  11.556   2.251 -0.2507 -0.2060  0.1394
51428SOL     OW58968   4.815   0.513   3.353  0.0284 -0.1882  0.0354
51428SOL    HW158969   4.755   0.438   3.352  0.6191 -0.6890  0.7571
51428SOL    HW258970   4.890   0.482   3.404  0.3734  0.8323  0.1589
51429SOL     OW58971   5.508   5.709   1.192  0.1740  0.1696 -0.5117
51429SOL    HW158972   5.429   5.655   1.194 -1.5857  2.5762 -1.0885
51429SOL    HW258973   5.576   5.649   1.160 -1.7532 -1.5761 -1.6642
51430SOL     OW58974   1.230  10.054   6.944 -0.4980 -0.3998  0.0355
51430SOL    HW158975   1.227  10.074   7.038 -1.5179 -0.3120  0.0002
51430SOL    HW258976   1.183  10.127   6.903  0.0551 -0.3672 -0.5629
51431SOL     OW58977   6.687   8.757   8.587 -0.1205  0.6028  0.5634
51431SOL    HW158978   6.613   8.818   8.598 -0.6745 -0.0648  0.5746
51431SOL    HW258979   6.648   8.677   8.552  0.9485  1.1411 -2.1561
51432SOL     OW58980   1.138   4.693   9.294  0.1755 -0.3662 -0.2439
51432SOL    HW158981   1.198   4.627   9.259 -0.8295 -0.2909 -2.2268
51432SOL    HW258982   1.079   4.644   9.352  0.9031 -0.7654  0.1820
51433SOL     OW58983   4.946  11.966   5.174  0.4224  0.7082 -0.3101
51433SOL    HW158984   4.888  12.017   5.116 -0.2795 -0.7143 -0.9027
51433SOL    HW258985   5.015  12.028   5.199 -0.2155  1.8515 -1.2733
51434SOL     OW58986   4.270   8.066  10.854  0.2873 -0.2040  0.0661
51434SOL    HW158987   4.260   8.138  10.793  2.3641  0.1222  0.0661
51434SOL    HW258988   4.332   8.006  10.812 -1.0234 -1.8015  0.2729
51435SOL     OW58989   5.531   9.654   0.738  0.4017 -0.2403 -0.5279
51435SOL    HW158990   5.511   9.680   0.828  1.2560 -0.5400 -0.2368
51435SOL    HW258991   5.471   9.705   0.684  0.1946  0.2902  0.1845
51436SOL     OW58992   4.546   3.306   0.985  0.4068  0.2733  0.2828
51436SOL    HW158993   4.532   3.400   0.993  0.3389  0.3656 -0.8623
51436SOL    HW258994   4.641   3.295   0.994  0.6529  0.6738 -1.4950
51437SOL     OW58995   5.618  11.241   5.263 -0.0514 -0.1444  0.3162
51437SOL    HW158996   5.531  11.274   5.242  0.3217  0.2765 -0.6460
51437SOL    HW258997   5.606  11.189   5.342 -1.2298 -0.3661  0.0069
51438SOL     OW58998   4.705  11.462   0.155  0.1595  0.5257  0.0625
51438SOL    HW158999   4.794  11.487   0.131 -0.0721  1.0144 -0.3049
51438SOL    HW259000   4.650  11.497   0.085 -0.4060  0.9376  0.6933
51439SOL     OW59001   4.130   6.462   6.683 -0.1855  0.2497 -0.5589
51439SOL    HW159002   4.190   6.445   6.755 -2.2148  0.1082  1.1839
51439SOL    HW259003   4.062   6.396   6.692 -0.5553  0.2989 -2.5752
51440SOL     OW59004   8.325   1.607   1.214 -0.1690 -0.0465  0.2249
51440SOL    HW159005   8.291   1.626   1.126 -2.6140 -0.3015  1.0392
51440SOL    HW259006   8.419   1.599   1.201 -0.2460  1.5591 -2.0807
51441SOL     OW59007   6.499   8.550   2.463 -0.0877  0.2779 -0.2067
51441SOL    HW159008   6.457   8.562   2.378 -0.9079  0.3338  0.1947
51441SOL    HW259009   6.454   8.612   2.521 -0.4290 -0.6474  0.5570
51442SOL     OW59010   6.474   1.540   4.781  0.0363 -0.7265  1.0431
51442SOL    HW159011   6.382   1.519   4.798  0.2349 -0.4100  2.7734
51442SOL    HW259012   6.472   1.625   4.738 -0.4693 -0.3441  1.8054
51443SOL     OW59013   0.953   6.471   4.919 -0.2645  0.1514  0.0587
51443SOL    HW159014   0.914   6.484   5.005  0.0915  0.6512  0.1441
51443SOL    HW259015   0.984   6.557   4.892 -0.5171  0.0314 -0.6429
51444SOL     OW59016   2.632  10.484   4.249  0.4016 -0.0588 -0.4799
51444SOL    HW159017   2.682  10.543   4.193  0.2465 -0.1736 -0.7399
51444SOL    HW259018   2.638  10.523   4.336  0.8723 -0.0264 -0.5238
51445SOL     OW59019  10.049   3.092   8.253 -0.7114 -0.0055 -0.4411
51445SOL    HW159020  10.006   3.096   8.168 -0.6532  1.4509 -0.4275
51445SOL    HW259021  10.107   3.168   8.254  0.3254 -0.7665  0.3679
51446SOL     OW59022   3.265   2.582   2.435  0.1783 -0.3850  0.6496
51446SOL    HW159023   3.261   2.664   2.484  0.9036 -0.6914  1.2533
51446SOL    HW259024   3.335   2.596   2.370  0.8380 -0.7694  1.2568
51447SOL     OW59025   2.017   3.395   8.038  0.3499 -0.1078  0.1818
51447SOL    HW159026   2.094   3.338   8.031  0.9242  0.7554 -1.0692
51447SOL    HW259027   1.976   3.371   8.120  3.0130  0.6741  1.8578
51448SOL     OW59028   3.733   5.997   8.597 -0.2147 -0.4325  0.0494
51448SOL    HW159029   3.823   6.027   8.583 -0.9717  1.9094 -0.2544
51448SOL    HW259030   3.741   5.903   8.612  2.1210 -0.5558 -1.4749
51449SOL     OW59031   4.155   2.998   6.144  0.5955  0.3699  0.1166
51449SOL    HW159032   4.144   2.945   6.223  2.2374 -3.8283 -2.1114
51449SOL    HW259033   4.246   3.028   6.148  0.7837 -0.1201 -0.2095
51450SOL     OW59034   0.436   8.318   4.492  0.2221  0.3448  0.7546
51450SOL    HW159035   0.376   8.372   4.543  0.1716 -0.1963  1.2728
51450SOL    HW259036   0.494   8.278   4.557 -0.0409 -0.6017  0.4243
51451SOL     OW59037   9.606   1.947   5.121  0.3763 -0.3515 -0.6344
51451SOL    HW159038   9.567   1.877   5.068 -2.0423  1.0154 -0.8234
51451SOL    HW259039   9.697   1.952   5.092  0.5463 -3.1079 -0.8878
51452SOL     OW59040   5.876   3.950   7.744  0.2655  0.0386  0.0048
51452SOL    HW159041   5.837   3.883   7.801 -1.2222 -0.7470 -1.8180
51452SOL    HW259042   5.970   3.941   7.758  0.0134 -1.3150  1.0534
51453SOL     OW59043   2.974   0.104   9.496  0.0672 -0.0803  0.3871
51453SOL    HW159044   2.984   0.026   9.442  1.6918  0.5212 -0.2344
51453SOL    HW259045   2.950   0.173   9.435  0.5844  0.3184  0.6227
51454SOL     OW59046   9.815  10.806   5.687  0.3297  0.3729  0.6072
51454SOL    HW159047   9.747  10.755   5.644  0.9568 -0.5876  0.7318
51454SOL    HW259048   9.777  10.894   5.695 -1.0507 -0.2427  1.0753
51455SOL     OW59049   1.404  10.147   2.476  0.5426  0.4605  0.0042
51455SOL    HW159050   1.402  10.232   2.432  0.2132  0.7797  0.6350
51455SOL    HW259051   1.312  10.127   2.493  0.6802  0.3896  0.6570
51456SOL     OW59052   5.653  10.564   0.303 -0.4377  0.4045 -0.1513
51456SOL    HW159053   5.713  10.546   0.231 -0.0421 -1.0383  0.5021
51456SOL    HW259054   5.601  10.639   0.273 -1.6138 -1.2905 -2.7850
51457SOL     OW59055   4.251  10.479   3.464 -0.0205  0.3406 -0.4137
51457SOL    HW159056   4.287  10.409   3.410  0.4358 -0.0965  0.4340
51457SOL    HW259057   4.220  10.435   3.543 -0.2158  1.0264 -0.1017
51458SOL     OW59058   2.070   6.143   8.197 -0.6547  0.4342  0.3590
51458SOL    HW159059   2.054   6.051   8.179 -0.5607  0.1222  1.7424
51458SOL    HW259060   2.053   6.152   8.291 -0.0648  1.6911  0.3640
51459SOL     OW59061  10.376   5.981   9.757 -0.0133  0.4603  0.0650
51459SOL    HW159062  10.339   5.938   9.834 -0.5417  0.9826  0.1120
51459SOL    HW259063  10.324   5.947   9.684 -0.5688  1.1584  0.1245
51460SOL     OW59064   6.264   9.933  10.864 -0.0272  0.3074  0.0036
51460SOL    HW159065   6.244   9.917  10.772 -0.6867  2.5827 -0.3002
51460SOL    HW259066   6.359   9.924  10.870 -0.0025 -0.1166 -0.8156
51461SOL     OW59067   0.087   1.140   5.734  0.2236  1.0033 -0.2512
51461SOL    HW159068   0.082   1.069   5.798  1.9622  0.1657 -0.9572
51461SOL    HW259069   0.006   1.134   5.684  0.8409 -1.3751 -1.1262
51462SOL     OW59070   2.698   9.251   8.705 -0.0653  0.0776  0.3545
51462SOL    HW159071   2.751   9.175   8.680  0.8314  0.5733  0.6716
51462SOL    HW259072   2.763   9.319   8.725 -0.8132  0.5529  1.2439
51463SOL     OW59073   3.585   6.580   3.081 -0.0377 -0.5594  0.2131
51463SOL    HW159074   3.566   6.610   3.170  0.3363 -0.0482  0.1298
51463SOL    HW259075   3.520   6.623   3.026  1.0737  0.9021 -0.0267
51464SOL     OW59076   4.949   0.790   8.597  0.0853  0.3543  0.0922
51464SOL    HW159077   4.887   0.742   8.653  0.3846 -0.5837 -0.3513
51464SOL    HW259078   4.893   0.843   8.540 -0.2323  1.0532  1.0412
51465SOL     OW59079   1.032   4.592   3.433  0.2640  0.0428  0.1912
51465SOL    HW159080   0.952   4.621   3.389  1.6035  1.2927 -1.5870
51465SOL    HW259081   1.032   4.497   3.423 -0.8072  0.0547 -0.0711
51466SOL     OW59082  10.509   9.831   8.290 -0.0363  0.2498  0.1632
51466SOL    HW159083  10.536   9.797   8.204 -1.7342  0.3839 -0.4594
51466SOL    HW259084  10.557   9.913   8.299  0.2444  0.1819 -0.6218
51467SOL     OW59085   4.943   5.173   3.798  0.5320 -0.3340  0.2431
51467SOL    HW159086   4.933   5.169   3.893 -1.1167 -3.2304  0.0681
51467SOL    HW259087   4.953   5.082   3.772 -0.0768  0.3029 -2.4755
51468SOL     OW59088   1.695   3.614   4.547  0.7219 -0.4624  0.4904
51468SOL    HW159089   1.654   3.667   4.615 -0.4069 -0.1359 -0.4095
51468SOL    HW259090   1.789   3.615   4.568  0.6521  1.3453  0.8540
51469SOL     OW59091   6.779   1.395   5.059  0.3123 -0.3911  0.0938
51469SOL    HW159092   6.783   1.344   5.140 -0.0436 -2.1767 -0.9619
51469SOL    HW259093   6.706   1.456   5.073  1.5863  0.8089  1.8948
51470SOL     OW59094   7.849   3.823   3.015  0.2421 -0.1913 -0.3107
51470SOL    HW159095   7.923   3.846   3.071 -1.3164  2.3068  0.9104
51470SOL    HW259096   7.865   3.872   2.934  0.6502 -0.8466 -0.6312
51471SOL     OW59097  10.195   1.227   4.786 -0.1735  0.1492 -0.3954
51471SOL    HW159098  10.199   1.193   4.875  0.2235 -0.1167 -0.5155
51471SOL    HW259099  10.217   1.319   4.795  0.8910 -0.1002 -0.3478
51472SOL     OW59100  11.596   8.690   0.461 -1.0951 -0.1590 -0.3746
51472SOL    HW159101  11.573   8.783   0.463  0.5656  0.3788 -2.4245
51472SOL    HW259102  11.512   8.644   0.466 -2.0162  1.4682 -0.3222
51473SOL     OW59103   1.111   9.981   4.324  0.2776  0.7144 -0.2160
51473SOL    HW159104   1.146   9.924   4.256 -1.2284  0.4342 -0.7881
51473SOL    HW259105   1.180   9.985   4.390  0.4629 -1.6955 -0.1909
51474SOL     OW59106   8.840  11.842   2.665 -0.6832  0.4470  0.3651
51474SOL    HW159107   8.823  11.902   2.738 -2.7984  0.1050  0.2314
51474SOL    HW259108   8.754  11.832   2.623  0.3543  0.1167 -1.7779
51475SOL     OW59109   6.821   4.199   8.819 -0.2638  0.1457 -0.0045
51475SOL    HW159110   6.836   4.227   8.728 -1.4817  2.2370  0.3590
51475SOL    HW259111   6.830   4.104   8.817  0.1859  0.1812 -2.2256
51476SOL     OW59112   5.539   8.420   2.284 -0.6656 -0.4443 -0.4417
51476SOL    HW159113   5.541   8.480   2.210  0.4311 -0.0897 -0.1364
51476SOL    HW259114   5.505   8.472   2.357 -0.6955 -0.4864 -0.4251
51477SOL     OW59115   8.912  11.994   5.358 -0.1634 -0.3190  0.2128
51477SOL    HW159116   8.866  12.029   5.281  0.9844  1.5182  0.3099
51477SOL    HW259117   8.962  11.920   5.323  0.3482  0.4906 -0.8224
51478SOL     OW59118  10.648   1.446   4.561  0.5943  0.2136 -0.0382
51478SOL    HW159119  10.650   1.353   4.539  0.4168  0.2778 -0.3243
51478SOL    HW259120  10.717   1.456   4.627 -0.2574 -0.3750  0.9880
51479SOL     OW59121  11.903   2.327   2.076 -0.3869  0.9871  0.4918
51479SOL    HW159122  11.928   2.301   1.987  1.0982  0.1796  1.1108
51479SOL    HW259123  11.943   2.413   2.087 -0.3649  0.9789  0.4752
51480SOL     OW59124   3.690   7.959   8.101 -0.2105  0.3602 -0.2837
51480SOL    HW159125   3.733   7.981   8.184  0.2534 -0.6476 -0.2494
51480SOL    HW259126   3.604   7.999   8.108  0.0682  0.8772  0.3965
51481SOL     OW59127   7.709  10.980   8.426 -0.7713 -0.2526  0.2767
51481SOL    HW159128   7.669  10.989   8.513  0.1784  1.2322  0.5849
51481SOL    HW259129   7.795  11.020   8.435 -0.6113 -0.1843 -1.3254
51482SOL     OW59130  11.154   5.788   6.306  0.3324  0.2995  0.6006
51482SOL    HW159131  11.149   5.797   6.211 -0.0033 -0.0842  0.5739
51482SOL    HW259132  11.111   5.866   6.340 -2.6908 -1.0865  0.3887
51483SOL     OW59133   7.646   6.081  11.863 -0.1915  0.3034 -0.0028
51483SOL    HW159134   7.605   6.156  11.820  0.2318  1.0060  0.8041
51483SOL    HW259135   7.600   6.005  11.827 -1.0372  0.9785 -0.3748
51484SOL     OW59136   2.647  10.561   4.509 -0.1610 -0.5853  0.2311
51484SOL    HW159137   2.684  10.639   4.550  0.0721 -0.4699 -0.1878
51484SOL    HW259138   2.631  10.501   4.581 -0.5973 -0.0458  0.5871
51485SOL     OW59139   9.707   7.071  10.886  0.3130  0.4953 -0.2522
51485SOL    HW159140   9.644   7.059  10.815  1.1178 -1.9561 -0.6331
51485SOL    HW259141   9.777   7.009  10.867  0.9530  0.3393  2.2636
51486SOL     OW59142   3.827   9.863   5.624 -0.2790  0.4089 -0.7638
51486SOL    HW159143   3.920   9.843   5.624 -0.4557 -0.5056 -1.9214
51486SOL    HW259144   3.818   9.934   5.560 -0.4871 -0.1707 -1.3950
51487SOL     OW59145   6.930   2.596   3.902  0.1629 -0.2386 -0.2768
51487SOL    HW159146   6.997   2.588   3.970  0.4434  2.3452 -0.1347
51487SOL    HW259147   6.849   2.570   3.945  0.5094  0.2762  0.7201
51488SOL     OW59148   1.979   4.560   7.761 -0.3550 -0.2968 -0.2193
51488SOL    HW159149   2.075   4.559   7.759 -0.3139  0.2646  0.8554
51488SOL    HW259150   1.953   4.480   7.715  0.6123 -0.1309 -1.1002
51489SOL     OW59151  10.987   0.274  10.929 -0.7071 -0.3209  0.8033
51489SOL    HW159152  10.968   0.245  10.840 -0.0165  1.3413  0.0610
51489SOL    HW259153  10.913   0.330  10.952  0.0365  0.8468  0.4683
51490SOL     OW59154   4.219   1.342   2.619  0.0367  0.0952 -0.5196
51490SOL    HW159155   4.314   1.332   2.611  0.1081  0.8172 -0.6414
51490SOL    HW259156   4.187   1.253   2.636  1.0251  0.1984  2.5392
51491SOL     OW59157   2.811   0.986   0.337  0.5255 -0.2359 -0.4132
51491SOL    HW159158   2.866   1.064   0.340  1.3014 -0.8004  0.8505
51491SOL    HW259159   2.721   1.019   0.338  0.8169  0.6848 -1.9894
51492SOL     OW59160   8.950   8.213   0.185 -0.0105  0.3402 -0.1285
51492SOL    HW159161   9.012   8.149   0.150 -0.0433 -0.0191  0.4576
51492SOL    HW259162   8.952   8.200   0.280 -2.6587 -1.2952 -0.1747
51493SOL     OW59163   4.929   6.005   9.965 -0.1905 -0.2142  0.4810
51493SOL    HW159164   4.940   5.911   9.978 -0.6913 -0.0388  2.5042
51493SOL    HW259165   4.980   6.045  10.034 -1.9249  0.9171  1.1820
51494SOL     OW59166  11.877   8.524   1.520  0.3993 -0.1244 -0.5250
51494SOL    HW159167  11.826   8.488   1.448 -0.4132  1.4445 -0.7932
51494SOL    HW259168  11.813   8.538   1.590  0.6757  0.7405 -0.4332
51495SOL     OW59169   2.484  11.727   1.506 -0.4839  0.1899  0.4170
51495SOL    HW159170   2.494  11.766   1.592  3.3810 -0.2616  0.3384
51495SOL    HW259171   2.494  11.633   1.521  0.7570  0.1500 -0.5381
51496SOL     OW59172   2.035   9.211   1.261  0.1217 -0.2322 -0.6621
51496SOL    HW159173   2.081   9.159   1.195 -1.2925 -0.0304 -1.8603
51496SOL    HW259174   1.993   9.281   1.211 -1.3272 -0.3144  0.4017
51497SOL     OW59175   6.675   8.031   9.046 -0.1724  0.0901 -0.3354
51497SOL    HW159176   6.744   7.985   9.095 -0.0201  0.8668  0.2059
51497SOL    HW259177   6.674   8.119   9.085 -0.4719  0.5327 -1.3309
51498SOL     OW59178   7.362   6.787  10.169 -0.6397 -0.2598  0.1220
51498SOL    HW159179   7.398   6.762  10.254  1.0642  0.5589 -0.3113
51498SOL    HW259180   7.312   6.710  10.140 -1.3026 -0.5277  1.8636
51499SOL     OW59181   2.494  10.511   3.922 -0.2830  0.0716  0.2019
51499SOL    HW159182   2.531  10.582   3.974  1.9976 -0.6538 -0.3210
51499SOL    HW259183   2.418  10.549   3.879  0.5622  2.0147  0.3546
51500SOL     OW59184   1.121   2.504   2.431  0.2853  0.4074 -0.1209
51500SOL    HW159185   1.145   2.597   2.436  1.4383  0.2350 -1.6261
51500SOL    HW259186   1.164   2.473   2.351 -3.2129 -0.5346 -1.8293
51501SOL     OW59187   3.567   3.971   0.678 -0.3664  0.7228  0.4817
51501SOL    HW159188   3.478   4.000   0.698 -0.9171 -0.9162  0.6053
51501SOL    HW259189   3.623   4.022   0.736 -1.1399  2.2590 -0.0655
51502SOL     OW59190   5.266   5.772   5.970 -0.6840  0.4510  0.5194
51502SOL    HW159191   5.230   5.690   6.004  0.9080 -0.9325 -0.9288
51502SOL    HW259192   5.317   5.808   6.043 -0.4620 -0.4507  0.8240
51503SOL     OW59193  10.082   0.655   7.300 -0.0798  0.3262  0.7037
51503SOL    HW159194  10.045   0.633   7.385 -0.0537 -0.6654  0.4644
51503SOL    HW259195  10.044   0.592   7.240  0.5184  0.5173  0.1128
51504SOL     OW59196   1.334   0.984   4.279  0.2436  0.4987  0.5910
51504SOL    HW159197   1.290   1.063   4.310 -0.8640 -0.2838  1.1168
51504SOL    HW259198   1.275   0.949   4.212  0.9765  0.3949 -0.0054
51505SOL     OW59199   3.628   7.846   8.667  0.3682 -0.2005  0.3204
51505SOL    HW159200   3.566   7.889   8.609  0.9120 -0.4707 -0.4736
51505SOL    HW259201   3.641   7.759   8.629  1.5235 -0.0130  0.2532
51506SOL     OW59202   4.089   0.142   7.058  0.0100  0.1569  0.0730
51506SOL    HW159203   4.008   0.121   7.011 -0.6602  1.5191  0.5504
51506SOL    HW259204   4.118   0.225   7.019  1.3548 -0.4527 -0.2915
51507SOL     OW59205   9.871   2.003   5.859 -0.2506  0.7820  0.3287
51507SOL    HW159206   9.881   2.026   5.767 -0.4165  3.3788  0.8917
51507SOL    HW259207   9.947   1.949   5.879  1.2333  2.3843 -0.7114
51508SOL     OW59208   1.869  11.297   8.703 -0.6617  0.0865  0.0686
51508SOL    HW159209   1.826  11.381   8.686 -0.6996 -0.1150 -0.9209
51508SOL    HW259210   1.950  11.301   8.653 -0.3887 -0.2378  0.4839
51509SOL     OW59211   7.415   7.382  11.843  0.1628  0.3483  0.3648
51509SOL    HW159212   7.350   7.313  11.857  0.1223  0.3055 -0.0171
51509SOL    HW259213   7.458   7.392  11.928  1.2217 -1.2233  0.0471
51510SOL     OW59214  11.293  10.118   9.231 -0.4853  0.1177  0.1448
51510SOL    HW159215  11.248  10.078   9.156  0.6739 -0.8828 -0.0469
51510SOL    HW259216  11.383  10.130   9.201 -0.2485  0.6642  1.0400
51511SOL     OW59217   7.502   2.359   8.989 -0.0035 -0.3502 -0.4287
51511SOL    HW159218   7.549   2.316   9.060 -2.0984 -0.5717  0.9353
51511SOL    HW259219   7.569   2.405   8.939  1.4264  1.4098  2.8075
51512SOL     OW59220  10.106   3.607   3.616  0.0054  0.0438 -0.0637
51512SOL    HW159221  10.068   3.533   3.663  0.0071  0.7713  1.1233
51512SOL    HW259222  10.199   3.587   3.608 -0.2240 -0.7183 -1.0077
51513SOL     OW59223   7.216   1.130   3.551 -0.0824  0.3238 -0.5619
51513SOL    HW159224   7.123   1.132   3.527 -0.0010  3.6330 -1.0595
51513SOL    HW259225   7.262   1.125   3.468  0.2605 -1.4925 -0.3067
51514SOL     OW59226   2.696   2.909   1.232 -0.2061 -0.2480 -0.0033
51514SOL    HW159227   2.738   2.977   1.180 -1.5701  0.5071 -0.1586
51514SOL    HW259228   2.672   2.952   1.314  2.2680 -1.5201  1.5011
51515SOL     OW59229   3.812   9.447   2.832 -0.4859 -0.3200 -0.2204
51515SOL    HW159230   3.815   9.543   2.835 -0.4381 -0.3015 -0.7210
51515SOL    HW259231   3.843   9.419   2.918 -2.3590  0.1440  0.6597
51516SOL     OW59232  10.182   9.247   2.468 -0.2939  0.3059  0.6215
51516SOL    HW159233  10.265   9.251   2.517 -0.3328  1.4449  0.6126
51516SOL    HW259234  10.208   9.229   2.378 -0.1728 -1.0481  0.9101
51517SOL     OW59235   3.177   8.266   4.894  0.1116 -0.1042 -0.4210
51517SOL    HW159236   3.109   8.333   4.885  0.8083  0.4892 -1.4826
51517SOL    HW259237   3.149   8.196   4.835 -0.6061 -0.7829  0.6735
51518SOL     OW59238   3.471  11.414   4.342 -0.3231  0.6685 -0.2374
51518SOL    HW159239   3.446  11.369   4.422  0.0380  0.4660 -0.2366
51518SOL    HW259240   3.392  11.413   4.288 -0.2632 -0.1529 -0.3198
51519SOL     OW59241   5.361   8.457   5.110 -0.2971 -0.1393 -0.7693
51519SOL    HW159242   5.447   8.416   5.104 -0.3050 -0.6821  1.7203
51519SOL    HW259243   5.375   8.535   5.164 -1.3910 -0.4693  0.0498
51520SOL     OW59244   1.656   3.293   7.959  0.2923 -0.6547  0.2241
51520SOL    HW159245   1.621   3.309   7.872 -0.6710 -1.8394  0.3712
51520SOL    HW259246   1.700   3.208   7.954  0.7598 -0.4555  0.7423
51521SOL     OW59247   7.531   1.257   8.557  0.3232 -0.5292  0.3103
51521SOL    HW159248   7.489   1.261   8.643 -0.3531 -0.5435 -0.0113
51521SOL    HW259249   7.460   1.235   8.497  0.6346  0.2153 -0.3566
51522SOL     OW59250   3.297  11.555   7.831  0.4235  0.0789  0.4017
51522SOL    HW159251   3.301  11.626   7.768  2.7058  0.3738  0.8090
51522SOL    HW259252   3.357  11.581   7.901 -0.7331 -1.0256  1.8901
51523SOL     OW59253   7.620   9.427   3.214 -0.3474  0.0033 -0.0186
51523SOL    HW159254   7.563   9.413   3.290 -0.9545  0.3194 -0.4131
51523SOL    HW259255   7.707   9.403   3.245 -0.3019  1.6990  1.2939
51524SOL     OW59256   6.525   6.575  10.025  0.4684 -0.7468 -0.8661
51524SOL    HW159257   6.581   6.592   9.949  1.5866  3.1646  0.5624
51524SOL    HW259258   6.444   6.540   9.988  2.0081 -1.8427 -3.4866
51525SOL     OW59259   2.708  11.682  11.573  0.2564 -0.2618  0.1943
51525SOL    HW159260   2.756  11.752  11.616 -1.4437  2.3942 -1.8514
51525SOL    HW259261   2.645  11.652  11.638 -0.1709  1.4405  0.6112
51526SOL     OW59262   5.074   7.859   6.170 -0.1605 -0.2484 -0.4053
51526SOL    HW159263   5.017   7.926   6.132 -0.3415 -0.3335 -0.2857
51526SOL    HW259264   5.128   7.908   6.233 -0.3674 -0.2307 -0.2383
51527SOL     OW59265  10.111  11.378   8.148  0.3359  0.1834  0.6267
51527SOL    HW159266  10.160  11.309   8.105 -2.4896 -1.5132 -0.1175
51527SOL    HW259267  10.116  11.356   8.241  1.7729  0.6494  0.6875
51528SOL     OW59268   8.644   7.836   7.455 -0.3076  0.2587 -0.3336
51528SOL    HW159269   8.677   7.791   7.377  1.8556 -1.0890  1.2596
51528SOL    HW259270   8.712   7.900   7.476  1.2312 -2.1152  2.6503
51529SOL     OW59271   5.472   5.518   2.387  0.2968  0.2829  0.1137
51529SOL    HW159272   5.480   5.613   2.394  1.6481  0.3692 -1.7828
51529SOL    HW259273   5.439   5.503   2.298 -0.1460 -1.0098  0.4738
51530SOL     OW59274   2.042  10.124  11.127 -0.6098 -0.7234  0.0827
51530SOL    HW159275   2.027  10.053  11.191 -0.2395  2.3973  4.0188
51530SOL    HW259276   1.972  10.187  11.145 -0.3247  0.4592 -2.5716
51531SOL     OW59277   5.343   5.790  11.751 -0.3248 -0.0493  0.5151
51531SOL    HW159278   5.370   5.841  11.827 -2.0283  0.2304  0.9658
51531SOL    HW259279   5.280   5.726  11.785 -1.1019  0.0690 -0.6242
51532SOL     OW59280   4.897  10.820   5.970 -0.2058 -0.2514 -0.6603
51532SOL    HW159281   4.910  10.733   6.007  0.0690 -0.1968 -0.6261
51532SOL    HW259282   4.803  10.826   5.953 -0.1061 -0.8695 -1.4513
51533SOL     OW59283   5.772   1.494   2.464 -0.6389 -0.1847  0.3000
51533SOL    HW159284   5.860   1.506   2.499 -0.1928 -0.9189 -0.5158
51533SOL    HW259285   5.760   1.567   2.404  0.0674 -0.9564 -0.8126
51534SOL     OW59286   4.674   0.903   1.521 -0.3885  0.0616  0.1944
51534SOL    HW159287   4.735   0.948   1.579  1.3053 -0.4510 -1.0787
51534SOL    HW259288   4.670   0.814   1.556  2.6492 -1.0069 -1.7268
51535SOL     OW59289   8.008   9.339   8.154  0.0565  0.1840 -0.0186
51535SOL    HW159290   8.052   9.316   8.072  2.7991 -1.9632  1.8836
51535SOL    HW259291   8.047   9.422   8.179  1.9827 -0.9090  0.8237
51536SOL     OW59292   5.755   2.114   5.133 -0.2149 -0.6315 -0.3108
51536SOL    HW159293   5.765   2.054   5.207  1.3143 -0.4029 -0.2932
51536SOL    HW259294   5.662   2.136   5.132 -0.5551 -1.9365  0.5100
51537SOL     OW59295   8.500   8.280   7.845 -0.1050  0.0697  0.2625
51537SOL    HW159296   8.463   8.194   7.864  0.4194 -0.2457 -0.1371
51537SOL    HW259297   8.565   8.295   7.913 -0.4302  0.2996  0.5273
51538SOL     OW59298   4.639  11.751   2.145 -0.5501 -0.2555 -0.3537
51538SOL    HW159299   4.711  11.810   2.166 -0.4935  0.7165 -2.9248
51538SOL    HW259300   4.592  11.739   2.228  2.1474 -0.4179  1.2615
51539SOL     OW59301   4.203   1.714   8.898 -0.5933  0.1819 -0.1681
51539SOL    HW159302   4.156   1.714   8.981  2.1334 -0.1954  1.5006
51539SOL    HW259303   4.183   1.799   8.859 -2.5966  0.0331  0.4090
51540SOL     OW59304   8.901   4.181  10.973 -0.0879 -0.3298 -0.1830
51540SOL    HW159305   8.850   4.168  10.894 -1.4454 -1.2654  0.7910
51540SOL    HW259306   8.844   4.151  11.044  1.3270 -0.1731  1.0886
51541SOL     OW59307  11.369   8.651   2.414  0.3845 -0.4253 -0.0171
51541SOL    HW159308  11.336   8.684   2.497  1.1432 -0.2333  0.2139
51541SOL    HW259309  11.463   8.641   2.427  0.8711  1.6657 -1.5143
51542SOL     OW59310   4.872   3.892   9.765 -0.2864  0.0284 -0.4977
51542SOL    HW159311   4.935   3.912   9.696  1.4500 -0.3801  0.8880
51542SOL    HW259312   4.802   3.845   9.721  1.1107 -0.8624 -1.8669
51543SOL     OW59313   5.435   7.659   9.227 -0.4367 -0.4909 -0.3757
51543SOL    HW159314   5.422   7.564   9.227 -1.8709 -0.3383  0.8454
51543SOL    HW259315   5.362   7.693   9.176 -0.5264  0.0023  0.0703
51544SOL     OW59316   2.588   1.813   4.271 -0.2350  0.2568  0.2135
51544SOL    HW159317   2.626   1.868   4.340 -2.1344  1.0126  0.7231
51544SOL    HW259318   2.498   1.846   4.261 -0.5874 -1.0549 -1.3331
51545SOL     OW59319   7.280   2.128   3.293  0.0446 -0.3780 -0.1314
51545SOL    HW159320   7.207   2.068   3.305  0.2621 -0.3488  1.6574
51545SOL    HW259321   7.266   2.197   3.358  1.7406 -0.4670  0.3804
51546SOL     OW59322  11.295   4.780   4.418 -0.4588  0.1133 -0.6293
51546SOL    HW159323  11.377   4.733   4.405 -1.5371 -1.3793 -2.6529
51546SOL    HW259324  11.251   4.732   4.488  0.2961  0.8287  0.3583
51547SOL     OW59325   7.122   2.947   0.096 -0.5869  0.0545  0.2272
51547SOL    HW159326   7.104   3.009   0.167 -1.8609 -0.5557  0.4534
51547SOL    HW259327   7.076   2.983   0.020 -2.0665 -1.0155  0.5712
51548SOL     OW59328   6.248   5.119   3.160  0.1787 -0.1025 -0.0319
51548SOL    HW159329   6.276   5.028   3.169  1.1816 -0.1999 -2.9416
51548SOL    HW259330   6.166   5.124   3.208  0.7285 -2.1967  1.2534
51549SOL     OW59331   4.874   4.124   4.525 -0.2642  0.1703  0.1835
51549SOL    HW159332   4.842   4.206   4.563  0.4671 -0.2436  1.7814
51549SOL    HW259333   4.808   4.060   4.548  1.3307 -0.6051  3.1463
51550SOL     OW59334  10.078  10.214   9.278 -0.1680 -0.1376 -0.1648
51550SOL    HW159335  10.051  10.170   9.359 -1.6043 -1.0807 -1.1075
51550SOL    HW259336  10.072  10.307   9.299  1.0398 -0.3434  1.2834
51551SOL     OW59337   6.466   8.019   3.934 -0.5427  0.6701 -0.5004
51551SOL    HW159338   6.425   8.101   3.908  0.9022  0.9114 -2.1881
51551SOL    HW259339   6.556   8.043   3.956 -0.2446 -0.3801 -0.5098
51552SOL     OW59340   3.317   0.397   8.130 -0.3140  0.6435  0.3150
51552SOL    HW159341   3.364   0.479   8.147 -1.0547  1.4984 -1.4567
51552SOL    HW259342   3.384   0.329   8.137  0.1777  1.2715  2.5486
51553SOL     OW59343  10.746   2.599   1.068 -0.1316  0.2907  0.2542
51553SOL    HW159344  10.801   2.520   1.072  1.0394  1.0629 -0.0885
51553SOL    HW259345  10.709   2.606   1.156 -1.5022 -1.4751 -0.1244
51554SOL     OW59346   2.975   5.851   3.559 -0.0457 -0.0970  1.2400
51554SOL    HW159347   3.047   5.792   3.540  0.9147  1.0047  1.3242
51554SOL    HW259348   3.009   5.911   3.626 -1.6810 -0.7366  2.7273
51555SOL     OW59349   6.704  10.687   1.096 -0.0348  0.3139  0.5078
51555SOL    HW159350   6.781  10.692   1.152 -0.0018 -1.1863  0.6573
51555SOL    HW259351   6.668  10.600   1.113  0.5675 -0.6532 -2.5118
51556SOL     OW59352   7.084  10.901   2.210  0.1956 -0.2528 -0.2190
51556SOL    HW159353   7.060  10.861   2.293  0.7090 -1.0642 -0.4459
51556SOL    HW259354   7.020  10.971   2.197  1.4300  1.4087  1.9369
51557SOL     OW59355  10.577  10.886   4.856  0.4891 -0.5031 -0.2974
51557SOL    HW159356  10.517  10.935   4.912  0.3639 -0.7121 -0.2491
51557SOL    HW259357  10.597  10.806   4.905 -2.1088 -2.2312 -1.8567
51558SOL     OW59358   8.936  11.657   1.267 -0.1393 -0.1717  0.1794
51558SOL    HW159359   8.929  11.565   1.294  1.8708 -0.0763  1.2295
51558SOL    HW259360   9.027  11.680   1.285 -0.3996  1.8164 -0.8082
51559SOL     OW59361  10.238   9.568   0.454  0.3764  0.0841  0.2991
51559SOL    HW159362  10.321   9.614   0.444 -0.2122  0.9852 -0.5645
51559SOL    HW259363  10.243   9.495   0.393  0.3485  0.4165 -0.1047
51560SOL     OW59364  11.613   2.767  11.240  0.0758  0.2476  0.2461
51560SOL    HW159365  11.620   2.852  11.283  1.9106  0.3017 -0.0936
51560SOL    HW259366  11.545   2.779  11.174  1.0203  1.7774 -0.5024
51561SOL     OW59367   1.642  10.338   9.404 -1.1702 -0.1815 -0.2496
51561SOL    HW159368   1.575  10.330   9.471 -1.2861  0.5764 -0.2569
51561SOL    HW259369   1.627  10.425   9.365  0.2948  0.3654  0.3018
51562SOL     OW59370   2.185  11.893   6.476 -0.5431 -0.4177  0.5161
51562SOL    HW159371   2.168  11.966   6.416  0.0637  1.4947  2.5489
51562SOL    HW259372   2.248  11.838   6.430  0.5549  1.4367 -0.2706
51563SOL     OW59373   6.930   2.519  11.619 -0.4703 -0.4111  0.5147
51563SOL    HW159374   6.926   2.424  11.610  3.2535 -0.6727  0.3603
51563SOL    HW259375   6.895   2.553  11.536  0.5108 -1.7464 -0.4738
51564SOL     OW59376  10.656  10.001   6.522  0.1805 -0.2482 -0.2798
51564SOL    HW159377  10.638  10.045   6.439  0.6576 -0.0053 -0.2564
51564SOL    HW259378  10.661  10.071   6.587 -0.1154 -0.4297 -0.0589
51565SOL     OW59379  11.556   1.758   7.079  0.4126 -0.5348 -0.2129
51565SOL    HW159380  11.558   1.815   7.002 -2.0199  1.0740  0.7856
51565SOL    HW259381  11.630   1.698   7.066  0.1508 -0.3255 -3.7358
51566SOL     OW59382   8.938   7.901   3.468 -0.4730 -0.0705 -0.3161
51566SOL    HW159383   8.952   7.964   3.397 -0.0024  0.8577  0.5800
51566SOL    HW259384   8.849   7.920   3.499 -1.0388 -1.0997 -1.2438
51567SOL     OW59385   6.837   6.612   8.730 -0.3028  0.0980  0.4304
51567SOL    HW159386   6.919   6.643   8.770  1.0345 -1.4185 -0.9776
51567SOL    HW259387   6.807   6.542   8.788 -0.3986  0.4056  0.7518
51568SOL     OW59388   8.241   6.879   4.408 -0.4416  0.1577  0.2771
51568SOL    HW159389   8.221   6.972   4.418  0.8494  0.4242  0.5978
51568SOL    HW259390   8.186   6.850   4.335  1.5276  1.9803 -2.1024
51569SOL     OW59391  11.851   0.088  11.833  0.2524 -0.4665 -0.0538
51569SOL    HW159392  11.800   0.043  11.765 -0.9140 -0.8100  1.0050
51569SOL    HW259393  11.868   0.021  11.899  0.0513  0.2078  0.7014
51570SOL     OW59394   9.243   1.311   3.971  0.7825  0.4961 -0.6399
51570SOL    HW159395   9.270   1.318   4.063 -0.7226  0.0395 -0.1187
51570SOL    HW259396   9.274   1.392   3.931  1.8301  0.5148  0.1666
51571SOL     OW59397   2.146  11.428   3.202 -0.0158 -0.0366  0.0214
51571SOL    HW159398   2.156  11.522   3.186  0.0098 -0.0482 -0.0258
51571SOL    HW259399   2.141  11.421   3.298 -2.3418  0.2672 -0.0021
51572SOL     OW59400   4.759   0.215   5.468  0.4440 -0.2192 -0.2799
51572SOL    HW159401   4.842   0.173   5.491  1.2157  0.5457 -1.6183
51572SOL    HW259402   4.722   0.241   5.553  2.9360  2.0105  0.2592
51573SOL     OW59403   5.833   5.659   0.148  0.1089  0.2947  0.0583
51573SOL    HW159404   5.876   5.676   0.232  1.7306 -1.4531 -0.3598
51573SOL    HW259405   5.740   5.654   0.170  0.1361  2.9193  1.1943
51574SOL     OW59406  11.254   8.853   1.975 -0.0272 -0.2867  0.0138
51574SOL    HW159407  11.251   8.775   1.920 -0.6528 -0.8330  0.7998
51574SOL    HW259408  11.164   8.864   2.006  0.1249  0.5541  0.1814
51575SOL     OW59409   1.116   0.126   1.595 -0.1998 -0.3427 -0.5124
51575SOL    HW159410   1.162   0.044   1.609  1.5862  0.8452  1.0831
51575SOL    HW259411   1.067   0.142   1.676  0.9348  1.0078 -0.0483
51576SOL     OW59412   3.748   2.918   0.709  0.5742  0.4490 -0.2651
51576SOL    HW159413   3.761   2.966   0.626  2.0741  0.6267  0.0288
51576SOL    HW259414   3.776   2.829   0.689 -1.1291 -0.0689 -0.4993
51577SOL     OW59415   8.550   9.327   1.880 -0.0821 -0.8228  0.2815
51577SOL    HW159416   8.590   9.333   1.966  1.5628 -1.5186 -0.3861
51577SOL    HW259417   8.524   9.416   1.858  1.0682 -0.3483  0.7836
51578SOL     OW59418   6.228   5.709   7.307 -0.0578  0.3980 -0.2056
51578SOL    HW159419   6.229   5.663   7.223 -1.3204  0.2561 -0.1582
51578SOL    HW259420   6.184   5.648   7.367  0.1359  0.8193  0.3767
51579SOL     OW59421   5.772   4.222   5.721  0.3166 -0.0361 -0.6588
51579SOL    HW159422   5.761   4.139   5.674  0.1308  0.2263 -1.0795
51579SOL    HW259423   5.758   4.199   5.813  1.6126 -0.7394 -0.6130
51580SOL     OW59424   3.532   0.122   4.826  0.6261 -0.4246  0.6919
51580SOL    HW159425   3.575   0.134   4.911  0.8163  2.8105  0.2829
51580SOL    HW259426   3.594   0.158   4.763 -0.2961 -1.0359 -0.5969
51581SOL     OW59427   6.302  11.443   8.961  0.0037  0.5526  0.4333
51581SOL    HW159428   6.301  11.386   9.038 -1.2383 -2.8637 -1.9041
51581SOL    HW259429   6.217  11.486   8.962  0.3655  1.2989  1.3972
51582SOL     OW59430  10.814   0.830   1.812  0.4393 -0.0923  0.0427
51582SOL    HW159431  10.894   0.786   1.840  1.5283  0.4483 -2.0030
51582SOL    HW259432  10.829   0.850   1.719 -1.7986  0.6418 -0.2254
51583SOL     OW59433   1.855   8.468   3.609 -0.3754  0.7574  0.1446
51583SOL    HW159434   1.816   8.425   3.685  0.5940 -0.0161  0.2320
51583SOL    HW259435   1.946   8.437   3.609 -0.3787  0.6810 -1.3710
51584SOL     OW59436   7.689   6.391   1.511  0.3105  0.2431 -0.3441
51584SOL    HW159437   7.657   6.325   1.572  0.6566 -0.0339 -0.4623
51584SOL    HW259438   7.618   6.456   1.507 -0.5922 -0.7595 -1.2277
51585SOL     OW59439  10.476   0.215   7.045 -0.0683  0.0367 -0.1288
51585SOL    HW159440  10.461   0.122   7.063  0.1087 -0.0126 -0.2380
51585SOL    HW259441  10.389   0.249   7.022 -0.5243  0.3480  1.8859
51586SOL     OW59442   2.498   8.764   6.643  0.0019  0.4517 -0.0136
51586SOL    HW159443   2.491   8.857   6.665  0.6362  0.6067 -0.4482
51586SOL    HW259444   2.486   8.719   6.727 -1.4322  0.8643  0.0300
51587SOL     OW59445   2.594   2.572   6.644  0.0607  0.0960 -0.0227
51587SOL    HW159446   2.526   2.580   6.576 -1.4890  0.0557  1.4470
51587SOL    HW259447   2.656   2.641   6.624  1.3314 -1.7546 -3.2302
51588SOL     OW59448   8.078   6.430   2.568  0.6091 -0.0651  0.7390
51588SOL    HW159449   8.086   6.337   2.591 -0.7335 -0.5207 -0.4615
51588SOL    HW259450   8.068   6.430   2.473 -2.6128  0.9783  0.9473
51589SOL     OW59451   7.748   5.335   0.237 -0.3907 -0.2273 -0.0612
51589SOL    HW159452   7.764   5.241   0.246  1.2848  0.0957  0.7114
51589SOL    HW259453   7.835   5.374   0.233 -1.0420  1.3567  0.4095
51590SOL     OW59454  10.794  11.759   0.710 -0.5987  0.5877  0.3038
51590SOL    HW159455  10.753  11.812   0.778 -2.5241  0.7225 -0.8754
51590SOL    HW259456  10.743  11.778   0.631  2.2741  1.4263 -1.5300
51591SOL     OW59457   8.860   8.307   9.519  0.2426  0.5707  0.0117
51591SOL    HW159458   8.845   8.401   9.532 -0.5028  0.5584 -0.6485
51591SOL    HW259459   8.776   8.267   9.540  0.0216  0.2328 -1.4587
51592SOL     OW59460   2.572   0.196   6.112 -0.3333 -0.1109 -0.2079
51592SOL    HW159461   2.532   0.279   6.088  0.9482  0.2507 -1.2516
51592SOL    HW259462   2.600   0.207   6.202 -3.3593 -0.7289  0.9170
51593SOL     OW59463  10.480   9.058   2.221 -0.4267  0.3796 -0.6483
51593SOL    HW159464  10.533   9.112   2.162  0.6906  1.4806  1.2625
51593SOL    HW259465  10.501   8.968   2.197  0.5287  0.7997 -1.4628
51594SOL     OW59466   6.028   5.893  11.980  0.0723  0.1386  0.4579
51594SOL    HW159467   6.015   5.801  12.005  2.0812 -0.1553  0.5683
51594SOL    HW259468   6.065   5.889  11.892 -2.2125  0.9932 -0.6186
51595SOL     OW59469   9.459  11.187  10.620  0.4245 -0.9287 -0.1696
51595SOL    HW159470   9.444  11.117  10.556 -0.4064  1.3280 -2.6430
51595SOL    HW259471   9.372  11.224  10.634  1.0906  0.7844 -0.4027
51596SOL     OW59472  11.083  11.612   6.597 -0.2026 -0.3812  0.3414
51596SOL    HW159473  11.127  11.664   6.665  1.8350 -0.3854 -0.8761
51596SOL    HW259474  11.141  11.537   6.583 -1.9097 -1.7746  0.3894
51597SOL     OW59475   5.908   8.819   0.882 -0.8617  0.2176  0.3653
51597SOL    HW159476   5.971   8.790   0.816 -0.2383  0.0189  1.0357
51597SOL    HW259477   5.880   8.906   0.853  0.4619  0.7337  0.5531
51598SOL     OW59478  11.874   9.114   0.238 -0.2258  0.2847  0.3736
51598SOL    HW159479  11.798   9.167   0.261  0.2079  0.4030  1.6436
51598SOL    HW259480  11.839   9.039   0.192 -1.0283  0.7221  0.2595
51599SOL     OW59481   7.423   3.497   8.710 -0.1306 -0.6677  0.3556
51599SOL    HW159482   7.367   3.481   8.786 -2.3306  0.2205 -0.9850
51599SOL    HW259483   7.467   3.580   8.729 -0.3665 -0.6522  0.8399
51600SOL     OW59484   6.206  11.173   1.546 -0.3848 -0.1028 -0.4386
51600SOL    HW159485   6.166  11.123   1.475 -0.5282 -0.1555 -0.3203
51600SOL    HW259486   6.269  11.231   1.502  0.0472 -0.6447 -0.5495
51601SOL     OW59487   5.688   0.705   9.356  0.1650 -0.1303  0.3560
51601SOL    HW159488   5.694   0.621   9.309 -0.8064  0.1433 -0.2665
51601SOL    HW259489   5.714   0.770   9.291 -1.0811  0.2384  0.2004
51602SOL     OW59490   1.630   6.713   4.079  0.3793  0.5340 -0.3533
51602SOL    HW159491   1.629   6.621   4.104  2.2602  0.3540 -0.7656
51602SOL    HW259492   1.645   6.760   4.160  2.7228  0.2001 -0.5039
51603SOL     OW59493  11.689   4.266   2.167  0.2453 -0.6377 -0.0511
51603SOL    HW159494  11.647   4.195   2.214  0.2339 -0.2654  0.5154
51603SOL    HW259495  11.756   4.224   2.114  2.2716 -0.8319  2.4968
51604SOL     OW59496   5.404   8.353   3.121  0.1374 -0.0676 -0.7356
51604SOL    HW159497   5.364   8.436   3.146  0.2044 -0.3146  0.2078
51604SOL    HW259498   5.371   8.337   3.033 -2.2958 -0.5173  0.1938
51605SOL     OW59499   4.683   1.157   8.146  0.5638 -0.3541  0.0289
51605SOL    HW159500   4.709   1.211   8.221 -3.1589  0.6685  0.7752
51605SOL    HW259501   4.678   1.219   8.073 -1.0733 -0.1693  0.2604
51606SOL     OW59502   9.241   9.584   5.060 -0.5136  0.0605  0.3483
51606SOL    HW159503   9.202   9.536   4.987  0.7114  0.2980 -0.4941
51606SOL    HW259504   9.330   9.605   5.030 -0.4388  1.3360  1.3864
51607SOL     OW59505   8.606   7.705   9.672 -0.4141 -0.4692 -0.4954
51607SOL    HW159506   8.671   7.769   9.643 -0.1997  0.2134  1.3347
51607SOL    HW259507   8.658   7.628   9.698 -0.3289 -0.0192  0.7232
51608SOL     OW59508   3.585  11.807   7.892 -0.0867 -0.1163  0.6419
51608SOL    HW159509   3.562  11.814   7.799 -0.1335  0.9585  0.7178
51608SOL    HW259510   3.681  11.812   7.893 -0.0151 -1.3213  0.5697
51609SOL     OW59511   1.014   1.025   4.870 -0.0322 -0.0453 -0.2535
51609SOL    HW159512   1.039   1.114   4.845  2.2711 -1.0337 -1.7521
51609SOL    HW259513   0.937   1.007   4.817  0.6579  0.3806 -1.4348
51610SOL     OW59514   2.869  11.513   3.787 -0.3504 -0.3779  0.2127
51610SOL    HW159515   2.959  11.499   3.816  0.3373  0.5812 -1.3221
51610SOL    HW259516   2.820  11.441   3.826  1.0817 -0.9462  1.0489
51611SOL     OW59517   7.967   8.364   3.134 -0.0051 -0.6947  0.3403
51611SOL    HW159518   8.012   8.332   3.213 -2.7478 -1.3470  1.7703
51611SOL    HW259519   7.956   8.287   3.080  1.1010 -0.4066 -0.3360
51612SOL     OW59520  11.118   4.918   7.269  0.0011  0.3005 -0.2140
51612SOL    HW159521  11.059   4.855   7.310  1.9566 -0.9646  0.8050
51612SOL    HW259522  11.206   4.882   7.284  1.0735  2.2651 -1.3693
51613SOL     OW59523   5.482   0.998   5.258 -0.7085 -0.6323 -0.1824
51613SOL    HW159524   5.396   1.039   5.248 -1.4721 -1.7075  1.5897
51613SOL    HW259525   5.540   1.070   5.284 -0.9091  0.1997 -1.9039
51614SOL     OW59526   7.094   4.253   9.068  0.4393  0.1125  0.1808
51614SOL    HW159527   7.125   4.253   8.977 -1.0177  0.1129 -0.3324
51614SOL    HW259528   7.088   4.346   9.091  2.8140  0.1345  1.0350
51615SOL     OW59529   1.359   1.599  11.410  0.3305 -0.1448  0.2480
51615SOL    HW159530   1.276   1.586  11.456 -0.1800  0.8579 -0.3319
51615SOL    HW259531   1.408   1.659  11.466  0.7661 -0.9047  0.6947
51616SOL     OW59532   0.203   8.643   1.270 -0.2746 -0.6031 -0.6753
51616SOL    HW159533   0.261   8.717   1.255  2.1152 -2.2264 -0.1386
51616SOL    HW259534   0.132   8.678   1.323 -0.6667  1.8128 -2.6120
51617SOL     OW59535   0.600   2.710   1.243 -0.0091  0.1693  0.4700
51617SOL    HW159536   0.614   2.643   1.310  2.0132 -0.5987 -0.6199
51617SOL    HW259537   0.626   2.792   1.285  2.4909 -0.4720  0.2999
51618SOL     OW59538   9.079   1.582   6.576 -1.1677  0.0505 -1.0656
51618SOL    HW159539   9.160   1.620   6.611 -1.2422  0.9646 -1.8448
51618SOL    HW259540   9.101   1.490   6.558 -0.0147  0.5053 -2.1189
51619SOL     OW59541   8.846   3.294   2.533  0.0357 -0.7328 -0.0089
51619SOL    HW159542   8.824   3.204   2.558 -0.0872 -0.5614  0.5137
51619SOL    HW259543   8.907   3.284   2.460 -3.3106 -1.2317 -3.0054
51620SOL     OW59544   3.785  10.388   4.935 -0.6921  0.3544 -0.0382
51620SOL    HW159545   3.876  10.402   4.960 -1.0439  0.0126  1.5787
51620SOL    HW259546   3.774  10.293   4.936 -1.0029  0.3840 -0.4897
51621SOL     OW59547  10.235   2.194   8.657  0.5835 -0.2324 -0.1350
51621SOL    HW159548  10.197   2.139   8.726 -1.4457  0.6298 -0.4758
51621SOL    HW259549  10.325   2.208   8.685  0.9016 -2.8630  0.4710
51622SOL     OW59550   7.258   7.626   1.660 -0.0697 -0.1510  0.5936
51622SOL    HW159551   7.233   7.680   1.735  0.4601  0.8210  0.0914
51622SOL    HW259552   7.277   7.689   1.591 -0.2796 -1.0222 -0.2827
51623SOL     OW59553   0.888   0.498   9.278  0.3219 -0.2883 -0.0876
51623SOL    HW159554   0.880   0.586   9.239  1.7057 -0.2933 -0.4366
51623SOL    HW259555   0.798   0.473   9.298 -0.0054  2.0088  1.8457
51624SOL     OW59556   7.285   3.513   0.571  0.1013 -0.8253 -0.4313
51624SOL    HW159557   7.209   3.548   0.526  0.5693  1.7153  0.5804
51624SOL    HW259558   7.354   3.511   0.505  0.3811  1.4408 -0.2684
51625SOL     OW59559  11.019   7.932   6.230  0.3483 -0.0548  0.1425
51625SOL    HW159560  11.035   7.914   6.323  0.7543 -0.7960 -0.0606
51625SOL    HW259561  11.076   8.005   6.209  2.3820 -1.6513 -0.1858
51626SOL     OW59562   0.858   9.749  11.352  0.8172  0.6787  0.8111
51626SOL    HW159563   0.855   9.815  11.422  0.4977 -0.0498  1.5064
51626SOL    HW259564   0.905   9.675  11.391 -0.5362 -0.2660  0.7425
51627SOL     OW59565   5.960   1.759   4.672  0.0538  0.6105 -0.0169
51627SOL    HW159566   5.882   1.728   4.626  1.9359 -3.8764 -0.7205
51627SOL    HW259567   5.951   1.723   4.760  1.3746 -0.1600 -0.1790
51628SOL     OW59568   6.091   6.637  11.246  0.1758  0.2528  0.2030
51628SOL    HW159569   6.025   6.573  11.271  0.4951  0.0259  0.4644
51628SOL    HW259570   6.047   6.694  11.182 -0.2317  0.0299  0.2886
51629SOL     OW59571   8.243   9.029   9.586 -0.5389 -0.1147  0.1600
51629SOL    HW159572   8.330   9.060   9.614 -1.0758  0.6905  1.0143
51629SOL    HW259573   8.188   9.107   9.590 -0.7917 -0.0528 -2.7392
51630SOL     OW59574   9.164   8.975  10.146  0.4223 -0.2918  0.2574
51630SOL    HW159575   9.075   8.956  10.118  0.6650 -0.6486 -0.2920
51630SOL    HW259576   9.188   8.901  10.202  0.0098  0.3213  1.2812
51631SOL     OW59577  11.472  11.242  11.634 -0.2558 -0.3681  0.3499
51631SOL    HW159578  11.509  11.209  11.552  0.0699 -1.9597  1.0963
51631SOL    HW259579  11.540  11.299  11.670  0.3036 -0.9860  0.2970
51632SOL     OW59580   0.361   6.899   8.067  0.2392 -0.3353  0.1383
51632SOL    HW159581   0.404   6.974   8.109 -1.2289 -0.7190  2.4913
51632SOL    HW259582   0.405   6.822   8.104  0.7785 -0.6923 -1.1837
51633SOL     OW59583   1.699   3.029  11.406  0.2441 -0.9382 -0.0503
51633SOL    HW159584   1.759   3.023  11.331  0.6080  0.6540  0.0900
51633SOL    HW259585   1.756   3.023  11.483  0.1185 -0.3362  0.0880
51634SOL     OW59586   9.546   5.610   5.175 -0.1225 -0.3427  0.4129
51634SOL    HW159587   9.634   5.586   5.202 -0.6017 -1.2360  1.2500
51634SOL    HW259588   9.496   5.529   5.182 -1.1938  0.3294  0.7701
51635SOL     OW59589   2.180   6.098   9.450  0.2849  0.5510  0.6941
51635SOL    HW159590   2.271   6.105   9.477  0.4287  0.8976  0.1347
51635SOL    HW259591   2.167   6.005   9.431  0.8175  0.6520 -0.2235
51636SOL     OW59592   0.756   6.828   4.960  0.0497  0.6419 -0.3931
51636SOL    HW159593   0.819   6.886   5.002  0.4492 -1.2943  1.9383
51636SOL    HW259594   0.742   6.758   5.024 -3.7808  0.4653 -1.1978
51637SOL     OW59595   8.873   7.012   8.105  0.0808 -0.2869  1.1488
51637SOL    HW159596   8.869   7.080   8.172 -0.8955 -0.5219  1.3532
51637SOL    HW259597   8.794   6.960   8.120  0.7401 -1.3846  0.9079
51638SOL     OW59598   4.787   3.349   8.948 -0.2978  0.1450 -0.1502
51638SOL    HW159599   4.788   3.348   9.044 -0.1039 -0.0218 -0.1523
51638SOL    HW259600   4.694   3.351   8.925 -0.3420  0.4950  0.0416
51639SOL     OW59601   4.256   0.284   7.461  0.6213 -0.5037 -0.0922
51639SOL    HW159602   4.208   0.365   7.477  2.4406  0.6683 -0.2429
51639SOL    HW259603   4.320   0.307   7.394  2.0241 -1.7301  0.7614
51640SOL     OW59604   0.024   7.215   6.255  0.5377  0.2711  0.1772
51640SOL    HW159605   0.022   7.310   6.246  0.2467  0.4693  2.0211
51640SOL    HW259606  -0.042   7.183   6.194  1.3702  1.1452 -1.2475
51641SOL     OW59607   1.600   5.328   7.885 -0.7881  0.7594 -0.5987
51641SOL    HW159608   1.661   5.311   7.957  0.3165 -0.4855 -1.7544
51641SOL    HW259609   1.585   5.422   7.888 -1.4041  0.6410  1.7090
51642SOL     OW59610   7.121   1.178   6.292 -0.2424  0.1079  0.1951
51642SOL    HW159611   7.106   1.084   6.297 -1.6565  0.3569  1.4348
51642SOL    HW259612   7.079   1.205   6.211  1.5656 -0.5098 -1.0218
51643SOL     OW59613  11.881   6.746   9.912  0.2072  0.3645  0.1990
51643SOL    HW159614  11.873   6.776   9.822 -0.5810 -0.9176 -0.1773
51643SOL    HW259615  11.842   6.816   9.965 -0.5580  0.5233 -0.5607
51644SOL     OW59616   5.838   6.017   5.396 -0.0013  0.1162 -0.0318
51644SOL    HW159617   5.790   5.966   5.461  0.8749 -0.5877  0.0926
51644SOL    HW259618   5.827   6.108   5.422  0.8720 -0.1837  1.4928
51645SOL     OW59619  11.056  11.446   6.021 -0.1775  0.1003  0.1858
51645SOL    HW159620  10.969  11.434   6.058 -0.3603  2.4363  0.6686
51645SOL    HW259621  11.082  11.535   6.048  1.4979  0.2487 -1.6505
51646SOL     OW59622   3.632   4.000   6.810 -0.1146 -0.3941 -0.4598
51646SOL    HW159623   3.712   3.960   6.776  0.5646  0.1869  0.4061
51646SOL    HW259624   3.641   3.994   6.905 -0.8129  0.2426 -0.3476
51647SOL     OW59625   8.387   1.260   0.165  0.3152 -0.2741 -0.1169
51647SOL    HW159626   8.390   1.193   0.234 -2.7216  0.5060  0.9234
51647SOL    HW259627   8.331   1.224   0.098  1.6354 -0.1944 -1.3127
51648SOL     OW59628   5.197   7.134  11.631  0.7392  0.1143 -0.3491
51648SOL    HW159629   5.194   7.216  11.679 -0.5113 -0.0512 -0.1060
51648SOL    HW259630   5.233   7.071  11.693  0.8588  0.2922 -0.2385
51649SOL     OW59631   6.169   3.909   3.828 -0.3443 -0.3644  0.3945
51649SOL    HW159632   6.198   3.838   3.886  0.0432 -0.1646  0.4504
51649SOL    HW259633   6.097   3.951   3.875  0.5124  0.3290  1.1344
51650SOL     OW59634   4.171   1.502   5.987  0.2105 -0.1448 -0.3405
51650SOL    HW159635   4.115   1.558   6.041  0.1801 -0.8268  0.3557
51650SOL    HW259636   4.126   1.496   5.903  0.1656  0.7919 -0.3966
51651SOL     OW59637  10.575  10.123   0.245 -0.4961  0.4521  0.2150
51651SOL    HW159638  10.573  10.211   0.281 -1.0925  2.0876 -3.3428
51651SOL    HW259639  10.483  10.099   0.236 -0.3784 -1.4590  2.8260
51652SOL     OW59640   0.534   5.133   8.789 -0.3889  0.3650  0.8022
51652SOL    HW159641   0.501   5.044   8.791 -0.1630  0.1335 -1.9401
51652SOL    HW259642   0.629   5.124   8.798 -0.3611  0.3150  0.4684
51653SOL     OW59643   8.988   8.195   7.403  0.4738 -0.1453  0.2095
51653SOL    HW159644   9.043   8.224   7.329 -0.1190  0.2830 -0.0741
51653SOL    HW259645   9.050   8.154   7.464  0.8190 -1.5585 -1.0338
51654SOL     OW59646   2.432   9.433   5.143 -0.2640 -0.0933 -0.9029
51654SOL    HW159647   2.490   9.367   5.105  2.1338  0.2741  1.7563
51654SOL    HW259648   2.430   9.503   5.077  2.7732  0.0452 -0.9940
51655SOL     OW59649   3.582   5.686   3.458  0.1554 -0.4718 -0.5517
51655SOL    HW159650   3.495   5.722   3.474  0.0853 -1.1114  0.6292
51655SOL    HW259651   3.642   5.748   3.499  0.2318 -0.2540 -0.9874
51656SOL     OW59652   9.253   2.265   2.215  0.1630  0.1278 -0.0142
51656SOL    HW159653   9.289   2.338   2.265  0.7737 -1.5088  2.0539
51656SOL    HW259654   9.165   2.293   2.191  0.3645  1.5198  0.7749
51657SOL     OW59655  11.008  10.808   1.159 -0.1450 -0.0583 -0.3954
51657SOL    HW159656  11.082  10.841   1.209 -0.8822  0.4326  0.4080
51657SOL    HW259657  10.956  10.886   1.139 -1.1339 -0.5296  0.2281
51658SOL     OW59658   6.178   5.860   8.951  0.2483  0.1144 -0.1309
51658SOL    HW159659   6.095   5.890   8.915  1.6727  1.8413 -2.1767
51658SOL    HW259660   6.193   5.775   8.909  0.2942  0.5677 -1.0384
51659SOL     OW59661  11.829   7.158   5.511  0.6976  0.0691 -0.1499
51659SOL    HW159662  11.812   7.203   5.593 -0.0182 -0.8347  0.2115
51659SOL    HW259663  11.922   7.136   5.515  1.2499  2.0538 -0.6369
51660SOL     OW59664   7.280   8.745  10.229 -0.0916 -0.3583 -0.4015
51660SOL    HW159665   7.241   8.810  10.288 -0.0844 -0.7064 -0.0081
51660SOL    HW259666   7.206   8.709  10.180 -0.1277 -0.2485 -0.4288
51661SOL     OW59667   6.936   0.644   0.772  0.2442  0.3523 -0.1747
51661SOL    HW159668   7.021   0.635   0.816 -0.8885 -4.0688  1.6952
51661SOL    HW259669   6.944   0.591   0.693 -0.4374  0.8365 -0.5782
51662SOL     OW59670   3.996   3.083  10.287 -0.6599  0.1831 -0.1937
51662SOL    HW159671   4.030   3.053  10.371 -1.3336  1.5236  0.6045
51662SOL    HW259672   3.924   3.024  10.267  0.4554 -1.0802 -0.6135
51663SOL     OW59673   5.629   2.861  11.852 -0.2090  0.1178 -0.3191
51663SOL    HW159674   5.658   2.864  11.943  3.2770  1.1633 -1.3331
51663SOL    HW259675   5.590   2.947  11.836  1.3095  0.8151 -0.3949
51664SOL     OW59676   8.043  11.068   5.080  0.0384 -1.2460  0.0582
51664SOL    HW159677   7.963  11.119   5.063  0.9297  0.2560  0.1509
51664SOL    HW259678   8.111  11.114   5.031  1.0334 -1.8867  0.8135
51665SOL     OW59679   3.695   2.183   3.100 -0.1700  0.3202  0.1946
51665SOL    HW159680   3.743   2.110   3.139 -0.2360  0.4439  0.5061
51665SOL    HW259681   3.608   2.179   3.139  0.2313  1.3959  1.2842
51666SOL     OW59682  11.518   1.001   6.579 -0.0416 -0.1632  0.2558
51666SOL    HW159683  11.580   0.976   6.510  1.2490  0.2064  1.2421
51666SOL    HW259684  11.571   1.052   6.641 -1.0621 -0.8712  1.7523
51667SOL     OW59685   9.985   0.932   4.464  0.8489  0.6145  0.3183
51667SOL    HW159686   9.964   0.902   4.553 -0.9632 -3.2748 -1.1951
51667SOL    HW259687  10.072   0.898   4.447 -0.2368 -2.0052 -0.5240
51668SOL     OW59688   6.837   1.132   4.933 -0.5484 -0.4080  0.3182
51668SOL    HW159689   6.865   1.060   4.989 -0.0700 -0.8119 -0.4236
51668SOL    HW259690   6.857   1.211   4.983  0.8869 -0.7184  0.2837
51669SOL     OW59691   6.931   7.914   2.739 -0.3950  0.3673  0.2852
51669SOL    HW159692   6.965   7.849   2.801 -0.5729 -0.2894 -0.3031
51669SOL    HW259693   6.947   7.998   2.783 -1.8999 -0.1396  1.9161
51670SOL     OW59694   7.181   4.451   4.802 -0.2237  0.4768 -0.7564
51670SOL    HW159695   7.089   4.456   4.774 -0.5141 -0.3226  0.0187
51670SOL    HW259696   7.216   4.375   4.756 -0.3688 -0.1162  0.0966
51671SOL     OW59697   7.026   6.066   3.165 -0.2366  0.0489  0.5697
51671SOL    HW159698   7.019   6.095   3.074 -0.3219 -1.6400  0.0086
51671SOL    HW259699   7.104   6.111   3.198  1.4236 -1.3911 -1.1958
51672SOL     OW59700   5.302  10.361   9.253  0.4435 -0.3903  0.4800
51672SOL    HW159701   5.237  10.310   9.206 -0.2600  0.7214  0.1908
51672SOL    HW259702   5.301  10.325   9.342 -0.5660 -0.4099  0.4790
51673SOL     OW59703   7.931  11.753   4.366  0.0819 -0.7036  0.0430
51673SOL    HW159704   7.857  11.813   4.365 -0.0236 -0.7555 -3.1015
51673SOL    HW259705   7.976  11.772   4.449 -1.1899  2.0861  0.2024
51674SOL     OW59706   7.824  10.260   9.971  0.0785 -0.2958 -0.0292
51674SOL    HW159707   7.834  10.197  10.042 -4.0592 -1.4815 -0.2445
51674SOL    HW259708   7.799  10.341  10.014  3.5259  0.8695  0.0999
51675SOL     OW59709   7.998   8.418   2.627 -0.3909 -0.1615 -0.0357
51675SOL    HW159710   8.073   8.436   2.571 -1.2206 -0.5246 -1.3223
51675SOL    HW259711   7.968   8.505   2.655 -1.1628  0.1962 -1.8260
51676SOL     OW59712   5.803  10.867   4.920  0.4292  0.5122  0.7940
51676SOL    HW159713   5.766  10.927   4.985 -1.1240  0.7078 -0.2149
51676SOL    HW259714   5.768  10.781   4.943  0.9268  0.3529  0.9716
51677SOL     OW59715   5.053   0.473  10.593  0.1068 -0.2578  0.6882
51677SOL    HW159716   5.036   0.509  10.506 -0.5309 -1.6438  0.2204
51677SOL    HW259717   4.966   0.461  10.631  0.3812  2.5596  2.5099
51678SOL     OW59718   1.629   0.503   0.446  0.0779  0.0402 -0.1261
51678SOL    HW159719   1.580   0.533   0.523  0.3709 -1.3110  0.6259
51678SOL    HW259720   1.716   0.542   0.456 -0.0516  0.3249 -0.0845
51679SOL     OW59721   5.991   5.441   9.314  0.1322  0.6829  0.0597
51679SOL    HW159722   5.927   5.504   9.347 -0.6300 -0.5293  1.0132
51679SOL    HW259723   6.060   5.494   9.275 -0.7519  2.0702  0.3263
51680SOL     OW59724  10.899   1.062  10.509  0.1440  0.1510 -0.3624
51680SOL    HW159725  10.930   1.148  10.538 -2.2186  0.4410  1.6441
51680SOL    HW259726  10.979   1.014  10.488  1.7125  1.9362  1.0999
51681SOL     OW59727   0.071   0.208  11.529 -0.3642  0.1333  0.1485
51681SOL    HW159728   0.062   0.238  11.619 -1.9626  1.6973 -0.4614
51681SOL    HW259729   0.049   0.115  11.531 -0.1300  0.0970  1.3968
51682SOL     OW59730   9.355   7.837   9.731  0.3724 -0.6619 -0.3973
51682SOL    HW159731   9.427   7.890   9.697 -0.2183 -0.0823 -0.7801
51682SOL    HW259732   9.371   7.832   9.825  1.6283 -1.6619 -0.6422
51683SOL     OW59733   9.283  11.736   3.337 -0.3792 -0.1940 -0.3601
51683SOL    HW159734   9.366  11.688   3.334 -0.1623 -0.0943  2.1079
51683SOL    HW259735   9.240  11.704   3.416 -1.7519  1.2623 -0.4714
51684SOL     OW59736  11.733  11.936   1.802  0.1704  0.2935 -0.3080
51684SOL    HW159737  11.721  12.016   1.750  1.6779  1.0289  0.4112
51684SOL    HW259738  11.727  11.865   1.738  0.0389  1.0463 -1.1578
51685SOL     OW59739   9.188   9.042   9.496  0.4794 -0.6704  0.5288
51685SOL    HW159740   9.252   9.083   9.555  0.6523 -0.0607 -0.0770
51685SOL    HW259741   9.137   8.985   9.553  0.8762 -0.3619  1.2089
51686SOL     OW59742   5.714   6.486   5.199 -0.1022 -0.3436 -0.2709
51686SOL    HW159743   5.799   6.447   5.178 -0.8134 -1.2369 -1.7325
51686SOL    HW259744   5.712   6.567   5.148  1.4844  1.9069  2.9764
51687SOL     OW59745   3.040   8.809  10.061  0.4307 -0.4045  0.7155
51687SOL    HW159746   3.100   8.772   9.997 -1.5594 -2.1184 -0.2934
51687SOL    HW259747   3.008   8.890  10.021 -0.8585 -1.5027 -0.5939
51688SOL     OW59748   4.099  12.001   9.172 -0.4309  0.0514  0.0003
51688SOL    HW159749   4.008  11.979   9.155 -0.3167 -1.0695  0.7256
51688SOL    HW259750   4.101  12.031   9.263  0.0999 -1.1356  0.4004
51689SOL     OW59751   1.627   7.039   8.473  0.4091  0.8053 -0.5431
51689SOL    HW159752   1.564   6.994   8.529  0.2777  0.6287 -0.8347
51689SOL    HW259753   1.675   6.969   8.429 -1.0944  0.9102 -2.4815
51690SOL     OW59754   0.977  10.221   9.459 -0.4717 -0.1873 -0.5653
51690SOL    HW159755   0.986  10.221   9.554  1.8240 -0.5987 -0.7231
51690SOL    HW259756   1.047  10.277   9.427 -2.0282  1.0543 -2.0167
51691SOL     OW59757  11.768  11.978   8.052  0.2263  0.5591 -0.8950
51691SOL    HW159758  11.830  12.048   8.072 -0.9546  1.2225  0.6680
51691SOL    HW259759  11.807  11.900   8.090 -0.2633  1.1398  0.8825
51692SOL     OW59760   3.368   9.617   2.651 -0.3348  0.4158 -0.3338
51692SOL    HW159761   3.332   9.529   2.668 -0.9034  0.7604  0.2806
51692SOL    HW259762   3.306   9.656   2.589 -0.3754  0.5811 -0.1867
51693SOL     OW59763   4.656   8.055   2.829 -0.1481  0.1539  0.4056
51693SOL    HW159764   4.652   8.010   2.913 -0.6551 -1.1540 -0.3008
51693SOL    HW259765   4.608   8.137   2.843  1.1462  0.7248  1.8155
51694SOL     OW59766   4.520   7.594   4.560 -0.4639  0.2026  0.2478
51694SOL    HW159767   4.585   7.625   4.497 -1.2024  1.1742 -0.0535
51694SOL    HW259768   4.446   7.654   4.550 -1.7216 -1.3237  0.0678
51695SOL     OW59769   9.370   5.891   0.779 -0.0246 -0.2860 -0.3641
51695SOL    HW159770   9.331   5.814   0.739  0.1056 -1.0656  0.9541
51695SOL    HW259771   9.300   5.927   0.834  1.2763 -2.3913  3.0016
51696SOL     OW59772   3.698   5.715   1.238 -0.5185 -0.2926  0.3637
51696SOL    HW159773   3.681   5.641   1.180  0.0431 -0.5467  0.5178
51696SOL    HW259774   3.650   5.695   1.318 -1.2245  0.0175  0.0240
51697SOL     OW59775   7.120   9.574   3.240  0.4515  0.3222  0.4797
51697SOL    HW159776   7.144   9.497   3.292  0.9302  0.3824  0.3442
51697SOL    HW259777   7.201   9.603   3.200  0.3244  1.0883  0.7714
51698SOL     OW59778  10.524   7.677  10.375 -0.0231  0.6810 -0.4519
51698SOL    HW159779  10.444   7.728  10.392  0.3577  0.6828  1.6777
51698SOL    HW259780  10.592   7.743  10.363 -0.1020  0.6680 -1.0137
51699SOL     OW59781   6.939  10.677   6.598  0.3074  0.0212 -0.1192
51699SOL    HW159782   6.878  10.731   6.549 -1.8030 -0.6615  1.5915
51699SOL    HW259783   6.946  10.596   6.547 -0.9300 -0.2305  0.0842
51700SOL     OW59784   2.484   2.513   9.282  0.0559  0.2852 -0.4610
51700SOL    HW159785   2.553   2.572   9.253  0.0132  1.4529  1.6227
51700SOL    HW259786   2.456   2.548   9.367 -3.5166  0.2209 -1.4411
51701SOL     OW59787   4.848   3.954   0.367 -0.2590 -0.1234 -0.2037
51701SOL    HW159788   4.800   3.906   0.435  0.9922 -0.8179  0.2150
51701SOL    HW259789   4.842   3.897   0.290  1.0802 -0.9235  0.2463
51702SOL     OW59790   1.330   0.879   9.946 -0.3169 -0.5497 -0.0632
51702SOL    HW159791   1.269   0.859  10.017  1.1275  0.0429  1.4245
51702SOL    HW259792   1.299   0.962   9.910 -1.4123 -1.1588 -0.5518
51703SOL     OW59793   1.875   5.233   2.109 -0.0289 -0.5118  0.0949
51703SOL    HW159794   1.865   5.158   2.168  0.2794 -0.6436 -0.0150
51703SOL    HW259795   1.844   5.201   2.025 -2.6601  0.3646  0.6410
51704SOL     OW59796   6.110   1.254   3.094  0.1056 -0.0509 -0.0955
51704SOL    HW159797   6.202   1.280   3.097  0.3883 -0.9851 -0.3796
51704SOL    HW259798   6.090   1.247   3.001 -1.4693  4.1790 -0.2792
51705SOL     OW59799   0.221   9.056   2.746  0.0656  0.1748  0.3894
51705SOL    HW159800   0.157   9.127   2.746  0.0156  0.2219 -2.1237
51705SOL    HW259801   0.174   8.981   2.782 -0.7319  0.7492  0.5585
51706SOL     OW59802  10.773   1.300   1.589 -0.0995  0.1700 -0.3297
51706SOL    HW159803  10.859   1.340   1.575  0.8037 -0.7865  2.0024
51706SOL    HW259804  10.714   1.374   1.602  1.1161  0.8636  1.7507
51707SOL     OW59805   5.005  10.896   5.734 -0.1114  0.4019  0.2493
51707SOL    HW159806   5.019  10.990   5.728  2.6135  0.1985  1.7984
51707SOL    HW259807   4.956  10.884   5.815 -0.0199  0.4643  0.3140
51708SOL     OW59808   4.134   1.606   2.584  0.4325  0.0791 -0.2926
51708SOL    HW159809   4.122   1.623   2.490 -0.5660  0.2722 -0.1424
51708SOL    HW259810   4.174   1.519   2.587 -1.5292 -0.9247 -0.8739
51709SOL     OW59811   0.335   4.302   7.733 -0.1553 -0.1120 -0.1997
51709SOL    HW159812   0.339   4.389   7.773  0.8988  0.3361 -1.2465
51709SOL    HW259813   0.366   4.243   7.801  0.2006  0.4656  0.1479
51710SOL     OW59814   6.608   1.412  10.090 -0.0448 -0.1715  0.3214
51710SOL    HW159815   6.651   1.367  10.017 -1.0695  0.3772 -0.6482
51710SOL    HW259816   6.680   1.439  10.147  0.6912 -1.7268  0.1934
51711SOL     OW59817   3.524   6.734  11.815  0.1068  0.5335  0.5149
51711SOL    HW159818   3.601   6.679  11.830  0.8738  1.5776  0.4791
51711SOL    HW259819   3.450   6.677  11.836  0.6953 -1.4749 -2.1654
51712SOL     OW59820  10.684  10.268   3.373  0.0643 -0.1885 -0.4183
51712SOL    HW159821  10.776  10.294   3.368 -0.0496  0.3091 -0.0477
51712SOL    HW259822  10.655  10.261   3.282  0.1575  0.7850 -0.5291
51713SOL     OW59823   6.942  11.056   6.698 -0.0713  0.1048 -0.0581
51713SOL    HW159824   6.981  11.001   6.631  0.8184  1.8284 -1.0107
51713SOL    HW259825   7.006  11.055   6.770  0.6276  0.9888 -0.6451
51714SOL     OW59826  10.497  10.366   0.382  0.3741  0.0395  0.6604
51714SOL    HW159827  10.438  10.407   0.318 -0.5375 -1.9251  0.1761
51714SOL    HW259828  10.578  10.417   0.376  0.5671 -0.4385 -2.5830
51715SOL     OW59829   6.080   8.076   2.940  0.1130  0.2068 -0.2857
51715SOL    HW159830   6.098   8.042   2.852 -0.4978 -0.8470 -0.0271
51715SOL    HW259831   5.988   8.053   2.955  0.5349 -0.6855  1.0814
51716SOL     OW59832   0.373   9.949   7.759 -0.3128 -0.4871  0.4433
51716SOL    HW159833   0.334   9.992   7.835 -1.5689 -0.4059 -0.2345
51716SOL    HW259834   0.309   9.884   7.732 -0.2103 -0.0481 -0.9579
51717SOL     OW59835   0.103  11.680  11.945 -0.1273 -0.1771  0.9425
51717SOL    HW159836   0.150  11.737  12.005 -1.3114  1.4247  0.4280
51717SOL    HW259837   0.172  11.634  11.897  1.1413  3.1559 -0.8305
51718SOL     OW59838   0.806   1.445   9.464 -0.2595  0.0356 -0.0004
51718SOL    HW159839   0.857   1.379   9.417 -1.2366  0.3932 -1.6376
51718SOL    HW259840   0.822   1.427   9.557  2.1977 -0.3438 -0.4450
51719SOL     OW59841   3.126  10.504   3.960  0.0472  0.3355 -1.1420
51719SOL    HW159842   3.130  10.600   3.962  1.4907  0.3199 -1.9526
51719SOL    HW259843   3.144  10.481   3.869  0.4550 -0.7386 -0.8028
51720SOL     OW59844   3.906   7.802  11.839 -0.3355  0.2819 -0.0286
51720SOL    HW159845   3.896   7.753  11.757  0.1121 -0.2371  0.2161
51720SOL    HW259846   3.972   7.869  11.818  1.1934 -1.0229  0.3851
51721SOL     OW59847  10.588   4.020   0.924 -0.4591 -0.1556  0.3155
51721SOL    HW159848  10.577   4.062   1.009 -1.2710 -2.3681  1.3850
51721SOL    HW259849  10.575   4.090   0.860 -2.0407  1.1451  1.9737
51722SOL     OW59850   3.333   3.891   3.960 -0.0971 -0.5015  0.6943
51722SOL    HW159851   3.353   3.972   3.914  1.2391 -1.8026 -1.1401
51722SOL    HW259852   3.404   3.880   4.023 -0.1719 -0.3472  0.8052
51723SOL     OW59853   7.622   7.074   8.440  0.6011  0.2052 -0.0986
51723SOL    HW159854   7.555   7.036   8.497 -0.1421 -1.0842 -1.7449
51723SOL    HW259855   7.598   7.167   8.434 -0.3022  0.0149  0.3312
51724SOL     OW59856  10.096   0.771   8.015  0.2760 -0.2929  0.1491
51724SOL    HW159857  10.154   0.796   7.943 -0.0515 -1.7208 -0.6312
51724SOL    HW259858  10.103   0.676   8.020 -0.9903 -0.3679  0.9165
51725SOL     OW59859   7.852   1.927   2.565  0.0973  0.9970  0.1521
51725SOL    HW159860   7.909   1.949   2.639  0.1345  1.6298 -0.0636
51725SOL    HW259861   7.763   1.937   2.600  0.0799 -0.7796  0.7323
51726SOL     OW59862   0.336  10.602   5.476 -0.5692  0.0902  0.0466
51726SOL    HW159863   0.421  10.562   5.496 -1.3784 -0.7795  1.9652
51726SOL    HW259864   0.302  10.550   5.403  0.1934 -0.0525 -0.2227
51727SOL     OW59865   8.150  11.289  11.184  0.0089  0.1107 -0.6377
51727SOL    HW159866   8.159  11.341  11.104 -0.9874  1.4415  0.0766
51727SOL    HW259867   8.214  11.327  11.244 -0.2172  0.0267 -0.3444
51728SOL     OW59868   0.195   5.168   0.113 -0.4625  0.7123  0.1426
51728SOL    HW159869   0.278   5.161   0.160 -0.2157  1.0761 -0.2291
51728SOL    HW259870   0.220   5.192   0.024 -0.9281  0.0967 -0.1552
51729SOL     OW59871   2.783   4.376   9.769  0.5079 -0.0787  0.9316
51729SOL    HW159872   2.709   4.345   9.821  0.6767 -0.6985  0.8114
51729SOL    HW259873   2.744   4.434   9.703  0.1212 -0.4823  0.8047
51730SOL     OW59874   2.779   7.110   3.586 -0.2890 -0.3150  0.0447
51730SOL    HW159875   2.780   7.102   3.681  0.2111 -0.7651  0.0075
51730SOL    HW259876   2.686   7.102   3.562 -0.7801  2.5514  0.6901
51731SOL     OW59877   9.023   0.590   7.250 -0.4198 -0.4525 -0.0519
51731SOL    HW159878   9.047   0.653   7.318  1.3218  1.4706 -2.2529
51731SOL    HW259879   8.927   0.584   7.256 -0.4554  0.7968  1.5793
51732SOL     OW59880   3.992   9.590  10.555  0.3427 -0.7834  0.5893
51732SOL    HW159881   3.964   9.558  10.641 -2.1072 -0.2014  0.0963
51732SOL    HW259882   3.919   9.567  10.496  0.5186  1.5946 -0.6779
51733SOL     OW59883   8.235   5.080  10.495  0.2372  0.1744  0.1253
51733SOL    HW159884   8.221   5.115  10.407  1.0742  1.7343  0.5572
51733SOL    HW259885   8.330   5.068  10.501  0.1822  0.0469  0.7935
51734SOL     OW59886   1.172   2.776  11.356 -0.4691 -0.2545 -0.0866
51734SOL    HW159887   1.233   2.811  11.291 -1.1828  0.1576 -0.5423
51734SOL    HW259888   1.115   2.718  11.305 -1.3015  0.4014  0.0869
51735SOL     OW59889  10.465   2.083   0.257  0.2132 -0.1728 -0.4320
51735SOL    HW159890  10.532   2.147   0.232 -1.1247  2.1372  1.3891
51735SOL    HW259891  10.496   2.048   0.341 -0.2064 -0.0981 -0.2429
51736SOL     OW59892  10.544   0.923   8.981 -0.0299  0.0259  0.0429
51736SOL    HW159893  10.526   0.906   9.073  0.0971 -1.1978 -0.1375
51736SOL    HW259894  10.640   0.922   8.975 -0.0153  0.9797  0.0447
51737SOL     OW59895   7.284   0.313   1.413 -1.2638 -0.1894  0.0473
51737SOL    HW159896   7.244   0.234   1.451 -1.9948  1.1352  2.2117
51737SOL    HW259897   7.263   0.383   1.475  1.0641  1.3589 -0.7570
51738SOL     OW59898   6.406   2.416   6.407 -0.0112  0.5690  0.2090
51738SOL    HW159899   6.447   2.333   6.381  0.0619  0.7297 -0.1973
51738SOL    HW259900   6.438   2.479   6.343  0.5596  1.0822  0.9795
51739SOL     OW59901   2.342   0.461  10.572 -0.0568  0.0062 -0.4224
51739SOL    HW159902   2.279   0.533  10.569  1.5895  1.7588  2.5386
51739SOL    HW259903   2.407   0.483  10.505  0.5502  1.4958  0.6016
51740SOL     OW59904   2.652   5.586   1.612 -0.2520 -0.0767  0.1211
51740SOL    HW159905   2.616   5.573   1.524 -0.2837  0.1988  0.0950
51740SOL    HW259906   2.647   5.499   1.652 -1.4647  0.0624  0.3105
51741SOL     OW59907   2.260  11.231   1.175  0.1859  0.1048 -0.4570
51741SOL    HW159908   2.177  11.271   1.202  1.3292  0.4971  3.0611
51741SOL    HW259909   2.251  11.139   1.196  0.8689  0.2892  0.7301
51742SOL     OW59910   9.050   4.539   9.099 -0.4068 -0.5455 -0.4162
51742SOL    HW159911   9.120   4.554   9.163 -0.3265 -1.5496 -0.2574
51742SOL    HW259912   8.987   4.609   9.116  0.7163  0.6025 -0.8087
51743SOL     OW59913  11.942   8.838   2.207  0.0676 -0.3945  0.0305
51743SOL    HW159914  11.947   8.874   2.118  2.7145 -1.7067 -0.4619
51743SOL    HW259915  11.934   8.916   2.263 -0.2915  0.5418 -1.2633
51744SOL     OW59916   2.438   2.417   2.605  0.2575 -0.1951  1.1128
51744SOL    HW159917   2.370   2.476   2.574  0.9686  0.6253  1.0559
51744SOL    HW259918   2.398   2.369   2.677 -0.3419  0.3683  1.1621
51745SOL     OW59919  11.515   5.970   7.967  0.9065  0.1029  0.9008
51745SOL    HW159920  11.552   5.926   8.044 -1.4213 -0.9948  1.4870
51745SOL    HW259921  11.570   5.940   7.895  1.8096 -0.5867  1.8310
51746SOL     OW59922  10.360   8.519   4.214  0.3769 -0.2982  0.7646
51746SOL    HW159923  10.289   8.579   4.191 -0.2204 -1.6701 -1.2223
51746SOL    HW259924  10.327   8.432   4.192  2.3609 -1.0737  0.6057
51747SOL     OW59925   0.462   8.285  10.640  0.0778  0.0305  0.2775
51747SOL    HW159926   0.530   8.226  10.607  0.8399  0.1165  1.6330
51747SOL    HW259927   0.489   8.305  10.729 -1.4212  0.5608  0.6359
51748SOL     OW59928   9.515   8.490   9.861  0.1720 -0.2493  0.0055
51748SOL    HW159929   9.541   8.418   9.803  0.5943 -1.4956  1.6658
51748SOL    HW259930   9.452   8.541   9.809  0.2198 -1.5424 -1.3935
51749SOL     OW59931   9.771   6.917  10.366 -0.3358 -0.3951 -0.2153
51749SOL    HW159932   9.746   6.847  10.306 -0.4022 -0.5685  0.0143
51749SOL    HW259933   9.731   6.996  10.328  0.7825 -0.2561 -1.1496
51750SOL     OW59934  10.887  11.035   1.127  0.3061  0.0456  0.7816
51750SOL    HW159935  10.854  11.104   1.185 -1.8346  0.0110 -0.3113
51750SOL    HW259936  10.895  11.077   1.042 -1.7500 -1.1628 -0.0741
51751SOL     OW59937   8.224  11.897   6.759 -0.4097  0.7169  0.3429
51751SOL    HW159938   8.185  11.930   6.678 -1.1005 -1.4872 -0.2814
51751SOL    HW259939   8.252  11.976   6.806  0.6555  2.0598 -2.3235
51752SOL     OW59940   1.561   3.671   7.944 -0.9161  0.1916 -0.1278
51752SOL    HW159941   1.648   3.639   7.969 -0.8866  0.1905 -0.2308
51752SOL    HW259942   1.572   3.702   7.854 -0.7684  1.1553  0.2048
51753SOL     OW59943   5.894   2.337   7.989 -0.7195 -0.5602 -0.2934
51753SOL    HW159944   5.824   2.337   8.054 -1.7008 -0.2892 -1.3181
51753SOL    HW259945   5.853   2.372   7.910  0.9270  0.9119 -0.5546
51754SOL     OW59946  10.503  10.155   8.281  0.3515  0.4497  0.1445
51754SOL    HW159947  10.491  10.157   8.186 -0.6059  1.6970  0.2627
51754SOL    HW259948  10.592  10.121   8.293 -0.0135 -1.0815 -1.1224
51755SOL     OW59949   0.909   8.082  11.683  0.3136 -0.8686 -0.2884
51755SOL    HW159950   0.940   8.172  11.673 -1.2793 -0.3994 -1.3328
51755SOL    HW259951   0.909   8.047  11.594  1.5510 -2.1498  0.1817
51756SOL     OW59952   1.022   1.690  10.863  0.3712  0.3606  0.0349
51756SOL    HW159953   1.057   1.741  10.790 -1.6532 -1.9012 -2.7732
51756SOL    HW259954   1.028   1.599  10.833 -1.0078 -0.6410  2.5227
51757SOL     OW59955   0.598   0.909   3.060 -0.4705  0.1677 -0.0770
51757SOL    HW159956   0.572   0.818   3.043 -0.9611  0.6783 -2.5586
51757SOL    HW259957   0.516   0.953   3.081 -0.7543  0.5676 -1.8366
51758SOL     OW59958  11.116   0.807   2.565  0.0360  0.4486  0.3180
51758SOL    HW159959  11.175   0.881   2.549 -0.7734  0.7846 -1.4222
51758SOL    HW259960  11.028   0.845   2.557 -0.4023 -0.4382  0.8042
51759SOL     OW59961   4.435  11.745   4.931 -0.0201 -0.2100 -0.4497
51759SOL    HW159962   4.349  11.787   4.925 -0.3388 -0.7346  0.3507
51759SOL    HW259963   4.496  11.818   4.945 -0.2669  0.2037 -1.3883
51760SOL     OW59964   5.090   4.769   1.902  0.1338 -0.0452  0.0686
51760SOL    HW159965   5.152   4.764   1.829 -0.7240 -3.1341 -0.5815
51760SOL    HW259966   5.014   4.813   1.866  0.8330  1.1866  0.0395
51761SOL     OW59967  11.333   6.622   0.679  0.1163 -0.5286  0.2792
51761SOL    HW159968  11.359   6.530   0.681  1.4266 -0.1649  1.5181
51761SOL    HW259969  11.413   6.670   0.655  0.1500  0.4652  2.2085
51762SOL     OW59970   0.568   5.637  10.363 -0.4665  0.0931  0.5011
51762SOL    HW159971   0.603   5.714  10.407  0.4302  0.1556 -0.2873
51762SOL    HW259972   0.644   5.578  10.354 -0.4679  0.3219 -1.4386
51763SOL     OW59973   2.214   7.718   1.693 -0.4915  0.3243 -0.3796
51763SOL    HW159974   2.204   7.687   1.783 -0.3941 -1.0451 -0.8189
51763SOL    HW259975   2.298   7.764   1.693  0.1357 -0.7858 -0.0572
51764SOL     OW59976   5.556  10.003  10.445 -0.1436  0.0730  0.1910
51764SOL    HW159977   5.519  10.074  10.393  1.3410  0.4780 -0.3661
51764SOL    HW259978   5.485   9.941  10.455 -0.5934  0.1513 -2.0450
51765SOL     OW59979   3.425   0.720   0.727 -0.1759  0.4795  0.1252
51765SOL    HW159980   3.340   0.763   0.734 -0.1600  0.7260 -0.9945
51765SOL    HW259981   3.457   0.745   0.640 -0.0805 -1.6080 -0.4969
51766SOL     OW59982   0.480   4.214   8.532  0.2862  0.3455 -0.1301
51766SOL    HW159983   0.535   4.200   8.609 -0.9340 -0.7098  0.6030
51766SOL    HW259984   0.435   4.297   8.549 -0.9792 -0.5261  0.9736
51767SOL     OW59985   6.841   6.829   1.916 -0.3799 -0.1200 -0.1252
51767SOL    HW159986   6.916   6.865   1.963 -1.2140  1.0132  0.3928
51767SOL    HW259987   6.841   6.874   1.832  1.6253 -2.7823 -1.6693
51768SOL     OW59988   3.902   1.441  10.160  0.6884  0.4760  0.1973
51768SOL    HW159989   3.851   1.392  10.225  0.5063  0.9558  0.4158
51768SOL    HW259990   3.970   1.379  10.132 -0.6575 -0.5487 -0.9074
51769SOL     OW59991   6.956   0.723  11.012 -0.1069 -0.1736 -0.0083
51769SOL    HW159992   6.918   0.669  11.081  0.0809 -0.7569 -0.3566
51769SOL    HW259993   6.978   0.805  11.056  0.4076 -0.6945  0.7288
51770SOL     OW59994   0.872  11.506   2.101 -0.0442  0.3903  0.1366
51770SOL    HW159995   0.943  11.443   2.111 -0.8745 -0.5290  0.3876
51770SOL    HW259996   0.792  11.455   2.113 -0.7535  1.4268  0.0039
51771SOL     OW59997  10.200   9.682   4.096 -0.2813 -0.2955 -0.7951
51771SOL    HW159998  10.148   9.748   4.050 -3.5458 -1.5963  0.6859
51771SOL    HW259999  10.214   9.718   4.183  1.5653  0.0895 -1.2052
51772SOL     OW60000   5.444   5.142   1.877 -0.1636  0.0025  0.2549
51772SOL    HW160001   5.391   5.213   1.915  2.0745  1.4491  0.8613
51772SOL    HW260002   5.477   5.094   1.953 -1.3254 -1.4941 -0.1441
51773SOL     OW60003  10.199  11.064  11.913  0.0393  0.5550 -0.3061
51773SOL    HW160004  10.254  11.022  11.980 -0.5311  1.3779  0.7096
51773SOL    HW260005  10.144  11.125  11.962  0.6283  2.2807 -1.6919
51774SOL     OW60006   7.059   3.432   8.440  0.2021 -0.2309  0.9883
51774SOL    HW160007   6.975   3.471   8.415 -0.1621 -1.2678  0.4982
51774SOL    HW260008   7.115   3.446   8.364 -0.8931 -3.3459 -0.5832
51775SOL     OW60009  11.105   5.289   1.788 -0.4137  0.3778 -0.4153
51775SOL    HW160010  11.200   5.300   1.783 -0.1943 -1.2031 -0.2372
51775SOL    HW260011  11.079   5.341   1.865  0.5301 -0.3594  0.4319
51776SOL     OW60012   3.274   4.910   1.092  0.4321  0.4090  0.1977
51776SOL    HW160013   3.211   4.856   1.140 -2.4787  2.0792 -1.4859
51776SOL    HW260014   3.270   4.995   1.136  4.3151 -0.2343  2.2677
51777SOL     OW60015   5.702   6.793  10.504 -0.4411 -0.1313 -0.0992
51777SOL    HW160016   5.794   6.816  10.514 -1.1048  2.9089 -0.1373
51777SOL    HW260017   5.675   6.834  10.422 -1.7418 -1.4148 -0.3623
51778SOL     OW60018   5.313  11.099   1.044  0.2406 -0.3947  0.5953
51778SOL    HW160019   5.274  11.054   0.969  0.9531 -2.7324  1.5498
51778SOL    HW260020   5.242  11.154   1.078 -0.5716 -0.5147 -0.8123
51779SOL     OW60021   0.159   1.608   4.208  0.1961 -0.5849 -0.1193
51779SOL    HW160022   0.176   1.559   4.288  2.0836  0.8626  0.4396
51779SOL    HW260023   0.147   1.698   4.237  0.7314 -0.0630 -1.4485
51780SOL     OW60024   3.415   2.603   5.024 -0.0099  0.2941  0.0536
51780SOL    HW160025   3.362   2.588   4.946 -0.3945 -0.7462  0.4895
51780SOL    HW260026   3.486   2.539   5.018  0.0495  0.3167  0.4702
51781SOL     OW60027   0.070   3.502   2.625  0.3566 -0.4921  0.1356
51781SOL    HW160028   0.051   3.575   2.566 -0.2889  0.8701  1.9323
51781SOL    HW260029   0.153   3.466   2.593  1.0095  1.4281 -0.4571
51782SOL     OW60030   1.635   6.795   7.784  0.3363 -0.1245 -0.3550
51782SOL    HW160031   1.560   6.782   7.725  0.9412  1.4759 -1.5512
51782SOL    HW260032   1.654   6.707   7.818 -2.0920 -0.5868  0.0456
51783SOL     OW60033   9.018   4.169  10.486 -0.4663 -0.6040 -0.4570
51783SOL    HW160034   8.961   4.219  10.545 -2.0336  0.2239 -2.5380
51783SOL    HW260035   8.963   4.151  10.409  1.7581 -0.7392 -2.1155
51784SOL     OW60036  11.744   9.802   3.031 -0.0714 -0.5141 -0.1451
51784SOL    HW160037  11.685   9.771   2.962 -0.0166 -1.0463  0.0477
51784SOL    HW260038  11.769   9.723   3.079 -0.8483 -0.0399  1.0821
51785SOL     OW60039   4.791   6.861  10.805  0.3737 -0.2442  0.0865
51785SOL    HW160040   4.799   6.906  10.889  0.7344  0.1739 -0.1690
51785SOL    HW260041   4.834   6.776  10.819  0.1125 -0.3239  0.4264
51786SOL     OW60042   5.453   8.450  10.051 -0.0384 -0.1275  0.5227
51786SOL    HW160043   5.359   8.464  10.037  0.1092 -1.4339 -2.8501
51786SOL    HW260044   5.457   8.378  10.114 -1.5836 -2.4910 -1.8004
51787SOL     OW60045   2.000   4.622   0.381 -0.2110 -0.3821 -0.0644
51787SOL    HW160046   2.068   4.596   0.319 -0.7195  3.2912 -2.4786
51787SOL    HW260047   1.972   4.540   0.421  3.0172 -2.4927 -1.6485
51788SOL     OW60048   5.351   3.967   6.163 -0.3114 -0.1831  0.3219
51788SOL    HW160049   5.399   3.892   6.128 -1.5187 -1.7075  1.7488
51788SOL    HW260050   5.284   3.928   6.219 -0.6476  2.0028  1.5394
51789SOL     OW60051   3.375   5.456  10.218 -0.1228 -0.0729  0.0123
51789SOL    HW160052   3.353   5.386  10.156 -1.8053  0.6640 -0.2735
51789SOL    HW260053   3.298   5.512  10.219  0.8557  1.3155  0.8948
51790SOL     OW60054  11.102   9.941   3.511  0.4168 -0.4065  0.3509
51790SOL    HW160055  11.143  10.002   3.450  0.5089 -1.0998 -0.2913
51790SOL    HW260056  11.175   9.893   3.550  0.2408 -2.6212 -1.8193
51791SOL     OW60057   0.541   5.331   7.523  0.1162  0.3347 -0.2260
51791SOL    HW160058   0.607   5.348   7.456 -0.3170  2.1017 -0.2661
51791SOL    HW260059   0.512   5.418   7.550 -0.0408 -0.3429  1.9517
51792SOL     OW60060   3.084   0.273   8.427  0.1064 -0.5253 -0.4064
51792SOL    HW160061   3.101   0.182   8.448  1.2772  0.0361  1.2978
51792SOL    HW260062   3.169   0.316   8.433 -0.3178  0.5787 -1.8032
51793SOL     OW60063  10.610   1.363   4.115  0.2003 -0.0397 -0.4408
51793SOL    HW160064  10.621   1.272   4.142 -0.5068  0.3454  1.3019
51793SOL    HW260065  10.564   1.404   4.188  0.9699  1.8443 -0.9587
51794SOL     OW60066  10.944   8.421  11.898 -0.1403 -0.1057  0.2930
51794SOL    HW160067  10.880   8.360  11.862  0.7471 -0.4664 -0.7158
51794SOL    HW260068  10.946   8.494  11.836 -0.1022  0.2510  0.7067
51795SOL     OW60069   8.798   0.644   4.200  0.2368  0.2135  0.0729
51795SOL    HW160070   8.883   0.647   4.156 -0.3181  0.8073 -0.9870
51795SOL    HW260071   8.756   0.565   4.165 -0.1825  0.6541 -0.4294
51796SOL     OW60072  11.356   6.118   2.724 -0.2179 -0.3667 -0.0625
51796SOL    HW160073  11.383   6.060   2.795  1.5991 -0.2008 -0.5594
51796SOL    HW260074  11.266   6.142   2.746 -0.7796 -2.7454  0.5392
51797SOL     OW60075   6.877   7.484   6.210 -0.3380  0.2071 -0.6227
51797SOL    HW160076   6.800   7.431   6.229 -0.1460  0.0446 -0.2937
51797SOL    HW260077   6.850   7.574   6.231  0.1194 -0.0451  1.2757
51798SOL     OW60078   1.505   2.149   3.907 -0.4000  0.2651  0.2625
51798SOL    HW160079   1.533   2.232   3.868 -2.4963  0.7171 -0.4037
51798SOL    HW260080   1.467   2.100   3.834  2.0026 -1.9455  0.3205
51799SOL     OW60081   7.320   2.471   7.349 -0.0108 -0.2042 -0.0381
51799SOL    HW160082   7.297   2.394   7.298 -0.5343 -0.2208  0.2160
51799SOL    HW260083   7.291   2.451   7.438  1.4394 -0.4211  0.4126
51800SOL     OW60084   7.984   0.255   4.670 -0.2765 -0.0636  0.2699
51800SOL    HW160085   7.895   0.286   4.651  0.7170  2.0584 -1.3169
51800SOL    HW260086   8.031   0.333   4.697  1.3894 -0.9483  0.0486
51801SOL     OW60087   6.407  11.859  10.533  0.5902  0.0919 -0.0499
51801SOL    HW160088   6.477  11.834  10.472  1.3125  0.0908  0.7585
51801SOL    HW260089   6.363  11.932  10.490  1.2245  0.2315 -0.4793
51802SOL     OW60090  10.828  10.568  10.994 -0.4942  0.6355  0.3546
51802SOL    HW160091  10.780  10.486  11.006  2.1668 -1.1291 -0.1615
51802SOL    HW260092  10.862  10.588  11.081  1.5976 -0.7224 -0.0823
51803SOL     OW60093   3.416  11.279   6.741 -0.2755  0.1134  0.0239
51803SOL    HW160094   3.345  11.317   6.690 -0.2712  3.1730  1.9786
51803SOL    HW260095   3.496  11.314   6.702  0.1109 -1.7788 -0.9933
51804SOL     OW60096   2.245   4.072   9.533  0.5977  0.4487 -0.1694
51804SOL    HW160097   2.270   3.981   9.550  0.0691  0.2547 -0.3960
51804SOL    HW260098   2.206   4.070   9.446 -1.3226  0.4888  0.6263
51805SOL     OW60099   2.411   5.631   5.170  0.7562  0.0680 -0.4458
51805SOL    HW160100   2.391   5.542   5.198  1.6566  0.0846  0.2801
51805SOL    HW260101   2.427   5.624   5.076  0.7944 -0.5294 -0.3995
51806SOL     OW60102   7.546  11.293   2.947  0.0133  0.2248  0.0423
51806SOL    HW160103   7.474  11.235   2.972 -0.8891  1.9542  1.6290
51806SOL    HW260104   7.527  11.317   2.856  0.6405 -2.2060 -0.8194
51807SOL     OW60105   1.175  11.018   2.968  0.1603  0.3268  0.4185
51807SOL    HW160106   1.085  11.052   2.976  0.0944 -0.3760  4.0664
51807SOL    HW260107   1.164  10.927   2.942  0.0319  0.8494 -1.5973
51808SOL     OW60108   3.300   5.927   0.006 -0.0093  0.7472 -0.3345
51808SOL    HW160109   3.336   5.994   0.064  1.3785  0.7510 -1.1787
51808SOL    HW260110   3.374   5.897  -0.046 -1.6069  2.7725 -4.1949
51809SOL     OW60111   7.833   4.182   8.687 -0.4982  0.4387 -0.4987
51809SOL    HW160112   7.917   4.195   8.642 -0.4097  0.2858 -0.3772
51809SOL    HW260113   7.781   4.259   8.663  0.1449  1.2185  0.5061
51810SOL     OW60114   6.160   1.880  10.351  0.0087 -0.5187 -0.0075
51810SOL    HW160115   6.162   1.784  10.340 -0.7778 -0.4841 -0.5657
51810SOL    HW260116   6.118   1.912  10.271 -2.3940  0.0706  1.4017
51811SOL     OW60117   1.080   7.689  11.057 -0.6189 -0.2113  0.2340
51811SOL    HW160118   1.041   7.755  11.114 -1.1807  0.6318 -1.0668
51811SOL    HW260119   1.009   7.662  10.999 -0.0705 -1.0459 -0.0713
51812SOL     OW60120   2.705   4.946   4.516 -0.4210 -0.2574  0.8194
51812SOL    HW160121   2.753   5.024   4.543  1.5478 -1.6139  1.4946
51812SOL    HW260122   2.637   4.978   4.456  1.8692  1.7149 -0.9093
51813SOL     OW60123  11.949   2.783   3.801  0.9082 -0.4089 -0.0038
51813SOL    HW160124  11.899   2.858   3.834 -0.3779 -1.2853  0.0939
51813SOL    HW260125  12.029   2.784   3.854  0.6272  0.5076  0.4442
51814SOL     OW60126   5.991   7.916   5.881  0.3313  0.0709 -0.0178
51814SOL    HW160127   5.953   7.913   5.794  0.3746 -0.3715 -0.0228
51814SOL    HW260128   5.998   7.824   5.908  0.6162  0.1886  0.3206
51815SOL     OW60129   1.563   8.716   7.545  0.0182 -0.1524  0.0815
51815SOL    HW160130   1.584   8.776   7.473  1.2756 -0.6328  0.0272
51815SOL    HW260131   1.610   8.752   7.621 -1.5918  0.5593  0.7912
51816SOL     OW60132   5.258   3.788   8.840 -0.1032  1.0672  0.3032
51816SOL    HW160133   5.318   3.860   8.862 -0.0084  1.0728  0.0318
51816SOL    HW260134   5.283   3.717   8.900  0.7144  0.7906 -0.3536
51817SOL     OW60135  11.217  11.100  11.726  0.1587  0.1968  0.3017
51817SOL    HW160136  11.149  11.137  11.670  0.1223 -1.1608 -0.5859
51817SOL    HW260137  11.297  11.146  11.701 -0.3426  1.5628  1.1164
51818SOL     OW60138   7.105   8.812   1.665  0.3069 -0.1429  0.2233
51818SOL    HW160139   7.038   8.800   1.597  0.8000 -1.2717 -0.0946
51818SOL    HW260140   7.057   8.840   1.742 -0.3684  0.3530 -0.3689
51819SOL     OW60141   6.658  10.282   7.454  0.1884 -0.1661 -0.4081
51819SOL    HW160142   6.749  10.254   7.441 -0.3609 -1.5007 -1.5487
51819SOL    HW260143   6.609  10.201   7.467 -1.2407  0.2795 -2.4464
51820SOL     OW60144   4.805   1.597  10.377 -0.0898  0.2593  0.1505
51820SOL    HW160145   4.791   1.546  10.457  2.1601 -0.7912 -0.0290
51820SOL    HW260146   4.824   1.685  10.408 -1.8256  0.5036  0.5996
51821SOL     OW60147   5.109   5.848   7.978 -0.0305 -0.3819 -0.1286
51821SOL    HW160148   5.086   5.819   7.890 -1.8070 -0.8090  0.4454
51821SOL    HW260149   5.205   5.847   7.979  0.0343  0.1669 -2.2096
51822SOL     OW60150   0.454   9.202   5.989  0.1787 -0.0284 -0.7559
51822SOL    HW160151   0.429   9.277   5.936 -1.8068 -0.7466 -0.8947
51822SOL    HW260152   0.382   9.191   6.052  0.4960 -1.7157 -0.6419
51823SOL     OW60153   7.906   5.388  11.020 -0.0189 -0.3676  0.0281
51823SOL    HW160154   7.882   5.342  10.939  0.8714 -0.9840  0.0936
51823SOL    HW260155   7.889   5.480  11.001  2.8388 -0.1082 -1.9519
51824SOL     OW60156   6.993   1.716   3.128  0.2348  0.3846  0.1892
51824SOL    HW160157   6.998   1.698   3.034 -0.7897 -0.2006  0.2284
51824SOL    HW260158   6.987   1.630   3.168  0.3993  0.6443  0.7743
51825SOL     OW60159   8.528   2.002   3.823 -0.3408  0.4456 -0.3118
51825SOL    HW160160   8.461   2.063   3.855 -0.9835  0.5049 -1.6801
51825SOL    HW260161   8.521   2.007   3.728 -1.5617 -2.9276 -0.5643
51826SOL     OW60162   5.559   6.117   2.776  0.4683 -0.1472 -0.2936
51826SOL    HW160163   5.501   6.189   2.801 -0.2200 -0.6746 -0.3177
51826SOL    HW260164   5.506   6.064   2.715  0.7928 -0.9167  0.0764
51827SOL     OW60165   7.996   2.668   6.075  0.5847  0.2127 -0.4064
51827SOL    HW160166   7.966   2.598   6.134 -0.9234  1.1161 -0.0328
51827SOL    HW260167   8.009   2.743   6.133  0.7927  0.6297 -0.9922
51828SOL     OW60168   5.006  11.076   2.293 -0.0822  0.4016 -0.0702
51828SOL    HW160169   5.069  11.021   2.339 -0.1809  0.1083 -0.2829
51828SOL    HW260170   4.999  11.037   2.205  1.1363  1.7590 -0.8068
51829SOL     OW60171   9.569   8.229   0.918 -0.1330  0.6259  0.0328
51829SOL    HW160172   9.509   8.179   0.974 -0.9994  1.9426  0.3173
51829SOL    HW260173   9.556   8.320   0.944  0.3107  1.1611 -1.4923
51830SOL     OW60174   3.881   5.413   4.412  0.6226  0.4066 -0.4691
51830SOL    HW160175   3.945   5.437   4.344  2.1601 -2.8491 -0.3502
51830SOL    HW260176   3.931   5.412   4.493 -0.0939 -0.1268 -0.0173
51831SOL     OW60177  11.671   1.615   5.343  0.4563 -0.2133  0.0925
51831SOL    HW160178  11.650   1.690   5.288  1.5196 -0.9541 -1.4043
51831SOL    HW260179  11.647   1.539   5.290  3.1981 -0.9964 -0.1919
51832SOL     OW60180   6.560  11.305   7.858  0.3881  0.0182  0.4597
51832SOL    HW160181   6.539  11.216   7.830  0.6775 -0.4153  1.5491
51832SOL    HW260182   6.477  11.340   7.891  0.5745 -0.4134  1.4410
51833SOL     OW60183   0.534  11.384   0.370  0.2567  0.0809  0.4898
51833SOL    HW160184   0.549  11.467   0.325 -0.8236 -0.1181 -0.2975
51833SOL    HW260185   0.487  11.407   0.449  0.8549  0.3032  0.7857
51834SOL     OW60186   9.504   9.092   3.902  1.0257 -0.0546 -0.0950
51834SOL    HW160187   9.501   9.011   3.852 -0.3087  0.0756 -0.2598
51834SOL    HW260188   9.466   9.070   3.987  2.3931 -0.0419  0.5393
51835SOL     OW60189   7.535   0.969   8.329  0.3696 -0.1515  0.4929
51835SOL    HW160190   7.588   1.048   8.319 -1.0140  0.7256 -0.1182
51835SOL    HW260191   7.487   0.982   8.411 -1.2548  0.5389 -0.5101
51836SOL     OW60192   1.224  10.338   1.587 -0.1002  0.1150  0.2350
51836SOL    HW160193   1.223  10.427   1.622  0.4901  0.1403  0.1908
51836SOL    HW260194   1.314  10.308   1.599 -0.3027 -0.4889  0.2756
51837SOL     OW60195   2.713   5.569   5.035  0.1211  0.1909 -0.3638
51837SOL    HW160196   2.794   5.611   5.062 -0.7021  0.2431  2.3325
51837SOL    HW260197   2.687   5.517   5.111 -3.0924  1.2975 -0.5634
51838SOL     OW60198   7.786   1.648   2.481  0.5456  0.1049 -0.5094
51838SOL    HW160199   7.830   1.727   2.514  2.1204 -0.6739 -0.6580
51838SOL    HW260200   7.710   1.681   2.432  1.8468  1.6027 -1.6105
51839SOL     OW60201   8.916   3.003   1.616  0.1448 -0.3306 -0.0803
51839SOL    HW160202   9.003   3.006   1.657 -0.0936 -0.8591  0.4949
51839SOL    HW260203   8.883   3.092   1.622  0.9658  0.0549 -1.0274
51840SOL     OW60204   7.843   5.634   7.326  0.4356  0.3433  0.2390
51840SOL    HW160205   7.769   5.685   7.292  0.2096 -0.0508  0.1266
51840SOL    HW260206   7.906   5.699   7.354  0.5362  0.6928 -0.7416
51841SOL     OW60207   7.686   8.764   1.999  0.2738  0.0355 -0.4697
51841SOL    HW160208   7.707   8.786   1.908 -0.1892  0.6713 -0.4235
51841SOL    HW260209   7.648   8.844   2.035  0.7065 -0.1208  0.3676
51842SOL     OW60210   7.795   7.567   3.378  0.2337 -0.3869 -0.0996
51842SOL    HW160211   7.829   7.532   3.295 -0.7582 -0.5932 -0.4371
51842SOL    HW260212   7.871   7.606   3.420  0.6946  0.0218 -1.2604
51843SOL     OW60213   7.240   5.546   3.501 -0.2746 -0.2140 -0.1537
51843SOL    HW160214   7.183   5.481   3.542 -0.5833  1.1806  1.7693
51843SOL    HW260215   7.181   5.618   3.477  0.5294  1.0008  1.3232
51844SOL     OW60216   1.500   7.899   1.978 -0.1931 -0.3293  0.5184
51844SOL    HW160217   1.588   7.873   1.950 -1.0793 -1.0505 -1.8936
51844SOL    HW260218   1.504   7.897   2.074  2.9520  1.6848  0.6006
51845SOL     OW60219   9.906   1.279   3.153  0.5745  0.4381 -0.2917
51845SOL    HW160220   9.830   1.289   3.211  1.8448  0.3115  1.4660
51845SOL    HW260221   9.944   1.367   3.149 -1.1188  1.1925 -3.4172
51846SOL     OW60222   1.499   8.784   3.254  0.4688  0.1932  0.3251
51846SOL    HW160223   1.511   8.859   3.313  0.0909  0.3243  0.2378
51846SOL    HW260224   1.585   8.772   3.213  1.1730 -0.8899  2.0486
51847SOL     OW60225   3.069  10.485  11.303  0.3726 -0.4737  0.1424
51847SOL    HW160226   3.083  10.443  11.388 -1.5407 -0.0328  0.7316
51847SOL    HW260227   3.021  10.420  11.252 -0.2403 -0.0133  0.1186
51848SOL     OW60228   5.811   5.275  11.889 -0.0583 -0.5420  0.1243
51848SOL    HW160229   5.852   5.188  11.888 -0.3756 -0.6840 -0.5599
51848SOL    HW260230   5.741   5.270  11.824 -0.1801  0.1776  0.1912
51849SOL     OW60231   0.097   9.006   8.425 -0.0236 -0.0765 -0.0983
51849SOL    HW160232   0.143   9.059   8.490  0.3229 -0.4346 -0.0536
51849SOL    HW260233   0.123   8.916   8.443  1.2920 -0.0590 -1.6685
51850SOL     OW60234   1.529   0.081   6.958  0.7218 -0.7305  0.2956
51850SOL    HW160235   1.434   0.094   6.956  0.5803 -1.6905  0.2711
51850SOL    HW260236   1.563   0.148   6.899  0.1245  0.0918  0.8550
51851SOL     OW60237   1.093  10.038   7.649  0.0259  0.0844 -0.2773
51851SOL    HW160238   1.144  10.116   7.627  1.0814  0.2965  2.5394
51851SOL    HW260239   1.124   9.971   7.589  3.7598  0.2052  1.2667
51852SOL     OW60240   2.164   4.315  10.813 -0.0733  0.1826  0.1539
51852SOL    HW160241   2.074   4.293  10.790 -0.1519  0.1101  0.5321
51852SOL    HW260242   2.169   4.303  10.908  0.1444  0.8679  0.2380
51853SOL     OW60243   2.208  10.170   9.131 -0.2339 -0.0746  0.6740
51853SOL    HW160244   2.265  10.157   9.056 -2.5612  0.7821 -1.3921
51853SOL    HW260245   2.181  10.081   9.156  0.9275 -0.3974  0.8217
51854SOL     OW60246   0.365   8.959   2.529 -1.0510 -0.1352 -0.4319
51854SOL    HW160247   0.324   8.976   2.613 -1.3955  1.3158 -0.8679
51854SOL    HW260248   0.333   9.028   2.471  1.4797  0.7068 -0.9840
51855SOL     OW60249   8.735   1.089   7.672  0.2361 -0.0615 -0.1746
51855SOL    HW160250   8.801   1.020   7.668 -0.4630 -0.7535 -0.0298
51855SOL    HW260251   8.674   1.059   7.739 -0.3492  0.4565 -0.4724
51856SOL     OW60252   0.421   6.890   2.360 -0.0887  0.3917 -0.3125
51856SOL    HW160253   0.486   6.893   2.289 -0.5893 -1.4537 -0.8985
51856SOL    HW260254   0.450   6.818   2.416 -0.6084  0.7729  0.4676
51857SOL     OW60255   6.474   8.459  10.393 -0.4527 -0.3145 -0.2450
51857SOL    HW160256   6.458   8.367  10.410  1.2168 -0.4651  0.7572
51857SOL    HW260257   6.564   8.462  10.362 -0.3401  1.0094  0.1463
51858SOL     OW60258   1.987   1.005   5.863 -0.5502 -0.1922 -0.0176
51858SOL    HW160259   2.063   1.059   5.882 -0.2259 -1.1435  1.5375
51858SOL    HW260260   2.010   0.918   5.895 -0.7193 -1.5549 -3.2277
51859SOL     OW60261  11.941   8.653  11.352 -0.1380  0.4071  0.0002
51859SOL    HW160262  11.929   8.690  11.440 -0.4386 -0.2826  0.2540
51859SOL    HW260263  11.929   8.559  11.364  2.8289 -0.0767 -0.2160
51860SOL     OW60264   1.696   8.967   8.871 -0.4453  0.2328  0.2466
51860SOL    HW160265   1.686   9.048   8.920  0.8512 -0.0001  0.9454
51860SOL    HW260266   1.613   8.921   8.882 -0.3321  0.3792  1.8720
51861SOL     OW60267   1.821   8.397   6.855  0.1844 -0.1160 -0.1182
51861SOL    HW160268   1.740   8.345   6.853 -0.8511  1.3790  1.1418
51861SOL    HW260269   1.825   8.439   6.769 -0.8511  0.4523  0.0956
51862SOL     OW60270  11.677   2.671   0.201 -0.4269  0.0077 -0.3066
51862SOL    HW160271  11.586   2.649   0.181 -0.3981  0.2114 -0.6592
51862SOL    HW260272  11.671   2.744   0.263 -0.5024 -0.0232 -0.2770
51863SOL     OW60273  10.405   9.624   5.444 -0.3532  0.0134 -0.2618
51863SOL    HW160274  10.423   9.574   5.523  1.7428 -1.0881 -1.3617
51863SOL    HW260275  10.332   9.579   5.402 -0.6188 -0.1691  0.3975
51864SOL     OW60276   3.482   4.267  10.525  0.4177  0.3276 -0.3070
51864SOL    HW160277   3.406   4.290  10.579  0.6917 -0.1639  0.3022
51864SOL    HW260278   3.448   4.207  10.460  0.1397  0.6935 -0.5017
51865SOL     OW60279   7.132   7.964  10.278  0.1733  0.1854 -0.4102
51865SOL    HW160280   7.071   7.951  10.205  0.8631 -1.0222 -0.7905
51865SOL    HW260281   7.097   7.910  10.348  2.4251 -3.1199 -1.6267
51866SOL     OW60282   2.227   0.914  11.364  0.4662  0.0091  0.9039
51866SOL    HW160283   2.295   0.980  11.345 -0.2200  0.0862 -1.7279
51866SOL    HW260284   2.145   0.962  11.360  0.0358 -0.7563  0.1628
51867SOL     OW60285  10.041   4.283   9.280 -0.3859 -0.9272 -0.5464
51867SOL    HW160286  10.030   4.338   9.203 -0.0597 -1.0701 -0.7011
51867SOL    HW260287  10.096   4.210   9.250 -1.2358 -1.6072 -0.4730
51868SOL     OW60288   8.800   9.405   3.201 -0.4146 -0.3340 -0.0645
51868SOL    HW160289   8.783   9.453   3.282 -3.1478 -0.9499 -0.1702
51868SOL    HW260290   8.816   9.473   3.136  0.9342  0.2019  0.7966
51869SOL     OW60291   9.119   0.944   1.570  0.0798 -0.6456  0.1021
51869SOL    HW160292   9.049   0.968   1.509  0.6250 -0.6124 -0.5298
51869SOL    HW260293   9.090   0.862   1.609 -0.0594 -0.9263 -0.5747
51870SOL     OW60294   9.053  11.159   0.353 -0.6167 -0.2368  0.1714
51870SOL    HW160295   9.091  11.229   0.406  1.0859  0.0227 -1.3097
51870SOL    HW260296   9.040  11.087   0.415  1.9843 -0.2060  0.8681
51871SOL     OW60297   7.043  11.581   7.586  0.5726  0.0300 -0.6024
51871SOL    HW160298   7.045  11.659   7.642  0.3376 -0.8623  0.6967
51871SOL    HW260299   7.095  11.516   7.634 -0.9633 -1.2652 -0.5937
51872SOL     OW60300   4.306  11.689   9.965 -0.0418  0.0234  0.3291
51872SOL    HW160301   4.361  11.634  10.021  1.2267  0.3799 -0.5247
51872SOL    HW260302   4.217  11.659   9.982  0.5611 -1.9160  0.3065
51873SOL     OW60303  11.298   7.470  11.315  0.2547 -0.0913  1.2841
51873SOL    HW160304  11.243   7.494  11.240  0.8184 -0.9611  0.5804
51873SOL    HW260305  11.236   7.438  11.380 -0.2441  0.6830  1.2153
51874SOL     OW60306   4.243   1.879   5.642 -0.1369 -0.1263 -0.0646
51874SOL    HW160307   4.211   1.791   5.625 -1.1687 -0.1432  1.6977
51874SOL    HW260308   4.192   1.934   5.582  0.7699 -0.7137 -1.4322
51875SOL     OW60309   4.097   9.768   7.084  0.4902 -0.0000 -0.0553
51875SOL    HW160310   4.184   9.802   7.063  0.7792 -0.1348  0.9104
51875SOL    HW260311   4.074   9.809   7.167 -1.5991  2.2579 -1.5777
51876SOL     OW60312   6.167   7.532   2.668  0.6351 -0.4400  0.3926
51876SOL    HW160313   6.257   7.551   2.639  0.6393 -1.2983 -0.1829
51876SOL    HW260314   6.139   7.459   2.614 -0.1936 -0.5953  1.0072
51877SOL     OW60315   8.500   0.023   3.736 -0.2443 -0.5753 -0.0157
51877SOL    HW160316   8.447  -0.054   3.714  0.9402 -0.7544 -2.5617
51877SOL    HW260317   8.542   0.001   3.819 -2.3956 -1.3080  0.9429
51878SOL     OW60318   1.634   5.556   3.725  0.4543 -0.5370  0.4673
51878SOL    HW160319   1.563   5.508   3.681  1.6243 -0.5905 -1.4677
51878SOL    HW260320   1.595   5.641   3.746 -0.3472 -0.7419 -0.1064
51879SOL     OW60321   9.891   5.629   5.018  0.4275  0.0300  0.1639
51879SOL    HW160322   9.826   5.689   4.982  1.0048  1.2761  1.1197
51879SOL    HW260323   9.898   5.560   4.953 -2.7175 -0.8103  0.5776
51880SOL     OW60324  10.353   5.538   7.100 -0.8274  0.0907 -0.1413
51880SOL    HW160325  10.413   5.588   7.045 -0.5684 -0.2658 -0.1853
51880SOL    HW260326  10.394   5.538   7.187  0.2987 -1.8643 -0.6007
51881SOL     OW60327   1.212  10.074   7.245  0.2263 -0.2682 -0.5166
51881SOL    HW160328   1.234  10.136   7.315  1.2376 -0.5901 -0.5263
51881SOL    HW260329   1.214   9.988   7.288 -3.4620 -0.2244  0.0589
51882SOL     OW60330   6.862   3.906   8.417  0.5033  0.1377  0.3659
51882SOL    HW160331   6.916   3.928   8.493 -0.3404  2.1690  0.4579
51882SOL    HW260332   6.923   3.867   8.354  1.6080  0.2343  1.3477
51883SOL     OW60333  11.283   5.986  11.174  0.8078 -0.5048 -0.0559
51883SOL    HW160334  11.365   6.024  11.145  0.8111 -0.2169  0.3283
51883SOL    HW260335  11.216   6.026  11.119  0.8373 -0.1274  0.1840
51884SOL     OW60336   8.449   1.678   2.881 -0.2627 -0.4041  0.6616
51884SOL    HW160337   8.459   1.592   2.921 -1.7386 -0.3911  1.1241
51884SOL    HW260338   8.389   1.664   2.807  0.5743 -0.0085 -0.1157
51885SOL     OW60339   7.647   0.825   8.884 -0.4678 -0.3913 -0.3346
51885SOL    HW160340   7.626   0.844   8.792  0.1226 -1.4765 -0.7028
51885SOL    HW260341   7.694   0.903   8.914 -1.2776  0.2743 -0.7329
51886SOL     OW60342  11.794   0.011   5.834 -0.0444 -0.0254  0.3307
51886SOL    HW160343  11.835   0.012   5.920  0.9723  0.4736 -0.1420
51886SOL    HW260344  11.826   0.090   5.791 -0.7724 -0.1132 -0.4017
51887SOL     OW60345   2.869   1.049  11.473  0.0409 -0.0043 -0.5975
51887SOL    HW160346   2.937   1.115  11.479 -1.1509  1.2502 -0.4642
51887SOL    HW260347   2.842   1.033  11.563 -0.4583  0.1858 -0.7070
51888SOL     OW60348   6.610   7.613   6.797  0.4691 -0.3773 -0.6273
51888SOL    HW160349   6.557   7.551   6.747  2.0595 -2.2226 -0.1380
51888SOL    HW260350   6.666   7.558   6.851  0.2520  1.5183  1.6892
51889SOL     OW60351   3.327  10.314  10.600 -0.6752 -0.3551  0.3196
51889SOL    HW160352   3.363  10.366  10.672 -2.4783  0.2365  0.8243
51889SOL    HW260353   3.349  10.365  10.521 -1.0191  0.3685  0.6807
51890SOL     OW60354   3.964   7.250  10.084  0.2658  0.6804  0.1442
51890SOL    HW160355   3.903   7.221  10.151  0.0420  0.7950 -0.0111
51890SOL    HW260356   4.023   7.310  10.130 -0.5176  1.5695  0.0189
51891SOL     OW60357  10.153   8.821   2.118 -0.3450  0.2424  0.0338
51891SOL    HW160358  10.092   8.880   2.073 -0.8285  0.7442  1.2980
51891SOL    HW260359  10.098   8.753   2.155  0.1367 -0.6135 -0.7738
51892SOL     OW60360   3.316   6.462   0.901 -0.1009 -0.2556  0.3045
51892SOL    HW160361   3.385   6.417   0.853  0.1948  0.6787 -0.1744
51892SOL    HW260362   3.239   6.406   0.891 -0.1006  0.0135 -1.4484
51893SOL     OW60363   6.522   1.736  11.855  0.2745 -0.0023  0.0231
51893SOL    HW160364   6.451   1.792  11.888 -1.3382 -1.3452 -0.9948
51893SOL    HW260365   6.564   1.789  11.787  0.4970  0.9400  0.8673
51894SOL     OW60366  10.562   4.335   6.445  0.1630 -0.9338 -0.3879
51894SOL    HW160367  10.604   4.419   6.465 -0.8772 -0.6919  0.9516
51894SOL    HW260368  10.530   4.344   6.355 -2.9586  1.5100  0.7660
51895SOL     OW60369   4.813   0.597  10.946  0.0726 -0.3394 -0.1197
51895SOL    HW160370   4.904   0.620  10.928  0.2057 -1.1951 -0.6192
51895SOL    HW260371   4.819   0.523  11.006 -0.2883 -0.5653 -0.3602
51896SOL     OW60372   9.413   1.188  10.152  0.6503  0.6703 -0.3247
51896SOL    HW160373   9.389   1.114  10.208 -0.0173  1.0849 -0.0640
51896SOL    HW260374   9.362   1.175  10.072  0.8809  0.6033 -0.4628
51897SOL     OW60375   8.554   4.356   2.304 -0.3351  0.6133 -0.3320
51897SOL    HW160376   8.469   4.325   2.272  0.2533 -0.9086 -0.5368
51897SOL    HW260377   8.541   4.369   2.398 -0.6683 -0.0994 -0.2728
51898SOL     OW60378   2.152   7.508   1.308 -0.3038  0.4601 -0.6597
51898SOL    HW160379   2.097   7.570   1.259 -0.4508  1.5353  0.8057
51898SOL    HW260380   2.106   7.495   1.390  0.1989 -0.9244 -0.5734
51899SOL     OW60381   7.689   4.774   8.763  0.3357  0.3567 -0.1632
51899SOL    HW160382   7.771   4.763   8.811 -1.5171  0.9429  3.5340
51899SOL    HW260383   7.661   4.863   8.784 -0.5561  0.7164 -2.6199
51900SOL     OW60384   6.194   0.880   8.665 -0.2711 -0.6621 -0.5160
51900SOL    HW160385   6.190   0.809   8.729  1.9043 -1.9612 -1.7117
51900SOL    HW260386   6.221   0.957   8.716 -1.2577 -0.9834  0.5489
51901SOL     OW60387   6.394  10.092   4.107 -0.0405 -0.1857  0.1598
51901SOL    HW160388   6.313  10.044   4.089  0.1708 -0.3729 -0.2883
51901SOL    HW260389   6.386  10.118   4.199 -1.8880  2.1891 -0.5673
51902SOL     OW60390   4.556   0.205   7.820 -0.0736 -0.5053 -0.0730
51902SOL    HW160391   4.515   0.183   7.737 -0.4123  1.4950 -0.4899
51902SOL    HW260392   4.485   0.241   7.873  0.2872 -1.0742  0.8322
51903SOL     OW60393   4.760   9.662   4.748 -0.0234  0.1290  0.1944
51903SOL    HW160394   4.828   9.699   4.691  1.0674 -0.3762  1.1199
51903SOL    HW260395   4.751   9.725   4.819  0.5115 -0.4785  0.8117
51904SOL     OW60396  11.580   2.382  10.920  0.6638  0.0508  0.4138
51904SOL    HW160397  11.530   2.432  10.855  0.6862 -0.7728 -0.2660
51904SOL    HW260398  11.545   2.293  10.912  2.5220 -0.6556 -0.4156
51905SOL     OW60399   8.163   3.542  11.199 -0.3014  0.2497 -0.1564
51905SOL    HW160400   8.108   3.525  11.276  2.1166  0.6816  1.8101
51905SOL    HW260401   8.221   3.614  11.226  2.8170 -1.6741 -1.1016
51906SOL     OW60402   4.662   6.212   5.791  0.8751 -0.2726  0.2722
51906SOL    HW160403   4.661   6.291   5.845 -1.4093 -0.4906  0.6473
51906SOL    HW260404   4.625   6.144   5.847 -0.7140 -0.7179 -1.2510
51907SOL     OW60405   9.651   9.588   2.810  0.0582 -0.3626  0.4435
51907SOL    HW160406   9.747   9.585   2.815  0.0342 -0.4466  0.9251
51907SOL    HW260407   9.633   9.655   2.744  0.4522 -0.6336  0.0526
51908SOL     OW60408  11.958   8.918   1.911 -0.5221  0.3664 -0.4938
51908SOL    HW160409  12.016   8.986   1.878  0.2630  0.4918  1.0613
51908SOL    HW260410  11.975   8.842   1.856  1.7275  0.1551  0.3966
51909SOL     OW60411   7.852   9.039   2.829  0.5047 -0.3699  0.0057
51909SOL    HW160412   7.808   8.964   2.868  1.3231 -0.5131  0.6916
51909SOL    HW260413   7.833   9.033   2.736 -0.7123 -0.5569  0.2517
51910SOL     OW60414   1.198   4.200   8.552  0.6455 -0.1770 -0.4903
51910SOL    HW160415   1.278   4.159   8.517  1.0092  0.9006 -0.9491
51910SOL    HW260416   1.132   4.131   8.546  1.5420 -1.1155 -0.0419
51911SOL     OW60417  10.089   2.682   1.778  0.2273 -0.2039  0.0381
51911SOL    HW160418  10.103   2.588   1.762 -1.3815 -0.7609  1.5674
51911SOL    HW260419  10.163   2.725   1.735 -0.2856 -1.9606 -2.8766
51912SOL     OW60420  11.283   6.527   2.573  0.1847 -0.4870 -0.0691
51912SOL    HW160421  11.227   6.522   2.651 -1.7322 -0.7892 -1.4201
51912SOL    HW260422  11.303   6.621   2.565 -1.1809 -0.1904 -0.2662
51913SOL     OW60423   2.594   4.504   2.391 -0.0788 -0.2001 -0.2535
51913SOL    HW160424   2.512   4.465   2.361  0.0152 -0.7641  0.2133
51913SOL    HW260425   2.632   4.439   2.450  0.0284  0.6424  0.6302
51914SOL     OW60426   3.779   2.452   3.683  0.2683  0.0674 -0.7496
51914SOL    HW160427   3.714   2.518   3.705 -0.5578  0.0778 -2.9506
51914SOL    HW260428   3.798   2.409   3.766  0.3527  2.6003  0.6297
51915SOL     OW60429   1.463   6.374  10.188  0.4401 -0.3691  0.2135
51915SOL    HW160430   1.395   6.396  10.251 -1.6670 -3.2606 -0.8003
51915SOL    HW260431   1.436   6.416  10.107 -0.2770 -1.5872 -0.2113
51916SOL     OW60432   2.755   1.176   6.569 -0.2056  0.2347  0.3017
51916SOL    HW160433   2.841   1.141   6.547 -0.5077  0.3052 -1.0252
51916SOL    HW260434   2.770   1.227   6.649  0.7118 -0.8522  0.8606
51917SOL     OW60435   5.906   4.840   4.829 -0.3415  0.2032  0.4583
51917SOL    HW160436   5.872   4.887   4.752  0.4209  0.7459  0.4429
51917SOL    HW260437   5.961   4.904   4.873  0.3597 -0.5473  0.6898
51918SOL     OW60438  10.340  11.741  11.169  0.1965  0.0454  0.2729
51918SOL    HW160439  10.357  11.755  11.262 -0.9186  1.1352  0.3368
51918SOL    HW260440  10.302  11.653  11.164  0.2450 -0.0103  0.8434
51919SOL     OW60441   3.647   8.572   2.810  0.1738  0.1972 -0.6468
51919SOL    HW160442   3.565   8.522   2.814  0.4557 -0.2954 -0.9786
51919SOL    HW260443   3.621   8.658   2.777 -0.3398  0.3275  0.0729
51920SOL     OW60444  10.390   6.278  10.216  0.4955  0.1004  0.1065
51920SOL    HW160445  10.351   6.358  10.180 -0.8240 -0.4749  0.2214
51920SOL    HW260446  10.447   6.309  10.287 -1.7918  0.8186  1.7330
51921SOL     OW60447   2.727  11.747   8.421 -0.5074  0.3346 -0.3258
51921SOL    HW160448   2.748  11.767   8.330 -0.8943 -0.3500 -0.5753
51921SOL    HW260449   2.659  11.680   8.415 -0.2170 -0.0379  0.4718
51922SOL     OW60450   6.742   9.607   4.629  0.1264  0.1220  0.0557
51922SOL    HW160451   6.657   9.624   4.588 -0.2609  0.9591  1.1759
51922SOL    HW260452   6.727   9.529   4.682  1.0441 -1.9594 -2.5147
51923SOL     OW60453   5.700   0.457   0.486 -0.3530  0.1181 -0.2489
51923SOL    HW160454   5.695   0.383   0.547  0.2156  0.4152  0.1603
51923SOL    HW260455   5.613   0.497   0.490 -1.4304 -1.8168 -2.1308
51924SOL     OW60456   8.138  10.202  11.430  0.2837 -0.0356  0.0162
51924SOL    HW160457   8.164  10.209  11.338 -2.6177 -0.6801 -0.9278
51924SOL    HW260458   8.137  10.108  11.448  0.8840  0.0890  0.7448
51925SOL     OW60459   5.259   2.326   8.906  0.7063 -0.2054 -0.3365
51925SOL    HW160460   5.243   2.420   8.904  0.8445 -0.1761  0.0335
51925SOL    HW260461   5.349   2.317   8.936  1.7681 -0.3389 -3.1927
51926SOL     OW60462   2.551   5.445   1.400  0.3466 -0.0384 -0.3643
51926SOL    HW160463   2.509   5.434   1.315  0.3933 -0.7853 -0.2912
51926SOL    HW260464   2.569   5.356   1.431  3.5931  0.2209 -1.1635
51927SOL     OW60465   0.120   3.436   9.891  0.0574 -0.4125 -0.1936
51927SOL    HW160466   0.189   3.481   9.842 -0.7494 -0.0271 -1.0017
51927SOL    HW260467   0.153   3.434   9.981  1.0818 -0.1603 -0.5452
51928SOL     OW60468   7.405   8.363  11.323 -0.2442  0.1885 -0.1557
51928SOL    HW160469   7.420   8.426  11.252  1.2312 -0.7812 -0.7735
51928SOL    HW260470   7.439   8.406  11.401  2.1463 -0.3327 -0.8272
51929SOL     OW60471   2.544   5.387   5.358 -0.4963 -0.0686 -0.3957
51929SOL    HW160472   2.479   5.422   5.419 -0.0490  0.2446 -0.0867
51929SOL    HW260473   2.623   5.378   5.411  0.1071  0.9305 -1.1034
51930SOL     OW60474   1.451   7.298  11.815 -0.1625  0.1040 -0.6381
51930SOL    HW160475   1.379   7.289  11.752 -0.0666 -1.0321 -0.6018
51930SOL    HW260476   1.520   7.242  11.780 -0.3461 -1.0631  0.8144
51931SOL     OW60477   5.016   8.687   5.774 -0.6063  0.0024  0.3460
51931SOL    HW160478   4.997   8.752   5.706 -1.2050 -0.6007 -0.0680
51931SOL    HW260479   4.937   8.634   5.780  0.3065 -1.4838 -0.2065
51932SOL     OW60480   0.036   0.879   3.639  0.5834 -0.6338 -0.2381
51932SOL    HW160481  -0.045   0.844   3.676  0.2256  0.9205  0.5326
51932SOL    HW260482   0.064   0.813   3.576 -1.3833 -1.1253 -0.6766
51933SOL     OW60483   0.928   2.505   1.148  0.1135  0.0591  0.6061
51933SOL    HW160484   0.888   2.579   1.102 -0.8983 -1.6891 -1.4787
51933SOL    HW260485   0.863   2.478   1.213 -0.5215 -0.4135 -0.2106
51934SOL     OW60486   4.823   6.703   2.627  0.1021  0.7423 -0.1571
51934SOL    HW160487   4.728   6.703   2.640  0.3321  1.5282  1.9569
51934SOL    HW260488   4.841   6.784   2.580 -0.5190 -0.9740 -3.6775
51935SOL     OW60489   0.824   2.756   1.055  0.5712  0.1303  0.6854
51935SOL    HW160490   0.873   2.834   1.079  0.1848  0.2870  0.9848
51935SOL    HW260491   0.764   2.741   1.129  0.7055 -0.5021  0.6741
51936SOL     OW60492   6.818   6.882   9.061 -0.3103  0.1161  0.2646
51936SOL    HW160493   6.853   6.950   9.119 -2.1014  2.6536 -1.4672
51936SOL    HW260494   6.872   6.888   8.982 -1.2927  0.4813 -0.3995
51937SOL     OW60495  10.141  10.488   2.590  0.0878 -0.8694 -0.1012
51937SOL    HW160496  10.229  10.510   2.561  0.8429 -0.5436  2.2296
51937SOL    HW260497  10.085  10.555   2.549  0.8109 -1.3399 -1.9547
51938SOL     OW60498   3.524   5.388   4.122 -0.3147 -0.1277 -0.3367
51938SOL    HW160499   3.567   5.453   4.066 -1.6793  2.3477  1.2992
51938SOL    HW260500   3.584   5.377   4.196  0.0658 -1.0277 -0.7668
51939SOL     OW60501   4.623   9.621  10.331 -0.1871  0.4360 -0.4033
51939SOL    HW160502   4.624   9.701  10.384 -0.7378  0.5073 -0.4950
51939SOL    HW260503   4.711   9.585  10.341 -0.4403  0.1377  1.0493
51940SOL     OW60504   0.866   6.593   0.232 -0.1717  0.3483  0.4698
51940SOL    HW160505   0.837   6.682   0.249 -0.7798 -0.1203  2.0594
51940SOL    HW260506   0.823   6.540   0.299  0.5481 -1.0837 -0.1395
51941SOL     OW60507  10.869   8.566   3.471 -0.0492  0.2988  0.0218
51941SOL    HW160508  10.778   8.595   3.465 -0.8188 -1.9319 -0.0043
51941SOL    HW260509  10.870   8.507   3.545  1.2096 -0.3011 -0.4482
51942SOL     OW60510  11.198   0.574  10.619  0.0735 -0.0422 -0.0724
51942SOL    HW160511  11.264   0.506  10.625  0.4006  0.3351  0.8391
51942SOL    HW260512  11.118   0.528  10.591  0.8609 -0.3807 -1.8784
51943SOL     OW60513   1.750   5.409   3.986  0.1951 -0.5253  0.1876
51943SOL    HW160514   1.718   5.472   3.921 -1.2757 -1.1134  0.2972
51943SOL    HW260515   1.827   5.369   3.945 -0.8351 -1.0447 -1.3178
51944SOL     OW60516  11.682   3.971  10.075  0.8353  0.1899  0.3706
51944SOL    HW160517  11.640   4.057  10.086 -0.0935 -0.0696 -0.8794
51944SOL    HW260518  11.661   3.946   9.985 -0.2061 -2.0241  1.1723
51945SOL     OW60519   0.451   5.736   9.426  0.1255 -0.1552 -0.4341
51945SOL    HW160520   0.528   5.734   9.369 -1.9193  0.7238 -3.4236
51945SOL    HW260521   0.445   5.827   9.455  0.5050 -0.3592  0.3303
51946SOL     OW60522   3.347   9.515   9.274 -0.6869  0.0313 -0.1420
51946SOL    HW160523   3.308   9.571   9.207  0.5909  1.8654  0.5655
51946SOL    HW260524   3.293   9.530   9.352 -0.7698 -0.2709 -0.1418
51947SOL     OW60525   5.388  11.358   6.010  0.0196  0.2995  0.1800
51947SOL    HW160526   5.464  11.397   5.969  0.4302 -0.8956 -0.2513
51947SOL    HW260527   5.418  11.271   6.038 -0.6070  0.5868  1.8648
51948SOL     OW60528   6.658   8.277   5.594  0.3537  0.1842  0.5289
51948SOL    HW160529   6.667   8.372   5.589  2.3034 -0.0125 -0.2508
51948SOL    HW260530   6.723   8.243   5.534  0.1786 -1.6743  1.3288
51949SOL     OW60531   7.902   7.676   6.823  0.1529  0.0216  0.1259
51949SOL    HW160532   7.955   7.611   6.777 -1.6458 -0.5617 -1.2208
51949SOL    HW260533   7.848   7.625   6.884 -0.3977  0.3687 -0.0623
51950SOL     OW60534   4.203   8.904  10.176  0.1767 -1.1386  0.8485
51950SOL    HW160535   4.175   8.942  10.259  1.4404  1.5730  0.1495
51950SOL    HW260536   4.123   8.902  10.122 -0.0699 -0.0097  1.1449
51951SOL     OW60537   1.476   5.025   0.885 -0.2049  1.1271  0.0163
51951SOL    HW160538   1.385   5.022   0.855  0.6286  1.4826 -2.8491
51951SOL    HW260539   1.525   4.979   0.816  1.4716 -2.6235  3.3216
51952SOL     OW60540   8.953   4.786   0.581 -0.1968 -0.1137  0.1053
51952SOL    HW160541   8.868   4.743   0.575 -1.4120  2.0929  0.4475
51952SOL    HW260542   8.953   4.829   0.666  1.3742 -0.2719  0.2120
51953SOL     OW60543  10.694   3.991   1.948  0.1898  0.3073  0.6553
51953SOL    HW160544  10.695   4.030   2.036  0.9140 -0.9745  1.2505
51953SOL    HW260545  10.710   4.064   1.889 -0.3203  1.1967  1.5915
51954SOL     OW60546  11.769   4.131   0.184 -0.3382 -0.1332  0.8136
51954SOL    HW160547  11.841   4.177   0.139 -1.4123  1.1544  0.3435
51954SOL    HW260548  11.740   4.065   0.121 -0.3451  0.1508  0.5140
51955SOL     OW60549   1.614   2.969   6.023 -0.1847  0.2306 -0.1616
51955SOL    HW160550   1.622   2.964   5.927  0.1197  0.3044 -0.1401
51955SOL    HW260551   1.592   2.879   6.049 -0.4919  0.2567 -0.3188
51956SOL     OW60552   2.834   1.831  11.323 -0.1834 -0.3507 -0.3392
51956SOL    HW160553   2.748   1.853  11.359  0.2585  0.0026  0.5083
51956SOL    HW260554   2.885   1.801  11.398 -0.0976 -2.3065 -1.1040
51957SOL     OW60555  11.436   6.147   3.804  0.4228  0.2663  0.0568
51957SOL    HW160556  11.371   6.214   3.783  1.6945  1.6594  0.3956
51957SOL    HW260557  11.444   6.151   3.900  1.0513  0.1691  0.0140
51958SOL     OW60558   3.028   9.247   3.634  0.1803 -0.7351  0.2201
51958SOL    HW160559   3.063   9.258   3.546 -0.0662  1.1930  0.3157
51958SOL    HW260560   2.974   9.325   3.648  3.0753  0.9848  3.3702
51959SOL     OW60561   7.460   4.387   5.118  0.1646  1.0444 -0.3151
51959SOL    HW160562   7.511   4.461   5.084  2.0869  0.1151  0.4178
51959SOL    HW260563   7.406   4.426   5.187  0.5870  1.8943 -0.4461
51960SOL     OW60564  10.001   2.640   3.734  0.3435 -0.5903 -0.0358
51960SOL    HW160565   9.942   2.575   3.696  0.2456 -1.4862  1.5741
51960SOL    HW260566  10.088   2.600   3.727  0.3399 -0.7035  0.5688
51961SOL     OW60567   8.317   1.980   2.050  0.2453 -0.0608 -0.3434
51961SOL    HW160568   8.387   2.032   2.011 -0.5517  0.7381 -0.7496
51961SOL    HW260569   8.344   1.889   2.038  1.7978  0.2390  0.6305
51962SOL     OW60570  10.365   2.862   5.941  0.2786 -0.4975 -0.2115
51962SOL    HW160571  10.369   2.939   5.884 -0.4985 -1.0431 -1.0329
51962SOL    HW260572  10.292   2.880   6.000 -0.9384 -1.2447 -1.4237
51963SOL     OW60573   0.524   6.239   0.930 -0.1329  0.3810 -0.7174
51963SOL    HW160574   0.610   6.198   0.937 -0.0910  0.3529 -1.3906
51963SOL    HW260575   0.543   6.329   0.902 -0.2398  0.8014  0.4647
51964SOL     OW60576  10.061   7.065   9.885 -0.1375 -0.4045  0.3097
51964SOL    HW160577  10.011   7.135   9.927 -0.9551 -0.3482 -0.7116
51964SOL    HW260578  10.152   7.092   9.894 -0.4553  1.0070 -0.3927
51965SOL     OW60579   1.978  11.498   6.908  0.2525  0.1194  0.8476
51965SOL    HW160580   2.043  11.432   6.930  1.8576  1.7531  1.2612
51965SOL    HW260581   1.938  11.522   6.991 -3.0768 -2.8438  0.3661
51966SOL     OW60582   9.615   7.242   2.578 -0.1688  0.3917  0.0309
51966SOL    HW160583   9.674   7.262   2.650 -0.7241  0.9825  0.3359
51966SOL    HW260584   9.528   7.239   2.618 -0.1011 -4.3800  0.3813
51967SOL     OW60585   2.566   3.527   7.019 -0.0127  0.3011  0.2911
51967SOL    HW160586   2.494   3.581   7.051 -0.0094 -0.2544  1.2956
51967SOL    HW260587   2.632   3.532   7.089  1.2094  1.3112 -0.8821
51968SOL     OW60588   0.672   7.445   5.674 -0.2853  0.1385  0.9166
51968SOL    HW160589   0.579   7.442   5.652 -0.1943  1.3314  0.2758
51968SOL    HW260590   0.713   7.489   5.599  0.6798  0.3439  1.5433
51969SOL     OW60591   4.757   9.925   6.971 -0.3478 -0.6914 -0.1173
51969SOL    HW160592   4.705   9.845   6.963  1.4585 -2.0451  0.8652
51969SOL    HW260593   4.739   9.958   7.059 -0.8133 -0.1824 -0.3921
51970SOL     OW60594   0.848   6.614   6.834 -0.1590  0.7080  0.1594
51970SOL    HW160595   0.833   6.524   6.806 -0.1263  0.8625 -0.3681
51970SOL    HW260596   0.769   6.661   6.808  0.2534  1.0390 -0.4946
51971SOL     OW60597   6.841   6.501   1.003 -0.5645  0.2642  0.1413
51971SOL    HW160598   6.772   6.437   0.986  0.6354 -1.2285  0.6847
51971SOL    HW260599   6.909   6.482   0.938  0.1616  0.4302  0.8331
51972SOL     OW60600   4.522   7.355   3.194  0.1525 -0.0378 -0.3379
51972SOL    HW160601   4.431   7.376   3.171 -0.4319 -1.6406  0.3706
51972SOL    HW260602   4.565   7.440   3.199 -1.0187  0.7010 -1.8169
51973SOL     OW60603   4.333   8.646  11.660  0.3297  0.0527  0.4093
51973SOL    HW160604   4.371   8.601  11.584 -0.7704  0.2862 -0.2945
51973SOL    HW260605   4.321   8.736  11.631 -2.3931 -0.3849 -0.0313
51974SOL     OW60606   8.981  10.215   2.286  0.6752 -0.3520  0.2813
51974SOL    HW160607   9.061  10.187   2.329 -0.1595 -2.7971  0.4072
51974SOL    HW260608   8.911  10.189   2.346 -0.2409  2.3262  0.4925
51975SOL     OW60609   9.269   4.942   9.659  0.4946 -0.2568 -0.1266
51975SOL    HW160610   9.322   4.967   9.583  0.9334 -0.5246  0.0900
51975SOL    HW260611   9.310   4.862   9.692 -0.4625 -0.8796 -0.3814
51976SOL     OW60612   7.683  11.521   0.935 -0.1336  0.3584 -0.0692
51976SOL    HW160613   7.608  11.496   0.882 -0.6206  1.3905  0.0982
51976SOL    HW260614   7.651  11.593   0.990  0.8930  0.6253  0.2168
51977SOL     OW60615   7.694   6.489  11.669 -0.3444  0.6984 -0.0198
51977SOL    HW160616   7.757   6.433  11.716 -0.5846 -0.2145 -0.7670
51977SOL    HW260617   7.657   6.433  11.601 -0.7196  1.7201 -0.6912
51978SOL     OW60618   4.389   5.061   6.915 -0.0136  0.4450 -0.4852
51978SOL    HW160619   4.423   5.091   6.999  1.0341  0.9864 -1.0928
51978SOL    HW260620   4.315   5.004   6.938  1.5155 -1.0842  0.8802
51979SOL     OW60621   7.510   2.415   3.914 -0.0832 -0.6908 -0.1876
51979SOL    HW160622   7.537   2.497   3.873  0.3277 -0.5020  0.4446
51979SOL    HW260623   7.465   2.367   3.845  0.0183 -0.0980 -0.6705
51980SOL     OW60624  10.960   6.127  11.263  0.3103 -0.0118  0.1562
51980SOL    HW160625  10.972   6.213  11.222 -0.8824  0.5376  0.8875
51980SOL    HW260626  10.930   6.147  11.352  0.8951 -1.1914  0.6481
51981SOL     OW60627   4.586   3.487   5.875  0.2721 -0.0090 -0.5996
51981SOL    HW160628   4.518   3.428   5.909  0.6616 -1.3495 -2.0144
51981SOL    HW260629   4.668   3.447   5.903  0.5198  0.6296 -0.4129
51982SOL     OW60630  11.008   8.507   5.064  0.2949  0.2443 -0.7912
51982SOL    HW160631  11.064   8.518   5.141 -0.6345  0.0365 -0.0676
51982SOL    HW260632  11.010   8.413   5.047  0.4541  0.2827 -0.9962
51983SOL     OW60633   3.457  10.880   2.637  0.3378 -0.5636 -0.1023
51983SOL    HW160634   3.376  10.879   2.586  1.7472 -1.4383 -2.4310
51983SOL    HW260635   3.458  10.967   2.678 -1.3786 -0.2521 -0.6276
51984SOL     OW60636   1.352   9.456   2.182  0.7380  0.1625 -0.1541
51984SOL    HW160637   1.385   9.488   2.267 -1.7964  0.0596  0.9583
51984SOL    HW260638   1.306   9.375   2.203  1.2752 -0.6272 -1.8849
51985SOL     OW60639   4.762  10.063   5.900 -0.2014  0.3129 -0.6950
51985SOL    HW160640   4.727   9.980   5.932 -1.6701  1.0600 -0.2771
51985SOL    HW260641   4.733  10.069   5.809 -0.2194  0.4446 -0.6809
51986SOL     OW60642  11.778   2.254   7.853 -0.2466 -0.0580 -0.1370
51986SOL    HW160643  11.816   2.314   7.917 -0.8399 -0.8188  0.9473
51986SOL    HW260644  11.810   2.287   7.769  0.4200  1.0531  0.5170
51987SOL     OW60645   6.083   0.568   5.181 -0.1780 -0.0170 -0.5593
51987SOL    HW160646   6.036   0.568   5.264  0.1727  1.1145 -0.3572
51987SOL    HW260647   6.025   0.521   5.121 -1.6684  1.4801 -0.3534
51988SOL     OW60648   2.252   5.413   2.766 -0.3478  0.1894 -0.0612
51988SOL    HW160649   2.274   5.357   2.692  1.9093  0.0435  0.6574
51988SOL    HW260650   2.282   5.365   2.843 -0.5495  1.3420  0.7642
51989SOL     OW60651   4.895   8.813  10.323  0.1070  0.0564  0.2150
51989SOL    HW160652   4.799   8.817  10.328  0.0943 -0.0257  0.0487
51989SOL    HW260653   4.924   8.899  10.354  0.0169 -0.2263  1.0977
51990SOL     OW60654   6.333   5.449   0.920  0.3470 -0.2717  0.0079
51990SOL    HW160655   6.238   5.442   0.933  0.2395 -0.2294 -0.6841
51990SOL    HW260656   6.360   5.361   0.893  0.5367 -0.3312  0.3941
51991SOL     OW60657   1.771  10.674  10.498 -0.2804 -0.0647  0.4002
51991SOL    HW160658   1.833  10.740  10.468 -0.0919  0.3749  1.6917
51991SOL    HW260659   1.704  10.724  10.544 -1.9996 -0.4640 -1.5319
51992SOL     OW60660  11.106  10.325   2.106  0.0472 -0.0353 -0.0377
51992SOL    HW160661  11.126  10.371   2.024  1.5692 -0.0259  0.3018
51992SOL    HW260662  11.020  10.358   2.132  0.6467  1.9052 -0.3214
51993SOL     OW60663   5.540   5.604   4.236  0.7327 -0.2807 -0.1734
51993SOL    HW160664   5.453   5.643   4.236  0.9405  0.2212  1.3795
51993SOL    HW260665   5.544   5.554   4.154 -0.8965 -0.0775 -0.3971
51994SOL     OW60666  10.310   1.833   4.502  0.1715 -0.1325  0.3048
51994SOL    HW160667  10.267   1.785   4.431  1.3153  0.3256 -0.7445
51994SOL    HW260668  10.389   1.781   4.521 -0.9231 -1.1498  2.4290
51995SOL     OW60669   4.074   3.221   1.037  0.5529 -0.0344 -0.0585
51995SOL    HW160670   4.046   3.225   1.129 -0.5013 -0.5838 -0.3356
51995SOL    HW260671   3.992   3.211   0.988  1.0847  0.5052 -1.0815
51996SOL     OW60672   4.160   4.563   4.967  0.2665 -0.0849  0.1965
51996SOL    HW160673   4.067   4.575   4.986  0.1874  0.4512 -0.5024
51996SOL    HW260674   4.202   4.567   5.053 -0.3211 -0.0041  0.4890
51997SOL     OW60675   7.396  11.524   6.435 -0.6015  0.1635 -0.0099
51997SOL    HW160676   7.357  11.504   6.519 -0.5996  0.6981  0.1259
51997SOL    HW260677   7.357  11.462   6.374  0.5391 -1.2602  0.6514
51998SOL     OW60678   0.161   2.782  11.367 -0.1539 -0.2008 -0.2527
51998SOL    HW160679   0.092   2.846  11.386 -0.1534 -0.1142 -0.5358
51998SOL    HW260680   0.139   2.748  11.280  1.5391  1.6692 -1.5155
51999SOL     OW60681   3.288   5.834   6.926 -0.3307 -0.4610  0.0724
51999SOL    HW160682   3.370   5.812   6.882 -0.1666  0.4943 -0.1310
51999SOL    HW260683   3.240   5.751   6.930  1.2733 -1.3714  1.6145
52000SOL     OW60684   1.378   8.932   1.265  0.5159 -0.0271  0.2801
52000SOL    HW160685   1.317   8.905   1.334  0.7732 -1.1755  0.0842
52000SOL    HW260686   1.378   8.859   1.203  1.1215  0.5182 -0.3766
52001SOL     OW60687   0.905   4.561  10.727  0.2251  0.0519 -0.3483
52001SOL    HW160688   0.845   4.608  10.787  1.8709  0.7608  0.8186
52001SOL    HW260689   0.864   4.571  10.641 -1.0504  1.0023  0.3134
52002SOL     OW60690   8.743   5.482   5.127 -0.3811 -0.3628  0.4679
52002SOL    HW160691   8.792   5.559   5.155  0.0017 -1.9847  5.2014
52002SOL    HW260692   8.651   5.506   5.143 -0.4869 -0.0811 -0.5109
52003SOL     OW60693   3.188   3.585   6.390  0.5977  0.4943  0.4551
52003SOL    HW160694   3.202   3.667   6.437 -3.0341  0.6524  1.5342
52003SOL    HW260695   3.109   3.548   6.429  0.1714 -1.8497 -2.3137
52004SOL     OW60696   1.657   7.474   7.955 -0.5972 -0.1702 -0.2786
52004SOL    HW160697   1.579   7.486   7.901 -0.3365  2.1909 -0.2261
52004SOL    HW260698   1.649   7.540   8.023 -0.6576 -2.7205  2.3717
52005SOL     OW60699   2.230  10.143   2.285  0.4979 -0.0209  0.2009
52005SOL    HW160700   2.238  10.096   2.368  2.3569  1.1797  0.7663
52005SOL    HW260701   2.262  10.082   2.219  1.2193 -0.1970  0.7014
52006SOL     OW60702  10.263   9.810   3.581  0.1695 -0.4066 -0.5775
52006SOL    HW160703  10.176   9.772   3.595 -0.0418  0.7258  1.6192
52006SOL    HW260704  10.246   9.900   3.555  0.6143  0.4399  1.8351
52007SOL     OW60705  11.097   3.400   0.426 -0.4707  0.4288  0.4099
52007SOL    HW160706  11.010   3.385   0.464 -1.1337  0.6908 -0.9348
52007SOL    HW260707  11.116   3.320   0.377 -0.4802  0.8212 -0.2483
52008SOL     OW60708   1.241  11.917   9.894 -0.4060  0.4648  0.0614
52008SOL    HW160709   1.260  11.835   9.940 -0.9883  1.2391  1.7743
52008SOL    HW260710   1.208  11.890   9.808  0.7937 -1.0378  0.0280
52009SOL     OW60711   6.735   1.943   8.662 -0.4127 -0.6517 -0.4391
52009SOL    HW160712   6.740   1.848   8.656 -1.4797 -0.6960 -0.7293
52009SOL    HW260713   6.667   1.968   8.600  0.1980  0.3555 -0.7416
52010SOL     OW60714   5.555   1.878   6.617 -0.5234 -0.4734 -0.7092
52010SOL    HW160715   5.486   1.858   6.553 -0.7845 -0.6820 -0.3689
52010SOL    HW260716   5.590   1.962   6.589  0.6498 -1.4336 -2.2131
52011SOL     OW60717  11.432   2.472   8.232 -0.1227  0.6652 -0.5295
52011SOL    HW160718  11.436   2.462   8.137 -2.7879  0.4428 -0.7056
52011SOL    HW260719  11.379   2.550   8.246  0.5679  0.9359  0.7942
52012SOL     OW60720   1.095   6.902  11.068  0.2729  0.2240 -0.0068
52012SOL    HW160721   1.180   6.940  11.047 -0.5709  1.8950 -0.6120
52012SOL    HW260722   1.032   6.960  11.025 -1.1867 -0.8058  0.6608
52013SOL     OW60723   4.683  10.256  10.544  0.5177 -0.0161 -0.3057
52013SOL    HW160724   4.758  10.244  10.603 -0.1909 -2.3353  0.2079
52013SOL    HW260725   4.676  10.173  10.496 -1.3798  0.3556 -0.7560
52014SOL     OW60726  11.725   2.599  11.001 -0.2596 -0.1219  0.0673
52014SOL    HW160727  11.707   2.507  10.983 -0.5406  0.2606 -1.7447
52014SOL    HW260728  11.723   2.605  11.097 -0.3566 -1.9587  0.2190
52015SOL     OW60729   5.309   9.991   1.700 -0.8086 -0.8158  0.4337
52015SOL    HW160730   5.345  10.048   1.767  0.7192 -0.7344 -0.4188
52015SOL    HW260731   5.232  10.039   1.667 -0.5641 -0.0686  0.9265
52016SOL     OW60732   4.394   8.785  10.005  0.5057 -0.0608  0.2121
52016SOL    HW160733   4.365   8.695   9.993 -0.1438  0.3757 -1.9240
52016SOL    HW260734   4.315   8.832  10.033  0.1715  0.3045 -1.2680
52017SOL     OW60735   5.929   8.341  10.851 -0.5324  0.0665  0.1963
52017SOL    HW160736   5.915   8.399  10.776  0.3942  1.1234  0.8044
52017SOL    HW260737   5.899   8.391  10.926  0.2505 -0.2404  0.7319
52018SOL     OW60738   1.014   2.874   8.957  0.1369  0.1629 -0.1470
52018SOL    HW160739   0.957   2.931   8.906 -0.2265 -0.9867 -1.0620
52018SOL    HW260740   1.057   2.819   8.892 -1.9298 -2.8178  0.8360
52019SOL     OW60741   3.537   4.468   4.076 -0.0941  0.1565  0.2432
52019SOL    HW160742   3.537   4.563   4.084 -0.3506  0.3214 -1.3425
52019SOL    HW260743   3.446   4.442   4.088 -0.1713  0.2082 -0.2199
52020SOL     OW60744   5.613   9.846   5.327 -0.1136 -0.4549 -0.0342
52020SOL    HW160745   5.705   9.871   5.317 -0.4935  0.8335 -0.5083
52020SOL    HW260746   5.597   9.849   5.421 -0.1425  1.2212 -0.0605
52021SOL     OW60747  11.486  11.394   0.487  0.2380 -0.0688  0.5070
52021SOL    HW160748  11.469  11.336   0.561  0.8157 -0.1740  0.5635
52021SOL    HW260749  11.581  11.408   0.489  0.2745 -0.1466 -0.2641
52022SOL     OW60750   0.652   6.433   4.357 -0.0242  0.2571 -0.4707
52022SOL    HW160751   0.635   6.504   4.295 -1.7108  1.0205  0.7937
52022SOL    HW260752   0.592   6.449   4.429  1.4040 -0.9854  1.0839
52023SOL     OW60753   7.021   6.484   9.426  0.1070  0.3105  0.5014
52023SOL    HW160754   7.009   6.574   9.456 -0.4736  0.4098  0.0016
52023SOL    HW260755   7.093   6.490   9.363  0.1355  0.4067  0.5425
52024SOL     OW60756   1.812   6.529   5.193  0.0146 -0.0338  0.1721
52024SOL    HW160757   1.826   6.622   5.207  3.0086 -0.5888  1.5567
52024SOL    HW260758   1.842   6.513   5.103 -0.5985  0.3251 -0.1020
52025SOL     OW60759   9.879   9.280   2.280  0.6005 -0.0452  0.2649
52025SOL    HW160760   9.929   9.321   2.351 -0.7116  0.8576  0.7039
52025SOL    HW260761   9.829   9.352   2.242  0.3417 -0.7571 -0.7821
52026SOL     OW60762   2.598   7.826   0.336 -0.2636 -0.2074 -0.4295
52026SOL    HW160763   2.603   7.859   0.426  1.5309 -1.7674  0.1119
52026SOL    HW260764   2.511   7.852   0.306 -0.6401  0.9776  1.4927
52027SOL     OW60765   3.798   7.326   6.629 -0.2579 -0.0299  0.0271
52027SOL    HW160766   3.847   7.408   6.625 -0.3326  0.1036  1.5653
52027SOL    HW260767   3.713   7.350   6.666  0.8219 -1.2162  3.6353
52028SOL     OW60768   8.784   8.602   1.129 -0.1119 -0.0465  0.0158
52028SOL    HW160769   8.688   8.601   1.127 -0.1403 -0.5177  0.9538
52028SOL    HW260770   8.806   8.654   1.206  0.3570 -0.9443  0.5049
52029SOL     OW60771   8.265   4.141   0.043 -0.3814 -0.4645 -0.2758
52029SOL    HW160772   8.226   4.208  -0.013 -1.4647  0.2941  1.3128
52029SOL    HW260773   8.190   4.096   0.082  0.2829 -0.1927  1.4377
52030SOL     OW60774   3.108   0.257   2.470 -0.4016  0.0453  0.0866
52030SOL    HW160775   3.101   0.252   2.566 -0.9147 -1.2005 -0.0021
52030SOL    HW260776   3.202   0.263   2.453 -0.2331 -0.9368  0.6270
52031SOL     OW60777   9.534   9.592   5.584  0.4341 -0.4398 -0.4103
52031SOL    HW160778   9.551   9.559   5.672 -0.2211  0.2133 -0.0276
52031SOL    HW260779   9.510   9.515   5.534 -0.8907 -0.5990  0.4220
52032SOL     OW60780   3.931   6.063   2.110 -0.7663  0.3991  0.0032
52032SOL    HW160781   3.911   6.106   2.028 -0.6840  1.5302  0.5577
52032SOL    HW260782   3.980   5.984   2.085  0.1996  1.2763 -0.9850
52033SOL     OW60783   3.779  11.877   4.078 -0.2535 -0.4920  0.2196
52033SOL    HW160784   3.702  11.868   4.023 -0.1581  0.3084 -0.0644
52033SOL    HW260785   3.844  11.819   4.038 -0.3233 -0.2435 -0.2604
52034SOL     OW60786   6.486   8.441  10.045  0.8036 -0.1904 -0.3457
52034SOL    HW160787   6.532   8.365  10.079  1.9699  0.2034 -0.9702
52034SOL    HW260788   6.552   8.510  10.042 -0.6097  1.3873  1.8245
52035SOL     OW60789  10.194   8.085   6.944 -0.7374 -0.0240  0.1035
52035SOL    HW160790  10.252   8.037   6.885  2.0162  0.5536  2.1437
52035SOL    HW260791  10.145   8.144   6.886 -1.7869 -2.7604 -2.0766
52036SOL     OW60792   4.160   8.209   1.489  0.0488 -0.1949  0.6140
52036SOL    HW160793   4.111   8.281   1.450 -1.0598 -1.3756 -0.2603
52036SOL    HW260794   4.172   8.146   1.418 -1.5989 -2.1883  1.9804
52037SOL     OW60795   7.945   7.885   7.683  0.4635 -0.2992  0.1756
52037SOL    HW160796   7.865   7.936   7.674 -0.0292 -1.0578  0.1582
52037SOL    HW260797   7.926   7.821   7.752  1.3268  0.0197  0.7250
52038SOL     OW60798   1.072   4.792   9.010  0.3003 -0.7287  0.0312
52038SOL    HW160799   1.121   4.793   8.928 -0.2092 -0.0891 -0.2787
52038SOL    HW260800   1.138   4.776   9.077  0.9799  0.2929 -0.3654
52039SOL     OW60801   1.253   9.155   5.988  0.4561 -0.1510 -0.2026
52039SOL    HW160802   1.332   9.130   6.038 -0.2881 -0.6691  0.7481
52039SOL    HW260803   1.180   9.132   6.046 -0.3860  0.7941 -0.8616
52040SOL     OW60804   0.336   1.325   8.577  0.2214 -0.1660  0.2049
52040SOL    HW160805   0.303   1.242   8.611  1.1363 -1.1645 -1.2416
52040SOL    HW260806   0.352   1.378   8.655 -1.7435 -0.7749  1.0895
52041SOL     OW60807  11.180   4.104   1.276  0.1589  0.5400 -0.0595
52041SOL    HW160808  11.196   4.118   1.369 -1.1107  1.5977  0.0248
52041SOL    HW260809  11.191   4.010   1.264  2.1631  0.6227  0.7708
52042SOL     OW60810   9.775   4.255   5.807 -0.6210 -0.0569  0.5587
52042SOL    HW160811   9.747   4.178   5.857 -0.6151  0.9007  2.1201
52042SOL    HW260812   9.871   4.254   5.815 -0.4210 -1.0517 -1.2918
52043SOL     OW60813   2.149  10.042  10.170 -0.2940 -0.4747  0.0577
52043SOL    HW160814   2.183  10.050  10.081 -1.7834  0.8173 -0.4414
52043SOL    HW260815   2.054  10.046  10.160 -0.5328 -1.0912  1.6540
52044SOL     OW60816   5.919   5.205   4.138 -0.2326 -0.5816  0.0267
52044SOL    HW160817   5.848   5.165   4.189  0.6005 -2.3073 -0.0962
52044SOL    HW260818   5.998   5.185   4.187  0.1102  3.1546  1.3265
52045SOL     OW60819   3.422   2.613   0.016 -0.0689 -0.6300 -0.2756
52045SOL    HW160820   3.507   2.606  -0.027 -0.1104 -1.7173 -0.2052
52045SOL    HW260821   3.442   2.649   0.102  0.2860 -0.6217 -0.3601
52046SOL     OW60822   0.551   7.917   3.861 -0.3325 -0.8550 -0.9094
52046SOL    HW160823   0.533   8.011   3.849  0.9077 -0.4415  0.2360
52046SOL    HW260824   0.472   7.882   3.902  0.4398  0.4525  1.9490
52047SOL     OW60825   2.164  10.397   8.897  0.2019 -0.0481  0.1092
52047SOL    HW160826   2.257  10.376   8.885  0.5500  0.9958  0.8292
52047SOL    HW260827   2.163  10.491   8.915 -1.1135  0.2134 -1.0943
52048SOL     OW60828   1.379   4.081   3.546  0.0785 -0.0998 -0.2620
52048SOL    HW160829   1.418   3.995   3.560 -1.1818 -0.9188 -1.5276
52048SOL    HW260830   1.390   4.126   3.630  3.8503 -0.1321 -0.5699
52049SOL     OW60831   1.594  11.617   3.162  0.2394 -0.0355  0.4294
52049SOL    HW160832   1.683  11.594   3.136 -0.9096 -1.3514 -2.7187
52049SOL    HW260833   1.560  11.670   3.089 -1.8366 -0.2659  1.1578
52050SOL     OW60834   4.845   2.210   1.349 -0.1735  0.1743  0.3432
52050SOL    HW160835   4.877   2.221   1.260  3.0103 -0.4780  1.2727
52050SOL    HW260836   4.852   2.116   1.366  1.3423  0.5253  1.9181
52051SOL     OW60837   1.169   5.632   2.297  0.2223  0.0164  0.2758
52051SOL    HW160838   1.265   5.638   2.302  0.2901  0.4830 -1.2621
52051SOL    HW260839   1.152   5.568   2.229 -0.5505  0.8750 -0.3614
52052SOL     OW60840   1.647  10.426   0.756 -0.0275 -0.1294 -0.3785
52052SOL    HW160841   1.656  10.341   0.715  1.5970 -0.8732  1.3897
52052SOL    HW260842   1.607  10.481   0.689 -1.4337 -2.3367 -1.4565
52053SOL     OW60843   6.237   4.098   7.162 -0.3261  0.3512  0.4819
52053SOL    HW160844   6.210   4.060   7.079 -0.8208  1.8690 -0.0787
52053SOL    HW260845   6.333   4.097   7.159 -0.3475  0.6100 -0.1954
52054SOL     OW60846   8.688   9.095   8.146  0.4321 -1.0342  0.1224
52054SOL    HW160847   8.601   9.132   8.128  0.3827 -1.8067 -1.4084
52054SOL    HW260848   8.720   9.067   8.061  1.4563 -2.3513  0.9044
52055SOL     OW60849   6.443   0.996  10.366 -0.0624 -0.2518 -0.0962
52055SOL    HW160850   6.455   0.999  10.461 -0.8904 -1.6178  0.0800
52055SOL    HW260851   6.385   1.070  10.347  0.1611  0.0719  0.4529
52056SOL     OW60852   3.849  11.923   2.433 -0.0885  0.3575  0.3077
52056SOL    HW160853   3.914  11.975   2.481  0.3344 -1.7947  2.2537
52056SOL    HW260854   3.899  11.882   2.362  0.2620  0.2336  0.6234
52057SOL     OW60855   0.567   2.837   2.792 -0.3403  0.2738  0.0880
52057SOL    HW160856   0.572   2.746   2.823 -2.6148  0.1753  0.3718
52057SOL    HW260857   0.576   2.890   2.871  4.1995  0.5795 -0.3796
52058SOL     OW60858  10.221   6.429   6.192 -0.1606  0.0274  0.5871
52058SOL    HW160859  10.259   6.489   6.256 -1.3884 -0.1946  1.5684
52058SOL    HW260860  10.135   6.407   6.229 -0.9125 -0.0789 -1.1625
52059SOL     OW60861   9.335   9.347  11.123  0.7937 -0.2680 -0.0866
52059SOL    HW160862   9.422   9.387  11.121  1.1654 -1.0420  0.0121
52059SOL    HW260863   9.317   9.332  11.216  0.8192 -0.6553 -0.1405
52060SOL     OW60864   3.889   6.559  10.834  0.0153  0.5722 -0.3206
52060SOL    HW160865   3.888   6.525  10.745 -1.3143 -0.4429  0.0519
52060SOL    HW260866   3.860   6.650  10.826  0.1616  0.5656 -0.9414
52061SOL     OW60867   5.235  11.554   0.724  0.0687  0.0828 -0.6641
52061SOL    HW160868   5.275  11.469   0.742 -0.2670  0.0712  0.0399
52061SOL    HW260869   5.224  11.555   0.629 -1.0768 -1.1990 -0.5859
52062SOL     OW60870   9.066   5.972   9.074 -0.2705  0.3259  0.0158
52062SOL    HW160871   9.036   6.047   9.023 -0.0678  0.0746 -0.4750
52062SOL    HW260872   8.986   5.936   9.112 -0.6013 -0.3040 -1.2353
52063SOL     OW60873  10.166   5.042   3.204 -0.6451 -0.0290  0.5244
52063SOL    HW160874  10.093   5.099   3.224 -1.3956 -0.7313 -0.1319
52063SOL    HW260875  10.137   4.990   3.129  0.2917 -0.7409  0.6207
52064SOL     OW60876   4.897   3.131  11.916 -0.7971 -0.4775  0.7741
52064SOL    HW160877   4.974   3.165  11.961 -1.8908  1.1887  1.5230
52064SOL    HW260878   4.840   3.100  11.987 -2.2911  1.6337  0.6208
52065SOL     OW60879   9.127  10.636   0.168 -0.0687 -0.0144  0.5209
52065SOL    HW160880   9.085  10.644   0.254  0.6793 -1.7746  1.0839
52065SOL    HW260881   9.213  10.677   0.180  0.4005 -1.0695  0.9147
52066SOL     OW60882  11.896   5.623   4.137 -0.2459 -0.0352  0.2294
52066SOL    HW160883  11.911   5.665   4.052 -3.4022  0.2745 -0.3259
52066SOL    HW260884  11.973   5.645   4.189  1.0441  1.1666 -2.0361
52067SOL     OW60885   3.144   0.839   9.680  0.2305 -0.4550  0.1252
52067SOL    HW160886   3.085   0.880   9.616 -0.3636  0.4571  1.2116
52067SOL    HW260887   3.228   0.833   9.635 -0.8236 -2.5144 -1.7461
52068SOL     OW60888   9.301  10.223   6.232 -0.2445 -0.0577  0.4954
52068SOL    HW160889   9.311  10.295   6.294  0.6650 -0.7344  1.1528
52068SOL    HW260890   9.318  10.262   6.147  0.3223  0.4893  0.8544
52069SOL     OW60891   7.738  11.989   6.525  0.2479 -0.7352  0.2492
52069SOL    HW160892   7.781  11.973   6.609  0.4051  0.9891  0.5329
52069SOL    HW260893   7.650  12.020   6.549  0.7722  1.1329 -0.1638
52070SOL     OW60894   6.618   7.654   9.573 -0.5400 -0.5282 -0.1697
52070SOL    HW160895   6.610   7.624   9.664 -0.4362 -1.2732 -0.4035
52070SOL    HW260896   6.686   7.598   9.535  0.4160  0.6949 -0.3289
52071SOL     OW60897   8.117   1.637   8.736  0.2331  0.0205  0.2144
52071SOL    HW160898   8.145   1.550   8.766  1.0407  0.4543  0.7722
52071SOL    HW260899   8.077   1.621   8.651  0.2815 -0.9129  0.3494
52072SOL     OW60900   0.861   6.281  11.485 -0.0387 -0.2649  0.6084
52072SOL    HW160901   0.928   6.349  11.486 -0.4999  0.2616 -0.8859
52072SOL    HW260902   0.842   6.268  11.392 -1.6579 -0.7404  0.9762
52073SOL     OW60903   7.369   2.131   1.049  0.6914 -0.4290 -0.3220
52073SOL    HW160904   7.445   2.114   0.993  0.1618  0.6872 -1.4325
52073SOL    HW260905   7.337   2.044   1.072  3.1923 -0.9653  1.4999
52074SOL     OW60906   9.984   6.995  10.181 -0.1357 -0.0759  0.1148
52074SOL    HW160907   9.921   6.937  10.224  0.9730 -0.0218  1.8739
52074SOL    HW260908   9.974   6.976  10.088 -3.0213  0.2236  0.2744
52075SOL     OW60909   1.102   5.278   4.982 -0.3501 -0.5101 -0.4886
52075SOL    HW160910   1.138   5.358   4.944  1.1604  0.3505  2.4495
52075SOL    HW260911   1.024   5.307   5.030  0.0278 -0.7892  0.3240
52076SOL     OW60912   5.686   8.515   4.415  0.7364  0.4741 -0.7032
52076SOL    HW160913   5.660   8.466   4.493  0.8781 -0.8577 -1.4551
52076SOL    HW260914   5.759   8.570   4.444  0.3240  0.5335  0.2542
52077SOL     OW60915   4.753   9.554   2.965 -0.6927 -0.0763 -0.3837
52077SOL    HW160916   4.716   9.511   3.042  1.7601 -1.4268  0.1206
52077SOL    HW260917   4.753   9.647   2.987  0.5182 -0.4901  1.5565
52078SOL     OW60918   7.117   0.234   7.400  0.3790 -0.0530  0.0756
52078SOL    HW160919   7.024   0.220   7.416  0.1975 -0.0508 -0.9148
52078SOL    HW260920   7.146   0.290   7.471 -0.5913  0.7318 -0.1352
52079SOL     OW60921   4.574   1.264  10.226  0.4535 -0.2567  0.4205
52079SOL    HW160922   4.602   1.193  10.168  2.1179 -1.8736  2.9707
52079SOL    HW260923   4.640   1.332  10.215 -0.4977  0.4431 -1.1802
52080SOL     OW60924   1.345   3.824   7.729  0.8198 -0.5183  0.3649
52080SOL    HW160925   1.312   3.734   7.727 -1.7185  0.3364 -0.2127
52080SOL    HW260926   1.360   3.847   7.638  0.1257  0.0566  0.3815
52081SOL     OW60927   5.618   0.296   7.248 -0.3034 -0.2143 -0.5454
52081SOL    HW160928   5.650   0.324   7.163  0.4449 -1.4832 -0.7179
52081SOL    HW260929   5.689   0.243   7.284  0.3978  2.2152  1.9533
52082SOL     OW60930  11.995   6.928   6.429 -0.9249 -0.6252  0.2485
52082SOL    HW160931  11.939   6.940   6.353  0.5991 -1.3026 -1.0520
52082SOL    HW260932  11.936   6.904   6.500 -2.5075  1.0254 -0.4285
52083SOL     OW60933  10.676   3.349   3.684  0.1723 -0.1987 -0.2628
52083SOL    HW160934  10.690   3.412   3.613 -1.1590 -1.0324 -1.3141
52083SOL    HW260935  10.737   3.278   3.665  0.3687 -0.0738 -0.1124
52084SOL     OW60936   6.425  10.364   6.313  0.6448 -0.3925 -0.2245
52084SOL    HW160937   6.404  10.451   6.278 -0.0570 -0.4609 -0.0025
52084SOL    HW260938   6.486  10.381   6.385 -0.7765  0.1022  0.9330
52085SOL     OW60939   8.418   2.083   3.283 -0.1079  0.4246  0.1645
52085SOL    HW160940   8.352   2.096   3.351  2.8778  2.9001  2.9343
52085SOL    HW260941   8.469   2.008   3.313  0.3619  0.6391 -0.0806
52086SOL     OW60942   6.045   9.294   9.004 -0.2179 -0.4981  0.0819
52086SOL    HW160943   6.137   9.265   9.008 -0.3956 -1.0012  0.6567
52086SOL    HW260944   6.013   9.259   8.920  0.4269  0.6482 -0.6676
52087SOL     OW60945   0.847   5.319  10.539 -0.4595 -0.2643  0.1285
52087SOL    HW160946   0.869   5.393  10.483  1.3781 -0.2377  0.8117
52087SOL    HW260947   0.814   5.252  10.479  0.2724  0.2199 -0.8388
52088SOL     OW60948   1.284   2.260  10.029 -0.4969  0.1578  0.0558
52088SOL    HW160949   1.270   2.238  10.121 -1.4316  1.3581  0.2373
52088SOL    HW260950   1.218   2.328  10.011 -0.3335 -0.0677 -1.5025
52089SOL     OW60951   1.815   3.956   4.330  0.5295  0.2682 -0.0212
52089SOL    HW160952   1.899   3.996   4.350 -0.2608  0.4631  3.4935
52089SOL    HW260953   1.752   4.028   4.338 -0.2713 -0.4538  0.2462
52090SOL     OW60954   0.922   4.750   2.355 -0.0515  0.2668 -0.2247
52090SOL    HW160955   0.930   4.839   2.321 -0.6255  0.2170 -0.4996
52090SOL    HW260956   0.880   4.701   2.285  1.7864 -0.6442 -0.7456
52091SOL     OW60957   1.763   2.120   1.769  0.2289  0.4261 -0.1520
52091SOL    HW160958   1.823   2.048   1.751  1.2563  1.0394  0.6603
52091SOL    HW260959   1.816   2.183   1.818 -0.8281  1.4297 -0.2613
52092SOL     OW60960   4.035   1.705   9.152  0.2071  0.3254 -0.0015
52092SOL    HW160961   4.108   1.663   9.197  0.2347  0.3810  0.0053
52092SOL    HW260962   3.976   1.734   9.222  0.9990  1.8086  0.0965
52093SOL     OW60963   5.692   2.690   8.191  0.4584  0.3879 -0.3518
52093SOL    HW160964   5.645   2.770   8.217  0.7644  0.5139 -0.1797
52093SOL    HW260965   5.776   2.722   8.157 -0.0734  0.2664 -1.8737
52094SOL     OW60966   7.271   7.449  10.705  0.5152 -0.1570 -0.0766
52094SOL    HW160967   7.326   7.374  10.728 -0.6259 -0.4231  1.9911
52094SOL    HW260968   7.264   7.445  10.610  1.7643 -1.7519 -0.1442
52095SOL     OW60969  11.238   2.288   6.161 -0.4984  0.0090 -0.2336
52095SOL    HW160970  11.266   2.318   6.248 -3.6926  0.2565  0.8369
52095SOL    HW260971  11.242   2.366   6.106 -1.0818  0.5378  0.4523
52096SOL     OW60972   3.393   9.170   1.637 -0.2758  0.1655 -0.5547
52096SOL    HW160973   3.433   9.090   1.670 -0.4806 -0.3469 -1.5211
52096SOL    HW260974   3.377   9.153   1.544 -3.0816  0.2133 -0.1620
52097SOL     OW60975   6.855   4.752   0.290  0.1349 -0.4245  0.9289
52097SOL    HW160976   6.812   4.703   0.220  1.4743 -1.1447  0.5748
52097SOL    HW260977   6.809   4.724   0.369 -0.9490 -0.1152  0.4274
52098SOL     OW60978   4.859   3.693   8.017 -0.1451 -0.0866 -0.0246
52098SOL    HW160979   4.893   3.744   8.090  0.5285 -0.3654 -0.1381
52098SOL    HW260980   4.806   3.625   8.059  1.5320 -1.2457  0.3421
52099SOL     OW60981   6.649  11.630   1.284 -1.0123 -0.6149  0.1344
52099SOL    HW160982   6.694  11.684   1.350 -0.1889 -1.5567  0.3630
52099SOL    HW260983   6.672  11.672   1.201  1.1081 -1.5902  0.1665
52100SOL     OW60984   8.196   6.061   9.801  0.3707 -0.8204  0.2775
52100SOL    HW160985   8.166   6.152   9.807  1.2373 -0.5410  0.4521
52100SOL    HW260986   8.267   6.063   9.737  0.3593 -1.3825  0.2412
52101SOL     OW60987   9.404   9.375  10.326  0.1794  0.4736 -0.6051
52101SOL    HW160988   9.448   9.451  10.364  1.9868 -0.2220 -1.1720
52101SOL    HW260989   9.442   9.366  10.239  0.3857 -1.3300 -0.3856
52102SOL     OW60990   1.947   6.040  10.049 -0.1164  0.0072 -0.2618
52102SOL    HW160991   2.035   6.007  10.072 -0.4029  0.0824  1.0405
52102SOL    HW260992   1.931   6.110  10.113 -1.7572 -1.0639  0.5461
52103SOL     OW60993   7.533   5.593   2.498  0.5721 -0.3152  0.2839
52103SOL    HW160994   7.497   5.537   2.429 -2.4305 -0.0182  1.4613
52103SOL    HW260995   7.536   5.680   2.459 -0.2271 -0.3113  0.2222
52104SOL     OW60996   6.859   3.701   7.573 -0.0237  0.8863 -0.2127
52104SOL    HW160997   6.911   3.770   7.614  0.2637  0.5537 -0.0205
52104SOL    HW260998   6.923   3.643   7.532 -0.1450 -0.2545  1.1469
52105SOL     OW60999   9.546  10.060  10.654 -0.6175  0.2817 -0.0075
52105SOL    HW161000   9.585  10.128  10.599 -0.5232  0.7779  0.6561
52105SOL    HW261001   9.526  10.104  10.736 -1.4622 -0.2688  0.0896
52106SOL     OW61002   7.753   4.525   1.049  0.4464  0.3360 -0.0241
52106SOL    HW161003   7.661   4.498   1.051  0.0224  1.6886 -0.6348
52106SOL    HW261004   7.784   4.499   0.962  0.8794 -0.8074  0.4510
52107SOL     OW61005   0.243   8.202   1.354 -0.0030 -0.0203  0.4642
52107SOL    HW161006   0.201   8.118   1.372 -0.0432 -0.0074  0.4291
52107SOL    HW261007   0.336   8.182   1.349 -0.0941 -0.2150 -0.4659
52108SOL     OW61008   0.886   4.110   3.725  0.0862 -0.4664 -0.0549
52108SOL    HW161009   0.831   4.186   3.745  0.0638 -0.6483  0.5923
52108SOL    HW261010   0.966   4.148   3.688  0.3804 -0.0751  0.9535
52109SOL     OW61011   8.970   4.185  11.754  0.0038  0.2203 -0.4822
52109SOL    HW161012   9.016   4.122  11.699  0.7004  0.7245 -0.4874
52109SOL    HW261013   8.881   4.150  11.761  0.4108 -0.8342 -0.3621
52110SOL     OW61014   4.123   0.614   5.991  0.0269  0.0731 -0.0124
52110SOL    HW161015   4.185   0.575   5.929  0.2733  0.7822 -0.2106
52110SOL    HW261016   4.038   0.579   5.964  0.2347 -0.2565 -0.2492
52111SOL     OW61017  11.108   6.205   4.917 -0.7111  0.2665  0.7310
52111SOL    HW161018  11.156   6.247   4.987 -0.6752  0.5141  0.5587
52111SOL    HW261019  11.016   6.215   4.941 -0.7424  1.1306  0.3142
52112SOL     OW61020   3.414   1.041   7.601 -0.0986 -0.6850 -0.3118
52112SOL    HW161021   3.500   1.035   7.559  0.6309 -0.8348  1.1338
52112SOL    HW261022   3.421   0.983   7.677 -1.3608 -0.4307  0.0118
52113SOL     OW61023   3.172   8.496   6.318 -0.4913  0.2554  0.4012
52113SOL    HW161024   3.152   8.520   6.227 -1.5402 -2.6719 -0.2644
52113SOL    HW261025   3.098   8.528   6.368  0.7421  3.1407  0.5590
52114SOL     OW61026   0.329   4.856   6.276  0.0531  0.1890 -0.7974
52114SOL    HW161027   0.328   4.823   6.367 -2.0114  0.6806 -0.5781
52114SOL    HW261028   0.378   4.789   6.228 -0.3709 -1.0441  0.3804
52115SOL     OW61029   4.367   7.223  11.183 -0.6021 -0.3918  0.0187
52115SOL    HW161030   4.403   7.137  11.203 -2.1796 -0.5381  2.7065
52115SOL    HW261031   4.278   7.221  11.218 -1.0779  1.9689 -0.8413
52116SOL     OW61032   7.711   9.513   6.309  0.1374 -0.4586  0.1803
52116SOL    HW161033   7.696   9.605   6.327 -1.3084 -0.9854  2.1067
52116SOL    HW261034   7.799   9.509   6.272  0.9277  1.5318  1.6465
52117SOL     OW61035   9.409   9.843  11.038  0.0590 -0.2032  0.5193
52117SOL    HW161036   9.328   9.842  11.089  0.3675  0.1047  1.0187
52117SOL    HW261037   9.383   9.811  10.952 -0.4618 -0.7471  0.8720
52118SOL     OW61038  11.417   4.506   2.533 -0.0799  0.0092  0.1221
52118SOL    HW161039  11.359   4.432   2.513  1.4400 -1.3975  0.6017
52118SOL    HW261040  11.453   4.532   2.449  0.9692 -1.2427  0.1460
52119SOL     OW61041   2.067   5.561   6.487  0.2249 -0.7050  0.4205
52119SOL    HW161042   1.975   5.560   6.462 -0.0241  1.2715  1.1065
52119SOL    HW261043   2.107   5.491   6.435 -1.1890 -0.0477 -1.6633
52120SOL     OW61044   2.064   8.882   3.709 -0.1285  0.2698  0.5966
52120SOL    HW161045   2.084   8.953   3.647 -0.6207  0.2111  0.3656
52120SOL    HW261046   2.042   8.927   3.790 -6.1884  0.8801 -0.9286
52121SOL     OW61047   7.140   3.468  10.164  0.2163 -0.4403 -0.1261
52121SOL    HW161048   7.123   3.518  10.244  2.7780 -0.9957  0.8639
52121SOL    HW261049   7.116   3.378  10.187  2.1931 -0.8486  0.5719
52122SOL     OW61050   9.176   7.292   2.386 -0.1432  0.4970  0.1904
52122SOL    HW161051   9.170   7.278   2.291 -0.0270 -0.8854  0.3542
52122SOL    HW261052   9.142   7.380   2.400 -0.2217  0.6989 -1.1284
52123SOL     OW61053   0.063   9.766  10.470 -0.1449 -0.0794 -0.0196
52123SOL    HW161054   0.108   9.764  10.386 -1.0989 -0.0900 -0.5445
52123SOL    HW261055   0.112   9.705  10.525  0.3150 -0.2929 -0.6547
52124SOL     OW61056   5.591  10.168   1.010  0.2445 -0.1896 -0.5814
52124SOL    HW161057   5.542  10.203   1.085  1.7628 -0.1292  0.4153
52124SOL    HW261058   5.638  10.244   0.975 -1.8062  0.1800 -2.7546
52125SOL     OW61059   4.107  10.459   1.257 -0.6409  0.2599  0.7323
52125SOL    HW161060   4.091  10.365   1.251 -0.4605  0.2039  1.0889
52125SOL    HW261061   4.138  10.484   1.170 -1.5507  0.1599  0.3711
52126SOL     OW61062   9.039   0.379  10.562  0.0068 -0.2385  0.5667
52126SOL    HW161063   9.002   0.360  10.476  1.1086 -0.1414  0.0507
52126SOL    HW261064   9.133   0.367  10.551  0.4302  2.0697  1.1246
52127SOL     OW61065   4.809   5.739  10.111  0.9470  0.1860 -0.4598
52127SOL    HW161066   4.893   5.705  10.141  0.8420 -1.4105 -1.8022
52127SOL    HW261067   4.786   5.807  10.174  1.9806 -1.1348  1.4207
52128SOL     OW61068   0.954   1.628   4.955  0.3685  0.0679 -0.2202
52128SOL    HW161069   0.861   1.627   4.931 -0.1230 -0.0800  1.5570
52128SOL    HW261070   0.970   1.539   4.988  1.0112  0.2456 -0.0599
52129SOL     OW61071   8.400   5.829  10.386  0.0664 -0.1115 -0.0569
52129SOL    HW161072   8.436   5.916  10.366  1.1002 -0.7921 -1.2790
52129SOL    HW261073   8.380   5.791  10.301 -1.2954 -0.7213  0.5163
52130SOL     OW61074   0.157   7.971   3.426 -0.1673  0.2814 -0.1674
52130SOL    HW161075   0.247   8.004   3.414 -0.2102  0.7130  0.6358
52130SOL    HW261076   0.167   7.875   3.422  0.3220  0.3237 -0.1238
52131SOL     OW61077  10.271   4.797   1.003  0.0294 -0.3609 -0.8484
52131SOL    HW161078  10.294   4.726   0.943  0.4215 -1.2801  0.3455
52131SOL    HW261079  10.340   4.862   0.991  1.1992 -1.3966 -0.0582
52132SOL     OW61080   0.243   6.974   3.488 -0.1364 -0.1284 -0.0706
52132SOL    HW161081   0.219   6.979   3.581 -0.9576 -0.3682 -0.2588
52132SOL    HW261082   0.303   7.047   3.475  0.0679 -0.1512  0.6709
52133SOL     OW61083  10.773   8.444   8.542  0.1287 -0.0178  0.2375
52133SOL    HW161084  10.709   8.473   8.477  1.0728 -0.2919 -0.8393
52133SOL    HW261085  10.720   8.400   8.609 -0.8702  0.3622 -0.2747
52134SOL     OW61086   2.874   9.590   0.589 -0.4323 -0.5782 -0.1722
52134SOL    HW161087   2.855   9.575   0.682  1.0008  1.0708  0.4356
52134SOL    HW261088   2.833   9.674   0.569 -0.1908 -0.6166 -0.8582
52135SOL     OW61089   6.229   1.177   0.632 -0.1875  0.2377  0.2398
52135SOL    HW161090   6.190   1.113   0.692 -1.6408 -0.1460 -1.0429
52135SOL    HW261091   6.279   1.123   0.570 -1.9373  0.2024 -1.2324
52136SOL     OW61092   2.787   7.813   4.003  0.5247  0.6789 -0.5418
52136SOL    HW161093   2.729   7.885   4.028 -1.9843 -2.1289  2.9005
52136SOL    HW261094   2.748   7.778   3.923  0.2992  1.6548 -0.8744
52137SOL     OW61095   3.743   8.640   7.481 -0.4728 -0.0752  0.0650
52137SOL    HW161096   3.799   8.669   7.553  0.8439 -0.0912 -0.9281
52137SOL    HW261097   3.664   8.695   7.489  0.1418  0.7323  0.8240
52138SOL     OW61098  11.646   2.573  10.337  0.3624  0.1118  0.7003
52138SOL    HW161099  11.728   2.560  10.385  0.7001  0.7644  0.3139
52138SOL    HW261100  11.664   2.540  10.249  0.3534  0.6517  0.4920
52139SOL     OW61101   7.892   3.500   6.708 -0.1549 -0.1656 -0.8475
52139SOL    HW161102   7.967   3.446   6.685 -0.0805 -1.9443  2.7952
52139SOL    HW261103   7.919   3.546   6.788 -2.1203  1.0456 -0.8085
52140SOL     OW61104   2.757  10.573   0.736 -0.0130  0.1269 -0.3194
52140SOL    HW161105   2.678  10.620   0.710 -0.2370 -0.5164 -0.8108
52140SOL    HW261106   2.761  10.497   0.678 -0.1029 -0.9163  0.9993
52141SOL     OW61107   2.123   8.065   1.475  0.7553  0.2579 -0.1160
52141SOL    HW161108   2.210   8.076   1.513  0.8018  2.3430 -0.6832
52141SOL    HW261109   2.137   8.008   1.400  1.3314 -0.7557  0.7392
52142SOL     OW61110   4.836   6.527   5.279 -0.2289 -0.3947 -0.1124
52142SOL    HW161111   4.790   6.581   5.343 -0.4828  0.8786 -1.3190
52142SOL    HW261112   4.846   6.442   5.322  1.1387  0.8544  2.3006
52143SOL     OW61113  11.958   8.103   2.543  0.2668 -0.5256 -0.3527
52143SOL    HW161114  12.008   8.176   2.580  0.2182 -1.4665  1.7137
52143SOL    HW261115  11.881   8.096   2.599  0.4502 -2.3671 -0.2663
52144SOL     OW61116   8.636   4.131   9.889  0.0158  0.3170  0.0100
52144SOL    HW161117   8.571   4.074   9.929  0.7864 -0.1558  0.6218
52144SOL    HW261118   8.660   4.087   9.807  0.8752 -0.4572  0.6521
52145SOL     OW61119   0.848   4.292   2.918 -0.4473 -0.7360  0.3367
52145SOL    HW161120   0.919   4.262   2.975  1.4650  0.1318 -1.4889
52145SOL    HW261121   0.819   4.374   2.958  2.1676  0.8728 -0.8259
52146SOL     OW61122   8.298   4.619   2.299  0.2816  0.1233 -0.0296
52146SOL    HW161123   8.213   4.659   2.319  1.0289  0.9046  1.9239
52146SOL    HW261124   8.297   4.536   2.346  1.2613  0.9982  1.6444
52147SOL     OW61125   6.138   9.794   8.038  0.2039  0.0045 -0.0124
52147SOL    HW161126   6.151   9.865   7.975 -1.1061 -0.8688 -1.3587
52147SOL    HW261127   6.114   9.719   7.984  1.6199 -1.5117  1.3594
52148SOL     OW61128  11.570   8.386   6.618 -0.1515 -0.2871 -0.6234
52148SOL    HW161129  11.624   8.308   6.625  0.4966  0.2150  0.0480
52148SOL    HW261130  11.482   8.353   6.601 -0.3745 -1.2969  2.1261
52149SOL     OW61131   7.823   7.678   5.655 -0.0394 -0.5065 -0.0037
52149SOL    HW161132   7.819   7.610   5.587  1.0523 -0.3561 -0.2404
52149SOL    HW261133   7.905   7.723   5.639  0.0685 -0.2290  1.2056
52150SOL     OW61134  10.243   8.364   5.079  0.4980  0.0362 -0.1905
52150SOL    HW161135  10.275   8.303   5.146  1.0252 -2.5805 -2.6148
52150SOL    HW261136  10.322   8.409   5.049  0.5975 -0.3508 -0.5106
52151SOL     OW61137   3.950   0.357   7.674  0.0200 -0.3271 -0.4366
52151SOL    HW161138   3.985   0.268   7.683  1.3097  0.0041 -1.7025
52151SOL    HW261139   3.859   0.345   7.648  0.8283 -1.3707 -3.0894
52152SOL     OW61140   5.077   8.670   2.780  0.0385  0.2455  0.2857
52152SOL    HW161141   5.032   8.619   2.847  0.5857 -0.5940  0.0272
52152SOL    HW261142   5.111   8.605   2.719 -0.2468  0.9823 -0.6897
52153SOL     OW61143   1.985   0.785   9.213 -0.3409 -0.0179  0.4611
52153SOL    HW161144   1.992   0.876   9.184 -1.0606 -0.5205 -1.4592
52153SOL    HW261145   1.922   0.745   9.153 -0.7800 -1.5636  1.8564
52154SOL     OW61146   0.189   6.167   6.715  0.1300  1.1793  0.3315
52154SOL    HW161147   0.198   6.092   6.775 -2.6486  1.2517  1.0025
52154SOL    HW261148   0.226   6.136   6.633 -0.0824 -0.6244  0.8542
52155SOL     OW61149   8.507   8.528   8.774 -0.5983  0.4659  0.0264
52155SOL    HW161150   8.417   8.554   8.756 -0.2808  0.6857 -1.3590
52155SOL    HW261151   8.537   8.588   8.842 -1.7537 -0.1637  1.1245
52156SOL     OW61152   2.096   5.076   6.525  0.6257  0.3842  0.3897
52156SOL    HW161153   2.091   5.131   6.447  0.7419  0.4994  0.4610
52156SOL    HW261154   2.046   5.124   6.592 -0.7243 -0.4239 -0.0142
52157SOL     OW61155   0.843   9.973  11.623  0.0692  0.2604  0.4250
52157SOL    HW161156   0.749   9.990  11.623  0.1406  0.7044 -0.0937
52157SOL    HW261157   0.871   9.991  11.713 -0.8821 -3.2717  1.5778
52158SOL     OW61158   3.725   8.531   0.483  0.2302 -0.3572  0.3161
52158SOL    HW161159   3.730   8.572   0.397  0.0809 -1.1296 -0.0773
52158SOL    HW261160   3.815   8.509   0.504  0.0733 -2.2719 -0.7295
52159SOL     OW61161   2.720   0.943   4.461  0.2400 -0.5585  0.0421
52159SOL    HW161162   2.740   0.951   4.555 -0.6900  0.0394  0.2002
52159SOL    HW261163   2.788   0.994   4.418  0.6691 -0.8263  0.3865
52160SOL     OW61164   8.641  11.084  10.780 -0.8260 -0.1932  0.0287
52160SOL    HW161165   8.563  11.030  10.766 -0.1494 -1.5512  1.2664
52160SOL    HW261166   8.714  11.026  10.758 -0.0757  0.1193  1.5797
52161SOL     OW61167   2.580   1.988   6.704  0.3726 -0.4324 -0.2678
52161SOL    HW161168   2.593   1.927   6.631  0.0650  0.3428 -0.9906
52161SOL    HW261169   2.612   2.071   6.671  0.5192 -0.1377  0.6054
52162SOL     OW61170   6.247   1.802   7.891 -0.1245 -0.2866  0.0937
52162SOL    HW161171   6.258   1.889   7.854  0.5709 -0.6670 -0.6316
52162SOL    HW261172   6.165   1.770   7.853  0.2774 -0.4391 -0.6666
52163SOL     OW61173   1.453   3.352   4.137  0.6250  0.3178 -0.3436
52163SOL    HW161174   1.484   3.294   4.068  0.6143  0.6506 -0.6267
52163SOL    HW261175   1.482   3.439   4.111 -1.0261  0.7277 -0.9016
52164SOL     OW61176   1.911   3.034   5.101  0.1749 -0.0176 -0.3154
52164SOL    HW161177   1.964   2.985   5.039 -0.1534  1.0294 -1.4682
52164SOL    HW261178   1.963   3.034   5.182  0.9939 -0.7064 -0.8204
52165SOL     OW61179  11.836   7.812   5.433 -0.2440  0.0605  0.1301
52165SOL    HW161180  11.922   7.810   5.475  0.5932  0.7879 -1.4548
52165SOL    HW261181  11.811   7.720   5.425  0.9665 -0.2367 -0.4938
52166SOL     OW61182   7.276   6.389   7.341  0.5846 -0.1325 -0.0522
52166SOL    HW161183   7.292   6.467   7.288 -1.1130 -0.7788 -1.6406
52166SOL    HW261184   7.198   6.410   7.392 -0.2049 -0.9095 -0.8834
52167SOL     OW61185  11.653   9.000   9.670  0.0758 -0.0217 -0.0746
52167SOL    HW161186  11.730   8.981   9.723 -0.2044 -1.6302 -0.2130
52167SOL    HW261187  11.594   9.045   9.730  0.4112 -0.3625  0.5242
52168SOL     OW61188   3.633   9.680   0.505  0.1295 -0.0143  0.5186
52168SOL    HW161189   3.640   9.650   0.415  0.2154  0.6758  0.2885
52168SOL    HW261190   3.717   9.656   0.545  0.0332 -0.4540  0.4610
52169SOL     OW61191   5.617   5.041   0.026  0.2258  0.0458 -0.0984
52169SOL    HW161192   5.647   5.113   0.082  0.6985  0.8807 -1.3727
52169SOL    HW261193   5.686   4.975   0.033  0.8748  0.6575 -0.6260
52170SOL     OW61194  11.466  11.148   2.457  0.6918  0.0201  0.1104
52170SOL    HW161195  11.411  11.087   2.406 -0.2941  1.2290 -0.3372
52170SOL    HW261196  11.524  11.187   2.392  0.9439 -0.0365  0.3013
52171SOL     OW61197  11.031   0.541  10.078  0.0468 -0.3991 -0.0938
52171SOL    HW161198  11.006   0.461  10.124 -2.0075  1.3970  2.1210
52171SOL    HW261199  11.124   0.552  10.098  0.1816 -1.8285  0.1711
52172SOL     OW61200  11.485  11.361   6.664 -0.4669 -0.3389  0.2039
52172SOL    HW161201  11.558  11.315   6.623  0.7113  0.7170  1.0012
52172SOL    HW261202  11.475  11.441   6.613  0.1941  0.3957  1.1795
52173SOL     OW61203  11.943   2.211   0.403  0.6826 -0.0966 -0.3018
52173SOL    HW161204  12.020   2.156   0.416 -1.5016 -2.8207  2.5959
52173SOL    HW261205  11.892   2.165   0.336 -0.4412 -0.8972  1.0395
52174SOL     OW61206   7.646   4.525   0.145  0.7021  0.2361  0.0585
52174SOL    HW161207   7.607   4.563   0.066  0.8462  1.6085  0.6083
52174SOL    HW261208   7.572   4.488   0.193  0.7458 -1.5512 -1.1811
52175SOL     OW61209   0.682   7.511   8.649  0.0942 -0.5833 -0.0233
52175SOL    HW161210   0.620   7.513   8.577 -0.0846  0.1266  0.1394
52175SOL    HW261211   0.631   7.479   8.724  0.4189 -1.8618 -0.3243
52176SOL     OW61212   2.190  11.175   7.507  0.4032 -0.1470  0.3020
52176SOL    HW161213   2.234  11.215   7.582  0.4223 -0.7863  0.6453
52176SOL    HW261214   2.254  11.179   7.436  1.3861 -1.8641  1.0311
52177SOL     OW61215   5.575  11.978   6.459  0.4265  0.2113 -0.7631
52177SOL    HW161216   5.658  11.930   6.464  0.3401  0.1158 -0.1923
52177SOL    HW261217   5.542  11.979   6.549  0.9189  2.2460 -0.5633
52178SOL     OW61218  10.854   6.591   8.475 -0.4980  0.0073  0.4122
52178SOL    HW161219  10.842   6.630   8.561 -2.0319 -0.6019  0.4973
52178SOL    HW261220  10.769   6.554   8.452  0.4967 -1.9922 -0.3115
52179SOL     OW61221   6.331   2.468  10.459  0.1180  0.0320  0.1396
52179SOL    HW161222   6.414   2.511  10.441 -0.0530  0.6909  0.9016
52179SOL    HW261223   6.289   2.461  10.374  0.1124  1.4365  0.0158
52180SOL     OW61224   2.699   8.944   4.162  0.0693  0.1826  0.4116
52180SOL    HW161225   2.695   8.868   4.105  0.5751  0.9251 -0.6287
52180SOL    HW261226   2.737   8.911   4.244 -1.1457 -0.9932  0.5310
52181SOL     OW61227   5.378   9.190   5.256  0.0677  0.5195 -0.3141
52181SOL    HW161228   5.288   9.202   5.285  0.3847  1.7717  0.2482
52181SOL    HW261229   5.395   9.265   5.199  0.9763  0.7201  0.1966
52182SOL     OW61230   0.792   3.486   1.815  0.3457  0.9184  0.0332
52182SOL    HW161231   0.719   3.504   1.756  0.1911  1.8101  0.4747
52182SOL    HW261232   0.793   3.391   1.824 -2.6347  0.9455  2.2768
52183SOL     OW61233  11.324   1.191   9.149  0.1710  0.2528  0.3685
52183SOL    HW161234  11.326   1.126   9.079 -1.7433 -1.5052  1.8213
52183SOL    HW261235  11.410   1.232   9.146  0.7552 -0.9730 -1.8617
52184SOL     OW61236   6.352  11.688  10.059  0.1412 -1.0822  0.4520
52184SOL    HW161237   6.379  11.769  10.103 -1.2348 -1.4450  2.0618
52184SOL    HW261238   6.390  11.695   9.971 -0.5534  1.6569  0.2732
52185SOL     OW61239   0.482   7.180   8.102  0.0906 -0.2584  0.3228
52185SOL    HW161240   0.478   7.271   8.072 -0.6742 -0.3477  0.1375
52185SOL    HW261241   0.576   7.160   8.106  0.2550  0.4575  0.1212
52186SOL     OW61242   1.514  11.898  10.054  0.1113  0.1452 -0.2976
52186SOL    HW161243   1.540  11.923  10.142  0.0602 -3.0124  0.7396
52186SOL    HW261244   1.418  11.890  10.059  0.1638 -0.6344 -0.4366
52187SOL     OW61245   3.412   0.218   1.160 -0.5574 -0.8060  0.0803
52187SOL    HW161246   3.378   0.232   1.249 -0.7570 -1.5564  0.1291
52187SOL    HW261247   3.493   0.269   1.157 -1.3752  0.5394  0.1530
52188SOL     OW61248   3.033  11.963   3.190 -0.0027 -0.1756 -0.3809
52188SOL    HW161249   3.124  11.973   3.219 -0.5453  1.2336  0.9828
52188SOL    HW261250   2.981  11.983   3.268 -1.5011 -3.2725 -0.4639
52189SOL     OW61251   8.846  10.906   9.162  0.2615  0.2380 -0.2895
52189SOL    HW161252   8.863  10.815   9.137 -1.2348 -0.2656  0.4158
52189SOL    HW261253   8.861  10.956   9.082  1.4609 -0.5762 -0.5893
52190SOL     OW61254   8.804   5.908   2.347  0.3649 -0.0138 -0.1245
52190SOL    HW161255   8.896   5.898   2.370  0.4799  0.0629 -0.5422
52190SOL    HW261256   8.774   5.819   2.327  0.5375  0.0518 -0.6845
52191SOL     OW61257   9.393   6.809   7.973 -0.1240  0.0376  0.0186
52191SOL    HW161258   9.438   6.869   8.033 -0.7636 -0.4928  1.0668
52191SOL    HW261259   9.312   6.786   8.019 -0.9447  0.1039 -1.3433
52192SOL     OW61260   3.617   3.941   9.635 -0.5937 -0.4619  0.5917
52192SOL    HW161261   3.615   3.845   9.629 -0.8835 -0.4701  0.8225
52192SOL    HW261262   3.565   3.962   9.713 -0.8213 -0.0981  0.3459
52193SOL     OW61263   6.759   4.852   5.896  0.0857 -0.9649  0.2967
52193SOL    HW161264   6.813   4.906   5.838  0.0053 -0.9294  0.2534
52193SOL    HW261265   6.688   4.820   5.840  0.5536 -1.7497  0.1366
52194SOL     OW61266   4.853   9.911   0.170  0.1465  0.1741 -0.2590
52194SOL    HW161267   4.789   9.841   0.181  1.0677 -0.7730 -0.6839
52194SOL    HW261268   4.801   9.990   0.154 -1.0250  0.1120  2.5577
52195SOL     OW61269   7.801   8.576  11.581  0.5066 -0.0980  0.5199
52195SOL    HW161270   7.831   8.485  11.587 -0.9161 -0.5617  1.0547
52195SOL    HW261271   7.715   8.570  11.538  2.1043  1.3934 -3.3684
52196SOL     OW61272   8.847   8.335   2.142  0.7693  0.1825  0.4125
52196SOL    HW161273   8.873   8.281   2.067  1.3676 -0.2317  0.9130
52196SOL    HW261274   8.924   8.338   2.198 -0.4644 -1.7762  2.3480
52197SOL     OW61275   5.089   3.271   1.148  0.4009  0.7518  0.2464
52197SOL    HW161276   5.165   3.307   1.103  1.5651 -1.7405  0.0411
52197SOL    HW261277   5.123   3.193   1.193 -1.9339 -0.1894  0.5149
52198SOL     OW61278   8.650  10.405   9.922 -0.2036 -0.5319 -0.3000
52198SOL    HW161279   8.577  10.415   9.861  0.7885 -0.2985 -1.4679
52198SOL    HW261280   8.654  10.311   9.940 -1.3956 -0.4424  0.5543
52199SOL     OW61281   7.289   2.741   0.367  0.4283 -0.5226  0.2014
52199SOL    HW161282   7.215   2.775   0.418  1.0951  0.5385  0.4843
52199SOL    HW261283   7.343   2.817   0.349  2.4455 -1.5276  1.6219
52200SOL     OW61284   7.193   4.734   4.848  1.1074 -0.1230 -0.0379
52200SOL    HW161285   7.202   4.639   4.863 -0.6324 -0.1282  1.2658
52200SOL    HW261286   7.147   4.741   4.765  0.2603 -0.4641  0.3946
52201SOL     OW61287   9.672   8.930   1.692 -0.9385  0.0328  0.0824
52201SOL    HW161288   9.602   8.957   1.752 -0.4270  1.9163 -0.1082
52201SOL    HW261289   9.723   9.009   1.677  1.3936 -1.3161  0.3792
52202SOL     OW61290   1.074  11.922   9.147  0.0420 -0.1483 -0.0491
52202SOL    HW161291   1.162  11.919   9.183  0.3488  0.4570 -0.7160
52202SOL    HW261292   1.020  11.961   9.216  0.2746 -0.5867  0.3865
52203SOL     OW61293   9.488   2.342   1.059  0.2769 -0.5828 -0.3989
52203SOL    HW161294   9.510   2.338   1.152 -2.0879  1.3876  0.3563
52203SOL    HW261295   9.559   2.393   1.020  0.6969 -0.4114  0.5592
52204SOL     OW61296   5.456   5.889   8.591  0.1160  0.4995 -0.0632
52204SOL    HW161297   5.435   5.849   8.676 -0.4399  2.4133  0.7475
52204SOL    HW261298   5.373   5.890   8.544  0.2706  0.1205 -0.3514
52205SOL     OW61299   4.850   2.877  10.097  0.1527  0.1347  0.1303
52205SOL    HW161300   4.758   2.872  10.070  0.4210  1.4053 -1.1532
52205SOL    HW261301   4.848   2.906  10.187 -0.6937  1.9061 -0.4266
52206SOL     OW61302   6.199  10.024   5.827  0.1643 -0.1878 -0.4265
52206SOL    HW161303   6.153  10.107   5.836  2.1488  1.0027 -0.6212
52206SOL    HW261304   6.226  10.001   5.916  0.0675 -0.3570 -0.4396
52207SOL     OW61305   5.701   0.348   8.007 -0.3740 -0.6860  0.1670
52207SOL    HW161306   5.619   0.358   7.959  0.0747 -3.7383 -1.4632
52207SOL    HW261307   5.675   0.301   8.087 -0.2690 -1.6382 -0.3417
52208SOL     OW61308   4.236   2.984   5.827 -0.0033  0.2469  0.2186
52208SOL    HW161309   4.270   2.952   5.910  1.6570 -0.4400 -0.6939
52208SOL    HW261310   4.305   2.966   5.764 -1.6162 -0.1496 -1.5155
52209SOL     OW61311   5.070   8.133  11.791  0.0106 -0.2978 -0.2763
52209SOL    HW161312   5.094   8.159  11.880 -0.7288  1.7486 -0.6297
52209SOL    HW261313   5.129   8.060  11.771  0.9702 -0.0599  1.4529
52210SOL     OW61314   7.506   0.688   5.005 -0.5931 -0.4531 -0.9860
52210SOL    HW161315   7.479   0.701   5.096  1.6068  0.3608 -0.3881
52210SOL    HW261316   7.553   0.768   4.982 -0.6010 -0.8918 -2.6580
52211SOL     OW61317  11.981   1.694   8.978 -0.4221 -0.2598 -0.0309
52211SOL    HW161318  12.004   1.757   8.909 -2.3042 -0.1118 -0.5845
52211SOL    HW261319  11.957   1.614   8.930 -0.7536 -0.4883  0.5149
52212SOL     OW61320   6.730   2.399   0.877 -0.7821  0.2422  0.3532
52212SOL    HW161321   6.773   2.316   0.899  1.6751  1.1995 -0.4184
52212SOL    HW261322   6.708   2.391   0.784 -0.7208  0.3639  0.3276
52213SOL     OW61323   5.478   8.213   3.797  0.0875 -0.2453  0.0728
52213SOL    HW161324   5.436   8.299   3.809  1.2172  0.1252  1.6378
52213SOL    HW261325   5.407   8.150   3.808 -0.5154  0.4453  0.2249
52214SOL     OW61326   5.257   9.168   2.561 -0.0060  0.6619  0.4759
52214SOL    HW161327   5.194   9.189   2.492  1.3825 -0.5692 -1.2590
52214SOL    HW261328   5.310   9.097   2.525 -0.0278 -0.9800  3.3226
52215SOL     OW61329   4.731   0.140  10.941  0.2157 -0.5402 -0.0418
52215SOL    HW161330   4.818   0.106  10.960  0.5205  0.0681 -0.3077
52215SOL    HW261331   4.729   0.226  10.982 -0.3498 -0.6496  0.1696
52216SOL     OW61332   5.565  10.097   2.900  0.1928  0.2838 -0.1563
52216SOL    HW161333   5.608  10.145   2.971  0.5707  1.2996 -1.0421
52216SOL    HW261334   5.620  10.019   2.888  1.1479  0.9746 -0.4719
52217SOL     OW61335   1.851   4.925   3.586  0.5717 -0.4371 -0.1375
52217SOL    HW161336   1.853   4.938   3.492  1.0956 -0.9050 -0.1879
52217SOL    HW261337   1.800   5.000   3.619  2.0901  0.8463 -0.5967
52218SOL     OW61338   7.722   7.941  10.803  0.0664  0.2955 -0.1757
52218SOL    HW161339   7.635   7.902  10.804  0.4795 -0.6551 -0.3903
52218SOL    HW261340   7.714   8.020  10.857 -0.4087 -0.8931  1.5473
52219SOL     OW61341   7.449   3.255   6.305  0.1468 -0.0569 -0.0636
52219SOL    HW161342   7.384   3.322   6.283  0.0318  0.1990  1.0206
52219SOL    HW261343   7.459   3.260   6.400  1.6188 -0.2201 -0.1793
52220SOL     OW61344   7.271  10.546   4.846  0.1353  0.6543 -0.0954
52220SOL    HW161345   7.323  10.555   4.926  0.2167  0.9485 -0.1800
52220SOL    HW261346   7.319  10.597   4.781  1.7725 -1.9832 -1.1602
52221SOL     OW61347   2.284   1.893   1.117  0.1979 -0.1182  1.1641
52221SOL    HW161348   2.280   1.984   1.144  0.1421 -0.0431  0.9014
52221SOL    HW261349   2.311   1.896   1.025 -1.2007 -0.2984  0.7317
52222SOL     OW61350  11.166   3.516   0.895  0.4339  0.3041  0.7632
52222SOL    HW161351  11.084   3.467   0.884 -0.0911  1.4778 -0.9696
52222SOL    HW261352  11.206   3.477   0.973 -1.3451 -0.8846  1.1649
52223SOL     OW61353   6.990   3.175  10.540 -0.3090  0.3332  0.7724
52223SOL    HW161354   7.044   3.097  10.551  0.6679  0.8846  0.0521
52223SOL    HW261355   7.012   3.208  10.453  0.7010  2.4400  1.7582
52224SOL     OW61356   9.995   0.438   6.140  0.4796 -0.1572 -0.0279
52224SOL    HW161357  10.006   0.364   6.200  0.7333 -1.2308 -1.3671
52224SOL    HW261358   9.935   0.497   6.186  0.1259 -1.2776  0.9896
52225SOL     OW61359   2.410  11.954   3.846  0.0063 -0.2176 -0.0271
52225SOL    HW161360   2.468  11.946   3.922 -0.5572  0.1976  0.4515
52225SOL    HW261361   2.438  11.883   3.788  2.2564  1.0744 -0.6800
52226SOL     OW61362   5.922   7.785   6.796 -0.1628 -0.2090  0.1331
52226SOL    HW161363   5.989   7.846   6.825  0.0098 -0.8423  1.1131
52226SOL    HW261364   5.963   7.736   6.724 -0.0686  0.3421 -0.1981
52227SOL     OW61365   0.240   4.040  11.318 -0.4552 -0.1892  0.0658
52227SOL    HW161366   0.177   4.048  11.390 -1.5922 -3.2600 -0.4583
52227SOL    HW261367   0.286   3.958  11.336 -0.5859 -0.8905 -2.4970
52228SOL     OW61368   5.379   2.242   1.750 -0.3861 -0.1874  0.5114
52228SOL    HW161369   5.353   2.217   1.838  2.7452 -0.0318  1.6051
52228SOL    HW261370   5.426   2.165   1.717  0.5986  0.6295 -0.0329
52229SOL     OW61371   5.537   2.713   9.784 -0.2214 -0.0487 -0.0935
52229SOL    HW161372   5.521   2.676   9.871  2.2097 -0.6449  0.1567
52229SOL    HW261373   5.632   2.718   9.777 -0.3868  1.0096 -2.3169
52230SOL     OW61374   3.312   0.605   6.806  0.4287 -0.8720  0.7360
52230SOL    HW161375   3.254   0.672   6.842  0.5453 -0.7539  0.7038
52230SOL    HW261376   3.287   0.524   6.851 -0.6909 -1.1088 -0.2429
52231SOL     OW61377   7.557   8.757   1.241  0.0419  0.0127 -0.4406
52231SOL    HW161378   7.564   8.840   1.194 -3.4774  0.9705  0.4827
52231SOL    HW261379   7.633   8.756   1.299 -0.4915  3.2859  0.4698
52232SOL     OW61380   3.792  11.751   9.366 -0.3713 -0.0889 -0.2670
52232SOL    HW161381   3.705  11.713   9.352 -0.1838 -0.7525  0.3611
52232SOL    HW261382   3.852  11.677   9.361 -0.1434 -0.1945  2.5333
52233SOL     OW61383   8.734   9.383   0.839 -0.4074  0.3697  0.4289
52233SOL    HW161384   8.752   9.318   0.908  0.3930  1.3174  1.1327
52233SOL    HW261385   8.651   9.423   0.865  0.0292  0.9170  1.0090
52234SOL     OW61386  10.552   5.070   1.913  0.1902  0.2863  0.3252
52234SOL    HW161387  10.457   5.076   1.905  0.3563  2.3402 -0.6626
52234SOL    HW261388  10.584   5.081   1.824  1.4099  1.0051  0.8360
52235SOL     OW61389   1.180   8.013   6.222 -1.0591 -0.5531 -0.2377
52235SOL    HW161390   1.220   7.963   6.293  0.1072 -0.9944 -1.1837
52235SOL    HW261391   1.111   8.065   6.265  1.4340  1.3830  1.7278
52236SOL     OW61392   7.219   3.818   4.990  0.1776 -0.0174 -0.2042
52236SOL    HW161393   7.289   3.796   4.929 -0.6776 -0.8352 -0.9386
52236SOL    HW261394   7.158   3.744   4.985  0.0378 -0.0814  1.6132
52237SOL     OW61395   0.146  10.984   2.399 -0.3845  0.5097 -0.0209
52237SOL    HW161396   0.222  11.031   2.434 -0.6714  1.7145 -0.9595
52237SOL    HW261397   0.071  11.022   2.445 -0.6564  1.2890 -1.0898
52238SOL     OW61398   7.075   7.879   0.718  0.0805 -0.8868 -0.0698
52238SOL    HW161399   6.983   7.852   0.713 -0.7492  1.5875  0.4897
52238SOL    HW261400   7.102   7.857   0.807 -0.4593 -0.2995  0.2501
52239SOL     OW61401  11.229   9.844   1.909 -0.0259  0.1131 -0.3272
52239SOL    HW161402  11.267   9.898   1.979 -0.5296  1.5036 -1.0810
52239SOL    HW261403  11.137   9.835   1.934  0.5713 -2.7935  1.2148
52240SOL     OW61404   0.652  10.734  11.958 -0.0962  0.1582  0.3322
52240SOL    HW161405   0.591  10.805  11.939 -0.3783  0.4419  2.1050
52240SOL    HW261406   0.713  10.771  12.022  0.7925 -0.6878 -0.0049
52241SOL     OW61407   5.042   9.388   0.373  0.1877 -0.1520  0.0454
52241SOL    HW161408   5.004   9.398   0.286 -0.8501  1.8635  0.6677
52241SOL    HW261409   5.006   9.305   0.406  1.4135 -1.4908 -1.7736
52242SOL     OW61410   8.498  10.508  11.245 -0.3857  0.1799 -0.6604
52242SOL    HW161411   8.451  10.515  11.328  0.6553  0.2830 -0.0740
52242SOL    HW261412   8.586  10.540  11.263  0.0731 -0.4658 -1.6251
52243SOL     OW61413   9.369   3.513   9.000 -0.4199  0.2978 -0.3703
52243SOL    HW161414   9.298   3.570   8.972 -0.0812  1.2618  0.6490
52243SOL    HW261415   9.424   3.569   9.056  2.8611  0.5874 -3.4612
52244SOL     OW61416   8.067   7.772  10.619 -0.4172 -0.3082 -0.1117
52244SOL    HW161417   8.024   7.854  10.644 -2.0346 -1.0800 -0.2256
52244SOL    HW261418   8.134   7.759  10.685 -0.9825  0.4667  0.6487
52245SOL     OW61419   7.958   5.685   4.291 -0.1316 -0.5778  0.1769
52245SOL    HW161420   7.936   5.675   4.384 -0.6858 -1.5912 -0.0406
52245SOL    HW261421   7.958   5.779   4.276  0.4371 -0.3824  1.3116
52246SOL     OW61422   4.629   2.020   8.863  0.5557 -0.1367 -0.9116
52246SOL    HW161423   4.713   2.040   8.821 -0.8184 -0.0741 -3.9109
52246SOL    HW261424   4.635   1.928   8.886  2.3240  0.4675  1.3055
52247SOL     OW61425   7.392   3.324  11.835 -0.3368 -0.7031 -0.0473
52247SOL    HW161426   7.300   3.338  11.815 -0.1173  0.8100 -0.1514
52247SOL    HW261427   7.397   3.235  11.869 -1.6278 -1.2762 -1.2712
52248SOL     OW61428   8.206   0.369   5.126  0.5622  0.0049 -0.0176
52248SOL    HW161429   8.257   0.294   5.155  0.0548 -0.2181  0.3070
52248SOL    HW261430   8.164   0.340   5.045  0.5988  0.0408 -0.0503
52249SOL     OW61431   7.864   7.637   8.177 -0.1629 -0.6797 -0.1789
52249SOL    HW161432   7.893   7.728   8.171 -0.6397 -0.5624 -0.8651
52249SOL    HW261433   7.926   7.588   8.121 -1.2465 -0.4252 -1.6647
52250SOL     OW61434   1.091   2.040   4.276  0.0479 -0.2972  0.0013
52250SOL    HW161435   1.162   2.000   4.226  0.6955 -0.2381  0.8355
52250SOL    HW261436   1.011   2.006   4.236  0.4120  1.7940 -2.7492
52251SOL     OW61437   7.417   6.978   1.252  0.4388 -0.8448 -0.1280
52251SOL    HW161438   7.512   6.973   1.258  0.5596  0.6190 -0.3889
52251SOL    HW261439   7.399   7.070   1.233 -1.0757 -0.9265  0.7215
52252SOL     OW61440   5.718  11.843  10.267 -0.0804 -0.7476  0.1091
52252SOL    HW161441   5.636  11.837  10.218 -0.4114 -0.5020  0.6222
52252SOL    HW261442   5.764  11.761  10.248 -1.0595 -1.5014  0.8830
52253SOL     OW61443  11.364   5.140   9.970  0.1391  0.0560 -0.0469
52253SOL    HW161444  11.341   5.105   9.884  3.0942 -1.6406 -0.3037
52253SOL    HW261445  11.367   5.063  10.027 -0.3654  0.9585  1.2397
52254SOL     OW61446   5.947  11.122   8.818  0.2959 -0.0938  0.1679
52254SOL    HW161447   5.874  11.070   8.852  0.3623  0.7901  1.7720
52254SOL    HW261448   6.016  11.113   8.884  0.9458  0.6102 -0.3940
52255SOL     OW61449   4.378   8.432   0.124  0.8436  0.1319 -0.3917
52255SOL    HW161450   4.381   8.406   0.031 -1.4471 -0.1423 -0.4455
52255SOL    HW261451   4.423   8.516   0.127 -0.6093  1.0388 -2.1294
52256SOL     OW61452  11.939   9.303   3.667 -0.0540  0.3518  0.0162
52256SOL    HW161453  11.948   9.345   3.753  1.2035  0.1586 -0.0016
52256SOL    HW261454  11.931   9.210   3.686  1.1737  0.2089 -0.0964
52257SOL     OW61455   0.882   2.309   8.578 -0.1863 -0.3688  0.5497
52257SOL    HW161456   0.799   2.298   8.532  0.3685 -0.3825 -0.4919
52257SOL    HW261457   0.943   2.254   8.529  0.5550  0.0495  0.9880
52258SOL     OW61458   3.451   4.052   5.243 -0.6692  0.3043 -0.1801
52258SOL    HW161459   3.390   3.993   5.199 -0.7034  0.1616  0.0570
52258SOL    HW261460   3.405   4.080   5.322 -0.4039  0.1480  0.0306
52259SOL     OW61461   0.685   7.975   9.018  0.3071 -0.0571 -0.1937
52259SOL    HW161462   0.609   8.030   8.999  0.2234 -0.1068 -0.0029
52259SOL    HW261463   0.724   8.014   9.096 -0.3614 -0.8850  0.5803
52260SOL     OW61464   1.765   5.960   6.625  0.2073 -0.2196 -0.3679
52260SOL    HW161465   1.812   6.040   6.598 -0.2489 -0.2707 -1.3933
52260SOL    HW261466   1.754   5.911   6.543  2.5630 -2.5150  0.5540
52261SOL     OW61467   9.854   5.292   4.383 -0.6468  0.1882 -0.2642
52261SOL    HW161468   9.888   5.377   4.410  0.1541 -0.2541  0.1557
52261SOL    HW261469   9.767   5.287   4.423 -0.1901  0.2821  0.7557
52262SOL     OW61470   6.793   5.356   2.654 -0.0087 -0.0627  0.4433
52262SOL    HW161471   6.886   5.343   2.640 -0.0464  0.3549 -0.2186
52262SOL    HW261472   6.762   5.272   2.688  0.1307 -1.0844 -1.7872
52263SOL     OW61473   3.242   4.355   1.363 -0.6522  0.1785 -0.1658
52263SOL    HW161474   3.307   4.318   1.422  0.4500 -0.3766 -1.6511
52263SOL    HW261475   3.255   4.308   1.280 -3.3172 -0.3610 -0.3917
52264SOL     OW61476  11.001   4.005   9.367 -0.2524 -0.2644  0.3055
52264SOL    HW161477  10.956   3.932   9.410  0.5235  0.7698  3.0837
52264SOL    HW261478  11.081   3.967   9.332 -1.3694 -1.3358 -1.2237
52265SOL     OW61479   9.674   8.303  10.753  0.1347  0.3148  0.4115
52265SOL    HW161480   9.676   8.210  10.730 -1.3738  0.6025 -1.0821
52265SOL    HW261481   9.763   8.322  10.784 -0.0331 -2.0460  2.7387
52266SOL     OW61482   3.320   6.587   3.619  0.1560  0.3590  0.4400
52266SOL    HW161483   3.375   6.630   3.686  1.0141 -0.0807  0.0366
52266SOL    HW261484   3.380   6.529   3.573 -0.9590 -1.2284  0.9213
52267SOL     OW61485   5.659  10.148   5.441  0.3993  0.2824  0.2203
52267SOL    HW161486   5.662  10.156   5.345  0.4679 -3.5374 -0.2551
52267SOL    HW261487   5.565  10.153   5.462  0.2580 -0.1928 -0.2536
52268SOL     OW61488  11.769   6.402   3.524  0.0170  0.4933  0.0589
52268SOL    HW161489  11.771   6.479   3.580  1.0985 -0.6095  1.6120
52268SOL    HW261490  11.676   6.385   3.509 -0.2562  1.3212  0.7906
52269SOL     OW61491   0.214   4.535   9.543  0.4265  0.5814 -0.5522
52269SOL    HW161492   0.191   4.550   9.451  0.7117  0.9023 -0.5748
52269SOL    HW261493   0.276   4.605   9.563  0.4072  0.4764 -0.1310
52270SOL     OW61494   7.260   7.688   2.567 -0.5889 -0.5860  0.5790
52270SOL    HW161495   7.288   7.734   2.646  1.8828  1.1039 -1.1549
52270SOL    HW261496   7.181   7.735   2.539  1.0392  1.7791 -0.3211
52271SOL     OW61497   2.538   9.752   6.073  0.2338 -0.9977  0.8534
52271SOL    HW161498   2.619   9.718   6.113  1.1494 -0.5260 -0.5219
52271SOL    HW261499   2.555   9.845   6.062 -0.7712 -0.7745  1.1279
52272SOL     OW61500   7.433   4.550   5.672 -0.4005 -0.1027 -0.4918
52272SOL    HW161501   7.409   4.557   5.764 -0.1113  2.4682 -0.5448
52272SOL    HW261502   7.382   4.618   5.628  1.1124  0.2104 -1.8676
52273SOL     OW61503   9.563   7.576   9.799 -0.7317  0.4522 -0.1560
52273SOL    HW161504   9.489   7.515   9.808 -0.1803 -0.1306  0.4843
52273SOL    HW261505   9.547   7.619   9.715 -2.0478  0.6778  0.1762
52274SOL     OW61506   3.021   2.762   2.902 -0.5935  0.0160 -0.1927
52274SOL    HW161507   3.069   2.834   2.942 -1.8804  1.0485 -0.4495
52274SOL    HW261508   2.958   2.734   2.968  0.9896 -2.0542  0.5511
52275SOL     OW61509   3.738   4.164   8.052  0.4789 -0.0281  0.5170
52275SOL    HW161510   3.727   4.106   7.976 -0.9544  0.5262  0.2707
52275SOL    HW261511   3.766   4.105   8.123  2.3026 -0.4817 -0.5169
52276SOL     OW61512  11.323   4.064   0.434  0.2553 -0.4393  0.0625
52276SOL    HW161513  11.395   4.126   0.425  1.1137 -1.4397 -0.1871
52276SOL    HW261514  11.285   4.083   0.519  0.5583  0.3707  0.0231
52277SOL     OW61515   3.220   2.955   3.197 -0.6870  0.2770  0.4024
52277SOL    HW161516   3.274   2.876   3.195  1.8304  1.8422 -2.5475
52277SOL    HW261517   3.244   2.999   3.278  1.7963  0.3749 -0.2969
52278SOL     OW61518   9.625   1.194   1.404 -0.4559 -0.2087 -0.5458
52278SOL    HW161519   9.573   1.267   1.370 -0.7479 -0.9282 -1.7253
52278SOL    HW261520   9.702   1.192   1.348  1.3158  1.3460  1.6892
52279SOL     OW61521   1.455   5.366   0.987 -0.0220 -0.1627  0.3633
52279SOL    HW161522   1.447   5.385   1.081  1.5653 -0.2831  0.5563
52279SOL    HW261523   1.457   5.270   0.982  1.8659 -0.1745  0.4591
52280SOL     OW61524   2.829   2.962   8.921 -0.4098  0.0310 -0.1614
52280SOL    HW161525   2.905   2.936   8.974 -0.2023  0.8820 -0.0240
52280SOL    HW261526   2.867   3.005   8.845 -0.7516  0.3298 -0.1637
52281SOL     OW61527  10.123   1.903   8.698  0.2074  1.0788 -0.3393
52281SOL    HW161528  10.184   1.920   8.627  0.7743 -0.1773 -0.1839
52281SOL    HW261529  10.179   1.891   8.775 -0.2254  0.1200 -0.1529
52282SOL     OW61530   5.031  10.077   0.352 -0.3999 -0.3954 -0.5926
52282SOL    HW161531   5.002  10.152   0.301  0.5694 -0.1426 -0.7911
52282SOL    HW261532   4.951  10.027   0.370 -1.1202  0.9227 -0.0464
52283SOL     OW61533   1.089   6.936   7.085  0.6236  0.0770 -0.2197
52283SOL    HW161534   1.142   7.013   7.067  0.1999  0.1178 -1.4686
52283SOL    HW261535   1.025   6.934   7.013 -0.8648 -0.1340  1.0628
52284SOL     OW61536   9.937   5.027   8.500  0.4905  0.0697  0.4655
52284SOL    HW161537  10.021   4.986   8.520  0.7997  0.1647 -0.5728
52284SOL    HW261538   9.959   5.099   8.441 -0.2687  0.4011  0.5784
52285SOL     OW61539   9.491   2.572  11.883 -0.0885 -0.2472 -0.5264
52285SOL    HW161540   9.455   2.550  11.968  0.2632  0.0289 -0.3013
52285SOL    HW261541   9.546   2.497  11.860 -0.0124 -0.2292 -0.4064
52286SOL     OW61542   6.682   3.647   9.051 -0.4411  0.6690  0.2727
52286SOL    HW161543   6.652   3.570   9.100 -0.7312  2.1693  2.6216
52286SOL    HW261544   6.776   3.652   9.069 -0.3808  0.7437 -0.0535
52287SOL     OW61545   0.741   9.674   7.261 -0.4510  0.4970  0.6824
52287SOL    HW161546   0.717   9.600   7.317 -0.2992 -0.2611 -0.2257
52287SOL    HW261547   0.775   9.633   7.181  0.6888  1.5445  0.5943
52288SOL     OW61548   1.337   2.684   0.269 -0.1177 -0.1978  0.4105
52288SOL    HW161549   1.286   2.726   0.338 -0.2183 -1.6065  1.2347
52288SOL    HW261550   1.428   2.696   0.295 -0.1760 -1.6080  1.3753
52289SOL     OW61551   3.214  11.139   8.745  0.1102 -0.5514  0.0900
52289SOL    HW161552   3.285  11.134   8.809  0.8439 -3.0207 -0.7759
52289SOL    HW261553   3.247  11.199   8.678  1.2986 -1.4262 -0.1494
52290SOL     OW61554  10.892  10.441   2.192  0.0919 -0.6210 -0.3025
52290SOL    HW161555  10.799  10.428   2.170 -0.0385 -0.0352 -0.1090
52290SOL    HW261556  10.910  10.532   2.167 -0.0904  0.1205  2.0637
52291SOL     OW61557   0.170   9.390   3.536 -0.0713 -0.1239  0.0990
52291SOL    HW161558   0.139   9.407   3.447 -0.0004  0.8757  0.2546
52291SOL    HW261559   0.089   9.383   3.588 -0.0987  1.7108  0.3667
52292SOL     OW61560  11.227   0.269   0.732  0.2577  0.1572  0.5029
52292SOL    HW161561  11.315   0.242   0.760  0.8315  2.4022  1.0759
52292SOL    HW261562  11.187   0.307   0.810 -1.4216 -1.1234  0.3381
52293SOL     OW61563   3.826   9.118   4.704  0.2452 -0.4361  0.5153
52293SOL    HW161564   3.863   9.174   4.772  1.9446 -1.2749  0.3412
52293SOL    HW261565   3.890   9.047   4.695 -1.2493 -1.7628 -0.1003
52294SOL     OW61566   9.005   7.739   7.043  0.1288  0.0995  0.0717
52294SOL    HW161567   9.008   7.814   6.984 -0.8003 -0.0504 -0.1844
52294SOL    HW261568   9.002   7.663   6.986 -2.1351 -0.0083  0.2245
52295SOL     OW61569   1.767   6.769   2.898 -0.4327 -0.0449 -0.1585
52295SOL    HW161570   1.704   6.807   2.836 -0.6588 -1.5665 -0.9113
52295SOL    HW261571   1.734   6.681   2.914  2.4566 -1.6528 -2.1094
52296SOL     OW61572   9.009   5.567   4.122 -0.2015  0.1123  0.4686
52296SOL    HW161573   9.024   5.625   4.197 -2.0596 -0.0574  0.9977
52296SOL    HW261574   9.008   5.479   4.159 -0.4822 -0.0213  0.1490
52297SOL     OW61575   1.201   0.724  10.153  0.3614  0.2210  0.1365
52297SOL    HW161576   1.163   0.735  10.240  0.2686 -0.0443  0.1302
52297SOL    HW261577   1.241   0.637  10.155  2.1850  1.0318  0.6034
52298SOL     OW61578   3.743   8.027  10.698 -0.3070 -0.3146  0.1101
52298SOL    HW161579   3.759   8.118  10.725 -1.4519  0.0764 -0.4667
52298SOL    HW261580   3.814   8.008  10.637 -0.5528  0.4943 -0.4389
52299SOL     OW61581  11.257   1.463   3.088 -0.7086 -0.1299 -0.9342
52299SOL    HW161582  11.221   1.488   3.172 -1.3167 -0.0500 -1.2149
52299SOL    HW261583  11.322   1.396   3.108  1.8799  2.4134 -0.0167
52300SOL     OW61584   0.810   0.625   7.472  0.1535  0.2172  0.2732
52300SOL    HW161585   0.745   0.555   7.463  2.1764 -1.6133 -1.2391
52300SOL    HW261586   0.767   0.703   7.436 -1.8014 -0.4776  1.0132
52301SOL     OW61587   7.363   1.845   8.209 -0.2566 -0.4113 -0.3824
52301SOL    HW161588   7.363   1.901   8.131 -0.3908  0.2856  0.1020
52301SOL    HW261589   7.272   1.844   8.237 -0.1763 -0.4796 -0.1191
52302SOL     OW61590   3.188   5.699   0.384  0.5921  0.8513 -0.1256
52302SOL    HW161591   3.172   5.705   0.290  0.3993 -0.8696 -0.2384
52302SOL    HW261592   3.153   5.613   0.409  2.1999  0.5261  1.1899
52303SOL     OW61593   6.000   7.382   5.408 -0.1108  0.2927 -0.0665
52303SOL    HW161594   5.994   7.332   5.327  1.4531  0.4592 -0.3165
52303SOL    HW261595   6.009   7.473   5.379  1.3845  0.2661  0.2285
52304SOL     OW61596   0.927   4.994   3.239  0.1845 -0.2024  0.5404
52304SOL    HW161597   0.963   5.068   3.190  1.5090  0.3653  2.2506
52304SOL    HW261598   0.944   5.015   3.331 -0.4050 -2.1229  1.1522
52305SOL     OW61599   4.908   3.641   8.452 -0.0453 -0.1437 -0.0591
52305SOL    HW161600   4.961   3.705   8.499  0.5207 -0.2468 -0.5436
52305SOL    HW261601   4.884   3.575   8.517 -0.0983  0.2267  0.2968
52306SOL     OW61602   1.247   5.106   7.134 -0.3483  0.2247 -0.2769
52306SOL    HW161603   1.215   5.030   7.182  1.5967 -1.4967 -1.5600
52306SOL    HW261604   1.238   5.179   7.196 -0.6937 -1.3343  1.6013
52307SOL     OW61605   6.224  10.228   6.191  0.0192 -0.3827  0.3973
52307SOL    HW161606   6.304  10.277   6.209  0.2308 -1.4457  2.6765
52307SOL    HW261607   6.159  10.266   6.250 -1.4647  0.9856 -1.9547
52308SOL     OW61608   3.824   0.719   9.798  0.1037  0.4952 -0.1892
52308SOL    HW161609   3.752   0.749   9.743  0.2363 -0.1215 -0.7120
52308SOL    HW261610   3.867   0.800   9.828 -2.2813  1.0040  2.2239
52309SOL     OW61611   3.376   4.757   9.106 -0.1554 -0.1039 -1.0400
52309SOL    HW161612   3.413   4.681   9.152  3.6850  0.6503 -2.5101
52309SOL    HW261613   3.289   4.729   9.079  0.2524 -3.1472  0.4002
52310SOL     OW61614   5.305  10.504   9.952 -0.1069  0.2342  0.2505
52310SOL    HW161615   5.255  10.503   9.870 -0.4062 -2.1076  0.3992
52310SOL    HW261616   5.396  10.510   9.924 -0.2942  3.0962 -0.0665
52311SOL     OW61617   2.766   8.985   6.510 -0.4659  0.0260  0.4037
52311SOL    HW161618   2.770   9.015   6.601  0.4241  1.5429 -0.0949
52311SOL    HW261619   2.827   8.911   6.507 -2.0331 -1.3742  1.4666
52312SOL     OW61620   2.696   0.518   9.440 -0.0177  0.1053  0.3273
52312SOL    HW161621   2.752   0.557   9.373 -0.6709  1.0384  0.3030
52312SOL    HW261622   2.735   0.546   9.523 -0.5330  0.9189  0.3100
52313SOL     OW61623   4.907  11.364   1.360 -0.4636  1.0338 -0.1882
52313SOL    HW161624   4.951  11.363   1.275 -0.9260  0.4321 -0.4274
52313SOL    HW261625   4.915  11.454   1.390  0.5455  1.0282 -0.4275
52314SOL     OW61626  11.032   3.638   4.423  0.0701 -0.3475 -0.4367
52314SOL    HW161627  11.067   3.558   4.382 -1.5423 -2.2735  1.6524
52314SOL    HW261628  10.948   3.651   4.380 -0.2410 -0.5304  0.1209
52315SOL     OW61629   4.613   7.061   5.515  0.7110  0.5497 -0.3393
52315SOL    HW161630   4.662   7.033   5.592 -1.2733 -1.1876  0.3879
52315SOL    HW261631   4.631   6.994   5.449 -1.2287 -0.6129  0.2195
52316SOL     OW61632  11.846   5.105  10.213 -0.0696 -0.1543  0.1620
52316SOL    HW161633  11.827   5.125  10.121  2.4808 -0.5498 -0.5298
52316SOL    HW261634  11.889   5.183  10.247 -1.4420  0.1832  1.2231
52317SOL     OW61635   9.802   6.101   4.234 -0.4988 -0.5088 -0.3830
52317SOL    HW161636   9.740   6.171   4.254  0.6836  0.8032 -1.0645
52317SOL    HW261637   9.868   6.108   4.303  0.8001  0.5743 -1.6473
52318SOL     OW61638   5.829  10.537   6.267 -0.6645 -0.1665 -0.1442
52318SOL    HW161639   5.836  10.444   6.291  1.0803 -0.0687 -0.1471
52318SOL    HW261640   5.803  10.581   6.348 -1.1575 -0.6051 -0.0564
52319SOL     OW61641   0.731   9.863   9.616  0.3266  0.2271 -0.4980
52319SOL    HW161642   0.655   9.825   9.571  0.6855 -1.4205  0.1981
52319SOL    HW261643   0.784   9.901   9.546 -0.5538  0.3488 -1.1179
52320SOL     OW61644  11.271   8.013   8.335  0.3338  0.1994 -0.7445
52320SOL    HW161645  11.222   7.992   8.414  0.2784  0.9135 -0.5801
52320SOL    HW261646  11.354   8.048   8.366 -0.1574  1.6271 -0.9592
52321SOL     OW61647   5.867   8.036  10.985  0.0930 -0.0871 -0.4978
52321SOL    HW161648   5.815   8.116  10.975  0.6032  0.0964 -1.8466
52321SOL    HW261649   5.864   8.017  11.079  0.3009  1.7417 -0.0892
52322SOL     OW61650   2.153   8.636   1.682  0.1614  0.0840  0.3028
52322SOL    HW161651   2.063   8.631   1.649 -0.1781 -1.8158  1.3525
52322SOL    HW261652   2.143   8.645   1.777  1.0233 -1.5820  0.5854
52323SOL     OW61653   3.872  10.136  11.749  0.3071 -0.3062  0.0714
52323SOL    HW161654   3.940  10.192  11.787  0.6754 -0.1524 -0.7942
52323SOL    HW261655   3.870  10.161  11.657 -0.5667 -0.6807 -0.0158
52324SOL     OW61656  11.161  11.933  10.782  0.2670  0.4987 -0.1942
52324SOL    HW161657  11.211  11.853  10.772  1.1495  0.8376  1.2424
52324SOL    HW261658  11.201  11.978  10.856 -1.8363  1.0356  0.7070
52325SOL     OW61659   0.766   1.779   9.886  0.0658 -0.0426  0.3213
52325SOL    HW161660   0.695   1.841   9.867 -0.9853 -0.8016  1.6574
52325SOL    HW261661   0.843   1.835   9.899 -0.3604  0.8231 -0.7052
52326SOL     OW61662   7.812   3.609   0.351 -0.1713  0.0127  0.0163
52326SOL    HW161663   7.795   3.691   0.397 -1.6604 -0.4950  0.4245
52326SOL    HW261664   7.843   3.549   0.419 -0.6147 -0.2129  0.0219
52327SOL     OW61665   1.700   6.634  11.482 -0.1653 -0.4077 -0.0607
52327SOL    HW161666   1.747   6.555  11.454 -0.3668  0.3989 -3.1172
52327SOL    HW261667   1.697   6.688  11.403 -3.3825  1.0120  0.8847
52328SOL     OW61668  10.023   9.479  11.453 -0.0875 -0.1109 -0.2808
52328SOL    HW161669  10.033   9.485  11.548 -1.3946  0.1094 -0.1390
52328SOL    HW261670   9.963   9.406  11.439 -0.9420  0.6731 -0.8555
52329SOL     OW61671   5.923   8.503   1.569  0.2376 -0.3168 -0.2109
52329SOL    HW161672   5.880   8.422   1.543 -0.2950 -0.4795  1.0879
52329SOL    HW261673   5.887   8.523   1.655  1.1984  0.7007 -0.0146
52330SOL     OW61674  10.947   4.845   7.016  0.5432  0.5131  0.2642
52330SOL    HW161675  11.019   4.843   7.079  1.4414 -0.7947 -0.7700
52330SOL    HW261676  10.988   4.867   6.933 -0.4894  1.2192 -0.0726
52331SOL     OW61677  11.063   3.527  10.917  0.0487 -0.0995  0.7577
52331SOL    HW161678  11.123   3.602  10.916 -1.9091  1.5912  1.0734
52331SOL    HW261679  11.050   3.509  11.010 -1.0229  0.5499  0.7561
52332SOL     OW61680   7.698   0.893   9.537  0.7070  0.3466 -0.1343
52332SOL    HW161681   7.630   0.837   9.500 -2.2879  1.5304  3.0082
52332SOL    HW261682   7.700   0.970   9.481  1.1098 -0.6033 -1.4858
52333SOL     OW61683   9.103  12.001   3.145 -0.3440  0.3119 -0.7957
52333SOL    HW161684   9.158  12.001   3.224 -0.9883  2.5797 -0.2661
52333SOL    HW261685   9.137  11.929   3.092  0.1590 -1.2458  1.5085
52334SOL     OW61686   3.809   6.103   7.245  0.4285 -0.4033  0.1879
52334SOL    HW161687   3.765   6.018   7.239  1.3480 -0.9148  0.4204
52334SOL    HW261688   3.875   6.090   7.313  0.3406  0.6127  0.4732
52335SOL     OW61689  11.052   2.251   9.294 -0.2094  0.1931 -0.6186
52335SOL    HW161690  11.035   2.338   9.259 -1.1318  0.5053  0.5417
52335SOL    HW261691  11.145   2.236   9.278  0.3031  1.9855  0.4229
52336SOL     OW61692   5.974   3.565   5.884  0.3560 -0.0279  0.2072
52336SOL    HW161693   5.995   3.486   5.836 -0.3527 -0.5793  0.7761
52336SOL    HW261694   6.004   3.636   5.828  0.6474 -0.6867 -0.4869
52337SOL     OW61695  10.199   9.913  10.595 -0.1450 -0.3208 -0.3950
52337SOL    HW161696  10.247   9.955  10.523  2.9031 -0.3319  1.4651
52337SOL    HW261697  10.195   9.821  10.570  3.5788 -0.9205  0.5777
52338SOL     OW61698   7.403   8.597   0.287  0.2440 -0.5100 -0.5859
52338SOL    HW161699   7.451   8.561   0.362 -0.2744 -1.7809 -0.8334
52338SOL    HW261700   7.339   8.657   0.326  3.0536  2.6182 -0.3431
52339SOL     OW61701   5.092   6.036   1.469  0.2487 -0.1220 -0.2858
52339SOL    HW161702   5.087   6.093   1.546  0.5376 -1.5136  0.8043
52339SOL    HW261703   5.091   6.096   1.395 -0.8653  1.2289  0.7674
52340SOL     OW61704   9.130   7.317   1.806  0.0733  0.1872 -0.4613
52340SOL    HW161705   9.045   7.358   1.794  0.2794  0.2726 -1.8105
52340SOL    HW261706   9.189   7.364   1.746  0.2575 -2.1414 -2.2802
52341SOL     OW61707   9.526   3.354   6.774  0.2414 -0.3904 -0.4272
52341SOL    HW161708   9.592   3.415   6.741 -0.6965  0.6958 -0.3473
52341SOL    HW261709   9.541   3.274   6.725  0.4326  0.4300 -1.7664
52342SOL     OW61710   1.108   4.502   6.925  0.4161  0.4620 -0.3913
52342SOL    HW161711   1.060   4.420   6.917  0.2613  0.4632  0.3925
52342SOL    HW261712   1.146   4.517   6.838 -1.6021  0.8589 -1.2417
52343SOL     OW61713   6.521  11.130   4.764 -0.5847 -0.3028  0.2199
52343SOL    HW161714   6.577  11.164   4.694 -0.3405 -0.5097  0.3153
52343SOL    HW261715   6.581  11.082   4.821 -0.8827 -0.6270  0.2551
52344SOL     OW61716   9.809  11.962   9.962 -0.6818 -0.3832  0.5696
52344SOL    HW161717   9.894  12.001   9.982  0.2031 -2.5063  1.1258
52344SOL    HW261718   9.775  11.934  10.046 -1.7236 -0.0205  0.2836
52345SOL     OW61719   3.018   1.556  11.690 -0.1240  0.1738  0.1690
52345SOL    HW161720   3.103   1.551  11.733 -0.3188  3.9292  1.3802
52345SOL    HW261721   3.034   1.606  11.611 -1.1078  0.4466  0.1305
52346SOL     OW61722   5.212   1.879   1.352 -0.0470 -0.0748 -0.9165
52346SOL    HW161723   5.231   1.972   1.360  0.5824  0.0275 -2.9303
52346SOL    HW261724   5.134   1.875   1.297  0.8531 -0.7291 -2.2038
52347SOL     OW61725   1.255   5.117   8.363 -0.4461 -0.0408  0.0490
52347SOL    HW161726   1.161   5.104   8.376 -0.2252 -0.3122  1.6848
52347SOL    HW261727   1.261   5.191   8.302 -1.7566  1.5723  1.7318
52348SOL     OW61728   4.619   2.177   9.080  0.0230  0.4031 -0.3637
52348SOL    HW161729   4.530   2.209   9.092  0.5906  1.8311  0.2714
52348SOL    HW261730   4.618   2.136   8.993 -1.4226 -0.2891 -0.0492
52349SOL     OW61731   1.641   7.688   4.059  0.5137  0.0993 -0.5542
52349SOL    HW161732   1.698   7.742   4.114  1.3802  0.4561 -1.7592
52349SOL    HW261733   1.623   7.610   4.112  0.1595  1.0413  0.7722
52350SOL     OW61734   0.769   0.066   7.337 -0.0464 -0.2562 -0.2191
52350SOL    HW161735   0.797  -0.025   7.347 -2.5445 -0.9226  1.6527
52350SOL    HW261736   0.768   0.101   7.426  0.7395  1.6047 -0.9015
52351SOL     OW61737   6.844  10.428   1.761  0.2044  0.2546 -0.0653
52351SOL    HW161738   6.766  10.468   1.723 -1.9472 -1.3633  2.3017
52351SOL    HW261739   6.834  10.334   1.743  0.4379 -0.2347  2.0762
52352SOL     OW61740   0.990   8.790   1.605 -0.3191 -0.4798  0.5570
52352SOL    HW161741   0.905   8.759   1.635 -1.0991  1.6651  0.7183
52352SOL    HW261742   1.045   8.790   1.684 -0.5239 -0.7045  0.7017
52353SOL     OW61743   2.544   9.243   6.303  0.3234 -0.0040 -0.3052
52353SOL    HW161744   2.537   9.331   6.267  0.8031  1.3561  2.5846
52353SOL    HW261745   2.454   9.214   6.316  0.1669  0.1696 -0.9860
52354SOL     OW61746   1.703   9.443   8.163 -0.0081 -0.1301 -0.0900
52354SOL    HW161747   1.624   9.496   8.172 -0.2285 -0.3746 -0.5435
52354SOL    HW261748   1.749   9.482   8.088 -0.6281 -1.1289 -1.0300
52355SOL     OW61749   2.760  10.352   2.240  0.2533  0.0517  0.4976
52355SOL    HW161750   2.692  10.418   2.251  1.1772  1.1476 -0.1052
52355SOL    HW261751   2.836  10.387   2.287  0.8197 -0.5030  0.0248
52356SOL     OW61752  10.763   4.093   7.330 -0.0106  0.2474  0.3831
52356SOL    HW161753  10.832   4.117   7.392  0.3416 -2.2750  1.0803
52356SOL    HW261754  10.806   4.093   7.245 -0.2500  2.7715  0.1955
52357SOL     OW61755   8.419   7.025   1.938  0.1317  0.3491  0.2013
52357SOL    HW161756   8.365   6.990   2.008  1.5844 -2.2377  0.1485
52357SOL    HW261757   8.362   7.087   1.892 -2.1371 -0.8569  1.2430
52358SOL     OW61758   9.385   7.970   6.623 -0.4809  0.1083  0.2044
52358SOL    HW161759   9.459   7.990   6.566  0.5061  0.0376  1.4176
52358SOL    HW261760   9.418   7.905   6.684 -0.6893  1.9328  2.4146
52359SOL     OW61761  11.964   8.941   2.530  0.1628  0.1892 -0.0295
52359SOL    HW161762  12.016   8.860   2.532  0.2086  0.1290 -1.8488
52359SOL    HW261763  12.013   9.000   2.474 -1.0981  0.5667 -0.7875
52360SOL     OW61764   6.341   9.436   5.852 -0.4836  0.0231 -0.7746
52360SOL    HW161765   6.383   9.440   5.766  0.8705  0.9766 -0.1063
52360SOL    HW261766   6.255   9.477   5.839 -0.3605  0.0114 -1.6968
52361SOL     OW61767  11.514   2.649   9.980 -0.0791 -0.6104  0.1689
52361SOL    HW161768  11.549   2.714  10.041 -1.0411  0.6626 -0.5944
52361SOL    HW261769  11.440   2.692   9.938  0.1003 -1.7122 -1.3725
52362SOL     OW61770   9.518  11.421   7.042 -0.4113  0.4391 -0.4282
52362SOL    HW161771   9.450  11.460   7.098 -0.0548 -1.0221  1.1097
52362SOL    HW261772   9.478  11.341   7.009  0.5175 -0.4691  0.5366
52363SOL     OW61773   5.452   9.726   7.854 -0.5768 -0.2372 -0.0531
52363SOL    HW161774   5.437   9.820   7.842 -3.6446 -0.6502 -0.2171
52363SOL    HW261775   5.429   9.710   7.946  0.2551 -0.8258  0.0717
52364SOL     OW61776   2.663   9.504  10.260  0.5376 -0.0199  0.6179
52364SOL    HW161777   2.693   9.595  10.252 -0.4339  0.2873  0.3196
52364SOL    HW261778   2.736   9.452  10.225  0.8482  0.6799  0.1908
52365SOL     OW61779   5.409   3.558   2.710  0.4065  0.2096 -0.3412
52365SOL    HW161780   5.384   3.629   2.769 -0.5154 -0.5631  0.2226
52365SOL    HW261781   5.344   3.561   2.640 -1.8939 -2.2739  1.5066
52366SOL     OW61782   3.275   7.195   5.418  0.2066 -0.1517 -0.4672
52366SOL    HW161783   3.226   7.123   5.380 -1.1621  0.9488 -0.8506
52366SOL    HW261784   3.273   7.264   5.352  0.3621  0.7124  0.4012
52367SOL     OW61785   5.086   4.602   2.140 -0.0398  0.3509  0.0625
52367SOL    HW161786   4.991   4.603   2.151 -0.5354 -1.2200 -2.8750
52367SOL    HW261787   5.101   4.647   2.057  1.8143  0.5820  0.4775
52368SOL     OW61788   8.234   0.835   5.622 -0.2543  0.0849 -0.4757
52368SOL    HW161789   8.200   0.745   5.625 -0.7598  0.2255 -1.5905
52368SOL    HW261790   8.173   0.884   5.678 -1.1367  0.0844 -1.4061
52369SOL     OW61791   1.682   9.207   9.310  0.0396  0.0566  0.0716
52369SOL    HW161792   1.725   9.289   9.290 -1.2620  0.9475  0.7830
52369SOL    HW261793   1.680   9.202   9.405 -2.0190  0.4211  0.1002
52370SOL     OW61794   9.224   6.999   9.572  0.7689 -0.0005 -0.2669
52370SOL    HW161795   9.208   7.039   9.658  0.4043  0.1130 -0.3899
52370SOL    HW261796   9.181   6.914   9.577  0.1797  0.2782 -0.5734
52371SOL     OW61797   3.630   6.197   6.722 -0.2692  0.0711 -0.2221
52371SOL    HW161798   3.586   6.201   6.637  0.8410 -0.7306 -0.8659
52371SOL    HW261799   3.559   6.192   6.786 -1.2127 -2.7009 -1.3073
52372SOL     OW61800   9.819   9.438   8.681 -0.4735 -0.2331  0.2165
52372SOL    HW161801   9.826   9.349   8.715 -0.3231 -0.2236  0.2104
52372SOL    HW261802   9.817   9.494   8.758 -2.0971 -0.3331  0.2908
52373SOL     OW61803  11.942   2.664   8.528  0.1174  0.5664  0.0719
52373SOL    HW161804  11.926   2.607   8.453 -2.3931  0.6705  0.4262
52373SOL    HW261805  12.032   2.645   8.555 -0.0305 -1.8796 -0.9470
52374SOL     OW61806   5.776   1.181   5.034  0.1473  0.0483  0.8249
52374SOL    HW161807   5.776   1.273   5.006 -0.6507  0.0131  0.6756
52374SOL    HW261808   5.732   1.182   5.119 -2.4522 -0.5083 -0.4117
52375SOL     OW61809   9.591   4.653   5.022 -0.2005 -0.1061 -0.3880
52375SOL    HW161810   9.562   4.710   5.094  2.4457 -1.7641  2.2150
52375SOL    HW261811   9.558   4.566   5.046  1.2403 -0.7937 -0.8303
52376SOL     OW61812   5.705   0.199   2.412  0.0605 -0.0646 -0.2652
52376SOL    HW161813   5.671   0.288   2.401  0.5540  0.1940  0.2454
52376SOL    HW261814   5.653   0.162   2.483  0.3458  0.0675  0.0105
52377SOL     OW61815   1.031   3.522  10.848 -0.9280  0.2296  0.2735
52377SOL    HW161816   0.994   3.504  10.761 -1.1310  1.0044  0.1973
52377SOL    HW261817   1.009   3.613  10.866 -1.7810 -0.2018  1.5824
52378SOL     OW61818   4.350  11.899   7.143  0.8325 -0.2337 -0.0262
52378SOL    HW161819   4.281  11.948   7.098  0.9428  2.0220  2.0701
52378SOL    HW261820   4.339  11.808   7.114 -1.6063  0.4397 -1.4075
52379SOL     OW61821   7.406   1.756   9.818  0.5569 -0.3078  0.2715
52379SOL    HW161822   7.446   1.829   9.866  1.5187  1.0605 -2.3946
52379SOL    HW261823   7.467   1.683   9.830  0.0295 -0.4698  2.2461
52380SOL     OW61824   7.014   1.271   9.519 -0.6521  0.3310 -0.3858
52380SOL    HW161825   7.094   1.315   9.546 -0.2573  0.0484 -1.0713
52380SOL    HW261826   7.037   1.228   9.436 -1.2524 -0.5043 -0.1262
52381SOL     OW61827   8.822  11.298   9.718  0.1377 -0.0778 -0.2990
52381SOL    HW161828   8.912  11.302   9.688  0.4222 -2.6863  0.0063
52381SOL    HW261829   8.828  11.262   9.807 -1.2114 -0.2355 -0.2503
52382SOL     OW61830   7.623  11.135   3.765 -1.0579  0.2573 -0.8235
52382SOL    HW161831   7.652  11.211   3.715  1.6776 -0.6007 -0.6825
52382SOL    HW261832   7.560  11.171   3.828 -1.8675  1.9272 -2.4874
52383SOL     OW61833   4.672   9.164   9.330 -0.5023  0.2677  0.1361
52383SOL    HW161834   4.767   9.155   9.327 -0.4817 -0.5862  1.9819
52383SOL    HW261835   4.655   9.221   9.405 -1.4877 -1.2239  1.1099
52384SOL     OW61836   4.541   4.237   0.382 -1.1535  0.1813 -0.2320
52384SOL    HW161837   4.545   4.188   0.465  1.7066 -0.4533 -0.6571
52384SOL    HW261838   4.629   4.229   0.345 -2.0435  1.3963 -2.8205
52385SOL     OW61839   8.083   9.606   8.233  0.5215 -0.1413 -0.1899
52385SOL    HW161840   8.032   9.685   8.216  0.6248 -0.0181  0.0536
52385SOL    HW261841   8.167   9.639   8.267 -0.5676 -0.3826  3.0894
52386SOL     OW61842   0.344   1.203  10.867  0.0841 -0.7417 -0.5425
52386SOL    HW161843   0.296   1.285  10.860 -0.3033 -0.9674 -0.5346
52386SOL    HW261844   0.277   1.136  10.876  0.3772 -0.7660  2.8701
52387SOL     OW61845   3.517   2.204   4.409 -0.6121 -0.0686 -0.1598
52387SOL    HW161846   3.540   2.296   4.396  0.5849 -0.0589  1.6787
52387SOL    HW261847   3.593   2.166   4.452 -0.7934 -2.1280 -1.5101
52388SOL     OW61848   0.962   9.648   1.619  0.2101 -0.1879 -0.8894
52388SOL    HW161849   0.906   9.582   1.579  0.4642 -0.8973 -0.1166
52388SOL    HW261850   1.023   9.598   1.673 -0.0826  0.7192  0.3379
52389SOL     OW61851   2.771   6.443   9.492 -0.7195  0.3472  0.5704
52389SOL    HW161852   2.743   6.534   9.500 -2.6022 -0.1278 -0.1030
52389SOL    HW261853   2.745   6.417   9.404 -0.1089 -0.8020  0.7051
52390SOL     OW61854  10.352   9.238   9.798 -0.0805  0.1149 -0.0734
52390SOL    HW161855  10.445   9.245   9.820 -0.1361  0.1663  0.1511
52390SOL    HW261856  10.308   9.302   9.855 -0.3705 -0.6739  0.6182
52391SOL     OW61857   1.558   3.121   9.118 -0.1578 -0.1781  0.1383
52391SOL    HW161858   1.575   3.027   9.122 -0.0278 -0.1166  1.9232
52391SOL    HW261859   1.642   3.161   9.143 -0.3294  0.4029 -0.2039
52392SOL     OW61860   3.255   2.038   7.548  0.4934 -0.5551  0.5451
52392SOL    HW161861   3.302   1.979   7.607  0.1074  0.4575  1.9165
52392SOL    HW261862   3.323   2.098   7.516  0.4607 -0.2314  1.0782
52393SOL     OW61863   6.519   3.853   0.345 -0.1066 -0.2260 -0.0004
52393SOL    HW161864   6.542   3.763   0.371  0.0934 -0.1068  0.2390
52393SOL    HW261865   6.425   3.859   0.360 -0.8868 -1.5449 -3.3887
52394SOL     OW61866   6.411   4.270  10.081  0.0021  0.9141  0.1026
52394SOL    HW161867   6.319   4.258  10.056 -0.0709  0.4098  0.5789
52394SOL    HW261868   6.417   4.362  10.107 -0.1309  1.2083 -0.8619
52395SOL     OW61869   7.824   3.528  10.009  0.7544  0.7199 -0.1367
52395SOL    HW161870   7.761   3.500   9.943  0.5125 -1.3846  0.9002
52395SOL    HW261871   7.892   3.461  10.007 -0.0661 -0.3924  2.7777
52396SOL     OW61872   8.241   3.280  11.783 -0.1390  0.4122 -0.0189
52396SOL    HW161873   8.263   3.368  11.812  0.5684  0.3859 -0.4540
52396SOL    HW261874   8.237   3.286  11.687  1.7840 -0.4005 -0.2089
52397SOL     OW61875   2.537  10.665   2.913  0.4225  0.6934 -0.1297
52397SOL    HW161876   2.628  10.633   2.913  0.6785  1.4034  0.2541
52397SOL    HW261877   2.546  10.760   2.917 -0.3307  0.8143 -1.1476
52398SOL     OW61878   1.132   9.023   9.208  0.4013 -0.7443 -0.3039
52398SOL    HW161879   1.102   8.933   9.196 -1.4278 -0.2115 -0.0166
52398SOL    HW261880   1.052   9.074   9.212  1.3006  0.6109  2.0356
52399SOL     OW61881   6.355   3.565  10.654 -0.3097  0.2006  0.4829
52399SOL    HW161882   6.391   3.498  10.596  0.0264 -0.2754  1.2157
52399SOL    HW261883   6.432   3.597  10.703 -0.3296  1.7078 -0.4314
52400SOL     OW61884   0.795  10.425   4.784 -0.2473 -0.8740 -0.1345
52400SOL    HW161885   0.877  10.379   4.805 -0.0751 -0.0235  1.1529
52400SOL    HW261886   0.753  10.438   4.868 -0.6399  0.6687 -0.5447
52401SOL     OW61887  11.770   1.808   0.315 -0.1856  0.3783 -1.0363
52401SOL    HW161888  11.863   1.793   0.295 -0.3754 -0.7753 -1.1220
52401SOL    HW261889  11.772   1.876   0.382  0.8546 -0.8336  0.2505
52402SOL     OW61890  10.173   3.061   0.402 -0.8465  0.1377 -0.3339
52402SOL    HW161891  10.258   3.053   0.445 -0.4089 -0.9252 -1.3483
52402SOL    HW261892  10.147   2.971   0.384 -1.6304  0.5055 -1.1171
52403SOL     OW61893   0.793   0.466  10.195 -0.0586  0.1994 -0.0515
52403SOL    HW161894   0.816   0.373  10.187  1.6034  0.3190  2.3013
52403SOL    HW261895   0.700   0.465  10.220 -0.6009 -0.6962 -1.9308
52404SOL     OW61896  11.386  10.792  11.307  0.2316 -0.5086  0.2596
52404SOL    HW161897  11.451  10.738  11.351  0.2364 -0.5242  0.2337
52404SOL    HW261898  11.307  10.738  11.303  0.2463 -0.5276  0.2026
52405SOL     OW61899  10.538   3.637   6.259  0.1237 -0.0726  0.0172
52405SOL    HW161900  10.608   3.618   6.322  0.3356  0.0285 -0.1865
52405SOL    HW261901  10.515   3.552   6.222  1.6844  0.1234 -1.5449
52406SOL     OW61902   2.519  11.640   0.849  0.5387 -0.1660 -0.2182
52406SOL    HW161903   2.551  11.615   0.936 -1.6973 -0.4775  0.5708
52406SOL    HW261904   2.457  11.571   0.826  0.6306  0.2465 -1.8229
52407SOL     OW61905   7.035   7.117   2.995  0.2712  0.2004  0.5857
52407SOL    HW161906   7.063   7.026   2.980  0.7055  0.0133  2.3521
52407SOL    HW261907   7.033   7.126   3.090 -2.6866  1.1669  0.5234
52408SOL     OW61908   9.833   3.422  11.283 -0.0679 -0.0236  0.0270
52408SOL    HW161909   9.759   3.374  11.322  0.3058 -1.7493 -1.2596
52408SOL    HW261910   9.892   3.354  11.252  2.1964  1.3135  1.1567
52409SOL     OW61911  11.474   4.749   6.034 -0.2785 -0.4061  0.0362
52409SOL    HW161912  11.382   4.776   6.035  0.0077  0.6096  0.7226
52409SOL    HW261913  11.520   4.822   5.992  0.2778 -0.7096  0.0994
52410SOL     OW61914   3.739   1.298   6.656 -0.3586  0.2870 -0.2784
52410SOL    HW161915   3.774   1.226   6.708 -0.0459  1.0007  0.5362
52410SOL    HW261916   3.770   1.282   6.567  1.4621  0.5128  0.2720
52411SOL     OW61917   1.199   7.853   9.398 -0.1209  0.4852  0.3419
52411SOL    HW161918   1.146   7.918   9.352  0.0598  1.1634  1.0654
52411SOL    HW261919   1.136   7.801   9.448 -0.4455 -1.0064 -1.5017
52412SOL     OW61920   9.208   1.379   5.908  0.4591  0.0913  0.7028
52412SOL    HW161921   9.190   1.385   5.814 -0.5881 -0.9054  0.8282
52412SOL    HW261922   9.283   1.438   5.921  1.4964 -0.7820 -0.9774
52413SOL     OW61923   6.322   7.900   4.148 -0.4224 -0.2610 -0.2249
52413SOL    HW161924   6.377   7.945   4.084  0.8634 -0.0547  0.9637
52413SOL    HW261925   6.243   7.953   4.154 -0.2207  0.1487 -1.0594
52414SOL     OW61926   2.376  10.309   6.501 -0.1475  0.1816  0.1897
52414SOL    HW161927   2.369  10.319   6.406  0.3097 -1.3944 -0.0461
52414SOL    HW261928   2.324  10.381   6.537 -0.4010  0.7553 -1.2440
52415SOL     OW61929   2.523   1.225   4.668  0.7466  0.5486 -0.4060
52415SOL    HW161930   2.521   1.211   4.573 -1.1401  1.0475 -0.4645
52415SOL    HW261931   2.615   1.209   4.692  0.9463 -1.1411 -2.0508
52416SOL     OW61932   6.941   4.490   1.830 -0.3676 -0.0076  0.4063
52416SOL    HW161933   6.949   4.585   1.839 -1.3053  0.0551  0.7457
52416SOL    HW261934   6.995   4.454   1.900 -1.6601  0.3355  1.6134
52417SOL     OW61935   6.413  11.412   4.524  0.5102  0.0645 -0.0098
52417SOL    HW161936   6.438  11.322   4.506  0.4751  0.2632 -1.1056
52417SOL    HW261937   6.335  11.427   4.472  0.5376  0.7344  0.1309
52418SOL     OW61938   3.753  11.792   7.155  0.1382 -0.1452 -0.3133
52418SOL    HW161939   3.845  11.782   7.133  0.1565 -0.3735 -0.1436
52418SOL    HW261940   3.709  11.809   7.072  0.0654 -1.9660 -0.7018
52419SOL     OW61941  11.567   8.157   4.577  0.2064 -0.7337  0.2501
52419SOL    HW161942  11.648   8.108   4.591  1.4762  1.3295  0.5840
52419SOL    HW261943  11.556   8.158   4.482 -0.6212 -2.7492  0.2672
52420SOL     OW61944   3.017   4.760   9.623  0.8976  0.0204 -0.5670
52420SOL    HW161945   3.099   4.737   9.579  2.1502 -0.3857  1.8240
52420SOL    HW261946   3.008   4.696   9.694 -0.8859  0.7666 -0.0523
52421SOL     OW61947   5.352  11.722   5.530  0.5415 -0.5074 -1.0238
52421SOL    HW161948   5.278  11.778   5.509 -0.4436 -1.2758  0.2911
52421SOL    HW261949   5.412  11.779   5.578 -0.6765 -0.6516  0.7469
52422SOL     OW61950   3.940   5.939   2.683  0.0501  0.0847  0.4891
52422SOL    HW161951   4.028   5.905   2.669  0.6294 -0.0112  3.6509
52422SOL    HW261952   3.893   5.868   2.727 -1.5254  0.2889 -0.7423
52423SOL     OW61953   8.752   4.595   2.401  0.5817  0.1962 -0.4267
52423SOL    HW161954   8.706   4.535   2.343  1.1000  0.3474 -1.0062
52423SOL    HW261955   8.684   4.655   2.433  0.2703  0.0346 -0.7834
52424SOL     OW61956   5.637   0.388  11.339  0.2754 -0.1109 -0.3321
52424SOL    HW161957   5.553   0.417  11.304 -0.3226 -1.6947 -0.3101
52424SOL    HW261958   5.703   0.428  11.282 -0.4966  0.7908 -0.6161
52425SOL     OW61959  11.402   0.123   4.793  0.0345  0.0163  0.5333
52425SOL    HW161960  11.323   0.098   4.744 -0.0464 -0.8513  1.0937
52425SOL    HW261961  11.400   0.068   4.871  1.8152 -0.8768 -0.0090
52426SOL     OW61962   2.903  11.880   9.761 -0.3632  0.1065  0.1587
52426SOL    HW161963   2.895  11.890   9.856 -0.7661  1.8023 -0.0248
52426SOL    HW261964   2.865  11.960   9.725 -1.2259 -0.9863 -1.4880
52427SOL     OW61965   3.118  10.826   3.828 -0.3636 -0.2476  0.3189
52427SOL    HW161966   3.179  10.774   3.880 -0.5411 -2.5214 -1.5661
52427SOL    HW261967   3.033  10.814   3.871 -0.1847 -0.4568  0.6171
52428SOL     OW61968   3.629   9.184   1.079 -0.1614  0.1685 -0.5551
52428SOL    HW161969   3.597   9.253   1.137 -1.5359 -1.4892  0.7701
52428SOL    HW261970   3.621   9.220   0.991  0.0634  2.0164  0.1400
52429SOL     OW61971   1.263   1.815  11.575 -0.4745  0.2030  0.2943
52429SOL    HW161972   1.194   1.750  11.558 -0.6410 -0.3112  2.5693
52429SOL    HW261973   1.224   1.876  11.637  1.2683 -0.4698  2.1471
52430SOL     OW61974   4.496   5.470  11.046 -0.2352 -0.2732 -0.3008
52430SOL    HW161975   4.489   5.452  10.952 -1.1536 -0.5145 -0.2004
52430SOL    HW261976   4.500   5.383  11.086  0.7834 -0.1661 -0.1475
52431SOL     OW61977  10.041   5.952   3.962  0.6974 -0.6520  0.4717
52431SOL    HW161978  10.049   5.857   3.971  0.8036 -0.6961 -0.0933
52431SOL    HW261979   9.950   5.970   3.983  0.1887 -1.0943 -1.2453
52432SOL     OW61980   3.105   6.588   0.518  0.5861  0.1793  0.0843
52432SOL    HW161981   3.134   6.505   0.481  0.1920 -0.2996  0.8416
52432SOL    HW261982   3.181   6.621   0.566  0.2686 -0.5114  1.0930
52433SOL     OW61983   7.093  10.881   5.337  0.3897  0.8069 -0.0319
52433SOL    HW161984   7.061  10.790   5.334  2.3291  0.0658  0.1687
52433SOL    HW261985   7.017  10.932   5.366 -1.0654 -0.5778 -1.1922
52434SOL     OW61986  10.714   8.352   1.264  0.2736 -0.0629 -0.3921
52434SOL    HW161987  10.628   8.394   1.275  0.2258 -0.2023 -0.2447
52434SOL    HW261988  10.706   8.301   1.183  0.1867 -0.1546 -0.3255
52435SOL     OW61989   6.311   1.092  11.653 -0.2789  0.0546  0.4713
52435SOL    HW161990   6.329   1.104  11.559 -0.6407 -0.0439  0.3868
52435SOL    HW261991   6.220   1.062  11.656  0.1816 -1.4037  0.7572
52436SOL     OW61992   4.612  11.695   8.784  0.0425  0.2462  0.5425
52436SOL    HW161993   4.634  11.788   8.787 -0.7475  0.4495  0.1681
52436SOL    HW261994   4.589  11.673   8.875 -2.0453  0.9927  0.2402
52437SOL     OW61995   3.891   9.337   8.338  0.1590 -0.0417 -0.3064
52437SOL    HW161996   3.854   9.276   8.402  0.6161 -1.2184 -1.1235
52437SOL    HW261997   3.948   9.283   8.284  1.1622  1.2648 -0.6084
52438SOL     OW61998   7.906   7.600   4.847  0.8836  0.3974 -0.1343
52438SOL    HW161999   7.960   7.611   4.769 -1.5141  1.9209 -1.7072
52438SOL    HW262000   7.830   7.656   4.833 -1.0858 -1.4941  1.9811
52439SOL     OW62001  10.845  11.953   9.313  0.2340  0.1288 -0.0379
52439SOL    HW162002  10.768  11.906   9.345  1.4175 -1.8017  0.1118
52439SOL    HW262003  10.917  11.922   9.367  1.1252  2.1254  0.0354
52440SOL     OW62004   7.575   9.504   9.601 -0.4369 -0.2211 -0.1626
52440SOL    HW162005   7.621   9.555   9.534 -0.1569 -0.3748 -0.0892
52440SOL    HW262006   7.498   9.469   9.557 -0.2280 -0.3615 -0.4191
52441SOL     OW62007   7.889   1.269   7.783 -0.0047  0.2744 -0.7310
52441SOL    HW162008   7.862   1.356   7.812 -2.2994 -0.0992 -1.5612
52441SOL    HW262009   7.840   1.254   7.702  0.5416 -1.6854 -0.7641
52442SOL     OW62010   2.520   1.070   0.039  0.1882 -0.0732 -0.0648
52442SOL    HW162011   2.428   1.046   0.027  0.3702  0.3095 -2.8519
52442SOL    HW262012   2.533   1.069   0.134 -2.2241 -1.7944  0.3297
52443SOL     OW62013   0.856   4.141   8.653 -0.2693  0.1098 -0.0974
52443SOL    HW162014   0.898   4.084   8.588 -1.1352  0.8165 -1.3314
52443SOL    HW262015   0.928   4.171   8.709  0.5103 -0.5000 -0.7541
52444SOL     OW62016   5.386  11.001   4.287 -0.1986 -0.1420  0.1324
52444SOL    HW162017   5.300  10.991   4.328 -0.2536  0.3343  0.1339
52444SOL    HW262018   5.391  11.094   4.264  0.8711  0.1358  1.3859
52445SOL     OW62019   2.789   0.913  11.737 -0.5059  0.3535 -0.7628
52445SOL    HW162020   2.877   0.919  11.774 -0.3567 -0.7502 -0.9136
52445SOL    HW262021   2.732   0.954  11.802  0.0586  0.6903 -0.4765
52446SOL     OW62022   2.016   3.436   1.175 -0.1945 -0.5744 -0.0589
52446SOL    HW162023   2.056   3.462   1.093 -2.6932  3.4530 -0.2556
52446SOL    HW262024   2.056   3.494   1.241 -1.8174 -0.1638  0.6149
52447SOL     OW62025   2.686  10.528   7.030  0.0247 -0.5329 -0.1279
52447SOL    HW162026   2.676  10.463   7.100  0.2607  0.3111  0.7158
52447SOL    HW262027   2.780  10.539   7.021 -0.0189  0.0957  0.1323
52448SOL     OW62028   4.744   2.175   9.944 -0.1025 -0.6636 -0.0494
52448SOL    HW162029   4.808   2.238   9.909 -0.5096  0.5818  1.3649
52448SOL    HW262030   4.735   2.199  10.036 -2.8325 -0.6043 -0.2580
52449SOL     OW62031   2.123   2.792   7.487 -0.9654  0.1191  0.1231
52449SOL    HW162032   2.104   2.782   7.393  3.9252 -1.2702 -1.0131
52449SOL    HW262033   2.159   2.880   7.495 -4.1108  1.4418  1.5223
52450SOL     OW62034  10.730   5.586   9.741 -0.1117 -0.2887 -0.0919
52450SOL    HW162035  10.780   5.538   9.675  1.5021  0.5344  0.4844
52450SOL    HW262036  10.675   5.520   9.782 -1.3978 -0.7892 -2.4125
52451SOL     OW62037   0.910   1.195   1.780 -0.2731  0.0585 -0.0054
52451SOL    HW162038   0.874   1.106   1.787 -1.6173  0.4959 -0.9640
52451SOL    HW262039   1.002   1.182   1.760 -0.7485 -1.1596 -1.6075
52452SOL     OW62040  10.116   7.912   1.300  0.6489  0.4406 -0.3173
52452SOL    HW162041  10.126   7.818   1.312 -1.3568  0.3185  0.7722
52452SOL    HW262042  10.180   7.934   1.232  2.0220 -1.4702  0.2611
52453SOL     OW62043   1.798   1.254   4.905  0.3999 -0.7245 -0.4500
52453SOL    HW162044   1.705   1.277   4.907  0.7871  0.9179  0.7273
52453SOL    HW262045   1.827   1.276   4.817  0.1885  1.1249 -0.0930
52454SOL     OW62046  10.361   9.121   3.611  0.0064 -0.1977 -0.2464
52454SOL    HW162047  10.301   9.189   3.641 -0.3838 -1.0671  1.0222
52454SOL    HW262048  10.448   9.161   3.614 -0.3889  0.7637 -1.1624
52455SOL     OW62049   9.283   4.450  10.722 -0.0617  0.4428  0.4090
52455SOL    HW162050   9.310   4.362  10.695  0.3674  0.9296 -0.8141
52455SOL    HW262051   9.324   4.462  10.807 -1.3124 -1.0766  1.2926
52456SOL     OW62052   6.825  10.642  11.545 -0.1249  0.4946 -0.0707
52456SOL    HW162053   6.881  10.712  11.511 -0.4172  0.9470  0.3585
52456SOL    HW262054   6.885  10.587  11.596  0.0973  0.4546 -0.3674
52457SOL     OW62055   7.304   8.814   8.653  0.7153  0.0496  0.1931
52457SOL    HW162056   7.268   8.799   8.565  1.4549  1.2449 -0.3341
52457SOL    HW262057   7.345   8.730   8.676  1.0459 -0.0994 -0.8617
52458SOL     OW62058   6.844   8.722  10.664  0.1324  0.3220  0.0980
52458SOL    HW162059   6.845   8.793  10.600 -0.0628  3.3155  3.1260
52458SOL    HW262060   6.754   8.720  10.697  0.8206  0.8325  2.1671
52459SOL     OW62061   3.944   9.558   4.014 -0.3576 -0.2935  0.7243
52459SOL    HW162062   3.933   9.643   3.972  0.0740  0.6890  2.5114
52459SOL    HW262063   3.876   9.556   4.081  0.0767 -1.0669  1.1511
52460SOL     OW62064  10.641   7.356   1.065 -0.6807  0.2964 -0.4908
52460SOL    HW162065  10.699   7.389   1.134  0.2119 -0.7690 -0.7171
52460SOL    HW262066  10.555   7.393   1.087 -0.5881 -0.5932  1.6170
52461SOL     OW62067  10.152   2.146   8.078 -0.3736  0.3669 -0.4497
52461SOL    HW162068  10.194   2.156   8.164 -0.6567  0.2813 -0.3025
52461SOL    HW262069  10.092   2.073   8.089 -0.3955  0.3421 -0.7287
52462SOL     OW62070   9.856   6.031  11.080 -0.3260  0.2006 -0.1624
52462SOL    HW162071   9.894   6.112  11.115 -1.6997  0.4440  0.8741
52462SOL    HW262072   9.846   5.975  11.157 -0.1741 -0.6312 -0.7416
52463SOL     OW62073   7.213   9.652   2.968  0.2925  0.4612  0.1752
52463SOL    HW162074   7.293   9.656   3.020  1.7211  0.9680 -1.9297
52463SOL    HW262075   7.214   9.732   2.916 -1.9709  0.8148  0.5652
52464SOL     OW62076   5.112   7.552  11.199  0.2789  0.3030  0.0607
52464SOL    HW162077   5.175   7.620  11.173  1.0067 -0.7084 -0.9570
52464SOL    HW262078   5.167   7.478  11.225 -0.4847 -0.3040 -0.0104
52465SOL     OW62079   3.602   0.068   4.244 -0.1573 -0.1427 -0.0263
52465SOL    HW162080   3.654   0.048   4.167 -0.3397 -1.6453  0.2054
52465SOL    HW262081   3.518   0.097   4.209  0.4939  1.4061 -0.3885
52466SOL     OW62082  11.346  10.591   3.980  0.2028  0.1909  0.2093
52466SOL    HW162083  11.385  10.505   3.963 -1.1358 -0.1857 -1.1356
52466SOL    HW262084  11.307  10.582   4.068  0.5613 -0.3904  0.3141
52467SOL     OW62085   4.661   8.597   4.943  0.7181  0.4356  0.0885
52467SOL    HW162086   4.607   8.617   5.020 -0.3093  0.1298 -0.5352
52467SOL    HW262087   4.751   8.602   4.975  0.2970 -1.0294  1.6663
52468SOL     OW62088   5.690   9.722   8.560  0.0231 -0.6373 -0.1630
52468SOL    HW162089   5.600   9.692   8.548 -0.5237  1.5318 -2.2885
52468SOL    HW262090   5.693   9.807   8.516  2.5444  0.4253  1.7712
52469SOL     OW62091   6.871  11.752   3.654  0.2005  0.3962 -0.1920
52469SOL    HW162092   6.823  11.750   3.736 -0.1902  2.9735 -0.2668
52469SOL    HW262093   6.961  11.730   3.677  0.3590  2.2748  1.2118
52470SOL     OW62094   9.009  11.018  10.329  0.2706  0.0156 -0.1558
52470SOL    HW162095   9.082  10.998  10.387 -0.6003 -1.5307  0.4656
52470SOL    HW262096   9.048  11.066  10.256  1.8355 -0.4792  0.3311
52471SOL     OW62097   5.781   8.258   2.258 -0.9683 -0.1903  0.7596
52471SOL    HW162098   5.703   8.314   2.249 -0.7444 -0.0475 -0.3278
52471SOL    HW262099   5.822   8.289   2.339 -0.1102  2.1870 -0.4764
52472SOL     OW62100   3.201   8.542   4.491 -0.0728  0.1994 -0.0115
52472SOL    HW162101   3.262   8.481   4.450 -0.4035  0.5229 -1.0158
52472SOL    HW262102   3.245   8.627   4.484 -0.6458  0.4363 -0.7537
52473SOL     OW62103   5.136   9.772   0.769  0.3765  0.4894  0.2168
52473SOL    HW162104   5.113   9.710   0.700 -0.4554  0.3343  0.6232
52473SOL    HW262105   5.139   9.857   0.724  0.6038  0.2882 -0.1556
52474SOL     OW62106   7.226   0.013   8.984  0.1144 -0.5012  0.0404
52474SOL    HW162107   7.242  -0.067   8.933  0.6444 -0.3028 -0.1139
52474SOL    HW262108   7.306   0.026   9.034  0.1520  0.1043 -0.1687
52475SOL     OW62109   7.746   8.166  10.365 -0.1469 -0.6651 -0.0774
52475SOL    HW162110   7.794   8.095  10.408  1.1262  0.4819  0.4438
52475SOL    HW262111   7.810   8.236  10.355 -1.4148  0.4849 -0.4362
52476SOL     OW62112  10.647   6.289   8.930 -0.6135 -0.3427 -0.5361
52476SOL    HW162113  10.719   6.273   8.869  1.3548 -1.1133  1.8315
52476SOL    HW262114  10.569   6.257   8.885  0.8301 -1.3606 -2.4121
52477SOL     OW62115   6.098   6.938   1.413  0.0342 -0.3155  0.1927
52477SOL    HW162116   6.044   7.014   1.390  1.1384  0.3645 -0.2570
52477SOL    HW262117   6.082   6.875   1.343  0.5010  0.2426 -0.4229
52478SOL     OW62118   1.971  10.495   7.147 -0.1867 -0.1987  0.2336
52478SOL    HW162119   2.030  10.502   7.222  0.0223 -1.8133  0.2387
52478SOL    HW262120   2.008  10.425   7.093  0.3821  1.7212 -2.0647
52479SOL     OW62121  10.317   6.269   2.274 -0.1769  0.5666  0.4893
52479SOL    HW162122  10.278   6.282   2.360 -1.2438 -1.0924  0.2864
52479SOL    HW262123  10.409   6.294   2.285 -0.7760  2.4037  1.5345
52480SOL     OW62124   4.876   0.570   1.520 -0.6611 -0.2548 -0.5284
52480SOL    HW162125   4.868   0.503   1.587 -0.5287  0.5318  0.3013
52480SOL    HW262126   4.816   0.640   1.548  1.1644  1.1400  0.1124
52481SOL     OW62127   0.372   2.127   5.349  0.0680  0.1643  0.2036
52481SOL    HW162128   0.426   2.079   5.286  0.8156 -1.2828  1.8824
52481SOL    HW262129   0.284   2.091   5.338  0.5355 -1.2907  1.1409
52482SOL     OW62130   8.988   1.425   4.389 -0.3854 -0.5102 -0.1422
52482SOL    HW162131   8.957   1.337   4.412  0.9361 -1.0930 -0.4819
52482SOL    HW262132   9.069   1.436   4.440 -0.3099  0.3388 -0.4240
52483SOL     OW62133   1.788   8.065   9.377 -0.2739  0.1042  0.3666
52483SOL    HW162134   1.752   7.982   9.410  0.3398 -0.2077  0.2533
52483SOL    HW262135   1.710   8.118   9.358 -0.7050 -0.9046 -0.7622
52484SOL     OW62136   8.225  10.059   8.032  0.3543 -0.0649  0.3977
52484SOL    HW162137   8.276   9.998   7.979  0.9553  0.8737 -0.1244
52484SOL    HW262138   8.241  10.145   7.993  0.4989  0.6080  1.8482
52485SOL     OW62139   0.498  11.219   1.680 -0.2817 -0.2269  0.0574
52485SOL    HW162140   0.487  11.301   1.728  0.9867  0.4136 -0.6927
52485SOL    HW262141   0.552  11.243   1.605 -3.1238 -0.9267 -2.4023
52486SOL     OW62142   3.100   2.875   8.999  0.2043 -0.3153 -0.5299
52486SOL    HW162143   3.137   2.851   8.914 -0.2465 -0.9814 -0.5432
52486SOL    HW262144   3.115   2.798   9.054  0.3480  0.0514 -0.0481
52487SOL     OW62145   6.805   7.082   8.027  0.4237 -0.0028 -0.1849
52487SOL    HW162146   6.740   7.119   7.968  0.2641 -0.0005 -0.0092
52487SOL    HW262147   6.849   7.015   7.976  1.6854  1.3680 -0.9796
52488SOL     OW62148   5.810   1.285   9.443  0.5240 -0.2078 -0.3578
52488SOL    HW162149   5.732   1.275   9.498 -0.4061 -0.6707 -1.7235
52488SOL    HW262150   5.829   1.197   9.412  3.5741 -0.7327  2.4558
52489SOL     OW62151   6.169   3.938   7.850 -0.3289  0.1061  0.1902
52489SOL    HW162152   6.185   3.853   7.893  0.5874  0.7332  1.1390
52489SOL    HW262153   6.160   4.000   7.922  1.9431  1.3163 -0.4541
52490SOL     OW62154  11.702   3.801   0.977  0.2551  0.2176  0.4258
52490SOL    HW162155  11.624   3.790   0.922  0.5265  1.6482 -0.2924
52490SOL    HW262156  11.766   3.844   0.920  0.0861  3.0520  2.1754
52491SOL     OW62157   3.328   0.889   3.037  0.6175  0.2796 -0.7252
52491SOL    HW162158   3.315   0.983   3.029  0.4315  0.1629 -2.1471
52491SOL    HW262159   3.296   0.854   2.954  0.2325 -1.0845 -0.0202
52492SOL     OW62160  10.217   7.332   4.909 -0.4642  0.1366  0.1741
52492SOL    HW162161  10.311   7.327   4.926 -0.2957 -1.3410 -0.9909
52492SOL    HW262162  10.210   7.378   4.825 -0.6802 -0.7127 -0.2923
52493SOL     OW62163   6.600   3.169   8.172  0.3383 -0.1547 -0.1436
52493SOL    HW162164   6.599   3.217   8.255 -1.1599 -2.7739  1.5065
52493SOL    HW262165   6.565   3.231   8.108  1.1448  1.8159  1.2389
52494SOL     OW62166   5.906  11.281   4.073 -0.0909 -0.2954 -0.0366
52494SOL    HW162167   5.871  11.368   4.053  1.1160 -0.3039 -2.6429
52494SOL    HW262168   5.843  11.221   4.034  0.6105 -0.4494 -0.9678
52495SOL     OW62169   1.013   7.981   8.312  0.1010  0.1331  0.8631
52495SOL    HW162170   1.003   7.915   8.380 -1.3140  0.5527  1.0979
52495SOL    HW262171   0.956   8.053   8.340  0.4429  0.8155 -0.1420
52496SOL     OW62172   3.402   5.410   5.565 -0.6944 -0.6901  0.0660
52496SOL    HW162173   3.389   5.316   5.579 -1.5007 -0.7038 -0.6674
52496SOL    HW262174   3.451   5.440   5.642  2.7696 -2.3434 -1.3170
52497SOL     OW62175   0.968   6.193   2.889 -0.1771  0.1589 -0.2110
52497SOL    HW162176   0.983   6.118   2.832  0.2480  0.0767  0.0023
52497SOL    HW262177   0.878   6.219   2.872 -0.3028 -0.3558 -0.3403
52498SOL     OW62178   8.956  11.422   5.897  0.0181 -0.0128  0.6649
52498SOL    HW162179   8.984  11.465   5.978 -0.5700  0.3748  0.6667
52498SOL    HW262180   9.010  11.343   5.892  0.7789  0.4814  0.9039
52499SOL     OW62181  10.010   2.474   0.060  0.2434  0.2916  0.1196
52499SOL    HW162182   9.996   2.380   0.067  1.2955  0.0988 -0.1788
52499SOL    HW262183  10.075   2.483  -0.009  0.2256  1.2370  0.2145
52500SOL     OW62184   2.221   5.805   3.294 -0.1424  0.0408 -0.5512
52500SOL    HW162185   2.294   5.742   3.296  0.6209  0.8309 -1.9959
52500SOL    HW262186   2.154   5.765   3.349  1.8786 -0.0765  2.0255
52501SOL     OW62187   1.062   6.007   4.615 -0.2173 -0.2407  0.2673
52501SOL    HW162188   0.993   5.996   4.680 -1.0627  0.9474 -0.4006
52501SOL    HW262189   1.143   5.996   4.664 -0.8454  0.0699  1.4116
52502SOL     OW62190   5.097   5.024   5.802  0.2871 -0.1580  0.3896
52502SOL    HW162191   5.009   4.997   5.776  1.2011 -1.8347 -1.2393
52502SOL    HW262192   5.106   5.112   5.767 -0.2774 -0.5080 -0.6953
52503SOL     OW62193  11.863   6.882   3.234  0.3530  0.1974  0.3954
52503SOL    HW162194  11.955   6.894   3.210  0.1717  0.2300 -0.3041
52503SOL    HW262195  11.833   6.811   3.179 -0.3350  0.9145 -0.1744
52504SOL     OW62196   7.508   2.073   4.982  1.0238 -0.1119 -0.1079
52504SOL    HW162197   7.502   1.989   5.027  0.3642 -0.3545 -0.6490
52504SOL    HW262198   7.600   2.098   4.991  1.1393 -0.6938  0.3985
52505SOL     OW62199   7.682   2.299   7.726  0.2141  0.5921  0.0628
52505SOL    HW162200   7.671   2.356   7.802  1.6258 -0.7910  1.3910
52505SOL    HW262201   7.729   2.353   7.662 -2.1978  2.2157 -0.4602
52506SOL     OW62202   1.016   4.242   6.824  0.4121 -0.8681 -0.0189
52506SOL    HW162203   1.051   4.158   6.795 -0.7041 -1.3584  0.0250
52506SOL    HW262204   0.970   4.277   6.747 -2.2271 -1.9946  0.9359
52507SOL     OW62205  10.720   5.300   0.315 -0.3807 -0.0223 -0.0723
52507SOL    HW162206  10.781   5.261   0.252  0.5256  0.3432  0.5518
52507SOL    HW262207  10.640   5.249   0.306  0.5035 -1.5096  0.1420
52508SOL     OW62208   7.290   4.006   2.447  0.1077 -0.4552 -0.2026
52508SOL    HW162209   7.273   4.039   2.359 -0.2317 -0.4765 -0.1468
52508SOL    HW262210   7.308   4.084   2.500 -1.6653 -0.2361  0.1514
52509SOL     OW62211   2.153   1.052   9.853 -0.0785 -0.0541  0.7069
52509SOL    HW162212   2.100   0.983   9.814 -1.2487  0.9769  0.4347
52509SOL    HW262213   2.231   1.006   9.886  0.1390 -1.2148 -1.2577
52510SOL     OW62214  11.570   7.445   7.970  0.5155 -0.5541  0.1511
52510SOL    HW162215  11.596   7.362   7.928 -2.0994 -1.0130 -0.7030
52510SOL    HW262216  11.535   7.498   7.899 -0.7712  0.0429  1.1972
52511SOL     OW62217   3.045   9.595   8.966 -0.4119  0.5624  0.4054
52511SOL    HW162218   3.134   9.610   8.933 -0.3636  1.0720  0.7471
52511SOL    HW262219   2.994   9.666   8.926 -0.6373  0.3422  0.3077
52512SOL     OW62220   7.940   2.582   0.340 -0.3726 -0.4052 -0.0775
52512SOL    HW162221   8.023   2.585   0.292 -0.4686 -1.4546 -0.3208
52512SOL    HW262222   7.888   2.516   0.294 -1.1148 -0.1929  0.4460
52513SOL     OW62223   6.204   1.015  11.214  0.6006 -0.4808 -0.0473
52513SOL    HW162224   6.178   0.929  11.248  1.7525 -0.6199  0.5326
52513SOL    HW262225   6.254   0.995  11.134  0.4459 -0.3247 -0.1826
52514SOL     OW62226  11.371   8.766   2.684  0.0828 -0.3457  0.3505
52514SOL    HW162227  11.398   8.758   2.775 -2.1535  2.9657  1.4855
52514SOL    HW262228  11.368   8.861   2.668  0.7345 -0.7665 -3.3376
52515SOL     OW62229   9.625   1.021  11.530  0.1443 -0.4881  0.0386
52515SOL    HW162230   9.531   1.005  11.536  0.2668 -1.6507 -0.7140
52515SOL    HW262231   9.633   1.098  11.475 -0.3908  0.2157  0.9220
52516SOL     OW62232   8.803   7.946   6.811 -0.5561  0.2893  0.2238
52516SOL    HW162233   8.863   7.914   6.744  1.9207  0.3016  2.2805
52516SOL    HW262234   8.741   7.874   6.825  1.1981 -1.2261  0.5043
52517SOL     OW62235  11.725  11.187   2.087 -0.3122 -0.0472 -0.0100
52517SOL    HW162236  11.809  11.225   2.111 -0.9846  1.3154  0.3516
52517SOL    HW262237  11.744  11.097   2.062  1.1381  0.0143  0.7828
52518SOL     OW62238   4.267   0.341   9.349 -0.4990 -0.2514  0.0716
52518SOL    HW162239   4.202   0.360   9.416 -0.9620 -3.0012  0.4873
52518SOL    HW262240   4.238   0.391   9.273 -3.0645 -1.2967  0.2723
52519SOL     OW62241   1.732   1.898   0.973  0.1306  0.2050 -0.3895
52519SOL    HW162242   1.824   1.917   0.993 -0.5923  1.3640  2.1055
52519SOL    HW262243   1.710   1.823   1.028 -0.4203 -0.1680 -1.0915
52520SOL     OW62244   7.422  10.127  11.128 -0.2141 -0.2308  0.0918
52520SOL    HW162245   7.489  10.067  11.095  0.6834  0.5781  0.4106
52520SOL    HW262246   7.371  10.074  11.189 -0.2399 -1.0154 -0.5964
52521SOL     OW62247   3.078   3.483   9.254 -0.0150 -0.2460  0.5307
52521SOL    HW162248   3.037   3.401   9.225 -0.2913  0.2918 -0.6646
52521SOL    HW262249   3.031   3.505   9.334 -1.7564  0.0643 -0.5087
52522SOL     OW62250   7.734   9.874  10.504 -0.3629  0.3318 -0.1297
52522SOL    HW162251   7.702   9.902  10.418 -1.6946  1.9988  0.8396
52522SOL    HW262252   7.814   9.925  10.517 -0.4276  0.4443 -0.1707
52523SOL     OW62253  11.813   5.162   5.524  0.2825 -0.2152  0.3475
52523SOL    HW162254  11.818   5.220   5.600 -2.8594  2.2498 -1.1164
52523SOL    HW262255  11.740   5.104   5.542  0.3034 -0.4470 -0.2885
52524SOL     OW62256   2.552   2.500   2.199  0.2474 -0.0127 -0.6945
52524SOL    HW162257   2.612   2.452   2.256  0.4157  1.8361  0.7841
52524SOL    HW262258   2.493   2.433   2.165  2.3165 -1.6918 -1.1639
52525SOL     OW62259   8.764   3.769  10.465 -0.3150  0.7893  0.4831
52525SOL    HW162260   8.835   3.773  10.529 -1.6456  0.6751  2.0273
52525SOL    HW262261   8.685   3.785  10.516 -1.5180 -0.1997 -0.9919
52526SOL     OW62262   6.215   5.723   0.649 -0.0744 -0.4322  0.5626
52526SOL    HW162263   6.166   5.689   0.724  0.2961 -3.1739 -0.3632
52526SOL    HW262264   6.306   5.724   0.678  0.0894 -1.6496  0.1361
52527SOL     OW62265   2.445   7.861   8.305 -0.2312  0.4035 -1.2601
52527SOL    HW162266   2.481   7.870   8.394 -0.7368  2.7803 -1.2094
52527SOL    HW262267   2.399   7.777   8.306  0.1885  0.1437  0.5781
52528SOL     OW62268  10.720   0.997   0.459  0.4014  0.3861  0.3416
52528SOL    HW162269  10.784   0.934   0.426 -0.0467  0.3809 -0.5527
52528SOL    HW262270  10.641   0.945   0.476 -0.0197  0.7106 -0.5463
52529SOL     OW62271   9.144   1.341   4.846  0.2234 -0.0297 -0.4267
52529SOL    HW162272   9.145   1.302   4.934  0.7592  3.1335  1.1238
52529SOL    HW262273   9.218   1.301   4.801  1.0223 -0.4820  1.2020
52530SOL     OW62274   1.095  10.152  10.908 -0.6646  0.1260  0.3812
52530SOL    HW162275   1.127  10.062  10.894 -0.0535  0.5761 -1.3175
52530SOL    HW262276   1.151  10.206  10.852 -0.0970  1.7733  2.3913
52531SOL     OW62277  10.147   6.252   8.490  0.1210  0.0045 -0.2106
52531SOL    HW162278  10.113   6.216   8.408  0.1424 -2.8854  0.9415
52531SOL    HW262279  10.201   6.326   8.463 -0.3373 -0.4924 -2.7458
52532SOL     OW62280   2.578   4.833   7.075 -0.0453  0.1582  0.3397
52532SOL    HW162281   2.602   4.879   6.995  0.4586 -0.7941 -0.0681
52532SOL    HW262282   2.545   4.749   7.046 -0.8117  0.1858  1.0888
52533SOL     OW62283  11.692   7.545   2.004  0.4391 -0.9753  0.6393
52533SOL    HW162284  11.747   7.607   2.052  0.0715  0.1210 -0.3363
52533SOL    HW262285  11.607   7.588   1.998  0.9348 -0.2477 -2.5497
52534SOL     OW62286   5.022   5.366   6.464 -0.3539 -0.2289 -0.2184
52534SOL    HW162287   4.945   5.345   6.517  0.1764  0.3189  0.7863
52534SOL    HW262288   5.090   5.386   6.527  0.6859 -0.8851 -1.0856
52535SOL     OW62289  10.858   1.939  10.053 -0.1352  0.4893 -0.1089
52535SOL    HW162290  10.914   1.890  10.113 -0.0767 -0.5082 -0.9486
52535SOL    HW262291  10.897   2.026  10.050  0.4427  0.2626  0.5253
52536SOL     OW62292   4.487   2.431   4.805 -0.3381  0.4019  0.1606
52536SOL    HW162293   4.530   2.418   4.721 -1.9562  1.4804 -0.8829
52536SOL    HW262294   4.396   2.451   4.783 -0.8513  0.4996  2.1797
52537SOL     OW62295   6.177   0.639   8.012  0.2479 -0.4526  0.1126
52537SOL    HW162296   6.210   0.629   8.101 -2.0352  0.2653  1.1063
52537SOL    HW262297   6.142   0.552   7.989 -0.3841 -0.2900  0.4520
52538SOL     OW62298  10.565   6.506   9.492 -0.2235  0.1004 -0.4186
52538SOL    HW162299  10.489   6.483   9.546 -0.4122  1.6089 -0.0008
52538SOL    HW262300  10.596   6.422   9.458 -1.6440 -0.6240 -0.0244
52539SOL     OW62301   6.259  11.867   1.241 -1.0996  0.3665 -0.1924
52539SOL    HW162302   6.236  11.791   1.188 -2.4734  1.1404 -0.7509
52539SOL    HW262303   6.305  11.925   1.181 -1.0344  0.4509 -0.0615
52540SOL     OW62304   0.572  10.752   8.617  0.3840 -0.4932  0.3208
52540SOL    HW162305   0.559  10.837   8.575 -2.0059 -1.0694 -0.2626
52540SOL    HW262306   0.522  10.757   8.698 -0.0587 -1.4191  0.1291
52541SOL     OW62307   3.817  10.942   4.379  0.3276  0.4639  0.2061
52541SOL    HW162308   3.792  10.895   4.299 -1.4350 -1.5950  1.8601
52541SOL    HW262309   3.768  11.025   4.373  0.7073  0.6255 -1.1098
52542SOL     OW62310   1.052  11.792   0.304  0.5162 -0.3987 -0.0010
52542SOL    HW162311   1.045  11.845   0.225  3.5659  1.0027  0.5380
52542SOL    HW262312   0.986  11.828   0.363  0.5758  0.8747 -0.6775
52543SOL     OW62313   3.564   8.103   2.763  0.3643 -0.0621  0.2556
52543SOL    HW162314   3.567   8.077   2.670 -0.4576 -0.4464  0.3197
52543SOL    HW262315   3.651   8.137   2.782  0.1445  1.3011 -1.0265
52544SOL     OW62316   7.061  10.316   0.492 -0.2343 -0.7965 -0.3533
52544SOL    HW162317   7.001  10.390   0.479 -1.7997 -1.6597  1.4643
52544SOL    HW262318   7.033  10.250   0.429 -0.5046 -0.7829 -0.2474
52545SOL     OW62319   9.080   6.786   2.837  0.3276 -0.5532  0.0021
52545SOL    HW162320   9.057   6.852   2.772  0.9610  1.8767  2.1131
52545SOL    HW262321   9.104   6.709   2.785 -2.2201  0.1902 -2.5074
52546SOL     OW62322   9.951   9.138   4.392 -0.6270 -0.1269 -0.3573
52546SOL    HW162323   9.922   9.198   4.324  0.1976  2.1251  1.1544
52546SOL    HW262324   9.874   9.085   4.412 -1.4559  0.5447 -1.6319
52547SOL     OW62325  10.705  10.551   2.764  0.2690  0.1015  0.4770
52547SOL    HW162326  10.732  10.623   2.821 -1.9923 -1.0860  3.2097
52547SOL    HW262327  10.662  10.488   2.821 -1.1687 -1.7445 -2.3827
52548SOL     OW62328   2.030   8.833   2.629 -0.1874 -0.7340 -0.5313
52548SOL    HW162329   2.120   8.864   2.641  0.8013 -2.9972 -1.5379
52548SOL    HW262330   2.011   8.782   2.707 -1.8497  2.2302  1.1714
52549SOL     OW62331   8.014  10.034   9.570 -0.2103  0.0242  0.4227
52549SOL    HW162332   7.937   9.980   9.584 -1.2750  1.8728  2.2766
52549SOL    HW262333   7.989  10.121   9.603  1.7484  1.4038 -1.4399
52550SOL     OW62334   8.581   7.623   8.896  0.1323 -0.3453  0.0857
52550SOL    HW162335   8.648   7.672   8.943 -0.8086 -0.7035  1.9015
52550SOL    HW262336   8.629   7.575   8.829  1.3734  1.1442 -0.1464
52551SOL     OW62337   2.194  11.930   7.704 -0.1076  0.0279 -0.4627
52551SOL    HW162338   2.241  11.925   7.620  0.0334  2.8723 -0.6603
52551SOL    HW262339   2.111  11.886   7.687 -0.4435  1.2652 -2.4529
52552SOL     OW62340   4.052   6.233  11.699 -0.2416  0.1970 -0.2534
52552SOL    HW162341   3.994   6.307  11.713 -1.1870 -0.4022 -0.8591
52552SOL    HW262342   3.997   6.167  11.657  0.5963 -0.8148  0.1843
52553SOL     OW62343   2.938   8.746   0.544  0.3020 -0.0355 -0.0283
52553SOL    HW162344   2.925   8.660   0.503  2.2346  0.5805 -2.1517
52553SOL    HW262345   3.008   8.731   0.608 -1.7482 -0.6944  2.1965
52554SOL     OW62346   4.531   9.521   8.774 -0.4010  0.0253  0.2598
52554SOL    HW162347   4.439   9.494   8.773  0.1892 -3.0293  4.1892
52554SOL    HW262348   4.536   9.586   8.844  0.3095  0.9224 -0.6033
52555SOL     OW62349   7.260   5.695   1.401 -0.6683  0.4416  0.6511
52555SOL    HW162350   7.333   5.723   1.457 -1.6632  3.5830  0.5862
52555SOL    HW262351   7.295   5.702   1.312 -0.4008 -0.2429  0.6983
52556SOL     OW62352   2.607   8.035  10.294  0.0941  0.2932 -0.0205
52556SOL    HW162353   2.539   8.072  10.238 -0.7915  1.0344  1.4952
52556SOL    HW262354   2.679   8.016  10.234 -1.3653 -0.3937 -1.6510
52557SOL     OW62355   2.715   3.028   0.948 -0.0272 -0.2063 -0.4105
52557SOL    HW162356   2.659   2.952   0.963 -0.3772 -0.2360 -1.8075
52557SOL    HW262357   2.796   2.992   0.912 -0.4403  0.1230 -1.7004
52558SOL     OW62358   3.448   7.099   1.903  0.1719 -0.4219  0.2499
52558SOL    HW162359   3.525   7.156   1.893 -0.7798  1.6376  3.1631
52558SOL    HW262360   3.472   7.038   1.972 -1.4365  1.8387  3.0348
52559SOL     OW62361   6.713   9.984   9.963  0.0960 -0.4167 -0.3287
52559SOL    HW162362   6.770   9.912   9.989  1.4676  1.3015  1.8813
52559SOL    HW262363   6.757  10.025   9.889 -0.4240 -1.5013 -1.2555
52560SOL     OW62364   2.762   5.238  10.299  0.0037  0.3396 -0.1688
52560SOL    HW162365   2.809   5.165  10.338  0.8406  0.2549 -1.2705
52560SOL    HW262366   2.830   5.288  10.254 -0.5864  1.6748  0.3651
52561SOL     OW62367   6.657   4.100  11.849  0.0124 -0.0101 -0.1392
52561SOL    HW162368   6.687   4.190  11.842  1.5588 -0.4009  0.8759
52561SOL    HW262369   6.649   4.084  11.943  0.6407 -1.1829 -0.2665
52562SOL     OW62370   0.089  10.623   1.840  0.4125  0.4792 -0.0734
52562SOL    HW162371   0.059  10.713   1.851 -1.1439  0.2313 -1.7878
52562SOL    HW262372   0.183  10.630   1.826  0.2000  1.9287 -0.9513
52563SOL     OW62373   4.708   9.662   0.181 -0.8218 -0.2006 -0.1307
52563SOL    HW162374   4.723   9.661   0.086 -0.0828  1.7792 -0.0957
52563SOL    HW262375   4.689   9.571   0.203 -0.5672 -0.7947 -2.1049
52564SOL     OW62376   3.426   6.225   4.206  0.3325  0.8254  0.1512
52564SOL    HW162377   3.352   6.256   4.153 -2.1046 -1.3055  2.0413
52564SOL    HW262378   3.434   6.289   4.277 -1.1037  0.0740  1.0397
52565SOL     OW62379  10.664   6.081   6.140 -0.0284 -0.1471 -0.4519
52565SOL    HW162380  10.718   6.028   6.199 -1.0190 -2.5551 -1.5502
52565SOL    HW262381  10.727   6.125   6.083  0.8838  1.1964  1.5000
52566SOL     OW62382   0.236   6.459  11.597  0.0368 -0.3789  0.0872
52566SOL    HW162383   0.192   6.378  11.571  1.6276 -0.7974 -1.5010
52566SOL    HW262384   0.242   6.510  11.516  0.1132  0.8095  0.8257
52567SOL     OW62385   1.797   7.854   8.078 -0.5388 -0.1803 -0.2354
52567SOL    HW162386   1.852   7.922   8.039 -1.8498  1.0737  0.0327
52567SOL    HW262387   1.707   7.884   8.064 -1.1111 -0.7202  1.8562
52568SOL     OW62388   7.659   3.577   4.708  0.3051  0.7028  0.4493
52568SOL    HW162389   7.725   3.609   4.769  2.3868 -0.5339 -1.0238
52568SOL    HW262390   7.676   3.483   4.701 -1.0971  0.4990 -0.5812
52569SOL     OW62391  10.433   8.978   0.872 -0.3944 -0.3983  0.9863
52569SOL    HW162392  10.426   8.919   0.797  0.2054 -2.4888  2.4857
52569SOL    HW262393  10.467   8.923   0.942 -2.1732  1.1290  3.1807
52570SOL     OW62394   2.731   2.515   4.181  0.1624 -0.2413  0.0689
52570SOL    HW162395   2.778   2.484   4.104  0.7593 -1.0274  0.7370
52570SOL    HW262396   2.642   2.531   4.149  0.7897  1.0545 -1.1623
52571SOL     OW62397  11.516   6.808  10.846 -0.4800  0.3617 -0.3331
52571SOL    HW162398  11.443   6.760  10.806 -1.5736  2.1358 -0.5896
52571SOL    HW262399  11.585   6.805  10.781 -1.7148  1.9165 -1.8098
52572SOL     OW62400  11.319  11.096   8.273  0.3502  0.2302 -0.4487
52572SOL    HW162401  11.351  11.185   8.258  0.8801 -0.1621 -1.7938
52572SOL    HW262402  11.282  11.099   8.361  2.3874  1.2051  0.4415
52573SOL     OW62403   4.044   8.761   4.458 -0.3136  0.3049  0.0037
52573SOL    HW162404   4.082   8.701   4.522 -0.3796  1.4833  1.1878
52573SOL    HW262405   3.989   8.705   4.403 -1.7457 -0.5074  2.1224
52574SOL     OW62406   3.509   0.039   4.504 -0.1936 -0.1106  0.3724
52574SOL    HW162407   3.422   0.077   4.508  0.1765  0.7956  0.0037
52574SOL    HW262408   3.529   0.033   4.410 -0.2908 -1.3351  0.4168
52575SOL     OW62409   7.585   4.566   6.255 -0.5141  0.6268  0.4885
52575SOL    HW162410   7.664   4.578   6.203 -0.6520  0.5979  0.2686
52575SOL    HW262411   7.515   4.602   6.200 -0.4578  2.0724  1.3166
52576SOL     OW62412  10.072   7.356   6.727 -0.2432  0.0562 -0.1178
52576SOL    HW162413  10.097   7.389   6.641 -0.9554 -0.6477 -0.6093
52576SOL    HW262414   9.976   7.360   6.728 -0.2785 -0.6210  0.3564
52577SOL     OW62415  10.549   3.561  10.315  0.4712  0.3704 -0.2925
52577SOL    HW162416  10.480   3.581  10.377  1.4767  0.0874  0.9549
52577SOL    HW262417  10.619   3.523  10.367  1.1824 -0.3009 -1.6654
52578SOL     OW62418  11.655  10.180   7.066  0.3218  0.0037  0.6791
52578SOL    HW162419  11.710  10.240   7.117  0.3073 -0.8122  1.6900
52578SOL    HW262420  11.568  10.188   7.105  0.2440 -0.4058  0.5912
52579SOL     OW62421   3.517  10.910   1.696 -0.2906  0.4405  0.1553
52579SOL    HW162422   3.449  10.945   1.639 -0.8319  0.5537  0.8452
52579SOL    HW262423   3.499  10.950   1.782  0.6624  0.4917  0.3466
52580SOL     OW62424   2.849   2.310   2.242  0.4205 -0.1583  0.5299
52580SOL    HW162425   2.834   2.222   2.207 -0.1675  0.4495 -0.7822
52580SOL    HW262426   2.788   2.317   2.315  0.3685 -0.7896  0.5575
52581SOL     OW62427   7.656   8.311  11.749  0.0610  0.2507 -0.3035
52581SOL    HW162428   7.613   8.226  11.738  0.0854  0.2770 -0.6189
52581SOL    HW262429   7.704   8.303  11.831 -0.2159  0.0787 -0.1556
52582SOL     OW62430   1.453   0.781   5.364  0.4542  0.2683  0.5473
52582SOL    HW162431   1.481   0.705   5.415  1.1445  1.1417  1.5175
52582SOL    HW262432   1.519   0.848   5.384 -0.7680  1.4794  0.6290
52583SOL     OW62433   7.465   1.901  10.907  0.8132 -0.0394 -0.8119
52583SOL    HW162434   7.380   1.927  10.942  1.0777 -2.7918  2.3808
52583SOL    HW262435   7.453   1.901  10.812 -1.8126  2.3456 -0.6318
52584SOL     OW62436  10.602  11.909   4.900  0.2820  0.3692 -0.5298
52584SOL    HW162437  10.690  11.903   4.937  0.8787  0.8522 -1.8062
52584SOL    HW262438  10.616  11.925   4.807 -1.1695  0.9784 -0.6744
52585SOL     OW62439   3.428   1.600  11.962 -0.3349  0.0597 -0.5984
52585SOL    HW162440   3.489   1.672  11.979 -0.6967  0.4963 -1.0971
52585SOL    HW262441   3.459   1.528  12.017  0.8849  0.1251 -1.1844
52586SOL     OW62442   5.190   2.299   5.902  0.0408  0.8794  0.4390
52586SOL    HW162443   5.230   2.263   5.981  1.8844  0.0877 -0.7890
52586SOL    HW262444   5.119   2.238   5.881 -0.1195  0.8051  1.1803
52587SOL     OW62445  10.821  10.344   0.229  0.0990  0.1440 -0.2903
52587SOL    HW162446  10.874  10.421   0.249 -1.8580  1.3544  0.5121
52587SOL    HW262447  10.884  10.279   0.198  2.1414  1.2603  1.2500
52588SOL     OW62448   4.030   8.814   1.798  0.2296  0.5382  0.2815
52588SOL    HW162449   4.124   8.794   1.794 -0.0323 -0.7601  0.2144
52588SOL    HW262450   4.025   8.892   1.853  1.3475  0.6379  0.2809
52589SOL     OW62451   0.430   5.485   9.636  0.3810  0.0784  0.3606
52589SOL    HW162452   0.431   5.557   9.700  1.0806  1.2804 -0.9453
52589SOL    HW262453   0.408   5.528   9.553 -1.1868 -1.5488 -0.1198
52590SOL     OW62454   9.784   5.988   5.277 -0.0372 -0.0667 -0.4411
52590SOL    HW162455   9.778   6.017   5.368 -0.2292 -0.0168 -0.4680
52590SOL    HW262456   9.857   5.927   5.276 -2.3272 -3.1200  0.5759
52591SOL     OW62457   2.217  11.336   3.884 -0.0614  0.4601 -0.5179
52591SOL    HW162458   2.286  11.302   3.940  1.8234  1.0672 -2.3307
52591SOL    HW262459   2.200  11.265   3.821  1.8263  1.6167 -2.5066
52592SOL     OW62460  11.865   0.375  11.363 -0.3808 -0.4831  0.3006
52592SOL    HW162461  11.806   0.373  11.287  0.3171  0.6838 -0.2994
52592SOL    HW262462  11.829   0.442  11.420  0.3562  0.2566 -0.0807
52593SOL     OW62463   4.585   4.147   1.700  0.4181 -0.1873 -0.4006
52593SOL    HW162464   4.529   4.168   1.625 -0.1892 -0.8557 -0.1446
52593SOL    HW262465   4.659   4.100   1.663 -1.1252 -2.8347 -0.3502
52594SOL     OW62466   7.769   1.298   1.216 -0.2368  0.1304 -0.0143
52594SOL    HW162467   7.821   1.333   1.288 -0.9993 -0.7173  0.9738
52594SOL    HW262468   7.806   1.340   1.138  1.7794 -0.2534  0.6566
52595SOL     OW62469   8.904   0.676   3.042  0.4601 -0.3996 -0.0670
52595SOL    HW162470   8.815   0.695   3.072  0.1626  0.4577 -1.4052
52595SOL    HW262471   8.931   0.600   3.093 -1.2307 -0.9710  0.0375
52596SOL     OW62472   7.601   8.081   6.424 -0.2155 -0.0095  0.0312
52596SOL    HW162473   7.563   8.102   6.509  0.8332 -0.8393  0.7333
52596SOL    HW262474   7.686   8.040   6.445  0.3967  0.4500 -1.4273
52597SOL     OW62475   6.555   4.609  11.316  0.0685  0.1550  0.0325
52597SOL    HW162476   6.589   4.617  11.227 -0.3029  1.1065 -0.0348
52597SOL    HW262477   6.463   4.635  11.309  0.4632  1.9871  0.9903
52598SOL     OW62478   3.483   5.753   8.709  0.2737  0.0396 -0.2646
52598SOL    HW162479   3.495   5.709   8.793  1.4613  0.1967 -0.3346
52598SOL    HW262480   3.568   5.744   8.665  0.3654  1.8351 -0.5415
52599SOL     OW62481   0.780   7.238   8.180  0.5864  0.1397  0.8547
52599SOL    HW162482   0.764   7.332   8.177  0.8791  0.1930  0.9363
52599SOL    HW262483   0.874   7.230   8.200  0.7552 -0.1598 -0.0151
52600SOL     OW62484   6.163   6.892  11.381 -0.2833 -0.1502 -0.6610
52600SOL    HW162485   6.152   6.948  11.304 -0.7365 -1.5441 -1.6718
52600SOL    HW262486   6.196   6.809  11.345  0.9466 -0.3579  0.8439
52601SOL     OW62487  10.107  11.576   9.710 -0.7580 -0.0988 -0.4054
52601SOL    HW162488  10.154  11.535   9.637 -0.0888  1.9422 -1.2179
52601SOL    HW262489  10.015  11.574   9.684 -0.6360 -0.2983 -0.8268
52602SOL     OW62490  11.787   1.347   2.709  0.0731  0.1827  0.2278
52602SOL    HW162491  11.700   1.312   2.728  0.1097  0.7825  1.6072
52602SOL    HW262492  11.777   1.442   2.717  0.6664  0.3126 -0.4773
52603SOL     OW62493   5.602   1.273   0.790 -0.8936 -0.9210  0.0183
52603SOL    HW162494   5.516   1.295   0.826 -0.8023  1.9891 -1.2275
52603SOL    HW262495   5.612   1.333   0.715  1.7771 -1.9145 -0.5228
52604SOL     OW62496   1.443   5.605  10.504  0.0797  0.2928 -0.3540
52604SOL    HW162497   1.411   5.682  10.457  2.4270  0.2103 -2.3610
52604SOL    HW262498   1.458   5.540  10.435  2.3395 -0.3725  0.6648
52605SOL     OW62499   5.488  10.719   5.173 -0.5115 -0.3603  0.0648
52605SOL    HW162500   5.561  10.781   5.166 -0.3559 -0.2303  2.2925
52605SOL    HW262501   5.482  10.679   5.086  1.5221  0.4028 -0.4704
52606SOL     OW62502   3.778   5.049   5.483 -0.2630  1.0676 -0.4434
52606SOL    HW162503   3.792   5.001   5.401 -1.2020 -1.4485  0.7797
52606SOL    HW262504   3.866   5.060   5.519 -0.0832 -0.5402 -0.3440
52607SOL     OW62505   8.793   0.067   7.973 -0.1043 -0.1591  0.5015
52607SOL    HW162506   8.863   0.001   7.969  2.9541  2.8309 -0.1560
52607SOL    HW262507   8.761   0.075   7.883 -0.5369 -0.7657  0.5974
52608SOL     OW62508  11.218   9.495   4.631 -0.1896 -0.1094 -0.2672
52608SOL    HW162509  11.311   9.512   4.647 -0.4667  1.2340  0.0366
52608SOL    HW262510  11.186   9.461   4.714  0.0427 -0.6759 -0.4033
52609SOL     OW62511   7.901   5.484   8.915  0.1705  0.2051 -0.1684
52609SOL    HW162512   7.846   5.560   8.934  0.1559  0.2460 -0.3746
52609SOL    HW262513   7.976   5.520   8.867  0.5702  0.2062  0.4384
52610SOL     OW62514  11.366  10.917   0.919 -0.3494 -0.2674 -0.2811
52610SOL    HW162515  11.288  10.956   0.878 -0.2164  0.2864 -0.0211
52610SOL    HW262516  11.334  10.837   0.961 -0.8118  0.0430 -0.0371
52611SOL     OW62517   5.178  10.006   5.122  0.3638 -0.1908 -0.4013
52611SOL    HW162518   5.087   9.982   5.102  0.0108 -0.2567  1.1587
52611SOL    HW262519   5.221   9.923   5.143 -0.5096  0.1745  3.6422
52612SOL     OW62520   8.502   4.987   5.105  0.2880  0.6431 -0.6016
52612SOL    HW162521   8.427   4.956   5.054  0.6387  0.1362 -0.8148
52612SOL    HW262522   8.530   5.067   5.059 -1.1340  1.7922  0.4354
52613SOL     OW62523   4.999   7.124   1.913  0.5049 -0.3610 -0.8940
52613SOL    HW162524   4.916   7.134   1.959  0.3487 -0.1837 -1.2073
52613SOL    HW262525   5.034   7.213   1.909 -0.3838 -0.0583 -2.7740
52614SOL     OW62526   6.913   8.289   7.620  0.4238  0.0595 -0.2941
52614SOL    HW162527   6.897   8.223   7.552 -1.1916 -0.0020  0.0982
52614SOL    HW262528   7.008   8.299   7.622  0.5909 -0.9943 -1.5541
52615SOL     OW62529   1.609   5.080  10.173 -0.2632  0.0294  0.3762
52615SOL    HW162530   1.599   5.011  10.238 -0.3795  1.9223  2.4631
52615SOL    HW262531   1.528   5.077  10.122 -0.0708 -1.6249  0.1075
52616SOL     OW62532  11.619   3.629   6.880  0.4420 -0.1902 -0.1789
52616SOL    HW162533  11.548   3.611   6.819 -0.5042 -1.6613  1.2546
52616SOL    HW262534  11.592   3.710   6.924 -0.5376 -0.8585  0.5207
52617SOL     OW62535   5.705   4.493  11.862  0.2696 -0.0685  0.2094
52617SOL    HW162536   5.623   4.448  11.839 -1.0343  1.3765  1.7104
52617SOL    HW262537   5.742   4.441  11.933  0.3188 -0.3733 -0.0381
52618SOL     OW62538   4.918   7.218  10.546  0.4787 -0.2884 -0.9632
52618SOL    HW162539   4.936   7.311  10.529  1.0801 -0.0660  0.7469
52618SOL    HW262540   4.952   7.173  10.468  0.0300  0.9150 -1.8879
52619SOL     OW62541   9.401   3.693  11.881 -0.4113 -0.1034  0.0560
52619SOL    HW162542   9.365   3.617  11.837 -0.9562 -1.3401  2.4627
52619SOL    HW262543   9.337   3.715  11.948 -1.0191  3.4945 -1.4685
52620SOL     OW62544  10.683   4.723   6.133 -0.0819 -0.5099 -0.2095
52620SOL    HW162545  10.743   4.674   6.078  0.9700  1.2351 -0.6935
52620SOL    HW262546  10.670   4.806   6.087 -1.8621 -0.3215  0.5275
52621SOL     OW62547   2.603   8.139   1.939 -0.2090  0.5918 -0.1733
52621SOL    HW162548   2.577   8.160   1.849 -0.6744 -0.3765 -0.2758
52621SOL    HW262549   2.549   8.197   1.993  1.7472  2.9072 -0.5384
52622SOL     OW62550   3.837  11.689   3.569 -0.1277 -0.0354  0.2520
52622SOL    HW162551   3.839  11.611   3.623  0.2564 -0.1713  0.0418
52622SOL    HW262552   3.759  11.736   3.597 -0.3483 -0.4844  0.3905
52623SOL     OW62553   2.843   0.418   1.374  0.0098  0.0423  0.1984
52623SOL    HW162554   2.872   0.507   1.352  1.2043 -1.0224 -3.2244
52623SOL    HW262555   2.749   0.419   1.358 -0.1143  0.8438  0.9135
52624SOL     OW62556  11.170  11.471   1.797 -0.4019 -0.2472 -0.0314
52624SOL    HW162557  11.188  11.459   1.703 -1.3871 -0.6131 -0.1869
52624SOL    HW262558  11.159  11.382   1.831  2.5488 -0.3026  1.0157
52625SOL     OW62559   7.374   5.062   8.320 -0.0179  0.1411 -0.7211
52625SOL    HW162560   7.400   5.072   8.229  2.1012  0.1797 -0.1568
52625SOL    HW262561   7.449   5.092   8.371  0.4744 -3.5278  1.0353
52626SOL     OW62562   0.697   5.851   2.908  0.1924 -0.0929 -0.4269
52626SOL    HW162563   0.748   5.836   2.987 -1.6228  0.4808  0.9138
52626SOL    HW262564   0.755   5.824   2.837  1.5863 -1.4104  1.1220
52627SOL     OW62565   2.667  10.338   1.263  0.4201  0.7105  0.2878
52627SOL    HW162566   2.736  10.403   1.255 -0.8588  1.8727 -2.2376
52627SOL    HW262567   2.712  10.259   1.293  2.4607  1.9649  0.7020
52628SOL     OW62568  11.782   6.081   9.673  0.0138 -0.0935 -0.2308
52628SOL    HW162569  11.798   5.987   9.673 -0.1219 -0.1634 -2.1381
52628SOL    HW262570  11.866   6.120   9.696 -0.3264 -0.6613  2.2668
52629SOL     OW62571   6.781   7.887   0.023 -0.1298 -0.5987  0.3447
52629SOL    HW162572   6.735   7.932  -0.047  0.6196 -0.9226 -0.3710
52629SOL    HW262573   6.745   7.798   0.023 -0.0822 -0.6185  0.3162
52630SOL     OW62574   9.615   6.718   5.806  0.3676 -0.2243  0.5258
52630SOL    HW162575   9.559   6.791   5.833  1.0002  0.8706 -0.9557
52630SOL    HW262576   9.651   6.684   5.888  2.2331  2.9471  1.1870
52631SOL     OW62577  10.402   5.178   3.283 -0.2098 -0.1838  0.4956
52631SOL    HW162578  10.468   5.118   3.248 -0.1994  0.5427 -0.8129
52631SOL    HW262579  10.319   5.135   3.268 -0.1177 -0.5911  1.0973
52632SOL     OW62580   3.497   3.986   2.641  0.2261  0.2032 -0.3065
52632SOL    HW162581   3.543   3.956   2.563  0.9598 -2.1531  0.9354
52632SOL    HW262582   3.405   3.985   2.616  0.4604 -0.3513 -1.2025
52633SOL     OW62583   7.776  11.165   1.625 -0.3865 -0.1312 -0.6374
52633SOL    HW162584   7.751  11.235   1.685  0.1420 -2.5720  2.6986
52633SOL    HW262585   7.872  11.166   1.625 -0.3495 -1.4228  0.2713
52634SOL     OW62586   3.219   2.238  10.271 -0.2375  0.7170  0.3404
52634SOL    HW162587   3.254   2.327  10.279 -2.1919  1.4902  0.6054
52634SOL    HW262588   3.190   2.215  10.359  1.3048 -0.6882  0.5367
52635SOL     OW62589   1.572   4.267   2.835 -0.1756 -0.0297  0.0982
52635SOL    HW162590   1.564   4.280   2.929  0.5218 -0.4868  0.2263
52635SOL    HW262591   1.583   4.355   2.799 -1.8914  0.2976  0.2759
52636SOL     OW62592  10.062   2.758   3.027 -0.1253 -0.0835 -0.4831
52636SOL    HW162593  10.083   2.809   2.949 -0.9966 -1.0410 -1.3841
52636SOL    HW262594   9.986   2.803   3.065 -0.2176 -0.0903 -0.6595
52637SOL     OW62595  10.317   7.274  11.639  0.5800 -0.3648  0.1219
52637SOL    HW162596  10.260   7.346  11.611  1.3109  0.2337  0.1450
52637SOL    HW262597  10.292   7.258  11.729  0.9003  0.3624  0.3524
52638SOL     OW62598  10.086  11.507   5.981 -0.2834 -0.2768  0.4752
52638SOL    HW162599  10.149  11.578   5.971 -0.0694 -0.4867  0.3238
52638SOL    HW262600  10.011  11.533   5.928 -0.1098 -0.2770  0.2280
52639SOL     OW62601   9.485   9.809   6.224  0.1581 -0.0642 -0.2294
52639SOL    HW162602   9.512   9.884   6.277  0.6042  0.8182 -1.6350
52639SOL    HW262603   9.470   9.846   6.137  1.9435 -1.8675 -1.3874
52640SOL     OW62604   6.972   9.519   0.069 -0.1738  0.2567 -1.2413
52640SOL    HW162605   6.882   9.527   0.035 -0.7957 -2.7635 -0.5958
52640SOL    HW262606   7.013   9.453   0.013  1.1352  0.4334 -0.5281
52641SOL     OW62607   1.172  11.070  11.633 -0.0938 -0.1426  0.3367
52641SOL    HW162608   1.253  11.113  11.660 -0.3401 -0.6822  2.0409
52641SOL    HW262609   1.152  11.109  11.548 -0.1154  2.8338  1.6012
52642SOL     OW62610   2.266  11.132   6.772 -0.1625 -0.3270 -0.3733
52642SOL    HW162611   2.341  11.153   6.716 -0.2993 -0.0506 -0.4581
52642SOL    HW262612   2.205  11.087   6.714  0.7491 -2.3283  0.1579
52643SOL     OW62613   7.584  11.526   1.567 -0.1745 -0.7812 -0.1398
52643SOL    HW162614   7.577  11.455   1.630 -0.1174 -0.1899  0.5461
52643SOL    HW262615   7.675  11.524   1.538 -0.5841 -2.0703 -1.4337
52644SOL     OW62616  10.175   2.109  10.371 -0.2704  0.6032 -0.0012
52644SOL    HW162617  10.229   2.157  10.308  0.2182 -1.4795 -1.2459
52644SOL    HW262618  10.234   2.090  10.443 -0.2514  1.1299  0.1304
52645SOL     OW62619   7.382   9.539   5.758 -0.4765  0.2056 -0.1304
52645SOL    HW162620   7.392   9.611   5.697 -1.0108  0.6064  0.2446
52645SOL    HW262621   7.424   9.569   5.839  0.7142 -0.5358 -0.4491
52646SOL     OW62622  10.385  11.646   0.552  0.2698 -0.1891  0.1218
52646SOL    HW162623  10.434  11.656   0.634 -1.9076 -1.1682  1.6324
52646SOL    HW262624  10.321  11.717   0.554 -0.3768 -0.7531 -0.2925
52647SOL     OW62625   8.065   2.465   3.973 -0.7552 -0.5896  0.5173
52647SOL    HW162626   8.010   2.498   4.044  2.7499 -0.1955  3.3614
52647SOL    HW262627   8.131   2.533   3.960  1.0496 -2.3739 -0.2756
52648SOL     OW62628   2.646   1.859   1.169 -0.7657 -0.3386 -0.1716
52648SOL    HW162629   2.735   1.846   1.203 -0.4254 -0.2000 -0.9928
52648SOL    HW262630   2.650   1.829   1.078 -1.5039 -0.1235 -0.2820
52649SOL     OW62631   4.624   7.071   9.412 -0.0411 -0.1948  0.1787
52649SOL    HW162632   4.566   7.038   9.481 -1.2146  1.3031 -0.0344
52649SOL    HW262633   4.573   7.140   9.369  1.8931  1.1497 -0.0810
52650SOL     OW62634  10.114   0.905   0.667 -0.1010 -0.5657  0.8409
52650SOL    HW162635  10.144   0.862   0.586  0.0597 -0.1156  0.6605
52650SOL    HW262636  10.139   0.843   0.736  2.6714  0.4183  0.8659
52651SOL     OW62637   8.382  11.050   5.324 -0.4349 -0.6267 -0.4462
52651SOL    HW162638   8.433  11.115   5.275  0.5993 -0.0766  1.2651
52651SOL    HW262639   8.424  10.966   5.303 -0.2307 -0.4450 -0.7709
52652SOL     OW62640   3.498   2.845  11.175  0.5343 -0.0283 -0.1019
52652SOL    HW162641   3.428   2.910  11.165 -0.2675 -1.1412 -2.6688
52652SOL    HW262642   3.497   2.822  11.268  0.0373  2.6954  0.6498
52653SOL     OW62643  10.588   4.437   8.121  0.4034  0.5152  0.0026
52653SOL    HW162644  10.670   4.422   8.074  0.8705 -0.2724  1.0249
52653SOL    HW262645  10.555   4.350   8.140  0.3377  0.7983  1.2916
52654SOL     OW62646  10.570   9.407   8.480  0.0181  0.0025  0.1083
52654SOL    HW162647  10.544   9.399   8.388  1.4556 -0.2877 -0.2916
52654SOL    HW262648  10.587   9.500   8.493  0.0776  0.0055  0.0051
52655SOL     OW62649   2.559   2.791   2.193 -0.2309  0.3102  0.4968
52655SOL    HW162650   2.474   2.821   2.225 -0.3152  0.2579  0.3161
52655SOL    HW262651   2.560   2.697   2.212 -0.5170  0.1686 -0.1968
52656SOL     OW62652   1.087   0.329   9.250  0.0280 -0.4049 -0.9811
52656SOL    HW162653   1.014   0.392   9.251 -0.6714 -1.1872 -1.5981
52656SOL    HW262654   1.078   0.281   9.332 -0.1849 -0.5350 -1.0805
52657SOL     OW62655  11.971  10.928   7.083  0.5934 -0.4451  0.2225
52657SOL    HW162656  11.974  10.879   7.165  0.2995 -1.1732 -0.1946
52657SOL    HW262657  11.946  11.016   7.109 -3.3874 -1.4812  0.5908
52658SOL     OW62658  10.802   1.486   9.096 -0.1370  0.1544  0.4282
52658SOL    HW162659  10.721   1.436   9.104 -0.0584 -0.1423 -0.6086
52658SOL    HW262660  10.847   1.449   9.021  0.6129  0.8206  0.5307
52659SOL     OW62661   6.617   5.615   2.753 -0.8776 -0.2601  0.5189
52659SOL    HW162662   6.700   5.582   2.720 -0.7467  2.0336 -1.6334
52659SOL    HW262663   6.641   5.674   2.825 -0.7926 -0.8208  0.9631
52660SOL     OW62664   3.860   2.222   2.684  0.3485 -0.4374  0.1093
52660SOL    HW162665   3.912   2.142   2.683  0.7702 -0.1852 -1.7311
52660SOL    HW262666   3.902   2.278   2.619 -0.6085  0.8433  0.5661
52661SOL     OW62667  10.474  11.712   9.796  0.2347 -0.3526 -0.0357
52661SOL    HW162668  10.424  11.721   9.714 -0.0339 -0.9474  0.0624
52661SOL    HW262669  10.429  11.771   9.857  0.9979  0.8263 -0.5634
52662SOL     OW62670  11.633   9.054   8.694 -0.0346  0.2993  0.2091
52662SOL    HW162671  11.713   9.074   8.743  0.1048 -0.9301  0.5419
52662SOL    HW262672  11.563   9.059   8.760 -0.0687  0.2261  0.1791
52663SOL     OW62673   1.921   6.622   7.142  0.0002 -0.7223 -0.3537
52663SOL    HW162674   1.990   6.588   7.086  1.4414  1.2260  0.1456
52663SOL    HW262675   1.896   6.548   7.196  0.4379 -1.9314 -1.7400
52664SOL     OW62676   4.487   6.808   5.712 -0.1521  0.3121  0.8627
52664SOL    HW162677   4.552   6.738   5.726  0.2688  0.8764  1.7940
52664SOL    HW262678   4.537   6.889   5.716 -0.7515  0.7098  0.4905
52665SOL     OW62679   0.788  11.267   0.269 -0.1205 -0.6193  0.0093
52665SOL    HW162680   0.697  11.295   0.277  0.0681 -0.2686  1.0109
52665SOL    HW262681   0.798  11.243   0.177 -1.1036 -0.2449 -0.1986
52666SOL     OW62682   6.980   8.724   6.113  0.0578 -0.3734 -0.2562
52666SOL    HW162683   6.962   8.816   6.134 -3.5865 -1.2413  1.2694
52666SOL    HW262684   7.008   8.725   6.022 -0.3537  2.2210 -0.4263
52667SOL     OW62685   6.844   5.114   6.885  0.1685  1.0109 -0.3368
52667SOL    HW162686   6.774   5.143   6.826 -0.3306  2.4251  0.9068
52667SOL    HW262687   6.798   5.078   6.961  0.7951 -1.3202 -0.9576
52668SOL     OW62688   6.897   5.759   8.495 -0.1379  0.2058  0.2396
52668SOL    HW162689   6.949   5.714   8.429 -0.3436 -1.9660  1.4505
52668SOL    HW262690   6.961   5.810   8.545  0.4156 -0.2625  0.0249
52669SOL     OW62691   5.823  10.829  10.067 -0.6686 -0.2809 -0.0327
52669SOL    HW162692   5.736  10.865  10.083 -1.7083 -2.0687 -1.2341
52669SOL    HW262693   5.832  10.829   9.971  1.3886  1.4039  0.0960
52670SOL     OW62694   6.826  10.818   4.223 -0.5670  0.3559  0.3838
52670SOL    HW162695   6.850  10.804   4.132 -2.1591 -1.5626  0.1799
52670SOL    HW262696   6.897  10.776   4.273 -0.5591 -0.1550 -0.0415
52671SOL     OW62697  10.642   6.677   7.174  0.1315  0.4868  0.0922
52671SOL    HW162698  10.565   6.676   7.116  0.4668 -0.7489 -0.3765
52671SOL    HW262699  10.608   6.650   7.259 -0.0708  0.5848  0.0421
52672SOL     OW62700   0.140   4.966   4.832 -0.3188  0.0588 -0.1508
52672SOL    HW162701   0.179   4.880   4.812  0.5251  0.3775  0.0490
52672SOL    HW262702   0.129   5.008   4.747  0.3677  0.2030 -0.1772
52673SOL     OW62703  11.245  11.767   3.630 -0.5067  0.1416  0.4409
52673SOL    HW162704  11.225  11.683   3.671 -2.6901 -2.0757 -4.3646
52673SOL    HW262705  11.326  11.751   3.580  0.2303  1.6451  1.0728
52674SOL     OW62706  10.850   5.714   4.773  1.0373  0.1284 -0.5873
52674SOL    HW162707  10.895   5.715   4.688  0.4341 -2.1629 -0.9998
52674SOL    HW262708  10.768   5.667   4.756  0.8079 -0.1665  1.2076
52675SOL     OW62709   0.602  11.522  10.789  0.1657  0.1648  0.5925
52675SOL    HW162710   0.588  11.558  10.701  1.4261 -0.8838 -0.0594
52675SOL    HW262711   0.550  11.442  10.790 -0.1566  0.3723  0.9600
52676SOL     OW62712   3.566   4.810   3.697 -0.1817 -0.2599 -0.2570
52676SOL    HW162713   3.558   4.868   3.621 -1.0532  0.0438  0.0571
52676SOL    HW262714   3.476   4.793   3.723  0.0971  0.8865  1.6447
52677SOL     OW62715   4.236   3.367  11.881 -0.3721 -0.1312 -0.4206
52677SOL    HW162716   4.168   3.384  11.816 -0.7435  0.1054  0.0208
52677SOL    HW262717   4.223   3.435  11.947 -1.6591 -1.8361  1.1897
52678SOL     OW62718   9.223   2.809   8.527  0.9203 -0.0378 -0.2279
52678SOL    HW162719   9.272   2.890   8.545  0.1581  0.5395 -0.6974
52678SOL    HW262720   9.262   2.744   8.586  1.3222  0.7534  0.3989
52679SOL     OW62721   7.486  10.972  10.941 -0.9477  0.4790 -0.4478
52679SOL    HW162722   7.539  11.052  10.947  1.5021 -1.0949  0.5423
52679SOL    HW262723   7.504  10.938  10.853  0.0325 -0.2222  0.0004
52680SOL     OW62724   9.987  11.574   8.882 -0.0173  0.0779 -0.2048
52680SOL    HW162725   9.896  11.554   8.902 -0.2893  1.9829  0.6830
52680SOL    HW262726   9.987  11.591   8.787 -0.7555  0.7894 -0.0946
52681SOL     OW62727   0.860   3.553   1.352 -0.3826 -0.2512  0.2540
52681SOL    HW162728   0.856   3.648   1.342  0.7626 -0.3458 -1.5946
52681SOL    HW262729   0.838   3.519   1.266  0.6491 -1.6229  0.5071
52682SOL     OW62730   1.392   5.963   6.404 -0.0198  0.5283  0.4214
52682SOL    HW162731   1.336   5.891   6.373  2.7572 -1.2688 -0.8577
52682SOL    HW262732   1.407   5.944   6.496  1.9483 -1.6367 -0.2313
52683SOL     OW62733   4.398   2.511   7.367  0.0121 -0.7053  0.1838
52683SOL    HW162734   4.465   2.459   7.323  0.5597  0.0215  0.1290
52683SOL    HW262735   4.447   2.580   7.412 -0.7441  0.4563 -0.6967
52684SOL     OW62736   6.862   0.232   9.528 -0.4194  0.5438  0.3885
52684SOL    HW162737   6.947   0.269   9.553 -0.6487  0.1639  1.8243
52684SOL    HW262738   6.884   0.150   9.484 -0.0308  0.4575  0.7320
52685SOL     OW62739   2.443   1.623   0.485 -0.5382  0.2884 -0.2649
52685SOL    HW162740   2.537   1.631   0.471 -0.3388 -1.2312  0.0440
52685SOL    HW262741   2.407   1.705   0.452  0.9777  1.3395  0.5574
52686SOL     OW62742   5.819  10.630   0.522  0.2544  0.0825 -0.6284
52686SOL    HW162743   5.816  10.726   0.522  0.3814  0.0872 -0.6169
52686SOL    HW262744   5.774  10.605   0.441  0.4945  0.1607 -0.7857
52687SOL     OW62745   9.719   8.781  11.968  0.3132 -0.1381 -0.1617
52687SOL    HW162746   9.756   8.700  11.933  0.3198 -0.2273  0.0483
52687SOL    HW262747   9.737   8.776  12.062  2.5694  1.2506 -0.4318
52688SOL     OW62748   3.413   3.643  10.624 -0.1842  0.8041  0.1147
52688SOL    HW162749   3.378   3.692  10.698  0.0067 -1.0194  1.5037
52688SOL    HW262750   3.479   3.586  10.663 -0.9444 -1.1053 -1.2196
52689SOL     OW62751   3.818   9.628  11.345 -0.7860  0.4524 -0.3350
52689SOL    HW162752   3.815   9.612  11.251 -0.1330 -0.9839 -0.1415
52689SOL    HW262753   3.879   9.701  11.355  0.4820 -0.4789 -0.9406
52690SOL     OW62754  11.659  11.861   5.650  0.8218 -0.7695 -0.0316
52690SOL    HW162755  11.728  11.801   5.621  1.7658 -0.0062  0.5953
52690SOL    HW262756  11.700  11.914   5.718 -0.5491 -0.6553  0.7350
52691SOL     OW62757  11.216   8.476  10.682 -0.5653 -0.2157  0.0639
52691SOL    HW162758  11.192   8.567  10.667  0.2292 -0.2175 -1.2667
52691SOL    HW262759  11.290   8.480  10.742 -1.5351 -0.0775  1.3044
52692SOL     OW62760   0.339  11.731  10.802  0.0683  0.5140 -0.1589
52692SOL    HW162761   0.290  11.721  10.721  0.4796 -0.8313 -0.2744
52692SOL    HW262762   0.359  11.824  10.807 -0.1830  0.6628 -1.4783
52693SOL     OW62763   5.378  11.190   1.648  0.5637 -0.2851  0.0327
52693SOL    HW162764   5.369  11.140   1.730  0.1551 -1.2966 -0.6123
52693SOL    HW262765   5.319  11.264   1.659 -1.1544 -1.5587 -0.1724
52694SOL     OW62766   2.722   0.021   7.832 -0.0239  0.1002  0.3665
52694SOL    HW162767   2.788  -0.016   7.773  0.2699 -0.4423  1.0251
52694SOL    HW262768   2.771   0.081   7.888 -0.0333 -0.4878  1.0214
52695SOL     OW62769   7.821   9.374  10.126 -0.2245 -0.6036 -0.3074
52695SOL    HW162770   7.777   9.369  10.210 -0.4376 -0.5275 -0.4123
52695SOL    HW262771   7.752   9.357  10.062  0.1438 -1.7667 -0.4238
52696SOL     OW62772  10.905  11.368   7.990  0.3377 -0.0879  0.0899
52696SOL    HW162773  10.945  11.331   8.068  1.7321 -0.5538 -0.8063
52696SOL    HW262774  10.974  11.364   7.923 -1.0564 -0.4586 -1.3899
52697SOL     OW62775   1.984   7.699   5.231 -0.0546  0.1482  0.1449
52697SOL    HW162776   1.944   7.782   5.206 -0.2652  0.1131  0.3614
52697SOL    HW262777   1.960   7.688   5.323 -1.2989 -0.8872 -0.2734
52698SOL     OW62778   7.967  10.826  11.396  0.6625  0.1237  0.1311
52698SOL    HW162779   7.978  10.920  11.383  0.6746  0.3958  1.9019
52698SOL    HW262780   7.873  10.813  11.398  0.6097 -0.2738 -2.2885
52699SOL     OW62781   7.536   2.752   9.787 -0.2761 -0.6813 -0.1257
52699SOL    HW162782   7.468   2.818   9.803 -0.0317 -0.6585  0.8586
52699SOL    HW262783   7.487   2.674   9.760 -0.7047 -0.7040  0.6920
52700SOL     OW62784   8.438   3.897   9.295 -0.1268  0.4308 -0.5499
52700SOL    HW162785   8.525   3.917   9.332 -1.2624 -0.4506  3.0448
52700SOL    HW262786   8.379   3.955   9.342 -1.8663 -1.6528  0.0068
52701SOL     OW62787   9.351   1.740  11.803  0.1499 -0.0048 -0.0614
52701SOL    HW162788   9.407   1.687  11.745  0.2249 -0.3200  0.2942
52701SOL    HW262789   9.262   1.718  11.776  0.1301 -1.4099  1.0089
52702SOL     OW62790   6.109   9.989   5.167  0.2770 -0.1639  0.2452
52702SOL    HW162791   6.076   9.983   5.078  1.3304  2.0569 -0.3773
52702SOL    HW262792   6.204   9.984   5.158  0.6094  2.9826  0.8006
52703SOL     OW62793   0.238   8.392   0.909 -0.1543 -0.5590 -0.0354
52703SOL    HW162794   0.189   8.340   0.973  0.3549 -1.4730 -0.3694
52703SOL    HW262795   0.243   8.480   0.949 -0.0649 -1.0393  1.0571
52704SOL     OW62796   0.067   5.976   7.775 -0.2086  0.0399  0.0040
52704SOL    HW162797   0.054   5.884   7.753 -0.6780  0.0275  0.3213
52704SOL    HW262798   0.155   5.997   7.742 -0.8759  0.0233 -1.9271
52705SOL     OW62799   3.325   4.071   7.808 -0.0107  0.0491  0.0974
52705SOL    HW162800   3.391   4.020   7.854  0.4018 -0.3628 -0.9168
52705SOL    HW262801   3.350   4.162   7.824 -0.5032 -0.0423  1.5588
52706SOL     OW62802   0.161   5.591   5.905 -0.2717  0.6409  0.3883
52706SOL    HW162803   0.222   5.529   5.946 -0.7325 -1.9818 -2.4737
52706SOL    HW262804   0.076   5.571   5.944 -0.4145 -0.6481 -0.5000
52707SOL     OW62805   3.220   4.903  11.086 -0.4028  0.6617 -0.0443
52707SOL    HW162806   3.203   4.972  11.023  0.9420  0.6729 -0.4243
52707SOL    HW262807   3.140   4.851  11.087 -0.8418  1.3030 -0.9327
52708SOL     OW62808   8.530  11.372   8.714  0.0496 -0.0597 -0.0897
52708SOL    HW162809   8.559  11.457   8.681 -0.7331  0.5967  0.8536
52708SOL    HW262810   8.529  11.383   8.810 -2.4495 -0.2977 -0.0270
52709SOL     OW62811   9.244  11.432   5.403 -0.6207  0.1927 -0.6707
52709SOL    HW162812   9.339  11.443   5.396 -0.4793 -1.0293 -0.9150
52709SOL    HW262813   9.231  11.338   5.416 -1.7033  0.5788  1.4949
52710SOL     OW62814   8.431   6.236  10.601 -0.5361 -0.1921 -0.0064
52710SOL    HW162815   8.405   6.145  10.587 -1.1863  0.0093 -0.1485
52710SOL    HW262816   8.471   6.236  10.688 -0.1420 -0.6892 -0.1812
52711SOL     OW62817   1.780   8.989   6.161  0.1192 -0.2134  0.2989
52711SOL    HW162818   1.707   8.955   6.109 -1.1703  1.1245  1.1688
52711SOL    HW262819   1.796   8.922   6.228 -0.5378 -0.3490  0.3217
52712SOL     OW62820   6.566   9.888   5.736  0.4336 -0.2120  0.1040
52712SOL    HW162821   6.488   9.834   5.746 -0.7267  0.5713 -3.2434
52712SOL    HW262822   6.549   9.966   5.789 -1.1174 -0.0806 -0.5191
52713SOL     OW62823   8.058   7.784   2.029 -0.0182  0.2601  0.1038
52713SOL    HW162824   8.071   7.877   2.011 -0.5159  0.2602 -0.2744
52713SOL    HW262825   8.031   7.747   1.945  2.1664 -0.6138 -0.2838
52714SOL     OW62826   8.626   9.501   2.132  0.0837  0.7622  0.6855
52714SOL    HW162827   8.543   9.546   2.150  0.2962  0.7471  1.7831
52714SOL    HW262828   8.685   9.571   2.102  0.3490  1.2087  2.1671
52715SOL     OW62829   3.032   7.807   9.019 -0.6015  0.3271 -0.0574
52715SOL    HW162830   3.035   7.892   9.063 -1.5050 -0.5313  1.7411
52715SOL    HW262831   3.020   7.743   9.089 -1.0048 -1.2068 -1.4515
52716SOL     OW62832   6.483   9.545   4.207 -0.1163  0.2215  0.2499
52716SOL    HW162833   6.563   9.502   4.235 -0.1249  0.2498  0.3186
52716SOL    HW262834   6.499   9.569   4.115 -1.2951 -2.8294 -0.8742
52717SOL     OW62835   9.022  10.668   9.492  0.5954 -0.0217  0.1817
52717SOL    HW162836   8.977  10.614   9.427 -0.2795 -0.4600  1.1212
52717SOL    HW262837   8.953  10.694   9.553  1.4275  0.2328  1.0352
52718SOL     OW62838   3.747   9.566  10.396  0.2950  0.2471 -0.0347
52718SOL    HW162839   3.757   9.623  10.319 -1.2001 -0.1213 -0.5333
52718SOL    HW262840   3.686   9.614  10.452 -0.6912 -0.6762 -0.2941
52719SOL     OW62841   0.790   4.741   7.057  0.2745 -0.1640  0.5880
52719SOL    HW162842   0.774   4.652   7.028 -0.0231 -0.4640  1.6378
52719SOL    HW262843   0.759   4.744   7.148  2.1160  0.4311  1.2624
52720SOL     OW62844   1.862   8.975   5.096 -0.4638 -0.3512  0.0676
52720SOL    HW162845   1.848   9.049   5.154 -0.0479  1.1431 -1.6352
52720SOL    HW262846   1.937   9.000   5.042 -1.2274 -1.3355 -1.5592
52721SOL     OW62847   0.185  11.164   1.071 -0.0755  0.0110 -0.7346
52721SOL    HW162848   0.208  11.251   1.039 -0.9013  0.9969  1.2171
52721SOL    HW262849   0.103  11.142   1.026 -0.1462  0.4735 -0.8307
52722SOL     OW62850   7.495   1.299  10.004 -0.2622 -0.5351 -0.1380
52722SOL    HW162851   7.548   1.371   9.972 -1.1741  0.2590  0.0808
52722SOL    HW262852   7.473   1.249   9.926 -1.7468  0.8993 -0.6956
52723SOL     OW62853   8.699   0.413   0.271  0.4937 -0.0524  0.3590
52723SOL    HW162854   8.703   0.326   0.310  0.8123  1.0577  2.9867
52723SOL    HW262855   8.782   0.454   0.297  0.8911  0.6742 -1.8598
52724SOL     OW62856  11.697   4.743   2.447 -0.8635 -0.3488 -0.1452
52724SOL    HW162857  11.632   4.691   2.399  2.0570 -2.4385 -2.2594
52724SOL    HW262858  11.720   4.687   2.522  0.4429 -0.9963 -0.9937
52725SOL     OW62859   7.217   7.186  11.891 -0.4730  0.5934 -0.5401
52725SOL    HW162860   7.218   7.110  11.949  0.3535  1.1735  0.2313
52725SOL    HW262861   7.189   7.151  11.806  0.8730 -0.7717 -0.4598
52726SOL     OW62862   3.749  11.947   1.645  0.4538  0.1747  0.2617
52726SOL    HW162863   3.833  11.967   1.603 -0.9678  1.6310 -2.1359
52726SOL    HW262864   3.730  11.856   1.620 -0.0953  0.8331 -1.9875
52727SOL     OW62865   1.685   2.545   2.200 -0.0530 -0.0059  0.3278
52727SOL    HW162866   1.616   2.518   2.260  0.9918 -0.3893  1.4150
52727SOL    HW262867   1.679   2.640   2.197 -0.4399 -0.0193  0.6364
52728SOL     OW62868   8.425  11.725   0.883 -0.3908 -0.3109  0.0510
52728SOL    HW162869   8.366  11.789   0.845  1.2374  1.1026 -0.2338
52728SOL    HW262870   8.426  11.744   0.977 -0.2913 -0.2553  0.0386
52729SOL     OW62871   7.330  10.555   7.856 -0.2334 -0.3183  0.1478
52729SOL    HW162872   7.418  10.542   7.892 -0.7279  0.9232  1.9724
52729SOL    HW262873   7.293  10.626   7.908 -1.6453  0.5123 -1.8633
52730SOL     OW62874   7.991   5.762   3.087 -0.2814  0.4720  0.5882
52730SOL    HW162875   7.945   5.710   3.021 -0.0901  1.3343 -0.2427
52730SOL    HW262876   8.033   5.697   3.143  0.1644 -0.2824 -0.5817
52731SOL     OW62877   3.262   2.872   3.806 -0.1182 -0.0247 -0.2093
52731SOL    HW162878   3.171   2.892   3.786 -0.2883  1.6172  1.8329
52731SOL    HW262879   3.289   2.940   3.869  2.7863  0.0722 -1.3627
52732SOL     OW62880   3.705   0.385   3.566  0.1746 -0.1378 -0.2467
52732SOL    HW162881   3.630   0.433   3.603  0.3074  0.0921 -0.2788
52732SOL    HW262882   3.759   0.452   3.525  0.9304 -0.1586  0.6681
52733SOL     OW62883  10.688  10.589   8.966  0.1627  0.5920  0.1441
52733SOL    HW162884  10.739  10.550   8.896 -0.8539 -1.1356  0.3152
52733SOL    HW262885  10.605  10.543   8.964 -0.4836  1.6371  1.4440
52734SOL     OW62886   8.454   7.592   1.130 -0.7010  0.4362 -0.6745
52734SOL    HW162887   8.537   7.604   1.083 -0.6475  1.6152 -0.3202
52734SOL    HW262888   8.409   7.522   1.083  1.7390 -2.3982  0.8763
52735SOL     OW62889   9.281   5.473   6.024 -0.2125 -0.2691  0.2771
52735SOL    HW162890   9.334   5.552   6.038  1.0188 -0.8747 -0.7525
52735SOL    HW262891   9.302   5.417   6.099 -0.2687 -0.0346  0.4671
52736SOL     OW62892   0.076   3.749   0.137 -0.1660 -0.3199 -0.0541
52736SOL    HW162893   0.112   3.749   0.225 -0.8929  1.6314  0.3021
52736SOL    HW262894   0.035   3.663   0.128 -1.1750 -0.1310  2.0131
52737SOL     OW62895   5.275   1.900   5.728 -0.0757 -0.4386 -0.1254
52737SOL    HW162896   5.214   1.959   5.685  1.3529  0.7916 -0.5399
52737SOL    HW262897   5.256   1.910   5.822 -0.2038  0.2949 -0.2236
52738SOL     OW62898   5.214   1.616   2.889  0.0449  0.1382  0.0552
52738SOL    HW162899   5.146   1.621   2.956 -0.8916  0.0635 -0.8676
52738SOL    HW262900   5.265   1.696   2.901 -0.9423  0.7959 -0.0065
52739SOL     OW62901   2.961   3.616   7.718 -0.2616  0.2846 -0.2485
52739SOL    HW162902   3.042   3.594   7.764 -1.0491 -1.1143  0.5230
52739SOL    HW262903   2.891   3.584   7.775 -1.3347  0.2972 -1.4956
52740SOL     OW62904   9.396   1.803   9.614 -0.7559 -0.1801  0.3218
52740SOL    HW162905   9.453   1.832   9.685  0.6072 -1.7794 -0.0814
52740SOL    HW262906   9.454   1.758   9.553 -2.4369 -1.9253 -0.0810
52741SOL     OW62907   5.077   9.679  10.609 -0.5435  0.1449 -0.0939
52741SOL    HW162908   5.110   9.626  10.681 -0.4958  0.3796  0.0549
52741SOL    HW262909   5.041   9.615  10.547 -1.6858 -0.0037  0.6860
52742SOL     OW62910   7.748   8.972   1.117 -0.4948 -0.3643 -0.2366
52742SOL    HW162911   7.757   8.951   1.210  1.0378  0.7719 -0.0945
52742SOL    HW262912   7.836   8.968   1.082 -1.1407 -1.5094 -1.8553
52743SOL     OW62913   5.725  11.235   1.642  0.0559  0.1517 -0.0158
52743SOL    HW162914   5.797  11.250   1.580  1.8407 -1.7163  1.4798
52743SOL    HW262915   5.649  11.223   1.586  1.5142 -1.0283 -1.8931
52744SOL     OW62916   8.826   5.467   9.660 -0.1672 -0.2132 -0.8655
52744SOL    HW162917   8.868   5.529   9.601  0.1220  0.4327 -0.0096
52744SOL    HW262918   8.890   5.454   9.730 -2.0783  2.4377  1.6175
52745SOL     OW62919   0.481   0.170  11.385 -0.4237  0.3586 -0.2508
52745SOL    HW162920   0.490   0.174  11.481 -0.7464 -0.9204 -0.1547
52745SOL    HW262921   0.522   0.087  11.361  0.8045  1.2419 -1.3813
52746SOL     OW62922  11.505   8.364   1.725 -0.5531 -0.3679 -0.9203
52746SOL    HW162923  11.563   8.290   1.745  1.3407  0.8893 -1.5586
52746SOL    HW262924  11.445   8.367   1.799 -0.7260 -2.5465 -0.8794
52747SOL     OW62925   7.591   2.819   6.934  0.5188 -0.1642 -0.1621
52747SOL    HW162926   7.678   2.853   6.955  0.2506 -0.3343  1.3540
52747SOL    HW262927   7.550   2.804   7.019 -1.3503  0.7840 -0.8318
52748SOL     OW62928   4.398   9.089   1.522 -0.0740 -0.3544  0.0049
52748SOL    HW162929   4.463   9.127   1.582 -1.9238  2.7414  0.2976
52748SOL    HW262930   4.448   9.032   1.465  2.8935  1.6435  0.3825
52749SOL     OW62931   3.773  11.044   6.010 -0.1716  0.4404 -0.2829
52749SOL    HW162932   3.807  11.029   6.098  0.0835 -1.0628 -0.6148
52749SOL    HW262933   3.756  11.138   6.006 -0.7829  0.4365  1.5790
52750SOL     OW62934   6.184   8.317   3.003 -0.0102  0.1382 -0.2389
52750SOL    HW162935   6.195   8.373   2.926 -0.4031  0.0151 -0.3878
52750SOL    HW262936   6.139   8.239   2.969 -1.6918  0.7940  0.4061
52751SOL     OW62937   2.523   7.808   9.565 -0.5908  0.1621 -0.2948
52751SOL    HW162938   2.500   7.810   9.658  0.9797  1.3737  0.1175
52751SOL    HW262939   2.588   7.739   9.557  0.0171  0.7228 -0.2826
52752SOL     OW62940  11.499   2.668   4.580 -0.6804  0.5275 -0.2479
52752SOL    HW162941  11.483   2.649   4.487  0.2377 -0.3139 -0.2504
52752SOL    HW262942  11.479   2.761   4.589 -2.2058  0.2979 -0.9605
52753SOL     OW62943   3.350   3.043   4.014  0.5178 -0.3705  0.5465
52753SOL    HW162944   3.389   3.056   4.101  0.1020  0.7412  0.5898
52753SOL    HW262945   3.349   3.131   3.976  1.0766 -0.9046 -0.7580
52754SOL     OW62946  10.376  11.312   0.136  0.0120 -0.0465 -0.1272
52754SOL    HW162947  10.404  11.383   0.193 -2.2364  3.0221 -2.5014
52754SOL    HW262948  10.282  11.327   0.124 -0.9043 -4.2643  0.1999
52755SOL     OW62949   7.748   8.624   3.501 -0.9236  0.6439 -0.1720
52755SOL    HW162950   7.766   8.670   3.420 -0.1378  0.7294  0.0412
52755SOL    HW262951   7.726   8.693   3.564  0.3127  0.7536  0.1627
52756SOL     OW62952   8.448  11.757   7.924 -0.2221  0.1759 -0.2246
52756SOL    HW162953   8.467  11.775   8.016  2.0166  1.2499 -0.8287
52756SOL    HW262954   8.355  11.734   7.923 -0.6271  1.3942  2.1220
52757SOL     OW62955   9.866   8.010   5.821 -0.1043 -0.1501 -0.2694
52757SOL    HW162956   9.852   7.976   5.733  0.2986  2.0829 -1.2933
52757SOL    HW262957   9.947   7.967   5.851 -0.3985 -1.1426 -0.8606
52758SOL     OW62958   9.854   6.268  11.391 -0.1967  0.1233  0.0236
52758SOL    HW162959   9.846   6.252  11.485 -0.6609  0.7787  0.1069
52758SOL    HW262960   9.893   6.356  11.386 -0.0057  0.0132 -0.3957
52759SOL     OW62961   4.492   7.258   9.289 -0.1874 -0.3911 -0.0230
52759SOL    HW162962   4.541   7.337   9.263 -0.0681 -0.9722 -1.6743
52759SOL    HW262963   4.439   7.286   9.363 -1.4103  1.7477 -1.5842
52760SOL     OW62964   6.144   1.841   8.238  0.4386 -0.1726 -0.7072
52760SOL    HW162965   6.179   1.886   8.162 -2.5542  1.1535 -1.4447
52760SOL    HW262966   6.111   1.757   8.204  2.4034 -1.2740 -0.0770
52761SOL     OW62967   1.678   9.314   6.063  0.6045 -0.1017  0.2364
52761SOL    HW162968   1.745   9.298   6.130  1.1580  0.6370 -0.1209
52761SOL    HW262969   1.642   9.399   6.086  1.4292  0.5772 -0.8984
52762SOL     OW62970   5.505   8.487   2.731 -0.1861 -0.4403  0.4532
52762SOL    HW162971   5.501   8.515   2.639 -1.1071  1.7744  1.0827
52762SOL    HW262972   5.598   8.474   2.749  0.4592  2.8484  0.1437
52763SOL     OW62973   4.824   7.208   5.277 -0.3864  0.0555  0.7083
52763SOL    HW162974   4.805   7.121   5.240  1.3288 -0.7583  1.5943
52763SOL    HW262975   4.867   7.255   5.206  1.5506 -0.9808  1.1255
52764SOL     OW62976   3.453   9.568   6.925 -0.7750 -0.2552  0.0087
52764SOL    HW162977   3.390   9.525   6.983 -0.8655  0.3575  0.3698
52764SOL    HW262978   3.414   9.653   6.906  0.4679  0.6318  1.2102
52765SOL     OW62979   8.914   1.812  11.743 -0.2151  0.8136 -0.2104
52765SOL    HW162980   8.850   1.807  11.671 -0.4176 -0.0954  0.0189
52765SOL    HW262981   8.860   1.818  11.822 -0.0870 -1.4344  0.1028
52766SOL     OW62982   2.084   6.785   6.605 -0.3741  0.3850 -0.1144
52766SOL    HW162983   2.082   6.707   6.660  0.4491  0.2554 -0.2619
52766SOL    HW262984   2.177   6.804   6.591 -0.5573  1.3197 -0.1879
52767SOL     OW62985  11.910   9.305   2.197 -0.3255 -0.0308 -0.5109
52767SOL    HW162986  11.883   9.304   2.105 -0.7114 -0.3025 -0.3946
52767SOL    HW262987  11.964   9.383   2.205  0.9587 -0.7931 -1.3306
52768SOL     OW62988   5.089   2.955   8.439 -0.3940  0.4941 -0.1066
52768SOL    HW162989   5.107   3.043   8.405  0.8127 -0.8026 -3.1570
52768SOL    HW262990   5.163   2.937   8.498  0.1172  0.9785 -0.5876
52769SOL     OW62991   9.757   0.398   5.135 -0.2459  0.1104  0.0180
52769SOL    HW162992   9.852   0.384   5.140  0.0125  1.7595  0.5832
52769SOL    HW262993   9.745   0.485   5.174 -2.0808 -0.3971  0.6615
52770SOL     OW62994   8.533   3.053   4.603 -0.8278 -0.4478  0.3218
52770SOL    HW162995   8.490   3.034   4.687 -0.8313  0.2926  0.5011
52770SOL    HW262996   8.461   3.076   4.544 -0.7255  0.3491  0.4965
52771SOL     OW62997   0.827   5.859   6.624 -0.0864  0.3103 -0.1359
52771SOL    HW162998   0.904   5.913   6.646 -0.5651  1.1378 -0.4488
52771SOL    HW262999   0.818   5.867   6.529 -1.4039  1.4236  0.0437
52772SOL     OW63000   0.519   5.174  11.082  0.2827 -0.3996 -0.0558
52772SOL    HW163001   0.529   5.235  11.008  0.4120 -1.2298 -0.7399
52772SOL    HW263002   0.596   5.117  11.076 -0.6204 -1.6246 -0.3793
52773SOL     OW63003   5.493   2.189  10.220  0.0843  0.0837  0.0334
52773SOL    HW163004   5.464   2.101  10.246  0.8117 -1.2090 -3.0646
52773SOL    HW263005   5.427   2.218  10.157  1.2886  0.5406 -1.0545
52774SOL     OW63006   5.186   5.521   1.563  0.3938  0.6000  0.7039
52774SOL    HW163007   5.102   5.500   1.602 -0.3511  0.7174 -0.7574
52774SOL    HW263008   5.227   5.582   1.624 -1.2281  1.7076  0.7529
52775SOL     OW63009   7.231  11.304   4.217 -0.4727  0.3507 -0.2010
52775SOL    HW163010   7.140  11.277   4.234 -0.4815  0.8510  0.5940
52775SOL    HW263011   7.243  11.288   4.123 -0.9991 -0.8277 -0.0870
52776SOL     OW63012   2.740  11.385   8.366 -0.6906  0.0058  0.1083
52776SOL    HW163013   2.663  11.434   8.396 -0.0855  0.8737  0.2838
52776SOL    HW263014   2.704  11.316   8.310 -1.7866 -0.9797  1.9000
52777SOL     OW63015   7.757   9.842   8.682 -0.1895  0.2893 -0.9181
52777SOL    HW163016   7.725   9.807   8.765 -0.4572 -0.0672 -1.1676
52777SOL    HW263017   7.853   9.836   8.690 -0.1469  1.6313 -0.0553
52778SOL     OW63018   7.163   2.496   3.702 -0.1588 -0.3995 -0.0496
52778SOL    HW163019   7.198   2.436   3.769  0.7316  0.4217  0.2427
52778SOL    HW263020   7.070   2.504   3.723 -0.0801 -0.8915  0.5222
52779SOL     OW63021   5.261   8.491   0.921 -0.1143  0.1030  0.6352
52779SOL    HW163022   5.188   8.486   0.860  1.1471 -1.2755 -0.8480
52779SOL    HW263023   5.297   8.402   0.924  0.8770  0.5016  2.1337
52780SOL     OW63024  11.286   3.439   1.111 -0.0910  0.1678  0.8260
52780SOL    HW163025  11.248   3.351   1.112 -0.6956  0.3410 -1.1521
52780SOL    HW263026  11.358   3.436   1.173  0.1757 -1.8534  0.4651
52781SOL     OW63027   4.142   4.098   0.235  0.3691 -0.7541  0.3062
52781SOL    HW163028   4.073   4.156   0.200  0.0182 -1.4856 -0.2403
52781SOL    HW263029   4.136   4.109   0.330  0.2611  0.0539  0.2177
52782SOL     OW63030   3.214   5.371   5.857 -0.5140 -0.2866  0.2419
52782SOL    HW163031   3.175   5.305   5.799 -0.6696  0.8453 -1.0045
52782SOL    HW263032   3.223   5.327   5.941 -1.4960 -1.5893 -0.2991
52783SOL     OW63033   7.925   7.702   3.567  0.4865  0.3013 -0.0910
52783SOL    HW163034   7.975   7.781   3.545  1.8408  0.0712  1.9074
52783SOL    HW263035   7.971   7.665   3.642 -1.1247 -1.4735  0.0855
52784SOL     OW63036   6.405   6.398   2.126 -0.1944 -0.0588 -0.4495
52784SOL    HW163037   6.379   6.456   2.055 -0.6566 -1.5559 -1.5519
52784SOL    HW263038   6.394   6.450   2.206 -2.6456  0.6816 -1.2064
52785SOL     OW63039   8.151   6.636   9.216 -0.2296 -0.2131 -0.1910
52785SOL    HW163040   8.089   6.683   9.272 -0.8792 -0.4646 -0.6826
52785SOL    HW263041   8.237   6.662   9.249 -0.5927 -0.0656  0.6741
52786SOL     OW63042   9.511   1.908   8.529  0.0563  0.2323 -0.2543
52786SOL    HW163043   9.420   1.912   8.558 -0.2557 -0.9804 -0.9926
52786SOL    HW263044   9.541   1.999   8.531 -1.3795  0.7404 -0.6430
52787SOL     OW63045   4.867   7.996  11.620  0.0506  0.3661  0.3472
52787SOL    HW163046   4.916   8.071  11.653 -0.4118  0.7726  0.1129
52787SOL    HW263047   4.883   7.927  11.685  0.8561  0.5157  0.3205
52788SOL     OW63048   6.651   5.623   0.914 -0.1550  0.4808 -0.3119
52788SOL    HW163049   6.664   5.546   0.970  0.0174  0.4659 -0.3710
52788SOL    HW263050   6.715   5.686   0.945  0.2382  0.3134 -0.7765
52789SOL     OW63051   0.868   4.287   4.029 -0.5538  0.2190  0.0554
52789SOL    HW163052   0.937   4.352   4.041 -1.3425  1.0504  0.1757
52789SOL    HW263053   0.911   4.204   4.049  0.2519  0.7813  0.7602
52790SOL     OW63054   4.417   9.870   1.271 -0.0130  0.0578 -0.0885
52790SOL    HW163055   4.331   9.908   1.252 -0.0177 -0.9965 -2.6278
52790SOL    HW263056   4.473   9.901   1.199  1.7805  0.7196  1.5069
52791SOL     OW63057   2.812   4.605   9.333 -0.3357 -0.5560  0.0110
52791SOL    HW163058   2.837   4.527   9.284  1.1835  0.6599 -1.2175
52791SOL    HW263059   2.724   4.626   9.301 -0.8684 -1.8635  0.5358
52792SOL     OW63060   6.292  10.163   9.355  0.5740  0.5182  0.1915
52792SOL    HW163061   6.240  10.086   9.331  1.4549  0.0807 -0.3838
52792SOL    HW263062   6.266  10.184   9.444 -0.1424 -0.0610  0.1205
52793SOL     OW63063   4.361   0.056   5.360  0.0110 -0.5387 -0.0690
52793SOL    HW163064   4.293   0.116   5.329 -0.7518 -1.6370 -0.5701
52793SOL    HW263065   4.313  -0.020   5.392  0.9906 -1.1112  0.0625
52794SOL     OW63066   2.195   7.081   2.004  0.0898  0.3392  0.0237
52794SOL    HW163067   2.174   7.060   2.095  1.3163  0.4918  0.3672
52794SOL    HW263068   2.268   7.143   2.010  2.0697 -1.7300 -1.0372
52795SOL     OW63069   5.322   5.202   1.114  0.2353  0.1013  0.0668
52795SOL    HW163070   5.312   5.237   1.202 -1.3342  0.6527 -0.3059
52795SOL    HW263071   5.286   5.113   1.119  2.2672 -0.7710  0.4924
52796SOL     OW63072   9.036  11.738   6.941  0.2596  0.1446  0.1523
52796SOL    HW163073   8.977  11.685   6.888  2.4571 -1.0579 -1.2168
52796SOL    HW263074   9.067  11.678   7.009  0.0984  0.7118  0.7398
52797SOL     OW63075   1.426   4.922   4.085  0.3158 -0.1831 -0.1207
52797SOL    HW163076   1.388   4.841   4.118  0.8129 -0.2618  0.2629
52797SOL    HW263077   1.431   4.980   4.161  0.2705  0.0916 -0.3249
52798SOL     OW63078   0.978   1.136   6.999 -0.1936  0.0373  0.1767
52798SOL    HW163079   0.925   1.115   7.075 -0.0331 -0.3840  0.1761
52798SOL    HW263080   1.066   1.148   7.034 -0.3911  1.3466  0.2661
52799SOL     OW63081   9.016   2.563   3.386  0.4644 -0.0369  0.3562
52799SOL    HW163082   9.093   2.516   3.419  0.5174 -0.0732  0.1800
52799SOL    HW263083   8.951   2.494   3.370  0.5374 -0.0501  0.1104
52800SOL     OW63084  11.332   3.597   6.798  0.5066  0.3604 -0.5469
52800SOL    HW163085  11.344   3.669   6.736  0.9877 -0.3752 -1.3255
52800SOL    HW263086  11.288   3.637   6.873  0.8993  1.4921 -0.9035
52801SOL     OW63087   1.095  11.500  11.216  0.0856 -0.3126 -0.0415
52801SOL    HW163088   1.039  11.563  11.171  0.7850  0.0087 -0.4808
52801SOL    HW263089   1.080  11.515  11.309  0.1326  0.4035 -0.1473
52802SOL     OW63090   9.013   9.709   6.619 -1.4337 -0.0197  0.6408
52802SOL    HW163091   9.079   9.778   6.622 -1.4777  0.0952 -0.6260
52802SOL    HW263092   9.042   9.645   6.684  0.0143 -0.0517 -0.0058
52803SOL     OW63093   3.157   8.573   5.210  0.0094  0.0098  0.5287
52803SOL    HW163094   3.180   8.500   5.268  1.9872  0.8007  0.7967
52803SOL    HW263095   3.157   8.650   5.267  0.0774  0.5268 -0.1547
52804SOL     OW63096   7.247   9.947   9.748  0.2685 -0.1636  0.2085
52804SOL    HW163097   7.262   9.952   9.654  0.6503  2.3190  0.3459
52804SOL    HW263098   7.161   9.905   9.757 -0.5353  1.1017 -1.3216
52805SOL     OW63099  10.625   1.670   6.207  0.0087  0.1699  0.3339
52805SOL    HW163100  10.645   1.667   6.300 -1.9084 -0.1044  0.7929
52805SOL    HW263101  10.529   1.661   6.203  0.1102 -0.6513 -1.6899
52806SOL     OW63102   0.307   0.330   9.384 -0.2335 -0.2216  0.3420
52806SOL    HW163103   0.330   0.411   9.338  1.3059  0.3606  2.0340
52806SOL    HW263104   0.217   0.313   9.358 -0.1773  1.3184 -1.0549
52807SOL     OW63105  11.194  11.613   8.555  0.6026  0.2285 -1.1034
52807SOL    HW163106  11.230  11.685   8.607  1.0182 -1.6466  1.3694
52807SOL    HW263107  11.103  11.639   8.539  0.8614  1.4938 -0.6380
52808SOL     OW63108   1.812   7.188   3.137  0.2674 -0.1985 -0.1891
52808SOL    HW163109   1.770   7.268   3.105  0.3181 -0.1138 -0.0475
52808SOL    HW263110   1.740   7.125   3.147  0.1218  0.0411  0.3457
52809SOL     OW63111  11.488   9.219   5.551  0.0721 -0.1765 -0.3937
52809SOL    HW163112  11.557   9.189   5.492  0.2642  0.9377 -0.7671
52809SOL    HW263113  11.529   9.288   5.603  0.0378 -1.4496  1.4103
52810SOL     OW63114   9.639   6.480  10.289  0.1342 -0.1421  0.6146
52810SOL    HW163115   9.622   6.401  10.237 -1.9366  1.4754 -1.3720
52810SOL    HW263116   9.609   6.459  10.377  2.0507 -2.3739  0.8370
52811SOL     OW63117   7.398  11.845   3.407 -0.0476  0.1169  0.1983
52811SOL    HW163118   7.425  11.859   3.497  0.0545  1.3612 -0.0086
52811SOL    HW263119   7.375  11.752   3.403  0.2237 -0.0208  1.4190
52812SOL     OW63120   3.600   4.399   8.062  0.7076  0.1661  0.1566
52812SOL    HW163121   3.666   4.329   8.065  0.9955  0.4164 -0.3191
52812SOL    HW263122   3.648   4.478   8.087  0.7721  0.4829 -0.9348
52813SOL     OW63123   8.906  11.823   0.331  0.1871 -0.6154 -0.3009
52813SOL    HW163124   8.942  11.793   0.414  1.2513 -0.7164 -0.7924
52813SOL    HW263125   8.813  11.837   0.350  0.5734  0.2654  1.1576
52814SOL     OW63126   0.010   7.839  11.182  0.2939  0.0410 -0.3163
52814SOL    HW163127   0.035   7.930  11.199 -0.9092 -0.0936  2.9698
52814SOL    HW263128   0.085   7.788  11.213 -0.1675 -0.1302  0.5322
52815SOL     OW63129   9.663   6.824   0.204  0.1469  0.2746  0.8180
52815SOL    HW163130   9.757   6.830   0.218 -0.2800  0.4539  4.6977
52815SOL    HW263131   9.635   6.914   0.186  0.5672  0.4119  0.8615
52816SOL     OW63132   5.532   3.896   6.979 -0.1383 -0.1362 -0.0949
52816SOL    HW163133   5.599   3.891   6.911  0.3604 -2.0751  0.4735
52816SOL    HW263134   5.580   3.897   7.061 -0.7695 -0.5278  0.2935
52817SOL     OW63135   9.978   7.271   9.412 -0.3692 -0.5353 -0.6263
52817SOL    HW163136   9.972   7.235   9.501 -0.0537 -1.1922 -0.8651
52817SOL    HW263137  10.047   7.337   9.418 -0.2991 -0.6250 -0.3977
52818SOL     OW63138   3.542   2.437   4.283 -0.0596 -0.5775  0.0282
52818SOL    HW163139   3.506   2.442   4.195  1.0148  0.1897 -0.3840
52818SOL    HW263140   3.533   2.526   4.317  3.2118  0.1968 -0.8350
52819SOL     OW63141   6.565   5.136   8.823  0.2539 -0.1225  0.2180
52819SOL    HW163142   6.566   5.161   8.731  0.2775  2.4174  0.8416
52819SOL    HW263143   6.657   5.122   8.845  0.2744 -0.4409 -0.0674
52820SOL     OW63144   6.748   6.695  10.814  0.7252 -0.1249 -0.2288
52820SOL    HW163145   6.841   6.675  10.827  0.6238 -0.0534  0.6472
52820SOL    HW263146   6.728   6.760  10.881  0.4200  1.0457 -1.4201
52821SOL     OW63147   3.000   3.671   4.109  0.6737  0.2017  0.7255
52821SOL    HW163148   3.047   3.590   4.090  1.8974  1.4430 -2.0237
52821SOL    HW263149   2.913   3.658   4.071  0.7509  0.0523  0.6006
52822SOL     OW63150   7.474   4.492  11.902 -0.0589  0.1688 -0.4427
52822SOL    HW163151   7.492   4.399  11.894  0.3853  0.0824  1.1017
52822SOL    HW263152   7.432   4.516  11.820 -0.9170 -1.5646 -0.5636
52823SOL     OW63153   9.450  10.329   4.488 -0.3740  0.0764  0.3275
52823SOL    HW163154   9.411  10.365   4.408 -1.0803 -1.1340  0.0997
52823SOL    HW263155   9.502  10.401   4.524  1.2674  0.1720 -2.0525
52824SOL     OW63156   4.051   2.618   2.386 -0.6477  0.2297  0.1337
52824SOL    HW163157   4.139   2.600   2.418  0.2463 -0.5359 -2.4974
52824SOL    HW263158   4.064   2.667   2.305 -2.5698 -1.0470 -1.0398
52825SOL     OW63159   2.873   3.423   4.699  0.4725 -0.2174 -0.1632
52825SOL    HW163160   2.804   3.381   4.649  0.0230  1.9403 -1.4979
52825SOL    HW263161   2.875   3.513   4.666  2.4564  0.3775  1.3731
52826SOL     OW63162   9.753   0.376   6.341  0.0805  0.3478  0.1253
52826SOL    HW163163   9.771   0.282   6.351 -2.2811 -0.2716 -0.8008
52826SOL    HW263164   9.782   0.414   6.424 -0.1071 -1.4159  1.0647
52827SOL     OW63165   9.585   2.128   0.459  0.0866  0.4000  0.0117
52827SOL    HW163166   9.677   2.118   0.432  0.5182  2.4834  0.5300
52827SOL    HW263167   9.535   2.098   0.383  1.1038 -2.0971  0.1952
52828SOL     OW63168  10.961   4.707   9.601 -0.3031 -0.5196 -0.1042
52828SOL    HW163169  10.891   4.692   9.665  0.8623 -0.0594  1.3353
52828SOL    HW263170  11.029   4.643   9.624 -0.0251 -0.6303 -1.1679
52829SOL     OW63171  11.642   5.090   3.709 -0.5828  0.0790 -0.3448
52829SOL    HW163172  11.619   4.998   3.713 -0.9031  0.1483 -0.5940
52829SOL    HW263173  11.690   5.100   3.626  1.9363 -0.4159  0.9504
52830SOL     OW63174   5.841   3.090   8.632 -0.1251 -0.4008  0.6372
52830SOL    HW163175   5.763   3.043   8.601 -0.5199 -0.1647  1.2426
52830SOL    HW263176   5.913   3.052   8.583 -0.9064  1.1554 -1.8896
52831SOL     OW63177   8.494   7.980   1.025 -0.1542 -0.0114  0.4586
52831SOL    HW163178   8.474   7.904   0.970 -0.0856  2.5641 -3.5075
52831SOL    HW263179   8.582   7.963   1.058  0.0647 -1.4447 -0.7704
52832SOL     OW63180   4.055   4.632   4.668 -0.2461  0.2582 -0.1500
52832SOL    HW163181   4.068   4.629   4.573  0.2953  0.1280 -0.0744
52832SOL    HW263182   4.144   4.634   4.704 -0.4262 -0.7294  0.3918
52833SOL     OW63183   4.204   6.273   0.627 -0.2252 -0.9930  0.3808
52833SOL    HW163184   4.163   6.357   0.647 -0.3800 -0.5291 -1.6412
52833SOL    HW263185   4.288   6.276   0.673 -0.0268  0.4983 -0.0255
52834SOL     OW63186   3.994   3.333   2.021 -0.9349  0.3843  0.1141
52834SOL    HW163187   4.042   3.261   2.063 -0.0858  2.0418  2.1470
52834SOL    HW263188   4.001   3.315   1.927 -1.6775 -2.7354  0.5368
52835SOL     OW63189   3.354   1.719   5.045 -0.1236 -0.1572  0.2926
52835SOL    HW163190   3.409   1.670   4.983  1.6870  1.5630  0.4333
52835SOL    HW263191   3.311   1.785   4.991 -0.4514 -0.1839  0.5176
52836SOL     OW63192   6.419   1.538   7.019  0.1669 -0.4434  0.1994
52836SOL    HW163193   6.504   1.517   7.058 -0.0557 -2.6149 -0.3548
52836SOL    HW263194   6.405   1.470   6.954 -2.6521 -1.0118  1.2502
52837SOL     OW63195   2.646   9.203  10.671 -0.0262 -0.1468  0.2084
52837SOL    HW163196   2.589   9.261  10.721  0.3310 -0.0191  0.4765
52837SOL    HW263197   2.596   9.122  10.661 -0.9289  0.5280 -1.0193
52838SOL     OW63198   9.429   2.008   3.897 -0.2956  0.1696  0.2795
52838SOL    HW163199   9.420   2.102   3.882  0.2240  0.0796 -0.6906
52838SOL    HW263200   9.509   1.983   3.849 -1.4547 -1.0950 -1.1108
52839SOL     OW63201   2.381   0.332   8.814 -0.5633  0.5204  0.0913
52839SOL    HW163202   2.433   0.370   8.743  0.0494  0.1789  0.3455
52839SOL    HW263203   2.290   0.339   8.784 -0.4282  1.7442 -0.0633
52840SOL     OW63204  10.881   5.944   6.242 -0.0253 -0.2773  0.2827
52840SOL    HW163205  10.923   5.894   6.172  1.7540  0.3105  0.8953
52840SOL    HW263206  10.855   5.878   6.306  0.3000 -0.6178  0.0672
52841SOL     OW63207   5.367   7.436   1.316 -0.2289 -0.0057  0.2531
52841SOL    HW163208   5.400   7.430   1.227 -0.9402  1.5746 -0.1427
52841SOL    HW263209   5.284   7.388   1.315 -0.7552  0.8926 -0.2188
52842SOL     OW63210   8.896   3.295   3.188 -0.4737 -0.2854  0.1597
52842SOL    HW163211   8.944   3.291   3.272 -0.7889 -1.8451  0.2935
52842SOL    HW263212   8.804   3.297   3.213 -0.5438  1.8959 -0.1214
52843SOL     OW63213   7.721  11.870   1.804  0.3311 -0.1197  0.3384
52843SOL    HW163214   7.722  11.960   1.772  1.0931 -1.0312 -2.4891
52843SOL    HW263215   7.639  11.863   1.853  0.8399  2.3967  1.7198
52844SOL     OW63216   7.509   2.255   8.144  0.5381 -0.5902 -0.8560
52844SOL    HW163217   7.547   2.317   8.206  1.3106 -1.3437 -0.5628
52844SOL    HW263218   7.431   2.299   8.111  0.9712  0.4634 -0.5166
52845SOL     OW63219   5.838   5.542   1.301 -0.5397 -0.5805  0.3257
52845SOL    HW163220   5.930   5.530   1.277 -0.3473  1.6676 -0.3099
52845SOL    HW263221   5.822   5.477   1.369  1.0910 -1.9952 -0.5723
52846SOL     OW63222   0.324   8.537   9.287  0.0206  0.3126 -0.5741
52846SOL    HW163223   0.331   8.456   9.337 -0.4034 -0.3484 -1.5593
52846SOL    HW263224   0.280   8.598   9.346  1.6537  0.3076  0.7134
52847SOL     OW63225   0.502   3.160   5.456  0.0063 -0.4938 -0.4697
52847SOL    HW163226   0.473   3.249   5.474 -0.3173 -0.9456  1.4404
52847SOL    HW263227   0.565   3.169   5.384 -1.0280  1.0945 -1.2311
52848SOL     OW63228  11.067  10.965  11.455  0.5026  0.0097 -0.2531
52848SOL    HW163229  11.024  10.879  11.459 -1.4815  0.9015 -0.8975
52848SOL    HW263230  11.009  11.022  11.504 -0.2763  1.7341 -2.9659
52849SOL     OW63231   7.764   0.067  11.257 -0.5674 -0.7643  0.2682
52849SOL    HW163232   7.708   0.004  11.300 -0.1539 -0.7508  0.8365
52849SOL    HW263233   7.824   0.097  11.325 -1.5825  1.2265  0.3819
52850SOL     OW63234   4.486   2.646   7.729  0.6383  0.2222 -0.6662
52850SOL    HW163235   4.391   2.643   7.717  0.2579  2.6608  0.9716
52850SOL    HW263236   4.511   2.555   7.747 -1.4205 -0.4286 -0.8721
52851SOL     OW63237   7.419   8.725   7.492  0.0076 -0.6153  0.6052
52851SOL    HW163238   7.475   8.758   7.562  2.3648  2.1969 -2.2498
52851SOL    HW263239   7.330   8.729   7.527  1.0137  0.8965  3.2938
52852SOL     OW63240   3.492   4.632  10.178  0.1660 -0.1560 -0.3175
52852SOL    HW163241   3.511   4.595  10.264  0.0021 -0.3931 -0.3826
52852SOL    HW263242   3.574   4.674  10.151  0.7221 -1.4654 -0.7512
52853SOL     OW63243  11.101   1.772   3.047  0.2027 -0.0080  0.0727
52853SOL    HW163244  11.059   1.716   3.113 -0.3845 -0.8846 -1.0047
52853SOL    HW263245  11.053   1.855   3.051 -0.4515 -0.3827  0.1062
52854SOL     OW63246   2.841   5.736  11.150 -0.3665  0.6827 -0.3816
52854SOL    HW163247   2.799   5.694  11.224  0.9262  1.0454  0.5930
52854SOL    HW263248   2.886   5.664  11.104  0.3568  0.7181  0.2554
52855SOL     OW63249   4.794   7.638   1.012 -0.3995  0.4502  0.2818
52855SOL    HW163250   4.845   7.589   0.948 -0.8596  0.6630 -0.2469
52855SOL    HW263251   4.723   7.678   0.962 -0.1056  1.5581  0.7260
52856SOL     OW63252   2.803  11.637   0.422  0.0191  0.2769 -0.0475
52856SOL    HW163253   2.713  11.631   0.390  0.1680 -0.6698 -0.3342
52856SOL    HW263254   2.847  11.560   0.385  0.4281 -0.4079  1.7115
52857SOL     OW63255   6.710   2.015   4.620 -0.4923  0.0730  0.3118
52857SOL    HW163256   6.693   2.031   4.527  1.8020 -1.1760 -0.4176
52857SOL    HW263257   6.791   2.062   4.638  0.1274 -1.2632  1.1462
52858SOL     OW63258   0.378  11.207   3.651 -0.2297  0.7781 -0.1705
52858SOL    HW163259   0.468  11.185   3.673  0.2683  1.0896 -1.7449
52858SOL    HW263260   0.325  11.165   3.719  1.0344 -0.1733  0.2598
52859SOL     OW63261   3.538   6.664  10.012 -0.7354 -0.5079 -0.3717
52859SOL    HW163262   3.519   6.577   9.978 -1.3821 -0.1788 -0.8710
52859SOL    HW263263   3.549   6.719   9.935 -0.7431 -0.0634 -0.0619
52860SOL     OW63264   7.769   3.852   9.148 -0.1539 -0.3151  0.5109
52860SOL    HW163265   7.793   3.769   9.106  0.7419 -0.6843  1.6764
52860SOL    HW263266   7.756   3.828   9.240  0.4747  0.8934  0.9297
52861SOL     OW63267   1.100   1.191   8.750 -0.6192  0.0463 -0.9593
52861SOL    HW163268   1.150   1.270   8.733 -0.2294 -0.2756 -1.3432
52861SOL    HW263269   1.079   1.195   8.843  1.5195 -0.5862 -0.4014
52862SOL     OW63270   3.371   1.818   0.389  0.1978  0.4456  0.2560
52862SOL    HW163271   3.324   1.876   0.449 -0.5056 -0.5620  0.6917
52862SOL    HW263272   3.435   1.773   0.444  0.8515  0.9089 -0.1097
52863SOL     OW63273   9.181  11.190   1.973  0.3277  0.5010 -0.2457
52863SOL    HW163274   9.260  11.160   1.928 -0.2590  2.1939 -2.5860
52863SOL    HW263275   9.201  11.177   2.066  3.2743  0.6529 -0.7449
52864SOL     OW63276   5.012   1.706   3.035 -0.1156  0.0896 -0.1255
52864SOL    HW163277   4.937   1.648   3.048 -0.4145  0.1381 -1.4634
52864SOL    HW263278   4.984   1.765   2.965  1.6296 -0.7303 -1.5951
52865SOL     OW63279  10.039   3.793   3.141 -0.1181  0.0304  0.2524
52865SOL    HW163280  10.080   3.878   3.150  0.7730 -0.4156  0.5211
52865SOL    HW263281  10.087   3.736   3.202  0.0838 -0.9316 -0.7616
52866SOL     OW63282   9.865  11.583   7.199 -0.1841  0.0012  0.6788
52866SOL    HW163283   9.939  11.560   7.255 -0.1534  0.2519  0.7438
52866SOL    HW263284   9.794  11.605   7.259  0.0262  0.8428  0.6293
52867SOL     OW63285   0.655   8.720   5.914  0.0567 -0.1758  0.1178
52867SOL    HW163286   0.630   8.812   5.926 -1.9794 -0.6062 -0.4498
52867SOL    HW263287   0.663   8.709   5.819 -1.5085 -0.9823  0.0497
52868SOL     OW63288   1.398   1.432   0.184  0.2169 -0.0781 -0.0331
52868SOL    HW163289   1.493   1.444   0.180  0.2321 -0.1900 -0.0134
52868SOL    HW263290   1.372   1.478   0.264 -0.0297  1.7549 -1.1093
52869SOL     OW63291   2.182   0.531  10.229  0.4819  0.6993 -0.4754
52869SOL    HW163292   2.274   0.508  10.241  0.1936 -0.4917 -0.4994
52869SOL    HW263293   2.134   0.470  10.285 -0.2553  1.8960  0.2418
52870SOL     OW63294  11.426   5.869   5.267 -0.4297 -0.2954  0.1835
52870SOL    HW163295  11.422   5.793   5.325 -0.3898 -0.0363  0.5305
52870SOL    HW263296  11.519   5.885   5.254 -0.4282  0.0643  0.6083
52871SOL     OW63297   8.220  10.896   2.565  0.3119  0.0300  0.4717
52871SOL    HW163298   8.181  10.850   2.639  1.2674  0.8613  1.5116
52871SOL    HW263299   8.203  10.989   2.582 -0.7914  0.1734 -1.1481
52872SOL     OW63300   0.967   8.917  10.635  0.3494 -0.5916 -0.8560
52872SOL    HW163301   0.934   9.007  10.629 -1.3759 -1.1721 -0.5328
52872SOL    HW263302   1.061   8.926  10.620  0.2989  1.3233 -0.3761
52873SOL     OW63303   7.929  10.847   1.989  0.3651 -0.3552  0.4997
52873SOL    HW163304   7.959  10.905   1.918  0.2626 -2.4292 -1.3596
52873SOL    HW263305   7.844  10.882   2.015 -0.1468 -0.1862 -1.2628
52874SOL     OW63306   8.713   3.332  10.117  0.5397 -0.0691 -0.1023
52874SOL    HW163307   8.734   3.407  10.172  0.1813 -0.5242  0.6821
52874SOL    HW263308   8.797   3.305  10.080  0.6862  0.6447 -0.3026
52875SOL     OW63309   8.556  10.125   8.752  0.5407 -0.2362 -0.3718
52875SOL    HW163310   8.615  10.091   8.820  1.1029 -1.1969 -1.3138
52875SOL    HW263311   8.478  10.154   8.801  0.2933 -2.2911  0.5707
52876SOL     OW63312   2.489   9.885   9.227 -0.3333  0.1698 -0.2364
52876SOL    HW163313   2.450   9.837   9.155  0.1042 -0.2682 -0.1800
52876SOL    HW263314   2.582   9.866   9.222 -0.4575 -1.0854  1.3347
52877SOL     OW63315  10.199   7.225   0.534 -0.3505  0.0863  0.1745
52877SOL    HW163316  10.250   7.255   0.609  0.0507 -0.6748  0.2133
52877SOL    HW263317  10.228   7.282   0.462 -1.4304  1.4609  0.7775
52878SOL     OW63318   0.618   7.285  10.593 -0.1099 -0.2297 -0.2560
52878SOL    HW163319   0.586   7.203  10.630  1.4139  0.2674  2.4178
52878SOL    HW263320   0.713   7.280  10.602  0.0114  1.8881  0.1330
52879SOL     OW63321   6.169   3.510   9.122 -0.0664 -0.0227  0.3719
52879SOL    HW163322   6.254   3.495   9.080 -0.4291  2.1406 -1.3286
52879SOL    HW263323   6.180   3.590   9.173 -0.2592 -1.4568  2.8051
52880SOL     OW63324  10.685   0.403   6.545  0.2360 -0.3856 -0.6526
52880SOL    HW163325  10.722   0.350   6.474  1.4818  1.1739 -1.2365
52880SOL    HW263326  10.761   0.426   6.599 -0.2771  0.6773 -0.3597
52881SOL     OW63327  10.315   7.047   5.154  0.8610 -0.5545 -0.2114
52881SOL    HW163328  10.241   6.988   5.167  1.4998 -1.3473 -0.0939
52881SOL    HW263329  10.355   7.020   5.071 -0.6182  1.6969 -1.7729
52882SOL     OW63330   5.154   9.946   1.990  0.5210  0.4683 -0.3115
52882SOL    HW163331   5.115  10.034   1.993 -0.1110  0.1680  0.5828
52882SOL    HW263332   5.245   9.959   2.016  0.9700  1.1245 -2.0573
52883SOL     OW63333   0.168   8.713   8.576  0.4592 -0.6445 -0.8244
52883SOL    HW163334   0.249   8.756   8.549  0.7795 -0.9926 -0.4374
52883SOL    HW263335   0.122   8.694   8.495  1.8776 -2.6162 -1.2318
52884SOL     OW63336   2.478   4.601   6.689 -0.4106 -0.2540 -0.3539
52884SOL    HW163337   2.536   4.677   6.695  1.2110 -1.4699  0.2159
52884SOL    HW263338   2.415   4.624   6.621 -1.5295  2.5590  1.4590
52885SOL     OW63339   8.421   2.462   9.116 -0.1110  0.3463  0.2295
52885SOL    HW163340   8.341   2.446   9.066  0.1596 -1.4701  0.2852
52885SOL    HW263341   8.391   2.496   9.200 -0.7178  1.0915 -0.2793
52886SOL     OW63342  11.859   2.052   1.046 -0.1150 -0.3119 -0.3697
52886SOL    HW163343  11.940   2.023   1.088 -0.6795  0.1564  1.1298
52886SOL    HW263344  11.809   1.972   1.033  0.1027 -0.4770 -0.2024
52887SOL     OW63345  10.150   4.989  11.371 -0.2218  0.7743 -0.0491
52887SOL    HW163346  10.220   4.930  11.343 -0.9655 -0.6327  0.9336
52887SOL    HW263347  10.127   5.038  11.292  0.6716  0.0118 -0.8131
52888SOL     OW63348   1.541   6.118   8.470 -0.3554 -0.0088 -0.4447
52888SOL    HW163349   1.537   6.213   8.485  0.2391 -0.2791  1.7341
52888SOL    HW263350   1.628   6.104   8.432 -0.0005  0.2359  0.2438
52889SOL     OW63351   3.329   0.947  11.603 -0.5819  0.1698  0.5100
52889SOL    HW163352   3.250   1.000  11.594 -1.3106 -1.1568 -1.3619
52889SOL    HW263353   3.354   0.925  11.514  1.5450 -0.0065  1.0939
52890SOL     OW63354   6.785  11.310   8.021  0.1801 -0.2015  0.2116
52890SOL    HW163355   6.707  11.332   7.969  0.2164  0.2715  0.3559
52890SOL    HW263356   6.796  11.216   8.009  1.4484  0.1907 -2.4261
52891SOL     OW63357   1.557   8.642  11.638 -0.2918  0.1286  0.0225
52891SOL    HW163358   1.514   8.723  11.611 -0.2047  0.0411 -0.3755
52891SOL    HW263359   1.647   8.667  11.659 -0.7663  0.4999  1.8125
52892SOL     OW63360   2.938   5.749   5.042 -0.1883  0.0859  0.7482
52892SOL    HW163361   3.009   5.767   4.982 -0.0489  0.6595  1.0748
52892SOL    HW263362   2.932   5.827   5.097 -2.8327  1.2611 -0.9995
52893SOL     OW63363   5.760   2.271   0.320  0.1118  0.0519  0.3238
52893SOL    HW163364   5.730   2.202   0.379 -0.4780 -1.1252 -1.3034
52893SOL    HW263365   5.717   2.350   0.352 -1.2655 -0.8040  0.6584
52894SOL     OW63366   0.229   4.724   8.794  0.2268  0.6964 -0.6440
52894SOL    HW163367   0.156   4.676   8.832  1.2804  1.7957  3.2067
52894SOL    HW263368   0.271   4.661   8.735 -0.7597 -1.7309  1.0728
52895SOL     OW63369   3.025   4.409   8.051  0.2375 -0.3334  0.5780
52895SOL    HW163370   3.043   4.322   8.015 -1.0256 -1.3259  2.1803
52895SOL    HW263371   3.095   4.424   8.114  1.5120  0.6793 -1.0080
52896SOL     OW63372  11.959   5.479   8.351  0.3243 -0.2591  0.0127
52896SOL    HW163373  11.924   5.542   8.414  1.4401 -0.1399  0.5353
52896SOL    HW263374  11.969   5.398   8.402  0.4108 -0.4073 -0.2378
52897SOL     OW63375   8.224   9.007  10.658 -0.7136 -0.2011 -0.1472
52897SOL    HW163376   8.221   9.017  10.754 -1.0932  0.6754 -0.2451
52897SOL    HW263377   8.141   8.966  10.636 -0.7335 -0.1724 -0.1255
52898SOL     OW63378   3.500   4.365   9.008 -0.4070 -0.1803  0.0652
52898SOL    HW163379   3.585   4.331   8.980 -1.2642 -1.9521 -0.5684
52898SOL    HW263380   3.443   4.350   8.933 -1.3225  0.8153  0.5472
52899SOL     OW63381   5.040  11.642   8.153 -0.5764 -0.1289 -0.6919
52899SOL    HW163382   5.074  11.731   8.160 -0.6814 -0.1858  0.8187
52899SOL    HW263383   4.989  11.629   8.233 -0.3126 -1.6494 -0.7399
52900SOL     OW63384   3.487   0.032  11.399  0.3582  0.2652 -0.1482
52900SOL    HW163385   3.513   0.071  11.316 -0.1285  0.1236 -0.3728
52900SOL    HW263386   3.392   0.019  11.391  0.5155 -1.0200 -0.0995
52901SOL     OW63387   7.488   6.902   1.785  0.3936  0.0890 -0.0010
52901SOL    HW163388   7.449   6.870   1.866 -0.9646  0.5362 -0.4480
52901SOL    HW263389   7.458   6.993   1.778  0.6535  0.1138 -0.9139
52902SOL     OW63390  11.245   7.160   4.382  0.4548 -0.0571 -0.0463
52902SOL    HW163391  11.340   7.161   4.393  0.4353 -0.2211  0.1355
52902SOL    HW263392  11.228   7.224   4.313  0.7400 -0.3397 -0.3814
52903SOL     OW63393  10.091   6.202   4.659 -0.2777  0.1503 -0.2378
52903SOL    HW163394  10.035   6.225   4.586 -1.5702 -0.5569  0.5033
52903SOL    HW263395  10.168   6.258   4.649  0.4037 -1.0909 -3.0893
52904SOL     OW63396   9.412   7.864   2.296  0.2552 -0.3771  0.1781
52904SOL    HW163397   9.464   7.868   2.217  0.2708  2.4282  0.2517
52904SOL    HW263398   9.324   7.840   2.266  0.0939  1.3529 -0.8162
52905SOL     OW63399   0.132   2.410   8.291  0.5885 -0.2061 -0.6086
52905SOL    HW163400   0.164   2.498   8.311 -1.0026  0.5462 -1.1847
52905SOL    HW263401   0.058   2.397   8.350  1.4183 -1.6004  0.1812
52906SOL     OW63402   1.878   3.693   2.093 -0.2043 -0.7692  0.0659
52906SOL    HW163403   1.833   3.776   2.109 -2.8402 -1.1891 -3.8437
52906SOL    HW263404   1.951   3.717   2.036  0.6551 -0.8897  1.0860
52907SOL     OW63405   0.006  11.357   1.345  0.1801 -0.1785 -0.5856
52907SOL    HW163406  -0.006  11.410   1.266  0.5063 -0.3029 -0.7228
52907SOL    HW263407  -0.073  11.304   1.351 -0.1773  0.3715 -0.4113
52908SOL     OW63408   8.435  11.871   4.262 -0.3714 -0.5091  0.1552
52908SOL    HW163409   8.477  11.796   4.220 -0.2497 -0.4629  0.1960
52908SOL    HW263410   8.497  11.900   4.328  0.0593  0.2937 -0.5786
52909SOL     OW63411   8.007   3.926   0.401  0.1452 -0.1189  0.5449
52909SOL    HW163412   8.015   3.948   0.309 -1.0778 -1.6919  0.0163
52909SOL    HW263413   7.933   3.978   0.432 -1.5428 -1.9286 -0.2320
52910SOL     OW63414  11.721   9.213   8.950  0.0608  0.0707 -0.1134
52910SOL    HW163415  11.797   9.269   8.963 -0.7243  1.8252 -2.3749
52910SOL    HW263416  11.646   9.272   8.953 -0.9917 -1.1730 -0.6755
52911SOL     OW63417  11.151   7.744  10.676 -0.4054 -0.3168 -0.3242
52911SOL    HW163418  11.198   7.743  10.760 -0.2387  0.2082 -0.4049
52911SOL    HW263419  11.204   7.800  10.620 -0.7438 -0.3147 -0.6469
52912SOL     OW63420   9.416   0.075   7.616  0.9225 -0.3156  0.4558
52912SOL    HW163421   9.455   0.077   7.528  0.0945 -0.9029  0.0619
52912SOL    HW263422   9.429  -0.015   7.646 -1.3648 -0.9761 -0.2910
52913SOL     OW63423  11.109   4.466   9.397 -0.1466 -0.1970 -0.4130
52913SOL    HW163424  11.069   4.427   9.475 -1.5996  0.6088 -0.7137
52913SOL    HW263425  11.151   4.393   9.352  1.5125 -0.5499  1.5435
52914SOL     OW63426   2.302  10.008   9.542 -0.0823 -0.2059  0.2531
52914SOL    HW163427   2.367  10.055   9.490 -0.0181  0.4843  0.9364
52914SOL    HW263428   2.353   9.943   9.591  0.0579  0.1325  0.5616
52915SOL     OW63429   3.415   8.002   3.292  0.2459 -0.1522  0.4026
52915SOL    HW163430   3.337   7.989   3.345  0.6397 -2.1764  0.5757
52915SOL    HW263431   3.417   7.927   3.234  1.4967  0.4225 -0.3320
52916SOL     OW63432   2.911   3.956   5.769  0.4153  0.4733  0.2444
52916SOL    HW163433   2.886   3.878   5.818  0.3361  0.5875  0.3849
52916SOL    HW263434   2.831   3.981   5.722  0.4497  0.4511  0.1736
52917SOL     OW63435   5.873   3.444   3.539 -0.2409  0.0908 -0.0815
52917SOL    HW163436   5.786   3.472   3.569  0.2738  0.9810  0.5955
52917SOL    HW263437   5.927   3.443   3.617  0.3885 -0.4170 -0.5095
52918SOL     OW63438   3.047  10.378   4.185  0.0671 -0.0881  0.1199
52918SOL    HW163439   2.963  10.338   4.167 -0.5822  1.3964 -0.3246
52918SOL    HW263440   3.078  10.409   4.099  0.7141  0.0322  0.3865
52919SOL     OW63441  11.410  10.142   5.345 -0.2028  0.1631  0.6381
52919SOL    HW163442  11.409  10.161   5.439  2.0500  0.6015  0.6191
52919SOL    HW263443  11.460  10.214   5.306 -0.6099 -0.3080 -0.8339
52920SOL     OW63444   5.607   6.820   5.402 -0.2750  0.5215 -0.1991
52920SOL    HW163445   5.591   6.738   5.448 -0.6448  0.2999 -0.7131
52920SOL    HW263446   5.547   6.883   5.444  0.1155  0.5678  0.2938
52921SOL     OW63447   4.271   8.153   6.385 -0.3009  0.4112  0.3024
52921SOL    HW163448   4.337   8.156   6.315 -0.8535  0.1365 -0.2363
52921SOL    HW263449   4.256   8.059   6.400 -1.6152  0.4589 -0.5821
52922SOL     OW63450  11.900   3.595   9.950 -0.0740 -0.2814  0.0661
52922SOL    HW163451  11.915   3.560  10.037 -2.4964 -1.9382 -0.0891
52922SOL    HW263452  11.974   3.564   9.898  0.2392 -1.2034  1.0341
52923SOL     OW63453   8.671   8.641   4.413 -0.0071 -0.1031 -0.3843
52923SOL    HW163454   8.723   8.562   4.427 -2.3592 -1.4104  1.8876
52923SOL    HW263455   8.638   8.632   4.323 -0.6136 -2.0094 -0.0199
52924SOL     OW63456   6.855   6.375   7.167  0.4019  0.3755  0.5642
52924SOL    HW163457   6.847   6.327   7.084  1.4481 -2.2028  1.8410
52924SOL    HW263458   6.943   6.354   7.199 -0.0786  1.0426  2.4608
52925SOL     OW63459  10.172  10.259   1.050  0.0283  0.3860 -0.1048
52925SOL    HW163460  10.112  10.236   0.979 -1.3662  0.1058  1.1209
52925SOL    HW263461  10.257  10.226   1.020 -1.0673 -2.6024 -0.3340
52926SOL     OW63462   6.607   2.933   7.012  0.2909 -0.3926 -0.2662
52926SOL    HW163463   6.672   2.892   6.955  0.7398  0.3878 -0.3331
52926SOL    HW263464   6.523   2.916   6.970  0.7114  1.4114 -1.9818
52927SOL     OW63465   0.566   1.825   9.021  0.3338 -0.3726  0.1695
52927SOL    HW163466   0.566   1.791   8.932  2.6489  1.3009 -0.5675
52927SOL    HW263467   0.605   1.755   9.074  0.4484 -0.7545 -0.4166
52928SOL     OW63468   8.492   9.544   8.765  0.2363  0.1434 -0.2729
52928SOL    HW163469   8.424   9.518   8.828  1.0937 -1.7201 -0.0414
52928SOL    HW263470   8.561   9.478   8.776  2.7292  2.6504  0.4417
52929SOL     OW63471  11.683   4.920  11.865 -0.1704  0.1797  0.1942
52929SOL    HW163472  11.657   4.873  11.944 -2.0251 -1.2430 -1.1731
52929SOL    HW263473  11.613   4.985  11.852 -0.2218 -0.0267 -0.6083
52930SOL     OW63474   2.863   9.285   7.949  0.4775 -0.0608 -0.2997
52930SOL    HW163475   2.784   9.232   7.957  0.8931 -0.5389  0.8747
52930SOL    HW263476   2.935   9.223   7.961  0.9805  0.7235  0.9176
52931SOL     OW63477   5.983  10.881   6.129 -0.0640  0.3442 -0.2211
52931SOL    HW163478   6.055  10.939   6.100  0.9478 -0.2575  0.9941
52931SOL    HW263479   6.015  10.793   6.110  0.9207 -0.1303  3.1225
52932SOL     OW63480   0.099   5.847   5.970 -0.1308 -0.4980 -0.1575
52932SOL    HW163481   0.095   5.752   5.963 -0.2052 -0.4999 -0.0919
52932SOL    HW263482   0.165   5.863   6.038 -1.0650 -0.5356  0.7892
52933SOL     OW63483   7.303   3.044   8.620 -0.1684  0.0020 -0.2272
52933SOL    HW163484   7.311   3.137   8.639  1.6672 -0.0257 -0.6898
52933SOL    HW263485   7.269   3.040   8.531 -2.1699  0.1735  0.4767
52934SOL     OW63486   2.464   8.740   6.358 -0.3198  0.3779 -0.0502
52934SOL    HW163487   2.497   8.819   6.314  2.0688 -0.7929 -0.5570
52934SOL    HW263488   2.488   8.752   6.450 -0.8875  0.6660  0.0665
52935SOL     OW63489  11.595  11.062   0.855  0.5010  0.2447  0.0953
52935SOL    HW163490  11.520  11.006   0.872  0.5561  0.2787  0.4553
52935SOL    HW263491  11.645  11.016   0.788 -0.1051  0.4654 -0.5201
52936SOL     OW63492   2.345   6.358   1.655 -0.4855 -0.1482 -0.2317
52936SOL    HW163493   2.350   6.445   1.696 -1.3140 -0.8222  1.3868
52936SOL    HW263494   2.251   6.340   1.649 -0.3080 -1.8132  1.4333
52937SOL     OW63495   4.229   9.588   6.664 -0.0063  0.4010 -0.2163
52937SOL    HW163496   4.188   9.577   6.750 -1.0987 -0.4020 -0.8167
52937SOL    HW263497   4.180   9.528   6.607  2.6754 -1.4483 -0.7568
52938SOL     OW63498  11.360   7.180   9.639 -0.1465 -0.0579 -0.0722
52938SOL    HW163499  11.415   7.122   9.692  0.6235  0.0187 -0.7679
52938SOL    HW263500  11.302   7.121   9.591  1.3769 -0.3821 -1.6262
52939SOL     OW63501   2.105   8.004  11.846 -0.0577 -0.7689 -0.2086
52939SOL    HW163502   2.122   8.084  11.896  0.7936 -0.2325 -1.3063
52939SOL    HW263503   2.089   8.034  11.757  1.0015 -1.8479 -0.7982
52940SOL     OW63504   7.853   8.126   9.827  0.2657  0.3282  0.1319
52940SOL    HW163505   7.908   8.127   9.905 -1.3829 -4.0082  1.6359
52940SOL    HW263506   7.766   8.151   9.858 -0.3061 -0.9789 -0.3352
52941SOL     OW63507   6.099   0.180   2.842  0.2313  0.0332  0.1202
52941SOL    HW163508   6.183   0.222   2.864  0.4955  0.3432 -1.3556
52941SOL    HW263509   6.033   0.237   2.880  0.6109  1.4969 -1.2554
52942SOL     OW63510   5.429   7.643   0.351 -0.3394 -0.3267  0.1573
52942SOL    HW163511   5.501   7.645   0.414 -0.0883 -1.8332 -0.0368
52942SOL    HW263512   5.461   7.585   0.281 -0.4544  1.5762 -1.5681
52943SOL     OW63513   4.265   3.737   1.307 -0.3255  0.1287 -0.1138
52943SOL    HW163514   4.264   3.795   1.383  0.1248 -0.0102  0.0035
52943SOL    HW263515   4.200   3.669   1.328 -0.2880  0.1566  0.0993
52944SOL     OW63516   1.423   8.315   1.149 -0.1754 -0.8378  0.5003
52944SOL    HW163517   1.356   8.296   1.083 -1.7720 -0.1651  1.8699
52944SOL    HW263518   1.463   8.397   1.120  0.2529 -1.3666 -0.4528
52945SOL     OW63519   8.410   5.910   6.103  0.1208 -0.0382  0.2185
52945SOL    HW163520   8.381   5.931   6.014 -0.4399 -2.1079 -0.1435
52945SOL    HW263521   8.470   5.837   6.092  0.0824 -0.2956  1.5355
52946SOL     OW63522   9.398   1.561  10.793  0.1395  0.1288 -0.2253
52946SOL    HW163523   9.387   1.624  10.722  0.1568 -0.5687 -0.8695
52946SOL    HW263524   9.319   1.508  10.791 -0.7573  1.3224  1.5759
52947SOL     OW63525   6.738  11.753   6.393  0.2634 -0.0564  0.2483
52947SOL    HW163526   6.715  11.839   6.357  0.2302 -0.0080  0.3836
52947SOL    HW263527   6.690  11.748   6.475  1.4133  0.4249  0.9859
52948SOL     OW63528   2.149  10.595   6.164  0.8540  0.7215  0.0073
52948SOL    HW163529   2.096  10.637   6.096 -2.3872 -0.7656  1.4387
52948SOL    HW263530   2.235  10.638   6.157 -0.2703  2.8106 -2.8935
52949SOL     OW63531   0.961   1.728   8.948  0.0038  0.0837  0.0710
52949SOL    HW163532   0.898   1.657   8.960 -0.5741  0.7381  0.9914
52949SOL    HW263533   1.043   1.683   8.926 -0.3138 -0.8730  0.7875
52950SOL     OW63534   4.971   5.842   1.352 -0.2358  0.2822 -0.5233
52950SOL    HW163535   5.038   5.773   1.350 -0.6180 -0.0740 -1.3447
52950SOL    HW263536   5.002   5.903   1.419 -2.0057 -2.7917  3.5361
52951SOL     OW63537   6.497   4.749  10.395  0.0518 -0.0915 -0.2498
52951SOL    HW163538   6.441   4.809  10.444  0.6446 -1.0235  1.6509
52951SOL    HW263539   6.457   4.663  10.407 -0.2756 -0.2708 -2.1870
52952SOL     OW63540   2.701   4.780   6.729 -0.4623 -0.1789 -0.3035
52952SOL    HW163541   2.793   4.767   6.754 -0.3911 -0.5930 -0.7547
52952SOL    HW263542   2.691   4.875   6.722 -0.5741 -0.0125  1.5738
52953SOL     OW63543   3.913   3.150   7.895  0.2525 -0.2007  0.6531
52953SOL    HW163544   3.985   3.171   7.954  0.6323  0.6924 -0.0982
52953SOL    HW263545   3.944   3.176   7.809 -1.1998  0.7946  0.3949
52954SOL     OW63546   7.209   1.445  10.607  0.3011 -0.4057 -0.1786
52954SOL    HW163547   7.171   1.504  10.542  0.7694  0.7439  0.5596
52954SOL    HW263548   7.163   1.362  10.595  0.5654 -0.3031 -2.1491
52955SOL     OW63549   9.970  10.552   9.978 -0.0997  0.1505 -0.2314
52955SOL    HW163550  10.005  10.551   9.889  1.5339  1.3011  0.3521
52955SOL    HW263551  10.046  10.545  10.035 -1.0340  0.2097  1.0936
52956SOL     OW63552   9.819   2.387   4.088  0.2762 -0.1711 -0.0959
52956SOL    HW163553   9.772   2.339   4.020  1.4370  2.8125 -3.2868
52956SOL    HW263554   9.750   2.430   4.140 -0.6220 -0.1945 -1.2402
52957SOL     OW63555   9.481  11.909  10.304 -0.0648 -0.4897 -0.0001
52957SOL    HW163556   9.484  11.970  10.230  1.7773 -1.5386 -0.8688
52957SOL    HW263557   9.459  11.825  10.265  1.4716 -1.1713  0.4992
52958SOL     OW63558  11.644  11.299   6.447 -0.5276 -0.3461  0.1928
52958SOL    HW163559  11.724  11.333   6.408  0.1847 -1.7717  0.3444
52958SOL    HW263560  11.587  11.279   6.373  0.1693 -1.4859 -0.0543
52959SOL     OW63561   6.201  11.175   9.969  0.1595 -0.2823  0.3335
52959SOL    HW163562   6.188  11.080   9.972 -2.8135 -0.0235 -1.2181
52959SOL    HW263563   6.129  11.210  10.020  0.0700  1.1971 -0.7637
52960SOL     OW63564  10.677  11.788  11.406  0.0659  0.0784 -0.0783
52960SOL    HW163565  10.729  11.711  11.428 -0.0173 -0.0573 -0.3684
52960SOL    HW263566  10.737  11.844  11.356  0.4951  0.7283  1.1176
52961SOL     OW63567   9.917  11.460   0.746 -0.4256 -0.4906 -0.4915
52961SOL    HW163568   9.986  11.503   0.696 -0.3305 -2.3673 -2.0678
52961SOL    HW263569   9.944  11.368   0.751 -1.9755 -0.9431  0.3315
52962SOL     OW63570   9.737   9.188   6.338 -0.0864  0.2352  0.8032
52962SOL    HW163571   9.693   9.272   6.324 -0.0180  0.3197  1.0956
52962SOL    HW263572   9.682   9.124   6.292  0.0512  0.4862  0.2791
52963SOL     OW63573   8.177   6.494   4.753 -0.1415 -0.3732  0.1499
52963SOL    HW163574   8.257   6.496   4.702 -0.6539 -0.0478 -0.6608
52963SOL    HW263575   8.155   6.401   4.760 -0.1781 -0.4109 -0.4100
52964SOL     OW63576  10.459   4.028   8.117  0.1708  0.1340  0.6511
52964SOL    HW163577  10.479   4.079   8.195 -0.1184 -0.4401  1.1104
52964SOL    HW263578  10.451   3.938   8.149  3.1615 -0.6544 -0.4827
52965SOL     OW63579   8.911   4.478   9.443 -0.0231  0.2406 -0.0415
52965SOL    HW163580   8.977   4.530   9.490  0.5561 -1.0831  0.6715
52965SOL    HW263581   8.845   4.459   9.510 -0.1165 -0.1108 -0.2338
52966SOL     OW63582   5.114   4.371   4.550 -0.0332  0.7317  0.3030
52966SOL    HW163583   5.063   4.335   4.622 -1.0055  1.9817  0.2865
52966SOL    HW263584   5.188   4.311   4.539 -0.9630 -0.5777  0.9973
52967SOL     OW63585  11.951   7.978   6.124  0.6871 -0.3840 -0.4186
52967SOL    HW163586  11.886   8.000   6.191 -0.9086 -0.4638 -1.8662
52967SOL    HW263587  12.013   7.921   6.169 -2.1285 -3.2052  0.3031
52968SOL     OW63588   3.364  10.276   9.548 -0.2209 -0.3233 -0.1380
52968SOL    HW163589   3.305  10.345   9.578  0.1251  1.0106 -2.3077
52968SOL    HW263590   3.307  10.210   9.510 -0.4158  0.1332 -0.6478
52969SOL     OW63591   9.752   6.506   4.341 -0.1519  0.5104  0.0043
52969SOL    HW163592   9.799   6.589   4.326  1.5695 -0.7151 -1.8549
52969SOL    HW263593   9.729   6.476   4.253 -1.0903 -0.8200  0.6784
52970SOL     OW63594  10.158  11.017   1.025  0.2319  0.3757 -0.4867
52970SOL    HW163595  10.209  11.037   0.947 -0.4581  4.0619 -0.1622
52970SOL    HW263596  10.105  11.095   1.041 -1.4901 -1.1605  2.2988
52971SOL     OW63597  10.352   8.082   9.730  0.1148 -0.1731 -0.0743
52971SOL    HW163598  10.275   8.139   9.737 -0.2717 -0.5365 -1.0580
52971SOL    HW263599  10.335   8.011   9.792 -0.2750 -0.1682 -0.1695
52972SOL     OW63600   4.522   7.312   0.317 -0.0950  0.1389  0.0991
52972SOL    HW163601   4.589   7.379   0.300  1.0983 -1.3796 -1.5677
52972SOL    HW263602   4.549   7.272   0.399  0.8789 -0.2393 -0.3923
52973SOL     OW63603   6.578   5.164   0.058  0.1637 -0.1009 -0.1520
52973SOL    HW163604   6.600   5.254   0.035 -2.1370  0.6011  0.1338
52973SOL    HW263605   6.567   5.120  -0.026  0.6483  0.0355 -0.2928
52974SOL     OW63606   5.970   7.713   0.052  0.0672  0.1505  0.0214
52974SOL    HW163607   6.053   7.738   0.011 -0.9172  0.6710 -1.7793
52974SOL    HW263608   5.954   7.624   0.020 -0.3130  0.2510 -0.0691
52975SOL     OW63609   6.249  11.260  10.776 -0.1133 -0.5717 -0.0113
52975SOL    HW163610   6.304  11.338  10.767  0.5196 -1.1926 -1.8759
52975SOL    HW263611   6.298  11.202  10.835  0.8198 -0.7347 -0.9227
52976SOL     OW63612  11.402   4.504   1.330 -0.1656 -0.0633  0.1582
52976SOL    HW163613  11.493   4.492   1.355 -0.2404  1.1623  1.1018
52976SOL    HW263614  11.397   4.595   1.299 -0.7064 -0.6339 -1.5950
52977SOL     OW63615   4.733   8.820  11.810  0.0675 -0.1284 -0.2499
52977SOL    HW163616   4.764   8.848  11.724 -0.2959  0.5315 -0.1733
52977SOL    HW263617   4.798   8.854  11.872  0.0917 -0.2182 -0.2252
52978SOL     OW63618   6.278   7.811  10.056  0.1824  0.7522  0.1884
52978SOL    HW163619   6.252   7.900  10.032 -1.8328  0.1702 -0.0283
52978SOL    HW263620   6.320   7.820  10.141  2.4205  2.1929 -0.9916
52979SOL     OW63621   6.166   3.613  11.506  0.4813 -0.1558  0.6378
52979SOL    HW163622   6.137   3.540  11.451  1.6029 -0.3620  0.2936
52979SOL    HW263623   6.146   3.585  11.595 -1.9258  0.4455  0.3411
52980SOL     OW63624   1.501   1.351   0.650 -0.4951  0.0924 -0.2178
52980SOL    HW163625   1.510   1.444   0.631  0.4044  0.1844  0.5535
52980SOL    HW263626   1.450   1.348   0.731 -1.1435 -0.1191 -0.6330
52981SOL     OW63627   1.847  10.187   3.243 -0.1213  0.6151  0.1596
52981SOL    HW163628   1.898  10.232   3.310  0.8106  1.7410 -1.2484
52981SOL    HW263629   1.866  10.094   3.257  1.7375  0.9569  0.1818
52982SOL     OW63630  10.969   8.549   8.332 -0.2311 -0.3536  0.7196
52982SOL    HW163631  10.887   8.507   8.359 -0.5217  0.8062  1.7221
52982SOL    HW263632  11.007   8.582   8.414  1.1074 -0.6306  0.2380
52983SOL     OW63633   2.990   7.409   0.861  0.3027  0.5059 -0.1442
52983SOL    HW163634   2.957   7.359   0.936  0.8447 -0.5089 -0.5636
52983SOL    HW263635   2.947   7.493   0.868  1.1591  0.8389  1.9488
52984SOL     OW63636   8.058  11.437  10.044 -0.3144 -0.4503 -0.7643
52984SOL    HW163637   8.113  11.367  10.080  1.2056  0.0935 -1.9221
52984SOL    HW263638   8.030  11.488  10.120  1.0206 -0.5936 -0.1528
52985SOL     OW63639   6.116  10.037   4.413  0.0940  0.1258 -0.5443
52985SOL    HW163640   6.129   9.942   4.411 -0.4379 -0.1236  2.5809
52985SOL    HW263641   6.022  10.049   4.398  0.3390  0.3151 -2.1387
52986SOL     OW63642   4.582   9.615  11.042 -0.0240 -0.2854 -0.1688
52986SOL    HW163643   4.503   9.565  11.022 -0.2982  0.3361 -0.6627
52986SOL    HW263644   4.653   9.564  11.003 -0.2543 -0.5009 -0.3095
52987SOL     OW63645   0.553   3.760   3.743 -0.0600  0.2869 -0.9244
52987SOL    HW163646   0.560   3.692   3.675 -0.7278  1.0831 -1.8158
52987SOL    HW263647   0.567   3.842   3.696  0.1647  0.8131  0.0392
52988SOL     OW63648   3.056  11.723   8.480  0.8646 -0.6258  0.2166
52988SOL    HW163649   3.152  11.721   8.472  0.7249 -0.8275 -1.7371
52988SOL    HW263650   3.026  11.651   8.425 -0.4608  0.1191 -0.0649
52989SOL     OW63651   4.223  11.993   2.211  0.3779  0.4630  0.0753
52989SOL    HW163652   4.253  11.909   2.244  3.2064  1.8396  1.4319
52989SOL    HW263653   4.257  11.997   2.122 -0.6457 -0.1796 -0.3660
52990SOL     OW63654   5.236   5.868   0.063  0.6859  0.2304 -0.2846
52990SOL    HW163655   5.154   5.912   0.084  0.8426  0.4807 -0.1976
52990SOL    HW263656   5.279   5.926   0.000  0.9666  0.2823 -0.0475
52991SOL     OW63657   8.852   2.454   1.516  0.2913 -0.2301 -1.1483
52991SOL    HW163658   8.783   2.391   1.537 -0.2540  0.8332  0.4788
52991SOL    HW263659   8.805   2.530   1.481  0.3931  1.0825  1.3471
52992SOL     OW63660  11.210  11.851   3.362 -0.0803  0.4849 -0.5985
52992SOL    HW163661  11.197  11.864   3.456 -1.5301  1.3635 -0.8685
52992SOL    HW263662  11.303  11.868   3.347  0.1001  0.6496  0.6245
52993SOL     OW63663  10.848  10.553  11.272 -0.2397 -0.2924 -0.0550
52993SOL    HW163664  10.817  10.487  11.334  0.1511 -0.3895  0.0358
52993SOL    HW263665  10.788  10.627  11.284  0.5887  0.1832  1.3474
52994SOL     OW63666  11.273   0.456   3.565  0.0428 -0.5517  0.3831
52994SOL    HW163667  11.256   0.364   3.545  1.2007 -1.1187  1.7787
52994SOL    HW263668  11.255   0.464   3.659  1.2727  0.3103  0.5686
52995SOL     OW63669   7.493   0.032   2.306  0.3782 -0.2847 -0.4694
52995SOL    HW163670   7.560   0.088   2.267 -2.0626  1.8759 -1.8504
52995SOL    HW263671   7.497  -0.049   2.255  2.4191 -0.5742  0.0398
52996SOL     OW63672   8.424   6.546  11.905  0.1606  0.1209  0.0987
52996SOL    HW163673   8.480   6.624  11.898  1.6147 -0.9128 -0.1650
52996SOL    HW263674   8.378   6.542  11.821 -0.6395  1.1762  0.4531
52997SOL     OW63675   4.869   3.137   8.201  0.4144 -0.7130 -0.3994
52997SOL    HW163676   4.811   3.205   8.238  0.1422 -0.5114 -1.1849
52997SOL    HW263677   4.810   3.065   8.180  0.6378 -1.0102 -0.0100
52998SOL     OW63678   2.883   7.559  11.314  0.0187  0.5038  0.3413
52998SOL    HW163679   2.818   7.623  11.284 -0.6440  0.2218  1.1455
52998SOL    HW263680   2.953   7.564  11.249 -0.8446  0.7478 -0.5938
52999SOL     OW63681   8.308   3.864  10.929 -0.3957  0.6210 -0.5246
52999SOL    HW163682   8.213   3.866  10.945 -0.1832 -1.1557  1.2848
52999SOL    HW263683   8.317   3.817  10.847 -1.0957  1.7830 -1.3064
53000SOL     OW63684   1.070   8.316   1.281 -0.3500 -0.3889 -0.9585
53000SOL    HW163685   1.122   8.395   1.270  0.7666 -1.1076 -1.0320
53000SOL    HW263686   1.038   8.320   1.371  0.8044 -0.4880 -0.5342
53001SOL     OW63687   7.919   8.186   0.323  0.3919  0.6613 -0.2572
53001SOL    HW163688   8.006   8.168   0.359 -0.0925 -0.2472  0.5171
53001SOL    HW263689   7.888   8.101   0.291 -0.4985  0.8134  0.1573
53002SOL     OW63690   2.353   0.481   0.856  0.1917  0.0599  0.1022
53002SOL    HW163691   2.314   0.441   0.933 -0.2129  0.9066  0.3526
53002SOL    HW263692   2.424   0.535   0.890 -0.3093  0.8360 -0.0526
53003SOL     OW63693  10.060   7.566   4.848  0.1585 -0.2439 -0.6106
53003SOL    HW163694  10.083   7.522   4.929  1.0068  0.9179 -0.1823
53003SOL    HW263695  10.130   7.544   4.787  0.6689  0.6079 -0.3463
53004SOL     OW63696   7.277  10.787   2.065 -0.0499 -0.1102  0.6457
53004SOL    HW163697   7.262  10.810   1.973  1.3528 -0.1030  0.3980
53004SOL    HW263698   7.217  10.843   2.114 -0.4676  0.2281 -0.2344
53005SOL     OW63699   2.432   3.725   2.210  0.6748 -0.2056 -0.7190
53005SOL    HW163700   2.507   3.783   2.196 -0.2917  0.9508 -1.2934
53005SOL    HW263701   2.369   3.779   2.257 -0.1533 -0.8901 -1.0217
53006SOL     OW63702   4.835  11.401   6.631 -0.1841 -0.1672 -0.7787
53006SOL    HW163703   4.820  11.442   6.546 -1.5003 -0.4672 -0.7225
53006SOL    HW263704   4.748  11.400   6.673  0.0624 -1.7265 -0.2206
53007SOL     OW63705   7.578   0.812   6.702  0.0266 -0.0567  0.2560
53007SOL    HW163706   7.537   0.729   6.678 -1.2426  0.6984 -0.3055
53007SOL    HW263707   7.669   0.804   6.673 -0.0476 -1.2732  0.3073
53008SOL     OW63708   6.561  10.437   1.166  0.6424  0.1739  0.5347
53008SOL    HW163709   6.534  10.441   1.257 -0.9989  0.9954  0.0545
53008SOL    HW263710   6.536  10.350   1.137  1.0634 -0.0468  0.8317
53009SOL     OW63711   3.801   4.698   0.262 -0.4730 -0.4197 -0.0712
53009SOL    HW163712   3.708   4.710   0.242 -1.1249  1.2790  3.3083
53009SOL    HW263713   3.813   4.603   0.263 -2.4402 -0.7067  0.2987
53010SOL     OW63714  11.589  10.661  11.459 -0.3143 -0.3586  0.2135
53010SOL    HW163715  11.562  10.643  11.549 -0.1088  0.9522  0.5596
53010SOL    HW263716  11.640  10.584  11.433 -2.4894 -1.9074  0.2944
53011SOL     OW63717   7.597   8.337   2.494  0.1061 -0.0001  0.4166
53011SOL    HW163718   7.682   8.324   2.454 -0.3743 -0.6940 -0.4035
53011SOL    HW263719   7.589   8.266   2.558 -0.9163 -1.5437 -1.3479
53012SOL     OW63720   5.630   9.593   8.254  0.4767 -0.5565  0.1337
53012SOL    HW163721   5.714   9.637   8.240  1.4032 -2.3580 -0.2963
53012SOL    HW263722   5.649   9.528   8.322 -0.3304 -1.5825 -0.6004
53013SOL     OW63723   0.615   7.378   6.842 -0.1070  0.1669  0.0989
53013SOL    HW163724   0.664   7.439   6.787  0.4917 -0.4735 -0.0800
53013SOL    HW263725   0.527   7.417   6.848  0.2230  0.9619 -0.1386
53014SOL     OW63726   1.258  10.667   2.705 -0.1184 -0.1025 -0.2329
53014SOL    HW163727   1.297  10.654   2.618  0.8999  0.4295  0.1282
53014SOL    HW263728   1.332  10.659   2.766 -0.6788  0.3528  0.5166
53015SOL     OW63729   6.745   6.001   8.158 -0.0477  0.5315  0.0531
53015SOL    HW163730   6.776   6.058   8.228  0.6379  0.3634 -0.1058
53015SOL    HW263731   6.708   5.925   8.203  2.8022 -0.8643  0.2765
53016SOL     OW63732  11.592   2.197   5.919  0.1015 -0.0894 -0.0190
53016SOL    HW163733  11.660   2.130   5.933  0.3384 -0.1646 -1.4230
53016SOL    HW263734  11.512   2.146   5.905 -0.4493  0.0023  2.2844
53017SOL     OW63735   8.254   9.879   7.318  0.1447  0.1996  0.0562
53017SOL    HW163736   8.300   9.819   7.377  0.0546 -0.6428 -0.7055
53017SOL    HW263737   8.280   9.966   7.347 -0.6594 -0.1522  1.9592
53018SOL     OW63738   1.642   9.796   5.292 -0.1677  0.5474  0.2385
53018SOL    HW163739   1.659   9.768   5.381  0.6164  1.2137  0.3115
53018SOL    HW263740   1.640   9.715   5.241  0.4660  0.2385  0.6869
53019SOL     OW63741   9.297   2.017   6.225 -0.6210 -0.6729 -0.9165
53019SOL    HW163742   9.242   1.971   6.162 -1.5809 -1.2461  0.3089
53019SOL    HW263743   9.243   2.026   6.303  0.6313 -0.2332 -0.0586
53020SOL     OW63744   2.738   7.790  11.266 -0.3582  0.2158  0.2964
53020SOL    HW163745   2.776   7.799  11.353  0.5391 -2.2531  0.2355
53020SOL    HW263746   2.656   7.742  11.280 -0.1026 -0.3879 -0.2262
53021SOL     OW63747   7.485  10.048   4.719 -0.2336 -0.3597  0.2976
53021SOL    HW163748   7.534  10.069   4.799  0.3600 -4.2873  1.1396
53021SOL    HW263749   7.473   9.953   4.722 -3.1707 -0.2486 -2.6623
53022SOL     OW63750   2.252  11.951  11.543  0.5275 -0.6976  0.2561
53022SOL    HW163751   2.297  11.968  11.460  0.9104 -2.1823  0.1289
53022SOL    HW263752   2.162  11.980  11.529  0.6644 -0.6602 -0.5702
53023SOL     OW63753   6.050   3.958   3.589  0.0470  0.1146  0.3629
53023SOL    HW163754   5.962   3.924   3.608  0.4231 -1.0046  0.1506
53023SOL    HW263755   6.097   3.949   3.671  0.6706 -1.5736 -0.1425
53024SOL     OW63756   3.247   6.865  11.139  0.2745  0.0448  0.2464
53024SOL    HW163757   3.303   6.870  11.062 -0.9416 -0.3956 -0.6876
53024SOL    HW263758   3.232   6.771  11.152  0.7986  0.0906  1.2762
53025SOL     OW63759   6.322   7.416   0.292 -0.2437  0.2296 -0.4511
53025SOL    HW163760   6.272   7.469   0.355  2.1608  1.2969  0.6964
53025SOL    HW263761   6.349   7.479   0.225  0.2822 -0.1294 -0.5807
53026SOL     OW63762   9.137   1.878   7.714  0.3836  0.8954 -0.1193
53026SOL    HW163763   9.150   1.846   7.625 -2.6807  0.9655 -0.7126
53026SOL    HW263764   9.179   1.813   7.770 -2.3122 -2.3274 -1.4594
53027SOL     OW63765   5.320  10.165   8.305 -0.5098 -0.1841  0.3487
53027SOL    HW163766   5.348  10.197   8.219 -0.7236  2.0256  1.0456
53027SOL    HW263767   5.397  10.176   8.361 -1.0447  0.5362  0.9556
53028SOL     OW63768   1.791   5.192   9.146  0.0052 -0.3957 -0.2088
53028SOL    HW163769   1.832   5.227   9.225  0.3701  2.1304 -1.4147
53028SOL    HW263770   1.864   5.164   9.091  0.0836  1.5025 -1.1876
53029SOL     OW63771   4.936  10.894   7.076 -0.1257 -0.2841 -0.1012
53029SOL    HW163772   4.941  10.799   7.063 -1.3932 -0.3679 -0.0437
53029SOL    HW263773   4.869  10.924   7.014  1.2073  0.7884 -1.1122
53030SOL     OW63774   7.414  11.528   3.338 -0.3930  0.4070  0.0865
53030SOL    HW163775   7.396  11.462   3.405 -1.0981  1.2378  0.7391
53030SOL    HW263776   7.360  11.501   3.263  1.8907 -1.6635 -0.9762
53031SOL     OW63777   9.304   7.033   3.485 -0.1051 -0.1622  0.1366
53031SOL    HW163778   9.278   7.122   3.460  2.3099  1.1172  1.8182
53031SOL    HW263779   9.229   6.998   3.532 -0.9238  1.1710 -0.1318
53032SOL     OW63780   5.716  11.406   8.849 -0.0523 -0.6529 -0.0544
53032SOL    HW163781   5.694  11.318   8.816 -0.8064  0.2446 -2.1046
53032SOL    HW263782   5.633  11.439   8.883  0.1582 -0.6105  0.4167
53033SOL     OW63783   5.998   6.617   3.027  0.2621 -0.1626 -0.3792
53033SOL    HW163784   5.928   6.672   3.061 -0.3813 -0.3246 -1.4041
53033SOL    HW263785   5.963   6.528   3.029  1.3530 -0.6030  1.4191
53034SOL     OW63786   1.337  10.404  10.128  0.6639  0.1637  0.2947
53034SOL    HW163787   1.374  10.488  10.103  1.3154 -0.6928 -1.7761
53034SOL    HW263788   1.412  10.353  10.160  0.9629 -0.7788 -1.7469
53035SOL     OW63789   6.576   1.757   2.585 -0.2298 -0.2360 -0.0059
53035SOL    HW163790   6.649   1.747   2.645  1.2710  2.2708 -1.2266
53035SOL    HW263791   6.549   1.668   2.563  3.2105 -1.3168 -0.3527
53036SOL     OW63792  10.362   7.876   9.920 -0.6132  0.2142  0.0491
53036SOL    HW163793  10.419   7.901   9.992 -1.4170 -1.0517  1.1728
53036SOL    HW263794  10.401   7.796   9.885 -0.5324  0.5215 -0.5760
53037SOL     OW63795   4.835   1.513   7.556  0.1193 -0.0577 -0.2656
53037SOL    HW163796   4.910   1.563   7.523  0.0714  1.9580  2.3393
53037SOL    HW263797   4.874   1.434   7.593  0.8588  0.4552  0.0831
53038SOL     OW63798   9.414   6.001   5.231  0.6076 -0.2203  0.6828
53038SOL    HW163799   9.455   6.032   5.150 -0.0625 -0.4090  0.2653
53038SOL    HW263800   9.454   6.054   5.300  0.5772  0.5307  0.1378
53039SOL     OW63801   1.605   3.113   1.560 -0.3655 -0.0578 -0.4438
53039SOL    HW163802   1.639   3.186   1.613 -2.8406  0.6185  0.3411
53039SOL    HW263803   1.667   3.042   1.575  0.8961  1.1997  0.5728
53040SOL     OW63804   7.153  10.401   8.703 -0.9232  0.7185  0.5598
53040SOL    HW163805   7.078  10.369   8.655 -1.5294  1.4442  0.9952
53040SOL    HW263806   7.221  10.413   8.637 -0.3520 -2.2320  0.4892
53041SOL     OW63807   5.346  11.766   8.279 -0.1265  0.1423  0.0792
53041SOL    HW163808   5.422  11.801   8.232 -0.0252 -1.0341 -0.6771
53041SOL    HW263809   5.271  11.808   8.236 -0.1410 -2.0385 -2.3074
53042SOL     OW63810   9.298   0.867   6.474  0.1412  0.5657 -0.3629
53042SOL    HW163811   9.307   0.845   6.567  0.5017  1.0525 -0.2793
53042SOL    HW263812   9.387   0.885   6.445  0.1948 -0.7702 -1.1127
53043SOL     OW63813   1.947   4.995   8.332 -0.3591  0.2988  0.3605
53043SOL    HW163814   1.865   4.993   8.282 -0.0271 -1.1360 -0.1672
53043SOL    HW263815   2.009   5.039   8.274  0.0755 -1.5257 -0.6459
53044SOL     OW63816  10.151   4.232   7.289 -0.8156 -0.0915 -0.4324
53044SOL    HW163817  10.229   4.285   7.304 -0.8095  0.4204 -2.1041
53044SOL    HW263818  10.082   4.276   7.340 -0.2011 -0.0622  0.3794
53045SOL     OW63819   8.855   3.572   2.673  0.2311  0.1331  0.0464
53045SOL    HW163820   8.808   3.516   2.611  0.8241  1.6136 -1.8153
53045SOL    HW263821   8.943   3.534   2.676  0.9353  1.4329 -1.9953
53046SOL     OW63822   8.071   9.068   8.226 -0.1231 -0.4745  0.2722
53046SOL    HW163823   8.029   9.151   8.201  0.4562 -0.5725 -1.1014
53046SOL    HW263824   8.023   9.040   8.304 -0.6912  0.8718  0.4437
53047SOL     OW63825   8.862   1.398   0.175 -0.4594 -0.1600 -0.6618
53047SOL    HW163826   8.869   1.348   0.093 -1.4258  0.4603 -1.1349
53047SOL    HW263827   8.896   1.339   0.242  0.4398 -0.6433 -1.5203
53048SOL     OW63828  10.001   3.452   3.138 -0.6311  0.6778  0.3184
53048SOL    HW163829   9.934   3.418   3.198  1.3197 -2.4598  0.9376
53048SOL    HW263830  10.050   3.515   3.191 -0.7486  0.1391  1.0852
53049SOL     OW63831   5.037   5.996   2.165  0.1334 -0.9826  0.2440
53049SOL    HW163832   5.128   5.967   2.162  0.7292  0.6952  1.1623
53049SOL    HW263833   5.035   6.074   2.109 -0.3419 -0.0248  1.5681
53050SOL     OW63834   2.884   4.064   8.567 -0.3578 -0.0033  0.0209
53050SOL    HW163835   2.868   4.135   8.629 -0.3536  0.3675 -0.3944
53050SOL    HW263836   2.967   4.087   8.526 -1.3888  0.8974 -1.6557
53051SOL     OW63837   0.294   0.053   1.509 -0.6758 -0.4073  0.0621
53051SOL    HW163838   0.350  -0.007   1.460 -0.6708 -0.2165 -0.1631
53051SOL    HW263839   0.342   0.070   1.590 -2.1374 -3.4034  1.7313
53052SOL     OW63840   1.918   9.338   1.553 -0.4077 -0.1924  0.6364
53052SOL    HW163841   1.830   9.346   1.517 -0.3921 -0.9388  0.4239
53052SOL    HW263842   1.964   9.416   1.523 -1.0400  0.2854  0.8872
53053SOL     OW63843   5.659   2.248   3.121 -0.4587 -1.1017 -0.4138
53053SOL    HW163844   5.695   2.291   3.199 -0.3719 -3.5387  0.9921
53053SOL    HW263845   5.726   2.184   3.096 -1.6651 -2.2467 -0.8147
53054SOL     OW63846   1.790  11.727   2.117  0.1676 -0.1676  0.4544
53054SOL    HW163847   1.767  11.702   2.027  0.3214  0.2174  0.3066
53054SOL    HW263848   1.868  11.781   2.107 -0.6319  1.0740  0.7007
53055SOL     OW63849   0.130  10.126   8.959  0.1226  0.1779 -1.0137
53055SOL    HW163850   0.132  10.175   9.041 -1.9121  0.3615 -1.0148
53055SOL    HW263851   0.043  10.145   8.922 -0.0175 -1.9669 -1.9247
53056SOL     OW63852   0.334   7.212   3.734 -0.1370 -0.2859 -0.3384
53056SOL    HW163853   0.283   7.283   3.775 -0.4715 -0.6112 -0.1875
53056SOL    HW263854   0.295   7.132   3.768  1.3208 -0.5391  0.8080
53057SOL     OW63855   9.790  11.427   4.108  0.1641 -0.0619  0.5129
53057SOL    HW163856   9.731  11.435   4.183 -2.5028  0.8808 -1.5443
53057SOL    HW263857   9.856  11.364   4.136  0.0699  1.2194  4.0940
53058SOL     OW63858   7.735   8.073   7.681 -0.0256 -0.1079  0.4600
53058SOL    HW163859   7.734   8.098   7.773  2.3653 -0.0564  0.5233
53058SOL    HW263860   7.766   8.151   7.635 -1.6681  0.0312 -0.4910
53059SOL     OW63861   0.953  11.447   1.509  0.3820  0.0742  0.5789
53059SOL    HW163862   1.003  11.380   1.463 -0.1075  0.3060 -0.3198
53059SOL    HW263863   1.019  11.499   1.554  0.7305 -1.3417  1.7781
53060SOL     OW63864   8.038   1.628   7.709  0.3727  0.7539  0.3765
53060SOL    HW163865   8.042   1.695   7.777  1.1150 -0.6342  1.7563
53060SOL    HW263866   7.997   1.672   7.634 -2.3261  1.7974  2.3368
53061SOL     OW63867   0.682   8.129  10.499  0.7612  0.5354 -0.2891
53061SOL    HW163868   0.771   8.108  10.470  0.1114  1.2020 -3.1731
53061SOL    HW263869   0.643   8.173  10.423 -2.2586 -0.3824  0.6046
53062SOL     OW63870   3.495   1.181  11.727 -0.3077 -0.0038 -0.4836
53062SOL    HW163871   3.497   1.275  11.707  2.7586 -0.0788 -0.9847
53062SOL    HW263872   3.446   1.142  11.655 -1.0880  1.1391 -0.5982
53063SOL     OW63873   5.721   5.956   9.546 -0.0424 -0.0754  0.1503
53063SOL    HW163874   5.779   6.005   9.604 -0.6509 -0.5350  1.1741
53063SOL    HW263875   5.778   5.926   9.476  0.5698  1.0994  0.1131
53064SOL     OW63876   4.460   7.348   1.447  0.0686 -0.3543 -0.0556
53064SOL    HW163877   4.485   7.434   1.482 -2.6795  0.5560 -0.0413
53064SOL    HW263878   4.422   7.368   1.362 -0.2070 -1.6378 -0.2480
53065SOL     OW63879  11.964   6.833   8.221  0.5788 -0.0988  0.0778
53065SOL    HW163880  11.907   6.885   8.164  1.7045  0.5605 -0.4939
53065SOL    HW263881  12.021   6.786   8.160  1.9617  0.7986  0.6203
53066SOL     OW63882   7.668   1.853   5.403  0.1013  0.6462  0.3411
53066SOL    HW163883   7.604   1.806   5.349  0.0903  2.1436 -1.0235
53066SOL    HW263884   7.740   1.791   5.413 -0.7222 -0.3599  0.2459
53067SOL     OW63885   9.642   4.772  10.260  0.1554 -0.0728  0.5561
53067SOL    HW163886   9.705   4.843  10.276 -1.0610  0.8033  1.6096
53067SOL    HW263887   9.560   4.816  10.242 -0.4551 -1.2218  0.4326
53068SOL     OW63888   2.959   6.401   3.805  0.0435  0.1105  0.1541
53068SOL    HW163889   2.938   6.312   3.833  0.1460  0.9926  3.3358
53068SOL    HW263890   2.964   6.452   3.886  0.1637  3.0070 -1.5329
53069SOL     OW63891   3.498   0.867   9.896  0.0177  0.1351  0.1156
53069SOL    HW163892   3.566   0.921   9.858 -1.6621  1.4297 -1.2351
53069SOL    HW263893   3.421   0.924   9.900 -1.1933 -1.4502  0.8986
53070SOL     OW63894   2.786   1.178   8.709  0.2163  0.0720 -0.4143
53070SOL    HW163895   2.810   1.269   8.721  0.3551  0.1556 -1.2846
53070SOL    HW263896   2.726   1.178   8.634 -0.1439 -0.4925 -0.1385
53071SOL     OW63897  11.774   3.480   6.510 -0.0862  0.0715  0.0947
53071SOL    HW163898  11.852   3.506   6.560  0.0389  1.4649 -0.7877
53071SOL    HW263899  11.806   3.465   6.421 -0.4025 -1.9068  0.2557
53072SOL     OW63900   2.531  10.648  11.685  0.2359  0.3119 -0.1792
53072SOL    HW163901   2.602  10.635  11.621  0.5665 -2.1215  0.5694
53072SOL    HW263902   2.476  10.716  11.646  1.8096  0.7346 -1.8153
53073SOL     OW63903   3.936   2.188  10.596  0.0296  0.0775  0.5214
53073SOL    HW163904   4.018   2.210  10.640  0.2743  0.4860 -0.1239
53073SOL    HW263905   3.948   2.217  10.505 -0.9368  0.4180  0.4847
53074SOL     OW63906   9.291   6.024   3.075 -0.5968  0.0169  0.4400
53074SOL    HW163907   9.326   6.065   3.154 -0.3241  4.1235 -1.5836
53074SOL    HW263908   9.200   6.053   3.071  0.1757  2.5365 -2.1479
53075SOL     OW63909   0.627   4.096   9.084 -0.3513 -0.6561 -0.7586
53075SOL    HW163910   0.603   4.183   9.116  0.2627 -0.8906  0.3753
53075SOL    HW263911   0.543   4.051   9.072 -0.6601  0.0105 -1.1393
53076SOL     OW63912  10.220   2.363   2.850  0.1566  1.1153  1.2485
53076SOL    HW163913  10.174   2.441   2.817 -0.1434  0.5513  0.2896
53076SOL    HW263914  10.306   2.396   2.877  0.7721  1.5003 -0.9421
53077SOL     OW63915   7.273   2.437   2.007  0.1392 -0.3960 -0.1962
53077SOL    HW163916   7.227   2.359   1.976  0.5314 -1.2360  1.2215
53077SOL    HW263917   7.365   2.419   1.988  0.2158 -0.2018 -0.0050
53078SOL     OW63918   8.203   4.481  10.672 -0.0360 -0.3365  0.7598
53078SOL    HW163919   8.216   4.549  10.606  1.6282  0.9364  2.2966
53078SOL    HW263920   8.109   4.464  10.672 -0.0247 -0.8578 -2.3187
53079SOL     OW63921   6.288   5.231   4.554 -0.1308 -0.3054  0.1937
53079SOL    HW163922   6.238   5.171   4.610  0.1523  0.7243  1.5992
53079SOL    HW263923   6.257   5.213   4.465 -1.4361 -1.1694  0.8007
53080SOL     OW63924  11.755   0.226   3.374 -0.6729 -0.3768 -0.0489
53080SOL    HW163925  11.682   0.219   3.313 -1.3419  0.3202  0.6352
53080SOL    HW263926  11.773   0.320   3.379 -1.1001 -0.3446  1.3292
53081SOL     OW63927  10.508   9.750   3.458 -0.0424  0.5747 -0.0759
53081SOL    HW163928  10.507   9.658   3.433  1.0545 -0.3847  2.9982
53081SOL    HW263929  10.422   9.766   3.498  0.0663  0.6659  0.1228
53082SOL     OW63930   6.401   1.974  11.405 -0.4291 -0.2007 -0.1735
53082SOL    HW163931   6.306   1.959  11.396 -0.4424  0.1822 -0.6403
53082SOL    HW263932   6.431   1.900  11.459 -1.0934  0.0009  0.4921
53083SOL     OW63933   5.472   1.078   8.924  0.9899 -0.5409  0.0259
53083SOL    HW163934   5.380   1.056   8.914  0.9796 -1.0680  1.1699
53083SOL    HW263935   5.504   1.089   8.834 -0.1890 -0.2778 -0.3770
53084SOL     OW63936  10.056  11.329   3.962  0.2582  0.3488 -0.1979
53084SOL    HW163937  10.085  11.295   4.047 -1.3527  1.0495  0.6660
53084SOL    HW263938  10.047  11.423   3.976 -3.0317  0.1258 -0.1769
53085SOL     OW63939   6.572   8.541   2.013 -1.1836 -0.1672  0.0924
53085SOL    HW163940   6.510   8.494   1.958  0.4394  0.1021 -2.1158
53085SOL    HW263941   6.632   8.582   1.951  0.8096  0.1313  2.0978
53086SOL     OW63942  11.226  11.380   9.708 -0.1304 -0.1757 -0.4401
53086SOL    HW163943  11.147  11.410   9.664  0.9368  0.0825 -2.2662
53086SOL    HW263944  11.216  11.285   9.716 -1.4677  0.0533  1.1805
53087SOL     OW63945   3.436   6.358   9.515  0.4578  0.1579  0.0859
53087SOL    HW163946   3.375   6.286   9.529 -1.6000  1.7161 -0.3631
53087SOL    HW263947   3.496   6.326   9.447 -0.5910 -1.0029 -0.3295
53088SOL     OW63948   7.248   3.609  11.562 -0.1984 -0.3524 -0.4653
53088SOL    HW163949   7.176   3.580  11.618  2.0653 -2.6248  1.5112
53088SOL    HW263950   7.224   3.578  11.475 -1.3820 -1.5722  0.2464
53089SOL     OW63951   2.354   6.897   1.147 -0.4272  0.0309  0.6775
53089SOL    HW163952   2.417   6.825   1.141  1.3187  1.4277  1.1654
53089SOL    HW263953   2.329   6.898   1.240 -0.0868  0.3220  0.7695
53090SOL     OW63954   6.553  10.896   4.284  0.2918 -0.8061 -0.0405
53090SOL    HW163955   6.550  10.989   4.264  0.1862 -0.3134  1.9652
53090SOL    HW263956   6.642  10.869   4.264  0.6562  0.0213  0.4197
53091SOL     OW63957   2.845   7.367   4.798  0.6235 -0.7587 -0.0612
53091SOL    HW163958   2.787   7.366   4.722  0.1180 -1.2744  0.3232
53091SOL    HW263959   2.881   7.456   4.799  0.1065 -0.5343 -0.5020
53092SOL     OW63960   9.986   6.899   1.872  0.6158  0.0030  0.1162
53092SOL    HW163961   9.893   6.877   1.876  0.5952 -0.0224 -0.4567
53092SOL    HW263962   9.994   6.980   1.921  0.1400  0.4843 -0.5788
53093SOL     OW63963   5.811   7.411   0.236 -0.6996  0.8062  0.3152
53093SOL    HW163964   5.831   7.501   0.259  0.3749  0.2085  1.8532
53093SOL    HW263965   5.886   7.382   0.185  0.9689 -0.3782  3.1949
53094SOL     OW63966  10.280   5.006   9.796 -0.1358 -0.1887 -0.0512
53094SOL    HW163967  10.213   5.058   9.752  1.3401  0.0142 -2.2126
53094SOL    HW263968  10.314   5.064   9.865 -2.0128 -0.2510  0.9981
53095SOL     OW63969  10.564   2.685   6.329  0.2677 -0.3349  0.2086
53095SOL    HW163970  10.558   2.670   6.235  1.6041 -0.0299  0.0525
53095SOL    HW263971  10.584   2.599   6.366 -0.0886 -0.4226  0.2008
53096SOL     OW63972   6.346   4.166   7.589  0.0469 -0.3641  0.2546
53096SOL    HW163973   6.384   4.136   7.672 -0.3433 -0.5329  0.3699
53096SOL    HW263974   6.288   4.095   7.562 -0.0938 -0.1570  0.0116
53097SOL     OW63975   7.909  10.074   0.551  0.5398  0.1158 -0.0961
53097SOL    HW163976   7.839  10.093   0.614 -0.4824 -0.7384 -0.9404
53097SOL    HW263977   7.909  10.150   0.493 -0.0141 -0.0835 -0.3675
53098SOL     OW63978   0.203   3.468   6.779  0.5090 -0.0492  0.1899
53098SOL    HW163979   0.194   3.385   6.733  1.3823  0.4037 -0.8124
53098SOL    HW263980   0.211   3.443   6.871  0.7987 -1.0783 -0.1037
53099SOL     OW63981   4.348   1.952   6.094  0.3721  0.2008  0.2285
53099SOL    HW163982   4.366   2.040   6.128  1.6387 -0.7083  2.0881
53099SOL    HW263983   4.271   1.923   6.142 -0.0030  0.2574 -0.3318
53100SOL     OW63984   8.239   3.287   2.916  0.3762 -0.1839 -0.3365
53100SOL    HW163985   8.303   3.246   2.858  1.6869  0.5585  0.5352
53100SOL    HW263986   8.265   3.379   2.920 -1.3635  0.3761 -0.7378
53101SOL     OW63987   6.385   1.483   4.205  0.1236  0.8269 -0.0098
53101SOL    HW163988   6.353   1.448   4.288 -0.2734 -0.3829 -0.6495
53101SOL    HW263989   6.373   1.412   4.142  0.0695  1.8349 -1.1927
53102SOL     OW63990   5.353   6.961   3.948 -0.1814  0.1804 -0.0280
53102SOL    HW163991   5.273   6.918   3.918  0.4247 -0.1238 -1.2525
53102SOL    HW263992   5.332   6.990   4.037 -1.9476  0.8672 -0.6215
53103SOL     OW63993   2.659  10.955   4.188 -0.0009  0.4446  0.4535
53103SOL    HW163994   2.751  10.961   4.215 -0.1482 -1.0488  1.4369
53103SOL    HW263995   2.646  11.029   4.128  1.9952  0.3387 -0.1825
53104SOL     OW63996   5.508   1.796   7.360  0.0555 -0.8539  0.0803
53104SOL    HW163997   5.558   1.870   7.324  1.1723 -1.7830 -0.3343
53104SOL    HW263998   5.561   1.765   7.433 -1.5657  0.1906  1.7696
53105SOL     OW63999   2.713   8.296   9.389 -0.0807 -0.0208  0.6263
53105SOL    HW164000   2.654   8.224   9.411  0.2013 -0.8240 -1.1298
53105SOL    HW264001   2.750   8.273   9.304 -0.8142  2.7159 -0.5485
53106SOL     OW64002   4.882  11.797   8.804 -0.4427 -0.6280  0.6097
53106SOL    HW164003   4.937  11.718   8.803 -0.0225 -0.3804 -1.5539
53106SOL    HW264004   4.942  11.868   8.827 -0.1049 -0.5453 -0.4569
53107SOL     OW64005   8.507   2.778  10.369 -0.5607 -0.0141 -0.3294
53107SOL    HW164006   8.428   2.814  10.410  0.2576  1.0558  0.3571
53107SOL    HW264007   8.563   2.753  10.443  1.0785  2.2463 -0.7161
53108SOL     OW64008  10.735   7.336   0.508  0.3865  0.1556  0.2644
53108SOL    HW164009  10.787   7.412   0.534  0.4848  0.4255 -0.6790
53108SOL    HW264010  10.772   7.310   0.423 -2.4365  1.7673 -1.6018
53109SOL     OW64011  10.948   2.410   0.352  0.0045 -0.0126 -0.2210
53109SOL    HW164012  10.976   2.482   0.409  4.5560 -1.0995 -0.6812
53109SOL    HW264013  10.874   2.446   0.303 -1.3306  2.4553  3.1601
53110SOL     OW64014  11.686  11.299   5.816  0.3880 -0.4177  0.3124
53110SOL    HW164015  11.726  11.325   5.899  0.7344 -0.6874  0.2299
53110SOL    HW264016  11.634  11.376   5.790  0.7562 -0.1067  0.4795
53111SOL     OW64017   0.699   1.488  10.354 -0.3580 -0.7713 -0.5483
53111SOL    HW164018   0.736   1.551  10.292 -2.4681  0.8011 -0.3325
53111SOL    HW264019   0.611   1.471  10.321 -1.9515  0.8867  2.4253
53112SOL     OW64020   7.901   4.541  10.581 -0.3719  0.9460  0.1453
53112SOL    HW164021   7.885   4.605  10.511 -2.4909  0.5053  0.1715
53112SOL    HW264022   7.814   4.514  10.610  0.4641 -0.9062  1.1261
53113SOL     OW64023  11.351   2.843   0.346 -0.1027  0.3159  0.4190
53113SOL    HW164024  11.310   2.849   0.433  1.5061 -2.4805  1.5045
53113SOL    HW264025  11.444   2.861   0.362 -0.0278  1.4273 -1.0679
53114SOL     OW64026   2.326  10.902  10.245 -0.1551  0.2427 -0.6757
53114SOL    HW164027   2.362  10.867  10.164 -0.3517  1.0705 -1.1228
53114SOL    HW264028   2.232  10.908  10.230 -0.2432  0.0182 -0.2378
53115SOL     OW64029   2.503   8.032   8.675 -0.0147  0.9252  0.9653
53115SOL    HW164030   2.412   8.002   8.670  0.1526  0.6131 -2.7988
53115SOL    HW264031   2.510   8.101   8.609  2.3394  1.3794  1.5879
53116SOL     OW64032   4.958  10.021   1.301  0.4034  0.8370 -0.1501
53116SOL    HW164033   5.034  10.017   1.243  0.8314  0.7482  0.4162
53116SOL    HW264034   4.883  10.028   1.241  0.7766 -0.0240 -0.7446
53117SOL     OW64035  10.273   8.511   9.238 -0.6160  0.3334  0.1995
53117SOL    HW164036  10.206   8.558   9.189  0.3321  1.3818 -0.1336
53117SOL    HW264037  10.348   8.570   9.238 -0.1999 -0.1234  1.9263
53118SOL     OW64038  10.816   1.224  11.086 -0.0631  0.1859  0.2757
53118SOL    HW164039  10.871   1.219  11.165  1.5409  1.0088 -0.7428
53118SOL    HW264040  10.870   1.270  11.022  0.3246 -3.8811 -2.6813
53119SOL     OW64041   4.824   5.355   9.046 -0.0811  0.0499 -0.4075
53119SOL    HW164042   4.737   5.349   9.007 -1.0077  2.3742  1.0552
53119SOL    HW264043   4.808   5.385   9.135  2.1955 -0.5362  0.2626
53120SOL     OW64044   8.255   0.885   1.749  0.5620  0.1946  0.0230
53120SOL    HW164045   8.262   0.975   1.717 -0.2161  0.3318  0.2158
53120SOL    HW264046   8.262   0.893   1.844 -1.8712  0.3704  0.2722
53121SOL     OW64047   8.908   4.865   5.925 -0.4518  0.4066  0.5855
53121SOL    HW164048   8.881   4.793   5.868  0.5559  0.9337 -0.5797
53121SOL    HW264049   8.978   4.828   5.979  0.6978  0.7242 -0.6369
53122SOL     OW64050   7.535   1.541   1.591  0.0270  0.1732  0.4596
53122SOL    HW164051   7.532   1.474   1.523 -1.2079  2.1988 -1.6766
53122SOL    HW264052   7.462   1.519   1.649  0.2782 -0.8791  0.3984
53123SOL     OW64053   9.768   6.914   9.437 -0.4089  0.6135  0.0162
53123SOL    HW164054   9.784   7.007   9.454 -0.6519  0.5652  0.5452
53123SOL    HW264055   9.777   6.904   9.342 -0.4713  1.1953 -0.0518
53124SOL     OW64056  10.750  11.079  10.800 -0.0205 -0.5606  0.2724
53124SOL    HW164057  10.738  11.008  10.863  0.6925 -0.5052  0.4720
53124SOL    HW264058  10.685  11.145  10.826  0.9165 -0.1136  1.5764
53125SOL     OW64059   0.843  11.475   3.259 -0.0366 -0.0121 -0.6747
53125SOL    HW164060   0.840  11.490   3.354  0.1839 -0.8073 -0.5329
53125SOL    HW264061   0.780  11.405   3.244 -1.7532  1.6103 -1.4447
53126SOL     OW64062   1.585   2.589   5.352 -0.3213 -0.0430  0.6904
53126SOL    HW164063   1.561   2.632   5.434 -0.5524 -0.2334  0.7225
53126SOL    HW264064   1.678   2.569   5.363 -0.3213  0.0440  0.8568
53127SOL     OW64065   0.462   3.263   1.880 -0.0022  0.7108 -0.5902
53127SOL    HW164066   0.501   3.316   1.811  1.0404  1.0798  0.2526
53127SOL    HW264067   0.469   3.316   1.959  0.3499 -0.3512  0.1227
53128SOL     OW64068   4.804   4.119   3.417  0.1859 -0.9893  0.1630
53128SOL    HW164069   4.772   4.208   3.435 -2.1230 -2.1480  2.3768
53128SOL    HW264070   4.899   4.125   3.428  0.9140  2.1696 -4.6390
53129SOL     OW64071   9.287   3.453   2.364 -0.0549  0.3639 -0.4513
53129SOL    HW164072   9.369   3.497   2.341  0.3018 -0.6564 -1.1743
53129SOL    HW264073   9.284   3.456   2.459  0.0329  1.8131 -0.4683
53130SOL     OW64074  10.545   9.951  11.986  0.0088 -0.0728 -0.6258
53130SOL    HW164075  10.595   9.960  12.067  0.2953 -0.0822 -0.7994
53130SOL    HW264076  10.457   9.981  12.009 -0.0914 -0.7153 -0.1332
53131SOL     OW64077   6.495  11.681   7.153 -0.2346 -0.2660  0.3413
53131SOL    HW164078   6.575  11.635   7.129  0.0260 -0.2010  1.0661
53131SOL    HW264079   6.439  11.614   7.192 -2.2460 -1.2973 -3.7379
53132SOL     OW64080   6.460  10.670   6.469 -0.4000 -0.1364 -0.2333
53132SOL    HW164081   6.400  10.641   6.538 -0.1053  0.7645  0.4203
53132SOL    HW264082   6.407  10.666   6.389 -0.2600 -2.8096 -0.2749
53133SOL     OW64083   0.400   1.193   6.639  0.2949  0.4385 -0.6056
53133SOL    HW164084   0.469   1.207   6.705  1.1826 -0.2543 -1.3593
53133SOL    HW264085   0.389   1.279   6.598 -0.0139  0.7927  0.1952
53134SOL     OW64086  10.474  10.964   6.597 -0.5702  0.0945  0.1935
53134SOL    HW164087  10.412  10.917   6.652 -1.1923 -2.1452 -2.1992
53134SOL    HW264088  10.424  10.986   6.518  0.7923  1.3135 -0.3734
53135SOL     OW64089  10.801   4.222   2.950  0.0366  0.1855  0.3818
53135SOL    HW164090  10.895   4.210   2.962  0.6328  3.0381 -0.6555
53135SOL    HW264091  10.791   4.236   2.856 -1.4358 -0.0146  0.4888
53136SOL     OW64092   2.864   3.969   4.917  0.0278 -0.2877 -0.2117
53136SOL    HW164093   2.889   3.884   4.954 -0.5103 -0.6748 -0.7117
53136SOL    HW264094   2.947   4.008   4.889  0.3497 -0.3614  0.6008
53137SOL     OW64095   7.196   3.470   7.412  0.1328 -0.4911  0.0876
53137SOL    HW164096   7.109   3.432   7.407  0.1724 -0.5982  0.2276
53137SOL    HW264097   7.223   3.459   7.503  0.3555 -0.5988  0.0105
53138SOL     OW64098   0.120   9.876   3.393 -0.1232 -0.2340 -0.5051
53138SOL    HW164099   0.084   9.862   3.305 -1.3602 -0.3971  0.0096
53138SOL    HW264100   0.044   9.873   3.451  0.7116 -0.3970  0.6114
53139SOL     OW64101   3.367   3.433   5.764  0.7572  0.5298 -0.2164
53139SOL    HW164102   3.430   3.412   5.695  1.7188  1.1705  0.4520
53139SOL    HW264103   3.420   3.461   5.838 -0.2262 -0.5438  0.9546
53140SOL     OW64104   0.261   1.848   5.946 -0.4163  0.4228 -0.3141
53140SOL    HW164105   0.261   1.788   5.871 -1.5332 -2.5599  1.8775
53140SOL    HW264106   0.290   1.931   5.909  1.1044 -1.3460 -3.6428
53141SOL     OW64107   6.954  11.197  10.636  0.3484 -0.0943 -0.0689
53141SOL    HW164108   6.884  11.260  10.654 -1.2121 -1.2809 -1.5939
53141SOL    HW264109   6.930  11.120  10.688  1.7276  0.2031  1.0569
53142SOL     OW64110   3.053   9.960  10.747  0.1357  0.2846  0.3157
53142SOL    HW164111   2.985   9.987  10.808 -0.4054  0.3480 -0.3062
53142SOL    HW264112   3.006   9.933  10.668  0.7337 -1.1933  0.4232
53143SOL     OW64113   3.268   1.530   1.849 -0.0863 -0.4197  0.7177
53143SOL    HW164114   3.321   1.491   1.779 -1.5696  0.5580 -1.0576
53143SOL    HW264115   3.189   1.477   1.852 -0.2027 -0.2195  1.4041
53144SOL     OW64116   0.810   1.470  11.798 -0.1457 -0.2123  0.0748
53144SOL    HW164117   0.845   1.540  11.744 -0.6222 -0.9378 -1.2104
53144SOL    HW264118   0.800   1.395  11.739  1.9419 -1.9634  1.7227
53145SOL     OW64119  11.938   5.474   4.571 -0.3244 -0.1154 -0.3363
53145SOL    HW164120  12.012   5.431   4.527  0.3555  1.1371 -0.4640
53145SOL    HW264121  11.891   5.402   4.613 -0.4178 -1.2241 -2.2271
53146SOL     OW64122   1.621   4.946  11.032  0.1866  0.1993 -0.0526
53146SOL    HW164123   1.637   4.929  10.940 -1.3962 -0.9223 -0.1598
53146SOL    HW264124   1.612   5.041  11.038 -1.1300  0.1724 -1.3195
53147SOL     OW64125   1.206   3.243   8.227  0.6383  0.1494  0.0535
53147SOL    HW164126   1.191   3.162   8.179  2.9158  0.1315 -0.6964
53147SOL    HW264127   1.145   3.306   8.188 -0.9201 -1.0455  0.4267
53148SOL     OW64128  10.288   6.638   6.381  0.2970  0.2822 -0.2064
53148SOL    HW164129  10.371   6.678   6.356  0.1647 -1.1523 -3.4013
53148SOL    HW264130  10.262   6.684   6.461  1.4434  4.6088 -2.0209
53149SOL     OW64131   0.577   8.052   7.126  0.5432  0.8496 -0.2391
53149SOL    HW164132   0.557   8.063   7.033  0.8217  1.7697 -0.2029
53149SOL    HW264133   0.549   7.963   7.146  2.3154 -0.0885 -1.6586
53150SOL     OW64134   6.358   9.804   1.120  0.0895 -0.4780 -0.5914
53150SOL    HW164135   6.368   9.824   1.213  1.6239 -0.8307 -0.6520
53150SOL    HW264136   6.329   9.887   1.080 -1.5620 -0.5730  0.3066
53151SOL     OW64137   0.871   9.871   5.752  0.3982 -0.3852 -0.5265
53151SOL    HW164138   0.943   9.923   5.787  0.0111 -0.0430 -0.2282
53151SOL    HW264139   0.882   9.785   5.794  0.6279 -0.3326 -0.4768
53152SOL     OW64140   6.034   0.636   4.547  0.3570  0.0447 -0.0773
53152SOL    HW164141   6.017   0.555   4.498  1.1179  0.3698 -0.9062
53152SOL    HW264142   6.128   0.650   4.539  0.0498  1.7759 -1.2059
53153SOL     OW64143   5.569   3.269   2.397  0.1089  0.0619 -0.0977
53153SOL    HW164144   5.562   3.354   2.441  1.0726 -0.3342  0.8464
53153SOL    HW264145   5.656   3.270   2.358  0.7819 -1.1141  1.2932
53154SOL     OW64146   7.634   6.789   4.560  0.1244 -0.0924 -0.3821
53154SOL    HW164147   7.569   6.845   4.603  0.0367  0.5095 -1.2693
53154SOL    HW264148   7.630   6.815   4.468  2.8154  1.1432 -0.2386
53155SOL     OW64149   7.950   2.007   4.243 -0.4136 -0.3890 -0.1859
53155SOL    HW164150   7.969   2.099   4.227 -0.5236 -0.8022 -3.3591
53155SOL    HW264151   7.856   2.004   4.260 -0.0004  0.2841  2.6942
53156SOL     OW64152   1.533  10.072   6.990 -0.0622 -0.9928  0.1916
53156SOL    HW164153   1.571  10.046   6.906  0.2099 -0.0690  0.0124
53156SOL    HW264154   1.439  10.064   6.978 -0.0103 -1.1491 -0.1072
53157SOL     OW64155   2.084   7.379   3.505  0.2017 -0.5627 -0.2390
53157SOL    HW164156   2.032   7.343   3.576  0.1421  1.2585  0.6829
53157SOL    HW264157   2.020   7.408   3.440  0.0899  0.3447  0.2518
53158SOL     OW64158   8.335   4.698   1.450 -0.0525 -0.1008 -0.7919
53158SOL    HW164159   8.307   4.670   1.363 -1.9289  0.4133 -0.3970
53158SOL    HW264160   8.376   4.784   1.436 -0.2571 -0.0675 -1.1885
53159SOL     OW64161   6.344   7.245   3.255 -0.1899  0.2425  0.4378
53159SOL    HW164162   6.303   7.306   3.316 -0.3626  1.8954 -1.2242
53159SOL    HW264163   6.398   7.301   3.198  0.3288 -1.2615 -0.6155
53160SOL     OW64164  10.352  11.165  11.514  0.6529  0.4636  0.4984
53160SOL    HW164165  10.366  11.110  11.591  0.7724  0.6561  0.6122
53160SOL    HW264166  10.275  11.218  11.536 -1.4346 -1.8302 -0.7957
53161SOL     OW64167  11.918   2.432   7.171  0.0103 -0.2599 -0.1670
53161SOL    HW164168  11.826   2.459   7.169  0.1518  0.2974  0.2676
53161SOL    HW264169  11.915   2.336   7.174 -0.5739 -0.2346  0.3694
53162SOL     OW64170   1.753   8.267  10.757 -0.0221 -0.1880 -0.2800
53162SOL    HW164171   1.818   8.197  10.771 -0.0026 -0.4839 -1.7101
53162SOL    HW264172   1.804   8.348  10.760  0.0874 -0.2799  0.5778
53163SOL     OW64173   6.977   3.772   4.473 -0.5881 -0.3263 -0.2476
53163SOL    HW164174   6.982   3.863   4.503 -0.3786  0.1434 -1.6296
53163SOL    HW264175   7.040   3.725   4.527  0.9845  0.8140 -1.0060
53164SOL     OW64176   4.343   3.894   1.515  0.5558 -0.1569 -0.6077
53164SOL    HW164177   4.276   3.913   1.581 -0.8239 -0.3476 -1.8976
53164SOL    HW264178   4.425   3.886   1.565 -0.4434 -0.3616  1.0603
53165SOL     OW64179   0.040  10.454   9.961  0.6014 -0.3520  0.0029
53165SOL    HW164180   0.107  10.522   9.952 -0.4097  0.6866  0.0124
53165SOL    HW264181  -0.038  10.502   9.989 -0.2634 -1.4673 -0.4382
53166SOL     OW64182  11.418  11.230   0.702 -0.0724 -0.6838  0.8250
53166SOL    HW164183  11.353  11.274   0.756  0.9481  0.2294  1.3577
53166SOL    HW264184  11.479  11.192   0.764  1.8477  1.4777  0.4181
53167SOL     OW64185   1.170   4.577   6.687  0.4174  0.3165 -0.4640
53167SOL    HW164186   1.095   4.549   6.635  2.0899 -1.7883 -1.8851
53167SOL    HW264187   1.192   4.664   6.653 -0.2034  0.1375 -1.3535
53168SOL     OW64188  10.196   0.373   4.056  0.4604  0.4078 -0.3419
53168SOL    HW164189  10.239   0.371   4.142 -0.8579 -0.0357  0.3362
53168SOL    HW264190  10.172   0.283   4.040 -1.8019  0.8660  0.1599
53169SOL     OW64191   0.201   3.097   9.828 -0.5324 -0.1054  0.3325
53169SOL    HW164192   0.115   3.096   9.869  0.0779  2.0609  1.8255
53169SOL    HW264193   0.191   3.155   9.753 -0.6058 -0.7251 -0.1511
53170SOL     OW64194   2.713   6.691   0.290 -0.0973  0.0901 -0.4954
53170SOL    HW164195   2.690   6.631   0.361  2.7591 -0.3089  0.1816
53170SOL    HW264196   2.717   6.777   0.331  4.1774 -0.4526  0.6629
53171SOL     OW64197   0.805   3.686   6.191 -0.1890 -0.0926  0.1409
53171SOL    HW164198   0.857   3.678   6.271  2.2909  1.0782 -1.2471
53171SOL    HW264199   0.716   3.705   6.222  0.5373 -0.4005  2.5932
53172SOL     OW64200   7.135   7.071  11.349 -0.1534  0.1577  0.3265
53172SOL    HW164201   7.205   7.005  11.343 -0.1102  0.3025 -1.0588
53172SOL    HW264202   7.086   7.046  11.427  1.1529 -0.2359  1.0699
53173SOL     OW64203  11.434   8.786   5.050  0.1537  0.5827  0.1342
53173SOL    HW164204  11.450   8.696   5.022  0.2687  0.6209  0.0794
53173SOL    HW264205  11.475   8.841   4.984  0.2749  0.6737  0.2831
53174SOL     OW64206   1.503   1.750   2.828 -0.5745  0.3864 -0.3351
53174SOL    HW164207   1.529   1.747   2.920  0.2895  0.2887 -0.5788
53174SOL    HW264208   1.452   1.831   2.821 -0.8432  0.2771  0.2761
53175SOL     OW64209   8.866   0.462   5.355  0.3269  0.2132 -0.0482
53175SOL    HW164210   8.770   0.470   5.350  0.2530  0.7427  1.5918
53175SOL    HW264211   8.881   0.400   5.426  1.2016 -0.5598 -0.8966
53176SOL     OW64212   2.183   4.010   7.312 -0.2748 -0.2423 -0.1937
53176SOL    HW164213   2.214   3.944   7.249 -0.2821 -0.4876  0.0568
53176SOL    HW264214   2.140   3.959   7.381  1.0265 -0.0981  0.7631
53177SOL     OW64215   5.770   0.831   8.030  0.3336 -0.1533  0.3884
53177SOL    HW164216   5.711   0.896   8.066  0.4946  0.4361 -0.3818
53177SOL    HW264217   5.851   0.841   8.081  0.4018  0.3524  0.1924
53178SOL     OW64218   0.281   3.337   2.508  0.0654  0.2049 -0.2712
53178SOL    HW164219   0.309   3.250   2.539 -0.0988  0.7744  1.6365
53178SOL    HW264220   0.225   3.318   2.433 -0.4002 -1.4026  0.4195
53179SOL     OW64221  10.084   6.290   1.517  0.1529  0.4462 -0.1196
53179SOL    HW164222   9.998   6.330   1.520  0.1197  0.3397  0.3876
53179SOL    HW264223  10.077   6.212   1.571  0.1831 -0.3243 -1.1972
53180SOL     OW64224   6.819   9.795   9.156 -0.1014 -0.4836  0.2116
53180SOL    HW164225   6.809   9.705   9.185 -1.2441 -1.2886 -2.4065
53180SOL    HW264226   6.755   9.806   9.086  0.1037  2.3318  0.3221
53181SOL     OW64227   2.265   1.666   2.047  0.7366 -0.0233 -0.0746
53181SOL    HW164228   2.199   1.633   1.985  0.5216  1.3192 -0.5936
53181SOL    HW264229   2.225   1.655   2.133  0.8611 -1.5173 -0.1863
53182SOL     OW64230   5.443   4.513   9.641 -0.0491  0.2804 -0.1543
53182SOL    HW164231   5.443   4.476   9.552  0.0262 -0.8047  0.2853
53182SOL    HW264232   5.511   4.580   9.639  0.1599  0.0572 -0.8330
53183SOL     OW64233  10.075   9.540   8.413 -0.4344 -0.4176  0.3488
53183SOL    HW164234  10.111   9.451   8.410  1.9603  0.4769 -0.4184
53183SOL    HW264235   9.988   9.532   8.376  0.2982 -2.2421 -1.1560
53184SOL     OW64236   3.129   4.435   9.975  0.1002  0.0756 -0.4055
53184SOL    HW164237   3.182   4.355   9.981  0.6866  0.5351  0.8718
53184SOL    HW264238   3.062   4.424  10.043  1.6078  1.6539  1.4424
53185SOL     OW64239   2.307  11.306   7.735 -0.0134  0.0175  0.4321
53185SOL    HW164240   2.375  11.263   7.787  0.6912 -0.6096 -0.9611
53185SOL    HW264241   2.329  11.399   7.738 -0.1158  0.0207  1.4198
53186SOL     OW64242   8.010   8.627   8.611  0.2828  0.2113 -0.2707
53186SOL    HW164243   8.001   8.548   8.558 -0.4237  0.6525 -0.8320
53186SOL    HW264244   7.921   8.649   8.638  0.4753  0.7872 -0.0767
53187SOL     OW64245   9.002   3.732   8.825  0.1074  0.0458 -0.4366
53187SOL    HW164246   9.096   3.726   8.809 -0.2505 -1.3545 -2.4520
53187SOL    HW264247   8.962   3.678   8.756 -2.0633 -1.7268  1.9781
53188SOL     OW64248   5.060   7.312   1.420 -0.4233  0.5781 -0.5973
53188SOL    HW164249   5.077   7.238   1.477  1.3094  0.9221 -0.6217
53188SOL    HW264250   4.999   7.278   1.354  0.2141 -0.7725 -0.5145
53189SOL     OW64251  11.718   8.698   9.675 -0.8307  0.2003  0.1332
53189SOL    HW164252  11.781   8.717   9.606 -0.3772  0.1097  0.5196
53189SOL    HW264253  11.637   8.740   9.645 -0.1840  1.6844  0.3640
53190SOL     OW64254   1.235   2.536  11.517  0.0994  0.3222  0.2421
53190SOL    HW164255   1.217   2.597  11.446 -2.5764 -1.5996 -0.8976
53190SOL    HW264256   1.226   2.588  11.597  0.5829  1.9526 -0.7199
53191SOL     OW64257   8.802   6.204   3.682 -0.2621  0.6657 -0.7473
53191SOL    HW164258   8.733   6.269   3.671 -1.8132 -1.1584 -2.5895
53191SOL    HW264259   8.818   6.170   3.593 -0.1556 -2.0303  0.1983
53192SOL     OW64260   5.427   5.417   3.158  0.2814 -1.1816  0.5312
53192SOL    HW164261   5.335   5.433   3.139  0.5672  0.5907  0.5039
53192SOL    HW264262   5.472   5.428   3.073  0.8787  1.2102  1.0984
53193SOL     OW64263  10.681   4.654   9.586  0.1884 -0.4315 -0.0761
53193SOL    HW164264  10.712   4.726   9.532 -0.3427 -1.6081 -2.0588
53193SOL    HW264265  10.588   4.673   9.601 -0.2100 -1.1546 -1.4626
53194SOL     OW64266  10.151   2.286   9.064  0.2822  0.0140 -0.3118
53194SOL    HW164267  10.056   2.285   9.056  0.1419 -0.8643  1.0861
53194SOL    HW264268  10.177   2.373   9.033 -0.9383  0.1903 -0.9107
53195SOL     OW64269   7.327  11.836   9.316  0.6434  0.4440  0.1402
53195SOL    HW164270   7.364  11.748   9.308 -0.9104 -0.4077  1.7055
53195SOL    HW264271   7.403  11.894   9.314  1.7654 -0.9772 -0.1452
53196SOL     OW64272   0.403   7.399   5.635 -0.1580 -0.1744  0.1876
53196SOL    HW164273   0.402   7.325   5.695  0.1577 -1.4306 -1.2828
53196SOL    HW264274   0.327   7.385   5.579 -0.2308  0.7545  0.0422
53197SOL     OW64275   2.062  11.415  10.603 -0.0283 -0.1931  0.3016
53197SOL    HW164276   1.989  11.415  10.665 -0.3654  0.6500 -0.0854
53197SOL    HW264277   2.062  11.327  10.566 -0.3307 -0.4550  0.9039
53198SOL     OW64278   9.117   6.011   5.622 -0.2079  0.9273 -0.5821
53198SOL    HW164279   9.189   6.059   5.581 -0.4038  0.6176 -1.3188
53198SOL    HW264280   9.147   5.920   5.624 -0.0985  0.9731  0.2175
53199SOL     OW64281  10.774   4.488   7.352  0.0351  0.2400 -0.0377
53199SOL    HW164282  10.798   4.402   7.385 -0.3800  0.4991  0.9935
53199SOL    HW264283  10.758   4.475   7.259  0.8929 -0.5971 -0.0768
53200SOL     OW64284   5.138   1.118   8.529 -0.4479  0.1886 -0.3598
53200SOL    HW164285   5.114   1.150   8.442  0.3002  0.8987 -0.3253
53200SOL    HW264286   5.122   1.193   8.587 -1.2063 -0.3702  0.1614
53201SOL     OW64287   0.512   3.328   4.396 -0.1999  0.7323  0.3734
53201SOL    HW164288   0.443   3.323   4.330 -0.3816 -0.5724  0.6331
53201SOL    HW264289   0.590   3.293   4.353 -0.1430  0.5305  0.6424
53202SOL     OW64290   1.579   7.146  11.059  0.2946  0.0211  0.4410
53202SOL    HW164291   1.586   7.057  11.024  0.3123  1.0608 -2.4664
53202SOL    HW264292   1.668   7.169  11.085  0.4043 -0.5749  0.6059
53203SOL     OW64293   4.173   9.362   3.011  0.5555  0.2370 -0.2707
53203SOL    HW164294   4.214   9.440   3.049 -3.6948  2.2450  0.8587
53203SOL    HW264295   4.192   9.369   2.918  1.0260  2.1823 -0.0811
53204SOL     OW64296   4.419   1.420   9.174  0.2698 -0.4911  0.2211
53204SOL    HW164297   4.495   1.458   9.129  0.6624  0.0099  1.2662
53204SOL    HW264298   4.389   1.351   9.116  0.6845  0.2069 -0.8578
53205SOL     OW64299   1.762   2.878   5.353 -0.0463  0.4649 -0.1459
53205SOL    HW164300   1.839   2.821   5.351  0.8451  1.6336 -0.3320
53205SOL    HW264301   1.715   2.858   5.273  1.0249  1.0044 -0.9268
53206SOL     OW64302   1.724   5.119  11.704 -0.0938 -0.4162  0.3289
53206SOL    HW164303   1.695   5.089  11.618  1.2322  0.9450 -0.6536
53206SOL    HW264304   1.650   5.170  11.738 -0.7590 -1.2600  0.1721
53207SOL     OW64305   8.320   8.414   9.666 -0.6161 -0.1410 -0.0650
53207SOL    HW164306   8.382   8.435   9.596 -0.4277  0.6428  0.3278
53207SOL    HW264307   8.320   8.318   9.669  0.5529 -0.1627 -0.0920
53208SOL     OW64308   1.049  10.417  11.283  0.3916 -0.0704 -0.6328
53208SOL    HW164309   1.068  10.463  11.364 -2.2655 -0.6595  0.4301
53208SOL    HW264310   1.135  10.394  11.247  1.6570 -0.2385  2.2552
53209SOL     OW64311   2.458   5.148  11.052 -0.0507 -0.5243 -0.8399
53209SOL    HW164312   2.503   5.066  11.069  0.8201 -0.2977 -1.8983
53209SOL    HW264313   2.410   5.132  10.970 -1.1872 -0.4748 -0.2043
53210SOL     OW64314   9.674   1.300   4.219 -0.1563 -0.1369  0.5555
53210SOL    HW164315   9.729   1.221   4.208 -1.4650 -1.0648  0.4690
53210SOL    HW264316   9.692   1.328   4.308  0.0911 -0.7300  0.7031
53211SOL     OW64317   6.364  11.524  11.324  0.0577  0.3841  0.3950
53211SOL    HW164318   6.379  11.478  11.407  0.4494  0.1825  0.2142
53211SOL    HW264319   6.386  11.459  11.257 -0.5480  0.4493  0.1292
53212SOL     OW64320  10.864   3.253   6.835  0.2390 -0.4210 -0.2271
53212SOL    HW164321  10.796   3.318   6.814 -0.0887 -0.4344  0.7312
53212SOL    HW264322  10.836   3.173   6.791  0.9712  0.2297 -1.9450
53213SOL     OW64323  11.193   3.118   6.467  0.3307 -0.2494  0.7901
53213SOL    HW164324  11.269   3.072   6.502 -0.1915 -2.5090 -0.8796
53213SOL    HW264325  11.227   3.174   6.398  0.8408  1.3576  2.2474
53214SOL     OW64326   6.766   0.022  10.548  0.1500  0.3595 -0.4071
53214SOL    HW164327   6.710  -0.037  10.497  0.5931 -2.2309  1.8508
53214SOL    HW264328   6.817   0.070  10.483  2.0344 -4.0281 -2.5280
53215SOL     OW64329   5.744   0.441  10.797  0.3445 -0.0351  0.1945
53215SOL    HW164330   5.810   0.400  10.853  0.6296  0.6796  0.3895
53215SOL    HW264331   5.661   0.426  10.843  0.2861 -1.3946 -0.3151
53216SOL     OW64332   0.517   4.070   4.756  0.3285  0.3020 -0.0322
53216SOL    HW164333   0.506   3.992   4.702 -0.0310  0.7822 -0.6724
53216SOL    HW264334   0.470   4.139   4.708  2.4124  1.4129 -0.5952
53217SOL     OW64335   3.780  11.755   5.871  0.3042 -0.7604  0.0457
53217SOL    HW164336   3.836  11.833   5.869 -1.5096  0.5896 -1.3662
53217SOL    HW264337   3.800  11.710   5.788 -0.8318 -0.1201 -0.6019
53218SOL     OW64338   6.776   8.484  10.366 -0.2207 -0.2458  0.2682
53218SOL    HW164339   6.862   8.491  10.325  0.4241 -2.2905  1.1523
53218SOL    HW264340   6.794   8.475  10.460 -1.3116 -1.5625  0.3940
53219SOL     OW64341   0.145   1.838   7.449 -0.0501 -0.2436 -0.0063
53219SOL    HW164342   0.067   1.816   7.500  0.9990 -0.5372  1.5530
53219SOL    HW264343   0.112   1.859   7.362 -1.7649 -1.2851  0.3502
53220SOL     OW64344   4.027  11.104   6.612  0.1168  0.7628  0.5215
53220SOL    HW164345   4.122  11.106   6.602  0.1173 -1.2997 -0.4176
53220SOL    HW264346   4.012  11.076   6.703  0.4995 -1.6203 -0.0943
53221SOL     OW64347   0.261   5.174   3.445 -0.3279 -0.2334 -0.6278
53221SOL    HW164348   0.308   5.237   3.391  0.8462 -1.0706 -0.6085
53221SOL    HW264349   0.262   5.212   3.533 -0.3656  0.1135 -0.7757
53222SOL     OW64350   7.969   1.551   0.738 -0.3955 -0.1370 -0.6187
53222SOL    HW164351   7.898   1.610   0.763 -1.6407 -1.3749 -1.0652
53222SOL    HW264352   7.927   1.486   0.681  1.1575 -0.7678 -1.1086
53223SOL     OW64353   4.874   9.968   0.982 -0.4237 -0.2548 -0.1957
53223SOL    HW164354   4.906   9.964   0.892  0.8155 -0.0372  0.2165
53223SOL    HW264355   4.784  10.000   0.974 -0.9343 -1.8641 -1.4595
53224SOL     OW64356   7.576  10.924   3.522  0.3594 -0.5554  0.0259
53224SOL    HW164357   7.575  10.982   3.599  0.1042 -0.9305  0.3068
53224SOL    HW264358   7.560  10.837   3.557  0.6267 -0.7866 -0.4137
53225SOL     OW64359  11.250   2.486   3.017  0.7495 -0.1936  0.3015
53225SOL    HW164360  11.166   2.530   3.017  0.8178 -0.0450 -0.2408
53225SOL    HW264361  11.255   2.441   3.101  0.4245  0.3486  0.6139
53226SOL     OW64362   7.046   8.706  10.920  0.5730 -0.1760  0.2966
53226SOL    HW164363   7.130   8.714  10.966  0.4707 -1.0778  0.6524
53226SOL    HW264364   7.052   8.625  10.870  0.7460  0.8650 -1.4718
53227SOL     OW64365   2.681   5.149   2.628 -0.3562  0.4120 -0.0527
53227SOL    HW164366   2.708   5.098   2.704  0.0537 -0.5742 -0.8470
53227SOL    HW264367   2.735   5.228   2.632 -0.0685  0.1952  0.4726
53228SOL     OW64368   1.234   1.471   3.407  0.5690  0.8135 -0.0229
53228SOL    HW164369   1.257   1.445   3.318 -0.7228  0.4190 -0.2688
53228SOL    HW264370   1.180   1.550   3.396  0.9794  1.1621  0.4521
53229SOL     OW64371   1.180   9.393   0.234 -0.0779 -0.2991 -0.1685
53229SOL    HW164372   1.220   9.465   0.186  1.2784 -0.2465  0.9558
53229SOL    HW264373   1.105   9.367   0.181 -0.5760  1.8842 -0.6463
53230SOL     OW64374   4.912   4.205   5.728 -0.4986 -0.3575 -0.3819
53230SOL    HW164375   4.912   4.124   5.677 -2.2554 -1.7620  1.6689
53230SOL    HW264376   4.847   4.260   5.685 -0.3807 -0.6166 -0.9056
53231SOL     OW64377   9.049   3.750  10.884 -0.3083  0.6605 -0.2828
53231SOL    HW164378   8.996   3.698  10.945 -3.3836  0.0654 -3.1626
53231SOL    HW264379   9.138   3.717  10.895 -1.7610 -4.1512 -0.6926
53232SOL     OW64380   8.313   4.640  10.946  0.1656 -0.1886  0.6381
53232SOL    HW164381   8.281   4.550  10.951  0.4124 -0.3299 -0.1758
53232SOL    HW264382   8.288   4.679  11.030 -2.1886 -0.2760  0.0629
53233SOL     OW64383  10.128   0.835   3.689  0.5011 -0.0423  0.5821
53233SOL    HW164384  10.060   0.769   3.677  0.4777  0.2138 -0.7782
53233SOL    HW264385  10.171   0.842   3.604  1.3864  0.7417  1.0676
53234SOL     OW64386   3.538   2.108  10.792  0.0442  0.1939 -0.1329
53234SOL    HW164387   3.582   2.166  10.855 -1.7790  0.0409  1.3505
53234SOL    HW264388   3.608   2.081  10.733  1.5847  1.3816  1.0423
53235SOL     OW64389   2.002   2.576  11.632  0.1273  0.0144  0.4868
53235SOL    HW164390   1.919   2.548  11.594  0.9159 -0.2022 -1.1719
53235SOL    HW264391   2.019   2.661  11.590 -0.5476  1.4344  2.8673
53236SOL     OW64392   6.129   0.152   9.317 -0.0345 -0.3297  0.5363
53236SOL    HW164393   6.036   0.144   9.334  0.2775 -0.7300  2.2257
53236SOL    HW264394   6.141   0.243   9.291 -0.8464 -0.1660  0.7139
53237SOL     OW64395   0.040   7.453   7.642  0.2382 -0.4153 -0.1338
53237SOL    HW164396  -0.041   7.460   7.691 -1.7664 -2.1933 -2.9048
53237SOL    HW264397   0.067   7.362   7.652  1.2122 -0.1573 -0.2886
53238SOL     OW64398   0.039   0.783   9.521  0.1290 -0.0317  0.2267
53238SOL    HW164399   0.081   0.862   9.488 -0.3393  1.2865  2.5484
53238SOL    HW264400   0.112   0.724   9.541  0.4491 -0.6452 -2.3526
53239SOL     OW64401   3.041   8.440   5.740  0.0178  0.6349 -0.2745
53239SOL    HW164402   2.987   8.418   5.664 -0.9996  0.9495  0.3329
53239SOL    HW264403   3.084   8.358   5.764 -0.4889  0.2870 -0.5458
53240SOL     OW64404  10.817   5.738   8.915  0.6972 -0.3350  0.3029
53240SOL    HW164405  10.785   5.689   8.840 -1.0713  0.5389  0.4387
53240SOL    HW264406  10.905   5.702   8.931  1.1475 -0.5455 -2.1560
53241SOL     OW64407  11.997   5.213   7.951 -0.2791 -0.0809 -0.5168
53241SOL    HW164408  12.032   5.268   7.881 -1.4473  0.1923 -0.9122
53241SOL    HW264409  11.968   5.275   8.018  3.3444 -0.3687  1.5636
53242SOL     OW64410   2.691   2.520  10.722 -0.5250  0.5240 -0.3387
53242SOL    HW164411   2.731   2.605  10.746  2.1957 -0.5121 -0.7849
53242SOL    HW264412   2.604   2.522  10.762  0.5878  2.3264  2.2789
53243SOL     OW64413   8.198   2.265   0.657 -0.3806  0.5535  0.4436
53243SOL    HW164414   8.247   2.348   0.656  0.5923  0.0249 -1.6184
53243SOL    HW264415   8.137   2.273   0.584 -1.2794 -0.0238  1.1104
53244SOL     OW64416   0.176  11.128   3.868  0.7322  0.4176 -0.3607
53244SOL    HW164417   0.094  11.137   3.819  0.8773  0.7450 -0.5519
53244SOL    HW264418   0.164  11.183   3.945 -0.1884 -1.4908  0.9326
53245SOL     OW64419   2.269   1.743   7.848 -0.1678 -0.2778  0.1296
53245SOL    HW164420   2.219   1.722   7.927 -0.5162 -0.2597 -0.0820
53245SOL    HW264421   2.307   1.829   7.865 -1.2850  0.3163 -0.2062
53246SOL     OW64422   7.905   3.456   2.944  0.4805  0.1387  0.0715
53246SOL    HW164423   7.840   3.395   2.909 -1.0648  1.8161 -0.1078
53246SOL    HW264424   7.856   3.512   3.004  1.8277  1.2361  0.1973
53247SOL     OW64425   5.530  11.978  10.850 -0.6168 -0.0994 -0.4857
53247SOL    HW164426   5.435  11.965  10.855 -0.7399  1.0419  3.6299
53247SOL    HW264427   5.567  11.891  10.862 -1.1991 -0.2190  0.5543
53248SOL     OW64428   1.242  10.744   6.145 -0.0571  0.3150  0.2733
53248SOL    HW164429   1.208  10.690   6.217  0.5341 -0.2761  0.1186
53248SOL    HW264430   1.281  10.820   6.189  0.2509 -0.0147  0.5750
53249SOL     OW64431   9.322   9.846   2.927 -0.2398 -0.0450 -0.0423
53249SOL    HW164432   9.263   9.908   2.970  0.6581  1.7787 -1.3316
53249SOL    HW264433   9.346   9.888   2.844  2.5463 -0.8698  0.2347
53250SOL     OW64434   3.650   9.669   3.115  0.3074 -0.1615  0.2703
53250SOL    HW164435   3.559   9.637   3.114  0.8675 -1.8529 -0.0187
53250SOL    HW264436   3.687   9.638   3.032  1.1507  0.5591  0.3600
53251SOL     OW64437   8.662  10.659  11.878 -0.1013 -0.1963 -0.0147
53251SOL    HW164438   8.593  10.650  11.813 -1.3591  1.3059  1.0148
53251SOL    HW264439   8.674  10.571  11.914 -1.8790 -0.3930  0.1531
53252SOL     OW64440   5.892   9.196   1.776  0.3188 -0.5561 -0.0889
53252SOL    HW164441   5.821   9.163   1.832  2.7069 -0.9887  2.9942
53252SOL    HW264442   5.935   9.263   1.830 -0.6182  3.4678 -3.7776
53253SOL     OW64443   4.999   5.878   5.801 -0.0247 -0.3341 -0.4835
53253SOL    HW164444   4.992   5.783   5.814 -3.3373 -0.1288 -0.1547
53253SOL    HW264445   4.991   5.890   5.707 -2.4894 -0.2878 -0.3238
53254SOL     OW64446   1.144   4.197   0.247  0.0176  0.3931  0.2902
53254SOL    HW164447   1.159   4.291   0.240 -0.1682  0.4720  0.8923
53254SOL    HW264448   1.188   4.160   0.171  1.2466  0.8356  0.7644
53255SOL     OW64449   5.283   0.883  11.202  0.0792  0.2278  0.9608
53255SOL    HW164450   5.268   0.957  11.143 -1.8358  0.1200  1.2462
53255SOL    HW264451   5.371   0.852  11.180  2.5459  4.7033  3.1848
53256SOL     OW64452   5.231   8.143   5.863 -0.2543 -0.1224  0.3293
53256SOL    HW164453   5.169   8.195   5.811  0.0083 -0.7241 -0.6262
53256SOL    HW264454   5.177   8.102   5.931 -0.7726 -0.0196 -0.0145
53257SOL     OW64455   7.364   2.658   8.494  0.5976  0.5937  0.4043
53257SOL    HW164456   7.315   2.578   8.475  0.8350  0.5385 -0.0020
53257SOL    HW264457   7.353   2.711   8.415  1.8407  0.2488 -0.0298
53258SOL     OW64458   8.842   4.435   5.559  0.0971  0.1658  0.3548
53258SOL    HW164459   8.879   4.489   5.490  1.6427 -1.0175  0.1970
53258SOL    HW264460   8.914   4.423   5.621  0.0918 -2.3372 -0.0296
53259SOL     OW64461   2.373   2.522   3.335 -0.0427  0.1058 -0.3292
53259SOL    HW164462   2.299   2.537   3.393  1.6973  0.0497  2.0158
53259SOL    HW264463   2.361   2.586   3.264 -2.7506 -0.4937 -0.5446
53260SOL     OW64464   1.701   7.104   8.838 -0.3371  0.3477 -0.2545
53260SOL    HW164465   1.606   7.096   8.832 -0.2086 -2.4780  0.0954
53260SOL    HW264466   1.733   7.014   8.835  2.1122  0.9084  3.2180
53261SOL     OW64467  10.174  10.702   6.307  0.0800 -0.8226  0.3878
53261SOL    HW164468  10.134  10.636   6.251 -1.1941  1.3821 -1.4748
53261SOL    HW264469  10.268  10.693   6.291 -0.1397 -1.4996 -0.6153
53262SOL     OW64470   9.523   4.719  11.004 -0.0502  0.3060  0.7392
53262SOL    HW164471   9.559   4.732  11.091 -0.6849 -1.4905  1.3255
53262SOL    HW264472   9.458   4.649  11.015 -1.5218  1.3357 -0.8221
53263SOL     OW64473  11.846   1.668   1.701 -0.3069  0.0242  0.8839
53263SOL    HW164474  11.815   1.730   1.768 -0.1155  0.3536  0.6696
53263SOL    HW264475  11.927   1.707   1.668 -0.4758 -0.0669  0.3559
53264SOL     OW64476   9.868   2.022  10.723 -0.6387  0.4702  0.3161
53264SOL    HW164477   9.923   2.014  10.801  1.3890  0.8640 -1.0129
53264SOL    HW264478   9.837   2.112  10.724 -0.4653  0.5281  0.5548
53265SOL     OW64479   4.190  10.274   4.532  0.2070 -0.2607 -0.1931
53265SOL    HW164480   4.241  10.291   4.452  0.0226  0.7759 -0.1003
53265SOL    HW264481   4.227  10.333   4.597 -1.9673  1.5452 -0.4853
53266SOL     OW64482   3.831   3.442   9.064 -0.2946  0.8588 -0.1651
53266SOL    HW164483   3.804   3.351   9.063 -0.5708  0.9414 -0.4413
53266SOL    HW264484   3.811   3.473   9.152  0.2919  0.5088  0.0940
53267SOL     OW64485   9.608  11.857   6.460 -0.1224 -0.3134 -0.5299
53267SOL    HW164486   9.606  11.895   6.372 -1.4074 -1.0713 -0.8690
53267SOL    HW264487   9.588  11.929   6.518 -0.3964 -0.0337 -0.9658
53268SOL     OW64488   6.510  11.201   2.039  0.6759  0.1437 -0.2271
53268SOL    HW164489   6.567  11.278   2.032 -2.0338  2.3412 -0.4336
53268SOL    HW264490   6.509  11.164   1.950  2.1206 -0.2533 -0.0941
53269SOL     OW64491  11.926   3.613   5.489 -0.2204 -0.3167 -0.9935
53269SOL    HW164492  11.870   3.648   5.420 -1.4905 -1.3307 -0.5201
53269SOL    HW264493  11.929   3.519   5.472  1.1563 -0.3178 -0.8507
53270SOL     OW64494   9.968   3.567   5.610  0.5906  0.2697  0.2317
53270SOL    HW164495   9.884   3.576   5.655  0.5282 -0.0405  0.1813
53270SOL    HW264496  10.030   3.545   5.680 -0.1575 -4.0770 -0.2003
53271SOL     OW64497   4.443   5.623  10.748  0.0196  0.2782 -0.0913
53271SOL    HW164498   4.362   5.668  10.772 -0.1708  0.9864 -1.9154
53271SOL    HW264499   4.421   5.530  10.752 -0.4171  0.4075  0.9011
53272SOL     OW64500  11.144  11.356  11.999 -0.1302 -0.1991  0.3115
53272SOL    HW164501  11.066  11.348  12.053 -0.4459  0.3879 -0.0459
53272SOL    HW264502  11.180  11.267  11.994 -0.6915 -0.4418  0.5981
53273SOL     OW64503   4.981  11.869   2.496  0.2088 -0.4530 -0.2300
53273SOL    HW164504   5.039  11.903   2.564 -1.6418 -1.5128  2.0234
53273SOL    HW264505   5.036  11.807   2.448  1.6334  0.4562  0.1497
53274SOL     OW64506   9.651   2.839   6.601  0.6545 -0.0300 -0.4646
53274SOL    HW164507   9.645   2.787   6.521 -1.8307  1.8973 -1.6663
53274SOL    HW264508   9.662   2.929   6.570  0.3402  0.6881  1.3829
53275SOL     OW64509   9.681  10.934   3.349  0.5415 -0.2078  0.6299
53275SOL    HW164510   9.739  10.864   3.379  0.0760 -0.9278 -0.0957
53275SOL    HW264511   9.715  10.959   3.263 -0.4332 -0.9401 -0.0010
53276SOL     OW64512   8.829  10.513   9.328 -0.0194 -0.4768  0.5840
53276SOL    HW164513   8.737  10.490   9.314  0.0620  0.3785 -1.8316
53276SOL    HW264514   8.877  10.433   9.307 -0.1354 -0.4166  0.0798
53277SOL     OW64515   5.990   5.495   6.174 -0.4215 -0.3892 -0.1905
53277SOL    HW164516   5.917   5.548   6.207 -0.5229 -0.5967 -0.0793
53277SOL    HW264517   5.948   5.418   6.136 -0.3329  0.0563 -1.2077
53278SOL     OW64518   3.698  10.825   2.843  0.0063  0.1581  0.4837
53278SOL    HW164519   3.700  10.841   2.937  2.4350  3.0253  0.1191
53278SOL    HW264520   3.673  10.910   2.805 -0.5811 -0.8401 -1.4731
53279SOL     OW64521   8.405   3.500   4.389 -0.5741  0.4933  0.1921
53279SOL    HW164522   8.432   3.423   4.339  0.1472 -0.5019  2.0234
53279SOL    HW264523   8.351   3.551   4.328  2.8203  1.0447 -2.6975
53280SOL     OW64524   2.803   7.469  10.953 -0.3920 -0.1513 -0.9735
53280SOL    HW164525   2.736   7.484  11.020 -0.7055  0.3012 -1.3840
53280SOL    HW264526   2.862   7.404  10.992 -1.6892 -1.4088 -1.0470
53281SOL     OW64527   2.901   6.113  11.053  0.4011 -0.2954 -0.3186
53281SOL    HW164528   2.854   6.049  10.999 -0.7838  0.0414  0.2701
53281SOL    HW264529   2.981   6.067  11.079  0.2679 -1.0061 -1.0972
53282SOL     OW64530   0.240   5.151   9.045  0.0231  0.0950  0.0207
53282SOL    HW164531   0.245   5.203   8.965  0.4637  2.4919  1.5106
53282SOL    HW264532   0.148   5.157   9.072  0.5122  2.1095  1.3942
53283SOL     OW64533   6.153   3.988   5.045 -0.3970 -0.4428  0.4516
53283SOL    HW164534   6.130   4.026   4.961  2.9339  0.1907 -0.3083
53283SOL    HW264535   6.164   4.064   5.103 -0.9853 -0.7737  1.0143
53284SOL     OW64536   1.966   8.463   1.952  0.3856  0.2618 -0.1714
53284SOL    HW164537   1.945   8.386   1.900 -0.2342 -0.2151  0.7528
53284SOL    HW264538   1.897   8.525   1.933  1.0821  0.7378 -1.1919
53285SOL     OW64539  11.487   9.393   9.612 -0.8072  0.3946 -0.9189
53285SOL    HW164540  11.403   9.436   9.605 -1.4989 -0.4178  1.2895
53285SOL    HW264541  11.534   9.443   9.679 -1.4761 -1.8738  1.4015
53286SOL     OW64542   5.385   6.109   9.606  0.2210 -0.1316  0.1499
53286SOL    HW164543   5.428   6.063   9.677  0.0491  0.8885  0.9358
53286SOL    HW264544   5.359   6.193   9.643 -1.9520 -0.4595 -0.4292
53287SOL     OW64545   1.629   3.212   3.968 -0.5299 -0.4443  0.4959
53287SOL    HW164546   1.722   3.212   3.944 -0.9857  3.1010 -2.0457
53287SOL    HW264547   1.584   3.185   3.888 -1.7859 -0.3300  1.1438
53288SOL     OW64548  10.219   5.997   2.380  0.4243 -0.1496 -0.3535
53288SOL    HW164549  10.273   6.007   2.458  0.3294  0.7404 -0.3886
53288SOL    HW264550  10.156   6.069   2.385 -0.5849 -0.9941 -0.4602
53289SOL     OW64551   5.811   1.020   8.482 -0.1350 -0.1991  0.6183
53289SOL    HW164552   5.860   0.957   8.534  0.9904 -1.5793 -1.9409
53289SOL    HW264553   5.864   1.032   8.402 -1.7875  1.7220 -0.2808
53290SOL     OW64554   9.400   2.705   1.322 -0.4178  0.1355 -0.4117
53290SOL    HW164555   9.380   2.773   1.257  1.4630  0.9132 -0.2357
53290SOL    HW264556   9.386   2.749   1.406 -0.2285 -0.0188 -0.3003
53291SOL     OW64557   8.955  11.136   5.767  0.4790 -0.3004  0.2876
53291SOL    HW164558   8.975  11.185   5.687  0.7412 -0.0202  0.5266
53291SOL    HW264559   8.937  11.047   5.736 -2.0042  0.3669 -0.3769
53292SOL     OW64560   3.645   0.774   5.975 -0.9683  0.4252 -0.0182
53292SOL    HW164561   3.709   0.711   6.006 -1.3944  0.0529  0.1052
53292SOL    HW264562   3.599   0.730   5.904 -0.2280  1.1494 -0.9773
53293SOL     OW64563   1.503   7.302   8.501  0.5561  0.2684 -0.1218
53293SOL    HW164564   1.553   7.384   8.495  0.7467  0.0931 -1.2888
53293SOL    HW264565   1.569   7.233   8.498  0.2689  0.0180 -2.2803
53294SOL     OW64566   7.662   9.286  10.891  0.4808  0.2839  0.0077
53294SOL    HW164567   7.626   9.284  10.979 -0.1377  0.3731 -0.2445
53294SOL    HW264568   7.623   9.210  10.847  2.2355 -0.9117  0.3616
53295SOL     OW64569   2.537   7.169   5.615 -0.3344 -0.0916  1.2554
53295SOL    HW164570   2.452   7.208   5.635  0.4233  1.0850  2.3798
53295SOL    HW264571   2.587   7.240   5.576  0.7353 -0.2104  2.3603
53296SOL     OW64572   2.345  10.626  10.638  0.1892  0.0356  0.2069
53296SOL    HW164573   2.296  10.543  10.631 -1.6469  1.1068 -0.4483
53296SOL    HW264574   2.421  10.614  10.581  0.2499 -1.3823  0.5479
53297SOL     OW64575   2.934   8.094   8.716  0.1092  0.6315 -0.8400
53297SOL    HW164576   2.876   8.052   8.653 -0.8857  0.0018  0.4405
53297SOL    HW264577   2.990   8.023   8.748 -0.3294  0.6298 -0.0317
53298SOL     OW64578  10.687   2.007   9.809 -0.1422 -0.3143  0.6200
53298SOL    HW164579  10.660   2.097   9.790  1.0253 -0.3183 -1.3353
53298SOL    HW264580  10.716   2.010   9.900  0.1367  1.3518  0.5148
53299SOL     OW64581   7.702   3.583   2.802 -0.1320  0.9812 -0.2618
53299SOL    HW164582   7.758   3.660   2.796  1.5060 -0.2186 -1.1506
53299SOL    HW264583   7.700   3.562   2.895  1.6029  0.5944 -0.2814
53300SOL     OW64584   9.898   7.302   9.166 -0.4436 -0.2592 -0.2743
53300SOL    HW164585   9.960   7.366   9.132 -0.4450 -0.6583 -1.0387
53300SOL    HW264586   9.934   7.277   9.252 -1.3350  2.0143  0.8468
53301SOL     OW64587   4.238  10.999  10.252 -0.2598  0.1458 -0.0842
53301SOL    HW164588   4.238  11.023  10.159  1.9432 -2.1207 -0.7896
53301SOL    HW264589   4.146  10.982  10.272 -0.9204  1.6508 -1.5115
53302SOL     OW64590   5.910   2.394   3.934 -0.1006 -0.0378  0.9981
53302SOL    HW164591   5.979   2.408   3.869 -0.4355 -0.6389  0.4992
53302SOL    HW264592   5.889   2.481   3.966  1.1555  0.1235  1.4374
53303SOL     OW64593   4.293  10.032  11.141  0.2700  0.4292  0.1543
53303SOL    HW164594   4.305   9.947  11.097  0.3737  0.8219 -0.5945
53303SOL    HW264595   4.382  10.057  11.167  0.1238 -0.1347  1.2411
53304SOL     OW64596   5.529   0.763  11.118  0.0548 -0.0495 -0.0675
53304SOL    HW164597   5.534   0.756  11.022 -0.1288  0.3823 -0.1125
53304SOL    HW264598   5.620   0.760  11.147  0.1038 -0.3539 -0.2416
53305SOL     OW64599  10.709   6.070   6.838 -0.0515  0.1582 -0.3287
53305SOL    HW164600  10.618   6.078   6.809 -0.4043  0.5896  0.8466
53305SOL    HW264601  10.709   5.994   6.895  0.0856  0.7986  0.5410
53306SOL     OW64602   8.102   0.735   4.691 -0.0130  0.2694 -0.3144
53306SOL    HW164603   8.110   0.640   4.687 -1.6223  0.0738  0.2944
53306SOL    HW264604   8.182   0.764   4.735  0.3742 -0.8172 -0.2668
53307SOL     OW64605   1.467   3.602  10.655  0.6266 -0.0490 -0.0563
53307SOL    HW164606   1.424   3.685  10.677  2.3418  0.6367  0.8655
53307SOL    HW264607   1.550   3.605  10.701  1.4918 -1.5399 -1.4190
53308SOL     OW64608   1.895  10.463   6.257 -0.1220  0.4534 -0.0821
53308SOL    HW164609   1.936  10.384   6.293  1.2912  1.2282  0.0532
53308SOL    HW264610   1.968  10.520   6.234 -1.0619  1.1095 -1.6367
53309SOL     OW64611   8.874   7.055   9.737  0.1403  0.3882 -0.1066
53309SOL    HW164612   8.949   7.048   9.796 -0.0744  0.7676  0.2119
53309SOL    HW264613   8.886   7.139   9.693  1.2316 -0.6459 -1.8992
53310SOL     OW64614  10.582   8.002  11.366  0.5240 -0.8269  0.1000
53310SOL    HW164615  10.490   7.974  11.375 -0.0476 -0.0378 -2.3807
53310SOL    HW264616  10.585   8.046  11.281  2.3568  2.6547  1.7502
53311SOL     OW64617   0.760  11.642   1.729 -0.2506 -0.2115  0.8099
53311SOL    HW164618   0.794  11.674   1.812  0.3891  0.7987  0.1926
53311SOL    HW264619   0.831  11.658   1.666 -0.8790 -0.5343 -0.0042
53312SOL     OW64620   7.253   6.647   0.940 -0.3303 -0.5788 -0.1745
53312SOL    HW164621   7.266   6.740   0.961  1.2058 -0.6748 -0.6030
53312SOL    HW264622   7.210   6.611   1.017  0.8244  0.0925  0.8207
53313SOL     OW64623   5.365   0.044   9.931  0.2615 -0.2908 -0.5841
53313SOL    HW164624   5.413   0.076   9.855  2.3235 -0.9380  0.3615
53313SOL    HW264625   5.363  -0.051   9.921  0.5174 -0.3822  0.1258
53314SOL     OW64626   1.895   3.335   1.479  0.3698 -0.2044  0.4635
53314SOL    HW164627   1.834   3.324   1.406  1.8988 -0.1448 -0.8803
53314SOL    HW264628   1.868   3.418   1.520  1.5658  1.6471 -2.2220
53315SOL     OW64629   8.902   8.978  10.051  0.2525  0.3233 -0.2663
53315SOL    HW164630   8.924   9.061  10.009 -0.8255  1.0410  0.5134
53315SOL    HW264631   8.839   9.002  10.119  0.7293 -0.9978  0.6928
53316SOL     OW64632   5.668   7.502   4.093 -0.3971  0.1604 -0.4936
53316SOL    HW164633   5.605   7.436   4.066  0.5928 -0.9148 -0.2335
53316SOL    HW264634   5.696   7.544   4.012  0.3960 -1.0692 -0.8707
53317SOL     OW64635   6.069   6.404  10.631 -0.3515  0.2739  0.1836
53317SOL    HW164636   5.978   6.434  10.635 -0.5858 -0.2720 -0.8006
53317SOL    HW264637   6.096   6.419  10.540  0.5189  0.3419  0.4389
53318SOL     OW64638  11.435   2.703   2.065  0.2266 -0.1352  0.4185
53318SOL    HW164639  11.465   2.686   1.976 -1.0039  3.0915 -0.7662
53318SOL    HW264640  11.373   2.633   2.084 -0.6104 -0.0743 -1.8787
53319SOL     OW64641   4.784   8.276   5.129 -0.7545  1.0495  0.1676
53319SOL    HW164642   4.842   8.250   5.058  1.0537  0.7230  1.6902
53319SOL    HW264643   4.791   8.371   5.133  1.1807  0.8950  1.5008
53320SOL     OW64644   9.234   2.750  11.237  0.0090  0.4508  0.2941
53320SOL    HW164645   9.261   2.810  11.168  2.4473 -2.2535 -1.3424
53320SOL    HW264646   9.284   2.778  11.314  1.5311  0.2497 -0.5837
53321SOL     OW64647  11.369   7.183   2.206  0.1038  0.1531 -0.3762
53321SOL    HW164648  11.315   7.258   2.180 -0.3455 -0.5201 -1.4380
53321SOL    HW264649  11.331   7.109   2.160  0.5021 -0.7585  0.7100
53322SOL     OW64650   1.983   9.104  10.931 -0.0102 -0.0437  0.0744
53322SOL    HW164651   2.056   9.055  10.894 -0.4133 -0.5278 -0.1018
53322SOL    HW264652   1.906   9.051  10.910 -0.1551 -0.9434  2.5952
53323SOL     OW64653   7.031   9.317  11.831  0.2886  0.2688 -0.4690
53323SOL    HW164654   7.100   9.250  11.833  0.5105  0.5146  0.6737
53323SOL    HW264655   6.950   9.267  11.819  0.6846  0.0162 -2.4044
53324SOL     OW64656   7.522   2.533   3.555 -0.3153  0.2160 -0.0514
53324SOL    HW164657   7.563   2.449   3.575 -0.9560  0.1674  1.1451
53324SOL    HW264658   7.500   2.528   3.462 -1.0170 -1.2312  0.1699
53325SOL     OW64659  11.582   9.707   4.926  0.8071 -0.0809 -0.2654
53325SOL    HW164660  11.670   9.734   4.949  0.1832  0.9993  0.9893
53325SOL    HW264661  11.543   9.677   5.008 -0.4207  0.7533 -0.5034
53326SOL     OW64662   7.727   3.456   8.691 -0.3138 -0.7848  0.1657
53326SOL    HW164663   7.707   3.433   8.782 -1.6400 -1.3345 -0.2356
53326SOL    HW264664   7.679   3.537   8.675  1.4636  0.3844  0.4972
53327SOL     OW64665   9.964   1.375   9.008  0.4379 -0.9783 -0.9632
53327SOL    HW164666   9.904   1.392   9.080  1.3711 -1.7226  0.0179
53327SOL    HW264667   9.945   1.443   8.944  1.8454  1.8428  1.3908
53328SOL     OW64668   7.524   4.055   6.429 -0.6516  0.0611 -0.0654
53328SOL    HW164669   7.520   3.991   6.358  0.8467 -0.1917  0.0611
53328SOL    HW264670   7.546   4.003   6.506 -1.7731  0.4096  0.5099
53329SOL     OW64671   2.148   2.082   8.550  0.2834  0.7795 -0.2576
53329SOL    HW164672   2.160   2.037   8.467 -3.2131 -0.0854 -0.4428
53329SOL    HW264673   2.124   2.171   8.526 -0.4350  0.6096 -0.1846
53330SOL     OW64674   5.364   2.800  11.565 -0.3517 -0.4680 -0.4185
53330SOL    HW164675   5.381   2.716  11.608 -0.7262 -0.5569 -0.4473
53330SOL    HW264676   5.338   2.858  11.636 -0.2181 -0.4087 -0.4175
53331SOL     OW64677   0.343   2.117   7.734  0.1321  0.5147 -0.3597
53331SOL    HW164678   0.286   2.098   7.659 -0.9202 -0.2205  0.5862
53331SOL    HW264679   0.420   2.158   7.695 -0.1168 -0.3780 -1.9172
53332SOL     OW64680   6.735   2.359   6.029 -0.9329  0.0482  0.2493
53332SOL    HW164681   6.792   2.436   6.035 -2.9241  1.5692  0.5348
53332SOL    HW264682   6.753   2.310   6.110  0.4406  0.0932  0.0040
53333SOL     OW64683   4.787   0.884   9.882 -0.6198 -0.3259 -0.0769
53333SOL    HW164684   4.845   0.958   9.863 -1.0314 -0.4153 -1.8625
53333SOL    HW264685   4.841   0.823   9.933  0.3298  0.3309 -0.2781
53334SOL     OW64686   7.583   5.623  11.496  0.4977  0.4090  0.1150
53334SOL    HW164687   7.568   5.628  11.591  0.3117 -0.0694  0.1153
53334SOL    HW264688   7.497   5.603  11.460  0.6977 -0.0658 -0.0970
53335SOL     OW64689   6.592   6.704   2.652  1.1036  0.2115  0.6503
53335SOL    HW164690   6.529   6.689   2.723 -0.1515 -0.3307 -0.5426
53335SOL    HW264691   6.551   6.772   2.599  0.9201 -1.0154 -0.8275
53336SOL     OW64692   5.055  11.413   6.974 -0.0272  0.2008 -0.1630
53336SOL    HW164693   5.005  11.347   6.926  0.5044 -0.5413  0.2968
53336SOL    HW264694   5.077  11.479   6.908 -0.4348 -0.1510 -0.6576
53337SOL     OW64695   7.797   5.550   9.225  0.6150 -0.3384  0.2324
53337SOL    HW164696   7.768   5.598   9.148 -0.0370  0.5483  1.0057
53337SOL    HW264697   7.819   5.618   9.289  1.9338 -1.0360  0.5649
53338SOL     OW64698  11.663   8.167   1.821  0.6111  0.8687 -0.3124
53338SOL    HW164699  11.682   8.078   1.852 -0.9835 -0.4076 -2.6960
53338SOL    HW264700  11.745   8.214   1.833  1.9873 -1.3667 -0.3804
53339SOL     OW64701  11.886  11.532   8.313 -0.2780 -0.1801  0.6213
53339SOL    HW164702  11.894  11.627   8.309  1.0787 -0.2562  0.9631
53339SOL    HW264703  11.867  11.513   8.405 -1.1111 -0.2206  0.4503
53340SOL     OW64704   0.504   8.849   1.534 -0.5369 -0.1111  0.4042
53340SOL    HW164705   0.482   8.850   1.628  0.9430 -2.6088  0.8518
53340SOL    HW264706   0.593   8.884   1.530 -0.6557  0.1409 -0.0998
53341SOL     OW64707   6.894   0.278   1.656  0.0736 -0.6312 -0.5750
53341SOL    HW164708   6.893   0.328   1.574 -0.0973 -1.2681 -0.9749
53341SOL    HW264709   6.921   0.341   1.722 -1.3379  0.3216 -0.8471
53342SOL     OW64710   2.826   1.123   8.197 -0.2896 -0.2468 -0.4519
53342SOL    HW164711   2.783   1.203   8.166 -0.3971 -0.1630 -0.0869
53342SOL    HW264712   2.756   1.060   8.207 -0.3169 -0.1341  0.0671
53343SOL     OW64713  10.256   0.714   3.494 -0.5393  0.4123  0.1335
53343SOL    HW164714  10.258   0.748   3.405  0.6944  1.0067  0.3547
53343SOL    HW264715  10.283   0.623   3.486 -2.2142 -0.0748 -0.2795
53344SOL     OW64716   6.965   0.901   2.604  0.5559  0.5023  0.4523
53344SOL    HW164717   6.922   0.860   2.679  0.5491 -1.1788 -0.4156
53344SOL    HW264718   7.053   0.862   2.603  0.7261  0.8844 -0.1201
53345SOL     OW64719   5.936   2.817   3.679 -0.4726  0.2688  0.1420
53345SOL    HW164720   5.858   2.763   3.692  0.2316 -0.4059  1.7862
53345SOL    HW264721   5.906   2.906   3.697 -0.5218 -0.1720  2.5063
53346SOL     OW64722  11.691   7.613   3.305  0.4049 -0.5507 -0.2352
53346SOL    HW164723  11.648   7.584   3.386  0.9561  1.9139  1.0467
53346SOL    HW264724  11.782   7.585   3.315  0.3836 -0.6084 -0.2042
53347SOL     OW64725  11.327   3.715   2.245  0.0005  0.5008  0.0045
53347SOL    HW164726  11.275   3.651   2.198  0.6721 -0.4000  0.4613
53347SOL    HW264727  11.396   3.741   2.182  1.0135 -0.8451  0.5181
53348SOL     OW64728   2.765   9.103   0.292 -0.0660  0.8502  0.1114
53348SOL    HW164729   2.723   9.022   0.320  2.2589 -0.1103  1.1000
53348SOL    HW264730   2.832   9.075   0.229  0.0042  2.1511 -0.4371
53349SOL     OW64731   4.787   1.956   1.375  0.3030 -0.3277  0.3931
53349SOL    HW164732   4.857   1.894   1.395  0.0724 -1.2972 -1.5494
53349SOL    HW264733   4.707   1.902   1.374 -0.2402  0.4493  0.9538
53350SOL     OW64734   7.776   8.764   9.092 -0.1179  0.2866 -0.8603
53350SOL    HW164735   7.754   8.712   9.169  1.3233  0.3126 -0.3985
53350SOL    HW264736   7.754   8.854   9.117 -0.5656  0.1784 -0.8509
53351SOL     OW64737   6.312  11.117   5.563  0.1275 -0.3706  0.2333
53351SOL    HW164738   6.224  11.134   5.530 -0.4928 -0.5826  1.6963
53351SOL    HW264739   6.355  11.069   5.492 -0.9728 -0.3849 -0.4494
53352SOL     OW64740   2.935   7.698  11.722  0.1786 -0.0577  0.4149
53352SOL    HW164741   2.888   7.754  11.660 -1.2493 -1.1884  0.4214
53352SOL    HW264742   2.918   7.738  11.808  1.7242  1.2056  0.1956
53353SOL     OW64743   6.122   2.999   2.400  0.6897  0.7622  0.2092
53353SOL    HW164744   6.134   2.991   2.494  0.2223  1.0020  0.2952
53353SOL    HW264745   6.166   2.923   2.363  1.8100  1.2361  0.5422
53354SOL     OW64746   1.601   6.522   3.393 -0.2311  0.1562 -0.2787
53354SOL    HW164747   1.615   6.435   3.357 -1.0323 -0.1170  0.0635
53354SOL    HW264748   1.624   6.581   3.321 -0.6600 -0.3632 -0.8550
53355SOL     OW64749   0.433   0.210   2.736 -0.4755  0.6229  0.2034
53355SOL    HW164750   0.456   0.200   2.828  2.0878  2.1920 -0.1628
53355SOL    HW264751   0.349   0.256   2.737 -2.2166 -2.3422  1.6747
53356SOL     OW64752   9.860   4.794   5.170 -0.4326 -0.0198 -0.5643
53356SOL    HW164753   9.771   4.828   5.183  0.2965  2.6523 -1.8395
53356SOL    HW264754   9.849   4.700   5.160 -2.7095 -0.2787  2.8112
53357SOL     OW64755   5.141  11.775  10.181 -0.0711 -0.4038  0.5638
53357SOL    HW164756   5.071  11.745  10.239 -0.8258  0.1808 -0.0223
53357SOL    HW264757   5.189  11.839  10.232 -0.5810 -0.0718  0.6319
53358SOL     OW64758   8.240   1.137   1.321 -0.4600 -0.6964 -0.1433
53358SOL    HW164759   8.244   1.203   1.252 -0.0724  0.2104  0.7086
53358SOL    HW264760   8.147   1.115   1.328 -0.8747  1.0941  0.7192
53359SOL     OW64761   1.051  11.740   6.090  0.0888  0.9119  0.1110
53359SOL    HW164762   1.070  11.655   6.131  0.4210  0.1772 -1.4884
53359SOL    HW264763   1.128  11.759   6.037 -0.1268  2.0750  0.1801
53360SOL     OW64764  10.018   7.712   7.822  0.1249  0.3051 -0.3175
53360SOL    HW164765  10.014   7.626   7.782 -0.5299 -0.5327  1.4373
53360SOL    HW264766  10.106   7.745   7.801  0.5316 -0.9529 -0.6513
53361SOL     OW64767   8.923   5.278   8.758 -0.4945 -0.5865 -0.4603
53361SOL    HW164768   9.003   5.305   8.713 -0.0829 -1.9702 -0.6133
53361SOL    HW264769   8.945   5.194   8.798 -1.6198 -0.5859  0.2182
53362SOL     OW64770  11.678   4.771   3.376  0.3731  0.0318 -0.0082
53362SOL    HW164771  11.624   4.766   3.454  0.1761 -1.1020 -0.1958
53362SOL    HW264772  11.767   4.755   3.407  0.0741 -2.5275 -0.2213
53363SOL     OW64773   2.645   7.124   3.167 -0.7256  0.2762 -0.4748
53363SOL    HW164774   2.562   7.139   3.212 -0.4669  1.4816 -0.3672
53363SOL    HW264775   2.678   7.212   3.146  0.7887 -0.1458 -0.0105
53364SOL     OW64776   6.765   7.712   2.853 -0.2850  0.9694  0.8333
53364SOL    HW164777   6.722   7.756   2.927  0.2826  1.8247  0.6764
53364SOL    HW264778   6.785   7.783   2.792 -0.2165  0.3475  0.1165
53365SOL     OW64779   4.492   4.834   3.795  0.2607  0.5704  0.4160
53365SOL    HW164780   4.541   4.916   3.795 -0.4556  1.0329  1.7017
53365SOL    HW264781   4.438   4.838   3.875  1.1165 -1.6932  1.1968
53366SOL     OW64782   3.516  11.267  11.970  0.0708 -0.5128  0.0228
53366SOL    HW164783   3.495  11.199  11.905 -1.2205  0.7685 -0.9589
53366SOL    HW264784   3.533  11.345  11.918  2.0391 -0.1666  1.1186
53367SOL     OW64785   7.137   0.854  11.331  0.7071 -0.2819  0.5034
53367SOL    HW164786   7.230   0.862  11.349  1.0683 -0.6592 -1.0240
53367SOL    HW264787   7.116   0.762  11.348  1.2186 -0.8284 -1.5268
53368SOL     OW64788   1.313   2.082   8.202 -0.1457 -0.4841 -0.7773
53368SOL    HW164789   1.352   2.005   8.243  1.0091 -0.3258 -1.5275
53368SOL    HW264790   1.227   2.053   8.174 -0.7860 -0.7319  1.2824
53369SOL     OW64791   1.065  11.796   1.323  0.6161 -1.1051 -0.4438
53369SOL    HW164792   1.056  11.873   1.268 -1.5171 -1.7558 -1.0792
53369SOL    HW264793   1.152  11.762   1.302  1.4783  0.8981 -0.3722
53370SOL     OW64794   4.793   5.569   1.160 -0.1094  0.1452 -0.3540
53370SOL    HW164795   4.887   5.578   1.174 -0.2181  0.7251  0.0207
53370SOL    HW264796   4.771   5.482   1.195 -0.1556  1.0514  1.9945
53371SOL     OW64797   9.733   2.730   7.564  0.0078  0.2265  0.4149
53371SOL    HW164798   9.688   2.802   7.609  1.1716  0.6769  0.9048
53371SOL    HW264799   9.776   2.682   7.634 -0.1700 -0.5273  0.0112
53372SOL     OW64800  11.437  10.478   6.097  0.6086  0.2995 -0.3957
53372SOL    HW164801  11.425  10.533   6.175  3.5742  1.8414 -0.8776
53372SOL    HW264802  11.379  10.517   6.031 -0.0294  0.5455  0.2963
53373SOL     OW64803   7.583  10.502   0.814  0.2538  0.0180  0.0297
53373SOL    HW164804   7.572  10.434   0.881 -0.9291  0.1886  0.0347
53373SOL    HW264805   7.600  10.454   0.733 -1.1161 -0.3385 -0.0753
53374SOL     OW64806   6.504   1.133  10.941 -0.5825  0.7912  0.5082
53374SOL    HW164807   6.496   1.220  10.981 -2.7031  1.5579 -1.3542
53374SOL    HW264808   6.587   1.137  10.893  0.6050  0.8217  2.4469
53375SOL     OW64809   0.400   1.730  11.101 -0.1352  0.3085  0.1750
53375SOL    HW164810   0.476   1.750  11.155  0.1299 -1.1958  0.4049
53375SOL    HW264811   0.328   1.778  11.141  0.3285  0.2586  1.0857
53376SOL     OW64812   2.586   7.734  10.149  0.0402 -0.1496  0.6253
53376SOL    HW164813   2.663   7.680  10.165 -0.1715  0.0876  2.6620
53376SOL    HW264814   2.528   7.677  10.098  1.3922 -0.4312 -0.6759
53377SOL     OW64815   3.363   6.339  11.857 -0.8133 -0.0783 -0.2230
53377SOL    HW164816   3.426   6.326  11.786 -1.0026 -1.4950 -0.1583
53377SOL    HW264817   3.279   6.315  11.819 -0.7910 -1.7692  0.7229
53378SOL     OW64818   2.804  11.507   8.663 -0.1353  0.1701  0.1644
53378SOL    HW164819   2.709  11.519   8.666 -0.0626  0.8656 -0.0739
53378SOL    HW264820   2.822  11.481   8.573 -0.1561 -0.5653  0.3628
53379SOL     OW64821  10.818   8.205   6.717 -0.7249  0.6715  0.0927
53379SOL    HW164822  10.892   8.145   6.702 -1.5387 -0.8885  1.8777
53379SOL    HW264823  10.766   8.199   6.637  0.4144  0.8188 -0.6833
53380SOL     OW64824   5.762   5.048   0.958  0.0825 -0.4359  0.1665
53380SOL    HW164825   5.752   4.953   0.959  0.8302 -0.5282  1.7579
53380SOL    HW264826   5.674   5.081   0.975  0.2714 -0.9417  2.3572
53381SOL     OW64827   5.149   8.259   6.287  0.8256  0.1962 -0.0474
53381SOL    HW164828   5.167   8.345   6.324 -0.7148  0.2291  0.7226
53381SOL    HW264829   5.079   8.223   6.343  2.1546 -2.0196  0.3394
53382SOL     OW64830   2.530   6.237  10.717  0.6675  0.0898 -0.3914
53382SOL    HW164831   2.623   6.248  10.735  0.3632  1.9604  0.3664
53382SOL    HW264832   2.493   6.206  10.800  0.4616  0.4617 -0.3419
53383SOL     OW64833   9.730  11.971   2.845 -0.1078  0.2262 -0.0240
53383SOL    HW164834   9.680  11.986   2.926  0.7715 -0.3123  0.6303
53383SOL    HW264835   9.782  12.050   2.833 -0.3126  0.3471 -0.1232
53384SOL     OW64836  11.556   9.027   0.142  0.3065  0.2732  0.8922
53384SOL    HW164837  11.553   9.119   0.116 -0.9986  0.5032  1.7469
53384SOL    HW264838  11.557   8.979   0.060 -1.6998  1.0210  0.3800
53385SOL     OW64839   7.288   6.242   8.674 -0.1545  0.0225  0.4712
53385SOL    HW164840   7.375   6.228   8.635 -0.1119 -0.1445  0.6244
53385SOL    HW264841   7.284   6.180   8.747 -0.1294  0.5087  0.8971
53386SOL     OW64842   4.675   6.561   3.798 -0.0769 -0.5484  0.0576
53386SOL    HW164843   4.696   6.468   3.786  0.9905 -0.2789 -0.1972
53386SOL    HW264844   4.731   6.607   3.737 -0.0093  0.3330  0.7581
53387SOL     OW64845   2.719   5.535   8.048  0.6158  0.8827 -0.4355
53387SOL    HW164846   2.705   5.550   8.141  1.7020  1.7061 -0.3923
53387SOL    HW264847   2.701   5.441   8.036 -0.8219  1.0311  0.3342
53388SOL     OW64848   5.807   9.609   1.274 -0.1101  0.3647  0.6654
53388SOL    HW164849   5.729   9.599   1.329  0.3702 -1.3979  1.0980
53388SOL    HW264850   5.862   9.671   1.322  0.6275 -1.6926  2.6601
53389SOL     OW64851  10.815   9.109   6.703 -0.1362  0.7681  0.0249
53389SOL    HW164852  10.850   9.197   6.694  0.5287  0.5840  0.6997
53389SOL    HW264853  10.814   9.092   6.797  1.2313 -0.5045 -0.1411
53390SOL     OW64854   2.604   5.729   0.523  0.4891 -0.0008  0.2742
53390SOL    HW164855   2.583   5.790   0.452 -0.5627 -0.7555 -0.0985
53390SOL    HW264856   2.677   5.770   0.569 -0.4099  1.7301  0.2717
53391SOL     OW64857   3.289  11.044   1.576  0.0115  0.2958  0.7590
53391SOL    HW164858   3.282  10.985   1.501  0.1549  0.2627  0.7718
53391SOL    HW264859   3.227  11.008   1.640 -0.3767  0.5335  0.5187
53392SOL     OW64860   6.665   4.410   6.678 -0.2513  0.3055 -0.0608
53392SOL    HW164861   6.760   4.397   6.684 -0.2547  0.7788  1.3571
53392SOL    HW264862   6.630   4.324   6.656  0.4594 -0.0265  0.0954
53393SOL     OW64863   4.108   6.339  11.940  0.7005  0.1057 -0.1472
53393SOL    HW164864   4.092   6.286  11.863  0.0642 -0.0434  0.0822
53393SOL    HW264865   4.153   6.280  12.001 -2.3106 -1.0842  1.1543
53394SOL     OW64866   9.199   8.007   2.856  0.0900  0.4227 -0.2753
53394SOL    HW164867   9.121   7.993   2.908  0.8258 -2.3786  0.2618
53394SOL    HW264868   9.260   8.051   2.915  0.4006 -1.4002  0.8641
53395SOL     OW64869   7.139   0.806  11.932  0.3053 -0.2961 -0.3079
53395SOL    HW164870   7.071   0.864  11.899 -1.7915 -2.9226 -0.8923
53395SOL    HW264871   7.185   0.859  11.999 -0.9730  2.1977 -1.2761
53396SOL     OW64872   5.950  10.530   9.841 -0.2607  0.6995 -0.2321
53396SOL    HW164873   6.002  10.577   9.775  1.3390  0.7885  1.0106
53396SOL    HW264874   5.892  10.597   9.878  2.1188  1.8814  1.6473
53397SOL     OW64875   8.859   9.525   3.978  0.0410 -0.6314 -0.7845
53397SOL    HW164876   8.836   9.616   3.997  0.1286 -0.5149 -1.2294
53397SOL    HW264877   8.953   9.520   3.994 -0.3234 -1.2688  1.6716
53398SOL     OW64878   0.164   5.697   2.812  0.0355  0.1081 -0.0020
53398SOL    HW164879   0.259   5.687   2.823  0.2737  1.0436 -0.9531
53398SOL    HW264880   0.131   5.608   2.801  1.1744 -0.1232 -2.1735
53399SOL     OW64881   5.541  11.478   7.168  0.0316  0.5315 -0.0479
53399SOL    HW164882   5.544  11.556   7.223 -2.0333  0.1209  0.7406
53399SOL    HW264883   5.453  11.479   7.130 -1.1535 -2.7913  2.1715
53400SOL     OW64884   3.926  10.545   0.347 -0.3211  0.5630 -0.2292
53400SOL    HW164885   3.856  10.599   0.310  0.4510  1.2041 -0.7972
53400SOL    HW264886   3.934  10.471   0.287  0.1040  0.9713 -0.6890
53401SOL     OW64887  10.405   7.158  10.297  0.0345 -0.1259 -0.0240
53401SOL    HW164888  10.471   7.221  10.325 -1.3448  1.1140  0.5616
53401SOL    HW264889  10.347   7.148  10.372 -1.1161 -0.2565 -0.8860
53402SOL     OW64890   0.611  10.648  10.335  0.2669 -0.2218 -0.3856
53402SOL    HW164891   0.530  10.599  10.350  0.6499 -1.2943 -1.5651
53402SOL    HW264892   0.581  10.733  10.303 -0.4551  0.9980  3.0683
53403SOL     OW64893   9.795   1.359   0.202 -0.1352 -0.1414  0.2329
53403SOL    HW164894   9.816   1.448   0.173 -0.4099  0.6266  2.2853
53403SOL    HW264895   9.711   1.366   0.246 -1.3588 -1.9001 -1.5977
53404SOL     OW64896   2.170  10.107   5.198  0.5637  0.0067 -0.2765
53404SOL    HW164897   2.266  10.113   5.192  0.5040  0.7027 -0.5820
53404SOL    HW264898   2.138  10.174   5.138 -0.1212 -0.2213 -0.1711
53405SOL     OW64899   2.863   9.417   1.821  0.0043  0.1610  0.2845
53405SOL    HW164900   2.898   9.439   1.908  0.4214  0.7497 -0.0236
53405SOL    HW264901   2.883   9.324   1.809  1.5455  0.4963  0.0919
53406SOL     OW64902   5.697   9.522   1.043  0.0574 -0.3013 -0.4294
53406SOL    HW164903   5.708   9.427   1.045 -0.5234 -0.3739  1.8022
53406SOL    HW264904   5.746   9.553   1.119 -0.2242  1.1341 -0.8061
53407SOL     OW64905   3.747   5.815   1.961 -0.1217  0.1398 -0.1734
53407SOL    HW164906   3.837   5.830   1.933 -0.3598  0.4514 -0.8039
53407SOL    HW264907   3.751   5.807   2.056  1.0922 -3.3300 -0.3824
53408SOL     OW64908   6.026   5.168   3.873 -0.3408  0.1450 -0.4164
53408SOL    HW164909   5.976   5.169   3.955  1.6595 -0.4792  0.8770
53408SOL    HW264910   5.986   5.097   3.822 -0.3498 -0.8469  0.8967
53409SOL     OW64911  11.904   4.522  10.582 -0.0624 -0.2893 -0.4770
53409SOL    HW164912  11.857   4.504  10.663  0.4047 -5.4895 -1.0497
53409SOL    HW264913  11.993   4.544  10.611 -0.5822  0.8115  0.3795
53410SOL     OW64914   2.162  11.291   4.240  0.1048  0.2814 -0.2663
53410SOL    HW164915   2.099  11.266   4.171 -0.1975 -0.2754  0.1984
53410SOL    HW264916   2.209  11.365   4.203 -0.2870  0.2086 -0.9439
53411SOL     OW64917  10.013   3.465   5.377 -0.2624 -0.1013 -0.2297
53411SOL    HW164918  10.007   3.529   5.448 -1.1016 -0.6269  0.1864
53411SOL    HW264919  10.010   3.518   5.297  0.0597  0.4464  0.1085
53412SOL     OW64920   0.472   1.672   6.995 -0.1797  0.1433  0.0320
53412SOL    HW164921   0.395   1.620   7.017  1.7924 -1.9800  2.8174
53412SOL    HW264922   0.496   1.715   7.078  2.0256  0.0668 -0.4943
53413SOL     OW64923   9.685  10.594   5.885  0.3908  0.2475 -0.5694
53413SOL    HW164924   9.725  10.676   5.912  1.8478 -0.1910 -1.2841
53413SOL    HW264925   9.676  10.601   5.790 -0.9583  0.1944 -0.4657
53414SOL     OW64926   4.067  10.759  11.794 -0.8559 -0.0630 -0.0974
53414SOL    HW164927   4.010  10.704  11.848  0.7015 -0.6844  0.9692
53414SOL    HW264928   4.155  10.744  11.828 -0.0264  0.8778 -1.6932
53415SOL     OW64929   1.868   2.110   3.554  0.0115  0.0908  0.1916
53415SOL    HW164930   1.784   2.155   3.545 -0.2380 -0.7103 -2.0502
53415SOL    HW264931   1.853   2.044   3.621 -0.8797  0.5596  0.4620
53416SOL     OW64932   5.120   8.857   5.011  0.3571  0.2168  0.2087
53416SOL    HW164933   5.127   8.765   5.038  1.9976 -0.1644 -1.3126
53416SOL    HW264934   5.173   8.904   5.076 -0.4041  0.1068  0.9323
53417SOL     OW64935   5.027   1.711   9.498 -0.7981  0.2945  0.4056
53417SOL    HW164936   5.069   1.730   9.414 -1.5929 -0.6575 -0.2285
53417SOL    HW264937   5.092   1.661   9.546 -0.8502 -0.3967 -0.2201
53418SOL     OW64938   9.284   1.753   3.538  0.1680  0.2854 -0.3889
53418SOL    HW164939   9.364   1.704   3.525  1.0614  1.8637 -1.1670
53418SOL    HW264940   9.215   1.687   3.540  1.2409 -0.9493 -1.9643
53419SOL     OW64941   6.531   3.620   4.753 -0.4762 -0.1412  0.4430
53419SOL    HW164942   6.600   3.686   4.748 -0.5164 -0.0072  1.4067
53419SOL    HW264943   6.497   3.629   4.842 -2.6460  0.7050 -0.4123
53420SOL     OW64944   7.482   8.246   6.218  0.3701  0.3813 -0.1709
53420SOL    HW164945   7.511   8.189   6.289  0.6091  1.7035  0.8279
53420SOL    HW264946   7.459   8.186   6.147  1.8585 -0.8921  0.3636
53421SOL     OW64947   2.660  10.698   4.086 -0.1873  0.2811  0.3882
53421SOL    HW164948   2.748  10.707   4.122  0.0818  1.3421 -0.4696
53421SOL    HW264949   2.617  10.782   4.107 -1.2156 -0.4635  1.3548
53422SOL     OW64950   5.464   8.107  11.796 -0.2146  0.6966  0.3860
53422SOL    HW164951   5.506   8.167  11.857 -0.6704  0.1031  1.3130
53422SOL    HW264952   5.379   8.088  11.836  0.4284 -1.5824  0.8241
53423SOL     OW64953   6.690   7.314   1.440  0.5182 -0.4863 -0.3215
53423SOL    HW164954   6.655   7.258   1.370  0.4182 -0.9702  0.1060
53423SOL    HW264955   6.777   7.279   1.458 -0.1499 -1.5782  1.0620
53424SOL     OW64956   6.752  11.182   3.078  0.3099 -0.3536 -0.2250
53424SOL    HW164957   6.660  11.188   3.054  0.4816  2.3965 -0.4827
53424SOL    HW264958   6.767  11.257   3.136  2.3365 -0.9035  0.0553
53425SOL     OW64959   7.606   0.735   5.637 -0.1604 -0.2725 -0.3966
53425SOL    HW164960   7.663   0.783   5.576  1.0984  0.0426  0.9678
53425SOL    HW264961   7.626   0.643   5.619  0.0235 -0.1922 -0.6167
53426SOL     OW64962  10.911  11.840   7.254 -0.4813  0.5866  0.5485
53426SOL    HW164963  10.924  11.754   7.213 -0.3353  0.8957 -0.0698
53426SOL    HW264964  10.896  11.820   7.346  1.1635 -0.0252  0.7331
53427SOL     OW64965  10.007   2.949   3.553  0.6991 -0.2906 -0.0441
53427SOL    HW164966   9.933   2.951   3.492 -0.7652 -0.9224  1.6320
53427SOL    HW264967  10.029   2.856   3.561  1.0217 -0.1927  0.2363
53428SOL     OW64968   3.548  10.616   4.483 -0.2175  0.1173  0.4898
53428SOL    HW164969   3.545  10.555   4.410 -0.5141  0.3891  0.2716
53428SOL    HW264970   3.575  10.563   4.558 -2.1392 -0.6628  0.6868
53429SOL     OW64971   6.955  10.134   5.813  0.1774 -0.1283  0.7632
53429SOL    HW164972   6.987  10.128   5.723 -2.9865  0.7662 -0.5319
53429SOL    HW264973   6.885  10.070   5.818 -1.9294  2.0807  1.4781
53430SOL     OW64974   7.861   9.677   1.724 -0.0427  0.7283 -0.0730
53430SOL    HW164975   7.890   9.656   1.813 -0.8310 -3.5990 -0.6255
53430SOL    HW264976   7.934   9.651   1.668 -1.0330 -0.4854 -0.8562
53431SOL     OW64977   3.067  11.664   6.914 -0.1306  0.3960 -0.0709
53431SOL    HW164978   2.998  11.718   6.876 -1.8725 -1.5468  0.1468
53431SOL    HW264979   3.021  11.598   6.965  1.8480 -1.4929 -0.5474
53432SOL     OW64980   3.728  10.380   5.856 -0.1629  0.0392 -0.2702
53432SOL    HW164981   3.792  10.318   5.823 -0.3909 -0.1119 -0.4326
53432SOL    HW264982   3.651  10.367   5.801 -0.5977 -0.3182  0.4025
53433SOL     OW64983   4.901   2.004   2.327 -0.0258 -0.0487 -0.8099
53433SOL    HW164984   4.903   2.087   2.278 -0.4139  0.4350 -0.0367
53433SOL    HW264985   4.991   1.993   2.358  0.6258 -1.1993 -2.9494
53434SOL     OW64986   0.173   2.261   7.902  0.3866  0.3829 -0.3651
53434SOL    HW164987   0.235   2.198   7.864 -0.1934 -0.3493 -0.1344
53434SOL    HW264988   0.137   2.306   7.826 -0.7086 -1.0176 -0.7293
53435SOL     OW64989   5.993   9.174   2.926  0.2428  0.2738  0.2096
53435SOL    HW164990   5.920   9.179   2.864 -1.0657 -0.1001  1.6608
53435SOL    HW264991   6.071   9.174   2.871 -0.7884  1.7380 -1.3639
53436SOL     OW64992  11.355   6.671   0.978  0.2394 -0.2608 -0.5226
53436SOL    HW164993  11.376   6.691   0.887  0.0986  0.5674 -0.3820
53436SOL    HW264994  11.426   6.613   1.007  1.3123  0.9709 -0.6052
53437SOL     OW64995   3.726   3.139   2.468 -0.0444  0.0642 -0.5061
53437SOL    HW164996   3.632   3.156   2.467 -0.3793 -1.6106 -1.7093
53437SOL    HW264997   3.750   3.143   2.561 -0.8969  2.3861 -0.3302
53438SOL     OW64998  10.848   3.365   1.871  0.0309  0.2534  0.1014
53438SOL    HW164999  10.869   3.347   1.780 -0.7018  1.7701 -0.4016
53438SOL    HW265000  10.806   3.285   1.902 -0.1316 -0.1181 -1.0228
53439SOL     OW65001   1.170   9.402   0.826  0.3458 -0.6705 -0.3895
53439SOL    HW165002   1.240   9.384   0.763 -0.3022 -0.2478 -1.2632
53439SOL    HW265003   1.214   9.439   0.902  1.1613 -1.2915 -0.5540
53440SOL     OW65004   4.653   0.809   6.715  0.1791  0.1766 -0.3433
53440SOL    HW165005   4.610   0.725   6.701  2.6400 -1.1871 -0.2273
53440SOL    HW265006   4.643   0.827   6.808 -1.1957  0.5288 -0.5454
53441SOL     OW65007   1.987  11.546   4.360 -0.3966 -0.8846 -0.1997
53441SOL    HW165008   2.038  11.552   4.441 -0.5921  1.4301 -0.1988
53441SOL    HW265009   2.020  11.467   4.318  2.3996 -0.1320  0.3601
53442SOL     OW65010   7.613   9.192   2.897 -0.2913  0.2047 -0.1544
53442SOL    HW165011   7.615   9.216   2.805 -2.5448 -1.0653 -0.6113
53442SOL    HW265012   7.698   9.150   2.913  0.6259  1.5692 -1.2870
53443SOL     OW65013   3.960   5.666   7.935  0.2200 -0.5186 -0.1607
53443SOL    HW165014   4.007   5.601   7.988  0.3925  0.3876  0.8207
53443SOL    HW265015   3.869   5.636   7.937  0.4735 -1.3364 -0.6344
53444SOL     OW65016   8.603   6.624   8.759  0.3493 -0.5804  0.6282
53444SOL    HW165017   8.652   6.637   8.678 -0.5160  0.0117  0.1756
53444SOL    HW265018   8.633   6.693   8.818  2.4185 -2.1805  1.5723
53445SOL     OW65019   5.257   8.984  10.157 -0.4723  0.0274  0.4130
53445SOL    HW165020   5.293   9.063  10.197 -1.7239 -0.0885  1.8623
53445SOL    HW265021   5.175   9.012  10.117  0.3477 -0.0398 -1.4223
53446SOL     OW65022  11.949   8.285   1.043  0.2007  0.1802  0.6596
53446SOL    HW165023  11.969   8.324   0.958 -0.3001 -1.1002 -0.0874
53446SOL    HW265024  12.005   8.331   1.105  3.4053 -1.3104 -0.8934
53447SOL     OW65025  10.461   5.847   0.089 -0.4120  0.0113 -0.5160
53447SOL    HW165026  10.417   5.843   0.004 -1.6659 -0.2939  0.1148
53447SOL    HW265027  10.405   5.904   0.142  0.2743  0.0825  0.1520
53448SOL     OW65028   1.137  11.209  10.020  0.4883 -0.5240  0.2509
53448SOL    HW165029   1.094  11.265   9.955  0.7508 -0.3894  0.1934
53448SOL    HW265030   1.080  11.132  10.026  0.7540 -0.7863 -0.5510
53449SOL     OW65031   2.824   2.196   6.580 -0.3227  0.0121 -0.0814
53449SOL    HW165032   2.738   2.220   6.614 -0.2280  1.4230 -0.7530
53449SOL    HW265033   2.883   2.265   6.612  0.7049 -1.2745  0.9002
53450SOL     OW65034   7.618   3.331   9.799  0.2228 -0.4635  0.4334
53450SOL    HW165035   7.677   3.357   9.728 -1.3281 -0.7012 -1.0029
53450SOL    HW265036   7.577   3.412   9.827 -1.3816 -0.7183 -1.0473
53451SOL     OW65037  11.500   8.614  11.766  0.0037 -0.4627  0.3710
53451SOL    HW165038  11.540   8.591  11.850  0.1963 -0.7809  0.1922
53451SOL    HW265039  11.407   8.622  11.786  0.2945  1.7033  1.0929
53452SOL     OW65040   8.568   0.455   5.064  0.2687 -0.1510  0.2483
53452SOL    HW165041   8.526   0.523   5.011 -0.1470 -0.3442  0.3210
53452SOL    HW265042   8.542   0.475   5.154 -0.5437 -0.8734  0.1911
53453SOL     OW65043   0.136   4.885   8.456  0.5725 -0.1316 -0.4197
53453SOL    HW165044   0.141   4.834   8.375 -0.4927  1.3627 -1.4743
53453SOL    HW265045   0.064   4.845   8.505  1.8088 -1.6212  0.2584
53454SOL     OW65046   0.680   5.622   0.407 -0.8918 -0.0083  0.1427
53454SOL    HW165047   0.616   5.670   0.460 -1.0573  0.0611 -0.1158
53454SOL    HW265048   0.765   5.649   0.442 -0.9457  1.1391 -0.5412
53455SOL     OW65049  11.660   3.890   4.643 -0.6400 -0.0604 -0.1853
53455SOL    HW165050  11.639   3.967   4.695 -2.5910 -0.3071 -0.5274
53455SOL    HW265051  11.753   3.874   4.659 -0.2778  2.1632  0.1220
53456SOL     OW65052   4.014   7.837   5.334 -0.1848 -0.2791 -0.0595
53456SOL    HW165053   4.078   7.843   5.263 -0.0636 -4.1800 -0.4654
53456SOL    HW265054   3.929   7.836   5.289 -0.4725  1.9906  0.2952
53457SOL     OW65055   1.613   4.983   7.106  0.2521 -0.6613 -0.1922
53457SOL    HW165056   1.634   5.048   7.040 -0.1072  0.0948  0.4138
53457SOL    HW265057   1.697   4.957   7.142  0.4293 -0.8916 -0.7709
53458SOL     OW65058   0.958   1.532   8.665 -0.2359  0.5054 -0.5242
53458SOL    HW165059   0.966   1.627   8.676  0.2417  0.4677 -0.4981
53458SOL    HW265060   0.881   1.521   8.609 -0.9577  0.8424  0.3823
53459SOL     OW65061   6.502   8.959   9.846  0.7505  0.2068 -0.2120
53459SOL    HW165062   6.568   9.027   9.830  0.0154  1.0675  0.2829
53459SOL    HW265063   6.481   8.968   9.939 -0.4081  0.2788 -0.4645
53460SOL     OW65064   6.220  10.260  11.361  0.9454  0.4527  0.3738
53460SOL    HW165065   6.284  10.189  11.354  0.5711 -0.0810  1.8605
53460SOL    HW265066   6.137  10.220  11.333  1.1886  1.1105 -1.4439
53461SOL     OW65067   9.818   4.203   7.185  0.7758  0.4709 -0.4108
53461SOL    HW165068   9.785   4.293   7.186 -0.9520 -0.1405  0.4110
53461SOL    HW265069   9.822   4.177   7.277  0.3997 -0.5836 -0.6795
53462SOL     OW65070   5.461   4.417   0.213  0.0596  0.8971 -0.1247
53462SOL    HW165071   5.478   4.499   0.260 -0.3975  0.2645  1.1735
53462SOL    HW265072   5.383   4.435   0.161 -0.0771  1.2612  0.2001
53463SOL     OW65073   4.095   1.337   5.202  0.4745  0.5544 -0.0542
53463SOL    HW165074   4.022   1.358   5.144  0.8159  0.5217 -0.5029
53463SOL    HW265075   4.111   1.244   5.189  1.0176  0.7021 -0.4467
53464SOL     OW65076  10.547   1.806  10.443  0.0256 -0.7394  0.2369
53464SOL    HW165077  10.479   1.811  10.510  0.1903  2.0330  0.2977
53464SOL    HW265078  10.510   1.748  10.376 -1.9008 -0.2768  0.8252
53465SOL     OW65079   3.998   8.968   7.648  0.0122 -0.2637  0.0625
53465SOL    HW165080   3.913   9.007   7.629 -0.3018 -0.2493  1.3640
53465SOL    HW265081   4.042   9.034   7.703  0.5714 -0.5794 -0.0036
53466SOL     OW65082   3.322   5.163   4.902 -0.4588 -0.0847  0.0575
53466SOL    HW165083   3.298   5.127   4.988 -0.9865  2.1156  0.9077
53466SOL    HW265084   3.240   5.165   4.853 -0.2002 -1.1280 -0.4308
53467SOL     OW65085   1.083  11.015   6.252 -0.5961 -0.7955  0.0323
53467SOL    HW165086   1.081  11.095   6.305  0.8280 -0.1423 -0.8371
53467SOL    HW265087   1.138  10.954   6.302  0.2258 -0.4003 -0.3678
53468SOL     OW65088   6.188  11.270   7.465 -0.0374 -0.0049  0.0615
53468SOL    HW165089   6.247  11.219   7.520 -0.7034 -0.8022  0.0423
53468SOL    HW265090   6.194  11.228   7.379 -0.9992 -0.3946  0.1790
53469SOL     OW65091   2.878   7.799  11.006  0.5646  0.3368  0.1720
53469SOL    HW165092   2.825   7.797  11.085  0.1316 -0.3554 -0.1188
53469SOL    HW265093   2.823   7.758  10.939  1.3117 -0.0254 -0.2386
53470SOL     OW65094   3.766   3.294   2.241  0.2678  0.2328  0.2052
53470SOL    HW165095   3.750   3.255   2.327  1.9046  1.0500  0.9346
53470SOL    HW265096   3.722   3.236   2.180 -1.1439 -0.2355  1.6074
53471SOL     OW65097   5.172   1.991   3.045  0.5038 -0.8395 -0.4424
53471SOL    HW165098   5.248   1.938   3.021  0.5924 -0.0559 -2.0040
53471SOL    HW265099   5.109   1.976   2.975  0.0216  0.1039 -0.2307
53472SOL     OW65100   8.404   3.367  10.251 -0.0446  0.7579 -0.1363
53472SOL    HW165101   8.411   3.408  10.165  1.3934 -1.1776 -0.9979
53472SOL    HW265102   8.461   3.418  10.307  0.8755  0.6222 -0.9285
53473SOL     OW65103   6.957   7.961  10.066 -0.1655  0.4037  0.1549
53473SOL    HW165104   6.933   8.038  10.014  1.2812  0.1938 -0.8827
53473SOL    HW265105   6.981   7.895  10.002 -1.2195 -0.8913  1.0367
53474SOL     OW65106   5.386  11.135   0.215 -0.7382  0.0912 -0.0200
53474SOL    HW165107   5.443  11.154   0.289 -0.3572 -0.9440 -0.0370
53474SOL    HW265108   5.428  11.178   0.141 -0.2606 -0.2339  0.0638
53475SOL     OW65109   3.548  11.263   1.485 -0.3063  0.3859  0.5990
53475SOL    HW165110   3.471  11.206   1.485 -0.1196  0.0900  2.0625
53475SOL    HW265111   3.622  11.202   1.487 -0.0473  0.6751 -0.0244
53476SOL     OW65112   8.757   5.052   0.315 -0.1922  0.0509 -0.0576
53476SOL    HW165113   8.801   4.969   0.334 -1.0128 -0.2853  0.4111
53476SOL    HW265114   8.721   5.041   0.227 -0.9668 -0.3810  0.3114
53477SOL     OW65115   2.530   6.711  10.351 -0.5423  0.7600  0.2739
53477SOL    HW165116   2.520   6.733  10.444  0.3841 -0.2289  0.6258
53477SOL    HW265117   2.477   6.633  10.338 -1.1490  1.2362 -0.1825
53478SOL     OW65118   7.612   4.229   1.249 -0.0296 -0.7189  0.7405
53478SOL    HW165119   7.629   4.191   1.163  0.1832  0.3889  0.2819
53478SOL    HW265120   7.533   4.184   1.280  0.8257 -2.3244  0.7169
53479SOL     OW65121   0.311   1.314  10.545 -0.1462  0.3674  0.2972
53479SOL    HW165122   0.371   1.240  10.552  1.3840  1.6908  1.7758
53479SOL    HW265123   0.224   1.273  10.537  0.7172 -1.5678  0.2504
53480SOL     OW65124   0.435   0.570   0.414 -0.4926 -0.1136 -0.0300
53480SOL    HW165125   0.419   0.482   0.447  0.9628 -0.4574 -0.1541
53480SOL    HW265126   0.499   0.558   0.344  1.1687  1.1904  1.1718
53481SOL     OW65127  10.591  11.459  10.138 -0.4181  0.1877  0.0324
53481SOL    HW165128  10.673  11.420  10.169 -0.6414  0.4316  0.9670
53481SOL    HW265129  10.523  11.402  10.172 -0.7391  1.2396  1.2356
53482SOL     OW65130   8.086   4.739   1.729  0.0749  0.0032  0.4656
53482SOL    HW165131   7.995   4.711   1.726  0.2661 -0.9535  2.3670
53482SOL    HW265132   8.082   4.832   1.751 -0.4359  0.1488 -0.2055
53483SOL     OW65133  10.577   8.551   3.556  0.3803 -0.4420 -0.7951
53483SOL    HW165134  10.528   8.621   3.514 -0.8195 -0.9650 -0.3120
53483SOL    HW265135  10.581   8.576   3.649  2.1938  0.2401 -1.0202
53484SOL     OW65136   9.832   4.340   8.485 -0.5599 -0.4497 -0.1295
53484SOL    HW165137   9.800   4.337   8.576  1.2517 -0.8871  0.5463
53484SOL    HW265138   9.926   4.359   8.494 -0.9077  2.9903 -2.0851
53485SOL     OW65139   4.947  11.637  10.333  0.4487 -0.2752  0.6104
53485SOL    HW165140   5.000  11.631  10.413  1.0163 -1.7293  0.1563
53485SOL    HW265141   4.882  11.567  10.342  0.5038 -0.4310 -0.1889
53486SOL     OW65142  11.864   1.417   0.511  0.0404 -0.0894 -0.2905
53486SOL    HW165143  11.885   1.354   0.580 -3.0268  0.3401  1.2099
53486SOL    HW265144  11.866   1.366   0.430  3.1750 -0.7307  0.0932
53487SOL     OW65145   8.186   5.820   2.540 -0.3596  0.1861 -0.9197
53487SOL    HW165146   8.265   5.848   2.495  1.9739 -1.5394  1.7532
53487SOL    HW265147   8.150   5.751   2.484  2.0386 -1.4039 -0.6584
53488SOL     OW65148   8.170   9.651   5.253  0.2189 -0.5658  0.2374
53488SOL    HW165149   8.118   9.731   5.247 -0.0262 -0.7216  0.2682
53488SOL    HW265150   8.155   9.620   5.342  0.5716 -0.4726  0.3318
53489SOL     OW65151  10.408   0.678   8.912 -0.0548  0.3645  0.3650
53489SOL    HW165152  10.455   0.761   8.914  0.1702  0.2162  1.4926
53489SOL    HW265153  10.442   0.633   8.834 -1.0697  1.8108 -0.9895
53490SOL     OW65154   5.848  11.708   8.845 -0.1806  0.6156  0.1163
53490SOL    HW165155   5.870  11.689   8.753 -0.0436 -1.3442  0.5198
53490SOL    HW265156   5.776  11.770   8.839 -1.5428 -1.0082 -1.3786
53491SOL     OW65157   3.316   6.542  11.034 -0.1776  0.5380 -0.1904
53491SOL    HW165158   3.363   6.625  11.037  1.1507 -0.1253 -1.4825
53491SOL    HW265159   3.246   6.556  10.970 -1.7073  1.4538  1.5701
53492SOL     OW65160   4.175  11.295  10.535 -0.0118  0.2901 -0.7039
53492SOL    HW165161   4.208  11.373  10.580  0.6012  0.2291 -1.0281
53492SOL    HW265162   4.082  11.292  10.557 -0.3425  1.8374 -1.6976
53493SOL     OW65163   0.166  11.391   1.580  0.3547  0.0083  0.3843
53493SOL    HW165164   0.112  11.389   1.501  0.4753  1.3349  0.2397
53493SOL    HW265165   0.256  11.391   1.548  0.4622 -1.5856  0.6084
53494SOL     OW65166   3.773   6.409   5.675  0.3912  0.2062  0.2106
53494SOL    HW165167   3.836   6.458   5.729  0.5007  0.6397 -0.3047
53494SOL    HW265168   3.809   6.414   5.587  0.0792 -0.2865  0.0556
53495SOL     OW65169  10.641   6.368  11.141  0.5519  0.4304  0.3696
53495SOL    HW165170  10.693   6.373  11.221 -0.1811 -0.6524  0.9297
53495SOL    HW265171  10.575   6.436  11.150  1.8657  1.8691 -0.3815
53496SOL     OW65172   8.791   1.949   7.571  0.3957  0.7200 -0.3508
53496SOL    HW165173   8.852   1.919   7.638 -0.5211 -0.7264 -0.1234
53496SOL    HW265174   8.826   1.915   7.489  0.9157  1.5545 -0.4964
53497SOL     OW65175   1.324   8.224   5.962  0.3484 -0.2196  0.2584
53497SOL    HW165176   1.327   8.272   6.044 -0.9514 -0.3785  0.4181
53497SOL    HW265177   1.232   8.225   5.937  0.7979  0.4632 -1.5808
53498SOL     OW65178   5.406   9.612   8.091 -0.2858  0.0208 -0.1373
53498SOL    HW165179   5.494   9.595   8.125  0.5428  2.2388 -0.9821
53498SOL    HW265180   5.360   9.529   8.103  2.4409 -1.8519 -1.3489
53499SOL     OW65181  10.317   7.513   6.860 -0.0859  0.0151 -0.0532
53499SOL    HW165182  10.368   7.525   6.780  0.6763 -0.8844  0.2800
53499SOL    HW265183  10.238   7.468   6.832 -0.7227  1.3925 -0.5725
53500SOL     OW65184   0.592   0.017   3.199  0.1116  0.3900 -0.1962
53500SOL    HW165185   0.594  -0.048   3.270 -1.8514  0.6221  0.1255
53500SOL    HW265186   0.665   0.076   3.218  0.0292  0.0654  1.2655
53501SOL     OW65187   9.085   5.737  10.323 -0.1868  0.2927 -0.4069
53501SOL    HW165188   8.994   5.766  10.326 -0.3160 -0.0350 -1.1458
53501SOL    HW265189   9.127   5.797  10.261 -0.2276 -0.4478 -1.1647
53502SOL     OW65190   7.210   0.094   4.266  0.3843  0.3407 -0.6207
53502SOL    HW165191   7.150   0.064   4.198  0.3616  0.8907 -0.8534
53502SOL    HW265192   7.275   0.025   4.274 -0.0841 -0.0998 -0.6206
53503SOL     OW65193   4.052  11.192   5.648 -0.4888 -0.1031 -0.3593
53503SOL    HW165194   4.055  11.117   5.708  1.7503 -0.0334 -0.2774
53503SOL    HW265195   3.984  11.248   5.683 -0.9857 -1.2707  0.6283
53504SOL     OW65196   3.833   2.273   8.165  1.0442  0.1802 -0.2033
53504SOL    HW165197   3.908   2.232   8.123  0.7919  0.3690 -0.8575
53504SOL    HW265198   3.850   2.367   8.159  0.0650  0.3010 -1.7452
53505SOL     OW65199   2.637   4.936   6.039 -0.2676 -0.4408  0.2183
53505SOL    HW165200   2.572   5.002   6.064  0.2668  0.4991 -0.7902
53505SOL    HW265201   2.654   4.953   5.947  2.7382  0.5485  0.8610
53506SOL     OW65202  10.357   6.653   1.445 -0.0486  0.3300 -0.7464
53506SOL    HW165203  10.425   6.653   1.378 -0.6593 -0.4984 -1.3835
53506SOL    HW265204  10.351   6.562   1.474  2.5374  1.1118  2.9250
53507SOL     OW65205   7.440   0.945   4.775 -0.1753  0.6162 -0.1558
53507SOL    HW165206   7.513   0.908   4.726 -1.0328  0.6294 -1.5236
53507SOL    HW265207   7.397   0.869   4.815 -0.7693  0.3006 -1.3206
53508SOL     OW65208   2.962   5.512   0.007 -0.2725  0.2060 -0.0870
53508SOL    HW165209   2.971   5.417   0.002  0.6659  0.2809 -0.0061
53508SOL    HW265210   2.925   5.528   0.094 -0.3289 -0.0798 -0.0570
53509SOL     OW65211   8.910   2.329   3.010 -0.1951 -0.1226 -0.1140
53509SOL    HW165212   8.842   2.263   2.997  0.1749 -0.4875 -0.2344
53509SOL    HW265213   8.991   2.278   3.020  0.1310  0.3216 -0.4512
53510SOL     OW65214   7.109   7.159   1.085 -0.7734 -0.4281  0.6246
53510SOL    HW165215   7.086   7.205   1.166  0.0861  1.7372 -0.2806
53510SOL    HW265216   7.165   7.220   1.038 -2.9942 -0.6494 -2.6527
53511SOL     OW65217   2.478   2.110  11.770  0.0514 -0.2900 -0.4094
53511SOL    HW165218   2.564   2.124  11.730  0.2831 -0.9083 -0.1396
53511SOL    HW265219   2.416   2.125  11.698  0.4758 -1.6293 -1.0862
53512SOL     OW65220   4.931   8.763   0.573 -0.0811  0.3171 -0.1685
53512SOL    HW165221   4.941   8.845   0.524 -1.5370  0.9433  0.5133
53512SOL    HW265222   4.836   8.752   0.581  0.1096 -0.4640  1.3468
53513SOL     OW65223   7.481  10.432   9.193 -0.0066  0.2134  0.5398
53513SOL    HW165224   7.412  10.391   9.246 -0.8805 -0.0369 -0.7540
53513SOL    HW265225   7.548  10.363   9.184 -0.3765 -0.1302  0.3754
53514SOL     OW65226   1.263   6.094   4.993 -0.0246 -0.5078  0.2862
53514SOL    HW165227   1.254   6.001   4.973  1.0043 -0.5826  0.1276
53514SOL    HW265228   1.179   6.132   4.968  0.0315 -1.1684 -0.9938
53515SOL     OW65229   4.592   4.575   1.160 -0.0709 -0.2466  0.2206
53515SOL    HW165230   4.520   4.604   1.216 -0.6947  0.9499 -1.1134
53515SOL    HW265231   4.667   4.627   1.188 -0.5820  0.9556 -0.5337
53516SOL     OW65232   8.318   9.580   1.985 -0.4212 -0.3043 -0.0379
53516SOL    HW165233   8.382   9.574   1.914 -1.2308  2.5835 -1.1278
53516SOL    HW265234   8.257   9.508   1.968 -1.3871  1.1183 -3.1659
53517SOL     OW65235   0.348   2.616   4.177 -0.4159  0.0484  0.1896
53517SOL    HW165236   0.347   2.527   4.213  0.2443 -0.2087 -0.4201
53517SOL    HW265237   0.322   2.671   4.251  2.1032 -0.3327  1.4655
53518SOL     OW65238  10.716   2.235   3.364  0.2151 -0.1344 -0.0680
53518SOL    HW165239  10.812   2.238   3.361  0.1715  0.9802 -2.3484
53518SOL    HW265240  10.694   2.158   3.312 -0.1343  0.0462 -0.1868
53519SOL     OW65241   6.586  10.153   1.580 -0.0868  0.1128 -0.0239
53519SOL    HW165242   6.545  10.203   1.651 -0.6163  0.7389 -0.7644
53519SOL    HW265243   6.629  10.080   1.625  1.4746  1.6815  1.1844
53520SOL     OW65244   6.996   7.948   7.596  0.0867 -0.4535 -0.2602
53520SOL    HW165245   7.088   7.952   7.570 -0.3742 -0.0046 -1.9641
53520SOL    HW265246   6.987   7.862   7.638  1.4282 -0.1840  0.6541
53521SOL     OW65247   3.549   9.716   6.513 -0.0017 -0.2834  0.3704
53521SOL    HW165248   3.598   9.722   6.431  0.3600 -0.4425  0.5740
53521SOL    HW265249   3.593   9.778   6.572 -0.1123 -0.3451  0.5184
53522SOL     OW65250   7.050   6.126   8.435  0.2099  0.2535  0.4864
53522SOL    HW165251   6.961   6.156   8.452  0.5598  1.3907  0.4104
53522SOL    HW265252   7.101   6.207   8.424  1.2955 -0.3682  0.7729
53523SOL     OW65253   5.698   2.531   0.095  0.2722 -0.0380 -0.2454
53523SOL    HW165254   5.652   2.568   0.170  0.5455  0.4328 -0.3070
53523SOL    HW265255   5.629   2.504   0.034  0.0740  1.3870 -0.6882
53524SOL     OW65256   5.363   2.380   0.881 -0.3787  0.5480  0.5618
53524SOL    HW165257   5.274   2.376   0.845 -1.1762  3.6026  1.9552
53524SOL    HW265258   5.357   2.332   0.963 -0.5950  0.3766  0.4504
53525SOL     OW65259  10.049  11.683   3.615 -0.2872  0.7400  0.3839
53525SOL    HW165260  10.138  11.696   3.649  0.0162  0.2112 -0.1783
53525SOL    HW265261  10.058  11.695   3.520 -0.9177  1.1751  0.3727
53526SOL     OW65262   5.808   1.668   2.737 -0.1378 -0.2867 -0.0612
53526SOL    HW165263   5.853   1.640   2.658  0.6935 -0.9744  0.6333
53526SOL    HW265264   5.877   1.703   2.794 -0.3107 -2.0049  1.3059
53527SOL     OW65265   0.140   4.545   4.516  0.1197 -0.0138 -0.4120
53527SOL    HW165266   0.212   4.511   4.464 -0.6640 -1.2661 -0.7199
53527SOL    HW265267   0.080   4.584   4.453 -0.9784 -1.8030 -0.5490
53528SOL     OW65268  11.384   1.741   6.267 -0.5134 -0.3449  0.1036
53528SOL    HW165269  11.332   1.662   6.283 -1.4145  0.7007  2.8958
53528SOL    HW265270  11.322   1.805   6.234 -0.5388  0.1795  1.1240
53529SOL     OW65271   2.882   7.673   6.297  0.0494  0.8539  0.1814
53529SOL    HW165272   2.821   7.732   6.253  0.2035  1.0317  0.2052
53529SOL    HW265273   2.860   7.586   6.263 -0.9789  0.7510  1.0300
53530SOL     OW65274   5.249   3.311   3.415 -0.0913  0.1409  0.1093
53530SOL    HW165275   5.291   3.387   3.374  1.0523 -0.4370  0.1652
53530SOL    HW265276   5.233   3.338   3.505 -0.4949  0.6104 -0.0958
53531SOL     OW65277   7.442   4.198   4.222  0.1578  0.4563 -0.1658
53531SOL    HW165278   7.367   4.163   4.269 -0.0275 -0.0489 -0.8192
53531SOL    HW265279   7.518   4.167   4.271 -0.0323  0.0111 -0.1446
53532SOL     OW65280   2.394   0.194   8.505  0.3434 -0.1372 -0.3241
53532SOL    HW165281   2.448   0.273   8.501  1.2612 -0.7970 -3.1212
53532SOL    HW265282   2.306   0.225   8.483  0.7788  0.1018 -1.8543
53533SOL     OW65283   6.374  10.491   7.197  0.0361 -0.0036 -0.4473
53533SOL    HW165284   6.458  10.494   7.243 -0.2017  1.5348 -0.0824
53533SOL    HW265285   6.367  10.575   7.153 -0.2450 -1.0218 -2.4812
53534SOL     OW65286   5.489  10.970   1.522 -0.4646  0.2721 -0.0787
53534SOL    HW165287   5.464  11.054   1.562 -1.8746  0.1547 -0.6490
53534SOL    HW265288   5.477  10.906   1.593 -1.5720  0.2636 -0.2500
53535SOL     OW65289   7.364   9.159   2.623  0.2458 -0.1924 -0.1653
53535SOL    HW165290   7.336   9.069   2.610  1.0495 -0.4574 -0.1374
53535SOL    HW265291   7.458   9.158   2.602 -0.1109  1.0405 -2.1217
53536SOL     OW65292   1.329   3.590   8.057 -0.2964 -0.1066 -0.4015
53536SOL    HW165293   1.369   3.531   8.121  0.6746  2.7916  1.8945
53536SOL    HW265294   1.402   3.619   8.002 -0.3182  0.6544 -0.0428
53537SOL     OW65295   0.990   5.153  10.934 -0.3356  0.0535  0.3876
53537SOL    HW165296   1.077   5.150  10.973  0.6608 -1.8672 -1.7232
53537SOL    HW265297   1.006   5.152  10.840 -2.6578  0.7353 -0.0755
53538SOL     OW65298   4.261   9.790   9.378 -0.1361  0.2291 -0.2429
53538SOL    HW165299   4.277   9.871   9.427  1.5920 -1.1209  1.5636
53538SOL    HW265300   4.171   9.767   9.401 -1.0009  2.0366 -1.5180
53539SOL     OW65301   5.931   8.113   0.002  0.5277  0.2325  0.4377
53539SOL    HW165302   5.871   8.045  -0.029  1.6393 -0.7243  0.3434
53539SOL    HW265303   5.949   8.089   0.093  1.4577 -0.0052  0.2005
53540SOL     OW65304   7.327   5.616   4.087  0.2403 -0.1450  0.1559
53540SOL    HW165305   7.267   5.601   4.160  0.6305  0.6754  0.6669
53540SOL    HW265306   7.414   5.617   4.127  0.3998  1.0696 -0.1756
53541SOL     OW65307  11.914  10.754  11.359 -0.1184  0.5612  0.2573
53541SOL    HW165308  11.885  10.719  11.443  0.2411  0.4995  0.3561
53541SOL    HW265309  12.010  10.748  11.361 -0.1462 -0.7330 -0.7162
53542SOL     OW65310   3.773   4.143  11.071  0.0571 -0.4607 -0.2831
53542SOL    HW165311   3.703   4.101  11.120  0.3790 -0.5058  0.1448
53542SOL    HW265312   3.787   4.086  10.996 -0.9981  0.0404 -0.8857
53543SOL     OW65313   2.288   2.805   6.661  0.3725 -0.1887 -0.2804
53543SOL    HW165314   2.330   2.775   6.581 -1.2136 -0.2054 -1.1570
53543SOL    HW265315   2.207   2.754   6.666 -0.5893  1.2999  0.1572
53544SOL     OW65316   8.364   2.602   6.463 -0.2372 -0.2550  0.6480
53544SOL    HW165317   8.364   2.674   6.399 -0.1359 -1.8993 -1.2846
53544SOL    HW265318   8.412   2.638   6.538  1.8795  0.9448 -1.1636
53545SOL     OW65319   5.973   0.419   8.816  0.3320 -0.1937 -0.0959
53545SOL    HW165320   5.957   0.348   8.754 -0.3553 -0.2711  0.1618
53545SOL    HW265321   5.986   0.375   8.900 -0.4365 -0.0122  0.1300
53546SOL     OW65322   1.000  10.297   1.861 -0.2935  0.3266  1.1300
53546SOL    HW165323   0.910  10.329   1.859  0.5519  2.9822  0.7757
53546SOL    HW265324   1.020  10.287   1.954 -0.7909  0.2930  1.2336
53547SOL     OW65325   0.013   6.577   1.145  0.7785  0.7996 -0.6910
53547SOL    HW165326   0.025   6.492   1.102  1.2574  0.9090 -0.7792
53547SOL    HW265327  -0.076   6.573   1.180  1.0647 -0.0458 -0.0070
53548SOL     OW65328   2.518   5.488   3.809 -0.0282  0.3779  0.0632
53548SOL    HW165329   2.497   5.412   3.863  0.2984  0.2481  0.0122
53548SOL    HW265330   2.531   5.559   3.872 -1.5018  0.6921  0.0508
53549SOL     OW65331   2.219  10.898   7.802  0.7857  0.3373  0.0885
53549SOL    HW165332   2.193  10.990   7.807  0.9489  0.3436  1.0292
53549SOL    HW265333   2.137  10.850   7.804  0.7232  0.4448  0.1450
53550SOL     OW65334   8.131   0.608   3.787  0.5977 -0.0376 -0.2331
53550SOL    HW165335   8.088   0.657   3.717 -1.0167 -0.5524  0.3456
53550SOL    HW265336   8.192   0.550   3.742  0.8822  0.8873 -1.0745
53551SOL     OW65337   2.942  10.668  10.000  0.1118 -0.3497 -0.0339
53551SOL    HW165338   2.946  10.701  10.089  1.4425  1.8694 -0.8227
53551SOL    HW265339   2.853  10.634   9.991 -0.5769  0.8284  1.6660
53552SOL     OW65340   3.996   0.470   3.456 -0.1607 -0.1103 -0.2102
53552SOL    HW165341   3.976   0.543   3.515 -0.7604 -0.3405 -0.1285
53552SOL    HW265342   3.965   0.499   3.370  1.1151  0.4086 -0.5186
53553SOL     OW65343   5.549  10.086   5.757  0.0869 -0.2924  0.0121
53553SOL    HW165344   5.600  10.162   5.729  2.9509 -1.8966  0.4806
53553SOL    HW265345   5.533  10.037   5.676 -1.0107  0.3058 -0.1639
53554SOL     OW65346   5.832   7.555   2.206 -0.2412  0.5138  0.1100
53554SOL    HW165347   5.800   7.593   2.124 -0.6752 -1.2129 -0.5616
53554SOL    HW265348   5.771   7.484   2.225  0.7665 -0.1220  1.0900
53555SOL     OW65349   1.183   4.853   6.684 -0.8290  0.4946  0.8341
53555SOL    HW165350   1.227   4.884   6.763 -1.2815  1.1421  0.8350
53555SOL    HW265351   1.099   4.900   6.683 -1.0398  0.1157  0.2333
53556SOL     OW65352   0.171   6.198   9.494  0.1104 -0.5443  0.2983
53556SOL    HW165353   0.135   6.170   9.410 -2.3183  0.0024  1.0974
53556SOL    HW265354   0.215   6.281   9.475 -1.3697  0.1367 -0.2654
53557SOL     OW65355  11.267   9.785   5.888 -0.3040 -0.0534  0.2658
53557SOL    HW165356  11.359   9.813   5.893 -0.1326 -0.6074  0.2379
53557SOL    HW265357  11.235   9.796   5.977 -0.0495 -0.3954  0.4031
53558SOL     OW65358   0.339   2.192   4.795 -0.0195  0.2361  0.2663
53558SOL    HW165359   0.388   2.261   4.840 -1.4441  0.4643  1.5728
53558SOL    HW265360   0.338   2.119   4.857 -0.4305 -0.1343 -0.1708
53559SOL     OW65361   5.508   1.120   4.801  0.1806  0.6051 -0.1243
53559SOL    HW165362   5.587   1.163   4.833  0.2715  0.3089  0.0539
53559SOL    HW265363   5.538   1.068   4.726  0.4642 -0.7595  0.9013
53560SOL     OW65364   7.345   0.746   3.994 -0.0077  0.1810  0.1519
53560SOL    HW165365   7.406   0.704   4.055  0.3172  0.7116  0.1896
53560SOL    HW265366   7.393   0.820   3.958  0.6429 -1.3988 -2.4726
53561SOL     OW65367   7.620   7.235   1.372  0.0296 -0.2606  0.4406
53561SOL    HW165368   7.562   7.242   1.296 -0.8177 -0.0315  1.0929
53561SOL    HW265369   7.561   7.237   1.448  0.9786  2.4799  1.2553
53562SOL     OW65370   8.095   4.977   7.706 -0.2141  0.3849 -0.2272
53562SOL    HW165371   7.999   4.982   7.711 -0.3262  1.4177 -2.1682
53562SOL    HW265372   8.114   4.886   7.685 -0.6178 -0.2265  1.8651
53563SOL     OW65373  10.092   5.114   9.012  0.2931 -0.5370 -0.4204
53563SOL    HW165374  10.006   5.072   9.008 -0.2029  0.3057  0.7850
53563SOL    HW265375  10.154   5.042   9.001 -0.5422 -1.0760 -1.9453
53564SOL     OW65376   4.260   9.933   2.816 -0.3167 -0.0126  0.4721
53564SOL    HW165377   4.274  10.027   2.824  3.7482 -0.3275 -0.9559
53564SOL    HW265378   4.272   9.900   2.905 -0.5961  0.7050  0.7840
53565SOL     OW65379   8.066   1.707   6.663  0.2370  0.0918 -0.2503
53565SOL    HW165380   8.089   1.724   6.754  2.7173  0.4131 -0.8440
53565SOL    HW265381   8.081   1.791   6.619  2.8581 -0.9051 -1.5260
53566SOL     OW65382   1.116   2.788   2.523  0.5497  0.6367 -0.0645
53566SOL    HW165383   1.026   2.813   2.541  1.0130  0.9126  2.1184
53566SOL    HW265384   1.169   2.848   2.575  1.9943  0.1458 -0.8858
53567SOL     OW65385   6.821  10.683   5.802  0.0763  0.9264  0.2001
53567SOL    HW165386   6.874  10.644   5.871  0.5064  2.2304  0.6416
53567SOL    HW265387   6.872  10.760   5.774  0.2828  0.0503 -2.0761
53568SOL     OW65388   5.076   1.188   7.491 -0.0312  0.1932 -0.8926
53568SOL    HW165389   5.028   1.231   7.561 -0.1214  0.5511 -1.1713
53568SOL    HW265390   5.166   1.183   7.523 -0.2863 -0.6766 -0.2785
53569SOL     OW65391   7.651   9.520   1.900  0.4461  0.1180 -0.1042
53569SOL    HW165392   7.645   9.428   1.922  2.4926 -0.2508 -0.8219
53569SOL    HW265393   7.672   9.521   1.807  1.0973  1.2834  0.0329
53570SOL     OW65394  11.920  11.435   6.310  0.1742  0.2610  0.3263
53570SOL    HW165395  12.007  11.400   6.332  0.2504 -0.1280 -0.5721
53570SOL    HW265396  11.898  11.492   6.384  1.1953  0.3640  0.5630
53571SOL     OW65397  11.028  10.261   7.091  0.5486 -0.2014 -0.3282
53571SOL    HW165398  10.998  10.174   7.119  1.9109 -0.1202  1.6003
53571SOL    HW265399  10.947  10.310   7.076 -0.3969 -0.6079  2.6326
53572SOL     OW65400   4.367   1.313   7.589 -0.5657 -0.1631 -0.2239
53572SOL    HW165401   4.365   1.401   7.628 -2.3217  0.6566 -1.9690
53572SOL    HW265402   4.398   1.256   7.660 -1.5079  1.5315  1.6692
53573SOL     OW65403   0.904   4.373   1.823 -0.3773  0.6175  0.3493
53573SOL    HW165404   0.922   4.406   1.911  0.3730 -0.5008  0.6348
53573SOL    HW265405   0.980   4.401   1.771 -0.2235  0.2248  0.3571
53574SOL     OW65406   2.730   3.314   9.715  0.5270  0.8181 -0.1807
53574SOL    HW165407   2.769   3.365   9.644 -0.0464  2.1751  0.4575
53574SOL    HW265408   2.705   3.231   9.674 -0.0051  1.6614 -1.6200
53575SOL     OW65409   4.507   4.407   1.696  0.3247 -0.2058  0.0250
53575SOL    HW165410   4.561   4.455   1.634  1.4321 -2.0713 -0.5587
53575SOL    HW265411   4.558   4.328   1.715 -1.0458 -0.7782  1.5181
53576SOL     OW65412   0.221   6.940   4.872  0.0122  0.3239  0.4723
53576SOL    HW165413   0.272   6.938   4.791  2.2125 -2.3453  1.7293
53576SOL    HW265414   0.277   6.986   4.934 -0.4234 -0.0227  1.1330
53577SOL     OW65415   7.895   0.704   3.663  0.1060  0.2358  0.3742
53577SOL    HW165416   7.906   0.629   3.605  3.5433  1.3186 -0.5975
53577SOL    HW265417   7.876   0.666   3.748  1.3739 -1.7644 -0.1771
53578SOL     OW65418   6.659   7.977   5.500  0.1460  0.1477  0.2097
53578SOL    HW165419   6.575   8.018   5.520  0.4320  0.4616  0.7880
53578SOL    HW265420   6.702   8.036   5.438  0.2857  0.4019  0.5473
53579SOL     OW65421   2.267   6.584   3.875  0.2074  0.1101 -0.1927
53579SOL    HW165422   2.291   6.641   3.802 -0.0892 -1.8568 -1.8873
53579SOL    HW265423   2.346   6.532   3.892  0.1396  0.2540  0.6307
53580SOL     OW65424   3.983   5.849   1.774  0.5498  0.3843 -0.0681
53580SOL    HW165425   3.921   5.910   1.735  0.4067 -1.3133 -2.7231
53580SOL    HW265426   4.050   5.836   1.706  0.5152 -2.4225  0.3209
53581SOL     OW65427   5.059   9.236   2.336  0.3537 -0.4003  0.3947
53581SOL    HW165428   5.013   9.290   2.400 -1.3282 -2.4885  1.0476
53581SOL    HW265429   4.990   9.198   2.282  1.4924 -1.5589 -0.3099
53582SOL     OW65430  11.689   1.588   4.049  0.1929 -0.0477  0.3307
53582SOL    HW165431  11.731   1.503   4.036  2.2700  1.0506 -0.7166
53582SOL    HW265432  11.597   1.573   4.027  0.9982 -1.4568 -2.6883
53583SOL     OW65433   8.474   9.326   1.094  0.0163  0.4111  0.2901
53583SOL    HW165434   8.493   9.335   1.187 -0.1965  1.2351  0.2623
53583SOL    HW265435   8.544   9.271   1.060  0.7327  1.0313  0.7277
53584SOL     OW65436   8.549  10.064   4.775  0.1923 -0.2414  0.2771
53584SOL    HW165437   8.464  10.036   4.808  0.3182 -0.9788 -0.0042
53584SOL    HW265438   8.612  10.031   4.839  0.3423 -0.5909 -0.0449
53585SOL     OW65439   3.541   4.702   0.106 -0.5458  0.0841 -0.2979
53585SOL    HW165440   3.457   4.660   0.122 -1.2257  1.6080  0.3165
53585SOL    HW265441   3.555   4.694   0.011 -0.1450 -2.3594 -0.0820
53586SOL     OW65442   1.490   0.835   7.255  0.4275  0.0890 -0.4444
53586SOL    HW165443   1.466   0.914   7.302  1.6255  0.6580 -0.7590
53586SOL    HW265444   1.547   0.865   7.184  0.8230 -1.0392 -0.6311
53587SOL     OW65445   5.664   0.772   0.068  0.8457 -0.2195  0.1904
53587SOL    HW165446   5.609   0.727   0.133 -0.4827  0.5509 -0.3611
53587SOL    HW265447   5.699   0.701   0.014 -0.9016 -0.6601 -0.4278
53588SOL     OW65448   1.018   7.713   9.574  0.1281  0.0389 -0.5633
53588SOL    HW165449   1.011   7.754   9.661  0.6736  1.2958 -1.0930
53588SOL    HW265450   0.938   7.661   9.566  0.5196 -0.9014  1.0762
53589SOL     OW65451   4.768   0.243   6.106 -0.1152  0.0574  0.2007
53589SOL    HW165452   4.836   0.185   6.072  0.5812  0.5620  0.7018
53589SOL    HW265453   4.811   0.328   6.117 -1.4618  1.0837 -1.8255
53590SOL     OW65454   9.123   3.908   7.665  0.0408  0.6909  0.0453
53590SOL    HW165455   9.117   3.887   7.758  0.2579 -2.6705 -0.5968
53590SOL    HW265456   9.087   3.997   7.659 -0.5915  0.7785  3.2114
53591SOL     OW65457  11.389   0.013   7.555  0.0528  0.5049 -0.1040
53591SOL    HW165458  11.366  -0.056   7.619  0.7488  0.6543  0.3159
53591SOL    HW265459  11.348   0.092   7.591  1.1872  0.7718  0.6446
53592SOL     OW65460  10.037   8.498   6.385  0.4647 -0.0548  0.2347
53592SOL    HW165461  10.051   8.558   6.458 -0.6975 -0.1458  0.5462
53592SOL    HW265462   9.988   8.550   6.321  1.7557  0.1288 -0.6480
53593SOL     OW65463   5.608   4.992   5.088  0.2772 -0.3694 -0.3982
53593SOL    HW165464   5.525   5.027   5.121  0.6295  0.1548 -0.0442
53593SOL    HW265465   5.597   4.897   5.092  0.3011 -0.3438  1.2780
53594SOL     OW65466   0.456   9.391   1.951  0.4523 -0.4339  0.0634
53594SOL    HW165467   0.542   9.383   1.992  0.7287  1.0454 -0.1540
53594SOL    HW265468   0.468   9.458   1.883 -1.1256  0.6904  0.8255
53595SOL     OW65469  10.665   1.180   4.557 -0.0856  0.3094 -0.2386
53595SOL    HW165470  10.639   1.093   4.527 -2.4855 -0.2316  2.9120
53595SOL    HW265471  10.750   1.168   4.598 -0.6908 -0.7386  0.7497
53596SOL     OW65472  10.383   8.664  10.477  0.2169  0.2522  0.2286
53596SOL    HW165473  10.310   8.716  10.442 -1.6062 -1.1130  1.7896
53596SOL    HW265474  10.433   8.726  10.530 -2.7032  0.3725  3.2291
53597SOL     OW65475   8.333  10.221  11.869  0.4587 -0.1765  0.0046
53597SOL    HW165476   8.248  10.233  11.828  1.0865  0.0021 -1.3023
53597SOL    HW265477   8.362  10.134  11.838 -0.1050 -1.1604  2.0670
53598SOL     OW65478   4.288   3.167   5.546 -0.5665  0.0265  0.3963
53598SOL    HW165479   4.320   3.084   5.580  1.6263  0.8449  0.4950
53598SOL    HW265480   4.305   3.162   5.452 -0.0724  0.4718  0.4530
53599SOL     OW65481   6.223   1.504  11.008 -0.4158 -0.0449  0.0576
53599SOL    HW165482   6.238   1.594  10.978 -0.8917  0.8510  2.3043
53599SOL    HW265483   6.311   1.467  11.017 -0.2369 -0.4605 -2.4814
53600SOL     OW65484   8.741   2.620  11.477 -0.0835  0.1651 -0.4636
53600SOL    HW165485   8.660   2.578  11.447 -1.7104  1.3314  2.0011
53600SOL    HW265486   8.770   2.567  11.551  0.5233  0.6664 -0.3317
53601SOL     OW65487   2.595   1.456   9.765 -0.2742 -0.0265  0.7771
53601SOL    HW165488   2.660   1.390   9.787  1.3071  1.5501  1.0677
53601SOL    HW265489   2.562   1.487   9.849 -1.6418 -0.9649  0.6352
53602SOL     OW65490   4.615   5.566   0.055  0.0980  0.3710 -0.2522
53602SOL    HW165491   4.688   5.604   0.104 -2.2732  3.2668  1.4573
53602SOL    HW265492   4.613   5.614  -0.027  0.7553 -0.5522 -0.8289
53603SOL     OW65493   0.898   3.243  10.218 -0.1378  0.4151  0.3449
53603SOL    HW165494   0.868   3.187  10.290  0.0486  0.0271  0.1231
53603SOL    HW265495   0.872   3.196  10.139  1.2543 -0.0532  0.1383
53604SOL     OW65496   6.523   0.117   1.851  0.0504 -0.0935  0.0662
53604SOL    HW165497   6.505   0.080   1.937  0.8391 -0.9688 -0.1306
53604SOL    HW265498   6.492   0.051   1.789  1.7181 -0.6017 -0.2853
53605SOL     OW65499   7.063   3.824   7.375 -0.8108 -0.8537 -0.1928
53605SOL    HW165500   7.132   3.771   7.414 -0.4488  1.1040  2.0891
53605SOL    HW265501   7.083   3.824   7.281  1.5595 -1.3791  0.2515
53606SOL     OW65502   8.320   5.007   4.162  0.1366  0.1998  0.2726
53606SOL    HW165503   8.370   5.088   4.156 -0.5047  0.6322  0.6307
53606SOL    HW265504   8.322   4.985   4.255  0.5958 -0.3894  0.1318
53607SOL     OW65505  10.957   5.312   5.126  0.1315  0.4944 -0.3413
53607SOL    HW165506  11.016   5.381   5.095 -0.1316  2.3483  2.9456
53607SOL    HW265507  10.870   5.341   5.099  0.1270  0.9005  0.1066
53608SOL     OW65508   5.905   9.316  11.435 -0.2817  0.0212 -0.1135
53608SOL    HW165509   5.968   9.313  11.363  0.3249  0.3828  0.3989
53608SOL    HW265510   5.867   9.404  11.429  0.5375  0.4307  0.6589
53609SOL     OW65511   0.685   7.377   3.093 -0.4797  0.5473 -0.0736
53609SOL    HW165512   0.766   7.327   3.083 -0.1999  1.2889 -1.8908
53609SOL    HW265513   0.678   7.393   3.187  0.4736 -1.1353  0.3256
53610SOL     OW65514   7.444   9.224   1.944  0.1319 -0.2817  0.0410
53610SOL    HW165515   7.357   9.253   1.971  0.2514 -0.3158  0.4664
53610SOL    HW265516   7.434   9.130   1.927 -0.2358 -0.0303 -1.2588
53611SOL     OW65517   7.546   0.426   5.080  0.0170 -0.0585  0.3601
53611SOL    HW165518   7.541   0.511   5.036  0.7431  0.1329  0.6353
53611SOL    HW265519   7.499   0.439   5.162  1.2630  0.4946  1.0240
53612SOL     OW65520   2.208   8.713   3.150  0.1560  0.5960  0.3141
53612SOL    HW165521   2.163   8.668   3.222 -3.1805 -1.8286 -2.8741
53612SOL    HW265522   2.277   8.653   3.123  0.6925  1.0038  0.7507
53613SOL     OW65523  10.621   7.435   6.659 -0.0155  0.3805  0.1568
53613SOL    HW165524  10.558   7.397   6.597 -1.1124 -0.6002  1.7991
53613SOL    HW265525  10.593   7.525   6.670  0.0964  0.5195 -0.6407
53614SOL     OW65526   0.027   9.707   7.479 -0.5191  0.5051  0.0779
53614SOL    HW165527   0.054   9.655   7.403  1.0503 -0.5715  1.3012
53614SOL    HW265528  -0.008   9.788   7.442 -0.5278 -0.3089 -1.7960
53615SOL     OW65529   8.659   7.576   2.233  0.2861 -0.0760  0.2079
53615SOL    HW165530   8.593   7.562   2.301  0.5675 -2.0276  0.1235
53615SOL    HW265531   8.637   7.662   2.197 -1.5052 -0.1560  0.9631
53616SOL     OW65532  10.990   5.202   3.007 -0.5278  0.9243  0.0549
53616SOL    HW165533  10.960   5.230   2.921  0.3407 -0.3851 -0.7099
53616SOL    HW265534  11.005   5.283   3.055  0.2163  1.7206 -1.4731
53617SOL     OW65535   9.492   8.653   7.111 -0.5292  0.0495 -0.3192
53617SOL    HW165536   9.483   8.688   7.200 -1.8191  0.1028 -0.4417
53617SOL    HW265537   9.402   8.637   7.083 -0.0894 -0.9400 -1.2408
53618SOL     OW65538   0.204   4.523   8.082 -0.6240  0.4966  0.1171
53618SOL    HW165539   0.279   4.579   8.103  2.7923 -3.8601  0.9572
53618SOL    HW265540   0.206   4.516   7.987 -0.2950  0.7822  0.0993
53619SOL     OW65541  10.436   0.320   5.834 -0.7330 -0.1090 -0.0629
53619SOL    HW165542  10.474   0.233   5.824 -0.7148 -0.5793  2.9905
53619SOL    HW265543  10.504   0.371   5.879 -0.8274  1.4468 -1.6084
53620SOL     OW65544   1.871   6.798  11.355 -0.3405 -0.2556  0.1353
53620SOL    HW165545   1.919   6.750  11.287 -1.0526  0.0287 -0.5913
53620SOL    HW265546   1.868   6.888  11.322  0.7737  0.2586  1.3653
53621SOL     OW65547   5.349   0.894  10.152 -0.0182  0.1686  0.2196
53621SOL    HW165548   5.419   0.842  10.112 -0.4441  1.1853 -1.9650
53621SOL    HW265549   5.273   0.837  10.151 -0.2883  0.5155 -1.4600
53622SOL     OW65550   0.603   2.739   0.447  0.1686  0.1081  0.4248
53622SOL    HW165551   0.559   2.752   0.531 -0.8808 -0.7944  0.0560
53622SOL    HW265552   0.559   2.800   0.388 -0.0980 -0.2642  0.2276
53623SOL     OW65553   8.291  10.257   0.880 -0.1611 -0.7014 -0.1160
53623SOL    HW165554   8.234  10.313   0.828 -2.1391 -1.4712  1.1188
53623SOL    HW265555   8.235  10.184   0.907  2.1576 -3.0087 -1.1624
53624SOL     OW65556   3.856   1.919   6.505 -0.1654  0.1744  0.0003
53624SOL    HW165557   3.895   1.903   6.592  0.9696 -0.9794 -0.6833
53624SOL    HW265558   3.925   1.962   6.455 -1.5617  2.9445  0.2826
53625SOL     OW65559   5.316   5.470   8.414 -0.4273 -0.1785  0.0802
53625SOL    HW165560   5.317   5.517   8.331  0.8333  0.8427  0.6372
53625SOL    HW265561   5.383   5.514   8.467  0.3096 -2.1660  0.8830
53626SOL     OW65562   3.998   7.114   0.895  0.0185 -0.4370 -0.2424
53626SOL    HW165563   3.913   7.153   0.912  0.2112 -0.3771  0.5867
53626SOL    HW265564   4.043   7.177   0.838  1.0291  1.5004  2.5094
53627SOL     OW65565   5.869  10.707   5.533 -0.0012  0.0164 -0.5371
53627SOL    HW165566   5.937  10.670   5.477  0.7426 -0.2321  0.4934
53627SOL    HW265567   5.872  10.801   5.516 -0.0116 -0.0925 -1.1557
53628SOL     OW65568   1.996   6.389  10.039 -0.1142 -0.5589  0.6774
53628SOL    HW165569   2.058   6.363   9.971 -0.3537  1.9336 -0.6145
53628SOL    HW265570   1.932   6.318  10.041  0.2170 -0.9796 -1.3180
53629SOL     OW65571   6.462   9.457   3.457  0.7340  0.0267  0.3072
53629SOL    HW165572   6.458   9.380   3.514 -1.7701  0.6481  1.1079
53629SOL    HW265573   6.473   9.531   3.517 -0.8177  0.5917 -0.0461
53630SOL     OW65574   1.090  11.909  10.927 -0.0413  0.0106  0.1685
53630SOL    HW165575   1.172  11.859  10.935  0.2905  0.2911 -1.1248
53630SOL    HW265576   1.099  11.955  10.843 -1.8878 -0.6121 -0.4239
53631SOL     OW65577  10.298   3.527   6.528 -0.2269  0.4529 -0.2684
53631SOL    HW165578  10.293   3.560   6.438 -0.8341 -1.1058 -0.8375
53631SOL    HW265579  10.263   3.599   6.581 -0.6473  1.0873 -1.3505
53632SOL     OW65580   1.875   2.470   8.446 -0.3938  0.4632  0.2975
53632SOL    HW165581   1.880   2.426   8.361  1.0660 -0.8752  1.0392
53632SOL    HW265582   1.916   2.410   8.507  1.5907  2.7585  1.3909
53633SOL     OW65583  10.395   3.479   1.942 -0.0786 -0.3665 -0.3438
53633SOL    HW165584  10.392   3.539   2.017 -1.6502 -2.0682  1.0649
53633SOL    HW265585  10.487   3.476   1.917  0.3489  0.9479  0.9399
53634SOL     OW65586  11.131   1.355  10.008  0.3059  0.1764  0.3243
53634SOL    HW165587  11.056   1.377   9.953  1.3602  1.5483 -0.6413
53634SOL    HW265588  11.176   1.438  10.022  0.0952 -0.1110  3.3570
53635SOL     OW65589   5.846   1.755   2.228  0.4745 -0.2282  0.3451
53635SOL    HW165590   5.832   1.786   2.139 -0.0914 -0.2333  0.4271
53635SOL    HW265591   5.808   1.823   2.284  1.7003  0.2425  0.6187
53636SOL     OW65592   9.308   4.861   2.772 -0.2742 -0.3492 -0.1261
53636SOL    HW165593   9.345   4.800   2.707 -0.2319 -1.3275  0.7774
53636SOL    HW265594   9.230   4.896   2.730 -1.5423 -2.6924  0.0819
53637SOL     OW65595   0.987   8.077  11.209 -0.2642  0.7202  0.3230
53637SOL    HW165596   0.951   8.148  11.156 -1.5422  0.3236  0.6231
53637SOL    HW265597   1.079   8.099  11.220 -0.0885  1.0537 -1.6329
53638SOL     OW65598   2.146   3.636   7.002 -0.1925 -0.3630 -0.2960
53638SOL    HW165599   2.206   3.627   7.077  0.2898 -1.1476 -0.7664
53638SOL    HW265600   2.201   3.618   6.926 -1.1556 -1.6845 -0.7005
53639SOL     OW65601   1.063  10.494   9.679 -0.2992 -0.3122 -0.0583
53639SOL    HW165602   0.993  10.546   9.639 -2.7367 -3.8539 -0.7835
53639SOL    HW265603   1.018  10.422   9.723  2.7697 -0.9527  2.4485
53640SOL     OW65604   5.296  11.271   0.654 -0.3037 -0.2469 -0.0128
53640SOL    HW165605   5.374  11.282   0.601 -0.1526 -3.0305 -0.5178
53640SOL    HW265606   5.231  11.328   0.613  0.7342  0.1418 -1.1737
53641SOL     OW65607   3.490   8.722  10.117 -0.0258  0.6235 -0.2625
53641SOL    HW165608   3.471   8.816  10.115 -1.6117  0.3612  0.7046
53641SOL    HW265609   3.548   8.712  10.193 -2.5540  0.4632  1.8047
53642SOL     OW65610   9.580   8.833   1.107  0.1866  0.0286 -0.1234
53642SOL    HW165611   9.613   8.892   1.175 -0.2878  0.7992 -0.5486
53642SOL    HW265612   9.635   8.755   1.115 -0.3899 -0.2462  1.6840
53643SOL     OW65613  10.678   2.907   7.723  0.4504  0.2675  0.6187
53643SOL    HW165614  10.655   2.857   7.801  0.5435 -0.3328  0.2680
53643SOL    HW265615  10.760   2.867   7.692  0.1348  0.1517 -0.0878
53644SOL     OW65616   3.133   1.269   3.868 -0.3558 -0.5080  0.3669
53644SOL    HW165617   3.076   1.343   3.886 -0.6017 -0.3019 -1.1020
53644SOL    HW265618   3.221   1.307   3.860 -0.5632 -0.2382 -0.9758
53645SOL     OW65619   1.909   3.869  10.582  0.5500  0.3479 -0.1678
53645SOL    HW165620   1.961   3.874  10.501 -2.0690 -0.9923 -2.0459
53645SOL    HW265621   1.957   3.807  10.637  0.3088 -1.9686 -2.4034
53646SOL     OW65622   7.793   5.425   0.535  0.6671  0.2069 -0.0545
53646SOL    HW165623   7.745   5.396   0.613  0.6613 -0.3365 -0.2634
53646SOL    HW265624   7.791   5.351   0.476  0.7961  0.5720 -0.5237
53647SOL     OW65625   9.478  10.704   1.759 -0.2384  0.3544 -0.0719
53647SOL    HW165626   9.443  10.620   1.732 -1.2613  0.2366  1.4981
53647SOL    HW265627   9.401  10.760   1.770  0.3269  1.1051  0.1545
53648SOL     OW65628   8.276   1.785   5.957 -0.1908  0.0591 -0.5217
53648SOL    HW165629   8.277   1.747   6.045  1.4418 -0.7506 -0.8434
53648SOL    HW265630   8.246   1.875   5.970 -0.4575 -0.2057  0.7981
53649SOL     OW65631   8.017   0.972   8.337  0.2936  0.3601 -0.4618
53649SOL    HW165632   7.975   1.058   8.333  3.4053  2.0316 -0.2512
53649SOL    HW265633   7.975   0.929   8.411 -1.7425  1.4144 -0.9170
53650SOL     OW65634   6.110   9.448   0.019 -0.1108 -0.2814 -0.0338
53650SOL    HW165635   6.135   9.473  -0.070 -0.4837  0.4588  0.0694
53650SOL    HW265636   6.135   9.356   0.025  1.6911  0.1687 -0.2530
53651SOL     OW65637   3.258   7.484   2.309  0.7248  0.0857  0.0579
53651SOL    HW165638   3.342   7.467   2.266  1.4226  0.5766  1.1637
53651SOL    HW265639   3.244   7.409   2.366 -0.2797 -0.6442 -1.0966
53652SOL     OW65640   5.861   2.147   1.229 -0.0202 -0.6916 -0.0421
53652SOL    HW165641   5.921   2.082   1.194  1.4975  1.7675 -2.3563
53652SOL    HW265642   5.913   2.198   1.291 -0.1184  0.4694 -0.8759
53653SOL     OW65643  11.847   7.146   9.687 -0.4994 -0.6416  0.3231
53653SOL    HW165644  11.890   7.169   9.605 -1.1820  1.7787  0.5648
53653SOL    HW265645  11.910   7.169   9.755 -0.2328 -1.9230  0.5354
53654SOL     OW65646   1.852   3.538   5.503 -0.1035  0.0160  0.7541
53654SOL    HW165647   1.859   3.574   5.414 -0.8879  0.0537  0.7002
53654SOL    HW265648   1.915   3.467   5.505 -0.3863 -0.2669  0.0170
53655SOL     OW65649   6.694   2.013   4.329 -0.2458  0.2140  0.3572
53655SOL    HW165650   6.649   1.957   4.265 -0.6663 -0.5502  1.2895
53655SOL    HW265651   6.786   1.987   4.322  0.1414  1.8714 -1.6498
53656SOL     OW65652   6.484   3.141  10.171  0.2399 -0.1314 -0.6694
53656SOL    HW165653   6.573   3.169  10.193  0.8106 -0.5232 -2.3278
53656SOL    HW265654   6.495   3.051  10.139 -0.6729 -0.0145 -1.3474
53657SOL     OW65655   9.495  10.337   6.628  0.6633 -0.0594  0.5608
53657SOL    HW165656   9.453  10.422   6.615  1.4805  0.3604  0.6213
53657SOL    HW265657   9.588  10.354   6.619  0.8347 -0.9750  0.4581
53658SOL     OW65658   3.389   8.391  11.810  0.3583 -0.1459 -0.3034
53658SOL    HW165659   3.475   8.360  11.781  1.1038  1.1456  0.3942
53658SOL    HW265660   3.333   8.313  11.810  1.7337 -1.1699 -0.0315
53659SOL     OW65661  11.587   3.264   1.555 -0.1881  0.1127  0.1021
53659SOL    HW165662  11.682   3.260   1.563 -0.4003 -0.2662  3.7714
53659SOL    HW265663  11.572   3.339   1.497  2.3082  1.1808  0.7028
53660SOL     OW65664   7.315   3.398   7.659 -0.3286 -0.2955 -0.0924
53660SOL    HW165665   7.261   3.440   7.726  2.1087  0.8170  1.2826
53660SOL    HW265666   7.316   3.305   7.684 -1.1012 -0.2405  0.1814
53661SOL     OW65667   7.420   1.544   5.024 -0.2045  0.6299 -0.2489
53661SOL    HW165668   7.421   1.548   4.928  0.1432  2.1088 -0.2016
53661SOL    HW265669   7.504   1.503   5.047 -0.0047  0.8640 -0.5579
53662SOL     OW65670   7.684  11.179   6.140  0.0425  0.3102 -0.2516
53662SOL    HW165671   7.746  11.175   6.213 -0.3439 -0.0719  0.0606
53662SOL    HW265672   7.691  11.269   6.108  2.6467 -0.4085 -1.9196
53663SOL     OW65673   5.073  10.596   1.753  0.7530  0.1050 -0.3142
53663SOL    HW165674   5.157  10.582   1.797 -0.3202  0.8237  2.1466
53663SOL    HW265675   5.089  10.668   1.692  1.9539  0.1554  0.0498
53664SOL     OW65676   8.595   2.776   4.047 -0.4770  0.3619  0.5138
53664SOL    HW165677   8.636   2.706   4.098  2.5751  1.8538  0.3465
53664SOL    HW265678   8.564   2.733   3.967  2.1687 -0.7171 -0.0207
53665SOL     OW65679  11.272   8.945   9.680 -0.6663  0.3564 -0.1867
53665SOL    HW165680  11.313   8.859   9.670 -0.7064 -0.0323  2.3500
53665SOL    HW265681  11.320   8.986   9.752 -0.8847  2.3555 -1.1123
53666SOL     OW65682   1.585   3.940   2.405  0.2200 -0.3698  0.1935
53666SOL    HW165683   1.613   4.016   2.355 -1.0165  0.5187  0.8068
53666SOL    HW265684   1.614   3.957   2.495  1.8538 -1.6576 -0.0309
53667SOL     OW65685   9.219   6.774   8.257 -0.3825 -0.0251  0.5257
53667SOL    HW165686   9.278   6.849   8.269  0.6071 -0.9642  1.9641
53667SOL    HW265687   9.220   6.730   8.342 -2.2626 -0.7479  0.2130
53668SOL     OW65688   8.082   6.934   0.983 -0.2703 -0.7432  0.0565
53668SOL    HW165689   8.119   6.881   0.913  1.1087 -1.7781  1.5127
53668SOL    HW265690   7.993   6.952   0.954  0.3066 -0.9636 -2.0412
53669SOL     OW65691   8.041  11.433   6.758  0.2266 -0.0701  0.7032
53669SOL    HW165692   7.993  11.350   6.754 -0.1424  0.1394  0.7655
53669SOL    HW265693   8.133  11.407   6.763  0.1914 -0.4556 -0.4489
53670SOL     OW65694   4.036  10.357  10.953 -0.8783  0.1369  0.2074
53670SOL    HW165695   4.031  10.287  10.888 -0.6020  1.2570 -1.0571
53670SOL    HW265696   4.058  10.435  10.903  0.6028  0.8085  1.8067
53671SOL     OW65697   4.923  11.301   7.632 -0.6931 -0.0009  0.1890
53671SOL    HW165698   4.846  11.245   7.643 -1.7712  1.0006 -1.7695
53671SOL    HW265699   4.887  11.388   7.616  0.8534  0.5184 -0.6414
53672SOL     OW65700  11.412   7.446   2.326 -0.0015 -0.0224 -0.1341
53672SOL    HW165701  11.417   7.376   2.261 -0.8929 -0.1430 -0.0941
53672SOL    HW265702  11.481   7.425   2.389 -0.9777 -1.5403  0.4940
53673SOL     OW65703  11.933  10.916   3.123  0.3696  0.5649  0.1186
53673SOL    HW165704  12.004  10.878   3.071 -0.6590 -0.7064 -0.4298
53673SOL    HW265705  11.853  10.883   3.082 -0.5078 -0.3453  2.3814
53674SOL     OW65706   9.693  10.460   1.934 -0.1906 -0.7568 -0.4190
53674SOL    HW165707   9.782  10.451   1.967 -0.5398 -0.6426  0.5962
53674SOL    HW265708   9.690  10.548   1.895  0.1731 -0.8146 -0.5813
53675SOL     OW65709   6.430   8.921   7.614 -0.0055  0.3124  0.4833
53675SOL    HW165710   6.391   8.992   7.665 -1.0804  0.3904 -0.4122
53675SOL    HW265711   6.397   8.934   7.525 -1.2735 -2.0265  0.5329
53676SOL     OW65712  11.169   2.164   2.232  0.8948  0.2331 -0.0570
53676SOL    HW165713  11.128   2.123   2.309  1.1151  1.2817  0.6426
53676SOL    HW265714  11.113   2.139   2.159  0.7176 -0.8559  0.4256
53677SOL     OW65715   9.900   6.414   5.147  0.3274 -0.5269 -0.1585
53677SOL    HW165716   9.867   6.502   5.132  2.2688  0.4685  1.0068
53677SOL    HW265717   9.834   6.356   5.109 -0.8925  1.4225 -1.1223
53678SOL     OW65718   5.696   6.019   5.739 -0.3165 -0.0222 -0.3041
53678SOL    HW165719   5.781   6.042   5.779 -1.0525  1.2757  0.5724
53678SOL    HW265720   5.651   6.102   5.728 -2.0216 -0.7911  0.5008
53679SOL     OW65721   6.407  10.611   8.497  0.0708  0.1122  0.0981
53679SOL    HW165722   6.479  10.580   8.551  0.4579  0.9790  0.0979
53679SOL    HW265723   6.419  10.567   8.413  1.7839  1.7145 -0.5651
53680SOL     OW65724   7.189   9.939   6.231 -0.0863  0.4526 -0.0875
53680SOL    HW165725   7.143   9.895   6.303 -0.7405  0.2942 -0.5883
53680SOL    HW265726   7.130  10.011   6.207 -0.4297 -0.1949 -1.2252
53681SOL     OW65727   1.805   9.770  11.910  0.6037 -0.8473 -0.1804
53681SOL    HW165728   1.778   9.805  11.995  0.0592 -0.7748 -0.3773
53681SOL    HW265729   1.863   9.697  11.931 -0.6450 -1.7381  0.2766
53682SOL     OW65730   0.013   9.573   9.064 -0.2615  0.1964 -1.0643
53682SOL    HW165731  -0.053   9.585   8.995 -0.6162  0.3258 -0.7013
53682SOL    HW265732   0.059   9.657   9.068 -1.1032  0.6313 -0.2434
53683SOL     OW65733   7.536  11.343   8.606  0.0491 -0.4298 -0.2091
53683SOL    HW165734   7.565  11.355   8.696  1.6426  0.1994 -0.7685
53683SOL    HW265735   7.584  11.266   8.575 -0.6711 -0.7904 -0.4523
53684SOL     OW65736   4.989   1.927   9.668 -0.2252 -0.2271 -0.2223
53684SOL    HW165737   5.031   1.997   9.618 -1.9284  0.8348 -0.2559
53684SOL    HW265738   4.985   1.853   9.607  0.5690  0.0048 -0.5677
53685SOL     OW65739   8.934   0.651   6.760 -0.0643  0.0989 -0.2336
53685SOL    HW165740   8.973   0.564   6.767  0.8298  0.5308  0.3414
53685SOL    HW265741   8.941   0.674   6.668  0.3786 -0.1373 -0.2619
53686SOL     OW65742   5.460   4.923   5.397  0.0042  0.1290  0.1749
53686SOL    HW165743   5.553   4.925   5.421  0.0559  3.6547  0.2040
53686SOL    HW265744   5.416   4.888   5.474  1.2293 -0.6834  0.5367
53687SOL     OW65745   6.440  11.928   3.878 -0.1592  0.0845  0.3925
53687SOL    HW165746   6.475  11.994   3.937 -2.0314  0.3635  1.2792
53687SOL    HW265747   6.374  11.975   3.827  1.7065 -0.0425 -2.3256
53688SOL     OW65748   3.948   4.493  10.303 -0.1841  0.1317 -0.1936
53688SOL    HW165749   3.898   4.447  10.370 -1.4752 -0.0127 -1.2086
53688SOL    HW265750   3.966   4.579  10.341 -0.8259  0.0298  0.3615
53689SOL     OW65751   7.792   0.886   2.602  1.0462  0.0856 -0.1898
53689SOL    HW165752   7.867   0.866   2.546  1.1430  0.4092 -0.1763
53689SOL    HW265753   7.823   0.954   2.661  1.7850 -2.0237  2.0313
53690SOL     OW65754   0.780   6.928   7.914  0.2018  0.0356 -0.3824
53690SOL    HW165755   0.748   6.844   7.946  1.1144  0.2730  1.2386
53690SOL    HW265756   0.868   6.936   7.951 -1.1317  3.2858  2.5838
53691SOL     OW65757  11.756   7.422   1.743 -0.4060 -0.6019  0.2171
53691SOL    HW165758  11.723   7.333   1.758 -1.1407 -0.5662 -1.0529
53691SOL    HW265759  11.729   7.471   1.821 -2.9296 -0.7382 -0.4651
53692SOL     OW65760  10.058  10.243   5.498  0.3930  0.4222  0.9331
53692SOL    HW165761  10.063  10.156   5.459  0.9655  0.7444  0.2694
53692SOL    HW265762  10.140  10.286   5.474 -0.3517  1.5488  0.2325
53693SOL     OW65763   5.471   3.500   3.037  0.0311 -0.1214  0.3040
53693SOL    HW165764   5.440   3.577   2.988  1.1270  0.7976  0.9858
53693SOL    HW265765   5.426   3.506   3.121 -0.1792 -0.4422  0.2117
53694SOL     OW65766   1.021   8.970   6.039 -0.0203 -0.3648  0.1648
53694SOL    HW165767   0.986   9.043   5.988  1.1102  0.8701  1.0662
53694SOL    HW265768   1.036   8.901   5.975 -2.3907 -0.3561 -0.5234
53695SOL     OW65769  11.757   9.743  11.220 -0.3329 -0.0571  0.1197
53695SOL    HW165770  11.706   9.704  11.149  0.3550 -2.8023  1.0398
53695SOL    HW265771  11.801   9.670  11.262  0.9370  1.7225  2.1121
53696SOL     OW65772   9.817   2.800   4.107  0.1285 -0.1528 -0.1367
53696SOL    HW165773   9.798   2.723   4.161  1.9038 -0.9701 -0.5941
53696SOL    HW265774   9.795   2.772   4.018  1.6561 -0.4979 -0.4287
53697SOL     OW65775   2.133   4.066  10.554  0.1139 -0.1201  0.8092
53697SOL    HW165776   2.056   4.105  10.594 -0.4215 -0.0715 -0.2140
53697SOL    HW265777   2.103   4.038  10.467  0.6759 -2.0894  1.1911
53698SOL     OW65778   3.665   1.819   1.804  0.0450  0.2107  0.2487
53698SOL    HW165779   3.598   1.882   1.777 -0.9760 -1.7245 -2.0470
53698SOL    HW265780   3.733   1.873   1.845 -2.1002  2.4229  1.1223
53699SOL     OW65781   1.709  10.398  10.621 -0.3783  0.0752 -0.2176
53699SOL    HW165782   1.752  10.327  10.573  0.0755  0.2354 -0.0526
53699SOL    HW265783   1.737  10.477  10.576 -1.1555  0.1296 -0.6079
53700SOL     OW65784   9.476   1.207   7.092 -0.3450  0.2168  0.4378
53700SOL    HW165785   9.530   1.240   7.164 -0.1013 -0.6402  0.6593
53700SOL    HW265786   9.537   1.200   7.018 -0.8022  2.0549 -0.1805
53701SOL     OW65787   8.664  10.202   5.409 -0.2537 -0.1758  0.3498
53701SOL    HW165788   8.607  10.247   5.346  1.1415 -1.2616 -1.8196
53701SOL    HW265789   8.635  10.111   5.407 -1.3325  0.0503  2.6976
53702SOL     OW65790  11.233   5.652   4.018  0.2084 -0.2776  0.0051
53702SOL    HW165791  11.266   5.718   3.956  0.6412 -0.4955 -0.0004
53702SOL    HW265792  11.301   5.585   4.019  0.5656  0.0721  1.2729
53703SOL     OW65793  11.547   2.840   1.238 -0.1140 -0.0876  0.4652
53703SOL    HW165794  11.519   2.749   1.223  0.9722 -0.4372  0.4793
53703SOL    HW265795  11.467   2.892   1.226 -0.5238 -0.9302 -0.6737
53704SOL     OW65796   7.304   9.264  10.713  0.4747 -0.9488  0.0368
53704SOL    HW165797   7.239   9.214  10.664  1.0435 -0.2902 -1.4596
53704SOL    HW265798   7.295   9.354  10.680  0.7420 -0.4384  1.3068
53705SOL     OW65799  11.842   7.857   2.768  0.0096  1.0471  0.2118
53705SOL    HW165800  11.806   7.793   2.829  0.1443  1.9997  1.3356
53705SOL    HW265801  11.888   7.805   2.702  0.8825  0.0013  1.5873
53706SOL     OW65802   2.642   8.319   0.867  0.5136  0.4708 -0.2645
53706SOL    HW165803   2.629   8.341   0.960 -0.8375 -0.6411 -0.1572
53706SOL    HW265804   2.627   8.402   0.821  1.6706  1.1481  0.5179
53707SOL     OW65805   9.020   0.755   4.036 -0.2507 -0.1441  0.0478
53707SOL    HW165806   9.004   0.846   4.062 -1.4355 -0.4888  0.5783
53707SOL    HW265807   8.962   0.740   3.962 -1.1921 -0.8919  0.8975
53708SOL     OW65808   9.811   7.646   9.113  0.1202  0.1242 -0.1096
53708SOL    HW165809   9.762   7.628   9.032  0.5747 -0.3466 -0.2914
53708SOL    HW265810   9.894   7.682   9.083 -0.5640  2.1211  0.2400
53709SOL     OW65811   9.082   1.964   3.951  0.3897  0.3977  0.0267
53709SOL    HW165812   9.122   1.878   3.942 -1.3608 -0.4220 -0.3093
53709SOL    HW265813   9.023   1.956   4.026  2.7174  2.3703  2.2637
53710SOL     OW65814   6.335   8.235   3.838 -0.2156 -0.0794  0.0229
53710SOL    HW165815   6.364   8.302   3.775  0.0662  2.3095  2.4866
53710SOL    HW265816   6.247   8.262   3.862 -0.6015 -1.3827  0.1213
53711SOL     OW65817   8.515  10.093   4.027  0.7663  0.1735 -0.7956
53711SOL    HW165818   8.594  10.118   4.076  0.2062  0.2976  0.0744
53711SOL    HW265819   8.498  10.168   3.970  0.6618  0.6365 -0.1818
53712SOL     OW65820   7.001   2.987   5.141  0.2959  0.1311  0.6188
53712SOL    HW165821   7.070   2.973   5.206  0.9871  0.9764  0.0893
53712SOL    HW265822   6.969   3.075   5.159  0.2089  0.2146  0.0621
53713SOL     OW65823   2.873   5.546  11.726 -0.2130 -0.3905 -0.2211
53713SOL    HW165824   2.925   5.573  11.801 -1.1365 -0.6428  0.5373
53713SOL    HW265825   2.932   5.492  11.674  0.5541  0.1036  0.1254
53714SOL     OW65826   6.622   3.995  10.455  0.9496  0.1023  0.1364
53714SOL    HW165827   6.697   4.047  10.485  1.3335 -0.1351 -0.4154
53714SOL    HW265828   6.571   4.055  10.401 -0.4035  0.9228  2.1643
53715SOL     OW65829  10.496   9.444   4.890 -0.2342  0.1287 -0.3194
53715SOL    HW165830  10.524   9.384   4.959  1.1555  2.1682  1.0208
53715SOL    HW265831  10.559   9.515   4.893  0.5358 -0.1320 -4.4733
53716SOL     OW65832   7.699   4.694   4.036  0.2380 -0.0384  0.4450
53716SOL    HW165833   7.779   4.655   4.073  1.3455  1.2963 -0.4331
53716SOL    HW265834   7.688   4.775   4.086 -1.3192 -0.7887  1.3995
53717SOL     OW65835  11.210  10.850   5.803 -0.4739 -0.1534  0.3663
53717SOL    HW165836  11.186  10.888   5.719  2.2575 -0.5079 -0.6746
53717SOL    HW265837  11.230  10.926   5.858 -0.0745  0.0437 -0.0425
53718SOL     OW65838   3.998  10.498   7.629 -0.3701  0.0652  0.1555
53718SOL    HW165839   4.083  10.496   7.673 -0.4318  0.7672  0.3158
53718SOL    HW265840   3.979  10.406   7.609  0.8292 -0.0162 -0.6868
53719SOL     OW65841   4.057   2.010   2.958 -0.2260  0.3247  0.2522
53719SOL    HW165842   3.961   2.009   2.966 -0.3695  0.6155 -1.0863
53719SOL    HW265843   4.072   2.008   2.863  1.1066 -0.1449  0.4573
53720SOL     OW65844   4.203   2.347   2.256  0.3996 -0.0997  0.3300
53720SOL    HW165845   4.270   2.346   2.325  0.2145  1.5650  0.5973
53720SOL    HW265846   4.253   2.335   2.175  0.6809 -1.5632  0.6868
53721SOL     OW65847   9.925   6.684   1.572 -0.2112  0.0491  0.3098
53721SOL    HW165848   9.836   6.656   1.592 -0.0838 -2.3626 -1.9738
53721SOL    HW265849   9.915   6.763   1.520 -1.1888 -1.2687 -1.5936
53722SOL     OW65850   7.868   3.804   2.506 -0.4692 -0.5021 -0.1301
53722SOL    HW165851   7.866   3.833   2.415 -0.2373  1.2070  0.3704
53722SOL    HW265852   7.853   3.709   2.502 -2.5279 -0.1594 -1.7967
53723SOL     OW65853   6.959   8.839   0.484  0.4797  0.1239  0.1281
53723SOL    HW165854   6.894   8.841   0.413 -1.3687  1.2343  1.7499
53723SOL    HW265855   6.966   8.930   0.513  1.1056 -0.3213  1.4485
53724SOL     OW65856   5.576   1.584   3.269 -0.3204  0.1159  0.4103
53724SOL    HW165857   5.547   1.546   3.186  1.3458  0.0143 -0.1669
53724SOL    HW265858   5.544   1.675   3.265 -0.4394  0.0573 -0.2486
53725SOL     OW65859   2.211   1.270  10.377 -0.2770 -0.2789  0.3681
53725SOL    HW165860   2.169   1.184  10.380 -0.1177 -0.3748 -0.0575
53725SOL    HW265861   2.279   1.266  10.445 -0.1411 -0.5582  0.2166
53726SOL     OW65862   1.974   7.838  10.394  0.3558 -0.2412 -0.2437
53726SOL    HW165863   2.041   7.792  10.344 -0.1523 -1.6134  0.2944
53726SOL    HW265864   1.958   7.782  10.470 -1.2171  0.1691 -0.2409
53727SOL     OW65865   8.812   6.339   5.423  0.2230 -0.1843  0.5073
53727SOL    HW165866   8.735   6.364   5.373 -0.2194 -0.3950  1.0719
53727SOL    HW265867   8.877   6.314   5.357 -0.3936 -0.5877  0.0438
53728SOL     OW65868   8.315   3.969   2.705 -0.0156 -0.2992 -0.7318
53728SOL    HW165869   8.257   3.893   2.703  0.3112 -0.5716 -0.1903
53728SOL    HW265870   8.402   3.933   2.725 -0.0911  0.3220  0.9127
53729SOL     OW65871   6.227   2.009   7.387  0.5133 -0.0638  0.0370
53729SOL    HW165872   6.170   1.932   7.385 -0.4959  0.5928  1.4337
53729SOL    HW265873   6.167   2.084   7.379  1.3532  0.6032 -0.2006
53730SOL     OW65874   8.508   9.772   3.866 -0.1555  0.3008  0.0160
53730SOL    HW165875   8.551   9.752   3.949 -0.3696 -0.5655 -0.0694
53730SOL    HW265876   8.558   9.844   3.829  2.1079 -1.5688 -0.7529
53731SOL     OW65877   8.816   5.565   1.029 -0.0538  0.2321 -0.1668
53731SOL    HW165878   8.833   5.565   0.935 -0.5159 -0.1646 -0.2570
53731SOL    HW265879   8.844   5.651   1.059  3.1337 -0.6897 -0.1110
53732SOL     OW65880  11.785  11.854   1.224 -0.5122 -0.2168  0.3986
53732SOL    HW165881  11.769  11.877   1.315 -2.2540 -0.5701  0.2241
53732SOL    HW265882  11.742  11.769   1.213  1.1345 -0.9947 -0.3347
53733SOL     OW65883   2.029   1.063  11.957 -0.1712  0.0855  0.7030
53733SOL    HW165884   2.090   1.094  11.890 -0.6301  0.3962  0.4249
53733SOL    HW265885   2.002   0.976  11.927 -0.5013  0.2907  0.3962
53734SOL     OW65886  10.998   8.840   4.929  0.2095  0.0231 -0.3296
53734SOL    HW165887  10.962   8.753   4.917 -1.7793  0.8596 -0.7555
53734SOL    HW265888  10.984   8.884   4.845  1.2904  0.7425 -0.1638
53735SOL     OW65889   4.240   5.322   1.579 -0.4418  0.2320  0.2491
53735SOL    HW165890   4.256   5.343   1.487  1.1425 -2.7256 -0.2647
53735SOL    HW265891   4.276   5.397   1.627  1.6502  0.4294 -1.4741
53736SOL     OW65892   4.421   8.414   0.569  0.5215  0.3747  0.1739
53736SOL    HW165893   4.339   8.364   0.572  1.0793 -0.5196  1.0468
53736SOL    HW265894   4.424   8.459   0.653  1.2228 -0.1029  0.4117
53737SOL     OW65895   4.976   8.370   5.513  0.2435 -0.4741 -0.6964
53737SOL    HW165896   5.021   8.358   5.429  0.9911  0.8209 -0.4991
53737SOL    HW265897   4.942   8.459   5.510  1.8584  0.2771  1.0843
53738SOL     OW65898  11.453   1.162   3.814 -0.2713  0.3072 -0.4165
53738SOL    HW165899  11.402   1.089   3.848  0.8508 -1.7155 -2.7779
53738SOL    HW265900  11.528   1.122   3.771  1.1005  2.9453 -0.7206
53739SOL     OW65901  11.012  11.461   8.919 -0.5944 -0.3199  0.4726
53739SOL    HW165902  10.919  11.467   8.939 -0.7194  1.4366 -0.4562
53739SOL    HW265903  11.027  11.529   8.853  0.8186 -2.2650 -1.3622
53740SOL     OW65904   6.034   4.770   1.869  0.1291  0.3225 -0.2220
53740SOL    HW165905   6.124   4.803   1.868  0.2369  0.0597  0.5295
53740SOL    HW265906   6.010   4.768   1.961  0.3722 -2.3435 -0.1209
53741SOL     OW65907   6.646   7.338  10.471 -0.2164  0.7501  0.2509
53741SOL    HW165908   6.648   7.399  10.544 -0.2442  0.4856  0.4765
53741SOL    HW265909   6.731   7.349  10.427 -0.4352  1.3348 -0.0352
53742SOL     OW65910   0.376   7.718   2.631  0.2544  0.5165  0.2082
53742SOL    HW165911   0.321   7.793   2.654 -0.6993  0.9700 -3.0774
53742SOL    HW265912   0.451   7.756   2.586  1.0251 -0.3936  0.6817
53743SOL     OW65913   0.678   4.717   4.952 -0.1921 -0.0536  0.2425
53743SOL    HW165914   0.584   4.711   4.967 -0.2452  0.2983  0.0514
53743SOL    HW265915   0.691   4.678   4.865 -0.3493  1.2048 -0.3598
53744SOL     OW65916   2.080   1.532   5.608  0.2403  0.9346  0.4160
53744SOL    HW165917   2.119   1.619   5.596 -1.6566  2.0080  1.5540
53744SOL    HW265918   2.050   1.531   5.699  2.0141 -1.7382  1.0998
53745SOL     OW65919   4.028   1.110   8.226 -0.2731 -0.5339 -0.2721
53745SOL    HW165920   4.023   1.180   8.161 -1.2884  0.4838  0.8491
53745SOL    HW265921   4.031   1.156   8.310 -0.2380 -1.8304  0.4570
53746SOL     OW65922   1.944  10.990  10.865  0.1512  0.5798  0.2379
53746SOL    HW165923   1.854  10.986  10.832  0.8054 -1.5017 -1.5243
53746SOL    HW265924   1.964  11.083  10.869 -1.5735  1.0411 -0.9010
53747SOL     OW65925   6.125   0.485   0.976 -0.0752 -0.4149 -0.0960
53747SOL    HW165926   6.190   0.553   0.991 -1.9244  0.9432  2.2711
53747SOL    HW265927   6.073   0.517   0.902  1.0812 -0.9263 -1.1806
53748SOL     OW65928  10.095   9.646   5.134  0.3962  0.2090 -0.4235
53748SOL    HW165929  10.129   9.634   5.223  0.1035  0.5247 -0.2696
53748SOL    HW265930  10.172   9.634   5.078  0.4771 -0.5101 -0.1630
53749SOL     OW65931   0.282   2.897   2.231  0.5399 -0.0633 -0.2364
53749SOL    HW165932   0.329   2.839   2.171 -1.1896  0.6504 -2.4169
53749SOL    HW265933   0.190   2.888   2.207 -0.1237  1.0645  1.6406
53750SOL     OW65934   4.785   9.865   6.258  0.8879 -0.5031 -0.1887
53750SOL    HW165935   4.757   9.939   6.311  1.3711  0.0456 -0.6855
53750SOL    HW265936   4.717   9.799   6.271  0.6524 -0.1190  0.5663
53751SOL     OW65937   4.005   5.711   5.020  0.5376  0.1552  0.0145
53751SOL    HW165938   4.061   5.718   4.943  0.6299 -0.1967  0.0442
53751SOL    HW265939   3.987   5.617   5.028 -0.2218  0.2875 -0.1057
53752SOL     OW65940  10.589   9.656   8.759  0.5549  0.0061 -0.1802
53752SOL    HW165941  10.659   9.715   8.784  0.9985  0.0430 -1.4706
53752SOL    HW265942  10.620   9.569   8.785  0.8201  0.0928 -0.2062
53753SOL     OW65943   8.056  11.851   4.889 -0.5766 -0.4109 -0.3208
53753SOL    HW165944   8.140  11.808   4.874 -0.4513 -0.7568  1.1854
53753SOL    HW265945   8.037  11.834   4.981 -2.1569 -0.0768 -0.5586
53754SOL     OW65946   4.759   2.843  11.952 -0.0335 -0.2823  0.4525
53754SOL    HW165947   4.714   2.893  11.883  3.6598  0.0663 -1.9846
53754SOL    HW265948   4.790   2.909  12.013 -0.2248 -0.2058  0.4680
53755SOL     OW65949  10.419   6.336   4.806 -0.8578 -0.6143 -0.0333
53755SOL    HW165950  10.506   6.367   4.781 -0.7128 -1.5160 -0.6829
53755SOL    HW265951  10.382   6.300   4.726 -1.0740 -1.9552  0.6498
53756SOL     OW65952   7.198  10.496   1.739 -0.6238  0.6454  0.3751
53756SOL    HW165953   7.175  10.428   1.675  0.7306  0.0232  0.4986
53756SOL    HW265954   7.154  10.469   1.819 -1.5323  0.8880 -0.0336
53757SOL     OW65955   4.112   6.586   2.566  0.0348 -0.1117  0.7603
53757SOL    HW165956   4.202   6.580   2.596 -0.2789 -0.2821  1.7123
53757SOL    HW265957   4.118   6.608   2.473  1.0728 -1.7091  0.4166
53758SOL     OW65958   9.087   8.331   4.891  0.3515  0.2061 -0.4047
53758SOL    HW165959   9.067   8.405   4.835  2.1095  0.0746 -1.2926
53758SOL    HW265960   9.090   8.256   4.832  0.8243 -0.1799  0.0886
53759SOL     OW65961   2.890   5.187  11.377 -0.4586  0.1100  0.2185
53759SOL    HW165962   2.800   5.202  11.405 -1.7144 -0.4813 -3.0305
53759SOL    HW265963   2.907   5.096  11.401 -1.8564 -0.7005 -1.6308
53760SOL     OW65964  11.750   5.449   0.401 -0.0444  0.6789 -0.2890
53760SOL    HW165965  11.836   5.489   0.387  0.3207 -0.1295 -0.3959
53760SOL    HW265966  11.707   5.508   0.463  0.5370  1.1587 -0.3254
53761SOL     OW65967   5.918  10.634   4.185 -0.1059  0.1899 -0.5771
53761SOL    HW165968   6.010  10.614   4.201 -0.1823 -0.6260 -1.1049
53761SOL    HW265969   5.916  10.679   4.101 -0.2612 -0.5442 -0.9777
53762SOL     OW65970   3.900   3.214  11.924  0.3002 -0.3574 -0.2590
53762SOL    HW165971   3.988   3.184  11.947 -0.2434 -0.3210  2.0949
53762SOL    HW265972   3.847   3.134  11.921  0.4206 -0.4167 -1.9910
53763SOL     OW65973  11.657  10.538  10.033  0.0900  0.1376 -0.1309
53763SOL    HW165974  11.746  10.573  10.028 -0.1928  0.8443 -0.3415
53763SOL    HW265975  11.666  10.446  10.012  0.4690  0.6656 -2.6394
53764SOL     OW65976   0.583  11.556   3.340 -0.6189 -0.8097 -0.0484
53764SOL    HW165977   0.552  11.598   3.420 -0.3945  0.2926 -0.5181
53764SOL    HW265978   0.567  11.463   3.354  0.9626 -0.8533  1.9788
53765SOL     OW65979   3.786   6.761   4.685  0.0495  0.1604  0.4181
53765SOL    HW165980   3.711   6.765   4.744 -0.4861 -0.0457 -0.2393
53765SOL    HW265981   3.767   6.826   4.617 -0.0600 -0.6603 -0.3546
53766SOL     OW65982  10.520   4.390  10.277  0.5214  0.5022  0.5207
53766SOL    HW165983  10.571   4.461  10.237 -2.0303  2.2307  0.0535
53766SOL    HW265984  10.492   4.425  10.361 -1.0537  0.2308  0.1429
53767SOL     OW65985   5.177  10.956  11.420  0.0721 -0.7087 -0.2355
53767SOL    HW165986   5.236  10.967  11.494  1.2048 -3.2337 -0.6263
53767SOL    HW265987   5.090  10.948  11.459  0.4560 -0.5018  0.6845
53768SOL     OW65988   1.124   3.872   9.310 -0.3339  0.2884  0.4394
53768SOL    HW165989   1.047   3.827   9.274  0.2161  0.1243 -0.5731
53768SOL    HW265990   1.158   3.812   9.376  1.2887 -1.6068 -1.9419
53769SOL     OW65991   7.096   7.870   0.237 -0.0217  0.0487  0.4144
53769SOL    HW165992   7.125   7.960   0.222 -0.7337  0.1825 -0.2579
53769SOL    HW265993   7.150   7.839   0.309  2.4565 -0.0493 -1.3734
53770SOL     OW65994   4.419   5.047  10.806 -0.4353 -0.0892  0.1172
53770SOL    HW165995   4.420   4.969  10.750 -0.8394 -0.8672  1.1560
53770SOL    HW265996   4.443   5.014  10.892  0.6465  1.1710  0.3191
53771SOL     OW65997   6.520   7.598   3.438 -0.4848  0.2472  0.1584
53771SOL    HW165998   6.562   7.642   3.364 -0.5542  0.1787  0.0782
53771SOL    HW265999   6.431   7.582   3.409  0.1354 -2.0182 -0.7167
53772SOL     OW66000   1.632   3.454   7.492 -0.3182 -0.2043 -0.7416
53772SOL    HW166001   1.637   3.380   7.431 -1.6753 -2.0658  1.2676
53772SOL    HW266002   1.694   3.432   7.562 -0.5620  0.6868 -0.2274
53773SOL     OW66003  10.958   8.808   2.344 -1.0761 -0.1750 -0.0415
53773SOL    HW166004  10.929   8.850   2.263 -0.5417  1.3420  0.5154
53773SOL    HW266005  10.946   8.875   2.412 -1.7477 -1.4894  1.2034
53774SOL     OW66006  11.942   4.786   2.300  0.3189 -0.0492 -0.8456
53774SOL    HW166007  11.855   4.751   2.319  1.5949 -2.5917  0.9206
53774SOL    HW266008  11.925   4.870   2.258 -2.9658  0.3448  0.9215
53775SOL     OW66009   3.668   9.117   4.455  0.3459 -0.1700  0.2959
53775SOL    HW166010   3.605   9.186   4.475 -0.7681 -1.1917  0.3940
53775SOL    HW266011   3.737   9.129   4.521  0.4667  1.1743 -0.0347
53776SOL     OW66012   2.400   5.344   5.120  0.3774 -0.2694 -0.2981
53776SOL    HW166013   2.452   5.311   5.047  0.9637  0.5556 -0.2665
53776SOL    HW266014   2.460   5.339   5.195  0.4068  0.6437 -0.2532
53777SOL     OW66015   1.604  11.501   2.295 -0.2352 -0.0107 -0.1592
53777SOL    HW166016   1.629  11.580   2.344 -0.1487 -0.3556  0.3587
53777SOL    HW266017   1.534  11.462   2.347 -0.8774  0.1816 -0.8644
53778SOL     OW66018  11.446   5.996   2.296  0.0922  0.3574 -0.2578
53778SOL    HW166019  11.352   6.012   2.294  0.0012  0.1086  1.3262
53778SOL    HW266020  11.481   6.047   2.222 -1.2405  0.6576 -0.6968
53779SOL     OW66021   8.377   1.935   4.205 -0.2322  0.4645  0.0047
53779SOL    HW166022   8.330   2.010   4.168 -2.2596 -1.2048 -1.0194
53779SOL    HW266023   8.310   1.868   4.216  1.4566 -1.1269  1.1515
53780SOL     OW66024   9.970  10.630   4.494  0.6289  0.1131  0.0544
53780SOL    HW166025  10.028  10.627   4.570  0.3252 -0.9693  0.2663
53780SOL    HW266026   9.882  10.634   4.531  0.4188 -1.5968 -0.1956
53781SOL     OW66027   4.229   1.278  11.170  0.0283 -0.2560  0.0422
53781SOL    HW166028   4.144   1.275  11.213 -0.9768  2.2755 -1.5250
53781SOL    HW266029   4.223   1.213  11.100 -0.9874  0.4867 -0.5908
53782SOL     OW66030  11.596   2.213   5.618 -0.0105  0.7567  0.1188
53782SOL    HW166031  11.538   2.252   5.684 -1.5644 -1.6538  0.3044
53782SOL    HW266032  11.550   2.227   5.536 -0.8433 -0.9990  0.2440
53783SOL     OW66033   9.145   3.462   3.144  0.3799 -0.1819 -0.0181
53783SOL    HW166034   9.105   3.392   3.092 -1.1472  1.2242 -0.8332
53783SOL    HW266035   9.198   3.511   3.081 -0.7838  1.0130 -0.1060
53784SOL     OW66036   0.254   5.633   1.054  0.2481 -0.4005  0.0510
53784SOL    HW166037   0.168   5.658   1.087  1.2733  4.2338 -0.1088
53784SOL    HW266038   0.286   5.569   1.118 -1.6115  1.0813  2.6580
53785SOL     OW66039   7.880   4.659   3.551  0.3248  0.1229 -0.6438
53785SOL    HW166040   7.852   4.742   3.514  1.0873  0.7455  0.1435
53785SOL    HW266041   7.798   4.614   3.574 -0.1450  2.0053  1.8766
53786SOL     OW66042   7.558   5.025   7.669 -0.8016 -0.0371  0.4989
53786SOL    HW166043   7.568   5.116   7.640 -2.2686 -0.3034 -0.9931
53786SOL    HW266044   7.545   5.032   7.764  0.3260  1.1871  0.5904
53787SOL     OW66045   4.132   3.679   5.185  0.6707 -0.0012  0.1165
53787SOL    HW166046   4.084   3.722   5.256 -0.5753 -0.6687 -0.2825
53787SOL    HW266047   4.211   3.645   5.227  0.1189 -0.1048  1.1125
53788SOL     OW66048   6.433   0.111   4.429  0.2239  0.5726 -0.5976
53788SOL    HW166049   6.528   0.127   4.437  0.1819  0.7715 -0.4951
53788SOL    HW266050   6.427   0.036   4.369  0.3692  1.7051 -2.0758
53789SOL     OW66051   4.098   2.743   5.635  0.8592  0.6518 -0.2362
53789SOL    HW166052   4.114   2.777   5.723  1.2355  0.1643 -0.1150
53789SOL    HW266053   4.037   2.806   5.597  0.4844  0.7286  0.4639
53790SOL     OW66054   4.719   2.359   3.475  0.5664 -0.4402 -0.0596
53790SOL    HW166055   4.758   2.447   3.481  1.0509 -0.7316  2.2644
53790SOL    HW266056   4.653   2.359   3.545 -0.2128 -1.5649 -0.7835
53791SOL     OW66057   4.796   9.516   8.720  0.8866  0.2998 -0.0483
53791SOL    HW166058   4.812   9.422   8.706 -1.8517 -0.0216 -1.8020
53791SOL    HW266059   4.704   9.521   8.747  0.0970  2.5970 -2.6781
53792SOL     OW66060   0.408   4.036  11.660  0.2693 -0.2827  0.1191
53792SOL    HW166061   0.356   4.095  11.604  0.8629 -0.5834 -0.7859
53792SOL    HW266062   0.346   3.972  11.693 -1.1237  2.6470  3.8520
53793SOL     OW66063   2.181   4.466   6.960 -0.2823  0.2477  0.5739
53793SOL    HW166064   2.124   4.405   6.914  2.3753  0.0039 -2.7506
53793SOL    HW266065   2.240   4.411   7.011  0.6448  0.0858 -0.6247
53794SOL     OW66066   1.389   5.652   0.847 -0.2997  0.1064  0.5533
53794SOL    HW166067   1.444   5.679   0.773 -2.2636  1.7116 -0.4107
53794SOL    HW266068   1.369   5.560   0.829  0.5826  0.0059 -0.0083
53795SOL     OW66069   1.989  11.287  10.924 -0.3104 -0.0552  0.0845
53795SOL    HW166070   1.944  11.345  10.862  0.0854 -0.6601 -0.7839
53795SOL    HW266071   2.080  11.287  10.895  0.8521  2.8474  3.0757
53796SOL     OW66072   9.225   3.974   5.421 -0.1638 -0.4789 -0.1329
53796SOL    HW166073   9.212   3.902   5.483  0.4315  1.0146  1.8066
53796SOL    HW266074   9.234   4.052   5.475 -0.4726  1.0549 -2.1546
53797SOL     OW66075   7.655   7.127  11.591 -0.5930  0.2588 -0.4245
53797SOL    HW166076   7.567   7.161  11.576 -2.0388 -2.7115  0.4616
53797SOL    HW266077   7.701   7.198  11.634 -2.7505  1.7243 -0.3836
53798SOL     OW66078   8.156   2.247   1.175  0.7962 -0.0703  0.0318
53798SOL    HW166079   8.118   2.268   1.089  1.0315 -2.0046 -0.5834
53798SOL    HW266080   8.082   2.216   1.227  0.8852 -0.1347  0.1198
53799SOL     OW66081   7.321  11.246   5.265 -0.1798 -0.0854  0.3817
53799SOL    HW166082   7.238  11.198   5.266  0.5546 -1.4362 -0.0501
53799SOL    HW266083   7.342  11.255   5.172 -0.1846  0.9128  0.4629
53800SOL     OW66084   6.470   6.063   1.458  0.1965  0.2172 -0.2692
53800SOL    HW166085   6.528   6.024   1.523 -0.5322  0.1031  0.3255
53800SOL    HW266086   6.500   6.028   1.374  0.6588 -0.2375  0.0852
53801SOL     OW66087  10.584   6.562   7.414 -0.1490  0.8660  0.1199
53801SOL    HW166088  10.593   6.622   7.488 -0.1657  0.8652  0.1228
53801SOL    HW266089  10.609   6.476   7.449  0.9235  1.0445 -0.1526
53802SOL     OW66090   9.918   3.092   4.022 -0.2115  0.4990 -0.4537
53802SOL    HW166091   9.882   3.090   3.933 -0.2152 -1.4407 -0.4563
53802SOL    HW266092  10.004   3.133   4.012 -0.7823  1.5937 -1.0890
53803SOL     OW66093   6.771   6.126   8.393  0.4699 -0.4310 -0.1767
53803SOL    HW166094   6.700   6.079   8.437 -0.1255  0.2774 -0.3607
53803SOL    HW266095   6.775   6.211   8.437  1.6164 -0.6798  0.2300
53804SOL     OW66096   9.772   4.062   4.233 -0.0969 -0.1909 -0.6512
53804SOL    HW166097   9.680   4.081   4.255  0.4368  1.4272  0.3885
53804SOL    HW266098   9.797   3.993   4.295  0.0585  1.0916  0.7766
53805SOL     OW66099   0.548  10.021   4.025 -0.4182 -0.2715 -0.3507
53805SOL    HW166100   0.484  10.014   3.955  0.0821 -1.7572 -0.7082
53805SOL    HW266101   0.627   9.980   3.990  1.2132  2.6769 -0.4079
53806SOL     OW66102   2.225   4.107   2.117  0.2760 -0.3756 -0.0463
53806SOL    HW166103   2.216   4.171   2.187  2.0842  0.8478 -0.8526
53806SOL    HW266104   2.204   4.023   2.158  0.7128  0.3747  1.7885
53807SOL     OW66105   8.156   1.965   5.282 -0.1926  0.5318 -0.2412
53807SOL    HW166106   8.240   2.005   5.261  0.0695  0.4724  0.6598
53807SOL    HW266107   8.164   1.875   5.249 -0.2724  0.8065 -1.0289
53808SOL     OW66108   5.522  11.174   9.431 -0.9039  0.5793 -0.1253
53808SOL    HW166109   5.474  11.091   9.425 -0.3300  0.1378  1.0351
53808SOL    HW266110   5.454  11.240   9.443 -1.5013  0.5452 -2.7939
53809SOL     OW66111   4.298   5.756   1.879  0.1844  0.0421  0.0962
53809SOL    HW166112   4.347   5.703   1.941 -0.7035 -2.1369 -0.9766
53809SOL    HW266113   4.340   5.842   1.883  3.7327 -1.4747 -0.2756
53810SOL     OW66114  11.897   3.725   1.439 -0.1062  0.2816  0.2123
53810SOL    HW166115  11.885   3.761   1.351  2.7200 -0.2739 -0.5000
53810SOL    HW266116  11.883   3.631   1.428  2.4672 -0.1259 -0.2538
53811SOL     OW66117   5.477   5.209   5.509 -0.6666  0.1797 -0.0011
53811SOL    HW166118   5.446   5.128   5.468 -0.5133  0.7147 -1.2464
53811SOL    HW266119   5.543   5.181   5.572 -0.2182 -0.6455 -0.8011
53812SOL     OW66120   2.773   6.580  11.548 -0.2126  0.0828 -0.1254
53812SOL    HW166121   2.837   6.512  11.571  0.1643  0.2612 -0.6173
53812SOL    HW266122   2.698   6.532  11.514 -0.5606 -0.1566  0.9547
53813SOL     OW66123   9.749   8.901   2.949 -0.3473 -0.6506  0.4273
53813SOL    HW166124   9.703   8.915   2.867  0.1698 -1.8516 -0.0851
53813SOL    HW266125   9.842   8.897   2.924  0.0666  1.3933  1.3951
53814SOL     OW66126   7.280   9.046   1.622  1.0337 -0.1677 -0.4644
53814SOL    HW166127   7.304   9.064   1.713 -1.6131 -1.2456  0.5253
53814SOL    HW266128   7.261   8.952   1.620 -1.6732  0.3299 -1.3999
53815SOL     OW66129   3.253   0.182   0.071  0.0840 -0.5077 -0.3758
53815SOL    HW166130   3.267   0.254   0.009 -1.2816 -0.6132 -0.8363
53815SOL    HW266131   3.317   0.116   0.046  0.1600 -0.1740 -1.0777
53816SOL     OW66132   9.066   7.390  10.760 -0.2025  0.0912 -0.0680
53816SOL    HW166133   8.988   7.383  10.705 -0.9150 -0.7603  0.9967
53816SOL    HW266134   9.065   7.311  10.814  0.1811  1.0880  1.4927
53817SOL     OW66135   5.898  11.343   2.052  0.1367  0.6110  0.0341
53817SOL    HW166136   5.845  11.373   1.978  0.9755 -0.6445 -1.1379
53817SOL    HW266137   5.942  11.422   2.084  0.2475  1.0877 -1.2411
53818SOL     OW66138   0.149   2.700   0.153  0.9008 -0.7415  0.3292
53818SOL    HW166139   0.126   2.607   0.150 -0.4607 -0.4274  0.6352
53818SOL    HW266140   0.065   2.746   0.157  1.5136  0.5614 -0.9217
53819SOL     OW66141  10.683   8.731  11.784  0.0087 -0.0075 -0.0558
53819SOL    HW166142  10.776   8.734  11.805 -0.2917 -1.5780  1.8064
53819SOL    HW266143  10.667   8.639  11.762 -1.4789 -0.2744  1.8890
53820SOL     OW66144   3.451   9.929   1.071  0.0507  0.1888 -0.4110
53820SOL    HW166145   3.362   9.916   1.036 -0.5078  2.8793 -0.2415
53820SOL    HW266146   3.451   9.881   1.154 -0.2167 -2.2450 -1.7221
53821SOL     OW66147   2.278   9.104   3.046  0.4283  0.4641 -0.4922
53821SOL    HW166148   2.349   9.151   3.088  0.8763  0.1721 -0.9099
53821SOL    HW266149   2.210   9.170   3.031 -0.5089  0.2553  2.2730
53822SOL     OW66150   1.286  11.714  10.064 -0.2836 -0.1934  0.5288
53822SOL    HW166151   1.271  11.664  10.144  0.7733 -0.2013  0.7342
53822SOL    HW266152   1.367  11.678  10.028  0.9005  1.8340  1.0537
53823SOL     OW66153  10.298   3.952   3.536  0.4799 -0.5269  0.4638
53823SOL    HW166154  10.286   3.947   3.441  0.2152 -0.2799  0.4845
53823SOL    HW266155  10.345   3.871   3.558 -0.4913 -1.1713  0.2742
53824SOL     OW66156   9.736   5.960   1.285  0.4917  0.0627 -0.0447
53824SOL    HW166157   9.654   6.003   1.263  0.1997 -0.9317 -0.9917
53824SOL    HW266158   9.711   5.872   1.312  1.1878  0.0198  0.5181
53825SOL     OW66159   3.166   6.151   8.875 -0.1807  0.3507  0.4567
53825SOL    HW166160   3.093   6.093   8.855 -0.8132  1.3616 -0.2729
53825SOL    HW266161   3.245   6.099   8.857 -0.6713 -1.0521  2.1100
53826SOL     OW66162   9.087   6.598   6.056  0.3911 -0.3208 -0.1860
53826SOL    HW166163   9.063   6.511   6.022  0.9023 -0.4254 -0.2923
53826SOL    HW266164   9.183   6.599   6.052  0.4466 -0.1979  0.9295
53827SOL     OW66165   6.969  11.580  10.473  0.0162 -0.0592 -0.1443
53827SOL    HW166166   7.032  11.507  10.468  0.0209 -0.0836  0.2856
53827SOL    HW266167   6.890  11.545  10.432  0.2742 -0.0337 -0.6802
53828SOL     OW66168   7.035   9.739   1.563 -0.0020 -0.0318  0.0485
53828SOL    HW166169   6.983   9.787   1.498  0.3418 -0.7276 -0.7598
53828SOL    HW266170   7.116   9.790   1.571  1.8961 -2.0851 -3.3666
53829SOL     OW66171   2.468   1.240  10.547  0.6291 -0.0674  0.2741
53829SOL    HW166172   2.552   1.200  10.570  0.9153  0.5726  0.3664
53829SOL    HW266173   2.484   1.283  10.463  0.2827 -0.2728  0.1031
53830SOL     OW66174  10.517   5.638   0.712 -0.3030 -0.1158 -0.0283
53830SOL    HW166175  10.539   5.622   0.620 -2.3546 -1.0065 -0.4328
53830SOL    HW266176  10.444   5.579   0.730 -1.1888  1.3664  1.6147
53831SOL     OW66177   3.484   3.300   2.753 -0.1342  0.2484  0.2023
53831SOL    HW166178   3.463   3.352   2.831 -1.6080  0.1152 -0.0744
53831SOL    HW266179   3.408   3.243   2.742  0.7595 -0.8603 -0.4232
53832SOL     OW66180   8.101   0.052  11.625  0.3467 -0.4228  0.4219
53832SOL    HW166181   8.119   0.054  11.720 -0.7462 -0.3909  0.6333
53832SOL    HW266182   8.188   0.042  11.586  0.5920 -4.4260  1.5571
53833SOL     OW66183  11.496   2.767  10.459 -0.0481 -0.0148  0.5523
53833SOL    HW166184  11.537   2.754  10.544 -2.8822 -1.5315  1.8349
53833SOL    HW266185  11.523   2.692  10.407  0.1409 -0.1170  0.7961
53834SOL     OW66186   7.037   8.422  11.444 -0.0410 -0.0414 -0.4383
53834SOL    HW166187   7.062   8.351  11.385 -0.4712 -0.7477  0.2199
53834SOL    HW266188   6.969   8.385  11.499 -1.4820  1.3975 -1.1790
53835SOL     OW66189   1.839   6.384   0.662  0.1347 -0.6726  0.4210
53835SOL    HW166190   1.804   6.414   0.746 -1.4930 -2.0568  0.2835
53835SOL    HW266191   1.934   6.378   0.676  0.1934  1.5240  1.3426
53836SOL     OW66192  11.606   6.758   0.566  0.3335 -0.0584 -0.4169
53836SOL    HW166193  11.605   6.727   0.475  2.1807  0.5314 -0.6773
53836SOL    HW266194  11.610   6.853   0.559  1.5698 -0.0408  0.2458
53837SOL     OW66195   6.730   3.781   3.870 -0.3106 -0.2211 -0.1246
53837SOL    HW166196   6.783   3.705   3.895  0.5226  1.0672  2.3462
53837SOL    HW266197   6.640   3.756   3.893 -0.4367 -1.3465 -1.6867
53838SOL     OW66198   7.484   6.584   1.508 -0.3407 -0.1984  0.0653
53838SOL    HW166199   7.491   6.586   1.413 -0.9337  1.7779  0.0264
53838SOL    HW266200   7.419   6.651   1.529  0.3446 -0.0524  1.9048
53839SOL     OW66201   9.060  10.739  10.176 -0.0535 -0.0479 -0.0473
53839SOL    HW166202   9.142  10.764  10.132 -0.1345  0.4513  0.0777
53839SOL    HW266203   9.083  10.663  10.229  0.2780 -0.0353 -0.1719
53840SOL     OW66204   6.727   4.675   0.572 -0.1372  0.2028  0.2347
53840SOL    HW166205   6.741   4.768   0.587 -0.1531 -0.0189  1.7384
53840SOL    HW266206   6.765   4.632   0.648  0.2253 -1.0586 -0.6299
53841SOL     OW66207   4.824  10.772   0.056 -0.6092 -0.1750 -0.0974
53841SOL    HW166208   4.839  10.709   0.126  2.3469  0.6012  0.1366
53841SOL    HW266209   4.873  10.850   0.083 -0.8664  0.7851 -2.1876
53842SOL     OW66210   1.579  11.201   4.488  0.4644  0.0261  0.0217
53842SOL    HW166211   1.494  11.174   4.453  0.7331 -0.4016 -0.3190
53842SOL    HW266212   1.560  11.234   4.575 -0.3890  2.1265 -0.8885
53843SOL     OW66213   9.306   5.887   9.352  0.3129 -0.6597 -0.5470
53843SOL    HW166214   9.348   5.957   9.303 -0.2223 -0.1810 -0.3364
53843SOL    HW266215   9.376   5.826   9.373  0.6287 -0.6473 -1.5232
53844SOL     OW66216  11.855   6.698   6.084  0.3260  0.1948 -0.1062
53844SOL    HW166217  11.941   6.720   6.047  0.0638  1.0571 -0.2203
53844SOL    HW266218  11.801   6.677   6.008  0.6114 -1.0494  0.0089
53845SOL     OW66219   8.211   6.247   7.030 -0.3758 -0.2991  0.2110
53845SOL    HW166220   8.269   6.315   7.063 -0.3287  0.7509 -1.8453
53845SOL    HW266221   8.168   6.212   7.107  1.6854  0.0970  1.6267
53846SOL     OW66222   6.332   1.536   9.748 -0.7159  0.6050  0.3252
53846SOL    HW166223   6.261   1.592   9.716 -0.7088  0.1634 -0.4842
53846SOL    HW266224   6.399   1.541   9.679 -1.1641 -1.2515 -0.2842
53847SOL     OW66225   7.454   8.773   5.980 -0.3568  0.0726 -0.1694
53847SOL    HW166226   7.476   8.857   6.022  3.2628 -1.4624  1.5043
53847SOL    HW266227   7.512   8.770   5.904  0.6023 -1.3883  0.5672
53848SOL     OW66228   1.931  10.960   2.546 -0.0915 -0.2577  0.1364
53848SOL    HW166229   1.873  10.908   2.491 -0.1225 -0.9732  0.8344
53848SOL    HW266230   1.981  11.013   2.484 -0.3083 -0.8506 -0.5646
53849SOL     OW66231   5.081   1.829   4.490  0.2178 -0.0536  0.1971
53849SOL    HW166232   5.149   1.814   4.424  0.2406  0.1749  0.1707
53849SOL    HW266233   5.008   1.775   4.460  0.5596 -0.6975  0.4913
53850SOL     OW66234   2.700   3.520   2.327  0.4385  0.0841 -0.0410
53850SOL    HW166235   2.700   3.571   2.407 -1.8252 -1.1824  0.8568
53850SOL    HW266236   2.632   3.560   2.272 -1.5766 -1.9491  0.7932
53851SOL     OW66237   7.417  11.429   2.578 -0.3645 -0.1948  0.5983
53851SOL    HW166238   7.342  11.478   2.611  0.1241  0.8390  0.2243
53851SOL    HW266239   7.479  11.496   2.549  0.6811 -1.0234  0.8407
53852SOL     OW66240   8.284   4.247   3.275  0.0373 -0.0976 -0.3200
53852SOL    HW166241   8.353   4.209   3.331 -1.6476 -0.4908  1.6277
53852SOL    HW266242   8.280   4.189   3.199  2.2303  0.2920 -0.7923
53853SOL     OW66243   9.977  10.866   1.958  0.4058  0.3300  0.2963
53853SOL    HW166244   9.995  10.945   1.907 -1.2629  0.3924 -0.2488
53853SOL    HW266245  10.064  10.828   1.974  1.1351  1.5207 -0.6149
53854SOL     OW66246   9.228   8.080   2.342  0.3544 -0.3784 -0.1297
53854SOL    HW166247   9.154   8.044   2.391  0.3132 -1.2600 -0.8010
53854SOL    HW266248   9.289   8.006   2.332  0.8875  0.0836 -0.4078
53855SOL     OW66249   2.111   4.543   6.005  0.1405  0.2719 -0.0675
53855SOL    HW166250   2.042   4.555   6.069  0.1520 -0.9577  0.1880
53855SOL    HW266251   2.066   4.513   5.926  0.4246 -1.1426  0.2883
53856SOL     OW66252   7.594   0.034   7.704 -0.2304  0.3493 -0.0298
53856SOL    HW166253   7.666   0.025   7.766 -1.1970 -3.7829  0.7796
53856SOL    HW266254   7.521   0.066   7.757 -0.3962 -0.7968  0.4675
53857SOL     OW66255   4.432  10.451   7.169 -0.4232  0.0529 -0.4060
53857SOL    HW166256   4.457  10.543   7.158 -2.2351  0.3785 -2.5531
53857SOL    HW266257   4.371  10.452   7.243  3.0388 -0.2813  2.7557
53858SOL     OW66258   1.151   6.359   3.797 -0.3786  0.2924  0.4704
53858SOL    HW166259   1.164   6.435   3.855  2.2456  0.8243 -0.6386
53858SOL    HW266260   1.220   6.368   3.731 -1.2244 -2.0390 -0.8415
53859SOL     OW66261   0.807   0.917  11.530 -0.2649 -0.4506  0.0146
53859SOL    HW166262   0.771   0.836  11.493 -0.7718 -1.0569  1.7730
53859SOL    HW266263   0.882   0.937  11.474 -0.5644 -1.7345 -0.8894
53860SOL     OW66264   2.968   5.971   1.616 -0.1690 -0.1583  0.1866
53860SOL    HW166265   2.943   5.884   1.646  0.2795 -0.4418 -0.2580
53860SOL    HW266266   2.907   5.991   1.545  0.0735 -0.3296 -0.0676
53861SOL     OW66267   1.606   9.121   1.293 -0.2134  0.2006  0.0080
53861SOL    HW166268   1.533   9.065   1.267 -1.0069  1.0525  0.3391
53861SOL    HW266269   1.618   9.180   1.219 -1.1656  1.3264  0.7034
53862SOL     OW66270   9.451   1.471   1.711  0.2758  0.6051 -0.1054
53862SOL    HW166271   9.483   1.381   1.719  0.5198  0.6241 -0.7811
53862SOL    HW266272   9.527   1.521   1.683 -0.5142  0.4690 -2.7697
53863SOL     OW66273   8.275   4.686   4.109 -0.9055 -0.3964 -0.4153
53863SOL    HW166274   8.311   4.728   4.187 -3.5491 -0.1621  0.7881
53863SOL    HW266275   8.288   4.593   4.124  0.7421 -0.2528 -0.8545
53864SOL     OW66276  11.013   1.407   2.304  0.1702 -0.2780 -0.4236
53864SOL    HW166277  10.952   1.362   2.245 -0.4775  0.7336 -0.5568
53864SOL    HW266278  10.971   1.492   2.321  1.8623  0.7338 -1.0742
53865SOL     OW66279   8.819   8.051   0.541  0.2498 -0.5035 -0.4249
53865SOL    HW166280   8.906   8.060   0.581 -0.2693 -1.1304  0.9224
53865SOL    HW266281   8.815   7.960   0.512 -0.6324 -1.0570  1.2920
53866SOL     OW66282   9.358   0.623   5.489 -0.4182 -0.0744 -0.1570
53866SOL    HW166283   9.308   0.667   5.558  0.8421  1.9384 -0.4300
53866SOL    HW266284   9.296   0.614   5.416 -0.3359  2.9331 -0.7201
53867SOL     OW66285   3.278  11.877  10.139 -0.0949 -0.0325  0.2420
53867SOL    HW166286   3.194  11.904  10.176  0.0454 -1.1038  1.4394
53867SOL    HW266287   3.327  11.958  10.127 -1.1320  0.5675 -0.0569
53868SOL     OW66288   1.517   9.605  11.489  0.1107  0.9217  0.3757
53868SOL    HW166289   1.482   9.692  11.471  2.4370  1.8737  0.1038
53868SOL    HW266290   1.538   9.607  11.583  2.1360  1.4704 -0.0492
53869SOL     OW66291   3.270   8.545   2.301 -0.3065 -0.4044 -0.0476
53869SOL    HW166292   3.210   8.470   2.298  0.0581 -0.6694 -1.9385
53869SOL    HW266293   3.252   8.592   2.219  1.2541  0.1371 -0.0939
53870SOL     OW66294  10.521   4.002   1.498  0.2083  0.0079 -0.8271
53870SOL    HW166295  10.556   4.076   1.547 -0.2135  1.3849 -2.5106
53870SOL    HW266296  10.444   3.974   1.548  1.1084 -0.1739  0.5127
53871SOL     OW66297   3.047   5.736   9.458 -0.6984 -0.3199 -0.5292
53871SOL    HW166298   3.113   5.729   9.526  1.6090  0.1588 -2.5635
53871SOL    HW266299   3.009   5.648   9.451 -0.8538 -0.4133  1.1780
53872SOL     OW66300   1.018   0.146   3.723  0.4901  0.0626  0.3411
53872SOL    HW166301   1.100   0.096   3.722 -0.2669 -1.2332 -1.5572
53872SOL    HW266302   0.959   0.094   3.778  0.5921  0.4519  0.8315
53873SOL     OW66303   7.380   9.098   4.463  0.7355 -0.0110 -0.1924
53873SOL    HW166304   7.449   9.148   4.509 -0.2447  1.1176  0.1025
53873SOL    HW266305   7.305   9.103   4.522  1.0088 -3.2341  0.6165
53874SOL     OW66306   3.692   9.442   6.354 -0.2153  0.2080  0.1300
53874SOL    HW166307   3.597   9.442   6.366 -0.2700  2.8359  0.2212
53874SOL    HW266308   3.725   9.493   6.427  1.0822  1.0338 -0.9982
53875SOL     OW66309   8.683  11.000   8.388 -0.3716 -0.1078  0.4325
53875SOL    HW166310   8.763  11.040   8.423 -0.5565  1.1174 -0.4821
53875SOL    HW266311   8.618  11.010   8.457  0.0078 -0.2501  0.8122
53876SOL     OW66312   4.557   2.004   2.493  0.7130 -0.1453 -0.6894
53876SOL    HW166313   4.507   1.967   2.566  1.7426 -0.4382 -0.1172
53876SOL    HW266314   4.491   2.020   2.425 -0.4837  1.3687  0.7580
53877SOL     OW66315  10.170   3.258   9.752 -0.7695 -0.0475  0.3361
53877SOL    HW166316  10.231   3.233   9.682 -2.3830 -0.6609 -0.9149
53877SOL    HW266317  10.140   3.345   9.729 -2.0083 -0.6129 -0.2893
53878SOL     OW66318   0.150  11.353   4.051  0.2271 -0.0098  0.1542
53878SOL    HW166319   0.071  11.365   4.103  1.0719 -0.3203  1.5732
53878SOL    HW266320   0.214  11.411   4.091  0.5519  0.7497 -1.3945
53879SOL     OW66321   6.717  10.367   2.337  0.2400  0.2453 -0.0268
53879SOL    HW166322   6.644  10.359   2.398  0.1407 -0.3978 -0.2261
53879SOL    HW266323   6.681  10.345   2.252  0.7447 -0.4700 -0.0690
53880SOL     OW66324   4.495   3.406   3.766  0.1872 -0.0956  0.1836
53880SOL    HW166325   4.538   3.414   3.851  1.7238 -0.2245 -0.5327
53880SOL    HW266326   4.455   3.492   3.751 -0.6184 -0.2661  1.2868
53881SOL     OW66327   2.551   1.176  11.116  0.6482  0.6056 -0.3163
53881SOL    HW166328   2.494   1.241  11.158  2.4527  0.0557  3.4533
53881SOL    HW266329   2.634   1.223  11.102  0.8734  0.0437 -0.9099
53882SOL     OW66330   6.855  10.494   8.426 -0.4590  0.1632 -0.4236
53882SOL    HW166331   6.895  10.411   8.451 -0.7765 -0.2576 -1.2439
53882SOL    HW266332   6.765  10.470   8.403 -0.8215  0.8870  0.1995
53883SOL     OW66333   4.883   5.466  11.930 -0.1854 -0.1921  0.3494
53883SOL    HW166334   4.792   5.452  11.903 -0.1579 -0.1618  0.2378
53883SOL    HW266335   4.880   5.476  12.025 -0.2214 -0.8408  0.4195
53884SOL     OW66336   2.144   6.152   8.980  0.0471  0.2920 -0.2465
53884SOL    HW166337   2.092   6.225   9.013  0.8673  1.1155 -0.7304
53884SOL    HW266338   2.203   6.130   9.052 -0.4296 -0.1370  0.0232
53885SOL     OW66339   2.410   8.418   5.691 -0.1468  0.3527  0.7365
53885SOL    HW166340   2.479   8.376   5.742  1.0209  0.0312 -1.0156
53885SOL    HW266341   2.399   8.505   5.731  1.6112  0.5864  0.7655
53886SOL     OW66342   6.496   8.913   5.071 -0.5043  0.1335 -0.4909
53886SOL    HW166343   6.408   8.951   5.066  0.0527  1.9052  1.4825
53886SOL    HW266344   6.513   8.904   5.165  1.3810 -0.2689 -0.8274
53887SOL     OW66345   9.330   6.484   4.508 -0.2881  0.0081  0.4520
53887SOL    HW166346   9.407   6.511   4.559 -0.1361 -0.1622  0.3120
53887SOL    HW266347   9.321   6.390   4.525 -1.5556  0.3496  1.9338
53888SOL     OW66348   8.463  10.648   3.514  0.2857  0.5375  0.1018
53888SOL    HW166349   8.527  10.718   3.515  1.4916 -0.5222  0.2088
53888SOL    HW266350   8.427  10.646   3.603  2.0769 -0.5570  0.8529
53889SOL     OW66351   0.667   6.925   7.553  0.3986  0.1294 -0.5126
53889SOL    HW166352   0.611   6.962   7.621  1.3894 -0.0754  0.4387
53889SOL    HW266353   0.740   6.985   7.547  0.4049  0.0538 -1.2929
53890SOL     OW66354   5.326   2.134   2.625  0.0221 -0.2124 -0.5295
53890SOL    HW166355   5.317   2.044   2.655  1.8234  0.2444  1.6097
53890SOL    HW266356   5.347   2.184   2.704 -0.7864  2.0929 -1.6735
53891SOL     OW66357   5.265   9.523  11.961  0.5260  0.5463  0.3056
53891SOL    HW166358   5.242   9.440  12.003  0.4221  1.3042  1.8118
53891SOL    HW266359   5.197   9.584  11.990  0.7171  1.2126 -0.6159
53892SOL     OW66360   7.804   3.591   9.060  0.4575  0.3379  0.3377
53892SOL    HW166361   7.797   3.553   9.148 -0.6341  1.4148  0.7575
53892SOL    HW266362   7.753   3.531   9.005 -1.0234  0.9703  0.9421
53893SOL     OW66363  11.030   2.057  11.767  0.0601 -0.4095 -0.3494
53893SOL    HW166364  11.091   2.046  11.840  1.3885 -0.7808 -1.4624
53893SOL    HW266365  11.059   1.993  11.702 -2.1582 -1.2907 -0.5399
53894SOL     OW66366   6.229   4.098   2.748  0.1377  0.4394 -0.5201
53894SOL    HW166367   6.204   4.086   2.840 -0.5067  2.3064 -0.4158
53894SOL    HW266368   6.262   4.187   2.743 -0.4380  0.5985 -2.2192
53895SOL     OW66369   6.617  10.914   5.740  0.4529  0.0201  0.0490
53895SOL    HW166370   6.697  10.868   5.763  0.5431 -0.7648 -1.6500
53895SOL    HW266371   6.640  11.007   5.747  1.3535 -0.1977  0.1124
53896SOL     OW66372   2.867  11.572   6.436 -0.7680 -0.5084 -0.3709
53896SOL    HW166373   2.935  11.512   6.404 -0.3728 -0.1508 -0.2137
53896SOL    HW266374   2.865  11.643   6.372  0.3705  0.4630  0.6093
53897SOL     OW66375   8.334  10.903   8.275 -0.6706 -0.1991  0.4199
53897SOL    HW166376   8.394  10.829   8.276 -0.2606  0.1134 -0.1898
53897SOL    HW266377   8.391  10.979   8.289 -1.0896  0.0015  1.0625
53898SOL     OW66378  10.465   9.022   9.536  0.1226 -0.1285  0.0614
53898SOL    HW166379  10.481   8.934   9.500  1.1926  0.1036 -0.0580
53898SOL    HW266380  10.379   9.046   9.502 -0.8035 -1.6693  1.1926
53899SOL     OW66381   5.505  10.413   5.771 -0.4204 -0.5763 -0.2385
53899SOL    HW166382   5.574  10.458   5.721 -2.1269  1.7076 -0.7443
53899SOL    HW266383   5.436  10.397   5.706 -1.3490 -0.5402  0.7252
53900SOL     OW66384   2.968   1.535   8.999 -0.2779 -0.6857 -0.3422
53900SOL    HW166385   3.051   1.560   8.960  0.0955  0.3950  1.0569
53900SOL    HW266386   2.905   1.534   8.927  0.5144  0.5646 -1.0672
53901SOL     OW66387   3.129   1.559   8.768 -0.3307 -0.7104 -0.5078
53901SOL    HW166388   3.213   1.529   8.732  0.0345 -2.8549  1.8653
53901SOL    HW266389   3.126   1.652   8.748  2.6538 -0.5536 -0.6020
53902SOL     OW66390   1.229   5.394   5.854 -0.2884  0.2078  0.7810
53902SOL    HW166391   1.279   5.312   5.856  0.0956  0.4279  3.0433
53902SOL    HW266392   1.177   5.393   5.934 -2.1284  1.1138 -0.3219
53903SOL     OW66393   9.076   6.368   5.927 -0.5059  0.1823  0.1663
53903SOL    HW166394   9.165   6.379   5.895 -0.4769  1.2175  0.5733
53903SOL    HW266395   9.080   6.293   5.986 -0.2865 -0.9067 -1.1765
53904SOL     OW66396   4.959   5.121  10.307 -0.4222 -0.2668  0.2662
53904SOL    HW166397   4.897   5.194  10.306 -0.2907 -0.1600 -0.0759
53904SOL    HW266398   4.911   5.049  10.265  0.6263  0.5916 -2.6053
53905SOL     OW66399   9.381   6.510   6.797 -0.1818  0.0348 -0.4375
53905SOL    HW166400   9.439   6.466   6.735 -1.6251 -1.8207 -0.5562
53905SOL    HW266401   9.298   6.519   6.750 -0.5826  0.9009  0.3836
53906SOL     OW66402   8.030   9.152  11.613 -0.0615 -0.2576  0.3459
53906SOL    HW166403   8.014   9.075  11.669 -2.3694 -0.5458 -0.6284
53906SOL    HW266404   8.124   9.148  11.595  0.6633 -0.5404  3.5904
53907SOL     OW66405   1.748   3.663   9.139  0.3869  0.4684 -0.2406
53907SOL    HW166406   1.827   3.617   9.168  1.0100  2.1778  0.9154
53907SOL    HW266407   1.780   3.748   9.107 -0.9157  0.9061 -0.4343
53908SOL     OW66408   0.299   2.373   4.307 -0.3517  0.0245 -0.0013
53908SOL    HW166409   0.362   2.324   4.254  0.4196  1.8786 -0.9028
53908SOL    HW266410   0.324   2.356   4.397  0.4718 -0.4831 -0.3145
53909SOL     OW66411   3.774  10.064   7.162  0.8713  0.1660  0.1757
53909SOL    HW166412   3.816  10.147   7.140  0.2207 -0.0656 -2.1907
53909SOL    HW266413   3.842  10.016   7.210  2.2978  0.9467 -0.9670
53910SOL     OW66414   0.071   1.401   1.014  0.3774  0.7659 -0.0142
53910SOL    HW166415   0.023   1.480   0.987  1.0723  1.4320  0.6299
53910SOL    HW266416   0.004   1.334   1.023 -0.0569  0.8520 -2.0531
53911SOL     OW66417   4.664   5.102   4.234  0.5545  0.2094  0.0977
53911SOL    HW166418   4.630   5.183   4.273  1.6542  1.5801 -1.5938
53911SOL    HW266419   4.758   5.118   4.225  0.5801 -0.6340 -1.6102
53912SOL     OW66420   1.075   6.190   0.158 -0.1192 -0.2416  0.1053
53912SOL    HW166421   0.989   6.172   0.121 -0.1061 -0.4746  0.1872
53912SOL    HW266422   1.128   6.115   0.134  0.1379  0.0258 -0.1752
53913SOL     OW66423   2.646   4.136   7.115  0.1664 -0.4076  0.0257
53913SOL    HW166424   2.610   4.056   7.153  1.7300 -1.2367 -0.1884
53913SOL    HW266425   2.631   4.126   7.021  0.9224 -0.7442 -0.0612
53914SOL     OW66426   2.053   6.558   6.772 -0.1780  0.7083 -0.5781
53914SOL    HW166427   1.970   6.520   6.799  0.9178  0.2400  2.5517
53914SOL    HW266428   2.115   6.485   6.775  0.9238  1.6440  0.2390
53915SOL     OW66429  10.999   0.401   8.660  0.5236 -0.0303  0.0413
53915SOL    HW166430  11.090   0.378   8.676  1.3206  2.4039 -0.5735
53915SOL    HW266431  10.979   0.465   8.728  0.0302  1.1821 -1.2082
53916SOL     OW66432   1.893  10.864   3.442 -0.4888 -0.2521  0.2462
53916SOL    HW166433   1.828  10.829   3.502  0.7702 -0.9501  1.2678
53916SOL    HW266434   1.844  10.919   3.381 -2.1155 -1.4435  0.4472
53917SOL     OW66435   6.546   8.887   7.266 -0.3300 -0.1554  0.5123
53917SOL    HW166436   6.634   8.924   7.259 -1.5676  2.7671 -2.7278
53917SOL    HW266437   6.498   8.951   7.319 -0.6086 -1.6941  2.1983
53918SOL     OW66438   3.423   4.552   9.297 -0.3025 -0.1760  0.0691
53918SOL    HW166439   3.390   4.512   9.217  1.4306  1.4026 -1.5377
53918SOL    HW266440   3.516   4.529   9.299 -0.1897  0.2854  1.3420
53919SOL     OW66441   4.004   6.831   2.894  0.2174  0.0567  0.5571
53919SOL    HW166442   4.097   6.813   2.881 -0.4511 -2.0963 -2.2684
53919SOL    HW266443   3.964   6.744   2.905 -1.7090  0.7457 -0.5466
53920SOL     OW66444   3.800   4.430   4.807 -0.1519 -0.3325  0.1235
53920SOL    HW166445   3.872   4.478   4.765  0.2607 -0.6318  0.4682
53920SOL    HW266446   3.804   4.458   4.899  0.0620 -0.9744  0.3172
53921SOL     OW66447   5.489   0.232  11.739  0.8422  0.1430  0.4985
53921SOL    HW166448   5.507   0.232  11.833 -0.7761  1.0548  0.8424
53921SOL    HW266449   5.545   0.301  11.704 -0.2950  1.4965  1.2145
53922SOL     OW66450   6.144   2.854   7.585 -0.5112  0.5803 -0.0577
53922SOL    HW166451   6.173   2.774   7.629  0.6560  2.1834  2.3111
53922SOL    HW266452   6.224   2.896   7.555 -1.1432  0.7172 -1.6628
53923SOL     OW66453   9.287   1.731   7.952  0.7781 -0.0617  0.2788
53923SOL    HW166454   9.206   1.747   8.000  1.9577  1.2103  1.9630
53923SOL    HW266455   9.344   1.686   8.014  2.1487  1.0891 -0.0772
53924SOL     OW66456   4.525   1.949   5.521 -0.0360  0.4517  0.6358
53924SOL    HW166457   4.473   1.976   5.445  2.4510  0.9559 -1.0108
53924SOL    HW266458   4.525   1.853   5.518  0.5711  0.4725 -0.4264
53925SOL     OW66459   2.839  10.725   3.861 -0.2164  0.1121 -0.0633
53925SOL    HW166460   2.871  10.635   3.870  0.9875  0.5022 -0.2285
53925SOL    HW266461   2.777  10.736   3.933 -1.7264 -1.3989 -1.0707
53926SOL     OW66462   3.407   3.879   0.441 -0.3532 -0.6094  0.5407
53926SOL    HW166463   3.379   3.924   0.361  0.0614 -0.2502  0.5912
53926SOL    HW266464   3.437   3.949   0.498  4.1311 -1.0507 -0.8592
53927SOL     OW66465  10.418   9.125   1.513 -0.0023 -0.0179  0.2942
53927SOL    HW166466  10.375   9.192   1.460 -0.3993  0.2747  0.9716
53927SOL    HW266467  10.378   9.134   1.600  1.4423  0.2606  0.9506
53928SOL     OW66468   6.858   2.268   3.314  0.3637  0.4878 -0.5693
53928SOL    HW166469   6.851   2.258   3.219 -0.6706 -2.1896 -0.3202
53928SOL    HW266470   6.771   2.296   3.342  0.5412  0.8564 -0.3888
53929SOL     OW66471  11.704   9.633   9.534 -0.3749 -0.5400  0.4937
53929SOL    HW166472  11.776   9.600   9.587 -2.2566 -2.8732  1.8064
53929SOL    HW266473  11.649   9.682   9.595 -0.7222 -0.1481 -0.1163
53930SOL     OW66474   0.131   1.786   8.489  0.0680 -0.5662 -0.2506
53930SOL    HW166475   0.155   1.752   8.403  2.0003 -2.5060  0.9274
53930SOL    HW266476   0.164   1.720   8.551 -0.2631  1.2543  2.0331
53931SOL     OW66477  10.669   3.008   5.270 -0.3012  0.1261  0.2846
53931SOL    HW166478  10.765   3.004   5.270 -0.2607  0.8509  1.1655
53931SOL    HW266479  10.648   3.096   5.300 -1.2473 -0.0800  0.2590
53932SOL     OW66480   8.999   2.674   1.951 -0.2005  0.3501  1.0970
53932SOL    HW166481   9.041   2.758   1.936  2.2217 -0.7429  1.3610
53932SOL    HW266482   8.980   2.639   1.864  1.5369 -0.1043  0.8739
53933SOL     OW66483   7.381   8.789  11.351  0.4419  0.1706 -0.4820
53933SOL    HW166484   7.397   8.764  11.442  2.7115 -3.2975 -1.6734
53933SOL    HW266485   7.295   8.751  11.330 -0.3857  1.5217  0.2900
53934SOL     OW66486   1.985   4.272   4.431 -0.6958  0.8713 -0.5070
53934SOL    HW166487   1.947   4.184   4.434  0.4699  0.3532 -0.5182
53934SOL    HW266488   1.926   4.325   4.485  0.3687 -0.6436  2.3650
53935SOL     OW66489   9.550   4.333   3.309 -0.0807  0.2452  0.0122
53935SOL    HW166490   9.488   4.332   3.382  0.6249  0.1371  0.6241
53935SOL    HW266491   9.636   4.331   3.351  0.3461  1.0014 -0.8095
53936SOL     OW66492   2.693   6.133   5.123  0.1560  0.0812  0.3855
53936SOL    HW166493   2.752   6.173   5.060  1.4951 -0.8346  1.0139
53936SOL    HW266494   2.749   6.107   5.196 -1.0226 -0.7943  1.0248
53937SOL     OW66495   9.807   4.013  11.043  0.4933  0.2481  0.1337
53937SOL    HW166496   9.712   4.016  11.060  0.2574  0.6163 -1.1734
53937SOL    HW266497   9.845   4.063  11.115 -0.4693  1.7439 -0.3511
53938SOL     OW66498   7.301   8.530   5.979  0.0924  0.1081 -0.1738
53938SOL    HW166499   7.361   8.602   5.961 -0.1515  0.7948  1.5908
53938SOL    HW266500   7.329   8.496   6.064 -0.6530 -0.9970 -0.3443
53939SOL     OW66501   5.198   0.893   0.210  0.0180 -0.3941 -0.3315
53939SOL    HW166502   5.141   0.915   0.136  1.9751  0.0869 -1.7938
53939SOL    HW266503   5.278   0.861   0.169 -0.3869 -4.6169  1.6451
53940SOL     OW66504   6.923  11.367   0.155 -0.1945 -0.1199  0.1329
53940SOL    HW166505   6.905  11.276   0.133  1.0410 -0.1997 -0.6177
53940SOL    HW266506   7.010  11.367   0.194 -0.5926  0.6164  1.0732
53941SOL     OW66507   0.340   9.546   0.449  0.5322  0.3525  0.0548
53941SOL    HW166508   0.282   9.597   0.505  1.8155  0.2719  1.5525
53941SOL    HW266509   0.353   9.464   0.497 -1.1308 -1.2530 -2.0858
53942SOL     OW66510   9.128   8.124  11.431  0.4273  0.0561 -0.2559
53942SOL    HW166511   9.096   8.129  11.522 -0.8740 -0.1453 -0.6834
53942SOL    HW266512   9.049   8.114  11.379  1.2279 -0.6773 -1.3547
53943SOL     OW66513   3.591  10.270   8.108 -0.3806  0.2065  0.0152
53943SOL    HW166514   3.674  10.319   8.113 -0.0126 -0.3212 -0.8004
53943SOL    HW266515   3.568  10.253   8.200 -0.7726  2.3177  0.3627
53944SOL     OW66516   2.680   5.948   4.002 -0.2988  0.5846 -0.7091
53944SOL    HW166517   2.656   5.938   4.094 -0.7258 -0.3566 -0.9116
53944SOL    HW266518   2.599   5.973   3.958 -0.6834 -1.2848 -1.1802
53945SOL     OW66519   6.436  11.071   7.814 -0.0578 -0.3767 -0.3736
53945SOL    HW166520   6.470  10.981   7.813 -0.9777 -0.7493  0.6504
53945SOL    HW266521   6.383  11.077   7.734 -1.1081 -1.2014  0.2437
53946SOL     OW66522  11.123   3.453   5.351 -0.4120 -0.0967  0.1950
53946SOL    HW166523  11.087   3.537   5.378  0.3478 -0.0704  1.1657
53946SOL    HW266524  11.093   3.391   5.418  0.6110 -0.2305  0.5463
53947SOL     OW66525   7.178   0.820   1.637 -0.2327  0.2157 -0.1345
53947SOL    HW166526   7.133   0.884   1.583 -0.0215  0.5864  0.1215
53947SOL    HW266527   7.108   0.775   1.684 -0.4446 -0.3771 -0.9929
53948SOL     OW66528   9.487  10.324  10.568 -0.0057 -0.1269 -0.1629
53948SOL    HW166529   9.448  10.340  10.482 -1.8941 -1.6436  0.3401
53948SOL    HW266530   9.489  10.410  10.610  0.6417  0.5729 -1.5953
53949SOL     OW66531   5.385   3.069   4.549 -0.2600  0.3821 -0.0383
53949SOL    HW166532   5.336   2.995   4.511  1.8075 -0.0577 -2.0696
53949SOL    HW266533   5.456   3.028   4.598 -1.8116  1.0131  2.9611
53950SOL     OW66534   1.494   4.319   1.482  0.3306 -0.6354  0.2574
53950SOL    HW166535   1.474   4.388   1.419  0.9932  0.4372  1.1718
53950SOL    HW266536   1.521   4.366   1.561 -1.1117 -1.9094  1.5920
53951SOL     OW66537  10.062  11.900  10.753  0.2585  0.0547  0.0420
53951SOL    HW166538   9.970  11.872  10.756 -0.7095  2.7330 -1.0015
53951SOL    HW266539  10.076  11.925  10.662  1.8258  0.3798  0.3475
53952SOL     OW66540  11.168   9.783  11.244 -0.0771  0.0335 -0.5105
53952SOL    HW166541  11.135   9.823  11.164 -0.6961  2.1311  0.7353
53952SOL    HW266542  11.143   9.843  11.314  0.6429 -1.6135  1.2605
53953SOL     OW66543   1.622   9.500   8.679 -0.2337 -0.4468  0.3100
53953SOL    HW166544   1.716   9.504   8.696 -0.3002 -1.1740  0.9177
53953SOL    HW266545   1.610   9.549   8.598  1.0475 -2.5967 -1.2994
53954SOL     OW66546   3.398   3.319   0.941 -0.3791 -0.7642 -0.4407
53954SOL    HW166547   3.385   3.352   0.852 -0.7011 -0.8274 -0.4165
53954SOL    HW266548   3.347   3.238   0.945 -0.0284 -0.9808 -0.3285
53955SOL     OW66549   9.941   5.064   4.679  0.1863  0.2031  0.0516
53955SOL    HW166550  10.030   5.034   4.692  0.4299 -0.3983 -2.5292
53955SOL    HW266551   9.890   5.017   4.745  1.5931 -0.2715  0.8427
53956SOL     OW66552   7.542   7.726   1.549 -0.0566  0.1013  0.1324
53956SOL    HW166553   7.591   7.702   1.471  0.4952 -1.2401  0.8455
53956SOL    HW266554   7.477   7.790   1.519  0.9362  0.5282 -1.1687
53957SOL     OW66555   4.222   6.374   6.945 -0.1259  0.7971  0.1085
53957SOL    HW166556   4.277   6.383   7.023 -1.3975 -1.3375  1.3471
53957SOL    HW266557   4.151   6.437   6.958 -0.9850 -0.3794  1.3219
53958SOL     OW66558  10.848  11.571  11.365 -0.3494 -0.2894  0.0157
53958SOL    HW166559  10.917  11.509  11.344  0.1910  0.5228 -0.6661
53958SOL    HW266560  10.769  11.534  11.325 -0.3867 -1.3472  1.0075
53959SOL     OW66561   5.369   6.997  10.135 -0.3746 -0.1715  0.4067
53959SOL    HW166562   5.345   6.931  10.201  1.2151  0.2269  1.4643
53959SOL    HW266563   5.422   6.948  10.071  0.2122 -0.0822  0.8126
53960SOL     OW66564   4.743   0.952   4.560  0.1020 -0.3453 -0.1849
53960SOL    HW166565   4.751   1.047   4.549  1.1921 -0.3528  0.3619
53960SOL    HW266566   4.817   0.916   4.510 -1.3447 -1.0463 -1.9206
53961SOL     OW66567   1.022   8.735   9.209  0.3428  0.0734 -0.2947
53961SOL    HW166568   1.073   8.655   9.197 -0.4082 -0.3940 -0.3971
53961SOL    HW266569   0.931   8.707   9.204  0.0650  0.8391  0.2970
53962SOL     OW66570   5.599  11.539   8.438 -0.5541  0.5965 -0.4574
53962SOL    HW166571   5.684  11.580   8.423 -0.7336  1.3264  0.3810
53962SOL    HW266572   5.619  11.446   8.449  0.5373  1.0372  2.2889
53963SOL     OW66573   4.008  10.583   5.965 -0.1790  0.5587 -0.3243
53963SOL    HW166574   4.034  10.647   5.899 -0.3163  2.2755  1.2158
53963SOL    HW266575   3.913  10.592   5.971 -0.1995  0.1967 -0.0892
53964SOL     OW66576   9.160   4.288   1.466  0.3567  0.7419 -0.8408
53964SOL    HW166577   9.138   4.284   1.373  0.9086  0.5511 -0.9681
53964SOL    HW266578   9.148   4.199   1.498  0.0192  0.8386 -0.6884
53965SOL     OW66579   8.423   3.502   9.044  0.0673 -0.4107  0.6557
53965SOL    HW166580   8.488   3.572   9.051 -0.5136  0.0949  1.0373
53965SOL    HW266581   8.344   3.545   9.012  0.5642 -1.4206 -2.2462
53966SOL     OW66582   4.133   2.671   5.158 -0.5274  0.2363 -0.5582
53966SOL    HW166583   4.065   2.698   5.095 -2.5266 -2.4072  0.2790
53966SOL    HW266584   4.085   2.653   5.239  1.3166 -0.8022  0.3668
53967SOL     OW66585   0.750   2.478   6.450  0.4977 -0.2744  0.5023
53967SOL    HW166586   0.714   2.538   6.516 -0.0521 -0.4600  0.3707
53967SOL    HW266587   0.843   2.501   6.446  0.6611 -0.6247  1.7476
53968SOL     OW66588   4.401   4.450   4.448 -0.0371  0.0156  0.4920
53968SOL    HW166589   4.443   4.502   4.516  3.3931 -0.3170 -1.1163
53968SOL    HW266590   4.383   4.513   4.378  1.0911 -0.3795 -0.1795
53969SOL     OW66591   8.757   0.745   1.505 -0.7099 -0.0074 -0.4139
53969SOL    HW166592   8.824   0.761   1.571  0.0041  1.1058 -1.3563
53969SOL    HW266593   8.714   0.664   1.532  2.1570 -1.7604 -0.6940
53970SOL     OW66594   3.528   6.458   3.849  0.4198 -0.3589 -0.6079
53970SOL    HW166595   3.581   6.385   3.814  2.5254  0.1603  1.2823
53970SOL    HW266596   3.572   6.537   3.818 -1.6662  0.2064 -2.3706
53971SOL     OW66597   4.862   1.771   2.052 -0.0195 -0.0923  0.3923
53971SOL    HW166598   4.771   1.798   2.040 -0.0640  0.1290  1.1669
53971SOL    HW266599   4.913   1.850   2.033  0.3109 -1.0423 -3.6064
53972SOL     OW66600   1.304  10.012   4.812 -0.2230  0.0075 -0.3892
53972SOL    HW166601   1.213  10.034   4.832  0.0380  0.2919  0.5607
53972SOL    HW266602   1.313   9.921   4.841  0.4984  0.8024  2.1873
53973SOL     OW66603   2.473   1.327   6.960  0.0320  0.1296 -0.4392
53973SOL    HW166604   2.500   1.378   6.884  0.1442  0.3919 -0.2226
53973SOL    HW266605   2.387   1.363   6.984 -1.3694 -1.8013 -2.1600
53974SOL     OW66606  11.321   6.071  11.857 -0.3058 -0.2478 -0.6946
53974SOL    HW166607  11.336   5.994  11.912  2.3369  0.9277  0.4149
53974SOL    HW266608  11.278   6.134  11.914  0.9608  0.3928 -0.4049
53975SOL     OW66609   0.292   7.424   8.521  0.1480 -0.1448 -0.4600
53975SOL    HW166610   0.254   7.500   8.477  0.4400  0.8169  0.8775
53975SOL    HW266611   0.353   7.387   8.458  1.0069  1.5466 -0.6788
53976SOL     OW66612   8.539   2.809  11.836 -0.2938  0.7509 -0.1218
53976SOL    HW166613   8.527   2.837  11.927 -0.1857  0.0558  0.1158
53976SOL    HW266614   8.498   2.722  11.833  0.3297  0.4672 -0.5559
53977SOL     OW66615   0.066  10.605  11.714  0.0358 -0.5156 -0.1017
53977SOL    HW166616   0.096  10.688  11.677 -0.8045  0.6042  1.5434
53977SOL    HW266617   0.101  10.605  11.804 -0.4242 -1.6901  0.0973
53978SOL     OW66618   0.195   4.304   1.171 -0.4688  0.3616  0.4017
53978SOL    HW166619   0.227   4.370   1.109  2.2265 -0.9557  0.2249
53978SOL    HW266620   0.160   4.235   1.116  0.7573 -0.2424  0.3389
53979SOL     OW66621   3.498   6.418   8.738  0.1535 -0.5403  0.4991
53979SOL    HW166622   3.526   6.353   8.673 -0.4281 -1.0656  0.7608
53979SOL    HW266623   3.506   6.372   8.822 -1.9015 -0.8902  0.5565
53980SOL     OW66624   8.831   4.637   6.379 -0.6161 -0.0208  0.4818
53980SOL    HW166625   8.758   4.674   6.329  0.5137  0.6943 -0.7096
53980SOL    HW266626   8.858   4.560   6.329  0.3142  0.5168  0.1206
53981SOL     OW66627   2.882   2.895   9.283 -0.0755  0.5021  0.2018
53981SOL    HW166628   2.832   2.816   9.260 -0.4623  0.9113 -0.3692
53981SOL    HW266629   2.820   2.949   9.331 -0.2806  1.1299 -0.7420
53982SOL     OW66630   0.327   5.314   4.003 -0.0633  0.0990  0.1735
53982SOL    HW166631   0.339   5.330   4.097  0.1274  1.6867 -0.0836
53982SOL    HW266632   0.276   5.390   3.973  0.7306  0.1239 -1.1820
53983SOL     OW66633   9.963   2.818   7.027  0.6870  0.2406 -0.5803
53983SOL    HW166634   9.958   2.786   6.937 -0.5368 -0.7277 -0.2076
53983SOL    HW266635   9.998   2.744   7.077  0.4311  0.4285 -0.1125
53984SOL     OW66636  11.387   7.322   6.150  0.0331 -0.0461 -0.0255
53984SOL    HW166637  11.374   7.401   6.099 -1.4808  0.0249  0.4130
53984SOL    HW266638  11.373   7.349   6.241 -0.4278 -0.7875  0.1346
53985SOL     OW66639   1.008   8.529   3.083 -0.1001  0.0492  0.2623
53985SOL    HW166640   1.040   8.450   3.126  0.8053 -0.4351 -1.2109
53985SOL    HW266641   1.072   8.596   3.107  0.2674 -0.1616 -0.1121
53986SOL     OW66642   4.687   0.696   1.090 -0.5607 -0.3135 -0.0983
53986SOL    HW166643   4.686   0.762   1.160 -0.2231  0.1906 -0.5555
53986SOL    HW266644   4.778   0.694   1.061 -0.9606  0.5938 -1.5372
53987SOL     OW66645   3.081   3.996   0.738  0.4366  0.1603 -0.6038
53987SOL    HW166646   3.011   4.061   0.743  0.6805  0.4410 -0.7950
53987SOL    HW266647   3.049   3.931   0.676 -0.2538 -0.4578  0.3676
53988SOL     OW66648   4.250  11.799   1.811 -0.2628  0.3713  0.2536
53988SOL    HW166649   4.229  11.725   1.754 -0.8262  0.8755 -0.2067
53988SOL    HW266650   4.292  11.759   1.888 -1.6591 -0.5463  0.5817
53989SOL     OW66651   7.532   7.185   4.093 -0.6046 -0.3151 -0.1492
53989SOL    HW166652   7.554   7.129   4.018 -1.8465 -0.3310 -0.5289
53989SOL    HW266653   7.566   7.271   4.069 -1.3444 -0.2308 -0.9167
53990SOL     OW66654   4.548   3.001   3.424 -0.0547 -0.4091  0.0284
53990SOL    HW166655   4.465   3.029   3.461 -0.4399  0.3742 -1.3824
53990SOL    HW266656   4.524   2.939   3.355  0.6510 -1.8243  0.9992
53991SOL     OW66657   9.027   5.385   8.334  0.1000  0.0820 -0.0289
53991SOL    HW166658   9.041   5.303   8.286  0.8243 -0.2357  0.6803
53991SOL    HW266659   9.110   5.399   8.380  0.4194  1.8639 -1.0654
53992SOL     OW66660   1.657   1.725   0.144 -0.5973 -0.6370 -0.0031
53992SOL    HW166661   1.620   1.771   0.069 -0.8894 -2.2741 -0.8984
53992SOL    HW266662   1.748   1.711   0.121 -1.0221 -2.4218 -0.7414
53993SOL     OW66663   6.741   7.784   3.366 -0.1871  0.2300  0.1205
53993SOL    HW166664   6.834   7.782   3.387 -0.1840  0.1726  0.1001
53993SOL    HW266665   6.705   7.853   3.422 -0.3407 -0.5063  0.9405
53994SOL     OW66666   6.226   1.071   2.374  0.3928 -0.2302  0.8762
53994SOL    HW166667   6.281   1.009   2.327  0.4969  1.1905 -0.9965
53994SOL    HW266668   6.137   1.045   2.352  0.4214 -0.1077  0.6104
53995SOL     OW66669   4.744   1.312   7.143  0.2512  0.1394 -0.2233
53995SOL    HW166670   4.693   1.310   7.224  0.2529 -0.0384 -0.2247
53995SOL    HW266671   4.752   1.404   7.121 -1.6358  0.1263 -1.2071
53996SOL     OW66672   6.460   2.478   1.227 -0.2322 -0.1625  0.7800
53996SOL    HW166673   6.489   2.422   1.156  0.2068 -0.3750  1.1192
53996SOL    HW266674   6.451   2.565   1.188 -0.1086 -0.3024  0.4421
53997SOL     OW66675   8.104   3.878   4.471 -0.0296  0.0962  0.1481
53997SOL    HW166676   8.146   3.955   4.510  0.3335 -0.8087  1.6462
53997SOL    HW266677   8.155   3.804   4.504 -0.7591 -0.8218 -0.7361
53998SOL     OW66678   6.038   4.540   6.548  0.1312  0.1132 -0.1460
53998SOL    HW166679   6.021   4.574   6.636  0.1629  1.3104 -0.5929
53998SOL    HW266680   6.009   4.449   6.552  0.9892 -0.1278  1.3655
53999SOL     OW66681   1.380   5.316   7.406  0.1055 -0.1043  0.3176
53999SOL    HW166682   1.374   5.293   7.498  0.3249 -1.8216 -0.0712
53999SOL    HW266683   1.454   5.266   7.373 -0.1070  0.3129 -0.8449
54000SOL     OW66684   6.521   3.034   3.150  0.8099 -0.9195 -0.5370
54000SOL    HW166685   6.577   2.957   3.140  0.7421 -1.3777  1.9748
54000SOL    HW266686   6.439   3.000   3.187  0.7504  0.3086  0.5359
54001SOL     OW66687   1.715   4.748   3.096  0.2328 -0.2676  0.6758
54001SOL    HW166688   1.668   4.814   3.148  2.8253  2.4045 -0.1204
54001SOL    HW266689   1.734   4.678   3.158 -1.8987  0.0545  1.7880
54002SOL     OW66690  11.443   2.122   9.043 -0.4422  0.0866 -0.1069
54002SOL    HW166691  11.485   2.078   8.969  1.8486  0.0642  1.0921
54002SOL    HW266692  11.390   2.054   9.085  2.8648 -1.7074  1.5933
54003SOL     OW66693   1.150   2.466   4.176 -0.0357  0.3990  0.1827
54003SOL    HW166694   1.164   2.559   4.193 -0.2017  0.6131 -0.7589
54003SOL    HW266695   1.215   2.444   4.110  1.6411 -0.7687  2.1079
54004SOL     OW66696   9.691   6.030   3.373  0.0435  0.2028  0.3320
54004SOL    HW166697   9.724   6.077   3.451 -1.8541  0.1839  1.2081
54004SOL    HW266698   9.707   5.938   3.392 -1.4934  0.1068  1.2807
54005SOL     OW66699   3.874   7.291  11.142 -0.7814 -0.3482 -0.5050
54005SOL    HW166700   3.887   7.300  11.048 -0.4539 -0.9687 -0.5180
54005SOL    HW266701   3.900   7.201  11.162  1.8293  0.5687  0.6362
54006SOL     OW66702   8.972   6.610   5.303  0.1648 -0.1394 -0.0105
54006SOL    HW166703   8.991   6.520   5.330  0.6692 -0.0825 -0.1645
54006SOL    HW266704   8.963   6.606   5.208  0.0868 -0.0405 -0.0074
54007SOL     OW66705   8.813  11.805   3.822  0.3618  0.2047  0.3068
54007SOL    HW166706   8.815  11.840   3.733 -1.1329 -0.7857 -0.1422
54007SOL    HW266707   8.815  11.710   3.810  1.4876  0.0577  1.4038
54008SOL     OW66708  10.473   8.387   1.696 -0.3446  0.3824  0.3441
54008SOL    HW166709  10.414   8.462   1.685 -1.7973  0.0348  4.0421
54008SOL    HW266710  10.429   8.332   1.761  2.0218 -2.2512 -0.0896
54009SOL     OW66711   1.806   4.520   3.197 -0.0937 -0.2541  0.1941
54009SOL    HW166712   1.736   4.473   3.242 -1.4539  0.5567 -0.9849
54009SOL    HW266713   1.859   4.451   3.156 -0.8177 -0.8439  0.2277
54010SOL     OW66714  10.676   5.999   3.266 -0.1690 -0.0990 -0.4300
54010SOL    HW166715  10.630   6.081   3.249 -0.4417  0.0717  0.9488
54010SOL    HW266716  10.739   6.021   3.335 -0.2347 -1.0327 -0.0529
54011SOL     OW66717   2.077   2.062   8.221  0.1432  0.0333  0.4633
54011SOL    HW166718   2.133   2.140   8.220 -0.8103  0.7613  1.4743
54011SOL    HW266719   2.133   1.994   8.260  0.0140  1.0512  2.5975
54012SOL     OW66720  11.741   2.601   0.944 -0.3399  0.3251 -0.0424
54012SOL    HW166721  11.746   2.605   1.039  0.4338  2.3889 -0.1253
54012SOL    HW266722  11.826   2.565   0.917 -0.8912 -1.1104  0.0445
54013SOL     OW66723   8.332   5.225  11.859  0.5758  0.0024 -0.0117
54013SOL    HW166724   8.316   5.273  11.778 -0.2476 -0.4246 -0.1129
54013SOL    HW266725   8.368   5.141  11.830  2.0195  0.5216  0.1650
54014SOL     OW66726   3.071   6.714   4.932  0.0892 -0.4088  0.1145
54014SOL    HW166727   3.031   6.776   4.871 -0.7681 -1.9690 -0.9578
54014SOL    HW266728   3.152   6.757   4.959 -0.9055  1.5927  0.1553
54015SOL     OW66729  11.817   0.343   6.990  0.6640 -0.4408  0.0285
54015SOL    HW166730  11.778   0.287   6.923  0.7467  0.1208 -0.4969
54015SOL    HW266731  11.747   0.358   7.053 -0.4670  1.6909 -1.6022
54016SOL     OW66732   6.413   3.593   3.120 -0.1762  0.2073 -0.0746
54016SOL    HW166733   6.471   3.635   3.056 -0.5231 -0.1539 -0.6433
54016SOL    HW266734   6.414   3.650   3.196  1.6044 -0.2166  0.2612
54017SOL     OW66735   7.881   2.853   6.711  0.1251  0.3100 -0.0056
54017SOL    HW166736   7.928   2.771   6.727  0.3715  0.1954 -1.2056
54017SOL    HW266737   7.845   2.878   6.796 -0.9324 -1.6356  0.1619
54018SOL     OW66738   3.295   1.399   2.956 -0.0134 -0.1572 -0.2188
54018SOL    HW166739   3.271   1.308   2.972  1.1422 -0.6500 -1.1764
54018SOL    HW266740   3.384   1.407   2.989  0.1235  0.4600 -0.7084
54019SOL     OW66741   5.634   5.874   7.503  0.2099  0.0802 -0.4578
54019SOL    HW166742   5.696   5.809   7.535  0.9580  1.2652  0.5954
54019SOL    HW266743   5.634   5.864   7.408  0.9031 -0.9189 -0.3622
54020SOL     OW66744   0.756   4.356   7.044 -0.2629  0.1228  0.2662
54020SOL    HW166745   0.812   4.281   7.061  0.7992  0.1390 -2.5043
54020SOL    HW266746   0.667   4.326   7.064  0.2525 -1.5418  0.2000
54021SOL     OW66747  11.014   8.759   7.984 -0.3472  0.1515  0.3015
54021SOL    HW166748  11.057   8.715   8.057 -2.9335  1.2763  2.6899
54021SOL    HW266749  10.980   8.688   7.930  0.6191 -0.7280  0.8099
54022SOL     OW66750   6.306   0.740   7.313 -1.0457  0.4943 -0.0168
54022SOL    HW166751   6.254   0.665   7.286 -0.0710 -0.0719 -0.3930
54022SOL    HW266752   6.245   0.814   7.312 -2.0168 -0.2829  0.3612
54023SOL     OW66753   3.794   0.686   4.123 -0.1853 -0.1384  0.3141
54023SOL    HW166754   3.882   0.714   4.148  0.2058 -1.2501  0.2713
54023SOL    HW266755   3.738   0.760   4.144  0.5979  0.1581  1.4575
54024SOL     OW66756   4.161  10.019   4.245  0.0432  0.0591  0.3455
54024SOL    HW166757   4.211   9.957   4.192 -0.8660  0.3172 -0.8675
54024SOL    HW266758   4.196  10.010   4.333  0.4189 -1.6628  0.0489
54025SOL     OW66759   1.790   8.939   0.248  0.0217 -0.0801 -0.3894
54025SOL    HW166760   1.765   8.966   0.336 -1.2466 -0.4207 -0.6266
54025SOL    HW266761   1.770   8.845   0.245  0.6498 -0.2083 -0.8403
54026SOL     OW66762   8.424   5.932   4.683  0.1074  0.3047 -0.2064
54026SOL    HW166763   8.356   5.933   4.616 -0.1371  0.4466  0.0442
54026SOL    HW266764   8.436   6.024   4.707 -0.0254  0.2282  0.1632
54027SOL     OW66765   3.885   9.543   4.326 -0.7114 -0.5448 -0.0407
54027SOL    HW166766   3.906   9.454   4.299  0.2154  0.2543 -2.2214
54027SOL    HW266767   3.818   9.572   4.264 -0.8322  0.3559  0.4846
54028SOL     OW66768   3.931   4.126   9.827  0.5879 -0.1432 -0.2345
54028SOL    HW166769   4.021   4.139   9.858  0.9254 -1.3943 -0.6184
54028SOL    HW266770   3.908   4.038   9.856 -0.2543 -0.1104 -0.7558
54029SOL     OW66771   9.238  11.164   1.274 -0.2488 -0.1200 -0.4749
54029SOL    HW166772   9.200  11.235   1.223 -0.4095 -1.1872 -1.9175
54029SOL    HW266773   9.182  11.088   1.255  0.0447 -0.6999  0.8337
54030SOL     OW66774  11.727  10.862   8.936  0.1095 -0.1835 -0.0127
54030SOL    HW166775  11.687  10.839   9.019  0.1505 -1.8986 -0.4253
54030SOL    HW266776  11.674  10.935   8.903 -1.7182 -1.3303  0.2058
54031SOL     OW66777   4.444  11.726  10.248 -0.0989 -0.0410 -0.0018
54031SOL    HW166778   4.429  11.639  10.210 -2.5732  1.9286 -4.2112
54031SOL    HW266779   4.357  11.762  10.263  0.8342  2.0682  0.8554
54032SOL     OW66780   0.496   7.790   9.534  0.0587  0.4661 -0.0755
54032SOL    HW166781   0.439   7.724   9.496  0.1935 -0.0987  0.6933
54032SOL    HW266782   0.585   7.758   9.517  0.1265 -0.5176  1.9230
54033SOL     OW66783   1.232   4.183   4.996  0.7995 -0.0690  0.0844
54033SOL    HW166784   1.280   4.100   5.004  0.1498 -0.5834 -1.0382
54033SOL    HW266785   1.259   4.234   5.073  1.1399 -1.3568  0.8630
54034SOL     OW66786   2.279   3.948   7.035  0.1836 -0.0684 -0.0033
54034SOL    HW166787   2.189   3.958   7.003  0.5147  2.8192 -0.3139
54034SOL    HW266788   2.321   4.031   7.014  2.3578 -0.5645  1.9778
54035SOL     OW66789  11.712   2.268   2.739  0.1983  0.5763  0.8837
54035SOL    HW166790  11.677   2.192   2.786  1.8069 -1.7219 -1.3209
54035SOL    HW266791  11.641   2.294   2.680 -0.2712  0.6336  1.4628
54036SOL     OW66792   4.454   2.304   3.015  0.1981 -0.1992 -0.1984
54036SOL    HW166793   4.383   2.292   2.951 -1.2684  1.0966  1.0825
54036SOL    HW266794   4.409   2.311   3.099  1.8005  1.2634  0.5994
54037SOL     OW66795   7.363   0.144  11.969  0.2936 -0.3901 -0.5497
54037SOL    HW166796   7.436   0.116  11.914  0.6301  0.4221 -0.5355
54037SOL    HW266797   7.404   0.197  12.037 -0.1228 -1.3027  0.4457
54038SOL     OW66798   9.062   9.332  10.233  0.0203 -0.4510  0.0818
54038SOL    HW166799   8.973   9.300  10.218 -0.9651  2.2224 -0.3095
54038SOL    HW266800   9.102   9.265  10.288 -2.0357 -2.0077 -0.1789
54039SOL     OW66801  10.854   8.715   4.208  0.4781 -0.0938  0.2227
54039SOL    HW166802  10.937   8.669   4.196  2.2843  2.0577  3.0881
54039SOL    HW266803  10.805   8.660   4.269  1.0295 -0.0449  0.7240
54040SOL     OW66804   8.075   4.253   6.921  0.0985 -0.0456 -0.5802
54040SOL    HW166805   8.036   4.309   6.988  0.3757 -0.4968 -0.0257
54040SOL    HW266806   8.078   4.166   6.962  0.0524 -0.3753 -1.2680
54041SOL     OW66807   5.711   7.233   2.170  0.6427 -0.3158 -0.0769
54041SOL    HW166808   5.686   7.144   2.195  2.7550 -0.8234  0.3782
54041SOL    HW266809   5.784   7.255   2.228  1.2785  1.0706 -1.3437
54042SOL     OW66810   8.255   3.570   2.351 -0.0439  0.4373 -0.2940
54042SOL    HW166811   8.309   3.649   2.353  0.5996  0.0012  1.4724
54042SOL    HW266812   8.206   3.577   2.269  2.6756  0.8626 -2.0198
54043SOL     OW66813   9.310   3.240   8.807 -0.5392 -0.3259 -0.1266
54043SOL    HW166814   9.235   3.210   8.858 -1.1081  0.4651 -0.4635
54043SOL    HW266815   9.348   3.310   8.860 -0.8132  0.1381 -0.5369
54044SOL     OW66816   5.300  10.871   2.999 -0.2463 -0.4679 -0.4535
54044SOL    HW166817   5.211  10.865   3.033 -0.5797  2.7332 -0.4537
54044SOL    HW266818   5.350  10.910   3.071  1.7314 -4.0190  0.3015
54045SOL     OW66819   1.461   8.655   6.501  0.0365 -0.8851  0.2310
54045SOL    HW166820   1.450   8.713   6.426  1.6923 -0.1263  0.5311
54045SOL    HW266821   1.555   8.656   6.518 -0.1008 -2.3724  1.2789
54046SOL     OW66822   6.961   0.188   1.338  0.6132 -0.1222  1.1080
54046SOL    HW166823   6.919   0.114   1.293  3.9375 -1.2055 -0.5547
54046SOL    HW266824   6.890   0.250   1.353 -1.4045 -1.2595 -2.4885
54047SOL     OW66825   4.446   3.407   6.191  0.1718 -0.0192  0.8095
54047SOL    HW166826   4.351   3.397   6.186  0.0734  1.2561 -0.2499
54047SOL    HW266827   4.479   3.358   6.115  0.2347  0.9527  0.2027
54048SOL     OW66828  11.678  10.289   9.936  0.4452 -0.1252 -0.2360
54048SOL    HW166829  11.658  10.202   9.972  0.5498 -0.1551 -0.2493
54048SOL    HW266830  11.747  10.272   9.872 -0.6366 -0.2606 -1.4138
54049SOL     OW66831  11.831   3.076   2.043 -0.4222  0.5487  0.0759
54049SOL    HW166832  11.808   3.138   1.973  0.3193  0.0803 -0.5941
54049SOL    HW266833  11.917   3.105   2.074  0.1099 -0.3599 -0.5070
54050SOL     OW66834   0.401   4.999   8.449  0.0740  0.1148  0.1292
54050SOL    HW166835   0.314   4.962   8.431 -0.0195  0.4106 -0.0299
54050SOL    HW266836   0.458   4.922   8.458  0.0633 -0.0682 -1.1378
54051SOL     OW66837   9.353   1.811   5.863 -0.3477 -0.0778 -0.4173
54051SOL    HW166838   9.353   1.863   5.783  4.1969 -0.6059 -1.0401
54051SOL    HW266839   9.369   1.875   5.933  0.3833 -0.0831 -0.5706
54052SOL     OW66840   9.031   2.874  11.649  0.8377 -0.2013  0.2225
54052SOL    HW166841   8.967   2.925  11.698  1.4388  0.6151  0.1808
54052SOL    HW266842   8.985   2.847  11.570  0.4261  0.0227  0.3827
54053SOL     OW66843   1.387   5.062   8.979  0.2318  0.2095 -0.3723
54053SOL    HW166844   1.423   5.059   9.068  0.1378  0.3267 -0.3309
54053SOL    HW266845   1.435   5.133   8.937  0.7766 -0.3096 -0.6315
54054SOL     OW66846   7.581   0.252   4.456 -0.5689 -0.4446 -0.2295
54054SOL    HW166847   7.492   0.265   4.488 -1.0236  1.7769 -2.0893
54054SOL    HW266848   7.572   0.192   4.382 -0.5051 -0.3654 -0.3027
54055SOL     OW66849   2.063   4.232   6.361  0.4447 -0.1433 -0.0293
54055SOL    HW166850   2.132   4.227   6.428 -0.1957 -0.6968  0.6000
54055SOL    HW266851   2.022   4.146   6.361 -1.4982  0.7168  0.9604
54056SOL     OW66852   7.464   0.416   7.756 -0.3231  0.3534  0.9037
54056SOL    HW166853   7.557   0.392   7.757 -0.3073  0.3155 -0.0180
54056SOL    HW266854   7.464   0.508   7.728 -0.5163  0.6787  1.9283
54057SOL     OW66855   1.948   0.011   0.473 -0.0102  0.0394 -0.7742
54057SOL    HW166856   1.977   0.029   0.562  0.2428 -1.5649 -0.4883
54057SOL    HW266857   2.029   0.010   0.421 -0.1652  1.0520 -1.0572
54058SOL     OW66858   9.718   3.709   1.164 -0.0914  0.1499 -0.1512
54058SOL    HW166859   9.755   3.624   1.190 -2.3487 -0.6548  0.6998
54058SOL    HW266860   9.709   3.702   1.069 -1.5076 -1.1767  0.0329
54059SOL     OW66861   6.970   9.067   3.541 -0.0474 -0.0687 -0.0901
54059SOL    HW166862   7.030   9.044   3.470 -1.0197 -0.9572 -0.6358
54059SOL    HW266863   6.914   8.990   3.552 -0.5572  0.4352  0.9678
54060SOL     OW66864   5.881   2.339  10.309  0.4398  0.4196  0.1775
54060SOL    HW166865   5.884   2.395  10.232 -0.5324  0.6325  0.2813
54060SOL    HW266866   5.909   2.396  10.381  0.2225  0.5456  0.1619
54061SOL     OW66867   5.257   5.088   9.321 -0.0918  0.3214  0.1541
54061SOL    HW166868   5.210   5.033   9.383  1.9944 -0.1476  1.4277
54061SOL    HW266869   5.191   5.150   9.290 -1.2342  0.7604  3.0498
54062SOL     OW66870   5.085   3.299   5.385  0.4608 -0.3204  0.5118
54062SOL    HW166871   4.996   3.272   5.361 -0.7141  2.3763  1.4668
54062SOL    HW266872   5.131   3.217   5.401 -1.1907 -1.9130 -2.0945
54063SOL     OW66873  11.560   2.538   6.867 -0.4230 -0.1135 -0.1364
54063SOL    HW166874  11.602   2.534   6.781 -0.9565  0.3415 -0.4317
54063SOL    HW266875  11.488   2.600   6.855 -1.4494 -1.1945  0.2357
54064SOL     OW66876   1.657  10.796   6.839  0.2346  1.0966 -0.2441
54064SOL    HW166877   1.591  10.735   6.807 -0.0456  0.6914  1.0226
54064SOL    HW266878   1.611  10.879   6.850  0.1263  1.0221 -0.1300
54065SOL     OW66879   2.204   4.371   3.891  0.2289 -0.5988 -0.6477
54065SOL    HW166880   2.134   4.417   3.846  0.8571 -0.1526 -1.1842
54065SOL    HW266881   2.177   4.371   3.983 -0.9699 -1.3453 -0.9721
54066SOL     OW66882   4.709   4.386   5.613 -0.4259  0.4150 -0.1007
54066SOL    HW166883   4.763   4.416   5.540  0.4724 -0.2850  0.2606
54066SOL    HW266884   4.627   4.359   5.572 -0.1098  0.4708 -0.7914
54067SOL     OW66885   2.616   1.438   5.218  0.2112  0.1583 -0.0182
54067SOL    HW166886   2.695   1.489   5.199  0.6684 -0.5939 -0.1939
54067SOL    HW266887   2.587   1.469   5.303  0.0115  1.2829 -0.4833
54068SOL     OW66888   0.638  11.400   3.677 -0.0334 -0.3896 -0.2264
54068SOL    HW166889   0.650  11.305   3.669 -0.9005 -0.4781 -0.4961
54068SOL    HW266890   0.725  11.436   3.659 -0.3729 -0.9453 -3.5476
54069SOL     OW66891   3.198   2.916   9.930 -0.5002  0.1163  0.0640
54069SOL    HW166892   3.157   2.999   9.953 -1.8603 -0.6324  0.4377
54069SOL    HW266893   3.272   2.940   9.873 -0.8211  1.5669  0.2363
54070SOL     OW66894  11.139   1.021   3.268  0.0368  0.0831 -0.6329
54070SOL    HW166895  11.069   1.052   3.210 -2.4085 -1.2702  1.3328
54070SOL    HW266896  11.205   0.985   3.209 -2.4107 -1.4461 -2.6663
54071SOL     OW66897   0.435   8.869   5.111 -0.0907  0.0872  0.4367
54071SOL    HW166898   0.463   8.918   5.189 -1.3380  0.7117  0.5230
54071SOL    HW266899   0.343   8.849   5.128 -0.0014 -0.9794 -0.2839
54072SOL     OW66900   2.424   5.480   4.174  0.7454 -0.2584  0.6800
54072SOL    HW166901   2.381   5.484   4.260 -0.5268  0.5665  0.0464
54072SOL    HW266902   2.497   5.541   4.181  1.2272 -0.9119  1.4704
54073SOL     OW66903   4.157   6.446   7.598  0.2113 -0.3979  0.5223
54073SOL    HW166904   4.182   6.381   7.663  0.9003  0.1749  0.8369
54073SOL    HW266905   4.194   6.528   7.629  0.1209 -0.0163 -0.3293
54074SOL     OW66906   1.240   7.942   8.159 -0.3265  0.5142 -0.4342
54074SOL    HW166907   1.180   7.939   8.234 -0.7498 -1.0433 -0.8165
54074SOL    HW266908   1.183   7.950   8.083 -0.0369 -0.5599 -0.7715
54075SOL     OW66909   0.688  11.780   6.341  0.3725  0.4915 -0.0188
54075SOL    HW166910   0.662  11.725   6.267 -1.1431 -0.7544  1.3641
54075SOL    HW266911   0.781  11.796   6.328  0.7039 -1.7999 -0.8954
54076SOL     OW66912   0.913  10.692   0.916 -0.3134  0.6274 -0.3642
54076SOL    HW166913   0.934  10.732   0.832 -1.9627 -0.2106 -1.2076
54076SOL    HW266914   0.948  10.603   0.910  0.0355  0.7320  0.0571
54077SOL     OW66915  10.426   8.684   0.081  0.0565  0.2205  0.0660
54077SOL    HW166916  10.446   8.768   0.041 -0.8462  2.3516  3.6111
54077SOL    HW266917  10.501   8.665   0.136 -0.8440  0.1598  1.3300
54078SOL     OW66918   8.555   4.745   0.054  0.1308  0.8298  0.5631
54078SOL    HW166919   8.609   4.666   0.060 -1.0952 -0.1138 -0.2721
54078SOL    HW266920   8.606   4.804  -0.001  0.1665 -0.1965 -0.5556
54079SOL     OW66921   9.123   6.306   5.033 -0.4600  0.0922  0.1553
54079SOL    HW166922   9.068   6.353   5.096 -0.0744 -0.1191  0.6534
54079SOL    HW266923   9.192   6.368   5.010  0.2439 -0.3355  1.0717
54080SOL     OW66924   4.558   4.588   4.703  0.3864  0.4737  0.6321
54080SOL    HW166925   4.582   4.645   4.630  1.6402  1.4281  1.7470
54080SOL    HW266926   4.618   4.513   4.695 -1.4543 -0.9479 -1.0061
54081SOL     OW66927   4.409   4.260   8.684  0.0024  0.3374 -0.0478
54081SOL    HW166928   4.433   4.217   8.767  1.0968 -1.0018 -1.0056
54081SOL    HW266929   4.478   4.234   8.624  0.0027  2.4686 -1.0371
54082SOL     OW66930   7.287  11.389   7.173 -0.4173 -0.3344 -0.3367
54082SOL    HW166931   7.266  11.414   7.263 -1.5659 -1.3222 -0.2974
54082SOL    HW266932   7.348  11.456   7.142 -2.2341  1.6725  0.1911
54083SOL     OW66933   4.283   8.942   8.001  0.2299  0.6573 -0.6984
54083SOL    HW166934   4.356   8.949   8.062  0.2190 -0.1205 -0.5926
54083SOL    HW266935   4.237   8.862   8.027  0.0810  0.4518 -1.5639
54084SOL     OW66936  10.590   3.112   5.978  0.1901  0.6250  0.3373
54084SOL    HW166937  10.612   3.205   5.969  0.6824  0.5048  0.3089
54084SOL    HW266938  10.583   3.081   5.887  0.8831  0.4345  0.3421
54085SOL     OW66939  10.591   9.574   2.667  0.1198 -0.5391  0.0278
54085SOL    HW166940  10.562   9.520   2.741 -0.1782 -0.3092  0.0835
54085SOL    HW266941  10.632   9.513   2.607 -0.9993 -0.9736 -0.3177
54086SOL     OW66942   8.041   2.892   2.406 -0.1172 -0.1405 -0.2993
54086SOL    HW166943   8.005   2.927   2.324 -1.1484  0.1947  0.2702
54086SOL    HW266944   7.964   2.877   2.461  0.5296 -0.7102  0.4804
54087SOL     OW66945   9.723   5.377  11.872  0.4864 -0.3595 -0.4430
54087SOL    HW166946   9.666   5.323  11.927  0.5374 -1.6709 -1.6070
54087SOL    HW266947   9.666   5.446  11.839  0.3987  0.3124  1.0297
54088SOL     OW66948   9.629  10.563   4.488 -0.5377  0.4039  0.2604
54088SOL    HW166949   9.610  10.611   4.569  0.1803 -0.4278  0.9488
54088SOL    HW266950   9.621  10.628   4.419 -2.4933  0.8542  0.8310
54089SOL     OW66951   1.018   8.646  11.002 -0.3280 -0.4805  0.1166
54089SOL    HW166952   0.950   8.619  10.940  0.8233  0.1460 -1.5050
54089SOL    HW266953   1.080   8.573  11.002  1.0772  0.6348 -1.6752
54090SOL     OW66954   3.014   9.443   0.414  0.0774  0.2403 -0.9925
54090SOL    HW166955   3.061   9.524   0.395  0.9620  0.5816  2.1502
54090SOL    HW266956   2.932   9.471   0.455  1.1771 -0.3584  1.7995
54091SOL     OW66957   3.766   1.052   5.673 -0.3316  0.0669  0.7089
54091SOL    HW166958   3.804   1.136   5.645 -2.4560  0.0098 -3.0684
54091SOL    HW266959   3.763   0.999   5.593 -3.5573 -1.7375  1.8123
54092SOL     OW66960   3.419  11.965   9.283  0.5663 -0.5040 -0.1115
54092SOL    HW166961   3.503  11.996   9.318  1.9823 -2.0369 -1.8850
54092SOL    HW266962   3.389  12.035   9.226  1.8897 -0.8511 -1.2902
54093SOL     OW66963  11.051   7.061   9.730 -0.3174  0.2303 -0.1872
54093SOL    HW166964  10.986   6.992   9.741  0.2125 -0.2781 -0.1850
54093SOL    HW266965  11.094   7.068   9.815  0.3060 -0.1413 -0.4589
54094SOL     OW66966   0.576   0.223   6.971  0.0650 -0.3391 -0.2017
54094SOL    HW166967   0.653   0.187   6.926  0.2230 -0.4484  0.1535
54094SOL    HW266968   0.504   0.210   6.909  0.2802 -0.4995 -0.4197
54095SOL     OW66969   9.195   0.973  10.976  0.6613  0.0132  0.4869
54095SOL    HW166970   9.205   1.003  11.066  0.9062 -1.6606  1.0652
54095SOL    HW266971   9.279   0.932  10.955  0.2864 -0.4508 -0.1552
54096SOL     OW66972   6.470  11.265   1.744  0.4414  0.2728 -0.7066
54096SOL    HW166973   6.507  11.309   1.667  3.3668 -0.2682  0.2679
54096SOL    HW266974   6.489  11.173   1.730 -0.9266 -0.1010 -0.2701
54097SOL     OW66975   8.412  11.710  11.602 -0.2227 -0.0674  0.0038
54097SOL    HW166976   8.353  11.666  11.541 -0.3657  0.0504  0.0537
54097SOL    HW266977   8.496  11.667  11.590 -0.6353 -1.1772  0.9085
54098SOL     OW66978   6.377   5.801   5.243 -0.0334  0.0645  0.1103
54098SOL    HW166979   6.409   5.722   5.199  1.6905 -0.5201  2.2064
54098SOL    HW266980   6.445   5.866   5.227  0.4528 -0.0586  1.4973
54099SOL     OW66981   1.851   8.344   5.291  0.2732  0.3156 -0.1083
54099SOL    HW166982   1.903   8.321   5.214 -0.2699 -1.6074  0.0429
54099SOL    HW266983   1.815   8.261   5.322  0.6775  0.9818  2.3976
54100SOL     OW66984   5.338   6.809   3.602  0.4222 -0.1785 -0.1175
54100SOL    HW166985   5.392   6.731   3.592 -0.7423 -0.7834 -2.1689
54100SOL    HW266986   5.262   6.780   3.653  0.5025 -0.1189  0.0357
54101SOL     OW66987   5.018   4.111   4.080  0.0676  0.1082  0.0788
54101SOL    HW166988   4.958   4.059   4.027  0.2099  0.8888 -0.8764
54101SOL    HW266989   5.000   4.084   4.170 -0.5439 -0.8661 -0.3227
54102SOL     OW66990   7.676   3.338  11.773  0.6192  0.0047 -0.4352
54102SOL    HW166991   7.589   3.299  11.787 -0.0018  1.4980  0.0455
54102SOL    HW266992   7.704   3.366  11.859  1.7353 -0.7201 -0.5474
54103SOL     OW66993   1.934   8.035   9.683 -0.1728  0.0758  0.3542
54103SOL    HW166994   1.857   8.042   9.740  0.5445  0.0030  1.3638
54103SOL    HW266995   1.904   8.068   9.598 -1.9610 -2.0663  0.0605
54104SOL     OW66996   3.952  10.907  11.549  0.6071  0.8525 -0.1357
54104SOL    HW166997   3.919  10.997  11.544 -0.0970  0.7281  1.5275
54104SOL    HW266998   4.004  10.905  11.630 -0.8543 -0.6657  0.8192
54105SOL     OW66999   1.570   2.692   5.605 -0.1403  0.6192 -0.5822
54105SOL    HW167000   1.518   2.763   5.566 -0.6062  0.3856 -0.4013
54105SOL    HW267001   1.548   2.696   5.699 -1.6786 -0.9750 -0.8159
54106SOL     OW67002   3.825  10.117   5.375 -0.4503  0.0387 -0.3465
54106SOL    HW167003   3.871  10.191   5.336  0.3551  0.6099  1.5911
54106SOL    HW267004   3.813  10.056   5.302  1.4384  0.8240 -1.3925
54107SOL     OW67005   6.024   7.731   6.181 -0.1462  0.2506 -0.4287
54107SOL    HW167006   6.029   7.664   6.113 -1.2212  0.7716 -1.0526
54107SOL    HW267007   6.115   7.749   6.204  0.1698 -1.2790 -0.3768
54108SOL     OW67008   5.878   0.539   6.021 -0.6197 -0.0457  0.0259
54108SOL    HW167009   5.929   0.545   5.940  3.6923  2.4704  2.5587
54108SOL    HW267010   5.903   0.454   6.059 -0.1294  0.1758  0.1975
54109SOL     OW67011   0.730   5.715  11.953 -0.4031 -0.5713  0.1010
54109SOL    HW167012   0.670   5.730  12.026  0.6743  1.1623  0.6897
54109SOL    HW267013   0.729   5.797  11.904  1.9170 -0.2460  0.4887
54110SOL     OW67014   5.591   5.538   9.697 -0.2437 -0.3292  0.1329
54110SOL    HW167015   5.678   5.578   9.689 -0.3682  0.2229  1.3209
54110SOL    HW267016   5.609   5.450   9.728 -0.1264  0.1571  1.5339
54111SOL     OW67017   0.602   6.404   9.289  0.0837  0.1255  0.1057
54111SOL    HW167018   0.542   6.466   9.328 -0.8967 -0.8303  0.1451
54111SOL    HW267019   0.563   6.318   9.305  1.6436 -0.5504  0.4648
54112SOL     OW67020   6.936   1.291   6.486  0.3327 -0.2896 -0.1001
54112SOL    HW167021   6.940   1.298   6.581  1.0605  1.6136 -0.2194
54112SOL    HW267022   7.020   1.252   6.461  0.8517  0.7557 -0.0387
54113SOL     OW67023   4.048  11.358   4.166 -0.2001 -0.4335 -0.1308
54113SOL    HW167024   4.073  11.318   4.083 -0.4647 -1.5579  0.3158
54113SOL    HW267025   4.080  11.297   4.232 -2.9621 -1.3184  0.5092
54114SOL     OW67026   9.824  10.805   9.768  0.2891 -0.3305  0.4718
54114SOL    HW167027   9.785  10.718   9.765  0.6417 -0.4618 -0.7417
54114SOL    HW267028   9.758  10.859   9.810 -0.4171 -0.9429  0.1737
54115SOL     OW67029   2.079   3.468   4.915  0.1432 -0.1325 -0.7112
54115SOL    HW167030   2.132   3.396   4.948 -1.6194 -0.9069  0.5754
54115SOL    HW267031   2.126   3.547   4.943 -0.2156 -0.7782  1.9103
54116SOL     OW67032   5.913   1.737   7.130  0.0392  0.3885  0.5313
54116SOL    HW167033   5.825   1.703   7.142  0.0447  0.6682  1.4520
54116SOL    HW267034   5.955   1.728   7.215  1.1716 -0.4621 -0.0894
54117SOL     OW67035   3.214  11.772   7.549  0.8403  0.1479  0.4973
54117SOL    HW167036   3.143  11.811   7.601  0.4194  1.7489 -1.1805
54117SOL    HW267037   3.171  11.704   7.497  0.7176  0.4162  0.2425
54118SOL     OW67038  10.813   3.804   3.567  0.2820 -0.3060  0.0209
54118SOL    HW167039  10.862   3.834   3.490  0.4733 -0.8279 -0.0646
54118SOL    HW267040  10.871   3.823   3.641  0.1279  0.1295  0.0341
54119SOL     OW67041  10.252  10.832   6.689  0.6268  0.4198 -0.0540
54119SOL    HW167042  10.205  10.751   6.668  0.5799  0.1847  0.9349
54119SOL    HW267043  10.207  10.899   6.636 -0.3641  0.0779  0.3198
54120SOL     OW67044  10.282   6.561  11.007  0.1458 -0.2297 -0.4646
54120SOL    HW167045  10.187   6.545  11.006  0.1546 -0.5187  1.1143
54120SOL    HW267046  10.294   6.635  10.948 -1.0872 -0.0685 -0.5503
54121SOL     OW67047   0.629   9.301   7.237 -0.6311  0.2351  0.1992
54121SOL    HW167048   0.644   9.343   7.322  0.8541  1.0260 -0.4214
54121SOL    HW267049   0.606   9.373   7.178  0.7031  0.0732 -0.5848
54122SOL     OW67050  10.064   5.931   2.070  0.4022 -0.1048 -0.1996
54122SOL    HW167051  10.145   5.881   2.080 -0.0019 -0.7375 -0.0369
54122SOL    HW267052  10.093   6.019   2.045  1.2342  0.2899  1.9696
54123SOL     OW67053   3.193   5.053   9.253  0.1512 -0.3364 -0.1822
54123SOL    HW167054   3.170   5.085   9.340  0.8085 -1.9559  0.6345
54123SOL    HW267055   3.287   5.035   9.258 -0.0738 -1.8591 -0.7141
54124SOL     OW67056   8.566   8.888   0.055  0.3448 -0.1333 -0.5085
54124SOL    HW167057   8.611   8.805   0.067  1.5751  0.6557  0.6768
54124SOL    HW267058   8.480   8.875   0.097  1.2981 -0.2147  1.5610
54125SOL     OW67059   9.875   2.483   3.201  0.5789 -0.0874 -0.2625
54125SOL    HW167060   9.805   2.535   3.163  0.3301  1.4270  2.0811
54125SOL    HW267061   9.835   2.441   3.277  0.8627 -3.5653 -1.8215
54126SOL     OW67062   5.094   7.543   5.118  0.3403  0.1106 -0.2263
54126SOL    HW167063   5.186   7.565   5.106  0.3584 -0.4575 -1.1589
54126SOL    HW267064   5.047   7.623   5.094  0.5374  0.0289 -0.8945
54127SOL     OW67065   9.792  10.091   7.751  0.0327  0.3847  0.2528
54127SOL    HW167066   9.809  10.167   7.695  1.1400 -0.8942 -1.2405
54127SOL    HW267067   9.874  10.041   7.750 -1.5869 -2.5608 -1.6196
54128SOL     OW67068   3.258  10.137   7.979  0.0665  0.6898  0.1773
54128SOL    HW167069   3.223  10.093   7.902  0.3123  0.3047  0.2811
54128SOL    HW267070   3.190  10.127   8.046 -0.0625  0.8511  0.0708
54129SOL     OW67071   8.121   6.719   9.572  0.0061 -0.0998 -0.2081
54129SOL    HW167072   8.160   6.753   9.652 -0.4022 -0.0488 -0.0329
54129SOL    HW267073   8.175   6.755   9.502  1.1280 -1.1285  0.0866
54130SOL     OW67074   1.326   7.742   7.138  0.0011  0.2188  0.0224
54130SOL    HW167075   1.313   7.657   7.180  1.9056 -0.2506 -0.2544
54130SOL    HW267076   1.404   7.778   7.179 -0.7275  1.8259  0.0696
54131SOL     OW67077   2.665   5.102   5.402 -0.6318 -0.0510  0.5175
54131SOL    HW167078   2.742   5.116   5.457 -0.3778 -0.7261  0.3528
54131SOL    HW267079   2.699   5.100   5.313 -0.2508 -3.5345  0.5668
54132SOL     OW67080   7.032   2.664   8.700  0.2229 -0.2220  0.1490
54132SOL    HW167081   7.087   2.617   8.763  0.2378  0.2205  0.4745
54132SOL    HW267082   7.085   2.669   8.621  1.8517  2.6178  1.2731
54133SOL     OW67083   8.222   0.441   0.044 -0.0130 -0.4006 -0.1489
54133SOL    HW167084   8.203   0.534   0.056 -1.4340 -0.6947  0.0892
54133SOL    HW267085   8.240   0.408   0.133 -2.4391 -0.9129  0.2292
54134SOL     OW67086   0.370   5.888   1.691 -0.3753  0.0736 -0.4996
54134SOL    HW167087   0.371   5.979   1.720  0.0469 -0.0150 -0.2238
54134SOL    HW267088   0.402   5.891   1.601 -0.4265  0.2077 -0.5132
54135SOL     OW67089   8.779   9.686   8.864  0.7094 -0.8877  0.3715
54135SOL    HW167090   8.774   9.622   8.793  1.6820 -1.6148  0.9370
54135SOL    HW267091   8.812   9.766   8.823 -0.2648 -0.8038 -0.2899
54136SOL     OW67092   2.720  10.104   3.287 -0.4990 -0.7177 -0.5315
54136SOL    HW167093   2.670  10.023   3.277  0.1994 -1.1293 -0.8524
54136SOL    HW267094   2.778  10.105   3.210  0.8960 -0.9397  0.4773
54137SOL     OW67095  10.836  10.133   2.304 -0.0601  0.2158 -0.1639
54137SOL    HW167096  10.861  10.051   2.261 -1.0360 -2.3743  3.6823
54137SOL    HW267097  10.915  10.162   2.349  0.9451  2.8828 -3.2843
54138SOL     OW67098   0.231   1.686   0.499  0.2314  0.6770 -0.4463
54138SOL    HW167099   0.148   1.709   0.456  0.0781  0.2143 -0.3954
54138SOL    HW267100   0.298   1.728   0.444 -0.1016  2.2343  0.2933
54139SOL     OW67101   3.774   4.721   3.864 -0.5907  0.6758 -0.2745
54139SOL    HW167102   3.731   4.644   3.901  0.7101 -0.0331 -0.1486
54139SOL    HW267103   3.717   4.749   3.793 -2.6180  1.4579  1.5635
54140SOL     OW67104   7.034   8.948   1.933  0.0125  0.1942  0.1431
54140SOL    HW167105   7.004   9.037   1.917 -0.4071  0.1175  0.4914
54140SOL    HW267106   6.985   8.919   2.010  0.1151 -0.3482  0.0133
54141SOL     OW67107   5.394   8.911   9.923 -0.1661 -0.3635 -0.0172
54141SOL    HW167108   5.333   8.942   9.856 -0.1777 -0.3517 -0.0014
54141SOL    HW267109   5.360   8.948  10.005 -0.6643 -1.0920  0.1255
54142SOL     OW67110   9.304   3.434   0.914  0.0894 -0.5017  0.3319
54142SOL    HW167111   9.297   3.449   1.009  0.8790  0.0573  0.3094
54142SOL    HW267112   9.225   3.385   0.892 -0.5166  0.0727  1.1448
54143SOL     OW67113  10.173   9.603   6.540  0.5960  0.1602 -0.3474
54143SOL    HW167114  10.174   9.608   6.444  0.0739 -0.3292 -0.3834
54143SOL    HW267115  10.155   9.511   6.559  0.4964  0.2948  0.2219
54144SOL     OW67116  10.492   0.005   8.130 -0.0551 -0.0018 -0.1862
54144SOL    HW167117  10.578  -0.029   8.105 -0.1112 -0.2153 -0.0973
54144SOL    HW267118  10.495   0.098   8.109 -0.1001 -0.1698 -0.9804
54145SOL     OW67119   7.347   1.496   1.827 -0.0776 -0.5295  0.0973
54145SOL    HW167120   7.308   1.408   1.821  1.0591 -0.9418 -4.3235
54145SOL    HW267121   7.275   1.555   1.804 -0.0179 -0.6268 -0.3524
54146SOL     OW67122   7.935   2.254   7.236  0.1605 -0.0816  0.4139
54146SOL    HW167123   7.906   2.164   7.252  1.4669 -0.6615 -0.2828
54146SOL    HW267124   8.007   2.244   7.174 -0.0225  1.4998 -0.0836
54147SOL     OW67125   7.477   4.403   5.912 -0.0208 -0.4105 -0.0159
54147SOL    HW167126   7.531   4.362   5.979  1.7365  0.4947 -0.8017
54147SOL    HW267127   7.431   4.330   5.870  0.4774 -1.1988  0.7822
54148SOL     OW67128   2.767   7.117   1.909 -0.1692 -0.3951  0.8500
54148SOL    HW167129   2.792   7.209   1.903 -1.4727 -0.0804 -1.3402
54148SOL    HW267130   2.729   7.107   1.996 -1.1528  1.5062  0.6918
54149SOL     OW67131   7.857   9.942   9.827 -0.4367 -0.1300  0.3568
54149SOL    HW167132   7.874  10.021   9.878  1.7286  0.2179 -0.8076
54149SOL    HW267133   7.806   9.886   9.886  0.3720  1.0033  2.2204
54150SOL     OW67134   1.401   4.377   9.445 -0.5812  0.0240  0.2657
54150SOL    HW167135   1.432   4.454   9.492 -0.3777 -0.6683  1.2962
54150SOL    HW267136   1.358   4.412   9.367  0.8740  1.1068 -0.0883
54151SOL     OW67137   1.765   1.236   2.850 -0.2326  0.0618 -0.2528
54151SOL    HW167138   1.822   1.213   2.776  0.7691  1.9363 -0.1369
54151SOL    HW267139   1.800   1.320   2.881 -2.8130  1.0993  0.0903
54152SOL     OW67140   5.294   3.809   4.508  0.0233  0.0767  0.1093
54152SOL    HW167141   5.302   3.874   4.578 -1.0587 -0.0042  0.3290
54152SOL    HW267142   5.379   3.765   4.506  0.7474  1.4136  0.0279
54153SOL     OW67143   4.359   9.115   7.691  0.2732 -0.4516 -0.4027
54153SOL    HW167144   4.351   9.159   7.606  0.5670  0.3119 -0.0418
54153SOL    HW267145   4.269   9.098   7.718  0.1892 -1.2510 -1.1432
54154SOL     OW67146  10.671   2.156   6.368 -0.1842  0.1792 -0.0853
54154SOL    HW167147  10.751   2.138   6.416 -1.1349 -1.9452  0.8444
54154SOL    HW267148  10.668   2.090   6.299 -1.0313  0.3367 -0.2197
54155SOL     OW67149   9.353   1.141   8.359 -0.0536  0.3728 -0.1162
54155SOL    HW167150   9.387   1.089   8.432 -0.8042 -0.4847 -0.3615
54155SOL    HW267151   9.382   1.230   8.378  0.4804  0.0229  0.7889
54156SOL     OW67152   7.274   2.328   3.463  0.0704  0.0604  0.1903
54156SOL    HW167153   7.207   2.386   3.499  2.0881  1.8789  1.1939
54156SOL    HW267154   7.316   2.379   3.394  0.8471 -0.8177 -0.0143
54157SOL     OW67155   6.779   3.464   0.344  0.7719 -1.0740 -0.1194
54157SOL    HW167156   6.797   3.423   0.429  1.1036  1.5431  1.1980
54157SOL    HW267157   6.692   3.505   0.356  0.7188 -0.8709 -1.1188
54158SOL     OW67158   6.353   4.957   4.901  0.1168  0.5882  0.2414
54158SOL    HW167159   6.345   4.964   4.996 -0.6866  1.0606  0.1559
54158SOL    HW267160   6.318   4.870   4.881  0.4161  0.4338  0.3942
54159SOL     OW67161   2.352   6.450   2.476 -0.5420 -0.0321 -0.3166
54159SOL    HW167162   2.384   6.403   2.399 -0.6134 -0.4919 -0.0689
54159SOL    HW267163   2.423   6.445   2.539 -0.9850 -0.8042  0.1288
54160SOL     OW67164  10.969   7.761   1.818 -0.7265  0.1270  0.0299
54160SOL    HW167165  11.043   7.718   1.861 -0.8282 -0.2168 -0.1400
54160SOL    HW267166  10.903   7.693   1.809 -0.5185  0.0615 -1.1411
54161SOL     OW67167   6.755   6.847   9.565 -0.1930 -0.0939  0.3132
54161SOL    HW167168   6.850   6.849   9.555 -0.3677 -0.1373 -1.7741
54161SOL    HW267169   6.730   6.758   9.539 -0.8587  0.1057  0.2479
54162SOL     OW67170  11.020   2.241   4.520 -0.3428  0.4286 -0.5267
54162SOL    HW167171  10.933   2.224   4.556 -0.6265  0.1979 -1.3035
54162SOL    HW267172  11.004   2.294   4.442  0.2543  0.7891 -0.4178
54163SOL     OW67173  10.529   4.433   1.443 -0.2145 -0.2714 -0.3293
54163SOL    HW167174  10.536   4.514   1.493 -0.3906 -1.3686  1.5636
54163SOL    HW267175  10.447   4.393   1.474  0.5900 -1.8519 -0.1469
54164SOL     OW67176   2.270  10.516   5.774  0.6796 -0.3631  0.0185
54164SOL    HW167177   2.181  10.509   5.806  0.9774  1.8185  1.5326
54164SOL    HW267178   2.323  10.533   5.853  2.1869 -0.0164 -1.0165
54165SOL     OW67179   3.161   3.496  11.247 -0.1980 -0.1736 -0.7053
54165SOL    HW167180   3.254   3.483  11.264 -0.7479 -2.2828  1.2868
54165SOL    HW267181   3.131   3.554  11.317 -0.7078 -1.1125 -0.1185
54166SOL     OW67182   9.187   4.703  11.034  0.5358 -0.3378 -0.1083
54166SOL    HW167183   9.189   4.795  11.008  1.7916 -0.4111 -0.3149
54166SOL    HW267184   9.206   4.703  11.128  0.4219 -0.3782 -0.0852
54167SOL     OW67185   9.943   2.528   8.080  0.2159  0.5060 -0.8279
54167SOL    HW167186   9.962   2.464   8.011 -2.2859  1.8823 -2.9688
54167SOL    HW267187  10.021   2.583   8.083  1.1912 -0.8021 -1.0585
54168SOL     OW67188   6.020   0.449  10.721 -0.0149  0.3674 -0.5908
54168SOL    HW167189   6.008   0.397  10.642  0.0633  0.5019 -0.6912
54168SOL    HW267190   5.973   0.531  10.704 -2.2708 -0.6209  0.5253
54169SOL     OW67191  10.745   9.967   9.546  0.8915 -0.7023  0.6547
54169SOL    HW167192  10.776  10.053   9.518  1.9258 -0.8508  1.2901
54169SOL    HW267193  10.675   9.985   9.609  0.4173 -0.3487  0.0373
54170SOL     OW67194   3.752  11.666  10.885  0.0126 -0.2737  0.3508
54170SOL    HW167195   3.739  11.759  10.871  0.5561 -0.4341 -1.5811
54170SOL    HW267196   3.847  11.656  10.897 -0.2028 -0.4287  2.1562
54171SOL     OW67197   5.138   5.998   1.879  0.6367  0.0865 -0.1811
54171SOL    HW167198   5.176   6.086   1.878  0.4574  0.2178 -2.4635
54171SOL    HW267199   5.043   6.013   1.871  0.4593 -0.3062  1.0433
54172SOL     OW67200   4.323   9.292  10.504  0.5057  0.3512  0.2261
54172SOL    HW167201   4.338   9.340  10.423 -1.0877  1.4953  0.5444
54172SOL    HW267202   4.336   9.357  10.573 -0.7318  0.0917  0.7303
54173SOL     OW67203   9.216   1.442   4.558 -0.3115 -0.2118  0.8799
54173SOL    HW167204   9.235   1.368   4.617  2.5828  0.1012  0.4969
54173SOL    HW267205   9.302   1.482   4.542 -1.3538  1.2593 -1.5426
54174SOL     OW67206   2.636   8.752   8.711  0.5477 -0.1701 -0.0813
54174SOL    HW167207   2.666   8.838   8.741 -0.2545  0.1767 -0.2550
54174SOL    HW267208   2.609   8.766   8.621 -0.4584 -0.3826  0.1732
54175SOL     OW67209  11.475   5.359   1.436 -0.2149  0.6870  0.1153
54175SOL    HW167210  11.425   5.319   1.365  1.2443 -0.6948 -0.1852
54175SOL    HW267211  11.557   5.310   1.438 -0.2910  0.5475  2.9153
54176SOL     OW67212   7.810   4.931   3.493 -0.1250  0.7410 -0.1740
54176SOL    HW167213   7.827   4.939   3.587  1.7207  0.0737 -0.4226
54176SOL    HW267214   7.748   5.001   3.474 -0.7854  0.6919  1.5908
54177SOL     OW67215  10.310   7.869  11.353 -0.6288 -0.2233 -0.2579
54177SOL    HW167216  10.331   7.821  11.273 -2.4544 -0.9345 -0.3491
54177SOL    HW267217  10.290   7.802  11.418 -1.2793  0.3782  0.1831
54178SOL     OW67218   0.660   6.625   5.142 -0.2609  0.0704  0.1927
54178SOL    HW167219   0.729   6.673   5.188 -0.1205  0.0298  0.0263
54178SOL    HW267220   0.667   6.535   5.175 -0.3848  0.1158  0.3454
54179SOL     OW67221   5.472   8.956   8.706 -0.4876  0.4333  0.4160
54179SOL    HW167222   5.498   9.040   8.741  0.3978  0.1802  0.3911
54179SOL    HW267223   5.551   8.922   8.663 -0.7488 -0.5179  0.6541
54180SOL     OW67224  11.172   3.599   4.827  0.3676  0.3619  0.3603
54180SOL    HW167225  11.229   3.654   4.773  1.1818  0.4045  1.2289
54180SOL    HW267226  11.161   3.649   4.909 -2.3504  1.1630 -0.3933
54181SOL     OW67227   8.370   3.100  10.298  0.3034  0.2387  0.4693
54181SOL    HW167228   8.365   3.059  10.212 -1.3088 -0.3189  0.7854
54181SOL    HW267229   8.376   3.194  10.281 -3.4134  0.5068 -0.3741
54182SOL     OW67230   1.164  11.878   0.838  0.6961 -0.4130  0.1831
54182SOL    HW167231   1.217  11.918   0.768  1.2805 -2.6471 -0.7510
54182SOL    HW267232   1.228  11.859   0.907  0.2777  0.9381  0.9758
54183SOL     OW67233   0.900   6.432   4.113  0.6669  0.3046  1.0633
54183SOL    HW167234   0.975   6.456   4.059  0.3751  0.9951  0.9613
54183SOL    HW267235   0.915   6.475   4.197  0.4208  0.3824  1.0687
54184SOL     OW67236   3.261   4.856   5.107  0.2941 -0.0849  0.5931
54184SOL    HW167237   3.177   4.817   5.131 -1.1249  2.2364 -0.2513
54184SOL    HW267238   3.296   4.797   5.039 -0.8963 -0.8104  0.5852
54185SOL     OW67239   3.267   0.811   1.401 -0.1669 -0.2469  0.5852
54185SOL    HW167240   3.234   0.722   1.409 -0.5837 -0.1193  0.3582
54185SOL    HW267241   3.188   0.864   1.389 -0.0193  0.2995  1.8498
54186SOL     OW67242  10.212   4.755   4.541  0.7227  0.0689 -0.1483
54186SOL    HW167243  10.270   4.716   4.476  0.5422  0.7244 -0.7181
54186SOL    HW267244  10.271   4.792   4.607  0.9310  0.1062 -0.3549
54187SOL     OW67245   4.634   0.638   5.440  0.1473 -0.0016  0.4855
54187SOL    HW167246   4.632   0.598   5.527  0.5249 -0.2413  0.3833
54187SOL    HW267247   4.717   0.610   5.402  0.9406  1.7273  0.8144
54188SOL     OW67248   1.565   6.667  10.741  0.0375  0.7323  0.3880
54188SOL    HW167249   1.563   6.596  10.805  0.6938  0.8914  0.5848
54188SOL    HW267250   1.531   6.627  10.661 -0.5539  0.4648  0.7606
54189SOL     OW67251   9.456   8.241  11.834 -0.2506 -0.7799  0.6162
54189SOL    HW167252   9.477   8.321  11.882  1.8271 -1.3716  0.7828
54189SOL    HW267253   9.466   8.170  11.897  2.2956 -1.5460 -0.5025
54190SOL     OW67254   1.984   9.747   2.555  0.2230 -0.1896  0.5533
54190SOL    HW167255   1.956   9.791   2.475  2.6666 -0.8631 -0.7657
54190SOL    HW267256   1.995   9.818   2.619  0.3404  0.6279 -0.3551
54191SOL     OW67257   4.363   8.898   3.945  0.8028 -0.2369 -0.0046
54191SOL    HW167258   4.437   8.860   3.898  1.0100  0.0507  0.0885
54191SOL    HW267259   4.292   8.898   3.881  1.0319 -0.0184 -0.2628
54192SOL     OW67260   3.616   2.140   0.117 -0.2615 -0.7566 -1.0664
54192SOL    HW167261   3.599   2.207   0.051  1.9459  0.0457 -0.9066
54192SOL    HW267262   3.663   2.186   0.186 -1.4883 -1.8375  0.5543
54193SOL     OW67263   1.596   9.377  10.184  0.3388  0.2848 -0.9388
54193SOL    HW167264   1.565   9.286  10.187  0.8158  0.0511 -2.2486
54193SOL    HW267265   1.586   9.409  10.273 -0.9850 -0.6736 -0.7059
54194SOL     OW67266   1.881   9.954   0.558  0.6432  0.1348 -0.2184
54194SOL    HW167267   1.798   9.971   0.513 -1.1125  0.9236  3.0479
54194SOL    HW267268   1.922   9.885   0.506 -3.0079 -1.7857 -0.8722
54195SOL     OW67269   5.016   2.852   7.526  0.1723  0.2903 -0.4609
54195SOL    HW167270   5.019   2.880   7.617 -1.2098  0.1811 -0.3694
54195SOL    HW267271   5.071   2.774   7.523  0.3424  0.3799  0.2424
54196SOL     OW67272   5.505   4.999  11.783 -0.4374 -0.0367  0.0337
54196SOL    HW167273   5.579   5.054  11.758 -0.7906  0.8107  0.8052
54196SOL    HW267274   5.513   4.989  11.878 -1.2227 -0.0707  0.1000
54197SOL     OW67275   0.018   5.353   8.750  0.2949 -0.2259 -0.5964
54197SOL    HW167276   0.085   5.346   8.681 -1.3666  1.9616 -2.5749
54197SOL    HW267277  -0.013   5.263   8.761  1.0934 -0.7522 -2.2000
54198SOL     OW67278   4.437  11.538   1.560  0.5301  0.2514  0.8489
54198SOL    HW167279   4.407  11.543   1.469  1.4324 -1.3606  0.4357
54198SOL    HW267280   4.532  11.541   1.555  0.6592 -1.4739  1.5878
54199SOL     OW67281   7.673   3.155   0.584  0.0324 -0.6541 -0.3968
54199SOL    HW167282   7.602   3.159   0.520  0.7170  2.2764 -1.1536
54199SOL    HW267283   7.653   3.226   0.646  2.1477  0.1696 -0.5568
54200SOL     OW67284   9.196  10.057  11.220 -0.0048 -0.5478 -0.9407
54200SOL    HW167285   9.281  10.055  11.264  0.0149  0.4080 -0.9091
54200SOL    HW267286   9.159   9.970  11.235  1.7648 -1.6474 -2.5548
54201SOL     OW67287   4.475   3.843   6.638 -0.3058 -0.0933 -0.7851
54201SOL    HW167288   4.504   3.790   6.713 -0.0281 -0.2687 -1.0121
54201SOL    HW267289   4.508   3.930   6.656  0.5044 -0.3297 -1.1202
54202SOL     OW67290   4.502   0.294   6.015  0.2532 -0.0956 -0.1166
54202SOL    HW167291   4.586   0.249   6.007  1.1488  1.5190 -0.1827
54202SOL    HW267292   4.456   0.248   6.086  1.3284 -0.7932  0.1433
54203SOL     OW67293   5.310   2.789   5.808 -0.3438  0.3523  0.2470
54203SOL    HW167294   5.276   2.728   5.743 -0.0541 -0.8251  1.1575
54203SOL    HW267295   5.391   2.822   5.770 -1.3847  1.5672 -1.0244
54204SOL     OW67296   9.148   0.052   4.456 -0.2182  0.6048 -0.3160
54204SOL    HW167297   9.202   0.119   4.499 -1.3260  1.1977  0.1863
54204SOL    HW267298   9.207   0.011   4.393  0.0915  3.2607 -1.9438
54205SOL     OW67299   5.947   3.158   6.042 -0.1732  0.1134  0.2131
54205SOL    HW167300   5.901   3.077   6.066  1.1127 -0.1388  2.0596
54205SOL    HW267301   5.974   3.144   5.951 -1.4706 -0.7918 -0.0588
54206SOL     OW67302   1.139   7.005   5.133 -0.6671  0.6977 -0.1884
54206SOL    HW167303   1.187   7.010   5.050 -2.1086  0.1283 -1.0799
54206SOL    HW267304   1.138   6.912   5.155 -1.2441  0.7147 -0.1199
54207SOL     OW67305  11.954   9.197   2.719 -0.0985 -0.1079  0.1928
54207SOL    HW167306  11.930   9.275   2.669 -1.5419 -0.0878  0.8578
54207SOL    HW267307  11.955   9.127   2.654  3.5206  0.7452 -0.8784
54208SOL     OW67308  10.187  10.555  10.129  0.4546  0.4969 -0.4124
54208SOL    HW167309  10.189  10.482  10.190  1.3307 -0.5726 -1.6585
54208SOL    HW267310  10.206  10.632  10.183  0.6959 -0.3447  0.7397
54209SOL     OW67311   9.892  11.017   0.765 -0.3828 -0.8253  0.1342
54209SOL    HW167312   9.913  10.941   0.820 -0.9688 -1.3953 -0.4177
54209SOL    HW267313   9.843  10.981   0.691  1.5436 -0.2937 -1.5120
54210SOL     OW67314  10.917   3.772   2.426  0.4742  0.2854  0.5323
54210SOL    HW167315  10.856   3.699   2.439  0.4076  0.4212  1.0167
54210SOL    HW267316  10.870   3.848   2.460  0.3252  0.6558 -0.4777
54211SOL     OW67317   0.470  10.804   6.451 -0.6458 -0.1013 -0.8577
54211SOL    HW167318   0.448  10.790   6.544  0.4340  0.5752 -0.4858
54211SOL    HW267319   0.523  10.883   6.451 -1.2034  0.3011 -2.1512
54212SOL     OW67320   2.051   8.511   5.899  0.0444  0.9104 -0.5283
54212SOL    HW167321   2.070   8.455   5.823  1.1668  0.8841 -0.2445
54212SOL    HW267322   1.993   8.578   5.864 -0.6472  0.0578 -1.0676
54213SOL     OW67323   5.077   5.907   7.048 -0.1585  0.2087  0.3341
54213SOL    HW167324   5.071   5.884   7.141  0.0994 -1.1896  0.0352
54213SOL    HW267325   5.064   5.824   7.002 -1.1494  1.0278 -0.9206
54214SOL     OW67326   2.972   2.117   2.437  0.1069  0.1563  0.7731
54214SOL    HW167327   3.041   2.182   2.445 -1.2966  1.7135  0.6966
54214SOL    HW267328   3.014   2.042   2.395  1.1962  1.9439 -1.4802
54215SOL     OW67329   4.256   2.763   8.330 -0.3420 -0.5681  0.4726
54215SOL    HW167330   4.204   2.800   8.259  0.2568 -0.1462  0.2401
54215SOL    HW267331   4.194   2.752   8.402 -0.6099  0.5952  0.4414
54216SOL     OW67332  10.414   7.698   0.352  0.0830  0.1149  0.2278
54216SOL    HW167333  10.505   7.682   0.325  0.0572  1.5952 -0.8439
54216SOL    HW267334  10.362   7.674   0.276 -0.2894  0.7580  0.2725
54217SOL     OW67335   3.753   0.721  11.754  0.4450 -0.2713 -0.0487
54217SOL    HW167336   3.802   0.797  11.723  0.1856  1.3241  3.0842
54217SOL    HW267337   3.667   0.730  11.712  1.0911 -0.1188 -1.4013
54218SOL     OW67338   3.900   5.055   8.925  0.2190 -0.0434 -0.4988
54218SOL    HW167339   3.854   5.101   8.855  0.7483 -2.0355 -2.2751
54218SOL    HW267340   3.832   5.036   8.990 -0.9894 -0.8067 -1.9272
54219SOL     OW67341   2.364  11.273  11.882  0.2363  0.3917  0.1314
54219SOL    HW167342   2.436  11.312  11.831  0.8461  0.1849  0.8200
54219SOL    HW267343   2.297  11.342  11.885  0.5118  0.6864 -0.2848
54220SOL     OW67344   2.439   4.302  11.883 -0.0952  0.1367  0.9372
54220SOL    HW167345   2.344   4.293  11.885 -0.0094 -0.9716  0.6902
54220SOL    HW267346   2.455   4.385  11.837 -0.9303 -0.0688  0.2573
54221SOL     OW67347   1.358  11.482  11.156 -0.0623 -0.2851 -0.3285
54221SOL    HW167348   1.409  11.558  11.185  0.3696 -0.0807 -1.5595
54221SOL    HW267349   1.269  11.501  11.185  0.1902  0.2915  0.1063
54222SOL     OW67350  10.139  10.493   4.653 -0.0602 -0.0693  0.3469
54222SOL    HW167351  10.191  10.413   4.664  0.0016  0.0188  0.7066
54222SOL    HW267352  10.203  10.562   4.638 -0.1710 -0.3017 -1.3070
54223SOL     OW67353   6.011   2.318   0.249 -0.3380 -0.0317  0.2124
54223SOL    HW167354   5.999   2.301   0.156  0.5245  0.1987  0.0601
54223SOL    HW267355   5.926   2.295   0.288 -1.2871  1.5209 -0.8453
54224SOL     OW67356  11.779  10.631  10.353 -0.0679 -0.1452 -0.0862
54224SOL    HW167357  11.812  10.686  10.283 -0.4368 -0.6135 -0.6357
54224SOL    HW267358  11.843  10.641  10.424  0.9544 -0.5884 -0.9191
54225SOL     OW67359   3.828   1.678  10.816  0.2860  0.3398 -0.2213
54225SOL    HW167360   3.897   1.674  10.750  0.3433  0.0325 -0.1449
54225SOL    HW267361   3.749   1.648  10.770  0.8390 -2.6228  0.5159
54226SOL     OW67362   7.364   5.450   1.296 -0.1075 -0.5938 -0.3005
54226SOL    HW167363   7.320   5.520   1.344 -2.1515 -0.8632 -1.6624
54226SOL    HW267364   7.431   5.418   1.357 -1.1018  0.5472  1.4817
54227SOL     OW67365   3.046   8.007  10.291 -0.3699  0.2714 -0.2718
54227SOL    HW167366   2.994   8.017  10.371 -1.2632  0.7588 -0.8980
54227SOL    HW267367   2.981   8.004  10.220  0.4299  0.3536 -1.0250
54228SOL     OW67368   9.269   7.554   8.813 -0.3180  0.4064 -0.0950
54228SOL    HW167369   9.244   7.585   8.726 -2.4345 -0.8332  0.0088
54228SOL    HW267370   9.335   7.487   8.797  0.7132  1.5141 -0.6024
54229SOL     OW67371   0.638  10.922   2.793  0.0714  0.4071 -0.0223
54229SOL    HW167372   0.687  10.911   2.711  0.6583  1.0705  0.2302
54229SOL    HW267373   0.584  10.843   2.799 -0.2519  0.5156 -1.2308
54230SOL     OW67374   4.305   0.261   9.733  0.0646  0.1142  0.4504
54230SOL    HW167375   4.304   0.340   9.679  1.6020  0.6163  1.0838
54230SOL    HW267376   4.341   0.193   9.676  1.1036  0.4957  0.6205
54231SOL     OW67377   4.481  11.681  11.370  0.4316  0.3427  0.1535
54231SOL    HW167378   4.486  11.601  11.422 -0.1697 -0.2120 -0.6198
54231SOL    HW267379   4.491  11.652  11.280  1.4806  1.2939 -0.0650
54232SOL     OW67380   4.610   0.508   0.096 -0.3635  0.1335  0.1586
54232SOL    HW167381   4.596   0.441   0.029  0.5637 -1.4062  1.4159
54232SOL    HW267382   4.681   0.562   0.063 -1.3297  0.7367 -1.0106
54233SOL     OW67383   4.658   8.150   5.397  0.1063  0.0635 -0.3978
54233SOL    HW167384   4.579   8.201   5.380 -0.5902 -1.5112 -2.1491
54233SOL    HW267385   4.725   8.189   5.341 -0.5242 -1.0883 -2.0267
54234SOL     OW67386   5.982   7.046   7.410  0.5793  0.5502 -0.2115
54234SOL    HW167387   6.022   7.070   7.327  0.4510  0.8463 -0.1923
54234SOL    HW267388   5.971   6.951   7.406  1.2107  0.4756 -0.2448
54235SOL     OW67389   8.674   0.471   6.601  0.3144 -0.0069  0.3667
54235SOL    HW167390   8.691   0.522   6.680  0.2684 -0.2363  0.5233
54235SOL    HW267391   8.594   0.423   6.621  0.2298  0.0348  0.1322
54236SOL     OW67392   0.080   2.906   8.804 -0.0725 -0.2433 -0.0278
54236SOL    HW167393   0.019   2.926   8.875  0.1195  0.8855 -0.1571
54236SOL    HW267394   0.091   2.990   8.758  2.1735 -0.2121  0.4582
54237SOL     OW67395   4.412  10.793   6.804  0.6396  0.3340 -0.4292
54237SOL    HW167396   4.485  10.805   6.743 -1.4075  3.7884 -2.5588
54237SOL    HW267397   4.388  10.701   6.795  3.6168 -0.5046 -0.8780
54238SOL     OW67398   8.080   8.572   1.139 -0.1870 -0.0431  0.0689
54238SOL    HW167399   8.113   8.504   1.080 -1.1724  0.0373 -0.6033
54238SOL    HW267400   8.008   8.530   1.187  1.0573 -0.3238  1.7786
54239SOL     OW67401  10.287   1.618   2.887  0.2404 -0.3158 -0.4400
54239SOL    HW167402  10.300   1.625   2.792 -2.1679 -1.4015 -0.9389
54239SOL    HW267403  10.276   1.524   2.903  1.8364 -0.2825  1.1479
54240SOL     OW67404   8.383   1.769   9.354  0.4853  0.4861 -0.4202
54240SOL    HW167405   8.443   1.801   9.287  0.6537  2.0596  0.4177
54240SOL    HW267406   8.327   1.845   9.375  1.6206  0.6739  2.4658
54241SOL     OW67407   7.024  11.458   6.794 -0.2296  0.0366 -0.8397
54241SOL    HW167408   6.934  11.433   6.773 -0.1334 -0.1635 -1.0168
54241SOL    HW267409   7.016  11.545   6.835 -0.5676 -0.2764 -0.2183
54242SOL     OW67410   6.205   2.287   7.721 -0.1093 -0.8267 -0.0793
54242SOL    HW167411   6.136   2.234   7.682 -1.0903  0.5255 -0.2488
54242SOL    HW267412   6.162   2.332   7.794  0.5149  0.2265 -0.3443
54243SOL     OW67413  11.863   5.959   5.877 -0.0218 -0.3717 -0.2925
54243SOL    HW167414  11.935   5.900   5.899 -1.0993 -1.2308  1.1404
54243SOL    HW267415  11.902   6.046   5.881  1.7883 -0.9158 -3.1935
54244SOL     OW67416   5.799   1.113   0.246  0.1326  0.3214 -0.2445
54244SOL    HW167417   5.795   1.148   0.157 -1.6291  0.3055 -0.2051
54244SOL    HW267418   5.867   1.046   0.243  1.0035  1.2290 -1.2408
54245SOL     OW67419   0.767   6.663   3.812  0.3543 -0.9441  0.1722
54245SOL    HW167420   0.674   6.683   3.805  0.7859  1.1169 -0.2883
54245SOL    HW267421   0.779   6.584   3.760 -1.4939 -2.6321  2.1222
54246SOL     OW67422   8.992   7.431   7.147  0.2292  0.3259  0.0921
54246SOL    HW167423   8.955   7.398   7.229 -3.9329 -2.4412 -2.5450
54246SOL    HW267424   9.073   7.380   7.136  0.6735  0.4746  2.1648
54247SOL     OW67425   6.077  11.129   9.085 -0.1463  0.2141  0.3718
54247SOL    HW167426   6.139  11.072   9.040 -1.5646 -0.8488 -0.3043
54247SOL    HW267427   6.023  11.069   9.137  1.2885  1.3552  3.4575
54248SOL     OW67428   0.955   8.441  11.327  0.2162 -0.0567  0.0508
54248SOL    HW167429   0.949   8.452  11.232 -2.4319  1.3454  0.3063
54248SOL    HW267430   0.894   8.369  11.347 -0.3845  0.6484  0.8177
54249SOL     OW67431   0.428   0.262   9.913 -0.1345 -0.3718  0.1063
54249SOL    HW167432   0.399   0.300   9.830  1.3149  1.2161  0.2534
54249SOL    HW267433   0.357   0.204   9.940 -2.2538  1.7889 -0.4984
54250SOL     OW67434   2.747   3.880   1.228  0.1971 -0.3430 -0.2893
54250SOL    HW167435   2.833   3.860   1.190  0.6446 -0.8268  0.9120
54250SOL    HW267436   2.756   3.971   1.260 -0.1899  0.0750 -1.3429
54251SOL     OW67437  10.632   1.092   4.138  0.3477  0.1338  0.3318
54251SOL    HW167438  10.568   1.059   4.075 -0.4637  0.3912  1.0045
54251SOL    HW267439  10.696   1.022   4.146  0.1509 -0.1325 -0.3471
54252SOL     OW67440   0.859   1.762   0.862 -0.1589  0.8830 -0.0189
54252SOL    HW167441   0.799   1.812   0.919 -0.4295  0.6394 -0.0842
54252SOL    HW267442   0.846   1.671   0.889 -0.7690  0.6921 -0.9064
54253SOL     OW67443  10.754   8.060   2.263 -0.0333  0.2206 -0.2246
54253SOL    HW167444  10.841   8.052   2.303  0.5116 -2.4485 -1.7050
54253SOL    HW267445  10.762   8.134   2.204  1.0520  0.3963  0.1062
54254SOL     OW67446   1.613   5.048   8.023  0.2541 -0.0992  0.3673
54254SOL    HW167447   1.645   5.048   7.932 -0.4396  1.0555  0.0927
54254SOL    HW267448   1.588   5.139   8.039 -1.1434 -0.5950  1.1782
54255SOL     OW67449   0.459   6.821   6.182 -0.2177 -0.3328  0.4254
54255SOL    HW167450   0.457   6.795   6.274 -0.7897  1.2492  0.9086
54255SOL    HW267451   0.430   6.913   6.183 -1.6520 -0.7008 -1.4866
54256SOL     OW67452   7.824  10.071   0.157 -0.2933  0.0954  0.2116
54256SOL    HW167453   7.906  10.086   0.109 -0.4167  2.3960  0.6284
54256SOL    HW267454   7.756  10.106   0.100 -0.8130 -0.2694  0.5958
54257SOL     OW67455   3.693   6.334   3.036 -0.7980 -0.3541  0.3454
54257SOL    HW167456   3.768   6.337   2.977  1.0445 -0.8940  2.5522
54257SOL    HW267457   3.656   6.422   3.033 -1.3673 -0.5996 -2.2560
54258SOL     OW67458   6.092   7.590   2.319 -0.5418  0.3163  0.1063
54258SOL    HW167459   6.004   7.580   2.285  0.1953  0.2512 -1.9277
54258SOL    HW267460   6.109   7.684   2.318 -0.3384  0.2785 -0.2073
54259SOL     OW67461   7.930  11.422   3.556  0.6251  0.2370  0.2825
54259SOL    HW167462   7.844  11.415   3.597  0.0647  0.4024 -0.8439
54259SOL    HW267463   7.991  11.398   3.626 -0.4325 -1.9278  0.5500
54260SOL     OW67464   4.506   2.692   9.759 -0.0854  0.2559  0.2739
54260SOL    HW167465   4.431   2.635   9.774 -0.0781  0.0625 -0.4007
54260SOL    HW267466   4.471   2.767   9.711  0.0159  0.5391  0.6334
54261SOL     OW67467   5.017   6.987   0.108  0.4616 -0.1237  0.1191
54261SOL    HW167468   5.026   6.971   0.014  1.1875  0.6070  0.0492
54261SOL    HW267469   5.095   7.038   0.131 -0.5288  1.1786  0.7683
54262SOL     OW67470   2.328   1.424   6.431 -0.7427  0.2986  0.0385
54262SOL    HW167471   2.414   1.387   6.450 -0.4106  0.4277 -1.1422
54262SOL    HW267472   2.306   1.473   6.510  1.0191  1.6451 -0.2395
54263SOL     OW67473   6.670   5.747   0.231 -0.3179  0.2067  0.2257
54263SOL    HW167474   6.751   5.797   0.240 -0.1798  0.1960 -0.8895
54263SOL    HW267475   6.629   5.752   0.318  1.5559 -0.9812  1.2518
54264SOL     OW67476  11.365   0.269   5.309 -0.5031 -0.6532  0.6078
54264SOL    HW167477  11.417   0.234   5.381  2.6723 -0.6050 -1.4508
54264SOL    HW267478  11.398   0.223   5.231 -2.7172  0.3561 -1.0559
54265SOL     OW67479   0.736   3.308  11.696 -0.1771  0.6429  0.1454
54265SOL    HW167480   0.815   3.346  11.657  0.6788 -1.0463  0.1575
54265SOL    HW267481   0.761   3.218  11.717 -1.7321  0.4567  1.3160
54266SOL     OW67482   2.463   0.028   8.300  0.5824  0.0791 -0.5416
54266SOL    HW167483   2.401  -0.042   8.283  0.0070  1.1602 -3.5858
54266SOL    HW267484   2.423   0.079   8.371 -0.3699 -1.0714 -0.2268
54267SOL     OW67485   9.588   3.315  11.796 -0.2722  0.0845 -0.0965
54267SOL    HW167486   9.613   3.230  11.759 -0.7476 -0.6940  1.3179
54267SOL    HW267487   9.616   3.310  11.887 -1.0761  1.1271  0.2145
54268SOL     OW67488   7.651   2.871   5.279 -0.0492  0.1295  0.4238
54268SOL    HW167489   7.673   2.931   5.208 -0.5925 -1.5036 -1.2079
54268SOL    HW267490   7.734   2.830   5.303 -0.0055  0.0095  0.0743
54269SOL     OW67491   5.201   0.677   9.020  0.5711  0.1148  0.3172
54269SOL    HW167492   5.289   0.684   8.983 -0.0547  2.0889 -0.9125
54269SOL    HW267493   5.193   0.751   9.078 -0.8994  1.0921 -1.0448
54270SOL     OW67494   7.119   0.859   4.397 -0.5935  0.0239  0.1696
54270SOL    HW167495   7.164   0.929   4.445 -1.8923 -0.1942  1.8300
54270SOL    HW267496   7.184   0.790   4.388  0.5099  1.1657 -0.8954
54271SOL     OW67497   1.060   0.965  11.420  0.0734 -0.2345  0.0959
54271SOL    HW167498   1.121   0.929  11.355 -1.8687 -0.6335 -1.6488
54271SOL    HW267499   1.113   0.983  11.497  2.0274 -2.3220 -0.6607
54272SOL     OW67500   2.508  10.256   0.076  0.1331 -0.5794  0.2166
54272SOL    HW167501   2.549  10.270   0.161  1.7038 -0.7073 -0.4992
54272SOL    HW267502   2.556  10.313   0.017 -1.2636 -0.1183 -0.5290
54273SOL     OW67503   1.370   0.216  11.510  0.0674 -0.3132  0.5014
54273SOL    HW167504   1.398   0.230  11.600  0.8230 -0.7946  0.3498
54273SOL    HW267505   1.276   0.200  11.516  0.1860 -0.7815  1.2555
54274SOL     OW67506   7.903  11.913  10.787 -0.8972  0.2964 -0.1413
54274SOL    HW167507   7.870  11.908  10.877 -0.7510  0.5035 -0.0746
54274SOL    HW267508   7.882  11.828  10.749 -0.4642  0.0063  0.2590
54275SOL     OW67509  11.323   6.179   9.240  0.2912 -0.0101 -0.4049
54275SOL    HW167510  11.313   6.118   9.313 -2.1892  1.3748  0.5545
54275SOL    HW267511  11.387   6.243   9.271 -0.0419  0.0341  0.2264
54276SOL     OW67512   6.092   6.928   5.085 -0.1799  0.4896  0.3904
54276SOL    HW167513   5.999   6.927   5.107 -0.3265 -1.0782 -0.1616
54276SOL    HW267514   6.112   6.837   5.064  1.2511  0.9735 -0.4430
54277SOL     OW67515   3.797  11.558   6.321 -0.0553 -0.1964  0.0169
54277SOL    HW167516   3.707  11.557   6.353 -0.3318  1.3472 -0.6364
54277SOL    HW267517   3.801  11.633   6.262  1.7918  0.0491  0.3898
54278SOL     OW67518   2.559  11.908   9.389  0.4210 -0.1300  0.2679
54278SOL    HW167519   2.595  11.834   9.437 -0.8166 -1.8982 -1.3640
54278SOL    HW267520   2.622  11.924   9.319 -0.7420 -1.7788 -1.2561
54279SOL     OW67521   4.139   1.417   2.959  0.0573 -0.3342 -0.6423
54279SOL    HW167522   4.046   1.397   2.970 -0.2294  0.6304 -1.2255
54279SOL    HW267523   4.165   1.369   2.880 -0.6478  1.5398 -2.0809
54280SOL     OW67524  11.130   5.971   7.675 -0.3555 -0.0301 -0.4502
54280SOL    HW167525  11.221   5.998   7.689 -0.8927  1.6030  0.1056
54280SOL    HW267526  11.107   6.008   7.590 -0.5156 -0.4429 -0.5886
54281SOL     OW67527   0.506   9.675   7.988 -0.9883  0.6004  0.1540
54281SOL    HW167528   0.489   9.594   7.939 -2.0552  1.2948 -0.6801
54281SOL    HW267529   0.426   9.690   8.039 -1.7891  2.3139 -1.4783
54282SOL     OW67530  10.508   6.751   2.124 -0.4074  0.0529  0.0272
54282SOL    HW167531  10.516   6.846   2.118 -0.8852  0.0659 -0.5105
54282SOL    HW267532  10.471   6.735   2.211 -0.4948  0.3713  0.0500
54283SOL     OW67533   3.712   5.555   9.436 -0.4585  0.1074 -0.1063
54283SOL    HW167534   3.765   5.633   9.451 -0.6286  0.0161  1.0448
54283SOL    HW267535   3.683   5.563   9.345  1.2938  0.2885 -0.6864
54284SOL     OW67536   7.668   1.915   7.341  0.3297  0.1244  0.2448
54284SOL    HW167537   7.610   1.947   7.410  0.6555 -0.6606  0.8998
54284SOL    HW267538   7.750   1.962   7.356  0.3520  0.0697  0.2950
54285SOL     OW67539   4.461   3.936   9.801  0.1630 -0.0260  0.4451
54285SOL    HW167540   4.447   3.874   9.730  1.1175  0.2482 -0.0081
54285SOL    HW267541   4.435   4.021   9.764 -0.0284  0.0161  0.6725
54286SOL     OW67542  11.138   6.513   0.963 -0.3149  0.1083  1.0694
54286SOL    HW167543  11.058   6.565   0.971 -0.9622 -0.6597 -0.1387
54286SOL    HW267544  11.209   6.572   0.989 -1.0356  1.5482 -0.1374
54287SOL     OW67545   9.084   5.965   0.737  0.2000 -0.0316  0.2116
54287SOL    HW167546   9.129   6.015   0.669  0.1389  1.4590  1.2187
54287SOL    HW267547   9.032   6.031   0.785  0.6707 -0.9200  2.0298
54288SOL     OW67548   6.566   7.316   4.986 -0.2715  0.4394  0.1212
54288SOL    HW167549   6.550   7.311   4.892 -0.4810 -0.0580  0.1810
54288SOL    HW267550   6.653   7.356   4.993  1.2924 -2.5572 -0.4003
54289SOL     OW67551   2.532   9.623   2.988  0.1429 -0.6043  0.5964
54289SOL    HW167552   2.443   9.593   3.007 -0.3619  0.3326 -0.2208
54289SOL    HW267553   2.564   9.563   2.920  0.2749 -1.1564  1.1383
54290SOL     OW67554   3.240   5.167  11.661  0.4808 -0.6086  0.3896
54290SOL    HW167555   3.192   5.249  11.653  1.2790  0.2008  3.0075
54290SOL    HW267556   3.191   5.105  11.606 -1.6033  0.9704  0.3525
54291SOL     OW67557   7.356   0.090   2.540  0.4993  0.3407 -0.4416
54291SOL    HW167558   7.408   0.089   2.459  1.5207  0.8148  0.1813
54291SOL    HW267559   7.384   0.170   2.585 -1.6261  1.2354 -0.5903
54292SOL     OW67560   2.378   3.313  10.343  0.2264 -0.0009  0.3941
54292SOL    HW167561   2.347   3.319  10.434  0.0330 -1.3812  0.4456
54292SOL    HW267562   2.304   3.345  10.291  0.0198  0.0139  0.6908
54293SOL     OW67563   5.048  11.964   4.555 -0.1256  0.3489  0.5660
54293SOL    HW167564   4.988  12.014   4.611  0.0893  0.8700  0.3303
54293SOL    HW267565   4.992  11.929   4.485 -0.4281 -0.4562  1.1928
54294SOL     OW67566   3.008   5.345  10.952 -0.5488 -0.0449 -0.5223
54294SOL    HW167567   3.027   5.390  11.034 -0.8096  1.4440 -1.2423
54294SOL    HW267568   2.923   5.379  10.924 -0.3943 -0.4084 -1.4968
54295SOL     OW67569  10.110   9.437  11.170 -0.5211 -0.1865  0.1164
54295SOL    HW167570  10.023   9.472  11.151  0.7393  1.8524 -2.5365
54295SOL    HW267571  10.139   9.484  11.248 -0.9668  0.7536 -0.2675
54296SOL     OW67572   8.131   1.802   4.233  0.5708 -0.0425 -0.6395
54296SOL    HW167573   8.063   1.869   4.232  0.7538  0.1398 -0.9917
54296SOL    HW267574   8.091   1.728   4.279 -0.6301 -0.7216 -2.6420
54297SOL     OW67575   9.299   6.078  10.143  0.4478 -0.0400 -1.0271
54297SOL    HW167576   9.264   6.146  10.085  0.0885  0.4672 -0.2210
54297SOL    HW267577   9.283   5.996  10.095 -0.9748  0.2646 -1.1246
54298SOL     OW67578   6.027   9.311  11.706  0.0091  0.0890  0.0280
54298SOL    HW167579   5.968   9.347  11.772  0.8922  0.7320  0.4843
54298SOL    HW267580   5.974   9.303  11.627 -1.1674 -1.0481  0.9028
54299SOL     OW67581   4.766   6.244   9.673 -0.1674 -0.2734  0.5911
54299SOL    HW167582   4.772   6.309   9.743  0.1305 -0.6585  0.9272
54299SOL    HW267583   4.717   6.172   9.711 -2.5360  0.6799 -0.4981
54300SOL     OW67584   1.533   0.553  10.909 -0.3434  0.2736  0.3809
54300SOL    HW167585   1.540   0.524  10.818 -1.4865  0.4751  0.2171
54300SOL    HW267586   1.623   0.550  10.942  0.0288 -0.1693 -0.6383
54301SOL     OW67587   8.242   4.433   0.528  0.4887 -0.2627 -0.1317
54301SOL    HW167588   8.186   4.396   0.459  1.0155 -1.2999 -0.0217
54301SOL    HW267589   8.249   4.363   0.593 -0.4012  0.8725  1.2421
54302SOL     OW67590  10.010  10.547  11.603 -0.1899 -0.4094  0.3962
54302SOL    HW167591   9.986  10.610  11.671  0.0380 -0.5287  0.5875
54302SOL    HW267592  10.028  10.466  11.650  1.0843 -0.1953  0.3327
54303SOL     OW67593   9.931   1.152   0.332 -0.4625 -0.1297 -0.3879
54303SOL    HW167594   9.872   1.211   0.286 -0.8362  0.1331  0.4165
54303SOL    HW267595   9.900   1.152   0.422  1.6084  1.1144  0.3839
54304SOL     OW67596   6.925   3.830   9.062 -0.2012  0.7086 -0.0432
54304SOL    HW167597   6.977   3.753   9.038 -0.8665  0.4766 -0.7898
54304SOL    HW267598   6.983   3.882   9.117  0.9694  0.6348 -1.1508
54305SOL     OW67599   8.372   6.745   3.471  0.2671 -0.0345  0.3416
54305SOL    HW167600   8.400   6.804   3.401 -0.1567  0.6898  0.7752
54305SOL    HW267601   8.316   6.798   3.527  1.3110 -0.3482  1.7361
54306SOL     OW67602   2.057   1.621   2.757 -0.6010  0.5386  0.3477
54306SOL    HW167603   2.072   1.701   2.809  1.6035 -0.0067  0.6456
54306SOL    HW267604   2.105   1.553   2.804 -0.6754 -0.5125 -1.0422
54307SOL     OW67605  11.345   5.363   0.296 -0.1361 -0.3537 -0.0233
54307SOL    HW167606  11.370   5.446   0.256  0.7286  0.2342  1.6628
54307SOL    HW267607  11.258   5.379   0.331 -0.4426 -0.5304 -0.6894
54308SOL     OW67608   1.822   6.308   2.690  0.1177  0.1999  0.5173
54308SOL    HW167609   1.766   6.336   2.763 -1.3178 -0.2984 -0.3405
54308SOL    HW267610   1.838   6.215   2.706  0.8989  0.3843  0.8628
54309SOL     OW67611   4.863   9.999   0.722 -0.0157  0.4716  0.3661
54309SOL    HW167612   4.772  10.009   0.748 -0.4329 -0.1839 -0.7632
54309SOL    HW267613   4.863   9.925   0.661  0.8991  1.8787 -1.4392
54310SOL     OW67614   8.407  10.330   4.274  0.0994 -0.0346 -0.2412
54310SOL    HW167615   8.413  10.235   4.265  0.0222 -0.2161  1.4190
54310SOL    HW267616   8.442  10.364   4.191 -0.1777 -1.4997 -0.9948
54311SOL     OW67617   8.691   7.113   0.845  0.4297  0.3514 -0.4174
54311SOL    HW167618   8.678   7.135   0.753 -1.3601 -1.5479 -0.6794
54311SOL    HW267619   8.642   7.180   0.893  1.6137  1.5191 -0.7764
54312SOL     OW67620   8.875   4.099   4.965  0.4838  0.0830 -0.4848
54312SOL    HW167621   8.842   4.089   4.875 -1.9813  0.6098  0.2727
54312SOL    HW267622   8.896   4.192   4.972  0.3351  0.1110 -0.4100
54313SOL     OW67623   1.374   3.017   6.386  0.5414  0.1372  0.0706
54313SOL    HW167624   1.308   3.002   6.454 -0.0855  1.0064 -0.3234
54313SOL    HW267625   1.345   3.097   6.341  2.2566  0.9835  0.3613
54314SOL     OW67626   8.820   3.885   8.997 -0.3982 -0.0100  0.0130
54314SOL    HW167627   8.842   3.865   9.088 -0.7717 -1.1850 -0.1309
54314SOL    HW267628   8.892   3.848   8.946 -0.5201  0.0471 -0.2020
54315SOL     OW67629   1.275   3.643   7.258 -0.4605 -0.0501 -0.3712
54315SOL    HW167630   1.307   3.631   7.348 -0.2272  0.4512 -0.3845
54315SOL    HW267631   1.345   3.608   7.203 -1.4088 -2.1585 -0.3379
54316SOL     OW67632   9.666  11.031   5.662 -0.0844 -0.6521 -0.3076
54316SOL    HW167633   9.590  11.088   5.675 -0.5573 -1.1991 -0.6093
54316SOL    HW267634   9.720  11.078   5.598  0.2666  0.1405  0.5427
54317SOL     OW67635   8.457  10.486   5.391  0.1752 -0.1865  0.5177
54317SOL    HW167636   8.396  10.469   5.320  1.8453  1.6377 -1.4983
54317SOL    HW267637   8.432  10.573   5.424  0.7854 -0.0502  0.6429
54318SOL     OW67638   9.925   5.904  10.843 -0.2699  0.1830  0.0670
54318SOL    HW167639   9.913   5.965  10.915  1.8305 -0.3647  0.9699
54318SOL    HW267640  10.001   5.852  10.869  0.9878  0.3997 -2.8127
54319SOL     OW67641   9.620   8.149   4.783 -0.6956 -0.7154 -0.3356
54319SOL    HW167642   9.552   8.197   4.736  0.8750  1.3464 -0.6769
54319SOL    HW267643   9.669   8.103   4.714 -0.5905 -0.6562 -0.3005
54320SOL     OW67644   5.289   1.348   9.904  0.5708 -0.3107  0.2683
54320SOL    HW167645   5.290   1.301   9.820  3.6923  0.1482 -0.0589
54320SOL    HW267646   5.200   1.383   9.910 -0.1973 -1.6000 -2.1118
54321SOL     OW67647   9.916   4.331   4.957  0.1099  0.0031 -0.4689
54321SOL    HW167648   9.854   4.287   4.899 -0.5209  0.7629 -0.3922
54321SOL    HW267649   9.968   4.260   4.995 -1.3279 -0.7511  0.1768
54322SOL     OW67650   3.196   7.540   6.072 -0.5984 -0.1031  0.0909
54322SOL    HW167651   3.159   7.624   6.097 -1.6357 -0.0996 -1.3359
54322SOL    HW267652   3.241   7.509   6.150  0.2394  1.9924  0.4909
54323SOL     OW67653   1.166   6.459   0.744 -0.0101 -0.3653 -0.7912
54323SOL    HW167654   1.255   6.425   0.753 -0.0700 -0.0839  1.1092
54323SOL    HW267655   1.111   6.398   0.792 -0.6490  0.2827 -0.6769
54324SOL     OW67656   7.117   5.706  11.887  0.2727  0.0399  0.2535
54324SOL    HW167657   7.119   5.785  11.941  1.7337  0.4218 -0.3213
54324SOL    HW267658   7.072   5.733  11.807 -1.0080 -0.2663  0.8407
54325SOL     OW67659   7.706  10.902   1.536  0.2122  0.9813  0.4474
54325SOL    HW167660   7.719  10.988   1.575  0.0639  0.3168  2.0437
54325SOL    HW267661   7.701  10.842   1.611  1.0055 -0.5092 -0.6359
54326SOL     OW67662   1.370   6.992   7.196 -0.2592 -0.2709 -0.6594
54326SOL    HW167663   1.334   7.033   7.117 -0.7952 -0.8212 -0.7150
54326SOL    HW267664   1.329   6.905   7.197 -0.9738  0.0590  0.7118
54327SOL     OW67665  10.027   8.593   2.225 -0.2785 -0.2021 -0.2293
54327SOL    HW167666   9.938   8.559   2.235 -0.9340  1.0592 -1.4017
54327SOL    HW267667  10.083   8.515   2.225 -1.2128 -0.9446  1.8300
54328SOL     OW67668   5.529   0.384   9.654 -0.0890 -0.0985  0.0677
54328SOL    HW167669   5.456   0.379   9.592 -0.0377 -1.5241  0.0749
54328SOL    HW267670   5.572   0.467   9.634 -2.7340  1.6840  1.2581
54329SOL     OW67671   7.413   8.516   4.676 -0.4351  0.0792  0.0324
54329SOL    HW167672   7.462   8.597   4.662  0.3316 -0.3342  0.2817
54329SOL    HW267673   7.413   8.473   4.591  0.0950 -0.1692  0.1554
54330SOL     OW67674  10.198   9.806   1.383 -0.0864  0.8092  0.1909
54330SOL    HW167675  10.109   9.828   1.358 -0.7698 -0.9943  0.8943
54330SOL    HW267676  10.202   9.711   1.377  2.3816  0.9105 -1.7208
54331SOL     OW67677   7.937   9.476   6.566 -0.5142 -0.1630 -0.0114
54331SOL    HW167678   7.925   9.523   6.484 -1.2529 -1.1766 -0.4988
54331SOL    HW267679   7.954   9.544   6.630  1.6671  0.5774 -1.2657
54332SOL     OW67680  11.677   2.493   2.041 -0.4565 -0.1473  0.1281
54332SOL    HW167681  11.742   2.564   2.036 -0.2342 -0.3426  0.2362
54332SOL    HW267682  11.729   2.413   2.049 -0.7269 -0.2131  1.4216
54333SOL     OW67683   7.220   1.731   5.662 -0.1013 -0.3656  0.1606
54333SOL    HW167684   7.232   1.647   5.706  2.3503 -0.8911 -1.3336
54333SOL    HW267685   7.251   1.796   5.725 -1.1811 -0.6348  0.9915
54334SOL     OW67686   3.844   3.794   2.068  0.1097 -0.1113 -0.0861
54334SOL    HW167687   3.762   3.837   2.092 -0.2796 -0.6037 -0.5050
54334SOL    HW267688   3.848   3.716   2.124 -0.5082 -0.9439 -1.1830
54335SOL     OW67689   3.144   9.937   4.982  0.0723  0.0576 -0.4958
54335SOL    HW167690   3.160  10.028   4.958  0.6323 -0.3423 -1.7620
54335SOL    HW267691   3.229   9.894   4.971 -0.9375 -1.4219 -3.9806
54336SOL     OW67692  11.947   1.234   9.113  0.0216  0.2499  0.0392
54336SOL    HW167693  11.885   1.298   9.148 -0.1415 -0.2510  0.6979
54336SOL    HW267694  11.956   1.169   9.183 -0.7647 -1.1030 -1.0499
54337SOL     OW67695   0.231   2.896   6.320 -0.3624  0.3172  0.1941
54337SOL    HW167696   0.306   2.870   6.267 -0.1559  1.1708  0.0479
54337SOL    HW267697   0.168   2.931   6.257  0.1737  2.0088  0.5407
54338SOL     OW67698   7.245   1.130   5.781 -0.0694 -0.3153 -0.4817
54338SOL    HW167699   7.214   1.084   5.859  0.4796  0.2567  0.0831
54338SOL    HW267700   7.186   1.205   5.773 -0.3732 -0.5864 -0.8576
54339SOL     OW67701   6.883   5.085   5.719 -0.5250 -0.3667  0.5690
54339SOL    HW167702   6.970   5.056   5.747 -0.0949  0.8346  0.5274
54339SOL    HW267703   6.876   5.053   5.629 -0.2422 -0.7034  0.6600
54340SOL     OW67704   2.181  11.970   0.334 -0.1978  0.0919  0.3184
54340SOL    HW167705   2.189  11.879   0.307  0.1091  0.1069  0.3609
54340SOL    HW267706   2.214  12.020   0.259 -1.0731  0.1940 -0.0075
54341SOL     OW67707  11.074   8.173   7.757  0.3188  0.3156 -0.6521
54341SOL    HW167708  11.106   8.190   7.846 -0.4746 -1.2114 -0.0413
54341SOL    HW267709  11.147   8.198   7.700  0.7846  1.4511  0.4047
54342SOL     OW67710   8.641   3.441   2.411  0.0982 -0.2492 -0.2409
54342SOL    HW167711   8.669   3.457   2.321  1.0174 -1.2250 -0.1530
54342SOL    HW267712   8.715   3.394   2.450 -0.3242  0.0929  0.9999
54343SOL     OW67713   2.741   9.531   6.520 -0.2469 -0.3765 -0.3264
54343SOL    HW167714   2.672   9.593   6.494  0.3281 -0.1547 -1.3841
54343SOL    HW267715   2.794   9.580   6.583  0.4671  0.4019 -1.4899
54344SOL     OW67716   1.137   0.886   3.242 -0.2199  0.1451  0.1533
54344SOL    HW167717   1.105   0.882   3.333 -2.3214 -1.1217 -0.5895
54344SOL    HW267718   1.066   0.928   3.194  0.6671  0.3408 -1.0131
54345SOL     OW67719   2.041   5.582   2.972 -0.0374  0.0523  0.1682
54345SOL    HW167720   1.973   5.519   2.997 -0.0815 -0.6974 -1.7388
54345SOL    HW267721   2.103   5.532   2.920  0.9229  1.1940  0.1641
54346SOL     OW67722   4.396   3.248   4.666 -0.6097 -0.5230  0.8284
54346SOL    HW167723   4.381   3.195   4.588  2.9063 -0.6046  0.0237
54346SOL    HW267724   4.432   3.331   4.633  0.7086 -0.4529  2.2765
54347SOL     OW67725   4.029   5.439   8.120  0.3220 -0.4028  0.4825
54347SOL    HW167726   4.033   5.474   8.209 -2.0510 -2.8797  1.7098
54347SOL    HW267727   4.117   5.406   8.103  1.0377  0.8693  1.5214
54348SOL     OW67728  10.649   3.218   6.394  0.3197 -0.0010 -0.6785
54348SOL    HW167729  10.643   3.124   6.412 -0.9267  0.1398 -0.2287
54348SOL    HW267730  10.739   3.241   6.415  0.3108 -0.8678  0.4205
54349SOL     OW67731   9.192   1.643   0.566 -0.1725  0.4093 -0.1781
54349SOL    HW167732   9.230   1.677   0.485 -0.6122 -0.7493 -0.8892
54349SOL    HW267733   9.107   1.607   0.540 -0.8900  1.1505  1.0281
54350SOL     OW67734   5.867   3.121   1.898 -0.1261 -0.0554 -0.1353
54350SOL    HW167735   5.923   3.198   1.887 -0.8167  0.4776  0.0374
54350SOL    HW267736   5.909   3.053   1.845 -0.1454  0.7620 -1.2287
54351SOL     OW67737   9.016   3.188  10.952  0.0300 -0.0797 -0.2406
54351SOL    HW167738   9.032   3.274  10.992  0.5760  0.2517 -1.1251
54351SOL    HW267739   9.103   3.157  10.926 -0.2237 -0.6366 -0.4451
54352SOL     OW67740   2.547   6.082  10.940  0.2303 -0.3218  0.5866
54352SOL    HW167741   2.469   6.028  10.956 -0.1319  0.2902  0.9319
54352SOL    HW267742   2.618   6.019  10.932 -0.1668 -0.8551  1.0920
54353SOL     OW67743   4.145   8.067   8.283 -0.7557 -0.1932  0.3587
54353SOL    HW167744   4.098   7.994   8.322 -3.1958  1.9239  1.6912
54353SOL    HW267745   4.078   8.118   8.238  0.6973  1.5970  0.0878
54354SOL     OW67746   4.193   5.358   9.334  0.3982  0.4304 -0.3364
54354SOL    HW167747   4.246   5.286   9.297  1.5149  0.7703  0.5385
54354SOL    HW267748   4.139   5.315   9.400 -0.4252  0.0843 -1.2101
54355SOL     OW67749   1.927  10.312   9.597 -0.6356 -0.7451 -0.3354
54355SOL    HW167750   2.016  10.324   9.630 -1.0212 -0.1849  0.5309
54355SOL    HW267751   1.888  10.399   9.599 -0.5692 -0.5945 -2.6883
54356SOL     OW67752   5.248   4.780   1.668 -0.1029  0.1508  0.0437
54356SOL    HW167753   5.304   4.853   1.692  0.2745 -0.0063 -0.3542
54356SOL    HW267754   5.288   4.743   1.590 -0.1753 -0.6066  0.3547
54357SOL     OW67755   1.448   7.969   3.596 -0.5296 -0.1704 -0.1311
54357SOL    HW167756   1.435   8.064   3.590  0.5435  0.0816  1.1430
54357SOL    HW267757   1.364   7.936   3.628 -0.7301  0.4107 -0.0311
54358SOL     OW67758   3.017   6.110   4.390  0.4182 -0.2037  0.4832
54358SOL    HW167759   3.083   6.167   4.429  0.8932 -1.0572  0.9727
54358SOL    HW267760   3.029   6.026   4.434 -2.1401  0.0491  1.8754
54359SOL     OW67761   7.134   0.934   7.321  0.5812 -0.5903  0.7221
54359SOL    HW167762   7.138   1.007   7.383  1.1986 -0.3848  0.4491
54359SOL    HW267763   7.082   0.968   7.248  1.2960 -0.2260  0.3620
54360SOL     OW67764   3.425  10.337   4.125 -0.2298 -0.0248 -0.4311
54360SOL    HW167765   3.477  10.402   4.079 -1.8617  1.3346 -0.4205
54360SOL    HW267766   3.388  10.282   4.056  0.7823 -0.7054 -0.4608
54361SOL     OW67767   8.996   8.467   9.948 -0.5234  0.8622  0.2033
54361SOL    HW167768   8.994   8.480  10.042 -1.3633 -0.4582  0.3972
54361SOL    HW267769   9.062   8.399   9.934 -1.9267 -0.5375  0.1021
54362SOL     OW67770  10.564   5.336   5.377 -0.0411 -0.4862  0.3535
54362SOL    HW167771  10.588   5.353   5.286  0.4863  1.7260  0.8276
54362SOL    HW267772  10.478   5.376   5.387  1.0268  1.7572  1.4188
54363SOL     OW67773   3.276   0.329  11.549 -0.0443 -0.5132  0.3521
54363SOL    HW167774   3.354   0.375  11.517 -1.2392  0.7720 -0.8578
54363SOL    HW267775   3.228   0.396  11.597 -1.6929 -0.4847 -1.2290
54364SOL     OW67776   6.754   2.479   1.138  0.1540  0.2626 -0.0684
54364SOL    HW167777   6.725   2.488   1.047 -1.9475  1.1479  0.6149
54364SOL    HW267778   6.782   2.388   1.146 -1.6097 -0.4289 -1.1081
54365SOL     OW67779   5.623   6.156   5.179 -0.3665  0.6100 -0.0347
54365SOL    HW167780   5.711   6.138   5.145 -1.0850  0.0434 -1.7244
54365SOL    HW267781   5.624   6.249   5.201  0.6391  0.6225 -0.0913
54366SOL     OW67782  10.636   1.920   7.764  0.9396 -0.2956  0.0204
54366SOL    HW167783  10.582   1.844   7.790 -0.9354  1.5517  1.9622
54366SOL    HW267784  10.656   1.964   7.847  2.0122  1.3147 -1.0484
54367SOL     OW67785   8.330   5.931   6.963  0.1728 -0.3726  0.2572
54367SOL    HW167786   8.291   6.018   6.977  0.8024  0.0425 -0.4642
54367SOL    HW267787   8.316   5.885   7.045 -0.4778  0.2964  0.5332
54368SOL     OW67788   3.548   9.013   7.317  0.2621  0.1073 -0.3985
54368SOL    HW167789   3.540   8.944   7.384  0.6083 -0.0130 -0.4801
54368SOL    HW267790   3.554   9.094   7.368 -2.5829  0.3723 -0.3173
54369SOL     OW67791   8.342  10.924   1.421 -0.1330  0.7807  0.3863
54369SOL    HW167792   8.309  10.837   1.442  0.2415  0.2599 -1.0564
54369SOL    HW267793   8.266  10.971   1.387  0.0669  0.3705 -0.6585
54370SOL     OW67794   8.137   7.535   8.416  0.2322  0.2482 -0.1686
54370SOL    HW167795   8.085   7.616   8.417  1.9420  1.4175  1.1965
54370SOL    HW267796   8.103   7.484   8.489  0.5378  0.7145  0.3084
54371SOL     OW67797   3.962  11.795   1.906  0.9782 -0.0028  0.3844
54371SOL    HW167798   4.049  11.755   1.912  1.3259  0.6999  0.1949
54371SOL    HW267799   3.914  11.738   1.847  2.7912  2.0166 -3.4398
54372SOL     OW67800   2.729  11.160   0.740 -0.1792  0.0787 -1.0246
54372SOL    HW167801   2.807  11.139   0.790 -0.7375  0.9625  0.2944
54372SOL    HW267802   2.748  11.245   0.701 -0.9082  0.9298  0.3685
54373SOL     OW67803   8.573   7.553   4.482  0.5508  0.5067  0.2496
54373SOL    HW167804   8.561   7.581   4.572  0.3928 -0.2593  0.4730
54373SOL    HW267805   8.574   7.457   4.486 -0.2465  0.4467 -0.6609
54374SOL     OW67806   6.558  11.442   2.964 -0.1358  0.2655  0.2139
54374SOL    HW167807   6.535  11.350   2.979 -2.0628  0.7050  0.3117
54374SOL    HW267808   6.504  11.468   2.889  0.3103  1.3284  0.2442
54375SOL     OW67809  11.865   3.889  11.227 -0.2742 -0.0351  0.6433
54375SOL    HW167810  11.864   3.840  11.309  1.3713 -0.9918  0.1390
54375SOL    HW267811  11.795   3.850  11.175 -0.4777 -0.3085  1.1175
54376SOL     OW67812  11.631   3.971   1.414 -0.1937  0.1576  0.4886
54376SOL    HW167813  11.586   3.888   1.432 -0.6333  0.0776 -0.8578
54376SOL    HW267814  11.602   3.995   1.326  0.2382  1.5471  0.7058
54377SOL     OW67815   8.883   3.695   0.591  0.1469  0.0885  0.5889
54377SOL    HW167816   8.839   3.736   0.665  1.5865 -0.4703  1.7950
54377SOL    HW267817   8.938   3.764   0.555 -0.0513  0.1734  0.4463
54378SOL     OW67818   3.558   5.922  10.385  0.0874 -0.2828  0.2305
54378SOL    HW167819   3.587   6.011  10.368 -1.3459  0.8023  2.9979
54378SOL    HW267820   3.639   5.870  10.386  0.9937  1.0482 -0.7824
54379SOL     OW67821   2.500   9.007   2.891  0.6259 -0.1242 -0.1455
54379SOL    HW167822   2.492   8.948   2.966  1.0420 -1.0186 -0.7774
54379SOL    HW267823   2.437   9.077   2.908  0.6359 -0.3700  0.9759
54380SOL     OW67824   6.525   3.762   1.653  0.2023 -0.2891 -0.0053
54380SOL    HW167825   6.552   3.681   1.695 -1.5119 -1.3771 -0.9004
54380SOL    HW267826   6.602   3.818   1.657  0.3882 -0.5058  4.0340
54381SOL     OW67827  11.944   8.499   4.706  0.1367  0.1266  0.4122
54381SOL    HW167828  11.903   8.415   4.725  0.2822  0.3283  1.6893
54381SOL    HW267829  11.881   8.565   4.735  0.0576  0.4771 -0.4985
54382SOL     OW67830   3.617   5.957   0.099 -0.2089 -0.1213 -0.3261
54382SOL    HW167831   3.550   6.026   0.099  0.1103  0.1962 -0.0126
54382SOL    HW267832   3.641   5.949   0.192  0.9950  0.5629 -0.5601
54383SOL     OW67833   6.910   8.038   1.781  0.4533 -0.1899  0.0028
54383SOL    HW167834   7.005   8.031   1.780  0.4650 -0.0215 -1.3284
54383SOL    HW267835   6.893   8.132   1.780  0.2461 -0.1496  2.1376
54384SOL     OW67836  11.380   6.016   1.720 -1.0882  0.0159 -0.3540
54384SOL    HW167837  11.395   5.922   1.724 -0.0237  0.0010 -2.8095
54384SOL    HW267838  11.314   6.027   1.652 -0.3489  1.0720 -0.9415
54385SOL     OW67839   3.530   2.898  11.775  0.5654  0.4081 -0.4368
54385SOL    HW167840   3.539   2.888  11.680 -2.2680  0.5570 -0.8117
54385SOL    HW267841   3.618   2.923  11.805  1.5679  0.2730 -2.9738
54386SOL     OW67842   5.701   6.521   2.796  0.0893  0.7204  0.2828
54386SOL    HW167843   5.623   6.572   2.772 -0.6164 -0.6663 -0.4907
54386SOL    HW267844   5.740   6.495   2.713  0.0142 -0.5967  0.6349
54387SOL     OW67845   0.819   9.923   0.546 -0.2943 -0.2674  0.0286
54387SOL    HW167846   0.882   9.857   0.517  1.2840  1.6142 -0.9965
54387SOL    HW267847   0.870   9.983   0.600 -1.1803  1.3328 -0.8582
54388SOL     OW67848   5.144   2.188   0.245  0.0722 -0.2141  0.2351
54388SOL    HW167849   5.049   2.196   0.240  0.1932  0.6219 -2.6398
54388SOL    HW267850   5.165   2.119   0.181  1.4606  0.7581 -0.4046
54389SOL     OW67851   1.503   2.560   2.001  0.1709  0.0183 -0.0983
54389SOL    HW167852   1.581   2.536   2.051  0.4359  0.6539 -0.2078
54389SOL    HW267853   1.532   2.627   1.940  0.1221 -1.5270 -1.9307
54390SOL     OW67854  11.763   9.888   9.710  0.3257 -0.2789 -0.4481
54390SOL    HW167855  11.712   9.963   9.741 -0.2863 -0.1719 -1.6653
54390SOL    HW267856  11.777   9.835   9.788 -0.3038  0.4816  0.2011
54391SOL     OW67857   6.133   0.829   5.133  0.7784  0.3792 -0.0304
54391SOL    HW167858   6.163   0.846   5.044 -1.0765  1.2636 -0.5420
54391SOL    HW267859   6.130   0.733   5.139  0.5934  0.3072 -1.0388
54392SOL     OW67860   5.230   5.881   8.416 -0.0592 -0.0970  0.0570
54392SOL    HW167861   5.142   5.856   8.388  0.0893 -0.2318 -0.2990
54392SOL    HW267862   5.288   5.823   8.365  0.3353  1.4597 -1.3570
54393SOL     OW67863  11.193   1.450   5.358 -0.8385 -0.4640  0.5924
54393SOL    HW167864  11.248   1.383   5.318  0.4413  0.5408  0.6039
54393SOL    HW267865  11.251   1.497   5.418 -1.7148  0.5906  0.6526
54394SOL     OW67866   2.572  11.032  11.531  0.2369 -0.4665  0.4867
54394SOL    HW167867   2.589  11.124  11.553  0.9405 -0.2020 -1.0866
54394SOL    HW267868   2.514  11.002  11.602 -1.6451  1.7335  0.0178
54395SOL     OW67869   2.957  11.557   8.288 -0.1359 -0.0598 -0.0537
54395SOL    HW167870   2.872  11.513   8.281 -0.7445  1.1985 -1.0029
54395SOL    HW267871   2.992  11.555   8.199 -0.6622  2.2389 -0.3656
54396SOL     OW67872  10.864   3.623   7.072  0.0228 -0.2178  0.1225
54396SOL    HW167873  10.801   3.561   7.108  0.8797 -0.2894  1.5591
54396SOL    HW267874  10.940   3.616   7.129  0.9384  0.6426 -0.9434
54397SOL     OW67875   7.121   3.716   6.292 -0.1242  0.7900 -0.7130
54397SOL    HW167876   7.202   3.697   6.340 -0.8057 -0.1460  0.1108
54397SOL    HW267877   7.077   3.782   6.345 -0.7723 -0.0769 -0.1587
54398SOL     OW67878   2.035  10.765   8.234 -0.0289 -0.0053 -0.0492
54398SOL    HW167879   1.995  10.763   8.321 -0.2844  3.4555  0.0234
54398SOL    HW267880   1.962  10.746   8.174 -0.6197  0.9332  0.3529
54399SOL     OW67881  11.927   6.776   0.554  0.1225  0.4546  0.5382
54399SOL    HW167882  11.899   6.685   0.564 -1.5875  1.0790  2.1771
54399SOL    HW267883  11.876   6.809   0.480 -2.2289  1.0359  2.2866
54400SOL     OW67884   6.157   7.521   0.477  0.1071 -0.2241 -0.3062
54400SOL    HW167885   6.100   7.486   0.545 -0.1476 -0.2217 -0.5186
54400SOL    HW267886   6.145   7.616   0.483  1.0201 -0.1407  0.4670
54401SOL     OW67887   5.583   6.651   1.209  0.4636  0.1000  0.1453
54401SOL    HW167888   5.667   6.682   1.243  1.9353 -0.9214 -2.2815
54401SOL    HW267889   5.606   6.597   1.133 -2.3969 -0.2901 -0.5701
54402SOL     OW67890  10.615   5.556   6.238 -0.1911  0.0497 -0.4210
54402SOL    HW167891  10.563   5.622   6.192  0.8879  1.4318  0.2640
54402SOL    HW267892  10.604   5.476   6.187 -1.6581  0.7126 -1.1912
54403SOL     OW67893   1.165   1.466  11.770  0.4723 -0.0971 -0.3223
54403SOL    HW167894   1.131   1.387  11.813 -0.3705 -0.2806 -1.2757
54403SOL    HW267895   1.160   1.534  11.837 -0.3362 -0.4868  0.0280
54404SOL     OW67896  11.401   2.999  10.766 -0.1393  0.2392  0.1566
54404SOL    HW167897  11.396   3.056  10.843  1.2814  1.3089 -0.5107
54404SOL    HW267898  11.395   3.058  10.691  3.0433 -0.2094 -0.5833
54405SOL     OW67899   4.277  11.429   8.213  0.2578 -0.5211 -0.4958
54405SOL    HW167900   4.193  11.393   8.242 -0.6147  1.0817 -0.9617
54405SOL    HW267901   4.259  11.467   8.127  0.8190  2.0606  0.4393
54406SOL     OW67902   8.579  10.490   4.102 -0.1982 -0.1408  0.0039
54406SOL    HW167903   8.652  10.515   4.159 -0.8333  1.9760 -0.0409
54406SOL    HW267904   8.519  10.565   4.105 -0.5041 -0.1419 -3.0233
54407SOL     OW67905   1.277   0.919   2.133  0.3525 -0.0201  0.1636
54407SOL    HW167906   1.338   0.895   2.202 -0.2568 -2.0090  0.0745
54407SOL    HW267907   1.296   0.858   2.062 -0.8356  0.2308 -0.3894
54408SOL     OW67908   9.913   5.209  10.456 -0.0685 -0.2321 -0.9117
54408SOL    HW167909   9.998   5.206  10.411 -0.8752 -0.9479 -2.4708
54408SOL    HW267910   9.865   5.280  10.413 -1.3936 -1.8631 -2.2906
54409SOL     OW67911   6.756   3.798   0.473 -0.2591 -0.3278  0.2098
54409SOL    HW167912   6.725   3.886   0.493  0.7322  0.7751 -2.6240
54409SOL    HW267913   6.680   3.742   0.486 -0.7978  0.8187  2.4964
54410SOL     OW67914   0.090   2.337   7.678  0.0104  0.1576  0.1675
54410SOL    HW167915   0.164   2.370   7.627 -0.7515  0.4541 -0.7796
54410SOL    HW267916   0.016   2.341   7.617 -0.8946  0.3609  1.2637
54411SOL     OW67917   6.036   7.672   3.084  0.4164 -0.4263  0.2666
54411SOL    HW167918   6.069   7.737   3.146  0.4664  1.1741 -1.3579
54411SOL    HW267919   6.077   7.694   3.001 -3.6227  0.9565 -1.6411
54412SOL     OW67920   8.695  10.696   1.234  0.0523  0.4554  0.0440
54412SOL    HW167921   8.711  10.780   1.190 -2.4586  0.8898 -0.1639
54412SOL    HW267922   8.781  10.670   1.267  1.1149  2.5212 -0.9026
54413SOL     OW67923  10.100   9.970   2.627 -0.0092 -0.3246 -0.0016
54413SOL    HW167924  10.058  10.052   2.603 -0.6819 -0.9120 -0.9061
54413SOL    HW267925  10.074   9.955   2.718 -0.3094  0.2051  0.0015
54414SOL     OW67926   4.923   7.277   6.115  0.6277  0.0115 -0.3689
54414SOL    HW167927   4.877   7.194   6.103  2.1744 -0.8509 -0.7251
54414SOL    HW267928   4.996   7.273   6.053  0.7393  1.6614 -0.4030
54415SOL     OW67929   1.508   1.919   8.522  0.0112  0.1346 -0.2874
54415SOL    HW167930   1.519   1.824   8.519 -0.0788  0.0787  0.7808
54415SOL    HW267931   1.568   1.952   8.454 -1.3665 -0.7646 -2.0141
54416SOL     OW67932   8.769   7.483   9.139 -0.2470 -0.2538  0.1225
54416SOL    HW167933   8.786   7.484   9.045 -1.1761 -2.2066 -0.1166
54416SOL    HW267934   8.844   7.438   9.177  0.2690  0.7882  0.3838
54417SOL     OW67935   1.792   1.100   3.088  0.4093  0.6675  0.1654
54417SOL    HW167936   1.785   1.132   2.997 -0.5561  2.0224  0.6731
54417SOL    HW267937   1.712   1.133   3.130  0.1047 -1.2236  1.1413
54418SOL     OW67938   0.334   6.136  11.636 -0.1837 -0.3977  0.0689
54418SOL    HW167939   0.355   6.167  11.548  0.4817  1.4232  0.8259
54418SOL    HW267940   0.403   6.073  11.657 -0.3417 -0.8308 -0.6966
54419SOL     OW67941   1.644   3.783   7.717  0.2724  0.4343  0.0247
54419SOL    HW167942   1.639   3.811   7.626 -2.4203 -0.0430 -0.0725
54419SOL    HW267943   1.623   3.861   7.768  2.2249  0.8178  0.3255
54420SOL     OW67944   9.434   4.062   3.149  0.3291 -0.0280  0.4012
54420SOL    HW167945   9.500   3.993   3.161  1.8649  1.4875  1.1493
54420SOL    HW267946   9.478   4.142   3.179 -0.9845  1.4857 -1.4927
54421SOL     OW67947   0.903   6.632   8.552  0.0979 -0.0876  0.0831
54421SOL    HW167948   0.819   6.656   8.591 -0.5067 -0.9185 -0.6623
54421SOL    HW267949   0.905   6.536   8.555  1.1786 -0.0743  0.4033
54422SOL     OW67950   4.649   3.244  11.200  0.1231  0.5673  1.0646
54422SOL    HW167951   4.711   3.172  11.209 -2.3584 -1.8813  0.2448
54422SOL    HW267952   4.660   3.295  11.280  2.2169 -0.5147  1.5482
54423SOL     OW67953   2.473   5.081   5.568 -0.2533 -0.3764  0.2919
54423SOL    HW167954   2.409   5.149   5.591  0.4307  0.2046  0.4927
54423SOL    HW267955   2.520   5.117   5.493 -1.1530 -1.4422 -0.8356
54424SOL     OW67956   4.657   6.379   2.181 -0.2878 -0.9085  0.0150
54424SOL    HW167957   4.701   6.295   2.186  2.9051  0.5847 -0.4596
54424SOL    HW267958   4.652   6.398   2.087  0.7494  0.1938  0.1510
54425SOL     OW67959   7.613   1.900   0.666 -0.4210 -0.3598 -0.1248
54425SOL    HW167960   7.670   1.831   0.699 -0.4947 -0.6548 -0.6104
54425SOL    HW267961   7.658   1.932   0.588 -0.2440  0.3394  0.2532
54426SOL     OW67962   7.296   8.329   8.617  0.6435  0.6153  0.2494
54426SOL    HW167963   7.287   8.239   8.584  0.0218  0.5757  0.5094
54426SOL    HW267964   7.351   8.320   8.695  0.1193  0.3688  0.6047
54427SOL     OW67965   0.496   5.149   0.350  0.3344  0.6528 -0.2518
54427SOL    HW167966   0.577   5.183   0.387  0.0513  0.6004  0.4356
54427SOL    HW267967   0.510   5.150   0.256  1.6602 -0.6480 -0.1058
54428SOL     OW67968   9.133   1.965   2.671 -0.1221  0.1047 -0.0862
54428SOL    HW167969   9.115   1.980   2.763 -0.7556  2.3905 -0.5264
54428SOL    HW267970   9.181   2.043   2.642  3.1364 -1.9984 -0.9706
54429SOL     OW67971   9.754  11.900  10.278 -0.8937  0.2610 -0.1807
54429SOL    HW167972   9.735  11.849  10.356 -0.0584 -0.2054 -0.2689
54429SOL    HW267973   9.669  11.933  10.249 -1.2242  0.3211  0.8408
54430SOL     OW67974   0.435   8.615   0.790 -0.4061  0.4663  0.3443
54430SOL    HW167975   0.389   8.611   0.874  0.2428  0.0292  0.6883
54430SOL    HW267976   0.526   8.598   0.812 -0.1087  1.1137 -0.3577
54431SOL     OW67977   8.998   6.082   8.063  0.1770  0.0147  1.0777
54431SOL    HW167978   9.013   6.004   8.116 -0.1671 -0.8485 -0.0419
54431SOL    HW267979   9.074   6.138   8.080  0.5047 -0.6335  1.7890
54432SOL     OW67980   2.316   7.264   8.320 -0.6563 -0.0330 -0.5961
54432SOL    HW167981   2.291   7.226   8.236  0.8060  0.6252 -1.3657
54432SOL    HW267982   2.243   7.322   8.343 -0.8043  0.2349 -1.7107
54433SOL     OW67983   1.677   2.636  11.551 -0.5835 -0.1167  0.4435
54433SOL    HW167984   1.615   2.699  11.514 -0.5733  0.1872  0.9412
54433SOL    HW267985   1.695   2.668  11.639 -1.0211 -1.1177  0.9123
54434SOL     OW67986   2.080   0.018   8.729  0.2812 -0.0174 -0.1642
54434SOL    HW167987   2.136   0.088   8.695  1.2784 -1.1079 -0.8425
54434SOL    HW267988   2.140  -0.043   8.771 -0.8603  1.1998  3.6910
54435SOL     OW67989   3.744   1.487   5.421 -0.0736 -0.7360  0.0464
54435SOL    HW167990   3.752   1.502   5.327  0.5056  1.1679  0.3765
54435SOL    HW267991   3.670   1.541   5.448  0.6756 -0.1172  0.9188
54436SOL     OW67992   4.753   1.049   8.790  0.4195  0.2848  0.2735
54436SOL    HW167993   4.817   1.043   8.720  0.8172 -1.8146  0.7342
54436SOL    HW267994   4.790   0.997   8.861 -1.6838 -0.9081  0.6122
54437SOL     OW67995   1.769  10.083   9.600  0.1777  0.8019  0.7162
54437SOL    HW167996   1.790  10.176   9.596 -0.6816  1.0577  1.6069
54437SOL    HW267997   1.843  10.039   9.559  0.4476  1.8968  0.0088
54438SOL     OW67998  10.916   9.832   5.818  0.1057 -0.5471  0.3656
54438SOL    HW167999  10.894   9.825   5.725  2.1931 -0.1567 -0.2184
54438SOL    HW268000  10.891   9.921   5.842 -0.5350 -0.6816  0.2110
54439SOL     OW68001   0.931   5.081   7.786  0.1353  1.1017 -0.5856
54439SOL    HW168002   0.899   5.081   7.876  0.5103  2.8110 -0.4187
54439SOL    HW268003   0.963   4.993   7.771  0.0424  0.7916  0.9446
54440SOL     OW68004  10.354   8.489   7.101  0.3677 -0.2407  0.6754
54440SOL    HW168005  10.344   8.394   7.105  1.5629 -0.3517  1.6375
54440SOL    HW268006  10.448   8.503   7.100  0.2037  0.9232 -0.3677
54441SOL     OW68007   6.077   8.919  10.700  0.8226  0.4032 -0.0138
54441SOL    HW168008   6.014   8.938  10.768  1.2797 -0.4071  0.6530
54441SOL    HW268009   6.107   8.830  10.718 -0.2281 -0.4816 -2.1930
54442SOL     OW68010   2.790   1.516   7.040  0.4152 -0.2239 -0.3906
54442SOL    HW168011   2.701   1.549   7.036  0.5855  0.1609 -2.8966
54442SOL    HW268012   2.843   1.593   7.063  0.3620  0.2617 -1.8029
54443SOL     OW68013  11.355   1.774   4.734 -0.5299  0.0616 -0.3931
54443SOL    HW168014  11.353   1.851   4.677 -1.1796  1.4162  1.3667
54443SOL    HW268015  11.396   1.706   4.681  0.9355  1.8662 -1.7116
54444SOL     OW68016   7.167   2.753  11.821 -0.0411  0.1126 -0.2295
54444SOL    HW168017   7.205   2.717  11.901  0.0710 -0.2971 -0.4635
54444SOL    HW268018   7.238   2.749  11.757 -0.2459  0.0672 -0.4554
54445SOL     OW68019   4.513   5.816   3.590 -0.0959 -0.7151 -0.1571
54445SOL    HW168020   4.541   5.726   3.573 -1.8507 -1.3709  0.1439
54445SOL    HW268021   4.450   5.835   3.520 -2.0058 -0.8581  1.4420
54446SOL     OW68022   8.327   3.513  11.886  0.3664  0.3549 -0.2907
54446SOL    HW168023   8.255   3.567  11.854  0.7205  1.8819  1.3722
54446SOL    HW268024   8.371   3.567  11.952  1.7712 -1.3323  0.2367
54447SOL     OW68025  11.203   8.007   0.852 -0.6404  0.3691  0.7264
54447SOL    HW168026  11.164   8.094   0.849 -0.0178  0.7031  1.8844
54447SOL    HW268027  11.272   8.009   0.786 -0.5941  0.7645  0.7865
54448SOL     OW68028   7.969   3.486  11.437 -0.0808  1.1285 -0.2943
54448SOL    HW168029   7.930   3.510  11.521 -1.4479  1.7729 -1.0817
54448SOL    HW268030   8.050   3.439  11.461 -1.1103  0.1044  1.3978
54449SOL     OW68031   5.373   6.139   3.584  0.1253 -0.4116 -1.0334
54449SOL    HW168032   5.387   6.153   3.677  0.3846 -1.4979 -0.8962
54449SOL    HW268033   5.394   6.046   3.570 -0.1924 -0.3358 -2.1130
54450SOL     OW68034  11.806   0.741   2.413 -0.6711 -0.4510  0.0173
54450SOL    HW168035  11.767   0.686   2.481 -3.4596  0.5512 -0.6301
54450SOL    HW268036  11.735   0.754   2.350  0.6153  1.8934 -1.0603
54451SOL     OW68037   4.387   3.223   6.822 -0.8015  0.3374  0.0401
54451SOL    HW168038   4.387   3.158   6.752 -0.1004 -1.4888  1.6115
54451SOL    HW268039   4.310   3.200   6.876  0.7438 -0.8138  1.9120
54452SOL     OW68040   2.007   8.559   7.687  0.1031  0.1176  0.0999
54452SOL    HW168041   1.991   8.466   7.671 -0.8483 -0.1077  2.1139
54452SOL    HW268042   2.094   8.563   7.727 -0.7640 -0.1992  2.1180
54453SOL     OW68043  10.545  10.132   2.295 -0.2352  0.4138  0.5353
54453SOL    HW168044  10.639  10.147   2.306 -0.1612  1.6987 -1.4794
54453SOL    HW268045  10.539  10.040   2.270  0.3976  0.1331  1.3501
54454SOL     OW68046   3.319   8.969   6.861 -0.4643  0.1722 -0.3161
54454SOL    HW168047   3.296   8.985   6.770 -0.4488  0.4429 -0.2738
54454SOL    HW268048   3.288   9.046   6.908  1.7091  1.2161 -0.4583
54455SOL     OW68049  11.056  10.967   8.226  0.3830  0.4662  0.1777
54455SOL    HW168050  10.999  10.955   8.150 -0.5484  3.4156  0.2868
54455SOL    HW268051  11.144  10.957   8.192 -0.0699 -1.2376 -0.6116
54456SOL     OW68052   4.136  11.198   9.191 -0.5144 -0.4157  0.2029
54456SOL    HW168053   4.231  11.191   9.178 -0.8122 -0.7501 -2.3333
54456SOL    HW268054   4.111  11.276   9.142 -1.5471 -0.2241  0.9983
54457SOL     OW68055   6.087   0.421   6.426 -0.1875 -0.2058  0.0443
54457SOL    HW168056   6.050   0.499   6.385 -2.8165 -0.5832  1.4877
54457SOL    HW268057   6.115   0.450   6.512  1.3741 -0.3272 -0.3876
54458SOL     OW68058   1.073   6.171   0.430 -0.0482 -0.2310 -0.0960
54458SOL    HW168059   1.149   6.199   0.481 -0.0487  0.8717 -0.6586
54458SOL    HW268060   1.093   6.201   0.341 -1.4673  0.7519 -0.1150
54459SOL     OW68061   8.150   5.890   1.586  0.1271 -0.0416 -0.5446
54459SOL    HW168062   8.170   5.822   1.521  3.1568 -0.5011  0.6965
54459SOL    HW268063   8.100   5.844   1.654 -0.2980 -0.3145 -1.0315
54460SOL     OW68064   1.173  11.167   6.821 -0.0776 -0.2035  0.2856
54460SOL    HW168065   1.213  11.212   6.895 -0.6990  1.9261 -0.5833
54460SOL    HW268066   1.223  11.196   6.745 -2.2608  1.4221 -0.6470
54461SOL     OW68067  11.407   8.725   9.265 -0.1986 -0.2035  0.5013
54461SOL    HW168068  11.419   8.776   9.185  0.3821 -0.2970  0.5263
54461SOL    HW268069  11.322   8.754   9.299 -0.1809  0.2602  0.1609
54462SOL     OW68070   6.009   5.143  10.238 -0.3956  0.0877 -0.0256
54462SOL    HW168071   6.099   5.174  10.231 -0.1450 -0.9041 -2.2873
54462SOL    HW268072   6.009   5.085  10.314  1.7640 -2.3359 -1.6878
54463SOL     OW68073   5.084   3.517  10.479  0.5612  0.2178 -0.5136
54463SOL    HW168074   5.149   3.468  10.528  0.5472 -0.2113 -0.9215
54463SOL    HW268075   5.100   3.494  10.387  0.0600  0.3716 -0.6448
54464SOL     OW68076  10.782   8.409   3.089 -0.2400 -0.2183 -0.5673
54464SOL    HW168077  10.828   8.435   3.169 -1.6985 -0.2231  0.3155
54464SOL    HW268078  10.845   8.354   3.042  0.8070  0.1475  0.3572
54465SOL     OW68079   3.007  10.929  10.797  0.3825  0.1807  0.4553
54465SOL    HW168080   3.046  10.854  10.841  0.1152 -0.0254  0.3500
54465SOL    HW268081   3.081  10.985  10.774  0.4879  0.5031  1.5377
54466SOL     OW68082  11.386   4.589   6.810 -0.5207 -0.3181  0.4243
54466SOL    HW168083  11.332   4.629   6.742 -0.4357  0.9268  1.0604
54466SOL    HW268084  11.329   4.584   6.886  0.4577  1.8908  1.3948
54467SOL     OW68085   4.560   6.792   2.631  0.4713 -0.0328 -0.1236
54467SOL    HW168086   4.555   6.822   2.540  0.2216  2.4288  0.6342
54467SOL    HW268087   4.559   6.872   2.683  0.8009 -1.3667  2.0690
54468SOL     OW68088   6.167   5.285   9.980 -0.0071 -0.2689 -0.0026
54468SOL    HW168089   6.151   5.196   9.949 -1.2966 -0.1602  0.2690
54468SOL    HW268090   6.201   5.274  10.069  2.3934 -0.5360 -0.8733
54469SOL     OW68091   5.867  10.972   3.164  0.1501 -0.6244  0.1543
54469SOL    HW168092   5.945  10.952   3.112  0.2933  1.0092 -0.3437
54469SOL    HW268093   5.858  10.899   3.224  2.2291 -0.7423  0.3916
54470SOL     OW68094   1.105  10.197   1.173 -0.0722  0.0241  0.3626
54470SOL    HW168095   1.168  10.139   1.131  0.7293  0.7260  0.5699
54470SOL    HW268096   1.090  10.158   1.259  0.8429  0.3684  0.6910
54471SOL     OW68097  11.176  10.426   1.441  0.4172  0.4254  0.2011
54471SOL    HW168098  11.099  10.393   1.487 -0.0823  1.3968  0.0952
54471SOL    HW268099  11.142  10.456   1.357  0.5376  2.5409  0.8286
54472SOL     OW68100   5.275   4.587   7.001  0.1411 -0.0544 -0.0649
54472SOL    HW168101   5.238   4.594   6.913  1.3703 -1.3314 -0.7013
54472SOL    HW268102   5.363   4.553   6.989 -0.7508 -3.6000  1.8064
54473SOL     OW68103   3.602   9.446   3.925 -0.6000 -0.0094  0.2088
54473SOL    HW168104   3.617   9.375   3.987 -0.7974 -1.8654 -1.7688
54473SOL    HW268105   3.634   9.413   3.841 -1.5289  1.8975 -0.9783
54474SOL     OW68106  10.461   3.082  11.883 -0.1032 -0.1979  0.3928
54474SOL    HW168107  10.474   2.997  11.841 -0.9017 -0.9694  1.6316
54474SOL    HW268108  10.389   3.123  11.835 -0.3136 -0.6202  0.3429
54475SOL     OW68109   0.885   4.179   2.383 -0.6112 -0.1172 -0.1530
54475SOL    HW168110   0.844   4.157   2.467 -0.8098 -0.4809 -0.3423
54475SOL    HW268111   0.953   4.242   2.405 -0.5283 -0.3674  0.3086
54476SOL     OW68112   3.058  10.512   1.861  0.6264  0.6340  0.1675
54476SOL    HW168113   2.998  10.490   1.789  0.7609  0.6653  0.0442
54476SOL    HW268114   3.138  10.541   1.817  0.7972  0.4141  0.3320
54477SOL     OW68115   8.532   1.901   7.263 -0.0550 -0.1774 -0.2046
54477SOL    HW168116   8.593   1.839   7.224  0.0771 -0.0379 -0.2212
54477SOL    HW268117   8.513   1.963   7.192 -1.2075 -0.9434 -0.5972
54478SOL     OW68118   7.466   0.292   3.847 -0.3236  0.6969  0.0882
54478SOL    HW168119   7.450   0.381   3.880  0.6990  1.2689 -0.8860
54478SOL    HW268120   7.548   0.265   3.890 -1.1875 -0.2228  1.2095
54479SOL     OW68121   5.514   9.937   4.064  0.4657 -0.1890 -0.3352
54479SOL    HW168122   5.449   9.898   4.122  1.3400 -0.6731  0.3554
54479SOL    HW268123   5.576   9.979   4.124  1.2663 -0.5185 -0.9173
54480SOL     OW68124   6.873  11.209   7.642 -0.5558 -0.1668 -0.7370
54480SOL    HW168125   6.964  11.239   7.637 -0.1973 -1.1794 -0.5072
54480SOL    HW268126   6.879  11.118   7.672 -1.7566  0.7025  2.6382
54481SOL     OW68127   1.707  11.959   8.271 -0.4454  0.4132 -0.2384
54481SOL    HW168128   1.791  11.978   8.229 -0.0585  0.6043  0.6092
54481SOL    HW268129   1.646  11.948   8.198  0.3956 -0.1530 -0.8834
54482SOL     OW68130   7.063   1.246   3.306  0.1060  0.4705 -0.2571
54482SOL    HW168131   7.143   1.226   3.258 -0.0965  1.2597 -0.9370
54482SOL    HW268132   6.992   1.225   3.245 -0.1907  0.4297  0.0971
54483SOL     OW68133   9.627   6.892   4.725  0.2066  0.0818 -0.0145
54483SOL    HW168134   9.622   6.890   4.629  0.9238  1.2532 -0.0898
54483SOL    HW268135   9.579   6.972   4.749  2.4596  1.3777  0.3948
54484SOL     OW68136  11.613   6.508   5.137  0.6032 -0.4632 -0.2695
54484SOL    HW168137  11.547   6.577   5.126 -0.5148 -1.3240  0.6988
54484SOL    HW268138  11.574   6.431   5.095  0.6542 -1.1761  0.9479
54485SOL     OW68139   3.699   4.139   0.841 -0.5940 -0.5367 -0.1495
54485SOL    HW168140   3.635   4.186   0.895  1.2190  1.2533  0.5301
54485SOL    HW268141   3.784   4.165   0.876  0.5618 -3.1795 -0.7390
54486SOL     OW68142   7.354   6.515   2.564  0.2525 -0.1701  0.4917
54486SOL    HW168143   7.403   6.484   2.489 -1.3767  0.2285 -0.8019
54486SOL    HW268144   7.300   6.586   2.530 -0.2736  0.2651  2.1247
54487SOL     OW68145  11.054   5.510   6.986  0.0145 -0.6156 -0.1981
54487SOL    HW168146  10.990   5.564   6.940 -2.1413 -0.6405  2.5111
54487SOL    HW268147  11.095   5.458   6.917  0.7478  2.8919 -2.6889
54488SOL     OW68148   9.667  10.494  11.877  0.5833 -0.1562  0.0984
54488SOL    HW168149   9.653  10.549  11.801  0.6955 -1.9316 -1.2806
54488SOL    HW268150   9.580  10.459  11.898  0.5329  0.4027  0.8802
54489SOL     OW68151   8.877   0.341   3.438 -0.5127  0.3188 -0.9449
54489SOL    HW168152   8.873   0.253   3.399 -0.1361  0.4694 -1.3253
54489SOL    HW268153   8.791   0.351   3.480  0.1365 -1.0118  0.8326
54490SOL     OW68154   7.551   7.854   7.670 -0.6953  0.3190 -0.6770
54490SOL    HW168155   7.624   7.912   7.693 -0.3725 -0.2613 -0.1944
54490SOL    HW268156   7.479   7.913   7.649 -0.2007  0.8970 -0.7695
54491SOL     OW68157   1.303   9.069   0.892 -0.4313 -0.0741 -0.1744
54491SOL    HW168158   1.323   8.977   0.875 -2.1931 -0.7961  1.2821
54491SOL    HW268159   1.320   9.113   0.809  0.9597 -1.6093 -0.7646
54492SOL     OW68160   2.644   1.145   4.073  0.2920 -0.2967 -0.9780
54492SOL    HW168161   2.664   1.069   4.019  1.0002 -1.1122  0.3785
54492SOL    HW268162   2.562   1.123   4.117  1.1434 -0.8687  0.3935
54493SOL     OW68163   4.502   7.686  11.886  0.0021  0.7199 -0.6985
54493SOL    HW168164   4.551   7.701  11.967  0.0810  2.4639 -1.0300
54493SOL    HW268165   4.467   7.598  11.895  2.2611 -0.1717  0.0431
54494SOL     OW68166   1.042   2.114   9.697 -0.3164 -0.0743 -0.2914
54494SOL    HW168167   1.137   2.104   9.693 -0.4335 -0.9850 -1.1699
54494SOL    HW268168   1.016   2.064   9.774 -0.0801  0.2704  0.0155
54495SOL     OW68169   2.741  10.970   2.262  0.2124  0.1728 -0.3173
54495SOL    HW168170   2.649  10.986   2.241  0.5013 -0.1991 -1.9893
54495SOL    HW268171   2.749  10.874   2.264  0.4573  0.1981  0.3922
54496SOL     OW68172   9.542   9.664   1.323  0.3970 -0.1419  1.0656
54496SOL    HW168173   9.558   9.691   1.413 -0.1440  1.3173  0.7636
54496SOL    HW268174   9.609   9.711   1.272 -2.1272  2.9363  0.2280
54497SOL     OW68175   4.098   4.263   3.580  0.1236 -0.0922  0.2885
54497SOL    HW168176   4.025   4.228   3.530  0.1336  0.3457 -0.0360
54497SOL    HW268177   4.174   4.257   3.521 -0.0945  1.5303 -0.2215
54498SOL     OW68178  11.284   4.989   5.663 -0.0938 -0.1831 -0.4375
54498SOL    HW168179  11.277   4.975   5.569 -1.5350 -1.2059 -0.2161
54498SOL    HW268180  11.242   4.912   5.702 -0.1730  0.5616  1.0193
54499SOL     OW68181   6.184  11.687   8.166  0.1942 -0.2012 -0.0650
54499SOL    HW168182   6.264  11.694   8.219  0.7886 -1.8560 -0.6580
54499SOL    HW268183   6.181  11.768   8.116 -0.0076  1.1075  1.9312
54500SOL     OW68184   5.242  10.145   4.382  0.5990 -0.4257  0.7992
54500SOL    HW168185   5.307  10.179   4.321  0.4608 -0.3845  0.6730
54500SOL    HW268186   5.179  10.098   4.327  0.9980 -1.2272  1.0041
54501SOL     OW68187   1.127   3.235   6.149 -0.2894  0.5255 -0.0699
54501SOL    HW168188   1.208   3.279   6.170 -0.7401  0.9281  0.8612
54501SOL    HW268189   1.153   3.144   6.133  0.1662  0.3300  1.6455
54502SOL     OW68190   1.826   8.987   1.032  0.1339  0.2620 -0.1638
54502SOL    HW168191   1.911   8.982   1.077 -0.1052 -1.9827  0.1764
54502SOL    HW268192   1.773   9.045   1.087  0.6461 -0.4142  1.0838
54503SOL     OW68193   3.372   5.011   9.538  0.5637 -0.4567  0.0318
54503SOL    HW168194   3.348   4.926   9.501 -1.5099  0.5328 -1.0700
54503SOL    HW268195   3.411   5.059   9.465  1.5605 -0.3872  0.5981
54504SOL     OW68196   1.514   8.054   8.696  0.6157 -0.2323 -0.2085
54504SOL    HW168197   1.536   7.961   8.695  2.0671  0.0600  0.9440
54504SOL    HW268198   1.574   8.092   8.760 -0.6095  1.3444  0.0651
54505SOL     OW68199   5.464  11.795   4.143 -0.2131  0.4312 -0.1876
54505SOL    HW168200   5.446  11.824   4.054  1.9421  1.2738 -0.4104
54505SOL    HW268201   5.482  11.875   4.192  2.6623 -0.2160 -0.0321
54506SOL     OW68202   3.480   5.641   7.915  0.3811  0.2747 -0.2345
54506SOL    HW168203   3.399   5.674   7.954  0.4336 -0.9928  1.0080
54506SOL    HW268204   3.451   5.577   7.849  0.2928  2.3937 -2.4074
54507SOL     OW68205   9.653   0.494  11.863  0.4313 -0.2159  0.3148
54507SOL    HW168206   9.585   0.431  11.840 -0.0153  0.1205  0.7069
54507SOL    HW268207   9.696   0.514  11.779  0.1116 -0.4966  0.0798
54508SOL     OW68208   6.432   9.352   2.415  0.2862 -0.1653  0.8884
54508SOL    HW168209   6.385   9.318   2.340  1.3429 -1.9658  0.9997
54508SOL    HW268210   6.524   9.331   2.398  0.9783  2.3138  1.1667
54509SOL     OW68211   3.618   9.947  11.085  0.8084 -0.2487 -0.4923
54509SOL    HW168212   3.613   9.858  11.120  0.1038  0.7056  2.1293
54509SOL    HW268213   3.582   9.940  10.997 -2.6311 -2.0603  0.8320
54510SOL     OW68214   6.709   2.620   1.829 -0.1388  0.3267  0.6141
54510SOL    HW168215   6.798   2.587   1.816  1.0174  2.2660  2.8219
54510SOL    HW268216   6.672   2.563   1.896 -0.3570 -0.1002  0.1383
54511SOL     OW68217   6.419   7.027   7.207  0.2183 -0.4295  0.5528
54511SOL    HW168218   6.388   6.940   7.182  2.8066 -1.7996  1.6478
54511SOL    HW268219   6.436   7.020   7.301  1.0924  1.0533  0.5351
54512SOL     OW68220   4.725   2.273   7.525 -0.6478  0.4220 -0.6479
54512SOL    HW168221   4.629   2.273   7.517 -0.7579 -1.6277  0.0684
54512SOL    HW268222   4.740   2.258   7.619  0.3799  0.4158 -0.8104
54513SOL     OW68223   6.361   5.086   9.019 -0.1353  0.4168 -0.1597
54513SOL    HW168224   6.287   5.048   8.973 -0.8260  0.0841  1.1648
54513SOL    HW268225   6.427   5.100   8.952 -1.2536  0.3555 -1.2989
54514SOL     OW68226  10.238   3.339   7.791  0.2867 -0.4432 -0.4517
54514SOL    HW168227  10.149   3.374   7.792  0.7458  0.7394 -0.2599
54514SOL    HW268228  10.248   3.303   7.702  0.0552  0.5660 -0.8959
54515SOL     OW68229   6.710   8.099   4.370 -0.2326  0.5569  0.5513
54515SOL    HW168230   6.696   8.108   4.275  1.1538  0.3797  0.3062
54515SOL    HW268231   6.624   8.079   4.405 -0.3954 -1.9169 -1.0005
54516SOL     OW68232   3.404   5.767  10.197  0.0710  0.7511  0.1932
54516SOL    HW168233   3.461   5.815  10.258  1.1904  0.2097 -0.4081
54516SOL    HW268234   3.339   5.832  10.171 -1.2097  0.6802  2.8875
54517SOL     OW68235   7.674   0.135   3.423  0.1100 -0.1861  0.0327
54517SOL    HW168236   7.590   0.151   3.465  0.5103 -0.5897  1.0181
54517SOL    HW268237   7.681   0.040   3.416  0.7120 -0.1852  0.4675
54518SOL     OW68238   6.478   9.943   2.587 -0.2496  0.0422  0.0740
54518SOL    HW168239   6.425   9.908   2.515 -1.8713 -0.3878  1.4086
54518SOL    HW268240   6.432   9.916   2.666  2.6557 -1.4471  1.4140
54519SOL     OW68241  11.570   5.002   2.319  0.0290  0.5755 -0.3663
54519SOL    HW168242  11.609   4.983   2.404 -0.0999 -0.0509 -0.4410
54519SOL    HW268243  11.634   4.972   2.255  0.1748  1.1510 -0.4895
54520SOL     OW68244   6.122   5.934   2.853  0.7520 -0.1517 -0.4447
54520SOL    HW168245   6.050   5.982   2.813  0.7297 -0.7358 -1.1394
54520SOL    HW268246   6.082   5.885   2.925  0.7541  0.7458  0.1895
54521SOL     OW68247  11.768   3.486   0.214 -0.7507 -0.2820  0.1265
54521SOL    HW168248  11.741   3.568   0.173  0.3434  0.5225  0.9307
54521SOL    HW268249  11.754   3.500   0.308 -1.3247 -1.3341  0.2138
54522SOL     OW68250   6.721   9.491  11.941  0.4063  0.6083 -0.3872
54522SOL    HW168251   6.766   9.466  11.860  1.0188 -0.8351  0.3710
54522SOL    HW268252   6.636   9.446  11.935  1.6046 -2.1118  1.0930
54523SOL     OW68253   8.795   4.467  11.637 -1.1520  0.0618 -0.1357
54523SOL    HW168254   8.796   4.461  11.542 -3.1568  1.4658 -0.3206
54523SOL    HW268255   8.873   4.420  11.666 -0.0205  0.3839 -2.4964
54524SOL     OW68256   9.955  10.457   9.555 -0.1367  0.5195  0.0151
54524SOL    HW168257   9.901  10.379   9.569 -3.0355  2.1537 -1.1952
54524SOL    HW268258   9.969  10.459   9.460 -0.5513  1.7347 -0.0268
54525SOL     OW68259   5.217   0.540   1.007 -0.0989 -0.0361 -0.3125
54525SOL    HW168260   5.276   0.475   0.970 -1.6797 -2.2317  0.7830
54525SOL    HW268261   5.249   0.553   1.096 -0.3118  0.0026 -0.2417
54526SOL     OW68262  11.655   0.692  11.821 -0.3859 -0.1764  0.3915
54526SOL    HW168263  11.605   0.614  11.798 -3.1890  1.1277  1.5634
54526SOL    HW268264  11.633   0.708  11.913  2.5713  0.3199  1.1136
54527SOL     OW68265   7.891   7.949   3.266 -0.2260 -0.2235  0.2613
54527SOL    HW168266   7.853   7.869   3.229 -1.9293  0.7589 -0.2184
54527SOL    HW268267   7.815   8.005   3.285  0.9716  2.0587 -1.2302
54528SOL     OW68268   7.711   9.764   4.583  0.4167 -0.3810  0.2895
54528SOL    HW168269   7.703   9.853   4.549 -0.8103 -0.0079  1.5005
54528SOL    HW268270   7.622   9.739   4.607  1.1396 -0.8190  2.6938
54529SOL     OW68271   0.646   0.518   4.453 -0.2837  0.4120  1.3167
54529SOL    HW168272   0.574   0.472   4.494 -0.2352  0.1237  1.0840
54529SOL    HW268273   0.623   0.522   4.360  0.4200 -0.4914  1.0883
54530SOL     OW68274   0.233   9.332   7.175 -0.5984 -0.2136  0.1251
54530SOL    HW168275   0.238   9.258   7.235 -0.1698  0.5530  1.0723
54530SOL    HW268276   0.175   9.303   7.105  0.1914 -1.7154  0.0700
54531SOL     OW68277   0.373   2.411   0.829  0.1241  0.0501  1.0834
54531SOL    HW168278   0.355   2.324   0.866 -3.0627 -0.6017 -1.5252
54531SOL    HW268279   0.396   2.393   0.738 -0.4078  1.8986  0.5530
54532SOL     OW68280   8.032   0.199  11.405  0.4744 -0.6483 -0.3241
54532SOL    HW168281   8.035   0.145  11.483 -2.3303 -0.8433 -0.2524
54532SOL    HW268282   7.993   0.282  11.434 -0.5139 -0.6891 -1.4728
54533SOL     OW68283   6.857   9.521   7.795  0.0365 -0.0276  0.2442
54533SOL    HW168284   6.867   9.448   7.856  0.0215  0.3915  0.7552
54533SOL    HW268285   6.786   9.495   7.737 -1.0328  0.2183  1.3808
54534SOL     OW68286  11.639   4.523   8.165  0.5614 -0.9579 -0.4388
54534SOL    HW168287  11.655   4.555   8.076  0.0104 -0.3477 -0.3252
54534SOL    HW268288  11.706   4.457   8.179 -0.0494 -1.9050 -1.7387
54535SOL     OW68289  11.505   2.202   4.321  0.1465  0.1145 -0.2914
54535SOL    HW168290  11.480   2.264   4.253  2.5406  1.0495 -0.4099
54535SOL    HW268291  11.435   2.209   4.386 -0.6758  1.4192 -1.2665
54536SOL     OW68292   7.940  11.337   1.327  0.3948  0.3492 -0.1123
54536SOL    HW168293   8.002  11.354   1.255  0.4174 -1.4396 -0.5478
54536SOL    HW268294   7.854  11.352   1.287  0.4367  0.1002 -0.2986
54537SOL     OW68295   0.192   6.878   8.847  0.0757 -0.9211 -0.4105
54537SOL    HW168296   0.203   6.787   8.872 -0.0467 -1.0703 -0.8966
54537SOL    HW268297   0.171   6.923   8.929 -0.3048 -1.3985 -0.2447
54538SOL     OW68298   1.895  10.555   7.652 -0.2122  0.0059  0.1560
54538SOL    HW168299   1.883  10.628   7.591  0.3863  0.7537  0.9147
54538SOL    HW268300   1.916  10.596   7.735 -1.7269 -0.9867  1.0685
54539SOL     OW68301   5.118   3.825   5.220 -0.0987 -0.4551  0.1333
54539SOL    HW168302   5.131   3.824   5.315  0.2819  1.5115  0.1475
54539SOL    HW268303   5.122   3.918   5.196 -0.4772 -0.8807 -1.7780
54540SOL     OW68304   4.368   4.608   5.190 -0.3394  0.3175 -0.0303
54540SOL    HW168305   4.405   4.655   5.265  2.5318  0.9319 -1.6929
54540SOL    HW268306   4.443   4.568   5.147 -2.2122 -2.2444 -1.1620
54541SOL     OW68307  11.163   4.987  10.152  0.6166 -0.6219 -0.0687
54541SOL    HW168308  11.085   4.999  10.098  2.1582  0.2958 -2.2071
54541SOL    HW268309  11.143   5.034  10.234 -1.3067 -1.0223 -0.2514
54542SOL     OW68310   3.097   6.573   1.515 -0.8566 -0.1238 -0.0710
54542SOL    HW168311   3.021   6.612   1.471  0.3533  0.8227 -1.4173
54542SOL    HW268312   3.148   6.534   1.444  1.3215  1.7037  0.3675
54543SOL     OW68313  11.143   8.341  10.460 -0.2066 -0.1985  0.0053
54543SOL    HW168314  11.219   8.286  10.441 -0.8216 -1.1390  0.1845
54543SOL    HW268315  11.161   8.379  10.546  0.5065  0.3759 -0.3986
54544SOL     OW68316   5.855   2.258  11.348 -0.1397  0.1816  0.9659
54544SOL    HW168317   5.871   2.194  11.418 -0.0779 -0.7926  0.0915
54544SOL    HW268318   5.760   2.271  11.350 -0.5728 -2.1175 -0.6279
54545SOL     OW68319   8.624  10.876   5.655 -0.1849  0.3535 -0.3640
54545SOL    HW168320   8.620  10.971   5.646  0.6347  0.7931  2.7205
54545SOL    HW268321   8.567  10.856   5.730  0.5391 -1.4350 -0.2263
54546SOL     OW68322   9.982   9.987   2.886 -0.6172  0.6048  0.0679
54546SOL    HW168323  10.004  10.075   2.855  1.9834 -0.2460 -0.7533
54546SOL    HW268324   9.930  10.002   2.965  0.8991  2.8945  0.7512
54547SOL     OW68325   7.592   0.290   8.615  0.4107 -0.3319  0.7603
54547SOL    HW168326   7.682   0.266   8.591  0.0049 -0.6334 -0.5112
54547SOL    HW268327   7.559   0.340   8.541 -0.9562 -1.4866  0.5337
54548SOL     OW68328   4.531   2.795   3.263  0.0675 -0.1859  0.4918
54548SOL    HW168329   4.471   2.730   3.299  2.0362 -0.8355  2.8446
54548SOL    HW268330   4.612   2.747   3.247  0.2617  0.8104 -1.9659
54549SOL     OW68331  11.144   2.429   7.218 -0.3555 -0.3363 -0.6610
54549SOL    HW168332  11.122   2.403   7.307 -1.1802 -0.2169 -0.8179
54549SOL    HW268333  11.114   2.356   7.164 -0.0324 -0.3238 -0.8621
54550SOL     OW68334  10.459   1.016   2.208  0.0576 -0.7269 -0.1230
54550SOL    HW168335  10.489   1.070   2.135 -0.0588 -1.6681 -0.8814
54550SOL    HW268336  10.459   1.076   2.283 -3.0609  1.2366 -1.4761
54551SOL     OW68337  10.008  10.477   9.292 -0.4772  0.2493  0.3479
54551SOL    HW168338   9.920  10.498   9.260 -0.0889  0.7677 -0.4191
54551SOL    HW268339  10.060  10.555   9.271  0.1872 -0.0881  0.7001
54552SOL     OW68340   0.340  11.126   4.718  0.2924 -0.0445 -0.2032
54552SOL    HW168341   0.391  11.144   4.640  2.1926 -1.3329  0.6636
54552SOL    HW268342   0.360  11.035   4.739 -2.7274 -0.7704 -0.0195
54553SOL     OW68343   1.741   6.458   0.920 -0.5376  0.1861 -0.2363
54553SOL    HW168344   1.680   6.528   0.942 -0.3194 -0.2758  2.0390
54553SOL    HW268345   1.703   6.379   0.958  1.7200 -0.0000  1.8599
54554SOL     OW68346   2.579   6.383   5.091  0.1476  0.1909 -0.5300
54554SOL    HW168347   2.516   6.383   5.163 -2.3243  1.2507 -2.5284
54554SOL    HW268348   2.606   6.292   5.082 -1.1267 -0.3101  0.4023
54555SOL     OW68349   1.941   5.710   5.092 -0.3017  0.5131  0.3948
54555SOL    HW168350   1.913   5.655   5.019  0.0421  0.3855  0.3566
54555SOL    HW268351   1.986   5.784   5.050 -1.1789  1.0786  0.4193
54556SOL     OW68352   0.716   8.725   2.416  0.1811  0.0823  0.4246
54556SOL    HW168353   0.627   8.693   2.434 -0.1663  0.0825 -1.1520
54556SOL    HW268354   0.714   8.817   2.442  0.1663 -0.2708  1.7495
54557SOL     OW68355   7.357   3.849   5.361 -0.1654  0.4528  0.5690
54557SOL    HW168356   7.288   3.802   5.315 -0.5282  1.3535  0.1597
54557SOL    HW268357   7.310   3.916   5.411  0.2877  0.0059  1.6259
54558SOL     OW68358   9.933   3.400   3.679  0.0851 -0.2394  0.1621
54558SOL    HW168359   9.860   3.456   3.655 -0.0387 -0.1187  0.8166
54558SOL    HW268360   9.893   3.322   3.717  0.2718 -0.5735 -0.3183
54559SOL     OW68361  10.799   8.070   6.031  0.2646  0.2052  0.5501
54559SOL    HW168362  10.884   8.086   5.990 -0.4620  0.0541 -1.0598
54559SOL    HW268363  10.799   8.128   6.108  2.4719 -1.0087  1.5716
54560SOL     OW68364   6.009   0.106  11.999  0.2712  0.1085 -0.0074
54560SOL    HW168365   6.094   0.122  12.041 -0.3468  0.7286  1.0515
54560SOL    HW268366   5.960   0.186  12.015 -0.3935 -0.0968 -0.9496
54561SOL     OW68367   9.420   9.038   4.584 -0.6555  0.1462  0.0354
54561SOL    HW168368   9.423   9.119   4.636  0.9456 -0.1211  0.4027
54561SOL    HW268369   9.385   9.066   4.499  2.8059  1.9268 -0.9716
54562SOL     OW68370  11.567  10.093   3.091  0.3588  0.4419  0.4498
54562SOL    HW168371  11.530  10.059   3.173 -2.9506  1.1058 -0.6092
54562SOL    HW268372  11.586  10.015   3.039 -0.0550  0.0599  0.8550
54563SOL     OW68373   6.634   5.626   9.746 -0.5632 -0.5250  0.1860
54563SOL    HW168374   6.611   5.627   9.653 -0.6178  1.6289  0.1651
54563SOL    HW268375   6.650   5.534   9.766  0.6441 -0.9299 -2.2607
54564SOL     OW68376  10.258   6.566   4.772  0.3506 -0.0386  0.5928
54564SOL    HW168377  10.301   6.482   4.790 -0.1769 -0.3265  0.5417
54564SOL    HW268378  10.172   6.558   4.814 -0.8824 -0.6936 -1.8266
54565SOL     OW68379   5.318   3.812   0.677 -0.1192  0.1261 -0.3112
54565SOL    HW168380   5.265   3.822   0.598 -0.3404 -1.3151 -0.3845
54565SOL    HW268381   5.380   3.742   0.656  0.1556  0.0723  0.6141
54566SOL     OW68382   8.380   2.110   5.185 -0.3349 -0.0392 -0.9708
54566SOL    HW168383   8.302   2.158   5.214  0.3705  0.6548 -0.1662
54566SOL    HW268384   8.453   2.165   5.212  0.4986 -1.4603 -0.2499
54567SOL     OW68385  11.746   6.377   8.761 -0.2746  0.1673  0.2442
54567SOL    HW168386  11.765   6.421   8.678  1.1728  1.1711  1.0470
54567SOL    HW268387  11.651   6.369   8.763 -0.3292  0.0786 -1.5207
54568SOL     OW68388  11.468   1.633   3.268 -0.5185 -0.5597 -0.4483
54568SOL    HW168389  11.468   1.678   3.183  3.4724 -0.2468 -0.4572
54568SOL    HW268390  11.480   1.540   3.246  0.7751 -0.4484 -0.2526
54569SOL     OW68391   2.455   5.934  10.561  0.5069  0.8948  0.2386
54569SOL    HW168392   2.397   5.959  10.633 -0.5427  0.4715 -0.4486
54569SOL    HW268393   2.541   5.969  10.587 -0.3394  2.8266  0.5910
54570SOL     OW68394   5.571   8.217  10.598 -0.2360 -0.4828  0.1147
54570SOL    HW168395   5.582   8.172  10.682  0.7341 -1.0937 -0.3288
54570SOL    HW268396   5.566   8.147  10.534 -0.6789 -0.0051 -0.3848
54571SOL     OW68397   7.468   3.506   0.390  0.1993 -0.5992  0.1076
54571SOL    HW168398   7.501   3.440   0.328 -0.2462  0.1729 -0.9706
54571SOL    HW268399   7.474   3.589   0.343  1.2933  0.2524  1.6405
54572SOL     OW68400   0.891   9.220   9.874  0.0406  0.7233  0.3697
54572SOL    HW168401   0.897   9.250   9.964  0.9416  2.2383 -0.1582
54572SOL    HW268402   0.828   9.148   9.877  0.4209  0.3980  2.2722
54573SOL     OW68403   5.027  11.593   2.346 -0.0022  0.4559 -0.4665
54573SOL    HW168404   4.983  11.541   2.414  1.6668 -2.6888 -1.5891
54573SOL    HW268405   4.962  11.600   2.276  0.0503 -1.1626 -0.7265
54574SOL     OW68406   6.479   3.876   7.336  0.2616  0.3369 -0.0403
54574SOL    HW168407   6.390   3.841   7.333  0.7531 -0.8580 -1.5163
54574SOL    HW268408   6.524   3.820   7.399 -0.3923  1.9965  2.0492
54575SOL     OW68409   7.235   2.738   4.309  0.7682  0.1935 -0.1345
54575SOL    HW168410   7.196   2.667   4.258  2.3557  0.7735 -2.3208
54575SOL    HW268411   7.203   2.818   4.268  0.7490  0.7318  0.8876
54576SOL     OW68412   7.645  10.488   0.319 -0.2934 -0.5459  0.5795
54576SOL    HW168413   7.702  10.527   0.253 -0.7884 -1.0624 -0.1656
54576SOL    HW268414   7.690  10.407   0.345  0.8489  0.5785  2.2934
54577SOL     OW68415   2.027   2.724  11.104 -0.3627 -0.1523 -0.4161
54577SOL    HW168416   2.043   2.715  11.010  0.3916  0.7105 -0.3914
54577SOL    HW268417   2.110   2.756  11.139 -0.8913  0.3629  0.4076
54578SOL     OW68418  11.548   2.981   3.128  0.5772 -0.0952 -0.2904
54578SOL    HW168419  11.531   2.894   3.163  1.2633 -0.2799 -0.3934
54578SOL    HW268420  11.621   3.014   3.181  0.2302  0.4786 -0.1585
54579SOL     OW68421   6.816  10.838   3.300 -0.1277 -0.0742 -0.1976
54579SOL    HW168422   6.813  10.813   3.392 -2.0255 -1.4883 -0.5715
54579SOL    HW268423   6.855  10.762   3.256 -0.0987  0.2117 -0.6683
54580SOL     OW68424   3.460  11.451   8.139 -0.4848 -0.0185 -0.1437
54580SOL    HW168425   3.477  11.467   8.232  1.6136  1.7449 -0.7441
54580SOL    HW268426   3.425  11.534   8.106 -1.4404 -0.6963 -0.9195
54581SOL     OW68427   1.296   5.142  10.895 -0.1188  0.3887  0.0940
54581SOL    HW168428   1.330   5.187  10.818  1.7339  2.3864  1.8969
54581SOL    HW268429   1.325   5.052  10.886 -1.0329  0.2634 -2.0854
54582SOL     OW68430  10.701   5.603   7.061 -0.0467  0.3014  0.0163
54582SOL    HW168431  10.693   5.507   7.065 -0.8842  0.3902  0.7299
54582SOL    HW268432  10.622   5.631   7.014  0.3963  0.6240 -0.5480
54583SOL     OW68433   4.973   8.715   5.256 -0.1136  0.1059 -0.0596
54583SOL    HW168434   4.932   8.666   5.327 -1.4332  1.4186  0.1435
54583SOL    HW268435   4.957   8.663   5.178 -0.2769 -0.4406  0.3332
54584SOL     OW68436   2.363   5.695   0.988 -0.3895  0.2743  0.0687
54584SOL    HW168437   2.442   5.741   1.017  0.7944 -1.8507  0.3792
54584SOL    HW268438   2.370   5.693   0.892 -0.4374  0.6865  0.0535
54585SOL     OW68439  11.327   0.863   2.199 -0.2792 -0.3470 -0.0465
54585SOL    HW168440  11.421   0.845   2.203 -0.2839 -0.3495  0.0517
54585SOL    HW268441  11.286   0.777   2.201 -0.2735 -0.3564 -0.3710
54586SOL     OW68442   2.635   4.794   0.248  0.6932  0.3953 -0.0492
54586SOL    HW168443   2.721   4.815   0.212 -0.6834  0.5845 -3.6877
54586SOL    HW268444   2.632   4.699   0.252  1.3530  0.4034  1.0244
54587SOL     OW68445   6.181   8.757  11.114  0.0487 -0.2020 -0.1950
54587SOL    HW168446   6.237   8.758  11.036  0.1307 -0.9525 -0.1522
54587SOL    HW268447   6.139   8.672  11.112 -0.2546 -0.0686  0.3720
54588SOL     OW68448   1.837  11.541   3.355 -0.7156  0.2640  0.0222
54588SOL    HW168449   1.886  11.510   3.278  0.7296 -0.0119  1.0011
54588SOL    HW268450   1.877  11.625   3.376 -0.4403 -0.1037  1.0174
54589SOL     OW68451  10.444   3.168   2.147 -0.0281 -0.0631 -0.2495
54589SOL    HW168452  10.423   3.087   2.194  2.0764 -0.5606 -0.0700
54589SOL    HW268453  10.452   3.234   2.216 -0.9330  0.1226 -0.3168
54590SOL     OW68454   5.493  11.546   9.842  0.3535  0.1752  0.1575
54590SOL    HW168455   5.447  11.520   9.763 -0.4397  0.1180  0.6296
54590SOL    HW268456   5.440  11.615   9.880 -0.0910 -0.8088  1.4233
54591SOL     OW68457   0.671   1.215   0.574 -0.7122  0.4319  0.8365
54591SOL    HW168458   0.619   1.191   0.498 -1.1748  1.3881  0.8397
54591SOL    HW268459   0.759   1.229   0.540 -1.3916  3.2309 -0.0066
54592SOL     OW68460   8.161   5.246   7.598  0.2940 -0.1935 -0.0507
54592SOL    HW168461   8.071   5.261   7.568  0.3016 -0.7085 -0.3475
54592SOL    HW268462   8.161   5.155   7.628  1.0245 -0.6107 -1.2204
54593SOL     OW68463   8.665   3.690   9.969 -0.2736  0.8084  0.2195
54593SOL    HW168464   8.748   3.646   9.950 -1.0013 -0.6771  0.3482
54593SOL    HW268465   8.670   3.712  10.062  0.1265  1.0978  0.1345
54594SOL     OW68466   6.027   3.263   3.733 -0.3543  0.0772  0.2776
54594SOL    HW168467   5.974   3.288   3.808 -0.1542  0.0255  0.4352
54594SOL    HW268468   5.965   3.220   3.673 -0.3780 -0.5084  0.7158
54595SOL     OW68469   5.331   7.264   3.227  0.3810 -0.7577 -0.0753
54595SOL    HW168470   5.291   7.204   3.291  0.8171 -0.5280  0.4160
54595SOL    HW268471   5.263   7.329   3.210 -0.0251 -1.2765 -0.4598
54596SOL     OW68472   7.923   1.757   1.330  0.3785  0.3624  0.2129
54596SOL    HW168473   7.952   1.848   1.322 -0.9522  0.7369 -0.4842
54596SOL    HW268474   7.990   1.716   1.385  1.0345  1.7400  0.4830
54597SOL     OW68475   7.215   2.141   4.579 -0.4029  0.2651  0.4344
54597SOL    HW168476   7.283   2.075   4.566  0.6865  1.7282 -2.1566
54597SOL    HW268477   7.244   2.192   4.654  0.7065  0.0823  0.1389
54598SOL     OW68478   9.019   0.133   8.936 -0.2003  0.1122 -0.0185
54598SOL    HW168479   8.996   0.139   8.843 -0.0361 -0.7946 -0.1294
54598SOL    HW268480   8.973   0.206   8.977 -0.8052  0.1357 -0.7118
54599SOL     OW68481   5.958   2.484   7.657 -0.1186 -0.0842 -0.0938
54599SOL    HW168482   5.960   2.425   7.581 -1.1994 -0.9196  0.4890
54599SOL    HW268483   6.048   2.516   7.665  0.6090 -1.9532 -0.2218
54600SOL     OW68484   0.463  10.340   4.822 -0.1775 -0.0125  0.0104
54600SOL    HW168485   0.443  10.248   4.839 -1.6763  0.1412 -0.7778
54600SOL    HW268486   0.558  10.346   4.831  0.0609 -1.8384 -0.8675
54601SOL     OW68487   8.735   8.397  11.615 -0.4616  0.3308  0.2635
54601SOL    HW168488   8.759   8.305  11.625 -0.4629  0.3497  0.4532
54601SOL    HW268489   8.806   8.435  11.563 -0.5280  0.1933  0.0734
54602SOL     OW68490   4.518   1.671   5.654  0.0855  0.5382  0.4572
54602SOL    HW168491   4.489   1.721   5.730 -1.0766 -0.0758  0.4433
54602SOL    HW268492   4.473   1.587   5.662  1.5597 -0.3117  0.1820
54603SOL     OW68493   4.908   7.377   3.643  0.0555 -0.4224 -0.6688
54603SOL    HW168494   4.901   7.412   3.554 -0.7648  0.9200 -0.1113
54603SOL    HW268495   4.826   7.404   3.685  2.0613  2.6340  1.7083
54604SOL     OW68496   3.500   7.256   8.896  0.2913  0.4088  0.6702
54604SOL    HW168497   3.433   7.238   8.962 -1.7888 -0.1789 -1.4716
54604SOL    HW268498   3.464   7.327   8.843  3.4446  3.3894  2.1019
54605SOL     OW68499   8.271   4.536   8.988  0.2282 -0.4332  0.9962
54605SOL    HW168500   8.227   4.456   8.960 -1.5524  0.4804  1.0430
54605SOL    HW268501   8.248   4.601   8.922 -0.4609  0.6631  2.2622
54606SOL     OW68502   2.877   0.840   0.146  0.0279  0.1789  0.2839
54606SOL    HW168503   2.870   0.888   0.228  1.0891 -0.5387  0.8133
54606SOL    HW268504   2.963   0.865   0.111  0.7076 -1.4901  0.6878
54607SOL     OW68505   8.387   1.608   7.076 -0.2365 -0.7335 -0.4852
54607SOL    HW168506   8.475   1.615   7.113 -0.7498  0.1936  0.6365
54607SOL    HW268507   8.342   1.546   7.134 -0.1773 -1.6277 -1.3744
54608SOL     OW68508   7.718   1.150   9.400 -0.4178 -0.2555  0.1490
54608SOL    HW168509   7.786   1.125   9.338  0.8881 -0.2483  1.5346
54608SOL    HW268510   7.717   1.246   9.396 -0.7102 -0.2710 -0.2335
54609SOL     OW68511   9.926   3.154   8.000  0.1180  0.3823  0.0768
54609SOL    HW168512   9.874   3.220   7.954  1.4064  2.2600  1.1954
54609SOL    HW268513   9.989   3.122   7.935 -0.0183  0.8024 -0.2639
54610SOL     OW68514   1.444   8.946  10.871 -0.0389 -0.4811  0.4201
54610SOL    HW168515   1.393   8.916  10.796  2.0712 -1.2705 -0.7813
54610SOL    HW268516   1.487   9.026  10.840  0.9376 -0.8694  0.7255
54611SOL     OW68517  10.336   7.028   3.203  0.0891 -0.1866  0.1552
54611SOL    HW168518  10.330   6.994   3.293 -2.2088 -0.1002  0.1024
54611SOL    HW268519  10.250   7.066   3.187  0.6975  0.4316 -1.8634
54612SOL     OW68520   0.327   6.073   9.162 -0.2106  0.2122 -0.2311
54612SOL    HW168521   0.345   6.023   9.082  2.4639  0.0098  0.3920
54612SOL    HW268522   0.392   6.041   9.225 -2.2855  0.3137  2.0901
54613SOL     OW68523   2.633   9.409   4.266 -0.3663 -0.1706 -0.2975
54613SOL    HW168524   2.695   9.466   4.310 -1.2791  0.5282  0.1131
54613SOL    HW268525   2.547   9.448   4.283 -0.8942 -0.8827 -1.1919
54614SOL     OW68526   7.167   1.156   3.037  0.3130  0.1792  0.3811
54614SOL    HW168527   7.222   1.141   3.114 -1.1969  1.9919  1.9238
54614SOL    HW268528   7.150   1.069   3.001  2.1935 -0.5827  1.2657
54615SOL     OW68529   9.643   8.346  11.392  0.3473  0.3307  0.4304
54615SOL    HW168530   9.658   8.307  11.478  2.8233  1.2126  0.4723
54615SOL    HW268531   9.674   8.280  11.330  1.0659  0.7353  0.3488
54616SOL     OW68532  11.112   5.432   0.719  0.2482  0.6090 -0.1414
54616SOL    HW168533  11.041   5.461   0.775  1.2288  0.5280  1.1869
54616SOL    HW268534  11.184   5.493   0.737  0.7890  0.2058 -0.8472
54617SOL     OW68535   8.590   6.454   9.150  0.1063  0.7271  0.3645
54617SOL    HW168536   8.677   6.490   9.136 -0.0313  0.6625 -0.7716
54617SOL    HW268537   8.533   6.531   9.157 -0.0919  0.7782 -1.4018
54618SOL     OW68538   1.715   4.597   4.310  0.8223  0.0866  0.0826
54618SOL    HW168539   1.726   4.523   4.249  0.5470  0.2203 -0.1318
54618SOL    HW268540   1.738   4.561   4.396  0.3310 -0.3515  0.0341
54619SOL     OW68541   2.466   6.972  10.224 -0.3250 -0.2388 -0.5234
54619SOL    HW168542   2.500   7.004  10.141  2.7195  0.1944  0.7687
54619SOL    HW268543   2.486   6.879  10.224 -0.0427 -0.1806 -0.1714
54620SOL     OW68544  10.274  11.162   7.018 -0.4719  0.8814 -0.1893
54620SOL    HW168545  10.235  11.091   7.069 -0.0543 -0.7908 -2.0649
54620SOL    HW268546  10.214  11.175   6.944  0.1611  1.4912 -0.6163
54621SOL     OW68547   1.889   5.081   3.324  0.0752 -0.4401 -0.3433
54621SOL    HW168548   1.980   5.111   3.324  0.1052 -0.3792 -2.5296
54621SOL    HW268549   1.845   5.136   3.389  1.4807 -0.1225  0.3760
54622SOL     OW68550  10.250   1.394   0.605  0.4270 -0.0755 -0.0496
54622SOL    HW168551  10.281   1.340   0.532  1.1296  0.8368 -0.4361
54622SOL    HW268552  10.155   1.379   0.606  0.2076  0.8948 -1.9894
54623SOL     OW68553   2.443   9.358   3.395 -0.0058 -0.5831  0.0242
54623SOL    HW168554   2.533   9.344   3.424  0.8294  1.1357 -1.5195
54623SOL    HW268555   2.431   9.293   3.325 -1.0287 -2.7575  2.0870
54624SOL     OW68556   9.312   7.790   2.717  0.1333 -0.5194 -0.6244
54624SOL    HW168557   9.236   7.734   2.730  1.4983 -2.0385  1.3391
54624SOL    HW268558   9.283   7.876   2.748 -0.7502 -1.1023  0.2505
54625SOL     OW68559   7.520   0.687   4.183  0.2964 -0.2945  0.3106
54625SOL    HW168560   7.614   0.670   4.192  0.0373 -1.3352  1.3497
54625SOL    HW268561   7.507   0.771   4.226  0.7180 -0.2556  0.3735
54626SOL     OW68562   7.711   1.692   9.251 -0.7687 -0.3837  0.0346
54626SOL    HW168563   7.686   1.726   9.337 -1.0374 -1.8021  0.5503
54626SOL    HW268564   7.629   1.661   9.212 -0.5926 -0.1119 -0.5761
54627SOL     OW68565   2.095  10.116   6.609  0.0715  0.3952  0.1692
54627SOL    HW168566   2.036  10.045   6.636  0.9147  0.3536  2.1174
54627SOL    HW268567   2.182  10.076   6.613  0.3969  0.9838 -0.8003
54628SOL     OW68568   5.568   2.617   6.487 -0.0539  0.6138 -0.2973
54628SOL    HW168569   5.493   2.660   6.447 -0.5636 -0.9086 -1.0401
54628SOL    HW268570   5.632   2.687   6.501 -1.0550  1.6797 -0.9645
54629SOL     OW68571  11.466  10.924   6.872 -0.0025 -0.1491 -0.4314
54629SOL    HW168572  11.425  11.001   6.912  1.0697  0.7170 -0.9337
54629SOL    HW268573  11.542  10.905   6.928  1.8899  1.4710 -2.2861
54630SOL     OW68574   3.612   0.816   7.665 -0.6914 -0.0839 -0.5555
54630SOL    HW168575   3.692   0.764   7.664  0.2045  1.2366  0.2786
54630SOL    HW268576   3.612   0.862   7.581 -0.6177 -0.1397 -0.5869
54631SOL     OW68577   5.259  11.166   2.678  0.1530 -0.3934 -0.7186
54631SOL    HW168578   5.347  11.132   2.662  0.6635  0.0773  0.9187
54631SOL    HW268579   5.260  11.191   2.770 -1.6350 -0.1669 -0.7403
54632SOL     OW68580   2.523  11.941   6.395  0.4798  0.7770 -0.5862
54632SOL    HW168581   2.478  11.927   6.479 -0.4029 -0.1984 -1.1937
54632SOL    HW268582   2.557  12.030   6.401 -1.4775  1.5431 -0.0369
54633SOL     OW68583   2.289   1.915   8.317  0.0433 -0.2346 -0.0325
54633SOL    HW168584   2.330   1.918   8.231 -0.5571  0.5793 -0.3039
54633SOL    HW268585   2.359   1.886   8.376  1.4828  2.5345 -0.2212
54634SOL     OW68586   5.976   4.199   3.431  0.0981  0.3684  1.0918
54634SOL    HW168587   5.905   4.259   3.409  0.3447 -0.1563 -1.5234
54634SOL    HW268588   5.948   4.157   3.512 -1.6951  1.5038  1.1107
54635SOL     OW68589   6.028  10.202   8.097  0.2426  0.1069  1.1109
54635SOL    HW168590   6.115  10.220   8.062 -0.2239 -1.5089 -1.1823
54635SOL    HW268591   5.972  10.268   8.055 -0.0441 -0.7338  0.1084
54636SOL     OW68592   1.712  10.510   5.750  0.3951 -0.0600 -0.0023
54636SOL    HW168593   1.774  10.520   5.677  1.2315  3.0217  0.9768
54636SOL    HW268594   1.691  10.599   5.776 -2.1920 -1.0414  1.6748
54637SOL     OW68595   9.252   0.693   3.487 -0.0551  0.4893  0.6275
54637SOL    HW168596   9.259   0.600   3.508 -0.7983  0.5853  1.3407
54637SOL    HW268597   9.237   0.695   3.393 -2.5260 -0.2674  0.9425
54638SOL     OW68598   8.076  11.862   8.537  0.4369  0.6933 -0.5005
54638SOL    HW168599   8.027  11.944   8.533 -0.1039  0.3481 -0.9415
54638SOL    HW268600   8.033  11.805   8.474 -0.2149 -0.4951  0.9665
54639SOL     OW68601  10.935  10.567  10.447 -0.5594  0.0755 -0.1110
54639SOL    HW168602  10.915  10.495  10.508 -1.4688 -1.0521 -1.6599
54639SOL    HW268603  10.851  10.609  10.431 -0.6868 -0.7027 -1.8061
54640SOL     OW68604   4.012   6.639   4.622 -0.0259 -0.2007 -0.1813
54640SOL    HW168605   4.064   6.719   4.627  1.1004 -0.6638 -2.7296
54640SOL    HW268606   3.922   6.670   4.614  0.4247  0.8617 -1.5296
54641SOL     OW68607   0.774   0.195  10.710 -0.0999  0.4623  0.3472
54641SOL    HW168608   0.788   0.126  10.775 -0.7569  0.4946  0.5241
54641SOL    HW268609   0.725   0.153  10.640  2.4681 -0.1730 -1.2057
54642SOL     OW68610  10.189   2.981   9.797 -0.5200  0.1466 -0.4169
54642SOL    HW168611  10.173   3.075   9.808 -1.4428 -0.1260  0.8002
54642SOL    HW268612  10.165   2.963   9.706 -5.2402  0.2438  0.5646
54643SOL     OW68613   3.208   5.238   0.691  0.1327 -0.1150 -0.3889
54643SOL    HW168614   3.232   5.304   0.625  0.1949  0.3324  0.0768
54643SOL    HW268615   3.272   5.250   0.761  0.1568 -0.6925 -0.3109
54644SOL     OW68616   0.972   3.437  10.590  0.5532  0.7703  0.0637
54644SOL    HW168617   1.036   3.379  10.632  0.2828 -0.1230 -0.7404
54644SOL    HW268618   0.919   3.379  10.536  0.3375  1.7883 -0.8361
54645SOL     OW68619   9.942   6.213   0.514  0.5255  0.4008  0.4944
54645SOL    HW168620  10.031   6.181   0.495 -0.0491 -0.7811 -0.3807
54645SOL    HW268621   9.954   6.278   0.583  2.0721  0.2727  0.3903
54646SOL     OW68622   2.456   3.388   4.136 -0.5745 -0.1616  0.2847
54646SOL    HW168623   2.433   3.298   4.159  0.1535  0.0195  1.9081
54646SOL    HW268624   2.385   3.418   4.079 -1.7035 -1.2146  1.1000
54647SOL     OW68625  11.445   8.957   0.949  0.4488 -0.1417  0.4185
54647SOL    HW168626  11.433   8.884   0.889 -0.3521  0.1965  0.1474
54647SOL    HW268627  11.516   8.930   1.007  2.3200  0.1392 -1.6054
54648SOL     OW68628   9.946  11.779   7.540  0.1426 -0.2949 -0.2642
54648SOL    HW168629   9.881  11.792   7.470  1.2930 -0.5780 -1.4091
54648SOL    HW268630   9.903  11.815   7.618 -1.6435 -1.0469 -0.8448
54649SOL     OW68631   4.718   3.114   2.208 -0.4135  0.9974 -0.6703
54649SOL    HW168632   4.720   3.107   2.112 -2.1896 -0.3109 -0.6550
54649SOL    HW268633   4.811   3.112   2.233  0.0860  1.1507 -2.3295
54650SOL     OW68634   0.384   3.670  11.667  0.1315 -0.2596  0.0775
54650SOL    HW168635   0.351   3.584  11.694 -1.3983  0.5689  1.0272
54650SOL    HW268636   0.335   3.691  11.588  0.3639 -0.1871 -0.0477
54651SOL     OW68637   0.733  11.234   7.270 -0.1372  0.1880 -0.5159
54651SOL    HW168638   0.781  11.206   7.347 -1.2504 -0.3891 -0.0136
54651SOL    HW268639   0.698  11.320   7.293  1.1586  0.8994 -1.1192
54652SOL     OW68640   0.046  11.878   4.486 -0.0037  0.9491  0.2749
54652SOL    HW168641   0.089  11.806   4.442  0.6141 -0.2599  2.7058
54652SOL    HW268642   0.081  11.957   4.444  0.7787 -0.0989 -1.1051
54653SOL     OW68643   0.916   5.278   7.629  0.3669 -0.9669  0.3335
54653SOL    HW168644   0.905   5.230   7.546 -1.7616 -1.0102  0.5913
54653SOL    HW268645   0.921   5.210   7.696 -0.1136 -0.8940  0.4474
54654SOL     OW68646   1.690   7.292   2.678  0.5204  0.1604  0.0323
54654SOL    HW168647   1.768   7.237   2.681 -0.6445 -1.6781 -1.1462
54654SOL    HW268648   1.649   7.270   2.594 -0.8832  1.6380  0.2820
54655SOL     OW68649   0.387   4.027   8.972  0.0040  0.3513 -0.2569
54655SOL    HW168650   0.362   4.080   8.897  0.4020  0.6926 -0.1526
54655SOL    HW268651   0.304   4.006   9.015 -0.1008  1.6574  0.2113
54656SOL     OW68652   0.473   9.575   1.754 -0.7648 -0.2970  0.7848
54656SOL    HW168653   0.504   9.664   1.767 -1.6808  0.0069  0.9250
54656SOL    HW268654   0.380   9.584   1.733 -1.2181 -1.2783  2.2004
54657SOL     OW68655   1.987   9.420   0.855  0.4873 -0.7026 -0.3551
54657SOL    HW168656   1.916   9.480   0.879  0.7545 -0.4248 -0.2408
54657SOL    HW268657   1.949   9.364   0.788  0.5076  0.2158 -1.1542
54658SOL     OW68658   9.863   1.459   2.280  0.2591 -0.5457 -0.2015
54658SOL    HW168659   9.929   1.391   2.267  0.4619 -0.5465  0.7427
54658SOL    HW268660   9.854   1.500   2.194  1.5897 -0.4543 -0.3206
54659SOL     OW68661  11.634  10.600   3.409  0.1446  0.0681  0.0070
54659SOL    HW168662  11.632  10.604   3.505  0.3805  0.0257  0.0135
54659SOL    HW268663  11.585  10.521   3.388  0.1347  0.0506  0.0947
54660SOL     OW68664   9.961   7.142  11.597 -0.6881  0.1026  0.1696
54660SOL    HW168665  10.037   7.119  11.651  0.1572 -2.3466 -1.8491
54660SOL    HW268666   9.900   7.070  11.610 -1.6485  0.8496 -0.0854
54661SOL     OW68667  10.264   9.335   0.675  0.2174  0.1956 -0.2606
54661SOL    HW168668  10.175   9.337   0.640  0.3440  2.8100 -0.5530
54661SOL    HW268669  10.318   9.379   0.610  1.3548  0.5545  0.8693
54662SOL     OW68670   5.057   5.631   7.068  0.2825  0.4048  0.3506
54662SOL    HW168671   5.037   5.601   7.156  1.5241  0.9162  0.8309
54662SOL    HW268672   4.998   5.582   7.012  1.1059 -1.7037  1.2393
54663SOL     OW68673   0.861  11.674  10.848  0.5555  0.0383 -0.3555
54663SOL    HW168674   0.776  11.630  10.852  0.0665  0.9711 -0.2746
54663SOL    HW268675   0.870  11.701  10.756  1.1519 -0.7734 -0.5556
54664SOL     OW68676   8.855   3.517  10.230  0.0814 -0.1222 -0.2100
54664SOL    HW168677   8.814   3.561  10.305 -0.8171  0.7860 -1.1948
54664SOL    HW268678   8.929   3.470  10.267  0.5253  1.4840  1.0370
54665SOL     OW68679   5.552   9.902   7.182  0.5521  0.0925 -0.0868
54665SOL    HW168680   5.601   9.885   7.263 -0.0034 -1.0185  0.0394
54665SOL    HW268681   5.464   9.923   7.211  0.7034  1.1790 -0.3578
54666SOL     OW68682  11.107  10.632   9.346  0.1100  0.4799  0.1650
54666SOL    HW168683  11.105  10.552   9.293 -0.3224 -0.8782  2.1087
54666SOL    HW268684  11.177  10.618   9.409 -0.1784  1.4898  0.7425
54667SOL     OW68685   1.468  10.369   3.921  0.0038  0.2921 -0.7905
54667SOL    HW168686   1.434  10.280   3.917 -0.0399  0.3205 -1.0575
54667SOL    HW268687   1.458  10.403   3.831 -1.5706  1.1622 -0.3289
54668SOL     OW68688   8.889   8.762   1.316 -0.0996  0.0371  0.0308
54668SOL    HW168689   8.884   8.707   1.394  0.1205  1.3069  0.9926
54668SOL    HW268690   8.922   8.846   1.349  0.4918  0.4506 -1.5239
54669SOL     OW68691   9.271  11.407   7.708  0.2572 -0.1841  0.2201
54669SOL    HW168692   9.232  11.473   7.766 -0.1922 -0.8757  0.7265
54669SOL    HW268693   9.327  11.457   7.649 -1.3843  0.8675 -0.5422
54670SOL     OW68694   1.624   7.776  10.324 -0.3128 -0.3904 -0.0547
54670SOL    HW168695   1.690   7.730  10.375  1.4463  1.7013 -0.2725
54670SOL    HW268696   1.660   7.780  10.235 -0.6303  0.8623 -0.1540
54671SOL     OW68697   8.643   8.952   0.622 -0.0850 -0.0792  0.4831
54671SOL    HW168698   8.706   8.881   0.621  1.9832  1.6447 -1.3755
54671SOL    HW268699   8.562   8.912   0.654  1.0519 -3.1286 -0.1509
54672SOL     OW68700   0.124  10.676   3.763  0.2053 -0.2464 -0.2229
54672SOL    HW168701   0.168  10.707   3.843  2.2798 -0.7420 -1.0997
54672SOL    HW268702   0.048  10.732   3.754  0.4791  0.4805  1.5603
54673SOL     OW68703  11.153   8.260   1.752  0.5742 -0.2044 -0.0302
54673SOL    HW168704  11.078   8.308   1.718  2.0927  0.9896 -1.8996
54673SOL    HW268705  11.134   8.168   1.734  0.3237  0.2219 -2.2140
54674SOL     OW68706   0.350   4.957   8.852  0.7550  0.2864  0.5100
54674SOL    HW168707   0.302   4.987   8.929 -0.6351  2.0051 -0.9455
54674SOL    HW268708   0.309   4.873   8.829  2.0854 -0.9560  2.3410
54675SOL     OW68709   3.806   2.024  11.963  0.1581  0.4391 -1.2945
54675SOL    HW168710   3.892   2.041  12.001 -0.0396  0.7165 -0.9716
54675SOL    HW268711   3.744   2.064  12.024 -0.3145 -1.2137 -0.6404
54676SOL     OW68712   8.297   0.318   8.859  0.4925 -0.6379  0.3014
54676SOL    HW168713   8.343   0.279   8.785  0.3131 -1.3635  0.5566
54676SOL    HW268714   8.204   0.298   8.843  0.3660 -0.0601  0.2929
54677SOL     OW68715  11.996   2.098   7.482  0.4253  0.0100  0.3168
54677SOL    HW168716  11.984   2.160   7.553  1.0426 -0.7694  1.1249
54677SOL    HW268717  11.971   2.013   7.518  0.9886 -0.4389 -0.3074
54678SOL     OW68718   3.994  10.534   5.050 -0.0293  0.3396 -0.2344
54678SOL    HW168719   4.078  10.530   5.095 -0.9774  2.3978  1.9217
54678SOL    HW268720   3.991  10.622   5.013 -1.7467  0.7983  0.8921
54679SOL     OW68721   6.371   0.736   0.381  0.4317 -0.6249 -0.0337
54679SOL    HW168722   6.293   0.683   0.394 -0.6396  0.8812 -0.0360
54679SOL    HW268723   6.444   0.677   0.399 -0.7085 -2.0138  0.1638
54680SOL     OW68724   2.809   0.486   1.693 -0.1463  0.1225 -0.0548
54680SOL    HW168725   2.882   0.440   1.734 -0.9379 -0.4652  0.7271
54680SOL    HW268726   2.809   0.455   1.602 -0.2321 -0.8871  0.2815
54681SOL     OW68727   5.916   6.709   9.806  0.5045 -0.3161  0.3323
54681SOL    HW168728   5.875   6.626   9.784  0.8569 -0.5163  0.4290
54681SOL    HW268729   5.895   6.767   9.733 -1.2095  0.0376  1.0535
54682SOL     OW68730   7.568  10.886   7.977 -0.0085  0.0721 -0.2360
54682SOL    HW168731   7.649  10.839   7.961 -0.0768 -0.2007  0.2305
54682SOL    HW268732   7.586  10.943   8.051 -0.6650 -1.0463  0.8137
54683SOL     OW68733   5.280   2.863   8.080 -0.4979 -0.2126  0.1016
54683SOL    HW168734   5.193   2.901   8.075  0.0377  1.0938  0.4411
54683SOL    HW268735   5.293   2.822   7.994 -0.6093  1.4882 -0.7607
54684SOL     OW68736   4.212   3.798   0.333 -0.4593 -0.3232  0.0142
54684SOL    HW168737   4.187   3.890   0.333 -2.5255 -0.7780 -2.1820
54684SOL    HW268738   4.204   3.771   0.424  0.2225  1.6558  0.7073
54685SOL     OW68739   3.739   6.130   9.544  0.9391 -0.5482 -0.3674
54685SOL    HW168740   3.805   6.062   9.531 -0.1779 -1.7784  0.0554
54685SOL    HW268741   3.681   6.121   9.469  0.8477  0.0147 -0.3615
54686SOL     OW68742   9.910   5.931   1.080  0.3465 -0.9600 -0.5347
54686SOL    HW168743   9.824   5.932   1.121  0.7580 -0.2428  0.3541
54686SOL    HW268744   9.897   5.885   0.998 -1.0898 -0.0494 -0.8619
54687SOL     OW68745   0.300   2.498   6.081  0.7937 -0.3886  0.2293
54687SOL    HW168746   0.303   2.408   6.048  0.9764 -0.8002  1.3153
54687SOL    HW268747   0.354   2.496   6.160  0.7569  0.6653  0.2895
54688SOL     OW68748   7.749  10.702   2.707  0.0313 -0.4039  0.0639
54688SOL    HW168749   7.774  10.700   2.615 -3.0469 -0.5589 -0.8820
54688SOL    HW268750   7.736  10.610   2.731 -1.9058 -0.2547 -0.2570
54689SOL     OW68751   3.517   3.285   4.447  0.0992 -0.0445  0.0393
54689SOL    HW168752   3.422   3.290   4.442 -0.0616 -1.3201  1.2350
54689SOL    HW268753   3.541   3.352   4.510  0.0869  0.7621 -0.7844
54690SOL     OW68754   8.018   7.541   0.753 -0.2284  0.0548 -0.0058
54690SOL    HW168755   8.070   7.524   0.832  0.2359 -1.6959 -0.6458
54690SOL    HW268756   8.005   7.454   0.714 -0.8441  0.8394 -1.6154
54691SOL     OW68757   1.902  11.792  10.563  0.0169 -0.4125  0.4425
54691SOL    HW168758   1.961  11.735  10.515 -1.0326 -1.4259  0.3123
54691SOL    HW268759   1.885  11.865  10.503  0.3747 -0.5981  0.1136
54692SOL     OW68760   9.819   0.122   3.387  0.2562  0.4751  0.1884
54692SOL    HW168761   9.824   0.045   3.330 -0.5570  0.2101  0.4502
54692SOL    HW268762   9.909   0.137   3.416  0.2899 -1.0312  0.9695
54693SOL     OW68763   8.833   0.745  11.937 -0.2056  0.1071  0.3717
54693SOL    HW168764   8.789   0.662  11.915  1.8387 -1.6814  2.4627
54693SOL    HW268765   8.777   0.783  12.005 -1.1572  0.4924 -0.5975
54694SOL     OW68766   5.369   5.726   4.787 -0.5808  0.2019  0.1887
54694SOL    HW168767   5.409   5.723   4.701 -2.2347 -0.5749 -0.5982
54694SOL    HW268768   5.376   5.637   4.821 -0.3200  0.4059  0.6960
54695SOL     OW68769   9.331  10.883   4.764 -0.6816  0.4559 -0.0287
54695SOL    HW168770   9.245  10.901   4.727 -0.6736  1.0756  0.2380
54695SOL    HW268771   9.347  10.956   4.823  1.0309  1.5698 -1.7785
54696SOL     OW68772  10.895   9.258   0.099 -0.0917 -0.8032 -0.0179
54696SOL    HW168773  10.980   9.213   0.105  0.6061  0.5775  1.2047
54696SOL    HW268774  10.883   9.274   0.005  2.3116  1.2229 -0.0994
54697SOL     OW68775   5.327   3.295   9.632  0.7640 -0.3283  0.2265
54697SOL    HW168776   5.274   3.287   9.553  2.1959  0.5541 -0.8593
54697SOL    HW268777   5.346   3.205   9.657  0.6433 -0.6130 -0.6745
54698SOL     OW68778  11.780   4.735   4.612 -0.8157  0.1441  0.2124
54698SOL    HW168779  11.765   4.695   4.697  0.0351  0.5057  0.5383
54698SOL    HW268780  11.812   4.663   4.557  2.5070  0.6308  1.2825
54699SOL     OW68781  11.121   6.370   7.237 -0.8084 -0.6788  0.1410
54699SOL    HW168782  11.038   6.406   7.268 -0.5281 -1.5831  2.1086
54699SOL    HW268783  11.097   6.287   7.195 -0.9063 -0.9488  0.7235
54700SOL     OW68784   5.193   0.895   8.659  0.4299 -0.0907  0.2786
54700SOL    HW168785   5.183   0.981   8.620  1.1160  0.5401  1.4322
54700SOL    HW268786   5.111   0.850   8.640 -1.6221  2.1703  2.9279
54701SOL     OW68787  11.160   6.819   5.103 -0.0816  0.1869 -0.2486
54701SOL    HW168788  11.171   6.879   5.029  2.0846  0.5264  0.2782
54701SOL    HW268789  11.173   6.874   5.181 -1.5752 -0.3126  0.3905
54702SOL     OW68790   5.930  10.406   9.157 -0.0355  0.2162 -0.1801
54702SOL    HW168791   5.997  10.449   9.104 -0.8539  2.5221  0.5461
54702SOL    HW268792   5.847  10.443   9.127 -0.6147  0.7393  1.8813
54703SOL     OW68793   7.847   0.896  10.661 -0.5114  0.1581 -0.0344
54703SOL    HW168794   7.795   0.816  10.665  0.4380 -0.4519  0.5758
54703SOL    HW268795   7.890   0.901  10.746  0.4098  0.6474 -0.5144
54704SOL     OW68796  11.380   4.774   7.335  0.1025 -0.0467 -0.3838
54704SOL    HW168797  11.391   4.797   7.243  0.1771 -1.5454 -0.7750
54704SOL    HW268798  11.468   4.752   7.366 -0.3181 -3.2664 -1.0645
54705SOL     OW68799   9.588  11.978   4.705 -0.3352  0.5039  0.4303
54705SOL    HW168800   9.573  12.069   4.681 -1.1853  0.3707  0.4289
54705SOL    HW268801   9.522  11.960   4.772  0.0486 -0.0167  0.6801
54706SOL     OW68802  11.457  10.647   6.611  0.4595 -0.3578  0.0980
54706SOL    HW168803  11.396  10.584   6.651 -0.2759  0.2623 -0.0246
54706SOL    HW268804  11.544  10.612   6.630  0.0638 -1.9690 -0.8407
54707SOL     OW68805   5.917  11.214   7.516 -0.0529 -0.4656 -0.5815
54707SOL    HW168806   5.934  11.123   7.494 -0.4803 -0.8655  0.6438
54707SOL    HW268807   6.001  11.258   7.503  0.7141 -1.4554  0.7842
54708SOL     OW68808   2.734   5.541   2.819  0.3486  0.2604  0.4806
54708SOL    HW168809   2.790   5.619   2.819  2.0252 -0.8339  2.5555
54708SOL    HW268810   2.778   5.480   2.761 -0.9941  0.7939 -1.1860
54709SOL     OW68811  10.044   6.498   9.069  0.2537  0.4170 -0.1514
54709SOL    HW168812  10.117   6.560   9.075  0.1424  0.5493 -0.1552
54709SOL    HW268813  10.080   6.415   9.101  0.0907  0.7428  0.8867
54710SOL     OW68814   7.720   1.209   0.624  0.2062 -0.0673  0.3706
54710SOL    HW168815   7.774   1.283   0.596  0.8365 -0.4464  0.5553
54710SOL    HW268816   7.753   1.187   0.711  1.4364 -1.8335 -0.4611
54711SOL     OW68817   3.189   1.254   0.177  0.1157  0.1237 -0.0407
54711SOL    HW168818   3.273   1.246   0.132  0.1818 -0.7463  0.2100
54711SOL    HW268819   3.211   1.286   0.264  0.1566  0.2393 -0.0943
54712SOL     OW68820   9.567  11.382   8.735  0.2934 -0.5408  0.2900
54712SOL    HW168821   9.541  11.419   8.650  0.3896  0.7366  0.7978
54712SOL    HW268822   9.652  11.341   8.718  0.6059  0.2545 -0.0889
54713SOL     OW68823   8.916   7.277   4.491  0.3851  0.1187  0.5818
54713SOL    HW168824   8.955   7.190   4.487 -0.9904 -0.5269  0.5069
54713SOL    HW268825   8.947   7.321   4.412 -0.3523 -0.9687 -0.3552
54714SOL     OW68826  11.185   5.041   0.394 -0.0607 -0.3699  0.5539
54714SOL    HW168827  11.116   4.995   0.441 -2.2783  0.7371 -1.4278
54714SOL    HW268828  11.162   5.134   0.402  1.1732  0.0336 -0.2187
54715SOL     OW68829  11.517  11.208  11.330 -0.2528 -0.4358 -0.0068
54715SOL    HW168830  11.449  11.145  11.356 -0.8302  0.0901 -0.2080
54715SOL    HW268831  11.476  11.260  11.261 -0.0715  0.6595  0.6810
54716SOL     OW68832   0.578  11.012   4.464 -0.1182 -0.1630  0.0074
54716SOL    HW168833   0.509  11.000   4.398 -0.4805 -0.8815  0.4990
54716SOL    HW268834   0.633  10.934   4.456  0.1553  0.0087  0.1878
54717SOL     OW68835  10.794  11.212   0.651 -0.6395 -0.0280  0.1456
54717SOL    HW168836  10.708  11.203   0.610 -1.8050  0.1177  2.4309
54717SOL    HW268837  10.822  11.301   0.630 -1.0397 -0.0687 -0.5750
54718SOL     OW68838  10.497   6.433   6.618 -0.1654  0.7240  0.3604
54718SOL    HW168839  10.550   6.391   6.550 -1.4329  1.0175 -0.8623
54718SOL    HW268840  10.495   6.370   6.690 -2.7715 -1.8345 -1.7517
54719SOL     OW68841   0.083   6.965  10.540  0.3690  0.3365 -0.0853
54719SOL    HW168842   0.174   6.990  10.527  0.6223 -0.3187  0.3799
54719SOL    HW268843   0.071   6.966  10.635  0.5660 -1.8305  0.0180
54720SOL     OW68844   3.770   6.686   3.446 -0.1271  0.8392 -0.6768
54720SOL    HW168845   3.695   6.666   3.390 -0.6498 -0.4233  0.4303
54720SOL    HW268846   3.731   6.716   3.528  0.5237 -0.3659  0.1096
54721SOL     OW68847   0.025   8.117   3.678  0.0270 -0.7233 -0.3732
54721SOL    HW168848   0.051   8.198   3.720  1.0046 -1.8773  1.3587
54721SOL    HW268849   0.099   8.093   3.622 -0.3054 -0.3977 -0.9687
54722SOL     OW68850   5.628   7.846  10.195 -0.1832  0.5065 -0.6096
54722SOL    HW168851   5.605   7.781  10.129 -0.0026 -0.5451  0.3357
54722SOL    HW268852   5.584   7.816  10.275  1.0467  0.7799  0.1914
54723SOL     OW68853   0.516   2.226   1.165 -0.5643  0.3044 -0.1690
54723SOL    HW168854   0.602   2.267   1.176 -0.2115 -0.2549 -0.8147
54723SOL    HW268855   0.524   2.174   1.085 -1.6914  0.7252 -0.5703
54724SOL     OW68856   7.316   1.829   1.818 -0.0120 -0.0032  0.2974
54724SOL    HW168857   7.382   1.861   1.756  0.0562 -0.9619 -0.1474
54724SOL    HW268858   7.260   1.772   1.766 -0.6077  0.0288  0.8903
54725SOL     OW68859  10.051   0.564   4.382  0.4282  0.4002 -0.7112
54725SOL    HW168860  10.049   0.582   4.288  0.6900  1.0129 -0.6059
54725SOL    HW268861  10.130   0.608   4.413 -0.4415  1.4860  0.0450
54726SOL     OW68862   9.632  11.169   2.304  0.1718  0.1983  0.6765
54726SOL    HW168863   9.715  11.123   2.301 -0.0832 -0.3134  1.2565
54726SOL    HW268864   9.619  11.203   2.216  0.3975 -0.7850  0.2591
54727SOL     OW68865   1.953   2.580   6.345 -0.0954 -0.5414  0.3020
54727SOL    HW168866   1.990   2.647   6.288 -0.2882 -0.9598 -0.3199
54727SOL    HW268867   1.866   2.564   6.310 -0.1393 -0.9475  0.5896
54728SOL     OW68868   2.648   4.028   7.855  0.1152  0.0229  0.1072
54728SOL    HW168869   2.654   4.106   7.799  0.8983  0.0583  0.2340
54728SOL    HW268870   2.608   4.060   7.936 -2.3573 -0.2965 -0.9000
54729SOL     OW68871   7.202  11.443   1.505  0.3032 -0.3442  0.4833
54729SOL    HW168872   7.164  11.357   1.523  1.9304 -1.0172  0.8820
54729SOL    HW268873   7.243  11.433   1.420  0.0510  0.2142  0.2925
54730SOL     OW68874   6.692   6.209   0.516  0.9626 -0.1068  0.0300
54730SOL    HW168875   6.667   6.164   0.436 -0.8035 -0.3438  0.6736
54730SOL    HW268876   6.618   6.266   0.536  2.3135  1.6507  0.2960
54731SOL     OW68877   0.288   9.419   6.742 -0.4803 -0.3175  0.0338
54731SOL    HW168878   0.223   9.431   6.811 -1.8097 -1.1961 -1.0176
54731SOL    HW268879   0.298   9.324   6.734  0.5120 -0.2037 -0.2188
54732SOL     OW68880   6.456   5.421  11.249 -0.1901 -0.2384 -0.3264
54732SOL    HW168881   6.409   5.338  11.244 -1.0332  0.2110 -0.2227
54732SOL    HW268882   6.394   5.485  11.212  1.0434  0.1079 -1.8809
54733SOL     OW68883   9.339   6.568   2.689 -0.0364 -0.2732 -0.2546
54733SOL    HW168884   9.390   6.648   2.705 -1.0608  0.2490  0.6320
54733SOL    HW268885   9.380   6.502   2.744 -0.5118  0.2488  0.7770
54734SOL     OW68886   6.944  10.347   2.472 -0.0563  0.4939  0.1378
54734SOL    HW168887   6.869  10.364   2.415 -1.0381  0.2287  1.3182
54734SOL    HW268888   6.909  10.352   2.560  1.4011  0.6955  0.7323
54735SOL     OW68889   7.001   0.903   9.659  0.0846 -0.1003  0.1173
54735SOL    HW168890   7.060   0.828   9.661  1.3758  0.6869 -2.4562
54735SOL    HW268891   7.057   0.978   9.681 -0.3575  0.4528 -0.5766
54736SOL     OW68892  11.522   8.965  10.876 -0.0317  0.6647 -0.9580
54736SOL    HW168893  11.586   9.005  10.818 -1.3443  2.0324 -1.5067
54736SOL    HW268894  11.529   9.015  10.957  1.5544 -1.0226  0.0346
54737SOL     OW68895   0.066   9.018  10.446 -0.4582  0.5770 -0.2020
54737SOL    HW168896  -0.027   9.004  10.426 -0.3708  0.3904 -0.4841
54737SOL    HW268897   0.112   8.959  10.387 -0.1884  0.0288  0.5393
54738SOL     OW68898   8.952   5.285   0.937  0.0014 -0.4299 -0.1519
54738SOL    HW168899   8.896   5.342   0.884  0.4125 -0.4021 -0.5586
54738SOL    HW268900   8.995   5.228   0.873 -0.1800 -0.9987  0.2271
54739SOL     OW68901  11.007  10.136   0.290  0.0264 -0.2344  0.3767
54739SOL    HW168902  11.082  10.178   0.249 -1.1292  0.4399 -1.1244
54739SOL    HW268903  11.010  10.165   0.381  2.3980 -1.4072  0.7559
54740SOL     OW68904   2.479   5.892   3.049 -0.3603  0.0627 -0.2512
54740SOL    HW168905   2.523   5.809   3.070 -1.2239 -0.3631 -0.1041
54740SOL    HW268906   2.478   5.895   2.953  1.8898  1.1102 -0.3121
54741SOL     OW68907   7.450   5.531   9.085 -0.4231  0.3557 -0.1708
54741SOL    HW168908   7.427   5.606   9.140  0.4508 -0.8734  1.9963
54741SOL    HW268909   7.365   5.497   9.055 -0.9912  0.6541  1.0250
54742SOL     OW68910   0.172   8.021   2.394 -0.3098  0.0566  0.2183
54742SOL    HW168911   0.216   8.104   2.375  1.5880 -1.1989 -1.3079
54742SOL    HW268912   0.088   8.046   2.431  0.7771  2.6375  1.1702
54743SOL     OW68913   4.210   8.412   6.751 -0.2905  0.0511 -0.7143
54743SOL    HW168914   4.127   8.442   6.712 -1.6136 -0.2076  1.6869
54743SOL    HW268915   4.248   8.491   6.789  1.0484  0.3236 -2.4659
54744SOL     OW68916  11.095  11.794   8.364  0.6794  0.3160  0.1040
54744SOL    HW168917  11.119  11.879   8.400  1.1156  2.0502 -3.7419
54744SOL    HW268918  11.177  11.744   8.364  0.9066  0.6822  0.4218
54745SOL     OW68919   4.378   0.122   9.523  0.7240  0.9338 -0.4373
54745SOL    HW168920   4.361   0.164   9.439  1.2238 -0.0671 -1.0531
54745SOL    HW268921   4.470   0.098   9.520  0.2111 -1.2252 -0.6053
54746SOL     OW68922  10.185   4.161   3.879 -0.3566  0.4211  0.3143
54746SOL    HW168923  10.130   4.088   3.909 -1.2483  0.6793 -0.6403
54746SOL    HW268924  10.157   4.177   3.789  1.1525  0.7111 -0.1320
54747SOL     OW68925   8.387   3.620  10.694 -0.1343 -1.0824  0.4825
54747SOL    HW168926   8.423   3.550  10.749  0.8752 -1.6352 -0.8151
54747SOL    HW268927   8.296   3.595  10.680  0.2675 -2.2785 -0.1420
54748SOL     OW68928   1.641   5.561   1.085 -0.0179 -0.6362  0.3360
54748SOL    HW168929   1.556   5.530   1.052  0.1554 -1.5350  0.6865
54748SOL    HW268930   1.705   5.505   1.042  0.5542  1.0413 -1.1210
54749SOL     OW68931   9.847   2.146   8.365  0.2210  0.7063  0.2346
54749SOL    HW168932   9.892   2.067   8.396  1.4039  0.9398 -0.7962
54749SOL    HW268933   9.796   2.175   8.441 -1.1135 -1.6085  0.3402
54750SOL     OW68934   7.770   8.542   3.876  0.5080  0.5545  0.4419
54750SOL    HW168935   7.713   8.583   3.811 -1.7553  0.3695  2.1661
54750SOL    HW268936   7.790   8.613   3.938  1.4788  0.4129  0.3005
54751SOL     OW68937  10.807   8.912   6.934 -0.5047 -0.0871  0.5511
54751SOL    HW168938  10.869   8.840   6.947 -1.4408 -1.2196 -0.9018
54751SOL    HW268939  10.723   8.877   6.965 -0.6391  1.0745  1.5771
54752SOL     OW68940   7.017  10.661  10.382  0.1581 -0.3531  0.1848
54752SOL    HW168941   7.024  10.679  10.289 -0.7868 -0.0666  0.1653
54752SOL    HW268942   7.024  10.566  10.389  0.6804 -0.3415 -0.1263
54753SOL     OW68943   2.608   3.170   0.700 -0.0916 -0.4369  0.5364
54753SOL    HW168944   2.535   3.143   0.643  0.7144 -1.3072 -0.1263
54753SOL    HW268945   2.587   3.131   0.785 -0.8042  0.0170  0.5811
54754SOL     OW68946  11.462   3.719   9.672 -0.0632  0.5483 -0.1819
54754SOL    HW168947  11.382   3.718   9.724  0.0859 -0.1193  0.0504
54754SOL    HW268948  11.481   3.626   9.656  1.8246  0.5487  1.5883
54755SOL     OW68949   1.720  11.747   7.534  0.6181  0.1140  0.0360
54755SOL    HW168950   1.807  11.786   7.539  0.7471 -0.2722  1.5323
54755SOL    HW268951   1.737  11.653   7.526  0.3129  0.1742 -1.6472
54756SOL     OW68952   0.302   3.510   9.005  0.3405  0.4866  0.5163
54756SOL    HW168953   0.336   3.599   9.013 -0.0427  0.5320  1.8320
54756SOL    HW268954   0.341   3.477   8.924  0.7855  1.7148  0.2075
54757SOL     OW68955   4.896   6.060   5.139  0.3434  0.3283  0.1094
54757SOL    HW168956   4.989   6.068   5.160  0.0170  1.6738  1.1543
54757SOL    HW268957   4.872   6.146   5.105 -0.6868  0.2436  0.5941
54758SOL     OW68958   0.079   7.949   1.021 -0.5254 -0.3037 -0.6596
54758SOL    HW168959  -0.012   7.975   1.035 -0.4608 -0.0665 -0.6786
54758SOL    HW268960   0.092   7.874   1.079 -0.4194  0.3281  0.1557
54759SOL     OW68961   8.385   9.709   9.117  0.5731  0.4459  0.0292
54759SOL    HW168962   8.301   9.733   9.076  0.6712 -1.7818 -1.7318
54759SOL    HW268963   8.361   9.642   9.181  0.7969  1.5013  1.2443
54760SOL     OW68964   1.238   3.671   1.112 -0.0785  0.5583 -0.6911
54760SOL    HW168965   1.302   3.723   1.062 -1.1441  1.2870 -1.3651
54760SOL    HW268966   1.189   3.623   1.045  0.1616 -0.4722 -0.1419
54761SOL     OW68967  10.238   0.450   8.976  0.0669  0.2011  0.8896
54761SOL    HW168968  10.251   0.386   8.905  0.0388  0.7581  0.3774
54761SOL    HW268969  10.296   0.523   8.954  0.8353 -0.0436  1.9888
54762SOL     OW68970   6.608   0.692   8.379  0.7100 -0.0133 -0.2464
54762SOL    HW168971   6.656   0.660   8.456 -0.5448 -2.1598 -0.2787
54762SOL    HW268972   6.551   0.619   8.355 -0.0339  1.1855 -2.3069
54763SOL     OW68973   1.981   3.900  11.398 -1.1215  0.3841  0.2264
54763SOL    HW168974   1.954   3.868  11.311  0.7412  0.8880 -0.5803
54763SOL    HW268975   2.046   3.967  11.379 -1.4412  1.2343  2.0236
54764SOL     OW68976  10.235   9.538   9.487 -0.2353  0.2673 -0.2168
54764SOL    HW168977  10.288   9.565   9.411 -0.6448 -0.3983 -0.7555
54764SOL    HW268978  10.238   9.443   9.485 -0.4679  0.2424  0.4601
54765SOL     OW68979   1.072   8.013   0.098 -0.0764 -0.3293  0.4942
54765SOL    HW168980   0.996   8.051   0.142 -0.9075 -1.2035 -0.1516
54765SOL    HW268981   1.096   8.079   0.032 -0.9188 -0.4842  0.0173
54766SOL     OW68982   4.179   3.957   7.089  0.1179  0.1654  0.6115
54766SOL    HW168983   4.171   3.938   7.182  1.8553  0.0771  0.7697
54766SOL    HW268984   4.270   3.935   7.067 -0.8371 -2.1178 -1.6145
54767SOL     OW68985   8.983   0.648   5.521 -0.4725 -0.0227 -0.1734
54767SOL    HW168986   8.899   0.608   5.544 -0.1289 -0.9610 -0.5032
54767SOL    HW268987   8.961   0.716   5.458 -1.0272  0.0615  0.1046
54768SOL     OW68988   1.618   6.263   0.258  0.0887  0.8090  0.2331
54768SOL    HW168989   1.531   6.249   0.223  0.4597 -0.3287 -0.2628
54768SOL    HW268990   1.619   6.218   0.342  0.3252  0.4700  0.0507
54769SOL     OW68991   0.144   9.569  11.621 -0.1845  0.0075  0.4653
54769SOL    HW168992   0.075   9.575  11.688  0.3966 -1.5585  1.2545
54769SOL    HW268993   0.213   9.628  11.652 -0.7778  0.8875  0.1432
54770SOL     OW68994   5.454   0.272   0.071 -0.0082  0.2103  0.3124
54770SOL    HW168995   5.499   0.351   0.101  1.4162 -0.7111  0.6652
54770SOL    HW268996   5.361   0.293   0.080  0.3090  2.1777 -0.5013
54771SOL     OW68997   9.755   4.942   1.935 -0.5444  0.0181 -0.6656
54771SOL    HW168998   9.810   5.020   1.942 -0.4463 -0.1952  1.2504
54771SOL    HW268999   9.778   4.905   1.849  4.0302 -1.2938  0.8511
54772SOL     OW69000   9.105   4.040   6.427  0.7419 -0.0284 -0.4593
54772SOL    HW169001   9.126   4.119   6.476  1.8661  0.4719 -1.6814
54772SOL    HW269002   9.141   3.968   6.480 -0.7414  0.1881  0.9156
54773SOL     OW69003   2.525   6.747  10.618  0.3935  0.2121 -0.3487
54773SOL    HW169004   2.610   6.703  10.623  1.1874  1.7991  0.9276
54773SOL    HW269005   2.461   6.676  10.627  1.5674 -0.9498 -0.7597
54774SOL     OW69006   7.932   0.987   4.200 -0.0544  0.1721  0.1782
54774SOL    HW169007   7.956   1.025   4.285  0.8402 -1.9821  0.9579
54774SOL    HW269008   8.004   1.011   4.142  0.5151 -0.3102  0.6662
54775SOL     OW69009   3.619   1.244   8.736 -0.0564  0.4490 -0.3945
54775SOL    HW169010   3.591   1.170   8.683 -0.1172  0.8726 -0.9545
54775SOL    HW269011   3.653   1.203   8.817 -0.6218 -0.1506 -0.4525
54776SOL     OW69012   9.819   7.459   3.391 -0.2874 -0.0001 -0.0374
54776SOL    HW169013   9.756   7.472   3.320  0.7601  0.3831 -0.9086
54776SOL    HW269014   9.874   7.537   3.390  2.0204 -1.5174 -1.1767
54777SOL     OW69015  10.917   7.889  10.874  0.0884 -0.1444  0.1531
54777SOL    HW169016  10.978   7.948  10.829  0.2260  1.2801  2.0772
54777SOL    HW269017  10.970   7.812  10.896  0.4753 -0.0847 -0.5476
54778SOL     OW69018   8.231   4.415   2.524  0.1111  0.0263 -0.3503
54778SOL    HW169019   8.171   4.403   2.450 -1.0768 -0.0544  0.6055
54778SOL    HW269020   8.249   4.326   2.554  1.4135 -0.0101 -1.1462
54779SOL     OW69021   2.885   0.550   8.465 -0.1569  0.7072  0.5477
54779SOL    HW169022   2.816   0.543   8.399  1.3974  0.2152 -1.1083
54779SOL    HW269023   2.950   0.484   8.439  0.6159  0.6416  2.4682
54780SOL     OW69024   3.827   8.843   9.808  0.0232 -0.1912  0.6594
54780SOL    HW169025   3.769   8.846   9.732 -0.1991  1.3160  0.8517
54780SOL    HW269026   3.901   8.898   9.784 -1.1692  2.3720  2.3492
54781SOL     OW69027   9.698   4.867   7.499 -0.2962 -0.0457 -0.0297
54781SOL    HW169028   9.767   4.817   7.542 -0.8507  0.6485  1.7977
54781SOL    HW269029   9.715   4.958   7.525 -1.3444  0.2391 -0.3031
54782SOL     OW69030   6.622  11.230   4.145  0.0924  0.0032 -0.3703
54782SOL    HW169031   6.564  11.228   4.069 -0.7951  1.2823  0.2462
54782SOL    HW269032   6.710  11.236   4.107 -0.3526  1.0794 -1.3166
54783SOL     OW69033  11.767  11.308  10.469 -0.2994  0.0658 -0.2254
54783SOL    HW169034  11.830  11.277  10.534 -0.0679 -0.3089 -0.6223
54783SOL    HW269035  11.748  11.231  10.415 -0.4998  0.3683 -0.5919
54784SOL     OW69036  10.825  10.178   4.793 -0.4035  0.2554 -0.2426
54784SOL    HW169037  10.859  10.167   4.704  1.6071 -2.2062  0.6825
54784SOL    HW269038  10.879  10.247   4.831  1.7955 -1.6222  0.2895
54785SOL     OW69039   3.353   1.691   5.956  0.7178  0.7142  0.2358
54785SOL    HW169040   3.426   1.741   5.993 -0.6186  2.2793  0.8782
54785SOL    HW269041   3.353   1.608   6.005  0.6184  1.6804  1.9451
54786SOL     OW69042   3.615  11.481   9.109 -0.0385 -1.0153 -0.0550
54786SOL    HW169043   3.584  11.532   9.184  1.2738 -1.1000  0.5669
54786SOL    HW269044   3.541  11.424   9.086 -0.9914  0.0959  0.1811
54787SOL     OW69045  11.140   2.173   7.900  0.4307 -0.0513  0.2515
54787SOL    HW169046  11.050   2.202   7.913 -0.7132 -2.6995 -0.8526
54787SOL    HW269047  11.174   2.230   7.831 -1.3425 -0.5600 -1.1361
54788SOL     OW69048   7.185   0.643   1.340 -0.0418  0.0621  0.2184
54788SOL    HW169049   7.154   0.572   1.283 -2.0745  1.0946 -0.0516
54788SOL    HW269050   7.105   0.686   1.371  1.1042  1.6127  1.1870
54789SOL     OW69051   7.898   4.120   8.981 -0.5617 -0.0709 -0.3025
54789SOL    HW169052   7.935   4.040   8.944  0.6606  0.1458  0.3850
54789SOL    HW269053   7.878   4.174   8.905 -1.4375 -1.0254 -0.7777
54790SOL     OW69054   3.430   4.495   2.706 -0.2573  0.0685  0.7692
54790SOL    HW169055   3.465   4.417   2.748 -0.2910  1.0941  2.8608
54790SOL    HW269056   3.497   4.562   2.720 -0.2515  0.4652 -0.9229
54791SOL     OW69057   9.592   2.965   0.365 -0.1741 -0.1959  0.4954
54791SOL    HW169058   9.592   3.019   0.286 -0.1864 -0.8256  0.0562
54791SOL    HW269059   9.544   3.016   0.429 -0.3183  0.2463  0.0420
54792SOL     OW69060  10.576   0.364  11.567 -0.0985  0.8509  0.2443
54792SOL    HW169061  10.568   0.459  11.575 -0.1943  0.8035  0.7642
54792SOL    HW269062  10.647   0.340  11.626  2.5174  0.9927 -2.6133
54793SOL     OW69063   0.562   8.518  10.000 -0.1521 -0.4052  0.1912
54793SOL    HW169064   0.476   8.502  10.039 -0.4532 -1.0623 -0.7045
54793SOL    HW269065   0.624   8.485  10.064 -0.5956 -0.5418  0.5566
54794SOL     OW69066   1.656   0.261   7.559  0.5452 -0.1442  0.1014
54794SOL    HW169067   1.619   0.326   7.619 -0.4173 -1.0479  0.5240
54794SOL    HW269068   1.749   0.259   7.580  0.5760  1.0155  0.1449
54795SOL     OW69069  11.239   1.256  10.963 -0.1285  0.4251 -0.1863
54795SOL    HW169070  11.325   1.221  10.986 -0.0121  0.1517 -1.0077
54795SOL    HW269071  11.243   1.269  10.868 -0.3434  2.1661  0.0121
54796SOL     OW69072   5.549   8.412   0.634  0.3696  0.6531 -0.0611
54796SOL    HW169073   5.565   8.320   0.656  1.8997  0.9456  0.1610
54796SOL    HW269074   5.637   8.450   0.624 -0.0914  2.8352  2.9568
54797SOL     OW69075   0.131   7.823   4.995  0.3590 -0.4875  0.0128
54797SOL    HW169076   0.056   7.818   5.053 -0.0733 -3.6227 -0.6183
54797SOL    HW269077   0.095   7.806   4.907  1.4453  0.7250 -0.6984
54798SOL     OW69078  10.679  10.319  10.733 -0.2925  0.2189 -0.3616
54798SOL    HW169079  10.618  10.365  10.791 -0.7013  0.0565 -0.6562
54798SOL    HW269080  10.763  10.363  10.746 -0.6289  0.9074 -0.4800
54799SOL     OW69081  11.714   2.209   9.833  0.0633  0.1113  0.2224
54799SOL    HW169082  11.673   2.208   9.746  0.3876  0.6308  0.0616
54799SOL    HW269083  11.655   2.262   9.887  0.7164  1.2061 -0.1134
54800SOL     OW69084   0.465   6.361   1.217  0.5744 -0.6552 -0.1394
54800SOL    HW169085   0.464   6.362   1.121 -1.6814  0.8766 -0.1848
54800SOL    HW269086   0.504   6.445   1.241 -1.8579  0.4864  0.1464
54801SOL     OW69087   4.882   8.339   9.408  0.6129  0.7506  0.4098
54801SOL    HW169088   4.791   8.358   9.434  0.3003 -0.7893  0.5354
54801SOL    HW269089   4.920   8.425   9.392 -1.4736  1.3933 -1.7415
54802SOL     OW69090   8.801   8.606   3.836  0.5429  0.0988  0.3505
54802SOL    HW169091   8.864   8.568   3.898  2.1066  0.6728 -0.8301
54802SOL    HW269092   8.791   8.540   3.768  0.2016  0.2046  0.2938
54803SOL     OW69093   8.685   2.660   6.814 -0.6807  0.1955 -0.0911
54803SOL    HW169094   8.702   2.585   6.757 -0.0424  0.6589 -0.5145
54803SOL    HW269095   8.737   2.643   6.892 -0.9029 -0.0306  0.0087
54804SOL     OW69096   0.501  11.271   8.624 -0.1529 -0.1460 -0.2630
54804SOL    HW169097   0.464  11.310   8.545 -2.8048  1.1214  1.4285
54804SOL    HW269098   0.459  11.185   8.631 -1.1005  0.3520  0.4706
54805SOL     OW69099   9.930   6.015   2.995  0.5334 -0.0347 -0.2027
54805SOL    HW169100   9.910   5.921   2.994 -0.3213  0.1024 -2.5337
54805SOL    HW269101   9.975   6.029   3.079  0.1952 -2.3993  0.4585
54806SOL     OW69102   1.320   2.194   5.241 -0.2203  0.3315  1.1075
54806SOL    HW169103   1.324   2.288   5.258 -1.3004  0.6758 -0.4136
54806SOL    HW269104   1.235   2.167   5.274 -0.7972  0.3165 -0.3184
54807SOL     OW69105   7.181   2.642   5.531 -0.0641  0.3455  0.1593
54807SOL    HW169106   7.189   2.548   5.516  1.3617  0.2852  1.0652
54807SOL    HW269107   7.201   2.653   5.624 -0.4739  1.5264  0.1228
54808SOL     OW69108   6.865   0.024   5.461 -0.5225  0.4113 -0.1499
54808SOL    HW169109   6.946   0.073   5.453 -1.3553  2.0607  0.9618
54808SOL    HW269110   6.807   0.061   5.394 -0.8555  0.3144  0.0808
54809SOL     OW69111  10.850   8.683   5.663 -0.4052 -0.6910  0.0159
54809SOL    HW169112  10.807   8.739   5.598 -0.2714  0.4301  0.8391
54809SOL    HW269113  10.895   8.616   5.612  1.5944  1.4449 -1.2340
54810SOL     OW69114   5.756   5.512   7.356  0.2584  0.0407  0.6721
54810SOL    HW169115   5.797   5.474   7.434  0.6528 -1.0810 -0.0661
54810SOL    HW269116   5.662   5.496   7.367  0.2856  0.1418  1.0490
54811SOL     OW69117   2.475   5.523   2.652  0.0514 -0.0943 -0.2619
54811SOL    HW169118   2.403   5.503   2.712 -1.5989  1.5662 -1.5726
54811SOL    HW269119   2.546   5.553   2.709 -0.7063 -0.6215  0.9935
54812SOL     OW69120   9.515   1.593   4.787 -0.1180  0.1467  0.2596
54812SOL    HW169121   9.482   1.519   4.736  2.1807 -0.2462 -0.7760
54812SOL    HW269122   9.475   1.670   4.747 -0.5193 -0.3616 -0.3373
54813SOL     OW69123   4.690  10.072  10.943 -0.5326  0.3675 -0.0283
54813SOL    HW169124   4.599  10.091  10.919 -0.9042 -0.1772  0.8725
54813SOL    HW269125   4.705   9.983  10.914 -0.5673  0.1627  0.5591
54814SOL     OW69126  10.891   9.309   5.464 -0.1116 -0.8088  0.3448
54814SOL    HW169127  10.948   9.298   5.387 -0.4185  0.3158 -0.0648
54814SOL    HW269128  10.947   9.288   5.538  0.6160 -0.5071 -0.1050
54815SOL     OW69129  11.701   7.844   7.387 -0.4541 -0.1194 -0.0172
54815SOL    HW169130  11.796   7.836   7.392 -0.4112  0.9862  1.3369
54815SOL    HW269131  11.676   7.784   7.316  1.2918  0.0355 -0.8072
54816SOL     OW69132   4.288  10.461   8.989  0.0656  0.1099  0.4329
54816SOL    HW169133   4.311  10.516   9.065 -0.6766  0.4279  0.4342
54816SOL    HW269134   4.202  10.492   8.962 -1.6114 -2.7032  2.0174
54817SOL     OW69135  11.504  11.525   4.985 -0.2116 -0.0314  0.4763
54817SOL    HW169136  11.558  11.475   4.924 -2.0612 -2.8040  0.8950
54817SOL    HW269137  11.494  11.467   5.060 -1.4958  1.5344  1.5740
54818SOL     OW69138   8.194   8.662   9.337  0.2394 -0.1054  0.2432
54818SOL    HW169139   8.108   8.630   9.363  0.5905  0.8310  2.8109
54818SOL    HW269140   8.181   8.755   9.320  0.1411 -0.5607 -2.7573
54819SOL     OW69141  11.758   8.028  10.082 -0.3185 -0.0724 -0.1038
54819SOL    HW169142  11.793   7.942  10.105  0.1026 -0.0524 -0.6470
54819SOL    HW269143  11.825   8.066  10.025 -0.3097  0.7819  0.4600
54820SOL     OW69144   4.430   5.997   1.897 -1.0885 -0.0623 -0.3110
54820SOL    HW169145   4.500   5.962   1.841 -1.6188 -1.6995 -0.0162
54820SOL    HW269146   4.394   6.070   1.847 -0.2067 -0.1909 -1.1813
54821SOL     OW69147   7.512   3.914  10.708 -0.4283 -0.4684  0.0184
54821SOL    HW169148   7.542   3.835  10.752 -0.0516 -0.4166 -0.1374
54821SOL    HW269149   7.589   3.946  10.660 -0.0319  0.9903  1.5325
54822SOL     OW69150   4.046   3.543  11.454 -0.8269  0.0228 -0.0338
54822SOL    HW169151   3.982   3.600  11.496 -2.4544 -1.7563  0.0335
54822SOL    HW269152   4.077   3.486  11.524  2.0917  1.8184  0.2901
54823SOL     OW69153   0.298   6.986   9.533 -0.0058 -0.1959  0.2005
54823SOL    HW169154   0.321   7.041   9.459  1.2102 -0.7833  0.1187
54823SOL    HW269155   0.264   7.047   9.599  2.7902  0.9127  0.7270
54824SOL     OW69156   2.037   5.418   5.663 -0.4608 -0.0333  0.4537
54824SOL    HW169157   1.955   5.394   5.707 -1.9093  1.6353 -1.1862
54824SOL    HW269158   2.044   5.513   5.674 -0.4814  0.3323 -2.1372
54825SOL     OW69159   5.923  11.883   7.901 -0.1763 -0.3275  0.3186
54825SOL    HW169160   5.949  11.916   7.815 -2.7793 -1.0803 -0.8654
54825SOL    HW269161   5.915  11.788   7.889  1.3100 -0.7149  1.9823
54826SOL     OW69162   4.389  10.198   4.057 -0.0811 -0.6178  0.3776
54826SOL    HW169163   4.439  10.241   4.127 -0.2473 -0.7037  0.5485
54826SOL    HW269164   4.423  10.109   4.053 -1.4830 -1.2614  1.7602
54827SOL     OW69165   1.161   9.707   5.494  0.4374  0.3454 -0.5026
54827SOL    HW169166   1.190   9.727   5.583 -0.0420 -0.7175 -0.0874
54827SOL    HW269167   1.097   9.775   5.473  1.0919  1.0299 -0.3258
54828SOL     OW69168   9.955   0.503   5.428  0.3565 -0.1678 -0.2293
54828SOL    HW169169   9.861   0.509   5.448  0.5092  0.7359  0.2840
54828SOL    HW269170   9.969   0.411   5.407 -0.7592 -0.2065 -0.8985
54829SOL     OW69171   7.189   2.023   0.635 -0.7211 -0.2085 -0.1514
54829SOL    HW169172   7.211   2.114   0.614  0.3545 -0.3077  0.4472
54829SOL    HW269173   7.157   1.986   0.552  2.2363 -0.2530 -1.4248
54830SOL     OW69174   7.637   6.209   3.646 -0.1197  0.1554  0.2668
54830SOL    HW169175   7.702   6.234   3.581 -0.3904  2.5362  0.8076
54830SOL    HW269176   7.669   6.126   3.682  0.8392 -0.4082 -1.7668
54831SOL     OW69177   4.769   0.415   0.555  0.0405  0.2784  0.2367
54831SOL    HW169178   4.701   0.420   0.622  1.1509  0.0985  1.4036
54831SOL    HW269179   4.844   0.460   0.593  0.3196  1.2570 -1.3833
54832SOL     OW69180   6.274   1.565  10.371 -0.6241  0.0467  0.0552
54832SOL    HW169181   6.238   1.562  10.283 -0.5840 -0.2099  0.0491
54832SOL    HW269182   6.358   1.519  10.365 -0.0372  1.0937 -0.0540
54833SOL     OW69183   2.741   6.717   9.777  0.7520  0.7612  0.1358
54833SOL    HW169184   2.770   6.633   9.811  0.3768  1.0965  1.3168
54833SOL    HW269185   2.723   6.701   9.684 -0.0079 -0.6295  0.5016
54834SOL     OW69186   2.602   7.012   8.426 -0.0117 -0.3829 -0.0226
54834SOL    HW169187   2.639   7.000   8.338 -2.0973 -2.0494 -0.7470
54834SOL    HW269188   2.617   7.105   8.445 -0.6182  0.3482 -2.6911
54835SOL     OW69189   1.503   0.728   2.091 -0.3213 -0.0631  0.2294
54835SOL    HW169190   1.551   0.683   2.160 -0.9241 -1.7497 -0.4154
54835SOL    HW269191   1.522   0.821   2.106  1.1846 -0.5214  1.4178
54836SOL     OW69192   1.460  11.328   0.587 -0.1429 -0.0691 -0.3072
54836SOL    HW169193   1.465  11.405   0.531  0.1837 -0.7913 -1.3045
54836SOL    HW269194   1.542  11.330   0.638  0.9635 -0.9207 -1.9442
54837SOL     OW69195   7.469   5.392   9.929  0.3018 -0.6508  0.5699
54837SOL    HW169196   7.439   5.359   9.844 -0.7834  0.9322  0.3091
54837SOL    HW269197   7.433   5.330   9.993 -1.3102 -0.2636  0.0673
54838SOL     OW69198  10.201   4.998   7.321 -0.2929  0.3775 -0.3252
54838SOL    HW169199  10.180   5.086   7.351  0.3835  0.6326 -0.5724
54838SOL    HW269200  10.227   4.951   7.400 -1.0536  0.2726 -0.1306
54839SOL     OW69201   1.388   4.826   7.200 -0.1731  0.0986  0.3227
54839SOL    HW169202   1.459   4.873   7.156  1.4592 -1.1849  1.4847
54839SOL    HW269203   1.373   4.749   7.145 -1.0026  0.5751 -0.1449
54840SOL     OW69204   0.991   8.017   8.780 -0.3140 -0.0932  0.1404
54840SOL    HW169205   1.082   8.012   8.751 -0.4834 -1.0939 -0.2538
54840SOL    HW269206   0.994   8.072   8.859  0.3704  1.3610 -0.8440
54841SOL     OW69207   0.583   9.846   5.209  0.0110 -0.0517 -0.6217
54841SOL    HW169208   0.675   9.820   5.199  0.7142  2.0318 -0.1039
54841SOL    HW269209   0.551   9.793   5.281  2.1410  2.1149  2.1779
54842SOL     OW69210   4.698   2.660  11.007  0.2633 -0.1640 -0.7172
54842SOL    HW169211   4.628   2.725  11.005  1.5603  1.2667 -0.8583
54842SOL    HW269212   4.716   2.647  11.100 -0.6154 -1.0604 -0.6470
54843SOL     OW69213   1.324   5.820   7.032 -0.2351  0.2380 -0.1756
54843SOL    HW169214   1.287   5.848   6.948 -0.7033  1.1705  0.3193
54843SOL    HW269215   1.414   5.852   7.030  0.1994 -0.9874 -0.8939
54844SOL     OW69216   1.064   6.632   2.222  0.4936 -0.2483 -0.1406
54844SOL    HW169217   1.025   6.605   2.306 -1.9828  1.1673 -0.7267
54844SOL    HW269218   1.149   6.668   2.245  0.4062 -1.0584  1.5993
54845SOL     OW69219  11.628   8.026  11.418 -0.0545 -0.4304  0.5681
54845SOL    HW169220  11.577   7.998  11.494  1.2111 -1.6244  1.0173
54845SOL    HW269221  11.704   7.968  11.417  0.1299 -0.2283 -1.4329
54846SOL     OW69222   4.810   9.777   3.275 -0.1290  0.0204  0.0123
54846SOL    HW169223   4.738   9.803   3.217 -0.7337 -1.1076  0.2204
54846SOL    HW269224   4.821   9.684   3.257  0.0559 -0.2131  1.3012
54847SOL     OW69225   8.850   8.827   3.235 -0.1280 -0.1454  0.1961
54847SOL    HW169226   8.889   8.770   3.168  0.1450  0.1952  0.0619
54847SOL    HW269227   8.816   8.766   3.301 -0.1806 -0.4760 -0.1317
54848SOL     OW69228   9.686   7.742   8.432  0.1379  0.3528 -0.1921
54848SOL    HW169229   9.734   7.729   8.350  1.2700  1.8248  0.1979
54848SOL    HW269230   9.713   7.828   8.463 -2.6519  1.2142  0.1638
54849SOL     OW69231   9.813   9.151   7.294 -0.1693 -0.4126  0.1087
54849SOL    HW169232   9.767   9.097   7.230  1.0864  0.0197 -1.1956
54849SOL    HW269233   9.905   9.133   7.280  0.2241  1.1564  0.4467
54850SOL     OW69234   9.819   8.559  11.519 -0.0335  0.1888 -0.1997
54850SOL    HW169235   9.834   8.648  11.486  0.8257 -0.0096 -0.3725
54850SOL    HW269236   9.764   8.518  11.452 -0.1094  0.4669 -0.3101
54851SOL     OW69237   2.207   5.517   1.642 -0.0793  0.3300  0.2316
54851SOL    HW169238   2.236   5.426   1.651 -1.1269  0.0003  0.4949
54851SOL    HW269239   2.195   5.528   1.547 -0.2162  0.0975  0.2191
54852SOL     OW69240   9.266   4.750   4.776 -0.2498  0.5535 -0.0088
54852SOL    HW169241   9.204   4.820   4.800 -0.5565  0.1942  0.2646
54852SOL    HW269242   9.308   4.782   4.696  0.8263  1.7975  1.0130
54853SOL     OW69243  10.286  11.256   9.939 -0.1917 -0.3190  0.0323
54853SOL    HW169244  10.195  11.226   9.936 -0.4240  0.2480  0.9310
54853SOL    HW269245  10.334  11.190   9.889 -1.1561 -0.3690 -0.8724
54854SOL     OW69246   7.946   8.580   2.036 -0.5172  0.0995 -0.2445
54854SOL    HW169247   7.856   8.553   2.057 -0.6237 -0.3622 -1.2521
54854SOL    HW269248   7.970   8.638   2.108 -2.0312  1.1464 -0.5265
54855SOL     OW69249  10.194   7.909   1.725  0.3993  0.0851 -0.6365
54855SOL    HW169250  10.238   7.826   1.710 -0.3285 -0.1222 -1.6751
54855SOL    HW269251  10.247   7.952   1.792  0.9047 -1.1162 -0.2384
54856SOL     OW69252   9.701   6.020   8.495 -0.0989  0.0318 -0.7868
54856SOL    HW169253   9.688   6.055   8.407  2.0451 -1.6367 -1.8720
54856SOL    HW269254   9.660   5.933   8.493 -0.3108  0.1019 -0.0244
54857SOL     OW69255  11.767  11.828   4.460  0.1197 -0.2893 -0.1572
54857SOL    HW169256  11.734  11.838   4.549  0.9939 -0.6811  0.2313
54857SOL    HW269257  11.863  11.825   4.471  0.1961 -1.6886 -0.9562
54858SOL     OW69258  11.882   6.142   8.845 -0.2470  0.5877 -0.4209
54858SOL    HW169259  11.870   6.231   8.812  0.6951  1.1521  0.6850
54858SOL    HW269260  11.976   6.125   8.833 -0.1083  0.3692  0.8129
54859SOL     OW69261   6.074   5.779  11.106 -0.1603  0.7431 -0.6464
54859SOL    HW169262   6.060   5.739  11.021 -1.2823  1.1789 -0.6799
54859SOL    HW269263   6.010   5.851  11.110 -0.2876  0.5828  0.6543
54860SOL     OW69264   6.801   8.265  11.354 -0.1621 -0.2216 -0.5823
54860SOL    HW169265   6.859   8.251  11.279  0.8969 -0.3300  0.2367
54860SOL    HW269266   6.810   8.359  11.374 -0.8600 -0.0760 -0.9115
54861SOL     OW69267   5.526   6.124   3.159 -0.1896 -0.1140  0.4169
54861SOL    HW169268   5.458   6.181   3.124 -0.5790  0.5007  2.0905
54861SOL    HW269269   5.481   6.040   3.175  0.1722 -0.6490 -1.2019
54862SOL     OW69270   2.516  11.753   9.623 -0.4174 -0.1699 -0.4207
54862SOL    HW169271   2.607  11.727   9.634 -0.0415  1.0034 -0.5681
54862SOL    HW269272   2.479  11.750   9.711  0.0551  0.3146 -0.1968
54863SOL     OW69273   4.728   7.733   0.111  0.0415  0.5512 -0.4241
54863SOL    HW169274   4.811   7.776   0.134 -0.6571  1.5718  0.3065
54863SOL    HW269275   4.679   7.730   0.194 -0.4951 -0.4123 -0.7590
54864SOL     OW69276   6.675   8.798   0.694  0.2127  0.6695  0.2588
54864SOL    HW169277   6.725   8.873   0.661  0.1419 -0.0538 -1.6162
54864SOL    HW269278   6.732   8.759   0.760  1.9917  0.1534 -1.4820
54865SOL     OW69279   6.721   5.834   3.320  0.7770 -0.3012 -0.8099
54865SOL    HW169280   6.801   5.827   3.373  0.5491 -0.6696 -0.5109
54865SOL    HW269281   6.693   5.924   3.332 -2.6488 -1.6112  4.7203
54866SOL     OW69282   0.738   7.829   3.078 -0.1505 -0.1460 -0.1880
54866SOL    HW169283   0.765   7.737   3.082 -2.6256 -1.0059 -1.1090
54866SOL    HW269284   0.755   7.863   3.165 -0.6012 -1.9462  0.6570
54867SOL     OW69285   9.828   9.844   4.792 -0.1259  0.0700  0.4430
54867SOL    HW169286   9.822   9.799   4.876  1.7984 -0.6313  0.2501
54867SOL    HW269287   9.915   9.822   4.759 -1.1231 -0.3752 -2.1444
54868SOL     OW69288   7.089   0.265  10.570  0.2985 -0.1540 -0.3758
54868SOL    HW169289   7.048   0.233  10.650  0.5030 -0.9878 -0.5843
54868SOL    HW269290   7.176   0.225  10.571 -0.7948 -2.9913 -2.6097
54869SOL     OW69291   3.388   8.180   1.040  0.1349  0.1840 -0.7444
54869SOL    HW169292   3.410   8.219   0.955 -0.0695  0.5792 -0.6216
54869SOL    HW269293   3.338   8.101   1.018 -0.3417  0.5503 -0.9881
54870SOL     OW69294   4.489  11.330   7.146  0.6184  0.2732  0.2428
54870SOL    HW169295   4.584  11.322   7.136  0.4154 -1.2514 -0.8579
54870SOL    HW269296   4.454  11.289   7.067 -0.9797 -0.2275  1.1732
54871SOL     OW69297   1.751   2.396   5.835  0.4419  0.0379 -0.3017
54871SOL    HW169298   1.765   2.467   5.772  0.5909  1.6010  1.3995
54871SOL    HW269299   1.836   2.351   5.839  0.6920  0.4707 -0.5902
54872SOL     OW69300   2.162   1.618   8.119  0.3905  0.2795  0.5393
54872SOL    HW169301   2.166   1.618   8.214  0.0010  0.9611  0.5670
54872SOL    HW269302   2.086   1.674   8.099  0.9302  0.7690 -0.1805
54873SOL     OW69303   7.599   5.862   2.362  0.0325 -0.1940 -0.3591
54873SOL    HW169304   7.570   5.906   2.442  0.6742 -0.3168 -0.0564
54873SOL    HW269305   7.694   5.876   2.359  0.0780 -0.5801 -0.8590
54874SOL     OW69306   1.219   9.498  10.055 -0.3182 -0.0190  0.2383
54874SOL    HW169307   1.193   9.483   9.964  0.8974 -1.3891  0.0892
54874SOL    HW269308   1.225   9.593  10.063 -0.9873  0.1378 -0.9526
54875SOL     OW69309   8.196   8.628   4.518  0.3541  0.3320 -0.6471
54875SOL    HW169310   8.115   8.656   4.476  1.0369  1.1319 -1.4557
54875SOL    HW269311   8.200   8.534   4.501 -0.0915  0.3933 -1.1211
54876SOL     OW69312   6.565   4.938   9.394  0.0332 -0.6411 -0.0423
54876SOL    HW169313   6.637   4.989   9.432  0.1636 -0.0895 -0.9950
54876SOL    HW269314   6.579   4.944   9.299 -1.2094 -0.6222 -0.2409
54877SOL     OW69315   1.915   8.951   7.385  0.6097 -0.3320 -0.0028
54877SOL    HW169316   1.944   8.862   7.408 -0.2768 -0.3653  1.0577
54877SOL    HW269317   1.864   8.980   7.460 -0.0098  0.6806 -0.7880
54878SOL     OW69318   3.946  10.451   5.643  0.0580 -0.3812 -0.4834
54878SOL    HW169319   4.036  10.483   5.636  0.4573 -0.7682  1.9662
54878SOL    HW269320   3.892  10.530   5.640  0.6629  0.0722  0.2814
54879SOL     OW69321   5.227   6.112   6.945  0.4685 -0.1638  0.1676
54879SOL    HW169322   5.197   6.033   6.990 -1.3648 -0.1289 -0.9402
54879SOL    HW269323   5.226   6.089   6.852 -0.6852  1.3308 -0.2159
54880SOL     OW69324   2.924   5.561   3.451  0.2174 -0.5055 -0.0634
54880SOL    HW169325   2.863   5.506   3.500  0.9639 -0.7777  0.5866
54880SOL    HW269326   3.010   5.537   3.485  0.6845 -0.0877 -0.9243
54881SOL     OW69327   9.462   7.810   8.964  0.1632 -0.3679  0.1157
54881SOL    HW169328   9.505   7.851   8.889 -1.1203 -1.9665 -1.5770
54881SOL    HW269329   9.369   7.822   8.948 -0.1694 -1.8454  0.7807
54882SOL     OW69330  11.534   8.253   4.238 -0.4283  0.2896  0.1601
54882SOL    HW169331  11.536   8.347   4.218 -0.5290  0.2780  0.0963
54882SOL    HW269332  11.622   8.222   4.216 -0.6028  0.2306 -0.4972
54883SOL     OW69333   3.795   1.113   9.499  0.0078  0.3626  0.0926
54883SOL    HW169334   3.890   1.119   9.490  0.1067 -1.3915 -0.3380
54883SOL    HW269335   3.765   1.204   9.493  1.7888  1.1980  2.3212
54884SOL     OW69336   7.164   6.975   8.162 -0.2921 -0.0796  0.3597
54884SOL    HW169337   7.185   6.946   8.073 -0.7979  2.4317 -0.6500
54884SOL    HW269338   7.250   6.990   8.203 -0.0364  1.3092 -0.6311
54885SOL     OW69339   4.074  11.429   9.886 -0.0288 -0.1878 -0.6275
54885SOL    HW169340   4.153  11.376   9.897  0.0979  0.1697  0.3444
54885SOL    HW269341   4.002  11.368   9.902  0.1104 -0.1172  0.3236
54886SOL     OW69342   1.737  10.805   8.236  0.2019 -0.1059 -0.1169
54886SOL    HW169343   1.654  10.839   8.271 -0.1020  0.3738 -1.2489
54886SOL    HW269344   1.727  10.710   8.240 -1.1206 -0.0889 -1.7582
54887SOL     OW69345   4.388   5.551   2.989 -0.1454  0.1321 -0.2742
54887SOL    HW169346   4.376   5.566   3.083 -0.1721  1.0388 -0.4204
54887SOL    HW269347   4.404   5.456   2.982 -1.4777 -0.1723  0.5052
54888SOL     OW69348   2.477   3.673   8.381  0.4705  0.0158 -0.1373
54888SOL    HW169349   2.569   3.686   8.402  0.5089 -0.0164 -0.2814
54888SOL    HW269350   2.456   3.744   8.319  0.1322  0.6347  0.6718
54889SOL     OW69351   8.292   4.898   5.957 -0.5356 -0.5108  0.2873
54889SOL    HW169352   8.286   4.992   5.940 -0.2205 -0.6343 -0.5173
54889SOL    HW269353   8.338   4.892   6.041  1.5183  0.0045 -0.7318
54890SOL     OW69354   5.500   7.132   3.022  0.5811 -0.0769 -0.5246
54890SOL    HW169355   5.434   7.194   3.053  0.6543  0.1291 -0.7786
54890SOL    HW269356   5.525   7.164   2.935  0.4006 -0.6335 -0.7876
54891SOL     OW69357  10.741   6.496   5.035 -0.3394 -0.2459 -0.0710
54891SOL    HW169358  10.657   6.543   5.032  0.4670  1.3795  0.9937
54891SOL    HW269359  10.776   6.515   5.122  0.3731 -2.3208  0.1412
54892SOL     OW69360   6.710   3.154   6.138  0.0708 -0.3467  0.0630
54892SOL    HW169361   6.745   3.141   6.226  1.8163 -1.1186 -0.7004
54892SOL    HW269362   6.780   3.196   6.089 -1.2553  1.0722 -0.7166
54893SOL     OW69363   9.767   9.019   0.973 -0.0080 -0.3524 -0.0819
54893SOL    HW169364   9.762   9.087   0.906 -1.6122  0.8487  1.1637
54893SOL    HW269365   9.739   8.939   0.927 -2.7599  0.7528 -0.5548
54894SOL     OW69366   4.166   1.764  10.638 -0.0039  0.4421 -0.3207
54894SOL    HW169367   4.090   1.708  10.620 -0.1762 -0.5519  2.7766
54894SOL    HW269368   4.237   1.703  10.655  0.5337  1.2458  0.3737
54895SOL     OW69369  11.076   0.207   2.436  0.0192 -0.1107 -0.2682
54895SOL    HW169370  11.002   0.163   2.477  0.1784  0.7474  1.0188
54895SOL    HW269371  11.142   0.212   2.505  1.2602 -0.7967 -1.3693
54896SOL     OW69372   9.336   7.440   5.389 -0.4727 -0.0301 -0.3983
54896SOL    HW169373   9.366   7.491   5.464 -1.9563 -1.1673  1.0632
54896SOL    HW269374   9.296   7.504   5.331  1.8915  1.0664 -0.9276
54897SOL     OW69375   7.459   7.708  10.832 -0.7149  0.2730 -0.3191
54897SOL    HW169376   7.383   7.766  10.838 -1.3867 -0.7077  1.9477
54897SOL    HW269377   7.428   7.631  10.785 -0.4387  0.8141 -1.4137
54898SOL     OW69378  10.484   9.537   5.850  0.4233  0.3265 -0.2779
54898SOL    HW169379  10.434   9.584   5.917  0.8141 -1.5363  1.3992
54898SOL    HW269380  10.535   9.605   5.806 -0.2207  1.6748  0.9760
54899SOL     OW69381   7.959   9.465   0.818  0.1089  0.4074 -0.3076
54899SOL    HW169382   7.996   9.532   0.760  0.3441  0.1775 -0.4213
54899SOL    HW269383   7.885   9.510   0.860 -0.3234  0.4575 -1.0829
54900SOL     OW69384   8.081   5.042   1.856  0.3074 -0.0669 -0.2365
54900SOL    HW169385   8.166   5.004   1.881 -0.9920 -1.6997  2.1315
54900SOL    HW269386   8.061   5.103   1.927  0.0009  1.2374 -1.3999
54901SOL     OW69387   7.337   0.106  10.600 -0.1128  0.1430 -0.4625
54901SOL    HW169388   7.315   0.015  10.577 -2.9546  0.5408  0.3521
54901SOL    HW269389   7.407   0.129  10.539  0.2809 -2.3907 -1.0868
54902SOL     OW69390   7.282  10.045  10.276  0.2359  1.0143  0.2867
54902SOL    HW169391   7.221  10.103  10.231  1.0744  0.9889 -0.9359
54902SOL    HW269392   7.281   9.964  10.224  0.6850  0.7087  0.7347
54903SOL     OW69393   6.322   6.292   5.120  0.5971  0.1267  0.4712
54903SOL    HW169394   6.300   6.385   5.113  3.1073  0.9861  2.5322
54903SOL    HW269395   6.246   6.254   5.165 -0.9769  0.8458 -1.4023
54904SOL     OW69396   7.917   0.711   5.003  0.0332 -0.9178 -0.3493
54904SOL    HW169397   7.911   0.626   4.958 -1.4568 -2.0637  1.8029
54904SOL    HW269398   7.980   0.696   5.074 -1.3242 -0.7231  0.9423
54905SOL     OW69399   0.215   9.497   2.022  0.1257 -0.2509 -0.9057
54905SOL    HW169400   0.189   9.472   1.934  3.4898  1.6068 -2.6466
54905SOL    HW269401   0.306   9.467   2.030  0.7052  1.6594  0.9765
54906SOL     OW69402   5.458  11.941   3.893  0.1613 -0.0740  0.5658
54906SOL    HW169403   5.433  11.995   3.818 -1.8323 -1.1804  0.3610
54906SOL    HW269404   5.521  11.878   3.857 -0.3541 -0.2327 -0.0829
54907SOL     OW69405   1.886   3.235   2.270  0.2576  0.5377  0.0722
54907SOL    HW169406   1.809   3.245   2.326  0.4444  0.4112  0.3512
54907SOL    HW269407   1.941   3.311   2.292 -0.2380  1.1824 -0.8479
54908SOL     OW69408   6.239   7.292  11.901 -0.6880  0.4322  0.0461
54908SOL    HW169409   6.194   7.319  11.982 -0.3382 -0.3140  0.5057
54908SOL    HW269410   6.196   7.210  11.877 -0.9116  0.7489 -0.6349
54909SOL     OW69411  11.136   9.089   1.821  0.2008 -0.3532  0.0346
54909SOL    HW169412  11.107   9.004   1.787  1.0443 -0.1052 -1.4142
54909SOL    HW269413  11.205   9.067   1.883  1.2752 -0.7242 -1.2433
54910SOL     OW69414   0.234   9.320   8.200  0.1487  0.1116  0.3773
54910SOL    HW169415   0.208   9.228   8.192  0.1747  0.2047 -1.0793
54910SOL    HW269416   0.211   9.358   8.115 -1.6465  1.9225  1.5974
54911SOL     OW69417   4.637   3.536   0.760 -0.4221 -0.2072  0.2229
54911SOL    HW169418   4.542   3.531   0.774 -0.2938 -0.3516  1.1307
54911SOL    HW269419   4.651   3.494   0.676 -1.7210  4.0839 -2.5142
54912SOL     OW69420   5.044   9.089   4.431 -0.0614 -0.3631 -0.0751
54912SOL    HW169421   4.979   9.019   4.424  0.8340 -1.1232 -1.1719
54912SOL    HW269422   5.114   9.051   4.484 -0.5444  0.5209  1.2745
54913SOL     OW69423   8.854   2.329   0.698  0.5714  0.1744 -0.3338
54913SOL    HW169424   8.920   2.387   0.661 -0.7223  0.1968 -2.8677
54913SOL    HW269425   8.776   2.384   0.705  0.3824 -0.2495  1.1028
54914SOL     OW69426   6.214   5.281   4.921 -0.1131 -0.1666  0.2427
54914SOL    HW169427   6.196   5.370   4.892  0.4295  0.3007  1.2831
54914SOL    HW269428   6.228   5.232   4.840 -1.8654  0.3483 -0.4128
54915SOL     OW69429  10.235   4.770   9.904 -0.2545 -0.8532 -0.3248
54915SOL    HW169430  10.219   4.724   9.822  1.3352 -0.1021 -1.0935
54915SOL    HW269431  10.254   4.860   9.879 -3.0672  0.2613  1.1383
54916SOL     OW69432   7.323   2.459  10.125  0.4782 -0.2717  0.7631
54916SOL    HW169433   7.235   2.422  10.134 -0.8580  1.8908 -1.9575
54916SOL    HW269434   7.366   2.402  10.062 -0.0505  0.3305 -0.1562
54917SOL     OW69435   7.250   7.400   5.294  0.1382 -0.1479 -0.3293
54917SOL    HW169436   7.333   7.353   5.308 -0.6948 -1.2497  1.2355
54917SOL    HW269437   7.271   7.492   5.311  1.0623 -0.4087  0.0033
54918SOL     OW69438   8.549   9.021  11.764 -0.2332 -0.1194  0.6096
54918SOL    HW169439   8.546   8.954  11.832 -1.6866 -1.9728 -1.1418
54918SOL    HW269440   8.627   9.000  11.713 -0.8789 -0.7572 -0.1492
54919SOL     OW69441   9.556   6.636   1.170 -0.1410  0.0230  0.7235
54919SOL    HW169442   9.493   6.576   1.131  1.0363 -0.2956 -0.8278
54919SOL    HW269443   9.523   6.653   1.258 -0.1182 -3.5413  1.5634
54920SOL     OW69444  11.724   0.506   3.268 -0.3969  0.0054 -0.2422
54920SOL    HW169445  11.732   0.571   3.338 -1.6921  0.8195 -0.8152
54920SOL    HW269446  11.633   0.478   3.272 -0.0825 -1.1338 -0.5936
54921SOL     OW69447   3.931   0.061   1.006  0.0422 -0.1550  0.0629
54921SOL    HW169448   3.897   0.138   1.052 -0.4746 -0.5047  0.2780
54921SOL    HW269449   4.017   0.088   0.975  0.5473  0.0023  1.5097
54922SOL     OW69450   1.113   1.510   9.631 -0.0893  0.0816  0.3396
54922SOL    HW169451   1.115   1.575   9.562 -1.0842 -0.6613 -0.4221
54922SOL    HW269452   1.027   1.519   9.671 -0.7671 -1.6049 -0.6424
54923SOL     OW69453   6.953   0.021   4.143  0.1976 -0.3415 -0.1605
54923SOL    HW169454   6.941   0.014   4.048  2.0380 -0.3435 -0.4333
54923SOL    HW269455   6.969   0.114   4.158 -0.7471 -0.2425  0.2436
54924SOL     OW69456   6.453   0.263   1.065  0.2344  0.0890  0.3657
54924SOL    HW169457   6.514   0.315   1.012  0.6880 -0.6847  0.1147
54924SOL    HW269458   6.460   0.301   1.153  1.2446 -0.1153  0.3848
54925SOL     OW69459   7.826   6.806   1.876 -0.0296 -0.0411 -0.3796
54925SOL    HW169460   7.785   6.822   1.791 -0.0998  0.0681 -0.3253
54925SOL    HW269461   7.884   6.881   1.889 -1.3608  0.8884  0.4858
54926SOL     OW69462   4.794   9.533  10.912  0.4335  0.0111  0.3484
54926SOL    HW169463   4.770   9.527  10.820 -0.3448 -0.1544  0.5502
54926SOL    HW269464   4.889   9.542  10.912  0.3382  1.3719 -0.5284
54927SOL     OW69465  11.585   3.493   9.316  0.3571 -0.2680 -0.7590
54927SOL    HW169466  11.597   3.486   9.411  1.4814  1.1606 -0.7670
54927SOL    HW269467  11.614   3.408   9.282 -0.2268 -0.8590  0.1656
54928SOL     OW69468  10.511   4.372   6.184  0.2526  0.1154 -0.2142
54928SOL    HW169469  10.434   4.318   6.173  0.9157 -0.6561 -1.2363
54928SOL    HW269470  10.480   4.462   6.169 -0.9089  0.0957  1.7687
54929SOL     OW69471   1.197   3.474   4.224 -0.0817 -0.2897 -0.8450
54929SOL    HW169472   1.139   3.407   4.187  1.7745 -1.7617 -1.2078
54929SOL    HW269473   1.280   3.463   4.177  0.9605  0.8082  0.6418
54930SOL     OW69474   3.707   2.949   1.137  0.5896 -0.3366  0.1637
54930SOL    HW169475   3.670   2.869   1.100 -0.8124  0.7387 -0.8685
54930SOL    HW269476   3.632   2.992   1.180  1.3155  0.4223  0.7029
54931SOL     OW69477   2.747   6.005   1.466  0.0946 -0.1125 -0.1295
54931SOL    HW169478   2.699   6.063   1.524 -0.0697  0.3005 -0.6694
54931SOL    HW269479   2.698   6.007   1.384 -0.1822 -1.3822 -0.0188
54932SOL     OW69480   0.120   3.933   1.451 -0.0040  0.2690  0.1959
54932SOL    HW169481   0.066   3.862   1.487 -1.1818  0.3152 -1.3245
54932SOL    HW269482   0.122   3.999   1.519 -0.5515 -0.4206  0.9015
54933SOL     OW69483  10.047  10.513   6.142 -0.3559 -0.0659 -0.4626
54933SOL    HW169484  10.099  10.491   6.064  0.3264  1.6940 -0.5409
54933SOL    HW269485   9.956  10.507   6.112 -0.0994  0.8919 -1.4993
54934SOL     OW69486   2.841   9.280   5.807 -0.0242  0.2519  0.1827
54934SOL    HW169487   2.867   9.262   5.898 -0.2843  0.4714  0.2987
54934SOL    HW269488   2.922   9.266   5.757  0.2760  0.7257  0.5196
54935SOL     OW69489   4.497   7.460  11.255  0.4293 -0.0443 -0.8599
54935SOL    HW169490   4.423   7.485  11.311  0.5352 -0.4118 -0.5518
54935SOL    HW269491   4.487   7.365  11.243 -0.6445  0.2891 -2.9998
54936SOL     OW69492   0.590   4.355   9.091  0.2928  0.5229 -0.1997
54936SOL    HW169493   0.680   4.379   9.067  0.6287 -1.3423 -0.9738
54936SOL    HW269494   0.539   4.435   9.077  1.6105  1.2671 -0.9474
54937SOL     OW69495   2.683   7.696   8.838 -0.4315 -0.5014 -0.1388
54937SOL    HW169496   2.633   7.718   8.917  0.2285  1.6448 -0.2405
54937SOL    HW269497   2.764   7.658   8.871  0.2625  1.2703  0.3368
54938SOL     OW69498  11.274   8.718  11.060 -0.2726 -0.1885  0.0077
54938SOL    HW169499  11.302   8.747  11.147 -1.6265  0.0936  0.3735
54938SOL    HW269500  11.255   8.625  11.070 -2.8945  0.3305  0.7428
54939SOL     OW69501   0.008   5.256   4.023  0.6141  0.5594  0.0995
54939SOL    HW169502   0.070   5.201   3.976  1.4776  0.9509  0.7441
54939SOL    HW269503   0.043   5.345   4.013 -0.3460  0.9064 -0.2897
54940SOL     OW69504   2.624   9.606   1.751  0.0574 -0.4562  0.0592
54940SOL    HW169505   2.701   9.556   1.779  0.0555 -1.0938 -1.0194
54940SOL    HW269506   2.591   9.646   1.832  1.2626 -0.5225  0.6094
54941SOL     OW69507   1.757   1.981  10.249  0.2638 -0.0892 -0.1808
54941SOL    HW169508   1.764   1.900  10.300  0.6653 -0.3286 -0.6057
54941SOL    HW269509   1.753   1.951  10.158 -0.6011  0.3250 -0.2905
54942SOL     OW69510   3.579   9.490   9.913 -0.0832  0.3172  0.5094
54942SOL    HW169511   3.600   9.507   9.821 -1.9617  0.8713  0.1476
54942SOL    HW269512   3.547   9.574   9.946 -0.8162 -0.2457  1.2607
54943SOL     OW69513   6.009   2.208   3.609 -0.2351  0.5418  0.7035
54943SOL    HW169514   5.962   2.175   3.533  2.2995 -2.1198  0.1497
54943SOL    HW269515   5.964   2.170   3.684 -1.2730  1.2363  0.4615
54944SOL     OW69516   8.197   7.261  10.124  0.9886 -0.1448  0.0238
54944SOL    HW169517   8.242   7.297  10.201 -0.0155 -1.0398  1.0707
54944SOL    HW269518   8.123   7.212  10.161 -1.9679  2.7034 -1.6710
54945SOL     OW69519   9.734   8.704   0.613  0.0849 -0.2129 -0.0173
54945SOL    HW169520   9.728   8.661   0.528 -0.5040  0.4373 -0.3118
54945SOL    HW269521   9.727   8.798   0.593  2.0543  0.1003  0.5354
54946SOL     OW69522   6.697   0.038   3.062  0.1527 -0.1896 -0.3951
54946SOL    HW169523   6.615   0.004   3.028  0.7991 -1.6605 -0.5621
54946SOL    HW269524   6.674   0.077   3.147 -0.6842 -0.7548 -0.3515
54947SOL     OW69525   4.223  10.334   3.706 -0.1302 -0.6342 -0.0541
54947SOL    HW169526   4.162  10.351   3.778  0.3853  3.5774 -0.3496
54947SOL    HW269527   4.309  10.335   3.747  0.0353 -2.3373 -0.2611
54948SOL     OW69528   7.219   4.729  10.208  0.3775  0.0393 -0.1409
54948SOL    HW169529   7.164   4.808  10.206 -0.8024 -0.7452 -0.0806
54948SOL    HW269530   7.177   4.672  10.273  2.2830  0.0780  1.1879
54949SOL     OW69531  10.883   8.403  10.421 -0.7204 -0.4280 -0.4592
54949SOL    HW169532  10.975   8.383  10.437 -0.7983 -0.1241  0.4366
54949SOL    HW269533  10.858   8.347  10.347  0.8000  1.1764 -2.2803
54950SOL     OW69534   5.931   5.762   7.539  0.0428 -0.3530 -0.0818
54950SOL    HW169535   5.876   5.711   7.598  0.9636  0.7970  1.8281
54950SOL    HW269536   5.996   5.699   7.506  0.9103 -0.5627  1.9175
54951SOL     OW69537   1.407   9.283   0.353 -0.1271 -0.4862 -0.0594
54951SOL    HW169538   1.318   9.277   0.320 -0.4067 -0.0107  0.5712
54951SOL    HW269539   1.427   9.377   0.350 -0.3907 -0.3447  1.6501
54952SOL     OW69540   7.119   0.407  10.814  0.6976  0.5052  0.5580
54952SOL    HW169541   7.160   0.329  10.853 -3.7074 -1.7113  1.4021
54952SOL    HW269542   7.051   0.431  10.877 -1.7510  1.5213 -2.2696
54953SOL     OW69543   6.027   3.736   9.296 -0.0928 -0.1320 -0.9950
54953SOL    HW169544   6.095   3.802   9.309 -0.5648 -0.0352  1.4811
54953SOL    HW269545   6.013   3.698   9.383 -1.7244 -1.6362 -1.8380
54954SOL     OW69546   0.651   7.154   9.882 -0.2675  0.4974  0.0987
54954SOL    HW169547   0.654   7.198   9.797  1.6773 -0.9216 -0.6320
54954SOL    HW269548   0.680   7.065   9.864 -1.3777 -0.3143  2.0055
54955SOL     OW69549   9.222   0.682   0.055 -0.0346 -0.3202  1.0930
54955SOL    HW169550   9.230   0.662   0.148  0.8084  3.6377  2.0800
54955SOL    HW269551   9.312   0.676   0.022  0.1455  0.9846  1.2858
54956SOL     OW69552   5.408   4.724   5.729  0.5454 -0.3254 -0.2275
54956SOL    HW169553   5.500   4.735   5.751  0.6456 -0.6400 -0.4876
54956SOL    HW269554   5.387   4.799   5.673  1.0290 -1.0293 -1.3760
54957SOL     OW69555   0.410   9.360   7.505  0.5533  0.2614 -0.3421
54957SOL    HW169556   0.347   9.303   7.461  0.1973  0.6259 -0.3109
54957SOL    HW269557   0.453   9.304   7.569 -0.5809  0.2860  0.4657
54958SOL     OW69558   9.535  10.293  10.859  0.2201 -0.1998  0.2746
54958SOL    HW169559   9.545  10.385  10.882 -0.9011  0.0577 -0.1981
54958SOL    HW269560   9.444  10.285  10.830  0.9389 -0.9229 -1.9986
54959SOL     OW69561   4.759   2.178   7.781  0.0426 -0.3966  0.0771
54959SOL    HW169562   4.809   2.232   7.843  0.0996 -0.1783 -0.1571
54959SOL    HW269563   4.691   2.137   7.834 -1.2479  1.4285 -0.0707
54960SOL     OW69564   4.965   7.332   4.212 -0.6383  0.4641 -0.0187
54960SOL    HW169565   4.989   7.386   4.137  0.2667 -0.9901 -0.8209
54960SOL    HW269566   4.879   7.296   4.189 -0.4187  0.1207 -0.3086
54961SOL     OW69567   1.018   6.558   2.566  0.3675 -0.4120  0.3527
54961SOL    HW169568   0.936   6.510   2.580 -0.7633  1.2820 -0.1077
54961SOL    HW269569   1.066   6.505   2.501 -0.3898 -1.3806  0.5540
54962SOL     OW69570  11.042   9.974  11.396  0.8033 -0.5840 -0.1117
54962SOL    HW169571  10.956   9.951  11.432 -0.5411 -0.0631 -2.7677
54962SOL    HW269572  11.050  10.067  11.414  1.1087 -0.7510  0.6586
54963SOL     OW69573   4.334  11.184   0.723 -0.6199  0.2848 -0.4630
54963SOL    HW169574   4.261  11.246   0.716 -1.4884 -0.7567 -0.8409
54963SOL    HW269575   4.352  11.158   0.633  0.6844  1.0111 -0.4514
54964SOL     OW69576   4.033   5.707   7.637 -0.6498  0.5228 -1.0775
54964SOL    HW169577   4.020   5.674   7.548 -1.4907  2.5504 -1.7678
54964SOL    HW269578   3.959   5.671   7.687  1.0132 -2.4565 -0.5550
54965SOL     OW69579   3.765   6.915   1.108  0.3590  0.4763 -0.4030
54965SOL    HW169580   3.777   7.006   1.081  0.6123  0.1064 -1.6241
54965SOL    HW269581   3.711   6.920   1.187  0.2827  1.6738 -0.5139
54966SOL     OW69582  11.554   2.928  11.636  0.2734 -0.0998  0.0202
54966SOL    HW169583  11.571   2.972  11.553 -0.4557 -0.0409 -0.1069
54966SOL    HW269584  11.501   2.990  11.686  1.7771  0.3972  1.0612
54967SOL     OW69585   6.629   6.551   9.764 -0.2802 -0.2925 -0.7586
54967SOL    HW169586   6.713   6.576   9.724 -0.5281  0.7592 -0.6333
54967SOL    HW269587   6.564   6.574   9.698 -0.6866  1.3700  0.1790
54968SOL     OW69588   8.908   9.600  11.663 -0.8311  0.2555  0.0805
54968SOL    HW169589   8.922   9.630  11.574  2.8986  0.2797  0.5129
54968SOL    HW269590   8.929   9.676  11.718 -1.9871 -0.0833  1.0413
54969SOL     OW69591   2.044  11.226   1.906 -0.5478 -0.0109 -0.0726
54969SOL    HW169592   2.124  11.246   1.859 -0.5648  2.2489  0.7620
54969SOL    HW269593   2.003  11.311   1.924 -3.3815 -1.0788 -0.8479
54970SOL     OW69594   8.665   5.488   4.189  0.0041  0.0623  0.1669
54970SOL    HW169595   8.724   5.552   4.151 -0.2517  0.3855  0.3143
54970SOL    HW269596   8.619   5.450   4.114  0.6006 -0.3987  0.0242
54971SOL     OW69597   8.131   4.623   8.727  0.8750  0.2229  0.2626
54971SOL    HW169598   8.100   4.660   8.644 -0.0669  0.2210  0.6028
54971SOL    HW269599   8.072   4.549   8.744  1.7498 -0.4702  0.3852
54972SOL     OW69600   5.777   9.954   1.160 -0.2572 -0.0401  0.0318
54972SOL    HW169601   5.779   9.939   1.255 -0.8098  1.3128  0.2797
54972SOL    HW269602   5.685   9.944   1.137 -0.2278  0.3059 -0.2376
54973SOL     OW69603   7.458   4.468   8.392 -0.3712 -0.0118  0.1530
54973SOL    HW169604   7.462   4.503   8.303  1.0980 -1.5681 -0.4547
54973SOL    HW269605   7.527   4.514   8.439 -0.1796 -0.2098  0.0700
54974SOL     OW69606   4.632   4.077   4.293 -0.4676 -0.0337 -0.0284
54974SOL    HW169607   4.663   4.164   4.320  0.4302 -0.5420  0.6389
54974SOL    HW269608   4.580   4.047   4.368  0.3689 -0.6269  0.3247
54975SOL     OW69609   8.127  10.618   4.822 -0.9486 -0.0091 -0.4324
54975SOL    HW169610   8.212  10.660   4.836 -1.0817  0.3095 -0.5767
54975SOL    HW269611   8.066  10.671   4.873 -1.3256  0.7416 -1.6221
54976SOL     OW69612   3.586   3.965   4.091 -0.5742  0.2102 -0.5563
54976SOL    HW169613   3.681   3.968   4.080 -0.6730  0.0487 -1.5190
54976SOL    HW269614   3.564   4.049   4.129 -0.0031  0.0992  0.0448
54977SOL     OW69615   0.392   1.003   1.135 -0.3004  0.0102  0.1416
54977SOL    HW169616   0.408   0.963   1.050  0.6536  3.1051 -1.2833
54977SOL    HW269617   0.306   1.044   1.126 -0.0101  0.7081  0.4978
54978SOL     OW69618   3.010   4.597   4.958 -0.5245  0.2290 -0.3990
54978SOL    HW169619   3.028   4.563   5.046 -1.3158 -0.7636 -0.5952
54978SOL    HW269620   3.088   4.648   4.936  0.5072 -1.0373  0.1429
54979SOL     OW69621   9.464   5.901   8.869  0.4492  0.2576  0.1828
54979SOL    HW169622   9.548   5.918   8.826 -0.5327  1.0716 -1.5668
54979SOL    HW269623   9.455   5.806   8.869  0.1914  0.2088 -2.2187
54980SOL     OW69624  11.400   6.218   5.661  1.0535 -0.4180 -0.2274
54980SOL    HW169625  11.494   6.216   5.640  0.9702  0.8522 -0.7923
54980SOL    HW269626  11.357   6.229   5.576  0.6193  2.9993  0.2949
54981SOL     OW69627   7.841   5.048   1.572  0.4216  0.0453 -0.1550
54981SOL    HW169628   7.836   4.952   1.578 -0.9019 -0.1209 -2.5900
54981SOL    HW269629   7.919   5.071   1.622  0.2723 -2.2132  1.2413
54982SOL     OW69630   1.359  11.232  10.195  0.1966  0.0049 -0.2521
54982SOL    HW169631   1.326  11.157  10.244 -1.4309  1.0816  0.3776
54982SOL    HW269632   1.289  11.252  10.132  0.0144  1.7733  0.4686
54983SOL     OW69633   6.046   5.267   7.265 -0.0000 -0.2637  0.1681
54983SOL    HW169634   6.032   5.186   7.313  2.7901 -0.6866  0.4208
54983SOL    HW269635   6.063   5.332   7.334 -1.5788  0.4433 -0.0628
54984SOL     OW69636   4.138  11.290   4.614 -0.2672 -0.5225  0.2550
54984SOL    HW169637   4.117  11.243   4.534 -0.0720 -1.5385  0.7797
54984SOL    HW269638   4.209  11.349   4.590 -1.1035  0.1487 -0.6209
54985SOL     OW69639   0.389   9.263   5.098 -0.0144 -0.3807  0.0612
54985SOL    HW169640   0.433   9.307   5.170 -1.1063 -0.8716  1.0623
54985SOL    HW269641   0.432   9.179   5.091 -0.7746 -0.8810  1.0726
54986SOL     OW69642   1.612   1.792   4.537 -0.3182  0.2471 -0.0104
54986SOL    HW169643   1.684   1.810   4.477 -0.2854  0.7483  0.1773
54986SOL    HW269644   1.582   1.878   4.565  0.2001  0.0058  1.3389
54987SOL     OW69645  10.441   9.677   4.536  0.1238  0.2543 -0.2191
54987SOL    HW169646  10.437   9.766   4.569  0.7743  0.1834  0.0646
54987SOL    HW269647  10.517   9.638   4.579 -0.4352 -0.5912  0.0377
54988SOL     OW69648   5.556   3.500   7.711 -0.6328  0.4067  0.2813
54988SOL    HW169649   5.570   3.413   7.674 -1.6916  1.0001 -1.6558
54988SOL    HW269650   5.482   3.490   7.770 -0.4703 -0.0880  0.4010
54989SOL     OW69651  10.078  11.549   9.360 -0.1474 -0.3678  0.2436
54989SOL    HW169652  10.109  11.635   9.332  0.3686 -0.0740  1.5916
54989SOL    HW269653  10.065  11.499   9.279 -1.9055  1.4375 -0.6605
54990SOL     OW69654   3.528   6.704   3.305 -0.6621  0.5088  0.4299
54990SOL    HW169655   3.475   6.633   3.340 -0.4125  0.2203  0.2284
54990SOL    HW269656   3.474   6.782   3.315 -0.7055  0.3900  1.2029
54991SOL     OW69657   6.137  10.691   8.471  0.2825  0.3523 -0.0410
54991SOL    HW169658   6.148  10.777   8.511 -0.8899  0.0405  1.0167
54991SOL    HW269659   6.224  10.667   8.439  0.9967  1.1567  1.2477
54992SOL     OW69660   4.381   2.208   6.192  0.2292 -0.6906  0.4457
54992SOL    HW169661   4.361   2.302   6.192 -0.1004 -0.7436 -1.1330
54992SOL    HW269662   4.363   2.180   6.282 -0.1719  0.6470  0.8053
54993SOL     OW69663  11.841   5.253   0.581  0.2445 -0.2586 -0.0173
54993SOL    HW169664  11.807   5.330   0.535 -0.6328 -0.0787  0.9122
54993SOL    HW269665  11.872   5.288   0.665  1.7835 -0.5915 -0.4097
54994SOL     OW69666   5.953   0.618   1.322  0.1560 -0.0670  0.2505
54994SOL    HW169667   5.991   0.630   1.410  0.4036 -0.1722  0.1583
54994SOL    HW269668   5.864   0.587   1.339 -0.0450  0.6036  0.4763
54995SOL     OW69669   6.178   2.312   3.238 -0.5074 -0.1070  0.2026
54995SOL    HW169670   6.169   2.304   3.333 -1.1488  0.8735  0.2417
54995SOL    HW269671   6.160   2.405   3.220 -0.4404 -0.2919 -0.8767
54996SOL     OW69672   9.083   2.429   1.977 -0.0309  0.0176 -0.2851
54996SOL    HW169673   9.005   2.372   1.979 -0.3727  0.4803 -0.3730
54996SOL    HW269674   9.048   2.517   1.964  0.5164  0.2178 -0.4201
54997SOL     OW69675   7.189   1.953   2.279  0.2228 -0.1252 -0.2863
54997SOL    HW169676   7.140   1.877   2.250  2.8399 -2.4456  0.8471
54997SOL    HW269677   7.265   1.957   2.221  0.3036  1.4811 -0.1342
54998SOL     OW69678   3.096   2.026   0.173 -0.2998  0.2805  0.0396
54998SOL    HW169679   3.182   1.994   0.146 -0.1170  0.5853  0.2527
54998SOL    HW269680   3.115   2.084   0.247 -0.7715 -0.3996  0.7062
54999SOL     OW69681  11.504  10.588  11.940 -0.2987  0.2503  0.6902
54999SOL    HW169682  11.478  10.585  11.848  2.0770  0.2103 -0.0395
54999SOL    HW269683  11.535  10.499  11.959  0.1542  0.5172  1.2262
55000SOL     OW69684   5.072   9.954   4.208 -0.2135 -0.3762  0.1070
55000SOL    HW169685   5.021  10.022   4.163 -0.0517  0.0787  0.5931
55000SOL    HW269686   5.007   9.891   4.237 -0.3023 -0.7710 -0.9151
55001SOL     OW69687   0.961   2.261  11.973 -0.4589  0.5575  0.2851
55001SOL    HW169688   1.023   2.211  12.027  0.0320 -0.0258 -0.7898
55001SOL    HW269689   0.919   2.321  12.035 -0.4120 -0.5599  1.4463
55002SOL     OW69690   2.406   6.151   1.337 -0.4300 -0.4703 -0.1089
55002SOL    HW169691   2.392   6.064   1.375  2.5615  0.1561  2.9530
55002SOL    HW269692   2.465   6.136   1.263 -1.1271 -1.1342 -0.5476
55003SOL     OW69693   2.626   5.192   1.427  0.1852 -0.1916  0.8456
55003SOL    HW169694   2.622   5.173   1.333 -1.3220  0.9760  0.6293
55003SOL    HW269695   2.555   5.140   1.465 -1.1714  1.5777  0.8554
55004SOL     OW69696  10.113   5.012  10.524  0.0860 -0.2636 -0.2292
55004SOL    HW169697  10.076   4.926  10.504 -0.1351 -0.4075  0.7848
55004SOL    HW269698  10.157   5.001  10.608  1.1203  0.3072 -0.6724
55005SOL     OW69699   7.416   4.333   3.514  0.0247  0.1865 -0.3951
55005SOL    HW169700   7.400   4.414   3.562  0.0631  0.7223 -1.2645
55005SOL    HW269701   7.464   4.360   3.436 -0.6336 -0.5743 -1.0894
55006SOL     OW69702   3.680   5.242   4.541 -0.5673 -1.0111  0.1402
55006SOL    HW169703   3.656   5.287   4.622 -0.3735 -1.5249  0.4864
55006SOL    HW269704   3.738   5.303   4.496  1.0767 -1.5967  1.3954
55007SOL     OW69705   0.803   2.078   0.252 -0.5752 -0.2119  0.1644
55007SOL    HW169706   0.772   2.102   0.339  0.7316  0.6679  0.4175
55007SOL    HW269707   0.747   2.128   0.193 -1.8960 -1.3070  0.4440
55008SOL     OW69708   0.919   4.808   2.616 -0.8155  0.1454  0.4476
55008SOL    HW169709   0.927   4.771   2.528  1.8286  1.4264  0.0530
55008SOL    HW269710   0.946   4.737   2.674  0.5404  0.2348 -0.0370
55009SOL     OW69711  11.066   1.440  11.176  0.0218 -0.5377 -0.1262
55009SOL    HW169712  11.137   1.467  11.117  1.1705 -0.0389  1.4416
55009SOL    HW269713  11.072   1.344  11.178  1.0477 -0.4757  0.4380
55010SOL     OW69714   7.076   9.082   3.073 -0.5541 -0.2130  0.2694
55010SOL    HW169715   7.151   9.099   3.017 -0.2606 -1.6277  0.1768
55010SOL    HW269716   7.015   9.153   3.055 -0.3624 -0.4814 -1.6564
55011SOL     OW69717   0.675  11.190   4.838 -0.2986  0.0481 -0.3646
55011SOL    HW169718   0.668  11.098   4.861 -0.9976  0.1313 -0.1986
55011SOL    HW269719   0.756  11.197   4.788  0.3379 -0.4493  0.5763
55012SOL     OW69720  10.772   1.688   5.963  0.3197  0.1741  0.1338
55012SOL    HW169721  10.733   1.677   6.050  1.3887 -1.0446  0.4984
55012SOL    HW269722  10.810   1.603   5.943  0.3297  0.5197 -1.4264
55013SOL     OW69723   2.266   7.467   5.409 -0.2951  0.5375  0.9930
55013SOL    HW169724   2.297   7.529   5.343  0.3459  0.5852  1.3377
55013SOL    HW269725   2.233   7.393   5.359  0.2937  0.5242  0.6204
55014SOL     OW69726   0.681   0.604   0.119  0.4221 -0.3809  0.0845
55014SOL    HW169727   0.742   0.554   0.064  0.2855 -1.0200  0.5059
55014SOL    HW269728   0.603   0.614   0.065  1.5256  2.1001 -1.2182
55015SOL     OW69729   7.697   7.084   7.046 -0.6267 -0.5214 -0.4085
55015SOL    HW169730   7.733   7.158   6.997 -1.9048  0.3791 -0.0562
55015SOL    HW269731   7.765   7.016   7.042  0.9515  0.9647 -0.0270
55016SOL     OW69732   9.164  11.732   5.515  0.0922  0.1808 -0.0771
55016SOL    HW169733   9.135  11.756   5.427 -1.4691  0.6132  0.5221
55016SOL    HW269734   9.247  11.686   5.501 -0.0602  0.3521 -1.7541
55017SOL     OW69735   9.947   4.340   1.663 -0.3850  0.3630  0.1090
55017SOL    HW169736  10.001   4.296   1.729  0.3691  0.0795 -0.6744
55017SOL    HW269737  10.004   4.409   1.627 -0.7874  0.5249 -0.2269
55018SOL     OW69738   7.258   2.262   0.516 -0.5553 -0.2109  0.5621
55018SOL    HW169739   7.351   2.277   0.503 -0.3682 -0.2928  1.7553
55018SOL    HW269740   7.222   2.259   0.427  0.6914 -0.9673  0.0597
55019SOL     OW69741   4.953   3.903  11.765  0.2748 -0.0321 -0.4940
55019SOL    HW169742   4.932   3.904  11.859 -1.1308 -2.5445 -0.7024
55019SOL    HW269743   5.048   3.888  11.763  0.0168 -2.3222  0.6249
55020SOL     OW69744   8.334   6.942   4.108  0.1678 -0.2435 -0.5203
55020SOL    HW169745   8.403   6.901   4.056  0.2177 -0.1350 -0.5405
55020SOL    HW269746   8.377   7.016   4.152  0.0364 -0.1000 -0.6315
55021SOL     OW69747   7.670   8.317   0.069 -0.7099  0.0266  0.1391
55021SOL    HW169748   7.756   8.282   0.045 -0.6468  0.0590  0.3166
55021SOL    HW269749   7.675   8.410   0.046 -0.9850 -0.1382 -0.6190
55022SOL     OW69750   0.122   7.840  11.487 -0.2229 -0.5304  0.3873
55022SOL    HW169751   0.164   7.779  11.425  0.7634 -0.5632  1.0600
55022SOL    HW269752   0.098   7.785  11.562  1.2091 -0.0217  1.2549
55023SOL     OW69753   6.860  11.717   8.415 -0.0434 -0.0981  1.1343
55023SOL    HW169754   6.955  11.716   8.411 -0.0562 -0.4022 -2.0734
55023SOL    HW269755   6.836  11.630   8.444  0.7045 -0.9401 -0.6302
55024SOL     OW69756  10.639   7.455   4.492 -0.6103 -0.4934 -0.1743
55024SOL    HW169757  10.597   7.370   4.508 -2.5553 -0.1501 -2.7638
55024SOL    HW269758  10.697   7.439   4.417 -1.3067  0.4979 -0.9587
55025SOL     OW69759   1.150   3.383   9.499  0.1509  0.0021 -0.0526
55025SOL    HW169760   1.236   3.405   9.535 -0.3042  0.1427  0.9701
55025SOL    HW269761   1.157   3.403   9.405  1.0731  0.4790  0.1127
55026SOL     OW69762   5.642   0.750  11.461 -0.3701 -0.1844  0.4376
55026SOL    HW169763   5.649   0.724  11.370 -1.6947  0.0294  0.2551
55026SOL    HW269764   5.560   0.710  11.491 -0.7032  0.9522  1.1024
55027SOL     OW69765   8.126  11.591   2.922  0.1149  0.0778  0.2714
55027SOL    HW169766   8.135  11.496   2.923 -0.6868 -0.0473 -0.9927
55027SOL    HW269767   8.132  11.618   3.013 -1.9844 -1.4457  0.9431
55028SOL     OW69768  10.202  10.379  10.552 -0.2721  0.7306 -0.0734
55028SOL    HW169769  10.245  10.323  10.617 -0.4020 -0.9256 -1.3797
55028SOL    HW269770  10.110  10.380  10.579 -0.1727  0.7934  0.2740
55029SOL     OW69771   9.666   6.612   5.393 -0.1878  0.5568 -0.4861
55029SOL    HW169772   9.632   6.526   5.416  0.6164  0.4255  0.2663
55029SOL    HW269773   9.620   6.636   5.313  0.1151 -0.8940 -1.1142
55030SOL     OW69774  10.078   2.792   0.319 -0.0810  0.3269 -0.5584
55030SOL    HW169775   9.989   2.810   0.349 -0.1578 -0.0135 -0.5832
55030SOL    HW269776  10.089   2.698   0.329 -0.3169  0.1014 -2.1416
55031SOL     OW69777   7.822   2.012   1.012 -0.0305 -0.0627  0.4633
55031SOL    HW169778   7.772   1.977   1.086  2.0183 -0.8512  1.5630
55031SOL    HW269779   7.909   1.972   1.021  0.3496 -0.0221 -2.2913
55032SOL     OW69780   9.789   4.249   6.603 -0.2476  0.2667 -0.0953
55032SOL    HW169781   9.714   4.252   6.544 -0.9965 -0.2182  0.8006
55032SOL    HW269782   9.855   4.305   6.562 -0.7721 -0.0041 -1.3422
55033SOL     OW69783   5.488   3.938   8.931  0.1634 -0.1126 -0.1088
55033SOL    HW169784   5.561   3.877   8.919  0.5202 -0.4054  2.7223
55033SOL    HW269785   5.521   4.021   8.898  2.5112  0.1300  2.4353
55034SOL     OW69786  10.754   2.077   8.719  0.1802 -0.4018 -0.4718
55034SOL    HW169787  10.723   2.077   8.629 -0.9832  2.0851 -0.1433
55034SOL    HW269788  10.812   2.153   8.725  0.5130 -0.7349  0.7789
55035SOL     OW69789   7.379   2.489   6.401  0.0947 -0.4655 -0.0270
55035SOL    HW169790   7.465   2.482   6.359  0.6494 -3.2863  1.3562
55035SOL    HW269791   7.391   2.556   6.468  2.1874 -2.6523  1.9974
55036SOL     OW69792   3.444   8.362   2.805 -0.6319 -0.0320 -0.4180
55036SOL    HW169793   3.410   8.350   2.717  0.4450  0.6641 -0.9373
55036SOL    HW269794   3.472   8.275   2.833 -0.8361 -0.2242 -0.8118
55037SOL     OW69795  11.395   1.428  10.405 -0.2849 -0.1511 -0.4717
55037SOL    HW169796  11.315   1.476  10.427  0.8248  1.1094  1.0655
55037SOL    HW269797  11.453   1.494  10.366  0.0510 -1.0372 -1.5300
55038SOL     OW69798   5.916   8.963   4.000  0.3003  0.0763  0.4090
55038SOL    HW169799   5.918   9.028   3.930 -0.9058 -0.2813  0.0163
55038SOL    HW269800   5.945   8.882   3.958 -1.2071 -0.3229  0.0860
55039SOL     OW69801  11.877   1.572   7.195 -0.3641 -0.4773  0.7288
55039SOL    HW169802  11.848   1.528   7.115 -0.2209  1.4495 -0.4528
55039SOL    HW269803  11.957   1.527   7.220  0.0167 -0.6067 -0.6728
55040SOL     OW69804   3.662   5.988   1.156  0.2222  0.1135  0.6415
55040SOL    HW169805   3.608   5.969   1.079 -0.2290  1.7482  0.5232
55040SOL    HW269806   3.677   5.902   1.196 -0.5308 -0.6335 -0.6077
55041SOL     OW69807   1.715   3.832  11.913 -0.3416  0.0900 -0.1462
55041SOL    HW169808   1.647   3.896  11.934 -1.4431 -1.2254  0.4365
55041SOL    HW269809   1.692   3.801  11.825  0.3432  0.6488 -0.5377
55042SOL     OW69810   9.532   4.820   6.812 -0.7907 -0.4151 -0.1404
55042SOL    HW169811   9.442   4.792   6.828 -0.7172 -0.3729  0.3559
55042SOL    HW269812   9.583   4.739   6.811 -0.3511 -0.2458  2.7358
55043SOL     OW69813   1.661   3.455   2.555 -0.5879  0.3233  0.8550
55043SOL    HW169814   1.684   3.451   2.649  2.9115  1.3183  0.1984
55043SOL    HW269815   1.629   3.544   2.542 -1.9287 -0.0832  1.2082
55044SOL     OW69816   5.635   1.036   3.115 -0.2687 -0.0127 -0.2074
55044SOL    HW169817   5.546   1.037   3.078 -0.2694 -1.5002 -0.3139
55044SOL    HW269818   5.685   0.982   3.054  0.2084 -0.8887  0.9294
55045SOL     OW69819   6.574   2.842   7.384 -0.7479 -0.0197 -0.2645
55045SOL    HW169820   6.667   2.826   7.371 -0.1718  1.9940  1.0296
55045SOL    HW269821   6.541   2.761   7.422  0.8457 -0.1575  0.8960
55046SOL     OW69822   6.906  10.761   6.873  0.4756 -0.2062 -0.0680
55046SOL    HW169823   6.980  10.802   6.917 -0.6817  0.8791  0.9461
55046SOL    HW269824   6.936  10.748   6.783  1.3363  1.7652 -0.1102
55047SOL     OW69825   9.506   1.401   9.823 -0.0891 -0.3279  0.5176
55047SOL    HW169826   9.580   1.457   9.843  0.5298 -1.7215  2.4907
55047SOL    HW269827   9.482   1.423   9.733  1.2812  1.7126  0.5861
55048SOL     OW69828   7.536   0.143   1.436 -0.0627  0.2513 -0.3390
55048SOL    HW169829   7.445   0.132   1.407  0.6200 -0.8843 -2.1906
55048SOL    HW269830   7.539   0.233   1.470 -2.3007 -0.2802  1.5266
55049SOL     OW69831   8.767   7.562   6.696 -0.4116  0.2659  0.4859
55049SOL    HW169832   8.764   7.553   6.792 -1.8550 -1.1853  0.3475
55049SOL    HW269833   8.802   7.479   6.665 -1.4305  0.1035 -0.2930
55050SOL     OW69834  10.516  11.567   6.569  0.1796  0.5620 -0.1114
55050SOL    HW169835  10.531  11.651   6.526  0.4253  0.7811  0.3832
55050SOL    HW269836  10.488  11.508   6.499  2.2283  0.4458 -0.9059
55051SOL     OW69837   2.017   1.151   1.005  0.4957 -0.0659 -0.1238
55051SOL    HW169838   2.095   1.203   0.985  0.8979 -0.5174  0.2567
55051SOL    HW269839   2.044   1.094   1.076 -1.5237  3.1612  3.6426
55052SOL     OW69840   4.934   1.196  11.797 -0.3505  0.6450 -0.4720
55052SOL    HW169841   4.981   1.256  11.739  1.1068 -0.0810 -0.1048
55052SOL    HW269842   4.867   1.156  11.742  0.9014  0.0703 -1.6408
55053SOL     OW69843   5.194   2.147   1.558  0.4557 -0.7039 -0.3216
55053SOL    HW169844   5.215   2.174   1.647  0.8669  1.8197 -1.1316
55053SOL    HW269845   5.112   2.097   1.568 -1.6358  2.6528  1.1450
55054SOL     OW69846   0.608   9.695   1.525  0.3917 -0.3983 -0.4017
55054SOL    HW169847   0.622   9.783   1.560  2.2228 -0.2821 -1.3148
55054SOL    HW269848   0.531   9.663   1.572  1.2334  0.6808  1.8474
55055SOL     OW69849   1.359  11.710   3.599 -0.2957 -0.1771  0.1957
55055SOL    HW169850   1.376  11.653   3.523  0.3054  1.7900 -1.2220
55055SOL    HW269851   1.428  11.687   3.661  0.9124  0.0648 -1.0047
55056SOL     OW69852   7.076  11.209   2.543 -0.2875  0.3231 -0.4555
55056SOL    HW169853   6.991  11.247   2.523  0.2458  1.3859 -0.7872
55056SOL    HW269854   7.070  11.119   2.511 -1.1160  0.5309 -0.9253
55057SOL     OW69855   3.927   6.141   1.413  0.5020  0.3257  0.0895
55057SOL    HW169856   3.984   6.101   1.347  0.7348  0.7116  0.0548
55057SOL    HW269857   3.883   6.211   1.366 -1.0506 -0.8249 -0.2564
55058SOL     OW69858   7.194   7.178  10.829  0.3669 -0.0134 -0.7013
55058SOL    HW169859   7.151   7.102  10.867  0.6924 -0.6120 -1.4884
55058SOL    HW269860   7.129   7.216  10.771  0.5359 -0.3074 -1.0928
55059SOL     OW69861   5.283   0.173   5.609 -0.4231  0.6538  0.6764
55059SOL    HW169862   5.288   0.172   5.704 -1.4395  2.9989  0.8217
55059SOL    HW269863   5.371   0.197   5.580  0.2051 -1.2266  0.9231
55060SOL     OW69864  11.156   5.795   2.899 -0.0569 -0.0460  0.1612
55060SOL    HW169865  11.177   5.791   2.806  1.1835 -0.4509  0.4365
55060SOL    HW269866  11.074   5.748   2.908  0.0702 -0.4334 -0.6594
55061SOL     OW69867  10.213   7.070   3.547  0.0087  0.0831 -0.0524
55061SOL    HW169868  10.123   7.067   3.579  0.3382 -1.1128  0.8174
55061SOL    HW269869  10.228   7.163   3.528 -2.4311  0.0015 -3.3399
55062SOL     OW69870   9.783   2.789   0.340  0.1479 -0.7637  0.1794
55062SOL    HW169871   9.745   2.725   0.401 -0.8158 -0.6540 -0.2923
55062SOL    HW269872   9.718   2.858   0.334  0.5336 -0.4499 -0.4729
55063SOL     OW69873   7.006  11.523   7.311  0.1403  0.4724  0.8393
55063SOL    HW169874   7.024  11.509   7.404 -0.0916  1.6182  1.0775
55063SOL    HW269875   7.000  11.435   7.274  2.4299 -0.0056  1.4546
55064SOL     OW69876   6.991  10.315   0.120 -0.3121  0.0825 -0.1006
55064SOL    HW169877   6.928  10.312   0.047 -0.9459 -0.2912  0.4443
55064SOL    HW269878   6.960  10.247   0.180  0.4880  0.0560  0.2902
55065SOL     OW69879   6.045   2.738   9.517  0.3960 -0.2847  0.2468
55065SOL    HW169880   6.131   2.697   9.528  0.5550 -0.0956 -0.2598
55065SOL    HW269881   6.059   2.806   9.451  0.0237  0.2593  0.7229
55066SOL     OW69882   8.438   5.615   9.096 -0.0040 -0.3586  0.3660
55066SOL    HW169883   8.371   5.557   9.060 -0.4577  0.4554 -0.1414
55066SOL    HW269884   8.479   5.565   9.166 -0.4538 -1.2443  0.0015
55067SOL     OW69885   4.382   6.018  10.593  0.4073  0.2096 -0.7701
55067SOL    HW169886   4.428   5.935  10.589 -2.0895 -1.4315  1.3104
55067SOL    HW269887   4.421   6.064  10.667 -0.8102 -0.9534  0.6633
55068SOL     OW69888  11.394   6.543   6.444 -0.7579 -0.4972  0.5528
55068SOL    HW169889  11.313   6.543   6.494 -1.3464  3.1069 -0.1371
55068SOL    HW269890  11.367   6.556   6.354  0.5490  0.0584  0.2156
55069SOL     OW69891   3.103  11.461   6.345  0.3719  0.1452 -0.0924
55069SOL    HW169892   3.118  11.392   6.280 -1.2031 -0.0793 -0.2715
55069SOL    HW269893   3.110  11.543   6.296 -1.5114 -0.0408 -0.7681
55070SOL     OW69894   6.327   1.961   4.513 -0.5356 -0.3306  0.2163
55070SOL    HW169895   6.337   2.002   4.427 -0.8770  0.1120  0.3806
55070SOL    HW269896   6.232   1.956   4.526 -0.6279 -3.6698 -0.9531
55071SOL     OW69897   5.865   3.375   0.005  0.0976  0.4599 -0.3376
55071SOL    HW169898   5.796   3.436  -0.018 -0.5045 -0.1700 -0.2268
55071SOL    HW269899   5.946   3.426  -0.002 -0.3943  1.2609 -0.2445
55072SOL     OW69900   7.999  10.496   4.633 -0.6593  0.3897  0.3165
55072SOL    HW169901   8.053  10.421   4.606 -0.0693  0.9364 -0.0494
55072SOL    HW269902   8.055  10.545   4.693 -0.2879  1.5907 -0.9652
55073SOL     OW69903   0.977   1.954   1.189 -0.1633 -0.4411 -0.1146
55073SOL    HW169904   1.069   1.935   1.205 -0.4693 -1.3328  0.7293
55073SOL    HW269905   0.950   2.005   1.265  0.0132  1.2353 -1.1365
55074SOL     OW69906  11.629   7.441   0.786  0.1298  0.4313 -0.4027
55074SOL    HW169907  11.543   7.468   0.754  0.6222 -0.3691 -2.5931
55074SOL    HW269908  11.610   7.384   0.861 -1.2516  0.3013 -0.8244
55075SOL     OW69909  10.542  11.700   3.599  0.5601  0.5582 -0.1146
55075SOL    HW169910  10.602  11.628   3.580  0.9903  0.8252  0.2210
55075SOL    HW269911  10.560  11.723   3.690 -0.6027  0.1184  0.2479
55076SOL     OW69912   7.656  10.923   9.169 -0.0067 -0.8987 -0.1365
55076SOL    HW169913   7.578  10.903   9.221 -0.6176 -1.1286 -1.1215
55076SOL    HW269914   7.640  11.012   9.136 -0.0045 -1.0791 -0.6188
55077SOL     OW69915   0.495   0.263   7.979  0.0418  0.0498  0.0332
55077SOL    HW169916   0.477   0.172   7.953  0.8887 -0.3579  0.7992
55077SOL    HW269917   0.543   0.255   8.062  3.4062  1.0009 -1.6209
55078SOL     OW69918   6.277   1.562   0.677 -0.0440  0.0023 -0.3358
55078SOL    HW169919   6.350   1.533   0.623  0.6414  0.9718  0.0293
55078SOL    HW269920   6.252   1.647   0.640  0.6669  0.8517  1.0258
55079SOL     OW69921   7.249  11.309  11.044  0.0608 -0.4327 -0.1857
55079SOL    HW169922   7.192  11.334  10.971  0.3597  2.9339  0.5681
55079SOL    HW269923   7.208  11.231  11.080 -1.9947 -0.2721 -1.9119
55080SOL     OW69924   3.134   3.765   3.775  0.0395  0.3949  0.8418
55080SOL    HW169925   3.156   3.815   3.696  1.1414 -1.4186 -0.0620
55080SOL    HW269926   3.164   3.820   3.847  1.2854  1.0199 -0.1155
55081SOL     OW69927   5.669  11.395   9.996  0.3659  0.1854  0.1886
55081SOL    HW169928   5.639  11.409  10.086 -1.9776 -0.3598 -0.4524
55081SOL    HW269929   5.627  11.465   9.946  1.1182  0.0931 -0.5938
55082SOL     OW69930   8.060   6.962   1.666 -0.3784  0.1534 -0.7108
55082SOL    HW169931   8.052   6.917   1.750  2.2391 -0.1234 -0.5270
55082SOL    HW269932   8.104   7.044   1.687 -0.7677  0.6211 -1.6762
55083SOL     OW69933   1.076  11.542   9.211 -0.3199 -0.0618  0.5037
55083SOL    HW169934   1.169  11.538   9.189  0.0417  0.8655  1.7392
55083SOL    HW269935   1.044  11.619   9.165 -0.9714 -1.4683 -1.5123
55084SOL     OW69936   5.533   9.646   7.094 -0.7693 -0.0416 -0.2315
55084SOL    HW169937   5.624   9.631   7.122 -0.9713 -1.3565 -0.1967
55084SOL    HW269938   5.528   9.740   7.079  0.2951  0.2175  0.8418
55085SOL     OW69939   0.784   4.218   1.583  0.7808 -0.3112  0.1405
55085SOL    HW169940   0.830   4.246   1.663 -0.0804 -0.2022  0.6114
55085SOL    HW269941   0.703   4.268   1.584  1.4959  0.9874 -1.7162
55086SOL     OW69942   1.805  10.657  10.805 -0.3381  0.2290 -0.2565
55086SOL    HW169943   1.758  10.740  10.796  1.0614  1.0594 -0.2367
55086SOL    HW269944   1.882  10.668  10.749 -0.6233 -1.4503 -1.0325
55087SOL     OW69945  10.512   0.468   7.688  0.2775  0.3803  0.4869
55087SOL    HW169946  10.540   0.379   7.667 -0.9279 -0.2573  1.4837
55087SOL    HW269947  10.417   0.466   7.681  0.1348  1.2340  1.7889
55088SOL     OW69948   8.724   6.180   2.296 -0.6165  0.7675 -0.0036
55088SOL    HW169949   8.632   6.179   2.272 -0.2025  0.5717 -1.6872
55088SOL    HW269950   8.744   6.089   2.317 -0.9289  0.9050  0.9367
55089SOL     OW69951  11.813   8.172   4.218  0.0067 -0.6456 -0.1982
55089SOL    HW169952  11.897   8.154   4.260  0.9796  1.0094 -1.3010
55089SOL    HW269953  11.834   8.183   4.125 -1.0860  1.5329 -0.2724
55090SOL     OW69954   1.025  10.474   2.683  0.1563 -0.1105  0.1371
55090SOL    HW169955   1.076  10.556   2.686 -1.0837  0.6699  0.4589
55090SOL    HW269956   1.019  10.446   2.774 -0.8612  0.3762  0.2364
55091SOL     OW69957   8.103   8.652   7.497 -0.2130  0.3869 -0.3541
55091SOL    HW169958   8.101   8.736   7.543  0.6978  0.2683 -0.0850
55091SOL    HW269959   8.024   8.653   7.442  0.1240  1.7044 -0.8541
55092SOL     OW69960   0.057  11.193  10.169 -0.5890  0.7160 -0.4281
55092SOL    HW169961   0.010  11.273  10.145  0.5734  1.5570  0.0180
55092SOL    HW269962   0.001  11.122  10.137 -1.9622  1.6794 -0.2457
55093SOL     OW69963   3.619   5.424   9.830 -0.3691  0.6298  0.4708
55093SOL    HW169964   3.575   5.376   9.760  0.0653  1.8206 -0.6420
55093SOL    HW269965   3.558   5.493   9.854  0.2584  1.3947 -0.0741
55094SOL     OW69966  10.307   7.119   4.690  0.3986 -0.0544 -0.3349
55094SOL    HW169967  10.335   7.070   4.613  0.2067  0.5929 -0.8245
55094SOL    HW269968  10.220   7.152   4.667  1.7350  3.1597 -1.3157
55095SOL     OW69969   5.347   6.330   9.753 -0.0426  0.3413  0.3675
55095SOL    HW169970   5.392   6.408   9.722 -0.2084  0.2044 -0.2392
55095SOL    HW269971   5.254   6.349   9.741 -0.1098  0.2700  0.7540
55096SOL     OW69972   0.099   3.161  11.184 -0.2083 -0.0626  0.1579
55096SOL    HW169973   0.083   3.111  11.104 -0.6873 -0.9873  0.8207
55096SOL    HW269974   0.195   3.172  11.186 -0.0768 -1.0967  0.0788
55097SOL     OW69975   0.096   4.363   2.999  0.0392  1.0075 -0.4069
55097SOL    HW169976   0.064   4.330   2.915 -0.4368 -2.0366  0.8733
55097SOL    HW269977   0.029   4.426   3.027 -1.1389  0.0877 -1.0936
55098SOL     OW69978   8.836   9.208  10.685  0.8951 -0.6612  0.2035
55098SOL    HW169979   8.881   9.148  10.745 -0.9792 -1.5194  0.8395
55098SOL    HW269980   8.828   9.290  10.735 -0.2335 -1.2235  0.9885
55099SOL     OW69981   1.617   3.633   5.654  0.2880  0.3809  0.4749
55099SOL    HW169982   1.652   3.613   5.567 -1.2469  0.3492 -0.1613
55099SOL    HW269983   1.620   3.728   5.661  3.0667  0.3102  1.5758
55100SOL     OW69984   1.803   6.041   2.696  0.3657 -0.0670 -0.5530
55100SOL    HW169985   1.853   5.961   2.711 -0.4403 -0.5479 -0.3587
55100SOL    HW269986   1.717   6.010   2.666 -0.1100  0.7069 -0.0163
55101SOL     OW69987   0.204   5.039   7.038  0.4333 -0.1576 -0.0759
55101SOL    HW169988   0.298   5.030   7.023  0.6853  0.5766  0.8850
55101SOL    HW269989   0.169   4.951   7.029  1.5451 -0.8192  1.5832
55102SOL     OW69990   0.964   4.913   0.659  0.1231  0.2951 -0.1668
55102SOL    HW169991   0.989   4.856   0.731 -1.3245 -1.2673 -0.8314
55102SOL    HW269992   0.885   4.957   0.690  1.9590  3.1188  0.8764
55103SOL     OW69993   2.566  11.295   2.982  0.6406  0.0756 -0.2487
55103SOL    HW169994   2.556  11.337   2.896  0.0780 -1.4665 -0.9710
55103SOL    HW269995   2.510  11.347   3.040 -2.6767 -1.4351 -1.7875
55104SOL     OW69996   4.197  11.735   2.282  0.8562  0.2099 -0.4203
55104SOL    HW169997   4.111  11.776   2.282  0.9355  0.3925 -1.0990
55104SOL    HW269998   4.195  11.674   2.208  0.9698 -0.5237  0.1681
55105SOL     OW69999   7.138  11.651   5.427  0.7713 -0.2197 -0.7136
55105SOL    HW170000   7.129  11.558   5.449 -0.8808 -0.2057 -1.1655
55105SOL    HW270001   7.048  11.679   5.407  0.9576  1.9134  1.1220
55106SOL     OW70002   0.371   6.168   7.062  0.0084 -0.1670 -0.1211
55106SOL    HW170003   0.341   6.095   7.116 -0.0342  0.1604  0.3058
55106SOL    HW270004   0.344   6.246   7.110  0.7944  0.1345 -0.1514
55107SOL     OW70005   7.526   1.155   5.870  0.5332  0.0520 -0.2455
55107SOL    HW170006   7.432   1.155   5.855 -0.1740 -0.1314  3.2387
55107SOL    HW270007   7.554   1.245   5.852 -0.4648  0.3116 -0.5230
55108SOL     OW70008   6.594   6.944  11.590 -0.0862  0.0369 -0.6208
55108SOL    HW170009   6.610   6.853  11.566  1.1360  0.2628 -0.7242
55108SOL    HW270010   6.534   6.977  11.523 -3.3273 -1.5621  1.2098
55109SOL     OW70011   2.919   1.528   9.774 -0.1359 -0.1667  0.0259
55109SOL    HW170012   2.856   1.527   9.846 -0.3370  0.1889 -0.1448
55109SOL    HW270013   2.908   1.613   9.734  1.4040  0.4478  0.8212
55110SOL     OW70014   8.393  10.929  10.742  0.3059 -0.6415 -0.3166
55110SOL    HW170015   8.376  10.881  10.662 -0.3103 -1.0058  0.0278
55110SOL    HW270016   8.319  10.989  10.751 -0.0277 -1.1443  0.3755
55111SOL     OW70017  10.178   6.331   3.736 -0.1145  0.2422  0.2445
55111SOL    HW170018  10.121   6.371   3.670 -1.2823  1.1573  1.7331
55111SOL    HW270019  10.264   6.326   3.695 -0.7154  1.1635 -1.1806
55112SOL     OW70020   0.745   8.100   4.420  0.0140  0.1633 -0.1377
55112SOL    HW170021   0.656   8.103   4.455 -0.4227  2.7113 -1.2563
55112SOL    HW270022   0.801   8.087   4.497 -1.0991  2.5587  1.2024
55113SOL     OW70023   9.449   1.458   6.853 -0.1622 -0.3830 -0.2727
55113SOL    HW170024   9.502   1.425   6.780  0.4350  0.5397 -0.2686
55113SOL    HW270025   9.391   1.385   6.875  0.9077 -1.3197 -0.4640
55114SOL     OW70026  10.918   2.604   3.967  0.1287  0.2612  0.1028
55114SOL    HW170027  10.988   2.543   3.945 -0.8789 -0.1559 -2.3162
55114SOL    HW270028  10.935   2.681   3.913  1.1313  2.0621  2.7702
55115SOL     OW70029   0.145   4.923   0.277  0.2949  0.2401  0.3229
55115SOL    HW170030   0.071   4.913   0.217  1.3219 -1.5317 -0.7489
55115SOL    HW270031   0.116   4.989   0.341 -1.5741  0.7556 -0.9725
55116SOL     OW70032   9.873   2.610  11.823 -0.7148  0.2339 -0.2865
55116SOL    HW170033   9.874   2.653  11.908  0.6659  0.0435 -0.1818
55116SOL    HW270034   9.806   2.542  11.831  0.3394 -0.7075  1.1396
55117SOL     OW70035  11.347   5.058   8.551  0.6257  0.1109 -0.0970
55117SOL    HW170036  11.426   5.097   8.588 -0.2536  3.5837 -1.4937
55117SOL    HW270037  11.275   5.103   8.595 -0.6097 -1.8870  0.0410
55118SOL     OW70038   9.240  10.984   8.029 -0.7264  0.0953 -0.3360
55118SOL    HW170039   9.232  10.949   8.118  0.5786 -0.1078 -0.2790
55118SOL    HW270040   9.190  11.065   8.030  1.8069  1.7687  1.5255
55119SOL     OW70041   7.098   5.003  10.459  1.0101  0.5706 -0.0328
55119SOL    HW170042   7.048   4.933  10.418  0.5208  0.7499  0.2483
55119SOL    HW270043   7.139   4.962  10.535  1.7503  0.2882 -0.5716
55120SOL     OW70044   9.384  10.230   1.460 -0.4109  0.2146 -0.1350
55120SOL    HW170045   9.374  10.323   1.443  0.2842  0.4337  0.6115
55120SOL    HW270046   9.295  10.197   1.467 -0.7351  1.3910  2.5482
55121SOL     OW70047   0.358   5.880  10.425 -0.0126  0.5977 -0.0571
55121SOL    HW170048   0.443   5.869  10.383  0.9747 -1.6078  2.2788
55121SOL    HW270049   0.370   5.955  10.483  0.1600  0.6373 -0.1417
55122SOL     OW70050   7.382   2.790  10.084 -0.1456  0.2087  0.2637
55122SOL    HW170051   7.383   2.804   9.989  1.4883 -0.9557  0.0748
55122SOL    HW270052   7.335   2.707  10.095  0.0435  0.1244  0.4339
55123SOL     OW70053   1.793   3.321   1.993  0.2668  0.2991 -0.3440
55123SOL    HW170054   1.799   3.244   1.937  2.6592  0.7248 -0.7709
55123SOL    HW270055   1.825   3.293   2.078 -1.4368  0.1825  0.3053
55124SOL     OW70056  11.693  10.249   7.651 -0.1249 -0.1200 -0.0382
55124SOL    HW170057  11.766  10.307   7.629  0.9875 -1.2674  0.5668
55124SOL    HW270058  11.678  10.198   7.572  0.0243 -0.2044 -0.0112
55125SOL     OW70059   5.778   5.468   7.985 -0.5935 -0.6364 -0.3048
55125SOL    HW170060   5.856   5.416   8.004 -0.7826 -1.0553 -0.6664
55125SOL    HW270061   5.705   5.408   8.000 -0.8468 -0.2573 -0.0058
55126SOL     OW70062   9.247  11.612   9.873  0.1796 -0.1196 -0.4873
55126SOL    HW170063   9.313  11.551   9.839  0.4173 -0.4585  0.5431
55126SOL    HW270064   9.164  11.568   9.858  0.4406 -1.7595  2.1338
55127SOL     OW70065   6.661  11.703   2.714 -0.1076 -0.1524 -0.2389
55127SOL    HW170066   6.713  11.783   2.709 -1.2286  0.5535 -0.8774
55127SOL    HW270067   6.684  11.655   2.634  0.0605 -0.1575 -0.1880
55128SOL     OW70068   0.997   4.176   8.879 -0.0590  0.1790  0.2134
55128SOL    HW170069   0.951   4.094   8.900 -0.3702  0.0851 -0.8116
55128SOL    HW270070   0.980   4.233   8.954  1.2857 -1.1442  1.5950
55129SOL     OW70071   5.886   3.120   9.068  0.2755 -0.1284 -0.3371
55129SOL    HW170072   5.891   3.174   8.989  0.5255  0.8951  0.3608
55129SOL    HW270073   5.817   3.159   9.120 -0.2172 -1.0860 -0.2399
55130SOL     OW70074   3.528   7.025   0.894  0.1449  0.2437 -0.2091
55130SOL    HW170075   3.485   7.006   0.811 -3.3495 -2.1020  1.8450
55130SOL    HW270076   3.572   6.943   0.917  1.2089  0.9132  0.2155
55131SOL     OW70077   8.377   9.145   8.926 -0.0075  0.1768  0.0487
55131SOL    HW170078   8.382   9.093   9.006 -0.5201 -1.6991 -1.0850
55131SOL    HW270079   8.289   9.184   8.929  0.4242  1.1100  0.9643
55132SOL     OW70080   1.925   2.405   7.134 -0.5406 -0.0436  0.1566
55132SOL    HW170081   1.981   2.337   7.172 -0.6735  0.0928  0.6086
55132SOL    HW270082   1.986   2.468   7.097 -0.4127 -0.3371 -0.1357
55133SOL     OW70083   2.909   0.579   4.940  0.0375 -0.2915 -0.3823
55133SOL    HW170084   2.880   0.670   4.951  2.2781  0.3622  0.9274
55133SOL    HW270085   2.838   0.527   4.975 -1.2984  0.9427 -1.1493
55134SOL     OW70086   9.475   7.068   1.565  0.0730  0.4717  0.0403
55134SOL    HW170087   9.538   7.003   1.535  0.0480 -0.0442  1.0555
55134SOL    HW270088   9.434   7.101   1.485 -1.3010 -2.1595 -0.4572
55135SOL     OW70089  10.285   8.768   5.827 -0.2073  0.2232 -0.6615
55135SOL    HW170090  10.257   8.804   5.911  1.1650 -2.3178  1.0270
55135SOL    HW270091  10.379   8.756   5.836 -0.1280 -0.7101 -2.3272
55136SOL     OW70092   5.507   9.213   9.936  0.4041 -0.4157 -0.4283
55136SOL    HW170093   5.505   9.288   9.876  0.4731 -1.0262 -1.2066
55136SOL    HW270094   5.540   9.141   9.883 -0.3970 -1.1914  0.1060
55137SOL     OW70095  10.064   9.296  10.180  0.1548 -0.2236 -0.3184
55137SOL    HW170096  10.101   9.239  10.247 -0.2693 -1.0844 -0.7947
55137SOL    HW270097  10.008   9.356  10.229  1.3068  0.3948  0.2858
55138SOL     OW70098  10.818   9.922   3.894  0.0730 -0.4073 -0.2016
55138SOL    HW170099  10.817   9.948   3.802  1.1524  0.7767  0.0890
55138SOL    HW270100  10.888   9.857   3.899  1.0472  0.6416  0.0411
55139SOL     OW70101  11.959   3.871   3.582 -0.1797  0.0232 -0.3532
55139SOL    HW170102  11.999   3.797   3.628 -0.1615 -0.3933 -1.0329
55139SOL    HW270103  11.997   3.869   3.495  2.2422  2.7478  0.4976
55140SOL     OW70104   5.719  10.743   9.200  0.7258 -0.0050 -0.0928
55140SOL    HW170105   5.715  10.765   9.107 -0.9770 -0.2009 -0.1058
55140SOL    HW270106   5.739  10.649   9.201  1.2777  0.1055 -0.2316
55141SOL     OW70107   8.436   6.683   7.124  0.2637 -0.8824  0.3257
55141SOL    HW170108   8.352   6.720   7.151  0.2202 -0.4409 -0.3814
55141SOL    HW270109   8.499   6.716   7.188  0.0094 -0.6396  0.4490
55142SOL     OW70110   4.204   1.001   1.216 -0.1470  0.2278 -0.4641
55142SOL    HW170111   4.225   0.917   1.256  0.7467  1.3341  1.5680
55142SOL    HW270112   4.235   1.066   1.279 -0.2817  2.1095 -2.2137
55143SOL     OW70113   5.965   1.358   4.701 -0.9756 -0.6877  0.1143
55143SOL    HW170114   5.954   1.265   4.723 -1.2848 -0.8962 -0.8542
55143SOL    HW270115   5.908   1.371   4.625  0.2886 -0.1024 -0.7592
55144SOL     OW70116  10.190  11.333  11.694 -0.0586 -0.0657 -0.1569
55144SOL    HW170117  10.176  11.373  11.780 -0.2213 -0.9001  0.2195
55144SOL    HW270118  10.129  11.259  11.693  1.0400 -0.9898 -0.3616
55145SOL     OW70119   3.133   6.855  10.597  0.2596 -0.5272  0.2601
55145SOL    HW170120   3.162   6.899  10.676 -3.1507  0.1464  1.2923
55145SOL    HW270121   3.133   6.923  10.530 -0.0653 -0.2261  0.5597
55146SOL     OW70122   6.042   0.714   1.558 -0.1641  0.2124 -0.5899
55146SOL    HW170123   6.095   0.767   1.617 -0.5832  1.7289 -1.5381
55146SOL    HW270124   6.053   0.624   1.590  2.7658  0.4931 -0.6055
55147SOL     OW70125   3.785   9.132   0.821 -0.8234  0.8872  0.6322
55147SOL    HW170126   3.736   9.110   0.742 -1.6026 -0.7130  1.5082
55147SOL    HW270127   3.732   9.098   0.893  0.6105  0.9014  1.7466
55148SOL     OW70128   5.258   6.296   0.008 -0.4042 -0.1482 -0.5422
55148SOL    HW170129   5.341   6.334   0.034  0.6244 -2.2608 -0.4854
55148SOL    HW270130   5.217   6.269   0.090 -0.8221  0.2708 -0.6121
55149SOL     OW70131   1.984   5.258   2.784 -0.5562 -0.1737 -0.0626
55149SOL    HW170132   1.966   5.351   2.777  1.1113  0.1787 -0.0757
55149SOL    HW270133   2.001   5.229   2.694  2.7117  0.3909  0.2651
55150SOL     OW70134   7.261   8.704   4.416  0.1329 -0.2975 -0.3122
55150SOL    HW170135   7.354   8.712   4.440  0.4686 -0.3180 -1.5458
55150SOL    HW270136   7.251   8.612   4.390  0.2239  0.1402 -1.9587
55151SOL     OW70137   7.132   7.743   1.871  0.0323 -0.2058  0.2461
55151SOL    HW170138   7.049   7.723   1.828 -1.0522  0.8869  1.7813
55151SOL    HW270139   7.110   7.759   1.962  1.9870 -0.2284  0.7776
55152SOL     OW70140   2.171   8.973   8.940  0.3030  0.2641 -0.3520
55152SOL    HW170141   2.155   9.024   8.860 -1.1438 -1.3562 -1.1832
55152SOL    HW270142   2.117   8.894   8.928  0.6033 -0.3417  1.9292
55153SOL     OW70143  10.781   1.240   7.576 -0.6973  0.6835  0.1345
55153SOL    HW170144  10.837   1.282   7.641 -1.0890  0.9962  0.2695
55153SOL    HW270145  10.829   1.161   7.551 -0.2041  0.9400  0.2606
55154SOL     OW70146  11.624   8.564   7.624 -0.5293 -0.6265  0.0385
55154SOL    HW170147  11.651   8.474   7.600 -1.2420 -0.9602  0.4723
55154SOL    HW270148  11.536   8.554   7.659 -0.0253  0.0342  1.5681
55155SOL     OW70149  11.228   6.476   9.039  0.2702 -0.4306 -0.2584
55155SOL    HW170150  11.196   6.474   9.129  1.3612  2.6226  0.3143
55155SOL    HW270151  11.150   6.457   8.986 -0.6251 -1.2528  1.2695
55156SOL     OW70152   8.129   0.397   8.480 -0.9094  0.0360  0.6885
55156SOL    HW170153   8.200   0.363   8.535 -2.2412 -1.8371  1.3365
55156SOL    HW270154   8.105   0.480   8.520  0.6244  0.5222  0.6864
55157SOL     OW70155   1.484   1.743   5.359 -0.0513  0.0283  0.2836
55157SOL    HW170156   1.500   1.799   5.436 -2.1364  2.2829 -0.7614
55157SOL    HW270157   1.442   1.665   5.394  0.1221  0.4845  1.5534
55158SOL     OW70158   6.889   2.204   1.160  0.4853 -0.5954 -0.0055
55158SOL    HW170159   6.968   2.229   1.112  0.0983 -0.5721 -0.6399
55158SOL    HW270160   6.881   2.110   1.144 -0.9485 -0.1900 -1.9840
55159SOL     OW70161   9.541   8.845   4.740  0.0618 -0.1248 -0.3815
55159SOL    HW170162   9.499   8.892   4.668  0.3593  0.5936 -0.1017
55159SOL    HW270163   9.570   8.762   4.701 -1.0439 -0.3707 -0.7273
55160SOL     OW70164  11.184  11.504   5.352 -0.1263  0.3162 -0.1441
55160SOL    HW170165  11.145  11.573   5.406 -1.0646  0.6340 -1.1683
55160SOL    HW270166  11.134  11.425   5.374 -0.8594  0.5550 -0.8854
55161SOL     OW70167   2.769   5.268   3.415 -0.4243 -0.3160 -0.4662
55161SOL    HW170168   2.755   5.226   3.330 -3.7480  0.9576 -0.6985
55161SOL    HW270169   2.743   5.201   3.479 -2.1359  0.1017 -0.6846
55162SOL     OW70170   1.310   9.806   8.876 -0.9171 -0.0202 -0.9973
55162SOL    HW170171   1.386   9.864   8.881 -1.8538  1.2877 -1.4245
55162SOL    HW270172   1.347   9.718   8.883  0.5738  0.5963 -0.6043
55163SOL     OW70173   7.235   8.458   1.857 -0.5215  0.1651  0.0407
55163SOL    HW170174   7.293   8.534   1.864  0.9404 -1.0079  1.6392
55163SOL    HW270175   7.283   8.387   1.900 -2.7203 -1.1487  0.5129
55164SOL     OW70176   4.897   2.216   1.088  0.3569  0.2266  0.0371
55164SOL    HW170177   4.809   2.179   1.078  1.2847 -2.6958  1.3643
55164SOL    HW270178   4.936   2.209   1.001 -0.1989  0.0099 -0.2001
55165SOL     OW70179   6.257  10.497   5.449 -0.5827  0.3443 -0.1906
55165SOL    HW170180   6.280  10.547   5.528 -0.0065 -0.5711  0.2436
55165SOL    HW270181   6.197  10.429   5.480  1.1162 -1.2188 -0.1404
55166SOL     OW70182   8.825   8.716   9.392 -0.1799 -0.0476 -0.0490
55166SOL    HW170183   8.737   8.725   9.356 -0.6153  1.9738  1.3583
55166SOL    HW270184   8.875   8.786   9.353  0.7343 -0.9582 -0.5519
55167SOL     OW70185  11.533   8.758   1.856 -0.5682  0.0722  0.5902
55167SOL    HW170186  11.449   8.803   1.853 -1.2350 -1.1814 -1.2176
55167SOL    HW270187  11.538   8.720   1.944 -1.3434  1.1147  1.1025
55168SOL     OW70188   5.190  11.748   0.081 -0.0354  0.2747  0.4132
55168SOL    HW170189   5.263  11.712   0.130 -0.2453 -1.4363 -0.4586
55168SOL    HW270190   5.230  11.791   0.005  0.0988 -0.0668  0.2931
55169SOL     OW70191   8.583   4.350   5.634 -0.3662  0.0834  0.7101
55169SOL    HW170192   8.667   4.396   5.625  0.6633 -1.8992 -0.7223
55169SOL    HW270193   8.599   4.264   5.595 -3.9897  0.7017 -2.7616
55170SOL     OW70194   8.449   6.203   3.469  0.0353 -0.3023  0.3702
55170SOL    HW170195   8.487   6.278   3.513 -2.2600  2.3020 -1.6992
55170SOL    HW270196   8.382   6.171   3.530 -0.0451  0.3880  0.6551
55171SOL     OW70197   1.195   2.085   2.781  0.7813  0.0225 -0.0682
55171SOL    HW170198   1.183   2.153   2.715  1.2886  0.6207  0.4345
55171SOL    HW270199   1.286   2.055   2.768  0.7799 -0.0797  0.1481
55172SOL     OW70200   1.094   0.802   4.533 -0.5048  0.0386  0.4973
55172SOL    HW170201   1.171   0.774   4.581 -1.5844 -3.2885  0.5153
55172SOL    HW270202   1.079   0.733   4.468 -2.6363  1.3050 -0.4649
55173SOL     OW70203   9.972   3.980   8.774 -0.4533  0.0519  0.1969
55173SOL    HW170204   9.991   3.982   8.680 -0.4213 -0.6434  0.1775
55173SOL    HW270205   9.960   3.887   8.793 -1.0578  0.2393  0.7663
55174SOL     OW70206   1.177  11.652   3.199 -0.5497 -0.4912 -0.2246
55174SOL    HW170207   1.156  11.561   3.177  2.3353 -0.8041 -2.2668
55174SOL    HW270208   1.249  11.645   3.261 -1.2847  0.4463  0.7559
55175SOL     OW70209   4.691   5.254   4.994  0.4667  0.5988 -0.0655
55175SOL    HW170210   4.768   5.213   4.955 -0.4438  0.1445 -1.4416
55175SOL    HW270211   4.671   5.199   5.071  0.6764 -0.1393 -0.5272
55176SOL     OW70212   3.610   4.666   8.195 -0.1374  0.0585 -0.9786
55176SOL    HW170213   3.641   4.754   8.172  0.0537  0.4168  0.5396
55176SOL    HW270214   3.681   4.629   8.247 -1.5810  0.3279  1.3121
55177SOL     OW70215   2.553  11.018   6.098 -0.6909 -0.5805  0.4597
55177SOL    HW170216   2.462  11.039   6.119 -0.6289  0.2150 -0.0733
55177SOL    HW270217   2.576  10.949   6.161 -1.8648 -1.2724  0.1679
55178SOL     OW70218   7.844   6.305  11.849  0.2782  0.4390  0.5448
55178SOL    HW170219   7.888   6.294  11.933  0.6316 -1.8533  0.1408
55178SOL    HW270220   7.915   6.316  11.786  0.0787  0.7886  0.3802
55179SOL     OW70221   4.840   4.991   9.972 -0.4329 -0.4502  0.3410
55179SOL    HW170222   4.757   4.972   9.929 -1.2141  0.7141  1.2817
55179SOL    HW270223   4.826   4.969  10.064 -0.1098  0.8811  0.7306
55180SOL     OW70224   7.445  11.547   1.315 -0.2383 -0.5965 -0.4313
55180SOL    HW170225   7.484  11.521   1.399  0.0087 -0.1592 -0.4072
55180SOL    HW270226   7.390  11.473   1.290 -2.8439  0.4959  1.6554
55181SOL     OW70227   1.154   9.536   9.778 -0.0245 -0.2323  0.3120
55181SOL    HW170228   1.106   9.495   9.706  0.9384 -0.3250 -0.2925
55181SOL    HW270229   1.226   9.583   9.736 -0.1145  0.6828  1.1302
55182SOL     OW70230   5.177   4.135   1.407 -0.1128 -0.4127 -0.2856
55182SOL    HW170231   5.102   4.154   1.351 -0.6981 -0.6956  0.3971
55182SOL    HW270232   5.202   4.220   1.444  1.0830  0.0145 -1.9260
55183SOL     OW70233  11.545   7.489  10.127 -0.1299  0.3325 -0.2047
55183SOL    HW170234  11.450   7.482  10.138 -0.1485  0.9058  0.0302
55183SOL    HW270235  11.570   7.562  10.184  0.7578 -1.1772  1.4196
55184SOL     OW70236   9.410   0.533   4.225  0.1316 -0.4089  0.0954
55184SOL    HW170237   9.440   0.485   4.147 -0.9413 -0.7654 -0.1195
55184SOL    HW270238   9.344   0.594   4.191 -0.9808 -1.1701  0.8197
55185SOL     OW70239   9.643  10.529   7.699 -0.3571 -0.1744  0.2592
55185SOL    HW170240   9.594  10.508   7.779  0.1919 -0.2422  0.5872
55185SOL    HW270241   9.725  10.566   7.731 -0.5435  0.7352 -0.2928
55186SOL     OW70242   1.882   2.831   5.703  0.8140 -0.6010  0.0690
55186SOL    HW170243   1.869   2.739   5.682  1.6743 -0.4735 -1.1196
55186SOL    HW270244   1.807   2.876   5.665  1.7485 -0.5185 -1.7804
55187SOL     OW70245   6.107   5.894   8.457  0.3028 -0.1202  0.2625
55187SOL    HW170246   6.181   5.926   8.406  0.8795  0.4476  1.4157
55187SOL    HW270247   6.034   5.894   8.396  0.8801  0.9421 -0.4610
55188SOL     OW70248   9.023   6.220   3.136  0.1285  0.2132  0.4979
55188SOL    HW170249   9.060   6.246   3.220 -0.7067 -0.9204  1.2459
55188SOL    HW270250   8.962   6.291   3.114  0.5415  0.6381  0.7229
55189SOL     OW70251  10.970   4.513   6.040  0.1691  0.5957  0.0920
55189SOL    HW170252  10.909   4.439   6.039  0.7297  0.1241 -0.3458
55189SOL    HW270253  11.053   4.475   6.009  1.1161  0.8420  2.1942
55190SOL     OW70254   0.799   7.254   4.251  0.0588 -0.4188 -0.7717
55190SOL    HW170255   0.889   7.279   4.269  0.6709 -1.8462 -1.7040
55190SOL    HW270256   0.776   7.302   4.171 -0.0940  0.0787 -0.4393
55191SOL     OW70257   1.946  11.950   4.276  0.3695 -0.2403  0.3599
55191SOL    HW170258   1.856  11.956   4.306  1.2674  1.9425  3.0184
55191SOL    HW270259   1.967  12.038   4.245  1.5645 -0.7492 -0.3594
55192SOL     OW70260  11.951   8.697   9.857 -0.5339  0.3043  0.4557
55192SOL    HW170261  11.867   8.695   9.810 -1.0739  0.1276  1.4046
55192SOL    HW270262  12.013   8.729   9.792 -1.1941 -0.2423 -0.4861
55193SOL     OW70263   2.960   8.489   9.960 -0.3014  0.1758 -0.1725
55193SOL    HW170264   2.909   8.555  10.007  0.6798  0.6376  0.2759
55193SOL    HW270265   2.986   8.426  10.026  0.0248  0.1451 -0.3291
55194SOL     OW70266  11.967   2.785   1.095 -0.0692 -0.1272 -0.0502
55194SOL    HW170267  11.904   2.773   1.024 -0.4645 -1.2666  0.4615
55194SOL    HW270268  12.005   2.698   1.107 -0.8170 -0.2263  1.8644
55195SOL     OW70269   1.281  10.941   6.591  0.2038 -0.3263  0.3791
55195SOL    HW170270   1.314  11.027   6.617 -0.4492 -0.1268  0.5745
55195SOL    HW270271   1.305  10.883   6.663 -0.6316 -0.0021  0.9370
55196SOL     OW70272   1.943   6.085   9.202  0.4116  0.4106  0.1367
55196SOL    HW170273   1.974   6.173   9.179 -0.1154  0.4502 -0.4585
55196SOL    HW270274   1.871   6.099   9.263  1.5419  0.3175  1.5448
55197SOL     OW70275   8.036   1.136   1.085  0.5182  0.7465  0.4518
55197SOL    HW170276   7.975   1.160   1.154  1.0150 -1.1036  1.6043
55197SOL    HW270277   8.085   1.216   1.067 -0.2900  1.5160  1.5323
55198SOL     OW70278  10.036   8.114   7.982 -0.4480  0.0071 -0.5390
55198SOL    HW170279  10.022   8.200   8.022  1.1733  0.4296 -0.8216
55198SOL    HW270280  10.051   8.133   7.890  0.5606 -0.5088 -0.4924
55199SOL     OW70281  10.715  10.727   9.215  0.2798  0.2813 -0.1536
55199SOL    HW170282  10.627  10.753   9.191  0.3204  0.6976  0.1523
55199SOL    HW270283  10.746  10.675   9.141 -1.0312 -1.7694  0.6438
55200SOL     OW70284   6.787   1.035   2.054  0.0479 -0.0872  0.4142
55200SOL    HW170285   6.846   1.022   2.128 -0.1662 -0.5033  0.5190
55200SOL    HW270286   6.835   1.092   1.994  1.0378 -1.3356 -0.0328
55201SOL     OW70287   1.202   1.761   1.680  0.0640  0.5083  0.5554
55201SOL    HW170288   1.156   1.684   1.713 -0.9005  0.7193 -0.2706
55201SOL    HW270289   1.258   1.728   1.610 -0.6389  0.5968 -0.0625
55202SOL     OW70290  10.771   7.587   1.540  0.0421 -0.4424  0.2708
55202SOL    HW170291  10.840   7.525   1.517 -0.6852 -1.2309  0.1576
55202SOL    HW270292  10.768   7.587   1.636 -0.6950 -1.4382  0.2606
55203SOL     OW70293   1.974   3.230   9.047 -0.1867  0.2397  0.3188
55203SOL    HW170294   1.948   3.166   8.982 -0.0503 -1.0559  1.5011
55203SOL    HW270295   1.963   3.186   9.131  3.2230  0.4740  1.0424
55204SOL     OW70296   9.794   8.346   0.672 -0.1253 -0.3231  0.3496
55204SOL    HW170297   9.758   8.267   0.632 -1.8692  0.2681  0.6569
55204SOL    HW270298   9.880   8.357   0.632 -0.3342 -1.7376 -0.5370
55205SOL     OW70299   4.349   2.535   1.533  0.0848  0.1680 -0.0411
55205SOL    HW170300   4.256   2.556   1.526  0.2265  1.2848  0.9543
55205SOL    HW270301   4.351   2.450   1.577 -0.4709  1.0328  1.7548
55206SOL     OW70302   5.472   6.113  11.534 -0.0783 -0.7289 -0.8455
55206SOL    HW170303   5.508   6.090  11.448  0.6108  2.6097 -1.5625
55206SOL    HW270304   5.549   6.129  11.589 -0.4247  1.1013 -0.8275
55207SOL     OW70305  11.084   0.595   6.889  0.1549  0.2329 -0.7037
55207SOL    HW170306  11.158   0.652   6.907  1.1707 -0.3297 -2.8193
55207SOL    HW270307  11.012   0.654   6.868  0.2333  0.7642  0.4524
55208SOL     OW70308  10.987   6.869   6.440 -0.1055 -0.3528  0.1643
55208SOL    HW170309  11.030   6.951   6.414 -1.1019 -0.4365 -2.0040
55208SOL    HW270310  10.912   6.897   6.492  0.5971 -0.0239  1.0315
55209SOL     OW70311   9.636   0.153   8.602 -0.6899  0.2243  0.4665
55209SOL    HW170312   9.603   0.239   8.628  0.1080  0.2873  1.3116
55209SOL    HW270313   9.645   0.159   8.507  0.6510  1.5745  0.6294
55210SOL     OW70314   3.365  10.045   8.321 -0.6018  0.2199  0.2486
55210SOL    HW170315   3.382  10.040   8.228  2.6860 -0.4022  0.7779
55210SOL    HW270316   3.333  10.134   8.336  0.3016  0.8224 -1.2622
55211SOL     OW70317  10.367   3.462   0.174  0.4555 -0.0747 -0.0672
55211SOL    HW170318  10.373   3.542   0.226 -0.4067 -0.2968  0.4052
55211SOL    HW270319  10.395   3.393   0.233 -2.6788 -0.6427  0.9754
55212SOL     OW70320  10.143   6.188   2.081 -0.1053  0.0437 -0.4274
55212SOL    HW170321  10.200   6.218   2.152  0.5019 -1.2370 -0.3509
55212SOL    HW270322  10.119   6.268   2.034 -2.4274  1.3185  2.5594
55213SOL     OW70323   4.770   9.564   8.420  0.2145 -0.1040  0.1408
55213SOL    HW170324   4.768   9.634   8.355 -0.8648 -1.0074 -0.8530
55213SOL    HW270325   4.808   9.605   8.498 -0.6425  1.6598 -0.3104
55214SOL     OW70326   7.896   1.054   7.959  0.1292 -0.0836  0.1586
55214SOL    HW170327   7.929   1.124   7.902 -0.2505  1.4864  1.7816
55214SOL    HW270328   7.802   1.067   7.961 -0.0836 -1.3809 -0.4136
55215SOL     OW70329  11.082   8.919   8.345  0.1046  0.1464 -0.8067
55215SOL    HW170330  11.135   8.998   8.351  0.0392  0.1079  0.3855
55215SOL    HW270331  11.036   8.928   8.261  1.5326  0.4422 -1.5961
55216SOL     OW70332   0.820   9.639   0.998  0.1190  0.0706 -0.0509
55216SOL    HW170333   0.822   9.590   1.081 -3.4933 -0.5655 -0.1453
55216SOL    HW270334   0.846   9.575   0.932 -1.7404 -1.0127  0.1619
55217SOL     OW70335   4.250   2.693   3.807  0.1353  0.1836 -0.0623
55217SOL    HW170336   4.340   2.719   3.828 -0.1348 -0.3083  1.8856
55217SOL    HW270337   4.256   2.657   3.719  1.9732 -0.3442  0.2314
55218SOL     OW70338   7.168   9.416   5.947  0.0602 -0.3588  0.6616
55218SOL    HW170339   7.232   9.457   5.888 -0.8899 -0.6414 -0.5974
55218SOL    HW270340   7.107   9.487   5.969 -1.6166 -1.0073 -1.5617
55219SOL     OW70341   4.530   4.920   1.394 -0.3591  0.0929 -0.5676
55219SOL    HW170342   4.577   4.957   1.319  0.2439  0.0921 -0.1995
55219SOL    HW270343   4.457   4.980   1.409 -0.2959  0.2665 -0.9606
55220SOL     OW70344   3.260   3.864   2.557  0.7253  0.2434  0.2813
55220SOL    HW170345   3.330   3.802   2.537  1.2019  0.4219  1.2994
55220SOL    HW270346   3.195   3.812   2.604  1.1488  0.4926  1.1824
55221SOL     OW70347   8.319   1.524  10.262 -0.2008  0.5051 -0.6359
55221SOL    HW170348   8.334   1.537  10.356  0.9914  0.2039 -0.7576
55221SOL    HW270349   8.317   1.612  10.226  3.2193  0.6679 -0.8177
55222SOL     OW70350   4.241   9.003   5.999 -0.1757 -0.1767 -0.0593
55222SOL    HW170351   4.271   8.956   5.922  0.3316 -0.3438  0.2383
55222SOL    HW270352   4.256   8.943   6.072  0.8237  0.5725  0.3741
55223SOL     OW70353   2.592   8.203   8.467 -0.1802  0.0182  0.0778
55223SOL    HW170354   2.660   8.158   8.417 -1.1389 -0.8453 -0.4850
55223SOL    HW270355   2.610   8.296   8.453  1.1107 -0.1814  0.2603
55224SOL     OW70356   3.240   5.782   9.752 -0.3158  0.2584 -0.3074
55224SOL    HW170357   3.169   5.818   9.806  0.2527  0.0038  0.6266
55224SOL    HW270358   3.247   5.691   9.779  0.2743  0.2460 -0.5045
55225SOL     OW70359  11.410   8.011   9.252  0.6258 -0.9312  0.3773
55225SOL    HW170360  11.480   8.075   9.242 -0.1983  0.1517  1.2975
55225SOL    HW270361  11.439   7.954   9.323  0.0056  0.3464  1.6979
55226SOL     OW70362   4.958   0.043   5.553 -0.3129  0.3214  0.0709
55226SOL    HW170363   4.991   0.064   5.640  2.1666  1.8644 -1.1162
55226SOL    HW270364   5.037   0.030   5.500 -1.6756  0.9871 -2.2780
55227SOL     OW70365   8.801  10.260   3.735  0.4739 -0.1031 -0.2387
55227SOL    HW170366   8.783  10.342   3.780 -0.4381 -0.3595 -0.1214
55227SOL    HW270367   8.811  10.284   3.643  1.2840  0.2773 -0.0583
55228SOL     OW70368   8.193   6.282  10.357  0.2987  0.1125 -0.1358
55228SOL    HW170369   8.207   6.207  10.299  1.7082  0.8004 -0.7196
55228SOL    HW270370   8.276   6.329  10.356 -0.0950  0.9026  1.3701
55229SOL     OW70371   8.537   8.247   3.260 -0.4425  0.6389  0.2551
55229SOL    HW170372   8.623   8.204   3.257 -0.9009 -0.2782 -0.1993
55229SOL    HW270373   8.492   8.214   3.182 -1.4936  0.4842  0.9155
55230SOL     OW70374  10.653   7.841  11.613  0.1572 -0.1030  0.2162
55230SOL    HW170375  10.631   7.892  11.690  0.4462  0.0955  0.1703
55230SOL    HW270376  10.651   7.903  11.540 -1.6882 -0.5917 -0.2087
55231SOL     OW70377   4.978   7.083   1.221  0.0431  0.4266 -0.3707
55231SOL    HW170378   4.927   7.012   1.182  1.4261 -0.0866 -1.3554
55231SOL    HW270379   4.954   7.161   1.171 -0.4697  0.3771 -0.2002
55232SOL     OW70380   1.954   4.992   9.292 -0.9524  0.6951 -0.3046
55232SOL    HW170381   2.011   5.012   9.218  0.5937 -1.3389  0.2699
55232SOL    HW270382   1.899   4.920   9.262 -1.1227  0.6272  0.1618
55233SOL     OW70383   4.143   4.401  10.595  0.0407  0.4033 -0.0349
55233SOL    HW170384   4.132   4.347  10.517 -2.8162 -0.7456  1.0196
55233SOL    HW270385   4.212   4.359  10.644 -0.2667 -0.7115 -0.5197
55234SOL     OW70386  11.294   7.829   6.703 -0.0012  0.0482  0.3476
55234SOL    HW170387  11.299   7.894   6.773  0.8872  1.8036 -1.2694
55234SOL    HW270388  11.232   7.763   6.736 -0.4683  1.3800  2.2936
55235SOL     OW70389   4.944  10.331   8.601  0.3170  0.4213 -0.0971
55235SOL    HW170390   5.005  10.347   8.529 -0.7885  0.4980 -1.0599
55235SOL    HW270391   4.993  10.353   8.680  2.0905 -1.1877 -0.6842
55236SOL     OW70392   9.357  11.753   2.005  0.4769 -0.5115  0.3981
55236SOL    HW170393   9.352  11.736   1.911 -0.1548 -0.6565  0.4495
55236SOL    HW270394   9.342  11.667   2.045 -1.2841 -0.1161  0.6503
55237SOL     OW70395   3.026   9.176   8.420  0.2617  0.2094  0.2127
55237SOL    HW170396   3.106   9.220   8.447  0.7032  0.2673 -1.1023
55237SOL    HW270397   2.961   9.247   8.413  0.6688  0.5078 -0.7651
55238SOL     OW70398   8.452   2.087   3.001  0.2541 -0.4687  0.2517
55238SOL    HW170399   8.446   2.076   3.096 -0.0794  0.9925  0.4302
55238SOL    HW270400   8.495   2.008   2.970  1.1110 -0.6088  1.7114
55239SOL     OW70401   7.571   7.238   9.466  0.0992 -0.1932  0.8205
55239SOL    HW170402   7.530   7.155   9.442  0.3555  0.0444 -0.5154
55239SOL    HW270403   7.537   7.257   9.554  0.8727 -2.2267  1.6215
55240SOL     OW70404   2.747   1.412   8.144  0.0237  0.3368  0.0096
55240SOL    HW170405   2.757   1.452   8.058 -2.7929  0.3127 -0.4441
55240SOL    HW270406   2.711   1.482   8.199  1.0148  0.1235  0.9607
55241SOL     OW70407  11.327   7.407   1.215  0.4423 -0.3522 -0.2231
55241SOL    HW170408  11.291   7.361   1.139  0.7990 -0.2339 -0.4677
55241SOL    HW270409  11.304   7.499   1.200  1.2086 -0.2099 -0.6034
55242SOL     OW70410  11.595  11.676   2.217  0.3098 -0.2720  0.3229
55242SOL    HW170411  11.567  11.677   2.309  0.9589 -2.3665  0.6127
55242SOL    HW270412  11.517  11.648   2.169  0.1252  0.2774  0.2970
55243SOL     OW70413   3.342   8.109   3.621  0.0616  0.1291 -0.1389
55243SOL    HW170414   3.329   8.088   3.714 -1.8235  0.4960 -0.2661
55243SOL    HW270415   3.318   8.030   3.574  2.0223 -0.4020 -0.3150
55244SOL     OW70416   7.118   4.837   4.594  0.3553  0.1238 -0.0638
55244SOL    HW170417   7.071   4.819   4.513 -1.1652  1.1446  0.5626
55244SOL    HW270418   7.209   4.847   4.567 -0.0817  0.1474 -1.5931
55245SOL     OW70419   9.629   4.111   2.859 -0.4841  0.7315 -0.2175
55245SOL    HW170420   9.538   4.086   2.873  0.0655 -1.2088  0.2111
55245SOL    HW270421   9.679   4.040   2.897  1.2544  2.4234  0.8180
55246SOL     OW70422   1.261   7.111  11.007 -0.0403 -0.3347  0.0560
55246SOL    HW170423   1.352   7.120  11.037  0.0167 -0.7561  0.0075
55246SOL    HW270424   1.213   7.173  11.062  0.1141 -0.8673  0.8097
55247SOL     OW70425   4.174   6.472   1.182  0.1452  0.5022  0.5775
55247SOL    HW170426   4.253   6.463   1.235 -0.5869 -0.1659  1.5804
55247SOL    HW270427   4.207   6.477   1.092  1.4207  1.9264  1.0803
55248SOL     OW70428   6.701  10.422   0.629  0.5388  0.6173 -0.2519
55248SOL    HW170429   6.729  10.344   0.677  0.7417  0.9295  0.1521
55248SOL    HW270430   6.752  10.420   0.548 -1.2929 -1.0037 -1.4353
55249SOL     OW70431   4.411   7.917   0.086  0.2539  0.4242 -0.0871
55249SOL    HW170432   4.493   7.952   0.052  1.3055 -0.9818  0.8915
55249SOL    HW270433   4.433   7.887   0.174 -0.8528 -1.5600 -0.4371
55250SOL     OW70434   2.771   2.708   7.509 -0.4026 -0.2753 -0.7397
55250SOL    HW170435   2.680   2.731   7.490  0.1040  1.0475 -1.7730
55250SOL    HW270436   2.802   2.667   7.428 -0.3287 -1.5740 -0.0692
55251SOL     OW70437   5.014  10.349   1.949 -0.5066 -0.9161  0.0468
55251SOL    HW170438   4.954  10.330   2.020 -1.2807  0.5956 -0.1519
55251SOL    HW270439   4.958  10.373   1.875  0.2370  2.0139  0.2808
55252SOL     OW70440   0.036   5.569   8.905 -0.0019 -0.2731 -0.0062
55252SOL    HW170441   0.015   5.498   8.844  1.3039  2.1862 -3.6918
55252SOL    HW270442   0.121   5.545   8.941  0.2785 -0.7929 -0.9637
55253SOL     OW70443   8.948   3.630   7.952  0.5214 -0.2563 -0.3518
55253SOL    HW170444   8.947   3.648   8.046 -2.3371  0.7844 -0.4876
55253SOL    HW270445   8.963   3.716   7.912  2.3258 -0.7823 -0.8978
55254SOL     OW70446  11.735   5.678   1.496  0.4087  0.1286  0.1287
55254SOL    HW170447  11.751   5.606   1.556  0.6541 -2.0357 -2.3440
55254SOL    HW270448  11.649   5.659   1.458 -0.1652  1.9511  0.4366
55255SOL     OW70449   2.263   2.221   6.874  0.0700 -0.3787 -0.4027
55255SOL    HW170450   2.283   2.226   6.780 -1.2994  0.7198 -0.6771
55255SOL    HW270451   2.217   2.138   6.885  0.7218 -0.7686 -0.5989
55256SOL     OW70452   0.563  11.879   4.873 -0.3521 -0.1527 -0.4533
55256SOL    HW170453   0.580  11.966   4.837 -0.7088  0.4808  0.8199
55256SOL    HW270454   0.581  11.818   4.801  0.4724  0.9317 -1.1970
55257SOL     OW70455   4.484   6.286   7.976 -0.0261 -0.1490  0.5070
55257SOL    HW170456   4.478   6.247   8.063 -2.2159 -0.0725  0.4602
55257SOL    HW270457   4.425   6.361   7.980  0.5611  0.4025 -0.7768
55258SOL     OW70458   5.940   3.393   1.530  0.2661  0.4809 -0.0275
55258SOL    HW170459   5.920   3.338   1.455 -0.6241  1.8213 -0.8071
55258SOL    HW270460   6.034   3.383   1.543  0.2653 -0.4905 -0.7315
55259SOL     OW70461   6.674   8.948   4.874 -0.4310  0.0310  0.2150
55259SOL    HW170462   6.623   9.029   4.870  0.5969  0.6632 -0.1709
55259SOL    HW270463   6.650   8.910   4.959 -1.2476  0.5131  0.2106
55260SOL     OW70464   0.876   2.052   3.483 -0.1925 -0.0271 -0.5693
55260SOL    HW170465   0.786   2.067   3.457 -0.1662 -0.1374 -0.7272
55260SOL    HW270466   0.909   2.138   3.508 -0.9704 -0.2877  1.5316
55261SOL     OW70467  11.898  11.165  10.672 -0.1180 -0.8599  0.0976
55261SOL    HW170468  11.928  11.193  10.759 -0.1714 -2.2160  0.5821
55261SOL    HW270469  11.978  11.133  10.629 -0.0622 -0.0372 -0.4339
55262SOL     OW70470   0.454   6.284   2.127 -0.0531 -0.1989  0.0577
55262SOL    HW170471   0.429   6.362   2.078  0.5044 -0.5593 -0.8374
55262SOL    HW270472   0.463   6.314   2.217 -0.0904  0.7170 -0.2292
55263SOL     OW70473   9.043   6.579  10.193 -0.4202  0.0501 -0.0641
55263SOL    HW170474   9.052   6.644  10.123 -1.6734  0.2255 -0.0839
55263SOL    HW270475   9.128   6.536  10.196 -0.5162 -0.4326 -2.1765
55264SOL     OW70476   5.226   3.880   8.480  0.3165 -0.4896 -0.4135
55264SOL    HW170477   5.195   3.920   8.399  0.4180 -2.1775 -1.3234
55264SOL    HW270478   5.152   3.888   8.540 -0.8685 -1.8288 -1.6248
55265SOL     OW70479   8.411   2.253   7.503  0.0099  0.2326 -0.1402
55265SOL    HW170480   8.467   2.215   7.571 -1.7535  0.6350  1.6517
55265SOL    HW270481   8.456   2.333   7.475  0.3828  0.5172  1.2106
55266SOL     OW70482   5.855   2.840   2.623 -0.0249  0.6802  0.4618
55266SOL    HW170483   5.825   2.878   2.705 -0.5608 -0.3603  0.7550
55266SOL    HW270484   5.918   2.773   2.648 -0.6971 -0.1114  0.0731
55267SOL     OW70485   1.621   1.903   7.099 -0.2803 -0.7167 -0.1323
55267SOL    HW170486   1.626   1.821   7.050 -0.8142 -1.7133  1.3982
55267SOL    HW270487   1.706   1.945   7.085  0.5089 -2.1679  0.1162
55268SOL     OW70488   4.637   4.189   1.130 -0.1932  0.0618  1.0393
55268SOL    HW170489   4.623   4.098   1.101  1.0563 -0.6104  2.3899
55268SOL    HW270490   4.549   4.222   1.149 -0.8660 -0.1917 -1.2178
55269SOL     OW70491   2.983   5.622   3.795 -0.2294 -0.2468  0.2455
55269SOL    HW170492   2.917   5.686   3.821  0.3703  1.0907 -1.3619
55269SOL    HW270493   2.960   5.600   3.705  0.0337 -1.7463  0.5213
55270SOL     OW70494   7.042  10.795   3.682  0.5539  0.2573 -0.2054
55270SOL    HW170495   7.113  10.860   3.678  1.5368 -0.7147  0.7592
55270SOL    HW270496   7.061  10.735   3.610  1.1091 -0.3694  0.4470
55271SOL     OW70497   9.590   7.633   3.759  0.9117 -0.2955 -0.3239
55271SOL    HW170498   9.592   7.641   3.664  0.1697  1.3974 -0.2335
55271SOL    HW270499   9.652   7.699   3.790 -0.2318  0.4622  0.3968
55272SOL     OW70500   0.527   4.255   3.761 -0.5689  0.6609  0.3515
55272SOL    HW170501   0.614   4.295   3.758 -0.6370  0.9273  1.3859
55272SOL    HW270502   0.488   4.275   3.676  0.7248 -0.2845 -0.4941
55273SOL     OW70503   7.199   2.215   0.256  0.1551  0.0451 -0.2733
55273SOL    HW170504   7.289   2.241   0.234  0.6859 -1.7880 -0.3981
55273SOL    HW270505   7.151   2.226   0.174  0.8794 -1.4619 -0.9350
55274SOL     OW70506   7.722   8.269   0.942  0.5847  0.1512  0.6414
55274SOL    HW170507   7.757   8.180   0.947  1.3577  0.4056 -0.1193
55274SOL    HW270508   7.648   8.269   1.004 -1.1082 -1.7794 -1.2360
55275SOL     OW70509  10.123   1.161   8.991 -0.1881  0.3930 -0.9228
55275SOL    HW170510  10.213   1.193   8.983  0.1681  0.2129  1.6251
55275SOL    HW270511  10.072   1.238   9.019 -1.1771  0.8458 -3.6682
55276SOL     OW70512  10.983   4.753   6.141  0.1022 -0.6844  0.5914
55276SOL    HW170513  10.985   4.662   6.111 -0.2102 -0.7483  0.7613
55276SOL    HW270514  10.902   4.759   6.192  0.5592 -0.5435  1.3148
55277SOL     OW70515   3.256   0.488   3.566 -0.4359  0.5165  0.1343
55277SOL    HW170516   3.178   0.535   3.535 -0.9350 -0.1790  0.3245
55277SOL    HW270517   3.322   0.505   3.499 -0.3852  2.0684  0.5413
55278SOL     OW70518   5.537   1.784   8.061  0.1225 -0.6484  0.7364
55278SOL    HW170519   5.490   1.819   8.136 -0.7589 -2.0554  0.8721
55278SOL    HW270520   5.606   1.729   8.100 -0.4675 -1.5471  0.5360
55279SOL     OW70521   9.045   5.268   2.772  0.3713  0.2863  0.3171
55279SOL    HW170522   9.128   5.250   2.729 -0.4031  0.7880 -1.4733
55279SOL    HW270523   8.984   5.203   2.736 -0.2010  0.4381  0.9832
55280SOL     OW70524   6.097   0.727  10.986  0.2984  0.6637 -0.3241
55280SOL    HW170525   6.016   0.747  10.939  0.2268  0.5273 -0.2598
55280SOL    HW270526   6.166   0.743  10.922  0.1768  0.1060 -0.5979
55281SOL     OW70527   4.487   0.696   8.109  0.9497  0.2794  0.1229
55281SOL    HW170528   4.537   0.753   8.167  1.3304  0.9051 -0.7927
55281SOL    HW270529   4.548   0.675   8.038  0.1257  0.5587 -0.6963
55282SOL     OW70530   9.932   0.704   4.138  0.4364  0.0657 -0.4455
55282SOL    HW170531   9.865   0.649   4.178  0.1378  1.1839  0.6588
55282SOL    HW270532   9.965   0.652   4.065  0.8750 -2.0227  1.1074
55283SOL     OW70533   9.402  11.426   9.749  0.6221 -0.5449  0.0719
55283SOL    HW170534   9.464  11.435   9.678  0.6301  0.3770  0.1848
55283SOL    HW270535   9.332  11.371   9.713  0.1404  0.7102 -0.9848
55284SOL     OW70536  11.903   9.386   0.001  0.1613  0.2799 -0.1478
55284SOL    HW170537  11.999   9.380   0.001  0.1038 -1.2066  0.3948
55284SOL    HW270538  11.874   9.295   0.006 -1.3065  0.6277 -1.5024
55285SOL     OW70539   5.632   5.216  11.694  0.0331 -0.1403 -0.3466
55285SOL    HW170540   5.665   5.220  11.604  0.5170  1.5727 -0.1303
55285SOL    HW270541   5.546   5.256  11.689 -1.6780 -3.4865 -0.6758
55286SOL     OW70542   7.571   5.290   7.567 -0.1257 -0.4302  0.1816
55286SOL    HW170543   7.651   5.322   7.608 -0.2747 -0.9066  0.8594
55286SOL    HW270544   7.508   5.362   7.579 -0.1882 -0.5848  0.8795
55287SOL     OW70545   9.225  10.912   8.400 -0.6328 -0.9896 -0.4913
55287SOL    HW170546   9.173  10.846   8.354 -0.2909 -1.1062 -0.7142
55287SOL    HW270547   9.259  10.867   8.477  0.4684 -1.3972 -1.1862
55288SOL     OW70548   9.532   8.510   0.761  0.5509  0.6102  0.5678
55288SOL    HW170549   9.554   8.565   0.686  1.0669 -0.2418  0.0780
55288SOL    HW270550   9.581   8.428   0.747 -0.1348  0.0484  1.3117
55289SOL     OW70551   1.398  10.531   4.574 -0.3348 -0.4651  0.6805
55289SOL    HW170552   1.459  10.571   4.637 -1.6674  1.9420  0.5680
55289SOL    HW270553   1.419  10.572   4.491 -0.7362 -1.1909  0.2108
55290SOL     OW70554   8.030   4.492  11.128 -0.3981  0.2481 -0.5264
55290SOL    HW170555   7.966   4.420  11.132 -0.3134  0.2001  0.0470
55290SOL    HW270556   7.978   4.571  11.140 -0.5168  0.3006 -1.3446
55291SOL     OW70557   3.748  10.362   1.993 -0.2438  0.0876 -0.9587
55291SOL    HW170558   3.741  10.458   2.000 -3.8161 -0.0555 -0.9556
55291SOL    HW270559   3.727  10.343   1.902  2.7767 -0.6896 -1.6175
55292SOL     OW70560   5.171   4.802   2.317  0.2692 -0.7079 -0.0738
55292SOL    HW170561   5.117   4.728   2.288  1.3462 -1.0054 -1.4483
55292SOL    HW270562   5.246   4.760   2.360  0.4153 -0.3664  0.0051
55293SOL     OW70563  11.828   7.295   9.267 -0.2681 -0.2450  0.2417
55293SOL    HW170564  11.774   7.312   9.190  0.8292 -0.5640 -0.6110
55293SOL    HW270565  11.910   7.261   9.233  1.0711  1.6366  1.4232
55294SOL     OW70566   9.558   7.503   0.274 -0.7413 -0.1929 -0.1328
55294SOL    HW170567   9.543   7.595   0.253 -0.3961  0.1404  1.0370
55294SOL    HW270568   9.528   7.494   0.364  0.1383 -1.0013  0.0888
55295SOL     OW70569   3.346   1.529  11.730  0.1242 -0.6068  0.2492
55295SOL    HW170570   3.391   1.591  11.673  0.9700 -0.9809  0.4979
55295SOL    HW270571   3.381   1.546  11.817 -1.1330 -0.0681  0.6668
55296SOL     OW70572   9.362   4.150   2.897 -0.1656  0.0929 -0.0463
55296SOL    HW170573   9.363   4.118   2.987 -0.7097  0.5048  0.1128
55296SOL    HW270574   9.287   4.209   2.893  0.1898  0.5213 -0.6204
55297SOL     OW70575   0.816   2.399   0.622  0.2183 -0.2123  0.1411
55297SOL    HW170576   0.906   2.368   0.612  0.0868 -0.8909  0.9823
55297SOL    HW270577   0.823   2.494   0.619  0.5638 -0.2090 -3.1253
55298SOL     OW70578   7.353   6.996   2.839  0.1205 -0.2626  0.0805
55298SOL    HW170579   7.442   7.022   2.862  0.0448 -0.0542  0.1391
55298SOL    HW270580   7.314   7.075   2.802 -0.2630 -0.1527  0.7009
55299SOL     OW70581   0.141   5.001   5.105  0.2772 -0.1978 -0.0751
55299SOL    HW170582   0.141   4.995   5.009  0.5276 -2.0992  0.0013
55299SOL    HW270583   0.056   4.965   5.130 -0.5966  2.0381  0.3936
55300SOL     OW70584   8.812   5.463   2.813  0.6308 -0.0259 -0.4985
55300SOL    HW170585   8.741   5.475   2.750  0.4711  0.3001 -0.2590
55300SOL    HW270586   8.882   5.421   2.763  0.6404  0.5524 -0.9865
55301SOL     OW70587   4.449   6.508   5.221 -0.0124 -0.1839  0.0005
55301SOL    HW170588   4.410   6.489   5.306 -1.5920  1.9242 -0.1931
55301SOL    HW270589   4.524   6.448   5.216 -0.3157 -0.8962  2.5197
55302SOL     OW70590   7.563   6.407   3.806  0.0319  0.1896  0.7930
55302SOL    HW170591   7.470   6.386   3.808 -0.2043  0.0405 -3.4890
55302SOL    HW270592   7.605   6.332   3.765  1.6042  1.4121  0.0315
55303SOL     OW70593   3.060   3.966   6.294 -0.0476  0.5130 -0.1053
55303SOL    HW170594   3.001   3.894   6.268 -0.0345  0.6485 -0.5132
55303SOL    HW270595   3.109   3.931   6.368 -2.5658  1.3057  2.1065
55304SOL     OW70596   2.572   5.410  10.401  0.0267 -0.1357 -0.1493
55304SOL    HW170597   2.637   5.375  10.339  1.4307 -0.0746  1.2238
55304SOL    HW270598   2.602   5.499  10.418 -0.0406 -0.3251  0.9909
55305SOL     OW70599   8.104  11.853   1.406  0.1011  0.3675  0.0436
55305SOL    HW170600   8.074  11.809   1.326 -1.3029 -1.1829  1.3505
55305SOL    HW270601   8.158  11.788   1.451  0.1201  0.8950  0.8014
55306SOL     OW70602   6.832   2.866  11.133 -0.2156 -0.2871 -0.0953
55306SOL    HW170603   6.775   2.937  11.163 -0.0210 -0.2211  0.1213
55306SOL    HW270604   6.884   2.843  11.210  2.1050  1.6035 -0.9568
55307SOL     OW70605   5.233   7.295   1.076  0.1960  0.1597 -0.2908
55307SOL    HW170606   5.152   7.277   1.029 -0.7393  2.1097  0.4696
55307SOL    HW270607   5.247   7.218   1.130 -0.2474 -0.8929 -1.6135
55308SOL     OW70608   1.065   6.454  11.437  0.1121 -0.2058 -0.2657
55308SOL    HW170609   1.047   6.540  11.400 -1.2107  0.1930  1.2126
55308SOL    HW270610   1.160   6.452  11.447  0.6105 -0.3858 -3.6122
55309SOL     OW70611   4.215   0.745   8.309 -0.3810  1.0375  0.3184
55309SOL    HW170612   4.183   0.801   8.238  1.5349  2.2335  0.3251
55309SOL    HW270613   4.289   0.793   8.346  0.0392 -0.5752  1.7047
55310SOL     OW70614   2.057   0.506   2.538  0.0564 -0.1868  0.6564
55310SOL    HW170615   2.113   0.460   2.476  2.5693 -0.2364  2.8074
55310SOL    HW270616   1.989   0.443   2.560  1.2389 -1.5103  0.6768
55311SOL     OW70617  11.060   4.408  11.245 -0.3045  0.2684  0.1376
55311SOL    HW170618  10.982   4.361  11.216 -0.3978  0.2550  0.4068
55311SOL    HW270619  11.041   4.431  11.336 -0.1627  0.6181  0.0806
55312SOL     OW70620   0.680   0.535  11.014 -0.0688 -0.1639  0.2728
55312SOL    HW170621   0.680   0.502  10.924  1.2829 -0.8667  0.5045
55312SOL    HW270622   0.603   0.493  11.054  0.7723 -1.9286  0.1452
55313SOL     OW70623   0.240   9.503   9.940 -0.1114 -0.0314 -0.1802
55313SOL    HW170624   0.329   9.533   9.919 -0.2513 -0.0709 -0.8576
55313SOL    HW270625   0.229   9.424   9.887 -0.4913 -0.1235  0.0334
55314SOL     OW70626   9.840  10.884  10.602 -0.1257  0.1790 -0.4116
55314SOL    HW170627   9.791  10.965  10.605  1.0728  0.9609 -0.9279
55314SOL    HW270628   9.826  10.843  10.687  1.1814  2.1284  0.8237
55315SOL     OW70629   1.922   4.065   5.705 -0.0915  0.4553 -0.4040
55315SOL    HW170630   1.894   4.085   5.794 -0.4604  0.9159 -0.6183
55315SOL    HW270631   1.859   3.999   5.675  1.0428 -0.9675  0.2551
55316SOL     OW70632   1.599   6.875   7.391  0.3206  0.0099 -0.3096
55316SOL    HW170633   1.508   6.865   7.361  0.3181 -1.3384  0.0608
55316SOL    HW270634   1.628   6.785   7.408  2.5874  0.1392 -2.8615
55317SOL     OW70635   2.641  11.405   6.475  0.6443 -0.2870  0.0746
55317SOL    HW170636   2.641  11.315   6.441  2.1778 -0.9857  1.7550
55317SOL    HW270637   2.723  11.443   6.443 -0.9569  1.3292 -2.4268
55318SOL     OW70638   7.529   5.948   4.919  0.1746  0.6575  0.2244
55318SOL    HW170639   7.574   5.923   4.839 -1.1837 -0.5859 -0.1889
55318SOL    HW270640   7.483   6.029   4.896 -0.8093 -0.0840 -0.5127
55319SOL     OW70641   0.235   6.945   1.740 -0.7198 -0.6060 -0.2590
55319SOL    HW170642   0.235   6.854   1.768 -0.3372 -0.2675  0.9262
55319SOL    HW270643   0.153   6.980   1.777 -0.1774 -0.1335  0.5236
55320SOL     OW70644   9.514   4.346   0.837  0.2751 -0.4647 -0.1001
55320SOL    HW170645   9.535   4.274   0.778 -0.4890 -1.1413  0.4210
55320SOL    HW270646   9.535   4.425   0.787  0.4052 -1.0313 -0.9679
55321SOL     OW70647   7.923  11.619   7.392  1.1706  0.1325  0.4910
55321SOL    HW170648   7.904  11.564   7.316  0.6591  1.0513 -0.0642
55321SOL    HW270649   7.870  11.698   7.378  1.1152  0.3386  1.7676
55322SOL     OW70650   3.152   8.986  11.574 -0.3315  0.0526 -0.3815
55322SOL    HW170651   3.058   8.993  11.588 -0.4528  0.7128 -1.3963
55322SOL    HW270652   3.172   8.894  11.588 -1.0883 -0.0477  0.0552
55323SOL     OW70653  11.754  10.319   4.283  0.3766 -0.2085 -0.1318
55323SOL    HW170654  11.763  10.231   4.248 -0.9855 -1.0823  1.5615
55323SOL    HW270655  11.819  10.324   4.353 -0.4484 -0.3827  0.6676
55324SOL     OW70656   0.880  11.126   1.582  0.2775 -0.0407  0.7061
55324SOL    HW170657   0.883  11.082   1.666 -0.1777  1.0327  1.3034
55324SOL    HW270658   0.831  11.207   1.598  1.4158  0.8863 -0.2480
55325SOL     OW70659   1.942   4.339   6.885 -0.0028  0.0754  0.0423
55325SOL    HW170660   1.862   4.317   6.932  0.8631 -0.6071  1.2407
55325SOL    HW270661   1.968   4.257   6.843 -0.0639  0.3600 -0.5595
55326SOL     OW70662   0.578   7.644   0.451 -0.0070  0.3638 -0.9098
55326SOL    HW170663   0.581   7.627   0.545  1.7773  0.9867 -0.8074
55326SOL    HW270664   0.669   7.659   0.427 -0.4099  0.0458 -2.7886
55327SOL     OW70665  11.097   2.260   1.461  0.0869  0.1991 -0.2711
55327SOL    HW170666  11.172   2.253   1.521 -1.2060 -0.5395  1.3442
55327SOL    HW270667  11.023   2.280   1.518 -0.8188  1.8958 -1.9457
55328SOL     OW70668   1.499  10.691   0.057 -0.4991  0.0555 -0.1162
55328SOL    HW170669   1.584  10.681   0.098 -1.5557  0.7756  2.4501
55328SOL    HW270670   1.469  10.778   0.084 -1.5399  0.3714 -2.0404
55329SOL     OW70671   9.639   3.070  11.604  0.6418 -0.3433 -0.2182
55329SOL    HW170672   9.672   2.981  11.591  1.9066 -0.2176  1.6901
55329SOL    HW270673   9.569   3.061  11.668  1.0926  0.0608  0.3465
55330SOL     OW70674   4.904   2.951   9.700  0.1889  0.3569  0.2702
55330SOL    HW170675   4.824   2.921   9.744 -1.3095  1.3658 -1.5712
55330SOL    HW270676   4.941   2.872   9.661 -1.0131  0.1091 -0.4535
55331SOL     OW70677  10.835   5.797   4.404 -0.3534 -0.0534 -0.6919
55331SOL    HW170678  10.802   5.885   4.385 -2.3080 -0.5090  0.3062
55331SOL    HW270679  10.758   5.748   4.434  0.8751 -1.8257 -0.2295
55332SOL     OW70680   1.457   1.920   9.053  0.2231  0.2216  0.3156
55332SOL    HW170681   1.453   1.826   9.040 -0.8053  0.1726  0.8871
55332SOL    HW270682   1.488   1.955   8.969  1.6223 -0.6866  0.4333
55333SOL     OW70683  11.220   9.664   9.810  0.2226  0.3063 -0.2960
55333SOL    HW170684  11.291   9.615   9.852 -0.4256  0.6006  1.2088
55333SOL    HW270685  11.243   9.756   9.825 -2.2083  0.5179  3.5784
55334SOL     OW70686  10.052   5.242   4.190 -0.5801  0.7608 -0.1227
55334SOL    HW170687   9.989   5.293   4.240  0.0283  1.7024 -0.3023
55334SOL    HW270688  10.089   5.180   4.253 -0.3524  1.4436  0.4213
55335SOL     OW70689   4.014  11.272  10.193  0.5355 -0.4192  0.4752
55335SOL    HW170690   4.046  11.198  10.142 -2.6120 -2.4051  1.1485
55335SOL    HW270691   3.948  11.236  10.251 -0.7232  2.8376  1.3188
55336SOL     OW70692   7.167  11.776   1.397 -0.6454  0.4733 -0.5299
55336SOL    HW170693   7.115  11.722   1.337 -2.4239  2.1970 -0.6366
55336SOL    HW270694   7.161  11.731   1.481  0.4127 -1.0333 -1.2051
55337SOL     OW70695   9.576   0.316   4.079  0.7228 -0.2809 -0.1712
55337SOL    HW170696   9.671   0.307   4.088  0.7077  0.0795  0.3588
55337SOL    HW270697   9.565   0.365   3.998  1.0136  0.2267  0.0908
55338SOL     OW70698   3.983   8.755  10.057  0.5350  0.2450  0.5242
55338SOL    HW170699   3.960   8.727   9.969  0.1490  0.1268  0.6612
55338SOL    HW270700   3.933   8.836  10.070  1.3921  0.8362  0.2495
55339SOL     OW70701   1.095   6.437  11.849  0.2709  0.3555  0.7389
55339SOL    HW170702   1.078   6.348  11.817 -0.1792  0.6423  0.1548
55339SOL    HW270703   1.013   6.484  11.832  0.6834  1.0128  0.5702
55340SOL     OW70704  10.701  10.881   3.783  0.5066  0.0304 -0.3297
55340SOL    HW170705  10.665  10.946   3.722  0.6481  1.3477  0.9525
55340SOL    HW270706  10.731  10.809   3.726 -1.0958  0.3595 -1.6568
55341SOL     OW70707   7.003   8.604  10.302  0.2334 -0.6542 -0.4315
55341SOL    HW170708   7.052   8.571  10.378 -0.2840 -0.9692 -0.2258
55341SOL    HW270709   6.998   8.698  10.316 -0.6102 -0.8049  0.3957
55342SOL     OW70710  11.255   5.324   2.482 -0.1114 -0.0142  0.2759
55342SOL    HW170711  11.167   5.297   2.455  0.1140  0.4647 -0.9950
55342SOL    HW270712  11.240   5.399   2.540 -0.5179  0.5616 -0.5580
55343SOL     OW70713   9.419   2.241  11.015  0.1780 -0.3980  0.0453
55343SOL    HW170714   9.363   2.198  10.950  1.7441 -0.8465 -1.0835
55343SOL    HW270715   9.501   2.257  10.968  0.2392  2.3858  0.9192
55344SOL     OW70716  10.769   4.350   1.810  0.2590 -0.5985 -0.7336
55344SOL    HW170717  10.761   4.348   1.906 -0.7353 -0.4278 -0.8010
55344SOL    HW270718  10.836   4.415   1.793 -0.2264  0.0580 -0.1812
55345SOL     OW70719   8.443   3.455  11.369  0.4038 -0.1330  0.5161
55345SOL    HW170720   8.520   3.479  11.420  0.3421  0.2643  0.4258
55345SOL    HW270721   8.377   3.521  11.393  0.4130  0.1394 -0.1762
55346SOL     OW70722  11.233   0.650   8.843  0.1587 -0.5785  0.8602
55346SOL    HW170723  11.249   0.616   8.931 -1.1701 -1.2207  0.8675
55346SOL    HW270724  11.148   0.693   8.849  0.7523  0.7370  0.2552
55347SOL     OW70725   4.421   8.936   5.027  0.1588 -0.7376 -0.7138
55347SOL    HW170726   4.462   9.023   5.026  2.2295 -1.6006  1.0883
55347SOL    HW270727   4.339   8.948   4.980 -1.2747  3.0175  2.2114
55348SOL     OW70728   8.101   6.614  10.578 -0.2514 -0.4994  0.2352
55348SOL    HW170729   8.162   6.544  10.604  1.5761  0.4739 -1.2280
55348SOL    HW270730   8.015   6.572  10.582  0.5030 -2.0641  1.9367
55349SOL     OW70731   5.199   4.985   4.798 -0.3735  0.1364 -0.7239
55349SOL    HW170732   5.142   4.936   4.739 -1.4650  1.6335 -0.9685
55349SOL    HW270733   5.160   4.975   4.884 -2.2392  2.7284 -1.1548
55350SOL     OW70734   8.908  11.690   7.281  0.8294  0.0032  0.2476
55350SOL    HW170735   8.997  11.683   7.246  1.6422  1.3628  1.8755
55350SOL    HW270736   8.904  11.621   7.348  0.1086 -1.0469 -0.8582
55351SOL     OW70737   3.016   8.379   9.182  0.6157  0.3521 -0.0592
55351SOL    HW170738   3.013   8.426   9.099  2.8929 -0.8703 -0.9243
55351SOL    HW270739   2.946   8.314   9.175 -0.1689  1.2066 -0.3792
55352SOL     OW70740   4.319   8.094   2.554  0.2469  0.5200  0.5805
55352SOL    HW170741   4.246   8.073   2.495  0.4832 -0.4083  0.5925
55352SOL    HW270742   4.320   8.021   2.616  0.8481  0.8031  0.8997
55353SOL     OW70743   0.860   8.765   4.218 -0.4846 -0.0916  0.0844
55353SOL    HW170744   0.907   8.709   4.281 -0.3104  0.6915  0.6609
55353SOL    HW270745   0.782   8.792   4.265 -1.2633 -0.9401 -0.6808
55354SOL     OW70746   0.373  11.643   4.766  0.4588  0.9479 -0.3787
55354SOL    HW170747   0.347  11.551   4.763  0.3136  0.9811 -0.1596
55354SOL    HW270748   0.468  11.641   4.776  0.3991  0.8164  0.1881
55355SOL     OW70749   7.816  11.222   5.092 -0.2408 -0.2218  0.1078
55355SOL    HW170750   7.835  11.313   5.116  0.3098 -0.4844  0.6892
55355SOL    HW270751   7.731  11.204   5.131  1.5734 -1.3462  4.0158
55356SOL     OW70752   3.393   8.950  10.750 -0.0619 -0.3566  0.2029
55356SOL    HW170753   3.391   9.043  10.729 -1.2596 -0.1691  1.0036
55356SOL    HW270754   3.401   8.906  10.666 -1.2255  0.4434 -0.3524
55357SOL     OW70755   7.625   5.803   8.759  0.0247 -0.1150  0.3163
55357SOL    HW170756   7.612   5.728   8.701 -0.0095  1.3370 -1.6838
55357SOL    HW270757   7.692   5.855   8.715 -3.5062  3.6210 -1.2912
55358SOL     OW70758  10.687   3.692  11.761 -0.2096 -0.1630  0.2213
55358SOL    HW170759  10.625   3.637  11.713 -0.6726  0.8638 -0.3907
55358SOL    HW270760  10.763   3.698  11.704 -0.7716  1.0830 -0.4300
55359SOL     OW70761   0.491  11.696   1.606 -0.1675 -0.2356 -0.0564
55359SOL    HW170762   0.579  11.694   1.644  0.1892 -1.3529 -0.8784
55359SOL    HW270763   0.496  11.761   1.536  0.2337 -0.8348 -0.5945
55360SOL     OW70764   2.155   0.658  10.589 -0.2030  0.1945  0.1688
55360SOL    HW170765   2.173   0.752  10.587 -1.0342  0.3776  0.9748
55360SOL    HW270766   2.159   0.634  10.682  2.2472 -1.0342 -0.1635
55361SOL     OW70767   1.913   1.899   1.708  0.1524 -0.0456  0.5159
55361SOL    HW170768   1.843   1.834   1.717  0.1242  0.1023  1.4215
55361SOL    HW270769   1.961   1.870   1.630 -2.1785  1.0576 -1.4854
55362SOL     OW70770   5.438   8.924   4.646 -0.2866  0.3648 -0.2973
55362SOL    HW170771   5.367   8.861   4.633 -1.0185  1.3333 -1.2710
55362SOL    HW270772   5.482   8.928   4.561  1.1606 -0.4470  0.3777
55363SOL     OW70773  10.606   3.710   9.098 -0.1439  0.9773 -0.0120
55363SOL    HW170774  10.534   3.769   9.121 -1.1782 -0.1304 -0.3693
55363SOL    HW270775  10.681   3.769   9.087 -1.1403  2.2420 -0.3389
55364SOL     OW70776   8.280   6.024   2.198  0.2338  0.9656  0.0285
55364SOL    HW170777   8.310   5.990   2.282  0.0616  0.4096 -0.1241
55364SOL    HW270778   8.257   5.945   2.148  0.0880  1.3020 -0.4417
55365SOL     OW70779   5.475   6.725  11.216 -0.3393  0.0881  0.3872
55365SOL    HW170780   5.389   6.711  11.256 -0.0021 -1.7740  0.5765
55365SOL    HW270781   5.458   6.725  11.122 -0.4580 -1.2875  0.3873
55366SOL     OW70782   0.351   8.634   9.638 -0.6248 -0.5002 -0.2731
55366SOL    HW170783   0.436   8.598   9.663 -0.3426 -0.6143 -1.3443
55366SOL    HW270784   0.350   8.722   9.675  0.5003 -0.0234 -1.2957
55367SOL     OW70785   3.517   4.968   6.531 -0.0627  0.5973 -0.1540
55367SOL    HW170786   3.518   5.019   6.611  0.6013  1.8479 -0.9321
55367SOL    HW270787   3.434   4.920   6.534 -0.4436  1.2839  0.8502
55368SOL     OW70788  11.186  11.719   7.501  0.1047  0.8601  0.3380
55368SOL    HW170789  11.252  11.731   7.568  1.0114  1.2899 -0.6108
55368SOL    HW270790  11.183  11.624   7.487 -0.3669  0.7293  1.2284
55369SOL     OW70791   2.917   0.018   8.251  0.2836  0.3878 -0.2692
55369SOL    HW170792   2.987  -0.037   8.286  1.3273  2.2154  0.7141
55369SOL    HW270793   2.843   0.004   8.311  0.2870 -0.4535 -0.4532
55370SOL     OW70794   8.793   2.457   3.258  0.0810  0.4293  0.4002
55370SOL    HW170795   8.785   2.539   3.210 -0.0997  0.4081  0.3950
55370SOL    HW270796   8.832   2.396   3.194 -0.2823  0.3644  0.2371
55371SOL     OW70797   7.813   2.618   1.026  0.0515  0.4268 -0.1422
55371SOL    HW170798   7.856   2.689   0.978 -0.1835 -0.0321 -1.0652
55371SOL    HW270799   7.772   2.661   1.101  0.3771  1.1809 -0.3853
55372SOL     OW70800   3.823   7.670   0.281  0.6084 -0.2705 -0.2992
55372SOL    HW170801   3.730   7.651   0.292  0.6777 -1.1433 -1.0887
55372SOL    HW270802   3.833   7.686   0.187  1.0832  0.8751 -0.0762
55373SOL     OW70803   6.946   3.603   9.413  0.2853 -0.3534 -0.4530
55373SOL    HW170804   7.013   3.664   9.445  1.2778 -1.0132 -1.1874
55373SOL    HW270805   6.946   3.532   9.477 -0.5100  0.1582  0.1318
55374SOL     OW70806  11.934   7.765   1.269 -0.2600  0.0415 -0.1047
55374SOL    HW170807  11.977   7.706   1.207  1.8027  0.2835  0.9967
55374SOL    HW270808  11.893   7.707   1.333 -0.4435 -0.2068 -0.4464
55375SOL     OW70809   0.006  10.507   9.354  0.0798  0.1813 -0.1363
55375SOL    HW170810  -0.065  10.537   9.410  1.1221  0.4119  1.1073
55375SOL    HW270811  -0.022  10.530   9.266 -0.9786  1.0781  0.4072
55376SOL     OW70812   1.399   8.713  11.953 -0.0852  0.2086 -0.2770
55376SOL    HW170813   1.369   8.738  11.865 -1.2613  0.1130  0.0882
55376SOL    HW270814   1.348   8.635  11.974 -0.4698  0.7442  0.8527
55377SOL     OW70815   2.114   1.466  11.232  0.3609  0.4496 -0.0152
55377SOL    HW170816   2.055   1.542  11.227 -0.3355 -0.0339  0.5541
55377SOL    HW270817   2.095   1.428  11.318  1.6011  0.3404  0.2230
55378SOL     OW70818  10.322   5.338   1.570 -0.5300  0.0989 -0.6071
55378SOL    HW170819  10.272   5.419   1.558  0.3898  0.9341  0.8777
55378SOL    HW270820  10.403   5.353   1.521 -0.3627  0.0843 -0.3374
55379SOL     OW70821   1.183   4.770   1.937 -0.6680 -0.4369  0.1956
55379SOL    HW170822   1.096   4.784   1.900 -1.5227  1.1799  2.5904
55379SOL    HW270823   1.170   4.705   2.006  0.6727 -2.5117 -1.3858
55380SOL     OW70824   8.922   7.842   6.602 -0.5077 -0.2009 -0.5828
55380SOL    HW170825   9.013   7.819   6.621 -1.0716 -0.2505  2.6084
55380SOL    HW270826   8.880   7.758   6.581  0.0923 -0.2167 -1.7668
55381SOL     OW70827   1.807   8.827  10.915  0.0639 -0.1422  0.3882
55381SOL    HW170828   1.754   8.802  10.839 -0.7225  0.0977  0.8446
55381SOL    HW270829   1.896   8.805  10.890 -0.0657  0.7112 -0.9463
55382SOL     OW70830   6.038   3.843   8.542  0.4752 -0.0988  0.1623
55382SOL    HW170831   5.958   3.893   8.558  1.0731  1.0270 -0.2953
55382SOL    HW270832   6.067   3.816   8.629 -0.9501 -1.4326  0.2719
55383SOL     OW70833   1.228   6.654   9.276 -0.4868  1.0820  0.0527
55383SOL    HW170834   1.242   6.642   9.182 -0.0251 -0.0345  0.2477
55383SOL    HW270835   1.133   6.645   9.287 -0.3049 -2.1481  0.0693
55384SOL     OW70836   7.787   5.678  11.336 -0.1257 -0.0553 -0.1989
55384SOL    HW170837   7.710   5.657  11.390  0.1305 -0.1573  0.1295
55384SOL    HW270838   7.856   5.622  11.370  0.9981  2.3194  1.6953
55385SOL     OW70839  11.672   6.608   0.323  0.4389 -1.2457 -0.4054
55385SOL    HW170840  11.637   6.566   0.244 -0.9853 -1.3767  0.2564
55385SOL    HW270841  11.761   6.575   0.331 -0.0282 -2.7067 -0.9251
55386SOL     OW70842   8.996   4.281   4.054  0.1775 -0.0540 -0.4881
55386SOL    HW170843   8.910   4.242   4.069 -0.1617  0.5251 -0.8868
55386SOL    HW270844   8.984   4.374   4.072  0.3739  0.2526 -1.8682
55387SOL     OW70845   8.396   8.101   6.926  0.1178  0.5790 -0.0824
55387SOL    HW170846   8.384   8.033   6.860  1.2261 -0.6796  0.9575
55387SOL    HW270847   8.324   8.088   6.988 -0.3021  1.0692 -0.4617
55388SOL     OW70848  10.866   3.770  10.197  0.1973  0.8059 -0.5094
55388SOL    HW170849  10.881   3.764  10.292  0.3899  1.3463 -0.4967
55388SOL    HW270850  10.841   3.682  10.170 -0.4278  0.7749  0.1424
55389SOL     OW70851   5.539  11.692   0.647  0.0796 -0.5846 -1.4927
55389SOL    HW170852   5.610  11.632   0.670 -1.7533 -2.4353 -0.3362
55389SOL    HW270853   5.500  11.654   0.568 -3.1182 -3.0469  0.9500
55390SOL     OW70854   5.334  10.137   0.793  0.5310  0.2230  0.2687
55390SOL    HW170855   5.324  10.065   0.730  0.6224  2.0533 -2.0071
55390SOL    HW270856   5.252  10.186   0.785  0.8336  0.8696  1.0978
55391SOL     OW70857   1.837   7.126   7.456 -0.3048 -0.6429 -0.1846
55391SOL    HW170858   1.840   7.034   7.483 -1.1264 -0.2481  1.3150
55391SOL    HW270859   1.744   7.145   7.444 -0.0949 -0.2044 -1.3224
55392SOL     OW70860   4.537   7.826   4.923 -0.3205  0.6364  0.0644
55392SOL    HW170861   4.456   7.838   4.873  0.7933  1.0294 -1.7177
55392SOL    HW270862   4.567   7.915   4.942 -0.0162  0.4969  0.2385
55393SOL     OW70863   6.804   7.757   0.753  0.0963 -0.0567  0.4066
55393SOL    HW170864   6.711   7.757   0.729  0.5209  0.3629 -1.3552
55393SOL    HW270865   6.805   7.774   0.847 -1.5007  2.9026 -0.0265
55394SOL     OW70866  11.032   1.483  11.574  0.2386  0.0120  0.4237
55394SOL    HW170867  11.074   1.533  11.645  0.3782  1.1916 -0.4694
55394SOL    HW270868  11.063   1.524  11.494 -1.5454  0.0317 -0.3001
55395SOL     OW70869   5.037   8.505   3.686  0.2424 -0.1147  0.0529
55395SOL    HW170870   5.008   8.553   3.608  0.6268 -0.5143 -0.3474
55395SOL    HW270871   4.972   8.437   3.698  0.3914 -0.2988 -0.1618
55396SOL     OW70872   6.967   3.859   6.846  0.3504  0.3928 -0.4418
55396SOL    HW170873   7.038   3.842   6.784 -0.8154 -2.4192 -1.1672
55396SOL    HW270874   6.893   3.809   6.813 -1.1146  0.8498  1.8684
55397SOL     OW70875   6.466   9.780   7.760  0.0257  0.7208 -0.1295
55397SOL    HW170876   6.531   9.734   7.813 -1.5033  0.5864  1.7235
55397SOL    HW270877   6.488   9.873   7.771  0.0010  0.6697  0.3569
55398SOL     OW70878  11.593  11.726  11.494 -0.2891  0.1448  0.5922
55398SOL    HW170879  11.498  11.726  11.487 -0.2694 -1.0755  0.0614
55398SOL    HW270880  11.620  11.640  11.463  1.1530  1.2140 -1.3932
55399SOL     OW70881   5.586   3.158  10.390 -0.1639 -0.3078  0.3162
55399SOL    HW170882   5.627   3.072  10.398 -0.5451 -0.7307 -1.6650
55399SOL    HW270883   5.513   3.156  10.452  1.5884 -0.2499  2.4741
55400SOL     OW70884   2.541   6.185   0.683 -0.2012 -0.0319 -0.1941
55400SOL    HW170885   2.456   6.147   0.661  0.4392 -0.7435 -1.6198
55400SOL    HW270886   2.521   6.258   0.740 -1.6240 -1.4721  1.2549
55401SOL     OW70887   4.936   4.352   8.532 -0.5908  0.0507 -0.4629
55401SOL    HW170888   5.005   4.393   8.585 -1.9294 -0.3915  1.7720
55401SOL    HW270889   4.954   4.258   8.538 -0.7292 -0.0030 -0.8507
55402SOL     OW70890   7.102   0.036   9.233  0.3017 -0.3025 -0.3543
55402SOL    HW170891   7.127   0.040   9.141  1.0725 -1.1319 -0.1934
55402SOL    HW270892   7.181   0.010   9.279  0.0990  0.7029  0.6362
55403SOL     OW70893   1.764  11.437  11.430  0.3190 -0.0701 -0.0369
55403SOL    HW170894   1.775  11.497  11.356  1.2159  0.1333  0.2366
55403SOL    HW270895   1.849  11.441  11.476 -0.9618  1.7795  2.4576
55404SOL     OW70896   9.386   0.566  10.869  0.4075 -0.5627 -0.5841
55404SOL    HW170897   9.379   0.539  10.778 -2.2981 -2.8022  0.1790
55404SOL    HW270898   9.305   0.537  10.910  1.4404  0.5179  2.5360
55405SOL     OW70899   6.555   0.302   0.014 -0.2135 -0.1496  0.2957
55405SOL    HW170900   6.488   0.348   0.064  0.3342  1.5406 -0.4249
55405SOL    HW270901   6.552   0.212   0.045 -1.8733  0.1958  1.2391
55406SOL     OW70902   7.183  11.131  11.251  0.3531 -0.3817 -0.1931
55406SOL    HW170903   7.132  11.167  11.324 -2.0695 -2.5744 -0.6675
55406SOL    HW270904   7.262  11.095  11.293  0.0301  0.2848  1.0448
55407SOL     OW70905   3.900   4.552   9.862 -0.8007 -0.4238  0.2726
55407SOL    HW170906   3.928   4.623   9.804  0.2181 -1.8436 -1.0321
55407SOL    HW270907   3.862   4.486   9.804 -1.5351 -1.0646  1.4378
55408SOL     OW70908   8.158   1.755   0.200 -0.2041 -0.3545 -0.9421
55408SOL    HW170909   8.150   1.731   0.292 -0.8866 -1.1863 -1.2024
55408SOL    HW270910   8.252   1.750   0.182  0.0376  0.7190 -0.0692
55409SOL     OW70911   2.749  10.316   5.798 -0.3124  0.2029  0.9674
55409SOL    HW170912   2.760  10.221   5.797  0.7098  0.3072 -0.1151
55409SOL    HW270913   2.655  10.329   5.809 -0.6448 -0.9585 -0.2343
55410SOL     OW70914   8.326   0.491   4.416  0.1698  0.2863  0.1150
55410SOL    HW170915   8.404   0.544   4.402  0.3778  0.3725  1.4813
55410SOL    HW270916   8.357   0.401   4.416  0.0474  0.2352 -0.6899
55411SOL     OW70917   5.101   2.054   9.904 -0.0017  0.2159  0.3541
55411SOL    HW170918   5.058   2.051   9.819 -2.0953 -0.8441  1.3651
55411SOL    HW270919   5.183   2.007   9.892 -0.4719 -0.3060 -0.9794
55412SOL     OW70920   2.604  11.180   0.199 -0.1865  0.0233  0.2686
55412SOL    HW170921   2.630  11.192   0.290 -1.8231  2.6603  0.4824
55412SOL    HW270922   2.508  11.178   0.201 -0.2624  0.3935 -1.4127
55413SOL     OW70923   8.495   4.553   0.533 -0.9514 -0.6565 -0.4780
55413SOL    HW170924   8.464   4.644   0.534 -2.0934 -1.0035  0.9608
55413SOL    HW270925   8.414   4.501   0.530 -0.4899 -1.6076  1.6376
55414SOL     OW70926   1.066  11.998   9.485  0.0142  0.0410  0.4570
55414SOL    HW170927   0.979  12.029   9.509 -0.0880 -0.4059  0.6732
55414SOL    HW270928   1.077  11.916   9.534 -1.0162 -2.0362 -2.4792
55415SOL     OW70929   3.689   6.399   2.652  0.3123  0.1835  0.1700
55415SOL    HW170930   3.683   6.377   2.559  3.0384 -1.3431  0.2519
55415SOL    HW270931   3.634   6.333   2.695  0.4874 -0.2587 -0.2662
55416SOL     OW70932   8.599   4.929  10.350  0.1443 -0.1744  0.0963
55416SOL    HW170933   8.607   4.916  10.444  0.1784 -0.9251 -0.0070
55416SOL    HW270934   8.518   4.884  10.326  0.5321 -0.6437 -0.3532
55417SOL     OW70935   6.387  11.136   4.465  0.0470 -0.4026 -0.4753
55417SOL    HW170936   6.358  11.114   4.553 -0.5593  1.6471 -0.1002
55417SOL    HW270937   6.312  11.113   4.409  0.3623 -1.5286 -0.4468
55418SOL     OW70938  11.454   1.039   9.892 -0.5867 -0.1468  0.1437
55418SOL    HW170939  11.492   1.107   9.836  0.3943 -0.3155  0.5895
55418SOL    HW270940  11.417   1.087   9.966 -2.2873  0.1190 -0.8244
55419SOL     OW70941   0.401  10.240   8.170 -0.1777 -0.4072  0.3803
55419SOL    HW170942   0.457  10.305   8.128  0.5993 -1.2215  0.1222
55419SOL    HW270943   0.327  10.290   8.205  1.0984  0.8073  1.4227
55420SOL     OW70944   7.920   6.713   0.719 -0.1255 -0.2048 -0.1928
55420SOL    HW170945   7.893   6.639   0.773  0.8275 -0.2602  0.2291
55420SOL    HW270946   7.876   6.789   0.758 -1.0983 -0.5261 -0.6210
55421SOL     OW70947   4.541   9.286  10.990  0.2417 -0.3976 -0.0589
55421SOL    HW170948   4.585   9.246  11.065  2.9064  2.4386  0.0550
55421SOL    HW270949   4.464   9.329  11.028  1.3136  0.6263  1.0134
55422SOL     OW70950   9.989  11.538   4.683  0.1355 -0.3015 -0.1339
55422SOL    HW170951   9.987  11.628   4.715  2.2633  0.4988 -2.0192
55422SOL    HW270952   9.964  11.544   4.591  0.0764 -1.6751 -0.2329
55423SOL     OW70953  11.011   3.461  11.184 -0.4066  0.2846  0.5811
55423SOL    HW170954  10.919   3.443  11.204 -0.7360  1.0746 -0.1766
55423SOL    HW270955  11.037   3.528  11.248 -0.2312 -0.2169  1.0471
55424SOL     OW70956   2.420   5.438   1.146 -0.4566  0.5582  0.1827
55424SOL    HW170957   2.395   5.521   1.104 -1.4990 -0.4097 -1.1956
55424SOL    HW270958   2.481   5.397   1.084 -1.7763 -0.7508 -0.3016
55425SOL     OW70959   8.907   2.718   0.818 -0.3416 -0.4155 -0.3260
55425SOL    HW170960   8.972   2.780   0.849  0.6423 -1.3224 -0.5101
55425SOL    HW270961   8.904   2.731   0.723 -0.6177 -0.1934 -0.2861
55426SOL     OW70962   3.686  11.805   4.866 -0.0632  0.0322  0.1098
55426SOL    HW170963   3.742  11.858   4.923 -1.0396  2.3804 -0.9763
55426SOL    HW270964   3.746  11.767   4.802  0.6374  0.1659  0.6748
55427SOL     OW70965   3.607  10.713  11.539  1.1365 -0.1471 -0.3166
55427SOL    HW170966   3.585  10.622  11.556  0.4500 -0.0169 -0.4972
55427SOL    HW270967   3.532  10.748  11.492  1.1424  0.6646  0.2530
55428SOL     OW70968  11.765   0.626   3.526 -0.4291  0.5800  0.0610
55428SOL    HW170969  11.706   0.608   3.599 -0.3457  1.2913  0.3134
55428SOL    HW270970  11.843   0.575   3.545 -1.2284 -1.0337 -0.6905
55429SOL     OW70971   7.716   4.814   5.565 -0.2807 -0.4194  0.1113
55429SOL    HW170972   7.729   4.759   5.487 -0.9015 -1.6877  0.8727
55429SOL    HW270973   7.724   4.903   5.532 -1.0628 -0.9056 -1.5355
55430SOL     OW70974   8.534   5.817   4.934 -0.0193  0.5735  0.0231
55430SOL    HW170975   8.500   5.837   4.847 -1.2635 -0.8837  0.1341
55430SOL    HW270976   8.610   5.761   4.919 -1.3795 -1.3244 -0.1500
55431SOL     OW70977  11.159   0.646   2.771 -0.4597 -0.1266  0.5399
55431SOL    HW170978  11.125   0.701   2.700  0.9749  1.6135  1.1443
55431SOL    HW270979  11.149   0.556   2.738 -1.2132  0.5681 -1.2310
55432SOL     OW70980   3.964   8.315   8.581 -0.0819  0.5941 -0.1023
55432SOL    HW170981   3.914   8.391   8.609 -0.2701  0.2265  0.5732
55432SOL    HW270982   3.899   8.252   8.552  0.0454  0.4960 -0.1788
55433SOL     OW70983  10.387  11.226   2.679  0.0246 -0.6394  0.2460
55433SOL    HW170984  10.382  11.147   2.733 -0.3855  0.4787  1.9086
55433SOL    HW270985  10.343  11.294   2.730 -2.7666 -0.0572 -2.5983
55434SOL     OW70986   3.446  11.351   3.483 -0.2859 -0.3149 -0.0929
55434SOL    HW170987   3.465  11.261   3.512  0.4412  0.1274  0.8766
55434SOL    HW270988   3.352  11.362   3.497 -0.2199 -0.6332  0.6467
55435SOL     OW70989  10.493   9.732   9.070  0.0469 -0.8930 -0.0488
55435SOL    HW170990  10.582   9.711   9.098 -0.3562 -1.1746  1.0977
55435SOL    HW270991  10.499   9.746   8.976  1.9155  2.1722  0.3971
55436SOL     OW70992   5.974   7.791   4.059  0.1705 -0.4764  0.3274
55436SOL    HW170993   6.037   7.754   3.997 -0.3204 -0.4557 -0.1934
55436SOL    HW270994   5.892   7.796   4.010 -0.2909 -0.6808  1.0527
55437SOL     OW70995   0.283  11.897   9.518 -0.5864 -0.4252  0.5695
55437SOL    HW170996   0.330  11.955   9.457  0.7034  0.7797  2.5927
55437SOL    HW270997   0.196  11.935   9.524  0.2447  1.4531  1.8909
55438SOL     OW70998  10.227   8.690  11.780  0.4291 -0.4376 -0.5787
55438SOL    HW170999  10.315   8.654  11.769 -0.7281 -3.5196 -0.8024
55438SOL    HW271000  10.199   8.712  11.691  0.0789 -1.9310 -0.8663
55439SOL     OW71001   8.457  11.790   0.460 -0.2262  0.5203 -0.2166
55439SOL    HW171002   8.372  11.768   0.421 -0.4558 -0.9055  0.9963
55439SOL    HW271003   8.515  11.718   0.434  0.1623  0.6359  0.3233
55440SOL     OW71004  10.183   7.004   1.334  0.0624  0.0692  0.0224
55440SOL    HW171005  10.243   6.958   1.393  1.1985  0.2472 -0.9581
55440SOL    HW271006  10.199   7.096   1.350 -2.2015  0.2066  1.9709
55441SOL     OW71007   7.680   2.288   6.346 -0.0035  0.1181  0.0289
55441SOL    HW171008   7.618   2.272   6.416 -0.0213 -0.9925 -0.2114
55441SOL    HW271009   7.649   2.233   6.274  1.0551 -0.1998 -0.2027
55442SOL     OW71010   2.873   3.412   5.645 -0.4341 -0.1151  0.3976
55442SOL    HW171011   2.882   3.343   5.710  2.5738 -1.4724 -1.2637
55442SOL    HW271012   2.957   3.458   5.645 -1.6532  2.2749  0.0222
55443SOL     OW71013   1.384   8.718   7.803 -0.5769  0.5167  0.5029
55443SOL    HW171014   1.423   8.783   7.861  0.3932  0.5308 -0.1433
55443SOL    HW271015   1.444   8.713   7.729 -0.7821 -0.9229  0.4105
55444SOL     OW71016   5.302   5.720   2.833  0.1489  0.3215  0.8429
55444SOL    HW171017   5.268   5.633   2.858 -0.6610 -0.4053 -2.3624
55444SOL    HW271018   5.234   5.781   2.860 -1.0326 -0.4971 -0.1739
55445SOL     OW71019   7.729   1.023   1.107 -0.1347 -0.5718 -0.3717
55445SOL    HW171020   7.752   0.931   1.117  0.1812 -0.6630 -1.7603
55445SOL    HW271021   7.755   1.064   1.189 -0.5466 -1.7649  0.3770
55446SOL     OW71022   8.732   8.865   9.725  0.2255 -0.1400 -0.0975
55446SOL    HW171023   8.650   8.866   9.676  0.0359  0.0892  0.2226
55446SOL    HW271024   8.739   8.775   9.757  0.0019 -0.1107  0.0382
55447SOL     OW71025   5.073   8.804   4.182 -0.2107  0.5413 -0.1159
55447SOL    HW171026   5.088   8.710   4.174 -0.1784  0.5734 -0.4498
55447SOL    HW271027   5.159   8.843   4.164 -0.8454  0.7873 -3.0799
55448NA      NA71028   0.688   4.368  11.642  0.4486 -0.4613 -0.0124
55449NA      NA71029   0.953  11.313   0.928 -1.1815 -0.0620 -0.4828
55450NA      NA71030   1.302   0.644   2.892 -0.2340  0.0168  0.1065
55451NA      NA71031  11.896   1.544   4.642  0.1632  0.1751 -0.0681
55452NA      NA71032   7.424  11.011   7.868 -0.1667 -0.2396  0.0876
55453NA      NA71033   6.992   1.475   5.073 -0.0376  0.2252  0.2619
55454NA      NA71034   4.869   7.707   1.190 -0.3675  0.3310 -0.1669
55455NA      NA71035   2.486   0.326   3.554 -0.4947  0.7230  0.0234
55456NA      NA71036   4.080   3.243   9.639 -0.0228 -0.4785 -0.1724
55457NA      NA71037   0.436  10.582   9.352  0.0101 -0.4849 -0.1874
55458NA      NA71038   9.397  11.201   1.433 -0.0787 -0.3811 -0.2291
55459NA      NA71039   1.235   2.321  11.530  0.1678  0.0136 -0.4888
55460NA      NA71040  10.058   4.175   1.198  0.3058  0.0626 -0.4419
55461NA      NA71041   0.458   4.899   5.560 -0.1622  0.0297 -0.0634
55462NA      NA71042   5.429  10.184   0.329 -0.2080 -0.1365 -0.4105
55463NA      NA71043  11.104   4.466   3.947  0.5262 -0.3768  0.5419
55464NA      NA71044   3.844   2.594   3.282  0.2371 -0.0166  0.0803
55465NA      NA71045   5.699  10.778   2.071  0.2950  0.5732 -0.0271
55466NA      NA71046   8.008   2.736  11.686 -0.6276 -0.2008  0.4303
55467NA      NA71047   1.102   6.004   5.338  0.1301 -0.9821  0.7827
55468NA      NA71048   1.833  10.412  10.818 -0.3780 -0.3018  0.2042
55469NA      NA71049   2.478   4.654   3.794 -0.5119  0.7918 -0.1583
55470NA      NA71050  10.132   4.919   3.809 -0.0942 -0.2457 -0.0884
55471NA      NA71051   0.101   7.702   9.752  0.2830  0.0510  0.1551
55472NA      NA71052   1.147   0.537  10.870  0.2487  0.0078  0.1406
55473NA      NA71053   1.235   7.913   0.239  0.4829  0.4405  0.2726
55474NA      NA71054   6.078   2.218  10.760 -0.2148  0.1668  0.0885
55475NA      NA71055   7.667   8.947   0.059 -0.0957 -0.2166 -0.2893
55476NA      NA71056   2.690   9.747   8.213  0.3217  0.7019  0.0730
55477NA      NA71057   7.515   1.532   3.557 -0.3649 -0.1069 -0.0679
55478NA      NA71058   0.476   7.767   0.932  0.2675  0.0972 -0.1744
55479NA      NA71059  11.011   8.881   1.051 -0.2056 -0.1217  0.2210
55480NA      NA71060   9.151  10.950   5.419 -0.4002 -0.0338  0.3781
55481NA      NA71061   7.508   2.763   6.760  1.0315 -0.4527 -0.2038
55482NA      NA71062   5.368   4.852  11.722  0.4225  0.0661  0.3881
55483NA      NA71063  10.932   3.159  10.375  0.3438  0.2068  0.0725
55484NA      NA71064   0.642   6.221   7.907  0.3402 -0.3654  0.4921
55485NA      NA71065   5.973   1.067   0.884  0.0346 -0.0183  0.2029
55486NA      NA71066   1.504  11.029   5.133  0.2550 -0.3099 -0.2526
55487NA      NA71067  11.046   5.697  11.187 -0.1639 -0.2874  0.0017
55488NA      NA71068   6.534   2.876  11.631  0.1565 -0.1617  0.1992
55489NA      NA71069  10.516   2.603   3.152  0.1028  0.1167 -0.2593
55490NA      NA71070   2.751   4.265   7.255 -0.1609 -0.4384 -0.1687
55491NA      NA71071   5.995   5.181   7.841  0.1793  0.1132 -0.0975
55492NA      NA71072   9.367   4.840   2.380  0.1918  0.2739  0.3254
55493NA      NA71073   8.974   1.753  10.081  0.4212 -0.3191 -0.4006
55494NA      NA71074   1.436   1.491  11.229  0.2465  0.0927  0.4316
55495NA      NA71075   4.773  11.231   5.037  0.3256 -0.3299  0.2050
55496NA      NA71076   5.231  10.801   8.358 -0.2157 -0.0838 -0.9191
55497NA      NA71077   6.693   5.086  10.931 -0.0211  0.6062  0.6388
55498NA      NA71078   1.432  10.504  11.950 -0.6169  0.6896 -0.1741
55499NA      NA71079   4.337   4.252  11.369  0.2059  0.2802 -0.2257
55500NA      NA71080   5.653   9.424   0.399 -0.1389  0.4036  0.2085
55501NA      NA71081  11.812   5.181   4.059  0.0961 -0.5149  0.4634
55502NA      NA71082   0.850   6.563   1.644 -0.3968 -0.4086  0.2969
55503NA      NA71083   4.483  11.865   8.188 -0.3374 -0.3334 -0.5943
55504NA      NA71084   8.275   2.301   2.381  0.1432 -0.1172  0.4855
55505NA      NA71085  11.159   6.285   4.719 -0.2590  0.0830  0.3053
55506NA      NA71086   9.497   2.712   3.123  0.1195  0.2648  0.5943
55507NA      NA71087   0.154   0.210   1.506 -0.3068 -0.1058  0.1997
55508NA      NA71088   2.977   2.706   1.675  0.3345  0.0078 -0.2468
55509NA      NA71089  11.958   9.433  11.550  0.6990  0.5917  0.5391
55510NA      NA71090   6.236   0.003   5.601 -0.1600 -0.0411 -0.0355
55511NA      NA71091  11.224   1.104  11.886  0.3107  0.2700  0.0442
55512NA      NA71092   4.427   1.347   7.371 -0.2633 -0.1689  0.2944
55513NA      NA71093   1.870   7.217   1.410 -0.2695 -0.1650 -0.0734
55514NA      NA71094   2.045   5.112   2.932  0.5112 -0.3944  0.4489
55515NA      NA71095   9.132   4.084   9.279 -0.2437 -0.2476  0.1888
55516NA      NA71096   5.849   2.987   2.448 -0.6899  0.1056 -0.0778
55517NA      NA71097   9.776   7.774   1.222 -0.2127 -0.2344 -0.0526
55518NA      NA71098   3.101   9.042   1.106 -0.1194 -0.2534 -0.3579
55519NA      NA71099   6.863   0.843   4.366  0.1654  0.1404  0.3781
55520NA      NA71100   4.694   8.401   2.521 -0.1997 -0.0141  0.6826
55521NA      NA71101   2.929   2.577  11.223  0.1075  0.0849  0.3365
55522NA      NA71102   8.616   7.077   1.890 -0.9018 -0.5730 -0.3594
55523NA      NA71103  11.677   9.009   9.459  0.5954 -0.1085 -0.0578
55524NA      NA71104   8.147   0.402   8.113 -0.1080 -0.6526  0.0911
55525NA      NA71105   0.083  11.525   3.436 -0.3454 -0.0500 -0.0109
55526NA      NA71106   6.313   2.035  10.423 -0.3834 -0.0976  0.2780
55527NA      NA71107   3.856   7.530  11.199  0.2162  0.3536  0.2289
55528NA      NA71108   7.175   2.416   0.637  0.4224  0.0311 -0.3886
55529NA      NA71109   9.126   2.257   8.994  0.3159  0.1858  0.2449
55530NA      NA71110   5.072   2.512  11.853 -0.2147  0.1287  0.0231
55531NA      NA71111   1.558   2.095   5.570 -0.1386  0.7126 -0.2545
55532NA      NA71112   3.952   0.854   8.594 -0.3620 -0.2678 -0.1487
55533NA      NA71113   5.780   4.384   5.586  0.2218  0.2297 -0.1279
55534NA      NA71114   5.524   0.319   1.615  0.3511  0.6828  0.3884
55535NA      NA71115   9.716  11.017   3.839 -0.6496 -0.1295 -0.4776
55536NA      NA71116   2.160   5.201   9.671 -0.3330  0.1450  0.1515
55537NA      NA71117   2.177   8.918  11.351  0.2174  0.4956  0.1372
55538NA      NA71118   8.797   5.378   8.311  0.4656 -0.1615  0.1709
55539NA      NA71119   6.658   3.656   7.626 -0.0921 -0.1046 -0.7116
55540NA      NA71120   8.795   7.282   8.724  0.3018 -0.1046  0.0117
55541NA      NA71121   0.868   7.621   2.706 -0.0403 -0.8218 -0.5875
55542NA      NA71122   0.055   0.396  11.417 -0.1107  0.1783  0.3458
55543NA      NA71123   3.095   3.716  10.076 -0.3503  0.3317 -0.3341
55544NA      NA71124   1.025   8.209   1.102  0.3611  0.2881 -0.2418
55545NA      NA71125  10.542  11.585   9.960 -0.2156  0.0044  0.5480
55546NA      NA71126   9.939   2.957   4.206  0.3295 -0.1672 -0.8821
55547NA      NA71127   2.811  10.914   9.548 -0.1047  0.1981 -0.0383
55548NA      NA71128   8.620   0.405  11.890 -0.4111 -0.5749  0.3873
55549NA      NA71129   6.461  10.450   0.685  0.3488 -0.0663  0.2119
55550NA      NA71130  10.477   6.172   9.775  0.0988 -0.2911  0.5077
55551NA      NA71131   0.613  11.612   3.131 -0.1387  0.2264  0.1981
55552NA      NA71132   8.398   2.903  10.918  0.3483 -0.5368  0.2015
55553NA      NA71133   9.035   3.968   5.037  0.0940 -0.5442  0.2483
55554NA      NA71134  11.914   6.194   2.599  0.1386 -0.2322 -0.1124
55555NA      NA71135   6.854  10.817  10.734  0.1508  0.4205 -0.1914
55556NA      NA71136   1.551   2.625   9.758 -0.4992  0.0194  0.1261
55557NA      NA71137  11.107   7.100  11.759 -0.3329  0.1299  0.4882
55558NA      NA71138   1.636   2.843   4.891  0.1656  0.2091 -0.7894
55559NA      NA71139   8.692   8.754  10.957  0.1640  0.2301 -0.2230
55560NA      NA71140   1.667  11.913   9.898 -0.2696 -0.5076 -0.7012
55561NA      NA71141   7.031   9.424   2.592  0.1877  0.0518 -0.0288
55562NA      NA71142   2.372   3.466   8.380  0.3649  0.2978 -0.0082
55563NA      NA71143   9.923   7.687   9.882 -0.2971 -0.1288 -0.0376
55564NA      NA71144  11.510   7.607   5.082 -0.4180 -0.2211  0.0556
55565NA      NA71145   8.196   0.497   4.245  0.4513  0.0222  0.1162
55566NA      NA71146   1.490   0.400   5.529  0.0013 -0.0702 -0.1357
55567NA      NA71147   0.064   0.564   7.472  0.2738  0.0610 -0.2354
55568NA      NA71148   5.383   3.479   9.803 -0.5523 -0.0003 -0.0663
55569NA      NA71149  11.996   2.371   5.592 -0.6283 -0.1707 -0.1409
55570NA      NA71150   4.003   9.771  11.999 -0.2983 -0.2070 -0.4011
55571NA      NA71151   9.478   3.927   2.482  0.8612  0.1302 -0.1305
55572NA      NA71152   1.752   9.094   8.577 -0.5694  0.5493 -0.1491
55573NA      NA71153   4.764   1.716   5.998 -0.4113 -0.4384 -0.0765
55574NA      NA71154   2.651  11.320   3.392 -0.2977  0.5985 -0.4309
55575NA      NA71155  11.171   9.672   6.670  0.1681  0.8893 -0.4931
55576NA      NA71156   5.903  11.501   8.946  0.0023 -0.5698  0.4004
55577NA      NA71157   3.798   6.131   1.086 -0.3208  0.0087 -0.5094
55578NA      NA71158   5.895  11.595   1.796 -0.2561  0.0283  0.0316
55579NA      NA71159   3.859   5.857   5.077  0.2386 -0.0502  0.9477
55580NA      NA71160   0.229   5.675  11.822 -0.4589 -1.0051 -0.1871
55581NA      NA71161   4.588  11.488   0.985  0.0376  0.2955  0.7475
55582NA      NA71162  11.729   0.902   1.843 -0.1185 -0.0519  0.0192
55583NA      NA71163  10.953  10.921   7.365 -0.3648 -0.0341  0.1152
55584NA      NA71164   7.608   5.576   0.478  0.2870 -0.0141 -0.2194
55585NA      NA71165   4.542   3.499   1.989  0.0347 -0.3546  0.7214
55586NA      NA71166   4.794   0.056  10.333  0.3738  0.4526 -0.2460
55587NA      NA71167   1.846  11.007  11.346  0.1304 -0.2268  0.1219
55588NA      NA71168   2.874   6.312  11.110  0.7071  0.3351 -0.4347
55589NA      NA71169   1.335   5.412   5.259  0.0661 -0.2407  0.0829
55590NA      NA71170  11.292  11.061  10.368  0.2307 -0.6106  0.3073
55591NA      NA71171   3.630   2.871  10.999 -0.3822 -0.0278 -0.6684
55592NA      NA71172   0.010   6.893   8.443  0.1194 -0.2745 -0.4044
55593NA      NA71173   3.556   5.686   1.619 -0.3416 -0.1634 -0.0905
55594NA      NA71174  11.388   5.354   9.971  1.0080  0.0130  0.1406
55595NA      NA71175  11.822   9.566   0.091 -0.8557  0.3530 -0.3428
55596NA      NA71176   8.675   3.741   7.602  0.0517  0.7615  0.3706
55597NA      NA71177   7.932  11.806   0.715  0.2926 -0.4058 -0.0288
55598NA      NA71178   4.329   4.523   9.939 -0.1593  0.4937 -0.2954
55599NA      NA71179   2.888   5.170   0.901  0.4598 -0.0170 -0.3053
55600NA      NA71180   6.008  10.355   9.936  0.3615 -0.3751  0.1924
55601NA      NA71181   0.993   3.572   1.778 -0.1628 -0.4655  0.1365
55602NA      NA71182   3.514   5.174   4.125 -0.1053 -0.0614 -0.0435
55603NA      NA71183   5.038  11.402  10.570 -0.3335  0.4974 -0.0289
55604NA      NA71184   7.689  11.107  10.026  0.2565  0.3620 -0.2446
55605NA      NA71185  11.194   5.206   8.915 -0.0680 -0.4254 -0.0695
55606NA      NA71186   2.628   4.661   2.229 -0.2776  0.4009 -0.2095
55607CL      CL71187   6.703   7.306   9.190 -0.2213  0.2285  0.0574
55608CL      CL71188   3.719   5.517   8.649  0.1218 -0.0100  0.1806
55609CL      CL71189   2.589   8.739   8.206 -0.2433  0.0231 -0.2009
55610CL      CL71190   5.110   0.005   5.886 -0.4264 -0.3805 -0.0001
55611CL      CL71191  10.890  10.102   1.422  0.3282 -0.4848  0.1134
55612CL      CL71192   0.142   8.125   9.630 -0.0391  0.4309  0.3417
55613CL      CL71193   7.164   6.699   8.710  0.3249 -0.0222  0.2505
55614CL      CL71194   6.336   2.696   9.574 -0.2350 -0.1196 -0.1984
55615CL      CL71195   4.136   3.526  10.857 -0.0106 -0.1535 -0.4636
55616CL      CL71196   5.039   4.034   0.993 -0.2578  0.1739  0.0837
55617CL      CL71197  11.323   7.553  11.756  0.4701 -0.2348  0.1956
55618CL      CL71198   0.440   1.757   4.709 -0.0497 -0.6314 -0.6830
55619CL      CL71199  10.292  10.956   0.460 -0.1859  0.1121  0.1137
55620CL      CL71200  10.123  11.916   0.465 -0.2814 -0.0047  0.1078
55621CL      CL71201   7.421   9.591  11.717  0.3278 -0.2492  0.0583
55622CL      CL71202   7.096   3.808   7.789 -0.0568 -0.0936 -0.2185
55623CL      CL71203  10.786   2.223   8.412  0.3202  0.2700 -0.0158
55624CL      CL71204   8.282   7.386   4.933  0.0759  0.0972  0.4976
55625CL      CL71205   0.398   9.378   0.754  0.5103 -0.0306  0.7276
55626CL      CL71206   5.196   1.719   0.353  0.2389 -0.1593 -0.1222
55627CL      CL71207   4.232   8.316   7.668 -0.2175 -0.0616 -0.6036
55628CL      CL71208   4.882   2.489   6.741 -0.2339 -0.0220 -0.3786
55629CL      CL71209   6.961   7.678   7.715 -0.1345  0.4276 -0.2777
55630CL      CL71210   4.037   9.975   7.330 -0.0126 -0.1874 -0.2446
55631CL      CL71211   7.756  10.250   7.975  0.1332 -0.1372 -0.0546
55632CL      CL71212   3.812   8.142   8.350  0.2849  0.2451  0.0851
55633CL      CL71213   6.967   5.725   3.491 -0.4363 -0.0016  0.2308
55634CL      CL71214   8.157   4.677   7.628  0.3722 -0.1834 -0.0692
55635CL      CL71215   3.630   4.696  11.784 -0.0255 -0.1296 -0.0938
55636CL      CL71216   3.599   6.395   5.319 -0.5868 -0.3952 -0.3163
55637CL      CL71217   6.118   5.491   7.486  0.1586 -0.0176  0.3159
55638CL      CL71218   5.776   4.778  10.926  0.2969 -0.3060 -0.1785
55639CL      CL71219   9.568   2.920   3.652 -0.3783 -0.6122 -0.0516
55640CL      CL71220   7.459   5.068   7.999  0.4356 -0.0884 -0.1475
55641CL      CL71221   8.625   4.253   4.052  0.0775  0.4005  0.1424
55642CL      CL71222   3.501   8.839   7.565  0.1460 -0.4079 -0.0453
55643CL      CL71223   6.039   9.768   4.279 -0.0785  0.0678 -0.0789
55644CL      CL71224  11.308   1.277  11.735  0.3049  0.1328  0.2457
55645CL      CL71225   1.521   3.513   7.112 -0.2755  0.4668  0.0557
55646CL      CL71226   2.634   9.921   8.391  0.0991 -0.2379  0.1439
55647CL      CL71227   5.787  10.255   6.415 -0.0707  0.0191 -0.1155
55648CL      CL71228  10.143   9.754   4.782  0.0931  0.6962 -0.2327
55649CL      CL71229   1.493   3.541   3.455  0.3238  0.1572  0.0442
55650CL      CL71230   4.269   5.138   4.249 -0.1259  0.0834 -0.1798
55651CL      CL71231   0.815   5.089   5.755  0.0246  0.2596 -0.0267
55652CL      CL71232   4.921   6.735   9.532 -0.1317 -0.0871  0.1338
55653CL      CL71233   3.336  11.668   3.987 -0.3139  0.4232 -0.0407
55654CL      CL71234   5.628   4.958   6.240 -0.1753  0.0943 -0.3289
55655CL      CL71235   3.611   7.523   6.321 -0.0764  0.1821 -0.0511
55656CL      CL71236   9.565   8.918   6.157 -0.0944  0.0991  0.3815
55657CL      CL71237  11.258   0.417  11.695  0.1376  0.3311 -0.3502
55658CL      CL71238   4.123   7.008   8.674 -0.0508 -0.1213  0.1938
55659CL      CL71239  11.710   7.206   4.268  0.2127  0.4611 -0.1457
55660CL      CL71240   5.856   6.892   9.588 -0.1303 -0.3934 -0.2581
55661CL      CL71241   1.766   4.430   4.585  0.7272 -0.5360  0.1901
55662CL      CL71242   6.862   4.981   1.106  0.3240 -0.2973  0.2101
55663CL      CL71243   1.381   3.146  11.994  0.4788  0.1379  0.2825
55664CL      CL71244   6.122   0.395   1.681  0.0334  0.1457 -0.1692
55665CL      CL71245   1.176   5.411   0.685  0.0642 -0.0144 -0.1312
55666CL      CL71246   5.989   6.686   8.490  0.0536  0.1303 -0.7710
55667CL      CL71247   5.073   4.687   8.394 -0.2700  0.3591 -0.0489
55668CL      CL71248   1.117   2.296   5.650  0.0201  0.2351  0.0307
55669CL      CL71249   7.834   8.973   3.967  0.4826 -0.6969  0.2232
55670CL      CL71250   3.345   6.847   5.057 -0.1632  0.4343  0.1204
55671CL      CL71251  10.698  11.895   2.333  0.0952  0.0968  0.0647
55672CL      CL71252   0.257   6.154  10.958 -0.0714 -0.1070 -0.1895
55673CL      CL71253   7.295   5.690   4.613 -0.4085 -0.1227  0.1345
55674CL      CL71254   9.048   8.037   3.184 -0.1059  0.2220 -0.1390
55675CL      CL71255   1.263   8.864  10.649  0.4181 -0.1369  0.0590
55676CL      CL71256   9.462  10.147   5.845  0.0594  0.1157 -0.1377
55677CL      CL71257   7.160   7.256   2.371  0.1449 -0.0523  0.0101
55678CL      CL71258   3.197   0.718   6.151 -0.1864 -0.0932 -0.1375
55679CL      CL71259   9.117   7.631   5.229 -0.1013  0.0746  0.1144
55680CL      CL71260   8.588   1.878  11.652  0.1659  0.1408 -0.1476
55681CL      CL71261   9.036  10.258  10.338 -0.2127 -0.1990  0.1758
55682CL      CL71262  11.203   7.513   7.204  0.0366 -0.5995 -0.2901
55683CL      CL71263   6.180   5.087   4.307 -0.4365 -0.0824  0.0861
55684CL      CL71264   2.227   5.864  10.096  0.4287  0.4271  0.1262
55685CL      CL71265   8.528   7.227   1.701  0.0827 -0.3293  0.4066
55686CL      CL71266  10.105  11.408   8.509  0.1569 -0.1732 -0.0873
55687CL      CL71267   9.948   2.121   1.893 -0.0199 -0.0891 -0.2097
55688CL      CL71268   3.702   4.978   9.174 -0.0907  0.3841 -0.1192
55689CL      CL71269   7.233  10.148   2.782 -0.0039 -0.1718  0.3871
55690CL      CL71270   4.013  10.373  10.457 -0.1948 -0.0403 -0.2861
55691CL      CL71271   7.928   8.701   4.352 -0.1106 -0.0712 -0.1555
55692CL      CL71272  10.324   3.631  10.576  0.4764 -0.0484 -0.3137
55693CL      CL71273   6.114   9.528   7.878  0.0736 -0.2749  0.2121
55694CL      CL71274   5.558  11.227   0.473 -0.1426 -0.0702 -0.0424
55695CL      CL71275  10.980   4.225   7.495 -0.6749  0.2362  0.0047
55696CL      CL71276   5.692   5.439   6.069 -0.1100 -0.2761 -0.1292
55697CL      CL71277  10.464   4.219   8.547 -0.0705  0.1156  0.2758
55698CL      CL71278   2.885   2.085   4.973  0.3015 -0.1911  0.2785
55699CL      CL71279  10.866   5.591   8.157 -0.4594  0.0289 -0.2364
55700CL      CL71280  10.259   7.963   8.815  0.1059 -0.0975 -0.0184
55701CL      CL71281   7.382   1.816  10.263 -0.0518 -0.3225 -0.1062
55702CL      CL71282   7.057   1.064   5.314  0.0275  0.0653 -0.3009
55703CL      CL71283   2.346   8.400  10.135 -0.5006 -0.4651  0.0583
55704CL      CL71284   8.415   7.012   7.355  0.1129  0.2465 -0.2097
55705CL      CL71285   4.935   9.514  10.391 -0.4913  0.6994  0.0825
55706CL      CL71286   8.714   6.767   9.939  0.1378 -0.2208 -0.5143
55707CL      CL71287   4.966   5.191   4.109  0.0923  0.2264  0.3012
55708CL      CL71288   6.959   5.818  11.092  0.2171 -0.2262 -0.2120
55709CL      CL71289   6.704   7.360   2.533 -0.2817  0.2147  0.0069
55710CL      CL71290   2.505   9.429   7.055 -0.0404 -0.3133  0.1445
55711CL      CL71291   8.890   6.951   0.316  0.3372  0.1956  0.1059
55712CL      CL71292   2.708   4.999   2.882 -0.0615  0.2536 -0.0755
55713CL      CL71293   1.092  11.924   2.139  0.3484  0.1859 -0.0210
55714CL      CL71294   0.309   7.324   5.155 -0.1657 -0.0539  0.0316
55715CL      CL71295   8.590   4.479   7.419 -0.1346  0.0193  0.1487
55716CL      CL71296   7.695   3.952   6.877 -0.6699  0.2694  0.6367
55717CL      CL71297   9.395   5.108   6.008 -0.1442 -0.2815  0.1938
55718CL      CL71298   5.432   5.515   8.088  0.1268 -0.1727 -0.3758
55719CL      CL71299   6.201   9.809   6.740  0.0142 -0.1669  0.3821
55720CL      CL71300   2.245   6.029   0.362 -0.4626 -0.4748 -0.1371
55721CL      CL71301   7.842  11.579   9.528  0.3091  0.1786  0.4438
55722CL      CL71302   9.045   9.150  11.369 -0.0033  0.7622  0.0126
55723CL      CL71303   0.385   0.556  10.521  0.1861 -0.4455 -0.2498
55724CL      CL71304   0.319  10.944  11.197  0.1197  0.3473  0.6676
55725CL      CL71305   9.612   6.484   6.339 -0.0494  0.2243 -0.1437
55726CL      CL71306   4.879  10.245  10.133 -0.0526  0.2298 -0.0128
55727CL      CL71307   5.001   8.693   7.715  0.0686 -0.0346  0.1570
55728CL      CL71308   6.775   3.099  11.316 -0.0015  0.0032  0.0002
55729CL      CL71309  11.967   9.531  11.320 -0.0831 -0.0260  0.1252
55730CL      CL71310   6.529   2.117   0.241 -0.3601  0.1599  0.1922
55731CL      CL71311   5.944   6.375   7.199 -0.0194 -0.5333  0.3028
55732CL      CL71312   1.739   8.661   6.601 -0.0530 -0.2879 -0.4524
55733CL      CL71313   9.917   4.619   3.234 -0.1494  0.2767 -0.2533
55734CL      CL71314   2.884   3.605  10.004 -0.0785  0.1439 -0.2970
55735CL      CL71315   5.569   6.310   5.637 -0.0299  0.4991  0.0869
55736CL      CL71316   8.995   6.867   6.835  0.1981  0.3190 -0.1606
55737CL      CL71317   6.380   4.684   5.890  0.0740 -0.0573 -0.3772
55738CL      CL71318  10.614  11.505   4.444  0.0786  0.1215 -0.1635
55739CL      CL71319   1.072  11.173   5.146 -0.1335  0.1961 -0.1022
55740CL      CL71320   6.394   0.662   4.230  0.2044  0.3922 -0.0928
55741CL      CL71321   5.162   6.120   5.580  0.0821 -0.2563  0.0753
55742CL      CL71322  10.684  11.720   6.018  0.1212 -0.1676 -0.3676
55743CL      CL71323   0.893   5.855   4.845 -0.0511  0.1766 -0.0483
55744CL      CL71324   6.258   4.734   2.600  0.4667  0.1941  0.3598
55745CL      CL71325   2.486   7.482   7.896 -0.0113  0.1452 -0.3437
55746CL      CL71326   4.752  11.247   9.462 -0.0027  0.0776  0.0470
55747CL      CL71327   2.589   7.295   8.980 -0.1290  0.4066 -0.6544
55748CL      CL71328   7.294   8.633   8.374 -0.0292  0.0261 -0.1536
55749CL      CL71329   5.000   8.934   9.580  0.4415  0.1687  0.1326
55750CL      CL71330   4.304   7.728   8.519 -0.1529  0.1783  0.2200
55751CL      CL71331   5.591   2.625   8.912  0.2584  0.1935 -0.1888
55752CL      CL71332   4.910   9.335  11.301  0.0963 -0.1273  0.4457
55753CL      CL71333   6.448   8.113   5.260  0.0621 -0.4056 -0.3863
55754CL      CL71334   4.721   7.528   2.119 -0.4694  0.5804  0.2381
55755CL      CL71335   1.938   5.850   7.452  0.1284  0.0277 -0.2936
55756CL      CL71336   3.818   7.136   4.171 -0.1713 -0.1928 -0.6222
55757CL      CL71337   7.407   2.166  11.914  0.2797  0.1901  0.1883
55758CL      CL71338   8.547  10.621   7.194 -0.1730  0.2074 -0.2684
55759CL      CL71339   9.344   7.402   8.031  0.0244 -0.4361 -0.1789
55760CL      CL71340   1.949   4.271   7.626 -0.1112 -0.2250  0.0544
55761CL      CL71341  11.562   8.424   3.025 -0.0458  0.0307 -0.0877
55762CL      CL71342   1.693   2.216  11.729 -0.1255  0.2511 -0.4554
55763CL      CL71343   2.634   5.025   7.698 -0.0432 -0.1630  0.2890
55764CL      CL71344   3.314   6.036   7.983  0.0210  0.3430 -0.1771
55765CL      CL71345   8.544  11.723   5.140 -0.7056  0.2203  0.5316
55766CL      CL71346   8.379   3.994   5.094  0.4512 -0.0786  0.1918
55767CL      CL71347   3.736   6.693   6.939 -0.1062  0.3996 -0.0745
55768CL      CL71348   8.645   6.915   4.833 -0.0133 -0.1113  0.0367
55769CL      CL71349  10.647   0.018  10.238  0.1917  0.4235 -0.0569
55770CL      CL71350   3.027   5.496   7.533  0.1324  0.2206  0.1983
55771CL      CL71351   7.106   5.282   4.648 -0.3389  0.1855  0.5375
55772CL      CL71352   5.406   6.331   7.881  0.1722 -0.2982  0.2084
55773CL      CL71353   8.893   8.337   4.500  0.1564  0.2895 -0.1151
55774CL      CL71354   3.527   2.740  11.474  0.0207 -0.3558  0.0536
55775CL      CL71355   4.962   8.550   4.980 -0.1176 -0.0059  0.2576
55776CL      CL71356   5.652   1.689   8.896  0.0000 -0.2265  0.3576
55777CL      CL71357   6.960   5.277   9.941  0.1632 -0.3193 -0.4855
55778CL      CL71358   1.011   5.889  10.875  0.1050 -0.0928 -0.1271
55779CL      CL71359  11.616   5.958   3.110 -0.0262 -0.4495 -0.0236
55780CL      CL71360   1.826  10.531  11.358 -0.2314 -0.1157 -0.4865
55781CL      CL71361   7.413   8.153   5.606 -0.1376  0.1435  0.1486
55782CL      CL71362   9.178   3.215   6.650 -0.1618  0.4429 -0.1639
55783CL      CL71363   8.052   5.825   7.381 -0.4340  0.2999 -0.3877
55784CL      CL71364   2.636  10.108   2.824  0.2371  0.2526 -0.0591
55785CL      CL71365   7.406   7.873   3.188 -0.1767 -0.0163  0.5347
55786CL      CL71366   5.470   7.288   4.946  0.0237 -0.0402  0.4226
55787CL      CL71367   7.433   9.727   4.758 -0.0469  0.0206 -0.1966
55788CL      CL71368   1.270   0.934   6.235 -0.2032 -0.3522 -0.2883
55789CL      CL71369   3.928   9.409  10.794  0.2168  0.1818  0.0857
55790CL      CL71370   5.795   7.876   5.635  0.5374  0.0705  0.2425
55791CL      CL71371   4.741   4.197   6.900 -0.7864  0.0760  0.1572
55792CL      CL71372   2.573   1.839   8.102 -0.1219 -0.0083  0.4180
55793CL      CL71373   1.185   3.244   2.516  0.2894  0.3418 -0.5848
55794CL      CL71374   2.357  10.203   0.556 -0.2256 -0.3697  0.1101
55795CL      CL71375   7.712   9.735   9.392  0.1324 -0.4514  0.0507
55796CL      CL71376   9.863   8.375   7.036  0.0247 -0.1732 -0.2654
55797CL      CL71377   6.254   9.293   7.476  0.1499  0.2969  0.0230
55798CL      CL71378  11.555   0.042   0.186 -0.0853 -0.5187 -0.1685
55799CL      CL71379   4.214   3.007  11.400  0.0422 -0.2457  0.2166
55800CL      CL71380   5.357   7.912   0.791 -0.1148 -0.2532 -0.0604
55801CL      CL71381  10.361  11.438   3.279 -0.2712  0.0483  0.0107
55802CL      CL71382   2.835   1.921   3.218  0.3396  0.0380 -0.0039
55803CL      CL71383   5.167   5.476   6.032  0.1784  0.7693 -0.0953
55804CL      CL71384   4.514   8.674   5.994 -0.1545 -0.4650  0.2720
55805CL      CL71385   0.430   0.356   4.569  0.0936  0.0822  0.2237
55806CL      CL71386   5.126   0.255   8.462 -0.1387 -0.0559 -0.3725
55807CL      CL71387   5.817  10.086   1.805  0.0903 -0.0184  0.1371
55808CL      CL71388   1.245  10.785  10.915 -0.3095  0.5013 -0.0224
55809CL      CL71389   2.610   3.053   9.641  0.2578 -0.1346  0.3601
55810CL      CL71390   3.821   5.592  11.203 -0.7328 -0.1597  0.0523
55811CL      CL71391   7.155  10.072   7.687  0.3129  0.3115 -0.3454
55812CL      CL71392   6.995  10.402  11.685 -0.0553 -0.6208 -0.3001
55813CL      CL71393   8.217   4.543   1.193  0.0895  0.0658  0.1225
55814CL      CL71394   0.546   0.081   0.498  0.4797  0.3798 -0.2474
55815CL      CL71395   9.486   7.756   6.065  0.1854  0.1210  0.1340
55816CL      CL71396   5.203   4.101   5.155  0.0665 -0.3025  0.2761
55817CL      CL71397   7.016   2.896   7.619 -0.0601 -0.2538  0.1742
55818CL      CL71398  11.826   0.482   7.583 -0.2491  0.2698 -0.0604
55819CL      CL71399   5.133   6.792   3.835  0.0514 -0.1552 -0.1896
55820CL      CL71400   3.233   5.222   1.131  0.2677 -0.5659 -0.0882
55821CL      CL71401   9.518   2.482   3.158 -0.2509  0.0167 -0.4666
55822CL      CL71402   4.019   9.031   9.027  0.0930 -0.4319 -0.2870
55823CL      CL71403   6.899   1.473  11.234 -0.3153  0.2131 -0.2341
55824CL      CL71404   0.277   7.687  11.269  0.2845  0.2623  0.0075
55825CL      CL71405   2.874   5.379   2.592  0.3156 -0.6066  0.0140
55826CL      CL71406   9.551   1.766   9.036  0.2155 -0.1221 -0.5917
55827CL      CL71407   9.658   5.596   3.873  0.2637  0.5363 -0.5223
55828CL      CL71408   4.204   2.839   2.234 -0.1379 -0.2262  0.1511
55829CL      CL71409   2.043   3.794   3.289 -0.1110  0.1725  0.2296
55830CL      CL71410   6.420   9.472   9.226  0.3595 -0.1592  0.2757
55831CL      CL71411   2.106   9.367   0.145 -0.0522  0.1120  0.3253
55832CL      CL71412   3.204   7.829   5.018 -0.3773  0.0299 -0.1772
55833CL      CL71413   9.928   9.801   3.548 -0.2703  0.0846 -0.2910
55834CL      CL71414   6.857   7.895   9.261 -0.4171 -0.1686  0.2064
55835CL      CL71415   3.871   4.587   5.096  0.4271  0.6791 -0.3899
55836CL      CL71416   1.044   5.070   3.533  0.6324 -0.2755  0.1842
55837CL      CL71417   3.824   2.598   8.119  0.0885  0.4746  0.3218
55838CL      CL71418   7.670   2.278   2.676  0.1790 -0.1397  0.2812
55839CL      CL71419   8.649   6.806   6.450  0.3888 -0.3301  0.3263
55840CL      CL71420   0.622   6.736   8.638 -0.1724 -0.3736 -0.1279
55841CL      CL71421   1.671   9.758   0.222  0.1877  0.1361 -0.0489
55842CL      CL71422   9.033  11.278   3.779 -0.1682  0.2161  0.5551
55843CL      CL71423   0.828   4.111   6.280 -0.1431  0.3367 -0.2182
55844CL      CL71424  11.581   4.521   4.003 -0.1173 -0.2078  0.5562
55845CL      CL71425   7.177   4.724   5.472 -0.0503 -0.0500  0.3586
55846CL      CL71426   2.974   7.081   9.079 -0.2117 -0.2323  0.1463
55847CL      CL71427   5.403  10.615   4.860 -0.4652  0.1524 -0.7027
55848CL      CL71428   7.357   1.086   3.274 -0.1898  0.0999 -0.0181
55849CL      CL71429   2.283   6.114   6.479 -0.6338 -0.0143  0.3483
55850CL      CL71430   8.431   2.334   8.254 -0.1210  0.3577 -0.6548
55851CL      CL71431   8.032   6.585   3.923  0.4282  0.3199  0.3122
55852CL      CL71432   8.603   6.184   7.614  0.2089 -0.0667  0.2590
55853CL      CL71433   6.738   8.075   4.049 -0.2087  0.2050  0.1853
55854CL      CL71434   8.249   9.402   7.958 -0.1132  0.0942  0.3411
55855CL      CL71435   7.570   6.010   8.222 -0.1926  0.2929 -0.1497
55856CL      CL71436   7.271  11.305   1.185  0.2670 -0.0837 -0.4102
55857CL      CL71437   6.302   5.059   7.560 -0.2196 -0.1622  0.2760
55858CL      CL71438   2.658   6.107   1.146 -0.3723 -0.4217  0.3975
55859CL      CL71439   3.136   2.504   9.038  0.0438  0.3848 -0.2784
55860CL      CL71440   9.407   8.710   7.418 -0.1622 -0.1786 -0.0198
55861CL      CL71441   5.145   3.271   0.049  0.1682  0.1514 -0.5740
55862CL      CL71442   7.318   0.257   9.839  0.1342  0.0927 -0.3416
55863CL      CL71443   2.971  11.897   7.724  0.1792 -0.3049 -0.1075
55864CL      CL71444   8.264   7.705   5.231 -0.0857  0.4411 -0.2267
55865CL      CL71445   7.434   7.998   1.261  0.4389 -0.2999 -0.2879
55866CL      CL71446   9.381   8.620   6.428 -0.4819  0.5128  0.4686
55867CL      CL71447   4.682   5.877   4.276 -0.3041  0.4882 -0.0256
55868CL      CL71448   7.937   5.422   1.997  0.1469  0.1442 -0.0767
55869CL      CL71449   2.542   6.671  11.888 -0.1032  0.0280  0.0387
55870CL      CL71450   4.110   4.456   1.908  0.1015 -0.4945  0.4063
55871CL      CL71451   8.446  10.669   4.935 -0.5795  0.4398 -0.2532
55872CL      CL71452   5.905   6.760   7.427  0.3037  0.1258  0.1393
55873CL      CL71453   5.082   1.666   7.471 -0.2522  0.6743 -0.2419
55874CL      CL71454   9.150  11.243   9.742  0.1781  0.2702 -0.1172
55875CL      CL71455   3.907   2.634   0.693  0.2831  0.2083  0.6646
55876CL      CL71456   0.880   2.639  10.708 -0.0987 -0.3496 -0.2467
55877CL      CL71457   6.352   8.919   2.098 -0.0329  0.1410 -0.1418
55878CL      CL71458   4.346   2.250   7.797 -0.1968  0.0515  0.1870
55879CL      CL71459   6.315  10.287   8.012 -0.1314 -0.0542  0.6603
55880CL      CL71460  11.043  10.773   7.532 -0.4823 -0.0138 -0.1222
55881CL      CL71461   6.452   7.492   6.381 -0.1357  0.2761 -0.0453
55882CL      CL71462   7.787   5.113   5.491 -0.2882  0.3545 -0.0519
55883CL      CL71463   5.512   6.601   9.772 -0.0939  0.5103  0.2613
55884CL      CL71464   3.688   5.784   4.909 -0.1020 -0.0971 -0.1698
55885CL      CL71465   1.184   8.308   0.928 -0.5136  0.2962 -0.0088
55886CL      CL71466   3.581   6.214   9.261 -0.4946  0.3337  0.2110
55887CL      CL71467   9.289  11.122   5.326 -0.3689  0.0267  0.1921
55888CL      CL71468   4.897   5.392   9.470 -0.0048  0.1798 -0.2027
55889CL      CL71469   2.446   5.459   9.986 -0.0397  0.0126 -0.3205
55890CL      CL71470   4.781   8.080   3.577  0.0876  0.3644  0.3023
55891CL      CL71471   1.112   0.427   2.556  0.5349  0.0379  0.2941
55892CL      CL71472   6.244   9.664  11.347 -0.5890  0.0640 -0.2093
55893CL      CL71473   7.777   4.148  11.472 -0.2946  0.1440 -0.5310
  12.00123  12.00123  12.00123
